Protein in water t=   0.00000 step= 0
325731
    1DC5    H5T    1   7.267   3.951   3.901
    1DC5    O5'    2   7.337   3.967   3.965
    1DC5    C5'    3   7.466   3.916   3.909
    1DC5   H5'1    4   7.467   3.808   3.899
    1DC5   H5'2    5   7.540   3.927   3.984
    1DC5    C4'    6   7.511   3.985   3.780
    1DC5    H4'    7   7.607   3.942   3.752
    1DC5    O4'    8   7.423   3.969   3.674
    1DC5    C1'    9   7.371   4.101   3.633
    1DC5    H1'   10   7.434   4.140   3.550
    1DC5     N1   11   7.233   4.106   3.583
    1DC5     C6   12   7.126   4.123   3.664
    1DC5     H6   13   7.148   4.142   3.768
    1DC5     C5   14   7.000   4.130   3.617
    1DC5     H5   15   6.926   4.158   3.689
    1DC5     C4   16   6.985   4.125   3.479
    1DC5     N4   17   6.872   4.157   3.426
    1DC5    H41   18   6.859   4.151   3.329
    1DC5    H42   19   6.805   4.190   3.487
    1DC5     N3   20   7.082   4.112   3.394
    1DC5     C2   21   7.205   4.105   3.445
    1DC5     O2   22   7.300   4.103   3.368
    1DC5    C3'   23   7.538   4.136   3.787
    1DC5    H3'   24   7.558   4.163   3.893
    1DC5    C2'   25   7.397   4.193   3.746
    1DC5   H2'1   26   7.336   4.169   3.836
    1DC5   H2'2   27   7.393   4.294   3.701
    1DC5    O3'   28   7.661   4.181   3.712
    2DG       P   29   7.695   4.341   3.682
    2DG     O1P   30   7.839   4.347   3.660
    2DG     O2P   31   7.635   4.412   3.793
    2DG     O5'   32   7.616   4.363   3.550
    2DG     C5'   33   7.661   4.312   3.431
    2DG    H5'1   34   7.584   4.251   3.404
    2DG    H5'2   35   7.757   4.262   3.438
    2DG     C4'   36   7.679   4.413   3.318
    2DG     H4'   37   7.742   4.371   3.235
    2DG     O4'   38   7.554   4.432   3.256
    2DG     C1'   39   7.503   4.559   3.300
    2DG     H1'   40   7.497   4.621   3.208
    2DG      N9   41   7.370   4.527   3.351
    2DG      C8   42   7.330   4.461   3.465
    2DG      H8   43   7.398   4.460   3.551
    2DG      N7   44   7.201   4.439   3.474
    2DG      C5   45   7.156   4.494   3.356
    2DG      C6   46   7.027   4.490   3.293
    2DG      O6   47   6.926   4.439   3.330
    2DG      N1   48   7.023   4.548   3.172
    2DG      H1   49   6.937   4.578   3.134
    2DG      C2   50   7.130   4.610   3.108
    2DG      N2   51   7.107   4.685   3.003
    2DG     H21   52   7.009   4.701   2.981
    2DG     H22   53   7.183   4.741   2.970
    2DG      N3   54   7.249   4.618   3.159
    2DG      C4   55   7.255   4.555   3.284
    2DG     C3'   56   7.726   4.556   3.366
    2DG     H3'   57   7.800   4.543   3.449
    2DG     C2'   58   7.595   4.620   3.405
    2DG    H2'1   59   7.573   4.589   3.508
    2DG    H2'2   60   7.601   4.727   3.397
    2DG     O3'   61   7.798   4.621   3.261
    3DC       P   62   7.865   4.767   3.284
    3DC     O1P   63   7.952   4.790   3.166
    3DC     O2P   64   7.919   4.785   3.421
    3DC     O5'   65   7.744   4.869   3.267
    3DC     C5'   66   7.708   4.914   3.136
    3DC    H5'1   67   7.718   4.831   3.061
    3DC    H5'2   68   7.785   4.986   3.093
    3DC     C4'   69   7.569   4.968   3.120
    3DC     H4'   70   7.557   4.993   3.020
    3DC     O4'   71   7.462   4.887   3.175
    3DC     C1'   72   7.350   4.971   3.189
    3DC     H1'   73   7.293   4.980   3.098
    3DC      N1   74   7.271   4.911   3.298
    3DC      C6   75   7.334   4.878   3.411
    3DC      H6   76   7.446   4.890   3.420
    3DC      C5   77   7.261   4.835   3.515
    3DC      H5   78   7.304   4.816   3.603
    3DC      C4   79   7.125   4.826   3.501
    3DC      N4   80   7.057   4.784   3.598
    3DC     H41   81   6.964   4.759   3.578
    3DC     H42   82   7.112   4.740   3.680
    3DC      N3   83   7.054   4.852   3.391
    3DC      C2   84   7.129   4.904   3.291
    3DC      O2   85   7.069   4.955   3.194
    3DC     C3'   86   7.550   5.096   3.208
    3DC     H3'   87   7.584   5.083   3.311
    3DC     C2'   88   7.404   5.109   3.223
    3DC    H2'1   89   7.377   5.144   3.328
    3DC    H2'2   90   7.369   5.181   3.153
    3DC     O3'   91   7.612   5.215   3.156
    4DA       P   92   7.633   5.348   3.248
    4DA     O1P   93   7.718   5.440   3.172
    4DA     O2P   94   7.660   5.327   3.394
    4DA     O5'   95   7.486   5.406   3.237
    4DA     C5'   96   7.430   5.443   3.111
    4DA    H5'1   97   7.422   5.362   3.038
    4DA    H5'2   98   7.497   5.519   3.077
    4DA     C4'   99   7.287   5.493   3.125
    4DA     H4'  100   7.254   5.515   3.025
    4DA     O4'  101   7.192   5.403   3.183
    4DA     C1'  102   7.117   5.472   3.280
    4DA     H1'  103   7.035   5.510   3.222
    4DA      N9  104   7.085   5.359   3.371
    4DA      C8  105   7.174   5.304   3.462
    4DA      H8  106   7.277   5.332   3.467
    4DA      N7  107   7.127   5.221   3.548
    4DA      C5  108   6.991   5.213   3.500
    4DA      C6  109   6.876   5.137   3.535
    4DA      N6  110   6.871   5.039   3.615
    4DA     H61  111   6.782   4.988   3.628
    4DA     H62  112   6.954   5.006   3.654
    4DA      N1  113   6.754   5.149   3.481
    4DA      C2  114   6.751   5.230   3.383
    4DA      H2  115   6.649   5.238   3.341
    4DA      N3  116   6.848   5.307   3.329
    4DA      C4  117   6.964   5.299   3.398
    4DA     C3'  118   7.274   5.625   3.201
    4DA     H3'  119   7.378   5.660   3.218
    4DA     C2'  120   7.207   5.587   3.334
    4DA    H2'1  121   7.274   5.547   3.404
    4DA    H2'2  122   7.142   5.665   3.368
    4DA     O3'  123   7.189   5.727   3.135
    5DT       P  124   7.166   5.877   3.187
    5DT     O1P  125   7.173   5.974   3.075
    5DT     O2P  126   7.263   5.899   3.300
    5DT     O5'  127   7.018   5.881   3.247
    5DT     C5'  128   6.910   5.835   3.168
    5DT    H5'1  129   6.937   5.748   3.106
    5DT    H5'2  130   6.858   5.911   3.111
    5DT     C4'  131   6.788   5.779   3.253
    5DT     H4'  132   6.704   5.753   3.185
    5DT     O4'  133   6.816   5.665   3.328
    5DT     C1'  134   6.738   5.676   3.444
    5DT     H1'  135   6.634   5.652   3.414
    5DT      N1  136   6.792   5.579   3.544
    5DT      C6  137   6.927   5.593   3.587
    5DT      H6  138   6.983   5.663   3.532
    5DT      C5  139   6.973   5.521   3.690
    5DT      C7  140   7.118   5.542   3.734
    5DT     H71  141   7.165   5.452   3.763
    5DT     H72  142   7.174   5.584   3.647
    5DT     H73  143   7.114   5.614   3.814
    5DT      C4  144   6.888   5.417   3.756
    5DT      O4  145   6.919   5.349   3.850
    5DT      N3  146   6.759   5.402   3.701
    5DT      H3  147   6.711   5.313   3.731
    5DT      C2  148   6.708   5.480   3.602
    5DT      O2  149   6.604   5.443   3.551
    5DT     C3'  150   6.738   5.887   3.349
    5DT     H3'  151   6.796   5.983   3.340
    5DT     C2'  152   6.746   5.827   3.484
    5DT    H2'1  153   6.844   5.836   3.524
    5DT    H2'2  154   6.667   5.854   3.564
    5DT     O3'  155   6.600   5.907   3.319
    6DG       P  156   6.516   6.033   3.381
    6DG     O1P  157   6.408   6.079   3.288
    6DG     O2P  158   6.611   6.130   3.431
    6DG     O5'  159   6.440   5.969   3.501
    6DG     C5'  160   6.343   5.862   3.476
    6DG    H5'1  161   6.368   5.797   3.396
    6DG    H5'2  162   6.247   5.914   3.449
    6DG     C4'  163   6.319   5.780   3.604
    6DG     H4'  164   6.230   5.715   3.586
    6DG     O4'  165   6.423   5.690   3.645
    6DG     C1'  166   6.403   5.674   3.791
    6DG     H1'  167   6.334   5.600   3.812
    6DG      N9  168   6.522   5.623   3.851
    6DG      C8  169   6.648   5.678   3.867
    6DG      H8  170   6.669   5.773   3.820
    6DG      N7  171   6.728   5.608   3.947
    6DG      C5  172   6.651   5.506   3.995
    6DG      C6  173   6.674   5.396   4.090
    6DG      O6  174   6.779   5.367   4.144
    6DG      N1  175   6.561   5.328   4.123
    6DG      H1  176   6.575   5.252   4.189
    6DG      C2  177   6.440   5.357   4.071
    6DG      N2  178   6.341   5.273   4.107
    6DG     H21  179   6.354   5.202   4.175
    6DG     H22  180   6.265   5.276   4.044
    6DG      N3  181   6.414   5.443   3.974
    6DG      C4  182   6.523   5.513   3.937
    6DG     C3'  183   6.275   5.863   3.725
    6DG     H3'  184   6.267   5.970   3.705
    6DG     C2'  185   6.371   5.819   3.835
    6DG    H2'1  186   6.458   5.880   3.829
    6DG    H2'2  187   6.336   5.835   3.936
    6DG     O3'  188   6.149   5.815   3.756
    7DT       P  189   6.040   5.900   3.842
    7DT     O1P  190   5.919   5.916   3.756
    7DT     O2P  191   6.101   6.022   3.908
    7DT     O5'  192   5.990   5.805   3.959
    7DT     C5'  193   5.918   5.691   3.940
    7DT    H5'1  194   5.990   5.630   3.900
    7DT    H5'2  195   5.837   5.712   3.869
    7DT     C4'  196   5.873   5.614   4.067
    7DT     H4'  197   5.798   5.542   4.035
    7DT     O4'  198   5.999   5.560   4.117
    7DT     C1'  199   6.011   5.597   4.250
    7DT     H1'  200   5.954   5.524   4.311
    7DT      N1  201   6.154   5.601   4.277
    7DT      C6  202   6.240   5.690   4.231
    7DT      H6  203   6.203   5.785   4.186
    7DT      C5  204   6.374   5.690   4.255
    7DT      C7  205   6.465   5.803   4.212
    7DT     H71  206   6.556   5.760   4.177
    7DT     H72  207   6.423   5.856   4.130
    7DT     H73  208   6.489   5.865   4.296
    7DT      C4  209   6.428   5.573   4.321
    7DT      O4  210   6.543   5.560   4.347
    7DT      N3  211   6.339   5.481   4.365
    7DT      H3  212   6.376   5.395   4.402
    7DT      C2  213   6.203   5.493   4.355
    7DT      O2  214   6.131   5.408   4.401
    7DT     C3'  215   5.811   5.701   4.176
    7DT     H3'  216   5.762   5.788   4.137
    7DT     C2'  217   5.937   5.730   4.261
    7DT    H2'1  218   5.991   5.818   4.225
    7DT    H2'2  219   5.914   5.751   4.369
    7DT     O3'  220   5.720   5.627   4.249
    8DG       P  221   5.612   5.691   4.345
    8DG     O1P  222   5.503   5.594   4.367
    8DG     O2P  223   5.576   5.827   4.301
    8DG     O5'  224   5.693   5.707   4.487
    8DG     C5'  225   5.727   5.590   4.559
    8DG    H5'1  226   5.768   5.518   4.496
    8DG    H5'2  227   5.631   5.544   4.595
    8DG     C4'  228   5.821   5.614   4.675
    8DG     H4'  229   5.816   5.543   4.753
    8DG     O4'  230   5.953   5.619   4.623
    8DG     C1'  231   6.026   5.705   4.705
    8DG     H1'  232   6.036   5.658   4.804
    8DG      N9  233   6.161   5.734   4.652
    8DG      C8  234   6.203   5.850   4.591
    8DG      H8  235   6.126   5.927   4.561
    8DG      N7  236   6.333   5.856   4.565
    8DG      C5  237   6.372   5.735   4.617
    8DG      C6  238   6.509   5.690   4.646
    8DG      O6  239   6.617   5.740   4.611
    8DG      N1  240   6.515   5.567   4.712
    8DG      H1  241   6.600   5.541   4.746
    8DG      C2  242   6.404   5.510   4.764
    8DG      N2  243   6.422   5.414   4.853
    8DG     H21  244   6.516   5.385   4.881
    8DG     H22  245   6.344   5.386   4.906
    8DG      N3  246   6.275   5.547   4.747
    8DG      C4  247   6.271   5.660   4.665
    8DG     C3'  248   5.796   5.749   4.747
    8DG     H3'  249   5.715   5.814   4.707
    8DG     C2'  250   5.931   5.829   4.722
    8DG    H2'1  251   5.918   5.890   4.633
    8DG    H2'2  252   5.950   5.877   4.818
    8DG     O3'  253   5.780   5.720   4.886
    9DC       P  254   5.637   5.696   4.959
    9DC     O1P  255   5.552   5.623   4.861
    9DC     O2P  256   5.575   5.815   5.023
    9DC     O5'  257   5.658   5.594   5.087
    9DC     C5'  258   5.678   5.452   5.078
    9DC    H5'1  259   5.687   5.427   4.970
    9DC    H5'2  260   5.592   5.399   5.121
    9DC     C4'  261   5.811   5.415   5.146
    9DC     H4'  262   5.823   5.304   5.147
    9DC     O4'  263   5.927   5.466   5.084
    9DC     C1'  264   6.019   5.511   5.185
    9DC     H1'  265   6.074   5.420   5.217
    9DC      N1  266   6.115   5.613   5.130
    9DC      C6  267   6.066   5.730   5.075
    9DC      H6  268   5.962   5.756   5.074
    9DC      C5  269   6.143   5.802   4.993
    9DC      H5  270   6.107   5.891   4.946
    9DC      C4  271   6.284   5.776   5.003
    9DC      N4  272   6.366   5.846   4.939
    9DC     H41  273   6.466   5.817   4.948
    9DC     H42  274   6.332   5.938   4.910
    9DC      N3  275   6.331   5.671   5.066
    9DC      C2  276   6.250   5.590   5.132
    9DC      O2  277   6.294   5.501   5.201
    9DC     C3'  278   5.803   5.466   5.287
    9DC     H3'  279   5.714   5.523   5.305
    9DC     C2'  280   5.929   5.547   5.304
    9DC    H2'1  281   5.905   5.658   5.303
    9DC    H2'2  282   5.981   5.509   5.388
    9DC     O3'  283   5.798   5.364   5.387
   10DG       P  284   5.755   5.395   5.540
   10DG     O1P  285   5.698   5.272   5.604
   10DG     O2P  286   5.676   5.522   5.541
   10DG     O5'  287   5.895   5.431   5.610
   10DG     C5'  288   5.978   5.334   5.665
   10DG    H5'1  289   5.928   5.287   5.748
   10DG    H5'2  290   5.984   5.253   5.596
   10DG     C4'  291   6.122   5.383   5.706
   10DG     H4'  292   6.181   5.301   5.745
   10DG     O4'  293   6.177   5.424   5.581
   10DG     C1'  294   6.272   5.528   5.606
   10DG     H1'  295   6.377   5.498   5.591
   10DG      N9  296   6.242   5.649   5.528
   10DG      C8  297   6.120   5.699   5.501
   10DG      H8  298   6.038   5.653   5.544
   10DG      N7  299   6.133   5.813   5.439
   10DG      C5  300   6.270   5.822   5.409
   10DG      C6  301   6.348   5.917   5.333
   10DG      O6  302   6.308   6.014   5.267
   10DG      N1  303   6.482   5.908   5.347
   10DG      H1  304   6.542   5.971   5.295
   10DG      C2  305   6.536   5.799   5.408
   10DG      N2  306   6.665   5.799   5.425
   10DG     H21  307   6.725   5.859   5.370
   10DG     H22  308   6.705   5.720   5.477
   10DG      N3  309   6.472   5.711   5.478
   10DG      C4  310   6.340   5.729   5.477
   10DG     C3'  311   6.130   5.511   5.789
   10DG     H3'  312   6.058   5.590   5.767
   10DG     C2'  313   6.263   5.561   5.753
   10DG    H2'1  314   6.279   5.669   5.763
   10DG    H2'2  315   6.339   5.512   5.816
   10DG     O3'  316   6.112   5.491   5.925
   11DT       P  317   6.160   5.602   6.038
   11DT     O1P  318   6.106   5.550   6.164
   11DT     O2P  319   6.110   5.736   5.983
   11DT     O5'  320   6.319   5.597   6.042
   11DT     C5'  321   6.399   5.696   6.107
   11DT    H5'1  322   6.401   5.673   6.210
   11DT    H5'2  323   6.338   5.795   6.101
   11DT     C4'  324   6.532   5.722   6.040
   11DT     H4'  325   6.600   5.636   6.043
   11DT     O4'  326   6.500   5.755   5.904
   11DT     C1'  327   6.570   5.871   5.886
   11DT     H1'  328   6.664   5.850   5.839
   11DT      N1  329   6.486   5.954   5.797
   11DT      C6  330   6.349   5.955   5.804
   11DT      H6  331   6.292   5.888   5.871
   11DT      C5  332   6.278   6.045   5.733
   11DT      C7  333   6.127   6.057   5.754
   11DT     H71  334   6.097   6.161   5.733
   11DT     H72  335   6.072   5.989   5.691
   11DT     H73  336   6.099   6.018   5.848
   11DT      C4  337   6.343   6.111   5.623
   11DT      O4  338   6.284   6.187   5.546
   11DT      N3  339   6.472   6.098   5.613
   11DT      H3  340   6.527   6.158   5.547
   11DT      C2  341   6.550   6.030   5.697
   11DT      O2  342   6.673   6.028   5.684
   11DT     C3'  343   6.600   5.839   6.115
   11DT     H3'  344   6.541   5.866   6.208
   11DT     C2'  345   6.579   5.947   6.018
   11DT    H2'1  346   6.495   6.003   6.038
   11DT    H2'2  347   6.666   6.009   6.012
   11DT     O3'  348   6.736   5.821   6.138
   12DA       P  349   6.801   5.745   6.255
   12DA     O1P  350   6.920   5.671   6.204
   12DA     O2P  351   6.697   5.680   6.342
   12DA     O5'  352   6.864   5.864   6.348
   12DA     C5'  353   6.965   5.948   6.291
   12DA    H5'1  354   6.985   5.929   6.184
   12DA    H5'2  355   7.056   5.918   6.347
   12DA     C4'  356   6.924   6.093   6.307
   12DA     H4'  357   7.005   6.153   6.260
   12DA     O4'  358   6.811   6.119   6.236
   12DA     C1'  359   6.749   6.232   6.298
   12DA     H1'  360   6.807   6.328   6.286
   12DA      N9  361   6.609   6.255   6.246
   12DA      C8  362   6.493   6.256   6.312
   12DA      H8  363   6.483   6.240   6.422
   12DA      N7  364   6.387   6.269   6.235
   12DA      C5  365   6.442   6.292   6.107
   12DA      C6  366   6.394   6.325   5.977
   12DA      N6  367   6.265   6.326   5.931
   12DA     H61  368   6.248   6.360   5.840
   12DA     H62  369   6.185   6.321   5.998
   12DA      N1  370   6.476   6.345   5.872
   12DA      C2  371   6.605   6.348   5.901
   12DA      H2  372   6.668   6.367   5.818
   12DA      N3  373   6.673   6.323   6.016
   12DA      C4  374   6.583   6.293   6.115
   12DA     C3'  375   6.912   6.138   6.454
   12DA     H3'  376   6.923   6.054   6.528
   12DA     C2'  377   6.768   6.197   6.447
   12DA    H2'1  378   6.704   6.111   6.466
   12DA    H2'2  379   6.757   6.277   6.521
   12DA     O3'  380   6.998   6.252   6.491
   13DD       P  381   7.152   6.244   6.473
   13DD     O1P  382   7.191   6.101   6.469
   13DD     O2P  383   7.209   6.334   6.581
   13DD     O5'  384   7.178   6.308   6.325
   13DD     C5'  385   7.211   6.447   6.308
   13DD    H5'1  386   7.317   6.459   6.289
   13DD    H5'2  387   7.183   6.509   6.398
   13DD     C4'  388   7.129   6.486   6.186
   13DD     H4'  389   7.133   6.406   6.118
   13DD     O4'  390   6.998   6.512   6.231
   13DD     C1'  391   6.929   6.566   6.117
   13DD     H1'  392   6.886   6.476   6.060
   13DD      N1  393   6.821   6.670   6.144
   13DD      C6  394   6.814   6.729   6.278
   13DD      H6  395   6.907   6.719   6.332
   13DD      C5  396   6.687   6.693   6.349
   13DD      C7  397   6.701   6.613   6.486
   13DD     H71  398   6.802   6.625   6.533
   13DD     H72  399   6.622   6.647   6.556
   13DD     H73  400   6.681   6.507   6.479
   13DD      C4  401   6.584   6.618   6.257
   13DD      O4  402   6.481   6.568   6.302
   13DD      N3  403   6.593   6.636   6.125
   13DD      H3  404   6.508   6.626   6.073
   13DD      C2  405   6.711   6.656   6.065
   13DD      O2  406   6.711   6.662   5.943
   13DD     C3'  407   7.160   6.616   6.126
   13DD     H3'  408   7.160   6.684   6.204
   13DD     C2'  409   7.036   6.628   6.035
   13DD    H2'1  410   7.009   6.733   6.011
   13DD    H2'2  411   7.053   6.572   5.939
   13DD     O3'  412   7.285   6.624   6.053
   14DD       P  413   7.358   6.771   6.046
   14DD     O1P  414   7.468   6.754   5.946
   14DD     O2P  415   7.395   6.814   6.185
   14DD     O5'  416   7.244   6.859   5.991
   14DD     C5'  417   7.213   6.986   6.056
   14DD    H5'1  418   7.273   7.063   6.016
   14DD    H5'2  419   7.226   6.983   6.164
   14DD     C4'  420   7.068   7.025   6.034
   14DD     H4'  421   7.051   6.987   5.940
   14DD     O4'  422   6.985   6.942   6.114
   14DD     C1'  423   6.859   6.993   6.082
   14DD     H1'  424   6.823   6.985   5.973
   14DD      N1  425   6.745   6.942   6.156
   14DD      C6  426   6.778   6.878   6.287
   14DD      H6  427   6.857   6.940   6.332
   14DD      C5  428   6.655   6.846   6.372
   14DD      C7  429   6.689   6.922   6.510
   14DD     H71  430   6.768   6.874   6.560
   14DD     H72  431   6.701   7.026   6.490
   14DD     H73  432   6.608   6.904   6.575
   14DD      C4  433   6.521   6.881   6.305
   14DD      O4  434   6.412   6.850   6.352
   14DD      N3  435   6.518   6.915   6.176
   14DD      H3  436   6.427   6.923   6.143
   14DD      C2  437   6.619   6.969   6.109
   14DD      O2  438   6.596   7.022   6.003
   14DD     C3'  439   7.021   7.171   6.060
   14DD     H3'  440   7.082   7.217   6.139
   14DD     C2'  441   6.881   7.145   6.117
   14DD    H2'1  442   6.892   7.149   6.226
   14DD    H2'2  443   6.801   7.209   6.090
   14DD     O3'  444   7.009   7.256   5.945
   15DA       P  445   6.993   7.414   5.964
   15DA     O1P  446   7.065   7.479   5.854
   15DA     O2P  447   7.038   7.443   6.105
   15DA     O5'  448   6.834   7.448   5.956
   15DA     C5'  449   6.774   7.423   5.834
   15DA    H5'1  450   6.763   7.311   5.822
   15DA    H5'2  451   6.828   7.468   5.743
   15DA     C4'  452   6.626   7.481   5.835
   15DA     H4'  453   6.609   7.483   5.727
   15DA     O4'  454   6.543   7.386   5.911
   15DA     C1'  455   6.487   7.462   6.020
   15DA     H1'  456   6.386   7.493   5.989
   15DA      N9  457   6.482   7.374   6.129
   15DA      C8  458   6.585   7.331   6.206
   15DA      H8  459   6.693   7.360   6.188
   15DA      N7  460   6.552   7.254   6.306
   15DA      C5  461   6.413   7.243   6.292
   15DA      C6  462   6.311   7.182   6.365
   15DA      N6  463   6.326   7.107   6.472
   15DA     H61  464   6.243   7.073   6.518
   15DA     H62  465   6.410   7.094   6.524
   15DA      N1  466   6.185   7.221   6.341
   15DA      C2  467   6.157   7.299   6.240
   15DA      H2  468   6.050   7.322   6.228
   15DA      N3  469   6.240   7.357   6.153
   15DA      C4  470   6.368   7.327   6.191
   15DA     C3'  471   6.608   7.621   5.897
   15DA     H3'  472   6.706   7.666   5.892
   15DA     C2'  473   6.573   7.589   6.040
   15DA    H2'1  474   6.664   7.579   6.103
   15DA    H2'2  475   6.513   7.669   6.078
   15DA     O3'  476   6.517   7.703   5.818
   16DT       P  477   6.475   7.853   5.865
   16DT     O1P  478   6.442   7.919   5.737
   16DT     O2P  479   6.581   7.913   5.954
   16DT     O5'  480   6.340   7.849   5.944
   16DT     C5'  481   6.218   7.794   5.896
   16DT    H5'1  482   6.241   7.696   5.851
   16DT    H5'2  483   6.173   7.862   5.817
   16DT     C4'  484   6.127   7.773   6.010
   16DT     H4'  485   6.034   7.728   5.976
   16DT     O4'  486   6.170   7.683   6.108
   16DT     C1'  487   6.140   7.739   6.236
   16DT     H1'  488   6.033   7.732   6.260
   16DT      N1  489   6.221   7.663   6.338
   16DT      C6  490   6.353   7.679   6.354
   16DT      H6  491   6.400   7.749   6.287
   16DT      C5  492   6.417   7.614   6.457
   16DT      C7  493   6.561   7.646   6.479
   16DT     H71  494   6.605   7.704   6.394
   16DT     H72  495   6.571   7.707   6.575
   16DT     H73  496   6.620   7.553   6.486
   16DT      C4  497   6.356   7.520   6.549
   16DT      O4  498   6.404   7.460   6.643
   16DT      N3  499   6.222   7.504   6.515
   16DT      H3  500   6.169   7.444   6.576
   16DT      C2  501   6.150   7.576   6.417
   16DT      O2  502   6.027   7.566   6.407
   16DT     C3'  503   6.093   7.907   6.076
   16DT     H3'  504   6.119   7.991   6.008
   16DT     C2'  505   6.159   7.895   6.212
   16DT    H2'1  506   6.263   7.915   6.205
   16DT    H2'2  507   6.106   7.955   6.285
   16DT     O3'  508   5.954   7.917   6.103
   17DA       P  509   5.889   8.065   6.111
   17DA     O1P  510   5.865   8.110   5.974
   17DA     O2P  511   5.975   8.142   6.205
   17DA     O5'  512   5.744   8.034   6.176
   17DA     C5'  513   5.660   7.936   6.105
   17DA    H5'1  514   5.716   7.864   6.048
   17DA    H5'2  515   5.596   7.988   6.028
   17DA     C4'  516   5.560   7.872   6.199
   17DA     H4'  517   5.492   7.805   6.139
   17DA     O4'  518   5.640   7.780   6.286
   17DA     C1'  519   5.635   7.838   6.418
   17DA     H1'  520   5.565   7.784   6.473
   17DA      N9  521   5.770   7.841   6.487
   17DA      C8  522   5.883   7.917   6.450
   17DA      H8  523   5.882   7.977   6.360
   17DA      N7  524   5.983   7.911   6.530
   17DA      C5  525   5.935   7.814   6.622
   17DA      C6  526   5.987   7.755   6.737
   17DA      N6  527   6.118   7.754   6.759
   17DA     H61  528   6.153   7.703   6.842
   17DA     H62  529   6.183   7.813   6.703
   17DA      N1  530   5.916   7.685   6.819
   17DA      C2  531   5.783   7.677   6.796
   17DA      H2  532   5.725   7.613   6.861
   17DA      N3  533   5.726   7.715   6.686
   17DA      C4  534   5.809   7.779   6.601
   17DA     C3'  535   5.487   7.975   6.298
   17DA     H3'  536   5.484   8.078   6.252
   17DA     C2'  537   5.575   7.976   6.422
   17DA    H2'1  538   5.644   8.055   6.406
   17DA    H2'2  539   5.513   7.991   6.510
   17DA     O3'  540   5.354   7.938   6.329
   18DC       P  541   5.244   8.029   6.408
   18DC     O1P  542   5.107   7.988   6.361
   18DC     O2P  543   5.286   8.176   6.392
   18DC     O5'  544   5.251   7.993   6.555
   18DC     C5'  545   5.237   7.859   6.593
   18DC    H5'1  546   5.300   7.792   6.528
   18DC    H5'2  547   5.132   7.827   6.570
   18DC     C4'  548   5.267   7.828   6.737
   18DC     H4'  549   5.221   7.732   6.763
   18DC     O4'  550   5.409   7.838   6.760
   18DC     C1'  551   5.431   7.932   6.861
   18DC     H1'  552   5.413   7.877   6.955
   18DC      N1  553   5.567   7.990   6.843
   18DC      C6  554   5.596   8.092   6.754
   18DC      H6  555   5.521   8.134   6.678
   18DC      C5  556   5.726   8.135   6.742
   18DC      H5  557   5.740   8.216   6.684
   18DC      C4  558   5.818   8.085   6.836
   18DC      N4  559   5.942   8.121   6.841
   18DC     H41  560   5.995   8.090   6.919
   18DC     H42  561   5.983   8.178   6.770
   18DC      N3  562   5.792   7.985   6.919
   18DC      C2  563   5.667   7.940   6.923
   18DC      O2  564   5.649   7.844   7.001
   18DC     C3'  565   5.200   7.938   6.831
   18DC     H3'  566   5.117   7.987   6.783
   18DC     C2'  567   5.314   8.034   6.858
   18DC    H2'1  568   5.324   8.105   6.778
   18DC    H2'2  569   5.301   8.076   6.959
   18DC     O3'  570   5.152   7.877   6.948
   19DA       P  571   5.021   7.934   7.018
   19DA     O1P  572   4.900   7.858   6.970
   19DA     O2P  573   5.026   8.079   7.013
   19DA     O5'  574   5.056   7.897   7.165
   19DA     C5'  575   5.047   7.764   7.208
   19DA    H5'1  576   5.073   7.697   7.128
   19DA    H5'2  577   4.944   7.740   7.227
   19DA     C4'  578   5.139   7.721   7.323
   19DA     H4'  579   5.127   7.613   7.324
   19DA     O4'  580   5.268   7.749   7.280
   19DA     C1'  581   5.334   7.827   7.377
   19DA     H1'  582   5.401   7.767   7.440
   19DA      N9  583   5.410   7.934   7.309
   19DA      C8  584   5.374   8.017   7.211
   19DA      H8  585   5.277   8.021   7.170
   19DA      N7  586   5.465   8.101   7.170
   19DA      C5  587   5.572   8.059   7.246
   19DA      C6  588   5.708   8.094   7.254
   19DA      N6  589   5.764   8.183   7.171
   19DA     H61  590   5.860   8.209   7.183
   19DA     H62  591   5.720   8.212   7.089
   19DA      N1  592   5.798   8.036   7.335
   19DA      C2  593   5.753   7.932   7.399
   19DA      H2  594   5.819   7.891   7.478
   19DA      N3  595   5.631   7.885   7.411
   19DA      C4  596   5.544   7.956   7.331
   19DA     C3'  597   5.108   7.788   7.463
   19DA     H3'  598   5.003   7.820   7.470
   19DA     C2'  599   5.224   7.884   7.467
   19DA    H2'1  600   5.198   7.981   7.414
   19DA    H2'2  601   5.264   7.907   7.565
   19DA     O3'  602   5.140   7.693   7.557
   20DT       P  603   5.089   7.710   7.708
   20DT     O1P  604   5.058   7.570   7.761
   20DT     O2P  605   4.980   7.813   7.716
   20DT     O5'  606   5.216   7.759   7.783
   20DT     C5'  607   5.329   7.673   7.791
   20DT    H5'1  608   5.350   7.647   7.692
   20DT    H5'2  609   5.324   7.582   7.854
   20DT     C4'  610   5.455   7.724   7.855
   20DT     H4'  611   5.530   7.644   7.854
   20DT     O4'  612   5.512   7.829   7.775
   20DT     C1'  613   5.549   7.932   7.862
   20DT     H1'  614   5.648   7.914   7.909
   20DT      N1  615   5.556   8.064   7.776
   20DT      C6  616   5.439   8.101   7.714
   20DT      H6  617   5.344   8.044   7.732
   20DT      C5  618   5.442   8.207   7.622
   20DT      C7  619   5.318   8.239   7.545
   20DT     H71  620   5.301   8.345   7.564
   20DT     H72  621   5.334   8.224   7.435
   20DT     H73  622   5.238   8.171   7.582
   20DT      C4  623   5.561   8.278   7.579
   20DT      O4  624   5.568   8.378   7.512
   20DT      N3  625   5.669   8.229   7.641
   20DT      H3  626   5.756   8.288   7.628
   20DT      C2  627   5.672   8.132   7.741
   20DT      O2  628   5.782   8.096   7.786
   20DT     C3'  629   5.427   7.782   7.991
   20DT     H3'  630   5.325   7.757   8.029
   20DT     C2'  631   5.443   7.930   7.973
   20DT    H2'1  632   5.349   7.969   7.942
   20DT    H2'2  633   5.481   7.986   8.064
   20DT     O3'  634   5.528   7.725   8.078
   21DT       P  635   5.528   7.761   8.239
   21DT     O1P  636   5.577   7.645   8.317
   21DT     O2P  637   5.397   7.819   8.284
   21DT     O5'  638   5.624   7.883   8.262
   21DT     C5'  639   5.759   7.876   8.209
   21DT    H5'1  640   5.750   7.819   8.119
   21DT    H5'2  641   5.830   7.813   8.263
   21DT     C4'  642   5.812   8.013   8.172
   21DT     H4'  643   5.911   8.004   8.127
   21DT     O4'  644   5.732   8.080   8.076
   21DT     C1'  645   5.772   8.216   8.074
   21DT     H1'  646   5.865   8.211   8.011
   21DT      N1  647   5.665   8.307   8.021
   21DT      C6  648   5.526   8.289   8.032
   21DT      H6  649   5.486   8.202   8.083
   21DT      C5  650   5.441   8.369   7.955
   21DT      C7  651   5.292   8.351   7.969
   21DT     H71  652   5.267   8.258   8.029
   21DT     H72  653   5.255   8.443   8.006
   21DT     H73  654   5.256   8.334   7.869
   21DT      C4  655   5.485   8.475   7.869
   21DT      O4  656   5.415   8.549   7.795
   21DT      N3  657   5.623   8.478   7.864
   21DT      H3  658   5.661   8.532   7.793
   21DT      C2  659   5.712   8.406   7.939
   21DT      O2  660   5.830   8.428   7.926
   21DT     C3'  661   5.826   8.106   8.290
   21DT     H3'  662   5.746   8.082   8.361
   21DT     C2'  663   5.789   8.243   8.223
   21DT    H2'1  664   5.694   8.270   8.264
   21DT    H2'2  665   5.863   8.324   8.240
   21DT     O3'  666   5.954   8.110   8.356
   22DG       P  667   5.981   8.192   8.490
   22DG     O1P  668   6.082   8.128   8.573
   22DG     O2P  669   5.848   8.221   8.556
   22DG     O5'  670   6.038   8.331   8.452
   22DG     C5'  671   6.146   8.333   8.361
   22DG    H5'1  672   6.113   8.286   8.270
   22DG    H5'2  673   6.224   8.270   8.396
   22DG     C4'  674   6.215   8.470   8.325
   22DG     H4'  675   6.317   8.452   8.290
   22DG     O4'  676   6.139   8.529   8.223
   22DG     C1'  677   6.069   8.649   8.271
   22DG     H1'  678   6.122   8.737   8.220
   22DG      N9  679   5.924   8.653   8.236
   22DG      C8  680   5.814   8.573   8.275
   22DG      H8  681   5.825   8.500   8.350
   22DG      N7  682   5.706   8.588   8.203
   22DG      C5  683   5.740   8.696   8.116
   22DG      C6  684   5.660   8.774   8.030
   22DG      O6  685   5.539   8.773   8.021
   22DG      N1  686   5.729   8.880   7.967
   22DG      H1  687   5.667   8.942   7.910
   22DG      C2  688   5.862   8.902   7.989
   22DG      N2  689   5.919   8.988   7.905
   22DG     H21  690   5.863   9.008   7.824
   22DG     H22  691   6.015   8.980   7.884
   22DG      N3  692   5.943   8.828   8.072
   22DG      C4  693   5.876   8.729   8.135
   22DG     C3'  694   6.211   8.573   8.443
   22DG     H3'  695   6.213   8.527   8.546
   22DG     C2'  696   6.077   8.642   8.421
   22DG    H2'1  697   5.997   8.579   8.460
   22DG    H2'2  698   6.077   8.744   8.472
   22DG     O3'  699   6.315   8.668   8.432
   23DT       P  700   6.376   8.764   8.547
   23DT     O1P  701   6.521   8.766   8.543
   23DT     O2P  702   6.314   8.719   8.673
   23DT     O5'  703   6.325   8.901   8.520
   23DT     C5'  704   6.355   8.975   8.398
   23DT    H5'1  705   6.328   8.917   8.303
   23DT    H5'2  706   6.464   8.990   8.387
   23DT     C4'  707   6.272   9.101   8.386
   23DT     H4'  708   6.315   9.174   8.320
   23DT     O4'  709   6.146   9.058   8.323
   23DT     C1'  710   6.044   9.121   8.398
   23DT     H1'  711   6.044   9.224   8.368
   23DT      N1  712   5.918   9.053   8.374
   23DT      C6  713   5.870   8.942   8.443
   23DT      H6  714   5.926   8.899   8.521
   23DT      C5  715   5.750   8.895   8.416
   23DT      C7  716   5.689   8.788   8.506
   23DT     H71  717   5.644   8.709   8.446
   23DT     H72  718   5.750   8.740   8.573
   23DT     H73  719   5.601   8.829   8.560
   23DT      C4  720   5.666   8.955   8.313
   23DT      O4  721   5.547   8.922   8.285
   23DT      N3  722   5.731   9.048   8.237
   23DT      H3  723   5.680   9.090   8.157
   23DT      C2  724   5.842   9.115   8.272
   23DT      O2  725   5.866   9.221   8.216
   23DT     C3'  726   6.244   9.163   8.519
   23DT     H3'  727   6.307   9.139   8.600
   23DT     C2'  728   6.097   9.128   8.543
   23DT    H2'1  729   6.081   9.033   8.590
   23DT    H2'2  730   6.049   9.209   8.602
   23DT     O3'  731   6.246   9.306   8.507
   24DA       P  732   6.374   9.392   8.542
   24DA     O1P  733   6.497   9.315   8.503
   24DA     O2P  734   6.361   9.436   8.682
   24DA     O5'  735   6.376   9.529   8.444
   24DA     C5'  736   6.406   9.528   8.304
   24DA    H5'1  737   6.426   9.432   8.263
   24DA    H5'2  738   6.491   9.595   8.288
   24DA     C4'  739   6.287   9.592   8.223
   24DA     H4'  740   6.327   9.604   8.125
   24DA     O4'  741   6.164   9.519   8.237
   24DA     C1'  742   6.060   9.607   8.290
   24DA     H1'  743   6.012   9.663   8.205
   24DA      N9  744   5.961   9.539   8.371
   24DA      C8  745   5.982   9.453   8.477
   24DA      H8  746   6.083   9.448   8.515
   24DA      N7  747   5.877   9.377   8.509
   24DA      C5  748   5.775   9.424   8.422
   24DA      C6  749   5.645   9.385   8.389
   24DA      N6  750   5.584   9.279   8.436
   24DA     H61  751   5.502   9.241   8.393
   24DA     H62  752   5.612   9.245   8.529
   24DA      N1  753   5.588   9.435   8.281
   24DA      C2  754   5.652   9.521   8.215
   24DA      H2  755   5.598   9.563   8.134
   24DA      N3  756   5.769   9.578   8.233
   24DA      C4  757   5.829   9.516   8.338
   24DA     C3'  758   6.254   9.733   8.272
   24DA     H3'  759   6.339   9.773   8.330
   24DA     C2'  760   6.134   9.707   8.364
   24DA    H2'1  761   6.158   9.663   8.464
   24DA    H2'2  762   6.076   9.797   8.383
   24DA     O3'  763   6.210   9.820   8.171
   25DC       P  764   6.265   9.971   8.153
   25DC     O1P  765   6.276   9.993   8.007
   25DC     O2P  766   6.383   9.983   8.237
   25DC     O5'  767   6.148  10.067   8.211
   25DC     C5'  768   6.019  10.070   8.149
   25DC    H5'1  769   6.004   9.972   8.106
   25DC    H5'2  770   6.013  10.142   8.070
   25DC     C4'  771   5.907  10.093   8.253
   25DC     H4'  772   5.821  10.139   8.206
   25DC     O4'  773   5.863   9.967   8.299
   25DC     C1'  774   5.832   9.986   8.432
   25DC     H1'  775   5.741  10.037   8.432
   25DC      N1  776   5.817   9.862   8.512
   25DC      C6  777   5.907   9.823   8.615
   25DC      H6  778   6.002   9.869   8.623
   25DC      C5  779   5.870   9.732   8.705
   25DC      H5  780   5.930   9.710   8.790
   25DC      C4  781   5.744   9.675   8.691
   25DC      N4  782   5.698   9.592   8.778
   25DC     H41  783   5.600   9.563   8.768
   25DC     H42  784   5.763   9.559   8.849
   25DC      N3  785   5.656   9.707   8.592
   25DC      C2  786   5.692   9.805   8.506
   25DC      O2  787   5.609   9.839   8.420
   25DC     C3'  788   5.941  10.186   8.367
   25DC     H3'  789   6.035  10.238   8.369
   25DC     C2'  790   5.939  10.085   8.482
   25DC    H2'1  791   6.032  10.049   8.505
   25DC    H2'2  792   5.895  10.142   8.566
   25DC     O3'  793   5.829  10.267   8.389
   26DG       P  794   5.826  10.417   8.353
   26DG     O1P  795   5.880  10.425   8.215
   26DG     O2P  796   5.883  10.500   8.464
   26DG     O5'  797   5.664  10.441   8.343
   26DG     C5'  798   5.579  10.377   8.248
   26DG    H5'1  799   5.627  10.296   8.209
   26DG    H5'2  800   5.556  10.447   8.171
   26DG     C4'  801   5.448  10.326   8.313
   26DG     H4'  802   5.386  10.307   8.231
   26DG     O4'  803   5.465  10.204   8.377
   26DG     C1'  804   5.400  10.220   8.503
   26DG     H1'  805   5.293  10.188   8.504
   26DG      N9  806   5.466  10.142   8.610
   26DG      C8  807   5.596  10.154   8.640
   26DG      H8  808   5.659  10.230   8.588
   26DG      N7  809   5.637  10.063   8.730
   26DG      C5  810   5.518   9.985   8.755
   26DG      C6  811   5.490   9.876   8.849
   26DG      O6  812   5.560   9.829   8.938
   26DG      N1  813   5.366   9.821   8.826
   26DG      H1  814   5.346   9.742   8.883
   26DG      C2  815   5.269   9.880   8.748
   26DG      N2  816   5.152   9.818   8.744
   26DG     H21  817   5.128   9.768   8.827
   26DG     H22  818   5.084   9.834   8.673
   26DG      N3  819   5.291   9.982   8.663
   26DG      C4  820   5.419  10.031   8.678
   26DG     C3'  821   5.379  10.435   8.397
   26DG     H3'  822   5.432  10.536   8.404
   26DG     C2'  823   5.381  10.371   8.535
   26DG    H2'1  824   5.463  10.410   8.602
   26DG    H2'2  825   5.289  10.387   8.582
   26DG     O3'  826   5.248  10.459   8.347
   27DC       P  827   5.162  10.580   8.406
   27DC     O1P  828   5.058  10.620   8.312
   27DC     O2P  829   5.251  10.686   8.452
   27DC     O5'  830   5.078  10.530   8.531
   27DC     C5'  831   4.980  10.429   8.528
   27DC    H5'1  832   5.010  10.357   8.461
   27DC    H5'2  833   4.885  10.471   8.484
   27DC     C4'  834   4.969  10.368   8.669
   27DC     H4'  835   4.889  10.290   8.673
   27DC     O4'  836   5.086  10.304   8.722
   27DC     C1'  837   5.093  10.336   8.857
   27DC     H1'  838   5.020  10.279   8.919
   27DC      N1  839   5.229  10.292   8.909
   27DC      C6  840   5.336  10.373   8.907
   27DC      H6  841   5.319  10.476   8.880
   27DC      C5  842   5.460  10.327   8.937
   27DC      H5  843   5.538  10.395   8.938
   27DC      C4  844   5.474  10.196   8.999
   27DC      N4  845   5.587  10.158   9.046
   27DC     H41  846   5.581  10.069   9.100
   27DC     H42  847   5.663  10.221   9.039
   27DC      N3  848   5.363  10.121   9.021
   27DC      C2  849   5.245  10.166   8.968
   27DC      O2  850   5.141  10.104   8.991
   27DC     C3'  851   4.926  10.472   8.782
   27DC     H3'  852   4.903  10.568   8.736
   27DC     C2'  853   5.057  10.480   8.862
   27DC    H2'1  854   5.130  10.542   8.819
   27DC    H2'2  855   5.040  10.508   8.965
   27DC     O3'  856   4.842  10.426   8.876
   28DA       P  857   4.711  10.496   8.939
   28DA     O1P  858   4.633  10.536   8.819
   28DA     O2P  859   4.744  10.593   9.041
   28DA     O5'  860   4.631  10.376   9.007
   28DA     C5'  861   4.572  10.276   8.939
   28DA    H5'1  862   4.638  10.252   8.849
   28DA    H5'2  863   4.480  10.322   8.896
   28DA     C4'  864   4.550  10.149   9.014
   28DA     H4'  865   4.519  10.083   8.930
   28DA     O4'  866   4.668  10.095   9.058
   28DA     C1'  867   4.674  10.107   9.201
   28DA     H1'  868   4.661  10.009   9.249
   28DA      N9  869   4.804  10.171   9.243
   28DA      C8  870   4.850  10.306   9.230
   28DA      H8  871   4.795  10.388   9.187
   28DA      N7  872   4.970  10.327   9.277
   28DA      C5  873   5.007  10.199   9.322
   28DA      C6  874   5.124  10.141   9.375
   28DA      N6  875   5.237  10.202   9.384
   28DA     H61  876   5.309  10.148   9.438
   28DA     H62  877   5.245  10.293   9.337
   28DA      N1  878   5.131  10.012   9.415
   28DA      C2  879   5.024   9.939   9.396
   28DA      H2  880   5.036   9.833   9.413
   28DA      N3  881   4.912   9.973   9.335
   28DA      C4  882   4.905  10.106   9.305
   28DA     C3'  883   4.454  10.155   9.131
   28DA     H3'  884   4.388  10.241   9.124
   28DA     C2'  885   4.552  10.187   9.239
   28DA    H2'1  886   4.586  10.293   9.248
   28DA    H2'2  887   4.512  10.164   9.343
   28DA     O3'  888   4.381  10.029   9.145
   29DT       P  889   4.276   9.986   9.254
   29DT     O1P  890   4.205   9.890   9.182
   29DT     O2P  891   4.209  10.105   9.302
   29DT     O5'  892   4.364   9.919   9.370
   29DT     C5'  893   4.439   9.805   9.347
   29DT    H5'1  894   4.489   9.810   9.255
   29DT    H5'2  895   4.357   9.725   9.336
   29DT     C4'  896   4.535   9.759   9.464
   29DT     H4'  897   4.577   9.663   9.433
   29DT     O4'  898   4.636   9.855   9.472
   29DT     C1'  899   4.684   9.861   9.605
   29DT     H1'  900   4.752   9.778   9.632
   29DT      N1  901   4.743   9.991   9.643
   29DT      C6  902   4.700  10.109   9.590
   29DT      H6  903   4.626  10.111   9.506
   29DT      C5  904   4.765  10.221   9.624
   29DT      C7  905   4.719  10.357   9.569
   29DT     H71  906   4.694  10.350   9.461
   29DT     H72  907   4.631  10.399   9.621
   29DT     H73  908   4.795  10.430   9.576
   29DT      C4  909   4.877  10.222   9.717
   29DT      O4  910   4.936  10.322   9.758
   29DT      N3  911   4.918  10.101   9.754
   29DT      H3  912   5.019  10.092   9.777
   29DT      C2  913   4.856   9.984   9.732
   29DT      O2  914   4.914   9.881   9.775
   29DT     C3'  915   4.479   9.744   9.602
   29DT     H3'  916   4.386   9.782   9.603
   29DT     C2'  917   4.555   9.854   9.685
   29DT    H2'1  918   4.497   9.949   9.688
   29DT    H2'2  919   4.575   9.824   9.789
   29DT     O3'  920   4.496   9.616   9.650
   30DA       P  921   4.447   9.570   9.792
   30DA     O1P  922   4.415   9.427   9.785
   30DA     O2P  923   4.341   9.664   9.840
   30DA     O5'  924   4.571   9.591   9.884
   30DA     C5'  925   4.679   9.499   9.887
   30DA    H5'1  926   4.733   9.511   9.792
   30DA    H5'2  927   4.642   9.393   9.891
   30DA     C4'  928   4.779   9.528  10.000
   30DA     H4'  929   4.852   9.447   9.990
   30DA     O4'  930   4.825   9.659   9.990
   30DA     C1'  931   4.812   9.724  10.119
   30DA     H1'  932   4.903   9.708  10.183
   30DA      N9  933   4.782   9.870  10.092
   30DA      C8  934   4.665   9.915  10.038
   30DA      H8  935   4.588   9.845  10.012
   30DA      N7  936   4.659  10.040  10.013
   30DA      C5  937   4.790  10.080  10.060
   30DA      C6  938   4.863  10.200  10.084
   30DA      N6  939   4.833  10.321  10.049
   30DA     H61  940   4.903  10.392  10.068
   30DA     H62  941   4.745  10.341  10.009
   30DA      N1  942   4.989  10.203  10.132
   30DA      C2  943   5.036  10.094  10.183
   30DA      H2  944   5.140  10.094  10.230
   30DA      N3  945   4.981   9.975  10.180
   30DA      C4  946   4.861   9.977  10.111
   30DA     C3'  947   4.717   9.518  10.142
   30DA     H3'  948   4.624   9.466  10.140
   30DA     C2'  949   4.696   9.660  10.184
   30DA    H2'1  950   4.599   9.689  10.132
   30DA    H2'2  951   4.694   9.680  10.289
   30DA     O3'  952   4.796   9.439  10.228
   31DT       P  953   4.790   9.418  10.390
   31DT     O1P  954   4.860   9.293  10.418
   31DT     O2P  955   4.652   9.429  10.434
   31DT     O5'  956   4.874   9.538  10.465
   31DT     C5'  957   5.012   9.551  10.437
   31DT    H5'1  958   5.031   9.564  10.333
   31DT    H5'2  959   5.055   9.461  10.461
   31DT     C4'  960   5.079   9.673  10.502
   31DT     H4'  961   5.183   9.669  10.501
   31DT     O4'  962   5.037   9.800  10.438
   31DT     C1'  963   5.009   9.892  10.542
   31DT     H1'  964   5.104   9.933  10.565
   31DT      N1  965   4.910  10.001  10.507
   31DT      C6  966   4.776   9.971  10.486
   31DT      H6  967   4.742   9.871  10.496
   31DT      C5  968   4.692  10.068  10.447
   31DT      C7  969   4.549  10.037  10.419
   31DT     H71  970   4.500  10.114  10.477
   31DT     H72  971   4.527  10.052  10.311
   31DT     H73  972   4.519   9.936  10.460
   31DT      C4  973   4.741  10.204  10.419
   31DT      O4  974   4.679  10.304  10.390
   31DT      N3  975   4.881  10.220  10.433
   31DT      H3  976   4.920  10.309  10.416
   31DT      C2  977   4.966  10.127  10.477
   31DT      O2  978   5.079  10.156  10.507
   31DT     C3'  979   5.046   9.683  10.649
   31DT     H3'  980   4.992   9.602  10.687
   31DT     C2'  981   4.973   9.816  10.671
   31DT    H2'1  982   4.860   9.796  10.678
   31DT    H2'2  983   5.011   9.867  10.755
   31DT     O3'  984   5.168   9.687  10.717
   32DG       P  985   5.187   9.658  10.872
   32DG     O1P  986   5.317   9.599  10.893
   32DG     O2P  987   5.064   9.593  10.927
   32DG     O5'  988   5.195   9.810  10.936
   32DG     C5'  989   5.293   9.913  10.901
   32DG    H5'1  990   5.313   9.914  10.796
   32DG    H5'2  991   5.382   9.871  10.953
   32DG     C4'  992   5.254  10.059  10.930
   32DG     H4'  993   5.333  10.128  10.900
   32DG     O4'  994   5.148  10.084  10.843
   32DG     C1'  995   5.092  10.198  10.886
   32DG     H1'  996   5.159  10.285  10.865
   32DG      N9  997   4.962  10.228  10.827
   32DG      C8  998   4.850  10.146  10.834
   32DG      H8  999   4.853  10.048  10.869
   32DG      N7 1000   4.746  10.209  10.786
   32DG      C5 1001   4.796  10.332  10.736
   32DG      C6 1002   4.727  10.441  10.678
   32DG      O6 1003   4.610  10.452  10.647
   32DG      N1 1004   4.813  10.548  10.646
   32DG      H1 1005   4.775  10.627  10.595
   32DG      C2 1006   4.949  10.549  10.669
   32DG      N2 1007   5.022  10.661  10.654
   32DG     H21 1008   4.996  10.756  10.622
   32DG     H22 1009   5.113  10.663  10.698
   32DG      N3 1010   5.015  10.450  10.726
   32DG      C4 1011   4.930  10.348  10.758
   32DG     C3' 1012   5.204  10.087  11.072
   32DG     H3' 1013   5.162  10.000  11.117
   32DG     C2' 1014   5.095  10.186  11.031
   32DG    H2'1 1015   4.994  10.151  11.071
   32DG    H2'2 1016   5.116  10.281  11.070
   32DG     O3' 1017   5.306  10.136  11.158
   33DC3      P 1018   5.273  10.215  11.289
   33DC3    O1P 1019   5.396  10.212  11.371
   33DC3    O2P 1020   5.141  10.159  11.338
   33DC3    O5' 1021   5.244  10.367  11.254
   33DC3    C5' 1022   5.338  10.431  11.167
   33DC3   H5'1 1023   5.370  10.366  11.082
   33DC3   H5'2 1024   5.422  10.457  11.231
   33DC3    C4' 1025   5.291  10.572  11.120
   33DC3    H4' 1026   5.375  10.601  11.065
   33DC3    O4' 1027   5.182  10.555  11.035
   33DC3    C1' 1028   5.096  10.663  11.047
   33DC3    H1' 1029   5.121  10.736  10.973
   33DC3     N1 1030   4.953  10.626  11.044
   33DC3     C6 1031   4.916  10.497  11.078
   33DC3     H6 1032   4.992  10.441  11.133
   33DC3     C5 1033   4.792  10.457  11.049
   33DC3     H5 1034   4.761  10.357  11.080
   33DC3     C4 1035   4.702  10.539  10.982
   33DC3     N4 1036   4.580  10.512  10.963
   33DC3    H41 1037   4.535  10.578  10.901
   33DC3    H42 1038   4.541  10.425  10.990
   33DC3     N3 1039   4.739  10.660  10.941
   33DC3     C2 1040   4.864  10.705  10.971
   33DC3     O2 1041   4.898  10.820  10.939
   33DC3    C3' 1042   5.267  10.674  11.221
   33DC3    H3' 1043   5.270  10.618  11.313
   33DC3    C2' 1044   5.127  10.720  11.188
   33DC3   H2'1 1045   5.055  10.674  11.267
   33DC3   H2'2 1046   5.121  10.830  11.195
   33DC3    O3' 1047   5.356  10.778  11.221
   33DC3    H3T 1048   5.328  10.843  11.290
   34DG5    H5T 1049   4.082  11.573  10.533
   34DG5    O5' 1050   4.059  11.474  10.531
   34DG5    C5' 1051   4.149  11.422  10.435
   34DG5   H5'1 1052   4.129  11.467  10.337
   34DG5   H5'2 1053   4.133  11.313  10.414
   34DG5    C4' 1054   4.293  11.452  10.483
   34DG5    H4' 1055   4.298  11.548  10.527
   34DG5    O4' 1056   4.327  11.350  10.571
   34DG5    C1' 1057   4.419  11.261  10.510
   34DG5    H1' 1058   4.522  11.293  10.540
   34DG5     N9 1059   4.401  11.118  10.536
   34DG5     C8 1060   4.296  11.032  10.498
   34DG5     H8 1061   4.212  11.070  10.438
   34DG5     N7 1062   4.292  10.921  10.569
   34DG5     C5 1063   4.411  10.929  10.640
   34DG5     C6 1064   4.470  10.848  10.744
   34DG5     O6 1065   4.424  10.743  10.797
   34DG5     N1 1066   4.594  10.888  10.792
   34DG5     H1 1067   4.644  10.818  10.840
   34DG5     C2 1068   4.648  11.003  10.761
   34DG5     N2 1069   4.755  11.045  10.824
   34DG5    H21 1070   4.800  10.975  10.879
   34DG5    H22 1071   4.805  11.130  10.793
   34DG5     N3 1072   4.592  11.092  10.675
   34DG5     C4 1073   4.478  11.044  10.618
   34DG5    C3' 1074   4.386  11.446  10.365
   34DG5    H3' 1075   4.334  11.480  10.277
   34DG5    C2' 1076   4.419  11.294  10.364
   34DG5   H2'1 1077   4.327  11.262  10.308
   34DG5   H2'2 1078   4.504  11.266  10.305
   34DG5    O3' 1079   4.499  11.523  10.401
   35DC       P 1080   4.599  11.578  10.294
   35DC     O1P 1081   4.676  11.700  10.343
   35DC     O2P 1082   4.527  11.586  10.167
   35DC     O5' 1083   4.707  11.462  10.279
   35DC     C5' 1084   4.812  11.445  10.368
   35DC    H5'1 1085   4.772  11.461  10.463
   35DC    H5'2 1086   4.902  11.509  10.349
   35DC     C4' 1087   4.869  11.305  10.365
   35DC     H4' 1088   4.962  11.316  10.423
   35DC     O4' 1089   4.789  11.203  10.421
   35DC     C1' 1090   4.809  11.087  10.342
   35DC     H1' 1091   4.905  11.044  10.364
   35DC      N1 1092   4.715  10.976  10.374
   35DC      C6 1093   4.595  10.957  10.305
   35DC      H6 1094   4.566  11.029  10.224
   35DC      C5 1095   4.535  10.833  10.302
   35DC      H5 1096   4.452  10.810  10.239
   35DC      C4 1097   4.574  10.746  10.408
   35DC      N4 1098   4.523  10.628  10.424
   35DC     H41 1099   4.561  10.566  10.493
   35DC     H42 1100   4.457  10.598  10.356
   35DC      N3 1101   4.684  10.763  10.480
   35DC      C2 1102   4.759  10.876  10.461
   35DC      O2 1103   4.869  10.888  10.518
   35DC     C3' 1104   4.910  11.261  10.225
   35DC     H3' 1105   4.896  11.340  10.158
   35DC     C2' 1106   4.816  11.144  10.202
   35DC    H2'1 1107   4.721  11.173  10.161
   35DC    H2'2 1108   4.855  11.071  10.135
   35DC     O3' 1109   5.045  11.214  10.223
   36DA       P 1110   5.170  11.314  10.252
   36DA     O1P 1111   5.158  11.391  10.378
   36DA     O2P 1112   5.200  11.396  10.128
   36DA     O5' 1113   5.300  11.215  10.278
   36DA     C5' 1114   5.355  11.183  10.407
   36DA    H5'1 1115   5.284  11.178  10.485
   36DA    H5'2 1116   5.422  11.258  10.439
   36DA     C4' 1117   5.434  11.052  10.427
   36DA     H4' 1118   5.512  11.068  10.504
   36DA     O4' 1119   5.345  10.941  10.451
   36DA     C1' 1120   5.352  10.851  10.338
   36DA     H1' 1121   5.407  10.764  10.376
   36DA      N9 1122   5.212  10.804  10.308
   36DA      C8 1123   5.108  10.884  10.265
   36DA      H8 1124   5.124  10.988  10.251
   36DA      N7 1125   4.992  10.819  10.244
   36DA      C5 1126   5.027  10.691  10.287
   36DA      C6 1127   4.956  10.569  10.307
   36DA      N6 1128   4.829  10.551  10.285
   36DA     H61 1129   4.794  10.459  10.270
   36DA     H62 1130   4.779  10.631  10.248
   36DA      N1 1131   5.014  10.459  10.352
   36DA      C2 1132   5.144  10.467  10.377
   36DA      H2 1133   5.185  10.372  10.395
   36DA      N3 1134   5.227  10.568  10.363
   36DA      C4 1135   5.160  10.680  10.321
   36DA     C3' 1136   5.512  11.011  10.300
   36DA     H3' 1137   5.524  11.111  10.251
   36DA     C2' 1138   5.424  10.919  10.223
   36DA    H2'1 1139   5.352  10.972  10.164
   36DA    H2'2 1140   5.485  10.844  10.171
   36DA     O3' 1141   5.640  10.957  10.337
   37DT       P 1142   5.757  10.921  10.239
   37DT     O1P 1143   5.888  10.957  10.298
   37DT     O2P 1144   5.731  10.985  10.111
   37DT     O5' 1145   5.751  10.766  10.219
   37DT     C5' 1146   5.770  10.677  10.329
   37DT    H5'1 1147   5.712  10.706  10.417
   37DT    H5'2 1148   5.869  10.692  10.382
   37DT     C4' 1149   5.735  10.534  10.291
   37DT     H4' 1150   5.765  10.460  10.374
   37DT     O4' 1151   5.591  10.530  10.277
   37DT     C1' 1152   5.564  10.451  10.159
   37DT     H1' 1153   5.581  10.346  10.168
   37DT      N1 1154   5.425  10.470  10.112
   37DT      C6 1155   5.385  10.589  10.053
   37DT      H6 1156   5.455  10.668  10.041
   37DT      C5 1157   5.257  10.605  10.006
   37DT      C7 1158   5.215  10.735   9.942
   37DT     H71 1159   5.286  10.809   9.952
   37DT     H72 1160   5.188  10.707   9.839
   37DT     H73 1161   5.127  10.769   9.987
   37DT      C4 1162   5.162  10.495  10.016
   37DT      O4 1163   5.043  10.495   9.987
   37DT      N3 1164   5.206  10.377  10.070
   37DT      H3 1165   5.143  10.298  10.078
   37DT      C2 1166   5.338  10.362  10.119
   37DT      O2 1167   5.366  10.253  10.178
   37DT     C3' 1168   5.791  10.494  10.155
   37DT     H3' 1169   5.874  10.558  10.117
   37DT     C2' 1170   5.674  10.496  10.063
   37DT    H2'1 1171   5.665  10.593  10.018
   37DT    H2'2 1172   5.688  10.423   9.977
   37DT     O3' 1173   5.834  10.361  10.166
   38DA       P 1174   5.965  10.302  10.084
   38DA     O1P 1175   6.077  10.323  10.173
   38DA     O2P 1176   5.964  10.351   9.947
   38DA     O5' 1177   5.934  10.146  10.077
   38DA     C5' 1178   5.944  10.069  10.196
   38DA    H5'1 1179   5.925  10.126  10.285
   38DA    H5'2 1180   6.049  10.030  10.205
   38DA     C4' 1181   5.841   9.949  10.199
   38DA     H4' 1182   5.855   9.901  10.298
   38DA     O4' 1183   5.699   9.969  10.199
   38DA     C1' 1184   5.650   9.939  10.063
   38DA     H1' 1185   5.583   9.851  10.080
   38DA      N9 1186   5.574  10.051  10.001
   38DA      C8 1187   5.625  10.164   9.941
   38DA      H8 1188   5.732  10.191   9.944
   38DA      N7 1189   5.536  10.227   9.871
   38DA      C5 1190   5.421  10.151   9.881
   38DA      C6 1191   5.285  10.163   9.836
   38DA      N6 1192   5.236  10.260   9.761
   38DA     H61 1193   5.134  10.284   9.757
   38DA     H62 1194   5.300  10.335   9.730
   38DA      N1 1195   5.188  10.070   9.870
   38DA      C2 1196   5.228   9.972   9.947
   38DA      H2 1197   5.151   9.903   9.965
   38DA      N3 1198   5.349   9.943   9.992
   38DA      C4 1199   5.440  10.040   9.958
   38DA     C3' 1200   5.864   9.846  10.090
   38DA     H3' 1201   5.974   9.860  10.052
   38DA     C2' 1202   5.774   9.892   9.980
   38DA    H2'1 1203   5.815   9.977   9.925
   38DA    H2'2 1204   5.741   9.807   9.921
   38DA     O3' 1205   5.846   9.716  10.145
   39DT       P 1206   5.873   9.592  10.057
   39DT     O1P 1207   5.909   9.477  10.142
   39DT     O2P 1208   5.964   9.624   9.946
   39DT     O5' 1209   5.723   9.562  10.005
   39DT     C5' 1210   5.608   9.542  10.097
   39DT    H5'1 1211   5.593   9.632  10.157
   39DT    H5'2 1212   5.624   9.451  10.153
   39DT     C4' 1213   5.480   9.524  10.019
   39DT     H4' 1214   5.408   9.510  10.094
   39DT     O4' 1215   5.444   9.647   9.942
   39DT     C1' 1216   5.392   9.611   9.819
   39DT     H1' 1217   5.287   9.586   9.833
   39DT      N1 1218   5.421   9.728   9.738
   39DT      C6 1219   5.550   9.767   9.708
   39DT      H6 1220   5.634   9.715   9.747
   39DT      C5 1221   5.565   9.875   9.629
   39DT      C7 1222   5.704   9.929   9.620
   39DT     H71 1223   5.733   9.944   9.512
   39DT     H72 1224   5.715  10.028   9.655
   39DT     H73 1225   5.782   9.868   9.669
   39DT      C4 1226   5.451   9.960   9.584
   39DT      O4 1227   5.457  10.067   9.523
   39DT      N3 1228   5.332   9.902   9.604
   39DT      H3 1229   5.252   9.937   9.560
   39DT      C2 1230   5.307   9.792   9.684
   39DT      O2 1231   5.188   9.754   9.705
   39DT     C3' 1232   5.477   9.412   9.914
   39DT     H3' 1233   5.553   9.342   9.928
   39DT     C2' 1234   5.471   9.485   9.780
   39DT    H2'1 1235   5.569   9.519   9.753
   39DT    H2'2 1236   5.431   9.413   9.704
   39DT     O3' 1237   5.357   9.344   9.940
   40DG       P 1238   5.332   9.193   9.896
   40DG     O1P 1239   5.220   9.147   9.978
   40DG     O2P 1240   5.457   9.108   9.887
   40DG     O5' 1241   5.279   9.198   9.752
   40DG     C5' 1242   5.153   9.257   9.713
   40DG    H5'1 1243   5.137   9.345   9.778
   40DG    H5'2 1244   5.068   9.195   9.733
   40DG     C4' 1245   5.149   9.303   9.568
   40DG     H4' 1246   5.043   9.317   9.548
   40DG     O4' 1247   5.222   9.428   9.551
   40DG     C1' 1248   5.274   9.419   9.418
   40DG     H1' 1249   5.196   9.432   9.342
   40DG      N9 1250   5.366   9.528   9.385
   40DG      C8 1251   5.497   9.539   9.422
   40DG      H8 1252   5.555   9.469   9.477
   40DG      N7 1253   5.552   9.649   9.391
   40DG      C5 1254   5.459   9.723   9.321
   40DG      C6 1255   5.462   9.850   9.253
   40DG      O6 1256   5.554   9.931   9.237
   40DG      N1 1257   5.338   9.888   9.201
   40DG      H1 1258   5.330   9.971   9.148
   40DG      C2 1259   5.228   9.811   9.202
   40DG      N2 1260   5.132   9.846   9.132
   40DG     H21 1261   5.127   9.935   9.081
   40DG     H22 1262   5.054   9.773   9.123
   40DG      N3 1263   5.221   9.695   9.265
   40DG      C4 1264   5.335   9.651   9.318
   40DG     C3' 1265   5.215   9.209   9.473
   40DG     H3' 1266   5.247   9.121   9.526
   40DG     C2' 1267   5.329   9.280   9.411
   40DG    H2'1 1268   5.408   9.280   9.482
   40DG    H2'2 1269   5.352   9.233   9.312
   40DG     O3' 1270   5.111   9.186   9.377
   41DC       P 1271   5.014   9.056   9.386
   41DC     O1P 1272   4.951   9.060   9.519
   41DC     O2P 1273   5.079   8.934   9.340
   41DC     O5' 1274   4.907   9.100   9.275
   41DC     C5' 1275   4.809   9.197   9.294
   41DC    H5'1 1276   4.840   9.256   9.379
   41DC    H5'2 1277   4.712   9.163   9.316
   41DC     C4' 1278   4.807   9.291   9.177
   41DC     H4' 1279   4.711   9.346   9.183
   41DC     O4' 1280   4.921   9.373   9.178
   41DC     C1' 1281   4.979   9.372   9.048
   41DC     H1' 1282   4.919   9.430   8.985
   41DC      N1 1283   5.123   9.420   9.037
   41DC      C6 1284   5.220   9.335   9.081
   41DC      H6 1285   5.199   9.234   9.126
   41DC      C5 1286   5.349   9.379   9.068
   41DC      H5 1287   5.432   9.308   9.100
   41DC      C4 1288   5.378   9.494   8.999
   41DC      N4 1289   5.495   9.558   9.012
   41DC     H41 1290   5.498   9.659   8.992
   41DC     H42 1291   5.557   9.514   9.075
   41DC      N3 1292   5.287   9.572   8.945
   41DC      C2 1293   5.154   9.542   8.966
   41DC      O2 1294   5.067   9.622   8.932
   41DC     C3' 1295   4.807   9.218   9.044
   41DC     H3' 1296   4.788   9.103   9.046
   41DC     C2' 1297   4.954   9.232   9.000
   41DC    H2'1 1298   5.017   9.161   9.047
   41DC    H2'2 1299   4.975   9.224   8.888
   41DC     O3' 1300   4.733   9.295   8.958
   42DG       P 1301   4.660   9.251   8.828
   42DG     O1P 1302   4.515   9.278   8.849
   42DG     O2P 1303   4.720   9.125   8.779
   42DG     O5' 1304   4.709   9.365   8.725
   42DG     C5' 1305   4.661   9.502   8.727
   42DG    H5'1 1306   4.704   9.563   8.805
   42DG    H5'2 1307   4.553   9.505   8.749
   42DG     C4' 1308   4.689   9.564   8.589
   42DG     H4' 1309   4.617   9.648   8.565
   42DG     O4' 1310   4.823   9.604   8.573
   42DG     C1' 1311   4.888   9.515   8.478
   42DG     H1' 1312   4.917   9.568   8.391
   42DG      N9 1313   5.012   9.464   8.542
   42DG      C8 1314   5.021   9.373   8.645
   42DG      H8 1315   4.943   9.313   8.680
   42DG      N7 1316   5.148   9.349   8.689
   42DG      C5 1317   5.225   9.442   8.617
   42DG      C6 1318   5.356   9.489   8.633
   42DG      O6 1319   5.440   9.445   8.707
   42DG      N1 1320   5.392   9.598   8.561
   42DG      H1 1321   5.489   9.629   8.569
   42DG      C2 1322   5.301   9.661   8.486
   42DG      N2 1323   5.330   9.767   8.421
   42DG     H21 1324   5.418   9.823   8.441
   42DG     H22 1325   5.258   9.823   8.379
   42DG      N3 1326   5.173   9.629   8.466
   42DG      C4 1327   5.138   9.519   8.531
   42DG     C3' 1328   4.654   9.462   8.476
   42DG     H3' 1329   4.592   9.388   8.527
   42DG     C2' 1330   4.783   9.408   8.439
   42DG    H2'1 1331   4.808   9.318   8.495
   42DG    H2'2 1332   4.788   9.380   8.333
   42DG     O3' 1333   4.570   9.522   8.375
   43DT       P 1334   4.528   9.453   8.237
   43DT     O1P 1335   4.407   9.520   8.190
   43DT     O2P 1336   4.521   9.311   8.251
   43DT     O5' 1337   4.647   9.495   8.154
   43DT     C5' 1338   4.687   9.631   8.139
   43DT    H5'1 1339   4.702   9.683   8.237
   43DT    H5'2 1340   4.604   9.680   8.087
   43DT     C4' 1341   4.816   9.658   8.062
   43DT     H4' 1342   4.828   9.765   8.041
   43DT     O4' 1343   4.930   9.620   8.141
   43DT     C1' 1344   5.014   9.538   8.057
   43DT     H1' 1345   5.089   9.597   8.006
   43DT      N1 1346   5.087   9.444   8.146
   43DT      C6 1347   5.028   9.327   8.197
   43DT      H6 1348   4.919   9.303   8.169
   43DT      C5 1349   5.098   9.248   8.282
   43DT      C7 1350   5.030   9.121   8.321
   43DT     H71 1351   4.966   9.128   8.412
   43DT     H72 1352   4.967   9.084   8.240
   43DT     H73 1353   5.101   9.040   8.347
   43DT      C4 1354   5.236   9.281   8.318
   43DT      O4 1355   5.312   9.207   8.375
   43DT      N3 1356   5.276   9.405   8.275
   43DT      H3 1357   5.371   9.427   8.285
   43DT      C2 1358   5.219   9.482   8.183
   43DT      O2 1359   5.288   9.567   8.130
   43DT     C3' 1360   4.825   9.590   7.924
   43DT     H3' 1361   4.727   9.561   7.900
   43DT     C2' 1362   4.919   9.476   7.953
   43DT    H2'1 1363   4.861   9.393   7.986
   43DT    H2'2 1364   4.976   9.449   7.862
   43DT     O3' 1365   4.883   9.674   7.831
   44DA       P 1366   4.922   9.639   7.676
   44DA     O1P 1367   4.879   9.770   7.617
   44DA     O2P 1368   4.863   9.510   7.628
   44DA     O5' 1369   5.081   9.628   7.680
   44DA     C5' 1370   5.172   9.736   7.708
   44DA    H5'1 1371   5.143   9.834   7.674
   44DA    H5'2 1372   5.182   9.746   7.814
   44DA     C4' 1373   5.317   9.719   7.651
   44DA     H4' 1374   5.357   9.818   7.645
   44DA     O4' 1375   5.395   9.643   7.746
   44DA     C1' 1376   5.431   9.516   7.684
   44DA     H1' 1377   5.541   9.513   7.657
   44DA      N9 1378   5.383   9.408   7.767
   44DA      C8 1379   5.255   9.364   7.789
   44DA      H8 1380   5.169   9.379   7.722
   44DA      N7 1381   5.235   9.277   7.888
   44DA      C5 1382   5.369   9.259   7.929
   44DA      C6 1383   5.431   9.169   8.020
   44DA      N6 1384   5.372   9.085   8.098
   44DA     H61 1385   5.420   9.015   8.149
   44DA     H62 1386   5.275   9.062   8.073
   44DA      N1 1387   5.563   9.169   8.034
   44DA      C2 1388   5.637   9.249   7.959
   44DA      H2 1389   5.742   9.249   7.979
   44DA      N3 1390   5.593   9.341   7.875
   44DA      C4 1391   5.457   9.338   7.858
   44DA     C3' 1392   5.341   9.648   7.517
   44DA     H3' 1393   5.248   9.659   7.460
   44DA     C2' 1394   5.361   9.503   7.550
   44DA    H2'1 1395   5.256   9.464   7.550
   44DA    H2'2 1396   5.414   9.443   7.475
   44DA     O3' 1397   5.450   9.717   7.455
   45DC       P 1398   5.501   9.677   7.307
   45DC     O1P 1399   5.586   9.790   7.261
   45DC     O2P 1400   5.380   9.643   7.225
   45DC     O5' 1401   5.589   9.553   7.333
   45DC     C5' 1402   5.717   9.559   7.397
   45DC    H5'1 1403   5.705   9.597   7.503
   45DC    H5'2 1404   5.783   9.632   7.338
   45DC     C4' 1405   5.771   9.418   7.404
   45DC     H4' 1406   5.879   9.431   7.418
   45DC     O4' 1407   5.722   9.354   7.524
   45DC     C1' 1408   5.686   9.224   7.484
   45DC     H1' 1409   5.774   9.170   7.488
   45DC      N1 1410   5.594   9.156   7.568
   45DC      C6 1411   5.463   9.137   7.541
   45DC      H6 1412   5.415   9.180   7.458
   45DC      C5 1413   5.377   9.060   7.620
   45DC      H5 1414   5.274   9.063   7.593
   45DC      C4 1415   5.444   8.998   7.728
   45DC      N4 1416   5.383   8.909   7.800
   45DC     H41 1417   5.437   8.858   7.866
   45DC     H42 1418   5.289   8.883   7.779
   45DC      N3 1419   5.569   9.003   7.756
   45DC      C2 1420   5.644   9.089   7.681
   45DC      O2 1421   5.766   9.094   7.703
   45DC     C3' 1422   5.749   9.333   7.281
   45DC     H3' 1423   5.708   9.392   7.191
   45DC     C2' 1424   5.647   9.229   7.334
   45DC    H2'1 1425   5.547   9.267   7.327
   45DC    H2'2 1426   5.655   9.133   7.281
   45DC     O3' 1427   5.870   9.263   7.260
   46DA       P 1428   5.980   9.317   7.168
   46DA     O1P 1429   6.016   9.452   7.211
   46DA     O2P 1430   5.945   9.289   7.030
   46DA     O5' 1431   6.099   9.228   7.200
   46DA     C5' 1432   6.180   9.232   7.319
   46DA    H5'1 1433   6.270   9.292   7.292
   46DA    H5'2 1434   6.124   9.286   7.400
   46DA     C4' 1435   6.212   9.103   7.379
   46DA     H4' 1436   6.300   9.110   7.441
   46DA     O4' 1437   6.099   9.055   7.456
   46DA     C1' 1438   6.074   8.923   7.412
   46DA     H1' 1439   6.124   8.853   7.484
   46DA      N9 1440   5.930   8.882   7.416
   46DA      C8 1441   5.822   8.913   7.333
   46DA      H8 1442   5.831   8.975   7.248
   46DA      N7 1443   5.707   8.855   7.369
   46DA      C5 1444   5.740   8.793   7.495
   46DA      C6 1445   5.662   8.723   7.594
   46DA      N6 1446   5.532   8.705   7.597
   46DA     H61 1447   5.492   8.667   7.686
   46DA     H62 1448   5.481   8.729   7.512
   46DA      N1 1449   5.727   8.683   7.704
   46DA      C2 1450   5.856   8.709   7.721
   46DA      H2 1451   5.899   8.678   7.818
   46DA      N3 1452   5.936   8.769   7.635
   46DA      C4 1453   5.872   8.814   7.522
   46DA     C3' 1454   6.247   9.000   7.273
   46DA     H3' 1455   6.289   9.027   7.183
   46DA     C2' 1456   6.123   8.913   7.269
   46DA    H2'1 1457   6.063   8.951   7.191
   46DA    H2'2 1458   6.151   8.807   7.248
   46DA     O3' 1459   6.343   8.918   7.340
   47DA       P 1460   6.477   8.863   7.273
   47DA     O1P 1461   6.576   8.977   7.272
   47DA     O2P 1462   6.444   8.796   7.149
   47DA     O5' 1463   6.530   8.747   7.362
   47DA     C5' 1464   6.560   8.768   7.503
   47DA    H5'1 1465   6.486   8.833   7.554
   47DA    H5'2 1466   6.653   8.821   7.512
   47DA     C4' 1467   6.578   8.638   7.582
   47DA     H4' 1468   6.631   8.675   7.669
   47DA     O4' 1469   6.453   8.590   7.619
   47DA     C1' 1470   6.419   8.475   7.543
   47DA     H1' 1471   6.406   8.392   7.613
   47DA      N9 1472   6.282   8.498   7.481
   47DA      C8 1473   6.244   8.567   7.365
   47DA      H8 1474   6.317   8.620   7.297
   47DA      N7 1475   6.117   8.557   7.336
   47DA      C5 1476   6.062   8.497   7.453
   47DA      C6 1477   5.932   8.461   7.489
   47DA      N6 1478   5.823   8.477   7.414
   47DA     H61 1479   5.725   8.444   7.437
   47DA     H62 1480   5.844   8.513   7.322
   47DA      N1 1481   5.908   8.391   7.600
   47DA      C2 1482   6.019   8.352   7.670
   47DA      H2 1483   5.996   8.287   7.759
   47DA      N3 1484   6.148   8.382   7.649
   47DA      C4 1485   6.161   8.454   7.533
   47DA     C3' 1486   6.651   8.527   7.513
   47DA     H3' 1487   6.703   8.575   7.430
   47DA     C2' 1488   6.537   8.446   7.449
   47DA    H2'1 1489   6.519   8.484   7.355
   47DA    H2'2 1490   6.546   8.338   7.449
   47DA     O3' 1491   6.737   8.451   7.597
   48DT       P 1492   6.794   8.298   7.578
   48DT     O1P 1493   6.908   8.272   7.669
   48DT     O2P 1494   6.812   8.274   7.426
   48DT     O5' 1495   6.676   8.198   7.628
   48DT     C5' 1496   6.627   8.207   7.763
   48DT    H5'1 1497   6.580   8.307   7.771
   48DT    H5'2 1498   6.712   8.191   7.833
   48DT     C4' 1499   6.501   8.110   7.794
   48DT     H4' 1500   6.474   8.119   7.902
   48DT     O4' 1501   6.390   8.145   7.723
   48DT     C1' 1502   6.343   8.034   7.652
   48DT     H1' 1503   6.282   7.979   7.722
   48DT      N1 1504   6.264   8.076   7.535
   48DT      C6 1505   6.331   8.138   7.434
   48DT      H6 1506   6.438   8.160   7.449
   48DT      C5 1507   6.272   8.178   7.313
   48DT      C7 1508   6.354   8.245   7.202
   48DT     H71 1509   6.302   8.338   7.172
   48DT     H72 1510   6.461   8.266   7.236
   48DT     H73 1511   6.353   8.168   7.124
   48DT      C4 1512   6.128   8.154   7.297
   48DT      O4 1513   6.065   8.185   7.201
   48DT      N3 1514   6.070   8.097   7.406
   48DT      H3 1515   5.971   8.081   7.398
   48DT      C2 1516   6.126   8.059   7.526
   48DT      O2 1517   6.065   7.997   7.618
   48DT     C3' 1518   6.540   7.963   7.758
   48DT     H3' 1519   6.648   7.948   7.751
   48DT     C2' 1520   6.467   7.948   7.629
   48DT    H2'1 1521   6.519   7.986   7.547
   48DT    H2'2 1522   6.436   7.849   7.610
   48DT     O3' 1523   6.483   7.881   7.859
   49DG       P 1524   6.547   7.741   7.892
   49DG     O1P 1525   6.527   7.703   8.035
   49DG     O2P 1526   6.683   7.740   7.839
   49DG     O5' 1527   6.466   7.650   7.789
   49DG     C5' 1528   6.333   7.618   7.818
   49DG    H5'1 1529   6.279   7.705   7.834
   49DG    H5'2 1530   6.316   7.545   7.902
   49DG     C4' 1531   6.263   7.559   7.696
   49DG     H4' 1532   6.165   7.520   7.722
   49DG     O4' 1533   6.246   7.672   7.606
   49DG     C1' 1534   6.254   7.618   7.476
   49DG     H1' 1535   6.167   7.558   7.457
   49DG      N9 1536   6.270   7.717   7.368
   49DG      C8 1537   6.382   7.767   7.306
   49DG      H8 1538   6.480   7.722   7.328
   49DG      N7 1539   6.356   7.842   7.202
   49DG      C5 1540   6.213   7.850   7.200
   49DG      C6 1541   6.129   7.915   7.102
   49DG      O6 1542   6.161   7.983   7.007
   49DG      N1 1543   5.993   7.879   7.119
   49DG      H1 1544   5.924   7.931   7.066
   49DG      C2 1545   5.950   7.782   7.211
   49DG      N2 1546   5.834   7.732   7.180
   49DG     H21 1547   5.786   7.759   7.097
   49DG     H22 1548   5.803   7.668   7.249
   49DG      N3 1549   6.027   7.724   7.304
   49DG      C4 1550   6.161   7.759   7.293
   49DG     C3' 1551   6.335   7.452   7.612
   49DG     H3' 1552   6.419   7.415   7.667
   49DG     C2' 1553   6.383   7.534   7.499
   49DG    H2'1 1554   6.463   7.602   7.525
   49DG    H2'2 1555   6.405   7.469   7.411
   49DG     O3' 1556   6.246   7.349   7.566
   50DT       P 1557   6.255   7.198   7.615
   50DT     O1P 1558   6.244   7.203   7.762
   50DT     O2P 1559   6.369   7.123   7.558
   50DT     O5' 1560   6.115   7.151   7.554
   50DT     C5' 1561   5.982   7.179   7.615
   50DT    H5'1 1562   5.978   7.279   7.655
   50DT    H5'2 1563   5.962   7.113   7.693
   50DT     C4' 1564   5.880   7.176   7.509
   50DT     H4' 1565   5.789   7.186   7.565
   50DT     O4' 1566   5.890   7.292   7.426
   50DT     C1' 1567   5.885   7.244   7.292
   50DT     H1' 1568   5.783   7.246   7.243
   50DT      N1 1569   5.969   7.332   7.203
   50DT      C6 1570   6.107   7.336   7.218
   50DT      H6 1571   6.151   7.287   7.304
   50DT      C5 1572   6.187   7.402   7.135
   50DT      C7 1573   6.334   7.405   7.168
   50DT     H71 1574   6.361   7.335   7.251
   50DT     H72 1575   6.404   7.386   7.085
   50DT     H73 1576   6.358   7.504   7.197
   50DT      C4 1577   6.136   7.474   7.021
   50DT      O4 1578   6.204   7.539   6.945
   50DT      N3 1579   5.994   7.466   7.004
   50DT      H3 1580   5.958   7.528   6.930
   50DT      C2 1581   5.913   7.403   7.095
   50DT      O2 1582   5.788   7.401   7.077
   50DT     C3' 1583   5.865   7.047   7.426
   50DT     H3' 1584   5.927   6.969   7.468
   50DT     C2' 1585   5.923   7.092   7.296
   50DT    H2'1 1586   6.034   7.082   7.308
   50DT    H2'2 1587   5.872   7.043   7.211
   50DT     O3' 1588   5.729   7.004   7.417
   51DA       P 1589   5.685   6.869   7.348
   51DA     O1P 1590   5.577   6.815   7.428
   51DA     O2P 1591   5.794   6.778   7.306
   51DA     O5' 1592   5.627   6.930   7.208
   51DA     C5' 1593   5.523   7.027   7.220
   51DA    H5'1 1594   5.540   7.113   7.281
   51DA    H5'2 1595   5.430   6.979   7.255
   51DA     C4' 1596   5.495   7.092   7.087
   51DA     H4' 1597   5.408   7.150   7.106
   51DA     O4' 1598   5.602   7.164   7.040
   51DA     C1' 1599   5.645   7.111   6.913
   51DA     H1' 1600   5.605   7.175   6.831
   51DA      N9 1601   5.787   7.121   6.895
   51DA      C8 1602   5.888   7.034   6.940
   51DA      H8 1603   5.862   6.952   7.009
   51DA      N7 1604   6.004   7.057   6.895
   51DA      C5 1605   5.988   7.178   6.821
   51DA      C6 1606   6.068   7.274   6.762
   51DA      N6 1607   6.201   7.272   6.761
   51DA     H61 1608   6.248   7.350   6.717
   51DA     H62 1609   6.258   7.192   6.791
   51DA      N1 1610   6.010   7.375   6.692
   51DA      C2 1611   5.877   7.390   6.689
   51DA      H2 1612   5.834   7.466   6.632
   51DA      N3 1613   5.795   7.319   6.764
   51DA      C4 1614   5.857   7.214   6.827
   51DA     C3' 1615   5.461   6.984   6.980
   51DA     H3' 1616   5.428   6.890   7.025
   51DA     C2' 1617   5.590   6.966   6.908
   51DA    H2'1 1618   5.645   6.897   6.972
   51DA    H2'2 1619   5.575   6.922   6.813
   51DA     O3' 1620   5.364   7.042   6.897
   52DT       P 1621   5.277   6.956   6.795
   52DT     O1P 1622   5.142   7.010   6.818
   52DT     O2P 1623   5.304   6.816   6.805
   52DT     O5' 1624   5.336   7.013   6.655
   52DT     C5' 1625   5.313   7.149   6.620
   52DT    H5'1 1626   5.358   7.215   6.691
   52DT    H5'2 1627   5.207   7.167   6.606
   52DT     C4' 1628   5.370   7.183   6.486
   52DT     H4' 1629   5.342   7.287   6.464
   52DT     O4' 1630   5.512   7.192   6.493
   52DT     C1' 1631   5.577   7.121   6.399
   52DT     H1' 1632   5.606   7.193   6.324
   52DT      N1 1633   5.708   7.068   6.452
   52DT      C6 1634   5.704   6.955   6.527
   52DT      H6 1635   5.617   6.894   6.550
   52DT      C5 1636   5.822   6.905   6.573
   52DT      C7 1637   5.831   6.788   6.666
   52DT     H71 1638   5.737   6.737   6.678
   52DT     H72 1639   5.908   6.728   6.622
   52DT     H73 1640   5.864   6.821   6.761
   52DT      C4 1641   5.947   6.975   6.555
   52DT      O4 1642   6.056   6.949   6.607
   52DT      N3 1643   5.943   7.094   6.488
   52DT      H3 1644   6.027   7.144   6.461
   52DT      C2 1645   5.825   7.141   6.429
   52DT      O2 1646   5.838   7.238   6.352
   52DT     C3' 1647   5.346   7.091   6.364
   52DT     H3' 1648   5.272   7.020   6.384
   52DT     C2' 1649   5.477   7.018   6.353
   52DT    H2'1 1650   5.466   6.941   6.425
   52DT    H2'2 1651   5.496   6.996   6.249
   52DT     O3' 1652   5.311   7.175   6.246
   53DA       P 1653   5.284   7.110   6.095
   53DA     O1P 1654   5.174   7.187   6.036
   53DA     O2P 1655   5.276   6.965   6.099
   53DA     O5' 1656   5.428   7.127   6.017
   53DA     C5' 1657   5.469   7.257   5.979
   53DA    H5'1 1658   5.481   7.325   6.057
   53DA    H5'2 1659   5.384   7.303   5.926
   53DA     C4' 1660   5.590   7.271   5.888
   53DA     H4' 1661   5.600   7.378   5.845
   53DA     O4' 1662   5.707   7.246   5.966
   53DA     C1' 1663   5.784   7.146   5.907
   53DA     H1' 1664   5.861   7.189   5.846
   53DA      N9 1665   5.837   7.071   6.014
   53DA      C8 1666   5.779   7.000   6.106
   53DA      H8 1667   5.666   6.992   6.106
   53DA      N7 1668   5.855   6.937   6.190
   53DA      C5 1669   5.983   6.972   6.142
   53DA      C6 1670   6.114   6.943   6.179
   53DA      N6 1671   6.150   6.856   6.277
   53DA     H61 1672   6.240   6.832   6.299
   53DA     H62 1673   6.072   6.809   6.312
   53DA      N1 1674   6.218   6.986   6.110
   53DA      C2 1675   6.192   7.068   6.010
   53DA      H2 1676   6.281   7.094   5.963
   53DA      N3 1677   6.072   7.115   5.963
   53DA      C4 1678   5.970   7.058   6.033
   53DA     C3' 1679   5.590   7.179   5.765
   53DA     H3' 1680   5.490   7.133   5.746
   53DA     C2' 1681   5.687   7.064   5.817
   53DA    H2'1 1682   5.629   6.986   5.860
   53DA    H2'2 1683   5.747   7.021   5.732
   53DA     O3' 1684   5.635   7.246   5.647
   54DA       P 1685   5.667   7.164   5.511
   54DA     O1P 1686   5.642   7.247   5.392
   54DA     O2P 1687   5.597   7.040   5.520
   54DA     O5' 1688   5.824   7.132   5.515
   54DA     C5' 1689   5.924   7.239   5.536
   54DA    H5'1 1690   5.901   7.281   5.635
   54DA    H5'2 1691   5.919   7.317   5.466
   54DA     C4' 1692   6.068   7.176   5.534
   54DA     H4' 1693   6.148   7.252   5.536
   54DA     O4' 1694   6.077   7.095   5.647
   54DA     C1' 1695   6.133   6.971   5.607
   54DA     H1' 1696   6.237   6.978   5.597
   54DA      N9 1697   6.103   6.863   5.710
   54DA      C8 1698   5.984   6.797   5.734
   54DA      H8 1699   5.888   6.824   5.689
   54DA      N7 1700   5.996   6.701   5.828
   54DA      C5 1701   6.129   6.724   5.865
   54DA      C6 1702   6.208   6.675   5.970
   54DA      N6 1703   6.160   6.598   6.070
   54DA     H61 1704   6.223   6.570   6.149
   54DA     H62 1705   6.064   6.560   6.074
   54DA      N1 1706   6.341   6.700   5.980
   54DA      C2 1707   6.394   6.782   5.888
   54DA      H2 1708   6.495   6.810   5.900
   54DA      N3 1709   6.333   6.846   5.789
   54DA      C4 1710   6.202   6.807   5.786
   54DA     C3' 1711   6.072   7.092   5.406
   54DA     H3' 1712   5.980   7.106   5.349
   54DA     C2' 1713   6.069   6.950   5.470
   54DA    H2'1 1714   5.970   6.919   5.476
   54DA    H2'2 1715   6.121   6.875   5.409
   54DA     O3' 1716   6.197   7.123   5.342
   55DT       P 1717   6.218   7.063   5.195
   55DT     O1P 1718   6.232   7.182   5.106
   55DT     O2P 1719   6.105   6.973   5.162
   55DT     O5' 1720   6.357   6.984   5.195
   55DT     C5' 1721   6.477   7.049   5.232
   55DT    H5'1 1722   6.453   7.140   5.291
   55DT    H5'2 1723   6.530   7.081   5.147
   55DT     C4' 1724   6.567   6.951   5.306
   55DT     H4' 1725   6.652   6.997   5.359
   55DT     O4' 1726   6.496   6.873   5.402
   55DT     C1' 1727   6.551   6.749   5.408
   55DT     H1' 1728   6.643   6.741   5.467
   55DT      N1 1729   6.447   6.667   5.476
   55DT      C6 1730   6.322   6.652   5.424
   55DT      H6 1731   6.299   6.712   5.335
   55DT      C5 1732   6.232   6.568   5.486
   55DT      C7 1733   6.090   6.564   5.428
   55DT     H71 1734   6.066   6.461   5.416
   55DT     H72 1735   6.011   6.609   5.496
   55DT     H73 1736   6.090   6.608   5.334
   55DT      C4 1737   6.266   6.492   5.605
   55DT      O4 1738   6.187   6.441   5.684
   55DT      N3 1739   6.397   6.508   5.652
   55DT      H3 1740   6.426   6.463   5.745
   55DT      C2 1741   6.486   6.604   5.595
   55DT      O2 1742   6.598   6.614   5.647
   55DT     C3' 1743   6.631   6.848   5.213
   55DT     H3' 1744   6.595   6.861   5.112
   55DT     C2' 1745   6.586   6.710   5.266
   55DT    H2'1 1746   6.500   6.667   5.212
   55DT    H2'2 1747   6.664   6.638   5.292
   55DT     O3' 1748   6.770   6.843   5.211
   56DA       P 1749   6.861   6.960   5.164
   56DA     O1P 1750   6.880   7.046   5.282
   56DA     O2P 1751   6.808   7.022   5.039
   56DA     O5' 1752   6.996   6.879   5.121
   56DA     C5' 1753   6.989   6.790   5.016
   56DA    H5'1 1754   7.033   6.846   4.927
   56DA    H5'2 1755   6.888   6.760   4.999
   56DA     C4' 1756   7.072   6.670   5.050
   56DA     H4' 1757   7.164   6.717   5.088
   56DA     O4' 1758   7.004   6.583   5.132
   56DA     C1' 1759   6.964   6.461   5.067
   56DA     H1' 1760   7.025   6.373   5.098
   56DA      N9 1761   6.821   6.439   5.105
   56DA      C8 1762   6.708   6.455   5.029
   56DA      H8 1763   6.708   6.477   4.921
   56DA      N7 1764   6.597   6.425   5.086
   56DA      C5 1765   6.643   6.385   5.210
   56DA      C6 1766   6.576   6.334   5.318
   56DA      N6 1767   6.447   6.322   5.332
   56DA     H61 1768   6.408   6.276   5.419
   56DA     H62 1769   6.397   6.352   5.249
   56DA      N1 1770   6.636   6.293   5.425
   56DA      C2 1771   6.768   6.296   5.425
   56DA      H2 1772   6.811   6.270   5.520
   56DA      N3 1773   6.850   6.339   5.333
   56DA      C4 1774   6.780   6.384   5.225
   56DA     C3' 1775   7.112   6.580   4.926
   56DA     H3' 1776   7.119   6.640   4.837
   56DA     C2' 1777   6.991   6.486   4.922
   56DA    H2'1 1778   6.911   6.542   4.876
   56DA    H2'2 1779   7.013   6.398   4.869
   56DA     O3' 1780   7.240   6.515   4.953
   57DC       P 1781   7.303   6.391   4.861
   57DC     O1P 1782   7.449   6.402   4.878
   57DC     O2P 1783   7.249   6.404   4.720
   57DC     O5' 1784   7.245   6.260   4.924
   57DC     C5' 1785   7.273   6.237   5.063
   57DC    H5'1 1786   7.233   6.325   5.112
   57DC    H5'2 1787   7.384   6.239   5.076
   57DC     C4' 1788   7.209   6.110   5.125
   57DC     H4' 1789   7.248   6.099   5.224
   57DC     O4' 1790   7.074   6.139   5.122
   57DC     C1' 1791   7.010   6.034   5.075
   57DC     H1' 1792   7.018   5.955   5.148
   57DC      N1 1793   6.869   6.065   5.051
   57DC      C6 1794   6.837   6.148   4.947
   57DC      H6 1795   6.919   6.188   4.890
   57DC      C5 1796   6.704   6.158   4.918
   57DC      H5 1797   6.683   6.215   4.828
   57DC      C4 1798   6.604   6.109   5.009
   57DC      N4 1799   6.473   6.131   4.992
   57DC     H41 1800   6.413   6.087   5.057
   57DC     H42 1801   6.444   6.188   4.914
   57DC      N3 1802   6.635   6.045   5.118
   57DC      C2 1803   6.768   6.028   5.146
   57DC      O2 1804   6.789   5.963   5.247
   57DC     C3' 1805   7.232   5.993   5.030
   57DC     H3' 1806   7.313   6.017   4.963
   57DC     C2' 1807   7.095   5.999   4.957
   57DC    H2'1 1808   7.089   6.074   4.877
   57DC    H2'2 1809   7.070   5.905   4.916
   57DC     O3' 1810   7.254   5.869   5.099
   58DG       P 1811   7.398   5.831   5.164
   58DG     O1P 1812   7.432   5.924   5.277
   58DG     O2P 1813   7.487   5.835   5.046
   58DG     O5' 1814   7.393   5.684   5.219
   58DG     C5' 1815   7.370   5.656   5.359
   58DG    H5'1 1816   7.308   5.741   5.398
   58DG    H5'2 1817   7.465   5.660   5.409
   58DG     C4' 1818   7.287   5.528   5.385
   58DG     H4' 1819   7.302   5.500   5.485
   58DG     O4' 1820   7.146   5.562   5.351
   58DG     C1' 1821   7.102   5.486   5.238
   58DG     H1' 1822   7.051   5.399   5.270
   58DG      N9 1823   7.018   5.555   5.137
   58DG      C8 1824   7.054   5.627   5.027
   58DG      H8 1825   7.160   5.649   5.003
   58DG      N7 1826   6.957   5.679   4.957
   58DG      C5 1827   6.843   5.639   5.027
   58DG      C6 1828   6.706   5.677   5.010
   58DG      O6 1829   6.656   5.754   4.931
   58DG      N1 1830   6.623   5.609   5.099
   58DG      H1 1831   6.519   5.613   5.085
   58DG      C2 1832   6.668   5.530   5.193
   58DG      N2 1833   6.579   5.476   5.264
   58DG     H21 1834   6.479   5.495   5.251
   58DG     H22 1835   6.595   5.435   5.351
   58DG      N3 1836   6.793   5.510   5.226
   58DG      C4 1837   6.878   5.563   5.140
   58DG     C3' 1838   7.322   5.406   5.297
   58DG     H3' 1839   7.431   5.404   5.292
   58DG     C2' 1840   7.236   5.426   5.175
   58DG    H2'1 1841   7.282   5.507   5.123
   58DG    H2'2 1842   7.217   5.339   5.118
   58DG     O3' 1843   7.290   5.295   5.376
   59DC       P 1844   7.319   5.149   5.327
   59DC     O1P 1845   7.322   5.062   5.444
   59DC     O2P 1846   7.440   5.143   5.242
   59DC     O5' 1847   7.192   5.111   5.238
   59DC     C5' 1848   7.066   5.102   5.305
   59DC    H5'1 1849   7.050   5.189   5.363
   59DC    H5'2 1850   7.073   5.013   5.373
   59DC     C4' 1851   6.954   5.097   5.203
   59DC     H4' 1852   6.858   5.093   5.263
   59DC     O4' 1853   6.938   5.215   5.126
   59DC     C1' 1854   6.897   5.166   4.998
   59DC     H1' 1855   6.791   5.136   5.016
   59DC      N1 1856   6.888   5.274   4.893
   59DC      C6 1857   7.002   5.314   4.814
   59DC      H6 1858   7.104   5.272   4.826
   59DC      C5 1859   6.984   5.425   4.732
   59DC      H5 1860   7.071   5.466   4.679
   59DC      C4 1861   6.858   5.479   4.717
   59DC      N4 1862   6.841   5.587   4.643
   59DC     H41 1863   6.750   5.630   4.611
   59DC     H42 1864   6.922   5.612   4.582
   59DC      N3 1865   6.753   5.449   4.787
   59DC      C2 1866   6.768   5.341   4.869
   59DC      O2 1867   6.669   5.311   4.933
   59DC     C3' 1868   6.970   4.981   5.096
   59DC     H3' 1869   7.060   4.930   5.115
   59DC     C2' 1870   6.979   5.041   4.963
   59DC    H2'1 1871   7.079   5.072   4.943
   59DC    H2'2 1872   6.939   4.979   4.884
   59DC     O3' 1873   6.854   4.897   5.100
   60DA       P 1874   6.808   4.805   5.224
   60DA     O1P 1875   6.747   4.888   5.324
   60DA     O2P 1876   6.924   4.717   5.261
   60DA     O5' 1877   6.694   4.702   5.170
   60DA     C5' 1878   6.557   4.753   5.155
   60DA    H5'1 1879   6.536   4.854   5.200
   60DA    H5'2 1880   6.496   4.676   5.199
   60DA     C4' 1881   6.510   4.760   5.007
   60DA     H4' 1882   6.400   4.757   5.002
   60DA     O4' 1883   6.557   4.874   4.947
   60DA     C1' 1884   6.563   4.852   4.808
   60DA     H1' 1885   6.457   4.856   4.775
   60DA      N9 1886   6.631   4.963   4.739
   60DA      C8 1887   6.756   4.978   4.688
   60DA      H8 1888   6.830   4.905   4.710
   60DA      N7 1889   6.777   5.091   4.627
   60DA      C5 1890   6.646   5.147   4.616
   60DA      C6 1891   6.590   5.257   4.547
   60DA      N6 1892   6.658   5.343   4.479
   60DA     H61 1893   6.615   5.432   4.444
   60DA     H62 1894   6.753   5.323   4.458
   60DA      N1 1895   6.455   5.272   4.554
   60DA      C2 1896   6.388   5.200   4.638
   60DA      H2 1897   6.285   5.219   4.654
   60DA      N3 1898   6.429   5.094   4.701
   60DA      C4 1899   6.563   5.076   4.692
   60DA     C3' 1900   6.559   4.644   4.920
   60DA     H3' 1901   6.636   4.588   4.974
   60DA     C2' 1902   6.616   4.712   4.797
   60DA    H2'1 1903   6.720   4.715   4.810
   60DA    H2'2 1904   6.584   4.658   4.705
   60DA     O3' 1905   6.449   4.554   4.902
   61DC       P 1906   6.434   4.445   4.784
   61DC     O1P 1907   6.334   4.341   4.826
   61DC     O2P 1908   6.574   4.400   4.748
   61DC     O5' 1909   6.381   4.540   4.668
   61DC     C5' 1910   6.258   4.617   4.684
   61DC    H5'1 1911   6.267   4.678   4.771
   61DC    H5'2 1912   6.176   4.549   4.703
   61DC     C4' 1913   6.215   4.713   4.569
   61DC     H4' 1914   6.121   4.765   4.597
   61DC     O4' 1915   6.316   4.807   4.558
   61DC     C1' 1916   6.340   4.822   4.422
   61DC     H1' 1917   6.256   4.868   4.378
   61DC      N1 1918   6.457   4.904   4.386
   61DC      C6 1919   6.580   4.859   4.421
   61DC      H6 1920   6.583   4.770   4.480
   61DC      C5 1921   6.691   4.926   4.381
   61DC      H5 1922   6.790   4.894   4.413
   61DC      C4 1923   6.671   5.036   4.289
   61DC      N4 1924   6.775   5.099   4.248
   61DC     H41 1925   6.756   5.196   4.216
   61DC     H42 1926   6.872   5.069   4.268
   61DC      N3 1927   6.550   5.085   4.265
   61DC      C2 1928   6.444   5.027   4.319
   61DC      O2 1929   6.333   5.080   4.308
   61DC     C3' 1930   6.202   4.640   4.439
   61DC     H3' 1931   6.212   4.533   4.447
   61DC     C2' 1932   6.326   4.685   4.364
   61DC    H2'1 1933   6.412   4.617   4.388
   61DC    H2'2 1934   6.308   4.679   4.248
   61DC     O3' 1935   6.069   4.668   4.382
   62DA       P 1936   6.029   4.635   4.229
   62DA     O1P 1937   5.885   4.622   4.229
   62DA     O2P 1938   6.109   4.525   4.171
   62DA     O5' 1939   6.066   4.770   4.147
   62DA     C5' 1940   6.006   4.894   4.181
   62DA    H5'1 1941   6.088   4.951   4.233
   62DA    H5'2 1942   5.916   4.892   4.240
   62DA     C4' 1943   5.958   4.969   4.052
   62DA     H4' 1944   5.875   5.040   4.065
   62DA     O4' 1945   6.078   5.035   4.012
   62DA     C1' 1946   6.128   4.986   3.897
   62DA     H1' 1947   6.109   5.055   3.809
   62DA      N9 1948   6.271   4.980   3.927
   62DA      C8 1949   6.336   4.892   4.010
   62DA      H8 1950   6.269   4.821   4.059
   62DA      N7 1951   6.465   4.902   4.015
   62DA      C5 1952   6.486   5.015   3.936
   62DA      C6 1953   6.592   5.098   3.898
   62DA      N6 1954   6.712   5.089   3.939
   62DA     H61 1955   6.787   5.147   3.909
   62DA     H62 1956   6.738   5.016   4.005
   62DA      N1 1957   6.584   5.197   3.810
   62DA      C2 1958   6.469   5.217   3.758
   62DA      H2 1959   6.471   5.294   3.676
   62DA      N3 1960   6.355   5.156   3.786
   62DA      C4 1961   6.372   5.055   3.873
   62DA     C3' 1962   5.923   4.867   3.939
   62DA     H3' 1963   5.892   4.768   3.971
   62DA     C2' 1964   6.063   4.848   3.871
   62DA    H2'1 1965   6.119   4.759   3.908
   62DA    H2'2 1966   6.048   4.838   3.763
   62DA     O3' 1967   5.816   4.926   3.864
   63DT       P 1968   5.740   4.856   3.744
   63DT     O1P 1969   5.619   4.942   3.723
   63DT     O2P 1970   5.734   4.713   3.783
   63DT     O5' 1971   5.831   4.874   3.617
   63DT     C5' 1972   5.834   5.001   3.556
   63DT    H5'1 1973   5.859   5.071   3.633
   63DT    H5'2 1974   5.746   5.021   3.503
   63DT     C4' 1975   5.952   5.005   3.460
   63DT     H4' 1976   5.938   5.097   3.402
   63DT     O4' 1977   6.077   5.015   3.524
   63DT     C1' 1978   6.172   4.956   3.434
   63DT     H1' 1979   6.194   5.035   3.356
   63DT      N1 1980   6.298   4.920   3.505
   63DT      C6 1981   6.310   4.821   3.599
   63DT      H6 1982   6.220   4.766   3.630
   63DT      C5 1983   6.432   4.785   3.650
   63DT      C7 1984   6.439   4.667   3.751
   63DT     H71 1985   6.483   4.711   3.839
   63DT     H72 1986   6.341   4.630   3.781
   63DT     H73 1987   6.496   4.580   3.716
   63DT      C4 1988   6.551   4.869   3.628
   63DT      O4 1989   6.663   4.857   3.669
   63DT      N3 1990   6.526   4.975   3.538
   63DT      H3 1991   6.605   5.034   3.530
   63DT      C2 1992   6.408   5.000   3.473
   63DT      O2 1993   6.401   5.091   3.395
   63DT     C3' 1994   5.949   4.880   3.374
   63DT     H3' 1995   5.897   4.799   3.419
   63DT     C2' 1996   6.096   4.839   3.367
   63DT    H2'1 1997   6.114   4.743   3.422
   63DT    H2'2 1998   6.134   4.842   3.257
   63DT     O3' 1999   5.883   4.913   3.248
   64DG       P 2000   5.849   4.802   3.140
   64DG     O1P 2001   5.749   4.864   3.043
   64DG     O2P 2002   5.799   4.676   3.216
   64DG     O5' 2003   5.992   4.774   3.070
   64DG     C5' 2004   6.050   4.857   2.971
   64DG    H5'1 2005   6.054   4.962   3.003
   64DG    H5'2 2006   5.983   4.868   2.885
   64DG     C4' 2007   6.191   4.811   2.925
   64DG     H4' 2008   6.215   4.874   2.840
   64DG     O4' 2009   6.285   4.815   3.034
   64DG     C1' 2010   6.354   4.694   3.037
   64DG     H1' 2011   6.429   4.693   2.960
   64DG      N9 2012   6.424   4.669   3.163
   64DG      C8 2013   6.394   4.573   3.259
   64DG      H8 2014   6.310   4.505   3.251
   64DG      N7 2015   6.482   4.567   3.356
   64DG      C5 2016   6.576   4.664   3.319
   64DG      C6 2017   6.698   4.704   3.388
   64DG      O6 2018   6.751   4.652   3.485
   64DG      N1 2019   6.768   4.803   3.322
   64DG      H1 2020   6.857   4.827   3.368
   64DG      C2 2021   6.719   4.864   3.207
   64DG      N2 2022   6.798   4.947   3.143
   64DG     H21 2023   6.886   4.972   3.180
   64DG     H22 2024   6.765   4.985   3.056
   64DG      N3 2025   6.608   4.831   3.145
   64DG      C4 2026   6.539   4.731   3.206
   64DG     C3' 2027   6.173   4.668   2.876
   64DG     H3' 2028   6.069   4.635   2.872
   64DG     C2' 2029   6.247   4.595   2.994
   64DG    H2'1 2030   6.172   4.573   3.071
   64DG    H2'2 2031   6.291   4.499   2.947
   64DG     O3' 2032   6.253   4.665   2.760
   65DC       P 2033   6.189   4.686   2.613
   65DC     O1P 2034   6.104   4.803   2.623
   65DC     O2P 2035   6.131   4.557   2.565
   65DC     O5' 2036   6.315   4.718   2.517
   65DC     C5' 2037   6.377   4.846   2.518
   65DC    H5'1 2038   6.344   4.908   2.600
   65DC    H5'2 2039   6.356   4.887   2.415
   65DC     C4' 2040   6.526   4.824   2.527
   65DC     H4' 2041   6.572   4.919   2.493
   65DC     O4' 2042   6.561   4.809   2.668
   65DC     C1' 2043   6.668   4.710   2.673
   65DC     H1' 2044   6.761   4.765   2.646
   65DC      N1 2045   6.669   4.632   2.807
   65DC      C6 2046   6.577   4.534   2.839
   65DC      H6 2047   6.493   4.526   2.766
   65DC      C5 2048   6.583   4.470   2.958
   65DC      H5 2049   6.512   4.401   2.996
   65DC      C4 2050   6.697   4.502   3.037
   65DC      N4 2051   6.706   4.445   3.156
   65DC     H41 2052   6.781   4.444   3.227
   65DC     H42 2053   6.642   4.370   3.167
   65DC      N3 2054   6.785   4.598   3.010
   65DC      C2 2055   6.774   4.660   2.894
   65DC      O2 2056   6.849   4.750   2.864
   65DC     C3' 2057   6.598   4.713   2.450
   65DC     H3' 2058   6.529   4.668   2.379
   65DC     C2' 2059   6.639   4.613   2.556
   65DC    H2'1 2060   6.562   4.532   2.566
   65DC    H2'2 2061   6.731   4.558   2.538
   65DC     O3' 2062   6.698   4.773   2.373
   66DG3      P 2063   6.800   4.689   2.278
   66DG3    O1P 2064   6.852   4.783   2.173
   66DG3    O2P 2065   6.726   4.569   2.233
   66DG3    O5' 2066   6.907   4.642   2.376
   66DG3    C5' 2067   6.991   4.734   2.457
   66DG3   H5'1 2068   6.924   4.799   2.519
   66DG3   H5'2 2069   7.047   4.794   2.386
   66DG3    C4' 2070   7.073   4.658   2.565
   66DG3    H4' 2071   7.124   4.732   2.627
   66DG3    O4' 2072   6.992   4.594   2.661
   66DG3    C1' 2073   7.060   4.475   2.703
   66DG3    H1' 2074   7.141   4.501   2.771
   66DG3     N9 2075   6.982   4.373   2.775
   66DG3     C8 2076   6.858   4.327   2.752
   66DG3     H8 2077   6.815   4.343   2.655
   66DG3     N7 2078   6.806   4.255   2.844
   66DG3     C5 2079   6.909   4.255   2.940
   66DG3     C6 2080   6.920   4.194   3.072
   66DG3     O6 2081   6.840   4.130   3.135
   66DG3     N1 2082   7.042   4.205   3.130
   66DG3     H1 2083   7.060   4.167   3.222
   66DG3     C2 2084   7.143   4.273   3.069
   66DG3     N2 2085   7.254   4.267   3.136
   66DG3    H21 2086   7.265   4.221   3.226
   66DG3    H22 2087   7.327   4.324   3.095
   66DG3     N3 2088   7.141   4.345   2.955
   66DG3     C4 2089   7.019   4.324   2.894
   66DG3    C3' 2090   7.164   4.551   2.513
   66DG3    H3' 2091   7.148   4.542   2.405
   66DG3    C2' 2092   7.115   4.420   2.576
   66DG3   H2'1 2093   7.029   4.372   2.526
   66DG3   H2'2 2094   7.191   4.347   2.600
   66DG3    O3' 2095   7.304   4.564   2.539
   66DG3    H3T 2096   7.321   4.661   2.560
   67SOL     OW 2097  13.173  12.991   1.204
   67SOL    HW1 2098  13.261  13.029   1.199
   67SOL    HW2 2099  13.157  12.956   1.116
   68SOL     OW 2100  10.806   0.266   3.094
   68SOL    HW1 2101  10.878   0.227   3.044
   68SOL    HW2 2102  10.829   0.359   3.101
   69SOL     OW 2103   2.880   6.286  14.485
   69SOL    HW1 2104   2.901   6.196  14.460
   69SOL    HW2 2105   2.789   6.298  14.458
   70SOL     OW 2106   0.406   1.638   7.438
   70SOL    HW1 2107   0.382   1.730   7.450
   70SOL    HW2 2108   0.473   1.639   7.369
   71SOL     OW 2109   0.454   7.476   1.654
   71SOL    HW1 2110   0.529   7.531   1.631
   71SOL    HW2 2111   0.486   7.421   1.726
   72SOL     OW 2112   7.422   6.943   5.436
   72SOL    HW1 2113   7.346   6.995   5.461
   72SOL    HW2 2114   7.465   6.921   5.519
   73SOL     OW 2115   9.533   6.781   5.381
   73SOL    HW1 2116   9.598   6.845   5.352
   73SOL    HW2 2117   9.452   6.806   5.336
   74SOL     OW 2118  10.002  14.823   8.601
   74SOL    HW1 2119   9.916  14.805   8.639
   74SOL    HW2 2120  10.060  14.760   8.643
   75SOL     OW 2121   5.983   6.429  11.805
   75SOL    HW1 2122   5.985   6.355  11.744
   75SOL    HW2 2123   5.966   6.389  11.890
   76SOL     OW 2124   7.950   5.137   1.810
   76SOL    HW1 2125   7.873   5.177   1.850
   76SOL    HW2 2126   7.917   5.099   1.728
   77SOL     OW 2127  11.587   0.748  12.173
   77SOL    HW1 2128  11.552   0.833  12.199
   77SOL    HW2 2129  11.668   0.769  12.127
   78SOL     OW 2130  13.624  10.759  14.011
   78SOL    HW1 2131  13.536  10.732  14.040
   78SOL    HW2 2132  13.683  10.694  14.050
   79SOL     OW 2133   0.079  12.484   9.565
   79SOL    HW1 2134   0.151  12.446   9.617
   79SOL    HW2 2135   0.121  12.509   9.482
   80SOL     OW 2136  13.551   2.091  11.711
   80SOL    HW1 2137  13.532   2.047  11.629
   80SOL    HW2 2138  13.646   2.083  11.721
   81SOL     OW 2139  14.702  10.424   9.654
   81SOL    HW1 2140  14.733  10.355   9.712
   81SOL    HW2 2141  14.706  10.503   9.708
   82SOL     OW 2142   4.248  11.101   9.025
   82SOL    HW1 2143   4.202  11.126   8.944
   82SOL    HW2 2144   4.274  11.010   9.010
   83SOL     OW 2145   3.960  14.167   5.940
   83SOL    HW1 2146   4.000  14.090   5.899
   83SOL    HW2 2147   3.997  14.169   6.028
   84SOL     OW 2148   3.489  12.133   2.705
   84SOL    HW1 2149   3.448  12.189   2.639
   84SOL    HW2 2150   3.549  12.078   2.656
   85SOL     OW 2151  14.562   8.272   8.142
   85SOL    HW1 2152  14.469   8.281   8.162
   85SOL    HW2 2153  14.596   8.218   8.214
   86SOL     OW 2154   2.313   9.509   0.613
   86SOL    HW1 2155   2.357   9.557   0.543
   86SOL    HW2 2156   2.220   9.529   0.601
   87SOL     OW 2157   0.004  10.772  13.977
   87SOL    HW1 2158  14.781  10.751  13.980
   87SOL    HW2 2159   0.011  10.858  14.018
   88SOL     OW 2160  11.212   0.672   0.447
   88SOL    HW1 2161  11.247   0.759   0.469
   88SOL    HW2 2162  11.159   0.648   0.523
   89SOL     OW 2163   3.185  14.517  14.556
   89SOL    HW1 2164   3.239  14.460  14.500
   89SOL    HW2 2165   3.124  14.558  14.496
   90SOL     OW 2166   6.731   6.094   0.277
   90SOL    HW1 2167   6.649   6.143   0.283
   90SOL    HW2 2168   6.722   6.024   0.341
   91SOL     OW 2169   2.491   4.590  11.250
   91SOL    HW1 2170   2.437   4.633  11.315
   91SOL    HW2 2171   2.580   4.590  11.287
   92SOL     OW 2172   5.115   3.333   1.591
   92SOL    HW1 2173   5.176   3.341   1.665
   92SOL    HW2 2174   5.086   3.241   1.594
   93SOL     OW 2175   3.778   1.209   9.114
   93SOL    HW1 2176   3.740   1.170   9.036
   93SOL    HW2 2177   3.702   1.240   9.164
   94SOL     OW 2178  13.151   6.407  14.383
   94SOL    HW1 2179  13.221   6.344  14.394
   94SOL    HW2 2180  13.079   6.373  14.437
   95SOL     OW 2181   4.647  12.163  12.914
   95SOL    HW1 2182   4.594  12.231  12.872
   95SOL    HW2 2183   4.737  12.189  12.898
   96SOL     OW 2184   6.891   2.941   0.804
   96SOL    HW1 2185   6.904   3.012   0.741
   96SOL    HW2 2186   6.825   2.885   0.764
   97SOL     OW 2187   0.331  11.972  11.927
   97SOL    HW1 2188   0.376  11.927  11.999
   97SOL    HW2 2189   0.382  12.051  11.912
   98SOL     OW 2190   4.186   7.647  14.723
   98SOL    HW1 2191   4.100   7.642  14.680
   98SOL    HW2 2192   4.199   7.740  14.741
   99SOL     OW 2193   8.135   4.849  13.343
   99SOL    HW1 2194   8.196   4.890  13.281
   99SOL    HW2 2195   8.172   4.763  13.360
  100SOL     OW 2196  11.156   3.904  12.422
  100SOL    HW1 2197  11.147   3.993  12.456
  100SOL    HW2 2198  11.069   3.866  12.433
  101SOL     OW 2199   3.820   9.036   1.993
  101SOL    HW1 2200   3.814   9.040   2.088
  101SOL    HW2 2201   3.737   8.998   1.964
  102SOL     OW 2202   3.427   3.587   9.804
  102SOL    HW1 2203   3.454   3.519   9.866
  102SOL    HW2 2204   3.502   3.597   9.745
  103SOL     OW 2205   4.419  14.124   2.588
  103SOL    HW1 2206   4.485  14.112   2.520
  103SOL    HW2 2207   4.465  14.171   2.658
  104SOL     OW 2208   2.916  13.804   8.533
  104SOL    HW1 2209   2.940  13.797   8.440
  104SOL    HW2 2210   2.928  13.897   8.553
  105SOL     OW 2211  11.079  10.272   4.475
  105SOL    HW1 2212  11.154  10.292   4.531
  105SOL    HW2 2213  11.010  10.246   4.536
  106SOL     OW 2214   1.629   2.245   2.221
  106SOL    HW1 2215   1.607   2.263   2.312
  106SOL    HW2 2216   1.720   2.218   2.223
  107SOL     OW 2217  11.920  11.048   8.184
  107SOL    HW1 2218  11.978  10.972   8.191
  107SOL    HW2 2219  11.833  11.010   8.170
  108SOL     OW 2220  10.627   1.611  12.761
  108SOL    HW1 2221  10.576   1.682  12.722
  108SOL    HW2 2222  10.564   1.563  12.814
  109SOL     OW 2223   3.343   5.486   7.489
  109SOL    HW1 2224   3.332   5.437   7.570
  109SOL    HW2 2225   3.261   5.533   7.478
  110SOL     OW 2226  14.700  12.784   9.204
  110SOL    HW1 2227  14.734  12.743   9.283
  110SOL    HW2 2228  14.726  12.875   9.211
  111SOL     OW 2229   8.269   0.134  11.529
  111SOL    HW1 2230   8.224   0.212  11.497
  111SOL    HW2 2231   8.246   0.130  11.622
  112SOL     OW 2232   6.125   1.046  12.783
  112SOL    HW1 2233   6.204   1.032  12.836
  112SOL    HW2 2234   6.103   1.138  12.796
  113SOL     OW 2235   2.704   1.480  13.910
  113SOL    HW1 2236   2.616   1.478  13.873
  113SOL    HW2 2237   2.722   1.389  13.936
  114SOL     OW 2238   3.309   1.414  14.820
  114SOL    HW1 2239   3.263   1.452   0.025
  114SOL    HW2 2240   3.362   1.486  14.786
  115SOL     OW 2241   4.193  13.279  12.162
  115SOL    HW1 2242   4.103  13.257  12.187
  115SOL    HW2 2243   4.247  13.218  12.212
  116SOL     OW 2244   2.770   4.053   8.976
  116SOL    HW1 2245   2.732   4.032   9.061
  116SOL    HW2 2246   2.698   4.045   8.915
  117SOL     OW 2247   7.597  10.944   9.428
  117SOL    HW1 2248   7.612  10.860   9.385
  117SOL    HW2 2249   7.533  10.988   9.373
  118SOL     OW 2250   7.797   7.649   9.410
  118SOL    HW1 2251   7.725   7.675   9.352
  118SOL    HW2 2252   7.864   7.715   9.396
  119SOL     OW 2253   2.778   2.673   2.973
  119SOL    HW1 2254   2.745   2.753   3.016
  119SOL    HW2 2255   2.718   2.604   3.001
  120SOL     OW 2256  10.628   6.514   4.366
  120SOL    HW1 2257  10.650   6.508   4.273
  120SOL    HW2 2258  10.584   6.598   4.376
  121SOL     OW 2259  14.456  10.460  13.640
  121SOL    HW1 2260  14.420  10.378  13.607
  121SOL    HW2 2261  14.504  10.496  13.565
  122SOL     OW 2262   9.488   1.915   2.983
  122SOL    HW1 2263   9.458   1.871   2.903
  122SOL    HW2 2264   9.507   2.004   2.955
  123SOL     OW 2265   2.805  10.614   6.328
  123SOL    HW1 2266   2.835  10.533   6.369
  123SOL    HW2 2267   2.864  10.626   6.254
  124SOL     OW 2268   6.780   9.171   4.008
  124SOL    HW1 2269   6.692   9.179   3.973
  124SOL    HW2 2270   6.837   9.175   3.931
  125SOL     OW 2271   2.193   8.023   7.211
  125SOL    HW1 2272   2.190   8.118   7.202
  125SOL    HW2 2273   2.280   7.999   7.179
  126SOL     OW 2274   0.123   0.811   7.732
  126SOL    HW1 2275   0.115   0.876   7.802
  126SOL    HW2 2276   0.211   0.774   7.744
  127SOL     OW 2277  12.769   5.328   8.822
  127SOL    HW1 2278  12.788   5.304   8.913
  127SOL    HW2 2279  12.714   5.258   8.789
  128SOL     OW 2280  10.952   2.663   6.535
  128SOL    HW1 2281  10.947   2.612   6.616
  128SOL    HW2 2282  10.892   2.737   6.549
  129SOL     OW 2283   5.681  12.126   7.656
  129SOL    HW1 2284   5.590  12.096   7.644
  129SOL    HW2 2285   5.733  12.061   7.608
  130SOL     OW 2286  13.266  10.918   1.993
  130SOL    HW1 2287  13.361  10.921   1.987
  130SOL    HW2 2288  13.235  10.941   1.906
  131SOL     OW 2289   4.299  10.782   8.173
  131SOL    HW1 2290   4.377  10.755   8.125
  131SOL    HW2 2291   4.325  10.863   8.218
  132SOL     OW 2292   8.232  10.738   5.692
  132SOL    HW1 2293   8.203  10.766   5.779
  132SOL    HW2 2294   8.326  10.722   5.702
  133SOL     OW 2295   9.666   8.924   0.636
  133SOL    HW1 2296   9.633   9.013   0.647
  133SOL    HW2 2297   9.734   8.915   0.702
  134SOL     OW 2298   1.822  13.285   6.700
  134SOL    HW1 2299   1.836  13.305   6.607
  134SOL    HW2 2300   1.775  13.360   6.734
  135SOL     OW 2301  10.915  10.546  13.213
  135SOL    HW1 2302  10.857  10.550  13.288
  135SOL    HW2 2303  10.993  10.595  13.240
  136SOL     OW 2304   6.231  10.160   8.665
  136SOL    HW1 2305   6.250  10.087   8.607
  136SOL    HW2 2306   6.209  10.120   8.749
  137SOL     OW 2307  11.642  14.792   2.307
  137SOL    HW1 2308  11.735  14.792   2.282
  137SOL    HW2 2309  11.607  14.712   2.268
  138SOL     OW 2310   3.295   9.339   6.720
  138SOL    HW1 2311   3.268   9.423   6.759
  138SOL    HW2 2312   3.321   9.286   6.795
  139SOL     OW 2313   3.982   3.885   5.893
  139SOL    HW1 2314   3.984   3.980   5.889
  139SOL    HW2 2315   4.068   3.858   5.862
  140SOL     OW 2316  10.827   1.790  12.028
  140SOL    HW1 2317  10.748   1.843  12.017
  140SOL    HW2 2318  10.807   1.733  12.102
  141SOL     OW 2319  13.218   0.457   2.494
  141SOL    HW1 2320  13.218   0.486   2.586
  141SOL    HW2 2321  13.205   0.362   2.500
  142SOL     OW 2322  12.015   4.586  13.540
  142SOL    HW1 2323  11.939   4.532  13.561
  142SOL    HW2 2324  12.090   4.540  13.578
  143SOL     OW 2325  14.517  12.989   2.061
  143SOL    HW1 2326  14.468  12.906   2.059
  143SOL    HW2 2327  14.607  12.964   2.037
  144SOL     OW 2328   4.560  12.311  13.403
  144SOL    HW1 2329   4.545  12.334  13.312
  144SOL    HW2 2330   4.597  12.390  13.442
  145SOL     OW 2331  12.223   1.516   9.622
  145SOL    HW1 2332  12.242   1.597   9.670
  145SOL    HW2 2333  12.248   1.446   9.681
  146SOL     OW 2334   6.672   3.530  14.153
  146SOL    HW1 2335   6.601   3.465  14.150
  146SOL    HW2 2336   6.627   3.613  14.167
  147SOL     OW 2337   3.777   5.238  12.002
  147SOL    HW1 2338   3.748   5.224  12.093
  147SOL    HW2 2339   3.736   5.167  11.953
  148SOL     OW 2340   9.868  11.262  13.402
  148SOL    HW1 2341   9.948  11.261  13.350
  148SOL    HW2 2342   9.899  11.274  13.492
  149SOL     OW 2343  14.287   5.733  10.837
  149SOL    HW1 2344  14.346   5.762  10.906
  149SOL    HW2 2345  14.344   5.703  10.766
  150SOL     OW 2346  11.240   0.081   4.140
  150SOL    HW1 2347  11.317   0.025   4.131
  150SOL    HW2 2348  11.248   0.145   4.070
  151SOL     OW 2349   8.269   7.535  12.217
  151SOL    HW1 2350   8.235   7.600  12.156
  151SOL    HW2 2351   8.197   7.474  12.230
  152SOL     OW 2352  10.219   9.652   7.568
  152SOL    HW1 2353  10.129   9.630   7.592
  152SOL    HW2 2354  10.269   9.572   7.585
  153SOL     OW 2355   0.842   2.354  11.511
  153SOL    HW1 2356   0.898   2.300  11.567
  153SOL    HW2 2357   0.877   2.442  11.520
  154SOL     OW 2358   9.589   5.811   9.699
  154SOL    HW1 2359   9.578   5.778   9.788
  154SOL    HW2 2360   9.547   5.897   9.700
  155SOL     OW 2361  13.527   1.582  12.182
  155SOL    HW1 2362  13.441   1.621  12.165
  155SOL    HW2 2363  13.589   1.654  12.171
  156SOL     OW 2364  10.521   0.228  13.260
  156SOL    HW1 2365  10.592   0.290  13.242
  156SOL    HW2 2366  10.500   0.191  13.175
  157SOL     OW 2367  13.220   5.310   2.537
  157SOL    HW1 2368  13.207   5.392   2.586
  157SOL    HW2 2369  13.146   5.307   2.476
  158SOL     OW 2370   5.027   2.861   7.455
  158SOL    HW1 2371   5.017   2.926   7.386
  158SOL    HW2 2372   4.962   2.884   7.521
  159SOL     OW 2373   9.870   7.779   3.100
  159SOL    HW1 2374   9.838   7.866   3.074
  159SOL    HW2 2375   9.809   7.751   3.168
  160SOL     OW 2376   8.457   7.361   9.567
  160SOL    HW1 2377   8.392   7.365   9.636
  160SOL    HW2 2378   8.456   7.270   9.538
  161SOL     OW 2379   7.787   4.226   1.689
  161SOL    HW1 2380   7.881   4.242   1.679
  161SOL    HW2 2381   7.769   4.249   1.781
  162SOL     OW 2382   4.365   5.738   6.180
  162SOL    HW1 2383   4.336   5.806   6.120
  162SOL    HW2 2384   4.413   5.785   6.248
  163SOL     OW 2385   9.462   4.838  14.043
  163SOL    HW1 2386   9.461   4.879  14.130
  163SOL    HW2 2387   9.376   4.858  14.006
  164SOL     OW 2388   7.765   3.994   3.557
  164SOL    HW1 2389   7.699   3.976   3.490
  164SOL    HW2 2390   7.735   4.075   3.599
  165SOL     OW 2391   1.764   3.445   9.107
  165SOL    HW1 2392   1.786   3.538   9.104
  165SOL    HW2 2393   1.784   3.418   9.197
  166SOL     OW 2394   0.807  14.630  13.766
  166SOL    HW1 2395   0.759  14.704  13.729
  166SOL    HW2 2396   0.767  14.615  13.851
  167SOL     OW 2397   5.783   1.669   6.597
  167SOL    HW1 2398   5.806   1.593   6.543
  167SOL    HW2 2399   5.705   1.642   6.645
  168SOL     OW 2400   2.615   3.060   5.104
  168SOL    HW1 2401   2.581   2.993   5.046
  168SOL    HW2 2402   2.541   3.120   5.118
  169SOL     OW 2403   3.681   9.040  10.402
  169SOL    HW1 2404   3.647   8.960  10.440
  169SOL    HW2 2405   3.734   9.011  10.327
  170SOL     OW 2406   7.490  13.106   0.051
  170SOL    HW1 2407   7.511  13.152  14.839
  170SOL    HW2 2408   7.477  13.175   0.115
  171SOL     OW 2409   6.082   4.205   3.865
  171SOL    HW1 2410   6.136   4.138   3.906
  171SOL    HW2 2411   6.010   4.218   3.926
  172SOL     OW 2412   4.614   8.893  10.246
  172SOL    HW1 2413   4.705   8.910  10.270
  172SOL    HW2 2414   4.617   8.809  10.199
  173SOL     OW 2415   1.469   7.080   1.351
  173SOL    HW1 2416   1.442   7.037   1.270
  173SOL    HW2 2417   1.403   7.054   1.415
  174SOL     OW 2418   7.321   7.314   2.396
  174SOL    HW1 2419   7.266   7.332   2.320
  174SOL    HW2 2420   7.274   7.353   2.469
  175SOL     OW 2421   0.731   1.466   4.278
  175SOL    HW1 2422   0.751   1.433   4.190
  175SOL    HW2 2423   0.786   1.413   4.336
  176SOL     OW 2424   3.006  11.375  12.206
  176SOL    HW1 2425   2.943  11.396  12.275
  176SOL    HW2 2426   2.968  11.301  12.160
  177SOL     OW 2427   3.035   6.475   6.560
  177SOL    HW1 2428   3.056   6.408   6.626
  177SOL    HW2 2429   3.092   6.548   6.582
  178SOL     OW 2430  12.984   3.560   0.059
  178SOL    HW1 2431  12.932   3.560   0.139
  178SOL    HW2 2432  13.049   3.629   0.072
  179SOL     OW 2433  12.925  13.633   8.445
  179SOL    HW1 2434  12.941  13.685   8.366
  179SOL    HW2 2435  12.890  13.550   8.412
  180SOL     OW 2436  10.637   4.166   0.312
  180SOL    HW1 2437  10.678   4.193   0.229
  180SOL    HW2 2438  10.666   4.075   0.323
  181SOL     OW 2439   6.736   3.923  12.206
  181SOL    HW1 2440   6.776   4.004  12.172
  181SOL    HW2 2441   6.797   3.854  12.178
  182SOL     OW 2442   7.964  12.845  13.901
  182SOL    HW1 2443   8.051  12.805  13.899
  182SOL    HW2 2444   7.962  12.902  13.824
  183SOL     OW 2445   6.918   8.306  13.813
  183SOL    HW1 2446   6.944   8.390  13.776
  183SOL    HW2 2447   6.836   8.324  13.858
  184SOL     OW 2448   9.900   1.088   9.045
  184SOL    HW1 2449   9.918   1.084   8.951
  184SOL    HW2 2450   9.824   1.146   9.053
  185SOL     OW 2451  12.522   8.757   1.213
  185SOL    HW1 2452  12.484   8.730   1.129
  185SOL    HW2 2453  12.541   8.675   1.258
  186SOL     OW 2454   5.528   5.741   1.383
  186SOL    HW1 2455   5.614   5.735   1.426
  186SOL    HW2 2456   5.502   5.650   1.371
  187SOL     OW 2457  13.724  11.151   2.907
  187SOL    HW1 2458  13.686  11.144   2.995
  187SOL    HW2 2459  13.656  11.193   2.855
  188SOL     OW 2460  11.022   6.746   5.314
  188SOL    HW1 2461  11.017   6.838   5.291
  188SOL    HW2 2462  10.933   6.713   5.306
  189SOL     OW 2463   0.161  13.581  14.667
  189SOL    HW1 2464   0.114  13.548  14.744
  189SOL    HW2 2465   0.100  13.569  14.594
  190SOL     OW 2466   7.086   9.932   8.031
  190SOL    HW1 2467   7.145   9.954   8.103
  190SOL    HW2 2468   7.071  10.015   7.986
  191SOL     OW 2469   9.898   4.677  14.047
  191SOL    HW1 2470   9.943   4.593  14.051
  191SOL    HW2 2471   9.931   4.719  13.968
  192SOL     OW 2472  13.894   7.616   1.283
  192SOL    HW1 2473  13.917   7.696   1.331
  192SOL    HW2 2474  13.811   7.588   1.322
  193SOL     OW 2475   8.053  13.254   9.543
  193SOL    HW1 2476   7.995  13.291   9.609
  193SOL    HW2 2477   8.076  13.327   9.486
  194SOL     OW 2478   9.229   8.891  13.807
  194SOL    HW1 2479   9.223   8.966  13.749
  194SOL    HW2 2480   9.150   8.840  13.789
  195SOL     OW 2481   0.533   3.349  11.421
  195SOL    HW1 2482   0.468   3.354  11.351
  195SOL    HW2 2483   0.531   3.437  11.461
  196SOL     OW 2484   6.695   2.445  12.641
  196SOL    HW1 2485   6.686   2.507  12.569
  196SOL    HW2 2486   6.763   2.384  12.613
  197SOL     OW 2487  11.129   0.035  12.450
  197SOL    HW1 2488  11.120   0.019  12.356
  197SOL    HW2 2489  11.177   0.118  12.455
  198SOL     OW 2490   5.355  14.770   8.660
  198SOL    HW1 2491   5.301  14.798   8.586
  198SOL    HW2 2492   5.294  14.720   8.716
  199SOL     OW 2493  12.342  10.115   9.202
  199SOL    HW1 2494  12.323  10.101   9.109
  199SOL    HW2 2495  12.307  10.202   9.221
  200SOL     OW 2496   8.753   0.184   1.381
  200SOL    HW1 2497   8.757   0.271   1.342
  200SOL    HW2 2498   8.719   0.198   1.469
  201SOL     OW 2499   0.879   9.077  11.061
  201SOL    HW1 2500   0.863   9.022  11.138
  201SOL    HW2 2501   0.848   9.164  11.087
  202SOL     OW 2502  10.763   4.897  11.078
  202SOL    HW1 2503  10.835   4.953  11.049
  202SOL    HW2 2504  10.691   4.958  11.096
  203SOL     OW 2505   9.097   0.371   9.081
  203SOL    HW1 2506   9.123   0.460   9.057
  203SOL    HW2 2507   9.034   0.346   9.014
  204SOL     OW 2508  13.222  12.325   2.907
  204SOL    HW1 2509  13.164  12.386   2.952
  204SOL    HW2 2510  13.291  12.306   2.971
  205SOL     OW 2511  13.421  14.809   9.734
  205SOL    HW1 2512  13.513  14.790   9.715
  205SOL    HW2 2513  13.404   0.022   9.689
  206SOL     OW 2514   6.876   7.549  12.190
  206SOL    HW1 2515   6.960   7.512  12.163
  206SOL    HW2 2516   6.813   7.514  12.126
  207SOL     OW 2517  11.261  11.509   0.552
  207SOL    HW1 2518  11.286  11.580   0.611
  207SOL    HW2 2519  11.343  11.463   0.534
  208SOL     OW 2520   3.263  12.394  10.596
  208SOL    HW1 2521   3.352  12.384  10.630
  208SOL    HW2 2522   3.274  12.441  10.513
  209SOL     OW 2523   0.237  12.423   5.358
  209SOL    HW1 2524   0.211  12.417   5.450
  209SOL    HW2 2525   0.231  12.333   5.326
  210SOL     OW 2526   1.885   6.179   9.935
  210SOL    HW1 2527   1.844   6.233  10.002
  210SOL    HW2 2528   1.853   6.216   9.852
  211SOL     OW 2529   2.421  13.219   5.347
  211SOL    HW1 2530   2.501  13.263   5.375
  211SOL    HW2 2531   2.428  13.130   5.382
  212SOL     OW 2532   1.681   5.072   0.999
  212SOL    HW1 2533   1.645   5.146   1.047
  212SOL    HW2 2534   1.608   5.038   0.948
  213SOL     OW 2535   6.161  11.401   7.201
  213SOL    HW1 2536   6.199  11.420   7.115
  213SOL    HW2 2537   6.223  11.438   7.263
  214SOL     OW 2538  13.550  13.131   8.759
  214SOL    HW1 2539  13.638  13.121   8.722
  214SOL    HW2 2540  13.513  13.043   8.756
  215SOL     OW 2541   0.747   5.095   2.655
  215SOL    HW1 2542   0.662   5.111   2.697
  215SOL    HW2 2543   0.800   5.171   2.680
  216SOL     OW 2544   4.282   8.573   0.719
  216SOL    HW1 2545   4.365   8.563   0.674
  216SOL    HW2 2546   4.241   8.648   0.678
  217SOL     OW 2547  14.074   4.911   2.791
  217SOL    HW1 2548  13.993   4.882   2.748
  217SOL    HW2 2549  14.086   5.001   2.760
  218SOL     OW 2550   3.942   7.618   4.860
  218SOL    HW1 2551   4.032   7.631   4.891
  218SOL    HW2 2552   3.891   7.686   4.904
  219SOL     OW 2553  12.663   5.503  10.207
  219SOL    HW1 2554  12.580   5.522  10.250
  219SOL    HW2 2555  12.643   5.508  10.113
  220SOL     OW 2556   4.616  11.614   0.035
  220SOL    HW1 2557   4.654  11.583   0.117
  220SOL    HW2 2558   4.630  11.543  14.843
  221SOL     OW 2559   5.807  12.229   4.576
  221SOL    HW1 2560   5.877  12.167   4.596
  221SOL    HW2 2561   5.734  12.174   4.548
  222SOL     OW 2562  12.768   9.658   3.085
  222SOL    HW1 2563  12.833   9.719   3.120
  222SOL    HW2 2564  12.817   9.603   3.024
  223SOL     OW 2565   8.953   9.502  10.760
  223SOL    HW1 2566   8.887   9.448  10.717
  223SOL    HW2 2567   9.033   9.487  10.709
  224SOL     OW 2568   8.616  13.152   2.139
  224SOL    HW1 2569   8.660  13.236   2.130
  224SOL    HW2 2570   8.661  13.095   2.077
  225SOL     OW 2571   1.597  11.671  11.372
  225SOL    HW1 2572   1.622  11.673  11.280
  225SOL    HW2 2573   1.580  11.578  11.391
  226SOL     OW 2574   8.440   9.561   8.710
  226SOL    HW1 2575   8.506   9.568   8.778
  226SOL    HW2 2576   8.365   9.520   8.753
  227SOL     OW 2577   1.215  14.072   3.877
  227SOL    HW1 2578   1.155  14.108   3.942
  227SOL    HW2 2579   1.179  14.101   3.793
  228SOL     OW 2580   4.275  10.405  11.982
  228SOL    HW1 2581   4.225  10.473  11.936
  228SOL    HW2 2582   4.254  10.418  12.074
  229SOL     OW 2583  11.607  10.411  12.406
  229SOL    HW1 2584  11.665  10.459  12.465
  229SOL    HW2 2585  11.666  10.376  12.339
  230SOL     OW 2586   8.072   7.612   3.424
  230SOL    HW1 2587   8.047   7.637   3.335
  230SOL    HW2 2588   8.113   7.690   3.461
  231SOL     OW 2589   7.474   1.591   6.387
  231SOL    HW1 2590   7.489   1.539   6.308
  231SOL    HW2 2591   7.405   1.544   6.435
  232SOL     OW 2592   6.853   2.708   4.287
  232SOL    HW1 2593   6.822   2.733   4.374
  232SOL    HW2 2594   6.811   2.623   4.270
  233SOL     OW 2595   8.178   4.187   4.218
  233SOL    HW1 2596   8.179   4.159   4.309
  233SOL    HW2 2597   8.138   4.113   4.171
  234SOL     OW 2598   3.550   6.338   3.699
  234SOL    HW1 2599   3.584   6.398   3.633
  234SOL    HW2 2600   3.627   6.298   3.737
  235SOL     OW 2601   1.823  10.106   1.099
  235SOL    HW1 2602   1.800  10.182   1.152
  235SOL    HW2 2603   1.917  10.096   1.110
  236SOL     OW 2604   8.223   3.892   2.278
  236SOL    HW1 2605   8.185   3.826   2.337
  236SOL    HW2 2606   8.151   3.915   2.220
  237SOL     OW 2607   1.784  13.413   2.477
  237SOL    HW1 2608   1.708  13.466   2.454
  237SOL    HW2 2609   1.859  13.463   2.444
  238SOL     OW 2610   5.144   6.651   3.186
  238SOL    HW1 2611   5.139   6.559   3.159
  238SOL    HW2 2612   5.172   6.647   3.278
  239SOL     OW 2613  10.045  13.833   7.927
  239SOL    HW1 2614  10.038  13.829   7.832
  239SOL    HW2 2615  10.092  13.754   7.952
  240SOL     OW 2616   0.930   2.840   1.830
  240SOL    HW1 2617   1.017   2.879   1.827
  240SOL    HW2 2618   0.876   2.904   1.877
  241SOL     OW 2619   2.124   9.565   6.224
  241SOL    HW1 2620   2.162   9.641   6.269
  241SOL    HW2 2621   2.199   9.507   6.207
  242SOL     OW 2622   7.821   6.732  10.374
  242SOL    HW1 2623   7.869   6.767  10.299
  242SOL    HW2 2624   7.800   6.642  10.350
  243SOL     OW 2625   6.949   0.545   0.955
  243SOL    HW1 2626   6.856   0.537   0.933
  243SOL    HW2 2627   6.954   0.524   1.049
  244SOL     OW 2628  10.437   9.425   2.396
  244SOL    HW1 2629  10.343   9.441   2.390
  244SOL    HW2 2630  10.466   9.417   2.306
  245SOL     OW 2631  11.915   5.349   6.505
  245SOL    HW1 2632  11.916   5.365   6.600
  245SOL    HW2 2633  11.989   5.398   6.471
  246SOL     OW 2634   4.620  14.682   5.506
  246SOL    HW1 2635   4.556  14.660   5.439
  246SOL    HW2 2636   4.684  14.737   5.462
  247SOL     OW 2637  12.355   0.601   0.831
  247SOL    HW1 2638  12.298   0.568   0.901
  247SOL    HW2 2639  12.300   0.662   0.782
  248SOL     OW 2640  11.755   5.575   3.385
  248SOL    HW1 2641  11.702   5.553   3.461
  248SOL    HW2 2642  11.767   5.670   3.390
  249SOL     OW 2643   2.321  12.679  13.163
  249SOL    HW1 2644   2.329  12.760  13.113
  249SOL    HW2 2645   2.274  12.619  13.105
  250SOL     OW 2646   0.233   5.717  13.386
  250SOL    HW1 2647   0.269   5.749  13.469
  250SOL    HW2 2648   0.310   5.689  13.336
  251SOL     OW 2649  11.402   2.755   1.062
  251SOL    HW1 2650  11.417   2.714   1.147
  251SOL    HW2 2651  11.391   2.682   1.002
  252SOL     OW 2652  14.070  14.460  10.505
  252SOL    HW1 2653  14.159  14.443  10.475
  252SOL    HW2 2654  14.026  14.375  10.500
  253SOL     OW 2655   1.940   2.393   2.663
  253SOL    HW1 2656   1.861   2.442   2.685
  253SOL    HW2 2657   2.012   2.452   2.685
  254SOL     OW 2658  13.866  13.924   9.614
  254SOL    HW1 2659  13.857  14.017   9.595
  254SOL    HW2 2660  13.927  13.892   9.548
  255SOL     OW 2661   3.100  10.891   1.766
  255SOL    HW1 2662   3.078  10.855   1.851
  255SOL    HW2 2663   3.192  10.916   1.773
  256SOL     OW 2664  11.565   6.798   8.094
  256SOL    HW1 2665  11.474   6.799   8.125
  256SOL    HW2 2666  11.585   6.705   8.082
  257SOL     OW 2667   7.200   3.184   1.550
  257SOL    HW1 2668   7.177   3.111   1.492
  257SOL    HW2 2669   7.224   3.141   1.632
  258SOL     OW 2670   6.359   1.273   5.530
  258SOL    HW1 2671   6.441   1.273   5.481
  258SOL    HW2 2672   6.343   1.365   5.551
  259SOL     OW 2673  13.967   6.105   8.588
  259SOL    HW1 2674  13.888   6.107   8.642
  259SOL    HW2 2675  13.933   6.101   8.498
  260SOL     OW 2676  11.970  11.218  11.272
  260SOL    HW1 2677  11.917  11.257  11.202
  260SOL    HW2 2678  11.906  11.194  11.340
  261SOL     OW 2679  12.114   7.304   6.825
  261SOL    HW1 2680  12.065   7.264   6.897
  261SOL    HW2 2681  12.206   7.292   6.849
  262SOL     OW 2682   4.573   9.570   5.463
  262SOL    HW1 2683   4.612   9.652   5.493
  262SOL    HW2 2684   4.617   9.551   5.381
  263SOL     OW 2685   8.424   9.070   4.784
  263SOL    HW1 2686   8.411   8.976   4.777
  263SOL    HW2 2687   8.455   9.084   4.874
  264SOL     OW 2688   1.734   5.140  10.867
  264SOL    HW1 2689   1.691   5.127  10.951
  264SOL    HW2 2690   1.764   5.052  10.842
  265SOL     OW 2691  14.577   1.028  14.242
  265SOL    HW1 2692  14.552   0.993  14.328
  265SOL    HW2 2693  14.640   1.097  14.262
  266SOL     OW 2694   4.071  11.057  10.238
  266SOL    HW1 2695   4.147  11.070  10.180
  266SOL    HW2 2696   4.084  10.970  10.274
  267SOL     OW 2697   8.675  14.712   9.255
  267SOL    HW1 2698   8.767  14.697   9.275
  267SOL    HW2 2699   8.630  14.635   9.290
  268SOL     OW 2700   4.494   0.007   2.147
  268SOL    HW1 2701   4.454  14.822   2.215
  268SOL    HW2 2702   4.582  14.840   2.138
  269SOL     OW 2703   7.771   4.255   1.954
  269SOL    HW1 2704   7.796   4.314   2.026
  269SOL    HW2 2705   7.684   4.223   1.979
  270SOL     OW 2706   4.238   1.816   0.901
  270SOL    HW1 2707   4.242   1.903   0.862
  270SOL    HW2 2708   4.236   1.831   0.995
  271SOL     OW 2709   4.695   0.484   2.566
  271SOL    HW1 2710   4.758   0.528   2.510
  271SOL    HW2 2711   4.612   0.528   2.548
  272SOL     OW 2712   2.316   7.591   4.125
  272SOL    HW1 2713   2.295   7.672   4.171
  272SOL    HW2 2714   2.242   7.577   4.066
  273SOL     OW 2715   8.095   9.711   9.116
  273SOL    HW1 2716   8.140   9.631   9.088
  273SOL    HW2 2717   8.164   9.776   9.124
  274SOL     OW 2718   6.626   9.791   5.622
  274SOL    HW1 2719   6.721   9.789   5.636
  274SOL    HW2 2720   6.606   9.709   5.578
  275SOL     OW 2721  11.851   7.326   5.950
  275SOL    HW1 2722  11.857   7.410   5.997
  275SOL    HW2 2723  11.890   7.343   5.865
  276SOL     OW 2724  10.408   8.982   1.651
  276SOL    HW1 2725  10.468   8.929   1.702
  276SOL    HW2 2726  10.364   9.038   1.715
  277SOL     OW 2727  12.874   2.322   1.418
  277SOL    HW1 2728  12.831   2.238   1.405
  277SOL    HW2 2729  12.911   2.344   1.333
  278SOL     OW 2730  13.531   6.139   7.593
  278SOL    HW1 2731  13.623   6.164   7.606
  278SOL    HW2 2732  13.485   6.222   7.588
  279SOL     OW 2733   5.803   5.988   8.023
  279SOL    HW1 2734   5.866   6.049   8.062
  279SOL    HW2 2735   5.731   6.043   7.992
  280SOL     OW 2736   7.634   2.532   3.864
  280SOL    HW1 2737   7.574   2.512   3.792
  280SOL    HW2 2738   7.708   2.577   3.822
  281SOL     OW 2739  13.049   2.759   1.788
  281SOL    HW1 2740  13.004   2.686   1.831
  281SOL    HW2 2741  13.005   2.837   1.822
  282SOL     OW 2742  13.717   8.782   3.519
  282SOL    HW1 2743  13.651   8.751   3.456
  282SOL    HW2 2744  13.703   8.727   3.596
  283SOL     OW 2745   6.581  14.109   9.285
  283SOL    HW1 2746   6.646  14.137   9.349
  283SOL    HW2 2747   6.616  14.027   9.249
  284SOL     OW 2748  11.878   4.254   9.821
  284SOL    HW1 2749  11.870   4.160   9.804
  284SOL    HW2 2750  11.958   4.263   9.872
  285SOL     OW 2751  14.575   2.538   1.321
  285SOL    HW1 2752  14.618   2.612   1.279
  285SOL    HW2 2753  14.620   2.461   1.288
  286SOL     OW 2754  13.279   5.540   4.228
  286SOL    HW1 2755  13.327   5.580   4.300
  286SOL    HW2 2756  13.292   5.446   4.241
  287SOL     OW 2757   6.235   8.974   5.290
  287SOL    HW1 2758   6.249   8.984   5.196
  287SOL    HW2 2759   6.320   8.947   5.325
  288SOL     OW 2760   5.177   1.373   7.661
  288SOL    HW1 2761   5.117   1.337   7.596
  288SOL    HW2 2762   5.172   1.468   7.650
  289SOL     OW 2763  12.030   8.097   5.006
  289SOL    HW1 2764  12.059   8.184   4.981
  289SOL    HW2 2765  12.001   8.057   4.924
  290SOL     OW 2766   7.665   4.759   0.326
  290SOL    HW1 2767   7.697   4.699   0.393
  290SOL    HW2 2768   7.582   4.792   0.362
  291SOL     OW 2769  11.941  12.684   9.039
  291SOL    HW1 2770  11.851  12.702   9.011
  291SOL    HW2 2771  11.939  12.593   9.069
  292SOL     OW 2772   0.122  11.701   6.546
  292SOL    HW1 2773   0.038  11.657   6.537
  292SOL    HW2 2774   0.177  11.637   6.592
  293SOL     OW 2775   7.785   0.101   6.399
  293SOL    HW1 2776   7.852   0.119   6.333
  293SOL    HW2 2777   7.832   0.058   6.470
  294SOL     OW 2778   5.160  11.128  11.467
  294SOL    HW1 2779   5.117  11.064  11.523
  294SOL    HW2 2780   5.199  11.191  11.528
  295SOL     OW 2781   8.322   3.494   2.532
  295SOL    HW1 2782   8.324   3.527   2.622
  295SOL    HW2 2783   8.350   3.568   2.478
  296SOL     OW 2784   5.548   0.150   6.772
  296SOL    HW1 2785   5.523   0.178   6.860
  296SOL    HW2 2786   5.504   0.211   6.713
  297SOL     OW 2787   3.571  11.462  10.352
  297SOL    HW1 2788   3.638  11.525  10.323
  297SOL    HW2 2789   3.535  11.427  10.270
  298SOL     OW 2790   0.711  11.393   1.286
  298SOL    HW1 2791   0.754  11.387   1.371
  298SOL    HW2 2792   0.681  11.484   1.281
  299SOL     OW 2793  10.046   0.090   2.692
  299SOL    HW1 2794  10.063   0.171   2.741
  299SOL    HW2 2795  10.055   0.116   2.600
  300SOL     OW 2796   9.237   5.874  11.359
  300SOL    HW1 2797   9.199   5.946  11.308
  300SOL    HW2 2798   9.233   5.904  11.449
  301SOL     OW 2799  13.093  11.571   8.977
  301SOL    HW1 2800  13.151  11.647   8.975
  301SOL    HW2 2801  13.101  11.538   9.067
  302SOL     OW 2802   5.356   7.129   7.881
  302SOL    HW1 2803   5.302   7.160   7.953
  302SOL    HW2 2804   5.324   7.178   7.805
  303SOL     OW 2805   0.697   9.750   9.372
  303SOL    HW1 2806   0.681   9.656   9.371
  303SOL    HW2 2807   0.685   9.775   9.464
  304SOL     OW 2808   9.234  12.505   2.741
  304SOL    HW1 2809   9.197  12.588   2.772
  304SOL    HW2 2810   9.194  12.492   2.655
  305SOL     OW 2811  13.564  12.606   4.103
  305SOL    HW1 2812  13.650  12.647   4.108
  305SOL    HW2 2813  13.502  12.677   4.118
  306SOL     OW 2814   8.703  10.049  10.986
  306SOL    HW1 2815   8.642  10.092  10.926
  306SOL    HW2 2816   8.777  10.023  10.931
  307SOL     OW 2817  12.792   9.128   3.293
  307SOL    HW1 2818  12.764   9.080   3.214
  307SOL    HW2 2819  12.798   9.219   3.264
  308SOL     OW 2820   0.454  13.046   9.717
  308SOL    HW1 2821   0.545  13.037   9.744
  308SOL    HW2 2822   0.429  13.134   9.747
  309SOL     OW 2823   2.322  14.749   8.557
  309SOL    HW1 2824   2.394  14.800   8.520
  309SOL    HW2 2825   2.243  14.788   8.520
  310SOL     OW 2826   2.479   2.448  13.589
  310SOL    HW1 2827   2.552   2.511  13.588
  310SOL    HW2 2828   2.426   2.476  13.663
  311SOL     OW 2829  13.409   4.114   6.856
  311SOL    HW1 2830  13.407   4.058   6.779
  311SOL    HW2 2831  13.346   4.184   6.837
  312SOL     OW 2832   0.439   7.153  10.456
  312SOL    HW1 2833   0.416   7.166  10.364
  312SOL    HW2 2834   0.354   7.150  10.501
  313SOL     OW 2835   3.034   2.355   5.444
  313SOL    HW1 2836   3.054   2.302   5.522
  313SOL    HW2 2837   2.996   2.436   5.480
  314SOL     OW 2838   5.839   9.498   4.176
  314SOL    HW1 2839   5.880   9.553   4.109
  314SOL    HW2 2840   5.912   9.451   4.216
  315SOL     OW 2841  11.077  13.220   3.672
  315SOL    HW1 2842  11.049  13.236   3.762
  315SOL    HW2 2843  11.172  13.227   3.674
  316SOL     OW 2844   0.121   2.159   9.305
  316SOL    HW1 2845   0.181   2.192   9.372
  316SOL    HW2 2846   0.169   2.086   9.265
  317SOL     OW 2847  11.716  14.607   7.341
  317SOL    HW1 2848  11.658  14.682   7.329
  317SOL    HW2 2849  11.758  14.595   7.256
  318SOL     OW 2850   4.687   5.138   2.641
  318SOL    HW1 2851   4.666   5.047   2.623
  318SOL    HW2 2852   4.776   5.136   2.677
  319SOL     OW 2853   8.622  12.032  10.004
  319SOL    HW1 2854   8.635  12.037   9.909
  319SOL    HW2 2855   8.529  12.050  10.016
  320SOL     OW 2856   0.319   9.670   7.568
  320SOL    HW1 2857   0.310   9.581   7.601
  320SOL    HW2 2858   0.277   9.725   7.634
  321SOL     OW 2859   5.700  11.053   3.045
  321SOL    HW1 2860   5.791  11.025   3.056
  321SOL    HW2 2861   5.700  11.144   3.073
  322SOL     OW 2862  14.385   1.541  14.031
  322SOL    HW1 2863  14.396   1.512  14.122
  322SOL    HW2 2864  14.306   1.497  14.002
  323SOL     OW 2865   0.232   0.985  11.548
  323SOL    HW1 2866   0.288   0.962  11.622
  323SOL    HW2 2867   0.209   1.077  11.562
  324SOL     OW 2868   0.792   9.328   0.014
  324SOL    HW1 2869   0.699   9.314  14.862
  324SOL    HW2 2870   0.807   9.272   0.091
  325SOL     OW 2871   8.903   8.250  11.631
  325SOL    HW1 2872   8.966   8.315  11.600
  325SOL    HW2 2873   8.843   8.237  11.558
  326SOL     OW 2874  14.088   3.812   6.438
  326SOL    HW1 2875  13.994   3.803   6.454
  326SOL    HW2 2876  14.118   3.876   6.503
  327SOL     OW 2877   7.058  11.615   0.659
  327SOL    HW1 2878   7.042  11.598   0.566
  327SOL    HW2 2879   7.059  11.528   0.699
  328SOL     OW 2880  10.597   3.306  10.786
  328SOL    HW1 2881  10.559   3.356  10.859
  328SOL    HW2 2882  10.535   3.317  10.714
  329SOL     OW 2883   8.149   7.728   5.294
  329SOL    HW1 2884   8.145   7.658   5.228
  329SOL    HW2 2885   8.057   7.743   5.318
  330SOL     OW 2886   3.998   3.794   5.415
  330SOL    HW1 2887   3.961   3.789   5.503
  330SOL    HW2 2888   3.930   3.836   5.362
  331SOL     OW 2889  10.612  10.302   4.747
  331SOL    HW1 2890  10.614  10.392   4.714
  331SOL    HW2 2891  10.561  10.307   4.827
  332SOL     OW 2892   7.784  11.351   4.680
  332SOL    HW1 2893   7.857  11.303   4.641
  332SOL    HW2 2894   7.826  11.411   4.742
  333SOL     OW 2895   3.305   8.621   2.141
  333SOL    HW1 2896   3.285   8.698   2.088
  333SOL    HW2 2897   3.253   8.551   2.102
  334SOL     OW 2898   9.573   2.864   6.389
  334SOL    HW1 2899   9.634   2.791   6.379
  334SOL    HW2 2900   9.617   2.923   6.451
  335SOL     OW 2901   9.899  10.969   4.261
  335SOL    HW1 2902   9.851  10.965   4.178
  335SOL    HW2 2903   9.962  11.040   4.250
  336SOL     OW 2904   9.613   9.036  11.107
  336SOL    HW1 2905   9.670   8.961  11.090
  336SOL    HW2 2906   9.536   8.999  11.149
  337SOL     OW 2907  10.379  13.697   7.837
  337SOL    HW1 2908  10.409  13.628   7.777
  337SOL    HW2 2909  10.293  13.721   7.805
  338SOL     OW 2910   8.776   9.861   1.518
  338SOL    HW1 2911   8.828   9.786   1.548
  338SOL    HW2 2912   8.709   9.871   1.585
  339SOL     OW 2913   3.434   6.041  14.752
  339SOL    HW1 2914   3.353   6.023  14.801
  339SOL    HW2 2915   3.404   6.081  14.670
  340SOL     OW 2916   0.132   1.626  10.909
  340SOL    HW1 2917   0.051   1.631  10.859
  340SOL    HW2 2918   0.172   1.712  10.899
  341SOL     OW 2919   2.945   2.985   3.558
  341SOL    HW1 2920   2.990   3.064   3.588
  341SOL    HW2 2921   2.993   2.913   3.599
  342SOL     OW 2922   9.270   6.318   6.669
  342SOL    HW1 2923   9.328   6.342   6.741
  342SOL    HW2 2924   9.318   6.340   6.590
  343SOL     OW 2925   7.146   2.808   8.396
  343SOL    HW1 2926   7.116   2.761   8.319
  343SOL    HW2 2927   7.121   2.899   8.381
  344SOL     OW 2928   1.146   3.491   4.931
  344SOL    HW1 2929   1.232   3.521   4.902
  344SOL    HW2 2930   1.127   3.415   4.876
  345SOL     OW 2931   7.632   2.084   5.962
  345SOL    HW1 2932   7.630   1.994   5.995
  345SOL    HW2 2933   7.540   2.106   5.948
  346SOL     OW 2934  14.687   9.261   0.163
  346SOL    HW1 2935  14.729   9.201   0.225
  346SOL    HW2 2936  14.596   9.265   0.193
  347SOL     OW 2937   0.674  11.120  12.164
  347SOL    HW1 2938   0.724  11.153  12.239
  347SOL    HW2 2939   0.686  11.187  12.096
  348SOL     OW 2940   9.803   2.380  11.460
  348SOL    HW1 2941   9.777   2.289  11.473
  348SOL    HW2 2942   9.802   2.392  11.365
  349SOL     OW 2943   1.933   6.787  14.614
  349SOL    HW1 2944   1.944   6.698  14.579
  349SOL    HW2 2945   1.902   6.838  14.540
  350SOL     OW 2946  13.383   8.520  10.459
  350SOL    HW1 2947  13.360   8.430  10.482
  350SOL    HW2 2948  13.325   8.574  10.513
  351SOL     OW 2949   6.508   1.184  10.882
  351SOL    HW1 2950   6.560   1.171  10.961
  351SOL    HW2 2951   6.562   1.240  10.826
  352SOL     OW 2952   0.040   3.975   5.198
  352SOL    HW1 2953   0.125   4.009   5.227
  352SOL    HW2 2954   0.006   3.927   5.273
  353SOL     OW 2955   2.178  12.293   4.865
  353SOL    HW1 2956   2.158  12.292   4.771
  353SOL    HW2 2957   2.133  12.217   4.901
  354SOL     OW 2958   8.969   4.356  13.050
  354SOL    HW1 2959   8.994   4.444  13.024
  354SOL    HW2 2960   8.880   4.345  13.015
  355SOL     OW 2961   7.119   4.372   8.495
  355SOL    HW1 2962   7.162   4.387   8.410
  355SOL    HW2 2963   7.043   4.318   8.474
  356SOL     OW 2964   2.679  11.752   0.853
  356SOL    HW1 2965   2.723  11.734   0.769
  356SOL    HW2 2966   2.749  11.747   0.918
  357SOL     OW 2967  11.898   7.871  13.270
  357SOL    HW1 2968  11.975   7.909  13.229
  357SOL    HW2 2969  11.933   7.818  13.342
  358SOL     OW 2970   6.360   0.131   3.037
  358SOL    HW1 2971   6.414   0.114   2.960
  358SOL    HW2 2972   6.305   0.205   3.012
  359SOL     OW 2973  14.496  14.681   1.200
  359SOL    HW1 2974  14.515  14.741   1.271
  359SOL    HW2 2975  14.406  14.703   1.174
  360SOL     OW 2976  11.484   7.814  13.512
  360SOL    HW1 2977  11.413   7.773  13.562
  360SOL    HW2 2978  11.443   7.888  13.468
  361SOL     OW 2979   1.467   4.020   3.116
  361SOL    HW1 2980   1.418   3.974   3.047
  361SOL    HW2 2981   1.421   3.997   3.197
  362SOL     OW 2982  11.401   3.208   4.405
  362SOL    HW1 2983  11.383   3.122   4.442
  362SOL    HW2 2984  11.490   3.202   4.371
  363SOL     OW 2985  14.470   6.501  14.504
  363SOL    HW1 2986  14.420   6.488  14.423
  363SOL    HW2 2987  14.426   6.574  14.547
  364SOL     OW 2988   5.453  11.796  14.612
  364SOL    HW1 2989   5.373  11.762  14.572
  364SOL    HW2 2990   5.437  11.889  14.624
  365SOL     OW 2991  12.205   5.641  14.455
  365SOL    HW1 2992  12.274   5.627  14.390
  365SOL    HW2 2993  12.248   5.626  14.539
  366SOL     OW 2994   6.206   3.622   1.129
  366SOL    HW1 2995   6.215   3.597   1.221
  366SOL    HW2 2996   6.200   3.540   1.082
  367SOL     OW 2997   2.558   4.678  13.628
  367SOL    HW1 2998   2.616   4.684  13.552
  367SOL    HW2 2999   2.470   4.670  13.592
  368SOL     OW 3000   5.625   2.183   5.322
  368SOL    HW1 3001   5.542   2.191   5.275
  368SOL    HW2 3002   5.600   2.175   5.414
  369SOL     OW 3003  10.977   0.772   9.800
  369SOL    HW1 3004  10.957   0.865   9.808
  369SOL    HW2 3005  11.049   0.768   9.737
  370SOL     OW 3006   2.578  14.670  12.337
  370SOL    HW1 3007   2.586  14.704  12.426
  370SOL    HW2 3008   2.669  14.659  12.308
  371SOL     OW 3009   8.082   2.479  10.336
  371SOL    HW1 3010   8.174   2.500  10.354
  371SOL    HW2 3011   8.060   2.532  10.260
  372SOL     OW 3012   6.981  11.078  10.988
  372SOL    HW1 3013   7.043  11.006  10.970
  372SOL    HW2 3014   6.912  11.067  10.922
  373SOL     OW 3015   5.663  14.841  12.503
  373SOL    HW1 3016   5.596   0.002  12.442
  373SOL    HW2 3017   5.743  14.839  12.451
  374SOL     OW 3018  13.681  11.609   5.291
  374SOL    HW1 3019  13.590  11.584   5.307
  374SOL    HW2 3020  13.721  11.531   5.252
  375SOL     OW 3021   9.400  12.568   6.302
  375SOL    HW1 3022   9.305  12.563   6.291
  375SOL    HW2 3023   9.424  12.653   6.263
  376SOL     OW 3024  10.130   9.718  11.284
  376SOL    HW1 3025  10.076   9.732  11.362
  376SOL    HW2 3026  10.188   9.795  11.281
  377SOL     OW 3027  14.011   8.853  11.172
  377SOL    HW1 3028  13.956   8.823  11.099
  377SOL    HW2 3029  14.092   8.803  11.163
  378SOL     OW 3030   7.484   0.748  10.582
  378SOL    HW1 3031   7.393   0.729  10.559
  378SOL    HW2 3032   7.532   0.668  10.557
  379SOL     OW 3033   3.481   2.643  10.662
  379SOL    HW1 3034   3.527   2.638  10.746
  379SOL    HW2 3035   3.407   2.702  10.679
  380SOL     OW 3036   2.318  11.779   2.619
  380SOL    HW1 3037   2.324  11.687   2.595
  380SOL    HW2 3038   2.335  11.780   2.714
  381SOL     OW 3039  11.712  11.352   7.975
  381SOL    HW1 3040  11.628  11.343   8.019
  381SOL    HW2 3041  11.704  11.433   7.924
  382SOL     OW 3042   7.129   3.875   4.461
  382SOL    HW1 3043   7.203   3.880   4.523
  382SOL    HW2 3044   7.075   3.951   4.482
  383SOL     OW 3045   8.388  14.046   2.684
  383SOL    HW1 3046   8.369  14.006   2.599
  383SOL    HW2 3047   8.442  14.122   2.663
  384SOL     OW 3048  11.326  12.835  13.201
  384SOL    HW1 3049  11.416  12.865  13.204
  384SOL    HW2 3050  11.276  12.910  13.168
  385SOL     OW 3051   4.608   8.710   3.209
  385SOL    HW1 3052   4.586   8.803   3.214
  385SOL    HW2 3053   4.685   8.700   3.265
  386SOL     OW 3054  12.510   6.510   5.906
  386SOL    HW1 3055  12.550   6.450   5.844
  386SOL    HW2 3056  12.552   6.489   5.990
  387SOL     OW 3057   0.644  14.529   4.486
  387SOL    HW1 3058   0.643  14.435   4.504
  387SOL    HW2 3059   0.675  14.569   4.568
  388SOL     OW 3060   3.149  11.814   9.152
  388SOL    HW1 3061   3.063  11.851   9.133
  388SOL    HW2 3062   3.209  11.889   9.152
  389SOL     OW 3063  13.698  12.129   2.097
  389SOL    HW1 3064  13.680  12.159   2.008
  389SOL    HW2 3065  13.790  12.105   2.097
  390SOL     OW 3066   4.110  14.064  14.472
  390SOL    HW1 3067   4.157  14.036  14.550
  390SOL    HW2 3068   4.170  14.124  14.428
  391SOL     OW 3069   5.459   0.226   2.806
  391SOL    HW1 3070   5.538   0.245   2.756
  391SOL    HW2 3071   5.440   0.307   2.853
  392SOL     OW 3072  14.577   9.526  11.265
  392SOL    HW1 3073  14.552   9.601  11.318
  392SOL    HW2 3074  14.665   9.503  11.295
  393SOL     OW 3075   6.273  12.266   1.082
  393SOL    HW1 3076   6.309  12.355   1.084
  393SOL    HW2 3077   6.257  12.249   0.989
  394SOL     OW 3078  10.600  12.360  10.666
  394SOL    HW1 3079  10.633  12.446  10.641
  394SOL    HW2 3080  10.586  12.367  10.761
  395SOL     OW 3081   5.013   4.404   4.230
  395SOL    HW1 3082   4.936   4.429   4.179
  395SOL    HW2 3083   5.084   4.455   4.192
  396SOL     OW 3084   7.843  11.017  10.852
  396SOL    HW1 3085   7.847  11.109  10.825
  396SOL    HW2 3086   7.812  11.021  10.943
  397SOL     OW 3087   1.448   1.288  12.320
  397SOL    HW1 3088   1.476   1.247  12.238
  397SOL    HW2 3089   1.529   1.322  12.359
  398SOL     OW 3090   3.145   7.000   2.943
  398SOL    HW1 3091   3.098   6.938   2.999
  398SOL    HW2 3092   3.164   6.951   2.863
  399SOL     OW 3093  11.217   6.797  11.753
  399SOL    HW1 3094  11.275   6.741  11.700
  399SOL    HW2 3095  11.270   6.821  11.829
  400SOL     OW 3096   3.422  14.803   5.389
  400SOL    HW1 3097   3.421   0.026   5.366
  400SOL    HW2 3098   3.345  14.792   5.445
  401SOL     OW 3099  10.739   7.407  11.894
  401SOL    HW1 3100  10.803   7.345  11.859
  401SOL    HW2 3101  10.791   7.466  11.950
  402SOL     OW 3102  11.308   2.198   6.204
  402SOL    HW1 3103  11.312   2.215   6.298
  402SOL    HW2 3104  11.305   2.285   6.164
  403SOL     OW 3105  12.417   9.268   3.226
  403SOL    HW1 3106  12.473   9.247   3.151
  403SOL    HW2 3107  12.445   9.208   3.295
  404SOL     OW 3108  14.650  10.213  14.230
  404SOL    HW1 3109  14.623  10.261  14.152
  404SOL    HW2 3110  14.611  10.260  14.303
  405SOL     OW 3111  10.291   3.493   7.770
  405SOL    HW1 3112  10.348   3.553   7.723
  405SOL    HW2 3113  10.337   3.475   7.852
  406SOL     OW 3114   3.734   1.000   2.021
  406SOL    HW1 3115   3.756   1.041   1.938
  406SOL    HW2 3116   3.759   0.908   2.011
  407SOL     OW 3117  11.958   2.493  10.906
  407SOL    HW1 3118  11.986   2.582  10.930
  407SOL    HW2 3119  11.918   2.503  10.820
  408SOL     OW 3120   6.922   7.063   4.804
  408SOL    HW1 3121   6.871   7.036   4.881
  408SOL    HW2 3122   7.011   7.074   4.837
  409SOL     OW 3123   6.450   4.298  10.690
  409SOL    HW1 3124   6.405   4.376  10.722
  409SOL    HW2 3125   6.515   4.278  10.757
  410SOL     OW 3126   8.927  11.010   9.677
  410SOL    HW1 3127   8.908  11.022   9.770
  410SOL    HW2 3128   9.001  11.069   9.660
  411SOL     OW 3129   8.926   9.217   5.197
  411SOL    HW1 3130   9.019   9.230   5.213
  411SOL    HW2 3131   8.922   9.137   5.144
  412SOL     OW 3132   7.617   5.027  13.151
  412SOL    HW1 3133   7.549   4.991  13.207
  412SOL    HW2 3134   7.671   4.952  13.126
  413SOL     OW 3135   0.071  10.061   7.773
  413SOL    HW1 3136   0.006   9.994   7.795
  413SOL    HW2 3137   0.094  10.100   7.857
  414SOL     OW 3138   0.222   5.744  14.602
  414SOL    HW1 3139   0.300   5.797  14.585
  414SOL    HW2 3140   0.207   5.696  14.521
  415SOL     OW 3141   6.457   6.479  12.256
  415SOL    HW1 3142   6.553   6.485  12.263
  415SOL    HW2 3143   6.425   6.551  12.310
  416SOL     OW 3144   2.645   3.666   8.523
  416SOL    HW1 3145   2.720   3.725   8.521
  416SOL    HW2 3146   2.677   3.585   8.483
  417SOL     OW 3147  12.930   8.579   6.848
  417SOL    HW1 3148  12.898   8.554   6.935
  417SOL    HW2 3149  12.891   8.514   6.789
  418SOL     OW 3150  12.673   4.670  12.875
  418SOL    HW1 3151  12.597   4.671  12.817
  418SOL    HW2 3152  12.637   4.669  12.964
  419SOL     OW 3153   6.833   3.405   5.250
  419SOL    HW1 3154   6.818   3.500   5.247
  419SOL    HW2 3155   6.773   3.373   5.317
  420SOL     OW 3156   6.162   0.789   2.500
  420SOL    HW1 3157   6.189   0.721   2.438
  420SOL    HW2 3158   6.238   0.846   2.509
  421SOL     OW 3159   1.143   4.592   4.579
  421SOL    HW1 3160   1.048   4.578   4.587
  421SOL    HW2 3161   1.180   4.544   4.653
  422SOL     OW 3162   8.135   2.164  11.782
  422SOL    HW1 3163   8.125   2.071  11.803
  422SOL    HW2 3164   8.222   2.187  11.814
  423SOL     OW 3165  13.708   3.996  10.682
  423SOL    HW1 3166  13.787   4.036  10.719
  423SOL    HW2 3167  13.648   3.988  10.756
  424SOL     OW 3168   7.057   2.589   8.581
  424SOL    HW1 3169   7.113   2.641   8.523
  424SOL    HW2 3170   7.050   2.504   8.538
  425SOL     OW 3171   8.291   4.114  12.626
  425SOL    HW1 3172   8.239   4.035  12.614
  425SOL    HW2 3173   8.357   4.109  12.557
  426SOL     OW 3174   1.084  11.702   9.375
  426SOL    HW1 3175   1.004  11.726   9.328
  426SOL    HW2 3176   1.063  11.716   9.467
  427SOL     OW 3177  11.584   3.587  12.121
  427SOL    HW1 3178  11.660   3.605  12.066
  427SOL    HW2 3179  11.609   3.511  12.174
  428SOL     OW 3180  10.898   3.278  12.835
  428SOL    HW1 3181  10.920   3.245  12.749
  428SOL    HW2 3182  10.974   3.329  12.862
  429SOL     OW 3183  13.058   7.860  10.410
  429SOL    HW1 3184  13.055   7.955  10.400
  429SOL    HW2 3185  13.150   7.840  10.425
  430SOL     OW 3186  14.142   9.626  11.292
  430SOL    HW1 3187  14.197   9.670  11.227
  430SOL    HW2 3188  14.195   9.628  11.372
  431SOL     OW 3189   6.867  13.881   0.483
  431SOL    HW1 3190   6.863  13.929   0.401
  431SOL    HW2 3191   6.937  13.923   0.532
  432SOL     OW 3192  13.336  12.255   5.157
  432SOL    HW1 3193  13.369  12.337   5.195
  432SOL    HW2 3194  13.414  12.202   5.143
  433SOL     OW 3195   8.504  12.796   0.726
  433SOL    HW1 3196   8.502  12.840   0.811
  433SOL    HW2 3197   8.414  12.767   0.711
  434SOL     OW 3198  12.179   3.341   4.402
  434SOL    HW1 3199  12.270   3.347   4.373
  434SOL    HW2 3200  12.167   3.249   4.424
  435SOL     OW 3201   3.694   0.524   9.888
  435SOL    HW1 3202   3.660   0.530   9.799
  435SOL    HW2 3203   3.651   0.447   9.925
  436SOL     OW 3204   2.385   5.011   7.606
  436SOL    HW1 3205   2.420   4.996   7.694
  436SOL    HW2 3206   2.297   4.974   7.609
  437SOL     OW 3207   6.107  11.345  10.884
  437SOL    HW1 3208   6.035  11.319  10.826
  437SOL    HW2 3209   6.122  11.268  10.939
  438SOL     OW 3210   1.664   9.486   3.368
  438SOL    HW1 3211   1.682   9.580   3.378
  438SOL    HW2 3212   1.696   9.465   3.281
  439SOL     OW 3213   4.370  14.069   7.886
  439SOL    HW1 3214   4.347  14.079   7.793
  439SOL    HW2 3215   4.328  14.144   7.928
  440SOL     OW 3216   2.414   7.367   8.392
  440SOL    HW1 3217   2.480   7.337   8.455
  440SOL    HW2 3218   2.466   7.405   8.321
  441SOL     OW 3219   2.921  14.421   9.687
  441SOL    HW1 3220   2.901  14.471   9.608
  441SOL    HW2 3221   2.964  14.341   9.654
  442SOL     OW 3222   4.971  11.622   2.660
  442SOL    HW1 3223   4.879  11.623   2.633
  442SOL    HW2 3224   4.984  11.538   2.702
  443SOL     OW 3225   3.267   2.179   7.982
  443SOL    HW1 3226   3.275   2.092   7.945
  443SOL    HW2 3227   3.333   2.182   8.052
  444SOL     OW 3228   2.878  14.790   2.696
  444SOL    HW1 3229   2.900  14.700   2.718
  444SOL    HW2 3230   2.795  14.785   2.649
  445SOL     OW 3231  10.778  13.225   9.170
  445SOL    HW1 3232  10.802  13.280   9.095
  445SOL    HW2 3233  10.695  13.262   9.201
  446SOL     OW 3234  14.316   3.822   7.090
  446SOL    HW1 3235  14.248   3.759   7.066
  446SOL    HW2 3236  14.352   3.852   7.006
  447SOL     OW 3237  10.421  10.832   4.128
  447SOL    HW1 3238  10.450  10.839   4.037
  447SOL    HW2 3239  10.455  10.911   4.170
  448SOL     OW 3240   5.202   3.309   5.415
  448SOL    HW1 3241   5.109   3.326   5.432
  448SOL    HW2 3242   5.248   3.361   5.481
  449SOL     OW 3243   2.841  12.901  13.344
  449SOL    HW1 3244   2.822  12.947  13.426
  449SOL    HW2 3245   2.858  12.971  13.281
  450SOL     OW 3246   8.251   5.148   9.365
  450SOL    HW1 3247   8.199   5.226   9.386
  450SOL    HW2 3248   8.188   5.084   9.334
  451SOL     OW 3249   3.199   2.955  11.640
  451SOL    HW1 3250   3.276   2.899  11.654
  451SOL    HW2 3251   3.183   2.949  11.546
  452SOL     OW 3252   4.685   4.949  14.567
  452SOL    HW1 3253   4.643   4.939  14.482
  452SOL    HW2 3254   4.612   4.959  14.629
  453SOL     OW 3255   7.368   5.729  14.460
  453SOL    HW1 3256   7.329   5.644  14.479
  453SOL    HW2 3257   7.306   5.793  14.494
  454SOL     OW 3258  12.426   0.400  14.258
  454SOL    HW1 3259  12.452   0.378  14.348
  454SOL    HW2 3260  12.332   0.415  14.264
  455SOL     OW 3261  12.755   8.952   5.152
  455SOL    HW1 3262  12.802   9.029   5.184
  455SOL    HW2 3263  12.776   8.883   5.215
  456SOL     OW 3264   1.793  13.014   1.872
  456SOL    HW1 3265   1.720  12.961   1.905
  456SOL    HW2 3266   1.764  13.104   1.884
  457SOL     OW 3267   7.680  13.731   3.556
  457SOL    HW1 3268   7.738  13.796   3.594
  457SOL    HW2 3269   7.732  13.651   3.551
  458SOL     OW 3270  14.009  12.602  12.223
  458SOL    HW1 3271  14.089  12.551  12.208
  458SOL    HW2 3272  14.030  12.658  12.298
  459SOL     OW 3273   0.983   0.757  14.531
  459SOL    HW1 3274   1.007   0.744  14.439
  459SOL    HW2 3275   0.995   0.851  14.545
  460SOL     OW 3276   4.725  11.866   7.090
  460SOL    HW1 3277   4.750  11.841   7.180
  460SOL    HW2 3278   4.801  11.844   7.037
  461SOL     OW 3279  10.816  13.310   0.104
  461SOL    HW1 3280  10.886  13.275   0.048
  461SOL    HW2 3281  10.861  13.370   0.164
  462SOL     OW 3282   1.811   6.817   7.732
  462SOL    HW1 3283   1.730   6.801   7.682
  462SOL    HW2 3284   1.881   6.784   7.675
  463SOL     OW 3285   2.954   0.925  13.833
  463SOL    HW1 3286   3.017   0.967  13.775
  463SOL    HW2 3287   3.008   0.871  13.892
  464SOL     OW 3288  10.913   1.513   8.548
  464SOL    HW1 3289  10.817   1.515   8.545
  464SOL    HW2 3290  10.935   1.426   8.580
  465SOL     OW 3291  14.556   6.332  12.976
  465SOL    HW1 3292  14.632   6.276  12.995
  465SOL    HW2 3293  14.496   6.315  13.048
  466SOL     OW 3294   1.184   4.883   2.073
  466SOL    HW1 3295   1.231   4.801   2.087
  466SOL    HW2 3296   1.092   4.861   2.088
  467SOL     OW 3297  13.511   5.864   4.560
  467SOL    HW1 3298  13.557   5.925   4.502
  467SOL    HW2 3299  13.453   5.920   4.612
  468SOL     OW 3300  10.221   9.722  10.642
  468SOL    HW1 3301  10.284   9.697  10.575
  468SOL    HW2 3302  10.236   9.816  10.655
  469SOL     OW 3303   1.039   4.553   5.278
  469SOL    HW1 3304   1.090   4.481   5.239
  469SOL    HW2 3305   1.083   4.571   5.362
  470SOL     OW 3306   4.458   3.358  14.834
  470SOL    HW1 3307   4.437   3.282  14.780
  470SOL    HW2 3308   4.516   3.323   0.032
  471SOL     OW 3309   4.881   7.914   9.757
  471SOL    HW1 3310   4.899   7.949   9.670
  471SOL    HW2 3311   4.914   7.981   9.817
  472SOL     OW 3312  13.092   0.673   4.198
  472SOL    HW1 3313  13.070   0.623   4.120
  472SOL    HW2 3314  13.014   0.667   4.253
  473SOL     OW 3315   5.683   2.680  12.176
  473SOL    HW1 3316   5.709   2.647  12.262
  473SOL    HW2 3317   5.651   2.768  12.193
  474SOL     OW 3318   3.413   8.952   5.090
  474SOL    HW1 3319   3.327   8.930   5.053
  474SOL    HW2 3320   3.475   8.911   5.031
  475SOL     OW 3321  13.191   1.442  14.114
  475SOL    HW1 3322  13.149   1.524  14.139
  475SOL    HW2 3323  13.250   1.466  14.042
  476SOL     OW 3324   4.905   0.305   0.884
  476SOL    HW1 3325   4.819   0.271   0.909
  476SOL    HW2 3326   4.947   0.330   0.966
  477SOL     OW 3327   8.698   5.503   5.628
  477SOL    HW1 3328   8.725   5.590   5.657
  477SOL    HW2 3329   8.678   5.456   5.709
  478SOL     OW 3330  10.841   6.772   3.462
  478SOL    HW1 3331  10.844   6.864   3.488
  478SOL    HW2 3332  10.932   6.744   3.460
  479SOL     OW 3333   8.430  10.611  14.530
  479SOL    HW1 3334   8.473  10.540  14.482
  479SOL    HW2 3335   8.422  10.682  14.466
  480SOL     OW 3336   0.105   6.139   0.961
  480SOL    HW1 3337   0.175   6.200   0.939
  480SOL    HW2 3338   0.028   6.174   0.915
  481SOL     OW 3339  14.104   6.706   8.896
  481SOL    HW1 3340  14.189   6.733   8.932
  481SOL    HW2 3341  14.103   6.740   8.807
  482SOL     OW 3342  12.885   1.567   0.992
  482SOL    HW1 3343  12.872   1.522   1.076
  482SOL    HW2 3344  12.857   1.657   1.009
  483SOL     OW 3345   0.427  12.001   4.439
  483SOL    HW1 3346   0.499  12.047   4.482
  483SOL    HW2 3347   0.435  11.911   4.470
  484SOL     OW 3348   8.384   6.426   0.370
  484SOL    HW1 3349   8.415   6.466   0.451
  484SOL    HW2 3350   8.359   6.337   0.395
  485SOL     OW 3351   4.721  10.875   3.763
  485SOL    HW1 3352   4.694  10.816   3.692
  485SOL    HW2 3353   4.723  10.962   3.723
  486SOL     OW 3354  11.164   4.876  13.619
  486SOL    HW1 3355  11.197   4.796  13.577
  486SOL    HW2 3356  11.234   4.940  13.604
  487SOL     OW 3357  11.565  13.854   5.467
  487SOL    HW1 3358  11.540  13.898   5.386
  487SOL    HW2 3359  11.574  13.925   5.531
  488SOL     OW 3360  10.978  13.810   5.025
  488SOL    HW1 3361  11.054  13.857   5.060
  488SOL    HW2 3362  10.997  13.718   5.043
  489SOL     OW 3363   1.164   7.909   2.245
  489SOL    HW1 3364   1.189   7.911   2.152
  489SOL    HW2 3365   1.242   7.877   2.290
  490SOL     OW 3366   2.784  13.545   8.463
  490SOL    HW1 3367   2.797  13.633   8.430
  490SOL    HW2 3368   2.771  13.556   8.558
  491SOL     OW 3369   6.547   1.188  13.998
  491SOL    HW1 3370   6.537   1.254  13.929
  491SOL    HW2 3371   6.638   1.159  13.991
  492SOL     OW 3372   9.914   6.850  13.116
  492SOL    HW1 3373   9.960   6.810  13.043
  492SOL    HW2 3374   9.941   6.942  13.113
  493SOL     OW 3375   3.229   4.396   1.261
  493SOL    HW1 3376   3.275   4.325   1.215
  493SOL    HW2 3377   3.272   4.399   1.347
  494SOL     OW 3378  11.477   0.451  14.134
  494SOL    HW1 3379  11.405   0.502  14.170
  494SOL    HW2 3380  11.476   0.369  14.183
  495SOL     OW 3381   2.073   0.425  12.585
  495SOL    HW1 3382   2.100   0.400  12.674
  495SOL    HW2 3383   1.979   0.438  12.591
  496SOL     OW 3384  13.325   7.477  14.576
  496SOL    HW1 3385  13.263   7.493  14.647
  496SOL    HW2 3386  13.347   7.564  14.544
  497SOL     OW 3387   2.777   6.565   1.070
  497SOL    HW1 3388   2.691   6.557   1.030
  497SOL    HW2 3389   2.837   6.577   0.996
  498SOL     OW 3390   4.839   0.954  10.678
  498SOL    HW1 3391   4.788   1.035  10.681
  498SOL    HW2 3392   4.833   0.919  10.767
  499SOL     OW 3393   5.257   2.533   0.271
  499SOL    HW1 3394   5.268   2.560   0.362
  499SOL    HW2 3395   5.208   2.604   0.230
  500SOL     OW 3396   8.877   4.058  13.681
  500SOL    HW1 3397   8.895   4.016  13.597
  500SOL    HW2 3398   8.934   4.135  13.682
  501SOL     OW 3399   4.475  11.648  10.789
  501SOL    HW1 3400   4.457  11.598  10.869
  501SOL    HW2 3401   4.554  11.607  10.753
  502SOL     OW 3402  11.604   1.350   7.408
  502SOL    HW1 3403  11.669   1.365   7.476
  502SOL    HW2 3404  11.572   1.261   7.424
  503SOL     OW 3405  13.576   0.622   1.200
  503SOL    HW1 3406  13.498   0.656   1.243
  503SOL    HW2 3407  13.543   0.568   1.129
  504SOL     OW 3408  10.782   6.943   0.139
  504SOL    HW1 3409  10.763   6.904   0.225
  504SOL    HW2 3410  10.696   6.963   0.102
  505SOL     OW 3411   5.689   8.637   7.181
  505SOL    HW1 3412   5.615   8.593   7.224
  505SOL    HW2 3413   5.709   8.710   7.238
  506SOL     OW 3414  10.427   3.398  14.340
  506SOL    HW1 3415  10.371   3.410  14.264
  506SOL    HW2 3416  10.367   3.377  14.412
  507SOL     OW 3417   4.565   3.789   2.012
  507SOL    HW1 3418   4.615   3.850   2.066
  507SOL    HW2 3419   4.616   3.708   2.013
  508SOL     OW 3420  12.040  13.233  10.266
  508SOL    HW1 3421  11.990  13.154  10.242
  508SOL    HW2 3422  12.059  13.222  10.359
  509SOL     OW 3423   9.145   6.927   7.544
  509SOL    HW1 3424   9.081   6.997   7.527
  509SOL    HW2 3425   9.131   6.905   7.636
  510SOL     OW 3426   4.401   8.460  14.360
  510SOL    HW1 3427   4.416   8.415  14.277
  510SOL    HW2 3428   4.474   8.433  14.415
  511SOL     OW 3429   8.264   1.720   4.216
  511SOL    HW1 3430   8.237   1.758   4.133
  511SOL    HW2 3431   8.183   1.706   4.264
  512SOL     OW 3432  11.107  13.644   8.695
  512SOL    HW1 3433  11.117  13.639   8.600
  512SOL    HW2 3434  11.075  13.557   8.720
  513SOL     OW 3435   8.730   1.722   3.872
  513SOL    HW1 3436   8.673   1.795   3.897
  513SOL    HW2 3437   8.798   1.721   3.940
  514SOL     OW 3438   2.911   3.320   2.561
  514SOL    HW1 3439   2.995   3.305   2.603
  514SOL    HW2 3440   2.862   3.373   2.624
  515SOL     OW 3441  11.334   1.584   9.485
  515SOL    HW1 3442  11.312   1.514   9.423
  515SOL    HW2 3443  11.319   1.665   9.436
  516SOL     OW 3444  10.727  13.679  10.266
  516SOL    HW1 3445  10.653  13.660  10.325
  516SOL    HW2 3446  10.787  13.732  10.320
  517SOL     OW 3447  11.468  12.572  14.314
  517SOL    HW1 3448  11.545  12.627  14.306
  517SOL    HW2 3449  11.487  12.514  14.388
  518SOL     OW 3450   4.773   6.333  11.042
  518SOL    HW1 3451   4.826   6.302  11.115
  518SOL    HW2 3452   4.825   6.403  11.003
  519SOL     OW 3453   2.392  14.401   5.015
  519SOL    HW1 3454   2.458  14.336   5.041
  519SOL    HW2 3455   2.429  14.443   4.938
  520SOL     OW 3456  12.006   4.467  10.963
  520SOL    HW1 3457  11.977   4.405  10.896
  520SOL    HW2 3458  12.033   4.412  11.037
  521SOL     OW 3459  13.447   9.293  14.086
  521SOL    HW1 3460  13.391   9.343  14.146
  521SOL    HW2 3461  13.389   9.228  14.048
  522SOL     OW 3462  13.913   9.263   4.717
  522SOL    HW1 3463  13.852   9.276   4.644
  522SOL    HW2 3464  13.871   9.196   4.770
  523SOL     OW 3465   6.768   1.979   3.026
  523SOL    HW1 3466   6.824   1.902   3.026
  523SOL    HW2 3467   6.794   2.027   2.946
  524SOL     OW 3468   7.634   2.963   2.987
  524SOL    HW1 3469   7.656   3.030   3.052
  524SOL    HW2 3470   7.577   3.008   2.925
  525SOL     OW 3471  11.422   2.280  12.388
  525SOL    HW1 3472  11.480   2.336  12.336
  525SOL    HW2 3473  11.394   2.336  12.461
  526SOL     OW 3474   7.452   6.101  11.607
  526SOL    HW1 3475   7.451   6.141  11.694
  526SOL    HW2 3476   7.517   6.031  11.614
  527SOL     OW 3477  12.999   5.107   0.327
  527SOL    HW1 3478  13.009   5.030   0.271
  527SOL    HW2 3479  13.052   5.175   0.285
  528SOL     OW 3480   0.303   7.607   2.527
  528SOL    HW1 3481   0.356   7.616   2.448
  528SOL    HW2 3482   0.280   7.515   2.531
  529SOL     OW 3483   9.154   6.616   7.228
  529SOL    HW1 3484   9.177   6.603   7.136
  529SOL    HW2 3485   9.088   6.686   7.228
  530SOL     OW 3486   2.528  14.231   5.717
  530SOL    HW1 3487   2.556  14.278   5.795
  530SOL    HW2 3488   2.451  14.279   5.686
  531SOL     OW 3489   6.158   5.171  12.027
  531SOL    HW1 3490   6.100   5.122  12.086
  531SOL    HW2 3491   6.195   5.104  11.970
  532SOL     OW 3492   4.221   9.295   6.555
  532SOL    HW1 3493   4.235   9.339   6.471
  532SOL    HW2 3494   4.176   9.214   6.532
  533SOL     OW 3495   4.832   5.237   1.343
  533SOL    HW1 3496   4.768   5.180   1.386
  533SOL    HW2 3497   4.875   5.284   1.415
  534SOL     OW 3498   3.900  13.216   6.193
  534SOL    HW1 3499   3.807  13.215   6.218
  534SOL    HW2 3500   3.921  13.309   6.183
  535SOL     OW 3501  13.397   1.960  13.259
  535SOL    HW1 3502  13.326   1.923  13.207
  535SOL    HW2 3503  13.409   2.048  13.224
  536SOL     OW 3504  13.451  12.846   8.706
  536SOL    HW1 3505  13.489  12.881   8.625
  536SOL    HW2 3506  13.447  12.751   8.691
  537SOL     OW 3507   9.978  11.637  13.826
  537SOL    HW1 3508   9.926  11.592  13.892
  537SOL    HW2 3509   9.992  11.725  13.861
  538SOL     OW 3510  14.343  10.882   1.378
  538SOL    HW1 3511  14.344  10.969   1.420
  538SOL    HW2 3512  14.400  10.892   1.302
  539SOL     OW 3513  13.630   9.336   5.426
  539SOL    HW1 3514  13.649   9.349   5.333
  539SOL    HW2 3515  13.658   9.417   5.468
  540SOL     OW 3516   4.214   1.341   4.881
  540SOL    HW1 3517   4.133   1.376   4.918
  540SOL    HW2 3518   4.260   1.304   4.957
  541SOL     OW 3519  11.221   1.361   5.675
  541SOL    HW1 3520  11.178   1.443   5.651
  541SOL    HW2 3521  11.161   1.293   5.645
  542SOL     OW 3522  10.183  11.041  12.126
  542SOL    HW1 3523  10.180  11.037  12.221
  542SOL    HW2 3524  10.092  11.060  12.100
  543SOL     OW 3525   1.359  11.610  13.631
  543SOL    HW1 3526   1.414  11.639  13.704
  543SOL    HW2 3527   1.372  11.516  13.627
  544SOL     OW 3528  10.879  13.830   9.622
  544SOL    HW1 3529  10.785  13.832   9.605
  544SOL    HW2 3530  10.919  13.841   9.535
  545SOL     OW 3531   4.573   2.334   7.796
  545SOL    HW1 3532   4.511   2.262   7.794
  545SOL    HW2 3533   4.654   2.297   7.762
  546SOL     OW 3534   3.270  10.099   4.457
  546SOL    HW1 3535   3.180  10.073   4.439
  546SOL    HW2 3536   3.303  10.030   4.515
  547SOL     OW 3537   9.252   6.576   7.600
  547SOL    HW1 3538   9.299   6.630   7.664
  547SOL    HW2 3539   9.258   6.625   7.518
  548SOL     OW 3540   0.109   9.759   8.715
  548SOL    HW1 3541   0.154   9.729   8.636
  548SOL    HW2 3542   0.074   9.679   8.755
  549SOL     OW 3543   3.869   2.758  11.146
  549SOL    HW1 3544   3.806   2.803  11.089
  549SOL    HW2 3545   3.946   2.815  11.146
  550SOL     OW 3546   7.560   5.517   6.608
  550SOL    HW1 3547   7.617   5.440   6.608
  550SOL    HW2 3548   7.557   5.544   6.516
  551SOL     OW 3549  13.597  13.652   4.997
  551SOL    HW1 3550  13.511  13.611   5.008
  551SOL    HW2 3551  13.626  13.622   4.911
  552SOL     OW 3552   2.952  12.000  14.164
  552SOL    HW1 3553   3.002  12.007  14.246
  552SOL    HW2 3554   3.016  11.970  14.099
  553SOL     OW 3555  10.745   4.369  13.905
  553SOL    HW1 3556  10.769   4.458  13.928
  553SOL    HW2 3557  10.827   4.328  13.878
  554SOL     OW 3558   8.297   0.551   2.439
  554SOL    HW1 3559   8.201   0.547   2.432
  554SOL    HW2 3560   8.315   0.525   2.530
  555SOL     OW 3561   3.629   8.565   7.314
  555SOL    HW1 3562   3.556   8.577   7.253
  555SOL    HW2 3563   3.592   8.511   7.385
  556SOL     OW 3564   7.720  14.097   8.128
  556SOL    HW1 3565   7.728  14.050   8.211
  556SOL    HW2 3566   7.802  14.080   8.082
  557SOL     OW 3567   2.438  14.818   2.763
  557SOL    HW1 3568   2.390  14.844   2.841
  557SOL    HW2 3569   2.464   0.030   2.722
  558SOL     OW 3570   7.295   1.337   8.864
  558SOL    HW1 3571   7.232   1.392   8.818
  558SOL    HW2 3572   7.350   1.399   8.913
  559SOL     OW 3573   5.847   4.236   4.059
  559SOL    HW1 3574   5.837   4.295   4.133
  559SOL    HW2 3575   5.827   4.149   4.093
  560SOL     OW 3576   5.191  12.930  11.690
  560SOL    HW1 3577   5.239  12.856  11.654
  560SOL    HW2 3578   5.259  12.992  11.716
  561SOL     OW 3579   6.912   4.576  13.736
  561SOL    HW1 3580   6.920   4.549  13.827
  561SOL    HW2 3581   6.896   4.670  13.740
  562SOL     OW 3582   2.903  13.515   8.071
  562SOL    HW1 3583   2.950  13.493   7.990
  562SOL    HW2 3584   2.811  13.499   8.050
  563SOL     OW 3585   4.068  12.583   1.546
  563SOL    HW1 3586   4.024  12.544   1.622
  563SOL    HW2 3587   4.147  12.623   1.583
  564SOL     OW 3588  13.382   4.019  12.235
  564SOL    HW1 3589  13.314   4.011  12.302
  564SOL    HW2 3590  13.352   3.964  12.163
  565SOL     OW 3591   2.887   9.625   8.076
  565SOL    HW1 3592   2.929   9.539   8.076
  565SOL    HW2 3593   2.885   9.651   7.984
  566SOL     OW 3594   9.887   8.396   2.632
  566SOL    HW1 3595   9.904   8.436   2.717
  566SOL    HW2 3596   9.840   8.315   2.653
  567SOL     OW 3597   5.858   7.198   8.759
  567SOL    HW1 3598   5.811   7.116   8.746
  567SOL    HW2 3599   5.903   7.213   8.676
  568SOL     OW 3600  12.458   4.410   0.854
  568SOL    HW1 3601  12.548   4.434   0.875
  568SOL    HW2 3602  12.436   4.342   0.917
  569SOL     OW 3603   6.156  12.803  12.211
  569SOL    HW1 3604   6.191  12.777  12.296
  569SOL    HW2 3605   6.161  12.724  12.157
  570SOL     OW 3606   5.132  11.960   2.170
  570SOL    HW1 3607   5.196  12.022   2.205
  570SOL    HW2 3608   5.164  11.874   2.197
  571SOL     OW 3609  13.471  13.524   7.518
  571SOL    HW1 3610  13.389  13.477   7.530
  571SOL    HW2 3611  13.521  13.470   7.456
  572SOL     OW 3612  10.707   8.807   2.759
  572SOL    HW1 3613  10.693   8.758   2.840
  572SOL    HW2 3614  10.641   8.773   2.698
  573SOL     OW 3615   7.575   5.657   4.424
  573SOL    HW1 3616   7.539   5.692   4.506
  573SOL    HW2 3617   7.655   5.612   4.450
  574SOL     OW 3618   6.506  14.725  14.216
  574SOL    HW1 3619   6.582  14.755  14.167
  574SOL    HW2 3620   6.501  14.631  14.196
  575SOL     OW 3621   2.144  11.791   1.303
  575SOL    HW1 3622   2.103  11.736   1.236
  575SOL    HW2 3623   2.071  11.835   1.346
  576SOL     OW 3624   7.802   3.605  10.657
  576SOL    HW1 3625   7.773   3.690  10.627
  576SOL    HW2 3626   7.873   3.624  10.719
  577SOL     OW 3627   8.989   7.585   6.587
  577SOL    HW1 3628   8.973   7.497   6.622
  577SOL    HW2 3629   9.002   7.639   6.664
  578SOL     OW 3630  12.469   8.780   2.351
  578SOL    HW1 3631  12.444   8.698   2.309
  578SOL    HW2 3632  12.390   8.834   2.348
  579SOL     OW 3633  13.780   7.136   9.681
  579SOL    HW1 3634  13.747   7.093   9.760
  579SOL    HW2 3635  13.761   7.229   9.695
  580SOL     OW 3636   8.932   4.849  12.803
  580SOL    HW1 3637   8.938   4.849  12.707
  580SOL    HW2 3638   9.018   4.879  12.832
  581SOL     OW 3639  10.699   1.415  12.590
  581SOL    HW1 3640  10.677   1.500  12.627
  581SOL    HW2 3641  10.680   1.424  12.496
  582SOL     OW 3642  13.991  12.526   9.993
  582SOL    HW1 3643  14.073  12.575  10.001
  582SOL    HW2 3644  13.982  12.510   9.899
  583SOL     OW 3645   5.180   4.570   5.758
  583SOL    HW1 3646   5.203   4.660   5.734
  583SOL    HW2 3647   5.263   4.522   5.753
  584SOL     OW 3648   1.513  13.698   5.457
  584SOL    HW1 3649   1.600  13.734   5.438
  584SOL    HW2 3650   1.515  13.610   5.419
  585SOL     OW 3651  14.462   0.120  10.177
  585SOL    HW1 3652  14.544   0.089  10.140
  585SOL    HW2 3653  14.404   0.044  10.172
  586SOL     OW 3654   4.411  13.814  10.520
  586SOL    HW1 3655   4.443  13.870  10.591
  586SOL    HW2 3656   4.486  13.805  10.461
  587SOL     OW 3657   1.978   7.291   3.145
  587SOL    HW1 3658   2.023   7.375   3.144
  587SOL    HW2 3659   1.922   7.294   3.223
  588SOL     OW 3660   8.003   6.218   2.984
  588SOL    HW1 3661   8.037   6.130   2.968
  588SOL    HW2 3662   8.076   6.265   3.023
  589SOL     OW 3663   8.801  10.928   7.254
  589SOL    HW1 3664   8.730  10.916   7.190
  589SOL    HW2 3665   8.877  10.887   7.213
  590SOL     OW 3666   3.213   4.605   8.478
  590SOL    HW1 3667   3.251   4.553   8.408
  590SOL    HW2 3668   3.163   4.542   8.530
  591SOL     OW 3669   4.741   2.599   6.048
  591SOL    HW1 3670   4.789   2.544   5.985
  591SOL    HW2 3671   4.683   2.652   5.994
  592SOL     OW 3672   2.509   4.251  14.169
  592SOL    HW1 3673   2.537   4.229  14.258
  592SOL    HW2 3674   2.526   4.171  14.118
  593SOL     OW 3675   9.412  11.360  11.368
  593SOL    HW1 3676   9.372  11.437  11.407
  593SOL    HW2 3677   9.339  11.313  11.326
  594SOL     OW 3678  10.908   3.110  10.926
  594SOL    HW1 3679  10.874   3.076  10.843
  594SOL    HW2 3680  10.916   3.204  10.912
  595SOL     OW 3681   7.782   6.942   7.922
  595SOL    HW1 3682   7.804   7.015   7.864
  595SOL    HW2 3683   7.735   6.880   7.865
  596SOL     OW 3684   3.207   3.640   8.995
  596SOL    HW1 3685   3.138   3.701   8.967
  596SOL    HW2 3686   3.281   3.697   9.017
  597SOL     OW 3687   4.176   1.231   3.790
  597SOL    HW1 3688   4.117   1.212   3.863
  597SOL    HW2 3689   4.123   1.284   3.730
  598SOL     OW 3690  11.910  11.845  12.671
  598SOL    HW1 3691  11.889  11.805  12.588
  598SOL    HW2 3692  11.855  11.800  12.735
  599SOL     OW 3693   8.320  11.876  10.904
  599SOL    HW1 3694   8.391  11.874  10.839
  599SOL    HW2 3695   8.245  11.838  10.860
  600SOL     OW 3696   1.464   1.842   7.737
  600SOL    HW1 3697   1.476   1.936   7.751
  600SOL    HW2 3698   1.404   1.815   7.806
  601SOL     OW 3699   3.817   4.798   9.984
  601SOL    HW1 3700   3.910   4.776   9.987
  601SOL    HW2 3701   3.777   4.740  10.049
  602SOL     OW 3702  13.256  13.020   6.068
  602SOL    HW1 3703  13.294  12.955   6.008
  602SOL    HW2 3704  13.229  12.969   6.144
  603SOL     OW 3705   0.961   9.618  12.817
  603SOL    HW1 3706   0.889   9.627  12.753
  603SOL    HW2 3707   1.005   9.537  12.791
  604SOL     OW 3708  14.115  11.677   7.547
  604SOL    HW1 3709  14.089  11.763   7.581
  604SOL    HW2 3710  14.176  11.698   7.476
  605SOL     OW 3711   8.117   1.293   3.641
  605SOL    HW1 3712   8.039   1.318   3.692
  605SOL    HW2 3713   8.190   1.326   3.693
  606SOL     OW 3714   6.859   8.484  10.305
  606SOL    HW1 3715   6.935   8.426  10.314
  606SOL    HW2 3716   6.786   8.426  10.285
  607SOL     OW 3717  13.761   2.400  14.646
  607SOL    HW1 3718  13.845   2.444  14.633
  607SOL    HW2 3719  13.700   2.471  14.666
  608SOL     OW 3720   4.387  12.226   9.513
  608SOL    HW1 3721   4.476  12.228   9.477
  608SOL    HW2 3722   4.354  12.140   9.487
  609SOL     OW 3723   8.048  12.738   2.340
  609SOL    HW1 3724   8.042  12.811   2.402
  609SOL    HW2 3725   8.127  12.755   2.289
  610SOL     OW 3726  10.956   4.877   3.837
  610SOL    HW1 3727  10.921   4.864   3.749
  610SOL    HW2 3728  10.956   4.790   3.876
  611SOL     OW 3729   2.700   1.852   6.406
  611SOL    HW1 3730   2.605   1.844   6.409
  611SOL    HW2 3731   2.731   1.798   6.478
  612SOL     OW 3732  11.358   3.829   1.114
  612SOL    HW1 3733  11.445   3.868   1.124
  612SOL    HW2 3734  11.344   3.827   1.019
  613SOL     OW 3735  12.388  13.532   3.511
  613SOL    HW1 3736  12.409  13.486   3.430
  613SOL    HW2 3737  12.460  13.512   3.570
  614SOL     OW 3738  11.549   2.627   0.554
  614SOL    HW1 3739  11.625   2.591   0.599
  614SOL    HW2 3740  11.569   2.720   0.543
  615SOL     OW 3741   9.362  13.451  10.921
  615SOL    HW1 3742   9.397  13.374  10.876
  615SOL    HW2 3743   9.381  13.524  10.862
  616SOL     OW 3744  14.758   6.849   6.023
  616SOL    HW1 3745  14.739   6.928   5.972
  616SOL    HW2 3746  14.683   6.792   6.008
  617SOL     OW 3747   9.410  10.633  12.445
  617SOL    HW1 3748   9.443  10.686  12.373
  617SOL    HW2 3749   9.370  10.696  12.506
  618SOL     OW 3750   5.296  10.677   9.067
  618SOL    HW1 3751   5.264  10.739   9.002
  618SOL    HW2 3752   5.348  10.730   9.128
  619SOL     OW 3753   0.076   9.994   7.252
  619SOL    HW1 3754   0.073  10.048   7.174
  619SOL    HW2 3755   0.147   9.931   7.236
  620SOL     OW 3756   7.528  14.533  13.854
  620SOL    HW1 3757   7.600  14.518  13.916
  620SOL    HW2 3758   7.548  14.617  13.814
  621SOL     OW 3759   6.781   9.658   0.776
  621SOL    HW1 3760   6.829   9.617   0.848
  621SOL    HW2 3761   6.712   9.594   0.754
  622SOL     OW 3762   0.629  14.204  12.086
  622SOL    HW1 3763   0.569  14.222  12.014
  622SOL    HW2 3764   0.574  14.209  12.165
  623SOL     OW 3765   7.320   4.093   2.302
  623SOL    HW1 3766   7.394   4.034   2.316
  623SOL    HW2 3767   7.339   4.169   2.356
  624SOL     OW 3768   3.188   3.538   7.696
  624SOL    HW1 3769   3.173   3.511   7.606
  624SOL    HW2 3770   3.148   3.468   7.749
  625SOL     OW 3771   7.201  13.665   5.959
  625SOL    HW1 3772   7.119  13.674   6.008
  625SOL    HW2 3773   7.179  13.610   5.884
  626SOL     OW 3774  12.184   3.363  14.013
  626SOL    HW1 3775  12.122   3.397  13.949
  626SOL    HW2 3776  12.224   3.441  14.051
  627SOL     OW 3777  12.852  12.926   7.930
  627SOL    HW1 3778  12.829  12.965   7.846
  627SOL    HW2 3779  12.914  12.856   7.909
  628SOL     OW 3780  12.084   3.655   9.832
  628SOL    HW1 3781  12.053   3.727   9.777
  628SOL    HW2 3782  12.176   3.644   9.807
  629SOL     OW 3783  14.820   3.294  14.156
  629SOL    HW1 3784  14.837   3.200  14.149
  629SOL    HW2 3785   0.034   3.335  14.134
  630SOL     OW 3786   1.284  14.395   0.255
  630SOL    HW1 3787   1.350  14.356   0.197
  630SOL    HW2 3788   1.324  14.476   0.285
  631SOL     OW 3789  11.487  13.932   5.212
  631SOL    HW1 3790  11.395  13.904   5.213
  631SOL    HW2 3791  11.500  13.968   5.124
  632SOL     OW 3792  10.763   5.291  14.860
  632SOL    HW1 3793  10.727   5.379   0.001
  632SOL    HW2 3794  10.686   5.235  14.847
  633SOL     OW 3795   0.696  11.523  11.718
  633SOL    HW1 3796   0.655  11.588  11.661
  633SOL    HW2 3797   0.699  11.443  11.665
  634SOL     OW 3798   5.478  10.262   3.992
  634SOL    HW1 3799   5.481  10.354   4.019
  634SOL    HW2 3800   5.490  10.212   4.073
  635SOL     OW 3801   3.339   6.419  13.338
  635SOL    HW1 3802   3.431   6.426  13.310
  635SOL    HW2 3803   3.289   6.411  13.257
  636SOL     OW 3804   8.799   1.340   5.917
  636SOL    HW1 3805   8.789   1.254   5.958
  636SOL    HW2 3806   8.746   1.335   5.838
  637SOL     OW 3807  10.734   3.869  10.700
  637SOL    HW1 3808  10.747   3.942  10.640
  637SOL    HW2 3809  10.690   3.908  10.776
  638SOL     OW 3810  14.864   7.887  13.898
  638SOL    HW1 3811  14.800   7.957  13.882
  638SOL    HW2 3812   0.038   7.911  13.979
  639SOL     OW 3813   3.404  10.739   6.012
  639SOL    HW1 3814   3.347  10.797   5.960
  639SOL    HW2 3815   3.435  10.674   5.950
  640SOL     OW 3816   2.092   0.966   6.241
  640SOL    HW1 3817   2.161   0.901   6.256
  640SOL    HW2 3818   2.100   0.988   6.148
  641SOL     OW 3819   5.376  10.024  13.365
  641SOL    HW1 3820   5.433   9.982  13.300
  641SOL    HW2 3821   5.292  10.035  13.320
  642SOL     OW 3822   3.756   7.079   0.874
  642SOL    HW1 3823   3.827   7.094   0.811
  642SOL    HW2 3824   3.689   7.142   0.851
  643SOL     OW 3825   8.237  13.282   9.976
  643SOL    HW1 3826   8.256  13.249   9.889
  643SOL    HW2 3827   8.247  13.206  10.034
  644SOL     OW 3828  10.853   9.894   6.925
  644SOL    HW1 3829  10.932   9.931   6.884
  644SOL    HW2 3830  10.884   9.862   7.009
  645SOL     OW 3831   9.876  14.664   8.270
  645SOL    HW1 3832   9.891  14.569   8.272
  645SOL    HW2 3833   9.810  14.679   8.338
  646SOL     OW 3834   6.059   8.808   0.275
  646SOL    HW1 3835   6.021   8.756   0.204
  646SOL    HW2 3836   6.124   8.750   0.315
  647SOL     OW 3837   7.277   0.141  14.312
  647SOL    HW1 3838   7.228   0.059  14.320
  647SOL    HW2 3839   7.227   0.192  14.248
  648SOL     OW 3840  11.898   1.668   3.215
  648SOL    HW1 3841  11.859   1.600   3.160
  648SOL    HW2 3842  11.867   1.750   3.177
  649SOL     OW 3843  13.386  14.318   7.370
  649SOL    HW1 3844  13.349  14.241   7.413
  649SOL    HW2 3845  13.481  14.302   7.371
  650SOL     OW 3846  13.686   0.315   7.627
  650SOL    HW1 3847  13.765   0.339   7.578
  650SOL    HW2 3848  13.659   0.395   7.671
  651SOL     OW 3849  13.850   9.414   0.708
  651SOL    HW1 3850  13.832   9.490   0.762
  651SOL    HW2 3851  13.769   9.401   0.657
  652SOL     OW 3852  11.987  13.617   4.744
  652SOL    HW1 3853  11.996  13.708   4.718
  652SOL    HW2 3854  12.066  13.575   4.711
  653SOL     OW 3855  10.066  11.932  12.155
  653SOL    HW1 3856  10.124  11.914  12.081
  653SOL    HW2 3857  10.121  11.983  12.216
  654SOL     OW 3858   8.649  12.841   3.729
  654SOL    HW1 3859   8.657  12.928   3.690
  654SOL    HW2 3860   8.613  12.786   3.659
  655SOL     OW 3861  14.082  11.132  13.666
  655SOL    HW1 3862  13.996  11.174  13.668
  655SOL    HW2 3863  14.100  11.109  13.758
  656SOL     OW 3864   3.158   6.410   9.702
  656SOL    HW1 3865   3.129   6.386   9.790
  656SOL    HW2 3866   3.178   6.326   9.660
  657SOL     OW 3867   4.339   8.948   4.132
  657SOL    HW1 3868   4.401   8.878   4.113
  657SOL    HW2 3869   4.377   9.025   4.090
  658SOL     OW 3870   1.208   6.600  14.332
  658SOL    HW1 3871   1.141   6.556  14.280
  658SOL    HW2 3872   1.213   6.548  14.412
  659SOL     OW 3873   5.492   0.807  10.238
  659SOL    HW1 3874   5.499   0.853  10.321
  659SOL    HW2 3875   5.423   0.853  10.190
  660SOL     OW 3876   9.478  14.134  13.632
  660SOL    HW1 3877   9.541  14.071  13.667
  660SOL    HW2 3878   9.501  14.217  13.675
  661SOL     OW 3879   0.938   9.021  14.594
  661SOL    HW1 3880   0.859   8.967  14.589
  661SOL    HW2 3881   1.011   8.960  14.591
  662SOL     OW 3882   2.256   8.339   1.042
  662SOL    HW1 3883   2.227   8.285   0.968
  662SOL    HW2 3884   2.267   8.427   1.005
  663SOL     OW 3885  12.800  11.872   2.477
  663SOL    HW1 3886  12.871  11.813   2.503
  663SOL    HW2 3887  12.750  11.821   2.412
  664SOL     OW 3888   2.002   5.150  12.680
  664SOL    HW1 3889   1.970   5.157  12.591
  664SOL    HW2 3890   2.033   5.238  12.702
  665SOL     OW 3891  14.620   0.314   7.191
  665SOL    HW1 3892  14.659   0.361   7.264
  665SOL    HW2 3893  14.548   0.264   7.230
  666SOL     OW 3894   6.499   7.331   2.301
  666SOL    HW1 3895   6.489   7.250   2.352
  666SOL    HW2 3896   6.484   7.304   2.211
  667SOL     OW 3897   2.053   8.394   9.932
  667SOL    HW1 3898   1.958   8.408   9.931
  667SOL    HW2 3899   2.087   8.462   9.990
  668SOL     OW 3900  13.810  10.636  10.922
  668SOL    HW1 3901  13.814  10.564  10.858
  668SOL    HW2 3902  13.900  10.670  10.925
  669SOL     OW 3903   3.787   1.669   8.127
  669SOL    HW1 3904   3.798   1.664   8.222
  669SOL    HW2 3905   3.768   1.762   8.111
  670SOL     OW 3906   1.695   4.426   6.740
  670SOL    HW1 3907   1.622   4.400   6.797
  670SOL    HW2 3908   1.705   4.352   6.680
  671SOL     OW 3909  14.811   4.096   8.466
  671SOL    HW1 3910  14.746   4.149   8.513
  671SOL    HW2 3911  14.836   4.151   8.392
  672SOL     OW 3912  13.078   5.230   0.056
  672SOL    HW1 3913  13.002   5.287   0.046
  672SOL    HW2 3914  13.050   5.145   0.020
  673SOL     OW 3915   8.057   2.085   6.913
  673SOL    HW1 3916   8.141   2.104   6.953
  673SOL    HW2 3917   8.068   2.106   6.820
  674SOL     OW 3918   2.193   3.512  13.037
  674SOL    HW1 3919   2.102   3.488  13.019
  674SOL    HW2 3920   2.215   3.578  12.971
  675SOL     OW 3921  11.488  14.531   3.407
  675SOL    HW1 3922  11.430  14.505   3.336
  675SOL    HW2 3923  11.576  14.512   3.374
  676SOL     OW 3924   6.647   7.357   2.860
  676SOL    HW1 3925   6.674   7.410   2.785
  676SOL    HW2 3926   6.725   7.306   2.883
  677SOL     OW 3927  12.125  13.054  12.361
  677SOL    HW1 3928  12.053  13.010  12.317
  677SOL    HW2 3929  12.101  13.146  12.361
  678SOL     OW 3930  11.045  14.828   6.195
  678SOL    HW1 3931  11.005  14.817   6.109
  678SOL    HW2 3932  11.114  14.763   6.199
  679SOL     OW 3933   6.066   4.264   7.273
  679SOL    HW1 3934   6.109   4.309   7.200
  679SOL    HW2 3935   6.001   4.208   7.231
  680SOL     OW 3936  13.189   0.679   7.626
  680SOL    HW1 3937  13.227   0.743   7.686
  680SOL    HW2 3938  13.249   0.677   7.552
  681SOL     OW 3939   2.383  10.832   2.849
  681SOL    HW1 3940   2.290  10.852   2.838
  681SOL    HW2 3941   2.388  10.737   2.847
  682SOL     OW 3942  12.688  14.844   9.104
  682SOL    HW1 3943  12.724   0.061   9.085
  682SOL    HW2 3944  12.647  14.816   9.022
  683SOL     OW 3945  14.521   9.898   2.070
  683SOL    HW1 3946  14.479   9.814   2.088
  683SOL    HW2 3947  14.531   9.900   1.974
  684SOL     OW 3948   3.193   1.936  12.110
  684SOL    HW1 3949   3.108   1.949  12.153
  684SOL    HW2 3950   3.194   1.844  12.084
  685SOL     OW 3951  13.932  11.575  12.966
  685SOL    HW1 3952  13.963  11.581  13.056
  685SOL    HW2 3953  13.848  11.621  12.966
  686SOL     OW 3954   7.237  14.227   3.542
  686SOL    HW1 3955   7.259  14.142   3.580
  686SOL    HW2 3956   7.167  14.261   3.597
  687SOL     OW 3957  14.537   1.794   6.601
  687SOL    HW1 3958  14.498   1.872   6.641
  687SOL    HW2 3959  14.525   1.806   6.507
  688SOL     OW 3960   6.207   8.734  14.370
  688SOL    HW1 3961   6.303   8.739  14.376
  688SOL    HW2 3962   6.190   8.642  14.350
  689SOL     OW 3963   0.269   2.210   7.187
  689SOL    HW1 3964   0.209   2.154   7.236
  689SOL    HW2 3965   0.356   2.184   7.218
  690SOL     OW 3966  14.365   4.681   9.286
  690SOL    HW1 3967  14.336   4.609   9.230
  690SOL    HW2 3968  14.423   4.639   9.350
  691SOL     OW 3969   9.763   2.021  10.102
  691SOL    HW1 3970   9.825   2.075  10.053
  691SOL    HW2 3971   9.697   1.996  10.038
  692SOL     OW 3972   0.794   2.231  14.503
  692SOL    HW1 3973   0.887   2.247  14.485
  692SOL    HW2 3974   0.779   2.143  14.469
  693SOL     OW 3975  12.076   8.435   5.887
  693SOL    HW1 3976  12.097   8.521   5.850
  693SOL    HW2 3977  11.982   8.425   5.871
  694SOL     OW 3978  12.558   1.331   3.880
  694SOL    HW1 3979  12.613   1.352   3.804
  694SOL    HW2 3980  12.609   1.266   3.929
  695SOL     OW 3981   9.515   5.755  12.561
  695SOL    HW1 3982   9.502   5.781  12.653
  695SOL    HW2 3983   9.609   5.737  12.555
  696SOL     OW 3984   8.558   9.256   4.579
  696SOL    HW1 3985   8.478   9.275   4.529
  696SOL    HW2 3986   8.527   9.211   4.658
  697SOL     OW 3987   3.681   0.881   1.122
  697SOL    HW1 3988   3.731   0.940   1.065
  697SOL    HW2 3989   3.594   0.921   1.128
  698SOL     OW 3990   1.892   1.661  10.072
  698SOL    HW1 3991   1.833   1.723  10.030
  698SOL    HW2 3992   1.933   1.614   9.999
  699SOL     OW 3993   2.575   1.590  12.561
  699SOL    HW1 3994   2.591   1.680  12.588
  699SOL    HW2 3995   2.602   1.537  12.636
  700SOL     OW 3996   0.391   3.352   6.886
  700SOL    HW1 3997   0.379   3.276   6.830
  700SOL    HW2 3998   0.304   3.368   6.923
  701SOL     OW 3999  11.552  13.693   6.006
  701SOL    HW1 4000  11.486  13.689   6.075
  701SOL    HW2 4001  11.557  13.603   5.973
  702SOL     OW 4002  12.556  13.371  11.793
  702SOL    HW1 4003  12.464  13.397  11.795
  702SOL    HW2 4004  12.577  13.363  11.700
  703SOL     OW 4005   6.054  13.753  10.280
  703SOL    HW1 4006   6.077  13.662  10.302
  703SOL    HW2 4007   6.016  13.748  10.193
  704SOL     OW 4008   8.082  14.549   3.070
  704SOL    HW1 4009   8.109  14.523   3.158
  704SOL    HW2 4010   8.127  14.488   3.012
  705SOL     OW 4011   3.900   3.591   9.102
  705SOL    HW1 4012   3.811   3.603   9.135
  705SOL    HW2 4013   3.937   3.679   9.100
  706SOL     OW 4014  11.885   4.648   4.313
  706SOL    HW1 4015  11.829   4.726   4.303
  706SOL    HW2 4016  11.974   4.680   4.300
  707SOL     OW 4017   3.065  10.898   2.411
  707SOL    HW1 4018   3.073  10.866   2.501
  707SOL    HW2 4019   3.050  10.992   2.419
  708SOL     OW 4020   1.431  13.443  10.721
  708SOL    HW1 4021   1.417  13.459  10.628
  708SOL    HW2 4022   1.461  13.353  10.726
  709SOL     OW 4023  14.865   7.620  14.086
  709SOL    HW1 4024   0.082   7.627  14.046
  709SOL    HW2 4025   0.013   7.591  14.176
  710SOL     OW 4026  11.419  14.212  11.194
  710SOL    HW1 4027  11.495  14.268  11.178
  710SOL    HW2 4028  11.456  14.125  11.204
  711SOL     OW 4029   6.306   4.724   2.161
  711SOL    HW1 4030   6.229   4.729   2.218
  711SOL    HW2 4031   6.296   4.799   2.102
  712SOL     OW 4032  11.191   6.615   6.752
  712SOL    HW1 4033  11.193   6.686   6.688
  712SOL    HW2 4034  11.222   6.539   6.704
  713SOL     OW 4035  11.094   2.646   7.270
  713SOL    HW1 4036  11.153   2.713   7.302
  713SOL    HW2 4037  11.013   2.660   7.319
  714SOL     OW 4038   2.381   7.134   6.485
  714SOL    HW1 4039   2.410   7.080   6.411
  714SOL    HW2 4040   2.295   7.167   6.459
  715SOL     OW 4041   5.378   5.944   0.395
  715SOL    HW1 4042   5.290   5.939   0.432
  715SOL    HW2 4043   5.423   5.867   0.431
  716SOL     OW 4044  13.580  11.132   7.042
  716SOL    HW1 4045  13.621  11.047   7.059
  716SOL    HW2 4046  13.653  11.194   7.041
  717SOL     OW 4047   9.245   8.608  10.372
  717SOL    HW1 4048   9.282   8.553  10.303
  717SOL    HW2 4049   9.181   8.553  10.415
  718SOL     OW 4050   9.538   0.349   5.924
  718SOL    HW1 4051   9.451   0.388   5.912
  718SOL    HW2 4052   9.593   0.395   5.861
  719SOL     OW 4053   6.204   8.329   3.029
  719SOL    HW1 4054   6.227   8.409   2.984
  719SOL    HW2 4055   6.112   8.314   3.007
  720SOL     OW 4056   7.422  13.832   3.906
  720SOL    HW1 4057   7.426  13.885   3.986
  720SOL    HW2 4058   7.369  13.756   3.930
  721SOL     OW 4059   1.352   0.213   3.504
  721SOL    HW1 4060   1.423   0.269   3.473
  721SOL    HW2 4061   1.288   0.213   3.432
  722SOL     OW 4062   0.254   8.009   9.538
  722SOL    HW1 4063   0.201   8.051   9.606
  722SOL    HW2 4064   0.230   7.916   9.543
  723SOL     OW 4065   1.894   7.342   2.762
  723SOL    HW1 4066   1.941   7.410   2.714
  723SOL    HW2 4067   1.960   7.302   2.819
  724SOL     OW 4068  11.072  10.803   9.645
  724SOL    HW1 4069  11.068  10.898   9.633
  724SOL    HW2 4070  10.991  10.781   9.691
  725SOL     OW 4071  10.509  10.988   6.318
  725SOL    HW1 4072  10.571  11.000   6.246
  725SOL    HW2 4073  10.495  10.894   6.321
  726SOL     OW 4074   9.978   0.641   2.946
  726SOL    HW1 4075   9.977   0.731   2.980
  726SOL    HW2 4076  10.044   0.642   2.877
  727SOL     OW 4077  13.172   9.889  14.423
  727SOL    HW1 4078  13.170   9.896  14.327
  727SOL    HW2 4079  13.264   9.903  14.446
  728SOL     OW 4080   2.848   9.631  12.497
  728SOL    HW1 4081   2.771   9.685  12.512
  728SOL    HW2 4082   2.879   9.658  12.410
  729SOL     OW 4083   9.898   4.769  14.299
  729SOL    HW1 4084   9.919   4.726  14.216
  729SOL    HW2 4085   9.883   4.696  14.360
  730SOL     OW 4086   3.955   3.984   6.691
  730SOL    HW1 4087   3.986   4.043   6.622
  730SOL    HW2 4088   3.919   4.042   6.758
  731SOL     OW 4089   7.269   7.564   0.686
  731SOL    HW1 4090   7.261   7.483   0.636
  731SOL    HW2 4091   7.262   7.537   0.777
  732SOL     OW 4092   8.070   7.906  12.728
  732SOL    HW1 4093   8.081   8.000  12.716
  732SOL    HW2 4094   8.141   7.882  12.789
  733SOL     OW 4095  12.056   0.151  11.222
  733SOL    HW1 4096  12.096   0.216  11.279
  733SOL    HW2 4097  12.123   0.133  11.156
  734SOL     OW 4098   9.041  10.592  14.831
  734SOL    HW1 4099   9.086  10.587  14.747
  734SOL    HW2 4100   9.112  10.601   0.025
  735SOL     OW 4101   7.849   8.633   4.992
  735SOL    HW1 4102   7.837   8.549   5.037
  735SOL    HW2 4103   7.940   8.657   5.011
  736SOL     OW 4104  11.294  14.525   8.794
  736SOL    HW1 4105  11.224  14.577   8.754
  736SOL    HW2 4106  11.266  14.515   8.886
  737SOL     OW 4107   0.279   7.594   0.575
  737SOL    HW1 4108   0.338   7.598   0.500
  737SOL    HW2 4109   0.230   7.513   0.563
  738SOL     OW 4110   7.168   9.471   7.280
  738SOL    HW1 4111   7.235   9.421   7.326
  738SOL    HW2 4112   7.218   9.531   7.224
  739SOL     OW 4113   4.990   9.998  14.819
  739SOL    HW1 4114   4.998  10.072   0.009
  739SOL    HW2 4115   5.080   9.973  14.800
  740SOL     OW 4116  12.013  10.232  11.267
  740SOL    HW1 4117  12.025  10.146  11.308
  740SOL    HW2 4118  11.922  10.254  11.284
  741SOL     OW 4119   4.548  13.932  13.840
  741SOL    HW1 4120   4.600  13.901  13.914
  741SOL    HW2 4121   4.594  13.900  13.762
  742SOL     OW 4122   1.706  12.494   4.050
  742SOL    HW1 4123   1.649  12.532   4.116
  742SOL    HW2 4124   1.716  12.563   3.984
  743SOL     OW 4125  10.477  10.640   9.029
  743SOL    HW1 4126  10.426  10.709   9.072
  743SOL    HW2 4127  10.566  10.651   9.062
  744SOL     OW 4128  14.088   6.822  11.266
  744SOL    HW1 4129  14.158   6.846  11.326
  744SOL    HW2 4130  14.110   6.734  11.238
  745SOL     OW 4131  14.791   6.401   0.615
  745SOL    HW1 4132  14.734   6.335   0.574
  745SOL    HW2 4133  14.787   6.381   0.709
  746SOL     OW 4134   0.653  12.039  12.364
  746SOL    HW1 4135   0.693  12.125  12.378
  746SOL    HW2 4136   0.724  11.977  12.381
  747SOL     OW 4137   7.240  12.353   8.009
  747SOL    HW1 4138   7.235  12.289   8.079
  747SOL    HW2 4139   7.309  12.320   7.951
  748SOL     OW 4140   4.930  12.483  13.541
  748SOL    HW1 4141   4.886  12.567  13.523
  748SOL    HW2 4142   5.022  12.507  13.553
  749SOL     OW 4143  13.336   6.009   4.992
  749SOL    HW1 4144  13.298   6.058   5.065
  749SOL    HW2 4145  13.401   5.952   5.032
  750SOL     OW 4146  11.990   5.671   3.222
  750SOL    HW1 4147  11.987   5.693   3.315
  750SOL    HW2 4148  12.000   5.576   3.220
  751SOL     OW 4149   5.076  10.604  12.313
  751SOL    HW1 4150   5.028  10.566  12.386
  751SOL    HW2 4151   5.167  10.609  12.344
  752SOL     OW 4152   3.141  12.459  11.693
  752SOL    HW1 4153   3.157  12.373  11.653
  752SOL    HW2 4154   3.228  12.499  11.700
  753SOL     OW 4155   9.762   3.070  12.294
  753SOL    HW1 4156   9.723   3.088  12.209
  753SOL    HW2 4157   9.847   3.115  12.292
  754SOL     OW 4158  12.458   3.919   3.547
  754SOL    HW1 4159  12.395   3.883   3.609
  754SOL    HW2 4160  12.459   3.857   3.475
  755SOL     OW 4161  11.863   3.387   2.809
  755SOL    HW1 4162  11.855   3.476   2.843
  755SOL    HW2 4163  11.797   3.382   2.739
  756SOL     OW 4164   4.997  11.950   1.184
  756SOL    HW1 4165   5.056  11.901   1.126
  756SOL    HW2 4166   5.037  12.036   1.192
  757SOL     OW 4167   7.280   0.492   7.745
  757SOL    HW1 4168   7.253   0.433   7.815
  757SOL    HW2 4169   7.207   0.552   7.735
  758SOL     OW 4170  14.801   9.060   3.350
  758SOL    HW1 4171  14.828   8.973   3.323
  758SOL    HW2 4172  14.721   9.077   3.301
  759SOL     OW 4173   7.414   7.371   2.990
  759SOL    HW1 4174   7.470   7.343   3.062
  759SOL    HW2 4175   7.474   7.392   2.918
  760SOL     OW 4176   8.514   1.321  12.135
  760SOL    HW1 4177   8.593   1.270  12.116
  760SOL    HW2 4178   8.471   1.273  12.206
  761SOL     OW 4179   0.168   9.471   7.364
  761SOL    HW1 4180   0.226   9.546   7.375
  761SOL    HW2 4181   0.224   9.395   7.380
  762SOL     OW 4182   0.478   7.807  11.647
  762SOL    HW1 4183   0.486   7.711  11.645
  762SOL    HW2 4184   0.565   7.839  11.623
  763SOL     OW 4185   6.242   4.212   5.899
  763SOL    HW1 4186   6.156   4.252   5.901
  763SOL    HW2 4187   6.234   4.141   5.835
  764SOL     OW 4188  14.076  12.748   0.261
  764SOL    HW1 4189  14.146  12.753   0.195
  764SOL    HW2 4190  14.012  12.688   0.223
  765SOL     OW 4191  10.926  11.846   8.094
  765SOL    HW1 4192  11.008  11.796   8.092
  765SOL    HW2 4193  10.917  11.871   8.186
  766SOL     OW 4194   1.457   8.151   6.145
  766SOL    HW1 4195   1.382   8.174   6.200
  766SOL    HW2 4196   1.418   8.126   6.061
  767SOL     OW 4197   3.870   5.435   1.551
  767SOL    HW1 4198   3.866   5.511   1.609
  767SOL    HW2 4199   3.839   5.469   1.466
  768SOL     OW 4200   4.070   0.404   7.177
  768SOL    HW1 4201   4.165   0.406   7.172
  768SOL    HW2 4202   4.043   0.350   7.103
  769SOL     OW 4203   5.103   2.255   6.781
  769SOL    HW1 4204   5.161   2.188   6.817
  769SOL    HW2 4205   5.068   2.301   6.858
  770SOL     OW 4206  13.655   0.404  13.880
  770SOL    HW1 4207  13.575   0.373  13.838
  770SOL    HW2 4208  13.643   0.499  13.888
  771SOL     OW 4209   3.728   6.960  13.383
  771SOL    HW1 4210   3.750   6.872  13.353
  771SOL    HW2 4211   3.747   6.958  13.477
  772SOL     OW 4212   9.814   0.445   0.747
  772SOL    HW1 4213   9.735   0.475   0.792
  772SOL    HW2 4214   9.886   0.469   0.804
  773SOL     OW 4215  10.616  13.434  12.510
  773SOL    HW1 4216  10.551  13.368  12.533
  773SOL    HW2 4217  10.693  13.411  12.560
  774SOL     OW 4218   4.259   7.503  14.225
  774SOL    HW1 4219   4.175   7.477  14.262
  774SOL    HW2 4220   4.323   7.445  14.266
  775SOL     OW 4221   2.681   7.849   4.134
  775SOL    HW1 4222   2.658   7.758   4.114
  775SOL    HW2 4223   2.776   7.852   4.126
  776SOL     OW 4224  12.069  11.954   9.523
  776SOL    HW1 4225  11.983  11.933   9.560
  776SOL    HW2 4226  12.071  11.906   9.440
  777SOL     OW 4227   7.980  11.443   2.188
  777SOL    HW1 4228   7.934  11.526   2.198
  777SOL    HW2 4229   8.064  11.457   2.232
  778SOL     OW 4230   2.804  10.882  13.351
  778SOL    HW1 4231   2.870  10.941  13.386
  778SOL    HW2 4232   2.854  10.817  13.301
  779SOL     OW 4233   1.634   0.418  13.939
  779SOL    HW1 4234   1.605   0.354  13.874
  779SOL    HW2 4235   1.625   0.503  13.895
  780SOL     OW 4236  12.117  12.240   5.667
  780SOL    HW1 4237  12.188  12.176   5.657
  780SOL    HW2 4238  12.037  12.188   5.662
  781SOL     OW 4239  11.406   9.507   0.734
  781SOL    HW1 4240  11.467   9.537   0.803
  781SOL    HW2 4241  11.389   9.585   0.682
  782SOL     OW 4242   6.590   0.038   7.573
  782SOL    HW1 4243   6.609   0.132   7.572
  782SOL    HW2 4244   6.500   0.033   7.603
  783SOL     OW 4245   8.102   5.958   2.946
  783SOL    HW1 4246   8.027   5.906   2.974
  783SOL    HW2 4247   8.178   5.912   2.981
  784SOL     OW 4248   0.341  14.463   6.689
  784SOL    HW1 4249   0.338  14.554   6.660
  784SOL    HW2 4250   0.417  14.425   6.644
  785SOL     OW 4251   6.308  10.979  12.219
  785SOL    HW1 4252   6.385  10.961  12.272
  785SOL    HW2 4253   6.272  10.892  12.198
  786SOL     OW 4254  11.745   4.269   6.781
  786SOL    HW1 4255  11.747   4.350   6.729
  786SOL    HW2 4256  11.828   4.226   6.761
  787SOL     OW 4257   0.211   5.779   5.947
  787SOL    HW1 4258   0.234   5.727   5.870
  787SOL    HW2 4259   0.293   5.817   5.976
  788SOL     OW 4260   0.603   5.695   6.560
  788SOL    HW1 4261   0.645   5.739   6.634
  788SOL    HW2 4262   0.561   5.765   6.510
  789SOL     OW 4263   8.533  11.518   1.080
  789SOL    HW1 4264   8.492  11.574   1.146
  789SOL    HW2 4265   8.505  11.429   1.104
  790SOL     OW 4266  10.119   5.821  13.764
  790SOL    HW1 4267  10.090   5.749  13.820
  790SOL    HW2 4268  10.065   5.896  13.790
  791SOL     OW 4269  14.462   9.493  10.043
  791SOL    HW1 4270  14.379   9.485  10.091
  791SOL    HW2 4271  14.483   9.404  10.015
  792SOL     OW 4272  10.869   7.559   0.608
  792SOL    HW1 4273  10.936   7.628   0.602
  792SOL    HW2 4274  10.911   7.489   0.658
  793SOL     OW 4275   8.134  10.636  14.496
  793SOL    HW1 4276   8.114  10.548  14.527
  793SOL    HW2 4277   8.229  10.644  14.507
  794SOL     OW 4278  11.795   9.498   2.308
  794SOL    HW1 4279  11.877   9.481   2.354
  794SOL    HW2 4280  11.821   9.540   2.227
  795SOL     OW 4281  14.820   6.460  12.998
  795SOL    HW1 4282   0.037   6.459  13.040
  795SOL    HW2 4283  14.796   6.368  12.992
  796SOL     OW 4284   7.628  10.393   1.476
  796SOL    HW1 4285   7.621  10.298   1.488
  796SOL    HW2 4286   7.663  10.403   1.387
  797SOL     OW 4287  11.628   2.432  11.650
  797SOL    HW1 4288  11.615   2.526  11.637
  797SOL    HW2 4289  11.724   2.421  11.648
  798SOL     OW 4290  10.045   9.953  14.489
  798SOL    HW1 4291  10.140   9.936  14.486
  798SOL    HW2 4292  10.019   9.919  14.575
  799SOL     OW 4293  12.033   3.217  11.292
  799SOL    HW1 4294  12.030   3.168  11.209
  799SOL    HW2 4295  11.950   3.197  11.335
  800SOL     OW 4296   7.678  11.905   0.431
  800SOL    HW1 4297   7.648  11.921   0.520
  800SOL    HW2 4298   7.611  11.849   0.392
  801SOL     OW 4299  14.241   3.787  10.536
  801SOL    HW1 4300  14.251   3.716  10.472
  801SOL    HW2 4301  14.277   3.751  10.617
  802SOL     OW 4302  12.316  13.705  10.999
  802SOL    HW1 4303  12.348  13.629  10.951
  802SOL    HW2 4304  12.357  13.780  10.956
  803SOL     OW 4305   6.521  13.100   1.520
  803SOL    HW1 4306   6.454  13.133   1.579
  803SOL    HW2 4307   6.501  13.141   1.436
  804SOL     OW 4308  12.838   2.826   1.141
  804SOL    HW1 4309  12.755   2.804   1.183
  804SOL    HW2 4310  12.897   2.846   1.213
  805SOL     OW 4311   1.832   9.942   1.457
  805SOL    HW1 4312   1.826   9.950   1.362
  805SOL    HW2 4313   1.749   9.977   1.489
  806SOL     OW 4314  13.250   3.439   1.296
  806SOL    HW1 4315  13.232   3.410   1.207
  806SOL    HW2 4316  13.317   3.507   1.287
  807SOL     OW 4317   1.453   7.446   6.960
  807SOL    HW1 4318   1.539   7.484   6.978
  807SOL    HW2 4319   1.471   7.355   6.938
  808SOL     OW 4320  11.869   6.982   1.098
  808SOL    HW1 4321  11.834   6.993   1.186
  808SOL    HW2 4322  11.960   6.957   1.111
  809SOL     OW 4323   3.489   0.957   3.404
  809SOL    HW1 4324   3.418   0.918   3.455
  809SOL    HW2 4325   3.445   1.002   3.332
  810SOL     OW 4326   1.127   9.722   9.977
  810SOL    HW1 4327   1.121   9.644  10.032
  810SOL    HW2 4328   1.153   9.792  10.036
  811SOL     OW 4329   4.956   1.973  12.902
  811SOL    HW1 4330   4.932   1.960  12.994
  811SOL    HW2 4331   4.969   2.068  12.894
  812SOL     OW 4332   2.193  13.754   2.729
  812SOL    HW1 4333   2.128  13.798   2.783
  812SOL    HW2 4334   2.270  13.748   2.786
  813SOL     OW 4335   0.989  13.191  14.863
  813SOL    HW1 4336   1.016  13.260  14.802
  813SOL    HW2 4337   0.921  13.231   0.046
  814SOL     OW 4338   0.827   9.368   9.290
  814SOL    HW1 4339   0.832   9.455   9.330
  814SOL    HW2 4340   0.778   9.382   9.208
  815SOL     OW 4341   6.873   9.993   1.832
  815SOL    HW1 4342   6.938   9.967   1.897
  815SOL    HW2 4343   6.855   9.914   1.782
  816SOL     OW 4344   9.174   7.950   2.068
  816SOL    HW1 4345   9.125   7.871   2.092
  816SOL    HW2 4346   9.174   7.951   1.972
  817SOL     OW 4347  13.069   2.338   4.254
  817SOL    HW1 4348  12.991   2.282   4.262
  817SOL    HW2 4349  13.134   2.282   4.212
  818SOL     OW 4350   2.757   1.710  12.933
  818SOL    HW1 4351   2.844   1.709  12.893
  818SOL    HW2 4352   2.752   1.627  12.981
  819SOL     OW 4353   6.159   3.877   3.721
  819SOL    HW1 4354   6.238   3.859   3.771
  819SOL    HW2 4355   6.088   3.839   3.774
  820SOL     OW 4356  14.686   6.154  13.857
  820SOL    HW1 4357  14.706   6.181  13.947
  820SOL    HW2 4358  14.761   6.183  13.805
  821SOL     OW 4359   0.341   4.877   5.859
  821SOL    HW1 4360   0.353   4.788   5.827
  821SOL    HW2 4361   0.282   4.868   5.934
  822SOL     OW 4362   7.681   3.628   7.522
  822SOL    HW1 4363   7.747   3.623   7.452
  822SOL    HW2 4364   7.640   3.713   7.510
  823SOL     OW 4365  14.515   5.615  10.348
  823SOL    HW1 4366  14.535   5.562  10.271
  823SOL    HW2 4367  14.583   5.682  10.349
  824SOL     OW 4368   3.084   9.547   7.442
  824SOL    HW1 4369   3.012   9.606   7.467
  824SOL    HW2 4370   3.120   9.586   7.363
  825SOL     OW 4371   3.628   5.813  12.551
  825SOL    HW1 4372   3.536   5.796  12.571
  825SOL    HW2 4373   3.665   5.844  12.634
  826SOL     OW 4374   4.110   6.510   3.109
  826SOL    HW1 4375   4.172   6.481   3.043
  826SOL    HW2 4376   4.164   6.544   3.180
  827SOL     OW 4377   2.115  12.912   0.437
  827SOL    HW1 4378   2.036  12.955   0.406
  827SOL    HW2 4379   2.107  12.821   0.408
  828SOL     OW 4380  13.648   5.681   8.119
  828SOL    HW1 4381  13.558   5.693   8.149
  828SOL    HW2 4382  13.670   5.592   8.143
  829SOL     OW 4383  13.485   9.749   3.064
  829SOL    HW1 4384  13.436   9.684   3.012
  829SOL    HW2 4385  13.442   9.748   3.149
  830SOL     OW 4386   7.501   1.829   4.360
  830SOL    HW1 4387   7.554   1.843   4.282
  830SOL    HW2 4388   7.427   1.889   4.351
  831SOL     OW 4389  14.733   0.274   4.301
  831SOL    HW1 4390  14.665   0.249   4.364
  831SOL    HW2 4391  14.809   0.221   4.325
  832SOL     OW 4392   8.286   3.295  11.433
  832SOL    HW1 4393   8.307   3.287  11.340
  832SOL    HW2 4394   8.237   3.215  11.453
  833SOL     OW 4395   5.280  14.715   0.289
  833SOL    HW1 4396   5.320  14.728   0.203
  833SOL    HW2 4397   5.302  14.794   0.338
  834SOL     OW 4398  11.474   7.039   3.709
  834SOL    HW1 4399  11.512   6.951   3.712
  834SOL    HW2 4400  11.487   7.068   3.619
  835SOL     OW 4401  12.188  13.245  11.463
  835SOL    HW1 4402  12.266  13.295  11.438
  835SOL    HW2 4403  12.152  13.293  11.537
  836SOL     OW 4404  13.151  14.802   4.279
  836SOL    HW1 4405  13.147   0.027   4.287
  836SOL    HW2 4406  13.242  14.783   4.258
  837SOL     OW 4407   6.117   2.333  11.741
  837SOL    HW1 4408   6.028   2.339  11.774
  837SOL    HW2 4409   6.113   2.268  11.671
  838SOL     OW 4410   2.743  11.445   8.919
  838SOL    HW1 4411   2.812  11.388   8.885
  838SOL    HW2 4412   2.778  11.534   8.909
  839SOL     OW 4413   1.181   0.129   5.917
  839SOL    HW1 4414   1.231   0.059   5.874
  839SOL    HW2 4415   1.239   0.161   5.986
  840SOL     OW 4416   4.352   1.108   7.668
  840SOL    HW1 4417   4.278   1.060   7.706
  840SOL    HW2 4418   4.429   1.067   7.706
  841SOL     OW 4419  11.949  12.436   0.256
  841SOL    HW1 4420  11.999  12.513   0.228
  841SOL    HW2 4421  11.866  12.472   0.287
  842SOL     OW 4422  13.064   9.898   8.570
  842SOL    HW1 4423  13.086   9.805   8.577
  842SOL    HW2 4424  13.076   9.932   8.659
  843SOL     OW 4425   4.231   9.662   0.946
  843SOL    HW1 4426   4.248   9.617   1.028
  843SOL    HW2 4427   4.160   9.723   0.966
  844SOL     OW 4428   7.546  12.442  11.322
  844SOL    HW1 4429   7.487  12.422  11.250
  844SOL    HW2 4430   7.564  12.535  11.314
  845SOL     OW 4431  14.068   8.617  11.320
  845SOL    HW1 4432  14.106   8.661  11.396
  845SOL    HW2 4433  13.982   8.656  11.310
  846SOL     OW 4434   6.024   1.137   4.102
  846SOL    HW1 4435   5.934   1.145   4.134
  846SOL    HW2 4436   6.078   1.145   4.180
  847SOL     OW 4437   0.791  14.141  14.061
  847SOL    HW1 4438   0.819  14.055  14.093
  847SOL    HW2 4439   0.827  14.146  13.972
  848SOL     OW 4440  10.495   9.798  12.751
  848SOL    HW1 4441  10.516   9.891  12.763
  848SOL    HW2 4442  10.547   9.754  12.819
  849SOL     OW 4443  12.174  14.500   3.823
  849SOL    HW1 4444  12.230  14.464   3.891
  849SOL    HW2 4445  12.234  14.517   3.750
  850SOL     OW 4446  11.094   6.036   3.400
  850SOL    HW1 4447  11.078   6.116   3.349
  850SOL    HW2 4448  11.097   6.066   3.491
  851SOL     OW 4449   1.099   5.542   0.643
  851SOL    HW1 4450   1.074   5.565   0.733
  851SOL    HW2 4451   1.167   5.475   0.654
  852SOL     OW 4452   8.751   2.241   9.895
  852SOL    HW1 4453   8.793   2.217   9.978
  852SOL    HW2 4454   8.750   2.337   9.895
  853SOL     OW 4455   7.012   4.069   6.565
  853SOL    HW1 4456   7.016   4.049   6.659
  853SOL    HW2 4457   7.066   4.001   6.524
  854SOL     OW 4458   2.210  11.837  11.106
  854SOL    HW1 4459   2.123  11.872  11.087
  854SOL    HW2 4460   2.271  11.899  11.065
  855SOL     OW 4461   2.226   1.405   1.155
  855SOL    HW1 4462   2.303   1.462   1.163
  855SOL    HW2 4463   2.253   1.323   1.196
  856SOL     OW 4464  13.244  14.617   3.542
  856SOL    HW1 4465  13.322  14.661   3.575
  856SOL    HW2 4466  13.202  14.682   3.486
  857SOL     OW 4467   1.119  10.931   3.948
  857SOL    HW1 4468   1.192  10.898   3.999
  857SOL    HW2 4469   1.087  11.007   3.997
  858SOL     OW 4470   5.108  11.993   4.276
  858SOL    HW1 4471   5.159  12.062   4.232
  858SOL    HW2 4472   5.102  12.022   4.367
  859SOL     OW 4473   1.366   6.380  12.199
  859SOL    HW1 4474   1.287   6.368  12.251
  859SOL    HW2 4475   1.426   6.428  12.256
  860SOL     OW 4476   1.167   9.657   9.022
  860SOL    HW1 4477   1.217   9.644   9.103
  860SOL    HW2 4478   1.098   9.591   9.026
  861SOL     OW 4479  14.670  10.326  11.342
  861SOL    HW1 4480  14.633  10.290  11.261
  861SOL    HW2 4481  14.676  10.251  11.401
  862SOL     OW 4482  10.343  11.654   1.968
  862SOL    HW1 4483  10.434  11.679   1.984
  862SOL    HW2 4484  10.299  11.668   2.052
  863SOL     OW 4485   3.802  10.887   2.847
  863SOL    HW1 4486   3.874  10.834   2.813
  863SOL    HW2 4487   3.743  10.898   2.773
  864SOL     OW 4488   3.070   6.461   3.655
  864SOL    HW1 4489   3.093   6.491   3.567
  864SOL    HW2 4490   3.025   6.536   3.695
  865SOL     OW 4491  14.428  11.296   7.271
  865SOL    HW1 4492  14.426  11.389   7.291
  865SOL    HW2 4493  14.516  11.280   7.237
  866SOL     OW 4494   1.811   1.080  11.768
  866SOL    HW1 4495   1.900   1.044  11.766
  866SOL    HW2 4496   1.822   1.169  11.799
  867SOL     OW 4497  11.358   3.542   3.465
  867SOL    HW1 4498  11.331   3.532   3.557
  867SOL    HW2 4499  11.278   3.572   3.420
  868SOL     OW 4500   1.825   5.677  12.683
  868SOL    HW1 4501   1.732   5.695  12.664
  868SOL    HW2 4502   1.845   5.732  12.759
  869SOL     OW 4503   4.798  10.413  11.539
  869SOL    HW1 4504   4.814  10.381  11.627
  869SOL    HW2 4505   4.871  10.379  11.487
  870SOL     OW 4506   3.209   5.913   7.871
  870SOL    HW1 4507   3.213   5.890   7.778
  870SOL    HW2 4508   3.205   6.009   7.871
  871SOL     OW 4509  11.969   1.531   8.934
  871SOL    HW1 4510  12.020   1.613   8.939
  871SOL    HW2 4511  12.034   1.462   8.947
  872SOL     OW 4512   3.467   2.329  14.544
  872SOL    HW1 4513   3.417   2.410  14.549
  872SOL    HW2 4514   3.422   2.277  14.477
  873SOL     OW 4515  14.313  10.793  12.023
  873SOL    HW1 4516  14.344  10.827  11.939
  873SOL    HW2 4517  14.377  10.824  12.087
  874SOL     OW 4518   1.380  14.046  13.749
  874SOL    HW1 4519   1.425  14.065  13.667
  874SOL    HW2 4520   1.304  13.994  13.723
  875SOL     OW 4521  10.736  14.512   8.350
  875SOL    HW1 4522  10.672  14.583   8.350
  875SOL    HW2 4523  10.793  14.532   8.275
  876SOL     OW 4524  13.349   0.219   7.040
  876SOL    HW1 4525  13.402   0.150   7.079
  876SOL    HW2 4526  13.334   0.190   6.950
  877SOL     OW 4527  12.418   0.846   1.662
  877SOL    HW1 4528  12.476   0.770   1.664
  877SOL    HW2 4529  12.331   0.809   1.649
  878SOL     OW 4530   6.929  12.813   7.240
  878SOL    HW1 4531   6.967  12.862   7.167
  878SOL    HW2 4532   6.867  12.753   7.198
  879SOL     OW 4533   9.376  11.721  12.659
  879SOL    HW1 4534   9.378  11.804  12.706
  879SOL    HW2 4535   9.353  11.656  12.726
  880SOL     OW 4536   2.274   6.674   5.321
  880SOL    HW1 4537   2.350   6.696   5.267
  880SOL    HW2 4538   2.310   6.622   5.392
  881SOL     OW 4539   3.351  11.480   3.338
  881SOL    HW1 4540   3.405  11.440   3.406
  881SOL    HW2 4541   3.314  11.558   3.379
  882SOL     OW 4542  11.872   1.531   2.433
  882SOL    HW1 4543  11.884   1.439   2.408
  882SOL    HW2 4544  11.959   1.561   2.457
  883SOL     OW 4545   4.985  14.460   0.982
  883SOL    HW1 4546   4.915  14.395   0.986
  883SOL    HW2 4547   4.945  14.536   0.940
  884SOL     OW 4548   6.745   1.796  12.228
  884SOL    HW1 4549   6.691   1.783  12.307
  884SOL    HW2 4550   6.788   1.880  12.241
  885SOL     OW 4551   1.180   7.166   1.352
  885SOL    HW1 4552   1.245   7.202   1.411
  885SOL    HW2 4553   1.097   7.171   1.401
  886SOL     OW 4554   9.598   6.398   5.753
  886SOL    HW1 4555   9.552   6.472   5.792
  886SOL    HW2 4556   9.532   6.329   5.747
  887SOL     OW 4557   4.340   1.994   0.034
  887SOL    HW1 4558   4.402   2.024  14.836
  887SOL    HW2 4559   4.391   1.932   0.086
  888SOL     OW 4560   2.319   6.780   8.705
  888SOL    HW1 4561   2.363   6.819   8.629
  888SOL    HW2 4562   2.279   6.700   8.671
  889SOL     OW 4563   7.692  14.186   9.287
  889SOL    HW1 4564   7.619  14.202   9.347
  889SOL    HW2 4565   7.731  14.272   9.273
  890SOL     OW 4566   2.051   2.813   5.411
  890SOL    HW1 4567   2.143   2.799   5.434
  890SOL    HW2 4568   2.051   2.827   5.317
  891SOL     OW 4569   9.050  11.424   4.220
  891SOL    HW1 4570   9.073  11.482   4.293
  891SOL    HW2 4571   8.963  11.453   4.193
  892SOL     OW 4572  12.722  11.750  12.444
  892SOL    HW1 4573  12.709  11.826  12.501
  892SOL    HW2 4574  12.741  11.788  12.358
  893SOL     OW 4575  13.195  13.743   1.176
  893SOL    HW1 4576  13.101  13.759   1.168
  893SOL    HW2 4577  13.207  13.655   1.140
  894SOL     OW 4578   7.479  10.571   3.339
  894SOL    HW1 4579   7.459  10.634   3.409
  894SOL    HW2 4580   7.568  10.594   3.312
  895SOL     OW 4581   8.855   7.183  11.825
  895SOL    HW1 4582   8.816   7.167  11.911
  895SOL    HW2 4583   8.814   7.263  11.794
  896SOL     OW 4584   8.693   9.777  14.727
  896SOL    HW1 4585   8.653   9.721  14.661
  896SOL    HW2 4586   8.636   9.855  14.730
  897SOL     OW 4587   9.004   9.064   4.101
  897SOL    HW1 4588   9.006   8.985   4.047
  897SOL    HW2 4589   8.935   9.118   4.063
  898SOL     OW 4590  14.142   2.943   6.682
  898SOL    HW1 4591  14.089   2.890   6.741
  898SOL    HW2 4592  14.113   2.919   6.594
  899SOL     OW 4593   2.322   8.088   2.855
  899SOL    HW1 4594   2.276   8.050   2.930
  899SOL    HW2 4595   2.414   8.091   2.883
  900SOL     OW 4596   1.970   7.482  14.373
  900SOL    HW1 4597   2.004   7.393  14.368
  900SOL    HW2 4598   1.876   7.472  14.357
  901SOL     OW 4599   6.520  11.831   7.274
  901SOL    HW1 4600   6.593  11.810   7.216
  901SOL    HW2 4601   6.522  11.926   7.282
  902SOL     OW 4602   2.145  11.384   4.974
  902SOL    HW1 4603   2.232  11.406   4.941
  902SOL    HW2 4604   2.133  11.442   5.050
  903SOL     OW 4605  14.453   7.220   7.604
  903SOL    HW1 4606  14.388   7.286   7.632
  903SOL    HW2 4607  14.460   7.232   7.510
  904SOL     OW 4608   3.898   6.748   9.995
  904SOL    HW1 4609   3.941   6.807   9.934
  904SOL    HW2 4610   3.829   6.706   9.944
  905SOL     OW 4611  12.004   1.587   7.359
  905SOL    HW1 4612  11.921   1.593   7.311
  905SOL    HW2 4613  11.995   1.509   7.414
  906SOL     OW 4614   4.135   7.377  11.704
  906SOL    HW1 4615   4.160   7.468  11.715
  906SOL    HW2 4616   4.183   7.349  11.625
  907SOL     OW 4617   8.744   1.628  13.644
  907SOL    HW1 4618   8.708   1.566  13.707
  907SOL    HW2 4619   8.669   1.682  13.618
  908SOL     OW 4620   9.710  10.082   9.209
  908SOL    HW1 4621   9.771  10.137   9.257
  908SOL    HW2 4622   9.718   9.996   9.251
  909SOL     OW 4623   8.116   3.856  10.489
  909SOL    HW1 4624   8.115   3.878  10.582
  909SOL    HW2 4625   8.138   3.938  10.445
  910SOL     OW 4626   8.581  12.800   6.379
  910SOL    HW1 4627   8.660  12.850   6.399
  910SOL    HW2 4628   8.610  12.708   6.380
  911SOL     OW 4629  14.306  11.048   4.948
  911SOL    HW1 4630  14.229  10.992   4.950
  911SOL    HW2 4631  14.333  11.048   4.856
  912SOL     OW 4632   6.828  12.612   3.627
  912SOL    HW1 4633   6.916  12.577   3.640
  912SOL    HW2 4634   6.835  12.666   3.548
  913SOL     OW 4635   2.561   8.779  10.045
  913SOL    HW1 4636   2.553   8.789   9.950
  913SOL    HW2 4637   2.615   8.701  10.057
  914SOL     OW 4638   0.426  14.522   0.620
  914SOL    HW1 4639   0.436  14.598   0.677
  914SOL    HW2 4640   0.351  14.475   0.656
  915SOL     OW 4641   7.728   1.825  10.299
  915SOL    HW1 4642   7.751   1.853  10.388
  915SOL    HW2 4643   7.811   1.829  10.251
  916SOL     OW 4644  11.321   1.963   9.932
  916SOL    HW1 4645  11.230   1.951   9.902
  916SOL    HW2 4646  11.313   1.991  10.023
  917SOL     OW 4647   0.017  14.249   2.696
  917SOL    HW1 4648   0.091  14.189   2.683
  917SOL    HW2 4649  14.857  14.269   2.607
  918SOL     OW 4650  11.392  13.797  14.352
  918SOL    HW1 4651  11.311  13.799  14.302
  918SOL    HW2 4652  11.399  13.707  14.384
  919SOL     OW 4653   9.164   1.496   6.904
  919SOL    HW1 4654   9.096   1.539   6.957
  919SOL    HW2 4655   9.117   1.466   6.826
  920SOL     OW 4656   1.503  13.059   7.660
  920SOL    HW1 4657   1.575  13.002   7.687
  920SOL    HW2 4658   1.486  13.113   7.737
  921SOL     OW 4659   3.260  10.107  13.760
  921SOL    HW1 4660   3.333  10.047  13.748
  921SOL    HW2 4661   3.182  10.052  13.756
  922SOL     OW 4662   4.363   1.810  12.132
  922SOL    HW1 4663   4.414   1.860  12.196
  922SOL    HW2 4664   4.427   1.785  12.065
  923SOL     OW 4665   2.571   5.777  14.282
  923SOL    HW1 4666   2.543   5.814  14.198
  923SOL    HW2 4667   2.511   5.704  14.297
  924SOL     OW 4668   0.445   0.923   3.954
  924SOL    HW1 4669   0.536   0.919   3.982
  924SOL    HW2 4670   0.448   0.961   3.867
  925SOL     OW 4671  12.430   4.515  13.418
  925SOL    HW1 4672  12.388   4.448  13.365
  925SOL    HW2 4673  12.374   4.524  13.495
  926SOL     OW 4674   6.587  11.987   9.912
  926SOL    HW1 4675   6.597  12.059   9.851
  926SOL    HW2 4676   6.524  12.019   9.977
  927SOL     OW 4677  13.350   6.116   0.022
  927SOL    HW1 4678  13.272   6.151   0.065
  927SOL    HW2 4679  13.420   6.177   0.044
  928SOL     OW 4680   9.082  11.322   2.223
  928SOL    HW1 4681   9.026  11.251   2.255
  928SOL    HW2 4682   9.027  11.400   2.229
  929SOL     OW 4683  10.962  14.081  10.416
  929SOL    HW1 4684  11.015  14.072  10.495
  929SOL    HW2 4685  10.906  14.156  10.433
  930SOL     OW 4686  13.896   7.277  11.304
  930SOL    HW1 4687  13.856   7.309  11.224
  930SOL    HW2 4688  13.880   7.182  11.304
  931SOL     OW 4689  11.678  12.637   7.119
  931SOL    HW1 4690  11.651  12.555   7.079
  931SOL    HW2 4691  11.774  12.635   7.115
  932SOL     OW 4692   7.553   7.824   3.393
  932SOL    HW1 4693   7.470   7.868   3.412
  932SOL    HW2 4694   7.555   7.817   3.298
  933SOL     OW 4695   8.711   4.570  12.688
  933SOL    HW1 4696   8.700   4.622  12.767
  933SOL    HW2 4697   8.804   4.547  12.687
  934SOL     OW 4698   8.800  12.370   5.102
  934SOL    HW1 4699   8.872  12.329   5.054
  934SOL    HW2 4700   8.810  12.337   5.192
  935SOL     OW 4701   4.740  11.620  14.170
  935SOL    HW1 4702   4.657  11.572  14.163
  935SOL    HW2 4703   4.723  11.704  14.128
  936SOL     OW 4704   2.566  10.783   9.054
  936SOL    HW1 4705   2.647  10.826   9.083
  936SOL    HW2 4706   2.502  10.855   9.048
  937SOL     OW 4707   5.097   1.683  13.997
  937SOL    HW1 4708   5.009   1.655  13.974
  937SOL    HW2 4709   5.109   1.766  13.949
  938SOL     OW 4710  10.850   2.947   7.566
  938SOL    HW1 4711  10.928   3.000   7.552
  938SOL    HW2 4712  10.795   2.998   7.625
  939SOL     OW 4713   0.989   6.083  11.600
  939SOL    HW1 4714   0.909   6.113  11.557
  939SOL    HW2 4715   0.972   5.992  11.621
  940SOL     OW 4716   0.782   4.622   3.667
  940SOL    HW1 4717   0.732   4.663   3.596
  940SOL    HW2 4718   0.759   4.529   3.663
  941SOL     OW 4719   6.597  11.874  13.357
  941SOL    HW1 4720   6.605  11.968  13.345
  941SOL    HW2 4721   6.686  11.845  13.381
  942SOL     OW 4722   9.110  13.261   0.720
  942SOL    HW1 4723   9.045  13.240   0.787
  942SOL    HW2 4724   9.095  13.353   0.700
  943SOL     OW 4725  11.372   7.698  13.036
  943SOL    HW1 4726  11.464   7.693  13.060
  943SOL    HW2 4727  11.337   7.769  13.090
  944SOL     OW 4728  10.270   4.780   8.536
  944SOL    HW1 4729  10.192   4.757   8.485
  944SOL    HW2 4730  10.332   4.813   8.471
  945SOL     OW 4731   6.063  14.498   4.964
  945SOL    HW1 4732   6.072  14.464   4.875
  945SOL    HW2 4733   6.152  14.493   5.001
  946SOL     OW 4734  13.395   9.029   1.969
  946SOL    HW1 4735  13.401   8.956   2.030
  946SOL    HW2 4736  13.481   9.071   1.974
  947SOL     OW 4737   8.883  14.427   0.641
  947SOL    HW1 4738   8.943  14.353   0.636
  947SOL    HW2 4739   8.819  14.402   0.708
  948SOL     OW 4740   0.472   6.461   9.484
  948SOL    HW1 4741   0.409   6.403   9.527
  948SOL    HW2 4742   0.447   6.460   9.392
  949SOL     OW 4743   7.848   2.662   3.765
  949SOL    HW1 4744   7.941   2.670   3.790
  949SOL    HW2 4745   7.847   2.679   3.671
  950SOL     OW 4746   6.800   7.522   3.591
  950SOL    HW1 4747   6.745   7.520   3.670
  950SOL    HW2 4748   6.785   7.438   3.549
  951SOL     OW 4749   0.030   2.435   2.106
  951SOL    HW1 4750  14.819   2.385   2.108
  951SOL    HW2 4751   0.083   2.393   2.039
  952SOL     OW 4752   0.741   3.601   9.196
  952SOL    HW1 4753   0.666   3.595   9.254
  952SOL    HW2 4754   0.810   3.642   9.249
  953SOL     OW 4755   8.152   4.945   3.128
  953SOL    HW1 4756   8.072   4.898   3.148
  953SOL    HW2 4757   8.202   4.945   3.209
  954SOL     OW 4758  10.303   1.426   9.022
  954SOL    HW1 4759  10.211   1.431   8.996
  954SOL    HW2 4760  10.328   1.336   9.005
  955SOL     OW 4761  11.251   0.332   2.626
  955SOL    HW1 4762  11.344   0.348   2.645
  955SOL    HW2 4763  11.216   0.419   2.605
  956SOL     OW 4764   4.793   5.448  10.090
  956SOL    HW1 4765   4.699   5.434  10.103
  956SOL    HW2 4766   4.808   5.539  10.119
  957SOL     OW 4767   2.980   9.162  13.821
  957SOL    HW1 4768   2.936   9.105  13.884
  957SOL    HW2 4769   2.917   9.173  13.751
  958SOL     OW 4770   2.122  13.375  13.752
  958SOL    HW1 4771   2.123  13.391  13.657
  958SOL    HW2 4772   2.186  13.306  13.765
  959SOL     OW 4773   9.916   6.118   6.671
  959SOL    HW1 4774   9.832   6.157   6.696
  959SOL    HW2 4775   9.920   6.037   6.723
  960SOL     OW 4776   8.231   7.727   8.012
  960SOL    HW1 4777   8.279   7.735   7.929
  960SOL    HW2 4778   8.238   7.813   8.052
  961SOL     OW 4779   1.740   9.170  14.106
  961SOL    HW1 4780   1.700   9.239  14.159
  961SOL    HW2 4781   1.704   9.089  14.142
  962SOL     OW 4782   5.502   6.902  11.617
  962SOL    HW1 4783   5.592   6.876  11.638
  962SOL    HW2 4784   5.494   6.990  11.652
  963SOL     OW 4785  13.928   6.586  14.651
  963SOL    HW1 4786  14.006   6.575  14.596
  963SOL    HW2 4787  13.944   6.528  14.726
  964SOL     OW 4788  12.541  10.452   4.827
  964SOL    HW1 4789  12.612  10.504   4.867
  964SOL    HW2 4790  12.488  10.516   4.780
  965SOL     OW 4791   8.460   8.515   8.015
  965SOL    HW1 4792   8.518   8.483   8.084
  965SOL    HW2 4793   8.441   8.438   7.961
  966SOL     OW 4794   2.590  13.564   5.164
  966SOL    HW1 4795   2.609  13.575   5.257
  966SOL    HW2 4796   2.570  13.652   5.133
  967SOL     OW 4797  10.611   3.068   2.831
  967SOL    HW1 4798  10.666   3.049   2.906
  967SOL    HW2 4799  10.528   3.024   2.850
  968SOL     OW 4800   1.439  10.889  12.272
  968SOL    HW1 4801   1.464  10.972  12.232
  968SOL    HW2 4802   1.517  10.861  12.320
  969SOL     OW 4803  10.707  12.608   9.159
  969SOL    HW1 4804  10.722  12.557   9.079
  969SOL    HW2 4805  10.644  12.557   9.209
  970SOL     OW 4806  12.360  11.804   1.199
  970SOL    HW1 4807  12.306  11.799   1.278
  970SOL    HW2 4808  12.316  11.747   1.136
  971SOL     OW 4809   3.061   8.245   3.181
  971SOL    HW1 4810   3.128   8.311   3.197
  971SOL    HW2 4811   3.107   8.162   3.183
  972SOL     OW 4812   4.047   1.255  10.431
  972SOL    HW1 4813   3.987   1.209  10.372
  972SOL    HW2 4814   4.070   1.336  10.385
  973SOL     OW 4815   6.483   0.404  10.520
  973SOL    HW1 4816   6.573   0.430  10.537
  973SOL    HW2 4817   6.448   0.380  10.606
  974SOL     OW 4818   2.511   5.961   8.738
  974SOL    HW1 4819   2.424   5.924   8.753
  974SOL    HW2 4820   2.512   5.983   8.645
  975SOL     OW 4821   2.485  13.117  11.659
  975SOL    HW1 4822   2.530  13.156  11.734
  975SOL    HW2 4823   2.488  13.023  11.677
  976SOL     OW 4824   4.673   5.139   6.508
  976SOL    HW1 4825   4.666   5.154   6.414
  976SOL    HW2 4826   4.690   5.045   6.516
  977SOL     OW 4827   1.464   9.749   0.648
  977SOL    HW1 4828   1.432   9.789   0.567
  977SOL    HW2 4829   1.559   9.740   0.634
  978SOL     OW 4830   2.833   7.088  11.439
  978SOL    HW1 4831   2.768   7.020  11.459
  978SOL    HW2 4832   2.897   7.081  11.509
  979SOL     OW 4833   6.034   1.646  11.888
  979SOL    HW1 4834   5.998   1.635  11.800
  979SOL    HW2 4835   6.122   1.680  11.873
  980SOL     OW 4836   4.046   2.269  11.643
  980SOL    HW1 4837   4.090   2.201  11.592
  980SOL    HW2 4838   3.991   2.221  11.705
  981SOL     OW 4839   7.888   9.525   9.165
  981SOL    HW1 4840   7.941   9.450   9.194
  981SOL    HW2 4841   7.951   9.596   9.155
  982SOL     OW 4842   6.258   9.888   3.981
  982SOL    HW1 4843   6.353   9.895   3.977
  982SOL    HW2 4844   6.240   9.829   4.054
  983SOL     OW 4845   6.524   8.046  14.405
  983SOL    HW1 4846   6.469   8.005  14.339
  983SOL    HW2 4847   6.471   8.043  14.485
  984SOL     OW 4848   3.627   6.537  10.428
  984SOL    HW1 4849   3.671   6.541  10.343
  984SOL    HW2 4850   3.668   6.606  10.480
  985SOL     OW 4851   5.582   2.136   2.067
  985SOL    HW1 4852   5.564   2.063   2.007
  985SOL    HW2 4853   5.561   2.214   2.017
  986SOL     OW 4854   0.558   1.046   0.351
  986SOL    HW1 4855   0.647   1.070   0.326
  986SOL    HW2 4856   0.502   1.102   0.297
  987SOL     OW 4857  14.395  14.168  14.720
  987SOL    HW1 4858  14.479  14.126  14.704
  987SOL    HW2 4859  14.390  14.238  14.655
  988SOL     OW 4860   5.931  12.183   3.900
  988SOL    HW1 4861   5.974  12.208   3.818
  988SOL    HW2 4862   5.838  12.190   3.882
  989SOL     OW 4863   2.859  14.064  11.796
  989SOL    HW1 4864   2.927  14.027  11.852
  989SOL    HW2 4865   2.779  14.055  11.846
  990SOL     OW 4866   1.541   1.150  12.113
  990SOL    HW1 4867   1.502   1.107  12.038
  990SOL    HW2 4868   1.630   1.115  12.118
  991SOL     OW 4869   5.651   3.482   2.239
  991SOL    HW1 4870   5.727   3.430   2.266
  991SOL    HW2 4871   5.586   3.416   2.214
  992SOL     OW 4872   2.878   9.408   8.946
  992SOL    HW1 4873   2.874   9.379   9.037
  992SOL    HW2 4874   2.800   9.372   8.905
  993SOL     OW 4875  14.213   8.073   3.511
  993SOL    HW1 4876  14.204   8.067   3.606
  993SOL    HW2 4877  14.153   8.143   3.485
  994SOL     OW 4878   9.781  12.886  13.270
  994SOL    HW1 4879   9.840  12.857  13.340
  994SOL    HW2 4880   9.776  12.981  13.281
  995SOL     OW 4881  11.068  11.851  14.405
  995SOL    HW1 4882  11.072  11.908  14.482
  995SOL    HW2 4883  11.020  11.901  14.340
  996SOL     OW 4884   2.750  13.047   0.703
  996SOL    HW1 4885   2.803  13.034   0.624
  996SOL    HW2 4886   2.695  12.969   0.707
  997SOL     OW 4887  10.205  11.855   8.603
  997SOL    HW1 4888  10.184  11.941   8.568
  997SOL    HW2 4889  10.237  11.805   8.528
  998SOL     OW 4890  13.339   8.096   2.689
  998SOL    HW1 4891  13.411   8.105   2.627
  998SOL    HW2 4892  13.269   8.052   2.640
  999SOL     OW 4893  14.727   5.370   1.957
  999SOL    HW1 4894  14.733   5.300   2.021
  999SOL    HW2 4895  14.816   5.403   1.949
 1000SOL     OW 4896   4.010   3.646   3.832
 1000SOL    HW1 4897   4.028   3.598   3.751
 1000SOL    HW2 4898   4.071   3.720   3.830
 1001SOL     OW 4899   2.360  12.256   4.239
 1001SOL    HW1 4900   2.288  12.226   4.183
 1001SOL    HW2 4901   2.426  12.188   4.231
 1002SOL     OW 4902   9.433  11.949   6.208
 1002SOL    HW1 4903   9.354  11.916   6.164
 1002SOL    HW2 4904   9.476  11.871   6.243
 1003SOL     OW 4905   1.628   6.983   8.587
 1003SOL    HW1 4906   1.630   7.043   8.662
 1003SOL    HW2 4907   1.681   7.025   8.520
 1004SOL     OW 4908   2.601   8.408   9.662
 1004SOL    HW1 4909   2.543   8.348   9.710
 1004SOL    HW2 4910   2.646   8.352   9.599
 1005SOL     OW 4911  10.216  13.564   5.203
 1005SOL    HW1 4912  10.253  13.616   5.274
 1005SOL    HW2 4913  10.174  13.490   5.247
 1006SOL     OW 4914   5.337   1.911   9.960
 1006SOL    HW1 4915   5.406   1.978   9.954
 1006SOL    HW2 4916   5.331   1.891  10.054
 1007SOL     OW 4917   9.513   0.980  13.954
 1007SOL    HW1 4918   9.604   1.003  13.932
 1007SOL    HW2 4919   9.500   0.895  13.912
 1008SOL     OW 4920  10.688   3.709   7.836
 1008SOL    HW1 4921  10.730   3.731   7.919
 1008SOL    HW2 4922  10.619   3.647   7.860
 1009SOL     OW 4923   8.376   7.006   1.744
 1009SOL    HW1 4924   8.325   6.976   1.819
 1009SOL    HW2 4925   8.395   7.097   1.763
 1010SOL     OW 4926   1.048   2.128   1.652
 1010SOL    HW1 4927   1.042   2.127   1.556
 1010SOL    HW2 4928   0.979   2.188   1.679
 1011SOL     OW 4929   4.309   1.603   6.739
 1011SOL    HW1 4930   4.272   1.629   6.823
 1011SOL    HW2 4931   4.350   1.682   6.705
 1012SOL     OW 4932   4.189   7.348   8.474
 1012SOL    HW1 4933   4.117   7.313   8.421
 1012SOL    HW2 4934   4.266   7.339   8.418
 1013SOL     OW 4935  13.706  10.250  12.057
 1013SOL    HW1 4936  13.694  10.316  11.988
 1013SOL    HW2 4937  13.699  10.299  12.139
 1014SOL     OW 4938   9.440   1.475  10.630
 1014SOL    HW1 4939   9.488   1.556  10.612
 1014SOL    HW2 4940   9.407   1.448  10.544
 1015SOL     OW 4941   7.846   0.570  13.690
 1015SOL    HW1 4942   7.868   0.502  13.753
 1015SOL    HW2 4943   7.774   0.533  13.638
 1016SOL     OW 4944   8.202  10.928   2.894
 1016SOL    HW1 4945   8.176  11.011   2.934
 1016SOL    HW2 4946   8.278  10.899   2.945
 1017SOL     OW 4947   8.647   8.942   0.445
 1017SOL    HW1 4948   8.554   8.920   0.437
 1017SOL    HW2 4949   8.671   8.916   0.534
 1018SOL     OW 4950   4.125   1.698   9.064
 1018SOL    HW1 4951   4.150   1.641   8.992
 1018SOL    HW2 4952   4.133   1.786   9.029
 1019SOL     OW 4953  12.658  10.678   3.815
 1019SOL    HW1 4954  12.631  10.646   3.901
 1019SOL    HW2 4955  12.615  10.620   3.753
 1020SOL     OW 4956  13.340   5.041  11.675
 1020SOL    HW1 4957  13.345   4.951  11.641
 1020SOL    HW2 4958  13.268   5.081  11.626
 1021SOL     OW 4959   8.964   6.653  10.408
 1021SOL    HW1 4960   8.905   6.714  10.366
 1021SOL    HW2 4961   9.051   6.677  10.376
 1022SOL     OW 4962   1.593   5.590  14.062
 1022SOL    HW1 4963   1.648   5.512  14.066
 1022SOL    HW2 4964   1.596   5.626  14.151
 1023SOL     OW 4965  11.315   7.870   9.915
 1023SOL    HW1 4966  11.233   7.917   9.928
 1023SOL    HW2 4967  11.306   7.829   9.829
 1024SOL     OW 4968  11.799   4.788   4.595
 1024SOL    HW1 4969  11.810   4.857   4.660
 1024SOL    HW2 4970  11.713   4.807   4.556
 1025SOL     OW 4971   4.008   0.157   5.466
 1025SOL    HW1 4972   4.044   0.237   5.426
 1025SOL    HW2 4973   3.998   0.179   5.558
 1026SOL     OW 4974   3.123   5.617   2.264
 1026SOL    HW1 4975   3.171   5.534   2.261
 1026SOL    HW2 4976   3.166   5.667   2.333
 1027SOL     OW 4977   8.225   3.339   2.899
 1027SOL    HW1 4978   8.167   3.394   2.951
 1027SOL    HW2 4979   8.257   3.396   2.829
 1028SOL     OW 4980  12.026   6.302   6.857
 1028SOL    HW1 4981  11.960   6.246   6.817
 1028SOL    HW2 4982  12.013   6.387   6.816
 1029SOL     OW 4983   0.211  13.087   3.723
 1029SOL    HW1 4984   0.117  13.069   3.721
 1029SOL    HW2 4985   0.228  13.135   3.642
 1030SOL     OW 4986   3.272   4.808   9.134
 1030SOL    HW1 4987   3.362   4.783   9.155
 1030SOL    HW2 4988   3.242   4.742   9.071
 1031SOL     OW 4989   2.052   8.795   4.013
 1031SOL    HW1 4990   2.017   8.719   4.059
 1031SOL    HW2 4991   1.977   8.852   3.999
 1032SOL     OW 4992   6.570   2.172  11.438
 1032SOL    HW1 4993   6.657   2.172  11.477
 1032SOL    HW2 4994   6.577   2.111  11.364
 1033SOL     OW 4995   5.275   3.385  11.559
 1033SOL    HW1 4996   5.268   3.475  11.591
 1033SOL    HW2 4997   5.268   3.331  11.638
 1034SOL     OW 4998   1.058   7.581   0.821
 1034SOL    HW1 4999   1.131   7.602   0.879
 1034SOL    HW2 5000   1.082   7.618   0.736
 1035SOL     OW 5001  13.100   5.347   3.397
 1035SOL    HW1 5002  13.108   5.325   3.489
 1035SOL    HW2 5003  13.028   5.410   3.393
 1036SOL     OW 5004  11.233   6.004   1.479
 1036SOL    HW1 5005  11.222   5.913   1.452
 1036SOL    HW2 5006  11.324   6.011   1.505
 1037SOL     OW 5007  13.970   6.972   8.578
 1037SOL    HW1 5008  13.934   6.976   8.489
 1037SOL    HW2 5009  13.898   6.937   8.630
 1038SOL     OW 5010   6.574   0.324   5.590
 1038SOL    HW1 5011   6.511   0.355   5.656
 1038SOL    HW2 5012   6.659   0.351   5.623
 1039SOL     OW 5013  11.308   9.124   2.154
 1039SOL    HW1 5014  11.309   9.219   2.170
 1039SOL    HW2 5015  11.254   9.088   2.225
 1040SOL     OW 5016   4.436   0.050   3.266
 1040SOL    HW1 5017   4.468  14.850   3.208
 1040SOL    HW2 5018   4.477   0.031   3.351
 1041SOL     OW 5019  13.099  10.227   3.960
 1041SOL    HW1 5020  13.082  10.226   4.055
 1041SOL    HW2 5021  13.145  10.145   3.944
 1042SOL     OW 5022   7.882   5.534  13.098
 1042SOL    HW1 5023   7.875   5.582  13.015
 1042SOL    HW2 5024   7.912   5.446  13.072
 1043SOL     OW 5025   7.730   8.525  11.937
 1043SOL    HW1 5026   7.670   8.465  11.892
 1043SOL    HW2 5027   7.711   8.514  12.030
 1044SOL     OW 5028  14.382   8.810   9.662
 1044SOL    HW1 5029  14.313   8.851   9.609
 1044SOL    HW2 5030  14.382   8.860   9.744
 1045SOL     OW 5031   3.290  11.476   4.413
 1045SOL    HW1 5032   3.258  11.545   4.471
 1045SOL    HW2 5033   3.310  11.402   4.470
 1046SOL     OW 5034  13.029   2.336   7.327
 1046SOL    HW1 5035  12.992   2.248   7.333
 1046SOL    HW2 5036  13.031   2.355   7.233
 1047SOL     OW 5037  10.445   3.565   1.570
 1047SOL    HW1 5038  10.461   3.647   1.524
 1047SOL    HW2 5039  10.419   3.591   1.658
 1048SOL     OW 5040  10.149  11.640   8.412
 1048SOL    HW1 5041  10.056  11.638   8.387
 1048SOL    HW2 5042  10.161  11.561   8.464
 1049SOL     OW 5043  10.659  10.159   1.661
 1049SOL    HW1 5044  10.564  10.158   1.674
 1049SOL    HW2 5045  10.677  10.081   1.609
 1050SOL     OW 5046  11.980   5.706  11.861
 1050SOL    HW1 5047  12.058   5.651  11.869
 1050SOL    HW2 5048  11.980   5.758  11.942
 1051SOL     OW 5049   9.266   2.870   3.182
 1051SOL    HW1 5050   9.262   2.778   3.208
 1051SOL    HW2 5051   9.206   2.876   3.107
 1052SOL     OW 5052  12.237  10.180  12.201
 1052SOL    HW1 5053  12.243  10.085  12.188
 1052SOL    HW2 5054  12.169  10.208  12.140
 1053SOL     OW 5055   0.024  13.208   1.196
 1053SOL    HW1 5056   0.100  13.222   1.253
 1053SOL    HW2 5057  14.866  13.296   1.172
 1054SOL     OW 5058   7.328  11.051  13.364
 1054SOL    HW1 5059   7.328  11.025  13.456
 1054SOL    HW2 5060   7.241  11.029  13.332
 1055SOL     OW 5061   2.568  14.057   3.910
 1055SOL    HW1 5062   2.633  14.107   3.862
 1055SOL    HW2 5063   2.616  14.021   3.985
 1056SOL     OW 5064   7.442  10.480   7.690
 1056SOL    HW1 5065   7.501  10.511   7.759
 1056SOL    HW2 5066   7.406  10.559   7.651
 1057SOL     OW 5067  10.176  11.088  12.998
 1057SOL    HW1 5068  10.161  10.994  12.996
 1057SOL    HW2 5069  10.260  11.100  12.953
 1058SOL     OW 5070   5.554   2.572   4.809
 1058SOL    HW1 5071   5.543   2.555   4.716
 1058SOL    HW2 5072   5.644   2.547   4.828
 1059SOL     OW 5073  14.360   4.196   9.530
 1059SOL    HW1 5074  14.348   4.251   9.607
 1059SOL    HW2 5075  14.272   4.164   9.508
 1060SOL     OW 5076   4.146   2.366  13.542
 1060SOL    HW1 5077   4.106   2.314  13.473
 1060SOL    HW2 5078   4.220   2.313  13.573
 1061SOL     OW 5079  14.423   0.122   7.269
 1061SOL    HW1 5080  14.434   0.075   7.352
 1061SOL    HW2 5081  14.356   0.074   7.222
 1062SOL     OW 5082   9.536  14.261   5.593
 1062SOL    HW1 5083   9.595  14.327   5.558
 1062SOL    HW2 5084   9.585  14.179   5.588
 1063SOL     OW 5085   0.275   2.902   7.887
 1063SOL    HW1 5086   0.352   2.948   7.921
 1063SOL    HW2 5087   0.284   2.813   7.920
 1064SOL     OW 5088   2.268  10.411   6.048
 1064SOL    HW1 5089   2.251  10.393   5.956
 1064SOL    HW2 5090   2.191  10.458   6.078
 1065SOL     OW 5091   7.923   6.630   6.043
 1065SOL    HW1 5092   7.839   6.674   6.028
 1065SOL    HW2 5093   7.918   6.550   5.992
 1066SOL     OW 5094   0.229   1.545   6.569
 1066SOL    HW1 5095   0.277   1.573   6.647
 1066SOL    HW2 5096   0.282   1.580   6.496
 1067SOL     OW 5097  13.845  11.648   1.943
 1067SOL    HW1 5098  13.835  11.565   1.896
 1067SOL    HW2 5099  13.783  11.641   2.016
 1068SOL     OW 5100   5.184   8.738   4.851
 1068SOL    HW1 5101   5.189   8.814   4.792
 1068SOL    HW2 5102   5.234   8.764   4.928
 1069SOL     OW 5103  13.164   8.531   5.369
 1069SOL    HW1 5104  13.093   8.551   5.430
 1069SOL    HW2 5105  13.141   8.578   5.289
 1070SOL     OW 5106   3.902   4.303  11.058
 1070SOL    HW1 5107   3.831   4.258  11.105
 1070SOL    HW2 5108   3.966   4.325  11.126
 1071SOL     OW 5109   3.921   5.224   6.007
 1071SOL    HW1 5110   3.862   5.151   6.027
 1071SOL    HW2 5111   3.882   5.266   5.930
 1072SOL     OW 5112  13.853  12.792   8.931
 1072SOL    HW1 5113  13.893  12.769   9.015
 1072SOL    HW2 5114  13.760  12.799   8.950
 1073SOL     OW 5115   6.749   4.691  10.677
 1073SOL    HW1 5116   6.809   4.760  10.703
 1073SOL    HW2 5117   6.805   4.616  10.659
 1074SOL     OW 5118   4.136   7.854   5.882
 1074SOL    HW1 5119   4.220   7.885   5.849
 1074SOL    HW2 5120   4.083   7.840   5.804
 1075SOL     OW 5121   5.855   0.863  14.002
 1075SOL    HW1 5122   5.939   0.882  13.961
 1075SOL    HW2 5123   5.844   0.768  13.992
 1076SOL     OW 5124  10.498   6.065   9.324
 1076SOL    HW1 5125  10.430   6.001   9.344
 1076SOL    HW2 5126  10.564   6.052   9.393
 1077SOL     OW 5127   6.482   4.605   5.838
 1077SOL    HW1 5128   6.417   4.536   5.825
 1077SOL    HW2 5129   6.542   4.569   5.903
 1078SOL     OW 5130   9.902  10.991   5.948
 1078SOL    HW1 5131   9.861  11.077   5.954
 1078SOL    HW2 5132   9.831  10.930   5.972
 1079SOL     OW 5133   1.012   5.688   3.101
 1079SOL    HW1 5134   0.997   5.776   3.066
 1079SOL    HW2 5135   0.969   5.629   3.039
 1080SOL     OW 5136   5.810  10.558  11.824
 1080SOL    HW1 5137   5.794  10.472  11.862
 1080SOL    HW2 5138   5.804  10.544  11.729
 1081SOL     OW 5139  14.141   3.885  13.074
 1081SOL    HW1 5140  14.105   3.824  13.138
 1081SOL    HW2 5141  14.231   3.856  13.061
 1082SOL     OW 5142   7.210   7.082   4.904
 1082SOL    HW1 5143   7.250   7.147   4.847
 1082SOL    HW2 5144   7.265   7.082   4.982
 1083SOL     OW 5145   0.973   8.587   5.961
 1083SOL    HW1 5146   1.067   8.574   5.951
 1083SOL    HW2 5147   0.937   8.564   5.876
 1084SOL     OW 5148  10.761   8.513   0.398
 1084SOL    HW1 5149  10.791   8.423   0.382
 1084SOL    HW2 5150  10.700   8.506   0.471
 1085SOL     OW 5151  13.998   9.896   6.884
 1085SOL    HW1 5152  14.003   9.870   6.976
 1085SOL    HW2 5153  14.013   9.815   6.836
 1086SOL     OW 5154   7.632   2.283   4.096
 1086SOL    HW1 5155   7.642   2.354   4.033
 1086SOL    HW2 5156   7.572   2.317   4.162
 1087SOL     OW 5157   3.755   9.917  11.388
 1087SOL    HW1 5158   3.707   9.995  11.418
 1087SOL    HW2 5159   3.741   9.852  11.457
 1088SOL     OW 5160   6.822   3.135  14.117
 1088SOL    HW1 5161   6.876   3.174  14.048
 1088SOL    HW2 5162   6.767   3.072  14.070
 1089SOL     OW 5163   1.697  11.398   6.142
 1089SOL    HW1 5164   1.777  11.428   6.100
 1089SOL    HW2 5165   1.660  11.335   6.080
 1090SOL     OW 5166   8.403   9.465   0.483
 1090SOL    HW1 5167   8.481   9.447   0.536
 1090SOL    HW2 5168   8.365   9.379   0.466
 1091SOL     OW 5169   6.585   5.275  11.119
 1091SOL    HW1 5170   6.634   5.223  11.056
 1091SOL    HW2 5171   6.584   5.221  11.198
 1092SOL     OW 5172   3.669   3.496   9.696
 1092SOL    HW1 5173   3.628   3.410   9.701
 1092SOL    HW2 5174   3.723   3.493   9.617
 1093SOL     OW 5175  11.811  10.527   4.526
 1093SOL    HW1 5176  11.716  10.538   4.526
 1093SOL    HW2 5177  11.826  10.451   4.470
 1094SOL     OW 5178  14.394   9.580   8.635
 1094SOL    HW1 5179  14.486   9.560   8.654
 1094SOL    HW2 5180  14.345   9.533   8.702
 1095SOL     OW 5181  14.087  11.402   6.026
 1095SOL    HW1 5182  14.101  11.410   6.120
 1095SOL    HW2 5183  14.127  11.318   6.003
 1096SOL     OW 5184   6.929   9.224  10.545
 1096SOL    HW1 5185   6.914   9.216  10.450
 1096SOL    HW2 5186   6.847   9.197  10.585
 1097SOL     OW 5187   7.441   3.669   9.729
 1097SOL    HW1 5188   7.446   3.577   9.703
 1097SOL    HW2 5189   7.478   3.672   9.817
 1098SOL     OW 5190   5.837   3.193   3.193
 1098SOL    HW1 5191   5.807   3.244   3.268
 1098SOL    HW2 5192   5.759   3.149   3.160
 1099SOL     OW 5193   7.900   9.245   6.719
 1099SOL    HW1 5194   7.922   9.159   6.757
 1099SOL    HW2 5195   7.806   9.252   6.729
 1100SOL     OW 5196   9.507  11.999   5.407
 1100SOL    HW1 5197   9.534  11.907   5.413
 1100SOL    HW2 5198   9.412  11.996   5.412
 1101SOL     OW 5199   1.412  14.648   7.154
 1101SOL    HW1 5200   1.477  14.705   7.196
 1101SOL    HW2 5201   1.439  14.559   7.178
 1102SOL     OW 5202  13.169  14.620   1.794
 1102SOL    HW1 5203  13.088  14.586   1.832
 1102SOL    HW2 5204  13.140  14.670   1.717
 1103SOL     OW 5205   8.868   4.858   4.044
 1103SOL    HW1 5206   8.844   4.934   3.990
 1103SOL    HW2 5207   8.830   4.878   4.130
 1104SOL     OW 5208  13.146  10.987  12.081
 1104SOL    HW1 5209  13.070  10.980  12.140
 1104SOL    HW2 5210  13.129  11.067  12.031
 1105SOL     OW 5211   9.136  13.416   9.727
 1105SOL    HW1 5212   9.068  13.376   9.781
 1105SOL    HW2 5213   9.167  13.491   9.778
 1106SOL     OW 5214   5.561   0.684  11.700
 1106SOL    HW1 5215   5.583   0.613  11.760
 1106SOL    HW2 5216   5.560   0.762  11.755
 1107SOL     OW 5217   9.739  12.144   2.563
 1107SOL    HW1 5218   9.672  12.132   2.495
 1107SOL    HW2 5219   9.816  12.097   2.530
 1108SOL     OW 5220  10.391  10.044   0.017
 1108SOL    HW1 5221  10.385  10.087  14.802
 1108SOL    HW2 5222  10.482  10.016   0.023
 1109SOL     OW 5223   9.685  10.355   1.648
 1109SOL    HW1 5224   9.702  10.446   1.622
 1109SOL    HW2 5225   9.609  10.328   1.597
 1110SOL     OW 5226  13.915   9.056  11.638
 1110SOL    HW1 5227  13.886   8.983  11.583
 1110SOL    HW2 5228  13.853   9.126  11.619
 1111SOL     OW 5229  11.427   5.494  12.773
 1111SOL    HW1 5230  11.394   5.583  12.783
 1111SOL    HW2 5231  11.354   5.445  12.734
 1112SOL     OW 5232   3.745   9.955  13.241
 1112SOL    HW1 5233   3.741  10.051  13.250
 1112SOL    HW2 5234   3.776   9.924  13.326
 1113SOL     OW 5235   5.525   8.442   6.680
 1113SOL    HW1 5236   5.439   8.466   6.714
 1113SOL    HW2 5237   5.507   8.411   6.591
 1114SOL     OW 5238  11.420   8.994   5.911
 1114SOL    HW1 5239  11.395   8.999   6.003
 1114SOL    HW2 5240  11.514   9.008   5.911
 1115SOL     OW 5241  14.288  12.465   6.760
 1115SOL    HW1 5242  14.377  12.442   6.734
 1115SOL    HW2 5243  14.235  12.444   6.683
 1116SOL     OW 5244  14.219   9.734  14.305
 1116SOL    HW1 5245  14.163   9.804  14.340
 1116SOL    HW2 5246  14.190   9.656  14.352
 1117SOL     OW 5247   9.555  14.361  12.512
 1117SOL    HW1 5248   9.595  14.447  12.500
 1117SOL    HW2 5249   9.626  14.299  12.496
 1118SOL     OW 5250  10.850   4.852  10.048
 1118SOL    HW1 5251  10.805   4.797  10.111
 1118SOL    HW2 5252  10.865   4.795   9.972
 1119SOL     OW 5253  10.117   6.772  12.952
 1119SOL    HW1 5254  10.162   6.822  12.884
 1119SOL    HW2 5255  10.188   6.734  13.004
 1120SOL     OW 5256  14.025  14.015  14.426
 1120SOL    HW1 5257  13.995  13.995  14.514
 1120SOL    HW2 5258  14.062  13.933  14.394
 1121SOL     OW 5259   5.777   1.727  13.888
 1121SOL    HW1 5260   5.736   1.642  13.905
 1121SOL    HW2 5261   5.859   1.724  13.936
 1122SOL     OW 5262   8.418  14.708  11.641
 1122SOL    HW1 5263   8.384  14.621  11.661
 1122SOL    HW2 5264   8.343  14.755  11.605
 1123SOL     OW 5265   7.406   1.839   1.880
 1123SOL    HW1 5266   7.419   1.838   1.785
 1123SOL    HW2 5267   7.353   1.761   1.898
 1124SOL     OW 5268   0.646   5.570   8.006
 1124SOL    HW1 5269   0.662   5.585   7.913
 1124SOL    HW2 5270   0.618   5.655   8.040
 1125SOL     OW 5271  13.917  14.856  10.087
 1125SOL    HW1 5272  13.872  14.807  10.156
 1125SOL    HW2 5273  13.959   0.059  10.133
 1126SOL     OW 5274  10.407  11.632   1.619
 1126SOL    HW1 5275  10.465  11.687   1.671
 1126SOL    HW2 5276  10.337  11.606   1.679
 1127SOL     OW 5277  11.677   4.643   8.146
 1127SOL    HW1 5278  11.621   4.620   8.072
 1127SOL    HW2 5279  11.706   4.559   8.181
 1128SOL     OW 5280  12.289  14.416  14.093
 1128SOL    HW1 5281  12.243  14.453  14.168
 1128SOL    HW2 5282  12.246  14.454  14.017
 1129SOL     OW 5283   0.779   4.011   8.203
 1129SOL    HW1 5284   0.789   3.930   8.154
 1129SOL    HW2 5285   0.696   4.001   8.250
 1130SOL     OW 5286  12.487   2.433  12.197
 1130SOL    HW1 5287  12.438   2.430  12.115
 1130SOL    HW2 5288  12.552   2.501  12.184
 1131SOL     OW 5289   3.831  11.458   4.702
 1131SOL    HW1 5290   3.851  11.536   4.650
 1131SOL    HW2 5291   3.879  11.387   4.658
 1132SOL     OW 5292  14.125   1.698  12.493
 1132SOL    HW1 5293  14.199   1.654  12.535
 1132SOL    HW2 5294  14.164   1.748  12.422
 1133SOL     OW 5295   6.488  13.171   1.255
 1133SOL    HW1 5296   6.514  13.254   1.294
 1133SOL    HW2 5297   6.525  13.174   1.166
 1134SOL     OW 5298   4.492  12.375   6.139
 1134SOL    HW1 5299   4.583  12.377   6.171
 1134SOL    HW2 5300   4.495  12.318   6.062
 1135SOL     OW 5301   1.820   3.722  12.650
 1135SOL    HW1 5302   1.859   3.634  12.655
 1135SOL    HW2 5303   1.892   3.779  12.624
 1136SOL     OW 5304   4.168   8.910  12.076
 1136SOL    HW1 5305   4.104   8.982  12.080
 1136SOL    HW2 5306   4.238   8.943  12.020
 1137SOL     OW 5307   7.557  12.137  12.458
 1137SOL    HW1 5308   7.521  12.129  12.546
 1137SOL    HW2 5309   7.642  12.093  12.462
 1138SOL     OW 5310   9.136   6.059  14.175
 1138SOL    HW1 5311   9.080   6.054  14.097
 1138SOL    HW2 5312   9.127   6.150  14.205
 1139SOL     OW 5313   2.480  14.102  12.636
 1139SOL    HW1 5314   2.548  14.160  12.672
 1139SOL    HW2 5315   2.441  14.060  12.713
 1140SOL     OW 5316   5.185  12.951   3.492
 1140SOL    HW1 5317   5.158  13.034   3.531
 1140SOL    HW2 5318   5.265  12.973   3.444
 1141SOL     OW 5319   1.027   6.832   5.124
 1141SOL    HW1 5320   1.010   6.830   5.029
 1141SOL    HW2 5321   1.003   6.920   5.151
 1142SOL     OW 5322   1.450   6.891   1.153
 1142SOL    HW1 5323   1.492   6.941   1.083
 1142SOL    HW2 5324   1.514   6.823   1.176
 1143SOL     OW 5325   0.582   7.896   7.096
 1143SOL    HW1 5326   0.532   7.830   7.050
 1143SOL    HW2 5327   0.671   7.861   7.101
 1144SOL     OW 5328   0.162   9.241   0.841
 1144SOL    HW1 5329   0.238   9.211   0.889
 1144SOL    HW2 5330   0.104   9.164   0.837
 1145SOL     OW 5331   7.626  13.753   8.175
 1145SOL    HW1 5332   7.619  13.779   8.083
 1145SOL    HW2 5333   7.536  13.751   8.206
 1146SOL     OW 5334   7.230   7.847   9.248
 1146SOL    HW1 5335   7.138   7.864   9.269
 1146SOL    HW2 5336   7.272   7.933   9.257
 1147SOL     OW 5337  14.436  14.134   7.422
 1147SOL    HW1 5338  14.464  14.129   7.330
 1147SOL    HW2 5339  14.403  14.047   7.442
 1148SOL     OW 5340   2.228   7.109   4.186
 1148SOL    HW1 5341   2.302   7.165   4.161
 1148SOL    HW2 5342   2.227   7.040   4.119
 1149SOL     OW 5343  12.387   2.815  11.970
 1149SOL    HW1 5344  12.407   2.818  11.876
 1149SOL    HW2 5345  12.303   2.860  11.977
 1150SOL     OW 5346   7.097   2.427   5.124
 1150SOL    HW1 5347   7.065   2.508   5.163
 1150SOL    HW2 5348   7.092   2.442   5.030
 1151SOL     OW 5349  12.393   4.622   6.408
 1151SOL    HW1 5350  12.407   4.530   6.430
 1151SOL    HW2 5351  12.454   4.669   6.464
 1152SOL     OW 5352  10.559  13.032  14.158
 1152SOL    HW1 5353  10.490  12.967  14.170
 1152SOL    HW2 5354  10.515  13.107  14.117
 1153SOL     OW 5355   9.717   3.392  10.924
 1153SOL    HW1 5356   9.659   3.405  10.999
 1153SOL    HW2 5357   9.786   3.457  10.935
 1154SOL     OW 5358  13.857   1.583   0.167
 1154SOL    HW1 5359  13.770   1.577   0.128
 1154SOL    HW2 5360  13.900   1.501   0.142
 1155SOL     OW 5361   6.439   1.714  10.791
 1155SOL    HW1 5362   6.472   1.702  10.703
 1155SOL    HW2 5363   6.475   1.798  10.820
 1156SOL     OW 5364   6.038  12.756   9.978
 1156SOL    HW1 5365   6.117  12.730   9.931
 1156SOL    HW2 5366   5.968  12.704   9.938
 1157SOL     OW 5367   7.084  12.683   8.786
 1157SOL    HW1 5368   7.050  12.611   8.839
 1157SOL    HW2 5369   7.056  12.762   8.831
 1158SOL     OW 5370   1.635   5.365  13.366
 1158SOL    HW1 5371   1.626   5.340  13.275
 1158SOL    HW2 5372   1.719   5.411  13.371
 1159SOL     OW 5373   9.614  14.060   5.099
 1159SOL    HW1 5374   9.658  14.019   5.025
 1159SOL    HW2 5375   9.523  14.069   5.071
 1160SOL     OW 5376   9.516   3.591   9.498
 1160SOL    HW1 5377   9.520   3.566   9.406
 1160SOL    HW2 5378   9.570   3.527   9.543
 1161SOL     OW 5379   0.624   2.856   4.873
 1161SOL    HW1 5380   0.628   2.775   4.924
 1161SOL    HW2 5381   0.686   2.914   4.915
 1162SOL     OW 5382  10.314   1.251  10.445
 1162SOL    HW1 5383  10.305   1.291  10.358
 1162SOL    HW2 5384  10.229   1.262  10.486
 1163SOL     OW 5385   0.708   3.425  12.405
 1163SOL    HW1 5386   0.717   3.520  12.399
 1163SOL    HW2 5387   0.798   3.392  12.395
 1164SOL     OW 5388   9.028   4.041   5.957
 1164SOL    HW1 5389   8.975   3.961   5.966
 1164SOL    HW2 5390   9.004   4.094   6.033
 1165SOL     OW 5391   6.230   8.577  11.709
 1165SOL    HW1 5392   6.280   8.621  11.778
 1165SOL    HW2 5393   6.209   8.491  11.746
 1166SOL     OW 5394   9.945   7.672   8.125
 1166SOL    HW1 5395   9.956   7.724   8.046
 1166SOL    HW2 5396   9.881   7.605   8.101
 1167SOL     OW 5397   3.108  10.396   6.180
 1167SOL    HW1 5398   3.041  10.378   6.246
 1167SOL    HW2 5399   3.074  10.472   6.132
 1168SOL     OW 5400   7.106   9.572   3.896
 1168SOL    HW1 5401   7.027   9.560   3.842
 1168SOL    HW2 5402   7.164   9.500   3.870
 1169SOL     OW 5403   3.098  14.096  13.868
 1169SOL    HW1 5404   3.006  14.078  13.851
 1169SOL    HW2 5405   3.101  14.114  13.962
 1170SOL     OW 5406   7.543   9.611   8.793
 1170SOL    HW1 5407   7.632   9.604   8.759
 1170SOL    HW2 5408   7.498   9.535   8.757
 1171SOL     OW 5409   9.273   5.321   3.149
 1171SOL    HW1 5410   9.236   5.403   3.117
 1171SOL    HW2 5411   9.367   5.340   3.159
 1172SOL     OW 5412   4.041   6.671   8.375
 1172SOL    HW1 5413   3.967   6.634   8.326
 1172SOL    HW2 5414   4.029   6.639   8.464
 1173SOL     OW 5415  13.300  11.426   6.697
 1173SOL    HW1 5416  13.324  11.343   6.739
 1173SOL    HW2 5417  13.277  11.403   6.607
 1174SOL     OW 5418   5.203   3.078  10.676
 1174SOL    HW1 5419   5.163   3.081  10.763
 1174SOL    HW2 5420   5.246   2.993  10.672
 1175SOL     OW 5421   5.073   7.867   0.764
 1175SOL    HW1 5422   5.008   7.804   0.796
 1175SOL    HW2 5423   5.034   7.904   0.685
 1176SOL     OW 5424   3.117   9.073   4.241
 1176SOL    HW1 5425   3.039   9.096   4.190
 1176SOL    HW2 5426   3.169   9.153   4.242
 1177SOL     OW 5427  11.566  13.050   5.337
 1177SOL    HW1 5428  11.620  12.996   5.280
 1177SOL    HW2 5429  11.514  12.986   5.387
 1178SOL     OW 5430  12.413  11.886  13.440
 1178SOL    HW1 5431  12.340  11.908  13.497
 1178SOL    HW2 5432  12.454  11.810  13.482
 1179SOL     OW 5433   3.786   1.064  14.549
 1179SOL    HW1 5434   3.766   1.025  14.633
 1179SOL    HW2 5435   3.774   1.158  14.562
 1180SOL     OW 5436  13.277  11.774  11.381
 1180SOL    HW1 5437  13.321  11.756  11.463
 1180SOL    HW2 5438  13.184  11.772  11.403
 1181SOL     OW 5439   7.168   4.814   9.616
 1181SOL    HW1 5440   7.138   4.897   9.656
 1181SOL    HW2 5441   7.231   4.841   9.550
 1182SOL     OW 5442   0.158   5.380  11.270
 1182SOL    HW1 5443   0.074   5.400  11.311
 1182SOL    HW2 5444   0.192   5.306  11.320
 1183SOL     OW 5445   9.995   8.739  12.952
 1183SOL    HW1 5446   9.969   8.668  13.012
 1183SOL    HW2 5447   9.952   8.817  12.987
 1184SOL     OW 5448   1.496   0.517   1.767
 1184SOL    HW1 5449   1.478   0.468   1.847
 1184SOL    HW2 5450   1.592   0.517   1.761
 1185SOL     OW 5451   1.610  12.868   8.306
 1185SOL    HW1 5452   1.645  12.853   8.394
 1185SOL    HW2 5453   1.686  12.890   8.253
 1186SOL     OW 5454  14.607  11.656   1.969
 1186SOL    HW1 5455  14.547  11.598   1.922
 1186SOL    HW2 5456  14.645  11.602   2.038
 1187SOL     OW 5457   5.097   9.066  11.466
 1187SOL    HW1 5458   5.134   9.142  11.422
 1187SOL    HW2 5459   5.013   9.051  11.423
 1188SOL     OW 5460  14.709   8.289   9.044
 1188SOL    HW1 5461  14.638   8.328   9.096
 1188SOL    HW2 5462  14.705   8.336   8.960
 1189SOL     OW 5463  11.582   3.422   1.981
 1189SOL    HW1 5464  11.524   3.382   1.916
 1189SOL    HW2 5465  11.670   3.406   1.947
 1190SOL     OW 5466   1.254  13.654   1.260
 1190SOL    HW1 5467   1.322  13.649   1.192
 1190SOL    HW2 5468   1.303  13.669   1.341
 1191SOL     OW 5469   5.397   1.479   9.533
 1191SOL    HW1 5470   5.324   1.433   9.574
 1191SOL    HW2 5471   5.475   1.434   9.563
 1192SOL     OW 5472   9.867   6.065   5.252
 1192SOL    HW1 5473   9.903   6.117   5.323
 1192SOL    HW2 5474   9.773   6.063   5.269
 1193SOL     OW 5475   4.893  12.615   3.159
 1193SOL    HW1 5476   4.944  12.652   3.231
 1193SOL    HW2 5477   4.831  12.685   3.136
 1194SOL     OW 5478  13.226   3.447   0.786
 1194SOL    HW1 5479  13.221   3.470   0.693
 1194SOL    HW2 5480  13.135   3.446   0.816
 1195SOL     OW 5481  11.255   5.473   4.861
 1195SOL    HW1 5482  11.167   5.455   4.828
 1195SOL    HW2 5483  11.310   5.408   4.818
 1196SOL     OW 5484   4.679   5.090   7.680
 1196SOL    HW1 5485   4.758   5.104   7.732
 1196SOL    HW2 5486   4.672   5.168   7.626
 1197SOL     OW 5487   6.687  12.844   1.226
 1197SOL    HW1 5488   6.764  12.900   1.230
 1197SOL    HW2 5489   6.655  12.841   1.316
 1198SOL     OW 5490  13.918   7.313  12.353
 1198SOL    HW1 5491  13.879   7.388  12.400
 1198SOL    HW2 5492  13.986   7.352  12.299
 1199SOL     OW 5493   5.187   3.331   4.383
 1199SOL    HW1 5494   5.143   3.372   4.307
 1199SOL    HW2 5495   5.217   3.247   4.350
 1200SOL     OW 5496   9.858  14.121  13.928
 1200SOL    HW1 5497   9.797  14.082  13.991
 1200SOL    HW2 5498   9.801  14.163  13.863
 1201SOL     OW 5499  11.781   1.750   0.495
 1201SOL    HW1 5500  11.723   1.801   0.551
 1201SOL    HW2 5501  11.764   1.781   0.406
 1202SOL     OW 5502   9.075  13.079  12.929
 1202SOL    HW1 5503   9.013  13.150  12.938
 1202SOL    HW2 5504   9.046  13.012  12.991
 1203SOL     OW 5505   4.092  10.406   9.619
 1203SOL    HW1 5506   4.108  10.425   9.526
 1203SOL    HW2 5507   4.032  10.332   9.618
 1204SOL     OW 5508  14.318  11.504   3.758
 1204SOL    HW1 5509  14.340  11.412   3.745
 1204SOL    HW2 5510  14.341  11.545   3.675
 1205SOL     OW 5511   3.423  11.627  12.363
 1205SOL    HW1 5512   3.379  11.634  12.448
 1205SOL    HW2 5513   3.492  11.563  12.376
 1206SOL     OW 5514   8.445   0.718  12.043
 1206SOL    HW1 5515   8.372   0.658  12.030
 1206SOL    HW2 5516   8.490   0.719  11.958
 1207SOL     OW 5517  13.534   2.614  13.172
 1207SOL    HW1 5518  13.552   2.591  13.081
 1207SOL    HW2 5519  13.581   2.697  13.186
 1208SOL     OW 5520   4.308   0.213   5.829
 1208SOL    HW1 5521   4.362   0.188   5.754
 1208SOL    HW2 5522   4.339   0.301   5.853
 1209SOL     OW 5523   1.736   4.133   3.402
 1209SOL    HW1 5524   1.822   4.168   3.425
 1209SOL    HW2 5525   1.711   4.080   3.477
 1210SOL     OW 5526   0.541   8.288   0.911
 1210SOL    HW1 5527   0.539   8.238   0.829
 1210SOL    HW2 5528   0.633   8.313   0.921
 1211SOL     OW 5529   7.051  14.018  12.539
 1211SOL    HW1 5530   6.986  14.066  12.488
 1211SOL    HW2 5531   7.124  14.005  12.479
 1212SOL     OW 5532   3.743  14.808  14.242
 1212SOL    HW1 5533   3.801  14.733  14.256
 1212SOL    HW2 5534   3.734  14.813  14.147
 1213SOL     OW 5535  14.149   8.854   9.016
 1213SOL    HW1 5536  14.065   8.834   8.974
 1213SOL    HW2 5537  14.127   8.917   9.084
 1214SOL     OW 5538   0.359   7.564   9.943
 1214SOL    HW1 5539   0.353   7.518   9.860
 1214SOL    HW2 5540   0.278   7.614   9.950
 1215SOL     OW 5541   5.013   3.083   1.601
 1215SOL    HW1 5542   5.027   3.000   1.645
 1215SOL    HW2 5543   4.930   3.072   1.553
 1216SOL     OW 5544  14.844   5.100  11.761
 1216SOL    HW1 5545  14.864   5.162  11.691
 1216SOL    HW2 5546   0.057   5.054  11.777
 1217SOL     OW 5547   0.052  11.838   5.995
 1217SOL    HW1 5548  14.853  11.786   5.955
 1217SOL    HW2 5549   0.009  11.884   6.068
 1218SOL     OW 5550  14.759   6.536   2.551
 1218SOL    HW1 5551  14.790   6.453   2.515
 1218SOL    HW2 5552  14.764   6.597   2.477
 1219SOL     OW 5553   8.416   1.355  14.285
 1219SOL    HW1 5554   8.320   1.350  14.279
 1219SOL    HW2 5555   8.437   1.443  14.255
 1220SOL     OW 5556   8.502   5.118   6.637
 1220SOL    HW1 5557   8.528   5.179   6.706
 1220SOL    HW2 5558   8.411   5.141   6.619
 1221SOL     OW 5559   8.480  10.754  14.026
 1221SOL    HW1 5560   8.472  10.845  13.997
 1221SOL    HW2 5561   8.427  10.705  13.963
 1222SOL     OW 5562  12.678   2.374   3.345
 1222SOL    HW1 5563  12.756   2.401   3.297
 1222SOL    HW2 5564  12.710   2.310   3.408
 1223SOL     OW 5565   3.719   0.098   3.691
 1223SOL    HW1 5566   3.806   0.059   3.700
 1223SOL    HW2 5567   3.686   0.104   3.781
 1224SOL     OW 5568  12.768  12.985   5.847
 1224SOL    HW1 5569  12.852  13.001   5.890
 1224SOL    HW2 5570  12.705  12.980   5.919
 1225SOL     OW 5571   8.587   5.692  10.744
 1225SOL    HW1 5572   8.658   5.743  10.703
 1225SOL    HW2 5573   8.619   5.602  10.743
 1226SOL     OW 5574  13.375   9.222   0.249
 1226SOL    HW1 5575  13.379   9.232   0.344
 1226SOL    HW2 5576  13.323   9.143   0.236
 1227SOL     OW 5577   4.002   2.080   7.397
 1227SOL    HW1 5578   3.927   2.035   7.358
 1227SOL    HW2 5579   4.074   2.017   7.392
 1228SOL     OW 5580   1.619   3.380   9.394
 1228SOL    HW1 5581   1.570   3.348   9.469
 1228SOL    HW2 5582   1.695   3.425   9.432
 1229SOL     OW 5583  12.299   0.619   7.996
 1229SOL    HW1 5584  12.223   0.673   8.017
 1229SOL    HW2 5585  12.370   0.682   7.985
 1230SOL     OW 5586   1.094  12.525   5.660
 1230SOL    HW1 5587   0.999  12.534   5.664
 1230SOL    HW2 5588   1.110  12.486   5.574
 1231SOL     OW 5589  11.119   1.557   6.393
 1231SOL    HW1 5590  11.076   1.473   6.375
 1231SOL    HW2 5591  11.059   1.623   6.358
 1232SOL     OW 5592  11.673  10.046  12.958
 1232SOL    HW1 5593  11.742  10.066  13.021
 1232SOL    HW2 5594  11.592  10.069  13.003
 1233SOL     OW 5595   2.039   6.434   1.717
 1233SOL    HW1 5596   2.114   6.402   1.767
 1233SOL    HW2 5597   1.984   6.478   1.782
 1234SOL     OW 5598   0.093   5.239   1.368
 1234SOL    HW1 5599   0.074   5.332   1.381
 1234SOL    HW2 5600   0.182   5.228   1.401
 1235SOL     OW 5601  11.555   9.574   2.501
 1235SOL    HW1 5602  11.616   9.527   2.444
 1235SOL    HW2 5603  11.526   9.649   2.449
 1236SOL     OW 5604   4.181   7.092  13.903
 1236SOL    HW1 5605   4.152   7.153  13.836
 1236SOL    HW2 5606   4.136   7.119  13.983
 1237SOL     OW 5607   9.030  10.502   5.029
 1237SOL    HW1 5608   8.938  10.477   5.036
 1237SOL    HW2 5609   9.035  10.553   4.948
 1238SOL     OW 5610  11.813  12.979   5.557
 1238SOL    HW1 5611  11.797  13.074   5.564
 1238SOL    HW2 5612  11.791  12.958   5.466
 1239SOL     OW 5613   8.841   2.279  11.774
 1239SOL    HW1 5614   8.842   2.192  11.735
 1239SOL    HW2 5615   8.804   2.335  11.707
 1240SOL     OW 5616   8.404   2.309  11.836
 1240SOL    HW1 5617   8.449   2.388  11.808
 1240SOL    HW2 5618   8.329   2.341  11.887
 1241SOL     OW 5619   9.125   3.059   6.849
 1241SOL    HW1 5620   9.167   2.989   6.900
 1241SOL    HW2 5621   9.092   3.015   6.771
 1242SOL     OW 5622   5.941   2.614  10.677
 1242SOL    HW1 5623   5.901   2.668  10.746
 1242SOL    HW2 5624   5.953   2.529  10.717
 1243SOL     OW 5625  11.912   5.023   4.719
 1243SOL    HW1 5626  11.987   4.982   4.674
 1243SOL    HW2 5627  11.874   5.082   4.653
 1244SOL     OW 5628   2.628  13.733   2.914
 1244SOL    HW1 5629   2.638  13.676   2.839
 1244SOL    HW2 5630   2.690  13.805   2.899
 1245SOL     OW 5631   7.325  13.377  11.910
 1245SOL    HW1 5632   7.239  13.404  11.943
 1245SOL    HW2 5633   7.385  13.399  11.981
 1246SOL     OW 5634   7.746   4.581   5.191
 1246SOL    HW1 5635   7.822   4.584   5.133
 1246SOL    HW2 5636   7.679   4.633   5.146
 1247SOL     OW 5637   3.981  11.395   6.464
 1247SOL    HW1 5638   3.957  11.457   6.395
 1247SOL    HW2 5639   3.909  11.399   6.526
 1248SOL     OW 5640  10.001   3.436   4.072
 1248SOL    HW1 5641  10.041   3.393   3.996
 1248SOL    HW2 5642  10.060   3.414   4.144
 1249SOL     OW 5643   0.141  13.716   3.837
 1249SOL    HW1 5644   0.222  13.767   3.838
 1249SOL    HW2 5645   0.127  13.692   3.929
 1250SOL     OW 5646  11.182   6.132   7.449
 1250SOL    HW1 5647  11.260   6.085   7.421
 1250SOL    HW2 5648  11.110   6.084   7.408
 1251SOL     OW 5649   8.822  13.018   9.619
 1251SOL    HW1 5650   8.815  12.927   9.648
 1251SOL    HW2 5651   8.797  13.070   9.695
 1252SOL     OW 5652   1.842   6.191  10.671
 1252SOL    HW1 5653   1.762   6.244  10.676
 1252SOL    HW2 5654   1.815   6.104  10.701
 1253SOL     OW 5655   6.131   2.758  10.508
 1253SOL    HW1 5656   6.189   2.801  10.570
 1253SOL    HW2 5657   6.074   2.702  10.561
 1254SOL     OW 5658  12.631  10.161   1.626
 1254SOL    HW1 5659  12.696  10.095   1.603
 1254SOL    HW2 5660  12.655  10.188   1.715
 1255SOL     OW 5661   9.886   9.232  11.127
 1255SOL    HW1 5662   9.926   9.244  11.213
 1255SOL    HW2 5663   9.805   9.184  11.144
 1256SOL     OW 5664   3.252  14.142  11.611
 1256SOL    HW1 5665   3.182  14.199  11.579
 1256SOL    HW2 5666   3.263  14.076  11.542
 1257SOL     OW 5667   8.834   9.597   2.643
 1257SOL    HW1 5668   8.798   9.684   2.627
 1257SOL    HW2 5669   8.908   9.612   2.701
 1258SOL     OW 5670   5.421   3.608   2.370
 1258SOL    HW1 5671   5.354   3.553   2.411
 1258SOL    HW2 5672   5.491   3.548   2.347
 1259SOL     OW 5673   2.183   5.831  12.609
 1259SOL    HW1 5674   2.241   5.783  12.551
 1259SOL    HW2 5675   2.185   5.921  12.577
 1260SOL     OW 5676   1.988   2.176   8.892
 1260SOL    HW1 5677   2.011   2.265   8.920
 1260SOL    HW2 5678   1.928   2.145   8.959
 1261SOL     OW 5679   4.764  10.483   7.129
 1261SOL    HW1 5680   4.740  10.464   7.039
 1261SOL    HW2 5681   4.829  10.552   7.123
 1262SOL     OW 5682   8.311   9.356   9.514
 1262SOL    HW1 5683   8.394   9.399   9.493
 1262SOL    HW2 5684   8.249   9.428   9.525
 1263SOL     OW 5685   3.141   4.194   2.427
 1263SOL    HW1 5686   3.065   4.178   2.371
 1263SOL    HW2 5687   3.111   4.261   2.489
 1264SOL     OW 5688  10.527   3.502  14.788
 1264SOL    HW1 5689  10.536   3.561  14.713
 1264SOL    HW2 5690  10.467   3.548  14.847
 1265SOL     OW 5691   0.384  13.868   7.328
 1265SOL    HW1 5692   0.468  13.846   7.288
 1265SOL    HW2 5693   0.407  13.908   7.412
 1266SOL     OW 5694   4.456   2.736  12.985
 1266SOL    HW1 5695   4.430   2.652  13.024
 1266SOL    HW2 5696   4.436   2.726  12.892
 1267SOL     OW 5697   6.734  13.936   4.700
 1267SOL    HW1 5698   6.710  14.020   4.659
 1267SOL    HW2 5699   6.661  13.878   4.680
 1268SOL     OW 5700   9.812  14.828   7.808
 1268SOL    HW1 5701   9.863  14.852   7.730
 1268SOL    HW2 5702   9.876  14.791   7.868
 1269SOL     OW 5703   9.500  11.877   0.933
 1269SOL    HW1 5704   9.428  11.849   0.878
 1269SOL    HW2 5705   9.551  11.798   0.949
 1270SOL     OW 5706   5.610  14.281   8.363
 1270SOL    HW1 5707   5.574  14.370   8.364
 1270SOL    HW2 5708   5.581  14.243   8.446
 1271SOL     OW 5709   0.975  12.911   9.998
 1271SOL    HW1 5710   1.003  12.821   9.982
 1271SOL    HW2 5711   1.040  12.965   9.953
 1272SOL     OW 5712  14.338   0.834  11.484
 1272SOL    HW1 5713  14.401   0.763  11.471
 1272SOL    HW2 5714  14.346   0.887  11.405
 1273SOL     OW 5715  11.567   7.905   1.012
 1273SOL    HW1 5716  11.472   7.913   1.014
 1273SOL    HW2 5717  11.590   7.914   0.920
 1274SOL     OW 5718  13.503   6.237  12.169
 1274SOL    HW1 5719  13.493   6.192  12.085
 1274SOL    HW2 5720  13.472   6.326  12.151
 1275SOL     OW 5721  11.052   5.900  11.596
 1275SOL    HW1 5722  11.000   5.868  11.670
 1275SOL    HW2 5723  11.077   5.821  11.548
 1276SOL     OW 5724   0.035   4.131  13.682
 1276SOL    HW1 5725  14.868   4.054  13.641
 1276SOL    HW2 5726  14.860   4.138  13.766
 1277SOL     OW 5727   3.643   1.033   8.608
 1277SOL    HW1 5728   3.625   1.081   8.527
 1277SOL    HW2 5729   3.731   0.998   8.596
 1278SOL     OW 5730  11.396   1.689   3.826
 1278SOL    HW1 5731  11.349   1.696   3.909
 1278SOL    HW2 5732  11.355   1.754   3.769
 1279SOL     OW 5733  11.820  10.905  11.877
 1279SOL    HW1 5734  11.896  10.917  11.934
 1279SOL    HW2 5735  11.751  10.957  11.918
 1280SOL     OW 5736   5.371   8.247  13.411
 1280SOL    HW1 5737   5.372   8.274  13.320
 1280SOL    HW2 5738   5.439   8.300  13.453
 1281SOL     OW 5739   1.993   9.052  10.788
 1281SOL    HW1 5740   2.001   8.963  10.754
 1281SOL    HW2 5741   1.945   9.042  10.871
 1282SOL     OW 5742  14.637   6.262  14.496
 1282SOL    HW1 5743  14.586   6.339  14.523
 1282SOL    HW2 5744  14.571   6.193  14.484
 1283SOL     OW 5745   5.697   5.625  11.963
 1283SOL    HW1 5746   5.734   5.538  11.973
 1283SOL    HW2 5747   5.658   5.645  12.048
 1284SOL     OW 5748   7.925  10.666   7.897
 1284SOL    HW1 5749   7.966  10.727   7.835
 1284SOL    HW2 5750   7.923  10.714   7.980
 1285SOL     OW 5751   3.318   6.723  11.642
 1285SOL    HW1 5752   3.369   6.794  11.602
 1285SOL    HW2 5753   3.242   6.713  11.585
 1286SOL     OW 5754   0.708   4.183   1.752
 1286SOL    HW1 5755   0.642   4.243   1.719
 1286SOL    HW2 5756   0.751   4.148   1.674
 1287SOL     OW 5757   6.268   1.136   0.519
 1287SOL    HW1 5758   6.293   1.096   0.603
 1287SOL    HW2 5759   6.235   1.063   0.467
 1288SOL     OW 5760   1.237   4.613   3.269
 1288SOL    HW1 5761   1.235   4.521   3.245
 1288SOL    HW2 5762   1.330   4.634   3.277
 1289SOL     OW 5763   8.320   1.269   7.595
 1289SOL    HW1 5764   8.258   1.252   7.524
 1289SOL    HW2 5765   8.272   1.247   7.675
 1290SOL     OW 5766  12.397   5.221   9.888
 1290SOL    HW1 5767  12.490   5.207   9.907
 1290SOL    HW2 5768  12.391   5.314   9.866
 1291SOL     OW 5769   3.689   9.599   1.565
 1291SOL    HW1 5770   3.738   9.525   1.529
 1291SOL    HW2 5771   3.756   9.662   1.592
 1292SOL     OW 5772  13.693   4.891   1.541
 1292SOL    HW1 5773  13.647   4.900   1.458
 1292SOL    HW2 5774  13.782   4.919   1.522
 1293SOL     OW 5775   2.292   8.245   8.390
 1293SOL    HW1 5776   2.315   8.338   8.389
 1293SOL    HW2 5777   2.371   8.202   8.424
 1294SOL     OW 5778  13.693   9.217   2.436
 1294SOL    HW1 5779  13.738   9.137   2.411
 1294SOL    HW2 5780  13.744   9.288   2.397
 1295SOL     OW 5781   6.553  11.331   8.996
 1295SOL    HW1 5782   6.502  11.398   8.950
 1295SOL    HW2 5783   6.608  11.293   8.928
 1296SOL     OW 5784  12.049   3.909   6.307
 1296SOL    HW1 5785  12.037   3.969   6.234
 1296SOL    HW2 5786  12.125   3.943   6.354
 1297SOL     OW 5787   2.920   2.174  13.058
 1297SOL    HW1 5788   2.890   2.242  12.998
 1297SOL    HW2 5789   2.946   2.220  13.137
 1298SOL     OW 5790   8.391  12.137   1.841
 1298SOL    HW1 5791   8.430  12.099   1.762
 1298SOL    HW2 5792   8.462  12.138   1.905
 1299SOL     OW 5793  12.667   5.148   4.605
 1299SOL    HW1 5794  12.643   5.091   4.533
 1299SOL    HW2 5795  12.654   5.237   4.571
 1300SOL     OW 5796   7.144   3.496   0.480
 1300SOL    HW1 5797   7.059   3.523   0.514
 1300SOL    HW2 5798   7.203   3.496   0.556
 1301SOL     OW 5799  11.198   0.898   8.244
 1301SOL    HW1 5800  11.163   0.986   8.231
 1301SOL    HW2 5801  11.285   0.912   8.281
 1302SOL     OW 5802   1.721   0.621   1.977
 1302SOL    HW1 5803   1.659   0.664   2.036
 1302SOL    HW2 5804   1.742   0.688   1.912
 1303SOL     OW 5805   0.639   5.627  14.537
 1303SOL    HW1 5806   0.663   5.715  14.566
 1303SOL    HW2 5807   0.721   5.588  14.506
 1304SOL     OW 5808   9.479   5.936   5.974
 1304SOL    HW1 5809   9.472   5.916   6.067
 1304SOL    HW2 5810   9.512   5.856   5.934
 1305SOL     OW 5811   8.134  10.525  11.218
 1305SOL    HW1 5812   8.075  10.559  11.151
 1305SOL    HW2 5813   8.222  10.535  11.181
 1306SOL     OW 5814  14.033   9.072   6.743
 1306SOL    HW1 5815  13.953   9.109   6.780
 1306SOL    HW2 5816  14.024   8.977   6.754
 1307SOL     OW 5817   0.395  10.752  10.561
 1307SOL    HW1 5818   0.398  10.806  10.640
 1307SOL    HW2 5819   0.466  10.785  10.507
 1308SOL     OW 5820   8.186  13.209   1.596
 1308SOL    HW1 5821   8.125  13.267   1.643
 1308SOL    HW2 5822   8.239  13.170   1.665
 1309SOL     OW 5823   3.898   1.265   0.244
 1309SOL    HW1 5824   3.860   1.204   0.307
 1309SOL    HW2 5825   3.827   1.326   0.224
 1310SOL     OW 5826  10.326   9.705   6.675
 1310SOL    HW1 5827  10.233   9.724   6.669
 1310SOL    HW2 5828  10.347   9.715   6.768
 1311SOL     OW 5829   3.327  10.105  10.110
 1311SOL    HW1 5830   3.291  10.189  10.080
 1311SOL    HW2 5831   3.317  10.047  10.035
 1312SOL     OW 5832  10.136   0.982  12.514
 1312SOL    HW1 5833  10.099   0.924  12.448
 1312SOL    HW2 5834  10.210   0.933  12.550
 1313SOL     OW 5835   3.833  12.323  13.458
 1313SOL    HW1 5836   3.856  12.402  13.410
 1313SOL    HW2 5837   3.902  12.313  13.523
 1314SOL     OW 5838   7.867   8.914  11.577
 1314SOL    HW1 5839   7.942   8.974  11.582
 1314SOL    HW2 5840   7.878   8.856  11.652
 1315SOL     OW 5841  12.033   8.430  10.040
 1315SOL    HW1 5842  11.942   8.407  10.019
 1315SOL    HW2 5843  12.076   8.437   9.955
 1316SOL     OW 5844   0.071   5.848   0.953
 1316SOL    HW1 5845   0.061   5.942   0.972
 1316SOL    HW2 5846   0.165   5.836   0.945
 1317SOL     OW 5847  11.772   3.119  10.497
 1317SOL    HW1 5848  11.844   3.063  10.467
 1317SOL    HW2 5849  11.757   3.092  10.587
 1318SOL     OW 5850   5.384   1.569  11.500
 1318SOL    HW1 5851   5.431   1.623  11.564
 1318SOL    HW2 5852   5.449   1.550  11.433
 1319SOL     OW 5853   6.007  10.580   9.831
 1319SOL    HW1 5854   5.921  10.616   9.808
 1319SOL    HW2 5855   5.989  10.513   9.896
 1320SOL     OW 5856  14.221  14.803  11.206
 1320SOL    HW1 5857  14.151  14.742  11.186
 1320SOL    HW2 5858  14.233  14.797  11.300
 1321SOL     OW 5859   2.433   1.424   1.478
 1321SOL    HW1 5860   2.338   1.424   1.469
 1321SOL    HW2 5861   2.465   1.380   1.399
 1322SOL     OW 5862   2.806   2.361   4.824
 1322SOL    HW1 5863   2.848   2.375   4.909
 1322SOL    HW2 5864   2.844   2.428   4.768
 1323SOL     OW 5865   7.623  10.043   1.240
 1323SOL    HW1 5866   7.570   9.964   1.227
 1323SOL    HW2 5867   7.687  10.018   1.306
 1324SOL     OW 5868   5.558  14.045   5.208
 1324SOL    HW1 5869   5.604  14.103   5.268
 1324SOL    HW2 5870   5.505  13.989   5.265
 1325SOL     OW 5871   4.841   0.481  10.573
 1325SOL    HW1 5872   4.921   0.433  10.552
 1325SOL    HW2 5873   4.772   0.415  10.569
 1326SOL     OW 5874   4.688  14.587   3.333
 1326SOL    HW1 5875   4.736  14.536   3.267
 1326SOL    HW2 5876   4.596  14.569   3.315
 1327SOL     OW 5877   1.270  14.743  14.795
 1327SOL    HW1 5878   1.345  14.792  14.829
 1327SOL    HW2 5879   1.303  14.654  14.783
 1328SOL     OW 5880   4.212   9.451  13.676
 1328SOL    HW1 5881   4.232   9.483  13.764
 1328SOL    HW2 5882   4.265   9.372  13.667
 1329SOL     OW 5883   3.196   5.952   9.203
 1329SOL    HW1 5884   3.123   5.990   9.154
 1329SOL    HW2 5885   3.189   5.989   9.291
 1330SOL     OW 5886  12.540   3.628   3.775
 1330SOL    HW1 5887  12.465   3.678   3.744
 1330SOL    HW2 5888  12.502   3.552   3.819
 1331SOL     OW 5889   3.901   0.183   3.313
 1331SOL    HW1 5890   3.939   0.101   3.344
 1331SOL    HW2 5891   3.810   0.161   3.290
 1332SOL     OW 5892  14.015   9.679   8.978
 1332SOL    HW1 5893  14.094   9.732   8.986
 1332SOL    HW2 5894  13.972   9.712   8.899
 1333SOL     OW 5895   1.843  12.658  14.005
 1333SOL    HW1 5896   1.769  12.706  14.044
 1333SOL    HW2 5897   1.812  12.634  13.918
 1334SOL     OW 5898  11.925   3.003  14.005
 1334SOL    HW1 5899  11.960   2.965  14.086
 1334SOL    HW2 5900  11.895   3.090  14.031
 1335SOL     OW 5901   6.647  11.085   9.314
 1335SOL    HW1 5902   6.564  11.054   9.353
 1335SOL    HW2 5903   6.645  11.053   9.224
 1336SOL     OW 5904   6.399   0.918   8.189
 1336SOL    HW1 5905   6.423   0.833   8.225
 1336SOL    HW2 5906   6.417   0.979   8.261
 1337SOL     OW 5907   3.485   7.534   2.154
 1337SOL    HW1 5908   3.579   7.519   2.163
 1337SOL    HW2 5909   3.459   7.578   2.235
 1338SOL     OW 5910   1.318   2.659   5.827
 1338SOL    HW1 5911   1.393   2.698   5.872
 1338SOL    HW2 5912   1.246   2.666   5.889
 1339SOL     OW 5913   1.433   6.196   7.674
 1339SOL    HW1 5914   1.370   6.250   7.722
 1339SOL    HW2 5915   1.496   6.168   7.740
 1340SOL     OW 5916   9.685   0.507   4.029
 1340SOL    HW1 5917   9.647   0.419   4.024
 1340SOL    HW2 5918   9.614   0.564   3.999
 1341SOL     OW 5919  14.589   6.086  11.513
 1341SOL    HW1 5920  14.637   6.057  11.591
 1341SOL    HW2 5921  14.530   6.013  11.494
 1342SOL     OW 5922   4.173   5.162   3.683
 1342SOL    HW1 5923   4.175   5.102   3.757
 1342SOL    HW2 5924   4.237   5.126   3.621
 1343SOL     OW 5925  11.853   5.115   9.945
 1343SOL    HW1 5926  11.937   5.070   9.933
 1343SOL    HW2 5927  11.876   5.196   9.991
 1344SOL     OW 5928   7.880   7.978   3.195
 1344SOL    HW1 5929   7.811   8.035   3.162
 1344SOL    HW2 5930   7.888   8.000   3.287
 1345SOL     OW 5931   0.211   7.562   3.253
 1345SOL    HW1 5932   0.241   7.623   3.320
 1345SOL    HW2 5933   0.140   7.609   3.208
 1346SOL     OW 5934   8.698  10.159   7.196
 1346SOL    HW1 5935   8.712  10.250   7.222
 1346SOL    HW2 5936   8.654  10.119   7.271
 1347SOL     OW 5937   7.725  11.719   9.886
 1347SOL    HW1 5938   7.708  11.629   9.914
 1347SOL    HW2 5939   7.692  11.724   9.797
 1348SOL     OW 5940  12.151   8.776   0.792
 1348SOL    HW1 5941  12.081   8.838   0.813
 1348SOL    HW2 5942  12.121   8.733   0.711
 1349SOL     OW 5943   0.813  14.674   1.830
 1349SOL    HW1 5944   0.864  14.695   1.751
 1349SOL    HW2 5945   0.722  14.686   1.803
 1350SOL     OW 5946  12.159   2.756   4.111
 1350SOL    HW1 5947  12.233   2.759   4.172
 1350SOL    HW2 5948  12.180   2.820   4.044
 1351SOL     OW 5949   1.579   8.715   5.060
 1351SOL    HW1 5950   1.672   8.691   5.069
 1351SOL    HW2 5951   1.555   8.750   5.146
 1352SOL     OW 5952   3.483  14.849  10.990
 1352SOL    HW1 5953   3.554  14.785  10.997
 1352SOL    HW2 5954   3.403  14.799  11.006
 1353SOL     OW 5955   4.276   2.228  12.662
 1353SOL    HW1 5956   4.199   2.266  12.620
 1353SOL    HW2 5957   4.348   2.284  12.635
 1354SOL     OW 5958   2.829   7.283   7.047
 1354SOL    HW1 5959   2.816   7.362   7.099
 1354SOL    HW2 5960   2.865   7.220   7.109
 1355SOL     OW 5961   9.576   6.394   3.694
 1355SOL    HW1 5962   9.507   6.330   3.709
 1355SOL    HW2 5963   9.629   6.392   3.774
 1356SOL     OW 5964   9.495  10.630   0.652
 1356SOL    HW1 5965   9.499  10.540   0.684
 1356SOL    HW2 5966   9.577  10.670   0.682
 1357SOL     OW 5967   6.670   6.492  14.066
 1357SOL    HW1 5968   6.760   6.520  14.052
 1357SOL    HW2 5969   6.664   6.477  14.160
 1358SOL     OW 5970  13.010  13.734   5.047
 1358SOL    HW1 5971  13.067  13.805   5.018
 1358SOL    HW2 5972  13.034  13.660   4.992
 1359SOL     OW 5973  13.454   6.963   8.404
 1359SOL    HW1 5974  13.446   7.047   8.359
 1359SOL    HW2 5975  13.413   6.900   8.345
 1360SOL     OW 5976   9.154  10.034   6.414
 1360SOL    HW1 5977   9.076  10.004   6.460
 1360SOL    HW2 5978   9.127  10.116   6.372
 1361SOL     OW 5979   9.982   6.082   8.210
 1361SOL    HW1 5980   9.949   6.108   8.124
 1361SOL    HW2 5981   9.936   6.000   8.229
 1362SOL     OW 5982   1.273   4.618   4.090
 1362SOL    HW1 5983   1.290   4.581   4.176
 1362SOL    HW2 5984   1.300   4.549   4.029
 1363SOL     OW 5985   8.697  13.847  13.766
 1363SOL    HW1 5986   8.643  13.796  13.705
 1363SOL    HW2 5987   8.781  13.854  13.722
 1364SOL     OW 5988  13.524  14.064   2.281
 1364SOL    HW1 5989  13.516  14.104   2.194
 1364SOL    HW2 5990  13.603  14.103   2.318
 1365SOL     OW 5991   2.197   6.142   6.458
 1365SOL    HW1 5992   2.261   6.197   6.413
 1365SOL    HW2 5993   2.118   6.196   6.464
 1366SOL     OW 5994  10.416  11.925   2.269
 1366SOL    HW1 5995  10.418  11.975   2.187
 1366SOL    HW2 5996  10.464  11.978   2.331
 1367SOL     OW 5997   3.500   3.712   6.242
 1367SOL    HW1 5998   3.443   3.646   6.202
 1367SOL    HW2 5999   3.518   3.774   6.170
 1368SOL     OW 6000   9.718  14.256   8.050
 1368SOL    HW1 6001   9.741  14.255   8.143
 1368SOL    HW2 6002   9.758  14.335   8.016
 1369SOL     OW 6003  10.855   3.349   3.600
 1369SOL    HW1 6004  10.937   3.300   3.611
 1369SOL    HW2 6005  10.851   3.406   3.678
 1370SOL     OW 6006   3.579  10.652  10.066
 1370SOL    HW1 6007   3.666  10.668  10.029
 1370SOL    HW2 6008   3.584  10.685  10.156
 1371SOL     OW 6009  11.151  10.525   9.192
 1371SOL    HW1 6010  11.236  10.563   9.215
 1371SOL    HW2 6011  11.088  10.592   9.219
 1372SOL     OW 6012  14.794  13.445  13.125
 1372SOL    HW1 6013  14.845  13.452  13.045
 1372SOL    HW2 6014  14.855  13.408  13.189
 1373SOL     OW 6015   1.524   3.293   7.229
 1373SOL    HW1 6016   1.546   3.253   7.313
 1373SOL    HW2 6017   1.491   3.221   7.176
 1374SOL     OW 6018  13.287   5.258   8.797
 1374SOL    HW1 6019  13.201   5.280   8.761
 1374SOL    HW2 6020  13.311   5.334   8.851
 1375SOL     OW 6021   4.111   2.509   3.357
 1375SOL    HW1 6022   4.020   2.481   3.358
 1375SOL    HW2 6023   4.162   2.428   3.365
 1376SOL     OW 6024  13.707   6.307   2.943
 1376SOL    HW1 6025  13.634   6.360   2.910
 1376SOL    HW2 6026  13.682   6.285   3.033
 1377SOL     OW 6027  11.644   8.995   7.614
 1377SOL    HW1 6028  11.578   9.060   7.590
 1377SOL    HW2 6029  11.709   9.045   7.664
 1378SOL     OW 6030   6.971   0.153   4.870
 1378SOL    HW1 6031   6.985   0.080   4.929
 1378SOL    HW2 6032   6.883   0.139   4.835
 1379SOL     OW 6033   0.156   2.989   0.536
 1379SOL    HW1 6034   0.244   3.013   0.566
 1379SOL    HW2 6035   0.158   2.894   0.530
 1380SOL     OW 6036   9.310   6.737   2.426
 1380SOL    HW1 6037   9.218   6.765   2.428
 1380SOL    HW2 6038   9.336   6.745   2.334
 1381SOL     OW 6039   4.454   8.770   7.793
 1381SOL    HW1 6040   4.425   8.680   7.776
 1381SOL    HW2 6041   4.375   8.823   7.779
 1382SOL     OW 6042   4.651   2.421   0.622
 1382SOL    HW1 6043   4.590   2.361   0.664
 1382SOL    HW2 6044   4.597   2.494   0.593
 1383SOL     OW 6045   9.568   2.291  12.659
 1383SOL    HW1 6046   9.549   2.252  12.574
 1383SOL    HW2 6047   9.519   2.373  12.659
 1384SOL     OW 6048  11.314  10.126  12.788
 1384SOL    HW1 6049  11.360  10.197  12.743
 1384SOL    HW2 6050  11.287  10.066  12.717
 1385SOL     OW 6051   3.037  14.544   4.994
 1385SOL    HW1 6052   3.063  14.457   4.962
 1385SOL    HW2 6053   3.086  14.554   5.076
 1386SOL     OW 6054  12.755   1.666   0.025
 1386SOL    HW1 6055  12.690   1.686   0.093
 1386SOL    HW2 6056  12.776   1.751  14.856
 1387SOL     OW 6057   1.963  10.229  10.814
 1387SOL    HW1 6058   1.967  10.184  10.899
 1387SOL    HW2 6059   1.902  10.176  10.762
 1388SOL     OW 6060   2.619   6.853   8.270
 1388SOL    HW1 6061   2.634   6.947   8.258
 1388SOL    HW2 6062   2.705   6.816   8.289
 1389SOL     OW 6063   7.314  10.704  10.545
 1389SOL    HW1 6064   7.254  10.750  10.604
 1389SOL    HW2 6065   7.264  10.693  10.464
 1390SOL     OW 6066   8.356   5.499   3.011
 1390SOL    HW1 6067   8.360   5.589   3.043
 1390SOL    HW2 6068   8.266   5.472   3.026
 1391SOL     OW 6069   5.756   5.194   2.909
 1391SOL    HW1 6070   5.734   5.152   2.992
 1391SOL    HW2 6071   5.852   5.190   2.906
 1392SOL     OW 6072  13.791   4.740   2.041
 1392SOL    HW1 6073  13.780   4.788   1.958
 1392SOL    HW2 6074  13.703   4.711   2.064
 1393SOL     OW 6075   0.265   2.114  14.678
 1393SOL    HW1 6076   0.296   2.042  14.733
 1393SOL    HW2 6077   0.318   2.189  14.703
 1394SOL     OW 6078   1.821  13.797  11.414
 1394SOL    HW1 6079   1.887  13.730  11.399
 1394SOL    HW2 6080   1.776  13.769  11.493
 1395SOL     OW 6081   8.629   3.077   8.823
 1395SOL    HW1 6082   8.582   3.150   8.784
 1395SOL    HW2 6083   8.598   3.074   8.914
 1396SOL     OW 6084   5.387   8.300  13.137
 1396SOL    HW1 6085   5.402   8.388  13.101
 1396SOL    HW2 6086   5.421   8.241  13.070
 1397SOL     OW 6087   7.333   9.833   3.932
 1397SOL    HW1 6088   7.406   9.796   3.982
 1397SOL    HW2 6089   7.255   9.798   3.974
 1398SOL     OW 6090  13.376   2.967  14.846
 1398SOL    HW1 6091  13.327   2.916   0.041
 1398SOL    HW2 6092  13.312   3.028  14.809
 1399SOL     OW 6093   2.331  14.268   3.459
 1399SOL    HW1 6094   2.357  14.183   3.496
 1399SOL    HW2 6095   2.259  14.298   3.515
 1400SOL     OW 6096   3.075   1.287  14.501
 1400SOL    HW1 6097   2.983   1.276  14.525
 1400SOL    HW2 6098   3.123   1.250  14.575
 1401SOL     OW 6099   7.885   2.511   6.497
 1401SOL    HW1 6100   7.833   2.520   6.417
 1401SOL    HW2 6101   7.921   2.423   6.493
 1402SOL     OW 6102   8.687   8.142   4.083
 1402SOL    HW1 6103   8.740   8.195   4.023
 1402SOL    HW2 6104   8.752   8.098   4.138
 1403SOL     OW 6105  13.477   9.884  10.837
 1403SOL    HW1 6106  13.455   9.888  10.744
 1403SOL    HW2 6107  13.512   9.796  10.850
 1404SOL     OW 6108  12.427   1.224   6.070
 1404SOL    HW1 6109  12.370   1.158   6.032
 1404SOL    HW2 6110  12.514   1.204   6.034
 1405SOL     OW 6111   8.260   7.811   8.670
 1405SOL    HW1 6112   8.284   7.753   8.598
 1405SOL    HW2 6113   8.176   7.778   8.702
 1406SOL     OW 6114   3.015   7.980  10.722
 1406SOL    HW1 6115   2.960   8.012  10.793
 1406SOL    HW2 6116   2.991   8.034  10.646
 1407SOL     OW 6117   2.759  12.001   6.072
 1407SOL    HW1 6118   2.843  12.035   6.104
 1407SOL    HW2 6119   2.698  12.017   6.144
 1408SOL     OW 6120   2.721   9.232  11.796
 1408SOL    HW1 6121   2.657   9.162  11.806
 1408SOL    HW2 6122   2.767   9.211  11.715
 1409SOL     OW 6123   4.143   5.337   2.791
 1409SOL    HW1 6124   4.101   5.408   2.743
 1409SOL    HW2 6125   4.220   5.377   2.832
 1410SOL     OW 6126   4.621   7.557   5.856
 1410SOL    HW1 6127   4.630   7.626   5.921
 1410SOL    HW2 6128   4.638   7.476   5.904
 1411SOL     OW 6129  12.680   5.034   3.641
 1411SOL    HW1 6130  12.609   5.079   3.596
 1411SOL    HW2 6131  12.737   5.002   3.570
 1412SOL     OW 6132  11.985  12.011  10.137
 1412SOL    HW1 6133  11.964  12.080  10.200
 1412SOL    HW2 6134  11.909  12.007  10.079
 1413SOL     OW 6135  13.366  11.186   8.676
 1413SOL    HW1 6136  13.325  11.123   8.617
 1413SOL    HW2 6137  13.302  11.199   8.746
 1414SOL     OW 6138   6.340   2.417   5.328
 1414SOL    HW1 6139   6.334   2.323   5.342
 1414SOL    HW2 6140   6.433   2.437   5.337
 1415SOL     OW 6141  13.887   4.681  14.566
 1415SOL    HW1 6142  13.809   4.717  14.525
 1415SOL    HW2 6143  13.923   4.621  14.502
 1416SOL     OW 6144  11.896   4.665  10.767
 1416SOL    HW1 6145  11.956   4.628  10.832
 1416SOL    HW2 6146  11.880   4.755  10.797
 1417SOL     OW 6147   3.042   4.954   3.639
 1417SOL    HW1 6148   3.003   4.867   3.644
 1417SOL    HW2 6149   3.020   4.994   3.723
 1418SOL     OW 6150   1.911   5.649  11.376
 1418SOL    HW1 6151   1.941   5.631  11.466
 1418SOL    HW2 6152   1.878   5.738  11.380
 1419SOL     OW 6153   6.109  10.303  11.966
 1419SOL    HW1 6154   6.104  10.211  11.940
 1419SOL    HW2 6155   6.018  10.331  11.974
 1420SOL     OW 6156  10.195   1.227   9.716
 1420SOL    HW1 6157  10.236   1.162   9.774
 1420SOL    HW2 6158  10.212   1.194   9.628
 1421SOL     OW 6159   9.514   6.796  10.771
 1421SOL    HW1 6160   9.609   6.794  10.763
 1421SOL    HW2 6161   9.491   6.888  10.759
 1422SOL     OW 6162   3.823   7.960  13.905
 1422SOL    HW1 6163   3.913   7.991  13.895
 1422SOL    HW2 6164   3.781   8.025  13.960
 1423SOL     OW 6165   6.246  11.113   0.141
 1423SOL    HW1 6166   6.265  11.170   0.215
 1423SOL    HW2 6167   6.300  11.035   0.156
 1424SOL     OW 6168   6.807   5.496   6.508
 1424SOL    HW1 6169   6.767   5.553   6.442
 1424SOL    HW2 6170   6.854   5.556   6.566
 1425SOL     OW 6171   5.901   4.965   5.568
 1425SOL    HW1 6172   5.875   5.041   5.621
 1425SOL    HW2 6173   5.887   4.993   5.478
 1426SOL     OW 6174   7.772  14.536  11.344
 1426SOL    HW1 6175   7.852  14.493  11.315
 1426SOL    HW2 6176   7.769  14.617  11.293
 1427SOL     OW 6177   1.546  11.814   8.887
 1427SOL    HW1 6178   1.513  11.812   8.797
 1427SOL    HW2 6179   1.626  11.762   8.884
 1428SOL     OW 6180  13.183  11.870   5.360
 1428SOL    HW1 6181  13.158  11.955   5.326
 1428SOL    HW2 6182  13.104  11.816   5.352
 1429SOL     OW 6183  13.488   1.656   1.691
 1429SOL    HW1 6184  13.517   1.568   1.711
 1429SOL    HW2 6185  13.565   1.711   1.707
 1430SOL     OW 6186   5.892   7.423   0.630
 1430SOL    HW1 6187   5.924   7.334   0.643
 1430SOL    HW2 6188   5.971   7.477   0.623
 1431SOL     OW 6189   7.777   2.148  14.174
 1431SOL    HW1 6190   7.738   2.069  14.212
 1431SOL    HW2 6191   7.848   2.115  14.119
 1432SOL     OW 6192   9.108   3.614  14.244
 1432SOL    HW1 6193   9.143   3.689  14.196
 1432SOL    HW2 6194   9.169   3.601  14.317
 1433SOL     OW 6195   8.689  10.473   0.607
 1433SOL    HW1 6196   8.704  10.470   0.702
 1433SOL    HW2 6197   8.701  10.383   0.577
 1434SOL     OW 6198   8.421   3.564   6.945
 1434SOL    HW1 6199   8.396   3.518   7.025
 1434SOL    HW2 6200   8.342   3.611   6.918
 1435SOL     OW 6201   9.979   1.778   2.622
 1435SOL    HW1 6202   9.890   1.808   2.635
 1435SOL    HW2 6203   9.975   1.724   2.543
 1436SOL     OW 6204   3.982   4.734   4.911
 1436SOL    HW1 6205   3.956   4.825   4.920
 1436SOL    HW2 6206   3.971   4.715   4.818
 1437SOL     OW 6207   5.891   2.937  12.758
 1437SOL    HW1 6208   5.891   3.029  12.786
 1437SOL    HW2 6209   5.981   2.922  12.728
 1438SOL     OW 6210  12.919  12.034   9.240
 1438SOL    HW1 6211  12.979  12.049   9.167
 1438SOL    HW2 6212  12.851  11.978   9.203
 1439SOL     OW 6213  14.115  13.847  13.293
 1439SOL    HW1 6214  14.079  13.759  13.282
 1439SOL    HW2 6215  14.065  13.901  13.232
 1440SOL     OW 6216   4.122  11.552   5.363
 1440SOL    HW1 6217   4.161  11.537   5.449
 1440SOL    HW2 6218   4.041  11.502   5.364
 1441SOL     OW 6219   0.704   5.672   3.205
 1441SOL    HW1 6220   0.767   5.662   3.276
 1441SOL    HW2 6221   0.688   5.583   3.174
 1442SOL     OW 6222   3.800  11.729  11.586
 1442SOL    HW1 6223   3.787  11.763  11.497
 1442SOL    HW2 6224   3.894  11.712  11.591
 1443SOL     OW 6225   1.925   9.692   1.531
 1443SOL    HW1 6226   1.929   9.687   1.626
 1443SOL    HW2 6227   1.906   9.783   1.512
 1444SOL     OW 6228  10.514   7.054   6.529
 1444SOL    HW1 6229  10.575   6.984   6.506
 1444SOL    HW2 6230  10.432   7.029   6.486
 1445SOL     OW 6231   2.998  11.075   1.307
 1445SOL    HW1 6232   3.008  11.161   1.265
 1445SOL    HW2 6233   3.047  11.015   1.251
 1446SOL     OW 6234  12.802   4.275   5.340
 1446SOL    HW1 6235  12.709   4.289   5.324
 1446SOL    HW2 6236  12.845   4.313   5.263
 1447SOL     OW 6237  10.194   8.410  10.854
 1447SOL    HW1 6238  10.147   8.494  10.857
 1447SOL    HW2 6239  10.125   8.344  10.853
 1448SOL     OW 6240   5.163   0.063   9.687
 1448SOL    HW1 6241   5.214   0.002   9.634
 1448SOL    HW2 6242   5.093   0.010   9.725
 1449SOL     OW 6243  14.758  11.950   0.978
 1449SOL    HW1 6244  14.733  12.024   1.033
 1449SOL    HW2 6245  14.745  11.981   0.888
 1450SOL     OW 6246   2.649   2.919  13.288
 1450SOL    HW1 6247   2.742   2.931  13.274
 1450SOL    HW2 6248   2.636   2.932  13.382
 1451SOL     OW 6249   9.087   5.247   6.148
 1451SOL    HW1 6250   9.026   5.297   6.202
 1451SOL    HW2 6251   9.173   5.276   6.177
 1452SOL     OW 6252  11.442   1.230  10.906
 1452SOL    HW1 6253  11.479   1.314  10.879
 1452SOL    HW2 6254  11.454   1.172  10.831
 1453SOL     OW 6255  12.361   8.213   8.218
 1453SOL    HW1 6256  12.367   8.130   8.171
 1453SOL    HW2 6257  12.316   8.192   8.299
 1454SOL     OW 6258  10.211  13.410   4.949
 1454SOL    HW1 6259  10.122  13.416   4.982
 1454SOL    HW2 6260  10.264  13.460   5.012
 1455SOL     OW 6261   5.356   8.117  11.331
 1455SOL    HW1 6262   5.338   8.181  11.263
 1455SOL    HW2 6263   5.413   8.052  11.289
 1456SOL     OW 6264  10.378  13.935   5.534
 1456SOL    HW1 6265  10.349  14.007   5.478
 1456SOL    HW2 6266  10.328  13.946   5.614
 1457SOL     OW 6267  10.673  12.489  14.294
 1457SOL    HW1 6268  10.624  12.456  14.369
 1457SOL    HW2 6269  10.751  12.530  14.332
 1458SOL     OW 6270   6.673   2.940   3.140
 1458SOL    HW1 6271   6.723   2.896   3.071
 1458SOL    HW2 6272   6.714   3.027   3.146
 1459SOL     OW 6273  12.671  11.365   4.251
 1459SOL    HW1 6274  12.744  11.404   4.299
 1459SOL    HW2 6275  12.627  11.439   4.210
 1460SOL     OW 6276   0.764   5.118   9.750
 1460SOL    HW1 6277   0.842   5.088   9.796
 1460SOL    HW2 6278   0.783   5.101   9.658
 1461SOL     OW 6279  12.201  11.280   3.315
 1461SOL    HW1 6280  12.124  11.238   3.355
 1461SOL    HW2 6281  12.194  11.258   3.222
 1462SOL     OW 6282  10.625  11.208  12.249
 1462SOL    HW1 6283  10.608  11.211  12.343
 1462SOL    HW2 6284  10.704  11.153  12.241
 1463SOL     OW 6285   9.400  10.061  11.756
 1463SOL    HW1 6286   9.454  10.126  11.801
 1463SOL    HW2 6287   9.425   9.978  11.796
 1464SOL     OW 6288   7.510  13.865   7.944
 1464SOL    HW1 6289   7.565  13.808   7.890
 1464SOL    HW2 6290   7.426  13.868   7.898
 1465SOL     OW 6291   6.242   8.976   3.371
 1465SOL    HW1 6292   6.163   8.924   3.359
 1465SOL    HW2 6293   6.219   9.064   3.340
 1466SOL     OW 6294   8.241   3.019   9.287
 1466SOL    HW1 6295   8.320   2.967   9.276
 1466SOL    HW2 6296   8.179   2.982   9.224
 1467SOL     OW 6297  11.832   4.047   7.798
 1467SOL    HW1 6298  11.765   4.107   7.766
 1467SOL    HW2 6299  11.863   4.001   7.720
 1468SOL     OW 6300   9.515  14.082  12.886
 1468SOL    HW1 6301   9.576  14.016  12.854
 1468SOL    HW2 6302   9.496  14.056  12.976
 1469SOL     OW 6303   7.753  10.489   4.313
 1469SOL    HW1 6304   7.841  10.452   4.302
 1469SOL    HW2 6305   7.701  10.418   4.350
 1470SOL     OW 6306   8.737   9.321   5.827
 1470SOL    HW1 6307   8.741   9.378   5.904
 1470SOL    HW2 6308   8.798   9.250   5.847
 1471SOL     OW 6309   2.604  11.095   8.877
 1471SOL    HW1 6310   2.544  11.076   8.949
 1471SOL    HW2 6311   2.593  11.023   8.815
 1472SOL     OW 6312   6.466   5.548   6.756
 1472SOL    HW1 6313   6.377   5.515   6.773
 1472SOL    HW2 6314   6.462   5.583   6.668
 1473SOL     OW 6315   5.321   4.749   7.212
 1473SOL    HW1 6316   5.394   4.718   7.159
 1473SOL    HW2 6317   5.336   4.843   7.222
 1474SOL     OW 6318  11.875  12.748  12.479
 1474SOL    HW1 6319  11.963  12.739  12.514
 1474SOL    HW2 6320  11.842  12.658  12.475
 1475SOL     OW 6321   0.150  13.532   4.093
 1475SOL    HW1 6322   0.057  13.518   4.111
 1475SOL    HW2 6323   0.165  13.623   4.118
 1476SOL     OW 6324   9.281   2.064   4.826
 1476SOL    HW1 6325   9.267   2.063   4.921
 1476SOL    HW2 6326   9.195   2.043   4.789
 1477SOL     OW 6327   4.864   6.195   0.865
 1477SOL    HW1 6328   4.773   6.213   0.889
 1477SOL    HW2 6329   4.870   6.219   0.772
 1478SOL     OW 6330   0.486   6.623   3.346
 1478SOL    HW1 6331   0.398   6.611   3.312
 1478SOL    HW2 6332   0.512   6.710   3.316
 1479SOL     OW 6333   7.977  14.286   0.670
 1479SOL    HW1 6334   7.924  14.316   0.596
 1479SOL    HW2 6335   8.039  14.225   0.631
 1480SOL     OW 6336  11.157   8.229   9.102
 1480SOL    HW1 6337  11.242   8.266   9.080
 1480SOL    HW2 6338  11.153   8.231   9.197
 1481SOL     OW 6339   0.762   5.872   4.357
 1481SOL    HW1 6340   0.686   5.921   4.387
 1481SOL    HW2 6341   0.835   5.904   4.411
 1482SOL     OW 6342   5.176  14.283   2.680
 1482SOL    HW1 6343   5.242  14.270   2.749
 1482SOL    HW2 6344   5.104  14.326   2.725
 1483SOL     OW 6345   3.303   5.903   1.434
 1483SOL    HW1 6346   3.241   5.922   1.505
 1483SOL    HW2 6347   3.387   5.888   1.478
 1484SOL     OW 6348   3.901  12.109   4.715
 1484SOL    HW1 6349   3.956  12.057   4.774
 1484SOL    HW2 6350   3.892  12.194   4.760
 1485SOL     OW 6351   6.513  12.337  11.296
 1485SOL    HW1 6352   6.506  12.432  11.308
 1485SOL    HW2 6353   6.476  12.321  11.209
 1486SOL     OW 6354  12.832  10.921   1.625
 1486SOL    HW1 6355  12.863  11.010   1.609
 1486SOL    HW2 6356  12.899  10.865   1.587
 1487SOL     OW 6357   4.413  14.150   5.856
 1487SOL    HW1 6358   4.372  14.185   5.777
 1487SOL    HW2 6359   4.438  14.061   5.832
 1488SOL     OW 6360  13.729   5.743  12.077
 1488SOL    HW1 6361  13.771   5.687  12.143
 1488SOL    HW2 6362  13.799   5.767  12.017
 1489SOL     OW 6363   9.996   8.071   8.255
 1489SOL    HW1 6364  10.054   7.995   8.249
 1489SOL    HW2 6365   9.941   8.053   8.331
 1490SOL     OW 6366   5.114   2.800  13.136
 1490SOL    HW1 6367   5.021   2.781  13.127
 1490SOL    HW2 6368   5.118   2.870  13.201
 1491SOL     OW 6369  14.649   6.702   9.007
 1491SOL    HW1 6370  14.735   6.744   9.013
 1491SOL    HW2 6371  14.667   6.613   8.977
 1492SOL     OW 6372  11.016  12.015  13.773
 1492SOL    HW1 6373  11.086  11.959  13.738
 1492SOL    HW2 6374  11.059  12.098  13.793
 1493SOL     OW 6375   3.132   4.331   1.794
 1493SOL    HW1 6376   3.138   4.255   1.851
 1493SOL    HW2 6377   3.060   4.383   1.829
 1494SOL     OW 6378   5.684   4.073  14.708
 1494SOL    HW1 6379   5.695   4.163  14.740
 1494SOL    HW2 6380   5.677   4.082  14.613
 1495SOL     OW 6381   0.769   6.444   8.133
 1495SOL    HW1 6382   0.720   6.519   8.101
 1495SOL    HW2 6383   0.791   6.393   8.054
 1496SOL     OW 6384   0.833   9.194   0.252
 1496SOL    HW1 6385   0.777   9.173   0.327
 1496SOL    HW2 6386   0.903   9.248   0.289
 1497SOL     OW 6387   0.214   4.309  13.921
 1497SOL    HW1 6388   0.266   4.386  13.942
 1497SOL    HW2 6389   0.268   4.260  13.859
 1498SOL     OW 6390   8.233   5.616   8.584
 1498SOL    HW1 6391   8.251   5.619   8.677
 1498SOL    HW2 6392   8.146   5.654   8.575
 1499SOL     OW 6393   5.917   0.680  13.635
 1499SOL    HW1 6394   5.841   0.643  13.680
 1499SOL    HW2 6395   5.976   0.706  13.706
 1500SOL     OW 6396  10.742   7.614  14.527
 1500SOL    HW1 6397  10.771   7.665  14.451
 1500SOL    HW2 6398  10.668   7.563  14.495
 1501SOL     OW 6399   7.358   7.582   6.959
 1501SOL    HW1 6400   7.270   7.614   6.980
 1501SOL    HW2 6401   7.378   7.521   7.030
 1502SOL     OW 6402   7.117   1.954   2.587
 1502SOL    HW1 6403   7.185   1.965   2.520
 1502SOL    HW2 6404   7.164   1.920   2.663
 1503SOL     OW 6405   3.849   6.510  12.034
 1503SOL    HW1 6406   3.913   6.445  12.009
 1503SOL    HW2 6407   3.852   6.512  12.130
 1504SOL     OW 6408  10.486   6.740  12.015
 1504SOL    HW1 6409  10.544   6.716  12.088
 1504SOL    HW2 6410  10.545   6.768  11.945
 1505SOL     OW 6411   5.925   7.814   4.938
 1505SOL    HW1 6412   5.838   7.837   4.969
 1505SOL    HW2 6413   5.940   7.870   4.862
 1506SOL     OW 6414   5.125   5.977   0.561
 1506SOL    HW1 6415   5.158   6.062   0.590
 1506SOL    HW2 6416   5.034   5.993   0.537
 1507SOL     OW 6417   6.668   1.929   5.528
 1507SOL    HW1 6418   6.752   1.905   5.567
 1507SOL    HW2 6419   6.648   1.857   5.468
 1508SOL     OW 6420   2.889  12.222  11.361
 1508SOL    HW1 6421   2.905  12.197  11.452
 1508SOL    HW2 6422   2.925  12.150  11.309
 1509SOL     OW 6423  13.593   6.476  11.708
 1509SOL    HW1 6424  13.636   6.485  11.793
 1509SOL    HW2 6425  13.529   6.547  11.706
 1510SOL     OW 6426  14.836   6.451   4.522
 1510SOL    HW1 6427  14.790   6.534   4.517
 1510SOL    HW2 6428   0.042   6.468   4.578
 1511SOL     OW 6429   6.977   9.227   7.496
 1511SOL    HW1 6430   6.916   9.153   7.506
 1511SOL    HW2 6431   6.983   9.239   7.401
 1512SOL     OW 6432  14.279  12.150  10.738
 1512SOL    HW1 6433  14.343  12.081  10.759
 1512SOL    HW2 6434  14.332  12.226  10.716
 1513SOL     OW 6435   8.901   9.719   0.829
 1513SOL    HW1 6436   8.914   9.700   0.922
 1513SOL    HW2 6437   8.985   9.699   0.789
 1514SOL     OW 6438   7.956  13.092   9.253
 1514SOL    HW1 6439   7.970  13.109   9.346
 1514SOL    HW2 6440   7.888  13.025   9.250
 1515SOL     OW 6441   5.838  13.317  11.363
 1515SOL    HW1 6442   5.796  13.376  11.426
 1515SOL    HW2 6443   5.929  13.311  11.394
 1516SOL     OW 6444  10.274   0.939  14.619
 1516SOL    HW1 6445  10.351   0.881  14.618
 1516SOL    HW2 6446  10.201   0.881  14.641
 1517SOL     OW 6447  11.374   6.033   5.893
 1517SOL    HW1 6448  11.450   6.071   5.937
 1517SOL    HW2 6449  11.374   5.941   5.921
 1518SOL     OW 6450   1.944   1.538   5.407
 1518SOL    HW1 6451   1.863   1.559   5.362
 1518SOL    HW2 6452   1.918   1.523   5.498
 1519SOL     OW 6453   6.751   7.502  12.482
 1519SOL    HW1 6454   6.837   7.494  12.523
 1519SOL    HW2 6455   6.767   7.484  12.389
 1520SOL     OW 6456  14.399   4.349   7.089
 1520SOL    HW1 6457  14.357   4.314   7.168
 1520SOL    HW2 6458  14.486   4.308   7.088
 1521SOL     OW 6459  13.670   1.002  14.826
 1521SOL    HW1 6460  13.729   0.947   0.007
 1521SOL    HW2 6461  13.646   1.072   0.016
 1522SOL     OW 6462  10.440  14.605  11.303
 1522SOL    HW1 6463  10.360  14.656  11.315
 1522SOL    HW2 6464  10.444  14.547  11.379
 1523SOL     OW 6465  12.809   8.384   5.466
 1523SOL    HW1 6466  12.886   8.430   5.498
 1523SOL    HW2 6467  12.736   8.445   5.480
 1524SOL     OW 6468   6.608   6.835  12.312
 1524SOL    HW1 6469   6.578   6.744  12.313
 1524SOL    HW2 6470   6.546   6.880  12.255
 1525SOL     OW 6471  12.226   1.686   3.666
 1525SOL    HW1 6472  12.144   1.674   3.713
 1525SOL    HW2 6473  12.200   1.702   3.575
 1526SOL     OW 6474   6.767   1.070   3.151
 1526SOL    HW1 6475   6.829   1.058   3.079
 1526SOL    HW2 6476   6.813   1.125   3.214
 1527SOL     OW 6477   4.168   9.843   3.173
 1527SOL    HW1 6478   4.201   9.837   3.262
 1527SOL    HW2 6479   4.113   9.765   3.162
 1528SOL     OW 6480   0.552   5.603   2.076
 1528SOL    HW1 6481   0.535   5.513   2.048
 1528SOL    HW2 6482   0.644   5.603   2.101
 1529SOL     OW 6483   6.897   3.050  13.335
 1529SOL    HW1 6484   6.822   3.010  13.291
 1529SOL    HW2 6485   6.939   2.977  13.381
 1530SOL     OW 6486   4.496   6.072  10.598
 1530SOL    HW1 6487   4.472   6.160  10.626
 1530SOL    HW2 6488   4.542   6.035  10.673
 1531SOL     OW 6489  14.711  12.995   1.133
 1531SOL    HW1 6490  14.759  13.059   1.186
 1531SOL    HW2 6491  14.630  12.980   1.182
 1532SOL     OW 6492   9.768  11.421   2.422
 1532SOL    HW1 6493   9.673  11.407   2.418
 1532SOL    HW2 6494   9.782  11.499   2.368
 1533SOL     OW 6495   7.572  11.255   6.536
 1533SOL    HW1 6496   7.517  11.209   6.599
 1533SOL    HW2 6497   7.518  11.329   6.507
 1534SOL     OW 6498   2.835   0.303   8.091
 1534SOL    HW1 6499   2.810   0.388   8.056
 1534SOL    HW2 6500   2.898   0.323   8.160
 1535SOL     OW 6501   6.657   3.595  10.651
 1535SOL    HW1 6502   6.657   3.687  10.625
 1535SOL    HW2 6503   6.745   3.580  10.687
 1536SOL     OW 6504  12.233   3.211  10.291
 1536SOL    HW1 6505  12.242   3.303  10.267
 1536SOL    HW2 6506  12.138   3.196  10.293
 1537SOL     OW 6507   2.858   4.039   5.886
 1537SOL    HW1 6508   2.904   3.995   5.815
 1537SOL    HW2 6509   2.855   3.975   5.957
 1538SOL     OW 6510   6.651   8.308  10.236
 1538SOL    HW1 6511   6.708   8.237  10.207
 1538SOL    HW2 6512   6.591   8.268  10.299
 1539SOL     OW 6513  13.898  14.591   0.106
 1539SOL    HW1 6514  13.906  14.527   0.178
 1539SOL    HW2 6515  13.962  14.562   0.041
 1540SOL     OW 6516   3.773   3.236  12.270
 1540SOL    HW1 6517   3.714   3.219  12.344
 1540SOL    HW2 6518   3.836   3.164  12.273
 1541SOL     OW 6519   1.689   9.385   5.429
 1541SOL    HW1 6520   1.594   9.372   5.419
 1541SOL    HW2 6521   1.697   9.441   5.506
 1542SOL     OW 6522  10.461   0.310   7.956
 1542SOL    HW1 6523  10.536   0.335   8.009
 1542SOL    HW2 6524  10.498   0.290   7.870
 1543SOL     OW 6525  12.305   1.880   9.852
 1543SOL    HW1 6526  12.348   1.892   9.767
 1543SOL    HW2 6527  12.251   1.958   9.862
 1544SOL     OW 6528   5.969   7.928   5.479
 1544SOL    HW1 6529   5.927   7.926   5.565
 1544SOL    HW2 6530   6.063   7.932   5.498
 1545SOL     OW 6531   0.889  13.592   5.235
 1545SOL    HW1 6532   0.872  13.578   5.329
 1545SOL    HW2 6533   0.971  13.641   5.233
 1546SOL     OW 6534  10.287   5.614   3.918
 1546SOL    HW1 6535  10.270   5.526   3.953
 1546SOL    HW2 6536  10.215   5.668   3.953
 1547SOL     OW 6537   2.085   7.160  13.873
 1547SOL    HW1 6538   2.129   7.244  13.885
 1547SOL    HW2 6539   1.998   7.182  13.840
 1548SOL     OW 6540   4.681   4.044   9.607
 1548SOL    HW1 6541   4.596   4.001   9.597
 1548SOL    HW2 6542   4.669   4.104   9.681
 1549SOL     OW 6543  10.871   0.667   1.353
 1549SOL    HW1 6544  10.805   0.633   1.293
 1549SOL    HW2 6545  10.823   0.689   1.432
 1550SOL     OW 6546   2.547  12.513   6.952
 1550SOL    HW1 6547   2.586  12.446   7.008
 1550SOL    HW2 6548   2.453  12.505   6.967
 1551SOL     OW 6549  11.983   5.852   3.007
 1551SOL    HW1 6550  11.960   5.937   3.046
 1551SOL    HW2 6551  11.951   5.788   3.070
 1552SOL     OW 6552  14.418  13.441  11.026
 1552SOL    HW1 6553  14.479  13.382  11.071
 1552SOL    HW2 6554  14.342  13.446  11.084
 1553SOL     OW 6555   0.544  12.578  12.174
 1553SOL    HW1 6556   0.562  12.503  12.230
 1553SOL    HW2 6557   0.560  12.545  12.085
 1554SOL     OW 6558   8.036   6.526  10.297
 1554SOL    HW1 6559   7.988   6.487  10.370
 1554SOL    HW2 6560   8.083   6.600  10.337
 1555SOL     OW 6561   0.708   6.905  11.310
 1555SOL    HW1 6562   0.640   6.968  11.285
 1555SOL    HW2 6563   0.702   6.836  11.245
 1556SOL     OW 6564  14.662  12.718   3.942
 1556SOL    HW1 6565  14.599  12.716   4.014
 1556SOL    HW2 6566  14.658  12.631   3.903
 1557SOL     OW 6567  14.378   4.095  14.226
 1557SOL    HW1 6568  14.396   4.186  14.202
 1557SOL    HW2 6569  14.426   4.043  14.162
 1558SOL     OW 6570  12.474   8.264   9.652
 1558SOL    HW1 6571  12.448   8.180   9.615
 1558SOL    HW2 6572  12.545   8.244   9.712
 1559SOL     OW 6573   8.410   1.778  13.387
 1559SOL    HW1 6574   8.382   1.710  13.448
 1559SOL    HW2 6575   8.437   1.851  13.442
 1560SOL     OW 6576   6.271   3.123  14.154
 1560SOL    HW1 6577   6.264   3.218  14.158
 1560SOL    HW2 6578   6.181   3.092  14.147
 1561SOL     OW 6579  12.247  13.035  14.839
 1561SOL    HW1 6580  12.275  13.118  14.801
 1561SOL    HW2 6581  12.152  13.043  14.848
 1562SOL     OW 6582   7.379   1.540  14.366
 1562SOL    HW1 6583   7.438   1.474  14.329
 1562SOL    HW2 6584   7.303   1.491  14.396
 1563SOL     OW 6585  13.119   0.469   8.854
 1563SOL    HW1 6586  13.109   0.375   8.838
 1563SOL    HW2 6587  13.128   0.476   8.949
 1564SOL     OW 6588   7.809   9.222   6.450
 1564SOL    HW1 6589   7.714   9.214   6.457
 1564SOL    HW2 6590   7.840   9.225   6.541
 1565SOL     OW 6591   4.368   0.775  14.052
 1565SOL    HW1 6592   4.293   0.834  14.048
 1565SOL    HW2 6593   4.347   0.715  14.123
 1566SOL     OW 6594  10.033   3.017   9.188
 1566SOL    HW1 6595  10.032   3.000   9.282
 1566SOL    HW2 6596   9.941   3.033   9.165
 1567SOL     OW 6597   7.836   3.256   9.661
 1567SOL    HW1 6598   7.823   3.269   9.567
 1567SOL    HW2 6599   7.912   3.199   9.667
 1568SOL     OW 6600   2.982  12.636   0.152
 1568SOL    HW1 6601   3.005  12.552   0.113
 1568SOL    HW2 6602   2.978  12.697   0.078
 1569SOL     OW 6603   6.363   4.071   6.705
 1569SOL    HW1 6604   6.312   3.991   6.693
 1569SOL    HW2 6605   6.422   4.073   6.629
 1570SOL     OW 6606   5.877   2.416  11.895
 1570SOL    HW1 6607   5.914   2.406  11.983
 1570SOL    HW2 6608   5.806   2.352  11.892
 1571SOL     OW 6609   6.532  13.394   1.973
 1571SOL    HW1 6610   6.446  13.408   2.014
 1571SOL    HW2 6611   6.579  13.339   2.035
 1572SOL     OW 6612  11.349   3.694  14.301
 1572SOL    HW1 6613  11.428   3.720  14.349
 1572SOL    HW2 6614  11.351   3.598  14.304
 1573SOL     OW 6615  13.519  14.120   2.580
 1573SOL    HW1 6616  13.540  14.112   2.487
 1573SOL    HW2 6617  13.501  14.031   2.609
 1574SOL     OW 6618   1.579   6.621   0.396
 1574SOL    HW1 6619   1.527   6.556   0.350
 1574SOL    HW2 6620   1.651   6.642   0.336
 1575SOL     OW 6621   4.018   3.956   0.663
 1575SOL    HW1 6622   4.030   4.051   0.666
 1575SOL    HW2 6623   3.935   3.941   0.709
 1576SOL     OW 6624   6.793   8.718  10.403
 1576SOL    HW1 6625   6.861   8.781  10.381
 1576SOL    HW2 6626   6.827   8.634  10.370
 1577SOL     OW 6627   7.135   7.435   2.541
 1577SOL    HW1 6628   7.067   7.474   2.486
 1577SOL    HW2 6629   7.086   7.386   2.607
 1578SOL     OW 6630   3.396  10.097  13.363
 1578SOL    HW1 6631   3.466  10.129  13.420
 1578SOL    HW2 6632   3.431  10.104  13.274
 1579SOL     OW 6633  11.966  11.167  14.815
 1579SOL    HW1 6634  11.914  11.212   0.011
 1579SOL    HW2 6635  11.905  11.108  14.771
 1580SOL     OW 6636   7.115   9.384   9.770
 1580SOL    HW1 6637   7.142   9.304   9.726
 1580SOL    HW2 6638   7.072   9.436   9.702
 1581SOL     OW 6639  11.197   2.758  11.217
 1581SOL    HW1 6640  11.191   2.710  11.134
 1581SOL    HW2 6641  11.165   2.845  11.197
 1582SOL     OW 6642  11.933   6.776   9.491
 1582SOL    HW1 6643  11.961   6.792   9.401
 1582SOL    HW2 6644  11.845   6.739   9.483
 1583SOL     OW 6645   6.239   5.654  14.521
 1583SOL    HW1 6646   6.159   5.604  14.535
 1583SOL    HW2 6647   6.271   5.672  14.610
 1584SOL     OW 6648   3.228   6.161  12.086
 1584SOL    HW1 6649   3.133   6.156  12.097
 1584SOL    HW2 6650   3.263   6.138  12.172
 1585SOL     OW 6651  11.866  11.750   1.147
 1585SOL    HW1 6652  11.954  11.721   1.122
 1585SOL    HW2 6653  11.876  11.781   1.237
 1586SOL     OW 6654   2.635  12.261   9.968
 1586SOL    HW1 6655   2.601  12.330   9.911
 1586SOL    HW2 6656   2.668  12.309  10.045
 1587SOL     OW 6657   1.557  13.868   9.291
 1587SOL    HW1 6658   1.569  13.903   9.379
 1587SOL    HW2 6659   1.646  13.863   9.255
 1588SOL     OW 6660   2.126   3.334   9.650
 1588SOL    HW1 6661   2.043   3.331   9.699
 1588SOL    HW2 6662   2.125   3.255   9.597
 1589SOL     OW 6663   9.799  11.971   2.090
 1589SOL    HW1 6664   9.840  12.036   2.147
 1589SOL    HW2 6665   9.848  11.890   2.107
 1590SOL     OW 6666   5.991  12.091   0.116
 1590SOL    HW1 6667   5.963  12.179   0.142
 1590SOL    HW2 6668   5.955  12.034   0.183
 1591SOL     OW 6669  12.432   4.234   2.834
 1591SOL    HW1 6670  12.515   4.278   2.854
 1591SOL    HW2 6671  12.400   4.277   2.755
 1592SOL     OW 6672   0.268  11.677  14.244
 1592SOL    HW1 6673   0.303  11.762  14.218
 1592SOL    HW2 6674   0.174  11.692  14.254
 1593SOL     OW 6675   2.332   9.422   2.624
 1593SOL    HW1 6676   2.318   9.373   2.705
 1593SOL    HW2 6677   2.326   9.355   2.555
 1594SOL     OW 6678   9.161  13.909  11.898
 1594SOL    HW1 6679   9.254  13.894  11.885
 1594SOL    HW2 6680   9.138  13.856  11.975
 1595SOL     OW 6681  10.427   2.462   9.011
 1595SOL    HW1 6682  10.461   2.456   9.100
 1595SOL    HW2 6683  10.359   2.394   9.007
 1596SOL     OW 6684  10.924   7.434  12.258
 1596SOL    HW1 6685  10.901   7.463  12.347
 1596SOL    HW2 6686  10.934   7.515  12.208
 1597SOL     OW 6687   2.199   0.748  11.952
 1597SOL    HW1 6688   2.228   0.793  12.032
 1597SOL    HW2 6689   2.158   0.816  11.899
 1598SOL     OW 6690   4.172   6.529   4.399
 1598SOL    HW1 6691   4.185   6.595   4.332
 1598SOL    HW2 6692   4.258   6.489   4.410
 1599SOL     OW 6693   7.458   8.835   5.709
 1599SOL    HW1 6694   7.374   8.856   5.667
 1599SOL    HW2 6695   7.435   8.817   5.800
 1600SOL     OW 6696  10.366   5.728   0.536
 1600SOL    HW1 6697  10.407   5.757   0.454
 1600SOL    HW2 6698  10.314   5.652   0.511
 1601SOL     OW 6699   5.177  14.114   7.340
 1601SOL    HW1 6700   5.222  14.111   7.256
 1601SOL    HW2 6701   5.221  14.046   7.393
 1602SOL     OW 6702  10.850   7.492   4.503
 1602SOL    HW1 6703  10.880   7.447   4.582
 1602SOL    HW2 6704  10.930   7.523   4.461
 1603SOL     OW 6705   5.573   4.332   0.998
 1603SOL    HW1 6706   5.517   4.367   0.928
 1603SOL    HW2 6707   5.574   4.401   1.065
 1604SOL     OW 6708  13.440  10.488   7.395
 1604SOL    HW1 6709  13.533  10.476   7.412
 1604SOL    HW2 6710  13.402  10.508   7.480
 1605SOL     OW 6711  14.201  12.928   8.293
 1605SOL    HW1 6712  14.291  12.898   8.281
 1605SOL    HW2 6713  14.159  12.912   8.208
 1606SOL     OW 6714   7.094  14.600   1.248
 1606SOL    HW1 6715   7.113  14.671   1.186
 1606SOL    HW2 6716   7.015  14.629   1.293
 1607SOL     OW 6717   7.066  14.074  12.059
 1607SOL    HW1 6718   7.122  14.130  12.112
 1607SOL    HW2 6719   7.022  14.016  12.123
 1608SOL     OW 6720   2.364   8.127  12.360
 1608SOL    HW1 6721   2.364   8.068  12.435
 1608SOL    HW2 6722   2.280   8.111  12.317
 1609SOL     OW 6723  11.952   4.613  11.443
 1609SOL    HW1 6724  12.022   4.584  11.501
 1609SOL    HW2 6725  11.897   4.670  11.498
 1610SOL     OW 6726   1.072   4.287   6.170
 1610SOL    HW1 6727   1.004   4.256   6.229
 1610SOL    HW2 6728   1.039   4.370   6.135
 1611SOL     OW 6729   8.613  10.454  14.416
 1611SOL    HW1 6730   8.695  10.452  14.464
 1611SOL    HW2 6731   8.619  10.382  14.354
 1612SOL     OW 6732   2.863   7.886   2.168
 1612SOL    HW1 6733   2.797   7.894   2.100
 1612SOL    HW2 6734   2.813   7.860   2.246
 1613SOL     OW 6735   4.063   1.453  10.261
 1613SOL    HW1 6736   4.124   1.503  10.205
 1613SOL    HW2 6737   3.993   1.515  10.280
 1614SOL     OW 6738   2.578   7.220  12.865
 1614SOL    HW1 6739   2.508   7.168  12.826
 1614SOL    HW2 6740   2.635   7.155  12.908
 1615SOL     OW 6741  11.771  14.438  12.112
 1615SOL    HW1 6742  11.743  14.480  12.031
 1615SOL    HW2 6743  11.858  14.402  12.092
 1616SOL     OW 6744   9.551  12.986  14.673
 1616SOL    HW1 6745   9.571  13.030  14.590
 1616SOL    HW2 6746   9.637  12.967  14.711
 1617SOL     OW 6747   0.773   4.600  12.618
 1617SOL    HW1 6748   0.763   4.694  12.627
 1617SOL    HW2 6749   0.753   4.565  12.705
 1618SOL     OW 6750   6.504  10.022   1.082
 1618SOL    HW1 6751   6.456   9.958   1.030
 1618SOL    HW2 6752   6.443  10.096   1.091
 1619SOL     OW 6753   5.488   2.375   9.782
 1619SOL    HW1 6754   5.429   2.300   9.792
 1619SOL    HW2 6755   5.484   2.395   9.689
 1620SOL     OW 6756  10.796   4.484  12.056
 1620SOL    HW1 6757  10.723   4.478  12.119
 1620SOL    HW2 6758  10.837   4.398  12.059
 1621SOL     OW 6759  12.115  13.445   3.649
 1621SOL    HW1 6760  12.173  13.450   3.572
 1621SOL    HW2 6761  12.175  13.439   3.723
 1622SOL     OW 6762   7.104   3.890   8.115
 1622SOL    HW1 6763   7.046   3.875   8.041
 1622SOL    HW2 6764   7.146   3.975   8.096
 1623SOL     OW 6765   1.322  11.660   1.404
 1623SOL    HW1 6766   1.283  11.731   1.354
 1623SOL    HW2 6767   1.249  11.618   1.449
 1624SOL     OW 6768   8.895  12.197   7.154
 1624SOL    HW1 6769   8.971  12.253   7.136
 1624SOL    HW2 6770   8.933  12.116   7.189
 1625SOL     OW 6771  12.151   2.655  12.127
 1625SOL    HW1 6772  12.160   2.595  12.052
 1625SOL    HW2 6773  12.173   2.741  12.091
 1626SOL     OW 6774   3.517  10.736   3.192
 1626SOL    HW1 6775   3.456  10.792   3.239
 1626SOL    HW2 6776   3.524  10.657   3.245
 1627SOL     OW 6777  10.947  12.069   5.288
 1627SOL    HW1 6778  10.913  12.038   5.204
 1627SOL    HW2 6779  10.931  12.163   5.286
 1628SOL     OW 6780   7.221   1.261  12.031
 1628SOL    HW1 6781   7.298   1.236  12.081
 1628SOL    HW2 6782   7.219   1.356  12.034
 1629SOL     OW 6783   9.002  11.122   5.870
 1629SOL    HW1 6784   8.914  11.084   5.867
 1629SOL    HW2 6785   8.998  11.197   5.811
 1630SOL     OW 6786   5.184   8.487   4.979
 1630SOL    HW1 6787   5.163   8.562   4.923
 1630SOL    HW2 6788   5.102   8.437   4.983
 1631SOL     OW 6789  14.026   4.476   3.284
 1631SOL    HW1 6790  14.028   4.537   3.357
 1631SOL    HW2 6791  13.936   4.445   3.279
 1632SOL     OW 6792   0.187  14.514  10.027
 1632SOL    HW1 6793   0.105  14.550   9.994
 1632SOL    HW2 6794   0.163  14.473  10.111
 1633SOL     OW 6795  10.833   4.413   0.979
 1633SOL    HW1 6796  10.796   4.389   1.064
 1633SOL    HW2 6797  10.771   4.378   0.915
 1634SOL     OW 6798   6.605   6.869   9.195
 1634SOL    HW1 6799   6.516   6.834   9.191
 1634SOL    HW2 6800   6.602   6.950   9.145
 1635SOL     OW 6801   8.853  10.520  13.304
 1635SOL    HW1 6802   8.767  10.556  13.325
 1635SOL    HW2 6803   8.888  10.579  13.237
 1636SOL     OW 6804  13.669   7.110   6.380
 1636SOL    HW1 6805  13.619   7.061   6.316
 1636SOL    HW2 6806  13.620   7.192   6.391
 1637SOL     OW 6807   7.883   2.413  12.482
 1637SOL    HW1 6808   7.976   2.434  12.472
 1637SOL    HW2 6809   7.867   2.419  12.576
 1638SOL     OW 6810  10.451  13.579  10.212
 1638SOL    HW1 6811  10.492  13.643  10.155
 1638SOL    HW2 6812  10.470  13.610  10.301
 1639SOL     OW 6813   2.995   2.358  12.088
 1639SOL    HW1 6814   3.002   2.350  12.183
 1639SOL    HW2 6815   2.943   2.437  12.075
 1640SOL     OW 6816   0.136   1.773  12.319
 1640SOL    HW1 6817   0.175   1.693  12.283
 1640SOL    HW2 6818   0.195   1.799  12.389
 1641SOL     OW 6819   8.572   1.422  10.046
 1641SOL    HW1 6820   8.616   1.337  10.056
 1641SOL    HW2 6821   8.486   1.401  10.009
 1642SOL     OW 6822  11.261   1.572   7.522
 1642SOL    HW1 6823  11.298   1.567   7.434
 1642SOL    HW2 6824  11.167   1.586   7.508
 1643SOL     OW 6825   7.173   2.013  14.278
 1643SOL    HW1 6826   7.164   1.927  14.319
 1643SOL    HW2 6827   7.082   2.043  14.266
 1644SOL     OW 6828   4.046   6.313   9.685
 1644SOL    HW1 6829   3.989   6.389   9.671
 1644SOL    HW2 6830   4.110   6.343   9.750
 1645SOL     OW 6831   9.958   0.147  14.359
 1645SOL    HW1 6832  10.006   0.207  14.303
 1645SOL    HW2 6833   9.871   0.141  14.319
 1646SOL     OW 6834  14.853   9.340  12.479
 1646SOL    HW1 6835  14.817   9.398  12.412
 1646SOL    HW2 6836   0.045   9.395  12.528
 1647SOL     OW 6837   4.866   7.225   3.478
 1647SOL    HW1 6838   4.903   7.297   3.528
 1647SOL    HW2 6839   4.863   7.258   3.388
 1648SOL     OW 6840   3.965   4.941  13.199
 1648SOL    HW1 6841   3.883   4.938  13.247
 1648SOL    HW2 6842   3.964   5.026  13.155
 1649SOL     OW 6843   4.697   8.092   8.193
 1649SOL    HW1 6844   4.724   8.138   8.114
 1649SOL    HW2 6845   4.652   8.013   8.162
 1650SOL     OW 6846   6.484  10.868  10.777
 1650SOL    HW1 6847   6.524  10.917  10.705
 1650SOL    HW2 6848   6.401  10.835  10.741
 1651SOL     OW 6849   2.218  11.162   0.125
 1651SOL    HW1 6850   2.298  11.184   0.174
 1651SOL    HW2 6851   2.155  11.229   0.151
 1652SOL     OW 6852  14.319  12.842   9.561
 1652SOL    HW1 6853  14.384  12.878   9.501
 1652SOL    HW2 6854  14.356  12.858   9.648
 1653SOL     OW 6855   1.025  11.421  11.463
 1653SOL    HW1 6856   1.050  11.358  11.530
 1653SOL    HW2 6857   1.028  11.506  11.507
 1654SOL     OW 6858   6.164   8.677   2.285
 1654SOL    HW1 6859   6.075   8.682   2.249
 1654SOL    HW2 6860   6.151   8.650   2.376
 1655SOL     OW 6861  12.930   4.688   3.997
 1655SOL    HW1 6862  12.912   4.615   3.938
 1655SOL    HW2 6863  12.985   4.747   3.945
 1656SOL     OW 6864   8.256  11.442  10.284
 1656SOL    HW1 6865   8.276  11.534  10.301
 1656SOL    HW2 6866   8.320  11.393  10.337
 1657SOL     OW 6867  11.543   0.591   8.539
 1657SOL    HW1 6868  11.492   0.548   8.608
 1657SOL    HW2 6869  11.595   0.521   8.501
 1658SOL     OW 6870   4.268   7.051   3.957
 1658SOL    HW1 6871   4.229   6.980   3.907
 1658SOL    HW2 6872   4.247   7.031   4.048
 1659SOL     OW 6873  13.773   1.567  13.478
 1659SOL    HW1 6874  13.865   1.565  13.504
 1659SOL    HW2 6875  13.744   1.656  13.498
 1660SOL     OW 6876   1.760   2.519   4.754
 1660SOL    HW1 6877   1.823   2.450   4.775
 1660SOL    HW2 6878   1.777   2.587   4.819
 1661SOL     OW 6879   4.238   1.007   9.072
 1661SOL    HW1 6880   4.315   1.044   9.114
 1661SOL    HW2 6881   4.248   1.031   8.979
 1662SOL     OW 6882   5.211   0.947  14.315
 1662SOL    HW1 6883   5.235   0.855  14.319
 1662SOL    HW2 6884   5.294   0.994  14.307
 1663SOL     OW 6885   5.820  13.071  13.499
 1663SOL    HW1 6886   5.877  12.996  13.484
 1663SOL    HW2 6887   5.805  13.107  13.411
 1664SOL     OW 6888   5.802  11.588   9.099
 1664SOL    HW1 6889   5.881  11.637   9.119
 1664SOL    HW2 6890   5.730  11.649   9.117
 1665SOL     OW 6891   4.609  13.950  14.759
 1665SOL    HW1 6892   4.600  14.045  14.748
 1665SOL    HW2 6893   4.670  13.923  14.689
 1666SOL     OW 6894  10.755   0.127   9.554
 1666SOL    HW1 6895  10.688   0.177   9.507
 1666SOL    HW2 6896  10.770   0.050   9.500
 1667SOL     OW 6897  13.330   7.118  13.179
 1667SOL    HW1 6898  13.373   7.165  13.107
 1667SOL    HW2 6899  13.382   7.038  13.190
 1668SOL     OW 6900   5.195   3.445   3.805
 1668SOL    HW1 6901   5.111   3.478   3.775
 1668SOL    HW2 6902   5.179   3.419   3.896
 1669SOL     OW 6903  12.426   9.806   8.823
 1669SOL    HW1 6904  12.407   9.770   8.909
 1669SOL    HW2 6905  12.521   9.794   8.812
 1670SOL     OW 6906   0.795   3.848   2.736
 1670SOL    HW1 6907   0.766   3.856   2.646
 1670SOL    HW2 6908   0.715   3.838   2.787
 1671SOL     OW 6909   0.125   1.930  13.396
 1671SOL    HW1 6910   0.046   1.883  13.373
 1671SOL    HW2 6911   0.106   1.969  13.482
 1672SOL     OW 6912  12.748   8.735   6.167
 1672SOL    HW1 6913  12.796   8.692   6.238
 1672SOL    HW2 6914  12.727   8.822   6.201
 1673SOL     OW 6915   2.589   4.372   1.015
 1673SOL    HW1 6916   2.523   4.320   1.061
 1673SOL    HW2 6917   2.596   4.453   1.066
 1674SOL     OW 6918  14.047   4.911   3.068
 1674SOL    HW1 6919  14.007   4.825   3.075
 1674SOL    HW2 6920  14.063   4.923   2.974
 1675SOL     OW 6921  13.854  11.847   7.229
 1675SOL    HW1 6922  13.933  11.873   7.182
 1675SOL    HW2 6923  13.796  11.923   7.223
 1676SOL     OW 6924   6.312  14.584   4.770
 1676SOL    HW1 6925   6.282  14.598   4.860
 1676SOL    HW2 6926   6.244  14.529   4.730
 1677SOL     OW 6927   0.184   1.199   1.339
 1677SOL    HW1 6928   0.113   1.182   1.402
 1677SOL    HW2 6929   0.193   1.294   1.340
 1678SOL     OW 6930   9.397   8.392   3.729
 1678SOL    HW1 6931   9.428   8.455   3.664
 1678SOL    HW2 6932   9.363   8.445   3.801
 1679SOL     OW 6933  12.063  13.872  11.761
 1679SOL    HW1 6934  11.968  13.859  11.761
 1679SOL    HW2 6935  12.081  13.915  11.844
 1680SOL     OW 6936  12.286   7.108   3.396
 1680SOL    HW1 6937  12.242   7.153   3.324
 1680SOL    HW2 6938  12.370   7.152   3.404
 1681SOL     OW 6939  12.253   9.655  12.555
 1681SOL    HW1 6940  12.281   9.746  12.544
 1681SOL    HW2 6941  12.233   9.626  12.466
 1682SOL     OW 6942  14.069   3.636  12.946
 1682SOL    HW1 6943  14.122   3.564  12.982
 1682SOL    HW2 6944  14.091   3.711  13.000
 1683SOL     OW 6945  14.331   1.572   3.217
 1683SOL    HW1 6946  14.421   1.542   3.206
 1683SOL    HW2 6947  14.337   1.667   3.223
 1684SOL     OW 6948   2.266  11.667  14.587
 1684SOL    HW1 6949   2.178  11.705  14.583
 1684SOL    HW2 6950   2.251  11.574  14.605
 1685SOL     OW 6951   3.960   1.054   7.078
 1685SOL    HW1 6952   3.986   1.144   7.059
 1685SOL    HW2 6953   3.912   1.059   7.160
 1686SOL     OW 6954   8.905   0.220   9.237
 1686SOL    HW1 6955   8.987   0.257   9.205
 1686SOL    HW2 6956   8.887   0.268   9.318
 1687SOL     OW 6957   6.920   2.746  13.891
 1687SOL    HW1 6958   6.857   2.805  13.932
 1687SOL    HW2 6959   6.996   2.801  13.873
 1688SOL     OW 6960   2.767   0.809  10.563
 1688SOL    HW1 6961   2.707   0.850  10.500
 1688SOL    HW2 6962   2.723   0.728  10.590
 1689SOL     OW 6963   9.330  11.388   9.290
 1689SOL    HW1 6964   9.425  11.391   9.288
 1689SOL    HW2 6965   9.309  11.308   9.338
 1690SOL     OW 6966   5.092  12.020   7.708
 1690SOL    HW1 6967   5.152  12.033   7.634
 1690SOL    HW2 6968   5.021  12.082   7.691
 1691SOL     OW 6969   7.684  11.183   1.129
 1691SOL    HW1 6970   7.762  11.187   1.185
 1691SOL    HW2 6971   7.666  11.274   1.107
 1692SOL     OW 6972  12.408   0.505   7.720
 1692SOL    HW1 6973  12.404   0.534   7.811
 1692SOL    HW2 6974  12.373   0.415   7.722
 1693SOL     OW 6975   6.946   0.154   1.373
 1693SOL    HW1 6976   6.981   0.227   1.425
 1693SOL    HW2 6977   6.854   0.177   1.360
 1694SOL     OW 6978  13.528   4.748   7.038
 1694SOL    HW1 6979  13.585   4.824   7.029
 1694SOL    HW2 6980  13.587   4.673   7.038
 1695SOL     OW 6981  10.260   7.598   5.962
 1695SOL    HW1 6982  10.259   7.508   5.928
 1695SOL    HW2 6983  10.241   7.652   5.886
 1696SOL     OW 6984   9.282  12.233   8.532
 1696SOL    HW1 6985   9.317  12.294   8.467
 1696SOL    HW2 6986   9.225  12.175   8.482
 1697SOL     OW 6987   7.771   5.430   4.529
 1697SOL    HW1 6988   7.770   5.360   4.594
 1697SOL    HW2 6989   7.845   5.410   4.472
 1698SOL     OW 6990   1.649  11.450  11.186
 1698SOL    HW1 6991   1.733  11.492  11.164
 1698SOL    HW2 6992   1.586  11.490  11.126
 1699SOL     OW 6993   8.002   8.380   0.420
 1699SOL    HW1 6994   7.931   8.351   0.364
 1699SOL    HW2 6995   7.962   8.393   0.506
 1700SOL     OW 6996   2.614  11.078  10.076
 1700SOL    HW1 6997   2.634  11.156  10.128
 1700SOL    HW2 6998   2.593  11.112   9.989
 1701SOL     OW 6999   9.307  11.388   6.273
 1701SOL    HW1 7000   9.403  11.395   6.272
 1701SOL    HW2 7001   9.278  11.465   6.320
 1702SOL     OW 7002   4.451   8.636   1.449
 1702SOL    HW1 7003   4.443   8.568   1.516
 1702SOL    HW2 7004   4.419   8.593   1.369
 1703SOL     OW 7005   8.431  12.227  10.389
 1703SOL    HW1 7006   8.425  12.139  10.427
 1703SOL    HW2 7007   8.397  12.285  10.458
 1704SOL     OW 7008  11.683  14.488  11.856
 1704SOL    HW1 7009  11.631  14.460  11.781
 1704SOL    HW2 7010  11.644  14.570  11.884
 1705SOL     OW 7011   5.512   6.197   6.932
 1705SOL    HW1 7012   5.562   6.116   6.925
 1705SOL    HW2 7013   5.526   6.242   6.849
 1706SOL     OW 7014   8.774   9.990   4.596
 1706SOL    HW1 7015   8.828  10.006   4.673
 1706SOL    HW2 7016   8.687   9.970   4.631
 1707SOL     OW 7017   0.463   0.128  10.827
 1707SOL    HW1 7018   0.519   0.186  10.775
 1707SOL    HW2 7019   0.524   0.068  10.871
 1708SOL     OW 7020   8.892   3.448  13.546
 1708SOL    HW1 7021   8.947   3.466  13.621
 1708SOL    HW2 7022   8.948   3.398  13.486
 1709SOL     OW 7023   4.146   0.859  13.544
 1709SOL    HW1 7024   4.120   0.951  13.532
 1709SOL    HW2 7025   4.226   0.863  13.596
 1710SOL     OW 7026   1.165   4.287  12.489
 1710SOL    HW1 7027   1.140   4.252  12.404
 1710SOL    HW2 7028   1.254   4.254  12.504
 1711SOL     OW 7029  14.760   6.005   9.248
 1711SOL    HW1 7030  14.720   5.951   9.180
 1711SOL    HW2 7031  14.812   5.944   9.300
 1712SOL     OW 7032   2.328   4.930   8.769
 1712SOL    HW1 7033   2.361   5.019   8.757
 1712SOL    HW2 7034   2.403   4.880   8.799
 1713SOL     OW 7035  13.045  10.680  12.539
 1713SOL    HW1 7036  13.134  10.678  12.574
 1713SOL    HW2 7037  13.030  10.591  12.505
 1714SOL     OW 7038   1.617  14.007  10.574
 1714SOL    HW1 7039   1.582  13.941  10.513
 1714SOL    HW2 7040   1.712  14.002  10.562
 1715SOL     OW 7041   7.029   3.942  14.230
 1715SOL    HW1 7042   7.009   3.892  14.151
 1715SOL    HW2 7043   7.093   3.889  14.277
 1716SOL     OW 7044   8.144  10.356  14.576
 1716SOL    HW1 7045   8.090  10.405  14.638
 1716SOL    HW2 7046   8.166  10.275  14.622
 1717SOL     OW 7047   1.767   6.112  13.863
 1717SOL    HW1 7048   1.829   6.181  13.841
 1717SOL    HW2 7049   1.786   6.090  13.954
 1718SOL     OW 7050   1.030   9.115   2.240
 1718SOL    HW1 7051   1.036   9.084   2.149
 1718SOL    HW2 7052   1.070   9.045   2.292
 1719SOL     OW 7053   2.799   1.717  14.032
 1719SOL    HW1 7054   2.763   1.630  14.017
 1719SOL    HW2 7055   2.848   1.737  13.952
 1720SOL     OW 7056   8.660   5.003   1.630
 1720SOL    HW1 7057   8.719   4.929   1.631
 1720SOL    HW2 7058   8.683   5.051   1.550
 1721SOL     OW 7059   7.029  13.935   3.491
 1721SOL    HW1 7060   7.069  13.848   3.490
 1721SOL    HW2 7061   6.989  13.942   3.578
 1722SOL     OW 7062  12.815  12.647  12.205
 1722SOL    HW1 7063  12.846  12.646  12.115
 1722SOL    HW2 7064  12.870  12.714  12.248
 1723SOL     OW 7065  12.156   2.820   6.779
 1723SOL    HW1 7066  12.186   2.909   6.758
 1723SOL    HW2 7067  12.062   2.821   6.762
 1724SOL     OW 7068   0.980   3.357  14.599
 1724SOL    HW1 7069   1.055   3.392  14.646
 1724SOL    HW2 7070   0.956   3.425  14.536
 1725SOL     OW 7071  14.367   5.988   4.626
 1725SOL    HW1 7072  14.375   5.901   4.666
 1725SOL    HW2 7073  14.281   5.988   4.584
 1726SOL     OW 7074   2.238  14.737   5.685
 1726SOL    HW1 7075   2.143  14.731   5.676
 1726SOL    HW2 7076   2.270  14.748   5.595
 1727SOL     OW 7077   0.251   3.712   0.394
 1727SOL    HW1 7078   0.302   3.772   0.450
 1727SOL    HW2 7079   0.269   3.741   0.305
 1728SOL     OW 7080   2.885  11.943  10.091
 1728SOL    HW1 7081   2.910  11.858  10.128
 1728SOL    HW2 7082   2.900  12.005  10.162
 1729SOL     OW 7083  10.540  13.420   6.421
 1729SOL    HW1 7084  10.573  13.346   6.471
 1729SOL    HW2 7085  10.618  13.470   6.397
 1730SOL     OW 7086   5.573   7.132   4.122
 1730SOL    HW1 7087   5.601   7.215   4.084
 1730SOL    HW2 7088   5.603   7.135   4.213
 1731SOL     OW 7089  11.558   0.256   3.044
 1731SOL    HW1 7090  11.542   0.277   2.952
 1731SOL    HW2 7091  11.652   0.240   3.050
 1732SOL     OW 7092  11.839  14.782   8.497
 1732SOL    HW1 7093  11.869  14.850   8.557
 1732SOL    HW2 7094  11.799  14.830   8.425
 1733SOL     OW 7095   8.593  12.520   6.463
 1733SOL    HW1 7096   8.659  12.469   6.511
 1733SOL    HW2 7097   8.518  12.525   6.522
 1734SOL     OW 7098   4.224   3.781  11.709
 1734SOL    HW1 7099   4.232   3.875  11.725
 1734SOL    HW2 7100   4.291   3.763  11.643
 1735SOL     OW 7101  12.054  14.587   7.275
 1735SOL    HW1 7102  12.138  14.607   7.233
 1735SOL    HW2 7103  12.001  14.548   7.206
 1736SOL     OW 7104  10.728   0.557   0.353
 1736SOL    HW1 7105  10.710   0.647   0.324
 1736SOL    HW2 7106  10.800   0.528   0.297
 1737SOL     OW 7107   9.587   7.330   3.711
 1737SOL    HW1 7108   9.567   7.416   3.674
 1737SOL    HW2 7109   9.528   7.322   3.786
 1738SOL     OW 7110   3.157  12.269   1.216
 1738SOL    HW1 7111   3.112  12.268   1.301
 1738SOL    HW2 7112   3.210  12.189   1.217
 1739SOL     OW 7113  11.399   2.736   7.360
 1739SOL    HW1 7114  11.342   2.797   7.406
 1739SOL    HW2 7115  11.365   2.650   7.382
 1740SOL     OW 7116   8.925   9.990   3.923
 1740SOL    HW1 7117   9.009   9.992   3.968
 1740SOL    HW2 7118   8.860   9.979   3.993
 1741SOL     OW 7119  13.807  11.581   3.907
 1741SOL    HW1 7120  13.761  11.507   3.947
 1741SOL    HW2 7121  13.879  11.541   3.858
 1742SOL     OW 7122   3.507   5.091   3.403
 1742SOL    HW1 7123   3.599   5.064   3.405
 1742SOL    HW2 7124   3.508   5.178   3.442
 1743SOL     OW 7125  13.711   3.996   9.992
 1743SOL    HW1 7126  13.656   4.048   9.934
 1743SOL    HW2 7127  13.784   4.054  10.015
 1744SOL     OW 7128  14.790  11.188   2.511
 1744SOL    HW1 7129  14.837  11.120   2.560
 1744SOL    HW2 7130  14.803  11.267   2.563
 1745SOL     OW 7131  10.775   0.238   7.417
 1745SOL    HW1 7132  10.870   0.228   7.420
 1745SOL    HW2 7133  10.760   0.332   7.424
 1746SOL     OW 7134   8.747   1.512   9.730
 1746SOL    HW1 7135   8.663   1.484   9.693
 1746SOL    HW2 7136   8.771   1.441   9.790
 1747SOL     OW 7137   5.072  12.282   0.034
 1747SOL    HW1 7138   5.097  12.299   0.125
 1747SOL    HW2 7139   5.126  12.342  14.853
 1748SOL     OW 7140  11.441   8.444   4.132
 1748SOL    HW1 7141  11.365   8.415   4.081
 1748SOL    HW2 7142  11.468   8.525   4.091
 1749SOL     OW 7143   6.591   7.939   2.563
 1749SOL    HW1 7144   6.514   7.911   2.514
 1749SOL    HW2 7145   6.620   8.019   2.519
 1750SOL     OW 7146   3.748  11.338   9.446
 1750SOL    HW1 7147   3.717  11.253   9.415
 1750SOL    HW2 7148   3.766  11.323   9.539
 1751SOL     OW 7149  10.125   9.025  11.071
 1751SOL    HW1 7150  10.171   9.109  11.070
 1751SOL    HW2 7151  10.193   8.961  11.050
 1752SOL     OW 7152   4.103  13.136   6.020
 1752SOL    HW1 7153   4.022  13.143   6.072
 1752SOL    HW2 7154   4.167  13.187   6.069
 1753SOL     OW 7155   5.728   4.452   8.167
 1753SOL    HW1 7156   5.790   4.382   8.188
 1753SOL    HW2 7157   5.645   4.407   8.154
 1754SOL     OW 7158  10.858   5.881  13.410
 1754SOL    HW1 7159  10.861   5.970  13.444
 1754SOL    HW2 7160  10.794   5.836  13.465
 1755SOL     OW 7161  11.473  13.314   5.554
 1755SOL    HW1 7162  11.415  13.273   5.489
 1755SOL    HW2 7163  11.463  13.407   5.538
 1756SOL     OW 7164   9.439  13.922   2.936
 1756SOL    HW1 7165   9.534  13.933   2.937
 1756SOL    HW2 7166   9.423  13.852   2.999
 1757SOL     OW 7167   7.004  10.967   6.798
 1757SOL    HW1 7168   7.047  10.881   6.799
 1757SOL    HW2 7169   7.049  11.017   6.866
 1758SOL     OW 7170  11.961   0.239   5.350
 1758SOL    HW1 7171  12.023   0.174   5.382
 1758SOL    HW2 7172  11.931   0.204   5.266
 1759SOL     OW 7173   9.993  11.313   5.956
 1759SOL    HW1 7174   9.992  11.397   6.003
 1759SOL    HW2 7175   9.901  11.290   5.945
 1760SOL     OW 7176   8.396   8.790   9.629
 1760SOL    HW1 7177   8.350   8.861   9.585
 1760SOL    HW2 7178   8.342   8.712   9.612
 1761SOL     OW 7179   1.959  14.688   9.493
 1761SOL    HW1 7180   1.881  14.737   9.470
 1761SOL    HW2 7181   2.000  14.666   9.409
 1762SOL     OW 7182  12.756  14.704  12.922
 1762SOL    HW1 7183  12.819  14.721  12.992
 1762SOL    HW2 7184  12.695  14.778  12.926
 1763SOL     OW 7185  13.906  11.849  13.545
 1763SOL    HW1 7186  13.856  11.840  13.463
 1763SOL    HW2 7187  13.995  11.823  13.522
 1764SOL     OW 7188  11.955   2.457   2.500
 1764SOL    HW1 7189  11.895   2.394   2.459
 1764SOL    HW2 7190  11.985   2.511   2.427
 1765SOL     OW 7191   6.629   9.852   3.030
 1765SOL    HW1 7192   6.580   9.809   3.101
 1765SOL    HW2 7193   6.566   9.860   2.959
 1766SOL     OW 7194  10.655  14.598   4.252
 1766SOL    HW1 7195  10.705  14.552   4.185
 1766SOL    HW2 7196  10.695  14.684   4.259
 1767SOL     OW 7197   5.926   6.221   9.697
 1767SOL    HW1 7198   5.992   6.212   9.629
 1767SOL    HW2 7199   5.846   6.187   9.658
 1768SOL     OW 7200   6.817  11.878  10.208
 1768SOL    HW1 7201   6.805  11.786  10.183
 1768SOL    HW2 7202   6.740  11.898  10.261
 1769SOL     OW 7203   9.217  12.248  13.363
 1769SOL    HW1 7204   9.203  12.248  13.457
 1769SOL    HW2 7205   9.129  12.255  13.325
 1770SOL     OW 7206  13.827   3.531   4.910
 1770SOL    HW1 7207  13.872   3.451   4.884
 1770SOL    HW2 7208  13.855   3.596   4.845
 1771SOL     OW 7209   1.010  11.382   9.406
 1771SOL    HW1 7210   0.948  11.389   9.479
 1771SOL    HW2 7211   1.053  11.297   9.419
 1772SOL     OW 7212   7.376  10.964   4.433
 1772SOL    HW1 7213   7.346  10.994   4.348
 1772SOL    HW2 7214   7.417  11.041   4.473
 1773SOL     OW 7215  13.518   4.500  10.087
 1773SOL    HW1 7216  13.461   4.556  10.034
 1773SOL    HW2 7217  13.506   4.531  10.177
 1774SOL     OW 7218   8.936   4.417  13.770
 1774SOL    HW1 7219   8.879   4.491  13.751
 1774SOL    HW2 7220   8.885   4.362  13.829
 1775SOL     OW 7221   8.489   7.749  10.216
 1775SOL    HW1 7222   8.536   7.798  10.284
 1775SOL    HW2 7223   8.550   7.682  10.188
 1776SOL     OW 7224  10.593  12.748   6.449
 1776SOL    HW1 7225  10.514  12.793   6.418
 1776SOL    HW2 7226  10.595  12.765   6.544
 1777SOL     OW 7227   5.059   5.170   3.466
 1777SOL    HW1 7228   5.128   5.205   3.524
 1777SOL    HW2 7229   5.094   5.182   3.378
 1778SOL     OW 7230  11.928   0.385   7.517
 1778SOL    HW1 7231  11.983   0.364   7.592
 1778SOL    HW2 7232  11.912   0.300   7.474
 1779SOL     OW 7233   4.012   1.268   9.292
 1779SOL    HW1 7234   4.097   1.280   9.249
 1779SOL    HW2 7235   3.951   1.250   9.221
 1780SOL     OW 7236   6.371  12.639   4.807
 1780SOL    HW1 7237   6.399  12.575   4.741
 1780SOL    HW2 7238   6.275  12.634   4.806
 1781SOL     OW 7239   8.423   8.338   1.100
 1781SOL    HW1 7240   8.408   8.254   1.056
 1781SOL    HW2 7241   8.518   8.349   1.099
 1782SOL     OW 7242   0.744   7.445  13.770
 1782SOL    HW1 7243   0.828   7.473  13.734
 1782SOL    HW2 7244   0.761   7.357  13.805
 1783SOL     OW 7245   4.968   7.480   4.097
 1783SOL    HW1 7246   4.981   7.386   4.089
 1783SOL    HW2 7247   5.000   7.516   4.014
 1784SOL     OW 7248  11.265   6.777   9.287
 1784SOL    HW1 7249  11.243   6.688   9.313
 1784SOL    HW2 7250  11.359   6.773   9.267
 1785SOL     OW 7251  11.942   3.500  14.408
 1785SOL    HW1 7252  11.979   3.575  14.363
 1785SOL    HW2 7253  11.987   3.498  14.493
 1786SOL     OW 7254   0.558   7.404   9.671
 1786SOL    HW1 7255   0.566   7.315   9.704
 1786SOL    HW2 7256   0.470   7.431   9.697
 1787SOL     OW 7257   1.268   8.573  13.924
 1787SOL    HW1 7258   1.269   8.645  13.861
 1787SOL    HW2 7259   1.200   8.513  13.892
 1788SOL     OW 7260  13.205   1.292  11.771
 1788SOL    HW1 7261  13.110   1.302  11.776
 1788SOL    HW2 7262  13.221   1.206  11.809
 1789SOL     OW 7263   9.217   6.933   1.246
 1789SOL    HW1 7264   9.196   6.872   1.316
 1789SOL    HW2 7265   9.196   6.886   1.165
 1790SOL     OW 7266   2.801   8.333  10.471
 1790SOL    HW1 7267   2.747   8.375  10.538
 1790SOL    HW2 7268   2.773   8.241  10.472
 1791SOL     OW 7269   5.013  13.397   2.490
 1791SOL    HW1 7270   4.966  13.409   2.573
 1791SOL    HW2 7271   5.098  13.440   2.505
 1792SOL     OW 7272   4.885  12.421   1.829
 1792SOL    HW1 7273   4.906  12.452   1.917
 1792SOL    HW2 7274   4.852  12.499   1.784
 1793SOL     OW 7275   5.081   8.463  12.297
 1793SOL    HW1 7276   5.147   8.436  12.234
 1793SOL    HW2 7277   5.060   8.384  12.346
 1794SOL     OW 7278  11.626   8.647   1.386
 1794SOL    HW1 7279  11.652   8.666   1.476
 1794SOL    HW2 7280  11.701   8.603   1.347
 1795SOL     OW 7281   3.604   9.982   3.301
 1795SOL    HW1 7282   3.654  10.013   3.377
 1795SOL    HW2 7283   3.666   9.929   3.252
 1796SOL     OW 7284  13.376   1.001   2.249
 1796SOL    HW1 7285  13.325   0.924   2.274
 1796SOL    HW2 7286  13.353   1.068   2.313
 1797SOL     OW 7287   6.754   5.731   1.508
 1797SOL    HW1 7288   6.666   5.700   1.483
 1797SOL    HW2 7289   6.811   5.700   1.437
 1798SOL     OW 7290   8.459  10.619  10.828
 1798SOL    HW1 7291   8.462  10.593  10.736
 1798SOL    HW2 7292   8.487  10.711  10.828
 1799SOL     OW 7293   7.889  11.088   4.452
 1799SOL    HW1 7294   7.968  11.063   4.500
 1799SOL    HW2 7295   7.821  11.029   4.485
 1800SOL     OW 7296  12.223   6.131   6.640
 1800SOL    HW1 7297  12.263   6.216   6.625
 1800SOL    HW2 7298  12.185   6.106   6.556
 1801SOL     OW 7299   5.266  10.355  10.646
 1801SOL    HW1 7300   5.186  10.389  10.686
 1801SOL    HW2 7301   5.236  10.289  10.584
 1802SOL     OW 7302  13.804   5.519   7.552
 1802SOL    HW1 7303  13.767   5.535   7.639
 1802SOL    HW2 7304  13.766   5.587   7.497
 1803SOL     OW 7305  13.989   0.201  11.581
 1803SOL    HW1 7306  14.031   0.253  11.513
 1803SOL    HW2 7307  13.918   0.155  11.535
 1804SOL     OW 7308  13.499   8.011  11.787
 1804SOL    HW1 7309  13.506   8.077  11.856
 1804SOL    HW2 7310  13.431   8.045  11.729
 1805SOL     OW 7311   1.643  12.662  10.706
 1805SOL    HW1 7312   1.550  12.650  10.686
 1805SOL    HW2 7313   1.649  12.645  10.800
 1806SOL     OW 7314   3.102  11.741   0.454
 1806SOL    HW1 7315   3.148  11.823   0.435
 1806SOL    HW2 7316   3.171  11.679   0.479
 1807SOL     OW 7317  12.404  11.645   4.283
 1807SOL    HW1 7318  12.378  11.631   4.192
 1807SOL    HW2 7319  12.482  11.701   4.278
 1808SOL     OW 7320   9.371   0.752   7.269
 1808SOL    HW1 7321   9.393   0.722   7.357
 1808SOL    HW2 7322   9.428   0.827   7.254
 1809SOL     OW 7323   3.202  10.440   8.952
 1809SOL    HW1 7324   3.140  10.370   8.969
 1809SOL    HW2 7325   3.179  10.472   8.865
 1810SOL     OW 7326   2.876   5.245   0.357
 1810SOL    HW1 7327   2.874   5.166   0.303
 1810SOL    HW2 7328   2.952   5.232   0.415
 1811SOL     OW 7329   9.112   9.943  11.012
 1811SOL    HW1 7330   9.065   9.860  11.009
 1811SOL    HW2 7331   9.128   9.958  11.106
 1812SOL     OW 7332   0.701   8.187   7.818
 1812SOL    HW1 7333   0.615   8.146   7.824
 1812SOL    HW2 7334   0.717   8.224   7.905
 1813SOL     OW 7335   1.633  13.664   1.303
 1813SOL    HW1 7336   1.573  13.635   1.234
 1813SOL    HW2 7337   1.720  13.640   1.270
 1814SOL     OW 7338  10.889  14.702   4.538
 1814SOL    HW1 7339  10.857  14.791   4.555
 1814SOL    HW2 7340  10.843  14.675   4.458
 1815SOL     OW 7341  13.809   8.795   5.612
 1815SOL    HW1 7342  13.803   8.729   5.544
 1815SOL    HW2 7343  13.878   8.763   5.671
 1816SOL     OW 7344  12.133   2.804   1.381
 1816SOL    HW1 7345  12.132   2.724   1.434
 1816SOL    HW2 7346  12.216   2.847   1.404
 1817SOL     OW 7347  10.784   6.570   9.609
 1817SOL    HW1 7348  10.692   6.590   9.595
 1817SOL    HW2 7349  10.786   6.475   9.621
 1818SOL     OW 7350   0.839   8.631   6.191
 1818SOL    HW1 7351   0.883   8.645   6.107
 1818SOL    HW2 7352   0.808   8.541   6.187
 1819SOL     OW 7353  10.552   3.971   1.898
 1819SOL    HW1 7354  10.552   4.041   1.964
 1819SOL    HW2 7355  10.633   3.923   1.914
 1820SOL     OW 7356   3.918   8.349  11.476
 1820SOL    HW1 7357   4.013   8.364  11.477
 1820SOL    HW2 7358   3.892   8.354  11.568
 1821SOL     OW 7359  13.685  13.154   6.697
 1821SOL    HW1 7360  13.734  13.220   6.646
 1821SOL    HW2 7361  13.690  13.075   6.644
 1822SOL     OW 7362  14.333   4.425  11.473
 1822SOL    HW1 7363  14.401   4.375  11.518
 1822SOL    HW2 7364  14.339   4.397  11.382
 1823SOL     OW 7365   7.598  12.737  10.763
 1823SOL    HW1 7366   7.519  12.741  10.710
 1823SOL    HW2 7367   7.571  12.766  10.850
 1824SOL     OW 7368   0.996   2.799   2.747
 1824SOL    HW1 7369   0.995   2.886   2.707
 1824SOL    HW2 7370   0.989   2.816   2.841
 1825SOL     OW 7371   5.478   2.988   2.893
 1825SOL    HW1 7372   5.552   2.996   2.833
 1825SOL    HW2 7373   5.456   2.895   2.892
 1826SOL     OW 7374   5.419   4.054  14.501
 1826SOL    HW1 7375   5.425   4.068  14.595
 1826SOL    HW2 7376   5.360   3.979  14.492
 1827SOL     OW 7377   3.902   3.972   7.669
 1827SOL    HW1 7378   3.996   3.985   7.681
 1827SOL    HW2 7379   3.893   3.880   7.646
 1828SOL     OW 7380  14.597   8.624   6.070
 1828SOL    HW1 7381  14.516   8.675   6.070
 1828SOL    HW2 7382  14.657   8.672   6.127
 1829SOL     OW 7383   5.459  12.800   7.578
 1829SOL    HW1 7384   5.374  12.824   7.541
 1829SOL    HW2 7385   5.452  12.707   7.597
 1830SOL     OW 7386  10.869   0.868   8.906
 1830SOL    HW1 7387  10.786   0.902   8.875
 1830SOL    HW2 7388  10.849   0.780   8.937
 1831SOL     OW 7389   7.880   0.646   0.859
 1831SOL    HW1 7390   7.885   0.639   0.764
 1831SOL    HW2 7391   7.970   0.635   0.889
 1832SOL     OW 7392  12.453   8.297   5.552
 1832SOL    HW1 7393  12.409   8.234   5.494
 1832SOL    HW2 7394  12.412   8.284   5.637
 1833SOL     OW 7395  14.711   8.463  10.247
 1833SOL    HW1 7396  14.806   8.469  10.244
 1833SOL    HW2 7397  14.694   8.396  10.314
 1834SOL     OW 7398  14.431   0.952  14.529
 1834SOL    HW1 7399  14.456   0.879  14.586
 1834SOL    HW2 7400  14.337   0.940  14.515
 1835SOL     OW 7401   1.099   6.962   3.256
 1835SOL    HW1 7402   1.179   7.016   3.256
 1835SOL    HW2 7403   1.124   6.883   3.208
 1836SOL     OW 7404   5.169   0.213   0.803
 1836SOL    HW1 7405   5.090   0.254   0.838
 1836SOL    HW2 7406   5.197   0.271   0.732
 1837SOL     OW 7407  12.462   8.095   5.885
 1837SOL    HW1 7408  12.552   8.091   5.853
 1837SOL    HW2 7409  12.432   8.182   5.859
 1838SOL     OW 7410   9.805   6.538  14.079
 1838SOL    HW1 7411   9.729   6.501  14.035
 1838SOL    HW2 7412   9.777   6.625  14.106
 1839SOL     OW 7413   1.745  11.171   6.875
 1839SOL    HW1 7414   1.739  11.250   6.929
 1839SOL    HW2 7415   1.680  11.112   6.913
 1840SOL     OW 7416   8.955   6.754  10.717
 1840SOL    HW1 7417   8.903   6.676  10.736
 1840SOL    HW2 7418   8.965   6.754  10.622
 1841SOL     OW 7419   7.636  13.969   4.678
 1841SOL    HW1 7420   7.695  13.997   4.749
 1841SOL    HW2 7421   7.576  13.908   4.721
 1842SOL     OW 7422  13.481  12.534   9.554
 1842SOL    HW1 7423  13.431  12.479   9.615
 1842SOL    HW2 7424  13.572  12.522   9.581
 1843SOL     OW 7425   8.480  12.272   2.268
 1843SOL    HW1 7426   8.389  12.296   2.253
 1843SOL    HW2 7427   8.519  12.352   2.305
 1844SOL     OW 7428   7.128   0.306   0.963
 1844SOL    HW1 7429   7.060   0.239   0.971
 1844SOL    HW2 7430   7.079   0.389   0.957
 1845SOL     OW 7431   7.762   5.515  10.294
 1845SOL    HW1 7432   7.730   5.470  10.373
 1845SOL    HW2 7433   7.841   5.561  10.324
 1846SOL     OW 7434  13.873   0.815   4.166
 1846SOL    HW1 7435  13.902   0.904   4.188
 1846SOL    HW2 7436  13.836   0.822   4.078
 1847SOL     OW 7437   7.495  11.525   4.285
 1847SOL    HW1 7438   7.569  11.516   4.345
 1847SOL    HW2 7439   7.418  11.530   4.342
 1848SOL     OW 7440   2.866  12.599   6.370
 1848SOL    HW1 7441   2.961  12.601   6.384
 1848SOL    HW2 7442   2.831  12.564   6.453
 1849SOL     OW 7443   2.390  10.551   3.396
 1849SOL    HW1 7444   2.425  10.576   3.481
 1849SOL    HW2 7445   2.299  10.581   3.398
 1850SOL     OW 7446   0.994   9.741  11.175
 1850SOL    HW1 7447   1.055   9.720  11.246
 1850SOL    HW2 7448   0.917   9.778  11.219
 1851SOL     OW 7449   8.232   2.057  13.048
 1851SOL    HW1 7450   8.298   1.988  13.042
 1851SOL    HW2 7451   8.210   2.061  13.142
 1852SOL     OW 7452   9.802   8.738   9.502
 1852SOL    HW1 7453   9.892   8.743   9.468
 1852SOL    HW2 7454   9.812   8.696   9.588
 1853SOL     OW 7455   4.715   9.147  14.111
 1853SOL    HW1 7456   4.779   9.211  14.142
 1853SOL    HW2 7457   4.678   9.110  14.191
 1854SOL     OW 7458  13.905   3.903   0.265
 1854SOL    HW1 7459  13.938   3.848   0.194
 1854SOL    HW2 7460  13.955   3.875   0.342
 1855SOL     OW 7461   7.010   3.651   2.723
 1855SOL    HW1 7462   7.010   3.560   2.753
 1855SOL    HW2 7463   6.998   3.703   2.803
 1856SOL     OW 7464   7.119  13.395   8.951
 1856SOL    HW1 7465   7.041  13.433   8.911
 1856SOL    HW2 7466   7.086  13.319   8.999
 1857SOL     OW 7467   3.829   7.456   6.467
 1857SOL    HW1 7468   3.828   7.519   6.395
 1857SOL    HW2 7469   3.849   7.509   6.545
 1858SOL     OW 7470   1.017   2.761  13.890
 1858SOL    HW1 7471   1.003   2.806  13.807
 1858SOL    HW2 7472   1.044   2.829  13.951
 1859SOL     OW 7473  12.250   0.545  14.823
 1859SOL    HW1 7474  12.318   0.564  14.759
 1859SOL    HW2 7475  12.286   0.573   0.037
 1860SOL     OW 7476   0.844  12.096   4.088
 1860SOL    HW1 7477   0.862  12.139   4.004
 1860SOL    HW2 7478   0.871  12.160   4.154
 1861SOL     OW 7479  12.321   2.741  13.080
 1861SOL    HW1 7480  12.280   2.665  13.040
 1861SOL    HW2 7481  12.338   2.715  13.171
 1862SOL     OW 7482  14.749  10.788  12.253
 1862SOL    HW1 7483  14.774  10.880  12.251
 1862SOL    HW2 7484  14.830  10.741  12.269
 1863SOL     OW 7485   2.454  11.333  12.451
 1863SOL    HW1 7486   2.497  11.327  12.365
 1863SOL    HW2 7487   2.361  11.341  12.430
 1864SOL     OW 7488   8.151   5.469  11.173
 1864SOL    HW1 7489   8.170   5.403  11.106
 1864SOL    HW2 7490   8.234   5.515  11.186
 1865SOL     OW 7491   1.383  12.760   3.986
 1865SOL    HW1 7492   1.414  12.805   4.064
 1865SOL    HW2 7493   1.462  12.723   3.947
 1866SOL     OW 7494   2.691  11.938  10.918
 1866SOL    HW1 7495   2.611  11.886  10.905
 1866SOL    HW2 7496   2.737  11.894  10.989
 1867SOL     OW 7497   7.801   2.430   8.773
 1867SOL    HW1 7498   7.765   2.506   8.728
 1867SOL    HW2 7499   7.801   2.455   8.866
 1868SOL     OW 7500   8.498   9.361  14.411
 1868SOL    HW1 7501   8.435   9.348  14.482
 1868SOL    HW2 7502   8.556   9.285  14.416
 1869SOL     OW 7503   9.481   6.951   8.590
 1869SOL    HW1 7504   9.423   6.897   8.644
 1869SOL    HW2 7505   9.492   7.032   8.641
 1870SOL     OW 7506   5.561   6.740  12.935
 1870SOL    HW1 7507   5.542   6.833  12.925
 1870SOL    HW2 7508   5.491   6.707  12.992
 1871SOL     OW 7509   4.387   2.870  13.291
 1871SOL    HW1 7510   4.310   2.821  13.265
 1871SOL    HW2 7511   4.384   2.871  13.387
 1872SOL     OW 7512   3.749  14.187   7.254
 1872SOL    HW1 7513   3.726  14.130   7.328
 1872SOL    HW2 7514   3.760  14.274   7.293
 1873SOL     OW 7515   0.195   7.411   1.954
 1873SOL    HW1 7516   0.174   7.385   1.864
 1873SOL    HW2 7517   0.256   7.343   1.984
 1874SOL     OW 7518   0.056   3.075   0.070
 1874SOL    HW1 7519   0.024   3.161   0.042
 1874SOL    HW2 7520   0.016   3.061   0.156
 1875SOL     OW 7521   7.232   9.804   9.120
 1875SOL    HW1 7522   7.318   9.762   9.126
 1875SOL    HW2 7523   7.203   9.787   9.031
 1876SOL     OW 7524   1.206  10.153  13.315
 1876SOL    HW1 7525   1.214  10.144  13.220
 1876SOL    HW2 7526   1.130  10.100  13.339
 1877SOL     OW 7527   8.111   6.419  13.124
 1877SOL    HW1 7528   8.174   6.423  13.197
 1877SOL    HW2 7529   8.083   6.509  13.112
 1878SOL     OW 7530   8.449   7.104   8.867
 1878SOL    HW1 7531   8.506   7.153   8.928
 1878SOL    HW2 7532   8.378   7.165   8.848
 1879SOL     OW 7533   0.697   3.639   0.719
 1879SOL    HW1 7534   0.664   3.549   0.715
 1879SOL    HW2 7535   0.789   3.632   0.693
 1880SOL     OW 7536  12.630   0.688   5.042
 1880SOL    HW1 7537  12.671   0.616   5.090
 1880SOL    HW2 7538  12.566   0.645   4.984
 1881SOL     OW 7539   1.654   8.434   7.499
 1881SOL    HW1 7540   1.693   8.363   7.448
 1881SOL    HW2 7541   1.573   8.397   7.534
 1882SOL     OW 7542   2.232   6.870   9.454
 1882SOL    HW1 7543   2.268   6.800   9.508
 1882SOL    HW2 7544   2.282   6.864   9.372
 1883SOL     OW 7545  10.466  12.974  14.564
 1883SOL    HW1 7546  10.519  13.030  14.621
 1883SOL    HW2 7547  10.455  12.893  14.614
 1884SOL     OW 7548   0.853   3.134  14.338
 1884SOL    HW1 7549   0.842   3.086  14.420
 1884SOL    HW2 7550   0.817   3.075  14.271
 1885SOL     OW 7551  10.174  13.301  13.718
 1885SOL    HW1 7552  10.142  13.334  13.802
 1885SOL    HW2 7553  10.228  13.225  13.740
 1886SOL     OW 7554   2.406  13.347   2.968
 1886SOL    HW1 7555   2.379  13.356   2.877
 1886SOL    HW2 7556   2.489  13.394   2.973
 1887SOL     OW 7557  10.448   0.594   9.510
 1887SOL    HW1 7558  10.535   0.571   9.477
 1887SOL    HW2 7559  10.463   0.629   9.597
 1888SOL     OW 7560   6.553  14.753   4.078
 1888SOL    HW1 7561   6.589  14.838   4.055
 1888SOL    HW2 7562   6.458  14.762   4.066
 1889SOL     OW 7563   4.233  12.573   2.376
 1889SOL    HW1 7564   4.180  12.606   2.449
 1889SOL    HW2 7565   4.271  12.651   2.336
 1890SOL     OW 7566  11.340   8.012   7.844
 1890SOL    HW1 7567  11.427   8.002   7.806
 1890SOL    HW2 7568  11.324   7.929   7.889
 1891SOL     OW 7569   3.492   1.807  12.686
 1891SOL    HW1 7570   3.483   1.860  12.766
 1891SOL    HW2 7571   3.402   1.782  12.665
 1892SOL     OW 7572   2.891   6.059   0.627
 1892SOL    HW1 7573   2.958   6.003   0.667
 1892SOL    HW2 7574   2.934   6.098   0.551
 1893SOL     OW 7575   8.026   4.036   7.651
 1893SOL    HW1 7576   7.947   4.089   7.639
 1893SOL    HW2 7577   8.018   3.999   7.739
 1894SOL     OW 7578  10.551  10.758   2.242
 1894SOL    HW1 7579  10.623  10.701   2.270
 1894SOL    HW2 7580  10.473  10.702   2.248
 1895SOL     OW 7581   9.381  12.567  10.978
 1895SOL    HW1 7582   9.310  12.513  10.942
 1895SOL    HW2 7583   9.342  12.654  10.987
 1896SOL     OW 7584   9.817  14.458   5.289
 1896SOL    HW1 7585   9.789  14.548   5.273
 1896SOL    HW2 7586   9.856  14.459   5.376
 1897SOL     OW 7587  14.446   5.932   9.226
 1897SOL    HW1 7588  14.465   5.954   9.135
 1897SOL    HW2 7589  14.466   6.012   9.274
 1898SOL     OW 7590  14.065   9.387   9.033
 1898SOL    HW1 7591  14.130   9.353   9.095
 1898SOL    HW2 7592  14.058   9.480   9.054
 1899SOL     OW 7593   3.815   9.494  11.322
 1899SOL    HW1 7594   3.761   9.530  11.252
 1899SOL    HW2 7595   3.782   9.405  11.335
 1900SOL     OW 7596  14.604   7.367   3.579
 1900SOL    HW1 7597  14.520   7.333   3.610
 1900SOL    HW2 7598  14.631   7.429   3.646
 1901SOL     OW 7599   7.151   2.914   9.237
 1901SOL    HW1 7600   7.159   2.900   9.142
 1901SOL    HW2 7601   7.242   2.914   9.269
 1902SOL     OW 7602  10.676   0.313  14.146
 1902SOL    HW1 7603  10.757   0.297  14.097
 1902SOL    HW2 7604  10.606   0.297  14.083
 1903SOL     OW 7605   8.280   1.612  13.595
 1903SOL    HW1 7606   8.283   1.517  13.593
 1903SOL    HW2 7607   8.202   1.633  13.647
 1904SOL     OW 7608   7.834   3.719  12.581
 1904SOL    HW1 7609   7.757   3.672  12.615
 1904SOL    HW2 7610   7.888   3.733  12.658
 1905SOL     OW 7611   7.744  13.173  13.388
 1905SOL    HW1 7612   7.742  13.172  13.292
 1905SOL    HW2 7613   7.717  13.085  13.414
 1906SOL     OW 7614  11.399   1.533   4.713
 1906SOL    HW1 7615  11.438   1.620   4.713
 1906SOL    HW2 7616  11.311   1.546   4.677
 1907SOL     OW 7617   0.453  11.270   1.602
 1907SOL    HW1 7618   0.441  11.188   1.555
 1907SOL    HW2 7619   0.531  11.309   1.563
 1908SOL     OW 7620   7.270   2.492  11.504
 1908SOL    HW1 7621   7.358   2.494  11.466
 1908SOL    HW2 7622   7.214   2.466  11.431
 1909SOL     OW 7623   4.954   5.096   6.134
 1909SOL    HW1 7624   4.873   5.063   6.095
 1909SOL    HW2 7625   4.955   5.189   6.115
 1910SOL     OW 7626  14.613   3.992   3.216
 1910SOL    HW1 7627  14.646   4.009   3.128
 1910SOL    HW2 7628  14.587   3.900   3.215
 1911SOL     OW 7629  14.754  13.329   9.226
 1911SOL    HW1 7630  14.830  13.360   9.275
 1911SOL    HW2 7631  14.776  13.344   9.134
 1912SOL     OW 7632   6.888  12.039   3.975
 1912SOL    HW1 7633   6.851  11.951   3.980
 1912SOL    HW2 7634   6.972  12.027   3.930
 1913SOL     OW 7635   1.531  12.024   7.127
 1913SOL    HW1 7636   1.559  12.111   7.158
 1913SOL    HW2 7637   1.599  11.964   7.158
 1914SOL     OW 7638   1.257   3.984   3.283
 1914SOL    HW1 7639   1.185   4.024   3.331
 1914SOL    HW2 7640   1.234   3.891   3.277
 1915SOL     OW 7641  11.756   4.364  11.056
 1915SOL    HW1 7642  11.691   4.399  11.117
 1915SOL    HW2 7643  11.839   4.373  11.103
 1916SOL     OW 7644   6.743  11.386   4.865
 1916SOL    HW1 7645   6.799  11.398   4.942
 1916SOL    HW2 7646   6.733  11.475   4.830
 1917SOL     OW 7647  10.305   6.689  13.130
 1917SOL    HW1 7648  10.320   6.776  13.166
 1917SOL    HW2 7649  10.391   6.646  13.134
 1918SOL     OW 7650  13.067   7.353  13.093
 1918SOL    HW1 7651  13.076   7.391  13.180
 1918SOL    HW2 7652  13.152   7.314  13.075
 1919SOL     OW 7653   6.326   6.479   4.520
 1919SOL    HW1 7654   6.253   6.512   4.571
 1919SOL    HW2 7655   6.362   6.557   4.476
 1920SOL     OW 7656  12.317  14.458   2.390
 1920SOL    HW1 7657  12.394  14.515   2.390
 1920SOL    HW2 7658  12.304  14.434   2.482
 1921SOL     OW 7659  13.673   2.265   8.271
 1921SOL    HW1 7660  13.641   2.352   8.246
 1921SOL    HW2 7661  13.683   2.219   8.188
 1922SOL     OW 7662  11.924  11.686   6.695
 1922SOL    HW1 7663  11.867  11.728   6.630
 1922SOL    HW2 7664  11.975  11.623   6.644
 1923SOL     OW 7665   0.164   9.920   6.289
 1923SOL    HW1 7666   0.107   9.983   6.246
 1923SOL    HW2 7667   0.189   9.963   6.371
 1924SOL     OW 7668   2.687  13.983   5.081
 1924SOL    HW1 7669   2.668  14.013   4.992
 1924SOL    HW2 7670   2.770  13.936   5.073
 1925SOL     OW 7671   1.574  12.936   9.165
 1925SOL    HW1 7672   1.574  12.921   9.070
 1925SOL    HW2 7673   1.666  12.938   9.189
 1926SOL     OW 7674   8.520  13.249   1.172
 1926SOL    HW1 7675   8.454  13.221   1.108
 1926SOL    HW2 7676   8.535  13.341   1.152
 1927SOL     OW 7677  11.497   0.608   4.381
 1927SOL    HW1 7678  11.508   0.665   4.305
 1927SOL    HW2 7679  11.529   0.659   4.455
 1928SOL     OW 7680  10.052  14.272   5.422
 1928SOL    HW1 7681  10.138  14.231   5.424
 1928SOL    HW2 7682  10.033  14.292   5.514
 1929SOL     OW 7683   4.822   9.420   3.951
 1929SOL    HW1 7684   4.842   9.402   4.042
 1929SOL    HW2 7685   4.783   9.508   3.951
 1930SOL     OW 7686   7.126  10.175   0.700
 1930SOL    HW1 7687   7.215  10.140   0.708
 1930SOL    HW2 7688   7.074  10.120   0.759
 1931SOL     OW 7689   6.742  12.281   0.041
 1931SOL    HW1 7690   6.708  12.239  14.832
 1931SOL    HW2 7691   6.677  12.263   0.108
 1932SOL     OW 7692   2.768   3.178   2.994
 1932SOL    HW1 7693   2.854   3.155   2.958
 1932SOL    HW2 7694   2.743   3.102   3.046
 1933SOL     OW 7695   9.322   2.262   3.217
 1933SOL    HW1 7696   9.362   2.176   3.218
 1933SOL    HW2 7697   9.280   2.270   3.131
 1934SOL     OW 7698  14.535   3.197   3.858
 1934SOL    HW1 7699  14.473   3.251   3.810
 1934SOL    HW2 7700  14.481   3.134   3.906
 1935SOL     OW 7701   5.608   9.116   9.358
 1935SOL    HW1 7702   5.642   9.032   9.329
 1935SOL    HW2 7703   5.647   9.129   9.444
 1936SOL     OW 7704  14.856  12.342   1.970
 1936SOL    HW1 7705  14.761  12.337   1.955
 1936SOL    HW2 7706  14.865  12.345   2.066
 1937SOL     OW 7707  13.879   8.090   9.580
 1937SOL    HW1 7708  13.814   8.150   9.542
 1937SOL    HW2 7709  13.948   8.085   9.514
 1938SOL     OW 7710  10.992   8.457  13.139
 1938SOL    HW1 7711  10.941   8.538  13.131
 1938SOL    HW2 7712  10.966   8.405  13.063
 1939SOL     OW 7713   0.939   1.263   5.302
 1939SOL    HW1 7714   0.994   1.187   5.281
 1939SOL    HW2 7715   0.956   1.325   5.231
 1940SOL     OW 7716  12.028   0.536   9.860
 1940SOL    HW1 7717  11.997   0.454   9.897
 1940SOL    HW2 7718  11.992   0.539   9.772
 1941SOL     OW 7719   4.803   4.845   1.294
 1941SOL    HW1 7720   4.850   4.764   1.314
 1941SOL    HW2 7721   4.712   4.818   1.282
 1942SOL     OW 7722   6.773  12.974   2.518
 1942SOL    HW1 7723   6.836  12.915   2.560
 1942SOL    HW2 7724   6.689  12.953   2.560
 1943SOL     OW 7725   2.192   6.557   0.358
 1943SOL    HW1 7726   2.262   6.586   0.300
 1943SOL    HW2 7727   2.127   6.517   0.300
 1944SOL     OW 7728   5.373  14.479   1.899
 1944SOL    HW1 7729   5.300  14.473   1.837
 1944SOL    HW2 7730   5.408  14.390   1.904
 1945SOL     OW 7731  14.866   5.364   5.326
 1945SOL    HW1 7732  14.849   5.367   5.420
 1945SOL    HW2 7733   0.062   5.295   5.316
 1946SOL     OW 7734   0.387   7.969  10.209
 1946SOL    HW1 7735   0.346   7.979  10.295
 1946SOL    HW2 7736   0.321   7.927  10.155
 1947SOL     OW 7737   8.161  13.471   7.255
 1947SOL    HW1 7738   8.126  13.560   7.263
 1947SOL    HW2 7739   8.252  13.483   7.228
 1948SOL     OW 7740  13.274   2.402   7.004
 1948SOL    HW1 7741  13.256   2.320   6.957
 1948SOL    HW2 7742  13.354   2.385   7.053
 1949SOL     OW 7743  13.641  14.481   6.141
 1949SOL    HW1 7744  13.676  14.422   6.075
 1949SOL    HW2 7745  13.683  14.455   6.222
 1950SOL     OW 7746   0.689   4.957  10.830
 1950SOL    HW1 7747   0.672   4.950  10.924
 1950SOL    HW2 7748   0.640   4.884  10.792
 1951SOL     OW 7749  12.921   9.195   9.652
 1951SOL    HW1 7750  12.898   9.216   9.561
 1951SOL    HW2 7751  12.975   9.269   9.680
 1952SOL     OW 7752   3.422   1.124  12.416
 1952SOL    HW1 7753   3.514   1.106  12.435
 1952SOL    HW2 7754   3.379   1.124  12.501
 1953SOL     OW 7755   8.730   5.540  12.564
 1953SOL    HW1 7756   8.728   5.572  12.655
 1953SOL    HW2 7757   8.655   5.581  12.522
 1954SOL     OW 7758  12.434   9.962   6.305
 1954SOL    HW1 7759  12.422   9.901   6.378
 1954SOL    HW2 7760  12.529   9.964   6.292
 1955SOL     OW 7761   2.952  11.286   8.792
 1955SOL    HW1 7762   2.993  11.328   8.717
 1955SOL    HW2 7763   2.975  11.194   8.784
 1956SOL     OW 7764   0.899   3.170  10.013
 1956SOL    HW1 7765   0.806   3.167  10.034
 1956SOL    HW2 7766   0.921   3.081   9.987
 1957SOL     OW 7767   5.820   6.438  12.582
 1957SOL    HW1 7768   5.776   6.502  12.639
 1957SOL    HW2 7769   5.870   6.382  12.642
 1958SOL     OW 7770   4.059   1.796  13.799
 1958SOL    HW1 7771   4.014   1.860  13.744
 1958SOL    HW2 7772   4.001   1.720  13.799
 1959SOL     OW 7773   6.548   5.298  13.788
 1959SOL    HW1 7774   6.574   5.369  13.730
 1959SOL    HW2 7775   6.467   5.263  13.750
 1960SOL     OW 7776   3.580  11.071   6.943
 1960SOL    HW1 7777   3.553  10.991   6.987
 1960SOL    HW2 7778   3.667  11.051   6.909
 1961SOL     OW 7779   5.303  14.334  14.686
 1961SOL    HW1 7780   5.243  14.404  14.660
 1961SOL    HW2 7781   5.345  14.306  14.605
 1962SOL     OW 7782  13.010  11.785  11.412
 1962SOL    HW1 7783  13.002  11.700  11.454
 1962SOL    HW2 7784  12.929  11.796  11.363
 1963SOL     OW 7785  12.965   1.116  10.288
 1963SOL    HW1 7786  12.980   1.169  10.367
 1963SOL    HW2 7787  13.006   1.167  10.218
 1964SOL     OW 7788   2.451   6.172   2.593
 1964SOL    HW1 7789   2.422   6.228   2.521
 1964SOL    HW2 7790   2.535   6.207   2.619
 1965SOL     OW 7791  14.403   3.659   0.207
 1965SOL    HW1 7792  14.429   3.586   0.263
 1965SOL    HW2 7793  14.458   3.732   0.235
 1966SOL     OW 7794   5.216   5.465   8.335
 1966SOL    HW1 7795   5.216   5.402   8.407
 1966SOL    HW2 7796   5.230   5.550   8.378
 1967SOL     OW 7797   5.058   4.397  13.176
 1967SOL    HW1 7798   5.142   4.362  13.204
 1967SOL    HW2 7799   5.078   4.483  13.140
 1968SOL     OW 7800   2.635   4.346   9.079
 1968SOL    HW1 7801   2.648   4.411   9.010
 1968SOL    HW2 7802   2.590   4.394   9.149
 1969SOL     OW 7803   5.482   7.126  12.356
 1969SOL    HW1 7804   5.543   7.053  12.350
 1969SOL    HW2 7805   5.507   7.184  12.284
 1970SOL     OW 7806   8.748   8.440   7.536
 1970SOL    HW1 7807   8.657   8.430   7.508
 1970SOL    HW2 7808   8.776   8.522   7.496
 1971SOL     OW 7809   7.270   4.189  11.614
 1971SOL    HW1 7810   7.294   4.265  11.561
 1971SOL    HW2 7811   7.353   4.156  11.648
 1972SOL     OW 7812  12.792   8.304  13.520
 1972SOL    HW1 7813  12.827   8.317  13.608
 1972SOL    HW2 7814  12.859   8.254  13.474
 1973SOL     OW 7815   0.606  12.547   2.357
 1973SOL    HW1 7816   0.627  12.619   2.418
 1973SOL    HW2 7817   0.656  12.567   2.278
 1974SOL     OW 7818   4.600   8.903   8.009
 1974SOL    HW1 7819   4.601   8.864   7.921
 1974SOL    HW2 7820   4.508   8.901   8.035
 1975SOL     OW 7821   3.987   8.772   6.097
 1975SOL    HW1 7822   3.978   8.766   6.192
 1975SOL    HW2 7823   4.060   8.713   6.076
 1976SOL     OW 7824   6.699   2.213   1.695
 1976SOL    HW1 7825   6.742   2.265   1.763
 1976SOL    HW2 7826   6.765   2.149   1.668
 1977SOL     OW 7827   4.289   3.273   6.040
 1977SOL    HW1 7828   4.356   3.244   6.102
 1977SOL    HW2 7829   4.325   3.252   5.954
 1978SOL     OW 7830   3.932  12.432   9.717
 1978SOL    HW1 7831   3.853  12.474   9.751
 1978SOL    HW2 7832   3.995  12.503   9.707
 1979SOL     OW 7833   9.794  14.367  11.041
 1979SOL    HW1 7834   9.831  14.454  11.054
 1979SOL    HW2 7835   9.704  14.384  11.013
 1980SOL     OW 7836   4.787  14.178   8.647
 1980SOL    HW1 7837   4.715  14.202   8.589
 1980SOL    HW2 7838   4.864  14.176   8.590
 1981SOL     OW 7839   2.943   6.729  11.827
 1981SOL    HW1 7840   3.004   6.798  11.853
 1981SOL    HW2 7841   2.977   6.698  11.743
 1982SOL     OW 7842  13.482   3.258  13.166
 1982SOL    HW1 7843  13.523   3.341  13.191
 1982SOL    HW2 7844  13.414   3.283  13.103
 1983SOL     OW 7845   4.042  12.094  12.998
 1983SOL    HW1 7846   4.097  12.138  13.064
 1983SOL    HW2 7847   4.071  12.003  13.001
 1984SOL     OW 7848   8.405  10.760   8.829
 1984SOL    HW1 7849   8.423  10.815   8.905
 1984SOL    HW2 7850   8.381  10.823   8.760
 1985SOL     OW 7851   3.053   4.414  13.279
 1985SOL    HW1 7852   3.049   4.412  13.184
 1985SOL    HW2 7853   3.123   4.353  13.302
 1986SOL     OW 7854   2.459   0.663   5.845
 1986SOL    HW1 7855   2.510   0.698   5.773
 1986SOL    HW2 7856   2.492   0.709   5.922
 1987SOL     OW 7857   4.253  10.664  14.593
 1987SOL    HW1 7858   4.181  10.622  14.640
 1987SOL    HW2 7859   4.328  10.606  14.606
 1988SOL     OW 7860   6.922   5.289  10.193
 1988SOL    HW1 7861   6.962   5.272  10.279
 1988SOL    HW2 7862   6.876   5.372  10.204
 1989SOL     OW 7863  13.122  11.413   2.551
 1989SOL    HW1 7864  13.195  11.364   2.589
 1989SOL    HW2 7865  13.045  11.359   2.569
 1990SOL     OW 7866   9.495  10.116   5.915
 1990SOL    HW1 7867   9.400  10.103   5.908
 1990SOL    HW2 7868   9.533  10.044   5.863
 1991SOL     OW 7869   9.077   0.474   4.351
 1991SOL    HW1 7870   9.060   0.476   4.445
 1991SOL    HW2 7871   9.144   0.540   4.337
 1992SOL     OW 7872   2.405   0.499   9.096
 1992SOL    HW1 7873   2.341   0.545   9.041
 1992SOL    HW2 7874   2.352   0.452   9.160
 1993SOL     OW 7875   1.778   5.402   8.889
 1993SOL    HW1 7876   1.782   5.387   8.795
 1993SOL    HW2 7877   1.807   5.320   8.928
 1994SOL     OW 7878   8.016   4.943  12.920
 1994SOL    HW1 7879   8.079   4.872  12.927
 1994SOL    HW2 7880   8.068   5.023  12.927
 1995SOL     OW 7881  14.436   6.853   9.549
 1995SOL    HW1 7882  14.411   6.940   9.581
 1995SOL    HW2 7883  14.530   6.859   9.536
 1996SOL     OW 7884   7.098  13.877   3.838
 1996SOL    HW1 7885   7.091  13.782   3.844
 1996SOL    HW2 7886   7.012  13.910   3.865
 1997SOL     OW 7887  10.722  11.294   5.129
 1997SOL    HW1 7888  10.746  11.212   5.172
 1997SOL    HW2 7889  10.696  11.352   5.201
 1998SOL     OW 7890  12.340   4.956  10.627
 1998SOL    HW1 7891  12.353   4.889  10.560
 1998SOL    HW2 7892  12.245   4.970  10.628
 1999SOL     OW 7893  10.284  12.374   0.140
 1999SOL    HW1 7894  10.283  12.433   0.216
 1999SOL    HW2 7895  10.218  12.308   0.161
 2000SOL     OW 7896   3.696   8.243   1.018
 2000SOL    HW1 7897   3.634   8.299   0.973
 2000SOL    HW2 7898   3.769   8.234   0.957
 2001SOL     OW 7899   2.332   0.301   7.162
 2001SOL    HW1 7900   2.264   0.340   7.218
 2001SOL    HW2 7901   2.348   0.215   7.201
 2002SOL     OW 7902   0.846   1.444   1.458
 2002SOL    HW1 7903   0.881   1.482   1.538
 2002SOL    HW2 7904   0.783   1.509   1.426
 2003SOL     OW 7905   7.161   6.543   7.215
 2003SOL    HW1 7906   7.103   6.474   7.247
 2003SOL    HW2 7907   7.238   6.539   7.271
 2004SOL     OW 7908   7.206  10.507   8.258
 2004SOL    HW1 7909   7.192  10.597   8.288
 2004SOL    HW2 7910   7.148  10.454   8.313
 2005SOL     OW 7911   6.257   3.551  11.845
 2005SOL    HW1 7912   6.319   3.530  11.914
 2005SOL    HW2 7913   6.210   3.628  11.878
 2006SOL     OW 7914   1.387   0.586   6.823
 2006SOL    HW1 7915   1.379   0.590   6.918
 2006SOL    HW2 7916   1.449   0.515   6.806
 2007SOL     OW 7917   9.225  14.470   6.964
 2007SOL    HW1 7918   9.194  14.458   6.874
 2007SOL    HW2 7919   9.251  14.382   6.992
 2008SOL     OW 7920   1.491   0.694   5.460
 2008SOL    HW1 7921   1.445   0.775   5.439
 2008SOL    HW2 7922   1.548   0.717   5.534
 2009SOL     OW 7923   5.666  12.743  11.594
 2009SOL    HW1 7924   5.623  12.690  11.661
 2009SOL    HW2 7925   5.758  12.717  11.598
 2010SOL     OW 7926   9.981   8.338   6.082
 2010SOL    HW1 7927  10.069   8.378   6.080
 2010SOL    HW2 7928   9.959   8.334   6.175
 2011SOL     OW 7929   2.624   5.487  13.728
 2011SOL    HW1 7930   2.630   5.409  13.784
 2011SOL    HW2 7931   2.571   5.459  13.654
 2012SOL     OW 7932   1.026   5.661   7.406
 2012SOL    HW1 7933   1.115   5.693   7.392
 2012SOL    HW2 7934   1.017   5.587   7.345
 2013SOL     OW 7935   4.434   7.018  14.459
 2013SOL    HW1 7936   4.397   6.988  14.376
 2013SOL    HW2 7937   4.394   6.961  14.525
 2014SOL     OW 7938   4.184   5.092  12.631
 2014SOL    HW1 7939   4.092   5.112  12.648
 2014SOL    HW2 7940   4.233   5.160  12.678
 2015SOL     OW 7941   6.475   3.166  13.379
 2015SOL    HW1 7942   6.557   3.117  13.376
 2015SOL    HW2 7943   6.419   3.115  13.438
 2016SOL     OW 7944   1.723   5.387   8.063
 2016SOL    HW1 7945   1.686   5.368   7.976
 2016SOL    HW2 7946   1.655   5.436   8.108
 2017SOL     OW 7947   1.524  14.844  10.312
 2017SOL    HW1 7948   1.552   0.065  10.299
 2017SOL    HW2 7949   1.493  14.841  10.402
 2018SOL     OW 7950   5.154  10.962   1.072
 2018SOL    HW1 7951   5.176  10.906   1.146
 2018SOL    HW2 7952   5.120  11.042   1.112
 2019SOL     OW 7953  14.120   7.021   1.168
 2019SOL    HW1 7954  14.125   6.940   1.117
 2019SOL    HW2 7955  14.053   7.004   1.235
 2020SOL     OW 7956   6.323  12.430   6.111
 2020SOL    HW1 7957   6.334  12.483   6.190
 2020SOL    HW2 7958   6.271  12.485   6.052
 2021SOL     OW 7959  11.701   0.842   9.328
 2021SOL    HW1 7960  11.607   0.855   9.340
 2021SOL    HW2 7961  11.712   0.829   9.234
 2022SOL     OW 7962   7.922  13.879  10.981
 2022SOL    HW1 7963   7.946  13.969  10.959
 2022SOL    HW2 7964   7.827  13.877  10.976
 2023SOL     OW 7965   9.200   6.018  13.230
 2023SOL    HW1 7966   9.268   5.973  13.279
 2023SOL    HW2 7967   9.233   6.023  13.140
 2024SOL     OW 7968   2.255   6.696   1.788
 2024SOL    HW1 7969   2.336   6.727   1.828
 2024SOL    HW2 7970   2.196   6.771   1.790
 2025SOL     OW 7971   8.659  12.017  12.873
 2025SOL    HW1 7972   8.660  12.075  12.949
 2025SOL    HW2 7973   8.657  12.076  12.798
 2026SOL     OW 7974  12.690   7.367   7.216
 2026SOL    HW1 7975  12.758   7.433   7.209
 2026SOL    HW2 7976  12.705   7.309   7.141
 2027SOL     OW 7977   9.348   9.055   0.752
 2027SOL    HW1 7978   9.262   9.093   0.737
 2027SOL    HW2 7979   9.352   9.040   0.847
 2028SOL     OW 7980  14.526  14.384  10.812
 2028SOL    HW1 7981  14.591  14.321  10.845
 2028SOL    HW2 7982  14.471  14.403  10.888
 2029SOL     OW 7983   3.823  10.463   8.656
 2029SOL    HW1 7984   3.788  10.374   8.646
 2029SOL    HW2 7985   3.777  10.499   8.732
 2030SOL     OW 7986   9.563   2.183   2.888
 2030SOL    HW1 7987   9.562   2.262   2.942
 2030SOL    HW2 7988   9.651   2.182   2.850
 2031SOL     OW 7989  10.276  12.607   2.374
 2031SOL    HW1 7990  10.306  12.556   2.449
 2031SOL    HW2 7991  10.212  12.668   2.411
 2032SOL     OW 7992  14.078   6.043   0.967
 2032SOL    HW1 7993  14.119   6.001   0.892
 2032SOL    HW2 7994  13.989   6.063   0.939
 2033SOL     OW 7995   3.364   0.509   8.088
 2033SOL    HW1 7996   3.420   0.586   8.074
 2033SOL    HW2 7997   3.426   0.437   8.103
 2034SOL     OW 7998   5.305  10.546   7.214
 2034SOL    HW1 7999   5.392  10.532   7.253
 2034SOL    HW2 8000   5.290  10.640   7.223
 2035SOL     OW 8001   5.909  12.787   0.727
 2035SOL    HW1 8002   5.947  12.703   0.751
 2035SOL    HW2 8003   5.827  12.792   0.776
 2036SOL     OW 8004   1.061   1.599   3.124
 2036SOL    HW1 8005   1.114   1.667   3.084
 2036SOL    HW2 8006   0.970   1.627   3.110
 2037SOL     OW 8007   1.513   5.159   5.208
 2037SOL    HW1 8008   1.555   5.074   5.216
 2037SOL    HW2 8009   1.423   5.145   5.237
 2038SOL     OW 8010   2.043   0.622   3.830
 2038SOL    HW1 8011   1.959   0.616   3.874
 2038SOL    HW2 8012   2.085   0.538   3.847
 2039SOL     OW 8013   3.451  14.525   2.661
 2039SOL    HW1 8014   3.462  14.472   2.740
 2039SOL    HW2 8015   3.376  14.581   2.679
 2040SOL     OW 8016  14.260   4.564   8.362
 2040SOL    HW1 8017  14.295   4.475   8.360
 2040SOL    HW2 8018  14.316   4.610   8.426
 2041SOL     OW 8019   1.398   0.023  13.505
 2041SOL    HW1 8020   1.382   0.071  13.424
 2041SOL    HW2 8021   1.489  14.864  13.499
 2042SOL     OW 8022   7.214   5.514  12.763
 2042SOL    HW1 8023   7.284   5.577  12.781
 2042SOL    HW2 8024   7.205   5.515  12.668
 2043SOL     OW 8025   5.432  10.998   8.082
 2043SOL    HW1 8026   5.422  10.956   8.168
 2043SOL    HW2 8027   5.461  11.087   8.103
 2044SOL     OW 8028   5.602  13.004   2.313
 2044SOL    HW1 8029   5.593  12.980   2.405
 2044SOL    HW2 8030   5.606  12.921   2.266
 2045SOL     OW 8031   2.107   5.908  13.691
 2045SOL    HW1 8032   2.153   5.825  13.707
 2045SOL    HW2 8033   2.023   5.898  13.736
 2046SOL     OW 8034   4.202   9.684  14.354
 2046SOL    HW1 8035   4.220   9.631  14.432
 2046SOL    HW2 8036   4.272   9.750  14.354
 2047SOL     OW 8037  13.492   5.389  13.333
 2047SOL    HW1 8038  13.529   5.305  13.307
 2047SOL    HW2 8039  13.564   5.452  13.323
 2048SOL     OW 8040  11.241   5.183   9.562
 2048SOL    HW1 8041  11.175   5.243   9.526
 2048SOL    HW2 8042  11.198   5.142   9.636
 2049SOL     OW 8043  10.585   2.891  11.300
 2049SOL    HW1 8044  10.628   2.921  11.220
 2049SOL    HW2 8045  10.644   2.825  11.336
 2050SOL     OW 8046   2.440   1.426  13.422
 2050SOL    HW1 8047   2.448   1.513  13.380
 2050SOL    HW2 8048   2.371   1.383  13.373
 2051SOL     OW 8049   0.807   3.050   2.923
 2051SOL    HW1 8050   0.883   3.101   2.896
 2051SOL    HW2 8051   0.755   3.040   2.843
 2052SOL     OW 8052  11.778   1.840  14.167
 2052SOL    HW1 8053  11.821   1.924  14.150
 2052SOL    HW2 8054  11.739   1.816  14.084
 2053SOL     OW 8055   0.428   3.642  10.283
 2053SOL    HW1 8056   0.441   3.705  10.354
 2053SOL    HW2 8057   0.332   3.635  10.275
 2054SOL     OW 8058   9.530  12.242   5.261
 2054SOL    HW1 8059   9.532  12.231   5.166
 2054SOL    HW2 8060   9.528  12.153   5.297
 2055SOL     OW 8061  13.422   0.969   8.875
 2055SOL    HW1 8062  13.337   0.996   8.839
 2055SOL    HW2 8063  13.486   0.997   8.810
 2056SOL     OW 8064   0.064  11.624   4.208
 2056SOL    HW1 8065   0.020  11.540   4.192
 2056SOL    HW2 8066   0.061  11.670   4.125
 2057SOL     OW 8067   2.682   2.591   6.539
 2057SOL    HW1 8068   2.740   2.548   6.476
 2057SOL    HW2 8069   2.674   2.680   6.507
 2058SOL     OW 8070  11.540  10.825  14.501
 2058SOL    HW1 8071  11.496  10.886  14.441
 2058SOL    HW2 8072  11.555  10.877  14.580
 2059SOL     OW 8073  13.647   3.937   7.245
 2059SOL    HW1 8074  13.590   3.988   7.302
 2059SOL    HW2 8075  13.728   3.927   7.294
 2060SOL     OW 8076  12.652   4.343  10.458
 2060SOL    HW1 8077  12.639   4.357  10.364
 2060SOL    HW2 8078  12.633   4.428  10.497
 2061SOL     OW 8079  11.779   0.410   8.487
 2061SOL    HW1 8080  11.710   0.349   8.514
 2061SOL    HW2 8081  11.845   0.355   8.445
 2062SOL     OW 8082   1.445   9.229   4.727
 2062SOL    HW1 8083   1.514   9.228   4.661
 2062SOL    HW2 8084   1.491   9.249   4.809
 2063SOL     OW 8085   9.372  12.638   4.328
 2063SOL    HW1 8086   9.368  12.574   4.257
 2063SOL    HW2 8087   9.329  12.594   4.401
 2064SOL     OW 8088   4.401   4.338   9.324
 2064SOL    HW1 8089   4.491   4.313   9.301
 2064SOL    HW2 8090   4.381   4.411   9.265
 2065SOL     OW 8091   0.298   2.654  10.797
 2065SOL    HW1 8092   0.279   2.734  10.748
 2065SOL    HW2 8093   0.297   2.682  10.889
 2066SOL     OW 8094   1.629   8.705   6.133
 2066SOL    HW1 8095   1.539   8.701   6.166
 2066SOL    HW2 8096   1.683   8.718   6.211
 2067SOL     OW 8097   8.788   6.800   2.019
 2067SOL    HW1 8098   8.713   6.847   2.058
 2067SOL    HW2 8099   8.803   6.845   1.935
 2068SOL     OW 8100  14.183   1.378  13.889
 2068SOL    HW1 8101  14.210   1.286  13.878
 2068SOL    HW2 8102  14.123   1.376  13.963
 2069SOL     OW 8103  12.337   4.513   5.801
 2069SOL    HW1 8104  12.375   4.574   5.738
 2069SOL    HW2 8105  12.251   4.549   5.821
 2070SOL     OW 8106   3.604   6.904   5.734
 2070SOL    HW1 8107   3.642   6.991   5.748
 2070SOL    HW2 8108   3.670   6.857   5.684
 2071SOL     OW 8109   5.170  10.843   2.608
 2071SOL    HW1 8110   5.229  10.771   2.584
 2071SOL    HW2 8111   5.177  10.849   2.703
 2072SOL     OW 8112   1.496   5.474   5.992
 2072SOL    HW1 8113   1.457   5.511   6.071
 2072SOL    HW2 8114   1.582   5.517   5.986
 2073SOL     OW 8115   0.809  13.022   8.629
 2073SOL    HW1 8116   0.829  13.061   8.714
 2073SOL    HW2 8117   0.738  12.961   8.646
 2074SOL     OW 8118  12.888  12.810  12.612
 2074SOL    HW1 8119  12.963  12.751  12.607
 2074SOL    HW2 8120  12.923  12.896  12.591
 2075SOL     OW 8121   9.396   6.804   6.695
 2075SOL    HW1 8122   9.462   6.755   6.646
 2075SOL    HW2 8123   9.420   6.792   6.787
 2076SOL     OW 8124   4.668   8.675  13.341
 2076SOL    HW1 8125   4.576   8.696  13.360
 2076SOL    HW2 8126   4.718   8.731  13.400
 2077SOL     OW 8127   9.823   6.532   7.636
 2077SOL    HW1 8128   9.762   6.547   7.564
 2077SOL    HW2 8129   9.826   6.437   7.645
 2078SOL     OW 8130   1.562   0.371   6.778
 2078SOL    HW1 8131   1.512   0.304   6.732
 2078SOL    HW2 8132   1.577   0.335   6.865
 2079SOL     OW 8133  12.744   8.788   5.388
 2079SOL    HW1 8134  12.715   8.709   5.434
 2079SOL    HW2 8135  12.809   8.827   5.446
 2080SOL     OW 8136  11.658  11.877   9.416
 2080SOL    HW1 8137  11.628  11.967   9.429
 2080SOL    HW2 8138  11.680  11.873   9.323
 2081SOL     OW 8139   4.265   2.522  10.265
 2081SOL    HW1 8140   4.343   2.502  10.213
 2081SOL    HW2 8141   4.247   2.614  10.247
 2082SOL     OW 8142   1.520   1.736   1.013
 2082SOL    HW1 8143   1.427   1.728   0.993
 2082SOL    HW2 8144   1.526   1.717   1.107
 2083SOL     OW 8145  10.485   7.177   7.394
 2083SOL    HW1 8146  10.529   7.198   7.476
 2083SOL    HW2 8147  10.476   7.082   7.395
 2084SOL     OW 8148  13.393   8.682   4.900
 2084SOL    HW1 8149  13.437   8.767   4.902
 2084SOL    HW2 8150  13.303   8.703   4.875
 2085SOL     OW 8151   4.468   3.540   9.207
 2085SOL    HW1 8152   4.393   3.554   9.150
 2085SOL    HW2 8153   4.431   3.535   9.295
 2086SOL     OW 8154   0.618   5.227   7.355
 2086SOL    HW1 8155   0.702   5.266   7.381
 2086SOL    HW2 8156   0.600   5.161   7.422
 2087SOL     OW 8157   1.725   6.838   6.371
 2087SOL    HW1 8158   1.638   6.800   6.381
 2087SOL    HW2 8159   1.710   6.923   6.329
 2088SOL     OW 8160   3.832  10.035  11.785
 2088SOL    HW1 8161   3.914  10.069  11.752
 2088SOL    HW2 8162   3.843  10.034  11.880
 2089SOL     OW 8163   7.028  12.085   2.124
 2089SOL    HW1 8164   7.078  12.076   2.205
 2089SOL    HW2 8165   7.057  12.012   2.070
 2090SOL     OW 8166  10.036  11.017   6.618
 2090SOL    HW1 8167  10.100  10.979   6.558
 2090SOL    HW2 8168  10.025  11.107   6.588
 2091SOL     OW 8169  12.446  14.717  12.890
 2091SOL    HW1 8170  12.473  14.721  12.798
 2091SOL    HW2 8171  12.386  14.791  12.900
 2092SOL     OW 8172   6.972   4.205  10.487
 2092SOL    HW1 8173   7.051   4.164  10.524
 2092SOL    HW2 8174   6.988   4.206  10.392
 2093SOL     OW 8175   2.206   7.641   2.191
 2093SOL    HW1 8176   2.271   7.710   2.204
 2093SOL    HW2 8177   2.128   7.686   2.160
 2094SOL     OW 8178   2.574   7.439  12.396
 2094SOL    HW1 8179   2.557   7.439  12.490
 2094SOL    HW2 8180   2.635   7.511  12.383
 2095SOL     OW 8181   5.863   1.172  14.746
 2095SOL    HW1 8182   5.911   1.201  14.824
 2095SOL    HW2 8183   5.771   1.185  14.768
 2096SOL     OW 8184   1.888  11.861   8.922
 2096SOL    HW1 8185   1.849  11.820   8.845
 2096SOL    HW2 8186   1.938  11.935   8.888
 2097SOL     OW 8187  12.939   1.616  11.861
 2097SOL    HW1 8188  12.928   1.619  11.766
 2097SOL    HW2 8189  12.963   1.525  11.880
 2098SOL     OW 8190  13.157   3.595  10.825
 2098SOL    HW1 8191  13.133   3.511  10.786
 2098SOL    HW2 8192  13.238   3.578  10.873
 2099SOL     OW 8193   2.591   0.722   9.166
 2099SOL    HW1 8194   2.676   0.679   9.155
 2099SOL    HW2 8195   2.597   0.802   9.114
 2100SOL     OW 8196   0.701   1.353   2.990
 2100SOL    HW1 8197   0.610   1.381   2.979
 2100SOL    HW2 8198   0.749   1.397   2.920
 2101SOL     OW 8199  12.353  11.215   0.193
 2101SOL    HW1 8200  12.317  11.161   0.122
 2101SOL    HW2 8201  12.364  11.301   0.154
 2102SOL     OW 8202   9.760   6.229   7.461
 2102SOL    HW1 8203   9.727   6.148   7.499
 2102SOL    HW2 8204   9.855   6.215   7.454
 2103SOL     OW 8205   0.038  12.617   9.011
 2103SOL    HW1 8206   0.019  12.538   9.062
 2103SOL    HW2 8207  14.826  12.635   8.964
 2104SOL     OW 8208  11.075  10.165  10.736
 2104SOL    HW1 8209  11.144  10.218  10.776
 2104SOL    HW2 8210  10.993  10.202  10.771
 2105SOL     OW 8211   0.789   4.243   4.485
 2105SOL    HW1 8212   0.769   4.150   4.497
 2105SOL    HW2 8213   0.710   4.288   4.515
 2106SOL     OW 8214  11.322   0.870   5.389
 2106SOL    HW1 8215  11.231   0.878   5.363
 2106SOL    HW2 8216  11.326   0.789   5.439
 2107SOL     OW 8217   6.309  13.729   7.409
 2107SOL    HW1 8218   6.244  13.672   7.369
 2107SOL    HW2 8219   6.261  13.779   7.475
 2108SOL     OW 8220  14.626   5.223   4.491
 2108SOL    HW1 8221  14.658   5.231   4.581
 2108SOL    HW2 8222  14.601   5.131   4.482
 2109SOL     OW 8223   0.842   7.289  10.720
 2109SOL    HW1 8224   0.828   7.318  10.810
 2109SOL    HW2 8225   0.786   7.345  10.668
 2110SOL     OW 8226  13.124  12.106   7.463
 2110SOL    HW1 8227  13.124  12.199   7.441
 2110SOL    HW2 8228  13.036  12.076   7.439
 2111SOL     OW 8229   6.247   1.939  11.358
 2111SOL    HW1 8230   6.238   1.866  11.419
 2111SOL    HW2 8231   6.169   1.933  11.302
 2112SOL     OW 8232   2.320  11.533  11.540
 2112SOL    HW1 8233   2.388  11.485  11.492
 2112SOL    HW2 8234   2.262  11.465  11.574
 2113SOL     OW 8235   0.845  11.127   1.776
 2113SOL    HW1 8236   0.829  11.054   1.836
 2113SOL    HW2 8237   0.933  11.158   1.799
 2114SOL     OW 8238   2.497   7.072   5.965
 2114SOL    HW1 8239   2.434   7.115   5.907
 2114SOL    HW2 8240   2.580   7.114   5.945
 2115SOL     OW 8241   9.684  12.139   4.785
 2115SOL    HW1 8242   9.717  12.157   4.697
 2115SOL    HW2 8243   9.687  12.043   4.793
 2116SOL     OW 8244  12.431   1.419   9.832
 2116SOL    HW1 8245  12.491   1.381   9.897
 2116SOL    HW2 8246  12.385   1.344   9.794
 2117SOL     OW 8247   1.598  12.741   7.042
 2117SOL    HW1 8248   1.692  12.725   7.033
 2117SOL    HW2 8249   1.584  12.824   6.996
 2118SOL     OW 8250  13.619  11.631  12.710
 2118SOL    HW1 8251  13.535  11.604  12.672
 2118SOL    HW2 8252  13.656  11.692  12.646
 2119SOL     OW 8253  13.699   6.162  11.855
 2119SOL    HW1 8254  13.608   6.192  11.853
 2119SOL    HW2 8255  13.751   6.242  11.860
 2120SOL     OW 8256   2.129   1.254   9.199
 2120SOL    HW1 8257   2.098   1.296   9.118
 2120SOL    HW2 8258   2.112   1.319   9.267
 2121SOL     OW 8259   5.297  13.047  14.546
 2121SOL    HW1 8260   5.308  12.954  14.567
 2121SOL    HW2 8261   5.333  13.093  14.622
 2122SOL     OW 8262   1.459   2.205   9.763
 2122SOL    HW1 8263   1.408   2.281   9.792
 2122SOL    HW2 8264   1.527   2.241   9.707
 2123SOL     OW 8265   8.000   4.870   3.971
 2123SOL    HW1 8266   7.914   4.848   4.006
 2123SOL    HW2 8267   8.048   4.787   3.971
 2124SOL     OW 8268   9.594  14.674   8.946
 2124SOL    HW1 8269   9.643  14.698   9.024
 2124SOL    HW2 8270   9.507  14.650   8.979
 2125SOL     OW 8271  11.270   9.422  12.430
 2125SOL    HW1 8272  11.313   9.507  12.420
 2125SOL    HW2 8273  11.287   9.397  12.521
 2126SOL     OW 8274   7.658  14.846  10.380
 2126SOL    HW1 8275   7.695  14.826  10.466
 2126SOL    HW2 8276   7.633  14.761  10.345
 2127SOL     OW 8277   3.322   8.114   9.697
 2127SOL    HW1 8278   3.372   8.179   9.747
 2127SOL    HW2 8279   3.241   8.103   9.747
 2128SOL     OW 8280   1.635  12.634  13.394
 2128SOL    HW1 8281   1.551  12.600  13.363
 2128SOL    HW2 8282   1.612  12.715  13.441
 2129SOL     OW 8283   3.494  12.924  12.845
 2129SOL    HW1 8284   3.568  12.869  12.870
 2129SOL    HW2 8285   3.418  12.865  12.851
 2130SOL     OW 8286   2.698   9.315  11.446
 2130SOL    HW1 8287   2.772   9.272  11.403
 2130SOL    HW2 8288   2.628   9.314  11.379
 2131SOL     OW 8289   7.560   5.802   0.449
 2131SOL    HW1 8290   7.551   5.730   0.511
 2131SOL    HW2 8291   7.471   5.830   0.432
 2132SOL     OW 8292  10.346  11.638   4.784
 2132SOL    HW1 8293  10.392  11.561   4.817
 2132SOL    HW2 8294  10.305  11.677   4.862
 2133SOL     OW 8295  12.379   2.345   7.727
 2133SOL    HW1 8296  12.364   2.399   7.804
 2133SOL    HW2 8297  12.337   2.393   7.655
 2134SOL     OW 8298   0.537  14.107   3.074
 2134SOL    HW1 8299   0.588  14.188   3.072
 2134SOL    HW2 8300   0.454  14.130   3.033
 2135SOL     OW 8301   5.939   1.738  12.736
 2135SOL    HW1 8302   5.914   1.646  12.724
 2135SOL    HW2 8303   5.877   1.771  12.801
 2136SOL     OW 8304   6.388   7.007  14.708
 2136SOL    HW1 8305   6.331   7.002  14.631
 2136SOL    HW2 8306   6.328   6.998  14.782
 2137SOL     OW 8307  13.232   8.150   0.093
 2137SOL    HW1 8308  13.296   8.094   0.136
 2137SOL    HW2 8309  13.271   8.169   0.007
 2138SOL     OW 8310   0.139   3.597   8.520
 2138SOL    HW1 8311   0.129   3.683   8.479
 2138SOL    HW2 8312   0.114   3.612   8.612
 2139SOL     OW 8313   4.975   7.176   1.908
 2139SOL    HW1 8314   4.894   7.148   1.950
 2139SOL    HW2 8315   4.973   7.271   1.912
 2140SOL     OW 8316   9.067   0.652   7.325
 2140SOL    HW1 8317   9.143   0.638   7.382
 2140SOL    HW2 8318   9.072   0.582   7.260
 2141SOL     OW 8319   2.839   1.074   6.329
 2141SOL    HW1 8320   2.753   1.108   6.355
 2141SOL    HW2 8321   2.838   0.983   6.357
 2142SOL     OW 8322   8.062  13.707   5.317
 2142SOL    HW1 8323   8.069  13.642   5.247
 2142SOL    HW2 8324   8.150  13.745   5.323
 2143SOL     OW 8325  12.526   7.486  12.273
 2143SOL    HW1 8326  12.608   7.446  12.301
 2143SOL    HW2 8327  12.461   7.416  12.280
 2144SOL     OW 8328   1.140   0.798   1.061
 2144SOL    HW1 8329   1.214   0.804   1.122
 2144SOL    HW2 8330   1.115   0.705   1.063
 2145SOL     OW 8331   5.804   2.556   4.500
 2145SOL    HW1 8332   5.740   2.617   4.535
 2145SOL    HW2 8333   5.754   2.476   4.483
 2146SOL     OW 8334   9.472   3.495   9.218
 2146SOL    HW1 8335   9.476   3.400   9.224
 2146SOL    HW2 8336   9.513   3.516   9.134
 2147SOL     OW 8337  12.663  14.226   5.125
 2147SOL    HW1 8338  12.593  14.266   5.073
 2147SOL    HW2 8339  12.743  14.271   5.096
 2148SOL     OW 8340  13.228  10.119   2.328
 2148SOL    HW1 8341  13.154  10.124   2.389
 2148SOL    HW2 8342  13.296  10.173   2.369
 2149SOL     OW 8343   8.441   2.460  13.901
 2149SOL    HW1 8344   8.475   2.372  13.887
 2149SOL    HW2 8345   8.385   2.476  13.825
 2150SOL     OW 8346   3.170  11.215   3.743
 2150SOL    HW1 8347   3.216  11.238   3.824
 2150SOL    HW2 8348   3.161  11.299   3.697
 2151SOL     OW 8349  13.442   2.107  10.553
 2151SOL    HW1 8350  13.469   2.193  10.584
 2151SOL    HW2 8351  13.519   2.072  10.508
 2152SOL     OW 8352  14.703   0.203   6.592
 2152SOL    HW1 8353  14.795   0.214   6.615
 2152SOL    HW2 8354  14.668   0.293   6.588
 2153SOL     OW 8355   8.728  12.414   1.430
 2153SOL    HW1 8356   8.804  12.441   1.380
 2153SOL    HW2 8357   8.655  12.461   1.390
 2154SOL     OW 8358  13.012   3.565   1.713
 2154SOL    HW1 8359  13.061   3.615   1.649
 2154SOL    HW2 8360  13.021   3.614   1.795
 2155SOL     OW 8361  10.728   6.899   5.884
 2155SOL    HW1 8362  10.789   6.830   5.857
 2155SOL    HW2 8363  10.767   6.936   5.963
 2156SOL     OW 8364  12.056  12.908   4.086
 2156SOL    HW1 8365  12.033  12.988   4.132
 2156SOL    HW2 8366  11.990  12.900   4.017
 2157SOL     OW 8367  11.214   9.863  13.651
 2157SOL    HW1 8368  11.246   9.786  13.604
 2157SOL    HW2 8369  11.177   9.828  13.732
 2158SOL     OW 8370  10.705   7.693   4.617
 2158SOL    HW1 8371  10.666   7.742   4.544
 2158SOL    HW2 8372  10.746   7.617   4.575
 2159SOL     OW 8373   7.875  12.795  12.325
 2159SOL    HW1 8374   7.841  12.820  12.410
 2159SOL    HW2 8375   7.933  12.867  12.300
 2160SOL     OW 8376  10.182  13.269   6.811
 2160SOL    HW1 8377  10.257  13.275   6.870
 2160SOL    HW2 8378  10.211  13.213   6.740
 2161SOL     OW 8379  10.703  12.125   8.388
 2161SOL    HW1 8380  10.626  12.076   8.357
 2161SOL    HW2 8381  10.766  12.117   8.317
 2162SOL     OW 8382   0.644  11.740  12.095
 2162SOL    HW1 8383   0.726  11.726  12.142
 2162SOL    HW2 8384   0.605  11.653  12.087
 2163SOL     OW 8385  13.852   5.922  13.579
 2163SOL    HW1 8386  13.878   6.008  13.611
 2163SOL    HW2 8387  13.860   5.928  13.484
 2164SOL     OW 8388  12.820   0.312   9.659
 2164SOL    HW1 8389  12.839   0.402   9.633
 2164SOL    HW2 8390  12.902   0.280   9.697
 2165SOL     OW 8391   2.702   3.906  12.304
 2165SOL    HW1 8392   2.729   3.905  12.212
 2165SOL    HW2 8393   2.719   3.996  12.332
 2166SOL     OW 8394   1.871   7.837   7.023
 2166SOL    HW1 8395   1.963   7.810   7.030
 2166SOL    HW2 8396   1.842   7.799   6.940
 2167SOL     OW 8397   6.621  13.961   7.193
 2167SOL    HW1 8398   6.543  14.016   7.182
 2167SOL    HW2 8399   6.613  13.927   7.283
 2168SOL     OW 8400   5.544   5.476  11.264
 2168SOL    HW1 8401   5.534   5.488  11.170
 2168SOL    HW2 8402   5.477   5.533  11.303
 2169SOL     OW 8403   8.013   1.865   1.364
 2169SOL    HW1 8404   8.094   1.869   1.313
 2169SOL    HW2 8405   8.043   1.857   1.455
 2170SOL     OW 8406  12.760  13.602   3.396
 2170SOL    HW1 8407  12.744  13.539   3.325
 2170SOL    HW2 8408  12.825  13.662   3.359
 2171SOL     OW 8409   7.479   0.990   9.971
 2171SOL    HW1 8410   7.546   1.058   9.963
 2171SOL    HW2 8411   7.493   0.933   9.896
 2172SOL     OW 8412  14.325  10.774  10.474
 2172SOL    HW1 8413  14.337  10.773  10.379
 2172SOL    HW2 8414  14.259  10.842  10.489
 2173SOL     OW 8415  14.095   2.389  10.175
 2173SOL    HW1 8416  14.110   2.445  10.098
 2173SOL    HW2 8417  14.106   2.300  10.142
 2174SOL     OW 8418   2.531   1.143   8.771
 2174SOL    HW1 8419   2.600   1.173   8.830
 2174SOL    HW2 8420   2.557   1.174   8.685
 2175SOL     OW 8421   0.035   8.244   6.862
 2175SOL    HW1 8422  14.812   8.256   6.884
 2175SOL    HW2 8423   0.035   8.201   6.777
 2176SOL     OW 8424   2.246  11.478   4.275
 2176SOL    HW1 8425   2.228  11.475   4.181
 2176SOL    HW2 8426   2.189  11.411   4.312
 2177SOL     OW 8427   5.124   4.381   8.677
 2177SOL    HW1 8428   5.181   4.430   8.618
 2177SOL    HW2 8429   5.183   4.345   8.744
 2178SOL     OW 8430  13.018   7.586   1.269
 2178SOL    HW1 8431  13.059   7.667   1.238
 2178SOL    HW2 8432  12.948   7.616   1.328
 2179SOL     OW 8433  10.682   7.271  12.263
 2179SOL    HW1 8434  10.765   7.310  12.238
 2179SOL    HW2 8435  10.669   7.297  12.355
 2180SOL     OW 8436   1.527   1.079   9.083
 2180SOL    HW1 8437   1.617   1.067   9.054
 2180SOL    HW2 8438   1.532   1.144   9.153
 2181SOL     OW 8439  12.410  12.322   5.814
 2181SOL    HW1 8440  12.367  12.269   5.880
 2181SOL    HW2 8441  12.342  12.381   5.781
 2182SOL     OW 8442  12.987   2.777   9.655
 2182SOL    HW1 8443  12.921   2.719   9.694
 2182SOL    HW2 8444  12.937   2.854   9.628
 2183SOL     OW 8445  10.621  13.574  10.758
 2183SOL    HW1 8446  10.535  13.535  10.742
 2183SOL    HW2 8447  10.602  13.654  10.807
 2184SOL     OW 8448   4.809   7.831   7.919
 2184SOL    HW1 8449   4.881   7.825   7.857
 2184SOL    HW2 8450   4.795   7.925   7.931
 2185SOL     OW 8451   6.504   1.890   1.384
 2185SOL    HW1 8452   6.476   1.931   1.466
 2185SOL    HW2 8453   6.473   1.800   1.391
 2186SOL     OW 8454   8.305   7.684  12.470
 2186SOL    HW1 8455   8.282   7.692  12.378
 2186SOL    HW2 8456   8.320   7.591  12.483
 2187SOL     OW 8457  13.437  11.741   1.048
 2187SOL    HW1 8458  13.371  11.688   1.003
 2187SOL    HW2 8459  13.407  11.745   1.138
 2188SOL     OW 8460   2.759  14.609   7.005
 2188SOL    HW1 8461   2.752  14.703   7.019
 2188SOL    HW2 8462   2.790  14.575   7.089
 2189SOL     OW 8463  13.130  11.610  11.977
 2189SOL    HW1 8464  13.154  11.526  11.938
 2189SOL    HW2 8465  13.094  11.588  12.062
 2190SOL     OW 8466   1.653   7.687  12.424
 2190SOL    HW1 8467   1.696   7.607  12.455
 2190SOL    HW2 8468   1.718   7.756  12.438
 2191SOL     OW 8469   4.031   1.242   4.027
 2191SOL    HW1 8470   3.945   1.275   4.002
 2191SOL    HW2 8471   4.014   1.178   4.095
 2192SOL     OW 8472   3.554   2.127   7.303
 2192SOL    HW1 8473   3.489   2.125   7.233
 2192SOL    HW2 8474   3.632   2.165   7.262
 2193SOL     OW 8475   0.791   3.439   6.092
 2193SOL    HW1 8476   0.791   3.521   6.043
 2193SOL    HW2 8477   0.884   3.417   6.102
 2194SOL     OW 8478   9.367  12.388  14.102
 2194SOL    HW1 8479   9.408  12.441  14.034
 2194SOL    HW2 8480   9.317  12.451  14.154
 2195SOL     OW 8481   1.143   8.819  13.027
 2195SOL    HW1 8482   1.207   8.769  12.976
 2195SOL    HW2 8483   1.189   8.839  13.109
 2196SOL     OW 8484   7.216   5.469   2.434
 2196SOL    HW1 8485   7.209   5.501   2.524
 2196SOL    HW2 8486   7.288   5.520   2.396
 2197SOL     OW 8487   2.771   1.792   4.416
 2197SOL    HW1 8488   2.827   1.714   4.413
 2197SOL    HW2 8489   2.800   1.840   4.493
 2198SOL     OW 8490   4.570   7.881   2.960
 2198SOL    HW1 8491   4.531   7.894   2.874
 2198SOL    HW2 8492   4.632   7.954   2.969
 2199SOL     OW 8493   8.734  10.769  14.590
 2199SOL    HW1 8494   8.716  10.681  14.623
 2199SOL    HW2 8495   8.650  10.815  14.600
 2200SOL     OW 8496   3.843   9.289   6.660
 2200SOL    HW1 8497   3.886   9.237   6.593
 2200SOL    HW2 8498   3.771   9.233   6.691
 2201SOL     OW 8499  12.998   4.821   7.640
 2201SOL    HW1 8500  13.021   4.876   7.715
 2201SOL    HW2 8501  12.975   4.883   7.571
 2202SOL     OW 8502   6.832   3.901   8.594
 2202SOL    HW1 8503   6.833   3.830   8.658
 2202SOL    HW2 8504   6.855   3.979   8.644
 2203SOL     OW 8505  13.305   4.209  10.770
 2203SOL    HW1 8506  13.266   4.144  10.829
 2203SOL    HW2 8507  13.235   4.273  10.754
 2204SOL     OW 8508   4.620  14.731   7.553
 2204SOL    HW1 8509   4.626  14.817   7.594
 2204SOL    HW2 8510   4.600  14.749   7.461
 2205SOL     OW 8511   9.720   2.722   1.229
 2205SOL    HW1 8512   9.680   2.693   1.311
 2205SOL    HW2 8513   9.768   2.645   1.198
 2206SOL     OW 8514  12.208  12.259  12.795
 2206SOL    HW1 8515  12.256  12.179  12.772
 2206SOL    HW2 8516  12.163  12.236  12.876
 2207SOL     OW 8517   5.985   8.824   2.542
 2207SOL    HW1 8518   5.908   8.813   2.598
 2207SOL    HW2 8519   5.955   8.882   2.472
 2208SOL     OW 8520   3.757   3.510   6.515
 2208SOL    HW1 8521   3.772   3.601   6.489
 2208SOL    HW2 8522   3.667   3.509   6.547
 2209SOL     OW 8523  13.186   6.194   9.218
 2209SOL    HW1 8524  13.182   6.198   9.314
 2209SOL    HW2 8525  13.188   6.286   9.190
 2210SOL     OW 8526  10.900   4.920  13.485
 2210SOL    HW1 8527  10.981   4.875  13.508
 2210SOL    HW2 8528  10.925   5.011  13.472
 2211SOL     OW 8529   8.865  13.254   0.129
 2211SOL    HW1 8530   8.831  13.334   0.088
 2211SOL    HW2 8531   8.927  13.219   0.064
 2212SOL     OW 8532  10.320   0.291   2.662
 2212SOL    HW1 8533  10.232   0.309   2.696
 2212SOL    HW2 8534  10.377   0.353   2.708
 2213SOL     OW 8535   5.099   2.568   6.818
 2213SOL    HW1 8536   5.096   2.588   6.911
 2213SOL    HW2 8537   5.192   2.570   6.796
 2214SOL     OW 8538   9.875   4.707  11.405
 2214SOL    HW1 8539   9.843   4.617  11.406
 2214SOL    HW2 8540   9.946   4.707  11.341
 2215SOL     OW 8541   9.319   7.796   3.219
 2215SOL    HW1 8542   9.301   7.873   3.273
 2215SOL    HW2 8543   9.247   7.793   3.156
 2216SOL     OW 8544   8.757   6.790  11.365
 2216SOL    HW1 8545   8.853   6.795  11.360
 2216SOL    HW2 8546   8.731   6.875  11.400
 2217SOL     OW 8547   9.119   1.613  10.631
 2217SOL    HW1 8548   9.184   1.617  10.700
 2217SOL    HW2 8549   9.095   1.520  10.627
 2218SOL     OW 8550   5.027   0.214   2.704
 2218SOL    HW1 8551   4.940   0.199   2.668
 2218SOL    HW2 8552   5.057   0.127   2.730
 2219SOL     OW 8553   9.831  10.343  12.329
 2219SOL    HW1 8554   9.870  10.427  12.306
 2219SOL    HW2 8555   9.904  10.290  12.360
 2220SOL     OW 8556   1.545   6.589   9.483
 2220SOL    HW1 8557   1.498   6.645   9.545
 2220SOL    HW2 8558   1.634   6.624   9.480
 2221SOL     OW 8559  11.575   6.534   4.755
 2221SOL    HW1 8560  11.657   6.488   4.769
 2221SOL    HW2 8561  11.513   6.465   4.731
 2222SOL     OW 8562   4.702   4.383  13.240
 2222SOL    HW1 8563   4.753   4.339  13.308
 2222SOL    HW2 8564   4.719   4.476  13.254
 2223SOL     OW 8565   9.208  12.935  10.226
 2223SOL    HW1 8566   9.115  12.938  10.203
 2223SOL    HW2 8567   9.252  12.981  10.155
 2224SOL     OW 8568   1.836   0.557   4.668
 2224SOL    HW1 8569   1.750   0.553   4.626
 2224SOL    HW2 8570   1.867   0.467   4.666
 2225SOL     OW 8571   0.495   7.709   7.313
 2225SOL    HW1 8572   0.427   7.647   7.286
 2225SOL    HW2 8573   0.472   7.791   7.269
 2226SOL     OW 8574  11.177   7.637   9.751
 2226SOL    HW1 8575  11.102   7.669   9.701
 2226SOL    HW2 8576  11.140   7.605   9.833
 2227SOL     OW 8577   2.769   7.264   1.921
 2227SOL    HW1 8578   2.676   7.247   1.936
 2227SOL    HW2 8579   2.809   7.177   1.919
 2228SOL     OW 8580   2.729   0.657  13.062
 2228SOL    HW1 8581   2.762   0.568  13.070
 2228SOL    HW2 8582   2.799   0.712  13.096
 2229SOL     OW 8583  12.690  11.256  12.779
 2229SOL    HW1 8584  12.627  11.327  12.769
 2229SOL    HW2 8585  12.713  11.257  12.872
 2230SOL     OW 8586   4.651   5.965  13.543
 2230SOL    HW1 8587   4.634   5.965  13.449
 2230SOL    HW2 8588   4.632   6.055  13.570
 2231SOL     OW 8589   5.164  13.046   2.449
 2231SOL    HW1 8590   5.182  13.121   2.506
 2231SOL    HW2 8591   5.222  12.977   2.481
 2232SOL     OW 8592   0.089  13.333  13.537
 2232SOL    HW1 8593   0.045  13.418  13.533
 2232SOL    HW2 8594   0.018  13.270  13.552
 2233SOL     OW 8595   9.167  14.741   1.218
 2233SOL    HW1 8596   9.159  14.716   1.311
 2233SOL    HW2 8597   9.183  14.835   1.220
 2234SOL     OW 8598  12.532  13.051   9.134
 2234SOL    HW1 8599  12.610  13.030   9.083
 2234SOL    HW2 8600  12.548  13.010   9.220
 2235SOL     OW 8601   9.480  11.318  13.158
 2235SOL    HW1 8602   9.445  11.233  13.133
 2235SOL    HW2 8603   9.441  11.379  13.095
 2236SOL     OW 8604   5.717   7.308  12.585
 2236SOL    HW1 8605   5.635   7.260  12.600
 2236SOL    HW2 8606   5.784   7.241  12.581
 2237SOL     OW 8607   3.233   2.196  10.403
 2237SOL    HW1 8608   3.192   2.237  10.480
 2237SOL    HW2 8609   3.327   2.206  10.418
 2238SOL     OW 8610  12.911  10.956   5.386
 2238SOL    HW1 8611  12.852  10.910   5.446
 2238SOL    HW2 8612  12.937  10.889   5.323
 2239SOL     OW 8613   1.914   2.041   4.231
 2239SOL    HW1 8614   1.942   2.069   4.145
 2239SOL    HW2 8615   1.945   2.109   4.291
 2240SOL     OW 8616   9.526   4.529   2.287
 2240SOL    HW1 8617   9.620   4.539   2.303
 2240SOL    HW2 8618   9.502   4.451   2.337
 2241SOL     OW 8619   0.633   8.513   1.666
 2241SOL    HW1 8620   0.682   8.433   1.647
 2241SOL    HW2 8621   0.700   8.579   1.682
 2242SOL     OW 8622   5.549   9.899  11.742
 2242SOL    HW1 8623   5.480   9.847  11.783
 2242SOL    HW2 8624   5.513   9.925  11.657
 2243SOL     OW 8625   4.078   4.226  13.140
 2243SOL    HW1 8626   3.997   4.266  13.110
 2243SOL    HW2 8627   4.084   4.144  13.091
 2244SOL     OW 8628   2.824   4.750  11.705
 2244SOL    HW1 8629   2.892   4.752  11.638
 2244SOL    HW2 8630   2.855   4.685  11.768
 2245SOL     OW 8631   6.255   2.296   1.467
 2245SOL    HW1 8632   6.336   2.265   1.507
 2245SOL    HW2 8633   6.283   2.368   1.409
 2246SOL     OW 8634   3.403  10.581   0.800
 2246SOL    HW1 8635   3.338  10.601   0.868
 2246SOL    HW2 8636   3.375  10.632   0.724
 2247SOL     OW 8637  11.170   8.896   3.553
 2247SOL    HW1 8638  11.194   8.891   3.646
 2247SOL    HW2 8639  11.145   8.987   3.540
 2248SOL     OW 8640   4.017   6.697   3.506
 2248SOL    HW1 8641   4.090   6.712   3.447
 2248SOL    HW2 8642   3.939   6.724   3.457
 2249SOL     OW 8643  10.880  14.778  12.842
 2249SOL    HW1 8644  10.901  14.700  12.790
 2249SOL    HW2 8645  10.944  14.778  12.913
 2250SOL     OW 8646   5.109   0.641  13.182
 2250SOL    HW1 8647   5.039   0.668  13.241
 2250SOL    HW2 8648   5.073   0.565  13.136
 2251SOL     OW 8649  12.182   3.246   2.210
 2251SOL    HW1 8650  12.239   3.292   2.272
 2251SOL    HW2 8651  12.118   3.311   2.183
 2252SOL     OW 8652   5.005   3.654   3.170
 2252SOL    HW1 8653   5.088   3.643   3.217
 2252SOL    HW2 8654   4.949   3.700   3.232
 2253SOL     OW 8655   8.595   5.270   7.056
 2253SOL    HW1 8656   8.594   5.186   7.101
 2253SOL    HW2 8657   8.685   5.300   7.062
 2254SOL     OW 8658   7.236   8.447   4.193
 2254SOL    HW1 8659   7.188   8.415   4.117
 2254SOL    HW2 8660   7.281   8.370   4.227
 2255SOL     OW 8661   4.295   7.096  13.510
 2255SOL    HW1 8662   4.341   7.159  13.566
 2255SOL    HW2 8663   4.356   7.022  13.503
 2256SOL     OW 8664  13.044   5.803  10.027
 2256SOL    HW1 8665  13.019   5.880   9.976
 2256SOL    HW2 8666  13.102   5.836  10.095
 2257SOL     OW 8667  12.251   6.016   2.184
 2257SOL    HW1 8668  12.292   5.945   2.134
 2257SOL    HW2 8669  12.241   6.087   2.120
 2258SOL     OW 8670   0.431   2.317  14.757
 2258SOL    HW1 8671   0.424   2.350  14.847
 2258SOL    HW2 8672   0.453   2.395  14.705
 2259SOL     OW 8673   0.643   5.258  12.495
 2259SOL    HW1 8674   0.712   5.268  12.561
 2259SOL    HW2 8675   0.568   5.306  12.531
 2260SOL     OW 8676  10.039  13.181   8.509
 2260SOL    HW1 8677  10.108  13.214   8.567
 2260SOL    HW2 8678  10.038  13.244   8.436
 2261SOL     OW 8679   2.075   9.204   7.996
 2261SOL    HW1 8680   2.107   9.179   8.083
 2261SOL    HW2 8681   2.085   9.124   7.944
 2262SOL     OW 8682   0.651   6.249   9.742
 2262SOL    HW1 8683   0.587   6.320   9.745
 2262SOL    HW2 8684   0.733   6.291   9.717
 2263SOL     OW 8685  14.649  11.012   7.457
 2263SOL    HW1 8686  14.650  11.084   7.521
 2263SOL    HW2 8687  14.605  11.049   7.380
 2264SOL     OW 8688  14.336   4.000   7.537
 2264SOL    HW1 8689  14.419   3.978   7.578
 2264SOL    HW2 8690  14.361   4.032   7.450
 2265SOL     OW 8691   5.662  11.354   2.825
 2265SOL    HW1 8692   5.667  11.334   2.919
 2265SOL    HW2 8693   5.708  11.437   2.816
 2266SOL     OW 8694   7.083   0.846   3.250
 2266SOL    HW1 8695   7.117   0.765   3.287
 2266SOL    HW2 8696   6.990   0.847   3.272
 2267SOL     OW 8697  11.121  10.976   2.199
 2267SOL    HW1 8698  11.208  10.960   2.163
 2267SOL    HW2 8699  11.133  11.044   2.264
 2268SOL     OW 8700   0.116  13.033   4.677
 2268SOL    HW1 8701   0.142  13.067   4.762
 2268SOL    HW2 8702   0.198  13.013   4.633
 2269SOL     OW 8703   6.963   6.488   1.569
 2269SOL    HW1 8704   6.943   6.446   1.652
 2269SOL    HW2 8705   7.048   6.529   1.583
 2270SOL     OW 8706  10.894   4.597   3.825
 2270SOL    HW1 8707  10.821   4.593   3.763
 2270SOL    HW2 8708  10.872   4.532   3.891
 2271SOL     OW 8709   3.785  11.996  14.455
 2271SOL    HW1 8710   3.870  11.955  14.439
 2271SOL    HW2 8711   3.732  11.971  14.380
 2272SOL     OW 8712   0.652   6.177   6.430
 2272SOL    HW1 8713   0.661   6.222   6.514
 2272SOL    HW2 8714   0.627   6.088   6.453
 2273SOL     OW 8715  13.376  11.749   3.501
 2273SOL    HW1 8716  13.378  11.770   3.408
 2273SOL    HW2 8717  13.466  11.764   3.531
 2274SOL     OW 8718   6.909  10.071  11.234
 2274SOL    HW1 8719   6.880  10.018  11.308
 2274SOL    HW2 8720   6.952  10.008  11.176
 2275SOL     OW 8721   4.424  14.464   2.401
 2275SOL    HW1 8722   4.468  14.496   2.479
 2275SOL    HW2 8723   4.461  14.377   2.385
 2276SOL     OW 8724   3.889   5.314   0.553
 2276SOL    HW1 8725   3.875   5.287   0.463
 2276SOL    HW2 8726   3.827   5.261   0.604
 2277SOL     OW 8727  12.789  12.555  14.703
 2277SOL    HW1 8728  12.756  12.638  14.669
 2277SOL    HW2 8729  12.758  12.552  14.794
 2278SOL     OW 8730   5.268   8.070  12.524
 2278SOL    HW1 8731   5.261   8.033  12.612
 2278SOL    HW2 8732   5.297   7.996  12.470
 2279SOL     OW 8733   0.448   4.428   6.519
 2279SOL    HW1 8734   0.394   4.377   6.458
 2279SOL    HW2 8735   0.427   4.519   6.499
 2280SOL     OW 8736  11.018   6.205  13.203
 2280SOL    HW1 8737  11.054   6.176  13.118
 2280SOL    HW2 8738  10.933   6.243  13.181
 2281SOL     OW 8739   3.616   7.249   1.586
 2281SOL    HW1 8740   3.531   7.228   1.624
 2281SOL    HW2 8741   3.600   7.256   1.492
 2282SOL     OW 8742  10.869   8.797   4.535
 2282SOL    HW1 8743  10.843   8.805   4.443
 2282SOL    HW2 8744  10.791   8.760   4.578
 2283SOL     OW 8745   0.271  11.390   1.442
 2283SOL    HW1 8746   0.204  11.446   1.482
 2283SOL    HW2 8747   0.278  11.315   1.501
 2284SOL     OW 8748   6.794   5.791   2.900
 2284SOL    HW1 8749   6.798   5.697   2.914
 2284SOL    HW2 8750   6.702   5.813   2.915
 2285SOL     OW 8751   3.078  13.325  13.203
 2285SOL    HW1 8752   3.135  13.378  13.259
 2285SOL    HW2 8753   3.125  13.320  13.120
 2286SOL     OW 8754  13.449   9.282  10.630
 2286SOL    HW1 8755  13.404   9.354  10.674
 2286SOL    HW2 8756  13.379   9.222  10.604
 2287SOL     OW 8757  10.683   5.769   1.468
 2287SOL    HW1 8758  10.756   5.713   1.443
 2287SOL    HW2 8759  10.694   5.783   1.562
 2288SOL     OW 8760   7.469   0.794   4.047
 2288SOL    HW1 8761   7.416   0.815   4.124
 2288SOL    HW2 8762   7.542   0.742   4.081
 2289SOL     OW 8763   1.719   0.044   6.931
 2289SOL    HW1 8764   1.698   0.126   6.976
 2289SOL    HW2 8765   1.760  14.859   6.998
 2290SOL     OW 8766  12.896   3.982   8.087
 2290SOL    HW1 8767  12.967   3.922   8.066
 2290SOL    HW2 8768  12.820   3.947   8.040
 2291SOL     OW 8769  13.903  11.105   7.357
 2291SOL    HW1 8770  13.931  11.082   7.445
 2291SOL    HW2 8771  13.902  11.201   7.356
 2292SOL     OW 8772   7.398  14.239   9.993
 2292SOL    HW1 8773   7.344  14.309   9.956
 2292SOL    HW2 8774   7.418  14.269  10.082
 2293SOL     OW 8775   4.454  12.505   1.691
 2293SOL    HW1 8776   4.420  12.416   1.682
 2293SOL    HW2 8777   4.380  12.556   1.721
 2294SOL     OW 8778  12.379   3.340   6.453
 2294SOL    HW1 8779  12.420   3.316   6.536
 2294SOL    HW2 8780  12.311   3.403   6.476
 2295SOL     OW 8781  11.936  10.999  10.449
 2295SOL    HW1 8782  12.015  11.046  10.425
 2295SOL    HW2 8783  11.951  10.909  10.418
 2296SOL     OW 8784  13.810   1.255   8.158
 2296SOL    HW1 8785  13.857   1.331   8.123
 2296SOL    HW2 8786  13.717   1.276   8.147
 2297SOL     OW 8787  13.869  10.077   9.973
 2297SOL    HW1 8788  13.864   9.993   9.926
 2297SOL    HW2 8789  13.781  10.089  10.010
 2298SOL     OW 8790  13.739   3.913   4.581
 2298SOL    HW1 8791  13.733   3.894   4.487
 2298SOL    HW2 8792  13.652   3.945   4.605
 2299SOL     OW 8793   5.732  12.591   5.917
 2299SOL    HW1 8794   5.783  12.551   5.847
 2299SOL    HW2 8795   5.761  12.683   5.918
 2300SOL     OW 8796  14.843   6.013   3.065
 2300SOL    HW1 8797   0.024   5.962   3.129
 2300SOL    HW2 8798  14.852   5.964   2.983
 2301SOL     OW 8799  13.190   1.949  14.770
 2301SOL    HW1 8800  13.282   1.936  14.792
 2301SOL    HW2 8801  13.193   2.011  14.697
 2302SOL     OW 8802   6.929   0.881   0.611
 2302SOL    HW1 8803   6.965   0.829   0.683
 2302SOL    HW2 8804   6.943   0.972   0.637
 2303SOL     OW 8805   8.482  10.695  11.346
 2303SOL    HW1 8806   8.454  10.635  11.278
 2303SOL    HW2 8807   8.414  10.762  11.348
 2304SOL     OW 8808   9.333  10.861  14.800
 2304SOL    HW1 8809   9.344  10.909   0.012
 2304SOL    HW2 8810   9.384  10.911  14.736
 2305SOL     OW 8811   0.873   9.472   2.030
 2305SOL    HW1 8812   0.940   9.502   1.970
 2305SOL    HW2 8813   0.831   9.552   2.062
 2306SOL     OW 8814   0.337   4.927  10.539
 2306SOL    HW1 8815   0.421   4.916  10.493
 2306SOL    HW2 8816   0.272   4.932  10.469
 2307SOL     OW 8817   7.453   3.908  14.438
 2307SOL    HW1 8818   7.423   3.881  14.525
 2307SOL    HW2 8819   7.530   3.963  14.456
 2308SOL     OW 8820   0.467   0.509   7.640
 2308SOL    HW1 8821   0.557   0.534   7.662
 2308SOL    HW2 8822   0.476   0.453   7.563
 2309SOL     OW 8823   6.462   8.090   8.518
 2309SOL    HW1 8824   6.403   8.017   8.536
 2309SOL    HW2 8825   6.453   8.148   8.594
 2310SOL     OW 8826  13.365   3.590   8.759
 2310SOL    HW1 8827  13.392   3.509   8.802
 2310SOL    HW2 8828  13.273   3.600   8.782
 2311SOL     OW 8829   1.700   0.028   3.376
 2311SOL    HW1 8830   1.669   0.073   3.455
 2311SOL    HW2 8831   1.635  14.829   3.360
 2312SOL     OW 8832  13.140  10.732  13.952
 2312SOL    HW1 8833  13.172  10.686  13.874
 2312SOL    HW2 8834  13.077  10.796  13.917
 2313SOL     OW 8835   5.829   3.566  10.665
 2313SOL    HW1 8836   5.824   3.661  10.649
 2313SOL    HW2 8837   5.783   3.553  10.747
 2314SOL     OW 8838   7.622   2.252  12.447
 2314SOL    HW1 8839   7.563   2.326  12.462
 2314SOL    HW2 8840   7.709   2.292  12.442
 2315SOL     OW 8841   1.355   0.768   1.952
 2315SOL    HW1 8842   1.274   0.720   1.934
 2315SOL    HW2 8843   1.412   0.704   1.994
 2316SOL     OW 8844   3.342  13.767  14.017
 2316SOL    HW1 8845   3.298  13.838  14.064
 2316SOL    HW2 8846   3.270  13.717  13.978
 2317SOL     OW 8847   1.871   5.323  14.653
 2317SOL    HW1 8848   1.941   5.276  14.699
 2317SOL    HW2 8849   1.889   5.416  14.670
 2318SOL     OW 8850   4.223  13.769  11.208
 2318SOL    HW1 8851   4.299  13.713  11.226
 2318SOL    HW2 8852   4.235  13.798  11.117
 2319SOL     OW 8853   8.926  12.606   5.107
 2319SOL    HW1 8854   8.866  12.540   5.073
 2319SOL    HW2 8855   8.961  12.567   5.187
 2320SOL     OW 8856   3.104   4.104   6.989
 2320SOL    HW1 8857   3.066   4.019   6.968
 2320SOL    HW2 8858   3.166   4.121   6.918
 2321SOL     OW 8859  11.103  14.120  10.950
 2321SOL    HW1 8860  11.119  14.035  10.907
 2321SOL    HW2 8861  11.183  14.136  11.001
 2322SOL     OW 8862   1.270  14.145   1.452
 2322SOL    HW1 8863   1.337  14.183   1.510
 2322SOL    HW2 8864   1.196  14.127   1.511
 2323SOL     OW 8865   5.596  12.338   4.954
 2323SOL    HW1 8866   5.612  12.325   4.860
 2323SOL    HW2 8867   5.561  12.426   4.961
 2324SOL     OW 8868  11.807   8.599  14.293
 2324SOL    HW1 8869  11.894   8.560  14.296
 2324SOL    HW2 8870  11.796   8.624  14.201
 2325SOL     OW 8871   3.398   8.523  14.270
 2325SOL    HW1 8872   3.353   8.496  14.189
 2325SOL    HW2 8873   3.445   8.603  14.245
 2326SOL     OW 8874   1.069  12.694   1.021
 2326SOL    HW1 8875   1.014  12.768   0.993
 2326SOL    HW2 8876   1.159  12.728   1.015
 2327SOL     OW 8877   9.507   0.626  11.285
 2327SOL    HW1 8878   9.519   0.664  11.372
 2327SOL    HW2 8879   9.588   0.577  11.269
 2328SOL     OW 8880   7.553   8.892   3.908
 2328SOL    HW1 8881   7.479   8.884   3.969
 2328SOL    HW2 8882   7.630   8.881   3.964
 2329SOL     OW 8883   6.918   3.109   0.313
 2329SOL    HW1 8884   6.907   3.053   0.236
 2329SOL    HW2 8885   6.931   3.197   0.278
 2330SOL     OW 8886   8.398   5.022   4.326
 2330SOL    HW1 8887   8.392   4.939   4.372
 2330SOL    HW2 8888   8.317   5.027   4.275
 2331SOL     OW 8889  11.766   4.534   3.503
 2331SOL    HW1 8890  11.765   4.629   3.496
 2331SOL    HW2 8891  11.727   4.504   3.421
 2332SOL     OW 8892   0.170  13.345   5.794
 2332SOL    HW1 8893   0.075  13.358   5.794
 2332SOL    HW2 8894   0.199  13.377   5.879
 2333SOL     OW 8895  11.327   2.755   8.711
 2333SOL    HW1 8896  11.321   2.797   8.797
 2333SOL    HW2 8897  11.294   2.666   8.725
 2334SOL     OW 8898  12.109   8.591  12.967
 2334SOL    HW1 8899  12.082   8.662  13.026
 2334SOL    HW2 8900  12.188   8.556  13.008
 2335SOL     OW 8901   6.465   7.899   1.184
 2335SOL    HW1 8902   6.415   7.961   1.131
 2335SOL    HW2 8903   6.553   7.901   1.147
 2336SOL     OW 8904   0.229   6.894   9.442
 2336SOL    HW1 8905   0.164   6.959   9.468
 2336SOL    HW2 8906   0.218   6.884   9.348
 2337SOL     OW 8907  14.052  10.999   0.390
 2337SOL    HW1 8908  14.048  11.005   0.486
 2337SOL    HW2 8909  14.001  11.073   0.359
 2338SOL     OW 8910   8.070   7.891  13.041
 2338SOL    HW1 8911   8.143   7.863  12.986
 2338SOL    HW2 8912   8.109   7.905  13.128
 2339SOL     OW 8913  14.157   2.407   9.403
 2339SOL    HW1 8914  14.094   2.343   9.434
 2339SOL    HW2 8915  14.134   2.421   9.311
 2340SOL     OW 8916   1.786  13.812   3.193
 2340SOL    HW1 8917   1.772  13.840   3.103
 2340SOL    HW2 8918   1.701  13.775   3.220
 2341SOL     OW 8919  12.918  13.111   1.327
 2341SOL    HW1 8920  12.997  13.063   1.303
 2341SOL    HW2 8921  12.925  13.193   1.279
 2342SOL     OW 8922   3.725   8.752   8.244
 2342SOL    HW1 8923   3.790   8.803   8.195
 2342SOL    HW2 8924   3.776   8.687   8.291
 2343SOL     OW 8925  14.591  10.659   0.895
 2343SOL    HW1 8926  14.567  10.579   0.848
 2343SOL    HW2 8927  14.565  10.730   0.837
 2344SOL     OW 8928   5.852   6.922  13.791
 2344SOL    HW1 8929   5.836   6.852  13.854
 2344SOL    HW2 8930   5.795   6.901  13.717
 2345SOL     OW 8931  10.603   1.502  14.803
 2345SOL    HW1 8932  10.683   1.555  14.805
 2345SOL    HW2 8933  10.557   1.526   0.013
 2346SOL     OW 8934   1.818  13.017   6.717
 2346SOL    HW1 8935   1.882  13.018   6.788
 2346SOL    HW2 8936   1.811  13.108   6.688
 2347SOL     OW 8937   7.928   4.447   0.302
 2347SOL    HW1 8938   7.960   4.526   0.347
 2347SOL    HW2 8939   7.911   4.476   0.213
 2348SOL     OW 8940   2.435  10.680  13.520
 2348SOL    HW1 8941   2.433  10.710  13.611
 2348SOL    HW2 8942   2.381  10.743  13.472
 2349SOL     OW 8943   2.345   9.473   7.916
 2349SOL    HW1 8944   2.389   9.389   7.907
 2349SOL    HW2 8945   2.300   9.486   7.832
 2350SOL     OW 8946  12.480   1.938   6.273
 2350SOL    HW1 8947  12.499   2.031   6.286
 2350SOL    HW2 8948  12.473   1.928   6.178
 2351SOL     OW 8949   0.018   4.689   5.209
 2351SOL    HW1 8950  14.828   4.752   5.169
 2351SOL    HW2 8951  14.833   4.637   5.268
 2352SOL     OW 8952  12.531  14.390   5.974
 2352SOL    HW1 8953  12.574  14.375   5.889
 2352SOL    HW2 8954  12.585  14.343   6.037
 2353SOL     OW 8955   0.564   9.458   0.781
 2353SOL    HW1 8956   0.655   9.430   0.792
 2353SOL    HW2 8957   0.570   9.540   0.731
 2354SOL     OW 8958   2.819   1.787   3.373
 2354SOL    HW1 8959   2.732   1.827   3.369
 2354SOL    HW2 8960   2.823   1.730   3.296
 2355SOL     OW 8961   6.014   2.570   9.444
 2355SOL    HW1 8962   5.989   2.497   9.502
 2355SOL    HW2 8963   5.934   2.621   9.435
 2356SOL     OW 8964  10.776  11.670   8.693
 2356SOL    HW1 8965  10.847  11.714   8.646
 2356SOL    HW2 8966  10.700  11.727   8.680
 2357SOL     OW 8967   2.701   1.123   0.579
 2357SOL    HW1 8968   2.790   1.142   0.607
 2357SOL    HW2 8969   2.711   1.067   0.502
 2358SOL     OW 8970   3.374   2.452   3.203
 2358SOL    HW1 8971   3.367   2.403   3.122
 2358SOL    HW2 8972   3.468   2.464   3.217
 2359SOL     OW 8973   9.730   0.039   1.052
 2359SOL    HW1 8974   9.734   0.019   1.146
 2359SOL    HW2 8975   9.663  14.849   1.018
 2360SOL     OW 8976   1.550   1.142  11.039
 2360SOL    HW1 8977   1.456   1.138  11.021
 2360SOL    HW2 8978   1.562   1.085  11.115
 2361SOL     OW 8979  12.430  14.457  13.306
 2361SOL    HW1 8980  12.480  14.528  13.266
 2361SOL    HW2 8981  12.443  14.382  13.246
 2362SOL     OW 8982   9.633   6.384  11.843
 2362SOL    HW1 8983   9.570   6.363  11.773
 2362SOL    HW2 8984   9.635   6.305  11.897
 2363SOL     OW 8985   6.384   0.299   5.412
 2363SOL    HW1 8986   6.350   0.388   5.405
 2363SOL    HW2 8987   6.434   0.299   5.494
 2364SOL     OW 8988  14.797   1.458   2.027
 2364SOL    HW1 8989  14.809   1.415   1.942
 2364SOL    HW2 8990  14.784   1.387   2.089
 2365SOL     OW 8991   6.810  12.100   0.372
 2365SOL    HW1 8992   6.884  12.138   0.419
 2365SOL    HW2 8993   6.844  12.018   0.336
 2366SOL     OW 8994   2.581  13.681   5.428
 2366SOL    HW1 8995   2.532  13.763   5.420
 2366SOL    HW2 8996   2.525  13.625   5.481
 2367SOL     OW 8997   4.946  13.561   1.913
 2367SOL    HW1 8998   4.879  13.604   1.859
 2367SOL    HW2 8999   4.932  13.596   2.001
 2368SOL     OW 9000  11.435  12.950   4.399
 2368SOL    HW1 9001  11.423  13.018   4.333
 2368SOL    HW2 9002  11.529  12.933   4.400
 2369SOL     OW 9003   4.186   6.372  13.684
 2369SOL    HW1 9004   4.267   6.404  13.646
 2369SOL    HW2 9005   4.212   6.293  13.732
 2370SOL     OW 9006   4.477   1.210   1.003
 2370SOL    HW1 9007   4.561   1.170   0.981
 2370SOL    HW2 9008   4.414   1.138   0.999
 2371SOL     OW 9009   7.774  12.435   4.380
 2371SOL    HW1 9010   7.768  12.421   4.474
 2371SOL    HW2 9011   7.695  12.484   4.358
 2372SOL     OW 9012   6.764   4.480   0.858
 2372SOL    HW1 9013   6.728   4.444   0.939
 2372SOL    HW2 9014   6.853   4.506   0.881
 2373SOL     OW 9015   7.400   8.234   6.808
 2373SOL    HW1 9016   7.407   8.223   6.902
 2373SOL    HW2 9017   7.336   8.305   6.797
 2374SOL     OW 9018  10.488  13.504   5.966
 2374SOL    HW1 9019  10.448  13.533   6.048
 2374SOL    HW2 9020  10.415  13.490   5.906
 2375SOL     OW 9021  13.425   0.085  13.510
 2375SOL    HW1 9022  13.488   0.087  13.439
 2375SOL    HW2 9023  13.369   0.161  13.494
 2376SOL     OW 9024   4.259   8.695   6.680
 2376SOL    HW1 9025   4.169   8.662   6.680
 2376SOL    HW2 9026   4.250   8.790   6.673
 2377SOL     OW 9027  11.172   8.406  13.487
 2377SOL    HW1 9028  11.087   8.424  13.447
 2377SOL    HW2 9029  11.235   8.439  13.423
 2378SOL     OW 9030   4.851  12.470   3.559
 2378SOL    HW1 9031   4.822  12.446   3.647
 2378SOL    HW2 9032   4.772  12.503   3.516
 2379SOL     OW 9033   7.986   6.682   4.011
 2379SOL    HW1 9034   8.048   6.701   3.940
 2379SOL    HW2 9035   8.029   6.717   4.089
 2380SOL     OW 9036   9.946  11.267   3.197
 2380SOL    HW1 9037  10.014  11.251   3.262
 2380SOL    HW2 9038   9.909  11.181   3.179
 2381SOL     OW 9039  12.859   6.206   5.150
 2381SOL    HW1 9040  12.769   6.198   5.183
 2381SOL    HW2 9041  12.848   6.229   5.057
 2382SOL     OW 9042   0.762   8.760   1.712
 2382SOL    HW1 9043   0.825   8.817   1.756
 2382SOL    HW2 9044   0.679   8.807   1.717
 2383SOL     OW 9045   4.377   3.474   7.410
 2383SOL    HW1 9046   4.339   3.398   7.455
 2383SOL    HW2 9047   4.303   3.532   7.394
 2384SOL     OW 9048   7.936   8.806  13.828
 2384SOL    HW1 9049   7.901   8.873  13.770
 2384SOL    HW2 9050   8.010   8.847  13.872
 2385SOL     OW 9051  13.950  14.370  13.561
 2385SOL    HW1 9052  14.027  14.341  13.512
 2385SOL    HW2 9053  13.882  14.382  13.496
 2386SOL     OW 9054   1.450  12.839   3.102
 2386SOL    HW1 9055   1.407  12.819   3.186
 2386SOL    HW2 9056   1.533  12.793   3.106
 2387SOL     OW 9057   6.588  12.818   1.489
 2387SOL    HW1 9058   6.578  12.910   1.513
 2387SOL    HW2 9059   6.519  12.772   1.537
 2388SOL     OW 9060   5.679   1.404  10.015
 2388SOL    HW1 9061   5.687   1.499  10.008
 2388SOL    HW2 9062   5.763   1.371   9.984
 2389SOL     OW 9063   0.721   5.996   8.206
 2389SOL    HW1 9064   0.807   6.034   8.226
 2389SOL    HW2 9065   0.659   6.056   8.247
 2390SOL     OW 9066  14.564  12.402   5.044
 2390SOL    HW1 9067  14.516  12.483   5.065
 2390SOL    HW2 9068  14.537  12.382   4.955
 2391SOL     OW 9069  11.646  11.176  14.335
 2391SOL    HW1 9070  11.559  11.206  14.360
 2391SOL    HW2 9071  11.665  11.105  14.396
 2392SOL     OW 9072   0.882   0.060   7.460
 2392SOL    HW1 9073   0.932   0.114   7.522
 2392SOL    HW2 9074   0.802   0.111   7.443
 2393SOL     OW 9075   7.973   0.567  14.803
 2393SOL    HW1 9076   8.014   0.482  14.792
 2393SOL    HW2 9077   8.026   0.627  14.752
 2394SOL     OW 9078  12.559  11.661   2.426
 2394SOL    HW1 9079  12.577  11.626   2.513
 2394SOL    HW2 9080  12.627  11.623   2.370
 2395SOL     OW 9081   7.438   8.792  10.002
 2395SOL    HW1 9082   7.411   8.883   9.986
 2395SOL    HW2 9083   7.503   8.775   9.934
 2396SOL     OW 9084  10.577   0.606   5.596
 2396SOL    HW1 9085  10.606   0.554   5.670
 2396SOL    HW2 9086  10.516   0.670   5.633
 2397SOL     OW 9087   5.217  13.504   4.960
 2397SOL    HW1 9088   5.220  13.540   5.048
 2397SOL    HW2 9089   5.130  13.529   4.927
 2398SOL     OW 9090  10.199   8.999   7.330
 2398SOL    HW1 9091  10.233   8.942   7.400
 2398SOL    HW2 9092  10.129   9.049   7.373
 2399SOL     OW 9093   6.760  10.241   2.479
 2399SOL    HW1 9094   6.705  10.232   2.402
 2399SOL    HW2 9095   6.699  10.252   2.552
 2400SOL     OW 9096   1.871   1.879   6.768
 2400SOL    HW1 9097   1.920   1.955   6.799
 2400SOL    HW2 9098   1.808   1.915   6.706
 2401SOL     OW 9099  12.582  13.807   1.502
 2401SOL    HW1 9100  12.513  13.844   1.446
 2401SOL    HW2 9101  12.647  13.876   1.510
 2402SOL     OW 9102   1.331   1.797  11.294
 2402SOL    HW1 9103   1.262   1.862  11.301
 2402SOL    HW2 9104   1.314   1.752  11.211
 2403SOL     OW 9105  14.752  13.567  10.968
 2403SOL    HW1 9106  14.709  13.551  11.052
 2403SOL    HW2 9107  14.768  13.662  10.967
 2404SOL     OW 9108   8.657   9.778   9.121
 2404SOL    HW1 9109   8.662   9.686   9.145
 2404SOL    HW2 9110   8.672   9.779   9.026
 2405SOL     OW 9111  12.896   9.923   5.850
 2405SOL    HW1 9112  12.845   9.966   5.919
 2405SOL    HW2 9113  12.835   9.859   5.813
 2406SOL     OW 9114   3.740  13.659   4.680
 2406SOL    HW1 9115   3.654  13.617   4.689
 2406SOL    HW2 9116   3.797  13.588   4.650
 2407SOL     OW 9117  12.466   1.640   6.126
 2407SOL    HW1 9118  12.457   1.724   6.081
 2407SOL    HW2 9119  12.392   1.588   6.095
 2408SOL     OW 9120   3.608  14.463   3.005
 2408SOL    HW1 9121   3.609  14.558   2.993
 2408SOL    HW2 9122   3.624  14.450   3.099
 2409SOL     OW 9123  12.465   2.549   7.912
 2409SOL    HW1 9124  12.428   2.599   7.986
 2409SOL    HW2 9125  12.493   2.616   7.850
 2410SOL     OW 9126   3.479  11.447  10.811
 2410SOL    HW1 9127   3.536  11.452  10.887
 2410SOL    HW2 9128   3.530  11.400  10.745
 2411SOL     OW 9129   7.889   5.993   8.680
 2411SOL    HW1 9130   7.797   6.016   8.688
 2411SOL    HW2 9131   7.916   6.026   8.595
 2412SOL     OW 9132  13.676   5.810  10.535
 2412SOL    HW1 9133  13.709   5.811  10.625
 2412SOL    HW2 9134  13.608   5.877  10.533
 2413SOL     OW 9135   6.814   5.955  13.558
 2413SOL    HW1 9136   6.882   5.974  13.622
 2413SOL    HW2 9137   6.752   5.899  13.604
 2414SOL     OW 9138  11.469   6.494  14.031
 2414SOL    HW1 9139  11.465   6.583  13.997
 2414SOL    HW2 9140  11.494   6.505  14.123
 2415SOL     OW 9141  13.775   4.475   9.264
 2415SOL    HW1 9142  13.767   4.417   9.188
 2415SOL    HW2 9143  13.845   4.436   9.317
 2416SOL     OW 9144   5.046   3.108   4.253
 2416SOL    HW1 9145   4.969   3.072   4.297
 2416SOL    HW2 9146   5.024   3.200   4.239
 2417SOL     OW 9147  11.842  12.243   6.886
 2417SOL    HW1 9148  11.791  12.197   6.820
 2417SOL    HW2 9149  11.915  12.185   6.905
 2418SOL     OW 9150   9.974  12.918  12.751
 2418SOL    HW1 9151  10.036  12.888  12.818
 2418SOL    HW2 9152   9.900  12.954  12.800
 2419SOL     OW 9153   6.298   9.341   6.020
 2419SOL    HW1 9154   6.302   9.424   6.067
 2419SOL    HW2 9155   6.224   9.351   5.959
 2420SOL     OW 9156  11.312  14.227  11.465
 2420SOL    HW1 9157  11.347  14.222  11.375
 2420SOL    HW2 9158  11.264  14.145  11.476
 2421SOL     OW 9159   9.941   5.413   1.115
 2421SOL    HW1 9160  10.025   5.382   1.084
 2421SOL    HW2 9161   9.954   5.507   1.129
 2422SOL     OW 9162  14.789  11.131   3.984
 2422SOL    HW1 9163  14.718  11.082   4.025
 2422SOL    HW2 9164  14.745  11.190   3.923
 2423SOL     OW 9165   7.198  11.460   8.317
 2423SOL    HW1 9166   7.185  11.441   8.224
 2423SOL    HW2 9167   7.125  11.417   8.361
 2424SOL     OW 9168  12.733   5.677   3.538
 2424SOL    HW1 9169  12.750   5.689   3.631
 2424SOL    HW2 9170  12.804   5.724   3.495
 2425SOL     OW 9171   3.339   7.114   4.046
 2425SOL    HW1 9172   3.380   7.077   4.124
 2425SOL    HW2 9173   3.410   7.161   4.002
 2426SOL     OW 9174   6.929   7.740   2.943
 2426SOL    HW1 9175   6.936   7.736   3.039
 2426SOL    HW2 9176   6.942   7.650   2.914
 2427SOL     OW 9177   2.204   5.705  14.066
 2427SOL    HW1 9178   2.300   5.700  14.059
 2427SOL    HW2 9179   2.189   5.775  14.129
 2428SOL     OW 9180   7.587   1.575   7.063
 2428SOL    HW1 9181   7.558   1.660   7.029
 2428SOL    HW2 9182   7.637   1.597   7.142
 2429SOL     OW 9183  10.369   2.583   4.010
 2429SOL    HW1 9184  10.437   2.641   3.975
 2429SOL    HW2 9185  10.368   2.603   4.104
 2430SOL     OW 9186   5.907   0.293   1.948
 2430SOL    HW1 9187   5.911   0.342   1.866
 2430SOL    HW2 9188   5.820   0.312   1.983
 2431SOL     OW 9189   7.051   9.374  12.150
 2431SOL    HW1 9190   7.004   9.451  12.184
 2431SOL    HW2 9191   7.129   9.368  12.206
 2432SOL     OW 9192  13.731  10.605   2.431
 2432SOL    HW1 9193  13.706  10.646   2.348
 2432SOL    HW2 9194  13.702  10.514   2.422
 2433SOL     OW 9195  14.160   6.787  13.983
 2433SOL    HW1 9196  14.181   6.777  14.076
 2433SOL    HW2 9197  14.147   6.882  13.971
 2434SOL     OW 9198   2.068   1.478  11.585
 2434SOL    HW1 9199   2.055   1.386  11.563
 2434SOL    HW2 9200   2.150   1.502  11.542
 2435SOL     OW 9201   7.529  11.346   6.951
 2435SOL    HW1 9202   7.508  11.263   6.909
 2435SOL    HW2 9203   7.624  11.356   6.939
 2436SOL     OW 9204  10.187  12.041   3.545
 2436SOL    HW1 9205  10.275  12.014   3.573
 2436SOL    HW2 9206  10.171  11.992   3.464
 2437SOL     OW 9207   1.064   0.444  11.677
 2437SOL    HW1 9208   1.053   0.352  11.652
 2437SOL    HW2 9209   0.978   0.483  11.659
 2438SOL     OW 9210   0.195  11.850   5.058
 2438SOL    HW1 9211   0.224  11.765   5.027
 2438SOL    HW2 9212   0.231  11.912   4.995
 2439SOL     OW 9213  13.513   9.225  11.695
 2439SOL    HW1 9214  13.542   9.148  11.647
 2439SOL    HW2 9215  13.458   9.273  11.633
 2440SOL     OW 9216   9.369   4.566   3.180
 2440SOL    HW1 9217   9.327   4.489   3.142
 2440SOL    HW2 9218   9.419   4.604   3.107
 2441SOL     OW 9219   5.789   4.280   5.697
 2441SOL    HW1 9220   5.769   4.236   5.614
 2441SOL    HW2 9221   5.754   4.221   5.763
 2442SOL     OW 9222   2.706   0.655   4.594
 2442SOL    HW1 9223   2.723   0.748   4.607
 2442SOL    HW2 9224   2.693   0.619   4.682
 2443SOL     OW 9225   9.925   4.642   1.273
 2443SOL    HW1 9226   9.946   4.714   1.332
 2443SOL    HW2 9227   9.831   4.628   1.285
 2444SOL     OW 9228  14.722  14.759   0.452
 2444SOL    HW1 9229  14.687  14.736   0.538
 2444SOL    HW2 9230  14.648  14.744   0.392
 2445SOL     OW 9231  10.827   7.840  14.021
 2445SOL    HW1 9232  10.795   7.803  13.939
 2445SOL    HW2 9233  10.911   7.880  13.999
 2446SOL     OW 9234   2.673   8.381   2.278
 2446SOL    HW1 9235   2.616   8.355   2.206
 2446SOL    HW2 9236   2.761   8.385   2.238
 2447SOL     OW 9237   3.619   3.977   1.325
 2447SOL    HW1 9238   3.530   3.991   1.360
 2447SOL    HW2 9239   3.607   3.979   1.230
 2448SOL     OW 9240  14.840  11.178   9.171
 2448SOL    HW1 9241  14.785  11.113   9.213
 2448SOL    HW2 9242   0.039  11.197   9.235
 2449SOL     OW 9243   0.614  13.101  11.397
 2449SOL    HW1 9244   0.537  13.129  11.447
 2449SOL    HW2 9245   0.674  13.174  11.404
 2450SOL     OW 9246   9.409  12.703   3.526
 2450SOL    HW1 9247   9.434  12.680   3.616
 2450SOL    HW2 9248   9.395  12.798   3.529
 2451SOL     OW 9249   4.834  14.427   9.249
 2451SOL    HW1 9250   4.741  14.445   9.236
 2451SOL    HW2 9251   4.836  14.343   9.294
 2452SOL     OW 9252   5.527  11.912   4.716
 2452SOL    HW1 9253   5.552  11.884   4.804
 2452SOL    HW2 9254   5.556  11.842   4.659
 2453SOL     OW 9255   2.087   2.173   8.349
 2453SOL    HW1 9256   1.993   2.156   8.349
 2453SOL    HW2 9257   2.111   2.178   8.256
 2454SOL     OW 9258  14.498   1.739  13.263
 2454SOL    HW1 9259  14.475   1.664  13.208
 2454SOL    HW2 9260  14.464   1.815  13.215
 2455SOL     OW 9261  10.570   1.393  13.598
 2455SOL    HW1 9262  10.593   1.309  13.637
 2455SOL    HW2 9263  10.485   1.378  13.556
 2456SOL     OW 9264  13.801   4.870   6.770
 2456SOL    HW1 9265  13.892   4.889   6.748
 2456SOL    HW2 9266  13.752   4.944   6.734
 2457SOL     OW 9267   7.660  10.306   2.578
 2457SOL    HW1 9268   7.566  10.321   2.582
 2457SOL    HW2 9269   7.696  10.362   2.648
 2458SOL     OW 9270  12.489  14.281  13.113
 2458SOL    HW1 9271  12.499  14.337  13.036
 2458SOL    HW2 9272  12.528  14.198  13.087
 2459SOL     OW 9273   6.541  10.558   9.499
 2459SOL    HW1 9274   6.532  10.473   9.457
 2459SOL    HW2 9275   6.488  10.553   9.578
 2460SOL     OW 9276  10.708  14.568   6.432
 2460SOL    HW1 9277  10.712  14.662   6.449
 2460SOL    HW2 9278  10.713  14.528   6.519
 2461SOL     OW 9279   8.387   4.235   6.466
 2461SOL    HW1 9280   8.415   4.179   6.394
 2461SOL    HW2 9281   8.391   4.178   6.543
 2462SOL     OW 9282   7.229   7.716   1.716
 2462SOL    HW1 9283   7.271   7.633   1.693
 2462SOL    HW2 9284   7.295   7.763   1.767
 2463SOL     OW 9285   6.919   4.940   5.978
 2463SOL    HW1 9286   6.968   4.943   5.896
 2463SOL    HW2 9287   6.860   5.015   5.974
 2464SOL     OW 9288   7.676   4.161  10.136
 2464SOL    HW1 9289   7.696   4.243  10.182
 2464SOL    HW2 9290   7.610   4.119  10.191
 2465SOL     OW 9291   5.502   8.457   0.954
 2465SOL    HW1 9292   5.476   8.431   1.042
 2465SOL    HW2 9293   5.481   8.550   0.949
 2466SOL     OW 9294  13.443   5.524   1.780
 2466SOL    HW1 9295  13.504   5.450   1.777
 2466SOL    HW2 9296  13.380   5.505   1.711
 2467SOL     OW 9297   7.795   7.924  10.072
 2467SOL    HW1 9298   7.885   7.925  10.041
 2467SOL    HW2 9299   7.766   8.016  10.066
 2468SOL     OW 9300  10.932   7.558   8.536
 2468SOL    HW1 9301  10.894   7.606   8.463
 2468SOL    HW2 9302  10.876   7.580   8.611
 2469SOL     OW 9303   2.967   2.734  11.933
 2469SOL    HW1 9304   2.984   2.691  11.849
 2469SOL    HW2 9305   3.004   2.822  11.924
 2470SOL     OW 9306   4.258  10.246   0.384
 2470SOL    HW1 9307   4.257  10.328   0.335
 2470SOL    HW2 9308   4.349  10.217   0.380
 2471SOL     OW 9309   8.620  14.370   5.790
 2471SOL    HW1 9310   8.530  14.342   5.775
 2471SOL    HW2 9311   8.619  14.413   5.875
 2472SOL     OW 9312  13.444   1.443   0.908
 2472SOL    HW1 9313  13.483   1.418   0.992
 2472SOL    HW2 9314  13.396   1.524   0.927
 2473SOL     OW 9315   2.380  10.945  10.031
 2473SOL    HW1 9316   2.399  10.877   9.966
 2473SOL    HW2 9317   2.466  10.970  10.065
 2474SOL     OW 9318  14.705   1.395  10.858
 2474SOL    HW1 9319  14.747   1.343  10.789
 2474SOL    HW2 9320  14.761   1.385  10.934
 2475SOL     OW 9321  11.635  10.349  14.299
 2475SOL    HW1 9322  11.720  10.347  14.344
 2475SOL    HW2 9323  11.639  10.426  14.243
 2476SOL     OW 9324   8.911  13.029   2.656
 2476SOL    HW1 9325   8.833  12.981   2.631
 2476SOL    HW2 9326   8.900  13.047   2.749
 2477SOL     OW 9327   8.753   3.747  13.643
 2477SOL    HW1 9328   8.833   3.706  13.609
 2477SOL    HW2 9329   8.744   3.712  13.731
 2478SOL     OW 9330   1.521   8.502  11.143
 2478SOL    HW1 9331   1.572   8.438  11.093
 2478SOL    HW2 9332   1.586   8.563  11.177
 2479SOL     OW 9333   0.978  10.152   0.379
 2479SOL    HW1 9334   0.979  10.146   0.284
 2479SOL    HW2 9335   0.979  10.246   0.397
 2480SOL     OW 9336  10.059   1.643  14.514
 2480SOL    HW1 9337  10.006   1.642  14.594
 2480SOL    HW2 9338  10.074   1.736  14.496
 2481SOL     OW 9339   8.042   5.045   3.776
 2481SOL    HW1 9340   8.018   4.982   3.845
 2481SOL    HW2 9341   8.025   4.998   3.694
 2482SOL     OW 9342   0.887   2.339   1.132
 2482SOL    HW1 9343   0.834   2.408   1.093
 2482SOL    HW2 9344   0.836   2.259   1.121
 2483SOL     OW 9345   9.712   6.081   6.055
 2483SOL    HW1 9346   9.743   6.152   5.998
 2483SOL    HW2 9347   9.629   6.053   6.016
 2484SOL     OW 9348  13.872   6.471   3.314
 2484SOL    HW1 9349  13.957   6.430   3.328
 2484SOL    HW2 9350  13.891   6.563   3.298
 2485SOL     OW 9351  13.319  14.429   3.966
 2485SOL    HW1 9352  13.397  14.375   3.978
 2485SOL    HW2 9353  13.302  14.426   3.872
 2486SOL     OW 9354   5.924  14.784   3.635
 2486SOL    HW1 9355   6.017  14.779   3.658
 2486SOL    HW2 9356   5.912  14.714   3.570
 2487SOL     OW 9357   7.856  13.997  12.520
 2487SOL    HW1 9358   7.896  13.915  12.492
 2487SOL    HW2 9359   7.836  13.985  12.612
 2488SOL     OW 9360  14.402   5.630   8.024
 2488SOL    HW1 9361  14.392   5.666   7.935
 2488SOL    HW2 9362  14.493   5.647   8.046
 2489SOL     OW 9363  14.572   3.600   5.092
 2489SOL    HW1 9364  14.630   3.527   5.112
 2489SOL    HW2 9365  14.507   3.598   5.162
 2490SOL     OW 9366   6.201  10.038  10.607
 2490SOL    HW1 9367   6.182  10.080  10.523
 2490SOL    HW2 9368   6.165   9.950  10.597
 2491SOL     OW 9369  13.092  12.334   7.327
 2491SOL    HW1 9370  13.042  12.291   7.258
 2491SOL    HW2 9371  13.183  12.308   7.311
 2492SOL     OW 9372   1.827  14.808  13.971
 2492SOL    HW1 9373   1.852  14.840  14.058
 2492SOL    HW2 9374   1.773   0.009  13.935
 2493SOL     OW 9375   8.439  12.392  14.649
 2493SOL    HW1 9376   8.382  12.421  14.720
 2493SOL    HW2 9377   8.520  12.442  14.662
 2494SOL     OW 9378   0.698   8.882   7.604
 2494SOL    HW1 9379   0.719   8.826   7.529
 2494SOL    HW2 9380   0.688   8.970   7.567
 2495SOL     OW 9381  12.785  13.932   8.460
 2495SOL    HW1 9382  12.706  13.883   8.482
 2495SOL    HW2 9383  12.844  13.916   8.534
 2496SOL     OW 9384  13.560  10.965  12.378
 2496SOL    HW1 9385  13.580  11.059  12.383
 2496SOL    HW2 9386  13.500  10.958  12.304
 2497SOL     OW 9387   2.737  12.914   1.211
 2497SOL    HW1 9388   2.749  13.006   1.235
 2497SOL    HW2 9389   2.672  12.881   1.273
 2498SOL     OW 9390   6.943   4.208   9.188
 2498SOL    HW1 9391   6.990   4.274   9.137
 2498SOL    HW2 9392   6.947   4.239   9.278
 2499SOL     OW 9393  11.694  12.495   0.338
 2499SOL    HW1 9394  11.704  12.532   0.426
 2499SOL    HW2 9395  11.632  12.553   0.295
 2500SOL     OW 9396   9.564   5.575   3.274
 2500SOL    HW1 9397   9.505   5.544   3.205
 2500SOL    HW2 9398   9.560   5.670   3.268
 2501SOL     OW 9399   5.900   9.081  10.251
 2501SOL    HW1 9400   5.873   9.127  10.331
 2501SOL    HW2 9401   5.973   9.025  10.278
 2502SOL     OW 9402  10.773   7.532  11.634
 2502SOL    HW1 9403  10.717   7.496  11.703
 2502SOL    HW2 9404  10.851   7.564  11.681
 2503SOL     OW 9405  10.985   8.268   3.876
 2503SOL    HW1 9406  10.901   8.311   3.861
 2503SOL    HW2 9407  10.981   8.239   3.968
 2504SOL     OW 9408  12.376   9.361  11.279
 2504SOL    HW1 9409  12.471   9.350  11.291
 2504SOL    HW2 9410  12.344   9.380  11.367
 2505SOL     OW 9411  10.142   6.884   5.746
 2505SOL    HW1 9412  10.126   6.848   5.658
 2505SOL    HW2 9413  10.167   6.975   5.730
 2506SOL     OW 9414   1.610  14.382   6.090
 2506SOL    HW1 9415   1.561  14.464   6.097
 2506SOL    HW2 9416   1.596  14.353   6.000
 2507SOL     OW 9417  14.763  14.637  12.686
 2507SOL    HW1 9418  14.837  14.686  12.722
 2507SOL    HW2 9419  14.801  14.554  12.658
 2508SOL     OW 9420   8.780   3.642  14.477
 2508SOL    HW1 9421   8.871   3.662  14.496
 2508SOL    HW2 9422   8.732   3.672  14.554
 2509SOL     OW 9423   9.494  14.641  11.795
 2509SOL    HW1 9424   9.445  14.657  11.876
 2509SOL    HW2 9425   9.552  14.717  11.787
 2510SOL     OW 9426   0.634   5.018   8.743
 2510SOL    HW1 9427   0.723   5.037   8.772
 2510SOL    HW2 9428   0.641   5.014   8.647
 2511SOL     OW 9429   4.424  13.003   0.950
 2511SOL    HW1 9430   4.401  12.998   0.857
 2511SOL    HW2 9431   4.453  13.094   0.962
 2512SOL     OW 9432   3.651   0.197   9.625
 2512SOL    HW1 9433   3.624   0.137   9.555
 2512SOL    HW2 9434   3.684   0.140   9.694
 2513SOL     OW 9435  10.814   6.320   8.894
 2513SOL    HW1 9436  10.834   6.275   8.976
 2513SOL    HW2 9437  10.739   6.271   8.858
 2514SOL     OW 9438  11.219  10.879  10.586
 2514SOL    HW1 9439  11.198  10.790  10.560
 2514SOL    HW2 9440  11.282  10.869  10.658
 2515SOL     OW 9441   8.578   5.178   9.964
 2515SOL    HW1 9442   8.672   5.165   9.975
 2515SOL    HW2 9443   8.542   5.175  10.053
 2516SOL     OW 9444   7.941  10.280   0.420
 2516SOL    HW1 9445   8.002  10.291   0.348
 2516SOL    HW2 9446   7.874  10.220   0.386
 2517SOL     OW 9447  13.720   2.762   5.492
 2517SOL    HW1 9448  13.681   2.685   5.451
 2517SOL    HW2 9449  13.664   2.835   5.465
 2518SOL     OW 9450   3.522   0.417   0.242
 2518SOL    HW1 9451   3.435   0.449   0.217
 2518SOL    HW2 9452   3.506   0.335   0.288
 2519SOL     OW 9453   7.386   0.503   5.111
 2519SOL    HW1 9454   7.479   0.491   5.129
 2519SOL    HW2 9455   7.382   0.587   5.065
 2520SOL     OW 9456  14.627   1.019   3.899
 2520SOL    HW1 9457  14.705   0.964   3.890
 2520SOL    HW2 9458  14.662   1.108   3.907
 2521SOL     OW 9459  14.131  11.761   9.002
 2521SOL    HW1 9460  14.103  11.683   9.049
 2521SOL    HW2 9461  14.101  11.834   9.057
 2522SOL     OW 9462  14.029  10.925   4.683
 2522SOL    HW1 9463  13.946  10.891   4.719
 2522SOL    HW2 9464  14.034  11.014   4.716
 2523SOL     OW 9465   8.595   0.138   2.523
 2523SOL    HW1 9466   8.532   0.096   2.582
 2523SOL    HW2 9467   8.680   0.106   2.553
 2524SOL     OW 9468   6.863   1.199   8.908
 2524SOL    HW1 9469   6.949   1.157   8.907
 2524SOL    HW2 9470   6.863   1.253   8.987
 2525SOL     OW 9471   0.189   6.099  12.068
 2525SOL    HW1 9472   0.108   6.069  12.109
 2525SOL    HW2 9473   0.252   6.030  12.087
 2526SOL     OW 9474  10.115  10.862   0.442
 2526SOL    HW1 9475  10.161  10.941   0.413
 2526SOL    HW2 9476  10.184  10.798   0.455
 2527SOL     OW 9477   4.575   4.952  12.192
 2527SOL    HW1 9478   4.637   4.978  12.125
 2527SOL    HW2 9479   4.554   4.861  12.172
 2528SOL     OW 9480   8.944  12.129   1.791
 2528SOL    HW1 9481   9.019  12.105   1.738
 2528SOL    HW2 9482   8.872  12.139   1.728
 2529SOL     OW 9483   0.809   5.914   4.900
 2529SOL    HW1 9484   0.719   5.899   4.872
 2529SOL    HW2 9485   0.816   6.009   4.908
 2530SOL     OW 9486   6.915   7.397   7.319
 2530SOL    HW1 9487   6.858   7.393   7.242
 2530SOL    HW2 9488   6.968   7.475   7.305
 2531SOL     OW 9489  14.603  12.800   4.438
 2531SOL    HW1 9490  14.696  12.800   4.462
 2531SOL    HW2 9491  14.570  12.716   4.471
 2532SOL     OW 9492   2.249   9.705   1.297
 2532SOL    HW1 9493   2.257   9.770   1.366
 2532SOL    HW2 9494   2.229   9.755   1.218
 2533SOL     OW 9495  14.328   9.715   9.782
 2533SOL    HW1 9496  14.388   9.732   9.709
 2533SOL    HW2 9497  14.376   9.657   9.840
 2534SOL     OW 9498   0.012  10.756   6.767
 2534SOL    HW1 9499   0.022  10.838   6.815
 2534SOL    HW2 9500  14.810  10.711   6.811
 2535SOL     OW 9501   7.389  13.361   6.984
 2535SOL    HW1 9502   7.318  13.379   6.923
 2535SOL    HW2 9503   7.415  13.270   6.966
 2536SOL     OW 9504   0.645   5.383   6.932
 2536SOL    HW1 9505   0.685   5.420   7.011
 2536SOL    HW2 9506   0.585   5.451   6.901
 2537SOL     OW 9507   8.528  11.227   1.500
 2537SOL    HW1 9508   8.533  11.192   1.589
 2537SOL    HW2 9509   8.615  11.211   1.463
 2538SOL     OW 9510   3.992   7.928   8.478
 2538SOL    HW1 9511   3.957   7.990   8.542
 2538SOL    HW2 9512   4.087   7.941   8.483
 2539SOL     OW 9513  12.000   6.909   3.295
 2539SOL    HW1 9514  11.996   6.897   3.390
 2539SOL    HW2 9515  12.094   6.907   3.275
 2540SOL     OW 9516   2.782   7.171  14.088
 2540SOL    HW1 9517   2.850   7.236  14.072
 2540SOL    HW2 9518   2.711   7.196  14.029
 2541SOL     OW 9519  10.105   2.274   0.576
 2541SOL    HW1 9520  10.138   2.218   0.646
 2541SOL    HW2 9521  10.071   2.351   0.621
 2542SOL     OW 9522   6.503  14.384  13.065
 2542SOL    HW1 9523   6.430  14.439  13.091
 2542SOL    HW2 9524   6.565  14.445  13.024
 2543SOL     OW 9525   4.241  10.268  12.228
 2543SOL    HW1 9526   4.307  10.207  12.262
 2543SOL    HW2 9527   4.182  10.283  12.302
 2544SOL     OW 9528  10.282   6.486   5.614
 2544SOL    HW1 9529  10.305   6.565   5.663
 2544SOL    HW2 9530  10.336   6.490   5.536
 2545SOL     OW 9531   9.874  14.410   4.507
 2545SOL    HW1 9532   9.920  14.455   4.578
 2545SOL    HW2 9533   9.785  14.400   4.538
 2546SOL     OW 9534   9.339   0.715   5.744
 2546SOL    HW1 9535   9.365   0.674   5.661
 2546SOL    HW2 9536   9.302   0.643   5.796
 2547SOL     OW 9537   3.555  13.994  13.634
 2547SOL    HW1 9538   3.574  13.975  13.542
 2547SOL    HW2 9539   3.613  13.937  13.683
 2548SOL     OW 9540  13.057   2.495  11.635
 2548SOL    HW1 9541  13.013   2.569  11.677
 2548SOL    HW2 9542  13.146   2.496  11.672
 2549SOL     OW 9543  12.791  11.750  14.085
 2549SOL    HW1 9544  12.869  11.735  14.138
 2549SOL    HW2 9545  12.780  11.845  14.084
 2550SOL     OW 9546   2.957   1.529   1.711
 2550SOL    HW1 9547   2.895   1.515   1.639
 2550SOL    HW2 9548   2.914   1.591   1.769
 2551SOL     OW 9549  10.875   3.885   4.885
 2551SOL    HW1 9550  10.905   3.831   4.812
 2551SOL    HW2 9551  10.788   3.850   4.906
 2552SOL     OW 9552  14.071  13.298  12.195
 2552SOL    HW1 9553  13.988  13.254  12.179
 2552SOL    HW2 9554  14.081  13.298  12.291
 2553SOL     OW 9555   6.019   8.734  11.619
 2553SOL    HW1 9556   6.055   8.807  11.569
 2553SOL    HW2 9557   6.096   8.686  11.651
 2554SOL     OW 9558  11.911   5.092  14.501
 2554SOL    HW1 9559  11.981   5.109  14.564
 2554SOL    HW2 9560  11.831   5.092  14.553
 2555SOL     OW 9561   2.964  12.803   7.353
 2555SOL    HW1 9562   3.034  12.742   7.374
 2555SOL    HW2 9563   2.970  12.871   7.420
 2556SOL     OW 9564   7.414   8.194   0.382
 2556SOL    HW1 9565   7.324   8.163   0.397
 2556SOL    HW2 9566   7.468   8.115   0.385
 2557SOL     OW 9567   1.297   2.443   7.285
 2557SOL    HW1 9568   1.266   2.442   7.194
 2557SOL    HW2 9569   1.385   2.479   7.280
 2558SOL     OW 9570   3.073   9.873   1.941
 2558SOL    HW1 9571   2.986   9.856   1.906
 2558SOL    HW2 9572   3.067   9.959   1.983
 2559SOL     OW 9573  13.760  11.741  10.780
 2559SOL    HW1 9574  13.754  11.793  10.700
 2559SOL    HW2 9575  13.802  11.799  10.843
 2560SOL     OW 9576   7.334   0.290   5.829
 2560SOL    HW1 9577   7.261   0.243   5.790
 2560SOL    HW2 9578   7.333   0.264   5.921
 2561SOL     OW 9579  11.766   5.155   7.436
 2561SOL    HW1 9580  11.810   5.170   7.352
 2561SOL    HW2 9581  11.683   5.201   7.428
 2562SOL     OW 9582  12.583   7.155   1.043
 2562SOL    HW1 9583  12.613   7.065   1.030
 2562SOL    HW2 9584  12.511   7.148   1.106
 2563SOL     OW 9585   4.697   6.632  11.746
 2563SOL    HW1 9586   4.789   6.620  11.720
 2563SOL    HW2 9587   4.670   6.713  11.702
 2564SOL     OW 9588  13.113  11.631   5.908
 2564SOL    HW1 9589  13.178  11.701   5.914
 2564SOL    HW2 9590  13.110  11.594   5.996
 2565SOL     OW 9591  10.035  13.135   3.394
 2565SOL    HW1 9592   9.999  13.192   3.462
 2565SOL    HW2 9593  10.114  13.098   3.434
 2566SOL     OW 9594   8.266  12.585   9.753
 2566SOL    HW1 9595   8.339  12.524   9.742
 2566SOL    HW2 9596   8.209  12.569   9.678
 2567SOL     OW 9597   0.596   0.526  12.843
 2567SOL    HW1 9598   0.648   0.592  12.890
 2567SOL    HW2 9599   0.534   0.576  12.791
 2568SOL     OW 9600   6.540   3.820   0.316
 2568SOL    HW1 9601   6.483   3.755   0.274
 2568SOL    HW2 9602   6.513   3.820   0.408
 2569SOL     OW 9603  13.028   5.034   7.492
 2569SOL    HW1 9604  13.032   4.983   7.412
 2569SOL    HW2 9605  13.038   5.125   7.463
 2570SOL     OW 9606   3.976   2.037   3.723
 2570SOL    HW1 9607   3.981   1.945   3.749
 2570SOL    HW2 9608   3.887   2.049   3.692
 2571SOL     OW 9609   4.005  10.962  11.486
 2571SOL    HW1 9610   3.971  10.913  11.561
 2571SOL    HW2 9611   4.042  11.042  11.525
 2572SOL     OW 9612   1.007   9.707  13.290
 2572SOL    HW1 9613   0.980   9.798  13.303
 2572SOL    HW2 9614   1.053   9.708  13.206
 2573SOL     OW 9615   9.087   4.411   0.413
 2573SOL    HW1 9616   9.134   4.365   0.343
 2573SOL    HW2 9617   9.135   4.493   0.424
 2574SOL     OW 9618   3.202  12.644   9.715
 2574SOL    HW1 9619   3.229  12.552   9.716
 2574SOL    HW2 9620   3.106  12.641   9.712
 2575SOL     OW 9621   3.830   0.070  13.533
 2575SOL    HW1 9622   3.897   0.137  13.523
 2575SOL    HW2 9623   3.781   0.096  13.612
 2576SOL     OW 9624   8.588   4.343   1.145
 2576SOL    HW1 9625   8.506   4.318   1.102
 2576SOL    HW2 9626   8.566   4.424   1.192
 2577SOL     OW 9627   7.163   0.584   0.538
 2577SOL    HW1 9628   7.103   0.511   0.526
 2577SOL    HW2 9629   7.118   0.659   0.500
 2578SOL     OW 9630  10.010   3.360   5.691
 2578SOL    HW1 9631  10.051   3.301   5.755
 2578SOL    HW2 9632  10.045   3.446   5.712
 2579SOL     OW 9633   3.234  10.011   3.720
 2579SOL    HW1 9634   3.184   9.954   3.778
 2579SOL    HW2 9635   3.315   9.963   3.702
 2580SOL     OW 9636  12.302   9.118   5.442
 2580SOL    HW1 9637  12.327   9.041   5.391
 2580SOL    HW2 9638  12.383   9.169   5.451
 2581SOL     OW 9639   1.632   1.205   1.615
 2581SOL    HW1 9640   1.622   1.265   1.689
 2581SOL    HW2 9641   1.551   1.154   1.615
 2582SOL     OW 9642  10.000   3.633   3.282
 2582SOL    HW1 9643   9.959   3.677   3.357
 2582SOL    HW2 9644  10.094   3.646   3.296
 2583SOL     OW 9645  13.290  14.310   5.743
 2583SOL    HW1 9646  13.210  14.261   5.765
 2583SOL    HW2 9647  13.338  14.315   5.826
 2584SOL     OW 9648   3.580   9.884   9.017
 2584SOL    HW1 9649   3.544   9.925   9.096
 2584SOL    HW2 9650   3.577   9.952   8.951
 2585SOL     OW 9651  12.306   7.607  13.710
 2585SOL    HW1 9652  12.224   7.575  13.671
 2585SOL    HW2 9653  12.344   7.662  13.642
 2586SOL     OW 9654   8.878  14.436   8.238
 2586SOL    HW1 9655   8.878  14.402   8.149
 2586SOL    HW2 9656   8.946  14.503   8.238
 2587SOL     OW 9657  12.794   9.451   0.610
 2587SOL    HW1 9658  12.830   9.540   0.614
 2587SOL    HW2 9659  12.706   9.460   0.646
 2588SOL     OW 9660   0.842   6.020   0.224
 2588SOL    HW1 9661   0.782   6.066   0.165
 2588SOL    HW2 9662   0.920   6.003   0.171
 2589SOL     OW 9663  13.708   0.374   0.265
 2589SOL    HW1 9664  13.722   0.306   0.331
 2589SOL    HW2 9665  13.736   0.455   0.308
 2590SOL     OW 9666   1.331   1.385   7.614
 2590SOL    HW1 9667   1.425   1.366   7.615
 2590SOL    HW2 9668   1.290   1.303   7.639
 2591SOL     OW 9669   4.990   3.828   9.465
 2591SOL    HW1 9670   5.014   3.738   9.486
 2591SOL    HW2 9671   4.934   3.821   9.388
 2592SOL     OW 9672   6.470   4.028  14.016
 2592SOL    HW1 9673   6.513   4.111  14.034
 2592SOL    HW2 9674   6.519   3.964  14.067
 2593SOL     OW 9675   2.962   2.778   8.061
 2593SOL    HW1 9676   3.014   2.716   8.112
 2593SOL    HW2 9677   2.873   2.744   8.065
 2594SOL     OW 9678  11.965  12.903   3.618
 2594SOL    HW1 9679  11.987  12.813   3.594
 2594SOL    HW2 9680  12.037  12.955   3.584
 2595SOL     OW 9681   2.703   6.267   1.343
 2595SOL    HW1 9682   2.717   6.175   1.321
 2595SOL    HW2 9683   2.619   6.288   1.302
 2596SOL     OW 9684  14.016   5.313   7.774
 2596SOL    HW1 9685  14.025   5.324   7.680
 2596SOL    HW2 9686  14.095   5.352   7.811
 2597SOL     OW 9687   7.129  12.606   1.382
 2597SOL    HW1 9688   7.035  12.595   1.396
 2597SOL    HW2 9689   7.168  12.525   1.415
 2598SOL     OW 9690   4.562   9.768   2.444
 2598SOL    HW1 9691   4.501   9.838   2.467
 2598SOL    HW2 9692   4.648   9.808   2.447
 2599SOL     OW 9693   3.225   3.213  14.092
 2599SOL    HW1 9694   3.293   3.146  14.080
 2599SOL    HW2 9695   3.227   3.233  14.185
 2600SOL     OW 9696   1.643   0.726   2.330
 2600SOL    HW1 9697   1.675   0.636   2.341
 2600SOL    HW2 9698   1.716   0.781   2.358
 2601SOL     OW 9699   3.349   4.817  14.240
 2601SOL    HW1 9700   3.407   4.856  14.305
 2601SOL    HW2 9701   3.407   4.788  14.170
 2602SOL     OW 9702   8.192   7.262  10.569
 2602SOL    HW1 9703   8.191   7.292  10.478
 2602SOL    HW2 9704   8.121   7.198  10.575
 2603SOL     OW 9705   0.090   8.513   7.632
 2603SOL    HW1 9706   0.086   8.545   7.542
 2603SOL    HW2 9707  14.870   8.488   7.653
 2604SOL     OW 9708   6.061   2.350   9.995
 2604SOL    HW1 9709   6.058   2.374   9.902
 2604SOL    HW2 9710   6.151   2.368  10.022
 2605SOL     OW 9711  14.537   7.177   7.196
 2605SOL    HW1 9712  14.615   7.167   7.251
 2605SOL    HW2 9713  14.492   7.253   7.231
 2606SOL     OW 9714   3.597   4.884   6.099
 2606SOL    HW1 9715   3.595   4.810   6.038
 2606SOL    HW2 9716   3.508   4.919   6.098
 2607SOL     OW 9717   6.687   1.106  11.605
 2607SOL    HW1 9718   6.740   1.090  11.683
 2607SOL    HW2 9719   6.597   1.094  11.633
 2608SOL     OW 9720  14.506  10.746   6.403
 2608SOL    HW1 9721  14.418  10.782   6.390
 2608SOL    HW2 9722  14.531  10.776   6.490
 2609SOL     OW 9723   7.895   2.077  13.549
 2609SOL    HW1 9724   7.821   2.129  13.578
 2609SOL    HW2 9725   7.884   1.992  13.593
 2610SOL     OW 9726   5.953   3.239   9.252
 2610SOL    HW1 9727   6.030   3.285   9.219
 2610SOL    HW2 9728   5.885   3.306   9.256
 2611SOL     OW 9729  12.037   0.841  13.563
 2611SOL    HW1 9730  12.071   0.928  13.541
 2611SOL    HW2 9731  12.081   0.783  13.500
 2612SOL     OW 9732   8.764  14.159   7.300
 2612SOL    HW1 9733   8.710  14.236   7.281
 2612SOL    HW2 9734   8.824  14.153   7.226
 2613SOL     OW 9735   8.137   6.634   7.606
 2613SOL    HW1 9736   8.174   6.684   7.533
 2613SOL    HW2 9737   8.080   6.696   7.651
 2614SOL     OW 9738   2.354   0.095   5.800
 2614SOL    HW1 9739   2.284   0.114   5.863
 2614SOL    HW2 9740   2.332   0.009   5.764
 2615SOL     OW 9741   5.977   7.836  13.750
 2615SOL    HW1 9742   5.934   7.760  13.710
 2615SOL    HW2 9743   5.959   7.908  13.689
 2616SOL     OW 9744  11.935   6.489  10.047
 2616SOL    HW1 9745  11.860   6.491  10.107
 2616SOL    HW2 9746  12.005   6.447  10.097
 2617SOL     OW 9747  13.155  14.095   0.896
 2617SOL    HW1 9748  13.110  14.115   0.978
 2617SOL    HW2 9749  13.116  14.155   0.832
 2618SOL     OW 9750   1.480   6.761   5.421
 2618SOL    HW1 9751   1.484   6.846   5.466
 2618SOL    HW2 9752   1.445   6.782   5.335
 2619SOL     OW 9753   1.537   8.509  13.876
 2619SOL    HW1 9754   1.453   8.537  13.912
 2619SOL    HW2 9755   1.531   8.530  13.783
 2620SOL     OW 9756   7.005   5.899   8.916
 2620SOL    HW1 9757   7.095   5.902   8.947
 2620SOL    HW2 9758   6.997   5.813   8.874
 2621SOL     OW 9759   6.286   1.259   1.484
 2621SOL    HW1 9760   6.240   1.208   1.551
 2621SOL    HW2 9761   6.215   1.298   1.432
 2622SOL     OW 9762  13.380  11.515  12.670
 2622SOL    HW1 9763  13.383  11.430  12.714
 2622SOL    HW2 9764  13.289  11.544  12.678
 2623SOL     OW 9765  10.566  12.009   8.720
 2623SOL    HW1 9766  10.570  12.097   8.683
 2623SOL    HW2 9767  10.512  12.018   8.799
 2624SOL     OW 9768   1.422   6.231   5.230
 2624SOL    HW1 9769   1.354   6.290   5.262
 2624SOL    HW2 9770   1.491   6.236   5.296
 2625SOL     OW 9771   6.175   0.423   8.766
 2625SOL    HW1 9772   6.132   0.358   8.821
 2625SOL    HW2 9773   6.123   0.503   8.778
 2626SOL     OW 9774  11.145   0.969   0.802
 2626SOL    HW1 9775  11.116   0.878   0.808
 2626SOL    HW2 9776  11.099   1.005   0.726
 2627SOL     OW 9777   0.791  12.498  14.513
 2627SOL    HW1 9778   0.831  12.570  14.561
 2627SOL    HW2 9779   0.774  12.431  14.579
 2628SOL     OW 9780  10.022  14.370   5.674
 2628SOL    HW1 9781  10.066  14.448   5.707
 2628SOL    HW2 9782   9.932  14.398   5.657
 2629SOL     OW 9783   9.874  13.246   1.160
 2629SOL    HW1 9784   9.938  13.217   1.225
 2629SOL    HW2 9785   9.836  13.165   1.127
 2630SOL     OW 9786  10.574   8.549  11.908
 2630SOL    HW1 9787  10.665   8.562  11.879
 2630SOL    HW2 9788  10.540   8.481  11.850
 2631SOL     OW 9789  12.387   9.261   0.122
 2631SOL    HW1 9790  12.313   9.270   0.061
 2631SOL    HW2 9791  12.394   9.167   0.137
 2632SOL     OW 9792   6.074   4.364  12.576
 2632SOL    HW1 9793   6.045   4.342  12.487
 2632SOL    HW2 9794   6.075   4.459  12.578
 2633SOL     OW 9795  10.289   8.696   1.641
 2633SOL    HW1 9796  10.232   8.772   1.634
 2633SOL    HW2 9797  10.303   8.686   1.736
 2634SOL     OW 9798  10.940   3.443   9.206
 2634SOL    HW1 9799  10.982   3.513   9.154
 2634SOL    HW2 9800  10.916   3.486   9.288
 2635SOL     OW 9801  11.650  11.106  13.532
 2635SOL    HW1 9802  11.593  11.046  13.483
 2635SOL    HW2 9803  11.662  11.063  13.617
 2636SOL     OW 9804   1.022   5.889   1.493
 2636SOL    HW1 9805   1.028   5.913   1.400
 2636SOL    HW2 9806   0.961   5.815   1.494
 2637SOL     OW 9807   1.557   6.990  12.180
 2637SOL    HW1 9808   1.516   7.073  12.158
 2637SOL    HW2 9809   1.506   6.924  12.134
 2638SOL     OW 9810   9.401  10.241  13.546
 2638SOL    HW1 9811   9.337  10.311  13.535
 2638SOL    HW2 9812   9.363  10.182  13.611
 2639SOL     OW 9813  10.179   2.146  13.738
 2639SOL    HW1 9814  10.247   2.172  13.676
 2639SOL    HW2 9815  10.211   2.065  13.777
 2640SOL     OW 9816   7.815  10.573   0.853
 2640SOL    HW1 9817   7.872  10.550   0.779
 2640SOL    HW2 9818   7.775  10.656   0.827
 2641SOL     OW 9819  14.816   9.418   6.108
 2641SOL    HW1 9820  14.839   9.392   6.019
 2641SOL    HW2 9821   0.003   9.493   6.126
 2642SOL     OW 9822   2.075   5.943  10.903
 2642SOL    HW1 9823   2.088   6.038  10.899
 2642SOL    HW2 9824   2.088   5.921  10.995
 2643SOL     OW 9825   0.909  11.383   3.858
 2643SOL    HW1 9826   0.966  11.432   3.917
 2643SOL    HW2 9827   0.878  11.309   3.911
 2644SOL     OW 9828   4.547  10.315  11.554
 2644SOL    HW1 9829   4.505  10.323  11.640
 2644SOL    HW2 9830   4.621  10.376  11.558
 2645SOL     OW 9831   5.369   7.606   4.023
 2645SOL    HW1 9832   5.294   7.640   4.072
 2645SOL    HW2 9833   5.414   7.548   4.085
 2646SOL     OW 9834   6.749   0.346  10.099
 2646SOL    HW1 9835   6.838   0.347  10.063
 2646SOL    HW2 9836   6.759   0.304  10.185
 2647SOL     OW 9837   7.203  14.506  10.364
 2647SOL    HW1 9838   7.272  14.549  10.413
 2647SOL    HW2 9839   7.208  14.414  10.390
 2648SOL     OW 9840   1.060  10.794   4.953
 2648SOL    HW1 9841   1.066  10.756   5.041
 2648SOL    HW2 9842   1.108  10.734   4.897
 2649SOL     OW 9843   9.649   1.844   8.891
 2649SOL    HW1 9844   9.558   1.814   8.883
 2649SOL    HW2 9845   9.650   1.894   8.973
 2650SOL     OW 9846   4.407   8.389   3.769
 2650SOL    HW1 9847   4.403   8.460   3.706
 2650SOL    HW2 9848   4.500   8.363   3.771
 2651SOL     OW 9849   1.091  14.001  12.177
 2651SOL    HW1 9850   1.056  13.915  12.152
 2651SOL    HW2 9851   1.027  14.063  12.144
 2652SOL     OW 9852   2.523   0.561   0.074
 2652SOL    HW1 9853   2.593   0.502   0.101
 2652SOL    HW2 9854   2.469   0.571   0.153
 2653SOL     OW 9855   8.253   9.023   9.741
 2653SOL    HW1 9856   8.279   9.030   9.650
 2653SOL    HW2 9857   8.265   9.111   9.777
 2654SOL     OW 9858   3.313   4.012   6.404
 2654SOL    HW1 9859   3.373   4.004   6.478
 2654SOL    HW2 9860   3.326   4.101   6.371
 2655SOL     OW 9861   5.951  10.126  14.832
 2655SOL    HW1 9862   5.901  10.157   0.038
 2655SOL    HW2 9863   6.041  10.118  14.863
 2656SOL     OW 9864  14.702   0.872   2.094
 2656SOL    HW1 9865  14.626   0.866   2.152
 2656SOL    HW2 9866  14.768   0.918   2.145
 2657SOL     OW 9867  12.484   2.680   4.508
 2657SOL    HW1 9868  12.458   2.588   4.500
 2657SOL    HW2 9869  12.580   2.678   4.500
 2658SOL     OW 9870  11.116   2.248  10.133
 2658SOL    HW1 9871  11.047   2.201  10.178
 2658SOL    HW2 9872  11.195   2.195  10.146
 2659SOL     OW 9873  10.157   6.497   7.129
 2659SOL    HW1 9874  10.169   6.589   7.102
 2659SOL    HW2 9875  10.075   6.471   7.086
 2660SOL     OW 9876   3.541   1.215  11.198
 2660SOL    HW1 9877   3.476   1.269  11.243
 2660SOL    HW2 9878   3.552   1.139  11.256
 2661SOL     OW 9879   0.323   9.234  10.067
 2661SOL    HW1 9880   0.253   9.236  10.133
 2661SOL    HW2 9881   0.315   9.317  10.020
 2662SOL     OW 9882   0.044   4.460   0.410
 2662SOL    HW1 9883   0.112   4.490   0.350
 2662SOL    HW2 9884  14.837   4.514   0.390
 2663SOL     OW 9885   4.299   1.468  13.852
 2663SOL    HW1 9886   4.281   1.545  13.798
 2663SOL    HW2 9887   4.285   1.393  13.794
 2664SOL     OW 9888   9.179   5.930   3.754
 2664SOL    HW1 9889   9.104   5.902   3.702
 2664SOL    HW2 9890   9.211   5.850   3.795
 2665SOL     OW 9891   7.691   9.924  11.416
 2665SOL    HW1 9892   7.675   9.844  11.365
 2665SOL    HW2 9893   7.726   9.986  11.351
 2666SOL     OW 9894  13.850   2.423   6.267
 2666SOL    HW1 9895  13.883   2.418   6.177
 2666SOL    HW2 9896  13.848   2.332   6.296
 2667SOL     OW 9897   1.260  14.117   7.618
 2667SOL    HW1 9898   1.304  14.184   7.671
 2667SOL    HW2 9899   1.315  14.039   7.627
 2668SOL     OW 9900  11.880   3.328   4.336
 2668SOL    HW1 9901  11.877   3.417   4.300
 2668SOL    HW2 9902  11.972   3.302   4.330
 2669SOL     OW 9903  11.739  14.107  13.143
 2669SOL    HW1 9904  11.807  14.155  13.094
 2669SOL    HW2 9905  11.759  14.123  13.235
 2670SOL     OW 9906   8.347   8.405   0.023
 2670SOL    HW1 9907   8.262   8.432   0.056
 2670SOL    HW2 9908   8.387   8.486  14.860
 2671SOL     OW 9909   1.651  10.989  14.408
 2671SOL    HW1 9910   1.607  10.978  14.324
 2671SOL    HW2 9911   1.643  11.082  14.428
 2672SOL     OW 9912   1.428   6.750  10.421
 2672SOL    HW1 9913   1.497   6.815  10.430
 2672SOL    HW2 9914   1.346   6.800  10.426
 2673SOL     OW 9915   0.816   9.735  12.035
 2673SOL    HW1 9916   0.728   9.771  12.030
 2673SOL    HW2 9917   0.807   9.644  12.008
 2674SOL     OW 9918  14.135   8.471  12.391
 2674SOL    HW1 9919  14.075   8.399  12.410
 2674SOL    HW2 9920  14.099   8.546  12.437
 2675SOL     OW 9921   6.624   3.568   9.116
 2675SOL    HW1 9922   6.669   3.636   9.167
 2675SOL    HW2 9923   6.604   3.499   9.180
 2676SOL     OW 9924  11.526   4.863   2.602
 2676SOL    HW1 9925  11.514   4.814   2.520
 2676SOL    HW2 9926  11.448   4.842   2.654
 2677SOL     OW 9927   7.617  11.399   4.078
 2677SOL    HW1 9928   7.581  11.461   4.141
 2677SOL    HW2 9929   7.627  11.318   4.127
 2678SOL     OW 9930   1.996   2.719  11.825
 2678SOL    HW1 9931   1.984   2.735  11.919
 2678SOL    HW2 9932   1.908   2.711  11.790
 2679SOL     OW 9933   8.075   4.852  10.299
 2679SOL    HW1 9934   8.027   4.827  10.220
 2679SOL    HW2 9935   8.050   4.943  10.314
 2680SOL     OW 9936   6.153   6.407  13.651
 2680SOL    HW1 9937   6.229   6.444  13.606
 2680SOL    HW2 9938   6.188   6.369  13.732
 2681SOL     OW 9939  13.052   4.328   3.428
 2681SOL    HW1 9940  13.057   4.419   3.402
 2681SOL    HW2 9941  13.034   4.330   3.522
 2682SOL     OW 9942   1.141   4.701  14.178
 2682SOL    HW1 9943   1.222   4.732  14.139
 2682SOL    HW2 9944   1.114   4.628  14.123
 2683SOL     OW 9945  12.703  14.115   0.369
 2683SOL    HW1 9946  12.644  14.146   0.301
 2683SOL    HW2 9947  12.652  14.052   0.419
 2684SOL     OW 9948  12.327  12.925   0.217
 2684SOL    HW1 9949  12.328  12.865   0.143
 2684SOL    HW2 9950  12.234  12.940   0.235
 2685SOL     OW 9951   0.366   1.783   4.106
 2685SOL    HW1 9952   0.409   1.698   4.098
 2685SOL    HW2 9953   0.431   1.839   4.149
 2686SOL     OW 9954   7.560   5.582   5.013
 2686SOL    HW1 9955   7.556   5.676   5.028
 2686SOL    HW2 9956   7.580   5.544   5.098
 2687SOL     OW 9957   4.091   4.430   5.965
 2687SOL    HW1 9958   4.021   4.381   6.009
 2687SOL    HW2 9959   4.170   4.410   6.016
 2688SOL     OW 9960   3.185   0.775   4.189
 2688SOL    HW1 9961   3.247   0.740   4.126
 2688SOL    HW2 9962   3.236   0.788   4.269
 2689SOL     OW 9963  12.892  11.764   0.643
 2689SOL    HW1 9964  12.894  11.840   0.584
 2689SOL    HW2 9965  12.869  11.690   0.586
 2690SOL     OW 9966   2.307   6.346   9.329
 2690SOL    HW1 9967   2.306   6.283   9.401
 2690SOL    HW2 9968   2.295   6.293   9.250
 2691SOL     OW 9969  14.780   7.012  14.438
 2691SOL    HW1 9970  14.830   6.953  14.494
 2691SOL    HW2 9971  14.752   7.083  14.497
 2692SOL     OW 9972   9.234  13.377  14.293
 2692SOL    HW1 9973   9.153  13.369  14.243
 2692SOL    HW2 9974   9.258  13.469  14.285
 2693SOL     OW 9975  14.053  14.529   3.087
 2693SOL    HW1 9976  14.042  14.502   2.996
 2693SOL    HW2 9977  14.119  14.598   3.084
 2694SOL     OW 9978   9.243  13.423   7.880
 2694SOL    HW1 9979   9.188  13.468   7.944
 2694SOL    HW2 9980   9.315  13.484   7.863
 2695SOL     OW 9981   4.212  13.090  12.557
 2695SOL    HW1 9982   4.127  13.080  12.515
 2695SOL    HW2 9983   4.275  13.090  12.485
 2696SOL     OW 9984   8.166   0.056   1.333
 2696SOL    HW1 9985   8.236   0.106   1.376
 2696SOL    HW2 9986   8.097   0.120   1.319
 2697SOL     OW 9987   0.675   1.087   3.477
 2697SOL    HW1 9988   0.746   1.119   3.420
 2697SOL    HW2 9989   0.620   1.034   3.419
 2698SOL     OW 9990  14.009   4.234  14.775
 2698SOL    HW1 9991  14.042   4.269  14.858
 2698SOL    HW2 9992  13.990   4.311  14.722
 2699SOL     OW 9993   0.293   4.770   2.358
 2699SOL    HW1 9994   0.313   4.763   2.265
 2699SOL    HW2 9995   0.225   4.837   2.363
 2700SOL     OW 9996   0.984   3.611   4.391
 2700SOL    HW1 9997   1.000   3.636   4.300
 2700SOL    HW2 9998   1.070   3.585   4.424
 2701SOL     OW 9999   0.027   1.736   9.816
 2701SOL    HW110000   0.097   1.698   9.869
 2701SOL    HW210001   0.020   1.826   9.847
 2702SOL     OW10002   3.378   4.466  14.618
 2702SOL    HW110003   3.446   4.399  14.604
 2702SOL    HW210004   3.397   4.533  14.553
 2703SOL     OW10005  13.807   2.798  11.404
 2703SOL    HW110006  13.766   2.735  11.344
 2703SOL    HW210007  13.772   2.883  11.378
 2704SOL     OW10008   5.320   0.307   6.153
 2704SOL    HW110009   5.405   0.279   6.118
 2704SOL    HW210010   5.285   0.364   6.085
 2705SOL     OW10011  13.639   2.116   6.722
 2705SOL    HW110012  13.598   2.122   6.808
 2705SOL    HW210013  13.733   2.109   6.741
 2706SOL     OW10014  13.530   5.136   7.671
 2706SOL    HW110015  13.556   5.215   7.718
 2706SOL    HW210016  13.434   5.141   7.668
 2707SOL     OW10017  10.751  12.421   0.529
 2707SOL    HW110018  10.673  12.453   0.483
 2707SOL    HW210019  10.794  12.362   0.467
 2708SOL     OW10020  14.771   2.683   3.630
 2708SOL    HW110021  14.776   2.755   3.568
 2708SOL    HW210022  14.860   2.673   3.664
 2709SOL     OW10023   3.941   3.551  13.908
 2709SOL    HW110024   3.851   3.521  13.902
 2709SOL    HW210025   3.990   3.494  13.848
 2710SOL     OW10026  11.876   8.692   4.436
 2710SOL    HW110027  11.958   8.741   4.435
 2710SOL    HW210028  11.811   8.752   4.400
 2711SOL     OW10029  12.829   1.188   0.978
 2711SOL    HW110030  12.812   1.123   0.910
 2711SOL    HW210031  12.912   1.229   0.953
 2712SOL     OW10032   5.016   9.636   2.088
 2712SOL    HW110033   4.947   9.577   2.059
 2712SOL    HW210034   5.026   9.617   2.182
 2713SOL     OW10035  12.909  14.354  14.155
 2713SOL    HW110036  12.818  14.333  14.174
 2713SOL    HW210037  12.911  14.367  14.060
 2714SOL     OW10038   8.324   1.830  10.100
 2714SOL    HW110039   8.300   1.914  10.139
 2714SOL    HW210040   8.246   1.803  10.051
 2715SOL     OW10041   6.796  13.105  14.286
 2715SOL    HW110042   6.707  13.123  14.315
 2715SOL    HW210043   6.793  13.016  14.251
 2716SOL     OW10044   4.492   8.310  14.152
 2716SOL    HW110045   4.490   8.227  14.201
 2716SOL    HW210046   4.555   8.294  14.082
 2717SOL     OW10047  12.904   5.942   1.868
 2717SOL    HW110048  12.812   5.920   1.878
 2717SOL    HW210049  12.921   5.936   1.774
 2718SOL     OW10050   1.600   4.949   3.953
 2718SOL    HW110051   1.524   4.948   4.012
 2718SOL    HW210052   1.619   4.857   3.936
 2719SOL     OW10053  11.708   0.064   8.328
 2719SOL    HW110054  11.713   0.128   8.257
 2719SOL    HW210055  11.680  14.853   8.285
 2720SOL     OW10056   3.434  11.793  11.530
 2720SOL    HW110057   3.368  11.836  11.584
 2720SOL    HW210058   3.516  11.804  11.578
 2721SOL     OW10059   7.946   0.706   9.567
 2721SOL    HW110060   7.882   0.642   9.538
 2721SOL    HW210061   8.001   0.723   9.490
 2722SOL     OW10062   0.629   4.185   6.546
 2722SOL    HW110063   0.579   4.172   6.466
 2722SOL    HW210064   0.589   4.261   6.588
 2723SOL     OW10065  10.950   3.258   2.469
 2723SOL    HW110066  11.014   3.325   2.494
 2723SOL    HW210067  10.865   3.299   2.486
 2724SOL     OW10068  12.611  13.078   1.016
 2724SOL    HW110069  12.647  12.990   1.032
 2724SOL    HW210070  12.543  13.089   1.083
 2725SOL     OW10071  13.131  14.091   6.571
 2725SOL    HW110072  13.142  14.001   6.539
 2725SOL    HW210073  13.217  14.131   6.560
 2726SOL     OW10074   3.771   7.703   2.527
 2726SOL    HW110075   3.843   7.656   2.569
 2726SOL    HW210076   3.789   7.795   2.545
 2727SOL     OW10077   6.556  11.542  13.221
 2727SOL    HW110078   6.514  11.480  13.280
 2727SOL    HW210079   6.632  11.574  13.271
 2728SOL     OW10080   1.835  11.898   4.444
 2728SOL    HW110081   1.791  11.955   4.507
 2728SOL    HW210082   1.921  11.939   4.431
 2729SOL     OW10083   6.417   0.297   4.579
 2729SOL    HW110084   6.469   0.353   4.638
 2729SOL    HW210085   6.480   0.268   4.512
 2730SOL     OW10086   4.396  14.640   6.354
 2730SOL    HW110087   4.456  14.712   6.339
 2730SOL    HW210088   4.404  14.585   6.275
 2731SOL     OW10089  11.553   7.274  10.986
 2731SOL    HW110090  11.466   7.236  10.995
 2731SOL    HW210091  11.570   7.273  10.891
 2732SOL     OW10092   7.847  11.537  11.457
 2732SOL    HW110093   7.846  11.612  11.397
 2732SOL    HW210094   7.877  11.464  11.404
 2733SOL     OW10095   0.682  14.803  10.627
 2733SOL    HW110096   0.617   0.001  10.611
 2733SOL    HW210097   0.766  14.848  10.618
 2734SOL     OW10098  12.946   7.943  14.673
 2734SOL    HW110099  12.853   7.946  14.650
 2734SOL    HW210100  12.946   7.918  14.765
 2735SOL     OW10101   6.084   3.202   5.589
 2735SOL    HW110102   6.175   3.225   5.609
 2735SOL    HW210103   6.065   3.127   5.645
 2736SOL     OW10104   9.717  11.898   0.444
 2736SOL    HW110105   9.650  11.848   0.397
 2736SOL    HW210106   9.720  11.982   0.398
 2737SOL     OW10107  13.542  13.552   6.840
 2737SOL    HW110108  13.523  13.594   6.756
 2737SOL    HW210109  13.466  13.572   6.895
 2738SOL     OW10110  10.046   7.366  13.071
 2738SOL    HW110111   9.961   7.362  13.027
 2738SOL    HW210112  10.110   7.355  13.000
 2739SOL     OW10113   4.849  14.406   5.186
 2739SOL    HW110114   4.801  14.397   5.269
 2739SOL    HW210115   4.798  14.355   5.123
 2740SOL     OW10116   2.980  12.996   5.715
 2740SOL    HW110117   3.072  12.982   5.736
 2740SOL    HW210118   2.962  12.935   5.644
 2741SOL     OW10119   7.908   7.068  10.756
 2741SOL    HW110120   7.895   6.990  10.703
 2741SOL    HW210121   7.835   7.068  10.818
 2742SOL     OW10122   7.749   3.990   0.902
 2742SOL    HW110123   7.731   4.015   0.992
 2742SOL    HW210124   7.799   3.909   0.909
 2743SOL     OW10125   9.937   3.003   7.750
 2743SOL    HW110126   9.903   2.936   7.690
 2743SOL    HW210127   9.889   3.082   7.728
 2744SOL     OW10128   5.567  13.091   6.162
 2744SOL    HW110129   5.654  13.107   6.200
 2744SOL    HW210130   5.542  13.175   6.123
 2745SOL     OW10131  11.313   9.157   7.105
 2745SOL    HW110132  11.225   9.185   7.079
 2745SOL    HW210133  11.372   9.211   7.051
 2746SOL     OW10134   3.716  14.631  13.425
 2746SOL    HW110135   3.739  14.687  13.350
 2746SOL    HW210136   3.625  14.606  13.408
 2747SOL     OW10137  14.486  10.302  12.429
 2747SOL    HW110138  14.514  10.263  12.512
 2747SOL    HW210139  14.531  10.387  12.427
 2748SOL     OW10140  13.282   7.616   0.622
 2748SOL    HW110141  13.364   7.567   0.628
 2748SOL    HW210142  13.240   7.602   0.707
 2749SOL     OW10143   9.969   0.202   6.860
 2749SOL    HW110144   9.932   0.148   6.929
 2749SOL    HW210145   9.943   0.291   6.882
 2750SOL     OW10146  11.084   9.502   4.194
 2750SOL    HW110147  11.132   9.445   4.254
 2750SOL    HW210148  11.022   9.444   4.151
 2751SOL     OW10149   2.756  13.476   1.240
 2751SOL    HW110150   2.845  13.491   1.208
 2751SOL    HW210151   2.703  13.538   1.190
 2752SOL     OW10152  14.681  12.339   6.413
 2752SOL    HW110153  14.762  12.387   6.424
 2752SOL    HW210154  14.652  12.319   6.502
 2753SOL     OW10155  13.592   7.867   2.178
 2753SOL    HW110156  13.499   7.857   2.159
 2753SOL    HW210157  13.634   7.794   2.131
 2754SOL     OW10158   7.864   0.829   6.336
 2754SOL    HW110159   7.882   0.746   6.293
 2754SOL    HW210160   7.909   0.822   6.420
 2755SOL     OW10161   3.812   0.792   3.227
 2755SOL    HW110162   3.848   0.775   3.314
 2755SOL    HW210163   3.791   0.705   3.193
 2756SOL     OW10164   5.598  13.747   9.494
 2756SOL    HW110165   5.531  13.759   9.562
 2756SOL    HW210166   5.550  13.750   9.412
 2757SOL     OW10167   5.054  11.634   5.977
 2757SOL    HW110168   5.101  11.717   5.978
 2757SOL    HW210169   5.090  11.586   6.052
 2758SOL     OW10170   9.430  10.404   5.069
 2758SOL    HW110171   9.517  10.397   5.109
 2758SOL    HW210172   9.419  10.322   5.021
 2759SOL     OW10173   2.624  12.045   8.903
 2759SOL    HW110174   2.615  12.125   8.851
 2759SOL    HW210175   2.706  12.055   8.950
 2760SOL     OW10176   6.136  11.621  11.108
 2760SOL    HW110177   6.159  11.551  11.047
 2760SOL    HW210178   6.213  11.631  11.164
 2761SOL     OW10179  14.508   9.872   1.773
 2761SOL    HW110180  14.536   9.782   1.788
 2761SOL    HW210181  14.520   9.886   1.679
 2762SOL     OW10182  14.619  13.929   5.944
 2762SOL    HW110183  14.640  14.001   6.003
 2762SOL    HW210184  14.662  13.853   5.982
 2763SOL     OW10185   8.145   9.659  12.857
 2763SOL    HW110186   8.102   9.661  12.771
 2763SOL    HW210187   8.187   9.572  12.860
 2764SOL     OW10188   7.251   3.139   3.195
 2764SOL    HW110189   7.252   3.132   3.291
 2764SOL    HW210190   7.338   3.173   3.173
 2765SOL     OW10191   3.520   7.474  10.033
 2765SOL    HW110192   3.594   7.414  10.035
 2765SOL    HW210193   3.474   7.453   9.952
 2766SOL     OW10194   7.809   4.617   0.981
 2766SOL    HW110195   7.804   4.713   0.973
 2766SOL    HW210196   7.886   4.593   0.929
 2767SOL     OW10197   1.007   6.057   2.154
 2767SOL    HW110198   0.981   5.989   2.216
 2767SOL    HW210199   1.102   6.055   2.155
 2768SOL     OW10200  13.171  12.429  11.775
 2768SOL    HW110201  13.193  12.454  11.865
 2768SOL    HW210202  13.250  12.385  11.743
 2769SOL     OW10203  11.532   8.632   2.569
 2769SOL    HW110204  11.620   8.641   2.533
 2769SOL    HW210205  11.474   8.648   2.494
 2770SOL     OW10206   6.007   8.854   9.735
 2770SOL    HW110207   5.940   8.812   9.681
 2770SOL    HW210208   5.992   8.948   9.722
 2771SOL     OW10209   9.044   6.060   5.480
 2771SOL    HW110210   9.084   6.118   5.545
 2771SOL    HW210211   9.110   6.053   5.411
 2772SOL     OW10212   2.831   4.266  11.406
 2772SOL    HW110213   2.893   4.194  11.401
 2772SOL    HW210214   2.861   4.329  11.340
 2773SOL     OW10215   6.599  10.470  10.342
 2773SOL    HW110216   6.627  10.395  10.290
 2773SOL    HW210217   6.506  10.455  10.358
 2774SOL     OW10218   8.212  14.868   2.488
 2774SOL    HW110219   8.231   0.047   2.407
 2774SOL    HW210220   8.129  14.825   2.471
 2775SOL     OW10221   4.480  10.584   3.898
 2775SOL    HW110222   4.478  10.508   3.840
 2775SOL    HW210223   4.411  10.567   3.962
 2776SOL     OW10224   7.851   2.805  14.511
 2776SOL    HW110225   7.804   2.759  14.442
 2776SOL    HW210226   7.943   2.786  14.495
 2777SOL     OW10227  13.731   7.323  11.070
 2777SOL    HW110228  13.714   7.340  10.977
 2777SOL    HW210229  13.648   7.293  11.105
 2778SOL     OW10230   9.345   7.760   5.230
 2778SOL    HW110231   9.394   7.817   5.289
 2778SOL    HW210232   9.408   7.733   5.164
 2779SOL     OW10233   5.780  12.349   0.470
 2779SOL    HW110234   5.764  12.421   0.409
 2779SOL    HW210235   5.853  12.380   0.525
 2780SOL     OW10236   6.446  12.586  11.371
 2780SOL    HW110237   6.414  12.613  11.457
 2780SOL    HW210238   6.528  12.635  11.360
 2781SOL     OW10239   6.927  12.381   1.071
 2781SOL    HW110240   6.864  12.312   1.091
 2781SOL    HW210241   7.003  12.361   1.125
 2782SOL     OW10242  10.105   4.310   8.872
 2782SOL    HW110243  10.082   4.244   8.938
 2782SOL    HW210244  10.024   4.360   8.860
 2783SOL     OW10245   4.843   8.335   8.233
 2783SOL    HW110246   4.934   8.343   8.261
 2783SOL    HW210247   4.819   8.245   8.256
 2784SOL     OW10248  13.812   9.805   4.202
 2784SOL    HW110249  13.770   9.832   4.284
 2784SOL    HW210250  13.837   9.888   4.161
 2785SOL     OW10251   2.990   2.124  10.671
 2785SOL    HW110252   2.985   2.133  10.576
 2785SOL    HW210253   3.074   2.163  10.694
 2786SOL     OW10254   0.826   4.117   9.204
 2786SOL    HW110255   0.869   4.050   9.256
 2786SOL    HW210256   0.817   4.192   9.263
 2787SOL     OW10257   0.290  12.598   4.016
 2787SOL    HW110258   0.258  12.578   4.104
 2787SOL    HW210259   0.266  12.522   3.964
 2788SOL     OW10260   4.922   0.114  10.744
 2788SOL    HW110261   4.945   0.028  10.778
 2788SOL    HW210262   4.827   0.120  10.753
 2789SOL     OW10263   3.090   3.304   3.530
 2789SOL    HW110264   3.099   3.259   3.615
 2789SOL    HW210265   3.165   3.363   3.527
 2790SOL     OW10266   4.597   0.347  10.609
 2790SOL    HW110267   4.575   0.349  10.516
 2790SOL    HW210268   4.551   0.422  10.647
 2791SOL     OW10269   2.276   1.414  14.318
 2791SOL    HW110270   2.192   1.460  14.312
 2791SOL    HW210271   2.327   1.465  14.380
 2792SOL     OW10272  11.182  11.911  11.506
 2792SOL    HW110273  11.211  11.999  11.529
 2792SOL    HW210274  11.089  11.922  11.486
 2793SOL     OW10275   0.914   6.943  10.496
 2793SOL    HW110276   0.842   6.977  10.550
 2793SOL    HW210277   0.881   6.949  10.406
 2794SOL     OW10278   1.149   7.136   9.290
 2794SOL    HW110279   1.239   7.104   9.296
 2794SOL    HW210280   1.153   7.226   9.323
 2795SOL     OW10281   1.405   2.438  10.159
 2795SOL    HW110282   1.472   2.490  10.203
 2795SOL    HW210283   1.325   2.489  10.171
 2796SOL     OW10284   0.514   8.759   5.741
 2796SOL    HW110285   0.603   8.793   5.744
 2796SOL    HW210286   0.468   8.818   5.680
 2797SOL     OW10287   2.218   6.364   6.162
 2797SOL    HW110288   2.283   6.297   6.144
 2797SOL    HW210289   2.136   6.329   6.127
 2798SOL     OW10290   0.770   4.092  14.294
 2798SOL    HW110291   0.862   4.111  14.275
 2798SOL    HW210292   0.771   4.010  14.343
 2799SOL     OW10293  11.666   6.672   1.639
 2799SOL    HW110294  11.579   6.708   1.658
 2799SOL    HW210295  11.727   6.738   1.670
 2800SOL     OW10296   2.893  10.496  10.152
 2800SOL    HW110297   2.812  10.505  10.102
 2800SOL    HW210298   2.952  10.561  10.113
 2801SOL     OW10299   0.078   6.265   0.391
 2801SOL    HW110300   0.089   6.253   0.297
 2801SOL    HW210301   0.167   6.285   0.422
 2802SOL     OW10302  14.602  10.326   7.113
 2802SOL    HW110303  14.675  10.363   7.063
 2802SOL    HW210304  14.561  10.401   7.155
 2803SOL     OW10305   3.999  14.103  11.859
 2803SOL    HW110306   3.987  14.094  11.764
 2803SOL    HW210307   4.084  14.064  11.876
 2804SOL     OW10308   9.536   8.737   5.339
 2804SOL    HW110309   9.562   8.828   5.328
 2804SOL    HW210310   9.496   8.733   5.426
 2805SOL     OW10311  14.798   8.143  10.093
 2805SOL    HW110312  14.802   8.144  10.189
 2805SOL    HW210313   0.012   8.103  10.067
 2806SOL     OW10314   5.479   7.645  12.114
 2806SOL    HW110315   5.513   7.734  12.120
 2806SOL    HW210316   5.492   7.620  12.023
 2807SOL     OW10317  13.761   5.477   5.544
 2807SOL    HW110318  13.800   5.428   5.617
 2807SOL    HW210319  13.742   5.563   5.582
 2808SOL     OW10320  14.155   8.948   1.536
 2808SOL    HW110321  14.060   8.951   1.548
 2808SOL    HW210322  14.174   8.855   1.520
 2809SOL     OW10323   3.725  10.095   4.872
 2809SOL    HW110324   3.757  10.112   4.784
 2809SOL    HW210325   3.705  10.001   4.873
 2810SOL     OW10326   1.649  13.675   2.466
 2810SOL    HW110327   1.710  13.670   2.393
 2810SOL    HW210328   1.604  13.759   2.454
 2811SOL     OW10329   6.339  13.918   9.350
 2811SOL    HW110330   6.331  13.982   9.279
 2811SOL    HW210331   6.251  13.914   9.389
 2812SOL     OW10332  13.392   2.965  10.911
 2812SOL    HW110333  13.346   2.940  10.831
 2812SOL    HW210334  13.346   2.917  10.980
 2813SOL     OW10335   3.408   5.613   3.540
 2813SOL    HW110336   3.426   5.706   3.526
 2813SOL    HW210337   3.393   5.605   3.634
 2814SOL     OW10338  12.009   5.954   0.353
 2814SOL    HW110339  11.925   5.984   0.387
 2814SOL    HW210340  12.073   5.981   0.419
 2815SOL     OW10341   7.528   1.382   0.839
 2815SOL    HW110342   7.456   1.342   0.789
 2815SOL    HW210343   7.600   1.318   0.832
 2816SOL     OW10344  13.309   7.376  12.072
 2816SOL    HW110345  13.272   7.432  12.140
 2816SOL    HW210346  13.318   7.290  12.113
 2817SOL     OW10347   3.609  11.869  12.745
 2817SOL    HW110348   3.675  11.810  12.780
 2817SOL    HW210349   3.657  11.946  12.717
 2818SOL     OW10350  13.643   4.966   7.426
 2818SOL    HW110351  13.729   4.975   7.465
 2818SOL    HW210352  13.583   5.004   7.490
 2819SOL     OW10353  12.321  11.889  11.358
 2819SOL    HW110354  12.233  11.858  11.382
 2819SOL    HW210355  12.379  11.815  11.378
 2820SOL     OW10356   7.199   2.709   4.769
 2820SOL    HW110357   7.288   2.706   4.805
 2820SOL    HW210358   7.193   2.797   4.731
 2821SOL     OW10359   7.621   5.338   9.337
 2821SOL    HW110360   7.565   5.367   9.266
 2821SOL    HW210361   7.710   5.342   9.300
 2822SOL     OW10362   5.390   9.810   7.019
 2822SOL    HW110363   5.309   9.812   6.969
 2822SOL    HW210364   5.371   9.757   7.096
 2823SOL     OW10365  12.913   8.598  14.472
 2823SOL    HW110366  12.887   8.675  14.523
 2823SOL    HW210367  12.833   8.545  14.467
 2824SOL     OW10368   2.837   1.896   8.637
 2824SOL    HW110369   2.884   1.964   8.686
 2824SOL    HW210370   2.752   1.935   8.617
 2825SOL     OW10371  13.285   2.139   6.238
 2825SOL    HW110372  13.306   2.061   6.289
 2825SOL    HW210373  13.216   2.111   6.178
 2826SOL     OW10374   5.020   2.494  10.384
 2826SOL    HW110375   5.033   2.539  10.300
 2826SOL    HW210376   5.108   2.471  10.413
 2827SOL     OW10377   5.547  11.927   1.673
 2827SOL    HW110378   5.598  11.924   1.592
 2827SOL    HW210379   5.542  12.020   1.694
 2828SOL     OW10380  10.616   7.891   7.536
 2828SOL    HW110381  10.586   7.979   7.556
 2828SOL    HW210382  10.593   7.839   7.613
 2829SOL     OW10383   0.665   5.085  10.601
 2829SOL    HW110384   0.748   5.127  10.577
 2829SOL    HW210385   0.686   5.031  10.677
 2830SOL     OW10386  12.167   5.362   0.081
 2830SOL    HW110387  12.245   5.311   0.062
 2830SOL    HW210388  12.151   5.348   0.175
 2831SOL     OW10389   2.332   2.201   2.093
 2831SOL    HW110390   2.237   2.193   2.095
 2831SOL    HW210391   2.350   2.279   2.146
 2832SOL     OW10392   3.628   6.603   9.927
 2832SOL    HW110393   3.570   6.527   9.917
 2832SOL    HW210394   3.576   6.677   9.898
 2833SOL     OW10395   6.463   6.446  13.076
 2833SOL    HW110396   6.506   6.433  12.991
 2833SOL    HW210397   6.371   6.463  13.053
 2834SOL     OW10398   3.360   4.266   7.583
 2834SOL    HW110399   3.410   4.286   7.503
 2834SOL    HW210400   3.330   4.176   7.571
 2835SOL     OW10401   7.110   7.370  14.117
 2835SOL    HW110402   7.105   7.424  14.038
 2835SOL    HW210403   7.180   7.409  14.168
 2836SOL     OW10404   9.985   8.255   7.502
 2836SOL    HW110405  10.022   8.295   7.424
 2836SOL    HW210406   9.982   8.325   7.567
 2837SOL     OW10407   7.284   0.602   0.776
 2837SOL    HW110408   7.349   0.531   0.773
 2837SOL    HW210409   7.226   0.583   0.703
 2838SOL     OW10410  12.489   0.081   1.712
 2838SOL    HW110411  12.468   0.126   1.794
 2838SOL    HW210412  12.405   0.070   1.668
 2839SOL     OW10413  12.425  10.201   3.895
 2839SOL    HW110414  12.436  10.190   3.801
 2839SOL    HW210415  12.331  10.189   3.910
 2840SOL     OW10416   1.685   1.484   9.641
 2840SOL    HW110417   1.670   1.532   9.722
 2840SOL    HW210418   1.597   1.458   9.612
 2841SOL     OW10419   2.830   7.918   0.356
 2841SOL    HW110420   2.887   7.854   0.399
 2841SOL    HW210421   2.779   7.956   0.428
 2842SOL     OW10422   8.615  13.536   8.266
 2842SOL    HW110423   8.666  13.560   8.188
 2842SOL    HW210424   8.645  13.598   8.333
 2843SOL     OW10425   9.200  14.368   1.998
 2843SOL    HW110426   9.147  14.396   2.072
 2843SOL    HW210427   9.214  14.448   1.947
 2844SOL     OW10428  11.702  10.290   3.748
 2844SOL    HW110429  11.784  10.268   3.705
 2844SOL    HW210430  11.696  10.229   3.821
 2845SOL     OW10431   6.027  10.533  12.665
 2845SOL    HW110432   6.022  10.569  12.576
 2845SOL    HW210433   6.105  10.573  12.703
 2846SOL     OW10434  14.270   2.741   6.451
 2846SOL    HW110435  14.309   2.779   6.530
 2846SOL    HW210436  14.177   2.733   6.471
 2847SOL     OW10437   2.723   6.089   4.139
 2847SOL    HW110438   2.776   6.044   4.204
 2847SOL    HW210439   2.762   6.065   4.055
 2848SOL     OW10440   0.343  12.193  12.281
 2848SOL    HW110441   0.437  12.181  12.271
 2848SOL    HW210442   0.327  12.281  12.247
 2849SOL     OW10443   1.524  13.336  11.982
 2849SOL    HW110444   1.612  13.341  11.945
 2849SOL    HW210445   1.474  13.402  11.933
 2850SOL     OW10446   5.706  12.075  11.563
 2850SOL    HW110447   5.714  12.008  11.631
 2850SOL    HW210448   5.715  12.158  11.611
 2851SOL     OW10449   3.967   7.040   6.920
 2851SOL    HW110450   3.886   7.004   6.956
 2851SOL    HW210451   4.001   7.095   6.990
 2852SOL     OW10452   6.223   9.435   4.793
 2852SOL    HW110453   6.253   9.512   4.840
 2852SOL    HW210454   6.192   9.468   4.708
 2853SOL     OW10455  13.967   9.252  14.172
 2853SOL    HW110456  13.889   9.232  14.224
 2853SOL    HW210457  13.942   9.232  14.082
 2854SOL     OW10458   7.288   1.110  13.472
 2854SOL    HW110459   7.245   1.161  13.404
 2854SOL    HW210460   7.369   1.079  13.431
 2855SOL     OW10461   3.146   5.704   2.001
 2855SOL    HW110462   3.120   5.636   1.939
 2855SOL    HW210463   3.164   5.657   2.083
 2856SOL     OW10464   1.538   3.620   4.581
 2856SOL    HW110465   1.556   3.584   4.494
 2856SOL    HW210466   1.594   3.569   4.639
 2857SOL     OW10467  12.034   7.740  13.484
 2857SOL    HW110468  12.038   7.802  13.557
 2857SOL    HW210469  11.980   7.668  13.516
 2858SOL     OW10470   1.868  14.841   8.649
 2858SOL    HW110471   1.804   0.006   8.711
 2858SOL    HW210472   1.824  14.768   8.606
 2859SOL     OW10473  14.078  14.536   0.569
 2859SOL    HW110474  14.165  14.574   0.586
 2859SOL    HW210475  14.020  14.584   0.628
 2860SOL     OW10476  11.658   5.358  11.391
 2860SOL    HW110477  11.742   5.318  11.370
 2860SOL    HW210478  11.597   5.284  11.396
 2861SOL     OW10479   7.270  14.114   6.552
 2861SOL    HW110480   7.290  14.054   6.624
 2861SOL    HW210481   7.322  14.082   6.479
 2862SOL     OW10482  11.482   2.290   3.499
 2862SOL    HW110483  11.577   2.282   3.509
 2862SOL    HW210484  11.448   2.206   3.531
 2863SOL     OW10485   1.504   1.693   1.272
 2863SOL    HW110486   1.593   1.680   1.304
 2863SOL    HW210487   1.481   1.782   1.301
 2864SOL     OW10488   9.660   9.680   2.840
 2864SOL    HW110489   9.708   9.700   2.920
 2864SOL    HW210490   9.692   9.743   2.776
 2865SOL     OW10491  11.272  13.357  11.636
 2865SOL    HW110492  11.358  13.343  11.596
 2865SOL    HW210493  11.210  13.344  11.564
 2866SOL     OW10494   8.878   9.705   7.260
 2866SOL    HW110495   8.899   9.798   7.264
 2866SOL    HW210496   8.807   9.699   7.196
 2867SOL     OW10497   4.537   6.286   5.541
 2867SOL    HW110498   4.551   6.364   5.594
 2867SOL    HW210499   4.615   6.281   5.486
 2868SOL     OW10500   3.875  14.418   1.019
 2868SOL    HW110501   3.952  14.400   0.965
 2868SOL    HW210502   3.900  14.494   1.072
 2869SOL     OW10503   1.039   2.263  14.417
 2869SOL    HW110504   1.085   2.267  14.334
 2869SOL    HW210505   1.091   2.202  14.471
 2870SOL     OW10506   8.276  13.920   6.410
 2870SOL    HW110507   8.252  13.939   6.501
 2870SOL    HW210508   8.208  13.860   6.379
 2871SOL     OW10509   6.633   0.136   6.035
 2871SOL    HW110510   6.591   0.111   6.117
 2871SOL    HW210511   6.600   0.224   6.017
 2872SOL     OW10512   1.093   4.960   6.443
 2872SOL    HW110513   1.026   4.960   6.374
 2872SOL    HW210514   1.140   4.877   6.430
 2873SOL     OW10515  11.291   0.294   8.018
 2873SOL    HW110516  11.297   0.302   7.923
 2873SOL    HW210517  11.371   0.334   8.051
 2874SOL     OW10518  12.489  10.327   8.133
 2874SOL    HW110519  12.402  10.293   8.155
 2874SOL    HW210520  12.526  10.261   8.074
 2875SOL     OW10521  13.279  13.116   3.282
 2875SOL    HW110522  13.230  13.129   3.363
 2875SOL    HW210523  13.223  13.060   3.229
 2876SOL     OW10524   2.655   3.026   6.092
 2876SOL    HW110525   2.653   3.076   6.173
 2876SOL    HW210526   2.604   2.947   6.111
 2877SOL     OW10527   1.173   4.818   6.974
 2877SOL    HW110528   1.249   4.761   6.972
 2877SOL    HW210529   1.099   4.759   6.990
 2878SOL     OW10530  13.429  12.825  11.971
 2878SOL    HW110531  13.448  12.835  11.878
 2878SOL    HW210532  13.397  12.735  11.978
 2879SOL     OW10533  10.079   4.378   3.273
 2879SOL    HW110534  10.078   4.471   3.250
 2879SOL    HW210535   9.988   4.358   3.294
 2880SOL     OW10536  10.539   4.824  11.841
 2880SOL    HW110537  10.579   4.855  11.922
 2880SOL    HW210538  10.445   4.837  11.855
 2881SOL     OW10539  13.414   1.727   6.746
 2881SOL    HW110540  13.418   1.806   6.692
 2881SOL    HW210541  13.489   1.675   6.719
 2882SOL     OW10542  14.540   9.183   1.338
 2882SOL    HW110543  14.561   9.110   1.279
 2882SOL    HW210544  14.539   9.143   1.425
 2883SOL     OW10545   0.810   6.046   1.967
 2883SOL    HW110546   0.785   6.117   1.908
 2883SOL    HW210547   0.885   6.080   2.016
 2884SOL     OW10548   5.634  11.910   6.393
 2884SOL    HW110549   5.661  11.868   6.475
 2884SOL    HW210550   5.573  11.979   6.420
 2885SOL     OW10551   1.605   8.051   5.096
 2885SOL    HW110552   1.644   8.085   5.176
 2885SOL    HW210553   1.598   7.956   5.111
 2886SOL     OW10554  12.205   0.677   7.616
 2886SOL    HW110555  12.289   0.639   7.639
 2886SOL    HW210556  12.183   0.638   7.531
 2887SOL     OW10557   0.562   5.327   8.349
 2887SOL    HW110558   0.588   5.320   8.441
 2887SOL    HW210559   0.479   5.375   8.351
 2888SOL     OW10560   7.065  10.059  13.770
 2888SOL    HW110561   7.071  10.040  13.864
 2888SOL    HW210562   7.029  10.147  13.766
 2889SOL     OW10563  10.496   2.143   5.432
 2889SOL    HW110564  10.521   2.219   5.485
 2889SOL    HW210565  10.401   2.136   5.444
 2890SOL     OW10566   2.216   3.621  11.200
 2890SOL    HW110567   2.251   3.701  11.239
 2890SOL    HW210568   2.293   3.572  11.172
 2891SOL     OW10569  12.577   7.481   1.544
 2891SOL    HW110570  12.604   7.406   1.491
 2891SOL    HW210571  12.511   7.525   1.491
 2892SOL     OW10572   5.353   8.944   9.272
 2892SOL    HW110573   5.259   8.940   9.289
 2892SOL    HW210574   5.386   9.013   9.329
 2893SOL     OW10575  10.165   7.950  11.203
 2893SOL    HW110576  10.210   8.028  11.169
 2893SOL    HW210577  10.199   7.878  11.150
 2894SOL     OW10578   8.340   7.957   7.835
 2894SOL    HW110579   8.289   8.016   7.890
 2894SOL    HW210580   8.406   7.920   7.893
 2895SOL     OW10581  12.085  13.959   1.033
 2895SOL    HW110582  12.076  13.918   1.119
 2895SOL    HW210583  12.115  13.889   0.976
 2896SOL     OW10584   7.466   5.877  14.225
 2896SOL    HW110585   7.536   5.826  14.184
 2896SOL    HW210586   7.459   5.841  14.313
 2897SOL     OW10587   0.080  10.452  12.640
 2897SOL    HW110588   0.141  10.500  12.696
 2897SOL    HW210589   0.071  10.507  12.563
 2898SOL     OW10590   1.505  11.814   3.988
 2898SOL    HW110591   1.593  11.845   3.970
 2898SOL    HW210592   1.482  11.760   3.912
 2899SOL     OW10593   3.668   5.111  13.286
 2899SOL    HW110594   3.663   5.027  13.331
 2899SOL    HW210595   3.712   5.169  13.349
 2900SOL     OW10596  11.082   8.939   4.977
 2900SOL    HW110597  11.147   9.007   4.991
 2900SOL    HW210598  11.005   8.986   4.945
 2901SOL     OW10599   3.185   8.310   8.830
 2901SOL    HW110600   3.236   8.338   8.754
 2901SOL    HW210601   3.233   8.234   8.864
 2902SOL     OW10602  11.233   7.461  12.631
 2902SOL    HW110603  11.328   7.473  12.628
 2902SOL    HW210604  11.202   7.532  12.687
 2903SOL     OW10605   3.458   0.947   6.970
 2903SOL    HW110606   3.539   0.998   6.967
 2903SOL    HW210607   3.449   0.921   7.062
 2904SOL     OW10608   9.265   7.221  11.326
 2904SOL    HW110609   9.264   7.135  11.283
 2904SOL    HW210610   9.205   7.275  11.274
 2905SOL     OW10611   0.629  13.202   5.757
 2905SOL    HW110612   0.669  13.148   5.825
 2905SOL    HW210613   0.634  13.148   5.678
 2906SOL     OW10614  12.275  14.219   3.415
 2906SOL    HW110615  12.365  14.230   3.446
 2906SOL    HW210616  12.220  14.240   3.490
 2907SOL     OW10617   4.360  10.501  12.896
 2907SOL    HW110618   4.391  10.520  12.984
 2907SOL    HW210619   4.305  10.576  12.873
 2908SOL     OW10620   6.882   6.937  13.378
 2908SOL    HW110621   6.849   6.868  13.435
 2908SOL    HW210622   6.807   6.995  13.364
 2909SOL     OW10623   4.378   4.220  12.489
 2909SOL    HW110624   4.365   4.299  12.542
 2909SOL    HW210625   4.402   4.253  12.403
 2910SOL     OW10626   2.301  13.478   1.405
 2910SOL    HW110627   2.265  13.517   1.325
 2910SOL    HW210628   2.308  13.551   1.467
 2911SOL     OW10629  11.026  14.597   6.599
 2911SOL    HW110630  11.086  14.556   6.537
 2911SOL    HW210631  10.947  14.543   6.596
 2912SOL     OW10632   0.341   6.768  11.729
 2912SOL    HW110633   0.374   6.799  11.644
 2912SOL    HW210634   0.418   6.764  11.785
 2913SOL     OW10635   7.329   8.353   1.487
 2913SOL    HW110636   7.345   8.288   1.419
 2913SOL    HW210637   7.334   8.437   1.442
 2914SOL     OW10638   8.537  11.947  11.309
 2914SOL    HW110639   8.576  11.994  11.382
 2914SOL    HW210640   8.546  12.007  11.235
 2915SOL     OW10641   4.600   2.110   3.477
 2915SOL    HW110642   4.579   2.152   3.394
 2915SOL    HW210643   4.680   2.154   3.507
 2916SOL     OW10644   7.713   5.269   4.256
 2916SOL    HW110645   7.720   5.348   4.311
 2916SOL    HW210646   7.620   5.260   4.238
 2917SOL     OW10647   9.331   2.152  13.761
 2917SOL    HW110648   9.348   2.094  13.688
 2917SOL    HW210649   9.380   2.232  13.741
 2918SOL     OW10650  11.898   5.124   7.940
 2918SOL    HW110651  11.917   5.098   7.849
 2918SOL    HW210652  11.803   5.114   7.948
 2919SOL     OW10653   9.397   0.330  13.135
 2919SOL    HW110654   9.311   0.304  13.102
 2919SOL    HW210655   9.420   0.262  13.199
 2920SOL     OW10656   5.663   2.106   3.670
 2920SOL    HW110657   5.679   2.122   3.763
 2920SOL    HW210658   5.733   2.153   3.624
 2921SOL     OW10659  10.280  14.173   8.759
 2921SOL    HW110660  10.194  14.160   8.718
 2921SOL    HW210661  10.343  14.157   8.688
 2922SOL     OW10662   1.251  12.571  11.589
 2922SOL    HW110663   1.258  12.484  11.549
 2922SOL    HW210664   1.204  12.623  11.524
 2923SOL     OW10665   0.362  12.959   9.496
 2923SOL    HW110666   0.432  12.994   9.441
 2923SOL    HW210667   0.392  12.974   9.585
 2924SOL     OW10668   8.514   8.422   0.784
 2924SOL    HW110669   8.569   8.415   0.705
 2924SOL    HW210670   8.574   8.455   0.851
 2925SOL     OW10671  13.685  14.693  10.574
 2925SOL    HW110672  13.596  14.696  10.540
 2925SOL    HW210673  13.690  14.766  10.636
 2926SOL     OW10674   7.729   0.742   8.762
 2926SOL    HW110675   7.670   0.802   8.716
 2926SOL    HW210676   7.734   0.776   8.851
 2927SOL     OW10677  11.602  10.921  13.116
 2927SOL    HW110678  11.548  10.987  13.074
 2927SOL    HW210679  11.540  10.866  13.165
 2928SOL     OW10680  10.062   2.081  12.958
 2928SOL    HW110681   9.986   2.126  12.995
 2928SOL    HW210682  10.060   2.101  12.865
 2929SOL     OW10683   0.154  14.292   9.777
 2929SOL    HW110684   0.205  14.231   9.830
 2929SOL    HW210685   0.174  14.378   9.812
 2930SOL     OW10686   4.610  12.678  10.097
 2930SOL    HW110687   4.596  12.608  10.033
 2930SOL    HW210688   4.591  12.637  10.182
 2931SOL     OW10689   5.034   4.342  12.010
 2931SOL    HW110690   5.072   4.266  12.053
 2931SOL    HW210691   4.950   4.354  12.053
 2932SOL     OW10692  12.496   7.066  14.698
 2932SOL    HW110693  12.559   7.009  14.741
 2932SOL    HW210694  12.509   7.151  14.739
 2933SOL     OW10695   3.074   9.917   0.005
 2933SOL    HW110696   3.082   9.831   0.046
 2933SOL    HW210697   3.076   9.899  14.781
 2934SOL     OW10698   1.454   9.503   4.881
 2934SOL    HW110699   1.404   9.467   4.808
 2934SOL    HW210700   1.393   9.561   4.926
 2935SOL     OW10701  13.870   7.937  13.288
 2935SOL    HW110702  13.934   7.915  13.356
 2935SOL    HW210703  13.893   7.879  13.215
 2936SOL     OW10704  10.676   2.856   1.451
 2936SOL    HW110705  10.644   2.783   1.398
 2936SOL    HW210706  10.598   2.906   1.474
 2937SOL     OW10707   8.711   9.976   1.949
 2937SOL    HW110708   8.673  10.061   1.972
 2937SOL    HW210709   8.745   9.942   2.032
 2938SOL     OW10710  11.966   0.251   4.603
 2938SOL    HW110711  11.907   0.205   4.543
 2938SOL    HW210712  11.928   0.235   4.690
 2939SOL     OW10713   3.727  10.585   1.867
 2939SOL    HW110714   3.672  10.643   1.815
 2939SOL    HW210715   3.685  10.499   1.859
 2940SOL     OW10716   4.362  13.509   1.247
 2940SOL    HW110717   4.427  13.519   1.176
 2940SOL    HW210718   4.345  13.598   1.277
 2941SOL     OW10719   1.088  13.388  13.881
 2941SOL    HW110720   1.087  13.403  13.786
 2941SOL    HW210721   1.180  13.371  13.901
 2942SOL     OW10722   9.555  13.735   2.134
 2942SOL    HW110723   9.583  13.659   2.185
 2942SOL    HW210724   9.615  13.738   2.059
 2943SOL     OW10725  12.835   8.899  14.132
 2943SOL    HW110726  12.912   8.954  14.143
 2943SOL    HW210727  12.817   8.864  14.219
 2944SOL     OW10728   2.862   2.712  11.153
 2944SOL    HW110729   2.812   2.685  11.075
 2944SOL    HW210730   2.828   2.656  11.223
 2945SOL     OW10731   1.217   1.762   1.391
 2945SOL    HW110732   1.196   1.685   1.444
 2945SOL    HW210733   1.311   1.776   1.406
 2946SOL     OW10734   2.393  12.396   8.141
 2946SOL    HW110735   2.302  12.419   8.121
 2946SOL    HW210736   2.391  12.303   8.163
 2947SOL     OW10737   9.519  13.877   6.236
 2947SOL    HW110738   9.588  13.893   6.171
 2947SOL    HW210739   9.501  13.962   6.274
 2948SOL     OW10740   4.980   8.670  14.608
 2948SOL    HW110741   5.059   8.614  14.611
 2948SOL    HW210742   4.989   8.718  14.526
 2949SOL     OW10743   9.352   7.254   0.034
 2949SOL    HW110744   9.389   7.330  14.859
 2949SOL    HW210745   9.428   7.209   0.071
 2950SOL     OW10746   3.506  11.062   3.693
 2950SOL    HW110747   3.559  11.070   3.614
 2950SOL    HW210748   3.439  11.130   3.685
 2951SOL     OW10749  11.346   9.516   0.339
 2951SOL    HW110750  11.430   9.504   0.297
 2951SOL    HW210751  11.347   9.607   0.370
 2952SOL     OW10752   1.978  11.128   9.596
 2952SOL    HW110753   1.972  11.222   9.581
 2952SOL    HW210754   1.958  11.116   9.689
 2953SOL     OW10755   8.289   4.598   9.268
 2953SOL    HW110756   8.319   4.670   9.211
 2953SOL    HW210757   8.313   4.626   9.356
 2954SOL     OW10758   0.344   1.937  10.381
 2954SOL    HW110759   0.320   1.847  10.400
 2954SOL    HW210760   0.408   1.930  10.310
 2955SOL     OW10761   0.949  14.629  12.722
 2955SOL    HW110762   1.004  14.599  12.650
 2955SOL    HW210763   0.993  14.707  12.756
 2956SOL     OW10764  10.935   0.684   8.575
 2956SOL    HW110765  11.018   0.677   8.622
 2956SOL    HW210766  10.959   0.667   8.483
 2957SOL     OW10767  13.454   8.968  13.462
 2957SOL    HW110768  13.473   8.958  13.369
 2957SOL    HW210769  13.368   9.010  13.465
 2958SOL     OW10770  11.432   6.935   0.800
 2958SOL    HW110771  11.446   6.898   0.713
 2958SOL    HW210772  11.510   6.909   0.850
 2959SOL     OW10773   1.419   3.716   7.406
 2959SOL    HW110774   1.446   3.799   7.366
 2959SOL    HW210775   1.435   3.651   7.338
 2960SOL     OW10776   8.670   4.029   6.371
 2960SOL    HW110777   8.684   4.116   6.409
 2960SOL    HW210778   8.688   3.968   6.442
 2961SOL     OW10779   0.649   0.017  13.999
 2961SOL    HW110780   0.650  14.832  14.077
 2961SOL    HW210781   0.607   0.099  14.027
 2962SOL     OW10782   1.276  10.637   6.646
 2962SOL    HW110783   1.349  10.578   6.630
 2962SOL    HW210784   1.198  10.581   6.638
 2963SOL     OW10785   6.208   2.036   0.720
 2963SOL    HW110786   6.255   1.973   0.665
 2963SOL    HW210787   6.117   2.031   0.690
 2964SOL     OW10788  13.536   3.292   0.817
 2964SOL    HW110789  13.590   3.241   0.878
 2964SOL    HW210790  13.586   3.293   0.736
 2965SOL     OW10791  14.068  14.194  13.233
 2965SOL    HW110792  14.032  14.122  13.180
 2965SOL    HW210793  14.035  14.273  13.191
 2966SOL     OW10794  11.177  14.072  12.247
 2966SOL    HW110795  11.130  14.127  12.185
 2966SOL    HW210796  11.116  14.002  12.268
 2967SOL     OW10797  10.466  13.605   3.316
 2967SOL    HW110798  10.517  13.636   3.391
 2967SOL    HW210799  10.387  13.568   3.354
 2968SOL     OW10800  14.342  14.068   2.712
 2968SOL    HW110801  14.258  14.073   2.758
 2968SOL    HW210802  14.335  13.987   2.660
 2969SOL     OW10803   7.258   3.531  12.860
 2969SOL    HW110804   7.336   3.477  12.871
 2969SOL    HW210805   7.187   3.478  12.895
 2970SOL     OW10806   6.569  12.885   7.851
 2970SOL    HW110807   6.580  12.978   7.832
 2970SOL    HW210808   6.588  12.842   7.767
 2971SOL     OW10809   9.841   0.777   6.711
 2971SOL    HW110810   9.822   0.684   6.708
 2971SOL    HW210811   9.919   0.788   6.656
 2972SOL     OW10812   5.099  11.451   0.137
 2972SOL    HW110813   5.041  11.527   0.138
 2972SOL    HW210814   5.047  11.380   0.174
 2973SOL     OW10815   8.369   8.243  11.032
 2973SOL    HW110816   8.344   8.159  11.071
 2973SOL    HW210817   8.461   8.231  11.006
 2974SOL     OW10818  14.320   6.091   3.566
 2974SOL    HW110819  14.369   6.072   3.486
 2974SOL    HW210820  14.260   6.017   3.576
 2975SOL     OW10821   2.332   6.249   8.655
 2975SOL    HW110822   2.397   6.183   8.630
 2975SOL    HW210823   2.276   6.258   8.578
 2976SOL     OW10824  10.768   6.159   9.100
 2976SOL    HW110825  10.789   6.065   9.105
 2976SOL    HW210826  10.673   6.162   9.108
 2977SOL     OW10827  13.813  11.527   1.228
 2977SOL    HW110828  13.893  11.482   1.202
 2977SOL    HW210829  13.778  11.562   1.146
 2978SOL     OW10830  10.455  13.118  11.188
 2978SOL    HW110831  10.371  13.085  11.221
 2978SOL    HW210832  10.430  13.178  11.117
 2979SOL     OW10833  13.104   3.548   8.494
 2979SOL    HW110834  13.090   3.556   8.400
 2979SOL    HW210835  13.173   3.481   8.503
 2980SOL     OW10836   4.441   9.349  11.644
 2980SOL    HW110837   4.377   9.402  11.596
 2980SOL    HW210838   4.404   9.342  11.732
 2981SOL     OW10839   8.471  10.201   1.551
 2981SOL    HW110840   8.420  10.123   1.536
 2981SOL    HW210841   8.423  10.271   1.507
 2982SOL     OW10842   1.805  12.383   5.220
 2982SOL    HW110843   1.723  12.429   5.238
 2982SOL    HW210844   1.850  12.379   5.304
 2983SOL     OW10845  13.711  14.390   5.892
 2983SOL    HW110846  13.670  14.385   5.805
 2983SOL    HW210847  13.788  14.444   5.879
 2984SOL     OW10848   0.278   6.490   0.584
 2984SOL    HW110849   0.314   6.452   0.504
 2984SOL    HW210850   0.262   6.415   0.641
 2985SOL     OW10851  12.819  13.220   6.690
 2985SOL    HW110852  12.756  13.149   6.690
 2985SOL    HW210853  12.779  13.288   6.636
 2986SOL     OW10854   5.489   7.571   6.621
 2986SOL    HW110855   5.527   7.539   6.539
 2986SOL    HW210856   5.556   7.628   6.657
 2987SOL     OW10857   3.666  11.025   9.076
 2987SOL    HW110858   3.700  10.966   9.143
 2987SOL    HW210859   3.582  11.054   9.111
 2988SOL     OW10860  12.145  12.890   1.504
 2988SOL    HW110861  12.237  12.869   1.523
 2988SOL    HW210862  12.099  12.807   1.515
 2989SOL     OW10863   3.126  11.054   7.470
 2989SOL    HW110864   3.147  10.993   7.540
 2989SOL    HW210865   3.210  11.086   7.439
 2990SOL     OW10866   5.827   8.654   6.212
 2990SOL    HW110867   5.910   8.608   6.222
 2990SOL    HW210868   5.787   8.614   6.134
 2991SOL     OW10869   3.304   9.940   2.119
 2991SOL    HW110870   3.228   9.985   2.157
 2991SOL    HW210871   3.270   9.856   2.089
 2992SOL     OW10872   3.834   9.162  12.978
 2992SOL    HW110873   3.804   9.145  12.889
 2992SOL    HW210874   3.845   9.257  12.983
 2993SOL     OW10875   2.514   7.815   2.068
 2993SOL    HW110876   2.447   7.856   2.014
 2993SOL    HW210877   2.594   7.819   2.015
 2994SOL     OW10878   9.638  10.675  10.181
 2994SOL    HW110879   9.661  10.766  10.196
 2994SOL    HW210880   9.721  10.631  10.161
 2995SOL     OW10881  14.627  13.429   2.780
 2995SOL    HW110882  14.669  13.508   2.748
 2995SOL    HW210883  14.700  13.370   2.800
 2996SOL     OW10884  13.114  10.447   8.052
 2996SOL    HW110885  13.203  10.412   8.038
 2996SOL    HW210886  13.085  10.473   7.965
 2997SOL     OW10887   0.599   2.777   1.004
 2997SOL    HW110888   0.610   2.854   0.948
 2997SOL    HW210889   0.515   2.791   1.048
 2998SOL     OW10890  11.449  11.030   6.385
 2998SOL    HW110891  11.359  11.048   6.357
 2998SOL    HW210892  11.450  10.937   6.405
 2999SOL     OW10893   3.064  11.764   5.167
 2999SOL    HW110894   3.112  11.744   5.247
 2999SOL    HW210895   3.087  11.692   5.107
 3000SOL     OW10896   7.732  14.585  10.813
 3000SOL    HW110897   7.754  14.501  10.772
 3000SOL    HW210898   7.701  14.562  10.900
 3001SOL     OW10899  11.194   7.098   4.981
 3001SOL    HW110900  11.263   7.092   4.916
 3001SOL    HW210901  11.121   7.048   4.945
 3002SOL     OW10902  14.368   4.813  10.809
 3002SOL    HW110903  14.450   4.857  10.834
 3002SOL    HW210904  14.394   4.723  10.788
 3003SOL     OW10905   4.021   9.485   2.306
 3003SOL    HW110906   3.951   9.420   2.306
 3003SOL    HW210907   4.101   9.434   2.314
 3004SOL     OW10908   0.421  14.296   3.280
 3004SOL    HW110909   0.517  14.300   3.277
 3004SOL    HW210910   0.399  14.325   3.369
 3005SOL     OW10911   6.347   4.416   4.082
 3005SOL    HW110912   6.272   4.459   4.123
 3005SOL    HW210913   6.423   4.465   4.112
 3006SOL     OW10914   5.782   9.884  13.641
 3006SOL    HW110915   5.725   9.933  13.700
 3006SOL    HW210916   5.754   9.909  13.553
 3007SOL     OW10917  11.742   6.856   5.417
 3007SOL    HW110918  11.683   6.784   5.397
 3007SOL    HW210919  11.824   6.833   5.373
 3008SOL     OW10920   1.728  10.492  10.761
 3008SOL    HW110921   1.794  10.453  10.818
 3008SOL    HW210922   1.650  10.498  10.817
 3009SOL     OW10923   9.038  13.764   5.058
 3009SOL    HW110924   9.033  13.821   4.981
 3009SOL    HW210925   9.106  13.804   5.112
 3010SOL     OW10926   0.196  10.850   9.081
 3010SOL    HW110927   0.239  10.810   9.005
 3010SOL    HW210928   0.266  10.863   9.144
 3011SOL     OW10929   9.690   9.440   0.646
 3011SOL    HW110930   9.638   9.409   0.721
 3011SOL    HW210931   9.773   9.391   0.653
 3012SOL     OW10932   5.418  14.372   0.867
 3012SOL    HW110933   5.482  14.396   0.799
 3012SOL    HW210934   5.335  14.405   0.834
 3013SOL     OW10935  10.527  11.521  12.472
 3013SOL    HW110936  10.608  11.516  12.524
 3013SOL    HW210937  10.494  11.431  12.471
 3014SOL     OW10938  11.305   4.523  11.338
 3014SOL    HW110939  11.261   4.548  11.257
 3014SOL    HW210940  11.261   4.443  11.366
 3015SOL     OW10941  14.800  11.117  10.808
 3015SOL    HW110942  14.779  11.178  10.878
 3015SOL    HW210943   0.005  11.067  10.841
 3016SOL     OW10944   7.193  14.462  12.561
 3016SOL    HW110945   7.212  14.526  12.629
 3016SOL    HW210946   7.257  14.393  12.574
 3017SOL     OW10947  14.361  11.583   8.534
 3017SOL    HW110948  14.353  11.610   8.625
 3017SOL    HW210949  14.450  11.607   8.509
 3018SOL     OW10950   2.417   1.357  13.057
 3018SOL    HW110951   2.461   1.273  13.043
 3018SOL    HW210952   2.433   1.406  12.976
 3019SOL     OW10953   7.015   8.908   8.793
 3019SOL    HW110954   7.010   8.813   8.783
 3019SOL    HW210955   6.970   8.943   8.716
 3020SOL     OW10956   2.197   3.807   4.162
 3020SOL    HW110957   2.194   3.824   4.257
 3020SOL    HW210958   2.224   3.890   4.124
 3021SOL     OW10959   8.592  10.129   5.575
 3021SOL    HW110960   8.518  10.137   5.635
 3021SOL    HW210961   8.556  10.154   5.490
 3022SOL     OW10962   5.231   4.838   6.239
 3022SOL    HW110963   5.278   4.755   6.250
 3022SOL    HW210964   5.294   4.905   6.264
 3023SOL     OW10965   1.261   8.691   5.930
 3023SOL    HW110966   1.320   8.724   5.863
 3023SOL    HW210967   1.293   8.603   5.950
 3024SOL     OW10968  12.800   8.222   3.658
 3024SOL    HW110969  12.829   8.135   3.688
 3024SOL    HW210970  12.822   8.280   3.730
 3025SOL     OW10971   5.372   3.427   7.810
 3025SOL    HW110972   5.326   3.511   7.803
 3025SOL    HW210973   5.441   3.432   7.744
 3026SOL     OW10974  13.908   7.085   4.360
 3026SOL    HW110975  13.845   7.029   4.315
 3026SOL    HW210976  13.993   7.047   4.338
 3027SOL     OW10977   8.743   9.472   4.587
 3027SOL    HW110978   8.668   9.412   4.585
 3027SOL    HW210979   8.791   9.453   4.507
 3028SOL     OW10980  11.109  12.852   6.985
 3028SOL    HW110981  11.055  12.832   6.908
 3028SOL    HW210982  11.126  12.767   7.025
 3029SOL     OW10983   2.479  14.717   4.331
 3029SOL    HW110984   2.396  14.740   4.373
 3029SOL    HW210985   2.545  14.731   4.399
 3030SOL     OW10986   2.352   5.234  10.319
 3030SOL    HW110987   2.286   5.265  10.257
 3030SOL    HW210988   2.367   5.142  10.294
 3031SOL     OW10989   5.029   4.588  14.355
 3031SOL    HW110990   5.082   4.553  14.426
 3031SOL    HW210991   5.092   4.628  14.295
 3032SOL     OW10992   0.164  12.672  14.157
 3032SOL    HW110993   0.230  12.606  14.174
 3032SOL    HW210994   0.164  12.727  14.236
 3033SOL     OW10995  14.860  13.484   6.818
 3033SOL    HW110996  14.830  13.556   6.762
 3033SOL    HW210997  14.781  13.438   6.844
 3034SOL     OW10998  12.542   9.377   1.218
 3034SOL    HW110999  12.560   9.448   1.280
 3034SOL    HW211000  12.520   9.302   1.274
 3035SOL     OW11001   6.465  14.847   1.126
 3035SOL    HW111002   6.392  14.818   1.072
 3035SOL    HW211003   6.424   0.031   1.194
 3036SOL     OW11004   9.597   4.464   4.567
 3036SOL    HW111005   9.581   4.556   4.590
 3036SOL    HW211006   9.510   4.424   4.567
 3037SOL     OW11007   6.755  13.616  11.405
 3037SOL    HW111008   6.714  13.532  11.386
 3037SOL    HW211009   6.682  13.677  11.418
 3038SOL     OW11010   8.525  14.301   8.856
 3038SOL    HW111011   8.541  14.336   8.769
 3038SOL    HW211012   8.594  14.338   8.911
 3039SOL     OW11013   2.826   6.606   4.118
 3039SOL    HW111014   2.738   6.577   4.095
 3039SOL    HW211015   2.828   6.604   4.214
 3040SOL     OW11016   0.060   0.202   1.993
 3040SOL    HW111017   0.149   0.168   1.998
 3040SOL    HW211018   0.016   0.147   1.928
 3041SOL     OW11019   7.569   4.690   8.856
 3041SOL    HW111020   7.653   4.696   8.809
 3041SOL    HW211021   7.554   4.778   8.889
 3042SOL     OW11022  10.136   1.221  12.369
 3042SOL    HW111023  10.140   1.139  12.419
 3042SOL    HW211024  10.227   1.239  12.346
 3043SOL     OW11025   0.975   5.818   9.225
 3043SOL    HW111026   0.965   5.728   9.255
 3043SOL    HW211027   0.892   5.838   9.181
 3044SOL     OW11028   2.122   5.287   5.971
 3044SOL    HW111029   2.029   5.265   5.965
 3044SOL    HW211030   2.162   5.249   5.893
 3045SOL     OW11031  14.435  10.490   1.655
 3045SOL    HW111032  14.368  10.554   1.629
 3045SOL    HW211033  14.442  10.499   1.749
 3046SOL     OW11034   3.430  12.097   7.767
 3046SOL    HW111035   3.492  12.083   7.838
 3046SOL    HW211036   3.344  12.092   7.808
 3047SOL     OW11037   0.904   4.870   2.086
 3047SOL    HW111038   0.878   4.791   2.039
 3047SOL    HW211039   0.844   4.875   2.160
 3048SOL     OW11040  11.304  14.664   2.612
 3048SOL    HW111041  11.265  14.664   2.525
 3048SOL    HW211042  11.246  14.610   2.665
 3049SOL     OW11043  12.989   9.769   4.125
 3049SOL    HW111044  13.014   9.810   4.207
 3049SOL    HW211045  13.018   9.678   4.133
 3050SOL     OW11046   4.689   7.704   8.960
 3050SOL    HW111047   4.677   7.619   8.919
 3050SOL    HW211048   4.684   7.686   9.054
 3051SOL     OW11049   2.979  14.035   5.263
 3051SOL    HW111050   3.054  14.041   5.205
 3051SOL    HW211051   2.939  13.950   5.242
 3052SOL     OW11052  11.897  10.437  14.161
 3052SOL    HW111053  11.964  10.460  14.096
 3052SOL    HW211054  11.818  10.480  14.129
 3053SOL     OW11055   8.891   0.912   0.699
 3053SOL    HW111056   8.800   0.927   0.672
 3053SOL    HW211057   8.902   0.817   0.689
 3054SOL     OW11058  14.678   0.038  12.640
 3054SOL    HW111059  14.653  14.835  12.697
 3054SOL    HW211060  14.712   0.105  12.700
 3055SOL     OW11061   2.539   7.479   6.329
 3055SOL    HW111062   2.612   7.524   6.371
 3055SOL    HW211063   2.576   7.394   6.303
 3056SOL     OW11064   8.690   7.933   5.347
 3056SOL    HW111065   8.696   7.842   5.318
 3056SOL    HW211066   8.778   7.968   5.336
 3057SOL     OW11067   9.870  11.463   9.108
 3057SOL    HW111068   9.896  11.465   9.200
 3057SOL    HW211069   9.868  11.554   9.081
 3058SOL     OW11070   0.242   3.840  13.574
 3058SOL    HW111071   0.308   3.774  13.551
 3058SOL    HW211072   0.190   3.798  13.643
 3059SOL     OW11073  14.270   0.351   5.139
 3059SOL    HW111074  14.229   0.265   5.128
 3059SOL    HW211075  14.265   0.392   5.053
 3060SOL     OW11076   2.177   0.211   3.173
 3060SOL    HW111077   2.134   0.296   3.165
 3060SOL    HW211078   2.112   0.156   3.217
 3061SOL     OW11079  12.026   4.832   2.178
 3061SOL    HW111080  12.089   4.832   2.107
 3061SOL    HW211081  12.063   4.892   2.243
 3062SOL     OW11082   8.308   9.752  14.865
 3062SOL    HW111083   8.279   9.779  14.778
 3062SOL    HW211084   8.297   9.830   0.049
 3063SOL     OW11085   9.889   6.018   8.538
 3063SOL    HW111086   9.892   5.931   8.497
 3063SOL    HW211087   9.821   6.065   8.490
 3064SOL     OW11088   2.744   8.230  11.015
 3064SOL    HW111089   2.799   8.186  11.081
 3064SOL    HW211090   2.806   8.279  10.961
 3065SOL     OW11091   5.347   5.890   7.072
 3065SOL    HW111092   5.269   5.904   7.019
 3065SOL    HW211093   5.335   5.947   7.148
 3066SOL     OW11094   4.837   7.205   5.127
 3066SOL    HW111095   4.889   7.252   5.192
 3066SOL    HW211096   4.813   7.272   5.063
 3067SOL     OW11097  10.491   8.635   4.313
 3067SOL    HW111098  10.437   8.679   4.379
 3067SOL    HW211099  10.459   8.545   4.310
 3068SOL     OW11100   7.100  10.730  13.935
 3068SOL    HW111101   7.151  10.700  13.860
 3068SOL    HW211102   7.011  10.702  13.917
 3069SOL     OW11103   2.274   7.920  10.735
 3069SOL    HW111104   2.318   7.875  10.663
 3069SOL    HW211105   2.223   7.852  10.779
 3070SOL     OW11106   4.329   3.334   4.774
 3070SOL    HW111107   4.281   3.261   4.814
 3070SOL    HW211108   4.353   3.390   4.848
 3071SOL     OW11109   8.453   1.432   4.344
 3071SOL    HW111110   8.456   1.344   4.307
 3071SOL    HW211111   8.482   1.490   4.274
 3072SOL     OW11112   7.395  11.699   9.164
 3072SOL    HW111113   7.423  11.685   9.074
 3072SOL    HW211114   7.316  11.646   9.174
 3073SOL     OW11115   2.772   8.006   1.275
 3073SOL    HW111116   2.858   8.003   1.317
 3073SOL    HW211117   2.737   8.092   1.299
 3074SOL     OW11118   2.530  14.648   8.707
 3074SOL    HW111119   2.454  14.658   8.649
 3074SOL    HW211120   2.506  14.578   8.767
 3075SOL     OW11121  11.146   0.100   0.424
 3075SOL    HW111122  11.156   0.195   0.421
 3075SOL    HW211123  11.082   0.079   0.356
 3076SOL     OW11124  14.339  14.295   6.730
 3076SOL    HW111125  14.281  14.351   6.679
 3076SOL    HW211126  14.296  14.286   6.815
 3077SOL     OW11127   2.998   8.034   0.667
 3077SOL    HW111128   2.929   8.051   0.603
 3077SOL    HW211129   2.953   7.997   0.743
 3078SOL     OW11130  14.769   5.622   5.189
 3078SOL    HW111131  14.789   5.588   5.102
 3078SOL    HW211132  14.814   5.563   5.249
 3079SOL     OW11133  11.210   0.884  13.660
 3079SOL    HW111134  11.259   0.900  13.579
 3079SOL    HW211135  11.118   0.894  13.635
 3080SOL     OW11136   0.434   1.386  10.914
 3080SOL    HW111137   0.435   1.292  10.895
 3080SOL    HW211138   0.386   1.425  10.840
 3081SOL     OW11139   2.398   7.762   9.285
 3081SOL    HW111140   2.336   7.833   9.307
 3081SOL    HW211141   2.427   7.783   9.196
 3082SOL     OW11142   1.075   6.492   0.419
 3082SOL    HW111143   1.042   6.580   0.401
 3082SOL    HW211144   1.054   6.441   0.340
 3083SOL     OW11145   7.823   1.962  11.741
 3083SOL    HW111146   7.912   1.976  11.773
 3083SOL    HW211147   7.826   1.875  11.701
 3084SOL     OW11148   8.741  13.396   2.067
 3084SOL    HW111149   8.660  13.437   2.099
 3084SOL    HW211150   8.723  13.377   1.974
 3085SOL     OW11151   4.969  11.456   6.923
 3085SOL    HW111152   5.043  11.395   6.921
 3085SOL    HW211153   4.899  11.410   6.875
 3086SOL     OW11154   5.771   1.089   9.724
 3086SOL    HW111155   5.805   1.130   9.804
 3086SOL    HW211156   5.774   0.995   9.743
 3087SOL     OW11157   1.938   9.713   7.063
 3087SOL    HW111158   1.955   9.628   7.023
 3087SOL    HW211159   1.889   9.693   7.143
 3088SOL     OW11160   8.158   8.150   8.834
 3088SOL    HW111161   8.125   8.105   8.756
 3088SOL    HW211162   8.091   8.215   8.855
 3089SOL     OW11163   3.781  13.878   3.091
 3089SOL    HW111164   3.768  13.883   2.996
 3089SOL    HW211165   3.743  13.793   3.115
 3090SOL     OW11166   0.880   7.673  13.531
 3090SOL    HW111167   0.923   7.724  13.600
 3090SOL    HW211168   0.851   7.738  13.468
 3091SOL     OW11169   7.508   7.746   3.130
 3091SOL    HW111170   7.506   7.813   3.062
 3091SOL    HW211171   7.429   7.695   3.115
 3092SOL     OW11172   7.230   1.338  10.359
 3092SOL    HW111173   7.306   1.290  10.392
 3092SOL    HW211174   7.172   1.345  10.435
 3093SOL     OW11175  14.535   5.651  12.290
 3093SOL    HW111176  14.584   5.624  12.368
 3093SOL    HW211177  14.562   5.589  12.222
 3094SOL     OW11178  10.835  12.590  11.338
 3094SOL    HW111179  10.760  12.584  11.398
 3094SOL    HW211180  10.855  12.684  11.336
 3095SOL     OW11181  11.599   9.879   1.173
 3095SOL    HW111182  11.566   9.861   1.261
 3095SOL    HW211183  11.530   9.848   1.114
 3096SOL     OW11184  14.327   1.300   0.067
 3096SOL    HW111185  14.414   1.282   0.103
 3096SOL    HW211186  14.301   1.382   0.107
 3097SOL     OW11187   0.383  11.324  13.265
 3097SOL    HW111188   0.326  11.257  13.303
 3097SOL    HW211189   0.455  11.331  13.327
 3098SOL     OW11190   6.000   9.717  11.836
 3098SOL    HW111191   5.923   9.682  11.881
 3098SOL    HW211192   5.966   9.749  11.752
 3099SOL     OW11193   7.601  13.955   8.567
 3099SOL    HW111194   7.553  13.874   8.549
 3099SOL    HW211195   7.547  14.024   8.528
 3100SOL     OW11196  13.710   9.283   2.721
 3100SOL    HW111197  13.706   9.251   2.631
 3100SOL    HW211198  13.639   9.347   2.726
 3101SOL     OW11199   8.101   0.308  11.189
 3101SOL    HW111200   8.129   0.393  11.156
 3101SOL    HW211201   8.008   0.319  11.207
 3102SOL     OW11202   2.681   1.290  11.700
 3102SOL    HW111203   2.708   1.272  11.790
 3102SOL    HW211204   2.698   1.384  11.689
 3103SOL     OW11205   7.867  11.256   9.895
 3103SOL    HW111206   7.952  11.213   9.889
 3103SOL    HW211207   7.811  11.205   9.836
 3104SOL     OW11208   8.495   7.310   2.794
 3104SOL    HW111209   8.519   7.218   2.784
 3104SOL    HW211210   8.568   7.350   2.840
 3105SOL     OW11211  14.301   4.739   3.118
 3105SOL    HW111212  14.284   4.742   3.024
 3105SOL    HW211213  14.289   4.647   3.141
 3106SOL     OW11214  14.374   3.532   8.169
 3106SOL    HW111215  14.429   3.610   8.161
 3106SOL    HW211216  14.285   3.565   8.168
 3107SOL     OW11217   0.100  10.157   5.594
 3107SOL    HW111218   0.080  10.249   5.582
 3107SOL    HW211219   0.112  10.147   5.688
 3108SOL     OW11220   1.100   1.063   0.894
 3108SOL    HW111221   1.033   1.113   0.845
 3108SOL    HW211222   1.061   0.976   0.905
 3109SOL     OW11223   5.410   7.183   0.209
 3109SOL    HW111224   5.404   7.112   0.273
 3109SOL    HW211225   5.325   7.228   0.216
 3110SOL     OW11226   9.382   4.241  14.303
 3110SOL    HW111227   9.344   4.294  14.373
 3110SOL    HW211228   9.313   4.178  14.281
 3111SOL     OW11229   5.845  14.859   4.162
 3111SOL    HW111230   5.761  14.864   4.116
 3111SOL    HW211231   5.901  14.809   4.103
 3112SOL     OW11232   3.690   4.765  12.837
 3112SOL    HW111233   3.598   4.790  12.842
 3112SOL    HW211234   3.736   4.828  12.892
 3113SOL     OW11235   4.440  13.500  11.667
 3113SOL    HW111236   4.421  13.431  11.731
 3113SOL    HW211237   4.358  13.549  11.659
 3114SOL     OW11238  10.212   5.768   2.606
 3114SOL    HW111239  10.194   5.717   2.527
 3114SOL    HW211240  10.126   5.781   2.646
 3115SOL     OW11241   8.966   3.192  10.255
 3115SOL    HW111242   8.995   3.146  10.176
 3115SOL    HW211243   8.873   3.172  10.261
 3116SOL     OW11244  11.476  12.696   9.438
 3116SOL    HW111245  11.537  12.678   9.366
 3116SOL    HW211246  11.397  12.728   9.395
 3117SOL     OW11247   5.676   7.280   3.798
 3117SOL    HW111248   5.664   7.353   3.737
 3117SOL    HW211249   5.661   7.318   3.884
 3118SOL     OW11250  11.404   5.812   7.168
 3118SOL    HW111251  11.488   5.773   7.192
 3118SOL    HW211252  11.394   5.793   7.075
 3119SOL     OW11253   6.513  11.792   2.076
 3119SOL    HW111254   6.550  11.834   1.999
 3119SOL    HW211255   6.423  11.770   2.051
 3120SOL     OW11256   5.507   0.877  14.582
 3120SOL    HW111257   5.529   0.970  14.581
 3120SOL    HW211258   5.585   0.834  14.617
 3121SOL     OW11259   6.026  12.875   7.119
 3121SOL    HW111260   6.028  12.890   7.213
 3121SOL    HW211261   5.935  12.887   7.094
 3122SOL     OW11262   8.250  13.888  11.516
 3122SOL    HW111263   8.219  13.883  11.425
 3122SOL    HW211264   8.340  13.855  11.512
 3123SOL     OW11265   4.110  14.036   2.364
 3123SOL    HW111266   4.088  13.946   2.385
 3123SOL    HW211267   4.187  14.030   2.307
 3124SOL     OW11268  14.850  13.962   8.396
 3124SOL    HW111269   0.065  13.939   8.358
 3124SOL    HW211270  14.852  14.058   8.403
 3125SOL     OW11271   0.192   0.843   4.047
 3125SOL    HW111272   0.204   0.749   4.059
 3125SOL    HW211273   0.277   0.875   4.017
 3126SOL     OW11274   2.144   6.594   7.941
 3126SOL    HW111275   2.053   6.594   7.972
 3126SOL    HW211276   2.146   6.528   7.872
 3127SOL     OW11277  10.071   6.265  11.043
 3127SOL    HW111278  10.020   6.333  11.088
 3127SOL    HW211279  10.063   6.188  11.099
 3128SOL     OW11280   8.954   4.118   1.133
 3128SOL    HW111281   8.912   4.194   1.094
 3128SOL    HW211282   9.012   4.155   1.200
 3129SOL     OW11283   0.160   7.479   9.044
 3129SOL    HW111284   0.180   7.491   8.952
 3129SOL    HW211285   0.194   7.557   9.088
 3130SOL     OW11286   2.459   2.700   1.476
 3130SOL    HW111287   2.482   2.784   1.436
 3130SOL    HW211288   2.515   2.636   1.431
 3131SOL     OW11289   2.315   9.004   9.607
 3131SOL    HW111290   2.380   8.954   9.557
 3131SOL    HW211291   2.249   8.939   9.631
 3132SOL     OW11292   6.079   6.714   3.958
 3132SOL    HW111293   6.140   6.737   4.029
 3132SOL    HW211294   6.000   6.685   4.003
 3133SOL     OW11295   6.890   0.286   2.378
 3133SOL    HW111296   6.925   0.370   2.407
 3133SOL    HW211297   6.958   0.222   2.400
 3134SOL     OW11298  14.625   5.465  12.132
 3134SOL    HW111299  14.676   5.484  12.053
 3134SOL    HW211300  14.589   5.377  12.117
 3135SOL     OW11301   8.368   5.404  10.587
 3135SOL    HW111302   8.443   5.345  10.594
 3135SOL    HW211303   8.295   5.356  10.624
 3136SOL     OW11304   7.524   7.161   2.253
 3136SOL    HW111305   7.458   7.218   2.292
 3136SOL    HW211306   7.607   7.206   2.269
 3137SOL     OW11307  10.094   4.523   9.888
 3137SOL    HW111308  10.126   4.452   9.944
 3137SOL    HW211309  10.160   4.532   9.819
 3138SOL     OW11310  12.532  14.440  12.895
 3138SOL    HW111311  12.550  14.424  12.803
 3138SOL    HW211312  12.544  14.534  12.906
 3139SOL     OW11313   2.526  12.849   1.376
 3139SOL    HW111314   2.464  12.778   1.358
 3139SOL    HW211315   2.472  12.928   1.372
 3140SOL     OW11316   6.134   6.643  13.331
 3140SOL    HW111317   6.042   6.664  13.350
 3140SOL    HW211318   6.134   6.550  13.310
 3141SOL     OW11319   5.709   6.087   5.883
 3141SOL    HW111320   5.640   6.095   5.817
 3141SOL    HW211321   5.754   6.005   5.861
 3142SOL     OW11322   1.711   8.311  13.074
 3142SOL    HW111323   1.734   8.283  12.986
 3142SOL    HW211324   1.773   8.265  13.131
 3143SOL     OW11325   5.577  10.866   2.427
 3143SOL    HW111326   5.594  10.871   2.521
 3143SOL    HW211327   5.616  10.782   2.401
 3144SOL     OW11328   0.837   7.459  10.979
 3144SOL    HW111329   0.819   7.551  11.000
 3144SOL    HW211330   0.933   7.456  10.969
 3145SOL     OW11331   5.822   2.912   7.089
 3145SOL    HW111332   5.842   2.999   7.053
 3145SOL    HW211333   5.727   2.906   7.083
 3146SOL     OW11334  12.637   0.800  11.900
 3146SOL    HW111335  12.562   0.842  11.941
 3146SOL    HW211336  12.712   0.852  11.930
 3147SOL     OW11337   1.774   3.277  11.944
 3147SOL    HW111338   1.855   3.250  11.987
 3147SOL    HW211339   1.724   3.321  12.013
 3148SOL     OW11340   7.966  13.026   5.816
 3148SOL    HW111341   7.930  13.068   5.737
 3148SOL    HW211342   7.979  12.935   5.790
 3149SOL     OW11343  10.845   2.654   3.759
 3149SOL    HW111344  10.902   2.730   3.753
 3149SOL    HW211345  10.804   2.647   3.673
 3150SOL     OW11346  13.030   4.758  10.105
 3150SOL    HW111347  13.094   4.751  10.035
 3150SOL    HW211348  12.946   4.738  10.063
 3151SOL     OW11349   6.106   5.304  12.431
 3151SOL    HW111350   6.105   5.354  12.348
 3151SOL    HW211351   6.159   5.358  12.490
 3152SOL     OW11352   1.411   7.595  12.344
 3152SOL    HW111353   1.498   7.627  12.368
 3152SOL    HW211354   1.354   7.625  12.415
 3153SOL     OW11355   3.818   4.270   8.227
 3153SOL    HW111356   3.757   4.213   8.180
 3153SOL    HW211357   3.807   4.248   8.319
 3154SOL     OW11358   2.301   7.800   0.900
 3154SOL    HW111359   2.330   7.887   0.872
 3154SOL    HW211360   2.382   7.751   0.913
 3155SOL     OW11361   9.874   3.642  10.522
 3155SOL    HW111362   9.830   3.685  10.596
 3155SOL    HW211363   9.822   3.563  10.506
 3156SOL     OW11364  13.760  14.188  12.377
 3156SOL    HW111365  13.739  14.276  12.348
 3156SOL    HW211366  13.737  14.132  12.303
 3157SOL     OW11367   7.532   9.136   6.447
 3157SOL    HW111368   7.511   9.141   6.354
 3157SOL    HW211369   7.573   9.050   6.457
 3158SOL     OW11370  10.080   0.063  13.374
 3158SOL    HW111371  10.029   0.143  13.368
 3158SOL    HW211372  10.033   0.000  13.319
 3159SOL     OW11373  14.401  13.728  13.947
 3159SOL    HW111374  14.347  13.718  14.025
 3159SOL    HW211375  14.341  13.714  13.874
 3160SOL     OW11376  14.823  12.208   8.463
 3160SOL    HW111377   0.024  12.219   8.525
 3160SOL    HW211378  14.840  12.124   8.421
 3161SOL     OW11379  12.400  13.530  10.284
 3161SOL    HW111380  12.420  13.445  10.245
 3161SOL    HW211381  12.374  13.584  10.210
 3162SOL     OW11382   8.880  13.118  11.493
 3162SOL    HW111383   8.938  13.043  11.501
 3162SOL    HW211384   8.939  13.192  11.479
 3163SOL     OW11385  14.053   1.263   4.871
 3163SOL    HW111386  14.131   1.310   4.900
 3163SOL    HW211387  14.042   1.288   4.779
 3164SOL     OW11388   3.181  12.689   6.924
 3164SOL    HW111389   3.149  12.761   6.979
 3164SOL    HW211390   3.188  12.615   6.984
 3165SOL     OW11391  14.753   5.143   3.920
 3165SOL    HW111392  14.752   5.129   3.825
 3165SOL    HW211393  14.834   5.101   3.949
 3166SOL     OW11394   7.940   1.848   4.056
 3166SOL    HW111395   7.950   1.768   4.005
 3166SOL    HW211396   7.949   1.819   4.147
 3167SOL     OW11397  10.616   7.707   5.827
 3167SOL    HW111398  10.636   7.730   5.737
 3167SOL    HW211399  10.608   7.612   5.827
 3168SOL     OW11400   4.917   0.229   5.479
 3168SOL    HW111401   4.922   0.289   5.405
 3168SOL    HW211402   4.824   0.227   5.501
 3169SOL     OW11403  11.863  12.970   7.390
 3169SOL    HW111404  11.800  13.039   7.370
 3169SOL    HW211405  11.844  12.945   7.480
 3170SOL     OW11406   6.504   7.860   8.253
 3170SOL    HW111407   6.516   7.954   8.241
 3170SOL    HW211408   6.527   7.822   8.168
 3171SOL     OW11409   2.337   6.535   1.566
 3171SOL    HW111410   2.344   6.440   1.558
 3171SOL    HW211411   2.314   6.550   1.658
 3172SOL     OW11412  14.565   3.492   7.949
 3172SOL    HW111413  14.495   3.470   8.011
 3172SOL    HW211414  14.645   3.489   8.002
 3173SOL     OW11415   8.423   9.653   6.813
 3173SOL    HW111416   8.467   9.647   6.898
 3173SOL    HW211417   8.337   9.690   6.834
 3174SOL     OW11418  10.837   7.004  13.369
 3174SOL    HW111419  10.854   7.037  13.281
 3174SOL    HW211420  10.813   7.081  13.420
 3175SOL     OW11421  13.946  12.822  13.630
 3175SOL    HW111422  13.858  12.849  13.655
 3175SOL    HW211423  13.971  12.883  13.561
 3176SOL     OW11424  10.719  14.522  12.163
 3176SOL    HW111425  10.719  14.606  12.118
 3176SOL    HW211426  10.659  14.467  12.112
 3177SOL     OW11427  12.881   0.089   8.027
 3177SOL    HW111428  12.817   0.159   8.012
 3177SOL    HW211429  12.917   0.071   7.941
 3178SOL     OW11430   3.416  11.319  13.576
 3178SOL    HW111431   3.493  11.368  13.548
 3178SOL    HW211432   3.372  11.295  13.494
 3179SOL     OW11433   1.965  10.060  14.247
 3179SOL    HW111434   2.051  10.040  14.284
 3179SOL    HW211435   1.984  10.106  14.165
 3180SOL     OW11436  13.903   4.495   5.273
 3180SOL    HW111437  13.809   4.513   5.275
 3180SOL    HW211438  13.924   4.466   5.362
 3181SOL     OW11439   4.111   6.159   8.852
 3181SOL    HW111440   4.202   6.138   8.831
 3181SOL    HW211441   4.117   6.218   8.927
 3182SOL     OW11442  10.435  12.751  14.350
 3182SOL    HW111443  10.512  12.806  14.365
 3182SOL    HW211444  10.388  12.751  14.433
 3183SOL     OW11445   0.711   4.333  10.624
 3183SOL    HW111446   0.622   4.356  10.598
 3183SOL    HW211447   0.760   4.415  10.615
 3184SOL     OW11448  14.394   5.105   4.798
 3184SOL    HW111449  14.483   5.130   4.772
 3184SOL    HW211450  14.393   5.114   4.893
 3185SOL     OW11451  10.175   8.723   5.230
 3185SOL    HW111452  10.233   8.769   5.169
 3185SOL    HW211453  10.189   8.765   5.314
 3186SOL     OW11454   8.738   0.583   8.826
 3186SOL    HW111455   8.699   0.670   8.832
 3186SOL    HW211456   8.832   0.598   8.822
 3187SOL     OW11457   0.896   5.674  13.779
 3187SOL    HW111458   0.806   5.655  13.752
 3187SOL    HW211459   0.941   5.697  13.697
 3188SOL     OW11460   3.412   3.872   1.879
 3188SOL    HW111461   3.341   3.889   1.818
 3188SOL    HW211462   3.369   3.864   1.964
 3189SOL     OW11463   9.322   2.466   2.136
 3189SOL    HW111464   9.284   2.489   2.052
 3189SOL    HW211465   9.247   2.456   2.194
 3190SOL     OW11466   8.873   2.931   1.378
 3190SOL    HW111467   8.887   2.924   1.284
 3190SOL    HW211468   8.907   2.849   1.414
 3191SOL     OW11469   1.995   5.025   5.000
 3191SOL    HW111470   1.973   4.975   4.921
 3191SOL    HW211471   1.939   5.102   4.996
 3192SOL     OW11472   6.127   4.521  13.162
 3192SOL    HW111473   6.150   4.430  13.180
 3192SOL    HW211474   6.179   4.544  13.085
 3193SOL     OW11475   6.559   1.514   6.357
 3193SOL    HW111476   6.496   1.574   6.396
 3193SOL    HW211477   6.594   1.464   6.430
 3194SOL     OW11478  12.634   4.279   4.783
 3194SOL    HW111479  12.613   4.339   4.854
 3194SOL    HW211480  12.729   4.268   4.789
 3195SOL     OW11481   9.322  13.765  13.239
 3195SOL    HW111482   9.236  13.726  13.223
 3195SOL    HW211483   9.366  13.763  13.153
 3196SOL     OW11484  14.358   5.187   7.988
 3196SOL    HW111485  14.348   5.094   8.010
 3196SOL    HW211486  14.443   5.211   8.024
 3197SOL     OW11487   5.262   1.419   8.550
 3197SOL    HW111488   5.251   1.510   8.577
 3197SOL    HW211489   5.342   1.390   8.594
 3198SOL     OW11490   3.534   7.478  14.731
 3198SOL    HW111491   3.480   7.444  14.660
 3198SOL    HW211492   3.583   7.402  14.762
 3199SOL     OW11493   4.404  14.744  12.845
 3199SOL    HW111494   4.403  14.796  12.765
 3199SOL    HW211495   4.448  14.663  12.820
 3200SOL     OW11496   7.811  12.732   8.157
 3200SOL    HW111497   7.861  12.652   8.142
 3200SOL    HW211498   7.858  12.800   8.109
 3201SOL     OW11499   4.395   2.086   1.680
 3201SOL    HW111500   4.459   2.015   1.684
 3201SOL    HW211501   4.399   2.117   1.590
 3202SOL     OW11502   8.289   7.301   4.373
 3202SOL    HW111503   8.293   7.211   4.404
 3202SOL    HW211504   8.381   7.328   4.366
 3203SOL     OW11505   6.685   1.972   2.403
 3203SOL    HW111506   6.650   1.979   2.314
 3203SOL    HW211507   6.613   1.999   2.459
 3204SOL     OW11508  10.295  10.493   5.268
 3204SOL    HW111509  10.351  10.552   5.317
 3204SOL    HW211510  10.330  10.495   5.179
 3205SOL     OW11511  11.384   4.244   9.228
 3205SOL    HW111512  11.332   4.313   9.186
 3205SOL    HW211513  11.472   4.280   9.234
 3206SOL     OW11514   5.903   4.424   5.323
 3206SOL    HW111515   5.905   4.513   5.287
 3206SOL    HW211516   5.981   4.382   5.287
 3207SOL     OW11517  13.234  13.305   6.862
 3207SOL    HW111518  13.323  13.283   6.834
 3207SOL    HW211519  13.185  13.316   6.781
 3208SOL     OW11520   0.531   2.918  13.628
 3208SOL    HW111521   0.519   2.828  13.599
 3208SOL    HW211522   0.497   2.920  13.717
 3209SOL     OW11523   7.526  13.431   8.042
 3209SOL    HW111524   7.551  13.391   8.125
 3209SOL    HW211525   7.609  13.464   8.006
 3210SOL     OW11526   8.266  10.299   4.195
 3210SOL    HW111527   8.360  10.297   4.176
 3210SOL    HW211528   8.232  10.369   4.139
 3211SOL     OW11529   4.475   4.956   0.153
 3211SOL    HW111530   4.531   4.951   0.076
 3211SOL    HW211531   4.431   4.871   0.156
 3212SOL     OW11532   2.414   0.886   3.066
 3212SOL    HW111533   2.427   0.846   3.152
 3212SOL    HW211534   2.502   0.895   3.030
 3213SOL     OW11535   6.590   0.608   3.965
 3213SOL    HW111536   6.664   0.568   4.009
 3213SOL    HW211537   6.595   0.576   3.875
 3214SOL     OW11538   2.556   4.192  11.605
 3214SOL    HW111539   2.557   4.101  11.575
 3214SOL    HW211540   2.607   4.190  11.686
 3215SOL     OW11541  14.614   8.372   9.407
 3215SOL    HW111542  14.527   8.380   9.368
 3215SOL    HW211543  14.616   8.441   9.474
 3216SOL     OW11544   2.594   6.731   6.837
 3216SOL    HW111545   2.527   6.789   6.800
 3216SOL    HW211546   2.634   6.689   6.761
 3217SOL     OW11547   2.967   9.531   7.039
 3217SOL    HW111548   2.973   9.626   7.051
 3217SOL    HW211549   2.876   9.510   7.059
 3218SOL     OW11550   8.663   9.607   6.488
 3218SOL    HW111551   8.680   9.701   6.481
 3218SOL    HW211552   8.569   9.601   6.508
 3219SOL     OW11553   0.035   5.444   8.509
 3219SOL    HW111554   0.029   5.526   8.460
 3219SOL    HW211555  14.828   5.394   8.481
 3220SOL     OW11556   8.905   3.405   1.014
 3220SOL    HW111557   8.881   3.330   0.960
 3220SOL    HW211558   8.932   3.368   1.098
 3221SOL     OW11559   1.268   1.348  13.767
 3221SOL    HW111560   1.252   1.334  13.674
 3221SOL    HW211561   1.298   1.439  13.772
 3222SOL     OW11562   0.840  10.325  12.709
 3222SOL    HW111563   0.867  10.408  12.750
 3222SOL    HW211564   0.813  10.350  12.621
 3223SOL     OW11565  10.870   1.153   2.792
 3223SOL    HW111566  10.918   1.079   2.829
 3223SOL    HW211567  10.939   1.214   2.765
 3224SOL     OW11568   4.313   1.105  14.600
 3224SOL    HW111569   4.306   1.185  14.652
 3224SOL    HW211570   4.336   1.135  14.513
 3225SOL     OW11571   2.946   2.739   1.068
 3225SOL    HW111572   2.969   2.682   1.141
 3225SOL    HW211573   2.851   2.726   1.056
 3226SOL     OW11574   1.717   4.926   9.386
 3226SOL    HW111575   1.784   4.962   9.328
 3226SOL    HW211576   1.738   4.833   9.392
 3227SOL     OW11577   0.460   4.050  13.015
 3227SOL    HW111578   0.375   4.093  13.022
 3227SOL    HW211579   0.458   4.007  12.929
 3228SOL     OW11580  10.271   2.953   8.738
 3228SOL    HW111581  10.251   2.862   8.756
 3228SOL    HW211582  10.367   2.957   8.739
 3229SOL     OW11583   5.891   9.135   3.693
 3229SOL    HW111584   5.906   9.042   3.713
 3229SOL    HW211585   5.888   9.178   3.778
 3230SOL     OW11586   2.879   6.302   7.982
 3230SOL    HW111587   2.953   6.311   7.922
 3230SOL    HW211588   2.841   6.218   7.959
 3231SOL     OW11589   4.474  14.333   1.589
 3231SOL    HW111590   4.454  14.312   1.680
 3231SOL    HW211591   4.423  14.270   1.538
 3232SOL     OW11592   0.301  12.808   2.959
 3232SOL    HW111593   0.274  12.720   2.985
 3232SOL    HW211594   0.241  12.832   2.888
 3233SOL     OW11595   4.230   9.891  11.449
 3233SOL    HW111596   4.136   9.890  11.467
 3233SOL    HW211597   4.236   9.869  11.356
 3234SOL     OW11598   6.149   8.422  10.499
 3234SOL    HW111599   6.242   8.414  10.478
 3234SOL    HW211600   6.104   8.371  10.431
 3235SOL     OW11601  14.571   5.076   6.817
 3235SOL    HW111602  14.661   5.049   6.834
 3235SOL    HW211603  14.574   5.116   6.730
 3236SOL     OW11604   0.378  10.425   6.851
 3236SOL    HW111605   0.356  10.517   6.841
 3236SOL    HW211606   0.436  10.406   6.777
 3237SOL     OW11607   3.569  11.624   9.643
 3237SOL    HW111608   3.541  11.645   9.733
 3237SOL    HW211609   3.635  11.690   9.622
 3238SOL     OW11610  10.091  12.540  12.667
 3238SOL    HW111611  10.080  12.451  12.634
 3238SOL    HW211612  10.048  12.596  12.603
 3239SOL     OW11613  13.857   5.097  12.163
 3239SOL    HW111614  13.909   5.047  12.226
 3239SOL    HW211615  13.920   5.126  12.097
 3240SOL     OW11616  12.301   2.414  11.982
 3240SOL    HW111617  12.261   2.327  11.977
 3240SOL    HW211618  12.257   2.464  11.914
 3241SOL     OW11619   0.050   9.589   6.841
 3241SOL    HW111620   0.042   9.649   6.915
 3241SOL    HW211621  14.852   9.617   6.780
 3242SOL     OW11622  11.102   1.091   9.486
 3242SOL    HW111623  11.089   1.172   9.534
 3242SOL    HW211624  11.121   1.118   9.396
 3243SOL     OW11625   3.619   3.810   4.633
 3243SOL    HW111626   3.568   3.761   4.568
 3243SOL    HW211627   3.618   3.900   4.601
 3244SOL     OW11628  14.359   8.960   8.271
 3244SOL    HW111629  14.319   9.033   8.223
 3244SOL    HW211630  14.318   8.963   8.358
 3245SOL     OW11631   8.120   9.291   1.649
 3245SOL    HW111632   8.147   9.277   1.558
 3245SOL    HW211633   8.171   9.366   1.678
 3246SOL     OW11634  12.648   7.514   2.853
 3246SOL    HW111635  12.595   7.582   2.893
 3246SOL    HW211636  12.732   7.517   2.900
 3247SOL     OW11637   6.374   0.786   5.326
 3247SOL    HW111638   6.413   0.774   5.239
 3247SOL    HW211639   6.448   0.789   5.386
 3248SOL     OW11640  14.418  12.041   2.295
 3248SOL    HW111641  14.468  12.030   2.214
 3248SOL    HW211642  14.390  11.952   2.317
 3249SOL     OW11643   5.540   6.725   8.269
 3249SOL    HW111644   5.456   6.737   8.315
 3249SOL    HW211645   5.589   6.666   8.325
 3250SOL     OW11646   3.212   0.085   8.613
 3250SOL    HW111647   3.156   0.158   8.641
 3250SOL    HW211648   3.165   0.007   8.643
 3251SOL     OW11649  11.677   2.883  11.403
 3251SOL    HW111650  11.738   2.957  11.406
 3251SOL    HW211651  11.715   2.824  11.338
 3252SOL     OW11652  13.513   0.521  14.305
 3252SOL    HW111653  13.592   0.529  14.358
 3252SOL    HW211654  13.530   0.445  14.248
 3253SOL     OW11655   3.752  13.702   5.366
 3253SOL    HW111656   3.662  13.673   5.384
 3253SOL    HW211657   3.753  13.717   5.272
 3254SOL     OW11658   4.059   4.355  11.866
 3254SOL    HW111659   4.010   4.273  11.859
 3254SOL    HW211660   4.000   4.421  11.829
 3255SOL     OW11661   2.769  12.689   7.155
 3255SOL    HW111662   2.692  12.654   7.201
 3255SOL    HW211663   2.821  12.730   7.224
 3256SOL     OW11664   6.394   3.362   2.918
 3256SOL    HW111665   6.460   3.407   2.971
 3256SOL    HW211666   6.417   3.269   2.925
 3257SOL     OW11667   4.312  11.659  12.091
 3257SOL    HW111668   4.405  11.684  12.092
 3257SOL    HW211669   4.267  11.737  12.058
 3258SOL     OW11670  13.547   0.172  11.834
 3258SOL    HW111671  13.561   0.098  11.776
 3258SOL    HW211672  13.592   0.245  11.791
 3259SOL     OW11673   6.822  11.964   1.071
 3259SOL    HW111674   6.855  11.881   1.104
 3259SOL    HW211675   6.778  11.942   0.989
 3260SOL     OW11676   2.205  13.417   6.159
 3260SOL    HW111677   2.249  13.411   6.244
 3260SOL    HW211678   2.245  13.347   6.107
 3261SOL     OW11679   5.487   6.959   4.770
 3261SOL    HW111680   5.503   7.054   4.772
 3261SOL    HW211681   5.458   6.937   4.858
 3262SOL     OW11682  10.009   3.952  14.607
 3262SOL    HW111683  10.024   3.888  14.538
 3262SOL    HW211684  10.093   3.996  14.618
 3263SOL     OW11685  13.078  10.947   3.807
 3263SOL    HW111686  13.023  11.022   3.783
 3263SOL    HW211687  13.121  10.922   3.725
 3264SOL     OW11688   4.789  14.047  14.012
 3264SOL    HW111689   4.778  14.138  14.037
 3264SOL    HW211690   4.707  14.005  14.038
 3265SOL     OW11691   9.293  10.334   0.219
 3265SOL    HW111692   9.202  10.346   0.189
 3265SOL    HW211693   9.325  10.423   0.231
 3266SOL     OW11694   7.050  11.132  13.706
 3266SOL    HW111695   7.005  11.109  13.787
 3266SOL    HW211696   7.019  11.068  13.642
 3267SOL     OW11697   8.532   1.638   4.502
 3267SOL    HW111698   8.514   1.714   4.447
 3267SOL    HW211699   8.491   1.565   4.457
 3268SOL     OW11700   2.387  10.330   3.164
 3268SOL    HW111701   2.431  10.255   3.204
 3268SOL    HW211702   2.403  10.402   3.225
 3269SOL     OW11703  11.956  10.812   5.273
 3269SOL    HW111704  12.021  10.836   5.339
 3269SOL    HW211705  11.962  10.716   5.266
 3270SOL     OW11706   9.446   5.494   0.969
 3270SOL    HW111707   9.507   5.420   0.976
 3270SOL    HW211708   9.364   5.454   0.942
 3271SOL     OW11709   6.696   2.188  10.276
 3271SOL    HW111710   6.774   2.236  10.307
 3271SOL    HW211711   6.652   2.161  10.356
 3272SOL     OW11712   1.812   9.943   3.498
 3272SOL    HW111713   1.849  10.014   3.445
 3272SOL    HW211714   1.880   9.876   3.499
 3273SOL     OW11715   2.726   5.666   1.401
 3273SOL    HW111716   2.721   5.706   1.488
 3273SOL    HW211717   2.696   5.734   1.341
 3274SOL     OW11718   9.873   2.429   5.590
 3274SOL    HW111719   9.878   2.522   5.566
 3274SOL    HW211720   9.831   2.387   5.516
 3275SOL     OW11721  13.522   8.166  13.628
 3275SOL    HW111722  13.515   8.220  13.707
 3275SOL    HW211723  13.534   8.229  13.557
 3276SOL     OW11724  10.881   3.325  13.378
 3276SOL    HW111725  10.969   3.288  13.374
 3276SOL    HW211726  10.855   3.338  13.287
 3277SOL     OW11727   2.862   2.089   3.113
 3277SOL    HW111728   2.955   2.077   3.134
 3277SOL    HW211729   2.822   2.113   3.197
 3278SOL     OW11730   0.956  12.122   0.416
 3278SOL    HW111731   0.976  12.085   0.331
 3278SOL    HW211732   0.938  12.047   0.472
 3279SOL     OW11733   3.952  14.061   5.247
 3279SOL    HW111734   3.969  14.145   5.288
 3279SOL    HW211735   4.026  14.046   5.189
 3280SOL     OW11736  11.435   3.131   4.065
 3280SOL    HW111737  11.436   3.036   4.079
 3280SOL    HW211738  11.491   3.166   4.134
 3281SOL     OW11739   4.754  12.375  12.121
 3281SOL    HW111740   4.725  12.287  12.145
 3281SOL    HW211741   4.674  12.421  12.097
 3282SOL     OW11742   5.797   9.051  12.598
 3282SOL    HW111743   5.828   9.002  12.675
 3282SOL    HW211744   5.705   9.068  12.616
 3283SOL     OW11745   4.646   7.569   1.231
 3283SOL    HW111746   4.701   7.644   1.254
 3283SOL    HW211747   4.631   7.524   1.313
 3284SOL     OW11748   7.639   5.368  13.915
 3284SOL    HW111749   7.639   5.335  14.005
 3284SOL    HW211750   7.716   5.329  13.874
 3285SOL     OW11751   4.175  11.896   1.083
 3285SOL    HW111752   4.260  11.911   1.122
 3285SOL    HW211753   4.191  11.830   1.015
 3286SOL     OW11754   3.350   3.869   0.095
 3286SOL    HW111755   3.271   3.912   0.128
 3286SOL    HW211756   3.364   3.907   0.009
 3287SOL     OW11757  13.068  11.422   6.106
 3287SOL    HW111758  13.127  11.381   6.043
 3287SOL    HW211759  13.072  11.366   6.183
 3288SOL     OW11760   1.012   0.792   4.340
 3288SOL    HW111761   1.019   0.790   4.245
 3288SOL    HW211762   0.971   0.709   4.363
 3289SOL     OW11763   4.182   1.897   7.255
 3289SOL    HW111764   4.113   1.888   7.189
 3289SOL    HW211765   4.140   1.868   7.337
 3290SOL     OW11766   9.597   7.956  13.660
 3290SOL    HW111767   9.502   7.944  13.660
 3290SOL    HW211768   9.632   7.883  13.710
 3291SOL     OW11769  11.438   8.930   2.706
 3291SOL    HW111770  11.483   8.855   2.745
 3291SOL    HW211771  11.429   8.908   2.613
 3292SOL     OW11772   0.258  14.695  13.460
 3292SOL    HW111773   0.204  14.666  13.386
 3292SOL    HW211774   0.195  14.718  13.528
 3293SOL     OW11775   1.418  12.694   2.376
 3293SOL    HW111776   1.471  12.665   2.301
 3293SOL    HW211777   1.328  12.687   2.346
 3294SOL     OW11778   4.389  14.427  13.179
 3294SOL    HW111779   4.475  14.405  13.144
 3294SOL    HW211780   4.406  14.487  13.251
 3295SOL     OW11781  10.692   8.137   2.620
 3295SOL    HW111782  10.678   8.184   2.702
 3295SOL    HW211783  10.659   8.196   2.552
 3296SOL     OW11784  12.332  10.451  12.961
 3296SOL    HW111785  12.296  10.490  12.882
 3296SOL    HW211786  12.282  10.490  13.032
 3297SOL     OW11787   6.713   8.831   2.786
 3297SOL    HW111788   6.804   8.803   2.778
 3297SOL    HW211789   6.679   8.783   2.861
 3298SOL     OW11790   0.472   3.169   7.815
 3298SOL    HW111791   0.405   3.171   7.883
 3298SOL    HW211792   0.551   3.137   7.859
 3299SOL     OW11793   8.308  11.319   5.373
 3299SOL    HW111794   8.329  11.406   5.342
 3299SOL    HW211795   8.303  11.265   5.294
 3300SOL     OW11796   3.937   2.446   3.982
 3300SOL    HW111797   3.862   2.415   4.033
 3300SOL    HW211798   3.924   2.541   3.976
 3301SOL     OW11799   8.610   9.515   1.493
 3301SOL    HW111800   8.663   9.436   1.508
 3301SOL    HW211801   8.653   9.560   1.421
 3302SOL     OW11802   4.065   2.991   0.248
 3302SOL    HW111803   4.018   2.912   0.220
 3302SOL    HW211804   4.053   2.993   0.343
 3303SOL     OW11805  11.883   0.569  10.096
 3303SOL    HW111806  11.969   0.536  10.070
 3303SOL    HW211807  11.872   0.538  10.186
 3304SOL     OW11808   7.071  11.506   3.434
 3304SOL    HW111809   7.134  11.523   3.364
 3304SOL    HW211810   7.012  11.439   3.399
 3305SOL     OW11811   5.461   3.319   1.677
 3305SOL    HW111812   5.386   3.346   1.731
 3305SOL    HW211813   5.483   3.397   1.626
 3306SOL     OW11814  13.708  11.131   9.608
 3306SOL    HW111815  13.684  11.197   9.672
 3306SOL    HW211816  13.803  11.128   9.610
 3307SOL     OW11817  11.154  12.764  12.462
 3307SOL    HW111818  11.240  12.784  12.500
 3307SOL    HW211819  11.161  12.672  12.437
 3308SOL     OW11820   0.110   7.363   0.790
 3308SOL    HW111821   0.086   7.341   0.880
 3308SOL    HW211822   0.139   7.454   0.794
 3309SOL     OW11823   3.294  10.275  10.630
 3309SOL    HW111824   3.256  10.359  10.654
 3309SOL    HW211825   3.273  10.265  10.537
 3310SOL     OW11826   2.520   7.650   2.283
 3310SOL    HW111827   2.589   7.584   2.275
 3310SOL    HW211828   2.511   7.687   2.195
 3311SOL     OW11829  11.822  14.544  13.671
 3311SOL    HW111830  11.805  14.595  13.592
 3311SOL    HW211831  11.917  14.531  13.671
 3312SOL     OW11832  10.429  11.519   4.501
 3312SOL    HW111833  10.433  11.615   4.499
 3312SOL    HW211834  10.514  11.492   4.535
 3313SOL     OW11835   5.376   5.736  10.294
 3313SOL    HW111836   5.434   5.795  10.247
 3313SOL    HW211837   5.329   5.688  10.226
 3314SOL     OW11838  13.584   3.385  12.231
 3314SOL    HW111839  13.499   3.348  12.254
 3314SOL    HW211840  13.646   3.314  12.245
 3315SOL     OW11841  14.117   5.987   2.633
 3315SOL    HW111842  14.078   5.960   2.550
 3315SOL    HW211843  14.066   5.942   2.700
 3316SOL     OW11844   0.162   6.340   8.736
 3316SOL    HW111845   0.144   6.425   8.696
 3316SOL    HW211846   0.211   6.292   8.669
 3317SOL     OW11847   7.641   1.608  11.108
 3317SOL    HW111848   7.638   1.645  11.020
 3317SOL    HW211849   7.551   1.577  11.124
 3318SOL     OW11850   9.653   4.370   4.303
 3318SOL    HW111851   9.626   4.411   4.385
 3318SOL    HW211852   9.570   4.346   4.261
 3319SOL     OW11853  13.238  11.147  12.413
 3319SOL    HW111854  13.234  11.055  12.386
 3319SOL    HW211855  13.228  11.144  12.508
 3320SOL     OW11856   3.044  14.558   7.851
 3320SOL    HW111857   3.012  14.648   7.837
 3320SOL    HW211858   3.100  14.564   7.928
 3321SOL     OW11859   2.160   0.405  11.478
 3321SOL    HW111860   2.182   0.432  11.389
 3321SOL    HW211861   2.228   0.447  11.532
 3322SOL     OW11862   4.879  12.537  11.837
 3322SOL    HW111863   4.899  12.585  11.917
 3322SOL    HW211864   4.803  12.581  11.800
 3323SOL     OW11865  10.088   7.624   7.589
 3323SOL    HW111866  10.052   7.572   7.661
 3323SOL    HW211867  10.023   7.617   7.519
 3324SOL     OW11868   0.027  10.797   4.392
 3324SOL    HW111869   0.105  10.849   4.409
 3324SOL    HW211870  14.854  10.840   4.318
 3325SOL     OW11871   4.095   1.702   3.306
 3325SOL    HW111872   4.149   1.720   3.230
 3325SOL    HW211873   4.097   1.606   3.314
 3326SOL     OW11874  13.706  14.299   5.423
 3326SOL    HW111875  13.724  14.353   5.346
 3326SOL    HW211876  13.715  14.209   5.392
 3327SOL     OW11877   6.012   7.554   3.130
 3327SOL    HW111878   6.080   7.500   3.091
 3327SOL    HW211879   6.059   7.608   3.194
 3328SOL     OW11880   7.200   4.777  14.006
 3328SOL    HW111881   7.109   4.796  13.986
 3328SOL    HW211882   7.231   4.853  14.054
 3329SOL     OW11883   4.873   1.924   3.749
 3329SOL    HW111884   4.861   1.991   3.682
 3329SOL    HW211885   4.939   1.865   3.713
 3330SOL     OW11886   5.930   8.336   9.993
 3330SOL    HW111887   6.014   8.370   9.963
 3330SOL    HW211888   5.865   8.389   9.948
 3331SOL     OW11889   3.194  12.133   6.383
 3331SOL    HW111890   3.184  12.158   6.475
 3331SOL    HW211891   3.165  12.210   6.334
 3332SOL     OW11892   9.642   1.614   5.515
 3332SOL    HW111893   9.658   1.629   5.422
 3332SOL    HW211894   9.549   1.637   5.528
 3333SOL     OW11895  13.709   1.873   4.778
 3333SOL    HW111896  13.682   1.786   4.748
 3333SOL    HW211897  13.673   1.879   4.867
 3334SOL     OW11898  12.743   3.441  10.843
 3334SOL    HW111899  12.691   3.395  10.777
 3334SOL    HW211900  12.741   3.383  10.919
 3335SOL     OW11901   5.751   1.332   7.385
 3335SOL    HW111902   5.778   1.417   7.421
 3335SOL    HW211903   5.712   1.354   7.301
 3336SOL     OW11904   1.497   0.575  10.942
 3336SOL    HW111905   1.403   0.585  10.952
 3336SOL    HW211906   1.512   0.481  10.943
 3337SOL     OW11907  11.669   4.403   1.050
 3337SOL    HW111908  11.723   4.474   1.013
 3337SOL    HW211909  11.581   4.421   1.018
 3338SOL     OW11910   2.829   6.525   4.655
 3338SOL    HW111911   2.891   6.456   4.633
 3338SOL    HW211912   2.882   6.591   4.701
 3339SOL     OW11913   9.134   9.715   0.692
 3339SOL    HW111914   9.148   9.721   0.597
 3339SOL    HW211915   9.188   9.641   0.719
 3340SOL     OW11916   4.209   3.696   6.092
 3340SOL    HW111917   4.277   3.674   6.029
 3340SOL    HW211918   4.218   3.790   6.105
 3341SOL     OW11919  14.703   6.116  12.724
 3341SOL    HW111920  14.630   6.068  12.686
 3341SOL    HW211921  14.689   6.207  12.695
 3342SOL     OW11922   2.534  14.271  14.062
 3342SOL    HW111923   2.500  14.196  14.013
 3342SOL    HW211924   2.595  14.233  14.124
 3343SOL     OW11925   8.277   1.186  11.210
 3343SOL    HW111926   8.295   1.125  11.281
 3343SOL    HW211927   8.182   1.201  11.214
 3344SOL     OW11928   2.585   0.579   8.307
 3344SOL    HW111929   2.651   0.524   8.264
 3344SOL    HW211930   2.636   0.636   8.365
 3345SOL     OW11931   9.462   8.804   1.203
 3345SOL    HW111932   9.401   8.793   1.276
 3345SOL    HW211933   9.549   8.801   1.242
 3346SOL     OW11934   2.883   2.028   7.294
 3346SOL    HW111935   2.789   2.023   7.312
 3346SOL    HW211936   2.900   2.121   7.282
 3347SOL     OW11937  14.125   5.063  11.413
 3347SOL    HW111938  14.053   5.101  11.362
 3347SOL    HW211939  14.153   4.987  11.363
 3348SOL     OW11940  11.787   2.292  11.027
 3348SOL    HW111941  11.829   2.361  10.976
 3348SOL    HW211942  11.735   2.339  11.093
 3349SOL     OW11943   3.445   2.672   2.161
 3349SOL    HW111944   3.456   2.591   2.211
 3349SOL    HW211945   3.412   2.735   2.224
 3350SOL     OW11946   7.816  12.368   2.770
 3350SOL    HW111947   7.731  12.333   2.744
 3350SOL    HW211948   7.876  12.295   2.761
 3351SOL     OW11949   8.851   6.249   9.375
 3351SOL    HW111950   8.774   6.213   9.331
 3351SOL    HW211951   8.925   6.206   9.332
 3352SOL     OW11952   6.384   1.579   7.744
 3352SOL    HW111953   6.357   1.646   7.681
 3352SOL    HW211954   6.410   1.504   7.689
 3353SOL     OW11955   4.872   4.423  11.345
 3353SOL    HW111956   4.907   4.511  11.340
 3353SOL    HW211957   4.934   4.374  11.399
 3354SOL     OW11958   5.477   2.007  14.380
 3354SOL    HW111959   5.534   2.076  14.415
 3354SOL    HW211960   5.477   2.020  14.286
 3355SOL     OW11961  11.896  11.379   9.276
 3355SOL    HW111962  11.861  11.423   9.198
 3355SOL    HW211963  11.818  11.360   9.329
 3356SOL     OW11964  10.063   0.534   4.369
 3356SOL    HW111965  10.016   0.461   4.407
 3356SOL    HW211966  10.129   0.558   4.434
 3357SOL     OW11967   1.584   0.945   2.117
 3357SOL    HW111968   1.547   0.861   2.146
 3357SOL    HW211969   1.590   0.937   2.021
 3358SOL     OW11970   6.313  10.195   2.589
 3358SOL    HW111971   6.349  10.278   2.560
 3358SOL    HW211972   6.232  10.218   2.634
 3359SOL     OW11973   8.948  10.354   1.047
 3359SOL    HW111974   8.969  10.441   1.012
 3359SOL    HW211975   8.904  10.372   1.130
 3360SOL     OW11976   1.064  13.338   4.133
 3360SOL    HW111977   1.006  13.399   4.178
 3360SOL    HW211978   1.034  13.340   4.042
 3361SOL     OW11979   6.839   4.443  10.541
 3361SOL    HW111980   6.786   4.472  10.466
 3361SOL    HW211981   6.891   4.370  10.506
 3362SOL     OW11982  10.135   9.274  10.946
 3362SOL    HW111983  10.051   9.242  10.981
 3362SOL    HW211984  10.110   9.341  10.882
 3363SOL     OW11985   6.846   1.205   0.230
 3363SOL    HW111986   6.911   1.225   0.163
 3363SOL    HW211987   6.838   1.286   0.281
 3364SOL     OW11988  14.666   6.015   9.641
 3364SOL    HW111989  14.710   6.095   9.614
 3364SOL    HW211990  14.573   6.033   9.626
 3365SOL     OW11991   3.072  13.152  11.205
 3365SOL    HW111992   3.022  13.233  11.192
 3365SOL    HW211993   3.143  13.157  11.142
 3366SOL     OW11994   0.361   1.844  12.472
 3366SOL    HW111995   0.397   1.876  12.555
 3366SOL    HW211996   0.438   1.818  12.422
 3367SOL     OW11997   1.509  13.394   7.612
 3367SOL    HW111998   1.588  13.415   7.661
 3367SOL    HW211999   1.454  13.347   7.674
 3368SOL     OW12000  13.357   3.708  14.750
 3368SOL    HW112001  13.397   3.792  14.772
 3368SOL    HW212002  13.410   3.644  14.798
 3369SOL     OW12003  14.283  11.969   1.866
 3369SOL    HW112004  14.236  11.946   1.785
 3369SOL    HW212005  14.234  11.925   1.935
 3370SOL     OW12006   1.930   7.498  11.189
 3370SOL    HW112007   1.888   7.565  11.243
 3370SOL    HW212008   2.017   7.533  11.171
 3371SOL     OW12009   3.937  14.068  10.509
 3371SOL    HW112010   4.029  14.089  10.524
 3371SOL    HW212011   3.929  13.976  10.533
 3372SOL     OW12012  14.458  11.948  11.958
 3372SOL    HW112013  14.470  11.858  11.987
 3372SOL    HW212014  14.365  11.966  11.972
 3373SOL     OW12015   1.685   7.753   8.547
 3373SOL    HW112016   1.612   7.785   8.494
 3373SOL    HW212017   1.680   7.804   8.628
 3374SOL     OW12018  10.914  11.023   3.781
 3374SOL    HW112019  10.871  10.949   3.738
 3374SOL    HW212020  11.003  10.992   3.798
 3375SOL     OW12021   7.224  10.224  12.501
 3375SOL    HW112022   7.244  10.183  12.417
 3375SOL    HW212023   7.259  10.164  12.566
 3376SOL     OW12024   8.364  11.175   8.772
 3376SOL    HW112025   8.300  11.129   8.827
 3376SOL    HW212026   8.310  11.219   8.706
 3377SOL     OW12027   3.179   8.700   0.693
 3377SOL    HW112028   3.212   8.652   0.617
 3377SOL    HW212029   3.170   8.790   0.663
 3378SOL     OW12030   2.953   3.719  14.432
 3378SOL    HW112031   3.032   3.668  14.414
 3378SOL    HW212032   2.881   3.655  14.429
 3379SOL     OW12033   9.138   1.515  11.989
 3379SOL    HW112034   9.111   1.552  12.073
 3379SOL    HW212035   9.190   1.583  11.947
 3380SOL     OW12036  12.639   6.299  13.715
 3380SOL    HW112037  12.661   6.207  13.698
 3380SOL    HW212038  12.722   6.338  13.742
 3381SOL     OW12039   7.280   5.310  13.432
 3381SOL    HW112040   7.291   5.232  13.487
 3381SOL    HW212041   7.308   5.382  13.488
 3382SOL     OW12042  10.881  13.680  10.985
 3382SOL    HW112043  10.900  13.701  11.076
 3382SOL    HW212044  10.958  13.710  10.936
 3383SOL     OW12045   5.307   1.485  10.787
 3383SOL    HW112046   5.308   1.430  10.708
 3383SOL    HW212047   5.264   1.566  10.759
 3384SOL     OW12048  10.182  10.091   3.127
 3384SOL    HW112049  10.242  10.057   3.193
 3384SOL    HW212050  10.198  10.036   3.050
 3385SOL     OW12051   7.308  14.028  11.980
 3385SOL    HW112052   7.220  14.058  12.000
 3385SOL    HW212053   7.299  13.934  11.967
 3386SOL     OW12054   2.880   3.638  13.053
 3386SOL    HW112055   2.901   3.594  12.970
 3386SOL    HW212056   2.949   3.703  13.064
 3387SOL     OW12057  10.505   0.580  12.082
 3387SOL    HW112058  10.422   0.555  12.043
 3387SOL    HW212059  10.513   0.525  12.160
 3388SOL     OW12060   2.666   1.510  14.572
 3388SOL    HW112061   2.701   1.561  14.500
 3388SOL    HW212062   2.724   1.434  14.579
 3389SOL     OW12063   3.962  10.096   1.395
 3389SOL    HW112064   3.958  10.191   1.403
 3389SOL    HW212065   3.871  10.069   1.380
 3390SOL     OW12066   0.467   3.111   4.869
 3390SOL    HW112067   0.547   3.143   4.827
 3390SOL    HW212068   0.477   3.016   4.869
 3391SOL     OW12069  13.759   6.712   7.551
 3391SOL    HW112070  13.697   6.650   7.589
 3391SOL    HW212071  13.707   6.790   7.533
 3392SOL     OW12072   2.326  11.916   8.953
 3392SOL    HW112073   2.293  11.929   8.864
 3392SOL    HW212074   2.402  11.974   8.960
 3393SOL     OW12075  13.356   9.471   7.279
 3393SOL    HW112076  13.408   9.550   7.285
 3393SOL    HW212077  13.418   9.400   7.295
 3394SOL     OW12078   1.997  12.542  12.163
 3394SOL    HW112079   1.914  12.500  12.140
 3394SOL    HW212080   2.035  12.569  12.079
 3395SOL     OW12081   0.931   2.784   8.982
 3395SOL    HW112082   0.978   2.701   8.974
 3395SOL    HW212083   0.894   2.799   8.895
 3396SOL     OW12084  10.268  13.453   5.800
 3396SOL    HW112085  10.177  13.443   5.772
 3396SOL    HW212086  10.320  13.430   5.723
 3397SOL     OW12087   2.412   4.743  13.864
 3397SOL    HW112088   2.444   4.687  13.793
 3397SOL    HW212089   2.464   4.823  13.856
 3398SOL     OW12090   5.366   8.361   5.184
 3398SOL    HW112091   5.303   8.407   5.128
 3398SOL    HW212092   5.375   8.275   5.144
 3399SOL     OW12093  14.064   5.310   5.178
 3399SOL    HW112094  14.002   5.383   5.176
 3399SOL    HW212095  14.149   5.352   5.191
 3400SOL     OW12096  12.705  13.772   6.968
 3400SOL    HW112097  12.718  13.851   6.916
 3400SOL    HW212098  12.763  13.783   7.043
 3401SOL     OW12099  12.736   1.125  12.744
 3401SOL    HW112100  12.772   1.183  12.811
 3401SOL    HW212101  12.740   1.038  12.784
 3402SOL     OW12102  12.315  13.379   9.654
 3402SOL    HW112103  12.353  13.357   9.740
 3402SOL    HW212104  12.222  13.391   9.672
 3403SOL     OW12105   1.880   0.668   0.325
 3403SOL    HW112106   1.815   0.618   0.276
 3403SOL    HW212107   1.849   0.758   0.321
 3404SOL     OW12108   4.151   7.595   7.712
 3404SOL    HW112109   4.231   7.641   7.685
 3404SOL    HW212110   4.083   7.661   7.707
 3405SOL     OW12111   3.688   1.300   2.352
 3405SOL    HW112112   3.628   1.359   2.306
 3405SOL    HW212113   3.650   1.213   2.339
 3406SOL     OW12114   8.587   4.921  12.268
 3406SOL    HW112115   8.652   4.910  12.337
 3406SOL    HW212116   8.634   4.965  12.197
 3407SOL     OW12117  11.578   4.489  13.707
 3407SOL    HW112118  11.495   4.449  13.680
 3407SOL    HW212119  11.645   4.437  13.661
 3408SOL     OW12120  14.187   8.622   4.096
 3408SOL    HW112121  14.113   8.641   4.039
 3408SOL    HW212122  14.224   8.541   4.061
 3409SOL     OW12123   0.535  14.002  11.618
 3409SOL    HW112124   0.457  14.038  11.661
 3409SOL    HW212125   0.500  13.951  11.545
 3410SOL     OW12126   9.825  11.566   3.356
 3410SOL    HW112127   9.833  11.501   3.425
 3410SOL    HW212128   9.908  11.561   3.308
 3411SOL     OW12129   3.757  13.061   1.241
 3411SOL    HW112130   3.777  12.980   1.193
 3411SOL    HW212131   3.700  13.110   1.182
 3412SOL     OW12132   2.837   5.674   9.868
 3412SOL    HW112133   2.920   5.626   9.870
 3412SOL    HW212134   2.770   5.607   9.884
 3413SOL     OW12135  14.208   8.174   9.220
 3413SOL    HW112136  14.218   8.248   9.160
 3413SOL    HW212137  14.295   8.134   9.223
 3414SOL     OW12138   4.743   6.472   5.006
 3414SOL    HW112139   4.795   6.538   5.051
 3414SOL    HW212140   4.799   6.394   5.002
 3415SOL     OW12141  12.469   7.298   7.827
 3415SOL    HW112142  12.499   7.217   7.869
 3415SOL    HW212143  12.374   7.293   7.831
 3416SOL     OW12144  10.014   4.755   0.660
 3416SOL    HW112145  10.091   4.710   0.695
 3416SOL    HW212146  10.013   4.839   0.706
 3417SOL     OW12147   8.240  13.885   3.193
 3417SOL    HW112148   8.246  13.980   3.196
 3417SOL    HW212149   8.150  13.865   3.219
 3418SOL     OW12150   5.213   8.540   1.678
 3418SOL    HW112151   5.154   8.465   1.675
 3418SOL    HW212152   5.220   8.561   1.771
 3419SOL     OW12153   7.977   6.356   5.609
 3419SOL    HW112154   8.056   6.389   5.566
 3419SOL    HW212155   7.907   6.369   5.545
 3420SOL     OW12156   1.681  10.599   2.024
 3420SOL    HW112157   1.699  10.681   1.977
 3420SOL    HW212158   1.750  10.540   1.996
 3421SOL     OW12159   8.523  11.299   3.242
 3421SOL    HW112160   8.504  11.324   3.152
 3421SOL    HW212161   8.448  11.332   3.292
 3422SOL     OW12162  10.627   4.885   6.047
 3422SOL    HW112163  10.543   4.926   6.026
 3422SOL    HW212164  10.691   4.956   6.036
 3423SOL     OW12165   1.844   4.458   0.965
 3423SOL    HW112166   1.817   4.457   1.057
 3423SOL    HW212167   1.835   4.367   0.937
 3424SOL     OW12168   0.308   7.175  13.641
 3424SOL    HW112169   0.391   7.196  13.598
 3424SOL    HW212170   0.255   7.254  13.631
 3425SOL     OW12171  10.799   7.351  11.433
 3425SOL    HW112172  10.757   7.265  11.444
 3425SOL    HW212173  10.759   7.406  11.500
 3426SOL     OW12174   6.134   5.415   8.454
 3426SOL    HW112175   6.227   5.436   8.443
 3426SOL    HW212176   6.109   5.372   8.373
 3427SOL     OW12177  11.333   8.524   0.242
 3427SOL    HW112178  11.422   8.518   0.277
 3427SOL    HW212179  11.293   8.439   0.262
 3428SOL     OW12180  10.295  11.302  11.685
 3428SOL    HW112181  10.381  11.267  11.661
 3428SOL    HW212182  10.257  11.330  11.602
 3429SOL     OW12183  11.943   4.568   4.606
 3429SOL    HW112184  11.900   4.530   4.682
 3429SOL    HW212185  11.891   4.646   4.585
 3430SOL     OW12186  10.155   8.915  14.825
 3430SOL    HW112187  10.150   8.820  14.824
 3430SOL    HW212188  10.202   8.936   0.036
 3431SOL     OW12189   7.815   3.420  12.455
 3431SOL    HW112190   7.726   3.448  12.479
 3431SOL    HW212191   7.871   3.455  12.525
 3432SOL     OW12192   7.037  10.055   6.068
 3432SOL    HW112193   7.067  10.023   5.983
 3432SOL    HW212194   7.035   9.977   6.124
 3433SOL     OW12195   7.352   1.276   7.630
 3433SOL    HW112196   7.306   1.195   7.651
 3433SOL    HW212197   7.284   1.343   7.627
 3434SOL     OW12198   9.848  12.417  14.822
 3434SOL    HW112199   9.918  12.479  14.843
 3434SOL    HW212200   9.769  12.470  14.814
 3435SOL     OW12201  11.950  11.194   1.311
 3435SOL    HW112202  11.913  11.242   1.385
 3435SOL    HW212203  11.877  11.141   1.278
 3436SOL     OW12204   7.045   0.557   6.075
 3436SOL    HW112205   7.075   0.622   6.138
 3436SOL    HW212206   7.000   0.609   6.007
 3437SOL     OW12207   8.839   0.490   3.691
 3437SOL    HW112208   8.782   0.469   3.618
 3437SOL    HW212209   8.928   0.475   3.658
 3438SOL     OW12210   3.579   5.770   9.641
 3438SOL    HW112211   3.566   5.711   9.715
 3438SOL    HW212212   3.519   5.842   9.656
 3439SOL     OW12213   0.121  10.614  10.397
 3439SOL    HW112214   0.090  10.593  10.309
 3439SOL    HW212215   0.145  10.707  10.393
 3440SOL     OW12216  14.088   9.043   6.139
 3440SOL    HW112217  14.180   9.068   6.145
 3440SOL    HW212218  14.063   9.066   6.050
 3441SOL     OW12219   2.908   1.285   6.168
 3441SOL    HW112220   2.910   1.227   6.244
 3441SOL    HW212221   2.815   1.305   6.156
 3442SOL     OW12222   8.065   4.765   4.556
 3442SOL    HW112223   7.995   4.830   4.546
 3442SOL    HW212224   8.019   4.682   4.569
 3443SOL     OW12225   7.801   8.494  10.187
 3443SOL    HW112226   7.784   8.588  10.197
 3443SOL    HW212227   7.835   8.485  10.098
 3444SOL     OW12228   9.294   0.296   5.364
 3444SOL    HW112229   9.295   0.220   5.423
 3444SOL    HW212230   9.302   0.372   5.423
 3445SOL     OW12231  12.927  14.499   1.876
 3445SOL    HW112232  12.933  14.521   1.969
 3445SOL    HW212233  12.866  14.425   1.873
 3446SOL     OW12234   6.538  11.446  11.510
 3446SOL    HW112235   6.604  11.461  11.442
 3446SOL    HW212236   6.501  11.360  11.489
 3447SOL     OW12237   5.580   8.159   8.637
 3447SOL    HW112238   5.520   8.185   8.567
 3447SOL    HW212239   5.657   8.215   8.626
 3448SOL     OW12240   3.429  13.996   8.832
 3448SOL    HW112241   3.395  13.913   8.864
 3448SOL    HW212242   3.504  14.015   8.887
 3449SOL     OW12243   6.643   0.721  12.560
 3449SOL    HW112244   6.555   0.683  12.561
 3449SOL    HW212245   6.632   0.805  12.515
 3450SOL     OW12246  13.711   4.288  11.516
 3450SOL    HW112247  13.736   4.376  11.543
 3450SOL    HW212248  13.751   4.276  11.430
 3451SOL     OW12249   7.782  14.038   8.380
 3451SOL    HW112250   7.698  14.051   8.424
 3451SOL    HW212251   7.840  14.004   8.448
 3452SOL     OW12252   1.510   1.745  13.098
 3452SOL    HW112253   1.429   1.779  13.137
 3452SOL    HW212254   1.579   1.767  13.161
 3453SOL     OW12255  14.045  11.984   9.150
 3453SOL    HW112256  14.038  12.069   9.107
 3453SOL    HW212257  13.968  11.978   9.206
 3454SOL     OW12258   2.735   4.939  12.560
 3454SOL    HW112259   2.687   4.980  12.489
 3454SOL    HW212260   2.667   4.913  12.623
 3455SOL     OW12261  12.954   4.886  11.511
 3455SOL    HW112262  12.971   4.793  11.503
 3455SOL    HW212263  13.018   4.928  11.454
 3456SOL     OW12264   0.779   9.909  14.279
 3456SOL    HW112265   0.859   9.909  14.227
 3456SOL    HW212266   0.782   9.828  14.329
 3457SOL     OW12267  14.592   4.641   9.733
 3457SOL    HW112268  14.586   4.677   9.821
 3457SOL    HW212269  14.634   4.710   9.682
 3458SOL     OW12270   7.293  13.944   3.655
 3458SOL    HW112271   7.375  13.932   3.703
 3458SOL    HW212272   7.224  13.925   3.719
 3459SOL     OW12273   9.211  14.428  14.018
 3459SOL    HW112274   9.189  14.440  14.110
 3459SOL    HW212275   9.131  14.394  13.978
 3460SOL     OW12276   2.226  13.124   8.721
 3460SOL    HW112277   2.321  13.119   8.717
 3460SOL    HW212278   2.208  13.209   8.761
 3461SOL     OW12279   6.484   9.931  11.886
 3461SOL    HW112280   6.567   9.978  11.896
 3461SOL    HW212281   6.422   9.981  11.940
 3462SOL     OW12282   7.886  12.163  10.506
 3462SOL    HW112283   7.832  12.235  10.539
 3462SOL    HW212284   7.908  12.189  10.417
 3463SOL     OW12285   8.217   9.929  11.727
 3463SOL    HW112286   8.162  10.005  11.712
 3463SOL    HW212287   8.268   9.951  11.805
 3464SOL     OW12288   5.007   2.956   2.327
 3464SOL    HW112289   5.101   2.973   2.339
 3464SOL    HW212290   4.982   2.906   2.405
 3465SOL     OW12291   1.692   4.256   4.437
 3465SOL    HW112292   1.617   4.287   4.385
 3465SOL    HW212293   1.769   4.287   4.388
 3466SOL     OW12294  11.957   2.674   4.971
 3466SOL    HW112295  12.028   2.667   4.908
 3466SOL    HW212296  11.963   2.763   5.005
 3467SOL     OW12297  14.706   7.824   7.171
 3467SOL    HW112298  14.766   7.771   7.224
 3467SOL    HW212299  14.745   7.912   7.172
 3468SOL     OW12300   7.296   8.538  10.560
 3468SOL    HW112301   7.278   8.551  10.653
 3468SOL    HW212302   7.391   8.528  10.555
 3469SOL     OW12303   9.107   4.142   3.369
 3469SOL    HW112304   9.040   4.087   3.407
 3469SOL    HW212305   9.145   4.089   3.299
 3470SOL     OW12306   6.229   8.692   2.941
 3470SOL    HW112307   6.167   8.757   2.976
 3470SOL    HW212308   6.302   8.695   3.003
 3471SOL     OW12309   2.461  14.796   7.220
 3471SOL    HW112310   2.554  14.787   7.243
 3471SOL    HW212311   2.428  14.864   7.279
 3472SOL     OW12312  12.196   6.047  10.640
 3472SOL    HW112313  12.246   5.971  10.669
 3472SOL    HW212314  12.122   6.052  10.700
 3473SOL     OW12315   4.205   8.189  14.565
 3473SOL    HW112316   4.237   8.100  14.574
 3473SOL    HW212317   4.283   8.242  14.555
 3474SOL     OW12318   4.306  13.980  12.230
 3474SOL    HW112319   4.332  14.069  12.205
 3474SOL    HW212320   4.378  13.925  12.200
 3475SOL     OW12321  11.903  14.144   3.291
 3475SOL    HW112322  11.932  14.155   3.200
 3475SOL    HW212323  11.812  14.118   3.284
 3476SOL     OW12324   1.388   5.367   3.615
 3476SOL    HW112325   1.434   5.305   3.671
 3476SOL    HW212326   1.322   5.315   3.570
 3477SOL     OW12327   2.377   4.941   6.535
 3477SOL    HW112328   2.298   4.985   6.503
 3477SOL    HW212329   2.434   5.012   6.566
 3478SOL     OW12330   0.119   0.152   4.380
 3478SOL    HW112331   0.179   0.225   4.365
 3478SOL    HW212332   0.138   0.090   4.309
 3479SOL     OW12333   6.163   1.034   0.039
 3479SOL    HW112334   6.108   1.113   0.038
 3479SOL    HW212335   6.205   1.034  14.823
 3480SOL     OW12336   6.086   8.401   3.580
 3480SOL    HW112337   6.051   8.335   3.519
 3480SOL    HW212338   6.082   8.357   3.666
 3481SOL     OW12339   7.943   5.746   5.021
 3481SOL    HW112340   7.856   5.783   5.008
 3481SOL    HW212341   7.939   5.660   4.978
 3482SOL     OW12342  10.477   9.836   8.169
 3482SOL    HW112343  10.420   9.877   8.233
 3482SOL    HW212344  10.561   9.828   8.214
 3483SOL     OW12345  10.722   6.156   2.419
 3483SOL    HW112346  10.713   6.170   2.324
 3483SOL    HW212347  10.780   6.226   2.448
 3484SOL     OW12348   5.078  12.387   5.918
 3484SOL    HW112349   5.032  12.385   5.835
 3484SOL    HW212350   5.050  12.469   5.959
 3485SOL     OW12351   4.421  10.252   9.667
 3485SOL    HW112352   4.356  10.181   9.662
 3485SOL    HW212353   4.394  10.313   9.598
 3486SOL     OW12354   6.549   5.332  14.585
 3486SOL    HW112355   6.622   5.279  14.554
 3486SOL    HW212356   6.550   5.410  14.529
 3487SOL     OW12357  14.532  11.936   2.046
 3487SOL    HW112358  14.561  11.846   2.030
 3487SOL    HW212359  14.469  11.955   1.976
 3488SOL     OW12360  10.954  14.723   2.589
 3488SOL    HW112361  10.866  14.749   2.616
 3488SOL    HW212362  11.007  14.801   2.602
 3489SOL     OW12363  12.207   1.732   7.775
 3489SOL    HW112364  12.275   1.697   7.832
 3489SOL    HW212365  12.252   1.750   7.693
 3490SOL     OW12366  13.462   6.755   3.793
 3490SOL    HW112367  13.527   6.716   3.735
 3490SOL    HW212368  13.484   6.721   3.880
 3491SOL     OW12369   9.753  12.538   1.304
 3491SOL    HW112370   9.774  12.608   1.242
 3491SOL    HW212371   9.774  12.457   1.257
 3492SOL     OW12372   6.942   2.492   9.243
 3492SOL    HW112373   6.921   2.581   9.273
 3492SOL    HW212374   6.856   2.452   9.226
 3493SOL     OW12375  10.416  12.335  12.066
 3493SOL    HW112376  10.332  12.319  12.022
 3493SOL    HW212377  10.391  12.374  12.150
 3494SOL     OW12378   7.185   5.625  10.617
 3494SOL    HW112379   7.254   5.682  10.584
 3494SOL    HW212380   7.179   5.554  10.552
 3495SOL     OW12381   3.486   3.433  14.512
 3495SOL    HW112382   3.442   3.494  14.572
 3495SOL    HW212383   3.559   3.483  14.477
 3496SOL     OW12384   0.943   3.286   8.478
 3496SOL    HW112385   1.012   3.249   8.422
 3496SOL    HW212386   0.955   3.381   8.471
 3497SOL     OW12387   4.430  12.112   0.250
 3497SOL    HW112388   4.441  12.018   0.236
 3497SOL    HW212389   4.378  12.141   0.174
 3498SOL     OW12390   5.919   9.147   5.009
 3498SOL    HW112391   5.905   9.189   5.093
 3498SOL    HW212392   6.015   9.146   4.999
 3499SOL     OW12393  12.518   1.409  14.332
 3499SOL    HW112394  12.506   1.402  14.238
 3499SOL    HW212395  12.462   1.483  14.358
 3500SOL     OW12396   7.262   1.833   2.792
 3500SOL    HW112397   7.235   1.917   2.831
 3500SOL    HW212398   7.357   1.829   2.807
 3501SOL     OW12399   9.781   6.002   2.801
 3501SOL    HW112400   9.757   6.055   2.725
 3501SOL    HW212401   9.702   6.000   2.854
 3502SOL     OW12402   1.258   7.107  13.564
 3502SOL    HW112403   1.336   7.052  13.566
 3502SOL    HW212404   1.200   7.063  13.502
 3503SOL     OW12405   7.611  14.182  14.570
 3503SOL    HW112406   7.553  14.108  14.586
 3503SOL    HW212407   7.628  14.219  14.656
 3504SOL     OW12408  13.293   1.407   4.603
 3504SOL    HW112409  13.349   1.341   4.644
 3504SOL    HW212410  13.227   1.427   4.669
 3505SOL     OW12411  12.479  12.517   0.752
 3505SOL    HW112412  12.421  12.495   0.824
 3505SOL    HW212413  12.421  12.552   0.684
 3506SOL     OW12414   3.188   7.657   4.079
 3506SOL    HW112415   3.155   7.707   4.153
 3506SOL    HW212416   3.157   7.568   4.094
 3507SOL     OW12417   0.805  11.771   4.938
 3507SOL    HW112418   0.756  11.743   5.015
 3507SOL    HW212419   0.837  11.690   4.898
 3508SOL     OW12420  13.701   6.143   5.528
 3508SOL    HW112421  13.752   6.068   5.497
 3508SOL    HW212422  13.767   6.207   5.556
 3509SOL     OW12423   2.411   7.220   0.046
 3509SOL    HW112424   2.501   7.223   0.076
 3509SOL    HW212425   2.400   7.132   0.010
 3510SOL     OW12426  10.277  11.888  13.532
 3510SOL    HW112427  10.266  11.854  13.621
 3510SOL    HW212428  10.372  11.895  13.520
 3511SOL     OW12429   4.669   4.614  10.742
 3511SOL    HW112430   4.757   4.621  10.780
 3511SOL    HW212431   4.684   4.590  10.651
 3512SOL     OW12432   1.945   7.937  14.008
 3512SOL    HW112433   2.006   7.988  14.061
 3512SOL    HW212434   1.941   7.851  14.051
 3513SOL     OW12435   1.476   6.149   6.899
 3513SOL    HW112436   1.405   6.133   6.837
 3513SOL    HW212437   1.550   6.175   6.844
 3514SOL     OW12438  13.554  11.452  13.587
 3514SOL    HW112439  13.516  11.485  13.506
 3514SOL    HW212440  13.618  11.519  13.612
 3515SOL     OW12441   0.077   4.836   7.797
 3515SOL    HW112442   0.080   4.927   7.826
 3515SOL    HW212443  14.856   4.810   7.809
 3516SOL     OW12444  13.065   7.685  11.147
 3516SOL    HW112445  13.127   7.757  11.140
 3516SOL    HW212446  13.007   7.697  11.072
 3517SOL     OW12447  10.255   1.757   3.632
 3517SOL    HW112448  10.239   1.755   3.537
 3517SOL    HW212449  10.232   1.846   3.658
 3518SOL     OW12450  11.842   5.293   2.754
 3518SOL    HW112451  11.836   5.209   2.710
 3518SOL    HW212452  11.753   5.328   2.753
 3519SOL     OW12453   6.420  11.998   1.734
 3519SOL    HW112454   6.425  12.083   1.691
 3519SOL    HW212455   6.357  11.948   1.682
 3520SOL     OW12456  14.529  11.090   6.872
 3520SOL    HW112457  14.434  11.082   6.882
 3520SOL    HW212458  14.565  11.056   6.954
 3521SOL     OW12459   0.340   2.482  10.556
 3521SOL    HW112460   0.344   2.531  10.638
 3521SOL    HW212461   0.365   2.392  10.580
 3522SOL     OW12462   6.562   9.732  11.469
 3522SOL    HW112463   6.504   9.778  11.530
 3522SOL    HW212464   6.507   9.664  11.431
 3523SOL     OW12465  13.320   3.814   4.356
 3523SOL    HW112466  13.358   3.826   4.269
 3523SOL    HW212467  13.230   3.843   4.347
 3524SOL     OW12468  14.801  10.497   1.500
 3524SOL    HW112469  14.864  10.524   1.433
 3524SOL    HW212470  14.855  10.472   1.575
 3525SOL     OW12471  11.684  14.190   8.735
 3525SOL    HW112472  11.729  14.106   8.732
 3525SOL    HW212473  11.655  14.199   8.825
 3526SOL     OW12474   3.270   6.070   1.774
 3526SOL    HW112475   3.232   6.010   1.710
 3526SOL    HW212476   3.320   6.014   1.833
 3527SOL     OW12477   0.694   4.001   6.163
 3527SOL    HW112478   0.680   4.054   6.085
 3527SOL    HW212479   0.783   3.967   6.154
 3528SOL     OW12480   9.900   7.534   2.647
 3528SOL    HW112481   9.985   7.577   2.658
 3528SOL    HW212482   9.918   7.461   2.588
 3529SOL     OW12483   5.705   8.039  13.337
 3529SOL    HW112484   5.619   7.999  13.350
 3529SOL    HW212485   5.725   8.081  13.421
 3530SOL     OW12486   1.049   5.374  12.716
 3530SOL    HW112487   1.094   5.341  12.638
 3530SOL    HW212488   1.105   5.348  12.789
 3531SOL     OW12489   4.459   4.226   3.489
 3531SOL    HW112490   4.391   4.228   3.422
 3531SOL    HW212491   4.412   4.214   3.571
 3532SOL     OW12492   2.288   7.879   1.926
 3532SOL    HW112493   2.258   7.957   1.880
 3532SOL    HW212494   2.211   7.822   1.931
 3533SOL     OW12495  14.124   0.474   7.897
 3533SOL    HW112496  14.066   0.546   7.920
 3533SOL    HW212497  14.111   0.461   7.803
 3534SOL     OW12498   4.117   2.260  14.021
 3534SOL    HW112499   4.062   2.221  14.089
 3534SOL    HW212500   4.206   2.239  14.048
 3535SOL     OW12501   4.026   7.083  13.493
 3535SOL    HW112502   4.039   7.020  13.422
 3535SOL    HW212503   4.113   7.096  13.530
 3536SOL     OW12504  11.332   4.645   7.044
 3536SOL    HW112505  11.254   4.636   7.099
 3536SOL    HW212506  11.329   4.569   6.986
 3537SOL     OW12507   9.395   1.868  10.389
 3537SOL    HW112508   9.307   1.884  10.423
 3537SOL    HW212509   9.444   1.832  10.463
 3538SOL     OW12510   8.832   4.776   7.911
 3538SOL    HW112511   8.809   4.768   8.004
 3538SOL    HW212512   8.760   4.735   7.864
 3539SOL     OW12513   7.954  14.788   8.418
 3539SOL    HW112514   8.006  14.789   8.498
 3539SOL    HW212515   8.015  14.814   8.349
 3540SOL     OW12516  14.526   6.040   0.887
 3540SOL    HW112517  14.493   5.977   0.823
 3540SOL    HW212518  14.513   5.998   0.972
 3541SOL     OW12519   4.644   1.252   0.631
 3541SOL    HW112520   4.724   1.276   0.677
 3541SOL    HW212521   4.674   1.207   0.552
 3542SOL     OW12522  11.193   0.728   1.485
 3542SOL    HW112523  11.125   0.713   1.418
 3542SOL    HW212524  11.145   0.727   1.568
 3543SOL     OW12525   0.071   6.415   5.559
 3543SOL    HW112526  14.866   6.408   5.618
 3543SOL    HW212527   0.144   6.376   5.607
 3544SOL     OW12528   5.024   8.262   3.136
 3544SOL    HW112529   5.009   8.341   3.188
 3544SOL    HW212530   4.945   8.210   3.149
 3545SOL     OW12531   7.720   2.757   0.680
 3545SOL    HW112532   7.710   2.828   0.617
 3545SOL    HW212533   7.687   2.793   0.763
 3546SOL     OW12534   5.223   1.885   8.326
 3546SOL    HW112535   5.236   1.844   8.412
 3546SOL    HW212536   5.304   1.934   8.311
 3547SOL     OW12537   2.150   4.157  12.697
 3547SOL    HW112538   2.206   4.173  12.773
 3547SOL    HW212539   2.160   4.235  12.643
 3548SOL     OW12540   0.957  13.071   5.584
 3548SOL    HW112541   1.053  13.071   5.582
 3548SOL    HW212542   0.932  13.108   5.499
 3549SOL     OW12543  14.815   3.506   1.203
 3549SOL    HW112544  14.833   3.513   1.297
 3549SOL    HW212545  14.861   3.427   1.175
 3550SOL     OW12546   1.902  10.229   2.206
 3550SOL    HW112547   1.918  10.147   2.252
 3550SOL    HW212548   1.953  10.294   2.255
 3551SOL     OW12549   6.720   9.723   2.457
 3551SOL    HW112550   6.719   9.628   2.445
 3551SOL    HW212551   6.804   9.751   2.420
 3552SOL     OW12552   3.303   2.193  12.793
 3552SOL    HW112553   3.294   2.173  12.700
 3552SOL    HW212554   3.215   2.221  12.820
 3553SOL     OW12555  10.418   0.739   1.060
 3553SOL    HW112556  10.418   0.833   1.078
 3553SOL    HW212557  10.462   0.731   0.975
 3554SOL     OW12558   2.273   0.763   6.237
 3554SOL    HW112559   2.362   0.732   6.258
 3554SOL    HW212560   2.254   0.724   6.152
 3555SOL     OW12561  11.961   2.953   4.848
 3555SOL    HW112562  12.047   2.975   4.882
 3555SOL    HW212563  11.916   3.037   4.840
 3556SOL     OW12564  10.392   3.016   0.177
 3556SOL    HW112565  10.379   2.979   0.265
 3556SOL    HW212566  10.349   3.102   0.181
 3557SOL     OW12567   7.549  14.186   2.843
 3557SOL    HW112568   7.557  14.104   2.795
 3557SOL    HW212569   7.637  14.222   2.844
 3558SOL     OW12570  12.721  13.925   4.996
 3558SOL    HW112571  12.757  13.872   5.068
 3558SOL    HW212572  12.762  14.011   5.008
 3559SOL     OW12573   7.475   7.522   1.600
 3559SOL    HW112574   7.463   7.505   1.507
 3559SOL    HW212575   7.461   7.438   1.643
 3560SOL     OW12576   5.717   4.743   5.663
 3560SOL    HW112577   5.763   4.820   5.630
 3560SOL    HW212578   5.760   4.669   5.620
 3561SOL     OW12579  13.021   6.618   4.279
 3561SOL    HW112580  13.079   6.564   4.333
 3561SOL    HW212581  12.967   6.555   4.231
 3562SOL     OW12582  14.169  12.775  10.394
 3562SOL    HW112583  14.261  12.799  10.397
 3562SOL    HW212584  14.134  12.799  10.480
 3563SOL     OW12585   3.727   6.398   8.986
 3563SOL    HW112586   3.734   6.477   9.039
 3563SOL    HW212587   3.726   6.326   9.050
 3564SOL     OW12588  11.423  11.298   8.728
 3564SOL    HW112589  11.457  11.372   8.677
 3564SOL    HW212590  11.354  11.336   8.782
 3565SOL     OW12591  11.191   5.288   9.242
 3565SOL    HW112592  11.098   5.281   9.221
 3565SOL    HW212593  11.202   5.377   9.274
 3566SOL     OW12594  10.682   7.070  11.160
 3566SOL    HW112595  10.623   7.005  11.122
 3566SOL    HW212596  10.681   7.143  11.098
 3567SOL     OW12597  14.813   4.810  13.574
 3567SOL    HW112598  14.793   4.783  13.663
 3567SOL    HW212599  14.850   4.898  13.583
 3568SOL     OW12600   7.262  10.559  13.736
 3568SOL    HW112601   7.353  10.538  13.714
 3568SOL    HW212602   7.235  10.621  13.669
 3569SOL     OW12603   1.981  13.662   4.469
 3569SOL    HW112604   2.073  13.640   4.452
 3569SOL    HW212605   1.964  13.737   4.412
 3570SOL     OW12606   8.156   5.469  11.980
 3570SOL    HW112607   8.186   5.542  11.927
 3570SOL    HW212608   8.193   5.392  11.937
 3571SOL     OW12609  12.638  13.023   3.387
 3571SOL    HW112610  12.618  13.007   3.295
 3571SOL    HW212611  12.580  13.095   3.412
 3572SOL     OW12612   0.385   8.360   9.483
 3572SOL    HW112613   0.402   8.453   9.466
 3572SOL    HW212614   0.411   8.348   9.575
 3573SOL     OW12615   6.356  10.772   4.523
 3573SOL    HW112616   6.279  10.715   4.522
 3573SOL    HW212617   6.327  10.852   4.565
 3574SOL     OW12618  13.211   6.674   8.413
 3574SOL    HW112619  13.288   6.679   8.470
 3574SOL    HW212620  13.202   6.581   8.394
 3575SOL     OW12621  14.548  13.786   3.691
 3575SOL    HW112622  14.509  13.858   3.641
 3575SOL    HW212623  14.635  13.774   3.651
 3576SOL     OW12624   9.881  14.275   0.328
 3576SOL    HW112625   9.822  14.343   0.293
 3576SOL    HW212626   9.948  14.266   0.261
 3577SOL     OW12627   3.775   0.480  10.924
 3577SOL    HW112628   3.811   0.500  11.011
 3577SOL    HW212629   3.682   0.502  10.931
 3578SOL     OW12630  11.435   9.226   2.684
 3578SOL    HW112631  11.365   9.278   2.647
 3578SOL    HW212632  11.403   9.136   2.680
 3579SOL     OW12633  10.498   8.669  12.822
 3579SOL    HW112634  10.524   8.603  12.757
 3579SOL    HW212635  10.423   8.629  12.867
 3580SOL     OW12636   4.308  14.783   2.379
 3580SOL    HW112637   4.260  14.864   2.363
 3580SOL    HW212638   4.248  14.730   2.432
 3581SOL     OW12639  12.082   1.487   2.724
 3581SOL    HW112640  12.118   1.399   2.736
 3581SOL    HW212641  12.114   1.536   2.800
 3582SOL     OW12642  12.502   0.709   6.676
 3582SOL    HW112643  12.500   0.699   6.772
 3582SOL    HW212644  12.547   0.631   6.644
 3583SOL     OW12645  11.184  10.224   1.057
 3583SOL    HW112646  11.209  10.316   1.061
 3583SOL    HW212647  11.092  10.223   1.084
 3584SOL     OW12648   7.415   4.183   8.337
 3584SOL    HW112649   7.347   4.153   8.397
 3584SOL    HW212650   7.432   4.274   8.363
 3585SOL     OW12651   3.034   4.210   7.836
 3585SOL    HW112652   3.049   4.304   7.848
 3585SOL    HW212653   2.947   4.204   7.796
 3586SOL     OW12654  12.637   1.023  12.218
 3586SOL    HW112655  12.665   0.932  12.223
 3586SOL    HW212656  12.652   1.057  12.307
 3587SOL     OW12657  10.249  12.321   0.914
 3587SOL    HW112658  10.186  12.305   0.984
 3587SOL    HW212659  10.327  12.353   0.959
 3588SOL     OW12660   4.889   8.078  10.470
 3588SOL    HW112661   4.830   8.024  10.522
 3588SOL    HW212662   4.833   8.145  10.431
 3589SOL     OW12663   5.856   3.688   3.608
 3589SOL    HW112664   5.810   3.767   3.636
 3589SOL    HW212665   5.898   3.712   3.525
 3590SOL     OW12666  13.237   7.552   0.886
 3590SOL    HW112667  13.188   7.603   0.951
 3590SOL    HW212668  13.251   7.467   0.928
 3591SOL     OW12669   9.045   1.000  11.597
 3591SOL    HW112670   8.990   1.021  11.672
 3591SOL    HW212671   9.127   1.046  11.613
 3592SOL     OW12672   2.143   4.160   9.210
 3592SOL    HW112673   2.177   4.244   9.179
 3592SOL    HW212674   2.131   4.108   9.130
 3593SOL     OW12675   8.930   2.122   5.575
 3593SOL    HW112676   8.846   2.078   5.586
 3593SOL    HW212677   8.939   2.132   5.480
 3594SOL     OW12678   5.850  10.144   1.401
 3594SOL    HW112679   5.777  10.206   1.405
 3594SOL    HW212680   5.813  10.061   1.430
 3595SOL     OW12681   1.130   8.828  14.514
 3595SOL    HW112682   1.151   8.831  14.608
 3595SOL    HW212683   1.211   8.855  14.470
 3596SOL     OW12684   3.903   5.841  10.058
 3596SOL    HW112685   3.813   5.828  10.088
 3596SOL    HW212686   3.908   5.934  10.038
 3597SOL     OW12687  14.187   7.527  13.762
 3597SOL    HW112688  14.184   7.505  13.669
 3597SOL    HW212689  14.272   7.497  13.792
 3598SOL     OW12690   5.732   0.809  13.422
 3598SOL    HW112691   5.730   0.726  13.471
 3598SOL    HW212692   5.677   0.794  13.346
 3599SOL     OW12693  13.411   3.431   5.704
 3599SOL    HW112694  13.469   3.480   5.763
 3599SOL    HW212695  13.329   3.480   5.706
 3600SOL     OW12696  13.953  10.389  13.268
 3600SOL    HW112697  13.936  10.425  13.181
 3600SOL    HW212698  13.870  10.397  13.314
 3601SOL     OW12699  13.206   5.570   4.629
 3601SOL    HW112700  13.290   5.578   4.583
 3601SOL    HW212701  13.218   5.620   4.710
 3602SOL     OW12702  11.520   7.808   4.933
 3602SOL    HW112703  11.596   7.765   4.892
 3602SOL    HW212704  11.455   7.812   4.863
 3603SOL     OW12705   7.649   8.172   1.629
 3603SOL    HW112706   7.574   8.171   1.689
 3603SOL    HW212707   7.612   8.195   1.544
 3604SOL     OW12708   7.301   3.537   5.392
 3604SOL    HW112709   7.273   3.461   5.342
 3604SOL    HW212710   7.244   3.608   5.363
 3605SOL     OW12711   6.103   2.438  13.882
 3605SOL    HW112712   6.046   2.361  13.872
 3605SOL    HW212713   6.146   2.425  13.966
 3606SOL     OW12714   5.933   8.791   4.210
 3606SOL    HW112715   5.926   8.788   4.306
 3606SOL    HW212716   6.002   8.728   4.189
 3607SOL     OW12717  10.544  13.087  13.537
 3607SOL    HW112718  10.634  13.097  13.571
 3607SOL    HW212719  10.528  13.169  13.490
 3608SOL     OW12720  13.794   3.763   5.597
 3608SOL    HW112721  13.814   3.834   5.536
 3608SOL    HW212722  13.869   3.760   5.657
 3609SOL     OW12723  14.776   7.822   3.286
 3609SOL    HW112724  14.866   7.831   3.257
 3609SOL    HW212725  14.761   7.898   3.342
 3610SOL     OW12726  12.966  12.549   8.004
 3610SOL    HW112727  12.991  12.503   8.084
 3610SOL    HW212728  13.042  12.603   7.983
 3611SOL     OW12729  10.722   6.314   6.903
 3611SOL    HW112730  10.797   6.256   6.917
 3611SOL    HW212731  10.727   6.337   6.810
 3612SOL     OW12732   2.814   3.665  12.430
 3612SOL    HW112733   2.764   3.734  12.387
 3612SOL    HW212734   2.898   3.663  12.385
 3613SOL     OW12735  14.180  12.703  12.579
 3613SOL    HW112736  14.191  12.619  12.623
 3613SOL    HW212737  14.232  12.764  12.632
 3614SOL     OW12738   1.864   4.379   7.267
 3614SOL    HW112739   1.924   4.448   7.241
 3614SOL    HW212740   1.905   4.298   7.235
 3615SOL     OW12741   9.768   4.139  14.761
 3615SOL    HW112742   9.693   4.197  14.771
 3615SOL    HW212743   9.805   4.133  14.849
 3616SOL     OW12744   4.928  13.792  10.161
 3616SOL    HW112745   4.994  13.860  10.171
 3616SOL    HW212746   4.964  13.716  10.207
 3617SOL     OW12747   4.603   2.668   8.423
 3617SOL    HW112748   4.618   2.667   8.328
 3617SOL    HW212749   4.510   2.684   8.433
 3618SOL     OW12750   7.739   3.467  13.127
 3618SOL    HW112751   7.684   3.392  13.147
 3618SOL    HW212752   7.826   3.431  13.114
 3619SOL     OW12753   4.021   4.642   9.833
 3619SOL    HW112754   4.095   4.617   9.778
 3619SOL    HW212755   4.040   4.732   9.860
 3620SOL     OW12756  10.600   8.596   6.550
 3620SOL    HW112757  10.611   8.522   6.609
 3620SOL    HW212758  10.684   8.605   6.506
 3621SOL     OW12759  11.465   4.487   2.994
 3621SOL    HW112760  11.392   4.467   2.935
 3621SOL    HW212761  11.434   4.559   3.048
 3622SOL     OW12762  14.139   8.715   1.903
 3622SOL    HW112763  14.052   8.730   1.939
 3622SOL    HW212764  14.127   8.643   1.841
 3623SOL     OW12765  10.210  13.221   8.742
 3623SOL    HW112766  10.191  13.159   8.812
 3623SOL    HW212767  10.171  13.303   8.771
 3624SOL     OW12768  14.025  11.494   1.016
 3624SOL    HW112769  14.095  11.547   0.980
 3624SOL    HW212770  14.037  11.408   0.977
 3625SOL     OW12771   8.267   2.736   8.690
 3625SOL    HW112772   8.286   2.828   8.706
 3625SOL    HW212773   8.171   2.730   8.692
 3626SOL     OW12774   0.351  12.543   7.138
 3626SOL    HW112775   0.435  12.534   7.093
 3626SOL    HW212776   0.372  12.527   7.230
 3627SOL     OW12777  12.922   6.603   7.908
 3627SOL    HW112778  13.011   6.636   7.906
 3627SOL    HW212779  12.877   6.657   7.973
 3628SOL     OW12780   7.609   0.676  14.155
 3628SOL    HW112781   7.651   0.737  14.217
 3628SOL    HW212782   7.623   0.589  14.193
 3629SOL     OW12783   2.423  12.855   7.836
 3629SOL    HW112784   2.463  12.937   7.808
 3629SOL    HW212785   2.346  12.881   7.886
 3630SOL     OW12786  10.725   7.873   7.826
 3630SOL    HW112787  10.674   7.795   7.846
 3630SOL    HW212788  10.690   7.940   7.885
 3631SOL     OW12789   5.340   3.070   8.028
 3631SOL    HW112790   5.267   3.132   8.020
 3631SOL    HW212791   5.301   2.994   8.071
 3632SOL     OW12792   9.223  12.665   8.726
 3632SOL    HW112793   9.160  12.689   8.658
 3632SOL    HW212794   9.285  12.607   8.682
 3633SOL     OW12795   9.122  13.468  13.785
 3633SOL    HW112796   9.036  13.480  13.744
 3633SOL    HW212797   9.184  13.507  13.723
 3634SOL     OW12798   3.182   0.129   9.925
 3634SOL    HW112799   3.203   0.162  10.012
 3634SOL    HW212800   3.125   0.054   9.942
 3635SOL     OW12801  13.593   5.714  11.394
 3635SOL    HW112802  13.613   5.790  11.449
 3635SOL    HW212803  13.498   5.712  11.388
 3636SOL     OW12804  14.706   5.719   2.791
 3636SOL    HW112805  14.765   5.644   2.803
 3636SOL    HW212806  14.763   5.796   2.801
 3637SOL     OW12807   5.377   9.094   4.850
 3637SOL    HW112808   5.309   9.157   4.827
 3637SOL    HW212809   5.355   9.016   4.799
 3638SOL     OW12810   1.270   5.381   5.518
 3638SOL    HW112811   1.263   5.466   5.475
 3638SOL    HW212812   1.234   5.395   5.606
 3639SOL     OW12813   0.526   9.148   7.327
 3639SOL    HW112814   0.561   9.218   7.271
 3639SOL    HW212815   0.442   9.125   7.287
 3640SOL     OW12816   8.148   3.375   8.679
 3640SOL    HW112817   8.068   3.340   8.641
 3640SOL    HW212818   8.188   3.427   8.609
 3641SOL     OW12819   7.265  11.103  10.051
 3641SOL    HW112820   7.317  11.053  10.114
 3641SOL    HW212821   7.239  11.182  10.099
 3642SOL     OW12822  12.637   6.477   6.674
 3642SOL    HW112823  12.699   6.549   6.665
 3642SOL    HW212824  12.592   6.474   6.589
 3643SOL     OW12825   3.627   3.104   9.482
 3643SOL    HW112826   3.623   3.040   9.411
 3643SOL    HW212827   3.703   3.158   9.462
 3644SOL     OW12828  13.950  13.292  13.481
 3644SOL    HW112829  13.973  13.352  13.553
 3644SOL    HW212830  13.857  13.309  13.466
 3645SOL     OW12831   1.236   6.638  12.228
 3645SOL    HW112832   1.207   6.600  12.146
 3645SOL    HW212833   1.256   6.729  12.207
 3646SOL     OW12834  13.818   8.846   1.827
 3646SOL    HW112835  13.767   8.765   1.824
 3646SOL    HW212836  13.834   8.862   1.920
 3647SOL     OW12837   7.555   4.327  12.517
 3647SOL    HW112838   7.491   4.294  12.579
 3647SOL    HW212839   7.578   4.414  12.550
 3648SOL     OW12840   4.331   5.748   7.002
 3648SOL    HW112841   4.307   5.840   7.010
 3648SOL    HW212842   4.427   5.747   7.006
 3649SOL     OW12843   8.947  13.824  12.328
 3649SOL    HW112844   8.934  13.857  12.417
 3649SOL    HW212845   9.041  13.838  12.312
 3650SOL     OW12846  10.991   6.230   7.703
 3650SOL    HW112847  11.025   6.279   7.628
 3650SOL    HW212848  11.000   6.138   7.678
 3651SOL     OW12849   1.612   2.509  12.087
 3651SOL    HW112850   1.596   2.560  12.007
 3651SOL    HW212851   1.642   2.574  12.151
 3652SOL     OW12852  12.051  10.331   5.107
 3652SOL    HW112853  12.095  10.334   5.022
 3652SOL    HW212854  12.094  10.259   5.153
 3653SOL     OW12855   4.685  14.447   0.607
 3653SOL    HW112856   4.767  14.422   0.565
 3653SOL    HW212857   4.620  14.445   0.537
 3654SOL     OW12858   7.549  10.620   8.698
 3654SOL    HW112859   7.549  10.674   8.619
 3654SOL    HW212860   7.457  10.608   8.718
 3655SOL     OW12861   5.024   2.244   6.528
 3655SOL    HW112862   5.059   2.271   6.613
 3655SOL    HW212863   4.950   2.303   6.513
 3656SOL     OW12864  11.978   2.572   1.777
 3656SOL    HW112865  11.964   2.592   1.870
 3656SOL    HW212866  11.902   2.609   1.733
 3657SOL     OW12867   1.464  10.601  14.598
 3657SOL    HW112868   1.388  10.577  14.544
 3657SOL    HW212869   1.445  10.689  14.630
 3658SOL     OW12870  12.426  10.605  14.055
 3658SOL    HW112871  12.518  10.627  14.048
 3658SOL    HW212872  12.403  10.626  14.146
 3659SOL     OW12873   5.641  14.742  10.741
 3659SOL    HW112874   5.732  14.720  10.721
 3659SOL    HW212875   5.621  14.693  10.822
 3660SOL     OW12876   7.272   9.997   2.141
 3660SOL    HW112877   7.360   9.961   2.158
 3660SOL    HW212878   7.283  10.091   2.148
 3661SOL     OW12879  13.630  10.447   1.893
 3661SOL    HW112880  13.627  10.413   1.804
 3661SOL    HW212881  13.591  10.534   1.887
 3662SOL     OW12882   8.129   6.960  14.707
 3662SOL    HW112883   8.083   7.010  14.640
 3662SOL    HW212884   8.086   6.875  14.709
 3663SOL     OW12885   0.760   6.319   6.631
 3663SOL    HW112886   0.826   6.308   6.562
 3663SOL    HW212887   0.737   6.412   6.627
 3664SOL     OW12888   4.245   1.446   4.138
 3664SOL    HW112889   4.274   1.533   4.162
 3664SOL    HW212890   4.161   1.459   4.095
 3665SOL     OW12891   0.417   2.864  13.884
 3665SOL    HW112892   0.391   2.941  13.936
 3665SOL    HW212893   0.449   2.801  13.949
 3666SOL     OW12894   1.266  12.108  13.470
 3666SOL    HW112895   1.246  12.019  13.496
 3666SOL    HW212896   1.205  12.163  13.519
 3667SOL     OW12897   5.277   3.663   5.789
 3667SOL    HW112898   5.185   3.672   5.766
 3667SOL    HW212899   5.304   3.580   5.748
 3668SOL     OW12900   9.447  10.313   1.456
 3668SOL    HW112901   9.400  10.368   1.394
 3668SOL    HW212902   9.470  10.234   1.407
 3669SOL     OW12903   3.198  11.104   6.713
 3669SOL    HW112904   3.263  11.137   6.652
 3669SOL    HW212905   3.114  11.126   6.673
 3670SOL     OW12906   1.001  14.402  10.468
 3670SOL    HW112907   1.064  14.454  10.416
 3670SOL    HW212908   1.056  14.340  10.516
 3671SOL     OW12909   5.922   4.348   2.930
 3671SOL    HW112910   5.957   4.366   3.017
 3671SOL    HW212911   5.889   4.258   2.937
 3672SOL     OW12912   2.428  12.484  10.852
 3672SOL    HW112913   2.379  12.411  10.815
 3672SOL    HW212914   2.463  12.450  10.935
 3673SOL     OW12915   1.921  12.220  14.681
 3673SOL    HW112916   1.976  12.290  14.714
 3673SOL    HW212917   1.841  12.226  14.732
 3674SOL     OW12918   2.221   7.332   7.460
 3674SOL    HW112919   2.211   7.285   7.377
 3674SOL    HW212920   2.276   7.407   7.438
 3675SOL     OW12921   6.605   3.866  10.583
 3675SOL    HW112922   6.637   3.925  10.515
 3675SOL    HW212923   6.534   3.915  10.625
 3676SOL     OW12924   6.271   1.684   6.834
 3676SOL    HW112925   6.191   1.728   6.861
 3676SOL    HW212926   6.335   1.754   6.822
 3677SOL     OW12927   6.335  13.593  10.414
 3677SOL    HW112928   6.261  13.538  10.387
 3677SOL    HW212929   6.309  13.627  10.500
 3678SOL     OW12930   8.006  10.604   6.390
 3678SOL    HW112931   8.059  10.534   6.429
 3678SOL    HW212932   8.070  10.668   6.357
 3679SOL     OW12933   0.085  14.820  11.658
 3679SOL    HW112934   0.001  14.778  11.642
 3679SOL    HW212935   0.063   0.033  11.702
 3680SOL     OW12936   7.911   4.559  12.016
 3680SOL    HW112937   7.924   4.602  12.100
 3680SOL    HW212938   7.930   4.626  11.950
 3681SOL     OW12939   2.909   9.923   5.071
 3681SOL    HW112940   2.959   9.900   4.993
 3681SOL    HW212941   2.840   9.982   5.039
 3682SOL     OW12942  14.571   0.145   1.877
 3682SOL    HW112943  14.571   0.095   1.959
 3682SOL    HW212944  14.654   0.123   1.835
 3683SOL     OW12945   4.133   6.811   8.699
 3683SOL    HW112946   4.094   6.730   8.666
 3683SOL    HW212947   4.058   6.863   8.727
 3684SOL     OW12948   2.984   9.824   6.615
 3684SOL    HW112949   2.937   9.746   6.586
 3684SOL    HW212950   3.027   9.858   6.537
 3685SOL     OW12951   0.802   1.366  11.413
 3685SOL    HW112952   0.810   1.272  11.427
 3685SOL    HW212953   0.759   1.375  11.328
 3686SOL     OW12954   5.116  10.449  11.723
 3686SOL    HW112955   5.136  10.356  11.722
 3686SOL    HW212956   5.173  10.485  11.791
 3687SOL     OW12957  12.110   1.415   3.628
 3687SOL    HW112958  12.036   1.414   3.689
 3687SOL    HW212959  12.186   1.392   3.682
 3688SOL     OW12960  11.828   8.516   8.607
 3688SOL    HW112961  11.917   8.509   8.573
 3688SOL    HW212962  11.790   8.429   8.594
 3689SOL     OW12963   0.618  13.535   2.381
 3689SOL    HW112964   0.545  13.562   2.326
 3689SOL    HW212965   0.637  13.445   2.354
 3690SOL     OW12966   4.566   8.104   7.120
 3690SOL    HW112967   4.647   8.146   7.092
 3690SOL    HW212968   4.593   8.015   7.144
 3691SOL     OW12969  11.817   3.822   8.553
 3691SOL    HW112970  11.888   3.825   8.618
 3691SOL    HW212971  11.785   3.732   8.558
 3692SOL     OW12972   3.599   5.023   0.012
 3692SOL    HW112973   3.578   4.930   0.003
 3692SOL    HW212974   3.671   5.037  14.820
 3693SOL     OW12975   3.508  11.037  13.664
 3693SOL    HW112976   3.520  11.049  13.570
 3693SOL    HW212977   3.511  10.942  13.677
 3694SOL     OW12978  14.841  11.740  13.295
 3694SOL    HW112979  14.824  11.834  13.297
 3694SOL    HW212980   0.034  11.726  13.366
 3695SOL     OW12981   7.771  13.652   2.381
 3695SOL    HW112982   7.834  13.594   2.424
 3695SOL    HW212983   7.821  13.696   2.312
 3696SOL     OW12984   0.337   6.776   7.658
 3696SOL    HW112985   0.247   6.780   7.625
 3696SOL    HW212986   0.327   6.765   7.753
 3697SOL     OW12987   4.030  13.830   6.706
 3697SOL    HW112988   3.941  13.862   6.694
 3697SOL    HW212989   4.086  13.903   6.680
 3698SOL     OW12990   6.961   7.300  11.351
 3698SOL    HW112991   7.041   7.278  11.302
 3698SOL    HW212992   6.905   7.343  11.286
 3699SOL     OW12993  13.357   4.635   7.918
 3699SOL    HW112994  13.270   4.598   7.901
 3699SOL    HW212995  13.379   4.681   7.837
 3700SOL     OW12996   1.639   1.518   8.657
 3700SOL    HW112997   1.588   1.599   8.652
 3700SOL    HW212998   1.643   1.486   8.567
 3701SOL     OW12999   0.508   1.518   9.319
 3701SOL    HW113000   0.573   1.519   9.249
 3701SOL    HW213001   0.535   1.447   9.377
 3702SOL     OW13002  14.155  14.534   5.796
 3702SOL    HW113003  14.224  14.599   5.807
 3702SOL    HW213004  14.189  14.475   5.728
 3703SOL     OW13005   9.332  14.174   0.834
 3703SOL    HW113006   9.421  14.168   0.868
 3703SOL    HW213007   9.281  14.207   0.908
 3704SOL     OW13008  12.573  10.185  12.093
 3704SOL    HW113009  12.635  10.158  12.026
 3704SOL    HW213010  12.592  10.128  12.168
 3705SOL     OW13011   0.813   2.174   4.746
 3705SOL    HW113012   0.770   2.244   4.795
 3705SOL    HW213013   0.753   2.100   4.752
 3706SOL     OW13014   8.531  14.120  12.422
 3706SOL    HW113015   8.554  14.032  12.391
 3706SOL    HW213016   8.449  14.141  12.378
 3707SOL     OW13017  10.781   1.106   6.635
 3707SOL    HW113018  10.873   1.100   6.660
 3707SOL    HW213019  10.757   1.017   6.610
 3708SOL     OW13020   3.659   1.022  13.619
 3708SOL    HW113021   3.731   0.987  13.566
 3708SOL    HW213022   3.580   0.992  13.574
 3709SOL     OW13023  10.888   8.200   2.068
 3709SOL    HW113024  10.811   8.229   2.020
 3709SOL    HW213025  10.952   8.178   2.001
 3710SOL     OW13026  14.242   4.970  10.616
 3710SOL    HW113027  14.283   4.911  10.679
 3710SOL    HW213028  14.154   4.935  10.604
 3711SOL     OW13029   9.753  12.217   4.551
 3711SOL    HW113030   9.788  12.306   4.560
 3711SOL    HW213031   9.813  12.174   4.489
 3712SOL     OW13032   7.242  10.076   7.399
 3712SOL    HW113033   7.270  10.168   7.398
 3712SOL    HW213034   7.189  10.067   7.478
 3713SOL     OW13035   8.013   0.697   1.334
 3713SOL    HW113036   8.056   0.617   1.304
 3713SOL    HW213037   8.045   0.709   1.423
 3714SOL     OW13038  11.920   6.760  13.557
 3714SOL    HW113039  11.927   6.701  13.482
 3714SOL    HW213040  11.837   6.736  13.599
 3715SOL     OW13041   6.281  12.185   6.026
 3715SOL    HW113042   6.300  12.276   6.050
 3715SOL    HW213043   6.226  12.192   5.948
 3716SOL     OW13044   0.274  12.613   0.998
 3716SOL    HW113045   0.308  12.558   0.927
 3716SOL    HW213046   0.221  12.679   0.953
 3717SOL     OW13047  10.406   5.253   2.717
 3717SOL    HW113048  10.464   5.183   2.687
 3717SOL    HW213049  10.463   5.330   2.725
 3718SOL     OW13050  14.157  12.460   6.479
 3718SOL    HW113051  14.177  12.370   6.450
 3718SOL    HW213052  14.079  12.451   6.534
 3719SOL     OW13053   7.084  10.137   4.072
 3719SOL    HW113054   7.046  10.225   4.068
 3719SOL    HW213055   7.174  10.151   4.100
 3720SOL     OW13056  10.782   1.734   0.120
 3720SOL    HW113057  10.818   1.700   0.038
 3720SOL    HW213058  10.717   1.799   0.092
 3721SOL     OW13059   5.142   4.040   0.166
 3721SOL    HW113060   5.193   4.110   0.126
 3721SOL    HW213061   5.064   4.083   0.200
 3722SOL     OW13062   8.608   5.288  10.604
 3722SOL    HW113063   8.625   5.268  10.512
 3722SOL    HW213064   8.687   5.333  10.634
 3723SOL     OW13065   4.562  12.940  11.359
 3723SOL    HW113066   4.571  13.013  11.419
 3723SOL    HW213067   4.469  12.940  11.335
 3724SOL     OW13068  10.853   0.664   3.456
 3724SOL    HW113069  10.792   0.679   3.383
 3724SOL    HW213070  10.817   0.714   3.528
 3725SOL     OW13071   1.049   9.728   8.150
 3725SOL    HW113072   1.067   9.739   8.243
 3725SOL    HW213073   1.090   9.804   8.108
 3726SOL     OW13074  13.498  14.642  12.902
 3726SOL    HW113075  13.496  14.711  12.968
 3726SOL    HW213076  13.580  14.656  12.854
 3727SOL     OW13077   0.143   9.526  13.237
 3727SOL    HW113078   0.087   9.567  13.303
 3727SOL    HW213079   0.082   9.492  13.172
 3728SOL     OW13080  10.320   6.951  14.375
 3728SOL    HW113081  10.337   6.859  14.353
 3728SOL    HW213082  10.232   6.968  14.341
 3729SOL     OW13083   0.106  10.051  14.590
 3729SOL    HW113084   0.132   9.985  14.526
 3729SOL    HW213085   0.121  10.010  14.675
 3730SOL     OW13086  13.767   8.273   7.293
 3730SOL    HW113087  13.750   8.261   7.386
 3730SOL    HW213088  13.681   8.273   7.252
 3731SOL     OW13089  13.674   8.263   9.499
 3731SOL    HW113090  13.593   8.228   9.462
 3731SOL    HW213091  13.663   8.358   9.496
 3732SOL     OW13092  11.248   2.823  13.111
 3732SOL    HW113093  11.237   2.889  13.043
 3732SOL    HW213094  11.222   2.868  13.192
 3733SOL     OW13095  13.969   2.932   8.284
 3733SOL    HW113096  14.051   2.911   8.329
 3733SOL    HW213097  13.995   2.996   8.218
 3734SOL     OW13098  11.460   0.458   1.415
 3734SOL    HW113099  11.519   0.486   1.345
 3734SOL    HW213100  11.517   0.417   1.480
 3735SOL     OW13101   0.180  12.026  12.167
 3735SOL    HW113102   0.238  12.101  12.183
 3735SOL    HW213103   0.238  11.950  12.170
 3736SOL     OW13104   4.893   3.865   2.364
 3736SOL    HW113105   4.836   3.817   2.423
 3736SOL    HW213106   4.973   3.813   2.360
 3737SOL     OW13107   2.555   0.582  12.562
 3737SOL    HW113108   2.535   0.640  12.636
 3737SOL    HW213109   2.473   0.537  12.545
 3738SOL     OW13110  14.009  12.450   3.551
 3738SOL    HW113111  14.085  12.505   3.570
 3738SOL    HW213112  13.988  12.469   3.459
 3739SOL     OW13113   9.542   5.319   0.687
 3739SOL    HW113114   9.488   5.342   0.611
 3739SOL    HW213115   9.591   5.399   0.707
 3740SOL     OW13116   1.621   7.228   6.487
 3740SOL    HW113117   1.643   7.321   6.490
 3740SOL    HW213118   1.704   7.184   6.504
 3741SOL     OW13119   5.283   7.154   1.854
 3741SOL    HW113120   5.218   7.164   1.923
 3741SOL    HW213121   5.252   7.081   1.801
 3742SOL     OW13122   6.678   1.785   1.688
 3742SOL    HW113123   6.632   1.752   1.765
 3742SOL    HW213124   6.771   1.768   1.706
 3743SOL     OW13125  11.030   7.549   6.280
 3743SOL    HW113126  11.078   7.571   6.200
 3743SOL    HW213127  10.983   7.630   6.302
 3744SOL     OW13128   0.374   0.518   8.452
 3744SOL    HW113129   0.375   0.596   8.507
 3744SOL    HW213130   0.393   0.551   8.364
 3745SOL     OW13131   8.076   7.489  12.647
 3745SOL    HW113132   8.146   7.505  12.710
 3745SOL    HW213133   8.061   7.573  12.605
 3746SOL     OW13134   6.307  14.563  13.106
 3746SOL    HW113135   6.241  14.553  13.174
 3746SOL    HW213136   6.273  14.632  13.050
 3747SOL     OW13137  11.158  11.908   3.507
 3747SOL    HW113138  11.167  11.864   3.591
 3747SOL    HW213139  11.086  11.970   3.520
 3748SOL     OW13140   0.899  11.944   7.266
 3748SOL    HW113141   0.932  11.865   7.222
 3748SOL    HW213142   0.954  12.015   7.231
 3749SOL     OW13143  13.383  12.392   7.446
 3749SOL    HW113144  13.434  12.353   7.517
 3749SOL    HW213145  13.314  12.442   7.490
 3750SOL     OW13146  12.072  11.893   7.188
 3750SOL    HW113147  12.121  11.811   7.184
 3750SOL    HW213148  12.108  11.938   7.265
 3751SOL     OW13149   5.786  14.530   4.963
 3751SOL    HW113150   5.879  14.510   4.962
 3751SOL    HW213151   5.766  14.547   5.055
 3752SOL     OW13152   1.346   6.458   7.384
 3752SOL    HW113153   1.270   6.457   7.442
 3752SOL    HW213154   1.335   6.381   7.328
 3753SOL     OW13155  10.224   9.108   8.863
 3753SOL    HW113156  10.237   9.043   8.793
 3753SOL    HW213157  10.219   9.056   8.943
 3754SOL     OW13158  10.097  10.720  10.112
 3754SOL    HW113159  10.099  10.787  10.180
 3754SOL    HW213160  10.053  10.762  10.038
 3755SOL     OW13161   1.065  13.767   4.489
 3755SOL    HW113162   1.143  13.785   4.436
 3755SOL    HW213163   1.032  13.853   4.513
 3756SOL     OW13164  14.789   7.134  10.868
 3756SOL    HW113165  14.804   7.159  10.777
 3756SOL    HW213166  14.827   7.046  10.876
 3757SOL     OW13167  11.961  11.897   4.000
 3757SOL    HW113168  11.898  11.855   3.942
 3757SOL    HW213169  12.028  11.831   4.017
 3758SOL     OW13170   4.822   2.386   8.450
 3758SOL    HW113171   4.851   2.459   8.394
 3758SOL    HW213172   4.875   2.395   8.529
 3759SOL     OW13173   7.461   8.965   5.137
 3759SOL    HW113174   7.512   8.991   5.214
 3759SOL    HW213175   7.398   9.036   5.124
 3760SOL     OW13176  11.776   4.692  13.009
 3760SOL    HW113177  11.807   4.636  12.938
 3760SOL    HW213178  11.856   4.732  13.045
 3761SOL     OW13179   7.044  10.632  11.730
 3761SOL    HW113180   7.032  10.705  11.792
 3761SOL    HW213181   7.118  10.659  11.676
 3762SOL     OW13182   2.332  11.547   6.305
 3762SOL    HW113183   2.403  11.483   6.315
 3762SOL    HW213184   2.258  11.497   6.271
 3763SOL     OW13185   9.735   7.521  14.098
 3763SOL    HW113186   9.747   7.579  14.173
 3763SOL    HW213187   9.796   7.448  14.114
 3764SOL     OW13188   2.354  10.646   6.640
 3764SOL    HW113189   2.360  10.638   6.544
 3764SOL    HW213190   2.291  10.578   6.665
 3765SOL     OW13191   6.061   4.179  11.485
 3765SOL    HW113192   5.970   4.178  11.454
 3765SOL    HW213193   6.114   4.175  11.406
 3766SOL     OW13194   5.395   5.839   5.961
 3766SOL    HW113195   5.437   5.883   5.887
 3766SOL    HW213196   5.381   5.749   5.930
 3767SOL     OW13197  12.099  13.334   8.320
 3767SOL    HW113198  12.080  13.321   8.413
 3767SOL    HW213199  12.105  13.429   8.310
 3768SOL     OW13200   5.650  11.953   1.392
 3768SOL    HW113201   5.669  11.920   1.304
 3768SOL    HW213202   5.584  12.021   1.378
 3769SOL     OW13203   1.763   9.954   8.802
 3769SOL    HW113204   1.718   9.966   8.719
 3769SOL    HW213205   1.747   9.863   8.826
 3770SOL     OW13206  11.690  14.853  12.498
 3770SOL    HW113207  11.609  14.855  12.549
 3770SOL    HW213208  11.749   0.043  12.545
 3771SOL     OW13209   0.802   3.736  12.175
 3771SOL    HW113210   0.851   3.806  12.132
 3771SOL    HW213211   0.719   3.732  12.128
 3772SOL     OW13212  11.279   5.710   2.324
 3772SOL    HW113213  11.327   5.695   2.405
 3772SOL    HW213214  11.238   5.796   2.335
 3773SOL     OW13215  10.570  12.752   1.364
 3773SOL    HW113216  10.502  12.797   1.314
 3773SOL    HW213217  10.593  12.813   1.434
 3774SOL     OW13218   9.183   7.725  12.228
 3774SOL    HW113219   9.140   7.671  12.162
 3774SOL    HW213220   9.157   7.815  12.207
 3775SOL     OW13221   3.783   9.635   9.365
 3775SOL    HW113222   3.848   9.573   9.332
 3775SOL    HW213223   3.743   9.672   9.287
 3776SOL     OW13224  14.695   4.998   8.266
 3776SOL    HW113225  14.737   5.064   8.321
 3776SOL    HW213226  14.749   4.920   8.275
 3777SOL     OW13227   8.279   8.862   2.028
 3777SOL    HW113228   8.263   8.849   2.121
 3777SOL    HW213229   8.250   8.780   1.987
 3778SOL     OW13230   5.975  11.931  13.648
 3778SOL    HW113231   5.943  11.884  13.725
 3778SOL    HW213232   5.903  11.927  13.585
 3779SOL     OW13233   2.172   5.428   8.735
 3779SOL    HW113234   2.241   5.405   8.673
 3779SOL    HW213235   2.095   5.381   8.703
 3780SOL     OW13236  10.841   9.655   5.362
 3780SOL    HW113237  10.928   9.621   5.342
 3780SOL    HW213238  10.793   9.650   5.280
 3781SOL     OW13239  14.428  14.206  12.031
 3781SOL    HW113240  14.435  14.292  12.073
 3781SOL    HW213241  14.375  14.154  12.092
 3782SOL     OW13242  13.459   8.269  10.855
 3782SOL    HW113243  13.450   8.279  10.950
 3782SOL    HW213244  13.550   8.294  10.837
 3783SOL     OW13245  11.707  12.366   4.576
 3783SOL    HW113246  11.724  12.275   4.552
 3783SOL    HW213247  11.677  12.363   4.666
 3784SOL     OW13248  12.457   2.791   1.612
 3784SOL    HW113249  12.469   2.868   1.556
 3784SOL    HW213250  12.517   2.806   1.685
 3785SOL     OW13251  12.195  10.901   3.524
 3785SOL    HW113252  12.275  10.918   3.474
 3785SOL    HW213253  12.215  10.824   3.577
 3786SOL     OW13254   6.403   3.570   0.217
 3786SOL    HW113255   6.334   3.627   0.185
 3786SOL    HW213256   6.410   3.501   0.151
 3787SOL     OW13257  12.616  14.150  12.534
 3787SOL    HW113258  12.614  14.089  12.461
 3787SOL    HW213259  12.708  14.154  12.560
 3788SOL     OW13260   7.554   8.279   8.337
 3788SOL    HW113261   7.506   8.351   8.379
 3788SOL    HW213262   7.572   8.311   8.249
 3789SOL     OW13263   5.951   2.356   0.894
 3789SOL    HW113264   5.858   2.336   0.885
 3789SOL    HW213265   5.957   2.408   0.974
 3790SOL     OW13266  11.290   3.415  14.230
 3790SOL    HW113267  11.341   3.365  14.293
 3790SOL    HW213268  11.221   3.355  14.202
 3791SOL     OW13269   8.456  14.663  12.171
 3791SOL    HW113270   8.368  14.699  12.182
 3791SOL    HW213271   8.497  14.720  12.106
 3792SOL     OW13272   5.411   9.375   5.177
 3792SOL    HW113273   5.332   9.429   5.179
 3792SOL    HW213274   5.382   9.290   5.145
 3793SOL     OW13275   5.212  12.288   6.744
 3793SOL    HW113276   5.120  12.285   6.719
 3793SOL    HW213277   5.247  12.365   6.699
 3794SOL     OW13278   2.859  12.244  12.146
 3794SOL    HW113279   2.920  12.182  12.106
 3794SOL    HW213280   2.892  12.330  12.119
 3795SOL     OW13281   2.654  13.312   5.430
 3795SOL    HW113282   2.738  13.275   5.458
 3795SOL    HW213283   2.614  13.345   5.510
 3796SOL     OW13284   7.210  12.822   3.251
 3796SOL    HW113285   7.277  12.806   3.184
 3796SOL    HW213286   7.134  12.854   3.201
 3797SOL     OW13287  12.593  14.273   2.063
 3797SOL    HW113288  12.537  14.197   2.048
 3797SOL    HW213289  12.658  14.243   2.126
 3798SOL     OW13290   5.431   9.862   4.092
 3798SOL    HW113291   5.446   9.889   4.001
 3798SOL    HW213292   5.518   9.864   4.132
 3799SOL     OW13293  10.113   7.218   9.535
 3799SOL    HW113294  10.059   7.245   9.460
 3799SOL    HW213295  10.140   7.129   9.514
 3800SOL     OW13296  14.828   5.905  10.187
 3800SOL    HW113297   0.003   5.989  10.196
 3800SOL    HW213298  14.777   5.913  10.106
 3801SOL     OW13299   9.582  10.949   2.694
 3801SOL    HW113300   9.549  11.035   2.719
 3801SOL    HW213301   9.619  10.962   2.607
 3802SOL     OW13302  11.888   9.024   6.608
 3802SOL    HW113303  11.797   9.026   6.581
 3802SOL    HW213304  11.909   9.115   6.631
 3803SOL     OW13305   0.251   4.920   4.247
 3803SOL    HW113306   0.286   4.987   4.306
 3803SOL    HW213307   0.159   4.943   4.237
 3804SOL     OW13308  10.877  12.738  13.457
 3804SOL    HW113309  10.864  12.791  13.378
 3804SOL    HW213310  10.850  12.795  13.529
 3805SOL     OW13311   8.299   3.481   9.385
 3805SOL    HW113312   8.250   3.443   9.312
 3805SOL    HW213313   8.247   3.557   9.411
 3806SOL     OW13314   9.190   2.443   0.909
 3806SOL    HW113315   9.239   2.457   0.990
 3806SOL    HW213316   9.224   2.360   0.875
 3807SOL     OW13317  11.338  14.114   6.107
 3807SOL    HW113318  11.307  14.024   6.096
 3807SOL    HW213319  11.323  14.155   6.021
 3808SOL     OW13320  11.855   2.449  12.192
 3808SOL    HW113321  11.905   2.378  12.232
 3808SOL    HW213322  11.911   2.480  12.120
 3809SOL     OW13323   0.045   7.309  12.121
 3809SOL    HW113324   0.139   7.304  12.137
 3809SOL    HW213325   0.026   7.235  12.064
 3810SOL     OW13326  12.456  12.587   0.362
 3810SOL    HW113327  12.502  12.671   0.367
 3810SOL    HW213328  12.374  12.601   0.410
 3811SOL     OW13329   9.218   2.676  12.722
 3811SOL    HW113330   9.126   2.699  12.712
 3811SOL    HW213331   9.257   2.750  12.769
 3812SOL     OW13332  11.369   1.459   6.024
 3812SOL    HW113333  11.295   1.403   5.998
 3812SOL    HW213334  11.350   1.544   5.984
 3813SOL     OW13335   3.302   0.350   3.088
 3813SOL    HW113336   3.218   0.337   3.132
 3813SOL    HW213337   3.330   0.438   3.114
 3814SOL     OW13338   9.530   3.513  11.883
 3814SOL    HW113339   9.561   3.450  11.818
 3814SOL    HW213340   9.510   3.461  11.961
 3815SOL     OW13341   4.797  10.847   1.918
 3815SOL    HW113342   4.789  10.781   1.849
 3815SOL    HW213343   4.802  10.797   1.999
 3816SOL     OW13344  11.483   1.352   1.271
 3816SOL    HW113345  11.405   1.305   1.301
 3816SOL    HW213346  11.513   1.303   1.195
 3817SOL     OW13347  12.761   2.109   0.059
 3817SOL    HW113348  12.744   2.120   0.153
 3817SOL    HW213349  12.800   2.022   0.052
 3818SOL     OW13350  13.818   9.847   9.292
 3818SOL    HW113351  13.910   9.831   9.273
 3818SOL    HW213352  13.818   9.901   9.371
 3819SOL     OW13353   1.137  13.941  13.663
 3819SOL    HW113354   1.196  13.930  13.589
 3819SOL    HW213355   1.074  14.008  13.633
 3820SOL     OW13356   2.266   5.306   3.211
 3820SOL    HW113357   2.312   5.389   3.207
 3820SOL    HW213358   2.187   5.325   3.262
 3821SOL     OW13359   8.881   8.884  13.515
 3821SOL    HW113360   8.927   8.873  13.432
 3821SOL    HW213361   8.913   8.968  13.549
 3822SOL     OW13362  13.617   3.281   5.006
 3822SOL    HW113363  13.609   3.244   4.918
 3822SOL    HW213364  13.590   3.211   5.064
 3823SOL     OW13365   4.315  14.708   8.492
 3823SOL    HW113366   4.228  14.696   8.453
 3823SOL    HW213367   4.305  14.682   8.583
 3824SOL     OW13368  12.008   1.540   6.044
 3824SOL    HW113369  11.976   1.462   5.999
 3824SOL    HW213370  12.101   1.545   6.021
 3825SOL     OW13371   6.765   3.758   7.257
 3825SOL    HW113372   6.735   3.750   7.348
 3825SOL    HW213373   6.695   3.807   7.213
 3826SOL     OW13374   6.450   9.041  10.528
 3826SOL    HW113375   6.523   8.988  10.559
 3826SOL    HW213376   6.486   9.130  10.521
 3827SOL     OW13377   6.172   8.010   2.525
 3827SOL    HW113378   6.085   8.043   2.503
 3827SOL    HW213379   6.198   8.058   2.604
 3828SOL     OW13380  11.941   9.909   5.219
 3828SOL    HW113381  11.854   9.945   5.201
 3828SOL    HW213382  11.968   9.869   5.136
 3829SOL     OW13383  10.074   8.903   5.549
 3829SOL    HW113384  10.021   8.975   5.512
 3829SOL    HW213385  10.080   8.923   5.642
 3830SOL     OW13386   3.234  13.562   6.921
 3830SOL    HW113387   3.145  13.535   6.943
 3830SOL    HW213388   3.229  13.657   6.913
 3831SOL     OW13389   0.975   3.552   8.581
 3831SOL    HW113390   0.941   3.617   8.519
 3831SOL    HW213391   0.897   3.510   8.617
 3832SOL     OW13392  14.543   3.953  14.409
 3832SOL    HW113393  14.515   4.011  14.338
 3832SOL    HW213394  14.486   3.975  14.483
 3833SOL     OW13395   2.799  10.828   1.316
 3833SOL    HW113396   2.877  10.850   1.367
 3833SOL    HW213397   2.828  10.761   1.255
 3834SOL     OW13398   0.504  11.989  10.882
 3834SOL    HW113399   0.521  11.954  10.970
 3834SOL    HW213400   0.584  11.973  10.834
 3835SOL     OW13401   3.378   7.960  12.673
 3835SOL    HW113402   3.330   7.895  12.620
 3835SOL    HW213403   3.310   8.000  12.728
 3836SOL     OW13404   4.628   3.539   5.645
 3836SOL    HW113405   4.563   3.498   5.589
 3836SOL    HW213406   4.695   3.573   5.585
 3837SOL     OW13407   2.723   5.099   9.288
 3837SOL    HW113408   2.660   5.115   9.218
 3837SOL    HW213409   2.786   5.171   9.280
 3838SOL     OW13410  11.672   3.138   1.138
 3838SOL    HW113411  11.758   3.175   1.120
 3838SOL    HW213412  11.681   3.045   1.115
 3839SOL     OW13413   8.767  11.190   1.410
 3839SOL    HW113414   8.788  11.156   1.323
 3839SOL    HW213415   8.837  11.157   1.467
 3840SOL     OW13416   4.598   2.906   1.134
 3840SOL    HW113417   4.590   2.985   1.188
 3840SOL    HW213418   4.594   2.834   1.198
 3841SOL     OW13419  11.678   4.959   1.621
 3841SOL    HW113420  11.771   4.936   1.630
 3841SOL    HW213421  11.679   5.046   1.581
 3842SOL     OW13422   1.783  13.940   9.957
 3842SOL    HW113423   1.711  13.970   9.902
 3842SOL    HW213424   1.751  13.857   9.994
 3843SOL     OW13425   6.214  11.834   5.200
 3843SOL    HW113426   6.253  11.838   5.287
 3843SOL    HW213427   6.288  11.828   5.140
 3844SOL     OW13428   9.342  11.852  13.299
 3844SOL    HW113429   9.434  11.826  13.294
 3844SOL    HW213430   9.297  11.796  13.235
 3845SOL     OW13431   9.275  12.032   8.196
 3845SOL    HW113432   9.238  11.944   8.203
 3845SOL    HW213433   9.200  12.090   8.205
 3846SOL     OW13434   5.690  11.688  13.679
 3846SOL    HW113435   5.658  11.605  13.714
 3846SOL    HW213436   5.710  11.669  13.587
 3847SOL     OW13437   2.285   3.995   2.890
 3847SOL    HW113438   2.329   4.078   2.907
 3847SOL    HW213439   2.351   3.941   2.846
 3848SOL     OW13440   2.793  14.473   1.222
 3848SOL    HW113441   2.836  14.393   1.192
 3848SOL    HW213442   2.854  14.544   1.200
 3849SOL     OW13443   8.823   5.772   5.335
 3849SOL    HW113444   8.917   5.784   5.324
 3849SOL    HW213445   8.788   5.861   5.334
 3850SOL     OW13446  13.730   3.214   1.004
 3850SOL    HW113447  13.807   3.158   1.008
 3850SOL    HW213448  13.765   3.303   0.992
 3851SOL     OW13449   8.354  12.113   6.839
 3851SOL    HW113450   8.381  12.076   6.923
 3851SOL    HW213451   8.272  12.068   6.818
 3852SOL     OW13452   0.747   8.026  12.437
 3852SOL    HW113453   0.657   8.050  12.417
 3852SOL    HW213454   0.740   7.943  12.485
 3853SOL     OW13455  10.223   0.922   5.209
 3853SOL    HW113456  10.226   0.880   5.294
 3853SOL    HW213457  10.309   0.904   5.170
 3854SOL     OW13458  12.825   4.224  10.998
 3854SOL    HW113459  12.775   4.143  11.013
 3854SOL    HW213460  12.825   4.234  10.903
 3855SOL     OW13461  10.032  13.383   5.682
 3855SOL    HW113462   9.960  13.446   5.694
 3855SOL    HW213463  10.005  13.306   5.733
 3856SOL     OW13464  13.700   9.417  12.639
 3856SOL    HW113465  13.649   9.341  12.668
 3856SOL    HW213466  13.655   9.492  12.676
 3857SOL     OW13467   9.996   3.000   6.871
 3857SOL    HW113468  10.081   2.956   6.878
 3857SOL    HW213469   9.943   2.942   6.815
 3858SOL     OW13470   2.411   1.136   3.701
 3858SOL    HW113471   2.413   1.088   3.618
 3858SOL    HW213472   2.373   1.075   3.764
 3859SOL     OW13473  13.744   1.768   3.898
 3859SOL    HW113474  13.828   1.785   3.941
 3859SOL    HW213475  13.730   1.673   3.908
 3860SOL     OW13476  10.151   7.028  14.826
 3860SOL    HW113477  10.108   7.101  14.781
 3860SOL    HW213478  10.244   7.042  14.809
 3861SOL     OW13479   9.493   0.361   8.345
 3861SOL    HW113480   9.575   0.386   8.304
 3861SOL    HW213481   9.500   0.394   8.435
 3862SOL     OW13482   7.573   3.240   1.544
 3862SOL    HW113483   7.523   3.249   1.624
 3862SOL    HW213484   7.520   3.183   1.488
 3863SOL     OW13485   7.895   8.558  10.899
 3863SOL    HW113486   7.986   8.590  10.905
 3863SOL    HW213487   7.884   8.534  10.808
 3864SOL     OW13488  11.205   6.821   1.886
 3864SOL    HW113489  11.127   6.849   1.934
 3864SOL    HW213490  11.171   6.769   1.813
 3865SOL     OW13491   9.819  11.531   7.691
 3865SOL    HW113492   9.857  11.561   7.773
 3865SOL    HW213493   9.765  11.455   7.715
 3866SOL     OW13494   4.100   4.066   8.749
 3866SOL    HW113495   4.186   4.024   8.746
 3866SOL    HW213496   4.046   4.005   8.800
 3867SOL     OW13497  10.177   7.605  11.742
 3867SOL    HW113498  10.260   7.635  11.707
 3867SOL    HW213499  10.193   7.593  11.836
 3868SOL     OW13500   7.412   5.101   8.066
 3868SOL    HW113501   7.448   5.163   8.129
 3868SOL    HW213502   7.488   5.055   8.030
 3869SOL     OW13503   7.543  12.585   2.849
 3869SOL    HW113504   7.568  12.504   2.893
 3869SOL    HW213505   7.588  12.582   2.765
 3870SOL     OW13506   4.862   2.180  14.387
 3870SOL    HW113507   4.870   2.086  14.370
 3870SOL    HW213508   4.947   2.206  14.422
 3871SOL     OW13509   6.050   7.608  11.348
 3871SOL    HW113510   6.104   7.568  11.417
 3871SOL    HW213511   5.980   7.652  11.395
 3872SOL     OW13512  11.634   6.310   8.440
 3872SOL    HW113513  11.665   6.312   8.350
 3872SOL    HW213514  11.549   6.354   8.437
 3873SOL     OW13515   7.114  14.580   2.222
 3873SOL    HW113516   7.134  14.554   2.312
 3873SOL    HW213517   7.164  14.519   2.168
 3874SOL     OW13518   6.275   0.613  11.102
 3874SOL    HW113519   6.279   0.656  11.188
 3874SOL    HW213520   6.232   0.529  11.120
 3875SOL     OW13521   4.636   5.613  10.977
 3875SOL    HW113522   4.592   5.555  11.038
 3875SOL    HW213523   4.636   5.565  10.894
 3876SOL     OW13524  12.169   8.069   5.853
 3876SOL    HW113525  12.235   8.119   5.902
 3876SOL    HW213526  12.152   8.122   5.775
 3877SOL     OW13527  10.220   6.312  11.572
 3877SOL    HW113528  10.257   6.241  11.625
 3877SOL    HW213529  10.213   6.274  11.484
 3878SOL     OW13530   8.485   4.018   6.130
 3878SOL    HW113531   8.393   3.993   6.131
 3878SOL    HW213532   8.520   3.986   6.213
 3879SOL     OW13533   1.143  10.743  13.785
 3879SOL    HW113534   1.177  10.765  13.698
 3879SOL    HW213535   1.062  10.694  13.768
 3880SOL     OW13536   0.888   2.722   7.719
 3880SOL    HW113537   0.816   2.783   7.738
 3880SOL    HW213538   0.859   2.675   7.641
 3881SOL     OW13539  10.029   9.902   3.524
 3881SOL    HW113540   9.952   9.925   3.576
 3881SOL    HW213541  10.036   9.807   3.531
 3882SOL     OW13542   7.869   5.282   1.406
 3882SOL    HW113543   7.946   5.308   1.357
 3882SOL    HW213544   7.844   5.360   1.456
 3883SOL     OW13545  12.628   2.840   8.739
 3883SOL    HW113546  12.659   2.816   8.652
 3883SOL    HW213547  12.662   2.771   8.797
 3884SOL     OW13548  12.334   0.808   9.297
 3884SOL    HW113549  12.388   0.734   9.269
 3884SOL    HW213550  12.395   0.871   9.333
 3885SOL     OW13551   2.693   7.259   0.063
 3885SOL    HW113552   2.751   7.288  14.862
 3885SOL    HW213553   2.707   7.322   0.133
 3886SOL     OW13554  11.999  11.490   6.539
 3886SOL    HW113555  11.993  11.458   6.449
 3886SOL    HW213556  11.910  11.482   6.573
 3887SOL     OW13557   9.534  14.468  10.521
 3887SOL    HW113558   9.547  14.512  10.605
 3887SOL    HW213559   9.521  14.376  10.544
 3888SOL     OW13560  13.103   5.190   6.268
 3888SOL    HW113561  13.177   5.211   6.211
 3888SOL    HW213562  13.027   5.226   6.222
 3889SOL     OW13563  14.821   3.537   5.624
 3889SOL    HW113564  14.779   3.596   5.562
 3889SOL    HW213565  14.827   3.454   5.577
 3890SOL     OW13566   8.559   0.318  11.766
 3890SOL    HW113567   8.473   0.359  11.754
 3890SOL    HW213568   8.593   0.307  11.677
 3891SOL     OW13569   2.505   0.268   0.243
 3891SOL    HW113570   2.507   0.282   0.148
 3891SOL    HW213571   2.412   0.260   0.264
 3892SOL     OW13572   2.669   1.898   3.751
 3892SOL    HW113573   2.714   1.948   3.683
 3892SOL    HW213574   2.652   1.813   3.711
 3893SOL     OW13575   5.855   2.394   8.886
 3893SOL    HW113576   5.769   2.360   8.860
 3893SOL    HW213577   5.856   2.387   8.981
 3894SOL     OW13578  12.797   1.954   9.080
 3894SOL    HW113579  12.774   2.025   9.020
 3894SOL    HW213580  12.879   1.919   9.045
 3895SOL     OW13581   8.259   0.379   7.111
 3895SOL    HW113582   8.229   0.462   7.148
 3895SOL    HW213583   8.180   0.339   7.075
 3896SOL     OW13584  14.819   4.898   8.760
 3896SOL    HW113585  14.850   4.987   8.777
 3896SOL    HW213586  14.736   4.892   8.808
 3897SOL     OW13587  14.092   5.982   8.250
 3897SOL    HW113588  14.104   5.951   8.160
 3897SOL    HW213589  14.062   6.072   8.240
 3898SOL     OW13590   3.030   7.643   2.293
 3898SOL    HW113591   3.113   7.691   2.293
 3898SOL    HW213592   3.018   7.616   2.384
 3899SOL     OW13593   5.389   8.643  10.982
 3899SOL    HW113594   5.403   8.699  10.905
 3899SOL    HW213595   5.295   8.650  11.000
 3900SOL     OW13596  14.568   4.211   3.979
 3900SOL    HW113597  14.547   4.138   4.038
 3900SOL    HW213598  14.605   4.278   4.037
 3901SOL     OW13599  14.549  14.807   0.112
 3901SOL    HW113600  14.476  14.864   0.135
 3901SOL    HW213601  14.509  14.734   0.065
 3902SOL     OW13602  10.746   7.356   5.231
 3902SOL    HW113603  10.721   7.432   5.178
 3902SOL    HW213604  10.670   7.339   5.286
 3903SOL     OW13605   9.341   8.296   0.697
 3903SOL    HW113606   9.346   8.215   0.747
 3903SOL    HW213607   9.387   8.361   0.751
 3904SOL     OW13608   0.894   6.539   3.442
 3904SOL    HW113609   0.985   6.529   3.414
 3904SOL    HW213610   0.890   6.626   3.481
 3905SOL     OW13611  11.320   7.874  13.974
 3905SOL    HW113612  11.396   7.845  13.924
 3905SOL    HW213613  11.345   7.858  14.066
 3906SOL     OW13614   1.141  10.038   3.872
 3906SOL    HW113615   1.097  10.043   3.787
 3906SOL    HW213616   1.226   9.999   3.854
 3907SOL     OW13617  14.547  12.517   2.644
 3907SOL    HW113618  14.466  12.515   2.593
 3907SOL    HW213619  14.615  12.534   2.578
 3908SOL     OW13620  10.184   0.366  13.033
 3908SOL    HW113621  10.127   0.423  13.084
 3908SOL    HW213622  10.270   0.408  13.036
 3909SOL     OW13623   6.428   0.305  10.269
 3909SOL    HW113624   6.458   0.319  10.358
 3909SOL    HW213625   6.410   0.211  10.264
 3910SOL     OW13626   6.791   5.908   4.374
 3910SOL    HW113627   6.833   5.827   4.347
 3910SOL    HW213628   6.711   5.880   4.419
 3911SOL     OW13629  14.412   5.190  11.245
 3911SOL    HW113630  14.400   5.150  11.331
 3911SOL    HW213631  14.478   5.258  11.259
 3912SOL     OW13632   5.205  10.994   8.746
 3912SOL    HW113633   5.129  10.944   8.717
 3912SOL    HW213634   5.219  10.966   8.836
 3913SOL     OW13635  12.103   8.175  10.572
 3913SOL    HW113636  12.040   8.234  10.532
 3913SOL    HW213637  12.100   8.196  10.665
 3914SOL     OW13638   8.895  14.710   1.149
 3914SOL    HW113639   8.867  14.702   1.240
 3914SOL    HW213640   8.991  14.708   1.153
 3915SOL     OW13641  11.615   4.573  14.720
 3915SOL    HW113642  11.642   4.663  14.741
 3915SOL    HW213643  11.646   4.559  14.630
 3916SOL     OW13644   9.247   4.297   1.568
 3916SOL    HW113645   9.219   4.247   1.645
 3916SOL    HW213646   9.342   4.288   1.567
 3917SOL     OW13647  12.882   0.972   4.512
 3917SOL    HW113648  12.975   0.997   4.513
 3917SOL    HW213649  12.841   1.032   4.574
 3918SOL     OW13650   1.422   5.113   7.830
 3918SOL    HW113651   1.462   5.051   7.769
 3918SOL    HW213652   1.475   5.193   7.822
 3919SOL     OW13653  14.837  13.618  13.778
 3919SOL    HW113654  14.774  13.586  13.714
 3919SOL    HW213655  14.784  13.655  13.848
 3920SOL     OW13656   1.356   0.880  14.270
 3920SOL    HW113657   1.438   0.899  14.315
 3920SOL    HW213658   1.327   0.964  14.236
 3921SOL     OW13659   5.049   1.823   2.837
 3921SOL    HW113660   5.052   1.809   2.742
 3921SOL    HW213661   5.045   1.735   2.874
 3922SOL     OW13662   5.035   9.481   3.717
 3922SOL    HW113663   4.999   9.453   3.801
 3922SOL    HW213664   4.964   9.531   3.676
 3923SOL     OW13665   3.128  11.876   6.393
 3923SOL    HW113666   3.034  11.892   6.394
 3923SOL    HW213667   3.167  11.961   6.414
 3924SOL     OW13668   7.872  11.074   2.444
 3924SOL    HW113669   7.793  11.112   2.483
 3924SOL    HW213670   7.944  11.121   2.485
 3925SOL     OW13671   7.302  10.756   7.637
 3925SOL    HW113672   7.293  10.785   7.546
 3925SOL    HW213673   7.214  10.732   7.664
 3926SOL     OW13674   2.511  10.668   9.322
 3926SOL    HW113675   2.539  10.687   9.232
 3926SOL    HW213676   2.442  10.732   9.339
 3927SOL     OW13677  14.040   5.837  10.452
 3927SOL    HW113678  14.017   5.791  10.534
 3927SOL    HW213679  14.107   5.781  10.412
 3928SOL     OW13680  10.405   8.829   5.065
 3928SOL    HW113681  10.371   8.768   5.000
 3928SOL    HW213682  10.499   8.810   5.069
 3929SOL     OW13683   9.852  11.227  10.171
 3929SOL    HW113684   9.774  11.237  10.117
 3929SOL    HW213685   9.820  11.231  10.261
 3930SOL     OW13686  12.608  11.900  10.353
 3930SOL    HW113687  12.611  11.815  10.398
 3930SOL    HW213688  12.688  11.901  10.300
 3931SOL     OW13689   7.989  11.696  14.792
 3931SOL    HW113690   7.936  11.759  14.842
 3931SOL    HW213691   8.024  11.637  14.859
 3932SOL     OW13692   6.026   5.770   8.885
 3932SOL    HW113693   6.026   5.719   8.804
 3932SOL    HW213694   5.998   5.708   8.953
 3933SOL     OW13695   9.473  13.174   0.010
 3933SOL    HW113696   9.378  13.165   0.016
 3933SOL    HW213697   9.500  13.104  14.820
 3934SOL     OW13698   3.526   3.776   9.384
 3934SOL    HW113699   3.538   3.845   9.451
 3934SOL    HW213700   3.438   3.743   9.400
 3935SOL     OW13701   7.568   8.682   7.818
 3935SOL    HW113702   7.520   8.612   7.862
 3935SOL    HW213703   7.531   8.763   7.853
 3936SOL     OW13704   1.651   8.378  13.385
 3936SOL    HW113705   1.715   8.448  13.372
 3936SOL    HW213706   1.661   8.322  13.308
 3937SOL     OW13707   0.741   8.017   3.417
 3937SOL    HW113708   0.787   7.953   3.361
 3937SOL    HW213709   0.734   8.096   3.363
 3938SOL     OW13710   3.699  13.603   4.382
 3938SOL    HW113711   3.740  13.525   4.345
 3938SOL    HW213712   3.761  13.635   4.447
 3939SOL     OW13713   6.456  13.843  10.865
 3939SOL    HW113714   6.489  13.932  10.860
 3939SOL    HW213715   6.362  13.853  10.878
 3940SOL     OW13716  14.596   8.642  10.406
 3940SOL    HW113717  14.680   8.679  10.434
 3940SOL    HW213718  14.620   8.576  10.342
 3941SOL     OW13719   6.780  11.853  13.905
 3941SOL    HW113720   6.749  11.794  13.974
 3941SOL    HW213721   6.793  11.936  13.950
 3942SOL     OW13722  14.663   4.546  11.619
 3942SOL    HW113723  14.597   4.518  11.682
 3942SOL    HW213724  14.697   4.628  11.653
 3943SOL     OW13725   5.047  14.460   6.698
 3943SOL    HW113726   5.021  14.390   6.757
 3943SOL    HW213727   4.966  14.510   6.683
 3944SOL     OW13728  10.671   5.587  11.186
 3944SOL    HW113729  10.731   5.622  11.121
 3944SOL    HW213730  10.643   5.663  11.237
 3945SOL     OW13731  10.660   3.794   9.919
 3945SOL    HW113732  10.574   3.792   9.877
 3945SOL    HW213733  10.699   3.877   9.892
 3946SOL     OW13734   8.057   1.755   9.071
 3946SOL    HW113735   7.983   1.782   9.017
 3946SOL    HW213736   8.024   1.754   9.160
 3947SOL     OW13737   6.627   6.992   4.246
 3947SOL    HW113738   6.603   6.965   4.335
 3947SOL    HW213739   6.722   7.006   4.251
 3948SOL     OW13740   1.518   4.307   0.190
 3948SOL    HW113741   1.562   4.226   0.167
 3948SOL    HW213742   1.583   4.355   0.242
 3949SOL     OW13743   2.942   0.916   3.692
 3949SOL    HW113744   2.993   0.971   3.632
 3949SOL    HW213745   2.933   0.969   3.771
 3950SOL     OW13746  14.832   5.424   0.490
 3950SOL    HW113747   0.036   5.402   0.547
 3950SOL    HW213748  14.771   5.472   0.546
 3951SOL     OW13749   6.469   5.053   2.858
 3951SOL    HW113750   6.502   4.964   2.844
 3951SOL    HW213751   6.460   5.061   2.952
 3952SOL     OW13752  10.475   6.868   2.358
 3952SOL    HW113753  10.433   6.805   2.417
 3952SOL    HW213754  10.424   6.949   2.370
 3953SOL     OW13755   4.056   0.598  13.990
 3953SOL    HW113756   4.051   0.623  14.082
 3953SOL    HW213757   4.143   0.560  13.980
 3954SOL     OW13758   8.805   5.314   6.679
 3954SOL    HW113759   8.715   5.333   6.655
 3954SOL    HW213760   8.829   5.382   6.741
 3955SOL     OW13761   9.495   5.144  13.828
 3955SOL    HW113762   9.478   5.064  13.878
 3955SOL    HW213763   9.491   5.214  13.893
 3956SOL     OW13764   1.797   6.897   2.963
 3956SOL    HW113765   1.720   6.946   2.936
 3956SOL    HW213766   1.866   6.927   2.905
 3957SOL     OW13767   4.235   9.192   4.240
 3957SOL    HW113768   4.288   9.113   4.227
 3957SOL    HW213769   4.152   9.159   4.276
 3958SOL     OW13770   9.387  10.840   8.573
 3958SOL    HW113771   9.451  10.832   8.502
 3958SOL    HW213772   9.439  10.834   8.653
 3959SOL     OW13773   2.862   0.625   0.410
 3959SOL    HW113774   2.908   0.563   0.466
 3959SOL    HW213775   2.893   0.711   0.440
 3960SOL     OW13776  13.715   4.716   0.585
 3960SOL    HW113777  13.779   4.679   0.525
 3960SOL    HW213778  13.636   4.665   0.570
 3961SOL     OW13779   6.406  13.868   1.249
 3961SOL    HW113780   6.343  13.871   1.177
 3961SOL    HW213781   6.491  13.883   1.209
 3962SOL     OW13782   0.353   6.561   5.731
 3962SOL    HW113783   0.318   6.477   5.761
 3962SOL    HW213784   0.293   6.626   5.766
 3963SOL     OW13785   5.186  14.524  11.033
 3963SOL    HW113786   5.237  14.489  10.959
 3963SOL    HW213787   5.095  14.508  11.008
 3964SOL     OW13788  12.546  12.026   7.748
 3964SOL    HW113789  12.523  12.117   7.731
 3964SOL    HW213790  12.472  11.991   7.797
 3965SOL     OW13791   0.069   4.735  10.856
 3965SOL    HW113792   0.047   4.734  10.950
 3965SOL    HW213793   0.069   4.828  10.833
 3966SOL     OW13794  10.458   9.387   9.432
 3966SOL    HW113795  10.503   9.306   9.453
 3966SOL    HW213796  10.495   9.415   9.349
 3967SOL     OW13797   4.254  11.514  14.734
 3967SOL    HW113798   4.273  11.426  14.701
 3967SOL    HW213799   4.233  11.502  14.826
 3968SOL     OW13800  10.824   6.192  12.379
 3968SOL    HW113801  10.777   6.219  12.300
 3968SOL    HW213802  10.759   6.201  12.449
 3969SOL     OW13803  12.229  10.681   3.704
 3969SOL    HW113804  12.227  10.606   3.765
 3969SOL    HW213805  12.292  10.741   3.743
 3970SOL     OW13806  14.659   0.455   1.040
 3970SOL    HW113807  14.720   0.441   0.968
 3970SOL    HW213808  14.664   0.374   1.091
 3971SOL     OW13809   7.555   8.594  14.678
 3971SOL    HW113810   7.613   8.602  14.754
 3971SOL    HW213811   7.476   8.553  14.712
 3972SOL     OW13812   6.282   4.751   8.654
 3972SOL    HW113813   6.335   4.697   8.713
 3972SOL    HW213814   6.236   4.688   8.599
 3973SOL     OW13815   5.711   3.789   3.043
 3973SOL    HW113816   5.704   3.884   3.050
 3973SOL    HW213817   5.804   3.771   3.058
 3974SOL     OW13818   7.203  11.496   0.359
 3974SOL    HW113819   7.258  11.500   0.280
 3974SOL    HW213820   7.253  11.442   0.420
 3975SOL     OW13821   4.413  13.663  11.370
 3975SOL    HW113822   4.445  13.576  11.343
 3975SOL    HW213823   4.338  13.644  11.427
 3976SOL     OW13824   4.768  13.064   6.577
 3976SOL    HW113825   4.677  13.085   6.558
 3976SOL    HW213826   4.803  13.143   6.618
 3977SOL     OW13827   6.656  14.454  13.916
 3977SOL    HW113828   6.625  14.503  13.992
 3977SOL    HW213829   6.729  14.402  13.950
 3978SOL     OW13830   2.716   4.717   9.505
 3978SOL    HW113831   2.747   4.807   9.515
 3978SOL    HW213832   2.680   4.715   9.416
 3979SOL     OW13833  14.618   6.301   8.624
 3979SOL    HW113834  14.677   6.291   8.548
 3979SOL    HW213835  14.559   6.372   8.599
 3980SOL     OW13836  10.178   4.381   3.001
 3980SOL    HW113837  10.111   4.327   2.958
 3980SOL    HW213838  10.179   4.349   3.092
 3981SOL     OW13839  14.309   6.714  14.636
 3981SOL    HW113840  14.322   6.734  14.729
 3981SOL    HW213841  14.263   6.790  14.601
 3982SOL     OW13842   7.767   5.526   9.719
 3982SOL    HW113843   7.693   5.499   9.666
 3982SOL    HW213844   7.732   5.536   9.808
 3983SOL     OW13845   1.658   1.907   4.937
 3983SOL    HW113846   1.654   1.932   5.030
 3983SOL    HW213847   1.710   1.976   4.896
 3984SOL     OW13848   2.029   1.820  10.538
 3984SOL    HW113849   2.056   1.911  10.549
 3984SOL    HW213850   2.073   1.773  10.608
 3985SOL     OW13851   2.638   8.052   8.044
 3985SOL    HW113852   2.603   8.072   8.131
 3985SOL    HW213853   2.732   8.040   8.058
 3986SOL     OW13854  11.618   7.202   2.747
 3986SOL    HW113855  11.539   7.162   2.783
 3986SOL    HW213856  11.645   7.267   2.812
 3987SOL     OW13857  11.569  11.352   6.248
 3987SOL    HW113858  11.480  11.367   6.282
 3987SOL    HW213859  11.612  11.301   6.316
 3988SOL     OW13860   4.600  10.628   2.784
 3988SOL    HW113861   4.682  10.655   2.744
 3988SOL    HW213862   4.612  10.536   2.806
 3989SOL     OW13863  13.887   0.189   3.144
 3989SOL    HW113864  13.869   0.261   3.083
 3989SOL    HW213865  13.895   0.231   3.229
 3990SOL     OW13866   3.667   5.146  11.214
 3990SOL    HW113867   3.661   5.135  11.309
 3990SOL    HW213868   3.690   5.059  11.182
 3991SOL     OW13869   2.368   9.316   6.765
 3991SOL    HW113870   2.358   9.227   6.733
 3991SOL    HW213871   2.361   9.371   6.687
 3992SOL     OW13872   2.762  12.076   8.536
 3992SOL    HW113873   2.813  12.087   8.617
 3992SOL    HW213874   2.828  12.063   8.468
 3993SOL     OW13875   4.054   6.873   9.831
 3993SOL    HW113876   4.035   6.912   9.745
 3993SOL    HW213877   4.132   6.919   9.862
 3994SOL     OW13878   5.741  12.484   6.784
 3994SOL    HW113879   5.711  12.461   6.696
 3994SOL    HW213880   5.787  12.567   6.773
 3995SOL     OW13881   5.196   6.007  12.600
 3995SOL    HW113882   5.120   5.950  12.606
 3995SOL    HW213883   5.226   6.016  12.691
 3996SOL     OW13884  12.025   2.661  11.284
 3996SOL    HW113885  12.024   2.683  11.377
 3996SOL    HW213886  11.935   2.676  11.255
 3997SOL     OW13887   0.259   7.270   1.115
 3997SOL    HW113888   0.227   7.181   1.101
 3997SOL    HW213889   0.290   7.298   1.029
 3998SOL     OW13890  12.874   3.699   5.218
 3998SOL    HW113891  12.786   3.670   5.193
 3998SOL    HW213892  12.871   3.795   5.211
 3999SOL     OW13893   8.464   3.037   2.116
 3999SOL    HW113894   8.368   3.037   2.124
 3999SOL    HW213895   8.483   2.959   2.063
 4000SOL     OW13896   8.480   7.280   0.170
 4000SOL    HW113897   8.425   7.326   0.234
 4000SOL    HW213898   8.501   7.197   0.213
 4001SOL     OW13899   8.374   3.153  13.540
 4001SOL    HW113900   8.390   3.110  13.624
 4001SOL    HW213901   8.372   3.246  13.560
 4002SOL     OW13902   6.432   5.975   0.347
 4002SOL    HW113903   6.404   5.958   0.437
 4002SOL    HW213904   6.462   6.066   0.348
 4003SOL     OW13905   6.107   6.199   5.328
 4003SOL    HW113906   6.152   6.216   5.411
 4003SOL    HW213907   6.159   6.130   5.286
 4004SOL     OW13908  14.756  10.591   7.428
 4004SOL    HW113909  14.660  10.589   7.430
 4004SOL    HW213910  14.782  10.566   7.516
 4005SOL     OW13911   2.073  12.516   6.189
 4005SOL    HW113912   2.137  12.551   6.127
 4005SOL    HW213913   2.060  12.425   6.162
 4006SOL     OW13914   8.269  13.326  14.512
 4006SOL    HW113915   8.213  13.397  14.543
 4006SOL    HW213916   8.260  13.329  14.417
 4007SOL     OW13917   7.513  13.192   1.015
 4007SOL    HW113918   7.473  13.275   1.039
 4007SOL    HW213919   7.446  13.146   0.964
 4008SOL     OW13920  13.677   4.050   6.929
 4008SOL    HW113921  13.633   4.036   7.014
 4008SOL    HW213922  13.623   4.116   6.885
 4009SOL     OW13923   4.080   1.351   6.029
 4009SOL    HW113924   4.002   1.387   5.986
 4009SOL    HW213925   4.045   1.288   6.092
 4010SOL     OW13926   8.572   2.336   1.459
 4010SOL    HW113927   8.482   2.308   1.478
 4010SOL    HW213928   8.575   2.427   1.489
 4011SOL     OW13929   6.883   9.454   4.642
 4011SOL    HW113930   6.856   9.373   4.685
 4011SOL    HW213931   6.979   9.454   4.650
 4012SOL     OW13932  14.262  14.539  11.438
 4012SOL    HW113933  14.221  14.620  11.406
 4012SOL    HW213934  14.341  14.569  11.483
 4013SOL     OW13935   0.888   5.556   0.957
 4013SOL    HW113936   0.844   5.498   0.894
 4013SOL    HW213937   0.980   5.528   0.954
 4014SOL     OW13938   4.713   7.874   2.630
 4014SOL    HW113939   4.705   7.844   2.539
 4014SOL    HW213940   4.630   7.852   2.671
 4015SOL     OW13941  10.675   3.337   2.470
 4015SOL    HW113942  10.643   3.327   2.559
 4015SOL    HW213943  10.619   3.279   2.418
 4016SOL     OW13944  13.373   7.695   2.510
 4016SOL    HW113945  13.279   7.703   2.528
 4016SOL    HW213946  13.394   7.605   2.535
 4017SOL     OW13947  10.936   2.394  11.344
 4017SOL    HW113948  10.926   2.330  11.415
 4017SOL    HW213949  10.973   2.343  11.271
 4018SOL     OW13950   0.823   2.296   1.704
 4018SOL    HW113951   0.769   2.263   1.632
 4018SOL    HW213952   0.778   2.267   1.783
 4019SOL     OW13953   9.281   5.783  12.997
 4019SOL    HW113954   9.314   5.872  12.999
 4019SOL    HW213955   9.244   5.773  12.910
 4020SOL     OW13956   1.434   5.398   4.444
 4020SOL    HW113957   1.520   5.394   4.401
 4020SOL    HW213958   1.446   5.460   4.515
 4021SOL     OW13959  10.232   0.319   3.569
 4021SOL    HW113960  10.162   0.255   3.581
 4021SOL    HW213961  10.302   0.289   3.628
 4022SOL     OW13962   4.671  14.355   3.059
 4022SOL    HW113963   4.682  14.310   2.976
 4022SOL    HW213964   4.747  14.413   3.067
 4023SOL     OW13965   2.836   8.465   0.024
 4023SOL    HW113966   2.913   8.409   0.025
 4023SOL    HW213967   2.868   8.550  14.863
 4024SOL     OW13968   5.541  12.581   8.815
 4024SOL    HW113969   5.547  12.543   8.727
 4024SOL    HW213970   5.630  12.610   8.835
 4025SOL     OW13971   8.731  11.894  14.158
 4025SOL    HW113972   8.803  11.907  14.220
 4025SOL    HW213973   8.769  11.840  14.089
 4026SOL     OW13974   5.926   8.631   3.098
 4026SOL    HW113975   5.935   8.620   3.004
 4026SOL    HW213976   5.862   8.565   3.123
 4027SOL     OW13977   7.652   6.459  12.259
 4027SOL    HW113978   7.638   6.547  12.223
 4027SOL    HW213979   7.634   6.401  12.185
 4028SOL     OW13980   8.721   3.955  12.325
 4028SOL    HW113981   8.776   3.941  12.402
 4028SOL    HW213982   8.764   3.906  12.255
 4029SOL     OW13983   2.585   4.780   4.218
 4029SOL    HW113984   2.566   4.861   4.266
 4029SOL    HW213985   2.672   4.794   4.182
 4030SOL     OW13986  10.180   7.678  12.442
 4030SOL    HW113987  10.253   7.652  12.498
 4030SOL    HW213988  10.218   7.686  12.355
 4031SOL     OW13989   4.360   9.057   1.173
 4031SOL    HW113990   4.446   9.095   1.153
 4031SOL    HW213991   4.378   8.964   1.188
 4032SOL     OW13992   0.720  12.043   8.620
 4032SOL    HW113993   0.641  12.076   8.577
 4032SOL    HW213994   0.714  12.076   8.710
 4033SOL     OW13995  12.044  13.485   4.229
 4033SOL    HW113996  12.009  13.496   4.140
 4033SOL    HW213997  11.966  13.472   4.283
 4034SOL     OW13998  10.743  14.298  11.773
 4034SOL    HW113999  10.764  14.208  11.800
 4034SOL    HW214000  10.812  14.321  11.711
 4035SOL     OW14001  11.990  10.330   7.079
 4035SOL    HW114002  11.968  10.418   7.049
 4035SOL    HW214003  12.079  10.338   7.113
 4036SOL     OW14004   1.081  10.269   1.698
 4036SOL    HW114005   1.132  10.347   1.717
 4036SOL    HW214006   1.005  10.301   1.650
 4037SOL     OW14007  14.296  10.535   1.244
 4037SOL    HW114008  14.228  10.584   1.289
 4037SOL    HW214009  14.376  10.555   1.293
 4038SOL     OW14010  11.806   4.618  11.212
 4038SOL    HW114011  11.720   4.604  11.252
 4038SOL    HW214012  11.869   4.602  11.282
 4039SOL     OW14013   6.473  13.479   9.015
 4039SOL    HW114014   6.425  13.424   9.077
 4039SOL    HW214015   6.478  13.426   8.935
 4040SOL     OW14016   4.257  14.291  10.476
 4040SOL    HW114017   4.320  14.354  10.441
 4040SOL    HW214018   4.180  14.299  10.420
 4041SOL     OW14019   7.597   6.561  10.500
 4041SOL    HW114020   7.595   6.656  10.510
 4041SOL    HW214021   7.578   6.545  10.408
 4042SOL     OW14022   8.891   2.240   0.269
 4042SOL    HW114023   8.869   2.173   0.334
 4042SOL    HW214024   8.982   2.224   0.247
 4043SOL     OW14025   3.226   5.353   4.813
 4043SOL    HW114026   3.278   5.359   4.893
 4043SOL    HW214027   3.142   5.393   4.834
 4044SOL     OW14028   9.563   7.950   6.480
 4044SOL    HW114029   9.613   7.911   6.407
 4044SOL    HW214030   9.631   7.981   6.540
 4045SOL     OW14031   7.033   8.576   0.107
 4045SOL    HW114032   7.010   8.553   0.017
 4045SOL    HW214033   7.064   8.666   0.102
 4046SOL     OW14034   2.268   6.245  13.316
 4046SOL    HW114035   2.278   6.155  13.347
 4046SOL    HW214036   2.349   6.262  13.266
 4047SOL     OW14037   7.992   2.854   7.255
 4047SOL    HW114038   8.021   2.810   7.175
 4047SOL    HW214039   8.071   2.896   7.289
 4048SOL     OW14040  14.078   8.189  13.214
 4048SOL    HW114041  14.108   8.158  13.300
 4048SOL    HW214042  14.085   8.285  13.220
 4049SOL     OW14043  10.289  10.608   5.027
 4049SOL    HW114044  10.194  10.595   5.027
 4049SOL    HW214045  10.301  10.698   5.055
 4050SOL     OW14046  13.733   8.069   2.995
 4050SOL    HW114047  13.741   8.001   3.062
 4050SOL    HW214048  13.642   8.064   2.967
 4051SOL     OW14049   9.744  11.087   0.546
 4051SOL    HW114050   9.755  11.050   0.634
 4051SOL    HW214051   9.794  11.168   0.548
 4052SOL     OW14052   6.724   8.626   1.399
 4052SOL    HW114053   6.703   8.610   1.307
 4052SOL    HW214054   6.668   8.699   1.424
 4053SOL     OW14055   9.240   7.973   3.422
 4053SOL    HW114056   9.148   7.997   3.436
 4053SOL    HW214057   9.276   7.964   3.510
 4054SOL     OW14058   4.368   0.908   8.413
 4054SOL    HW114059   4.309   0.955   8.472
 4054SOL    HW214060   4.369   0.961   8.333
 4055SOL     OW14061   3.870   1.546   5.979
 4055SOL    HW114062   3.794   1.554   6.038
 4055SOL    HW214063   3.841   1.485   5.911
 4056SOL     OW14064   3.729  10.473   5.079
 4056SOL    HW114065   3.638  10.454   5.056
 4056SOL    HW214066   3.726  10.561   5.116
 4057SOL     OW14067  13.652   3.170   9.156
 4057SOL    HW114068  13.586   3.105   9.132
 4057SOL    HW214069  13.723   3.156   9.093
 4058SOL     OW14070   3.081  14.120   4.003
 4058SOL    HW114071   3.006  14.179   4.011
 4058SOL    HW214072   3.139  14.162   3.940
 4059SOL     OW14073  10.691   5.502   4.146
 4059SOL    HW114074  10.777   5.530   4.176
 4059SOL    HW214075  10.665   5.570   4.083
 4060SOL     OW14076  11.766   3.718   9.560
 4060SOL    HW114077  11.758   3.655   9.631
 4060SOL    HW214078  11.793   3.667   9.484
 4061SOL     OW14079  11.147  12.169  11.790
 4061SOL    HW114080  11.156  12.177  11.695
 4061SOL    HW214081  11.219  12.222  11.825
 4062SOL     OW14082   7.340   8.851   6.532
 4062SOL    HW114083   7.301   8.911   6.468
 4062SOL    HW214084   7.422   8.823   6.491
 4063SOL     OW14085   2.556  10.066   1.692
 4063SOL    HW114086   2.504  10.069   1.611
 4063SOL    HW214087   2.523   9.989   1.739
 4064SOL     OW14088   3.353  10.537  11.410
 4064SOL    HW114089   3.396  10.452  11.409
 4064SOL    HW214090   3.290  10.532  11.483
 4065SOL     OW14091  11.173   1.686   2.380
 4065SOL    HW114092  11.236   1.743   2.337
 4065SOL    HW214093  11.088   1.710   2.342
 4066SOL     OW14094   5.299   7.830  10.849
 4066SOL    HW114095   5.361   7.776  10.799
 4066SOL    HW214096   5.213   7.808  10.814
 4067SOL     OW14097  11.104   9.252  10.451
 4067SOL    HW114098  11.095   9.172  10.400
 4067SOL    HW214099  11.083   9.227  10.540
 4068SOL     OW14100   2.685   9.497   7.659
 4068SOL    HW114101   2.658   9.425   7.602
 4068SOL    HW214102   2.708   9.568   7.598
 4069SOL     OW14103  11.947   1.366  10.055
 4069SOL    HW114104  11.879   1.299  10.042
 4069SOL    HW214105  12.028   1.316  10.065
 4070SOL     OW14106   1.812   8.205  10.712
 4070SOL    HW114107   1.867   8.161  10.776
 4070SOL    HW214108   1.871   8.263  10.665
 4071SOL     OW14109  12.838   2.187   4.283
 4071SOL    HW114110  12.847   2.183   4.378
 4071SOL    HW214111  12.788   2.108   4.260
 4072SOL     OW14112  10.677   4.481   5.437
 4072SOL    HW114113  10.590   4.441   5.426
 4072SOL    HW214114  10.664   4.573   5.415
 4073SOL     OW14115   7.616  14.579  12.611
 4073SOL    HW114116   7.578  14.492  12.603
 4073SOL    HW214117   7.710  14.565  12.604
 4074SOL     OW14118   3.089   3.412   8.898
 4074SOL    HW114119   3.065   3.429   8.807
 4074SOL    HW214120   3.148   3.484   8.921
 4075SOL     OW14121   2.470   5.598   4.321
 4075SOL    HW114122   2.398   5.660   4.332
 4075SOL    HW214123   2.499   5.578   4.410
 4076SOL     OW14124  12.355   4.390  10.282
 4076SOL    HW114125  12.428   4.335  10.257
 4076SOL    HW214126  12.287   4.371  10.217
 4077SOL     OW14127  13.311   3.175   8.204
 4077SOL    HW114128  13.244   3.192   8.138
 4077SOL    HW214129  13.392   3.163   8.154
 4078SOL     OW14130   4.442   5.041   1.106
 4078SOL    HW114131   4.493   5.122   1.099
 4078SOL    HW214132   4.464   4.992   1.027
 4079SOL     OW14133   6.878   1.526  13.733
 4079SOL    HW114134   6.838   1.524  13.646
 4079SOL    HW214135   6.969   1.552  13.717
 4080SOL     OW14136   0.138   4.136   0.365
 4080SOL    HW114137   0.163   4.118   0.456
 4080SOL    HW214138   0.091   4.219   0.369
 4081SOL     OW14139   9.051   0.125  11.008
 4081SOL    HW114140   8.965   0.089  10.983
 4081SOL    HW214141   9.084   0.065  11.074
 4082SOL     OW14142   6.445   0.092  13.499
 4082SOL    HW114143   6.509   0.025  13.471
 4082SOL    HW214144   6.493   0.147  13.560
 4083SOL     OW14145   0.286   0.099  13.719
 4083SOL    HW114146   0.348   0.061  13.656
 4083SOL    HW214147   0.224   0.147  13.665
 4084SOL     OW14148   6.204   6.122  10.899
 4084SOL    HW114149   6.109   6.116  10.908
 4084SOL    HW214150   6.221   6.215  10.885
 4085SOL     OW14151   8.717   9.799  14.404
 4085SOL    HW114152   8.722   9.725  14.464
 4085SOL    HW214153   8.776   9.777  14.332
 4086SOL     OW14154   5.281   1.841  11.339
 4086SOL    HW114155   5.302   1.925  11.379
 4086SOL    HW214156   5.366   1.796  11.333
 4087SOL     OW14157   4.172   3.319   7.548
 4087SOL    HW114158   4.083   3.312   7.583
 4087SOL    HW214159   4.221   3.364   7.617
 4088SOL     OW14160   4.794  13.326   4.292
 4088SOL    HW114161   4.850  13.403   4.296
 4088SOL    HW214162   4.843  13.257   4.337
 4089SOL     OW14163   0.114   8.031   5.642
 4089SOL    HW114164   0.174   8.102   5.622
 4089SOL    HW214165   0.028   8.073   5.647
 4090SOL     OW14166   5.788   6.421  14.802
 4090SOL    HW114167   5.705   6.383  14.832
 4090SOL    HW214168   5.841   6.345  14.777
 4091SOL     OW14169   0.693  10.054  13.957
 4091SOL    HW114170   0.676   9.967  13.994
 4091SOL    HW214171   0.616  10.072  13.904
 4092SOL     OW14172  10.574   4.835  12.663
 4092SOL    HW114173  10.543   4.880  12.585
 4092SOL    HW214174  10.610   4.904  12.719
 4093SOL     OW14175   8.333   6.467  14.090
 4093SOL    HW114176   8.379   6.460  14.006
 4093SOL    HW214177   8.271   6.394  14.089
 4094SOL     OW14178   5.086   6.683   8.711
 4094SOL    HW114179   5.172   6.650   8.734
 4094SOL    HW214180   5.102   6.768   8.670
 4095SOL     OW14181   1.595   3.066   5.101
 4095SOL    HW114182   1.625   3.017   5.025
 4095SOL    HW214183   1.547   3.140   5.064
 4096SOL     OW14184   0.072  11.313   4.130
 4096SOL    HW114185   0.129  11.362   4.070
 4096SOL    HW214186   0.009  11.269   4.073
 4097SOL     OW14187   1.383  10.325   8.094
 4097SOL    HW114188   1.343  10.382   8.029
 4097SOL    HW214189   1.409  10.384   8.166
 4098SOL     OW14190   4.562  10.606   7.310
 4098SOL    HW114191   4.616  10.581   7.386
 4098SOL    HW214192   4.598  10.555   7.238
 4099SOL     OW14193   4.459   2.908   9.421
 4099SOL    HW114194   4.438   2.816   9.432
 4099SOL    HW214195   4.473   2.918   9.326
 4100SOL     OW14196   0.679   7.742   0.996
 4100SOL    HW114197   0.691   7.834   0.972
 4100SOL    HW214198   0.592   7.719   0.964
 4101SOL     OW14199  13.551   4.114  11.388
 4101SOL    HW114200  13.461   4.094  11.415
 4101SOL    HW214201  13.592   4.150  11.467
 4102SOL     OW14202   9.132   0.370   2.097
 4102SOL    HW114203   9.121   0.338   2.186
 4102SOL    HW214204   9.134   0.291   2.043
 4103SOL     OW14205  11.523   2.301   7.782
 4103SOL    HW114206  11.531   2.213   7.744
 4103SOL    HW214207  11.513   2.285   7.876
 4104SOL     OW14208  14.272   0.552   7.371
 4104SOL    HW114209  14.189   0.523   7.333
 4104SOL    HW214210  14.253   0.562   7.464
 4105SOL     OW14211   1.884  11.142  14.294
 4105SOL    HW114212   1.906  11.152  14.387
 4105SOL    HW214213   1.828  11.217  14.274
 4106SOL     OW14214  13.538   7.787  10.027
 4106SOL    HW114215  13.572   7.876  10.021
 4106SOL    HW214216  13.564   7.745   9.944
 4107SOL     OW14217   9.906  12.804  12.489
 4107SOL    HW114218   9.936  12.871  12.428
 4107SOL    HW214219   9.930  12.839  12.575
 4108SOL     OW14220   7.601   5.117   9.493
 4108SOL    HW114221   7.687   5.090   9.526
 4108SOL    HW214222   7.615   5.204   9.458
 4109SOL     OW14223  12.979   0.174   1.518
 4109SOL    HW114224  12.993   0.267   1.534
 4109SOL    HW214225  12.926   0.144   1.592
 4110SOL     OW14226  12.676  12.606   8.066
 4110SOL    HW114227  12.625  12.677   8.105
 4110SOL    HW214228  12.764  12.642   8.057
 4111SOL     OW14229   2.741  13.012   3.951
 4111SOL    HW114230   2.827  13.051   3.967
 4111SOL    HW214231   2.756  12.917   3.961
 4112SOL     OW14232   7.371  14.758   0.813
 4112SOL    HW114233   7.280  14.779   0.794
 4112SOL    HW214234   7.414  14.843   0.821
 4113SOL     OW14235   3.480  12.215  14.590
 4113SOL    HW114236   3.507  12.124  14.585
 4113SOL    HW214237   3.478  12.245  14.499
 4114SOL     OW14238  13.134  12.896   6.308
 4114SOL    HW114239  13.157  12.813   6.349
 4114SOL    HW214240  13.040  12.890   6.290
 4115SOL     OW14241  12.775   0.554  11.555
 4115SOL    HW114242  12.705   0.564  11.619
 4115SOL    HW214243  12.773   0.635  11.504
 4116SOL     OW14244  13.086  12.274  14.003
 4116SOL    HW114245  13.084  12.232  13.917
 4116SOL    HW214246  13.137  12.215  14.058
 4117SOL     OW14247   7.425   8.192   4.805
 4117SOL    HW114248   7.392   8.116   4.758
 4117SOL    HW214249   7.415   8.170   4.897
 4118SOL     OW14250  11.708   4.850   7.430
 4118SOL    HW114251  11.680   4.940   7.450
 4118SOL    HW214252  11.696   4.843   7.335
 4119SOL     OW14253  10.010   9.452   0.313
 4119SOL    HW114254  10.015   9.527   0.254
 4119SOL    HW214255   9.920   9.451   0.344
 4120SOL     OW14256   3.905   9.287  14.782
 4120SOL    HW114257   3.913   9.382  14.784
 4120SOL    HW214258   3.811   9.270  14.777
 4121SOL     OW14259  13.318  14.057   3.086
 4121SOL    HW114260  13.277  14.035   3.169
 4121SOL    HW214261  13.406  14.020   3.092
 4122SOL     OW14262  10.438   6.634   9.287
 4122SOL    HW114263  10.528   6.614   9.260
 4122SOL    HW214264  10.441   6.727   9.312
 4123SOL     OW14265  14.115  10.487   7.899
 4123SOL    HW114266  14.120  10.446   7.812
 4123SOL    HW214267  14.148  10.576   7.885
 4124SOL     OW14268   2.497  10.213  12.710
 4124SOL    HW114269   2.435  10.160  12.659
 4124SOL    HW214270   2.479  10.190  12.801
 4125SOL     OW14271  11.035   7.818   4.359
 4125SOL    HW114272  11.113   7.827   4.414
 4125SOL    HW214273  11.048   7.736   4.311
 4126SOL     OW14274   9.911  14.370   2.128
 4126SOL    HW114275   9.974  14.305   2.096
 4126SOL    HW214276   9.943  14.393   2.215
 4127SOL     OW14277   9.850   1.821   7.951
 4127SOL    HW114278   9.862   1.852   7.862
 4127SOL    HW214279   9.764   1.857   7.977
 4128SOL     OW14280   4.624   9.662   5.096
 4128SOL    HW114281   4.586   9.736   5.144
 4128SOL    HW214282   4.700   9.699   5.052
 4129SOL     OW14283  11.147  14.492   2.790
 4129SOL    HW114284  11.104  14.565   2.835
 4129SOL    HW214285  11.131  14.416   2.846
 4130SOL     OW14286  11.349   3.223   6.833
 4130SOL    HW114287  11.255   3.232   6.819
 4130SOL    HW214288  11.365   3.128   6.828
 4131SOL     OW14289   5.899   3.580   8.968
 4131SOL    HW114290   5.954   3.595   8.891
 4131SOL    HW214291   5.870   3.489   8.960
 4132SOL     OW14292   4.238   9.262   1.742
 4132SOL    HW114293   4.211   9.320   1.671
 4132SOL    HW214294   4.267   9.320   1.812
 4133SOL     OW14295  12.854  10.108   0.746
 4133SOL    HW114296  12.931  10.076   0.700
 4133SOL    HW214297  12.888  10.172   0.809
 4134SOL     OW14298  10.806   2.717   5.216
 4134SOL    HW114299  10.875   2.749   5.274
 4134SOL    HW214300  10.781   2.632   5.252
 4135SOL     OW14301   6.116   5.990   6.103
 4135SOL    HW114302   6.177   5.982   6.176
 4135SOL    HW214303   6.129   5.909   6.053
 4136SOL     OW14304   0.456   9.835  13.716
 4136SOL    HW114305   0.462   9.751  13.670
 4136SOL    HW214306   0.541   9.876  13.701
 4137SOL     OW14307   8.738   0.023   9.545
 4137SOL    HW114308   8.722  14.854   9.632
 4137SOL    HW214309   8.834   0.025   9.538
 4138SOL     OW14310   4.453  12.511  11.126
 4138SOL    HW114311   4.499  12.441  11.079
 4138SOL    HW214312   4.517  12.542  11.190
 4139SOL     OW14313  11.105  10.835   3.936
 4139SOL    HW114314  11.055  10.755   3.951
 4139SOL    HW214315  11.196  10.806   3.932
 4140SOL     OW14316   9.079   3.712   9.667
 4140SOL    HW114317   9.091   3.620   9.645
 4140SOL    HW214318   9.164   3.739   9.704
 4141SOL     OW14319  14.382   9.576   4.503
 4141SOL    HW114320  14.447   9.517   4.542
 4141SOL    HW214321  14.372   9.545   4.413
 4142SOL     OW14322   2.067  14.641   4.321
 4142SOL    HW114323   2.106  14.571   4.269
 4142SOL    HW214324   1.988  14.667   4.273
 4143SOL     OW14325  10.643  13.327  12.267
 4143SOL    HW114326  10.636  13.386  12.192
 4143SOL    HW214327  10.669  13.382  12.340
 4144SOL     OW14328  10.172   8.242   2.622
 4144SOL    HW114329  10.165   8.239   2.717
 4144SOL    HW214330  10.168   8.336   2.601
 4145SOL     OW14331   4.960   0.992  13.484
 4145SOL    HW114332   5.038   0.972  13.433
 4145SOL    HW214333   4.969   0.938  13.563
 4146SOL     OW14334   3.141   5.643  12.755
 4146SOL    HW114335   3.181   5.605  12.677
 4146SOL    HW214336   3.051   5.610  12.754
 4147SOL     OW14337  13.393   2.005   6.653
 4147SOL    HW114338  13.450   2.083   6.650
 4147SOL    HW214339  13.306   2.040   6.672
 4148SOL     OW14340   3.927   0.516  12.682
 4148SOL    HW114341   3.968   0.570  12.749
 4148SOL    HW214342   3.985   0.441  12.673
 4149SOL     OW14343   7.458   2.001  14.111
 4149SOL    HW114344   7.394   1.932  14.092
 4149SOL    HW214345   7.513   1.966  14.180
 4150SOL     OW14346   2.333   3.493  12.667
 4150SOL    HW114347   2.306   3.554  12.598
 4150SOL    HW214348   2.409   3.535  12.708
 4151SOL     OW14349   9.698   0.932   8.693
 4151SOL    HW114350   9.678   0.946   8.600
 4151SOL    HW214351   9.613   0.927   8.736
 4152SOL     OW14352   0.177  14.134   0.349
 4152SOL    HW114353   0.179  14.183   0.431
 4152SOL    HW214354   0.085  14.136   0.323
 4153SOL     OW14355   5.211  12.557   6.199
 4153SOL    HW114356   5.217  12.463   6.183
 4153SOL    HW214357   5.279  12.595   6.143
 4154SOL     OW14358   3.826   0.277   8.353
 4154SOL    HW114359   3.859   0.190   8.330
 4154SOL    HW214360   3.875   0.302   8.431
 4155SOL     OW14361   7.962   7.904  14.011
 4155SOL    HW114362   7.939   7.976  13.952
 4155SOL    HW214363   7.912   7.922  14.091
 4156SOL     OW14364   9.082   1.710   2.333
 4156SOL    HW114365   9.110   1.780   2.274
 4156SOL    HW214366   9.163   1.680   2.374
 4157SOL     OW14367   4.942   4.879   4.377
 4157SOL    HW114368   4.986   4.854   4.296
 4157SOL    HW214369   5.004   4.938   4.420
 4158SOL     OW14370   1.165   7.928  11.117
 4158SOL    HW114371   1.224   7.875  11.063
 4158SOL    HW214372   1.167   7.885  11.203
 4159SOL     OW14373   3.168  10.880   5.904
 4159SOL    HW114374   3.163  10.785   5.895
 4159SOL    HW214375   3.082  10.905   5.938
 4160SOL     OW14376   7.162   7.450   4.807
 4160SOL    HW114377   7.175   7.431   4.714
 4160SOL    HW214378   7.244   7.425   4.849
 4161SOL     OW14379   3.495  12.366  10.751
 4161SOL    HW114380   3.483  12.291  10.809
 4161SOL    HW214381   3.539  12.432  10.806
 4162SOL     OW14382  10.380  10.875   6.633
 4162SOL    HW114383  10.425  10.943   6.583
 4162SOL    HW214384  10.392  10.900   6.724
 4163SOL     OW14385   4.985   1.460  10.933
 4163SOL    HW114386   4.936   1.540  10.910
 4163SOL    HW214387   5.066   1.467  10.883
 4164SOL     OW14388   9.252  13.179   0.198
 4164SOL    HW114389   9.174  13.189   0.143
 4164SOL    HW214390   9.245  13.251   0.261
 4165SOL     OW14391   6.900   9.201   7.975
 4165SOL    HW114392   6.957   9.216   7.900
 4165SOL    HW214393   6.873   9.109   7.966
 4166SOL     OW14394   1.728   0.872   7.815
 4166SOL    HW114395   1.797   0.807   7.829
 4166SOL    HW214396   1.653   0.838   7.863
 4167SOL     OW14397   6.921   3.107   4.297
 4167SOL    HW114398   7.001   3.067   4.263
 4167SOL    HW214399   6.883   3.152   4.222
 4168SOL     OW14400   6.635   6.720  12.987
 4168SOL    HW114401   6.598   6.642  13.027
 4168SOL    HW214402   6.727   6.700  12.974
 4169SOL     OW14403  12.748   7.786   9.050
 4169SOL    HW114404  12.743   7.695   9.021
 4169SOL    HW214405  12.657   7.815   9.052
 4170SOL     OW14406   2.316  13.415   7.624
 4170SOL    HW114407   2.357  13.485   7.574
 4170SOL    HW214408   2.222  13.433   7.618
 4171SOL     OW14409   9.023   8.488  13.228
 4171SOL    HW114410   9.008   8.561  13.168
 4171SOL    HW214411   8.991   8.411  13.181
 4172SOL     OW14412   5.560  12.823   4.202
 4172SOL    HW114413   5.643  12.777   4.192
 4172SOL    HW214414   5.500  12.777   4.143
 4173SOL     OW14415  11.640   8.231   1.869
 4173SOL    HW114416  11.719   8.258   1.821
 4173SOL    HW214417  11.673   8.206   1.955
 4174SOL     OW14418  11.121   3.121  14.449
 4174SOL    HW114419  11.091   3.030  14.444
 4174SOL    HW214420  11.046   3.173  14.418
 4175SOL     OW14421   3.296   2.579   9.050
 4175SOL    HW114422   3.332   2.495   9.078
 4175SOL    HW214423   3.228   2.598   9.114
 4176SOL     OW14424   1.804   1.853   7.052
 4176SOL    HW114425   1.775   1.834   6.963
 4176SOL    HW214426   1.738   1.913   7.087
 4177SOL     OW14427  10.097  10.263   4.926
 4177SOL    HW114428  10.078  10.287   5.017
 4177SOL    HW214429  10.040  10.320   4.874
 4178SOL     OW14430   9.774   4.422   2.151
 4178SOL    HW114431   9.855   4.371   2.137
 4178SOL    HW214432   9.799   4.488   2.215
 4179SOL     OW14433   4.649   8.341   6.853
 4179SOL    HW114434   4.677   8.341   6.762
 4179SOL    HW214435   4.701   8.272   6.895
 4180SOL     OW14436   3.150   1.255   0.222
 4180SOL    HW114437   3.083   1.318   0.250
 4180SOL    HW214438   3.101   1.173   0.207
 4181SOL     OW14439  10.000  14.735   5.973
 4181SOL    HW114440  10.002  14.805   6.037
 4181SOL    HW214441  10.050  14.664   6.013
 4182SOL     OW14442  14.217  13.425   2.711
 4182SOL    HW114443  14.177  13.367   2.776
 4182SOL    HW214444  14.159  13.501   2.708
 4183SOL     OW14445  11.757   9.883   1.575
 4183SOL    HW114446  11.764   9.954   1.639
 4183SOL    HW214447  11.847   9.865   1.548
 4184SOL     OW14448   4.937   6.932   6.684
 4184SOL    HW114449   4.957   6.913   6.593
 4184SOL    HW214450   5.019   6.965   6.721
 4185SOL     OW14451  14.861   6.122   5.295
 4185SOL    HW114452  14.814   6.113   5.378
 4185SOL    HW214453  14.818   6.061   5.236
 4186SOL     OW14454  10.380   6.930   8.564
 4186SOL    HW114455  10.307   6.893   8.515
 4186SOL    HW214456  10.454   6.871   8.546
 4187SOL     OW14457  14.393   1.084   1.145
 4187SOL    HW114458  14.422   1.105   1.234
 4187SOL    HW214459  14.439   1.147   1.090
 4188SOL     OW14460   5.686  11.519   6.466
 4188SOL    HW114461   5.779  11.504   6.451
 4188SOL    HW214462   5.682  11.592   6.527
 4189SOL     OW14463  12.434  10.289   6.441
 4189SOL    HW114464  12.463  10.280   6.532
 4189SOL    HW214465  12.419  10.383   6.430
 4190SOL     OW14466   9.287   6.545   0.351
 4190SOL    HW114467   9.334   6.538   0.268
 4190SOL    HW214468   9.200   6.511   0.332
 4191SOL     OW14469  10.372  10.248  13.606
 4191SOL    HW114470  10.462  10.256  13.573
 4191SOL    HW214471  10.317  10.275  13.533
 4192SOL     OW14472   9.682  11.405  13.744
 4192SOL    HW114473   9.676  11.433  13.835
 4192SOL    HW214474   9.713  11.314  13.749
 4193SOL     OW14475   0.381  14.731   6.252
 4193SOL    HW114476   0.359  14.824   6.246
 4193SOL    HW214477   0.443  14.716   6.181
 4194SOL     OW14478   0.637   6.339   0.763
 4194SOL    HW114479   0.731   6.339   0.782
 4194SOL    HW214480   0.613   6.431   0.760
 4195SOL     OW14481   1.794  12.074   2.375
 4195SOL    HW114482   1.762  11.989   2.344
 4195SOL    HW214483   1.722  12.109   2.427
 4196SOL     OW14484  10.472   1.563   0.156
 4196SOL    HW114485  10.483   1.610   0.238
 4196SOL    HW214486  10.490   1.472   0.178
 4197SOL     OW14487   3.653   7.657   9.666
 4197SOL    HW114488   3.636   7.647   9.572
 4197SOL    HW214489   3.613   7.741   9.689
 4198SOL     OW14490   7.730   3.370   5.651
 4198SOL    HW114491   7.750   3.441   5.711
 4198SOL    HW214492   7.742   3.290   5.703
 4199SOL     OW14493  14.631   6.315   1.805
 4199SOL    HW114494  14.697   6.298   1.737
 4199SOL    HW214495  14.565   6.248   1.791
 4200SOL     OW14496   5.684   9.055   4.157
 4200SOL    HW114497   5.672   8.967   4.121
 4200SOL    HW214498   5.724   9.041   4.243
 4201SOL     OW14499  12.612   6.442   0.416
 4201SOL    HW114500  12.687   6.391   0.386
 4201SOL    HW214501  12.613   6.521   0.362
 4202SOL     OW14502   2.251   4.731   7.906
 4202SOL    HW114503   2.229   4.661   7.967
 4202SOL    HW214504   2.342   4.715   7.882
 4203SOL     OW14505  10.781  12.994   6.712
 4203SOL    HW114506  10.810  13.081   6.740
 4203SOL    HW214507  10.836  12.974   6.636
 4204SOL     OW14508   4.482  12.434  14.439
 4204SOL    HW114509   4.556  12.376  14.454
 4204SOL    HW214510   4.480  12.491  14.516
 4205SOL     OW14511   2.057   0.973   3.575
 4205SOL    HW114512   2.137   0.980   3.522
 4205SOL    HW214513   2.073   1.028   3.651
 4206SOL     OW14514   1.311  11.699   2.159
 4206SOL    HW114515   1.235  11.757   2.159
 4206SOL    HW214516   1.386  11.759   2.161
 4207SOL     OW14517  13.889  14.713   7.569
 4207SOL    HW114518  13.975  14.689   7.536
 4207SOL    HW214519  13.835  14.635   7.555
 4208SOL     OW14520   9.724  11.197   2.905
 4208SOL    HW114521   9.754  11.132   2.969
 4208SOL    HW214522   9.713  11.277   2.956
 4209SOL     OW14523   1.258   0.626  13.646
 4209SOL    HW114524   1.324   0.556  13.653
 4209SOL    HW214525   1.176   0.584  13.675
 4210SOL     OW14526   4.035  12.916  13.513
 4210SOL    HW114527   4.008  12.945  13.600
 4210SOL    HW214528   3.954  12.910  13.463
 4211SOL     OW14529   0.727   3.683   3.883
 4211SOL    HW114530   0.652   3.632   3.912
 4211SOL    HW214531   0.757   3.728   3.962
 4212SOL     OW14532   4.770   6.118   2.248
 4212SOL    HW114533   4.821   6.181   2.196
 4212SOL    HW214534   4.770   6.038   2.195
 4213SOL     OW14535   6.533  12.274   6.154
 4213SOL    HW114536   6.603  12.294   6.091
 4213SOL    HW214537   6.460  12.330   6.127
 4214SOL     OW14538  13.066  10.518  10.182
 4214SOL    HW114539  12.990  10.575  10.175
 4214SOL    HW214540  13.081  10.487  10.092
 4215SOL     OW14541   6.321   5.504  14.846
 4215SOL    HW114542   6.296   5.596  14.854
 4215SOL    HW214543   6.238   5.458  14.830
 4216SOL     OW14544  10.048   7.954  14.461
 4216SOL    HW114545  10.012   8.036  14.426
 4216SOL    HW214546  10.087   7.910  14.386
 4217SOL     OW14547   1.397  14.615   0.361
 4217SOL    HW114548   1.356  14.700   0.375
 4217SOL    HW214549   1.439  14.594   0.445
 4218SOL     OW14550   8.948   1.873  13.099
 4218SOL    HW114551   9.026   1.837  13.142
 4218SOL    HW214552   8.898   1.796  13.072
 4219SOL     OW14553   9.680  11.737   9.324
 4219SOL    HW114554   9.618  11.670   9.297
 4219SOL    HW214555   9.750  11.734   9.259
 4220SOL     OW14556   1.949   5.541   5.117
 4220SOL    HW114557   2.043   5.552   5.108
 4220SOL    HW214558   1.911   5.607   5.059
 4221SOL     OW14559  14.473  13.897  12.189
 4221SOL    HW114560  14.478  13.969  12.252
 4221SOL    HW214561  14.525  13.827  12.229
 4222SOL     OW14562   5.269   5.158  12.468
 4222SOL    HW114563   5.330   5.197  12.406
 4222SOL    HW214564   5.191   5.214  12.462
 4223SOL     OW14565  12.595   0.083   4.483
 4223SOL    HW114566  12.662   0.054   4.421
 4223SOL    HW214567  12.529   0.127   4.429
 4224SOL     OW14568   2.279   4.199   2.067
 4224SOL    HW114569   2.216   4.131   2.044
 4224SOL    HW214570   2.226   4.275   2.091
 4225SOL     OW14571   9.414   8.702  13.924
 4225SOL    HW114572   9.347   8.767  13.906
 4225SOL    HW214573   9.393   8.629  13.866
 4226SOL     OW14574  10.544   2.952   2.437
 4226SOL    HW114575  10.471   2.942   2.497
 4226SOL    HW214576  10.512   3.013   2.370
 4227SOL     OW14577   0.253   3.794   0.104
 4227SOL    HW114578   0.234   3.880   0.066
 4227SOL    HW214579   0.212   3.731   0.045
 4228SOL     OW14580   4.732   6.217   7.756
 4228SOL    HW114581   4.748   6.125   7.779
 4228SOL    HW214582   4.797   6.266   7.806
 4229SOL     OW14583   1.104   2.981  12.398
 4229SOL    HW114584   1.191   3.018  12.379
 4229SOL    HW214585   1.045   3.028  12.339
 4230SOL     OW14586   5.334   2.839   9.746
 4230SOL    HW114587   5.375   2.788   9.676
 4230SOL    HW214588   5.243   2.808   9.748
 4231SOL     OW14589  13.269   0.157   9.909
 4231SOL    HW114590  13.230   0.071   9.896
 4231SOL    HW214591  13.227   0.212   9.843
 4232SOL     OW14592  14.208  12.237   1.130
 4232SOL    HW114593  14.182  12.269   1.217
 4232SOL    HW214594  14.125  12.217   1.086
 4233SOL     OW14595   0.775  13.063  14.353
 4233SOL    HW114596   0.731  13.122  14.414
 4233SOL    HW214597   0.866  13.059  14.385
 4234SOL     OW14598  12.672   5.696  10.432
 4234SOL    HW114599  12.592   5.654  10.401
 4234SOL    HW214600  12.653   5.790  10.427
 4235SOL     OW14601  11.075   2.759  14.179
 4235SOL    HW114602  11.138   2.737  14.111
 4235SOL    HW214603  11.017   2.824  14.137
 4236SOL     OW14604  10.907   4.991  12.893
 4236SOL    HW114605  10.925   4.910  12.845
 4236SOL    HW214606  10.891   4.962  12.983
 4237SOL     OW14607  11.948   4.698   1.576
 4237SOL    HW114608  11.977   4.659   1.658
 4237SOL    HW214609  11.972   4.791   1.584
 4238SOL     OW14610   4.335   7.648  10.507
 4238SOL    HW114611   4.345   7.620  10.416
 4238SOL    HW214612   4.271   7.587  10.544
 4239SOL     OW14613   0.113  10.794   8.359
 4239SOL    HW114614   0.035  10.753   8.322
 4239SOL    HW214615   0.090  10.886   8.368
 4240SOL     OW14616   8.783   5.550  10.953
 4240SOL    HW114617   8.863   5.587  10.989
 4240SOL    HW214618   8.712   5.590  11.004
 4241SOL     OW14619  10.402   6.941   8.850
 4241SOL    HW114620  10.424   6.852   8.879
 4241SOL    HW214621  10.441   6.947   8.763
 4242SOL     OW14622   6.841   8.189   2.741
 4242SOL    HW114623   6.898   8.135   2.686
 4242SOL    HW214624   6.868   8.279   2.722
 4243SOL     OW14625  10.180  14.849  14.708
 4243SOL    HW114626  10.170   0.057  14.762
 4243SOL    HW214627  10.174  14.776  14.771
 4244SOL     OW14628  12.053   3.415   6.148
 4244SOL    HW114629  12.081   3.353   6.215
 4244SOL    HW214630  12.054   3.500   6.192
 4245SOL     OW14631   3.823   8.579  14.501
 4245SOL    HW114632   3.801   8.494  14.463
 4245SOL    HW214633   3.885   8.617  14.439
 4246SOL     OW14634   7.020   6.129   0.477
 4246SOL    HW114635   6.939   6.142   0.527
 4246SOL    HW214636   7.044   6.217   0.448
 4247SOL     OW14637  10.708  12.229  12.020
 4247SOL    HW114638  10.614  12.242  12.012
 4247SOL    HW214639  10.717  12.136  12.041
 4248SOL     OW14640   9.466   1.141   4.726
 4248SOL    HW114641   9.550   1.187   4.722
 4248SOL    HW214642   9.448   1.116   4.636
 4249SOL     OW14643   4.479   3.738   2.538
 4249SOL    HW114644   4.552   3.787   2.577
 4249SOL    HW214645   4.408   3.802   2.533
 4250SOL     OW14646   4.955   6.157   9.786
 4250SOL    HW114647   5.037   6.138   9.739
 4250SOL    HW214648   4.887   6.121   9.730
 4251SOL     OW14649   2.300   3.287   7.927
 4251SOL    HW114650   2.344   3.313   8.008
 4251SOL    HW214651   2.300   3.365   7.873
 4252SOL     OW14652   3.425   2.733   2.706
 4252SOL    HW114653   3.345   2.719   2.655
 4252SOL    HW214654   3.421   2.825   2.732
 4253SOL     OW14655  14.812  12.905   8.471
 4253SOL    HW114656  14.865  12.981   8.446
 4253SOL    HW214657  14.819  12.845   8.397
 4254SOL     OW14658   1.424   3.376   0.819
 4254SOL    HW114659   1.510   3.396   0.857
 4254SOL    HW214660   1.367   3.447   0.850
 4255SOL     OW14661   4.956  13.733   5.184
 4255SOL    HW114662   4.891  13.722   5.115
 4255SOL    HW214663   4.904  13.746   5.264
 4256SOL     OW14664   0.086   3.326   9.192
 4256SOL    HW114665   0.056   3.409   9.155
 4256SOL    HW214666   0.013   3.265   9.177
 4257SOL     OW14667   2.563   1.287   4.751
 4257SOL    HW114668   2.529   1.375   4.733
 4257SOL    HW214669   2.647   1.284   4.706
 4258SOL     OW14670   7.478   6.160  14.345
 4258SOL    HW114671   7.502   6.233  14.289
 4258SOL    HW214672   7.391   6.134  14.315
 4259SOL     OW14673   9.760   7.597  13.062
 4259SOL    HW114674   9.804   7.617  12.980
 4259SOL    HW214675   9.749   7.683  13.104
 4260SOL     OW14676   5.466   0.598   7.829
 4260SOL    HW114677   5.506   0.520   7.867
 4260SOL    HW214678   5.373   0.588   7.849
 4261SOL     OW14679   7.670   1.688  13.212
 4261SOL    HW114680   7.672   1.783  13.201
 4261SOL    HW214681   7.596   1.671  13.271
 4262SOL     OW14682   9.391   9.614  10.376
 4262SOL    HW114683   9.342   9.642  10.453
 4262SOL    HW214684   9.333   9.633  10.302
 4263SOL     OW14685  12.254   9.933  14.122
 4263SOL    HW114686  12.243   9.998  14.192
 4263SOL    HW214687  12.348   9.933  14.104
 4264SOL     OW14688   0.977   4.185  12.653
 4264SOL    HW114689   0.973   4.102  12.605
 4264SOL    HW214690   1.033   4.241  12.599
 4265SOL     OW14691   8.008   6.985   6.197
 4265SOL    HW114692   8.065   6.922   6.153
 4265SOL    HW214693   7.926   6.982   6.148
 4266SOL     OW14694   1.489  13.718   2.060
 4266SOL    HW114695   1.525  13.804   2.083
 4266SOL    HW214696   1.446  13.688   2.140
 4267SOL     OW14697   6.362   3.703   8.415
 4267SOL    HW114698   6.340   3.794   8.433
 4267SOL    HW214699   6.440   3.707   8.359
 4268SOL     OW14700  10.099   1.628   4.425
 4268SOL    HW114701  10.136   1.549   4.386
 4268SOL    HW214702  10.102   1.612   4.520
 4269SOL     OW14703   7.320   8.151  10.779
 4269SOL    HW114704   7.263   8.191  10.713
 4269SOL    HW214705   7.403   8.199  10.772
 4270SOL     OW14706  10.727   7.988   5.189
 4270SOL    HW114707  10.823   7.988   5.188
 4270SOL    HW214708  10.702   7.901   5.158
 4271SOL     OW14709   7.712  11.525   0.512
 4271SOL    HW114710   7.772  11.477   0.569
 4271SOL    HW214711   7.638  11.547   0.568
 4272SOL     OW14712  12.596  11.509   9.775
 4272SOL    HW114713  12.512  11.535   9.814
 4272SOL    HW214714  12.622  11.584   9.723
 4273SOL     OW14715  11.976   3.111   9.521
 4273SOL    HW114716  11.955   3.058   9.444
 4273SOL    HW214717  11.891   3.124   9.564
 4274SOL     OW14718   1.452   3.781   1.722
 4274SOL    HW114719   1.390   3.845   1.688
 4274SOL    HW214720   1.398   3.718   1.770
 4275SOL     OW14721   0.894   9.803   5.676
 4275SOL    HW114722   0.961   9.740   5.702
 4275SOL    HW214723   0.924   9.886   5.711
 4276SOL     OW14724   5.510  11.827   8.973
 4276SOL    HW114725   5.499  11.825   8.878
 4276SOL    HW214726   5.488  11.917   8.998
 4277SOL     OW14727  12.055  11.984   1.957
 4277SOL    HW114728  12.057  11.959   2.049
 4277SOL    HW214729  12.110  11.920   1.913
 4278SOL     OW14730   9.469  14.266   3.654
 4278SOL    HW114731   9.509  14.180   3.665
 4278SOL    HW214732   9.402  14.270   3.722
 4279SOL     OW14733   9.481   5.687   8.693
 4279SOL    HW114734   9.391   5.660   8.711
 4279SOL    HW214735   9.508   5.632   8.620
 4280SOL     OW14736   6.399   5.974  11.142
 4280SOL    HW114737   6.344   6.046  11.171
 4280SOL    HW214738   6.363   5.896  11.185
 4281SOL     OW14739   4.895   7.940   5.641
 4281SOL    HW114740   4.857   8.009   5.587
 4281SOL    HW214741   4.854   7.860   5.609
 4282SOL     OW14742  13.240   1.044  10.369
 4282SOL    HW114743  13.256   1.137  10.388
 4282SOL    HW214744  13.159   1.044  10.317
 4283SOL     OW14745  10.157  11.441  11.461
 4283SOL    HW114746  10.134  11.533  11.449
 4283SOL    HW214747  10.089  11.393  11.412
 4284SOL     OW14748   2.513   6.793   5.598
 4284SOL    HW114749   2.543   6.821   5.684
 4284SOL    HW214750   2.420   6.812   5.598
 4285SOL     OW14751  14.133   3.377  14.098
 4285SOL    HW114752  14.137   3.282  14.091
 4285SOL    HW214753  14.224   3.406  14.084
 4286SOL     OW14754  14.177   1.733   7.584
 4286SOL    HW114755  14.206   1.809   7.535
 4286SOL    HW214756  14.150   1.768   7.669
 4287SOL     OW14757   6.210   0.309  11.155
 4287SOL    HW114758   6.178   0.225  11.122
 4287SOL    HW214759   6.293   0.288  11.198
 4288SOL     OW14760   8.494  11.442   7.382
 4288SOL    HW114761   8.584  11.424   7.409
 4288SOL    HW214762   8.455  11.355   7.371
 4289SOL     OW14763   6.547   4.953   6.898
 4289SOL    HW114764   6.566   4.864   6.870
 4289SOL    HW214765   6.464   4.974   6.855
 4290SOL     OW14766   5.919   5.194  14.472
 4290SOL    HW114767   5.835   5.149  14.487
 4290SOL    HW214768   5.910   5.276  14.520
 4291SOL     OW14769   8.865   9.412   6.505
 4291SOL    HW114770   8.819   9.488   6.470
 4291SOL    HW214771   8.837   9.339   6.449
 4292SOL     OW14772   9.642   7.612   9.865
 4292SOL    HW114773   9.719   7.567   9.898
 4292SOL    HW214774   9.612   7.666   9.938
 4293SOL     OW14775   0.733   7.809  12.605
 4293SOL    HW114776   0.646   7.825  12.642
 4293SOL    HW214777   0.784   7.773  12.677
 4294SOL     OW14778   0.510   8.525   0.639
 4294SOL    HW114779   0.532   8.611   0.603
 4294SOL    HW214780   0.414   8.520   0.633
 4295SOL     OW14781   2.723  13.374  11.920
 4295SOL    HW114782   2.816  13.383  11.943
 4295SOL    HW214783   2.711  13.280  11.905
 4296SOL     OW14784   6.835  10.713   9.282
 4296SOL    HW114785   6.886  10.792   9.261
 4296SOL    HW214786   6.813  10.723   9.375
 4297SOL     OW14787  12.725  11.847   6.502
 4297SOL    HW114788  12.661  11.787   6.463
 4297SOL    HW214789  12.709  11.840   6.596
 4298SOL     OW14790   1.754  11.847   0.749
 4298SOL    HW114791   1.680  11.847   0.688
 4298SOL    HW214792   1.828  11.814   0.698
 4299SOL     OW14793   7.665   8.828   8.560
 4299SOL    HW114794   7.640   8.770   8.631
 4299SOL    HW214795   7.631   8.914   8.585
 4300SOL     OW14796   6.228   8.435  13.054
 4300SOL    HW114797   6.286   8.375  13.007
 4300SOL    HW214798   6.210   8.505  12.990
 4301SOL     OW14799   7.751   9.519   9.837
 4301SOL    HW114800   7.657   9.524   9.818
 4301SOL    HW214801   7.776   9.430   9.812
 4302SOL     OW14802   9.273  13.754   4.833
 4302SOL    HW114803   9.262  13.667   4.871
 4302SOL    HW214804   9.281  13.738   4.739
 4303SOL     OW14805  10.495   8.269   7.890
 4303SOL    HW114806  10.507   8.177   7.913
 4303SOL    HW214807  10.578   8.295   7.850
 4304SOL     OW14808  14.122   3.730   9.789
 4304SOL    HW114809  14.182   3.677   9.842
 4304SOL    HW214810  14.035   3.711   9.824
 4305SOL     OW14811  11.856  14.805   1.058
 4305SOL    HW114812  11.884  14.839   0.973
 4305SOL    HW214813  11.765  14.779   1.045
 4306SOL     OW14814  10.363  11.883   2.726
 4306SOL    HW114815  10.313  11.957   2.761
 4306SOL    HW214816  10.373  11.902   2.633
 4307SOL     OW14817   6.650  11.043   5.977
 4307SOL    HW114818   6.593  11.089   5.916
 4307SOL    HW214819   6.700  10.982   5.923
 4308SOL     OW14820  12.680   6.792   9.949
 4308SOL    HW114821  12.675   6.884   9.974
 4308SOL    HW214822  12.773   6.776   9.932
 4309SOL     OW14823   5.909  13.301   2.996
 4309SOL    HW114824   5.834  13.245   2.975
 4309SOL    HW214825   5.984  13.243   2.991
 4310SOL     OW14826   8.155  13.520  12.382
 4310SOL    HW114827   8.244  13.517  12.417
 4310SOL    HW214828   8.102  13.474  12.447
 4311SOL     OW14829  13.975  14.443  13.153
 4311SOL    HW114830  13.969  14.499  13.230
 4311SOL    HW214831  13.935  14.494  13.083
 4312SOL     OW14832   7.628   4.856   4.724
 4312SOL    HW114833   7.639   4.902   4.641
 4312SOL    HW214834   7.549   4.895   4.762
 4313SOL     OW14835   4.905   4.496   5.460
 4313SOL    HW114836   4.996   4.489   5.490
 4313SOL    HW214837   4.884   4.409   5.426
 4314SOL     OW14838   2.542  12.974   2.118
 4314SOL    HW114839   2.584  12.980   2.032
 4314SOL    HW214840   2.591  12.906   2.164
 4315SOL     OW14841   4.708   1.565  10.003
 4315SOL    HW114842   4.713   1.549   9.909
 4315SOL    HW214843   4.789   1.612  10.023
 4316SOL     OW14844   3.915  14.285  13.858
 4316SOL    HW114845   3.938  14.222  13.790
 4316SOL    HW214846   3.989  14.283  13.919
 4317SOL     OW14847   8.041  12.342   5.868
 4317SOL    HW114848   8.136  12.353   5.858
 4317SOL    HW214849   8.003  12.388   5.793
 4318SOL     OW14850   8.189  10.417   2.911
 4318SOL    HW114851   8.202  10.512   2.908
 4318SOL    HW214852   8.277  10.381   2.917
 4319SOL     OW14853   6.149  12.537   1.418
 4319SOL    HW114854   6.100  12.610   1.454
 4319SOL    HW214855   6.189  12.570   1.338
 4320SOL     OW14856  11.371   5.862  10.919
 4320SOL    HW114857  11.291   5.875  10.969
 4320SOL    HW214858  11.441   5.880  10.981
 4321SOL     OW14859   8.501   2.315   3.086
 4321SOL    HW114860   8.462   2.358   3.162
 4321SOL    HW214861   8.524   2.228   3.117
 4322SOL     OW14862   8.785   2.983   1.985
 4322SOL    HW114863   8.714   2.921   1.996
 4322SOL    HW214864   8.863   2.937   2.015
 4323SOL     OW14865   7.343   5.067  13.560
 4323SOL    HW114866   7.257   5.026  13.554
 4323SOL    HW214867   7.396   5.005  13.610
 4324SOL     OW14868   7.655   0.806   0.277
 4324SOL    HW114869   7.569   0.780   0.310
 4324SOL    HW214870   7.686   0.729   0.228
 4325SOL     OW14871  11.083   5.995  10.061
 4325SOL    HW114872  11.174   6.022  10.065
 4325SOL    HW214873  11.033   6.076  10.069
 4326SOL     OW14874  14.658  10.337   2.879
 4326SOL    HW114875  14.665  10.386   2.798
 4326SOL    HW214876  14.566  10.311   2.883
 4327SOL     OW14877   6.627  12.560   6.484
 4327SOL    HW114878   6.616  12.563   6.579
 4327SOL    HW214879   6.662  12.473   6.467
 4328SOL     OW14880  12.320   4.987   0.285
 4328SOL    HW114881  12.235   4.952   0.310
 4328SOL    HW214882  12.350   5.034   0.363
 4329SOL     OW14883   2.160   7.100  12.519
 4329SOL    HW114884   2.184   7.098  12.426
 4329SOL    HW214885   2.122   7.014  12.535
 4330SOL     OW14886   1.869   1.609   6.841
 4330SOL    HW114887   1.885   1.688   6.789
 4330SOL    HW214888   1.856   1.540   6.776
 4331SOL     OW14889   2.545  11.003   2.714
 4331SOL    HW114890   2.482  11.036   2.651
 4331SOL    HW214891   2.494  10.945   2.771
 4332SOL     OW14892   1.302   4.324   7.080
 4332SOL    HW114893   1.211   4.346   7.100
 4332SOL    HW214894   1.314   4.237   7.117
 4333SOL     OW14895   0.526   9.597  12.248
 4333SOL    HW114896   0.550   9.652  12.322
 4333SOL    HW214897   0.473   9.527  12.286
 4334SOL     OW14898  10.397   0.595   0.197
 4334SOL    HW114899  10.376   0.688   0.209
 4334SOL    HW214900  10.464   0.577   0.264
 4335SOL     OW14901   9.598  10.282  12.189
 4335SOL    HW114902   9.521  10.318  12.234
 4335SOL    HW214903   9.673  10.314  12.239
 4336SOL     OW14904  11.504   4.676  12.663
 4336SOL    HW114905  11.576   4.729  12.696
 4336SOL    HW214906  11.496   4.604  12.726
 4337SOL     OW14907   5.141   7.616  13.553
 4337SOL    HW114908   5.140   7.533  13.601
 4337SOL    HW214909   5.060   7.616  13.502
 4338SOL     OW14910   2.383   0.544  14.406
 4338SOL    HW114911   2.468   0.543  14.450
 4338SOL    HW214912   2.331   0.478  14.452
 4339SOL     OW14913   7.972  11.670  14.526
 4339SOL    HW114914   7.973  11.682  14.621
 4339SOL    HW214915   7.888  11.629  14.508
 4340SOL     OW14916   8.384  14.788  14.374
 4340SOL    HW114917   8.410  14.834  14.294
 4340SOL    HW214918   8.372  14.697  14.346
 4341SOL     OW14919  12.361  14.082  14.373
 4341SOL    HW114920  12.324  14.107  14.288
 4341SOL    HW214921  12.331  14.151  14.433
 4342SOL     OW14922   8.740   3.188  13.723
 4342SOL    HW114923   8.739   3.148  13.636
 4342SOL    HW214924   8.797   3.265  13.713
 4343SOL     OW14925  12.872   7.984   8.482
 4343SOL    HW114926  12.853   8.049   8.549
 4343SOL    HW214927  12.913   7.912   8.529
 4344SOL     OW14928   8.387   5.353   2.760
 4344SOL    HW114929   8.340   5.383   2.682
 4344SOL    HW214930   8.350   5.404   2.831
 4345SOL     OW14931   5.915   3.716   2.010
 4345SOL    HW114932   5.882   3.779   2.074
 4345SOL    HW214933   6.009   3.735   2.005
 4346SOL     OW14934   9.069   4.680  14.628
 4346SOL    HW114935   9.146   4.703  14.576
 4346SOL    HW214936   9.035   4.764  14.660
 4347SOL     OW14937   3.916   7.287   2.541
 4347SOL    HW114938   3.936   7.363   2.595
 4347SOL    HW214939   3.936   7.211   2.596
 4348SOL     OW14940  12.493  12.490   4.182
 4348SOL    HW114941  12.433  12.542   4.235
 4348SOL    HW214942  12.540  12.436   4.245
 4349SOL     OW14943   5.629  10.868   6.019
 4349SOL    HW114944   5.536  10.885   6.030
 4349SOL    HW214945   5.637  10.773   6.030
 4350SOL     OW14946   0.618   9.892  11.739
 4350SOL    HW114947   0.532   9.850  11.740
 4350SOL    HW214948   0.599   9.985  11.749
 4351SOL     OW14949   6.081   5.380   0.466
 4351SOL    HW114950   6.132   5.451   0.426
 4351SOL    HW214951   6.142   5.306   0.469
 4352SOL     OW14952  11.268   9.565  13.837
 4352SOL    HW114953  11.311   9.628  13.894
 4352SOL    HW214954  11.324   9.561  13.760
 4353SOL     OW14955   1.218   4.658   6.477
 4353SOL    HW114956   1.168   4.593   6.429
 4353SOL    HW214957   1.306   4.652   6.441
 4354SOL     OW14958   2.848   2.413   1.079
 4354SOL    HW114959   2.887   2.383   1.161
 4354SOL    HW214960   2.921   2.417   1.018
 4355SOL     OW14961   4.295   4.591   1.220
 4355SOL    HW114962   4.383   4.590   1.256
 4355SOL    HW214963   4.244   4.643   1.282
 4356SOL     OW14964  10.037  11.561   7.005
 4356SOL    HW114965  10.107  11.590   7.064
 4356SOL    HW214966  10.014  11.639   6.954
 4357SOL     OW14967   2.723   2.307   7.922
 4357SOL    HW114968   2.728   2.233   7.983
 4357SOL    HW214969   2.651   2.361   7.956
 4358SOL     OW14970   2.685  12.912  11.159
 4358SOL    HW114971   2.767  12.862  11.156
 4358SOL    HW214972   2.696  12.972  11.233
 4359SOL     OW14973  11.835   0.060   6.794
 4359SOL    HW114974  11.819   0.142   6.841
 4359SOL    HW214975  11.838  14.863   6.863
 4360SOL     OW14976   9.415   7.742   9.081
 4360SOL    HW114977   9.450   7.811   9.024
 4360SOL    HW214978   9.436   7.771   9.169
 4361SOL     OW14979   9.631   8.667   0.575
 4361SOL    HW114980   9.656   8.759   0.578
 4361SOL    HW214981   9.680   8.631   0.501
 4362SOL     OW14982  12.674  12.611   5.303
 4362SOL    HW114983  12.750  12.669   5.294
 4362SOL    HW214984  12.620  12.653   5.369
 4363SOL     OW14985  13.898  13.833  10.820
 4363SOL    HW114986  13.818  13.836  10.873
 4363SOL    HW214987  13.912  13.924  10.793
 4364SOL     OW14988  12.868   1.332   9.473
 4364SOL    HW114989  12.939   1.273   9.448
 4364SOL    HW214990  12.813   1.280   9.532
 4365SOL     OW14991  13.593   8.607  13.954
 4365SOL    HW114992  13.645   8.630  14.032
 4365SOL    HW214993  13.504   8.633  13.976
 4366SOL     OW14994  10.369  11.950  12.766
 4366SOL    HW114995  10.450  11.906  12.739
 4366SOL    HW214996  10.387  12.043  12.750
 4367SOL     OW14997   7.212  13.910   2.378
 4367SOL    HW114998   7.148  13.941   2.314
 4367SOL    HW214999   7.263  13.988   2.400
 4368SOL     OW15000   9.224   0.344  14.246
 4368SOL    HW115001   9.281   0.412  14.211
 4368SOL    HW215002   9.283   0.272  14.269
 4369SOL     OW15003  10.833   4.046  13.977
 4369SOL    HW115004  10.757   4.059  13.920
 4369SOL    HW215005  10.878   4.130  13.975
 4370SOL     OW15006  10.702  10.721   5.604
 4370SOL    HW115007  10.676  10.653   5.542
 4370SOL    HW215008  10.643  10.710   5.678
 4371SOL     OW15009   1.028   8.336   4.321
 4371SOL    HW115010   1.008   8.251   4.361
 4371SOL    HW215011   1.040   8.396   4.395
 4372SOL     OW15012  10.393  10.900  12.436
 4372SOL    HW115013  10.365  10.857  12.356
 4372SOL    HW215014  10.316  10.896  12.494
 4373SOL     OW15015  12.557   4.596  14.654
 4373SOL    HW115016  12.602   4.542  14.719
 4373SOL    HW215017  12.555   4.541  14.575
 4374SOL     OW15018  14.520   2.381  14.333
 4374SOL    HW115019  14.464   2.458  14.337
 4374SOL    HW215020  14.609   2.415  14.338
 4375SOL     OW15021  12.788  10.806   4.652
 4375SOL    HW115022  12.768  10.778   4.741
 4375SOL    HW215023  12.705  10.799   4.605
 4376SOL     OW15024  14.634   3.856   1.459
 4376SOL    HW115025  14.551   3.882   1.418
 4376SOL    HW215026  14.617   3.861   1.553
 4377SOL     OW15027   8.337   0.113  10.887
 4377SOL    HW115028   8.258   0.162  10.864
 4377SOL    HW215029   8.385   0.171  10.947
 4378SOL     OW15030   2.069   5.970  12.084
 4378SOL    HW115031   2.010   5.990  12.011
 4378SOL    HW215032   2.139   6.034  12.076
 4379SOL     OW15033   5.451   6.383   6.116
 4379SOL    HW115034   5.384   6.350   6.176
 4379SOL    HW215035   5.416   6.467   6.085
 4380SOL     OW15036   7.464   9.919   5.960
 4380SOL    HW115037   7.492   9.999   5.916
 4380SOL    HW215038   7.462   9.942   6.053
 4381SOL     OW15039   6.427   0.883   0.267
 4381SOL    HW115040   6.478   0.964   0.271
 4381SOL    HW215041   6.489   0.814   0.289
 4382SOL     OW15042   6.764   0.325   8.516
 4382SOL    HW115043   6.768   0.322   8.421
 4382SOL    HW215044   6.671   0.331   8.537
 4383SOL     OW15045   9.937   0.867   8.620
 4383SOL    HW115046   9.965   0.789   8.667
 4383SOL    HW215047   9.849   0.886   8.655
 4384SOL     OW15048   1.569   6.795   7.645
 4384SOL    HW115049   1.490   6.760   7.686
 4384SOL    HW215050   1.570   6.756   7.557
 4385SOL     OW15051   4.901  11.872   3.853
 4385SOL    HW115052   4.986  11.844   3.817
 4385SOL    HW215053   4.855  11.912   3.779
 4386SOL     OW15054  12.445  10.190   4.881
 4386SOL    HW115055  12.507  10.118   4.890
 4386SOL    HW215056  12.500  10.269   4.881
 4387SOL     OW15057   0.857   0.178   3.261
 4387SOL    HW115058   0.844   0.166   3.167
 4387SOL    HW215059   0.869   0.273   3.272
 4388SOL     OW15060   2.702  11.432  11.068
 4388SOL    HW115061   2.763  11.358  11.071
 4388SOL    HW215062   2.729  11.482  10.991
 4389SOL     OW15063   5.143   6.286   2.160
 4389SOL    HW115064   5.234   6.282   2.131
 4389SOL    HW215065   5.132   6.210   2.216
 4390SOL     OW15066   2.320   6.980   5.332
 4390SOL    HW115067   2.279   6.906   5.377
 4390SOL    HW215068   2.401   6.945   5.296
 4391SOL     OW15069  12.449  13.782   6.873
 4391SOL    HW115070  12.390  13.708   6.883
 4391SOL    HW215071  12.509  13.775   6.948
 4392SOL     OW15072   5.576  13.269   9.959
 4392SOL    HW115073   5.631  13.203  10.001
 4392SOL    HW215074   5.625  13.296   9.882
 4393SOL     OW15075   5.049   7.002   3.492
 4393SOL    HW115076   5.005   7.087   3.498
 4393SOL    HW215077   5.080   6.985   3.581
 4394SOL     OW15078  12.217   5.302   5.346
 4394SOL    HW115079  12.246   5.392   5.332
 4394SOL    HW215080  12.298   5.252   5.358
 4395SOL     OW15081   3.724   9.542   8.084
 4395SOL    HW115082   3.723   9.473   8.151
 4395SOL    HW215083   3.646   9.525   8.031
 4396SOL     OW15084  13.278   3.891   1.812
 4396SOL    HW115085  13.334   3.860   1.741
 4396SOL    HW215086  13.190   3.889   1.776
 4397SOL     OW15087  13.936   8.263   8.485
 4397SOL    HW115088  14.002   8.322   8.522
 4397SOL    HW215089  13.897   8.312   8.414
 4398SOL     OW15090   8.086  11.847   7.225
 4398SOL    HW115091   8.089  11.939   7.200
 4398SOL    HW215092   7.993  11.823   7.217
 4399SOL     OW15093  10.321  10.037   3.935
 4399SOL    HW115094  10.322   9.942   3.949
 4399SOL    HW215095  10.354  10.073   4.017
 4400SOL     OW15096   4.502   3.181   5.409
 4400SOL    HW115097   4.490   3.140   5.323
 4400SOL    HW215098   4.554   3.118   5.459
 4401SOL     OW15099   1.983   9.551   5.628
 4401SOL    HW115100   1.956   9.462   5.606
 4401SOL    HW215101   1.908   9.605   5.603
 4402SOL     OW15102  14.156  13.090   5.699
 4402SOL    HW115103  14.136  13.018   5.759
 4402SOL    HW215104  14.071  13.123   5.671
 4403SOL     OW15105   0.585  11.720   6.575
 4403SOL    HW115106   0.512  11.755   6.625
 4403SOL    HW215107   0.656  11.783   6.590
 4404SOL     OW15108   7.541   1.048  13.101
 4404SOL    HW115109   7.458   1.091  13.079
 4404SOL    HW215110   7.593   1.117  13.142
 4405SOL     OW15111   6.813  11.789  12.430
 4405SOL    HW115112   6.805  11.818  12.339
 4405SOL    HW215113   6.754  11.847  12.478
 4406SOL     OW15114  13.725  14.663   8.639
 4406SOL    HW115115  13.717  14.711   8.721
 4406SOL    HW215116  13.698  14.574   8.661
 4407SOL     OW15117   4.305   9.620  10.102
 4407SOL    HW115118   4.276   9.529  10.109
 4407SOL    HW215119   4.361   9.622  10.025
 4408SOL     OW15120  10.780  10.170   9.103
 4408SOL    HW115121  10.739  10.236   9.047
 4408SOL    HW215122  10.794  10.095   9.045
 4409SOL     OW15123   2.686   2.681   1.005
 4409SOL    HW115124   2.702   2.626   1.081
 4409SOL    HW215125   2.658   2.621   0.936
 4410SOL     OW15126   2.146  11.142   1.913
 4410SOL    HW115127   2.181  11.143   2.002
 4410SOL    HW215128   2.203  11.200   1.864
 4411SOL     OW15129  12.530   4.316   9.272
 4411SOL    HW115130  12.566   4.374   9.207
 4411SOL    HW215131  12.449   4.282   9.233
 4412SOL     OW15132   2.758   3.258   1.910
 4412SOL    HW115133   2.757   3.178   1.962
 4412SOL    HW215134   2.763   3.329   1.974
 4413SOL     OW15135  13.986   9.735   2.310
 4413SOL    HW115136  14.041   9.775   2.377
 4413SOL    HW215137  14.044   9.672   2.266
 4414SOL     OW15138   3.107   9.972  13.507
 4414SOL    HW115139   3.188  10.003  13.467
 4414SOL    HW215140   3.060   9.929  13.435
 4415SOL     OW15141  14.111   7.203  13.365
 4415SOL    HW115142  14.187   7.153  13.395
 4415SOL    HW215143  14.137   7.294  13.374
 4416SOL     OW15144  12.670   4.922  13.363
 4416SOL    HW115145  12.619   4.898  13.286
 4416SOL    HW215146  12.645   5.013  13.381
 4417SOL     OW15147  14.379   4.988   7.530
 4417SOL    HW115148  14.347   4.935   7.457
 4417SOL    HW215149  14.316   5.059   7.538
 4418SOL     OW15150   9.412   4.482   5.829
 4418SOL    HW115151   9.411   4.428   5.908
 4418SOL    HW215152   9.484   4.446   5.777
 4419SOL     OW15153   2.340   0.606  10.167
 4419SOL    HW115154   2.384   0.566  10.242
 4419SOL    HW215155   2.410   0.653  10.122
 4420SOL     OW15156   6.567   2.901  10.676
 4420SOL    HW115157   6.560   2.906  10.580
 4420SOL    HW215158   6.610   2.983  10.701
 4421SOL     OW15159   8.937   6.435   4.374
 4421SOL    HW115160   9.027   6.460   4.355
 4421SOL    HW215161   8.912   6.376   4.303
 4422SOL     OW15162   7.464   7.600  13.604
 4422SOL    HW115163   7.392   7.661  13.586
 4422SOL    HW215164   7.509   7.590  13.520
 4423SOL     OW15165  12.716   0.316  11.761
 4423SOL    HW115166  12.740   0.278  11.845
 4423SOL    HW215167  12.684   0.404  11.782
 4424SOL     OW15168  14.148   9.874  10.663
 4424SOL    HW115169  14.244   9.876  10.664
 4424SOL    HW215170  14.122   9.966  10.662
 4425SOL     OW15171  11.518   3.620   4.235
 4425SOL    HW115172  11.443   3.665   4.195
 4425SOL    HW215173  11.583   3.615   4.166
 4426SOL     OW15174   8.655  10.955   4.644
 4426SOL    HW115175   8.750  10.949   4.639
 4426SOL    HW215176   8.625  10.868   4.618
 4427SOL     OW15177   3.877  11.221   9.061
 4427SOL    HW115178   3.835  11.306   9.050
 4427SOL    HW215179   3.805  11.160   9.074
 4428SOL     OW15180   8.850   1.023   1.464
 4428SOL    HW115181   8.769   0.973   1.468
 4428SOL    HW215182   8.827   1.101   1.414
 4429SOL     OW15183  10.246  11.880  10.130
 4429SOL    HW115184  10.262  11.822  10.204
 4429SOL    HW215185  10.271  11.828  10.053
 4430SOL     OW15186   2.033   6.096   0.475
 4430SOL    HW115187   2.018   6.054   0.390
 4430SOL    HW215188   1.960   6.157   0.484
 4431SOL     OW15189   7.651   9.471  11.969
 4431SOL    HW115190   7.687   9.417  11.899
 4431SOL    HW215191   7.698   9.554  11.962
 4432SOL     OW15192  13.038  12.652   7.087
 4432SOL    HW115193  13.010  12.724   7.144
 4432SOL    HW215194  13.098  12.601   7.141
 4433SOL     OW15195  10.193  10.055   5.157
 4433SOL    HW115196  10.248  10.065   5.079
 4433SOL    HW215197  10.149  10.140   5.166
 4434SOL     OW15198  12.899  11.949  13.724
 4434SOL    HW115199  12.900  12.015  13.655
 4434SOL    HW215200  12.890  11.999  13.805
 4435SOL     OW15201   3.114   7.274   5.365
 4435SOL    HW115202   3.074   7.360   5.356
 4435SOL    HW215203   3.133   7.266   5.458
 4436SOL     OW15204  14.096  10.447  12.280
 4436SOL    HW115205  14.066  10.534  12.304
 4436SOL    HW215206  14.146  10.459  12.199
 4437SOL     OW15207  13.953   2.630   4.584
 4437SOL    HW115208  13.918   2.546   4.555
 4437SOL    HW215209  13.916   2.643   4.671
 4438SOL     OW15210   2.490  13.300   8.557
 4438SOL    HW115211   2.404  13.283   8.519
 4438SOL    HW215212   2.482  13.385   8.600
 4439SOL     OW15213   8.858   0.411   0.610
 4439SOL    HW115214   8.775   0.407   0.563
 4439SOL    HW215215   8.881   0.504   0.609
 4440SOL     OW15216   9.502   2.730   3.071
 4440SOL    HW115217   9.588   2.745   3.111
 4440SOL    HW215218   9.443   2.789   3.117
 4441SOL     OW15219   2.522  12.498   8.971
 4441SOL    HW115220   2.440  12.450   8.963
 4441SOL    HW215221   2.590  12.436   8.944
 4442SOL     OW15222  14.629   6.612  12.494
 4442SOL    HW115223  14.579   6.620  12.413
 4442SOL    HW215224  14.583   6.544  12.544
 4443SOL     OW15225   2.986   1.163   5.700
 4443SOL    HW115226   2.905   1.206   5.671
 4443SOL    HW215227   3.054   1.228   5.683
 4444SOL     OW15228  12.301   6.857   3.302
 4444SOL    HW115229  12.382   6.864   3.253
 4444SOL    HW215230  12.293   6.941   3.348
 4445SOL     OW15231   2.454  12.278   3.344
 4445SOL    HW115232   2.437  12.218   3.271
 4445SOL    HW215233   2.410  12.359   3.318
 4446SOL     OW15234  14.460   5.998  13.466
 4446SOL    HW115235  14.427   6.059  13.533
 4446SOL    HW215236  14.507   5.931  13.516
 4447SOL     OW15237   3.758   8.369   1.613
 4447SOL    HW115238   3.804   8.420   1.547
 4447SOL    HW215239   3.775   8.278   1.590
 4448SOL     OW15240   8.277   0.729   3.530
 4448SOL    HW115241   8.234   0.651   3.495
 4448SOL    HW215242   8.216   0.762   3.597
 4449SOL     OW15243   0.685   4.482   8.062
 4449SOL    HW115244   0.674   4.533   8.142
 4449SOL    HW215245   0.736   4.406   8.089
 4450SOL     OW15246   3.600   4.431   3.289
 4450SOL    HW115247   3.627   4.347   3.251
 4450SOL    HW215248   3.681   4.482   3.293
 4451SOL     OW15249  13.382   9.734   2.690
 4451SOL    HW115250  13.395   9.774   2.604
 4451SOL    HW215251  13.301   9.772   2.723
 4452SOL     OW15252   7.434   3.691  12.508
 4452SOL    HW115253   7.453   3.779  12.540
 4452SOL    HW215254   7.480   3.633  12.569
 4453SOL     OW15255   4.946   2.594   8.320
 4453SOL    HW115256   5.031   2.551   8.309
 4453SOL    HW215257   4.966   2.677   8.362
 4454SOL     OW15258   4.016   1.757   5.930
 4454SOL    HW115259   3.953   1.786   5.995
 4454SOL    HW215260   4.009   1.661   5.931
 4455SOL     OW15261   6.236   7.217   8.259
 4455SOL    HW115262   6.171   7.286   8.268
 4455SOL    HW215263   6.316   7.263   8.234
 4456SOL     OW15264   0.979   0.821  11.168
 4456SOL    HW115265   1.015   0.843  11.253
 4456SOL    HW215266   0.905   0.763  11.187
 4457SOL     OW15267  11.155   7.479  10.803
 4457SOL    HW115268  11.134   7.439  10.888
 4457SOL    HW215269  11.070   7.490  10.760
 4458SOL     OW15270  14.426   0.612   6.954
 4458SOL    HW115271  14.436   0.634   6.861
 4458SOL    HW215272  14.514   0.590   6.983
 4459SOL     OW15273  10.828   0.809   2.860
 4459SOL    HW115274  10.773   0.760   2.922
 4459SOL    HW215275  10.878   0.869   2.915
 4460SOL     OW15276  12.255   6.036  14.765
 4460SOL    HW115277  12.271   6.102  14.698
 4460SOL    HW215278  12.337   5.988  14.773
 4461SOL     OW15279  11.852   3.312   5.714
 4461SOL    HW115280  11.776   3.317   5.772
 4461SOL    HW215281  11.926   3.335   5.770
 4462SOL     OW15282  13.953   7.848   6.264
 4462SOL    HW115283  13.962   7.932   6.310
 4462SOL    HW215284  13.937   7.872   6.173
 4463SOL     OW15285   2.791   6.578   5.294
 4463SOL    HW115286   2.815   6.494   5.332
 4463SOL    HW215287   2.831   6.577   5.207
 4464SOL     OW15288   1.312   5.440  10.778
 4464SOL    HW115289   1.247   5.495  10.734
 4464SOL    HW215290   1.384   5.500  10.799
 4465SOL     OW15291  10.593   4.517   0.150
 4465SOL    HW115292  10.589   4.591   0.089
 4465SOL    HW215293  10.544   4.546   0.226
 4466SOL     OW15294   0.744   7.364  11.209
 4466SOL    HW115295   0.661   7.336  11.170
 4466SOL    HW215296   0.793   7.403  11.137
 4467SOL     OW15297   2.507   5.281  13.585
 4467SOL    HW115298   2.551   5.199  13.562
 4467SOL    HW215299   2.441   5.255  13.648
 4468SOL     OW15300   8.147  10.883   7.013
 4468SOL    HW115301   8.176  10.897   7.103
 4468SOL    HW215302   8.219  10.836   6.971
 4469SOL     OW15303   8.339   3.437  13.565
 4469SOL    HW115304   8.426   3.479  13.563
 4469SOL    HW215305   8.314   3.439  13.657
 4470SOL     OW15306   4.864   4.111  10.285
 4470SOL    HW115307   4.832   4.197  10.258
 4470SOL    HW215308   4.789   4.052  10.271
 4471SOL     OW15309  14.663   5.923  10.908
 4471SOL    HW115310  14.620   5.954  10.828
 4471SOL    HW215311  14.713   5.998  10.940
 4472SOL     OW15312   3.887   9.213   3.197
 4472SOL    HW115313   3.951   9.144   3.214
 4472SOL    HW215314   3.920   9.259   3.120
 4473SOL     OW15315   4.642   2.915  13.646
 4473SOL    HW115316   4.658   2.908  13.740
 4473SOL    HW215317   4.572   2.979  13.638
 4474SOL     OW15318   1.680  11.255   0.465
 4474SOL    HW115319   1.631  11.203   0.529
 4474SOL    HW215320   1.734  11.313   0.519
 4475SOL     OW15321   3.131   6.957   6.988
 4475SOL    HW115322   3.201   6.981   6.927
 4475SOL    HW215323   3.116   7.035   7.041
 4476SOL     OW15324  11.136   7.760   0.127
 4476SOL    HW115325  11.067   7.826   0.114
 4476SOL    HW215326  11.199   7.802   0.186
 4477SOL     OW15327  14.698   3.357   8.544
 4477SOL    HW115328  14.702   3.400   8.629
 4477SOL    HW215329  14.620   3.393   8.502
 4478SOL     OW15330   0.837  14.841   7.749
 4478SOL    HW115331   0.899  14.783   7.792
 4478SOL    HW215332   0.821  14.801   7.664
 4479SOL     OW15333  12.254   5.704   9.036
 4479SOL    HW115334  12.281   5.794   9.057
 4479SOL    HW215335  12.173   5.692   9.085
 4480SOL     OW15336   9.449   0.878   4.129
 4480SOL    HW115337   9.354   0.867   4.131
 4480SOL    HW215338   9.462   0.963   4.087
 4481SOL     OW15339   6.615   4.379   8.951
 4481SOL    HW115340   6.539   4.362   8.895
 4481SOL    HW215341   6.657   4.293   8.960
 4482SOL     OW15342  14.632  12.645  13.674
 4482SOL    HW115343  14.669  12.644  13.586
 4482SOL    HW215344  14.680  12.576  13.721
 4483SOL     OW15345   2.479  11.442  11.249
 4483SOL    HW115346   2.441  11.528  11.231
 4483SOL    HW215347   2.548  11.433  11.183
 4484SOL     OW15348   6.128  12.063   7.322
 4484SOL    HW115349   6.054  12.056   7.262
 4484SOL    HW215350   6.189  11.995   7.294
 4485SOL     OW15351   2.463   8.781  12.287
 4485SOL    HW115352   2.503   8.760  12.372
 4485SOL    HW215353   2.461   8.877  12.285
 4486SOL     OW15354   5.664   1.314  14.022
 4486SOL    HW115355   5.625   1.236  14.062
 4486SOL    HW215356   5.680   1.289  13.931
 4487SOL     OW15357   0.572  13.427   1.536
 4487SOL    HW115358   0.642  13.456   1.593
 4487SOL    HW215359   0.563  13.333   1.554
 4488SOL     OW15360  14.804  14.853  11.962
 4488SOL    HW115361  14.765  14.842  12.048
 4488SOL    HW215362   0.025   0.011  11.980
 4489SOL     OW15363   4.601   0.149   3.727
 4489SOL    HW115364   4.678   0.117   3.774
 4489SOL    HW215365   4.625   0.237   3.698
 4490SOL     OW15366  12.915   9.818  14.698
 4490SOL    HW115367  12.886   9.814  14.789
 4490SOL    HW215368  12.900   9.730  14.664
 4491SOL     OW15369   8.975  14.496   5.512
 4491SOL    HW115370   9.051  14.524   5.460
 4491SOL    HW215371   8.999  14.410   5.545
 4492SOL     OW15372   7.351   4.353  11.423
 4492SOL    HW115373   7.443   4.332  11.439
 4492SOL    HW215374   7.348   4.448  11.422
 4493SOL     OW15375   9.230   5.589   3.377
 4493SOL    HW115376   9.288   5.549   3.441
 4493SOL    HW215377   9.142   5.567   3.409
 4494SOL     OW15378   1.148   3.190   7.737
 4494SOL    HW115379   1.170   3.101   7.712
 4494SOL    HW215380   1.232   3.231   7.758
 4495SOL     OW15381  13.834   9.531  14.111
 4495SOL    HW115382  13.808   9.518  14.020
 4495SOL    HW215383  13.874   9.447  14.136
 4496SOL     OW15384   6.178  14.214  10.009
 4496SOL    HW115385   6.226  14.241   9.931
 4496SOL    HW215386   6.176  14.119  10.005
 4497SOL     OW15387   4.994  11.710  13.727
 4497SOL    HW115388   5.069  11.683  13.781
 4497SOL    HW215389   4.934  11.635  13.732
 4498SOL     OW15390   9.231  10.004   9.474
 4498SOL    HW115391   9.139  10.024   9.490
 4498SOL    HW215392   9.265  10.081   9.429
 4499SOL     OW15393   6.348  14.607   6.274
 4499SOL    HW115394   6.297  14.646   6.204
 4499SOL    HW215395   6.287  14.548   6.319
 4500SOL     OW15396  14.231  12.682   8.471
 4500SOL    HW115397  14.197  12.711   8.386
 4500SOL    HW215398  14.305  12.626   8.449
 4501SOL     OW15399   1.921   0.135   1.778
 4501SOL    HW115400   1.869   0.087   1.842
 4501SOL    HW215401   1.907   0.227   1.801
 4502SOL     OW15402   5.750   6.559   6.915
 4502SOL    HW115403   5.802   6.515   6.848
 4502SOL    HW215404   5.678   6.600   6.867
 4503SOL     OW15405   0.853   1.455  13.811
 4503SOL    HW115406   0.896   1.374  13.785
 4503SOL    HW215407   0.812   1.488  13.730
 4504SOL     OW15408   7.222   1.757  13.035
 4504SOL    HW115409   7.279   1.746  12.959
 4504SOL    HW215410   7.216   1.852  13.047
 4505SOL     OW15411   1.027   8.110  10.088
 4505SOL    HW115412   0.951   8.126  10.031
 4505SOL    HW215413   1.002   8.035  10.141
 4506SOL     OW15414  14.318   3.984   7.937
 4506SOL    HW115415  14.352   3.977   8.026
 4506SOL    HW215416  14.356   3.909   7.891
 4507SOL     OW15417  14.710   8.701   9.758
 4507SOL    HW115418  14.789   8.649   9.776
 4507SOL    HW215419  14.689   8.743   9.841
 4508SOL     OW15420  11.871   1.710   1.579
 4508SOL    HW115421  11.829   1.636   1.622
 4508SOL    HW215422  11.932   1.671   1.516
 4509SOL     OW15423   8.209   4.186   1.914
 4509SOL    HW115424   8.260   4.122   1.964
 4509SOL    HW215425   8.231   4.270   1.953
 4510SOL     OW15426   7.552   0.973   8.707
 4510SOL    HW115427   7.494   0.941   8.776
 4510SOL    HW215428   7.497   0.983   8.630
 4511SOL     OW15429  12.344  13.683   4.494
 4511SOL    HW115430  12.390  13.720   4.569
 4511SOL    HW215431  12.370  13.590   4.495
 4512SOL     OW15432  12.498  11.530   2.036
 4512SOL    HW115433  12.448  11.451   2.015
 4512SOL    HW215434  12.574  11.498   2.084
 4513SOL     OW15435   2.089  11.534   2.019
 4513SOL    HW115436   2.010  11.517   2.069
 4513SOL    HW215437   2.062  11.594   1.949
 4514SOL     OW15438  12.444   6.972   7.641
 4514SOL    HW115439  12.405   6.903   7.695
 4514SOL    HW215440  12.494   7.025   7.702
 4515SOL     OW15441   8.665   2.960   1.193
 4515SOL    HW115442   8.731   2.956   1.263
 4515SOL    HW215443   8.592   3.008   1.231
 4516SOL     OW15444  12.577   3.747   2.840
 4516SOL    HW115445  12.522   3.811   2.797
 4516SOL    HW215446  12.620   3.796   2.911
 4517SOL     OW15447   3.815   8.245   8.644
 4517SOL    HW115448   3.797   8.315   8.581
 4517SOL    HW215449   3.755   8.262   8.717
 4518SOL     OW15450   8.428   1.906   0.897
 4518SOL    HW115451   8.436   1.876   0.987
 4518SOL    HW215452   8.353   1.858   0.862
 4519SOL     OW15453  11.721  12.402   5.549
 4519SOL    HW115454  11.786  12.428   5.483
 4519SOL    HW215455  11.744  12.455   5.626
 4520SOL     OW15456  12.232   2.459   4.857
 4520SOL    HW115457  12.178   2.386   4.889
 4520SOL    HW215458  12.309   2.416   4.818
 4521SOL     OW15459  12.675  12.971   2.715
 4521SOL    HW115460  12.758  12.988   2.760
 4521SOL    HW215461  12.680  13.023   2.635
 4522SOL     OW15462   0.770   7.411  11.496
 4522SOL    HW115463   0.796   7.407  11.404
 4522SOL    HW215464   0.803   7.330  11.534
 4523SOL     OW15465   4.281  11.218   0.791
 4523SOL    HW115466   4.252  11.190   0.878
 4523SOL    HW215467   4.306  11.136   0.747
 4524SOL     OW15468   0.404   6.363   8.932
 4524SOL    HW115469   0.417   6.437   8.873
 4524SOL    HW215470   0.331   6.314   8.893
 4525SOL     OW15471  10.348   1.577   9.714
 4525SOL    HW115472  10.372   1.669   9.706
 4525SOL    HW215473  10.418   1.530   9.668
 4526SOL     OW15474  10.426   5.908  13.388
 4526SOL    HW115475  10.367   5.834  13.401
 4526SOL    HW215476  10.420   5.926  13.294
 4527SOL     OW15477   2.348   8.351  13.080
 4527SOL    HW115478   2.265   8.393  13.057
 4527SOL    HW215479   2.408   8.423  13.095
 4528SOL     OW15480   4.364   0.902  12.637
 4528SOL    HW115481   4.288   0.870  12.589
 4528SOL    HW215482   4.413   0.822  12.659
 4529SOL     OW15483  12.375   2.676   0.817
 4529SOL    HW115484  12.400   2.612   0.750
 4529SOL    HW215485  12.417   2.646   0.897
 4530SOL     OW15486   4.585   8.680   1.026
 4530SOL    HW115487   4.576   8.772   1.001
 4530SOL    HW215488   4.637   8.681   1.106
 4531SOL     OW15489   7.639   0.765   1.940
 4531SOL    HW115490   7.633   0.682   1.894
 4531SOL    HW215491   7.548   0.793   1.952
 4532SOL     OW15492  11.847   5.812  14.084
 4532SOL    HW115493  11.860   5.767  14.167
 4532SOL    HW215494  11.922   5.870  14.075
 4533SOL     OW15495   0.815  12.800   5.417
 4533SOL    HW115496   0.909  12.815   5.414
 4533SOL    HW215497   0.805  12.708   5.393
 4534SOL     OW15498   8.424  10.598   2.823
 4534SOL    HW115499   8.462  10.565   2.904
 4534SOL    HW215500   8.442  10.530   2.758
 4535SOL     OW15501   5.887   0.384   1.679
 4535SOL    HW115502   5.941   0.389   1.600
 4535SOL    HW215503   5.890   0.473   1.715
 4536SOL     OW15504   1.816   9.621   9.695
 4536SOL    HW115505   1.892   9.608   9.638
 4536SOL    HW215506   1.854   9.639   9.781
 4537SOL     OW15507   1.613   3.169   9.789
 4537SOL    HW115508   1.548   3.101   9.807
 4537SOL    HW215509   1.580   3.213   9.711
 4538SOL     OW15510  10.176   2.904   7.151
 4538SOL    HW115511  10.237   2.888   7.079
 4538SOL    HW215512  10.221   2.968   7.207
 4539SOL     OW15513   6.224   5.573   2.937
 4539SOL    HW115514   6.284   5.600   3.007
 4539SOL    HW215515   6.144   5.547   2.982
 4540SOL     OW15516   0.395   7.231  13.941
 4540SOL    HW115517   0.310   7.253  13.977
 4540SOL    HW215518   0.423   7.311  13.895
 4541SOL     OW15519   6.367   9.117   9.540
 4541SOL    HW115520   6.314   9.196   9.545
 4541SOL    HW215521   6.455   9.146   9.562
 4542SOL     OW15522   9.607   7.409  11.966
 4542SOL    HW115523   9.702   7.400  11.964
 4542SOL    HW215524   9.580   7.370  12.049
 4543SOL     OW15525  10.359  12.167   6.515
 4543SOL    HW115526  10.346  12.244   6.459
 4543SOL    HW215527  10.453  12.152   6.513
 4544SOL     OW15528   7.235   3.468   1.594
 4544SOL    HW115529   7.198   3.530   1.531
 4544SOL    HW215530   7.227   3.383   1.551
 4545SOL     OW15531   4.111   1.132   4.688
 4545SOL    HW115532   4.180   1.163   4.747
 4545SOL    HW215533   4.134   1.169   4.602
 4546SOL     OW15534   1.749   2.439   0.807
 4546SOL    HW115535   1.740   2.515   0.864
 4546SOL    HW215536   1.683   2.451   0.739
 4547SOL     OW15537  14.016   3.911   8.800
 4547SOL    HW115538  13.961   3.983   8.770
 4547SOL    HW215539  14.062   3.946   8.876
 4548SOL     OW15540  13.334   0.059   9.363
 4548SOL    HW115541  13.249   0.017   9.353
 4548SOL    HW215542  13.351   0.099   9.278
 4549SOL     OW15543  14.152   3.433   6.385
 4549SOL    HW115544  14.122   3.476   6.465
 4549SOL    HW215545  14.157   3.340   6.409
 4550SOL     OW15546  10.099  13.003  13.909
 4550SOL    HW115547  10.185  12.971  13.881
 4550SOL    HW215548  10.049  13.013  13.828
 4551SOL     OW15549   0.646  13.573   5.813
 4551SOL    HW115550   0.687  13.624   5.883
 4551SOL    HW215551   0.691  13.488   5.816
 4552SOL     OW15552  10.811   7.703  12.602
 4552SOL    HW115553  10.831   7.745  12.685
 4552SOL    HW215554  10.722   7.732  12.581
 4553SOL     OW15555  11.088   7.784   3.491
 4553SOL    HW115556  11.040   7.860   3.524
 4553SOL    HW215557  11.055   7.772   3.402
 4554SOL     OW15558   4.836  13.356   7.128
 4554SOL    HW115559   4.772  13.287   7.108
 4554SOL    HW215560   4.818  13.381   7.218
 4555SOL     OW15561   8.726   0.162   0.449
 4555SOL    HW115562   8.746   0.129   0.362
 4555SOL    HW215563   8.737   0.086   0.507
 4556SOL     OW15564   5.543  14.123   8.952
 4556SOL    HW115565   5.501  14.071   8.884
 4556SOL    HW215566   5.567  14.059   9.019
 4557SOL     OW15567   4.409  13.506   8.272
 4557SOL    HW115568   4.322  13.522   8.235
 4557SOL    HW215569   4.405  13.544   8.360
 4558SOL     OW15570   7.767   7.765   8.771
 4558SOL    HW115571   7.778   7.768   8.866
 4558SOL    HW215572   7.674   7.747   8.758
 4559SOL     OW15573   3.910   6.306   2.227
 4559SOL    HW115574   3.862   6.352   2.296
 4559SOL    HW215575   3.991   6.355   2.216
 4560SOL     OW15576   3.812  11.179  10.208
 4560SOL    HW115577   3.777  11.153  10.293
 4560SOL    HW215578   3.891  11.125  10.197
 4561SOL     OW15579  12.878  10.446   1.119
 4561SOL    HW115580  12.853  10.374   1.178
 4561SOL    HW215581  12.829  10.522   1.153
 4562SOL     OW15582  13.722   5.912   6.800
 4562SOL    HW115583  13.731   5.905   6.705
 4562SOL    HW215584  13.666   5.987   6.814
 4563SOL     OW15585   3.049   9.576   9.991
 4563SOL    HW115586   2.981   9.582   9.924
 4563SOL    HW215587   3.123   9.535   9.946
 4564SOL     OW15588   9.473  11.479   0.913
 4564SOL    HW115589   9.421  11.548   0.871
 4564SOL    HW215590   9.422  11.399   0.899
 4565SOL     OW15591   2.366  11.842   1.691
 4565SOL    HW115592   2.280  11.875   1.663
 4565SOL    HW215593   2.379  11.880   1.778
 4566SOL     OW15594   1.756   7.529   5.349
 4566SOL    HW115595   1.779   7.607   5.299
 4566SOL    HW215596   1.816   7.462   5.317
 4567SOL     OW15597   0.197   4.618   3.515
 4567SOL    HW115598   0.237   4.624   3.602
 4567SOL    HW215599   0.114   4.573   3.530
 4568SOL     OW15600   9.313  14.674   9.444
 4568SOL    HW115601   9.263  14.671   9.363
 4568SOL    HW215602   9.309  14.765   9.472
 4569SOL     OW15603   9.946  13.585   7.668
 4569SOL    HW115604   9.880  13.646   7.635
 4569SOL    HW215605   9.911  13.555   7.751
 4570SOL     OW15606   1.600   1.075   2.908
 4570SOL    HW115607   1.522   1.085   2.854
 4570SOL    HW215608   1.672   1.073   2.845
 4571SOL     OW15609   9.076   6.470   3.860
 4571SOL    HW115610   9.122   6.459   3.777
 4571SOL    HW215611   9.125   6.416   3.922
 4572SOL     OW15612   9.787   1.039  13.975
 4572SOL    HW115613   9.819   0.976  14.040
 4572SOL    HW215614   9.866   1.065  13.926
 4573SOL     OW15615  11.223   9.937  10.658
 4573SOL    HW115616  11.312   9.969  10.641
 4573SOL    HW215617  11.168  10.015  10.649
 4574SOL     OW15618   0.286   6.887   2.060
 4574SOL    HW115619   0.205   6.938   2.053
 4574SOL    HW215620   0.269   6.825   2.131
 4575SOL     OW15621   6.837  11.530   6.001
 4575SOL    HW115622   6.764  11.474   6.027
 4575SOL    HW215623   6.841  11.597   6.069
 4576SOL     OW15624   7.440   8.289  10.350
 4576SOL    HW115625   7.420   8.334  10.268
 4576SOL    HW215626   7.467   8.359  10.410
 4577SOL     OW15627   9.240   1.268   4.832
 4577SOL    HW115628   9.178   1.198   4.852
 4577SOL    HW215629   9.316   1.222   4.797
 4578SOL     OW15630   3.533  10.844   8.675
 4578SOL    HW115631   3.446  10.810   8.652
 4578SOL    HW215632   3.594  10.789   8.624
 4579SOL     OW15633   1.275   6.136   6.080
 4579SOL    HW115634   1.244   6.061   6.028
 4579SOL    HW215635   1.220   6.209   6.052
 4580SOL     OW15636   4.856  10.405   0.506
 4580SOL    HW115637   4.821  10.322   0.537
 4580SOL    HW215638   4.840  10.405   0.412
 4581SOL     OW15639  14.549   1.490  10.092
 4581SOL    HW115640  14.581   1.506  10.004
 4581SOL    HW215641  14.491   1.415  10.083
 4582SOL     OW15642  11.509  10.996   2.410
 4582SOL    HW115643  11.566  11.029   2.480
 4582SOL    HW215644  11.434  11.056   2.411
 4583SOL     OW15645  10.656   8.440  13.054
 4583SOL    HW115646  10.627   8.515  13.002
 4583SOL    HW215647  10.731   8.405  13.004
 4584SOL     OW15648   1.472   7.489   4.109
 4584SOL    HW115649   1.417   7.410   4.106
 4584SOL    HW215650   1.414   7.560   4.083
 4585SOL     OW15651  12.804  14.573  10.486
 4585SOL    HW115652  12.724  14.523  10.501
 4585SOL    HW215653  12.820  14.566  10.392
 4586SOL     OW15654   0.131   2.605   0.989
 4586SOL    HW115655   0.128   2.537   0.922
 4586SOL    HW215656   0.062   2.580   1.051
 4587SOL     OW15657  12.886  12.525  12.447
 4587SOL    HW115658  12.866  12.599  12.390
 4587SOL    HW215659  12.805  12.474  12.449
 4588SOL     OW15660   6.082   3.670   2.681
 4588SOL    HW115661   6.054   3.640   2.767
 4588SOL    HW215662   6.160   3.723   2.698
 4589SOL     OW15663   3.666   0.711   2.942
 4589SOL    HW115664   3.627   0.771   3.007
 4589SOL    HW215665   3.595   0.696   2.879
 4590SOL     OW15666  12.307   3.708   4.947
 4590SOL    HW115667  12.331   3.617   4.928
 4590SOL    HW215668  12.247   3.731   4.876
 4591SOL     OW15669   2.885   9.930   4.136
 4591SOL    HW115670   2.833   9.921   4.056
 4591SOL    HW215671   2.960   9.984   4.111
 4592SOL     OW15672   1.553  14.770   5.436
 4592SOL    HW115673   1.535  14.740   5.347
 4592SOL    HW215674   1.470  14.804   5.467
 4593SOL     OW15675   0.987   4.780  10.611
 4593SOL    HW115676   1.026   4.850  10.560
 4593SOL    HW215677   0.941   4.825  10.682
 4594SOL     OW15678   2.549   4.327  12.692
 4594SOL    HW115679   2.578   4.395  12.631
 4594SOL    HW215680   2.625   4.271  12.704
 4595SOL     OW15681  10.090   1.025  11.619
 4595SOL    HW115682  10.112   1.113  11.651
 4595SOL    HW215683  10.057   1.039  11.531
 4596SOL     OW15684   6.735  14.606   3.657
 4596SOL    HW115685   6.809  14.549   3.682
 4596SOL    HW215686   6.660  14.567   3.702
 4597SOL     OW15687   6.497  11.738  11.622
 4597SOL    HW115688   6.462  11.649  11.622
 4597SOL    HW215689   6.592  11.727  11.622
 4598SOL     OW15690   3.591  12.901   7.111
 4598SOL    HW115691   3.678  12.867   7.133
 4598SOL    HW215692   3.565  12.952   7.187
 4599SOL     OW15693   7.307   1.423   5.298
 4599SOL    HW115694   7.244   1.440   5.227
 4599SOL    HW215695   7.254   1.424   5.377
 4600SOL     OW15696   0.720   3.826   0.021
 4600SOL    HW115697   0.655   3.829  14.822
 4600SOL    HW215698   0.678   3.868   0.096
 4601SOL     OW15699  11.412  13.778  11.919
 4601SOL    HW115700  11.402  13.819  12.005
 4601SOL    HW215701  11.365  13.836  11.859
 4602SOL     OW15702   0.367   4.693   6.693
 4602SOL    HW115703   0.312   4.615   6.685
 4602SOL    HW215704   0.385   4.699   6.787
 4603SOL     OW15705   2.062   1.431   1.727
 4603SOL    HW115706   1.977   1.474   1.726
 4603SOL    HW215707   2.082   1.416   1.635
 4604SOL     OW15708   9.041   6.095   9.661
 4604SOL    HW115709   9.097   6.152   9.714
 4604SOL    HW215710   9.064   6.116   9.570
 4605SOL     OW15711   4.543   9.433  14.320
 4605SOL    HW115712   4.504   9.355  14.282
 4605SOL    HW215713   4.594   9.471  14.249
 4606SOL     OW15714   5.825   2.051  14.443
 4606SOL    HW115715   5.839   2.007  14.360
 4606SOL    HW215716   5.779   1.987  14.497
 4607SOL     OW15717   1.827  13.011   2.586
 4607SOL    HW115718   1.733  13.019   2.574
 4607SOL    HW215719   1.864  13.087   2.540
 4608SOL     OW15720   2.070  11.338   1.554
 4608SOL    HW115721   2.137  11.315   1.619
 4608SOL    HW215722   2.081  11.432   1.541
 4609SOL     OW15723   3.834  11.013   6.899
 4609SOL    HW115724   3.858  11.087   6.844
 4609SOL    HW215725   3.898  10.945   6.877
 4610SOL     OW15726  10.825   5.853  10.281
 4610SOL    HW115727  10.816   5.762  10.310
 4610SOL    HW215728  10.914   5.858  10.247
 4611SOL     OW15729   5.726   7.037  12.653
 4611SOL    HW115730   5.756   7.043  12.744
 4611SOL    HW215731   5.631   7.027  12.660
 4612SOL     OW15732   8.176   7.140   0.050
 4612SOL    HW115733   8.245   7.106   0.107
 4612SOL    HW215734   8.164   7.072  14.854
 4613SOL     OW15735   7.407   7.443  11.336
 4613SOL    HW115736   7.393   7.454  11.430
 4613SOL    HW215737   7.337   7.494  11.295
 4614SOL     OW15738   8.210   3.005   8.676
 4614SOL    HW115739   8.234   3.012   8.584
 4614SOL    HW215740   8.116   3.024   8.678
 4615SOL     OW15741  14.587   9.284   6.741
 4615SOL    HW115742  14.517   9.292   6.806
 4615SOL    HW215743  14.656   9.343   6.773
 4616SOL     OW15744  10.717   8.876   5.593
 4616SOL    HW115745  10.739   8.814   5.524
 4616SOL    HW215746  10.730   8.962   5.552
 4617SOL     OW15747  12.034   6.067   6.107
 4617SOL    HW115748  11.990   6.133   6.053
 4617SOL    HW215749  11.978   5.990   6.101
 4618SOL     OW15750  13.627  10.406  12.668
 4618SOL    HW115751  13.666  10.358  12.741
 4618SOL    HW215752  13.679  10.487  12.663
 4619SOL     OW15753   2.837   2.478   0.677
 4619SOL    HW115754   2.798   2.412   0.736
 4619SOL    HW215755   2.874   2.426   0.605
 4620SOL     OW15756   3.214   2.955   1.569
 4620SOL    HW115757   3.304   2.971   1.599
 4620SOL    HW215758   3.213   2.990   1.479
 4621SOL     OW15759  13.494   4.724  14.815
 4621SOL    HW115760  13.497   4.722  14.719
 4621SOL    HW215761  13.527   4.638  14.841
 4622SOL     OW15762  10.095  11.906   1.906
 4622SOL    HW115763  10.158  11.972   1.934
 4622SOL    HW215764  10.085  11.848   1.982
 4623SOL     OW15765   9.274   5.561   1.361
 4623SOL    HW115766   9.222   5.480   1.356
 4623SOL    HW215767   9.363   5.531   1.375
 4624SOL     OW15768  12.718  14.299   7.716
 4624SOL    HW115769  12.729  14.364   7.646
 4624SOL    HW215770  12.677  14.224   7.672
 4625SOL     OW15771   6.079   1.314   8.617
 4625SOL    HW115772   5.986   1.291   8.627
 4625SOL    HW215773   6.081   1.368   8.538
 4626SOL     OW15774   5.364   6.579  11.840
 4626SOL    HW115775   5.306   6.653  11.855
 4626SOL    HW215776   5.359   6.527  11.921
 4627SOL     OW15777   5.626   8.643  11.127
 4627SOL    HW115778   5.533   8.645  11.105
 4627SOL    HW215779   5.671   8.630  11.043
 4628SOL     OW15780   6.530  14.343   9.150
 4628SOL    HW115781   6.592  14.402   9.193
 4628SOL    HW215782   6.545  14.257   9.190
 4629SOL     OW15783   8.642   7.751  14.556
 4629SOL    HW115784   8.696   7.683  14.516
 4629SOL    HW215785   8.552   7.725  14.534
 4630SOL     OW15786  10.205   2.210   8.196
 4630SOL    HW115787  10.190   2.221   8.102
 4630SOL    HW215788  10.186   2.117   8.212
 4631SOL     OW15789   1.855   8.099   8.888
 4631SOL    HW115790   1.852   8.173   8.828
 4631SOL    HW215791   1.948   8.092   8.912
 4632SOL     OW15792   8.186   7.915   0.886
 4632SOL    HW115793   8.274   7.876   0.885
 4632SOL    HW215794   8.184   7.966   0.967
 4633SOL     OW15795   9.470   9.296   5.655
 4633SOL    HW115796   9.400   9.350   5.618
 4633SOL    HW215797   9.436   9.207   5.651
 4634SOL     OW15798  12.015  12.044   6.966
 4634SOL    HW115799  12.076  12.116   6.980
 4634SOL    HW215800  12.029  11.986   7.041
 4635SOL     OW15801   2.293  10.337   9.076
 4635SOL    HW115802   2.329  10.419   9.042
 4635SOL    HW215803   2.215  10.321   9.023
 4636SOL     OW15804   5.177   2.956   5.484
 4636SOL    HW115805   5.223   3.032   5.448
 4636SOL    HW215806   5.111   2.993   5.542
 4637SOL     OW15807  11.806   3.601   2.322
 4637SOL    HW115808  11.860   3.669   2.363
 4637SOL    HW215809  11.865   3.528   2.307
 4638SOL     OW15810   5.726   2.801   4.639
 4638SOL    HW115811   5.715   2.893   4.665
 4638SOL    HW215812   5.759   2.758   4.717
 4639SOL     OW15813  10.734   1.143  12.185
 4639SOL    HW115814  10.803   1.112  12.127
 4639SOL    HW215815  10.655   1.098  12.153
 4640SOL     OW15816  14.764  13.523  14.582
 4640SOL    HW115817  14.767  13.430  14.562
 4640SOL    HW215818  14.749  13.527  14.676
 4641SOL     OW15819   5.483   0.218  12.931
 4641SOL    HW115820   5.469   0.138  12.881
 4641SOL    HW215821   5.470   0.191  13.022
 4642SOL     OW15822   3.619   5.534  11.807
 4642SOL    HW115823   3.576   5.499  11.885
 4642SOL    HW215824   3.573   5.616  11.789
 4643SOL     OW15825  14.319   6.971  11.830
 4643SOL    HW115826  14.318   6.877  11.813
 4643SOL    HW215827  14.238   7.003  11.790
 4644SOL     OW15828   2.567  10.318  10.193
 4644SOL    HW115829   2.496  10.253  10.190
 4644SOL    HW215830   2.538  10.381  10.259
 4645SOL     OW15831   3.576  11.324   8.906
 4645SOL    HW115832   3.655  11.377   8.912
 4645SOL    HW215833   3.543  11.318   8.996
 4646SOL     OW15834   9.232  12.016  10.148
 4646SOL    HW115835   9.230  12.028  10.243
 4646SOL    HW215836   9.310  11.963  10.133
 4647SOL     OW15837   7.879   0.043   7.469
 4647SOL    HW115838   7.939   0.073   7.401
 4647SOL    HW215839   7.803   0.100   7.461
 4648SOL     OW15840  13.040  13.417   5.328
 4648SOL    HW115841  13.100  13.491   5.324
 4648SOL    HW215842  12.962  13.452   5.372
 4649SOL     OW15843   5.504  13.377  13.660
 4649SOL    HW115844   5.480  13.455  13.710
 4649SOL    HW215845   5.426  13.359  13.607
 4650SOL     OW15846   9.820   1.015   6.010
 4650SOL    HW115847   9.799   1.075   5.939
 4650SOL    HW215848   9.915   1.020   6.018
 4651SOL     OW15849  11.014   8.198   7.504
 4651SOL    HW115850  11.000   8.286   7.469
 4651SOL    HW215851  11.047   8.148   7.429
 4652SOL     OW15852   0.442  14.607   7.681
 4652SOL    HW115853   0.461  14.524   7.637
 4652SOL    HW215854   0.405  14.662   7.612
 4653SOL     OW15855   2.379   1.626   6.340
 4653SOL    HW115856   2.447   1.564   6.368
 4653SOL    HW215857   2.318   1.628   6.414
 4654SOL     OW15858   2.894   0.214   2.485
 4654SOL    HW115859   2.872   0.184   2.573
 4654SOL    HW215860   2.945   0.143   2.447
 4655SOL     OW15861  13.255   4.568   3.895
 4655SOL    HW115862  13.260   4.609   3.809
 4655SOL    HW215863  13.178   4.511   3.890
 4656SOL     OW15864   2.732   4.480   5.287
 4656SOL    HW115865   2.813   4.504   5.243
 4656SOL    HW215866   2.673   4.454   5.216
 4657SOL     OW15867  13.006   7.726  14.340
 4657SOL    HW115868  13.061   7.697  14.268
 4657SOL    HW215869  12.935   7.775  14.297
 4658SOL     OW15870   6.300  12.012  10.650
 4658SOL    HW115871   6.269  11.947  10.587
 4658SOL    HW215872   6.269  11.979  10.735
 4659SOL     OW15873   6.847   0.147  13.311
 4659SOL    HW115874   6.769   0.136  13.256
 4659SOL    HW215875   6.887   0.060  13.314
 4660SOL     OW15876   9.383   0.939   0.949
 4660SOL    HW115877   9.352   0.850   0.935
 4660SOL    HW215878   9.400   0.943   1.043
 4661SOL     OW15879  13.652  14.314   4.028
 4661SOL    HW115880  13.739  14.284   4.055
 4661SOL    HW215881  13.591  14.260   4.079
 4662SOL     OW15882   4.154   6.647   9.158
 4662SOL    HW115883   4.079   6.678   9.106
 4662SOL    HW215884   4.190   6.726   9.198
 4663SOL     OW15885   2.497   7.967   6.153
 4663SOL    HW115886   2.543   8.040   6.111
 4663SOL    HW215887   2.420   8.008   6.193
 4664SOL     OW15888   1.479   8.980   3.511
 4664SOL    HW115889   1.442   8.935   3.587
 4664SOL    HW215890   1.403   9.016   3.465
 4665SOL     OW15891  11.868  10.344   5.485
 4665SOL    HW115892  11.814  10.276   5.524
 4665SOL    HW215893  11.903  10.393   5.559
 4666SOL     OW15894   9.698   7.087   3.670
 4666SOL    HW115895   9.657   7.172   3.657
 4666SOL    HW215896   9.772   7.104   3.728
 4667SOL     OW15897   6.246   6.322   9.689
 4667SOL    HW115898   6.182   6.373   9.739
 4667SOL    HW215899   6.193   6.272   9.627
 4668SOL     OW15900   7.666   0.659  10.001
 4668SOL    HW115901   7.738   0.705   9.958
 4668SOL    HW215902   7.641   0.590   9.939
 4669SOL     OW15903  12.695  11.527  10.698
 4669SOL    HW115904  12.665  11.477  10.774
 4669SOL    HW215905  12.791  11.520  10.702
 4670SOL     OW15906   0.382   6.707   4.165
 4670SOL    HW115907   0.385   6.611   4.173
 4670SOL    HW215908   0.395   6.723   4.072
 4671SOL     OW15909   8.377   2.236   9.115
 4671SOL    HW115910   8.282   2.233   9.124
 4671SOL    HW215911   8.396   2.174   9.044
 4672SOL     OW15912  11.382  14.486  13.168
 4672SOL    HW115913  11.313  14.527  13.115
 4672SOL    HW215914  11.336  14.453  13.245
 4673SOL     OW15915   9.413   3.025   2.825
 4673SOL    HW115916   9.326   2.992   2.849
 4673SOL    HW215917   9.448   2.958   2.766
 4674SOL     OW15918   0.474   5.636  14.035
 4674SOL    HW115919   0.407   5.568  14.042
 4674SOL    HW215920   0.500   5.634  13.943
 4675SOL     OW15921   6.753   5.583  13.681
 4675SOL    HW115922   6.777   5.491  13.674
 4675SOL    HW215923   6.829   5.624  13.723
 4676SOL     OW15924   1.601   9.290  10.519
 4676SOL    HW115925   1.550   9.268  10.597
 4676SOL    HW215926   1.583   9.382  10.503
 4677SOL     OW15927   2.653   5.182   5.930
 4677SOL    HW115928   2.668   5.274   5.906
 4677SOL    HW215929   2.598   5.186   6.008
 4678SOL     OW15930  10.992  13.726   5.330
 4678SOL    HW115931  10.952  13.805   5.294
 4678SOL    HW215932  10.941  13.654   5.294
 4679SOL     OW15933  14.131   7.310   6.357
 4679SOL    HW115934  14.056   7.265   6.318
 4679SOL    HW215935  14.093   7.371   6.419
 4680SOL     OW15936   8.725   5.503  11.318
 4680SOL    HW115937   8.800   5.561  11.304
 4680SOL    HW215938   8.761   5.430  11.369
 4681SOL     OW15939   1.289   9.471   5.878
 4681SOL    HW115940   1.338   9.425   5.811
 4681SOL    HW215941   1.241   9.403   5.924
 4682SOL     OW15942   1.800   0.087  13.229
 4682SOL    HW115943   1.859   0.018  13.198
 4682SOL    HW215944   1.846   0.127  13.303
 4683SOL     OW15945   8.313   1.358  14.724
 4683SOL    HW115946   8.240   1.307  14.760
 4683SOL    HW215947   8.270   1.427  14.673
 4684SOL     OW15948  13.651  14.280  11.712
 4684SOL    HW115949  13.738  14.255  11.742
 4684SOL    HW215950  13.657  14.280  11.616
 4685SOL     OW15951   1.019  14.122  11.184
 4685SOL    HW115952   1.108  14.139  11.215
 4685SOL    HW215953   0.964  14.140  11.259
 4686SOL     OW15954   9.079  13.691   2.117
 4686SOL    HW115955   9.022  13.662   2.045
 4686SOL    HW215956   9.164  13.705   2.077
 4687SOL     OW15957   4.446   8.913  13.210
 4687SOL    HW115958   4.427   8.875  13.296
 4687SOL    HW215959   4.359   8.928  13.172
 4688SOL     OW15960   7.541   3.521  10.506
 4688SOL    HW115961   7.613   3.512  10.568
 4688SOL    HW215962   7.578   3.494  10.422
 4689SOL     OW15963   6.062   6.538   0.446
 4689SOL    HW115964   5.996   6.523   0.378
 4689SOL    HW215965   6.083   6.450   0.478
 4690SOL     OW15966   2.081  13.064   3.079
 4690SOL    HW115967   2.168  13.041   3.111
 4690SOL    HW215968   2.040  12.981   3.057
 4691SOL     OW15969   2.411  10.589   7.285
 4691SOL    HW115970   2.375  10.505   7.313
 4691SOL    HW215971   2.505  10.572   7.273
 4692SOL     OW15972  11.722   2.879   6.344
 4692SOL    HW115973  11.793   2.890   6.280
 4692SOL    HW215974  11.741   2.943   6.412
 4693SOL     OW15975   0.422   8.473  10.232
 4693SOL    HW115976   0.486   8.504  10.297
 4693SOL    HW215977   0.441   8.379  10.222
 4694SOL     OW15978   6.797  11.539   1.828
 4694SOL    HW115979   6.775  11.509   1.740
 4694SOL    HW215980   6.712  11.560   1.867
 4695SOL     OW15981   8.345   3.262  11.185
 4695SOL    HW115982   8.363   3.203  11.111
 4695SOL    HW215983   8.331   3.347  11.144
 4696SOL     OW15984   0.578   6.020  12.644
 4696SOL    HW115985   0.632   6.093  12.614
 4696SOL    HW215986   0.525   5.995  12.567
 4697SOL     OW15987  12.519   5.645  10.725
 4697SOL    HW115988  12.482   5.557  10.724
 4697SOL    HW215989  12.595   5.640  10.668
 4698SOL     OW15990   7.119   7.160  12.953
 4698SOL    HW115991   7.052   7.105  12.995
 4698SOL    HW215992   7.071   7.207  12.885
 4699SOL     OW15993   5.839  11.728   4.774
 4699SOL    HW115994   5.778  11.702   4.705
 4699SOL    HW215995   5.899  11.654   4.782
 4700SOL     OW15996   5.399   7.825  14.093
 4700SOL    HW115997   5.493   7.811  14.083
 4700SOL    HW215998   5.367   7.839  14.004
 4701SOL     OW15999   5.906   1.635   9.017
 4701SOL    HW116000   5.855   1.662   8.941
 4701SOL    HW216001   5.906   1.539   9.013
 4702SOL     OW16002  12.164   5.324   1.113
 4702SOL    HW116003  12.127   5.385   1.049
 4702SOL    HW216004  12.089   5.300   1.169
 4703SOL     OW16005   6.261   3.809  12.825
 4703SOL    HW116006   6.211   3.865  12.765
 4703SOL    HW216007   6.329   3.866  12.861
 4704SOL     OW16008   1.311  11.579  10.524
 4704SOL    HW116009   1.328  11.496  10.569
 4704SOL    HW216010   1.372  11.578  10.449
 4705SOL     OW16011  13.512   6.406  10.788
 4705SOL    HW116012  13.591   6.392  10.737
 4705SOL    HW216013  13.453   6.454  10.729
 4706SOL     OW16014  14.658   9.705   6.190
 4706SOL    HW116015  14.743   9.667   6.214
 4706SOL    HW216016  14.677   9.798   6.174
 4707SOL     OW16017   4.315   7.084  11.024
 4707SOL    HW116018   4.227   7.055  11.049
 4707SOL    HW216019   4.319   7.072  10.929
 4708SOL     OW16020  12.421   7.698   6.328
 4708SOL    HW116021  12.412   7.625   6.266
 4708SOL    HW216022  12.374   7.668   6.406
 4709SOL     OW16023   1.682  12.328   1.165
 4709SOL    HW116024   1.741  12.336   1.240
 4709SOL    HW216025   1.629  12.250   1.183
 4710SOL     OW16026   5.164   1.517  13.287
 4710SOL    HW116027   5.169   1.608  13.258
 4710SOL    HW216028   5.101   1.476  13.228
 4711SOL     OW16029   7.837  14.424   2.839
 4711SOL    HW116030   7.831  14.519   2.852
 4711SOL    HW216031   7.912  14.397   2.892
 4712SOL     OW16032   4.107  12.682   9.124
 4712SOL    HW116033   4.175  12.626   9.088
 4712SOL    HW216034   4.119  12.676   9.219
 4713SOL     OW16035   4.428  14.099   4.205
 4713SOL    HW116036   4.370  14.069   4.135
 4713SOL    HW216037   4.374  14.094   4.284
 4714SOL     OW16038  10.505   2.419  10.076
 4714SOL    HW116039  10.444   2.442  10.006
 4714SOL    HW216040  10.472   2.465  10.153
 4715SOL     OW16041   4.270  11.841   1.414
 4715SOL    HW116042   4.331  11.914   1.426
 4715SOL    HW216043   4.266  11.799   1.500
 4716SOL     OW16044  13.536   6.973  14.502
 4716SOL    HW116045  13.599   6.937  14.439
 4716SOL    HW216046  13.590   7.007  14.573
 4717SOL     OW16047   8.709   4.308   6.457
 4717SOL    HW116048   8.665   4.356   6.387
 4717SOL    HW216049   8.665   4.336   6.537
 4718SOL     OW16050   2.437   1.888   2.678
 4718SOL    HW116051   2.374   1.819   2.697
 4718SOL    HW216052   2.521   1.844   2.676
 4719SOL     OW16053   8.304   9.262   8.148
 4719SOL    HW116054   8.278   9.350   8.175
 4719SOL    HW216055   8.377   9.276   8.087
 4720SOL     OW16056   3.515  11.404   3.531
 4720SOL    HW116057   3.571  11.327   3.526
 4720SOL    HW216058   3.505  11.421   3.624
 4721SOL     OW16059   6.740   3.890   4.165
 4721SOL    HW116060   6.746   3.884   4.260
 4721SOL    HW216061   6.830   3.884   4.135
 4722SOL     OW16062  13.113   5.149   2.829
 4722SOL    HW116063  13.132   5.064   2.870
 4722SOL    HW216064  13.197   5.177   2.793
 4723SOL     OW16065  10.496   1.417  10.787
 4723SOL    HW116066  10.529   1.407  10.698
 4723SOL    HW216067  10.559   1.372  10.842
 4724SOL     OW16068   9.264   7.872   7.638
 4724SOL    HW116069   9.236   7.820   7.713
 4724SOL    HW216070   9.334   7.820   7.598
 4725SOL     OW16071   5.119   8.365  13.501
 4725SOL    HW116072   5.199   8.328  13.464
 4725SOL    HW216073   5.103   8.316  13.581
 4726SOL     OW16074  11.214   7.435   0.380
 4726SOL    HW116075  11.227   7.350   0.423
 4726SOL    HW216076  11.191   7.495   0.451
 4727SOL     OW16077   5.698  11.241   6.516
 4727SOL    HW116078   5.677  11.328   6.481
 4727SOL    HW216079   5.794  11.237   6.516
 4728SOL     OW16080  10.168   0.038   6.766
 4728SOL    HW116081  10.240   0.029   6.828
 4728SOL    HW216082  10.104   0.094   6.810
 4729SOL     OW16083  12.949  12.461   7.754
 4729SOL    HW116084  12.944  12.495   7.843
 4729SOL    HW216085  12.912  12.373   7.760
 4730SOL     OW16086   3.602   2.382   9.000
 4730SOL    HW116087   3.663   2.448   9.033
 4730SOL    HW216088   3.617   2.378   8.906
 4731SOL     OW16089   0.932  11.903   9.023
 4731SOL    HW116090   0.972  11.953   8.952
 4731SOL    HW216091   0.925  11.814   8.987
 4732SOL     OW16092  13.117   4.976   1.238
 4732SOL    HW116093  13.085   4.941   1.155
 4732SOL    HW216094  13.038   5.011   1.281
 4733SOL     OW16095  10.417  12.556  11.058
 4733SOL    HW116096  10.397  12.648  11.046
 4733SOL    HW216097  10.486  12.555  11.126
 4734SOL     OW16098   6.120  13.096   0.690
 4734SOL    HW116099   6.141  13.009   0.657
 4734SOL    HW216100   6.193  13.118   0.749
 4735SOL     OW16101   0.658   4.107  11.090
 4735SOL    HW116102   0.590   4.043  11.073
 4735SOL    HW216103   0.700   4.121  11.004
 4736SOL     OW16104   2.088   0.695   3.553
 4736SOL    HW116105   2.070   0.788   3.540
 4736SOL    HW216106   2.066   0.679   3.645
 4737SOL     OW16107  13.253   1.306   0.060
 4737SOL    HW116108  13.176   1.318   0.004
 4737SOL    HW216109  13.220   1.260   0.137
 4738SOL     OW16110   8.376  14.660   5.091
 4738SOL    HW116111   8.421  14.706   5.020
 4738SOL    HW216112   8.447  14.629   5.148
 4739SOL     OW16113  13.417   2.895   0.467
 4739SOL    HW116114  13.419   2.800   0.460
 4739SOL    HW216115  13.472   2.915   0.542
 4740SOL     OW16116   3.824   8.313  14.412
 4740SOL    HW116117   3.912   8.305  14.376
 4740SOL    HW216118   3.833   8.286  14.504
 4741SOL     OW16119  13.550  14.733   6.855
 4741SOL    HW116120  13.606  14.792   6.905
 4741SOL    HW216121  13.610  14.671   6.814
 4742SOL     OW16122   8.070   6.567  11.267
 4742SOL    HW116123   8.095   6.584  11.176
 4742SOL    HW216124   8.104   6.480  11.286
 4743SOL     OW16125   6.684  13.796  13.826
 4743SOL    HW116126   6.705  13.886  13.850
 4743SOL    HW216127   6.605  13.776  13.876
 4744SOL     OW16128   8.210   5.036   4.109
 4744SOL    HW116129   8.189   5.127   4.090
 4744SOL    HW216130   8.139   4.986   4.067
 4745SOL     OW16131  11.125  11.930   4.852
 4745SOL    HW116132  11.132  11.847   4.805
 4745SOL    HW216133  11.216  11.954   4.871
 4746SOL     OW16134  14.267  11.740   1.223
 4746SOL    HW116135  14.262  11.720   1.316
 4746SOL    HW216136  14.254  11.835   1.218
 4747SOL     OW16137   5.738  12.119  14.585
 4747SOL    HW116138   5.761  12.155  14.499
 4747SOL    HW216139   5.822  12.093  14.623
 4748SOL     OW16140  12.600  14.003  11.515
 4748SOL    HW116141  12.607  13.969  11.426
 4748SOL    HW216142  12.685  14.044  11.532
 4749SOL     OW16143   7.676   5.417   2.177
 4749SOL    HW116144   7.589   5.377   2.182
 4749SOL    HW216145   7.731   5.363   2.233
 4750SOL     OW16146  11.344   5.981   0.573
 4750SOL    HW116147  11.263   5.979   0.522
 4750SOL    HW216148  11.317   5.963   0.662
 4751SOL     OW16149  10.468  11.570   8.706
 4751SOL    HW116150  10.513  11.491   8.737
 4751SOL    HW216151  10.480  11.569   8.611
 4752SOL     OW16152  11.116   2.915   6.395
 4752SOL    HW116153  11.088   2.898   6.305
 4752SOL    HW216154  11.152   2.832   6.426
 4753SOL     OW16155   8.764   1.928  10.568
 4753SOL    HW116156   8.783   1.844  10.612
 4753SOL    HW216157   8.709   1.905  10.493
 4754SOL     OW16158  12.781   9.994   9.180
 4754SOL    HW116159  12.746   9.916   9.136
 4754SOL    HW216160  12.737  10.067   9.136
 4755SOL     OW16161  12.428   3.570   1.363
 4755SOL    HW116162  12.510   3.564   1.412
 4755SOL    HW216163  12.412   3.482   1.331
 4756SOL     OW16164  12.653   2.831   4.197
 4756SOL    HW116165  12.664   2.794   4.284
 4756SOL    HW216166  12.726   2.794   4.146
 4757SOL     OW16167  13.944   4.605   8.108
 4757SOL    HW116168  14.038   4.612   8.120
 4757SOL    HW216169  13.913   4.695   8.103
 4758SOL     OW16170   2.524   2.941  10.737
 4758SOL    HW116171   2.550   2.929  10.646
 4758SOL    HW216172   2.577   2.879  10.786
 4759SOL     OW16173   4.384  12.212   8.815
 4759SOL    HW116174   4.374  12.150   8.743
 4759SOL    HW216175   4.294  12.231   8.842
 4760SOL     OW16176   3.795  10.004   8.332
 4760SOL    HW116177   3.762  10.045   8.253
 4760SOL    HW216178   3.889   9.999   8.320
 4761SOL     OW16179   6.746   4.716   3.886
 4761SOL    HW116180   6.713   4.746   3.801
 4761SOL    HW216181   6.778   4.627   3.870
 4762SOL     OW16182   3.075   5.988   8.238
 4762SOL    HW116183   3.129   5.968   8.162
 4762SOL    HW216184   3.130   6.046   8.291
 4763SOL     OW16185   7.704   8.766  10.182
 4763SOL    HW116186   7.617   8.753  10.145
 4763SOL    HW216187   7.728   8.855  10.156
 4764SOL     OW16188  11.610   1.202   1.095
 4764SOL    HW116189  11.613   1.214   1.000
 4764SOL    HW216190  11.678   1.138   1.114
 4765SOL     OW16191   4.948  11.906   4.957
 4765SOL    HW116192   5.010  11.973   4.988
 4765SOL    HW216193   4.965  11.830   5.013
 4766SOL     OW16194  12.843   0.172  14.109
 4766SOL    HW116195  12.850   0.224  14.189
 4766SOL    HW216196  12.818   0.236  14.042
 4767SOL     OW16197   5.545   6.031  14.632
 4767SOL    HW116198   5.587   6.014  14.716
 4767SOL    HW216199   5.496   5.951  14.613
 4768SOL     OW16200  12.939   6.243  13.014
 4768SOL    HW116201  12.955   6.166  13.069
 4768SOL    HW216202  12.884   6.210  12.943
 4769SOL     OW16203   6.099   8.114  14.762
 4769SOL    HW116204   6.110   8.080  14.851
 4769SOL    HW216205   6.161   8.188  14.757
 4770SOL     OW16206   0.998  11.754   8.482
 4770SOL    HW116207   0.978  11.819   8.549
 4770SOL    HW216208   1.013  11.806   8.403
 4771SOL     OW16209   5.118   4.263   1.260
 4771SOL    HW116210   5.136   4.203   1.188
 4771SOL    HW216211   5.188   4.247   1.323
 4772SOL     OW16212  11.777  11.360   1.519
 4772SOL    HW116213  11.702  11.311   1.551
 4772SOL    HW216214  11.740  11.428   1.463
 4773SOL     OW16215   4.556   5.311   0.146
 4773SOL    HW116216   4.603   5.259   0.210
 4773SOL    HW216217   4.531   5.391   0.193
 4774SOL     OW16218   7.191   2.611   0.621
 4774SOL    HW116219   7.170   2.660   0.700
 4774SOL    HW216220   7.127   2.642   0.556
 4775SOL     OW16221  14.837   0.408  10.353
 4775SOL    HW116222  14.756   0.395  10.304
 4775SOL    HW216223  14.851   0.326  10.400
 4776SOL     OW16224  11.545  12.652   3.531
 4776SOL    HW116225  11.575  12.657   3.621
 4776SOL    HW216226  11.517  12.741   3.509
 4777SOL     OW16227   4.092  12.642  13.511
 4777SOL    HW116228   4.075  12.736  13.514
 4777SOL    HW216229   4.013  12.603  13.548
 4778SOL     OW16230  14.748   9.268   5.099
 4778SOL    HW116231  14.737   9.208   5.174
 4778SOL    HW216232  14.815   9.227   5.045
 4779SOL     OW16233   1.695   8.023   7.166
 4779SOL    HW116234   1.753   7.955   7.131
 4779SOL    HW216235   1.654   8.061   7.088
 4780SOL     OW16236   0.642   9.717  12.896
 4780SOL    HW116237   0.664   9.804  12.861
 4780SOL    HW216238   0.619   9.666  12.818
 4781SOL     OW16239  14.324   9.704   2.153
 4781SOL    HW116240  14.242   9.702   2.104
 4781SOL    HW216241  14.299   9.679   2.242
 4782SOL     OW16242   8.854   6.037   9.862
 4782SOL    HW116243   8.921   6.026   9.794
 4782SOL    HW216244   8.902   6.027   9.945
 4783SOL     OW16245   1.279   5.192   4.565
 4783SOL    HW116246   1.335   5.254   4.518
 4783SOL    HW216247   1.337   5.118   4.584
 4784SOL     OW16248   5.713   5.380  13.138
 4784SOL    HW116249   5.689   5.387  13.230
 4784SOL    HW216250   5.809   5.384  13.138
 4785SOL     OW16251   5.254   8.903  10.198
 4785SOL    HW116252   5.212   8.906  10.113
 4785SOL    HW216253   5.213   8.828  10.242
 4786SOL     OW16254   4.526  10.994  14.291
 4786SOL    HW116255   4.483  10.915  14.324
 4786SOL    HW216256   4.615  10.988  14.323
 4787SOL     OW16257  13.553   2.127   0.605
 4787SOL    HW116258  13.631   2.134   0.550
 4787SOL    HW216259  13.503   2.206   0.586
 4788SOL     OW16260   5.682   6.644   1.798
 4788SOL    HW116261   5.594   6.611   1.816
 4788SOL    HW216262   5.714   6.676   1.882
 4789SOL     OW16263  10.474   0.365   1.857
 4789SOL    HW116264  10.486   0.272   1.872
 4789SOL    HW216265  10.389   0.385   1.897
 4790SOL     OW16266  11.055   9.490   8.681
 4790SOL    HW116267  11.114   9.513   8.609
 4790SOL    HW216268  11.080   9.551   8.751
 4791SOL     OW16269   1.020   0.700   8.911
 4791SOL    HW116270   0.967   0.776   8.937
 4791SOL    HW216271   1.016   0.700   8.815
 4792SOL     OW16272   9.662  14.078  14.500
 4792SOL    HW116273   9.598  14.103  14.434
 4792SOL    HW216274   9.714  14.008  14.459
 4793SOL     OW16275   7.752   0.219   6.746
 4793SOL    HW116276   7.787   0.133   6.723
 4793SOL    HW216277   7.752   0.268   6.663
 4794SOL     OW16278   3.893   2.146   0.209
 4794SOL    HW116279   3.856   2.198   0.138
 4794SOL    HW216280   3.987   2.162   0.204
 4795SOL     OW16281  12.180  13.747   7.681
 4795SOL    HW116282  12.135  13.665   7.701
 4795SOL    HW216283  12.111  13.805   7.649
 4796SOL     OW16284   8.803  13.342   2.827
 4796SOL    HW116285   8.873  13.406   2.841
 4796SOL    HW216286   8.832  13.292   2.750
 4797SOL     OW16287  10.844   7.070   6.192
 4797SOL    HW116288  10.881   7.131   6.255
 4797SOL    HW216289  10.768   7.115   6.155
 4798SOL     OW16290   7.467   5.384  12.684
 4798SOL    HW116291   7.479   5.438  12.606
 4798SOL    HW216292   7.411   5.311  12.655
 4799SOL     OW16293   7.455   7.970   2.953
 4799SOL    HW116294   7.451   8.062   2.979
 4799SOL    HW216295   7.519   7.968   2.882
 4800SOL     OW16296   5.366   4.660   5.374
 4800SOL    HW116297   5.344   4.578   5.330
 4800SOL    HW216298   5.288   4.680   5.426
 4801SOL     OW16299  10.530   5.568   6.834
 4801SOL    HW116300  10.467   5.589   6.766
 4801SOL    HW216301  10.610   5.615   6.808
 4802SOL     OW16302   0.580   0.435   1.416
 4802SOL    HW116303   0.540   0.459   1.332
 4802SOL    HW216304   0.536   0.490   1.480
 4803SOL     OW16305  14.296   4.016   4.322
 4803SOL    HW116306  14.329   4.090   4.271
 4803SOL    HW216307  14.252   4.056   4.397
 4804SOL     OW16308   4.156   0.119   6.163
 4804SOL    HW116309   4.087   0.080   6.109
 4804SOL    HW216310   4.132   0.096   6.253
 4805SOL     OW16311  13.980   8.021   2.896
 4805SOL    HW116312  14.001   8.105   2.855
 4805SOL    HW216313  13.885   8.022   2.903
 4806SOL     OW16314  13.500  12.095  11.237
 4806SOL    HW116315  13.409  12.087  11.208
 4806SOL    HW216316  13.506  12.039  11.314
 4807SOL     OW16317  12.148   6.021  14.452
 4807SOL    HW116318  12.181   6.107  14.478
 4807SOL    HW216319  12.085   6.039  14.382
 4808SOL     OW16320   1.713  11.383   4.424
 4808SOL    HW116321   1.687  11.407   4.513
 4808SOL    HW216322   1.646  11.321   4.395
 4809SOL     OW16323   8.763  10.193   9.850
 4809SOL    HW116324   8.705  10.128   9.810
 4809SOL    HW216325   8.778  10.160   9.939
 4810SOL     OW16326   7.568   1.154  13.922
 4810SOL    HW116327   7.559   1.180  13.831
 4810SOL    HW216328   7.609   1.068  13.919
 4811SOL     OW16329  11.305   1.757  12.817
 4811SOL    HW116330  11.289   1.840  12.863
 4811SOL    HW216331  11.400   1.756  12.803
 4812SOL     OW16332  12.580   7.023   1.969
 4812SOL    HW116333  12.608   7.115   1.968
 4812SOL    HW216334  12.574   7.001   2.062
 4813SOL     OW16335   3.650  12.129  13.461
 4813SOL    HW116336   3.564  12.157  13.430
 4813SOL    HW216337   3.711  12.194  13.425
 4814SOL     OW16338   6.538   0.823   3.162
 4814SOL    HW116339   6.445   0.825   3.182
 4814SOL    HW216340   6.570   0.909   3.187
 4815SOL     OW16341   2.271   6.240   8.060
 4815SOL    HW116342   2.318   6.252   7.978
 4815SOL    HW216343   2.179   6.233   8.034
 4816SOL     OW16344  14.336   8.674  12.869
 4816SOL    HW116345  14.343   8.740  12.800
 4816SOL    HW216346  14.298   8.722  12.943
 4817SOL     OW16347   3.594  12.334  12.260
 4817SOL    HW116348   3.658  12.347  12.190
 4817SOL    HW216349   3.570  12.423  12.287
 4818SOL     OW16350   2.362   5.988   3.226
 4818SOL    HW116351   2.419   5.936   3.284
 4818SOL    HW216352   2.357   5.936   3.146
 4819SOL     OW16353   1.031  13.489   2.503
 4819SOL    HW116354   0.969  13.558   2.478
 4819SOL    HW216355   1.023  13.483   2.598
 4820SOL     OW16356   1.063  14.138   1.686
 4820SOL    HW116357   0.991  14.180   1.640
 4820SOL    HW216358   1.020  14.071   1.740
 4821SOL     OW16359  14.093   9.094   9.986
 4821SOL    HW116360  14.016   9.074  10.039
 4821SOL    HW216361  14.060   9.101   9.896
 4822SOL     OW16362  11.664  14.735  12.908
 4822SOL    HW116363  11.622  14.688  12.836
 4822SOL    HW216364  11.657  14.676  12.983
 4823SOL     OW16365   5.802   9.911  10.541
 4823SOL    HW116366   5.820  10.001  10.515
 4823SOL    HW216367   5.855   9.897  10.619
 4824SOL     OW16368   2.195   2.321   5.990
 4824SOL    HW116369   2.251   2.248   5.966
 4824SOL    HW216370   2.126   2.322   5.924
 4825SOL     OW16371   0.869   6.006   3.986
 4825SOL    HW116372   0.946   6.049   3.950
 4825SOL    HW216373   0.870   5.919   3.946
 4826SOL     OW16374   9.486  13.111   1.435
 4826SOL    HW116375   9.450  13.110   1.524
 4826SOL    HW216376   9.475  13.201   1.405
 4827SOL     OW16377   4.529   7.552   8.073
 4827SOL    HW116378   4.485   7.492   8.133
 4827SOL    HW216379   4.618   7.562   8.109
 4828SOL     OW16380  12.181  10.451   0.911
 4828SOL    HW116381  12.119  10.484   0.976
 4828SOL    HW216382  12.221  10.375   0.953
 4829SOL     OW16383   3.741   2.401   2.445
 4829SOL    HW116384   3.649   2.400   2.469
 4829SOL    HW216385   3.774   2.315   2.472
 4830SOL     OW16386   6.466   1.170   1.961
 4830SOL    HW116387   6.532   1.110   1.996
 4830SOL    HW216388   6.383   1.126   1.977
 4831SOL     OW16389  14.108  10.744   2.215
 4831SOL    HW116390  14.109  10.648   2.211
 4831SOL    HW216391  14.085  10.764   2.306
 4832SOL     OW16392   0.180   9.111   7.645
 4832SOL    HW116393   0.086   9.092   7.649
 4832SOL    HW216394   0.216   9.073   7.725
 4833SOL     OW16395   0.761  13.340   3.645
 4833SOL    HW116396   0.782  13.427   3.681
 4833SOL    HW216397   0.840  13.314   3.599
 4834SOL     OW16398   0.248  12.721   9.498
 4834SOL    HW116399   0.178  12.762   9.549
 4834SOL    HW216400   0.278  12.789   9.438
 4835SOL     OW16401   3.280   4.058   6.744
 4835SOL    HW116402   3.313   4.148   6.734
 4835SOL    HW216403   3.357   4.003   6.732
 4836SOL     OW16404   6.209   4.795   7.765
 4836SOL    HW116405   6.150   4.775   7.693
 4836SOL    HW216406   6.289   4.826   7.723
 4837SOL     OW16407   6.785   2.486  14.708
 4837SOL    HW116408   6.867   2.487  14.658
 4837SOL    HW216409   6.740   2.566  14.681
 4838SOL     OW16410  11.898  13.043   7.677
 4838SOL    HW116411  11.912  13.085   7.762
 4838SOL    HW216412  11.981  12.999   7.658
 4839SOL     OW16413  10.815   6.645  11.411
 4839SOL    HW116414  10.901   6.612  11.383
 4839SOL    HW216415  10.768   6.567  11.440
 4840SOL     OW16416   1.830  12.882   0.304
 4840SOL    HW116417   1.740  12.853   0.289
 4840SOL    HW216418   1.879  12.802   0.320
 4841SOL     OW16419   4.695  13.510  11.568
 4841SOL    HW116420   4.676  13.459  11.489
 4841SOL    HW216421   4.609  13.533  11.602
 4842SOL     OW16422   3.537  11.600  13.423
 4842SOL    HW116423   3.596  11.674  13.407
 4842SOL    HW216424   3.595  11.527  13.445
 4843SOL     OW16425   5.699  10.092  12.316
 4843SOL    HW116426   5.691  10.156  12.246
 4843SOL    HW216427   5.636  10.024  12.293
 4844SOL     OW16428   6.115   5.462  12.970
 4844SOL    HW116429   6.042   5.514  12.934
 4844SOL    HW216430   6.173   5.527  13.010
 4845SOL     OW16431   2.876   7.185  10.584
 4845SOL    HW116432   2.894   7.092  10.580
 4845SOL    HW216433   2.949   7.222  10.634
 4846SOL     OW16434   3.012  13.225   3.271
 4846SOL    HW116435   3.091  13.189   3.232
 4846SOL    HW216436   2.942  13.205   3.209
 4847SOL     OW16437   0.363   4.201   1.281
 4847SOL    HW116438   0.284   4.241   1.319
 4847SOL    HW216439   0.372   4.244   1.196
 4848SOL     OW16440   1.563   6.222   5.658
 4848SOL    HW116441   1.543   6.315   5.652
 4848SOL    HW216442   1.659   6.217   5.660
 4849SOL     OW16443  11.964   0.663   8.929
 4849SOL    HW116444  11.933   0.662   8.839
 4849SOL    HW216445  12.059   0.655   8.922
 4850SOL     OW16446  10.014   1.281   8.401
 4850SOL    HW116447  10.052   1.201   8.436
 4850SOL    HW216448   9.959   1.315   8.471
 4851SOL     OW16449  11.727  12.108  12.705
 4851SOL    HW116450  11.774  12.067  12.632
 4851SOL    HW216451  11.708  12.197  12.673
 4852SOL     OW16452   1.755   7.281   7.237
 4852SOL    HW116453   1.672   7.273   7.284
 4852SOL    HW216454   1.742   7.230   7.157
 4853SOL     OW16455   1.599   8.705   7.308
 4853SOL    HW116456   1.588   8.663   7.393
 4853SOL    HW216457   1.598   8.799   7.327
 4854SOL     OW16458  11.705   7.254  14.068
 4854SOL    HW116459  11.624   7.280  14.112
 4854SOL    HW216460  11.696   7.287  13.979
 4855SOL     OW16461   1.572   6.136  12.179
 4855SOL    HW116462   1.519   6.060  12.201
 4855SOL    HW216463   1.509   6.203  12.154
 4856SOL     OW16464  12.056   9.009   0.953
 4856SOL    HW116465  12.099   9.080   0.905
 4856SOL    HW216466  12.125   8.972   1.009
 4857SOL     OW16467   4.070   8.122   8.693
 4857SOL    HW116468   4.070   8.124   8.789
 4857SOL    HW216469   3.988   8.165   8.668
 4858SOL     OW16470  13.425   8.786  14.376
 4858SOL    HW116471  13.443   8.800  14.470
 4858SOL    HW216472  13.330   8.791  14.369
 4859SOL     OW16473  10.329   9.874  14.205
 4859SOL    HW116474  10.334   9.916  14.291
 4859SOL    HW216475  10.378   9.792  14.216
 4860SOL     OW16476   8.996   1.099   4.822
 4860SOL    HW116477   9.007   1.018   4.873
 4860SOL    HW216478   8.948   1.071   4.744
 4861SOL     OW16479   3.955   1.534   6.857
 4861SOL    HW116480   3.960   1.583   6.939
 4861SOL    HW216481   4.018   1.464   6.866
 4862SOL     OW16482  12.421  11.724  12.749
 4862SOL    HW116483  12.344  11.704  12.695
 4862SOL    HW216484  12.489  11.664  12.717
 4863SOL     OW16485   5.349   3.070   1.664
 4863SOL    HW116486   5.336   3.161   1.690
 4863SOL    HW216487   5.407   3.075   1.588
 4864SOL     OW16488  12.819   0.291   9.043
 4864SOL    HW116489  12.818   0.387   9.045
 4864SOL    HW216490  12.809   0.269   8.950
 4865SOL     OW16491   9.954   0.647   1.840
 4865SOL    HW116492   9.979   0.659   1.748
 4865SOL    HW216493   9.914   0.560   1.843
 4866SOL     OW16494  13.122   4.936   5.163
 4866SOL    HW116495  13.161   5.008   5.112
 4866SOL    HW216496  13.137   4.858   5.110
 4867SOL     OW16497   1.115  10.034   1.542
 4867SOL    HW116498   1.053   9.964   1.560
 4867SOL    HW216499   1.116  10.088   1.621
 4868SOL     OW16500  12.358   3.611  10.639
 4868SOL    HW116501  12.405   3.554  10.577
 4868SOL    HW216502  12.424   3.674  10.667
 4869SOL     OW16503   5.778   6.057  11.430
 4869SOL    HW116504   5.756   5.967  11.454
 4869SOL    HW216505   5.694   6.102  11.423
 4870SOL     OW16506   3.076  10.285   9.355
 4870SOL    HW116507   3.079  10.258   9.447
 4870SOL    HW216508   3.104  10.208   9.307
 4871SOL     OW16509   8.461   1.589   9.496
 4871SOL    HW116510   8.498   1.505   9.522
 4871SOL    HW216511   8.534   1.651   9.505
 4872SOL     OW16512   6.664   4.373  14.554
 4872SOL    HW116513   6.757   4.387  14.570
 4872SOL    HW216514   6.630   4.337  14.636
 4873SOL     OW16515  10.248   2.923  12.795
 4873SOL    HW116516  10.210   3.010  12.805
 4873SOL    HW216517  10.312   2.917  12.866
 4874SOL     OW16518   8.509   4.469   7.609
 4874SOL    HW116519   8.574   4.517   7.659
 4874SOL    HW216520   8.546   4.381   7.600
 4875SOL     OW16521  10.537   6.251  11.455
 4875SOL    HW116522  10.548   6.237  11.361
 4875SOL    HW216523  10.478   6.326  11.462
 4876SOL     OW16524   3.400   9.707  14.034
 4876SOL    HW116525   3.481   9.754  14.020
 4876SOL    HW216526   3.363   9.693  13.947
 4877SOL     OW16527   9.081   3.465   7.773
 4877SOL    HW116528   9.159   3.435   7.820
 4877SOL    HW216529   9.112   3.536   7.718
 4878SOL     OW16530  10.066  12.173  10.452
 4878SOL    HW116531  10.111  12.125  10.521
 4878SOL    HW216532   9.989  12.210  10.495
 4879SOL     OW16533   5.631  14.050  11.074
 4879SOL    HW116534   5.612  14.032  10.982
 4879SOL    HW216535   5.546  14.053  11.116
 4880SOL     OW16536   7.230  13.402   3.059
 4880SOL    HW116537   7.191  13.396   3.146
 4880SOL    HW216538   7.163  13.369   3.000
 4881SOL     OW16539   7.782  13.541   2.711
 4881SOL    HW116540   7.814  13.520   2.623
 4881SOL    HW216541   7.837  13.614   2.740
 4882SOL     OW16542   8.586   6.781   5.928
 4882SOL    HW116543   8.663   6.774   5.871
 4882SOL    HW216544   8.608   6.728   6.004
 4883SOL     OW16545   7.142   8.151  14.487
 4883SOL    HW116546   7.155   8.059  14.509
 4883SOL    HW216547   7.050   8.157  14.461
 4884SOL     OW16548   6.338  13.701  14.217
 4884SOL    HW116549   6.292  13.712  14.133
 4884SOL    HW216550   6.405  13.768  14.216
 4885SOL     OW16551   8.305   9.719   0.568
 4885SOL    HW116552   8.224   9.679   0.601
 4885SOL    HW216553   8.342   9.653   0.509
 4886SOL     OW16554   0.100  12.917  11.052
 4886SOL    HW116555   0.148  12.851  11.002
 4886SOL    HW216556   0.126  12.902  11.143
 4887SOL     OW16557   5.769   9.551   7.877
 4887SOL    HW116558   5.851   9.528   7.833
 4887SOL    HW216559   5.717   9.471   7.872
 4888SOL     OW16560   9.931   3.580   8.411
 4888SOL    HW116561   9.969   3.570   8.499
 4888SOL    HW216562  10.006   3.577   8.352
 4889SOL     OW16563   9.982   8.295  12.854
 4889SOL    HW116564  10.057   8.265  12.802
 4889SOL    HW216565  10.015   8.301  12.943
 4890SOL     OW16566   8.340   9.410  14.644
 4890SOL    HW116567   8.249   9.433  14.625
 4890SOL    HW216568   8.350   9.433  14.737
 4891SOL     OW16569   0.737  13.914   8.621
 4891SOL    HW116570   0.658  13.885   8.666
 4891SOL    HW216571   0.725  14.008   8.608
 4892SOL     OW16572   8.112   3.408   7.850
 4892SOL    HW116573   8.148   3.494   7.828
 4892SOL    HW216574   8.117   3.358   7.769
 4893SOL     OW16575   4.210   7.365  13.144
 4893SOL    HW116576   4.268   7.307  13.193
 4893SOL    HW216577   4.249   7.370  13.057
 4894SOL     OW16578   4.860   3.270  10.796
 4894SOL    HW116579   4.880   3.217  10.874
 4894SOL    HW216580   4.785   3.226  10.756
 4895SOL     OW16581   6.102   7.159  12.347
 4895SOL    HW116582   6.092   7.242  12.394
 4895SOL    HW216583   6.043   7.098  12.392
 4896SOL     OW16584   0.441  10.490   0.826
 4896SOL    HW116585   0.398  10.512   0.743
 4896SOL    HW216586   0.458  10.575   0.867
 4897SOL     OW16587   6.759   4.639  14.747
 4897SOL    HW116588   6.781   4.687  14.827
 4897SOL    HW216589   6.837   4.589  14.726
 4898SOL     OW16590   4.249   0.171   3.086
 4898SOL    HW116591   4.191   0.095   3.085
 4898SOL    HW216592   4.318   0.149   3.148
 4899SOL     OW16593   7.349  11.454   2.968
 4899SOL    HW116594   7.375  11.543   2.946
 4899SOL    HW216595   7.253  11.454   2.960
 4900SOL     OW16596   8.528   7.624  13.967
 4900SOL    HW116597   8.438   7.593  13.959
 4900SOL    HW216598   8.559   7.587  14.050
 4901SOL     OW16599   7.403   0.850   7.740
 4901SOL    HW116600   7.357   0.828   7.821
 4901SOL    HW216601   7.465   0.778   7.727
 4902SOL     OW16602   3.417   5.221   9.234
 4902SOL    HW116603   3.332   5.191   9.203
 4902SOL    HW216604   3.404   5.314   9.254
 4903SOL     OW16605   8.331   8.798  12.864
 4903SOL    HW116606   8.327   8.708  12.895
 4903SOL    HW216607   8.425   8.820  12.867
 4904SOL     OW16608   7.778   5.232   1.114
 4904SOL    HW116609   7.765   5.280   1.196
 4904SOL    HW216610   7.839   5.162   1.137
 4905SOL     OW16611   0.891   1.878   2.316
 4905SOL    HW116612   0.870   1.895   2.407
 4905SOL    HW216613   0.924   1.788   2.315
 4906SOL     OW16614   3.801   2.033  14.459
 4906SOL    HW116615   3.858   1.959  14.477
 4906SOL    HW216616   3.718   1.993  14.433
 4907SOL     OW16617   6.586   9.243   5.501
 4907SOL    HW116618   6.659   9.231   5.561
 4907SOL    HW216619   6.619   9.305   5.435
 4908SOL     OW16620   5.434  11.497  13.236
 4908SOL    HW116621   5.356  11.519  13.185
 4908SOL    HW216622   5.502  11.555  13.202
 4909SOL     OW16623   2.995   3.114   5.840
 4909SOL    HW116624   3.036   3.201   5.843
 4909SOL    HW216625   2.974   3.094   5.931
 4910SOL     OW16626   1.388  10.250   3.079
 4910SOL    HW116627   1.391  10.313   3.151
 4910SOL    HW216628   1.302  10.208   3.088
 4911SOL     OW16629  13.774  11.156   4.661
 4911SOL    HW116630  13.845  11.154   4.725
 4911SOL    HW216631  13.730  11.071   4.671
 4912SOL     OW16632   4.075   2.058   6.947
 4912SOL    HW116633   4.036   2.126   6.893
 4912SOL    HW216634   4.109   2.104   7.024
 4913SOL     OW16635  14.383   8.045   8.998
 4913SOL    HW116636  14.407   7.971   8.942
 4913SOL    HW216637  14.419   8.023   9.084
 4914SOL     OW16638   6.647   3.214  14.335
 4914SOL    HW116639   6.585   3.267  14.285
 4914SOL    HW216640   6.700   3.170  14.269
 4915SOL     OW16641   9.741   5.660  13.031
 4915SOL    HW116642   9.731   5.657  13.126
 4915SOL    HW216643   9.773   5.749  13.013
 4916SOL     OW16644  12.126   9.956   4.370
 4916SOL    HW116645  12.106  10.023   4.435
 4916SOL    HW216646  12.054   9.960   4.308
 4917SOL     OW16647   9.594   6.395   8.358
 4917SOL    HW116648   9.562   6.427   8.443
 4917SOL    HW216649   9.619   6.474   8.311
 4918SOL     OW16650   3.140   2.928   2.745
 4918SOL    HW116651   3.077   2.856   2.745
 4918SOL    HW216652   3.127   2.971   2.660
 4919SOL     OW16653   3.654   5.746   5.138
 4919SOL    HW116654   3.700   5.694   5.073
 4919SOL    HW216655   3.562   5.744   5.110
 4920SOL     OW16656  10.560  12.436   7.048
 4920SOL    HW116657  10.523  12.373   7.111
 4920SOL    HW216658  10.613  12.383   6.989
 4921SOL     OW16659  13.259  12.045   2.809
 4921SOL    HW116660  13.233  12.068   2.720
 4921SOL    HW216661  13.278  12.128   2.851
 4922SOL     OW16662   4.593  14.192   6.050
 4922SOL    HW116663   4.512  14.176   6.002
 4922SOL    HW216664   4.663  14.171   5.989
 4923SOL     OW16665   3.434   1.454   5.933
 4923SOL    HW116666   3.396   1.388   5.875
 4923SOL    HW216667   3.420   1.419   6.021
 4924SOL     OW16668  10.307  14.229  12.716
 4924SOL    HW116669  10.342  14.213  12.629
 4924SOL    HW216670  10.359  14.302  12.750
 4925SOL     OW16671  13.909   5.483   8.600
 4925SOL    HW116672  13.933   5.415   8.663
 4925SOL    HW216673  13.929   5.446   8.515
 4926SOL     OW16674   5.740  10.832   0.781
 4926SOL    HW116675   5.687  10.775   0.725
 4926SOL    HW216676   5.723  10.802   0.870
 4927SOL     OW16677   6.924   1.854   6.764
 4927SOL    HW116678   6.930   1.776   6.820
 4927SOL    HW216679   6.888   1.922   6.822
 4928SOL     OW16680   1.874   8.177   1.113
 4928SOL    HW116681   1.840   8.108   1.055
 4928SOL    HW216682   1.969   8.166   1.110
 4929SOL     OW16683  13.726  10.638   6.233
 4929SOL    HW116684  13.730  10.677   6.320
 4929SOL    HW216685  13.681  10.554   6.246
 4930SOL     OW16686  10.943   8.312   5.567
 4930SOL    HW116687  10.931   8.384   5.630
 4930SOL    HW216688  11.020   8.266   5.598
 4931SOL     OW16689  10.765   3.067  12.439
 4931SOL    HW116690  10.792   3.155  12.414
 4931SOL    HW216691  10.670   3.073  12.449
 4932SOL     OW16692   5.599  13.672   2.023
 4932SOL    HW116693   5.558  13.759   2.024
 4932SOL    HW216694   5.536  13.617   1.977
 4933SOL     OW16695   7.539   1.769  11.626
 4933SOL    HW116696   7.631   1.743  11.627
 4933SOL    HW216697   7.500   1.722  11.699
 4934SOL     OW16698  12.747   8.339   7.678
 4934SOL    HW116699  12.690   8.359   7.604
 4934SOL    HW216700  12.730   8.409   7.741
 4935SOL     OW16701   6.616   5.230  10.772
 4935SOL    HW116702   6.573   5.146  10.762
 4935SOL    HW216703   6.547   5.288  10.805
 4936SOL     OW16704   9.619  11.333  14.042
 4936SOL    HW116705   9.554  11.274  14.003
 4936SOL    HW216706   9.572  11.375  14.115
 4937SOL     OW16707   5.530  10.685   9.380
 4937SOL    HW116708   5.451  10.736   9.358
 4937SOL    HW216709   5.599  10.751   9.387
 4938SOL     OW16710   5.687   2.197   1.288
 4938SOL    HW116711   5.783   2.194   1.286
 4938SOL    HW216712   5.663   2.266   1.227
 4939SOL     OW16713  10.856   1.576   3.099
 4939SOL    HW116714  10.929   1.573   3.160
 4939SOL    HW216715  10.846   1.669   3.078
 4940SOL     OW16716  11.555   8.018  13.183
 4940SOL    HW116717  11.495   8.066  13.126
 4940SOL    HW216718  11.556   7.929  13.148
 4941SOL     OW16719   3.965   6.715   2.958
 4941SOL    HW116720   3.919   6.673   2.886
 4941SOL    HW216721   3.991   6.643   3.016
 4942SOL     OW16722   7.873   9.314   3.589
 4942SOL    HW116723   7.791   9.359   3.611
 4942SOL    HW216724   7.888   9.335   3.497
 4943SOL     OW16725   1.917  10.884  13.711
 4943SOL    HW116726   1.888  10.794  13.723
 4943SOL    HW216727   2.012  10.881  13.725
 4944SOL     OW16728   5.555   5.987   1.495
 4944SOL    HW116729   5.625   5.945   1.545
 4944SOL    HW216730   5.520   5.918   1.440
 4945SOL     OW16731   4.328   4.962  12.847
 4945SOL    HW116732   4.245   4.932  12.884
 4945SOL    HW216733   4.306   5.042  12.800
 4946SOL     OW16734   6.406   1.557   5.521
 4946SOL    HW116735   6.478   1.611   5.552
 4946SOL    HW216736   6.327   1.606   5.544
 4947SOL     OW16737  14.526   3.803   8.165
 4947SOL    HW116738  14.486   3.888   8.186
 4947SOL    HW216739  14.529   3.801   8.070
 4948SOL     OW16740   6.219   7.023   0.059
 4948SOL    HW116741   6.129   7.031   0.089
 4948SOL    HW216742   6.263   7.100   0.095
 4949SOL     OW16743   5.752   4.495  10.930
 4949SOL    HW116744   5.673   4.505  10.876
 4949SOL    HW216745   5.740   4.412  10.975
 4950SOL     OW16746   5.192   8.175   4.397
 4950SOL    HW116747   5.143   8.096   4.419
 4950SOL    HW216748   5.159   8.241   4.459
 4951SOL     OW16749  13.985   1.254  11.012
 4951SOL    HW116750  13.917   1.191  10.987
 4951SOL    HW216751  14.061   1.229  10.959
 4952SOL     OW16752   8.032   9.151  12.377
 4952SOL    HW116753   8.051   9.098  12.454
 4952SOL    HW216754   8.053   9.094  12.303
 4953SOL     OW16755   0.246   8.197   4.737
 4953SOL    HW116756   0.249   8.104   4.760
 4953SOL    HW216757   0.250   8.243   4.821
 4954SOL     OW16758  11.337   4.360   2.771
 4954SOL    HW116759  11.263   4.376   2.713
 4954SOL    HW216760  11.353   4.266   2.765
 4955SOL     OW16761   6.870   4.866  13.063
 4955SOL    HW116762   6.894   4.885  12.972
 4955SOL    HW216763   6.944   4.897  13.115
 4956SOL     OW16764  13.036   5.366   8.764
 4956SOL    HW116765  12.960   5.312   8.786
 4956SOL    HW216766  13.024   5.445   8.816
 4957SOL     OW16767   1.104   9.721  12.473
 4957SOL    HW116768   1.131   9.636  12.440
 4957SOL    HW216769   1.115   9.780  12.398
 4958SOL     OW16770   6.646   2.613  12.120
 4958SOL    HW116771   6.729   2.632  12.077
 4958SOL    HW216772   6.670   2.582  12.207
 4959SOL     OW16773   1.623   5.311   7.815
 4959SOL    HW116774   1.596   5.401   7.795
 4959SOL    HW216775   1.707   5.301   7.771
 4960SOL     OW16776  10.760  13.192   2.007
 4960SOL    HW116777  10.709  13.166   2.083
 4960SOL    HW216778  10.851  13.195   2.038
 4961SOL     OW16779  10.799   4.618   8.234
 4961SOL    HW116780  10.713   4.645   8.202
 4961SOL    HW216781  10.860   4.643   8.165
 4962SOL     OW16782   5.907  12.880   9.573
 4962SOL    HW116783   5.882  12.949   9.634
 4962SOL    HW216784   5.997  12.900   9.549
 4963SOL     OW16785   8.023   7.768   7.495
 4963SOL    HW116786   8.062   7.843   7.541
 4963SOL    HW216787   7.939   7.800   7.463
 4964SOL     OW16788  12.401  11.590   2.939
 4964SOL    HW116789  12.451  11.605   2.859
 4964SOL    HW216790  12.323  11.646   2.930
 4965SOL     OW16791   7.881   7.444   8.524
 4965SOL    HW116792   7.819   7.450   8.596
 4965SOL    HW216793   7.903   7.351   8.518
 4966SOL     OW16794   1.767  10.360   5.543
 4966SOL    HW116795   1.749  10.317   5.460
 4966SOL    HW216796   1.862  10.367   5.546
 4967SOL     OW16797  13.839  14.093   0.909
 4967SOL    HW116798  13.800  14.027   0.966
 4967SOL    HW216799  13.788  14.088   0.828
 4968SOL     OW16800   7.778   9.219  12.205
 4968SOL    HW116801   7.850   9.227  12.267
 4968SOL    HW216802   7.753   9.309  12.185
 4969SOL     OW16803   6.906  11.995   5.672
 4969SOL    HW116804   6.878  12.003   5.764
 4969SOL    HW216805   6.826  11.968   5.626
 4970SOL     OW16806  11.458   0.582   8.859
 4970SOL    HW116807  11.541   0.534   8.863
 4970SOL    HW216808  11.476   0.666   8.901
 4971SOL     OW16809  13.167   9.610  13.424
 4971SOL    HW116810  13.216   9.681  13.382
 4971SOL    HW216811  13.078   9.618  13.388
 4972SOL     OW16812   4.327   6.796   1.290
 4972SOL    HW116813   4.263   6.731   1.321
 4972SOL    HW216814   4.330   6.861   1.361
 4973SOL     OW16815   3.779   9.749  11.816
 4973SOL    HW116816   3.802   9.833  11.777
 4973SOL    HW216817   3.771   9.690  11.741
 4974SOL     OW16818  11.040   3.704   4.039
 4974SOL    HW116819  11.054   3.677   3.948
 4974SOL    HW216820  10.996   3.629   4.080
 4975SOL     OW16821   2.532   1.045   0.755
 4975SOL    HW116822   2.458   1.101   0.732
 4975SOL    HW216823   2.600   1.068   0.692
 4976SOL     OW16824  12.639   7.397  11.786
 4976SOL    HW116825  12.719   7.411  11.735
 4976SOL    HW216826  12.578   7.358  11.724
 4977SOL     OW16827  13.504   1.627  10.601
 4977SOL    HW116828  13.552   1.699  10.642
 4977SOL    HW216829  13.562   1.596  10.531
 4978SOL     OW16830   7.348  12.429  13.354
 4978SOL    HW116831   7.340  12.512  13.308
 4978SOL    HW216832   7.326  12.363  13.288
 4979SOL     OW16833   5.021  12.792  14.599
 4979SOL    HW116834   4.957  12.851  14.638
 4979SOL    HW216835   5.064  12.749  14.674
 4980SOL     OW16836   7.773  12.477   5.927
 4980SOL    HW116837   7.831  12.409   5.891
 4980SOL    HW216838   7.690  12.432   5.944
 4981SOL     OW16839   4.236  11.192   8.125
 4981SOL    HW116840   4.315  11.166   8.078
 4981SOL    HW216841   4.253  11.282   8.153
 4982SOL     OW16842   5.268  13.377   3.764
 4982SOL    HW116843   5.193  13.417   3.720
 4982SOL    HW216844   5.344  13.427   3.732
 4983SOL     OW16845   3.316  11.675  10.874
 4983SOL    HW116846   3.365  11.595  10.856
 4983SOL    HW216847   3.370  11.745  10.837
 4984SOL     OW16848   4.399   9.240   4.755
 4984SOL    HW116849   4.424   9.320   4.709
 4984SOL    HW216850   4.327   9.205   4.702
 4985SOL     OW16851  10.483   0.847   5.725
 4985SOL    HW116852  10.556   0.853   5.786
 4985SOL    HW216853  10.477   0.933   5.685
 4986SOL     OW16854   2.222   2.743   1.812
 4986SOL    HW116855   2.152   2.775   1.868
 4986SOL    HW216856   2.179   2.683   1.751
 4987SOL     OW16857   7.045   3.831   4.195
 4987SOL    HW116858   7.069   3.922   4.178
 4987SOL    HW216859   7.074   3.816   4.285
 4988SOL     OW16860   9.566   1.887  12.670
 4988SOL    HW116861   9.536   1.943  12.741
 4988SOL    HW216862   9.510   1.810  12.674
 4989SOL     OW16863   7.767  12.993   0.093
 4989SOL    HW116864   7.782  13.057   0.163
 4989SOL    HW216865   7.675  13.006   0.069
 4990SOL     OW16866   3.089  11.668   3.230
 4990SOL    HW116867   3.159  11.623   3.184
 4990SOL    HW216868   3.027  11.599   3.254
 4991SOL     OW16869   6.381  10.567  11.031
 4991SOL    HW116870   6.321  10.578  10.958
 4991SOL    HW216871   6.451  10.631  11.014
 4992SOL     OW16872  11.307   2.178   0.306
 4992SOL    HW116873  11.401   2.190   0.324
 4992SOL    HW216874  11.285   2.248   0.245
 4993SOL     OW16875   2.003   7.296   3.952
 4993SOL    HW116876   1.996   7.284   4.047
 4993SOL    HW216877   1.913   7.295   3.921
 4994SOL     OW16878   7.458   8.977   7.069
 4994SOL    HW116879   7.401   9.001   6.996
 4994SOL    HW216880   7.521   9.048   7.075
 4995SOL     OW16881   8.279  11.672   9.576
 4995SOL    HW116882   8.275  11.744   9.639
 4995SOL    HW216883   8.200  11.621   9.594
 4996SOL     OW16884   1.560  13.967   4.186
 4996SOL    HW116885   1.569  13.888   4.132
 4996SOL    HW216886   1.523  14.032   4.126
 4997SOL     OW16887  11.330   7.087   9.370
 4997SOL    HW116888  11.301   7.053   9.285
 4997SOL    HW216889  11.321   7.013   9.430
 4998SOL     OW16890   4.875   6.133  13.088
 4998SOL    HW116891   4.940   6.160  13.153
 4998SOL    HW216892   4.882   6.197  13.018
 4999SOL     OW16893  11.601   3.057   1.814
 4999SOL    HW116894  11.537   3.082   1.748
 4999SOL    HW216895  11.564   3.088   1.897
 5000SOL     OW16896  10.892   5.314   5.018
 5000SOL    HW116897  10.828   5.248   5.046
 5000SOL    HW216898  10.839   5.390   4.995
 5001SOL     OW16899  12.292   6.544   0.419
 5001SOL    HW116900  12.301   6.538   0.514
 5001SOL    HW216901  12.376   6.511   0.385
 5002SOL     OW16902   6.578   6.675   2.069
 5002SOL    HW116903   6.584   6.692   1.975
 5002SOL    HW216904   6.486   6.688   2.090
 5003SOL     OW16905   6.066  13.073   3.786
 5003SOL    HW116906   6.049  13.116   3.702
 5003SOL    HW216907   6.019  12.990   3.781
 5004SOL     OW16908   2.170   4.549   8.432
 5004SOL    HW116909   2.210   4.565   8.347
 5004SOL    HW216910   2.099   4.613   8.437
 5005SOL     OW16911   2.854   5.965   6.706
 5005SOL    HW116912   2.810   5.977   6.790
 5005SOL    HW216913   2.948   5.973   6.726
 5006SOL     OW16914   1.327   5.745   6.189
 5006SOL    HW116915   1.262   5.789   6.243
 5006SOL    HW216916   1.358   5.672   6.243
 5007SOL     OW16917   6.725   0.390   5.368
 5007SOL    HW116918   6.639   0.376   5.408
 5007SOL    HW216919   6.724   0.334   5.290
 5008SOL     OW16920   6.012   5.986   0.125
 5008SOL    HW116921   6.038   5.947   0.209
 5008SOL    HW216922   6.036   5.920   0.060
 5009SOL     OW16923   2.711   8.964   3.707
 5009SOL    HW116924   2.767   8.891   3.680
 5009SOL    HW216925   2.624   8.924   3.715
 5010SOL     OW16926   2.766  12.898   1.544
 5010SOL    HW116927   2.679  12.861   1.529
 5010SOL    HW216928   2.748  12.983   1.584
 5011SOL     OW16929   4.896  12.650   7.964
 5011SOL    HW116930   4.969  12.691   8.008
 5011SOL    HW216931   4.892  12.561   8.001
 5012SOL     OW16932   7.341   5.828  12.118
 5012SOL    HW116933   7.420   5.871  12.151
 5012SOL    HW216934   7.373   5.761  12.058
 5013SOL     OW16935  14.231  11.567   5.145
 5013SOL    HW116936  14.308  11.520   5.113
 5013SOL    HW216937  14.265  11.622   5.216
 5014SOL     OW16938   8.850  14.645  11.589
 5014SOL    HW116939   8.829  14.559  11.625
 5014SOL    HW216940   8.943  14.641  11.569
 5015SOL     OW16941   5.399   5.611   9.266
 5015SOL    HW116942   5.320   5.557   9.268
 5015SOL    HW216943   5.421   5.624   9.359
 5016SOL     OW16944  12.546   5.358   0.173
 5016SOL    HW116945  12.556   5.451   0.156
 5016SOL    HW216946  12.634   5.327   0.192
 5017SOL     OW16947  13.124  14.862   7.501
 5017SOL    HW116948  13.068  14.796   7.542
 5017SOL    HW216949  13.171   0.032   7.574
 5018SOL     OW16950  14.364   3.443  11.442
 5018SOL    HW116951  14.354   3.360  11.488
 5018SOL    HW216952  14.419   3.424  11.367
 5019SOL     OW16953   5.821   5.950   8.954
 5019SOL    HW116954   5.763   5.881   8.984
 5019SOL    HW216955   5.904   5.933   8.998
 5020SOL     OW16956  14.723  10.085  13.262
 5020SOL    HW116957  14.815  10.111  13.267
 5020SOL    HW216958  14.718  10.006  13.315
 5021SOL     OW16959   4.582  11.146   7.390
 5021SOL    HW116960   4.504  11.193   7.418
 5021SOL    HW216961   4.551  11.057   7.372
 5022SOL     OW16962   4.518   5.648   1.053
 5022SOL    HW116963   4.600   5.679   1.013
 5022SOL    HW216964   4.545   5.618   1.140
 5023SOL     OW16965   1.528   9.843   7.022
 5023SOL    HW116966   1.447   9.869   7.066
 5023SOL    HW216967   1.537   9.750   7.041
 5024SOL     OW16968  10.052  12.077  12.397
 5024SOL    HW116969   9.969  12.029  12.392
 5024SOL    HW216970  10.114  12.013  12.432
 5025SOL     OW16971   5.856  10.868   6.943
 5025SOL    HW116972   5.894  10.883   7.030
 5025SOL    HW216973   5.876  10.776   6.925
 5026SOL     OW16974   7.143   5.726  11.742
 5026SOL    HW116975   7.142   5.816  11.776
 5026SOL    HW216976   7.159   5.671  11.818
 5027SOL     OW16977  12.692   4.480   2.642
 5027SOL    HW116978  12.730   4.445   2.723
 5027SOL    HW216979  12.668   4.403   2.591
 5028SOL     OW16980   0.231  10.960   4.453
 5028SOL    HW116981   0.224  11.010   4.371
 5028SOL    HW216982   0.316  10.916   4.447
 5029SOL     OW16983   7.358   7.025   7.423
 5029SOL    HW116984   7.304   7.101   7.444
 5029SOL    HW216985   7.383   7.038   7.332
 5030SOL     OW16986  14.123   2.352   8.221
 5030SOL    HW116987  14.080   2.305   8.293
 5030SOL    HW216988  14.214   2.363   8.251
 5031SOL     OW16989   2.582   7.687   7.762
 5031SOL    HW116990   2.650   7.647   7.814
 5031SOL    HW216991   2.536   7.745   7.823
 5032SOL     OW16992   9.618  13.321   1.295
 5032SOL    HW116993   9.677  13.304   1.222
 5032SOL    HW216994   9.532  13.332   1.255
 5033SOL     OW16995   8.153   7.608   6.859
 5033SOL    HW116996   8.069   7.570   6.885
 5033SOL    HW216997   8.160   7.589   6.766
 5034SOL     OW16998  10.455   4.342   9.332
 5034SOL    HW116999  10.506   4.401   9.387
 5034SOL    HW217000  10.366   4.376   9.336
 5035SOL     OW17001   9.911  11.590   7.919
 5035SOL    HW117002   9.852  11.580   7.994
 5035SOL    HW217003   9.989  11.541   7.944
 5036SOL     OW17004  10.943  11.604  14.419
 5036SOL    HW117005  10.984  11.691  14.418
 5036SOL    HW217006  10.871  11.612  14.481
 5037SOL     OW17007  11.395   9.778   9.630
 5037SOL    HW117008  11.393   9.686   9.657
 5037SOL    HW217009  11.397   9.826   9.713
 5038SOL     OW17010   4.621   8.869  13.007
 5038SOL    HW117011   4.710   8.897  13.024
 5038SOL    HW217012   4.574   8.888  13.088
 5039SOL     OW17013   5.687   2.342   0.954
 5039SOL    HW117014   5.658   2.366   1.042
 5039SOL    HW217015   5.626   2.387   0.895
 5040SOL     OW17016   1.646   5.201  14.169
 5040SOL    HW117017   1.555   5.175  14.184
 5040SOL    HW217018   1.698   5.136  14.216
 5041SOL     OW17019   4.232  10.360   9.352
 5041SOL    HW117020   4.254  10.401   9.268
 5041SOL    HW217021   4.212  10.269   9.331
 5042SOL     OW17022   7.141   2.516   0.956
 5042SOL    HW117023   7.087   2.592   0.938
 5042SOL    HW217024   7.214   2.523   0.894
 5043SOL     OW17025   5.885   8.135   4.021
 5043SOL    HW117026   5.823   8.161   4.089
 5043SOL    HW217027   5.971   8.153   4.059
 5044SOL     OW17028  13.543   8.319   7.117
 5044SOL    HW117029  13.542   8.385   7.186
 5044SOL    HW217030  13.466   8.264   7.136
 5045SOL     OW17031   2.805   4.209  12.774
 5045SOL    HW117032   2.805   4.190  12.867
 5045SOL    HW217033   2.837   4.129  12.733
 5046SOL     OW17034  12.823   1.203   3.836
 5046SOL    HW117035  12.799   1.126   3.886
 5046SOL    HW217036  12.810   1.177   3.744
 5047SOL     OW17037  13.927  12.246   3.232
 5047SOL    HW117038  13.972  12.329   3.248
 5047SOL    HW217039  13.893  12.221   3.318
 5048SOL     OW17040  10.785   1.452   6.355
 5048SOL    HW117041  10.822   1.490   6.275
 5048SOL    HW217042  10.700   1.417   6.328
 5049SOL     OW17043   3.851   9.427   2.037
 5049SOL    HW117044   3.869   9.494   2.104
 5049SOL    HW217045   3.915   9.443   1.969
 5050SOL     OW17046   9.705  13.337   6.882
 5050SOL    HW117047   9.716  13.429   6.860
 5050SOL    HW217048   9.789  13.312   6.923
 5051SOL     OW17049   9.431   2.004   3.217
 5051SOL    HW117050   9.453   1.975   3.128
 5051SOL    HW217051   9.410   1.922   3.264
 5052SOL     OW17052  11.562   3.269   7.000
 5052SOL    HW117053  11.551   3.305   7.088
 5052SOL    HW217054  11.473   3.266   6.965
 5053SOL     OW17055   2.296   0.970   7.262
 5053SOL    HW117056   2.363   0.972   7.194
 5053SOL    HW217057   2.325   1.034   7.327
 5054SOL     OW17058   5.292   0.164   3.986
 5054SOL    HW117059   5.272   0.123   4.070
 5054SOL    HW217060   5.372   0.215   4.003
 5055SOL     OW17061   7.029   1.091   5.308
 5055SOL    HW117062   6.986   1.173   5.283
 5055SOL    HW217063   6.991   1.069   5.393
 5056SOL     OW17064  10.648   1.414   3.091
 5056SOL    HW117065  10.736   1.453   3.093
 5056SOL    HW217066  10.590   1.488   3.072
 5057SOL     OW17067  14.018  12.966   5.019
 5057SOL    HW117068  14.099  12.922   4.992
 5057SOL    HW217069  13.993  13.018   4.943
 5058SOL     OW17070  13.934  14.606   1.657
 5058SOL    HW117071  13.970  14.525   1.694
 5058SOL    HW217072  13.968  14.675   1.714
 5059SOL     OW17073  13.067   8.194  14.336
 5059SOL    HW117074  13.071   8.279  14.294
 5059SOL    HW217075  12.973   8.178  14.350
 5060SOL     OW17076   6.342   1.992   6.776
 5060SOL    HW117077   6.264   2.048   6.776
 5060SOL    HW217078   6.404   2.037   6.719
 5061SOL     OW17079   8.026   4.692   9.437
 5061SOL    HW117080   7.995   4.602   9.422
 5061SOL    HW217081   8.012   4.706   9.531
 5062SOL     OW17082  10.418   0.068   9.841
 5062SOL    HW117083  10.435  14.859   9.789
 5062SOL    HW217084  10.360   0.120   9.786
 5063SOL     OW17085  11.607   8.916   9.426
 5063SOL    HW117086  11.524   8.953   9.394
 5063SOL    HW217087  11.649   8.988   9.472
 5064SOL     OW17088   2.490   2.392  10.988
 5064SOL    HW117089   2.437   2.380  10.910
 5064SOL    HW217090   2.520   2.305  11.012
 5065SOL     OW17091  10.016   6.169   1.227
 5065SOL    HW117092   9.970   6.182   1.143
 5065SOL    HW217093   9.999   6.249   1.276
 5066SOL     OW17094   2.750   5.940   7.499
 5066SOL    HW117095   2.673   5.887   7.481
 5066SOL    HW217096   2.790   5.954   7.414
 5067SOL     OW17097   8.872   8.674   4.670
 5067SOL    HW117098   8.802   8.630   4.719
 5067SOL    HW217099   8.878   8.625   4.588
 5068SOL     OW17100   7.325   0.168   1.734
 5068SOL    HW117101   7.267   0.152   1.659
 5068SOL    HW217102   7.385   0.093   1.734
 5069SOL     OW17103  11.205  14.394  10.595
 5069SOL    HW117104  11.122  14.355  10.622
 5069SOL    HW217105  11.184  14.485  10.574
 5070SOL     OW17106  13.006  10.584   7.785
 5070SOL    HW117107  12.995  10.634   7.866
 5070SOL    HW217108  12.993  10.648   7.715
 5071SOL     OW17109   6.926   7.903   5.956
 5071SOL    HW117110   6.835   7.933   5.947
 5071SOL    HW217111   6.927   7.854   6.038
 5072SOL     OW17112   3.299  11.667   5.722
 5072SOL    HW117113   3.225  11.659   5.662
 5072SOL    HW217114   3.259  11.680   5.808
 5073SOL     OW17115  13.475  10.079   1.010
 5073SOL    HW117116  13.518  10.141   0.951
 5073SOL    HW217117  13.542  10.014   1.030
 5074SOL     OW17118   8.977   4.410  14.431
 5074SOL    HW117119   8.915   4.399  14.360
 5074SOL    HW217120   8.935   4.473  14.490
 5075SOL     OW17121  10.988   2.356   3.756
 5075SOL    HW117122  10.945   2.397   3.831
 5075SOL    HW217123  10.928   2.286   3.729
 5076SOL     OW17124   6.771  13.382  14.256
 5076SOL    HW117125   6.768  13.292  14.223
 5076SOL    HW217126   6.695  13.389  14.313
 5077SOL     OW17127   1.344  13.410  10.991
 5077SOL    HW117128   1.355  13.451  10.905
 5077SOL    HW217129   1.429  13.370  11.009
 5078SOL     OW17130   4.782  13.864  14.555
 5078SOL    HW117131   4.863  13.834  14.596
 5078SOL    HW217132   4.744  13.786  14.515
 5079SOL     OW17133   5.914   5.946  10.753
 5079SOL    HW117134   5.897   6.023  10.807
 5079SOL    HW217135   5.840   5.943  10.692
 5080SOL     OW17136   6.632  11.278   8.587
 5080SOL    HW117137   6.574  11.304   8.515
 5080SOL    HW217138   6.708  11.238   8.544
 5081SOL     OW17139  13.648   3.361   8.680
 5081SOL    HW117140  13.590   3.332   8.750
 5081SOL    HW217141  13.596   3.424   8.630
 5082SOL     OW17142   7.985   2.289   2.078
 5082SOL    HW117143   8.000   2.271   2.170
 5082SOL    HW217144   7.892   2.270   2.064
 5083SOL     OW17145   9.549   3.759   5.128
 5083SOL    HW117146   9.459   3.772   5.098
 5083SOL    HW217147   9.545   3.683   5.186
 5084SOL     OW17148   1.049   7.555  12.896
 5084SOL    HW117149   1.126   7.610  12.899
 5084SOL    HW217150   1.036   7.536  12.803
 5085SOL     OW17151  14.584   7.835  10.317
 5085SOL    HW117152  14.500   7.845  10.272
 5085SOL    HW217153  14.594   7.740  10.326
 5086SOL     OW17154   9.499   5.143  10.175
 5086SOL    HW117155   9.443   5.091  10.233
 5086SOL    HW217156   9.578   5.089  10.163
 5087SOL     OW17157  12.162   7.334  10.597
 5087SOL    HW117158  12.082   7.324  10.649
 5087SOL    HW217159  12.233   7.321  10.659
 5088SOL     OW17160   5.389   2.192   7.689
 5088SOL    HW117161   5.449   2.169   7.761
 5088SOL    HW217162   5.344   2.110   7.669
 5089SOL     OW17163   4.896  13.318   9.806
 5089SOL    HW117164   4.954  13.300   9.732
 5089SOL    HW217165   4.949  13.295   9.883
 5090SOL     OW17166  10.944   2.773  10.600
 5090SOL    HW117167  10.923   2.692  10.554
 5090SOL    HW217168  11.000   2.746  10.673
 5091SOL     OW17169   1.249  11.280   5.142
 5091SOL    HW117170   1.270  11.267   5.049
 5091SOL    HW217171   1.302  11.354   5.169
 5092SOL     OW17172   8.765   3.824   4.021
 5092SOL    HW117173   8.774   3.766   4.097
 5092SOL    HW217174   8.767   3.912   4.059
 5093SOL     OW17175  12.727   6.896  12.640
 5093SOL    HW117176  12.802   6.930  12.690
 5093SOL    HW217177  12.753   6.807  12.617
 5094SOL     OW17178   2.857  11.342   3.749
 5094SOL    HW117179   2.943  11.351   3.710
 5094SOL    HW217180   2.800  11.399   3.696
 5095SOL     OW17181  12.780   3.562   8.698
 5095SOL    HW117182  12.762   3.653   8.673
 5095SOL    HW217183  12.866   3.566   8.741
 5096SOL     OW17184   3.996   9.844   6.434
 5096SOL    HW117185   3.938   9.916   6.459
 5096SOL    HW217186   4.072   9.888   6.396
 5097SOL     OW17187   9.580   1.432   3.997
 5097SOL    HW117188   9.595   1.433   4.091
 5097SOL    HW217189   9.626   1.510   3.965
 5098SOL     OW17190   0.708   1.755   4.005
 5098SOL    HW117191   0.657   1.675   4.013
 5098SOL    HW217192   0.796   1.730   4.034
 5099SOL     OW17193   7.721   7.132   5.082
 5099SOL    HW117194   7.637   7.158   5.121
 5099SOL    HW217195   7.757   7.068   5.143
 5100SOL     OW17196  13.731   8.165   6.882
 5100SOL    HW117197  13.667   8.230   6.909
 5100SOL    HW217198  13.793   8.160   6.955
 5101SOL     OW17199   2.313   4.267  14.435
 5101SOL    HW117200   2.365   4.294  14.511
 5101SOL    HW217201   2.290   4.176  14.453
 5102SOL     OW17202  14.034  13.022  13.467
 5102SOL    HW117203  14.029  13.116  13.453
 5102SOL    HW217204  14.022  12.983  13.381
 5103SOL     OW17205   8.403   2.647   1.776
 5103SOL    HW117206   8.360   2.723   1.814
 5103SOL    HW217207   8.369   2.572   1.824
 5104SOL     OW17208  11.993   3.965  13.666
 5104SOL    HW117209  11.999   4.042  13.723
 5104SOL    HW217210  12.016   3.891  13.723
 5105SOL     OW17211   0.962   1.156   6.640
 5105SOL    HW117212   1.041   1.134   6.590
 5105SOL    HW217213   0.996   1.190   6.723
 5106SOL     OW17214   2.609   5.634   9.308
 5106SOL    HW117215   2.582   5.726   9.306
 5106SOL    HW217216   2.676   5.626   9.240
 5107SOL     OW17217   5.375  10.719   6.791
 5107SOL    HW117218   5.348  10.784   6.726
 5107SOL    HW217219   5.333  10.747   6.872
 5108SOL     OW17220  13.617  11.895   7.888
 5108SOL    HW117221  13.691  11.940   7.847
 5108SOL    HW217222  13.542  11.916   7.832
 5109SOL     OW17223  11.914   9.415   7.426
 5109SOL    HW117224  11.866   9.447   7.503
 5109SOL    HW217225  11.997   9.382   7.462
 5110SOL     OW17226  11.005   7.044  12.866
 5110SOL    HW117227  11.067   7.067  12.935
 5110SOL    HW217228  11.027   7.102  12.793
 5111SOL     OW17229   6.686   5.002  12.456
 5111SOL    HW117230   6.728   5.073  12.407
 5111SOL    HW217231   6.752   4.933  12.460
 5112SOL     OW17232   2.863  12.333   9.165
 5112SOL    HW117233   2.870  12.363   9.074
 5112SOL    HW217234   2.846  12.412   9.216
 5113SOL     OW17235  13.113   8.595   8.290
 5113SOL    HW117236  13.028   8.585   8.246
 5113SOL    HW217237  13.091   8.627   8.378
 5114SOL     OW17238  10.994  12.279  11.991
 5114SOL    HW117239  10.903  12.250  11.998
 5114SOL    HW217240  11.020  12.255  11.902
 5115SOL     OW17241   8.759  11.923  10.451
 5115SOL    HW117242   8.786  11.907  10.360
 5115SOL    HW217243   8.758  11.836  10.491
 5116SOL     OW17244   8.668  12.069   5.743
 5116SOL    HW117245   8.596  12.105   5.795
 5116SOL    HW217246   8.628  12.050   5.658
 5117SOL     OW17247  12.015  14.207  11.090
 5117SOL    HW117248  12.092  14.221  11.035
 5117SOL    HW217249  12.042  14.234  11.178
 5118SOL     OW17250   8.730   6.508   0.549
 5118SOL    HW117251   8.648   6.534   0.591
 5118SOL    HW217252   8.753   6.425   0.591
 5119SOL     OW17253   0.599  10.939   3.849
 5119SOL    HW117254   0.638  10.906   3.930
 5119SOL    HW217255   0.536  11.005   3.878
 5120SOL     OW17256   4.215  10.367   7.752
 5120SOL    HW117257   4.233  10.279   7.786
 5120SOL    HW217258   4.158  10.352   7.676
 5121SOL     OW17259   3.223   6.168  10.310
 5121SOL    HW117260   3.227   6.178  10.405
 5121SOL    HW217261   3.314   6.152  10.283
 5122SOL     OW17262   3.331   6.388  11.630
 5122SOL    HW117263   3.366   6.344  11.707
 5122SOL    HW217264   3.393   6.459  11.613
 5123SOL     OW17265   8.915   1.202   0.162
 5123SOL    HW117266   8.950   1.291   0.156
 5123SOL    HW217267   8.993   1.146   0.160
 5124SOL     OW17268   0.100   0.055  14.713
 5124SOL    HW117269   0.153  14.846  14.719
 5124SOL    HW217270   0.009   0.023  14.713
 5125SOL     OW17271   8.344   0.346   2.242
 5125SOL    HW117272   8.427   0.298   2.233
 5125SOL    HW217273   8.361   0.412   2.309
 5126SOL     OW17274   6.053   1.528  12.335
 5126SOL    HW117275   6.064   1.453  12.394
 5126SOL    HW217276   6.104   1.598  12.376
 5127SOL     OW17277   7.592   7.445   2.803
 5127SOL    HW117278   7.682   7.422   2.827
 5127SOL    HW217279   7.583   7.416   2.713
 5128SOL     OW17280   5.085   7.097   8.927
 5128SOL    HW117281   5.083   7.064   9.017
 5128SOL    HW217282   5.029   7.036   8.878
 5129SOL     OW17283   2.164   8.585   5.718
 5129SOL    HW117284   2.135   8.676   5.714
 5129SOL    HW217285   2.140   8.557   5.807
 5130SOL     OW17286   1.354  13.612   7.459
 5130SOL    HW117287   1.419  13.569   7.516
 5130SOL    HW217288   1.353  13.703   7.488
 5131SOL     OW17289   9.855  11.571  14.086
 5131SOL    HW117290   9.853  11.652  14.138
 5131SOL    HW217291   9.769  11.570  14.042
 5132SOL     OW17292  12.437   3.953  13.751
 5132SOL    HW117293  12.346   3.933  13.730
 5132SOL    HW217294  12.437   3.970  13.845
 5133SOL     OW17295   4.153  10.680  11.509
 5133SOL    HW117296   4.168  10.718  11.423
 5133SOL    HW217297   4.239  10.676  11.550
 5134SOL     OW17298   3.682   4.186   4.301
 5134SOL    HW117299   3.694   4.279   4.317
 5134SOL    HW217300   3.607   4.161   4.356
 5135SOL     OW17301   6.102   5.653   7.192
 5135SOL    HW117302   6.196   5.640   7.204
 5135SOL    HW217303   6.063   5.619   7.273
 5136SOL     OW17304   0.125  11.193   2.053
 5136SOL    HW117305   0.219  11.176   2.048
 5136SOL    HW217306   0.089  11.115   2.095
 5137SOL     OW17307   2.556  14.077  14.840
 5137SOL    HW117308   2.503  14.102   0.046
 5137SOL    HW217309   2.494  14.066  14.769
 5138SOL     OW17310  10.352   7.798   4.760
 5138SOL    HW117311  10.258   7.785   4.773
 5138SOL    HW217312  10.381   7.717   4.717
 5139SOL     OW17313   6.633   7.717  13.072
 5139SOL    HW117314   6.642   7.787  13.137
 5139SOL    HW217315   6.593   7.645  13.119
 5140SOL     OW17316   1.310   9.853   2.462
 5140SOL    HW117317   1.401   9.839   2.438
 5140SOL    HW217318   1.308   9.943   2.496
 5141SOL     OW17319  14.833  10.345  14.628
 5141SOL    HW117320   0.032  10.289  14.590
 5141SOL    HW217321  14.862  10.361  14.717
 5142SOL     OW17322   4.936  12.800   0.301
 5142SOL    HW117323   5.009  12.814   0.362
 5142SOL    HW217324   4.904  12.888   0.283
 5143SOL     OW17325   6.068   8.871   5.600
 5143SOL    HW117326   6.152   8.839   5.568
 5143SOL    HW217327   6.028   8.913   5.524
 5144SOL     OW17328   1.075   3.692  13.167
 5144SOL    HW117329   1.034   3.689  13.081
 5144SOL    HW217330   1.090   3.785  13.184
 5145SOL     OW17331  10.356   9.621   0.432
 5145SOL    HW117332  10.278   9.575   0.462
 5145SOL    HW217333  10.331   9.713   0.432
 5146SOL     OW17334   4.294   8.025  14.148
 5146SOL    HW117335   4.235   8.100  14.136
 5146SOL    HW217336   4.236   7.951  14.165
 5147SOL     OW17337   3.048  10.415   3.742
 5147SOL    HW117338   3.136  10.450   3.728
 5147SOL    HW217339   2.991  10.471   3.688
 5148SOL     OW17340   2.164  10.210   7.445
 5148SOL    HW117341   2.254  10.216   7.413
 5148SOL    HW217342   2.109  10.219   7.367
 5149SOL     OW17343  10.345   8.479  12.162
 5149SOL    HW117344  10.387   8.565  12.163
 5149SOL    HW217345  10.392   8.429  12.229
 5150SOL     OW17346   8.619  10.060  13.593
 5150SOL    HW117347   8.656  10.130  13.540
 5150SOL    HW217348   8.601   9.990  13.531
 5151SOL     OW17349   9.497   3.174  11.803
 5151SOL    HW117350   9.525   3.113  11.734
 5151SOL    HW217351   9.402   3.174  11.797
 5152SOL     OW17352   2.071  13.699   6.251
 5152SOL    HW117353   2.057  13.761   6.179
 5152SOL    HW217354   2.162  13.671   6.241
 5153SOL     OW17355   6.875  13.752  13.253
 5153SOL    HW117356   6.828  13.689  13.199
 5153SOL    HW217357   6.956  13.706  13.277
 5154SOL     OW17358   7.868   2.319  12.141
 5154SOL    HW117359   7.830   2.231  12.148
 5154SOL    HW217360   7.939   2.319  12.205
 5155SOL     OW17361   7.199  10.004   2.625
 5155SOL    HW117362   7.182  10.024   2.532
 5155SOL    HW217363   7.120  10.034   2.670
 5156SOL     OW17364   7.726  13.339   0.386
 5156SOL    HW117365   7.729  13.245   0.370
 5156SOL    HW217366   7.800  13.374   0.336
 5157SOL     OW17367  13.399   0.678   5.605
 5157SOL    HW117368  13.414   0.598   5.654
 5157SOL    HW217369  13.481   0.693   5.557
 5158SOL     OW17370  11.956   7.702  12.050
 5158SOL    HW117371  11.892   7.631  12.046
 5158SOL    HW217372  11.996   7.704  11.963
 5159SOL     OW17373   6.449  13.591   7.067
 5159SOL    HW117374   6.407  13.670   7.103
 5159SOL    HW217375   6.377  13.529   7.055
 5160SOL     OW17376  10.216   6.668   4.268
 5160SOL    HW117377  10.214   6.656   4.173
 5160SOL    HW217378  10.148   6.610   4.301
 5161SOL     OW17379  12.824   2.785   6.285
 5161SOL    HW117380  12.770   2.862   6.305
 5161SOL    HW217381  12.762   2.713   6.284
 5162SOL     OW17382   6.904   3.713   0.031
 5162SOL    HW117383   6.870   3.627   0.052
 5162SOL    HW217384   6.963   3.735   0.103
 5163SOL     OW17385   0.409   2.197   0.600
 5163SOL    HW117386   0.382   2.193   0.691
 5163SOL    HW217387   0.497   2.160   0.599
 5164SOL     OW17388   1.292  11.499   9.467
 5164SOL    HW117389   1.298  11.569   9.532
 5164SOL    HW217390   1.200  11.475   9.466
 5165SOL     OW17391  10.151  10.700   6.702
 5165SOL    HW117392  10.085  10.757   6.742
 5165SOL    HW217393  10.233  10.750   6.711
 5166SOL     OW17394  14.819   9.717   5.419
 5166SOL    HW117395  14.809   9.769   5.498
 5166SOL    HW217396  14.796   9.776   5.348
 5167SOL     OW17397  11.188  13.700  13.380
 5167SOL    HW117398  11.146  13.762  13.440
 5167SOL    HW217399  11.121  13.634  13.363
 5168SOL     OW17400  11.952  14.233  12.985
 5168SOL    HW117401  11.912  14.177  12.918
 5168SOL    HW217402  12.038  14.193  13.001
 5169SOL     OW17403  11.074  11.017  14.466
 5169SOL    HW117404  11.066  10.942  14.407
 5169SOL    HW217405  11.054  11.092  14.411
 5170SOL     OW17406   8.004   4.503   8.056
 5170SOL    HW117407   7.919   4.539   8.082
 5170SOL    HW217408   8.067   4.548   8.112
 5171SOL     OW17409   3.520  11.976   4.772
 5171SOL    HW117410   3.424  11.977   4.771
 5171SOL    HW217411   3.544  12.014   4.857
 5172SOL     OW17412   2.832   0.414  13.086
 5172SOL    HW117413   2.874   0.345  13.138
 5172SOL    HW217414   2.858   0.395  12.996
 5173SOL     OW17415   9.089   9.512   0.086
 5173SOL    HW117416   9.139   9.431   0.074
 5173SOL    HW217417   9.121   9.571   0.017
 5174SOL     OW17418   1.000  12.282   6.167
 5174SOL    HW117419   0.954  12.198   6.173
 5174SOL    HW217420   0.986  12.311   6.077
 5175SOL     OW17421   7.613   3.432   4.460
 5175SOL    HW117422   7.657   3.467   4.537
 5175SOL    HW217423   7.684   3.402   4.403
 5176SOL     OW17424   4.170   3.414   8.797
 5176SOL    HW117425   4.138   3.443   8.712
 5176SOL    HW217426   4.260   3.446   8.801
 5177SOL     OW17427  14.372  13.768   3.344
 5177SOL    HW117428  14.315  13.770   3.268
 5177SOL    HW217429  14.444  13.828   3.322
 5178SOL     OW17430   1.239   1.088   9.766
 5178SOL    HW117431   1.185   1.080   9.845
 5178SOL    HW217432   1.176   1.112   9.698
 5179SOL     OW17433  11.959  14.035   9.444
 5179SOL    HW117434  11.988  13.983   9.369
 5179SOL    HW217435  11.868  14.007   9.459
 5180SOL     OW17436  10.233  12.412   3.571
 5180SOL    HW117437  10.227  12.366   3.487
 5180SOL    HW217438  10.179  12.491   3.559
 5181SOL     OW17439   0.586   2.349  12.364
 5181SOL    HW117440   0.666   2.381  12.406
 5181SOL    HW217441   0.516   2.375  12.422
 5182SOL     OW17442  14.374   4.763   2.560
 5182SOL    HW117443  14.427   4.842   2.567
 5182SOL    HW217444  14.299   4.789   2.506
 5183SOL     OW17445   4.686   6.003   2.681
 5183SOL    HW117446   4.635   6.083   2.668
 5183SOL    HW217447   4.767   6.032   2.723
 5184SOL     OW17448  10.208   5.912  14.637
 5184SOL    HW117449  10.252   5.921  14.552
 5184SOL    HW217450  10.146   5.985  14.639
 5185SOL     OW17451   8.069  12.490  13.879
 5185SOL    HW117452   7.979  12.486  13.846
 5185SOL    HW217453   8.123  12.469  13.803
 5186SOL     OW17454   2.867   0.188   0.288
 5186SOL    HW117455   2.810   0.233   0.350
 5186SOL    HW217456   2.844   0.096   0.296
 5187SOL     OW17457  13.177  12.238  14.516
 5187SOL    HW117458  13.097  12.195  14.547
 5187SOL    HW217459  13.146  12.300  14.449
 5188SOL     OW17460  12.954   7.421  10.401
 5188SOL    HW117461  12.903   7.413  10.321
 5188SOL    HW217462  12.911   7.491  10.450
 5189SOL     OW17463   9.032   7.323  14.508
 5189SOL    HW117464   8.972   7.257  14.543
 5189SOL    HW217465   9.097   7.273  14.459
 5190SOL     OW17466   0.970  14.780  12.445
 5190SOL    HW117467   1.022  14.767  12.524
 5190SOL    HW217468   1.016  14.848  12.396
 5191SOL     OW17469   3.612  10.652   5.261
 5191SOL    HW117470   3.553  10.665   5.187
 5191SOL    HW217471   3.553  10.651   5.337
 5192SOL     OW17472  14.091   4.177   0.207
 5192SOL    HW117473  14.058   4.132   0.129
 5192SOL    HW217474  14.168   4.127   0.233
 5193SOL     OW17475   8.323  12.114   1.184
 5193SOL    HW117476   8.282  12.052   1.124
 5193SOL    HW217477   8.254  12.176   1.206
 5194SOL     OW17478   4.982   0.451  14.083
 5194SOL    HW117479   5.060   0.435  14.135
 5194SOL    HW217480   4.911   0.462  14.147
 5195SOL     OW17481   0.122  12.595  12.426
 5195SOL    HW117482   0.057  12.525  12.437
 5195SOL    HW217483   0.185  12.560  12.363
 5196SOL     OW17484   4.162  13.850  11.622
 5196SOL    HW117485   4.069  13.850  11.647
 5196SOL    HW217486   4.208  13.873  11.702
 5197SOL     OW17487  11.815   7.603   7.561
 5197SOL    HW117488  11.855   7.690   7.563
 5197SOL    HW217489  11.755   7.606   7.487
 5198SOL     OW17490   3.165  10.225  11.309
 5198SOL    HW117491   3.254  10.251  11.329
 5198SOL    HW217492   3.111  10.302  11.330
 5199SOL     OW17493   5.476  12.323   1.988
 5199SOL    HW117494   5.523  12.403   2.012
 5199SOL    HW217495   5.383  12.345   1.999
 5200SOL     OW17496   2.748   9.208  10.395
 5200SOL    HW117497   2.836   9.171  10.384
 5200SOL    HW217498   2.747   9.241  10.485
 5201SOL     OW17499   5.309  11.266  14.485
 5201SOL    HW117500   5.399  11.236  14.473
 5201SOL    HW217501   5.282  11.228  14.569
 5202SOL     OW17502   7.488   2.934   0.264
 5202SOL    HW117503   7.414   2.875   0.274
 5202SOL    HW217504   7.463   3.012   0.314
 5203SOL     OW17505   9.726   4.979   1.921
 5203SOL    HW117506   9.777   5.051   1.883
 5203SOL    HW217507   9.745   4.904   1.865
 5204SOL     OW17508   5.428   3.271   6.500
 5204SOL    HW117509   5.479   3.315   6.568
 5204SOL    HW217510   5.484   3.198   6.472
 5205SOL     OW17511   0.559   6.903  10.466
 5205SOL    HW117512   0.506   6.982  10.478
 5205SOL    HW217513   0.590   6.908  10.376
 5206SOL     OW17514   4.162   8.737  14.107
 5206SOL    HW117515   4.218   8.756  14.183
 5206SOL    HW217516   4.218   8.688  14.048
 5207SOL     OW17517   8.648  13.765   6.085
 5207SOL    HW117518   8.555  13.787   6.082
 5207SOL    HW217519   8.668  13.759   6.179
 5208SOL     OW17520   4.178   9.499   8.964
 5208SOL    HW117521   4.147   9.410   8.980
 5208SOL    HW217522   4.249   9.511   9.027
 5209SOL     OW17523   8.844  12.458  12.864
 5209SOL    HW117524   8.835  12.489  12.774
 5209SOL    HW217525   8.801  12.372  12.863
 5210SOL     OW17526   1.172  14.195   0.423
 5210SOL    HW117527   1.197  14.277   0.381
 5210SOL    HW217528   1.139  14.140   0.352
 5211SOL     OW17529  12.479   7.173  11.711
 5211SOL    HW117530  12.520   7.117  11.777
 5211SOL    HW217531  12.420   7.115  11.663
 5212SOL     OW17532   1.472   6.909   4.622
 5212SOL    HW117533   1.462   6.932   4.530
 5212SOL    HW217534   1.504   6.819   4.621
 5213SOL     OW17535   5.358  11.912   8.650
 5213SOL    HW117536   5.301  11.860   8.706
 5213SOL    HW217537   5.330  11.891   8.561
 5214SOL     OW17538   6.105   7.216  14.213
 5214SOL    HW117539   6.053   7.267  14.275
 5214SOL    HW217540   6.063   7.232  14.128
 5215SOL     OW17541   4.339   1.588  12.433
 5215SOL    HW117542   4.431   1.564  12.448
 5215SOL    HW217543   4.290   1.516  12.473
 5216SOL     OW17544   7.979   3.957  13.365
 5216SOL    HW117545   7.951   3.905  13.440
 5216SOL    HW217546   7.902   4.009  13.342
 5217SOL     OW17547   7.110   1.317  12.802
 5217SOL    HW117548   7.087   1.305  12.710
 5217SOL    HW217549   7.055   1.390  12.830
 5218SOL     OW17550  10.225   7.183   6.675
 5218SOL    HW117551  10.308   7.229   6.672
 5218SOL    HW217552  10.165   7.242   6.721
 5219SOL     OW17553   2.079  11.834   2.455
 5219SOL    HW117554   2.137  11.801   2.524
 5219SOL    HW217555   2.038  11.756   2.418
 5220SOL     OW17556   4.290   0.499  14.157
 5220SOL    HW117557   4.365   0.470  14.208
 5220SOL    HW217558   4.227   0.529  14.222
 5221SOL     OW17559   6.156   7.241   2.781
 5221SOL    HW117560   6.099   7.267   2.854
 5221SOL    HW217561   6.139   7.307   2.713
 5222SOL     OW17562  14.839   2.601   7.648
 5222SOL    HW117563  14.792   2.608   7.731
 5222SOL    HW217564  14.778   2.635   7.583
 5223SOL     OW17565   1.483   5.337  14.418
 5223SOL    HW117566   1.451   5.348  14.328
 5223SOL    HW217567   1.568   5.381  14.419
 5224SOL     OW17568   5.971   7.911   7.852
 5224SOL    HW117569   6.027   7.932   7.777
 5224SOL    HW217570   5.892   7.963   7.839
 5225SOL     OW17571   9.773   3.498  12.264
 5225SOL    HW117572   9.827   3.560  12.214
 5225SOL    HW217573   9.752   3.429  12.201
 5226SOL     OW17574  12.330  10.425  10.759
 5226SOL    HW117575  12.384  10.499  10.731
 5226SOL    HW217576  12.392  10.356  10.778
 5227SOL     OW17577  13.611  11.596   4.776
 5227SOL    HW117578  13.702  11.619   4.793
 5227SOL    HW217579  13.616  11.510   4.734
 5228SOL     OW17580   1.394   3.003   9.785
 5228SOL    HW117581   1.425   2.952   9.860
 5228SOL    HW217582   1.341   3.072   9.823
 5229SOL     OW17583   3.602   1.585  11.107
 5229SOL    HW117584   3.673   1.557  11.050
 5229SOL    HW217585   3.631   1.669  11.142
 5230SOL     OW17586  10.050   4.320   7.247
 5230SOL    HW117587  10.099   4.399   7.270
 5230SOL    HW217588   9.982   4.351   7.187
 5231SOL     OW17589  13.769   1.239   6.634
 5231SOL    HW117590  13.824   1.289   6.574
 5231SOL    HW217591  13.812   1.153   6.640
 5232SOL     OW17592   5.773  13.238   4.270
 5232SOL    HW117593   5.737  13.173   4.330
 5232SOL    HW217594   5.709  13.243   4.199
 5233SOL     OW17595  11.214   8.164  12.111
 5233SOL    HW117596  11.197   8.225  12.040
 5233SOL    HW217597  11.307   8.173  12.130
 5234SOL     OW17598   1.037   8.592   1.309
 5234SOL    HW117599   1.090   8.655   1.259
 5234SOL    HW217600   1.022   8.635   1.393
 5235SOL     OW17601   5.902  12.674   7.505
 5235SOL    HW117602   5.837  12.702   7.441
 5235SOL    HW217603   5.905  12.579   7.496
 5236SOL     OW17604  13.222  12.215   5.881
 5236SOL    HW117605  13.203  12.130   5.842
 5236SOL    HW217606  13.213  12.278   5.809
 5237SOL     OW17607   0.101   0.652   1.531
 5237SOL    HW117608   0.165   0.702   1.481
 5237SOL    HW217609   0.017   0.672   1.490
 5238SOL     OW17610   6.006  14.203   9.704
 5238SOL    HW117611   5.997  14.296   9.683
 5238SOL    HW217612   5.953  14.158   9.639
 5239SOL     OW17613  10.632   8.030  11.623
 5239SOL    HW117614  10.651   8.006  11.532
 5239SOL    HW217615  10.537   8.042  11.624
 5240SOL     OW17616  11.498  11.434   1.702
 5240SOL    HW117617  11.520  11.527   1.696
 5240SOL    HW217618  11.526  11.408   1.790
 5241SOL     OW17619  12.351   0.258   1.165
 5241SOL    HW117620  12.390   0.209   1.236
 5241SOL    HW217621  12.259   0.269   1.191
 5242SOL     OW17622   7.564  11.358   8.708
 5242SOL    HW117623   7.483  11.406   8.690
 5242SOL    HW217624   7.614  11.364   8.626
 5243SOL     OW17625   5.625  13.505  10.147
 5243SOL    HW117626   5.603  13.455  10.069
 5243SOL    HW217627   5.631  13.440  10.217
 5244SOL     OW17628   0.847   4.247   5.665
 5244SOL    HW117629   0.907   4.234   5.593
 5244SOL    HW217630   0.805   4.162   5.678
 5245SOL     OW17631   9.163   9.924  14.529
 5245SOL    HW117632   9.211   9.918  14.612
 5245SOL    HW217633   9.122  10.011  14.532
 5246SOL     OW17634  12.009   9.291  11.276
 5246SOL    HW117635  11.995   9.235  11.200
 5246SOL    HW217636  12.092   9.261  11.312
 5247SOL     OW17637   0.337   8.868   3.204
 5247SOL    HW117638   0.293   8.789   3.173
 5247SOL    HW217639   0.290   8.940   3.161
 5248SOL     OW17640  14.075   8.274   3.401
 5248SOL    HW117641  13.989   8.240   3.375
 5248SOL    HW217642  14.115   8.302   3.319
 5249SOL     OW17643   1.840   5.174   3.912
 5249SOL    HW117644   1.870   5.254   3.870
 5249SOL    HW217645   1.821   5.114   3.840
 5250SOL     OW17646  12.927  14.420  10.795
 5250SOL    HW117647  12.939  14.328  10.771
 5250SOL    HW217648  12.860  14.417  10.864
 5251SOL     OW17649  11.516   1.323   8.400
 5251SOL    HW117650  11.529   1.352   8.490
 5251SOL    HW217651  11.527   1.228   8.404
 5252SOL     OW17652   4.418   0.829   3.161
 5252SOL    HW117653   4.401   0.882   3.083
 5252SOL    HW217654   4.412   0.738   3.130
 5253SOL     OW17655   3.723  12.361  11.157
 5253SOL    HW117656   3.778  12.382  11.081
 5253SOL    HW217657   3.743  12.430  11.221
 5254SOL     OW17658  14.391   3.627   5.810
 5254SOL    HW117659  14.320   3.573   5.845
 5254SOL    HW217660  14.348   3.703   5.772
 5255SOL     OW17661   1.898  11.545   0.885
 5255SOL    HW117662   1.889  11.489   0.808
 5255SOL    HW217663   1.953  11.618   0.855
 5256SOL     OW17664  12.579  13.061  10.452
 5256SOL    HW117665  12.497  13.014  10.443
 5256SOL    HW217666  12.645  12.992  10.463
 5257SOL     OW17667   0.157  11.324   2.864
 5257SOL    HW117668   0.139  11.286   2.950
 5257SOL    HW217669   0.083  11.381   2.846
 5258SOL     OW17670  14.349  11.357  10.328
 5258SOL    HW117671  14.403  11.278  10.336
 5258SOL    HW217672  14.267  11.333  10.371
 5259SOL     OW17673  14.116   1.825   4.241
 5259SOL    HW117674  14.034   1.829   4.191
 5259SOL    HW217675  14.151   1.913   4.237
 5260SOL     OW17676   8.451   6.741   4.711
 5260SOL    HW117677   8.373   6.724   4.659
 5260SOL    HW217678   8.442   6.685   4.788
 5261SOL     OW17679   8.366  13.127  13.288
 5261SOL    HW117680   8.335  13.050  13.336
 5261SOL    HW217681   8.391  13.094  13.202
 5262SOL     OW17682   8.857   8.067   9.256
 5262SOL    HW117683   8.837   7.980   9.291
 5262SOL    HW217684   8.819   8.128   9.320
 5263SOL     OW17685   1.208   7.241   3.861
 5263SOL    HW117686   1.187   7.148   3.866
 5263SOL    HW217687   1.283   7.252   3.920
 5264SOL     OW17688   9.336  12.200   4.497
 5264SOL    HW117689   9.360  12.119   4.542
 5264SOL    HW217690   9.258  12.177   4.447
 5265SOL     OW17691   7.239   8.636  12.284
 5265SOL    HW117692   7.298   8.660  12.355
 5265SOL    HW217693   7.295   8.633  12.206
 5266SOL     OW17694   2.259   0.256   4.381
 5266SOL    HW117695   2.351   0.242   4.400
 5266SOL    HW217696   2.231   0.175   4.338
 5267SOL     OW17697   8.869   5.330  13.528
 5267SOL    HW117698   8.943   5.376  13.489
 5267SOL    HW217699   8.799   5.339  13.464
 5268SOL     OW17700   9.711   6.614   5.053
 5268SOL    HW117701   9.775   6.582   5.117
 5268SOL    HW217702   9.745   6.584   4.969
 5269SOL     OW17703  14.050   1.362   6.676
 5269SOL    HW117704  14.133   1.382   6.718
 5269SOL    HW217705  14.014   1.448   6.652
 5270SOL     OW17706   1.107   9.159   8.886
 5270SOL    HW117707   1.048   9.085   8.901
 5270SOL    HW217708   1.151   9.172   8.971
 5271SOL     OW17709   0.483  10.636   0.071
 5271SOL    HW117710   0.436  10.680   0.142
 5271SOL    HW217711   0.415  10.608   0.010
 5272SOL     OW17712  11.822   4.928   4.257
 5272SOL    HW117713  11.892   4.950   4.319
 5272SOL    HW217714  11.749   4.985   4.283
 5273SOL     OW17715   5.670   2.561   2.730
 5273SOL    HW117716   5.739   2.496   2.721
 5273SOL    HW217717   5.638   2.574   2.641
 5274SOL     OW17718   2.596   3.712  13.873
 5274SOL    HW117719   2.527   3.762  13.830
 5274SOL    HW217720   2.578   3.621  13.848
 5275SOL     OW17721   1.042   0.079   4.477
 5275SOL    HW117722   0.950   0.071   4.500
 5275SOL    HW217723   1.043   0.126   4.394
 5276SOL     OW17724  14.640   6.622   9.909
 5276SOL    HW117725  14.679   6.565   9.843
 5276SOL    HW217726  14.571   6.668   9.863
 5277SOL     OW17727   7.180   3.225   4.414
 5277SOL    HW117728   7.181   3.182   4.328
 5277SOL    HW217729   7.087   3.227   4.438
 5278SOL     OW17730   4.205   2.022   2.856
 5278SOL    HW117731   4.220   2.070   2.937
 5278SOL    HW217732   4.148   2.079   2.804
 5279SOL     OW17733   2.918  12.532  12.386
 5279SOL    HW117734   2.846  12.471  12.395
 5279SOL    HW217735   2.988  12.494  12.440
 5280SOL     OW17736  14.298   3.287   5.132
 5280SOL    HW117737  14.369   3.288   5.196
 5280SOL    HW217738  14.219   3.270   5.184
 5281SOL     OW17739   8.642   9.220   2.434
 5281SOL    HW117740   8.630   9.299   2.381
 5281SOL    HW217741   8.615   9.246   2.522
 5282SOL     OW17742   4.526   1.340   8.742
 5282SOL    HW117743   4.455   1.277   8.753
 5282SOL    HW217744   4.606   1.288   8.750
 5283SOL     OW17745   3.490   8.117   4.761
 5283SOL    HW117746   3.556   8.173   4.721
 5283SOL    HW217747   3.408   8.141   4.718
 5284SOL     OW17748  13.371  12.863   5.339
 5284SOL    HW117749  13.308  12.857   5.410
 5284SOL    HW217750  13.449  12.819   5.372
 5285SOL     OW17751   7.637  14.744   9.829
 5285SOL    HW117752   7.564  14.805   9.817
 5285SOL    HW217753   7.659  14.714   9.741
 5286SOL     OW17754  12.655   9.798   7.678
 5286SOL    HW117755  12.701   9.725   7.637
 5286SOL    HW217756  12.720   9.866   7.687
 5287SOL     OW17757   4.014   8.214   5.461
 5287SOL    HW117758   4.048   8.302   5.477
 5287SOL    HW217759   4.063   8.158   5.522
 5288SOL     OW17760   2.095   8.461  14.418
 5288SOL    HW117761   2.083   8.528  14.486
 5288SOL    HW217762   2.027   8.397  14.435
 5289SOL     OW17763   8.523   5.594   0.592
 5289SOL    HW117764   8.478   5.605   0.676
 5289SOL    HW217765   8.488   5.664   0.537
 5290SOL     OW17766   7.619   1.127   0.822
 5290SOL    HW117767   7.696   1.072   0.808
 5290SOL    HW217768   7.547   1.077   0.785
 5291SOL     OW17769   4.137   7.678  13.051
 5291SOL    HW117770   4.212   7.726  13.087
 5291SOL    HW217771   4.100   7.632  13.126
 5292SOL     OW17772   6.103  10.216   5.705
 5292SOL    HW117773   6.042  10.150   5.674
 5292SOL    HW217774   6.165  10.229   5.633
 5293SOL     OW17775   9.763   2.592   4.334
 5293SOL    HW117776   9.824   2.526   4.366
 5293SOL    HW217777   9.756   2.574   4.240
 5294SOL     OW17778   4.329  14.335   7.768
 5294SOL    HW117779   4.335  14.271   7.697
 5294SOL    HW217780   4.377  14.412   7.736
 5295SOL     OW17781  11.911   9.886  13.585
 5295SOL    HW117782  11.925   9.924  13.499
 5295SOL    HW217783  11.996   9.897  13.630
 5296SOL     OW17784   5.437  12.531  14.533
 5296SOL    HW117785   5.449  12.440  14.506
 5296SOL    HW217786   5.518  12.575  14.506
 5297SOL     OW17787  13.515   4.260   6.151
 5297SOL    HW117788  13.581   4.191   6.157
 5297SOL    HW217789  13.537   4.319   6.224
 5298SOL     OW17790   0.342  12.911   8.432
 5298SOL    HW117791   0.392  12.894   8.352
 5298SOL    HW217792   0.281  12.980   8.407
 5299SOL     OW17793   6.665  11.046   7.733
 5299SOL    HW117794   6.609  10.983   7.686
 5299SOL    HW217795   6.635  11.131   7.702
 5300SOL     OW17796   5.904   5.425   7.093
 5300SOL    HW117797   5.949   5.506   7.119
 5300SOL    HW217798   5.925   5.414   7.001
 5301SOL     OW17799   3.881   8.682   5.583
 5301SOL    HW117800   3.933   8.641   5.652
 5301SOL    HW217801   3.831   8.610   5.544
 5302SOL     OW17802   3.645   6.184  11.065
 5302SOL    HW117803   3.718   6.202  11.007
 5302SOL    HW217804   3.676   6.113  11.121
 5303SOL     OW17805   8.463   2.231  14.627
 5303SOL    HW117806   8.490   2.320  14.648
 5303SOL    HW217807   8.401   2.208  14.697
 5304SOL     OW17808   6.645  14.564  11.618
 5304SOL    HW117809   6.736  14.593  11.627
 5304SOL    HW217810   6.594  14.624  11.672
 5305SOL     OW17811   7.379   8.955  11.642
 5305SOL    HW117812   7.322   8.916  11.575
 5305SOL    HW217813   7.433   8.882  11.672
 5306SOL     OW17814   6.667   8.363  10.528
 5306SOL    HW117815   6.759   8.335  10.523
 5306SOL    HW217816   6.620   8.299  10.474
 5307SOL     OW17817  12.460   0.604   2.970
 5307SOL    HW117818  12.370   0.573   2.959
 5307SOL    HW217819  12.495   0.609   2.881
 5308SOL     OW17820  12.930   7.546   2.995
 5308SOL    HW117821  12.972   7.486   2.933
 5308SOL    HW217822  12.950   7.633   2.961
 5309SOL     OW17823   2.388  11.204  13.103
 5309SOL    HW117824   2.294  11.187  13.111
 5309SOL    HW217825   2.420  11.138  13.042
 5310SOL     OW17826   9.178   9.428   7.868
 5310SOL    HW117827   9.123   9.387   7.934
 5310SOL    HW217828   9.263   9.385   7.877
 5311SOL     OW17829   8.358  14.745   0.915
 5311SOL    HW117830   8.322  14.657   0.910
 5311SOL    HW217831   8.290  14.796   0.958
 5312SOL     OW17832   3.289   5.045   8.221
 5312SOL    HW117833   3.335   4.962   8.205
 5312SOL    HW217834   3.266   5.077   8.134
 5313SOL     OW17835   9.154  12.229  13.896
 5313SOL    HW117836   9.088  12.178  13.942
 5313SOL    HW217837   9.224  12.241  13.960
 5314SOL     OW17838   6.793  13.787   5.286
 5314SOL    HW117839   6.808  13.722   5.217
 5314SOL    HW217840   6.825  13.744   5.366
 5315SOL     OW17841   3.429  10.847   4.429
 5315SOL    HW117842   3.468  10.776   4.479
 5315SOL    HW217843   3.494  10.917   4.430
 5316SOL     OW17844   1.700   4.162   6.093
 5316SOL    HW117845   1.742   4.190   6.011
 5316SOL    HW217846   1.765   4.107   6.135
 5317SOL     OW17847  14.682  11.970  13.427
 5317SOL    HW117848  14.728  11.909  13.484
 5317SOL    HW217849  14.681  12.052  13.475
 5318SOL     OW17850   9.651  12.613   4.999
 5318SOL    HW117851   9.628  12.524   4.972
 5318SOL    HW217852   9.607  12.669   4.935
 5319SOL     OW17853   8.394  14.245   1.665
 5319SOL    HW117854   8.330  14.195   1.614
 5319SOL    HW217855   8.363  14.239   1.755
 5320SOL     OW17856   0.961   7.789   9.859
 5320SOL    HW117857   0.877   7.749   9.880
 5320SOL    HW217858   0.941   7.853   9.792
 5321SOL     OW17859  12.174   2.228   1.891
 5321SOL    HW117860  12.201   2.177   1.967
 5321SOL    HW217861  12.137   2.164   1.831
 5322SOL     OW17862   9.386   8.776   3.411
 5322SOL    HW117863   9.427   8.839   3.352
 5322SOL    HW217864   9.358   8.828   3.486
 5323SOL     OW17865   8.716  13.223   8.890
 5323SOL    HW117866   8.626  13.210   8.860
 5323SOL    HW217867   8.707  13.280   8.967
 5324SOL     OW17868   4.872   0.794  14.272
 5324SOL    HW117869   4.934   0.722  14.285
 5324SOL    HW217870   4.925   0.864  14.233
 5325SOL     OW17871  10.718  12.635  11.092
 5325SOL    HW117872  10.750  12.618  11.181
 5325SOL    HW217873  10.711  12.730  11.087
 5326SOL     OW17874  13.499   8.662   6.216
 5326SOL    HW117875  13.549   8.701   6.287
 5326SOL    HW217876  13.530   8.705   6.137
 5327SOL     OW17877   5.704   6.328   6.231
 5327SOL    HW117878   5.621   6.349   6.188
 5327SOL    HW217879   5.714   6.233   6.220
 5328SOL     OW17880   2.753   2.037   2.167
 5328SOL    HW117881   2.675   2.001   2.124
 5328SOL    HW217882   2.825   1.986   2.133
 5329SOL     OW17883   2.548  11.407   1.541
 5329SOL    HW117884   2.584  11.399   1.452
 5329SOL    HW217885   2.616  11.369   1.597
 5330SOL     OW17886  12.211   6.651   6.384
 5330SOL    HW117887  12.183   6.663   6.475
 5330SOL    HW217888  12.237   6.739   6.355
 5331SOL     OW17889   2.945   2.707   2.487
 5331SOL    HW117890   2.936   2.703   2.582
 5331SOL    HW217891   2.882   2.642   2.455
 5332SOL     OW17892   6.600   0.534   1.021
 5332SOL    HW117893   6.612   0.614   1.072
 5332SOL    HW217894   6.585   0.466   1.086
 5333SOL     OW17895   7.313   2.137  11.973
 5333SOL    HW117896   7.360   2.145  12.056
 5333SOL    HW217897   7.234   2.190  11.985
 5334SOL     OW17898   6.524   8.146   6.228
 5334SOL    HW117899   6.488   8.091   6.297
 5334SOL    HW217900   6.461   8.139   6.156
 5335SOL     OW17901   9.725   6.465  10.332
 5335SOL    HW117902   9.715   6.373  10.307
 5335SOL    HW217903   9.796   6.498  10.277
 5336SOL     OW17904   1.983  12.171   6.849
 5336SOL    HW117905   1.962  12.264   6.849
 5336SOL    HW217906   1.898  12.127   6.851
 5337SOL     OW17907  14.230  12.084   9.940
 5337SOL    HW117908  14.281  12.032   9.879
 5337SOL    HW217909  14.266  12.172   9.933
 5338SOL     OW17910   4.714   8.015  13.149
 5338SOL    HW117911   4.745   8.082  13.210
 5338SOL    HW217912   4.629   8.047  13.120
 5339SOL     OW17913  13.733   6.526   9.898
 5339SOL    HW117914  13.727   6.453   9.960
 5339SOL    HW217915  13.656   6.517   9.842
 5340SOL     OW17916  13.193  12.901   8.613
 5340SOL    HW117917  13.276  12.882   8.657
 5340SOL    HW217918  13.126  12.882   8.678
 5341SOL     OW17919   0.604   2.238   1.916
 5341SOL    HW117920   0.570   2.318   1.956
 5341SOL    HW217921   0.532   2.206   1.861
 5342SOL     OW17922   8.228   4.461  10.316
 5342SOL    HW117923   8.289   4.394  10.283
 5342SOL    HW217924   8.230   4.530  10.250
 5343SOL     OW17925   4.210   5.812  14.227
 5343SOL    HW117926   4.134   5.796  14.171
 5343SOL    HW217927   4.285   5.782  14.175
 5344SOL     OW17928   8.858   1.381   7.211
 5344SOL    HW117929   8.850   1.374   7.306
 5344SOL    HW217930   8.938   1.332   7.190
 5345SOL     OW17931   0.360   0.076  13.066
 5345SOL    HW117932   0.408   0.150  13.028
 5345SOL    HW217933   0.268   0.101  13.058
 5346SOL     OW17934   7.245  13.704   7.538
 5346SOL    HW117935   7.319  13.676   7.593
 5346SOL    HW217936   7.269  13.677   7.449
 5347SOL     OW17937   1.983   8.522   5.266
 5347SOL    HW117938   2.030   8.439   5.257
 5347SOL    HW217939   1.906   8.500   5.317
 5348SOL     OW17940  13.838   1.775  13.749
 5348SOL    HW117941  13.901   1.704  13.740
 5348SOL    HW217942  13.868   1.824  13.826
 5349SOL     OW17943   6.744  11.736  14.448
 5349SOL    HW117944   6.719  11.681  14.522
 5349SOL    HW217945   6.665  11.787  14.429
 5350SOL     OW17946  11.165   6.017   0.238
 5350SOL    HW117947  11.165   5.921   0.234
 5350SOL    HW217948  11.237   6.043   0.180
 5351SOL     OW17949   4.455   8.212   6.447
 5351SOL    HW117950   4.547   8.233   6.431
 5351SOL    HW217951   4.452   8.117   6.448
 5352SOL     OW17952   0.541   5.793   8.137
 5352SOL    HW117953   0.473   5.777   8.204
 5352SOL    HW217954   0.578   5.878   8.160
 5353SOL     OW17955   1.866   3.889   1.354
 5353SOL    HW117956   1.958   3.865   1.340
 5353SOL    HW217957   1.848   3.955   1.287
 5354SOL     OW17958   6.406   2.840   0.556
 5354SOL    HW117959   6.418   2.772   0.490
 5354SOL    HW217960   6.491   2.883   0.562
 5355SOL     OW17961   8.580   5.712  11.084
 5355SOL    HW117962   8.541   5.790  11.045
 5355SOL    HW217963   8.520   5.641  11.060
 5356SOL     OW17964   5.190  12.144   8.627
 5356SOL    HW117965   5.283  12.120   8.619
 5356SOL    HW217966   5.189  12.208   8.698
 5357SOL     OW17967   9.887  11.087   2.648
 5357SOL    HW117968   9.818  11.121   2.705
 5357SOL    HW217969   9.843  11.070   2.564
 5358SOL     OW17970   7.623  12.070  11.078
 5358SOL    HW117971   7.697  12.078  11.138
 5358SOL    HW217972   7.663  12.054  10.993
 5359SOL     OW17973  13.966   5.289   2.387
 5359SOL    HW117974  13.917   5.240   2.321
 5359SOL    HW217975  13.901   5.347   2.428
 5360SOL     OW17976   7.494  12.314   5.413
 5360SOL    HW117977   7.512  12.299   5.506
 5360SOL    HW217978   7.439  12.240   5.388
 5361SOL     OW17979   7.343   2.992   3.570
 5361SOL    HW117980   7.400   2.978   3.494
 5361SOL    HW217981   7.258   3.012   3.532
 5362SOL     OW17982   5.338   2.432   7.587
 5362SOL    HW117983   5.347   2.342   7.617
 5362SOL    HW217984   5.299   2.478   7.661
 5363SOL     OW17985  12.114  12.630   7.440
 5363SOL    HW117986  12.112  12.680   7.358
 5363SOL    HW217987  12.105  12.539   7.413
 5364SOL     OW17988  12.564  11.693  10.550
 5364SOL    HW117989  12.489  11.634  10.544
 5364SOL    HW217990  12.630  11.644  10.598
 5365SOL     OW17991   7.725   0.602   7.844
 5365SOL    HW117992   7.810   0.619   7.884
 5365SOL    HW217993   7.718   0.507   7.841
 5366SOL     OW17994   5.448  13.723   7.184
 5366SOL    HW117995   5.506  13.767   7.122
 5366SOL    HW217996   5.479  13.633   7.187
 5367SOL     OW17997   2.766  11.364   4.775
 5367SOL    HW117998   2.833  11.433   4.777
 5367SOL    HW217999   2.791  11.308   4.702
 5368SOL     OW18000   5.688   3.192  11.140
 5368SOL    HW118001   5.781   3.176  11.121
 5368SOL    HW218002   5.680   3.287  11.148
 5369SOL     OW18003  12.429   1.871  14.693
 5369SOL    HW118004  12.337   1.855  14.673
 5369SOL    HW218005  12.428   1.926  14.771
 5370SOL     OW18006   0.979   8.113  10.999
 5370SOL    HW118007   1.029   8.039  11.034
 5370SOL    HW218008   0.912   8.072  10.944
 5371SOL     OW18009   7.161   1.299   1.718
 5371SOL    HW118010   7.199   1.290   1.630
 5371SOL    HW218011   7.125   1.388   1.720
 5372SOL     OW18012   3.457   6.741   4.417
 5372SOL    HW118013   3.484   6.679   4.348
 5372SOL    HW218014   3.421   6.685   4.485
 5373SOL     OW18015   4.161  12.005  11.809
 5373SOL    HW118016   4.209  11.980  11.730
 5373SOL    HW218017   4.223  11.992  11.880
 5374SOL     OW18018  14.114   4.767   9.812
 5374SOL    HW118019  14.174   4.842   9.812
 5374SOL    HW218020  14.161   4.698   9.766
 5375SOL     OW18021  11.886   1.197  13.031
 5375SOL    HW118022  11.820   1.164  12.969
 5375SOL    HW218023  11.955   1.131  13.029
 5376SOL     OW18024  10.183   9.217   0.790
 5376SOL    HW118025  10.197   9.143   0.731
 5376SOL    HW218026  10.269   9.233   0.829
 5377SOL     OW18027  10.879  13.929  14.821
 5377SOL    HW118028  10.836  13.845  14.839
 5377SOL    HW218029  10.827  13.967  14.750
 5378SOL     OW18030   5.217  10.671   1.781
 5378SOL    HW118031   5.284  10.641   1.720
 5378SOL    HW218032   5.224  10.766   1.780
 5379SOL     OW18033  14.428   8.898   2.383
 5379SOL    HW118034  14.373   8.841   2.329
 5379SOL    HW218035  14.516   8.888   2.346
 5380SOL     OW18036  11.606  11.986   4.271
 5380SOL    HW118037  11.605  12.034   4.353
 5380SOL    HW218038  11.674  12.028   4.219
 5381SOL     OW18039  13.386  13.000  13.130
 5381SOL    HW118040  13.374  12.918  13.083
 5381SOL    HW218041  13.368  12.979  13.222
 5382SOL     OW18042  11.992  14.520  11.625
 5382SOL    HW118043  12.018  14.529  11.533
 5382SOL    HW218044  11.900  14.548  11.627
 5383SOL     OW18045   6.256   3.068  13.560
 5383SOL    HW118046   6.193   3.084  13.490
 5383SOL    HW218047   6.202   3.053  13.638
 5384SOL     OW18048  10.792   8.798  10.873
 5384SOL    HW118049  10.800   8.885  10.911
 5384SOL    HW218050  10.780   8.814  10.779
 5385SOL     OW18051  10.598   5.942  14.195
 5385SOL    HW118052  10.573   6.000  14.123
 5385SOL    HW218053  10.588   5.854  14.160
 5386SOL     OW18054   7.848   3.563   0.459
 5386SOL    HW118055   7.803   3.500   0.402
 5386SOL    HW218056   7.829   3.533   0.548
 5387SOL     OW18057   0.768   8.679   5.055
 5387SOL    HW118058   0.835   8.669   4.987
 5387SOL    HW218059   0.716   8.598   5.050
 5388SOL     OW18060  10.263   8.185   3.115
 5388SOL    HW118061  10.240   8.199   3.207
 5388SOL    HW218062  10.358   8.191   3.113
 5389SOL     OW18063  13.049  12.990  10.750
 5389SOL    HW118064  13.127  13.038  10.779
 5389SOL    HW218065  12.990  13.057  10.716
 5390SOL     OW18066  10.108   1.173   2.436
 5390SOL    HW118067  10.057   1.158   2.515
 5390SOL    HW218068  10.171   1.241   2.459
 5391SOL     OW18069   2.591   7.444   8.181
 5391SOL    HW118070   2.648   7.376   8.144
 5391SOL    HW218071   2.650   7.515   8.206
 5392SOL     OW18072   5.062  12.445  11.419
 5392SOL    HW118073   4.989  12.483  11.370
 5392SOL    HW218074   5.127  12.424  11.353
 5393SOL     OW18075   6.779   7.777   8.572
 5393SOL    HW118076   6.838   7.732   8.633
 5393SOL    HW218077   6.836   7.809   8.503
 5394SOL     OW18078  13.563  12.345   4.357
 5394SOL    HW118079  13.557  12.410   4.427
 5394SOL    HW218080  13.526  12.389   4.280
 5395SOL     OW18081   5.335  13.857   7.704
 5395SOL    HW118082   5.278  13.846   7.628
 5395SOL    HW218083   5.418  13.817   7.678
 5396SOL     OW18084   3.778  10.223   6.026
 5396SOL    HW118085   3.832  10.146   6.011
 5396SOL    HW218086   3.695  10.189   6.060
 5397SOL     OW18087   2.914  11.537  12.701
 5397SOL    HW118088   2.938  11.573  12.787
 5397SOL    HW218089   2.962  11.592  12.638
 5398SOL     OW18090  11.719  14.414   4.284
 5398SOL    HW118091  11.800  14.463   4.302
 5398SOL    HW218092  11.691  14.383   4.370
 5399SOL     OW18093   4.139   2.342   0.566
 5399SOL    HW118094   4.185   2.351   0.650
 5399SOL    HW218095   4.207   2.318   0.503
 5400SOL     OW18096  10.190   3.583   3.579
 5400SOL    HW118097  10.184   3.676   3.559
 5400SOL    HW218098  10.100   3.555   3.593
 5401SOL     OW18099   3.212   2.299  11.900
 5401SOL    HW118100   3.136   2.314  11.956
 5401SOL    HW218101   3.207   2.206  11.878
 5402SOL     OW18102   8.773  11.492   7.899
 5402SOL    HW118103   8.794  11.516   7.809
 5402SOL    HW218104   8.683  11.459   7.895
 5403SOL     OW18105  11.990   1.815   7.111
 5403SOL    HW118106  11.950   1.809   7.197
 5403SOL    HW218107  11.927   1.773   7.052
 5404SOL     OW18108   9.810  10.073   5.051
 5404SOL    HW118109   9.865  10.004   5.087
 5404SOL    HW218110   9.848  10.091   4.965
 5405SOL     OW18111  12.383  13.693   0.835
 5405SOL    HW118112  12.302  13.715   0.789
 5405SOL    HW218113  12.379  13.744   0.916
 5406SOL     OW18114   5.626   3.874   0.164
 5406SOL    HW118115   5.712   3.897   0.199
 5406SOL    HW218116   5.587   3.819   0.233
 5407SOL     OW18117   4.276  11.930   9.765
 5407SOL    HW118118   4.306  11.910   9.676
 5407SOL    HW218119   4.322  11.867   9.820
 5408SOL     OW18120   4.711  10.792   6.865
 5408SOL    HW118121   4.787  10.742   6.834
 5408SOL    HW218122   4.697  10.859   6.798
 5409SOL     OW18123   7.157  13.561   9.877
 5409SOL    HW118124   7.205  13.611   9.811
 5409SOL    HW218125   7.184  13.599   9.960
 5410SOL     OW18126   0.368   4.336   1.953
 5410SOL    HW118127   0.288   4.289   1.931
 5410SOL    HW218128   0.424   4.324   1.876
 5411SOL     OW18129   9.940   9.581  12.459
 5411SOL    HW118130   9.899   9.643  12.399
 5411SOL    HW218131   9.890   9.588  12.540
 5412SOL     OW18132   6.552  14.233  12.533
 5412SOL    HW118133   6.471  14.278  12.508
 5412SOL    HW218134   6.593  14.208  12.450
 5413SOL     OW18135   9.286  11.410   5.666
 5413SOL    HW118136   9.259  11.414   5.758
 5413SOL    HW218137   9.236  11.481   5.624
 5414SOL     OW18138  12.640  10.210   0.612
 5414SOL    HW118139  12.632  10.302   0.638
 5414SOL    HW218140  12.705  10.174   0.673
 5415SOL     OW18141   6.642  14.136  10.889
 5415SOL    HW118142   6.696  14.205  10.928
 5415SOL    HW218143   6.600  14.178  10.814
 5416SOL     OW18144   8.971   7.091   7.208
 5416SOL    HW118145   9.063   7.114   7.204
 5416SOL    HW218146   8.947   7.101   7.300
 5417SOL     OW18147   6.995  11.050  14.669
 5417SOL    HW118148   7.087  11.064  14.649
 5417SOL    HW218149   6.964  11.133  14.704
 5418SOL     OW18150  13.391  12.480  12.579
 5418SOL    HW118151  13.480  12.466  12.547
 5418SOL    HW218152  13.355  12.547  12.522
 5419SOL     OW18153   6.901  14.370   4.207
 5419SOL    HW118154   6.850  14.435   4.158
 5419SOL    HW218155   6.987  14.371   4.165
 5420SOL     OW18156   4.632   3.803   7.416
 5420SOL    HW118157   4.677   3.882   7.385
 5420SOL    HW218158   4.562   3.789   7.351
 5421SOL     OW18159   5.812  13.162   3.915
 5421SOL    HW118160   5.747  13.185   3.981
 5421SOL    HW218161   5.882  13.118   3.963
 5422SOL     OW18162   7.103   2.822   6.197
 5422SOL    HW118163   7.138   2.776   6.272
 5422SOL    HW218164   7.136   2.774   6.121
 5423SOL     OW18165  13.164  12.268   6.929
 5423SOL    HW118166  13.096  12.250   6.995
 5423SOL    HW218167  13.232  12.202   6.946
 5424SOL     OW18168  13.906   4.728   5.611
 5424SOL    HW118169  13.993   4.764   5.630
 5424SOL    HW218170  13.922   4.635   5.595
 5425SOL     OW18171   5.195   4.706   2.602
 5425SOL    HW118172   5.257   4.711   2.529
 5425SOL    HW218173   5.247   4.675   2.676
 5426SOL     OW18174   7.774   6.585  14.157
 5426SOL    HW118175   7.748   6.653  14.218
 5426SOL    HW218176   7.866   6.568  14.178
 5427SOL     OW18177  13.554   1.575   3.606
 5427SOL    HW118178  13.530   1.499   3.553
 5427SOL    HW218179  13.501   1.647   3.569
 5428SOL     OW18180   5.922   3.457  14.218
 5428SOL    HW118181   5.940   3.410  14.299
 5428SOL    HW218182   5.949   3.547  14.236
 5429SOL     OW18183   4.359  10.212   4.711
 5429SOL    HW118184   4.424  10.205   4.780
 5429SOL    HW218185   4.359  10.126   4.669
 5430SOL     OW18186   9.525  12.456  12.681
 5430SOL    HW118187   9.455  12.419  12.628
 5430SOL    HW218188   9.578  12.507  12.619
 5431SOL     OW18189  10.253  11.997   3.949
 5431SOL    HW118190  10.164  11.995   3.984
 5431SOL    HW218191  10.270  12.089   3.930
 5432SOL     OW18192   7.923   1.701   4.268
 5432SOL    HW118193   7.972   1.712   4.349
 5432SOL    HW218194   7.858   1.634   4.287
 5433SOL     OW18195  14.493   7.232   3.905
 5433SOL    HW118196  14.561   7.285   3.947
 5433SOL    HW218197  14.535   7.146   3.891
 5434SOL     OW18198  13.849   7.307  10.322
 5434SOL    HW118199  13.867   7.213  10.320
 5434SOL    HW218200  13.784   7.317  10.392
 5435SOL     OW18201   7.299  11.178   5.536
 5435SOL    HW118202   7.214  11.154   5.500
 5435SOL    HW218203   7.290  11.166   5.631
 5436SOL     OW18204  10.387   9.417   1.633
 5436SOL    HW118205  10.382   9.477   1.558
 5436SOL    HW218206  10.347   9.336   1.601
 5437SOL     OW18207   7.805   1.540  10.547
 5437SOL    HW118208   7.711   1.541  10.566
 5437SOL    HW218209   7.830   1.632  10.544
 5438SOL     OW18210  11.451   3.967   7.595
 5438SOL    HW118211  11.526   3.950   7.538
 5438SOL    HW218212  11.406   3.883   7.601
 5439SOL     OW18213  12.272   9.118   4.021
 5439SOL    HW118214  12.319   9.182   4.074
 5439SOL    HW218215  12.207   9.169   3.973
 5440SOL     OW18216   3.146  12.139   5.693
 5440SOL    HW118217   3.179  12.120   5.781
 5440SOL    HW218218   3.195  12.081   5.635
 5441SOL     OW18219   7.982   5.385   8.494
 5441SOL    HW118220   7.983   5.440   8.572
 5441SOL    HW218221   7.957   5.298   8.525
 5442SOL     OW18222   5.083   0.142   2.135
 5442SOL    HW118223   5.035   0.179   2.209
 5442SOL    HW218224   5.175   0.152   2.158
 5443SOL     OW18225   5.338   8.790   2.431
 5443SOL    HW118226   5.338   8.742   2.514
 5443SOL    HW218227   5.429   8.788   2.402
 5444SOL     OW18228   5.625   7.402   4.683
 5444SOL    HW118229   5.650   7.310   4.687
 5444SOL    HW218230   5.683   7.446   4.746
 5445SOL     OW18231   4.237   0.961  10.949
 5445SOL    HW118232   4.289   0.947  10.870
 5445SOL    HW218233   4.159   1.007  10.919
 5446SOL     OW18234   7.772   1.245   8.906
 5446SOL    HW118235   7.702   1.250   8.841
 5446SOL    HW218236   7.821   1.166   8.883
 5447SOL     OW18237   8.862   9.738  11.237
 5447SOL    HW118238   8.787   9.780  11.278
 5447SOL    HW218239   8.843   9.740  11.143
 5448SOL     OW18240  13.753   0.842   3.942
 5448SOL    HW118241  13.753   0.937   3.927
 5448SOL    HW218242  13.736   0.804   3.856
 5449SOL     OW18243   4.547  11.247   9.475
 5449SOL    HW118244   4.455  11.264   9.457
 5449SOL    HW218245   4.548  11.162   9.519
 5450SOL     OW18246  10.378   9.627   1.435
 5450SOL    HW118247  10.290   9.602   1.408
 5450SOL    HW218248  10.429   9.626   1.354
 5451SOL     OW18249   8.837   5.061   6.276
 5451SOL    HW118250   8.915   5.023   6.318
 5451SOL    HW218251   8.841   5.154   6.297
 5452SOL     OW18252  11.850   2.764   6.987
 5452SOL    HW118253  11.770   2.798   6.948
 5452SOL    HW218254  11.842   2.786   7.080
 5453SOL     OW18255  13.388   2.005   2.931
 5453SOL    HW118256  13.437   2.045   2.859
 5453SOL    HW218257  13.301   2.046   2.927
 5454SOL     OW18258  12.192   6.272  14.537
 5454SOL    HW118259  12.224   6.342  14.594
 5454SOL    HW218260  12.133   6.316  14.475
 5455SOL     OW18261   6.697   9.654  14.663
 5455SOL    HW118262   6.745   9.735  14.678
 5455SOL    HW218263   6.628   9.654  14.729
 5456SOL     OW18264   8.515  10.936   6.603
 5456SOL    HW118265   8.602  10.896   6.608
 5456SOL    HW218266   8.454  10.863   6.621
 5457SOL     OW18267  11.190  10.144  13.206
 5457SOL    HW118268  11.161  10.171  13.118
 5457SOL    HW218269  11.112  10.157  13.261
 5458SOL     OW18270  10.874   6.307   6.615
 5458SOL    HW118271  10.908   6.352   6.538
 5458SOL    HW218272  10.780   6.324   6.614
 5459SOL     OW18273   7.551   3.492  13.823
 5459SOL    HW118274   7.558   3.578  13.781
 5459SOL    HW218275   7.544   3.512  13.917
 5460SOL     OW18276   5.147  13.932   0.333
 5460SOL    HW118277   5.209  14.001   0.357
 5460SOL    HW218278   5.181  13.853   0.375
 5461SOL     OW18279   4.816   2.143   7.270
 5461SOL    HW118280   4.905   2.109   7.258
 5461SOL    HW218281   4.763   2.095   7.206
 5462SOL     OW18282   1.026  12.135  12.463
 5462SOL    HW118283   1.052  12.079  12.537
 5462SOL    HW218284   1.106  12.145  12.411
 5463SOL     OW18285   8.582  12.802  13.768
 5463SOL    HW118286   8.644  12.785  13.839
 5463SOL    HW218287   8.496  12.790  13.808
 5464SOL     OW18288   2.693   8.662   4.375
 5464SOL    HW118289   2.713   8.752   4.349
 5464SOL    HW218290   2.763   8.610   4.336
 5465SOL     OW18291   2.321   2.011  12.338
 5465SOL    HW118292   2.348   1.922  12.360
 5465SOL    HW218293   2.388   2.042  12.276
 5466SOL     OW18294   7.466  14.045  12.778
 5466SOL    HW118295   7.379  14.014  12.803
 5466SOL    HW218296   7.457  14.140  12.775
 5467SOL     OW18297   6.031   8.210  14.113
 5467SOL    HW118298   6.054   8.164  14.195
 5467SOL    HW218299   6.113   8.215  14.065
 5468SOL     OW18300   3.697  10.722   5.765
 5468SOL    HW118301   3.626  10.782   5.744
 5468SOL    HW218302   3.711  10.734   5.859
 5469SOL     OW18303  11.646   4.392   5.145
 5469SOL    HW118304  11.711   4.450   5.184
 5469SOL    HW218305  11.666   4.394   5.051
 5470SOL     OW18306   0.007   6.491   2.943
 5470SOL    HW118307  14.850   6.432   3.013
 5470SOL    HW218308   0.100   6.505   2.957
 5471SOL     OW18309   8.938   5.631   9.172
 5471SOL    HW118310   8.865   5.592   9.220
 5471SOL    HW218311   8.944   5.720   9.205
 5472SOL     OW18312  12.230   0.347   2.304
 5472SOL    HW118313  12.146   0.303   2.289
 5472SOL    HW218314  12.273   0.293   2.371
 5473SOL     OW18315  13.995   2.520   3.666
 5473SOL    HW118316  13.922   2.560   3.618
 5473SOL    HW218317  14.073   2.560   3.628
 5474SOL     OW18318   7.222  11.715   8.407
 5474SOL    HW118319   7.158  11.759   8.352
 5474SOL    HW218320   7.223  11.624   8.376
 5475SOL     OW18321   6.580   2.798   6.818
 5475SOL    HW118322   6.670   2.798   6.851
 5475SOL    HW218323   6.576   2.874   6.760
 5476SOL     OW18324   1.992   5.129  13.761
 5476SOL    HW118325   2.021   5.044  13.793
 5476SOL    HW218326   1.949   5.170  13.836
 5477SOL     OW18327   3.717  13.743   8.436
 5477SOL    HW118328   3.812  13.753   8.448
 5477SOL    HW218329   3.699  13.780   8.349
 5478SOL     OW18330  12.194   6.930   6.779
 5478SOL    HW118331  12.281   6.965   6.758
 5478SOL    HW218332  12.199   6.909   6.872
 5479SOL     OW18333   1.069   1.066   9.525
 5479SOL    HW118334   1.113   1.068   9.440
 5479SOL    HW218335   0.998   1.130   9.518
 5480SOL     OW18336   4.179  13.308   9.799
 5480SOL    HW118337   4.141  13.245   9.738
 5480SOL    HW218338   4.272  13.311   9.775
 5481SOL     OW18339   6.990   8.762   2.772
 5481SOL    HW118340   7.012   8.855   2.781
 5481SOL    HW218341   7.006   8.726   2.859
 5482SOL     OW18342   2.931  11.609  11.740
 5482SOL    HW118343   2.943  11.614  11.645
 5482SOL    HW218344   2.913  11.517  11.757
 5483SOL     OW18345   3.782   5.532   7.371
 5483SOL    HW118346   3.805   5.474   7.444
 5483SOL    HW218347   3.725   5.599   7.411
 5484SOL     OW18348   3.870   0.239   1.692
 5484SOL    HW118349   3.939   0.172   1.692
 5484SOL    HW218350   3.796   0.196   1.647
 5485SOL     OW18351   6.419   8.529   1.495
 5485SOL    HW118352   6.439   8.544   1.587
 5485SOL    HW218353   6.396   8.616   1.461
 5486SOL     OW18354  13.445   6.375   1.769
 5486SOL    HW118355  13.487   6.422   1.841
 5486SOL    HW218356  13.360   6.349   1.803
 5487SOL     OW18357  11.797   8.020   6.826
 5487SOL    HW118358  11.789   8.068   6.744
 5487SOL    HW218359  11.879   8.052   6.864
 5488SOL     OW18360   1.233   3.583   4.195
 5488SOL    HW118361   1.240   3.647   4.123
 5488SOL    HW218362   1.162   3.525   4.168
 5489SOL     OW18363   1.316  11.573   5.710
 5489SOL    HW118364   1.313  11.568   5.806
 5489SOL    HW218365   1.270  11.654   5.689
 5490SOL     OW18366   3.175  12.962   1.327
 5490SOL    HW118367   3.146  12.876   1.297
 5490SOL    HW218368   3.110  12.988   1.392
 5491SOL     OW18369  11.627   7.381   1.367
 5491SOL    HW118370  11.647   7.400   1.459
 5491SOL    HW218371  11.578   7.299   1.370
 5492SOL     OW18372  13.148   3.664  12.130
 5492SOL    HW118373  13.134   3.757  12.116
 5492SOL    HW218374  13.063   3.624  12.116
 5493SOL     OW18375  10.375   1.359   1.873
 5493SOL    HW118376  10.315   1.367   1.798
 5493SOL    HW218377  10.345   1.427   1.934
 5494SOL     OW18378   9.719  14.388  13.463
 5494SOL    HW118379   9.644  14.329  13.456
 5494SOL    HW218380   9.680  14.476  13.467
 5495SOL     OW18381   2.896   4.850  14.524
 5495SOL    HW118382   2.956   4.775  14.513
 5495SOL    HW218383   2.896   4.893  14.439
 5496SOL     OW18384   4.015   5.891   5.336
 5496SOL    HW118385   4.059   5.899   5.251
 5496SOL    HW218386   4.080   5.924   5.399
 5497SOL     OW18387  11.976   7.090   6.608
 5497SOL    HW118388  12.014   7.006   6.634
 5497SOL    HW218389  12.052   7.146   6.590
 5498SOL     OW18390  12.957  12.602   3.367
 5498SOL    HW118391  13.040  12.553   3.363
 5498SOL    HW218392  12.967  12.672   3.302
 5499SOL     OW18393   0.303   2.464   4.538
 5499SOL    HW118394   0.305   2.559   4.553
 5499SOL    HW218395   0.336   2.453   4.449
 5500SOL     OW18396  10.289   3.265   7.519
 5500SOL    HW118397  10.372   3.243   7.560
 5500SOL    HW218398  10.311   3.332   7.454
 5501SOL     OW18399   7.327   8.513   6.869
 5501SOL    HW118400   7.356   8.547   6.954
 5501SOL    HW218401   7.238   8.481   6.886
 5502SOL     OW18402   6.715   0.006   2.285
 5502SOL    HW118403   6.680   0.057   2.211
 5502SOL    HW218404   6.801  14.847   2.256
 5503SOL     OW18405   4.399   5.674   1.920
 5503SOL    HW118406   4.351   5.646   1.998
 5503SOL    HW218407   4.431   5.593   1.881
 5504SOL     OW18408  13.243  13.568   1.424
 5504SOL    HW118409  13.298  13.643   1.445
 5504SOL    HW218410  13.183  13.601   1.357
 5505SOL     OW18411  13.410   5.037   0.274
 5505SOL    HW118412  13.401   4.991   0.357
 5505SOL    HW218413  13.404   4.968   0.208
 5506SOL     OW18414   7.794   0.115  14.807
 5506SOL    HW118415   7.863   0.168  14.847
 5506SOL    HW218416   7.838   0.035  14.778
 5507SOL     OW18417   0.136   5.811   3.197
 5507SOL    HW118418   0.107   5.750   3.129
 5507SOL    HW218419   0.143   5.757   3.276
 5508SOL     OW18420   0.606   1.485   4.598
 5508SOL    HW118421   0.541   1.424   4.634
 5508SOL    HW218422   0.554   1.560   4.570
 5509SOL     OW18423   7.380   6.962   8.295
 5509SOL    HW118424   7.441   6.888   8.304
 5509SOL    HW218425   7.301   6.933   8.342
 5510SOL     OW18426   3.566   6.626   3.261
 5510SOL    HW118427   3.529   6.597   3.345
 5510SOL    HW218428   3.530   6.565   3.197
 5511SOL     OW18429  12.440   7.070   8.467
 5511SOL    HW118430  12.399   7.154   8.489
 5511SOL    HW218431  12.367   7.007   8.467
 5512SOL     OW18432   4.605   0.710   0.874
 5512SOL    HW118433   4.674   0.767   0.839
 5512SOL    HW218434   4.564   0.672   0.796
 5513SOL     OW18435   0.229   5.016  11.811
 5513SOL    HW118436   0.297   5.082  11.824
 5513SOL    HW218437   0.243   4.953  11.882
 5514SOL     OW18438   6.597   1.399   9.011
 5514SOL    HW118439   6.599   1.389   9.106
 5514SOL    HW218440   6.653   1.475   8.993
 5515SOL     OW18441   0.666   5.067   3.560
 5515SOL    HW118442   0.754   5.051   3.594
 5515SOL    HW218443   0.668   5.031   3.471
 5516SOL     OW18444  10.860  12.007  13.148
 5516SOL    HW118445  10.893  12.073  13.209
 5516SOL    HW218446  10.785  12.049  13.106
 5517SOL     OW18447   5.958  14.251  10.895
 5517SOL    HW118448   5.934  14.164  10.864
 5517SOL    HW218449   5.988  14.297  10.816
 5518SOL     OW18450   3.132   3.240   9.297
 5518SOL    HW118451   3.161   3.205   9.213
 5518SOL    HW218452   3.210   3.241   9.351
 5519SOL     OW18453   9.231   7.160   7.251
 5519SOL    HW118454   9.226   7.212   7.332
 5519SOL    HW218455   9.303   7.199   7.202
 5520SOL     OW18456  10.882   1.378   5.752
 5520SOL    HW118457  10.931   1.435   5.811
 5520SOL    HW218458  10.813   1.340   5.807
 5521SOL     OW18459  12.717  12.642   9.651
 5521SOL    HW118460  12.761  12.663   9.733
 5521SOL    HW218461  12.726  12.548   9.642
 5522SOL     OW18462   0.928  12.167   3.647
 5522SOL    HW118463   1.002  12.112   3.618
 5522SOL    HW218464   0.959  12.209   3.727
 5523SOL     OW18465   3.584  10.770  10.342
 5523SOL    HW118466   3.647  10.709  10.380
 5523SOL    HW218467   3.610  10.856  10.376
 5524SOL     OW18468  13.116   5.116   1.550
 5524SOL    HW118469  13.045   5.094   1.611
 5524SOL    HW218470  13.083   5.088   1.464
 5525SOL     OW18471  12.985   6.962  14.868
 5525SOL    HW118472  12.973   6.956  14.773
 5525SOL    HW218473  13.056   7.025   0.009
 5526SOL     OW18474  12.130   5.219  10.871
 5526SOL    HW118475  12.055   5.159  10.876
 5526SOL    HW218476  12.162   5.223  10.961
 5527SOL     OW18477   0.914   5.760  13.246
 5527SOL    HW118478   0.994   5.717  13.275
 5527SOL    HW218479   0.943   5.825  13.182
 5528SOL     OW18480   0.998  13.656  10.884
 5528SOL    HW118481   0.969  13.713  10.813
 5528SOL    HW218482   1.007  13.570  10.844
 5529SOL     OW18483  10.593   8.838   3.295
 5529SOL    HW118484  10.510   8.834   3.248
 5529SOL    HW218485  10.636   8.917   3.262
 5530SOL     OW18486   4.858   7.371   4.462
 5530SOL    HW118487   4.940   7.417   4.443
 5530SOL    HW218488   4.849   7.307   4.391
 5531SOL     OW18489   1.442   0.029   3.203
 5531SOL    HW118490   1.497   0.105   3.223
 5531SOL    HW218491   1.353   0.066   3.198
 5532SOL     OW18492   1.721  12.277   3.535
 5532SOL    HW118493   1.699  12.195   3.491
 5532SOL    HW218494   1.670  12.274   3.616
 5533SOL     OW18495   0.844  13.126  11.016
 5533SOL    HW118496   0.916  13.189  11.018
 5533SOL    HW218497   0.777  13.166  11.072
 5534SOL     OW18498  13.900   8.297   4.909
 5534SOL    HW118499  13.903   8.355   4.832
 5534SOL    HW218500  13.930   8.352   4.981
 5535SOL     OW18501   5.559   5.446   2.376
 5535SOL    HW118502   5.589   5.356   2.387
 5535SOL    HW218503   5.620   5.499   2.428
 5536SOL     OW18504   0.262   6.660   7.313
 5536SOL    HW118505   0.293   6.676   7.224
 5536SOL    HW218506   0.325   6.706   7.369
 5537SOL     OW18507   2.107  12.878   8.557
 5537SOL    HW118508   2.139  12.968   8.561
 5537SOL    HW218509   2.185  12.824   8.569
 5538SOL     OW18510   0.839   9.317   1.045
 5538SOL    HW118511   0.880   9.388   1.094
 5538SOL    HW218512   0.762   9.293   1.096
 5539SOL     OW18513   8.831  12.211  12.699
 5539SOL    HW118514   8.848  12.222  12.605
 5539SOL    HW218515   8.740  12.239  12.709
 5540SOL     OW18516  12.363   0.248   2.508
 5540SOL    HW118517  12.402   0.287   2.586
 5540SOL    HW218518  12.438   0.219   2.456
 5541SOL     OW18519   0.072   2.491  14.869
 5541SOL    HW118520   0.118   2.407   0.003
 5541SOL    HW218521  14.852   2.468  14.845
 5542SOL     OW18522   4.738  14.194   6.455
 5542SOL    HW118523   4.694  14.131   6.398
 5542SOL    HW218524   4.774  14.141   6.526
 5543SOL     OW18525   6.430  10.842   6.457
 5543SOL    HW118526   6.353  10.789   6.434
 5543SOL    HW218527   6.441  10.900   6.381
 5544SOL     OW18528  11.818  13.151   4.408
 5544SOL    HW118529  11.863  13.140   4.492
 5544SOL    HW218530  11.738  13.199   4.430
 5545SOL     OW18531  14.778  12.937   7.517
 5545SOL    HW118532  14.814  13.003   7.576
 5545SOL    HW218533  14.794  12.972   7.429
 5546SOL     OW18534   8.599   2.071   0.602
 5546SOL    HW118535   8.549   2.147   0.572
 5546SOL    HW218536   8.670   2.062   0.539
 5547SOL     OW18537  11.877   8.214  11.305
 5547SOL    HW118538  11.855   8.129  11.342
 5547SOL    HW218539  11.843   8.212  11.216
 5548SOL     OW18540  14.003   1.712   2.672
 5548SOL    HW118541  14.057   1.715   2.750
 5548SOL    HW218542  14.002   1.620   2.646
 5549SOL     OW18543   5.732  14.490  13.329
 5549SOL    HW118544   5.745  14.497  13.235
 5549SOL    HW218545   5.684  14.407  13.341
 5550SOL     OW18546   6.568   3.653  13.740
 5550SOL    HW118547   6.586   3.563  13.768
 5550SOL    HW218548   6.558   3.646  13.645
 5551SOL     OW18549   7.105  11.481   7.408
 5551SOL    HW118550   7.072  11.567   7.434
 5551SOL    HW218551   7.075  11.470   7.318
 5552SOL     OW18552   0.453  13.818  11.418
 5552SOL    HW118553   0.428  13.848  11.331
 5552SOL    HW218554   0.384  13.757  11.444
 5553SOL     OW18555   5.879   8.547   6.772
 5553SOL    HW118556   5.969   8.515   6.760
 5553SOL    HW218557   5.839   8.537   6.686
 5554SOL     OW18558   6.165   9.920  13.292
 5554SOL    HW118559   6.143  10.004  13.251
 5554SOL    HW218560   6.081   9.875  13.299
 5555SOL     OW18561   9.838   1.017  11.169
 5555SOL    HW118562   9.878   1.068  11.239
 5555SOL    HW218563   9.903   0.950  11.147
 5556SOL     OW18564  11.011  11.759  13.375
 5556SOL    HW118565  10.933  11.815  13.375
 5556SOL    HW218566  11.005  11.709  13.456
 5557SOL     OW18567   0.018   9.526  14.032
 5557SOL    HW118568  14.800   9.488  14.027
 5557SOL    HW218569   0.004   9.617  14.059
 5558SOL     OW18570   6.067   3.775  10.750
 5558SOL    HW118571   6.013   3.781  10.672
 5558SOL    HW218572   6.018   3.823  10.817
 5559SOL     OW18573   4.314   7.967   4.519
 5559SOL    HW118574   4.323   8.049   4.470
 5559SOL    HW218575   4.260   7.990   4.595
 5560SOL     OW18576  12.558   7.391   5.858
 5560SOL    HW118577  12.556   7.467   5.917
 5560SOL    HW218578  12.637   7.405   5.805
 5561SOL     OW18579  11.204  14.510   0.546
 5561SOL    HW118580  11.239  14.528   0.633
 5561SOL    HW218581  11.111  14.532   0.552
 5562SOL     OW18582  12.063   2.005  14.421
 5562SOL    HW118583  12.158   2.009  14.427
 5562SOL    HW218584  12.038   1.934  14.479
 5563SOL     OW18585  10.688   0.514   7.460
 5563SOL    HW118586  10.596   0.533   7.442
 5563SOL    HW218587  10.716   0.584   7.520
 5564SOL     OW18588  10.977   2.713   2.829
 5564SOL    HW118589  10.962   2.665   2.747
 5564SOL    HW218590  10.909   2.680   2.888
 5565SOL     OW18591   6.351   7.573   0.528
 5565SOL    HW118592   6.328   7.630   0.455
 5565SOL    HW218593   6.440   7.545   0.510
 5566SOL     OW18594  11.666   1.605   3.860
 5566SOL    HW118595  11.575   1.593   3.886
 5566SOL    HW218596  11.663   1.674   3.793
 5567SOL     OW18597   7.595   5.434   7.316
 5567SOL    HW118598   7.667   5.470   7.369
 5567SOL    HW218599   7.613   5.340   7.313
 5568SOL     OW18600  11.010  13.263   7.462
 5568SOL    HW118601  11.076  13.315   7.417
 5568SOL    HW218602  10.956  13.327   7.508
 5569SOL     OW18603   4.979   9.121   6.457
 5569SOL    HW118604   5.016   9.077   6.533
 5569SOL    HW218605   4.953   9.050   6.399
 5570SOL     OW18606   9.032   3.279   3.486
 5570SOL    HW118607   9.062   3.230   3.563
 5570SOL    HW218608   9.022   3.368   3.517
 5571SOL     OW18609  10.285   2.410   3.662
 5571SOL    HW118610  10.235   2.487   3.638
 5571SOL    HW218611  10.365   2.444   3.702
 5572SOL     OW18612   9.012   4.845   5.155
 5572SOL    HW118613   9.020   4.897   5.075
 5572SOL    HW218614   8.945   4.779   5.134
 5573SOL     OW18615  12.182   7.042  14.212
 5573SOL    HW118616  12.095   7.071  14.185
 5573SOL    HW218617  12.241   7.107  14.175
 5574SOL     OW18618   4.451   1.855   5.885
 5574SOL    HW118619   4.458   1.774   5.936
 5574SOL    HW218620   4.363   1.888   5.904
 5575SOL     OW18621  10.111   6.546   0.578
 5575SOL    HW118622  10.038   6.484   0.580
 5575SOL    HW218623  10.189   6.492   0.568
 5576SOL     OW18624  11.970   9.386   0.535
 5576SOL    HW118625  11.995   9.443   0.462
 5576SOL    HW218626  11.914   9.319   0.496
 5577SOL     OW18627   6.263   7.433  13.357
 5577SOL    HW118628   6.354   7.448  13.382
 5577SOL    HW218629   6.236   7.357  13.410
 5578SOL     OW18630  13.021  13.973  10.198
 5578SOL    HW118631  13.005  13.917  10.123
 5578SOL    HW218632  13.106  14.013  10.181
 5579SOL     OW18633   1.929   8.897  14.468
 5579SOL    HW118634   1.911   8.864  14.556
 5579SOL    HW218635   2.009   8.852  14.442
 5580SOL     OW18636  11.027   8.937  12.373
 5580SOL    HW118637  10.966   9.010  12.380
 5580SOL    HW218638  11.112   8.978  12.358
 5581SOL     OW18639  10.436   4.211  12.433
 5581SOL    HW118640  10.421   4.299  12.467
 5581SOL    HW218641  10.526   4.191  12.457
 5582SOL     OW18642   4.393  14.864  11.908
 5582SOL    HW118643   4.423   0.070  11.857
 5582SOL    HW218644   4.304  14.847  11.876
 5583SOL     OW18645   8.461  10.400  13.260
 5583SOL    HW118646   8.487  10.382  13.350
 5583SOL    HW218647   8.443  10.314  13.222
 5584SOL     OW18648  12.125   0.920  10.596
 5584SOL    HW118649  12.078   1.003  10.593
 5584SOL    HW218650  12.097   0.873  10.518
 5585SOL     OW18651  14.265  10.710   7.935
 5585SOL    HW118652  14.216  10.770   7.879
 5585SOL    HW218653  14.305  10.765   8.001
 5586SOL     OW18654   9.495   2.427   9.749
 5586SOL    HW118655   9.469   2.436   9.841
 5586SOL    HW218656   9.518   2.516   9.722
 5587SOL     OW18657  10.084  12.091   5.715
 5587SOL    HW118658  10.009  12.032   5.722
 5587SOL    HW218659  10.047  12.178   5.732
 5588SOL     OW18660   9.886   1.467   6.818
 5588SOL    HW118661   9.867   1.468   6.724
 5588SOL    HW218662   9.834   1.538   6.855
 5589SOL     OW18663   5.851   9.071   6.718
 5589SOL    HW118664   5.765   9.111   6.704
 5589SOL    HW218665   5.834   8.977   6.722
 5590SOL     OW18666   4.372  11.590  12.875
 5590SOL    HW118667   4.431  11.641  12.821
 5590SOL    HW218668   4.422  11.573  12.955
 5591SOL     OW18669  11.748  12.109   0.313
 5591SOL    HW118670  11.696  12.065   0.245
 5591SOL    HW218671  11.700  12.093   0.394
 5592SOL     OW18672   1.563   8.713   7.032
 5592SOL    HW118673   1.543   8.704   7.126
 5592SOL    HW218674   1.615   8.636   7.012
 5593SOL     OW18675   7.098   9.614   0.441
 5593SOL    HW118676   7.183   9.638   0.404
 5593SOL    HW218677   7.120   9.555   0.513
 5594SOL     OW18678   8.739   5.799  10.482
 5594SOL    HW118679   8.816   5.786  10.538
 5594SOL    HW218680   8.731   5.894  10.475
 5595SOL     OW18681   1.747   5.393   0.745
 5595SOL    HW118682   1.817   5.449   0.712
 5595SOL    HW218683   1.774   5.367   0.832
 5596SOL     OW18684   8.065   1.308   2.221
 5596SOL    HW118685   8.053   1.215   2.237
 5596SOL    HW218686   8.113   1.312   2.138
 5597SOL     OW18687   7.864   4.377   6.841
 5597SOL    HW118688   7.817   4.449   6.798
 5597SOL    HW218689   7.893   4.321   6.770
 5598SOL     OW18690   3.497  11.887   1.753
 5598SOL    HW118691   3.508  11.816   1.816
 5598SOL    HW218692   3.567  11.874   1.689
 5599SOL     OW18693  14.426   6.112  11.169
 5599SOL    HW118694  14.391   6.192  11.130
 5599SOL    HW218695  14.504   6.141  11.216
 5600SOL     OW18696  13.363   9.475   4.714
 5600SOL    HW118697  13.340   9.473   4.807
 5600SOL    HW218698  13.391   9.386   4.694
 5601SOL     OW18699   7.828   0.234  13.373
 5601SOL    HW118700   7.894   0.213  13.307
 5601SOL    HW218701   7.775   0.155  13.380
 5602SOL     OW18702   9.138   5.234  11.279
 5602SOL    HW118703   9.079   5.182  11.224
 5602SOL    HW218704   9.225   5.197  11.262
 5603SOL     OW18705   2.394   8.648   9.825
 5603SOL    HW118706   2.324   8.604   9.777
 5603SOL    HW218707   2.349   8.711   9.882
 5604SOL     OW18708   4.189   8.677  10.538
 5604SOL    HW118709   4.205   8.710  10.626
 5604SOL    HW218710   4.170   8.584  10.550
 5605SOL     OW18711  10.535   4.350   6.948
 5605SOL    HW118712  10.451   4.307   6.965
 5605SOL    HW218713  10.521   4.441   6.974
 5606SOL     OW18714  13.674  10.562  13.602
 5606SOL    HW118715  13.580  10.583  13.600
 5606SOL    HW218716  13.693  10.550  13.695
 5607SOL     OW18717  10.263   4.551  13.778
 5607SOL    HW118718  10.319   4.473  13.786
 5607SOL    HW218719  10.315   4.622  13.815
 5608SOL     OW18720   4.626   4.308   8.879
 5608SOL    HW118721   4.631   4.221   8.919
 5608SOL    HW218722   4.714   4.326   8.847
 5609SOL     OW18723   8.028  12.906  10.878
 5609SOL    HW118724   7.937  12.914  10.849
 5609SOL    HW218725   8.022  12.910  10.974
 5610SOL     OW18726   3.792  13.848   5.097
 5610SOL    HW118727   3.835  13.916   5.148
 5610SOL    HW218728   3.701  13.848   5.128
 5611SOL     OW18729   3.802   2.421   5.326
 5611SOL    HW118730   3.811   2.513   5.353
 5611SOL    HW218731   3.722   2.392   5.370
 5612SOL     OW18732   6.691  11.534  13.470
 5612SOL    HW118733   6.703  11.569  13.558
 5612SOL    HW218734   6.609  11.484  13.475
 5613SOL     OW18735   2.236   4.463   6.016
 5613SOL    HW118736   2.279   4.480   5.931
 5613SOL    HW218737   2.243   4.547   6.062
 5614SOL     OW18738   3.579   9.855   4.832
 5614SOL    HW118739   3.483   9.864   4.837
 5614SOL    HW218740   3.600   9.792   4.900
 5615SOL     OW18741  12.991   0.461  11.918
 5615SOL    HW118742  12.969   0.371  11.943
 5615SOL    HW218743  13.021   0.454  11.827
 5616SOL     OW18744  11.576  10.084  11.434
 5616SOL    HW118745  11.483  10.100  11.447
 5616SOL    HW218746  11.617  10.170  11.444
 5617SOL     OW18747   6.078   9.075  11.985
 5617SOL    HW118748   6.024   9.054  12.061
 5617SOL    HW218749   6.020   9.125  11.928
 5618SOL     OW18750   1.292  14.362  11.374
 5618SOL    HW118751   1.314  14.278  11.334
 5618SOL    HW218752   1.311  14.426  11.306
 5619SOL     OW18753   2.369   8.310   5.421
 5619SOL    HW118754   2.455   8.275   5.398
 5619SOL    HW218755   2.359   8.290   5.514
 5620SOL     OW18756   0.498   1.366  10.138
 5620SOL    HW118757   0.495   1.430  10.067
 5620SOL    HW218758   0.414   1.321  10.133
 5621SOL     OW18759  11.567   8.536   8.688
 5621SOL    HW118760  11.535   8.453   8.724
 5621SOL    HW218761  11.640   8.510   8.631
 5622SOL     OW18762  12.825   4.691   6.585
 5622SOL    HW118763  12.842   4.643   6.666
 5622SOL    HW218764  12.889   4.761   6.585
 5623SOL     OW18765  10.758   9.957   4.692
 5623SOL    HW118766  10.682  10.009   4.716
 5623SOL    HW218767  10.815  10.018   4.645
 5624SOL     OW18768  13.905  14.215  13.822
 5624SOL    HW118769  13.910  14.246  13.732
 5624SOL    HW218770  13.919  14.294  13.875
 5625SOL     OW18771  10.671   2.745   2.813
 5625SOL    HW118772  10.698   2.665   2.768
 5625SOL    HW218773  10.695   2.816   2.753
 5626SOL     OW18774  11.785  14.813   7.495
 5626SOL    HW118775  11.804  14.730   7.452
 5626SOL    HW218776  11.839   0.007   7.448
 5627SOL     OW18777   1.913   2.785  13.207
 5627SOL    HW118778   1.957   2.840  13.272
 5627SOL    HW218779   1.826   2.824  13.199
 5628SOL     OW18780   3.581  13.682   3.851
 5628SOL    HW118781   3.564  13.675   3.757
 5628SOL    HW218782   3.604  13.774   3.864
 5629SOL     OW18783  12.073   8.353   8.972
 5629SOL    HW118784  11.992   8.309   8.946
 5629SOL    HW218785  12.077   8.341   9.067
 5630SOL     OW18786   6.435   8.600  11.931
 5630SOL    HW118787   6.357   8.548  11.952
 5630SOL    HW218788   6.501   8.570  11.992
 5631SOL     OW18789   1.117   1.942   2.651
 5631SOL    HW118790   1.152   1.853   2.656
 5631SOL    HW218791   1.159   1.980   2.574
 5632SOL     OW18792   5.214  13.616  14.011
 5632SOL    HW118793   5.186  13.532  13.974
 5632SOL    HW218794   5.133  13.657  14.041
 5633SOL     OW18795   9.544  12.433   7.693
 5633SOL    HW118796   9.533  12.417   7.599
 5633SOL    HW218797   9.633  12.403   7.711
 5634SOL     OW18798  11.509  13.163  14.326
 5634SOL    HW118799  11.444  13.233  14.316
 5634SOL    HW218800  11.582  13.191  14.270
 5635SOL     OW18801   7.248  12.530   5.169
 5635SOL    HW118802   7.249  12.607   5.226
 5635SOL    HW218803   7.340  12.507   5.158
 5636SOL     OW18804  13.152  12.825   4.564
 5636SOL    HW118805  13.209  12.894   4.599
 5636SOL    HW218806  13.198  12.792   4.488
 5637SOL     OW18807   3.510  10.953   3.958
 5637SOL    HW118808   3.591  10.978   4.002
 5637SOL    HW218809   3.517  10.992   3.871
 5638SOL     OW18810   3.974  14.741  13.835
 5638SOL    HW118811   4.009  14.749  13.746
 5638SOL    HW218812   3.880  14.729  13.822
 5639SOL     OW18813  10.021   0.994   3.063
 5639SOL    HW118814  10.080   0.956   3.128
 5639SOL    HW218815  10.074   1.001   2.983
 5640SOL     OW18816   9.921   8.872  11.402
 5640SOL    HW118817   9.877   8.954  11.425
 5640SOL    HW218818   9.929   8.824  11.484
 5641SOL     OW18819   6.190   4.693   1.875
 5641SOL    HW118820   6.192   4.646   1.792
 5641SOL    HW218821   6.196   4.625   1.941
 5642SOL     OW18822  14.448  13.130   8.060
 5642SOL    HW118823  14.524  13.185   8.043
 5642SOL    HW218824  14.478  13.067   8.126
 5643SOL     OW18825   5.882   4.167   2.376
 5643SOL    HW118826   5.919   4.092   2.329
 5643SOL    HW218827   5.787   4.152   2.372
 5644SOL     OW18828   3.085   6.314   7.750
 5644SOL    HW118829   3.101   6.400   7.711
 5644SOL    HW218830   3.031   6.268   7.687
 5645SOL     OW18831   9.597  10.765   6.822
 5645SOL    HW118832   9.501  10.762   6.824
 5645SOL    HW218833   9.620  10.728   6.737
 5646SOL     OW18834   7.701   2.104   7.885
 5646SOL    HW118835   7.781   2.071   7.844
 5646SOL    HW218836   7.643   2.028   7.889
 5647SOL     OW18837   9.949   8.325   3.009
 5647SOL    HW118838  10.038   8.346   2.981
 5647SOL    HW218839   9.896   8.399   2.978
 5648SOL     OW18840   9.972   9.638   3.584
 5648SOL    HW118841   9.877   9.650   3.586
 5648SOL    HW218842   9.986   9.562   3.528
 5649SOL     OW18843   4.324   9.383  11.925
 5649SOL    HW118844   4.246   9.332  11.901
 5649SOL    HW218845   4.376   9.324  11.980
 5650SOL     OW18846   9.588  12.101   6.008
 5650SOL    HW118847   9.523  12.164   6.038
 5650SOL    HW218848   9.559  12.017   6.044
 5651SOL     OW18849   3.479   4.778   4.150
 5651SOL    HW118850   3.444   4.866   4.137
 5651SOL    HW218851   3.448   4.729   4.073
 5652SOL     OW18852   2.204   8.914   7.540
 5652SOL    HW118853   2.253   8.987   7.501
 5652SOL    HW218854   2.271   8.862   7.585
 5653SOL     OW18855  11.141   4.941   7.198
 5653SOL    HW118856  11.213   4.905   7.145
 5653SOL    HW218857  11.179   4.950   7.286
 5654SOL     OW18858   9.447   5.416   5.683
 5654SOL    HW118859   9.397   5.378   5.756
 5654SOL    HW218860   9.457   5.508   5.706
 5655SOL     OW18861   4.117   9.363  13.160
 5655SOL    HW118862   4.064   9.441  13.170
 5655SOL    HW218863   4.093   9.328  13.074
 5656SOL     OW18864   6.707   2.409   9.149
 5656SOL    HW118865   6.627   2.458   9.165
 5656SOL    HW218866   6.690   2.358   9.070
 5657SOL     OW18867   2.445   0.485  10.390
 5657SOL    HW118868   2.438   0.389  10.392
 5657SOL    HW218869   2.460   0.510  10.480
 5658SOL     OW18870   8.721   5.847   7.596
 5658SOL    HW118871   8.797   5.902   7.610
 5658SOL    HW218872   8.740   5.800   7.514
 5659SOL     OW18873  11.206  11.189   8.359
 5659SOL    HW118874  11.231  11.120   8.421
 5659SOL    HW218875  11.270  11.182   8.289
 5660SOL     OW18876   7.506  14.784   7.256
 5660SOL    HW118877   7.553  14.858   7.218
 5660SOL    HW218878   7.450  14.752   7.185
 5661SOL     OW18879  12.784   5.972  13.909
 5661SOL    HW118880  12.859   5.914  13.922
 5661SOL    HW218881  12.806   6.052  13.956
 5662SOL     OW18882  12.015   6.674   5.649
 5662SOL    HW118883  11.966   6.651   5.727
 5662SOL    HW218884  12.093   6.718   5.681
 5663SOL     OW18885   8.218  12.333   2.212
 5663SOL    HW118886   8.173  12.418   2.213
 5663SOL    HW218887   8.171  12.281   2.277
 5664SOL     OW18888   6.287   4.132   8.091
 5664SOL    HW118889   6.362   4.190   8.079
 5664SOL    HW218890   6.211   4.184   8.062
 5665SOL     OW18891   6.333   2.339   6.896
 5665SOL    HW118892   6.261   2.303   6.844
 5665SOL    HW218893   6.395   2.372   6.831
 5666SOL     OW18894   0.339   9.067  12.779
 5666SOL    HW118895   0.395   8.992  12.797
 5666SOL    HW218896   0.382   9.140  12.824
 5667SOL     OW18897   6.010   9.454  13.796
 5667SOL    HW118898   5.935   9.399  13.816
 5667SOL    HW218899   6.067   9.446  13.872
 5668SOL     OW18900   6.550   3.469   7.353
 5668SOL    HW118901   6.539   3.481   7.448
 5668SOL    HW218902   6.611   3.395   7.346
 5669SOL     OW18903  11.667   5.887   7.754
 5669SOL    HW118904  11.623   5.970   7.771
 5669SOL    HW218905  11.599   5.830   7.719
 5670SOL     OW18906   3.577  12.528  13.613
 5670SOL    HW118907   3.556  12.546  13.705
 5670SOL    HW218908   3.496  12.495  13.576
 5671SOL     OW18909   0.043   7.009   1.032
 5671SOL    HW118910  14.840   6.953   1.006
 5671SOL    HW218911   0.121   6.955   1.023
 5672SOL     OW18912  10.208  12.424   7.589
 5672SOL    HW118913  10.163  12.340   7.592
 5672SOL    HW218914  10.175  12.467   7.511
 5673SOL     OW18915   0.466   6.363  11.440
 5673SOL    HW118916   0.380   6.322  11.452
 5673SOL    HW218917   0.521   6.325  11.508
 5674SOL     OW18918  11.673  13.178  11.654
 5674SOL    HW118919  11.717  13.191  11.570
 5674SOL    HW218920  11.582  13.162  11.631
 5675SOL     OW18921   6.442   0.453  13.495
 5675SOL    HW118922   6.538   0.451  13.502
 5675SOL    HW218923   6.424   0.432  13.404
 5676SOL     OW18924  14.044   2.767  11.649
 5676SOL    HW118925  14.104   2.840  11.658
 5676SOL    HW218926  14.071   2.723  11.568
 5677SOL     OW18927  12.459  13.241   8.284
 5677SOL    HW118928  12.432  13.333   8.278
 5677SOL    HW218929  12.526  13.231   8.216
 5678SOL     OW18930   5.786   9.491  11.427
 5678SOL    HW118931   5.714   9.549  11.401
 5678SOL    HW218932   5.792   9.427  11.356
 5679SOL     OW18933   5.745   0.993   7.699
 5679SOL    HW118934   5.664   0.971   7.743
 5679SOL    HW218935   5.814   0.959   7.756
 5680SOL     OW18936  11.495   2.159  11.963
 5680SOL    HW118937  11.491   2.087  11.899
 5680SOL    HW218938  11.560   2.219  11.927
 5681SOL     OW18939   4.273   6.161  13.851
 5681SOL    HW118940   4.200   6.105  13.875
 5681SOL    HW218941   4.339   6.101  13.817
 5682SOL     OW18942   7.761   4.654  13.300
 5682SOL    HW118943   7.797   4.594  13.365
 5682SOL    HW218944   7.783   4.741  13.334
 5683SOL     OW18945   7.325   5.137   1.268
 5683SOL    HW118946   7.253   5.082   1.297
 5683SOL    HW218947   7.401   5.078   1.266
 5684SOL     OW18948   7.812   7.958  13.527
 5684SOL    HW118949   7.782   7.942  13.616
 5684SOL    HW218950   7.895   7.911  13.520
 5685SOL     OW18951   3.859  14.292   0.701
 5685SOL    HW118952   3.923  14.259   0.764
 5685SOL    HW218953   3.879  14.385   0.693
 5686SOL     OW18954   7.285  14.674   8.894
 5686SOL    HW118955   7.190  14.682   8.891
 5686SOL    HW218956   7.310  14.715   8.977
 5687SOL     OW18957  11.796   6.875   1.888
 5687SOL    HW118958  11.883   6.904   1.861
 5687SOL    HW218959  11.805   6.780   1.898
 5688SOL     OW18960  13.232  14.804   0.533
 5688SOL    HW118961  13.325  14.820   0.548
 5688SOL    HW218962  13.231  14.734   0.467
 5689SOL     OW18963  10.700   4.143   5.812
 5689SOL    HW118964  10.718   4.075   5.747
 5689SOL    HW218965  10.723   4.225   5.768
 5690SOL     OW18966   4.705   2.733   0.657
 5690SOL    HW118967   4.633   2.694   0.607
 5690SOL    HW218968   4.679   2.721   0.748
 5691SOL     OW18969   5.227   8.930   8.931
 5691SOL    HW118970   5.164   8.875   8.978
 5691SOL    HW218971   5.173   8.979   8.869
 5692SOL     OW18972  11.423   3.143   0.893
 5692SOL    HW118973  11.499   3.153   0.951
 5692SOL    HW218974  11.421   3.050   0.873
 5693SOL     OW18975   0.959  11.865   3.915
 5693SOL    HW118976   0.993  11.914   3.990
 5693SOL    HW218977   0.876  11.907   3.895
 5694SOL     OW18978   5.754  12.760   4.997
 5694SOL    HW118979   5.755  12.839   5.050
 5694SOL    HW218980   5.726  12.790   4.910
 5695SOL     OW18981   1.259   2.651   6.505
 5695SOL    HW118982   1.178   2.606   6.483
 5695SOL    HW218983   1.239   2.700   6.584
 5696SOL     OW18984   0.374   4.987  13.243
 5696SOL    HW118985   0.374   4.891  13.236
 5696SOL    HW218986   0.311   5.016  13.177
 5697SOL     OW18987   8.930  11.190   4.077
 5697SOL    HW118988   8.976  11.266   4.114
 5697SOL    HW218989   8.977  11.114   4.113
 5698SOL     OW18990   6.710   3.984   7.955
 5698SOL    HW118991   6.797   3.978   7.916
 5698SOL    HW218992   6.684   3.893   7.969
 5699SOL     OW18993  10.182   6.843   2.751
 5699SOL    HW118994  10.143   6.930   2.757
 5699SOL    HW218995  10.118   6.785   2.793
 5700SOL     OW18996  12.821   3.491   6.284
 5700SOL    HW118997  12.905   3.532   6.264
 5700SOL    HW218998  12.757   3.543   6.236
 5701SOL     OW18999   1.027   5.507   9.023
 5701SOL    HW119000   0.960   5.526   9.089
 5701SOL    HW219001   1.090   5.451   9.069
 5702SOL     OW19002   7.746   2.996  13.544
 5702SOL    HW119003   7.664   2.990  13.591
 5702SOL    HW219004   7.804   3.045  13.602
 5703SOL     OW19005   5.843  14.636   6.075
 5703SOL    HW119006   5.801  14.553   6.097
 5703SOL    HW219007   5.872  14.625   5.984
 5704SOL     OW19008   8.652   7.567  12.031
 5704SOL    HW119009   8.689   7.644  12.074
 5704SOL    HW219010   8.671   7.494  12.090
 5705SOL     OW19011   4.505   1.837  11.402
 5705SOL    HW119012   4.487   1.884  11.483
 5705SOL    HW219013   4.568   1.769  11.427
 5706SOL     OW19014   3.787   3.414  13.660
 5706SOL    HW119015   3.734   3.475  13.609
 5706SOL    HW219016   3.827   3.357  13.595
 5707SOL     OW19017   8.416  14.377  11.391
 5707SOL    HW119018   8.496  14.429  11.378
 5707SOL    HW219019   8.360  14.400  11.317
 5708SOL     OW19020   8.823  12.207   6.360
 5708SOL    HW119021   8.825  12.295   6.398
 5708SOL    HW219022   8.743  12.168   6.395
 5709SOL     OW19023   4.139   1.625   6.187
 5709SOL    HW119024   4.093   1.672   6.256
 5709SOL    HW219025   4.069   1.594   6.129
 5710SOL     OW19026   6.440  12.842  14.509
 5710SOL    HW119027   6.484  12.757  14.514
 5710SOL    HW219028   6.416  12.852  14.417
 5711SOL     OW19029   3.827   7.021   7.296
 5711SOL    HW119030   3.863   6.936   7.324
 5711SOL    HW219031   3.776   7.001   7.218
 5712SOL     OW19032   2.886  10.839   0.907
 5712SOL    HW119033   2.807  10.869   0.952
 5712SOL    HW219034   2.920  10.917   0.863
 5713SOL     OW19035  11.365  14.230   4.337
 5713SOL    HW119036  11.273  14.215   4.316
 5713SOL    HW219037  11.412  14.178   4.272
 5714SOL     OW19038   6.793  11.176  11.932
 5714SOL    HW119039   6.747  11.114  11.988
 5714SOL    HW219040   6.772  11.149  11.843
 5715SOL     OW19041  10.796   1.326   6.902
 5715SOL    HW119042  10.791   1.281   6.818
 5715SOL    HW219043  10.770   1.261   6.967
 5716SOL     OW19044   0.440   1.509  10.359
 5716SOL    HW119045   0.487   1.589  10.336
 5716SOL    HW219046   0.461   1.447  10.289
 5717SOL     OW19047  10.195  12.704   3.243
 5717SOL    HW119048  10.262  12.726   3.308
 5717SOL    HW219049  10.198  12.608   3.237
 5718SOL     OW19050   8.664   5.037  11.726
 5718SOL    HW119051   8.695   4.952  11.757
 5718SOL    HW219052   8.685   5.039  11.633
 5719SOL     OW19053   3.648   8.766   1.941
 5719SOL    HW119054   3.680   8.703   2.006
 5719SOL    HW219055   3.650   8.718   1.859
 5720SOL     OW19056   1.913   6.468  10.972
 5720SOL    HW119057   1.870   6.519  11.041
 5720SOL    HW219058   2.004   6.461  11.000
 5721SOL     OW19059  13.510   1.768   9.127
 5721SOL    HW119060  13.430   1.765   9.075
 5721SOL    HW219061  13.493   1.708   9.200
 5722SOL     OW19062  12.040  12.941   5.096
 5722SOL    HW119063  12.131  12.955   5.073
 5722SOL    HW219064  12.041  12.862   5.151
 5723SOL     OW19065  12.800   1.123   4.714
 5723SOL    HW119066  12.768   1.036   4.738
 5723SOL    HW219067  12.829   1.161   4.797
 5724SOL     OW19068  14.781  11.963   6.537
 5724SOL    HW119069  14.855  11.974   6.596
 5724SOL    HW219070  14.776  11.868   6.522
 5725SOL     OW19071   4.161   9.323   0.357
 5725SOL    HW119072   4.244   9.353   0.395
 5725SOL    HW219073   4.181   9.237   0.320
 5726SOL     OW19074   5.087   6.631  10.257
 5726SOL    HW119075   5.040   6.565  10.309
 5726SOL    HW219076   5.051   6.620  10.169
 5727SOL     OW19077  12.116   9.663   6.777
 5727SOL    HW119078  12.097   9.576   6.814
 5727SOL    HW219079  12.205   9.655   6.742
 5728SOL     OW19080  13.597  10.176   4.236
 5728SOL    HW119081  13.627  10.266   4.244
 5728SOL    HW219082  13.636  10.145   4.154
 5729SOL     OW19083   2.015  11.859  12.971
 5729SOL    HW119084   2.110  11.869  12.960
 5729SOL    HW219085   1.977  11.927  12.916
 5730SOL     OW19086   0.669   1.875   5.247
 5730SOL    HW119087   0.585   1.832   5.265
 5730SOL    HW219088   0.658   1.913   5.160
 5731SOL     OW19089   7.186  10.265  12.779
 5731SOL    HW119090   7.193  10.314  12.698
 5731SOL    HW219091   7.112  10.304  12.825
 5732SOL     OW19092   2.568   8.841  13.110
 5732SOL    HW119093   2.609   8.842  13.197
 5732SOL    HW219094   2.547   8.932  13.092
 5733SOL     OW19095  10.996   5.957   0.524
 5733SOL    HW119096  10.980   5.910   0.442
 5733SOL    HW219097  10.963   5.898   0.592
 5734SOL     OW19098   9.167   4.130  14.204
 5734SOL    HW119099   9.078   4.097  14.196
 5734SOL    HW219100   9.168   4.210  14.152
 5735SOL     OW19101  14.508   6.765   5.395
 5735SOL    HW119102  14.552   6.804   5.320
 5735SOL    HW219103  14.530   6.672   5.390
 5736SOL     OW19104  14.830   9.294  10.802
 5736SOL    HW119105  14.830   9.279  10.707
 5736SOL    HW219106  14.849   9.388  10.811
 5737SOL     OW19107   2.149   8.163  12.622
 5737SOL    HW119108   2.087   8.221  12.666
 5737SOL    HW219109   2.234   8.204  12.634
 5738SOL     OW19110   2.696   5.669   6.791
 5738SOL    HW119111   2.708   5.709   6.705
 5738SOL    HW219112   2.785   5.652   6.822
 5739SOL     OW19113  12.109  12.578  11.734
 5739SOL    HW119114  12.104  12.596  11.640
 5739SOL    HW219115  12.024  12.538  11.755
 5740SOL     OW19116   6.656   0.639  11.392
 5740SOL    HW119117   6.647   0.680  11.478
 5740SOL    HW219118   6.599   0.691  11.335
 5741SOL     OW19119   0.727   8.221  12.249
 5741SOL    HW119120   0.738   8.159  12.177
 5741SOL    HW219121   0.771   8.180  12.324
 5742SOL     OW19122  13.863  10.532   2.166
 5742SOL    HW119123  13.844  10.538   2.260
 5742SOL    HW219124  13.861  10.623   2.136
 5743SOL     OW19125  12.846  10.934  11.195
 5743SOL    HW119126  12.755  10.958  11.216
 5743SOL    HW219127  12.848  10.839  11.203
 5744SOL     OW19128  10.118   4.617  11.999
 5744SOL    HW119129  10.097   4.529  11.968
 5744SOL    HW219130  10.032   4.656  12.018
 5745SOL     OW19131  14.783   3.546  12.211
 5745SOL    HW119132  14.701   3.588  12.186
 5745SOL    HW219133  14.827   3.609  12.267
 5746SOL     OW19134  11.446   5.478   9.484
 5746SOL    HW119135  11.451   5.572   9.502
 5746SOL    HW219136  11.461   5.471   9.390
 5747SOL     OW19137  13.161   9.324   3.862
 5747SOL    HW119138  13.140   9.400   3.915
 5747SOL    HW219139  13.139   9.351   3.772
 5748SOL     OW19140   8.286  14.104   4.768
 5748SOL    HW119141   8.352  14.065   4.711
 5748SOL    HW219142   8.202  14.084   4.725
 5749SOL     OW19143  11.782   3.536   0.365
 5749SOL    HW119144  11.781   3.566   0.456
 5749SOL    HW219145  11.738   3.452   0.368
 5750SOL     OW19146   6.618   5.176   1.061
 5750SOL    HW119147   6.585   5.246   1.005
 5750SOL    HW219148   6.559   5.102   1.046
 5751SOL     OW19149  11.832  12.812   2.834
 5751SOL    HW119150  11.778  12.745   2.874
 5751SOL    HW219151  11.825  12.888   2.892
 5752SOL     OW19152  10.834   9.801  14.728
 5752SOL    HW119153  10.834   9.861  14.654
 5752SOL    HW219154  10.832   9.714  14.688
 5753SOL     OW19155  10.057   7.101   9.785
 5753SOL    HW119156  10.078   7.125   9.695
 5753SOL    HW219157  10.127   7.140   9.837
 5754SOL     OW19158   7.790   3.078   3.817
 5754SOL    HW119159   7.792   2.983   3.803
 5754SOL    HW219160   7.742   3.112   3.741
 5755SOL     OW19161   4.342   5.260   9.017
 5755SOL    HW119162   4.276   5.214   8.966
 5755SOL    HW219163   4.420   5.261   8.961
 5756SOL     OW19164  14.536   8.990   6.440
 5756SOL    HW119165  14.519   8.968   6.531
 5756SOL    HW219166  14.579   9.076   6.444
 5757SOL     OW19167   8.890  13.022   9.226
 5757SOL    HW119168   8.932  13.000   9.309
 5757SOL    HW219169   8.887  12.938   9.179
 5758SOL     OW19170   8.004   9.103   3.711
 5758SOL    HW119171   7.924   9.058   3.735
 5758SOL    HW219172   7.976   9.176   3.655
 5759SOL     OW19173   1.896   3.998   4.204
 5759SOL    HW119174   1.937   3.954   4.129
 5759SOL    HW219175   1.969   4.019   4.262
 5760SOL     OW19176  11.919   6.014  14.317
 5760SOL    HW119177  11.923   5.921  14.340
 5760SOL    HW219178  11.832   6.025  14.279
 5761SOL     OW19179   4.572  11.578   0.764
 5761SOL    HW119180   4.550  11.669   0.784
 5761SOL    HW219181   4.520  11.526   0.826
 5762SOL     OW19182   1.851   6.690   9.928
 5762SOL    HW119183   1.765   6.699   9.969
 5762SOL    HW219184   1.855   6.764   9.867
 5763SOL     OW19185   1.310   5.317   7.573
 5763SOL    HW119186   1.287   5.361   7.655
 5763SOL    HW219187   1.380   5.371   7.535
 5764SOL     OW19188   0.187  10.724   0.873
 5764SOL    HW119189   0.142  10.805   0.897
 5764SOL    HW219190   0.254  10.752   0.810
 5765SOL     OW19191  11.027   4.413   7.996
 5765SOL    HW119192  10.972   4.483   7.959
 5765SOL    HW219193  10.973   4.375   8.066
 5766SOL     OW19194   3.186   8.384   2.415
 5766SOL    HW119195   3.156   8.400   2.325
 5766SOL    HW219196   3.281   8.392   2.410
 5767SOL     OW19197   0.224   8.581   6.849
 5767SOL    HW119198   0.290   8.649   6.836
 5767SOL    HW219199   0.274   8.505   6.877
 5768SOL     OW19200  10.720   7.640  10.952
 5768SOL    HW119201  10.807   7.611  10.979
 5768SOL    HW219202  10.736   7.698  10.878
 5769SOL     OW19203  10.649  14.779  10.759
 5769SOL    HW119204  10.599  14.757  10.681
 5769SOL    HW219205  10.737  14.746  10.741
 5770SOL     OW19206  13.422   6.897   4.338
 5770SOL    HW119207  13.367   6.881   4.262
 5770SOL    HW219208  13.360   6.922   4.407
 5771SOL     OW19209   1.105   4.553  11.144
 5771SOL    HW119210   1.147   4.623  11.094
 5771SOL    HW219211   1.032   4.596  11.189
 5772SOL     OW19212   3.354   6.014  11.620
 5772SOL    HW119213   3.418   6.034  11.687
 5772SOL    HW219214   3.307   6.097  11.606
 5773SOL     OW19215  12.281  10.960   2.018
 5773SOL    HW119216  12.230  10.985   2.095
 5773SOL    HW219217  12.287  11.040   1.965
 5774SOL     OW19218  11.458   6.881   8.792
 5774SOL    HW119219  11.456   6.834   8.875
 5774SOL    HW219220  11.424   6.968   8.812
 5775SOL     OW19221  13.819  11.047   6.431
 5775SOL    HW119222  13.833  10.968   6.483
 5775SOL    HW219223  13.764  11.102   6.487
 5776SOL     OW19224   2.962  11.121   0.157
 5776SOL    HW119225   2.950  11.129   0.062
 5776SOL    HW219226   2.944  11.209   0.191
 5777SOL     OW19227  13.491   6.536   6.092
 5777SOL    HW119228  13.402   6.517   6.061
 5777SOL    HW219229  13.532   6.450   6.102
 5778SOL     OW19230  14.284   3.568   5.016
 5778SOL    HW119231  14.379   3.570   5.007
 5778SOL    HW219232  14.266   3.489   5.068
 5779SOL     OW19233  14.726   6.575   3.682
 5779SOL    HW119234  14.713   6.556   3.589
 5779SOL    HW219235  14.649   6.537   3.724
 5780SOL     OW19236   3.760  12.883   3.866
 5780SOL    HW119237   3.731  12.929   3.787
 5780SOL    HW219238   3.809  12.808   3.833
 5781SOL     OW19239   0.338   8.363  14.361
 5781SOL    HW119240   0.410   8.410  14.318
 5781SOL    HW219241   0.381   8.310  14.429
 5782SOL     OW19242   3.050  13.901  11.920
 5782SOL    HW119243   3.045  13.917  12.014
 5782SOL    HW219244   2.980  13.838  11.902
 5783SOL     OW19245   5.371   2.288   5.270
 5783SOL    HW119246   5.332   2.216   5.319
 5783SOL    HW219247   5.296   2.341   5.242
 5784SOL     OW19248  11.314  14.801   0.616
 5784SOL    HW119249  11.364  14.751   0.551
 5784SOL    HW219250  11.254  14.854   0.563
 5785SOL     OW19251   7.259   5.069  12.313
 5785SOL    HW119252   7.191   5.028  12.365
 5785SOL    HW219253   7.338   5.060  12.366
 5786SOL     OW19254   2.503   7.865   6.952
 5786SOL    HW119255   2.434   7.820   6.904
 5786SOL    HW219256   2.469   7.871   7.042
 5787SOL     OW19257   1.730   3.756   1.060
 5787SOL    HW119258   1.688   3.749   1.145
 5787SOL    HW219259   1.817   3.791   1.078
 5788SOL     OW19260   5.272  14.403   3.941
 5788SOL    HW119261   5.341  14.396   3.875
 5788SOL    HW219262   5.319  14.412   4.024
 5789SOL     OW19263   3.332   1.696   0.690
 5789SOL    HW119264   3.412   1.717   0.738
 5789SOL    HW219265   3.350   1.611   0.649
 5790SOL     OW19266   4.176   2.961  10.467
 5790SOL    HW119267   4.143   3.049  10.482
 5790SOL    HW219268   4.228   2.969  10.387
 5791SOL     OW19269   2.724   5.075  13.062
 5791SOL    HW119270   2.635   5.101  13.038
 5791SOL    HW219271   2.768   5.062  12.978
 5792SOL     OW19272  14.543  11.428   6.020
 5792SOL    HW119273  14.602  11.366   6.064
 5792SOL    HW219274  14.597  11.505   6.004
 5793SOL     OW19275  12.170   3.041   3.642
 5793SOL    HW119276  12.237   3.107   3.655
 5793SOL    HW219277  12.182   2.980   3.715
 5794SOL     OW19278   9.987   1.728   0.475
 5794SOL    HW119279   9.995   1.756   0.566
 5794SOL    HW219280  10.078   1.721   0.444
 5795SOL     OW19281   9.418   3.801  10.171
 5795SOL    HW119282   9.404   3.750  10.251
 5795SOL    HW219283   9.347   3.865  10.171
 5796SOL     OW19284   5.099   3.275   9.918
 5796SOL    HW119285   5.182   3.258   9.963
 5796SOL    HW219286   5.125   3.311   9.833
 5797SOL     OW19287  11.294  13.108   9.031
 5797SOL    HW119288  11.310  13.019   9.063
 5797SOL    HW219289  11.376  13.133   8.989
 5798SOL     OW19290  14.241   6.056  12.575
 5798SOL    HW119291  14.212   6.105  12.498
 5798SOL    HW219292  14.162   6.046  12.629
 5799SOL     OW19293  11.424  12.369   6.590
 5799SOL    HW119294  11.347  12.355   6.535
 5799SOL    HW219295  11.470  12.443   6.548
 5800SOL     OW19296  12.700  13.247   0.305
 5800SOL    HW119297  12.752  13.316   0.265
 5800SOL    HW219298  12.651  13.291   0.374
 5801SOL     OW19299   5.241   0.781   8.739
 5801SOL    HW119300   5.335   0.764   8.734
 5801SOL    HW219301   5.223   0.788   8.833
 5802SOL     OW19302   5.901   8.241   2.362
 5802SOL    HW119303   5.987   8.282   2.348
 5802SOL    HW219304   5.838   8.312   2.349
 5803SOL     OW19305  12.241   2.473   9.016
 5803SOL    HW119306  12.270   2.457   9.106
 5803SOL    HW219307  12.298   2.417   8.963
 5804SOL     OW19308   5.244   3.442  14.362
 5804SOL    HW119309   5.193   3.375  14.408
 5804SOL    HW219310   5.325   3.397  14.338
 5805SOL     OW19311   4.110   9.418   5.435
 5805SOL    HW119312   4.138   9.431   5.344
 5805SOL    HW219313   4.117   9.324   5.449
 5806SOL     OW19314  13.660  10.930  10.951
 5806SOL    HW119315  13.677  10.849  10.902
 5806SOL    HW219316  13.575  10.915  10.992
 5807SOL     OW19317  11.454   1.810   4.763
 5807SOL    HW119318  11.400   1.800   4.841
 5807SOL    HW219319  11.521   1.875   4.788
 5808SOL     OW19320   6.410   2.196  10.898
 5808SOL    HW119321   6.401   2.268  10.961
 5808SOL    HW219322   6.349   2.129  10.929
 5809SOL     OW19323  11.974  11.896   9.014
 5809SOL    HW119324  12.042  11.963   9.002
 5809SOL    HW219325  11.892  11.945   9.007
 5810SOL     OW19326  10.090   7.404   4.801
 5810SOL    HW119327  10.117   7.376   4.713
 5810SOL    HW219328  10.143   7.349   4.860
 5811SOL     OW19329   7.537   6.105   3.030
 5811SOL    HW119330   7.448   6.120   2.998
 5811SOL    HW219331   7.534   6.133   3.122
 5812SOL     OW19332  13.829   1.747   5.441
 5812SOL    HW119333  13.822   1.668   5.387
 5812SOL    HW219334  13.900   1.797   5.400
 5813SOL     OW19335  12.752  14.838   8.286
 5813SOL    HW119336  12.659  14.818   8.271
 5813SOL    HW219337  12.784  14.867   8.201
 5814SOL     OW19338   7.561   1.750  13.941
 5814SOL    HW119339   7.548   1.731  13.848
 5814SOL    HW219340   7.476   1.781  13.972
 5815SOL     OW19341   2.334   0.545   7.018
 5815SOL    HW119342   2.265   0.490   6.980
 5815SOL    HW219343   2.357   0.501   7.100
 5816SOL     OW19344   0.990  13.717   2.773
 5816SOL    HW119345   0.981  13.739   2.865
 5816SOL    HW219346   1.070  13.762   2.745
 5817SOL     OW19347  14.835   5.934   0.358
 5817SOL    HW119348   0.048   5.904   0.321
 5817SOL    HW219349  14.859   5.973   0.442
 5818SOL     OW19350   6.005  10.928   3.337
 5818SOL    HW119351   5.937  10.957   3.398
 5818SOL    HW219352   6.014  10.834   3.353
 5819SOL     OW19353   7.671  10.342   7.517
 5819SOL    HW119354   7.695  10.421   7.468
 5819SOL    HW219355   7.627  10.375   7.595
 5820SOL     OW19356   6.762   3.263   7.351
 5820SOL    HW119357   6.847   3.253   7.393
 5820SOL    HW219358   6.720   3.178   7.362
 5821SOL     OW19359   4.440   9.266   7.863
 5821SOL    HW119360   4.500   9.205   7.907
 5821SOL    HW219361   4.498   9.326   7.816
 5822SOL     OW19362   4.196  10.185  10.256
 5822SOL    HW119363   4.190  10.096  10.289
 5822SOL    HW219364   4.120  10.230  10.293
 5823SOL     OW19365  10.242   4.048   4.880
 5823SOL    HW119366  10.335   4.070   4.890
 5823SOL    HW219367  10.198   4.133   4.875
 5824SOL     OW19368  14.690   6.073  14.718
 5824SOL    HW119369  14.750   6.006  14.686
 5824SOL    HW219370  14.706   6.076  14.813
 5825SOL     OW19371   4.767   6.384   8.478
 5825SOL    HW119372   4.806   6.417   8.559
 5825SOL    HW219373   4.760   6.461   8.422
 5826SOL     OW19374   3.503  13.788  10.994
 5826SOL    HW119375   3.443  13.851  10.954
 5826SOL    HW219376   3.563  13.765  10.923
 5827SOL     OW19377  10.939   2.797   8.006
 5827SOL    HW119378  10.947   2.760   8.094
 5827SOL    HW219379  10.897   2.882   8.019
 5828SOL     OW19380   9.759   8.560   3.287
 5828SOL    HW119381   9.818   8.633   3.307
 5828SOL    HW219382   9.726   8.579   3.199
 5829SOL     OW19383   9.724   9.724   5.358
 5829SOL    HW119384   9.650   9.699   5.301
 5829SOL    HW219385   9.727   9.656   5.425
 5830SOL     OW19386  14.670   9.850  11.139
 5830SOL    HW119387  14.729   9.878  11.069
 5830SOL    HW219388  14.608   9.791  11.096
 5831SOL     OW19389   7.582   9.358   9.096
 5831SOL    HW119390   7.615   9.447   9.108
 5831SOL    HW219391   7.527   9.363   9.018
 5832SOL     OW19392   1.659   2.339   5.564
 5832SOL    HW119393   1.734   2.293   5.526
 5832SOL    HW219394   1.674   2.337   5.658
 5833SOL     OW19395   7.557   6.290   6.388
 5833SOL    HW119396   7.523   6.207   6.421
 5833SOL    HW219397   7.641   6.301   6.433
 5834SOL     OW19398   3.123   9.066   1.163
 5834SOL    HW119399   3.032   9.093   1.152
 5834SOL    HW219400   3.160   9.071   1.075
 5835SOL     OW19401   6.640   7.971   6.459
 5835SOL    HW119402   6.548   7.997   6.450
 5835SOL    HW219403   6.655   7.912   6.385
 5836SOL     OW19404  13.796   3.922   1.766
 5836SOL    HW119405  13.711   3.900   1.727
 5836SOL    HW219406  13.841   3.972   1.698
 5837SOL     OW19407   2.126  12.231  11.648
 5837SOL    HW119408   2.190  12.164  11.670
 5837SOL    HW219409   2.117  12.225  11.552
 5838SOL     OW19410  11.480   7.250   8.160
 5838SOL    HW119411  11.523   7.202   8.230
 5838SOL    HW219412  11.542   7.319   8.136
 5839SOL     OW19413  13.295   2.539   2.499
 5839SOL    HW119414  13.310   2.567   2.589
 5839SOL    HW219415  13.263   2.618   2.455
 5840SOL     OW19416   5.968   8.558  10.292
 5840SOL    HW119417   6.051   8.602  10.309
 5840SOL    HW219418   5.990   8.464  10.293
 5841SOL     OW19419   5.229   8.985  13.518
 5841SOL    HW119420   5.275   8.905  13.543
 5841SOL    HW219421   5.153   8.955  13.468
 5842SOL     OW19422   1.354  14.728   3.382
 5842SOL    HW119423   1.361  14.756   3.473
 5842SOL    HW219424   1.376  14.807   3.332
 5843SOL     OW19425   1.899   0.378   8.527
 5843SOL    HW119426   1.842   0.388   8.603
 5843SOL    HW219427   1.979   0.338   8.561
 5844SOL     OW19428   7.673   3.103   3.221
 5844SOL    HW119429   7.760   3.124   3.255
 5844SOL    HW219430   7.630   3.188   3.211
 5845SOL     OW19431   1.210   6.222  10.756
 5845SOL    HW119432   1.184   6.285  10.689
 5845SOL    HW219433   1.275   6.166  10.712
 5846SOL     OW19434   2.491   8.285  10.913
 5846SOL    HW119435   2.483   8.375  10.884
 5846SOL    HW219436   2.577   8.280  10.954
 5847SOL     OW19437   2.657   0.876   1.897
 5847SOL    HW119438   2.624   0.918   1.817
 5847SOL    HW219439   2.752   0.883   1.890
 5848SOL     OW19440  11.760   5.007  10.194
 5848SOL    HW119441  11.666   4.987  10.190
 5848SOL    HW219442  11.780   5.046  10.109
 5849SOL     OW19443   8.391   8.631   6.194
 5849SOL    HW119444   8.446   8.634   6.116
 5849SOL    HW219445   8.427   8.699   6.251
 5850SOL     OW19446  14.622  11.026   1.681
 5850SOL    HW119447  14.650  11.080   1.755
 5850SOL    HW219448  14.584  10.947   1.721
 5851SOL     OW19449   3.934   4.801   7.908
 5851SOL    HW119450   3.929   4.896   7.921
 5851SOL    HW219451   3.971   4.768   7.990
 5852SOL     OW19452  12.673   0.879   0.377
 5852SOL    HW119453  12.768   0.891   0.384
 5852SOL    HW219454  12.654   0.894   0.285
 5853SOL     OW19455   7.141  11.895   1.966
 5853SOL    HW119456   7.212  11.835   1.991
 5853SOL    HW219457   7.103  11.855   1.887
 5854SOL     OW19458   9.326  13.597   7.530
 5854SOL    HW119459   9.379  13.530   7.574
 5854SOL    HW219460   9.333  13.576   7.437
 5855SOL     OW19461   3.634   0.098   4.317
 5855SOL    HW119462   3.561   0.078   4.377
 5855SOL    HW219463   3.701   0.033   4.338
 5856SOL     OW19464  14.274   1.033   3.080
 5856SOL    HW119465  14.238   1.104   3.132
 5856SOL    HW219466  14.353   1.006   3.126
 5857SOL     OW19467   9.378   6.834   6.367
 5857SOL    HW119468   9.442   6.853   6.298
 5857SOL    HW219469   9.420   6.866   6.448
 5858SOL     OW19470   2.648  14.653   2.929
 5858SOL    HW119471   2.563  14.662   2.887
 5858SOL    HW219472   2.686  14.574   2.889
 5859SOL     OW19473   8.862  10.608   5.472
 5859SOL    HW119474   8.917  10.685   5.481
 5859SOL    HW219475   8.773  10.642   5.465
 5860SOL     OW19476   9.275  13.738   5.711
 5860SOL    HW119477   9.350  13.714   5.657
 5860SOL    HW219478   9.306  13.730   5.801
 5861SOL     OW19479  11.532   4.084   3.258
 5861SOL    HW119480  11.453   4.080   3.205
 5861SOL    HW219481  11.501   4.096   3.347
 5862SOL     OW19482   2.083  10.472  12.923
 5862SOL    HW119483   1.999  10.498  12.886
 5862SOL    HW219484   2.077  10.377  12.933
 5863SOL     OW19485  13.289   7.994   5.898
 5863SOL    HW119486  13.341   8.059   5.851
 5863SOL    HW219487  13.199   8.008   5.868
 5864SOL     OW19488   7.265   1.354   4.269
 5864SOL    HW119489   7.235   1.264   4.278
 5864SOL    HW219490   7.360   1.346   4.256
 5865SOL     OW19491   9.730  13.569  12.768
 5865SOL    HW119492   9.820  13.568  12.799
 5865SOL    HW219493   9.703  13.661  12.773
 5866SOL     OW19494   6.876   2.335   6.936
 5866SOL    HW119495   6.823   2.370   7.007
 5866SOL    HW219496   6.895   2.245   6.962
 5867SOL     OW19497  12.519  14.156   0.156
 5867SOL    HW119498  12.516  14.067   0.122
 5867SOL    HW219499  12.579  14.202   0.098
 5868SOL     OW19500  12.155   7.502  13.235
 5868SOL    HW119501  12.072   7.458  13.253
 5868SOL    HW219502  12.175   7.550  13.315
 5869SOL     OW19503   1.925   4.557  11.885
 5869SOL    HW119504   1.915   4.642  11.842
 5869SOL    HW219505   1.899   4.493  11.818
 5870SOL     OW19506   8.263   0.719   4.292
 5870SOL    HW119507   8.281   0.650   4.229
 5870SOL    HW219508   8.344   0.729   4.341
 5871SOL     OW19509   2.981  13.172  10.114
 5871SOL    HW119510   2.953  13.261  10.093
 5871SOL    HW219511   3.072  13.168  10.085
 5872SOL     OW19512  13.872   7.275   0.248
 5872SOL    HW119513  13.900   7.348   0.192
 5872SOL    HW219514  13.841   7.209   0.186
 5873SOL     OW19515   8.404   6.720   1.751
 5873SOL    HW119516   8.424   6.721   1.845
 5873SOL    HW219517   8.388   6.812   1.730
 5874SOL     OW19518   1.720   9.569   5.957
 5874SOL    HW119519   1.772   9.630   6.009
 5874SOL    HW219520   1.630   9.596   5.971
 5875SOL     OW19521  14.064   4.571  13.677
 5875SOL    HW119522  14.148   4.600  13.641
 5875SOL    HW219523  14.033   4.506  13.615
 5876SOL     OW19524  12.890   2.275  10.731
 5876SOL    HW119525  12.974   2.230  10.730
 5876SOL    HW219526  12.882   2.309  10.820
 5877SOL     OW19527   1.463   7.448  10.501
 5877SOL    HW119528   1.400   7.384  10.467
 5877SOL    HW219529   1.542   7.397  10.519
 5878SOL     OW19530   1.511   7.401  14.676
 5878SOL    HW119531   1.538   7.337  14.743
 5878SOL    HW219532   1.524   7.486  14.718
 5879SOL     OW19533   0.202  12.014  11.059
 5879SOL    HW119534   0.280  12.039  11.010
 5879SOL    HW219535   0.207  11.919  11.066
 5880SOL     OW19536   2.589   5.917   6.054
 5880SOL    HW119537   2.562   5.938   5.964
 5880SOL    HW219538   2.585   6.001   6.100
 5881SOL     OW19539  13.244   4.956   0.752
 5881SOL    HW119540  13.273   4.890   0.814
 5881SOL    HW219541  13.148   4.953   0.756
 5882SOL     OW19542  11.497   2.226   1.455
 5882SOL    HW119543  11.522   2.310   1.418
 5882SOL    HW219544  11.465   2.247   1.543
 5883SOL     OW19545  14.754   1.726   3.630
 5883SOL    HW119546  14.763   1.781   3.708
 5883SOL    HW219547  14.808   1.649   3.649
 5884SOL     OW19548   7.096  13.294   4.633
 5884SOL    HW119549   7.061  13.355   4.698
 5884SOL    HW219550   7.033  13.221   4.634
 5885SOL     OW19551   2.632   5.265   0.627
 5885SOL    HW119552   2.688   5.190   0.609
 5885SOL    HW219553   2.543   5.231   0.620
 5886SOL     OW19554   8.804  11.581  12.113
 5886SOL    HW119555   8.811  11.547  12.202
 5886SOL    HW219556   8.727  11.639  12.115
 5887SOL     OW19557   6.321  10.471  14.808
 5887SOL    HW119558   6.324  10.448   0.031
 5887SOL    HW219559   6.397  10.528  14.795
 5888SOL     OW19560   6.743   1.880  11.064
 5888SOL    HW119561   6.673   1.845  11.009
 5888SOL    HW219562   6.717   1.971  11.079
 5889SOL     OW19563   3.565   5.600   1.406
 5889SOL    HW119564   3.649   5.564   1.431
 5889SOL    HW219565   3.570   5.692   1.431
 5890SOL     OW19566  14.714   2.865   6.962
 5890SOL    HW119567  14.636   2.915   6.937
 5890SOL    HW219568  14.748   2.910   7.040
 5891SOL     OW19569  14.466   1.244   1.648
 5891SOL    HW119570  14.415   1.298   1.708
 5891SOL    HW219571  14.483   1.163   1.696
 5892SOL     OW19572  10.282   2.174   6.393
 5892SOL    HW119573  10.328   2.248   6.351
 5892SOL    HW219574  10.234   2.214   6.465
 5893SOL     OW19575   9.763   7.358   9.469
 5893SOL    HW119576   9.844   7.356   9.419
 5893SOL    HW219577   9.710   7.287   9.432
 5894SOL     OW19578   1.834   1.528  11.452
 5894SOL    HW119579   1.927   1.507  11.457
 5894SOL    HW219580   1.814   1.569  11.536
 5895SOL     OW19581  11.282  11.127  14.690
 5895SOL    HW119582  11.251  11.087  14.608
 5895SOL    HW219583  11.203  11.134  14.744
 5896SOL     OW19584   9.083   5.370   6.998
 5896SOL    HW119585   9.103   5.285   6.959
 5896SOL    HW219586   9.163   5.396   7.043
 5897SOL     OW19587   8.524  11.052   5.203
 5897SOL    HW119588   8.447  11.108   5.193
 5897SOL    HW219589   8.545  11.025   5.114
 5898SOL     OW19590  10.266   9.017   6.025
 5898SOL    HW119591  10.264   9.087   6.091
 5898SOL    HW219592  10.179   8.977   6.030
 5899SOL     OW19593  10.756  11.260   9.454
 5899SOL    HW119594  10.771  11.170   9.483
 5899SOL    HW219595  10.663  11.275   9.472
 5900SOL     OW19596   7.492   1.058   6.589
 5900SOL    HW119597   7.425   0.997   6.557
 5900SOL    HW219598   7.560   1.002   6.626
 5901SOL     OW19599  11.092   7.764   2.902
 5901SOL    HW119600  11.124   7.853   2.890
 5901SOL    HW219601  10.997   7.771   2.891
 5902SOL     OW19602  14.016   8.686  12.545
 5902SOL    HW119603  13.958   8.762  12.560
 5902SOL    HW219604  14.028   8.648  12.632
 5903SOL     OW19605   5.630  10.757   7.509
 5903SOL    HW119606   5.626  10.817   7.436
 5903SOL    HW219607   5.716  10.773   7.549
 5904SOL     OW19608  11.954  14.535   4.333
 5904SOL    HW119609  11.968  14.627   4.354
 5904SOL    HW219610  12.031  14.510   4.282
 5905SOL     OW19611   5.715   5.383   0.836
 5905SOL    HW119612   5.790   5.414   0.786
 5905SOL    HW219613   5.671   5.322   0.776
 5906SOL     OW19614   3.482   4.164  11.813
 5906SOL    HW119615   3.511   4.128  11.897
 5906SOL    HW219616   3.477   4.258  11.828
 5907SOL     OW19617   7.498  10.627   0.734
 5907SOL    HW119618   7.588  10.660   0.736
 5907SOL    HW219619   7.470  10.642   0.643
 5908SOL     OW19620   0.884  13.854  10.228
 5908SOL    HW119621   0.842  13.782  10.274
 5908SOL    HW219622   0.881  13.927  10.291
 5909SOL     OW19623   2.216   0.313   1.610
 5909SOL    HW119624   2.272   0.269   1.674
 5909SOL    HW219625   2.155   0.246   1.580
 5910SOL     OW19626   4.161   3.271   7.155
 5910SOL    HW119627   4.253   3.252   7.138
 5910SOL    HW219628   4.126   3.298   7.070
 5911SOL     OW19629   1.937  11.680   3.070
 5911SOL    HW119630   1.894  11.715   2.992
 5911SOL    HW219631   1.936  11.585   3.056
 5912SOL     OW19632   3.358  13.496   5.301
 5912SOL    HW119633   3.302  13.492   5.224
 5912SOL    HW219634   3.311  13.446   5.368
 5913SOL     OW19635   4.312   5.266  12.810
 5913SOL    HW119636   4.359   5.258  12.893
 5913SOL    HW219637   4.328   5.356  12.783
 5914SOL     OW19638   6.571   9.156   1.641
 5914SOL    HW119639   6.560   9.245   1.607
 5914SOL    HW219640   6.621   9.166   1.722
 5915SOL     OW19641   0.282  12.967   0.120
 5915SOL    HW119642   0.215  13.012   0.172
 5915SOL    HW219643   0.234  12.897   0.075
 5916SOL     OW19644  13.005  10.124  10.078
 5916SOL    HW119645  12.991  10.141  10.171
 5916SOL    HW219646  13.100  10.121  10.068
 5917SOL     OW19647  14.175   4.547  11.679
 5917SOL    HW119648  14.257   4.597  11.685
 5917SOL    HW219649  14.181   4.502  11.595
 5918SOL     OW19650   5.057   3.296  10.333
 5918SOL    HW119651   5.052   3.378  10.285
 5918SOL    HW219652   5.008   3.312  10.414
 5919SOL     OW19653   6.761   9.907  11.457
 5919SOL    HW119654   6.685   9.852  11.437
 5919SOL    HW219655   6.837   9.855  11.429
 5920SOL     OW19656  10.932   4.070   5.076
 5920SOL    HW119657  10.899   4.040   4.991
 5920SOL    HW219658  10.871   4.140   5.102
 5921SOL     OW19659  13.609   0.623   0.103
 5921SOL    HW119660  13.694   0.578   0.109
 5921SOL    HW219661  13.551   0.558   0.063
 5922SOL     OW19662  10.005  14.130   6.023
 5922SOL    HW119663  10.023  14.070   6.096
 5922SOL    HW219664   9.932  14.183   6.055
 5923SOL     OW19665   8.716   1.890   1.128
 5923SOL    HW119666   8.718   1.937   1.044
 5923SOL    HW219667   8.791   1.924   1.176
 5924SOL     OW19668   5.507   8.678   2.173
 5924SOL    HW119669   5.420   8.645   2.194
 5924SOL    HW219670   5.539   8.619   2.105
 5925SOL     OW19671   7.414   8.385   9.978
 5925SOL    HW119672   7.485   8.388   9.914
 5925SOL    HW219673   7.431   8.306  10.029
 5926SOL     OW19674   1.484   0.992   8.001
 5926SOL    HW119675   1.487   0.905   7.961
 5926SOL    HW219676   1.493   0.975   8.095
 5927SOL     OW19677   2.403   7.700   2.513
 5927SOL    HW119678   2.442   7.702   2.426
 5927SOL    HW219679   2.387   7.792   2.534
 5928SOL     OW19680   2.674   0.442  10.140
 5928SOL    HW119681   2.687   0.349  10.118
 5928SOL    HW219682   2.627   0.478  10.065
 5929SOL     OW19683   8.850  12.256   5.944
 5929SOL    HW119684   8.765  12.260   5.987
 5929SOL    HW219685   8.863  12.163   5.925
 5930SOL     OW19686  10.751   8.108   4.879
 5930SOL    HW119687  10.809   8.172   4.920
 5930SOL    HW219688  10.680   8.095   4.942
 5931SOL     OW19689   3.115   2.868   8.896
 5931SOL    HW119690   3.110   2.959   8.927
 5931SOL    HW219691   3.133   2.817   8.975
 5932SOL     OW19692  12.663   9.558   7.191
 5932SOL    HW119693  12.714   9.494   7.141
 5932SOL    HW219694  12.677   9.641   7.146
 5933SOL     OW19695   3.486   8.153   8.038
 5933SOL    HW119696   3.553   8.220   8.048
 5933SOL    HW219697   3.535   8.071   8.031
 5934SOL     OW19698   1.349  12.305   7.212
 5934SOL    HW119699   1.301  12.284   7.291
 5934SOL    HW219700   1.294  12.272   7.141
 5935SOL     OW19701  10.980   7.696   9.562
 5935SOL    HW119702  10.909   7.716   9.500
 5935SOL    HW219703  10.993   7.777   9.611
 5936SOL     OW19704  11.219   0.403  12.061
 5936SOL    HW119705  11.301   0.451  12.054
 5936SOL    HW219706  11.151   0.471  12.053
 5937SOL     OW19707  13.500   1.106   6.171
 5937SOL    HW119708  13.515   1.018   6.207
 5937SOL    HW219709  13.555   1.163   6.224
 5938SOL     OW19710   1.161  12.550   5.960
 5938SOL    HW119711   1.131  12.641   5.963
 5938SOL    HW219712   1.169  12.531   5.866
 5939SOL     OW19713  13.896   3.045   3.854
 5939SOL    HW119714  13.891   2.970   3.913
 5939SOL    HW219715  13.984   3.040   3.816
 5940SOL     OW19716  12.226   5.456   8.500
 5940SOL    HW119717  12.221   5.520   8.571
 5940SOL    HW219718  12.269   5.504   8.428
 5941SOL     OW19719   0.509   2.074   0.342
 5941SOL    HW119720   0.539   2.025   0.266
 5941SOL    HW219721   0.499   2.164   0.310
 5942SOL     OW19722  13.082   7.997   7.798
 5942SOL    HW119723  13.004   8.047   7.772
 5942SOL    HW219724  13.067   7.978   7.891
 5943SOL     OW19725   6.957   7.270   2.694
 5943SOL    HW119726   6.875   7.235   2.659
 5943SOL    HW219727   6.977   7.214   2.769
 5944SOL     OW19728  12.802   0.714   1.476
 5944SOL    HW119729  12.888   0.746   1.504
 5944SOL    HW219730  12.778   0.770   1.403
 5945SOL     OW19731  10.717  13.924  14.583
 5945SOL    HW119732  10.674  13.846  14.550
 5945SOL    HW219733  10.660  13.996  14.556
 5946SOL     OW19734  14.218   8.826   2.646
 5946SOL    HW119735  14.242   8.828   2.553
 5946SOL    HW219736  14.164   8.748   2.656
 5947SOL     OW19737   6.054  12.296  14.325
 5947SOL    HW119738   5.969  12.252  14.324
 5947SOL    HW219739   6.087  12.286  14.236
 5948SOL     OW19740  12.343  12.380  14.712
 5948SOL    HW119741  12.302  12.453  14.758
 5948SOL    HW219742  12.297  12.302  14.744
 5949SOL     OW19743   3.524   2.822   0.833
 5949SOL    HW119744   3.532   2.728   0.815
 5949SOL    HW219745   3.613   2.856   0.822
 5950SOL     OW19746   8.465   5.546  11.396
 5950SOL    HW119747   8.546   5.534  11.347
 5950SOL    HW219748   8.493   5.577  11.482
 5951SOL     OW19749   9.364   5.415   5.421
 5951SOL    HW119750   9.394   5.328   5.395
 5951SOL    HW219751   9.390   5.423   5.513
 5952SOL     OW19752   2.459   9.385   7.316
 5952SOL    HW119753   2.449   9.370   7.222
 5952SOL    HW219754   2.444   9.479   7.328
 5953SOL     OW19755  11.620   3.557   8.877
 5953SOL    HW119756  11.680   3.580   8.806
 5953SOL    HW219757  11.563   3.490   8.838
 5954SOL     OW19758   4.573  13.028   8.418
 5954SOL    HW119759   4.583  13.089   8.346
 5954SOL    HW219760   4.518  13.075   8.482
 5955SOL     OW19761  11.420   1.746   8.871
 5955SOL    HW119762  11.406   1.803   8.947
 5955SOL    HW219763  11.451   1.804   8.802
 5956SOL     OW19764   8.283   8.118   8.359
 5956SOL    HW119765   8.239   8.195   8.324
 5956SOL    HW219766   8.220   8.048   8.349
 5957SOL     OW19767   5.277   9.653   2.632
 5957SOL    HW119768   5.289   9.682   2.723
 5957SOL    HW219769   5.183   9.662   2.617
 5958SOL     OW19770   7.037  10.210   3.783
 5958SOL    HW119771   7.100  10.204   3.855
 5958SOL    HW219772   7.089  10.190   3.705
 5959SOL     OW19773   5.903   1.473  13.643
 5959SOL    HW119774   5.968   1.531  13.680
 5959SOL    HW219775   5.936   1.453  13.555
 5960SOL     OW19776  11.740   3.767   4.967
 5960SOL    HW119777  11.778   3.817   4.894
 5960SOL    HW219778  11.674   3.711   4.926
 5961SOL     OW19779   8.212   5.851  10.979
 5961SOL    HW119780   8.235   5.891  10.895
 5961SOL    HW219781   8.226   5.757  10.966
 5962SOL     OW19782   8.038   1.904   9.327
 5962SOL    HW119783   8.026   1.897   9.422
 5962SOL    HW219784   8.131   1.882   9.313
 5963SOL     OW19785  14.560  14.360   8.587
 5963SOL    HW119786  14.645  14.384   8.625
 5963SOL    HW219787  14.501  14.356   8.663
 5964SOL     OW19788  10.935  13.716   7.677
 5964SOL    HW119789  10.851  13.677   7.702
 5964SOL    HW219790  10.914  13.771   7.602
 5965SOL     OW19791   4.839   3.655   5.498
 5965SOL    HW119792   4.782   3.714   5.449
 5965SOL    HW219793   4.903   3.625   5.433
 5966SOL     OW19794   8.602  14.188  11.023
 5966SOL    HW119795   8.661  14.264  11.027
 5966SOL    HW219796   8.651  14.122  10.975
 5967SOL     OW19797  10.530  13.586   9.083
 5967SOL    HW119798  10.544  13.605   9.176
 5967SOL    HW219799  10.477  13.660   9.052
 5968SOL     OW19800   1.027   0.164   7.178
 5968SOL    HW119801   1.058   0.078   7.207
 5968SOL    HW219802   1.063   0.225   7.242
 5969SOL     OW19803  12.642  13.750  10.007
 5969SOL    HW119804  12.677  13.703   9.932
 5969SOL    HW219805  12.548  13.755   9.992
 5970SOL     OW19806   7.718   6.991   6.391
 5970SOL    HW119807   7.633   7.002   6.349
 5970SOL    HW219808   7.753   6.910   6.354
 5971SOL     OW19809   8.073   8.663   5.919
 5971SOL    HW119810   8.029   8.725   5.860
 5971SOL    HW219811   8.133   8.615   5.861
 5972SOL     OW19812  12.027   0.502   6.682
 5972SOL    HW119813  12.021   0.548   6.598
 5972SOL    HW219814  12.105   0.448   6.675
 5973SOL     OW19815   2.419   3.756  11.776
 5973SOL    HW119816   2.399   3.706  11.696
 5973SOL    HW219817   2.395   3.697  11.847
 5974SOL     OW19818  12.639  12.777   4.176
 5974SOL    HW119819  12.553  12.737   4.189
 5974SOL    HW219820  12.692  12.709   4.135
 5975SOL     OW19821   4.556  10.356   2.902
 5975SOL    HW119822   4.599  10.281   2.944
 5975SOL    HW219823   4.507  10.399   2.972
 5976SOL     OW19824   8.047   2.963   4.691
 5976SOL    HW119825   7.976   2.899   4.697
 5976SOL    HW219826   8.088   2.946   4.606
 5977SOL     OW19827   6.122   3.280   8.746
 5977SOL    HW119828   6.163   3.279   8.833
 5977SOL    HW219829   6.144   3.365   8.710
 5978SOL     OW19830   5.472   3.270   8.511
 5978SOL    HW119831   5.464   3.248   8.603
 5978SOL    HW219832   5.432   3.197   8.465
 5979SOL     OW19833  10.831   6.373   3.977
 5979SOL    HW119834  10.850   6.405   3.888
 5979SOL    HW219835  10.884   6.295   3.986
 5980SOL     OW19836   1.357   1.233   4.062
 5980SOL    HW119837   1.393   1.146   4.076
 5980SOL    HW219838   1.434   1.290   4.056
 5981SOL     OW19839  14.794  10.404   5.927
 5981SOL    HW119840  14.845  10.484   5.915
 5981SOL    HW219841  14.716  10.416   5.873
 5982SOL     OW19842  12.249  12.199   3.810
 5982SOL    HW119843  12.179  12.226   3.751
 5982SOL    HW219844  12.246  12.262   3.881
 5983SOL     OW19845   7.822   9.827  11.086
 5983SOL    HW119846   7.918   9.830  11.085
 5983SOL    HW219847   7.795   9.916  11.064
 5984SOL     OW19848  12.593  11.256  10.336
 5984SOL    HW119849  12.658  11.239  10.404
 5984SOL    HW219850  12.643  11.299  10.266
 5985SOL     OW19851  14.114   1.242   1.943
 5985SOL    HW119852  14.047   1.251   2.010
 5985SOL    HW219853  14.066   1.237   1.861
 5986SOL     OW19854   3.990  14.447   3.036
 5986SOL    HW119855   3.991  14.377   3.101
 5986SOL    HW219856   3.930  14.512   3.072
 5987SOL     OW19857   3.892   8.115   4.195
 5987SOL    HW119858   3.937   8.128   4.112
 5987SOL    HW219859   3.826   8.184   4.198
 5988SOL     OW19860   2.568   8.345   7.914
 5988SOL    HW119861   2.621   8.300   7.848
 5988SOL    HW219862   2.482   8.303   7.909
 5989SOL     OW19863   4.091   4.358  11.245
 5989SOL    HW119864   4.085   4.353  11.340
 5989SOL    HW219865   4.160   4.296  11.222
 5990SOL     OW19866  12.407  13.974   4.677
 5990SOL    HW119867  12.418  13.968   4.772
 5990SOL    HW219868  12.491  13.945   4.641
 5991SOL     OW19869  11.474   2.900  11.901
 5991SOL    HW119870  11.388   2.871  11.871
 5991SOL    HW219871  11.533   2.830  11.874
 5992SOL     OW19872   8.085   6.461   3.524
 5992SOL    HW119873   8.019   6.470   3.592
 5992SOL    HW219874   8.153   6.407   3.563
 5993SOL     OW19875   2.001  10.598   3.189
 5993SOL    HW119876   2.021  10.691   3.179
 5993SOL    HW219877   1.988  10.566   3.100
 5994SOL     OW19878   0.378   9.974   7.666
 5994SOL    HW119879   0.305   9.984   7.726
 5994SOL    HW219880   0.426  10.056   7.673
 5995SOL     OW19881  11.594   6.081   5.373
 5995SOL    HW119882  11.530   6.033   5.427
 5995SOL    HW219883  11.614   6.020   5.302
 5996SOL     OW19884  12.681   3.066   7.649
 5996SOL    HW119885  12.612   3.123   7.617
 5996SOL    HW219886  12.689   2.998   7.582
 5997SOL     OW19887   0.854   2.601  14.028
 5997SOL    HW119888   0.895   2.557  14.103
 5997SOL    HW219889   0.923   2.660  13.996
 5998SOL     OW19890   5.583  14.563  10.928
 5998SOL    HW119891   5.603  14.628  10.995
 5998SOL    HW219892   5.609  14.480  10.968
 5999SOL     OW19893   5.765   4.992  12.630
 5999SOL    HW119894   5.745   5.025  12.718
 5999SOL    HW219895   5.786   5.071  12.580
 6000SOL     OW19896  13.427   2.295   8.085
 6000SOL    HW119897  13.395   2.345   8.010
 6000SOL    HW219898  13.356   2.300   8.149
 6001SOL     OW19899  13.000   7.748   0.953
 6001SOL    HW119900  12.946   7.801   1.011
 6001SOL    HW219901  12.940   7.722   0.882
 6002SOL     OW19902   6.961  13.880   0.039
 6002SOL    HW119903   7.055  13.884   0.056
 6002SOL    HW219904   6.936  13.791   0.062
 6003SOL     OW19905  14.162   6.278  13.088
 6003SOL    HW119906  14.228   6.279  13.158
 6003SOL    HW219907  14.180   6.197  13.040
 6004SOL     OW19908   3.343   8.437  13.710
 6004SOL    HW119909   3.279   8.381  13.666
 6004SOL    HW219910   3.331   8.523  13.670
 6005SOL     OW19911   5.408   5.856  12.777
 6005SOL    HW119912   5.373   5.780  12.729
 6005SOL    HW219913   5.331   5.895  12.819
 6006SOL     OW19914   7.632  11.124   8.441
 6006SOL    HW119915   7.709  11.174   8.467
 6006SOL    HW219916   7.661  11.033   8.442
 6007SOL     OW19917  14.489  12.222  12.795
 6007SOL    HW119918  14.571  12.268  12.812
 6007SOL    HW219919  14.472  12.239  12.702
 6008SOL     OW19920  12.656  10.449   8.372
 6008SOL    HW119921  12.746  10.419   8.386
 6008SOL    HW219922  12.635  10.422   8.283
 6009SOL     OW19923   1.050  12.929   7.295
 6009SOL    HW119924   0.977  12.988   7.278
 6009SOL    HW219925   1.126  12.987   7.303
 6010SOL     OW19926   4.656  10.188   7.637
 6010SOL    HW119927   4.592  10.259   7.632
 6010SOL    HW219928   4.690  10.192   7.726
 6011SOL     OW19929   0.792   5.141  13.651
 6011SOL    HW119930   0.839   5.221  13.677
 6011SOL    HW219931   0.800   5.139  13.556
 6012SOL     OW19932   9.257   9.038  12.703
 6012SOL    HW119933   9.184   9.031  12.641
 6012SOL    HW219934   9.234   8.979  12.774
 6013SOL     OW19935   0.246   2.496   5.756
 6013SOL    HW119936   0.186   2.469   5.687
 6013SOL    HW219937   0.234   2.431   5.825
 6014SOL     OW19938   3.049   7.371  13.629
 6014SOL    HW119939   3.066   7.298  13.689
 6014SOL    HW219940   2.964   7.350  13.590
 6015SOL     OW19941   6.858   8.886  10.771
 6015SOL    HW119942   6.863   8.814  10.834
 6015SOL    HW219943   6.826   8.961  10.822
 6016SOL     OW19944   1.672   7.101   6.227
 6016SOL    HW119945   1.648   7.156   6.302
 6016SOL    HW219946   1.733   7.155   6.176
 6017SOL     OW19947  13.194   2.555  11.414
 6017SOL    HW119948  13.146   2.521  11.490
 6017SOL    HW219949  13.166   2.499  11.342
 6018SOL     OW19950   7.607  10.282  11.195
 6018SOL    HW119951   7.548  10.344  11.238
 6018SOL    HW219952   7.555  10.202  11.186
 6019SOL     OW19953   3.221  14.356   9.898
 6019SOL    HW119954   3.197  14.279   9.950
 6019SOL    HW219955   3.164  14.426   9.931
 6020SOL     OW19956  10.006   5.686   7.284
 6020SOL    HW119957  10.090   5.644   7.266
 6020SOL    HW219958  10.002   5.691   7.380
 6021SOL     OW19959   3.730  11.129  11.164
 6021SOL    HW119960   3.662  11.140  11.098
 6021SOL    HW219961   3.746  11.035  11.166
 6022SOL     OW19962  11.445   3.115   3.649
 6022SOL    HW119963  11.370   3.126   3.590
 6022SOL    HW219964  11.416   3.051   3.714
 6023SOL     OW19965   7.904   8.237  10.924
 6023SOL    HW119966   7.972   8.299  10.899
 6023SOL    HW219967   7.857   8.280  10.996
 6024SOL     OW19968  10.815   1.026  13.108
 6024SOL    HW119969  10.726   1.059  13.096
 6024SOL    HW219970  10.869   1.082  13.052
 6025SOL     OW19971   5.599  14.831   5.500
 6025SOL    HW119972   5.643  14.751   5.469
 6025SOL    HW219973   5.668   0.013   5.540
 6026SOL     OW19974   9.097   8.433   6.910
 6026SOL    HW119975   9.024   8.371   6.912
 6026SOL    HW219976   9.112   8.449   6.817
 6027SOL     OW19977   4.445   5.954  13.768
 6027SOL    HW119978   4.470   5.904  13.845
 6027SOL    HW219979   4.525   5.957  13.715
 6028SOL     OW19980   8.724  12.807  12.444
 6028SOL    HW119981   8.689  12.753  12.372
 6028SOL    HW219982   8.667  12.787  12.518
 6029SOL     OW19983   2.634  11.347   5.006
 6029SOL    HW119984   2.709  11.361   5.064
 6029SOL    HW219985   2.665  11.372   4.919
 6030SOL     OW19986  12.760  13.909  10.678
 6030SOL    HW119987  12.764  13.906  10.774
 6030SOL    HW219988  12.846  13.878  10.649
 6031SOL     OW19989  13.444   7.015   4.939
 6031SOL    HW119990  13.352   6.998   4.955
 6031SOL    HW219991  13.447   7.053   4.852
 6032SOL     OW19992   8.319  11.642   6.667
 6032SOL    HW119993   8.414  11.648   6.678
 6032SOL    HW219994   8.307  11.584   6.591
 6033SOL     OW19995  13.622   3.449  10.352
 6033SOL    HW119996  13.602   3.516  10.417
 6033SOL    HW219997  13.537   3.424  10.317
 6034SOL     OW19998  11.077   0.478  13.691
 6034SOL    HW119999  11.160   0.525  13.682
 6034SOL    HW220000  11.027   0.530  13.754
 6035SOL     OW20001   4.778   3.540   0.301
 6035SOL    HW120002   4.703   3.555   0.243
 6035SOL    HW220003   4.815   3.627   0.315
 6036SOL     OW20004  12.938   7.688  10.922
 6036SOL    HW120005  12.959   7.723  10.835
 6036SOL    HW220006  12.935   7.593  10.909
 6037SOL     OW20007   7.214  13.590   3.903
 6037SOL    HW120008   7.134  13.596   3.955
 6037SOL    HW220009   7.280  13.557   3.963
 6038SOL     OW20010  12.009  10.681  12.087
 6038SOL    HW120011  12.053  10.621  12.027
 6038SOL    HW220012  12.048  10.766  12.069
 6039SOL     OW20013   6.494   5.704   1.002
 6039SOL    HW120014   6.522   5.658   1.081
 6039SOL    HW220015   6.398   5.700   1.004
 6040SOL     OW20016  10.316   8.053  14.014
 6040SOL    HW120017  10.290   7.984  13.952
 6040SOL    HW220018  10.385   8.012  14.067
 6041SOL     OW20019  12.965   2.403   7.047
 6041SOL    HW120020  13.056   2.430   7.037
 6041SOL    HW220021  12.922   2.436   6.968
 6042SOL     OW20022  14.411   7.913  13.925
 6042SOL    HW120023  14.473   7.846  13.895
 6042SOL    HW220024  14.339   7.909  13.861
 6043SOL     OW20025  10.074   6.830   0.930
 6043SOL    HW120026  10.007   6.842   0.863
 6043SOL    HW220027  10.117   6.915   0.936
 6044SOL     OW20028   4.969  13.904   2.801
 6044SOL    HW120029   5.001  13.928   2.715
 6044SOL    HW220030   4.922  13.821   2.787
 6045SOL     OW20031   9.323  14.077   1.512
 6045SOL    HW120032   9.246  14.113   1.556
 6045SOL    HW220033   9.336  13.991   1.552
 6046SOL     OW20034   0.965  10.999  13.442
 6046SOL    HW120035   0.942  11.088  13.470
 6046SOL    HW220036   0.883  10.962  13.410
 6047SOL     OW20037  12.183  10.193   7.498
 6047SOL    HW120038  12.107  10.248   7.476
 6047SOL    HW220039  12.223  10.173   7.413
 6048SOL     OW20040   8.933   8.954  10.641
 6048SOL    HW120041   8.957   8.966  10.733
 6048SOL    HW220042   9.016   8.951  10.595
 6049SOL     OW20043   7.832   5.080   0.371
 6049SOL    HW120044   7.864   5.024   0.442
 6049SOL    HW220045   7.849   5.169   0.401
 6050SOL     OW20046   9.093   3.376  11.006
 6050SOL    HW120047   9.127   3.451  11.055
 6050SOL    HW220048   9.085   3.307  11.072
 6051SOL     OW20049   8.710   1.720   8.132
 6051SOL    HW120050   8.802   1.699   8.113
 6051SOL    HW220051   8.690   1.793   8.075
 6052SOL     OW20052  11.016   1.752   9.568
 6052SOL    HW120053  10.950   1.685   9.588
 6052SOL    HW220054  10.965   1.828   9.542
 6053SOL     OW20055   8.377   3.703   5.962
 6053SOL    HW120056   8.448   3.640   5.954
 6053SOL    HW220057   8.340   3.710   5.874
 6054SOL     OW20058  11.145  11.285  13.887
 6054SOL    HW120059  11.166  11.219  13.952
 6054SOL    HW220060  11.204  11.265  13.813
 6055SOL     OW20061   9.810   9.806  13.242
 6055SOL    HW120062   9.739   9.867  13.261
 6055SOL    HW220063   9.804   9.793  13.147
 6056SOL     OW20064  11.256   8.979   3.050
 6056SOL    HW120065  11.309   8.904   3.077
 6056SOL    HW220066  11.280   9.048   3.113
 6057SOL     OW20067   4.447   8.599   3.615
 6057SOL    HW120068   4.382   8.649   3.566
 6057SOL    HW220069   4.522   8.591   3.556
 6058SOL     OW20070  13.729   7.251   4.441
 6058SOL    HW120071  13.767   7.296   4.517
 6058SOL    HW220072  13.804   7.218   4.392
 6059SOL     OW20073   1.157  12.000  14.149
 6059SOL    HW120074   1.102  11.953  14.086
 6059SOL    HW220075   1.219  11.934  14.180
 6060SOL     OW20076  14.066   7.212   5.185
 6060SOL    HW120077  14.015   7.155   5.127
 6060SOL    HW220078  14.015   7.215   5.266
 6061SOL     OW20079  12.561  10.936  14.105
 6061SOL    HW120080  12.593  10.997  14.171
 6061SOL    HW220081  12.469  10.924  14.125
 6062SOL     OW20082   1.732   8.820   1.391
 6062SOL    HW120083   1.798   8.844   1.456
 6062SOL    HW220084   1.781   8.777   1.321
 6063SOL     OW20085   4.558   0.995  10.906
 6063SOL    HW120086   4.615   1.051  10.853
 6063SOL    HW220087   4.486   0.972  10.847
 6064SOL     OW20088   9.403   4.423   4.850
 6064SOL    HW120089   9.474   4.472   4.892
 6064SOL    HW220090   9.333   4.487   4.840
 6065SOL     OW20091  12.602   9.589  14.722
 6065SOL    HW120092  12.621   9.683  14.725
 6065SOL    HW220093  12.538   9.580  14.652
 6066SOL     OW20094   6.522  12.657   4.382
 6066SOL    HW120095   6.543  12.660   4.289
 6066SOL    HW220096   6.426  12.659   4.385
 6067SOL     OW20097   8.909   0.299   5.697
 6067SOL    HW120098   9.002   0.284   5.707
 6067SOL    HW220099   8.902   0.390   5.668
 6068SOL     OW20100  10.383   5.105   6.495
 6068SOL    HW120101  10.390   5.016   6.528
 6068SOL    HW220102  10.436   5.157   6.556
 6069SOL     OW20103   1.022   1.763   4.960
 6069SOL    HW120104   1.058   1.736   5.044
 6069SOL    HW220105   0.934   1.794   4.980
 6070SOL     OW20106  11.114   9.670  12.983
 6070SOL    HW120107  11.054   9.595  12.983
 6070SOL    HW220108  11.115   9.700  13.074
 6071SOL     OW20109   5.201   8.934  10.663
 6071SOL    HW120110   5.195   9.018  10.619
 6071SOL    HW220111   5.141   8.877  10.614
 6072SOL     OW20112  14.238   5.419   7.939
 6072SOL    HW120113  14.272   5.331   7.956
 6072SOL    HW220114  14.309   5.478   7.966
 6073SOL     OW20115  10.904   3.665  13.683
 6073SOL    HW120116  10.907   3.711  13.598
 6073SOL    HW220117  10.811   3.649  13.699
 6074SOL     OW20118   1.018   0.598   3.037
 6074SOL    HW120119   1.089   0.642   3.084
 6074SOL    HW220120   1.037   0.614   2.944
 6075SOL     OW20121   1.245   4.922  10.749
 6075SOL    HW120122   1.172   4.939  10.689
 6075SOL    HW220123   1.289   5.006  10.757
 6076SOL     OW20124   6.985  11.952   6.613
 6076SOL    HW120125   6.933  11.903   6.677
 6076SOL    HW220126   6.976  12.044   6.640
 6077SOL     OW20127   0.033   3.456   4.168
 6077SOL    HW120128  14.849   3.420   4.098
 6077SOL    HW220129  14.850   3.526   4.206
 6078SOL     OW20130   0.726   9.353   6.182
 6078SOL    HW120131   0.758   9.443   6.182
 6078SOL    HW220132   0.632   9.361   6.197
 6079SOL     OW20133  14.650   5.029  10.131
 6079SOL    HW120134  14.686   5.093  10.192
 6079SOL    HW220135  14.668   4.944  10.170
 6080SOL     OW20136  10.073  10.713   9.179
 6080SOL    HW120137  10.102  10.628   9.146
 6080SOL    HW220138  10.032  10.756   9.104
 6081SOL     OW20139  13.823   0.389  10.705
 6081SOL    HW120140  13.793   0.442  10.631
 6081SOL    HW220141  13.750   0.389  10.766
 6082SOL     OW20142   3.427   4.825   8.019
 6082SOL    HW120143   3.368   4.824   7.943
 6082SOL    HW220144   3.501   4.879   7.991
 6083SOL     OW20145   3.933   2.469  11.096
 6083SOL    HW120146   4.023   2.475  11.129
 6083SOL    HW220147   3.905   2.560  11.085
 6084SOL     OW20148  10.119   0.107   3.714
 6084SOL    HW120149  10.154   0.173   3.774
 6084SOL    HW220150  10.030   0.090   3.746
 6085SOL     OW20151   5.327   4.596   5.089
 6085SOL    HW120152   5.297   4.570   5.002
 6085SOL    HW220153   5.262   4.658   5.120
 6086SOL     OW20154  10.156   4.445   7.906
 6086SOL    HW120155  10.222   4.453   7.974
 6086SOL    HW220156  10.202   4.402   7.834
 6087SOL     OW20157  14.088  10.342   7.029
 6087SOL    HW120158  14.122  10.330   6.941
 6087SOL    HW220159  14.065  10.434   7.034
 6088SOL     OW20160   7.867   6.079  10.747
 6088SOL    HW120161   7.784   6.045  10.711
 6088SOL    HW220162   7.841   6.123  10.828
 6089SOL     OW20163   6.122   9.477   3.001
 6089SOL    HW120164   6.087   9.504   3.086
 6089SOL    HW220165   6.202   9.430   3.022
 6090SOL     OW20166   9.825   5.597   2.101
 6090SOL    HW120167   9.774   5.664   2.056
 6090SOL    HW220168   9.787   5.592   2.189
 6091SOL     OW20169   7.481  12.008   9.112
 6091SOL    HW120170   7.514  12.010   9.022
 6091SOL    HW220171   7.560  11.994   9.166
 6092SOL     OW20172   9.964   3.930   7.292
 6092SOL    HW120173   9.908   3.979   7.232
 6092SOL    HW220174   9.979   3.990   7.365
 6093SOL     OW20175   8.741  10.869   9.491
 6093SOL    HW120176   8.814  10.905   9.542
 6093SOL    HW220177   8.773  10.784   9.462
 6094SOL     OW20178  11.835  13.262   6.608
 6094SOL    HW120179  11.743  13.250   6.582
 6094SOL    HW220180  11.838  13.351   6.643
 6095SOL     OW20181   1.411   8.321   8.458
 6095SOL    HW120182   1.380   8.357   8.541
 6095SOL    HW220183   1.458   8.241   8.483
 6096SOL     OW20184   5.619   1.059   5.621
 6096SOL    HW120185   5.701   1.064   5.573
 6096SOL    HW220186   5.566   1.129   5.585
 6097SOL     OW20187   8.323  14.628   3.992
 6097SOL    HW120188   8.418  14.627   3.980
 6097SOL    HW220189   8.303  14.714   4.029
 6098SOL     OW20190   5.838   0.073   7.470
 6098SOL    HW120191   5.753   0.075   7.514
 6098SOL    HW220192   5.883   0.152   7.500
 6099SOL     OW20193  10.111   6.226   2.292
 6099SOL    HW120194  10.070   6.285   2.355
 6099SOL    HW220195  10.120   6.143   2.339
 6100SOL     OW20196   3.970   4.799   2.736
 6100SOL    HW120197   4.057   4.839   2.745
 6100SOL    HW220198   3.932   4.840   2.659
 6101SOL     OW20199  12.036  10.897   8.466
 6101SOL    HW120200  12.097  10.956   8.422
 6101SOL    HW220201  12.082  10.813   8.469
 6102SOL     OW20202  12.744  10.763   4.928
 6102SOL    HW120203  12.720  10.696   4.991
 6102SOL    HW220204  12.772  10.837   4.981
 6103SOL     OW20205  12.580  14.524   0.238
 6103SOL    HW120206  12.631  14.443   0.242
 6103SOL    HW220207  12.597  14.558   0.150
 6104SOL     OW20208  13.114  13.712   5.309
 6104SOL    HW120209  13.055  13.769   5.358
 6104SOL    HW220210  13.069  13.696   5.226
 6105SOL     OW20211   8.673   6.893   3.543
 6105SOL    HW120212   8.601   6.892   3.480
 6105SOL    HW220213   8.748   6.927   3.494
 6106SOL     OW20214  14.786  10.321   2.216
 6106SOL    HW120215  14.779  10.373   2.297
 6106SOL    HW220216  14.713  10.259   2.222
 6107SOL     OW20217  12.356   8.683  12.221
 6107SOL    HW120218  12.282   8.633  12.189
 6107SOL    HW220219  12.431   8.624  12.212
 6108SOL     OW20220   0.395  11.583   9.753
 6108SOL    HW120221   0.415  11.575   9.846
 6108SOL    HW220222   0.420  11.673   9.731
 6109SOL     OW20223   2.500   0.985   6.284
 6109SOL    HW120224   2.467   0.925   6.351
 6109SOL    HW220225   2.516   1.067   6.331
 6110SOL     OW20226  10.187  10.585  12.895
 6110SOL    HW120227  10.184  10.579  12.799
 6110SOL    HW220228  10.222  10.672  12.913
 6111SOL     OW20229   9.593  11.480   0.646
 6111SOL    HW120230   9.668  11.424   0.664
 6111SOL    HW220231   9.631  11.567   0.629
 6112SOL     OW20232  14.340   5.111  12.059
 6112SOL    HW120233  14.428   5.139  12.086
 6112SOL    HW220234  14.329   5.148  11.972
 6113SOL     OW20235  13.222   2.361  11.216
 6113SOL    HW120236  13.198   2.395  11.130
 6113SOL    HW220237  13.214   2.266  11.208
 6114SOL     OW20238   8.788   9.126   4.555
 6114SOL    HW120239   8.774   9.051   4.498
 6114SOL    HW220240   8.712   9.183   4.538
 6115SOL     OW20241   0.636  13.878   5.297
 6115SOL    HW120242   0.613  13.871   5.389
 6115SOL    HW220243   0.623  13.971   5.276
 6116SOL     OW20244  12.807   2.848  14.684
 6116SOL    HW120245  12.888   2.828  14.731
 6116SOL    HW220246  12.831   2.919  14.625
 6117SOL     OW20247  11.179  12.183  11.520
 6117SOL    HW120248  11.245  12.189  11.451
 6117SOL    HW220249  11.106  12.235  11.488
 6118SOL     OW20250   0.236  13.652  11.443
 6118SOL    HW120251   0.235  13.597  11.365
 6118SOL    HW220252   0.203  13.596  11.513
 6119SOL     OW20253   0.551  11.055   1.459
 6119SOL    HW120254   0.642  11.031   1.474
 6119SOL    HW220255   0.551  11.099   1.374
 6120SOL     OW20256   4.763   3.549   7.536
 6120SOL    HW120257   4.674   3.545   7.501
 6120SOL    HW220258   4.788   3.457   7.548
 6121SOL     OW20259   9.710  11.233   5.929
 6121SOL    HW120260   9.655  11.251   5.853
 6121SOL    HW220261   9.674  11.153   5.968
 6122SOL     OW20262   2.246   7.686  12.781
 6122SOL    HW120263   2.268   7.645  12.697
 6122SOL    HW220264   2.183   7.755  12.759
 6123SOL     OW20265   5.336   4.299  12.611
 6123SOL    HW120266   5.351   4.375  12.554
 6123SOL    HW220267   5.378   4.226  12.565
 6124SOL     OW20268   5.831   2.092  11.152
 6124SOL    HW120269   5.796   2.139  11.076
 6124SOL    HW220270   5.813   2.150  11.226
 6125SOL     OW20271   6.706   4.365  13.874
 6125SOL    HW120272   6.634   4.339  13.930
 6125SOL    HW220273   6.768   4.409  13.932
 6126SOL     OW20274  10.354   6.032  12.187
 6126SOL    HW120275  10.408   6.109  12.168
 6126SOL    HW220276  10.292   6.027  12.114
 6127SOL     OW20277  11.011  13.435   1.888
 6127SOL    HW120278  11.076  13.364   1.889
 6127SOL    HW220279  11.048  13.502   1.946
 6128SOL     OW20280  11.522   6.588   0.115
 6128SOL    HW120281  11.613   6.592   0.087
 6128SOL    HW220282  11.498   6.496   0.104
 6129SOL     OW20283   4.630  14.594   8.717
 6129SOL    HW120284   4.712  14.585   8.764
 6129SOL    HW220285   4.569  14.536   8.762
 6130SOL     OW20286  12.907  12.383   0.527
 6130SOL    HW120287  12.925  12.463   0.576
 6130SOL    HW220288  12.813  12.371   0.534
 6131SOL     OW20289   4.364   7.080   6.052
 6131SOL    HW120290   4.390   7.065   6.143
 6131SOL    HW220291   4.288   7.139   6.058
 6132SOL     OW20292  11.864   2.494   3.039
 6132SOL    HW120293  11.888   2.572   3.089
 6132SOL    HW220294  11.894   2.512   2.950
 6133SOL     OW20295  11.970  14.489  13.032
 6133SOL    HW120296  11.961  14.394  13.028
 6133SOL    HW220297  12.050  14.508  12.982
 6134SOL     OW20298   8.002  13.154   4.847
 6134SOL    HW120299   8.036  13.211   4.778
 6134SOL    HW220300   8.054  13.074   4.840
 6135SOL     OW20301   3.142   7.635   6.286
 6135SOL    HW120302   3.141   7.660   6.378
 6135SOL    HW220303   3.222   7.585   6.275
 6136SOL     OW20304   5.079   7.990   8.089
 6136SOL    HW120305   5.100   7.897   8.088
 6136SOL    HW220306   5.153   8.031   8.135
 6137SOL     OW20307   6.601   5.030   7.157
 6137SOL    HW120308   6.589   4.990   7.071
 6137SOL    HW220309   6.615   5.123   7.138
 6138SOL     OW20310   9.095   0.722  14.270
 6138SOL    HW120311   9.146   0.798  14.298
 6138SOL    HW220312   9.107   0.658  14.341
 6139SOL     OW20313   5.807   0.345  12.999
 6139SOL    HW120314   5.749   0.405  12.954
 6139SOL    HW220315   5.783   0.258  12.966
 6140SOL     OW20316   0.320   2.701   2.072
 6140SOL    HW120317   0.350   2.750   1.995
 6140SOL    HW220318   0.225   2.705   2.067
 6141SOL     OW20319   5.168   7.629  13.997
 6141SOL    HW120320   5.179   7.546  14.043
 6141SOL    HW220321   5.222   7.691  14.046
 6142SOL     OW20322  13.608  10.693   2.207
 6142SOL    HW120323  13.579  10.667   2.120
 6142SOL    HW220324  13.636  10.784   2.197
 6143SOL     OW20325   7.432  13.189   7.759
 6143SOL    HW120326   7.354  13.236   7.727
 6143SOL    HW220327   7.399  13.132   7.829
 6144SOL     OW20328   3.628   0.762   3.916
 6144SOL    HW120329   3.631   0.799   3.828
 6144SOL    HW220330   3.584   0.678   3.905
 6145SOL     OW20331   4.305   9.376   0.717
 6145SOL    HW120332   4.344   9.295   0.682
 6145SOL    HW220333   4.214   9.352   0.736
 6146SOL     OW20334   8.252   1.153  12.008
 6146SOL    HW120335   8.160   1.127  12.012
 6146SOL    HW220336   8.289   1.120  12.090
 6147SOL     OW20337  11.873   9.910   4.233
 6147SOL    HW120338  11.895   9.819   4.212
 6147SOL    HW220339  11.853   9.950   4.148
 6148SOL     OW20340   6.913   7.084   5.722
 6148SOL    HW120341   6.951   7.148   5.782
 6148SOL    HW220342   6.862   7.137   5.660
 6149SOL     OW20343  12.971   8.660   1.298
 6149SOL    HW120344  13.026   8.718   1.245
 6149SOL    HW220345  13.009   8.573   1.286
 6150SOL     OW20346   7.468   1.538   9.016
 6150SOL    HW120347   7.563   1.524   9.021
 6150SOL    HW220348   7.458   1.607   8.951
 6151SOL     OW20349  14.514   4.772   1.694
 6151SOL    HW120350  14.517   4.832   1.768
 6151SOL    HW220351  14.496   4.827   1.618
 6152SOL     OW20352  10.513  11.289   3.957
 6152SOL    HW120353  10.534  11.372   3.999
 6152SOL    HW220354  10.588  11.233   3.974
 6153SOL     OW20355  13.982   5.738   7.794
 6153SOL    HW120356  13.934   5.666   7.835
 6153SOL    HW220357  13.916   5.805   7.777
 6154SOL     OW20358  12.509   5.942  11.181
 6154SOL    HW120359  12.467   5.945  11.267
 6154SOL    HW220360  12.521   6.034  11.157
 6155SOL     OW20361   2.516   3.623   7.730
 6155SOL    HW120362   2.540   3.551   7.673
 6155SOL    HW220363   2.551   3.701   7.688
 6156SOL     OW20364  13.620  14.330  10.824
 6156SOL    HW120365  13.634  14.238  10.845
 6156SOL    HW220366  13.695  14.375  10.864
 6157SOL     OW20367   7.725  11.514   1.390
 6157SOL    HW120368   7.787  11.453   1.428
 6157SOL    HW220369   7.722  11.491   1.297
 6158SOL     OW20370  10.708  10.452  14.047
 6158SOL    HW120371  10.692  10.533  14.095
 6158SOL    HW220372  10.730  10.388  14.114
 6159SOL     OW20373   8.158  11.745   6.207
 6159SOL    HW120374   8.166  11.714   6.298
 6159SOL    HW220375   8.147  11.665   6.156
 6160SOL     OW20376   9.764  13.919   2.363
 6160SOL    HW120377   9.738  13.829   2.341
 6160SOL    HW220378   9.751  13.968   2.282
 6161SOL     OW20379   3.037   2.265   2.906
 6161SOL    HW120380   3.043   2.198   2.974
 6161SOL    HW220381   2.943   2.278   2.894
 6162SOL     OW20382  14.368  11.952  11.705
 6162SOL    HW120383  14.273  11.967  11.701
 6162SOL    HW220384  14.383  11.919  11.793
 6163SOL     OW20385   8.633   6.627  14.787
 6163SOL    HW120386   8.610   6.534  14.786
 6163SOL    HW220387   8.578   6.664  14.856
 6164SOL     OW20388   0.875  12.977  10.804
 6164SOL    HW120389   0.793  12.978  10.754
 6164SOL    HW220390   0.861  13.042  10.873
 6165SOL     OW20391  10.984  14.448   1.283
 6165SOL    HW120392  11.019  14.531   1.251
 6165SOL    HW220393  11.034  14.381   1.237
 6166SOL     OW20394   0.858   1.088  11.061
 6166SOL    HW120395   0.878   1.062  10.971
 6166SOL    HW220396   0.898   1.020  11.115
 6167SOL     OW20397   7.254  14.604  11.147
 6167SOL    HW120398   7.238  14.525  11.095
 6167SOL    HW220399   7.280  14.571  11.233
 6168SOL     OW20400  13.457  10.075   8.680
 6168SOL    HW120401  13.493  10.160   8.708
 6168SOL    HW220402  13.389  10.098   8.616
 6169SOL     OW20403   8.738   6.242   7.885
 6169SOL    HW120404   8.821   6.246   7.932
 6169SOL    HW220405   8.761   6.213   7.797
 6170SOL     OW20406   8.539   8.262   6.179
 6170SOL    HW120407   8.523   8.241   6.271
 6170SOL    HW220408   8.625   8.224   6.161
 6171SOL     OW20409   3.112  13.979   4.301
 6171SOL    HW120410   3.126  13.985   4.207
 6171SOL    HW220411   3.054  13.903   4.311
 6172SOL     OW20412   8.532   5.695   5.910
 6172SOL    HW120413   8.437   5.688   5.913
 6172SOL    HW220414   8.562   5.604   5.898
 6173SOL     OW20415   4.136   6.404  10.490
 6173SOL    HW120416   4.165   6.455  10.414
 6173SOL    HW220417   4.076   6.339  10.454
 6174SOL     OW20418   9.350   6.547  14.736
 6174SOL    HW120419   9.385   6.574  14.651
 6174SOL    HW220420   9.256   6.542  14.724
 6175SOL     OW20421  14.776   3.837  11.645
 6175SOL    HW120422  14.702   3.889  11.614
 6175SOL    HW220423  14.750   3.807  11.732
 6176SOL     OW20424   0.858  11.749  12.282
 6176SOL    HW120425   0.828  11.789  12.363
 6176SOL    HW220426   0.929  11.691  12.308
 6177SOL     OW20427  10.865   8.440   1.830
 6177SOL    HW120428  10.829   8.389   1.902
 6177SOL    HW220429  10.960   8.440   1.845
 6178SOL     OW20430  13.410   4.247   8.069
 6178SOL    HW120431  13.327   4.218   8.030
 6178SOL    HW220432  13.384   4.302   8.143
 6179SOL     OW20433   1.464   3.555   7.199
 6179SOL    HW120434   1.469   3.464   7.230
 6179SOL    HW220435   1.520   3.557   7.122
 6180SOL     OW20436  11.089  14.111   2.732
 6180SOL    HW120437  11.099  14.124   2.638
 6180SOL    HW220438  11.131  14.026   2.749
 6181SOL     OW20439   2.539   3.300   2.881
 6181SOL    HW120440   2.618   3.253   2.906
 6181SOL    HW220441   2.480   3.233   2.848
 6182SOL     OW20442   4.901   4.176   6.877
 6182SOL    HW120443   4.910   4.268   6.901
 6182SOL    HW220444   4.969   4.162   6.812
 6183SOL     OW20445  13.831   0.767   6.815
 6183SOL    HW120446  13.927   0.765   6.826
 6183SOL    HW220447  13.817   0.740   6.724
 6184SOL     OW20448  11.564   1.029   9.107
 6184SOL    HW120449  11.522   1.113   9.092
 6184SOL    HW220450  11.501   0.980   9.160
 6185SOL     OW20451   4.791   3.332   8.426
 6185SOL    HW120452   4.844   3.326   8.505
 6185SOL    HW220453   4.797   3.425   8.401
 6186SOL     OW20454  11.723   1.758   0.227
 6186SOL    HW120455  11.638   1.736   0.188
 6186SOL    HW220456  11.787   1.733   0.160
 6187SOL     OW20457  11.208   3.673  12.235
 6187SOL    HW120458  11.175   3.746  12.289
 6187SOL    HW220459  11.286   3.644  12.281
 6188SOL     OW20460   7.943   5.805   4.362
 6188SOL    HW120461   7.879   5.809   4.433
 6188SOL    HW220462   7.920   5.879   4.305
 6189SOL     OW20463   1.892   6.616   9.114
 6189SOL    HW120464   1.824   6.650   9.056
 6189SOL    HW220465   1.848   6.551   9.169
 6190SOL     OW20466  14.319  13.155   8.457
 6190SOL    HW120467  14.267  13.089   8.411
 6190SOL    HW220468  14.288  13.152   8.547
 6191SOL     OW20469  13.021  11.292  11.587
 6191SOL    HW120470  13.107  11.251  11.600
 6191SOL    HW220471  12.959  11.230  11.625
 6192SOL     OW20472   6.427   3.127  11.908
 6192SOL    HW120473   6.473   3.141  11.990
 6192SOL    HW220474   6.406   3.033  11.908
 6193SOL     OW20475   1.121   4.165  12.898
 6193SOL    HW120476   1.066   4.230  12.941
 6193SOL    HW220477   1.078   4.149  12.814
 6194SOL     OW20478   3.247   6.160  13.730
 6194SOL    HW120479   3.287   6.136  13.814
 6194SOL    HW220480   3.301   6.232  13.698
 6195SOL     OW20481   7.262   6.595   2.401
 6195SOL    HW120482   7.285   6.537   2.473
 6195SOL    HW220483   7.258   6.682   2.441
 6196SOL     OW20484   3.714   1.417   3.383
 6196SOL    HW120485   3.738   1.370   3.303
 6196SOL    HW220486   3.797   1.441   3.423
 6197SOL     OW20487   4.028   1.481   1.426
 6197SOL    HW120488   3.968   1.487   1.500
 6197SOL    HW220489   3.972   1.488   1.349
 6198SOL     OW20490   0.295  10.501   8.125
 6198SOL    HW120491   0.212  10.474   8.085
 6198SOL    HW220492   0.318  10.583   8.080
 6199SOL     OW20493   9.358   0.828   1.538
 6199SOL    HW120494   9.268   0.839   1.567
 6199SOL    HW220495   9.350   0.803   1.446
 6200SOL     OW20496  12.296   3.363   0.794
 6200SOL    HW120497  12.218   3.315   0.821
 6200SOL    HW220498  12.274   3.455   0.808
 6201SOL     OW20499  12.653  10.209   0.926
 6201SOL    HW120500  12.696  10.219   1.011
 6201SOL    HW220501  12.721  10.226   0.862
 6202SOL     OW20502   8.870   2.658   0.291
 6202SOL    HW120503   8.956   2.623   0.266
 6202SOL    HW220504   8.847   2.611   0.371
 6203SOL     OW20505  14.645   1.687   9.015
 6203SOL    HW120506  14.733   1.724   9.006
 6203SOL    HW220507  14.658   1.610   9.071
 6204SOL     OW20508   4.174  13.490   3.118
 6204SOL    HW120509   4.096  13.507   3.171
 6204SOL    HW220510   4.201  13.577   3.087
 6205SOL     OW20511  11.162  10.807   9.002
 6205SOL    HW120512  11.154  10.847   9.089
 6205SOL    HW220513  11.256  10.791   8.991
 6206SOL     OW20514   9.143   3.086   9.108
 6206SOL    HW120515   9.147   3.048   9.195
 6206SOL    HW220516   9.069   3.147   9.112
 6207SOL     OW20517  12.450   5.931   9.627
 6207SOL    HW120518  12.457   5.835   9.628
 6207SOL    HW220519  12.540   5.961   9.612
 6208SOL     OW20520   2.640   7.885   9.962
 6208SOL    HW120521   2.702   7.900  10.033
 6208SOL    HW220522   2.614   7.972   9.933
 6209SOL     OW20523  10.797  13.042   0.051
 6209SOL    HW120524  10.872  13.023   0.107
 6209SOL    HW220525  10.746  13.107   0.101
 6210SOL     OW20526   5.185   6.482   9.776
 6210SOL    HW120527   5.164   6.458   9.866
 6210SOL    HW220528   5.125   6.430   9.723
 6211SOL     OW20529   9.973  13.020  13.661
 6211SOL    HW120530   9.886  13.011  13.699
 6211SOL    HW220531   9.977  13.111  13.631
 6212SOL     OW20532   3.223   6.206   2.429
 6212SOL    HW120533   3.268   6.289   2.413
 6212SOL    HW220534   3.145   6.210   2.374
 6213SOL     OW20535   1.289   6.621  10.162
 6213SOL    HW120536   1.366   6.596  10.212
 6213SOL    HW220537   1.228   6.657  10.228
 6214SOL     OW20538   1.204  12.965   1.228
 6214SOL    HW120539   1.267  13.012   1.283
 6214SOL    HW220540   1.226  12.873   1.241
 6215SOL     OW20541  13.261  12.097  11.591
 6215SOL    HW120542  13.291  12.087  11.501
 6215SOL    HW220543  13.175  12.056  11.592
 6216SOL     OW20544  13.474   8.692  10.283
 6216SOL    HW120545  13.441   8.648  10.361
 6216SOL    HW220546  13.536   8.757  10.316
 6217SOL     OW20547   4.381   4.447  12.945
 6217SOL    HW120548   4.438   4.504  12.893
 6217SOL    HW220549   4.293   4.470  12.917
 6218SOL     OW20550   6.840   8.452   6.477
 6218SOL    HW120551   6.848   8.488   6.565
 6218SOL    HW220552   6.752   8.414   6.474
 6219SOL     OW20553  12.848  12.957   4.124
 6219SOL    HW120554  12.787  12.887   4.102
 6219SOL    HW220555  12.830  12.975   4.216
 6220SOL     OW20556  14.086   8.661   0.181
 6220SOL    HW120557  14.004   8.614   0.187
 6220SOL    HW220558  14.065   8.739   0.129
 6221SOL     OW20559  10.767   4.538  11.404
 6221SOL    HW120560  10.830   4.601  11.438
 6221SOL    HW220561  10.724   4.503  11.483
 6222SOL     OW20562  14.683   2.565   5.125
 6222SOL    HW120563  14.769   2.578   5.086
 6222SOL    HW220564  14.663   2.649   5.167
 6223SOL     OW20565  10.296   7.256  14.406
 6223SOL    HW120566  10.306   7.161  14.413
 6223SOL    HW220567  10.370   7.292  14.456
 6224SOL     OW20568   1.283   6.127   0.242
 6224SOL    HW120569   1.207   6.121   0.186
 6224SOL    HW220570   1.354   6.086   0.192
 6225SOL     OW20571   8.251  13.641   2.236
 6225SOL    HW120572   8.178  13.579   2.237
 6225SOL    HW220573   8.238  13.695   2.314
 6226SOL     OW20574   7.497  11.460  13.231
 6226SOL    HW120575   7.529  11.373  13.253
 6226SOL    HW220576   7.507  11.466  13.136
 6227SOL     OW20577  12.679   3.733   0.641
 6227SOL    HW120578  12.615   3.736   0.711
 6227SOL    HW220579  12.696   3.824   0.620
 6228SOL     OW20580   6.595   9.188   0.757
 6228SOL    HW120581   6.584   9.278   0.724
 6228SOL    HW220582   6.674   9.156   0.714
 6229SOL     OW20583   9.511   9.084  12.818
 6229SOL    HW120584   9.434   9.046  12.776
 6229SOL    HW220585   9.512   9.175  12.790
 6230SOL     OW20586  13.327  11.424   5.778
 6230SOL    HW120587  13.267  11.496   5.760
 6230SOL    HW220588  13.393  11.462   5.836
 6231SOL     OW20589   6.673   7.854  11.308
 6231SOL    HW120590   6.715   7.854  11.222
 6231SOL    HW220591   6.712   7.929  11.353
 6232SOL     OW20592  14.187   0.542   4.051
 6232SOL    HW120593  14.211   0.475   4.115
 6232SOL    HW220594  14.125   0.598   4.097
 6233SOL     OW20595  14.086  12.009  10.538
 6233SOL    HW120596  14.163  12.014  10.595
 6233SOL    HW220597  14.071  12.100  10.511
 6234SOL     OW20598  12.729   5.136   5.788
 6234SOL    HW120599  12.816   5.097   5.795
 6234SOL    HW220600  12.745   5.230   5.787
 6235SOL     OW20601  12.790  11.464   6.346
 6235SOL    HW120602  12.848  11.400   6.388
 6235SOL    HW220603  12.708  11.416   6.332
 6236SOL     OW20604  13.110   1.650   9.135
 6236SOL    HW120605  13.167   1.712   9.179
 6236SOL    HW220606  13.076   1.594   9.205
 6237SOL     OW20607   5.225  14.445   8.603
 6237SOL    HW120608   5.132  14.468   8.606
 6237SOL    HW220609   5.251  14.438   8.694
 6238SOL     OW20610   6.167   3.774  11.939
 6238SOL    HW120611   6.141   3.754  12.029
 6238SOL    HW220612   6.171   3.870  11.937
 6239SOL     OW20613  11.784   3.964   4.090
 6239SOL    HW120614  11.752   4.051   4.113
 6239SOL    HW220615  11.735   3.941   4.011
 6240SOL     OW20616   2.418  13.379  12.467
 6240SOL    HW120617   2.499  13.329  12.472
 6240SOL    HW220618   2.442  13.461  12.424
 6241SOL     OW20619  10.488   6.249   4.606
 6241SOL    HW120620  10.495   6.342   4.587
 6241SOL    HW220621  10.431   6.243   4.682
 6242SOL     OW20622   0.173  10.101   0.711
 6242SOL    HW120623   0.151  10.095   0.618
 6242SOL    HW220624   0.095  10.139   0.752
 6243SOL     OW20625   3.156   9.161   2.605
 6243SOL    HW120626   3.226   9.139   2.543
 6243SOL    HW220627   3.202   9.181   2.687
 6244SOL     OW20628   7.440   8.554   9.452
 6244SOL    HW120629   7.389   8.622   9.408
 6244SOL    HW220630   7.378   8.482   9.465
 6245SOL     OW20631  13.856  13.199  14.754
 6245SOL    HW120632  13.801  13.277  14.761
 6245SOL    HW220633  13.858  13.163  14.843
 6246SOL     OW20634   0.663  14.302  11.743
 6246SOL    HW120635   0.608  14.246  11.799
 6246SOL    HW220636   0.611  14.315  11.664
 6247SOL     OW20637   6.391  13.505   8.688
 6247SOL    HW120638   6.424  13.419   8.716
 6247SOL    HW220639   6.361  13.491   8.599
 6248SOL     OW20640   3.867   9.426   1.443
 6248SOL    HW120641   3.816   9.413   1.363
 6248SOL    HW220642   3.924   9.349   1.448
 6249SOL     OW20643  10.122   3.254   4.246
 6249SOL    HW120644  10.027   3.257   4.263
 6249SOL    HW220645  10.138   3.164   4.218
 6250SOL     OW20646   2.981  13.608  11.282
 6250SOL    HW120647   2.976  13.657  11.200
 6250SOL    HW220648   2.954  13.519  11.259
 6251SOL     OW20649   2.981   0.017   3.987
 6251SOL    HW120650   3.055   0.011   3.926
 6251SOL    HW220651   3.003   0.091   4.043
 6252SOL     OW20652   3.813  13.902  13.279
 6252SOL    HW120653   3.863  13.966  13.330
 6252SOL    HW220654   3.802  13.943  13.193
 6253SOL     OW20655  11.677   1.257  14.333
 6253SOL    HW120656  11.648   1.226  14.247
 6253SOL    HW220657  11.687   1.177  14.384
 6254SOL     OW20658   9.839   7.211  12.331
 6254SOL    HW120659   9.905   7.263  12.376
 6254SOL    HW220660   9.790   7.168  12.401
 6255SOL     OW20661   5.701   1.803  14.519
 6255SOL    HW120662   5.732   1.777  14.432
 6255SOL    HW220663   5.606   1.807  14.510
 6256SOL     OW20664   3.731   7.649  14.786
 6256SOL    HW120665   3.708   7.729  14.738
 6256SOL    HW220666   3.653   7.593  14.777
 6257SOL     OW20667  11.420   6.958   6.187
 6257SOL    HW120668  11.355   6.945   6.118
 6257SOL    HW220669  11.408   7.048   6.215
 6258SOL     OW20670   0.825   9.911   6.291
 6258SOL    HW120671   0.884   9.858   6.345
 6258SOL    HW220672   0.859  10.000   6.298
 6259SOL     OW20673   4.026   6.379  11.599
 6259SOL    HW120674   4.010   6.367  11.505
 6259SOL    HW220675   4.087   6.453  11.603
 6260SOL     OW20676   8.383  13.132  11.863
 6260SOL    HW120677   8.299  13.137  11.908
 6260SOL    HW220678   8.443  13.095  11.927
 6261SOL     OW20679   6.193   6.388  13.130
 6261SOL    HW120680   6.205   6.338  13.211
 6261SOL    HW220681   6.215   6.326  13.060
 6262SOL     OW20682   6.899   5.384   1.218
 6262SOL    HW120683   6.889   5.296   1.181
 6262SOL    HW220684   6.820   5.431   1.190
 6263SOL     OW20685  11.372   1.344  14.424
 6263SOL    HW120686  11.344   1.328  14.333
 6263SOL    HW220687  11.466   1.331  14.423
 6264SOL     OW20688   7.565   1.509   6.124
 6264SOL    HW120689   7.529   1.467   6.046
 6264SOL    HW220690   7.616   1.440   6.166
 6265SOL     OW20691   4.136   8.907  13.195
 6265SOL    HW120692   4.164   8.898  13.104
 6265SOL    HW220693   4.047   8.943  13.190
 6266SOL     OW20694   5.795  14.432   5.221
 6266SOL    HW120695   5.881  14.392   5.207
 6266SOL    HW220696   5.756  14.379   5.291
 6267SOL     OW20697  11.935   0.241   3.265
 6267SOL    HW120698  12.020   0.279   3.244
 6267SOL    HW220699  11.893   0.228   3.180
 6268SOL     OW20700   4.206   8.044   5.624
 6268SOL    HW120701   4.283   8.067   5.572
 6268SOL    HW220702   4.203   7.948   5.620
 6269SOL     OW20703   8.056   6.630   1.322
 6269SOL    HW120704   7.969   6.653   1.356
 6269SOL    HW220705   8.116   6.690   1.365
 6270SOL     OW20706   4.070   6.063  14.753
 6270SOL    HW120707   4.113   6.090  14.672
 6270SOL    HW220708   4.022   6.141  14.781
 6271SOL     OW20709   0.153   3.831  10.193
 6271SOL    HW120710   0.119   3.815  10.105
 6271SOL    HW220711   0.147   3.745  10.237
 6272SOL     OW20712   2.654   5.603  13.218
 6272SOL    HW120713   2.726   5.637  13.165
 6272SOL    HW220714   2.679   5.514  13.241
 6273SOL     OW20715   1.884   6.026   5.406
 6273SOL    HW120716   1.801   6.030   5.358
 6273SOL    HW220717   1.868   5.962   5.476
 6274SOL     OW20718   4.944  14.107  12.192
 6274SOL    HW120719   4.972  14.195  12.217
 6274SOL    HW220720   4.877  14.085  12.257
 6275SOL     OW20721  12.075  12.705   9.686
 6275SOL    HW120722  12.110  12.775   9.630
 6275SOL    HW220723  12.001  12.670   9.637
 6276SOL     OW20724   2.671   9.613   8.922
 6276SOL    HW120725   2.696   9.671   8.849
 6276SOL    HW220726   2.754   9.573   8.949
 6277SOL     OW20727  12.428   5.042  11.864
 6277SOL    HW120728  12.457   4.951  11.863
 6277SOL    HW220729  12.380   5.053  11.782
 6278SOL     OW20730   2.686   7.704  11.526
 6278SOL    HW120731   2.626   7.699  11.451
 6278SOL    HW220732   2.652   7.777  11.578
 6279SOL     OW20733  13.107  13.175   4.331
 6279SOL    HW120734  13.180  13.183   4.391
 6279SOL    HW220735  13.141  13.122   4.259
 6280SOL     OW20736   8.976  13.854  13.387
 6280SOL    HW120737   8.971  13.763  13.356
 6280SOL    HW220738   8.891  13.868  13.431
 6281SOL     OW20739   3.803   9.471   2.621
 6281SOL    HW120740   3.788   9.452   2.529
 6281SOL    HW220741   3.753   9.403   2.668
 6282SOL     OW20742  11.270   4.456   6.035
 6282SOL    HW120743  11.186   4.486   6.002
 6282SOL    HW220744  11.263   4.465   6.130
 6283SOL     OW20745   4.449  10.363   2.659
 6283SOL    HW120746   4.473  10.370   2.752
 6283SOL    HW220747   4.520  10.314   2.619
 6284SOL     OW20748   2.916   1.258   9.794
 6284SOL    HW120749   3.002   1.214   9.791
 6284SOL    HW220750   2.903   1.291   9.705
 6285SOL     OW20751   4.190   2.288  10.398
 6285SOL    HW120752   4.218   2.379  10.387
 6285SOL    HW220753   4.142   2.287  10.480
 6286SOL     OW20754   1.586   5.496  11.533
 6286SOL    HW120755   1.666   5.450  11.509
 6286SOL    HW220756   1.608   5.588  11.527
 6287SOL     OW20757   1.402   5.396   0.911
 6287SOL    HW120758   1.434   5.346   0.986
 6287SOL    HW220759   1.447   5.481   0.918
 6288SOL     OW20760   9.780   9.442   7.494
 6288SOL    HW120761   9.776   9.448   7.399
 6288SOL    HW220762   9.694   9.408   7.519
 6289SOL     OW20763   5.181  11.540  12.730
 6289SOL    HW120764   5.164  11.470  12.793
 6289SOL    HW220765   5.158  11.620  12.776
 6290SOL     OW20766   2.917   7.592  10.214
 6290SOL    HW120767   2.923   7.509  10.261
 6290SOL    HW220768   2.828   7.623  10.232
 6291SOL     OW20769  14.018  14.214   8.700
 6291SOL    HW120770  13.954  14.195   8.631
 6291SOL    HW220771  14.005  14.143   8.764
 6292SOL     OW20772   8.391  10.363   0.378
 6292SOL    HW120773   8.447  10.366   0.300
 6292SOL    HW220774   8.412  10.279   0.420
 6293SOL     OW20775  13.386   0.128   4.687
 6293SOL    HW120776  13.342   0.044   4.696
 6293SOL    HW220777  13.477   0.110   4.713
 6294SOL     OW20778   7.281  12.142   2.565
 6294SOL    HW120779   7.299  12.056   2.603
 6294SOL    HW220780   7.262  12.198   2.641
 6295SOL     OW20781   6.198   2.416   8.467
 6295SOL    HW120782   6.126   2.353   8.475
 6295SOL    HW220783   6.203   2.458   8.552
 6296SOL     OW20784   4.207  13.387   8.443
 6296SOL    HW120785   4.297  13.371   8.471
 6296SOL    HW220786   4.197  13.336   8.362
 6297SOL     OW20787   2.400   6.826   8.470
 6297SOL    HW120788   2.317   6.820   8.424
 6297SOL    HW220789   2.463   6.854   8.404
 6298SOL     OW20790   7.865   2.588   3.130
 6298SOL    HW120791   7.861   2.533   3.208
 6298SOL    HW220792   7.945   2.639   3.140
 6299SOL     OW20793   9.932  12.744   3.723
 6299SOL    HW120794   9.929  12.838   3.738
 6299SOL    HW220795   9.850  12.725   3.676
 6300SOL     OW20796   1.902  12.900   9.812
 6300SOL    HW120797   1.909  12.832   9.745
 6300SOL    HW220798   1.880  12.979   9.764
 6301SOL     OW20799   5.844   9.244  13.099
 6301SOL    HW120800   5.921   9.283  13.058
 6301SOL    HW220801   5.772   9.265  13.040
 6302SOL     OW20802   0.400  10.014   0.358
 6302SOL    HW120803   0.439   9.929   0.377
 6302SOL    HW220804   0.474  10.074   0.355
 6303SOL     OW20805  14.491  14.804   2.093
 6303SOL    HW120806  14.574  14.816   2.140
 6303SOL    HW220807  14.492  14.713   2.065
 6304SOL     OW20808   9.436  11.664   7.412
 6304SOL    HW120809   9.462  11.612   7.488
 6304SOL    HW220810   9.370  11.610   7.368
 6305SOL     OW20811   0.682  11.697   7.890
 6305SOL    HW120812   0.733  11.763   7.844
 6305SOL    HW220813   0.702  11.711   7.982
 6306SOL     OW20814   8.141   0.734   1.574
 6306SOL    HW120815   8.187   0.818   1.578
 6306SOL    HW220816   8.210   0.670   1.557
 6307SOL     OW20817  10.845   8.564  14.260
 6307SOL    HW120818  10.802   8.642  14.224
 6307SOL    HW220819  10.894   8.596  14.336
 6308SOL     OW20820   1.312   2.298   9.211
 6308SOL    HW120821   1.262   2.335   9.138
 6308SOL    HW220822   1.275   2.210   9.223
 6309SOL     OW20823   3.340   1.839  11.249
 6309SOL    HW120824   3.304   1.828  11.337
 6309SOL    HW220825   3.319   1.929  11.226
 6310SOL     OW20826  12.690  12.167   1.338
 6310SOL    HW120827  12.604  12.200   1.313
 6310SOL    HW220828  12.725  12.233   1.398
 6311SOL     OW20829  14.868   9.061  14.493
 6311SOL    HW120830   0.059   9.080  14.422
 6311SOL    HW220831   0.006   8.967  14.509
 6312SOL     OW20832  14.352   1.450  11.379
 6312SOL    HW120833  14.311   1.526  11.421
 6312SOL    HW220834  14.438   1.481  11.351
 6313SOL     OW20835   8.558   4.905   2.784
 6313SOL    HW120836   8.607   4.824   2.773
 6313SOL    HW220837   8.481   4.881   2.835
 6314SOL     OW20838   3.706   8.061   1.748
 6314SOL    HW120839   3.685   7.969   1.731
 6314SOL    HW220840   3.747   8.091   1.667
 6315SOL     OW20841  10.723  11.721   2.248
 6315SOL    HW120842  10.793  11.657   2.239
 6315SOL    HW220843  10.747  11.772   2.325
 6316SOL     OW20844   8.421   8.596   1.441
 6316SOL    HW120845   8.423   8.519   1.384
 6316SOL    HW220846   8.346   8.646   1.411
 6317SOL     OW20847   9.152   6.339  10.547
 6317SOL    HW120848   9.080   6.362  10.487
 6317SOL    HW220849   9.221   6.307  10.489
 6318SOL     OW20850  10.625  10.182   1.159
 6318SOL    HW120851  10.618  10.257   1.100
 6318SOL    HW220852  10.615  10.219   1.247
 6319SOL     OW20853  14.274  14.813   8.209
 6319SOL    HW120854  14.259  14.742   8.271
 6319SOL    HW220855  14.207  14.801   8.143
 6320SOL     OW20856   5.501  11.092   9.039
 6320SOL    HW120857   5.492  11.174   8.992
 6320SOL    HW220858   5.543  11.033   8.976
 6321SOL     OW20859   2.534  11.882   5.664
 6321SOL    HW120860   2.447  11.871   5.702
 6321SOL    HW220861   2.539  11.816   5.595
 6322SOL     OW20862  14.714   1.237   9.998
 6322SOL    HW120863  14.695   1.331   9.987
 6322SOL    HW220864  14.810   1.233  10.000
 6323SOL     OW20865   5.627   9.025  10.600
 6323SOL    HW120866   5.563   9.024  10.529
 6323SOL    HW220867   5.601   9.099  10.655
 6324SOL     OW20868   3.790   1.955  11.472
 6324SOL    HW120869   3.862   2.017  11.479
 6324SOL    HW220870   3.832   1.871  11.454
 6325SOL     OW20871   1.334   3.834   2.951
 6325SOL    HW120872   1.271   3.879   2.895
 6325SOL    HW220873   1.282   3.805   3.026
 6326SOL     OW20874  13.579  11.825  14.230
 6326SOL    HW120875  13.584  11.870  14.315
 6326SOL    HW220876  13.628  11.744  14.243
 6327SOL     OW20877   8.302  10.598   7.258
 6327SOL    HW120878   8.329  10.687   7.235
 6327SOL    HW220879   8.307  10.595   7.353
 6328SOL     OW20880   9.646  13.326   8.385
 6328SOL    HW120881   9.724  13.374   8.413
 6328SOL    HW220882   9.581  13.346   8.452
 6329SOL     OW20883   1.624  12.598   1.554
 6329SOL    HW120884   1.690  12.563   1.614
 6329SOL    HW220885   1.670  12.605   1.470
 6330SOL     OW20886   7.586  13.563   8.819
 6330SOL    HW120887   7.534  13.625   8.768
 6330SOL    HW220888   7.524  13.526   8.881
 6331SOL     OW20889   8.872  13.621  11.200
 6331SOL    HW120890   8.837  13.687  11.140
 6331SOL    HW220891   8.966  13.623  11.185
 6332SOL     OW20892   2.812   2.855   4.899
 6332SOL    HW120893   2.766   2.937   4.882
 6332SOL    HW220894   2.899   2.881   4.927
 6333SOL     OW20895   5.588  11.997  10.926
 6333SOL    HW120896   5.608  12.086  10.895
 6333SOL    HW220897   5.571  11.947  10.846
 6334SOL     OW20898   0.098  14.108  12.176
 6334SOL    HW120899   0.085  14.173  12.107
 6334SOL    HW220900   0.064  14.027  12.139
 6335SOL     OW20901   1.481  10.109   2.336
 6335SOL    HW120902   1.540  10.109   2.260
 6335SOL    HW220903   1.491  10.022   2.373
 6336SOL     OW20904   1.146   9.928   7.960
 6336SOL    HW120905   1.098   9.993   7.909
 6336SOL    HW220906   1.216   9.977   8.003
 6337SOL     OW20907   5.704   0.322   4.772
 6337SOL    HW120908   5.789   0.351   4.739
 6337SOL    HW220909   5.640   0.360   4.712
 6338SOL     OW20910  11.298   3.309   6.030
 6338SOL    HW120911  11.286   3.377   6.096
 6338SOL    HW220912  11.270   3.228   6.073
 6339SOL     OW20913   4.398   5.196   5.389
 6339SOL    HW120914   4.470   5.145   5.353
 6339SOL    HW220915   4.387   5.162   5.478
 6340SOL     OW20916   5.496   0.482   4.998
 6340SOL    HW120917   5.434   0.491   4.926
 6340SOL    HW220918   5.444   0.444   5.069
 6341SOL     OW20919   7.602   8.348  11.719
 6341SOL    HW120920   7.651   8.266  11.719
 6341SOL    HW220921   7.510   8.321  11.714
 6342SOL     OW20922  14.073  11.672   3.748
 6342SOL    HW120923  14.026  11.701   3.670
 6342SOL    HW220924  14.050  11.579   3.756
 6343SOL     OW20925  14.072   6.726   3.601
 6343SOL    HW120926  14.122   6.687   3.673
 6343SOL    HW220927  14.133   6.724   3.527
 6344SOL     OW20928   6.435   5.170  14.783
 6344SOL    HW120929   6.475   5.209  14.706
 6344SOL    HW220930   6.419   5.078  14.758
 6345SOL     OW20931   2.057   5.757  12.831
 6345SOL    HW120932   2.015   5.842  12.845
 6345SOL    HW220933   2.103   5.767  12.747
 6346SOL     OW20934  13.239  13.400   7.565
 6346SOL    HW120935  13.172  13.360   7.621
 6346SOL    HW220936  13.287  13.325   7.528
 6347SOL     OW20937   1.968  10.968   6.246
 6347SOL    HW120938   1.941  11.052   6.282
 6347SOL    HW220939   1.920  10.960   6.163
 6348SOL     OW20940  12.637  10.452   5.509
 6348SOL    HW120941  12.693  10.404   5.448
 6348SOL    HW220942  12.604  10.385   5.569
 6349SOL     OW20943   5.389   0.042  11.726
 6349SOL    HW120944   5.313  14.863  11.694
 6349SOL    HW220945   5.361   0.134  11.722
 6350SOL     OW20946   4.740   0.228   8.924
 6350SOL    HW120947   4.716   0.137   8.908
 6350SOL    HW220948   4.658   0.276   8.915
 6351SOL     OW20949  13.129   1.580   1.644
 6351SOL    HW120950  13.125   1.492   1.683
 6351SOL    HW220951  13.081   1.573   1.562
 6352SOL     OW20952   3.328  11.240   9.659
 6352SOL    HW120953   3.363  11.266   9.574
 6352SOL    HW220954   3.356  11.308   9.720
 6353SOL     OW20955  11.521   0.737   7.933
 6353SOL    HW120956  11.552   0.763   8.020
 6353SOL    HW220957  11.595   0.754   7.875
 6354SOL     OW20958  10.267   9.497   5.448
 6354SOL    HW120959  10.232   9.572   5.495
 6354SOL    HW220960  10.210   9.487   5.372
 6355SOL     OW20961   9.433  12.770  11.490
 6355SOL    HW120962   9.508  12.799  11.542
 6355SOL    HW220963   9.396  12.698  11.540
 6356SOL     OW20964   4.834   5.338   6.027
 6356SOL    HW120965   4.868   5.337   5.938
 6356SOL    HW220966   4.849   5.428   6.058
 6357SOL     OW20967  14.318   8.400  10.987
 6357SOL    HW120968  14.330   8.495  10.982
 6357SOL    HW220969  14.277   8.377  10.904
 6358SOL     OW20970  11.574   4.633  11.377
 6358SOL    HW120971  11.563   4.722  11.343
 6358SOL    HW220972  11.507   4.582  11.333
 6359SOL     OW20973   9.773  11.006  10.928
 6359SOL    HW120974   9.732  10.960  11.001
 6359SOL    HW220975   9.806  11.087  10.965
 6360SOL     OW20976  13.614   8.353  11.372
 6360SOL    HW120977  13.700   8.375  11.407
 6360SOL    HW220978  13.555   8.420  11.408
 6361SOL     OW20979   0.861   4.353   0.449
 6361SOL    HW120980   0.772   4.343   0.415
 6361SOL    HW220981   0.916   4.361   0.371
 6362SOL     OW20982   5.612   6.608   7.140
 6362SOL    HW120983   5.647   6.579   7.055
 6362SOL    HW220984   5.653   6.693   7.154
 6363SOL     OW20985   3.701   2.655   5.799
 6363SOL    HW120986   3.635   2.638   5.731
 6363SOL    HW220987   3.752   2.729   5.764
 6364SOL     OW20988   9.630   5.914   0.639
 6364SOL    HW120989   9.622   5.850   0.569
 6364SOL    HW220990   9.686   5.872   0.705
 6365SOL     OW20991  12.705   4.780   8.921
 6365SOL    HW120992  12.704   4.743   9.009
 6365SOL    HW220993  12.797   4.798   8.903
 6366SOL     OW20994  13.891  10.694  14.661
 6366SOL    HW120995  13.923  10.657  14.744
 6366SOL    HW220996  13.804  10.728  14.682
 6367SOL     OW20997  10.243   8.325   1.761
 6367SOL    HW120998  10.183   8.392   1.795
 6367SOL    HW220999  10.218   8.314   1.669
 6368SOL     OW21000  10.080  12.837  12.010
 6368SOL    HW121001  10.166  12.799  12.030
 6368SOL    HW221002  10.052  12.794  11.930
 6369SOL     OW21003   1.301  13.107   6.695
 6369SOL    HW121004   1.360  13.037   6.722
 6369SOL    HW221005   1.353  13.159   6.633
 6370SOL     OW21006   4.294   3.870   4.539
 6370SOL    HW121007   4.216   3.874   4.595
 6370SOL    HW221008   4.316   3.961   4.520
 6371SOL     OW21009   1.455   4.204  10.108
 6371SOL    HW121010   1.415   4.240  10.188
 6371SOL    HW221011   1.541   4.173  10.137
 6372SOL     OW21012  13.881   1.219  11.269
 6372SOL    HW121013  13.853   1.128  11.263
 6372SOL    HW221014  13.919   1.238  11.183
 6373SOL     OW21015   8.177  12.253  14.627
 6373SOL    HW121016   8.144  12.319  14.687
 6373SOL    HW221017   8.265  12.233  14.659
 6374SOL     OW21018   7.333   0.973   8.888
 6374SOL    HW121019   7.317   1.062   8.922
 6374SOL    HW221020   7.256   0.954   8.835
 6375SOL     OW21021   8.351  12.716   4.929
 6375SOL    HW121022   8.422  12.730   4.867
 6375SOL    HW221023   8.379  12.641   4.982
 6376SOL     OW21024   1.988   9.908   7.326
 6376SOL    HW121025   2.002  10.000   7.348
 6376SOL    HW221026   1.908   9.908   7.273
 6377SOL     OW21027   6.223  14.232  14.233
 6377SOL    HW121028   6.251  14.225  14.142
 6377SOL    HW221029   6.130  14.256  14.228
 6378SOL     OW21030   2.881   3.181  14.258
 6378SOL    HW121031   2.795   3.214  14.284
 6378SOL    HW221032   2.910   3.128  14.333
 6379SOL     OW21033  14.158  12.154  10.997
 6379SOL    HW121034  14.087  12.194  10.945
 6379SOL    HW221035  14.217  12.116  10.931
 6380SOL     OW21036   1.718   6.677  13.152
 6380SOL    HW121037   1.703   6.759  13.105
 6380SOL    HW221038   1.789   6.635  13.104
 6381SOL     OW21039  10.378  12.683   0.780
 6381SOL    HW121040  10.472  12.677   0.759
 6381SOL    HW221041  10.376  12.729   0.864
 6382SOL     OW21042  14.330   2.352   0.837
 6382SOL    HW121043  14.329   2.359   0.932
 6382SOL    HW221044  14.261   2.413   0.808
 6383SOL     OW21045   8.924  14.062   5.820
 6383SOL    HW121046   8.970  14.101   5.746
 6383SOL    HW221047   8.931  13.967   5.805
 6384SOL     OW21048   3.764   9.096  12.143
 6384SOL    HW121049   3.835   9.033  12.154
 6384SOL    HW221050   3.806   9.181  12.152
 6385SOL     OW21051   3.091  14.080   3.258
 6385SOL    HW121052   3.162  14.133   3.223
 6385SOL    HW221053   3.011  14.127   3.235
 6386SOL     OW21054   1.122   2.592   8.860
 6386SOL    HW121055   1.179   2.666   8.838
 6386SOL    HW221056   1.090   2.561   8.776
 6387SOL     OW21057   9.601   2.376   3.723
 6387SOL    HW121058   9.509   2.369   3.750
 6387SOL    HW221059   9.601   2.445   3.657
 6388SOL     OW21060  13.136  13.832   8.497
 6388SOL    HW121061  13.088  13.756   8.464
 6388SOL    HW221062  13.227  13.816   8.473
 6389SOL     OW21063   5.185   8.766  11.819
 6389SOL    HW121064   5.253   8.725  11.765
 6389SOL    HW221065   5.209   8.859  11.820
 6390SOL     OW21066   9.198   6.027  11.614
 6390SOL    HW121067   9.241   6.075  11.685
 6390SOL    HW221068   9.105   6.047  11.625
 6391SOL     OW21069  10.967   1.149   2.220
 6391SOL    HW121070  11.033   1.092   2.183
 6391SOL    HW221071  10.949   1.112   2.306
 6392SOL     OW21072   8.460  10.264   8.107
 6392SOL    HW121073   8.542  10.312   8.115
 6392SOL    HW221074   8.485  10.172   8.109
 6393SOL     OW21075  12.110   4.118  14.148
 6393SOL    HW121076  12.091   4.133  14.241
 6393SOL    HW221077  12.127   4.024  14.141
 6394SOL     OW21078   8.878   0.326   2.759
 6394SOL    HW121079   8.967   0.357   2.774
 6394SOL    HW221080   8.887   0.261   2.689
 6395SOL     OW21081   8.941  10.082   9.622
 6395SOL    HW121082   8.903  10.163   9.587
 6395SOL    HW221083   8.943  10.023   9.547
 6396SOL     OW21084  14.397   2.495   7.921
 6396SOL    HW121085  14.382   2.481   7.828
 6396SOL    HW221086  14.474   2.441   7.941
 6397SOL     OW21087   9.974   6.685   2.847
 6397SOL    HW121088   9.970   6.632   2.926
 6397SOL    HW221089   9.933   6.631   2.779
 6398SOL     OW21090  13.670   7.828   1.739
 6398SOL    HW121091  13.664   7.735   1.757
 6398SOL    HW221092  13.710   7.866   1.817
 6399SOL     OW21093  10.620   5.120   9.395
 6399SOL    HW121094  10.532   5.096   9.424
 6399SOL    HW221095  10.639   5.059   9.323
 6400SOL     OW21096   7.388   4.905  13.287
 6400SOL    HW121097   7.420   4.884  13.375
 6400SOL    HW221098   7.382   4.820  13.243
 6401SOL     OW21099  12.445   6.389   8.398
 6401SOL    HW121100  12.478   6.390   8.488
 6401SOL    HW221101  12.433   6.296   8.378
 6402SOL     OW21102   0.035  10.218   5.296
 6402SOL    HW121103  14.842  10.168   5.349
 6402SOL    HW221104  14.859  10.300   5.278
 6403SOL     OW21105   9.305   0.129   7.130
 6403SOL    HW121106   9.219   0.166   7.151
 6403SOL    HW221107   9.299   0.037   7.155
 6404SOL     OW21108   0.630  12.479   0.885
 6404SOL    HW121109   0.695  12.477   0.955
 6404SOL    HW221110   0.673  12.528   0.814
 6405SOL     OW21111   2.630   9.566   4.399
 6405SOL    HW121112   2.600   9.483   4.359
 6405SOL    HW221113   2.688   9.539   4.470
 6406SOL     OW21114  13.843  14.839   8.405
 6406SOL    HW121115  13.848  14.758   8.354
 6406SOL    HW221116  13.773   0.019   8.362
 6407SOL     OW21117  12.473   5.381   1.053
 6407SOL    HW121118  12.460   5.302   1.000
 6407SOL    HW221119  12.388   5.396   1.096
 6408SOL     OW21120  14.154  11.688   7.163
 6408SOL    HW121121  14.180  11.757   7.224
 6408SOL    HW221122  14.123  11.735   7.086
 6409SOL     OW21123   1.553  13.020   3.981
 6409SOL    HW121124   1.500  12.998   3.904
 6409SOL    HW221125   1.524  13.109   4.005
 6410SOL     OW21126  11.730  12.627   1.622
 6410SOL    HW121127  11.672  12.664   1.690
 6410SOL    HW221128  11.679  12.556   1.583
 6411SOL     OW21129  14.172  13.800   6.430
 6411SOL    HW121130  14.179  13.852   6.510
 6411SOL    HW221131  14.214  13.854   6.363
 6412SOL     OW21132   9.249   1.246  11.638
 6412SOL    HW121133   9.281   1.336  11.648
 6412SOL    HW221134   9.326   1.191  11.649
 6413SOL     OW21135  10.641   2.258   2.633
 6413SOL    HW121136  10.677   2.345   2.650
 6413SOL    HW221137  10.665   2.240   2.542
 6414SOL     OW21138  11.851  11.551   8.400
 6414SOL    HW121139  11.904  11.483   8.359
 6414SOL    HW221140  11.883  11.633   8.362
 6415SOL     OW21141   0.100   0.257   9.183
 6415SOL    HW121142   0.147   0.177   9.160
 6415SOL    HW221143   0.031   0.264   9.117
 6416SOL     OW21144   0.770  10.649   7.355
 6416SOL    HW121145   0.758  10.557   7.329
 6416SOL    HW221146   0.863  10.666   7.341
 6417SOL     OW21147  10.273   8.195   7.065
 6417SOL    HW121148  10.265   8.282   7.102
 6417SOL    HW221149  10.229   8.138   7.128
 6418SOL     OW21150   5.954  13.837  10.876
 6418SOL    HW121151   5.996  13.757  10.844
 6418SOL    HW221152   6.027  13.895  10.899
 6419SOL     OW21153   9.483   3.751   0.634
 6419SOL    HW121154   9.537   3.779   0.560
 6419SOL    HW221155   9.397   3.735   0.597
 6420SOL     OW21156   6.119  12.422   3.145
 6420SOL    HW121157   6.088  12.393   3.230
 6420SOL    HW221158   6.214  12.410   3.148
 6421SOL     OW21159   1.502   6.613  12.558
 6421SOL    HW121160   1.552   6.600  12.639
 6421SOL    HW221161   1.475   6.705  12.561
 6422SOL     OW21162  13.697   6.392   7.838
 6422SOL    HW121163  13.738   6.307   7.850
 6422SOL    HW221164  13.723   6.442   7.916
 6423SOL     OW21165   8.250  11.262  14.429
 6423SOL    HW121166   8.242  11.189  14.492
 6423SOL    HW221167   8.168  11.310  14.438
 6424SOL     OW21168   6.347   6.140   8.794
 6424SOL    HW121169   6.342   6.046   8.810
 6424SOL    HW221170   6.430   6.167   8.833
 6425SOL     OW21171   4.026   9.624   5.196
 6425SOL    HW121172   3.942   9.668   5.214
 6425SOL    HW221173   4.006   9.531   5.201
 6426SOL     OW21174  13.964   9.138   6.407
 6426SOL    HW121175  14.009   9.126   6.324
 6426SOL    HW221176  13.974   9.054   6.452
 6427SOL     OW21177   4.826  13.032   0.174
 6427SOL    HW121178   4.843  13.106   0.116
 6427SOL    HW221179   4.739  13.001   0.149
 6428SOL     OW21180   4.892  11.465   9.870
 6428SOL    HW121181   4.833  11.528   9.912
 6428SOL    HW221182   4.834  11.395   9.840
 6429SOL     OW21183   3.074   9.357   1.480
 6429SOL    HW121184   3.019   9.406   1.419
 6429SOL    HW221185   3.138   9.421   1.511
 6430SOL     OW21186   9.885   0.913  13.031
 6430SOL    HW121187   9.858   0.821  13.038
 6430SOL    HW221188   9.942   0.915  12.954
 6431SOL     OW21189   1.996  10.590   4.717
 6431SOL    HW121190   1.922  10.637   4.755
 6431SOL    HW221191   1.972  10.497   4.725
 6432SOL     OW21192   7.659   1.003  11.126
 6432SOL    HW121193   7.643   1.060  11.051
 6432SOL    HW221194   7.718   0.935  11.092
 6433SOL     OW21195   7.033   1.464   3.718
 6433SOL    HW121196   6.982   1.419   3.652
 6433SOL    HW221197   7.112   1.411   3.729
 6434SOL     OW21198   0.636  14.420  12.434
 6434SOL    HW121199   0.664  14.489  12.494
 6434SOL    HW221200   0.580  14.363  12.487
 6435SOL     OW21201   2.011   1.999   2.992
 6435SOL    HW121202   1.998   1.985   3.086
 6435SOL    HW221203   1.924   1.988   2.954
 6436SOL     OW21204   8.301   9.069   1.094
 6436SOL    HW121205   8.239   9.048   1.164
 6436SOL    HW221206   8.303   9.165   1.092
 6437SOL     OW21207   8.931   1.736   8.650
 6437SOL    HW121208   8.974   1.763   8.569
 6437SOL    HW221209   8.854   1.792   8.656
 6438SOL     OW21210   3.532  12.246   4.071
 6438SOL    HW121211   3.510  12.325   4.021
 6438SOL    HW221212   3.564  12.279   4.155
 6439SOL     OW21213   4.119   3.541  12.589
 6439SOL    HW121214   4.152   3.495  12.512
 6439SOL    HW221215   4.159   3.496  12.663
 6440SOL     OW21216  12.983   3.385   4.814
 6440SOL    HW121217  13.073   3.374   4.783
 6440SOL    HW221218  12.956   3.298   4.843
 6441SOL     OW21219  14.432   5.761   5.763
 6441SOL    HW121220  14.463   5.680   5.722
 6441SOL    HW221221  14.453   5.830   5.701
 6442SOL     OW21222  13.998  11.659   1.656
 6442SOL    HW121223  13.989  11.571   1.692
 6442SOL    HW221224  13.910  11.695   1.657
 6443SOL     OW21225   2.718   5.335  11.110
 6443SOL    HW121226   2.734   5.276  11.183
 6443SOL    HW221227   2.736   5.283  11.032
 6444SOL     OW21228   2.894  12.062  10.572
 6444SOL    HW121229   2.961  12.113  10.618
 6444SOL    HW221230   2.836  12.030  10.641
 6445SOL     OW21231  14.358   8.670   8.198
 6445SOL    HW121232  14.384   8.761   8.183
 6445SOL    HW221233  14.434   8.619   8.173
 6446SOL     OW21234  14.391   7.920  13.129
 6446SOL    HW121235  14.428   7.861  13.063
 6446SOL    HW221236  14.426   7.889  13.212
 6447SOL     OW21237   6.956   6.258   6.034
 6447SOL    HW121238   6.870   6.246   6.074
 6447SOL    HW221239   6.947   6.220   5.946
 6448SOL     OW21240  11.068   1.639   1.508
 6448SOL    HW121241  11.147   1.693   1.498
 6448SOL    HW221242  11.099   1.558   1.548
 6449SOL     OW21243   4.545   0.967   1.988
 6449SOL    HW121244   4.569   1.032   2.054
 6449SOL    HW221245   4.461   0.932   2.018
 6450SOL     OW21246   6.953   8.047  10.610
 6450SOL    HW121247   7.034   8.002  10.583
 6450SOL    HW221248   6.981   8.135  10.633
 6451SOL     OW21249   6.438  10.383   9.171
 6451SOL    HW121250   6.508  10.447   9.160
 6451SOL    HW221251   6.447  10.353   9.261
 6452SOL     OW21252  10.982   6.699  14.573
 6452SOL    HW121253  10.948   6.698  14.663
 6452SOL    HW221254  11.075   6.719  14.583
 6453SOL     OW21255  13.197   3.777   3.979
 6453SOL    HW121256  13.257   3.815   4.043
 6453SOL    HW221257  13.246   3.779   3.897
 6454SOL     OW21258   8.048   1.423   5.952
 6454SOL    HW121259   8.114   1.453   6.015
 6454SOL    HW221260   7.971   1.403   6.006
 6455SOL     OW21261  11.266   6.207  13.734
 6455SOL    HW121262  11.285   6.118  13.763
 6455SOL    HW221263  11.286   6.205  13.640
 6456SOL     OW21264   2.802   8.940   0.494
 6456SOL    HW121265   2.750   9.018   0.516
 6456SOL    HW221266   2.848   8.964   0.413
 6457SOL     OW21267  11.163  13.445   9.759
 6457SOL    HW121268  11.178  13.468   9.667
 6457SOL    HW221269  11.113  13.518   9.794
 6458SOL     OW21270   0.741   6.255  13.065
 6458SOL    HW121271   0.811   6.298  13.016
 6458SOL    HW221272   0.660   6.288  13.025
 6459SOL     OW21273   0.576   3.491  12.087
 6459SOL    HW121274   0.508   3.424  12.080
 6459SOL    HW221275   0.529   3.574  12.090
 6460SOL     OW21276  11.475  14.771  13.710
 6460SOL    HW121277  11.444  14.815  13.630
 6460SOL    HW221278  11.396  14.758  13.762
 6461SOL     OW21279  10.566   2.351  13.247
 6461SOL    HW121280  10.524   2.331  13.163
 6461SOL    HW221281  10.597   2.266  13.279
 6462SOL     OW21282   7.520   7.860   7.580
 6462SOL    HW121283   7.445   7.823   7.627
 6462SOL    HW221284   7.501   7.845   7.488
 6463SOL     OW21285  11.458  14.624   5.887
 6463SOL    HW121286  11.443  14.700   5.943
 6463SOL    HW221287  11.412  14.644   5.806
 6464SOL     OW21288  11.272   9.137   0.528
 6464SOL    HW121289  11.304   9.052   0.499
 6464SOL    HW221290  11.306   9.146   0.617
 6465SOL     OW21291   7.468  12.285   3.392
 6465SOL    HW121292   7.512  12.203   3.368
 6465SOL    HW221293   7.470  12.338   3.313
 6466SOL     OW21294   5.482   4.415  14.620
 6466SOL    HW121295   5.562   4.382  14.659
 6466SOL    HW221296   5.436   4.460  14.692
 6467SOL     OW21297  13.958   6.259   0.039
 6467SOL    HW121298  13.990   6.346   0.061
 6467SOL    HW221299  14.035   6.203   0.044
 6468SOL     OW21300   2.986  12.691  10.289
 6468SOL    HW121301   2.992  12.768  10.345
 6468SOL    HW221302   3.003  12.617  10.348
 6469SOL     OW21303   3.741  12.286   7.575
 6469SOL    HW121304   3.809  12.344   7.611
 6469SOL    HW221305   3.766  12.275   7.483
 6470SOL     OW21306   0.877   0.644   4.105
 6470SOL    HW121307   0.796   0.670   4.148
 6470SOL    HW221308   0.850   0.610   4.020
 6471SOL     OW21309  11.988   8.736   3.292
 6471SOL    HW121310  12.009   8.727   3.385
 6471SOL    HW221311  11.934   8.660   3.272
 6472SOL     OW21312   4.679  14.739   3.038
 6472SOL    HW121313   4.700  14.827   3.008
 6472SOL    HW221314   4.583  14.735   3.036
 6473SOL     OW21315   4.830   2.977  12.096
 6473SOL    HW121316   4.749   3.018  12.128
 6473SOL    HW221317   4.869   2.937  12.174
 6474SOL     OW21318   3.455   3.411  14.066
 6474SOL    HW121319   3.402   3.332  14.073
 6474SOL    HW221320   3.398   3.481  14.098
 6475SOL     OW21321   3.949   5.347  10.809
 6475SOL    HW121322   3.964   5.314  10.721
 6475SOL    HW221323   3.945   5.269  10.864
 6476SOL     OW21324   5.226   1.853   0.461
 6476SOL    HW121325   5.273   1.922   0.507
 6476SOL    HW221326   5.190   1.798   0.531
 6477SOL     OW21327   9.573   4.030  10.461
 6477SOL    HW121328   9.597   4.059  10.549
 6477SOL    HW221329   9.657   4.008  10.420
 6478SOL     OW21330   1.985  11.174   1.324
 6478SOL    HW121331   2.074  11.178   1.358
 6478SOL    HW221332   1.933  11.228   1.384
 6479SOL     OW21333  12.759   0.828   8.479
 6479SOL    HW121334  12.672   0.842   8.440
 6479SOL    HW221335  12.758   0.736   8.507
 6480SOL     OW21336   8.012   7.612  13.556
 6480SOL    HW121337   8.078   7.655  13.609
 6480SOL    HW221338   7.929   7.631  13.600
 6481SOL     OW21339   2.579   2.590  11.726
 6481SOL    HW121340   2.591   2.587  11.631
 6481SOL    HW221341   2.549   2.502  11.749
 6482SOL     OW21342   1.223   8.044   0.712
 6482SOL    HW121343   1.290   7.978   0.695
 6482SOL    HW221344   1.218   8.094   0.631
 6483SOL     OW21345   1.434  12.612  14.518
 6483SOL    HW121346   1.501  12.628  14.451
 6483SOL    HW221347   1.376  12.547  14.478
 6484SOL     OW21348   5.469   8.004   2.291
 6484SOL    HW121349   5.453   8.063   2.218
 6484SOL    HW221350   5.490   7.920   2.251
 6485SOL     OW21351   0.238   2.873   8.785
 6485SOL    HW121352   0.205   2.940   8.725
 6485SOL    HW221353   0.191   2.793   8.761
 6486SOL     OW21354  10.012   6.262   8.434
 6486SOL    HW121355   9.986   6.213   8.513
 6486SOL    HW221356   9.989   6.204   8.362
 6487SOL     OW21357   2.983   6.965   3.365
 6487SOL    HW121358   3.005   6.923   3.281
 6487SOL    HW221359   2.976   7.058   3.343
 6488SOL     OW21360   1.699   4.822   8.444
 6488SOL    HW121361   1.731   4.776   8.367
 6488SOL    HW221362   1.718   4.914   8.427
 6489SOL     OW21363  12.901   8.667  12.753
 6489SOL    HW121364  12.812   8.694  12.730
 6489SOL    HW221365  12.894   8.574  12.775
 6490SOL     OW21366   7.195   9.448   4.663
 6490SOL    HW121367   7.249   9.456   4.741
 6490SOL    HW221368   7.164   9.358   4.664
 6491SOL     OW21369   1.271   4.120   5.405
 6491SOL    HW121370   1.334   4.181   5.444
 6491SOL    HW221371   1.196   4.122   5.465
 6492SOL     OW21372   5.319   5.406   7.469
 6492SOL    HW121373   5.361   5.340   7.525
 6492SOL    HW221374   5.356   5.489   7.498
 6493SOL     OW21375   9.622   1.178   3.593
 6493SOL    HW121376   9.638   1.104   3.534
 6493SOL    HW221377   9.658   1.150   3.677
 6494SOL     OW21378   4.694   3.173   6.474
 6494SOL    HW121379   4.656   3.230   6.540
 6494SOL    HW221380   4.769   3.222   6.439
 6495SOL     OW21381  12.442  10.314   4.603
 6495SOL    HW121382  12.387  10.324   4.526
 6495SOL    HW221383  12.405  10.373   4.668
 6496SOL     OW21384   6.329  13.024   6.929
 6496SOL    HW121385   6.249  13.077   6.926
 6496SOL    HW221386   6.346  13.001   6.838
 6497SOL     OW21387  11.698   9.838   0.377
 6497SOL    HW121388  11.706   9.743   0.365
 6497SOL    HW221389  11.615   9.861   0.334
 6498SOL     OW21390   3.418   6.915   3.268
 6498SOL    HW121391   3.469   6.834   3.259
 6498SOL    HW221392   3.380   6.910   3.355
 6499SOL     OW21393   8.003   7.229  12.547
 6499SOL    HW121394   8.039   7.312  12.581
 6499SOL    HW221395   8.073   7.166  12.561
 6500SOL     OW21396  10.208   5.952   6.388
 6500SOL    HW121397  10.127   5.937   6.437
 6500SOL    HW221398  10.245   5.865   6.375
 6501SOL     OW21399   7.676  11.625  14.106
 6501SOL    HW121400   7.627  11.683  14.165
 6501SOL    HW221401   7.611  11.597  14.042
 6502SOL     OW21402   0.272   2.024  11.385
 6502SOL    HW121403   0.246   2.114  11.366
 6502SOL    HW221404   0.213   1.996  11.455
 6503SOL     OW21405   8.768  13.878   7.282
 6503SOL    HW121406   8.768  13.961   7.330
 6503SOL    HW221407   8.817  13.897   7.202
 6504SOL     OW21408   3.577   2.764   9.486
 6504SOL    HW121409   3.596   2.673   9.509
 6504SOL    HW221410   3.614   2.774   9.398
 6505SOL     OW21411   7.396  11.034   9.189
 6505SOL    HW121412   7.325  10.972   9.168
 6505SOL    HW221413   7.436  11.054   9.104
 6506SOL     OW21414   8.947   8.215  10.310
 6506SOL    HW121415   9.019   8.277  10.323
 6506SOL    HW221416   8.970   8.140  10.365
 6507SOL     OW21417  10.245   3.884   9.370
 6507SOL    HW121418  10.185   3.845   9.307
 6507SOL    HW221419  10.287   3.809   9.413
 6508SOL     OW21420  12.725   0.775  14.517
 6508SOL    HW121421  12.706   0.858  14.473
 6508SOL    HW221422  12.798   0.795  14.575
 6509SOL     OW21423   9.248   3.021  10.232
 6509SOL    HW121424   9.330   3.022  10.281
 6509SOL    HW221425   9.186   3.070  10.286
 6510SOL     OW21426   0.336  14.712  13.898
 6510SOL    HW121427   0.304  14.802  13.888
 6510SOL    HW221428   0.330  14.675  13.810
 6511SOL     OW21429   7.103  13.062  10.881
 6511SOL    HW121430   7.041  12.991  10.864
 6511SOL    HW221431   7.086  13.088  10.971
 6512SOL     OW21432  14.130   6.085   7.538
 6512SOL    HW121433  14.079   6.131   7.471
 6512SOL    HW221434  14.215   6.129   7.537
 6513SOL     OW21435  11.437  11.300  14.064
 6513SOL    HW121436  11.416  11.394  14.068
 6513SOL    HW221437  11.450  11.283  13.970
 6514SOL     OW21438   9.657   4.348  12.154
 6514SOL    HW121439   9.606   4.296  12.216
 6514SOL    HW221440   9.611   4.336  12.070
 6515SOL     OW21441   5.600  13.323   0.568
 6515SOL    HW121442   5.575  13.330   0.660
 6515SOL    HW221443   5.690  13.292   0.570
 6516SOL     OW21444   1.178   5.128  11.698
 6516SOL    HW121445   1.100   5.162  11.655
 6516SOL    HW221446   1.200   5.049  11.647
 6517SOL     OW21447   0.993   1.401   5.063
 6517SOL    HW121448   1.041   1.481   5.084
 6517SOL    HW221449   0.919   1.430   5.010
 6518SOL     OW21450   9.777   6.406   4.277
 6518SOL    HW121451   9.695   6.390   4.324
 6518SOL    HW221452   9.767   6.495   4.243
 6519SOL     OW21453   8.336  11.889  12.164
 6519SOL    HW121454   8.295  11.835  12.231
 6519SOL    HW221455   8.266  11.904  12.100
 6520SOL     OW21456   4.043   9.836  12.942
 6520SOL    HW121457   4.115   9.860  13.000
 6520SOL    HW221458   4.083   9.781  12.875
 6521SOL     OW21459   6.716   0.758   4.990
 6521SOL    HW121460   6.757   0.819   5.051
 6521SOL    HW221461   6.790   0.711   4.951
 6522SOL     OW21462  13.584   5.625   9.401
 6522SOL    HW121463  13.674   5.606   9.427
 6522SOL    HW221464  13.589   5.643   9.307
 6523SOL     OW21465   2.762   0.316   4.749
 6523SOL    HW121466   2.689   0.377   4.754
 6523SOL    HW221467   2.840   0.371   4.756
 6524SOL     OW21468   2.476  12.646   0.723
 6524SOL    HW121469   2.414  12.705   0.768
 6524SOL    HW221470   2.538  12.621   0.791
 6525SOL     OW21471   6.521   1.439   1.755
 6525SOL    HW121472   6.464   1.478   1.689
 6525SOL    HW221473   6.569   1.371   1.707
 6526SOL     OW21474  14.196  13.012   0.850
 6526SOL    HW121475  14.196  13.104   0.875
 6526SOL    HW221476  14.212  13.012   0.755
 6527SOL     OW21477  10.524   5.529   0.238
 6527SOL    HW121478  10.482   5.445   0.258
 6527SOL    HW221479  10.604   5.529   0.290
 6528SOL     OW21480  13.770   9.829   0.077
 6528SOL    HW121481  13.844   9.783   0.038
 6528SOL    HW221482  13.699   9.765   0.075
 6529SOL     OW21483   6.780   3.274  11.612
 6529SOL    HW121484   6.782   3.245  11.703
 6529SOL    HW221485   6.780   3.370  11.617
 6530SOL     OW21486   9.787   9.033   8.636
 6530SOL    HW121487   9.742   9.068   8.560
 6530SOL    HW221488   9.818   8.947   8.608
 6531SOL     OW21489   3.136   6.889   4.943
 6531SOL    HW121490   3.166   6.895   5.034
 6531SOL    HW221491   3.086   6.970   4.929
 6532SOL     OW21492   3.600  13.682   2.469
 6532SOL    HW121493   3.652  13.653   2.395
 6532SOL    HW221494   3.517  13.635   2.461
 6533SOL     OW21495  11.478   5.469  14.431
 6533SOL    HW121496  11.521   5.468  14.517
 6533SOL    HW221497  11.545   5.437  14.370
 6534SOL     OW21498   5.281  12.214   9.950
 6534SOL    HW121499   5.269  12.248   9.861
 6534SOL    HW221500   5.215  12.146   9.959
 6535SOL     OW21501   0.155  10.708  12.297
 6535SOL    HW121502   0.183  10.682  12.209
 6535SOL    HW221503   0.235  10.702  12.350
 6536SOL     OW21504  10.813  11.964   3.043
 6536SOL    HW121505  10.908  11.957   3.040
 6536SOL    HW221506  10.782  11.874   3.039
 6537SOL     OW21507  14.462   5.901   5.524
 6537SOL    HW121508  14.547   5.899   5.479
 6537SOL    HW221509  14.422   5.983   5.495
 6538SOL     OW21510   2.817   7.817   3.589
 6538SOL    HW121511   2.750   7.843   3.652
 6538SOL    HW221512   2.900   7.831   3.635
 6539SOL     OW21513  13.152  10.432   5.170
 6539SOL    HW121514  13.188  10.513   5.206
 6539SOL    HW221515  13.155  10.445   5.075
 6540SOL     OW21516   2.814   5.982  13.708
 6540SOL    HW121517   2.754   6.015  13.641
 6540SOL    HW221518   2.876   6.054  13.722
 6541SOL     OW21519   1.917   7.686  14.123
 6541SOL    HW121520   2.000   7.691  14.170
 6541SOL    HW221521   1.923   7.605  14.073
 6542SOL     OW21522   3.779  12.527   8.996
 6542SOL    HW121523   3.825  12.528   8.912
 6542SOL    HW221524   3.838  12.480   9.055
 6543SOL     OW21525   0.945  11.540  11.200
 6543SOL    HW121526   1.031  11.564  11.164
 6543SOL    HW221527   0.965  11.477  11.269
 6544SOL     OW21528   4.888   9.795  14.557
 6544SOL    HW121529   4.848   9.721  14.511
 6544SOL    HW221530   4.819   9.862  14.559
 6545SOL     OW21531   8.643   2.206  13.949
 6545SOL    HW121532   8.691   2.256  14.015
 6545SOL    HW221533   8.709   2.151  13.907
 6546SOL     OW21534   7.725   2.830   4.080
 6546SOL    HW121535   7.643   2.800   4.119
 6546SOL    HW221536   7.762   2.753   4.038
 6547SOL     OW21537  10.613   9.734   7.950
 6547SOL    HW121538  10.531   9.718   7.905
 6547SOL    HW221539  10.587   9.768   8.036
 6548SOL     OW21540   6.680   8.566   1.151
 6548SOL    HW121541   6.702   8.600   1.064
 6548SOL    HW221542   6.656   8.475   1.136
 6549SOL     OW21543   9.361   3.720   7.124
 6549SOL    HW121544   9.358   3.660   7.198
 6549SOL    HW221545   9.272   3.722   7.090
 6550SOL     OW21546   5.260  14.853   6.843
 6550SOL    HW121547   5.251  14.763   6.811
 6550SOL    HW221548   5.354  14.864   6.857
 6551SOL     OW21549   4.896   0.354  10.160
 6551SOL    HW121550   4.894   0.313  10.073
 6551SOL    HW221551   4.958   0.301  10.210
 6552SOL     OW21552   0.003  11.114  12.803
 6552SOL    HW121553   0.075  11.149  12.750
 6552SOL    HW221554  14.832  11.192  12.841
 6553SOL     OW21555   5.440   2.523  12.502
 6553SOL    HW121556   5.487   2.440  12.514
 6553SOL    HW221557   5.384   2.509  12.426
 6554SOL     OW21558   0.391   8.152   2.181
 6554SOL    HW121559   0.356   8.220   2.238
 6554SOL    HW221560   0.364   8.070   2.222
 6555SOL     OW21561   7.079   9.801  13.399
 6555SOL    HW121562   7.097   9.887  13.437
 6555SOL    HW221563   7.001   9.815  13.345
 6556SOL     OW21564  11.166   9.349   1.526
 6556SOL    HW121565  11.241   9.379   1.578
 6556SOL    HW221566  11.120   9.429   1.501
 6557SOL     OW21567   7.165   2.281   5.450
 6557SOL    HW121568   7.116   2.357   5.420
 6557SOL    HW221569   7.140   2.271   5.542
 6558SOL     OW21570   4.266  12.975  13.963
 6558SOL    HW121571   4.334  12.909  13.975
 6558SOL    HW221572   4.285  13.014  13.878
 6559SOL     OW21573  13.154   8.391   0.837
 6559SOL    HW121574  13.249   8.399   0.832
 6559SOL    HW221575  13.131   8.331   0.766
 6560SOL     OW21576   1.124   5.863   6.836
 6560SOL    HW121577   1.098   5.952   6.860
 6560SOL    HW221578   1.043   5.812   6.844
 6561SOL     OW21579  10.852   8.314  11.365
 6561SOL    HW121580  10.890   8.283  11.284
 6561SOL    HW221581  10.923   8.360  11.410
 6562SOL     OW21582   0.027   9.934  11.823
 6562SOL    HW121583  14.843  10.000  11.780
 6562SOL    HW221584   0.091   9.908  11.756
 6563SOL     OW21585   3.393   3.269  12.292
 6563SOL    HW121586   3.455   3.341  12.280
 6563SOL    HW221587   3.311   3.311  12.317
 6564SOL     OW21588  14.826   6.576   6.405
 6564SOL    HW121589  14.744   6.585   6.356
 6564SOL    HW221590   0.008   6.514   6.353
 6565SOL     OW21591  10.140   4.494  13.412
 6565SOL    HW121592  10.214   4.540  13.453
 6565SOL    HW221593  10.064   4.551  13.429
 6566SOL     OW21594   3.942   6.425  12.755
 6566SOL    HW121595   3.950   6.520  12.745
 6566SOL    HW221596   4.020   6.400  12.805
 6567SOL     OW21597  10.896  12.845  11.293
 6567SOL    HW121598  10.834  12.887  11.233
 6567SOL    HW221599  10.920  12.914  11.355
 6568SOL     OW21600   4.679   9.035   8.286
 6568SOL    HW121601   4.626   9.114   8.273
 6568SOL    HW221602   4.700   9.036   8.379
 6569SOL     OW21603   5.980   9.771   2.210
 6569SOL    HW121604   5.924   9.723   2.271
 6569SOL    HW221605   6.019   9.704   2.154
 6570SOL     OW21606  12.980   5.366   4.819
 6570SOL    HW121607  13.067   5.399   4.798
 6570SOL    HW221608  12.989   5.325   4.905
 6571SOL     OW21609   9.208   6.760  10.338
 6571SOL    HW121610   9.256   6.821  10.282
 6571SOL    HW221611   9.275   6.705  10.377
 6572SOL     OW21612   9.140   8.242   3.753
 6572SOL    HW121613   9.131   8.245   3.657
 6572SOL    HW221614   9.233   8.255   3.769
 6573SOL     OW21615   1.732  11.127   4.812
 6573SOL    HW121616   1.763  11.140   4.901
 6573SOL    HW221617   1.638  11.143   4.816
 6574SOL     OW21618   1.605   9.544   9.031
 6574SOL    HW121619   1.668   9.572   8.964
 6574SOL    HW221620   1.558   9.625   9.055
 6575SOL     OW21621   1.039   0.956   9.973
 6575SOL    HW121622   1.024   0.942   9.880
 6575SOL    HW221623   1.051   0.868  10.009
 6576SOL     OW21624   4.913   9.550   9.618
 6576SOL    HW121625   4.945   9.567   9.530
 6576SOL    HW221626   4.826   9.512   9.605
 6577SOL     OW21627   1.367  12.898   4.467
 6577SOL    HW121628   1.363  12.986   4.506
 6577SOL    HW221629   1.381  12.915   4.373
 6578SOL     OW21630   2.316   0.766   9.226
 6578SOL    HW121631   2.293   0.682   9.265
 6578SOL    HW221632   2.411   0.762   9.214
 6579SOL     OW21633   9.109  12.008  12.564
 6579SOL    HW121634   9.112  11.939  12.497
 6579SOL    HW221635   9.073  11.965  12.641
 6580SOL     OW21636   5.810  12.034  10.415
 6580SOL    HW121637   5.744  11.992  10.360
 6580SOL    HW221638   5.850  11.962  10.464
 6581SOL     OW21639  10.217  11.931   6.405
 6581SOL    HW121640  10.275  11.931   6.328
 6581SOL    HW221641  10.238  12.013   6.451
 6582SOL     OW21642   3.232   8.958   1.776
 6582SOL    HW121643   3.288   9.025   1.737
 6582SOL    HW221644   3.188   8.916   1.701
 6583SOL     OW21645  11.262   4.269   8.901
 6583SOL    HW121646  11.277   4.255   8.807
 6583SOL    HW221647  11.305   4.353   8.919
 6584SOL     OW21648   3.029   7.089   9.936
 6584SOL    HW121649   3.120   7.090   9.904
 6584SOL    HW221650   2.988   7.017   9.887
 6585SOL     OW21651  14.589   0.706   8.618
 6585SOL    HW121652  14.613   0.791   8.582
 6585SOL    HW221653  14.590   0.718   8.713
 6586SOL     OW21654   0.993   1.008  11.946
 6586SOL    HW121655   1.026   0.940  12.004
 6586SOL    HW221656   1.030   1.090  11.981
 6587SOL     OW21657   1.611   1.334   0.158
 6587SOL    HW121658   1.602   1.248   0.200
 6587SOL    HW221659   1.649   1.313   0.072
 6588SOL     OW21660  12.403  11.014  13.063
 6588SOL    HW121661  12.322  10.967  13.081
 6588SOL    HW221662  12.432  10.982  12.978
 6589SOL     OW21663   8.232   5.985   1.084
 6589SOL    HW121664   8.169   6.035   1.136
 6589SOL    HW221665   8.180   5.921   1.036
 6590SOL     OW21666  13.205   4.964   9.920
 6590SOL    HW121667  13.120   4.995   9.951
 6590SOL    HW221668  13.192   4.950   9.826
 6591SOL     OW21669   9.216   2.842  13.750
 6591SOL    HW121670   9.273   2.817  13.822
 6591SOL    HW221671   9.182   2.758  13.717
 6592SOL     OW21672   6.541   6.013   6.850
 6592SOL    HW121673   6.451   5.980   6.847
 6592SOL    HW221674   6.533   6.108   6.842
 6593SOL     OW21675   7.723  11.514  12.654
 6593SOL    HW121676   7.713  11.442  12.716
 6593SOL    HW221677   7.662  11.493  12.582
 6594SOL     OW21678   8.058   0.342  10.609
 6594SOL    HW121679   7.989   0.393  10.566
 6594SOL    HW221680   8.139   0.377  10.572
 6595SOL     OW21681   5.907   3.471   5.123
 6595SOL    HW121682   5.851   3.393   5.123
 6595SOL    HW221683   5.856   3.537   5.075
 6596SOL     OW21684   5.782  13.194   9.165
 6596SOL    HW121685   5.839  13.189   9.242
 6596SOL    HW221686   5.711  13.133   9.183
 6597SOL     OW21687   4.597  10.324   1.006
 6597SOL    HW121688   4.613  10.307   1.099
 6597SOL    HW221689   4.515  10.374   1.005
 6598SOL     OW21690   0.935  11.456   2.093
 6598SOL    HW121691   0.891  11.502   2.164
 6598SOL    HW221692   0.944  11.521   2.024
 6599SOL     OW21693   1.447   7.563   1.966
 6599SOL    HW121694   1.358   7.592   1.949
 6599SOL    HW221695   1.487   7.635   2.014
 6600SOL     OW21696   8.224   7.975   1.319
 6600SOL    HW121697   8.178   7.892   1.306
 6600SOL    HW221698   8.314   7.949   1.342
 6601SOL     OW21699  11.358  12.162  13.215
 6601SOL    HW121700  11.415  12.119  13.151
 6601SOL    HW221701  11.294  12.094  13.238
 6602SOL     OW21702   4.820   4.211   5.574
 6602SOL    HW121703   4.857   4.239   5.657
 6602SOL    HW221704   4.862   4.126   5.556
 6603SOL     OW21705  10.606   3.842   4.943
 6603SOL    HW121706  10.542   3.823   4.874
 6603SOL    HW221707  10.578   3.787   5.017
 6604SOL     OW21708  12.796   5.679  10.812
 6604SOL    HW121709  12.837   5.637  10.737
 6604SOL    HW221710  12.854   5.660  10.885
 6605SOL     OW21711   3.225   1.128   5.528
 6605SOL    HW121712   3.301   1.126   5.470
 6605SOL    HW221713   3.164   1.065   5.489
 6606SOL     OW21714  13.677  13.417   2.406
 6606SOL    HW121715  13.606  13.479   2.421
 6606SOL    HW221716  13.736  13.428   2.481
 6607SOL     OW21717   8.010   2.845  10.857
 6607SOL    HW121718   8.008   2.937  10.830
 6607SOL    HW221719   7.931   2.807  10.818
 6608SOL     OW21720   6.563  12.621   1.119
 6608SOL    HW121721   6.493  12.640   1.181
 6608SOL    HW221722   6.629  12.689   1.136
 6609SOL     OW21723   6.128   3.939   1.507
 6609SOL    HW121724   6.219   3.915   1.491
 6609SOL    HW221725   6.096   3.874   1.569
 6610SOL     OW21726   2.183   2.505   2.670
 6610SOL    HW121727   2.196   2.473   2.581
 6610SOL    HW221728   2.232   2.444   2.725
 6611SOL     OW21729   8.261   8.673   8.106
 6611SOL    HW121730   8.336   8.616   8.085
 6611SOL    HW221731   8.286   8.715   8.189
 6612SOL     OW21732   0.061  11.826   7.922
 6612SOL    HW121733  14.869  11.757   7.896
 6612SOL    HW221734   0.117  11.786   7.988
 6613SOL     OW21735   0.993   7.546   1.249
 6613SOL    HW121736   1.036   7.627   1.278
 6613SOL    HW221737   0.943   7.572   1.171
 6614SOL     OW21738   9.771  14.197  10.303
 6614SOL    HW121739   9.757  14.159  10.390
 6614SOL    HW221740   9.824  14.132  10.257
 6615SOL     OW21741  11.507  11.089   8.562
 6615SOL    HW121742  11.480  11.142   8.636
 6615SOL    HW221743  11.594  11.122   8.539
 6616SOL     OW21744  13.492  10.123   3.419
 6616SOL    HW121745  13.529  10.035   3.420
 6616SOL    HW221746  13.400  10.110   3.400
 6617SOL     OW21747  14.365   6.525  10.524
 6617SOL    HW121748  14.281   6.549  10.563
 6617SOL    HW221749  14.363   6.565  10.437
 6618SOL     OW21750   4.147   3.868   0.363
 6618SOL    HW121751   4.182   3.834   0.281
 6618SOL    HW221752   4.054   3.846   0.362
 6619SOL     OW21753   3.152   4.974   4.632
 6619SOL    HW121754   3.209   4.985   4.709
 6619SOL    HW221755   3.067   5.008   4.660
 6620SOL     OW21756   7.911   6.211   4.284
 6620SOL    HW121757   7.850   6.147   4.321
 6620SOL    HW221758   7.856   6.282   4.251
 6621SOL     OW21759   1.180  11.618   6.692
 6621SOL    HW121760   1.182  11.607   6.597
 6621SOL    HW221761   1.104  11.568   6.721
 6622SOL     OW21762   0.585  12.740   4.430
 6622SOL    HW121763   0.656  12.755   4.367
 6622SOL    HW221764   0.583  12.644   4.440
 6623SOL     OW21765   3.455  10.827   4.792
 6623SOL    HW121766   3.484  10.770   4.720
 6623SOL    HW221767   3.517  10.900   4.791
 6624SOL     OW21768   1.593   8.600   1.483
 6624SOL    HW121769   1.634   8.538   1.424
 6624SOL    HW221770   1.631   8.684   1.460
 6625SOL     OW21771   3.996   5.244  10.528
 6625SOL    HW121772   3.920   5.195  10.496
 6625SOL    HW221773   4.050   5.179  10.572
 6626SOL     OW21774   1.705  10.112   1.833
 6626SOL    HW121775   1.664  10.039   1.786
 6626SOL    HW221776   1.788  10.126   1.788
 6627SOL     OW21777  11.515   3.857   5.443
 6627SOL    HW121778  11.581   3.899   5.498
 6627SOL    HW221779  11.501   3.918   5.370
 6628SOL     OW21780   1.702   5.316   3.700
 6628SOL    HW121781   1.633   5.250   3.710
 6628SOL    HW221782   1.771   5.272   3.650
 6629SOL     OW21783   0.384   9.133   0.934
 6629SOL    HW121784   0.464   9.151   0.884
 6629SOL    HW221785   0.405   9.055   0.985
 6630SOL     OW21786   3.251   8.083   3.708
 6630SOL    HW121787   3.308   8.160   3.717
 6630SOL    HW221788   3.176   8.115   3.658
 6631SOL     OW21789  12.800   2.695   8.890
 6631SOL    HW121790  12.798   2.762   8.958
 6631SOL    HW221791  12.777   2.614   8.935
 6632SOL     OW21792  13.326  12.665   7.495
 6632SOL    HW121793  13.311  12.758   7.515
 6632SOL    HW221794  13.284  12.618   7.567
 6633SOL     OW21795   9.182   0.927  14.399
 6633SOL    HW121796   9.118   0.987  14.437
 6633SOL    HW221797   9.264   0.976  14.399
 6634SOL     OW21798  10.859   7.181  11.796
 6634SOL    HW121799  10.791   7.118  11.774
 6634SOL    HW221800  10.904   7.143  11.872
 6635SOL     OW21801   7.107   4.485   8.750
 6635SOL    HW121802   7.055   4.558   8.716
 6635SOL    HW221803   7.145   4.445   8.671
 6636SOL     OW21804   2.123   8.042   1.150
 6636SOL    HW121805   2.173   7.961   1.161
 6636SOL    HW221806   2.115   8.053   1.055
 6637SOL     OW21807  11.354  10.939   4.447
 6637SOL    HW121808  11.386  11.029   4.439
 6637SOL    HW221809  11.417  10.897   4.506
 6638SOL     OW21810   9.847  11.836  11.378
 6638SOL    HW121811   9.779  11.776  11.410
 6638SOL    HW221812   9.881  11.794  11.299
 6639SOL     OW21813   6.763   8.879   5.234
 6639SOL    HW121814   6.790   8.932   5.309
 6639SOL    HW221815   6.750   8.791   5.270
 6640SOL     OW21816   3.043   8.147   2.338
 6640SOL    HW121817   3.078   8.222   2.386
 6640SOL    HW221818   3.117   8.114   2.287
 6641SOL     OW21819   8.694   6.197   8.540
 6641SOL    HW121820   8.600   6.210   8.528
 6641SOL    HW221821   8.734   6.277   8.507
 6642SOL     OW21822   5.546   0.819   6.819
 6642SOL    HW121823   5.633   0.859   6.831
 6642SOL    HW221824   5.564   0.729   6.793
 6643SOL     OW21825  10.903  12.294   1.265
 6643SOL    HW121826  10.972  12.305   1.330
 6643SOL    HW221827  10.836  12.242   1.309
 6644SOL     OW21828  14.221   2.915   7.609
 6644SOL    HW121829  14.252   2.858   7.680
 6644SOL    HW221830  14.289   2.909   7.542
 6645SOL     OW21831  10.012  10.506   5.706
 6645SOL    HW121832  10.093  10.555   5.690
 6645SOL    HW221833   9.971  10.499   5.619
 6646SOL     OW21834   1.699  11.042  10.412
 6646SOL    HW121835   1.756  10.973  10.446
 6646SOL    HW221836   1.629  10.996  10.366
 6647SOL     OW21837   0.762  10.233  13.758
 6647SOL    HW121838   0.697  10.295  13.791
 6647SOL    HW221839   0.797  10.191  13.836
 6648SOL     OW21840   5.376   9.709   2.167
 6648SOL    HW121841   5.370   9.622   2.205
 6648SOL    HW221842   5.443   9.702   2.099
 6649SOL     OW21843  10.989   0.506   6.319
 6649SOL    HW121844  11.081   0.530   6.309
 6649SOL    HW221845  10.948   0.537   6.239
 6650SOL     OW21846  14.623   8.790  13.451
 6650SOL    HW121847  14.626   8.734  13.529
 6650SOL    HW221848  14.685   8.860  13.469
 6651SOL     OW21849   7.033   4.480   0.094
 6651SOL    HW121850   7.015   4.393   0.130
 6651SOL    HW221851   6.977   4.538   0.146
 6652SOL     OW21852   4.528   0.020   3.511
 6652SOL    HW121853   4.621  14.869   3.504
 6652SOL    HW221854   4.520   0.064   3.596
 6653SOL     OW21855   7.099   5.074   8.520
 6653SOL    HW121856   7.138   5.004   8.571
 6653SOL    HW221857   7.008   5.047   8.508
 6654SOL     OW21858   6.192   0.622   1.731
 6654SOL    HW121859   6.128   0.623   1.660
 6654SOL    HW221860   6.234   0.536   1.725
 6655SOL     OW21861   9.887   9.289   8.752
 6655SOL    HW121862   9.824   9.351   8.716
 6655SOL    HW221863   9.884   9.214   8.693
 6656SOL     OW21864   6.529   7.883  12.805
 6656SOL    HW121865   6.564   7.856  12.890
 6656SOL    HW221866   6.554   7.814  12.745
 6657SOL     OW21867  10.868  11.453   1.014
 6657SOL    HW121868  10.953  11.426   0.979
 6657SOL    HW221869  10.809  11.381   0.992
 6658SOL     OW21870  13.783   4.793   2.951
 6658SOL    HW121871  13.844   4.729   2.987
 6658SOL    HW221872  13.766   4.762   2.862
 6659SOL     OW21873   9.197  12.046   4.777
 6659SOL    HW121874   9.123  12.087   4.732
 6659SOL    HW221875   9.269  12.108   4.766
 6660SOL     OW21876  10.977   6.923   0.634
 6660SOL    HW121877  10.939   6.991   0.579
 6660SOL    HW221878  11.051   6.889   0.583
 6661SOL     OW21879   2.051   0.290  11.020
 6661SOL    HW121880   2.123   0.288  11.084
 6661SOL    HW221881   1.982   0.236  11.060
 6662SOL     OW21882   3.580  12.183   9.912
 6662SOL    HW121883   3.559  12.236   9.835
 6662SOL    HW221884   3.556  12.094   9.888
 6663SOL     OW21885  13.229   8.036   3.853
 6663SOL    HW121886  13.191   8.106   3.906
 6663SOL    HW221887  13.207   7.956   3.900
 6664SOL     OW21888   9.129   0.831   8.077
 6664SOL    HW121889   9.143   0.918   8.114
 6664SOL    HW221890   9.148   0.771   8.148
 6665SOL     OW21891  11.468  11.104   8.274
 6665SOL    HW121892  11.503  11.102   8.363
 6665SOL    HW221893  11.429  11.017   8.262
 6666SOL     OW21894   8.824  12.049   2.713
 6666SOL    HW121895   8.822  12.033   2.807
 6666SOL    HW221896   8.909  12.015   2.684
 6667SOL     OW21897   2.418  14.333  13.119
 6667SOL    HW121898   2.431  14.238  13.114
 6667SOL    HW221899   2.505  14.368  13.137
 6668SOL     OW21900   2.003  11.772  12.473
 6668SOL    HW121901   2.093  11.801  12.463
 6668SOL    HW221902   1.964  11.782  12.386
 6669SOL     OW21903   5.327  12.773   4.433
 6669SOL    HW121904   5.279  12.803   4.510
 6669SOL    HW221905   5.360  12.854   4.392
 6670SOL     OW21906   2.854   8.899   2.971
 6670SOL    HW121907   2.859   8.806   2.952
 6670SOL    HW221908   2.760   8.918   2.975
 6671SOL     OW21909   4.215   3.435   2.129
 6671SOL    HW121910   4.269   3.404   2.056
 6671SOL    HW221911   4.276   3.442   2.202
 6672SOL     OW21912   9.406   9.431   9.841
 6672SOL    HW121913   9.499   9.455   9.836
 6672SOL    HW221914   9.379   9.424   9.749
 6673SOL     OW21915   1.362   3.003  14.798
 6673SOL    HW121916   1.271   3.015  14.826
 6673SOL    HW221917   1.414   3.046  14.867
 6674SOL     OW21918  12.210  11.755   1.425
 6674SOL    HW121919  12.257  11.689   1.476
 6674SOL    HW221920  12.129  11.770   1.474
 6675SOL     OW21921  11.690   6.962  12.615
 6675SOL    HW121922  11.620   6.924  12.562
 6675SOL    HW221923  11.675   6.928  12.703
 6676SOL     OW21924   4.114  12.777   5.330
 6676SOL    HW121925   4.116  12.776   5.426
 6676SOL    HW221926   4.025  12.748   5.308
 6677SOL     OW21927   5.031   7.385  11.851
 6677SOL    HW121928   5.078   7.308  11.884
 6677SOL    HW221929   5.071   7.403  11.766
 6678SOL     OW21930   7.016   0.817  10.656
 6678SOL    HW121931   6.986   0.907  10.666
 6678SOL    HW221932   6.985   0.791  10.569
 6679SOL     OW21933  10.795  11.576   8.934
 6679SOL    HW121934  10.857  11.508   8.906
 6679SOL    HW221935  10.771  11.621   8.853
 6680SOL     OW21936   5.895   5.888  13.639
 6680SOL    HW121937   5.947   5.815  13.672
 6680SOL    HW221938   5.805   5.854  13.638
 6681SOL     OW21939   2.311   2.510  10.177
 6681SOL    HW121940   2.277   2.430  10.136
 6681SOL    HW221941   2.290   2.579  10.114
 6682SOL     OW21942   6.172   0.726  11.996
 6682SOL    HW121943   6.231   0.776  11.938
 6682SOL    HW221944   6.110   0.685  11.936
 6683SOL     OW21945   8.778  10.486  12.489
 6683SOL    HW121946   8.713  10.417  12.496
 6683SOL    HW221947   8.850  10.448  12.439
 6684SOL     OW21948   5.803   7.475   2.925
 6684SOL    HW121949   5.842   7.511   2.845
 6684SOL    HW221950   5.878   7.453   2.980
 6685SOL     OW21951  14.093   1.841   5.334
 6685SOL    HW121952  14.149   1.903   5.381
 6685SOL    HW221953  14.154   1.778   5.295
 6686SOL     OW21954   6.941  14.058   7.306
 6686SOL    HW121955   7.002  14.017   7.367
 6686SOL    HW221956   6.895  13.986   7.264
 6687SOL     OW21957   1.678   8.987   7.337
 6687SOL    HW121958   1.761   8.990   7.384
 6687SOL    HW221959   1.678   9.066   7.282
 6688SOL     OW21960   4.748   4.842   6.515
 6688SOL    HW121961   4.729   4.766   6.460
 6688SOL    HW221962   4.776   4.805   6.599
 6689SOL     OW21963   1.228   2.605  12.556
 6689SOL    HW121964   1.318   2.636  12.556
 6689SOL    HW221965   1.211   2.581  12.647
 6690SOL     OW21966   3.892   3.636  12.931
 6690SOL    HW121967   3.896   3.628  12.836
 6690SOL    HW221968   3.964   3.581  12.963
 6691SOL     OW21969   9.189   1.635   6.174
 6691SOL    HW121970   9.187   1.710   6.234
 6691SOL    HW221971   9.281   1.626   6.150
 6692SOL     OW21972   4.477   4.717   2.826
 6692SOL    HW121973   4.530   4.758   2.758
 6692SOL    HW221974   4.540   4.693   2.895
 6693SOL     OW21975  13.179  12.764   3.109
 6693SOL    HW121976  13.213  12.802   3.028
 6693SOL    HW221977  13.133  12.685   3.081
 6694SOL     OW21978   2.750   2.881  12.807
 6694SOL    HW121979   2.807   2.824  12.755
 6694SOL    HW221980   2.663   2.867  12.769
 6695SOL     OW21981   2.938   7.506   1.896
 6695SOL    HW121982   3.003   7.484   1.830
 6695SOL    HW221983   2.880   7.430   1.899
 6696SOL     OW21984   7.157  13.107   5.203
 6696SOL    HW121985   7.136  13.081   5.113
 6696SOL    HW221986   7.072  13.115   5.246
 6697SOL     OW21987   7.118  12.700   2.900
 6697SOL    HW121988   7.149  12.615   2.931
 6697SOL    HW221989   7.189  12.732   2.844
 6698SOL     OW21990  10.477   7.598  12.598
 6698SOL    HW121991  10.490   7.588  12.504
 6698SOL    HW221992  10.457   7.691  12.610
 6699SOL     OW21993   1.525   4.679   7.280
 6699SOL    HW121994   1.523   4.621   7.204
 6699SOL    HW221995   1.452   4.649   7.335
 6700SOL     OW21996  10.848   5.183   4.664
 6700SOL    HW121997  10.833   5.277   4.668
 6700SOL    HW221998  10.772   5.144   4.708
 6701SOL     OW21999   7.203  12.414   1.880
 6701SOL    HW122000   7.207  12.443   1.971
 6701SOL    HW222001   7.185  12.494   1.831
 6702SOL     OW22002   7.762   0.845  10.657
 6702SOL    HW122003   7.669   0.826  10.644
 6702SOL    HW222004   7.795   0.771  10.706
 6703SOL     OW22005   6.336  11.752   8.067
 6703SOL    HW122006   6.310  11.835   8.107
 6703SOL    HW222007   6.322  11.765   7.973
 6704SOL     OW22008   6.785   2.583   8.541
 6704SOL    HW122009   6.824   2.558   8.458
 6704SOL    HW222010   6.860   2.596   8.600
 6705SOL     OW22011   0.934   5.298   6.508
 6705SOL    HW122012   0.992   5.228   6.479
 6705SOL    HW222013   0.899   5.267   6.592
 6706SOL     OW22014   3.381   6.773   3.678
 6706SOL    HW122015   3.470   6.809   3.680
 6706SOL    HW222016   3.388   6.688   3.720
 6707SOL     OW22017   3.848   5.979  11.111
 6707SOL    HW122018   3.897   5.933  11.043
 6707SOL    HW222019   3.801   5.909  11.158
 6708SOL     OW22020   1.693   7.014   2.279
 6708SOL    HW122021   1.701   7.039   2.187
 6708SOL    HW222022   1.774   7.046   2.320
 6709SOL     OW22023   4.090  11.805   0.484
 6709SOL    HW122024   4.101  11.852   0.567
 6709SOL    HW222025   3.998  11.819   0.460
 6710SOL     OW22026  13.491   3.717  10.934
 6710SOL    HW122027  13.416   3.772  10.957
 6710SOL    HW222028  13.567   3.775  10.945
 6711SOL     OW22029   4.584   4.610   3.292
 6711SOL    HW122030   4.535   4.685   3.325
 6711SOL    HW222031   4.545   4.593   3.206
 6712SOL     OW22032   7.884   8.671  11.766
 6712SOL    HW122033   7.941   8.594  11.774
 6712SOL    HW222034   7.803   8.645  11.811
 6713SOL     OW22035   0.740   2.822  12.715
 6713SOL    HW122036   0.669   2.852  12.659
 6713SOL    HW222037   0.817   2.871  12.685
 6714SOL     OW22038   0.718  13.601   7.648
 6714SOL    HW122039   0.766  13.519   7.638
 6714SOL    HW222040   0.769  13.651   7.711
 6715SOL     OW22041   2.953   7.342   9.442
 6715SOL    HW122042   3.002   7.291   9.507
 6715SOL    HW222043   2.870   7.362   9.485
 6716SOL     OW22044   2.202   3.965   1.002
 6716SOL    HW122045   2.261   4.011   0.942
 6716SOL    HW222046   2.251   3.961   1.084
 6717SOL     OW22047   7.558   8.440  14.022
 6717SOL    HW122048   7.469   8.430  14.055
 6717SOL    HW222049   7.550   8.496  13.945
 6718SOL     OW22050   6.865   3.501   5.549
 6718SOL    HW122051   6.863   3.581   5.496
 6718SOL    HW222052   6.790   3.450   5.519
 6719SOL     OW22053   7.325   7.774   4.064
 6719SOL    HW122054   7.405   7.720   4.067
 6719SOL    HW222055   7.272   7.740   4.136
 6720SOL     OW22056  10.030  12.089  13.247
 6720SOL    HW122057  10.015  12.178  13.216
 6720SOL    HW222058  10.104  12.058  13.194
 6721SOL     OW22059   1.229   1.595   2.056
 6721SOL    HW122060   1.286   1.612   1.981
 6721SOL    HW222061   1.188   1.680   2.074
 6722SOL     OW22062   2.056   7.528   2.639
 6722SOL    HW122063   2.088   7.489   2.557
 6722SOL    HW222064   2.106   7.609   2.647
 6723SOL     OW22065   3.514   2.805   3.669
 6723SOL    HW122066   3.525   2.797   3.574
 6723SOL    HW222067   3.419   2.808   3.682
 6724SOL     OW22068   2.952  10.445   8.526
 6724SOL    HW122069   2.955  10.471   8.434
 6724SOL    HW222070   2.903  10.363   8.526
 6725SOL     OW22071  10.406   3.591   4.982
 6725SOL    HW122072  10.392   3.552   5.069
 6725SOL    HW222073  10.319   3.619   4.954
 6726SOL     OW22074  14.683   9.608  14.656
 6726SOL    HW122075  14.649   9.694  14.681
 6726SOL    HW222076  14.712   9.568  14.739
 6727SOL     OW22077   3.713   6.704   4.886
 6727SOL    HW122078   3.728   6.644   4.959
 6727SOL    HW222079   3.755   6.785   4.913
 6728SOL     OW22080  10.254   8.023   4.646
 6728SOL    HW122081  10.312   8.098   4.661
 6728SOL    HW222082  10.296   7.951   4.693
 6729SOL     OW22083   1.746  10.075   2.745
 6729SOL    HW122084   1.731  10.099   2.837
 6729SOL    HW222085   1.772  10.157   2.703
 6730SOL     OW22086   7.694  13.634  13.151
 6730SOL    HW122087   7.651  13.701  13.204
 6730SOL    HW222088   7.668  13.654  13.061
 6731SOL     OW22089   6.264   9.042   2.169
 6731SOL    HW122090   6.325   9.049   2.242
 6731SOL    HW222091   6.265   8.949   2.145
 6732SOL     OW22092   7.314   6.725   2.915
 6732SOL    HW122093   7.319   6.749   2.822
 6732SOL    HW222094   7.405   6.725   2.945
 6733SOL     OW22095   0.249   9.038   2.535
 6733SOL    HW122096   0.227   9.019   2.444
 6733SOL    HW222097   0.175   9.004   2.586
 6734SOL     OW22098  12.587  12.175  11.344
 6734SOL    HW122099  12.648  12.110  11.379
 6734SOL    HW222100  12.640  12.226  11.282
 6735SOL     OW22101   6.082   5.253   7.969
 6735SOL    HW122102   6.111   5.162   7.967
 6735SOL    HW222103   6.058   5.273   7.879
 6736SOL     OW22104   0.324   8.413  11.064
 6736SOL    HW122105   0.360   8.331  11.098
 6736SOL    HW222106   0.286   8.456  11.141
 6737SOL     OW22107   4.231   7.078   2.737
 6737SOL    HW122108   4.151   7.120   2.766
 6737SOL    HW222109   4.287   7.075   2.814
 6738SOL     OW22110   8.499   1.056  11.059
 6738SOL    HW122111   8.486   1.061  11.154
 6738SOL    HW222112   8.583   1.099  11.044
 6739SOL     OW22113  12.215  10.345   9.248
 6739SOL    HW122114  12.145  10.373   9.188
 6739SOL    HW222115  12.253  10.427   9.279
 6740SOL     OW22116   0.933   4.499   7.552
 6740SOL    HW122117   0.842   4.527   7.560
 6740SOL    HW222118   0.934   4.443   7.474
 6741SOL     OW22119   3.602   2.315   9.994
 6741SOL    HW122120   3.517   2.281   9.967
 6741SOL    HW222121   3.585   2.407  10.015
 6742SOL     OW22122  11.589  10.670  10.737
 6742SOL    HW122123  11.548  10.642  10.654
 6742SOL    HW222124  11.640  10.747  10.714
 6743SOL     OW22125   7.389  10.224   2.250
 6743SOL    HW122126   7.432  10.272   2.180
 6743SOL    HW222127   7.363  10.290   2.313
 6744SOL     OW22128   6.428  13.202   9.229
 6744SOL    HW122129   6.368  13.217   9.155
 6744SOL    HW222130   6.387  13.248   9.302
 6745SOL     OW22131   7.366  11.022   4.824
 6745SOL    HW122132   7.306  11.095   4.837
 6745SOL    HW222133   7.453  11.062   4.827
 6746SOL     OW22134   5.554   2.697   9.552
 6746SOL    HW122135   5.614   2.766   9.527
 6746SOL    HW222136   5.593   2.658   9.630
 6747SOL     OW22137   6.455  13.427   7.689
 6747SOL    HW122138   6.479  13.515   7.660
 6747SOL    HW222139   6.388  13.441   7.756
 6748SOL     OW22140  10.099   0.080  10.514
 6748SOL    HW122141  10.100   0.061  10.608
 6748SOL    HW222142  10.006   0.077  10.490
 6749SOL     OW22143   0.472   6.103   3.513
 6749SOL    HW122144   0.556   6.137   3.543
 6749SOL    HW222145   0.495   6.027   3.458
 6750SOL     OW22146  11.384   8.166  12.639
 6750SOL    HW122147  11.453   8.223  12.672
 6750SOL    HW222148  11.332   8.223  12.582
 6751SOL     OW22149   5.870   5.639   6.207
 6751SOL    HW122150   5.965   5.628   6.219
 6751SOL    HW222151   5.862   5.705   6.138
 6752SOL     OW22152  10.266   4.773   3.209
 6752SOL    HW122153  10.230   4.811   3.288
 6752SOL    HW222154  10.249   4.838   3.141
 6753SOL     OW22155   6.378   2.783   8.590
 6753SOL    HW122156   6.390   2.872   8.555
 6753SOL    HW222157   6.375   2.795   8.685
 6754SOL     OW22158   4.648   7.018   2.648
 6754SOL    HW122159   4.649   6.936   2.696
 6754SOL    HW222160   4.740   7.038   2.632
 6755SOL     OW22161  12.096   9.868   5.997
 6755SOL    HW122162  12.141   9.856   6.080
 6755SOL    HW222163  12.157   9.836   5.931
 6756SOL     OW22164   4.972  11.515   1.338
 6756SOL    HW122165   4.936  11.509   1.250
 6756SOL    HW222166   5.066  11.526   1.324
 6757SOL     OW22167  11.744   3.995   9.608
 6757SOL    HW122168  11.773   4.021   9.695
 6757SOL    HW222169  11.704   3.908   9.621
 6758SOL     OW22170   9.278  13.085  13.735
 6758SOL    HW122171   9.348  13.150  13.729
 6758SOL    HW222172   9.315  13.006  13.695
 6759SOL     OW22173  10.207  14.342   3.994
 6759SOL    HW122174  10.226  14.248   4.001
 6759SOL    HW222175  10.279  14.376   3.941
 6760SOL     OW22176   9.226  13.948   3.358
 6760SOL    HW122177   9.248  14.015   3.293
 6760SOL    HW222178   9.156  13.987   3.410
 6761SOL     OW22179   4.843  13.965   7.188
 6761SOL    HW122180   4.857  14.059   7.196
 6761SOL    HW222181   4.928  13.930   7.160
 6762SOL     OW22182   0.421   6.951   0.081
 6762SOL    HW122183   0.394   6.859   0.073
 6762SOL    HW222184   0.468   6.955   0.164
 6763SOL     OW22185  10.047   3.208   2.828
 6763SOL    HW122186  10.105   3.170   2.894
 6763SOL    HW222187   9.961   3.209   2.869
 6764SOL     OW22188  12.401   3.261   0.079
 6764SOL    HW122189  12.335   3.200   0.048
 6764SOL    HW222190  12.419   3.233   0.169
 6765SOL     OW22191   8.659  10.422  14.762
 6765SOL    HW122192   8.568  10.416  14.732
 6765SOL    HW222193   8.655  10.482  14.836
 6766SOL     OW22194   2.443   7.398   9.960
 6766SOL    HW122195   2.409   7.310   9.943
 6766SOL    HW222196   2.531   7.384   9.994
 6767SOL     OW22197   7.546  11.541   3.646
 6767SOL    HW122198   7.485  11.574   3.579
 6767SOL    HW222199   7.619  11.504   3.596
 6768SOL     OW22200  12.806   4.342   5.822
 6768SOL    HW122201  12.851   4.373   5.901
 6768SOL    HW222202  12.714   4.368   5.835
 6769SOL     OW22203   8.615   3.246   9.628
 6769SOL    HW122204   8.608   3.339   9.650
 6769SOL    HW222205   8.541   3.229   9.571
 6770SOL     OW22206   4.463  13.659  12.779
 6770SOL    HW122207   4.475  13.617  12.864
 6770SOL    HW222208   4.495  13.596  12.715
 6771SOL     OW22209  13.490   7.583   1.923
 6771SOL    HW122210  13.467   7.613   1.835
 6771SOL    HW222211  13.417   7.611   1.978
 6772SOL     OW22212   6.022  11.031  10.033
 6772SOL    HW122213   5.972  11.035  10.115
 6772SOL    HW222214   5.958  11.001   9.968
 6773SOL     OW22215  13.837  10.548  13.932
 6773SOL    HW122216  13.897  10.477  13.909
 6773SOL    HW222217  13.752  10.505  13.943
 6774SOL     OW22218   7.547   2.457   4.990
 6774SOL    HW122219   7.490   2.380   4.992
 6774SOL    HW222220   7.565   2.476   5.082
 6775SOL     OW22221  12.237   2.986  11.696
 6775SOL    HW122222  12.294   3.046  11.648
 6775SOL    HW222223  12.167   3.042  11.731
 6776SOL     OW22224   3.672   8.672  13.785
 6776SOL    HW122225   3.724   8.668  13.865
 6776SOL    HW222226   3.631   8.758  13.788
 6777SOL     OW22227   7.733   0.895  14.312
 6777SOL    HW122228   7.755   0.988  14.318
 6777SOL    HW222229   7.789   0.853  14.378
 6778SOL     OW22230  14.388  11.292  12.877
 6778SOL    HW122231  14.364  11.379  12.908
 6778SOL    HW222232  14.332  11.233  12.926
 6779SOL     OW22233   1.487   3.482  13.080
 6779SOL    HW122234   1.506   3.393  13.049
 6779SOL    HW222235   1.534   3.488  13.164
 6780SOL     OW22236   3.514   9.004   7.742
 6780SOL    HW122237   3.459   8.998   7.664
 6780SOL    HW222238   3.603   9.012   7.707
 6781SOL     OW22239   9.195   1.181  12.024
 6781SOL    HW122240   9.247   1.105  11.996
 6781SOL    HW222241   9.235   1.255  11.979
 6782SOL     OW22242   6.130   7.619   5.043
 6782SOL    HW122243   6.058   7.681   5.036
 6782SOL    HW222244   6.105   7.561   5.115
 6783SOL     OW22245   5.417   6.646  14.721
 6783SOL    HW122246   5.498   6.597  14.706
 6783SOL    HW222247   5.386   6.669  14.633
 6784SOL     OW22248  12.281   1.276   3.811
 6784SOL    HW122249  12.368   1.310   3.792
 6784SOL    HW222250  12.296   1.210   3.879
 6785SOL     OW22251   7.765   1.751   3.062
 6785SOL    HW122252   7.712   1.743   2.983
 6785SOL    HW222253   7.824   1.676   3.059
 6786SOL     OW22254   3.226   2.767   4.283
 6786SOL    HW122255   3.211   2.831   4.353
 6786SOL    HW222256   3.240   2.684   4.329
 6787SOL     OW22257  11.077   3.305  14.080
 6787SOL    HW122258  11.037   3.382  14.120
 6787SOL    HW222259  11.054   3.312  13.987
 6788SOL     OW22260   1.643  14.829  13.424
 6788SOL    HW122261   1.672   0.005  13.345
 6788SOL    HW222262   1.724  14.808  13.471
 6789SOL     OW22263  10.068   5.101  13.567
 6789SOL    HW122264   9.996   5.118  13.507
 6789SOL    HW222265  10.034   5.128  13.653
 6790SOL     OW22266  10.253  12.512  12.312
 6790SOL    HW122267  10.172  12.538  12.268
 6790SOL    HW222268  10.225  12.447  12.378
 6791SOL     OW22269   4.876   3.211   0.057
 6791SOL    HW122270   4.871   3.300   0.024
 6791SOL    HW222271   4.969   3.193   0.065
 6792SOL     OW22272  10.825   6.355   5.746
 6792SOL    HW122273  10.915   6.325   5.759
 6792SOL    HW222274  10.777   6.319   5.821
 6793SOL     OW22275   3.297   7.725   9.916
 6793SOL    HW122276   3.348   7.740   9.837
 6793SOL    HW222277   3.340   7.650   9.958
 6794SOL     OW22278   8.412   8.092   0.970
 6794SOL    HW122279   8.497   8.053   0.947
 6794SOL    HW222280   8.377   8.124   0.887
 6795SOL     OW22281   9.312   4.030  12.260
 6795SOL    HW122282   9.305   4.103  12.199
 6795SOL    HW222283   9.259   3.961  12.220
 6796SOL     OW22284   0.325   8.339   2.371
 6796SOL    HW122285   0.340   8.338   2.466
 6796SOL    HW222286   0.234   8.366   2.362
 6797SOL     OW22287  14.065  11.796  13.873
 6797SOL    HW122288  14.109  11.740  13.809
 6797SOL    HW222289  14.060  11.741  13.952
 6798SOL     OW22290   2.811   1.621   8.522
 6798SOL    HW122291   2.738   1.583   8.571
 6798SOL    HW222292   2.836   1.698   8.573
 6799SOL     OW22293   4.320   0.267  11.410
 6799SOL    HW122294   4.369   0.185  11.405
 6799SOL    HW222295   4.266   0.259  11.488
 6800SOL     OW22296   3.132   9.350   7.145
 6800SOL    HW122297   3.077   9.422   7.114
 6800SOL    HW222298   3.210   9.393   7.180
 6801SOL     OW22299   5.768  14.176  12.709
 6801SOL    HW122300   5.806  14.263  12.693
 6801SOL    HW222301   5.809  14.120  12.644
 6802SOL     OW22302   2.204   3.847   9.346
 6802SOL    HW122303   2.147   3.849   9.269
 6802SOL    HW222304   2.161   3.787   9.407
 6803SOL     OW22305   7.598   7.043   3.663
 6803SOL    HW122306   7.577   7.069   3.573
 6803SOL    HW222307   7.681   7.089   3.682
 6804SOL     OW22308   2.455   2.300   3.173
 6804SOL    HW122309   2.376   2.284   3.122
 6804SOL    HW222310   2.471   2.217   3.219
 6805SOL     OW22311  10.425   0.781   2.941
 6805SOL    HW122312  10.398   0.775   3.033
 6805SOL    HW222313  10.390   0.702   2.900
 6806SOL     OW22314  14.711   4.391  12.423
 6806SOL    HW122315  14.670   4.326  12.366
 6806SOL    HW222316  14.639   4.446  12.453
 6807SOL     OW22317   8.798   3.070   4.715
 6807SOL    HW122318   8.892   3.079   4.724
 6807SOL    HW222319   8.770   3.148   4.667
 6808SOL     OW22320  11.109   1.841   8.950
 6808SOL    HW122321  11.108   1.752   8.985
 6808SOL    HW222322  11.128   1.829   8.857
 6809SOL     OW22323   3.499   1.674   7.244
 6809SOL    HW122324   3.495   1.649   7.151
 6809SOL    HW222325   3.454   1.758   7.248
 6810SOL     OW22326   0.641   3.986   4.280
 6810SOL    HW122327   0.677   3.979   4.368
 6810SOL    HW222328   0.562   3.931   4.282
 6811SOL     OW22329   2.935   1.924   8.060
 6811SOL    HW122330   2.975   1.954   7.978
 6811SOL    HW222331   2.875   1.994   8.085
 6812SOL     OW22332   0.798   6.748   9.803
 6812SOL    HW122333   0.706   6.743   9.776
 6812SOL    HW222334   0.847   6.722   9.725
 6813SOL     OW22335   5.571  10.957   6.838
 6813SOL    HW122336   5.542  10.909   6.760
 6813SOL    HW222337   5.651  10.912   6.864
 6814SOL     OW22338   8.684   4.028  10.983
 6814SOL    HW122339   8.638   4.050  11.064
 6814SOL    HW222340   8.628   4.064  10.914
 6815SOL     OW22341  12.967   2.417  10.089
 6815SOL    HW122342  12.903   2.465  10.036
 6815SOL    HW222343  12.914   2.360  10.144
 6816SOL     OW22344  14.672  11.681   4.346
 6816SOL    HW122345  14.612  11.739   4.393
 6816SOL    HW222346  14.746  11.737   4.322
 6817SOL     OW22347   1.078   1.046   5.254
 6817SOL    HW122348   1.076   1.017   5.163
 6817SOL    HW222349   1.109   0.970   5.303
 6818SOL     OW22350  11.542   4.508   7.199
 6818SOL    HW122351  11.472   4.567   7.170
 6818SOL    HW222352  11.565   4.458   7.122
 6819SOL     OW22353   4.172   0.496   5.117
 6819SOL    HW122354   4.241   0.559   5.095
 6819SOL    HW222355   4.091   0.539   5.089
 6820SOL     OW22356   5.369   5.363  12.076
 6820SOL    HW122357   5.439   5.326  12.021
 6820SOL    HW222358   5.392   5.337  12.165
 6821SOL     OW22359  11.536   4.559   9.723
 6821SOL    HW122360  11.563   4.651   9.716
 6821SOL    HW222361  11.442   4.561   9.706
 6822SOL     OW22362   5.224   9.442  14.184
 6822SOL    HW122363   5.317   9.460  14.200
 6822SOL    HW222364   5.185   9.440  14.272
 6823SOL     OW22365  12.729  14.253  11.203
 6823SOL    HW122366  12.804  14.304  11.171
 6823SOL    HW222367  12.675  14.317  11.248
 6824SOL     OW22368   1.789   7.159  12.564
 6824SOL    HW122369   1.867   7.170  12.510
 6824SOL    HW222370   1.823   7.146  12.653
 6825SOL     OW22371   1.011  12.948  12.578
 6825SOL    HW122372   1.087  12.933  12.522
 6825SOL    HW222373   1.005  12.869  12.631
 6826SOL     OW22374  12.436  11.298   5.223
 6826SOL    HW122375  12.460  11.238   5.294
 6826SOL    HW222376  12.498  11.371   5.232
 6827SOL     OW22377   2.307   3.956   7.890
 6827SOL    HW122378   2.395   3.926   7.908
 6827SOL    HW222379   2.314   4.051   7.886
 6828SOL     OW22380  11.460   4.043  12.142
 6828SOL    HW122381  11.441   3.950  12.134
 6828SOL    HW222382  11.505   4.065  12.060
 6829SOL     OW22383   9.221   6.773   6.017
 6829SOL    HW122384   9.132   6.804   6.002
 6829SOL    HW222385   9.267   6.849   6.054
 6830SOL     OW22386  12.261   2.923   5.422
 6830SOL    HW122387  12.340   2.873   5.445
 6830SOL    HW222388  12.189   2.863   5.440
 6831SOL     OW22389   1.701   9.663  11.847
 6831SOL    HW122390   1.676   9.624  11.763
 6831SOL    HW222391   1.630   9.639  11.907
 6832SOL     OW22392   7.025  12.755   6.130
 6832SOL    HW122393   7.000  12.821   6.066
 6832SOL    HW222394   6.960  12.685   6.119
 6833SOL     OW22395   3.883   6.622   4.303
 6833SOL    HW122396   3.810   6.684   4.297
 6833SOL    HW222397   3.914   6.630   4.393
 6834SOL     OW22398   3.525   7.360   8.038
 6834SOL    HW122399   3.616   7.350   8.010
 6834SOL    HW222400   3.523   7.447   8.079
 6835SOL     OW22401   8.691   0.936  10.504
 6835SOL    HW122402   8.614   0.989  10.524
 6835SOL    HW222403   8.668   0.848  10.534
 6836SOL     OW22404  13.769   6.098  14.823
 6836SOL    HW122405  13.828   6.169  14.846
 6836SOL    HW222406  13.682   6.138  14.823
 6837SOL     OW22407   3.298  13.304   6.980
 6837SOL    HW122408   3.280  13.398   6.980
 6837SOL    HW222409   3.357  13.291   6.905
 6838SOL     OW22410   3.791   3.873   3.227
 6838SOL    HW122411   3.751   3.909   3.147
 6838SOL    HW222412   3.835   3.793   3.198
 6839SOL     OW22413  12.777   2.837   0.289
 6839SOL    HW122414  12.739   2.912   0.244
 6839SOL    HW222415  12.819   2.874   0.366
 6840SOL     OW22416   3.928   0.096   1.330
 6840SOL    HW122417   4.012   0.086   1.376
 6840SOL    HW222418   3.945   0.059   1.243
 6841SOL     OW22419   7.658   2.891   0.903
 6841SOL    HW122420   7.737   2.904   0.956
 6841SOL    HW222421   7.614   2.975   0.905
 6842SOL     OW22422   8.421   4.482  13.567
 6842SOL    HW122423   8.416   4.401  13.618
 6842SOL    HW222424   8.495   4.469  13.508
 6843SOL     OW22425   7.999  12.507   2.215
 6843SOL    HW122426   8.012  12.590   2.260
 6843SOL    HW222427   7.960  12.532   2.131
 6844SOL     OW22428  11.047   1.567   8.977
 6844SOL    HW122429  11.095   1.581   9.059
 6844SOL    HW222430  10.955   1.568   9.003
 6845SOL     OW22431   9.582  11.484   0.012
 6845SOL    HW122432   9.575  11.392   0.038
 6845SOL    HW222433   9.522  11.530   0.071
 6846SOL     OW22434   0.557   6.895   3.277
 6846SOL    HW122435   0.616   6.954   3.228
 6846SOL    HW222436   0.549   6.936   3.363
 6847SOL     OW22437   2.471  11.353  14.657
 6847SOL    HW122438   2.519  11.284  14.703
 6847SOL    HW222439   2.516  11.363  14.573
 6848SOL     OW22440  10.563   9.592   5.232
 6848SOL    HW122441  10.540   9.684   5.217
 6848SOL    HW222442  10.525   9.546   5.157
 6849SOL     OW22443   0.707   2.046  12.616
 6849SOL    HW122444   0.612   2.047  12.631
 6849SOL    HW222445   0.723   1.966  12.567
 6850SOL     OW22446   7.419  12.318  12.220
 6850SOL    HW122447   7.341  12.266  12.198
 6850SOL    HW222448   7.448  12.354  12.136
 6851SOL     OW22449   6.850   8.070   2.276
 6851SOL    HW122450   6.766   8.107   2.304
 6851SOL    HW222451   6.836   7.976   2.277
 6852SOL     OW22452   3.213  11.511   4.135
 6852SOL    HW122453   3.239  11.485   4.224
 6852SOL    HW222454   3.283  11.569   4.106
 6853SOL     OW22455   8.705   7.549  14.788
 6853SOL    HW122456   8.688   7.541  14.694
 6853SOL    HW222457   8.792   7.509  14.799
 6854SOL     OW22458   1.107   7.685  11.499
 6854SOL    HW122459   1.179   7.749  11.495
 6854SOL    HW222460   1.097   7.656  11.408
 6855SOL     OW22461   8.875   9.358   8.757
 6855SOL    HW122462   8.814   9.374   8.685
 6855SOL    HW222463   8.925   9.281   8.729
 6856SOL     OW22464   2.318  10.540   0.956
 6856SOL    HW122465   2.267  10.461   0.976
 6856SOL    HW222466   2.343  10.574   1.042
 6857SOL     OW22467  10.286  11.307   1.440
 6857SOL    HW122468  10.302  11.391   1.397
 6857SOL    HW222469  10.191  11.295   1.434
 6858SOL     OW22470  13.366   4.150   5.346
 6858SOL    HW122471  13.427   4.082   5.318
 6858SOL    HW222472  13.312   4.108   5.413
 6859SOL     OW22473   5.216   7.352   7.738
 6859SOL    HW122474   5.270   7.391   7.670
 6859SOL    HW222475   5.145   7.415   7.753
 6860SOL     OW22476   5.891   9.695  12.331
 6860SOL    HW122477   5.953   9.758  12.295
 6860SOL    HW222478   5.824   9.684  12.263
 6861SOL     OW22479   0.035   4.660   2.452
 6861SOL    HW122480   0.116   4.707   2.472
 6861SOL    HW222481   0.013   4.687   2.362
 6862SOL     OW22482  11.817  10.731   9.660
 6862SOL    HW122483  11.908  10.761   9.663
 6862SOL    HW222484  11.823  10.636   9.671
 6863SOL     OW22485   7.321   3.477   4.551
 6863SOL    HW122486   7.255   3.428   4.601
 6863SOL    HW222487   7.361   3.536   4.616
 6864SOL     OW22488   7.280   9.725  13.676
 6864SOL    HW122489   7.375   9.734  13.683
 6864SOL    HW222490   7.266   9.636  13.644
 6865SOL     OW22491   2.210   5.180   8.240
 6865SOL    HW122492   2.245   5.152   8.324
 6865SOL    HW222493   2.270   5.249   8.211
 6866SOL     OW22494   6.331  10.547   5.442
 6866SOL    HW122495   6.402  10.543   5.378
 6866SOL    HW222496   6.359  10.489   5.512
 6867SOL     OW22497  13.352  11.220   6.228
 6867SOL    HW122498  13.263  11.188   6.215
 6867SOL    HW222499  13.408  11.145   6.208
 6868SOL     OW22500  14.189   9.340   1.747
 6868SOL    HW122501  14.115   9.362   1.804
 6868SOL    HW222502  14.207   9.248   1.764
 6869SOL     OW22503  10.919   1.288  11.977
 6869SOL    HW122504  10.966   1.370  11.964
 6869SOL    HW222505  10.982   1.230  12.019
 6870SOL     OW22506  14.835   7.918  12.263
 6870SOL    HW122507   0.007   7.985  12.210
 6870SOL    HW222508   0.024   7.842  12.258
 6871SOL     OW22509   3.215   5.275  14.386
 6871SOL    HW122510   3.147   5.340  14.366
 6871SOL    HW222511   3.232   5.233  14.302
 6872SOL     OW22512   6.101   5.632  12.042
 6872SOL    HW122513   6.177   5.688  12.024
 6872SOL    HW222514   6.092   5.578  11.963
 6873SOL     OW22515   2.520   0.075   8.486
 6873SOL    HW122516   2.568   0.106   8.563
 6873SOL    HW222517   2.581   0.089   8.413
 6874SOL     OW22518  13.670   1.954   8.516
 6874SOL    HW122519  13.711   2.035   8.548
 6874SOL    HW222520  13.605   1.984   8.453
 6875SOL     OW22521   7.750   9.612   3.547
 6875SOL    HW122522   7.664   9.652   3.552
 6875SOL    HW222523   7.762   9.593   3.454
 6876SOL     OW22524  13.843   2.364   9.995
 6876SOL    HW122525  13.814   2.348   9.905
 6876SOL    HW222526  13.880   2.453   9.993
 6877SOL     OW22527   8.978  14.302   9.139
 6877SOL    HW122528   8.931  14.369   9.188
 6877SOL    HW222529   9.065  14.299   9.179
 6878SOL     OW22530   4.105   3.610   9.774
 6878SOL    HW122531   4.189   3.655   9.774
 6878SOL    HW222532   4.041   3.678   9.799
 6879SOL     OW22533   1.835   4.335   5.890
 6879SOL    HW122534   1.902   4.345   5.822
 6879SOL    HW222535   1.869   4.386   5.964
 6880SOL     OW22536   2.816   9.428   4.946
 6880SOL    HW122537   2.816   9.506   4.890
 6880SOL    HW222538   2.817   9.462   5.035
 6881SOL     OW22539  13.927  13.228  11.508
 6881SOL    HW122540  13.988  13.269  11.447
 6881SOL    HW222541  13.966  13.142  11.527
 6882SOL     OW22542  13.742  10.311   8.412
 6882SOL    HW122543  13.727  10.218   8.394
 6882SOL    HW222544  13.749  10.352   8.326
 6883SOL     OW22545   9.578   9.736  11.343
 6883SOL    HW122546   9.565   9.780  11.428
 6883SOL    HW222547   9.654   9.780  11.304
 6884SOL     OW22548   1.660   2.648   0.956
 6884SOL    HW122549   1.680   2.681   0.868
 6884SOL    HW222550   1.677   2.723   1.014
 6885SOL     OW22551   1.706   8.248   4.896
 6885SOL    HW122552   1.672   8.159   4.899
 6885SOL    HW222553   1.651   8.298   4.956
 6886SOL     OW22554   9.181   6.765   4.382
 6886SOL    HW122555   9.126   6.695   4.347
 6886SOL    HW222556   9.234   6.724   4.449
 6887SOL     OW22557   0.820   6.750   8.360
 6887SOL    HW122558   0.832   6.725   8.451
 6887SOL    HW222559   0.867   6.683   8.310
 6888SOL     OW22560   7.195   2.793   9.507
 6888SOL    HW122561   7.145   2.867   9.471
 6888SOL    HW222562   7.188   2.803   9.602
 6889SOL     OW22563   1.287  12.121  11.094
 6889SOL    HW122564   1.347  12.183  11.052
 6889SOL    HW222565   1.305  12.037  11.051
 6890SOL     OW22566  13.320  11.779   5.936
 6890SOL    HW122567  13.371  11.812   5.862
 6890SOL    HW222568  13.361  11.696   5.959
 6891SOL     OW22569   2.224   9.740   9.377
 6891SOL    HW122570   2.143   9.705   9.411
 6891SOL    HW222571   2.230   9.706   9.288
 6892SOL     OW22572   0.447   4.152   6.361
 6892SOL    HW122573   0.442   4.106   6.278
 6892SOL    HW222574   0.357   4.151   6.395
 6893SOL     OW22575  13.974   0.050  11.049
 6893SOL    HW122576  13.982   0.081  10.958
 6893SOL    HW222577  13.956  14.826  11.041
 6894SOL     OW22578   1.688   6.446   2.927
 6894SOL    HW122579   1.779   6.468   2.907
 6894SOL    HW222580   1.650   6.528   2.958
 6895SOL     OW22581   8.090  13.960  14.783
 6895SOL    HW122582   8.165  13.931  14.836
 6895SOL    HW222583   8.107  13.922  14.696
 6896SOL     OW22584   6.001   1.108   7.235
 6896SOL    HW122585   6.086   1.121   7.278
 6896SOL    HW222586   5.941   1.087   7.307
 6897SOL     OW22587   1.224   7.786   9.187
 6897SOL    HW122588   1.238   7.782   9.282
 6897SOL    HW222589   1.130   7.773   9.177
 6898SOL     OW22590  10.306   1.352  11.148
 6898SOL    HW122591  10.391   1.355  11.104
 6898SOL    HW222592  10.254   1.292  11.095
 6899SOL     OW22593   0.829   4.477  10.183
 6899SOL    HW122594   0.916   4.444  10.163
 6899SOL    HW222595   0.841   4.532  10.261
 6900SOL     OW22596   3.489   8.301   0.032
 6900SOL    HW122597   3.475   8.250  14.822
 6900SOL    HW222598   3.447   8.249   0.101
 6901SOL     OW22599   6.203   6.999   8.755
 6901SOL    HW122600   6.186   6.992   8.661
 6901SOL    HW222601   6.202   7.093   8.773
 6902SOL     OW22602   1.271   0.761   8.146
 6902SOL    HW122603   1.227   0.684   8.109
 6902SOL    HW222604   1.203   0.828   8.150
 6903SOL     OW22605   9.742  13.311  11.834
 6903SOL    HW122606   9.822  13.280  11.790
 6903SOL    HW222607   9.726  13.398  11.797
 6904SOL     OW22608   6.670   1.256   9.642
 6904SOL    HW122609   6.578   1.245   9.617
 6904SOL    HW222610   6.672   1.229   9.734
 6905SOL     OW22611  11.414  13.306   7.604
 6905SOL    HW122612  11.422  13.353   7.521
 6905SOL    HW222613  11.432  13.214   7.581
 6906SOL     OW22614   6.454   0.287   6.751
 6906SOL    HW122615   6.473   0.341   6.828
 6906SOL    HW222616   6.406   0.212   6.786
 6907SOL     OW22617   9.214   7.667   8.648
 6907SOL    HW122618   9.191   7.662   8.741
 6907SOL    HW222619   9.309   7.680   8.647
 6908SOL     OW22620   2.879   9.373  12.596
 6908SOL    HW122621   2.896   9.371  12.690
 6908SOL    HW222622   2.860   9.465  12.577
 6909SOL     OW22623  11.396   4.560   0.378
 6909SOL    HW122624  11.398   4.634   0.317
 6909SOL    HW222625  11.331   4.500   0.343
 6910SOL     OW22626   6.494   0.466   3.416
 6910SOL    HW122627   6.550   0.390   3.430
 6910SOL    HW222628   6.550   0.541   3.435
 6911SOL     OW22629   5.347   2.836   8.476
 6911SOL    HW122630   5.400   2.779   8.420
 6911SOL    HW222631   5.410   2.876   8.536
 6912SOL     OW22632   1.443  11.517   8.777
 6912SOL    HW122633   1.390  11.529   8.698
 6912SOL    HW222634   1.386  11.547   8.848
 6913SOL     OW22635   3.146  14.439   4.379
 6913SOL    HW122636   3.057  14.431   4.344
 6913SOL    HW222637   3.164  14.353   4.416
 6914SOL     OW22638   3.703   2.612   2.068
 6914SOL    HW122639   3.609   2.614   2.088
 6914SOL    HW222640   3.710   2.554   1.992
 6915SOL     OW22641  10.301   6.489  12.011
 6915SOL    HW122642  10.242   6.479  11.936
 6915SOL    HW222643  10.347   6.571  11.995
 6916SOL     OW22644   6.812  12.410   1.892
 6916SOL    HW122645   6.853  12.494   1.912
 6916SOL    HW222646   6.765  12.425   1.810
 6917SOL     OW22647  12.883   2.827   3.199
 6917SOL    HW122648  12.925   2.812   3.284
 6917SOL    HW222649  12.911   2.915   3.173
 6918SOL     OW22650  14.417   4.043  12.104
 6918SOL    HW122651  14.332   4.059  12.062
 6918SOL    HW222652  14.480   4.089  12.049
 6919SOL     OW22653   4.567  12.370   8.904
 6919SOL    HW122654   4.517  12.291   8.883
 6919SOL    HW222655   4.552  12.428   8.830
 6920SOL     OW22656  13.826   2.857  14.600
 6920SOL    HW122657  13.747   2.839  14.650
 6920SOL    HW222658  13.873   2.923  14.651
 6921SOL     OW22659   6.604   6.108  11.393
 6921SOL    HW122660   6.615   6.143  11.482
 6921SOL    HW222661   6.510   6.097  11.383
 6922SOL     OW22662  10.201   0.746   3.848
 6922SOL    HW122663  10.168   0.696   3.923
 6922SOL    HW222664  10.272   0.691   3.813
 6923SOL     OW22665   3.554   5.386   3.888
 6923SOL    HW122666   3.633   5.341   3.859
 6923SOL    HW222667   3.522   5.334   3.962
 6924SOL     OW22668  14.553   8.915  12.983
 6924SOL    HW122669  14.524   8.846  13.044
 6924SOL    HW222670  14.478   8.974  12.976
 6925SOL     OW22671   5.529   2.436   8.696
 6925SOL    HW122672   5.509   2.526   8.724
 6925SOL    HW222673   5.456   2.412   8.638
 6926SOL     OW22674   7.516   5.804   3.414
 6926SOL    HW122675   7.571   5.880   3.396
 6926SOL    HW222676   7.428   5.831   3.389
 6927SOL     OW22677   1.566  10.908  11.281
 6927SOL    HW122678   1.560  11.003  11.267
 6927SOL    HW222679   1.534  10.870  11.199
 6928SOL     OW22680   6.046  13.578  13.738
 6928SOL    HW122681   6.008  13.512  13.797
 6928SOL    HW222682   6.044  13.536  13.652
 6929SOL     OW22683   6.203   2.189  10.360
 6929SOL    HW122684   6.260   2.138  10.417
 6929SOL    HW222685   6.225   2.159  10.272
 6930SOL     OW22686   5.842  13.742   6.640
 6930SOL    HW122687   5.930  13.781   6.643
 6930SOL    HW222688   5.785  13.809   6.678
 6931SOL     OW22689   1.310   0.730   9.312
 6931SOL    HW122690   1.260   0.808   9.288
 6931SOL    HW222691   1.391   0.736   9.261
 6932SOL     OW22692  14.825   8.875   9.373
 6932SOL    HW122693  14.791   8.908   9.456
 6932SOL    HW222694   0.003   8.948   9.335
 6933SOL     OW22695   8.185   5.312   4.087
 6933SOL    HW122696   8.092   5.299   4.104
 6933SOL    HW222697   8.192   5.403   4.059
 6934SOL     OW22698   4.473  13.255  11.044
 6934SOL    HW122699   4.426  13.200  11.107
 6934SOL    HW222700   4.560  13.266  11.082
 6935SOL     OW22701  10.445  10.509  11.542
 6935SOL    HW122702  10.478  10.545  11.459
 6935SOL    HW222703  10.504  10.436  11.561
 6936SOL     OW22704  10.503  12.968  10.848
 6936SOL    HW122705  10.457  13.051  10.834
 6936SOL    HW222706  10.464  12.908  10.785
 6937SOL     OW22707   8.027   6.099  11.716
 6937SOL    HW122708   8.104   6.135  11.671
 6937SOL    HW222709   7.990   6.037  11.653
 6938SOL     OW22710   0.387   0.219  12.475
 6938SOL    HW122711   0.445   0.200  12.549
 6938SOL    HW222712   0.324   0.147  12.475
 6939SOL     OW22713  12.979   1.948  12.528
 6939SOL    HW122714  12.899   1.972  12.481
 6939SOL    HW222715  12.998   2.024  12.583
 6940SOL     OW22716   9.936   7.761  12.566
 6940SOL    HW122717   9.985   7.709  12.502
 6940SOL    HW222718   9.867   7.802  12.514
 6941SOL     OW22719  13.874   7.088  13.285
 6941SOL    HW122720  13.873   7.002  13.325
 6941SOL    HW222721  13.960   7.124  13.306
 6942SOL     OW22722  12.794   1.718   2.888
 6942SOL    HW122723  12.741   1.797   2.873
 6942SOL    HW222724  12.751   1.650   2.836
 6943SOL     OW22725   1.135   4.543  11.691
 6943SOL    HW122726   1.149   4.508  11.603
 6943SOL    HW222727   1.040   4.541  11.703
 6944SOL     OW22728   5.490   5.318  14.289
 6944SOL    HW122729   5.423   5.300  14.354
 6944SOL    HW222730   5.502   5.413  14.292
 6945SOL     OW22731   4.196   2.060  12.852
 6945SOL    HW122732   4.205   2.126  12.784
 6945SOL    HW222733   4.211   2.108  12.934
 6946SOL     OW22734  11.852  14.565   3.390
 6946SOL    HW122735  11.882  14.513   3.464
 6946SOL    HW222736  11.824  14.501   3.325
 6947SOL     OW22737   3.947  13.758  12.654
 6947SOL    HW122738   4.039  13.736  12.641
 6947SOL    HW222739   3.915  13.780  12.566
 6948SOL     OW22740   3.072   0.039  10.673
 6948SOL    HW122741   2.996   0.028  10.731
 6948SOL    HW222742   3.036   0.082  10.596
 6949SOL     OW22743  10.716  13.331  11.272
 6949SOL    HW122744  10.790  13.357  11.217
 6949SOL    HW222745  10.672  13.262  11.223
 6950SOL     OW22746   5.249   6.102   9.720
 6950SOL    HW122747   5.257   6.007   9.709
 6950SOL    HW222748   5.319   6.126   9.780
 6951SOL     OW22749   4.969   0.130  12.399
 6951SOL    HW122750   4.963   0.096  12.310
 6951SOL    HW222751   4.884   0.171  12.415
 6952SOL     OW22752   2.660   5.145   1.135
 6952SOL    HW122753   2.658   5.207   1.062
 6952SOL    HW222754   2.690   5.197   1.210
 6953SOL     OW22755   6.184  12.407   2.410
 6953SOL    HW122756   6.114  12.463   2.378
 6953SOL    HW222757   6.175  12.326   2.360
 6954SOL     OW22758   1.717   4.035   8.730
 6954SOL    HW122759   1.645   4.098   8.723
 6954SOL    HW222760   1.785   4.082   8.778
 6955SOL     OW22761   5.533   8.312   6.400
 6955SOL    HW122762   5.482   8.232   6.396
 6955SOL    HW222763   5.486   8.375   6.345
 6956SOL     OW22764  12.124  12.137   0.880
 6956SOL    HW122765  12.086  12.176   0.958
 6956SOL    HW222766  12.196  12.196   0.857
 6957SOL     OW22767   2.392  12.684   9.143
 6957SOL    HW122768   2.449  12.654   9.073
 6957SOL    HW222769   2.353  12.764   9.109
 6958SOL     OW22770   5.706   4.046   6.713
 6958SOL    HW122771   5.663   3.999   6.785
 6958SOL    HW222772   5.665   4.011   6.634
 6959SOL     OW22773   9.459   0.312   4.084
 6959SOL    HW122774   9.371   0.297   4.050
 6959SOL    HW222775   9.471   0.243   4.149
 6960SOL     OW22776   8.253   9.069  10.507
 6960SOL    HW122777   8.190   9.064  10.579
 6960SOL    HW222778   8.298   8.984  10.509
 6961SOL     OW22779   3.550   2.480   9.398
 6961SOL    HW122780   3.635   2.438   9.386
 6961SOL    HW222781   3.534   2.476   9.492
 6962SOL     OW22782  10.479   4.675   2.276
 6962SOL    HW122783  10.508   4.587   2.297
 6962SOL    HW222784  10.516   4.692   2.189
 6963SOL     OW22785   0.867  14.383   9.827
 6963SOL    HW122786   0.927  14.442   9.871
 6963SOL    HW222787   0.866  14.413   9.736
 6964SOL     OW22788  14.102   4.445   2.519
 6964SOL    HW122789  14.030   4.397   2.559
 6964SOL    HW222790  14.158   4.470   2.593
 6965SOL     OW22791  12.491   3.027   1.449
 6965SOL    HW122792  12.411   3.073   1.423
 6965SOL    HW222793  12.554   3.097   1.466
 6966SOL     OW22794   2.826  14.158   6.032
 6966SOL    HW122795   2.876  14.226   5.985
 6966SOL    HW222796   2.861  14.160   6.121
 6967SOL     OW22797   7.960   1.650   6.729
 6967SOL    HW122798   7.938   1.725   6.783
 6967SOL    HW222799   8.042   1.675   6.686
 6968SOL     OW22800   5.052   7.293   5.303
 6968SOL    HW122801   5.117   7.327   5.241
 6968SOL    HW222802   5.102   7.275   5.382
 6969SOL     OW22803   4.977   0.872   2.027
 6969SOL    HW122804   5.041   0.831   2.085
 6969SOL    HW222805   5.026   0.942   1.983
 6970SOL     OW22806   2.164  14.365   0.057
 6970SOL    HW122807   2.248  14.399   0.025
 6970SOL    HW222808   2.109  14.442   0.067
 6971SOL     OW22809  10.351   7.636   1.890
 6971SOL    HW122810  10.371   7.624   1.797
 6971SOL    HW222811  10.428   7.602   1.935
 6972SOL     OW22812   7.328   1.728   5.502
 6972SOL    HW122813   7.397   1.726   5.436
 6972SOL    HW222814   7.359   1.790   5.568
 6973SOL     OW22815   7.964   8.914  11.284
 6973SOL    HW122816   7.982   8.991  11.229
 6973SOL    HW222817   8.013   8.930  11.364
 6974SOL     OW22818  14.111   7.129   3.552
 6974SOL    HW122819  14.116   7.079   3.471
 6974SOL    HW222820  14.198   7.168   3.562
 6975SOL     OW22821  10.588   7.968   4.655
 6975SOL    HW122822  10.530   7.910   4.704
 6975SOL    HW222823  10.601   8.043   4.713
 6976SOL     OW22824   5.093   4.765   8.251
 6976SOL    HW122825   5.035   4.830   8.211
 6976SOL    HW222826   5.173   4.769   8.200
 6977SOL     OW22827   8.051  10.170  10.158
 6977SOL    HW122828   8.080  10.082  10.133
 6977SOL    HW222829   7.965  10.180  10.116
 6978SOL     OW22830  10.287   7.479  13.743
 6978SOL    HW122831  10.359   7.510  13.797
 6978SOL    HW222832  10.240   7.559  13.718
 6979SOL     OW22833   0.341   0.260   2.262
 6979SOL    HW122834   0.360   0.199   2.334
 6979SOL    HW222835   0.250   0.286   2.276
 6980SOL     OW22836  11.632  14.799  13.294
 6980SOL    HW122837  11.624  14.717  13.246
 6980SOL    HW222838  11.543  14.821  13.321
 6981SOL     OW22839   0.605   9.180   7.582
 6981SOL    HW122840   0.692   9.220   7.589
 6981SOL    HW222841   0.585   9.181   7.489
 6982SOL     OW22842   0.306   9.817   5.749
 6982SOL    HW122843   0.346   9.881   5.807
 6982SOL    HW222844   0.308   9.859   5.663
 6983SOL     OW22845   4.847   8.337   9.393
 6983SOL    HW122846   4.837   8.432   9.392
 6983SOL    HW222847   4.851   8.313   9.300
 6984SOL     OW22848  12.950   3.677   9.508
 6984SOL    HW122849  12.891   3.707   9.438
 6984SOL    HW222850  12.975   3.589   9.481
 6985SOL     OW22851  14.388  11.398   3.495
 6985SOL    HW122852  14.476  11.381   3.462
 6985SOL    HW222853  14.363  11.481   3.455
 6986SOL     OW22854  14.142  12.246   7.275
 6986SOL    HW122855  14.070  12.239   7.213
 6986SOL    HW222856  14.119  12.321   7.331
 6987SOL     OW22857   3.284  12.255   9.183
 6987SOL    HW122858   3.361  12.199   9.188
 6987SOL    HW222859   3.314  12.341   9.211
 6988SOL     OW22860  11.893   5.194   9.618
 6988SOL    HW122861  11.881   5.104   9.590
 6988SOL    HW222862  11.966   5.191   9.680
 6989SOL     OW22863   4.857  12.909   8.782
 6989SOL    HW122864   4.775  12.922   8.829
 6989SOL    HW222865   4.896  12.832   8.824
 6990SOL     OW22866   3.966  13.697  11.325
 6990SOL    HW122867   4.028  13.701  11.252
 6990SOL    HW222868   4.013  13.647  11.393
 6991SOL     OW22869   8.705   4.286  12.660
 6991SOL    HW122870   8.622   4.333  12.670
 6991SOL    HW222871   8.680   4.194  12.661
 6992SOL     OW22872   3.343   2.955   1.312
 6992SOL    HW122873   3.395   2.966   1.233
 6992SOL    HW222874   3.339   2.861   1.326
 6993SOL     OW22875   9.795   6.642   9.036
 6993SOL    HW122876   9.843   6.604   8.962
 6993SOL    HW222877   9.704   6.618   9.020
 6994SOL     OW22878  10.867  13.940   2.831
 6994SOL    HW122879  10.803  13.930   2.902
 6994SOL    HW222880  10.898  14.030   2.840
 6995SOL     OW22881   9.374   2.648  11.473
 6995SOL    HW122882   9.317   2.587  11.519
 6995SOL    HW222883   9.365   2.625  11.381
 6996SOL     OW22884   4.143  14.149   3.110
 6996SOL    HW122885   4.155  14.100   3.029
 6996SOL    HW222886   4.051  14.135   3.133
 6997SOL     OW22887   3.105   9.981   5.469
 6997SOL    HW122888   3.068  10.051   5.523
 6997SOL    HW222889   3.028   9.935   5.434
 6998SOL     OW22890  10.301   0.651   3.151
 6998SOL    HW122891  10.335   0.598   3.223
 6998SOL    HW222892  10.265   0.729   3.193
 6999SOL     OW22893   1.041   8.804   0.119
 6999SOL    HW122894   1.046   8.799   0.023
 6999SOL    HW222895   0.962   8.856   0.136
 7000SOL     OW22896   6.938  14.489   6.171
 7000SOL    HW122897   7.018  14.463   6.126
 7000SOL    HW222898   6.953  14.581   6.196
 7001SOL     OW22899   1.451   8.816   0.034
 7001SOL    HW122900   1.393   8.741   0.041
 7001SOL    HW222901   1.534   8.786   0.071
 7002SOL     OW22902  14.463  12.837   8.288
 7002SOL    HW122903  14.478  12.833   8.383
 7002SOL    HW222904  14.492  12.752   8.255
 7003SOL     OW22905   3.675   1.499   6.197
 7003SOL    HW122906   3.681   1.405   6.181
 7003SOL    HW222907   3.587   1.511   6.234
 7004SOL     OW22908  14.384   5.315   6.780
 7004SOL    HW122909  14.410   5.226   6.756
 7004SOL    HW222910  14.389   5.316   6.876
 7005SOL     OW22911   8.070  10.791   1.089
 7005SOL    HW122912   8.161  10.779   1.115
 7005SOL    HW222913   8.029  10.705   1.102
 7006SOL     OW22914   7.532  12.519   1.672
 7006SOL    HW122915   7.627  12.509   1.665
 7006SOL    HW222916   7.519  12.612   1.691
 7007SOL     OW22917  12.979   7.040   3.860
 7007SOL    HW122918  12.886   7.033   3.839
 7007SOL    HW222919  12.981   7.086   3.944
 7008SOL     OW22920   3.352   0.799  14.605
 7008SOL    HW122921   3.431   0.756  14.634
 7008SOL    HW222922   3.294   0.728  14.576
 7009SOL     OW22923   4.330   2.166   1.408
 7009SOL    HW122924   4.305   2.235   1.347
 7009SOL    HW222925   4.344   2.089   1.352
 7010SOL     OW22926  10.707   2.733   9.629
 7010SOL    HW122927  10.734   2.644   9.651
 7010SOL    HW222928  10.766   2.760   9.559
 7011SOL     OW22929   6.674  10.012   6.597
 7011SOL    HW122930   6.744   9.979   6.540
 7011SOL    HW222931   6.605   9.946   6.589
 7012SOL     OW22932   1.171   5.828   0.193
 7012SOL    HW122933   1.100   5.764   0.188
 7012SOL    HW222934   1.225   5.798   0.265
 7013SOL     OW22935  12.716   3.187   0.379
 7013SOL    HW122936  12.747   3.268   0.337
 7013SOL    HW222937  12.789   3.161   0.436
 7014SOL     OW22938   1.399   6.072   1.002
 7014SOL    HW122939   1.469   6.046   0.942
 7014SOL    HW222940   1.443   6.128   1.066
 7015SOL     OW22941  14.076   2.482   1.168
 7015SOL    HW122942  14.076   2.548   1.238
 7015SOL    HW222943  14.036   2.405   1.208
 7016SOL     OW22944   5.741   3.840  13.534
 7016SOL    HW122945   5.707   3.810  13.449
 7016SOL    HW222946   5.664   3.879  13.577
 7017SOL     OW22947  14.761   1.615  13.526
 7017SOL    HW122948  14.747   1.683  13.460
 7017SOL    HW222949  14.855   1.596  13.523
 7018SOL     OW22950  14.100   4.127   0.803
 7018SOL    HW122951  14.126   4.165   0.887
 7018SOL    HW222952  14.170   4.066   0.781
 7019SOL     OW22953   3.303   3.739   0.342
 7019SOL    HW122954   3.231   3.678   0.328
 7019SOL    HW222955   3.333   3.761   0.254
 7020SOL     OW22956   8.168   5.119  13.935
 7020SOL    HW122957   8.144   5.194  13.881
 7020SOL    HW222958   8.118   5.130  14.016
 7021SOL     OW22959   0.126  10.582   7.300
 7021SOL    HW122960   0.036  10.605   7.320
 7021SOL    HW222961   0.119  10.506   7.241
 7022SOL     OW22962   6.425   8.724   8.183
 7022SOL    HW122963   6.365   8.751   8.113
 7022SOL    HW222964   6.367   8.701   8.256
 7023SOL     OW22965   3.115   7.526   8.209
 7023SOL    HW122966   3.109   7.576   8.127
 7023SOL    HW222967   3.041   7.556   8.261
 7024SOL     OW22968   0.582   9.567   4.864
 7024SOL    HW122969   0.533   9.581   4.945
 7024SOL    HW222970   0.554   9.638   4.806
 7025SOL     OW22971  12.520  14.311  10.115
 7025SOL    HW122972  12.600  14.259  10.113
 7025SOL    HW222973  12.505  14.336  10.024
 7026SOL     OW22974  10.943  12.357  14.100
 7026SOL    HW122975  10.927  12.270  14.063
 7026SOL    HW222976  10.872  12.370  14.163
 7027SOL     OW22977   1.039  13.092   8.395
 7027SOL    HW122978   1.049  13.187   8.403
 7027SOL    HW222979   0.998  13.065   8.478
 7028SOL     OW22980  14.413   0.862   1.527
 7028SOL    HW122981  14.325   0.885   1.499
 7028SOL    HW222982  14.412   0.767   1.538
 7029SOL     OW22983   8.229  14.166   2.232
 7029SOL    HW122984   8.208  14.256   2.207
 7029SOL    HW222985   8.302  14.174   2.294
 7030SOL     OW22986   4.785   2.828   4.588
 7030SOL    HW122987   4.869   2.873   4.583
 7030SOL    HW222988   4.792   2.773   4.666
 7031SOL     OW22989  14.634   5.634   5.456
 7031SOL    HW122990  14.715   5.600   5.418
 7031SOL    HW222991  14.656   5.723   5.483
 7032SOL     OW22992   4.813  11.478   4.897
 7032SOL    HW122993   4.750  11.515   4.836
 7032SOL    HW222994   4.760  11.451   4.972
 7033SOL     OW22995  10.721   5.588   3.817
 7033SOL    HW122996  10.775   5.585   3.738
 7033SOL    HW222997  10.672   5.670   3.810
 7034SOL     OW22998  12.386   8.550  10.639
 7034SOL    HW122999  12.388   8.645  10.651
 7034SOL    HW223000  12.337   8.517  10.714
 7035SOL     OW23001  12.576  10.990   2.077
 7035SOL    HW123002  12.499  10.937   2.059
 7035SOL    HW223003  12.566  11.068   2.024
 7036SOL     OW23004   4.400   1.075   0.429
 7036SOL    HW123005   4.492   1.083   0.403
 7036SOL    HW223006   4.380   1.158   0.472
 7037SOL     OW23007  13.686   0.676  13.836
 7037SOL    HW123008  13.725   0.725  13.908
 7037SOL    HW223009  13.759   0.658  13.776
 7038SOL     OW23010   7.643   6.402   5.577
 7038SOL    HW123011   7.688   6.463   5.518
 7038SOL    HW223012   7.558   6.388   5.536
 7039SOL     OW23013   4.059   1.159  11.742
 7039SOL    HW123014   4.035   1.166  11.834
 7039SOL    HW223015   3.985   1.197  11.695
 7040SOL     OW23016  12.744  10.723   1.787
 7040SOL    HW123017  12.754  10.755   1.877
 7040SOL    HW223018  12.780  10.794   1.732
 7041SOL     OW23019   1.827  10.560   2.976
 7041SOL    HW123020   1.820  10.649   3.011
 7041SOL    HW223021   1.774  10.562   2.896
 7042SOL     OW23022  14.703   3.811  14.203
 7042SOL    HW123023  14.766   3.748  14.168
 7042SOL    HW223024  14.636   3.756  14.245
 7043SOL     OW23025  10.089  12.255   8.889
 7043SOL    HW123026  10.139  12.173   8.886
 7043SOL    HW223027  10.014  12.239   8.832
 7044SOL     OW23028  12.747  11.091   4.765
 7044SOL    HW123029  12.778  11.072   4.854
 7044SOL    HW223030  12.771  11.012   4.715
 7045SOL     OW23031   8.935   4.924  10.222
 7045SOL    HW123032   8.994   4.966  10.159
 7045SOL    HW223033   8.987   4.918  10.302
 7046SOL     OW23034   4.771   4.739   1.735
 7046SOL    HW123035   4.680   4.731   1.764
 7046SOL    HW223036   4.806   4.811   1.786
 7047SOL     OW23037   7.379   9.313   0.582
 7047SOL    HW123038   7.390   9.267   0.666
 7047SOL    HW223039   7.285   9.327   0.575
 7048SOL     OW23040  13.107   3.758  10.205
 7048SOL    HW123041  13.197   3.787  10.211
 7048SOL    HW223042  13.077   3.788  10.119
 7049SOL     OW23043   3.273  13.082   5.800
 7049SOL    HW123044   3.343  13.018   5.784
 7049SOL    HW223045   3.316  13.167   5.790
 7050SOL     OW23046   3.400   1.616   8.518
 7050SOL    HW123047   3.336   1.650   8.580
 7050SOL    HW223048   3.402   1.522   8.534
 7051SOL     OW23049   6.562   0.408  11.512
 7051SOL    HW123050   6.591   0.467  11.443
 7051SOL    HW223051   6.514   0.339  11.466
 7052SOL     OW23052  14.341   7.986   6.802
 7052SOL    HW123053  14.309   7.899   6.779
 7052SOL    HW223054  14.403   7.971   6.873
 7053SOL     OW23055  14.560  11.069   1.176
 7053SOL    HW123056  14.579  11.080   1.083
 7053SOL    HW223057  14.549  11.159   1.208
 7054SOL     OW23058  12.582  11.161   7.148
 7054SOL    HW123059  12.574  11.230   7.214
 7054SOL    HW223060  12.638  11.095   7.188
 7055SOL     OW23061   4.823   6.773   7.943
 7055SOL    HW123062   4.901   6.809   7.901
 7055SOL    HW223063   4.858   6.719   8.014
 7056SOL     OW23064  12.682   2.379   7.842
 7056SOL    HW123065  12.611   2.419   7.892
 7056SOL    HW223066  12.640   2.343   7.764
 7057SOL     OW23067   3.320   9.261  13.499
 7057SOL    HW123068   3.374   9.232  13.425
 7057SOL    HW223069   3.303   9.353  13.482
 7058SOL     OW23070   1.131  11.497   3.404
 7058SOL    HW123071   1.105  11.468   3.491
 7058SOL    HW223072   1.103  11.425   3.346
 7059SOL     OW23073   3.632  11.594   6.891
 7059SOL    HW123074   3.583  11.577   6.971
 7059SOL    HW223075   3.635  11.509   6.847
 7060SOL     OW23076   2.032  11.610   2.737
 7060SOL    HW123077   2.058  11.580   2.824
 7060SOL    HW223078   2.001  11.699   2.750
 7061SOL     OW23079   1.956  14.472   5.209
 7061SOL    HW123080   1.973  14.408   5.140
 7061SOL    HW223081   1.921  14.422   5.282
 7062SOL     OW23082   2.757   5.336  10.680
 7062SOL    HW123083   2.767   5.299  10.768
 7062SOL    HW223084   2.781   5.264  10.622
 7063SOL     OW23085   8.867   5.300  14.626
 7063SOL    HW123086   8.889   5.372  14.567
 7063SOL    HW223087   8.811   5.340  14.692
 7064SOL     OW23088   9.784   0.400   7.640
 7064SOL    HW123089   9.791   0.305   7.626
 7064SOL    HW223090   9.712   0.427   7.583
 7065SOL     OW23091  11.175  13.708   8.272
 7065SOL    HW123092  11.179  13.795   8.311
 7065SOL    HW223093  11.120  13.658   8.333
 7066SOL     OW23094   4.503  14.527   2.648
 7066SOL    HW123095   4.436  14.542   2.714
 7066SOL    HW223096   4.545  14.445   2.674
 7067SOL     OW23097  12.134   8.458   4.308
 7067SOL    HW123098  12.060   8.502   4.265
 7067SOL    HW223099  12.108   8.366   4.310
 7068SOL     OW23100  13.147   6.579   6.104
 7068SOL    HW123101  13.195   6.560   6.022
 7068SOL    HW223102  13.066   6.529   6.096
 7069SOL     OW23103   4.560  11.665  13.812
 7069SOL    HW123104   4.509  11.626  13.883
 7069SOL    HW223105   4.502  11.663  13.736
 7070SOL     OW23106   3.109   8.262  13.599
 7070SOL    HW123107   3.127   8.190  13.539
 7070SOL    HW223108   3.020   8.246  13.631
 7071SOL     OW23109   2.500   2.186   4.537
 7071SOL    HW123110   2.574   2.246   4.528
 7071SOL    HW223111   2.517   2.117   4.473
 7072SOL     OW23112   8.966   8.382  12.918
 7072SOL    HW123113   8.976   8.324  12.993
 7072SOL    HW223114   9.055   8.395  12.885
 7073SOL     OW23115  12.496   6.325   4.451
 7073SOL    HW123116  12.581   6.309   4.492
 7073SOL    HW223117  12.517   6.362   4.365
 7074SOL     OW23118   2.414   8.857   0.682
 7074SOL    HW123119   2.355   8.870   0.607
 7074SOL    HW223120   2.478   8.793   0.652
 7075SOL     OW23121   3.802  12.968   7.459
 7075SOL    HW123122   3.761  12.931   7.538
 7075SOL    HW223123   3.771  13.058   7.456
 7076SOL     OW23124  14.487   3.571  13.140
 7076SOL    HW123125  14.456   3.654  13.177
 7076SOL    HW223126  14.534   3.596  13.060
 7077SOL     OW23127  14.496   0.760   4.172
 7077SOL    HW123128  14.482   0.854   4.175
 7077SOL    HW223129  14.512   0.735   4.263
 7078SOL     OW23130   8.155   3.335  10.270
 7078SOL    HW123131   8.094   3.401  10.303
 7078SOL    HW223132   8.131   3.255  10.317
 7079SOL     OW23133   6.909  13.461   8.809
 7079SOL    HW123134   6.834  13.499   8.854
 7079SOL    HW223135   6.877  13.439   8.722
 7080SOL     OW23136  11.797   7.970   7.821
 7080SOL    HW123137  11.727   8.005   7.767
 7080SOL    HW223138  11.821   7.887   7.778
 7081SOL     OW23139   5.889   9.522   6.892
 7081SOL    HW123140   5.920   9.435   6.919
 7081SOL    HW223141   5.877   9.569   6.975
 7082SOL     OW23142   5.509  13.410   2.420
 7082SOL    HW123143   5.521  13.356   2.342
 7082SOL    HW223144   5.560  13.489   2.403
 7083SOL     OW23145   0.495  14.011  10.677
 7083SOL    HW123146   0.467  14.096  10.711
 7083SOL    HW223147   0.456  13.948  10.737
 7084SOL     OW23148   1.704  14.414   7.024
 7084SOL    HW123149   1.797  14.434   7.018
 7084SOL    HW223150   1.690  14.342   6.962
 7085SOL     OW23151   1.175   7.289  13.081
 7085SOL    HW123152   1.209   7.303  12.993
 7085SOL    HW223153   1.195   7.371  13.127
 7086SOL     OW23154   1.523  13.384   0.948
 7086SOL    HW123155   1.585  13.313   0.933
 7086SOL    HW223156   1.493  13.408   0.860
 7087SOL     OW23157   3.912   7.639   3.492
 7087SOL    HW123158   3.934   7.552   3.459
 7087SOL    HW223159   3.852   7.674   3.426
 7088SOL     OW23160  10.619   6.490   0.426
 7088SOL    HW123161  10.526   6.468   0.415
 7088SOL    HW223162  10.662   6.405   0.435
 7089SOL     OW23163  11.768   9.684  11.824
 7089SOL    HW123164  11.808   9.654  11.905
 7089SOL    HW223165  11.700   9.745  11.852
 7090SOL     OW23166  13.448   0.375  12.841
 7090SOL    HW123167  13.421   0.464  12.863
 7090SOL    HW223168  13.541   0.372  12.862
 7091SOL     OW23169   6.195   7.584   2.811
 7091SOL    HW123170   6.251   7.530   2.756
 7091SOL    HW223171   6.223   7.565   2.901
 7092SOL     OW23172  10.895  10.972   9.307
 7092SOL    HW123173  10.882  10.988   9.401
 7092SOL    HW223174  10.809  10.990   9.268
 7093SOL     OW23175  14.594  13.789  10.665
 7093SOL    HW123176  14.525  13.746  10.715
 7093SOL    HW223177  14.640  13.718  10.620
 7094SOL     OW23178   3.263   9.607   4.807
 7094SOL    HW123179   3.256   9.696   4.841
 7094SOL    HW223180   3.340   9.609   4.749
 7095SOL     OW23181  11.855   7.159   5.092
 7095SOL    HW123182  11.916   7.220   5.134
 7095SOL    HW223183  11.824   7.206   5.015
 7096SOL     OW23184   3.140   5.730  13.678
 7096SOL    HW123185   3.075   5.708  13.611
 7096SOL    HW223186   3.170   5.646  13.711
 7097SOL     OW23187   5.675   2.595   3.549
 7097SOL    HW123188   5.722   2.678   3.555
 7097SOL    HW223189   5.621   2.592   3.628
 7098SOL     OW23190  12.679   4.647  14.134
 7098SOL    HW123191  12.701   4.727  14.087
 7098SOL    HW223192  12.712   4.577  14.079
 7099SOL     OW23193  13.243  13.956   2.397
 7099SOL    HW123194  13.183  13.918   2.331
 7099SOL    HW223195  13.311  13.998   2.345
 7100SOL     OW23196   8.438   1.903  12.126
 7100SOL    HW123197   8.437   1.884  12.220
 7100SOL    HW223198   8.346   1.905  12.101
 7101SOL     OW23199  13.411   8.499   7.872
 7101SOL    HW123200  13.502   8.527   7.874
 7101SOL    HW223201  13.366   8.557   7.934
 7102SOL     OW23202   9.234  13.962  12.270
 7102SOL    HW123203   9.315  14.002  12.302
 7102SOL    HW223204   9.207  14.018  12.197
 7103SOL     OW23205   1.934   5.551   9.060
 7103SOL    HW123206   1.858   5.509   9.019
 7103SOL    HW223207   1.916   5.548   9.154
 7104SOL     OW23208  13.298  10.532   9.759
 7104SOL    HW123209  13.240  10.494   9.693
 7104SOL    HW223210  13.380  10.484   9.750
 7105SOL     OW23211   1.672  10.491   6.027
 7105SOL    HW123212   1.763  10.463   6.033
 7105SOL    HW223213   1.640  10.454   5.945
 7106SOL     OW23214   5.947   8.629  12.733
 7106SOL    HW123215   5.944   8.546  12.685
 7106SOL    HW223216   6.041   8.645  12.747
 7107SOL     OW23217   5.126   9.922   4.040
 7107SOL    HW123218   5.179   9.884   4.110
 7107SOL    HW223219   5.074   9.990   4.082
 7108SOL     OW23220   5.968  13.031   9.015
 7108SOL    HW123221   5.926  13.104   9.060
 7108SOL    HW223222   5.898  12.989   8.965
 7109SOL     OW23223   1.116   9.193   1.176
 7109SOL    HW123224   1.044   9.155   1.226
 7109SOL    HW223225   1.088   9.185   1.084
 7110SOL     OW23226  10.848  13.038   8.959
 7110SOL    HW123227  10.823  13.045   9.051
 7110SOL    HW223228  10.859  12.944   8.945
 7111SOL     OW23229   1.258   0.027   0.442
 7111SOL    HW123230   1.208   0.104   0.414
 7111SOL    HW223231   1.339   0.063   0.479
 7112SOL     OW23232  10.282   5.237   6.744
 7112SOL    HW123233  10.213   5.190   6.792
 7112SOL    HW223234  10.244   5.253   6.658
 7113SOL     OW23235   9.677  10.934   4.628
 7113SOL    HW123236   9.647  11.015   4.587
 7113SOL    HW223237   9.668  10.950   4.722
 7114SOL     OW23238  10.335   1.791  12.658
 7114SOL    HW123239  10.294   1.789  12.745
 7114SOL    HW223240  10.395   1.866  12.663
 7115SOL     OW23241   9.853   6.434   1.894
 7115SOL    HW123242   9.900   6.461   1.815
 7115SOL    HW223243   9.921   6.397   1.950
 7116SOL     OW23244   4.184   2.411   4.475
 7116SOL    HW123245   4.139   2.468   4.413
 7116SOL    HW223246   4.255   2.464   4.510
 7117SOL     OW23247  11.347   1.815  13.814
 7117SOL    HW123248  11.309   1.730  13.834
 7117SOL    HW223249  11.272   1.874  13.805
 7118SOL     OW23250   4.719  13.013  14.170
 7118SOL    HW123251   4.743  13.026  14.261
 7118SOL    HW223252   4.695  12.920  14.164
 7119SOL     OW23253   8.857   3.926   7.560
 7119SOL    HW123254   8.784   3.943   7.501
 7119SOL    HW223255   8.919   3.875   7.508
 7120SOL     OW23256   0.108  13.578   6.177
 7120SOL    HW123257   0.167  13.504   6.163
 7120SOL    HW223258   0.027  13.539   6.210
 7121SOL     OW23259   6.632   0.255   2.449
 7121SOL    HW123260   6.712   0.241   2.399
 7121SOL    HW223261   6.573   0.187   2.418
 7122SOL     OW23262   5.626   5.440   9.912
 7122SOL    HW123263   5.718   5.461   9.897
 7122SOL    HW223264   5.578   5.503   9.859
 7123SOL     OW23265  12.662   6.060  14.283
 7123SOL    HW123266  12.648   6.128  14.348
 7123SOL    HW223267  12.654   5.978  14.332
 7124SOL     OW23268  14.462   5.052  14.414
 7124SOL    HW123269  14.401   5.028  14.344
 7124SOL    HW223270  14.531   4.987  14.409
 7125SOL     OW23271   2.883   8.678  10.565
 7125SOL    HW123272   2.892   8.616  10.493
 7125SOL    HW223273   2.961   8.733  10.560
 7126SOL     OW23274   6.249   8.251  11.701
 7126SOL    HW123275   6.201   8.289  11.627
 7126SOL    HW223276   6.266   8.160  11.674
 7127SOL     OW23277   1.409   4.308  10.970
 7127SOL    HW123278   1.502   4.328  10.957
 7127SOL    HW223279   1.408   4.244  11.041
 7128SOL     OW23280  13.430   5.923   7.024
 7128SOL    HW123281  13.448   5.834   7.056
 7128SOL    HW223282  13.380   5.964   7.095
 7129SOL     OW23283   0.940  11.200   2.866
 7129SOL    HW123284   0.972  11.111   2.849
 7129SOL    HW223285   0.846  11.195   2.849
 7130SOL     OW23286   0.754   1.746  14.773
 7130SOL    HW123287   0.819   1.782  14.713
 7130SOL    HW223288   0.800   1.676  14.820
 7131SOL     OW23289   3.809   2.702   7.772
 7131SOL    HW123290   3.873   2.737   7.833
 7131SOL    HW223291   3.826   2.608   7.769
 7132SOL     OW23292   0.918  13.616  12.302
 7132SOL    HW123293   0.918  13.531  12.257
 7132SOL    HW223294   0.964  13.600  12.384
 7133SOL     OW23295   1.128  12.674   9.697
 7133SOL    HW123296   1.135  12.582   9.723
 7133SOL    HW223297   1.137  12.723   9.779
 7134SOL     OW23298   4.365   4.490   5.443
 7134SOL    HW123299   4.453   4.526   5.430
 7134SOL    HW223300   4.307   4.566   5.434
 7135SOL     OW23301   8.305  12.941   0.481
 7135SOL    HW123302   8.395  12.968   0.462
 7135SOL    HW223303   8.256  12.965   0.402
 7136SOL     OW23304   5.398  13.037  11.301
 7136SOL    HW123305   5.469  12.975  11.319
 7136SOL    HW223306   5.443  13.121  11.286
 7137SOL     OW23307   5.408  13.986  12.188
 7137SOL    HW123308   5.367  14.012  12.271
 7137SOL    HW223309   5.416  14.068  12.139
 7138SOL     OW23310   4.684  13.504   7.572
 7138SOL    HW123311   4.690  13.439   7.643
 7138SOL    HW223312   4.693  13.589   7.617
 7139SOL     OW23313   5.416  10.088   0.744
 7139SOL    HW123314   5.358  10.018   0.713
 7139SOL    HW223315   5.363  10.138   0.806
 7140SOL     OW23316  11.478   8.618  14.629
 7140SOL    HW123317  11.383   8.626  14.631
 7140SOL    HW223318  11.506   8.682  14.563
 7141SOL     OW23319   8.289   2.491   9.746
 7141SOL    HW123320   8.308   2.565   9.803
 7141SOL    HW223321   8.375   2.455   9.724
 7142SOL     OW23322   9.620   3.520   5.877
 7142SOL    HW123323   9.560   3.499   5.948
 7142SOL    HW223324   9.566   3.563   5.811
 7143SOL     OW23325   0.599   3.981  13.517
 7143SOL    HW123326   0.603   4.016  13.606
 7143SOL    HW223327   0.623   3.889  13.526
 7144SOL     OW23328   0.424   7.131  11.942
 7144SOL    HW123329   0.424   7.094  12.031
 7144SOL    HW223330   0.455   7.220  11.954
 7145SOL     OW23331   0.958  13.419  11.241
 7145SOL    HW123332   1.014  13.370  11.181
 7145SOL    HW223333   1.003  13.503  11.253
 7146SOL     OW23334  11.304   9.694   3.363
 7146SOL    HW123335  11.286   9.768   3.422
 7146SOL    HW223336  11.266   9.618   3.407
 7147SOL     OW23337   3.709   9.212   6.147
 7147SOL    HW123338   3.650   9.287   6.144
 7147SOL    HW223339   3.680   9.161   6.223
 7148SOL     OW23340   3.171   9.483   4.545
 7148SOL    HW123341   3.165   9.389   4.561
 7148SOL    HW223342   3.180   9.522   4.632
 7149SOL     OW23343   9.870   8.963  13.040
 7149SOL    HW123344   9.889   9.023  13.112
 7149SOL    HW223345   9.779   8.936  13.056
 7150SOL     OW23346   5.336   2.358   6.734
 7150SOL    HW123347   5.246   2.328   6.736
 7150SOL    HW223348   5.385   2.292   6.784
 7151SOL     OW23349  11.204   9.682   3.990
 7151SOL    HW123350  11.237   9.624   3.922
 7151SOL    HW223351  11.178   9.624   4.062
 7152SOL     OW23352  11.886   5.612   8.423
 7152SOL    HW123353  11.913   5.595   8.513
 7152SOL    HW223354  11.878   5.707   8.418
 7153SOL     OW23355   9.646  13.168   9.523
 7153SOL    HW123356   9.681  13.205   9.442
 7153SOL    HW223357   9.551  13.180   9.515
 7154SOL     OW23358  12.769   6.943  12.360
 7154SOL    HW123359  12.748   6.936  12.454
 7154SOL    HW223360  12.790   7.036  12.347
 7155SOL     OW23361  11.181   7.744   7.520
 7155SOL    HW123362  11.130   7.823   7.538
 7155SOL    HW223363  11.134   7.675   7.566
 7156SOL     OW23364   6.045   2.750  12.454
 7156SOL    HW123365   6.093   2.677  12.414
 7156SOL    HW223366   6.049   2.732  12.548
 7157SOL     OW23367   7.191   6.622   7.734
 7157SOL    HW123368   7.271   6.569   7.729
 7157SOL    HW223369   7.212   6.703   7.688
 7158SOL     OW23370  13.902   7.751  11.599
 7158SOL    HW123371  13.921   7.664  11.565
 7158SOL    HW223372  13.806   7.754  11.607
 7159SOL     OW23373   8.206   3.769   5.698
 7159SOL    HW123374   8.159   3.848   5.670
 7159SOL    HW223375   8.290   3.773   5.650
 7160SOL     OW23376   7.244   2.877   7.444
 7160SOL    HW123377   7.330   2.847   7.415
 7160SOL    HW223378   7.202   2.912   7.365
 7161SOL     OW23379   0.550  10.356  12.163
 7161SOL    HW123380   0.465  10.355  12.120
 7161SOL    HW223381   0.536  10.309  12.245
 7162SOL     OW23382   1.987  11.426  13.178
 7162SOL    HW123383   1.966  11.466  13.094
 7162SOL    HW223384   2.025  11.341  13.156
 7163SOL     OW23385   6.769  14.591   0.524
 7163SOL    HW123386   6.783  14.604   0.618
 7163SOL    HW223387   6.805  14.669   0.483
 7164SOL     OW23388  11.477  14.287  14.720
 7164SOL    HW123389  11.411  14.222  14.696
 7164SOL    HW223390  11.428  14.370  14.725
 7165SOL     OW23391   3.086   9.360   3.563
 7165SOL    HW123392   3.163   9.411   3.539
 7165SOL    HW223393   3.094   9.346   3.657
 7166SOL     OW23394  10.817   2.629  11.275
 7166SOL    HW123395  10.746   2.611  11.337
 7166SOL    HW223396  10.882   2.561  11.292
 7167SOL     OW23397   1.256   4.798   4.416
 7167SOL    HW123398   1.205   4.723   4.446
 7167SOL    HW223399   1.347   4.769   4.420
 7168SOL     OW23400  13.894   4.063   8.113
 7168SOL    HW123401  13.801   4.048   8.098
 7168SOL    HW223402  13.908   4.154   8.085
 7169SOL     OW23403  11.092  14.735  11.544
 7169SOL    HW123404  11.136  14.745  11.628
 7169SOL    HW223405  11.008  14.694  11.565
 7170SOL     OW23406   0.956  14.331  10.969
 7170SOL    HW123407   0.935  14.257  11.024
 7170SOL    HW223408   0.976  14.402  11.030
 7171SOL     OW23409  12.825   7.792   4.412
 7171SOL    HW123410  12.907   7.777   4.459
 7171SOL    HW223411  12.795   7.878   4.441
 7172SOL     OW23412   1.167  11.428   0.437
 7172SOL    HW123413   1.146  11.521   0.439
 7172SOL    HW223414   1.263  11.426   0.428
 7173SOL     OW23415  11.718   1.108   8.283
 7173SOL    HW123416  11.717   1.204   8.279
 7173SOL    HW223417  11.746   1.088   8.372
 7174SOL     OW23418   8.931   3.344   0.167
 7174SOL    HW123419   8.842   3.310   0.164
 7174SOL    HW223420   8.980   3.287   0.108
 7175SOL     OW23421   7.069   5.463   8.514
 7175SOL    HW123422   7.116   5.450   8.431
 7175SOL    HW223423   6.986   5.416   8.502
 7176SOL     OW23424  14.814   2.268  13.047
 7176SOL    HW123425  14.852   2.191  13.005
 7176SOL    HW223426   0.001   2.340  13.023
 7177SOL     OW23427   5.662   5.005   4.310
 7177SOL    HW123428   5.654   5.000   4.215
 7177SOL    HW223429   5.642   4.917   4.341
 7178SOL     OW23430  14.272   9.969   2.330
 7178SOL    HW123431  14.289   9.954   2.422
 7178SOL    HW223432  14.336   9.914   2.284
 7179SOL     OW23433  13.250  14.213  12.076
 7179SOL    HW123434  13.322  14.218  12.013
 7179SOL    HW223435  13.285  14.257  12.154
 7180SOL     OW23436  14.754  10.154   0.722
 7180SOL    HW123437  14.679  10.148   0.781
 7180SOL    HW223438  14.759  10.247   0.699
 7181SOL     OW23439   6.130   2.933   1.408
 7181SOL    HW123440   6.181   3.005   1.445
 7181SOL    HW223441   6.173   2.912   1.325
 7182SOL     OW23442  11.060   0.112   2.658
 7182SOL    HW123443  10.986   0.124   2.598
 7182SOL    HW223444  11.119   0.185   2.638
 7183SOL     OW23445   3.637   7.298  12.684
 7183SOL    HW123446   3.684   7.296  12.600
 7183SOL    HW223447   3.624   7.206  12.706
 7184SOL     OW23448  10.791   6.310  14.567
 7184SOL    HW123449  10.776   6.348  14.653
 7184SOL    HW223450  10.746   6.226  14.570
 7185SOL     OW23451  11.442  11.260  12.258
 7185SOL    HW123452  11.376  11.220  12.313
 7185SOL    HW223453  11.481  11.328  12.312
 7186SOL     OW23454   2.607   6.053   5.169
 7186SOL    HW123455   2.521   6.011   5.170
 7186SOL    HW223456   2.611   6.103   5.250
 7187SOL     OW23457   5.408  13.881   4.641
 7187SOL    HW123458   5.472  13.862   4.710
 7187SOL    HW223459   5.333  13.920   4.687
 7188SOL     OW23460   0.662   0.161   0.665
 7188SOL    HW123461   0.692   0.169   0.575
 7188SOL    HW223462   0.683   0.070   0.689
 7189SOL     OW23463   1.269   2.553  14.274
 7189SOL    HW123464   1.311   2.571  14.190
 7189SOL    HW223465   1.218   2.632  14.293
 7190SOL     OW23466   3.376   9.034   8.833
 7190SOL    HW123467   3.345   9.115   8.873
 7190SOL    HW223468   3.427   9.062   8.757
 7191SOL     OW23469   6.343  14.217   3.565
 7191SOL    HW123470   6.295  14.138   3.589
 7191SOL    HW223471   6.423  14.184   3.524
 7192SOL     OW23472  13.417  11.826  12.582
 7192SOL    HW123473  13.498  11.810  12.533
 7192SOL    HW223474  13.429  11.779  12.664
 7193SOL     OW23475  14.302   3.375   1.297
 7193SOL    HW123476  14.392   3.344   1.293
 7193SOL    HW223477  14.270   3.345   1.382
 7194SOL     OW23478   9.035  14.165  12.363
 7194SOL    HW123479   9.099  14.237  12.365
 7194SOL    HW223480   9.064  14.105  12.432
 7195SOL     OW23481   5.046   3.490   6.585
 7195SOL    HW123482   5.020   3.516   6.497
 7195SOL    HW223483   5.020   3.564   6.640
 7196SOL     OW23484  14.015   0.936  13.686
 7196SOL    HW123485  14.081   0.871  13.708
 7196SOL    HW223486  14.062   1.001  13.634
 7197SOL     OW23487   6.041   6.574  13.838
 7197SOL    HW123488   6.114   6.551  13.896
 7197SOL    HW223489   6.056   6.522  13.759
 7198SOL     OW23490  11.766   8.576  10.377
 7198SOL    HW123491  11.826   8.626  10.321
 7198SOL    HW223492  11.794   8.595  10.466
 7199SOL     OW23493  11.626   8.936  10.872
 7199SOL    HW123494  11.575   8.964  10.796
 7199SOL    HW223495  11.704   8.895  10.835
 7200SOL     OW23496  12.204  10.834  13.196
 7200SOL    HW123497  12.118  10.856  13.232
 7200SOL    HW223498  12.258  10.816  13.273
 7201SOL     OW23499  13.014   0.240   4.029
 7201SOL    HW123500  12.996   0.216   3.938
 7201SOL    HW223501  13.092   0.190   4.053
 7202SOL     OW23502   2.069   8.834   1.815
 7202SOL    HW123503   2.020   8.766   1.860
 7202SOL    HW223504   2.064   8.910   1.873
 7203SOL     OW23505   5.690   6.502   0.289
 7203SOL    HW123506   5.604   6.494   0.249
 7203SOL    HW223507   5.675   6.490   0.382
 7204SOL     OW23508   9.650   2.573   6.149
 7204SOL    HW123509   9.632   2.622   6.069
 7204SOL    HW223510   9.694   2.494   6.118
 7205SOL     OW23511   4.399   3.542  11.578
 7205SOL    HW123512   4.414   3.462  11.628
 7205SOL    HW223513   4.483   3.587  11.580
 7206SOL     OW23514   2.423   6.068   9.177
 7206SOL    HW123515   2.338   6.079   9.134
 7206SOL    HW223516   2.459   5.987   9.139
 7207SOL     OW23517  10.404   2.833   5.226
 7207SOL    HW123518  10.445   2.783   5.297
 7207SOL    HW223519  10.471   2.839   5.158
 7208SOL     OW23520   8.107   1.469   4.897
 7208SOL    HW123521   8.101   1.563   4.915
 7208SOL    HW223522   8.180   1.439   4.951
 7209SOL     OW23523   1.199   4.370  11.923
 7209SOL    HW123524   1.155   4.443  11.880
 7209SOL    HW223525   1.214   4.306  11.854
 7210SOL     OW23526  13.760   7.409   1.677
 7210SOL    HW123527  13.782   7.445   1.763
 7210SOL    HW223528  13.767   7.314   1.688
 7211SOL     OW23529   9.666  11.635  11.416
 7211SOL    HW123530   9.614  11.653  11.495
 7211SOL    HW223531   9.728  11.568  11.445
 7212SOL     OW23532   6.296  12.563   7.353
 7212SOL    HW123533   6.230  12.508   7.395
 7212SOL    HW223534   6.286  12.648   7.394
 7213SOL     OW23535   3.861  10.407   0.369
 7213SOL    HW123536   3.910  10.331   0.402
 7213SOL    HW223537   3.802  10.430   0.442
 7214SOL     OW23538   1.824   2.305   3.097
 7214SOL    HW123539   1.754   2.272   3.040
 7214SOL    HW223540   1.820   2.400   3.087
 7215SOL     OW23541  11.448   7.851   7.509
 7215SOL    HW123542  11.365   7.821   7.544
 7215SOL    HW223543  11.483   7.774   7.462
 7216SOL     OW23544  11.780   5.710   5.399
 7216SOL    HW123545  11.717   5.713   5.471
 7216SOL    HW223546  11.828   5.628   5.412
 7217SOL     OW23547   0.307  10.860  11.352
 7217SOL    HW123548   0.381  10.905  11.392
 7217SOL    HW223549   0.245  10.848  11.424
 7218SOL     OW23550   3.623   2.555   1.263
 7218SOL    HW123551   3.544   2.601   1.235
 7218SOL    HW223552   3.679   2.555   1.186
 7219SOL     OW23553   7.971  12.915  13.021
 7219SOL    HW123554   8.031  12.970  12.971
 7219SOL    HW223555   7.935  12.973  13.088
 7220SOL     OW23556   5.749   7.521  13.054
 7220SOL    HW123557   5.730   7.601  13.104
 7220SOL    HW223558   5.705   7.534  12.970
 7221SOL     OW23559   9.274   0.699   3.445
 7221SOL    HW123560   9.201   0.655   3.402
 7221SOL    HW223561   9.340   0.710   3.376
 7222SOL     OW23562   6.583   4.626  13.852
 7222SOL    HW123563   6.507   4.641  13.796
 7222SOL    HW223564   6.620   4.543  13.820
 7223SOL     OW23565   4.897  11.476   2.207
 7223SOL    HW123566   4.899  11.563   2.246
 7223SOL    HW223567   4.957  11.424   2.262
 7224SOL     OW23568   5.906   4.188   1.472
 7224SOL    HW123569   5.936   4.111   1.424
 7224SOL    HW223570   5.940   4.262   1.422
 7225SOL     OW23571   4.798  12.652   6.522
 7225SOL    HW123572   4.838  12.733   6.487
 7225SOL    HW223573   4.863  12.584   6.504
 7226SOL     OW23574   9.431   1.892   3.692
 7226SOL    HW123575   9.438   1.863   3.783
 7226SOL    HW223576   9.517   1.877   3.655
 7227SOL     OW23577   8.771   6.481   5.199
 7227SOL    HW123578   8.861   6.490   5.167
 7227SOL    HW223579   8.758   6.386   5.205
 7228SOL     OW23580   6.765   9.216   4.777
 7228SOL    HW123581   6.682   9.259   4.798
 7228SOL    HW223582   6.752   9.125   4.806
 7229SOL     OW23583   7.592   2.476  14.628
 7229SOL    HW123584   7.498   2.477  14.648
 7229SOL    HW223585   7.596   2.458  14.534
 7230SOL     OW23586   6.177   0.512   5.104
 7230SOL    HW123587   6.263   0.552   5.089
 7230SOL    HW223588   6.122   0.583   5.138
 7231SOL     OW23589   3.221   5.568   8.340
 7231SOL    HW123590   3.143   5.624   8.351
 7231SOL    HW223591   3.260   5.565   8.427
 7232SOL     OW23592  12.464   1.284   0.367
 7232SOL    HW123593  12.491   1.224   0.436
 7232SOL    HW223594  12.546   1.308   0.323
 7233SOL     OW23595   6.063   1.298  14.357
 7233SOL    HW123596   6.128   1.359  14.392
 7233SOL    HW223597   5.982   1.349  14.352
 7234SOL     OW23598  13.539   5.729   0.226
 7234SOL    HW123599  13.573   5.666   0.289
 7234SOL    HW223600  13.456   5.759   0.264
 7235SOL     OW23601   2.144  11.503   4.653
 7235SOL    HW123602   2.108  11.591   4.647
 7235SOL    HW223603   2.106  11.456   4.578
 7236SOL     OW23604   0.610  14.250   7.772
 7236SOL    HW123605   0.518  14.240   7.746
 7236SOL    HW223606   0.649  14.302   7.702
 7237SOL     OW23607   8.010   6.136   5.092
 7237SOL    HW123608   8.095   6.094   5.106
 7237SOL    HW223609   8.020   6.183   5.010
 7238SOL     OW23610   3.947  14.489  12.871
 7238SOL    HW123611   3.925  14.406  12.829
 7238SOL    HW223612   4.018  14.467  12.931
 7239SOL     OW23613   4.155  10.194  14.469
 7239SOL    HW123614   4.141  10.229  14.557
 7239SOL    HW223615   4.138  10.100  14.478
 7240SOL     OW23616  11.557   2.006   3.429
 7240SOL    HW123617  11.616   1.934   3.452
 7240SOL    HW223618  11.526   2.040   3.513
 7241SOL     OW23619   7.760   3.992   5.487
 7241SOL    HW123620   7.772   3.905   5.526
 7241SOL    HW223621   7.779   3.980   5.394
 7242SOL     OW23622   8.705   5.098  12.102
 7242SOL    HW123623   8.767   5.132  12.037
 7242SOL    HW223624   8.633   5.162  12.102
 7243SOL     OW23625   1.740   4.035  13.379
 7243SOL    HW123626   1.648   4.046  13.403
 7243SOL    HW223627   1.737   3.990  13.295
 7244SOL     OW23628   2.104   7.895  12.987
 7244SOL    HW123629   2.103   7.902  13.083
 7244SOL    HW223630   2.116   7.985  12.957
 7245SOL     OW23631  10.122   6.578  11.566
 7245SOL    HW123632  10.174   6.500  11.550
 7245SOL    HW223633  10.031   6.548  11.560
 7246SOL     OW23634   2.603  12.899   0.884
 7246SOL    HW123635   2.524  12.845   0.890
 7246SOL    HW223636   2.590  12.968   0.949
 7247SOL     OW23637  13.273   8.761  12.853
 7247SOL    HW123638  13.362   8.727  12.865
 7247SOL    HW223639  13.254   8.807  12.935
 7248SOL     OW23640   9.928   3.753  13.272
 7248SOL    HW123641   9.847   3.708  13.296
 7248SOL    HW223642   9.901   3.819  13.208
 7249SOL     OW23643   2.182   5.486   2.137
 7249SOL    HW123644   2.098   5.493   2.092
 7249SOL    HW223645   2.233   5.560   2.104
 7250SOL     OW23646   4.546  14.141  11.786
 7250SOL    HW123647   4.593  14.105  11.711
 7250SOL    HW223648   4.588  14.102  11.862
 7251SOL     OW23649   2.383   1.837   3.731
 7251SOL    HW123650   2.456   1.899   3.735
 7251SOL    HW223651   2.425   1.751   3.727
 7252SOL     OW23652   6.531   1.071   6.641
 7252SOL    HW123653   6.500   0.999   6.585
 7252SOL    HW223654   6.470   1.143   6.623
 7253SOL     OW23655  11.895   4.218   2.982
 7253SOL    HW123656  11.907   4.210   2.888
 7253SOL    HW223657  11.980   4.245   3.015
 7254SOL     OW23658  11.800  13.728   5.423
 7254SOL    HW123659  11.710  13.751   5.445
 7254SOL    HW223660  11.845  13.812   5.414
 7255SOL     OW23661  13.091  11.468   0.637
 7255SOL    HW123662  13.108  11.562   0.628
 7255SOL    HW223663  13.177  11.427   0.625
 7256SOL     OW23664   4.934   1.517   8.859
 7256SOL    HW123665   4.884   1.471   8.928
 7256SOL    HW223666   4.926   1.609   8.882
 7257SOL     OW23667   4.484   9.127   0.852
 7257SOL    HW123668   4.394   9.097   0.866
 7257SOL    HW223669   4.523   9.060   0.796
 7258SOL     OW23670  11.936  13.978  14.485
 7258SOL    HW123671  11.947  13.898  14.433
 7258SOL    HW223672  12.025  14.002  14.512
 7259SOL     OW23673   4.026  11.422  14.354
 7259SOL    HW123674   4.089  11.401  14.286
 7259SOL    HW223675   3.948  11.452  14.308
 7260SOL     OW23676   5.124  12.136   9.016
 7260SOL    HW123677   5.100  12.044   9.007
 7260SOL    HW223678   5.150  12.146   9.107
 7261SOL     OW23679   7.115   5.367   4.061
 7261SOL    HW123680   7.034   5.349   4.013
 7261SOL    HW223681   7.108   5.460   4.085
 7262SOL     OW23682  14.793   1.674   5.538
 7262SOL    HW123683  14.838   1.750   5.573
 7262SOL    HW223684  14.817   1.602   5.597
 7263SOL     OW23685   5.267   7.263  12.826
 7263SOL    HW123686   5.279   7.293  12.916
 7263SOL    HW223687   5.185   7.305  12.798
 7264SOL     OW23688   0.410   4.581   9.783
 7264SOL    HW123689   0.391   4.571   9.690
 7264SOL    HW223690   0.438   4.672   9.791
 7265SOL     OW23691   1.502   2.491   4.943
 7265SOL    HW123692   1.585   2.463   4.904
 7265SOL    HW223693   1.526   2.523   5.029
 7266SOL     OW23694   5.343   4.280   9.368
 7266SOL    HW123695   5.432   4.253   9.391
 7266SOL    HW223696   5.306   4.313   9.450
 7267SOL     OW23697  10.062   3.265  13.949
 7267SOL    HW123698   9.975   3.305  13.949
 7267SOL    HW223699  10.066   3.215  13.868
 7268SOL     OW23700  14.269   7.515  12.769
 7268SOL    HW123701  14.259   7.473  12.855
 7268SOL    HW223702  14.240   7.605  12.783
 7269SOL     OW23703   1.172   1.965   8.586
 7269SOL    HW123704   1.125   1.914   8.652
 7269SOL    HW223705   1.202   2.043   8.633
 7270SOL     OW23706   1.404   5.480   9.753
 7270SOL    HW123707   1.427   5.469   9.661
 7270SOL    HW223708   1.317   5.440   9.761
 7271SOL     OW23709  10.520  12.825   4.953
 7271SOL    HW123710  10.462  12.871   5.014
 7271SOL    HW223711  10.519  12.734   4.984
 7272SOL     OW23712   0.989   3.099  12.035
 7272SOL    HW123713   0.969   3.125  12.124
 7272SOL    HW223714   0.969   3.176  11.982
 7273SOL     OW23715  14.183   5.042   7.852
 7273SOL    HW123716  14.225   5.128   7.858
 7273SOL    HW223717  14.194   5.004   7.939
 7274SOL     OW23718   2.686   7.120   8.211
 7274SOL    HW123719   2.682   7.100   8.118
 7274SOL    HW223720   2.774   7.094   8.238
 7275SOL     OW23721   7.832   4.520  12.534
 7275SOL    HW123722   7.809   4.428  12.550
 7275SOL    HW223723   7.825   4.561  12.620
 7276SOL     OW23724  13.766   0.526   2.466
 7276SOL    HW123725  13.751   0.577   2.386
 7276SOL    HW223726  13.771   0.436   2.436
 7277SOL     OW23727   2.578   4.532   1.975
 7277SOL    HW123728   2.566   4.443   2.009
 7277SOL    HW223729   2.648   4.568   2.029
 7278SOL     OW23730   6.655   8.745   6.800
 7278SOL    HW123731   6.602   8.824   6.813
 7278SOL    HW223732   6.636   8.690   6.877
 7279SOL     OW23733   5.729  14.450   0.054
 7279SOL    HW123734   5.639  14.477   0.037
 7279SOL    HW223735   5.751  14.392  14.851
 7280SOL     OW23736   2.453  12.344   5.129
 7280SOL    HW123737   2.384  12.396   5.088
 7280SOL    HW223738   2.407  12.286   5.190
 7281SOL     OW23739  12.030   4.473  13.069
 7281SOL    HW123740  12.013   4.468  13.163
 7281SOL    HW223741  12.043   4.566  13.051
 7282SOL     OW23742  10.643   8.658   4.654
 7282SOL    HW123743  10.600   8.594   4.598
 7282SOL    HW223744  10.660   8.611   4.736
 7283SOL     OW23745   1.923   0.945  13.735
 7283SOL    HW123746   1.903   0.990  13.652
 7283SOL    HW223747   1.930   1.015  13.799
 7284SOL     OW23748   8.629   3.855   2.790
 7284SOL    HW123749   8.608   3.771   2.749
 7284SOL    HW223750   8.551   3.877   2.840
 7285SOL     OW23751   8.580  11.379  11.598
 7285SOL    HW123752   8.652  11.427  11.639
 7285SOL    HW223753   8.554  11.314  11.662
 7286SOL     OW23754   1.631   7.943   5.851
 7286SOL    HW123755   1.675   7.859   5.843
 7286SOL    HW223756   1.549   7.931   5.802
 7287SOL     OW23757   5.458   8.234   4.405
 7287SOL    HW123758   5.467   8.329   4.413
 7287SOL    HW223759   5.364   8.219   4.413
 7288SOL     OW23760  12.774  11.877   9.010
 7288SOL    HW123761  12.788  11.793   8.966
 7288SOL    HW223762  12.683  11.898   8.992
 7289SOL     OW23763   2.099   5.355  13.324
 7289SOL    HW123764   2.190   5.383  13.322
 7289SOL    HW223765   2.101   5.264  13.297
 7290SOL     OW23766  12.303   0.746   6.473
 7290SOL    HW123767  12.358   0.738   6.551
 7290SOL    HW223768  12.312   0.661   6.429
 7291SOL     OW23769   8.317  13.236   9.705
 7291SOL    HW123770   8.302  13.330   9.690
 7291SOL    HW223771   8.326  13.199   9.617
 7292SOL     OW23772  10.574  12.863   9.210
 7292SOL    HW123773  10.574  12.932   9.143
 7292SOL    HW223774  10.605  12.785   9.166
 7293SOL     OW23775   8.036  10.812   4.806
 7293SOL    HW123776   8.078  10.772   4.882
 7293SOL    HW223777   7.946  10.782   4.810
 7294SOL     OW23778  13.354   5.942   0.247
 7294SOL    HW123779  13.439   5.982   0.269
 7294SOL    HW223780  13.343   5.957   0.154
 7295SOL     OW23781   5.085   9.091  14.341
 7295SOL    HW123782   5.130   9.111  14.259
 7295SOL    HW223783   5.054   9.001  14.331
 7296SOL     OW23784  13.311   4.665   3.093
 7296SOL    HW123785  13.326   4.734   3.158
 7296SOL    HW223786  13.320   4.584   3.142
 7297SOL     OW23787  12.367  12.188   0.376
 7297SOL    HW123788  12.316  12.227   0.447
 7297SOL    HW223789  12.339  12.235   0.298
 7298SOL     OW23790   8.162   8.699  13.612
 7298SOL    HW123791   8.167   8.603  13.612
 7298SOL    HW223792   8.244   8.727  13.652
 7299SOL     OW23793   3.714   7.894  14.671
 7299SOL    HW123794   3.655   7.928  14.603
 7299SOL    HW223795   3.755   7.972  14.708
 7300SOL     OW23796   1.717   6.072   9.379
 7300SOL    HW123797   1.667   6.147   9.412
 7300SOL    HW223798   1.683   5.997   9.428
 7301SOL     OW23799   8.269   8.830  12.600
 7301SOL    HW123800   8.294   8.829  12.693
 7301SOL    HW223801   8.223   8.747  12.586
 7302SOL     OW23802  14.823   8.163   2.326
 7302SOL    HW123803  14.863   8.210   2.253
 7302SOL    HW223804  14.868   8.198   2.404
 7303SOL     OW23805  10.308   3.610   5.473
 7303SOL    HW123806  10.379   3.664   5.437
 7303SOL    HW223807  10.230   3.640   5.428
 7304SOL     OW23808   7.590  12.120   6.842
 7304SOL    HW123809   7.520  12.092   6.783
 7304SOL    HW223810   7.562  12.206   6.874
 7305SOL     OW23811   9.753  14.357   3.711
 7305SOL    HW123812   9.659  14.369   3.728
 7305SOL    HW223813   9.757  14.301   3.633
 7306SOL     OW23814   8.955   3.588   9.049
 7306SOL    HW123815   9.040   3.586   9.093
 7306SOL    HW223816   8.933   3.681   9.045
 7307SOL     OW23817   9.717  14.182   3.510
 7307SOL    HW123818   9.674  14.104   3.546
 7307SOL    HW223819   9.687  14.186   3.419
 7308SOL     OW23820  10.366   2.824  13.665
 7308SOL    HW123821  10.394   2.911  13.634
 7308SOL    HW223822  10.439   2.794  13.720
 7309SOL     OW23823   7.710   4.145   9.871
 7309SOL    HW123824   7.692   4.148   9.965
 7309SOL    HW223825   7.749   4.059   9.857
 7310SOL     OW23826  12.434   5.977   8.936
 7310SOL    HW123827  12.348   6.008   8.907
 7310SOL    HW223828  12.432   5.989   9.031
 7311SOL     OW23829   2.201   8.784   9.988
 7311SOL    HW123830   2.278   8.814  10.037
 7311SOL    HW223831   2.147   8.740  10.053
 7312SOL     OW23832   1.328   6.415  13.952
 7312SOL    HW123833   1.334   6.321  13.940
 7312SOL    HW223834   1.336   6.451  13.864
 7313SOL     OW23835   6.657   9.605   8.117
 7313SOL    HW123836   6.688   9.667   8.051
 7313SOL    HW223837   6.634   9.660   8.192
 7314SOL     OW23838   7.727  13.452  13.460
 7314SOL    HW123839   7.766  13.499  13.386
 7314SOL    HW223840   7.733  13.360  13.436
 7315SOL     OW23841   4.081  13.560   9.881
 7315SOL    HW123842   4.124  13.474   9.888
 7315SOL    HW223843   4.069  13.574   9.787
 7316SOL     OW23844  11.270  13.470  14.857
 7316SOL    HW123845  11.327  13.543   0.013
 7316SOL    HW223846  11.183  13.509  14.852
 7317SOL     OW23847  14.518  13.044   2.343
 7317SOL    HW123848  14.612  13.065   2.343
 7317SOL    HW223849  14.497  13.028   2.251
 7318SOL     OW23850   7.599   8.461   3.654
 7318SOL    HW123851   7.530   8.441   3.591
 7318SOL    HW223852   7.575   8.547   3.690
 7319SOL     OW23853  13.657   2.863  10.743
 7319SOL    HW123854  13.624   2.914  10.817
 7319SOL    HW223855  13.641   2.919  10.667
 7320SOL     OW23856   1.226   7.153   8.857
 7320SOL    HW123857   1.248   7.067   8.891
 7320SOL    HW223858   1.133   7.164   8.876
 7321SOL     OW23859   7.678  10.870  11.509
 7321SOL    HW123860   7.663  10.939  11.445
 7321SOL    HW223861   7.681  10.789  11.458
 7322SOL     OW23862  13.881   1.189   9.404
 7322SOL    HW123863  13.916   1.270   9.366
 7322SOL    HW223864  13.792   1.183   9.368
 7323SOL     OW23865   5.933  11.690  13.408
 7323SOL    HW123866   5.846  11.657  13.428
 7323SOL    HW223867   5.993  11.631  13.455
 7324SOL     OW23868  11.414   7.105   4.809
 7324SOL    HW123869  11.500   7.092   4.769
 7324SOL    HW223870  11.356   7.047   4.761
 7325SOL     OW23871   9.045  12.063   0.050
 7325SOL    HW123872   9.078  12.102   0.131
 7325SOL    HW223873   9.048  12.135  14.856
 7326SOL     OW23874   7.917   3.203   4.650
 7326SOL    HW123875   7.833   3.197   4.697
 7326SOL    HW223876   7.948   3.113   4.644
 7327SOL     OW23877  13.469   5.937   2.592
 7327SOL    HW123878  13.494   6.026   2.570
 7327SOL    HW223879  13.553   5.890   2.600
 7328SOL     OW23880   5.836   6.643   2.586
 7328SOL    HW123881   5.768   6.640   2.653
 7328SOL    HW223882   5.906   6.588   2.620
 7329SOL     OW23883   2.806   2.621   9.352
 7329SOL    HW123884   2.813   2.710   9.317
 7329SOL    HW223885   2.891   2.604   9.394
 7330SOL     OW23886   0.097   8.594   9.642
 7330SOL    HW123887   0.155   8.663   9.672
 7330SOL    HW223888   0.116   8.586   9.548
 7331SOL     OW23889  11.565   1.965  12.273
 7331SOL    HW123890  11.578   2.030  12.204
 7331SOL    HW223891  11.625   1.992  12.343
 7332SOL     OW23892  11.392   3.580   9.982
 7332SOL    HW123893  11.404   3.496  10.026
 7332SOL    HW223894  11.390   3.559   9.889
 7333SOL     OW23895   1.412   1.641   1.850
 7333SOL    HW123896   1.449   1.615   1.766
 7333SOL    HW223897   1.407   1.736   1.847
 7334SOL     OW23898   2.752  10.007   7.522
 7334SOL    HW123899   2.684   9.940   7.510
 7334SOL    HW223900   2.708  10.077   7.570
 7335SOL     OW23901   7.332   9.134  10.991
 7335SOL    HW123902   7.275   9.075  11.040
 7335SOL    HW223903   7.365   9.080  10.919
 7336SOL     OW23904   5.897  11.375  13.644
 7336SOL    HW123905   5.815  11.406  13.605
 7336SOL    HW223906   5.966  11.422  13.597
 7337SOL     OW23907  13.804  10.444  14.568
 7337SOL    HW123908  13.797  10.535  14.597
 7337SOL    HW223909  13.843  10.450  14.481
 7338SOL     OW23910   1.754  10.597  14.202
 7338SOL    HW123911   1.848  10.583  14.189
 7338SOL    HW223912   1.737  10.562  14.290
 7339SOL     OW23913  10.308  13.566   0.663
 7339SOL    HW123914  10.278  13.590   0.751
 7339SOL    HW223915  10.401  13.548   0.673
 7340SOL     OW23916  11.047   7.535   3.870
 7340SOL    HW123917  11.069   7.484   3.791
 7340SOL    HW223918  11.131   7.545   3.916
 7341SOL     OW23919  12.722  11.540   8.677
 7341SOL    HW123920  12.790  11.566   8.739
 7341SOL    HW223921  12.646  11.518   8.731
 7342SOL     OW23922  12.111   9.739   8.733
 7342SOL    HW123923  12.122   9.744   8.638
 7342SOL    HW223924  12.124   9.830   8.763
 7343SOL     OW23925   2.512   5.480   8.649
 7343SOL    HW123926   2.540   5.558   8.696
 7343SOL    HW223927   2.593   5.435   8.626
 7344SOL     OW23928   5.308   4.046  10.462
 7344SOL    HW123929   5.300   4.002  10.377
 7344SOL    HW223930   5.242   4.003  10.517
 7345SOL     OW23931  13.549   5.496  14.345
 7345SOL    HW123932  13.510   5.456  14.423
 7345SOL    HW223933  13.503   5.579  14.335
 7346SOL     OW23934   5.072   1.862   1.820
 7346SOL    HW123935   5.113   1.907   1.746
 7346SOL    HW223936   5.042   1.932   1.878
 7347SOL     OW23937   8.186   6.539   8.490
 7347SOL    HW123938   8.223   6.537   8.579
 7347SOL    HW223939   8.226   6.464   8.446
 7348SOL     OW23940   2.177  14.291  10.835
 7348SOL    HW123941   2.164  14.264  10.926
 7348SOL    HW223942   2.091  14.320  10.806
 7349SOL     OW23943  12.592  11.527  14.775
 7349SOL    HW123944  12.551  11.529  14.689
 7349SOL    HW223945  12.672  11.579  14.765
 7350SOL     OW23946   6.423  14.430   3.999
 7350SOL    HW123947   6.348  14.379   3.968
 7350SOL    HW223948   6.417  14.426   4.094
 7351SOL     OW23949   1.113  12.599   4.485
 7351SOL    HW123950   1.206  12.584   4.470
 7351SOL    HW223951   1.104  12.694   4.484
 7352SOL     OW23952   7.596   6.309   1.008
 7352SOL    HW123953   7.580   6.225   0.967
 7352SOL    HW223954   7.688   6.329   0.989
 7353SOL     OW23955   2.452   7.882   7.910
 7353SOL    HW123956   2.385   7.875   7.978
 7353SOL    HW223957   2.517   7.942   7.946
 7354SOL     OW23958   6.115   7.554   9.652
 7354SOL    HW123959   6.120   7.597   9.566
 7354SOL    HW223960   6.031   7.507   9.650
 7355SOL     OW23961   4.265  14.773   9.290
 7355SOL    HW123962   4.328  14.820   9.234
 7355SOL    HW223963   4.314  14.755   9.371
 7356SOL     OW23964   0.218   0.613   2.682
 7356SOL    HW123965   0.239   0.707   2.681
 7356SOL    HW223966   0.303   0.570   2.671
 7357SOL     OW23967  13.159  11.708   1.304
 7357SOL    HW123968  13.238  11.657   1.323
 7357SOL    HW223969  13.141  11.692   1.212
 7358SOL     OW23970   7.613   2.752   3.179
 7358SOL    HW123971   7.690   2.715   3.136
 7358SOL    HW223972   7.588   2.827   3.124
 7359SOL     OW23973   3.966  12.872   9.023
 7359SOL    HW123974   3.940  12.850   8.933
 7359SOL    HW223975   4.018  12.798   9.053
 7360SOL     OW23976  10.754  13.143  12.042
 7360SOL    HW123977  10.713  13.197  12.109
 7360SOL    HW223978  10.828  13.101  12.087
 7361SOL     OW23979   4.457   8.197   9.136
 7361SOL    HW123980   4.463   8.183   9.230
 7361SOL    HW223981   4.500   8.120   9.098
 7362SOL     OW23982  14.576  12.406   4.228
 7362SOL    HW123983  14.575  12.458   4.147
 7362SOL    HW223984  14.500  12.348   4.220
 7363SOL     OW23985   4.836  12.969   2.216
 7363SOL    HW123986   4.828  13.036   2.284
 7363SOL    HW223987   4.760  12.912   2.230
 7364SOL     OW23988   2.344   1.490   0.381
 7364SOL    HW123989   2.307   1.577   0.363
 7364SOL    HW223990   2.281   1.449   0.440
 7365SOL     OW23991  12.017  11.131   9.112
 7365SOL    HW123992  11.967  11.194   9.164
 7365SOL    HW223993  11.981  11.139   9.024
 7366SOL     OW23994   2.952  11.421   0.185
 7366SOL    HW123995   2.929  11.488   0.249
 7366SOL    HW223996   3.042  11.444   0.158
 7367SOL     OW23997   8.819   8.715   1.481
 7367SOL    HW123998   8.736   8.737   1.522
 7367SOL    HW223999   8.817   8.759   1.396
 7368SOL     OW24000   2.558   2.221  13.841
 7368SOL    HW124001   2.632   2.277  13.816
 7368SOL    HW224002   2.497   2.227  13.767
 7369SOL     OW24003   4.322   7.784   3.693
 7369SOL    HW124004   4.394   7.825   3.740
 7369SOL    HW224005   4.343   7.690   3.694
 7370SOL     OW24006   8.037  13.811   8.889
 7370SOL    HW124007   7.942  13.803   8.902
 7370SOL    HW224008   8.072  13.728   8.922
 7371SOL     OW24009   8.341  14.213  10.017
 7371SOL    HW124010   8.280  14.264   9.965
 7371SOL    HW224011   8.364  14.138   9.962
 7372SOL     OW24012   9.001   6.393   7.359
 7372SOL    HW124013   8.973   6.485   7.363
 7372SOL    HW224014   8.975   6.363   7.272
 7373SOL     OW24015   3.970   4.669   4.651
 7373SOL    HW124016   3.922   4.739   4.606
 7373SOL    HW224017   4.036   4.641   4.587
 7374SOL     OW24018   1.479   2.468   1.120
 7374SOL    HW124019   1.572   2.467   1.141
 7374SOL    HW224020   1.472   2.523   1.042
 7375SOL     OW24021   5.307   0.022   9.924
 7375SOL    HW124022   5.270  14.803   9.919
 7375SOL    HW224023   5.264   0.070   9.854
 7376SOL     OW24024  12.729  14.257  13.639
 7376SOL    HW124025  12.746  14.164  13.623
 7376SOL    HW224026  12.805  14.286  13.690
 7377SOL     OW24027   7.782  12.108  14.520
 7377SOL    HW124028   7.843  12.103  14.593
 7377SOL    HW224029   7.775  12.017  14.489
 7378SOL     OW24030   3.182   7.019   5.317
 7378SOL    HW124031   3.179   7.108   5.351
 7378SOL    HW224032   3.090   6.991   5.315
 7379SOL     OW24033  10.635   8.431   7.075
 7379SOL    HW124034  10.674   8.355   7.033
 7379SOL    HW224035  10.600   8.398   7.158
 7380SOL     OW24036   1.398   5.166  10.857
 7380SOL    HW124037   1.361   5.254  10.857
 7380SOL    HW224038   1.462   5.167  10.785
 7381SOL     OW24039  14.063   4.397   9.661
 7381SOL    HW124040  14.066   4.491   9.647
 7381SOL    HW224041  14.140   4.378   9.714
 7382SOL     OW24042   0.737  11.816   2.630
 7382SOL    HW124043   0.766  11.893   2.680
 7382SOL    HW224044   0.698  11.852   2.551
 7383SOL     OW24045  11.240  13.678   0.611
 7383SOL    HW124046  11.234  13.585   0.633
 7383SOL    HW224047  11.282  13.681   0.526
 7384SOL     OW24048   9.004  13.974   7.454
 7384SOL    HW124049   8.999  13.949   7.546
 7384SOL    HW224050   9.042  13.898   7.410
 7385SOL     OW24051  11.696  12.859   8.233
 7385SOL    HW124052  11.783  12.897   8.225
 7385SOL    HW224053  11.655  12.876   8.148
 7386SOL     OW24054   6.331   1.046   6.112
 7386SOL    HW124055   6.322   1.127   6.163
 7386SOL    HW224056   6.287   1.066   6.029
 7387SOL     OW24057   1.473  13.170  10.762
 7387SOL    HW124058   1.473  13.082  10.726
 7387SOL    HW224059   1.566  13.191  10.775
 7388SOL     OW24060   8.672   7.695  10.987
 7388SOL    HW124061   8.583   7.723  11.005
 7388SOL    HW224062   8.672   7.668  10.895
 7389SOL     OW24063   2.027   4.721  11.184
 7389SOL    HW124064   2.006   4.668  11.261
 7389SOL    HW224065   2.096   4.780  11.215
 7390SOL     OW24066  11.446   5.818  13.344
 7390SOL    HW124067  11.376   5.880  13.325
 7390SOL    HW224068  11.454   5.766  13.264
 7391SOL     OW24069  12.656   1.210   9.840
 7391SOL    HW124070  12.596   1.142   9.872
 7391SOL    HW224071  12.645   1.207   9.744
 7392SOL     OW24072   8.089   9.616   7.194
 7392SOL    HW124073   8.033   9.569   7.256
 7392SOL    HW224074   8.080   9.708   7.220
 7393SOL     OW24075   4.890  12.215  14.006
 7393SOL    HW124076   4.813  12.225  14.063
 7393SOL    HW224077   4.962  12.255  14.055
 7394SOL     OW24078   9.689   3.129   2.572
 7394SOL    HW124079   9.674   3.174   2.656
 7394SOL    HW224080   9.633   3.052   2.576
 7395SOL     OW24081  11.066   5.006  11.658
 7395SOL    HW124082  10.989   4.963  11.695
 7395SOL    HW224083  11.055   4.997  11.564
 7396SOL     OW24084   5.067   1.941   1.087
 7396SOL    HW124085   5.155   1.916   1.116
 7396SOL    HW224086   5.081   2.012   1.024
 7397SOL     OW24087   4.391   6.630   8.008
 7397SOL    HW124088   4.455   6.565   8.037
 7397SOL    HW224089   4.312   6.609   8.059
 7398SOL     OW24090  12.908   8.940   5.830
 7398SOL    HW124091  12.890   8.986   5.912
 7398SOL    HW224092  12.861   8.856   5.838
 7399SOL     OW24093  12.074   4.901   3.254
 7399SOL    HW124094  12.043   4.811   3.269
 7399SOL    HW224095  12.002   4.956   3.284
 7400SOL     OW24096   7.345  14.307  13.978
 7400SOL    HW124097   7.362  14.213  13.969
 7400SOL    HW224098   7.429  14.344  14.002
 7401SOL     OW24099   5.600   1.786   3.276
 7401SOL    HW124100   5.683   1.745   3.252
 7401SOL    HW224101   5.609   1.876   3.247
 7402SOL     OW24102  12.856   6.441   8.533
 7402SOL    HW124103  12.801   6.412   8.606
 7402SOL    HW224104  12.817   6.400   8.456
 7403SOL     OW24105   7.820   6.624   4.779
 7403SOL    HW124106   7.836   6.547   4.833
 7403SOL    HW224107   7.849   6.698   4.832
 7404SOL     OW24108   9.849   0.671   6.333
 7404SOL    HW124109   9.846   0.766   6.320
 7404SOL    HW224110   9.865   0.661   6.427
 7405SOL     OW24111   1.458   1.552  13.374
 7405SOL    HW124112   1.465   1.624  13.436
 7405SOL    HW224113   1.548   1.530  13.352
 7406SOL     OW24114   1.844   4.505  14.567
 7406SOL    HW124115   1.783   4.433  14.553
 7406SOL    HW224116   1.926   4.475  14.527
 7407SOL     OW24117   2.679   7.508  11.798
 7407SOL    HW124118   2.637   7.438  11.748
 7407SOL    HW224119   2.729   7.558  11.734
 7408SOL     OW24120   3.575   3.033  10.129
 7408SOL    HW124121   3.513   3.088  10.083
 7408SOL    HW224122   3.526   2.954  10.153
 7409SOL     OW24123   7.100   0.034  12.107
 7409SOL    HW124124   7.115   0.067  12.196
 7409SOL    HW224125   7.139  14.816  12.107
 7410SOL     OW24126   1.197   7.134   2.995
 7410SOL    HW124127   1.259   7.192   3.038
 7410SOL    HW224128   1.245   7.052   2.983
 7411SOL     OW24129   8.876   0.775   0.034
 7411SOL    HW124130   8.831   0.858   0.026
 7411SOL    HW224131   8.968   0.795   0.012
 7412SOL     OW24132   4.288  11.249   6.127
 7412SOL    HW124133   4.246  11.219   6.208
 7412SOL    HW224134   4.366  11.194   6.119
 7413SOL     OW24135   9.457  14.197  11.184
 7413SOL    HW124136   9.494  14.266  11.129
 7413SOL    HW224137   9.378  14.236  11.221
 7414SOL     OW24138   2.767  11.490  14.284
 7414SOL    HW124139   2.850  11.497  14.237
 7414SOL    HW224140   2.705  11.542  14.232
 7415SOL     OW24141   1.901   8.236   8.228
 7415SOL    HW124142   1.883   8.144   8.211
 7415SOL    HW224143   1.817   8.280   8.215
 7416SOL     OW24144   1.094  11.798   1.137
 7416SOL    HW124145   1.043  11.861   1.087
 7416SOL    HW224146   1.028  11.745   1.183
 7417SOL     OW24147   6.340   4.877  10.705
 7417SOL    HW124148   6.388   4.862  10.786
 7417SOL    HW224149   6.317   4.971  10.707
 7418SOL     OW24150   4.189   8.590   3.836
 7418SOL    HW124151   4.183   8.674   3.881
 7418SOL    HW224152   4.283   8.571   3.834
 7419SOL     OW24153   5.369   8.291   1.166
 7419SOL    HW124154   5.449   8.322   1.208
 7419SOL    HW224155   5.365   8.198   1.187
 7420SOL     OW24156   2.655   2.455   3.075
 7420SOL    HW124157   2.700   2.424   2.996
 7420SOL    HW224158   2.567   2.418   3.068
 7421SOL     OW24159  11.628   8.357   1.564
 7421SOL    HW124160  11.561   8.425   1.565
 7421SOL    HW224161  11.619   8.313   1.649
 7422SOL     OW24162  10.371   3.766  13.496
 7422SOL    HW124163  10.302   3.726  13.442
 7422SOL    HW224164  10.404   3.839  13.444
 7423SOL     OW24165   9.805   5.489   0.327
 7423SOL    HW124166   9.819   5.582   0.342
 7423SOL    HW224167   9.789   5.453   0.414
 7424SOL     OW24168   8.551   1.299  13.528
 7424SOL    HW124169   8.526   1.208  13.541
 7424SOL    HW224170   8.578   1.330  13.614
 7425SOL     OW24171   0.098   1.199   4.605
 7425SOL    HW124172   0.047   1.215   4.526
 7425SOL    HW224173   0.173   1.148   4.576
 7426SOL     OW24174  10.978  10.600   5.646
 7426SOL    HW124175  10.994  10.559   5.731
 7426SOL    HW224176  10.896  10.648   5.658
 7427SOL     OW24177  13.081   7.526   6.031
 7427SOL    HW124178  12.986   7.516   6.020
 7427SOL    HW224179  13.113   7.544   5.943
 7428SOL     OW24180   9.329  11.976  11.267
 7428SOL    HW124181   9.272  11.992  11.191
 7428SOL    HW224182   9.414  12.012  11.241
 7429SOL     OW24183   6.848  13.896  10.879
 7429SOL    HW124184   6.846  13.894  10.783
 7429SOL    HW224185   6.822  13.985  10.902
 7430SOL     OW24186   0.326  12.176   7.905
 7430SOL    HW124187   0.261  12.241   7.933
 7430SOL    HW224188   0.394  12.180   7.972
 7431SOL     OW24189   1.738   4.223   0.972
 7431SOL    HW124190   1.749   4.134   1.004
 7431SOL    HW224191   1.656   4.253   1.013
 7432SOL     OW24192   9.391  13.097  12.436
 7432SOL    HW124193   9.429  13.048  12.508
 7432SOL    HW224194   9.334  13.161  12.479
 7433SOL     OW24195   6.929   8.294   4.858
 7433SOL    HW124196   6.834   8.294   4.858
 7433SOL    HW224197   6.954   8.386   4.869
 7434SOL     OW24198   5.937   6.365   5.736
 7434SOL    HW124199   5.964   6.274   5.734
 7434SOL    HW224200   5.999   6.410   5.678
 7435SOL     OW24201  14.401   5.522  11.835
 7435SOL    HW124202  14.362   5.435  11.839
 7435SOL    HW224203  14.385   5.559  11.922
 7436SOL     OW24204   1.494   1.333   7.269
 7436SOL    HW124205   1.488   1.429   7.274
 7436SOL    HW224206   1.514   1.316   7.177
 7437SOL     OW24207  12.932  13.575   7.333
 7437SOL    HW124208  12.848  13.564   7.288
 7437SOL    HW224209  12.911  13.568   7.426
 7438SOL     OW24210   2.311  13.799   9.458
 7438SOL    HW124211   2.252  13.791   9.533
 7438SOL    HW224212   2.374  13.866   9.484
 7439SOL     OW24213   2.746  13.780  12.283
 7439SOL    HW124214   2.715  13.862  12.321
 7439SOL    HW224215   2.812  13.748  12.345
 7440SOL     OW24216   8.684   8.907   5.559
 7440SOL    HW124217   8.603   8.940   5.598
 7440SOL    HW224218   8.735   8.985   5.539
 7441SOL     OW24219   9.363   9.518   0.447
 7441SOL    HW124220   9.329   9.607   0.442
 7441SOL    HW224221   9.291   9.463   0.418
 7442SOL     OW24222  13.761   1.840   8.841
 7442SOL    HW124223  13.685   1.856   8.786
 7442SOL    HW224224  13.760   1.745   8.856
 7443SOL     OW24225   9.186  13.590   6.619
 7443SOL    HW124226   9.145  13.506   6.598
 7443SOL    HW224227   9.278  13.568   6.637
 7444SOL     OW24228  14.804   4.211  14.202
 7444SOL    HW124229  14.796   4.137  14.263
 7444SOL    HW224230   0.008   4.262  14.235
 7445SOL     OW24231   5.852  12.096   0.507
 7445SOL    HW124232   5.763  12.066   0.526
 7445SOL    HW224233   5.842  12.188   0.483
 7446SOL     OW24234  10.875   1.983   4.373
 7446SOL    HW124235  10.796   2.030   4.349
 7446SOL    HW224236  10.916   2.036   4.440
 7447SOL     OW24237   0.990  13.621   7.378
 7447SOL    HW124238   1.045  13.693   7.347
 7447SOL    HW224239   0.981  13.637   7.471
 7448SOL     OW24240   3.496  12.311   6.985
 7448SOL    HW124241   3.467  12.368   7.056
 7448SOL    HW224242   3.496  12.223   7.023
 7449SOL     OW24243   6.750   0.432  10.601
 7449SOL    HW124244   6.825   0.379  10.628
 7449SOL    HW224245   6.741   0.499  10.670
 7450SOL     OW24246   3.099   4.282  12.792
 7450SOL    HW124247   3.037   4.234  12.848
 7450SOL    HW224248   3.048   4.308  12.716
 7451SOL     OW24249   0.226  10.606  12.817
 7451SOL    HW124250   0.227  10.537  12.884
 7451SOL    HW224251   0.285  10.673  12.852
 7452SOL     OW24252   9.054   4.554   9.233
 7452SOL    HW124253   9.103   4.558   9.152
 7452SOL    HW224254   8.970   4.596   9.213
 7453SOL     OW24255  14.229   2.692   3.585
 7453SOL    HW124256  14.273   2.676   3.502
 7453SOL    HW224257  14.279   2.763   3.625
 7454SOL     OW24258   4.595   7.406   2.528
 7454SOL    HW124259   4.638   7.457   2.597
 7454SOL    HW224260   4.531   7.352   2.575
 7455SOL     OW24261  10.716   0.134   2.872
 7455SOL    HW124262  10.711   0.160   2.964
 7455SOL    HW224263  10.765   0.052   2.873
 7456SOL     OW24264   7.849   4.111   0.701
 7456SOL    HW124265   7.808   4.041   0.650
 7456SOL    HW224266   7.811   4.103   0.788
 7457SOL     OW24267   0.757  12.342  12.904
 7457SOL    HW124268   0.850  12.330  12.883
 7457SOL    HW224269   0.753  12.329  12.999
 7458SOL     OW24270  11.764   7.169   6.778
 7458SOL    HW124271  11.847   7.131   6.750
 7458SOL    HW224272  11.730   7.213   6.701
 7459SOL     OW24273   4.087   2.499  12.039
 7459SOL    HW124274   4.175   2.481  12.071
 7459SOL    HW224275   4.048   2.413  12.025
 7460SOL     OW24276  10.990  10.062   1.952
 7460SOL    HW124277  11.037  10.143   1.972
 7460SOL    HW224278  10.898  10.083   1.967
 7461SOL     OW24279   0.921   5.825  14.292
 7461SOL    HW124280   0.896   5.739  14.326
 7461SOL    HW224281   0.899   5.822  14.199
 7462SOL     OW24282   2.773   7.403   0.287
 7462SOL    HW124283   2.846   7.458   0.316
 7462SOL    HW224284   2.707   7.414   0.355
 7463SOL     OW24285   7.723   2.836  12.509
 7463SOL    HW124286   7.800   2.889  12.528
 7463SOL    HW224287   7.754   2.768  12.450
 7464SOL     OW24288  12.372   5.199   2.583
 7464SOL    HW124289  12.440   5.157   2.530
 7464SOL    HW224290  12.417   5.274   2.622
 7465SOL     OW24291   8.540   9.767   9.359
 7465SOL    HW124292   8.579   9.786   9.274
 7465SOL    HW224293   8.614   9.739   9.413
 7466SOL     OW24294   3.117   5.252   2.742
 7466SOL    HW124295   3.036   5.202   2.756
 7466SOL    HW224296   3.183   5.204   2.791
 7467SOL     OW24297  12.988   3.293   0.476
 7467SOL    HW124298  13.018   3.288   0.567
 7467SOL    HW224299  13.053   3.244   0.426
 7468SOL     OW24300   5.946   5.132   1.650
 7468SOL    HW124301   5.935   5.080   1.570
 7468SOL    HW224302   5.890   5.089   1.714
 7469SOL     OW24303   6.393  13.672   0.183
 7469SOL    HW124304   6.370  13.646   0.094
 7469SOL    HW224305   6.472  13.725   0.173
 7470SOL     OW24306   9.730   7.473   9.119
 7470SOL    HW124307   9.659   7.487   9.056
 7470SOL    HW224308   9.745   7.378   9.118
 7471SOL     OW24309   7.203   4.325   6.809
 7471SOL    HW124310   7.222   4.316   6.716
 7471SOL    HW224311   7.116   4.364   6.813
 7472SOL     OW24312  12.276  11.786  10.996
 7472SOL    HW124313  12.332  11.853  11.034
 7472SOL    HW224314  12.298  11.706  11.044
 7473SOL     OW24315   1.973  10.541   8.906
 7473SOL    HW124316   2.013  10.473   8.850
 7473SOL    HW224317   2.001  10.623   8.867
 7474SOL     OW24318   2.294  11.262   6.102
 7474SOL    HW124319   2.358  11.313   6.052
 7474SOL    HW224320   2.341  11.236   6.181
 7475SOL     OW24321   1.630   7.347   2.353
 7475SOL    HW124322   1.619   7.350   2.448
 7475SOL    HW224323   1.564   7.408   2.320
 7476SOL     OW24324   1.412  11.230   1.389
 7476SOL    HW124325   1.451  11.250   1.475
 7476SOL    HW224326   1.426  11.136   1.378
 7477SOL     OW24327   5.651   9.913   2.317
 7477SOL    HW124328   5.703   9.942   2.392
 7477SOL    HW224329   5.560   9.925   2.346
 7478SOL     OW24330   8.488   4.144   9.415
 7478SOL    HW124331   8.578   4.120   9.394
 7478SOL    HW224332   8.446   4.156   9.330
 7479SOL     OW24333   6.486   5.317   5.494
 7479SOL    HW124334   6.410   5.289   5.445
 7479SOL    HW224335   6.555   5.256   5.470
 7480SOL     OW24336   1.922  10.594   0.491
 7480SOL    HW124337   1.981  10.562   0.423
 7480SOL    HW224338   1.929  10.689   0.486
 7481SOL     OW24339   5.250   7.533   8.635
 7481SOL    HW124340   5.216   7.444   8.639
 7481SOL    HW224341   5.308   7.540   8.711
 7482SOL     OW24342  11.255   2.867   0.644
 7482SOL    HW124343  11.199   2.941   0.667
 7482SOL    HW224344  11.327   2.872   0.706
 7483SOL     OW24345  13.718   7.149   7.977
 7483SOL    HW124346  13.697   7.063   8.014
 7483SOL    HW224347  13.811   7.144   7.955
 7484SOL     OW24348   4.348  11.135   9.998
 7484SOL    HW124349   4.376  11.226   9.987
 7484SOL    HW224350   4.283  11.122   9.928
 7485SOL     OW24351  11.570  13.614  14.672
 7485SOL    HW124352  11.529  13.677  14.732
 7485SOL    HW224353  11.519  13.621  14.592
 7486SOL     OW24354  11.522   1.051  13.594
 7486SOL    HW124355  11.477   1.013  13.669
 7486SOL    HW224356  11.469   1.028  13.518
 7487SOL     OW24357   7.419   2.831   2.783
 7487SOL    HW124358   7.503   2.786   2.792
 7487SOL    HW224359   7.433   2.894   2.712
 7488SOL     OW24360  14.653   0.567  10.599
 7488SOL    HW124361  14.577   0.554  10.542
 7488SOL    HW224362  14.619   0.617  10.674
 7489SOL     OW24363   4.704  10.228   2.194
 7489SOL    HW124364   4.773  10.168   2.166
 7489SOL    HW224365   4.696  10.214   2.288
 7490SOL     OW24366  12.779   2.673  10.261
 7490SOL    HW124367  12.692   2.632  10.255
 7490SOL    HW224368  12.771   2.753  10.209
 7491SOL     OW24369  11.666   6.212  11.681
 7491SOL    HW124370  11.591   6.179  11.632
 7491SOL    HW224371  11.630   6.234  11.767
 7492SOL     OW24372   9.461   4.753   5.836
 7492SOL    HW124373   9.454   4.661   5.811
 7492SOL    HW224374   9.385   4.795   5.796
 7493SOL     OW24375   2.284   0.631  11.291
 7493SOL    HW124376   2.226   0.686  11.343
 7493SOL    HW224377   2.300   0.681  11.211
 7494SOL     OW24378  14.555  13.136   0.189
 7494SOL    HW124379  14.517  13.085   0.260
 7494SOL    HW224380  14.492  13.130   0.117
 7495SOL     OW24381   7.609   8.907   2.978
 7495SOL    HW124382   7.538   8.900   2.914
 7495SOL    HW224383   7.580   8.975   3.039
 7496SOL     OW24384   6.432  13.698   0.957
 7496SOL    HW124385   6.434  13.632   0.888
 7496SOL    HW224386   6.500  13.761   0.932
 7497SOL     OW24387  12.195  14.534  12.858
 7497SOL    HW124388  12.220  14.626  12.862
 7497SOL    HW224389  12.278  14.487  12.849
 7498SOL     OW24390   4.430   4.510   6.959
 7498SOL    HW124391   4.385   4.485   6.879
 7498SOL    HW224392   4.490   4.580   6.932
 7499SOL     OW24393   3.457   2.815   9.094
 7499SOL    HW124394   3.528   2.752   9.099
 7499SOL    HW224395   3.384   2.767   9.056
 7500SOL     OW24396   5.739   7.606   0.497
 7500SOL    HW124397   5.767   7.552   0.571
 7500SOL    HW224398   5.694   7.545   0.438
 7501SOL     OW24399   1.909   7.925   3.780
 7501SOL    HW124400   1.895   7.852   3.720
 7501SOL    HW224401   2.002   7.919   3.803
 7502SOL     OW24402  11.658   7.156   1.815
 7502SOL    HW124403  11.703   7.077   1.845
 7502SOL    HW224404  11.583   7.165   1.873
 7503SOL     OW24405  11.214   0.976  14.125
 7503SOL    HW124406  11.130   1.018  14.107
 7503SOL    HW224407  11.210   0.892  14.079
 7504SOL     OW24408   2.850  13.135   0.915
 7504SOL    HW124409   2.942  13.116   0.903
 7504SOL    HW224410   2.810  13.120   0.829
 7505SOL     OW24411   7.955  13.159   7.881
 7505SOL    HW124412   7.999  13.225   7.828
 7505SOL    HW224413   7.981  13.178   7.971
 7506SOL     OW24414   6.794   7.757  10.830
 7506SOL    HW124415   6.718   7.807  10.858
 7506SOL    HW224416   6.760   7.670  10.808
 7507SOL     OW24417   8.690   7.077   7.698
 7507SOL    HW124418   8.620   7.088   7.635
 7507SOL    HW224419   8.669   6.995   7.743
 7508SOL     OW24420  12.057   9.415   5.534
 7508SOL    HW124421  12.034   9.482   5.598
 7508SOL    HW224422  11.989   9.423   5.466
 7509SOL     OW24423   2.432   4.939   3.176
 7509SOL    HW124424   2.423   4.939   3.271
 7509SOL    HW224425   2.382   4.863   3.147
 7510SOL     OW24426   0.425   7.556  11.823
 7510SOL    HW124427   0.335   7.581  11.802
 7510SOL    HW224428   0.469   7.551  11.738
 7511SOL     OW24429   0.238   7.347   5.585
 7511SOL    HW124430   0.174   7.400   5.632
 7511SOL    HW224431   0.300   7.411   5.550
 7512SOL     OW24432   0.722  13.884   9.320
 7512SOL    HW124433   0.706  13.865   9.227
 7512SOL    HW224434   0.678  13.968   9.335
 7513SOL     OW24435   2.225   5.366   7.099
 7513SOL    HW124436   2.181   5.327   7.024
 7513SOL    HW224437   2.155   5.413   7.145
 7514SOL     OW24438   6.243   5.578  12.346
 7514SOL    HW124439   6.252   5.661  12.300
 7514SOL    HW224440   6.202   5.600  12.429
 7515SOL     OW24441   7.979   0.766  13.515
 7515SOL    HW124442   7.902   0.803  13.474
 7515SOL    HW224443   7.956   0.676  13.535
 7516SOL     OW24444  14.373  13.674   7.679
 7516SOL    HW124445  14.397  13.619   7.754
 7516SOL    HW224446  14.335  13.613   7.616
 7517SOL     OW24447   4.917   0.621  13.372
 7517SOL    HW124448   4.831   0.580  13.362
 7517SOL    HW224449   4.907   0.680  13.447
 7518SOL     OW24450   6.184   2.339  12.682
 7518SOL    HW124451   6.244   2.271  12.654
 7518SOL    HW224452   6.228   2.382  12.755
 7519SOL     OW24453   1.210  11.841  11.354
 7519SOL    HW124454   1.209  11.793  11.437
 7519SOL    HW224455   1.212  11.773  11.287
 7520SOL     OW24456   1.140   9.887   3.292
 7520SOL    HW124457   1.199   9.830   3.341
 7520SOL    HW224458   1.074   9.828   3.256
 7521SOL     OW24459  11.353   7.471   5.498
 7521SOL    HW124460  11.304   7.391   5.478
 7521SOL    HW224461  11.393   7.454   5.584
 7522SOL     OW24462   9.652  14.695   8.534
 7522SOL    HW124463   9.606  14.702   8.450
 7522SOL    HW224464   9.673  14.786   8.557
 7523SOL     OW24465  10.452  10.942   4.564
 7523SOL    HW124466  10.476  10.923   4.655
 7523SOL    HW224467  10.407  10.863   4.534
 7524SOL     OW24468   5.155  14.007   2.984
 7524SOL    HW124469   5.096  13.945   2.940
 7524SOL    HW224470   5.110  14.091   2.978
 7525SOL     OW24471   2.334  13.610   5.579
 7525SOL    HW124472   2.271  13.595   5.649
 7525SOL    HW224473   2.282  13.608   5.499
 7526SOL     OW24474   1.763   8.090   7.645
 7526SOL    HW124475   1.761   8.006   7.599
 7526SOL    HW224476   1.802   8.150   7.582
 7527SOL     OW24477   0.368   3.057  10.506
 7527SOL    HW124478   0.373   3.151  10.492
 7527SOL    HW224479   0.375   3.019  10.419
 7528SOL     OW24480   0.803   2.059  12.886
 7528SOL    HW124481   0.780   1.972  12.919
 7528SOL    HW224482   0.779   2.056  12.793
 7529SOL     OW24483   4.712   2.439   1.903
 7529SOL    HW124484   4.653   2.373   1.940
 7529SOL    HW224485   4.800   2.406   1.921
 7530SOL     OW24486   7.365   4.810   2.583
 7530SOL    HW124487   7.342   4.861   2.661
 7530SOL    HW224488   7.382   4.876   2.516
 7531SOL     OW24489  13.613   2.122   4.096
 7531SOL    HW124490  13.700   2.115   4.135
 7531SOL    HW224491  13.554   2.090   4.165
 7532SOL     OW24492  10.295   8.706   2.003
 7532SOL    HW124493  10.375   8.699   2.054
 7532SOL    HW224494  10.288   8.800   1.983
 7533SOL     OW24495   6.368   9.250  13.002
 7533SOL    HW124496   6.342   9.159  13.019
 7533SOL    HW224497   6.449   9.243  12.951
 7534SOL     OW24498   8.929   2.683   3.913
 7534SOL    HW124499   8.929   2.705   3.820
 7534SOL    HW224500   9.015   2.711   3.944
 7535SOL     OW24501   8.941   4.460   6.478
 7535SOL    HW124502   8.872   4.394   6.473
 7535SOL    HW224503   8.895   4.544   6.464
 7536SOL     OW24504   6.893   6.678   7.340
 7536SOL    HW124505   6.983   6.709   7.351
 7536SOL    HW224506   6.876   6.687   7.247
 7537SOL     OW24507  10.657   9.226   5.649
 7537SOL    HW124508  10.646   9.311   5.691
 7537SOL    HW224509  10.568   9.194   5.636
 7538SOL     OW24510  11.825   3.495  10.505
 7538SOL    HW124511  11.857   3.580  10.536
 7538SOL    HW224512  11.817   3.506  10.410
 7539SOL     OW24513  14.200   6.028  14.091
 7539SOL    HW124514  14.139   5.994  14.156
 7539SOL    HW224515  14.161   6.111  14.062
 7540SOL     OW24516   1.919   9.413   6.305
 7540SOL    HW124517   1.917   9.398   6.399
 7540SOL    HW224518   1.978   9.487   6.293
 7541SOL     OW24519   9.816   9.907   3.124
 7541SOL    HW124520   9.831   9.961   3.046
 7541SOL    HW224521   9.834   9.965   3.198
 7542SOL     OW24522  13.018   3.355   2.116
 7542SOL    HW124523  13.008   3.266   2.081
 7542SOL    HW224524  13.111   3.364   2.135
 7543SOL     OW24525  12.844   1.656  14.267
 7543SOL    HW124526  12.884   1.577  14.303
 7543SOL    HW224527  12.811   1.703  14.343
 7544SOL     OW24528  12.732   5.724  14.751
 7544SOL    HW124529  12.772   5.800  14.709
 7544SOL    HW224530  12.720   5.750  14.842
 7545SOL     OW24531   6.774   3.215   8.405
 7545SOL    HW124532   6.706   3.159   8.367
 7545SOL    HW224533   6.853   3.163   8.402
 7546SOL     OW24534   9.851   4.061   0.779
 7546SOL    HW124535   9.805   4.117   0.716
 7546SOL    HW224536   9.910   4.121   0.826
 7547SOL     OW24537   4.695   2.155  12.432
 7547SOL    HW124538   4.669   2.101  12.507
 7547SOL    HW224539   4.616   2.161  12.378
 7548SOL     OW24540   8.059   8.883   2.585
 7548SOL    HW124541   8.133   8.924   2.540
 7548SOL    HW224542   8.033   8.811   2.528
 7549SOL     OW24543  13.060   0.009   6.557
 7549SOL    HW124544  12.985   0.068   6.561
 7549SOL    HW224545  13.023  14.791   6.565
 7550SOL     OW24546   3.282  12.627  12.304
 7550SOL    HW124547   3.354  12.604  12.363
 7550SOL    HW224548   3.203  12.617  12.358
 7551SOL     OW24549   3.567  12.768   3.225
 7551SOL    HW124550   3.630  12.754   3.154
 7551SOL    HW224551   3.483  12.776   3.181
 7552SOL     OW24552   3.346   8.564  11.369
 7552SOL    HW124553   3.251   8.558  11.382
 7552SOL    HW224554   3.376   8.623  11.438
 7553SOL     OW24555   0.347   5.182   4.362
 7553SOL    HW124556   0.372   5.271   4.383
 7553SOL    HW224557   0.406   5.156   4.291
 7554SOL     OW24558   9.766   5.543  10.082
 7554SOL    HW124559   9.753   5.590  10.000
 7554SOL    HW224560   9.853   5.505  10.074
 7555SOL     OW24561  10.211  11.142   8.463
 7555SOL    HW124562  10.265  11.117   8.539
 7555SOL    HW224563  10.245  11.088   8.391
 7556SOL     OW24564  10.500   4.639   0.378
 7556SOL    HW124565  10.425   4.611   0.431
 7556SOL    HW224566  10.484   4.732   0.361
 7557SOL     OW24567  12.571   0.863  10.867
 7557SOL    HW124568  12.477   0.863  10.847
 7557SOL    HW224569  12.592   0.771  10.880
 7558SOL     OW24570  10.150   4.997   5.231
 7558SOL    HW124571  10.152   4.957   5.144
 7558SOL    HW224572  10.241   5.020   5.249
 7559SOL     OW24573   3.038   8.833   6.267
 7559SOL    HW124574   3.004   8.893   6.334
 7559SOL    HW224575   2.975   8.838   6.196
 7560SOL     OW24576  11.712  13.223   4.005
 7560SOL    HW124577  11.738  13.292   3.944
 7560SOL    HW224578  11.795  13.194   4.044
 7561SOL     OW24579   1.356  12.702   6.824
 7561SOL    HW124580   1.379  12.684   6.915
 7561SOL    HW224581   1.428  12.756   6.791
 7562SOL     OW24582   9.859   4.054   8.871
 7562SOL    HW124583   9.802   4.127   8.896
 7562SOL    HW224584   9.936   4.063   8.927
 7563SOL     OW24585  11.345  14.173   6.694
 7563SOL    HW124586  11.305  14.121   6.624
 7563SOL    HW224587  11.398  14.239   6.648
 7564SOL     OW24588  14.238  14.114   3.329
 7564SOL    HW124589  14.229  14.134   3.236
 7564SOL    HW224590  14.205  14.192   3.374
 7565SOL     OW24591   5.437  10.356   6.399
 7565SOL    HW124592   5.402  10.281   6.447
 7565SOL    HW224593   5.530  10.357   6.420
 7566SOL     OW24594   8.571   8.480   2.380
 7566SOL    HW124595   8.617   8.542   2.322
 7566SOL    HW224596   8.481   8.511   2.381
 7567SOL     OW24597   9.351  10.157   5.518
 7567SOL    HW124598   9.428  10.197   5.558
 7567SOL    HW224599   9.290  10.231   5.505
 7568SOL     OW24600   7.445   4.404   4.917
 7568SOL    HW124601   7.487   4.462   4.853
 7568SOL    HW224602   7.353   4.430   4.915
 7569SOL     OW24603  13.285   5.577   2.216
 7569SOL    HW124604  13.209   5.603   2.268
 7569SOL    HW224605  13.256   5.500   2.167
 7570SOL     OW24606  12.143  12.196  11.050
 7570SOL    HW124607  12.113  12.106  11.038
 7570SOL    HW224608  12.220  12.188  11.107
 7571SOL     OW24609  11.354   1.090   7.403
 7571SOL    HW124610  11.301   1.086   7.323
 7571SOL    HW224611  11.314   1.161   7.454
 7572SOL     OW24612  14.810   3.209   2.891
 7572SOL    HW124613  14.816   3.291   2.841
 7572SOL    HW224614   0.030   3.191   2.918
 7573SOL     OW24615   8.205   2.479   3.574
 7573SOL    HW124616   8.264   2.470   3.649
 7573SOL    HW224617   8.225   2.565   3.538
 7574SOL     OW24618   6.673  12.572   8.336
 7574SOL    HW124619   6.722  12.489   8.332
 7574SOL    HW224620   6.731  12.636   8.297
 7575SOL     OW24621   8.181   3.537   1.089
 7575SOL    HW124622   8.111   3.599   1.109
 7575SOL    HW224623   8.243   3.587   1.036
 7576SOL     OW24624   3.161  12.981  14.737
 7576SOL    HW124625   3.163  13.028  14.821
 7576SOL    HW224626   3.195  12.894  14.758
 7577SOL     OW24627  10.557  12.018   0.256
 7577SOL    HW124628  10.600  12.023   0.170
 7577SOL    HW224629  10.465  11.998   0.235
 7578SOL     OW24630   3.874   8.594   8.789
 7578SOL    HW124631   3.838   8.524   8.844
 7578SOL    HW224632   3.965   8.567   8.774
 7579SOL     OW24633  13.775  11.015   0.011
 7579SOL    HW124634  13.802  11.050  14.796
 7579SOL    HW224635  13.857  10.993   0.055
 7580SOL     OW24636  10.111  13.260   3.064
 7580SOL    HW124637  10.157  13.184   3.098
 7580SOL    HW224638  10.069  13.229   2.983
 7581SOL     OW24639   1.293   9.109   1.899
 7581SOL    HW124640   1.364   9.096   1.836
 7581SOL    HW224641   1.337   9.138   1.979
 7582SOL     OW24642  11.288   1.934   6.274
 7582SOL    HW124643  11.297   1.953   6.368
 7582SOL    HW224644  11.268   2.019   6.234
 7583SOL     OW24645  12.942   8.038   6.567
 7583SOL    HW124646  12.990   7.958   6.586
 7583SOL    HW224647  12.907   8.024   6.479
 7584SOL     OW24648  14.509   1.303  12.970
 7584SOL    HW124649  14.509   1.229  12.909
 7584SOL    HW224650  14.470   1.268  13.050
 7585SOL     OW24651  12.111  10.622  11.109
 7585SOL    HW124652  12.139  10.618  11.201
 7585SOL    HW224653  12.016  10.609  11.112
 7586SOL     OW24654  10.489   9.439  10.298
 7586SOL    HW124655  10.444   9.356  10.282
 7586SOL    HW224656  10.580   9.414  10.314
 7587SOL     OW24657   7.959   5.875   9.088
 7587SOL    HW124658   7.996   5.884   9.000
 7587SOL    HW224659   7.885   5.936   9.089
 7588SOL     OW24660   7.827  14.400   7.806
 7588SOL    HW124661   7.770  14.329   7.777
 7588SOL    HW224662   7.865  14.369   7.888
 7589SOL     OW24663   7.367   5.225   8.932
 7589SOL    HW124664   7.325   5.245   8.848
 7589SOL    HW224665   7.459   5.211   8.910
 7590SOL     OW24666   8.615   5.217   4.641
 7590SOL    HW124667   8.541   5.271   4.617
 7590SOL    HW224668   8.677   5.278   4.683
 7591SOL     OW24669   4.683   0.098   8.363
 7591SOL    HW124670   4.625   0.036   8.407
 7591SOL    HW224671   4.700   0.058   8.278
 7592SOL     OW24672   5.628  12.959   8.117
 7592SOL    HW124673   5.569  12.884   8.105
 7592SOL    HW224674   5.573  13.025   8.160
 7593SOL     OW24675  11.726   1.051   8.887
 7593SOL    HW124676  11.682   1.065   8.971
 7593SOL    HW224677  11.738   1.139   8.851
 7594SOL     OW24678   8.128  14.632   9.759
 7594SOL    HW124679   8.180  14.696   9.809
 7594SOL    HW224680   8.124  14.668   9.670
 7595SOL     OW24681  14.113  10.133   3.912
 7595SOL    HW124682  14.119  10.171   3.824
 7595SOL    HW224683  14.128  10.040   3.899
 7596SOL     OW24684  13.976  12.481   3.827
 7596SOL    HW124685  14.001  12.461   3.737
 7596SOL    HW224686  13.904  12.420   3.846
 7597SOL     OW24687  11.418   6.540   1.981
 7597SOL    HW124688  11.487   6.560   2.044
 7597SOL    HW224689  11.463   6.504   1.905
 7598SOL     OW24690  12.785   1.031   7.327
 7598SOL    HW124691  12.692   1.050   7.335
 7598SOL    HW224692  12.789   0.936   7.312
 7599SOL     OW24693   2.103  13.512   7.325
 7599SOL    HW124694   2.068  13.490   7.239
 7599SOL    HW224695   2.057  13.454   7.386
 7600SOL     OW24696  14.365   2.026  11.851
 7600SOL    HW124697  14.350   2.069  11.767
 7600SOL    HW224698  14.370   1.933  11.831
 7601SOL     OW24699   6.526  11.615  10.571
 7601SOL    HW124700   6.445  11.571  10.544
 7601SOL    HW224701   6.503  11.661  10.652
 7602SOL     OW24702  13.953  10.677  12.986
 7602SOL    HW124703  13.971  10.728  13.065
 7602SOL    HW224704  13.894  10.608  13.015
 7603SOL     OW24705   7.142  11.769   7.705
 7603SOL    HW124706   7.165  11.733   7.791
 7603SOL    HW224707   7.062  11.723   7.681
 7604SOL     OW24708   9.694  12.249   3.208
 7604SOL    HW124709   9.781  12.231   3.243
 7604SOL    HW224710   9.658  12.315   3.267
 7605SOL     OW24711   8.229   3.798   7.896
 7605SOL    HW124712   8.139   3.823   7.875
 7605SOL    HW224713   8.264   3.873   7.943
 7606SOL     OW24714   5.044  10.435   6.443
 7606SOL    HW124715   5.091  10.436   6.526
 7606SOL    HW224716   5.001  10.350   6.441
 7607SOL     OW24717  14.080   9.286   0.483
 7607SOL    HW124718  14.109   9.345   0.553
 7607SOL    HW224719  14.073   9.200   0.525
 7608SOL     OW24720   6.864   1.346   8.115
 7608SOL    HW124721   6.836   1.327   8.205
 7608SOL    HW224722   6.947   1.394   8.125
 7609SOL     OW24723   5.805   0.454   7.395
 7609SOL    HW124724   5.862   0.396   7.445
 7609SOL    HW224725   5.743   0.396   7.352
 7610SOL     OW24726   5.592   8.247   9.381
 7610SOL    HW124727   5.498   8.236   9.366
 7610SOL    HW224728   5.606   8.341   9.381
 7611SOL     OW24729   6.114  11.871   7.136
 7611SOL    HW124730   6.068  11.948   7.103
 7611SOL    HW224731   6.198  11.872   7.091
 7612SOL     OW24732   0.248   7.762   8.814
 7612SOL    HW124733   0.229   7.672   8.787
 7612SOL    HW224734   0.175   7.814   8.778
 7613SOL     OW24735   3.747  14.231   4.046
 7613SOL    HW124736   3.835  14.247   4.014
 7613SOL    HW224737   3.755  14.235   4.142
 7614SOL     OW24738   3.896   2.787   2.200
 7614SOL    HW124739   3.862   2.709   2.155
 7614SOL    HW224740   3.884   2.768   2.293
 7615SOL     OW24741   9.749   8.982  13.894
 7615SOL    HW124742   9.668   8.983  13.843
 7615SOL    HW224743   9.779   9.073  13.894
 7616SOL     OW24744  10.432  14.653   6.597
 7616SOL    HW124745  10.492  14.713   6.641
 7616SOL    HW224746  10.420  14.581   6.660
 7617SOL     OW24747   1.203   4.272   3.893
 7617SOL    HW124748   1.161   4.244   3.811
 7617SOL    HW224749   1.158   4.221   3.961
 7618SOL     OW24750  12.631   8.641   6.885
 7618SOL    HW124751  12.641   8.596   6.802
 7618SOL    HW224752  12.721   8.663   6.911
 7619SOL     OW24753   2.360  12.488   9.931
 7619SOL    HW124754   2.401  12.574   9.919
 7619SOL    HW224755   2.267  12.504   9.914
 7620SOL     OW24756  13.269   4.456  14.497
 7620SOL    HW124757  13.206   4.421  14.435
 7620SOL    HW224758  13.352   4.415  14.474
 7621SOL     OW24759   2.284   9.609  12.692
 7621SOL    HW124760   2.191   9.597  12.670
 7621SOL    HW224761   2.321   9.521  12.684
 7622SOL     OW24762   2.579   6.528   7.013
 7622SOL    HW124763   2.603   6.600   6.954
 7622SOL    HW224764   2.599   6.562   7.100
 7623SOL     OW24765   0.782  12.360  10.931
 7623SOL    HW124766   0.788  12.397  11.019
 7623SOL    HW224767   0.867  12.377  10.892
 7624SOL     OW24768   7.220  11.956  11.831
 7624SOL    HW124769   7.272  12.032  11.856
 7624SOL    HW224770   7.224  11.898  11.907
 7625SOL     OW24771  12.132   4.070   8.854
 7625SOL    HW124772  12.140   4.143   8.793
 7625SOL    HW224773  12.099   4.110   8.935
 7626SOL     OW24774   5.949   5.045  13.842
 7626SOL    HW124775   5.936   4.955  13.871
 7626SOL    HW224776   5.974   5.093  13.921
 7627SOL     OW24777   2.591   8.091  10.219
 7627SOL    HW124778   2.507   8.075  10.175
 7627SOL    HW224779   2.570   8.085  10.312
 7628SOL     OW24780   6.178   7.543  11.834
 7628SOL    HW124781   6.083   7.552  11.844
 7628SOL    HW224782   6.189   7.507  11.747
 7629SOL     OW24783   2.626   8.683   9.666
 7629SOL    HW124784   2.536   8.698   9.694
 7629SOL    HW224785   2.632   8.589   9.654
 7630SOL     OW24786   0.012   4.762   6.804
 7630SOL    HW124787  14.803   4.707   6.810
 7630SOL    HW224788   0.059   4.729   6.728
 7631SOL     OW24789   0.812   9.080   3.148
 7631SOL    HW124790   0.766   9.015   3.200
 7631SOL    HW224791   0.787   9.062   3.058
 7632SOL     OW24792   3.486   4.752  11.350
 7632SOL    HW124793   3.442   4.726  11.269
 7632SOL    HW224794   3.577   4.767  11.324
 7633SOL     OW24795   9.164  12.551   7.872
 7633SOL    HW124796   9.240  12.591   7.830
 7633SOL    HW224797   9.194  12.463   7.895
 7634SOL     OW24798   9.353   7.762   8.186
 7634SOL    HW124799   9.277   7.804   8.146
 7634SOL    HW224800   9.349   7.671   8.155
 7635SOL     OW24801   1.775   8.469   9.926
 7635SOL    HW124802   1.688   8.497   9.956
 7635SOL    HW224803   1.802   8.537   9.864
 7636SOL     OW24804   0.104   5.667   0.186
 7636SOL    HW124805   0.169   5.726   0.223
 7636SOL    HW224806   0.135   5.649   0.097
 7637SOL     OW24807  14.666   8.443   5.091
 7637SOL    HW124808  14.573   8.421   5.094
 7637SOL    HW224809  14.670   8.533   5.124
 7638SOL     OW24810  13.338  10.916  13.422
 7638SOL    HW124811  13.352  11.003  13.385
 7638SOL    HW224812  13.383  10.919  13.507
 7639SOL     OW24813   1.804   0.270   9.697
 7639SOL    HW124814   1.788   0.351   9.745
 7639SOL    HW224815   1.872   0.225   9.747
 7640SOL     OW24816  13.778   9.630   3.030
 7640SOL    HW124817  13.781   9.536   3.049
 7640SOL    HW224818  13.685   9.651   3.029
 7641SOL     OW24819  13.562  12.466   2.345
 7641SOL    HW124820  13.603  12.381   2.358
 7641SOL    HW224821  13.615  12.508   2.277
 7642SOL     OW24822   8.583  13.753   4.152
 7642SOL    HW124823   8.579  13.673   4.204
 7642SOL    HW224824   8.553  13.822   4.211
 7643SOL     OW24825   2.669  14.211   3.242
 7643SOL    HW124826   2.585  14.209   3.195
 7643SOL    HW224827   2.653  14.163   3.323
 7644SOL     OW24828  12.307   2.189   9.210
 7644SOL    HW124829  12.287   2.276   9.243
 7644SOL    HW224830  12.393   2.197   9.168
 7645SOL     OW24831   4.071  12.529  14.798
 7645SOL    HW124832   4.092  12.618  14.772
 7645SOL    HW224833   4.069  12.480  14.716
 7646SOL     OW24834   0.614   7.801   8.574
 7646SOL    HW124835   0.569   7.824   8.493
 7646SOL    HW224836   0.704   7.782   8.548
 7647SOL     OW24837  13.727   9.339   5.141
 7647SOL    HW124838  13.677   9.375   5.067
 7647SOL    HW224839  13.816   9.333   5.108
 7648SOL     OW24840   9.121   8.436   1.640
 7648SOL    HW124841   9.110   8.391   1.723
 7648SOL    HW224842   9.036   8.427   1.596
 7649SOL     OW24843  10.865   4.722   7.420
 7649SOL    HW124844  10.845   4.628   7.417
 7649SOL    HW224845  10.938   4.729   7.481
 7650SOL     OW24846   1.453   2.692  12.677
 7650SOL    HW124847   1.507   2.763  12.642
 7650SOL    HW224848   1.452   2.706  12.772
 7651SOL     OW24849  14.590  10.876   5.197
 7651SOL    HW124850  14.586  10.902   5.289
 7651SOL    HW224851  14.532  10.938   5.152
 7652SOL     OW24852  11.512  10.226   5.281
 7652SOL    HW124853  11.429  10.259   5.248
 7652SOL    HW224854  11.575  10.247   5.212
 7653SOL     OW24855  11.757   7.480   6.631
 7653SOL    HW124856  11.841   7.528   6.629
 7653SOL    HW224857  11.728   7.486   6.722
 7654SOL     OW24858   6.510   1.726   2.352
 7654SOL    HW124859   6.601   1.748   2.370
 7654SOL    HW224860   6.500   1.637   2.387
 7655SOL     OW24861   3.554   7.715  11.383
 7655SOL    HW124862   3.548   7.630  11.338
 7655SOL    HW224863   3.635   7.754  11.350
 7656SOL     OW24864   5.812  11.592   5.111
 7656SOL    HW124865   5.779  11.509   5.076
 7656SOL    HW224866   5.889  11.568   5.162
 7657SOL     OW24867   8.209   6.451   2.856
 7657SOL    HW124868   8.184   6.442   2.948
 7657SOL    HW224869   8.129   6.432   2.808
 7658SOL     OW24870   2.787  13.114   5.226
 7658SOL    HW124871   2.868  13.095   5.274
 7658SOL    HW224872   2.799  13.203   5.194
 7659SOL     OW24873  13.548  12.378  10.520
 7659SOL    HW124874  13.519  12.298  10.477
 7659SOL    HW224875  13.480  12.442  10.500
 7660SOL     OW24876   0.300   6.405  11.176
 7660SOL    HW124877   0.354   6.342  11.223
 7660SOL    HW224878   0.227   6.353  11.141
 7661SOL     OW24879   6.944  12.384   9.031
 7661SOL    HW124880   6.858  12.345   9.045
 7661SOL    HW224881   6.931  12.477   9.048
 7662SOL     OW24882   6.689   4.759   9.543
 7662SOL    HW124883   6.710   4.782   9.633
 7662SOL    HW224884   6.593   4.766   9.539
 7663SOL     OW24885   4.941  11.704  13.088
 7663SOL    HW124886   4.949  11.721  13.182
 7663SOL    HW224887   4.907  11.785  13.051
 7664SOL     OW24888   4.937   2.736   2.552
 7664SOL    HW124889   4.967   2.648   2.531
 7664SOL    HW224890   4.847   2.740   2.522
 7665SOL     OW24891   5.995   2.837   2.308
 7665SOL    HW124892   6.079   2.866   2.273
 7665SOL    HW224893   6.017   2.763   2.365
 7666SOL     OW24894  10.873  10.276  12.326
 7666SOL    HW124895  10.814  10.325  12.268
 7666SOL    HW224896  10.827  10.274  12.410
 7667SOL     OW24897   8.327  14.407   1.380
 7667SOL    HW124898   8.390  14.373   1.443
 7667SOL    HW224899   8.361  14.493   1.356
 7668SOL     OW24900  13.030   3.027   9.294
 7668SOL    HW124901  12.997   2.961   9.232
 7668SOL    HW224902  13.040   3.106   9.241
 7669SOL     OW24903  14.166   6.006   0.393
 7669SOL    HW124904  14.222   5.932   0.369
 7669SOL    HW224905  14.078   5.970   0.393
 7670SOL     OW24906  13.854  10.598   1.109
 7670SOL    HW124907  13.767  10.614   1.073
 7670SOL    HW224908  13.907  10.572   1.034
 7671SOL     OW24909   9.830   8.344  10.407
 7671SOL    HW124910   9.872   8.288  10.341
 7671SOL    HW224911   9.742   8.361  10.371
 7672SOL     OW24912  11.320   7.034   7.722
 7672SOL    HW124913  11.411   7.012   7.706
 7672SOL    HW224914  11.322   7.122   7.759
 7673SOL     OW24915   4.642  10.952   5.656
 7673SOL    HW124916   4.645  10.879   5.718
 7673SOL    HW224917   4.656  10.912   5.570
 7674SOL     OW24918   9.642   9.217   8.992
 7674SOL    HW124919   9.664   9.296   8.943
 7674SOL    HW224920   9.671   9.235   9.082
 7675SOL     OW24921  12.980  13.799   0.343
 7675SOL    HW124922  13.026  13.879   0.316
 7675SOL    HW224923  13.017  13.778   0.428
 7676SOL     OW24924  13.866   4.719  10.330
 7676SOL    HW124925  13.790   4.683  10.375
 7676SOL    HW224926  13.858   4.688  10.240
 7677SOL     OW24927   3.562  12.101   7.494
 7677SOL    HW124928   3.504  12.098   7.570
 7677SOL    HW224929   3.618  12.177   7.509
 7678SOL     OW24930   4.637   4.060   4.130
 7678SOL    HW124931   4.664   4.061   4.038
 7678SOL    HW224932   4.684   4.133   4.170
 7679SOL     OW24933   8.674   6.187   3.280
 7679SOL    HW124934   8.735   6.124   3.241
 7679SOL    HW224935   8.708   6.202   3.368
 7680SOL     OW24936  13.595   8.079  12.136
 7680SOL    HW124937  13.535   8.039  12.199
 7680SOL    HW224938  13.544   8.149  12.096
 7681SOL     OW24939   5.655   4.667   7.556
 7681SOL    HW124940   5.711   4.638   7.484
 7681SOL    HW224941   5.645   4.590   7.612
 7682SOL     OW24942   1.364   7.997   9.058
 7682SOL    HW124943   1.317   7.934   9.113
 7682SOL    HW224944   1.376   7.952   8.974
 7683SOL     OW24945  14.755   6.844   6.568
 7683SOL    HW124946  14.752   6.934   6.538
 7683SOL    HW224947  14.677   6.803   6.531
 7684SOL     OW24948   9.467  13.978   3.922
 7684SOL    HW124949   9.401  13.915   3.892
 7684SOL    HW224950   9.425  14.063   3.914
 7685SOL     OW24951   0.518   0.214   4.158
 7685SOL    HW124952   0.502   0.230   4.251
 7685SOL    HW224953   0.579   0.140   4.157
 7686SOL     OW24954  13.275   9.104   5.417
 7686SOL    HW124955  13.305   9.145   5.336
 7686SOL    HW224956  13.229   9.026   5.388
 7687SOL     OW24957   6.268  11.337  11.489
 7687SOL    HW124958   6.261  11.405  11.556
 7687SOL    HW224959   6.178  11.322  11.461
 7688SOL     OW24960   9.375  12.444  14.411
 7688SOL    HW124961   9.460  12.414  14.379
 7688SOL    HW224962   9.359  12.391  14.489
 7689SOL     OW24963  10.657   3.724  12.556
 7689SOL    HW124964  10.596   3.656  12.585
 7689SOL    HW224965  10.608   3.806  12.566
 7690SOL     OW24966  10.155  11.278  10.072
 7690SOL    HW124967  10.126  11.368  10.056
 7690SOL    HW224968  10.150  11.268  10.167
 7691SOL     OW24969  10.216   0.089   4.479
 7691SOL    HW124970  10.263   0.117   4.557
 7691SOL    HW224971  10.279   0.036   4.431
 7692SOL     OW24972  12.619   6.520  11.562
 7692SOL    HW124973  12.672   6.592  11.596
 7692SOL    HW224974  12.644   6.444  11.616
 7693SOL     OW24975   3.881  12.417   4.811
 7693SOL    HW124976   3.911  12.434   4.721
 7693SOL    HW224977   3.798  12.464   4.818
 7694SOL     OW24978   3.257   1.959   8.216
 7694SOL    HW124979   3.182   2.017   8.229
 7694SOL    HW224980   3.298   1.953   8.303
 7695SOL     OW24981  12.493   5.665   5.912
 7695SOL    HW124982  12.447   5.729   5.965
 7695SOL    HW224983  12.494   5.585   5.965
 7696SOL     OW24984   1.791   0.485   2.879
 7696SOL    HW124985   1.740   0.447   2.951
 7696SOL    HW224986   1.736   0.555   2.845
 7697SOL     OW24987   2.134   5.548   0.374
 7697SOL    HW124988   2.191   5.514   0.443
 7697SOL    HW224989   2.085   5.472   0.343
 7698SOL     OW24990   2.686   6.865  13.233
 7698SOL    HW124991   2.773   6.828  13.249
 7698SOL    HW224992   2.627   6.810  13.285
 7699SOL     OW24993   4.377   1.626  10.380
 7699SOL    HW124994   4.379   1.531  10.393
 7699SOL    HW224995   4.286   1.650  10.401
 7700SOL     OW24996   4.410   9.284  13.628
 7700SOL    HW124997   4.418   9.290  13.533
 7700SOL    HW224998   4.483   9.336  13.662
 7701SOL     OW24999   5.602   2.945   8.164
 7701SOL    HW125000   5.576   3.034   8.139
 7701SOL    HW225001   5.685   2.956   8.210
 7702SOL     OW25002  11.228   3.125   3.038
 7702SOL    HW125003  11.150   3.145   2.986
 7702SOL    HW225004  11.289   3.195   3.016
 7703SOL     OW25005  12.188   4.676  11.254
 7703SOL    HW125006  12.148   4.759  11.281
 7703SOL    HW225007  12.218   4.636  11.335
 7704SOL     OW25008   6.372   3.372   9.997
 7704SOL    HW125009   6.357   3.464  10.022
 7704SOL    HW225010   6.451   3.375   9.943
 7705SOL     OW25011  11.255   2.975   8.303
 7705SOL    HW125012  11.285   2.888   8.330
 7705SOL    HW225013  11.244   3.023   8.385
 7706SOL     OW25014   6.478  12.302  12.342
 7706SOL    HW125015   6.464  12.265  12.255
 7706SOL    HW225016   6.533  12.238  12.388
 7707SOL     OW25017  11.236  11.607   7.112
 7707SOL    HW125018  11.282  11.688   7.133
 7707SOL    HW225019  11.240  11.555   7.192
 7708SOL     OW25020   5.796  13.167   2.095
 7708SOL    HW125021   5.803  13.261   2.110
 7708SOL    HW225022   5.785  13.130   2.183
 7709SOL     OW25023  11.465   9.418   9.284
 7709SOL    HW125024  11.497   9.328   9.293
 7709SOL    HW225025  11.452   9.429   9.190
 7710SOL     OW25026   6.672   3.138   6.668
 7710SOL    HW125027   6.695   3.110   6.757
 7710SOL    HW225028   6.616   3.215   6.681
 7711SOL     OW25029   4.122   1.519  12.662
 7711SOL    HW125030   4.187   1.460  12.700
 7711SOL    HW225031   4.163   1.606  12.666
 7712SOL     OW25032   8.776   3.933   4.995
 7712SOL    HW125033   8.717   3.918   5.069
 7712SOL    HW225034   8.864   3.934   5.034
 7713SOL     OW25035   6.894  11.848  13.496
 7713SOL    HW125036   6.885  11.781  13.563
 7713SOL    HW225037   6.981  11.833  13.459
 7714SOL     OW25038   9.876   1.523  11.489
 7714SOL    HW125039   9.947   1.459  11.481
 7714SOL    HW225040   9.918   1.601  11.526
 7715SOL     OW25041   5.463   9.578   4.846
 7715SOL    HW125042   5.399   9.529   4.796
 7715SOL    HW225043   5.411   9.627   4.910
 7716SOL     OW25044  13.673   2.524   8.109
 7716SOL    HW125045  13.601   2.554   8.164
 7716SOL    HW225046  13.640   2.535   8.019
 7717SOL     OW25047  11.487   1.269   2.196
 7717SOL    HW125048  11.444   1.350   2.170
 7717SOL    HW225049  11.440   1.241   2.274
 7718SOL     OW25050  10.612   4.236  10.607
 7718SOL    HW125051  10.689   4.195  10.645
 7718SOL    HW225052  10.617   4.327  10.634
 7719SOL     OW25053   3.038  13.237   9.727
 7719SOL    HW125054   3.133  13.239   9.721
 7719SOL    HW225055   3.015  13.145   9.713
 7720SOL     OW25056   8.917  13.006   7.360
 7720SOL    HW125057   8.920  13.038   7.450
 7720SOL    HW225058   8.835  12.956   7.355
 7721SOL     OW25059   4.722   5.120   4.601
 7721SOL    HW125060   4.749   5.136   4.511
 7721SOL    HW225061   4.663   5.192   4.622
 7722SOL     OW25062  10.234   4.219   8.660
 7722SOL    HW125063  10.198   4.250   8.743
 7722SOL    HW225064  10.190   4.271   8.593
 7723SOL     OW25065  12.685   9.929   7.401
 7723SOL    HW125066  12.744   9.983   7.454
 7723SOL    HW225067  12.616   9.903   7.461
 7724SOL     OW25068   5.313   0.433  13.472
 7724SOL    HW125069   5.318   0.444  13.567
 7724SOL    HW225070   5.246   0.367  13.459
 7725SOL     OW25071  14.115   6.545  14.442
 7725SOL    HW125072  14.141   6.616  14.385
 7725SOL    HW225073  14.137   6.465  14.393
 7726SOL     OW25074  14.435   6.191   9.314
 7726SOL    HW125075  14.416   6.212   9.223
 7726SOL    HW225076  14.435   6.276   9.359
 7727SOL     OW25077   6.904   5.713   7.663
 7727SOL    HW125078   6.903   5.682   7.753
 7727SOL    HW225079   6.996   5.714   7.639
 7728SOL     OW25080   3.304  13.662   4.810
 7728SOL    HW125081   3.273  13.578   4.776
 7728SOL    HW225082   3.360  13.640   4.884
 7729SOL     OW25083   4.757   9.035   7.308
 7729SOL    HW125084   4.850   9.052   7.316
 7729SOL    HW225085   4.734   9.067   7.221
 7730SOL     OW25086  13.841  10.601   5.348
 7730SOL    HW125087  13.926  10.571   5.315
 7730SOL    HW225088  13.827  10.549   5.428
 7731SOL     OW25089  11.492   8.903   8.893
 7731SOL    HW125090  11.540   8.917   8.975
 7731SOL    HW225091  11.556   8.866   8.833
 7732SOL     OW25092   0.199  12.272  12.524
 7732SOL    HW125093   0.232  12.233  12.442
 7732SOL    HW225094   0.234  12.215  12.593
 7733SOL     OW25095   2.504   2.976   3.210
 7733SOL    HW125096   2.434   2.915   3.187
 7733SOL    HW225097   2.478   3.010   3.296
 7734SOL     OW25098   5.129  11.851   5.606
 7734SOL    HW125099   5.115  11.916   5.676
 7734SOL    HW225100   5.219  11.823   5.617
 7735SOL     OW25101   5.213   4.952   4.777
 7735SOL    HW125102   5.298   4.948   4.821
 7735SOL    HW225103   5.234   4.968   4.685
 7736SOL     OW25104   0.300  10.792   3.128
 7736SOL    HW125105   0.357  10.721   3.099
 7736SOL    HW225106   0.218  10.749   3.153
 7737SOL     OW25107   0.511  10.469  11.580
 7737SOL    HW125108   0.451  10.446  11.651
 7737SOL    HW225109   0.571  10.532  11.619
 7738SOL     OW25110   8.292   2.033   4.602
 7738SOL    HW125111   8.233   2.039   4.527
 7738SOL    HW225112   8.276   1.946   4.637
 7739SOL     OW25113  13.085   5.315   8.473
 7739SOL    HW125114  13.173   5.340   8.443
 7739SOL    HW225115  13.076   5.357   8.558
 7740SOL     OW25116   3.780   2.422   5.924
 7740SOL    HW125117   3.688   2.401   5.910
 7740SOL    HW225118   3.796   2.499   5.870
 7741SOL     OW25119   5.803   9.746   7.087
 7741SOL    HW125120   5.741   9.762   7.158
 7741SOL    HW225121   5.883   9.790   7.114
 7742SOL     OW25122  11.027  11.708   0.375
 7742SOL    HW125123  10.971  11.643   0.416
 7742SOL    HW225124  11.116  11.677   0.392
 7743SOL     OW25125   0.999   4.148   0.557
 7743SOL    HW125126   0.984   4.202   0.635
 7743SOL    HW225127   0.948   4.190   0.488
 7744SOL     OW25128  12.461   5.845   0.251
 7744SOL    HW125129  12.385   5.898   0.225
 7744SOL    HW225130  12.450   5.833   0.345
 7745SOL     OW25131  10.876   1.512   0.258
 7745SOL    HW125132  10.845   1.588   0.208
 7745SOL    HW225133  10.970   1.526   0.269
 7746SOL     OW25134   9.887   1.535   5.079
 7746SOL    HW125135   9.877   1.575   4.993
 7746SOL    HW225136   9.982   1.526   5.089
 7747SOL     OW25137  11.213   7.141   6.339
 7747SOL    HW125138  11.180   7.051   6.332
 7747SOL    HW225139  11.134   7.195   6.342
 7748SOL     OW25140   4.472   2.459   1.182
 7748SOL    HW125141   4.401   2.415   1.229
 7748SOL    HW225142   4.535   2.482   1.251
 7749SOL     OW25143  14.580   2.923   0.201
 7749SOL    HW125144  14.594   2.869   0.279
 7749SOL    HW225145  14.550   3.007   0.235
 7750SOL     OW25146   1.969   2.794   3.330
 7750SOL    HW125147   2.058   2.761   3.319
 7750SOL    HW225148   1.913   2.719   3.307
 7751SOL     OW25149  12.137  10.440   8.285
 7751SOL    HW125150  12.063  10.465   8.230
 7751SOL    HW225151  12.172  10.362   8.244
 7752SOL     OW25152   6.727   9.195  10.718
 7752SOL    HW125153   6.665   9.222  10.650
 7752SOL    HW225154   6.687   9.118  10.758
 7753SOL     OW25155   4.032  10.073   8.263
 7753SOL    HW125156   4.096  10.045   8.329
 7753SOL    HW225157   4.071  10.152   8.225
 7754SOL     OW25158   9.392  10.358  12.405
 7754SOL    HW125159   9.358  10.330  12.320
 7754SOL    HW225160   9.374  10.452  12.409
 7755SOL     OW25161   8.482  13.760   3.174
 7755SOL    HW125162   8.391  13.787   3.161
 7755SOL    HW225163   8.476  13.683   3.230
 7756SOL     OW25164  14.763   5.495  12.892
 7756SOL    HW125165  14.730   5.570  12.843
 7756SOL    HW225166  14.688   5.436  12.900
 7757SOL     OW25167   7.651   6.228   4.831
 7757SOL    HW125168   7.575   6.281   4.854
 7757SOL    HW225169   7.615   6.143   4.806
 7758SOL     OW25170   2.984  13.617   4.060
 7758SOL    HW125171   3.042  13.541   4.049
 7758SOL    HW225172   3.021  13.684   4.003
 7759SOL     OW25173   2.371  13.157   3.463
 7759SOL    HW125174   2.446  13.210   3.490
 7759SOL    HW225175   2.305  13.172   3.531
 7760SOL     OW25176  11.842   9.703  10.166
 7760SOL    HW125177  11.851   9.657  10.249
 7760SOL    HW225178  11.916   9.672  10.113
 7761SOL     OW25179   7.549   8.208   0.004
 7761SOL    HW125180   7.455   8.214   0.018
 7761SOL    HW225181   7.564   8.116  14.852
 7762SOL     OW25182   7.432  13.541   9.045
 7762SOL    HW125183   7.437  13.447   9.028
 7762SOL    HW225184   7.349  13.553   9.091
 7763SOL     OW25185   2.065  11.850   9.461
 7763SOL    HW125186   2.009  11.893   9.525
 7763SOL    HW225187   2.140  11.909   9.451
 7764SOL     OW25188   7.108   2.094   0.666
 7764SOL    HW125189   7.033   2.131   0.714
 7764SOL    HW225190   7.183   2.109   0.724
 7765SOL     OW25191   3.029  14.461   6.622
 7765SOL    HW125192   3.058  14.456   6.713
 7765SOL    HW225193   2.950  14.515   6.625
 7766SOL     OW25194   9.554   5.261   6.585
 7766SOL    HW125195   9.562   5.282   6.678
 7766SOL    HW225196   9.611   5.325   6.541
 7767SOL     OW25197   9.392   1.900  13.034
 7767SOL    HW125198   9.406   1.833  12.967
 7767SOL    HW225199   9.460   1.965  13.018
 7768SOL     OW25200   4.579   5.548   8.610
 7768SOL    HW125201   4.597   5.454   8.610
 7768SOL    HW225202   4.582   5.573   8.517
 7769SOL     OW25203   8.686   0.307  11.479
 7769SOL    HW125204   8.772   0.264  11.481
 7769SOL    HW225205   8.631   0.250  11.426
 7770SOL     OW25206   6.547   1.285   1.182
 7770SOL    HW125207   6.569   1.334   1.261
 7770SOL    HW225208   6.623   1.296   1.125
 7771SOL     OW25209   0.620   7.407   0.808
 7771SOL    HW125210   0.586   7.483   0.856
 7771SOL    HW225211   0.713   7.426   0.796
 7772SOL     OW25212   4.087  11.690  11.557
 7772SOL    HW125213   4.168  11.736  11.534
 7772SOL    HW225214   4.112  11.633  11.630
 7773SOL     OW25215   0.087   1.293  14.084
 7773SOL    HW125216   0.155   1.257  14.141
 7773SOL    HW225217   0.103   1.388  14.086
 7774SOL     OW25218   7.925   5.517   1.819
 7774SOL    HW125219   7.975   5.573   1.878
 7774SOL    HW225220   7.992   5.471   1.768
 7775SOL     OW25221   2.044   7.294   7.695
 7775SOL    HW125222   2.102   7.281   7.620
 7775SOL    HW225223   2.070   7.226   7.757
 7776SOL     OW25224   8.540  13.047   8.537
 7776SOL    HW125225   8.486  13.125   8.545
 7776SOL    HW225226   8.539  13.026   8.444
 7777SOL     OW25227   4.701   0.874   0.226
 7777SOL    HW125228   4.750   0.795   0.250
 7777SOL    HW225229   4.724   0.890   0.134
 7778SOL     OW25230   1.277   8.759   0.826
 7778SOL    HW125231   1.236   8.820   0.887
 7778SOL    HW225232   1.318   8.815   0.760
 7779SOL     OW25233  12.343  12.266   3.231
 7779SOL    HW125234  12.333  12.225   3.317
 7779SOL    HW225235  12.289  12.213   3.173
 7780SOL     OW25236   5.815  14.487  13.879
 7780SOL    HW125237   5.787  14.395  13.882
 7780SOL    HW225238   5.759  14.527  13.812
 7781SOL     OW25239   5.666  12.824  12.013
 7781SOL    HW125240   5.616  12.906  12.010
 7781SOL    HW225241   5.628  12.770  11.944
 7782SOL     OW25242   9.977   7.814   7.902
 7782SOL    HW125243  10.015   7.747   7.846
 7782SOL    HW225244   9.992   7.896   7.854
 7783SOL     OW25245   9.524  11.741   6.362
 7783SOL    HW125246   9.598  11.745   6.422
 7783SOL    HW225247   9.541  11.664   6.308
 7784SOL     OW25248   2.213   7.240   5.267
 7784SOL    HW125249   2.264   7.282   5.336
 7784SOL    HW225250   2.231   7.146   5.278
 7785SOL     OW25251   3.448   0.716   2.717
 7785SOL    HW125252   3.505   0.667   2.657
 7785SOL    HW225253   3.389   0.650   2.753
 7786SOL     OW25254   0.449   5.473   8.932
 7786SOL    HW125255   0.450   5.391   8.982
 7786SOL    HW225256   0.522   5.465   8.871
 7787SOL     OW25257   9.628  14.281   0.675
 7787SOL    HW125258   9.638  14.189   0.652
 7787SOL    HW225259   9.715  14.307   0.706
 7788SOL     OW25260   4.914   2.874   7.736
 7788SOL    HW125261   4.901   2.965   7.711
 7788SOL    HW225262   5.006   2.868   7.762
 7789SOL     OW25263  12.766   3.498   2.916
 7789SOL    HW125264  12.754   3.543   2.832
 7789SOL    HW225265  12.693   3.529   2.970
 7790SOL     OW25266  10.195  12.737   9.462
 7790SOL    HW125267  10.247  12.787   9.399
 7790SOL    HW225268  10.105  12.753   9.436
 7791SOL     OW25269  10.745   6.811   1.684
 7791SOL    HW125270  10.700   6.821   1.600
 7791SOL    HW225271  10.725   6.892   1.731
 7792SOL     OW25272   8.321   0.827   5.330
 7792SOL    HW125273   8.415   0.828   5.311
 7792SOL    HW225274   8.292   0.916   5.311
 7793SOL     OW25275   5.231  10.197   4.663
 7793SOL    HW125276   5.298  10.139   4.627
 7793SOL    HW225277   5.169  10.140   4.708
 7794SOL     OW25278  10.154   7.377   8.130
 7794SOL    HW125279  10.147   7.282   8.117
 7794SOL    HW225280  10.232   7.387   8.185
 7795SOL     OW25281   4.604   5.096   3.894
 7795SOL    HW125282   4.588   5.010   3.855
 7795SOL    HW225283   4.655   5.078   3.973
 7796SOL     OW25284  10.048  12.059   9.712
 7796SOL    HW125285  10.120  12.087   9.768
 7796SOL    HW225286   9.981  12.127   9.722
 7797SOL     OW25287   7.522   0.552  11.427
 7797SOL    HW125288   7.577   0.606  11.370
 7797SOL    HW225289   7.436   0.594  11.425
 7798SOL     OW25290   5.937   3.966   1.298
 7798SOL    HW125291   6.014   3.956   1.353
 7798SOL    HW225292   5.934   3.886   1.246
 7799SOL     OW25293  11.205  12.483  14.344
 7799SOL    HW125294  11.295  12.516  14.348
 7799SOL    HW225295  11.183  12.463  14.434
 7800SOL     OW25296   5.647  11.150   2.320
 7800SOL    HW125297   5.606  11.070   2.354
 7800SOL    HW225298   5.585  11.220   2.342
 7801SOL     OW25299   1.070  12.823   6.982
 7801SOL    HW125300   1.058  12.842   6.889
 7801SOL    HW225301   1.015  12.885   7.028
 7802SOL     OW25302   1.292   3.105   5.411
 7802SOL    HW125303   1.277   3.046   5.338
 7802SOL    HW225304   1.387   3.114   5.415
 7803SOL     OW25305   4.876   0.226   2.305
 7803SOL    HW125306   4.916   0.299   2.352
 7803SOL    HW225307   4.831   0.175   2.373
 7804SOL     OW25308   9.292   4.713  13.501
 7804SOL    HW125309   9.295   4.809  13.498
 7804SOL    HW225310   9.305   4.692  13.594
 7805SOL     OW25311  12.259  13.788  13.568
 7805SOL    HW125312  12.315  13.852  13.614
 7805SOL    HW225313  12.187  13.771  13.629
 7806SOL     OW25314  14.633   4.084   3.738
 7806SOL    HW125315  14.561   4.076   3.675
 7806SOL    HW225316  14.600   4.142   3.806
 7807SOL     OW25317  12.138   2.666   0.599
 7807SOL    HW125318  12.233   2.673   0.608
 7807SOL    HW225319  12.120   2.693   0.509
 7808SOL     OW25320  10.879  11.023   5.838
 7808SOL    HW125321  10.801  10.969   5.852
 7808SOL    HW225322  10.880  11.084   5.912
 7809SOL     OW25323   4.912  12.248  12.884
 7809SOL    HW125324   4.954  12.303  12.950
 7809SOL    HW225325   4.908  12.302  12.806
 7810SOL     OW25326   4.652  13.504   3.811
 7810SOL    HW125327   4.726  13.445   3.818
 7810SOL    HW225328   4.640  13.539   3.900
 7811SOL     OW25329   5.402   5.120   6.913
 7811SOL    HW125330   5.383   5.126   6.819
 7811SOL    HW225331   5.390   5.210   6.945
 7812SOL     OW25332   3.892   2.833   1.291
 7812SOL    HW125333   3.841   2.802   1.367
 7812SOL    HW225334   3.910   2.753   1.241
 7813SOL     OW25335   6.057   6.764  14.817
 7813SOL    HW125336   6.095   6.821   0.015
 7813SOL    HW225337   6.022   6.690  14.865
 7814SOL     OW25338   3.918  14.329   6.655
 7814SOL    HW125339   3.846  14.265   6.657
 7814SOL    HW225340   3.962  14.318   6.738
 7815SOL     OW25341   5.960  14.263   3.293
 7815SOL    HW125342   5.884  14.215   3.325
 7815SOL    HW225343   5.924  14.332   3.238
 7816SOL     OW25344   3.353   2.512   1.147
 7816SOL    HW125345   3.363   2.421   1.174
 7816SOL    HW225346   3.296   2.508   1.071
 7817SOL     OW25347   3.126  10.808  10.516
 7817SOL    HW125348   3.069  10.866  10.567
 7817SOL    HW225349   3.066  10.745  10.477
 7818SOL     OW25350   7.068   1.344   0.971
 7818SOL    HW125351   7.097   1.419   0.919
 7818SOL    HW225352   7.133   1.276   0.954
 7819SOL     OW25353   2.243   8.222   4.039
 7819SOL    HW125354   2.243   8.247   3.946
 7819SOL    HW225355   2.334   8.200   4.057
 7820SOL     OW25356   8.191  13.249   2.234
 7820SOL    HW125357   8.133  13.321   2.211
 7820SOL    HW225358   8.192  13.249   2.330
 7821SOL     OW25359   2.464   8.845   9.174
 7821SOL    HW125360   2.380   8.890   9.182
 7821SOL    HW225361   2.527   8.914   9.153
 7822SOL     OW25362   6.304   9.109   1.064
 7822SOL    HW125363   6.297   9.076   1.154
 7822SOL    HW225364   6.344   9.036   1.015
 7823SOL     OW25365   1.555   5.538   6.802
 7823SOL    HW125366   1.627   5.577   6.752
 7823SOL    HW225367   1.530   5.461   6.752
 7824SOL     OW25368  10.901   9.194   7.946
 7824SOL    HW125369  10.982   9.233   7.914
 7824SOL    HW225370  10.862   9.261   8.001
 7825SOL     OW25371   2.329   7.346   2.606
 7825SOL    HW125372   2.325   7.372   2.513
 7825SOL    HW225373   2.387   7.270   2.607
 7826SOL     OW25374   5.730   5.542   8.898
 7826SOL    HW125375   5.785   5.560   8.822
 7826SOL    HW225376   5.723   5.447   8.902
 7827SOL     OW25377  12.093   2.370   8.071
 7827SOL    HW125378  12.175   2.348   8.116
 7827SOL    HW225379  12.094   2.317   7.992
 7828SOL     OW25380  14.209   2.781  11.926
 7828SOL    HW125381  14.300   2.798  11.951
 7828SOL    HW225382  14.164   2.763  12.008
 7829SOL     OW25383   6.607   6.087   9.930
 7829SOL    HW125384   6.647   6.021   9.986
 7829SOL    HW225385   6.663   6.164   9.939
 7830SOL     OW25386   6.868  14.542   4.590
 7830SOL    HW125387   6.776  14.555   4.613
 7830SOL    HW225388   6.878  14.586   4.505
 7831SOL     OW25389   6.341  11.618  12.238
 7831SOL    HW125390   6.393  11.604  12.158
 7831SOL    HW225391   6.345  11.533  12.283
 7832SOL     OW25392  10.485  12.301  11.692
 7832SOL    HW125393  10.434  12.237  11.740
 7832SOL    HW225394  10.575  12.269  11.697
 7833SOL     OW25395   8.080  12.240   3.825
 7833SOL    HW125396   8.042  12.152   3.831
 7833SOL    HW225397   8.005  12.299   3.827
 7834SOL     OW25398   8.209   3.293   0.538
 7834SOL    HW125399   8.145   3.288   0.467
 7834SOL    HW225400   8.289   3.324   0.496
 7835SOL     OW25401   2.955  14.642   8.161
 7835SOL    HW125402   3.001  14.691   8.230
 7835SOL    HW225403   3.014  14.570   8.140
 7836SOL     OW25404  13.680   7.794   6.147
 7836SOL    HW125405  13.722   7.749   6.220
 7836SOL    HW225406  13.751   7.844   6.105
 7837SOL     OW25407  10.362  14.206   0.626
 7837SOL    HW125408  10.447  14.172   0.654
 7837SOL    HW225409  10.337  14.268   0.695
 7838SOL     OW25410  14.626   6.762   8.691
 7838SOL    HW125411  14.594   6.738   8.778
 7838SOL    HW225412  14.588   6.697   8.632
 7839SOL     OW25413   7.003  12.339   4.644
 7839SOL    HW125414   6.965  12.391   4.716
 7839SOL    HW225415   6.931  12.329   4.582
 7840SOL     OW25416  13.288  11.397   1.442
 7840SOL    HW125417  13.323  11.355   1.520
 7840SOL    HW225418  13.206  11.350   1.424
 7841SOL     OW25419   0.978   0.462  12.625
 7841SOL    HW125420   0.978   0.489  12.533
 7841SOL    HW225421   0.925   0.382  12.626
 7842SOL     OW25422   5.509   1.031   0.505
 7842SOL    HW125423   5.521   1.000   0.415
 7842SOL    HW225424   5.499   0.951   0.557
 7843SOL     OW25425  14.645   4.657  12.753
 7843SOL    HW125426  14.698   4.589  12.796
 7843SOL    HW225427  14.709   4.723  12.727
 7844SOL     OW25428   8.112   2.906  13.304
 7844SOL    HW125429   8.076   2.849  13.372
 7844SOL    HW225430   8.207   2.897  13.314
 7845SOL     OW25431  11.439   4.227  13.786
 7845SOL    HW125432  11.427   4.285  13.711
 7845SOL    HW225433  11.368   4.248  13.845
 7846SOL     OW25434  10.122   9.670   3.814
 7846SOL    HW125435  10.064   9.657   3.739
 7846SOL    HW225436  10.210   9.650   3.781
 7847SOL     OW25437   6.170  11.018   6.403
 7847SOL    HW125438   6.265  11.023   6.414
 7847SOL    HW225439   6.135  11.037   6.491
 7848SOL     OW25440  12.010   2.179   0.579
 7848SOL    HW125441  12.007   2.162   0.485
 7848SOL    HW225442  11.945   2.119   0.616
 7849SOL     OW25443   6.966  10.579  11.379
 7849SOL    HW125444   6.954  10.493  11.338
 7849SOL    HW225445   6.888  10.590  11.433
 7850SOL     OW25446  12.239   0.263  11.369
 7850SOL    HW125447  12.299   0.299  11.304
 7850SOL    HW225448  12.252   0.318  11.446
 7851SOL     OW25449   2.232  14.106   5.119
 7851SOL    HW125450   2.292  14.135   5.188
 7851SOL    HW225451   2.194  14.025   5.153
 7852SOL     OW25452  14.567   9.544  14.425
 7852SOL    HW125453  14.610   9.543  14.510
 7852SOL    HW225454  14.546   9.452  14.408
 7853SOL     OW25455   9.174   3.065   7.913
 7853SOL    HW125456   9.219   2.996   7.866
 7853SOL    HW225457   9.146   3.024   7.995
 7854SOL     OW25458  10.676   7.024  12.556
 7854SOL    HW125459  10.713   7.090  12.496
 7854SOL    HW225460  10.632   6.962  12.498
 7855SOL     OW25461  12.602   0.051   2.641
 7855SOL    HW125462  12.666   0.018   2.704
 7855SOL    HW225463  12.535  14.852   2.638
 7856SOL     OW25464   2.139   0.193   2.701
 7856SOL    HW125465   2.228   0.214   2.731
 7856SOL    HW225466   2.118   0.111   2.745
 7857SOL     OW25467  10.472   4.306  14.268
 7857SOL    HW125468  10.566   4.323  14.257
 7857SOL    HW225469  10.430   4.371  14.212
 7858SOL     OW25470   8.428   8.201  14.332
 7858SOL    HW125471   8.501   8.201  14.270
 7858SOL    HW225472   8.466   8.227  14.416
 7859SOL     OW25473   7.478  14.376   1.520
 7859SOL    HW125474   7.470  14.433   1.443
 7859SOL    HW225475   7.417  14.304   1.502
 7860SOL     OW25476  10.365  10.548   2.119
 7860SOL    HW125477  10.357  10.518   2.210
 7860SOL    HW225478  10.276  10.575   2.096
 7861SOL     OW25479   7.870   3.215   8.070
 7861SOL    HW125480   7.790   3.262   8.096
 7861SOL    HW225481   7.839   3.145   8.013
 7862SOL     OW25482   2.146   4.058   5.420
 7862SOL    HW125483   2.122   4.138   5.467
 7862SOL    HW225484   2.219   4.083   5.364
 7863SOL     OW25485   1.355   5.434   7.036
 7863SOL    HW125486   1.445   5.463   7.029
 7863SOL    HW225487   1.360   5.349   7.079
 7864SOL     OW25488   2.720   0.932   1.066
 7864SOL    HW125489   2.663   0.862   1.034
 7864SOL    HW225490   2.716   0.925   1.162
 7865SOL     OW25491  11.963   0.550   1.375
 7865SOL    HW125492  11.914   0.631   1.376
 7865SOL    HW225493  11.902   0.485   1.341
 7866SOL     OW25494   5.839   1.654   9.600
 7866SOL    HW125495   5.753   1.677   9.634
 7866SOL    HW225496   5.882   1.738   9.582
 7867SOL     OW25497   4.977  10.780   2.405
 7867SOL    HW125498   5.003  10.697   2.445
 7867SOL    HW225499   5.034  10.845   2.446
 7868SOL     OW25500   4.674   3.380   4.497
 7868SOL    HW125501   4.611   3.448   4.474
 7868SOL    HW225502   4.624   3.316   4.547
 7869SOL     OW25503  13.745   8.709  11.212
 7869SOL    HW125504  13.786   8.731  11.128
 7869SOL    HW225505  13.710   8.620  11.199
 7870SOL     OW25506   5.316   9.228  13.395
 7870SOL    HW125507   5.352   9.295  13.454
 7870SOL    HW225508   5.292   9.156  13.453
 7871SOL     OW25509  13.088   1.617  13.087
 7871SOL    HW125510  13.158   1.575  13.038
 7871SOL    HW225511  13.010   1.603  13.034
 7872SOL     OW25512   9.350  13.218  13.320
 7872SOL    HW125513   9.323  13.289  13.261
 7872SOL    HW225514   9.392  13.262  13.393
 7873SOL     OW25515  10.700   6.513  10.285
 7873SOL    HW125516  10.692   6.430  10.332
 7873SOL    HW225517  10.657   6.577  10.341
 7874SOL     OW25518  13.954   8.676   2.919
 7874SOL    HW125519  13.869   8.634   2.933
 7874SOL    HW225520  13.974   8.720   3.002
 7875SOL     OW25521   4.559  13.208  14.060
 7875SOL    HW125522   4.614  13.130  14.059
 7875SOL    HW225523   4.490  13.188  14.124
 7876SOL     OW25524   3.415   6.169  13.434
 7876SOL    HW125525   3.353   6.242  13.423
 7876SOL    HW225526   3.368   6.106  13.490
 7877SOL     OW25527   5.304   0.144   1.039
 7877SOL    HW125528   5.226   0.143   1.094
 7877SOL    HW225529   5.270   0.154   0.950
 7878SOL     OW25530   0.266  10.358   4.833
 7878SOL    HW125531   0.252  10.363   4.927
 7878SOL    HW225532   0.289  10.448   4.807
 7879SOL     OW25533   2.818   8.461  11.303
 7879SOL    HW125534   2.726   8.473  11.326
 7879SOL    HW225535   2.831   8.366  11.306
 7880SOL     OW25536  11.737  12.593  13.494
 7880SOL    HW125537  11.744  12.657  13.424
 7880SOL    HW225538  11.643  12.580  13.506
 7881SOL     OW25539   4.427  11.724  13.539
 7881SOL    HW125540   4.397  11.814  13.550
 7881SOL    HW225541   4.376  11.690  13.466
 7882SOL     OW25542  10.275  14.272   1.674
 7882SOL    HW125543  10.289  14.366   1.667
 7882SOL    HW225544  10.330  14.244   1.747
 7883SOL     OW25545   0.669  10.448  14.468
 7883SOL    HW125546   0.753  10.475  14.431
 7883SOL    HW225547   0.624  10.404  14.395
 7884SOL     OW25548   0.535   8.739   2.287
 7884SOL    HW125549   0.589   8.660   2.286
 7884SOL    HW225550   0.595   8.811   2.268
 7885SOL     OW25551   2.676   4.122   5.161
 7885SOL    HW125552   2.620   4.184   5.115
 7885SOL    HW225553   2.753   4.112   5.105
 7886SOL     OW25554   5.862  13.966  14.458
 7886SOL    HW125555   5.773  13.934  14.475
 7886SOL    HW225556   5.907  13.957  14.542
 7887SOL     OW25557   2.541  12.188   3.092
 7887SOL    HW125558   2.566  12.280   3.099
 7887SOL    HW225559   2.546  12.169   2.999
 7888SOL     OW25560   3.251  11.931   4.831
 7888SOL    HW125561   3.243  12.013   4.879
 7888SOL    HW225562   3.185  11.873   4.871
 7889SOL     OW25563   0.822   6.300   7.911
 7889SOL    HW125564   0.747   6.279   7.856
 7889SOL    HW225565   0.881   6.225   7.901
 7890SOL     OW25566   3.515   2.761   3.129
 7890SOL    HW125567   3.457   2.706   3.077
 7890SOL    HW225568   3.503   2.849   3.095
 7891SOL     OW25569  12.283   3.209   5.665
 7891SOL    HW125570  12.281   3.225   5.570
 7891SOL    HW225571  12.364   3.252   5.695
 7892SOL     OW25572   7.753   9.674   0.220
 7892SOL    HW125573   7.823   9.669   0.285
 7892SOL    HW225574   7.791   9.724   0.148
 7893SOL     OW25575  14.070   9.492  13.058
 7893SOL    HW125576  13.995   9.440  13.029
 7893SOL    HW225577  14.123   9.431  13.109
 7894SOL     OW25578   3.700  13.630  12.518
 7894SOL    HW125579   3.741  13.609  12.603
 7894SOL    HW225580   3.766  13.682  12.472
 7895SOL     OW25581  12.819   4.392   9.871
 7895SOL    HW125582  12.862   4.401   9.957
 7895SOL    HW225583  12.877   4.438   9.811
 7896SOL     OW25584   1.588   5.838  10.673
 7896SOL    HW125585   1.527   5.860  10.602
 7896SOL    HW225586   1.672   5.828  10.629
 7897SOL     OW25587   3.895   1.381  11.295
 7897SOL    HW125588   3.812   1.367  11.339
 7897SOL    HW225589   3.882   1.347  11.206
 7898SOL     OW25590   8.995   4.772   5.599
 7898SOL    HW125591   9.014   4.687   5.559
 7898SOL    HW225592   9.013   4.758   5.692
 7899SOL     OW25593   7.226   6.492   9.282
 7899SOL    HW125594   7.142   6.502   9.327
 7899SOL    HW225595   7.260   6.581   9.274
 7900SOL     OW25596  10.080  14.715   0.574
 7900SOL    HW125597  10.004  14.747   0.624
 7900SOL    HW225598  10.153  14.721   0.635
 7901SOL     OW25599   2.525   0.170   3.879
 7901SOL    HW125600   2.558   0.189   3.966
 7901SOL    HW225601   2.589   0.110   3.841
 7902SOL     OW25602  14.190   7.567   8.942
 7902SOL    HW125603  14.192   7.600   9.032
 7902SOL    HW225604  14.250   7.493   8.942
 7903SOL     OW25605  13.985   4.646   0.707
 7903SOL    HW125606  14.021   4.559   0.722
 7903SOL    HW225607  13.969   4.650   0.613
 7904SOL     OW25608   1.357   2.070  11.653
 7904SOL    HW125609   1.371   2.162  11.631
 7904SOL    HW225610   1.262   2.058  11.644
 7905SOL     OW25611  14.789   1.782  12.107
 7905SOL    HW125612  14.769   1.739  12.024
 7905SOL    HW225613  14.863   1.733  12.143
 7906SOL     OW25614   5.063   5.373  12.460
 7906SOL    HW125615   4.970   5.382  12.481
 7906SOL    HW225616   5.073   5.417  12.376
 7907SOL     OW25617   3.610   0.008   8.129
 7907SOL    HW125618   3.631  14.853   8.039
 7907SOL    HW225619   3.518  14.855   8.140
 7908SOL     OW25620   2.844   6.107   0.982
 7908SOL    HW125621   2.889   6.121   1.065
 7908SOL    HW225622   2.858   6.015   0.962
 7909SOL     OW25623  11.736  14.807   1.898
 7909SOL    HW125624  11.793  14.739   1.861
 7909SOL    HW225625  11.656  14.761   1.924
 7910SOL     OW25626   8.294   8.824   5.802
 7910SOL    HW125627   8.347   8.902   5.816
 7910SOL    HW225628   8.355   8.751   5.812
 7911SOL     OW25629   4.405  10.279  11.783
 7911SOL    HW125630   4.416  10.210  11.848
 7911SOL    HW225631   4.357  10.348  11.828
 7912SOL     OW25632   2.616   3.975  10.106
 7912SOL    HW125633   2.710   3.992  10.103
 7912SOL    HW225634   2.606   3.885  10.073
 7913SOL     OW25635   5.434   9.519   0.697
 7913SOL    HW125636   5.344   9.544   0.675
 7913SOL    HW225637   5.472   9.599   0.733
 7914SOL     OW25638   7.329  14.632  12.985
 7914SOL    HW125639   7.328  14.536  12.992
 7914SOL    HW225640   7.420  14.656  13.002
 7915SOL     OW25641   4.010  13.417   6.956
 7915SOL    HW125642   3.932  13.471   6.947
 7915SOL    HW225643   4.071  13.453   6.892
 7916SOL     OW25644   8.925   7.710   5.114
 7916SOL    HW125645   8.983   7.667   5.177
 7916SOL    HW225646   8.851   7.650   5.104
 7917SOL     OW25647   1.589  11.778  11.620
 7917SOL    HW125648   1.551  11.864  11.604
 7917SOL    HW225649   1.590  11.736  11.533
 7918SOL     OW25650  12.111  14.244   2.379
 7918SOL    HW125651  12.169  14.176   2.412
 7918SOL    HW225652  12.169  14.320   2.365
 7919SOL     OW25653   3.353   0.974  10.895
 7919SOL    HW125654   3.411   1.044  10.926
 7919SOL    HW225655   3.332   0.924  10.974
 7920SOL     OW25656   7.970   0.607   6.239
 7920SOL    HW125657   8.028   0.620   6.164
 7920SOL    HW225658   8.020   0.550   6.298
 7921SOL     OW25659  14.609  12.680  12.974
 7921SOL    HW125660  14.644  12.682  12.885
 7921SOL    HW225661  14.677  12.724  13.026
 7922SOL     OW25662   4.416   9.059  12.622
 7922SOL    HW125663   4.498   9.107  12.626
 7922SOL    HW225664   4.413   9.007  12.702
 7923SOL     OW25665   3.306  12.422  13.177
 7923SOL    HW125666   3.212  12.427  13.158
 7923SOL    HW225667   3.343  12.379  13.099
 7924SOL     OW25668   6.357   4.051   0.676
 7924SOL    HW125669   6.336   4.079   0.765
 7924SOL    HW225670   6.384   4.130   0.631
 7925SOL     OW25671   8.017  11.939  12.501
 7925SOL    HW125672   7.928  11.906  12.489
 7925SOL    HW225673   8.006  12.025  12.541
 7926SOL     OW25674   9.789   1.494   9.007
 7926SOL    HW125675   9.820   1.559   9.071
 7926SOL    HW225676   9.839   1.513   8.928
 7927SOL     OW25677   6.020   1.559   0.570
 7927SOL    HW125678   5.975   1.554   0.655
 7927SOL    HW225679   6.099   1.506   0.582
 7928SOL     OW25680  14.638  12.658   8.708
 7928SOL    HW125681  14.611  12.580   8.756
 7928SOL    HW225682  14.652  12.724   8.776
 7929SOL     OW25683   7.796   4.591   8.712
 7929SOL    HW125684   7.744   4.534   8.655
 7929SOL    HW225685   7.866   4.535   8.744
 7930SOL     OW25686  14.376   6.868  13.218
 7930SOL    HW125687  14.382   6.852  13.124
 7930SOL    HW225688  14.459   6.834  13.253
 7931SOL     OW25689  14.356   5.056  14.074
 7931SOL    HW125690  14.451   5.054  14.062
 7931SOL    HW225691  14.334   5.149  14.069
 7932SOL     OW25692   0.394   8.543   6.398
 7932SOL    HW125693   0.339   8.491   6.457
 7932SOL    HW225694   0.399   8.629   6.440
 7933SOL     OW25695   0.091   2.838   1.108
 7933SOL    HW125696   0.073   2.894   1.033
 7933SOL    HW225697   0.090   2.749   1.073
 7934SOL     OW25698   1.516   6.271   3.054
 7934SOL    HW125699   1.573   6.329   3.003
 7934SOL    HW225700   1.535   6.294   3.145
 7935SOL     OW25701   8.164  11.535  13.687
 7935SOL    HW125702   8.172  11.601  13.619
 7935SOL    HW225703   8.255  11.513  13.710
 7936SOL     OW25704   7.889   0.819   2.202
 7936SOL    HW125705   7.936   0.744   2.167
 7936SOL    HW225706   7.806   0.782   2.234
 7937SOL     OW25707   0.377   2.258   3.507
 7937SOL    HW125708   0.423   2.322   3.562
 7937SOL    HW225709   0.395   2.173   3.549
 7938SOL     OW25710  11.153   7.591  12.095
 7938SOL    HW125711  11.189   7.510  12.129
 7938SOL    HW225712  11.220   7.625  12.036
 7939SOL     OW25713   4.941  10.599   3.776
 7939SOL    HW125714   4.876  10.612   3.846
 7939SOL    HW225715   4.907  10.525   3.725
 7940SOL     OW25716   4.361   7.567  13.362
 7940SOL    HW125717   4.284   7.599  13.408
 7940SOL    HW225718   4.336   7.481  13.329
 7941SOL     OW25719  14.585   1.303   0.196
 7941SOL    HW125720  14.645   1.378   0.191
 7941SOL    HW225721  14.532   1.320   0.274
 7942SOL     OW25722   1.098   4.687   3.699
 7942SOL    HW125723   1.095   4.674   3.605
 7942SOL    HW225724   1.008   4.707   3.724
 7943SOL     OW25725   2.789  10.924   9.127
 7943SOL    HW125726   2.849  10.900   9.197
 7943SOL    HW225727   2.845  10.951   9.055
 7944SOL     OW25728   5.829   0.928  14.617
 7944SOL    HW125729   5.843   1.023  14.618
 7944SOL    HW225730   5.882   0.896  14.691
 7945SOL     OW25731   8.834   3.257   2.767
 7945SOL    HW125732   8.805   3.213   2.847
 7945SOL    HW225733   8.765   3.321   2.748
 7946SOL     OW25734   5.949   5.519   7.406
 7946SOL    HW125735   5.954   5.427   7.378
 7946SOL    HW225736   5.975   5.517   7.498
 7947SOL     OW25737   1.296  10.748   7.298
 7947SOL    HW125738   1.211  10.702   7.296
 7947SOL    HW225739   1.349  10.702   7.233
 7948SOL     OW25740  13.206   6.754  14.642
 7948SOL    HW125741  13.271   6.700  14.686
 7948SOL    HW225742  13.243   6.842  14.643
 7949SOL     OW25743  12.434  12.906   2.362
 7949SOL    HW125744  12.500  12.960   2.318
 7949SOL    HW225745  12.485  12.836   2.403
 7950SOL     OW25746   7.551   4.494  14.714
 7950SOL    HW125747   7.466   4.510  14.673
 7950SOL    HW225748   7.536   4.420  14.772
 7951SOL     OW25749  10.693   6.836   3.105
 7951SOL    HW125750  10.712   6.917   3.153
 7951SOL    HW225751  10.669   6.773   3.173
 7952SOL     OW25752   2.687   0.271  11.170
 7952SOL    HW125753   2.758   0.333  11.150
 7952SOL    HW225754   2.717   0.226  11.249
 7953SOL     OW25755  12.255   6.507  14.684
 7953SOL    HW125756  12.167   6.538  14.706
 7953SOL    HW225757  12.279   6.557  14.606
 7954SOL     OW25758  11.938   2.448   9.237
 7954SOL    HW125759  11.859   2.456   9.184
 7954SOL    HW225760  11.966   2.357   9.225
 7955SOL     OW25761  13.405   1.694   3.823
 7955SOL    HW125762  13.461   1.636   3.772
 7955SOL    HW225763  13.354   1.635   3.879
 7956SOL     OW25764   0.249  10.548   8.413
 7956SOL    HW125765   0.279  10.534   8.323
 7956SOL    HW225766   0.206  10.633   8.412
 7957SOL     OW25767   6.571   9.227   3.569
 7957SOL    HW125768   6.612   9.142   3.551
 7957SOL    HW225769   6.641   9.290   3.557
 7958SOL     OW25770   1.473   4.821  12.417
 7958SOL    HW125771   1.536   4.892  12.429
 7958SOL    HW225772   1.481   4.796  12.325
 7959SOL     OW25773   3.335   8.758   2.379
 7959SOL    HW125774   3.313   8.690   2.315
 7959SOL    HW225775   3.256   8.812   2.385
 7960SOL     OW25776   8.782   3.551  12.397
 7960SOL    HW125777   8.780   3.520  12.306
 7960SOL    HW225778   8.818   3.477  12.446
 7961SOL     OW25779   7.205  10.400  11.817
 7961SOL    HW125780   7.224  10.389  11.910
 7961SOL    HW225781   7.133  10.464  11.815
 7962SOL     OW25782   1.982   4.005  11.375
 7962SOL    HW125783   2.056   3.999  11.315
 7962SOL    HW225784   2.021   4.003  11.462
 7963SOL     OW25785   8.432   1.648   6.541
 7963SOL    HW125786   8.452   1.622   6.632
 7963SOL    HW225787   8.493   1.598   6.488
 7964SOL     OW25788   4.829   6.113  11.475
 7964SOL    HW125789   4.849   6.150  11.561
 7964SOL    HW225790   4.743   6.073  11.486
 7965SOL     OW25791   9.422   7.793  10.383
 7965SOL    HW125792   9.460   7.748  10.458
 7965SOL    HW225793   9.330   7.807  10.408
 7966SOL     OW25794  14.364   1.476   5.960
 7966SOL    HW125795  14.456   1.454   5.975
 7966SOL    HW225796  14.366   1.540   5.889
 7967SOL     OW25797  14.809   2.013   9.182
 7967SOL    HW125798  14.821   1.944   9.247
 7967SOL    HW225799  14.849   2.090   9.221
 7968SOL     OW25800  12.314   5.324  10.163
 7968SOL    HW125801  12.374   5.254  10.135
 7968SOL    HW225802  12.328   5.394  10.100
 7969SOL     OW25803   7.788   2.359  11.559
 7969SOL    HW125804   7.727   2.396  11.622
 7969SOL    HW225805   7.746   2.279  11.528
 7970SOL     OW25806   4.416   6.335   9.913
 7970SOL    HW125807   4.455   6.387   9.843
 7970SOL    HW225808   4.324   6.363   9.916
 7971SOL     OW25809  14.347   1.179  14.130
 7971SOL    HW125810  14.401   1.168  14.052
 7971SOL    HW225811  14.387   1.122  14.196
 7972SOL     OW25812  14.693   0.748  14.333
 7972SOL    HW125813  14.777   0.779  14.300
 7972SOL    HW225814  14.711   0.719  14.422
 7973SOL     OW25815   6.914   0.776  10.015
 7973SOL    HW125816   7.001   0.739   9.997
 7973SOL    HW225817   6.903   0.843   9.947
 7974SOL     OW25818   0.029   1.525  11.426
 7974SOL    HW125819  14.828   1.582  11.457
 7974SOL    HW225820   0.025   1.449  11.484
 7975SOL     OW25821  12.119  12.233  11.392
 7975SOL    HW125822  12.187  12.187  11.342
 7975SOL    HW225823  12.138  12.326  11.377
 7976SOL     OW25824  10.514  14.774  10.488
 7976SOL    HW125825  10.439  14.782  10.429
 7976SOL    HW225826  10.548  14.863  10.497
 7977SOL     OW25827  14.234   6.967   2.252
 7977SOL    HW125828  14.313   6.998   2.296
 7977SOL    HW225829  14.166   6.968   2.320
 7978SOL     OW25830  11.505   5.291   0.233
 7978SOL    HW125831  11.562   5.350   0.283
 7978SOL    HW225832  11.447   5.252   0.298
 7979SOL     OW25833   5.121  14.846   2.889
 7979SOL    HW125834   5.190   0.026   2.933
 7979SOL    HW225835   5.082  14.792   2.957
 7980SOL     OW25836  13.178   9.204  13.698
 7980SOL    HW125837  13.163   9.162  13.614
 7980SOL    HW225838  13.270   9.231  13.695
 7981SOL     OW25839   3.779   8.094   5.359
 7981SOL    HW125840   3.743   8.066   5.443
 7981SOL    HW225841   3.852   8.152   5.383
 7982SOL     OW25842   3.667  12.611   4.772
 7982SOL    HW125843   3.654  12.704   4.786
 7982SOL    HW225844   3.579  12.577   4.754
 7983SOL     OW25845   7.524  10.023   4.458
 7983SOL    HW125846   7.608   9.985   4.436
 7983SOL    HW225847   7.459   9.962   4.423
 7984SOL     OW25848   3.402  11.004  13.192
 7984SOL    HW125849   3.348  10.939  13.147
 7984SOL    HW225850   3.437  10.957  13.268
 7985SOL     OW25851   8.980   0.657  14.013
 7985SOL    HW125852   9.031   0.668  14.093
 7985SOL    HW225853   9.045   0.637  13.946
 7986SOL     OW25854   9.318   7.765   7.143
 7986SOL    HW125855   9.285   7.688   7.096
 7986SOL    HW225856   9.300   7.746   7.235
 7987SOL     OW25857  11.745   8.202   6.595
 7987SOL    HW125858  11.714   8.279   6.643
 7987SOL    HW225859  11.778   8.236   6.513
 7988SOL     OW25860   4.225   9.579  14.627
 7988SOL    HW125861   4.282   9.516  14.671
 7988SOL    HW225862   4.232   9.659  14.679
 7989SOL     OW25863  11.435  11.735   6.028
 7989SOL    HW125864  11.417  11.749   5.935
 7989SOL    HW225865  11.502  11.667   6.030
 7990SOL     OW25866   8.419   6.660   3.973
 7990SOL    HW125867   8.349   6.669   4.038
 7990SOL    HW225868   8.441   6.750   3.948
 7991SOL     OW25869   6.225   5.533  11.536
 7991SOL    HW125870   6.184   5.531  11.449
 7991SOL    HW225871   6.197   5.452  11.577
 7992SOL     OW25872   1.891   3.688   2.326
 7992SOL    HW125873   1.829   3.708   2.256
 7992SOL    HW225874   1.859   3.606   2.364
 7993SOL     OW25875  13.488   1.291  13.524
 7993SOL    HW125876  13.576   1.323  13.545
 7993SOL    HW225877  13.438   1.370  13.503
 7994SOL     OW25878   8.641   3.315  12.878
 7994SOL    HW125879   8.660   3.313  12.971
 7994SOL    HW225880   8.606   3.229  12.858
 7995SOL     OW25881  12.809   1.981  14.075
 7995SOL    HW125882  12.821   1.900  14.026
 7995SOL    HW225883  12.725   1.969  14.121
 7996SOL     OW25884   7.821  10.873  14.113
 7996SOL    HW125885   7.798  10.917  14.031
 7996SOL    HW225886   7.914  10.852  14.105
 7997SOL     OW25887   7.321   4.387   5.857
 7997SOL    HW125888   7.403   4.373   5.903
 7997SOL    HW225889   7.345   4.430   5.776
 7998SOL     OW25890   2.190   5.759   3.520
 7998SOL    HW125891   2.146   5.835   3.558
 7998SOL    HW225892   2.283   5.778   3.531
 7999SOL     OW25893   2.254   4.395  10.538
 7999SOL    HW125894   2.342   4.368  10.514
 7999SOL    HW225895   2.197   4.325  10.506
 8000SOL     OW25896   2.598   6.104   1.111
 8000SOL    HW125897   2.547   6.185   1.108
 8000SOL    HW225898   2.682   6.128   1.073
 8001SOL     OW25899   1.604   7.019   0.661
 8001SOL    HW125900   1.565   7.056   0.740
 8001SOL    HW225901   1.661   6.949   0.692
 8002SOL     OW25902   2.921  12.116  10.301
 8002SOL    HW125903   2.907  12.088  10.391
 8002SOL    HW225904   2.841  12.163  10.278
 8003SOL     OW25905   3.280  13.926  13.684
 8003SOL    HW125906   3.366  13.956  13.655
 8003SOL    HW225907   3.252  13.993  13.747
 8004SOL     OW25908   3.634  14.247   9.994
 8004SOL    HW125909   3.605  14.216  10.080
 8004SOL    HW225910   3.590  14.189   9.932
 8005SOL     OW25911   0.797   1.779   0.215
 8005SOL    HW125912   0.857   1.752   0.285
 8005SOL    HW225913   0.766   1.698   0.176
 8006SOL     OW25914  12.138   1.066   1.181
 8006SOL    HW125915  12.113   1.121   1.107
 8006SOL    HW225916  12.162   0.982   1.143
 8007SOL     OW25917   5.166   4.571  12.317
 8007SOL    HW125918   5.227   4.600  12.385
 8007SOL    HW225919   5.149   4.479  12.338
 8008SOL     OW25920   4.102  13.867   3.253
 8008SOL    HW125921   4.128  13.842   3.164
 8008SOL    HW225922   4.045  13.943   3.241
 8009SOL     OW25923   5.731   9.264  11.158
 8009SOL    HW125924   5.648   9.290  11.199
 8009SOL    HW225925   5.711   9.260  11.065
 8010SOL     OW25926   8.793   2.574  10.831
 8010SOL    HW125927   8.789   2.480  10.815
 8010SOL    HW225928   8.705   2.597  10.862
 8011SOL     OW25929   9.077  12.370   2.988
 8011SOL    HW125930   9.095  12.407   3.075
 8011SOL    HW225931   9.117  12.432   2.927
 8012SOL     OW25932  11.026   7.158   5.963
 8012SOL    HW125933  11.054   7.249   5.956
 8012SOL    HW225934  10.991   7.150   6.052
 8013SOL     OW25935   1.167   2.354   8.970
 8013SOL    HW125936   1.147   2.443   8.940
 8013SOL    HW225937   1.085   2.306   8.961
 8014SOL     OW25938   0.147   5.109   9.209
 8014SOL    HW125939   0.188   5.172   9.149
 8014SOL    HW225940   0.213   5.042   9.223
 8015SOL     OW25941  13.890   8.939   2.098
 8015SOL    HW125942  13.936   8.943   2.182
 8015SOL    HW225943  13.949   8.982   2.037
 8016SOL     OW25944   8.148   5.393   1.736
 8016SOL    HW125945   8.216   5.384   1.803
 8016SOL    HW225946   8.148   5.308   1.691
 8017SOL     OW25947  11.865   1.331   4.919
 8017SOL    HW125948  11.895   1.275   4.847
 8017SOL    HW225949  11.805   1.276   4.969
 8018SOL     OW25950  11.169  11.384   9.636
 8018SOL    HW125951  11.112  11.391   9.559
 8018SOL    HW225952  11.113  11.345   9.703
 8019SOL     OW25953   8.139  12.481   3.012
 8019SOL    HW125954   8.068  12.525   2.964
 8019SOL    HW225955   8.208  12.547   3.018
 8020SOL     OW25956   2.920   7.887   8.067
 8020SOL    HW125957   2.999   7.933   8.096
 8020SOL    HW225958   2.954   7.808   8.023
 8021SOL     OW25959   6.663   3.142   0.156
 8021SOL    HW125960   6.742   3.100   0.121
 8021SOL    HW225961   6.652   3.219   0.101
 8022SOL     OW25962   3.464   0.724  10.645
 8022SOL    HW125963   3.520   0.738  10.568
 8022SOL    HW225964   3.382   0.769  10.622
 8023SOL     OW25965   9.734   4.311  10.140
 8023SOL    HW125966   9.749   4.360  10.221
 8023SOL    HW225967   9.818   4.267  10.123
 8024SOL     OW25968   3.853   7.639   0.848
 8024SOL    HW125969   3.833   7.685   0.766
 8024SOL    HW225970   3.897   7.559   0.820
 8025SOL     OW25971   4.633   7.528  10.317
 8025SOL    HW125972   4.700   7.459  10.314
 8025SOL    HW225973   4.616   7.549  10.225
 8026SOL     OW25974   8.347  11.583  10.513
 8026SOL    HW125975   8.349  11.605  10.607
 8026SOL    HW225976   8.399  11.652  10.472
 8027SOL     OW25977   8.555  13.767   2.569
 8027SOL    HW125978   8.577  13.738   2.658
 8027SOL    HW225979   8.586  13.858   2.566
 8028SOL     OW25980   1.041   1.280  10.894
 8028SOL    HW125981   0.973   1.273  10.827
 8028SOL    HW225982   1.000   1.330  10.965
 8029SOL     OW25983  11.064   3.622  14.701
 8029SOL    HW125984  11.100   3.556  14.642
 8029SOL    HW225985  11.075   3.584  14.788
 8030SOL     OW25986   9.645   2.140   7.943
 8030SOL    HW125987   9.727   2.178   7.976
 8030SOL    HW225988   9.576   2.189   7.988
 8031SOL     OW25989  12.527   9.374   1.589
 8031SOL    HW125990  12.482   9.450   1.626
 8031SOL    HW225991  12.563   9.328   1.665
 8032SOL     OW25992   7.002   6.520  10.330
 8032SOL    HW125993   7.036   6.527  10.240
 8032SOL    HW225994   7.077   6.542  10.385
 8033SOL     OW25995   2.296  10.827   7.274
 8033SOL    HW125996   2.332  10.739   7.268
 8033SOL    HW225997   2.358  10.882   7.226
 8034SOL     OW25998  12.770  10.277   4.661
 8034SOL    HW125999  12.761  10.336   4.586
 8034SOL    HW226000  12.687  10.286   4.709
 8035SOL     OW26001   8.695   8.263   3.678
 8035SOL    HW126002   8.652   8.178   3.690
 8035SOL    HW226003   8.732   8.259   3.590
 8036SOL     OW26004   8.380   3.361   3.544
 8036SOL    HW126005   8.418   3.445   3.568
 8036SOL    HW226006   8.395   3.305   3.620
 8037SOL     OW26007   2.838   3.880   6.553
 8037SOL    HW126008   2.787   3.951   6.593
 8037SOL    HW226009   2.928   3.913   6.553
 8038SOL     OW26010   0.545   4.878  13.984
 8038SOL    HW126011   0.512   4.963  14.010
 8038SOL    HW226012   0.510   4.864  13.896
 8039SOL     OW26013   3.326   3.205   5.794
 8039SOL    HW126014   3.249   3.229   5.846
 8039SOL    HW226015   3.362   3.128   5.838
 8040SOL     OW26016   5.270  13.687   1.700
 8040SOL    HW126017   5.350  13.724   1.662
 8040SOL    HW226018   5.215  13.665   1.625
 8041SOL     OW26019  14.436   2.641   0.904
 8041SOL    HW126020  14.389   2.696   0.966
 8041SOL    HW226021  14.386   2.559   0.901
 8042SOL     OW26022   0.079  10.404   1.750
 8042SOL    HW126023   0.015  10.334   1.763
 8042SOL    HW226024   0.146  10.388   1.816
 8043SOL     OW26025   3.657   4.048   8.120
 8043SOL    HW126026   3.641   4.080   8.031
 8043SOL    HW226027   3.738   3.998   8.114
 8044SOL     OW26028   4.922   2.010  10.569
 8044SOL    HW126029   4.926   2.105  10.561
 8044SOL    HW226030   4.828   1.990  10.567
 8045SOL     OW26031   9.599   7.421   0.277
 8045SOL    HW126032   9.641   7.456   0.199
 8045SOL    HW226033   9.570   7.498   0.326
 8046SOL     OW26034   4.622   6.735  14.292
 8046SOL    HW126035   4.577   6.820  14.291
 8046SOL    HW226036   4.713   6.756  14.271
 8047SOL     OW26037  14.053   4.095   6.272
 8047SOL    HW126038  14.034   4.020   6.328
 8047SOL    HW226039  13.969   4.139   6.261
 8048SOL     OW26040  11.034  13.614  11.766
 8048SOL    HW126041  10.944  13.586  11.749
 8048SOL    HW226042  11.069  13.548  11.825
 8049SOL     OW26043   9.941   0.089  12.869
 8049SOL    HW126044  10.023   0.082  12.919
 8049SOL    HW226045   9.969   0.109  12.780
 8050SOL     OW26046  12.605   8.919  11.674
 8050SOL    HW126047  12.683   8.870  11.648
 8050SOL    HW226048  12.557   8.859  11.732
 8051SOL     OW26049   6.575  11.894   2.864
 8051SOL    HW126050   6.661  11.870   2.897
 8051SOL    HW226051   6.514  11.847   2.921
 8052SOL     OW26052   9.030  11.678  13.544
 8052SOL    HW126053   9.123  11.665  13.563
 8052SOL    HW226054   8.990  11.593  13.563
 8053SOL     OW26055  13.678   3.020  10.502
 8053SOL    HW126056  13.772   3.037  10.508
 8053SOL    HW226057  13.658   3.023  10.409
 8054SOL     OW26058   8.115   0.374   6.090
 8054SOL    HW126059   8.198   0.344   6.051
 8054SOL    HW226060   8.123   0.350   6.183
 8055SOL     OW26061   6.396   8.197   4.677
 8055SOL    HW126062   6.424   8.229   4.762
 8055SOL    HW226063   6.337   8.265   4.644
 8056SOL     OW26064  13.376   6.580  12.891
 8056SOL    HW126065  13.353   6.536  12.809
 8056SOL    HW226066  13.354   6.672  12.876
 8057SOL     OW26067   9.089   4.360  10.276
 8057SOL    HW126068   9.099   4.286  10.216
 8057SOL    HW226069   9.050   4.429  10.222
 8058SOL     OW26070  14.790   8.819  10.539
 8058SOL    HW126071  14.727   8.881  10.501
 8058SOL    HW226072  14.837   8.871  10.604
 8059SOL     OW26073   6.716  11.020   0.445
 8059SOL    HW126074   6.774  10.960   0.492
 8059SOL    HW226075   6.631  10.977   0.447
 8060SOL     OW26076  12.057   2.089   0.299
 8060SOL    HW126077  12.137   2.047   0.332
 8060SOL    HW226078  12.073   2.101   0.206
 8061SOL     OW26079  14.600   8.026   6.227
 8061SOL    HW126080  14.509   8.002   6.244
 8061SOL    HW226081  14.612   8.012   6.133
 8062SOL     OW26082   0.234   1.357   6.866
 8062SOL    HW126083   0.178   1.433   6.846
 8062SOL    HW226084   0.174   1.283   6.865
 8063SOL     OW26085  14.294  14.706  14.052
 8063SOL    HW126086  14.223  14.758  14.015
 8063SOL    HW226087  14.251  14.626  14.083
 8064SOL     OW26088   8.417   7.359   3.487
 8064SOL    HW126089   8.328   7.334   3.510
 8064SOL    HW226090   8.448   7.409   3.562
 8065SOL     OW26091  10.646   8.578  10.978
 8065SOL    HW126092  10.705   8.576  11.053
 8065SOL    HW226093  10.663   8.663  10.937
 8066SOL     OW26094  13.104  14.780   9.925
 8066SOL    HW126095  13.138  14.690   9.920
 8066SOL    HW226096  13.081  14.792  10.018
 8067SOL     OW26097  13.734   9.530   9.058
 8067SOL    HW126098  13.824   9.556   9.039
 8067SOL    HW226099  13.697   9.507   8.973
 8068SOL     OW26100  10.206  14.845   4.162
 8068SOL    HW126101  10.129   0.011   4.208
 8068SOL    HW226102  10.252  14.795   4.230
 8069SOL     OW26103   9.225  14.772   3.003
 8069SOL    HW126104   9.203  14.699   3.062
 8069SOL    HW226105   9.319  14.783   3.012
 8070SOL     OW26106  13.019   5.826   5.391
 8070SOL    HW126107  13.014   5.730   5.392
 8070SOL    HW226108  12.972   5.852   5.312
 8071SOL     OW26109  13.345   9.687   4.516
 8071SOL    HW126110  13.353   9.605   4.565
 8071SOL    HW226111  13.271   9.732   4.556
 8072SOL     OW26112  13.501  11.773  10.940
 8072SOL    HW126113  13.589  11.743  10.920
 8072SOL    HW226114  13.491  11.760  11.034
 8073SOL     OW26115  14.414   2.923   0.465
 8073SOL    HW126116  14.497   2.876   0.465
 8073SOL    HW226117  14.371   2.895   0.546
 8074SOL     OW26118  11.460   0.829  10.851
 8074SOL    HW126119  11.398   0.758  10.837
 8074SOL    HW226120  11.415   0.888  10.912
 8075SOL     OW26121   6.128   3.206   6.795
 8075SOL    HW126122   6.142   3.269   6.866
 8075SOL    HW226123   6.175   3.128   6.822
 8076SOL     OW26124   4.106   3.640   0.138
 8076SOL    HW126125   4.025   3.690   0.131
 8076SOL    HW226126   4.078   3.552   0.163
 8077SOL     OW26127   1.722   5.812  12.993
 8077SOL    HW126128   1.801   5.781  13.037
 8077SOL    HW226129   1.651   5.759  13.029
 8078SOL     OW26130   3.617   6.226   6.374
 8078SOL    HW126131   3.706   6.205   6.401
 8078SOL    HW226132   3.621   6.228   6.278
 8079SOL     OW26133   4.462   5.245   8.120
 8079SOL    HW126134   4.529   5.225   8.054
 8079SOL    HW226135   4.435   5.335   8.101
 8080SOL     OW26136   5.157   0.974   6.309
 8080SOL    HW126137   5.168   0.884   6.282
 8080SOL    HW226138   5.188   1.026   6.235
 8081SOL     OW26139   4.798   7.603  10.767
 8081SOL    HW126140   4.812   7.659  10.692
 8081SOL    HW226141   4.733   7.539  10.737
 8082SOL     OW26142   6.035  13.620   5.782
 8082SOL    HW126143   5.979  13.680   5.830
 8082SOL    HW226144   6.123  13.637   5.816
 8083SOL     OW26145  10.877  12.694   3.239
 8083SOL    HW126146  10.919  12.662   3.160
 8083SOL    HW226147  10.854  12.785   3.219
 8084SOL     OW26148  10.459   1.264   7.065
 8084SOL    HW126149  10.396   1.311   7.009
 8084SOL    HW226150  10.485   1.189   7.012
 8085SOL     OW26151   5.866   3.900   0.377
 8085SOL    HW126152   5.890   3.992   0.377
 8085SOL    HW226153   5.915   3.862   0.303
 8086SOL     OW26154   8.709  10.555  10.386
 8086SOL    HW126155   8.756  10.485  10.431
 8086SOL    HW226156   8.775  10.597  10.331
 8087SOL     OW26157   5.192   5.745   4.706
 8087SOL    HW126158   5.281   5.742   4.671
 8087SOL    HW226159   5.179   5.659   4.746
 8088SOL     OW26160  14.508  11.626   7.098
 8088SOL    HW126161  14.578  11.609   7.035
 8088SOL    HW226162  14.461  11.701   7.064
 8089SOL     OW26163   2.510   5.636   3.664
 8089SOL    HW126164   2.451   5.636   3.739
 8089SOL    HW226165   2.487   5.557   3.614
 8090SOL     OW26166  14.409  14.683  13.507
 8090SOL    HW126167  14.336  14.737  13.476
 8090SOL    HW226168  14.419  14.708  13.599
 8091SOL     OW26169   4.628   6.793   8.584
 8091SOL    HW126170   4.691   6.866   8.585
 8091SOL    HW226171   4.571   6.810   8.659
 8092SOL     OW26172   9.918   7.006   1.616
 8092SOL    HW126173   9.915   7.060   1.537
 8092SOL    HW226174  10.010   7.011   1.645
 8093SOL     OW26175   8.267   6.764   6.784
 8093SOL    HW126176   8.351   6.753   6.830
 8093SOL    HW226177   8.261   6.858   6.768
 8094SOL     OW26178  12.887  13.157  12.932
 8094SOL    HW126179  12.899  13.077  12.881
 8094SOL    HW226180  12.976  13.185  12.953
 8095SOL     OW26181   8.435   1.438   3.313
 8095SOL    HW126182   8.449   1.351   3.352
 8095SOL    HW226183   8.513   1.453   3.259
 8096SOL     OW26184  13.823  11.885  13.820
 8096SOL    HW126185  13.851  11.938  13.746
 8096SOL    HW226186  13.904  11.849  13.857
 8097SOL     OW26187  14.152  14.118  10.274
 8097SOL    HW126188  14.160  14.024  10.293
 8097SOL    HW226189  14.242  14.151  10.273
 8098SOL     OW26190   2.808   1.617   4.785
 8098SOL    HW126191   2.843   1.694   4.831
 8098SOL    HW226192   2.741   1.583   4.844
 8099SOL     OW26193  10.025   9.349   9.752
 8099SOL    HW126194   9.963   9.324   9.821
 8099SOL    HW226195  10.053   9.438   9.776
 8100SOL     OW26196  11.371   4.358  10.656
 8100SOL    HW126197  11.388   4.269  10.627
 8100SOL    HW226198  11.378   4.411  10.577
 8101SOL     OW26199  13.158   6.980   9.766
 8101SOL    HW126200  13.196   7.000   9.681
 8101SOL    HW226201  13.070   7.018   9.763
 8102SOL     OW26202  10.328   3.210  12.647
 8102SOL    HW126203  10.364   3.255  12.723
 8102SOL    HW226204  10.244   3.252  12.631
 8103SOL     OW26205  11.427  12.223   7.563
 8103SOL    HW126206  11.438  12.132   7.590
 8103SOL    HW226207  11.516  12.257   7.553
 8104SOL     OW26208  10.321   2.962  12.064
 8104SOL    HW126209  10.294   2.989  11.976
 8104SOL    HW226210  10.369   3.038  12.097
 8105SOL     OW26211   2.423   8.148   4.695
 8105SOL    HW126212   2.356   8.086   4.723
 8105SOL    HW226213   2.427   8.138   4.600
 8106SOL     OW26214   7.139   1.979   1.022
 8106SOL    HW126215   7.065   2.025   0.983
 8106SOL    HW226216   7.099   1.916   1.082
 8107SOL     OW26217   4.375   9.127   7.271
 8107SOL    HW126218   4.399   9.049   7.321
 8107SOL    HW226219   4.453   9.146   7.219
 8108SOL     OW26220   5.384   0.978  13.663
 8108SOL    HW126221   5.365   0.895  13.618
 8108SOL    HW226222   5.300   1.023  13.667
 8109SOL     OW26223   3.873  11.876   1.633
 8109SOL    HW126224   3.873  11.807   1.699
 8109SOL    HW226225   3.894  11.956   1.681
 8110SOL     OW26226   6.691  11.795   7.042
 8110SOL    HW126227   6.622  11.746   6.997
 8110SOL    HW226228   6.723  11.857   6.977
 8111SOL     OW26229   7.408   3.823  14.692
 8111SOL    HW126230   7.349   3.891  14.726
 8111SOL    HW226231   7.422   3.764  14.767
 8112SOL     OW26232  14.695   8.027  10.797
 8112SOL    HW126233  14.690   8.085  10.873
 8112SOL    HW226234  14.617   8.048  10.746
 8113SOL     OW26235  11.333   1.492   2.202
 8113SOL    HW126236  11.268   1.547   2.246
 8113SOL    HW226237  11.416   1.536   2.219
 8114SOL     OW26238   9.186  14.140  12.056
 8114SOL    HW126239   9.246  14.200  12.011
 8114SOL    HW226240   9.160  14.078  11.988
 8115SOL     OW26241   0.078   8.924   5.017
 8115SOL    HW126242   0.102   8.873   4.939
 8115SOL    HW226243   0.039   8.859   5.076
 8116SOL     OW26244   6.590   1.828   0.036
 8116SOL    HW126245   6.625   1.820   0.125
 8116SOL    HW226246   6.560   1.739   0.015
 8117SOL     OW26247   1.692  12.767   4.758
 8117SOL    HW126248   1.782  12.782   4.730
 8117SOL    HW226249   1.650  12.853   4.754
 8118SOL     OW26250   8.210  14.792  12.220
 8118SOL    HW126251   8.157  14.864  12.185
 8118SOL    HW226252   8.151  14.716  12.220
 8119SOL     OW26253  14.175   3.379  13.638
 8119SOL    HW126254  14.117   3.456  13.641
 8119SOL    HW226255  14.125   3.310  13.681
 8120SOL     OW26256  14.294  13.195  11.758
 8120SOL    HW126257  14.364  13.260  11.753
 8120SOL    HW226258  14.308  13.139  11.682
 8121SOL     OW26259  12.044   1.074   4.621
 8121SOL    HW126260  12.012   1.096   4.533
 8121SOL    HW226261  12.108   1.142   4.641
 8122SOL     OW26262   2.967   0.013   9.212
 8122SOL    HW126263   2.894   0.055   9.257
 8122SOL    HW226264   3.039   0.017   9.275
 8123SOL     OW26265  11.489   5.613   7.428
 8123SOL    HW126266  11.400   5.606   7.463
 8123SOL    HW226267  11.483   5.572   7.341
 8124SOL     OW26268  12.697   5.238   7.957
 8124SOL    HW126269  12.655   5.163   7.916
 8124SOL    HW226270  12.625   5.293   7.986
 8125SOL     OW26271   6.297  14.326   5.942
 8125SOL    HW126272   6.393  14.332   5.944
 8125SOL    HW226273   6.277  14.315   5.849
 8126SOL     OW26274   8.548   9.358   2.013
 8126SOL    HW126275   8.524   9.318   2.096
 8126SOL    HW226276   8.483   9.324   1.951
 8127SOL     OW26277  13.757   4.652   0.866
 8127SOL    HW126278  13.754   4.690   0.778
 8127SOL    HW226279  13.847   4.620   0.875
 8128SOL     OW26280   1.603   5.692   9.585
 8128SOL    HW126281   1.551   5.612   9.581
 8128SOL    HW226282   1.619   5.706   9.678
 8129SOL     OW26283   2.883   4.510   0.602
 8129SOL    HW126284   2.971   4.474   0.618
 8129SOL    HW226285   2.881   4.591   0.653
 8130SOL     OW26286  11.946  13.154   4.170
 8130SOL    HW126287  11.889  13.153   4.247
 8130SOL    HW226288  12.034  13.168   4.206
 8131SOL     OW26289   1.326  11.034  10.525
 8131SOL    HW126290   1.344  11.026  10.431
 8131SOL    HW226291   1.236  11.002  10.534
 8132SOL     OW26292   0.022   7.567  12.037
 8132SOL    HW126293  14.869   7.476  12.056
 8132SOL    HW226294   0.045   7.604  12.122
 8133SOL     OW26295  14.105  12.046   5.590
 8133SOL    HW126296  14.187  12.060   5.543
 8133SOL    HW226297  14.044  12.015   5.523
 8134SOL     OW26298  10.521   1.020  11.942
 8134SOL    HW126299  10.607   1.017  11.900
 8134SOL    HW226300  10.480   1.099  11.907
 8135SOL     OW26301  13.652   0.872  10.482
 8135SOL    HW126302  13.597   0.909  10.413
 8135SOL    HW226303  13.591   0.841  10.548
 8136SOL     OW26304  11.537  12.951  14.607
 8136SOL    HW126305  11.563  13.040  14.629
 8136SOL    HW226306  11.601  12.922  14.542
 8137SOL     OW26307   5.076   6.818  12.941
 8137SOL    HW126308   5.162   6.853  12.915
 8137SOL    HW226309   5.074   6.831  13.036
 8138SOL     OW26310  11.359  12.296  10.099
 8138SOL    HW126311  11.290  12.248  10.053
 8138SOL    HW226312  11.337  12.285  10.192
 8139SOL     OW26313   2.672  10.557  12.784
 8139SOL    HW126314   2.744  10.507  12.822
 8139SOL    HW226315   2.706  10.646  12.776
 8140SOL     OW26316   1.753   5.652   0.324
 8140SOL    HW126317   1.685   5.595   0.360
 8140SOL    HW226318   1.766   5.619   0.235
 8141SOL     OW26319   8.129   9.415  12.485
 8141SOL    HW126320   8.224   9.402  12.484
 8141SOL    HW226321   8.093   9.328  12.470
 8142SOL     OW26322  13.474  13.760   5.595
 8142SOL    HW126323  13.548  13.818   5.615
 8142SOL    HW226324  13.459  13.712   5.676
 8143SOL     OW26325  11.054   5.219   3.056
 8143SOL    HW126326  11.022   5.309   3.057
 8143SOL    HW226327  11.004   5.174   3.124
 8144SOL     OW26328   8.529  14.749   2.258
 8144SOL    HW126329   8.590  14.752   2.185
 8144SOL    HW226330   8.567  14.688   2.320
 8145SOL     OW26331   5.275  10.649  12.512
 8145SOL    HW126332   5.323  10.579  12.558
 8145SOL    HW226333   5.212  10.680  12.577
 8146SOL     OW26334   5.464   1.537  12.272
 8146SOL    HW126335   5.520   1.503  12.202
 8146SOL    HW226336   5.510   1.614  12.305
 8147SOL     OW26337   0.399   4.439   8.266
 8147SOL    HW126338   0.487   4.470   8.245
 8147SOL    HW226339   0.405   4.344   8.260
 8148SOL     OW26340  14.100  10.383  11.790
 8148SOL    HW126341  14.133  10.319  11.727
 8148SOL    HW226342  14.066  10.331  11.863
 8149SOL     OW26343  10.174  13.368   1.270
 8149SOL    HW126344  10.130  13.299   1.320
 8149SOL    HW226345  10.108  13.436   1.260
 8150SOL     OW26346  10.309   0.833   3.493
 8150SOL    HW126347  10.349   0.870   3.571
 8150SOL    HW226348  10.343   0.744   3.488
 8151SOL     OW26349  12.829   2.785   7.919
 8151SOL    HW126350  12.904   2.781   7.978
 8151SOL    HW226351  12.846   2.863   7.865
 8152SOL     OW26352   4.262   1.552  12.169
 8152SOL    HW126353   4.285   1.532  12.260
 8152SOL    HW226354   4.286   1.644  12.157
 8153SOL     OW26355   1.381   9.560   0.815
 8153SOL    HW126356   1.466   9.542   0.856
 8153SOL    HW226357   1.402   9.615   0.740
 8154SOL     OW26358  14.605  13.569   5.226
 8154SOL    HW126359  14.593  13.648   5.280
 8154SOL    HW226360  14.622  13.602   5.138
 8155SOL     OW26361  11.461  12.004   2.907
 8155SOL    HW126362  11.502  11.924   2.874
 8155SOL    HW226363  11.476  12.069   2.837
 8156SOL     OW26364   5.543  11.851  10.628
 8156SOL    HW126365   5.540  11.904  10.548
 8156SOL    HW226366   5.455  11.816  10.637
 8157SOL     OW26367   7.481   0.751  13.114
 8157SOL    HW126368   7.386   0.758  13.125
 8157SOL    HW226369   7.510   0.842  13.108
 8158SOL     OW26370   5.770   7.481  11.578
 8158SOL    HW126371   5.695   7.463  11.521
 8158SOL    HW226372   5.798   7.570  11.553
 8159SOL     OW26373   9.342   6.044  12.964
 8159SOL    HW126374   9.302   6.064  12.879
 8159SOL    HW226375   9.418   6.103  12.969
 8160SOL     OW26376  14.063   0.748   1.951
 8160SOL    HW126377  13.977   0.774   1.917
 8160SOL    HW226378  14.045   0.671   2.004
 8161SOL     OW26379   7.104   8.313  13.307
 8161SOL    HW126380   7.128   8.402  13.333
 8161SOL    HW226381   7.063   8.276  13.386
 8162SOL     OW26382  14.680   0.996   6.517
 8162SOL    HW126383  14.656   1.063   6.453
 8162SOL    HW226384  14.773   1.011   6.534
 8163SOL     OW26385  12.283  13.569   8.888
 8163SOL    HW126386  12.343  13.558   8.962
 8163SOL    HW226387  12.316  13.646   8.842
 8164SOL     OW26388   4.173   2.023   6.192
 8164SOL    HW126389   4.215   1.991   6.112
 8164SOL    HW226390   4.088   1.979   6.194
 8165SOL     OW26391  11.176  10.976   6.597
 8165SOL    HW126392  11.269  10.980   6.620
 8165SOL    HW226393  11.175  10.980   6.501
 8166SOL     OW26394  12.216   6.035   7.541
 8166SOL    HW126395  12.295   6.088   7.535
 8166SOL    HW226396  12.248   5.945   7.553
 8167SOL     OW26397   0.206   1.370   1.657
 8167SOL    HW126398   0.123   1.364   1.610
 8167SOL    HW226399   0.200   1.452   1.706
 8168SOL     OW26400   5.253   4.137   0.538
 8168SOL    HW126401   5.248   4.056   0.588
 8168SOL    HW226402   5.297   4.113   0.457
 8169SOL     OW26403   8.552   0.472   3.256
 8169SOL    HW126404   8.615   0.464   3.184
 8169SOL    HW226405   8.531   0.565   3.260
 8170SOL     OW26406   1.022   6.596   6.736
 8170SOL    HW126407   1.032   6.504   6.711
 8170SOL    HW226408   0.939   6.599   6.782
 8171SOL     OW26409  13.934   2.795   0.276
 8171SOL    HW126410  14.016   2.826   0.238
 8171SOL    HW226411  13.961   2.745   0.353
 8172SOL     OW26412   5.670   8.669   6.403
 8172SOL    HW126413   5.724   8.616   6.462
 8172SOL    HW226414   5.705   8.650   6.316
 8173SOL     OW26415   0.007   4.098   6.788
 8173SOL    HW126416   0.058   4.023   6.819
 8173SOL    HW226417  14.797   4.059   6.753
 8174SOL     OW26418   2.022  10.603  13.492
 8174SOL    HW126419   1.953  10.556  13.445
 8174SOL    HW226420   1.978  10.680  13.529
 8175SOL     OW26421   9.328  10.860   3.131
 8175SOL    HW126422   9.312  10.949   3.163
 8175SOL    HW226423   9.258  10.808   3.171
 8176SOL     OW26424   4.336   7.635   2.858
 8176SOL    HW126425   4.275   7.676   2.920
 8176SOL    HW226426   4.370   7.559   2.904
 8177SOL     OW26427   5.379   8.340   2.712
 8177SOL    HW126428   5.432   8.265   2.684
 8177SOL    HW226429   5.390   8.342   2.807
 8178SOL     OW26430   6.268  14.397   6.664
 8178SOL    HW126431   6.284  14.443   6.746
 8178SOL    HW226432   6.350  14.351   6.645
 8179SOL     OW26433   1.195  14.829   6.572
 8179SOL    HW126434   1.280  14.796   6.602
 8179SOL    HW226435   1.190  14.803   6.481
 8180SOL     OW26436   3.270   7.469  14.487
 8180SOL    HW126437   3.346   7.443  14.435
 8180SOL    HW226438   3.292   7.557  14.519
 8181SOL     OW26439   2.028   4.416   1.877
 8181SOL    HW126440   1.936   4.406   1.851
 8181SOL    HW226441   2.058   4.495   1.831
 8182SOL     OW26442   7.435   2.098   7.271
 8182SOL    HW126443   7.490   2.096   7.193
 8182SOL    HW226444   7.423   2.191   7.289
 8183SOL     OW26445  10.522  11.086   5.653
 8183SOL    HW126446  10.608  11.054   5.626
 8183SOL    HW226447  10.539  11.131   5.736
 8184SOL     OW26448   6.658   3.372   5.473
 8184SOL    HW126449   6.652   3.277   5.463
 8184SOL    HW226450   6.567   3.400   5.486
 8185SOL     OW26451  12.481   6.517   6.435
 8185SOL    HW126452  12.466   6.611   6.420
 8185SOL    HW226453  12.549   6.494   6.372
 8186SOL     OW26454   7.741  10.911  12.430
 8186SOL    HW126455   7.820  10.930  12.379
 8186SOL    HW226456   7.718  10.821  12.406
 8187SOL     OW26457   7.074   6.935   2.925
 8187SOL    HW126458   7.005   6.919   2.990
 8187SOL    HW226459   7.135   6.994   2.969
 8188SOL     OW26460   3.339  14.649   3.076
 8188SOL    HW126461   3.297  14.705   3.142
 8188SOL    HW226462   3.432  14.667   3.085
 8189SOL     OW26463   7.269   5.868  12.594
 8189SOL    HW126464   7.189   5.833  12.554
 8189SOL    HW226465   7.314   5.913  12.523
 8190SOL     OW26466  11.306   2.306   6.717
 8190SOL    HW126467  11.298   2.318   6.622
 8190SOL    HW226468  11.288   2.214   6.731
 8191SOL     OW26469   9.969   8.617  13.621
 8191SOL    HW126470   9.898   8.588  13.679
 8191SOL    HW226471   9.934   8.695  13.578
 8192SOL     OW26472   1.564   7.609   1.710
 8192SOL    HW126473   1.538   7.695   1.675
 8192SOL    HW226474   1.520   7.603   1.794
 8193SOL     OW26475  13.992   2.755  14.021
 8193SOL    HW126476  14.069   2.725  14.069
 8193SOL    HW226477  14.002   2.718  13.933
 8194SOL     OW26478   5.203  12.253  12.309
 8194SOL    HW126479   5.143  12.290  12.245
 8194SOL    HW226480   5.192  12.308  12.387
 8195SOL     OW26481  11.746   1.922   9.867
 8195SOL    HW126482  11.745   1.998   9.809
 8195SOL    HW226483  11.800   1.858   9.822
 8196SOL     OW26484   0.849  12.230   8.489
 8196SOL    HW126485   0.942  12.244   8.509
 8196SOL    HW226486   0.811  12.197   8.571
 8197SOL     OW26487   1.665   6.449   5.145
 8197SOL    HW126488   1.724   6.525   5.143
 8197SOL    HW226489   1.585   6.481   5.104
 8198SOL     OW26490   9.324  13.816   2.454
 8198SOL    HW126491   9.257  13.750   2.433
 8198SOL    HW226492   9.356  13.845   2.368
 8199SOL     OW26493  11.164  10.075  11.468
 8199SOL    HW126494  11.111  10.014  11.520
 8199SOL    HW226495  11.210  10.129  11.533
 8200SOL     OW26496   3.069   9.860   8.922
 8200SOL    HW126497   2.979   9.893   8.921
 8200SOL    HW226498   3.122   9.931   8.887
 8201SOL     OW26499   3.899   5.042   2.580
 8201SOL    HW126500   3.907   5.030   2.485
 8201SOL    HW226501   3.806   5.028   2.597
 8202SOL     OW26502   5.072   9.308  10.116
 8202SOL    HW126503   5.126   9.312  10.195
 8202SOL    HW226504   5.118   9.247  10.059
 8203SOL     OW26505   1.190   1.310   0.069
 8203SOL    HW126506   1.252   1.381   0.049
 8203SOL    HW226507   1.246   1.235   0.090
 8204SOL     OW26508   7.722   6.346   7.888
 8204SOL    HW126509   7.686   6.282   7.827
 8204SOL    HW226510   7.772   6.406   7.832
 8205SOL     OW26511  10.901   7.700   8.968
 8205SOL    HW126512  10.963   7.631   8.992
 8205SOL    HW226513  10.922   7.773   9.025
 8206SOL     OW26514   2.617   7.418   1.239
 8206SOL    HW126515   2.665   7.494   1.206
 8206SOL    HW226516   2.547   7.456   1.292
 8207SOL     OW26517   9.637   3.291   0.965
 8207SOL    HW126518   9.579   3.306   1.040
 8207SOL    HW226519   9.579   3.289   0.889
 8208SOL     OW26520   7.756   1.922   7.314
 8208SOL    HW126521   7.738   2.008   7.351
 8208SOL    HW226522   7.807   1.941   7.235
 8209SOL     OW26523  14.285  14.676   9.581
 8209SOL    HW126524  14.295  14.746   9.646
 8209SOL    HW226525  14.219  14.618   9.618
 8210SOL     OW26526   3.811   4.032   0.297
 8210SOL    HW126527   3.842   4.119   0.320
 8210SOL    HW226528   3.719   4.044   0.274
 8211SOL     OW26529   5.689   0.605  14.617
 8211SOL    HW126530   5.660   0.515  14.627
 8211SOL    HW226531   5.776   0.607  14.658
 8212SOL     OW26532  13.895   7.026   5.811
 8212SOL    HW126533  13.820   7.085   5.821
 8212SOL    HW226534  13.892   6.969   5.888
 8213SOL     OW26535   9.964  14.054   4.909
 8213SOL    HW126536  10.053  14.058   4.875
 8213SOL    HW226537   9.970  14.094   4.996
 8214SOL     OW26538   2.499   1.397   5.355
 8214SOL    HW126539   2.564   1.465   5.373
 8214SOL    HW226540   2.528   1.357   5.273
 8215SOL     OW26541  14.086  13.984  13.898
 8215SOL    HW126542  14.035  13.936  13.962
 8215SOL    HW226543  14.031  14.058  13.873
 8216SOL     OW26544   2.361  10.233   2.226
 8216SOL    HW126545   2.372  10.179   2.148
 8216SOL    HW226546   2.430  10.298   2.220
 8217SOL     OW26547   8.162   5.493   9.784
 8217SOL    HW126548   8.112   5.526   9.710
 8217SOL    HW226549   8.147   5.557   9.854
 8218SOL     OW26550   3.860   1.409   6.414
 8218SOL    HW126551   3.916   1.333   6.429
 8218SOL    HW226552   3.781   1.373   6.374
 8219SOL     OW26553  13.155   8.824  14.348
 8219SOL    HW126554  13.103   8.809  14.427
 8219SOL    HW226555  13.129   8.753  14.289
 8220SOL     OW26556  14.268  12.466   0.602
 8220SOL    HW126557  14.279  12.537   0.539
 8220SOL    HW226558  14.346  12.472   0.658
 8221SOL     OW26559   1.095   4.285   4.681
 8221SOL    HW126560   1.147   4.217   4.639
 8221SOL    HW226561   1.022   4.300   4.621
 8222SOL     OW26562  12.898  11.999   0.473
 8222SOL    HW126563  12.949  12.074   0.443
 8222SOL    HW226564  12.814  12.007   0.427
 8223SOL     OW26565  13.753   8.912  12.713
 8223SOL    HW126566  13.815   8.985  12.704
 8223SOL    HW226567  13.671   8.946  12.678
 8224SOL     OW26568  13.327   4.773   7.674
 8224SOL    HW126569  13.269   4.744   7.605
 8224SOL    HW226570  13.413   4.780   7.633
 8225SOL     OW26571  13.431   8.922  13.861
 8225SOL    HW126572  13.428   8.930  13.956
 8225SOL    HW226573  13.339   8.915  13.834
 8226SOL     OW26574   7.967   1.509  14.098
 8226SOL    HW126575   7.917   1.556  14.031
 8226SOL    HW226576   7.915   1.521  14.178
 8227SOL     OW26577  12.988  11.978   9.581
 8227SOL    HW126578  13.002  11.954   9.489
 8227SOL    HW226579  12.905  12.026   9.582
 8228SOL     OW26580   9.810   6.752   1.748
 8228SOL    HW126581   9.755   6.722   1.676
 8228SOL    HW226582   9.899   6.728   1.722
 8229SOL     OW26583   2.169   6.224  10.275
 8229SOL    HW126584   2.145   6.208  10.366
 8229SOL    HW226585   2.138   6.313  10.257
 8230SOL     OW26586  10.655  13.115   9.953
 8230SOL    HW126587  10.690  13.176   9.889
 8230SOL    HW226588  10.579  13.159   9.990
 8231SOL     OW26589   6.786  10.339   6.787
 8231SOL    HW126590   6.765  10.429   6.762
 8231SOL    HW226591   6.766  10.335   6.881
 8232SOL     OW26592  12.069  13.235  10.538
 8232SOL    HW126593  12.088  13.286  10.616
 8232SOL    HW226594  12.076  13.144  10.567
 8233SOL     OW26595   8.857   5.758   2.654
 8233SOL    HW126596   8.838   5.773   2.561
 8233SOL    HW226597   8.889   5.668   2.657
 8234SOL     OW26598  14.283   6.187   9.062
 8234SOL    HW126599  14.341   6.189   8.986
 8234SOL    HW226600  14.224   6.114   9.045
 8235SOL     OW26601  11.034   4.493   8.760
 8235SOL    HW126602  11.103   4.440   8.720
 8235SOL    HW226603  11.001   4.547   8.688
 8236SOL     OW26604   9.584   6.358   0.499
 8236SOL    HW126605   9.641   6.281   0.492
 8236SOL    HW226606   9.495   6.322   0.494
 8237SOL     OW26607   1.818   7.718   4.831
 8237SOL    HW126608   1.768   7.695   4.753
 8237SOL    HW226609   1.829   7.636   4.878
 8238SOL     OW26610   4.017  10.244  12.053
 8238SOL    HW126611   4.094  10.277  12.100
 8238SOL    HW226612   4.041  10.248  11.961
 8239SOL     OW26613   7.365   1.545  11.444
 8239SOL    HW126614   7.373   1.594  11.526
 8239SOL    HW226615   7.403   1.603  11.378
 8240SOL     OW26616   7.186   1.218   9.597
 8240SOL    HW126617   7.225   1.131   9.606
 8240SOL    HW226618   7.195   1.257   9.685
 8241SOL     OW26619   4.500   7.145   2.331
 8241SOL    HW126620   4.590   7.138   2.298
 8241SOL    HW226621   4.502   7.222   2.387
 8242SOL     OW26622   1.610   9.763  10.320
 8242SOL    HW126623   1.571   9.713  10.391
 8242SOL    HW226624   1.543   9.765  10.252
 8243SOL     OW26625   3.065   6.653   4.834
 8243SOL    HW126626   3.094   6.739   4.865
 8243SOL    HW226627   3.144   6.599   4.840
 8244SOL     OW26628   4.097   1.640  14.362
 8244SOL    HW126629   4.094   1.557  14.315
 8244SOL    HW226630   4.190   1.661  14.369
 8245SOL     OW26631   9.585   6.145  12.924
 8245SOL    HW126632   9.642   6.108  12.857
 8245SOL    HW226633   9.639   6.209  12.970
 8246SOL     OW26634   6.175  13.905  11.742
 8246SOL    HW126635   6.171  13.810  11.739
 8246SOL    HW226636   6.169  13.927  11.835
 8247SOL     OW26637   2.178  11.418  12.364
 8247SOL    HW126638   2.122  11.414  12.441
 8247SOL    HW226639   2.155  11.500  12.321
 8248SOL     OW26640  12.341   6.984   9.367
 8248SOL    HW126641  12.368   7.009   9.279
 8248SOL    HW226642  12.354   6.890   9.371
 8249SOL     OW26643  13.410  13.051  12.324
 8249SOL    HW126644  13.320  13.080  12.341
 8249SOL    HW226645  13.458  13.076  12.403
 8250SOL     OW26646  12.226   7.467   8.188
 8250SOL    HW126647  12.202   7.472   8.281
 8250SOL    HW226648  12.303   7.409   8.186
 8251SOL     OW26649   6.483   1.866   2.688
 8251SOL    HW126650   6.457   1.931   2.623
 8251SOL    HW226651   6.441   1.894   2.768
 8252SOL     OW26652   2.432   4.497  10.978
 8252SOL    HW126653   2.465   4.517  11.065
 8252SOL    HW226654   2.505   4.451  10.935
 8253SOL     OW26655  12.122   8.804   8.220
 8253SOL    HW126656  12.045   8.807   8.164
 8253SOL    HW226657  12.194   8.781   8.161
 8254SOL     OW26658  13.732   1.728  12.066
 8254SOL    HW126659  13.817   1.683  12.069
 8254SOL    HW226660  13.703   1.717  11.975
 8255SOL     OW26661  11.617  14.438   5.128
 8255SOL    HW126662  11.532  14.470   5.157
 8255SOL    HW226663  11.652  14.389   5.203
 8256SOL     OW26664   4.070   3.205  10.452
 8256SOL    HW126665   4.120   3.255  10.517
 8256SOL    HW226666   4.067   3.263  10.376
 8257SOL     OW26667   3.046   1.459   5.241
 8257SOL    HW126668   3.028   1.540   5.194
 8257SOL    HW226669   3.082   1.488   5.325
 8258SOL     OW26670  13.871   5.242   1.558
 8258SOL    HW126671  13.790   5.269   1.515
 8258SOL    HW226672  13.913   5.324   1.584
 8259SOL     OW26673   5.660   1.012   5.880
 8259SOL    HW126674   5.591   0.947   5.899
 8259SOL    HW226675   5.649   1.030   5.786
 8260SOL     OW26676   2.438   3.005  12.169
 8260SOL    HW126677   2.369   3.035  12.110
 8260SOL    HW226678   2.463   3.084  12.217
 8261SOL     OW26679  12.390   8.045   5.333
 8261SOL    HW126680  12.420   8.075   5.246
 8261SOL    HW226681  12.297   8.025   5.321
 8262SOL     OW26682  13.498   7.744  10.487
 8262SOL    HW126683  13.568   7.726  10.424
 8262SOL    HW226684  13.448   7.815  10.447
 8263SOL     OW26685  10.572   0.796  13.334
 8263SOL    HW126686  10.605   0.772  13.248
 8263SOL    HW226687  10.477   0.801  13.324
 8264SOL     OW26688  13.478   2.386   7.189
 8264SOL    HW126689  13.503   2.437   7.266
 8264SOL    HW226690  13.473   2.296   7.221
 8265SOL     OW26691  14.529   5.731   1.521
 8265SOL    HW126692  14.452   5.696   1.565
 8265SOL    HW226693  14.527   5.692   1.434
 8266SOL     OW26694  10.621  11.582   2.572
 8266SOL    HW126695  10.553  11.594   2.506
 8266SOL    HW226696  10.594  11.504   2.620
 8267SOL     OW26697   7.271   5.954   2.641
 8267SOL    HW126698   7.308   5.871   2.610
 8267SOL    HW226699   7.344   5.997   2.687
 8268SOL     OW26700   2.277  10.422  10.521
 8268SOL    HW126701   2.262  10.505  10.566
 8268SOL    HW226702   2.305  10.447  10.433
 8269SOL     OW26703  12.192   7.914   8.719
 8269SOL    HW126704  12.244   7.989   8.747
 8269SOL    HW226705  12.118   7.952   8.672
 8270SOL     OW26706   5.938   7.970   9.061
 8270SOL    HW126707   5.855   7.971   9.109
 8270SOL    HW226708   5.916   8.007   8.975
 8271SOL     OW26709   2.366   0.642   0.294
 8271SOL    HW126710   2.330   0.717   0.340
 8271SOL    HW226711   2.450   0.626   0.337
 8272SOL     OW26712   8.305   6.922   0.159
 8272SOL    HW126713   8.216   6.907   0.192
 8272SOL    HW226714   8.358   6.933   0.238
 8273SOL     OW26715   7.518  12.558   9.630
 8273SOL    HW126716   7.498  12.569   9.723
 8273SOL    HW226717   7.583  12.488   9.627
 8274SOL     OW26718   4.941  13.537   4.852
 8274SOL    HW126719   4.997  13.522   4.776
 8274SOL    HW226720   4.860  13.490   4.834
 8275SOL     OW26721   5.765   8.429   2.872
 8275SOL    HW126722   5.706   8.481   2.817
 8275SOL    HW226723   5.746   8.338   2.847
 8276SOL     OW26724   1.282   7.275  10.392
 8276SOL    HW126725   1.197   7.254  10.431
 8276SOL    HW226726   1.266   7.276  10.298
 8277SOL     OW26727   8.373  13.050  13.018
 8277SOL    HW126728   8.294  13.095  12.988
 8277SOL    HW226729   8.435  13.061  12.946
 8278SOL     OW26730   6.059   4.310  11.854
 8278SOL    HW126731   6.136   4.328  11.800
 8278SOL    HW226732   5.986   4.311  11.791
 8279SOL     OW26733   5.422  11.169   6.172
 8279SOL    HW126734   5.375  11.200   6.094
 8279SOL    HW226735   5.384  11.220   6.244
 8280SOL     OW26736   0.230   8.441   0.627
 8280SOL    HW126737   0.142   8.404   0.622
 8280SOL    HW226738   0.259   8.421   0.717
 8281SOL     OW26739  11.397   5.846   3.837
 8281SOL    HW126740  11.466   5.856   3.772
 8281SOL    HW226741  11.393   5.931   3.881
 8282SOL     OW26742   1.390  12.201   1.710
 8282SOL    HW126743   1.368  12.151   1.631
 8282SOL    HW226744   1.463  12.257   1.683
 8283SOL     OW26745  14.343   4.205   4.587
 8283SOL    HW126746  14.294   4.162   4.656
 8283SOL    HW226747  14.306   4.294   4.583
 8284SOL     OW26748   1.814  14.539  13.948
 8284SOL    HW126749   1.897  14.493  13.933
 8284SOL    HW226750   1.840  14.628  13.970
 8285SOL     OW26751  10.518  10.481   0.609
 8285SOL    HW126752  10.597  10.530   0.632
 8285SOL    HW226753  10.535  10.448   0.520
 8286SOL     OW26754   7.161   9.268   8.321
 8286SOL    HW126755   7.156   9.354   8.280
 8286SOL    HW226756   7.140   9.285   8.413
 8287SOL     OW26757   1.094  12.466   9.463
 8287SOL    HW126758   1.188  12.461   9.448
 8287SOL    HW226759   1.081  12.547   9.512
 8288SOL     OW26760   2.593   3.764   9.896
 8288SOL    HW126761   2.530   3.707   9.853
 8288SOL    HW226762   2.619   3.827   9.829
 8289SOL     OW26763   7.613  11.550  11.654
 8289SOL    HW126764   7.655  11.589  11.577
 8289SOL    HW226765   7.681  11.494  11.691
 8290SOL     OW26766  14.482  11.626  11.047
 8290SOL    HW126767  14.527  11.690  11.101
 8290SOL    HW226768  14.471  11.550  11.105
 8291SOL     OW26769   4.731   8.175  14.867
 8291SOL    HW126770   4.737   8.091   0.043
 8291SOL    HW226771   4.730   8.240   0.067
 8292SOL     OW26772   5.337  11.603   6.919
 8292SOL    HW126773   5.268  11.648   6.968
 8292SOL    HW226774   5.418  11.641   6.951
 8293SOL     OW26775   2.685  12.864   4.952
 8293SOL    HW126776   2.770  12.907   4.964
 8293SOL    HW226777   2.687  12.792   5.015
 8294SOL     OW26778   4.499   9.502   6.518
 8294SOL    HW126779   4.595   9.509   6.525
 8294SOL    HW226780   4.485   9.447   6.441
 8295SOL     OW26781   0.374  13.164   8.875
 8295SOL    HW126782   0.350  13.077   8.842
 8295SOL    HW226783   0.469  13.161   8.885
 8296SOL     OW26784   2.867  11.379   1.400
 8296SOL    HW126785   2.879  11.463   1.445
 8296SOL    HW226786   2.785  11.389   1.352
 8297SOL     OW26787  10.290   7.708   1.080
 8297SOL    HW126788  10.301   7.647   1.154
 8297SOL    HW226789  10.342   7.785   1.105
 8298SOL     OW26790   1.006   0.905   9.715
 8298SOL    HW126791   0.912   0.917   9.706
 8298SOL    HW226792   1.044   0.954   9.642
 8299SOL     OW26793   4.514   9.628   3.810
 8299SOL    HW126794   4.503   9.624   3.905
 8299SOL    HW226795   4.536   9.719   3.792
 8300SOL     OW26796  10.266   9.770   4.414
 8300SOL    HW126797  10.205   9.717   4.362
 8300SOL    HW226798  10.252   9.741   4.504
 8301SOL     OW26799   3.411   5.024   2.542
 8301SOL    HW126800   3.352   5.030   2.616
 8301SOL    HW226801   3.358   4.987   2.471
 8302SOL     OW26802   4.781   4.482   2.611
 8302SOL    HW126803   4.830   4.477   2.693
 8302SOL    HW226804   4.732   4.400   2.607
 8303SOL     OW26805   6.112   1.128  14.659
 8303SOL    HW126806   6.020   1.142  14.678
 8303SOL    HW226807   6.146   1.216  14.640
 8304SOL     OW26808   1.906   3.196  11.425
 8304SOL    HW126809   1.860   3.274  11.395
 8304SOL    HW226810   1.940   3.155  11.346
 8305SOL     OW26811   1.675  10.005   4.665
 8305SOL    HW126812   1.732  10.029   4.592
 8305SOL    HW226813   1.663   9.910   4.656
 8306SOL     OW26814   8.495  13.296  14.644
 8306SOL    HW126815   8.405  13.310  14.615
 8306SOL    HW226816   8.543  13.275  14.564
 8307SOL     OW26817  13.162   8.806  13.127
 8307SOL    HW126818  13.210   8.884  13.155
 8307SOL    HW226819  13.101   8.788  13.198
 8308SOL     OW26820  13.941   3.701   3.491
 8308SOL    HW126821  14.008   3.749   3.442
 8308SOL    HW226822  13.860   3.749   3.476
 8309SOL     OW26823  14.661   9.040  11.114
 8309SOL    HW126824  14.591   9.105  11.119
 8309SOL    HW226825  14.639   8.988  11.036
 8310SOL     OW26826   2.484   8.237  10.624
 8310SOL    HW126827   2.465   8.246  10.717
 8310SOL    HW226828   2.507   8.145  10.613
 8311SOL     OW26829   2.786  13.610   8.737
 8311SOL    HW126830   2.801  13.599   8.831
 8311SOL    HW226831   2.738  13.693   8.730
 8312SOL     OW26832  14.612   3.534   3.570
 8312SOL    HW126833  14.542   3.500   3.514
 8312SOL    HW226834  14.690   3.531   3.515
 8313SOL     OW26835  11.578   9.300   7.356
 8313SOL    HW126836  11.494   9.290   7.311
 8313SOL    HW226837  11.637   9.334   7.289
 8314SOL     OW26838  12.799   6.006   0.329
 8314SOL    HW126839  12.825   5.984   0.418
 8314SOL    HW226840  12.806   6.101   0.324
 8315SOL     OW26841   4.516   0.127  12.950
 8315SOL    HW126842   4.505   0.036  12.921
 8315SOL    HW226843   4.457   0.135  13.024
 8316SOL     OW26844   8.538  10.408  13.916
 8316SOL    HW126845   8.569  10.318  13.922
 8316SOL    HW226846   8.509  10.430  14.005
 8317SOL     OW26847   9.788   4.488   1.739
 8317SOL    HW126848   9.775   4.396   1.761
 8317SOL    HW226849   9.824   4.486   1.650
 8318SOL     OW26850   8.801  12.119   1.541
 8318SOL    HW126851   8.838  12.067   1.470
 8318SOL    HW226852   8.785  12.205   1.503
 8319SOL     OW26853   1.338   4.585   6.087
 8319SOL    HW126854   1.324   4.519   6.154
 8319SOL    HW226855   1.428   4.615   6.101
 8320SOL     OW26856  11.169   5.654   8.550
 8320SOL    HW126857  11.074   5.668   8.544
 8320SOL    HW226858  11.200   5.665   8.460
 8321SOL     OW26859  13.474   7.287   6.389
 8321SOL    HW126860  13.403   7.289   6.325
 8321SOL    HW226861  13.496   7.379   6.402
 8322SOL     OW26862  13.400  13.719  10.896
 8322SOL    HW126863  13.348  13.789  10.934
 8322SOL    HW226864  13.402  13.739  10.802
 8323SOL     OW26865  11.848  11.494   2.569
 8323SOL    HW126866  11.869  11.583   2.597
 8323SOL    HW226867  11.788  11.461   2.635
 8324SOL     OW26868  13.830  10.927   7.683
 8324SOL    HW126869  13.761  10.989   7.707
 8324SOL    HW226870  13.810  10.848   7.733
 8325SOL     OW26871  11.837   5.501   0.016
 8325SOL    HW126872  11.872   5.417   0.046
 8325SOL    HW226873  11.875   5.513  14.799
 8326SOL     OW26874   3.887   8.874   4.213
 8326SOL    HW126875   3.824   8.870   4.285
 8326SOL    HW226876   3.870   8.794   4.162
 8327SOL     OW26877   8.902  11.409  14.473
 8327SOL    HW126878   8.858  11.336  14.516
 8327SOL    HW226879   8.849  11.427  14.396
 8328SOL     OW26880   1.231   3.881   1.278
 8328SOL    HW126881   1.145   3.858   1.242
 8328SOL    HW226882   1.228   3.850   1.368
 8329SOL     OW26883  13.200   4.382  12.849
 8329SOL    HW126884  13.168   4.296  12.878
 8329SOL    HW226885  13.123   4.439  12.855
 8330SOL     OW26886  11.933   1.579   6.678
 8330SOL    HW126887  11.849   1.535   6.674
 8330SOL    HW226888  11.982   1.533   6.746
 8331SOL     OW26889  12.322   7.522   1.316
 8331SOL    HW126890  12.287   7.606   1.286
 8331SOL    HW226891  12.262   7.495   1.386
 8332SOL     OW26892   0.193  12.536  11.326
 8332SOL    HW126893   0.122  12.502  11.271
 8332SOL    HW226894   0.237  12.602  11.272
 8333SOL     OW26895   7.476   1.487  10.626
 8333SOL    HW126896   7.466   1.547  10.552
 8333SOL    HW226897   7.408   1.421  10.612
 8334SOL     OW26898   0.078   6.124  10.340
 8334SOL    HW126899   0.166   6.153  10.317
 8334SOL    HW226900   0.023   6.202  10.331
 8335SOL     OW26901   8.774   4.804   3.546
 8335SOL    HW126902   8.807   4.790   3.635
 8335SOL    HW226903   8.689   4.845   3.559
 8336SOL     OW26904   4.972  11.716   6.970
 8336SOL    HW126905   5.001  11.754   6.887
 8336SOL    HW226906   4.979  11.622   6.957
 8337SOL     OW26907  14.370  13.230  14.447
 8337SOL    HW126908  14.333  13.227  14.358
 8337SOL    HW226909  14.357  13.321  14.474
 8338SOL     OW26910   7.117   1.974   1.586
 8338SOL    HW126911   7.160   1.912   1.527
 8338SOL    HW226912   7.143   2.061   1.553
 8339SOL     OW26913   0.620  12.630   0.381
 8339SOL    HW126914   0.685  12.581   0.331
 8339SOL    HW226915   0.561  12.563   0.416
 8340SOL     OW26916   6.322  11.490   6.242
 8340SOL    HW126917   6.343  11.576   6.205
 8340SOL    HW226918   6.235  11.470   6.206
 8341SOL     OW26919   1.456  11.799   2.470
 8341SOL    HW126920   1.451  11.888   2.434
 8341SOL    HW226921   1.438  11.810   2.563
 8342SOL     OW26922   5.051   8.862  13.272
 8342SOL    HW126923   5.146   8.875  13.269
 8342SOL    HW226924   5.039   8.768  13.258
 8343SOL     OW26925   9.828  11.106  13.154
 8343SOL    HW126926   9.855  11.186  13.200
 8343SOL    HW226927   9.776  11.059  13.219
 8344SOL     OW26928  10.622  12.005   1.640
 8344SOL    HW126929  10.576  12.012   1.724
 8344SOL    HW226930  10.673  11.925   1.648
 8345SOL     OW26931   1.153   5.946  13.356
 8345SOL    HW126932   1.144   6.040  13.371
 8345SOL    HW226933   1.105   5.930  13.274
 8346SOL     OW26934   7.774  14.746  10.606
 8346SOL    HW126935   7.760  14.684  10.677
 8346SOL    HW226936   7.855  14.718  10.565
 8347SOL     OW26937   4.256   3.112  12.633
 8347SOL    HW126938   4.262   3.017  12.640
 8347SOL    HW226939   4.235   3.141  12.722
 8348SOL     OW26940   5.887   7.497  12.455
 8348SOL    HW126941   5.828   7.451  12.516
 8348SOL    HW226942   5.972   7.496  12.499
 8349SOL     OW26943  11.294   0.233   8.319
 8349SOL    HW126944  11.334   0.146   8.310
 8349SOL    HW226945  11.281   0.263   8.229
 8350SOL     OW26946   8.432  11.456  14.175
 8350SOL    HW126947   8.413  11.531  14.118
 8350SOL    HW226948   8.389  11.382  14.133
 8351SOL     OW26949  10.341   8.703   0.433
 8351SOL    HW126950  10.341   8.608   0.449
 8351SOL    HW226951  10.419   8.735   0.478
 8352SOL     OW26952   0.944   2.968  12.633
 8352SOL    HW126953   0.994   2.969  12.714
 8352SOL    HW226954   1.010   2.972  12.564
 8353SOL     OW26955   4.263   7.463   5.622
 8353SOL    HW126956   4.349   7.422   5.624
 8353SOL    HW226957   4.266   7.529   5.691
 8354SOL     OW26958  11.365   4.074  10.658
 8354SOL    HW126959  11.454   4.095  10.685
 8354SOL    HW226960  11.357   3.980  10.673
 8355SOL     OW26961   1.589  13.830   8.451
 8355SOL    HW126962   1.602  13.909   8.398
 8355SOL    HW226963   1.577  13.760   8.387
 8356SOL     OW26964   2.252   1.018   4.864
 8356SOL    HW126965   2.163   1.054   4.863
 8356SOL    HW226966   2.243   0.930   4.829
 8357SOL     OW26967   3.510  12.079   5.918
 8357SOL    HW126968   3.582  12.042   5.866
 8357SOL    HW226969   3.547  12.092   6.005
 8358SOL     OW26970   8.965   0.905   2.736
 8358SOL    HW126971   8.936   0.890   2.825
 8358SOL    HW226972   8.998   0.995   2.736
 8359SOL     OW26973   9.314  11.855   6.560
 8359SOL    HW126974   9.364  11.881   6.483
 8359SOL    HW226975   9.251  11.926   6.573
 8360SOL     OW26976  10.562   0.364   2.550
 8360SOL    HW126977  10.512   0.351   2.470
 8360SOL    HW226978  10.624   0.434   2.528
 8361SOL     OW26979   4.236  11.469   7.604
 8361SOL    HW126980   4.256  11.543   7.546
 8361SOL    HW226981   4.168  11.420   7.556
 8362SOL     OW26982  10.595   8.434   0.599
 8362SOL    HW126983  10.555   8.521   0.594
 8362SOL    HW226984  10.529   8.380   0.642
 8363SOL     OW26985  10.316   9.647   2.978
 8363SOL    HW126986  10.329   9.606   3.063
 8363SOL    HW226987  10.395   9.625   2.929
 8364SOL     OW26988   0.053  12.534   5.172
 8364SOL    HW126989   0.103  12.518   5.252
 8364SOL    HW226990   0.118  12.534   5.103
 8365SOL     OW26991   0.384   4.662   0.327
 8365SOL    HW126992   0.315   4.645   0.264
 8365SOL    HW226993   0.339   4.691   0.406
 8366SOL     OW26994   1.779   4.755   5.817
 8366SOL    HW126995   1.866   4.776   5.782
 8366SOL    HW226996   1.796   4.704   5.896
 8367SOL     OW26997   0.527  10.412   5.771
 8367SOL    HW126998   0.518  10.454   5.685
 8367SOL    HW226999   0.618  10.382   5.772
 8368SOL     OW27000   4.598   4.932  12.960
 8368SOL    HW127001   4.502   4.934  12.961
 8368SOL    HW227002   4.622   4.969  12.875
 8369SOL     OW27003   6.648   6.698  13.373
 8369SOL    HW127004   6.606   6.784  13.366
 8369SOL    HW227005   6.650   6.681  13.467
 8370SOL     OW27006   2.039   7.147  10.080
 8370SOL    HW127007   2.065   7.087  10.010
 8370SOL    HW227008   2.100   7.129  10.151
 8371SOL     OW27009   9.635   9.238   1.897
 8371SOL    HW127010   9.574   9.308   1.874
 8371SOL    HW227011   9.579   9.161   1.911
 8372SOL     OW27012  13.044  14.174   3.126
 8372SOL    HW127013  12.962  14.189   3.174
 8372SOL    HW227014  13.089  14.107   3.177
 8373SOL     OW27015  12.235   3.097   5.232
 8373SOL    HW127016  12.239   3.036   5.306
 8373SOL    HW227017  12.249   3.183   5.271
 8374SOL     OW27018   3.554   0.466   5.183
 8374SOL    HW127019   3.611   0.484   5.108
 8374SOL    HW227020   3.614   0.434   5.250
 8375SOL     OW27021  13.796   7.114  12.481
 8375SOL    HW127022  13.766   7.065  12.404
 8375SOL    HW227023  13.848   7.186  12.444
 8376SOL     OW27024   1.683  10.804   9.973
 8376SOL    HW127025   1.666  10.820   9.880
 8376SOL    HW227026   1.642  10.719   9.991
 8377SOL     OW27027  12.256   7.218   6.138
 8377SOL    HW127028  12.332   7.189   6.087
 8377SOL    HW227029  12.219   7.290   6.086
 8378SOL     OW27030   1.772   4.903   3.171
 8378SOL    HW127031   1.731   4.842   3.110
 8378SOL    HW227032   1.799   4.850   3.245
 8379SOL     OW27033   3.531  14.722   1.392
 8379SOL    HW127034   3.459  14.785   1.397
 8379SOL    HW227035   3.572  14.727   1.478
 8380SOL     OW27036   2.941  13.391   4.288
 8380SOL    HW127037   3.010  13.427   4.231
 8380SOL    HW227038   2.968  13.415   4.376
 8381SOL     OW27039  13.006   4.504  11.984
 8381SOL    HW127040  13.034   4.550  11.905
 8381SOL    HW227041  12.912   4.522  11.990
 8382SOL     OW27042   9.434   7.047   4.194
 8382SOL    HW127043   9.389   7.131   4.196
 8382SOL    HW227044   9.450   7.026   4.286
 8383SOL     OW27045   6.984   8.887  10.342
 8383SOL    HW127046   6.996   8.966  10.290
 8383SOL    HW227047   7.014   8.912  10.430
 8384SOL     OW27048   2.460   2.383   6.903
 8384SOL    HW127049   2.544   2.362   6.942
 8384SOL    HW227050   2.480   2.452   6.839
 8385SOL     OW27051  11.646   3.039  14.144
 8385SOL    HW127052  11.558   3.078  14.137
 8385SOL    HW227053  11.702   3.096  14.092
 8386SOL     OW27054   4.021   3.604  10.115
 8386SOL    HW127055   3.977   3.629  10.034
 8386SOL    HW227056   4.113   3.596  10.090
 8387SOL     OW27057   1.573   2.563  11.108
 8387SOL    HW127058   1.602   2.499  11.043
 8387SOL    HW227059   1.487   2.533  11.135
 8388SOL     OW27060   7.476   3.229  13.825
 8388SOL    HW127061   7.381   3.241  13.818
 8388SOL    HW227062   7.512   3.309  13.785
 8389SOL     OW27063   9.433  10.816   9.369
 8389SOL    HW127064   9.387  10.863   9.299
 8389SOL    HW227065   9.363  10.785   9.427
 8390SOL     OW27066   1.076   3.891   1.693
 8390SOL    HW127067   1.087   3.976   1.736
 8390SOL    HW227068   1.150   3.884   1.633
 8391SOL     OW27069   0.813   7.432  14.500
 8391SOL    HW127070   0.818   7.475  14.586
 8391SOL    HW227071   0.904   7.428  14.471
 8392SOL     OW27072  10.250   0.160   3.984
 8392SOL    HW127073  10.185   0.227   4.002
 8392SOL    HW227074  10.249   0.104   4.061
 8393SOL     OW27075   7.783  12.956   7.836
 8393SOL    HW127076   7.743  12.973   7.751
 8393SOL    HW227077   7.826  13.038   7.859
 8394SOL     OW27078   2.461   0.776   0.757
 8394SOL    HW127079   2.544   0.734   0.734
 8394SOL    HW227080   2.483   0.867   0.775
 8395SOL     OW27081  12.571  14.657   2.359
 8395SOL    HW127082  12.663  14.679   2.373
 8395SOL    HW227083  12.546  14.706   2.281
 8396SOL     OW27084  14.188   1.995   0.691
 8396SOL    HW127085  14.174   2.083   0.656
 8396SOL    HW227086  14.122   1.941   0.647
 8397SOL     OW27087  12.829   8.097   7.755
 8397SOL    HW127088  12.820   8.187   7.722
 8397SOL    HW227089  12.789   8.100   7.842
 8398SOL     OW27090   5.404   3.113   9.646
 8398SOL    HW127091   5.376   3.034   9.692
 8398SOL    HW227092   5.440   3.081   9.563
 8399SOL     OW27093   5.785   8.716  13.640
 8399SOL    HW127094   5.796   8.751  13.552
 8399SOL    HW227095   5.848   8.764  13.693
 8400SOL     OW27096   1.976  11.607   2.316
 8400SOL    HW127097   2.062  11.582   2.282
 8400SOL    HW227098   1.916  11.543   2.277
 8401SOL     OW27099   7.452  11.206  14.123
 8401SOL    HW127100   7.419  11.195  14.034
 8401SOL    HW227101   7.538  11.246  14.113
 8402SOL     OW27102   1.487  12.393   5.790
 8402SOL    HW127103   1.443  12.464   5.743
 8402SOL    HW227104   1.531  12.437   5.863
 8403SOL     OW27105   8.581   3.550   2.333
 8403SOL    HW127106   8.573   3.455   2.333
 8403SOL    HW227107   8.645   3.568   2.264
 8404SOL     OW27108  13.932   0.632   0.634
 8404SOL    HW127109  13.921   0.715   0.587
 8404SOL    HW227110  13.950   0.659   0.724
 8405SOL     OW27111   8.159   2.155  12.605
 8405SOL    HW127112   8.106   2.095  12.658
 8405SOL    HW227113   8.157   2.238  12.653
 8406SOL     OW27114   9.807  14.342   2.590
 8406SOL    HW127115   9.788  14.317   2.681
 8406SOL    HW227116   9.895  14.379   2.593
 8407SOL     OW27117  12.151   5.610   9.703
 8407SOL    HW127118  12.197   5.640   9.782
 8407SOL    HW227119  12.059   5.630   9.720
 8408SOL     OW27120   0.642   0.169   7.333
 8408SOL    HW127121   0.652   0.119   7.252
 8408SOL    HW227122   0.548   0.186   7.339
 8409SOL     OW27123   4.623   3.339   8.998
 8409SOL    HW127124   4.587   3.424   9.024
 8409SOL    HW227125   4.694   3.323   9.059
 8410SOL     OW27126   4.202  10.629  10.640
 8410SOL    HW127127   4.275  10.690  10.645
 8410SOL    HW227128   4.229  10.555  10.694
 8411SOL     OW27129   4.908   9.109  11.019
 8411SOL    HW127130   4.826   9.158  11.016
 8411SOL    HW227131   4.968   9.158  10.963
 8412SOL     OW27132  11.408   2.185   5.578
 8412SOL    HW127133  11.476   2.121   5.600
 8412SOL    HW227134  11.440   2.268   5.614
 8413SOL     OW27135   0.220   4.062   5.755
 8413SOL    HW127136   0.147   4.002   5.741
 8413SOL    HW227137   0.178   4.146   5.774
 8414SOL     OW27138   2.165   2.826   3.897
 8414SOL    HW127139   2.075   2.837   3.865
 8414SOL    HW227140   2.178   2.900   3.956
 8415SOL     OW27141   1.173   8.415   3.350
 8415SOL    HW127142   1.100   8.411   3.411
 8415SOL    HW227143   1.177   8.507   3.323
 8416SOL     OW27144  13.925  13.603  11.612
 8416SOL    HW127145  13.871  13.630  11.686
 8416SOL    HW227146  14.007  13.572  11.651
 8417SOL     OW27147   3.770   0.528   0.751
 8417SOL    HW127148   3.702   0.552   0.813
 8417SOL    HW227149   3.819   0.609   0.736
 8418SOL     OW27150  10.907  14.482  10.167
 8418SOL    HW127151  10.993  14.462  10.130
 8418SOL    HW227152  10.902  14.578  10.164
 8419SOL     OW27153   8.539   4.714   4.590
 8419SOL    HW127154   8.596   4.787   4.611
 8419SOL    HW227155   8.461   4.754   4.552
 8420SOL     OW27156  14.740  12.261  10.490
 8420SOL    HW127157  14.720  12.172  10.521
 8420SOL    HW227158  14.812  12.290  10.546
 8421SOL     OW27159   2.900   5.600   8.112
 8421SOL    HW127160   2.926   5.614   8.203
 8421SOL    HW227161   2.909   5.686   8.071
 8422SOL     OW27162   1.177   3.783   7.518
 8422SOL    HW127163   1.257   3.749   7.479
 8422SOL    HW227164   1.143   3.710   7.571
 8423SOL     OW27165   6.126  13.885  10.534
 8423SOL    HW127166   6.168  13.969  10.513
 8423SOL    HW227167   6.091  13.854  10.450
 8424SOL     OW27168   2.353  12.128   5.676
 8424SOL    HW127169   2.412  12.088   5.740
 8424SOL    HW227170   2.386  12.218   5.666
 8425SOL     OW27171  13.842   1.970   7.329
 8425SOL    HW127172  13.877   1.981   7.417
 8425SOL    HW227173  13.811   1.880   7.326
 8426SOL     OW27174   8.763   7.392   2.858
 8426SOL    HW127175   8.796   7.477   2.887
 8426SOL    HW227176   8.841   7.341   2.840
 8427SOL     OW27177   8.528  11.617   1.950
 8427SOL    HW127178   8.582  11.669   1.891
 8427SOL    HW227179   8.440  11.621   1.913
 8428SOL     OW27180   4.346   9.780   5.754
 8428SOL    HW127181   4.440   9.793   5.742
 8428SOL    HW227182   4.327   9.699   5.708
 8429SOL     OW27183   1.475  10.401  11.975
 8429SOL    HW127184   1.519  10.484  11.961
 8429SOL    HW227185   1.491  10.380  12.067
 8430SOL     OW27186   7.054   8.350   7.311
 8430SOL    HW127187   7.010   8.434   7.311
 8430SOL    HW227188   6.997   8.292   7.362
 8431SOL     OW27189   1.169  14.107  11.769
 8431SOL    HW127190   1.174  14.170  11.842
 8431SOL    HW227191   1.088  14.129  11.724
 8432SOL     OW27192   4.497   5.912  13.264
 8432SOL    HW127193   4.487   6.007  13.263
 8432SOL    HW227194   4.522   5.890  13.174
 8433SOL     OW27195  14.384   6.160   2.469
 8433SOL    HW127196  14.350   6.163   2.558
 8433SOL    HW227197  14.308   6.182   2.414
 8434SOL     OW27198   5.351  13.117   0.794
 8434SOL    HW127199   5.272  13.161   0.826
 8434SOL    HW227200   5.320  13.034   0.759
 8435SOL     OW27201   6.512  12.190   3.997
 8435SOL    HW127202   6.546  12.102   4.015
 8435SOL    HW227203   6.467  12.182   3.913
 8436SOL     OW27204   8.530   5.098   0.380
 8436SOL    HW127205   8.506   5.178   0.427
 8436SOL    HW227206   8.594   5.127   0.314
 8437SOL     OW27207   4.567  14.680   5.917
 8437SOL    HW127208   4.541  14.766   5.949
 8437SOL    HW227209   4.646  14.659   5.967
 8438SOL     OW27210  11.298  12.161   2.439
 8438SOL    HW127211  11.206  12.183   2.458
 8438SOL    HW227212  11.292  12.093   2.372
 8439SOL     OW27213  13.905   1.514  10.939
 8439SOL    HW127214  13.935   1.435  10.984
 8439SOL    HW227215  13.983   1.569  10.932
 8440SOL     OW27216   9.724   7.810  10.687
 8440SOL    HW127217   9.743   7.822  10.780
 8440SOL    HW227218   9.779   7.876  10.643
 8441SOL     OW27219  10.108   9.904  12.070
 8441SOL    HW127220  10.159   9.823  12.075
 8441SOL    HW227221  10.053   9.892  11.993
 8442SOL     OW27222   8.212   4.796   4.821
 8442SOL    HW127223   8.175   4.790   4.733
 8442SOL    HW227224   8.153   4.856   4.868
 8443SOL     OW27225  11.245   7.741   7.147
 8443SOL    HW127226  11.261   7.836   7.149
 8443SOL    HW227227  11.255   7.714   7.238
 8444SOL     OW27228  10.036   0.201   8.510
 8444SOL    HW127229   9.950   0.232   8.536
 8444SOL    HW227230  10.039   0.109   8.539
 8445SOL     OW27231   7.187   2.932  12.103
 8445SOL    HW127232   7.133   3.000  12.064
 8445SOL    HW227233   7.205   2.871  12.031
 8446SOL     OW27234  13.425   1.639   9.354
 8446SOL    HW127235  13.420   1.575   9.426
 8446SOL    HW227236  13.342   1.687   9.360
 8447SOL     OW27237   9.544   1.651   1.488
 8447SOL    HW127238   9.582   1.570   1.454
 8447SOL    HW227239   9.597   1.720   1.449
 8448SOL     OW27240  12.704   3.758   2.360
 8448SOL    HW127241  12.711   3.740   2.454
 8448SOL    HW227242  12.610   3.756   2.342
 8449SOL     OW27243   4.627  14.148  10.066
 8449SOL    HW127244   4.699  14.108  10.019
 8449SOL    HW227245   4.565  14.174   9.998
 8450SOL     OW27246   9.630   4.010   5.565
 8450SOL    HW127247   9.607   3.973   5.480
 8450SOL    HW227248   9.554   3.993   5.620
 8451SOL     OW27249   1.061   2.227   3.125
 8451SOL    HW127250   1.111   2.181   3.058
 8451SOL    HW227251   1.056   2.317   3.093
 8452SOL     OW27252   8.969   5.591   3.496
 8452SOL    HW127253   8.930   5.589   3.409
 8452SOL    HW227254   8.926   5.519   3.543
 8453SOL     OW27255  14.480  13.078   2.860
 8453SOL    HW127256  14.419  13.149   2.879
 8453SOL    HW227257  14.444  13.036   2.782
 8454SOL     OW27258   2.412   0.195  13.603
 8454SOL    HW127259   2.398   0.277  13.557
 8454SOL    HW227260   2.469   0.145  13.545
 8455SOL     OW27261   9.282  12.384   3.899
 8455SOL    HW127262   9.252  12.348   3.815
 8455SOL    HW227263   9.298  12.476   3.882
 8456SOL     OW27264   4.243   2.104  12.353
 8456SOL    HW127265   4.275   2.021  12.388
 8456SOL    HW227266   4.189   2.141  12.424
 8457SOL     OW27267   8.001  13.046   4.446
 8457SOL    HW127268   7.991  13.138   4.468
 8457SOL    HW227269   8.076  13.017   4.498
 8458SOL     OW27270   6.054   3.322   4.398
 8458SOL    HW127271   6.045   3.235   4.438
 8458SOL    HW227272   6.130   3.315   4.341
 8459SOL     OW27273  14.209  14.743   4.469
 8459SOL    HW127274  14.265  14.701   4.403
 8459SOL    HW227275  14.257  14.733   4.551
 8460SOL     OW27276   1.138   5.601   5.181
 8460SOL    HW127277   1.081   5.552   5.240
 8460SOL    HW227278   1.081   5.668   5.143
 8461SOL     OW27279  10.571   5.525   1.756
 8461SOL    HW127280  10.498   5.473   1.721
 8461SOL    HW227281  10.600   5.477   1.833
 8462SOL     OW27282   9.147  14.172   7.285
 8462SOL    HW127283   9.085  14.172   7.212
 8462SOL    HW227284   9.102  14.123   7.354
 8463SOL     OW27285  10.539   4.428   2.395
 8463SOL    HW127286  10.573   4.474   2.472
 8463SOL    HW227287  10.602   4.357   2.380
 8464SOL     OW27288  11.762   0.921   2.096
 8464SOL    HW127289  11.798   0.877   2.173
 8464SOL    HW227290  11.685   0.968   2.128
 8465SOL     OW27291   6.665   3.562   6.212
 8465SOL    HW127292   6.594   3.624   6.226
 8465SOL    HW227293   6.732   3.613   6.165
 8466SOL     OW27294   6.784  11.653  11.628
 8466SOL    HW127295   6.813  11.732  11.583
 8466SOL    HW227296   6.824  11.581  11.578
 8467SOL     OW27297   7.664   6.726   5.583
 8467SOL    HW127298   7.724   6.780   5.634
 8467SOL    HW227299   7.720   6.682   5.518
 8468SOL     OW27300   6.760  12.115  13.979
 8468SOL    HW127301   6.729  12.191  13.929
 8468SOL    HW227302   6.703  12.111  14.055
 8469SOL     OW27303  13.103   3.365  11.331
 8469SOL    HW127304  13.087   3.328  11.245
 8469SOL    HW227305  13.097   3.291  11.391
 8470SOL     OW27306   0.605   6.476  11.039
 8470SOL    HW127307   0.541   6.509  10.976
 8470SOL    HW227308   0.663   6.421  10.986
 8471SOL     OW27309  11.889   2.863   0.576
 8471SOL    HW127310  11.869   2.811   0.498
 8471SOL    HW227311  11.953   2.810   0.624
 8472SOL     OW27312  14.827   8.879   2.160
 8472SOL    HW127313   0.029   8.933   2.194
 8472SOL    HW227314  14.868   8.794   2.141
 8473SOL     OW27315   5.775   4.074   9.262
 8473SOL    HW127316   5.871   4.069   9.261
 8473SOL    HW227317   5.748   4.006   9.200
 8474SOL     OW27318  11.204   8.329  11.902
 8474SOL    HW127319  11.109   8.319  11.892
 8474SOL    HW227320  11.239   8.314  11.814
 8475SOL     OW27321  12.100   8.885  11.833
 8475SOL    HW127322  12.065   8.876  11.922
 8475SOL    HW227323  12.153   8.965  11.836
 8476SOL     OW27324   5.179  12.889   0.756
 8476SOL    HW127325   5.189  12.823   0.687
 8476SOL    HW227326   5.086  12.887   0.777
 8477SOL     OW27327   7.006   0.942   2.396
 8477SOL    HW127328   6.998   0.847   2.404
 8477SOL    HW227329   6.922   0.970   2.358
 8478SOL     OW27330   1.192   6.668   5.577
 8478SOL    HW127331   1.253   6.719   5.630
 8478SOL    HW227332   1.140   6.733   5.530
 8479SOL     OW27333  12.055  14.691  14.677
 8479SOL    HW127334  12.149  14.678  14.688
 8479SOL    HW227335  12.046  14.737  14.593
 8480SOL     OW27336   5.026   5.887   7.646
 8480SOL    HW127337   4.982   5.838   7.577
 8480SOL    HW227338   5.026   5.977   7.615
 8481SOL     OW27339   9.471  14.158   6.770
 8481SOL    HW127340   9.445  14.080   6.820
 8481SOL    HW227341   9.541  14.128   6.713
 8482SOL     OW27342   4.143   0.313   9.598
 8482SOL    HW127343   4.180   0.401   9.596
 8482SOL    HW227344   4.146   0.284   9.507
 8483SOL     OW27345  12.780   4.421  13.992
 8483SOL    HW127346  12.833   4.360  14.043
 8483SOL    HW227347  12.829   4.432  13.910
 8484SOL     OW27348   1.109   2.817  14.373
 8484SOL    HW127349   1.173   2.858  14.431
 8484SOL    HW227350   1.028   2.864  14.389
 8485SOL     OW27351   1.263   3.653   5.165
 8485SOL    HW127352   1.187   3.627   5.114
 8485SOL    HW227353   1.262   3.749   5.162
 8486SOL     OW27354  12.955   4.988   5.785
 8486SOL    HW127355  12.883   4.925   5.786
 8486SOL    HW227356  13.028   4.941   5.826
 8487SOL     OW27357   1.618   4.824   4.266
 8487SOL    HW127358   1.620   4.779   4.351
 8487SOL    HW227359   1.602   4.916   4.288
 8488SOL     OW27360   8.933  14.661  14.118
 8488SOL    HW127361   8.862  14.724  14.107
 8488SOL    HW227362   9.012  14.711  14.096
 8489SOL     OW27363   2.231   2.660   5.214
 8489SOL    HW127364   2.299   2.635   5.152
 8489SOL    HW227365   2.209   2.750   5.191
 8490SOL     OW27366   7.836   5.625  14.761
 8490SOL    HW127367   7.748   5.661  14.769
 8490SOL    HW227368   7.842   5.560  14.831
 8491SOL     OW27369  11.637  12.611   1.152
 8491SOL    HW127370  11.586  12.691   1.140
 8491SOL    HW227371  11.583  12.542   1.112
 8492SOL     OW27372   3.720   4.228  12.196
 8492SOL    HW127373   3.693   4.286  12.267
 8492SOL    HW227374   3.811   4.253  12.180
 8493SOL     OW27375  13.186  12.673  10.264
 8493SOL    HW127376  13.260  12.695  10.208
 8493SOL    HW227377  13.176  12.748  10.322
 8494SOL     OW27378   3.739  13.537  11.896
 8494SOL    HW127379   3.708  13.539  11.987
 8494SOL    HW227380   3.830  13.510  11.903
 8495SOL     OW27381  14.285   4.583  11.110
 8495SOL    HW127382  14.280   4.493  11.141
 8495SOL    HW227383  14.196   4.603  11.080
 8496SOL     OW27384  14.840   9.900  11.429
 8496SOL    HW127385   0.062   9.922  11.444
 8496SOL    HW227386  14.843   9.817  11.380
 8497SOL     OW27387   0.781   4.559   8.910
 8497SOL    HW127388   0.794   4.468   8.939
 8497SOL    HW227389   0.781   4.554   8.814
 8498SOL     OW27390   6.192  12.106   7.868
 8498SOL    HW127391   6.269  12.162   7.881
 8498SOL    HW227392   6.124  12.167   7.837
 8499SOL     OW27393   4.858  10.617  12.519
 8499SOL    HW127394   4.927  10.683  12.527
 8499SOL    HW227395   4.800  10.652  12.451
 8500SOL     OW27396   4.447   0.449   9.269
 8500SOL    HW127397   4.352   0.447   9.268
 8500SOL    HW227398   4.473   0.368   9.314
 8501SOL     OW27399  12.231  14.693   1.662
 8501SOL    HW127400  12.252  14.637   1.587
 8501SOL    HW227401  12.271  14.648   1.737
 8502SOL     OW27402   7.716   3.667  12.955
 8502SOL    HW127403   7.710   3.743  13.013
 8502SOL    HW227404   7.696   3.592  13.011
 8503SOL     OW27405   4.725   6.849   9.368
 8503SOL    HW127406   4.676   6.926   9.396
 8503SOL    HW227407   4.746   6.866   9.277
 8504SOL     OW27408   5.676   1.380   9.070
 8504SOL    HW127409   5.611   1.317   9.039
 8504SOL    HW227410   5.760   1.337   9.058
 8505SOL     OW27411  10.291  13.752   9.885
 8505SOL    HW127412  10.374  13.796   9.868
 8505SOL    HW227413  10.227  13.823   9.894
 8506SOL     OW27414  14.515  12.275   9.626
 8506SOL    HW127415  14.563  12.196   9.652
 8506SOL    HW227416  14.484  12.257   9.538
 8507SOL     OW27417   3.031   3.091   2.928
 8507SOL    HW127418   3.038   3.054   3.016
 8507SOL    HW227419   3.065   3.023   2.871
 8508SOL     OW27420   5.564   5.932   4.061
 8508SOL    HW127421   5.504   6.005   4.075
 8508SOL    HW227422   5.571   5.890   4.147
 8509SOL     OW27423   5.982   1.392  10.784
 8509SOL    HW127424   5.955   1.301  10.796
 8509SOL    HW227425   6.076   1.392  10.803
 8510SOL     OW27426   2.650  14.147   6.859
 8510SOL    HW127427   2.560  14.118   6.844
 8510SOL    HW227428   2.646  14.242   6.856
 8511SOL     OW27429   8.462   8.656   2.671
 8511SOL    HW127430   8.417   8.628   2.751
 8511SOL    HW227431   8.414   8.611   2.600
 8512SOL     OW27432   3.888  12.926   5.574
 8512SOL    HW127433   3.892  12.982   5.652
 8512SOL    HW227434   3.960  12.865   5.585
 8513SOL     OW27435  13.595  13.343   7.921
 8513SOL    HW127436  13.529  13.296   7.973
 8513SOL    HW227437  13.622  13.281   7.854
 8514SOL     OW27438  11.564   1.183   7.674
 8514SOL    HW127439  11.629   1.197   7.743
 8514SOL    HW227440  11.584   1.095   7.640
 8515SOL     OW27441   0.716  13.291   6.048
 8515SOL    HW127442   0.641  13.307   6.104
 8515SOL    HW227443   0.699  13.206   6.007
 8516SOL     OW27444   2.203  14.791   0.894
 8516SOL    HW127445   2.190  14.783   0.800
 8516SOL    HW227446   2.157  14.716   0.931
 8517SOL     OW27447  12.345   8.782   1.505
 8517SOL    HW127448  12.413   8.728   1.547
 8517SOL    HW227449  12.368   8.872   1.528
 8518SOL     OW27450  11.495  10.069   2.361
 8518SOL    HW127451  11.491  10.040   2.269
 8518SOL    HW227452  11.426  10.135   2.368
 8519SOL     OW27453   2.125   6.666   8.551
 8519SOL    HW127454   2.124   6.734   8.484
 8519SOL    HW227455   2.126   6.583   8.502
 8520SOL     OW27456  10.184  10.252   5.824
 8520SOL    HW127457  10.088  10.252   5.819
 8520SOL    HW227458  10.205  10.316   5.891
 8521SOL     OW27459  11.672   8.879   9.153
 8521SOL    HW127460  11.667   8.854   9.245
 8521SOL    HW227461  11.725   8.959   9.152
 8522SOL     OW27462  10.208   9.721   0.803
 8522SOL    HW127463  10.133   9.732   0.861
 8522SOL    HW227464  10.273   9.785   0.834
 8523SOL     OW27465  10.373   5.317  13.250
 8523SOL    HW127466  10.342   5.373  13.180
 8523SOL    HW227467  10.315   5.240  13.247
 8524SOL     OW27468   8.493   6.598  11.556
 8524SOL    HW127469   8.490   6.532  11.487
 8524SOL    HW227470   8.415   6.652  11.542
 8525SOL     OW27471   4.318   4.425   6.703
 8525SOL    HW127472   4.271   4.371   6.767
 8525SOL    HW227473   4.250   4.460   6.646
 8526SOL     OW27474  13.048   7.154  11.841
 8526SOL    HW127475  13.138   7.131  11.864
 8526SOL    HW227476  13.045   7.250  11.846
 8527SOL     OW27477   3.156   8.100  12.814
 8527SOL    HW127478   3.196   8.146  12.887
 8527SOL    HW227479   3.062   8.111  12.826
 8528SOL     OW27480   9.687   2.273   1.776
 8528SOL    HW127481   9.777   2.282   1.743
 8528SOL    HW227482   9.697   2.246   1.867
 8529SOL     OW27483   6.525   9.070  11.225
 8529SOL    HW127484   6.501   9.102  11.138
 8529SOL    HW227485   6.594   9.130  11.254
 8530SOL     OW27486  14.232  12.723   5.607
 8530SOL    HW127487  14.179  12.693   5.533
 8530SOL    HW227488  14.316  12.748   5.567
 8531SOL     OW27489  11.742   4.630   3.098
 8531SOL    HW127490  11.663   4.662   3.144
 8531SOL    HW227491  11.725   4.537   3.083
 8532SOL     OW27492  10.128  10.892   7.082
 8532SOL    HW127493  10.149  10.801   7.062
 8532SOL    HW227494  10.071  10.888   7.158
 8533SOL     OW27495  13.522   2.613   8.321
 8533SOL    HW127496  13.541   2.616   8.415
 8533SOL    HW227497  13.427   2.606   8.316
 8534SOL     OW27498  11.414   0.002   8.306
 8534SOL    HW127499  11.379  14.797   8.354
 8534SOL    HW227500  11.497  14.840   8.268
 8535SOL     OW27501   0.484  11.942   9.332
 8535SOL    HW127502   0.495  11.902   9.246
 8535SOL    HW227503   0.392  11.927   9.355
 8536SOL     OW27504   2.417   9.887  14.541
 8536SOL    HW127505   2.423   9.839  14.624
 8536SOL    HW227506   2.499   9.936  14.536
 8537SOL     OW27507  10.103   6.619   5.407
 8537SOL    HW127508  10.197   6.600   5.403
 8537SOL    HW227509  10.067   6.579   5.328
 8538SOL     OW27510  12.512   5.584   3.129
 8538SOL    HW127511  12.433   5.634   3.112
 8538SOL    HW227512  12.581   5.649   3.135
 8539SOL     OW27513   7.845   7.793   6.064
 8539SOL    HW127514   7.776   7.785   5.998
 8539SOL    HW227515   7.801   7.830   6.140
 8540SOL     OW27516  10.052   0.809   3.608
 8540SOL    HW127517  10.072   0.802   3.702
 8540SOL    HW227518  10.129   0.773   3.564
 8541SOL     OW27519   3.177   5.670   9.245
 8541SOL    HW127520   3.231   5.743   9.214
 8541SOL    HW227521   3.157   5.692   9.336
 8542SOL     OW27522   8.081   9.439   5.575
 8542SOL    HW127523   8.067   9.508   5.640
 8542SOL    HW227524   7.998   9.391   5.574
 8543SOL     OW27525  10.030  10.417  12.644
 8543SOL    HW127526  10.094  10.442  12.576
 8543SOL    HW227527   9.973  10.494  12.652
 8544SOL     OW27528   3.027  10.415  11.444
 8544SOL    HW127529   3.078  10.380  11.516
 8544SOL    HW227530   2.997  10.501  11.476
 8545SOL     OW27531  13.280  14.235   5.101
 8545SOL    HW127532  13.235  14.277   5.174
 8545SOL    HW227533  13.232  14.153   5.087
 8546SOL     OW27534   9.919   5.024   3.531
 8546SOL    HW127535   9.931   5.042   3.437
 8546SOL    HW227536   9.824   5.013   3.541
 8547SOL     OW27537   0.697  10.577   5.977
 8547SOL    HW127538   0.742  10.573   5.892
 8547SOL    HW227539   0.746  10.642   6.027
 8548SOL     OW27540  11.692  13.996  14.607
 8548SOL    HW127541  11.639  13.986  14.527
 8548SOL    HW227542  11.780  13.972  14.579
 8549SOL     OW27543  13.226  10.137   9.744
 8549SOL    HW127544  13.237  10.216   9.692
 8549SOL    HW227545  13.296  10.079   9.717
 8550SOL     OW27546  12.054   9.996  11.401
 8550SOL    HW127547  12.088   9.990  11.491
 8550SOL    HW227548  12.101   9.928  11.353
 8551SOL     OW27549   3.715   4.083   5.491
 8551SOL    HW127550   3.735   4.172   5.520
 8551SOL    HW227551   3.731   4.028   5.568
 8552SOL     OW27552   5.114   3.639  14.211
 8552SOL    HW127553   5.160   3.579  14.270
 8552SOL    HW227554   5.055   3.583  14.161
 8553SOL     OW27555   3.923   9.015  14.580
 8553SOL    HW127556   3.921   9.107  14.553
 8553SOL    HW227557   4.005   8.981  14.542
 8554SOL     OW27558  12.900   2.981   5.714
 8554SOL    HW127559  12.876   2.933   5.793
 8554SOL    HW227560  12.995   2.978   5.711
 8555SOL     OW27561   1.414  13.749  11.509
 8555SOL    HW127562   1.334  13.766  11.460
 8555SOL    HW227563   1.384  13.713  11.592
 8556SOL     OW27564  14.064   4.066  10.692
 8556SOL    HW127565  14.085   4.097  10.604
 8556SOL    HW227566  14.016   4.139  10.731
 8557SOL     OW27567   8.260   7.505   8.636
 8557SOL    HW127568   8.226   7.429   8.588
 8557SOL    HW227569   8.187   7.533   8.691
 8558SOL     OW27570  11.637   9.470   6.619
 8558SOL    HW127571  11.665   9.535   6.684
 8558SOL    HW227572  11.545   9.493   6.600
 8559SOL     OW27573  10.732  13.879   6.223
 8559SOL    HW127574  10.810  13.928   6.197
 8559SOL    HW227575  10.713  13.910   6.312
 8560SOL     OW27576   4.717  10.501   2.195
 8560SOL    HW127577   4.697  10.407   2.191
 8560SOL    HW227578   4.631  10.543   2.206
 8561SOL     OW27579   3.486   9.684   7.335
 8561SOL    HW127580   3.435   9.613   7.297
 8561SOL    HW227581   3.467   9.760   7.280
 8562SOL     OW27582  14.712  11.174   7.845
 8562SOL    HW127583  14.708  11.190   7.751
 8562SOL    HW227584  14.694  11.259   7.884
 8563SOL     OW27585   8.503   0.747   4.412
 8563SOL    HW127586   8.504   0.841   4.396
 8563SOL    HW227587   8.592   0.726   4.440
 8564SOL     OW27588   8.731   2.290  11.408
 8564SOL    HW127589   8.771   2.349  11.472
 8564SOL    HW227590   8.805   2.245  11.368
 8565SOL     OW27591  10.070   6.374   5.770
 8565SOL    HW127592  10.141   6.429   5.737
 8565SOL    HW227593  10.091   6.286   5.738
 8566SOL     OW27594  13.885   8.972   1.601
 8566SOL    HW127595  13.809   9.029   1.588
 8566SOL    HW227596  13.871   8.935   1.688
 8567SOL     OW27597  11.461  11.965  11.338
 8567SOL    HW127598  11.550  11.936  11.361
 8567SOL    HW227599  11.405  11.890  11.359
 8568SOL     OW27600  10.453  10.794  13.305
 8568SOL    HW127601  10.379  10.734  13.304
 8568SOL    HW227602  10.462  10.821  13.213
 8569SOL     OW27603  10.626   2.595  11.472
 8569SOL    HW127604  10.583   2.654  11.534
 8569SOL    HW227605  10.598   2.507  11.499
 8570SOL     OW27606  10.210   3.789  12.683
 8570SOL    HW127607  10.243   3.862  12.630
 8570SOL    HW227608  10.150   3.829  12.745
 8571SOL     OW27609   2.116   7.448  14.049
 8571SOL    HW127610   2.169   7.393  14.107
 8571SOL    HW227611   2.180   7.490  13.992
 8572SOL     OW27612   5.248  14.475   1.048
 8572SOL    HW127613   5.315  14.414   1.018
 8572SOL    HW227614   5.167  14.443   1.010
 8573SOL     OW27615   0.637   7.948   6.081
 8573SOL    HW127616   0.643   8.040   6.059
 8573SOL    HW227617   0.724   7.925   6.114
 8574SOL     OW27618   8.145   7.126   8.267
 8574SOL    HW127619   8.058   7.154   8.239
 8574SOL    HW227620   8.193   7.110   8.186
 8575SOL     OW27621   1.169   3.531   5.624
 8575SOL    HW127622   1.212   3.568   5.547
 8575SOL    HW227623   1.123   3.454   5.591
 8576SOL     OW27624  12.013   6.555   1.133
 8576SOL    HW127625  12.059   6.546   1.216
 8576SOL    HW227626  11.920   6.558   1.157
 8577SOL     OW27627   1.765   5.926  12.073
 8577SOL    HW127628   1.722   6.004  12.108
 8577SOL    HW227629   1.835   5.908  12.135
 8578SOL     OW27630   8.613  10.124   1.189
 8578SOL    HW127631   8.630  10.075   1.108
 8578SOL    HW227632   8.700  10.141   1.226
 8579SOL     OW27633  14.043  11.610  12.059
 8579SOL    HW127634  14.008  11.616  11.970
 8579SOL    HW227635  14.062  11.517  12.071
 8580SOL     OW27636   5.835  10.550  11.541
 8580SOL    HW127637   5.795  10.465  11.527
 8580SOL    HW227638   5.929  10.535  11.526
 8581SOL     OW27639   4.551   1.856  13.647
 8581SOL    HW127640   4.527   1.914  13.575
 8581SOL    HW227641   4.605   1.911  13.704
 8582SOL     OW27642   2.834   0.197   1.882
 8582SOL    HW127643   2.831   0.117   1.829
 8582SOL    HW227644   2.803   0.266   1.823
 8583SOL     OW27645   8.146   1.006   7.428
 8583SOL    HW127646   8.058   0.993   7.461
 8583SOL    HW227647   8.157   0.939   7.361
 8584SOL     OW27648   1.130   4.763   7.289
 8584SOL    HW127649   1.061   4.735   7.229
 8584SOL    HW227650   1.083   4.788   7.369
 8585SOL     OW27651   4.544   7.285  14.017
 8585SOL    HW127652   4.518   7.209  13.965
 8585SOL    HW227653   4.478   7.351  13.997
 8586SOL     OW27654   1.272  10.730  14.854
 8586SOL    HW127655   1.336  10.788  14.812
 8586SOL    HW227656   1.292  10.735   0.077
 8587SOL     OW27657   6.428  12.616   9.966
 8587SOL    HW127658   6.512  12.658   9.948
 8587SOL    HW227659   6.447  12.523   9.964
 8588SOL     OW27660  11.645   4.846  14.800
 8588SOL    HW127661  11.721   4.882  14.845
 8588SOL    HW227662  11.577   4.914  14.809
 8589SOL     OW27663   1.063   9.176   6.645
 8589SOL    HW127664   1.048   9.261   6.603
 8589SOL    HW227665   1.105   9.123   6.578
 8590SOL     OW27666  10.815   6.871  10.421
 8590SOL    HW127667  10.791   6.793  10.472
 8590SOL    HW227668  10.844   6.836  10.336
 8591SOL     OW27669   8.984   6.798   3.415
 8591SOL    HW127670   9.010   6.718   3.368
 8591SOL    HW227671   9.000   6.868   3.352
 8592SOL     OW27672  10.607   6.980  14.027
 8592SOL    HW127673  10.636   6.901  13.981
 8592SOL    HW227674  10.629   6.964  14.119
 8593SOL     OW27675   1.810  11.711   6.260
 8593SOL    HW127676   1.821  11.631   6.209
 8593SOL    HW227677   1.895  11.755   6.254
 8594SOL     OW27678   8.609   4.028  12.682
 8594SOL    HW127679   8.544   4.017  12.752
 8594SOL    HW227680   8.658   3.946  12.684
 8595SOL     OW27681   3.559  12.958   9.239
 8595SOL    HW127682   3.626  12.898   9.209
 8595SOL    HW227683   3.508  12.907   9.302
 8596SOL     OW27684  12.808   0.932   6.507
 8596SOL    HW127685  12.833   0.906   6.596
 8596SOL    HW227686  12.776   0.851   6.467
 8597SOL     OW27687   9.749  14.706  14.608
 8597SOL    HW127688   9.756  14.695  14.703
 8597SOL    HW227689   9.835  14.736  14.581
 8598SOL     OW27690   0.727   3.790   7.039
 8598SOL    HW127691   0.646   3.740   7.030
 8598SOL    HW227692   0.706   3.859   7.102
 8599SOL     OW27693   3.032   0.140   2.064
 8599SOL    HW127694   3.103   0.157   2.003
 8599SOL    HW227695   2.952   0.160   2.014
 8600SOL     OW27696   9.125  13.642   2.406
 8600SOL    HW127697   9.091  13.668   2.321
 8600SOL    HW227698   9.162  13.555   2.392
 8601SOL     OW27699   8.386   3.343   5.507
 8601SOL    HW127700   8.308   3.388   5.475
 8601SOL    HW227701   8.384   3.258   5.463
 8602SOL     OW27702  13.063   8.266   0.282
 8602SOL    HW127703  12.968   8.253   0.280
 8602SOL    HW227704  13.097   8.212   0.211
 8603SOL     OW27705   1.981  10.337   2.979
 8603SOL    HW127706   1.923  10.266   2.953
 8603SOL    HW227707   1.930  10.417   2.963
 8604SOL     OW27708  13.470  10.564  11.986
 8604SOL    HW127709  13.489  10.653  11.959
 8604SOL    HW227710  13.556  10.524  11.999
 8605SOL     OW27711  13.553   1.489   2.106
 8605SOL    HW127712  13.501   1.421   2.149
 8605SOL    HW227713  13.604   1.528   2.176
 8606SOL     OW27714   0.005   1.998  14.051
 8606SOL    HW127715  14.792   1.973  14.093
 8606SOL    HW227716   0.068   1.933  14.082
 8607SOL     OW27717   6.551  10.707   6.686
 8607SOL    HW127718   6.495  10.732   6.612
 8607SOL    HW227719   6.607  10.783   6.700
 8608SOL     OW27720  10.707   0.550  11.278
 8608SOL    HW127721  10.681   0.592  11.360
 8608SOL    HW227722  10.781   0.494  11.303
 8609SOL     OW27723  13.548  10.759   4.377
 8609SOL    HW127724  13.550  10.799   4.290
 8609SOL    HW227725  13.634  10.779   4.415
 8610SOL     OW27726   1.773   8.213   8.599
 8610SOL    HW127727   1.861   8.188   8.628
 8610SOL    HW227728   1.771   8.308   8.605
 8611SOL     OW27729  14.782  13.100   2.304
 8611SOL    HW127730  14.797  13.072   2.213
 8611SOL    HW227731  14.814  13.190   2.306
 8612SOL     OW27732   7.360  11.745   2.039
 8612SOL    HW127733   7.437  11.745   2.095
 8612SOL    HW227734   7.357  11.657   2.001
 8613SOL     OW27735   7.333   5.165   8.427
 8613SOL    HW127736   7.239   5.164   8.443
 8613SOL    HW227737   7.362   5.075   8.442
 8614SOL     OW27738   8.250   0.010   7.807
 8614SOL    HW127739   8.169   0.008   7.858
 8614SOL    HW227740   8.320   0.006   7.871
 8615SOL     OW27741   8.075   3.791   7.544
 8615SOL    HW127742   8.032   3.872   7.571
 8615SOL    HW227743   8.030   3.722   7.593
 8616SOL     OW27744   5.616   5.988  12.089
 8616SOL    HW127745   5.666   5.927  12.144
 8616SOL    HW227746   5.645   5.968  12.000
 8617SOL     OW27747   3.806   6.402   8.028
 8617SOL    HW127748   3.834   6.434   7.942
 8617SOL    HW227749   3.711   6.417   8.030
 8618SOL     OW27750   1.056  13.901  13.921
 8618SOL    HW127751   1.082  13.900  13.829
 8618SOL    HW227752   1.081  13.814  13.953
 8619SOL     OW27753   7.740   4.115  13.426
 8619SOL    HW127754   7.760   4.207  13.441
 8619SOL    HW227755   7.734   4.077  13.513
 8620SOL     OW27756  10.988   2.810   5.368
 8620SOL    HW127757  10.976   2.869   5.442
 8620SOL    HW227758  11.083   2.804   5.357
 8621SOL     OW27759   4.208   2.631   6.468
 8621SOL    HW127760   4.236   2.661   6.381
 8621SOL    HW227761   4.244   2.696   6.528
 8622SOL     OW27762  14.863  11.961   8.664
 8622SOL    HW127763   0.055  12.029   8.692
 8622SOL    HW227764  14.833  11.989   8.577
 8623SOL     OW27765   3.152   7.745   5.572
 8623SOL    HW127766   3.074   7.732   5.517
 8623SOL    HW227767   3.131   7.702   5.654
 8624SOL     OW27768   6.983   9.716   9.614
 8624SOL    HW127769   7.040   9.759   9.550
 8624SOL    HW227770   6.897   9.754   9.598
 8625SOL     OW27771  12.834   0.979  13.484
 8625SOL    HW127772  12.917   0.931  13.487
 8625SOL    HW227773  12.856   1.062  13.440
 8626SOL     OW27774   9.671   4.913   1.423
 8626SOL    HW127775   9.763   4.889   1.418
 8626SOL    HW227776   9.670   4.992   1.477
 8627SOL     OW27777   4.934  10.798   0.989
 8627SOL    HW127778   4.903  10.842   0.910
 8627SOL    HW227779   4.975  10.868   1.040
 8628SOL     OW27780  14.530   4.886  12.911
 8628SOL    HW127781  14.435   4.880  12.897
 8628SOL    HW227782  14.568   4.840  12.837
 8629SOL     OW27783   8.830   2.487   9.389
 8629SOL    HW127784   8.814   2.498   9.295
 8629SOL    HW227785   8.926   2.480   9.396
 8630SOL     OW27786  14.149   8.925  13.953
 8630SOL    HW127787  14.218   8.859  13.941
 8630SOL    HW227788  14.179   8.977  14.027
 8631SOL     OW27789  14.541  14.328   1.788
 8631SOL    HW127790  14.551  14.232   1.784
 8631SOL    HW227791  14.449  14.341   1.811
 8632SOL     OW27792   6.288   0.461   0.396
 8632SOL    HW127793   6.302   0.556   0.400
 8632SOL    HW227794   6.333   0.434   0.316
 8633SOL     OW27795   6.344  10.325   1.261
 8633SOL    HW127796   6.250  10.307   1.272
 8633SOL    HW227797   6.387  10.262   1.319
 8634SOL     OW27798   3.388  13.188   4.663
 8634SOL    HW127799   3.452  13.160   4.598
 8634SOL    HW227800   3.339  13.108   4.685
 8635SOL     OW27801   4.104   8.428  11.895
 8635SOL    HW127802   4.052   8.401  11.971
 8635SOL    HW227803   4.159   8.499  11.927
 8636SOL     OW27804  11.855   1.267  13.720
 8636SOL    HW127805  11.766   1.298  13.707
 8636SOL    HW227806  11.880   1.229  13.635
 8637SOL     OW27807  10.529  11.785   3.976
 8637SOL    HW127808  10.492  11.799   4.064
 8637SOL    HW227809  10.623  11.798   3.987
 8638SOL     OW27810   1.927   4.385   7.759
 8638SOL    HW127811   1.945   4.306   7.809
 8638SOL    HW227812   1.854   4.361   7.702
 8639SOL     OW27813  10.335   5.835   9.377
 8639SOL    HW127814  10.365   5.774   9.445
 8639SOL    HW227815  10.241   5.845   9.394
 8640SOL     OW27816   5.125  10.382   0.620
 8640SOL    HW127817   5.038  10.382   0.582
 8640SOL    HW227818   5.111  10.367   0.714
 8641SOL     OW27819   0.782   8.560  12.502
 8641SOL    HW127820   0.716   8.534  12.566
 8641SOL    HW227821   0.813   8.645  12.532
 8642SOL     OW27822  13.582  12.891   3.313
 8642SOL    HW127823  13.664  12.868   3.270
 8642SOL    HW227824  13.600  12.974   3.357
 8643SOL     OW27825   5.098   0.346   3.226
 8643SOL    HW127826   5.013   0.391   3.222
 8643SOL    HW227827   5.107   0.305   3.139
 8644SOL     OW27828  11.655   5.089   5.439
 8644SOL    HW127829  11.725   5.091   5.375
 8644SOL    HW227830  11.575   5.075   5.387
 8645SOL     OW27831   3.889   2.894   3.751
 8645SOL    HW127832   3.950   2.910   3.823
 8645SOL    HW227833   3.936   2.923   3.673
 8646SOL     OW27834  10.952   1.251  13.815
 8646SOL    HW127835  10.893   1.322  13.840
 8646SOL    HW227836  10.899   1.195  13.758
 8647SOL     OW27837   5.533   3.514   1.488
 8647SOL    HW127838   5.611   3.501   1.433
 8647SOL    HW227839   5.567   3.552   1.569
 8648SOL     OW27840   0.681   3.196   6.723
 8648SOL    HW127841   0.632   3.205   6.641
 8648SOL    HW227842   0.657   3.110   6.756
 8649SOL     OW27843   3.313   7.681   9.614
 8649SOL    HW127844   3.382   7.747   9.613
 8649SOL    HW227845   3.289   7.671   9.522
 8650SOL     OW27846   7.923  10.774   1.478
 8650SOL    HW127847   7.870  10.849   1.506
 8650SOL    HW227848   8.006  10.786   1.524
 8651SOL     OW27849  11.759   1.809  12.775
 8651SOL    HW127850  11.818   1.777  12.706
 8651SOL    HW227851  11.684   1.750  12.771
 8652SOL     OW27852  13.886   0.204   5.051
 8652SOL    HW127853  13.899   0.137   4.984
 8652SOL    HW227854  13.839   0.275   5.006
 8653SOL     OW27855  13.875   8.111   9.849
 8653SOL    HW127856  13.876   8.085   9.756
 8653SOL    HW227857  13.792   8.157   9.860
 8654SOL     OW27858   2.486   8.735   8.195
 8654SOL    HW127859   2.521   8.787   8.268
 8654SOL    HW227860   2.559   8.679   8.169
 8655SOL     OW27861  10.493   6.578   2.138
 8655SOL    HW127862  10.486   6.661   2.091
 8655SOL    HW227863  10.442   6.516   2.086
 8656SOL     OW27864  11.723  13.461  14.425
 8656SOL    HW127865  11.777  13.433  14.350
 8656SOL    HW227866  11.779  13.522  14.473
 8657SOL     OW27867   2.124   0.956   0.663
 8657SOL    HW127868   2.053   1.016   0.638
 8657SOL    HW227869   2.127   0.891   0.593
 8658SOL     OW27870  10.360   6.532   6.528
 8658SOL    HW127871  10.282   6.483   6.503
 8658SOL    HW227872  10.351   6.545   6.622
 8659SOL     OW27873   1.736   7.015   1.436
 8659SOL    HW127874   1.653   6.969   1.444
 8659SOL    HW227875   1.717   7.090   1.380
 8660SOL     OW27876   8.310  11.371  11.948
 8660SOL    HW127877   8.303  11.463  11.923
 8660SOL    HW227878   8.264  11.365  12.031
 8661SOL     OW27879   1.607   8.820  12.608
 8661SOL    HW127880   1.645   8.848  12.691
 8661SOL    HW227881   1.530   8.876  12.596
 8662SOL     OW27882   5.396   3.961  11.096
 8662SOL    HW127883   5.439   3.910  11.028
 8662SOL    HW227884   5.328   4.011  11.050
 8663SOL     OW27885   7.937   9.529   3.751
 8663SOL    HW127886   7.889   9.584   3.689
 8663SOL    HW227887   7.947   9.446   3.706
 8664SOL     OW27888   0.626  12.860   8.767
 8664SOL    HW127889   0.535  12.845   8.742
 8664SOL    HW227890   0.624  12.939   8.822
 8665SOL     OW27891   0.044  13.478   7.731
 8665SOL    HW127892   0.051  13.567   7.765
 8665SOL    HW227893  14.836  13.442   7.775
 8666SOL     OW27894   9.051   7.899  10.686
 8666SOL    HW127895   8.968   7.852  10.695
 8666SOL    HW227896   9.108   7.860  10.752
 8667SOL     OW27897   2.303  12.984   7.037
 8667SOL    HW127898   2.391  12.957   7.065
 8667SOL    HW227899   2.249  12.973   7.116
 8668SOL     OW27900  10.451   3.116   5.598
 8668SOL    HW127901  10.397   3.038   5.585
 8668SOL    HW227902  10.389   3.189   5.590
 8669SOL     OW27903  11.239  10.490   1.092
 8669SOL    HW127904  11.276  10.534   1.168
 8669SOL    HW227905  11.257  10.550   1.019
 8670SOL     OW27906   2.987  14.393   1.868
 8670SOL    HW127907   2.935  14.347   1.934
 8670SOL    HW227908   3.060  14.431   1.917
 8671SOL     OW27909  11.424  13.232  14.848
 8671SOL    HW127910  11.471  13.244  14.765
 8671SOL    HW227911  11.366  13.308  14.853
 8672SOL     OW27912  12.662   7.266  11.144
 8672SOL    HW127913  12.637   7.236  11.231
 8672SOL    HW227914  12.755   7.290  11.152
 8673SOL     OW27915   6.209   4.117   3.594
 8673SOL    HW127916   6.180   4.037   3.639
 8673SOL    HW227917   6.252   4.168   3.663
 8674SOL     OW27918  11.932  10.525   5.690
 8674SOL    HW127919  11.866  10.589   5.714
 8674SOL    HW227920  11.995  10.574   5.638
 8675SOL     OW27921   5.820  13.889   8.971
 8675SOL    HW127922   5.887  13.957   8.983
 8675SOL    HW227923   5.788  13.872   9.060
 8676SOL     OW27924   6.726   5.774   6.617
 8676SOL    HW127925   6.814   5.745   6.641
 8676SOL    HW227926   6.717   5.750   6.525
 8677SOL     OW27927   2.581   4.877  14.766
 8677SOL    HW127928   2.599   4.839  14.680
 8677SOL    HW227929   2.526   4.811  14.809
 8678SOL     OW27930   0.716   4.774  13.578
 8678SOL    HW127931   0.742   4.711  13.646
 8678SOL    HW227932   0.692   4.852  13.627
 8679SOL     OW27933  12.501   8.781  14.142
 8679SOL    HW127934  12.514   8.692  14.173
 8679SOL    HW227935  12.588   8.819  14.141
 8680SOL     OW27936   7.576   7.390  10.352
 8680SOL    HW127937   7.524   7.466  10.326
 8680SOL    HW227938   7.595   7.406  10.445
 8681SOL     OW27939   6.250  12.524   9.449
 8681SOL    HW127940   6.161  12.495   9.471
 8681SOL    HW227941   6.285  12.454   9.394
 8682SOL     OW27942   2.164  14.464   2.639
 8682SOL    HW127943   2.183  14.498   2.551
 8682SOL    HW227944   2.245  14.419   2.665
 8683SOL     OW27945   3.588   4.539   2.213
 8683SOL    HW127946   3.502   4.551   2.254
 8683SOL    HW227947   3.581   4.455   2.168
 8684SOL     OW27948   2.685   9.338   3.371
 8684SOL    HW127949   2.668   9.342   3.277
 8684SOL    HW227950   2.684   9.430   3.400
 8685SOL     OW27951  10.521   3.654   4.015
 8685SOL    HW127952  10.429   3.647   4.040
 8685SOL    HW227953  10.519   3.692   3.927
 8686SOL     OW27954   1.542  11.325   6.649
 8686SOL    HW127955   1.488  11.259   6.693
 8686SOL    HW227956   1.547  11.296   6.558
 8687SOL     OW27957  12.571   5.468   3.560
 8687SOL    HW127958  12.521   5.517   3.495
 8687SOL    HW227959  12.661   5.498   3.548
 8688SOL     OW27960   7.115   0.707   6.328
 8688SOL    HW127961   7.142   0.787   6.284
 8688SOL    HW227962   7.187   0.688   6.388
 8689SOL     OW27963  10.913   4.499  12.349
 8689SOL    HW127964  10.892   4.457  12.433
 8689SOL    HW227965  10.830   4.500  12.302
 8690SOL     OW27966   2.398   4.125   2.295
 8690SOL    HW127967   2.466   4.188   2.321
 8690SOL    HW227968   2.368   4.157   2.210
 8691SOL     OW27969  13.224   3.321   7.904
 8691SOL    HW127970  13.178   3.358   7.980
 8691SOL    HW227971  13.178   3.359   7.829
 8692SOL     OW27972   1.513   8.186   4.426
 8692SOL    HW127973   1.434   8.225   4.389
 8692SOL    HW227974   1.561   8.151   4.351
 8693SOL     OW27975   8.736   8.615   0.658
 8693SOL    HW127976   8.747   8.613   0.563
 8693SOL    HW227977   8.772   8.531   0.688
 8694SOL     OW27978  12.574   3.386  13.158
 8694SOL    HW127979  12.647   3.374  13.097
 8694SOL    HW227980  12.496   3.360  13.108
 8695SOL     OW27981  11.857   6.230   2.106
 8695SOL    HW127982  11.856   6.309   2.160
 8695SOL    HW227983  11.888   6.161   2.165
 8696SOL     OW27984   0.872   0.098   4.872
 8696SOL    HW127985   0.859   0.035   4.943
 8696SOL    HW227986   0.884   0.044   4.793
 8697SOL     OW27987   7.721   9.188  13.784
 8697SOL    HW127988   7.779   9.257  13.816
 8697SOL    HW227989   7.779   9.124  13.744
 8698SOL     OW27990   0.755   1.692   0.970
 8698SOL    HW127991   0.701   1.727   1.041
 8698SOL    HW227992   0.845   1.696   1.004
 8699SOL     OW27993   5.419   0.752   8.175
 8699SOL    HW127994   5.453   0.837   8.204
 8699SOL    HW227995   5.487   0.690   8.199
 8700SOL     OW27996   2.603   8.997   2.999
 8700SOL    HW127997   2.530   8.952   2.957
 8700SOL    HW227998   2.577   9.089   2.998
 8701SOL     OW27999   4.353   4.968   4.085
 8701SOL    HW128000   4.313   5.055   4.088
 8701SOL    HW228001   4.446   4.983   4.101
 8702SOL     OW28002   8.228   0.906   2.529
 8702SOL    HW128003   8.273   0.861   2.600
 8702SOL    HW228004   8.153   0.849   2.509
 8703SOL     OW28005   9.687   8.139   9.022
 8703SOL    HW128006   9.720   8.116   9.109
 8703SOL    HW228007   9.677   8.234   9.025
 8704SOL     OW28008   0.502   2.470  11.556
 8704SOL    HW128009   0.475   2.516  11.477
 8704SOL    HW228010   0.543   2.390  11.525
 8705SOL     OW28011  12.093  13.827  13.797
 8705SOL    HW128012  12.039  13.844  13.720
 8705SOL    HW228013  12.102  13.912  13.839
 8706SOL     OW28014   9.928   0.329  14.603
 8706SOL    HW128015   9.834   0.335  14.621
 8706SOL    HW228016   9.934   0.276  14.524
 8707SOL     OW28017   4.065   4.719   5.916
 8707SOL    HW128018   3.979   4.709   5.875
 8707SOL    HW228019   4.080   4.635   5.961
 8708SOL     OW28020  14.044   0.432   7.216
 8708SOL    HW128021  14.013   0.402   7.301
 8708SOL    HW228022  13.991   0.509   7.197
 8709SOL     OW28023   5.047   7.028  14.247
 8709SOL    HW128024   5.095   7.009  14.167
 8709SOL    HW228025   5.079   7.114  14.275
 8710SOL     OW28026   8.192   2.322  13.427
 8710SOL    HW128027   8.110   2.350  13.467
 8710SOL    HW228028   8.207   2.386  13.357
 8711SOL     OW28029  12.842   9.907   3.687
 8711SOL    HW128030  12.918   9.934   3.740
 8711SOL    HW228031  12.769   9.957   3.724
 8712SOL     OW28032  12.067   9.758   7.999
 8712SOL    HW128033  12.095   9.668   8.012
 8712SOL    HW228034  11.989   9.767   8.054
 8713SOL     OW28035   3.116   8.538   0.328
 8713SOL    HW128036   3.176   8.611   0.346
 8713SOL    HW228037   3.153   8.495   0.251
 8714SOL     OW28038   2.691   6.779  10.836
 8714SOL    HW128039   2.642   6.791  10.917
 8714SOL    HW228040   2.772   6.830  10.848
 8715SOL     OW28041   4.836  14.755  14.649
 8715SOL    HW128042   4.767  14.821  14.637
 8715SOL    HW228043   4.788  14.674  14.665
 8716SOL     OW28044   5.915   3.963   4.256
 8716SOL    HW128045   5.976   3.898   4.290
 8716SOL    HW228046   5.969   4.040   4.237
 8717SOL     OW28047  13.748   5.495   2.955
 8717SOL    HW128048  13.777   5.572   3.004
 8717SOL    HW228049  13.683   5.453   3.012
 8718SOL     OW28050   2.938   6.169   9.628
 8718SOL    HW128051   2.929   6.110   9.704
 8718SOL    HW228052   2.961   6.111   9.556
 8719SOL     OW28053   3.912  13.751   5.802
 8719SOL    HW128054   3.998  13.792   5.800
 8719SOL    HW228055   3.851  13.824   5.806
 8720SOL     OW28056   6.544   1.507   4.999
 8720SOL    HW128057   6.524   1.485   4.908
 8720SOL    HW228058   6.580   1.595   4.996
 8721SOL     OW28059   9.570   5.617   6.228
 8721SOL    HW128060   9.632   5.612   6.301
 8721SOL    HW228061   9.592   5.542   6.173
 8722SOL     OW28062  13.869   9.482  11.935
 8722SOL    HW128063  13.953   9.473  11.981
 8722SOL    HW228064  13.825   9.399  11.951
 8723SOL     OW28065   8.183   7.369  13.171
 8723SOL    HW128066   8.155   7.384  13.262
 8723SOL    HW228067   8.104   7.342  13.125
 8724SOL     OW28068   6.908   3.182   8.063
 8724SOL    HW128069   6.854   3.260   8.077
 8724SOL    HW228070   6.845   3.112   8.045
 8725SOL     OW28071  14.155   5.943   5.208
 8725SOL    HW128072  14.228   5.885   5.184
 8725SOL    HW228073  14.084   5.918   5.149
 8726SOL     OW28074  12.132  10.512   6.412
 8726SOL    HW128075  12.150  10.516   6.505
 8726SOL    HW228076  12.059  10.451   6.404
 8727SOL     OW28077  12.216  10.603   4.335
 8727SOL    HW128078  12.171  10.644   4.409
 8727SOL    HW228079  12.309  10.607   4.359
 8728SOL     OW28080   8.474   5.925   3.275
 8728SOL    HW128081   8.509   5.848   3.320
 8728SOL    HW228082   8.542   5.950   3.213
 8729SOL     OW28083   1.113   8.899   6.040
 8729SOL    HW128084   1.066   8.931   5.962
 8729SOL    HW228085   1.165   8.825   6.007
 8730SOL     OW28086   3.490   4.350   1.825
 8730SOL    HW128087   3.481   4.254   1.825
 8730SOL    HW228088   3.489   4.374   1.918
 8731SOL     OW28089   3.090   5.212   2.081
 8731SOL    HW128090   3.021   5.155   2.116
 8731SOL    HW228091   3.120   5.262   2.157
 8732SOL     OW28092  13.870  11.087  12.160
 8732SOL    HW128093  13.930  11.092  12.234
 8732SOL    HW228094  13.829  11.000  12.169
 8733SOL     OW28095   1.809  10.031  13.610
 8733SOL    HW128096   1.722  10.001  13.583
 8733SOL    HW228097   1.807  10.126  13.596
 8734SOL     OW28098   1.536   9.585   7.122
 8734SOL    HW128099   1.610   9.586   7.183
 8734SOL    HW228100   1.558   9.518   7.058
 8735SOL     OW28101  10.790   4.582   4.351
 8735SOL    HW128102  10.803   4.517   4.282
 8735SOL    HW228103  10.773   4.530   4.430
 8736SOL     OW28104  13.577   3.812  12.812
 8736SOL    HW128105  13.516   3.810  12.738
 8736SOL    HW228106  13.657   3.849  12.776
 8737SOL     OW28107  11.452  13.367  13.202
 8737SOL    HW128108  11.511  13.378  13.127
 8737SOL    HW228109  11.489  13.423  13.270
 8738SOL     OW28110  11.055  12.951   4.417
 8738SOL    HW128111  10.998  12.895   4.470
 8738SOL    HW228112  11.091  12.892   4.350
 8739SOL     OW28113   3.576   6.713  14.348
 8739SOL    HW128114   3.584   6.644  14.414
 8739SOL    HW228115   3.662   6.756  14.349
 8740SOL     OW28116   8.975  12.430   5.578
 8740SOL    HW128117   9.037  12.468   5.639
 8740SOL    HW228118   9.006  12.458   5.492
 8741SOL     OW28119   3.966  13.549   7.958
 8741SOL    HW128120   3.901  13.525   8.024
 8741SOL    HW228121   3.969  13.475   7.898
 8742SOL     OW28122   2.348   6.825  12.539
 8742SOL    HW128123   2.433   6.787  12.517
 8742SOL    HW228124   2.359   6.857  12.628
 8743SOL     OW28125  13.283   4.894   8.564
 8743SOL    HW128126  13.236   4.927   8.488
 8743SOL    HW228127  13.277   4.799   8.557
 8744SOL     OW28128   5.459   4.118  10.688
 8744SOL    HW128129   5.403   4.186  10.726
 8744SOL    HW228130   5.420   4.100  10.603
 8745SOL     OW28131   2.626  11.131   2.145
 8745SOL    HW128132   2.677  11.141   2.226
 8745SOL    HW228133   2.621  11.220   2.109
 8746SOL     OW28134   4.390   1.178   3.578
 8746SOL    HW128135   4.340   1.234   3.637
 8746SOL    HW228136   4.401   1.096   3.627
 8747SOL     OW28137  13.312   3.109  12.088
 8747SOL    HW128138  13.349   3.101  12.176
 8747SOL    HW228139  13.364   3.049  12.035
 8748SOL     OW28140   1.077  12.375  10.856
 8748SOL    HW128141   1.103  12.434  10.927
 8748SOL    HW228142   1.116  12.414  10.777
 8749SOL     OW28143   0.843   9.053  11.557
 8749SOL    HW128144   0.938   9.037  11.557
 8749SOL    HW228145   0.804   8.967  11.573
 8750SOL     OW28146   8.692   9.204  12.055
 8750SOL    HW128147   8.748   9.218  11.979
 8750SOL    HW228148   8.604   9.194  12.018
 8751SOL     OW28149   5.972  14.677  11.016
 8751SOL    HW128150   5.942  14.750  11.070
 8751SOL    HW228151   5.943  14.699  10.928
 8752SOL     OW28152   4.657   5.813   1.257
 8752SOL    HW128153   4.667   5.751   1.329
 8752SOL    HW228154   4.629   5.894   1.298
 8753SOL     OW28155  10.956   5.923   2.541
 8753SOL    HW128156  11.027   5.894   2.483
 8753SOL    HW228157  10.878   5.883   2.504
 8754SOL     OW28158   2.139   8.525   2.457
 8754SOL    HW128159   2.178   8.540   2.543
 8754SOL    HW228160   2.106   8.610   2.430
 8755SOL     OW28161   3.814  13.280   1.382
 8755SOL    HW128162   3.817  13.193   1.343
 8755SOL    HW228163   3.811  13.340   1.307
 8756SOL     OW28164   6.482   5.162   7.565
 8756SOL    HW128165   6.562   5.139   7.613
 8756SOL    HW228166   6.473   5.094   7.499
 8757SOL     OW28167   5.039   3.821   4.828
 8757SOL    HW128168   5.132   3.831   4.846
 8757SOL    HW228169   5.029   3.845   4.736
 8758SOL     OW28170  13.797  13.440   0.767
 8758SOL    HW128171  13.714  13.438   0.720
 8758SOL    HW228172  13.863  13.422   0.700
 8759SOL     OW28173   8.654  12.379   9.312
 8759SOL    HW128174   8.624  12.376   9.221
 8759SOL    HW228175   8.612  12.457   9.348
 8760SOL     OW28176   6.892   1.867  11.837
 8760SOL    HW128177   6.962   1.809  11.867
 8760SOL    HW228178   6.921   1.896  11.750
 8761SOL     OW28179   8.337  14.499  11.179
 8761SOL    HW128180   8.381  14.486  11.095
 8761SOL    HW228181   8.354  14.590  11.202
 8762SOL     OW28182   3.532   5.247   6.878
 8762SOL    HW128183   3.492   5.230   6.793
 8762SOL    HW228184   3.534   5.342   6.885
 8763SOL     OW28185   4.590  14.322   4.116
 8763SOL    HW128186   4.540  14.356   4.042
 8763SOL    HW228187   4.532  14.255   4.154
 8764SOL     OW28188  11.855   0.004   6.534
 8764SOL    HW128189  11.831  14.857   6.625
 8764SOL    HW228190  11.898   0.090   6.535
 8765SOL     OW28191   6.354  12.490   1.615
 8765SOL    HW128192   6.401  12.574   1.625
 8765SOL    HW228193   6.290  12.506   1.546
 8766SOL     OW28194  11.376  13.037   8.707
 8766SOL    HW128195  11.309  13.093   8.747
 8766SOL    HW228196  11.459  13.070   8.742
 8767SOL     OW28197  11.878   3.429   1.450
 8767SOL    HW128198  11.789   3.464   1.452
 8767SOL    HW228199  11.933   3.506   1.437
 8768SOL     OW28200   6.978  13.661  11.925
 8768SOL    HW128201   6.963  13.650  11.831
 8768SOL    HW228202   6.891  13.670  11.962
 8769SOL     OW28203   7.543   8.426  12.576
 8769SOL    HW128204   7.509   8.402  12.662
 8769SOL    HW228205   7.496   8.369  12.515
 8770SOL     OW28206   7.767   9.313  13.149
 8770SOL    HW128207   7.700   9.364  13.195
 8770SOL    HW228208   7.731   9.300  13.061
 8771SOL     OW28209   4.637   0.333   6.758
 8771SOL    HW128210   4.729   0.314   6.735
 8771SOL    HW228211   4.639   0.349   6.852
 8772SOL     OW28212   8.850  10.663   3.573
 8772SOL    HW128213   8.774  10.606   3.582
 8772SOL    HW228214   8.830  10.741   3.624
 8773SOL     OW28215  10.059   2.388   9.646
 8773SOL    HW128216  10.007   2.456   9.603
 8773SOL    HW228217  10.146   2.426   9.655
 8774SOL     OW28218   2.628   8.432  12.721
 8774SOL    HW128219   2.634   8.527  12.723
 8774SOL    HW228220   2.714   8.403  12.689
 8775SOL     OW28221   5.120  10.118   6.763
 8775SOL    HW128222   5.184  10.188   6.751
 8775SOL    HW228223   5.139  10.082   6.849
 8776SOL     OW28224   3.516   7.713   4.964
 8776SOL    HW128225   3.606   7.733   4.937
 8776SOL    HW228226   3.482   7.796   4.997
 8777SOL     OW28227   1.081   7.955   0.001
 8777SOL    HW128228   1.145   7.901   0.048
 8777SOL    HW228229   1.003   7.954   0.057
 8778SOL     OW28230  13.925   6.017   6.298
 8778SOL    HW128231  13.987   5.946   6.281
 8778SOL    HW228232  13.974   6.097   6.276
 8779SOL     OW28233   0.317   3.004   4.247
 8779SOL    HW128234   0.297   3.088   4.205
 8779SOL    HW228235   0.355   3.028   4.331
 8780SOL     OW28236   3.612   0.683   5.879
 8780SOL    HW128237   3.649   0.727   5.955
 8780SOL    HW228238   3.531   0.643   5.911
 8781SOL     OW28239  12.074   3.799   5.242
 8781SOL    HW128240  11.991   3.804   5.290
 8781SOL    HW228241  12.102   3.889   5.232
 8782SOL     OW28242   2.348   1.977   1.002
 8782SOL    HW128243   2.298   1.931   1.070
 8782SOL    HW228244   2.321   2.068   1.010
 8783SOL     OW28245  13.831   4.202   6.126
 8783SOL    HW128246  13.836   4.296   6.109
 8783SOL    HW228247  13.895   4.163   6.067
 8784SOL     OW28248   9.884  12.161   8.725
 8784SOL    HW128249   9.796  12.162   8.764
 8784SOL    HW228250   9.891  12.075   8.685
 8785SOL     OW28251  13.718   1.006   4.596
 8785SOL    HW128252  13.785   1.065   4.563
 8785SOL    HW228253  13.716   1.023   4.690
 8786SOL     OW28254   9.519  11.687   9.598
 8786SOL    HW128255   9.503  11.667   9.691
 8786SOL    HW228256   9.572  11.766   9.599
 8787SOL     OW28257   2.538   2.944   2.418
 8787SOL    HW128258   2.457   2.944   2.469
 8787SOL    HW228259   2.526   3.013   2.353
 8788SOL     OW28260   0.948   2.178   5.432
 8788SOL    HW128261   0.998   2.155   5.511
 8788SOL    HW228262   0.865   2.132   5.442
 8789SOL     OW28263  11.624   7.048   4.633
 8789SOL    HW128264  11.635   7.072   4.541
 8789SOL    HW228265  11.598   6.956   4.632
 8790SOL     OW28266  13.228  13.311   5.068
 8790SOL    HW128267  13.248  13.293   4.976
 8790SOL    HW228268  13.223  13.225   5.110
 8791SOL     OW28269  11.610   5.675   6.705
 8791SOL    HW128270  11.600   5.581   6.718
 8791SOL    HW228271  11.592   5.689   6.611
 8792SOL     OW28272  11.924   5.587  14.624
 8792SOL    HW128273  11.966   5.669  14.648
 8792SOL    HW228274  11.993   5.536  14.581
 8793SOL     OW28275   9.238  14.604   5.708
 8793SOL    HW128276   9.212  14.559   5.788
 8793SOL    HW228277   9.165  14.662   5.688
 8794SOL     OW28278  12.302   2.224  13.847
 8794SOL    HW128279  12.378   2.282  13.850
 8794SOL    HW228280  12.301   2.190  13.758
 8795SOL     OW28281  10.732   3.941   4.070
 8795SOL    HW128282  10.666   3.967   4.005
 8795SOL    HW228283  10.684   3.888   4.133
 8796SOL     OW28284  14.625  13.166   4.378
 8796SOL    HW128285  14.537  13.142   4.410
 8796SOL    HW228286  14.656  13.230   4.442
 8797SOL     OW28287   5.204   5.997  10.059
 8797SOL    HW128288   5.168   6.084  10.038
 8797SOL    HW228289   5.127   5.945  10.081
 8798SOL     OW28290  10.840   8.318   5.846
 8798SOL    HW128291  10.895   8.258   5.895
 8798SOL    HW228292  10.893   8.397   5.835
 8799SOL     OW28293  13.971   5.761   8.320
 8799SOL    HW128294  13.882   5.785   8.346
 8799SOL    HW228295  14.012   5.843   8.295
 8800SOL     OW28296  10.441   3.953   4.119
 8800SOL    HW128297  10.413   3.980   4.031
 8800SOL    HW228298  10.362   3.918   4.160
 8801SOL     OW28299   0.434   5.748  11.895
 8801SOL    HW128300   0.351   5.708  11.919
 8801SOL    HW228301   0.481   5.679  11.848
 8802SOL     OW28302   0.044   8.208  12.871
 8802SOL    HW128303  14.830   8.233  12.909
 8802SOL    HW228304   0.052   8.262  12.792
 8803SOL     OW28305   1.084   5.554  12.307
 8803SOL    HW128306   1.029   5.511  12.372
 8803SOL    HW228307   1.097   5.488  12.239
 8804SOL     OW28308   0.654  13.803   3.574
 8804SOL    HW128309   0.659  13.756   3.491
 8804SOL    HW228310   0.587  13.869   3.561
 8805SOL     OW28311   1.459  10.243  11.609
 8805SOL    HW128312   1.503  10.231  11.693
 8805SOL    HW228313   1.409  10.324  11.619
 8806SOL     OW28314  12.492   4.390   1.531
 8806SOL    HW128315  12.460   4.302   1.552
 8806SOL    HW228316  12.575   4.374   1.486
 8807SOL     OW28317   5.454   2.276   3.352
 8807SOL    HW128318   5.400   2.248   3.278
 8807SOL    HW228319   5.522   2.331   3.313
 8808SOL     OW28320  11.650   5.888   3.707
 8808SOL    HW128321  11.639   5.983   3.699
 8808SOL    HW228322  11.735   5.877   3.748
 8809SOL     OW28323  13.134   7.429   5.548
 8809SOL    HW128324  13.131   7.346   5.596
 8809SOL    HW228325  13.219   7.467   5.571
 8810SOL     OW28326   9.514   8.082   0.143
 8810SOL    HW128327   9.530   8.162   0.192
 8810SOL    HW228328   9.600   8.042   0.131
 8811SOL     OW28329  13.921   7.502   0.029
 8811SOL    HW128330  13.830   7.523   0.009
 8811SOL    HW228331  13.972   7.560  14.841
 8812SOL     OW28332   2.293   8.572   5.456
 8812SOL    HW128333   2.252   8.558   5.541
 8812SOL    HW228334   2.321   8.485   5.428
 8813SOL     OW28335   7.870  13.490   6.743
 8813SOL    HW128336   7.921  13.487   6.824
 8813SOL    HW228337   7.913  13.428   6.685
 8814SOL     OW28338  12.909   3.486  14.450
 8814SOL    HW128339  12.835   3.513  14.396
 8814SOL    HW228340  12.881   3.503  14.540
 8815SOL     OW28341   9.385   9.551   9.034
 8815SOL    HW128342   9.363   9.642   9.055
 8815SOL    HW228343   9.460   9.531   9.091
 8816SOL     OW28344   0.969  12.862   6.206
 8816SOL    HW128345   0.909  12.809   6.153
 8816SOL    HW228346   0.964  12.825   6.293
 8817SOL     OW28347   8.416   2.099   8.907
 8817SOL    HW128348   8.410   2.143   8.823
 8817SOL    HW228349   8.364   2.019   8.896
 8818SOL     OW28350   1.802  10.345  10.461
 8818SOL    HW128351   1.829  10.331  10.551
 8818SOL    HW228352   1.741  10.274  10.442
 8819SOL     OW28353   3.111  11.963  12.458
 8819SOL    HW128354   3.173  11.959  12.531
 8819SOL    HW228355   3.167  11.958  12.380
 8820SOL     OW28356   4.098   1.196   0.072
 8820SOL    HW128357   4.076   1.140  14.868
 8820SOL    HW228358   4.014   1.216   0.114
 8821SOL     OW28359  12.887  14.392   3.002
 8821SOL    HW128360  12.969  14.343   2.988
 8821SOL    HW228361  12.846  14.348   3.077
 8822SOL     OW28362   3.625   3.365   8.496
 8822SOL    HW128363   3.541   3.405   8.475
 8822SOL    HW228364   3.611   3.271   8.480
 8823SOL     OW28365  13.242  13.185  10.556
 8823SOL    HW128366  13.202  13.122  10.496
 8823SOL    HW228367  13.230  13.147  10.643
 8824SOL     OW28368  11.154   9.443   3.727
 8824SOL    HW128369  11.152   9.358   3.771
 8824SOL    HW228370  11.062   9.464   3.711
 8825SOL     OW28371   3.705   7.257  14.780
 8825SOL    HW128372   3.775   7.252  14.714
 8825SOL    HW228373   3.743   7.216  14.858
 8826SOL     OW28374  12.877  11.519   1.870
 8826SOL    HW128375  12.954  11.518   1.813
 8826SOL    HW228376  12.802  11.517   1.810
 8827SOL     OW28377   7.741  14.717   9.067
 8827SOL    HW128378   7.775  14.711   9.156
 8827SOL    HW228379   7.817  14.701   9.011
 8828SOL     OW28380  12.465   7.430   7.067
 8828SOL    HW128381  12.526   7.430   7.141
 8828SOL    HW228382  12.379   7.443   7.107
 8829SOL     OW28383  13.844   5.275   0.428
 8829SOL    HW128384  13.794   5.195   0.416
 8829SOL    HW228385  13.842   5.318   0.343
 8830SOL     OW28386  12.551   2.841   6.992
 8830SOL    HW128387  12.464   2.817   7.022
 8830SOL    HW228388  12.543   2.932   6.963
 8831SOL     OW28389   7.747  12.479   0.048
 8831SOL    HW128390   7.797  12.398   0.056
 8831SOL    HW228391   7.798  12.533  14.857
 8832SOL     OW28392   0.835  10.990   9.879
 8832SOL    HW128393   0.919  11.037   9.875
 8832SOL    HW228394   0.853  10.914   9.933
 8833SOL     OW28395   9.585  12.938   3.732
 8833SOL    HW128396   9.498  12.951   3.770
 8833SOL    HW228397   9.644  12.946   3.807
 8834SOL     OW28398   6.751   3.379   0.572
 8834SOL    HW128399   6.716   3.400   0.485
 8834SOL    HW228400   6.714   3.445   0.630
 8835SOL     OW28401   2.682   9.145  10.877
 8835SOL    HW128402   2.723   9.196  10.807
 8835SOL    HW228403   2.677   9.056  10.842
 8836SOL     OW28404   1.896   2.677   2.095
 8836SOL    HW128405   1.802   2.695   2.098
 8836SOL    HW228406   1.923   2.678   2.187
 8837SOL     OW28407   4.693   0.642   5.769
 8837SOL    HW128408   4.746   0.593   5.706
 8837SOL    HW228409   4.709   0.734   5.748
 8838SOL     OW28410   7.940   1.516   2.971
 8838SOL    HW128411   7.904   1.509   2.882
 8838SOL    HW228412   8.035   1.512   2.958
 8839SOL     OW28413   5.062   2.865   7.112
 8839SOL    HW128414   5.060   2.952   7.151
 8839SOL    HW228415   5.104   2.877   7.027
 8840SOL     OW28416  11.299  12.451   3.650
 8840SOL    HW128417  11.348  12.383   3.603
 8840SOL    HW228418  11.276  12.515   3.582
 8841SOL     OW28419   7.321   8.951   2.112
 8841SOL    HW128420   7.225   8.944   2.115
 8841SOL    HW228421   7.352   8.866   2.143
 8842SOL     OW28422  14.064  14.668   6.742
 8842SOL    HW128423  14.085  14.642   6.652
 8842SOL    HW228424  14.026  14.755   6.733
 8843SOL     OW28425   3.869  11.739   8.156
 8843SOL    HW128426   3.941  11.678   8.139
 8843SOL    HW228427   3.904  11.825   8.130
 8844SOL     OW28428   4.645   9.663  14.761
 8844SOL    HW128429   4.596   9.670  14.679
 8844SOL    HW228430   4.666   9.570  14.769
 8845SOL     OW28431  13.708   6.166  10.421
 8845SOL    HW128432  13.644   6.233  10.394
 8845SOL    HW228433  13.788   6.189  10.374
 8846SOL     OW28434   2.717   6.989   0.166
 8846SOL    HW128435   2.765   6.932   0.106
 8846SOL    HW228436   2.733   7.078   0.132
 8847SOL     OW28437  13.437   5.412   1.291
 8847SOL    HW128438  13.492   5.339   1.318
 8847SOL    HW228439  13.457   5.425   1.198
 8848SOL     OW28440   5.328   1.611   4.289
 8848SOL    HW128441   5.408   1.562   4.310
 8848SOL    HW228442   5.269   1.546   4.252
 8849SOL     OW28443   3.161   0.602  12.086
 8849SOL    HW128444   3.136   0.681  12.134
 8849SOL    HW228445   3.234   0.566  12.135
 8850SOL     OW28446  10.903   2.929   3.716
 8850SOL    HW128447  10.828   2.987   3.728
 8850SOL    HW228448  10.908   2.916   3.621
 8851SOL     OW28449   5.565   9.043   9.001
 8851SOL    HW128450   5.568   9.091   8.918
 8851SOL    HW228451   5.657   9.026   9.022
 8852SOL     OW28452   5.802   5.380   6.106
 8852SOL    HW128453   5.820   5.471   6.129
 8852SOL    HW228454   5.887   5.336   6.110
 8853SOL     OW28455   6.501   2.937  10.378
 8853SOL    HW128456   6.447   3.014  10.396
 8853SOL    HW228457   6.576   2.971  10.329
 8854SOL     OW28458   9.532   1.912   4.664
 8854SOL    HW128459   9.466   1.977   4.687
 8854SOL    HW228460   9.508   1.834   4.714
 8855SOL     OW28461  13.382   5.774   6.789
 8855SOL    HW128462  13.388   5.685   6.822
 8855SOL    HW228463  13.409   5.829   6.864
 8856SOL     OW28464   1.084  14.666   3.333
 8856SOL    HW128465   1.090  14.727   3.260
 8856SOL    HW228466   1.174  14.656   3.363
 8857SOL     OW28467   8.379   5.889  10.554
 8857SOL    HW128468   8.348   5.804  10.522
 8857SOL    HW228469   8.454   5.868  10.609
 8858SOL     OW28470  11.762  10.167   4.021
 8858SOL    HW128471  11.695  10.109   4.056
 8858SOL    HW228472  11.807  10.115   3.955
 8859SOL     OW28473   2.756   0.903   6.682
 8859SOL    HW128474   2.663   0.925   6.683
 8859SOL    HW228475   2.772   0.861   6.767
 8860SOL     OW28476  10.228   8.018  12.909
 8860SOL    HW128477  10.242   8.111  12.894
 8860SOL    HW228478  10.185   7.987  12.829
 8861SOL     OW28479   3.820  13.053   1.865
 8861SOL    HW128480   3.818  12.971   1.816
 8861SOL    HW228481   3.752  13.107   1.826
 8862SOL     OW28482  14.300   7.437   1.503
 8862SOL    HW128483  14.314   7.395   1.588
 8862SOL    HW228484  14.249   7.515   1.523
 8863SOL     OW28485   0.006  14.685   6.565
 8863SOL    HW128486  14.809  14.707   6.630
 8863SOL    HW228487   0.089  14.711   6.605
 8864SOL     OW28488   5.953   0.354   4.648
 8864SOL    HW128489   6.015   0.403   4.701
 8864SOL    HW228490   6.000   0.275   4.621
 8865SOL     OW28491  13.355   3.038  14.503
 8865SOL    HW128492  13.301   3.111  14.473
 8865SOL    HW228493  13.341   3.035  14.597
 8866SOL     OW28494   5.905  12.586   3.309
 8866SOL    HW128495   5.871  12.594   3.398
 8866SOL    HW228496   5.962  12.509   3.311
 8867SOL     OW28497   8.016   0.635  12.160
 8867SOL    HW128498   8.048   0.644  12.250
 8867SOL    HW228499   7.951   0.565  12.165
 8868SOL     OW28500  10.937  12.941   5.807
 8868SOL    HW128501  10.960  13.002   5.737
 8868SOL    HW228502  10.857  12.978   5.845
 8869SOL     OW28503   9.853   0.635  14.160
 8869SOL    HW128504   9.915   0.602  14.095
 8869SOL    HW228505   9.830   0.723  14.129
 8870SOL     OW28506   3.490  12.142   0.143
 8870SOL    HW128507   3.500  12.140   0.238
 8870SOL    HW228508   3.471  12.234   0.124
 8871SOL     OW28509   5.264  14.408  13.022
 8871SOL    HW128510   5.271  14.502  13.009
 8871SOL    HW228511   5.266  14.371  12.934
 8872SOL     OW28512   5.708  14.794   9.107
 8872SOL    HW128513   5.724  14.748   9.189
 8872SOL    HW228514   5.613  14.792   9.097
 8873SOL     OW28515  10.849  11.196   6.053
 8873SOL    HW128516  10.793  11.262   6.095
 8873SOL    HW228517  10.849  11.123   6.115
 8874SOL     OW28518   9.186   4.956  12.857
 8874SOL    HW128519   9.213   5.003  12.778
 8874SOL    HW228520   9.258   4.896  12.876
 8875SOL     OW28521  11.550  10.437   4.439
 8875SOL    HW128522  11.570  10.393   4.522
 8875SOL    HW228523  11.476  10.494   4.459
 8876SOL     OW28524   0.658   7.218   3.638
 8876SOL    HW128525   0.603   7.155   3.592
 8876SOL    HW228526   0.740   7.219   3.588
 8877SOL     OW28527   3.347   1.395   3.122
 8877SOL    HW128528   3.403   1.319   3.141
 8877SOL    HW228529   3.373   1.423   3.034
 8878SOL     OW28530   4.914   5.833  13.560
 8878SOL    HW128531   4.844   5.880  13.604
 8878SOL    HW228532   4.959   5.900  13.508
 8879SOL     OW28533  11.069   8.210   9.729
 8879SOL    HW128534  11.104   8.169   9.809
 8879SOL    HW228535  11.136   8.275   9.705
 8880SOL     OW28536   9.309  10.585   1.860
 8880SOL    HW128537   9.335  10.512   1.917
 8880SOL    HW228538   9.339  10.559   1.773
 8881SOL     OW28539  10.579   3.702   9.507
 8881SOL    HW128540  10.667   3.740   9.502
 8881SOL    HW228541  10.557   3.683   9.416
 8882SOL     OW28542   3.695   2.034   4.078
 8882SOL    HW128543   3.625   2.012   4.016
 8882SOL    HW228544   3.764   1.971   4.060
 8883SOL     OW28545  12.293   9.439   3.042
 8883SOL    HW128546  12.345   9.517   3.028
 8883SOL    HW228547  12.351   9.379   3.089
 8884SOL     OW28548  14.600  10.940   4.356
 8884SOL    HW128549  14.630  11.029   4.376
 8884SOL    HW228550  14.674  10.900   4.310
 8885SOL     OW28551   7.555   4.252   4.601
 8885SOL    HW128552   7.559   4.164   4.564
 8885SOL    HW228553   7.463   4.277   4.596
 8886SOL     OW28554   4.477   5.933   7.928
 8886SOL    HW128555   4.532   6.011   7.921
 8886SOL    HW228556   4.407   5.947   7.864
 8887SOL     OW28557  12.552   2.750   8.456
 8887SOL    HW128558  12.581   2.746   8.365
 8887SOL    HW228559  12.540   2.843   8.473
 8888SOL     OW28560   1.998   2.729   0.097
 8888SOL    HW128561   2.002   2.689   0.010
 8888SOL    HW228562   2.007   2.655   0.157
 8889SOL     OW28563  13.560   1.487   7.000
 8889SOL    HW128564  13.508   1.432   6.941
 8889SOL    HW228565  13.602   1.425   7.060
 8890SOL     OW28566  11.305  13.654   7.862
 8890SOL    HW128567  11.382  13.624   7.911
 8890SOL    HW228568  11.338  13.669   7.773
 8891SOL     OW28569   8.733  13.598   0.207
 8891SOL    HW128570   8.645  13.620   0.238
 8891SOL    HW228571   8.790  13.618   0.282
 8892SOL     OW28572   5.154   2.596   9.613
 8892SOL    HW128573   5.113   2.620   9.529
 8892SOL    HW228574   5.102   2.641   9.679
 8893SOL     OW28575  14.646  14.272   3.637
 8893SOL    HW128576  14.553  14.261   3.618
 8893SOL    HW228577  14.662  14.218   3.714
 8894SOL     OW28578   0.810   9.141   0.699
 8894SOL    HW128579   0.765   9.197   0.635
 8894SOL    HW228580   0.869   9.087   0.646
 8895SOL     OW28581   7.623  14.761  13.708
 8895SOL    HW128582   7.560  14.823  13.671
 8895SOL    HW228583   7.693  14.815  13.743
 8896SOL     OW28584   4.335   7.001  11.768
 8896SOL    HW128585   4.295   6.914  11.777
 8896SOL    HW228586   4.317   7.025  11.677
 8897SOL     OW28587   0.879   2.371   2.731
 8897SOL    HW128588   0.950   2.362   2.795
 8897SOL    HW228589   0.912   2.325   2.654
 8898SOL     OW28590   9.770   9.242  13.782
 8898SOL    HW128591   9.811   9.326  13.799
 8898SOL    HW228592   9.752   9.242  13.688
 8899SOL     OW28593   8.920  12.164   9.539
 8899SOL    HW128594   8.907  12.225   9.466
 8899SOL    HW228595   8.897  12.079   9.503
 8900SOL     OW28596   6.017  10.822   0.318
 8900SOL    HW128597   6.054  10.823   0.407
 8900SOL    HW228598   6.084  10.781   0.264
 8901SOL     OW28599   9.955   1.533  13.568
 8901SOL    HW128600   9.940   1.598  13.499
 8901SOL    HW228601   9.927   1.577  13.648
 8902SOL     OW28602   4.565   3.623  12.562
 8902SOL    HW128603   4.643   3.672  12.587
 8902SOL    HW228604   4.598   3.548  12.514
 8903SOL     OW28605   9.114   8.093  10.496
 8903SOL    HW128606   9.195   8.123  10.538
 8903SOL    HW228607   9.077   8.030  10.558
 8904SOL     OW28608  11.628   8.851  13.275
 8904SOL    HW128609  11.710   8.813  13.306
 8904SOL    HW228610  11.609   8.922  13.337
 8905SOL     OW28611   4.617   4.676   2.108
 8905SOL    HW128612   4.587   4.599   2.060
 8905SOL    HW228613   4.561   4.747   2.078
 8906SOL     OW28614  14.157   5.952   4.097
 8906SOL    HW128615  14.172   5.859   4.080
 8906SOL    HW228616  14.216   5.998   4.038
 8907SOL     OW28617   7.904   3.246  11.394
 8907SOL    HW128618   7.929   3.325  11.443
 8907SOL    HW228619   7.980   3.188  11.402
 8908SOL     OW28620  11.184  12.247   5.196
 8908SOL    HW128621  11.174  12.152   5.209
 8908SOL    HW228622  11.278  12.260   5.184
 8909SOL     OW28623   4.356   7.431   8.911
 8909SOL    HW128624   4.343   7.521   8.939
 8909SOL    HW228625   4.294   7.418   8.840
 8910SOL     OW28626  11.499   6.433   8.756
 8910SOL    HW128627  11.431   6.468   8.813
 8910SOL    HW228628  11.556   6.507   8.738
 8911SOL     OW28629  13.685   1.543  11.436
 8911SOL    HW128630  13.764   1.559  11.385
 8911SOL    HW228631  13.716   1.503  11.517
 8912SOL     OW28632  12.921  13.058   2.814
 8912SOL    HW128633  12.998  13.105   2.844
 8912SOL    HW228634  12.935  12.967   2.842
 8913SOL     OW28635  14.862   8.742  12.898
 8913SOL    HW128636  14.791   8.805  12.883
 8913SOL    HW228637   0.064   8.775  12.844
 8914SOL     OW28638   9.595   9.393   6.513
 8914SOL    HW128639   9.591   9.483   6.481
 8914SOL    HW228640   9.521   9.385   6.573
 8915SOL     OW28641  11.727  11.071  12.662
 8915SOL    HW128642  11.642  11.036  12.637
 8915SOL    HW228643  11.769  11.001  12.712
 8916SOL     OW28644   9.422  10.905  10.343
 8916SOL    HW128645   9.396  10.968  10.410
 8916SOL    HW228646   9.459  10.958  10.273
 8917SOL     OW28647  13.094  13.591  10.196
 8917SOL    HW128648  13.034  13.627  10.261
 8917SOL    HW228649  13.041  13.530  10.145
 8918SOL     OW28650   3.082   4.308   3.442
 8918SOL    HW128651   3.154   4.261   3.399
 8918SOL    HW228652   3.118   4.332   3.528
 8919SOL     OW28653  13.069   7.298   4.836
 8919SOL    HW128654  12.992   7.244   4.853
 8919SOL    HW228655  13.128   7.241   4.785
 8920SOL     OW28656   2.069   4.831   5.486
 8920SOL    HW128657   2.139   4.857   5.426
 8920SOL    HW228658   2.027   4.914   5.510
 8921SOL     OW28659   8.066   9.488   6.719
 8921SOL    HW128660   8.012   9.409   6.709
 8921SOL    HW228661   8.048   9.518   6.808
 8922SOL     OW28662   1.887  13.693   4.766
 8922SOL    HW128663   1.823  13.731   4.706
 8922SOL    HW228664   1.928  13.769   4.807
 8923SOL     OW28665   6.459  13.182  11.334
 8923SOL    HW128666   6.377  13.223  11.310
 8923SOL    HW228667   6.473  13.115  11.266
 8924SOL     OW28668   6.446   0.739   5.056
 8924SOL    HW128669   6.403   0.725   4.972
 8924SOL    HW228670   6.536   0.764   5.032
 8925SOL     OW28671   2.221   2.003   5.019
 8925SOL    HW128672   2.206   2.095   5.041
 8925SOL    HW228673   2.137   1.959   5.039
 8926SOL     OW28674  10.026   7.596   1.349
 8926SOL    HW128675   9.973   7.604   1.270
 8926SOL    HW228676  10.039   7.686   1.378
 8927SOL     OW28677  10.052   9.874   7.982
 8927SOL    HW128678   9.975   9.883   7.926
 8927SOL    HW228679  10.123   9.913   7.931
 8928SOL     OW28680   9.101   1.029   7.487
 8928SOL    HW128681   9.077   1.083   7.412
 8928SOL    HW228682   9.155   1.087   7.542
 8929SOL     OW28683   5.765  13.672  13.637
 8929SOL    HW128684   5.854  13.682  13.668
 8929SOL    HW228685   5.764  13.585  13.595
 8930SOL     OW28686  14.181   8.139   3.832
 8930SOL    HW128687  14.101   8.164   3.878
 8930SOL    HW228688  14.192   8.046   3.850
 8931SOL     OW28689  12.505   3.499   8.784
 8931SOL    HW128690  12.558   3.501   8.705
 8931SOL    HW228691  12.417   3.522   8.755
 8932SOL     OW28692   6.852   1.471   3.946
 8932SOL    HW128693   6.918   1.504   3.885
 8932SOL    HW228694   6.772   1.464   3.894
 8933SOL     OW28695   4.354   5.112   5.632
 8933SOL    HW128696   4.330   5.021   5.615
 8933SOL    HW228697   4.272   5.154   5.657
 8934SOL     OW28698   6.196  10.929   1.941
 8934SOL    HW128699   6.102  10.948   1.937
 8934SOL    HW228700   6.237  11.002   1.896
 8935SOL     OW28701   0.376   8.812   6.849
 8935SOL    HW128702   0.470   8.809   6.865
 8935SOL    HW228703   0.359   8.902   6.823
 8936SOL     OW28704   7.186   3.786   9.595
 8936SOL    HW128705   7.134   3.815   9.669
 8936SOL    HW228706   7.263   3.745   9.635
 8937SOL     OW28707   1.308   4.540   7.394
 8937SOL    HW128708   1.278   4.516   7.482
 8937SOL    HW228709   1.243   4.603   7.363
 8938SOL     OW28710   1.477  13.153   8.342
 8938SOL    HW128711   1.438  13.100   8.411
 8938SOL    HW228712   1.563  13.114   8.327
 8939SOL     OW28713   1.358   4.355   8.235
 8939SOL    HW128714   1.407   4.428   8.273
 8939SOL    HW228715   1.332   4.386   8.148
 8940SOL     OW28716   3.944   6.316  14.795
 8940SOL    HW128717   3.931   6.364   0.006
 8940SOL    HW228718   3.925   6.379  14.726
 8941SOL     OW28719   2.529   0.061   1.610
 8941SOL    HW128720   2.485  14.846   1.617
 8941SOL    HW228721   2.473   0.122   1.658
 8942SOL     OW28722  14.427   2.531   7.330
 8942SOL    HW128723  14.496   2.595   7.345
 8942SOL    HW228724  14.447   2.460   7.391
 8943SOL     OW28725   3.251   6.075   9.885
 8943SOL    HW128726   3.171   6.124   9.904
 8943SOL    HW228727   3.321   6.129   9.921
 8944SOL     OW28728  10.419   0.880   9.433
 8944SOL    HW128729  10.413   0.787   9.451
 8944SOL    HW228730  10.497   0.889   9.378
 8945SOL     OW28731  14.629   2.696  13.177
 8945SOL    HW128732  14.589   2.776  13.211
 8945SOL    HW228733  14.687   2.726  13.107
 8946SOL     OW28734  13.828   4.878   8.691
 8946SOL    HW128735  13.906   4.908   8.643
 8946SOL    HW228736  13.759   4.939   8.666
 8947SOL     OW28737   7.519   9.176   4.202
 8947SOL    HW128738   7.469   9.105   4.162
 8947SOL    HW228739   7.596   9.133   4.238
 8948SOL     OW28740   3.254   2.849  10.691
 8948SOL    HW128741   3.173   2.799  10.683
 8948SOL    HW228742   3.230   2.924  10.746
 8949SOL     OW28743  12.647   0.245  12.440
 8949SOL    HW128744  12.701   0.309  12.393
 8949SOL    HW228745  12.653   0.166  12.386
 8950SOL     OW28746   3.538   3.366   0.486
 8950SOL    HW128747   3.500   3.453   0.501
 8950SOL    HW228748   3.486   3.308   0.542
 8951SOL     OW28749   5.879  12.578   8.444
 8951SOL    HW128750   5.892  12.521   8.520
 8951SOL    HW228751   5.860  12.664   8.481
 8952SOL     OW28752  10.749   3.730  14.338
 8952SOL    HW128753  10.745   3.651  14.392
 8952SOL    HW228754  10.679   3.785  14.372
 8953SOL     OW28755   3.747   7.019  13.051
 8953SOL    HW128756   3.774   7.005  13.141
 8953SOL    HW228757   3.704   7.105  13.051
 8954SOL     OW28758  13.295   1.968  13.692
 8954SOL    HW128759  13.313   1.910  13.618
 8954SOL    HW228760  13.349   2.045  13.676
 8955SOL     OW28761  14.393   1.058   2.817
 8955SOL    HW128762  14.450   0.981   2.817
 8955SOL    HW228763  14.347   1.054   2.901
 8956SOL     OW28764   6.671   5.413   5.793
 8956SOL    HW128765   6.731   5.452   5.858
 8956SOL    HW228766   6.590   5.398   5.842
 8957SOL     OW28767  12.620   0.686   9.533
 8957SOL    HW128768  12.638   0.615   9.472
 8957SOL    HW228769  12.613   0.644   9.619
 8958SOL     OW28770   0.546   6.965  12.600
 8958SOL    HW128771   0.479   6.939  12.536
 8958SOL    HW228772   0.497   6.986  12.679
 8959SOL     OW28773  10.824  14.744   8.490
 8959SOL    HW128774  10.905  14.748   8.439
 8959SOL    HW228775  10.849  14.777   8.576
 8960SOL     OW28776  13.960   5.287   4.198
 8960SOL    HW128777  13.939   5.253   4.111
 8960SOL    HW228778  13.877   5.323   4.230
 8961SOL     OW28779   9.036  13.416  14.693
 8961SOL    HW128780   8.954  13.441  14.736
 8961SOL    HW228781   9.040  13.472  14.615
 8962SOL     OW28782  11.994   0.038  11.950
 8962SOL    HW128783  12.063   0.047  12.016
 8962SOL    HW228784  12.000  14.816  11.922
 8963SOL     OW28785  10.410   4.617  13.265
 8963SOL    HW128786  10.381   4.569  13.342
 8963SOL    HW228787  10.423   4.707  13.296
 8964SOL     OW28788   3.754  14.054   9.128
 8964SOL    HW128789   3.717  13.965   9.132
 8964SOL    HW228790   3.845  14.043   9.156
 8965SOL     OW28791   0.537   8.518   9.833
 8965SOL    HW128792   0.613   8.567   9.801
 8965SOL    HW228793   0.532   8.442   9.774
 8966SOL     OW28794   9.832   3.721   5.009
 8966SOL    HW128795   9.900   3.674   5.058
 8966SOL    HW228796   9.761   3.733   5.072
 8967SOL     OW28797   8.215   0.863  11.227
 8967SOL    HW128798   8.270   0.839  11.302
 8967SOL    HW228799   8.131   0.888  11.266
 8968SOL     OW28800  11.120  12.063   3.230
 8968SOL    HW128801  11.191  12.007   3.198
 8968SOL    HW228802  11.062  12.004   3.278
 8969SOL     OW28803   2.785   1.102  12.803
 8969SOL    HW128804   2.794   1.098  12.898
 8969SOL    HW228805   2.870   1.074  12.769
 8970SOL     OW28806   1.636   7.761   9.425
 8970SOL    HW128807   1.662   7.734   9.513
 8970SOL    HW228808   1.708   7.817   9.395
 8971SOL     OW28809  11.010   3.832   9.435
 8971SOL    HW128810  10.954   3.828   9.513
 8971SOL    HW228811  11.037   3.924   9.430
 8972SOL     OW28812  12.825  13.226  11.396
 8972SOL    HW128813  12.915  13.193  11.405
 8972SOL    HW228814  12.771  13.157  11.433
 8973SOL     OW28815   8.594   9.785   4.480
 8973SOL    HW128816   8.567   9.839   4.555
 8973SOL    HW228817   8.657   9.723   4.516
 8974SOL     OW28818   9.521   8.035   3.117
 8974SOL    HW128819   9.580   8.037   3.193
 8974SOL    HW228820   9.518   8.126   3.087
 8975SOL     OW28821  14.792   7.032  13.054
 8975SOL    HW128822  14.763   6.943  13.073
 8975SOL    HW228823  14.747   7.086  13.119
 8976SOL     OW28824   9.156   2.906   3.463
 8976SOL    HW128825   9.240   2.950   3.476
 8976SOL    HW228826   9.177   2.830   3.409
 8977SOL     OW28827   1.550   7.554   5.585
 8977SOL    HW128828   1.601   7.587   5.660
 8977SOL    HW228829   1.591   7.595   5.509
 8978SOL     OW28830  13.503  13.414   0.648
 8978SOL    HW128831  13.455  13.338   0.614
 8978SOL    HW228832  13.505  13.476   0.574
 8979SOL     OW28833  11.025  11.614   4.521
 8979SOL    HW128834  11.078  11.631   4.443
 8979SOL    HW228835  10.980  11.532   4.502
 8980SOL     OW28836  13.259   8.275   5.364
 8980SOL    HW128837  13.228   8.247   5.278
 8980SOL    HW228838  13.233   8.367   5.370
 8981SOL     OW28839   2.659   4.705   1.689
 8981SOL    HW128840   2.627   4.693   1.779
 8981SOL    HW228841   2.670   4.616   1.656
 8982SOL     OW28842   3.004   5.455  10.746
 8982SOL    HW128843   3.025   5.547  10.734
 8982SOL    HW228844   2.925   5.441  10.693
 8983SOL     OW28845  13.394   9.469   1.049
 8983SOL    HW128846  13.335   9.472   1.125
 8983SOL    HW228847  13.336   9.456   0.974
 8984SOL     OW28848   8.352   9.652  10.853
 8984SOL    HW128849   8.299   9.655  10.933
 8984SOL    HW228850   8.289   9.670  10.783
 8985SOL     OW28851   3.006   7.651   6.042
 8985SOL    HW128852   3.050   7.645   6.127
 8985SOL    HW228853   2.939   7.584   6.044
 8986SOL     OW28854   8.415   5.926   5.927
 8986SOL    HW128855   8.473   5.851   5.937
 8986SOL    HW228856   8.370   5.934   6.011
 8987SOL     OW28857   9.594   0.026   0.223
 8987SOL    HW128858   9.585   0.082   0.299
 8987SOL    HW228859   9.583  14.807   0.257
 8988SOL     OW28860   2.701   4.302   7.890
 8988SOL    HW128861   2.715   4.212   7.861
 8988SOL    HW228862   2.776   4.321   7.947
 8989SOL     OW28863   3.076   2.951   4.915
 8989SOL    HW128864   3.157   2.954   4.966
 8989SOL    HW228865   3.065   3.041   4.884
 8990SOL     OW28866  14.862  10.751   3.515
 8990SOL    HW128867   0.056  10.781   3.580
 8990SOL    HW228868  14.803  10.826   3.503
 8991SOL     OW28869  10.177  14.602  10.503
 8991SOL    HW128870  10.191  14.692  10.474
 8991SOL    HW228871  10.262  14.574  10.537
 8992SOL     OW28872   6.503   8.726  10.396
 8992SOL    HW128873   6.589   8.686  10.386
 8992SOL    HW228874   6.520   8.807  10.445
 8993SOL     OW28875   0.542  14.178   1.261
 8993SOL    HW128876   0.524  14.272   1.254
 8993SOL    HW228877   0.634  14.170   1.236
 8994SOL     OW28878   0.484   2.445   3.681
 8994SOL    HW128879   0.576   2.428   3.700
 8994SOL    HW228880   0.471   2.537   3.705
 8995SOL     OW28881  11.396  10.742   5.657
 8995SOL    HW128882  11.347  10.705   5.584
 8995SOL    HW228883  11.427  10.826   5.625
 8996SOL     OW28884   2.649  12.276  10.333
 8996SOL    HW128885   2.569  12.224  10.340
 8996SOL    HW228886   2.642  12.341  10.402
 8997SOL     OW28887   9.004  13.851  11.117
 8997SOL    HW128888   8.974  13.880  11.031
 8997SOL    HW228889   8.948  13.898  11.179
 8998SOL     OW28890   6.339  12.689  13.695
 8998SOL    HW128891   6.387  12.765  13.662
 8998SOL    HW228892   6.344  12.697  13.790
 8999SOL     OW28893  11.417  13.092   7.223
 8999SOL    HW128894  11.424  12.997   7.209
 8999SOL    HW228895  11.383  13.099   7.313
 9000SOL     OW28896  10.834   1.917   3.290
 9000SOL    HW128897  10.815   1.900   3.197
 9000SOL    HW228898  10.756   1.884   3.336
 9001SOL     OW28899  10.942   1.151   7.989
 9001SOL    HW128900  11.023   1.151   8.040
 9001SOL    HW228901  10.920   1.244   7.981
 9002SOL     OW28902  10.096   7.680   4.058
 9002SOL    HW128903  10.070   7.655   4.147
 9002SOL    HW228904  10.035   7.750   4.035
 9003SOL     OW28905  10.477   4.290   1.064
 9003SOL    HW128906  10.506   4.359   1.003
 9003SOL    HW228907  10.434   4.225   1.008
 9004SOL     OW28908   7.773   7.343   6.111
 9004SOL    HW128909   7.772   7.389   6.196
 9004SOL    HW228910   7.769   7.250   6.134
 9005SOL     OW28911   4.208   4.280   7.942
 9005SOL    HW128912   4.230   4.371   7.921
 9005SOL    HW228913   4.234   4.270   8.034
 9006SOL     OW28914   4.199   4.601   9.652
 9006SOL    HW128915   4.144   4.649   9.589
 9006SOL    HW228916   4.281   4.651   9.654
 9007SOL     OW28917  14.333  12.679   3.307
 9007SOL    HW128918  14.397  12.751   3.307
 9007SOL    HW228919  14.352  12.630   3.227
 9008SOL     OW28920  11.308   8.728   7.493
 9008SOL    HW128921  11.293   8.765   7.406
 9008SOL    HW228922  11.309   8.633   7.480
 9009SOL     OW28923   0.293  14.374   4.415
 9009SOL    HW128924   0.230  14.325   4.362
 9009SOL    HW228925   0.268  14.354   4.506
 9010SOL     OW28926   4.440  10.349   7.627
 9010SOL    HW128927   4.388  10.388   7.697
 9010SOL    HW228928   4.412  10.395   7.548
 9011SOL     OW28929   9.574   0.218   5.577
 9011SOL    HW128930   9.618   0.288   5.626
 9011SOL    HW228931   9.611   0.224   5.489
 9012SOL     OW28932  10.771   0.774   6.951
 9012SOL    HW128933  10.767   0.717   7.028
 9012SOL    HW228934  10.680   0.786   6.925
 9013SOL     OW28935   0.136   5.086   7.876
 9013SOL    HW128936   0.069   5.127   7.931
 9013SOL    HW228937   0.215   5.138   7.893
 9014SOL     OW28938   2.680   7.753  10.285
 9014SOL    HW128939   2.654   7.845  10.280
 9014SOL    HW228940   2.612   7.707  10.236
 9015SOL     OW28941   1.916   9.651   8.617
 9015SOL    HW128942   1.937   9.592   8.545
 9015SOL    HW228943   1.897   9.735   8.575
 9016SOL     OW28944   8.326   9.895   1.594
 9016SOL    HW128945   8.332   9.866   1.503
 9016SOL    HW228946   8.416   9.904   1.623
 9017SOL     OW28947  11.039   6.562  12.484
 9017SOL    HW128948  11.038   6.469  12.508
 9017SOL    HW228949  10.948   6.590  12.496
 9018SOL     OW28950   7.763   2.464  13.764
 9018SOL    HW128951   7.817   2.543  13.776
 9018SOL    HW228952   7.795   2.403  13.831
 9019SOL     OW28953  14.220   1.499   0.440
 9019SOL    HW128954  14.179   1.565   0.497
 9019SOL    HW228955  14.160   1.425   0.442
 9020SOL     OW28956   1.791   6.970   8.170
 9020SOL    HW128957   1.848   7.011   8.105
 9020SOL    HW228958   1.841   6.896   8.202
 9021SOL     OW28959   0.924   1.298   4.452
 9021SOL    HW128960   0.911   1.324   4.543
 9021SOL    HW228961   0.941   1.204   4.456
 9022SOL     OW28962  14.424   3.388  14.404
 9022SOL    HW128963  14.475   3.385  14.324
 9022SOL    HW228964  14.417   3.297  14.432
 9023SOL     OW28965   6.370  10.893  12.945
 9023SOL    HW128966   6.384  10.987  12.936
 9023SOL    HW228967   6.276  10.883  12.958
 9024SOL     OW28968   0.860  11.657   3.325
 9024SOL    HW128969   0.911  11.737   3.310
 9024SOL    HW228970   0.889  11.626   3.411
 9025SOL     OW28971  12.566   9.112  11.093
 9025SOL    HW128972  12.531   9.182  11.039
 9025SOL    HW228973  12.528   9.032  11.057
 9026SOL     OW28974   0.708   6.769   0.020
 9026SOL    HW128975   0.731   6.855   0.056
 9026SOL    HW228976   0.635   6.739   0.074
 9027SOL     OW28977  13.726   2.385   4.262
 9027SOL    HW128978  13.700   2.306   4.310
 9027SOL    HW228979  13.646   2.436   4.255
 9028SOL     OW28980  14.248  10.553  10.623
 9028SOL    HW128981  14.246  10.473  10.570
 9028SOL    HW228982  14.287  10.619  10.565
 9029SOL     OW28983   3.500   5.639   2.296
 9029SOL    HW128984   3.566   5.708   2.286
 9029SOL    HW228985   3.532   5.566   2.245
 9030SOL     OW28986   9.299  11.331   4.758
 9030SOL    HW128987   9.364  11.401   4.749
 9030SOL    HW228988   9.294  11.291   4.671
 9031SOL     OW28989  13.975   1.488   1.495
 9031SOL    HW128990  13.891   1.457   1.527
 9031SOL    HW228991  13.992   1.436   1.416
 9032SOL     OW28992   3.170   0.966   4.739
 9032SOL    HW128993   3.257   0.927   4.734
 9032SOL    HW228994   3.148   0.986   4.648
 9033SOL     OW28995   4.567  10.883   6.624
 9033SOL    HW128996   4.476  10.869   6.652
 9033SOL    HW228997   4.584  10.975   6.644
 9034SOL     OW28998   8.012  12.299  10.262
 9034SOL    HW128999   7.966  12.350  10.195
 9034SOL    HW229000   8.102  12.332  10.260
 9035SOL     OW29001   5.483   4.185   1.226
 9035SOL    HW129002   5.504   4.231   1.145
 9035SOL    HW229003   5.506   4.094   1.209
 9036SOL     OW29004   9.492   3.310   9.770
 9036SOL    HW129005   9.545   3.326   9.693
 9036SOL    HW229006   9.485   3.396   9.813
 9037SOL     OW29007   0.236   1.881  12.898
 9037SOL    HW129008   0.197   1.954  12.850
 9037SOL    HW229009   0.171   1.811  12.893
 9038SOL     OW29010   3.628  10.518   8.014
 9038SOL    HW129011   3.704  10.471   7.979
 9038SOL    HW229012   3.609  10.585   7.949
 9039SOL     OW29013   9.975  13.985   4.077
 9039SOL    HW129014  10.047  14.019   4.129
 9039SOL    HW229015   9.950  14.057   4.019
 9040SOL     OW29016   1.570   6.418   8.290
 9040SOL    HW129017   1.625   6.396   8.214
 9040SOL    HW229018   1.485   6.440   8.253
 9041SOL     OW29019   5.722   5.359   4.282
 9041SOL    HW129020   5.632   5.341   4.254
 9041SOL    HW229021   5.723   5.453   4.299
 9042SOL     OW29022  13.333   2.823   6.421
 9042SOL    HW129023  13.264   2.820   6.354
 9042SOL    HW229024  13.317   2.905   6.468
 9043SOL     OW29025   1.150   2.181   7.261
 9043SOL    HW129026   1.132   2.230   7.181
 9043SOL    HW229027   1.237   2.211   7.288
 9044SOL     OW29028   7.069   3.338  12.936
 9044SOL    HW129029   7.029   3.266  12.887
 9044SOL    HW229030   7.134   3.296  12.992
 9045SOL     OW29031   9.561  14.592   3.442
 9045SOL    HW129032   9.550  14.592   3.537
 9045SOL    HW229033   9.525  14.508   3.413
 9046SOL     OW29034   8.616   6.412   1.744
 9046SOL    HW129035   8.683   6.444   1.804
 9046SOL    HW229036   8.604   6.320   1.769
 9047SOL     OW29037   4.130  14.848   0.814
 9047SOL    HW129038   4.209   0.018   0.779
 9047SOL    HW229039   4.157  14.759   0.840
 9048SOL     OW29040   5.646   5.929  13.920
 9048SOL    HW129041   5.704   5.870  13.968
 9048SOL    HW229042   5.658   5.904  13.828
 9049SOL     OW29043   0.685   1.538   9.848
 9049SOL    HW129044   0.724   1.547   9.935
 9049SOL    HW229045   0.594   1.514   9.864
 9050SOL     OW29046  11.803   2.033  11.062
 9050SOL    HW129047  11.797   2.126  11.041
 9050SOL    HW229048  11.811   1.990  10.976
 9051SOL     OW29049  12.880   4.486  13.138
 9051SOL    HW129050  12.823   4.556  13.169
 9051SOL    HW229051  12.941   4.530  13.077
 9052SOL     OW29052   6.635  10.870  13.059
 9052SOL    HW129053   6.637  10.776  13.039
 9052SOL    HW229054   6.550  10.899  13.026
 9053SOL     OW29055   6.807   1.418   7.546
 9053SOL    HW129056   6.811   1.460   7.632
 9053SOL    HW229057   6.897   1.422   7.513
 9054SOL     OW29058  14.053   4.569   2.298
 9054SOL    HW129059  13.980   4.629   2.312
 9054SOL    HW229060  14.068   4.528   2.383
 9055SOL     OW29061   9.729  14.802   4.255
 9055SOL    HW129062   9.726   0.026   4.236
 9055SOL    HW229063   9.647  14.784   4.300
 9056SOL     OW29064   9.470  12.657   5.567
 9056SOL    HW129065   9.526  12.596   5.519
 9056SOL    HW229066   9.485  12.741   5.525
 9057SOL     OW29067   4.215   5.479  13.117
 9057SOL    HW129068   4.123   5.503  13.099
 9057SOL    HW229069   4.209   5.400  13.170
 9058SOL     OW29070   1.659   6.036   9.725
 9058SOL    HW129071   1.751   6.045   9.702
 9058SOL    HW229072   1.618   6.116   9.693
 9059SOL     OW29073  13.404   9.685  11.352
 9059SOL    HW129074  13.358   9.768  11.343
 9059SOL    HW229075  13.376   9.652  11.437
 9060SOL     OW29076   4.216   7.980   4.139
 9060SOL    HW129077   4.166   7.994   4.220
 9060SOL    HW229078   4.178   8.041   4.076
 9061SOL     OW29079   3.737   6.727  12.733
 9061SOL    HW129080   3.682   6.716  12.656
 9061SOL    HW229081   3.793   6.801  12.712
 9062SOL     OW29082   5.438   6.381   1.455
 9062SOL    HW129083   5.418   6.335   1.537
 9062SOL    HW229084   5.357   6.375   1.404
 9063SOL     OW29085   7.623  13.766  12.899
 9063SOL    HW129086   7.570  13.841  12.927
 9063SOL    HW229087   7.567  13.719  12.836
 9064SOL     OW29088  11.103   3.748   9.726
 9064SOL    HW129089  11.014   3.771   9.754
 9064SOL    HW229090  11.127   3.818   9.665
 9065SOL     OW29091   0.676   6.446   1.109
 9065SOL    HW129092   0.653   6.526   1.062
 9065SOL    HW229093   0.597   6.392   1.106
 9066SOL     OW29094   7.349   9.215   2.384
 9066SOL    HW129095   7.400   9.239   2.307
 9066SOL    HW229096   7.395   9.256   2.457
 9067SOL     OW29097   4.610  12.694   9.143
 9067SOL    HW129098   4.559  12.662   9.218
 9067SOL    HW229099   4.548  12.697   9.071
 9068SOL     OW29100   4.475   5.272  11.999
 9068SOL    HW129101   4.535   5.208  12.036
 9068SOL    HW229102   4.470   5.249  11.906
 9069SOL     OW29103   4.089  12.340   0.581
 9069SOL    HW129104   4.131  12.375   0.502
 9069SOL    HW229105   4.121  12.396   0.652
 9070SOL     OW29106   0.887   2.712   6.247
 9070SOL    HW129107   0.795   2.738   6.258
 9070SOL    HW229108   0.923   2.778   6.188
 9071SOL     OW29109   5.611   1.526  11.362
 9071SOL    HW129110   5.605   1.507  11.268
 9071SOL    HW229111   5.702   1.506  11.384
 9072SOL     OW29112   2.726   1.932   5.063
 9072SOL    HW129113   2.758   1.908   4.976
 9072SOL    HW229114   2.745   2.026   5.070
 9073SOL     OW29115  10.666  14.621   7.820
 9073SOL    HW129116  10.686  14.534   7.853
 9073SOL    HW229117  10.631  14.668   7.896
 9074SOL     OW29118   2.316   0.529  11.683
 9074SOL    HW129119   2.260   0.557  11.756
 9074SOL    HW229120   2.311   0.601  11.621
 9075SOL     OW29121  11.793   7.747   6.797
 9075SOL    HW129122  11.882   7.715   6.811
 9075SOL    HW229123  11.800   7.842   6.811
 9076SOL     OW29124   1.363  13.814   3.777
 9076SOL    HW129125   1.302  13.766   3.721
 9076SOL    HW229126   1.310  13.886   3.813
 9077SOL     OW29127   0.778  14.351   5.554
 9077SOL    HW129128   0.730  14.329   5.634
 9077SOL    HW229129   0.746  14.288   5.489
 9078SOL     OW29130   1.387  11.007  11.658
 9078SOL    HW129131   1.452  10.944  11.690
 9078SOL    HW229132   1.434  11.057  11.591
 9079SOL     OW29133   2.644   8.343  12.996
 9079SOL    HW129134   2.571   8.376  13.048
 9079SOL    HW229135   2.625   8.372  12.907
 9080SOL     OW29136   3.952  13.767  11.781
 9080SOL    HW129137   3.881  13.793  11.840
 9080SOL    HW229138   3.994  13.693  11.824
 9081SOL     OW29139   4.479   9.631   3.521
 9081SOL    HW129140   4.393   9.590   3.531
 9081SOL    HW229141   4.529   9.601   3.597
 9082SOL     OW29142   2.385   8.703  11.795
 9082SOL    HW129143   2.419   8.693  11.884
 9082SOL    HW229144   2.291   8.712  11.806
 9083SOL     OW29145   6.629  10.689  10.947
 9083SOL    HW129146   6.718  10.713  10.974
 9083SOL    HW229147   6.603  10.759  10.887
 9084SOL     OW29148   6.874   2.131   7.672
 9084SOL    HW129149   6.936   2.195   7.637
 9084SOL    HW229150   6.833   2.092   7.594
 9085SOL     OW29151   9.509  13.580  12.518
 9085SOL    HW129152   9.549  13.661  12.548
 9085SOL    HW229153   9.572  13.543  12.456
 9086SOL     OW29154  11.489  14.445   4.447
 9086SOL    HW129155  11.433  14.516   4.414
 9086SOL    HW229156  11.470  14.371   4.390
 9087SOL     OW29157   4.813   9.794   4.966
 9087SOL    HW129158   4.788   9.876   4.925
 9087SOL    HW229159   4.807   9.729   4.896
 9088SOL     OW29160  14.304  13.245   1.457
 9088SOL    HW129161  14.289  13.332   1.494
 9088SOL    HW229162  14.217  13.206   1.450
 9089SOL     OW29163   6.900   5.390  10.911
 9089SOL    HW129164   6.931   5.469  10.866
 9089SOL    HW229165   6.923   5.405  11.003
 9090SOL     OW29166   9.477   1.905   3.957
 9090SOL    HW129167   9.450   1.855   4.034
 9090SOL    HW229168   9.422   1.984   3.959
 9091SOL     OW29169   0.932  13.545   4.233
 9091SOL    HW129170   1.004  13.550   4.295
 9091SOL    HW229171   0.897  13.634   4.230
 9092SOL     OW29172  13.697   6.507   1.996
 9092SOL    HW129173  13.785   6.518   1.958
 9092SOL    HW229174  13.713   6.486   2.088
 9093SOL     OW29175   5.136   6.059   2.315
 9093SOL    HW129176   5.069   6.092   2.375
 9093SOL    HW229177   5.102   5.975   2.285
 9094SOL     OW29178   3.123  13.360  10.378
 9094SOL    HW129179   3.218  13.365  10.375
 9094SOL    HW229180   3.093  13.437  10.329
 9095SOL     OW29181   3.319   8.683  13.464
 9095SOL    HW129182   3.268   8.746  13.412
 9095SOL    HW229183   3.339   8.730  13.545
 9096SOL     OW29184  12.762   1.468   4.890
 9096SOL    HW129185  12.811   1.386   4.892
 9096SOL    HW229186  12.775   1.506   4.977
 9097SOL     OW29187   2.764  11.568  10.827
 9097SOL    HW129188   2.793  11.515  10.753
 9097SOL    HW229189   2.842  11.617  10.853
 9098SOL     OW29190  12.826   1.274   4.488
 9098SOL    HW129191  12.836   1.236   4.576
 9098SOL    HW229192  12.904   1.245   4.441
 9099SOL     OW29193  13.683   6.428   2.258
 9099SOL    HW129194  13.589   6.445   2.270
 9099SOL    HW229195  13.718   6.425   2.347
 9100SOL     OW29196   3.651   0.545  11.727
 9100SOL    HW129197   3.658   0.459  11.685
 9100SOL    HW229198   3.718   0.544  11.795
 9101SOL     OW29199   4.539  11.269  11.096
 9101SOL    HW129200   4.585  11.269  11.180
 9101SOL    HW229201   4.496  11.183  11.093
 9102SOL     OW29202   4.669  13.784  14.037
 9102SOL    HW129203   4.697  13.711  13.982
 9102SOL    HW229204   4.744  13.803  14.092
 9103SOL     OW29205   0.321   9.196   7.176
 9103SOL    HW129206   0.231   9.221   7.196
 9103SOL    HW229207   0.325   9.196   7.081
 9104SOL     OW29208   2.329  11.139   2.115
 9104SOL    HW129209   2.419  11.170   2.103
 9104SOL    HW229210   2.339  11.051   2.150
 9105SOL     OW29211   5.268   3.860   3.784
 9105SOL    HW129212   5.241   3.935   3.838
 9105SOL    HW229213   5.349   3.888   3.743
 9106SOL     OW29214   6.313   3.769  14.484
 9106SOL    HW129215   6.310   3.864  14.495
 9106SOL    HW229216   6.391   3.742  14.533
 9107SOL     OW29217   1.730   1.422   2.993
 9107SOL    HW129218   1.740   1.413   2.898
 9107SOL    HW229219   1.677   1.347   3.019
 9108SOL     OW29220   9.537  13.474  13.113
 9108SOL    HW129221   9.592  13.395  13.106
 9108SOL    HW229222   9.586  13.532  13.170
 9109SOL     OW29223   1.300  11.318   4.117
 9109SOL    HW129224   1.319  11.411   4.133
 9109SOL    HW229225   1.373  11.287   4.063
 9110SOL     OW29226  10.015   5.847   9.950
 9110SOL    HW129227  10.107   5.867   9.965
 9110SOL    HW229228   9.985   5.812  10.034
 9111SOL     OW29229  11.841   8.902   0.840
 9111SOL    HW129230  11.819   8.982   0.793
 9111SOL    HW229231  11.893   8.931   0.915
 9112SOL     OW29232   8.591   1.558  11.181
 9112SOL    HW129233   8.508   1.513  11.193
 9112SOL    HW229234   8.652   1.514  11.240
 9113SOL     OW29235   6.098   4.994   8.321
 9113SOL    HW129236   6.059   4.979   8.407
 9113SOL    HW229237   6.029   4.970   8.259
 9114SOL     OW29238   9.675   8.101   6.035
 9114SOL    HW129239   9.605   8.044   6.068
 9114SOL    HW229240   9.628   8.175   5.997
 9115SOL     OW29241  13.238  11.259   9.516
 9115SOL    HW129242  13.277  11.345   9.501
 9115SOL    HW229243  13.250  11.242   9.609
 9116SOL     OW29244  13.742  12.528   5.690
 9116SOL    HW129245  13.772  12.515   5.600
 9116SOL    HW229246  13.697  12.446   5.712
 9117SOL     OW29247   2.984   4.103  12.980
 9117SOL    HW129248   2.956   4.125  13.069
 9117SOL    HW229249   3.014   4.012  12.986
 9118SOL     OW29250   8.758   8.034  12.526
 9118SOL    HW129251   8.676   8.083  12.516
 9118SOL    HW229252   8.739   7.948  12.487
 9119SOL     OW29253   6.923   3.550  11.365
 9119SOL    HW129254   6.966   3.629  11.396
 9119SOL    HW229255   6.856   3.531  11.431
 9120SOL     OW29256   4.323   7.653   1.177
 9120SOL    HW129257   4.272   7.582   1.138
 9120SOL    HW229258   4.366   7.613   1.253
 9121SOL     OW29259   7.807   6.447   2.531
 9121SOL    HW129260   7.876   6.465   2.467
 9121SOL    HW229261   7.802   6.525   2.586
 9122SOL     OW29262  12.846   8.288   4.285
 9122SOL    HW129263  12.863   8.366   4.232
 9122SOL    HW229264  12.759   8.260   4.258
 9123SOL     OW29265  13.865   6.249  13.168
 9123SOL    HW129266  13.800   6.291  13.111
 9123SOL    HW229267  13.940   6.308  13.166
 9124SOL     OW29268  11.899  13.661  14.133
 9124SOL    HW129269  11.973  13.688  14.079
 9124SOL    HW229270  11.863  13.743  14.167
 9125SOL     OW29271   8.519   1.597  12.007
 9125SOL    HW129272   8.580   1.567  12.074
 9125SOL    HW229273   8.469   1.519  11.983
 9126SOL     OW29274   9.421  10.305   3.805
 9126SOL    HW129275   9.341  10.275   3.761
 9126SOL    HW229276   9.469  10.352   3.738
 9127SOL     OW29277  13.565   9.040   0.572
 9127SOL    HW129278  13.514   9.106   0.619
 9127SOL    HW229279  13.499   8.980   0.537
 9128SOL     OW29280  11.055   8.240   6.057
 9128SOL    HW129281  11.136   8.291   6.053
 9128SOL    HW229282  11.029   8.244   6.149
 9129SOL     OW29283  10.055   3.729  11.621
 9129SOL    HW129284  10.145   3.749  11.646
 9129SOL    HW229285  10.027   3.804  11.568
 9130SOL     OW29286   7.935   1.183   0.111
 9130SOL    HW129287   7.889   1.121   0.167
 9130SOL    HW229288   7.890   1.266   0.124
 9131SOL     OW29289   0.223  14.218   8.482
 9131SOL    HW129290   0.279  14.295   8.486
 9131SOL    HW229291   0.167  14.232   8.405
 9132SOL     OW29292  13.909  13.718   3.109
 9132SOL    HW129293  13.943  13.657   3.174
 9132SOL    HW229294  13.864  13.662   3.045
 9133SOL     OW29295  13.533  14.534  14.752
 9133SOL    HW129296  13.538  14.514  14.659
 9133SOL    HW229297  13.446  14.505  14.778
 9134SOL     OW29298   7.833  10.355   9.339
 9134SOL    HW129299   7.835  10.260   9.352
 9134SOL    HW229300   7.797  10.390   9.421
 9135SOL     OW29301   2.075   4.448  14.089
 9135SOL    HW129302   2.034   4.520  14.137
 9135SOL    HW229303   2.169   4.461  14.102
 9136SOL     OW29304   5.610  11.308   3.958
 9136SOL    HW129305   5.546  11.261   4.011
 9136SOL    HW229306   5.583  11.291   3.868
 9137SOL     OW29307  12.050   7.016   7.794
 9137SOL    HW129308  11.986   6.988   7.729
 9137SOL    HW229309  12.005   7.007   7.878
 9138SOL     OW29310  13.507   4.138   1.342
 9138SOL    HW129311  13.601   4.143   1.360
 9138SOL    HW229312  13.499   4.082   1.265
 9139SOL     OW29313   7.641   3.902  11.004
 9139SOL    HW129314   7.639   3.972  11.070
 9139SOL    HW229315   7.571   3.843  11.031
 9140SOL     OW29316   1.184   4.291  10.771
 9140SOL    HW129317   1.168   4.378  10.807
 9140SOL    HW229318   1.269   4.265  10.807
 9141SOL     OW29319  11.080  12.708  14.771
 9141SOL    HW129320  11.142  12.732  14.702
 9141SOL    HW229321  11.036  12.790  14.792
 9142SOL     OW29322   7.133  13.665  11.344
 9142SOL    HW129323   7.227  13.684  11.344
 9142SOL    HW229324   7.118  13.617  11.262
 9143SOL     OW29325   9.170   0.446   0.360
 9143SOL    HW129326   9.253   0.453   0.313
 9143SOL    HW229327   9.177   0.511   0.430
 9144SOL     OW29328   3.525   1.658   2.499
 9144SOL    HW129329   3.507   1.566   2.483
 9144SOL    HW229330   3.588   1.658   2.572
 9145SOL     OW29331  11.707   7.759   6.217
 9145SOL    HW129332  11.707   7.694   6.287
 9145SOL    HW229333  11.796   7.793   6.216
 9146SOL     OW29334  10.868   1.906   0.487
 9146SOL    HW129335  10.945   1.879   0.436
 9146SOL    HW229336  10.825   1.972   0.433
 9147SOL     OW29337   4.287   3.822  11.432
 9147SOL    HW129338   4.199   3.837  11.466
 9147SOL    HW229339   4.279   3.741  11.381
 9148SOL     OW29340  13.216   9.439  10.921
 9148SOL    HW129341  13.294   9.464  10.971
 9148SOL    HW229342  13.190   9.520  10.876
 9149SOL     OW29343  13.679   1.564  13.880
 9149SOL    HW129344  13.711   1.612  13.803
 9149SOL    HW229345  13.695   1.472  13.859
 9150SOL     OW29346   5.000  11.965  13.898
 9150SOL    HW129347   4.954  11.905  13.956
 9150SOL    HW229348   4.961  12.050  13.916
 9151SOL     OW29349   0.746  13.660   6.525
 9151SOL    HW129350   0.723  13.625   6.438
 9151SOL    HW229351   0.668  13.642   6.578
 9152SOL     OW29352   0.372   3.502   4.859
 9152SOL    HW129353   0.423   3.560   4.802
 9152SOL    HW229354   0.301   3.471   4.803
 9153SOL     OW29355   4.472   2.902   4.199
 9153SOL    HW129356   4.504   2.877   4.286
 9153SOL    HW229357   4.516   2.984   4.180
 9154SOL     OW29358   5.976   5.835   0.810
 9154SOL    HW129359   5.912   5.778   0.769
 9154SOL    HW229360   5.932   5.869   0.888
 9155SOL     OW29361   8.427   8.879  14.315
 9155SOL    HW129362   8.515   8.907  14.289
 9155SOL    HW229363   8.418   8.791  14.278
 9156SOL     OW29364  11.901   4.179   2.702
 9156SOL    HW129365  11.988   4.164   2.664
 9156SOL    HW229366  11.860   4.242   2.642
 9157SOL     OW29367   6.428   3.360  12.286
 9157SOL    HW129368   6.515   3.371  12.247
 9157SOL    HW229369   6.414   3.265  12.285
 9158SOL     OW29370   6.764   2.010   8.185
 9158SOL    HW129371   6.747   2.095   8.144
 9158SOL    HW229372   6.739   1.946   8.118
 9159SOL     OW29373   7.659   3.050  13.284
 9159SOL    HW129374   7.564   3.049  13.296
 9159SOL    HW229375   7.694   3.011  13.363
 9160SOL     OW29376   2.508   1.148  10.899
 9160SOL    HW129377   2.417   1.150  10.872
 9160SOL    HW229378   2.557   1.166  10.819
 9161SOL     OW29379   1.467  13.126  13.337
 9161SOL    HW129380   1.417  13.061  13.287
 9161SOL    HW229381   1.490  13.193  13.272
 9162SOL     OW29382   9.138  10.065  11.909
 9162SOL    HW129383   9.080  10.076  11.833
 9162SOL    HW229384   9.221  10.104  11.881
 9163SOL     OW29385  13.918  14.343   4.757
 9163SOL    HW129386  13.940  14.316   4.846
 9163SOL    HW229387  13.894  14.261   4.713
 9164SOL     OW29388   2.623   3.765   5.613
 9164SOL    HW129389   2.694   3.764   5.678
 9164SOL    HW229390   2.605   3.673   5.596
 9165SOL     OW29391  10.221   4.836   8.112
 9165SOL    HW129392  10.202   4.820   8.019
 9165SOL    HW229393  10.247   4.928   8.115
 9166SOL     OW29394  14.654   8.017  14.795
 9166SOL    HW129395  14.663   7.922  14.795
 9166SOL    HW229396  14.560   8.033  14.807
 9167SOL     OW29397   8.643   2.815   7.942
 9167SOL    HW129398   8.723   2.795   7.894
 9167SOL    HW229399   8.609   2.894   7.900
 9168SOL     OW29400   9.834   9.799  13.802
 9168SOL    HW129401   9.800   9.847  13.878
 9168SOL    HW229402   9.884   9.865  13.754
 9169SOL     OW29403   0.207   1.266   6.249
 9169SOL    HW129404   0.137   1.211   6.214
 9169SOL    HW229405   0.168   1.306   6.328
 9170SOL     OW29406   0.666   3.274   7.336
 9170SOL    HW129407   0.657   3.191   7.382
 9170SOL    HW229408   0.758   3.277   7.309
 9171SOL     OW29409   5.311   5.451   0.907
 9171SOL    HW129410   5.295   5.361   0.933
 9171SOL    HW229411   5.318   5.499   0.990
 9172SOL     OW29412   8.320  11.937  13.543
 9172SOL    HW129413   8.249  11.883  13.579
 9172SOL    HW229414   8.334  12.006  13.608
 9173SOL     OW29415   9.650   8.372   4.627
 9173SOL    HW129416   9.672   8.448   4.575
 9173SOL    HW229417   9.669   8.398   4.717
 9174SOL     OW29418   6.520   2.859  12.446
 9174SOL    HW129419   6.593   2.826  12.500
 9174SOL    HW229420   6.444   2.857  12.504
 9175SOL     OW29421  14.807   3.464   8.093
 9175SOL    HW129422  14.862   3.531   8.052
 9175SOL    HW229423  14.832   3.466   8.185
 9176SOL     OW29424  10.503  10.662   2.989
 9176SOL    HW129425  10.477  10.646   3.080
 9176SOL    HW229426  10.433  10.623   2.937
 9177SOL     OW29427  11.768   0.879   8.114
 9177SOL    HW129428  11.727   0.826   8.183
 9177SOL    HW229429  11.797   0.958   8.158
 9178SOL     OW29430   3.022   1.480  13.904
 9178SOL    HW129431   3.008   1.406  13.963
 9178SOL    HW229432   2.976   1.553  13.946
 9179SOL     OW29433   1.529   5.561   2.513
 9179SOL    HW129434   1.614   5.524   2.538
 9179SOL    HW229435   1.469   5.487   2.514
 9180SOL     OW29436  12.125   8.063  12.036
 9180SOL    HW129437  12.129   8.071  11.941
 9180SOL    HW229438  12.085   8.145  12.065
 9181SOL     OW29439   4.986   0.644   0.939
 9181SOL    HW129440   5.068   0.604   0.968
 9181SOL    HW229441   4.922   0.573   0.942
 9182SOL     OW29442  14.404   2.944  13.891
 9182SOL    HW129443  14.450   2.994  13.824
 9182SOL    HW229444  14.345   2.887  13.842
 9183SOL     OW29445  13.119   2.285  13.281
 9183SOL    HW129446  13.192   2.276  13.220
 9183SOL    HW229447  13.062   2.211  13.263
 9184SOL     OW29448  10.374   1.835   9.908
 9184SOL    HW129449  10.300   1.775   9.913
 9184SOL    HW229450  10.390   1.844   9.814
 9185SOL     OW29451  10.434  12.195   1.473
 9185SOL    HW129452  10.508  12.136   1.490
 9185SOL    HW229453  10.461  12.279   1.510
 9186SOL     OW29454   9.285   9.977   4.361
 9186SOL    HW129455   9.368  10.024   4.373
 9186SOL    HW229456   9.287   9.909   4.428
 9187SOL     OW29457   6.618   8.064   5.329
 9187SOL    HW129458   6.530   8.079   5.293
 9187SOL    HW229459   6.627   8.129   5.398
 9188SOL     OW29460   7.363   6.642  13.616
 9188SOL    HW129461   7.369   6.737  13.605
 9188SOL    HW229462   7.453   6.611  13.609
 9189SOL     OW29463  13.362   6.363   3.774
 9189SOL    HW129464  13.332   6.287   3.824
 9189SOL    HW229465  13.336   6.344   3.684
 9190SOL     OW29466   1.588   7.749   9.163
 9190SOL    HW129467   1.580   7.843   9.147
 9190SOL    HW229468   1.595   7.741   9.258
 9191SOL     OW29469  11.080   1.188   4.782
 9191SOL    HW129470  11.057   1.118   4.843
 9191SOL    HW229471  11.153   1.153   4.732
 9192SOL     OW29472  13.179   2.510   8.431
 9192SOL    HW129473  13.145   2.488   8.518
 9192SOL    HW229474  13.199   2.604   8.436
 9193SOL     OW29475   2.395   6.935   6.685
 9193SOL    HW129476   2.349   6.858   6.653
 9193SOL    HW229477   2.388   6.999   6.613
 9194SOL     OW29478   0.230   1.976   2.846
 9194SOL    HW129479   0.170   2.051   2.856
 9194SOL    HW229480   0.314   2.008   2.877
 9195SOL     OW29481  11.114   8.755   5.180
 9195SOL    HW129482  11.156   8.682   5.134
 9195SOL    HW229483  11.100   8.821   5.112
 9196SOL     OW29484  11.702  13.506   2.504
 9196SOL    HW129485  11.666  13.590   2.531
 9196SOL    HW229486  11.685  13.448   2.578
 9197SOL     OW29487   5.713  13.353  13.249
 9197SOL    HW129488   5.747  13.410  13.180
 9197SOL    HW229489   5.625  13.329  13.221
 9198SOL     OW29490   2.195  10.785   8.412
 9198SOL    HW129491   2.192  10.770   8.317
 9198SOL    HW229492   2.237  10.871   8.421
 9199SOL     OW29493  10.044  11.121  12.381
 9199SOL    HW129494   9.994  11.142  12.302
 9199SOL    HW229495   9.981  11.133  12.453
 9200SOL     OW29496  14.868   9.652   0.844
 9200SOL    HW129497   0.054   9.695   0.909
 9200SOL    HW229498  14.813   9.722   0.810
 9201SOL     OW29499   2.607   2.816  14.647
 9201SOL    HW129500   2.647   2.820  14.734
 9201SOL    HW229501   2.662   2.873  14.592
 9202SOL     OW29502  14.183   4.184   3.149
 9202SOL    HW129503  14.250   4.133   3.105
 9202SOL    HW229504  14.231   4.253   3.194
 9203SOL     OW29505  11.834   4.937   9.545
 9203SOL    HW129506  11.839   4.859   9.489
 9203SOL    HW229507  11.742   4.942   9.572
 9204SOL     OW29508   1.033  14.645   9.205
 9204SOL    HW129509   1.032  14.625   9.111
 9204SOL    HW229510   1.062  14.564   9.246
 9205SOL     OW29511  11.649   5.867   7.405
 9205SOL    HW129512  11.622   5.791   7.457
 9205SOL    HW229513  11.677   5.830   7.322
 9206SOL     OW29514   6.267   1.394  13.527
 9206SOL    HW129515   6.244   1.414  13.618
 9206SOL    HW229516   6.291   1.301  13.529
 9207SOL     OW29517   2.041   8.985   4.242
 9207SOL    HW129518   1.997   9.048   4.185
 9207SOL    HW229519   2.132   8.989   4.215
 9208SOL     OW29520  12.071   6.691   4.851
 9208SOL    HW129521  12.051   6.784   4.839
 9208SOL    HW229522  11.995   6.656   4.898
 9209SOL     OW29523  13.194   9.875  12.032
 9209SOL    HW129524  13.167   9.876  11.940
 9209SOL    HW229525  13.226   9.786  12.046
 9210SOL     OW29526   0.682   4.561   9.570
 9210SOL    HW129527   0.742   4.588   9.501
 9210SOL    HW229528   0.618   4.632   9.575
 9211SOL     OW29529   9.422   1.720   4.872
 9211SOL    HW129530   9.398   1.648   4.931
 9211SOL    HW229531   9.346   1.778   4.873
 9212SOL     OW29532   2.361  12.797   0.006
 9212SOL    HW129533   2.367  12.856   0.081
 9212SOL    HW229534   2.448  12.801  14.836
 9213SOL     OW29535   4.450   5.259   4.732
 9213SOL    HW129536   4.388   5.322   4.695
 9213SOL    HW229537   4.463   5.289   4.822
 9214SOL     OW29538  13.860  13.039  14.027
 9214SOL    HW129539  13.866  13.106  14.095
 9214SOL    HW229540  13.909  13.076  13.953
 9215SOL     OW29541  11.008  12.950   3.549
 9215SOL    HW129542  10.976  12.983   3.465
 9215SOL    HW229543  11.026  13.028   3.601
 9216SOL     OW29544   9.549   7.109   0.173
 9216SOL    HW129545   9.597   7.029   0.193
 9216SOL    HW229546   9.511   7.137   0.256
 9217SOL     OW29547   1.787   8.874   3.343
 9217SOL    HW129548   1.772   8.827   3.261
 9217SOL    HW229549   1.721   8.840   3.403
 9218SOL     OW29550   4.379   6.951   8.703
 9218SOL    HW129551   4.406   6.980   8.617
 9218SOL    HW229552   4.285   6.935   8.694
 9219SOL     OW29553  10.820   4.591   2.589
 9219SOL    HW129554  10.881   4.531   2.544
 9219SOL    HW229555  10.824   4.672   2.538
 9220SOL     OW29556   6.476   6.417   9.558
 9220SOL    HW129557   6.434   6.351   9.613
 9220SOL    HW229558   6.423   6.418   9.478
 9221SOL     OW29559   9.718   7.017  13.974
 9221SOL    HW129560   9.797   7.063  13.944
 9221SOL    HW229561   9.670   7.083  14.025
 9222SOL     OW29562  13.494   0.814  13.011
 9222SOL    HW129563  13.461   0.732  12.975
 9222SOL    HW229564  13.477   0.808  13.105
 9223SOL     OW29565   6.576  11.521   7.847
 9223SOL    HW129566   6.522  11.598   7.829
 9223SOL    HW229567   6.665  11.555   7.849
 9224SOL     OW29568   7.019   7.205  14.652
 9224SOL    HW129569   6.999   7.159  14.733
 9224SOL    HW229570   6.933   7.225  14.614
 9225SOL     OW29571   7.208   8.586  13.330
 9225SOL    HW129572   7.258   8.585  13.249
 9225SOL    HW229573   7.262   8.638  13.390
 9226SOL     OW29574  14.110   0.312   8.403
 9226SOL    HW129575  14.081   0.275   8.486
 9226SOL    HW229576  14.052   0.274   8.338
 9227SOL     OW29577   8.625   4.536   1.662
 9227SOL    HW129578   8.597   4.542   1.753
 9227SOL    HW229579   8.705   4.588   1.657
 9228SOL     OW29580   3.383  11.465   1.341
 9228SOL    HW129581   3.356  11.513   1.263
 9228SOL    HW229582   3.350  11.516   1.414
 9229SOL     OW29583   1.487  12.329   9.079
 9229SOL    HW129584   1.507  12.355   9.169
 9229SOL    HW229585   1.567  12.286   9.048
 9230SOL     OW29586   0.088   1.747  13.843
 9230SOL    HW129587  14.864   1.740  13.861
 9230SOL    HW229588   0.115   1.657  13.824
 9231SOL     OW29589   5.701   1.756   0.627
 9231SOL    HW129590   5.701   1.670   0.669
 9231SOL    HW229591   5.780   1.757   0.573
 9232SOL     OW29592  11.096   6.274   5.324
 9232SOL    HW129593  11.062   6.288   5.236
 9232SOL    HW229594  11.048   6.198   5.357
 9233SOL     OW29595   7.958   9.522   5.963
 9233SOL    HW129596   7.864   9.506   5.954
 9233SOL    HW229597   7.997   9.435   5.970
 9234SOL     OW29598  12.561  14.139   7.084
 9234SOL    HW129599  12.629  14.187   7.131
 9234SOL    HW229600  12.607  14.096   7.013
 9235SOL     OW29601   7.605  10.309   6.545
 9235SOL    HW129602   7.520  10.307   6.588
 9235SOL    HW229603   7.658  10.367   6.600
 9236SOL     OW29604  10.583  11.236  14.367
 9236SOL    HW129605  10.524  11.311  14.365
 9236SOL    HW229606  10.670  11.274  14.351
 9237SOL     OW29607   0.421   5.237  11.843
 9237SOL    HW129608   0.483   5.165  11.850
 9237SOL    HW229609   0.452   5.302  11.906
 9238SOL     OW29610   4.662   1.095   6.354
 9238SOL    HW129611   4.632   1.132   6.271
 9238SOL    HW229612   4.607   1.136   6.420
 9239SOL     OW29613   5.594   2.514   0.076
 9239SOL    HW129614   5.666   2.568   0.107
 9239SOL    HW229615   5.573   2.457   0.151
 9240SOL     OW29616   1.445  12.896  10.751
 9240SOL    HW129617   1.534  12.882  10.719
 9240SOL    HW229618   1.452  12.887  10.846
 9241SOL     OW29619   0.389   6.892   3.049
 9241SOL    HW129620   0.448   6.896   3.124
 9241SOL    HW229621   0.426   6.953   2.985
 9242SOL     OW29622  11.406   0.916   5.125
 9242SOL    HW129623  11.352   0.977   5.075
 9242SOL    HW229624  11.371   0.922   5.214
 9243SOL     OW29625  14.739  10.082   8.819
 9243SOL    HW129626  14.681  10.008   8.802
 9243SOL    HW229627  14.702  10.126   8.895
 9244SOL     OW29628   8.165  11.637  13.429
 9244SOL    HW129629   8.215  11.634  13.347
 9244SOL    HW229630   8.073  11.634  13.401
 9245SOL     OW29631   0.484  13.539   6.709
 9245SOL    HW129632   0.449  13.588   6.635
 9245SOL    HW229633   0.409  13.524   6.766
 9246SOL     OW29634   1.497   1.885   2.296
 9246SOL    HW129635   1.571   1.898   2.356
 9246SOL    HW229636   1.526   1.815   2.238
 9247SOL     OW29637   0.024   8.591   7.364
 9247SOL    HW129638   0.038   8.604   7.270
 9247SOL    HW229639  14.854   8.673   7.393
 9248SOL     OW29640   5.452  14.687   7.035
 9248SOL    HW129641   5.367  14.710   7.073
 9248SOL    HW229642   5.510  14.758   7.061
 9249SOL     OW29643  12.573   7.442   4.573
 9249SOL    HW129644  12.551   7.530   4.604
 9249SOL    HW229645  12.524   7.383   4.631
 9250SOL     OW29646   1.497   0.411   8.823
 9250SOL    HW129647   1.472   0.503   8.833
 9250SOL    HW229648   1.491   0.374   8.911
 9251SOL     OW29649   4.426  11.953   1.177
 9251SOL    HW129650   4.493  12.009   1.138
 9251SOL    HW229651   4.436  11.965   1.272
 9252SOL     OW29652  10.022   7.788  11.595
 9252SOL    HW129653  10.018   7.723  11.665
 9252SOL    HW229654   9.931   7.800  11.568
 9253SOL     OW29655   9.309   4.325   6.655
 9253SOL    HW129656   9.316   4.274   6.574
 9253SOL    HW229657   9.395   4.317   6.697
 9254SOL     OW29658   6.969   0.362   8.697
 9254SOL    HW129659   6.975   0.268   8.718
 9254SOL    HW229660   6.894   0.369   8.638
 9255SOL     OW29661  12.576   9.761   5.175
 9255SOL    HW129662  12.520   9.683   5.172
 9255SOL    HW229663  12.613   9.767   5.087
 9256SOL     OW29664  12.014   6.383  14.379
 9256SOL    HW129665  11.928   6.367  14.418
 9256SOL    HW229666  12.022   6.479  14.376
 9257SOL     OW29667   0.995   4.630   7.028
 9257SOL    HW129668   0.915   4.616   6.977
 9257SOL    HW229669   1.013   4.544   7.067
 9258SOL     OW29670   8.221   9.805  10.304
 9258SOL    HW129671   8.132   9.773  10.319
 9258SOL    HW229672   8.215   9.855  10.223
 9259SOL     OW29673   8.410   4.638   1.293
 9259SOL    HW129674   8.373   4.719   1.329
 9259SOL    HW229675   8.333   4.588   1.264
 9260SOL     OW29676  12.241   9.160  11.167
 9260SOL    HW129677  12.294   9.238  11.185
 9260SOL    HW229678  12.292   9.088  11.205
 9261SOL     OW29679  12.215  10.878   6.762
 9261SOL    HW129680  12.131  10.851   6.801
 9261SOL    HW229681  12.196  10.963   6.722
 9262SOL     OW29682   5.367   1.369   5.157
 9262SOL    HW129683   5.347   1.284   5.119
 9262SOL    HW229684   5.329   1.366   5.245
 9263SOL     OW29685  14.685  10.218   7.668
 9263SOL    HW129686  14.774  10.204   7.637
 9263SOL    HW229687  14.674  10.153   7.737
 9264SOL     OW29688   6.796   1.612   2.124
 9264SOL    HW129689   6.792   1.635   2.216
 9264SOL    HW229690   6.851   1.679   2.084
 9265SOL     OW29691  14.435   2.390   4.302
 9265SOL    HW129692  14.504   2.338   4.260
 9265SOL    HW229693  14.466   2.480   4.296
 9266SOL     OW29694  10.122   1.059   6.863
 9266SOL    HW129695  10.103   1.135   6.918
 9266SOL    HW229696  10.059   1.065   6.791
 9267SOL     OW29697   4.047   0.434  11.455
 9267SOL    HW129698   4.093   0.391  11.383
 9267SOL    HW229699   3.954   0.417  11.437
 9268SOL     OW29700   6.693  10.924   6.788
 9268SOL    HW129701   6.788  10.930   6.802
 9268SOL    HW229702   6.655  10.974   6.860
 9269SOL     OW29703   3.302   2.333  10.853
 9269SOL    HW129704   3.386   2.301  10.886
 9269SOL    HW229705   3.238   2.305  10.919
 9270SOL     OW29706   4.249  12.336   1.669
 9270SOL    HW129707   4.293  12.266   1.718
 9270SOL    HW229708   4.198  12.290   1.603
 9271SOL     OW29709   0.881   8.174  13.111
 9271SOL    HW129710   0.808   8.113  13.119
 9271SOL    HW229711   0.942   8.132  13.051
 9272SOL     OW29712   7.041  13.225  14.337
 9272SOL    HW129713   7.091  13.146  14.319
 9272SOL    HW229714   6.956  13.211  14.294
 9273SOL     OW29715  11.614   8.702   7.311
 9273SOL    HW129716  11.586   8.627   7.363
 9273SOL    HW229717  11.673   8.751   7.369
 9274SOL     OW29718   4.204  14.318  12.992
 9274SOL    HW129719   4.248  14.310  12.907
 9274SOL    HW229720   4.268  14.363  13.047
 9275SOL     OW29721   7.231   0.190   5.531
 9275SOL    HW129722   7.324   0.187   5.554
 9275SOL    HW229723   7.205   0.098   5.523
 9276SOL     OW29724   0.498   0.733   4.909
 9276SOL    HW129725   0.408   0.762   4.926
 9276SOL    HW229726   0.494   0.637   4.917
 9277SOL     OW29727   9.730   1.584   6.290
 9277SOL    HW129728   9.674   1.506   6.295
 9277SOL    HW229729   9.814   1.551   6.258
 9278SOL     OW29730   7.238   2.241  14.595
 9278SOL    HW129731   7.235   2.160  14.646
 9278SOL    HW229732   7.265   2.213  14.508
 9279SOL     OW29733   9.758   9.769  12.916
 9279SOL    HW129734   9.745   9.862  12.901
 9279SOL    HW229735   9.822   9.743  12.850
 9280SOL     OW29736   5.844   3.169   5.477
 9280SOL    HW129737   5.820   3.258   5.502
 9280SOL    HW229738   5.928   3.154   5.520
 9281SOL     OW29739  14.625  14.531   4.784
 9281SOL    HW129740  14.648  14.623   4.774
 9281SOL    HW229741  14.555  14.517   4.720
 9282SOL     OW29742  14.072  10.840   9.940
 9282SOL    HW129743  14.068  10.935   9.949
 9282SOL    HW229744  14.147  10.824   9.882
 9283SOL     OW29745   9.998   8.815  10.502
 9283SOL    HW129746  10.021   8.727  10.534
 9283SOL    HW229747   9.921   8.801  10.448
 9284SOL     OW29748   0.509   5.591  11.108
 9284SOL    HW129749   0.591   5.608  11.154
 9284SOL    HW229750   0.489   5.672  11.061
 9285SOL     OW29751  14.047  12.695   0.609
 9285SOL    HW129752  13.979  12.647   0.657
 9285SOL    HW229753  14.101  12.626   0.570
 9286SOL     OW29754   2.326   8.336   9.517
 9286SOL    HW129755   2.331   8.242   9.534
 9286SOL    HW229756   2.406   8.355   9.469
 9287SOL     OW29757  13.287  13.039  14.066
 9287SOL    HW129758  13.383  13.040  14.062
 9287SOL    HW229759  13.267  13.077  14.152
 9288SOL     OW29760   5.233   4.890  12.391
 9288SOL    HW129761   5.254   4.820  12.453
 9288SOL    HW229762   5.252   4.971  12.438
 9289SOL     OW29763   7.203   7.814   5.076
 9289SOL    HW129764   7.287   7.770   5.067
 9289SOL    HW229765   7.150   7.780   5.003
 9290SOL     OW29766   5.102   2.628   7.350
 9290SOL    HW129767   5.185   2.647   7.305
 9290SOL    HW229768   5.084   2.708   7.400
 9291SOL     OW29769  14.666   1.926   4.676
 9291SOL    HW129770  14.581   1.970   4.668
 9291SOL    HW229771  14.646   1.843   4.720
 9292SOL     OW29772   0.940  11.361  10.703
 9292SOL    HW129773   0.967  11.276  10.670
 9292SOL    HW229774   0.855  11.345  10.744
 9293SOL     OW29775  10.776   8.461   8.698
 9293SOL    HW129776  10.701   8.520   8.710
 9293SOL    HW229777  10.738   8.381   8.663
 9294SOL     OW29778   1.725   3.530  10.413
 9294SOL    HW129779   1.711   3.550  10.321
 9294SOL    HW229780   1.637   3.522  10.450
 9295SOL     OW29781   3.695  10.124  14.101
 9295SOL    HW129782   3.718  10.062  14.170
 9295SOL    HW229783   3.624  10.177  14.139
 9296SOL     OW29784   8.841   3.529   6.540
 9296SOL    HW129785   8.852   3.505   6.632
 9296SOL    HW229786   8.880   3.616   6.533
 9297SOL     OW29787   6.717  11.576   0.622
 9297SOL    HW129788   6.794  11.539   0.580
 9297SOL    HW229789   6.724  11.550   0.713
 9298SOL     OW29790   4.433  14.069  11.348
 9298SOL    HW129791   4.497  13.998  11.358
 9298SOL    HW229792   4.349  14.024  11.341
 9299SOL     OW29793   8.672   9.361   6.734
 9299SOL    HW129794   8.705   9.370   6.645
 9299SOL    HW229795   8.739   9.401   6.789
 9300SOL     OW29796   2.404   6.647   0.216
 9300SOL    HW129797   2.468   6.579   0.194
 9300SOL    HW229798   2.400   6.701   0.138
 9301SOL     OW29799   4.377   2.919   6.049
 9301SOL    HW129800   4.391   2.970   5.969
 9301SOL    HW229801   4.455   2.936   6.102
 9302SOL     OW29802   6.264   6.071   6.874
 9302SOL    HW129803   6.239   6.140   6.935
 9302SOL    HW229804   6.203   6.000   6.892
 9303SOL     OW29805   6.548   7.622  11.289
 9303SOL    HW129806   6.594   7.706  11.292
 9303SOL    HW229807   6.477   7.636  11.227
 9304SOL     OW29808   5.921   7.678   7.606
 9304SOL    HW129809   5.923   7.765   7.645
 9304SOL    HW229810   5.984   7.682   7.534
 9305SOL     OW29811   2.643  12.092   0.336
 9305SOL    HW129812   2.632  12.007   0.379
 9305SOL    HW229813   2.738  12.100   0.322
 9306SOL     OW29814  13.697   1.395   9.525
 9306SOL    HW129815  13.767   1.361   9.580
 9306SOL    HW229816  13.741   1.456   9.465
 9307SOL     OW29817   8.262   7.315  11.955
 9307SOL    HW129818   8.326   7.247  11.932
 9307SOL    HW229819   8.281   7.335  12.047
 9308SOL     OW29820   4.489  10.190   4.246
 9308SOL    HW129821   4.397  10.166   4.257
 9308SOL    HW229822   4.489  10.285   4.245
 9309SOL     OW29823  11.011  12.641   2.894
 9309SOL    HW129824  11.068  12.710   2.861
 9309SOL    HW229825  11.066  12.594   2.958
 9310SOL     OW29826  10.632  11.932   3.322
 9310SOL    HW129827  10.617  11.967   3.410
 9310SOL    HW229828  10.585  11.993   3.265
 9311SOL     OW29829   8.463  14.458  11.942
 9311SOL    HW129830   8.394  14.456  11.876
 9311SOL    HW229831   8.528  14.518  11.907
 9312SOL     OW29832   3.257   7.937   1.486
 9312SOL    HW129833   3.351   7.928   1.471
 9312SOL    HW229834   3.231   7.854   1.526
 9313SOL     OW29835  13.659  10.008   0.265
 9313SOL    HW129836  13.734  10.034   0.320
 9313SOL    HW229837  13.697   9.997   0.178
 9314SOL     OW29838   7.723   6.743   5.904
 9314SOL    HW129839   7.712   6.661   5.856
 9314SOL    HW229840   7.635   6.765   5.935
 9315SOL     OW29841  10.091   9.122  14.595
 9315SOL    HW129842  10.169   9.070  14.578
 9315SOL    HW229843  10.018   9.063  14.578
 9316SOL     OW29844   6.287  11.095   1.738
 9316SOL    HW129845   6.293  11.122   1.646
 9316SOL    HW229846   6.364  11.134   1.779
 9317SOL     OW29847   9.933   0.131   8.212
 9317SOL    HW129848   9.961   0.218   8.242
 9317SOL    HW229849   9.973   0.070   8.273
 9318SOL     OW29850   2.215  13.357   8.924
 9318SOL    HW129851   2.285  13.309   8.967
 9318SOL    HW229852   2.248  13.447   8.918
 9319SOL     OW29853   4.657   7.825   6.867
 9319SOL    HW129854   4.625   7.798   6.953
 9319SOL    HW229855   4.751   7.839   6.879
 9320SOL     OW29856   4.462   4.393  11.318
 9320SOL    HW129857   4.429   4.422  11.233
 9320SOL    HW229858   4.458   4.298  11.314
 9321SOL     OW29859  13.824  12.149  11.858
 9321SOL    HW129860  13.857  12.060  11.843
 9321SOL    HW229861  13.876  12.204  11.800
 9322SOL     OW29862   1.248  10.165   7.544
 9322SOL    HW129863   1.169  10.111   7.545
 9322SOL    HW229864   1.300  10.132   7.617
 9323SOL     OW29865   3.878  13.620   6.344
 9323SOL    HW129866   3.882  13.635   6.438
 9323SOL    HW229867   3.787  13.596   6.327
 9324SOL     OW29868  12.701   5.684   4.239
 9324SOL    HW129869  12.661   5.597   4.243
 9324SOL    HW229870  12.734   5.691   4.150
 9325SOL     OW29871  10.916   5.343   1.649
 9325SOL    HW129872  10.850   5.300   1.704
 9325SOL    HW229873  10.898   5.310   1.561
 9326SOL     OW29874   9.333  14.586  10.715
 9326SOL    HW129875   9.306  14.639  10.641
 9326SOL    HW229876   9.320  14.495  10.685
 9327SOL     OW29877   1.797  11.102   0.028
 9327SOL    HW129878   1.757  11.145   0.103
 9327SOL    HW229879   1.785  11.008   0.045
 9328SOL     OW29880   6.350  12.906   0.735
 9328SOL    HW129881   6.305  12.919   0.819
 9328SOL    HW229882   6.442  12.898   0.759
 9329SOL     OW29883   6.834  12.853   5.939
 9329SOL    HW129884   6.775  12.783   5.912
 9329SOL    HW229885   6.794  12.888   6.018
 9330SOL     OW29886  10.921   7.721  10.451
 9330SOL    HW129887  10.959   7.805  10.477
 9330SOL    HW229888  10.915   7.726  10.355
 9331SOL     OW29889   9.084   5.180   5.559
 9331SOL    HW129890   9.042   5.183   5.473
 9331SOL    HW229891   9.140   5.102   5.555
 9332SOL     OW29892  14.166  12.361   2.800
 9332SOL    HW129893  14.113  12.317   2.867
 9332SOL    HW229894  14.255  12.330   2.815
 9333SOL     OW29895   9.510   0.036  11.162
 9333SOL    HW129896   9.551   0.117  11.131
 9333SOL    HW229897   9.422   0.062  11.189
 9334SOL     OW29898  14.460   8.626   7.591
 9334SOL    HW129899  14.477   8.696   7.654
 9334SOL    HW229900  14.546   8.589   7.573
 9335SOL     OW29901   3.610   2.755  11.205
 9335SOL    HW129902   3.603   2.670  11.162
 9335SOL    HW229903   3.704   2.766  11.221
 9336SOL     OW29904   4.875   8.949   2.754
 9336SOL    HW129905   4.883   8.886   2.682
 9336SOL    HW229906   4.805   8.914   2.809
 9337SOL     OW29907   5.113  11.324  10.646
 9337SOL    HW129908   5.137  11.348  10.556
 9337SOL    HW229909   5.083  11.233  10.640
 9338SOL     OW29910   3.052   3.143   0.002
 9338SOL    HW129911   3.068   3.049   0.012
 9338SOL    HW229912   2.969   3.148  14.823
 9339SOL     OW29913   9.664   7.687  12.028
 9339SOL    HW129914   9.621   7.654  12.107
 9339SOL    HW229915   9.669   7.611  11.970
 9340SOL     OW29916  11.507  14.518   4.179
 9340SOL    HW129917  11.580  14.485   4.231
 9340SOL    HW229918  11.514  14.473   4.095
 9341SOL     OW29919   0.730  12.852   2.049
 9341SOL    HW129920   0.685  12.851   1.965
 9341SOL    HW229921   0.823  12.861   2.026
 9342SOL     OW29922   9.747   2.978   9.135
 9342SOL    HW129923   9.685   3.044   9.166
 9342SOL    HW229924   9.693   2.917   9.084
 9343SOL     OW29925  10.772   5.580  10.338
 9343SOL    HW129926  10.814   5.513  10.285
 9343SOL    HW229927  10.746   5.534  10.418
 9344SOL     OW29928  11.920   4.981   1.484
 9344SOL    HW129929  11.986   5.002   1.550
 9344SOL    HW229930  11.963   4.920   1.425
 9345SOL     OW29931  11.219   5.340   6.390
 9345SOL    HW129932  11.256   5.282   6.457
 9345SOL    HW229933  11.202   5.422   6.436
 9346SOL     OW29934   0.280   8.519  14.623
 9346SOL    HW129935   0.308   8.561  14.542
 9346SOL    HW229936   0.327   8.435  14.624
 9347SOL     OW29937   4.508   4.760   9.957
 9347SOL    HW129938   4.590   4.752   9.908
 9347SOL    HW229939   4.528   4.822  10.027
 9348SOL     OW29940  12.816   1.709   3.790
 9348SOL    HW129941  12.860   1.777   3.738
 9348SOL    HW229942  12.812   1.633   3.732
 9349SOL     OW29943   1.863   3.073   9.889
 9349SOL    HW129944   1.794   3.099   9.828
 9349SOL    HW229945   1.918   3.014   9.839
 9350SOL     OW29946  11.476  11.337   4.061
 9350SOL    HW129947  11.401  11.279   4.073
 9350SOL    HW229948  11.550  11.289   4.099
 9351SOL     OW29949   3.285   2.530  11.292
 9351SOL    HW129950   3.334   2.454  11.320
 9351SOL    HW229951   3.261   2.576  11.373
 9352SOL     OW29952   2.267   3.761   4.422
 9352SOL    HW129953   2.316   3.693   4.376
 9352SOL    HW229954   2.332   3.801   4.481
 9353SOL     OW29955   6.007   0.809  11.738
 9353SOL    HW129956   6.007   0.859  11.656
 9353SOL    HW229957   5.974   0.723  11.714
 9354SOL     OW29958  12.106  13.547  10.303
 9354SOL    HW129959  12.186  13.494  10.302
 9354SOL    HW229960  12.036  13.484  10.283
 9355SOL     OW29961   1.873   9.000   5.529
 9355SOL    HW129962   1.800   9.054   5.560
 9355SOL    HW229963   1.837   8.951   5.455
 9356SOL     OW29964   6.810  12.592  12.330
 9356SOL    HW129965   6.817  12.672  12.381
 9356SOL    HW229966   6.885  12.539  12.357
 9357SOL     OW29967   3.018   1.652  12.881
 9357SOL    HW129968   3.010   1.674  12.974
 9357SOL    HW229969   3.097   1.597  12.877
 9358SOL     OW29970   7.978   0.648   8.833
 9358SOL    HW129971   7.892   0.689   8.824
 9358SOL    HW229972   8.025   0.704   8.896
 9359SOL     OW29973  10.181   9.523   2.418
 9359SOL    HW129974  10.173   9.549   2.510
 9359SOL    HW229975  10.157   9.601   2.369
 9360SOL     OW29976   4.144   4.449   8.642
 9360SOL    HW129977   4.239   4.451   8.643
 9360SOL    HW229978   4.118   4.491   8.725
 9361SOL     OW29979   7.451   3.256   4.908
 9361SOL    HW129980   7.481   3.328   4.962
 9361SOL    HW229981   7.367   3.231   4.946
 9362SOL     OW29982   1.877   0.533   7.175
 9362SOL    HW129983   1.943   0.597   7.202
 9362SOL    HW229984   1.806   0.543   7.239
 9363SOL     OW29985  14.314  14.234   7.690
 9363SOL    HW129986  14.327  14.291   7.615
 9363SOL    HW229987  14.307  14.293   7.765
 9364SOL     OW29988  10.230   1.876   2.947
 9364SOL    HW129989  10.262   1.928   2.874
 9364SOL    HW229990  10.308   1.832   2.981
 9365SOL     OW29991   3.276   6.564   7.880
 9365SOL    HW129992   3.294   6.515   7.799
 9365SOL    HW229993   3.187   6.598   7.868
 9366SOL     OW29994   1.026   2.382   6.752
 9366SOL    HW129995   1.020   2.360   6.659
 9366SOL    HW229996   1.014   2.477   6.755
 9367SOL     OW29997   3.616   8.899  13.022
 9367SOL    HW129998   3.540   8.951  12.995
 9367SOL    HW229999   3.691   8.953  12.998
 9368SOL     OW30000   7.793   3.360  13.729
 9368SOL    HW130001   7.712   3.396  13.764
 9368SOL    HW230002   7.796   3.390  13.638
 9369SOL     OW30003   3.900  12.358   9.179
 9369SOL    HW130004   3.912  12.410   9.258
 9369SOL    HW230005   3.874  12.271   9.211
 9370SOL     OW30006  11.497  12.098   5.845
 9370SOL    HW130007  11.512  12.192   5.840
 9370SOL    HW230008  11.505  12.068   5.754
 9371SOL     OW30009   1.780   7.626   2.226
 9371SOL    HW130010   1.821   7.545   2.195
 9371SOL    HW230011   1.762   7.609   2.319
 9372SOL     OW30012  13.886   6.261  10.909
 9372SOL    HW130013  13.933   6.319  10.849
 9372SOL    HW230014  13.867   6.183  10.858
 9373SOL     OW30015  12.547   6.253   6.809
 9373SOL    HW130016  12.492   6.274   6.885
 9373SOL    HW230017  12.588   6.336   6.785
 9374SOL     OW30018  11.196  12.577   3.430
 9374SOL    HW130019  11.213  12.484   3.415
 9374SOL    HW230020  11.101  12.585   3.425
 9375SOL     OW30021   0.685   5.230   5.939
 9375SOL    HW130022   0.741   5.264   5.869
 9375SOL    HW230023   0.740   5.234   6.017
 9376SOL     OW30024   6.941   6.961  13.084
 9376SOL    HW130025   6.928   6.933  13.175
 9376SOL    HW230026   6.996   6.893  13.046
 9377SOL     OW30027   7.116   6.915  13.760
 9377SOL    HW130028   7.124   6.978  13.832
 9377SOL    HW230029   7.180   6.944  13.695
 9378SOL     OW30030   9.206   7.556  13.326
 9378SOL    HW130031   9.206   7.461  13.316
 9378SOL    HW230032   9.294   7.577  13.357
 9379SOL     OW30033   5.198  11.953   0.745
 9379SOL    HW130034   5.129  11.889   0.726
 9379SOL    HW230035   5.191  12.018   0.675
 9380SOL     OW30036  11.632   2.406  14.652
 9380SOL    HW130037  11.589   2.329  14.689
 9380SOL    HW230038  11.660   2.379  14.565
 9381SOL     OW30039   8.907   9.857   9.990
 9381SOL    HW130040   8.887   9.850   9.896
 9381SOL    HW230041   8.829   9.823  10.033
 9382SOL     OW30042   2.913  14.026  10.737
 9382SOL    HW130043   2.859  14.098  10.704
 9382SOL    HW230044   2.853  13.951  10.743
 9383SOL     OW30045   3.708   7.341  14.037
 9383SOL    HW130046   3.775   7.383  13.982
 9383SOL    HW230047   3.644   7.308  13.974
 9384SOL     OW30048  10.034   5.457   2.891
 9384SOL    HW130049   9.997   5.503   2.967
 9384SOL    HW230050  10.045   5.367   2.921
 9385SOL     OW30051  11.092   2.937  12.265
 9385SOL    HW130052  11.105   2.870  12.198
 9385SOL    HW230053  11.082   3.019  12.217
 9386SOL     OW30054  12.762   8.957   9.623
 9386SOL    HW130055  12.809   9.030   9.582
 9386SOL    HW230056  12.829   8.910   9.672
 9387SOL     OW30057  10.240  12.051  14.156
 9387SOL    HW130058  10.278  12.132  14.192
 9387SOL    HW230059  10.228  11.995  14.233
 9388SOL     OW30060   9.443   6.350  11.371
 9388SOL    HW130061   9.436   6.255  11.361
 9388SOL    HW230062   9.453   6.383  11.281
 9389SOL     OW30063   1.815   9.018   3.697
 9389SOL    HW130064   1.767   9.082   3.646
 9389SOL    HW230065   1.887   8.991   3.640
 9390SOL     OW30066   9.619   3.666  14.355
 9390SOL    HW130067   9.712   3.660  14.378
 9390SOL    HW230068   9.600   3.585  14.308
 9391SOL     OW30069   1.022   9.148  14.354
 9391SOL    HW130070   0.988   9.110  14.435
 9391SOL    HW230071   1.083   9.082  14.322
 9392SOL     OW30072  12.052   6.267   1.102
 9392SOL    HW130073  12.004   6.184   1.100
 9392SOL    HW230074  11.984   6.334   1.089
 9393SOL     OW30075   2.732   8.078   0.587
 9393SOL    HW130076   2.710   8.155   0.640
 9393SOL    HW230077   2.647   8.037   0.570
 9394SOL     OW30078  13.040   6.296   6.850
 9394SOL    HW130079  12.951   6.262   6.848
 9394SOL    HW230080  13.080   6.258   6.928
 9395SOL     OW30081   1.197   3.946   6.295
 9395SOL    HW130082   1.159   4.030   6.321
 9395SOL    HW230083   1.131   3.881   6.316
 9396SOL     OW30084  13.542   9.681   6.170
 9396SOL    HW130085  13.566   9.671   6.078
 9396SOL    HW230086  13.624   9.707   6.213
 9397SOL     OW30087   0.588   9.928  10.223
 9397SOL    HW130088   0.504   9.925  10.269
 9397SOL    HW230089   0.610  10.021  10.219
 9398SOL     OW30090  11.441   8.152  11.391
 9398SOL    HW130091  11.348   8.173  11.385
 9398SOL    HW230092  11.469   8.142  11.300
 9399SOL     OW30093  11.408   7.995  10.595
 9399SOL    HW130094  11.347   7.932  10.634
 9399SOL    HW230095  11.352   8.067  10.566
 9400SOL     OW30096   5.094  11.396  12.513
 9400SOL    HW130097   5.178  11.362  12.483
 9400SOL    HW230098   5.113  11.435  12.599
 9401SOL     OW30099  12.127   5.665   0.050
 9401SOL    HW130100  12.098   5.680   0.140
 9401SOL    HW230101  12.084   5.584   0.024
 9402SOL     OW30102   8.322  13.952   8.304
 9402SOL    HW130103   8.412  13.929   8.327
 9402SOL    HW230104   8.289  13.875   8.257
 9403SOL     OW30105   2.828  14.194  12.118
 9403SOL    HW130106   2.896  14.239  12.067
 9403SOL    HW230107   2.868  14.111  12.144
 9404SOL     OW30108   2.137   1.453   9.362
 9404SOL    HW130109   2.222   1.463   9.319
 9404SOL    HW230110   2.125   1.535   9.410
 9405SOL     OW30111   0.182   9.833  14.374
 9405SOL    HW130112   0.191   9.839  14.279
 9405SOL    HW230113   0.116   9.766  14.388
 9406SOL     OW30114   0.776   4.922   7.715
 9406SOL    HW130115   0.825   4.930   7.634
 9406SOL    HW230116   0.829   4.864   7.770
 9407SOL     OW30117   0.784   0.963   8.619
 9407SOL    HW130118   0.850   0.906   8.580
 9407SOL    HW230119   0.803   1.050   8.584
 9408SOL     OW30120  12.240   4.701   3.729
 9408SOL    HW130121  12.297   4.679   3.656
 9408SOL    HW230122  12.262   4.792   3.749
 9409SOL     OW30123  13.170   7.972  11.359
 9409SOL    HW130124  13.102   7.916  11.322
 9409SOL    HW230125  13.234   7.982  11.288
 9410SOL     OW30126  13.249   8.126   1.756
 9410SOL    HW130127  13.255   8.174   1.673
 9410SOL    HW230128  13.294   8.043   1.740
 9411SOL     OW30129   9.066   6.829  12.087
 9411SOL    HW130130   9.117   6.845  12.007
 9411SOL    HW230131   9.131   6.803  12.152
 9412SOL     OW30132   1.181   7.227   1.823
 9412SOL    HW130133   1.090   7.218   1.850
 9412SOL    HW230134   1.221   7.143   1.845
 9413SOL     OW30135  10.918   3.036  10.605
 9413SOL    HW130136  10.936   2.944  10.621
 9413SOL    HW230137  10.999   3.071  10.569
 9414SOL     OW30138  12.553   3.012   6.469
 9414SOL    HW130139  12.514   2.925   6.464
 9414SOL    HW230140  12.510   3.062   6.400
 9415SOL     OW30141   3.167   5.418   3.962
 9415SOL    HW130142   3.092   5.472   3.935
 9415SOL    HW230143   3.191   5.452   4.048
 9416SOL     OW30144  12.198   7.829   9.172
 9416SOL    HW130145  12.164   7.903   9.222
 9416SOL    HW230146  12.151   7.833   9.089
 9417SOL     OW30147   9.412  12.336   1.148
 9417SOL    HW130148   9.429  12.393   1.073
 9417SOL    HW230149   9.429  12.247   1.115
 9418SOL     OW30150   7.719  10.802   0.759
 9418SOL    HW130151   7.741  10.831   0.670
 9418SOL    HW230152   7.711  10.883   0.809
 9419SOL     OW30153  10.275   2.665  12.720
 9419SOL    HW130154  10.275   2.760  12.731
 9419SOL    HW230155  10.356   2.635  12.761
 9420SOL     OW30156   5.373  13.407   4.428
 9420SOL    HW130157   5.452  13.431   4.380
 9420SOL    HW230158   5.336  13.490   4.458
 9421SOL     OW30159   5.259   8.354  14.049
 9421SOL    HW130160   5.260   8.447  14.025
 9421SOL    HW230161   5.302   8.350  14.134
 9422SOL     OW30162   7.189  13.352   4.385
 9422SOL    HW130163   7.166  13.336   4.476
 9422SOL    HW230164   7.258  13.417   4.388
 9423SOL     OW30165  11.377  13.010  12.792
 9423SOL    HW130166  11.389  13.015  12.887
 9423SOL    HW230167  11.428  13.083  12.757
 9424SOL     OW30168   8.032   7.154   5.560
 9424SOL    HW130169   8.077   7.094   5.620
 9424SOL    HW230170   7.940   7.151   5.587
 9425SOL     OW30171  12.633   6.199   2.053
 9425SOL    HW130172  12.578   6.230   1.981
 9425SOL    HW230173  12.718   6.182   2.012
 9426SOL     OW30174   0.318   3.785   1.619
 9426SOL    HW130175   0.277   3.837   1.550
 9426SOL    HW230176   0.412   3.794   1.603
 9427SOL     OW30177   1.226  13.794  14.714
 9427SOL    HW130178   1.173  13.836  14.646
 9427SOL    HW230179   1.247  13.865  14.775
 9428SOL     OW30180  12.895   0.657   2.422
 9428SOL    HW130181  12.947   0.730   2.456
 9428SOL    HW230182  12.868   0.686   2.335
 9429SOL     OW30183   3.935  14.671   2.327
 9429SOL    HW130184   3.917  14.696   2.418
 9429SOL    HW230185   4.013  14.615   2.333
 9430SOL     OW30186   7.283   7.162  12.447
 9430SOL    HW130187   7.246   7.093  12.503
 9430SOL    HW230188   7.228   7.238  12.464
 9431SOL     OW30189   0.768   1.053   0.025
 9431SOL    HW130190   0.712   0.981  14.864
 9431SOL    HW230191   0.839   1.056  14.831
 9432SOL     OW30192   2.454   7.346   7.869
 9432SOL    HW130193   2.395   7.337   7.944
 9432SOL    HW230194   2.479   7.439   7.870
 9433SOL     OW30195  14.198   6.819   2.729
 9433SOL    HW130196  14.202   6.734   2.771
 9433SOL    HW230197  14.288   6.838   2.703
 9434SOL     OW30198   8.782   8.956  11.710
 9434SOL    HW130199   8.688   8.936  11.707
 9434SOL    HW230200   8.785   9.049  11.732
 9435SOL     OW30201   1.954   6.444   7.053
 9435SOL    HW130202   1.935   6.525   7.100
 9435SOL    HW230203   1.963   6.472   6.961
 9436SOL     OW30204   5.059   5.359   5.511
 9436SOL    HW130205   4.985   5.418   5.498
 9436SOL    HW230206   5.057   5.300   5.436
 9437SOL     OW30207   1.200   8.170  11.247
 9437SOL    HW130208   1.290   8.176  11.216
 9437SOL    HW230209   1.162   8.097  11.199
 9438SOL     OW30210   0.687  14.184   6.057
 9438SOL    HW130211   0.610  14.241   6.060
 9438SOL    HW230212   0.750  14.232   6.002
 9439SOL     OW30213   6.078   0.123   0.964
 9439SOL    HW130214   5.997   0.172   0.951
 9439SOL    HW230215   6.109   0.104   0.876
 9440SOL     OW30216   2.567   0.579  10.631
 9440SOL    HW130217   2.617   0.537  10.701
 9440SOL    HW230218   2.520   0.650  10.674
 9441SOL     OW30219   8.028  10.063   0.740
 9441SOL    HW130220   7.990  10.109   0.815
 9441SOL    HW230221   7.981   9.980   0.735
 9442SOL     OW30222   5.184  13.274   9.263
 9442SOL    HW130223   5.133  13.303   9.339
 9442SOL    HW230224   5.146  13.321   9.189
 9443SOL     OW30225   1.264  13.584   0.378
 9443SOL    HW130226   1.316  13.505   0.395
 9443SOL    HW230227   1.187  13.552   0.331
 9444SOL     OW30228   6.094   2.837   8.388
 9444SOL    HW130229   6.092   2.819   8.482
 9444SOL    HW230230   6.173   2.890   8.376
 9445SOL     OW30231  12.214  12.734   8.102
 9445SOL    HW130232  12.139  12.701   8.052
 9445SOL    HW230233  12.255  12.799   8.045
 9446SOL     OW30234   7.542   2.046   1.198
 9446SOL    HW130235   7.491   1.972   1.231
 9446SOL    HW230236   7.630   2.033   1.235
 9447SOL     OW30237   3.726   1.526   0.866
 9447SOL    HW130238   3.726   1.447   0.811
 9447SOL    HW230239   3.818   1.537   0.890
 9448SOL     OW30240   1.828   4.020   2.577
 9448SOL    HW130241   1.855   3.991   2.490
 9448SOL    HW230242   1.831   3.940   2.630
 9449SOL     OW30243   5.220   5.942   8.678
 9449SOL    HW130244   5.296   5.997   8.656
 9449SOL    HW230245   5.227   5.928   8.772
 9450SOL     OW30246   6.697   8.512   0.695
 9450SOL    HW130247   6.735   8.545   0.613
 9450SOL    HW230248   6.621   8.569   0.710
 9451SOL     OW30249   1.845   3.284   7.971
 9451SOL    HW130250   1.826   3.377   7.985
 9451SOL    HW230251   1.903   3.260   8.043
 9452SOL     OW30252   1.087  12.825   5.426
 9452SOL    HW130253   1.130  12.806   5.343
 9452SOL    HW230254   1.156  12.863   5.481
 9453SOL     OW30255  10.960   8.960  12.688
 9453SOL    HW130256  10.895   8.898  12.721
 9453SOL    HW230257  10.911   9.020  12.632
 9454SOL     OW30258   6.022  11.286   4.271
 9454SOL    HW130259   5.954  11.353   4.267
 9454SOL    HW230260   6.105  11.335   4.265
 9455SOL     OW30261  14.369   0.685  14.088
 9455SOL    HW130262  14.278   0.711  14.074
 9455SOL    HW230263  14.421   0.758  14.054
 9456SOL     OW30264  12.882   3.706   9.774
 9456SOL    HW130265  12.926   3.688   9.691
 9456SOL    HW230266  12.953   3.725   9.836
 9457SOL     OW30267   8.339   0.879   9.664
 9457SOL    HW130268   8.311   0.817   9.731
 9457SOL    HW230269   8.366   0.957   9.713
 9458SOL     OW30270  10.928   7.214   5.399
 9458SOL    HW130271  10.863   7.150   5.427
 9458SOL    HW230272  10.877   7.289   5.369
 9459SOL     OW30273   1.360  14.290   8.502
 9459SOL    HW130274   1.282  14.330   8.464
 9459SOL    HW230275   1.334  14.200   8.523
 9460SOL     OW30276   1.537   2.234   3.946
 9460SOL    HW130277   1.582   2.166   3.997
 9460SOL    HW230278   1.470   2.268   4.005
 9461SOL     OW30279   4.044   0.040   1.671
 9461SOL    HW130280   4.117   0.073   1.618
 9461SOL    HW230281   4.057  14.815   1.673
 9462SOL     OW30282  13.473   6.746   8.149
 9462SOL    HW130283  13.417   6.713   8.078
 9462SOL    HW230284  13.549   6.783   8.104
 9463SOL     OW30285   7.341   2.021  13.239
 9463SOL    HW130286   7.329   2.083  13.312
 9463SOL    HW230287   7.279   2.050  13.173
 9464SOL     OW30288  12.182   1.998   7.979
 9464SOL    HW130289  12.252   2.062   7.997
 9464SOL    HW230290  12.179   1.944   8.058
 9465SOL     OW30291   9.428   3.878   2.067
 9465SOL    HW130292   9.488   3.926   2.010
 9465SOL    HW230293   9.464   3.790   2.073
 9466SOL     OW30294   9.019  13.105   2.082
 9466SOL    HW130295   9.096  13.157   2.056
 9466SOL    HW230296   9.010  13.121   2.175
 9467SOL     OW30297   5.183  10.056   1.911
 9467SOL    HW130298   5.253   9.991   1.900
 9467SOL    HW230299   5.103  10.008   1.892
 9468SOL     OW30300   6.690  11.826   3.195
 9468SOL    HW130301   6.704  11.804   3.103
 9468SOL    HW230302   6.595  11.822   3.205
 9469SOL     OW30303   8.231  14.096   5.778
 9469SOL    HW130304   8.142  14.092   5.813
 9469SOL    HW230305   8.281  14.143   5.845
 9470SOL     OW30306  13.415   1.454  11.225
 9470SOL    HW130307  13.474   1.421  11.158
 9470SOL    HW230308  13.442   1.410  11.305
 9471SOL     OW30309   4.452   3.285  11.698
 9471SOL    HW130310   4.435   3.281  11.792
 9471SOL    HW230311   4.474   3.195  11.674
 9472SOL     OW30312  11.063  12.028   4.565
 9472SOL    HW130313  11.158  12.031   4.556
 9472SOL    HW230314  11.048  12.002   4.656
 9473SOL     OW30315   4.568   7.577   0.632
 9473SOL    HW130316   4.567   7.672   0.639
 9473SOL    HW230317   4.523   7.558   0.550
 9474SOL     OW30318  11.119   2.254   3.253
 9474SOL    HW130319  11.200   2.203   3.255
 9474SOL    HW230320  11.148   2.345   3.242
 9475SOL     OW30321   0.110  10.804   6.143
 9475SOL    HW130322   0.190  10.853   6.159
 9475SOL    HW230323   0.045  10.843   6.201
 9476SOL     OW30324   4.476  10.882   0.096
 9476SOL    HW130325   4.566  10.849   0.095
 9476SOL    HW230326   4.423  10.807   0.070
 9477SOL     OW30327   6.647   4.790   5.741
 9477SOL    HW130328   6.581   4.735   5.782
 9477SOL    HW230329   6.617   4.802   5.651
 9478SOL     OW30330   4.819   7.634  11.475
 9478SOL    HW130331   4.909   7.661  11.460
 9478SOL    HW230332   4.766   7.705  11.438
 9479SOL     OW30333   1.216  13.850   0.448
 9479SOL    HW130334   1.147  13.886   0.391
 9479SOL    HW230335   1.224  13.759   0.420
 9480SOL     OW30336  10.198   7.018   3.322
 9480SOL    HW130337  10.222   6.927   3.304
 9480SOL    HW230338  10.233   7.067   3.249
 9481SOL     OW30339   6.953   9.773  12.482
 9481SOL    HW130340   6.930   9.863  12.502
 9481SOL    HW230341   6.942   9.726  12.565
 9482SOL     OW30342   9.326  12.824  11.013
 9482SOL    HW130343   9.238  12.816  11.051
 9482SOL    HW230344   9.311  12.857  10.925
 9483SOL     OW30345   3.231  13.435   4.687
 9483SOL    HW130346   3.254  13.343   4.700
 9483SOL    HW230347   3.209  13.441   4.594
 9484SOL     OW30348   3.918   8.737   3.771
 9484SOL    HW130349   3.968   8.683   3.710
 9484SOL    HW230350   3.984   8.770   3.833
 9485SOL     OW30351   2.855   8.029  11.901
 9485SOL    HW130352   2.873   7.959  11.964
 9485SOL    HW230353   2.941   8.070  11.885
 9486SOL     OW30354   3.483   5.913   7.549
 9486SOL    HW130355   3.433   5.967   7.488
 9486SOL    HW230356   3.526   5.977   7.607
 9487SOL     OW30357   4.395   8.924   0.497
 9487SOL    HW130358   4.351   8.847   0.460
 9487SOL    HW230359   4.485   8.918   0.465
 9488SOL     OW30360   0.934   0.181   9.047
 9488SOL    HW130361   0.993   0.150   9.116
 9488SOL    HW230362   0.977   0.259   9.012
 9489SOL     OW30363  10.201   7.240  12.449
 9489SOL    HW130364  10.240   7.270  12.531
 9489SOL    HW230365  10.257   7.277  12.381
 9490SOL     OW30366  13.646  12.948   6.490
 9490SOL    HW130367  13.562  12.923   6.453
 9490SOL    HW230368  13.660  12.887   6.562
 9491SOL     OW30369   3.346  10.397   7.833
 9491SOL    HW130370   3.338  10.455   7.908
 9491SOL    HW230371   3.255  10.376   7.810
 9492SOL     OW30372  10.001   6.456   1.681
 9492SOL    HW130373  10.045   6.541   1.692
 9492SOL    HW230374  10.072   6.393   1.673
 9493SOL     OW30375   0.773  10.554   1.040
 9493SOL    HW130376   0.755  10.479   0.984
 9493SOL    HW230377   0.834  10.520   1.106
 9494SOL     OW30378   0.787   3.315   1.111
 9494SOL    HW130379   0.786   3.392   1.168
 9494SOL    HW230380   0.879   3.292   1.102
 9495SOL     OW30381   8.085  12.996  10.399
 9495SOL    HW130382   8.067  13.036  10.484
 9495SOL    HW230383   8.140  12.921  10.420
 9496SOL     OW30384   9.351   5.746  10.423
 9496SOL    HW130385   9.256   5.760  10.423
 9496SOL    HW230386   9.375   5.742  10.331
 9497SOL     OW30387   0.622   6.924   6.320
 9497SOL    HW130388   0.685   6.863   6.360
 9497SOL    HW230389   0.676   6.994   6.283
 9498SOL     OW30390   1.926   4.374  11.642
 9498SOL    HW130391   2.006   4.328  11.617
 9498SOL    HW230392   1.857   4.307  11.639
 9499SOL     OW30393   3.141   1.505  11.110
 9499SOL    HW130394   3.177   1.428  11.066
 9499SOL    HW230395   3.211   1.571  11.103
 9500SOL     OW30396  12.614  14.732   4.197
 9500SOL    HW130397  12.522  14.754   4.214
 9500SOL    HW230398  12.632  14.771   4.112
 9501SOL     OW30399   1.696   2.508   4.137
 9501SOL    HW130400   1.628   2.489   4.201
 9501SOL    HW230401   1.649   2.522   4.055
 9502SOL     OW30402  14.297  14.354   0.440
 9502SOL    HW130403  14.346  14.335   0.520
 9502SOL    HW230404  14.358  14.331   0.369
 9503SOL     OW30405   1.948   5.889   0.727
 9503SOL    HW130406   1.910   5.973   0.700
 9503SOL    HW230407   1.956   5.840   0.646
 9504SOL     OW30408  13.935  13.269   8.243
 9504SOL    HW130409  13.930  13.313   8.158
 9504SOL    HW230410  13.955  13.339   8.306
 9505SOL     OW30411   2.709   0.242  13.455
 9505SOL    HW130412   2.676   0.155  13.432
 9505SOL    HW230413   2.778   0.259  13.391
 9506SOL     OW30414   7.355   7.217  14.793
 9506SOL    HW130415   7.388   7.286  14.737
 9506SOL    HW230416   7.327   7.263   0.003
 9507SOL     OW30417   9.399   4.928   1.305
 9507SOL    HW130418   9.362   4.840   1.294
 9507SOL    HW230419   9.481   4.914   1.353
 9508SOL     OW30420  10.109   6.894   4.383
 9508SOL    HW130421  10.124   6.811   4.339
 9508SOL    HW230422  10.193   6.915   4.424
 9509SOL     OW30423   8.728  11.895   7.816
 9509SOL    HW130424   8.644  11.939   7.802
 9509SOL    HW230425   8.734  11.830   7.746
 9510SOL     OW30426  10.201   0.468  13.803
 9510SOL    HW130427  10.160   0.513  13.729
 9510SOL    HW230428  10.223   0.381  13.769
 9511SOL     OW30429   7.158  10.761   2.605
 9511SOL    HW130430   7.227  10.712   2.651
 9511SOL    HW230431   7.204  10.819   2.546
 9512SOL     OW30432   3.429  12.671   4.137
 9512SOL    HW130433   3.338  12.680   4.109
 9512SOL    HW230434   3.427  12.600   4.202
 9513SOL     OW30435  10.661   8.776  10.584
 9513SOL    HW130436  10.580   8.745  10.544
 9513SOL    HW230437  10.637   8.858  10.627
 9514SOL     OW30438   4.994   3.611   5.276
 9514SOL    HW130439   4.963   3.674   5.211
 9514SOL    HW230440   5.027   3.537   5.225
 9515SOL     OW30441  10.927   7.956   3.128
 9515SOL    HW130442  10.884   7.980   3.046
 9515SOL    HW230443  11.018   7.980   3.115
 9516SOL     OW30444   5.993   1.469   4.200
 9516SOL    HW130445   5.969   1.380   4.177
 9516SOL    HW230446   6.067   1.460   4.260
 9517SOL     OW30447  12.814  11.496   7.290
 9517SOL    HW130448  12.745  11.431   7.302
 9517SOL    HW230449  12.777  11.578   7.322
 9518SOL     OW30450   4.750   1.014   6.847
 9518SOL    HW130451   4.686   0.949   6.818
 9518SOL    HW230452   4.817   0.963   6.893
 9519SOL     OW30453   1.674  13.417   0.605
 9519SOL    HW130454   1.601  13.473   0.631
 9519SOL    HW230455   1.632  13.339   0.569
 9520SOL     OW30456  11.001  14.100   0.147
 9520SOL    HW130457  10.943  14.088   0.222
 9520SOL    HW230458  10.979  14.028   0.087
 9521SOL     OW30459   8.861   7.465   3.294
 9521SOL    HW130460   8.945   7.445   3.251
 9521SOL    HW230461   8.865   7.417   3.377
 9522SOL     OW30462   3.142   0.158   7.014
 9522SOL    HW130463   3.218   0.111   7.046
 9522SOL    HW230464   3.176   0.243   6.986
 9523SOL     OW30465   3.847   3.794   4.461
 9523SOL    HW130466   3.779   3.839   4.511
 9523SOL    HW230467   3.841   3.831   4.373
 9524SOL     OW30468   6.641  11.802  14.824
 9524SOL    HW130469   6.590  11.766  14.752
 9524SOL    HW230470   6.703  11.733  14.846
 9525SOL     OW30471   8.779   9.230  12.319
 9525SOL    HW130472   8.715   9.187  12.376
 9525SOL    HW230473   8.734   9.237  12.234
 9526SOL     OW30474   8.312  14.861  14.785
 9526SOL    HW130475   8.379  14.810  14.738
 9526SOL    HW230476   8.361   0.040  14.851
 9527SOL     OW30477   5.075   6.290   8.199
 9527SOL    HW130478   5.142   6.318   8.137
 9527SOL    HW230479   5.096   6.336   8.280
 9528SOL     OW30480   1.616   5.337  12.648
 9528SOL    HW130481   1.530   5.318  12.686
 9528SOL    HW230482   1.677   5.324  12.720
 9529SOL     OW30483   4.053   4.347   4.695
 9529SOL    HW130484   4.099   4.320   4.774
 9529SOL    HW230485   4.106   4.419   4.659
 9530SOL     OW30486   5.938  12.664  10.883
 9530SOL    HW130487   5.876  12.664  10.810
 9530SOL    HW230488   6.021  12.635  10.844
 9531SOL     OW30489   9.003   3.488  11.819
 9531SOL    HW130490   8.971   3.579  11.824
 9531SOL    HW230491   9.096   3.497  11.802
 9532SOL     OW30492  11.369  13.170  11.389
 9532SOL    HW130493  11.344  13.132  11.473
 9532SOL    HW230494  11.301  13.139  11.328
 9533SOL     OW30495  13.240   3.729   5.719
 9533SOL    HW130496  13.271   3.714   5.629
 9533SOL    HW230497  13.223   3.824   5.722
 9534SOL     OW30498   9.739   3.537   0.962
 9534SOL    HW130499   9.690   3.459   0.936
 9534SOL    HW230500   9.735   3.595   0.886
 9535SOL     OW30501  13.619   1.140   3.237
 9535SOL    HW130502  13.541   1.091   3.263
 9535SOL    HW230503  13.590   1.199   3.169
 9536SOL     OW30504  13.878   2.834   3.296
 9536SOL    HW130505  13.815   2.783   3.347
 9536SOL    HW230506  13.892   2.913   3.348
 9537SOL     OW30507   1.437   9.826   4.374
 9537SOL    HW130508   1.459   9.782   4.456
 9537SOL    HW230509   1.364   9.776   4.339
 9538SOL     OW30510   8.145   7.235   9.357
 9538SOL    HW130511   8.144   7.320   9.402
 9538SOL    HW230512   8.121   7.256   9.267
 9539SOL     OW30513   5.784   8.308   3.102
 9539SOL    HW130514   5.809   8.357   3.024
 9539SOL    HW230515   5.737   8.232   3.069
 9540SOL     OW30516   1.327   7.981   3.272
 9540SOL    HW130517   1.234   7.972   3.251
 9540SOL    HW230518   1.345   7.908   3.331
 9541SOL     OW30519   0.330  12.699   8.945
 9541SOL    HW130520   0.235  12.691   8.945
 9541SOL    HW230521   0.346  12.792   8.964
 9542SOL     OW30522   5.575   8.233   0.126
 9542SOL    HW130523   5.605   8.143   0.139
 9542SOL    HW230524   5.500   8.224   0.067
 9543SOL     OW30525   3.975  13.231   0.206
 9543SOL    HW130526   3.957  13.282   0.285
 9543SOL    HW230527   4.051  13.178   0.228
 9544SOL     OW30528   1.128   5.563   9.443
 9544SOL    HW130529   1.053   5.593   9.494
 9544SOL    HW230530   1.169   5.643   9.411
 9545SOL     OW30531  13.894   9.215  14.735
 9545SOL    HW130532  13.859   9.302  14.718
 9545SOL    HW230533  13.984   9.218  14.703
 9546SOL     OW30534   8.545   1.356  12.603
 9546SOL    HW130535   8.631   1.371  12.564
 9546SOL    HW230536   8.517   1.272  12.568
 9547SOL     OW30537   6.887   0.657   4.290
 9547SOL    HW130538   6.918   0.664   4.380
 9547SOL    HW230539   6.933   0.726   4.243
 9548SOL     OW30540   0.932  13.520  11.772
 9548SOL    HW130541   0.889  13.547  11.691
 9548SOL    HW230542   1.017  13.564  11.770
 9549SOL     OW30543  14.044  10.739  10.969
 9549SOL    HW130544  14.130  10.707  10.941
 9549SOL    HW230545  14.043  10.727  11.064
 9550SOL     OW30546   8.853   9.536   6.882
 9550SOL    HW130547   8.926   9.491   6.924
 9550SOL    HW230548   8.892   9.581   6.808
 9551SOL     OW30549  14.082   8.588   0.483
 9551SOL    HW130550  14.128   8.664   0.449
 9551SOL    HW230551  13.994   8.620   0.503
 9552SOL     OW30552   0.118   8.706  10.965
 9552SOL    HW130553   0.141   8.740  11.051
 9552SOL    HW230554   0.200   8.675  10.928
 9553SOL     OW30555   1.843   0.554   0.659
 9553SOL    HW130556   1.890   0.500   0.722
 9553SOL    HW230557   1.750   0.541   0.681
 9554SOL     OW30558  12.129   7.406   3.506
 9554SOL    HW130559  12.209   7.379   3.551
 9554SOL    HW230560  12.059   7.361   3.553
 9555SOL     OW30561  14.250   9.042  14.188
 9555SOL    HW130562  14.300   9.123  14.198
 9555SOL    HW230563  14.175   9.053  14.246
 9556SOL     OW30564   8.606   4.660   9.648
 9556SOL    HW130565   8.637   4.661   9.739
 9556SOL    HW230566   8.592   4.567   9.629
 9557SOL     OW30567   2.629   5.239   0.227
 9557SOL    HW130568   2.656   5.318   0.179
 9557SOL    HW230569   2.700   5.225   0.290
 9558SOL     OW30570   9.088   9.530  12.269
 9558SOL    HW130571   9.109   9.448  12.225
 9558SOL    HW230572   9.125   9.597  12.212
 9559SOL     OW30573   9.097   9.475   1.951
 9559SOL    HW130574   9.177   9.528   1.951
 9559SOL    HW230575   9.067   9.477   2.041
 9560SOL     OW30576   1.015  10.329   4.096
 9560SOL    HW130577   0.949  10.260   4.104
 9560SOL    HW230578   1.045  10.344   4.186
 9561SOL     OW30579   7.881   8.576  10.608
 9561SOL    HW130580   7.852   8.609  10.523
 9561SOL    HW230581   7.972   8.550  10.595
 9562SOL     OW30582   8.563   7.431   2.020
 9562SOL    HW130583   8.638   7.436   1.961
 9562SOL    HW230584   8.591   7.479   2.098
 9563SOL     OW30585   6.583   2.239  10.680
 9563SOL    HW130586   6.526   2.237  10.756
 9563SOL    HW230587   6.528   2.275  10.610
 9564SOL     OW30588   8.511   6.255   4.930
 9564SOL    HW130589   8.529   6.167   4.900
 9564SOL    HW230590   8.596   6.298   4.934
 9565SOL     OW30591  10.434   9.133  14.383
 9565SOL    HW130592  10.401   9.067  14.443
 9565SOL    HW230593  10.482   9.084  14.316
 9566SOL     OW30594   9.974   2.564   2.207
 9566SOL    HW130595  10.030   2.524   2.274
 9566SOL    HW230596  10.005   2.527   2.125
 9567SOL     OW30597  13.549   1.720   9.686
 9567SOL    HW130598  13.571   1.805   9.725
 9567SOL    HW230599  13.629   1.668   9.696
 9568SOL     OW30600  12.162   0.411   9.214
 9568SOL    HW130601  12.256   0.410   9.233
 9568SOL    HW230602  12.133   0.322   9.232
 9569SOL     OW30603  13.549   8.262   0.861
 9569SOL    HW130604  13.509   8.348   0.852
 9569SOL    HW230605  13.592   8.246   0.777
 9570SOL     OW30606  10.957   9.225   2.814
 9570SOL    HW130607  10.904   9.280   2.871
 9570SOL    HW230608  10.900   9.151   2.791
 9571SOL     OW30609   9.115  12.024  11.665
 9571SOL    HW130610   9.210  12.031  11.657
 9571SOL    HW230611   9.101  11.975  11.746
 9572SOL     OW30612   7.394  10.111   0.691
 9572SOL    HW130613   7.471  10.057   0.706
 9572SOL    HW230614   7.413  10.160   0.611
 9573SOL     OW30615   8.071   0.127  10.221
 9573SOL    HW130616   8.016   0.187  10.272
 9573SOL    HW230617   8.137   0.097  10.283
 9574SOL     OW30618   6.417   4.348   9.368
 9574SOL    HW130619   6.494   4.352   9.425
 9574SOL    HW230620   6.443   4.394   9.289
 9575SOL     OW30621   7.442   9.985   5.173
 9575SOL    HW130622   7.523  10.037   5.172
 9575SOL    HW230623   7.422   9.970   5.080
 9576SOL     OW30624   0.310  11.881  13.303
 9576SOL    HW130625   0.276  11.799  13.340
 9576SOL    HW230626   0.322  11.861  13.210
 9577SOL     OW30627   8.402  10.513   7.517
 9577SOL    HW130628   8.400  10.435   7.461
 9577SOL    HW230629   8.339  10.495   7.586
 9578SOL     OW30630   4.749  10.861  13.089
 9578SOL    HW130631   4.779  10.857  13.180
 9578SOL    HW230632   4.783  10.945  13.057
 9579SOL     OW30633  10.398   0.570   3.455
 9579SOL    HW130634  10.342   0.500   3.488
 9579SOL    HW230635  10.473   0.570   3.514
 9580SOL     OW30636   7.494   1.887   4.719
 9580SOL    HW130637   7.562   1.943   4.755
 9580SOL    HW230638   7.535   1.801   4.711
 9581SOL     OW30639  12.833   8.877  11.117
 9581SOL    HW130640  12.886   8.851  11.193
 9581SOL    HW230641  12.752   8.911  11.155
 9582SOL     OW30642  12.404  10.225   8.564
 9582SOL    HW130643  12.310  10.219   8.552
 9582SOL    HW230644  12.441  10.187   8.484
 9583SOL     OW30645   2.068  14.397   7.701
 9583SOL    HW130646   2.135  14.362   7.760
 9583SOL    HW230647   2.115  14.460   7.646
 9584SOL     OW30648   8.150   3.974   8.572
 9584SOL    HW130649   8.215   3.944   8.509
 9584SOL    HW230650   8.192   3.964   8.657
 9585SOL     OW30651   2.012  10.962   2.480
 9585SOL    HW130652   1.965  11.005   2.552
 9585SOL    HW230653   2.035  11.034   2.421
 9586SOL     OW30654  14.234   3.808   1.040
 9586SOL    HW130655  14.279   3.888   1.066
 9586SOL    HW230656  14.281   3.739   1.087
 9587SOL     OW30657   5.134   2.463   0.682
 9587SOL    HW130658   5.174   2.511   0.609
 9587SOL    HW230659   5.040   2.469   0.666
 9588SOL     OW30660  10.784  13.137  13.616
 9588SOL    HW130661  10.864  13.103  13.577
 9588SOL    HW230662  10.798  13.231  13.623
 9589SOL     OW30663  11.038   8.971   3.842
 9589SOL    HW130664  10.945   8.983   3.860
 9589SOL    HW230665  11.044   8.885   3.801
 9590SOL     OW30666  11.740   2.904  13.315
 9590SOL    HW130667  11.693   2.842  13.371
 9590SOL    HW230668  11.826   2.913  13.356
 9591SOL     OW30669  13.051   4.637  10.647
 9591SOL    HW130670  13.124   4.684  10.688
 9591SOL    HW230671  13.049   4.668  10.557
 9592SOL     OW30672   5.861   8.601   0.829
 9592SOL    HW130673   5.807   8.642   0.762
 9592SOL    HW230674   5.812   8.524   0.856
 9593SOL     OW30675  11.903   2.656   3.783
 9593SOL    HW130676  11.966   2.609   3.837
 9593SOL    HW230677  11.895   2.742   3.824
 9594SOL     OW30678   6.064   9.648   7.928
 9594SOL    HW130679   6.039   9.601   7.849
 9594SOL    HW230680   6.003   9.618   7.995
 9595SOL     OW30681  14.541   9.058   0.971
 9595SOL    HW130682  14.532   9.052   1.066
 9595SOL    HW230683  14.466   9.110   0.943
 9596SOL     OW30684   8.941  13.715   3.398
 9596SOL    HW130685   8.895  13.770   3.334
 9596SOL    HW230686   8.987  13.777   3.454
 9597SOL     OW30687  12.184   2.354  13.156
 9597SOL    HW130688  12.195   2.259  13.145
 9597SOL    HW230689  12.098   2.363  13.198
 9598SOL     OW30690   9.822   4.918  11.045
 9598SOL    HW130691   9.879   4.849  11.080
 9598SOL    HW230692   9.810   4.896  10.953
 9599SOL     OW30693   3.530   4.602  14.432
 9599SOL    HW130694   3.568   4.586  14.346
 9599SOL    HW230695   3.591   4.560  14.493
 9600SOL     OW30696  12.139  13.075   9.488
 9600SOL    HW130697  12.212  13.013   9.487
 9600SOL    HW230698  12.155  13.131   9.412
 9601SOL     OW30699   5.489   4.275  10.374
 9601SOL    HW130700   5.478   4.356  10.424
 9601SOL    HW230701   5.404   4.232  10.379
 9602SOL     OW30702   6.004  14.065  13.059
 9602SOL    HW130703   6.075  14.119  13.094
 9602SOL    HW230704   5.925  14.104  13.096
 9603SOL     OW30705  12.797  10.999  14.309
 9603SOL    HW130706  12.795  10.913  14.351
 9603SOL    HW230707  12.707  11.032  14.316
 9604SOL     OW30708   5.970   4.652  14.705
 9604SOL    HW130709   5.878   4.633  14.726
 9604SOL    HW230710   6.002   4.572  14.665
 9605SOL     OW30711  10.863   0.085   3.291
 9605SOL    HW130712  10.781   0.061   3.334
 9605SOL    HW230713  10.838   0.151   3.226
 9606SOL     OW30714   8.041   5.456  12.239
 9606SOL    HW130715   8.087   5.459  12.155
 9606SOL    HW230716   8.105   5.418  12.300
 9607SOL     OW30717   0.296   3.191   2.714
 9607SOL    HW130718   0.370   3.252   2.709
 9607SOL    HW230719   0.334   3.106   2.692
 9608SOL     OW30720   1.100   7.355   4.111
 9608SOL    HW130721   1.107   7.294   4.038
 9608SOL    HW230722   1.038   7.422   4.080
 9609SOL     OW30723  14.858   9.649   9.366
 9609SOL    HW130724   0.067   9.642   9.312
 9609SOL    HW230725   0.013   9.704   9.440
 9610SOL     OW30726   2.961   0.589   6.567
 9610SOL    HW130727   3.002   0.542   6.639
 9610SOL    HW230728   2.869   0.562   6.569
 9611SOL     OW30729   7.927   6.455   2.844
 9611SOL    HW130730   7.852   6.397   2.857
 9611SOL    HW230731   7.924   6.517   2.916
 9612SOL     OW30732  12.425   3.391   9.656
 9612SOL    HW130733  12.343   3.348   9.633
 9612SOL    HW230734  12.400   3.463   9.714
 9613SOL     OW30735   0.048   8.650   3.641
 9613SOL    HW130736  14.828   8.682   3.632
 9613SOL    HW230737   0.041   8.555   3.626
 9614SOL     OW30738   9.453  14.555   0.220
 9614SOL    HW130739   9.380  14.617   0.229
 9614SOL    HW230740   9.425  14.494   0.152
 9615SOL     OW30741   3.923   6.146   7.269
 9615SOL    HW130742   3.987   6.216   7.263
 9615SOL    HW230743   3.975   6.066   7.283
 9616SOL     OW30744  10.378  12.520   6.657
 9616SOL    HW130745  10.328  12.442   6.682
 9616SOL    HW230746  10.411  12.500   6.569
 9617SOL     OW30747   7.964   1.129   4.023
 9617SOL    HW130748   8.050   1.134   4.063
 9617SOL    HW230749   7.968   1.191   3.950
 9618SOL     OW30750   7.299  14.585   8.155
 9618SOL    HW130751   7.368  14.649   8.136
 9618SOL    HW230752   7.326  14.506   8.109
 9619SOL     OW30753   3.027  11.435   6.270
 9619SOL    HW130754   2.973  11.385   6.209
 9619SOL    HW230755   3.038  11.521   6.229
 9620SOL     OW30756  12.165   7.243   8.953
 9620SOL    HW130757  12.134   7.215   8.867
 9620SOL    HW230758  12.140   7.335   8.959
 9621SOL     OW30759   1.531   5.189   3.380
 9621SOL    HW130760   1.463   5.218   3.320
 9621SOL    HW230761   1.485   5.169   3.461
 9622SOL     OW30762   4.304  12.103   0.567
 9622SOL    HW130763   4.243  12.062   0.628
 9622SOL    HW230764   4.263  12.093   0.481
 9623SOL     OW30765  13.341   4.182   9.736
 9623SOL    HW130766  13.285   4.175   9.658
 9623SOL    HW230767  13.323   4.102   9.785
 9624SOL     OW30768   2.057   1.096   2.493
 9624SOL    HW130769   2.098   1.010   2.495
 9624SOL    HW230770   2.107   1.148   2.555
 9625SOL     OW30771  12.382   1.934   9.101
 9625SOL    HW130772  12.358   2.015   9.148
 9625SOL    HW230773  12.476   1.945   9.083
 9626SOL     OW30774   1.902   2.062   0.786
 9626SOL    HW130775   1.816   2.021   0.792
 9626SOL    HW230776   1.962   1.999   0.826
 9627SOL     OW30777   3.710   1.520  10.217
 9627SOL    HW130778   3.697   1.612  10.240
 9627SOL    HW230779   3.709   1.519  10.121
 9628SOL     OW30780  11.371   3.808   6.714
 9628SOL    HW130781  11.392   3.715   6.725
 9628SOL    HW230782  11.455   3.850   6.696
 9629SOL     OW30783   7.359  10.641   2.752
 9629SOL    HW130784   7.370  10.588   2.831
 9629SOL    HW230785   7.443  10.687   2.742
 9630SOL     OW30786  13.848  11.324   5.418
 9630SOL    HW130787  13.832  11.344   5.326
 9630SOL    HW230788  13.876  11.233   5.419
 9631SOL     OW30789  10.482  12.264   2.315
 9631SOL    HW130790  10.530  12.273   2.397
 9631SOL    HW230791  10.538  12.209   2.260
 9632SOL     OW30792  13.328  14.385  12.889
 9632SOL    HW130793  13.364  14.329  12.958
 9632SOL    HW230794  13.355  14.474  12.914
 9633SOL     OW30795   6.471  10.321   8.893
 9633SOL    HW130796   6.528  10.317   8.969
 9633SOL    HW230797   6.449  10.229   8.875
 9634SOL     OW30798   4.273   7.545   0.135
 9634SOL    HW130799   4.197   7.558   0.078
 9634SOL    HW230800   4.329   7.484   0.086
 9635SOL     OW30801  11.824   4.954  11.275
 9635SOL    HW130802  11.894   4.919  11.330
 9635SOL    HW230803  11.848   4.928  11.186
 9636SOL     OW30804   6.217   0.854   5.807
 9636SOL    HW130805   6.231   0.925   5.870
 9636SOL    HW230806   6.127   0.866   5.776
 9637SOL     OW30807   6.932  12.637  11.585
 9637SOL    HW130808   6.860  12.688  11.548
 9637SOL    HW230809   6.889  12.572  11.641
 9638SOL     OW30810  14.763   1.281  13.319
 9638SOL    HW130811  14.673   1.313  13.314
 9638SOL    HW230812  14.801   1.304  13.234
 9639SOL     OW30813  13.848   3.427  13.767
 9639SOL    HW130814  13.896   3.482  13.706
 9639SOL    HW230815  13.770   3.478  13.790
 9640SOL     OW30816  12.863   8.042   4.037
 9640SOL    HW130817  12.876   8.078   4.125
 9640SOL    HW230818  12.809   8.108   3.993
 9641SOL     OW30819  14.817   6.685  12.755
 9641SOL    HW130820   0.013   6.640  12.809
 9641SOL    HW230821  14.867   6.731  12.688
 9642SOL     OW30822   3.716   0.134   2.344
 9642SOL    HW130823   3.770   0.210   2.321
 9642SOL    HW230824   3.732   0.071   2.274
 9643SOL     OW30825   7.761  11.934   2.820
 9643SOL    HW130826   7.716  11.897   2.744
 9643SOL    HW230827   7.826  11.993   2.782
 9644SOL     OW30828   6.101   8.017   1.721
 9644SOL    HW130829   6.104   8.090   1.782
 9644SOL    HW230830   6.159   8.042   1.650
 9645SOL     OW30831   9.832   0.652  10.927
 9645SOL    HW130832   9.848   0.656  10.833
 9645SOL    HW230833   9.738   0.640  10.936
 9646SOL     OW30834  10.877  12.598   7.800
 9646SOL    HW130835  10.881  12.558   7.887
 9646SOL    HW230836  10.960  12.572   7.758
 9647SOL     OW30837   8.275  11.143   4.392
 9647SOL    HW130838   8.192  11.165   4.435
 9647SOL    HW230839   8.340  11.147   4.462
 9648SOL     OW30840   9.036   5.545   2.600
 9648SOL    HW130841   9.028   5.552   2.696
 9648SOL    HW230842   8.991   5.464   2.579
 9649SOL     OW30843  11.269  12.867   5.914
 9649SOL    HW130844  11.317  12.801   5.865
 9649SOL    HW230845  11.179  12.834   5.918
 9650SOL     OW30846  10.858   9.916   7.999
 9650SOL    HW130847  10.782   9.863   7.976
 9650SOL    HW230848  10.856   9.920   8.095
 9651SOL     OW30849   4.017   1.998   4.622
 9651SOL    HW130850   4.057   2.079   4.654
 9651SOL    HW230851   4.012   2.010   4.527
 9652SOL     OW30852   1.715   2.580   0.555
 9652SOL    HW130853   1.652   2.644   0.522
 9652SOL    HW230854   1.728   2.519   0.483
 9653SOL     OW30855   3.434   4.984   9.591
 9653SOL    HW130856   3.401   4.948   9.673
 9653SOL    HW230857   3.356   4.998   9.537
 9654SOL     OW30858   0.458  10.815   6.039
 9654SOL    HW130859   0.484  10.904   6.065
 9654SOL    HW230860   0.479  10.811   5.945
 9655SOL     OW30861   7.729   0.023   7.109
 9655SOL    HW130862   7.791   0.065   7.049
 9655SOL    HW230863   7.699   0.093   7.165
 9656SOL     OW30864  11.176   1.839  10.917
 9656SOL    HW130865  11.125   1.912  10.880
 9656SOL    HW230866  11.266   1.861  10.896
 9657SOL     OW30867  12.264   6.183   5.982
 9657SOL    HW130868  12.209   6.169   6.059
 9657SOL    HW230869  12.230   6.263   5.942
 9658SOL     OW30870   1.486  10.263   7.393
 9658SOL    HW130871   1.407  10.237   7.440
 9658SOL    HW230872   1.558  10.238   7.451
 9659SOL     OW30873   6.512   1.937   3.230
 9659SOL    HW130874   6.492   2.025   3.196
 9659SOL    HW230875   6.553   1.953   3.315
 9660SOL     OW30876  10.374   5.837   8.154
 9660SOL    HW130877  10.297   5.880   8.191
 9660SOL    HW230878  10.349   5.746   8.144
 9661SOL     OW30879   8.355   2.215  14.376
 9661SOL    HW130880   8.417   2.263  14.322
 9661SOL    HW230881   8.390   2.221  14.465
 9662SOL     OW30882   6.567  13.620   8.494
 9662SOL    HW130883   6.561  13.711   8.466
 9662SOL    HW230884   6.500  13.612   8.563
 9663SOL     OW30885  11.107  11.320  12.804
 9663SOL    HW130886  11.120  11.335  12.898
 9663SOL    HW230887  11.044  11.386  12.777
 9664SOL     OW30888  14.811   3.920   7.497
 9664SOL    HW130889  14.855   3.850   7.545
 9664SOL    HW230890  14.792   3.881   7.411
 9665SOL     OW30891  13.817   1.298   5.081
 9665SOL    HW130892  13.894   1.320   5.029
 9665SOL    HW230893  13.849   1.234   5.145
 9666SOL     OW30894   4.693   4.688  14.656
 9666SOL    HW130895   4.783   4.680  14.623
 9666SOL    HW230896   4.670   4.780  14.641
 9667SOL     OW30897   5.302  12.971   8.710
 9667SOL    HW130898   5.352  12.998   8.633
 9667SOL    HW230899   5.217  13.014   8.699
 9668SOL     OW30900   1.255   3.768   0.562
 9668SOL    HW130901   1.337   3.747   0.518
 9668SOL    HW230902   1.227   3.851   0.524
 9669SOL     OW30903   1.279  12.966   8.852
 9669SOL    HW130904   1.191  12.928   8.849
 9669SOL    HW230905   1.265  13.060   8.858
 9670SOL     OW30906  10.709   5.747   5.006
 9670SOL    HW130907  10.765   5.783   5.075
 9670SOL    HW230908  10.759   5.758   4.925
 9671SOL     OW30909   8.208  12.820   8.651
 9671SOL    HW130910   8.186  12.835   8.559
 9671SOL    HW230911   8.251  12.901   8.679
 9672SOL     OW30912   6.485   9.645   2.884
 9672SOL    HW130913   6.559   9.585   2.893
 9672SOL    HW230914   6.443   9.645   2.970
 9673SOL     OW30915   2.787  10.180  12.962
 9673SOL    HW130916   2.837  10.209  12.885
 9673SOL    HW230917   2.698  10.209  12.945
 9674SOL     OW30918   2.104  12.036   4.384
 9674SOL    HW130919   2.195  12.012   4.403
 9674SOL    HW230920   2.088  12.000   4.297
 9675SOL     OW30921  10.476   7.457   4.596
 9675SOL    HW130922  10.530   7.489   4.524
 9675SOL    HW230923  10.386   7.464   4.564
 9676SOL     OW30924   9.400   5.041   3.769
 9676SOL    HW130925   9.311   5.030   3.802
 9676SOL    HW230926   9.408   4.975   3.700
 9677SOL     OW30927   5.698  11.156   8.081
 9677SOL    HW130928   5.713  11.243   8.045
 9677SOL    HW230929   5.682  11.101   8.004
 9678SOL     OW30930   3.082   1.728   4.868
 9678SOL    HW130931   3.045   1.665   4.807
 9678SOL    HW230932   3.160   1.762   4.825
 9679SOL     OW30933   7.628   9.010  14.833
 9679SOL    HW130934   7.622   8.957  14.754
 9679SOL    HW230935   7.538   9.024  14.860
 9680SOL     OW30936   8.605   1.669   7.462
 9680SOL    HW130937   8.549   1.640   7.390
 9680SOL    HW230938   8.584   1.610   7.534
 9681SOL     OW30939  14.064   9.415   9.981
 9681SOL    HW130940  14.102   9.405   9.894
 9681SOL    HW230941  14.097   9.340  10.030
 9682SOL     OW30942   9.735   2.713   3.916
 9682SOL    HW130943   9.735   2.784   3.980
 9682SOL    HW230944   9.644   2.685   3.911
 9683SOL     OW30945   1.160  10.471  10.323
 9683SOL    HW130946   1.151  10.470  10.227
 9683SOL    HW230947   1.070  10.467  10.355
 9684SOL     OW30948  12.918  14.125  12.604
 9684SOL    HW130949  12.987  14.181  12.566
 9684SOL    HW230950  12.889  14.174  12.681
 9685SOL     OW30951   1.372   5.663  11.320
 9685SOL    HW130952   1.309   5.612  11.371
 9685SOL    HW230953   1.382   5.615  11.238
 9686SOL     OW30954   0.238   2.056  13.176
 9686SOL    HW130955   0.204   2.004  13.248
 9686SOL    HW230956   0.187   2.027  13.100
 9687SOL     OW30957   0.950   5.391   8.788
 9687SOL    HW130958   0.946   5.473   8.838
 9687SOL    HW230959   1.030   5.348   8.820
 9688SOL     OW30960   9.816   7.978   1.459
 9688SOL    HW130961   9.886   7.927   1.420
 9688SOL    HW230962   9.777   8.027   1.386
 9689SOL     OW30963  13.671  13.716   0.052
 9689SOL    HW130964  13.640  13.653   0.117
 9689SOL    HW230965  13.608  13.710  14.850
 9690SOL     OW30966  14.860   5.257   8.055
 9690SOL    HW130967  14.864   5.352   8.045
 9690SOL    HW230968   0.064   5.235   8.111
 9691SOL     OW30969   7.189   3.311  11.129
 9691SOL    HW130970   7.173   3.391  11.080
 9691SOL    HW230971   7.149   3.326  11.215
 9692SOL     OW30972   6.224  14.662   7.879
 9692SOL    HW130973   6.283  14.727   7.916
 9692SOL    HW230974   6.281  14.606   7.826
 9693SOL     OW30975   5.190   3.288   9.637
 9693SOL    HW130976   5.221   3.362   9.584
 9693SOL    HW230977   5.270   3.240   9.659
 9694SOL     OW30978   0.239   6.114   5.171
 9694SOL    HW130979   0.156   6.095   5.215
 9694SOL    HW230980   0.281   6.180   5.226
 9695SOL     OW30981  13.158  14.700   9.322
 9695SOL    HW130982  13.207  14.640   9.266
 9695SOL    HW230983  13.068  14.697   9.288
 9696SOL     OW30984  13.125   0.700  14.425
 9696SOL    HW130985  13.044   0.692  14.375
 9696SOL    HW230986  13.113   0.639  14.498
 9697SOL     OW30987   7.098   4.154   9.656
 9697SOL    HW130988   7.009   4.117   9.656
 9697SOL    HW230989   7.094   4.227   9.717
 9698SOL     OW30990   2.524  13.416   5.643
 9698SOL    HW130991   2.447  13.461   5.607
 9698SOL    HW230992   2.507  13.413   5.738
 9699SOL     OW30993  11.543   7.065   3.401
 9699SOL    HW130994  11.581   7.063   3.314
 9699SOL    HW230995  11.610   7.027   3.458
 9700SOL     OW30996   1.058   6.917   2.718
 9700SOL    HW130997   1.112   6.838   2.727
 9700SOL    HW230998   1.119   6.984   2.688
 9701SOL     OW30999   2.891   5.354  12.059
 9701SOL    HW131000   2.931   5.307  12.132
 9701SOL    HW231001   2.804   5.316  12.051
 9702SOL     OW31002   4.289   9.950   4.583
 9702SOL    HW131003   4.287   9.894   4.505
 9702SOL    HW231004   4.371   9.926   4.627
 9703SOL     OW31005  13.641   7.030   9.445
 9703SOL    HW131006  13.626   6.942   9.479
 9703SOL    HW231007  13.690   7.075   9.514
 9704SOL     OW31008   9.420   2.899   7.867
 9704SOL    HW131009   9.382   2.820   7.830
 9704SOL    HW231010   9.502   2.870   7.906
 9705SOL     OW31011   0.446   2.492  11.264
 9705SOL    HW131012   0.422   2.584  11.274
 9705SOL    HW231013   0.509   2.491  11.192
 9706SOL     OW31014  14.779  10.872   5.868
 9706SOL    HW131015  14.848  10.905   5.809
 9706SOL    HW231016  14.816  10.793   5.906
 9707SOL     OW31017   3.566  13.716   8.808
 9707SOL    HW131018   3.622  13.789   8.781
 9707SOL    HW231019   3.540  13.737   8.897
 9708SOL     OW31020  11.198   6.595  14.228
 9708SOL    HW131021  11.236   6.595  14.316
 9708SOL    HW231022  11.134   6.524  14.230
 9709SOL     OW31023  10.509  11.010   8.941
 9709SOL    HW131024  10.472  10.922   8.942
 9709SOL    HW231025  10.600  10.996   8.914
 9710SOL     OW31026  14.528   7.724   5.463
 9710SOL    HW131027  14.504   7.696   5.551
 9710SOL    HW231028  14.608   7.775   5.475
 9711SOL     OW31029   3.934   6.570   9.659
 9711SOL    HW131030   4.018   6.611   9.682
 9711SOL    HW231031   3.913   6.605   9.573
 9712SOL     OW31032   9.241   3.754   3.465
 9712SOL    HW131033   9.307   3.768   3.532
 9712SOL    HW231034   9.276   3.683   3.411
 9713SOL     OW31035   6.649   5.134   5.409
 9713SOL    HW131036   6.691   5.054   5.378
 9713SOL    HW231037   6.720   5.196   5.421
 9714SOL     OW31038   0.310   5.498  13.639
 9714SOL    HW131039   0.284   5.429  13.578
 9714SOL    HW231040   0.242   5.496  13.707
 9715SOL     OW31041   7.635   3.666   3.628
 9715SOL    HW131042   7.726   3.657   3.598
 9715SOL    HW231043   7.589   3.703   3.554
 9716SOL     OW31044   4.394   6.387  11.754
 9716SOL    HW131045   4.479   6.431  11.753
 9716SOL    HW231046   4.352   6.416  11.673
 9717SOL     OW31047   9.313   3.382   1.439
 9717SOL    HW131048   9.392   3.392   1.491
 9717SOL    HW231049   9.317   3.454   1.376
 9718SOL     OW31050  13.001   0.517   3.739
 9718SOL    HW131051  12.939   0.461   3.692
 9718SOL    HW231052  13.080   0.464   3.747
 9719SOL     OW31053  14.571  11.247   4.852
 9719SOL    HW131054  14.482  11.281   4.865
 9719SOL    HW231055  14.624  11.324   4.834
 9720SOL     OW31056  14.732  10.960   9.448
 9720SOL    HW131057  14.798  10.922   9.390
 9720SOL    HW231058  14.660  10.984   9.389
 9721SOL     OW31059  14.774  13.952  13.368
 9721SOL    HW131060  14.828  13.875  13.349
 9721SOL    HW231061  14.690  13.933  13.328
 9722SOL     OW31062   4.947   3.056   3.629
 9722SOL    HW131063   4.978   3.060   3.538
 9722SOL    HW231064   4.982   2.973   3.662
 9723SOL     OW31065   2.293   3.409   4.532
 9723SOL    HW131066   2.380   3.449   4.535
 9723SOL    HW231067   2.260   3.416   4.622
 9724SOL     OW31068   5.206   0.911   6.719
 9724SOL    HW131069   5.272   0.895   6.652
 9724SOL    HW231070   5.126   0.930   6.671
 9725SOL     OW31071  10.382   2.287   2.048
 9725SOL    HW131072  10.338   2.306   2.131
 9725SOL    HW231073  10.314   2.295   1.982
 9726SOL     OW31074   0.219   0.102  11.327
 9726SOL    HW131075   0.285   0.069  11.389
 9726SOL    HW231076   0.261   0.093  11.242
 9727SOL     OW31077  10.928   8.430  13.427
 9727SOL    HW131078  10.884   8.350  13.453
 9727SOL    HW231079  10.869   8.469  13.362
 9728SOL     OW31080   8.438   9.685  10.040
 9728SOL    HW131081   8.430   9.647  10.127
 9728SOL    HW231082   8.347   9.700  10.012
 9729SOL     OW31083   1.389  11.966   1.528
 9729SOL    HW131084   1.348  11.912   1.595
 9729SOL    HW231085   1.323  11.973   1.459
 9730SOL     OW31086  12.142   0.395  14.193
 9730SOL    HW131087  12.132   0.347  14.111
 9730SOL    HW231088  12.079   0.354  14.252
 9731SOL     OW31089   2.418  11.159   4.895
 9731SOL    HW131090   2.481  11.180   4.964
 9731SOL    HW231091   2.387  11.244   4.864
 9732SOL     OW31092   7.387   3.223  14.643
 9732SOL    HW131093   7.385   3.218  14.738
 9732SOL    HW231094   7.351   3.309  14.622
 9733SOL     OW31095   4.947  12.789   1.160
 9733SOL    HW131096   4.886  12.846   1.208
 9733SOL    HW231097   4.986  12.847   1.094
 9734SOL     OW31098  14.591   8.563   8.084
 9734SOL    HW131099  14.678   8.582   8.119
 9734SOL    HW231100  14.586   8.467   8.085
 9735SOL     OW31101   3.127   9.737  10.904
 9735SOL    HW131102   3.078   9.753  10.985
 9735SOL    HW231103   3.060   9.711  10.841
 9736SOL     OW31104   0.986   0.861   2.585
 9736SOL    HW131105   1.036   0.942   2.576
 9736SOL    HW231106   0.905   0.887   2.630
 9737SOL     OW31107  12.816   8.087   3.411
 9737SOL    HW131108  12.809   8.118   3.501
 9737SOL    HW231109  12.906   8.106   3.385
 9738SOL     OW31110   7.453   4.950   1.490
 9738SOL    HW131111   7.487   4.934   1.402
 9738SOL    HW231112   7.523   4.918   1.548
 9739SOL     OW31113   6.104   2.171  12.327
 9739SOL    HW131114   6.193   2.158  12.296
 9739SOL    HW231115   6.066   2.083  12.330
 9740SOL     OW31116  11.712  14.540  10.446
 9740SOL    HW131117  11.672  14.535  10.533
 9740SOL    HW231118  11.638  14.560  10.388
 9741SOL     OW31119  13.239   9.384   6.999
 9741SOL    HW131120  13.244   9.304   7.052
 9741SOL    HW231121  13.266   9.454   7.058
 9742SOL     OW31122   1.685  10.878  12.408
 9742SOL    HW131123   1.644  10.811  12.464
 9742SOL    HW231124   1.713  10.946  12.470
 9743SOL     OW31125   8.768   8.093   2.167
 9743SOL    HW131126   8.705   8.121   2.234
 9743SOL    HW231127   8.731   8.012   2.132
 9744SOL     OW31128  13.710   0.333   7.149
 9744SOL    HW131129  13.630   0.358   7.195
 9744SOL    HW231130  13.746   0.415   7.116
 9745SOL     OW31131   0.780   8.998   1.500
 9745SOL    HW131132   0.738   9.067   1.550
 9745SOL    HW231133   0.709   8.938   1.478
 9746SOL     OW31134   0.889   4.344   3.427
 9746SOL    HW131135   0.955   4.410   3.407
 9746SOL    HW231136   0.828   4.349   3.353
 9747SOL     OW31137   2.820  10.588   1.174
 9747SOL    HW131138   2.874  10.519   1.212
 9747SOL    HW231139   2.758  10.543   1.117
 9748SOL     OW31140   0.337   9.506   0.323
 9748SOL    HW131141   0.289   9.425   0.307
 9748SOL    HW231142   0.307   9.566   0.255
 9749SOL     OW31143   2.797  12.447   6.593
 9749SOL    HW131144   2.746  12.509   6.645
 9749SOL    HW231145   2.835  12.387   6.658
 9750SOL     OW31146  12.447   2.549   5.602
 9750SOL    HW131147  12.463   2.637   5.566
 9750SOL    HW231148  12.374   2.560   5.663
 9751SOL     OW31149   6.227   4.066   7.404
 9751SOL    HW131150   6.235   4.063   7.500
 9751SOL    HW231151   6.155   4.127   7.388
 9752SOL     OW31152   8.749   9.282   1.483
 9752SOL    HW131153   8.747   9.255   1.391
 9752SOL    HW231154   8.840   9.272   1.509
 9753SOL     OW31155   4.016   3.922  11.491
 9753SOL    HW131156   3.991   3.838  11.532
 9753SOL    HW231157   3.993   3.988  11.556
 9754SOL     OW31158   6.764   9.261  11.154
 9754SOL    HW131159   6.820   9.196  11.111
 9754SOL    HW231160   6.770   9.338  11.099
 9755SOL     OW31161  10.305   4.209  13.529
 9755SOL    HW131162  10.223   4.234  13.572
 9755SOL    HW231163  10.344   4.145  13.589
 9756SOL     OW31164   7.830   1.712   2.207
 9756SOL    HW131165   7.742   1.742   2.224
 9756SOL    HW231166   7.824   1.616   2.210
 9757SOL     OW31167   8.527   1.554   5.208
 9757SOL    HW131168   8.439   1.575   5.175
 9757SOL    HW231169   8.544   1.621   5.274
 9758SOL     OW31170   7.482  12.488   7.409
 9758SOL    HW131171   7.445  12.399   7.407
 9758SOL    HW231172   7.477  12.518   7.318
 9759SOL     OW31173   0.351   5.967   0.500
 9759SOL    HW131174   0.441   5.982   0.471
 9759SOL    HW231175   0.345   5.872   0.509
 9760SOL     OW31176   9.691  14.819  11.365
 9760SOL    HW131177   9.624  14.847  11.302
 9760SOL    HW231178   9.745  14.758  11.315
 9761SOL     OW31179   1.925  14.739  12.903
 9761SOL    HW131180   1.900  14.830  12.885
 9761SOL    HW231181   1.863  14.686  12.854
 9762SOL     OW31182   5.591   6.259  14.196
 9762SOL    HW131183   5.674   6.267  14.149
 9762SOL    HW231184   5.609   6.294  14.284
 9763SOL     OW31185   8.779   9.559   0.636
 9763SOL    HW131186   8.687   9.585   0.640
 9763SOL    HW231187   8.823   9.619   0.696
 9764SOL     OW31188   5.147  13.861  10.332
 9764SOL    HW131189   5.229  13.860  10.380
 9764SOL    HW231190   5.080  13.874  10.399
 9765SOL     OW31191   0.932   9.159   8.579
 9765SOL    HW131192   0.938   9.150   8.674
 9765SOL    HW231193   0.874   9.234   8.565
 9766SOL     OW31194  14.456   8.369   6.621
 9766SOL    HW131195  14.463   8.324   6.537
 9766SOL    HW231196  14.387   8.321   6.668
 9767SOL     OW31197  14.725   8.648   9.289
 9767SOL    HW131198  14.762   8.731   9.318
 9767SOL    HW231199  14.680   8.612   9.366
 9768SOL     OW31200   5.756   2.975   3.556
 9768SOL    HW131201   5.757   2.951   3.648
 9768SOL    HW231202   5.783   3.067   3.554
 9769SOL     OW31203  10.721   3.366   1.639
 9769SOL    HW131204  10.716   3.453   1.601
 9769SOL    HW231205  10.809   3.362   1.678
 9770SOL     OW31206   4.349  13.587  12.415
 9770SOL    HW131207   4.432  13.542  12.395
 9770SOL    HW231208   4.286  13.516  12.425
 9771SOL     OW31209   4.395   2.589   7.689
 9771SOL    HW131210   4.468   2.650   7.685
 9771SOL    HW231211   4.436   2.503   7.701
 9772SOL     OW31212  13.099  10.509  14.123
 9772SOL    HW131213  13.132  10.578  14.065
 9772SOL    HW231214  13.131  10.534  14.210
 9773SOL     OW31215   0.022   4.307   3.653
 9773SOL    HW131216  14.842   4.226   3.645
 9773SOL    HW231217   0.101   4.282   3.700
 9774SOL     OW31218  12.435   9.594  11.940
 9774SOL    HW131219  12.436   9.690  11.946
 9774SOL    HW231220  12.375   9.575  11.868
 9775SOL     OW31221   6.439   8.473  12.855
 9775SOL    HW131222   6.527   8.438  12.854
 9775SOL    HW231223   6.409   8.467  12.764
 9776SOL     OW31224  11.142   7.571   8.711
 9776SOL    HW131225  11.075   7.552   8.646
 9776SOL    HW231226  11.142   7.667   8.718
 9777SOL     OW31227   1.186   1.370   7.123
 9777SOL    HW131228   1.268   1.331   7.095
 9777SOL    HW231229   1.204   1.403   7.211
 9778SOL     OW31230   2.397   2.115  13.057
 9778SOL    HW131231   2.315   2.064  13.056
 9778SOL    HW231232   2.462   2.056  13.018
 9779SOL     OW31233   9.154   4.316  12.374
 9779SOL    HW131234   9.243   4.297  12.347
 9779SOL    HW231235   9.161   4.332  12.469
 9780SOL     OW31236   4.695   4.602   6.404
 9780SOL    HW131237   4.696   4.529   6.342
 9780SOL    HW231238   4.615   4.589   6.455
 9781SOL     OW31239  14.012  12.874   8.116
 9781SOL    HW131240  13.995  12.939   8.049
 9781SOL    HW231241  14.008  12.790   8.070
 9782SOL     OW31242  12.711   7.053   9.991
 9782SOL    HW131243  12.726   7.104  10.070
 9782SOL    HW231244  12.646   7.102   9.942
 9783SOL     OW31245   1.059   2.043  12.299
 9783SOL    HW131246   1.043   2.080  12.386
 9783SOL    HW231247   0.977   2.000  12.276
 9784SOL     OW31248   9.944   3.098  10.625
 9784SOL    HW131249   9.917   3.133  10.710
 9784SOL    HW231250   9.863   3.068  10.584
 9785SOL     OW31251   8.352   0.991   6.667
 9785SOL    HW131252   8.305   1.069   6.695
 9785SOL    HW231253   8.403   0.965   6.744
 9786SOL     OW31254   0.457   7.721  14.305
 9786SOL    HW131255   0.424   7.746  14.219
 9786SOL    HW231256   0.551   7.741  14.300
 9787SOL     OW31257   2.864   2.076   0.478
 9787SOL    HW131258   2.807   2.050   0.406
 9787SOL    HW231259   2.873   2.171   0.468
 9788SOL     OW31260  14.511   8.872   2.763
 9788SOL    HW131261  14.442   8.839   2.706
 9788SOL    HW231262  14.550   8.945   2.715
 9789SOL     OW31263  13.801  13.184  12.236
 9789SOL    HW131264  13.718  13.224  12.212
 9789SOL    HW231265  13.788  13.091  12.220
 9790SOL     OW31266   4.592  14.577  13.621
 9790SOL    HW131267   4.610  14.491  13.659
 9790SOL    HW231268   4.679  14.610  13.597
 9791SOL     OW31269   7.062   2.671   8.075
 9791SOL    HW131270   7.112   2.593   8.053
 9791SOL    HW231271   7.108   2.742   8.030
 9792SOL     OW31272   7.185  13.604   6.566
 9792SOL    HW131273   7.203  13.580   6.475
 9792SOL    HW231274   7.144  13.690   6.560
 9793SOL     OW31275   2.556  12.162   7.859
 9793SOL    HW131276   2.631  12.128   7.811
 9793SOL    HW231277   2.594  12.213   7.931
 9794SOL     OW31278  11.704   4.250   6.488
 9794SOL    HW131279  11.779   4.196   6.514
 9794SOL    HW231280  11.665   4.202   6.415
 9795SOL     OW31281   8.515   1.555   2.707
 9795SOL    HW131282   8.562   1.638   2.715
 9795SOL    HW231283   8.573   1.491   2.748
 9796SOL     OW31284   2.682  11.756   6.391
 9796SOL    HW131285   2.693  11.851   6.402
 9796SOL    HW231286   2.632  11.747   6.310
 9797SOL     OW31287   2.324   7.883   1.266
 9797SOL    HW131288   2.356   7.927   1.344
 9797SOL    HW231289   2.279   7.806   1.299
 9798SOL     OW31290   4.158  11.477   4.675
 9798SOL    HW131291   4.203  11.452   4.756
 9798SOL    HW231292   4.075  11.513   4.705
 9799SOL     OW31293   9.648  12.634   2.293
 9799SOL    HW131294   9.708  12.564   2.268
 9799SOL    HW231295   9.596  12.597   2.364
 9800SOL     OW31296  11.304  11.310   6.698
 9800SOL    HW131297  11.362  11.243   6.734
 9800SOL    HW231298  11.363  11.377   6.664
 9801SOL     OW31299   0.243  12.128   5.989
 9801SOL    HW131300   0.292  12.203   5.957
 9801SOL    HW231301   0.160  12.164   6.020
 9802SOL     OW31302   9.148   0.231  12.058
 9802SOL    HW131303   9.230   0.203  12.018
 9802SOL    HW231304   9.096   0.151  12.066
 9803SOL     OW31305   5.840   2.634   7.930
 9803SOL    HW131306   5.919   2.584   7.948
 9803SOL    HW231307   5.771   2.568   7.922
 9804SOL     OW31308   5.209   5.384   2.385
 9804SOL    HW131309   5.141   5.431   2.337
 9804SOL    HW231310   5.182   5.388   2.476
 9805SOL     OW31311   8.155   0.686   0.929
 9805SOL    HW131312   8.148   0.646   1.015
 9805SOL    HW231313   8.246   0.716   0.923
 9806SOL     OW31314   1.930   2.889   9.630
 9806SOL    HW131315   2.009   2.846   9.596
 9806SOL    HW231316   1.879   2.910   9.552
 9807SOL     OW31317   2.432  12.901  12.547
 9807SOL    HW131318   2.483  12.959  12.604
 9807SOL    HW231319   2.354  12.880  12.597
 9808SOL     OW31320   6.693  11.069   2.644
 9808SOL    HW131321   6.745  11.007   2.696
 9808SOL    HW231322   6.639  11.114   2.708
 9809SOL     OW31323   1.532   5.793  14.552
 9809SOL    HW131324   1.573   5.747  14.625
 9809SOL    HW231325   1.456   5.739  14.530
 9810SOL     OW31326   5.557   6.054   4.655
 9810SOL    HW131327   5.634   6.073   4.708
 9810SOL    HW231328   5.513   5.982   4.700
 9811SOL     OW31329   3.975   1.743  11.478
 9811SOL    HW131330   4.029   1.768  11.553
 9811SOL    HW231331   3.923   1.669  11.509
 9812SOL     OW31332   2.991   8.825   3.922
 9812SOL    HW131333   3.077   8.784   3.928
 9812SOL    HW231334   2.976   8.836   3.828
 9813SOL     OW31335  14.173   8.449   0.055
 9813SOL    HW131336  14.166   8.488  14.837
 9813SOL    HW231337  14.168   8.523   0.115
 9814SOL     OW31338   2.273  10.155   4.300
 9814SOL    HW131339   2.303  10.224   4.359
 9814SOL    HW231340   2.216  10.201   4.238
 9815SOL     OW31341  14.129  12.317   5.492
 9815SOL    HW131342  14.056  12.275   5.447
 9815SOL    HW231343  14.088  12.365   5.565
 9816SOL     OW31344  11.312   3.560  13.976
 9816SOL    HW131345  11.295   3.653  13.994
 9816SOL    HW231346  11.298   3.516  14.060
 9817SOL     OW31347  10.962  12.547   6.385
 9817SOL    HW131348  10.971  12.582   6.296
 9817SOL    HW231349  11.010  12.610   6.439
 9818SOL     OW31350   8.674   5.808   3.627
 9818SOL    HW131351   8.635   5.783   3.711
 9818SOL    HW231352   8.755   5.853   3.651
 9819SOL     OW31353   2.925  11.123  13.625
 9819SOL    HW131354   2.879  11.042  13.643
 9819SOL    HW231355   3.013  11.109  13.662
 9820SOL     OW31356   6.447   4.946   9.492
 9820SOL    HW131357   6.473   4.937   9.401
 9820SOL    HW231358   6.463   5.038   9.513
 9821SOL     OW31359  12.562   8.470  12.093
 9821SOL    HW131360  12.538   8.443  12.005
 9821SOL    HW231361  12.643   8.520  12.082
 9822SOL     OW31362   4.589   5.659  11.524
 9822SOL    HW131363   4.564   5.679  11.614
 9822SOL    HW231364   4.661   5.596  11.532
 9823SOL     OW31365   0.432   0.820   2.865
 9823SOL    HW131366   0.373   0.840   2.792
 9823SOL    HW231367   0.474   0.903   2.885
 9824SOL     OW31368   3.212   1.790   5.686
 9824SOL    HW131369   3.144   1.845   5.647
 9824SOL    HW231370   3.178   1.767   5.772
 9825SOL     OW31371  14.738  13.245   8.657
 9825SOL    HW131372  14.720  13.178   8.591
 9825SOL    HW231373  14.825  13.278   8.634
 9826SOL     OW31374   0.654   9.223   6.874
 9826SOL    HW131375   0.672   9.172   6.795
 9826SOL    HW231376   0.705   9.180   6.943
 9827SOL     OW31377   1.718   8.405   7.039
 9827SOL    HW131378   1.637   8.354   7.037
 9827SOL    HW231379   1.744   8.406   7.131
 9828SOL     OW31380   5.321  13.044   7.016
 9828SOL    HW131381   5.407  13.034   6.976
 9828SOL    HW231382   5.299  12.957   7.049
 9829SOL     OW31383  12.370   9.849   9.949
 9829SOL    HW131384  12.335   9.846   9.860
 9829SOL    HW231385  12.401   9.760   9.966
 9830SOL     OW31386   0.400  10.027  13.946
 9830SOL    HW131387   0.387   9.957  13.882
 9830SOL    HW231388   0.336  10.094  13.923
 9831SOL     OW31389  12.916   1.025   5.122
 9831SOL    HW131390  12.945   1.038   5.212
 9831SOL    HW231391  12.945   0.937   5.100
 9832SOL     OW31392   9.957   9.446   4.175
 9832SOL    HW131393   9.882   9.497   4.205
 9832SOL    HW231394   9.942   9.435   4.082
 9833SOL     OW31395   1.499  12.516  11.916
 9833SOL    HW131396   1.430  12.451  11.930
 9833SOL    HW231397   1.540  12.526  12.001
 9834SOL     OW31398   6.770   4.475   8.750
 9834SOL    HW131399   6.711   4.477   8.826
 9834SOL    HW231400   6.762   4.385   8.717
 9835SOL     OW31401   8.449   8.660   7.612
 9835SOL    HW131402   8.465   8.615   7.529
 9835SOL    HW231403   8.458   8.753   7.592
 9836SOL     OW31404   6.221   2.324   1.948
 9836SOL    HW131405   6.187   2.328   2.037
 9836SOL    HW231406   6.152   2.282   1.898
 9837SOL     OW31407   1.646   4.589   4.705
 9837SOL    HW131408   1.650   4.655   4.774
 9837SOL    HW231409   1.723   4.535   4.720
 9838SOL     OW31410  10.664   0.891   9.288
 9838SOL    HW131411  10.758   0.900   9.301
 9838SOL    HW231412  10.655   0.825   9.219
 9839SOL     OW31413  10.685   1.740   1.048
 9839SOL    HW131414  10.691   1.786   1.132
 9839SOL    HW231415  10.640   1.802   0.990
 9840SOL     OW31416  14.247   4.823   7.722
 9840SOL    HW131417  14.316   4.855   7.664
 9840SOL    HW231418  14.200   4.902   7.749
 9841SOL     OW31419   5.985  14.055   0.265
 9841SOL    HW131420   5.964  14.007   0.185
 9841SOL    HW231421   6.081  14.056   0.267
 9842SOL     OW31422  13.129   5.594   2.665
 9842SOL    HW131423  13.118   5.682   2.627
 9842SOL    HW231424  13.050   5.581   2.717
 9843SOL     OW31425   9.187   5.307   4.348
 9843SOL    HW131426   9.122   5.292   4.280
 9843SOL    HW231427   9.238   5.226   4.351
 9844SOL     OW31428   8.490   4.713   6.322
 9844SOL    HW131429   8.415   4.717   6.263
 9844SOL    HW231430   8.510   4.804   6.342
 9845SOL     OW31431   5.634   2.956  13.613
 9845SOL    HW131432   5.698   2.994  13.553
 9845SOL    HW231433   5.584   2.894  13.560
 9846SOL     OW31434   3.508   3.501   2.289
 9846SOL    HW131435   3.552   3.566   2.343
 9846SOL    HW231436   3.572   3.480   2.221
 9847SOL     OW31437   6.633   4.005  14.661
 9847SOL    HW131438   6.663   3.914  14.667
 9847SOL    HW231439   6.711   4.055  14.641
 9848SOL     OW31440  12.797   9.851   8.540
 9848SOL    HW131441  12.892   9.840   8.534
 9848SOL    HW231442  12.764   9.822   8.455
 9849SOL     OW31443   3.905   0.096   2.949
 9849SOL    HW131444   3.834   0.151   2.980
 9849SOL    HW231445   3.864   0.012   2.928
 9850SOL     OW31446  13.283   7.467   9.819
 9850SOL    HW131447  13.290   7.479   9.914
 9850SOL    HW231448  13.193   7.440   9.805
 9851SOL     OW31449  14.299  12.565  10.752
 9851SOL    HW131450  14.363  12.494  10.761
 9851SOL    HW231451  14.353  12.644  10.740
 9852SOL     OW31452   9.688  10.118   6.206
 9852SOL    HW131453   9.628  10.190   6.184
 9852SOL    HW231454   9.709  10.079   6.121
 9853SOL     OW31455   8.714   9.740   7.039
 9853SOL    HW131456   8.683   9.806   6.977
 9853SOL    HW231457   8.742   9.667   6.984
 9854SOL     OW31458   2.359   9.792  10.566
 9854SOL    HW131459   2.375   9.731  10.638
 9854SOL    HW231460   2.330   9.873  10.608
 9855SOL     OW31461  11.805  14.256  11.828
 9855SOL    HW131462  11.770  14.342  11.853
 9855SOL    HW231463  11.781  14.199  11.900
 9856SOL     OW31464   1.378   5.477  11.095
 9856SOL    HW131465   1.414   5.529  11.022
 9856SOL    HW231466   1.447   5.415  11.117
 9857SOL     OW31467   0.213   6.687   6.179
 9857SOL    HW131468   0.300   6.688   6.219
 9857SOL    HW231469   0.161   6.747   6.232
 9858SOL     OW31470   7.658   3.839  10.074
 9858SOL    HW131471   7.664   3.860  10.167
 9858SOL    HW231472   7.566   3.848  10.053
 9859SOL     OW31473   9.158  14.527   5.109
 9859SOL    HW131474   9.241  14.574   5.114
 9859SOL    HW231475   9.141  14.519   5.015
 9860SOL     OW31476  12.070   0.301   4.047
 9860SOL    HW131477  12.149   0.289   3.994
 9860SOL    HW231478  12.026   0.216   4.046
 9861SOL     OW31479  11.717  12.553  12.155
 9861SOL    HW131480  11.711  12.646  12.175
 9861SOL    HW231481  11.729  12.550  12.060
 9862SOL     OW31482  11.037  13.375  12.288
 9862SOL    HW131483  10.990  13.292  12.279
 9862SOL    HW231484  11.077  13.371  12.375
 9863SOL     OW31485   7.938   1.892   0.424
 9863SOL    HW131486   8.014   1.948   0.444
 9863SOL    HW231487   7.942   1.822   0.489
 9864SOL     OW31488   9.081   6.475  10.024
 9864SOL    HW131489   9.017   6.405  10.008
 9864SOL    HW231490   9.145   6.436  10.082
 9865SOL     OW31491   4.446  10.525   1.898
 9865SOL    HW131492   4.370  10.482   1.861
 9865SOL    HW231493   4.520  10.470   1.875
 9866SOL     OW31494   6.723  12.300   8.328
 9866SOL    HW131495   6.741  12.223   8.381
 9866SOL    HW231496   6.629  12.314   8.336
 9867SOL     OW31497  12.684   0.510  10.274
 9867SOL    HW131498  12.757   0.512  10.213
 9867SOL    HW231499  12.627   0.582  10.246
 9868SOL     OW31500   4.665   9.862  11.005
 9868SOL    HW131501   4.686   9.770  11.024
 9868SOL    HW231502   4.677   9.906  11.089
 9869SOL     OW31503  14.300  10.762   5.191
 9869SOL    HW131504  14.304  10.672   5.222
 9869SOL    HW231505  14.293  10.815   5.271
 9870SOL     OW31506   6.029   6.533  14.656
 9870SOL    HW131507   6.025   6.607  14.717
 9870SOL    HW231508   5.961   6.472  14.688
 9871SOL     OW31509  14.652   3.283   7.070
 9871SOL    HW131510  14.597   3.222   7.020
 9871SOL    HW231511  14.714   3.318   7.005
 9872SOL     OW31512  10.753   4.429   7.764
 9872SOL    HW131513  10.723   4.394   7.848
 9872SOL    HW231514  10.678   4.416   7.706
 9873SOL     OW31515   1.071   6.118  14.048
 9873SOL    HW131516   1.162   6.135  14.073
 9873SOL    HW231517   1.074   6.030  14.009
 9874SOL     OW31518   5.019  11.282  11.045
 9874SOL    HW131519   4.954  11.228  11.091
 9874SOL    HW231520   5.067  11.219  10.991
 9875SOL     OW31521  10.946   6.020   4.851
 9875SOL    HW131522  10.931   6.037   4.944
 9875SOL    HW231523  10.882   6.075   4.806
 9876SOL     OW31524   8.557   2.887  11.038
 9876SOL    HW131525   8.602   2.946  10.978
 9876SOL    HW231526   8.476   2.932  11.061
 9877SOL     OW31527   3.112   3.113  14.499
 9877SOL    HW131528   3.173   3.081  14.565
 9877SOL    HW231529   3.168   3.141  14.426
 9878SOL     OW31530   3.611   5.039  11.931
 9878SOL    HW131531   3.525   5.048  11.890
 9878SOL    HW231532   3.653   4.966  11.885
 9879SOL     OW31533   5.578   3.147   4.839
 9879SOL    HW131534   5.657   3.192   4.869
 9879SOL    HW231535   5.592   3.135   4.745
 9880SOL     OW31536   1.450  10.106  12.676
 9880SOL    HW131537   1.506  10.028  12.682
 9880SOL    HW231538   1.367  10.078  12.715
 9881SOL     OW31539  11.928   4.316   1.158
 9881SOL    HW131540  11.850   4.348   1.113
 9881SOL    HW231541  11.955   4.389   1.214
 9882SOL     OW31542   1.627   0.099   8.539
 9882SOL    HW131543   1.592   0.189   8.536
 9882SOL    HW231544   1.719   0.110   8.562
 9883SOL     OW31545   5.013   1.772  11.083
 9883SOL    HW131546   5.003   1.866  11.065
 9883SOL    HW231547   5.106   1.754  11.069
 9884SOL     OW31548   4.549   4.653  12.209
 9884SOL    HW131549   4.512   4.646  12.121
 9884SOL    HW231550   4.644   4.643  12.196
 9885SOL     OW31551  14.573   6.550  11.786
 9885SOL    HW131552  14.504   6.488  11.806
 9885SOL    HW231553  14.637   6.539  11.857
 9886SOL     OW31554  13.665   1.809  11.808
 9886SOL    HW131555  13.576   1.785  11.783
 9886SOL    HW231556  13.721   1.761  11.748
 9887SOL     OW31557   7.664   5.887   6.474
 9887SOL    HW131558   7.653   5.833   6.395
 9887SOL    HW231559   7.758   5.905   6.478
 9888SOL     OW31560   8.797   0.593  13.047
 9888SOL    HW131561   8.835   0.659  12.989
 9888SOL    HW231562   8.750   0.534  12.989
 9889SOL     OW31563  14.491   9.954   4.483
 9889SOL    HW131564  14.505  10.012   4.408
 9889SOL    HW231565  14.533   9.999   4.556
 9890SOL     OW31566   0.173  10.435   5.105
 9890SOL    HW131567   0.256  10.407   5.142
 9890SOL    HW231568   0.112  10.363   5.124
 9891SOL     OW31569   3.339   0.041  12.630
 9891SOL    HW131570   3.297   0.126  12.649
 9891SOL    HW231571   3.420   0.043  12.682
 9892SOL     OW31572   9.314   0.991  12.882
 9892SOL    HW131573   9.221   0.970  12.891
 9892SOL    HW231574   9.315   1.081  12.848
 9893SOL     OW31575  11.083   3.180   2.050
 9893SOL    HW131576  11.136   3.176   2.130
 9893SOL    HW231577  10.994   3.200   2.082
 9894SOL     OW31578  13.457   0.809   0.182
 9894SOL    HW131579  13.409   0.837   0.104
 9894SOL    HW231580  13.514   0.739   0.150
 9895SOL     OW31581   7.228  11.547   9.637
 9895SOL    HW131582   7.216  11.454   9.620
 9895SOL    HW231583   7.151  11.572   9.689
 9896SOL     OW31584  14.759   9.710   7.877
 9896SOL    HW131585  14.719   9.632   7.916
 9896SOL    HW231586  14.685   9.768   7.859
 9897SOL     OW31587   4.119  11.608  13.704
 9897SOL    HW131588   4.214  11.621  13.706
 9897SOL    HW231589   4.083  11.694  13.681
 9898SOL     OW31590   0.008  10.364  12.334
 9898SOL    HW131591  14.806  10.419  12.365
 9898SOL    HW231592  14.841  10.276  12.333
 9899SOL     OW31593  14.385   2.359   3.012
 9899SOL    HW131594  14.330   2.437   3.002
 9899SOL    HW231595  14.457   2.388   3.068
 9900SOL     OW31596   7.028  11.217   2.312
 9900SOL    HW131597   7.063  11.305   2.302
 9900SOL    HW231598   6.938  11.230   2.340
 9901SOL     OW31599   1.889  11.411   2.990
 9901SOL    HW131600   1.795  11.404   2.973
 9901SOL    HW231601   1.930  11.401   2.904
 9902SOL     OW31602  13.481  13.113  13.533
 9902SOL    HW131603  13.386  13.124  13.527
 9902SOL    HW231604  13.500  13.042  13.471
 9903SOL     OW31605   9.687   9.704  10.955
 9903SOL    HW131606   9.690   9.798  10.972
 9903SOL    HW231607   9.748   9.666  11.018
 9904SOL     OW31608  11.900  14.003   0.299
 9904SOL    HW131609  11.963  13.950   0.250
 9904SOL    HW231610  11.949  14.082   0.322
 9905SOL     OW31611   9.317   5.465   6.714
 9905SOL    HW131612   9.224   5.486   6.721
 9905SOL    HW231613   9.321   5.399   6.645
 9906SOL     OW31614   9.037  11.545   1.005
 9906SOL    HW131615   9.059  11.503   1.089
 9906SOL    HW231616   8.948  11.579   1.018
 9907SOL     OW31617  14.211  12.419  11.762
 9907SOL    HW131618  14.194  12.359  11.835
 9907SOL    HW231619  14.205  12.506  11.800
 9908SOL     OW31620  12.003   7.550   6.788
 9908SOL    HW131621  12.037   7.571   6.701
 9908SOL    HW231622  12.025   7.458   6.801
 9909SOL     OW31623   5.619   6.675   9.572
 9909SOL    HW131624   5.574   6.759   9.581
 9909SOL    HW231625   5.559   6.611   9.611
 9910SOL     OW31626   9.834   6.844   8.750
 9910SOL    HW131627   9.877   6.782   8.810
 9910SOL    HW231628   9.903   6.906   8.727
 9911SOL     OW31629  14.681   1.913  12.639
 9911SOL    HW131630  14.654   1.986  12.695
 9911SOL    HW231631  14.753   1.948  12.587
 9912SOL     OW31632   7.525   9.426   7.201
 9912SOL    HW131633   7.450   9.448   7.146
 9912SOL    HW231634   7.599   9.426   7.141
 9913SOL     OW31635  14.439  13.512   7.247
 9913SOL    HW131636  14.456  13.433   7.297
 9913SOL    HW231637  14.355  13.496   7.204
 9914SOL     OW31638   9.814   2.075  14.377
 9914SOL    HW131639   9.853   2.149  14.330
 9914SOL    HW231640   9.769   2.024  14.310
 9915SOL     OW31641   0.914   6.952  11.463
 9915SOL    HW131642   0.927   6.882  11.526
 9915SOL    HW231643   0.844   6.921  11.406
 9916SOL     OW31644   7.925  11.368  14.336
 9916SOL    HW131645   7.867  11.424  14.387
 9916SOL    HW231646   7.949  11.420  14.259
 9917SOL     OW31647   8.578   4.875   9.184
 9917SOL    HW131648   8.578   4.828   9.268
 9917SOL    HW231649   8.627   4.818   9.125
 9918SOL     OW31650  13.230   2.668  10.487
 9918SOL    HW131651  13.139   2.694  10.498
 9918SOL    HW231652  13.233   2.630  10.399
 9919SOL     OW31653   6.626   3.200   7.975
 9919SOL    HW131654   6.531   3.192   7.990
 9919SOL    HW231655   6.644   3.140   7.903
 9920SOL     OW31656  13.490  14.471   0.224
 9920SOL    HW131657  13.541  14.552   0.214
 9920SOL    HW231658  13.554  14.406   0.253
 9921SOL     OW31659   5.187   7.556   4.488
 9921SOL    HW131660   5.124   7.570   4.559
 9921SOL    HW231661   5.207   7.643   4.456
 9922SOL     OW31662   9.929   3.250  14.513
 9922SOL    HW131663   9.860   3.198  14.554
 9922SOL    HW231664   9.901   3.259  14.422
 9923SOL     OW31665   9.818   5.743   4.204
 9923SOL    HW131666   9.816   5.821   4.150
 9923SOL    HW231667   9.841   5.775   4.292
 9924SOL     OW31668  12.639   6.153  14.591
 9924SOL    HW131669  12.663   6.102  14.669
 9924SOL    HW231670  12.721   6.195  14.564
 9925SOL     OW31671   2.083  13.685  10.963
 9925SOL    HW131672   2.114  13.765  10.921
 9925SOL    HW231673   2.017  13.716  11.026
 9926SOL     OW31674  12.924   9.225   0.631
 9926SOL    HW131675  12.888   9.313   0.619
 9926SOL    HW231676  12.849   9.167   0.621
 9927SOL     OW31677   0.109   7.917   7.588
 9927SOL    HW131678   0.164   7.955   7.657
 9927SOL    HW231679   0.111   7.981   7.518
 9928SOL     OW31680   3.301   9.298   4.227
 9928SOL    HW131681   3.295   9.318   4.134
 9928SOL    HW231682   3.345   9.374   4.265
 9929SOL     OW31683   3.946   5.484  14.322
 9929SOL    HW131684   3.991   5.440  14.394
 9929SOL    HW231685   3.895   5.553  14.365
 9930SOL     OW31686   6.941  10.762  13.166
 9930SOL    HW131687   6.944  10.858  13.156
 9930SOL    HW231688   6.898  10.732  13.086
 9931SOL     OW31689   9.244   8.045   4.393
 9931SOL    HW131690   9.184   7.974   4.370
 9931SOL    HW231691   9.218   8.071   4.481
 9932SOL     OW31692   2.096   4.448   9.138
 9932SOL    HW131693   2.057   4.514   9.082
 9932SOL    HW231694   2.071   4.473   9.227
 9933SOL     OW31695   7.635   0.308  12.758
 9933SOL    HW131696   7.592   0.376  12.811
 9933SOL    HW231697   7.614   0.226  12.804
 9934SOL     OW31698   7.060   9.944   2.957
 9934SOL    HW131699   6.991   9.889   2.921
 9934SOL    HW231700   7.017   9.996   3.025
 9935SOL     OW31701   6.041   4.856   0.786
 9935SOL    HW131702   6.134   4.842   0.804
 9935SOL    HW231703   6.039   4.938   0.736
 9936SOL     OW31704   5.006  14.228   8.222
 9936SOL    HW131705   5.011  14.322   8.236
 9936SOL    HW231706   5.096  14.200   8.207
 9937SOL     OW31707   7.853   6.238  10.316
 9937SOL    HW131708   7.925   6.265  10.259
 9937SOL    HW231709   7.778   6.230  10.258
 9938SOL     OW31710   0.084  11.419   2.606
 9938SOL    HW131711   0.122  11.382   2.527
 9938SOL    HW231712   0.158  11.451   2.657
 9939SOL     OW31713   2.261  11.696   2.244
 9939SOL    HW131714   2.306  11.722   2.325
 9939SOL    HW231715   2.198  11.766   2.229
 9940SOL     OW31716   2.863   9.698   5.819
 9940SOL    HW131717   2.917   9.623   5.797
 9940SOL    HW231718   2.783   9.687   5.767
 9941SOL     OW31719  13.837   9.499   5.969
 9941SOL    HW131720  13.753   9.533   5.938
 9941SOL    HW231721  13.902   9.550   5.922
 9942SOL     OW31722   1.636  14.787   3.762
 9942SOL    HW131723   1.647   0.012   3.757
 9942SOL    HW231724   1.558  14.769   3.710
 9943SOL     OW31725   6.180   2.399   4.264
 9943SOL    HW131726   6.151   2.433   4.349
 9943SOL    HW231727   6.271   2.373   4.279
 9944SOL     OW31728  13.550   0.985   5.302
 9944SOL    HW131729  13.473   0.928   5.312
 9944SOL    HW231730  13.581   0.968   5.213
 9945SOL     OW31731  12.947  14.331   6.785
 9945SOL    HW131732  13.037  14.359   6.771
 9945SOL    HW231733  12.902  14.350   6.703
 9946SOL     OW31734   9.693   2.214   6.708
 9946SOL    HW131735   9.667   2.189   6.619
 9946SOL    HW231736   9.773   2.165   6.724
 9947SOL     OW31737   9.329   8.477   6.253
 9947SOL    HW131738   9.312   8.541   6.322
 9947SOL    HW231739   9.269   8.502   6.182
 9948SOL     OW31740   8.680   4.831  14.100
 9948SOL    HW131741   8.654   4.773  14.171
 9948SOL    HW231742   8.603   4.884  14.082
 9949SOL     OW31743   0.879   5.818   7.824
 9949SOL    HW131744   0.903   5.855   7.739
 9949SOL    HW231745   0.826   5.741   7.803
 9950SOL     OW31746  12.886  14.700  13.540
 9950SOL    HW131747  12.970  14.747  13.536
 9950SOL    HW231748  12.884  14.661  13.627
 9951SOL     OW31749   6.120   2.199   7.541
 9951SOL    HW131750   6.142   2.119   7.590
 9951SOL    HW231751   6.027   2.213   7.559
 9952SOL     OW31752  12.778   1.323   7.648
 9952SOL    HW131753  12.759   1.275   7.729
 9952SOL    HW231754  12.697   1.370   7.628
 9953SOL     OW31755   2.541   1.777   8.803
 9953SOL    HW131756   2.501   1.857   8.835
 9953SOL    HW231757   2.626   1.773   8.847
 9954SOL     OW31758  14.778   5.171   9.362
 9954SOL    HW131759  14.852   5.177   9.302
 9954SOL    HW231760  14.785   5.249   9.416
 9955SOL     OW31761   3.237   4.389  14.138
 9955SOL    HW131762   3.240   4.438  14.220
 9955SOL    HW231763   3.151   4.408  14.101
 9956SOL     OW31764   9.520   0.796  12.867
 9956SOL    HW131765   9.471   0.875  12.892
 9956SOL    HW231766   9.588   0.827  12.808
 9957SOL     OW31767   3.430  13.101  14.447
 9957SOL    HW131768   3.404  13.188  14.477
 9957SOL    HW231769   3.501  13.075  14.506
 9958SOL     OW31770   3.155  10.569  11.188
 9958SOL    HW131771   3.121  10.555  11.276
 9958SOL    HW231772   3.250  10.574  11.198
 9959SOL     OW31773  11.025  13.451   9.460
 9959SOL    HW131774  11.040  13.510   9.386
 9959SOL    HW231775  11.022  13.364   9.421
 9960SOL     OW31776  12.444   0.641   8.333
 9960SOL    HW131777  12.502   0.662   8.261
 9960SOL    HW231778  12.368   0.698   8.321
 9961SOL     OW31779   7.687   1.837   3.334
 9961SOL    HW131780   7.701   1.792   3.251
 9961SOL    HW231781   7.624   1.781   3.381
 9962SOL     OW31782  12.624   3.593  14.349
 9962SOL    HW131783  12.648   3.532  14.279
 9962SOL    HW231784  12.545   3.555  14.387
 9963SOL     OW31785   9.649   3.493   7.230
 9963SOL    HW131786   9.695   3.463   7.152
 9963SOL    HW231787   9.635   3.586   7.216
 9964SOL     OW31788   7.302   5.650   9.542
 9964SOL    HW131789   7.254   5.705   9.480
 9964SOL    HW231790   7.262   5.564   9.535
 9965SOL     OW31791   0.085   2.346   8.110
 9965SOL    HW131792   0.109   2.263   8.151
 9965SOL    HW231793   0.031   2.321   8.035
 9966SOL     OW31794  12.410   7.555   6.819
 9966SOL    HW131795  12.404   7.641   6.861
 9966SOL    HW231796  12.432   7.495   6.890
 9967SOL     OW31797   9.028  14.503   0.196
 9967SOL    HW131798   9.079  14.422   0.188
 9967SOL    HW231799   9.087  14.566   0.236
 9968SOL     OW31800  11.248   7.604   3.586
 9968SOL    HW131801  11.176   7.664   3.565
 9968SOL    HW231802  11.205   7.521   3.603
 9969SOL     OW31803  11.731  11.234   8.423
 9969SOL    HW131804  11.736  11.227   8.327
 9969SOL    HW231805  11.822  11.227   8.452
 9970SOL     OW31806  11.499   9.925   0.718
 9970SOL    HW131807  11.582   9.944   0.762
 9970SOL    HW231808  11.487   9.997   0.656
 9971SOL     OW31809  10.034   0.969  13.982
 9971SOL    HW131810  10.038   1.036  14.050
 9971SOL    HW231811  10.123   0.964  13.947
 9972SOL     OW31812  13.068   8.351   7.792
 9972SOL    HW131813  13.011   8.422   7.821
 9972SOL    HW231814  13.098   8.309   7.872
 9973SOL     OW31815  13.661   1.216   9.213
 9973SOL    HW131816  13.680   1.259   9.129
 9973SOL    HW231817  13.572   1.184   9.205
 9974SOL     OW31818   3.520  11.072  10.981
 9974SOL    HW131819   3.524  11.057  10.886
 9974SOL    HW231820   3.460  11.006  11.013
 9975SOL     OW31821  12.684   2.360   2.981
 9975SOL    HW131822  12.753   2.309   2.939
 9975SOL    HW231823  12.719   2.449   2.985
 9976SOL     OW31824   4.716  13.323   3.026
 9976SOL    HW131825   4.741  13.293   2.938
 9976SOL    HW231826   4.624  13.346   3.018
 9977SOL     OW31827   5.597   9.110  12.099
 9977SOL    HW131828   5.563   9.121  12.187
 9977SOL    HW231829   5.557   9.181  12.049
 9978SOL     OW31830   8.743  10.890   0.978
 9978SOL    HW131831   8.763  10.974   1.020
 9978SOL    HW231832   8.744  10.827   1.050
 9979SOL     OW31833  14.406  13.692   8.886
 9979SOL    HW131834  14.452  13.740   8.954
 9979SOL    HW231835  14.469  13.628   8.854
 9980SOL     OW31836  12.518  10.661   7.047
 9980SOL    HW131837  12.571  10.721   6.994
 9980SOL    HW231838  12.577  10.634   7.118
 9981SOL     OW31839   9.746  11.025  14.541
 9981SOL    HW131840   9.770  10.950  14.597
 9981SOL    HW231841   9.673  11.066  14.587
 9982SOL     OW31842   4.372  12.502   0.123
 9982SOL    HW131843   4.304  12.566   0.143
 9982SOL    HW231844   4.440  12.518   0.189
 9983SOL     OW31845   2.943   7.952   0.949
 9983SOL    HW131846   2.858   7.995   0.948
 9983SOL    HW231847   2.966   7.948   1.042
 9984SOL     OW31848  12.110   7.377  10.970
 9984SOL    HW131849  12.025   7.355  10.932
 9984SOL    HW231850  12.095   7.460  11.015
 9985SOL     OW31851   9.822  12.012   1.090
 9985SOL    HW131852   9.870  12.068   1.151
 9985SOL    HW231853   9.734  12.049   1.089
 9986SOL     OW31854  13.495  14.746   3.577
 9986SOL    HW131855  13.551  14.700   3.640
 9986SOL    HW231856  13.487  14.685   3.503
 9987SOL     OW31857   2.631   7.608   7.024
 9987SOL    HW131858   2.653   7.632   7.114
 9987SOL    HW231859   2.589   7.687   6.988
 9988SOL     OW31860   5.728   2.129  10.533
 9988SOL    HW131861   5.801   2.145  10.593
 9988SOL    HW231862   5.705   2.037  10.548
 9989SOL     OW31863   4.574   7.618   5.135
 9989SOL    HW131864   4.584   7.603   5.040
 9989SOL    HW231865   4.643   7.681   5.157
 9990SOL     OW31866   3.926  13.514   5.024
 9990SOL    HW131867   3.846  13.478   4.987
 9990SOL    HW231868   3.930  13.604   4.990
 9991SOL     OW31869   3.009  10.884   1.506
 9991SOL    HW131870   3.007  10.903   1.600
 9991SOL    HW231871   3.006  10.970   1.464
 9992SOL     OW31872  14.271   5.554  12.400
 9992SOL    HW131873  14.353   5.520  12.436
 9992SOL    HW231874  14.253   5.632  12.453
 9993SOL     OW31875   1.926  12.610   6.730
 9993SOL    HW131876   1.908  12.526   6.771
 9993SOL    HW231877   1.992  12.591   6.663
 9994SOL     OW31878   5.781   8.418  14.205
 9994SOL    HW131879   5.696   8.457  14.225
 9994SOL    HW231880   5.772   8.388  14.115
 9995SOL     OW31881  11.033   2.114   2.085
 9995SOL    HW131882  10.984   2.065   2.150
 9995SOL    HW231883  11.067   2.048   2.025
 9996SOL     OW31884   5.810  14.657   9.406
 9996SOL    HW131885   5.804  14.686   9.497
 9996SOL    HW231886   5.896  14.616   9.399
 9997SOL     OW31887  13.010   9.760   6.084
 9997SOL    HW131888  13.105   9.756   6.068
 9997SOL    HW231889  12.974   9.802   6.006
 9998SOL     OW31890  13.403   5.076   1.627
 9998SOL    HW131891  13.390   5.148   1.689
 9998SOL    HW231892  13.327   5.080   1.569
 9999SOL     OW31893   5.153   7.785   2.287
 9999SOL    HW131894   5.124   7.862   2.335
 9999SOL    HW231895   5.247   7.780   2.304
10000SOL     OW31896   5.400  12.743   4.814
10000SOL    HW131897   5.388  12.670   4.753
10000SOL    HW231898   5.321  12.797   4.803
10001SOL     OW31899   9.294   5.378   9.411
10001SOL    HW131900   9.274   5.420   9.327
10001SOL    HW231901   9.364   5.432   9.449
10002SOL     OW31902   5.592   5.935  11.088
10002SOL    HW131903   5.672   5.966  11.046
10002SOL    HW231904   5.622   5.889  11.166
10003SOL     OW31905  14.403   5.302   5.528
10003SOL    HW131906  14.449   5.277   5.447
10003SOL    HW231907  14.310   5.290   5.508
10004SOL     OW31908   0.835  12.328   5.122
10004SOL    HW131909   0.836  12.322   5.026
10004SOL    HW231910   0.846  12.238   5.151
10005SOL     OW31911   8.014   8.216   6.639
10005SOL    HW131912   8.027   8.143   6.578
10005SOL    HW231913   8.102   8.246   6.661
10006SOL     OW31914   7.668   6.297  13.566
10006SOL    HW131915   7.719   6.357  13.510
10006SOL    HW231916   7.698   6.316  13.655
10007SOL     OW31917   3.152   5.733   4.358
10007SOL    HW131918   3.164   5.736   4.453
10007SOL    HW231919   3.189   5.649   4.332
10008SOL     OW31920   5.999   5.103   9.080
10008SOL    HW131921   6.057   5.076   9.008
10008SOL    HW231922   6.056   5.149   9.141
10009SOL     OW31923   0.379   4.665   9.120
10009SOL    HW131924   0.328   4.586   9.107
10009SOL    HW231925   0.357   4.721   9.046
10010SOL     OW31926   0.613  10.735   3.192
10010SOL    HW131927   0.708  10.724   3.193
10010SOL    HW231928   0.588  10.739   3.284
10011SOL     OW31929   0.078  10.242   3.621
10011SOL    HW131930   0.019  10.290   3.564
10011SOL    HW231931   0.021  10.187   3.675
10012SOL     OW31932   8.045   3.999   3.505
10012SOL    HW131933   8.062   3.948   3.585
10012SOL    HW231934   7.950   4.008   3.503
10013SOL     OW31935   1.738  12.176  11.298
10013SOL    HW131936   1.723  12.082  11.308
10013SOL    HW231937   1.791  12.183  11.218
10014SOL     OW31938  14.128   8.336  10.752
10014SOL    HW131939  14.122   8.432  10.751
10014SOL    HW231940  14.120   8.311  10.660
10015SOL     OW31941  13.668  11.212  11.036
10015SOL    HW131942  13.670  11.116  11.032
10015SOL    HW231943  13.692  11.240  10.947
10016SOL     OW31944   5.480   8.733   5.608
10016SOL    HW131945   5.544   8.672   5.645
10016SOL    HW231946   5.530   8.787   5.547
10017SOL     OW31947  14.084  12.200   6.264
10017SOL    HW131948  14.156  12.145   6.233
10017SOL    HW231949  14.051  12.243   6.185
10018SOL     OW31950   0.229  11.506   0.114
10018SOL    HW131951   0.298  11.507   0.049
10018SOL    HW231952   0.149  11.487   0.065
10019SOL     OW31953   9.183   7.047   4.437
10019SOL    HW131954   9.143   7.093   4.363
10019SOL    HW231955   9.180   6.955   4.412
10020SOL     OW31956   0.730   5.824   9.471
10020SOL    HW131957   0.810   5.874   9.456
10020SOL    HW231958   0.669   5.887   9.509
10021SOL     OW31959   0.510  14.739   3.613
10021SOL    HW131960   0.445  14.713   3.548
10021SOL    HW231961   0.585  14.767   3.561
10022SOL     OW31962  11.428  10.586  14.464
10022SOL    HW131963  11.482  10.664  14.468
10022SOL    HW231964  11.360  10.606  14.400
10023SOL     OW31965  11.885  11.867  13.147
10023SOL    HW131966  11.960  11.925  13.159
10023SOL    HW231967  11.924  11.782  13.126
10024SOL     OW31968   2.657   3.037   5.389
10024SOL    HW131969   2.677   3.045   5.296
10024SOL    HW231970   2.637   3.126   5.418
10025SOL     OW31971   7.539   2.392   2.209
10025SOL    HW131972   7.600   2.454   2.249
10025SOL    HW231973   7.505   2.437   2.132
10026SOL     OW31974   0.754   4.819   2.635
10026SOL    HW131975   0.731   4.827   2.728
10026SOL    HW231976   0.782   4.907   2.610
10027SOL     OW31977   5.341   7.622   6.321
10027SOL    HW131978   5.283   7.556   6.282
10027SOL    HW231979   5.422   7.614   6.272
10028SOL     OW31980  11.314   5.629   6.929
10028SOL    HW131981  11.244   5.678   6.884
10028SOL    HW231982  11.395   5.661   6.888
10029SOL     OW31983   9.885   2.145   8.129
10029SOL    HW131984   9.855   2.123   8.217
10029SOL    HW231985   9.975   2.114   8.126
10030SOL     OW31986  13.537   7.759  10.765
10030SOL    HW131987  13.632   7.764  10.754
10030SOL    HW231988  13.503   7.741  10.677
10031SOL     OW31989   8.556   5.712   3.400
10031SOL    HW131990   8.533   5.619   3.388
10031SOL    HW231991   8.594   5.716   3.488
10032SOL     OW31992  13.895  12.573  14.085
10032SOL    HW131993  13.972  12.519  14.101
10032SOL    HW231994  13.890  12.582  13.990
10033SOL     OW31995   5.253  14.358   5.130
10033SOL    HW131996   5.202  14.398   5.060
10033SOL    HW231997   5.334  14.328   5.088
10034SOL     OW31998  13.831   8.846   7.098
10034SOL    HW131999  13.788   8.813   7.019
10034SOL    HW232000  13.920   8.812   7.093
10035SOL     OW32001   0.484   6.662   0.191
10035SOL    HW132002   0.410   6.701   0.239
10035SOL    HW232003   0.539   6.624   0.259
10036SOL     OW32004   4.915   6.629   4.001
10036SOL    HW132005   5.001   6.591   3.983
10036SOL    HW232006   4.859   6.553   4.020
10037SOL     OW32007   4.941   2.442   4.215
10037SOL    HW132008   4.916   2.476   4.129
10037SOL    HW232009   4.917   2.511   4.276
10038SOL     OW32010  12.024   3.864   9.116
10038SOL    HW132011  11.945   3.880   9.167
10038SOL    HW232012  11.997   3.799   9.050
10039SOL     OW32013  14.312  13.631   0.126
10039SOL    HW132014  14.260  13.565   0.079
10039SOL    HW232015  14.309  13.708   0.070
10040SOL     OW32016   1.145   4.666  13.025
10040SOL    HW132017   1.216   4.618  13.067
10040SOL    HW232018   1.079   4.600  13.004
10041SOL     OW32019   5.641   1.456   7.141
10041SOL    HW132020   5.651   1.366   7.111
10041SOL    HW232021   5.670   1.509   7.067
10042SOL     OW32022   8.182   1.167   3.377
10042SOL    HW132023   8.176   1.205   3.464
10042SOL    HW232024   8.167   1.240   3.317
10043SOL     OW32025  10.658   0.036   6.929
10043SOL    HW132026  10.737   0.056   6.878
10043SOL    HW232027  10.659   0.099   7.000
10044SOL     OW32028   2.568  12.405  11.083
10044SOL    HW132029   2.564  12.484  11.136
10044SOL    HW232030   2.647  12.415  11.030
10045SOL     OW32031   4.640   3.954   6.088
10045SOL    HW132032   4.664   4.036   6.045
10045SOL    HW232033   4.551   3.936   6.058
10046SOL     OW32034  10.592   9.420   0.147
10046SOL    HW132035  10.531   9.490   0.168
10046SOL    HW232036  10.675   9.465   0.127
10047SOL     OW32037   9.522   4.025  11.408
10047SOL    HW132038   9.469   4.055  11.334
10047SOL    HW232039   9.508   3.930  11.410
10048SOL     OW32040   6.033  14.349   0.348
10048SOL    HW132041   6.059  14.404   0.274
10048SOL    HW232042   6.047  14.259   0.317
10049SOL     OW32043   6.290   5.914   7.920
10049SOL    HW132044   6.246   5.875   7.845
10049SOL    HW232045   6.368   5.956   7.883
10050SOL     OW32046   2.064   3.800  12.859
10050SOL    HW132047   2.003   3.746  12.809
10050SOL    HW232048   2.118   3.844  12.793
10051SOL     OW32049   4.001  11.174   9.609
10051SOL    HW132050   3.910  11.165   9.637
10051SOL    HW232051   3.998  11.171   9.514
10052SOL     OW32052   9.755   5.177   9.629
10052SOL    HW132053   9.701   5.222   9.693
10052SOL    HW232054   9.807   5.246   9.588
10053SOL     OW32055  13.694   0.882   9.202
10053SOL    HW132056  13.709   0.965   9.247
10053SOL    HW232057  13.717   0.900   9.110
10054SOL     OW32058  13.066  11.222   1.371
10054SOL    HW132059  13.026  11.284   1.310
10054SOL    HW232060  13.086  11.145   1.318
10055SOL     OW32061   5.565  13.727   7.685
10055SOL    HW132062   5.523  13.641   7.683
10055SOL    HW232063   5.659  13.707   7.682
10056SOL     OW32064   7.698  12.536  12.506
10056SOL    HW132065   7.652  12.612  12.469
10056SOL    HW232066   7.710  12.477  12.432
10057SOL     OW32067   4.549   3.562   3.476
10057SOL    HW132068   4.520   3.532   3.390
10057SOL    HW232069   4.632   3.517   3.490
10058SOL     OW32070   4.799   5.477   5.483
10058SOL    HW132071   4.760   5.408   5.429
10058SOL    HW232072   4.806   5.553   5.425
10059SOL     OW32073  13.783   9.502  14.501
10059SOL    HW132074  13.763   9.423  14.452
10059SOL    HW232075  13.800   9.472  14.590
10060SOL     OW32076   3.504   4.418   3.644
10060SOL    HW132077   3.542   4.505   3.636
10060SOL    HW232078   3.549   4.378   3.718
10061SOL     OW32079  11.990  12.809   8.443
10061SOL    HW132080  11.965  12.825   8.534
10061SOL    HW232081  12.086  12.806   8.444
10062SOL     OW32082   3.027   5.999   3.995
10062SOL    HW132083   2.976   5.940   4.051
10062SOL    HW232084   2.973   6.011   3.917
10063SOL     OW32085   3.771   8.397   8.950
10063SOL    HW132086   3.684   8.388   8.989
10063SOL    HW232087   3.821   8.323   8.985
10064SOL     OW32088  14.076  13.551   4.127
10064SOL    HW132089  14.059  13.531   4.036
10064SOL    HW232090  14.101  13.467   4.167
10065SOL     OW32091  14.112   8.582   2.704
10065SOL    HW132092  14.092   8.631   2.783
10065SOL    HW232093  14.194   8.536   2.725
10066SOL     OW32094  12.514  11.795   3.283
10066SOL    HW132095  12.465  11.725   3.327
10066SOL    HW232096  12.474  11.876   3.315
10067SOL     OW32097   5.985  11.494  13.013
10067SOL    HW132098   6.032  11.576  13.026
10067SOL    HW232099   5.912  11.517  12.955
10068SOL     OW32100   5.509   0.622   5.342
10068SOL    HW132101   5.573   0.551   5.334
10068SOL    HW232102   5.528   0.663   5.426
10069SOL     OW32103   9.377  14.803   9.111
10069SOL    HW132104   9.353   0.026   9.111
10069SOL    HW232105   9.470  14.803   9.135
10070SOL     OW32106   6.855  11.311  13.639
10070SOL    HW132107   6.835  11.376  13.706
10070SOL    HW232108   6.933  11.267  13.671
10071SOL     OW32109   3.995   7.562   0.628
10071SOL    HW132110   4.090   7.574   0.623
10071SOL    HW232111   3.959   7.642   0.587
10072SOL     OW32112   0.213   0.022   9.062
10072SOL    HW132113   0.305   0.038   9.039
10072SOL    HW232114   0.179  14.838   8.990
10073SOL     OW32115   6.642   6.584  10.547
10073SOL    HW132116   6.562   6.618  10.586
10073SOL    HW232117   6.685   6.661  10.510
10074SOL     OW32118   3.138  10.039   5.187
10074SOL    HW132119   3.063   9.986   5.162
10074SOL    HW232120   3.146  10.027   5.281
10075SOL     OW32121  12.447   2.254   0.843
10075SOL    HW132122  12.506   2.296   0.781
10075SOL    HW232123  12.371   2.230   0.791
10076SOL     OW32124   2.843  11.990  12.396
10076SOL    HW132125   2.852  11.959  12.306
10076SOL    HW232126   2.933  12.002  12.427
10077SOL     OW32127   1.625   9.615  14.235
10077SOL    HW132128   1.627   9.697  14.187
10077SOL    HW232129   1.623   9.641  14.327
10078SOL     OW32130   6.269  12.817   2.152
10078SOL    HW132131   6.207  12.744   2.155
10078SOL    HW232132   6.256  12.862   2.235
10079SOL     OW32133  14.328   1.187   4.173
10079SOL    HW132134  14.402   1.126   4.170
10079SOL    HW232135  14.291   1.186   4.085
10080SOL     OW32136   6.692   6.548   1.526
10080SOL    HW132137   6.777   6.534   1.566
10080SOL    HW232138   6.657   6.460   1.512
10081SOL     OW32139   0.246  10.347   9.017
10081SOL    HW132140   0.225  10.254   9.010
10081SOL    HW232141   0.170  10.391   8.979
10082SOL     OW32142   6.235   0.425   2.115
10082SOL    HW132143   6.248   0.330   2.117
10082SOL    HW232144   6.324   0.461   2.108
10083SOL     OW32145   7.406   1.712   3.838
10083SOL    HW132146   7.403   1.619   3.863
10083SOL    HW232147   7.320   1.746   3.862
10084SOL     OW32148   8.318  10.969  10.665
10084SOL    HW132149   8.302  10.914  10.588
10084SOL    HW232150   8.242  11.027  10.670
10085SOL     OW32151   2.423   9.356   5.267
10085SOL    HW132152   2.339   9.344   5.311
10085SOL    HW232153   2.457   9.267   5.256
10086SOL     OW32154  11.202   1.103   5.079
10086SOL    HW132155  11.116   1.064   5.067
10086SOL    HW232156  11.194   1.191   5.041
10087SOL     OW32157   6.685   4.471   5.991
10087SOL    HW132158   6.663   4.382   5.962
10087SOL    HW232159   6.737   4.458   6.071
10088SOL     OW32160  12.546   1.671   0.809
10088SOL    HW132161  12.560   1.664   0.714
10088SOL    HW232162  12.504   1.589   0.833
10089SOL     OW32163   6.131   5.411  11.870
10089SOL    HW132164   6.146   5.355  11.945
10089SOL    HW232165   6.219   5.431  11.837
10090SOL     OW32166   2.377   4.590   4.234
10090SOL    HW132167   2.428   4.667   4.209
10090SOL    HW232168   2.438   4.517   4.225
10091SOL     OW32169   0.898  14.699   4.105
10091SOL    HW132170   0.834  14.637   4.142
10091SOL    HW232171   0.970  14.698   4.168
10092SOL     OW32172   4.665  11.387  14.770
10092SOL    HW132173   4.754  11.380  14.734
10092SOL    HW232174   4.632  11.297  14.770
10093SOL     OW32175   2.894   7.722  14.279
10093SOL    HW132176   2.886   7.646  14.221
10093SOL    HW232177   2.987   7.728  14.297
10094SOL     OW32178   3.232   7.023   3.795
10094SOL    HW132179   3.268   6.939   3.768
10094SOL    HW232180   3.265   7.036   3.883
10095SOL     OW32181   5.773   0.722   9.189
10095SOL    HW132182   5.777   0.648   9.250
10095SOL    HW232183   5.824   0.791   9.231
10096SOL     OW32184  13.203  12.830   6.917
10096SOL    HW132185  13.268  12.769   6.952
10096SOL    HW232186  13.123  12.811   6.966
10097SOL     OW32187  10.493   3.579   6.507
10097SOL    HW132188  10.495   3.509   6.572
10097SOL    HW232189  10.445   3.541   6.433
10098SOL     OW32190   6.553   2.385   4.996
10098SOL    HW132191   6.462   2.393   4.970
10098SOL    HW232192   6.556   2.306   5.050
10099SOL     OW32193   9.400  12.990   3.442
10099SOL    HW132194   9.407  13.070   3.494
10099SOL    HW232195   9.467  13.000   3.375
10100SOL     OW32196   1.738   9.316  13.255
10100SOL    HW132197   1.676   9.381  13.288
10100SOL    HW232198   1.742   9.250  13.324
10101SOL     OW32199   2.581   8.205   9.121
10101SOL    HW132200   2.612   8.122   9.157
10101SOL    HW232201   2.501   8.182   9.073
10102SOL     OW32202  11.820   8.711   2.099
10102SOL    HW132203  11.873   8.791   2.089
10102SOL    HW232204  11.731   8.743   2.116
10103SOL     OW32205  14.224   0.783  11.749
10103SOL    HW132206  14.245   0.771  11.657
10103SOL    HW232207  14.160   0.714  11.768
10104SOL     OW32208  14.324   5.212   0.943
10104SOL    HW132209  14.376   5.201   1.023
10104SOL    HW232210  14.373   5.165   0.876
10105SOL     OW32211  11.366   4.739   0.131
10105SOL    HW132212  11.384   4.824   0.170
10105SOL    HW232213  11.278   4.748   0.095
10106SOL     OW32214  12.406   7.097   1.725
10106SOL    HW132215  12.417   7.037   1.651
10106SOL    HW232216  12.444   7.050   1.800
10107SOL     OW32217   4.749   5.812   9.143
10107SOL    HW132218   4.803   5.786   9.069
10107SOL    HW232219   4.697   5.735   9.163
10108SOL     OW32220   4.096  11.566  12.220
10108SOL    HW132221   4.093  11.471  12.235
10108SOL    HW232222   4.176  11.579  12.168
10109SOL     OW32223   6.987  10.256   3.464
10109SOL    HW132224   7.069  10.304   3.475
10109SOL    HW232225   6.957  10.280   3.376
10110SOL     OW32226  14.609   9.293   3.504
10110SOL    HW132227  14.656   9.372   3.477
10110SOL    HW232228  14.664   9.221   3.472
10111SOL     OW32229  13.826   0.986   5.120
10111SOL    HW132230  13.808   0.902   5.162
10111SOL    HW232231  13.852   1.044   5.191
10112SOL     OW32232  10.384   8.289  12.876
10112SOL    HW132233  10.393   8.277  12.971
10112SOL    HW232234  10.472   8.274  12.841
10113SOL     OW32235   1.269  14.526   4.707
10113SOL    HW132236   1.214  14.493   4.777
10113SOL    HW232237   1.284  14.618   4.729
10114SOL     OW32238   6.618   9.261  11.758
10114SOL    HW132239   6.623   9.334  11.820
10114SOL    HW232240   6.676   9.194  11.795
10115SOL     OW32241   0.491   2.470   5.287
10115SOL    HW132242   0.397   2.476   5.304
10115SOL    HW232243   0.527   2.548   5.327
10116SOL     OW32244   0.964   6.830   6.151
10116SOL    HW132245   0.917   6.831   6.234
10116SOL    HW232246   0.912   6.772   6.095
10117SOL     OW32247  14.406   6.891   8.515
10117SOL    HW132248  14.432   6.907   8.424
10117SOL    HW232249  14.488   6.870   8.560
10118SOL     OW32250   5.604  14.191   6.322
10118SOL    HW132251   5.529  14.153   6.368
10118SOL    HW232252   5.673  14.124   6.329
10119SOL     OW32253   4.858   5.153   3.689
10119SOL    HW132254   4.858   5.091   3.616
10119SOL    HW232255   4.924   5.119   3.749
10120SOL     OW32256  11.094  12.601   8.410
10120SOL    HW132257  11.006  12.624   8.380
10120SOL    HW232258  11.111  12.516   8.370
10121SOL     OW32259   7.760  12.493   3.428
10121SOL    HW132260   7.692  12.498   3.495
10121SOL    HW232261   7.760  12.581   3.388
10122SOL     OW32262   1.106  10.245   5.486
10122SOL    HW132263   1.061  10.162   5.474
10122SOL    HW232264   1.042  10.302   5.528
10123SOL     OW32265   9.586   7.326  12.224
10123SOL    HW132266   9.667   7.279  12.242
10123SOL    HW232267   9.521   7.285  12.281
10124SOL     OW32268   1.636   6.033  10.073
10124SOL    HW132269   1.648   6.110  10.018
10124SOL    HW232270   1.725   5.997  10.083
10125SOL     OW32271   7.645  13.663   0.853
10125SOL    HW132272   7.565  13.614   0.836
10125SOL    HW232273   7.643  13.682   0.947
10126SOL     OW32274   0.344   0.010   7.858
10126SOL    HW132275   0.373   0.066   7.930
10126SOL    HW232276   0.404  14.805   7.859
10127SOL     OW32277   1.772  10.100  10.690
10127SOL    HW132278   1.710  10.094  10.763
10127SOL    HW232279   1.718  10.087  10.612
10128SOL     OW32280   7.797   9.554   8.716
10128SOL    HW132281   7.809   9.461   8.699
10128SOL    HW232282   7.883   9.592   8.699
10129SOL     OW32283  11.716   2.617   2.362
10129SOL    HW132284  11.625   2.644   2.350
10129SOL    HW232285  11.719   2.527   2.328
10130SOL     OW32286  14.556   6.868   3.390
10130SOL    HW132287  14.589   6.819   3.314
10130SOL    HW232288  14.630   6.922   3.417
10131SOL     OW32289   6.039   3.753   7.876
10131SOL    HW132290   6.053   3.664   7.908
10131SOL    HW232291   6.084   3.809   7.939
10132SOL     OW32292  14.328   6.501   5.650
10132SOL    HW132293  14.409   6.545   5.677
10132SOL    HW232294  14.322   6.518   5.556
10133SOL     OW32295  11.787   7.693  12.387
10133SOL    HW132296  11.716   7.643  12.346
10133SOL    HW232297  11.801   7.767  12.327
10134SOL     OW32298  13.849   0.026  13.904
10134SOL    HW132299  13.774   0.016  13.847
10134SOL    HW232300  13.818   0.080  13.976
10135SOL     OW32301   2.892  11.286   7.121
10135SOL    HW132302   2.975  11.300   7.166
10135SOL    HW232303   2.917  11.257   7.033
10136SOL     OW32304  12.164   7.261  10.334
10136SOL    HW132305  12.169   7.288  10.426
10136SOL    HW232306  12.076   7.224  10.325
10137SOL     OW32307   6.681  12.709   7.614
10137SOL    HW132308   6.626  12.631   7.613
10137SOL    HW232309   6.765  12.679   7.649
10138SOL     OW32310   5.206  12.069   0.270
10138SOL    HW132311   5.154  12.149   0.266
10138SOL    HW232312   5.245  12.061   0.182
10139SOL     OW32313   0.133   8.081  11.089
10139SOL    HW132314   0.114   8.015  11.156
10139SOL    HW232315   0.211   8.048  11.044
10140SOL     OW32316   1.682   0.059   8.854
10140SOL    HW132317   1.609  14.868   8.842
10140SOL    HW232318   1.676   0.087   8.945
10141SOL     OW32319   9.993   2.132   3.735
10141SOL    HW132320   9.932   2.204   3.718
10141SOL    HW232321  10.060   2.170   3.792
10142SOL     OW32322   9.718   0.413   0.324
10142SOL    HW132323   9.806   0.413   0.284
10142SOL    HW232324   9.718   0.337   0.382
10143SOL     OW32325   0.856  12.365   9.630
10143SOL    HW132326   0.820  12.368   9.719
10143SOL    HW232327   0.950  12.354   9.643
10144SOL     OW32328   3.772   8.642   0.363
10144SOL    HW132329   3.681   8.614   0.372
10144SOL    HW232330   3.823   8.561   0.363
10145SOL     OW32331   9.141   9.096   5.965
10145SOL    HW132332   9.165   9.034   6.034
10145SOL    HW232333   9.184   9.178   5.991
10146SOL     OW32334   2.611   3.567  13.057
10146SOL    HW132335   2.554   3.587  13.131
10146SOL    HW232336   2.697   3.603  13.082
10147SOL     OW32337   9.494   2.287  11.507
10147SOL    HW132338   9.405   2.259  11.528
10147SOL    HW232339   9.496   2.379  11.534
10148SOL     OW32340   3.274  11.090   1.406
10148SOL    HW132341   3.223  11.155   1.454
10148SOL    HW232342   3.211  11.020   1.387
10149SOL     OW32343   3.706  14.761   6.499
10149SOL    HW132344   3.725  14.726   6.412
10149SOL    HW232345   3.740  14.694   6.559
10150SOL     OW32346   7.107   2.440   7.833
10150SOL    HW132347   7.165   2.476   7.900
10150SOL    HW232348   7.058   2.371   7.878
10151SOL     OW32349   7.603  10.927   7.444
10151SOL    HW132350   7.585  10.930   7.538
10151SOL    HW232351   7.615  11.019   7.419
10152SOL     OW32352   2.953   4.456   6.507
10152SOL    HW132353   2.873   4.496   6.543
10152SOL    HW232354   2.920   4.386   6.451
10153SOL     OW32355   5.186   4.555   6.051
10153SOL    HW132356   5.141   4.619   6.108
10153SOL    HW232357   5.138   4.560   5.968
10154SOL     OW32358   2.965   3.324  14.619
10154SOL    HW132359   3.038   3.375  14.655
10154SOL    HW232360   3.008   3.256  14.566
10155SOL     OW32361  14.443   4.525   1.047
10155SOL    HW132362  14.416   4.501   1.135
10155SOL    HW232363  14.403   4.611   1.032
10156SOL     OW32364  10.818   7.357   0.198
10156SOL    HW132365  10.799   7.359   0.292
10156SOL    HW232366  10.905   7.395   0.190
10157SOL     OW32367   0.851  10.178   7.577
10157SOL    HW132368   0.880  10.179   7.486
10157SOL    HW232369   0.776  10.237   7.579
10158SOL     OW32370   5.574  11.426   2.027
10158SOL    HW132371   5.525  11.385   1.955
10158SOL    HW232372   5.506  11.449   2.091
10159SOL     OW32373   1.431   4.855  14.187
10159SOL    HW132374   1.430   4.760  14.171
10159SOL    HW232375   1.471   4.892  14.108
10160SOL     OW32376   4.918  13.854   0.175
10160SOL    HW132377   4.910  13.765   0.209
10160SOL    HW232378   4.993  13.891   0.221
10161SOL     OW32379   9.307   8.596   0.080
10161SOL    HW132380   9.292   8.525   0.143
10161SOL    HW232381   9.347   8.665   0.132
10162SOL     OW32382   3.237   6.848   2.075
10162SOL    HW132383   3.181   6.785   2.029
10162SOL    HW232384   3.191   6.932   2.066
10163SOL     OW32385   4.229  11.116   9.735
10163SOL    HW132386   4.315  11.119   9.692
10163SOL    HW232387   4.168  11.150   9.669
10164SOL     OW32388  13.867   2.617   9.932
10164SOL    HW132389  13.875   2.662   9.848
10164SOL    HW232390  13.779   2.638   9.962
10165SOL     OW32391   9.130   6.743   1.419
10165SOL    HW132392   9.058   6.783   1.468
10165SOL    HW232393   9.168   6.679   1.479
10166SOL     OW32394   7.669  13.914   2.087
10166SOL    HW132395   7.574  13.915   2.090
10166SOL    HW232396   7.696  13.950   2.172
10167SOL     OW32397   6.359   6.125  11.713
10167SOL    HW132398   6.378   6.213  11.681
10167SOL    HW232399   6.310   6.083  11.642
10168SOL     OW32400   9.946  10.836   7.315
10168SOL    HW132401   9.894  10.878   7.383
10168SOL    HW232402   9.935  10.742   7.331
10169SOL     OW32403  14.690  11.345  13.148
10169SOL    HW132404  14.652  11.298  13.222
10169SOL    HW232405  14.657  11.435  13.157
10170SOL     OW32406  12.037   9.350  10.860
10170SOL    HW132407  12.052   9.273  10.914
10170SOL    HW232408  11.956   9.332  10.813
10171SOL     OW32409  14.223  14.235   4.924
10171SOL    HW132410  14.211  14.165   4.989
10171SOL    HW232411  14.264  14.306   4.973
10172SOL     OW32412  14.567   9.776  11.365
10172SOL    HW132413  14.596   9.823  11.443
10172SOL    HW232414  14.607   9.824  11.292
10173SOL     OW32415   5.555   9.954  13.772
10173SOL    HW132416   5.545   9.890  13.842
10173SOL    HW232417   5.476   9.943  13.718
10174SOL     OW32418  12.274   1.741  13.233
10174SOL    HW132419  12.361   1.717  13.265
10174SOL    HW232420  12.289   1.784  13.149
10175SOL     OW32421   3.989   4.251  12.758
10175SOL    HW132422   4.037   4.206  12.689
10175SOL    HW232423   3.900   4.260  12.723
10176SOL     OW32424   0.650   4.887   4.021
10176SOL    HW132425   0.725   4.839   4.057
10176SOL    HW232426   0.678   4.978   4.021
10177SOL     OW32427   1.608   1.783  11.405
10177SOL    HW132428   1.603   1.689  11.385
10177SOL    HW232429   1.565   1.826  11.332
10178SOL     OW32430   6.740   1.761   6.573
10178SOL    HW132431   6.811   1.769   6.636
10178SOL    HW232432   6.784   1.762   6.487
10179SOL     OW32433   7.622   1.232   8.679
10179SOL    HW132434   7.687   1.226   8.609
10179SOL    HW232435   7.592   1.142   8.692
10180SOL     OW32436  11.451  13.389   8.087
10180SOL    HW132437  11.380  13.383   8.151
10180SOL    HW232438  11.411  13.366   8.004
10181SOL     OW32439  11.936  13.775  10.387
10181SOL    HW132440  12.002  13.841  10.407
10181SOL    HW232441  11.983  13.692  10.392
10182SOL     OW32442   8.456   7.936  13.066
10182SOL    HW132443   8.455   7.893  13.151
10182SOL    HW232444   8.538   7.986  13.065
10183SOL     OW32445  14.236   2.239   3.804
10183SOL    HW132446  14.251   2.204   3.717
10183SOL    HW232447  14.301   2.309   3.814
10184SOL     OW32448   9.774   7.783   5.757
10184SOL    HW132449   9.730   7.797   5.840
10184SOL    HW232450   9.856   7.831   5.764
10185SOL     OW32451   4.008  12.129   1.705
10185SOL    HW132452   4.044  12.153   1.790
10185SOL    HW232453   4.084  12.124   1.647
10186SOL     OW32454  12.296  10.915   0.841
10186SOL    HW132455  12.210  10.904   0.801
10186SOL    HW232456  12.342  10.833   0.821
10187SOL     OW32457  10.865   8.579   0.174
10187SOL    HW132458  10.794   8.582   0.110
10187SOL    HW232459  10.821   8.565   0.258
10188SOL     OW32460   3.492   6.100   6.987
10188SOL    HW132461   3.570   6.088   7.040
10188SOL    HW232462   3.419   6.090   7.048
10189SOL     OW32463   2.218  12.538   0.364
10189SOL    HW132464   2.253  12.487   0.438
10189SOL    HW232465   2.258  12.500   0.287
10190SOL     OW32466  12.479   9.715   1.109
10190SOL    HW132467  12.524   9.745   1.188
10190SOL    HW232468  12.497   9.622   1.104
10191SOL     OW32469  14.098  12.853   5.803
10191SOL    HW132470  14.150  12.798   5.743
10191SOL    HW232471  14.147  12.852   5.885
10192SOL     OW32472   0.970   6.396  14.796
10192SOL    HW132473   0.960   6.473  14.741
10192SOL    HW232474   1.002   6.328  14.737
10193SOL     OW32475   0.436   0.667   4.573
10193SOL    HW132476   0.431   0.729   4.501
10193SOL    HW232477   0.521   0.684   4.614
10194SOL     OW32478   8.777   9.021   9.394
10194SOL    HW132479   8.716   9.025   9.468
10194SOL    HW232480   8.828   8.942   9.409
10195SOL     OW32481   6.970   6.250  11.609
10195SOL    HW132482   7.050   6.199  11.597
10195SOL    HW232483   6.996   6.321  11.668
10196SOL     OW32484   8.738  10.453   9.754
10196SOL    HW132485   8.703  10.370   9.787
10196SOL    HW232486   8.661  10.499   9.721
10197SOL     OW32487  11.135   6.885  13.537
10197SOL    HW132488  11.106   6.821  13.471
10197SOL    HW232489  11.054   6.911  13.582
10198SOL     OW32490   3.752  11.670   0.164
10198SOL    HW132491   3.779  11.680   0.073
10198SOL    HW232492   3.662  11.639   0.160
10199SOL     OW32493   5.252  11.791   4.036
10199SOL    HW132494   5.167  11.797   4.079
10199SOL    HW232495   5.294  11.715   4.077
10200SOL     OW32496   4.079   6.214   4.062
10200SOL    HW132497   4.023   6.288   4.083
10200SOL    HW232498   4.071   6.155   4.137
10201SOL     OW32499  13.015   1.985   4.391
10201SOL    HW132500  12.950   1.916   4.377
10201SOL    HW232501  12.981   2.036   4.464
10202SOL     OW32502  13.434   7.041  11.625
10202SOL    HW132503  13.507   7.009  11.572
10202SOL    HW232504  13.449   7.135  11.633
10203SOL     OW32505  11.940   8.987   1.364
10203SOL    HW132506  11.887   9.002   1.286
10203SOL    HW232507  12.007   8.924   1.336
10204SOL     OW32508   6.691  13.006  10.094
10204SOL    HW132509   6.650  13.002  10.007
10204SOL    HW232510   6.773  13.054  10.079
10205SOL     OW32511   5.057   6.830   4.200
10205SOL    HW132512   4.980   6.810   4.147
10205SOL    HW232513   5.022   6.868   4.280
10206SOL     OW32514   3.800  13.208  12.992
10206SOL    HW132515   3.723  13.201  13.048
10206SOL    HW232516   3.867  13.247  13.049
10207SOL     OW32517  10.776  11.123   2.998
10207SOL    HW132518  10.758  11.109   2.905
10207SOL    HW232519  10.698  11.169   3.031
10208SOL     OW32520   5.842  12.394   7.530
10208SOL    HW132521   5.783  12.392   7.605
10208SOL    HW232522   5.802  12.336   7.465
10209SOL     OW32523  14.809  13.025   1.508
10209SOL    HW132524  14.811  12.930   1.494
10209SOL    HW232525  14.718  13.049   1.492
10210SOL     OW32526   6.009   3.764   9.440
10210SOL    HW132527   6.027   3.698   9.373
10210SOL    HW232528   6.014   3.847   9.394
10211SOL     OW32529  11.570   7.632   0.023
10211SOL    HW132530  11.496   7.667  14.841
10211SOL    HW232531  11.529   7.575   0.088
10212SOL     OW32532   1.432   8.862   8.403
10212SOL    HW132533   1.349   8.820   8.427
10212SOL    HW232534   1.498   8.794   8.415
10213SOL     OW32535   0.290   3.287   0.840
10213SOL    HW132536   0.378   3.297   0.875
10213SOL    HW232537   0.250   3.373   0.849
10214SOL     OW32538  12.769   2.707  13.275
10214SOL    HW132539  12.844   2.761  13.250
10214SOL    HW232540  12.807   2.636  13.327
10215SOL     OW32541   9.969   8.549  10.539
10215SOL    HW132542   9.891   8.593  10.575
10215SOL    HW232543   9.934   8.481  10.482
10216SOL     OW32544   9.188  12.629  10.253
10216SOL    HW132545   9.254  12.589  10.310
10216SOL    HW232546   9.206  12.722  10.257
10217SOL     OW32547   5.441   6.944  10.807
10217SOL    HW132548   5.527   6.929  10.848
10217SOL    HW232549   5.445   6.897  10.724
10218SOL     OW32550  14.135   5.259  11.180
10218SOL    HW132551  14.225   5.265  11.214
10218SOL    HW232552  14.142   5.291  11.090
10219SOL     OW32553  13.664   7.155   2.996
10219SOL    HW132554  13.652   7.076   2.945
10219SOL    HW232555  13.759   7.171   2.995
10220SOL     OW32556   2.200  13.575   6.568
10220SOL    HW132557   2.135  13.587   6.500
10220SOL    HW232558   2.281  13.553   6.521
10221SOL     OW32559   0.108   7.301  11.000
10221SOL    HW132560   0.038   7.247  10.963
10221SOL    HW232561   0.077   7.391  10.988
10222SOL     OW32562  10.925  13.798   8.095
10222SOL    HW132563  10.856  13.750   8.141
10222SOL    HW232564  10.980  13.729   8.057
10223SOL     OW32565   4.295   3.792  12.192
10223SOL    HW132566   4.255   3.705  12.191
10223SOL    HW232567   4.298   3.816  12.284
10224SOL     OW32568   7.973  11.246   8.250
10224SOL    HW132569   8.055  11.295   8.244
10224SOL    HW232570   7.985  11.188   8.325
10225SOL     OW32571  13.076   0.321  13.797
10225SOL    HW132572  13.105   0.394  13.743
10225SOL    HW232573  13.133   0.324  13.874
10226SOL     OW32574   8.449   8.976   2.854
10226SOL    HW132575   8.390   9.040   2.813
10226SOL    HW232576   8.393   8.903   2.879
10227SOL     OW32577   7.307   8.906   0.723
10227SOL    HW132578   7.353   8.874   0.800
10227SOL    HW232579   7.376   8.919   0.658
10228SOL     OW32580   3.437   8.024  14.044
10228SOL    HW132581   3.358   8.078  14.051
10228SOL    HW232582   3.508   8.087  14.029
10229SOL     OW32583   5.605  11.831   2.422
10229SOL    HW132584   5.649  11.833   2.337
10229SOL    HW232585   5.566  11.744   2.427
10230SOL     OW32586   6.982   4.152  12.863
10230SOL    HW132587   7.025   4.104  12.793
10230SOL    HW232588   6.981   4.243  12.834
10231SOL     OW32589   2.532  13.566   7.115
10231SOL    HW132590   2.532  13.473   7.136
10231SOL    HW232591   2.442  13.584   7.086
10232SOL     OW32592   3.964   3.067   7.242
10232SOL    HW132593   3.894   3.129   7.262
10232SOL    HW232594   4.043   3.120   7.239
10233SOL     OW32595   5.932  10.446   9.395
10233SOL    HW132596   5.996  10.414   9.331
10233SOL    HW232597   5.902  10.529   9.358
10234SOL     OW32598   7.234  11.646   6.550
10234SOL    HW132599   7.296  11.671   6.620
10234SOL    HW232600   7.271  11.565   6.514
10235SOL     OW32601   8.162   0.532  10.878
10235SOL    HW132602   8.148   0.441  10.853
10235SOL    HW232603   8.216   0.527  10.957
10236SOL     OW32604  13.228  13.569  11.382
10236SOL    HW132605  13.226  13.486  11.335
10236SOL    HW232606  13.314  13.573  11.422
10237SOL     OW32607  10.744  12.941   0.909
10237SOL    HW132608  10.799  12.988   0.972
10237SOL    HW232609  10.802  12.924   0.835
10238SOL     OW32610   7.085  13.950  14.018
10238SOL    HW132611   7.175  13.943  14.049
10238SOL    HW232612   7.058  13.860  14.002
10239SOL     OW32613   4.748   7.567   9.616
10239SOL    HW132614   4.791   7.613   9.544
10239SOL    HW232615   4.732   7.635   9.682
10240SOL     OW32616  12.932  13.326   2.649
10240SOL    HW132617  12.879  13.246   2.644
10240SOL    HW232618  12.933  13.360   2.560
10241SOL     OW32619  10.336   2.322   1.577
10241SOL    HW132620  10.311   2.415   1.569
10241SOL    HW232621  10.319   2.301   1.669
10242SOL     OW32622   1.063  14.149   9.261
10242SOL    HW132623   0.979  14.165   9.305
10242SOL    HW232624   1.111  14.093   9.322
10243SOL     OW32625  13.400   0.720   5.205
10243SOL    HW132626  13.311   0.750   5.224
10243SOL    HW232627  13.412   0.643   5.260
10244SOL     OW32628   8.272  13.476   4.520
10244SOL    HW132629   8.286  13.412   4.449
10244SOL    HW232630   8.186  13.514   4.501
10245SOL     OW32631  13.169   7.031  10.412
10245SOL    HW132632  13.144   7.010  10.322
10245SOL    HW232633  13.096   7.082  10.446
10246SOL     OW32634   4.383   2.594   4.550
10246SOL    HW132635   4.431   2.536   4.491
10246SOL    HW232636   4.448   2.624   4.614
10247SOL     OW32637  14.572   9.417   4.601
10247SOL    HW132638  14.545   9.343   4.548
10247SOL    HW232639  14.592   9.380   4.687
10248SOL     OW32640  10.074   5.335   3.647
10248SOL    HW132641  10.167   5.349   3.667
10248SOL    HW232642  10.058   5.387   3.568
10249SOL     OW32643  12.811   0.859  13.972
10249SOL    HW132644  12.777   0.944  13.947
10249SOL    HW232645  12.793   0.852  14.066
10250SOL     OW32646   6.746   7.954   3.159
10250SOL    HW132647   6.826   7.967   3.210
10250SOL    HW232648   6.703   7.879   3.200
10251SOL     OW32649   5.404  10.939  13.236
10251SOL    HW132650   5.419  10.850  13.202
10251SOL    HW232651   5.361  10.985  13.164
10252SOL     OW32652   2.377  13.378   4.440
10252SOL    HW132653   2.331  13.315   4.385
10252SOL    HW232654   2.442  13.326   4.487
10253SOL     OW32655  13.796   3.747  14.784
10253SOL    HW132656  13.845   3.824  14.756
10253SOL    HW232657  13.725   3.782  14.838
10254SOL     OW32658   0.246   6.928  13.759
10254SOL    HW132659   0.287   7.009  13.729
10254SOL    HW232660   0.201   6.952  13.840
10255SOL     OW32661   0.888   4.484  13.503
10255SOL    HW132662   0.876   4.556  13.442
10255SOL    HW232663   0.983   4.476  13.513
10256SOL     OW32664  12.058   7.816   5.917
10256SOL    HW132665  12.119   7.883   5.948
10256SOL    HW232666  12.020   7.853   5.838
10257SOL     OW32667   2.344  11.800  11.576
10257SOL    HW132668   2.331  11.706  11.560
10257SOL    HW232669   2.339  11.840  11.489
10258SOL     OW32670   0.950   3.536   8.136
10258SOL    HW132671   0.984   3.458   8.180
10258SOL    HW232672   0.989   3.609   8.183
10259SOL     OW32673   7.623  13.511   6.662
10259SOL    HW132674   7.633  13.483   6.571
10259SOL    HW232675   7.711  13.502   6.699
10260SOL     OW32676  12.698   8.310   0.720
10260SOL    HW132677  12.620   8.282   0.671
10260SOL    HW232678  12.771   8.276   0.668
10261SOL     OW32679   8.029  12.877  11.160
10261SOL    HW132680   8.065  12.873  11.249
10261SOL    HW232681   7.936  12.895  11.173
10262SOL     OW32682   4.747  13.347   4.950
10262SOL    HW132683   4.817  13.283   4.960
10262SOL    HW232684   4.714  13.362   5.038
10263SOL     OW32685  12.116   3.757   2.717
10263SOL    HW132686  12.140   3.799   2.800
10263SOL    HW232687  12.152   3.669   2.724
10264SOL     OW32688  14.137   2.171   5.860
10264SOL    HW132689  14.114   2.085   5.824
10264SOL    HW232690  14.058   2.224   5.848
10265SOL     OW32691   8.091   5.349   9.433
10265SOL    HW132692   8.050   5.317   9.513
10265SOL    HW232693   8.153   5.415   9.463
10266SOL     OW32694   4.541   6.689   6.988
10266SOL    HW132695   4.576   6.607   6.954
10266SOL    HW232696   4.565   6.689   7.080
10267SOL     OW32697   7.125   0.917  13.925
10267SOL    HW132698   7.108   0.824  13.918
10267SOL    HW232699   7.130   0.948  13.835
10268SOL     OW32700   8.369   8.803  10.524
10268SOL    HW132701   8.407   8.849  10.599
10268SOL    HW232702   8.437   8.743  10.495
10269SOL     OW32703   4.605   6.634  12.017
10269SOL    HW132704   4.517   6.671  12.027
10269SOL    HW232705   4.621   6.635  11.923
10270SOL     OW32706   6.099   1.755   1.385
10270SOL    HW132707   6.126   1.776   1.474
10270SOL    HW232708   6.027   1.815   1.366
10271SOL     OW32709   6.024   3.836   5.943
10271SOL    HW132710   6.054   3.872   6.026
10271SOL    HW232711   6.038   3.907   5.880
10272SOL     OW32712   0.985   1.611   9.215
10272SOL    HW132713   0.971   1.644   9.126
10272SOL    HW232714   1.074   1.638   9.238
10273SOL     OW32715   5.840   7.735  11.464
10273SOL    HW132716   5.885   7.789  11.528
10273SOL    HW232717   5.766   7.789  11.435
10274SOL     OW32718   0.225  10.829  13.200
10274SOL    HW132719   0.172  10.867  13.129
10274SOL    HW232720   0.178  10.750  13.225
10275SOL     OW32721   6.296   4.649  14.318
10275SOL    HW132722   6.365   4.640  14.252
10275SOL    HW232723   6.326   4.595  14.391
10276SOL     OW32724  12.251   0.899   4.835
10276SOL    HW132725  12.229   0.843   4.909
10276SOL    HW232726  12.189   0.972   4.840
10277SOL     OW32727   4.891   7.837   3.082
10277SOL    HW132728   4.815   7.798   3.124
10277SOL    HW232729   4.965   7.806   3.134
10278SOL     OW32730   1.941   6.747   3.409
10278SOL    HW132731   1.878   6.796   3.461
10278SOL    HW232732   1.903   6.660   3.399
10279SOL     OW32733   0.313   7.927   4.358
10279SOL    HW132734   0.391   7.982   4.357
10279SOL    HW232735   0.340   7.847   4.404
10280SOL     OW32736  11.295   8.838   6.619
10280SOL    HW132737  11.238   8.835   6.696
10280SOL    HW232738  11.258   8.773   6.560
10281SOL     OW32739  11.269  13.194  13.354
10281SOL    HW132740  11.244  13.253  13.426
10281SOL    HW232741  11.348  13.235  13.317
10282SOL     OW32742  13.069   3.171   0.743
10282SOL    HW132743  13.156   3.138   0.718
10282SOL    HW232744  13.036   3.106   0.805
10283SOL     OW32745  14.233   0.216   7.872
10283SOL    HW132746  14.209   0.303   7.904
10283SOL    HW232747  14.152   0.165   7.877
10284SOL     OW32748  13.396   3.724   5.996
10284SOL    HW132749  13.303   3.742   6.004
10284SOL    HW232750  13.432   3.798   5.949
10285SOL     OW32751  13.153   5.653   8.449
10285SOL    HW132752  13.206   5.608   8.516
10285SOL    HW232753  13.076   5.684   8.497
10286SOL     OW32754   3.626   7.935   3.109
10286SOL    HW132755   3.545   7.986   3.113
10286SOL    HW232756   3.689   7.986   3.159
10287SOL     OW32757  13.327  12.234   5.493
10287SOL    HW132758  13.252  12.239   5.434
10287SOL    HW232759  13.304  12.291   5.567
10288SOL     OW32760   2.535   0.339   6.715
10288SOL    HW132761   2.525   0.335   6.810
10288SOL    HW232762   2.539   0.247   6.688
10289SOL     OW32763   7.185   0.156  13.477
10289SOL    HW132764   7.135   0.131  13.400
10289SOL    HW232765   7.136   0.228  13.516
10290SOL     OW32766   4.351  12.636  14.278
10290SOL    HW132767   4.425  12.598  14.325
10290SOL    HW232768   4.391  12.686  14.207
10291SOL     OW32769   0.909   4.531  10.700
10291SOL    HW132770   1.003   4.518  10.715
10291SOL    HW232771   0.903   4.619  10.663
10292SOL     OW32772   9.573   2.646   5.102
10292SOL    HW132773   9.634   2.580   5.070
10292SOL    HW232774   9.511   2.658   5.030
10293SOL     OW32775   9.726  10.747   5.926
10293SOL    HW132776   9.799  10.686   5.926
10293SOL    HW232777   9.694  10.747   6.017
10294SOL     OW32778  11.546  12.537   5.979
10294SOL    HW132779  11.566  12.482   5.903
10294SOL    HW232780  11.452  12.554   5.972
10295SOL     OW32781  14.003  10.128  10.697
10295SOL    HW132782  13.928  10.074  10.723
10295SOL    HW232783  14.065  10.118  10.769
10296SOL     OW32784  12.052   1.349  10.785
10296SOL    HW132785  12.041   1.267  10.737
10296SOL    HW232786  12.100   1.324  10.864
10297SOL     OW32787  13.601   6.120   9.269
10297SOL    HW132788  13.657   6.077   9.333
10297SOL    HW232789  13.623   6.213   9.276
10298SOL     OW32790  13.107   3.957   4.319
10298SOL    HW132791  13.117   4.015   4.244
10298SOL    HW232792  13.032   3.902   4.297
10299SOL     OW32793  13.434   1.976   7.931
10299SOL    HW132794  13.431   2.062   7.972
10299SOL    HW232795  13.467   1.993   7.842
10300SOL     OW32796   1.631  14.778   3.051
10300SOL    HW132797   1.562  14.803   3.113
10300SOL    HW232798   1.648  14.857   3.001
10301SOL     OW32799   8.358   6.676   1.117
10301SOL    HW132800   8.379   6.721   1.036
10301SOL    HW232801   8.284   6.619   1.096
10302SOL     OW32802   9.151  14.237   1.177
10302SOL    HW132803   9.072  14.249   1.125
10302SOL    HW232804   9.220  14.282   1.128
10303SOL     OW32805  14.435   8.197   8.704
10303SOL    HW132806  14.495   8.260   8.743
10303SOL    HW232807  14.453   8.115   8.751
10304SOL     OW32808   5.260  13.799   7.454
10304SOL    HW132809   5.329  13.781   7.389
10304SOL    HW232810   5.200  13.725   7.446
10305SOL     OW32811   0.174  12.964   6.037
10305SOL    HW132812   0.238  12.893   6.033
10305SOL    HW232813   0.160  12.988   5.945
10306SOL     OW32814   5.034  14.169  10.387
10306SOL    HW132815   4.953  14.219  10.397
10306SOL    HW232816   5.009  14.092  10.336
10307SOL     OW32817   9.198  14.020  12.569
10307SOL    HW132818   9.238  13.965  12.501
10307SOL    HW232819   9.182  13.961  12.642
10308SOL     OW32820   7.454   4.491   2.163
10308SOL    HW132821   7.430   4.583   2.176
10308SOL    HW232822   7.371   4.448   2.144
10309SOL     OW32823   9.854   0.158   9.134
10309SOL    HW132824   9.825   0.225   9.195
10309SOL    HW232825   9.929   0.117   9.176
10310SOL     OW32826   7.503  14.054  11.795
10310SOL    HW132827   7.548  13.970  11.794
10310SOL    HW232828   7.450  14.052  11.874
10311SOL     OW32829  11.305   1.047   6.298
10311SOL    HW132830  11.368   0.986   6.259
10311SOL    HW232831  11.219   1.012   6.272
10312SOL     OW32832   4.685   5.357  12.767
10312SOL    HW132833   4.734   5.429  12.807
10312SOL    HW232834   4.601   5.395  12.744
10313SOL     OW32835   7.127   3.604   1.306
10313SOL    HW132836   7.121   3.583   1.213
10313SOL    HW232837   7.085   3.530   1.350
10314SOL     OW32838   0.492   2.679  13.548
10314SOL    HW132839   0.453   2.631  13.621
10314SOL    HW232840   0.436   2.659  13.473
10315SOL     OW32841   6.011   4.573  10.870
10315SOL    HW132842   6.048   4.512  10.806
10315SOL    HW232843   5.926   4.536  10.893
10316SOL     OW32844   5.644   5.802  11.338
10316SOL    HW132845   5.684   5.726  11.380
10316SOL    HW232846   5.553   5.801  11.368
10317SOL     OW32847   4.132   0.156  10.450
10317SOL    HW132848   4.173   0.126  10.369
10317SOL    HW232849   4.043   0.180  10.426
10318SOL     OW32850   0.020   4.079  12.407
10318SOL    HW132851   0.028   4.173  12.389
10318SOL    HW232852  14.813   4.051  12.356
10319SOL     OW32853  11.018   8.757   0.017
10319SOL    HW132854  11.046   8.781   0.105
10319SOL    HW232855  10.968   8.676   0.028
10320SOL     OW32856   1.033   6.447   5.512
10320SOL    HW132857   1.075   6.526   5.547
10320SOL    HW232858   1.084   6.425   5.434
10321SOL     OW32859   6.485   1.698   9.797
10321SOL    HW132860   6.540   1.768   9.833
10321SOL    HW232861   6.543   1.652   9.735
10322SOL     OW32862   8.405   8.795  13.711
10322SOL    HW132863   8.450   8.856  13.652
10322SOL    HW232864   8.443   8.812  13.797
10323SOL     OW32865   5.075  12.978  12.274
10323SOL    HW132866   4.981  12.998  12.272
10323SOL    HW232867   5.079  12.884  12.287
10324SOL     OW32868   0.119   9.046  11.602
10324SOL    HW132869   0.214   9.037  11.605
10324SOL    HW232870   0.090   8.979  11.540
10325SOL     OW32871  14.205  14.235   7.952
10325SOL    HW132872  14.153  14.163   7.987
10325SOL    HW232873  14.186  14.308   8.011
10326SOL     OW32874  13.261  10.828   2.574
10326SOL    HW132875  13.296  10.790   2.493
10326SOL    HW232876  13.205  10.760   2.611
10327SOL     OW32877   6.700   8.208   6.640
10327SOL    HW132878   6.763   8.195   6.712
10327SOL    HW232879   6.698   8.124   6.595
10328SOL     OW32880   0.619   1.265   7.159
10328SOL    HW132881   0.556   1.337   7.148
10328SOL    HW232882   0.655   1.251   7.071
10329SOL     OW32883   1.061   1.560   6.376
10329SOL    HW132884   1.141   1.614   6.377
10329SOL    HW232885   1.060   1.520   6.290
10330SOL     OW32886   4.462  14.402  11.513
10330SOL    HW132887   4.529  14.335  11.521
10330SOL    HW232888   4.464  14.428  11.421
10331SOL     OW32889   8.357   3.911   3.549
10331SOL    HW132890   8.269   3.875   3.552
10331SOL    HW232891   8.394   3.893   3.635
10332SOL     OW32892   8.021   2.236  11.553
10332SOL    HW132893   8.062   2.197  11.630
10332SOL    HW232894   7.940   2.275  11.586
10333SOL     OW32895   5.500  11.716  11.835
10333SOL    HW132896   5.579  11.770  11.828
10333SOL    HW232897   5.465  11.712  11.745
10334SOL     OW32898   1.718   1.217   3.500
10334SOL    HW132899   1.761   1.142   3.459
10334SOL    HW232900   1.638   1.230   3.449
10335SOL     OW32901   7.040   1.870   7.647
10335SOL    HW132902   7.037   1.947   7.591
10335SOL    HW232903   7.115   1.886   7.704
10336SOL     OW32904   4.919   6.535   5.826
10336SOL    HW132905   4.884   6.596   5.761
10336SOL    HW232906   4.858   6.540   5.900
10337SOL     OW32907   3.967   9.018   0.224
10337SOL    HW132908   3.936   9.107   0.242
10337SOL    HW232909   3.931   8.997   0.137
10338SOL     OW32910   4.109  11.403  13.507
10338SOL    HW132911   4.106  11.459  13.429
10338SOL    HW232912   4.117  11.465  13.580
10339SOL     OW32913   0.929   5.662   0.458
10339SOL    HW132914   0.999   5.628   0.513
10339SOL    HW232915   0.950   5.755   0.447
10340SOL     OW32916   3.298  11.656  13.712
10340SOL    HW132917   3.344  11.727  13.667
10340SOL    HW232918   3.368  11.603  13.750
10341SOL     OW32919  11.209   5.866  12.149
10341SOL    HW132920  11.293   5.888  12.109
10341SOL    HW232921  11.144   5.916  12.099
10342SOL     OW32922   5.794   4.748  11.056
10342SOL    HW132923   5.840   4.678  11.009
10342SOL    HW232924   5.722   4.704  11.100
10343SOL     OW32925   9.976   4.905   6.075
10343SOL    HW132926  10.051   4.848   6.057
10343SOL    HW232927   9.957   4.948   5.992
10344SOL     OW32928   8.768  13.165   6.726
10344SOL    HW132929   8.734  13.153   6.815
10344SOL    HW232930   8.696  13.137   6.669
10345SOL     OW32931   7.475   9.940   9.473
10345SOL    HW132932   7.424   9.859   9.477
10345SOL    HW232933   7.415  10.008   9.502
10346SOL     OW32934   4.073   4.948  13.443
10346SOL    HW132935   4.051   4.924  13.353
10346SOL    HW232936   4.166   4.968  13.440
10347SOL     OW32937  13.923   5.083   6.597
10347SOL    HW132938  13.833   5.108   6.619
10347SOL    HW232939  13.972   5.093   6.679
10348SOL     OW32940   2.752  11.968  13.493
10348SOL    HW132941   2.718  11.879  13.498
10348SOL    HW232942   2.832  11.961  13.441
10349SOL     OW32943   8.205   3.987   0.016
10349SOL    HW132944   8.199   3.928  14.811
10349SOL    HW232945   8.229   3.931   0.090
10350SOL     OW32946   0.166   8.975   9.649
10350SOL    HW132947   0.086   8.923   9.643
10350SOL    HW232948   0.199   8.957   9.738
10351SOL     OW32949  13.114  10.021   5.702
10351SOL    HW132950  13.128  10.112   5.675
10351SOL    HW232951  13.035  10.024   5.755
10352SOL     OW32952  12.724   5.512   1.134
10352SOL    HW132953  12.749   5.462   1.056
10352SOL    HW232954  12.629   5.505   1.137
10353SOL     OW32955   4.360   9.317   2.973
10353SOL    HW132956   4.449   9.282   2.983
10353SOL    HW232957   4.362   9.365   2.890
10354SOL     OW32958  10.144  13.093   1.801
10354SOL    HW132959  10.238  13.108   1.806
10354SOL    HW232960  10.116  13.086   1.893
10355SOL     OW32961   2.051   0.876  10.451
10355SOL    HW132962   2.054   0.972  10.454
10355SOL    HW232963   2.071   0.855  10.360
10356SOL     OW32964   2.278  13.776   7.700
10356SOL    HW132965   2.285  13.754   7.607
10356SOL    HW232966   2.254  13.869   7.701
10357SOL     OW32967  10.082  13.695  13.448
10357SOL    HW132968  10.138  13.689  13.370
10357SOL    HW232969   9.994  13.707  13.414
10358SOL     OW32970   4.815   5.566   8.156
10358SOL    HW132971   4.903   5.575   8.195
10358SOL    HW232972   4.824   5.605   8.069
10359SOL     OW32973  13.544   8.109   0.334
10359SOL    HW132974  13.548   8.188   0.280
10359SOL    HW232975  13.475   8.056   0.293
10360SOL     OW32976   1.994  14.478   2.953
10360SOL    HW132977   1.912  14.441   2.921
10360SOL    HW232978   1.976  14.571   2.966
10361SOL     OW32979   1.962   7.883  13.291
10361SOL    HW132980   1.989   7.972  13.315
10361SOL    HW232981   1.897   7.859  13.357
10362SOL     OW32982   0.360   1.870   8.506
10362SOL    HW132983   0.300   1.926   8.556
10362SOL    HW232984   0.445   1.883   8.548
10363SOL     OW32985   9.795   3.498   7.460
10363SOL    HW132986   9.776   3.483   7.367
10363SOL    HW232987   9.717   3.467   7.506
10364SOL     OW32988   2.009   4.708  10.242
10364SOL    HW132989   1.943   4.650  10.280
10364SOL    HW232990   2.015   4.682  10.151
10365SOL     OW32991   4.373   6.188   6.657
10365SOL    HW132992   4.461   6.219   6.636
10365SOL    HW232993   4.379   6.092   6.652
10366SOL     OW32994   6.557  11.558   9.158
10366SOL    HW132995   6.605  11.494   9.106
10366SOL    HW232996   6.486  11.587   9.102
10367SOL     OW32997   6.371  11.326  10.324
10367SOL    HW132998   6.322  11.318  10.406
10367SOL    HW232999   6.356  11.243  10.279
10368SOL     OW33000   1.759   0.672  13.853
10368SOL    HW133001   1.836   0.713  13.812
10368SOL    HW233002   1.684   0.716  13.813
10369SOL     OW33003   4.878  11.941  12.976
10369SOL    HW133004   4.942  12.005  13.006
10369SOL    HW233005   4.798  11.962  13.024
10370SOL     OW33006   9.656   7.565   4.002
10370SOL    HW133007   9.627   7.587   4.090
10370SOL    HW233008   9.577   7.569   3.949
10371SOL     OW33009   3.746   1.655   1.197
10371SOL    HW133010   3.734   1.739   1.151
10371SOL    HW233011   3.671   1.648   1.254
10372SOL     OW33012  12.782   0.139  14.641
10372SOL    HW133013  12.838   0.073  14.682
10372SOL    HW233014  12.709   0.089  14.603
10373SOL     OW33015   0.303  14.207  11.325
10373SOL    HW133016   0.221  14.191  11.371
10373SOL    HW233017   0.298  14.299  11.298
10374SOL     OW33018   5.988  14.316  11.615
10374SOL    HW133019   5.920  14.326  11.548
10374SOL    HW233020   6.069  14.342  11.571
10375SOL     OW33021   6.139   1.733  12.499
10375SOL    HW133022   6.111   1.809  12.448
10375SOL    HW233023   6.109   1.752  12.588
10376SOL     OW33024   8.653   8.047  13.273
10376SOL    HW133025   8.726   8.022  13.217
10376SOL    HW233026   8.597   7.969  13.277
10377SOL     OW33027   8.684   1.681  14.360
10377SOL    HW133028   8.692   1.611  14.425
10377SOL    HW233029   8.599   1.721  14.378
10378SOL     OW33030   6.712   5.217  11.622
10378SOL    HW133031   6.737   5.284  11.686
10378SOL    HW233032   6.627   5.185  11.652
10379SOL     OW33033   7.507   6.104   4.120
10379SOL    HW133034   7.503   6.193   4.084
10379SOL    HW233035   7.416   6.083   4.140
10380SOL     OW33036   7.596   6.174  13.113
10380SOL    HW133037   7.608   6.210  13.024
10380SOL    HW233038   7.513   6.128  13.109
10381SOL     OW33039  14.414   8.450  10.104
10381SOL    HW133040  14.437   8.485  10.018
10381SOL    HW233041  14.474   8.376  10.117
10382SOL     OW33042   2.171   5.136   2.524
10382SOL    HW133043   2.077   5.130   2.542
10382SOL    HW233044   2.180   5.209   2.462
10383SOL     OW33045  11.751  13.751  14.367
10383SOL    HW133046  11.676  13.695  14.387
10383SOL    HW233047  11.823  13.714  14.417
10384SOL     OW33048   6.805  11.642   3.489
10384SOL    HW133049   6.783  11.659   3.398
10384SOL    HW233050   6.882  11.586   3.485
10385SOL     OW33051  11.871  13.989   5.481
10385SOL    HW133052  11.920  13.999   5.399
10385SOL    HW233053  11.858  14.079   5.512
10386SOL     OW33054   7.154   2.853   1.525
10386SOL    HW133055   7.219   2.835   1.458
10386SOL    HW233056   7.171   2.789   1.594
10387SOL     OW33057  13.018   3.612   8.220
10387SOL    HW133058  13.044   3.697   8.184
10387SOL    HW233059  12.923   3.619   8.231
10388SOL     OW33060   7.228  14.488   3.215
10388SOL    HW133061   7.264  14.428   3.150
10388SOL    HW233062   7.137  14.500   3.189
10389SOL     OW33063   3.871   6.608   9.401
10389SOL    HW133064   3.953   6.657   9.411
10389SOL    HW233065   3.852   6.612   9.308
10390SOL     OW33066   3.600   7.978   7.778
10390SOL    HW133067   3.522   7.932   7.811
10390SOL    HW233068   3.666   7.964   7.846
10391SOL     OW33069   2.542   7.593   6.648
10391SOL    HW133070   2.546   7.498   6.640
10391SOL    HW233071   2.457   7.617   6.609
10392SOL     OW33072   4.906   7.094  13.914
10392SOL    HW133073   4.937   7.181  13.891
10392SOL    HW233074   4.882   7.100  14.006
10393SOL     OW33075  14.484   5.410   7.036
10393SOL    HW133076  14.532   5.329   7.056
10393SOL    HW233077  14.547   5.480   7.053
10394SOL     OW33078  11.037   8.969  14.257
10394SOL    HW133079  10.958   9.021  14.261
10394SOL    HW233080  11.076   8.989  14.172
10395SOL     OW33081   5.315   0.686  14.111
10395SOL    HW133082   5.336   0.707  14.202
10395SOL    HW233083   5.358   0.602  14.095
10396SOL     OW33084   9.977  12.229   6.964
10396SOL    HW133085  10.036  12.256   6.894
10396SOL    HW233086  10.000  12.285   7.038
10397SOL     OW33087  10.966   9.206  12.489
10397SOL    HW133088  11.000   9.263  12.420
10397SOL    HW233089  10.872   9.199  12.470
10398SOL     OW33090  14.148  14.850   0.554
10398SOL    HW133091  14.057  14.823   0.568
10398SOL    HW233092  14.142   0.057   0.498
10399SOL     OW33093  12.951   9.657   9.342
10399SOL    HW133094  12.880   9.626   9.285
10399SOL    HW233095  13.012   9.583   9.347
10400SOL     OW33096   5.606  11.939   0.928
10400SOL    HW133097   5.657  11.990   0.865
10400SOL    HW233098   5.544  12.003   0.965
10401SOL     OW33099   1.892   2.835   8.145
10401SOL    HW133100   1.930   2.891   8.077
10401SOL    HW233101   1.947   2.757   8.146
10402SOL     OW33102   5.805  12.619   3.551
10402SOL    HW133103   5.715  12.623   3.583
10402SOL    HW233104   5.855  12.591   3.628
10403SOL     OW33105  10.887   7.190   0.846
10403SOL    HW133106  10.927   7.216   0.929
10403SOL    HW233107  10.809   7.245   0.839
10404SOL     OW33108   5.092   8.103   2.725
10404SOL    HW133109   5.060   8.165   2.791
10404SOL    HW233110   5.031   8.029   2.732
10405SOL     OW33111   8.640  14.825  12.010
10405SOL    HW133112   8.593   0.026  11.967
10405SOL    HW233113   8.677  14.773  11.939
10406SOL     OW33114   4.699   3.588  12.025
10406SOL    HW133115   4.709   3.673  11.983
10406SOL    HW233116   4.655   3.607  12.109
10407SOL     OW33117  10.335  12.808   4.707
10407SOL    HW133118  10.382  12.771   4.782
10407SOL    HW233119  10.246  12.822   4.739
10408SOL     OW33120   9.020   4.010   8.122
10408SOL    HW133121   8.947   3.954   8.148
10408SOL    HW233122   9.077   3.954   8.070
10409SOL     OW33123   5.385  12.011   2.312
10409SOL    HW133124   5.456  11.970   2.361
10409SOL    HW233125   5.418  12.014   2.222
10410SOL     OW33126  14.475  11.580   1.151
10410SOL    HW133127  14.534  11.654   1.139
10410SOL    HW233128  14.400  11.616   1.198
10411SOL     OW33129  10.783  11.653   7.934
10411SOL    HW133130  10.831  11.701   8.002
10411SOL    HW233131  10.708  11.710   7.913
10412SOL     OW33132   4.179  13.881   7.738
10412SOL    HW133133   4.267  13.895   7.704
10412SOL    HW233134   4.143  13.810   7.685
10413SOL     OW33135   8.690   6.219   8.804
10413SOL    HW133136   8.599   6.193   8.794
10413SOL    HW233137   8.731   6.197   8.720
10414SOL     OW33138   8.672   7.271  14.696
10414SOL    HW133139   8.587   7.314  14.703
10414SOL    HW233140   8.713   7.284  14.782
10415SOL     OW33141   4.139   5.239  14.291
10415SOL    HW133142   4.066   5.301  14.289
10415SOL    HW233143   4.207   5.279  14.238
10416SOL     OW33144   3.014   8.827  11.362
10416SOL    HW133145   2.984   8.767  11.430
10416SOL    HW233146   3.067   8.892  11.407
10417SOL     OW33147   1.194   3.018  10.795
10417SOL    HW133148   1.108   2.978  10.808
10417SOL    HW233149   1.178   3.089  10.733
10418SOL     OW33150   4.215   5.919   5.083
10418SOL    HW133151   4.203   5.826   5.098
10418SOL    HW233152   4.273   5.924   5.008
10419SOL     OW33153   4.391  13.632   8.556
10419SOL    HW133154   4.438  13.697   8.607
10419SOL    HW233155   4.323  13.600   8.615
10420SOL     OW33156  13.986   7.316  12.031
10420SOL    HW133157  14.047   7.242  12.024
10420SOL    HW233158  14.039   7.392  12.011
10421SOL     OW33159   6.358   7.713   9.795
10421SOL    HW133160   6.334   7.635   9.844
10421SOL    HW233161   6.385   7.681   9.709
10422SOL     OW33162   7.631   0.041  10.956
10422SOL    HW133163   7.571   0.115  10.940
10422SOL    HW233164   7.578  14.833  10.937
10423SOL     OW33165   0.292   7.895   6.357
10423SOL    HW133166   0.367   7.927   6.308
10423SOL    HW233167   0.217   7.938   6.317
10424SOL     OW33168  14.685   4.955  11.005
10424SOL    HW133169  14.710   5.013  11.076
10424SOL    HW233170  14.697   4.866  11.040
10425SOL     OW33171   0.073   0.563   5.588
10425SOL    HW133172   0.122   0.566   5.670
10425SOL    HW233173   0.079   0.471   5.561
10426SOL     OW33174   2.390   5.399  10.598
10426SOL    HW133175   2.424   5.347  10.524
10426SOL    HW233176   2.359   5.480  10.557
10427SOL     OW33177  13.839  13.362   9.901
10427SOL    HW133178  13.917  13.405   9.938
10427SOL    HW233179  13.873  13.315   9.824
10428SOL     OW33180   2.590  11.493   9.174
10428SOL    HW133181   2.620  11.491   9.083
10428SOL    HW233182   2.579  11.586   9.194
10429SOL     OW33183  13.335   0.504  10.283
10429SOL    HW133184  13.335   0.439  10.353
10429SOL    HW233185  13.395   0.469  10.218
10430SOL     OW33186   3.235  10.817   2.203
10430SOL    HW133187   3.187  10.812   2.121
10430SOL    HW233188   3.172  10.852   2.266
10431SOL     OW33189  13.396   1.365  11.989
10431SOL    HW133190  13.351   1.353  11.905
10431SOL    HW233191  13.394   1.459  12.004
10432SOL     OW33192  13.893   7.881  12.372
10432SOL    HW133193  13.826   7.945  12.350
10432SOL    HW233194  13.889   7.817  12.300
10433SOL     OW33195   6.136   6.728   2.911
10433SOL    HW133196   6.197   6.702   2.979
10433SOL    HW233197   6.178   6.701   2.829
10434SOL     OW33198   1.083   9.312  10.366
10434SOL    HW133199   1.162   9.263  10.391
10434SOL    HW233200   1.011   9.263  10.405
10435SOL     OW33201  12.278   2.785   7.052
10435SOL    HW133202  12.246   2.767   6.964
10435SOL    HW233203  12.244   2.714   7.105
10436SOL     OW33204   0.509   1.622   4.832
10436SOL    HW133205   0.479   1.629   4.742
10436SOL    HW233206   0.466   1.695   4.877
10437SOL     OW33207   6.113   1.198   5.632
10437SOL    HW133208   6.074   1.144   5.563
10437SOL    HW233209   6.202   1.217   5.600
10438SOL     OW33210   6.016  13.331  11.794
10438SOL    HW133211   6.056  13.245  11.780
10438SOL    HW233212   6.061  13.389  11.733
10439SOL     OW33213   6.673   6.579   0.993
10439SOL    HW133214   6.638   6.490   0.984
10439SOL    HW233215   6.597   6.634   1.009
10440SOL     OW33216   4.778   1.184  13.395
10440SOL    HW133217   4.848   1.119  13.407
10440SOL    HW233218   4.805   1.257  13.450
10441SOL     OW33219  10.333   8.909   5.429
10441SOL    HW133220  10.254   8.886   5.477
10441SOL    HW233221  10.389   8.831   5.437
10442SOL     OW33222  12.115  10.005   1.628
10442SOL    HW133223  12.050   9.998   1.698
10442SOL    HW233224  12.083   9.947   1.559
10443SOL     OW33225  10.415   5.756  12.246
10443SOL    HW133226  10.456   5.778  12.330
10443SOL    HW233227  10.400   5.841  12.204
10444SOL     OW33228   0.510   3.333   2.404
10444SOL    HW133229   0.535   3.254   2.453
10444SOL    HW233230   0.551   3.322   2.318
10445SOL     OW33231   7.297   1.470   6.534
10445SOL    HW133232   7.258   1.487   6.620
10445SOL    HW233233   7.304   1.374   6.529
10446SOL     OW33234  13.317   6.974   5.225
10446SOL    HW133235  13.365   6.891   5.230
10446SOL    HW233236  13.268   6.969   5.143
10447SOL     OW33237  11.711  14.223   3.794
10447SOL    HW133238  11.753  14.138   3.809
10447SOL    HW233239  11.778  14.287   3.816
10448SOL     OW33240  12.591   6.890  13.560
10448SOL    HW133241  12.537   6.968  13.550
10448SOL    HW233242  12.674   6.923  13.594
10449SOL     OW33243   1.605   4.120  14.010
10449SOL    HW133244   1.523   4.102  13.964
10449SOL    HW233245   1.646   4.191  13.961
10450SOL     OW33246   7.119   9.871  14.442
10450SOL    HW133247   7.068   9.790  14.446
10450SOL    HW233248   7.198   9.852  14.491
10451SOL     OW33249  11.099   7.071   9.805
10451SOL    HW133250  11.177   7.126   9.815
10451SOL    HW233251  11.134   6.981   9.801
10452SOL     OW33252  10.044   2.412  11.099
10452SOL    HW133253  10.081   2.486  11.146
10452SOL    HW233254   9.950   2.414  11.119
10453SOL     OW33255   5.610  11.152  11.490
10453SOL    HW133256   5.641  11.064  11.509
10453SOL    HW233257   5.630  11.203  11.568
10454SOL     OW33258  13.160   4.912   7.837
10454SOL    HW133259  13.204   4.853   7.776
10454SOL    HW233260  13.231   4.963   7.876
10455SOL     OW33261  12.724   3.490   4.257
10455SOL    HW133262  12.753   3.471   4.347
10455SOL    HW233263  12.675   3.413   4.231
10456SOL     OW33264  12.455   3.360  10.106
10456SOL    HW133265  12.514   3.284  10.101
10456SOL    HW233266  12.507   3.433  10.072
10457SOL     OW33267   6.449  11.206   5.174
10457SOL    HW133268   6.370  11.177   5.219
10457SOL    HW233269   6.500  11.252   5.242
10458SOL     OW33270   1.500  12.184   6.082
10458SOL    HW133271   1.525  12.237   6.157
10458SOL    HW233272   1.456  12.245   6.023
10459SOL     OW33273   4.533  14.710   7.955
10459SOL    HW133274   4.522  14.620   7.985
10459SOL    HW233275   4.550  14.703   7.861
10460SOL     OW33276  11.750   5.798   1.117
10460SOL    HW133277  11.751   5.711   1.156
10460SOL    HW233278  11.719   5.855   1.187
10461SOL     OW33279   7.687  11.712   2.992
10461SOL    HW133280   7.682  11.736   3.085
10461SOL    HW233281   7.723  11.790   2.949
10462SOL     OW33282   1.392  11.886   2.764
10462SOL    HW133283   1.410  11.906   2.856
10462SOL    HW233284   1.304  11.919   2.750
10463SOL     OW33285  10.592   6.724   3.312
10463SOL    HW133286  10.525   6.791   3.323
10463SOL    HW233287  10.666   6.755   3.365
10464SOL     OW33288   7.193   3.645   8.190
10464SOL    HW133289   7.152   3.731   8.186
10464SOL    HW233290   7.180   3.616   8.280
10465SOL     OW33291   7.621  13.191  12.770
10465SOL    HW133292   7.645  13.110  12.814
10465SOL    HW233293   7.589  13.248  12.840
10466SOL     OW33294   3.815   9.569   5.914
10466SOL    HW133295   3.791   9.576   6.006
10466SOL    HW233296   3.885   9.632   5.902
10467SOL     OW33297   4.827   6.546   0.057
10467SOL    HW133298   4.884   6.485   0.103
10467SOL    HW233299   4.739   6.511   0.071
10468SOL     OW33300  11.764   6.247   1.169
10468SOL    HW133301  11.684   6.224   1.217
10468SOL    HW233302  11.743   6.330   1.126
10469SOL     OW33303  13.786   8.965   0.689
10469SOL    HW133304  13.856   9.028   0.705
10469SOL    HW233305  13.716   9.016   0.648
10470SOL     OW33306  10.504   6.505  11.672
10470SOL    HW133307  10.582   6.526  11.723
10470SOL    HW233308  10.434   6.558  11.712
10471SOL     OW33309   0.777   0.943  14.100
10471SOL    HW133310   0.841   1.012  14.116
10471SOL    HW233311   0.753   0.913  14.188
10472SOL     OW33312   3.414  14.538   5.804
10472SOL    HW133313   3.500  14.576   5.787
10472SOL    HW233314   3.431  14.463   5.861
10473SOL     OW33315   4.444   4.098  14.220
10473SOL    HW133316   4.515   4.155  14.192
10473SOL    HW233317   4.489   4.020  14.254
10474SOL     OW33318  11.811   4.863   1.837
10474SOL    HW133319  11.739   4.913   1.799
10474SOL    HW233320  11.868   4.929   1.876
10475SOL     OW33321   2.945   1.885  13.876
10475SOL    HW133322   2.897   1.934  13.810
10475SOL    HW233323   2.986   1.952  13.931
10476SOL     OW33324   5.015   1.491   5.023
10476SOL    HW133325   5.044   1.511   5.112
10476SOL    HW233326   5.092   1.456   4.980
10477SOL     OW33327   9.188   0.306   4.592
10477SOL    HW133328   9.128   0.377   4.616
10477SOL    HW233329   9.132   0.241   4.548
10478SOL     OW33330   6.574  12.992   5.632
10478SOL    HW133331   6.539  12.951   5.711
10478SOL    HW233332   6.614  12.919   5.584
10479SOL     OW33333   6.293   6.480   5.151
10479SOL    HW133334   6.262   6.570   5.142
10479SOL    HW233335   6.261   6.436   5.072
10480SOL     OW33336  13.789   5.515   5.936
10480SOL    HW133337  13.808   5.481   6.024
10480SOL    HW233338  13.825   5.449   5.877
10481SOL     OW33339   3.288   0.257   8.387
10481SOL    HW133340   3.254   0.177   8.426
10481SOL    HW233341   3.383   0.248   8.391
10482SOL     OW33342  11.908   6.263   4.426
10482SOL    HW133343  11.968   6.197   4.390
10482SOL    HW233344  11.966   6.333   4.456
10483SOL     OW33345   3.451  14.021   5.734
10483SOL    HW133346   3.358  14.003   5.724
10483SOL    HW233347   3.485  14.027   5.645
10484SOL     OW33348   6.249   1.380   7.401
10484SOL    HW133349   6.213   1.303   7.445
10484SOL    HW233350   6.289   1.432   7.471
10485SOL     OW33351  12.180  10.605   7.676
10485SOL    HW133352  12.129  10.537   7.720
10485SOL    HW233353  12.116  10.671   7.650
10486SOL     OW33354   1.286   0.459   8.398
10486SOL    HW133355   1.208   0.475   8.345
10486SOL    HW233356   1.303   0.365   8.387
10487SOL     OW33357   2.623  12.140  11.153
10487SOL    HW133358   2.604  12.221  11.107
10487SOL    HW233359   2.687  12.165  11.220
10488SOL     OW33360   0.605   6.025  14.790
10488SOL    HW133361   0.550   6.059  14.719
10488SOL    HW233362   0.622   6.101  14.846
10489SOL     OW33363   5.574  11.844   6.861
10489SOL    HW133364   5.659  11.879   6.833
10489SOL    HW233365   5.555  11.889   6.943
10490SOL     OW33366   6.162   4.448   2.047
10490SOL    HW133367   6.176   4.375   2.107
10490SOL    HW233368   6.151   4.524   2.105
10491SOL     OW33369   5.772   1.267   2.348
10491SOL    HW133370   5.769   1.325   2.424
10491SOL    HW233371   5.686   1.277   2.307
10492SOL     OW33372   4.758   6.041   4.258
10492SOL    HW133373   4.721   5.990   4.186
10492SOL    HW233374   4.852   6.023   4.253
10493SOL     OW33375   1.535  10.587   0.155
10493SOL    HW133376   1.479  10.654   0.194
10493SOL    HW233377   1.582  10.549   0.230
10494SOL     OW33378   9.814  14.181   3.191
10494SOL    HW133379   9.831  14.184   3.097
10494SOL    HW233380   9.894  14.143   3.229
10495SOL     OW33381   4.068   1.590   7.760
10495SOL    HW133382   4.000   1.547   7.708
10495SOL    HW233383   4.137   1.525   7.769
10496SOL     OW33384   4.016   4.956   9.322
10496SOL    HW133385   4.034   5.050   9.333
10496SOL    HW233386   3.957   4.952   9.246
10497SOL     OW33387  10.385  14.735   1.162
10497SOL    HW133388  10.426  14.811   1.203
10497SOL    HW233389  10.293  14.758   1.156
10498SOL     OW33390   3.244   5.587  14.687
10498SOL    HW133391   3.306   5.522  14.652
10498SOL    HW233392   3.298   5.646  14.740
10499SOL     OW33393  14.402   4.428  10.511
10499SOL    HW133394  14.366   4.502  10.462
10499SOL    HW233395  14.461   4.385  10.449
10500SOL     OW33396   8.180  13.413  12.656
10500SOL    HW133397   8.239  13.340  12.638
10500SOL    HW233398   8.092  13.375  12.645
10501SOL     OW33399   2.074  10.089  13.680
10501SOL    HW133400   2.047  10.155  13.616
10501SOL    HW233401   1.992  10.050  13.710
10502SOL     OW33402  14.270   5.689  13.043
10502SOL    HW133403  14.315   5.688  13.128
10502SOL    HW233404  14.183   5.722  13.063
10503SOL     OW33405   3.469   6.828   1.280
10503SOL    HW133406   3.509   6.851   1.196
10503SOL    HW233407   3.385   6.874   1.279
10504SOL     OW33408   3.319   1.711  13.040
10504SOL    HW133409   3.333   1.732  13.132
10504SOL    HW233410   3.299   1.795  12.999
10505SOL     OW33411   5.603   6.966   8.547
10505SOL    HW133412   5.652   6.979   8.629
10505SOL    HW233413   5.513   6.951   8.575
10506SOL     OW33414   9.177   4.185  10.953
10506SOL    HW133415   9.159   4.108  11.007
10506SOL    HW233416   9.181   4.152  10.864
10507SOL     OW33417   2.540  11.512   2.834
10507SOL    HW133418   2.455  11.556   2.843
10507SOL    HW233419   2.517  11.421   2.817
10508SOL     OW33420   3.519   9.937   8.362
10508SOL    HW133421   3.517   9.841   8.357
10508SOL    HW233422   3.608   9.958   8.392
10509SOL     OW33423  13.834   6.151   7.911
10509SOL    HW133424  13.915   6.186   7.948
10509SOL    HW233425  13.858   6.063   7.882
10510SOL     OW33426  14.803  10.455  13.690
10510SOL    HW133427  14.741  10.438  13.760
10510SOL    HW233428  14.755  10.508  13.627
10511SOL     OW33429   9.534   0.353  11.447
10511SOL    HW133430   9.459   0.301  11.418
10511SOL    HW233431   9.500   0.405  11.520
10512SOL     OW33432   1.698   3.898   6.689
10512SOL    HW133433   1.682   3.990   6.709
10512SOL    HW233434   1.786   3.881   6.724
10513SOL     OW33435   8.813   2.821   8.816
10513SOL    HW133436   8.738   2.880   8.811
10513SOL    HW233437   8.886   2.877   8.844
10514SOL     OW33438   2.296   0.528   2.245
10514SOL    HW133439   2.266   0.486   2.165
10514SOL    HW233440   2.227   0.591   2.267
10515SOL     OW33441   5.704  13.066   5.690
10515SOL    HW133442   5.667  12.985   5.726
10515SOL    HW233443   5.629  13.124   5.682
10516SOL     OW33444  10.523   1.652   2.942
10516SOL    HW133445  10.477   1.606   2.872
10516SOL    HW233446  10.582   1.712   2.897
10517SOL     OW33447   1.563   1.454   2.015
10517SOL    HW133448   1.611   1.372   2.029
10517SOL    HW233449   1.515   1.440   1.934
10518SOL     OW33450   5.730  14.519  14.660
10518SOL    HW133451   5.712  14.505  14.567
10518SOL    HW233452   5.668  14.587  14.687
10519SOL     OW33453   0.157   6.683   8.974
10519SOL    HW133454   0.128   6.606   9.023
10519SOL    HW233455   0.235   6.653   8.927
10520SOL     OW33456  13.351  10.276  13.347
10520SOL    HW133457  13.386  10.240  13.265
10520SOL    HW233458  13.399  10.358  13.359
10521SOL     OW33459   6.385  11.503   1.866
10521SOL    HW133460   6.297  11.484   1.900
10521SOL    HW233461   6.444  11.468   1.933
10522SOL     OW33462  11.663  12.379  10.940
10522SOL    HW133463  11.742  12.354  10.891
10522SOL    HW233464  11.614  12.434  10.879
10523SOL     OW33465   5.667  12.378   7.751
10523SOL    HW133466   5.661  12.285   7.729
10523SOL    HW233467   5.658  12.380   7.847
10524SOL     OW33468   5.964  10.863   2.483
10524SOL    HW133469   6.034  10.874   2.547
10524SOL    HW233470   5.903  10.935   2.502
10525SOL     OW33471  13.076   9.032   4.881
10525SOL    HW133472  13.040   9.113   4.915
10525SOL    HW233473  13.114   9.056   4.797
10526SOL     OW33474  12.882   0.574   7.954
10526SOL    HW133475  12.973   0.561   7.928
10526SOL    HW233476  12.834   0.502   7.913
10527SOL     OW33477  13.541  12.575  13.114
10527SOL    HW133478  13.491  12.502  13.150
10527SOL    HW233479  13.558  12.633  13.188
10528SOL     OW33480   5.016  13.524  13.121
10528SOL    HW133481   4.927  13.500  13.147
10528SOL    HW233482   5.061  13.440  13.112
10529SOL     OW33483   9.740   8.779   4.209
10529SOL    HW133484   9.703   8.727   4.281
10529SOL    HW233485   9.728   8.870   4.237
10530SOL     OW33486   5.866   6.434   3.793
10530SOL    HW133487   5.794   6.439   3.856
10530SOL    HW233488   5.823   6.433   3.708
10531SOL     OW33489   1.156   9.385  14.326
10531SOL    HW133490   1.111   9.306  14.355
10531SOL    HW233491   1.200   9.359  14.245
10532SOL     OW33492   5.391   3.568   4.421
10532SOL    HW133493   5.380   3.594   4.330
10532SOL    HW233494   5.486   3.555   4.431
10533SOL     OW33495  10.859   8.487   4.138
10533SOL    HW133496  10.808   8.410   4.162
10533SOL    HW233497  10.816   8.521   4.060
10534SOL     OW33498  10.168   1.582   8.662
10534SOL    HW133499  10.161   1.601   8.568
10534SOL    HW233500  10.250   1.622   8.689
10535SOL     OW33501  13.272   7.042  14.588
10535SOL    HW133502  13.364   7.018  14.573
10535SOL    HW233503  13.276   7.121  14.641
10536SOL     OW33504  14.203   6.921   5.456
10536SOL    HW133505  14.164   6.865   5.389
10536SOL    HW233506  14.127   6.959   5.502
10537SOL     OW33507   4.734   3.047  14.778
10537SOL    HW133508   4.680   3.006  14.846
10537SOL    HW233509   4.782   3.116  14.824
10538SOL     OW33510   3.549  11.977   3.900
10538SOL    HW133511   3.567  11.901   3.955
10538SOL    HW233512   3.585  12.051   3.948
10539SOL     OW33513  14.165  10.143  11.623
10539SOL    HW133514  14.090  10.087  11.604
10539SOL    HW233515  14.234  10.083  11.651
10540SOL     OW33516   4.745   9.204   0.592
10540SOL    HW133517   4.701   9.266   0.650
10540SOL    HW233518   4.827   9.246   0.569
10541SOL     OW33519  14.791   2.106   4.843
10541SOL    HW133520  14.764   2.034   4.900
10541SOL    HW233521  14.752   2.086   4.758
10542SOL     OW33522  11.527  12.667   2.641
10542SOL    HW133523  11.510  12.759   2.620
10542SOL    HW233524  11.451  12.639   2.691
10543SOL     OW33525  10.583   6.370   6.653
10543SOL    HW133526  10.532   6.451   6.656
10543SOL    HW233527  10.529   6.306   6.698
10544SOL     OW33528   7.713  11.123   6.311
10544SOL    HW133529   7.726  11.033   6.340
10544SOL    HW233530   7.669  11.166   6.384
10545SOL     OW33531   0.358   4.247  10.726
10545SOL    HW133532   0.352   4.257  10.821
10545SOL    HW233533   0.280   4.293  10.692
10546SOL     OW33534   8.233   3.633  10.551
10546SOL    HW133535   8.195   3.716  10.522
10546SOL    HW233536   8.325   3.653  10.567
10547SOL     OW33537  12.539   2.208  14.193
10547SOL    HW133538  12.574   2.238  14.109
10547SOL    HW233539  12.590   2.130  14.214
10548SOL     OW33540   7.105   3.442  12.580
10548SOL    HW133541   7.097   3.532  12.612
10548SOL    HW233542   7.186   3.410  12.619
10549SOL     OW33543   8.617   3.144  14.411
10549SOL    HW133544   8.593   3.236  14.410
10549SOL    HW233545   8.633   3.125  14.504
10550SOL     OW33546   3.366   3.328   1.343
10550SOL    HW133547   3.388   3.352   1.433
10550SOL    HW233548   3.450   3.328   1.297
10551SOL     OW33549   3.695   1.249   6.099
10551SOL    HW133550   3.772   1.196   6.119
10551SOL    HW233551   3.714   1.288   6.014
10552SOL     OW33552   9.283  13.563   9.905
10552SOL    HW133553   9.270  13.656   9.884
10552SOL    HW233554   9.322  13.564   9.993
10553SOL     OW33555  14.832   4.168   7.375
10553SOL    HW133556  14.843   4.239   7.438
10553SOL    HW233557  14.835   4.089   7.427
10554SOL     OW33558   6.013   6.356   4.343
10554SOL    HW133559   6.101   6.388   4.319
10554SOL    HW233560   6.011   6.266   4.312
10555SOL     OW33561   7.645  13.527   0.145
10555SOL    HW133562   7.627  13.557   0.056
10555SOL    HW233563   7.621  13.601   0.201
10556SOL     OW33564   5.011   4.703   6.214
10556SOL    HW133565   5.065   4.782   6.215
10556SOL    HW233566   5.024   4.664   6.300
10557SOL     OW33567   4.895  12.475   4.266
10557SOL    HW133568   4.859  12.412   4.203
10557SOL    HW233569   4.986  12.488   4.238
10558SOL     OW33570   8.236  14.362   2.935
10558SOL    HW133571   8.309  14.424   2.943
10558SOL    HW233572   8.261  14.288   2.992
10559SOL     OW33573   5.389  13.322   7.000
10559SOL    HW133574   5.462  13.317   6.937
10559SOL    HW233575   5.369  13.231   7.020
10560SOL     OW33576   7.944   1.180  13.123
10560SOL    HW133577   7.884   1.235  13.174
10560SOL    HW233578   7.889   1.109  13.091
10561SOL     OW33579   2.495   6.606   1.089
10561SOL    HW133580   2.536   6.692   1.080
10561SOL    HW233581   2.409   6.617   1.048
10562SOL     OW33582   2.642  14.776   0.622
10562SOL    HW133583   2.667  14.732   0.704
10562SOL    HW233584   2.554  14.742   0.603
10563SOL     OW33585   7.739   6.368  14.632
10563SOL    HW133586   7.750   6.462  14.643
10563SOL    HW233587   7.813   6.330  14.680
10564SOL     OW33588   8.986   1.773   5.809
10564SOL    HW133589   9.042   1.807   5.740
10564SOL    HW233590   9.001   1.678   5.808
10565SOL     OW33591  10.101   6.365   7.873
10565SOL    HW133592  10.007   6.363   7.854
10565SOL    HW233593  10.131   6.276   7.857
10566SOL     OW33594   7.877   8.362   1.351
10566SOL    HW133595   7.786   8.377   1.374
10566SOL    HW233596   7.884   8.391   1.260
10567SOL     OW33597   5.049   3.765  13.448
10567SOL    HW133598   5.034   3.719  13.366
10567SOL    HW233599   5.141   3.791  13.445
10568SOL     OW33600  13.754  14.404   9.422
10568SOL    HW133601  13.704  14.470   9.471
10568SOL    HW233602  13.829  14.452   9.388
10569SOL     OW33603   8.907   9.363   6.073
10569SOL    HW133604   8.883   9.272   6.088
10569SOL    HW233605   8.849   9.413   6.130
10570SOL     OW33606   9.103   8.536   7.223
10570SOL    HW133607   9.178   8.547   7.281
10570SOL    HW233608   9.141   8.519   7.137
10571SOL     OW33609   6.439   2.473  12.480
10571SOL    HW133610   6.404   2.528  12.410
10571SOL    HW233611   6.474   2.397  12.436
10572SOL     OW33612   1.062   7.993   3.244
10572SOL    HW133613   1.071   8.078   3.201
10572SOL    HW233614   0.978   7.959   3.214
10573SOL     OW33615   2.711  11.466  13.601
10573SOL    HW133616   2.759  11.466  13.684
10573SOL    HW233617   2.693  11.559  13.584
10574SOL     OW33618  13.907  12.298   0.844
10574SOL    HW133619  13.915  12.225   0.783
10574SOL    HW233620  13.887  12.257   0.928
10575SOL     OW33621  10.352   7.053   8.193
10575SOL    HW133622  10.273   7.088   8.152
10575SOL    HW233623  10.346   7.081   8.284
10576SOL     OW33624   7.873   9.492   8.337
10576SOL    HW133625   7.846   9.474   8.247
10576SOL    HW233626   7.791   9.499   8.386
10577SOL     OW33627   7.635   1.865   2.538
10577SOL    HW133628   7.726   1.895   2.526
10577SOL    HW233629   7.582   1.943   2.521
10578SOL     OW33630  13.034   4.578   7.518
10578SOL    HW133631  13.013   4.662   7.558
10578SOL    HW233632  12.950   4.533   7.512
10579SOL     OW33633   0.436   2.146  13.556
10579SOL    HW133634   0.404   2.220  13.607
10579SOL    HW233635   0.451   2.077  13.620
10580SOL     OW33636  11.471   0.368   4.279
10580SOL    HW133637  11.487   0.446   4.331
10580SOL    HW233638  11.507   0.388   4.193
10581SOL     OW33639   8.737   6.690  11.662
10581SOL    HW133640   8.758   6.782  11.649
10581SOL    HW233641   8.661   6.674  11.605
10582SOL     OW33642   1.772  14.323   6.425
10582SOL    HW133643   1.746  14.236   6.457
10582SOL    HW233644   1.745  14.383   6.495
10583SOL     OW33645   3.552   2.669  13.362
10583SOL    HW133646   3.473   2.716  13.336
10583SOL    HW233647   3.602   2.659  13.281
10584SOL     OW33648   9.190   1.431   5.437
10584SOL    HW133649   9.160   1.472   5.357
10584SOL    HW233650   9.284   1.444   5.438
10585SOL     OW33651   0.078  13.329   7.169
10585SOL    HW133652   0.084  13.396   7.237
10585SOL    HW233653   0.167  13.316   7.138
10586SOL     OW33654   1.349   1.463   1.220
10586SOL    HW133655   1.279   1.493   1.162
10586SOL    HW233656   1.384   1.543   1.259
10587SOL     OW33657   9.519   8.397  14.405
10587SOL    HW133658   9.526   8.427  14.314
10587SOL    HW233659   9.476   8.469  14.451
10588SOL     OW33660  11.348   0.244   8.817
10588SOL    HW133661  11.373   0.289   8.736
10588SOL    HW233662  11.270   0.290   8.847
10589SOL     OW33663   6.313  13.972  13.991
10589SOL    HW133664   6.266  13.946  13.912
10589SOL    HW233665   6.295  14.065  14.000
10590SOL     OW33666   6.975  14.252   2.546
10590SOL    HW133667   7.016  14.299   2.619
10590SOL    HW233668   7.021  14.283   2.468
10591SOL     OW33669  14.805   4.968   5.877
10591SOL    HW133670  14.812   4.974   5.972
10591SOL    HW233671  14.712   4.961   5.859
10592SOL     OW33672   2.410  14.304   2.715
10592SOL    HW133673   2.435  14.240   2.781
10592SOL    HW233674   2.427  14.389   2.756
10593SOL     OW33675   3.278   7.414   2.501
10593SOL    HW133676   3.369   7.383   2.495
10593SOL    HW233677   3.286   7.509   2.514
10594SOL     OW33678   1.280   9.032  10.963
10594SOL    HW133679   1.242   8.995  11.043
10594SOL    HW233680   1.369   8.998  10.960
10595SOL     OW33681   1.198   2.295   2.120
10595SOL    HW133682   1.176   2.216   2.072
10595SOL    HW233683   1.133   2.360   2.092
10596SOL     OW33684  10.337  13.480  10.765
10596SOL    HW133685  10.299  13.489  10.853
10596SOL    HW233686  10.263  13.490  10.706
10597SOL     OW33687   7.775  12.195   1.228
10597SOL    HW133688   7.683  12.169   1.235
10597SOL    HW233689   7.800  12.219   1.318
10598SOL     OW33690   6.136   4.848   6.348
10598SOL    HW133691   6.082   4.789   6.401
10598SOL    HW233692   6.111   4.936   6.376
10599SOL     OW33693   3.289   1.301  10.980
10599SOL    HW133694   3.329   1.252  11.053
10599SOL    HW233695   3.363   1.343  10.937
10600SOL     OW33696   7.439   6.819  10.851
10600SOL    HW133697   7.509   6.864  10.899
10600SOL    HW233698   7.372   6.804  10.917
10601SOL     OW33699   0.222   6.280  12.616
10601SOL    HW133700   0.316   6.263  12.612
10601SOL    HW233701   0.196   6.287  12.524
10602SOL     OW33702  12.684  10.689  13.729
10602SOL    HW133703  12.610  10.744  13.704
10602SOL    HW233704  12.705  10.718  13.818
10603SOL     OW33705  11.213  11.164  12.394
10603SOL    HW133706  11.160  11.088  12.419
10603SOL    HW233707  11.152  11.221  12.347
10604SOL     OW33708   7.474   7.625  11.729
10604SOL    HW133709   7.545   7.678  11.694
10604SOL    HW233710   7.510   7.536  11.735
10605SOL     OW33711   2.611   5.052   7.176
10605SOL    HW133712   2.634   5.036   7.085
10605SOL    HW233713   2.679   5.007   7.226
10606SOL     OW33714   1.673   7.587   1.106
10606SOL    HW133715   1.681   7.593   1.202
10606SOL    HW233716   1.585   7.618   1.087
10607SOL     OW33717   1.761   2.850  10.738
10607SOL    HW133718   1.843   2.804  10.721
10607SOL    HW233719   1.771   2.933  10.692
10608SOL     OW33720   6.485   3.988   3.608
10608SOL    HW133721   6.437   4.057   3.655
10608SOL    HW233722   6.519   4.032   3.530
10609SOL     OW33723   6.381   5.871  12.244
10609SOL    HW133724   6.353   5.900  12.157
10609SOL    HW233725   6.458   5.817  12.228
10610SOL     OW33726   1.176   3.206  14.157
10610SOL    HW133727   1.265   3.234  14.181
10610SOL    HW233728   1.134   3.185  14.240
10611SOL     OW33729   6.320   2.161  11.520
10611SOL    HW133730   6.288   2.099  11.454
10611SOL    HW233731   6.410   2.181  11.493
10612SOL     OW33732   2.164  11.742   8.571
10612SOL    HW133733   2.194  11.707   8.487
10612SOL    HW233734   2.237  11.796   8.602
10613SOL     OW33735   8.636   7.026  11.473
10613SOL    HW133736   8.660   7.089  11.405
10613SOL    HW233737   8.553   7.059  11.508
10614SOL     OW33738   0.777   5.280  14.013
10614SOL    HW133739   0.825   5.311  14.091
10614SOL    HW233740   0.796   5.345  13.946
10615SOL     OW33741   2.119  10.570   4.074
10615SOL    HW133742   2.158  10.482   4.081
10615SOL    HW233743   2.026  10.554   4.065
10616SOL     OW33744  11.229   4.095  14.819
10616SOL    HW133745  11.294   4.065   0.012
10616SOL    HW233746  11.189   4.015  14.786
10617SOL     OW33747   6.193   7.443   2.567
10617SOL    HW133748   6.206   7.437   2.473
10617SOL    HW233749   6.124   7.509   2.577
10618SOL     OW33750   5.103   9.811   6.219
10618SOL    HW133751   5.143   9.898   6.214
10618SOL    HW233752   5.009   9.828   6.222
10619SOL     OW33753   4.844   1.663   6.206
10619SOL    HW133754   4.830   1.635   6.115
10619SOL    HW233755   4.811   1.590   6.259
10620SOL     OW33756   5.225   3.783   5.161
10620SOL    HW133757   5.144   3.739   5.135
10620SOL    HW233758   5.196   3.864   5.202
10621SOL     OW33759  11.517   1.653   3.161
10621SOL    HW133760  11.574   1.716   3.117
10621SOL    HW233761  11.577   1.603   3.217
10622SOL     OW33762  10.315   6.032   3.853
10622SOL    HW133763  10.233   5.984   3.841
10622SOL    HW233764  10.352   5.997   3.934
10623SOL     OW33765  14.532  11.870  12.342
10623SOL    HW133766  14.627  11.860  12.346
10623SOL    HW233767  14.498  11.797  12.394
10624SOL     OW33768  14.341   6.768   3.944
10624SOL    HW133769  14.372   6.760   3.854
10624SOL    HW233770  14.419   6.789   3.995
10625SOL     OW33771  11.033   1.129   3.800
10625SOL    HW133772  11.099   1.105   3.735
10625SOL    HW233773  11.077   1.119   3.884
10626SOL     OW33774   8.604   0.201  10.029
10626SOL    HW133775   8.691   0.217   9.994
10626SOL    HW233776   8.572   0.124   9.982
10627SOL     OW33777  10.049   7.019   4.770
10627SOL    HW133778   9.953   7.018   4.772
10627SOL    HW233779  10.071   7.101   4.726
10628SOL     OW33780   9.759  13.413   8.892
10628SOL    HW133781   9.750  13.489   8.835
10628SOL    HW233782   9.691  13.353   8.863
10629SOL     OW33783   1.502   8.347   4.025
10629SOL    HW133784   1.498   8.397   4.107
10629SOL    HW233785   1.433   8.281   4.034
10630SOL     OW33786   7.775   4.290   8.093
10630SOL    HW133787   7.689   4.329   8.103
10630SOL    HW233788   7.806   4.322   8.008
10631SOL     OW33789   5.248   1.110   3.971
10631SOL    HW133790   5.310   1.052   3.928
10631SOL    HW233791   5.198   1.149   3.900
10632SOL     OW33792   2.057  12.584   5.633
10632SOL    HW133793   2.152  12.575   5.638
10632SOL    HW233794   2.039  12.669   5.673
10633SOL     OW33795   3.556   7.471  11.244
10633SOL    HW133796   3.482   7.444  11.190
10633SOL    HW233797   3.632   7.430  11.203
10634SOL     OW33798   8.295   3.046   8.398
10634SOL    HW133799   8.236   2.993   8.346
10634SOL    HW233800   8.305   3.127   8.348
10635SOL     OW33801   8.526  13.740   0.303
10635SOL    HW133802   8.550  13.826   0.336
10635SOL    HW233803   8.453  13.712   0.358
10636SOL     OW33804  14.444  13.040   9.274
10636SOL    HW133805  14.407  13.120   9.312
10636SOL    HW233806  14.488  13.068   9.195
10637SOL     OW33807   3.992  11.104  10.936
10637SOL    HW133808   3.978  11.020  10.980
10637SOL    HW233809   4.003  11.166  11.007
10638SOL     OW33810   6.305   0.055   2.186
10638SOL    HW133811   6.343   0.001   2.117
10638SOL    HW233812   6.215   0.071   2.158
10639SOL     OW33813  13.867  11.658   4.831
10639SOL    HW133814  13.910  11.592   4.886
10639SOL    HW233815  13.927  11.733   4.832
10640SOL     OW33816   9.445   6.142   9.676
10640SOL    HW133817   9.368   6.150   9.731
10640SOL    HW233818   9.510   6.200   9.716
10641SOL     OW33819   5.935   1.322   2.142
10641SOL    HW133820   5.875   1.304   2.214
10641SOL    HW233821   5.983   1.400   2.169
10642SOL     OW33822   1.208   4.932   8.252
10642SOL    HW133823   1.247   4.846   8.238
10642SOL    HW233824   1.259   4.991   8.196
10643SOL     OW33825  14.206  13.408  13.456
10643SOL    HW133826  14.209  13.319  13.422
10643SOL    HW233827  14.160  13.400  13.539
10644SOL     OW33828   1.116  11.601   4.919
10644SOL    HW133829   1.196  11.551   4.900
10644SOL    HW233830   1.045  11.539   4.899
10645SOL     OW33831   3.342  12.678  12.908
10645SOL    HW133832   3.275  12.705  12.971
10645SOL    HW233833   3.423  12.675  12.959
10646SOL     OW33834   6.523   6.849  11.718
10646SOL    HW133835   6.472   6.769  11.728
10646SOL    HW233836   6.503   6.900  11.797
10647SOL     OW33837  12.734   5.516  12.676
10647SOL    HW133838  12.821   5.518  12.714
10647SOL    HW233839  12.722   5.425  12.648
10648SOL     OW33840   4.579   8.632   2.604
10648SOL    HW133841   4.517   8.570   2.566
10648SOL    HW233842   4.665   8.596   2.581
10649SOL     OW33843   4.350   7.556   1.432
10649SOL    HW133844   4.315   7.490   1.492
10649SOL    HW233845   4.443   7.560   1.452
10650SOL     OW33846   2.556   7.140  12.201
10650SOL    HW133847   2.587   7.229  12.184
10650SOL    HW233848   2.514   7.113  12.120
10651SOL     OW33849  12.105  13.616   8.337
10651SOL    HW133850  12.156  13.620   8.418
10651SOL    HW233851  12.155  13.670   8.275
10652SOL     OW33852  13.081   8.590  12.122
10652SOL    HW133853  13.110   8.579  12.212
10652SOL    HW233854  13.078   8.685  12.109
10653SOL     OW33855  10.693  11.558   0.029
10653SOL    HW133856  10.743  11.631   0.066
10653SOL    HW233857  10.602  11.580   0.047
10654SOL     OW33858  10.283   3.583   2.679
10654SOL    HW133859  10.242   3.647   2.737
10654SOL    HW233860  10.302   3.507   2.735
10655SOL     OW33861  13.664   6.560   6.659
10655SOL    HW133862  13.569   6.575   6.662
10655SOL    HW233863  13.686   6.536   6.749
10656SOL     OW33864  10.059  14.532  10.753
10656SOL    HW133865   9.968  14.520  10.728
10656SOL    HW233866  10.103  14.553  10.670
10657SOL     OW33867   0.616   0.978   5.454
10657SOL    HW133868   0.656   0.892   5.438
10657SOL    HW233869   0.599   0.979   5.548
10658SOL     OW33870   3.899  11.813   8.432
10658SOL    HW133871   3.874  11.768   8.351
10658SOL    HW233872   3.855  11.898   8.427
10659SOL     OW33873   0.240   8.732  11.193
10659SOL    HW133874   0.333   8.758  11.190
10659SOL    HW233875   0.220   8.725  11.286
10660SOL     OW33876  10.221   3.397  13.536
10660SOL    HW133877  10.269   3.383  13.455
10660SOL    HW233878  10.279   3.452  13.589
10661SOL     OW33879  10.773  13.254   1.264
10661SOL    HW133880  10.712  13.250   1.338
10661SOL    HW233881  10.773  13.346   1.238
10662SOL     OW33882   0.131  10.664  11.729
10662SOL    HW133883   0.070  10.733  11.704
10662SOL    HW233884   0.187  10.652  11.652
10663SOL     OW33885  10.616   3.889   6.187
10663SOL    HW133886  10.579   3.966   6.144
10663SOL    HW233887  10.631   3.918   6.278
10664SOL     OW33888   6.066  14.505   2.125
10664SOL    HW133889   5.997  14.570   2.134
10664SOL    HW233890   6.141  14.555   2.093
10665SOL     OW33891   2.231   8.038  11.576
10665SOL    HW133892   2.205   8.114  11.628
10665SOL    HW233893   2.246   8.073  11.488
10666SOL     OW33894  12.239  12.980   3.678
10666SOL    HW133895  12.257  13.065   3.638
10666SOL    HW233896  12.246  12.996   3.772
10667SOL     OW33897  10.918   9.506  10.098
10667SOL    HW133898  10.985   9.546  10.042
10667SOL    HW233899  10.839   9.507  10.044
10668SOL     OW33900   4.784   0.191   0.125
10668SOL    HW133901   4.842   0.146   0.063
10668SOL    HW233902   4.783   0.134   0.202
10669SOL     OW33903   3.168   0.847  11.114
10669SOL    HW133904   3.255   0.848  11.156
10669SOL    HW233905   3.142   0.755  11.116
10670SOL     OW33906  12.321  14.535  11.046
10670SOL    HW133907  12.366  14.605  10.998
10670SOL    HW233908  12.379  14.516  11.120
10671SOL     OW33909   7.324  11.825   4.522
10671SOL    HW133910   7.359  11.892   4.581
10671SOL    HW233911   7.276  11.874   4.455
10672SOL     OW33912   6.608  11.897   9.326
10672SOL    HW133913   6.538  11.836   9.301
10672SOL    HW233914   6.631  11.872   9.415
10673SOL     OW33915   3.214   5.622   2.966
10673SOL    HW133916   3.221   5.532   2.999
10673SOL    HW233917   3.213   5.612   2.870
10674SOL     OW33918   2.690   5.299   8.271
10674SOL    HW133919   2.756   5.337   8.330
10674SOL    HW233920   2.693   5.354   8.193
10675SOL     OW33921  14.096   1.245   3.995
10675SOL    HW133922  14.104   1.298   3.916
10675SOL    HW233923  14.078   1.308   4.064
10676SOL     OW33924   4.636   0.039  10.703
10676SOL    HW133925   4.650  14.864  10.620
10676SOL    HW233926   4.598   0.124  10.679
10677SOL     OW33927  10.660   0.664  11.548
10677SOL    HW133928  10.593   0.688  11.611
10677SOL    HW233929  10.721   0.608  11.596
10678SOL     OW33930   1.419   8.174  12.594
10678SOL    HW133931   1.416   8.262  12.557
10678SOL    HW233932   1.441   8.117  12.520
10679SOL     OW33933   6.915  11.296   8.133
10679SOL    HW133934   6.903  11.282   8.039
10679SOL    HW233935   6.872  11.379   8.150
10680SOL     OW33936   8.919   6.080   2.326
10680SOL    HW133937   8.830   6.068   2.291
10680SOL    HW233938   8.938   6.172   2.311
10681SOL     OW33939  11.519   0.514   1.113
10681SOL    HW133940  11.495   0.517   1.020
10681SOL    HW233941  11.519   0.606   1.141
10682SOL     OW33942   7.457  13.658   7.051
10682SOL    HW133943   7.485  13.577   7.009
10682SOL    HW233944   7.408  13.705   6.983
10683SOL     OW33945  13.732   4.078   8.876
10683SOL    HW133946  13.664   4.041   8.819
10683SOL    HW233947  13.732   4.022   8.954
10684SOL     OW33948  11.185   2.959   1.911
10684SOL    HW133949  11.172   3.039   1.962
10684SOL    HW233950  11.229   2.899   1.971
10685SOL     OW33951   8.304   0.435  11.734
10685SOL    HW133952   8.292   0.513  11.679
10685SOL    HW233953   8.295   0.467  11.824
10686SOL     OW33954   0.507   7.688  10.844
10686SOL    HW133955   0.569   7.755  10.871
10686SOL    HW233956   0.482   7.644  10.925
10687SOL     OW33957   5.369   7.493   4.918
10687SOL    HW133958   5.389   7.542   4.839
10687SOL    HW233959   5.454   7.479   4.960
10688SOL     OW33960   5.803   7.176  11.569
10688SOL    HW133961   5.728   7.127  11.535
10688SOL    HW233962   5.787   7.267  11.542
10689SOL     OW33963   1.990   6.018   1.397
10689SOL    HW133964   1.992   5.925   1.373
10689SOL    HW233965   1.991   6.018   1.493
10690SOL     OW33966   2.071  12.382   9.663
10690SOL    HW133967   2.087  12.437   9.740
10690SOL    HW233968   1.988  12.339   9.682
10691SOL     OW33969  14.316  13.424  11.287
10691SOL    HW133970  14.326  13.463  11.374
10691SOL    HW233971  14.252  13.354  11.300
10692SOL     OW33972   2.528   7.408   7.331
10692SOL    HW133973   2.554   7.367   7.248
10692SOL    HW233974   2.445   7.451   7.312
10693SOL     OW33975   4.778   8.060   8.824
10693SOL    HW133976   4.815   8.011   8.897
10693SOL    HW233977   4.790   8.002   8.748
10694SOL     OW33978   2.035   1.091   6.706
10694SOL    HW133979   1.980   1.042   6.766
10694SOL    HW233980   2.004   1.067   6.619
10695SOL     OW33981  11.540   5.189   6.617
10695SOL    HW133982  11.565   5.136   6.541
10695SOL    HW233983  11.455   5.155   6.643
10696SOL     OW33984   0.616  14.689   7.387
10696SOL    HW133985   0.545  14.722   7.443
10696SOL    HW233986   0.572  14.635   7.322
10697SOL     OW33987   5.056   0.616  14.370
10697SOL    HW133988   5.114   0.544  14.347
10697SOL    HW233989   5.062   0.621  14.466
10698SOL     OW33990   8.014   4.093  10.258
10698SOL    HW133991   7.976   4.014  10.219
10698SOL    HW233992   7.985   4.164  10.201
10699SOL     OW33993  13.560  13.582   0.413
10699SOL    HW133994  13.474  13.594   0.373
10699SOL    HW233995  13.616  13.550   0.342
10700SOL     OW33996   7.074  12.073   8.376
10700SOL    HW133997   7.051  12.007   8.441
10700SOL    HW233998   7.067  12.156   8.422
10701SOL     OW33999   4.675   4.382   8.053
10701SOL    HW134000   4.607   4.444   8.026
10701SOL    HW234001   4.655   4.363   8.144
10702SOL     OW34002   0.358   7.009   9.008
10702SOL    HW134003   0.311   6.989   8.927
10702SOL    HW234004   0.378   7.102   9.002
10703SOL     OW34005   1.325   9.092   5.294
10703SOL    HW134006   1.258   9.111   5.229
10703SOL    HW234007   1.356   9.178   5.322
10704SOL     OW34008   5.252   9.935  11.652
10704SOL    HW134009   5.315   9.959  11.584
10704SOL    HW234010   5.290   9.856  11.692
10705SOL     OW34011   7.544   5.477   0.073
10705SOL    HW134012   7.559   5.492   0.166
10705SOL    HW234013   7.469   5.532   0.052
10706SOL     OW34014   9.793   1.192   5.816
10706SOL    HW134015   9.716   1.216   5.764
10706SOL    HW234016   9.861   1.254   5.788
10707SOL     OW34017   9.811   1.736  10.963
10707SOL    HW134018   9.745   1.678  11.001
10707SOL    HW234019   9.884   1.733  11.026
10708SOL     OW34020   2.197   1.050  13.321
10708SOL    HW134021   2.285   1.052  13.359
10708SOL    HW234022   2.161   0.966  13.350
10709SOL     OW34023   8.163  10.146  13.901
10709SOL    HW134024   8.137  10.237  13.890
10709SOL    HW234025   8.250  10.141  13.862
10710SOL     OW34026  12.447  12.791   3.768
10710SOL    HW134027  12.393  12.821   3.695
10710SOL    HW234028  12.384  12.767   3.836
10711SOL     OW34029   3.519  14.838   2.748
10711SOL    HW134030   3.518  14.782   2.669
10711SOL    HW234031   3.578   0.040   2.725
10712SOL     OW34032   8.181   7.857  13.305
10712SOL    HW134033   8.205   7.920  13.373
10712SOL    HW234034   8.263   7.811  13.285
10713SOL     OW34035   1.741   7.324   0.474
10713SOL    HW134036   1.696   7.258   0.421
10713SOL    HW234037   1.810   7.358   0.417
10714SOL     OW34038   4.476  12.717   4.612
10714SOL    HW134039   4.393  12.677   4.585
10714SOL    HW234040   4.493  12.784   4.546
10715SOL     OW34041   9.217   2.147   2.727
10715SOL    HW134042   9.153   2.135   2.797
10715SOL    HW234043   9.176   2.210   2.668
10716SOL     OW34044   0.296   5.883   8.245
10716SOL    HW134045   0.260   5.879   8.334
10716SOL    HW234046   0.304   5.976   8.226
10717SOL     OW34047   3.715   3.926   4.254
10717SOL    HW134048   3.702   4.019   4.272
10717SOL    HW234049   3.629   3.886   4.269
10718SOL     OW34050   6.215   5.473   6.811
10718SOL    HW134051   6.122   5.455   6.800
10718SOL    HW234052   6.258   5.388   6.798
10719SOL     OW34053   8.609  14.712   1.594
10719SOL    HW134054   8.666  14.716   1.517
10719SOL    HW234055   8.585  14.620   1.601
10720SOL     OW34056   3.473   5.576   2.615
10720SOL    HW134057   3.383   5.551   2.636
10720SOL    HW234058   3.468   5.614   2.528
10721SOL     OW34059   9.739  13.302  12.654
10721SOL    HW134060   9.687  13.222  12.663
10721SOL    HW234061   9.702  13.363  12.718
10722SOL     OW34062   5.727   2.025   3.191
10722SOL    HW134063   5.762   2.046   3.105
10722SOL    HW234064   5.662   2.094   3.209
10723SOL     OW34065   9.944   7.104   3.768
10723SOL    HW134066  10.010   7.140   3.827
10723SOL    HW234067   9.936   7.012   3.795
10724SOL     OW34068  10.053   9.192  11.337
10724SOL    HW134069  10.101   9.136  11.275
10724SOL    HW234070  10.108   9.269  11.348
10725SOL     OW34071   9.114   5.263   0.352
10725SOL    HW134072   9.110   5.235   0.261
10725SOL    HW234073   9.027   5.299   0.370
10726SOL     OW34074   8.366   5.556   0.250
10726SOL    HW134075   8.299   5.553   0.181
10726SOL    HW234076   8.425   5.627   0.222
10727SOL     OW34077   6.081   4.129   9.911
10727SOL    HW134078   6.145   4.198   9.929
10727SOL    HW234079   5.997   4.166   9.940
10728SOL     OW34080   7.910  11.708  12.209
10728SOL    HW134081   7.843  11.750  12.264
10728SOL    HW234082   7.916  11.765  12.132
10729SOL     OW34083   7.549   6.941   1.771
10729SOL    HW134084   7.489   6.866   1.764
10729SOL    HW234085   7.499   7.007   1.819
10730SOL     OW34086   7.439   9.255   7.641
10730SOL    HW134087   7.501   9.193   7.682
10730SOL    HW234088   7.424   9.321   7.708
10731SOL     OW34089   6.272   0.868   1.671
10731SOL    HW134090   6.246   0.776   1.680
10731SOL    HW234091   6.315   0.872   1.586
10732SOL     OW34092   0.518  13.313  10.348
10732SOL    HW134093   0.564  13.277  10.424
10732SOL    HW234094   0.484  13.397  10.379
10733SOL     OW34095   9.129   6.779  14.229
10733SOL    HW134096   9.102   6.793  14.320
10733SOL    HW234097   9.144   6.867  14.194
10734SOL     OW34098   7.860   2.870   5.681
10734SOL    HW134099   7.937   2.924   5.695
10734SOL    HW234100   7.786   2.931   5.688
10735SOL     OW34101  13.740   3.210   1.661
10735SOL    HW134102  13.686   3.255   1.596
10735SOL    HW234103  13.721   3.255   1.743
10736SOL     OW34104   0.795   0.642  13.586
10736SOL    HW134105   0.738   0.580  13.634
10736SOL    HW234106   0.789   0.723  13.637
10737SOL     OW34107   3.150   5.839  10.011
10737SOL    HW134108   3.236   5.802   9.994
10737SOL    HW234109   3.152   5.925   9.970
10738SOL     OW34110  12.234   3.104   1.453
10738SOL    HW134111  12.168   3.083   1.519
10738SOL    HW234112  12.285   3.175   1.492
10739SOL     OW34113   7.261   9.152   1.016
10739SOL    HW134114   7.275   9.114   1.102
10739SOL    HW234115   7.178   9.115   0.987
10740SOL     OW34116   2.849   9.753   2.599
10740SOL    HW134117   2.755   9.770   2.608
10740SOL    HW234118   2.859   9.662   2.626
10741SOL     OW34119   0.216   4.616  13.020
10741SOL    HW134120   0.290   4.630  13.079
10741SOL    HW234121   0.140   4.645  13.070
10742SOL     OW34122   4.756   4.739   7.493
10742SOL    HW134123   4.847   4.760   7.513
10742SOL    HW234124   4.729   4.804   7.428
10743SOL     OW34125   3.730  13.864  10.439
10743SOL    HW134126   3.784  13.789  10.416
10743SOL    HW234127   3.746  13.928  10.370
10744SOL     OW34128   8.067   4.170   2.442
10744SOL    HW134129   8.102   4.254   2.411
10744SOL    HW234130   7.972   4.180   2.434
10745SOL     OW34131  10.526  10.266  12.985
10745SOL    HW134132  10.594  10.232  13.043
10745SOL    HW234133  10.444  10.233  13.022
10746SOL     OW34134  12.928   5.937   6.780
10746SOL    HW134135  12.876   6.018   6.780
10746SOL    HW234136  13.012   5.963   6.741
10747SOL     OW34137   5.367   7.132   2.486
10747SOL    HW134138   5.383   7.169   2.399
10747SOL    HW234139   5.387   7.203   2.546
10748SOL     OW34140  11.788   3.342   6.133
10748SOL    HW134141  11.735   3.414   6.100
10748SOL    HW234142  11.878   3.367   6.111
10749SOL     OW34143   5.919   3.458   8.357
10749SOL    HW134144   5.941   3.530   8.417
10749SOL    HW234145   5.942   3.379   8.405
10750SOL     OW34146   2.353   3.845   9.012
10750SOL    HW134147   2.403   3.817   9.088
10750SOL    HW234148   2.272   3.882   9.048
10751SOL     OW34149  14.252   8.041  10.862
10751SOL    HW134150  14.251   8.106  10.933
10751SOL    HW234151  14.286   7.962  10.903
10752SOL     OW34152   6.356   4.530   7.927
10752SOL    HW134153   6.299   4.491   7.861
10752SOL    HW234154   6.398   4.604   7.883
10753SOL     OW34155  14.861   4.173   3.079
10753SOL    HW134156   0.064   4.146   3.023
10753SOL    HW234157  14.786   4.123   3.046
10754SOL     OW34158  10.660   6.707  13.961
10754SOL    HW134159  10.615   6.674  14.039
10754SOL    HW234160  10.733   6.647  13.949
10755SOL     OW34161  12.092   0.883   6.593
10755SOL    HW134162  12.148   0.961   6.598
10755SOL    HW234163  12.147   0.817   6.553
10756SOL     OW34164   4.560  12.353   3.666
10756SOL    HW134165   4.551  12.371   3.573
10756SOL    HW234166   4.470  12.337   3.696
10757SOL     OW34167   3.285   3.757   3.756
10757SOL    HW134168   3.356   3.767   3.693
10757SOL    HW234169   3.324   3.779   3.840
10758SOL     OW34170   6.445  13.144   0.534
10758SOL    HW134171   6.380  13.093   0.583
10758SOL    HW234172   6.524  13.137   0.587
10759SOL     OW34173   8.321  12.990  12.130
10759SOL    HW134174   8.354  12.908  12.164
10759SOL    HW234175   8.229  12.973  12.109
10760SOL     OW34176  10.814   9.449   6.232
10760SOL    HW134177  10.830   9.518   6.168
10760SOL    HW234178  10.739   9.401   6.197
10761SOL     OW34179   4.725   7.487   4.673
10761SOL    HW134180   4.776   7.437   4.610
10761SOL    HW234181   4.634   7.476   4.644
10762SOL     OW34182   2.100   7.889  12.643
10762SOL    HW134183   2.103   7.862  12.552
10762SOL    HW234184   2.149   7.972  12.645
10763SOL     OW34185   8.555   0.793   0.031
10763SOL    HW134186   8.537   0.743   0.111
10763SOL    HW234187   8.637   0.839   0.049
10764SOL     OW34188   1.213  10.492   6.006
10764SOL    HW134189   1.289  10.533   5.964
10764SOL    HW234190   1.232  10.496   6.099
10765SOL     OW34191   5.545   2.517   5.061
10765SOL    HW134192   5.484   2.585   5.090
10765SOL    HW234193   5.543   2.524   4.965
10766SOL     OW34194   8.519   9.039   6.632
10766SOL    HW134195   8.428   9.032   6.663
10766SOL    HW234196   8.571   9.012   6.707
10767SOL     OW34197   6.397  14.430   8.921
10767SOL    HW134198   6.462  14.403   8.855
10767SOL    HW234199   6.439  14.411   9.005
10768SOL     OW34200   5.673   8.215   5.432
10768SOL    HW134201   5.637   8.129   5.456
10768SOL    HW234202   5.756   8.194   5.389
10769SOL     OW34203   7.208   4.810  10.532
10769SOL    HW134204   7.124   4.849  10.508
10769SOL    HW234205   7.247   4.873  10.593
10770SOL     OW34206   5.614   0.248   9.336
10770SOL    HW134207   5.667   0.182   9.382
10770SOL    HW234208   5.606   0.214   9.247
10771SOL     OW34209   0.201  12.149   0.204
10771SOL    HW134210   0.214  12.194   0.120
10771SOL    HW234211   0.290  12.142   0.240
10772SOL     OW34212   7.649   5.190   1.665
10772SOL    HW134213   7.686   5.265   1.712
10772SOL    HW234214   7.725   5.139   1.637
10773SOL     OW34215  14.606  10.569  13.460
10773SOL    HW134216  14.613  10.659  13.427
10773SOL    HW234217  14.680  10.523  13.420
10774SOL     OW34218   6.745   4.586   4.268
10774SOL    HW134219   6.687   4.550   4.335
10774SOL    HW234220   6.687   4.634   4.209
10775SOL     OW34221   8.103   7.666   9.050
10775SOL    HW134222   8.126   7.654   9.142
10775SOL    HW234223   8.084   7.760   9.042
10776SOL     OW34224   0.489  14.367   4.223
10776SOL    HW134225   0.460  14.284   4.186
10776SOL    HW234226   0.448  14.369   4.310
10777SOL     OW34227  14.703   5.366  11.052
10777SOL    HW134228  14.655   5.436  11.097
10777SOL    HW234229  14.762   5.411  10.992
10778SOL     OW34230   8.208   3.048  12.317
10778SOL    HW134231   8.240   2.978  12.261
10778SOL    HW234232   8.244   3.128  12.277
10779SOL     OW34233  12.664   7.902   3.784
10779SOL    HW134234  12.746   7.945   3.759
10779SOL    HW234235  12.600   7.973   3.788
10780SOL     OW34236   2.864   2.876   5.206
10780SOL    HW134237   2.871   2.868   5.301
10780SOL    HW234238   2.845   2.968   5.191
10781SOL     OW34239   5.307  12.450  13.538
10781SOL    HW134240   5.398  12.444  13.509
10781SOL    HW234241   5.299  12.382  13.605
10782SOL     OW34242   4.296  11.532   2.478
10782SOL    HW134243   4.388  11.509   2.463
10782SOL    HW234244   4.299  11.624   2.504
10783SOL     OW34245   6.039   1.574   2.245
10783SOL    HW134246   6.092   1.586   2.324
10783SOL    HW234247   6.076   1.635   2.182
10784SOL     OW34248  13.715   9.148   6.523
10784SOL    HW134249  13.739   9.145   6.616
10784SOL    HW234250  13.798   9.138   6.477
10785SOL     OW34251   6.610   9.614  10.280
10785SOL    HW134252   6.519   9.639  10.295
10785SOL    HW234253   6.660   9.668  10.341
10786SOL     OW34254   0.025   5.880  13.509
10786SOL    HW134255   0.062   5.901  13.595
10786SOL    HW234256   0.096   5.836  13.463
10787SOL     OW34257   1.908   8.842   0.018
10787SOL    HW134258   1.865   8.792  14.819
10787SOL    HW234259   1.891   8.791   0.098
10788SOL     OW34260   4.921   8.779   2.525
10788SOL    HW134261   4.966   8.756   2.444
10788SOL    HW234262   4.876   8.699   2.552
10789SOL     OW34263   5.919   1.422   9.708
10789SOL    HW134264   5.883   1.351   9.654
10789SOL    HW234265   5.877   1.501   9.675
10790SOL     OW34266   4.958  14.523   8.675
10790SOL    HW134267   4.896  14.469   8.626
10790SOL    HW234268   4.928  14.517   8.766
10791SOL     OW34269  11.048   9.341   7.732
10791SOL    HW134270  11.118   9.405   7.733
10791SOL    HW234271  10.968   9.392   7.714
10792SOL     OW34272   1.728   1.753  13.286
10792SOL    HW134273   1.699   1.790  13.369
10792SOL    HW234274   1.729   1.658  13.301
10793SOL     OW34275   6.101  11.735  14.104
10793SOL    HW134276   6.179  11.716  14.051
10793SOL    HW234277   6.099  11.665  14.169
10794SOL     OW34278  11.505   6.786  12.541
10794SOL    HW134279  11.549   6.704  12.520
10794SOL    HW234280  11.443   6.762  12.611
10795SOL     OW34281   0.883   4.661   3.211
10795SOL    HW134282   0.906   4.571   3.188
10795SOL    HW234283   0.861   4.702   3.128
10796SOL     OW34284   4.165   8.927   8.411
10796SOL    HW134285   4.238   8.870   8.432
10796SOL    HW234286   4.187   9.010   8.454
10797SOL     OW34287   9.734   1.518   4.512
10797SOL    HW134288   9.716   1.518   4.418
10797SOL    HW234289   9.740   1.611   4.535
10798SOL     OW34290   6.469  12.196   4.443
10798SOL    HW134291   6.421  12.116   4.422
10798SOL    HW234292   6.468  12.247   4.362
10799SOL     OW34293   7.193   6.408   5.608
10799SOL    HW134294   7.264   6.447   5.556
10799SOL    HW234295   7.167   6.331   5.558
10800SOL     OW34296  11.997  13.564   9.195
10800SOL    HW134297  12.037  13.495   9.142
10800SOL    HW234298  12.010  13.534   9.285
10801SOL     OW34299   2.658   3.414  11.013
10801SOL    HW134300   2.731   3.473  10.995
10801SOL    HW234301   2.622   3.393  10.927
10802SOL     OW34302   8.463   5.408   4.537
10802SOL    HW134303   8.415   5.352   4.475
10802SOL    HW234304   8.487   5.485   4.486
10803SOL     OW34305  12.743  14.212   8.513
10803SOL    HW134306  12.656  14.204   8.475
10803SOL    HW234307  12.783  14.126   8.500
10804SOL     OW34308   6.724   6.908   5.677
10804SOL    HW134309   6.643   6.958   5.669
10804SOL    HW234310   6.793   6.974   5.676
10805SOL     OW34311   8.274   5.109  13.516
10805SOL    HW134312   8.358   5.133  13.556
10805SOL    HW234313   8.270   5.014  13.526
10806SOL     OW34314   3.859  14.113  14.801
10806SOL    HW134315   3.822  14.201  14.797
10806SOL    HW234316   3.898  14.106   0.018
10807SOL     OW34317  13.747  13.871  13.505
10807SOL    HW134318  13.764  13.825  13.423
10807SOL    HW234319  13.652  13.867  13.516
10808SOL     OW34320   1.602  11.395  10.149
10808SOL    HW134321   1.625  11.303  10.139
10808SOL    HW234322   1.620  11.415  10.241
10809SOL     OW34323   6.830  10.386   7.302
10809SOL    HW134324   6.882  10.440   7.361
10809SOL    HW234325   6.739  10.401   7.330
10810SOL     OW34326   6.250   4.571  12.938
10810SOL    HW134327   6.207   4.635  12.881
10810SOL    HW234328   6.340   4.603  12.947
10811SOL     OW34329   5.117   5.049   4.485
10811SOL    HW134330   5.095   5.141   4.476
10811SOL    HW234331   5.199   5.039   4.436
10812SOL     OW34332  14.498   9.265  11.190
10812SOL    HW134333  14.551   9.344  11.194
10812SOL    HW234334  14.430   9.277  11.256
10813SOL     OW34335  14.189   3.014  13.702
10813SOL    HW134336  14.122   3.068  13.743
10813SOL    HW234337  14.259   3.075  13.680
10814SOL     OW34338   5.092  11.499   6.592
10814SOL    HW134339   5.022  11.466   6.536
10814SOL    HW234340   5.047  11.543   6.663
10815SOL     OW34341  11.070   0.002   5.478
10815SOL    HW134342  11.046   0.063   5.408
10815SOL    HW234343  11.078  14.787   5.435
10816SOL     OW34344   0.074   9.826   7.485
10816SOL    HW134345   0.164   9.805   7.510
10816SOL    HW234346   0.082   9.888   7.413
10817SOL     OW34347  10.808  11.575   4.278
10817SOL    HW134348  10.726  11.619   4.301
10817SOL    HW234349  10.870  11.646   4.261
10818SOL     OW34350   0.732   7.180   0.446
10818SOL    HW134351   0.748   7.218   0.360
10818SOL    HW234352   0.685   7.248   0.494
10819SOL     OW34353   1.212   0.783  13.009
10819SOL    HW134354   1.304   0.784  12.983
10819SOL    HW234355   1.165   0.812  12.931
10820SOL     OW34356   6.366   1.972  10.256
10820SOL    HW134357   6.383   2.023  10.177
10820SOL    HW234358   6.403   1.886  10.237
10821SOL     OW34359   2.019   4.114  10.832
10821SOL    HW134360   2.082   4.049  10.801
10821SOL    HW234361   2.073   4.187  10.863
10822SOL     OW34362  12.749  14.300   1.392
10822SOL    HW134363  12.804  14.313   1.315
10822SOL    HW234364  12.693  14.377   1.395
10823SOL     OW34365  11.865  13.055  13.444
10823SOL    HW134366  11.958  13.077  13.452
10823SOL    HW234367  11.864  12.966  13.411
10824SOL     OW34368   6.627   9.225   5.183
10824SOL    HW134369   6.713   9.229   5.225
10824SOL    HW234370   6.621   9.307   5.133
10825SOL     OW34371  14.343  12.001   1.320
10825SOL    HW134372  14.413  12.067   1.317
10825SOL    HW234373  14.267  12.048   1.354
10826SOL     OW34374  13.097   2.340   3.487
10826SOL    HW134375  13.136   2.313   3.571
10826SOL    HW234376  13.139   2.284   3.422
10827SOL     OW34377  11.687   0.624   5.260
10827SOL    HW134378  11.726   0.695   5.310
10827SOL    HW234379  11.705   0.545   5.311
10828SOL     OW34380   8.132   8.875   3.614
10828SOL    HW134381   8.116   8.959   3.657
10828SOL    HW234382   8.044   8.838   3.601
10829SOL     OW34383   4.968  10.976  12.903
10829SOL    HW134384   4.993  10.903  12.960
10829SOL    HW234385   5.008  11.053  12.943
10830SOL     OW34386  13.548   2.347  10.655
10830SOL    HW134387  13.487   2.412  10.619
10830SOL    HW234388  13.580   2.386  10.737
10831SOL     OW34389   3.938   8.762   8.456
10831SOL    HW134390   3.880   8.800   8.523
10831SOL    HW234391   4.009   8.826   8.448
10832SOL     OW34392  10.973   6.452   2.198
10832SOL    HW134393  11.051   6.475   2.147
10832SOL    HW234394  10.902   6.450   2.134
10833SOL     OW34395   9.146   4.951   0.216
10833SOL    HW134396   9.223   5.005   0.238
10833SOL    HW234397   9.116   4.917   0.300
10834SOL     OW34398  13.334  14.322   1.209
10834SOL    HW134399  13.328  14.229   1.233
10834SOL    HW234400  13.423  14.347   1.234
10835SOL     OW34401  10.820  13.422  10.192
10835SOL    HW134402  10.789  13.511  10.211
10835SOL    HW234403  10.787  13.370  10.265
10836SOL     OW34404   3.506  10.764  13.647
10836SOL    HW134405   3.455  10.698  13.694
10836SOL    HW234406   3.578  10.716  13.607
10837SOL     OW34407   2.818   9.860   8.830
10837SOL    HW134408   2.830   9.879   8.737
10837SOL    HW234409   2.755   9.926   8.860
10838SOL     OW34410   6.569   8.420   4.079
10838SOL    HW134411   6.529   8.506   4.069
10838SOL    HW234412   6.508   8.359   4.038
10839SOL     OW34413  10.590  14.344   9.046
10839SOL    HW134414  10.545  14.316   9.126
10839SOL    HW234415  10.621  14.262   9.006
10840SOL     OW34416   8.805   1.558   8.475
10840SOL    HW134417   8.869   1.516   8.418
10840SOL    HW234418   8.856   1.616   8.531
10841SOL     OW34419  10.173  12.629   1.371
10841SOL    HW134420  10.138  12.602   1.286
10841SOL    HW234421  10.265  12.601   1.369
10842SOL     OW34422  13.409   6.959   7.282
10842SOL    HW134423  13.437   6.965   7.191
10842SOL    HW234424  13.313   6.955   7.278
10843SOL     OW34425   5.347  14.510   5.477
10843SOL    HW134426   5.423  14.552   5.435
10843SOL    HW234427   5.338  14.427   5.431
10844SOL     OW34428  14.115  11.232   7.864
10844SOL    HW134429  14.027  11.268   7.867
10844SOL    HW234430  14.168  11.300   7.823
10845SOL     OW34431  13.372   4.294   7.186
10845SOL    HW134432  13.422   4.315   7.107
10845SOL    HW234433  13.435   4.303   7.257
10846SOL     OW34434  11.041   6.189   1.170
10846SOL    HW134435  10.996   6.163   1.250
10846SOL    HW234436  10.977   6.240   1.122
10847SOL     OW34437   1.682   4.301  12.028
10847SOL    HW134438   1.636   4.306  12.112
10847SOL    HW234439   1.631   4.238  11.977
10848SOL     OW34440   7.804   4.361  13.494
10848SOL    HW134441   7.862   4.330  13.564
10848SOL    HW234442   7.863   4.408  13.434
10849SOL     OW34443  14.523  10.173  13.503
10849SOL    HW134444  14.546  10.207  13.417
10849SOL    HW234445  14.430  10.192  13.513
10850SOL     OW34446   8.349   5.060   8.620
10850SOL    HW134447   8.362   5.093   8.709
10850SOL    HW234448   8.435   5.029   8.592
10851SOL     OW34449   6.904   4.516  14.019
10851SOL    HW134450   6.879   4.584  14.081
10851SOL    HW234451   6.964   4.459  14.068
10852SOL     OW34452   3.464  14.201  10.638
10852SOL    HW134453   3.446  14.174  10.728
10852SOL    HW234454   3.380  14.190  10.593
10853SOL     OW34455  13.013  12.913   5.066
10853SOL    HW134456  13.079  12.969   5.106
10853SOL    HW234457  13.053  12.884   4.984
10854SOL     OW34458  13.780   4.788   0.068
10854SOL    HW134459  13.745   4.740   0.143
10854SOL    HW234460  13.702   4.814   0.018
10855SOL     OW34461  10.946  10.645   4.486
10855SOL    HW134462  10.873  10.687   4.531
10855SOL    HW234463  10.914  10.631   4.397
10856SOL     OW34464   1.964   0.179  13.009
10856SOL    HW134465   2.046   0.156  13.053
10856SOL    HW234466   1.897   0.167  13.077
10857SOL     OW34467   6.511   9.675   2.013
10857SOL    HW134468   6.547   9.621   2.082
10857SOL    HW234469   6.577   9.673   1.943
10858SOL     OW34470  12.040  11.956   2.411
10858SOL    HW134471  11.962  11.945   2.357
10858SOL    HW234472  12.113  11.937   2.352
10859SOL     OW34473  12.517   6.234  12.981
10859SOL    HW134474  12.433   6.239  13.027
10859SOL    HW234475  12.497   6.265  12.892
10860SOL     OW34476   6.117   1.514   7.892
10860SOL    HW134477   6.210   1.523   7.871
10860SOL    HW234478   6.073   1.518   7.808
10861SOL     OW34479   5.104   3.188   8.483
10861SOL    HW134480   5.140   3.272   8.511
10861SOL    HW234481   5.050   3.160   8.557
10862SOL     OW34482   5.252  12.475   2.114
10862SOL    HW134483   5.161  12.447   2.114
10862SOL    HW234484   5.267  12.510   2.202
10863SOL     OW34485  12.914  11.282   2.090
10863SOL    HW134486  12.873  11.213   2.037
10863SOL    HW234487  12.929  11.354   2.028
10864SOL     OW34488   2.334   0.631   8.430
10864SOL    HW134489   2.357   0.605   8.520
10864SOL    HW234490   2.415   0.617   8.380
10865SOL     OW34491   3.184   9.675   9.439
10865SOL    HW134492   3.101   9.645   9.401
10865SOL    HW234493   3.251   9.645   9.378
10866SOL     OW34494   3.246  11.156   2.911
10866SOL    HW134495   3.165  11.185   2.870
10866SOL    HW234496   3.233  11.172   3.005
10867SOL     OW34497   0.477  13.077  12.324
10867SOL    HW134498   0.521  13.041  12.246
10867SOL    HW234499   0.436  13.001  12.365
10868SOL     OW34500  11.369   3.008   9.883
10868SOL    HW134501  11.352   3.030   9.792
10868SOL    HW234502  11.311   3.066   9.933
10869SOL     OW34503   1.565   2.623  10.787
10869SOL    HW134504   1.610   2.705  10.771
10869SOL    HW234505   1.482   2.631  10.739
10870SOL     OW34506   2.687   8.903   1.291
10870SOL    HW134507   2.634   8.824   1.290
10870SOL    HW234508   2.666   8.947   1.208
10871SOL     OW34509   7.909   1.133   2.533
10871SOL    HW134510   7.864   1.064   2.484
10871SOL    HW234511   7.841   1.176   2.583
10872SOL     OW34512   9.158  13.832   6.469
10872SOL    HW134513   9.166  13.741   6.499
10872SOL    HW234514   9.244  13.870   6.484
10873SOL     OW34515  14.608   1.677   4.779
10873SOL    HW134516  14.593   1.595   4.731
10873SOL    HW234517  14.527   1.691   4.828
10874SOL     OW34518  11.668   5.141   4.175
10874SOL    HW134519  11.726   5.217   4.185
10874SOL    HW234520  11.702   5.095   4.098
10875SOL     OW34521   9.890   1.108   3.736
10875SOL    HW134522   9.938   1.073   3.661
10875SOL    HW234523   9.938   1.187   3.760
10876SOL     OW34524  14.598   9.604   4.110
10876SOL    HW134525  14.605   9.643   4.197
10876SOL    HW234526  14.663   9.650   4.058
10877SOL     OW34527  12.223  13.217  12.791
10877SOL    HW134528  12.308  13.177  12.807
10877SOL    HW234529  12.233  13.308  12.819
10878SOL     OW34530  11.494   4.761  11.887
10878SOL    HW134531  11.470   4.775  11.978
10878SOL    HW234532  11.428   4.807  11.837
10879SOL     OW34533   8.965   7.886   8.353
10879SOL    HW134534   8.910   7.964   8.362
10879SOL    HW234535   8.945   7.852   8.266
10880SOL     OW34536  11.076   6.721   5.576
10880SOL    HW134537  11.038   6.727   5.489
10880SOL    HW234538  11.089   6.628   5.591
10881SOL     OW34539  10.074  14.479   8.482
10881SOL    HW134540  10.147  14.429   8.446
10881SOL    HW234541   9.997  14.425   8.463
10882SOL     OW34542  11.080   4.623   9.339
10882SOL    HW134543  11.101   4.531   9.349
10882SOL    HW234544  11.164   4.666   9.325
10883SOL     OW34545  13.285   9.501  14.839
10883SOL    HW134546  13.200   9.460  14.828
10883SOL    HW234547  13.348   9.430  14.824
10884SOL     OW34548  10.310   6.042   4.122
10884SOL    HW134549  10.352   6.125   4.101
10884SOL    HW234550  10.264   6.058   4.204
10885SOL     OW34551   7.023   5.341  12.244
10885SOL    HW134552   6.972   5.389  12.179
10885SOL    HW234553   7.065   5.271  12.195
10886SOL     OW34554   8.940   5.052  13.491
10886SOL    HW134555   8.941   5.044  13.396
10886SOL    HW234556   8.921   5.145  13.507
10887SOL     OW34557  10.049   4.188  11.746
10887SOL    HW134558  10.087   4.203  11.833
10887SOL    HW234559   9.988   4.260  11.733
10888SOL     OW34560   3.962   7.164  11.453
10888SOL    HW134561   3.887   7.205  11.496
10888SOL    HW234562   4.024   7.236  11.440
10889SOL     OW34563   6.261  11.911  14.327
10889SOL    HW134564   6.278  11.976  14.259
10889SOL    HW234565   6.272  11.958  14.409
10890SOL     OW34566   9.390   4.235   4.394
10890SOL    HW134567   9.365   4.244   4.486
10890SOL    HW234568   9.372   4.143   4.373
10891SOL     OW34569  12.281  11.824   3.131
10891SOL    HW134570  12.370  11.853   3.147
10891SOL    HW234571  12.278  11.736   3.169
10892SOL     OW34572  13.074   2.315   9.648
10892SOL    HW134573  13.108   2.233   9.613
10892SOL    HW234574  13.093   2.311   9.742
10893SOL     OW34575   2.432  11.233   0.253
10893SOL    HW134576   2.455  11.190   0.336
10893SOL    HW234577   2.385  11.312   0.279
10894SOL     OW34578  13.214   4.034   7.089
10894SOL    HW134579  13.293   4.086   7.075
10894SOL    HW234580  13.199   3.989   7.006
10895SOL     OW34581   1.895   1.633   0.039
10895SOL    HW134582   1.889   1.571  14.835
10895SOL    HW234583   1.984   1.667   0.033
10896SOL     OW34584   9.436   9.072   7.118
10896SOL    HW134585   9.454   8.992   7.067
10896SOL    HW234586   9.350   9.057   7.155
10897SOL     OW34587   7.270   2.379   8.868
10897SOL    HW134588   7.348   2.340   8.908
10897SOL    HW234589   7.204   2.310   8.870
10898SOL     OW34590   0.250  13.201   9.214
10898SOL    HW134591   0.236  13.190   9.308
10898SOL    HW234592   0.229  13.294   9.198
10899SOL     OW34593   8.527   4.176   7.028
10899SOL    HW134594   8.587   4.114   7.070
10899SOL    HW234595   8.578   4.212   6.955
10900SOL     OW34596   5.115   0.962   0.102
10900SOL    HW134597   5.177   1.019   0.148
10900SOL    HW234598   5.044   1.020   0.076
10901SOL     OW34599   1.817  12.290   1.396
10901SOL    HW134600   1.902  12.247   1.402
10901SOL    HW234601   1.768  12.256   1.471
10902SOL     OW34602  12.770   6.866   2.802
10902SOL    HW134603  12.738   6.938   2.856
10902SOL    HW234604  12.838   6.824   2.855
10903SOL     OW34605   1.297  14.584   6.923
10903SOL    HW134606   1.371  14.586   6.861
10903SOL    HW234607   1.337  14.599   7.008
10904SOL     OW34608  12.275   4.516   2.103
10904SOL    HW134609  12.181   4.505   2.086
10904SOL    HW234610  12.308   4.562   2.025
10905SOL     OW34611   9.348  14.392   1.051
10905SOL    HW134612   9.442  14.409   1.061
10905SOL    HW234613   9.311  14.477   1.027
10906SOL     OW34614   8.097  12.038  13.351
10906SOL    HW134615   8.166  11.997  13.404
10906SOL    HW234616   8.016  12.014  13.396
10907SOL     OW34617   2.538  12.925  10.080
10907SOL    HW134618   2.614  12.880  10.119
10907SOL    HW234619   2.555  13.018  10.095
10908SOL     OW34620   9.727   1.731   3.617
10908SOL    HW134621   9.773   1.692   3.542
10908SOL    HW234622   9.762   1.819   3.624
10909SOL     OW34623   1.238  13.615   5.913
10909SOL    HW134624   1.279  13.624   5.827
10909SOL    HW234625   1.223  13.521   5.923
10910SOL     OW34626   1.963   6.848   1.265
10910SOL    HW134627   1.927   6.896   1.340
10910SOL    HW234628   1.888   6.805   1.225
10911SOL     OW34629   1.875   3.495   1.405
10911SOL    HW134630   1.860   3.500   1.310
10911SOL    HW234631   1.919   3.411   1.418
10912SOL     OW34632   7.305  10.425   1.743
10912SOL    HW134633   7.350  10.341   1.756
10912SOL    HW234634   7.329  10.451   1.654
10913SOL     OW34635  11.599  12.132  14.634
10913SOL    HW134636  11.631  12.141  14.724
10913SOL    HW234637  11.519  12.184  14.633
10914SOL     OW34638   0.091   8.655   2.707
10914SOL    HW134639   0.163   8.718   2.696
10914SOL    HW234640   0.057   8.671   2.794
10915SOL     OW34641   3.199   2.353   4.203
10915SOL    HW134642   3.188   2.326   4.294
10915SOL    HW234643   3.160   2.282   4.152
10916SOL     OW34644  10.494  14.757   5.772
10916SOL    HW134645  10.527  14.697   5.839
10916SOL    HW234646  10.541  14.839   5.789
10917SOL     OW34647  13.614   6.949   2.556
10917SOL    HW134648  13.637   6.959   2.463
10917SOL    HW234649  13.671   7.011   2.601
10918SOL     OW34650   8.583   8.777  13.921
10918SOL    HW134651   8.575   8.724  14.000
10918SOL    HW234652   8.635   8.724  13.861
10919SOL     OW34653   0.183  11.586   8.819
10919SOL    HW134654   0.114  11.560   8.880
10919SOL    HW234655   0.142  11.583   8.733
10920SOL     OW34656   2.956  11.404   9.366
10920SOL    HW134657   2.923  11.480   9.318
10920SOL    HW234658   2.899  11.332   9.337
10921SOL     OW34659   8.638   4.850   5.248
10921SOL    HW134660   8.713   4.909   5.242
10921SOL    HW234661   8.567   4.905   5.282
10922SOL     OW34662  10.302   1.959  13.875
10922SOL    HW134663  10.311   1.870  13.910
10922SOL    HW234664  10.392   1.992  13.869
10923SOL     OW34665   9.170   4.550   8.353
10923SOL    HW134666   9.090   4.599   8.332
10923SOL    HW234667   9.199   4.586   8.436
10924SOL     OW34668  11.812   2.406   7.184
10924SOL    HW134669  11.825   2.322   7.141
10924SOL    HW234670  11.718   2.410   7.201
10925SOL     OW34671   1.646   1.966   6.258
10925SOL    HW134672   1.619   2.057   6.244
10925SOL    HW234673   1.739   1.965   6.235
10926SOL     OW34674  12.968   6.932  13.300
10926SOL    HW134675  12.972   6.924  13.395
10926SOL    HW234676  13.009   6.852  13.267
10927SOL     OW34677  10.110   8.694   8.411
10927SOL    HW134678  10.137   8.621   8.467
10927SOL    HW234679  10.183   8.706   8.350
10928SOL     OW34680   0.167  12.946   3.145
10928SOL    HW134681   0.207  12.902   3.070
10928SOL    HW234682   0.094  12.889   3.169
10929SOL     OW34683   7.737  10.918   2.707
10929SOL    HW134684   7.740  10.843   2.767
10929SOL    HW234685   7.804  10.898   2.641
10930SOL     OW34686  10.710  12.197  14.264
10930SOL    HW134687  10.684  12.129  14.203
10930SOL    HW234688  10.671  12.277  14.229
10931SOL     OW34689  11.955   1.910   0.675
10931SOL    HW134690  11.906   1.861   0.609
10931SOL    HW234691  12.047   1.901   0.649
10932SOL     OW34692   1.108  11.341   1.121
10932SOL    HW134693   1.166  11.294   1.181
10932SOL    HW234694   1.116  11.433   1.147
10933SOL     OW34695   0.445  13.654   8.468
10933SOL    HW134696   0.382  13.622   8.404
10933SOL    HW234697   0.525  13.671   8.418
10934SOL     OW34698   4.342   4.012  10.607
10934SOL    HW134699   4.328   3.939  10.668
10934SOL    HW234700   4.430   3.998  10.572
10935SOL     OW34701  13.354   6.211   9.961
10935SOL    HW134702  13.421   6.276   9.940
10935SOL    HW234703  13.277   6.263   9.984
10936SOL     OW34704   2.034  11.115  13.337
10936SOL    HW134705   1.958  11.064  13.366
10936SOL    HW234706   2.081  11.136  13.418
10937SOL     OW34707   5.769   8.912   4.693
10937SOL    HW134708   5.693   8.958   4.729
10937SOL    HW234709   5.743   8.820   4.691
10938SOL     OW34710   8.164  11.813  13.783
10938SOL    HW134711   8.121  11.735  13.819
10938SOL    HW234712   8.118  11.886  13.823
10939SOL     OW34713  12.994   5.606   5.222
10939SOL    HW134714  13.080   5.570   5.199
10939SOL    HW234715  12.993   5.693   5.182
10940SOL     OW34716   2.156   0.561   4.927
10940SOL    HW134717   2.084   0.604   4.974
10940SOL    HW234718   2.118   0.482   4.891
10941SOL     OW34719   5.245   1.343   5.409
10941SOL    HW134720   5.169   1.403   5.408
10941SOL    HW234721   5.275   1.345   5.500
10942SOL     OW34722   6.379  11.555   3.745
10942SOL    HW134723   6.332  11.623   3.697
10942SOL    HW234724   6.458  11.540   3.694
10943SOL     OW34725   0.583   3.002   6.014
10943SOL    HW134726   0.646   3.039   5.953
10943SOL    HW234727   0.516   3.070   6.024
10944SOL     OW34728  14.737   6.781  13.091
10944SOL    HW134729  14.692   6.741  13.016
10944SOL    HW234730  14.820   6.734  13.096
10945SOL     OW34731   3.732   5.131   8.181
10945SOL    HW134732   3.804   5.193   8.177
10945SOL    HW234733   3.736   5.096   8.270
10946SOL     OW34734   5.080   2.701   5.900
10946SOL    HW134735   5.120   2.705   5.813
10946SOL    HW234736   5.131   2.635   5.947
10947SOL     OW34737  10.417  11.382  11.909
10947SOL    HW134738  10.348  11.439  11.943
10947SOL    HW234739  10.407  11.386  11.814
10948SOL     OW34740   9.487   4.525   0.772
10948SOL    HW134741   9.444   4.553   0.853
10948SOL    HW234742   9.556   4.465   0.800
10949SOL     OW34743   2.607  11.416   2.111
10949SOL    HW134744   2.552  11.471   2.056
10949SOL    HW234745   2.602  11.456   2.197
10950SOL     OW34746  11.150   4.998   4.358
10950SOL    HW134747  11.107   4.913   4.363
10950SOL    HW234748  11.079   5.061   4.367
10951SOL     OW34749  13.357   4.342   5.718
10951SOL    HW134750  13.336   4.322   5.809
10951SOL    HW234751  13.293   4.292   5.667
10952SOL     OW34752   7.576   6.393   0.584
10952SOL    HW134753   7.608   6.308   0.555
10952SOL    HW234754   7.488   6.374   0.619
10953SOL     OW34755  10.535   3.957  12.661
10953SOL    HW134756  10.502   3.975  12.749
10953SOL    HW234757  10.464   3.983  12.603
10954SOL     OW34758   1.062   2.274   9.479
10954SOL    HW134759   0.999   2.313   9.539
10954SOL    HW234760   1.063   2.332   9.403
10955SOL     OW34761   9.126   4.212   0.037
10955SOL    HW134762   9.030   4.216   0.037
10955SOL    HW234763   9.152   4.276  14.841
10956SOL     OW34764  14.657   1.427   2.706
10956SOL    HW134765  14.732   1.370   2.726
10956SOL    HW234766  14.645   1.419   2.612
10957SOL     OW34767   4.436   1.289  12.425
10957SOL    HW134768   4.462   1.261  12.337
10957SOL    HW234769   4.366   1.229  12.450
10958SOL     OW34770   8.403   4.021   6.663
10958SOL    HW134771   8.469   4.007   6.731
10958SOL    HW234772   8.335   3.957   6.683
10959SOL     OW34773   7.521  14.017   0.701
10959SOL    HW134774   7.460  13.963   0.750
10959SOL    HW234775   7.556  14.078   0.766
10960SOL     OW34776   9.935   9.056   1.916
10960SOL    HW134777   9.879   9.129   1.888
10960SOL    HW234778   9.997   9.095   1.977
10961SOL     OW34779  12.846   0.109  10.435
10961SOL    HW134780  12.901   0.033  10.416
10961SOL    HW234781  12.908   0.178  10.460
10962SOL     OW34782  12.233   0.095  10.989
10962SOL    HW134783  12.295   0.110  10.917
10962SOL    HW234784  12.261   0.012  11.028
10963SOL     OW34785  11.400   6.656  11.640
10963SOL    HW134786  11.402   6.560  11.640
10963SOL    HW234787  11.479   6.681  11.593
10964SOL     OW34788  12.456  13.122   7.944
10964SOL    HW134789  12.421  13.204   7.910
10964SOL    HW234790  12.519  13.150   8.011
10965SOL     OW34791  11.602  12.755  10.596
10965SOL    HW134792  11.535  12.800  10.647
10965SOL    HW234793  11.571  12.761  10.506
10966SOL     OW34794  14.400   4.724  11.865
10966SOL    HW134795  14.439   4.636  11.861
10966SOL    HW234796  14.355   4.725  11.950
10967SOL     OW34797   8.075   8.905  12.901
10967SOL    HW134798   8.160   8.874  12.870
10967SOL    HW234799   8.094   8.947  12.985
10968SOL     OW34800   0.623   4.253   2.196
10968SOL    HW134801   0.678   4.199   2.139
10968SOL    HW234802   0.534   4.233   2.169
10969SOL     OW34803   6.780   0.662   0.555
10969SOL    HW134804   6.751   0.620   0.636
10969SOL    HW234805   6.814   0.747   0.583
10970SOL     OW34806   7.419   2.831   9.321
10970SOL    HW134807   7.375   2.798   9.399
10970SOL    HW234808   7.494   2.880   9.355
10971SOL     OW34809   1.366  13.469   8.986
10971SOL    HW134810   1.395  13.560   8.993
10971SOL    HW234811   1.430  13.427   8.930
10972SOL     OW34812   8.206   2.811   3.180
10972SOL    HW134813   8.150   2.824   3.104
10972SOL    HW234814   8.245   2.897   3.196
10973SOL     OW34815   9.320  13.488   8.330
10973SOL    HW134816   9.292  13.574   8.299
10973SOL    HW234817   9.357  13.445   8.253
10974SOL     OW34818  14.397   9.697   7.246
10974SOL    HW134819  14.386   9.603   7.263
10974SOL    HW234820  14.358   9.709   7.159
10975SOL     OW34821   3.700   1.142  12.753
10975SOL    HW134822   3.643   1.162  12.827
10975SOL    HW234823   3.780   1.108  12.792
10976SOL     OW34824   2.370   5.708   4.792
10976SOL    HW134825   2.427   5.637   4.821
10976SOL    HW234826   2.406   5.786   4.834
10977SOL     OW34827   1.759   0.134  10.015
10977SOL    HW134828   1.746   0.227  10.034
10977SOL    HW234829   1.854   0.122  10.015
10978SOL     OW34830  12.732  13.025  10.880
10978SOL    HW134831  12.644  13.048  10.850
10978SOL    HW234832  12.741  13.070  10.964
10979SOL     OW34833   1.589   3.367   3.173
10979SOL    HW134834   1.608   3.418   3.094
10979SOL    HW234835   1.646   3.291   3.167
10980SOL     OW34836   9.222   1.186   0.932
10980SOL    HW134837   9.292   1.125   0.953
10980SOL    HW234838   9.260   1.245   0.867
10981SOL     OW34839   5.083   8.160  13.674
10981SOL    HW134840   5.103   8.077  13.631
10981SOL    HW234841   5.140   8.160  13.752
10982SOL     OW34842  13.939  12.625   3.020
10982SOL    HW134843  14.027  12.614   2.983
10982SOL    HW234844  13.880  12.599   2.950
10983SOL     OW34845   9.210  12.624  13.746
10983SOL    HW134846   9.157  12.657  13.673
10983SOL    HW234847   9.149  12.570  13.796
10984SOL     OW34848   1.205  10.549  14.485
10984SOL    HW134849   1.198  10.594  14.401
10984SOL    HW234850   1.116  10.521  14.506
10985SOL     OW34851  11.038   6.660   8.339
10985SOL    HW134852  11.081   6.710   8.408
10985SOL    HW234853  11.030   6.572   8.374
10986SOL     OW34854   4.841  13.515   3.186
10986SOL    HW134855   4.802  13.433   3.154
10986SOL    HW234856   4.774  13.581   3.168
10987SOL     OW34857   0.322   6.890   8.214
10987SOL    HW134858   0.398   6.911   8.267
10987SOL    HW234859   0.316   6.961   8.150
10988SOL     OW34860   2.587   0.749  10.052
10988SOL    HW134861   2.666   0.788  10.089
10988SOL    HW234862   2.618   0.703   9.974
10989SOL     OW34863  14.458   8.925   1.495
10989SOL    HW134864  14.392   8.918   1.426
10989SOL    HW234865  14.420   8.878   1.570
10990SOL     OW34866   4.631   0.928   7.165
10990SOL    HW134867   4.612   0.959   7.253
10990SOL    HW234868   4.587   0.990   7.107
10991SOL     OW34869   9.329   9.365  14.074
10991SOL    HW134870   9.356   9.296  14.135
10991SOL    HW234871   9.403   9.375  14.014
10992SOL     OW34872  11.773   3.107   6.519
10992SOL    HW134873  11.771   3.142   6.608
10992SOL    HW234874  11.742   3.179   6.464
10993SOL     OW34875   0.178  14.705   8.030
10993SOL    HW134876   0.105  14.659   8.071
10993SOL    HW234877   0.190  14.662   7.946
10994SOL     OW34878  12.597   4.975   1.412
10994SOL    HW134879  12.683   4.943   1.383
10994SOL    HW234880  12.594   5.066   1.384
10995SOL     OW34881  11.657   3.310   0.377
10995SOL    HW134882  11.633   3.308   0.470
10995SOL    HW234883  11.636   3.222   0.346
10996SOL     OW34884   5.732   2.094   5.749
10996SOL    HW134885   5.670   2.146   5.699
10996SOL    HW234886   5.683   2.015   5.773
10997SOL     OW34887   3.697   0.528   9.437
10997SOL    HW134888   3.756   0.458   9.465
10997SOL    HW234889   3.753   0.605   9.429
10998SOL     OW34890  14.575  13.373   3.241
10998SOL    HW134891  14.493  13.364   3.192
10998SOL    HW234892  14.548  13.398   3.329
10999SOL     OW34893  14.819   1.651   6.000
10999SOL    HW134894  14.851   1.741   6.013
10999SOL    HW234895  14.792   1.623   6.087
11000SOL     OW34896   2.465   0.765  14.761
11000SOL    HW134897   2.506   0.686  14.795
11000SOL    HW234898   2.441   0.815  14.839
11001SOL     OW34899   9.854   2.434  12.575
11001SOL    HW134900   9.885   2.435  12.665
11001SOL    HW234901   9.793   2.508  12.569
11002SOL     OW34902   4.527   8.277   1.779
11002SOL    HW134903   4.555   8.361   1.815
11002SOL    HW234904   4.432   8.275   1.793
11003SOL     OW34905  11.792   6.876   0.467
11003SOL    HW134906  11.832   6.958   0.496
11003SOL    HW234907  11.861   6.811   0.475
11004SOL     OW34908  13.634  14.522   2.827
11004SOL    HW134909  13.546  14.490   2.845
11004SOL    HW234910  13.684  14.497   2.904
11005SOL     OW34911   4.864   6.468   3.718
11005SOL    HW134912   4.887   6.416   3.641
11005SOL    HW234913   4.894   6.416   3.793
11006SOL     OW34914   4.014   4.237   7.366
11006SOL    HW134915   3.938   4.197   7.409
11006SOL    HW234916   4.079   4.245   7.436
11007SOL     OW34917  14.358   5.663   6.311
11007SOL    HW134918  14.362   5.571   6.286
11007SOL    HW234919  14.361   5.711   6.229
11008SOL     OW34920   7.559   0.011   6.064
11008SOL    HW134921   7.630   0.055   6.017
11008SOL    HW234922   7.494  14.862   5.997
11009SOL     OW34923   6.055  11.808   0.645
11009SOL    HW134924   5.962  11.800   0.625
11009SOL    HW234925   6.098  11.747   0.584
11010SOL     OW34926  14.679  11.180  12.003
11010SOL    HW134927  14.612  11.127  11.959
11010SOL    HW234928  14.634  11.218  12.078
11011SOL     OW34929   2.142  11.322  11.528
11011SOL    HW134930   2.077  11.261  11.562
11011SOL    HW234931   2.169  11.285  11.444
11012SOL     OW34932  10.093   0.963  12.140
11012SOL    HW134933  10.153   1.038  12.136
11012SOL    HW234934  10.135   0.902  12.201
11013SOL     OW34935  13.912  14.843  12.925
11013SOL    HW134936  13.942  14.752  12.931
11013SOL    HW234937  13.935   0.012  13.009
11014SOL     OW34938   7.598   2.059   3.503
11014SOL    HW134939   7.505   2.070   3.484
11014SOL    HW234940   7.620   1.974   3.464
11015SOL     OW34941  11.431   7.190   7.384
11015SOL    HW134942  11.400   7.100   7.379
11015SOL    HW234943  11.356   7.243   7.357
11016SOL     OW34944   0.108  13.131   2.872
11016SOL    HW134945   0.118  13.065   2.804
11016SOL    HW234946   0.034  13.101   2.924
11017SOL     OW34947   0.352  10.178   4.361
11017SOL    HW134948   0.302  10.122   4.301
11017SOL    HW234949   0.409  10.230   4.305
11018SOL     OW34950   8.566  12.223  14.473
11018SOL    HW134951   8.499  12.258  14.415
11018SOL    HW234952   8.548  12.263  14.558
11019SOL     OW34953   5.128  12.141  11.309
11019SOL    HW134954   5.190  12.079  11.270
11019SOL    HW234955   5.173  12.225  11.306
11020SOL     OW34956   9.616  14.207   7.403
11020SOL    HW134957   9.622  14.267   7.328
11020SOL    HW234958   9.551  14.142   7.376
11021SOL     OW34959  13.564   0.833   3.729
11021SOL    HW134960  13.507   0.866   3.799
11021SOL    HW234961  13.506   0.823   3.654
11022SOL     OW34962   1.732   9.058   5.282
11022SOL    HW134963   1.767   9.047   5.193
11022SOL    HW234964   1.765   9.143   5.310
11023SOL     OW34965   8.352   5.911   8.596
11023SOL    HW134966   8.313   5.827   8.569
11023SOL    HW234967   8.446   5.893   8.600
11024SOL     OW34968   4.208   6.122   0.774
11024SOL    HW134969   4.175   6.136   0.863
11024SOL    HW234970   4.300   6.099   0.786
11025SOL     OW34971   3.828   2.808   6.112
11025SOL    HW134972   3.869   2.888   6.081
11025SOL    HW234973   3.734   2.822   6.100
11026SOL     OW34974   4.973   5.208   7.518
11026SOL    HW134975   4.939   5.195   7.606
11026SOL    HW234976   4.936   5.291   7.490
11027SOL     OW34977   8.208   5.672   9.443
11027SOL    HW134978   8.149   5.680   9.518
11027SOL    HW234979   8.154   5.699   9.368
11028SOL     OW34980   8.689   2.673   2.425
11028SOL    HW134981   8.662   2.754   2.382
11028SOL    HW234982   8.618   2.652   2.485
11029SOL     OW34983   9.289   6.826  13.680
11029SOL    HW134984   9.376   6.818  13.641
11029SOL    HW234985   9.251   6.902  13.635
11030SOL     OW34986  10.811  14.805  10.972
11030SOL    HW134987  10.736  14.793  10.914
11030SOL    HW234988  10.884  14.761  10.926
11031SOL     OW34989   7.624   0.191  10.029
11031SOL    HW134990   7.662   0.277  10.045
11031SOL    HW234991   7.575   0.172  10.110
11032SOL     OW34992   2.099   3.911   0.045
11032SOL    HW134993   2.018   3.899  14.865
11032SOL    HW234994   2.169   3.897  14.851
11033SOL     OW34995  13.069   5.832   1.346
11033SOL    HW134996  13.106   5.917   1.324
11033SOL    HW234997  13.039   5.797   1.262
11034SOL     OW34998   5.789   3.362   0.332
11034SOL    HW134999   5.833   3.425   0.390
11034SOL    HW235000   5.703   3.401   0.315
11035SOL     OW35001  13.598  10.771   2.656
11035SOL    HW135002  13.507  10.740   2.661
11035SOL    HW235003  13.650  10.691   2.649
11036SOL     OW35004   2.956   0.610   8.263
11036SOL    HW135005   3.031   0.560   8.295
11036SOL    HW235006   2.911   0.640   8.342
11037SOL     OW35007  10.808   3.859  11.454
11037SOL    HW135008  10.834   3.927  11.392
11037SOL    HW235009  10.835   3.893  11.539
11038SOL     OW35010   3.532  10.141   7.859
11038SOL    HW135011   3.486  10.225   7.868
11038SOL    HW235012   3.572  10.127   7.945
11039SOL     OW35013  13.355   3.493  13.370
11039SOL    HW135014  13.290   3.430  13.341
11039SOL    HW235015  13.412   3.442  13.428
11040SOL     OW35016  11.722   4.513   5.541
11040SOL    HW135017  11.741   4.605   5.528
11040SOL    HW235018  11.657   4.511   5.612
11041SOL     OW35019  10.996   1.780   6.259
11041SOL    HW135020  10.988   1.772   6.164
11041SOL    HW235021  10.961   1.868   6.279
11042SOL     OW35022   2.837  14.546   8.736
11042SOL    HW135023   2.753  14.581   8.706
11042SOL    HW235024   2.891  14.624   8.752
11043SOL     OW35025  13.507   0.779  13.456
11043SOL    HW135026  13.432   0.732  13.418
11043SOL    HW235027  13.487   0.785  13.549
11044SOL     OW35028   6.838   9.356   5.351
11044SOL    HW135029   6.882   9.292   5.407
11044SOL    HW235030   6.908   9.415   5.323
11045SOL     OW35031  12.294   1.622   5.557
11045SOL    HW135032  12.375   1.638   5.606
11045SOL    HW235033  12.277   1.705   5.512
11046SOL     OW35034   6.671   3.000   4.343
11046SOL    HW135035   6.669   2.927   4.406
11046SOL    HW235036   6.758   3.039   4.354
11047SOL     OW35037  11.627   2.958   5.756
11047SOL    HW135038  11.601   3.050   5.754
11047SOL    HW235039  11.601   2.928   5.843
11048SOL     OW35040   7.620  10.347  10.276
11048SOL    HW135041   7.616  10.440  10.299
11048SOL    HW235042   7.707  10.319  10.302
11049SOL     OW35043   1.327  11.117   9.173
11049SOL    HW135044   1.299  11.200   9.136
11049SOL    HW235045   1.290  11.051   9.114
11050SOL     OW35046   2.804  12.190   5.346
11050SOL    HW135047   2.865  12.262   5.364
11050SOL    HW235048   2.841  12.116   5.395
11051SOL     OW35049   4.753   2.967   9.027
11051SOL    HW135050   4.831   2.931   9.070
11051SOL    HW235051   4.697   2.996   9.100
11052SOL     OW35052   8.567   5.972   6.902
11052SOL    HW135053   8.472   5.960   6.909
11052SOL    HW235054   8.588   6.040   6.967
11053SOL     OW35055   8.917  11.192   5.217
11053SOL    HW135056   8.897  11.098   5.224
11053SOL    HW235057   8.986  11.206   5.282
11054SOL     OW35058  13.229  14.737   7.276
11054SOL    HW135059  13.311  14.709   7.317
11054SOL    HW235060  13.186  14.791   7.342
11055SOL     OW35061   6.945   4.439  14.699
11055SOL    HW135062   6.969   4.441  14.791
11055SOL    HW235063   7.029   4.433  14.652
11056SOL     OW35064   9.785   6.922   5.692
11056SOL    HW135065   9.859   6.903   5.634
11056SOL    HW235066   9.712   6.940   5.633
11057SOL     OW35067   8.113  10.601   9.187
11057SOL    HW135068   8.127  10.508   9.208
11057SOL    HW235069   8.030  10.623   9.229
11058SOL     OW35070   9.669   3.048  12.547
11058SOL    HW135071   9.593   2.992  12.566
11058SOL    HW235072   9.671   3.054  12.452
11059SOL     OW35073   4.211   9.373  11.099
11059SOL    HW135074   4.182   9.293  11.143
11059SOL    HW235075   4.130   9.423  11.084
11060SOL     OW35076  11.526   7.624   0.847
11060SOL    HW135077  11.509   7.710   0.809
11060SOL    HW235078  11.609   7.634   0.894
11061SOL     OW35079   3.534   5.285   5.874
11061SOL    HW135080   3.524   5.379   5.891
11061SOL    HW235081   3.451   5.247   5.901
11062SOL     OW35082   1.765  12.448   4.724
11062SOL    HW135083   1.803  12.444   4.811
11062SOL    HW235084   1.705  12.523   4.727
11063SOL     OW35085   2.238   1.105  10.413
11063SOL    HW135086   2.208   1.191  10.442
11063SOL    HW235087   2.247   1.113  10.318
11064SOL     OW35088   0.888  11.237  10.203
11064SOL    HW135089   0.933  11.153  10.199
11064SOL    HW235090   0.796  11.215  10.214
11065SOL     OW35091  12.492   6.441  12.486
11065SOL    HW135092  12.454   6.426  12.400
11065SOL    HW235093  12.575   6.393  12.485
11066SOL     OW35094   8.261   3.690   8.223
11066SOL    HW135095   8.180   3.738   8.204
11066SOL    HW235096   8.270   3.629   8.149
11067SOL     OW35097  12.922   1.064  14.592
11067SOL    HW135098  12.902   1.004  14.664
11067SOL    HW235099  12.840   1.109  14.574
11068SOL     OW35100   1.959  13.156  12.954
11068SOL    HW135101   2.048  13.122  12.946
11068SOL    HW235102   1.929  13.165  12.863
11069SOL     OW35103   3.665   1.516   9.899
11069SOL    HW135104   3.732   1.493   9.835
11069SOL    HW235105   3.586   1.533   9.847
11070SOL     OW35106   3.242  14.714   6.343
11070SOL    HW135107   3.244  14.796   6.293
11070SOL    HW235108   3.303  14.728   6.415
11071SOL     OW35109   2.108  13.506  11.817
11071SOL    HW135110   2.051  13.545  11.883
11071SOL    HW235111   2.052  13.500  11.739
11072SOL     OW35112   5.828   6.252  14.033
11072SOL    HW135113   5.889   6.198  13.983
11072SOL    HW235114   5.880   6.285  14.106
11073SOL     OW35115   7.565   2.487  14.358
11073SOL    HW135116   7.569   2.463  14.265
11073SOL    HW235117   7.628   2.559  14.367
11074SOL     OW35118   4.357   3.835  12.475
11074SOL    HW135119   4.400   3.765  12.523
11074SOL    HW235120   4.417   3.909  12.482
11075SOL     OW35121  11.105   3.319   5.349
11075SOL    HW135122  11.200   3.334   5.350
11075SOL    HW235123  11.068   3.405   5.367
11076SOL     OW35124   8.831   7.089   9.181
11076SOL    HW135125   8.814   7.012   9.236
11076SOL    HW235126   8.900   7.136   9.228
11077SOL     OW35127  12.424   3.821   1.987
11077SOL    HW135128  12.457   3.737   1.955
11077SOL    HW235129  12.487   3.886   1.956
11078SOL     OW35130   0.361   1.203  12.355
11078SOL    HW135131   0.396   1.291  12.369
11078SOL    HW235132   0.438   1.146  12.354
11079SOL     OW35133   5.514  14.839  12.733
11079SOL    HW135134   5.576  14.845  12.660
11079SOL    HW235135   5.429  14.830  12.690
11080SOL     OW35136   6.405   0.335   8.196
11080SOL    HW135137   6.415   0.330   8.101
11080SOL    HW235138   6.313   0.315   8.212
11081SOL     OW35139   9.208  14.376  13.501
11081SOL    HW135140   9.169  14.314  13.563
11081SOL    HW235141   9.185  14.342  13.415
11082SOL     OW35142  12.023   3.101   5.456
11082SOL    HW135143  12.108   3.058   5.468
11082SOL    HW235144  11.976   3.045   5.394
11083SOL     OW35145  11.859  11.078   7.414
11083SOL    HW135146  11.943  11.115   7.440
11083SOL    HW235147  11.861  10.989   7.449
11084SOL     OW35148   2.060  10.579   3.458
11084SOL    HW135149   1.999  10.510   3.484
11084SOL    HW235150   2.047  10.589   3.364
11085SOL     OW35151   6.321   1.498   5.222
11085SOL    HW135152   6.386   1.511   5.154
11085SOL    HW235153   6.371   1.488   5.303
11086SOL     OW35154  12.744   1.166  10.564
11086SOL    HW135155  12.812   1.218  10.521
11086SOL    HW235156  12.663   1.213  10.546
11087SOL     OW35157  12.281  14.869   7.481
11087SOL    HW135158  12.261  14.864   7.388
11087SOL    HW235159  12.239  14.791   7.518
11088SOL     OW35160   8.703   4.102   5.385
11088SOL    HW135161   8.734   4.023   5.430
11088SOL    HW235162   8.763   4.171   5.414
11089SOL     OW35163   9.119   0.247  10.371
11089SOL    HW135164   9.064   0.325  10.379
11089SOL    HW235165   9.064   0.175  10.400
11090SOL     OW35166   7.270   4.866   8.145
11090SOL    HW135167   7.179   4.893   8.159
11090SOL    HW235168   7.315   4.946   8.119
11091SOL     OW35169  12.853  10.125   8.623
11091SOL    HW135170  12.851  10.165   8.536
11091SOL    HW235171  12.877  10.034   8.607
11092SOL     OW35172   3.411  13.542   9.300
11092SOL    HW135173   3.317  13.533   9.317
11092SOL    HW235174   3.425  13.636   9.294
11093SOL     OW35175   4.194   6.407  13.361
11093SOL    HW135176   4.261   6.473  13.344
11093SOL    HW235177   4.233   6.325  13.330
11094SOL     OW35178   6.757   5.619  11.511
11094SOL    HW135179   6.677   5.583  11.473
11094SOL    HW235180   6.777   5.696  11.458
11095SOL     OW35181   2.504   4.141  13.651
11095SOL    HW135182   2.419   4.097  13.652
11095SOL    HW235183   2.484   4.233  13.634
11096SOL     OW35184   0.794  10.826   5.454
11096SOL    HW135185   0.760  10.798   5.538
11096SOL    HW235186   0.763  10.760   5.391
11097SOL     OW35187   1.899   1.603   7.222
11097SOL    HW135188   1.857   1.518   7.237
11097SOL    HW235189   1.832   1.657   7.181
11098SOL     OW35190  11.388   8.219  14.092
11098SOL    HW135191  11.469   8.258  14.058
11098SOL    HW235192  11.326   8.291  14.096
11099SOL     OW35193   0.964  13.401   8.422
11099SOL    HW135194   1.027  13.451   8.474
11099SOL    HW235195   0.885  13.400   8.475
11100SOL     OW35196   8.008   5.545   5.821
11100SOL    HW135197   8.030   5.595   5.742
11100SOL    HW235198   7.965   5.466   5.788
11101SOL     OW35199   1.550   7.255   6.766
11101SOL    HW135200   1.518   7.335   6.725
11101SOL    HW235201   1.554   7.191   6.694
11102SOL     OW35202   3.217  13.663  13.710
11102SOL    HW135203   3.139  13.659  13.654
11102SOL    HW235204   3.250  13.752  13.699
11103SOL     OW35205   2.460  13.489   0.317
11103SOL    HW135206   2.425  13.570   0.354
11103SOL    HW235207   2.456  13.501   0.223
11104SOL     OW35208  12.007   9.397  14.510
11104SOL    HW135209  12.055   9.327  14.466
11104SOL    HW235210  11.981   9.456  14.439
11105SOL     OW35211   3.236   1.539  12.734
11105SOL    HW135212   3.288   1.538  12.815
11105SOL    HW235213   3.202   1.450  12.727
11106SOL     OW35214   2.276   6.214   2.235
11106SOL    HW135215   2.200   6.271   2.246
11106SOL    HW235216   2.313   6.239   2.150
11107SOL     OW35217  13.608   6.790  12.492
11107SOL    HW135218  13.561   6.869  12.467
11107SOL    HW235219  13.690   6.822  12.531
11108SOL     OW35220  13.808   7.476   6.970
11108SOL    HW135221  13.722   7.491   6.929
11108SOL    HW235222  13.833   7.561   7.005
11109SOL     OW35223   4.369   8.177   0.021
11109SOL    HW135224   4.295   8.116   0.021
11109SOL    HW235225   4.330   8.262   0.040
11110SOL     OW35226   0.166   5.515   6.070
11110SOL    HW135227   0.093   5.486   6.015
11110SOL    HW235228   0.175   5.608   6.050
11111SOL     OW35229  11.538   6.464   1.140
11111SOL    HW135230  11.490   6.460   1.223
11111SOL    HW235231  11.470   6.453   1.073
11112SOL     OW35232  14.566   3.244   0.522
11112SOL    HW135233  14.622   3.167   0.527
11112SOL    HW235234  14.548   3.254   0.428
11113SOL     OW35235   8.428  14.681   8.594
11113SOL    HW135236   8.484  14.614   8.633
11113SOL    HW235237   8.431  14.663   8.500
11114SOL     OW35238  11.953   7.894   2.625
11114SOL    HW135239  11.980   7.903   2.534
11114SOL    HW235240  11.983   7.807   2.650
11115SOL     OW35241   9.163  11.484   1.670
11115SOL    HW135242   9.222  11.440   1.731
11115SOL    HW235243   9.166  11.432   1.591
11116SOL     OW35244  14.364   2.153  10.730
11116SOL    HW135245  14.407   2.171  10.813
11116SOL    HW235246  14.392   2.223  10.672
11117SOL     OW35247   3.852   0.467   3.392
11117SOL    HW135248   3.804   0.499   3.316
11117SOL    HW235249   3.889   0.383   3.363
11118SOL     OW35250   3.054   1.799   6.621
11118SOL    HW135251   3.110   1.760   6.687
11118SOL    HW235252   3.044   1.890   6.649
11119SOL     OW35253   5.345   4.825   7.830
11119SOL    HW135254   5.410   4.894   7.837
11119SOL    HW235255   5.391   4.745   7.854
11120SOL     OW35256   0.319   0.363  11.381
11120SOL    HW135257   0.249   0.298  11.380
11120SOL    HW235258   0.388   0.323  11.434
11121SOL     OW35259   9.396  11.933   8.837
11121SOL    HW135260   9.428  11.878   8.765
11121SOL    HW235261   9.336  11.876   8.885
11122SOL     OW35262   4.376   8.815  13.901
11122SOL    HW135263   4.324   8.751  13.852
11122SOL    HW235264   4.339   8.900  13.878
11123SOL     OW35265   5.952   6.750   8.686
11123SOL    HW135266   5.969   6.709   8.601
11123SOL    HW235267   6.017   6.711   8.745
11124SOL     OW35268   9.455  13.555  12.776
11124SOL    HW135269   9.551  13.548  12.777
11124SOL    HW235270   9.431  13.532  12.686
11125SOL     OW35271   5.760  11.266  12.570
11125SOL    HW135272   5.816  11.268  12.493
11125SOL    HW235273   5.715  11.351  12.569
11126SOL     OW35274   2.256  13.682   7.054
11126SOL    HW135275   2.173  13.637   7.038
11126SOL    HW235276   2.294  13.694   6.967
11127SOL     OW35277   4.347   9.097  12.274
11127SOL    HW135278   4.351   9.012  12.318
11127SOL    HW235279   4.257   9.103  12.241
11128SOL     OW35280   2.209   1.878   8.315
11128SOL    HW135281   2.123   1.847   8.345
11128SOL    HW235282   2.209   1.972   8.333
11129SOL     OW35283   6.469  13.727  12.726
11129SOL    HW135284   6.483  13.695  12.815
11129SOL    HW235285   6.510  13.814  12.725
11130SOL     OW35286   2.783   1.110   2.113
11130SOL    HW135287   2.765   1.047   2.182
11130SOL    HW235288   2.877   1.102   2.097
11131SOL     OW35289  11.706   0.625   2.019
11131SOL    HW135290  11.788   0.607   2.065
11131SOL    HW235291  11.702   0.720   2.014
11132SOL     OW35292  12.827   3.687  13.929
11132SOL    HW135293  12.768   3.658  13.860
11132SOL    HW235294  12.907   3.713  13.883
11133SOL     OW35295   2.171  14.099   0.135
11133SOL    HW135296   2.092  14.059   0.100
11133SOL    HW235297   2.164  14.192   0.114
11134SOL     OW35298   8.706   6.974   8.840
11134SOL    HW135299   8.741   7.059   8.869
11134SOL    HW235300   8.613   6.990   8.825
11135SOL     OW35301   2.274   7.806   5.074
11135SOL    HW135302   2.318   7.796   5.159
11135SOL    HW235303   2.212   7.733   5.071
11136SOL     OW35304  11.747   9.724   0.977
11136SOL    HW135305  11.832   9.764   0.962
11136SOL    HW235306  11.707   9.779   1.045
11137SOL     OW35307   1.248   2.065   6.504
11137SOL    HW135308   1.228   2.097   6.416
11137SOL    HW235309   1.267   2.143   6.555
11138SOL     OW35310   4.752   5.846   7.402
11138SOL    HW135311   4.746   5.937   7.429
11138SOL    HW235312   4.664   5.810   7.418
11139SOL     OW35313  10.345   3.461   6.309
11139SOL    HW135314  10.320   3.517   6.236
11139SOL    HW235315  10.275   3.396   6.314
11140SOL     OW35316  11.839   2.351   1.989
11140SOL    HW135317  11.755   2.393   2.010
11140SOL    HW235318  11.855   2.293   2.064
11141SOL     OW35319   6.740   7.497  10.167
11141SOL    HW135320   6.683   7.572  10.148
11141SOL    HW235321   6.741   7.491  10.262
11142SOL     OW35322   5.914   0.995   7.905
11142SOL    HW135323   5.994   0.942   7.908
11142SOL    HW235324   5.915   1.045   7.986
11143SOL     OW35325  10.058  10.428   9.993
11143SOL    HW135326  10.089  10.512   9.960
11143SOL    HW235327  10.119  10.406  10.064
11144SOL     OW35328   6.455   6.949  13.521
11144SOL    HW135329   6.505   6.943  13.603
11144SOL    HW235330   6.383   6.887  13.533
11145SOL     OW35331   5.279   9.724   0.176
11145SOL    HW135332   5.297   9.769   0.094
11145SOL    HW235333   5.199   9.674   0.159
11146SOL     OW35334   6.251   8.694   6.972
11146SOL    HW135335   6.277   8.604   6.952
11146SOL    HW235336   6.293   8.713   7.056
11147SOL     OW35337   6.555  13.479   8.260
11147SOL    HW135338   6.604  13.531   8.323
11147SOL    HW235339   6.468  13.518   8.258
11148SOL     OW35340   3.762  10.282   5.663
11148SOL    HW135341   3.824  10.354   5.676
11148SOL    HW235342   3.763  10.266   5.569
11149SOL     OW35343   0.623   0.618  11.386
11149SOL    HW135344   0.636   0.641  11.293
11149SOL    HW235345   0.593   0.700  11.426
11150SOL     OW35346   3.643  11.544   1.234
11150SOL    HW135347   3.668  11.637   1.233
11150SOL    HW235348   3.548  11.545   1.249
11151SOL     OW35349  11.698   7.943   4.084
11151SOL    HW135350  11.715   7.951   3.990
11151SOL    HW235351  11.683   8.033   4.113
11152SOL     OW35352   4.543  12.508   9.871
11152SOL    HW135353   4.557  12.584   9.816
11152SOL    HW235354   4.473  12.459   9.828
11153SOL     OW35355   7.126   8.159  13.092
11153SOL    HW135356   7.103   8.202  13.174
11153SOL    HW235357   7.082   8.210  13.025
11154SOL     OW35358   3.307  10.651   7.034
11154SOL    HW135359   3.265  10.565   7.027
11154SOL    HW235360   3.255  10.708   6.976
11155SOL     OW35361  13.698   5.135  12.584
11155SOL    HW135362  13.630   5.190  12.624
11155SOL    HW235363  13.658   5.048  12.579
11156SOL     OW35364  13.157   7.012   3.575
11156SOL    HW135365  13.120   6.924   3.584
11156SOL    HW235366  13.196   7.030   3.660
11157SOL     OW35367  10.976  13.054   4.125
11157SOL    HW135368  10.976  13.060   4.220
11157SOL    HW235369  11.068  13.048   4.101
11158SOL     OW35370   4.717   4.277  13.760
11158SOL    HW135371   4.690   4.199  13.808
11158SOL    HW235372   4.636   4.324  13.742
11159SOL     OW35373   1.183   8.185   0.492
11159SOL    HW135374   1.213   8.148   0.409
11159SOL    HW235375   1.114   8.246   0.468
11160SOL     OW35376   8.808  14.055  13.885
11160SOL    HW135377   8.769  14.124  13.832
11160SOL    HW235378   8.761  13.976  13.860
11161SOL     OW35379   0.621   4.414  11.890
11161SOL    HW135380   0.582   4.452  11.969
11161SOL    HW235381   0.548   4.411  11.828
11162SOL     OW35382   7.094  14.397  11.357
11162SOL    HW135383   7.131  14.480  11.387
11162SOL    HW235384   7.053  14.359  11.434
11163SOL     OW35385   2.189  11.243  11.280
11163SOL    HW135386   2.205  11.271  11.190
11163SOL    HW235387   2.224  11.154  11.284
11164SOL     OW35388  10.658   2.922   8.606
11164SOL    HW135389  10.606   2.865   8.550
11164SOL    HW235390  10.650   3.009   8.567
11165SOL     OW35391  11.362   2.401   3.892
11165SOL    HW135392  11.317   2.319   3.871
11165SOL    HW235393  11.455   2.381   3.880
11166SOL     OW35394   9.962   4.545  10.872
11166SOL    HW135395   9.973   4.551  10.777
11166SOL    HW235396   9.870   4.525  10.885
11167SOL     OW35397   1.215  14.361   3.704
11167SOL    HW135398   1.133  14.313   3.718
11167SOL    HW235399   1.186  14.448   3.676
11168SOL     OW35400   5.069  11.404   7.801
11168SOL    HW135401   5.139  11.378   7.861
11168SOL    HW235402   5.087  11.355   7.720
11169SOL     OW35403   9.874   0.464   6.921
11169SOL    HW135404   9.785   0.431   6.914
11169SOL    HW235405   9.863   0.556   6.948
11170SOL     OW35406   7.039   1.072  14.812
11170SOL    HW135407   7.040   1.023  14.730
11170SOL    HW235408   7.072   1.010   0.007
11171SOL     OW35409  10.032  13.313  12.679
11171SOL    HW135410  10.074  13.228  12.665
11171SOL    HW235411   9.940  13.298  12.657
11172SOL     OW35412  14.196   8.565   5.100
11172SOL    HW135413  14.136   8.493   5.118
11172SOL    HW235414  14.216   8.557   5.007
11173SOL     OW35415   4.615   1.183  12.973
11173SOL    HW135416   4.611   1.268  12.929
11173SOL    HW235417   4.561   1.125  12.919
11174SOL     OW35418   5.389   3.363  12.286
11174SOL    HW135419   5.448   3.437  12.299
11174SOL    HW235420   5.361   3.370  12.195
11175SOL     OW35421  10.543   4.844   6.319
11175SOL    HW135422  10.592   4.777   6.367
11175SOL    HW235423  10.589   4.851   6.235
11176SOL     OW35424  13.883   9.946   9.565
11176SOL    HW135425  13.950   9.881   9.587
11176SOL    HW235426  13.874   9.999   9.644
11177SOL     OW35427   8.536   3.496   5.906
11177SOL    HW135428   8.570   3.478   5.994
11177SOL    HW235429   8.601   3.458   5.847
11178SOL     OW35430   6.961   5.652   6.680
11178SOL    HW135431   6.997   5.653   6.769
11178SOL    HW235432   6.998   5.730   6.638
11179SOL     OW35433  10.468   1.027  10.438
11179SOL    HW135434  10.425   1.112  10.452
11179SOL    HW235435  10.412   0.964  10.482
11180SOL     OW35436   8.918  13.641   6.947
11180SOL    HW135437   8.828  13.666   6.966
11180SOL    HW235438   8.911  13.559   6.899
11181SOL     OW35439  11.613  10.335   4.918
11181SOL    HW135440  11.684  10.331   4.983
11181SOL    HW235441  11.536  10.306   4.966
11182SOL     OW35442   7.096   9.513  12.873
11182SOL    HW135443   7.187   9.532  12.850
11182SOL    HW235444   7.099   9.429  12.918
11183SOL     OW35445   5.612   8.167   3.826
11183SOL    HW135446   5.608   8.186   3.920
11183SOL    HW235447   5.617   8.253   3.784
11184SOL     OW35448  11.319   4.339   8.639
11184SOL    HW135449  11.305   4.314   8.548
11184SOL    HW235450  11.356   4.427   8.635
11185SOL     OW35451  11.267   4.648  13.859
11185SOL    HW135452  11.226   4.632  13.943
11185SOL    HW235453  11.341   4.706  13.878
11186SOL     OW35454   1.536   5.505  13.721
11186SOL    HW135455   1.505   5.593  13.741
11186SOL    HW235456   1.614   5.518  13.668
11187SOL     OW35457  11.678  12.825   7.587
11187SOL    HW135458  11.730  12.746   7.599
11187SOL    HW235459  11.709  12.884   7.657
11188SOL     OW35460   7.051   0.771   2.008
11188SOL    HW135461   7.045   0.839   2.075
11188SOL    HW235462   6.989   0.798   1.940
11189SOL     OW35463  14.836  11.343   6.455
11189SOL    HW135464  14.762  11.287   6.431
11189SOL    HW235465  14.803  11.398   6.526
11190SOL     OW35466  13.398   8.243   5.784
11190SOL    HW135467  13.472   8.261   5.842
11190SOL    HW235468  13.346   8.323   5.786
11191SOL     OW35469  10.079   7.431   5.342
11191SOL    HW135470  10.065   7.339   5.363
11191SOL    HW235471  10.016   7.450   5.273
11192SOL     OW35472   9.844   9.925   7.808
11192SOL    HW135473   9.869   9.962   7.724
11192SOL    HW235474   9.768   9.869   7.788
11193SOL     OW35475   1.921   6.257  12.525
11193SOL    HW135476   1.881   6.286  12.607
11193SOL    HW235477   1.847   6.236  12.469
11194SOL     OW35478   1.817   3.185   3.186
11194SOL    HW135479   1.897   3.160   3.140
11194SOL    HW235480   1.840   3.265   3.233
11195SOL     OW35481   0.853   5.221   1.375
11195SOL    HW135482   0.802   5.144   1.348
11195SOL    HW235483   0.880   5.202   1.464
11196SOL     OW35484  13.838   5.892  10.282
11196SOL    HW135485  13.762   5.876  10.337
11196SOL    HW235486  13.912   5.894  10.343
11197SOL     OW35487   6.572  10.116  11.420
11197SOL    HW135488   6.637  10.049  11.439
11197SOL    HW235489   6.618  10.180  11.366
11198SOL     OW35490  10.197  11.245   5.238
11198SOL    HW135491  10.207  11.152   5.257
11198SOL    HW235492  10.188  11.287   5.324
11199SOL     OW35493   9.434   8.426   0.469
11199SOL    HW135494   9.430   8.519   0.492
11199SOL    HW235495   9.398   8.381   0.545
11200SOL     OW35496   0.712   2.989   2.673
11200SOL    HW135497   0.624   2.952   2.667
11200SOL    HW235498   0.722   3.038   2.591
11201SOL     OW35499   9.796   9.062   7.395
11201SOL    HW135500   9.706   9.091   7.384
11201SOL    HW235501   9.799   8.977   7.350
11202SOL     OW35502   3.293  13.200  12.412
11202SOL    HW135503   3.342  13.148  12.475
11202SOL    HW235504   3.317  13.290  12.431
11203SOL     OW35505   9.424  13.848  10.555
11203SOL    HW135506   9.491  13.864  10.489
11203SOL    HW235507   9.363  13.787  10.514
11204SOL     OW35508   5.083   6.733   1.636
11204SOL    HW135509   5.053   6.823   1.654
11204SOL    HW235510   5.109   6.734   1.544
11205SOL     OW35511   8.803   8.626   6.576
11205SOL    HW135512   8.824   8.666   6.661
11205SOL    HW235513   8.744   8.689   6.535
11206SOL     OW35514   6.267   8.866  10.676
11206SOL    HW135515   6.330   8.905  10.616
11206SOL    HW235516   6.217   8.940  10.710
11207SOL     OW35517   0.901   5.668   6.850
11207SOL    HW135518   0.922   5.579   6.876
11207SOL    HW235519   0.831   5.695   6.910
11208SOL     OW35520   5.622   8.838   0.223
11208SOL    HW135521   5.652   8.766   0.278
11208SOL    HW235522   5.680   8.837   0.147
11209SOL     OW35523   1.637   4.408   9.855
11209SOL    HW135524   1.698   4.393   9.927
11209SOL    HW235525   1.658   4.340   9.791
11210SOL     OW35526  10.126   8.774   3.354
11210SOL    HW135527  10.156   8.834   3.422
11210SOL    HW235528  10.034   8.797   3.340
11211SOL     OW35529  14.406  10.021   9.207
11211SOL    HW135530  14.471  10.090   9.214
11211SOL    HW235531  14.450   9.951   9.159
11212SOL     OW35532   0.815  12.543   7.583
11212SOL    HW135533   0.849  12.492   7.509
11212SOL    HW235534   0.812  12.480   7.655
11213SOL     OW35535   9.543   3.743  12.721
11213SOL    HW135536   9.486   3.812  12.756
11213SOL    HW235537   9.507   3.662  12.757
11214SOL     OW35538   8.410   3.728  11.722
11214SOL    HW135539   8.412   3.813  11.677
11214SOL    HW235540   8.358   3.745  11.801
11215SOL     OW35541   7.357   4.378   7.053
11215SOL    HW135542   7.324   4.463   7.081
11215SOL    HW235543   7.302   4.354   6.978
11216SOL     OW35544  12.684   0.907   8.046
11216SOL    HW135545  12.663   0.825   8.090
11216SOL    HW235546  12.777   0.902   8.027
11217SOL     OW35547   3.219   1.633   2.174
11217SOL    HW135548   3.263   1.714   2.200
11217SOL    HW235549   3.273   1.598   2.103
11218SOL     OW35550  12.354   9.807   4.883
11218SOL    HW135551  12.378   9.877   4.943
11218SOL    HW235552  12.277   9.767   4.924
11219SOL     OW35553   3.533   4.089   7.391
11219SOL    HW135554   3.513   4.132   7.308
11219SOL    HW235555   3.607   4.138   7.427
11220SOL     OW35556   6.717   2.395   6.399
11220SOL    HW135557   6.728   2.453   6.474
11220SOL    HW235558   6.736   2.449   6.323
11221SOL     OW35559  12.690  13.596   7.236
11221SOL    HW135560  12.625  13.546   7.284
11221SOL    HW235561  12.645  13.628   7.158
11222SOL     OW35562  10.903   1.234  12.674
11222SOL    HW135563  10.842   1.298  12.637
11222SOL    HW235564  10.989   1.267  12.650
11223SOL     OW35565   3.834   1.117   4.760
11223SOL    HW135566   3.918   1.081   4.732
11223SOL    HW235567   3.772   1.044   4.754
11224SOL     OW35568   3.134   4.019   0.160
11224SOL    HW135569   3.047   3.986   0.140
11224SOL    HW235570   3.158   4.070   0.082
11225SOL     OW35571   0.310  11.477  11.186
11225SOL    HW135572   0.402  11.478  11.161
11225SOL    HW235573   0.272  11.405  11.136
11226SOL     OW35574   7.689   8.095   6.170
11226SOL    HW135575   7.705   8.087   6.076
11226SOL    HW235576   7.620   8.162   6.176
11227SOL     OW35577   5.605   0.563   0.360
11227SOL    HW135578   5.579   0.641   0.408
11227SOL    HW235579   5.628   0.595   0.272
11228SOL     OW35580  12.839   2.226   8.980
11228SOL    HW135581  12.909   2.290   8.986
11228SOL    HW235582  12.787   2.252   8.904
11229SOL     OW35583  12.862  12.836   6.813
11229SOL    HW135584  12.895  12.748   6.798
11229SOL    HW235585  12.907  12.866   6.892
11230SOL     OW35586   4.119   9.940  12.250
11230SOL    HW135587   4.144   9.943  12.157
11230SOL    HW235588   4.186   9.991  12.295
11231SOL     OW35589   7.562   1.706   0.081
11231SOL    HW135590   7.642   1.716   0.030
11231SOL    HW235591   7.591   1.673   0.166
11232SOL     OW35592   9.056   1.500  14.270
11232SOL    HW135593   9.016   1.468  14.351
11232SOL    HW235594   9.079   1.420  14.222
11233SOL     OW35595  14.112   6.879   0.436
11233SOL    HW135596  14.031   6.927   0.419
11233SOL    HW235597  14.095   6.790   0.403
11234SOL     OW35598   9.394  14.809   9.724
11234SOL    HW135599   9.316  14.784   9.774
11234SOL    HW235600   9.362   0.001   9.659
11235SOL     OW35601  11.726   4.339   4.701
11235SOL    HW135602  11.792   4.314   4.766
11235SOL    HW235603  11.753   4.293   4.621
11236SOL     OW35604   0.191  12.877   2.699
11236SOL    HW135605   0.286  12.871   2.688
11236SOL    HW235606   0.157  12.891   2.611
11237SOL     OW35607  11.791   4.895  13.973
11237SOL    HW135608  11.736   4.839  14.028
11237SOL    HW235609  11.827   4.836  13.907
11238SOL     OW35610  14.231  12.001   6.431
11238SOL    HW135611  14.247  12.002   6.336
11238SOL    HW235612  14.217  12.093   6.454
11239SOL     OW35613  13.633  10.283   8.755
11239SOL    HW135614  13.721  10.248   8.764
11239SOL    HW235615  13.612  10.318   8.841
11240SOL     OW35616   1.921   4.423   8.532
11240SOL    HW135617   1.940   4.413   8.626
11240SOL    HW235618   1.939   4.515   8.514
11241SOL     OW35619   8.592   8.076   5.675
11241SOL    HW135620   8.590   8.083   5.771
11241SOL    HW235621   8.685   8.077   5.653
11242SOL     OW35622  14.400  13.248   2.169
11242SOL    HW135623  14.355  13.213   2.246
11242SOL    HW235624  14.457  13.176   2.140
11243SOL     OW35625  11.428  13.816  10.986
11243SOL    HW135626  11.491  13.746  11.004
11243SOL    HW235627  11.478  13.881  10.936
11244SOL     OW35628  13.800   9.999   5.370
11244SOL    HW135629  13.860  10.074   5.361
11244SOL    HW235630  13.735  10.012   5.301
11245SOL     OW35631   7.294  14.514  12.306
11245SOL    HW135632   7.387  14.530  12.319
11245SOL    HW235633   7.258  14.510  12.395
11246SOL     OW35634   8.772   7.581   4.698
11246SOL    HW135635   8.695   7.604   4.750
11246SOL    HW235636   8.741   7.585   4.607
11247SOL     OW35637   4.022   0.295   2.117
11247SOL    HW135638   3.995   0.225   2.058
11247SOL    HW235639   4.092   0.340   2.070
11248SOL     OW35640  11.564  14.600  10.226
11248SOL    HW135641  11.657  14.614  10.206
11248SOL    HW235642  11.532  14.547  10.153
11249SOL     OW35643  13.848   8.055  12.771
11249SOL    HW135644  13.783   8.113  12.731
11249SOL    HW235645  13.870   8.098  12.854
11250SOL     OW35646  11.780   1.019   7.343
11250SOL    HW135647  11.740   1.015   7.256
11250SOL    HW235648  11.872   1.040   7.325
11251SOL     OW35649   7.134  14.345  10.753
11251SOL    HW135650   7.114  14.430  10.792
11251SOL    HW235651   7.109  14.354  10.661
11252SOL     OW35652   3.994   1.633   7.107
11252SOL    HW135653   3.914   1.660   7.150
11252SOL    HW235654   4.054   1.611   7.178
11253SOL     OW35655   9.604   5.593   8.455
11253SOL    HW135656   9.691   5.565   8.425
11253SOL    HW235657   9.543   5.546   8.398
11254SOL     OW35658   2.608   2.306  12.728
11254SOL    HW135659   2.632   2.238  12.792
11254SOL    HW235660   2.577   2.257  12.652
11255SOL     OW35661   6.112   6.932  11.838
11255SOL    HW135662   6.125   6.930  11.933
11255SOL    HW235663   6.066   6.850  11.819
11256SOL     OW35664   0.378   7.992   2.646
11256SOL    HW135665   0.326   7.964   2.571
11256SOL    HW235666   0.315   7.999   2.718
11257SOL     OW35667   8.182   9.519  13.255
11257SOL    HW135668   8.263   9.477  13.284
11257SOL    HW235669   8.125   9.447  13.229
11258SOL     OW35670  10.121   3.322   0.497
11258SOL    HW135671  10.204   3.305   0.542
11258SOL    HW235672  10.134   3.407   0.454
11259SOL     OW35673  14.095   9.143  13.467
11259SOL    HW135674  14.021   9.171  13.519
11259SOL    HW235675  14.132   9.069  13.515
11260SOL     OW35676   6.730   9.368   7.114
11260SOL    HW135677   6.814   9.324   7.128
11260SOL    HW235678   6.664   9.303   7.138
11261SOL     OW35679  11.424   5.191   9.167
11261SOL    HW135680  11.503   5.244   9.173
11261SOL    HW235681  11.354   5.248   9.200
11262SOL     OW35682  10.651   6.820  11.758
11262SOL    HW135683  10.716   6.768  11.710
11262SOL    HW235684  10.654   6.906  11.717
11263SOL     OW35685   6.333   3.890   2.168
11263SOL    HW135686   6.307   3.842   2.090
11263SOL    HW235687   6.419   3.926   2.148
11264SOL     OW35688   6.794   6.960   1.821
11264SOL    HW135689   6.796   6.975   1.916
11264SOL    HW235690   6.713   7.002   1.792
11265SOL     OW35691   3.956   9.283  14.459
11265SOL    HW135692   4.048   9.262  14.479
11265SOL    HW235693   3.941   9.368  14.501
11266SOL     OW35694   3.031  14.534   2.775
11266SOL    HW135695   3.093  14.584   2.721
11266SOL    HW235696   3.079  14.519   2.857
11267SOL     OW35697  11.072   0.334  14.768
11267SOL    HW135698  11.128   0.387  14.824
11267SOL    HW235699  11.129   0.309  14.695
11268SOL     OW35700  11.006   0.360  12.765
11268SOL    HW135701  10.921   0.320  12.747
11268SOL    HW235702  11.027   0.408  12.685
11269SOL     OW35703   6.084  13.427   6.000
11269SOL    HW135704   6.051  13.480   6.073
11269SOL    HW235705   6.009  13.376   5.972
11270SOL     OW35706   4.407  12.282  12.082
11270SOL    HW135707   4.464  12.250  12.012
11270SOL    HW235708   4.338  12.330  12.036
11271SOL     OW35709   2.151   4.301  11.998
11271SOL    HW135710   2.159   4.376  11.940
11271SOL    HW235711   2.237   4.295  12.041
11272SOL     OW35712   5.596  10.997  14.866
11272SOL    HW135713   5.581  11.075  14.813
11272SOL    HW235714   5.580  10.923  14.807
11273SOL     OW35715   2.110   2.222  10.336
11273SOL    HW135716   2.129   2.173  10.256
11273SOL    HW235717   2.087   2.310  10.305
11274SOL     OW35718   5.820  12.198   1.985
11274SOL    HW135719   5.895  12.155   1.943
11274SOL    HW235720   5.790  12.262   1.921
11275SOL     OW35721  12.608   2.692  12.074
11275SOL    HW135722  12.633   2.653  11.991
11275SOL    HW235723  12.518   2.723  12.060
11276SOL     OW35724  14.120   5.707   8.565
11276SOL    HW135725  14.056   5.642   8.594
11276SOL    HW235726  14.096   5.725   8.474
11277SOL     OW35727  10.132   9.477  10.738
11277SOL    HW135728  10.193   9.545  10.708
11277SOL    HW235729  10.053   9.525  10.763
11278SOL     OW35730   1.527   4.326  12.302
11278SOL    HW135731   1.463   4.396  12.287
11278SOL    HW235732   1.589   4.364  12.365
11279SOL     OW35733   9.458   5.530  14.645
11279SOL    HW135734   9.389   5.594  14.629
11279SOL    HW235735   9.534   5.564  14.597
11280SOL     OW35736   4.957   4.786   3.574
11280SOL    HW135737   4.992   4.825   3.654
11280SOL    HW235738   4.878   4.836   3.555
11281SOL     OW35739  14.546  11.609   0.808
11281SOL    HW135740  14.472  11.664   0.832
11281SOL    HW235741  14.580  11.576   0.891
11282SOL     OW35742   8.572   6.748   9.978
11282SOL    HW135743   8.606   6.837   9.985
11282SOL    HW235744   8.513   6.739  10.053
11283SOL     OW35745   4.343  10.072   0.705
11283SOL    HW135746   4.366  10.034   0.789
11283SOL    HW235747   4.426  10.106   0.671
11284SOL     OW35748  11.118  12.356   8.286
11284SOL    HW135749  11.047  12.399   8.239
11284SOL    HW235750  11.082  12.272   8.312
11285SOL     OW35751   6.621   6.612   7.581
11285SOL    HW135752   6.530   6.606   7.609
11285SOL    HW235753   6.664   6.662   7.650
11286SOL     OW35754  10.846   4.091  10.156
11286SOL    HW135755  10.871   3.999  10.157
11286SOL    HW235756  10.750   4.089  10.158
11287SOL     OW35757   0.176   3.034   3.795
11287SOL    HW135758   0.217   2.985   3.724
11287SOL    HW235759   0.117   2.972   3.837
11288SOL     OW35760   5.375  14.095   7.136
11288SOL    HW135761   5.319  14.072   7.062
11288SOL    HW235762   5.447  14.145   7.096
11289SOL     OW35763  12.509   0.632  13.754
11289SOL    HW135764  12.449   0.569  13.794
11289SOL    HW235765  12.587   0.629  13.810
11290SOL     OW35766   6.508  12.577  14.476
11290SOL    HW135767   6.490  12.529  14.557
11290SOL    HW235768   6.545  12.512  14.417
11291SOL     OW35769   0.193   2.318   4.126
11291SOL    HW135770   0.134   2.287   4.058
11291SOL    HW235771   0.136   2.347   4.197
11292SOL     OW35772   3.873   9.110  11.795
11292SOL    HW135773   3.855   9.111  11.701
11292SOL    HW235774   3.801   9.161  11.833
11293SOL     OW35775   7.757   3.628   9.735
11293SOL    HW135776   7.690   3.620   9.803
11293SOL    HW235777   7.708   3.623   9.653
11294SOL     OW35778   9.534   3.605   3.070
11294SOL    HW135779   9.584   3.523   3.078
11294SOL    HW235780   9.566   3.658   3.143
11295SOL     OW35781   8.819   2.851   8.177
11295SOL    HW135782   8.842   2.772   8.226
11295SOL    HW235783   8.752   2.823   8.116
11296SOL     OW35784  11.140   7.819  10.693
11296SOL    HW135785  11.081   7.745  10.704
11296SOL    HW235786  11.083   7.893  10.672
11297SOL     OW35787   3.204   8.723   9.360
11297SOL    HW135788   3.260   8.764   9.294
11297SOL    HW235789   3.116   8.753   9.339
11298SOL     OW35790   8.225   7.344  10.294
11298SOL    HW135791   8.151   7.289  10.266
11298SOL    HW235792   8.203   7.431  10.261
11299SOL     OW35793  11.497  12.338   2.822
11299SOL    HW135794  11.476  12.322   2.914
11299SOL    HW235795  11.580  12.385   2.824
11300SOL     OW35796  10.427   3.489  12.383
11300SOL    HW135797  10.353   3.544  12.357
11300SOL    HW235798  10.453   3.523  12.469
11301SOL     OW35799  13.826   1.119  10.677
11301SOL    HW135800  13.765   1.100  10.606
11301SOL    HW235801  13.831   1.215  10.679
11302SOL     OW35802   9.050   1.365  13.494
11302SOL    HW135803   9.045   1.453  13.533
11302SOL    HW235804   8.960   1.333  13.498
11303SOL     OW35805   0.844  14.638   7.529
11303SOL    HW135806   0.898  14.714   7.506
11303SOL    HW235807   0.762  14.652   7.483
11304SOL     OW35808   7.690  10.772  11.772
11304SOL    HW135809   7.598  10.753  11.795
11304SOL    HW235810   7.687  10.795  11.679
11305SOL     OW35811   6.243  12.368   8.071
11305SOL    HW135812   6.198  12.284   8.073
11305SOL    HW235813   6.224  12.408   8.156
11306SOL     OW35814   4.181   2.634  14.059
11306SOL    HW135815   4.105   2.586  14.090
11306SOL    HW235816   4.221   2.576  13.994
11307SOL     OW35817   3.596   2.317  11.599
11307SOL    HW135818   3.686   2.335  11.574
11307SOL    HW235819   3.591   2.342  11.692
11308SOL     OW35820  12.899   1.998  14.358
11308SOL    HW135821  12.856   1.936  14.416
11308SOL    HW235822  12.919   1.948  14.279
11309SOL     OW35823  11.898  10.522   8.123
11309SOL    HW135824  11.963  10.526   8.053
11309SOL    HW235825  11.819  10.488   8.081
11310SOL     OW35826  10.803   3.169   5.615
11310SOL    HW135827  10.895   3.189   5.629
11310SOL    HW235828  10.756   3.237   5.662
11311SOL     OW35829  10.144   8.693   1.422
11311SOL    HW135830  10.100   8.734   1.496
11311SOL    HW235831  10.227   8.662   1.457
11312SOL     OW35832   1.212  13.438   5.280
11312SOL    HW135833   1.206  13.371   5.348
11312SOL    HW235834   1.200  13.521   5.327
11313SOL     OW35835  13.262  10.965   8.497
11313SOL    HW135836  13.281  11.013   8.417
11313SOL    HW235837  13.166  10.967   8.504
11314SOL     OW35838   1.802   5.473   1.201
11314SOL    HW135839   1.742   5.547   1.189
11314SOL    HW235840   1.889   5.512   1.200
11315SOL     OW35841   4.587   1.521   4.099
11315SOL    HW135842   4.534   1.593   4.134
11315SOL    HW235843   4.665   1.520   4.154
11316SOL     OW35844  12.515   1.306   6.348
11316SOL    HW135845  12.590   1.246   6.344
11316SOL    HW235846  12.464   1.286   6.270
11317SOL     OW35847   6.354   7.645  14.519
11317SOL    HW135848   6.375   7.685  14.435
11317SOL    HW235849   6.279   7.695  14.552
11318SOL     OW35850  14.556   5.251  12.931
11318SOL    HW135851  14.568   5.178  12.991
11318SOL    HW235852  14.509   5.213  12.856
11319SOL     OW35853  11.596  13.097   6.613
11319SOL    HW135854  11.663  13.084   6.680
11319SOL    HW235855  11.525  13.039   6.640
11320SOL     OW35856  14.668   2.231  11.277
11320SOL    HW135857  14.742   2.289  11.258
11320SOL    HW235858  14.681   2.156  11.220
11321SOL     OW35859   2.468  12.015   9.331
11321SOL    HW135860   2.545  12.004   9.386
11321SOL    HW235861   2.480  12.099   9.288
11322SOL     OW35862  14.072   7.099   9.318
11322SOL    HW135863  14.078   7.168   9.252
11322SOL    HW235864  14.107   7.021   9.274
11323SOL     OW35865  13.466   3.924   2.031
11323SOL    HW135866  13.522   3.852   2.002
11323SOL    HW235867  13.397   3.929   1.965
11324SOL     OW35868   6.643   3.140  10.743
11324SOL    HW135869   6.554   3.174  10.751
11324SOL    HW235870   6.674   3.133  10.833
11325SOL     OW35871   0.489  14.747  12.725
11325SOL    HW135872   0.561  14.693  12.690
11325SOL    HW235873   0.469  14.706  12.810
11326SOL     OW35874   8.104   8.274   9.819
11326SOL    HW135875   8.055   8.234   9.748
11326SOL    HW235876   8.191   8.233   9.815
11327SOL     OW35877   3.633   3.535  10.958
11327SOL    HW135878   3.549   3.492  10.970
11327SOL    HW235879   3.612   3.627  10.942
11328SOL     OW35880  10.703  14.337  12.607
11328SOL    HW135881  10.790  14.376  12.607
11328SOL    HW235882  10.715  14.250  12.646
11329SOL     OW35883   9.331  10.389   7.774
11329SOL    HW135884   9.237  10.368   7.773
11329SOL    HW235885   9.339  10.460   7.837
11330SOL     OW35886   5.441  14.654   9.309
11330SOL    HW135887   5.422  14.723   9.245
11330SOL    HW235888   5.512  14.603   9.268
11331SOL     OW35889  10.575  13.873   1.052
11331SOL    HW135890  10.515  13.862   0.979
11331SOL    HW235891  10.571  13.966   1.074
11332SOL     OW35892   2.021   1.516   9.861
11332SOL    HW135893   2.043   1.577   9.790
11332SOL    HW235894   2.054   1.432   9.831
11333SOL     OW35895   8.824   0.561   6.700
11333SOL    HW135896   8.910   0.519   6.693
11333SOL    HW235897   8.765   0.491   6.727
11334SOL     OW35898   5.008   1.198   4.695
11334SOL    HW135899   5.059   1.166   4.620
11334SOL    HW235900   4.936   1.248   4.655
11335SOL     OW35901  12.156   8.216  13.183
11335SOL    HW135902  12.128   8.138  13.135
11335SOL    HW235903  12.145   8.288  13.121
11336SOL     OW35904  12.912   5.807  10.303
11336SOL    HW135905  12.823   5.781  10.327
11336SOL    HW235906  12.953   5.726  10.274
11337SOL     OW35907  14.467   7.719  12.930
11337SOL    HW135908  14.527   7.658  12.973
11337SOL    HW235909  14.457   7.685  12.841
11338SOL     OW35910   2.428   0.220  10.612
11338SOL    HW135911   2.416   0.187  10.522
11338SOL    HW235912   2.350   0.191  10.658
11339SOL     OW35913   3.890  13.501   5.483
11339SOL    HW135914   3.951  13.522   5.554
11339SOL    HW235915   3.830  13.575   5.480
11340SOL     OW35916  14.432   4.902  11.664
11340SOL    HW135917  14.457   4.840  11.595
11340SOL    HW235918  14.419   4.848  11.742
11341SOL     OW35919   7.162   7.642  10.083
11341SOL    HW135920   7.173   7.680   9.996
11341SOL    HW235921   7.168   7.716  10.143
11342SOL     OW35922   8.147  12.533   4.789
11342SOL    HW135923   8.145  12.438   4.802
11342SOL    HW235924   8.229  12.550   4.743
11343SOL     OW35925   2.677   4.864   4.983
11343SOL    HW135926   2.661   4.831   4.895
11343SOL    HW235927   2.739   4.937   4.971
11344SOL     OW35928   1.544   9.541  14.802
11344SOL    HW135929   1.453   9.563  14.785
11344SOL    HW235930   1.583   9.622  14.834
11345SOL     OW35931  10.837  12.454  11.754
11345SOL    HW135932  10.769  12.482  11.815
11345SOL    HW235933  10.806  12.370  11.720
11346SOL     OW35934  14.759   5.183  13.853
11346SOL    HW135935  14.843   5.152  13.820
11346SOL    HW235936  14.694   5.129  13.809
11347SOL     OW35937   0.654  13.740  14.268
11347SOL    HW135938   0.572  13.789  14.270
11347SOL    HW235939   0.717  13.798  14.226
11348SOL     OW35940  11.705  10.772  11.349
11348SOL    HW135941  11.621  10.807  11.319
11348SOL    HW235942  11.770  10.824  11.301
11349SOL     OW35943   0.329   7.248   0.672
11349SOL    HW135944   0.252   7.291   0.710
11349SOL    HW235945   0.379   7.218   0.748
11350SOL     OW35946  10.487   6.239   6.100
11350SOL    HW135947  10.504   6.243   6.194
11350SOL    HW235948  10.401   6.280   6.090
11351SOL     OW35949   9.326   2.235   0.811
11351SOL    HW135950   9.384   2.252   0.737
11351SOL    HW235951   9.379   2.184   0.872
11352SOL     OW35952   3.236   2.758   7.538
11352SOL    HW135953   3.324   2.721   7.544
11352SOL    HW235954   3.184   2.708   7.601
11353SOL     OW35955   9.716  12.367   6.800
11353SOL    HW135956   9.684  12.450   6.834
11353SOL    HW235957   9.678  12.301   6.858
11354SOL     OW35958  10.906  10.970   8.255
11354SOL    HW135959  10.918  11.045   8.198
11354SOL    HW235960  10.813  10.950   8.250
11355SOL     OW35961  10.656   1.965   8.513
11355SOL    HW135962  10.594   1.948   8.443
11355SOL    HW235963  10.635   2.054   8.543
11356SOL     OW35964  10.003   1.895   3.872
11356SOL    HW135965  10.003   1.977   3.823
11356SOL    HW235966   9.917   1.891   3.913
11357SOL     OW35967   5.038  14.148   9.300
11357SOL    HW135968   4.975  14.084   9.333
11357SOL    HW235969   5.057  14.203   9.376
11358SOL     OW35970   6.880   0.939   6.159
11358SOL    HW135971   6.962   0.987   6.171
11358SOL    HW235972   6.861   0.902   6.245
11359SOL     OW35973  14.505   8.432   3.857
11359SOL    HW135974  14.511   8.491   3.932
11359SOL    HW235975  14.595   8.423   3.825
11360SOL     OW35976   3.686  11.047   8.506
11360SOL    HW135977   3.639  11.108   8.563
11360SOL    HW235978   3.644  10.963   8.522
11361SOL     OW35979   7.249   5.864   9.880
11361SOL    HW135980   7.280   5.800   9.815
11361SOL    HW235981   7.252   5.948   9.834
11362SOL     OW35982  13.202  13.488   3.274
11362SOL    HW135983  13.277  13.494   3.216
11362SOL    HW235984  13.133  13.448   3.221
11363SOL     OW35985   4.590   5.655   7.892
11363SOL    HW135986   4.685   5.663   7.893
11363SOL    HW235987   4.558   5.745   7.897
11364SOL     OW35988  14.332   9.839   8.704
11364SOL    HW135989  14.362   9.759   8.662
11364SOL    HW235990  14.412   9.891   8.717
11365SOL     OW35991   4.561  13.596   3.071
11365SOL    HW135992   4.525  13.670   3.022
11365SOL    HW235993   4.584  13.633   3.156
11366SOL     OW35994   4.468   2.668  13.773
11366SOL    HW135995   4.467   2.730  13.846
11366SOL    HW235996   4.523   2.710  13.707
11367SOL     OW35997   2.031   2.597   0.429
11367SOL    HW135998   1.990   2.677   0.461
11367SOL    HW235999   1.988   2.526   0.477
11368SOL     OW36000  12.354   4.854   1.072
11368SOL    HW136001  12.375   4.823   1.160
11368SOL    HW236002  12.345   4.949   1.081
11369SOL     OW36003   3.773   9.931   2.034
11369SOL    HW136004   3.686   9.964   2.053
11369SOL    HW236005   3.798   9.882   2.112
11370SOL     OW36006   5.543   8.927   5.409
11370SOL    HW136007   5.547   8.930   5.313
11370SOL    HW236008   5.479   8.995   5.431
11371SOL     OW36009  11.896   2.086   7.824
11371SOL    HW136010  11.917   2.178   7.835
11371SOL    HW236011  11.855   2.060   7.906
11372SOL     OW36012   4.469   9.408   9.082
11372SOL    HW136013   4.506   9.356   9.010
11372SOL    HW236014   4.511   9.494   9.073
11373SOL     OW36015   7.784   4.096  10.776
11373SOL    HW136016   7.698   4.083  10.816
11373SOL    HW236017   7.846   4.063  10.841
11374SOL     OW36018  10.580   7.421   0.055
11374SOL    HW136019  10.664   7.402   0.096
11374SOL    HW236020  10.544   7.493   0.106
11375SOL     OW36021  14.402   2.135  12.096
11375SOL    HW136022  14.309   2.128  12.116
11375SOL    HW236023  14.406   2.137  12.000
11376SOL     OW36024   5.154   6.389  13.516
11376SOL    HW136025   5.141   6.305  13.561
11376SOL    HW236026   5.234   6.376  13.465
11377SOL     OW36027   6.835   9.773   2.880
11377SOL    HW136028   6.790   9.797   2.799
11377SOL    HW236029   6.779   9.809   2.950
11378SOL     OW36030   6.989  14.839  11.646
11378SOL    HW136031   7.035  14.869  11.568
11378SOL    HW236032   7.016   0.032  11.714
11379SOL     OW36033  14.039   7.363   8.795
11379SOL    HW136034  14.058   7.354   8.701
11379SOL    HW236035  14.075   7.449   8.818
11380SOL     OW36036   7.384   2.093   0.780
11380SOL    HW136037   7.416   2.174   0.820
11380SOL    HW236038   7.394   2.027   0.848
11381SOL     OW36039   5.475  12.237  13.318
11381SOL    HW136040   5.498  12.281  13.236
11381SOL    HW236041   5.556  12.192  13.344
11382SOL     OW36042   1.469   0.720   9.080
11382SOL    HW136043   1.458   0.636   9.126
11382SOL    HW236044   1.555   0.713   9.038
11383SOL     OW36045   4.415   2.561   8.968
11383SOL    HW136046   4.435   2.558   8.875
11383SOL    HW236047   4.497   2.538   9.012
11384SOL     OW36048   9.698   8.213   2.692
11384SOL    HW136049   9.622   8.196   2.637
11384SOL    HW236050   9.712   8.131   2.740
11385SOL     OW36051   2.818   9.012   8.708
11385SOL    HW136052   2.851   9.016   8.797
11385SOL    HW236053   2.896   9.012   8.653
11386SOL     OW36054   9.327   1.764   2.783
11386SOL    HW136055   9.233   1.775   2.769
11386SOL    HW236056   9.343   1.671   2.763
11387SOL     OW36057  11.398   3.753  12.048
11387SOL    HW136058  11.463   3.692  12.083
11387SOL    HW236059  11.314   3.714  12.067
11388SOL     OW36060   4.641   0.552  10.969
11388SOL    HW136061   4.715   0.493  10.980
11388SOL    HW236062   4.619   0.582  11.057
11389SOL     OW36063   3.131   3.381   7.087
11389SOL    HW136064   3.214   3.341   7.114
11389SOL    HW236065   3.153   3.474   7.074
11390SOL     OW36066   4.965   3.255  13.004
11390SOL    HW136067   4.956   3.192  12.933
11390SOL    HW236068   4.877   3.293  13.013
11391SOL     OW36069  11.682   4.489   7.414
11391SOL    HW136070  11.617   4.491   7.344
11391SOL    HW236071  11.647   4.548   7.481
11392SOL     OW36072   4.727   1.272   1.832
11392SOL    HW136073   4.751   1.334   1.901
11392SOL    HW236074   4.810   1.249   1.791
11393SOL     OW36075   5.419   0.615  12.338
11393SOL    HW136076   5.419   0.640  12.430
11393SOL    HW236077   5.332   0.640  12.306
11394SOL     OW36078  11.289  14.827   7.378
11394SOL    HW136079  11.194  14.840   7.379
11394SOL    HW236080  11.311  14.805   7.469
11395SOL     OW36081   7.818   0.055  11.952
11395SOL    HW136082   7.792   0.128  11.896
11395SOL    HW236083   7.902   0.082  11.989
11396SOL     OW36084  13.834  14.142  11.298
11396SOL    HW136085  13.745  14.125  11.265
11396SOL    HW236086  13.887  14.155  11.220
11397SOL     OW36087   0.735   2.107   3.277
11397SOL    HW136088   0.766   2.191   3.311
11397SOL    HW236089   0.700   2.061   3.354
11398SOL     OW36090   6.760   3.665   5.755
11398SOL    HW136091   6.720   3.703   5.677
11398SOL    HW236092   6.795   3.581   5.726
11399SOL     OW36093  11.304  13.335   4.921
11399SOL    HW136094  11.354  13.399   4.972
11399SOL    HW236095  11.353  13.253   4.930
11400SOL     OW36096  11.296  14.009   2.129
11400SOL    HW136097  11.212  13.992   2.086
11400SOL    HW236098  11.283  13.984   2.220
11401SOL     OW36099   5.319  14.158   0.013
11401SOL    HW136100   5.336  14.233  14.825
11401SOL    HW236101   5.319  14.196   0.101
11402SOL     OW36102   1.615   1.372   4.168
11402SOL    HW136103   1.616   1.462   4.135
11402SOL    HW236104   1.627   1.382   4.263
11403SOL     OW36105  13.428  11.932   4.903
11403SOL    HW136106  13.510  11.882   4.900
11403SOL    HW236107  13.411  11.944   4.997
11404SOL     OW36108  13.847   9.348  12.946
11404SOL    HW136109  13.753   9.358  12.932
11404SOL    HW236110  13.885   9.345  12.858
11405SOL     OW36111   9.422  13.523   4.304
11405SOL    HW136112   9.435  13.568   4.221
11405SOL    HW236113   9.374  13.443   4.280
11406SOL     OW36114   1.522   2.696   7.689
11406SOL    HW136115   1.449   2.669   7.744
11406SOL    HW236116   1.542   2.620   7.635
11407SOL     OW36117   0.179   2.203   2.099
11407SOL    HW136118   0.221   2.266   2.159
11407SOL    HW236119   0.133   2.142   2.157
11408SOL     OW36120  11.776   9.387   9.081
11408SOL    HW136121  11.692   9.376   9.037
11408SOL    HW236122  11.790   9.482   9.083
11409SOL     OW36123   7.721  10.045  10.917
11409SOL    HW136124   7.641  10.078  10.958
11409SOL    HW236125   7.690  10.001  10.838
11410SOL     OW36126   6.945   4.317   5.783
11410SOL    HW136127   6.878   4.380   5.758
11410SOL    HW236128   6.987   4.355   5.860
11411SOL     OW36129   2.706   4.240   9.882
11411SOL    HW136130   2.757   4.204   9.955
11411SOL    HW236131   2.705   4.334   9.898
11412SOL     OW36132   0.159   1.573   3.648
11412SOL    HW136133   0.155   1.501   3.711
11412SOL    HW236134   0.202   1.644   3.695
11413SOL     OW36135   3.923   6.505   7.187
11413SOL    HW136136   3.828   6.495   7.178
11413SOL    HW236137   3.951   6.538   7.102
11414SOL     OW36138   2.462  12.732  10.390
11414SOL    HW136139   2.394  12.704  10.452
11414SOL    HW236140   2.471  12.658  10.330
11415SOL     OW36141   1.774   4.146  11.303
11415SOL    HW136142   1.805   4.208  11.237
11415SOL    HW236143   1.851   4.093  11.324
11416SOL     OW36144  11.222  14.376   5.418
11416SOL    HW136145  11.206  14.293   5.373
11416SOL    HW236146  11.290  14.356   5.482
11417SOL     OW36147  10.850   1.998   5.503
11417SOL    HW136148  10.830   2.081   5.460
11417SOL    HW236149  10.845   2.018   5.597
11418SOL     OW36150  11.851   1.123   2.526
11418SOL    HW136151  11.895   1.163   2.452
11418SOL    HW236152  11.785   1.187   2.553
11419SOL     OW36153   8.409  12.132   5.842
11419SOL    HW136154   8.325  12.176   5.855
11419SOL    HW236155   8.462  12.158   5.917
11420SOL     OW36156   8.468   8.033   6.978
11420SOL    HW136157   8.394   7.990   6.934
11420SOL    HW236158   8.524   7.961   7.007
11421SOL     OW36159   6.053   9.700   2.828
11421SOL    HW136160   6.136   9.653   2.834
11421SOL    HW236161   6.002   9.650   2.765
11422SOL     OW36162   9.716   4.793   5.242
11422SOL    HW136163   9.667   4.875   5.229
11422SOL    HW236164   9.768   4.809   5.320
11423SOL     OW36165  13.618  12.670  11.058
11423SOL    HW136166  13.551  12.654  11.124
11423SOL    HW236167  13.578  12.642  10.976
11424SOL     OW36168  13.073   8.587   6.348
11424SOL    HW136169  13.033   8.668   6.379
11424SOL    HW236170  12.999   8.528   6.332
11425SOL     OW36171   9.832   6.243   3.672
11425SOL    HW136172   9.789   6.290   3.601
11425SOL    HW236173   9.767   6.177   3.699
11426SOL     OW36174  10.142  13.458   8.883
11426SOL    HW136175  10.156  13.551   8.900
11426SOL    HW236176  10.156  13.416   8.968
11427SOL     OW36177   0.745  13.990   4.334
11427SOL    HW136178   0.789  14.059   4.284
11427SOL    HW236179   0.714  14.034   4.414
11428SOL     OW36180  14.334   1.331   3.425
11428SOL    HW136181  14.409   1.349   3.368
11428SOL    HW236182  14.361   1.255   3.477
11429SOL     OW36183   1.055   2.440  14.851
11429SOL    HW136184   1.057   2.473  14.762
11429SOL    HW236185   1.054   2.518   0.037
11430SOL     OW36186   2.311   3.356   8.831
11430SOL    HW136187   2.258   3.408   8.890
11430SOL    HW236188   2.271   3.368   8.745
11431SOL     OW36189   8.732  12.420   7.121
11431SOL    HW136190   8.652  12.367   7.124
11431SOL    HW236191   8.803  12.356   7.123
11432SOL     OW36192   1.196  14.405  12.922
11432SOL    HW136193   1.265  14.338  12.919
11432SOL    HW236194   1.125  14.368  12.869
11433SOL     OW36195   3.525   0.678   7.519
11433SOL    HW136196   3.570   0.605   7.478
11433SOL    HW236197   3.546   0.753   7.464
11434SOL     OW36198   4.304   3.870  13.379
11434SOL    HW136199   4.379   3.911  13.422
11434SOL    HW236200   4.228   3.916  13.415
11435SOL     OW36201   3.169   4.050   7.261
11435SOL    HW136202   3.146   4.090   7.177
11435SOL    HW236203   3.151   4.119   7.325
11436SOL     OW36204  11.181  10.828   4.245
11436SOL    HW136205  11.179  10.733   4.255
11436SOL    HW236206  11.237  10.858   4.316
11437SOL     OW36207  11.489   4.322   5.900
11437SOL    HW136208  11.414   4.351   5.952
11437SOL    HW236209  11.506   4.395   5.840
11438SOL     OW36210  13.099   8.999   7.840
11438SOL    HW136211  13.090   8.972   7.749
11438SOL    HW236212  13.062   9.087   7.844
11439SOL     OW36213   1.469  11.853   0.522
11439SOL    HW136214   1.390  11.894   0.488
11439SOL    HW236215   1.540  11.889   0.469
11440SOL     OW36216   0.931  13.180   2.367
11440SOL    HW136217   0.934  13.178   2.463
11440SOL    HW236218   0.924  13.089   2.341
11441SOL     OW36219   9.116   1.577   3.101
11441SOL    HW136220   9.152   1.507   3.046
11441SOL    HW236221   9.183   1.591   3.168
11442SOL     OW36222   6.897   1.646   5.784
11442SOL    HW136223   6.850   1.574   5.742
11442SOL    HW236224   6.931   1.609   5.865
11443SOL     OW36225   8.561  12.768   4.749
11443SOL    HW136226   8.623  12.794   4.817
11443SOL    HW236227   8.598  12.803   4.668
11444SOL     OW36228   7.365   6.538  10.754
11444SOL    HW136229   7.409   6.587  10.685
11444SOL    HW236230   7.376   6.591  10.832
11445SOL     OW36231   4.344   2.782   3.957
11445SOL    HW136232   4.396   2.834   4.019
11445SOL    HW236233   4.406   2.717   3.924
11446SOL     OW36234  11.921  11.618  14.443
11446SOL    HW136235  11.858  11.690  14.452
11446SOL    HW236236  11.908  11.564  14.521
11447SOL     OW36237   0.890   4.347   1.890
11447SOL    HW136238   0.824   4.297   1.841
11447SOL    HW236239   0.940   4.280   1.936
11448SOL     OW36240  13.876   7.804  13.944
11448SOL    HW136241  13.829   7.722  13.927
11448SOL    HW236242  13.807   7.870  13.944
11449SOL     OW36243   9.210   1.307   6.594
11449SOL    HW136244   9.236   1.253   6.669
11449SOL    HW236245   9.165   1.246   6.536
11450SOL     OW36246   9.561  11.580  12.494
11450SOL    HW136247   9.642  11.622  12.464
11450SOL    HW236248   9.508  11.651  12.530
11451SOL     OW36249   2.275   0.061   3.570
11451SOL    HW136250   2.301  14.840   3.577
11451SOL    HW236251   2.315   0.092   3.489
11452SOL     OW36252   8.384  12.444   7.571
11452SOL    HW136253   8.319  12.490   7.518
11452SOL    HW236254   8.467  12.484   7.546
11453SOL     OW36255   9.853  11.720   9.540
11453SOL    HW136256   9.817  11.802   9.575
11453SOL    HW236257   9.806  11.706   9.458
11454SOL     OW36258   2.506  11.975   8.425
11454SOL    HW136259   2.534  11.927   8.347
11454SOL    HW236260   2.586  12.015   8.458
11455SOL     OW36261   8.386   1.380  11.911
11455SOL    HW136262   8.427   1.357  11.994
11455SOL    HW236263   8.333   1.304  11.888
11456SOL     OW36264   0.495   8.159   1.177
11456SOL    HW136265   0.445   8.116   1.107
11456SOL    HW236266   0.523   8.242   1.138
11457SOL     OW36267   4.719   5.006  11.384
11457SOL    HW136268   4.748   5.052  11.462
11457SOL    HW236269   4.638   4.962  11.411
11458SOL     OW36270  11.056  10.049   5.727
11458SOL    HW136271  11.007   9.967   5.719
11458SOL    HW236272  10.991  10.114   5.753
11459SOL     OW36273   5.540   3.880   8.974
11459SOL    HW136274   5.511   3.830   9.050
11459SOL    HW236275   5.635   3.883   8.983
11460SOL     OW36276  11.299  14.802   5.267
11460SOL    HW136277  11.343  14.853   5.336
11460SOL    HW236278  11.289  14.864   5.195
11461SOL     OW36279   4.970   4.956   6.371
11461SOL    HW136280   4.885   4.917   6.389
11461SOL    HW236281   4.965   4.984   6.280
11462SOL     OW36282   1.884   6.205   0.184
11462SOL    HW136283   1.811   6.216   0.246
11462SOL    HW236284   1.901   6.111   0.184
11463SOL     OW36285   7.495  12.481   2.440
11463SOL    HW136286   7.559  12.515   2.379
11463SOL    HW236287   7.531  12.501   2.527
11464SOL     OW36288   3.005   9.126   5.145
11464SOL    HW136289   3.032   9.217   5.161
11464SOL    HW236290   3.063   9.075   5.201
11465SOL     OW36291   5.817   8.209  13.163
11465SOL    HW136292   5.779   8.161  13.236
11465SOL    HW236293   5.882   8.267  13.204
11466SOL     OW36294   2.086  13.683  13.987
11466SOL    HW136295   2.035  13.602  13.995
11466SOL    HW236296   2.173  13.659  14.021
11467SOL     OW36297   3.021  11.210  11.938
11467SOL    HW136298   3.114  11.203  11.958
11467SOL    HW236299   2.999  11.127  11.895
11468SOL     OW36300   4.683   8.054  14.620
11468SOL    HW136301   4.653   8.134  14.577
11468SOL    HW236302   4.711   8.082  14.707
11469SOL     OW36303   3.998  12.209  11.702
11469SOL    HW136304   4.005  12.148  11.775
11469SOL    HW236305   3.944  12.281  11.736
11470SOL     OW36306   3.427   5.891   8.570
11470SOL    HW136307   3.441   5.896   8.475
11470SOL    HW236308   3.505   5.847   8.603
11471SOL     OW36309   6.980  12.690  10.678
11471SOL    HW136310   7.030  12.672  10.757
11471SOL    HW236311   6.946  12.605  10.651
11472SOL     OW36312   5.344   0.725  13.539
11472SOL    HW136313   5.289   0.668  13.593
11472SOL    HW236314   5.428   0.679  13.533
11473SOL     OW36315   2.961   5.880  13.903
11473SOL    HW136316   3.025   5.825  13.859
11473SOL    HW236317   2.913   5.923  13.833
11474SOL     OW36318   1.753  14.338   0.920
11474SOL    HW136319   1.711  14.289   0.849
11474SOL    HW236320   1.828  14.379   0.878
11475SOL     OW36321   4.541   1.029   8.762
11475SOL    HW136322   4.606   1.018   8.692
11475SOL    HW236323   4.566   0.966   8.829
11476SOL     OW36324   2.823   9.772  13.416
11476SOL    HW136325   2.794   9.860  13.438
11476SOL    HW236326   2.908   9.784  13.373
11477SOL     OW36327   6.460   9.507  12.991
11477SOL    HW136328   6.428   9.416  12.986
11477SOL    HW236329   6.429   9.538  13.077
11478SOL     OW36330  12.859   9.862   0.086
11478SOL    HW136331  12.790   9.875   0.152
11478SOL    HW236332  12.900   9.948   0.077
11479SOL     OW36333   9.288   7.717  14.438
11479SOL    HW136334   9.216   7.696  14.496
11479SOL    HW236335   9.349   7.766  14.492
11480SOL     OW36336   0.814   0.746   7.522
11480SOL    HW136337   0.844   0.697   7.446
11480SOL    HW236338   0.812   0.683   7.593
11481SOL     OW36339  12.512   3.314   5.841
11481SOL    HW136340  12.500   3.314   5.936
11481SOL    HW236341  12.585   3.254   5.826
11482SOL     OW36342   8.903  13.609  13.294
11482SOL    HW136343   8.933  13.519  13.304
11482SOL    HW236344   8.808  13.602  13.292
11483SOL     OW36345   9.484   8.561   8.540
11483SOL    HW136346   9.446   8.597   8.620
11483SOL    HW236347   9.493   8.636   8.481
11484SOL     OW36348   3.850   1.839  11.118
11484SOL    HW136349   3.759   1.827  11.145
11484SOL    HW236350   3.899   1.777  11.172
11485SOL     OW36351   0.094   2.620   6.500
11485SOL    HW136352   0.053   2.557   6.559
11485SOL    HW236353   0.167   2.656   6.550
11486SOL     OW36354  11.114  11.925   2.469
11486SOL    HW136355  11.178  11.873   2.519
11486SOL    HW236356  11.158  11.945   2.387
11487SOL     OW36357   6.601   1.785   7.468
11487SOL    HW136358   6.515   1.822   7.449
11487SOL    HW236359   6.651   1.799   7.387
11488SOL     OW36360  10.396   1.651   4.303
11488SOL    HW136361  10.428   1.727   4.352
11488SOL    HW236362  10.369   1.687   4.219
11489SOL     OW36363   6.591   3.704   1.926
11489SOL    HW136364   6.602   3.771   1.857
11489SOL    HW236365   6.502   3.671   1.912
11490SOL     OW36366   4.746  13.607   9.553
11490SOL    HW136367   4.748  13.593   9.648
11490SOL    HW236368   4.695  13.533   9.519
11491SOL     OW36369   1.326  10.223   8.386
11491SOL    HW136370   1.250  10.169   8.410
11491SOL    HW236371   1.373  10.170   8.321
11492SOL     OW36372   6.501   2.384   1.092
11492SOL    HW136373   6.513   2.458   1.033
11492SOL    HW236374   6.427   2.410   1.148
11493SOL     OW36375   1.232   3.184   9.457
11493SOL    HW136376   1.160   3.171   9.520
11493SOL    HW236377   1.189   3.183   9.372
11494SOL     OW36378   4.209   0.780   0.399
11494SOL    HW136379   4.196   0.872   0.374
11494SOL    HW236380   4.293   0.756   0.360
11495SOL     OW36381   0.055   9.678   6.135
11495SOL    HW136382   0.097   9.694   6.051
11495SOL    HW236383   0.033   9.765   6.168
11496SOL     OW36384  14.252   8.880  14.612
11496SOL    HW136385  14.233   8.898  14.704
11496SOL    HW236386  14.328   8.822  14.613
11497SOL     OW36387  11.550  11.460   9.688
11497SOL    HW136388  11.540  11.509   9.770
11497SOL    HW236389  11.543  11.526   9.619
11498SOL     OW36390   7.271   3.536  10.229
11498SOL    HW136391   7.330   3.603  10.264
11498SOL    HW236392   7.296   3.529  10.137
11499SOL     OW36393  14.116   0.775  14.052
11499SOL    HW136394  14.050   0.797  13.985
11499SOL    HW236395  14.077   0.803  14.134
11500SOL     OW36396   6.192   4.818   7.138
11500SOL    HW136397   6.113   4.792   7.185
11500SOL    HW236398   6.240   4.737   7.123
11501SOL     OW36399  13.567   9.603  12.800
11501SOL    HW136400  13.495   9.601  12.862
11501SOL    HW236401  13.604   9.691  12.808
11502SOL     OW36402   6.007  11.091  12.937
11502SOL    HW136403   6.034  11.008  12.977
11502SOL    HW236404   6.041  11.086  12.847
11503SOL     OW36405  10.313   9.833   2.140
11503SOL    HW136406  10.403   9.853   2.115
11503SOL    HW236407  10.265   9.914   2.125
11504SOL     OW36408  11.138  13.820   1.504
11504SOL    HW136409  11.084  13.829   1.583
11504SOL    HW236410  11.079  13.843   1.432
11505SOL     OW36411   3.442   6.474   4.626
11505SOL    HW136412   3.420   6.458   4.534
11505SOL    HW236413   3.528   6.516   4.623
11506SOL     OW36414   6.410   9.481  11.369
11506SOL    HW136415   6.319   9.471  11.341
11506SOL    HW236416   6.424   9.408  11.430
11507SOL     OW36417  10.858  12.404   2.254
11507SOL    HW136418  10.900  12.435   2.335
11507SOL    HW236419  10.810  12.481   2.222
11508SOL     OW36420  12.647  13.325   5.913
11508SOL    HW136421  12.667  13.265   5.984
11508SOL    HW236422  12.562  13.294   5.880
11509SOL     OW36423   8.788   4.491   8.113
11509SOL    HW136424   8.718   4.426   8.117
11509SOL    HW236425   8.744   4.575   8.128
11510SOL     OW36426  10.093   1.294   8.128
11510SOL    HW136427  10.066   1.379   8.092
11510SOL    HW236428  10.057   1.294   8.217
11511SOL     OW36429   1.357   3.078   8.523
11511SOL    HW136430   1.297   3.139   8.480
11511SOL    HW236431   1.444   3.103   8.492
11512SOL     OW36432   9.192   9.347   4.744
11512SOL    HW136433   9.136   9.269   4.741
11512SOL    HW236434   9.143   9.414   4.697
11513SOL     OW36435  13.780  14.855   3.462
11513SOL    HW136436  13.830  14.839   3.382
11513SOL    HW236437  13.697   0.021   3.432
11514SOL     OW36438   5.520  14.500  14.077
11514SOL    HW136439   5.428  14.500  14.052
11514SOL    HW236440   5.552  14.586  14.049
11515SOL     OW36441   1.321  10.940  14.267
11515SOL    HW136442   1.232  10.949  14.234
11515SOL    HW236443   1.360  10.871  14.213
11516SOL     OW36444   0.645   6.400   3.432
11516SOL    HW136445   0.730   6.445   3.432
11516SOL    HW236446   0.584   6.464   3.394
11517SOL     OW36447   8.917  10.908  11.385
11517SOL    HW136448   8.850  10.966  11.349
11517SOL    HW236449   8.868  10.833  11.420
11518SOL     OW36450  10.539   4.441  11.250
11518SOL    HW136451  10.571   4.440  11.340
11518SOL    HW236452  10.607   4.488  11.202
11519SOL     OW36453   8.858   8.548   3.783
11519SOL    HW136454   8.874   8.533   3.689
11519SOL    HW236455   8.945   8.555   3.821
11520SOL     OW36456   1.704   7.995   9.093
11520SOL    HW136457   1.794   7.974   9.117
11520SOL    HW236458   1.713   8.056   9.020
11521SOL     OW36459  13.912  13.662   6.124
11521SOL    HW136460  13.864  13.718   6.062
11521SOL    HW236461  13.962  13.603   6.068
11522SOL     OW36462   9.845   6.223   1.031
11522SOL    HW136463   9.766   6.174   1.008
11522SOL    HW236464   9.825   6.314   1.009
11523SOL     OW36465  12.207   5.148   8.005
11523SOL    HW136466  12.251   5.071   8.039
11523SOL    HW236467  12.114   5.129   8.013
11524SOL     OW36468   7.463   0.035   3.391
11524SOL    HW136469   7.501   0.088   3.461
11524SOL    HW236470   7.503   0.067   3.311
11525SOL     OW36471   8.585  12.340  13.083
11525SOL    HW136472   8.592  12.249  13.109
11525SOL    HW236473   8.493  12.351  13.058
11526SOL     OW36474   7.193  10.069   0.223
11526SOL    HW136475   7.157  10.113   0.300
11526SOL    HW236476   7.178  10.130   0.151
11527SOL     OW36477   2.599  10.738   6.712
11527SOL    HW136478   2.592  10.739   6.807
11527SOL    HW236479   2.525  10.685   6.682
11528SOL     OW36480   7.314  10.637   4.248
11528SOL    HW136481   7.249  10.576   4.214
11528SOL    HW236482   7.367  10.661   4.172
11529SOL     OW36483   2.230   0.544   0.596
11529SOL    HW136484   2.198   0.630   0.568
11529SOL    HW236485   2.221   0.545   0.691
11530SOL     OW36486   3.201   9.917   5.722
11530SOL    HW136487   3.158   9.996   5.755
11530SOL    HW236488   3.200   9.928   5.626
11531SOL     OW36489  12.647  11.190   4.003
11531SOL    HW136490  12.699  11.243   3.943
11531SOL    HW236491  12.652  11.237   4.087
11532SOL     OW36492   8.758  13.197   9.801
11532SOL    HW136493   8.778  13.269   9.861
11532SOL    HW236494   8.665  13.179   9.816
11533SOL     OW36495   7.986  14.313  12.293
11533SOL    HW136496   7.971  14.255  12.218
11533SOL    HW236497   8.079  14.303  12.313
11534SOL     OW36498   0.922  12.759  12.784
11534SOL    HW136499   0.864  12.688  12.757
11534SOL    HW236500   0.864  12.835  12.794
11535SOL     OW36501   7.628   7.518   5.926
11535SOL    HW136502   7.663   7.439   5.967
11535SOL    HW236503   7.592   7.568   5.999
11536SOL     OW36504   1.961   6.409   5.383
11536SOL    HW136505   2.032   6.347   5.366
11536SOL    HW236506   1.959   6.465   5.305
11537SOL     OW36507   8.592   4.222   1.640
11537SOL    HW136508   8.601   4.315   1.658
11537SOL    HW236509   8.498   4.209   1.627
11538SOL     OW36510   6.949   4.413   1.393
11538SOL    HW136511   7.007   4.416   1.317
11538SOL    HW236512   6.992   4.352   1.453
11539SOL     OW36513   1.819  11.041  11.150
11539SOL    HW136514   1.760  11.009  11.082
11539SOL    HW236515   1.826  10.968  11.212
11540SOL     OW36516   0.884   3.086   7.861
11540SOL    HW136517   0.863   3.170   7.903
11540SOL    HW236518   0.970   3.100   7.822
11541SOL     OW36519   6.530  10.039   5.649
11541SOL    HW136520   6.596   9.970   5.649
11541SOL    HW236521   6.474  10.018   5.574
11542SOL     OW36522   6.940   2.012   7.916
11542SOL    HW136523   6.875   1.944   7.931
11542SOL    HW236524   6.940   2.025   7.821
11543SOL     OW36525   2.050  12.239   6.576
11543SOL    HW136526   2.095  12.154   6.572
11543SOL    HW236527   1.967  12.220   6.619
11544SOL     OW36528   6.560  10.592   5.261
11544SOL    HW136529   6.545  10.545   5.179
11544SOL    HW236530   6.655  10.599   5.267
11545SOL     OW36531   2.542   3.043   8.633
11545SOL    HW136532   2.571   3.133   8.617
11545SOL    HW236533   2.619   2.999   8.668
11546SOL     OW36534   0.016   0.577   2.882
11546SOL    HW136535   0.066   0.594   2.802
11546SOL    HW236536  14.817   0.517   2.854
11547SOL     OW36537   9.315  12.860  12.030
11547SOL    HW136538   9.265  12.879  12.109
11547SOL    HW236539   9.394  12.913  12.038
11548SOL     OW36540   5.399  13.642  13.136
11548SOL    HW136541   5.376  13.626  13.227
11548SOL    HW236542   5.325  13.694  13.102
11549SOL     OW36543  14.578   1.363   9.066
11549SOL    HW136544  14.511   1.321   9.120
11549SOL    HW236545  14.634   1.409   9.129
11550SOL     OW36546  12.037   7.261  13.431
11550SOL    HW136547  12.105   7.196  13.448
11550SOL    HW236548  11.994   7.231  13.351
11551SOL     OW36549   3.413  13.965   4.390
11551SOL    HW136550   3.319  13.982   4.391
11551SOL    HW236551   3.445  14.002   4.472
11552SOL     OW36552   2.461  12.983   5.939
11552SOL    HW136553   2.536  13.013   5.887
11552SOL    HW236554   2.410  12.930   5.878
11553SOL     OW36555  12.474   0.802   4.054
11553SOL    HW136556  12.502   0.859   4.126
11553SOL    HW236557  12.538   0.819   3.984
11554SOL     OW36558   0.510   0.331   9.678
11554SOL    HW136559   0.562   0.411   9.688
11554SOL    HW236560   0.554   0.282   9.609
11555SOL     OW36561   9.924  12.906   6.354
11555SOL    HW136562   9.960  12.982   6.398
11555SOL    HW236563   9.830  12.911   6.371
11556SOL     OW36564  11.586   6.961   9.159
11556SOL    HW136565  11.590   6.958   9.254
11556SOL    HW236566  11.548   6.877   9.134
11557SOL     OW36567  13.547  10.394   2.987
11557SOL    HW136568  13.613  10.443   2.937
11557SOL    HW236569  13.479  10.459   3.005
11558SOL     OW36570   8.942   2.409   7.294
11558SOL    HW136571   8.889   2.333   7.319
11558SOL    HW236572   9.023   2.399   7.345
11559SOL     OW36573  10.833   6.547   1.649
11559SOL    HW136574  10.806   6.635   1.674
11559SOL    HW236575  10.756   6.509   1.606
11560SOL     OW36576  10.471   1.394   9.486
11560SOL    HW136577  10.463   1.323   9.549
11560SOL    HW236578  10.556   1.379   9.444
11561SOL     OW36579   1.930   1.878   8.513
11561SOL    HW136580   1.949   1.829   8.593
11561SOL    HW236581   1.929   1.970   8.542
11562SOL     OW36582   8.978  12.616   9.310
11562SOL    HW136583   9.033  12.648   9.382
11562SOL    HW236584   8.960  12.524   9.333
11563SOL     OW36585   3.483   2.208  10.573
11563SOL    HW136586   3.496   2.133  10.515
11563SOL    HW236587   3.485   2.170  10.661
11564SOL     OW36588   3.648  12.953   5.226
11564SOL    HW136589   3.556  12.962   5.202
11564SOL    HW236590   3.648  12.890   5.298
11565SOL     OW36591   1.752  13.177  12.725
11565SOL    HW136592   1.790  13.184  12.637
11565SOL    HW236593   1.716  13.264  12.742
11566SOL     OW36594   6.335   0.909   9.099
11566SOL    HW136595   6.260   0.857   9.127
11566SOL    HW236596   6.337   0.982   9.161
11567SOL     OW36597   9.005   5.398   9.493
11567SOL    HW136598   9.098   5.376   9.480
11567SOL    HW236599   9.007   5.476   9.547
11568SOL     OW36600   7.241  11.800   8.131
11568SOL    HW136601   7.334  11.816   8.115
11568SOL    HW236602   7.223  11.718   8.084
11569SOL     OW36603   7.499   1.226  12.487
11569SOL    HW136604   7.588   1.224  12.452
11569SOL    HW236605   7.510   1.250  12.579
11570SOL     OW36606   0.476   2.050   9.352
11570SOL    HW136607   0.427   2.078   9.430
11570SOL    HW236608   0.538   1.985   9.385
11571SOL     OW36609  12.638  12.750  10.808
11571SOL    HW136610  12.712  12.811  10.815
11571SOL    HW236611  12.576  12.778  10.875
11572SOL     OW36612   8.252  12.820   4.539
11572SOL    HW136613   8.174  12.766   4.527
11572SOL    HW236614   8.320  12.759   4.566
11573SOL     OW36615  11.281   5.784   7.858
11573SOL    HW136616  11.291   5.791   7.763
11573SOL    HW236617  11.241   5.867   7.884
11574SOL     OW36618   0.487   8.451   7.955
11574SOL    HW136619   0.434   8.447   7.876
11574SOL    HW236620   0.460   8.374   8.006
11575SOL     OW36621  11.570  12.353   9.012
11575SOL    HW136622  11.578  12.277   9.070
11575SOL    HW236623  11.584  12.318   8.924
11576SOL     OW36624   8.690   7.325   3.116
11576SOL    HW136625   8.747   7.378   3.173
11576SOL    HW236626   8.715   7.350   3.027
11577SOL     OW36627   2.989   4.562  14.077
11577SOL    HW136628   2.933   4.633  14.107
11577SOL    HW236629   2.945   4.482  14.107
11578SOL     OW36630  14.000  12.376  14.696
11578SOL    HW136631  14.008  12.434  14.620
11578SOL    HW236632  13.907  12.377  14.717
11579SOL     OW36633   9.878   1.118   0.634
11579SOL    HW136634   9.815   1.188   0.616
11579SOL    HW236635   9.877   1.064   0.555
11580SOL     OW36636  12.163  12.429   9.424
11580SOL    HW136637  12.138  12.505   9.372
11580SOL    HW236638  12.157  12.355   9.364
11581SOL     OW36639   7.719  10.992  14.655
11581SOL    HW136640   7.758  11.021  14.573
11581SOL    HW236641   7.709  11.072  14.707
11582SOL     OW36642  14.043   4.432   9.331
11582SOL    HW136643  14.051   4.484   9.411
11582SOL    HW236644  14.072   4.344   9.356
11583SOL     OW36645   8.391  13.440  13.669
11583SOL    HW136646   8.314  13.398  13.632
11583SOL    HW236647   8.357  13.513  13.721
11584SOL     OW36648   3.115   4.563   7.362
11584SOL    HW136649   3.081   4.591   7.277
11584SOL    HW236650   3.202   4.602   7.367
11585SOL     OW36651   0.394   6.393  11.790
11585SOL    HW136652   0.331   6.413  11.722
11585SOL    HW236653   0.467   6.454  11.775
11586SOL     OW36654   3.116   8.204  10.165
11586SOL    HW136655   3.135   8.110  10.159
11586SOL    HW236656   3.120   8.223  10.259
11587SOL     OW36657   1.959   2.870  14.507
11587SOL    HW136658   1.956   2.953  14.459
11587SOL    HW236659   1.879   2.869  14.559
11588SOL     OW36660  13.768   8.158   8.671
11588SOL    HW136661  13.852   8.164   8.626
11588SOL    HW236662  13.705   8.193   8.607
11589SOL     OW36663  12.696   5.217   5.464
11589SOL    HW136664  12.765   5.151   5.470
11589SOL    HW236665  12.738   5.298   5.493
11590SOL     OW36666   8.024  10.024   5.916
11590SOL    HW136667   8.066   9.939   5.911
11590SOL    HW236668   7.956  10.022   5.849
11591SOL     OW36669   7.043  12.185   4.918
11591SOL    HW136670   6.957  12.198   4.878
11591SOL    HW236671   7.043  12.244   4.994
11592SOL     OW36672   4.141   2.906   5.878
11592SOL    HW136673   4.135   2.810   5.880
11592SOL    HW236674   4.196   2.928   5.953
11593SOL     OW36675   2.012   3.922  12.600
11593SOL    HW136676   2.082   3.967  12.554
11593SOL    HW236677   1.950   3.992  12.624
11594SOL     OW36678   8.600   0.377  14.830
11594SOL    HW136679   8.654   0.454  14.811
11594SOL    HW236680   8.534   0.408   0.022
11595SOL     OW36681   7.680   2.626  12.706
11595SOL    HW136682   7.665   2.694  12.641
11595SOL    HW236683   7.750   2.661  12.762
11596SOL     OW36684   1.987   9.581   9.447
11596SOL    HW136685   2.062   9.530   9.479
11596SOL    HW236686   1.915   9.518   9.442
11597SOL     OW36687   4.683   8.326   3.823
11597SOL    HW136688   4.677   8.319   3.918
11597SOL    HW236689   4.742   8.400   3.808
11598SOL     OW36690  14.364   3.644  11.628
11598SOL    HW136691  14.268   3.640  11.632
11598SOL    HW236692  14.388   3.581  11.561
11599SOL     OW36693   6.964  11.557   1.528
11599SOL    HW136694   7.057  11.575   1.513
11599SOL    HW236695   6.918  11.633   1.494
11600SOL     OW36696   9.337  12.737   6.930
11600SOL    HW136697   9.284  12.716   6.853
11600SOL    HW236698   9.333  12.832   6.937
11601SOL     OW36699  10.775   2.156   6.986
11601SOL    HW136700  10.824   2.181   7.064
11601SOL    HW236701  10.744   2.067   7.004
11602SOL     OW36702  12.415   6.344  13.587
11602SOL    HW136703  12.491   6.321  13.640
11602SOL    HW236704  12.439   6.425  13.543
11603SOL     OW36705  12.145  13.947  10.411
11603SOL    HW136706  12.126  14.013  10.345
11603SOL    HW236707  12.177  13.998  10.486
11604SOL     OW36708  13.810   1.235  12.718
11604SOL    HW136709  13.736   1.199  12.669
11604SOL    HW236710  13.780   1.321  12.747
11605SOL     OW36711  14.645   2.292   6.884
11605SOL    HW136712  14.670   2.263   6.972
11605SOL    HW236713  14.640   2.387   6.892
11606SOL     OW36714   2.319   2.789   3.649
11606SOL    HW136715   2.408   2.755   3.664
11606SOL    HW236716   2.292   2.822   3.735
11607SOL     OW36717   1.419   3.457   8.354
11607SOL    HW136718   1.475   3.528   8.323
11607SOL    HW236719   1.366   3.496   8.424
11608SOL     OW36720   5.708   4.708   0.517
11608SOL    HW136721   5.801   4.721   0.498
11608SOL    HW236722   5.704   4.703   0.612
11609SOL     OW36723  10.252   6.340   4.109
11609SOL    HW136724  10.166   6.299   4.098
11609SOL    HW236725  10.235   6.434   4.098
11610SOL     OW36726  10.511  14.354   8.623
11610SOL    HW136727  10.504  14.439   8.580
11610SOL    HW236728  10.432  14.347   8.676
11611SOL     OW36729  13.729   6.724   3.115
11611SOL    HW136730  13.800   6.720   3.178
11611SOL    HW236731  13.757   6.790   3.051
11612SOL     OW36732  12.025   2.533   8.638
11612SOL    HW136733  12.051   2.579   8.559
11612SOL    HW236734  12.098   2.474   8.657
11613SOL     OW36735   7.011  12.826  13.124
11613SOL    HW136736   6.923  12.845  13.157
11613SOL    HW236737   7.068  12.845  13.199
11614SOL     OW36738   9.962  11.458  10.821
11614SOL    HW136739   9.930  11.376  10.859
11614SOL    HW236740   9.930  11.457  10.731
11615SOL     OW36741  11.748  10.611  12.139
11615SOL    HW136742  11.713  10.686  12.187
11615SOL    HW236743  11.834  10.641  12.108
11616SOL     OW36744   7.526  14.462   5.833
11616SOL    HW136745   7.583  14.481   5.907
11616SOL    HW236746   7.570  14.502   5.758
11617SOL     OW36747   5.939   6.707  11.823
11617SOL    HW136748   5.942   6.612  11.828
11617SOL    HW236749   5.894   6.734  11.903
11618SOL     OW36750  13.764   9.779  14.202
11618SOL    HW136751  13.776   9.691  14.166
11618SOL    HW236752  13.848   9.822  14.189
11619SOL     OW36753   2.110   9.925   8.110
11619SOL    HW136754   2.149   9.983   8.175
11619SOL    HW236755   2.175   9.856   8.097
11620SOL     OW36756  13.389  13.358   4.203
11620SOL    HW136757  13.373  13.381   4.295
11620SOL    HW236758  13.424  13.268   4.207
11621SOL     OW36759   9.180   1.576  13.075
11621SOL    HW136760   9.112   1.515  13.044
11621SOL    HW236761   9.258   1.520  13.086
11622SOL     OW36762   7.629  13.780   9.632
11622SOL    HW136763   7.682  13.701   9.640
11622SOL    HW236764   7.692  13.852   9.636
11623SOL     OW36765  11.871  12.969   4.712
11623SOL    HW136766  11.799  13.022   4.679
11623SOL    HW236767  11.901  12.920   4.635
11624SOL     OW36768   6.856   4.643   5.849
11624SOL    HW136769   6.794   4.580   5.887
11624SOL    HW236770   6.800   4.711   5.811
11625SOL     OW36771   7.270   1.004  10.377
11625SOL    HW136772   7.327   0.963  10.312
11625SOL    HW236773   7.183   0.968  10.358
11626SOL     OW36774   7.515  13.969   3.464
11626SOL    HW136775   7.428  13.955   3.501
11626SOL    HW236776   7.573  13.968   3.540
11627SOL     OW36777  10.411  12.258   4.525
11627SOL    HW136778  10.478  12.209   4.573
11627SOL    HW236779  10.392  12.333   4.581
11628SOL     OW36780   2.941   1.083   6.984
11628SOL    HW136781   2.968   1.135   7.059
11628SOL    HW236782   2.876   1.137   6.939
11629SOL     OW36783  14.052   6.063  12.107
11629SOL    HW136784  14.127   6.122  12.099
11629SOL    HW236785  13.976   6.121  12.107
11630SOL     OW36786  10.192   9.506   0.656
11630SOL    HW136787  10.202   9.590   0.702
11630SOL    HW236788  10.259   9.450   0.695
11631SOL     OW36789   6.331  14.556  12.153
11631SOL    HW136790   6.252  14.565  12.206
11631SOL    HW236791   6.364  14.646  12.144
11632SOL     OW36792   5.486   3.646   9.465
11632SOL    HW136793   5.488   3.731   9.509
11632SOL    HW236794   5.425   3.594   9.517
11633SOL     OW36795   8.005   0.352   1.633
11633SOL    HW136796   7.920   0.352   1.676
11633SOL    HW236797   8.068   0.343   1.704
11634SOL     OW36798  12.774   6.019   8.692
11634SOL    HW136799  12.759   5.991   8.783
11634SOL    HW236800  12.756   5.941   8.640
11635SOL     OW36801   4.876  14.512   7.821
11635SOL    HW136802   4.871  14.455   7.744
11635SOL    HW236803   4.919  14.459   7.888
11636SOL     OW36804   0.497  14.085   2.016
11636SOL    HW136805   0.420  14.069   2.071
11636SOL    HW236806   0.490  14.178   1.993
11637SOL     OW36807   5.081  10.059   3.342
11637SOL    HW136808   5.144   9.987   3.340
11637SOL    HW236809   5.131  10.135   3.312
11638SOL     OW36810   3.358   8.195   7.634
11638SOL    HW136811   3.314   8.135   7.695
11638SOL    HW236812   3.296   8.268   7.624
11639SOL     OW36813  10.292  12.893   1.514
11639SOL    HW136814  10.357  12.857   1.575
11639SOL    HW236815  10.273  12.820   1.454
11640SOL     OW36816  14.793   8.574   1.737
11640SOL    HW136817  14.766   8.527   1.816
11640SOL    HW236818  14.807   8.505   1.672
11641SOL     OW36819   1.460   1.848   0.255
11641SOL    HW136820   1.492   1.760   0.236
11641SOL    HW236821   1.467   1.894   0.171
11642SOL     OW36822   7.332   5.042   6.029
11642SOL    HW136823   7.407   5.099   6.048
11642SOL    HW236824   7.256   5.099   6.037
11643SOL     OW36825   7.333   4.037   9.544
11643SOL    HW136826   7.281   3.960   9.521
11643SOL    HW236827   7.272   4.110   9.538
11644SOL     OW36828   2.481   5.530  12.282
11644SOL    HW136829   2.495   5.568  12.195
11644SOL    HW236830   2.386   5.521  12.290
11645SOL     OW36831  12.155   6.324  10.515
11645SOL    HW136832  12.060   6.312  10.523
11645SOL    HW236833  12.193   6.246  10.555
11646SOL     OW36834   9.433   9.361  10.382
11646SOL    HW136835   9.420   9.456  10.375
11646SOL    HW236836   9.491   9.350  10.457
11647SOL     OW36837   8.943   1.032  14.486
11647SOL    HW136838   8.945   1.001  14.577
11647SOL    HW236839   8.930   1.126  14.493
11648SOL     OW36840   7.533   4.046   4.436
11648SOL    HW136841   7.622   4.010   4.428
11648SOL    HW236842   7.520   4.094   4.354
11649SOL     OW36843   6.409   2.348  10.511
11649SOL    HW136844   6.370   2.387  10.433
11649SOL    HW236845   6.359   2.385  10.584
11650SOL     OW36846  13.017  10.563  11.082
11650SOL    HW136847  13.099  10.609  11.062
11650SOL    HW236848  12.985  10.533  10.997
11651SOL     OW36849  13.940   1.166   2.281
11651SOL    HW136850  13.953   1.232   2.213
11651SOL    HW236851  13.859   1.122   2.257
11652SOL     OW36852   4.366   3.146  14.677
11652SOL    HW136853   4.279   3.176  14.650
11652SOL    HW236854   4.358   3.051  14.681
11653SOL     OW36855   3.802  10.758   0.027
11653SOL    HW136856   3.809  10.716  14.810
11653SOL    HW236857   3.755  10.694   0.080
11654SOL     OW36858  12.869  11.810  10.650
11654SOL    HW136859  12.815  11.886  10.672
11654SOL    HW236860  12.954  11.829  10.689
11655SOL     OW36861  12.508   7.648   3.378
11655SOL    HW136862  12.553   7.585   3.434
11655SOL    HW236863  12.453   7.698   3.438
11656SOL     OW36864  12.269   2.486   6.061
11656SOL    HW136865  12.362   2.472   6.046
11656SOL    HW236866  12.250   2.436   6.141
11657SOL     OW36867   8.521   0.646  12.750
11657SOL    HW136868   8.561   0.599  12.676
11657SOL    HW236869   8.558   0.603  12.828
11658SOL     OW36870   4.273  10.672  13.598
11658SOL    HW136871   4.276  10.651  13.505
11658SOL    HW236872   4.188  10.639  13.627
11659SOL     OW36873  11.578   8.038   7.671
11659SOL    HW136874  11.525   7.986   7.611
11659SOL    HW236875  11.562   8.129   7.645
11660SOL     OW36876   4.867   3.905  13.192
11660SOL    HW136877   4.892   3.978  13.136
11660SOL    HW236878   4.843   3.946  13.276
11661SOL     OW36879   8.871   6.969  10.220
11661SOL    HW136880   8.948   6.988  10.167
11661SOL    HW236881   8.798   6.969  10.158
11662SOL     OW36882   0.956   1.163  14.053
11662SOL    HW136883   0.915   1.158  13.967
11662SOL    HW236884   0.972   1.257  14.066
11663SOL     OW36885   7.257   0.437   4.790
11663SOL    HW136886   7.230   0.345   4.778
11663SOL    HW236887   7.351   0.433   4.805
11664SOL     OW36888   6.374   4.181   5.049
11664SOL    HW136889   6.351   4.234   4.973
11664SOL    HW236890   6.452   4.223   5.085
11665SOL     OW36891   4.072   6.495  13.129
11665SOL    HW136892   4.090   6.489  13.223
11665SOL    HW236893   4.084   6.588  13.109
11666SOL     OW36894   5.251   6.696   0.342
11666SOL    HW136895   5.286   6.781   0.370
11666SOL    HW236896   5.251   6.701   0.247
11667SOL     OW36897  12.947   2.002   7.906
11667SOL    HW136898  13.026   1.950   7.893
11667SOL    HW236899  12.964   2.084   7.860
11668SOL     OW36900  11.563   4.984   9.044
11668SOL    HW136901  11.625   4.954   9.111
11668SOL    HW236902  11.510   5.051   9.089
11669SOL     OW36903  14.643   7.202   4.886
11669SOL    HW136904  14.582   7.273   4.905
11669SOL    HW236905  14.691   7.189   4.967
11670SOL     OW36906   1.942   4.201   9.651
11670SOL    HW136907   1.846   4.204   9.650
11670SOL    HW236908   1.969   4.289   9.677
11671SOL     OW36909   2.450  11.861  14.593
11671SOL    HW136910   2.374  11.803  14.591
11671SOL    HW236911   2.454  11.899  14.505
11672SOL     OW36912   0.278   5.756   1.158
11672SOL    HW136913   0.343   5.806   1.109
11672SOL    HW236914   0.242   5.818   1.221
11673SOL     OW36915   7.307   8.404   6.475
11673SOL    HW136916   7.370   8.331   6.476
11673SOL    HW236917   7.272   8.406   6.564
11674SOL     OW36918   8.630  11.175   8.235
11674SOL    HW136919   8.717  11.214   8.237
11674SOL    HW236920   8.627  11.119   8.312
11675SOL     OW36921  12.348   7.083   9.099
11675SOL    HW136922  12.435   7.109   9.069
11675SOL    HW236923  12.288   7.140   9.051
11676SOL     OW36924   6.911   6.751  13.630
11676SOL    HW136925   6.951   6.833  13.659
11676SOL    HW236926   6.955   6.683  13.682
11677SOL     OW36927  10.252  12.570   0.353
11677SOL    HW136928  10.175  12.626   0.361
11677SOL    HW236929  10.290  12.568   0.440
11678SOL     OW36930   8.783  14.388  12.303
11678SOL    HW136931   8.750  14.330  12.371
11678SOL    HW236932   8.708  14.441  12.278
11679SOL     OW36933   9.245  10.330   7.150
11679SOL    HW136934   9.244  10.235   7.166
11679SOL    HW236935   9.273  10.368   7.233
11680SOL     OW36936  13.753   2.884   6.708
11680SOL    HW136937  13.697   2.845   6.775
11680SOL    HW236938  13.729   2.840   6.627
11681SOL     OW36939   1.164   9.283  10.925
11681SOL    HW136940   1.200   9.323  10.846
11681SOL    HW236941   1.200   9.195  10.927
11682SOL     OW36942  11.468  10.535   2.321
11682SOL    HW136943  11.418  10.589   2.381
11682SOL    HW236944  11.410  10.520   2.246
11683SOL     OW36945   8.510  10.196  13.034
11683SOL    HW136946   8.593  10.227  13.069
11683SOL    HW236947   8.503  10.106  13.066
11684SOL     OW36948  12.886   2.137  13.010
11684SOL    HW136949  12.959   2.075  13.010
11684SOL    HW236950  12.913   2.206  12.950
11685SOL     OW36951  12.053   6.366   2.608
11685SOL    HW136952  12.066   6.342   2.700
11685SOL    HW236953  11.969   6.327   2.585
11686SOL     OW36954   6.789  11.619  10.126
11686SOL    HW136955   6.741  11.610  10.208
11686SOL    HW236956   6.725  11.598  10.058
11687SOL     OW36957   3.167  11.651   4.891
11687SOL    HW136958   3.100  11.603   4.843
11687SOL    HW236959   3.248  11.634   4.844
11688SOL     OW36960  10.612  11.591   3.383
11688SOL    HW136961  10.578  11.503   3.367
11688SOL    HW236962  10.543  11.636   3.432
11689SOL     OW36963  14.221   6.077   0.665
11689SOL    HW136964  14.292   6.013   0.671
11689SOL    HW236965  14.202   6.082   0.571
11690SOL     OW36966   8.345   9.152   3.268
11690SOL    HW136967   8.399   9.073   3.260
11690SOL    HW236968   8.393   9.209   3.328
11691SOL     OW36969   0.235   0.745   6.309
11691SOL    HW136970   0.292   0.812   6.346
11691SOL    HW236971   0.233   0.765   6.215
11692SOL     OW36972   1.276  14.155  12.736
11692SOL    HW136973   1.233  14.105  12.806
11692SOL    HW236974   1.213  14.151  12.663
11693SOL     OW36975   9.861   6.986   4.082
11693SOL    HW136976   9.943   6.966   4.037
11693SOL    HW236977   9.808   7.029   4.015
11694SOL     OW36978  11.858   9.565   2.043
11694SOL    HW136979  11.810   9.559   1.960
11694SOL    HW236980  11.911   9.645   2.034
11695SOL     OW36981  12.008   4.408  12.277
11695SOL    HW136982  12.101   4.395  12.263
11695SOL    HW236983  11.965   4.348  12.217
11696SOL     OW36984  14.753   7.112   7.371
11696SOL    HW136985  14.777   7.028   7.333
11696SOL    HW236986  14.739   7.092   7.464
11697SOL     OW36987   0.137  10.546  10.113
11697SOL    HW136988   0.229  10.525  10.133
11697SOL    HW236989   0.136  10.561  10.019
11698SOL     OW36990   4.170  11.950   3.221
11698SOL    HW136991   4.172  11.890   3.295
11698SOL    HW236992   4.078  11.971   3.210
11699SOL     OW36993  11.484   4.991  12.134
11699SOL    HW136994  11.506   5.030  12.218
11699SOL    HW236995  11.422   4.921  12.155
11700SOL     OW36996   1.617   3.525   5.599
11700SOL    HW136997   1.557   3.459   5.564
11700SOL    HW236998   1.585   3.542   5.688
11701SOL     OW36999   7.442   0.833  13.726
11701SOL    HW137000   7.472   0.829  13.635
11701SOL    HW237001   7.522   0.835  13.778
11702SOL     OW37002  13.920   3.681  10.321
11702SOL    HW137003  13.995   3.727  10.284
11702SOL    HW237004  13.865   3.661  10.245
11703SOL     OW37005  11.759   5.096   5.179
11703SOL    HW137006  11.663   5.091   5.184
11703SOL    HW237007  11.776   5.133   5.092
11704SOL     OW37008  13.688   5.357  11.407
11704SOL    HW137009  13.678   5.415  11.331
11704SOL    HW237010  13.667   5.270  11.373
11705SOL     OW37011   2.833   5.501  14.785
11705SOL    HW137012   2.896   5.561  14.745
11705SOL    HW237013   2.768   5.485  14.717
11706SOL     OW37014  12.745   9.704   7.966
11706SOL    HW137015  12.733   9.613   7.994
11706SOL    HW237016  12.784   9.697   7.879
11707SOL     OW37017   8.175   8.971  11.463
11707SOL    HW137018   8.239   9.037  11.436
11707SOL    HW237019   8.147   8.999  11.550
11708SOL     OW37020   8.730  10.552   6.399
11708SOL    HW137021   8.696  10.482   6.343
11708SOL    HW237022   8.685  10.540   6.483
11709SOL     OW37023   1.071   6.423  14.536
11709SOL    HW137024   1.049   6.360  14.468
11709SOL    HW237025   0.999   6.486  14.535
11710SOL     OW37026  12.074   4.590   0.208
11710SOL    HW137027  11.988   4.552   0.226
11710SOL    HW237028  12.060   4.685   0.207
11711SOL     OW37029   4.765   0.928  13.005
11711SOL    HW137030   4.723   0.918  13.090
11711SOL    HW237031   4.742   1.017  12.977
11712SOL     OW37032  13.354  11.120   3.524
11712SOL    HW137033  13.391  11.047   3.573
11712SOL    HW237034  13.298  11.079   3.458
11713SOL     OW37035  11.868   3.861  14.493
11713SOL    HW137036  11.936   3.824  14.437
11713SOL    HW237037  11.846   3.790  14.553
11714SOL     OW37038  12.723   2.648   4.375
11714SOL    HW137039  12.792   2.614   4.433
11714SOL    HW237040  12.715   2.582   4.306
11715SOL     OW37041  13.075   0.881   0.728
11715SOL    HW137042  13.125   0.815   0.680
11715SOL    HW237043  13.074   0.958   0.671
11716SOL     OW37044  12.627   7.853   7.698
11716SOL    HW137045  12.655   7.943   7.683
11716SOL    HW237046  12.665   7.802   7.626
11717SOL     OW37047   2.243  13.613  14.236
11717SOL    HW137048   2.183  13.670  14.283
11717SOL    HW237049   2.313  13.595  14.299
11718SOL     OW37050   2.793  14.038   6.649
11718SOL    HW137051   2.857  14.098   6.610
11718SOL    HW237052   2.751  14.088   6.719
11719SOL     OW37053  13.755   7.572   5.749
11719SOL    HW137054  13.824   7.630   5.782
11719SOL    HW237055  13.674   7.609   5.785
11720SOL     OW37056  12.303   5.050  13.346
11720SOL    HW137057  12.345   5.011  13.423
11720SOL    HW237058  12.210   5.053  13.368
11721SOL     OW37059   0.514   9.933   1.081
11721SOL    HW137060   0.492  10.013   1.034
11721SOL    HW237061   0.529   9.868   1.013
11722SOL     OW37062   6.151   2.799   4.964
11722SOL    HW137063   6.214   2.742   5.007
11722SOL    HW237064   6.202   2.873   4.932
11723SOL     OW37065   6.756  13.522   4.158
11723SOL    HW137066   6.661  13.535   4.163
11723SOL    HW237067   6.789  13.558   4.241
11724SOL     OW37068  13.645   7.195   5.866
11724SOL    HW137069  13.566   7.151   5.897
11724SOL    HW237070  13.617   7.244   5.789
11725SOL     OW37071   1.236   5.202   9.482
11725SOL    HW137072   1.230   5.133   9.417
11725SOL    HW237073   1.287   5.163   9.553
11726SOL     OW37074  11.860   0.109  13.611
11726SOL    HW137075  11.912   0.029  13.622
11726SOL    HW237076  11.837   0.110  13.518
11727SOL     OW37077  13.564   9.750  13.447
11727SOL    HW137078  13.614   9.748  13.365
11727SOL    HW237079  13.545   9.658  13.465
11728SOL     OW37080   3.603   0.664   3.563
11728SOL    HW137081   3.679   0.703   3.518
11728SOL    HW237082   3.635   0.580   3.595
11729SOL     OW37083  14.597  14.273   9.148
11729SOL    HW137084  14.667  14.327   9.185
11729SOL    HW237085  14.593  14.196   9.205
11730SOL     OW37086   8.745   7.140   6.465
11730SOL    HW137087   8.827   7.117   6.508
11730SOL    HW237088   8.701   7.199   6.527
11731SOL     OW37089   4.672  11.841   7.399
11731SOL    HW137090   4.713  11.755   7.408
11731SOL    HW237091   4.594  11.836   7.454
11732SOL     OW37092   4.808  13.322   6.720
11732SOL    HW137093   4.743  13.352   6.784
11732SOL    HW237094   4.863  13.261   6.769
11733SOL     OW37095   6.269   2.966  10.925
11733SOL    HW137096   6.229   3.053  10.932
11733SOL    HW237097   6.223   2.913  10.991
11734SOL     OW37098   8.984   7.429   4.789
11734SOL    HW137099   9.060   7.438   4.732
11734SOL    HW237100   8.928   7.504   4.767
11735SOL     OW37101   8.765   3.800  12.979
11735SOL    HW137102   8.691   3.746  12.948
11735SOL    HW237103   8.726   3.884  13.001
11736SOL     OW37104   3.867  12.898   7.217
11736SOL    HW137105   3.831  12.929   7.300
11736SOL    HW237106   3.959  12.925   7.218
11737SOL     OW37107   4.702   2.730   1.687
11737SOL    HW137108   4.795   2.717   1.670
11737SOL    HW237109   4.675   2.651   1.733
11738SOL     OW37110  10.865   9.082   1.240
11738SOL    HW137111  10.934   9.055   1.300
11738SOL    HW237112  10.812   9.003   1.227
11739SOL     OW37113   9.817   5.368   6.885
11739SOL    HW137114   9.861   5.377   6.800
11739SOL    HW237115   9.729   5.402   6.870
11740SOL     OW37116   3.256   7.069   2.606
11740SOL    HW137117   3.257   7.034   2.516
11740SOL    HW237118   3.183   7.132   2.606
11741SOL     OW37119  10.274   3.104  13.351
11741SOL    HW137120  10.308   3.087  13.439
11741SOL    HW237121  10.236   3.020  13.324
11742SOL     OW37122  11.783  10.078   7.940
11742SOL    HW137123  11.823  10.077   8.027
11742SOL    HW237124  11.688  10.080   7.958
11743SOL     OW37125  13.741  12.340   0.447
11743SOL    HW137126  13.833  12.351   0.471
11743SOL    HW237127  13.734  12.380   0.361
11744SOL     OW37128   1.596   0.933   2.541
11744SOL    HW137129   1.671   0.987   2.566
11744SOL    HW237130   1.572   0.964   2.454
11745SOL     OW37131  12.881   6.838  10.561
11745SOL    HW137132  12.821   6.763  10.560
11745SOL    HW237133  12.897   6.858  10.469
11746SOL     OW37134   1.529   6.348  11.648
11746SOL    HW137135   1.548   6.299  11.728
11746SOL    HW237136   1.550   6.287  11.577
11747SOL     OW37137   6.959  10.315   1.202
11747SOL    HW137138   6.959  10.325   1.298
11747SOL    HW237139   6.872  10.283   1.181
11748SOL     OW37140   2.136   6.807   4.716
11748SOL    HW137141   2.182   6.844   4.791
11748SOL    HW237142   2.202   6.800   4.647
11749SOL     OW37143   0.818   8.797   9.889
11749SOL    HW137144   0.898   8.832   9.850
11749SOL    HW237145   0.780   8.742   9.822
11750SOL     OW37146  13.759   2.485   5.924
11750SOL    HW137147  13.851   2.486   5.949
11750SOL    HW237148  13.729   2.397   5.947
11751SOL     OW37149   5.149  14.365  11.310
11751SOL    HW137150   5.110  14.433  11.365
11751SOL    HW237151   5.173  14.410  11.229
11752SOL     OW37152  11.618   6.654  11.206
11752SOL    HW137153  11.595   6.655  11.299
11752SOL    HW237154  11.706   6.690  11.202
11753SOL     OW37155   4.256   6.604   8.804
11753SOL    HW137156   4.223   6.687   8.768
11753SOL    HW237157   4.340   6.591   8.760
11754SOL     OW37158  10.585   5.153  10.555
11754SOL    HW137159  10.508   5.161  10.611
11754SOL    HW237160  10.600   5.059  10.549
11755SOL     OW37161   3.371   6.666  11.064
11755SOL    HW137162   3.426   6.740  11.089
11755SOL    HW237163   3.424   6.589  11.085
11756SOL     OW37164   0.851   6.903  13.618
11756SOL    HW137165   0.849   6.862  13.705
11756SOL    HW237166   0.773   6.957  13.615
11757SOL     OW37167   1.049   7.018  13.193
11757SOL    HW137168   1.098   7.099  13.178
11757SOL    HW237169   1.089   6.955  13.134
11758SOL     OW37170  13.388   0.151   4.408
11758SOL    HW137171  13.395   0.063   4.371
11758SOL    HW237172  13.403   0.139   4.502
11759SOL     OW37173   6.959  12.829   6.713
11759SOL    HW137174   6.987  12.839   6.623
11759SOL    HW237175   6.952  12.919   6.746
11760SOL     OW37176   4.670   1.994  14.074
11760SOL    HW137177   4.726   2.071  14.064
11760SOL    HW237178   4.700   1.934  14.005
11761SOL     OW37179   8.462   7.978  10.831
11761SOL    HW137180   8.450   7.944  10.920
11761SOL    HW237181   8.372   7.991  10.799
11762SOL     OW37182   8.181   7.601   8.256
11762SOL    HW137183   8.160   7.509   8.244
11762SOL    HW237184   8.190   7.636   8.168
11763SOL     OW37185   7.983   9.265   9.217
11763SOL    HW137186   7.963   9.224   9.301
11763SOL    HW237187   7.916   9.231   9.158
11764SOL     OW37188   4.206   6.736   4.773
11764SOL    HW137189   4.259   6.806   4.734
11764SOL    HW237190   4.174   6.774   4.856
11765SOL     OW37191   6.776  10.527  14.156
11765SOL    HW137192   6.724  10.526  14.236
11765SOL    HW237193   6.794  10.435  14.138
11766SOL     OW37194   8.945   3.642   2.605
11766SOL    HW137195   8.989   3.560   2.581
11766SOL    HW237196   8.920   3.680   2.521
11767SOL     OW37197  13.982  14.753   1.904
11767SOL    HW137198  13.997  14.812   1.978
11767SOL    HW237199  13.928  14.683   1.939
11768SOL     OW37200   4.051   7.969   9.556
11768SOL    HW137201   3.960   7.986   9.531
11768SOL    HW237202   4.072   7.886   9.513
11769SOL     OW37203  10.618  13.497  14.321
11769SOL    HW137204  10.554  13.561  14.353
11769SOL    HW237205  10.610  13.502  14.225
11770SOL     OW37206  14.219   0.267   7.513
11770SOL    HW137207  14.274   0.292   7.439
11770SOL    HW237208  14.267   0.195   7.555
11771SOL     OW37209   1.206  10.657   1.520
11771SOL    HW137210   1.232  10.747   1.504
11771SOL    HW237211   1.118  10.650   1.481
11772SOL     OW37212  13.092   6.320  12.305
11772SOL    HW137213  13.168   6.378  12.307
11772SOL    HW237214  13.125   6.240  12.265
11773SOL     OW37215   6.579  10.422   0.708
11773SOL    HW137216   6.509  10.419   0.772
11773SOL    HW237217   6.551  10.488   0.644
11774SOL     OW37218  13.136   6.707  13.218
11774SOL    HW137219  13.228   6.726  13.237
11774SOL    HW237220  13.114   6.633  13.275
11775SOL     OW37221   1.652  12.715   5.839
11775SOL    HW137222   1.716  12.771   5.884
11775SOL    HW237223   1.613  12.662   5.908
11776SOL     OW37224   0.641  13.120   8.917
11776SOL    HW137225   0.596  13.056   8.972
11776SOL    HW237226   0.720  13.142   8.965
11777SOL     OW37227   1.159   6.403  10.569
11777SOL    HW137228   1.222   6.407  10.497
11777SOL    HW237229   1.113   6.486  10.565
11778SOL     OW37230   2.985   8.156   7.195
11778SOL    HW137231   3.005   8.069   7.159
11778SOL    HW237232   3.050   8.168   7.265
11779SOL     OW37233  13.055   9.252   2.347
11779SOL    HW137234  13.027   9.203   2.269
11779SOL    HW237235  13.079   9.184   2.410
11780SOL     OW37236   7.745  11.537  14.451
11780SOL    HW137237   7.705  11.501  14.371
11780SOL    HW237238   7.700  11.620  14.465
11781SOL     OW37239  10.051   5.615   4.750
11781SOL    HW137240   9.964   5.638   4.781
11781SOL    HW237241  10.071   5.681   4.683
11782SOL     OW37242   3.860   4.280   3.758
11782SOL    HW137243   3.767   4.265   3.744
11782SOL    HW237244   3.872   4.272   3.852
11783SOL     OW37245   6.250   1.947   9.062
11783SOL    HW137246   6.242   1.945   8.967
11783SOL    HW237247   6.215   2.032   9.087
11784SOL     OW37248   3.696   5.144   5.267
11784SOL    HW137249   3.681   5.219   5.211
11784SOL    HW237250   3.619   5.088   5.254
11785SOL     OW37251   5.478  11.045   5.163
11785SOL    HW137252   5.556  11.077   5.118
11785SOL    HW237253   5.426  11.003   5.095
11786SOL     OW37254   2.128   2.703   7.654
11786SOL    HW137255   2.168   2.771   7.708
11786SOL    HW237256   2.159   2.722   7.565
11787SOL     OW37257  11.587   8.259   2.640
11787SOL    HW137258  11.521   8.309   2.591
11787SOL    HW237259  11.646   8.224   2.573
11788SOL     OW37260  14.190  14.014  12.491
11788SOL    HW137261  14.168  14.064  12.570
11788SOL    HW237262  14.111  13.963  12.472
11789SOL     OW37263   3.878   2.394   6.178
11789SOL    HW137264   3.815   2.374   6.109
11789SOL    HW237265   3.884   2.313   6.229
11790SOL     OW37266  13.787   7.758   3.621
11790SOL    HW137267  13.697   7.785   3.637
11790SOL    HW237268  13.839   7.813   3.679
11791SOL     OW37269   2.555   6.251   9.505
11791SOL    HW137270   2.545   6.203   9.423
11791SOL    HW237271   2.563   6.183   9.572
11792SOL     OW37272   9.255  13.303  12.010
11792SOL    HW137273   9.191  13.265  11.950
11792SOL    HW237274   9.338  13.262  11.986
11793SOL     OW37275   8.324   1.494   8.653
11793SOL    HW137276   8.385   1.420   8.658
11793SOL    HW237277   8.300   1.511   8.744
11794SOL     OW37278   0.524   8.907   6.026
11794SOL    HW137279   0.599   8.888   5.970
11794SOL    HW237280   0.450   8.867   5.981
11795SOL     OW37281   5.346  13.532  14.336
11795SOL    HW137282   5.413  13.500  14.276
11795SOL    HW237283   5.317  13.614  14.299
11796SOL     OW37284   1.084   8.402   8.643
11796SOL    HW137285   1.165   8.419   8.692
11796SOL    HW237286   1.068   8.483   8.595
11797SOL     OW37287  14.120   0.029  13.975
11797SOL    HW137288  14.151   0.113  14.007
11797SOL    HW237289  14.035   0.048  13.934
11798SOL     OW37290   7.746   8.211   2.590
11798SOL    HW137291   7.704   8.159   2.521
11798SOL    HW237292   7.702   8.296   2.585
11799SOL     OW37293   3.589   2.429   4.375
11799SOL    HW137294   3.571   2.511   4.422
11799SOL    HW237295   3.556   2.445   4.286
11800SOL     OW37296   4.847   6.402   2.609
11800SOL    HW137297   4.865   6.320   2.563
11800SOL    HW237298   4.865   6.470   2.545
11801SOL     OW37299  12.403  13.953   7.315
11801SOL    HW137300  12.346  13.888   7.273
11801SOL    HW237301  12.393  14.032   7.261
11802SOL     OW37302   0.150   8.687   7.996
11802SOL    HW137303   0.155   8.702   7.902
11802SOL    HW237304   0.240   8.697   8.026
11803SOL     OW37305   8.033   9.105   0.117
11803SOL    HW137306   8.125   9.132   0.121
11803SOL    HW237307   8.025   9.061   0.032
11804SOL     OW37308   5.150   5.907   9.182
11804SOL    HW137309   5.084   5.976   9.181
11804SOL    HW237310   5.101   5.826   9.198
11805SOL     OW37311   1.256   9.513  11.047
11805SOL    HW137312   1.235   9.422  11.026
11805SOL    HW237313   1.244   9.520  11.142
11806SOL     OW37314   6.932   2.014  11.406
11806SOL    HW137315   6.869   1.942  11.399
11806SOL    HW237316   6.894   2.073  11.471
11807SOL     OW37317  12.415  11.201  11.147
11807SOL    HW137318  12.395  11.280  11.097
11807SOL    HW237319  12.331  11.157  11.157
11808SOL     OW37320   4.106   6.334   8.414
11808SOL    HW137321   4.041   6.309   8.480
11808SOL    HW237322   4.069   6.306   8.331
11809SOL     OW37323   4.282   0.127  10.215
11809SOL    HW137324   4.343   0.055  10.200
11809SOL    HW237325   4.239   0.140  10.130
11810SOL     OW37326   8.817   5.670   3.873
11810SOL    HW137327   8.822   5.614   3.796
11810SOL    HW237328   8.726   5.699   3.877
11811SOL     OW37329  12.753   1.093  10.845
11811SOL    HW137330  12.737   1.136  10.761
11811SOL    HW237331  12.689   1.022  10.848
11812SOL     OW37332   6.309   2.869   7.077
11812SOL    HW137333   6.215   2.860   7.067
11812SOL    HW237334   6.322   2.891   7.169
11813SOL     OW37335  14.038   5.099   8.161
11813SOL    HW137336  14.117   5.045   8.169
11813SOL    HW237337  13.966   5.036   8.160
11814SOL     OW37338  10.408  11.936   4.176
11814SOL    HW137339  10.356  11.941   4.096
11814SOL    HW237340  10.345  11.954   4.246
11815SOL     OW37341   6.438  11.311   4.595
11815SOL    HW137342   6.530  11.314   4.568
11815SOL    HW237343   6.424  11.393   4.641
11816SOL     OW37344  11.639  13.768   8.321
11816SOL    HW137345  11.707  13.702   8.309
11816SOL    HW237346  11.569  13.722   8.368
11817SOL     OW37347   7.793  14.692   2.653
11817SOL    HW137348   7.821  14.715   2.742
11817SOL    HW237349   7.712  14.644   2.666
11818SOL     OW37350  11.156  11.047   6.332
11818SOL    HW137351  11.118  10.970   6.290
11818SOL    HW237352  11.082  11.108   6.339
11819SOL     OW37353   9.137   3.115  11.432
11819SOL    HW137354   9.194   3.039  11.440
11819SOL    HW237355   9.081   3.112  11.510
11820SOL     OW37356  12.125  14.202   6.421
11820SOL    HW137357  12.087  14.208   6.334
11820SOL    HW237358  12.121  14.292   6.455
11821SOL     OW37359   2.441  13.480  10.573
11821SOL    HW137360   2.403  13.514  10.654
11821SOL    HW237361   2.369  13.436  10.529
11822SOL     OW37362   1.699   8.241  10.422
11822SOL    HW137363   1.688   8.325  10.378
11822SOL    HW237364   1.612   8.201  10.419
11823SOL     OW37365  13.755   4.508  12.054
11823SOL    HW137366  13.804   4.589  12.068
11823SOL    HW237367  13.668   4.538  12.027
11824SOL     OW37368   2.159   2.627  11.589
11824SOL    HW137369   2.148   2.715  11.552
11824SOL    HW237370   2.110   2.629  11.671
11825SOL     OW37371  13.304  12.206   9.204
11825SOL    HW137372  13.399  12.201   9.206
11825SOL    HW237373  13.280  12.264   9.276
11826SOL     OW37374  12.914  11.169   7.772
11826SOL    HW137375  12.858  11.248   7.777
11826SOL    HW237376  12.989  11.190   7.827
11827SOL     OW37377   8.291   6.119   5.078
11827SOL    HW137378   8.247   6.042   5.041
11827SOL    HW237379   8.331   6.162   5.002
11828SOL     OW37380   0.673   6.918   6.760
11828SOL    HW137381   0.765   6.942   6.745
11828SOL    HW237382   0.626   6.959   6.688
11829SOL     OW37383  12.624   8.834   7.804
11829SOL    HW137384  12.559   8.843   7.873
11829SOL    HW237385  12.688   8.903   7.821
11830SOL     OW37386  12.036   7.009  12.481
11830SOL    HW137387  12.089   7.033  12.558
11830SOL    HW237388  11.999   6.924  12.503
11831SOL     OW37389  12.171   4.557  11.657
11831SOL    HW137390  12.260   4.551  11.622
11831SOL    HW237391  12.147   4.467  11.677
11832SOL     OW37392  12.791   3.393   1.458
11832SOL    HW137393  12.886   3.395   1.471
11832SOL    HW237394  12.777   3.320   1.396
11833SOL     OW37395   1.643  11.795   5.099
11833SOL    HW137396   1.700  11.788   5.175
11833SOL    HW237397   1.703  11.803   5.025
11834SOL     OW37398   6.427   0.229  11.302
11834SOL    HW137399   6.487   0.242  11.230
11834SOL    HW237400   6.432   0.135  11.321
11835SOL     OW37401   2.529  14.306   9.929
11835SOL    HW137402   2.436  14.323   9.917
11835SOL    HW237403   2.571  14.354   9.857
11836SOL     OW37404   3.100   8.345   9.102
11836SOL    HW137405   3.106   8.252   9.121
11836SOL    HW237406   3.137   8.354   9.014
11837SOL     OW37407   5.144   9.422   2.957
11837SOL    HW137408   5.212   9.366   2.919
11837SOL    HW237409   5.170   9.435   3.048
11838SOL     OW37410  12.223   3.670  12.895
11838SOL    HW137411  12.246   3.753  12.855
11838SOL    HW237412  12.165   3.693  12.968
11839SOL     OW37413   3.003   3.785   5.326
11839SOL    HW137414   2.923   3.831   5.350
11839SOL    HW237415   3.055   3.848   5.277
11840SOL     OW37416   3.275   3.827  12.454
11840SOL    HW137417   3.250   3.918  12.468
11840SOL    HW237418   3.332   3.829  12.377
11841SOL     OW37419   5.961   6.169   3.195
11841SOL    HW137420   6.029   6.116   3.153
11841SOL    HW237421   6.003   6.254   3.210
11842SOL     OW37422   0.726  12.612   8.143
11842SOL    HW137423   0.809  12.569   8.161
11842SOL    HW237424   0.712  12.671   8.218
11843SOL     OW37425   9.396   1.206   4.239
11843SOL    HW137426   9.356   1.213   4.153
11843SOL    HW237427   9.450   1.284   4.247
11844SOL     OW37428   1.182  10.950   0.447
11844SOL    HW137429   1.130  11.029   0.467
11844SOL    HW237430   1.131  10.878   0.485
11845SOL     OW37431   4.496   2.242  12.243
11845SOL    HW137432   4.423   2.180  12.241
11845SOL    HW237433   4.525   2.247  12.151
11846SOL     OW37434   7.674   6.767   6.255
11846SOL    HW137435   7.679   6.674   6.233
11846SOL    HW237436   7.581   6.788   6.255
11847SOL     OW37437   3.100  10.198   9.609
11847SOL    HW137438   3.029  10.179   9.671
11847SOL    HW237439   3.171  10.233   9.663
11848SOL     OW37440  13.815  13.836   2.779
11848SOL    HW137441  13.782  13.897   2.846
11848SOL    HW237442  13.750  13.839   2.709
11849SOL     OW37443   4.073  13.733  13.045
11849SOL    HW137444   4.012  13.663  13.068
11849SOL    HW237445   4.120  13.700  12.969
11850SOL     OW37446  14.666  11.455   9.576
11850SOL    HW137447  14.696  11.528   9.629
11850SOL    HW237448  14.723  11.456   9.499
11851SOL     OW37449  13.851  12.886   5.397
11851SOL    HW137450  13.840  12.891   5.302
11851SOL    HW237451  13.926  12.942   5.416
11852SOL     OW37452  13.326   7.546   5.184
11852SOL    HW137453  13.388   7.508   5.246
11852SOL    HW237454  13.335   7.492   5.105
11853SOL     OW37455  13.594  12.977   9.128
11853SOL    HW137456  13.586  12.894   9.081
11853SOL    HW237457  13.661  13.026   9.081
11854SOL     OW37458   9.251   1.789   0.161
11854SOL    HW137459   9.197   1.746   0.095
11854SOL    HW237460   9.305   1.850   0.111
11855SOL     OW37461   2.149   5.517   9.341
11855SOL    HW137462   2.104   5.601   9.340
11855SOL    HW237463   2.192   5.511   9.256
11856SOL     OW37464  14.444   2.147   4.097
11856SOL    HW137465  14.425   2.061   4.061
11856SOL    HW237466  14.438   2.206   4.022
11857SOL     OW37467  11.885  14.174   7.366
11857SOL    HW137468  11.949  14.103   7.355
11857SOL    HW237469  11.876  14.212   7.279
11858SOL     OW37470   2.903  14.640  10.281
11858SOL    HW137471   2.829  14.601  10.234
11858SOL    HW237472   2.867  14.663  10.367
11859SOL     OW37473  11.571   8.051  14.779
11859SOL    HW137474  11.529   7.989  14.720
11859SOL    HW237475  11.505   8.119  14.795
11860SOL     OW37476   0.190  13.902   0.693
11860SOL    HW137477   0.248  13.929   0.621
11860SOL    HW237478   0.240  13.835   0.740
11861SOL     OW37479   6.641  13.762   0.579
11861SOL    HW137480   6.720  13.804   0.545
11861SOL    HW237481   6.651  13.768   0.674
11862SOL     OW37482   1.322   7.363   0.683
11862SOL    HW137483   1.363   7.293   0.734
11862SOL    HW237484   1.228   7.345   0.689
11863SOL     OW37485   9.099   4.897   2.375
11863SOL    HW137486   9.188   4.862   2.377
11863SOL    HW237487   9.066   4.887   2.465
11864SOL     OW37488  13.476   9.372  11.288
11864SOL    HW137489  13.428   9.441  11.243
11864SOL    HW237490  13.563   9.372  11.247
11865SOL     OW37491   6.365  13.105  12.416
11865SOL    HW137492   6.278  13.144  12.414
11865SOL    HW237493   6.383  13.083  12.324
11866SOL     OW37494   3.979   1.729   0.021
11866SOL    HW137495   4.045   1.684   0.074
11866SOL    HW237496   3.984   1.687  14.805
11867SOL     OW37497   0.020  12.854   4.499
11867SOL    HW137498   0.042  12.922   4.562
11867SOL    HW237499   0.104  12.826   4.462
11868SOL     OW37500   1.106   8.085  12.794
11868SOL    HW137501   1.133   8.038  12.873
11868SOL    HW237502   1.119   8.177  12.815
11869SOL     OW37503   1.075  10.083   2.614
11869SOL    HW137504   1.114  10.094   2.700
11869SOL    HW237505   1.135  10.128   2.554
11870SOL     OW37506  13.567  14.217   2.006
11870SOL    HW137507  13.662  14.207   2.005
11870SOL    HW237508  13.551  14.291   2.064
11871SOL     OW37509   2.203   6.711  11.261
11871SOL    HW137510   2.152   6.651  11.316
11871SOL    HW237511   2.207   6.667  11.176
11872SOL     OW37512   8.605   3.377   2.683
11872SOL    HW137513   8.572   3.383   2.773
11872SOL    HW237514   8.559   3.303   2.645
11873SOL     OW37515   7.364   1.563   1.894
11873SOL    HW137516   7.422   1.556   1.969
11873SOL    HW237517   7.418   1.539   1.819
11874SOL     OW37518   9.120   3.356   6.883
11874SOL    HW137519   9.096   3.272   6.920
11874SOL    HW237520   9.177   3.335   6.809
11875SOL     OW37521  11.094   8.210   2.690
11875SOL    HW137522  11.145   8.226   2.611
11875SOL    HW237523  11.070   8.297   2.721
11876SOL     OW37524   8.807   1.859  14.202
11876SOL    HW137525   8.753   1.793  14.247
11876SOL    HW237526   8.787   1.941  14.247
11877SOL     OW37527  12.328   6.610   7.196
11877SOL    HW137528  12.354   6.612   7.287
11877SOL    HW237529  12.335   6.518   7.170
11878SOL     OW37530   5.832  13.315   0.937
11878SOL    HW137531   5.885  13.285   0.863
11878SOL    HW237532   5.742  13.295   0.913
11879SOL     OW37533   3.382  11.277   5.166
11879SOL    HW137534   3.392  11.206   5.229
11879SOL    HW237535   3.386  11.234   5.081
11880SOL     OW37536   5.011  14.312   9.074
11880SOL    HW137537   4.958  14.376   9.120
11880SOL    HW237538   5.068  14.274   9.141
11881SOL     OW37539   0.835   2.908   6.602
11881SOL    HW137540   0.835   3.002   6.623
11881SOL    HW237541   0.881   2.902   6.519
11882SOL     OW37542   9.181  12.701   4.072
11882SOL    HW137543   9.195  12.794   4.087
11882SOL    HW237544   9.089  12.687   4.094
11883SOL     OW37545   0.347   6.215  10.295
11883SOL    HW137546   0.397   6.134  10.300
11883SOL    HW237547   0.385   6.272  10.362
11884SOL     OW37548   2.387   6.158   9.863
11884SOL    HW137549   2.425   6.235   9.904
11884SOL    HW237550   2.293   6.167   9.876
11885SOL     OW37551  11.400  14.082   1.621
11885SOL    HW137552  11.331  14.127   1.670
11885SOL    HW237553  11.478  14.091   1.675
11886SOL     OW37554  11.734  11.859  10.656
11886SOL    HW137555  11.731  11.911  10.737
11886SOL    HW237556  11.826  11.857  10.632
11887SOL     OW37557  13.070   0.575  14.636
11887SOL    HW137558  12.979   0.552  14.618
11887SOL    HW237559  13.113   0.491  14.653
11888SOL     OW37560   9.949  10.901   4.676
11888SOL    HW137561  10.012  10.951   4.624
11888SOL    HW237562   9.875  10.887   4.617
11889SOL     OW37563  10.712   2.415   9.913
11889SOL    HW137564  10.635   2.433   9.967
11889SOL    HW237565  10.694   2.331   9.872
11890SOL     OW37566   1.081   7.446   8.227
11890SOL    HW137567   1.156   7.419   8.175
11890SOL    HW237568   1.056   7.367   8.276
11891SOL     OW37569   0.400  12.614  11.090
11891SOL    HW137570   0.365  12.531  11.058
11891SOL    HW237571   0.468  12.589  11.153
11892SOL     OW37572   1.285   2.207   1.760
11892SOL    HW137573   1.197   2.198   1.722
11892SOL    HW237574   1.291   2.134   1.821
11893SOL     OW37575   4.349   5.044   9.694
11893SOL    HW137576   4.255   5.034   9.679
11893SOL    HW237577   4.387   4.959   9.670
11894SOL     OW37578   9.868   6.142  10.582
11894SOL    HW137579   9.910   6.156  10.666
11894SOL    HW237580   9.931   6.176  10.518
11895SOL     OW37581  12.314  14.433   6.254
11895SOL    HW137582  12.386  14.476   6.209
11895SOL    HW237583  12.307  14.347   6.212
11896SOL     OW37584   0.361  13.791   3.195
11896SOL    HW137585   0.349  13.871   3.246
11896SOL    HW237586   0.312  13.724   3.243
11897SOL     OW37587   4.859   8.404   1.508
11897SOL    HW137588   4.774   8.364   1.490
11897SOL    HW237589   4.842   8.498   1.505
11898SOL     OW37590   9.149   6.567   8.885
11898SOL    HW137591   9.083   6.498   8.875
11898SOL    HW237592   9.196   6.545   8.965
11899SOL     OW37593   6.589  14.288   1.146
11899SOL    HW137594   6.609  14.195   1.160
11899SOL    HW237595   6.645  14.313   1.072
11900SOL     OW37596   5.212  11.378   0.851
11900SOL    HW137597   5.179  11.292   0.880
11900SOL    HW237598   5.273  11.357   0.780
11901SOL     OW37599   1.288   6.071   6.710
11901SOL    HW137600   1.209   6.017   6.725
11901SOL    HW237601   1.261   6.134   6.643
11902SOL     OW37602   0.782   6.451  14.508
11902SOL    HW137603   0.688   6.442  14.492
11902SOL    HW237604   0.789   6.526  14.568
11903SOL     OW37605  11.767   4.610   4.877
11903SOL    HW137606  11.719   4.528   4.887
11903SOL    HW237607  11.727   4.670   4.940
11904SOL     OW37608  12.297   3.446   4.899
11904SOL    HW137609  12.286   3.351   4.893
11904SOL    HW237610  12.231   3.482   4.840
11905SOL     OW37611  12.613   4.813   5.298
11905SOL    HW137612  12.684   4.749   5.294
11905SOL    HW237613  12.645   4.880   5.358
11906SOL     OW37614  12.033   8.877   7.317
11906SOL    HW137615  11.952   8.868   7.368
11906SOL    HW237616  12.101   8.844   7.374
11907SOL     OW37617  13.658   4.145  11.760
11907SOL    HW137618  13.688   4.189  11.680
11907SOL    HW237619  13.698   4.196  11.831
11908SOL     OW37620  13.673  12.916   4.284
11908SOL    HW137621  13.715  12.877   4.208
11908SOL    HW237622  13.745  12.947   4.339
11909SOL     OW37623   4.001  12.933   1.188
11909SOL    HW137624   4.069  12.901   1.129
11909SOL    HW237625   4.044  12.938   1.274
11910SOL     OW37626   4.520   7.300   4.250
11910SOL    HW137627   4.583   7.370   4.269
11910SOL    HW237628   4.451   7.344   4.200
11911SOL     OW37629  14.090  13.387  11.020
11911SOL    HW137630  14.003  13.351  11.003
11911SOL    HW237631  14.146  13.346  10.954
11912SOL     OW37632   3.334   0.341  14.499
11912SOL    HW137633   3.336   0.427  14.457
11912SOL    HW237634   3.365   0.358  14.588
11913SOL     OW37635   9.717   9.997   0.707
11913SOL    HW137636   9.712  10.038   0.620
11913SOL    HW237637   9.805  10.016   0.738
11914SOL     OW37638   2.966   5.432  11.002
11914SOL    HW137639   2.987   5.386  10.920
11914SOL    HW237640   2.872   5.422  11.012
11915SOL     OW37641   8.513   3.803   6.330
11915SOL    HW137642   8.553   3.831   6.412
11915SOL    HW237643   8.474   3.717   6.350
11916SOL     OW37644   0.003   9.278   4.732
11916SOL    HW137645   0.054   9.242   4.659
11916SOL    HW237646   0.052   9.253   4.810
11917SOL     OW37647   6.602   0.863   2.832
11917SOL    HW137648   6.629   0.780   2.792
11917SOL    HW237649   6.597   0.844   2.926
11918SOL     OW37650   8.100   8.164  12.623
11918SOL    HW137651   8.178   8.140  12.572
11918SOL    HW237652   8.056   8.230  12.569
11919SOL     OW37653  13.371  12.268   8.785
11919SOL    HW137654  13.408  12.195   8.735
11919SOL    HW237655  13.277  12.261   8.771
11920SOL     OW37656   8.495   2.178  12.881
11920SOL    HW137657   8.580   2.150  12.847
11920SOL    HW237658   8.440   2.099  12.877
11921SOL     OW37659  10.568   3.633   1.840
11921SOL    HW137660  10.610   3.678   1.914
11921SOL    HW237661  10.610   3.670   1.762
11922SOL     OW37662   4.518   6.702   6.387
11922SOL    HW137663   4.428   6.735   6.390
11922SOL    HW237664   4.516   6.621   6.437
11923SOL     OW37665   3.083   9.807   2.358
11923SOL    HW137666   2.992   9.809   2.385
11923SOL    HW237667   3.118   9.892   2.385
11924SOL     OW37668   6.744  12.047   5.294
11924SOL    HW137669   6.764  12.132   5.255
11924SOL    HW237670   6.660  12.022   5.256
11925SOL     OW37671   7.348  14.459   3.455
11925SOL    HW137672   7.327  14.368   3.474
11925SOL    HW237673   7.313  14.475   3.368
11926SOL     OW37674  13.993   2.585   8.156
11926SOL    HW137675  13.906   2.588   8.194
11926SOL    HW237676  14.037   2.512   8.201
11927SOL     OW37677   9.396   7.967   9.767
11927SOL    HW137678   9.488   7.954   9.789
11927SOL    HW237679   9.391   8.058   9.737
11928SOL     OW37680  12.908   3.909   1.195
11928SOL    HW137681  12.988   3.875   1.235
11928SOL    HW237682  12.928   3.913   1.102
11929SOL     OW37683   1.085   4.158  14.395
11929SOL    HW137684   1.117   4.132  14.482
11929SOL    HW237685   1.041   4.241  14.410
11930SOL     OW37686   9.654   7.914   4.052
11930SOL    HW137687   9.742   7.926   4.089
11930SOL    HW237688   9.595   7.952   4.118
11931SOL     OW37689   7.150   9.260  11.539
11931SOL    HW137690   7.243   9.272  11.557
11931SOL    HW237691   7.116   9.348  11.522
11932SOL     OW37692  14.833   8.531   6.720
11932SOL    HW137693   0.042   8.506   6.768
11932SOL    HW237694  14.766   8.470   6.750
11933SOL     OW37695  13.642   6.958   0.642
11933SOL    HW137696  13.699   6.884   0.621
11933SOL    HW237697  13.701   7.029   0.664
11934SOL     OW37698  10.476  13.697   5.732
11934SOL    HW137699  10.503  13.756   5.662
11934SOL    HW237700  10.382  13.709   5.739
11935SOL     OW37701  12.864   7.420   1.819
11935SOL    HW137702  12.877   7.383   1.732
11935SOL    HW237703  12.824   7.350   1.870
11936SOL     OW37704   5.489   4.239   5.875
11936SOL    HW137705   5.543   4.162   5.855
11936SOL    HW237706   5.532   4.279   5.951
11937SOL     OW37707   1.905   9.319   2.297
11937SOL    HW137708   1.849   9.371   2.354
11937SOL    HW237709   1.849   9.292   2.225
11938SOL     OW37710  12.171  11.715   4.017
11938SOL    HW137711  12.231  11.642   4.001
11938SOL    HW237712  12.228  11.792   4.020
11939SOL     OW37713  11.887  14.622   0.453
11939SOL    HW137714  11.930  14.708   0.455
11939SOL    HW237715  11.801  14.639   0.416
11940SOL     OW37716   6.924  13.239  11.830
11940SOL    HW137717   6.830  13.227  11.822
11940SOL    HW237718   6.961  13.190  11.757
11941SOL     OW37719   5.975   0.378   4.333
11941SOL    HW137720   5.962   0.404   4.242
11941SOL    HW237721   5.959   0.283   4.333
11942SOL     OW37722  11.536  13.287  12.308
11942SOL    HW137723  11.565  13.335  12.385
11942SOL    HW237724  11.597  13.311  12.239
11943SOL     OW37725   5.265  11.928  12.197
11943SOL    HW137726   5.236  11.985  12.126
11943SOL    HW237727   5.188  11.918  12.253
11944SOL     OW37728   1.892  10.945   7.122
11944SOL    HW137729   1.804  10.945   7.086
11944SOL    HW237730   1.950  10.954   7.046
11945SOL     OW37731   7.684  11.967   0.862
11945SOL    HW137732   7.767  11.976   0.815
11945SOL    HW237733   7.706  11.984   0.953
11946SOL     OW37734   4.761   2.421   7.289
11946SOL    HW137735   4.705   2.344   7.300
11946SOL    HW237736   4.803   2.432   7.374
11947SOL     OW37737   4.930   7.334   9.018
11947SOL    HW137738   4.961   7.245   9.004
11947SOL    HW237739   4.931   7.374   8.931
11948SOL     OW37740  14.667  12.269  11.577
11948SOL    HW137741  14.612  12.338  11.613
11948SOL    HW237742  14.606  12.196  11.561
11949SOL     OW37743  13.442   9.861  10.566
11949SOL    HW137744  13.466   9.817  10.484
11949SOL    HW237745  13.346   9.853  10.570
11950SOL     OW37746  10.152   8.880   1.200
11950SOL    HW137747  10.161   8.810   1.265
11950SOL    HW237748  10.079   8.933   1.231
11951SOL     OW37749   7.268  10.356   8.529
11951SOL    HW137750   7.179  10.320   8.521
11951SOL    HW237751   7.315  10.290   8.580
11952SOL     OW37752   7.957   5.654  12.475
11952SOL    HW137753   7.968   5.600  12.397
11952SOL    HW237754   7.870   5.693  12.465
11953SOL     OW37755   3.563   7.404   6.013
11953SOL    HW137756   3.658   7.398   6.005
11953SOL    HW237757   3.530   7.331   5.961
11954SOL     OW37758   5.274  11.798  10.654
11954SOL    HW137759   5.196  11.846  10.684
11954SOL    HW237760   5.239  11.726  10.601
11955SOL     OW37761   8.926   9.808   1.842
11955SOL    HW137762   8.954   9.757   1.918
11955SOL    HW237763   8.835   9.830   1.860
11956SOL     OW37764   4.257  14.684  14.584
11956SOL    HW137765   4.203  14.757  14.614
11956SOL    HW237766   4.245  14.616  14.650
11957SOL     OW37767   4.796   7.814   5.254
11957SOL    HW137768   4.763   7.883   5.197
11957SOL    HW237769   4.878   7.848   5.290
11958SOL     OW37770  14.715  12.655   7.631
11958SOL    HW137771  14.790  12.597   7.641
11958SOL    HW237772  14.753  12.740   7.611
11959SOL     OW37773   4.494   7.044  10.266
11959SOL    HW137774   4.570   7.053  10.208
11959SOL    HW237775   4.522   7.082  10.349
11960SOL     OW37776   4.180  11.693   4.351
11960SOL    HW137777   4.218  11.606   4.364
11960SOL    HW237778   4.166  11.726   4.440
11961SOL     OW37779  12.365   7.583   5.662
11961SOL    HW137780  12.429   7.537   5.607
11961SOL    HW237781  12.404   7.669   5.678
11962SOL     OW37782   9.049  13.975   2.182
11962SOL    HW137783   9.022  13.886   2.204
11962SOL    HW237784   9.143  13.967   2.165
11963SOL     OW37785   1.999   6.515   4.936
11963SOL    HW137786   1.999   6.436   4.990
11963SOL    HW237787   2.088   6.549   4.944
11964SOL     OW37788   0.908   1.039  10.789
11964SOL    HW137789   0.983   1.042  10.729
11964SOL    HW237790   0.833   1.064  10.735
11965SOL     OW37791   6.246   8.015   9.859
11965SOL    HW137792   6.160   8.054   9.845
11965SOL    HW237793   6.228   7.921   9.867
11966SOL     OW37794  13.406   0.836   3.499
11966SOL    HW137795  13.441   0.752   3.469
11966SOL    HW237796  13.433   0.899   3.433
11967SOL     OW37797   9.379   6.386   9.016
11967SOL    HW137798   9.410   6.301   9.045
11967SOL    HW237799   9.314   6.366   8.948
11968SOL     OW37800   7.457   0.088  14.042
11968SOL    HW137801   7.387   0.078  14.106
11968SOL    HW237802   7.413   0.119  13.963
11969SOL     OW37803   3.852   2.488   2.842
11969SOL    HW137804   3.832   2.560   2.781
11969SOL    HW237805   3.785   2.422   2.822
11970SOL     OW37806   4.544   8.145   4.464
11970SOL    HW137807   4.556   8.107   4.378
11970SOL    HW237808   4.491   8.223   4.448
11971SOL     OW37809   7.237  12.324  14.716
11971SOL    HW137810   7.220  12.360  14.803
11971SOL    HW237811   7.332  12.331  14.704
11972SOL     OW37812   5.051   5.010   1.301
11972SOL    HW137813   5.101   5.061   1.365
11972SOL    HW237814   4.967   5.055   1.294
11973SOL     OW37815   8.477   6.438   1.034
11973SOL    HW137816   8.562   6.412   1.068
11973SOL    HW237817   8.434   6.482   1.107
11974SOL     OW37818   5.294   0.553  13.739
11974SOL    HW137819   5.240   0.483  13.776
11974SOL    HW237820   5.383   0.519  13.744
11975SOL     OW37821   4.195  14.045   0.399
11975SOL    HW137822   4.107  14.061   0.431
11975SOL    HW237823   4.197  13.951   0.378
11976SOL     OW37824   8.751  10.215  14.038
11976SOL    HW137825   8.826  10.268  14.062
11976SOL    HW237826   8.767  10.188  13.948
11977SOL     OW37827   3.154   2.355   0.607
11977SOL    HW137828   3.126   2.323   0.521
11977SOL    HW237829   3.133   2.284   0.667
11978SOL     OW37830   2.771   8.434   3.169
11978SOL    HW137831   2.676   8.425   3.160
11978SOL    HW237832   2.800   8.352   3.209
11979SOL     OW37833   6.317   1.004  11.154
11979SOL    HW137834   6.224   0.985  11.137
11979SOL    HW237835   6.316   1.091  11.193
11980SOL     OW37836   0.578   0.213  10.507
11980SOL    HW137837   0.629   0.291  10.528
11980SOL    HW237838   0.591   0.200  10.414
11981SOL     OW37839  13.294  13.719  11.791
11981SOL    HW137840  13.283  13.812  11.771
11981SOL    HW237841  13.224  13.675  11.743
11982SOL     OW37842   8.982   1.413   8.300
11982SOL    HW137843   8.978   1.393   8.207
11982SOL    HW237844   9.075   1.415   8.321
11983SOL     OW37845   3.676   9.638   0.135
11983SOL    HW137846   3.730   9.610   0.209
11983SOL    HW237847   3.586   9.632   0.167
11984SOL     OW37848   7.930   6.691   6.737
11984SOL    HW137849   7.926   6.785   6.717
11984SOL    HW237850   8.020   6.667   6.717
11985SOL     OW37851   9.187   0.236   9.631
11985SOL    HW137852   9.103   0.277   9.652
11985SOL    HW237853   9.209   0.270   9.544
11986SOL     OW37854   4.137   4.157  12.368
11986SOL    HW137855   4.212   4.176  12.423
11986SOL    HW237856   4.064   4.147  12.429
11987SOL     OW37857  10.274   4.067   8.130
11987SOL    HW137858  10.189   4.057   8.174
11987SOL    HW237859  10.302   4.155   8.152
11988SOL     OW37860   0.923   6.615   1.534
11988SOL    HW137861   0.828   6.624   1.527
11988SOL    HW237862   0.956   6.704   1.524
11989SOL     OW37863   1.872   5.210  11.696
11989SOL    HW137864   1.833   5.162  11.623
11989SOL    HW237865   1.966   5.212  11.677
11990SOL     OW37866   4.202   4.135   3.642
11990SOL    HW137867   4.194   4.219   3.689
11990SOL    HW237868   4.151   4.074   3.695
11991SOL     OW37869   7.800   3.733  13.383
11991SOL    HW137870   7.737   3.782  13.435
11991SOL    HW237871   7.750   3.659  13.348
11992SOL     OW37872   3.962   3.980   1.967
11992SOL    HW137873   3.917   4.045   2.020
11992SOL    HW237874   3.921   3.986   1.881
11993SOL     OW37875   0.036   9.224  10.518
11993SOL    HW137876   0.059   9.167  10.444
11993SOL    HW237877   0.025   9.311  10.479
11994SOL     OW37878   2.199  10.018   7.712
11994SOL    HW137879   2.279  10.060   7.743
11994SOL    HW237880   2.184  10.055   7.625
11995SOL     OW37881   2.726   0.609  13.514
11995SOL    HW137882   2.779   0.615  13.594
11995SOL    HW237883   2.777   0.553  13.456
11996SOL     OW37884  13.751   5.546   1.695
11996SOL    HW137885  13.753   5.539   1.599
11996SOL    HW237886  13.676   5.602   1.713
11997SOL     OW37887   7.119   0.588   9.937
11997SOL    HW137888   7.110   0.569   9.844
11997SOL    HW237889   7.081   0.512   9.982
11998SOL     OW37890   6.349   0.024   2.738
11998SOL    HW137891   6.432  14.849   2.757
11998SOL    HW237892   6.369   0.080   2.662
11999SOL     OW37893   4.974  12.300   4.550
11999SOL    HW137894   4.911  12.319   4.621
11999SOL    HW237895   4.927  12.326   4.470
12000SOL     OW37896   2.496  11.912  13.370
12000SOL    HW137897   2.475  11.942  13.282
12000SOL    HW237898   2.437  11.962  13.427
12001SOL     OW37899  14.821   6.786   3.511
12001SOL    HW137900  14.757   6.753   3.574
12001SOL    HW237901  14.834   6.714   3.450
12002SOL     OW37902   5.113  12.334   0.293
12002SOL    HW137903   5.181  12.399   0.277
12002SOL    HW237904   5.065  12.367   0.369
12003SOL     OW37905  10.296   3.400   5.189
12003SOL    HW137906  10.315   3.369   5.278
12003SOL    HW237907  10.330   3.332   5.131
12004SOL     OW37908  10.793  10.712   0.384
12004SOL    HW137909  10.884  10.683   0.381
12004SOL    HW237910  10.752  10.673   0.307
12005SOL     OW37911  13.437  11.914   2.414
12005SOL    HW137912  13.518  11.945   2.455
12005SOL    HW237913  13.367  11.962   2.459
12006SOL     OW37914   4.035   5.070  13.688
12006SOL    HW137915   4.055   5.049  13.596
12006SOL    HW237916   4.107   5.126  13.716
12007SOL     OW37917   2.940   9.331   4.247
12007SOL    HW137918   2.870   9.371   4.299
12007SOL    HW237919   2.901   9.318   4.161
12008SOL     OW37920  13.520  11.701   4.060
12008SOL    HW137921  13.455  11.765   4.088
12008SOL    HW237922  13.604  11.739   4.088
12009SOL     OW37923   5.261   3.895   2.709
12009SOL    HW137924   5.212   3.971   2.741
12009SOL    HW237925   5.350   3.907   2.742
12010SOL     OW37926  10.411   4.592   0.883
12010SOL    HW137927  10.435   4.619   0.972
12010SOL    HW237928  10.335   4.647   0.862
12011SOL     OW37929   9.252  11.257   8.998
12011SOL    HW137930   9.161  11.287   8.992
12011SOL    HW237931   9.291  11.312   9.066
12012SOL     OW37932  14.690  11.666  11.469
12012SOL    HW137933  14.762  11.728  11.464
12012SOL    HW237934  14.727  11.589  11.511
12013SOL     OW37935  12.628   8.707  12.707
12013SOL    HW137936  12.570   8.699  12.631
12013SOL    HW237937  12.639   8.801  12.719
12014SOL     OW37938   6.633  10.915  11.380
12014SOL    HW137939   6.601  10.843  11.325
12014SOL    HW237940   6.673  10.871  11.455
12015SOL     OW37941   5.640   3.460  13.400
12015SOL    HW137942   5.572   3.470  13.467
12015SOL    HW237943   5.646   3.546  13.359
12016SOL     OW37944   5.135   4.700   3.386
12016SOL    HW137945   5.217   4.707   3.435
12016SOL    HW237946   5.072   4.748   3.440
12017SOL     OW37947   4.934  11.285   1.064
12017SOL    HW137948   4.900  11.375   1.059
12017SOL    HW237949   4.904  11.244   0.984
12018SOL     OW37950  12.643   6.264   1.541
12018SOL    HW137951  12.599   6.345   1.514
12018SOL    HW237952  12.640   6.208   1.463
12019SOL     OW37953  12.219  14.541   4.191
12019SOL    HW137954  12.279  14.486   4.142
12019SOL    HW237955  12.268  14.622   4.209
12020SOL     OW37956   9.029   6.029  14.534
12020SOL    HW137957   9.124   6.017  14.537
12020SOL    HW237958   9.016   6.106  14.478
12021SOL     OW37959   5.465   4.364   5.442
12021SOL    HW137960   5.540   4.305   5.434
12021SOL    HW237961   5.454   4.377   5.536
12022SOL     OW37962  12.370   1.935  13.472
12022SOL    HW137963  12.275   1.917  13.470
12022SOL    HW237964  12.409   1.852  13.498
12023SOL     OW37965   2.156   1.903   4.151
12023SOL    HW137966   2.082   1.936   4.101
12023SOL    HW237967   2.155   1.954   4.232
12024SOL     OW37968   8.538   7.288  12.806
12024SOL    HW137969   8.560   7.205  12.848
12024SOL    HW237970   8.579   7.354  12.860
12025SOL     OW37971  13.165  12.522  13.969
12025SOL    HW137972  13.084  12.573  13.976
12025SOL    HW237973  13.135  12.431  13.974
12026SOL     OW37974  14.070  14.623  10.707
12026SOL    HW137975  14.052  14.697  10.648
12026SOL    HW237976  14.082  14.549  10.648
12027SOL     OW37977  14.001   1.588   6.527
12027SOL    HW137978  14.066   1.657   6.516
12027SOL    HW237979  14.031   1.517   6.471
12028SOL     OW37980   4.437  13.824  14.230
12028SOL    HW137981   4.504  13.805  14.165
12028SOL    HW237982   4.354  13.807  14.185
12029SOL     OW37983   8.756   6.245   3.545
12029SOL    HW137984   8.806   6.254   3.626
12029SOL    HW237985   8.668   6.220   3.572
12030SOL     OW37986  12.072   7.522   0.639
12030SOL    HW137987  12.000   7.505   0.700
12030SOL    HW237988  12.135   7.573   0.689
12031SOL     OW37989   8.621   1.364   2.932
12031SOL    HW137990   8.621   1.411   3.016
12031SOL    HW237991   8.707   1.381   2.895
12032SOL     OW37992   1.981  13.728   8.113
12032SOL    HW137993   2.072  13.754   8.104
12032SOL    HW237994   1.983  13.632   8.104
12033SOL     OW37995   6.926   5.168   2.304
12033SOL    HW137996   6.945   5.260   2.326
12033SOL    HW237997   6.880   5.134   2.380
12034SOL     OW37998   9.488   3.876   3.930
12034SOL    HW137999   9.539   3.811   3.980
12034SOL    HW238000   9.550   3.911   3.866
12035SOL     OW38001   7.136   3.069  10.660
12035SOL    HW138002   7.121   2.987  10.708
12035SOL    HW238003   7.052   3.088  10.619
12036SOL     OW38004   2.527  11.310   1.865
12036SOL    HW138005   2.594  11.338   1.803
12036SOL    HW238006   2.546  11.358   1.945
12037SOL     OW38007   1.428   7.373   0.218
12037SOL    HW138008   1.437   7.282   0.247
12037SOL    HW238009   1.499   7.420   0.262
12038SOL     OW38010   7.494   0.635   8.343
12038SOL    HW138011   7.501   0.726   8.317
12038SOL    HW238012   7.469   0.588   8.264
12039SOL     OW38013   4.497   7.668   6.422
12039SOL    HW138014   4.571   7.630   6.376
12039SOL    HW238015   4.484   7.610   6.498
12040SOL     OW38016   6.820  13.968   7.948
12040SOL    HW138017   6.883  14.038   7.962
12040SOL    HW238018   6.748  13.988   8.009
12041SOL     OW38019   5.381   5.927   4.888
12041SOL    HW138020   5.456   5.870   4.907
12041SOL    HW238021   5.304   5.872   4.905
12042SOL     OW38022   2.937   8.939   7.267
12042SOL    HW138023   2.888   9.020   7.254
12042SOL    HW238024   2.896   8.876   7.207
12043SOL     OW38025   5.504   5.845   0.781
12043SOL    HW138026   5.497   5.751   0.765
12043SOL    HW238027   5.447   5.884   0.715
12044SOL     OW38028  12.293   6.580  10.959
12044SOL    HW138029  12.332   6.554  11.042
12044SOL    HW238030  12.225   6.643  10.983
12045SOL     OW38031   2.713   8.074  10.495
12045SOL    HW138032   2.694   8.047  10.585
12045SOL    HW238033   2.782   8.014  10.466
12046SOL     OW38034   3.827   7.662  14.117
12046SOL    HW138035   3.769   7.687  14.045
12046SOL    HW238036   3.914   7.690  14.089
12047SOL     OW38037   7.582   9.948   7.526
12047SOL    HW138038   7.566   9.895   7.447
12047SOL    HW238039   7.579  10.038   7.495
12048SOL     OW38040  14.834   6.029   3.466
12048SOL    HW138041  14.856   5.972   3.393
12048SOL    HW238042  14.815   5.970   3.538
12049SOL     OW38043   7.196   5.524  12.466
12049SOL    HW138044   7.268   5.475  12.428
12049SOL    HW238045   7.128   5.459  12.482
12050SOL     OW38046  10.523   8.089   6.973
12050SOL    HW138047  10.502   8.031   6.900
12050SOL    HW238048  10.439   8.129   6.997
12051SOL     OW38049  10.910   6.379   2.448
12051SOL    HW138050  10.941   6.383   2.357
12051SOL    HW238051  10.880   6.468   2.467
12052SOL     OW38052   3.789  12.880  13.315
12052SOL    HW138053   3.748  12.941  13.253
12052SOL    HW238054   3.718  12.820  13.340
12053SOL     OW38055   6.244  10.791   5.801
12053SOL    HW138056   6.301  10.860   5.765
12053SOL    HW238057   6.156  10.824   5.787
12054SOL     OW38058   4.875  11.151  14.261
12054SOL    HW138059   4.961  11.191  14.250
12054SOL    HW238060   4.868  11.090  14.188
12055SOL     OW38061   5.950   0.821   4.182
12055SOL    HW138062   5.956   0.910   4.148
12055SOL    HW238063   5.857   0.799   4.177
12056SOL     OW38064   6.726   9.401  12.755
12056SOL    HW138065   6.635   9.373  12.744
12056SOL    HW238066   6.752   9.365  12.840
12057SOL     OW38067  14.269  12.391  13.053
12057SOL    HW138068  14.191  12.387  12.998
12057SOL    HW238069  14.235  12.388  13.143
12058SOL     OW38070   3.771   7.843   4.930
12058SOL    HW138071   3.771   7.886   4.845
12058SOL    HW238072   3.760   7.914   4.993
12059SOL     OW38073   8.365  10.139  12.620
12059SOL    HW138074   8.323  10.174  12.542
12059SOL    HW238075   8.374  10.214  12.678
12060SOL     OW38076  13.315   1.212   0.837
12060SOL    HW138077  13.376   1.138   0.835
12060SOL    HW238078  13.362   1.280   0.885
12061SOL     OW38079  10.333   9.310   4.386
12061SOL    HW138080  10.370   9.222   4.386
12061SOL    HW238081  10.398   9.363   4.431
12062SOL     OW38082   6.248  11.877   1.540
12062SOL    HW138083   6.163  11.859   1.580
12062SOL    HW238084   6.228  11.933   1.465
12063SOL     OW38085   3.149   5.670  12.446
12063SOL    HW138086   3.174   5.578  12.454
12063SOL    HW238087   3.128   5.681  12.353
12064SOL     OW38088   9.374   3.474   4.679
12064SOL    HW138089   9.452   3.525   4.705
12064SOL    HW238090   9.363   3.410   4.749
12065SOL     OW38091   1.101   7.362   1.108
12065SOL    HW138092   1.066   7.422   1.174
12065SOL    HW238093   1.174   7.317   1.152
12066SOL     OW38094  10.499  14.251   7.093
12066SOL    HW138095  10.591  14.259   7.118
12066SOL    HW238096  10.453  14.315   7.146
12067SOL     OW38097   7.308   3.974   9.816
12067SOL    HW138098   7.316   4.066   9.841
12067SOL    HW238099   7.342   3.971   9.726
12068SOL     OW38100   3.455   7.849   4.460
12068SOL    HW138101   3.395   7.796   4.512
12068SOL    HW238102   3.452   7.810   4.372
12069SOL     OW38103   7.560  13.832   7.301
12069SOL    HW138104   7.495  13.900   7.316
12069SOL    HW238105   7.528  13.783   7.226
12070SOL     OW38106  12.328   2.865   0.327
12070SOL    HW138107  12.355   2.921   0.400
12070SOL    HW238108  12.404   2.810   0.310
12071SOL     OW38109   5.138   4.077   8.905
12071SOL    HW138110   5.157   4.049   8.994
12071SOL    HW238111   5.222   4.103   8.869
12072SOL     OW38112   7.373  11.473   2.038
12072SOL    HW138113   7.436  11.402   2.029
12072SOL    HW238114   7.307  11.438   2.099
12073SOL     OW38115  11.997  13.971  13.207
12073SOL    HW138116  12.046  14.052  13.191
12073SOL    HW238117  12.065  13.904  13.221
12074SOL     OW38118   8.579   3.968   0.922
12074SOL    HW138119   8.667   4.006   0.923
12074SOL    HW238120   8.586   3.891   0.979
12075SOL     OW38121   9.909   0.443  10.051
12075SOL    HW138122   9.915   0.507   9.980
12075SOL    HW238123   9.816   0.418  10.052
12076SOL     OW38124   0.369   7.277   8.988
12076SOL    HW138125   0.391   7.342   9.055
12076SOL    HW238126   0.386   7.322   8.905
12077SOL     OW38127   2.953   8.469   9.271
12077SOL    HW138128   3.001   8.419   9.205
12077SOL    HW238129   3.021   8.503   9.329
12078SOL     OW38130   3.862  13.616   1.956
12078SOL    HW138131   3.809  13.544   1.921
12078SOL    HW238132   3.853  13.686   1.891
12079SOL     OW38133   7.109  11.407   5.722
12079SOL    HW138134   7.085  11.335   5.780
12079SOL    HW238135   7.158  11.468   5.777
12080SOL     OW38136   3.252   5.007   7.097
12080SOL    HW138137   3.343   5.037   7.098
12080SOL    HW238138   3.244   4.959   7.015
12081SOL     OW38139   8.017  13.431   3.247
12081SOL    HW138140   8.068  13.417   3.328
12081SOL    HW238141   7.926  13.418   3.274
12082SOL     OW38142   4.897   9.874   0.938
12082SOL    HW138143   4.807   9.843   0.940
12082SOL    HW238144   4.921   9.874   0.845
12083SOL     OW38145   1.822   2.964   8.482
12083SOL    HW138146   1.757   2.991   8.418
12083SOL    HW238147   1.906   2.984   8.441
12084SOL     OW38148  11.721   0.385   5.401
12084SOL    HW138149  11.672   0.316   5.445
12084SOL    HW238150  11.810   0.351   5.395
12085SOL     OW38151   8.768  13.676   8.787
12085SOL    HW138152   8.742  13.604   8.729
12085SOL    HW238153   8.854  13.650   8.820
12086SOL     OW38154   9.605   5.600   1.641
12086SOL    HW138155   9.520   5.570   1.671
12086SOL    HW238156   9.668   5.553   1.697
12087SOL     OW38157   0.266   0.588  11.244
12087SOL    HW138158   0.267   0.510  11.299
12087SOL    HW238159   0.174   0.613  11.239
12088SOL     OW38160  14.229   0.904   2.134
12088SOL    HW138161  14.162   0.933   2.196
12088SOL    HW238162  14.179   0.857   2.067
12089SOL     OW38163   6.691   8.862   3.842
12089SOL    HW138164   6.785   8.869   3.853
12089SOL    HW238165   6.667   8.783   3.891
12090SOL     OW38166  12.012   0.315  14.434
12090SOL    HW138167  11.945   0.370  14.474
12090SOL    HW238168  12.031   0.248  14.500
12091SOL     OW38169   9.290  11.667   0.760
12091SOL    HW138170   9.206  11.710   0.748
12091SOL    HW238171   9.347  11.708   0.695
12092SOL     OW38172   4.819  13.279  11.416
12092SOL    HW138173   4.854  13.353  11.465
12092SOL    HW238174   4.892  13.217  11.411
12093SOL     OW38175  13.101   4.207   6.181
12093SOL    HW138176  13.148   4.222   6.263
12093SOL    HW238177  13.166   4.225   6.113
12094SOL     OW38178   2.012  13.180   2.806
12094SOL    HW138179   2.023  13.151   2.896
12094SOL    HW238180   2.004  13.099   2.755
12095SOL     OW38181   8.346   6.397   5.898
12095SOL    HW138182   8.390   6.334   5.841
12095SOL    HW238183   8.294   6.343   5.957
12096SOL     OW38184   7.938  12.777  14.169
12096SOL    HW138185   7.910  12.805  14.082
12096SOL    HW238186   7.857  12.778  14.222
12097SOL     OW38187   2.811   5.406  10.081
12097SOL    HW138188   2.856   5.345  10.139
12097SOL    HW238189   2.795   5.483  10.135
12098SOL     OW38190   0.593   5.888   0.308
12098SOL    HW138191   0.674   5.939   0.313
12098SOL    HW238192   0.615   5.805   0.350
12099SOL     OW38193   3.404   4.670   3.913
12099SOL    HW138194   3.476   4.617   3.881
12099SOL    HW238195   3.326   4.634   3.871
12100SOL     OW38196   7.063   0.673   3.930
12100SOL    HW138197   7.139   0.697   3.877
12100SOL    HW238198   6.988   0.696   3.876
12101SOL     OW38199   3.752   5.867   5.358
12101SOL    HW138200   3.842   5.893   5.340
12101SOL    HW238201   3.722   5.825   5.277
12102SOL     OW38202   0.572  13.435   9.112
12102SOL    HW138203   0.554  13.347   9.147
12102SOL    HW238204   0.606  13.483   9.187
12103SOL     OW38205  10.434   3.240  12.143
12103SOL    HW138206  10.350   3.285  12.143
12103SOL    HW238207  10.480   3.273  12.065
12104SOL     OW38208   0.263   1.969   3.935
12104SOL    HW138209   0.287   1.907   4.004
12104SOL    HW238210   0.335   2.032   3.933
12105SOL     OW38211   9.361   2.484  14.447
12105SOL    HW138212   9.321   2.498  14.533
12105SOL    HW238213   9.406   2.400  14.455
12106SOL     OW38214   2.222  13.097  12.830
12106SOL    HW138215   2.197  13.021  12.777
12106SOL    HW238216   2.306  13.072  12.869
12107SOL     OW38217   2.004   5.570   7.181
12107SOL    HW138218   1.916   5.534   7.190
12107SOL    HW238219   2.030   5.594   7.270
12108SOL     OW38220   4.121  10.649   0.908
12108SOL    HW138221   4.075  10.726   0.941
12108SOL    HW238222   4.065  10.615   0.838
12109SOL     OW38223   6.681   9.410   1.004
12109SOL    HW138224   6.646   9.406   0.916
12109SOL    HW238225   6.625   9.473   1.050
12110SOL     OW38226   9.731   9.443  11.456
12110SOL    HW138227   9.745   9.416  11.547
12110SOL    HW238228   9.681   9.371  11.417
12111SOL     OW38229   0.117   5.124   1.847
12111SOL    HW138230   0.051   5.132   1.916
12111SOL    HW238231   0.138   5.214   1.823
12112SOL     OW38232  12.704   9.779   4.923
12112SOL    HW138233  12.658   9.729   4.856
12112SOL    HW238234  12.794   9.746   4.922
12113SOL     OW38235  11.083  14.610  10.840
12113SOL    HW138236  11.118  14.618  10.751
12113SOL    HW238237  11.092  14.698  10.877
12114SOL     OW38238  13.966   0.760   6.216
12114SOL    HW138239  14.051   0.776   6.257
12114SOL    HW238240  13.956   0.833   6.154
12115SOL     OW38241  14.351   9.254   6.572
12115SOL    HW138242  14.445   9.245   6.588
12115SOL    HW238243  14.336   9.214   6.487
12116SOL     OW38244  11.621  10.475   9.411
12116SOL    HW138245  11.671  10.472   9.492
12116SOL    HW238246  11.628  10.566   9.382
12117SOL     OW38247  12.924   2.527   1.203
12117SOL    HW138248  12.848   2.567   1.245
12117SOL    HW238249  12.928   2.568   1.117
12118SOL     OW38250   1.453   8.824   7.585
12118SOL    HW138251   1.527   8.812   7.645
12118SOL    HW238252   1.388   8.872   7.637
12119SOL     OW38253   0.209  13.665  12.643
12119SOL    HW138254   0.125  13.690  12.605
12119SOL    HW238255   0.271  13.669  12.570
12120SOL     OW38256   6.455   9.610  12.743
12120SOL    HW138257   6.513   9.680  12.774
12120SOL    HW238258   6.427   9.566  12.823
12121SOL     OW38259  11.083   7.235  12.665
12121SOL    HW138260  11.033   7.223  12.584
12121SOL    HW238261  11.136   7.313  12.649
12122SOL     OW38262   8.644   0.070   7.068
12122SOL    HW138263   8.669   0.063   7.161
12122SOL    HW238264   8.549   0.067   7.069
12123SOL     OW38265   0.334   5.561   0.799
12123SOL    HW138266   0.268   5.624   0.771
12123SOL    HW238267   0.416   5.610   0.802
12124SOL     OW38268   4.438   6.877   2.294
12124SOL    HW138269   4.384   6.890   2.372
12124SOL    HW238270   4.482   6.961   2.281
12125SOL     OW38271   3.055   2.073   4.398
12125SOL    HW138272   3.124   2.112   4.452
12125SOL    HW238273   3.100   2.008   4.344
12126SOL     OW38274  12.312   4.438   2.663
12126SOL    HW138275  12.357   4.493   2.599
12126SOL    HW238276  12.225   4.424   2.626
12127SOL     OW38277   4.147  13.430  14.526
12127SOL    HW138278   4.077  13.424  14.590
12127SOL    HW238279   4.222  13.386  14.567
12128SOL     OW38280   5.351   5.570   7.962
12128SOL    HW138281   5.380   5.617   8.040
12128SOL    HW238282   5.318   5.639   7.904
12129SOL     OW38283   2.326  11.131   1.084
12129SOL    HW138284   2.285  11.149   1.168
12129SOL    HW238285   2.288  11.195   1.024
12130SOL     OW38286   7.142   6.829   8.374
12130SOL    HW138287   7.176   6.778   8.300
12130SOL    HW238288   7.047   6.824   8.365
12131SOL     OW38289  12.467   9.962  11.189
12131SOL    HW138290  12.470   9.869  11.164
12131SOL    HW238291  12.555   9.994  11.174
12132SOL     OW38292   9.037  13.057   4.975
12132SOL    HW138293   9.109  12.997   4.955
12132SOL    HW238294   9.052  13.083   5.066
12133SOL     OW38295   0.048  13.075   7.036
12133SOL    HW138296   0.072  13.162   7.069
12133SOL    HW238297  14.860  13.092   6.962
12134SOL     OW38298   3.037   8.405   9.567
12134SOL    HW138299   3.121   8.377   9.604
12134SOL    HW238300   2.985   8.430   9.642
12135SOL     OW38301   2.010   0.497  12.217
12135SOL    HW138302   2.023   0.587  12.245
12135SOL    HW238303   2.069   0.487  12.142
12136SOL     OW38304   5.374  11.291   5.007
12136SOL    HW138305   5.353  11.359   5.071
12136SOL    HW238306   5.371  11.209   5.057
12137SOL     OW38307  13.342   7.982   6.532
12137SOL    HW138308  13.430   7.982   6.494
12137SOL    HW238309  13.337   8.065   6.580
12138SOL     OW38310   6.095   1.443   8.376
12138SOL    HW138311   6.081   1.521   8.324
12138SOL    HW238312   6.130   1.379   8.314
12139SOL     OW38313   7.185   8.128  10.118
12139SOL    HW138314   7.251   8.118  10.050
12139SOL    HW238315   7.207   8.059  10.181
12140SOL     OW38316  10.725  10.810   5.940
12140SOL    HW138317  10.632  10.789   5.943
12140SOL    HW238318  10.767  10.737   5.986
12141SOL     OW38319   7.276  12.438   8.715
12141SOL    HW138320   7.325  12.517   8.692
12141SOL    HW238321   7.210  12.469   8.778
12142SOL     OW38322   0.215   8.406   2.798
12142SOL    HW138323   0.142   8.344   2.797
12142SOL    HW238324   0.184   8.480   2.746
12143SOL     OW38325  13.185   7.198  12.627
12143SOL    HW138326  13.183   7.265  12.695
12143SOL    HW238327  13.159   7.244  12.547
12144SOL     OW38328  11.210   8.050   8.919
12144SOL    HW138329  11.200   8.122   8.981
12144SOL    HW238330  11.128   8.052   8.868
12145SOL     OW38331   3.843  14.230   7.593
12145SOL    HW138332   3.761  14.192   7.562
12145SOL    HW238333   3.839  14.222   7.688
12146SOL     OW38334  11.810   2.121   9.674
12146SOL    HW138335  11.774   2.208   9.657
12146SOL    HW238336  11.905   2.135   9.677
12147SOL     OW38337  11.585   5.807   0.874
12147SOL    HW138338  11.538   5.890   0.865
12147SOL    HW238339  11.638   5.817   0.952
12148SOL     OW38340  14.252   8.501   4.591
12148SOL    HW138341  14.175   8.552   4.566
12148SOL    HW238342  14.235   8.414   4.556
12149SOL     OW38343   1.142  14.429   6.781
12149SOL    HW138344   1.188  14.500   6.826
12149SOL    HW238345   1.059  14.420   6.828
12150SOL     OW38346  14.592   5.376  11.358
12150SOL    HW138347  14.536   5.414  11.425
12150SOL    HW238348  14.673   5.425  11.363
12151SOL     OW38349   3.011   7.046   2.115
12151SOL    HW138350   2.978   7.009   2.197
12151SOL    HW238351   3.000   7.140   2.125
12152SOL     OW38352   6.551   1.805   5.130
12152SOL    HW138353   6.553   1.822   5.036
12152SOL    HW238354   6.470   1.847   5.160
12153SOL     OW38355   6.827   9.615  13.897
12153SOL    HW138356   6.887   9.571  13.958
12153SOL    HW238357   6.848   9.708  13.905
12154SOL     OW38358   5.502   9.265  14.115
12154SOL    HW138359   5.543   9.292  14.033
12154SOL    HW238360   5.576   9.239  14.171
12155SOL     OW38361   3.232   0.479   0.269
12155SOL    HW138362   3.188   0.527   0.198
12155SOL    HW238363   3.248   0.545   0.336
12156SOL     OW38364   1.227   2.604   7.506
12156SOL    HW138365   1.232   2.521   7.459
12156SOL    HW238366   1.218   2.579   7.598
12157SOL     OW38367  14.712   3.041   5.215
12157SOL    HW138368  14.772   3.115   5.219
12157SOL    HW238369  14.684   3.037   5.124
12158SOL     OW38370   0.290  12.435   6.842
12158SOL    HW138371   0.252  12.425   6.929
12158SOL    HW238372   0.228  12.393   6.783
12159SOL     OW38373  14.466   9.260  14.512
12159SOL    HW138374  14.510   9.178  14.492
12159SOL    HW238375  14.490   9.278  14.603
12160SOL     OW38376   2.102   5.310   0.591
12160SOL    HW138377   2.040   5.236   0.584
12160SOL    HW238378   2.188   5.270   0.581
12161SOL     OW38379   5.444  10.197  12.974
12161SOL    HW138380   5.484  10.232  12.894
12161SOL    HW238381   5.470  10.258  13.042
12162SOL     OW38382  13.349   5.432   9.004
12162SOL    HW138383  13.419   5.430   9.069
12162SOL    HW238384  13.271   5.404   9.052
12163SOL     OW38385   3.091  11.727  13.881
12163SOL    HW138386   3.150  11.711  13.808
12163SOL    HW238387   3.006  11.745  13.841
12164SOL     OW38388   7.721  14.829   9.573
12164SOL    HW138389   7.642   0.012   9.568
12164SOL    HW238390   7.793   0.021   9.561
12165SOL     OW38391  11.101   8.998  10.326
12165SOL    HW138392  11.052   8.917  10.308
12165SOL    HW238393  11.178   8.968  10.375
12166SOL     OW38394  11.973  12.260   1.898
12166SOL    HW138395  11.943  12.281   1.987
12166SOL    HW238396  12.018  12.176   1.907
12167SOL     OW38397   2.788  13.357   5.686
12167SOL    HW138398   2.829  13.342   5.771
12167SOL    HW238399   2.718  13.420   5.704
12168SOL     OW38400   3.189  11.081   4.271
12168SOL    HW138401   3.215  10.992   4.246
12168SOL    HW238402   3.265  11.135   4.248
12169SOL     OW38403   2.271  14.559   2.877
12169SOL    HW138404   2.189  14.514   2.899
12169SOL    HW238405   2.246  14.650   2.864
12170SOL     OW38406  12.154  10.503   7.983
12170SOL    HW138407  12.199  10.418   7.977
12170SOL    HW238408  12.224  10.565   8.004
12171SOL     OW38409   1.714   7.956   4.353
12171SOL    HW138410   1.706   8.031   4.294
12171SOL    HW238411   1.772   7.895   4.307
12172SOL     OW38412   5.094  14.694  10.578
12172SOL    HW138413   5.052  14.668  10.496
12172SOL    HW238414   5.188  14.693  10.558
12173SOL     OW38415   5.322  13.311  13.492
12173SOL    HW138416   5.379  13.261  13.434
12173SOL    HW238417   5.234  13.297  13.457
12174SOL     OW38418   2.445   7.993   1.073
12174SOL    HW138419   2.378   8.011   1.008
12174SOL    HW238420   2.401   7.943   1.141
12175SOL     OW38421   0.578   5.959  11.798
12175SOL    HW138422   0.566   6.036  11.853
12175SOL    HW238423   0.503   5.903  11.819
12176SOL     OW38424   9.510   1.559   3.572
12176SOL    HW138425   9.579   1.594   3.628
12176SOL    HW238426   9.463   1.636   3.540
12177SOL     OW38427  10.695  13.781  13.727
12177SOL    HW138428  10.669  13.690  13.739
12177SOL    HW238429  10.671  13.801  13.637
12178SOL     OW38430   6.331   2.063   4.467
12178SOL    HW138431   6.327   2.046   4.561
12178SOL    HW238432   6.338   1.976   4.427
12179SOL     OW38433  13.629  10.210  10.081
12179SOL    HW138434  13.647  10.161  10.162
12179SOL    HW238435  13.617  10.301  10.111
12180SOL     OW38436  10.086   8.615   2.171
12180SOL    HW138437  10.108   8.523   2.162
12180SOL    HW238438  10.157   8.662   2.127
12181SOL     OW38439   4.894   4.137   2.525
12181SOL    HW138440   4.972   4.189   2.504
12181SOL    HW238441   4.900   4.061   2.468
12182SOL     OW38442   6.044   3.690  11.115
12182SOL    HW138443   6.052   3.645  11.031
12182SOL    HW238444   6.040   3.783  11.092
12183SOL     OW38445   4.792  10.060  14.622
12183SOL    HW138446   4.723  10.070  14.688
12183SOL    HW238447   4.871  10.044  14.673
12184SOL     OW38448   0.136  11.001  10.946
12184SOL    HW138449   0.220  10.962  10.970
12184SOL    HW238450   0.071  10.950  10.995
12185SOL     OW38451   2.132   5.614   8.445
12185SOL    HW138452   2.079   5.534   8.446
12185SOL    HW238453   2.222   5.583   8.449
12186SOL     OW38454   1.026   6.609   9.964
12186SOL    HW138455   1.055   6.644  10.048
12186SOL    HW238456   0.971   6.678   9.927
12187SOL     OW38457   3.218   9.858   0.951
12187SOL    HW138458   3.161   9.874   1.026
12187SOL    HW238459   3.304   9.892   0.978
12188SOL     OW38460   5.494  13.549  14.082
12188SOL    HW138461   5.409  13.554  14.037
12188SOL    HW238462   5.529  13.464  14.059
12189SOL     OW38463   7.283   3.556   6.332
12189SOL    HW138464   7.259   3.501   6.407
12189SOL    HW238465   7.199   3.584   6.296
12190SOL     OW38466   2.265  10.146   7.139
12190SOL    HW138467   2.247  10.240   7.130
12190SOL    HW238468   2.360  10.140   7.144
12191SOL     OW38469   0.916   9.498  14.089
12191SOL    HW138470   0.947   9.511  13.999
12191SOL    HW238471   0.821   9.504  14.083
12192SOL     OW38472   5.786   6.791   2.024
12192SOL    HW138473   5.780   6.816   2.117
12192SOL    HW238474   5.739   6.860   1.978
12193SOL     OW38475   2.833  10.604  14.082
12193SOL    HW138476   2.759  10.602  14.142
12193SOL    HW238477   2.891  10.671  14.117
12194SOL     OW38478   6.470   3.143  12.661
12194SOL    HW138479   6.475   3.149  12.757
12194SOL    HW238480   6.426   3.059  12.645
12195SOL     OW38481   4.041   1.804  14.056
12195SOL    HW138482   4.033   1.816  13.962
12195SOL    HW238483   4.107   1.736  14.067
12196SOL     OW38484   6.588  13.911   6.598
12196SOL    HW138485   6.636  13.995   6.598
12196SOL    HW238486   6.657  13.845   6.592
12197SOL     OW38487   4.715   7.570  14.097
12197SOL    HW138488   4.773   7.555  14.022
12197SOL    HW238489   4.712   7.486  14.143
12198SOL     OW38490  14.163   5.828  12.248
12198SOL    HW138491  14.084   5.787  12.283
12198SOL    HW238492  14.134   5.912  12.213
12199SOL     OW38493   7.480   9.936   2.676
12199SOL    HW138494   7.497   9.873   2.747
12199SOL    HW238495   7.390   9.966   2.692
12200SOL     OW38496   7.501   0.714   5.520
12200SOL    HW138497   7.429   0.691   5.461
12200SOL    HW238498   7.457   0.755   5.595
12201SOL     OW38499  13.949  10.594   8.679
12201SOL    HW138500  13.875  10.655   8.675
12201SOL    HW238501  13.922  10.529   8.744
12202SOL     OW38502   7.697   5.508   5.280
12202SOL    HW138503   7.693   5.471   5.369
12202SOL    HW238504   7.742   5.592   5.291
12203SOL     OW38505   3.205   2.665   3.475
12203SOL    HW138506   3.261   2.742   3.459
12203SOL    HW238507   3.144   2.695   3.543
12204SOL     OW38508   1.793   8.890  11.393
12204SOL    HW138509   1.773   8.970  11.344
12204SOL    HW238510   1.873   8.857  11.352
12205SOL     OW38511   4.536  11.940   0.548
12205SOL    HW138512   4.456  11.988   0.571
12205SOL    HW238513   4.507  11.851   0.531
12206SOL     OW38514   7.164   8.298  14.239
12206SOL    HW138515   7.210   8.378  14.215
12206SOL    HW238516   7.164   8.297  14.334
12207SOL     OW38517   3.724   1.811  10.271
12207SOL    HW138518   3.815   1.783  10.264
12207SOL    HW238519   3.729   1.905  10.287
12208SOL     OW38520   0.492   7.876   3.172
12208SOL    HW138521   0.502   7.836   3.259
12208SOL    HW238522   0.480   7.803   3.113
12209SOL     OW38523  13.777   9.213   6.823
12209SOL    HW138524  13.790   9.302   6.789
12209SOL    HW238525  13.686   9.211   6.850
12210SOL     OW38526   2.892   2.183   9.291
12210SOL    HW138527   2.971   2.187   9.236
12210SOL    HW238528   2.829   2.135   9.238
12211SOL     OW38529   1.381   3.904  10.776
12211SOL    HW138530   1.286   3.907  10.785
12211SOL    HW238531   1.401   3.973  10.712
12212SOL     OW38532   8.848  13.028   0.510
12212SOL    HW138533   8.888  13.036   0.596
12212SOL    HW238534   8.860  13.115   0.470
12213SOL     OW38535  12.726   2.570   9.421
12213SOL    HW138536  12.809   2.522   9.430
12213SOL    HW238537  12.745   2.658   9.455
12214SOL     OW38538   3.335  10.670  12.765
12214SOL    HW138539   3.267  10.716  12.717
12214SOL    HW238540   3.342  10.585  12.721
12215SOL     OW38541  10.709   3.361  13.959
12215SOL    HW138542  10.769   3.376  13.886
12215SOL    HW238543  10.696   3.449  13.996
12216SOL     OW38544   6.814  13.392  10.279
12216SOL    HW138545   6.724  13.414  10.304
12216SOL    HW238546   6.828  13.305  10.315
12217SOL     OW38547   9.349  14.395  14.510
12217SOL    HW138548   9.272  14.389  14.453
12217SOL    HW238549   9.313  14.414  14.597
12218SOL     OW38550   7.129  12.779   9.358
12218SOL    HW138551   7.216  12.770   9.318
12218SOL    HW238552   7.144  12.762   9.451
12219SOL     OW38553  10.938   1.734   6.836
12219SOL    HW138554  10.869   1.781   6.789
12219SOL    HW238555  11.007   1.800   6.847
12220SOL     OW38556   5.161  10.733   5.426
12220SOL    HW138557   5.205  10.678   5.491
12220SOL    HW238558   5.154  10.819   5.467
12221SOL     OW38559   9.295  10.576   3.121
12221SOL    HW138560   9.261  10.620   3.043
12221SOL    HW238561   9.379  10.539   3.093
12222SOL     OW38562   2.103   6.581   1.419
12222SOL    HW138563   2.185   6.594   1.467
12222SOL    HW238564   2.126   6.518   1.351
12223SOL     OW38565  11.536   3.601   4.527
12223SOL    HW138566  11.570   3.600   4.437
12223SOL    HW238567  11.445   3.573   4.518
12224SOL     OW38568   2.995   2.392   5.014
12224SOL    HW138569   3.073   2.345   5.044
12224SOL    HW238570   3.024   2.483   5.007
12225SOL     OW38571   7.901  13.414  13.840
12225SOL    HW138572   7.831  13.366  13.885
12225SOL    HW238573   7.868  13.427  13.751
12226SOL     OW38574  14.648  13.278  11.993
12226SOL    HW138575  14.678  13.242  11.909
12226SOL    HW238576  14.575  13.335  11.971
12227SOL     OW38577  11.350   6.555   7.172
12227SOL    HW138578  11.405   6.572   7.248
12227SOL    HW238579  11.318   6.642   7.147
12228SOL     OW38580   8.139   2.053  10.818
12228SOL    HW138581   8.202   2.123  10.798
12228SOL    HW238582   8.091   2.086  10.895
12229SOL     OW38583  13.526   6.772   5.935
12229SOL    HW138584  13.491   6.693   5.975
12229SOL    HW238585  13.472   6.785   5.856
12230SOL     OW38586   4.473   9.578   6.103
12230SOL    HW138587   4.567   9.584   6.086
12230SOL    HW238588   4.437   9.537   6.025
12231SOL     OW38589   8.530  10.852   9.663
12231SOL    HW138590   8.611  10.852   9.612
12231SOL    HW238591   8.487  10.769   9.642
12232SOL     OW38592   2.594   5.845   9.064
12232SOL    HW138593   2.575   5.819   8.973
12232SOL    HW238594   2.688   5.831   9.073
12233SOL     OW38595   2.749   6.985   4.361
12233SOL    HW138596   2.839   6.959   4.338
12233SOL    HW238597   2.699   6.904   4.353
12234SOL     OW38598   2.355   2.277  10.757
12234SOL    HW138599   2.361   2.253  10.665
12234SOL    HW238600   2.263   2.269  10.779
12235SOL     OW38601  11.399  12.313  12.295
12235SOL    HW138602  11.477  12.325  12.241
12235SOL    HW238603  11.368  12.225  12.273
12236SOL     OW38604   7.586   4.241   2.256
12236SOL    HW138605   7.663   4.297   2.250
12236SOL    HW238606   7.514   4.298   2.229
12237SOL     OW38607   6.816   0.658   9.241
12237SOL    HW138608   6.752   0.727   9.227
12237SOL    HW238609   6.900   0.697   9.218
12238SOL     OW38610  10.952   9.339   1.283
12238SOL    HW138611  11.040   9.310   1.308
12238SOL    HW238612  10.905   9.258   1.262
12239SOL     OW38613   3.903   0.391   7.377
12239SOL    HW138614   3.957   0.386   7.298
12239SOL    HW238615   3.944   0.459   7.430
12240SOL     OW38616   9.493   8.222   8.209
12240SOL    HW138617   9.477   8.145   8.264
12240SOL    HW238618   9.470   8.193   8.120
12241SOL     OW38619   0.243   3.740  12.926
12241SOL    HW138620   0.271   3.693  13.004
12241SOL    HW238621   0.156   3.705  12.907
12242SOL     OW38622   4.527  10.536  14.262
12242SOL    HW138623   4.473  10.610  14.292
12242SOL    HW238624   4.500  10.463  14.316
12243SOL     OW38625   0.899   7.583   4.602
12243SOL    HW138626   0.906   7.488   4.616
12243SOL    HW238627   0.984   7.607   4.564
12244SOL     OW38628   4.850   5.382   9.574
12244SOL    HW138629   4.936   5.384   9.533
12244SOL    HW238630   4.864   5.420   9.661
12245SOL     OW38631   2.999  13.962   2.072
12245SOL    HW138632   2.948  14.043   2.067
12245SOL    HW238633   2.979  13.927   2.159
12246SOL     OW38634   8.555   3.283   7.641
12246SOL    HW138635   8.561   3.271   7.736
12246SOL    HW238636   8.644   3.305   7.614
12247SOL     OW38637  12.400  10.342  13.448
12247SOL    HW138638  12.466  10.368  13.383
12247SOL    HW238639  12.446  10.281  13.506
12248SOL     OW38640  11.836   8.516   8.002
12248SOL    HW138641  11.781   8.526   8.080
12248SOL    HW238642  11.814   8.429   7.969
12249SOL     OW38643   6.937   2.705   9.019
12249SOL    HW138644   6.988   2.727   9.097
12249SOL    HW238645   6.994   2.649   8.967
12250SOL     OW38646   0.235  10.084   6.529
12250SOL    HW138647   0.328  10.100   6.515
12250SOL    HW238648   0.191  10.126   6.455
12251SOL     OW38649   5.123   8.011   2.463
12251SOL    HW138650   5.036   8.032   2.427
12251SOL    HW238651   5.120   8.042   2.553
12252SOL     OW38652  13.499   3.151   7.416
12252SOL    HW138653  13.445   3.101   7.478
12252SOL    HW238654  13.558   3.202   7.472
12253SOL     OW38655   3.846   7.517   4.468
12253SOL    HW138656   3.778   7.518   4.536
12253SOL    HW238657   3.903   7.591   4.490
12254SOL     OW38658   4.906   5.659   7.288
12254SOL    HW138659   4.843   5.725   7.318
12254SOL    HW238660   4.991   5.701   7.298
12255SOL     OW38661   4.096   0.318   6.679
12255SOL    HW138662   4.140   0.247   6.631
12255SOL    HW238663   4.020   0.276   6.720
12256SOL     OW38664  13.706  10.549   6.962
12256SOL    HW138665  13.768  10.499   7.015
12256SOL    HW238666  13.627  10.553   7.017
12257SOL     OW38667   0.974  12.650  14.645
12257SOL    HW138668   1.051  12.707  14.648
12257SOL    HW238669   0.938  12.653  14.733
12258SOL     OW38670  11.748  11.759   2.685
12258SOL    HW138671  11.702  11.798   2.611
12258SOL    HW238672  11.841  11.762   2.660
12259SOL     OW38673   4.440  12.848  10.398
12259SOL    HW138674   4.426  12.877  10.488
12259SOL    HW238675   4.376  12.777  10.385
12260SOL     OW38676   4.797  10.701   9.388
12260SOL    HW138677   4.875  10.676   9.338
12260SOL    HW238678   4.832  10.729   9.473
12261SOL     OW38679   7.357   8.604   0.248
12261SOL    HW138680   7.283   8.551   0.276
12261SOL    HW238681   7.433   8.561   0.289
12262SOL     OW38682   5.289   6.364   9.080
12262SOL    HW138683   5.286   6.277   9.120
12262SOL    HW238684   5.300   6.346   8.987
12263SOL     OW38685   4.221   5.939   5.535
12263SOL    HW138686   4.270   6.006   5.583
12263SOL    HW238687   4.280   5.863   5.532
12264SOL     OW38688   9.996   3.479   1.051
12264SOL    HW138689   9.966   3.412   1.112
12264SOL    HW238690   9.916   3.518   1.016
12265SOL     OW38691  12.523  14.380   9.856
12265SOL    HW138692  12.586  14.426   9.801
12265SOL    HW238693  12.487  14.311   9.800
12266SOL     OW38694  12.711  14.535  14.709
12266SOL    HW138695  12.697  14.611  14.764
12266SOL    HW238696  12.762  14.567  14.635
12267SOL     OW38697   3.534   1.100   3.762
12267SOL    HW138698   3.462   1.125   3.821
12267SOL    HW238699   3.529   1.162   3.690
12268SOL     OW38700   1.538   8.675  11.561
12268SOL    HW138701   1.481   8.606  11.596
12268SOL    HW238702   1.552   8.734  11.635
12269SOL     OW38703  11.376  13.358   0.865
12269SOL    HW138704  11.437  13.431   0.864
12269SOL    HW238705  11.382  13.321   0.777
12270SOL     OW38706   7.320   2.252   4.941
12270SOL    HW138707   7.265   2.242   4.863
12270SOL    HW238708   7.317   2.167   4.984
12271SOL     OW38709   0.543   4.863   8.240
12271SOL    HW138710   0.531   4.800   8.311
12271SOL    HW238711   0.637   4.863   8.223
12272SOL     OW38712  13.436   1.231   2.617
12272SOL    HW138713  13.527   1.205   2.632
12272SOL    HW238714  13.422   1.304   2.677
12273SOL     OW38715   8.398   7.765   3.836
12273SOL    HW138716   8.453   7.720   3.900
12273SOL    HW238717   8.411   7.858   3.855
12274SOL     OW38718  14.374  10.320   3.712
12274SOL    HW138719  14.382  10.345   3.620
12274SOL    HW238720  14.449  10.262   3.728
12275SOL     OW38721  14.390  12.413   8.388
12275SOL    HW138722  14.475  12.424   8.429
12275SOL    HW238723  14.407  12.359   8.311
12276SOL     OW38724   1.594   2.663  10.249
12276SOL    HW138725   1.685   2.633  10.244
12276SOL    HW238726   1.581   2.684  10.341
12277SOL     OW38727  13.711   6.799   1.788
12277SOL    HW138728  13.752   6.804   1.874
12277SOL    HW238729  13.783   6.778   1.728
12278SOL     OW38730  10.064   3.992   6.740
12278SOL    HW138731  10.143   4.000   6.686
12278SOL    HW238732  10.090   3.932   6.810
12279SOL     OW38733  13.853   4.003   5.470
12279SOL    HW138734  13.864   3.979   5.377
12279SOL    HW238735  13.793   4.077   5.468
12280SOL     OW38736   3.668  13.407   0.711
12280SOL    HW138737   3.748  13.438   0.668
12280SOL    HW238738   3.627  13.486   0.745
12281SOL     OW38739  11.408   0.270  14.805
12281SOL    HW138740  11.405   0.253   0.029
12281SOL    HW238741  11.327   0.230  14.771
12282SOL     OW38742  13.979   4.646  11.189
12282SOL    HW138743  14.027   4.660  11.271
12282SOL    HW238744  13.924   4.570  11.207
12283SOL     OW38745   6.786  10.036   7.363
12283SOL    HW138746   6.827  10.061   7.446
12283SOL    HW238747   6.692  10.038   7.381
12284SOL     OW38748   7.817  12.585   1.693
12284SOL    HW138749   7.860  12.666   1.721
12284SOL    HW238750   7.870  12.554   1.619
12285SOL     OW38751   6.329   1.926   0.016
12285SOL    HW138752   6.324   2.013  14.848
12285SOL    HW238753   6.423   1.911   0.031
12286SOL     OW38754   5.435  13.020   1.094
12286SOL    HW138755   5.520  13.052   1.064
12286SOL    HW238756   5.418  13.068   1.175
12287SOL     OW38757  10.031   8.654  14.692
12287SOL    HW138758   9.981   8.732  14.715
12287SOL    HW238759  10.072   8.676  14.608
12288SOL     OW38760   6.509   4.924   9.197
12288SOL    HW138761   6.430   4.872   9.178
12288SOL    HW238762   6.542   4.950   9.112
12289SOL     OW38763   0.025   7.031  10.101
12289SOL    HW138764   0.016   7.075  10.017
12289SOL    HW238765  14.837   6.954  10.094
12290SOL     OW38766   6.110   0.195   6.956
12290SOL    HW138767   6.180   0.152   6.906
12290SOL    HW238768   6.156   0.243   7.025
12291SOL     OW38769   1.787  12.045   0.155
12291SOL    HW138770   1.769  12.018   0.065
12291SOL    HW238771   1.858  12.109   0.147
12292SOL     OW38772   1.832   5.167   7.004
12292SOL    HW138773   1.830   5.262   7.001
12292SOL    HW238774   1.866   5.146   7.091
12293SOL     OW38775   2.994  13.501   1.070
12293SOL    HW138776   2.966  13.513   0.980
12293SOL    HW238777   3.087  13.480   1.065
12294SOL     OW38778  13.660   1.920  13.474
12294SOL    HW138779  13.718   1.892  13.545
12294SOL    HW238780  13.659   2.015  13.480
12295SOL     OW38781  14.054   5.475   4.801
12295SOL    HW138782  14.132   5.499   4.851
12295SOL    HW238783  14.049   5.380   4.808
12296SOL     OW38784   3.809  14.844  10.925
12296SOL    HW138785   3.888   0.020  10.897
12296SOL    HW238786   3.758  14.832  10.844
12297SOL     OW38787   6.284   5.686   9.862
12297SOL    HW138788   6.304   5.759   9.804
12297SOL    HW238789   6.356   5.684   9.924
12298SOL     OW38790  11.912   4.285   7.396
12298SOL    HW138791  11.937   4.376   7.411
12298SOL    HW238792  11.833   4.291   7.342
12299SOL     OW38793   8.856  12.199  14.513
12299SOL    HW138794   8.839  12.260  14.442
12299SOL    HW238795   8.775  12.147  14.520
12300SOL     OW38796   8.642   7.546  13.240
12300SOL    HW138797   8.704   7.514  13.173
12300SOL    HW238798   8.639   7.476  13.305
12301SOL     OW38799   6.711   4.428   3.885
12301SOL    HW138800   6.648   4.448   3.955
12301SOL    HW238801   6.703   4.333   3.873
12302SOL     OW38802   1.784   4.812  13.427
12302SOL    HW138803   1.832   4.770  13.498
12302SOL    HW238804   1.696   4.827  13.463
12303SOL     OW38805   8.176   3.605   8.832
12303SOL    HW138806   8.152   3.550   8.758
12303SOL    HW238807   8.258   3.567   8.864
12304SOL     OW38808   4.648  12.113   7.104
12304SOL    HW138809   4.683  12.164   7.031
12304SOL    HW238810   4.660  12.022   7.077
12305SOL     OW38811  11.444   8.163   2.220
12305SOL    HW138812  11.412   8.077   2.193
12305SOL    HW238813  11.424   8.168   2.313
12306SOL     OW38814   5.206  13.966  14.328
12306SOL    HW138815   5.209  14.061  14.316
12306SOL    HW238816   5.292  13.944  14.364
12307SOL     OW38817  10.457   6.784  11.489
12307SOL    HW138818  10.471   6.743  11.575
12307SOL    HW238819  10.537   6.833  11.472
12308SOL     OW38820   1.695   3.318  14.074
12308SOL    HW138821   1.785   3.286  14.079
12308SOL    HW238822   1.656   3.270  14.000
12309SOL     OW38823  11.090  12.001   3.913
12309SOL    HW138824  11.142  11.948   3.973
12309SOL    HW238825  11.069  11.942   3.841
12310SOL     OW38826   1.253  10.535   2.313
12310SOL    HW138827   1.198  10.568   2.384
12310SOL    HW238828   1.191  10.521   2.241
12311SOL     OW38829   7.553   9.802  14.079
12311SOL    HW138830   7.513   9.863  14.141
12311SOL    HW238831   7.498   9.807  14.001
12312SOL     OW38832  11.299   3.837   4.823
12312SOL    HW138833  11.323   3.930   4.815
12312SOL    HW238834  11.383   3.792   4.833
12313SOL     OW38835  12.154   9.764   5.380
12313SOL    HW138836  12.067   9.797   5.403
12313SOL    HW238837  12.214   9.822   5.425
12314SOL     OW38838   1.778   2.001   3.568
12314SOL    HW138839   1.695   2.031   3.603
12314SOL    HW238840   1.795   2.058   3.493
12315SOL     OW38841  10.863   3.846   0.040
12315SOL    HW138842  10.958   3.854   0.030
12315SOL    HW238843  10.850   3.757   0.074
12316SOL     OW38844  11.658   1.237  11.317
12316SOL    HW138845  11.718   1.296  11.273
12316SOL    HW238846  11.665   1.154  11.269
12317SOL     OW38847   9.892   5.368   9.506
12317SOL    HW138848   9.965   5.429   9.502
12317SOL    HW238849   9.815   5.421   9.488
12318SOL     OW38850   8.324   8.425  10.824
12318SOL    HW138851   8.324   8.370  10.902
12318SOL    HW238852   8.412   8.414  10.787
12319SOL     OW38853   7.400   0.042   6.272
12319SOL    HW138854   7.352  14.836   6.237
12319SOL    HW238855   7.471   0.056   6.209
12320SOL     OW38856  11.471   6.276  11.016
12320SOL    HW138857  11.457   6.306  11.106
12320SOL    HW238858  11.544   6.214  11.022
12321SOL     OW38859   2.622   7.398  12.153
12321SOL    HW138860   2.650   7.487  12.132
12321SOL    HW238861   2.598   7.401  12.246
12322SOL     OW38862   7.633  10.713   1.353
12322SOL    HW138863   7.551  10.708   1.402
12322SOL    HW238864   7.683  10.637   1.384
12323SOL     OW38865   7.248  14.788   4.364
12323SOL    HW138866   7.248  14.793   4.459
12323SOL    HW238867   7.251   0.010   4.335
12324SOL     OW38868  10.498  11.378   7.745
12324SOL    HW138869  10.561  11.306   7.743
12324SOL    HW238870  10.521  11.433   7.670
12325SOL     OW38871   6.543   8.150  10.433
12325SOL    HW138872   6.520   8.149  10.526
12325SOL    HW238873   6.517   8.064  10.400
12326SOL     OW38874   9.104  11.373   7.979
12326SOL    HW138875   9.199  11.367   7.989
12326SOL    HW238876   9.080  11.455   8.023
12327SOL     OW38877   8.782  13.369   3.257
12327SOL    HW138878   8.779  13.330   3.345
12327SOL    HW238879   8.875  13.378   3.238
12328SOL     OW38880   8.503  13.312   2.496
12328SOL    HW138881   8.436  13.244   2.493
12328SOL    HW238882   8.578  13.275   2.449
12329SOL     OW38883  10.588  12.697  12.550
12329SOL    HW138884  10.553  12.737  12.470
12329SOL    HW238885  10.515  12.696  12.611
12330SOL     OW38886   8.561  10.158  11.569
12330SOL    HW138887   8.546  10.246  11.535
12330SOL    HW238888   8.553  10.166  11.664
12331SOL     OW38889   7.921   3.376   2.633
12331SOL    HW138890   7.974   3.376   2.553
12331SOL    HW238891   7.911   3.468   2.656
12332SOL     OW38892  11.859  10.319  12.827
12332SOL    HW138893  11.900  10.370  12.897
12332SOL    HW238894  11.926  10.314  12.758
12333SOL     OW38895  11.413  12.544  12.081
12333SOL    HW138896  11.452  12.588  12.157
12333SOL    HW238897  11.351  12.608  12.046
12334SOL     OW38898   6.609   6.764  13.914
12334SOL    HW138899   6.518   6.769  13.886
12334SOL    HW238900   6.624   6.671  13.931
12335SOL     OW38901   3.765  10.611   0.521
12335SOL    HW138902   3.749  10.704   0.502
12335SOL    HW238903   3.700  10.589   0.589
12336SOL     OW38904  11.345   9.758   1.638
12336SOL    HW138905  11.278   9.789   1.577
12336SOL    HW238906  11.317   9.791   1.723
12337SOL     OW38907   1.038  11.006  10.247
12337SOL    HW138908   1.029  10.937  10.181
12337SOL    HW238909   1.054  10.959  10.329
12338SOL     OW38910   5.670   4.366  13.984
12338SOL    HW138911   5.689   4.359  14.078
12338SOL    HW238912   5.754   4.346  13.941
12339SOL     OW38913  11.353   7.286   4.529
12339SOL    HW138914  11.358   7.380   4.542
12339SOL    HW238915  11.279   7.258   4.583
12340SOL     OW38916  11.401  14.751   0.007
12340SOL    HW138917  11.391  14.776  14.785
12340SOL    HW238918  11.312  14.742   0.040
12341SOL     OW38919  10.868  12.465  10.612
12341SOL    HW138920  10.947  12.421  10.580
12341SOL    HW238921  10.820  12.488  10.533
12342SOL     OW38922   6.806   3.910   2.279
12342SOL    HW138923   6.892   3.927   2.240
12342SOL    HW238924   6.826   3.865   2.361
12343SOL     OW38925   7.231   3.162   7.871
12343SOL    HW138926   7.256   3.220   7.799
12343SOL    HW238927   7.212   3.222   7.943
12344SOL     OW38928  14.801   7.105   9.824
12344SOL    HW138929  14.706   7.105   9.837
12344SOL    HW238930  14.824   7.012   9.813
12345SOL     OW38931   6.404  12.481  10.460
12345SOL    HW138932   6.476  12.535  10.428
12345SOL    HW238933   6.415  12.479  10.555
12346SOL     OW38934   1.822   7.438   6.350
12346SOL    HW138935   1.786   7.433   6.262
12346SOL    HW238936   1.864   7.524   6.354
12347SOL     OW38937   8.257  11.869   4.031
12347SOL    HW138938   8.295  11.950   3.995
12347SOL    HW238939   8.191  11.900   4.093
12348SOL     OW38940   0.368  12.527   9.262
12348SOL    HW138941   0.423  12.594   9.223
12348SOL    HW238942   0.281  12.567   9.269
12349SOL     OW38943   2.457   7.924   4.511
12349SOL    HW138944   2.437   7.841   4.556
12349SOL    HW238945   2.553   7.926   4.507
12350SOL     OW38946   5.924   6.904   2.529
12350SOL    HW138947   5.930   6.936   2.619
12350SOL    HW238948   5.902   6.811   2.538
12351SOL     OW38949  11.951   0.623  13.352
12351SOL    HW138950  11.892   0.622  13.276
12351SOL    HW238951  11.939   0.538  13.392
12352SOL     OW38952   4.171   6.090   8.056
12352SOL    HW138953   4.147   6.014   8.003
12352SOL    HW238954   4.195   6.157   7.991
12353SOL     OW38955  14.205   5.945  14.626
12353SOL    HW138956  14.153   5.888  14.682
12353SOL    HW238957  14.164   6.031  14.636
12354SOL     OW38958   2.646  10.024  14.508
12354SOL    HW138959   2.671  10.110  14.543
12354SOL    HW238960   2.720   9.998  14.454
12355SOL     OW38961  14.084   7.270  14.301
12355SOL    HW138962  14.024   7.324  14.250
12355SOL    HW238963  14.171   7.287  14.262
12356SOL     OW38964   7.180  10.994   6.558
12356SOL    HW138965   7.098  10.985   6.608
12356SOL    HW238966   7.190  10.911   6.512
12357SOL     OW38967   1.188   6.331   4.532
12357SOL    HW138968   1.209   6.264   4.597
12357SOL    HW238969   1.095   6.317   4.513
12358SOL     OW38970  10.151   5.081   1.988
12358SOL    HW138971  10.243   5.058   1.983
12358SOL    HW238972  10.146   5.171   1.956
12359SOL     OW38973   6.762  10.785   9.516
12359SOL    HW138974   6.703  10.739   9.576
12359SOL    HW238975   6.817  10.838   9.573
12360SOL     OW38976   7.691   2.419   6.992
12360SOL    HW138977   7.755   2.437   6.923
12360SOL    HW238978   7.683   2.502   7.039
12361SOL     OW38979   9.036   9.323   3.639
12361SOL    HW138980   8.962   9.268   3.614
12361SOL    HW238981   9.007   9.369   3.717
12362SOL     OW38982   6.372   8.617   4.498
12362SOL    HW138983   6.457   8.623   4.453
12362SOL    HW238984   6.339   8.707   4.499
12363SOL     OW38985  10.262   1.236  14.259
12363SOL    HW138986  10.252   1.318  14.308
12363SOL    HW238987  10.328   1.255  14.193
12364SOL     OW38988  12.664   1.482  13.466
12364SOL    HW138989  12.742   1.482  13.410
12364SOL    HW238990  12.629   1.393  13.458
12365SOL     OW38991  11.470   7.351   8.984
12365SOL    HW138992  11.558   7.316   8.971
12365SOL    HW238993  11.478   7.406   9.062
12366SOL     OW38994   5.560   8.031   1.047
12366SOL    HW138995   5.518   7.945   1.040
12366SOL    HW238996   5.555   8.053   1.139
12367SOL     OW38997   6.213  10.065   1.308
12367SOL    HW138998   6.172  10.061   1.222
12367SOL    HW238999   6.160  10.007   1.362
12368SOL     OW39000  13.446   9.519   9.765
12368SOL    HW139001  13.366   9.467   9.762
12368SOL    HW239002  13.415   9.609   9.769
12369SOL     OW39003  10.132  10.128   3.402
12369SOL    HW139004  10.084  10.045   3.409
12369SOL    HW239005  10.139  10.160   3.492
12370SOL     OW39006  10.574  12.740   0.297
12370SOL    HW139007  10.628  12.755   0.219
12370SOL    HW239008  10.629  12.768   0.370
12371SOL     OW39009   2.214   0.488  12.000
12371SOL    HW139010   2.287   0.471  12.060
12371SOL    HW239011   2.215   0.583  11.986
12372SOL     OW39012  12.928  10.852   8.269
12372SOL    HW139013  12.917  10.933   8.319
12372SOL    HW239014  12.845  10.806   8.280
12373SOL     OW39015   6.808   8.337   3.962
12373SOL    HW139016   6.727   8.375   3.997
12373SOL    HW239017   6.779   8.279   3.891
12374SOL     OW39018   1.769   1.043   9.491
12374SOL    HW139019   1.729   0.987   9.425
12374SOL    HW239020   1.697   1.097   9.524
12375SOL     OW39021   1.145  10.459  10.073
12375SOL    HW139022   1.211  10.433  10.008
12375SOL    HW239023   1.061  10.441  10.030
12376SOL     OW39024   5.309   1.957  14.731
12376SOL    HW139025   5.392   1.990  14.766
12376SOL    HW239026   5.245   2.025  14.751
12377SOL     OW39027   9.877   8.300   3.315
12377SOL    HW139028   9.837   8.385   3.328
12377SOL    HW239029   9.874   8.286   3.221
12378SOL     OW39030   8.347   1.504  13.912
12378SOL    HW139031   8.270   1.448  13.922
12378SOL    HW239032   8.367   1.533  14.001
12379SOL     OW39033   2.457   0.228  14.136
12379SOL    HW139034   2.405   0.152  14.163
12379SOL    HW239035   2.478   0.211  14.044
12380SOL     OW39036   0.982   4.915   0.876
12380SOL    HW139037   1.024   4.848   0.823
12380SOL    HW239038   0.988   4.995   0.824
12381SOL     OW39039   7.028   1.219   7.182
12381SOL    HW139040   6.998   1.148   7.125
12381SOL    HW239041   6.953   1.238   7.238
12382SOL     OW39042  14.064  14.724   8.054
12382SOL    HW139043  14.068  14.647   7.997
12382SOL    HW239044  13.997  14.703   8.118
12383SOL     OW39045   9.489   8.797   0.184
12383SOL    HW139046   9.408   8.812   0.233
12383SOL    HW239047   9.555   8.848   0.229
12384SOL     OW39048   9.480  13.912   4.369
12384SOL    HW139049   9.494  13.915   4.274
12384SOL    HW239050   9.565  13.934   4.407
12385SOL     OW39051   3.615   0.818   6.514
12385SOL    HW139052   3.633   0.755   6.444
12385SOL    HW239053   3.543   0.871   6.481
12386SOL     OW39054  14.390   3.854  13.706
12386SOL    HW139055  14.320   3.839  13.642
12386SOL    HW239056  14.387   3.948  13.723
12387SOL     OW39057  10.944   8.139   0.759
12387SOL    HW139058  10.953   8.232   0.780
12387SOL    HW239059  11.011   8.096   0.812
12388SOL     OW39060   8.619   1.368   5.409
12388SOL    HW139061   8.622   1.409   5.323
12388SOL    HW239062   8.533   1.393   5.444
12389SOL     OW39063   4.909   5.165   4.811
12389SOL    HW139064   4.980   5.104   4.792
12389SOL    HW239065   4.858   5.168   4.730
12390SOL     OW39066  12.660   2.343   4.612
12390SOL    HW139067  12.628   2.254   4.600
12390SOL    HW239068  12.643   2.387   4.529
12391SOL     OW39069   8.229  10.795   4.419
12391SOL    HW139070   8.224  10.865   4.354
12391SOL    HW239071   8.208  10.838   4.502
12392SOL     OW39072   1.870   0.642   7.828
12392SOL    HW139073   1.815   0.601   7.895
12392SOL    HW239074   1.960   0.623   7.856
12393SOL     OW39075   0.147  11.194   8.630
12393SOL    HW139076   0.188  11.113   8.662
12393SOL    HW239077   0.086  11.219   8.700
12394SOL     OW39078   3.199   9.412   8.596
12394SOL    HW139079   3.222   9.343   8.534
12394SOL    HW239080   3.280   9.428   8.645
12395SOL     OW39081  13.295  13.460   2.218
12395SOL    HW139082  13.337  13.401   2.281
12395SOL    HW239083  13.269  13.404   2.146
12396SOL     OW39084   1.780   6.917   9.757
12396SOL    HW139085   1.768   7.000   9.712
12396SOL    HW239086   1.857   6.878   9.716
12397SOL     OW39087   5.417   5.094   6.607
12397SOL    HW139088   5.352   5.053   6.550
12397SOL    HW239089   5.397   5.187   6.606
12398SOL     OW39090   3.572  14.453   0.614
12398SOL    HW139091   3.519  14.521   0.656
12398SOL    HW239092   3.662  14.483   0.624
12399SOL     OW39093   1.231  11.860  13.536
12399SOL    HW139094   1.269  11.802  13.470
12399SOL    HW239095   1.170  11.805  13.584
12400SOL     OW39096   7.865   4.948  12.407
12400SOL    HW139097   7.867   4.865  12.455
12400SOL    HW239098   7.847   5.014  12.475
12401SOL     OW39099  13.588   5.673   3.775
12401SOL    HW139100  13.655   5.734   3.806
12401SOL    HW239101  13.576   5.611   3.848
12402SOL     OW39102   1.364   5.696   9.158
12402SOL    HW139103   1.446   5.648   9.150
12402SOL    HW239104   1.315   5.675   9.079
12403SOL     OW39105  14.503  14.105   7.163
12403SOL    HW139106  14.470  14.016   7.165
12403SOL    HW239107  14.549  14.112   7.079
12404SOL     OW39108  14.371   1.489   1.070
12404SOL    HW139109  14.386   1.397   1.047
12404SOL    HW239110  14.421   1.539   1.006
12405SOL     OW39111   3.771   7.834   1.910
12405SOL    HW139112   3.805   7.756   1.954
12405SOL    HW239113   3.682   7.810   1.884
12406SOL     OW39114   1.939   3.415   7.495
12406SOL    HW139115   1.956   3.337   7.548
12406SOL    HW239116   1.935   3.487   7.559
12407SOL     OW39117  14.148  13.507   4.447
12407SOL    HW139118  14.199  13.538   4.372
12407SOL    HW239119  14.083  13.575   4.462
12408SOL     OW39120  12.668   7.943  14.585
12408SOL    HW139121  12.684   7.923  14.493
12408SOL    HW239122  12.573   7.933  14.596
12409SOL     OW39123   7.807   3.518   5.925
12409SOL    HW139124   7.751   3.568   5.865
12409SOL    HW239125   7.881   3.577   5.942
12410SOL     OW39126   4.340   9.744   7.315
12410SOL    HW139127   4.252   9.739   7.277
12410SOL    HW239128   4.375   9.827   7.283
12411SOL     OW39129   3.854   8.418   5.171
12411SOL    HW139130   3.788   8.361   5.132
12411SOL    HW239131   3.933   8.403   5.120
12412SOL     OW39132   4.781   6.798   9.030
12412SOL    HW139133   4.868   6.759   9.038
12412SOL    HW239134   4.792   6.866   8.963
12413SOL     OW39135   8.974   7.877  14.553
12413SOL    HW139136   8.977   7.782  14.556
12413SOL    HW239137   8.892   7.897  14.507
12414SOL     OW39138   7.577   3.890  13.092
12414SOL    HW139139   7.628   3.931  13.023
12414SOL    HW239140   7.559   3.960  13.154
12415SOL     OW39141  13.685   9.001   3.254
12415SOL    HW139142  13.627   9.077   3.240
12415SOL    HW239143  13.653   8.962   3.335
12416SOL     OW39144   2.169   7.673  10.844
12416SOL    HW139145   2.151   7.609  10.775
12416SOL    HW239146   2.083   7.694  10.880
12417SOL     OW39147   4.606   6.348   6.667
12417SOL    HW139148   4.595   6.413   6.737
12417SOL    HW239149   4.693   6.312   6.681
12418SOL     OW39150   0.117  14.079   9.973
12418SOL    HW139151   0.088  14.095  10.063
12418SOL    HW239152   0.188  14.016   9.981
12419SOL     OW39153   2.129   1.818   6.518
12419SOL    HW139154   2.135   1.764   6.596
12419SOL    HW239155   2.058   1.879   6.536
12420SOL     OW39156   5.578   2.352  14.156
12420SOL    HW139157   5.600   2.260  14.172
12420SOL    HW239158   5.557   2.388  14.242
12421SOL     OW39159   5.503  11.379  11.013
12421SOL    HW139160   5.440  11.414  10.950
12421SOL    HW239161   5.551  11.456  11.044
12422SOL     OW39162   5.828   0.577  13.169
12422SOL    HW139163   5.852   0.499  13.119
12422SOL    HW239164   5.801   0.640  13.103
12423SOL     OW39165   7.111   2.426   3.709
12423SOL    HW139166   7.033   2.427   3.765
12423SOL    HW239167   7.172   2.369   3.756
12424SOL     OW39168   2.884   9.548   6.593
12424SOL    HW139169   2.876   9.586   6.506
12424SOL    HW239170   2.941   9.472   6.581
12425SOL     OW39171   0.026   5.958   4.753
12425SOL    HW139172   0.040   6.049   4.781
12425SOL    HW239173   0.093   5.943   4.686
12426SOL     OW39174   3.230   8.698  12.605
12426SOL    HW139175   3.157   8.703  12.667
12426SOL    HW239176   3.302   8.743  12.648
12427SOL     OW39177  11.654  13.274  10.982
12427SOL    HW139178  11.729  13.219  10.959
12427SOL    HW239179  11.621  13.306  10.899
12428SOL     OW39180  11.455   4.539   7.986
12428SOL    HW139181  11.394   4.491   8.042
12428SOL    HW239182  11.515   4.472   7.953
12429SOL     OW39183   7.813   9.471  13.932
12429SOL    HW139184   7.886   9.414  13.954
12429SOL    HW239185   7.784   9.507  14.015
12430SOL     OW39186   3.603  10.333   0.756
12430SOL    HW139187   3.554  10.409   0.786
12430SOL    HW239188   3.548  10.294   0.688
12431SOL     OW39189  11.167  11.337   1.867
12431SOL    HW139190  11.073  11.322   1.866
12431SOL    HW239191  11.205  11.252   1.843
12432SOL     OW39192   2.579   3.268  13.868
12432SOL    HW139193   2.574   3.233  13.957
12432SOL    HW239194   2.652   3.329  13.870
12433SOL     OW39195   7.543  14.513   7.242
12433SOL    HW139196   7.606  14.573   7.202
12433SOL    HW239197   7.521  14.554   7.326
12434SOL     OW39198   7.173   3.215   0.786
12434SOL    HW139199   7.190   3.160   0.863
12434SOL    HW239200   7.081   3.241   0.796
12435SOL     OW39201   9.463   3.906   4.664
12435SOL    HW139202   9.508   3.831   4.703
12435SOL    HW239203   9.484   3.901   4.571
12436SOL     OW39204   0.125   3.463   6.377
12436SOL    HW139205   0.188   3.472   6.305
12436SOL    HW239206   0.117   3.369   6.390
12437SOL     OW39207  10.624  11.218   0.629
12437SOL    HW139208  10.598  11.305   0.600
12437SOL    HW239209  10.700  11.233   0.686
12438SOL     OW39210   8.275   1.113   9.126
12438SOL    HW139211   8.240   1.069   9.048
12438SOL    HW239212   8.347   1.166   9.094
12439SOL     OW39213   6.054  14.385   1.726
12439SOL    HW139214   6.138  14.340   1.727
12439SOL    HW239215   6.064  14.452   1.657
12440SOL     OW39216   0.031   3.063   6.590
12440SOL    HW139217   0.051   2.969   6.594
12440SOL    HW239218  14.817   3.071   6.635
12441SOL     OW39219   8.393   2.138   1.579
12441SOL    HW139220   8.441   2.102   1.504
12441SOL    HW239221   8.419   2.083   1.653
12442SOL     OW39222   2.855  12.622  12.063
12442SOL    HW139223   2.920  12.587  12.003
12442SOL    HW239224   2.879  12.587  12.149
12443SOL     OW39225  14.519   4.893   0.310
12443SOL    HW139226  14.492   4.810   0.270
12443SOL    HW239227  14.443   4.950   0.299
12444SOL     OW39228   7.141  11.938   6.067
12444SOL    HW139229   7.099  12.017   6.033
12444SOL    HW239230   7.225  11.968   6.102
12445SOL     OW39231   6.723   3.207  10.463
12445SOL    HW139232   6.695   3.198  10.554
12445SOL    HW239233   6.818   3.199  10.466
12446SOL     OW39234   9.277   3.928  14.389
12446SOL    HW139235   9.204   3.918  14.450
12446SOL    HW239236   9.247   3.993  14.326
12447SOL     OW39237   5.426   1.028  11.600
12447SOL    HW139238   5.441   1.041  11.506
12447SOL    HW239239   5.435   1.116  11.638
12448SOL     OW39240  13.419  14.849   1.592
12448SOL    HW139241  13.334   0.019   1.574
12448SOL    HW239242  13.399  14.756   1.604
12449SOL     OW39243   8.968  12.260  10.771
12449SOL    HW139244   8.907  12.330  10.792
12449SOL    HW239245   8.942  12.230  10.684
12450SOL     OW39246  11.048  11.978  12.443
12450SOL    HW139247  11.002  12.040  12.500
12450SOL    HW239248  11.002  11.982  12.360
12451SOL     OW39249   1.458   2.317  11.634
12451SOL    HW139250   1.425   2.365  11.710
12451SOL    HW239251   1.533   2.368  11.604
12452SOL     OW39252  13.349   5.381   3.856
12452SOL    HW139253  13.292   5.360   3.931
12452SOL    HW239254  13.429   5.416   3.896
12453SOL     OW39255   6.634  10.768   4.514
12453SOL    HW139256   6.652  10.720   4.433
12453SOL    HW239257   6.542  10.750   4.533
12454SOL     OW39258   3.890   5.812   9.287
12454SOL    HW139259   3.888   5.901   9.322
12454SOL    HW239260   3.909   5.757   9.363
12455SOL     OW39261   0.534   7.533   8.548
12455SOL    HW139262   0.550   7.614   8.597
12455SOL    HW239263   0.612   7.521   8.494
12456SOL     OW39264  13.483   1.451   9.858
12456SOL    HW139265  13.567   1.466   9.900
12456SOL    HW239266  13.479   1.514   9.787
12457SOL     OW39267   0.630   8.640   6.894
12457SOL    HW139268   0.714   8.621   6.935
12457SOL    HW239269   0.569   8.654   6.967
12458SOL     OW39270  12.286   0.466   6.424
12458SOL    HW139271  12.300   0.430   6.512
12458SOL    HW239272  12.360   0.433   6.373
12459SOL     OW39273   3.638   4.971  13.899
12459SOL    HW139274   3.723   4.967  13.943
12459SOL    HW239275   3.588   5.035  13.950
12460SOL     OW39276  12.771  13.761   7.999
12460SOL    HW139277  12.756  13.855   7.985
12460SOL    HW239278  12.844  13.758   8.060
12461SOL     OW39279   6.890   5.129   1.074
12461SOL    HW139280   6.795   5.136   1.070
12461SOL    HW239281   6.918   5.132   0.982
12462SOL     OW39282   4.338   2.485  10.665
12462SOL    HW139283   4.303   2.572  10.683
12462SOL    HW239284   4.398   2.498  10.592
12463SOL     OW39285   9.824   6.685   3.262
12463SOL    HW139286   9.884   6.633   3.316
12463SOL    HW239287   9.819   6.769   3.306
12464SOL     OW39288   0.745   5.775  12.142
12464SOL    HW139289   0.826   5.825  12.151
12464SOL    HW239290   0.698   5.791  12.224
12465SOL     OW39291   1.816   9.589  11.581
12465SOL    HW139292   1.798   9.523  11.515
12465SOL    HW239293   1.905   9.570  11.612
12466SOL     OW39294   5.885   0.049   3.879
12466SOL    HW139295   5.924  14.865   3.810
12466SOL    HW239296   5.792   0.054   3.857
12467SOL     OW39297  11.436   3.973   1.651
12467SOL    HW139298  11.458   3.880   1.656
12467SOL    HW239299  11.506   4.012   1.599
12468SOL     OW39300  12.881   9.788   5.408
12468SOL    HW139301  12.821   9.714   5.406
12468SOL    HW239302  12.968   9.749   5.400
12469SOL     OW39303   6.749   3.091  12.520
12469SOL    HW139304   6.783   3.177  12.544
12469SOL    HW239305   6.655   3.097  12.536
12470SOL     OW39306   6.946  12.982   4.308
12470SOL    HW139307   6.948  12.890   4.283
12470SOL    HW239308   6.860  13.013   4.279
12471SOL     OW39309   2.161   6.844  12.333
12471SOL    HW139310   2.202   6.859  12.247
12471SOL    HW239311   2.234   6.831  12.393
12472SOL     OW39312   8.509   1.653  13.141
12472SOL    HW139313   8.433   1.596  13.132
12472SOL    HW239314   8.496   1.698  13.224
12473SOL     OW39315   8.988   0.587   1.009
12473SOL    HW139316   8.983   0.542   1.093
12473SOL    HW239317   8.925   0.540   0.953
12474SOL     OW39318   2.051   1.050   3.220
12474SOL    HW139319   2.006   1.119   3.171
12474SOL    HW239320   1.997   0.972   3.208
12475SOL     OW39321   3.443  14.276   9.746
12475SOL    HW139322   3.422  14.215   9.675
12475SOL    HW239323   3.361  14.288   9.792
12476SOL     OW39324  10.226   5.955  10.858
12476SOL    HW139325  10.210   6.045  10.827
12476SOL    HW239326  10.288   5.965  10.930
12477SOL     OW39327   1.098   1.866   8.125
12477SOL    HW139328   1.041   1.881   8.049
12477SOL    HW239329   1.060   1.790   8.169
12478SOL     OW39330  14.414  13.970  11.845
12478SOL    HW139331  14.464  13.928  11.915
12478SOL    HW239332  14.401  14.059  11.875
12479SOL     OW39333   1.562   9.842   2.359
12479SOL    HW139334   1.564   9.761   2.307
12479SOL    HW239335   1.638   9.835   2.416
12480SOL     OW39336   0.336   9.249   9.037
12480SOL    HW139337   0.319   9.161   9.071
12480SOL    HW239338   0.324   9.307   9.112
12481SOL     OW39339   0.445  10.234   3.792
12481SOL    HW139340   0.427  10.188   3.874
12481SOL    HW239341   0.394  10.315   3.798
12482SOL     OW39342   8.059   7.824   6.286
12482SOL    HW139343   7.982   7.830   6.228
12482SOL    HW239344   8.112   7.754   6.247
12483SOL     OW39345   4.813   3.004   1.439
12483SOL    HW139346   4.725   2.968   1.429
12483SOL    HW239347   4.869   2.943   1.390
12484SOL     OW39348   1.430   5.741  14.848
12484SOL    HW139349   1.482   5.661  14.857
12484SOL    HW239350   1.341   5.713  14.869
12485SOL     OW39351   4.860   1.329  13.625
12485SOL    HW139352   4.822   1.359  13.707
12485SOL    HW239353   4.936   1.387  13.612
12486SOL     OW39354  11.145   9.402   0.512
12486SOL    HW139355  11.182   9.438   0.431
12486SOL    HW239356  11.185   9.315   0.519
12487SOL     OW39357  12.274   5.247   6.241
12487SOL    HW139358  12.270   5.154   6.218
12487SOL    HW239359  12.358   5.256   6.286
12488SOL     OW39360  10.381  12.230  12.750
12488SOL    HW139361  10.470  12.242  12.716
12488SOL    HW239362  10.356  12.316  12.783
12489SOL     OW39363  12.684  13.794   3.567
12489SOL    HW139364  12.630  13.750   3.633
12489SOL    HW239365  12.693  13.731   3.496
12490SOL     OW39366   5.101  12.780   3.055
12490SOL    HW139367   5.035  12.711   3.056
12490SOL    HW239368   5.102  12.814   3.144
12491SOL     OW39369   1.418  12.759   5.319
12491SOL    HW139370   1.418  12.684   5.377
12491SOL    HW239371   1.334  12.753   5.272
12492SOL     OW39372   0.702   2.455  13.829
12492SOL    HW139373   0.670   2.525  13.772
12492SOL    HW239374   0.733   2.499  13.908
12493SOL     OW39375  13.524   6.347  10.437
12493SOL    HW139376  13.592   6.397  10.481
12493SOL    HW239377  13.443   6.392  10.458
12494SOL     OW39378   8.047   0.295  14.849
12494SOL    HW139379   8.112   0.300   0.049
12494SOL    HW239380   8.087   0.238  14.782
12495SOL     OW39381   6.810   2.704  13.619
12495SOL    HW139382   6.824   2.677  13.710
12495SOL    HW239383   6.777   2.625  13.576
12496SOL     OW39384   5.675   7.069  14.572
12496SOL    HW139385   5.602   7.047  14.515
12496SOL    HW239386   5.680   6.996  14.634
12497SOL     OW39387   9.740   3.989   0.334
12497SOL    HW139388   9.697   3.904   0.345
12497SOL    HW239389   9.764   4.016   0.423
12498SOL     OW39390   4.321   0.327   6.303
12498SOL    HW139391   4.409   0.360   6.320
12498SOL    HW239392   4.323   0.235   6.330
12499SOL     OW39393  11.691   1.319   2.644
12499SOL    HW139394  11.618   1.362   2.599
12499SOL    HW239395  11.724   1.385   2.704
12500SOL     OW39396  12.501   0.787   8.595
12500SOL    HW139397  12.413   0.808   8.625
12500SOL    HW239398  12.495   0.790   8.500
12501SOL     OW39399  12.802  10.258   5.428
12501SOL    HW139400  12.781  10.188   5.490
12501SOL    HW239401  12.879  10.225   5.381
12502SOL     OW39402   1.215   1.647  13.294
12502SOL    HW139403   1.233   1.735  13.262
12502SOL    HW239404   1.294   1.621  13.341
12503SOL     OW39405  10.308   3.685  11.279
12503SOL    HW139406  10.238   3.711  11.218
12503SOL    HW239407  10.385   3.676  11.223
12504SOL     OW39408   5.869  14.137  10.526
12504SOL    HW139409   5.805  14.095  10.468
12504SOL    HW239410   5.855  14.096  10.611
12505SOL     OW39411   0.871   1.183   9.976
12505SOL    HW139412   0.787   1.140   9.988
12505SOL    HW239413   0.936   1.118  10.002
12506SOL     OW39414  12.005   9.669   3.819
12506SOL    HW139415  12.074   9.683   3.884
12506SOL    HW239416  12.008   9.575   3.801
12507SOL     OW39417   2.739   7.858   3.832
12507SOL    HW139418   2.758   7.943   3.871
12507SOL    HW239419   2.759   7.795   3.902
12508SOL     OW39420  10.098  11.893   4.232
12508SOL    HW139421  10.034  11.931   4.172
12508SOL    HW239422  10.145  11.968   4.269
12509SOL     OW39423   0.269   5.427  10.492
12509SOL    HW139424   0.341   5.465  10.442
12509SOL    HW239425   0.311   5.361  10.547
12510SOL     OW39426   3.918   1.453   1.166
12510SOL    HW139427   3.851   1.388   1.184
12510SOL    HW239428   3.871   1.537   1.165
12511SOL     OW39429   3.608   0.351  12.650
12511SOL    HW139430   3.602   0.442  12.679
12511SOL    HW239431   3.653   0.355  12.566
12512SOL     OW39432   0.328  11.619   4.966
12512SOL    HW139433   0.379  11.563   5.025
12512SOL    HW239434   0.389  11.641   4.896
12513SOL     OW39435   9.873   6.145   5.758
12513SOL    HW139436   9.910   6.223   5.801
12513SOL    HW239437   9.925   6.135   5.678
12514SOL     OW39438   2.151  10.416   8.679
12514SOL    HW139439   2.240  10.440   8.655
12514SOL    HW239440   2.096  10.452   8.610
12515SOL     OW39441  11.300   5.723  12.755
12515SOL    HW139442  11.278   5.791  12.691
12515SOL    HW239443  11.236   5.735  12.825
12516SOL     OW39444   4.833   9.930  12.021
12516SOL    HW139445   4.739   9.943  12.012
12516SOL    HW239446   4.844   9.885  12.105
12517SOL     OW39447   7.803  11.589   3.992
12517SOL    HW139448   7.737  11.523   4.015
12517SOL    HW239449   7.841  11.614   4.077
12518SOL     OW39450  13.047  14.860  12.910
12518SOL    HW139451  13.025  14.828  12.823
12518SOL    HW239452  13.111   0.060  12.894
12519SOL     OW39453   4.116   1.121   2.841
12519SOL    HW139454   4.084   1.185   2.777
12519SOL    HW239455   4.084   1.037   2.809
12520SOL     OW39456   6.000   2.462   1.136
12520SOL    HW139457   6.095   2.468   1.128
12520SOL    HW239458   5.972   2.551   1.158
12521SOL     OW39459  10.490   7.227  14.078
12521SOL    HW139460  10.526   7.139  14.086
12521SOL    HW239461  10.561   7.278  14.038
12522SOL     OW39462  12.809   0.427   0.923
12522SOL    HW139463  12.830   0.491   0.855
12522SOL    HW239464  12.890   0.377   0.934
12523SOL     OW39465   3.779   0.132  12.641
12523SOL    HW139466   3.727   0.212  12.649
12523SOL    HW239467   3.727   0.066  12.686
12524SOL     OW39468  11.459  11.521   6.641
12524SOL    HW139469  11.410  11.580   6.584
12524SOL    HW239470  11.466  11.567   6.725
12525SOL     OW39471   5.990   4.023  11.699
12525SOL    HW139472   5.930   4.051  11.767
12525SOL    HW239473   6.040   4.102  11.677
12526SOL     OW39474   9.367  12.696   5.834
12526SOL    HW139475   9.388  12.667   5.745
12526SOL    HW239476   9.450  12.688   5.882
12527SOL     OW39477   7.166   2.371  11.745
12527SOL    HW139478   7.156   2.437  11.813
12527SOL    HW239479   7.172   2.422  11.664
12528SOL     OW39480   9.019  10.641   4.790
12528SOL    HW139481   8.958  10.659   4.718
12528SOL    HW239482   9.102  10.679   4.761
12529SOL     OW39483   4.081  10.847  14.351
12529SOL    HW139484   4.086  10.874  14.442
12529SOL    HW239485   4.010  10.783  14.349
12530SOL     OW39486  13.899   1.754  11.620
12530SOL    HW139487  13.920   1.828  11.677
12530SOL    HW239488  13.865   1.793  11.540
12531SOL     OW39489   2.957   4.228   3.760
12531SOL    HW139490   2.898   4.153   3.762
12531SOL    HW239491   3.029   4.204   3.818
12532SOL     OW39492   8.392   4.591   5.207
12532SOL    HW139493   8.405   4.682   5.179
12532SOL    HW239494   8.343   4.551   5.135
12533SOL     OW39495  11.917   3.499  12.513
12533SOL    HW139496  11.964   3.540  12.441
12533SOL    HW239497  11.842   3.556  12.528
12534SOL     OW39498  14.297   5.993  10.509
12534SOL    HW139499  14.244   6.072  10.517
12534SOL    HW239500  14.234   5.924  10.488
12535SOL     OW39501  11.798   2.289   3.625
12535SOL    HW139502  11.894   2.286   3.624
12535SOL    HW239503  11.775   2.333   3.543
12536SOL     OW39504   6.628   1.624   9.562
12536SOL    HW139505   6.697   1.559   9.553
12536SOL    HW239506   6.608   1.652   9.473
12537SOL     OW39507   6.163  13.596   9.460
12537SOL    HW139508   6.152  13.657   9.533
12537SOL    HW239509   6.257  13.598   9.443
12538SOL     OW39510   6.347   8.632   6.091
12538SOL    HW139511   6.433   8.616   6.130
12538SOL    HW239512   6.302   8.548   6.096
12539SOL     OW39513  14.360   4.008   5.840
12539SOL    HW139514  14.386   3.933   5.893
12539SOL    HW239515  14.303   3.970   5.773
12540SOL     OW39516  12.901   6.282   9.184
12540SOL    HW139517  12.960   6.223   9.230
12540SOL    HW239518  12.859   6.333   9.253
12541SOL     OW39519   6.390  13.162  13.581
12541SOL    HW139520   6.331  13.221  13.534
12541SOL    HW239521   6.436  13.218  13.643
12542SOL     OW39522   1.134   6.306   1.309
12542SOL    HW139523   1.126   6.397   1.281
12542SOL    HW239524   1.056   6.263   1.274
12543SOL     OW39525   4.279   0.078   1.525
12543SOL    HW139526   4.356   0.025   1.546
12543SOL    HW239527   4.239   0.034   1.450
12544SOL     OW39528   0.319   1.673  14.576
12544SOL    HW139529   0.224   1.687  14.571
12544SOL    HW239530   0.348   1.735  14.642
12545SOL     OW39531   3.897   7.578  12.584
12545SOL    HW139532   3.899   7.600  12.677
12545SOL    HW239533   3.985   7.599  12.553
12546SOL     OW39534   0.384   8.286  11.830
12546SOL    HW139535   0.460   8.344  11.841
12546SOL    HW239536   0.312   8.344  11.808
12547SOL     OW39537   8.379   1.957   5.253
12547SOL    HW139538   8.298   2.008   5.244
12547SOL    HW239539   8.448   2.017   5.227
12548SOL     OW39540  13.421  10.920  14.763
12548SOL    HW139541  13.335  10.948  14.796
12548SOL    HW239542  13.433  10.971  14.683
12549SOL     OW39543  13.995  10.910  11.927
12549SOL    HW139544  13.992  10.818  11.951
12549SOL    HW239545  13.927  10.951  11.981
12550SOL     OW39546   5.538   7.964   0.469
12550SOL    HW139547   5.628   7.947   0.441
12550SOL    HW239548   5.544   7.978   0.564
12551SOL     OW39549   1.694   7.719   9.691
12551SOL    HW139550   1.735   7.653   9.747
12551SOL    HW239551   1.601   7.711   9.709
12552SOL     OW39552   2.118  11.532   8.007
12552SOL    HW139553   2.148  11.507   7.919
12552SOL    HW239554   2.066  11.611   7.993
12553SOL     OW39555  12.546   6.522  13.050
12553SOL    HW139556  12.509   6.436  13.032
12553SOL    HW239557  12.587   6.548  12.967
12554SOL     OW39558  14.127  14.383   6.551
12554SOL    HW139559  14.126  14.462   6.496
12554SOL    HW239560  14.124  14.311   6.488
12555SOL     OW39561   2.764   7.171   6.670
12555SOL    HW139562   2.796   7.081   6.659
12555SOL    HW239563   2.829   7.213   6.725
12556SOL     OW39564  14.593  12.412  13.889
12556SOL    HW139565  14.535  12.381  13.820
12556SOL    HW239566  14.535  12.448  13.956
12557SOL     OW39567   4.411  12.996   8.637
12557SOL    HW139568   4.323  12.977   8.668
12557SOL    HW239569   4.466  12.929   8.679
12558SOL     OW39570  14.824   1.159   9.092
12558SOL    HW139571  14.859   1.106   9.163
12558SOL    HW239572  14.729   1.148   9.098
12559SOL     OW39573  10.188   2.866   1.018
12559SOL    HW139574  10.115   2.905   1.066
12559SOL    HW239575  10.261   2.866   1.080
12560SOL     OW39576  10.649   7.233   6.134
12560SOL    HW139577  10.615   7.321   6.116
12560SOL    HW239578  10.586   7.174   6.093
12561SOL     OW39579   3.612   9.567  10.317
12561SOL    HW139580   3.597   9.476  10.294
12561SOL    HW239581   3.708   9.575  10.325
12562SOL     OW39582  13.241   2.461   0.361
12562SOL    HW139583  13.249   2.390   0.297
12562SOL    HW239584  13.148   2.464   0.381
12563SOL     OW39585   0.271   5.596  11.645
12563SOL    HW139586   0.347   5.621  11.593
12563SOL    HW239587   0.235   5.679  11.677
12564SOL     OW39588   0.872   4.241   8.027
12564SOL    HW139589   0.931   4.285   8.087
12564SOL    HW239590   0.839   4.166   8.076
12565SOL     OW39591   3.562   1.323  10.577
12565SOL    HW139592   3.571   1.228  10.569
12565SOL    HW239593   3.640   1.358  10.534
12566SOL     OW39594   3.725  10.472   5.447
12566SOL    HW139595   3.739  10.514   5.362
12566SOL    HW239596   3.685  10.540   5.501
12567SOL     OW39597   4.880   7.561   5.682
12567SOL    HW139598   4.947   7.499   5.711
12567SOL    HW239599   4.816   7.562   5.753
12568SOL     OW39600  12.019   5.470   5.682
12568SOL    HW139601  12.027   5.378   5.655
12568SOL    HW239602  11.954   5.469   5.752
12569SOL     OW39603   0.873   1.782   3.313
12569SOL    HW139604   0.840   1.748   3.230
12569SOL    HW239605   0.794   1.808   3.361
12570SOL     OW39606   3.922  14.688  12.678
12570SOL    HW139607   3.895  14.652  12.762
12570SOL    HW239608   3.893  14.624  12.613
12571SOL     OW39609   6.684   9.947  14.266
12571SOL    HW139610   6.701   9.956  14.360
12571SOL    HW239611   6.666  10.036  14.236
12572SOL     OW39612   4.001   7.471   4.006
12572SOL    HW139613   3.990   7.529   3.931
12572SOL    HW239614   4.043   7.393   3.970
12573SOL     OW39615   9.750  12.742  12.034
12573SOL    HW139616   9.710  12.744  12.122
12573SOL    HW239617   9.767  12.834  12.014
12574SOL     OW39618  11.279   4.470   1.999
12574SOL    HW139619  11.350   4.474   1.934
12574SOL    HW239620  11.199   4.469   1.947
12575SOL     OW39621  10.868   1.087   2.487
12575SOL    HW139622  10.819   1.069   2.567
12575SOL    HW239623  10.817   1.155   2.443
12576SOL     OW39624  11.260  12.810   8.874
12576SOL    HW139625  11.270  12.851   8.789
12576SOL    HW239626  11.347  12.815   8.914
12577SOL     OW39627   2.774   6.590   7.981
12577SOL    HW139628   2.771   6.494   7.989
12577SOL    HW239629   2.855   6.615   8.025
12578SOL     OW39630   5.158   0.355   0.088
12578SOL    HW139631   5.092   0.297   0.048
12578SOL    HW239632   5.191   0.407   0.015
12579SOL     OW39633   7.667  13.037   7.615
12579SOL    HW139634   7.633  13.035   7.526
12579SOL    HW239635   7.620  13.109   7.657
12580SOL     OW39636   9.371  12.377   3.213
12580SOL    HW139637   9.403  12.384   3.124
12580SOL    HW239638   9.323  12.294   3.215
12581SOL     OW39639  14.121   3.708   5.422
12581SOL    HW139640  14.043   3.734   5.374
12581SOL    HW239641  14.194   3.727   5.363
12582SOL     OW39642  14.748  12.889  14.687
12582SOL    HW139643  14.687  12.914  14.618
12582SOL    HW239644  14.735  12.954  14.755
12583SOL     OW39645   0.740   5.460  12.128
12583SOL    HW139646   0.791   5.469  12.048
12583SOL    HW239647   0.723   5.550  12.157
12584SOL     OW39648   7.965   7.134  11.208
12584SOL    HW139649   7.988   7.044  11.230
12584SOL    HW239650   8.016   7.153  11.129
12585SOL     OW39651   8.755   4.389  12.231
12585SOL    HW139652   8.827   4.339  12.269
12585SOL    HW239653   8.704   4.418  12.307
12586SOL     OW39654  13.116   1.631   3.563
12586SOL    HW139655  13.136   1.621   3.470
12586SOL    HW239656  13.191   1.678   3.599
12587SOL     OW39657  11.518  10.005   3.293
12587SOL    HW139658  11.500   9.948   3.368
12587SOL    HW239659  11.599   9.969   3.255
12588SOL     OW39660  12.588   3.096  14.350
12588SOL    HW139661  12.503   3.130  14.321
12588SOL    HW239662  12.579   3.085  14.445
12589SOL     OW39663   1.513  14.007   2.726
12589SOL    HW139664   1.530  13.946   2.798
12589SOL    HW239665   1.585  14.069   2.729
12590SOL     OW39666   9.235   2.174   5.609
12590SOL    HW139667   9.168   2.238   5.633
12590SOL    HW239668   9.318   2.222   5.618
12591SOL     OW39669   9.507   9.014  13.800
12591SOL    HW139670   9.463   9.077  13.743
12591SOL    HW239671   9.436   8.958  13.832
12592SOL     OW39672  14.041   9.688   1.367
12592SOL    HW139673  14.045   9.624   1.438
12592SOL    HW239674  13.986   9.647   1.300
12593SOL     OW39675  12.141   0.879  14.460
12593SOL    HW139676  12.118   0.830  14.381
12593SOL    HW239677  12.143   0.970  14.433
12594SOL     OW39678  10.407  10.271  12.491
12594SOL    HW139679  10.328  10.257  12.440
12594SOL    HW239680  10.398  10.360  12.525
12595SOL     OW39681   8.982  13.125   3.253
12595SOL    HW139682   9.009  13.059   3.317
12595SOL    HW239683   9.054  13.130   3.191
12596SOL     OW39684   1.906   2.169   5.187
12596SOL    HW139685   1.995   2.204   5.193
12596SOL    HW239686   1.877   2.194   5.099
12597SOL     OW39687  10.489   8.183   7.593
12597SOL    HW139688  10.460   8.172   7.684
12597SOL    HW239689  10.411   8.163   7.542
12598SOL     OW39690   1.620  13.926   9.692
12598SOL    HW139691   1.590  14.012   9.665
12598SOL    HW239692   1.688  13.903   9.630
12599SOL     OW39693   4.165   0.787  12.459
12599SOL    HW139694   4.214   0.706  12.448
12599SOL    HW239695   4.119   0.799  12.376
12600SOL     OW39696   1.136   7.399   4.657
12600SOL    HW139697   1.127   7.449   4.576
12600SOL    HW239698   1.205   7.444   4.706
12601SOL     OW39699   4.528  12.289   0.627
12601SOL    HW139700   4.543  12.333   0.544
12601SOL    HW239701   4.442  12.248   0.618
12602SOL     OW39702   8.552  12.268   6.745
12602SOL    HW139703   8.507  12.350   6.724
12602SOL    HW239704   8.483  12.210   6.778
12603SOL     OW39705   5.298  10.647  13.475
12603SOL    HW139706   5.365  10.630  13.542
12603SOL    HW239707   5.230  10.696  13.521
12604SOL     OW39708   2.587  11.487   6.009
12604SOL    HW139709   2.522  11.533   5.955
12604SOL    HW239710   2.650  11.554   6.034
12605SOL     OW39711  12.252   4.547   3.084
12605SOL    HW139712  12.200   4.481   3.130
12605SOL    HW239713  12.217   4.547   2.995
12606SOL     OW39714   6.047   4.628  12.505
12606SOL    HW139715   6.052   4.676  12.588
12606SOL    HW239716   5.957   4.642  12.475
12607SOL     OW39717  12.632   1.370  10.967
12607SOL    HW139718  12.659   1.279  10.973
12607SOL    HW239719  12.698   1.411  10.911
12608SOL     OW39720  10.649   9.030   7.564
12608SOL    HW139721  10.620   8.939   7.558
12608SOL    HW239722  10.634   9.054   7.655
12609SOL     OW39723   1.504   1.913   3.335
12609SOL    HW139724   1.453   1.992   3.351
12609SOL    HW239725   1.592   1.946   3.316
12610SOL     OW39726   1.328   0.501   2.689
12610SOL    HW139727   1.387   0.560   2.641
12610SOL    HW239728   1.352   0.512   2.781
12611SOL     OW39729   8.111   4.193   7.063
12611SOL    HW139730   8.186   4.253   7.054
12611SOL    HW239731   8.035   4.248   7.045
12612SOL     OW39732  11.292  11.166  10.129
12612SOL    HW139733  11.273  11.081  10.168
12612SOL    HW239734  11.352  11.208  10.190
12613SOL     OW39735  12.417   4.345   1.188
12613SOL    HW139736  12.409   4.438   1.210
12613SOL    HW239737  12.328   4.319   1.165
12614SOL     OW39738   9.848   5.450   8.410
12614SOL    HW139739   9.940   5.473   8.423
12614SOL    HW239740   9.827   5.393   8.484
12615SOL     OW39741  10.413   0.160  13.520
12615SOL    HW139742  10.423   0.160  13.424
12615SOL    HW239743  10.323   0.189  13.535
12616SOL     OW39744   4.086   8.321   9.848
12616SOL    HW139745   4.113   8.262   9.778
12616SOL    HW239746   4.145   8.300   9.921
12617SOL     OW39747  13.007   8.982   4.482
12617SOL    HW139748  12.975   9.052   4.426
12617SOL    HW239749  12.935   8.919   4.486
12618SOL     OW39750   6.721   2.130  13.577
12618SOL    HW139751   6.705   2.071  13.651
12618SOL    HW239752   6.638   2.132  13.529
12619SOL     OW39753  14.028   6.804  12.398
12619SOL    HW139754  14.081   6.880  12.374
12619SOL    HW239755  14.082   6.755  12.460
12620SOL     OW39756   6.207  11.298   9.029
12620SOL    HW139757   6.154  11.371   8.995
12620SOL    HW239758   6.202  11.231   8.960
12621SOL     OW39759   4.225   6.833   6.346
12621SOL    HW139760   4.205   6.754   6.396
12621SOL    HW239761   4.169   6.900   6.384
12622SOL     OW39762   7.105   4.946  13.641
12622SOL    HW139763   7.174   4.880  13.652
12622SOL    HW239764   7.023   4.896  13.647
12623SOL     OW39765   5.674   2.815   6.769
12623SOL    HW139766   5.643   2.765   6.694
12623SOL    HW239767   5.684   2.750   6.839
12624SOL     OW39768   8.633  14.006   4.913
12624SOL    HW139769   8.681  14.044   4.840
12624SOL    HW239770   8.622  13.914   4.889
12625SOL     OW39771   1.418   2.776   4.869
12625SOL    HW139772   1.395   2.735   4.952
12625SOL    HW239773   1.411   2.705   4.804
12626SOL     OW39774   5.166   3.235   7.768
12626SOL    HW139775   5.226   3.309   7.772
12626SOL    HW239776   5.152   3.211   7.859
12627SOL     OW39777   0.050  10.229   2.623
12627SOL    HW139778  14.830  10.229   2.591
12627SOL    HW239779   0.063  10.315   2.662
12628SOL     OW39780  14.169   0.864   8.173
12628SOL    HW139781  14.114   0.942   8.168
12628SOL    HW239782  14.249   0.888   8.126
12629SOL     OW39783   7.604   0.508   8.709
12629SOL    HW139784   7.635   0.598   8.714
12629SOL    HW239785   7.545   0.507   8.633
12630SOL     OW39786   8.215   0.668   2.002
12630SOL    HW139787   8.224   0.763   1.996
12630SOL    HW239788   8.290   0.634   1.953
12631SOL     OW39789   6.867   0.903   6.428
12631SOL    HW139790   6.831   0.868   6.510
12631SOL    HW239791   6.915   0.981   6.455
12632SOL     OW39792  11.078   9.592   2.845
12632SOL    HW139793  11.119   9.505   2.842
12632SOL    HW239794  11.149   9.653   2.823
12633SOL     OW39795  13.402  13.127  14.767
12633SOL    HW139796  13.320  13.118  14.719
12633SOL    HW239797  13.469  13.103  14.703
12634SOL     OW39798  12.988   4.182   3.139
12634SOL    HW139799  12.905   4.190   3.187
12634SOL    HW239800  13.020   4.094   3.162
12635SOL     OW39801  12.380  11.955   9.392
12635SOL    HW139802  12.425  12.015   9.452
12635SOL    HW239803  12.298  12.000   9.371
12636SOL     OW39804   2.829  11.769   5.311
12636SOL    HW139805   2.885  11.762   5.234
12636SOL    HW239806   2.874  11.830   5.369
12637SOL     OW39807   9.681   9.745  14.176
12637SOL    HW139808   9.591   9.757  14.207
12637SOL    HW239809   9.704   9.828  14.136
12638SOL     OW39810  11.564  10.635  11.013
12638SOL    HW139811  11.648  10.601  11.045
12638SOL    HW239812  11.573  10.636  10.918
12639SOL     OW39813   2.347   4.231  12.891
12639SOL    HW139814   2.383   4.257  12.976
12639SOL    HW239815   2.411   4.262  12.827
12640SOL     OW39816   8.035   5.343  10.119
12640SOL    HW139817   8.080   5.272  10.073
12640SOL    HW239818   8.104   5.405  10.143
12641SOL     OW39819  10.669   1.877   1.279
12641SOL    HW139820  10.634   1.919   1.357
12641SOL    HW239821  10.749   1.925   1.259
12642SOL     OW39822  12.984  13.155   8.704
12642SOL    HW139823  12.950  13.244   8.712
12642SOL    HW239824  13.033  13.140   8.785
12643SOL     OW39825   2.145  11.746  13.549
12643SOL    HW139826   2.121  11.732  13.457
12643SOL    HW239827   2.066  11.779  13.590
12644SOL     OW39828  11.879  10.887   3.095
12644SOL    HW139829  11.787  10.865   3.114
12644SOL    HW239830  11.925  10.867   3.176
12645SOL     OW39831  12.088   8.378  14.759
12645SOL    HW139832  12.034   8.441  14.805
12645SOL    HW239833  12.026   8.325  14.708
12646SOL     OW39834   3.528  10.712  13.100
12646SOL    HW139835   3.601  10.693  13.041
12646SOL    HW239836   3.452  10.719  13.043
12647SOL     OW39837   5.315   6.774   4.119
12647SOL    HW139838   5.351   6.726   4.194
12647SOL    HW239839   5.225   6.796   4.144
12648SOL     OW39840   3.684  11.251  12.288
12648SOL    HW139841   3.638  11.263  12.205
12648SOL    HW239842   3.751  11.185  12.270
12649SOL     OW39843   1.297   0.948   5.768
12649SOL    HW139844   1.340   1.023   5.726
12649SOL    HW239845   1.208   0.950   5.735
12650SOL     OW39846   9.886   6.980  11.486
12650SOL    HW139847   9.849   6.901  11.447
12650SOL    HW239848   9.896   6.959  11.579
12651SOL     OW39849   5.259  13.550  10.169
12651SOL    HW139850   5.177  13.563  10.217
12651SOL    HW239851   5.325  13.537  10.237
12652SOL     OW39852   4.974   7.349   5.892
12652SOL    HW139853   4.932   7.368   5.977
12652SOL    HW239854   5.046   7.291   5.914
12653SOL     OW39855   4.830  13.307   3.829
12653SOL    HW139856   4.890  13.234   3.816
12653SOL    HW239857   4.796  13.296   3.918
12654SOL     OW39858   8.629   0.540   5.055
12654SOL    HW139859   8.672   0.625   5.066
12654SOL    HW239860   8.630   0.501   5.142
12655SOL     OW39861   0.700  13.534  14.497
12655SOL    HW139862   0.737  13.621  14.505
12655SOL    HW239863   0.606  13.548  14.485
12656SOL     OW39864   7.835   3.208   0.488
12656SOL    HW139865   7.914   3.231   0.439
12656SOL    HW239866   7.819   3.116   0.467
12657SOL     OW39867   8.889   7.053  14.531
12657SOL    HW139868   8.952   6.992  14.493
12657SOL    HW239869   8.841   7.001  14.595
12658SOL     OW39870  10.234   5.462   4.897
12658SOL    HW139871  10.159   5.501   4.853
12658SOL    HW239872  10.202   5.441   4.985
12659SOL     OW39873   3.320   0.055   4.038
12659SOL    HW139874   3.320  14.841   4.084
12659SOL    HW239875   3.277   0.036   3.954
12660SOL     OW39876   8.542   0.767  13.519
12660SOL    HW139877   8.543   0.728  13.432
12660SOL    HW239878   8.515   0.696  13.577
12661SOL     OW39879   0.551   9.706  14.392
12661SOL    HW139880   0.509   9.781  14.434
12661SOL    HW239881   0.602   9.665  14.462
12662SOL     OW39882   1.838  11.838  10.109
12662SOL    HW139883   1.899  11.806  10.176
12662SOL    HW239884   1.832  11.766  10.046
12663SOL     OW39885   5.059   4.065   7.929
12663SOL    HW139886   4.967   4.068   7.904
12663SOL    HW239887   5.077   4.153   7.964
12664SOL     OW39888   6.110  10.188   1.602
12664SOL    HW139889   6.028  10.236   1.590
12664SOL    HW239890   6.129  10.149   1.517
12665SOL     OW39891   0.846   7.112   6.440
12665SOL    HW139892   0.786   7.152   6.377
12665SOL    HW239893   0.815   7.141   6.525
12666SOL     OW39894  13.069   6.620   7.497
12666SOL    HW139895  13.106   6.533   7.516
12666SOL    HW239896  12.975   6.609   7.510
12667SOL     OW39897   7.154   2.611  13.629
12667SOL    HW139898   7.210   2.563  13.689
12667SOL    HW239899   7.075   2.557  13.620
12668SOL     OW39900  14.680   2.164   7.612
12668SOL    HW139901  14.604   2.118   7.647
12668SOL    HW239902  14.754   2.108   7.634
12669SOL     OW39903  13.258   6.035  14.625
12669SOL    HW139904  13.225   5.946  14.616
12669SOL    HW239905  13.293   6.039  14.714
12670SOL     OW39906   4.588  10.624   9.249
12670SOL    HW139907   4.640  10.608   9.170
12670SOL    HW239908   4.652  10.649   9.315
12671SOL     OW39909   1.448   6.876  12.725
12671SOL    HW139910   1.442   6.932  12.648
12671SOL    HW239911   1.541   6.870  12.744
12672SOL     OW39912   8.182   6.259  13.980
12672SOL    HW139913   8.196   6.285  13.890
12672SOL    HW239914   8.255   6.200  14.000
12673SOL     OW39915   3.640  11.493  12.439
12673SOL    HW139916   3.710  11.554  12.416
12673SOL    HW239917   3.659  11.415  12.387
12674SOL     OW39918  14.495   6.896  10.730
12674SOL    HW139919  14.425   6.885  10.795
12674SOL    HW239920  14.572   6.921  10.782
12675SOL     OW39921  13.342   7.071   2.253
12675SOL    HW139922  13.343   7.017   2.173
12675SOL    HW239923  13.381   7.014   2.320
12676SOL     OW39924  13.902   6.037   4.570
12676SOL    HW139925  13.939   5.957   4.535
12676SOL    HW239926  13.956   6.107   4.532
12677SOL     OW39927   7.601   5.849   9.910
12677SOL    HW139928   7.572   5.803   9.831
12677SOL    HW239929   7.529   5.908   9.931
12678SOL     OW39930   2.760   1.713   5.675
12678SOL    HW139931   2.817   1.676   5.742
12678SOL    HW239932   2.740   1.801   5.706
12679SOL     OW39933   4.588   1.900   8.011
12679SOL    HW139934   4.573   1.813   8.050
12679SOL    HW239935   4.671   1.929   8.049
12680SOL     OW39936   0.189   8.164   6.192
12680SOL    HW139937   0.208   8.179   6.099
12680SOL    HW239938   0.131   8.236   6.216
12681SOL     OW39939   6.560   8.371  11.745
12681SOL    HW139940   6.495   8.398  11.810
12681SOL    HW239941   6.510   8.322  11.680
12682SOL     OW39942   8.245   9.899   9.800
12682SOL    HW139943   8.252   9.949   9.719
12682SOL    HW239944   8.167   9.843   9.788
12683SOL     OW39945  10.869   3.765   0.428
12683SOL    HW139946  10.781   3.795   0.407
12683SOL    HW239947  10.926   3.834   0.394
12684SOL     OW39948  13.002   3.831  14.453
12684SOL    HW139949  13.095   3.823  14.475
12684SOL    HW239950  12.962   3.751  14.489
12685SOL     OW39951   0.679   2.761  10.695
12685SOL    HW139952   0.707   2.817  10.767
12685SOL    HW239953   0.632   2.689  10.737
12686SOL     OW39954   1.102   9.127   8.235
12686SOL    HW139955   1.015   9.124   8.195
12686SOL    HW239956   1.101   9.207   8.288
12687SOL     OW39957  12.729   5.989   2.802
12687SOL    HW139958  12.668   5.915   2.799
12687SOL    HW239959  12.674   6.065   2.822
12688SOL     OW39960   3.265  14.057   6.410
12688SOL    HW139961   3.348  14.101   6.389
12688SOL    HW239962   3.250  14.076   6.502
12689SOL     OW39963   5.223  11.130   9.235
12689SOL    HW139964   5.233  11.225   9.222
12689SOL    HW239965   5.163  11.122   9.309
12690SOL     OW39966  10.695   4.619  11.104
12690SOL    HW139967  10.777   4.598  11.147
12690SOL    HW239968  10.713   4.700  11.057
12691SOL     OW39969  11.467   9.735   9.339
12691SOL    HW139970  11.412   9.675   9.287
12691SOL    HW239971  11.443   9.716   9.430
12692SOL     OW39972   1.807   3.746   5.574
12692SOL    HW139973   1.754   3.815   5.536
12692SOL    HW239974   1.744   3.678   5.600
12693SOL     OW39975  11.692   4.910   5.822
12693SOL    HW139976  11.747   4.972   5.775
12693SOL    HW239977  11.614   4.961   5.844
12694SOL     OW39978  12.378  12.981   7.742
12694SOL    HW139979  12.425  13.037   7.803
12694SOL    HW239980  12.431  12.981   7.663
12695SOL     OW39981   5.583  13.346   5.662
12695SOL    HW139982   5.541  13.396   5.733
12695SOL    HW239983   5.670  13.385   5.654
12696SOL     OW39984   3.827  14.564   0.659
12696SOL    HW139985   3.921  14.583   0.660
12696SOL    HW239986   3.786  14.643   0.693
12697SOL     OW39987   9.770  10.774  14.025
12697SOL    HW139988   9.778  10.788  14.120
12697SOL    HW239989   9.743  10.859  13.990
12698SOL     OW39990   8.669   0.283   2.924
12698SOL    HW139991   8.734   0.325   2.867
12698SOL    HW239992   8.589   0.280   2.871
12699SOL     OW39993   9.931   1.207  10.180
12699SOL    HW139994   9.864   1.226  10.114
12699SOL    HW239995   9.888   1.225  10.264
12700SOL     OW39996   3.904   3.486   7.135
12700SOL    HW139997   3.861   3.405   7.161
12700SOL    HW239998   3.968   3.459   7.069
12701SOL     OW39999   5.142   0.372   9.219
12701SOL    HW140000   5.140   0.296   9.276
12701SOL    HW240001   5.101   0.343   9.138
12702SOL     OW40002   6.502   0.325   1.217
12702SOL    HW140003   6.446   0.284   1.151
12702SOL    HW240004   6.450   0.324   1.297
12703SOL     OW40005   9.644   1.846  10.784
12703SOL    HW140006   9.714   1.813  10.840
12703SOL    HW240007   9.596   1.908  10.841
12704SOL     OW40008   6.749  11.154   6.214
12704SOL    HW140009   6.719  11.109   6.135
12704SOL    HW240010   6.698  11.236   6.215
12705SOL     OW40011   3.156   4.347   4.122
12705SOL    HW140012   3.132   4.435   4.094
12705SOL    HW240013   3.124   4.290   4.052
12706SOL     OW40014   5.606  14.651   8.848
12706SOL    HW140015   5.514  14.652   8.877
12706SOL    HW240016   5.632  14.559   8.858
12707SOL     OW40017   4.018   2.156   9.330
12707SOL    HW140018   4.074   2.228   9.300
12707SOL    HW240019   4.063   2.122   9.407
12708SOL     OW40020   2.386  13.649   1.635
12708SOL    HW140021   2.391  13.710   1.709
12708SOL    HW240022   2.403  13.563   1.675
12709SOL     OW40023   7.092   4.488   0.612
12709SOL    HW140024   7.048   4.500   0.528
12709SOL    HW240025   7.046   4.414   0.652
12710SOL     OW40026   3.059   6.801   2.347
12710SOL    HW140027   3.023   6.882   2.383
12710SOL    HW240028   2.989   6.767   2.291
12711SOL     OW40029   0.150   8.070   8.016
12711SOL    HW140030   0.129   7.996   8.073
12711SOL    HW240031   0.241   8.056   7.990
12712SOL     OW40032   7.616   3.489   8.313
12712SOL    HW140033   7.674   3.417   8.339
12712SOL    HW240034   7.667   3.568   8.329
12713SOL     OW40035  10.801  14.223   5.882
12713SOL    HW140036  10.817  14.130   5.866
12713SOL    HW240037  10.777  14.228   5.975
12714SOL     OW40038   3.087  13.867  10.403
12714SOL    HW140039   3.178  13.892  10.420
12714SOL    HW240040   3.046  13.947  10.371
12715SOL     OW40041   0.171   2.135   9.948
12715SOL    HW140042   0.130   2.147  10.033
12715SOL    HW240043   0.170   2.223   9.909
12716SOL     OW40044   0.897   3.200  10.983
12716SOL    HW140045   0.933   3.127  11.033
12716SOL    HW240046   0.871   3.264  11.049
12717SOL     OW40047  12.539   7.616   6.001
12717SOL    HW140048  12.473   7.678   5.969
12717SOL    HW240049  12.493   7.564   6.067
12718SOL     OW40050  11.077  12.200   6.841
12718SOL    HW140051  11.013  12.211   6.771
12718SOL    HW240052  11.062  12.111   6.874
12719SOL     OW40053   6.451   2.710   8.083
12719SOL    HW140054   6.453   2.686   7.990
12719SOL    HW240055   6.362   2.689   8.112
12720SOL     OW40056  11.842   4.135  13.475
12720SOL    HW140057  11.895   4.126  13.397
12720SOL    HW240058  11.876   4.069  13.536
12721SOL     OW40059  12.828  10.557   2.038
12721SOL    HW140060  12.741  10.519   2.052
12721SOL    HW240061  12.850  10.596   2.122
12722SOL     OW40062  10.841  14.452  14.836
12722SOL    HW140063  10.924  14.405  14.847
12722SOL    HW240064  10.804  14.416  14.755
12723SOL     OW40065   7.848   2.301  14.398
12723SOL    HW140066   7.903   2.363  14.351
12723SOL    HW240067   7.808   2.248  14.329
12724SOL     OW40068   9.547   6.035   2.945
12724SOL    HW140069   9.463   6.035   2.900
12724SOL    HW240070   9.543   6.110   3.005
12725SOL     OW40071   6.074   6.816  14.303
12725SOL    HW140072   5.986   6.848  14.321
12725SOL    HW240073   6.097   6.855  14.219
12726SOL     OW40074  10.497   7.047   1.230
12726SOL    HW140075  10.435   6.980   1.201
12726SOL    HW240076  10.460   7.129   1.198
12727SOL     OW40077  10.440  13.710   1.685
12727SOL    HW140078  10.452  13.693   1.779
12727SOL    HW240079  10.443  13.624   1.644
12728SOL     OW40080  13.481   1.259   6.656
12728SOL    HW140081  13.435   1.246   6.739
12728SOL    HW240082  13.573   1.264   6.681
12729SOL     OW40083   2.498   0.599   2.840
12729SOL    HW140084   2.530   0.629   2.755
12729SOL    HW240085   2.418   0.649   2.855
12730SOL     OW40086   5.560   5.015   7.897
12730SOL    HW140087   5.582   5.108   7.903
12730SOL    HW240088   5.548   4.986   7.987
12731SOL     OW40089  13.052   7.740   4.527
12731SOL    HW140090  13.135   7.785   4.512
12731SOL    HW240091  13.075   7.665   4.581
12732SOL     OW40092   5.424   1.274   3.284
12732SOL    HW140093   5.436   1.368   3.269
12732SOL    HW240094   5.470   1.257   3.366
12733SOL     OW40095   1.350   4.906  12.861
12733SOL    HW140096   1.331   4.812  12.863
12733SOL    HW240097   1.433   4.912  12.815
12734SOL     OW40098  13.017  11.693  13.826
12734SOL    HW140099  12.951  11.749  13.785
12734SOL    HW240100  13.031  11.733  13.912
12735SOL     OW40101  14.546   8.460  14.473
12735SOL    HW140102  14.455   8.444  14.495
12735SOL    HW240103  14.556   8.425  14.385
12736SOL     OW40104   5.212   0.354   8.096
12736SOL    HW140105   5.130   0.306   8.088
12736SOL    HW240106   5.244   0.333   8.183
12737SOL     OW40107   5.885   1.813   0.048
12737SOL    HW140108   5.816   1.875   0.022
12737SOL    HW240109   5.840   1.748   0.101
12738SOL     OW40110   7.840   3.725   7.292
12738SOL    HW140111   7.926   3.749   7.259
12738SOL    HW240112   7.791   3.807   7.292
12739SOL     OW40113   6.353   0.860  14.689
12739SOL    HW140114   6.437   0.877  14.646
12739SOL    HW240115   6.290   0.912  14.639
12740SOL     OW40116   8.855   9.397  14.396
12740SOL    HW140117   8.882   9.426  14.309
12740SOL    HW240118   8.811   9.313  14.380
12741SOL     OW40119   3.048  12.965   4.568
12741SOL    HW140120   3.025  13.009   4.486
12741SOL    HW240121   2.977  12.903   4.582
12742SOL     OW40122   5.081   9.549   4.250
12742SOL    HW140123   5.033   9.630   4.267
12742SOL    HW240124   5.171   9.568   4.276
12743SOL     OW40125   4.213   5.579   0.517
12743SOL    HW140126   4.275   5.612   0.581
12743SOL    HW240127   4.266   5.529   0.455
12744SOL     OW40128   0.666   5.685  13.578
12744SOL    HW140129   0.667   5.769  13.532
12744SOL    HW240130   0.696   5.622  13.513
12745SOL     OW40131   3.155   3.640   8.112
12745SOL    HW140132   3.210   3.603   8.181
12745SOL    HW240133   3.079   3.583   8.108
12746SOL     OW40134   0.661   2.320   5.131
12746SOL    HW140135   0.682   2.277   5.214
12746SOL    HW240136   0.613   2.398   5.155
12747SOL     OW40137  13.019  10.938  13.800
12747SOL    HW140138  12.964  10.980  13.866
12747SOL    HW240139  13.082  11.005  13.774
12748SOL     OW40140  10.736   3.791   0.855
12748SOL    HW140141  10.779   3.728   0.912
12748SOL    HW240142  10.744   3.875   0.902
12749SOL     OW40143   2.949   5.709  11.881
12749SOL    HW140144   2.863   5.709  11.839
12749SOL    HW240145   3.005   5.659  11.821
12750SOL     OW40146  13.175  10.572   3.644
12750SOL    HW140147  13.224  10.590   3.724
12750SOL    HW240148  13.119  10.497   3.667
12751SOL     OW40149   1.825  13.576  14.277
12751SOL    HW140150   1.749  13.519  14.266
12751SOL    HW240151   1.878  13.560  14.199
12752SOL     OW40152   2.392   8.007   3.459
12752SOL    HW140153   2.310   8.056   3.452
12752SOL    HW240154   2.415   7.984   3.369
12753SOL     OW40155  14.679   9.070  10.433
12753SOL    HW140156  14.741   9.107  10.496
12753SOL    HW240157  14.680   9.131  10.359
12754SOL     OW40158   9.528   4.906   0.399
12754SOL    HW140159   9.608   4.879   0.355
12754SOL    HW240160   9.510   4.836   0.461
12755SOL     OW40161   2.911   6.736   2.808
12755SOL    HW140162   2.939   6.645   2.804
12755SOL    HW240163   2.990   6.786   2.784
12756SOL     OW40164   5.348   3.254  13.262
12756SOL    HW140165   5.343   3.279  13.355
12756SOL    HW240166   5.389   3.330  13.220
12757SOL     OW40167   3.321   8.281   8.586
12757SOL    HW140168   3.236   8.238   8.581
12757SOL    HW240169   3.353   8.281   8.496
12758SOL     OW40170  10.598  13.039   6.287
12758SOL    HW140171  10.544  12.991   6.349
12758SOL    HW240172  10.630  12.973   6.226
12759SOL     OW40173   8.532   7.247   1.624
12759SOL    HW140174   8.624   7.235   1.647
12759SOL    HW240175   8.533   7.308   1.550
12760SOL     OW40176   1.509   0.765  10.653
12760SOL    HW140177   1.458   0.767  10.572
12760SOL    HW240178   1.444   0.781  10.722
12761SOL     OW40179  13.518   5.567  12.947
12761SOL    HW140180  13.450   5.552  13.014
12761SOL    HW240181  13.528   5.662  12.945
12762SOL     OW40182   8.499  13.025   6.240
12762SOL    HW140183   8.405  13.025   6.220
12762SOL    HW240184   8.519  12.934   6.263
12763SOL     OW40185  13.272   0.188  14.364
12763SOL    HW140186  13.204   0.140  14.316
12763SOL    HW240187  13.330   0.223  14.296
12764SOL     OW40188   7.027   0.251   6.121
12764SOL    HW140189   7.006   0.253   6.214
12764SOL    HW240190   7.055   0.340   6.100
12765SOL     OW40191   5.021   7.221  12.218
12765SOL    HW140192   4.951   7.208  12.154
12765SOL    HW240193   5.071   7.295  12.183
12766SOL     OW40194   0.728   5.687   5.639
12766SOL    HW140195   0.768   5.730   5.715
12766SOL    HW240196   0.787   5.707   5.566
12767SOL     OW40197   0.535   9.796  13.143
12767SOL    HW140198   0.601   9.764  13.205
12767SOL    HW240199   0.561   9.756  13.060
12768SOL     OW40200   7.993   2.490   6.872
12768SOL    HW140201   7.950   2.500   6.787
12768SOL    HW240202   8.084   2.516   6.856
12769SOL     OW40203   9.657   4.844   5.679
12769SOL    HW140204   9.677   4.762   5.635
12769SOL    HW240205   9.587   4.822   5.741
12770SOL     OW40206   1.331   9.745   4.121
12770SOL    HW140207   1.241   9.713   4.119
12770SOL    HW240208   1.348   9.775   4.032
12771SOL     OW40209   5.539  10.701   2.995
12771SOL    HW140210   5.580  10.623   2.959
12771SOL    HW240211   5.446  10.680   3.000
12772SOL     OW40212   2.101  10.841   3.509
12772SOL    HW140213   2.107  10.868   3.601
12772SOL    HW240214   2.084  10.747   3.513
12773SOL     OW40215   3.516   2.094   2.784
12773SOL    HW140216   3.521   2.005   2.819
12773SOL    HW240217   3.447   2.136   2.835
12774SOL     OW40218  13.259   5.684  10.491
12774SOL    HW140219  13.296   5.771  10.508
12774SOL    HW240220  13.322   5.624  10.531
12775SOL     OW40221  10.053   8.414   7.755
12775SOL    HW140222  10.063   8.459   7.839
12775SOL    HW240223   9.971   8.366   7.764
12776SOL     OW40224   4.642   0.806   4.774
12776SOL    HW140225   4.627   0.743   4.703
12776SOL    HW240226   4.612   0.890   4.738
12777SOL     OW40227   0.021   3.419   8.342
12777SOL    HW140228  14.811   3.392   8.388
12777SOL    HW240229   0.069   3.471   8.407
12778SOL     OW40230   0.677   2.273  10.357
12778SOL    HW140231   0.625   2.345  10.392
12778SOL    HW240232   0.742   2.315  10.300
12779SOL     OW40233   2.090   7.979   3.982
12779SOL    HW140234   2.088   8.075   3.975
12779SOL    HW240235   2.000   7.955   4.001
12780SOL     OW40236  10.002  11.689  11.206
12780SOL    HW140237  10.027  11.775  11.174
12780SOL    HW240238  10.081  11.656  11.250
12781SOL     OW40239  11.477   0.360   3.683
12781SOL    HW140240  11.516   0.274   3.668
12781SOL    HW240241  11.385   0.341   3.702
12782SOL     OW40242   6.007   2.898   5.177
12782SOL    HW140243   6.081   2.923   5.232
12782SOL    HW240244   6.044   2.838   5.112
12783SOL     OW40245   5.735  11.249   9.797
12783SOL    HW140246   5.751  11.335   9.758
12783SOL    HW240247   5.756  11.186   9.728
12784SOL     OW40248   3.273  11.545  13.442
12784SOL    HW140249   3.262  11.469  13.499
12784SOL    HW240250   3.364  11.571  13.455
12785SOL     OW40251  13.201   0.557  13.714
12785SOL    HW140252  13.281   0.610  13.710
12785SOL    HW240253  13.133   0.618  13.741
12786SOL     OW40254   9.549  10.923  12.506
12786SOL    HW140255   9.552  10.920  12.411
12786SOL    HW240256   9.610  10.856  12.535
12787SOL     OW40257   0.029   9.060  12.512
12787SOL    HW140258   0.024   9.155  12.525
12787SOL    HW240259  14.860   9.045  12.426
12788SOL     OW40260   7.425  11.583   6.036
12788SOL    HW140261   7.461  11.564   5.950
12788SOL    HW240262   7.437  11.502   6.085
12789SOL     OW40263  10.324  12.976  11.700
12789SOL    HW140264  10.255  12.991  11.765
12789SOL    HW240265  10.369  12.897  11.730
12790SOL     OW40266   9.272   4.985   8.577
12790SOL    HW140267   9.295   5.039   8.652
12790SOL    HW240268   9.306   5.033   8.501
12791SOL     OW40269  14.232   0.408   6.652
12791SOL    HW140270  14.153   0.462   6.651
12791SOL    HW240271  14.280   0.433   6.573
12792SOL     OW40272  14.686   9.855   2.832
12792SOL    HW140273  14.644   9.778   2.794
12792SOL    HW240274  14.615   9.918   2.845
12793SOL     OW40275   0.828   9.094   9.349
12793SOL    HW140276   0.848   9.182   9.317
12793SOL    HW240277   0.735   9.083   9.332
12794SOL     OW40278   8.145   6.884   1.433
12794SOL    HW140279   8.091   6.962   1.442
12794SOL    HW240280   8.156   6.852   1.523
12795SOL     OW40281   8.239  12.438   3.903
12795SOL    HW140282   8.188  12.370   3.860
12795SOL    HW240283   8.246  12.508   3.839
12796SOL     OW40284   6.407  10.042   3.267
12796SOL    HW140285   6.386  10.051   3.174
12796SOL    HW240286   6.327  10.069   3.312
12797SOL     OW40287   4.179   0.003   1.292
12797SOL    HW140288   4.240  14.814   1.247
12797SOL    HW240289   4.193   0.088   1.250
12798SOL     OW40290   8.797  14.277   0.064
12798SOL    HW140291   8.818  14.369   0.078
12798SOL    HW240292   8.758  14.248   0.146
12799SOL     OW40293   4.699   0.447   1.263
12799SOL    HW140294   4.653   0.512   1.209
12799SOL    HW240295   4.629   0.397   1.304
12800SOL     OW40296  11.980   4.513   2.018
12800SOL    HW140297  11.945   4.429   2.048
12800SOL    HW240298  11.931   4.579   2.066
12801SOL     OW40299  12.780  13.053   7.698
12801SOL    HW140300  12.703  13.027   7.647
12801SOL    HW240301  12.763  13.144   7.723
12802SOL     OW40302   6.446  11.347   1.635
12802SOL    HW140303   6.432  11.360   1.729
12802SOL    HW240304   6.539  11.369   1.622
12803SOL     OW40305   3.096   6.322   6.791
12803SOL    HW140306   3.191   6.336   6.786
12803SOL    HW240307   3.082   6.236   6.752
12804SOL     OW40308   9.763   6.287  12.452
12804SOL    HW140309   9.670   6.289  12.474
12804SOL    HW240310   9.808   6.315  12.531
12805SOL     OW40311   2.433   0.288   3.072
12805SOL    HW140312   2.475   0.203   3.062
12805SOL    HW240313   2.347   0.269   3.109
12806SOL     OW40314   0.963  12.555   3.991
12806SOL    HW140315   1.048  12.513   4.005
12806SOL    HW240316   0.920  12.553   4.076
12807SOL     OW40317  11.456   3.253  14.383
12807SOL    HW140318  11.468   3.269  14.477
12807SOL    HW240319  11.540   3.278  14.344
12808SOL     OW40320   8.130  10.430   7.096
12808SOL    HW140321   8.182  10.497   7.141
12808SOL    HW240322   8.194  10.367   7.066
12809SOL     OW40323  11.758   8.739  12.952
12809SOL    HW140324  11.755   8.668  13.017
12809SOL    HW240325  11.844   8.779  12.964
12810SOL     OW40326   4.885   7.180   4.291
12810SOL    HW140327   4.981   7.188   4.293
12810SOL    HW240328   4.866   7.147   4.204
12811SOL     OW40329   8.544   3.743  11.129
12811SOL    HW140330   8.569   3.746  11.221
12811SOL    HW240331   8.488   3.820  11.116
12812SOL     OW40332  14.302   1.532   3.771
12812SOL    HW140333  14.222   1.540   3.823
12812SOL    HW240334  14.270   1.529   3.680
12813SOL     OW40335  12.678  10.562   0.059
12813SOL    HW140336  12.593  10.570   0.015
12813SOL    HW240337  12.736  10.527  14.861
12814SOL     OW40338   4.475  10.650   7.623
12814SOL    HW140339   4.521  10.568   7.606
12814SOL    HW240340   4.541  10.707   7.661
12815SOL     OW40341   7.466  12.021  11.443
12815SOL    HW140342   7.382  12.044  11.403
12815SOL    HW240343   7.522  12.096  11.426
12816SOL     OW40344  13.725   7.567  13.894
12816SOL    HW140345  13.765   7.481  13.882
12816SOL    HW240346  13.644   7.550  13.943
12817SOL     OW40347  13.128   7.360   1.143
12817SOL    HW140348  13.069   7.415   1.195
12817SOL    HW240349  13.207   7.414   1.132
12818SOL     OW40350  13.336   7.202  14.786
12818SOL    HW140351  13.409   7.234  14.732
12818SOL    HW240352  13.297   7.281  14.822
12819SOL     OW40353   6.836  12.476   5.514
12819SOL    HW140354   6.772  12.491   5.445
12819SOL    HW240355   6.855  12.382   5.509
12820SOL     OW40356   8.773   3.148  11.427
12820SOL    HW140357   8.698   3.188  11.471
12820SOL    HW240358   8.798   3.212  11.360
12821SOL     OW40359   0.513   3.816   1.316
12821SOL    HW140360   0.547   3.778   1.397
12821SOL    HW240361   0.444   3.876   1.344
12822SOL     OW40362   8.627   2.114   5.976
12822SOL    HW140363   8.717   2.127   5.947
12822SOL    HW240364   8.585   2.199   5.963
12823SOL     OW40365  12.900   3.890   2.191
12823SOL    HW140366  12.951   3.966   2.219
12823SOL    HW240367  12.830   3.883   2.255
12824SOL     OW40368   9.461  12.921   8.305
12824SOL    HW140369   9.399  12.909   8.376
12824SOL    HW240370   9.522  12.847   8.314
12825SOL     OW40371   5.894   7.327  12.929
12825SOL    HW140372   5.957   7.351  12.996
12825SOL    HW240373   5.822   7.388  12.940
12826SOL     OW40374  13.011  12.251   1.128
12826SOL    HW140375  13.014  12.213   1.215
12826SOL    HW240376  12.970  12.337   1.140
12827SOL     OW40377  10.985   6.307   0.695
12827SOL    HW140378  11.078   6.318   0.715
12827SOL    HW240379  10.940   6.324   0.777
12828SOL     OW40380   8.467   2.682  11.406
12828SOL    HW140381   8.530   2.721  11.345
12828SOL    HW240382   8.391   2.741  11.404
12829SOL     OW40383  10.934   5.357   1.127
12829SOL    HW140384  10.839   5.368   1.127
12829SOL    HW240385  10.965   5.414   1.056
12830SOL     OW40386   6.347  13.317  12.065
12830SOL    HW140387   6.283  13.246  12.075
12830SOL    HW240388   6.411  13.282  12.004
12831SOL     OW40389  11.106   6.919   7.575
12831SOL    HW140390  11.181   6.965   7.615
12831SOL    HW240391  11.048   6.901   7.649
12832SOL     OW40392  11.823  10.545   6.997
12832SOL    HW140393  11.779  10.602   6.933
12832SOL    HW240394  11.753  10.517   7.056
12833SOL     OW40395   2.968   3.467  11.519
12833SOL    HW140396   2.972   3.372  11.510
12833SOL    HW240397   3.058   3.496  11.505
12834SOL     OW40398   8.725   9.075   7.092
12834SOL    HW140399   8.813   9.112   7.085
12834SOL    HW240400   8.706   9.042   7.004
12835SOL     OW40401  13.346  14.497   2.825
12835SOL    HW140402  13.313  14.449   2.901
12835SOL    HW240403  13.283  14.568   2.812
12836SOL     OW40404   2.158   9.544  13.966
12836SOL    HW140405   2.121   9.617  14.015
12836SOL    HW240406   2.187   9.482  14.033
12837SOL     OW40407  14.416   6.449   9.033
12837SOL    HW140408  14.361   6.373   9.016
12837SOL    HW240409  14.411   6.461   9.128
12838SOL     OW40410   4.171   4.251   6.185
12838SOL    HW140411   4.212   4.246   6.271
12838SOL    HW240412   4.149   4.161   6.163
12839SOL     OW40413   3.862   6.119   7.576
12839SOL    HW140414   3.927   6.148   7.512
12839SOL    HW240415   3.846   6.027   7.554
12840SOL     OW40416   2.999  10.060   7.626
12840SOL    HW140417   3.018   9.975   7.666
12840SOL    HW240418   2.922  10.044   7.572
12841SOL     OW40419  12.269  14.308   2.626
12841SOL    HW140420  12.247  14.215   2.637
12841SOL    HW240421  12.340  14.323   2.689
12842SOL     OW40422   1.375   8.907  12.891
12842SOL    HW140423   1.442   8.942  12.832
12842SOL    HW240424   1.389   8.813  12.890
12843SOL     OW40425   2.455   3.896   6.964
12843SOL    HW140426   2.523   3.962   6.949
12843SOL    HW240427   2.388   3.916   6.899
12844SOL     OW40428   3.285  13.291   0.864
12844SOL    HW140429   3.335  13.217   0.831
12844SOL    HW240430   3.200  13.283   0.821
12845SOL     OW40431   0.831  14.768   7.235
12845SOL    HW140432   0.749  14.737   7.274
12845SOL    HW240433   0.865  14.832   7.299
12846SOL     OW40434   3.650   3.790   2.147
12846SOL    HW140435   3.687   3.703   2.165
12846SOL    HW240436   3.619   3.785   2.057
12847SOL     OW40437   1.093  11.717   0.407
12847SOL    HW140438   1.017  11.756   0.450
12847SOL    HW240439   1.134  11.789   0.359
12848SOL     OW40440   4.105  12.098   8.689
12848SOL    HW140441   4.092  12.015   8.644
12848SOL    HW240442   4.063  12.163   8.633
12849SOL     OW40443  13.356   3.904  10.749
12849SOL    HW140444  13.386   3.815  10.771
12849SOL    HW240445  13.315   3.935  10.829
12850SOL     OW40446   6.474   2.420  12.087
12850SOL    HW140447   6.529   2.371  12.025
12850SOL    HW240448   6.519   2.504  12.098
12851SOL     OW40449   9.045  14.712  14.679
12851SOL    HW140450   8.953  14.720  14.703
12851SOL    HW240451   9.049  14.743  14.588
12852SOL     OW40452   2.046   7.539  13.355
12852SOL    HW140453   2.113   7.601  13.328
12852SOL    HW240454   2.077   7.454  13.321
12853SOL     OW40455   1.028   1.839   6.781
12853SOL    HW140456   1.115   1.818   6.746
12853SOL    HW240457   0.968   1.783   6.733
12854SOL     OW40458   4.524  10.394   5.895
12854SOL    HW140459   4.443  10.344   5.880
12854SOL    HW240460   4.591  10.327   5.909
12855SOL     OW40461  13.167   4.456  10.343
12855SOL    HW140462  13.148   4.547  10.367
12855SOL    HW240463  13.194   4.415  10.425
12856SOL     OW40464   3.382  13.123   2.188
12856SOL    HW140465   3.467  13.142   2.228
12856SOL    HW240466   3.404  13.081   2.105
12857SOL     OW40467   4.166  12.167   9.161
12857SOL    HW140468   4.120  12.250   9.174
12857SOL    HW240469   4.124  12.107   9.222
12858SOL     OW40470   7.045  11.435   6.577
12858SOL    HW140471   6.989  11.447   6.501
12858SOL    HW240472   7.099  11.514   6.580
12859SOL     OW40473   7.193   3.412   7.294
12859SOL    HW140474   7.114   3.460   7.269
12859SOL    HW240475   7.167   3.358   7.369
12860SOL     OW40476   9.363   2.757   1.310
12860SOL    HW140477   9.307   2.780   1.383
12860SOL    HW240478   9.446   2.731   1.350
12861SOL     OW40479   9.625   7.218   4.680
12861SOL    HW140480   9.629   7.313   4.691
12861SOL    HW240481   9.533   7.201   4.657
12862SOL     OW40482  13.274  12.636  12.391
12862SOL    HW140483  13.243  12.567  12.332
12862SOL    HW240484  13.202  12.698  12.395
12863SOL     OW40485   2.518   3.302   2.521
12863SOL    HW140486   2.535   3.244   2.447
12863SOL    HW240487   2.552   3.387   2.493
12864SOL     OW40488   6.492   2.684   4.145
12864SOL    HW140489   6.526   2.595   4.143
12864SOL    HW240490   6.435   2.686   4.222
12865SOL     OW40491   6.199   8.120  10.706
12865SOL    HW140492   6.289   8.121  10.673
12865SOL    HW240493   6.190   8.035  10.749
12866SOL     OW40494   2.441   7.795   9.692
12866SOL    HW140495   2.360   7.746   9.705
12866SOL    HW240496   2.511   7.735   9.718
12867SOL     OW40497  12.058  11.517   1.788
12867SOL    HW140498  12.093  11.517   1.877
12867SOL    HW240499  11.991  11.448   1.789
12868SOL     OW40500   4.105   3.564   6.660
12868SOL    HW140501   4.035   3.499   6.649
12868SOL    HW240502   4.105   3.613   6.578
12869SOL     OW40503   9.332  12.657   3.215
12869SOL    HW140504   9.309  12.567   3.192
12869SOL    HW240505   9.333  12.657   3.311
12870SOL     OW40506  11.691  11.861   9.156
12870SOL    HW140507  11.672  11.792   9.093
12870SOL    HW240508  11.703  11.940   9.104
12871SOL     OW40509   5.406  10.750   8.665
12871SOL    HW140510   5.357  10.826   8.696
12871SOL    HW240511   5.352  10.714   8.594
12872SOL     OW40512  12.762   8.560  14.768
12872SOL    HW140513  12.792   8.472  14.744
12872SOL    HW240514  12.670   8.562  14.740
12873SOL     OW40515   5.222   2.116   3.988
12873SOL    HW140516   5.157   2.137   4.056
12873SOL    HW240517   5.200   2.027   3.961
12874SOL     OW40518  14.204   2.110  10.395
12874SOL    HW140519  14.249   2.074  10.318
12874SOL    HW240520  14.219   2.045  10.464
12875SOL     OW40521   6.746  14.038   3.037
12875SOL    HW140522   6.823  14.086   3.066
12875SOL    HW240523   6.681  14.105   3.018
12876SOL     OW40524   2.872  11.348   9.909
12876SOL    HW140525   2.948  11.315   9.956
12876SOL    HW240526   2.893  11.334   9.817
12877SOL     OW40527   8.090   0.267  10.866
12877SOL    HW140528   8.018   0.212  10.896
12877SOL    HW240529   8.070   0.284  10.774
12878SOL     OW40530   1.691   1.866   0.815
12878SOL    HW140531   1.666   1.812   0.740
12878SOL    HW240532   1.630   1.840   0.885
12879SOL     OW40533   1.308  13.824   4.383
12879SOL    HW140534   1.364  13.772   4.326
12879SOL    HW240535   1.354  13.825   4.467
12880SOL     OW40536   1.305   9.041   2.566
12880SOL    HW140537   1.220   9.057   2.609
12880SOL    HW240538   1.289   8.967   2.507
12881SOL     OW40539  12.874   4.100   1.426
12881SOL    HW140540  12.960   4.086   1.467
12881SOL    HW240541  12.869   4.032   1.358
12882SOL     OW40542   8.959   6.519   7.843
12882SOL    HW140543   8.966   6.451   7.775
12882SOL    HW240544   9.018   6.490   7.912
12883SOL     OW40545   9.569  13.198   3.888
12883SOL    HW140546   9.607  13.134   3.948
12883SOL    HW240547   9.644  13.248   3.855
12884SOL     OW40548   8.222   4.136  13.006
12884SOL    HW140549   8.296   4.087  12.970
12884SOL    HW240550   8.160   4.069  13.036
12885SOL     OW40551   1.915  10.142  12.431
12885SOL    HW140552   1.937  10.055  12.396
12885SOL    HW240553   1.824  10.134  12.459
12886SOL     OW40554  13.312  10.532   6.909
12886SOL    HW140555  13.378  10.538   6.979
12886SOL    HW240556  13.262  10.453   6.930
12887SOL     OW40557   9.028   7.742  11.069
12887SOL    HW140558   8.940   7.763  11.036
12887SOL    HW240559   9.051   7.818  11.123
12888SOL     OW40560  10.889  11.083  12.299
12888SOL    HW140561  10.917  11.003  12.255
12888SOL    HW240562  10.939  11.153  12.257
12889SOL     OW40563  14.423  13.797   2.596
12889SOL    HW140564  14.381  13.847   2.525
12889SOL    HW240565  14.430  13.708   2.561
12890SOL     OW40566   2.500   5.168   8.711
12890SOL    HW140567   2.589   5.155   8.680
12890SOL    HW240568   2.505   5.246   8.766
12891SOL     OW40569   0.013   4.442   8.011
12891SOL    HW140570   0.048   4.509   8.070
12891SOL    HW240571   0.091   4.400   7.973
12892SOL     OW40572   2.510  12.060   4.347
12892SOL    HW140573   2.598  12.077   4.313
12892SOL    HW240574   2.515  11.973   4.385
12893SOL     OW40575  14.660   2.670   6.629
12893SOL    HW140576  14.713   2.615   6.572
12893SOL    HW240577  14.660   2.625   6.713
12894SOL     OW40578  10.019  10.739  11.217
12894SOL    HW140579   9.994  10.814  11.270
12894SOL    HW240580  10.035  10.776  11.130
12895SOL     OW40581   2.942   3.578  10.488
12895SOL    HW140582   2.925   3.670  10.511
12895SOL    HW240583   2.860   3.533  10.506
12896SOL     OW40584   9.262   1.071   9.563
12896SOL    HW140585   9.275   1.113   9.478
12896SOL    HW240586   9.260   0.977   9.543
12897SOL     OW40587   3.376   5.893   1.956
12897SOL    HW140588   3.292   5.849   1.963
12897SOL    HW240589   3.388   5.936   2.041
12898SOL     OW40590  11.813   4.588   8.475
12898SOL    HW140591  11.746   4.560   8.413
12898SOL    HW240592  11.794   4.681   8.491
12899SOL     OW40593   1.418  14.627   9.844
12899SOL    HW140594   1.387  14.685   9.776
12899SOL    HW240595   1.498  14.668   9.877
12900SOL     OW40596  10.824   5.482  12.347
12900SOL    HW140597  10.840   5.396  12.309
12900SOL    HW240598  10.884   5.486  12.422
12901SOL     OW40599  13.152  12.232   2.394
12901SOL    HW140600  13.148  12.208   2.302
12901SOL    HW240601  13.065  12.214   2.428
12902SOL     OW40602   7.065  13.121  11.603
12902SOL    HW140603   7.099  13.037  11.572
12902SOL    HW240604   7.136  13.158  11.656
12903SOL     OW40605   1.611   3.313  10.984
12903SOL    HW140606   1.585   3.295  10.894
12903SOL    HW240607   1.585   3.235  11.033
12904SOL     OW40608   6.183   7.695  14.053
12904SOL    HW140609   6.145   7.780  14.075
12904SOL    HW240610   6.233   7.710  13.973
12905SOL     OW40611   9.688  13.146   5.823
12905SOL    HW140612   9.642  13.157   5.906
12905SOL    HW240613   9.780  13.160   5.844
12906SOL     OW40614   4.512   5.131   5.107
12906SOL    HW140615   4.525   5.076   5.185
12906SOL    HW240616   4.574   5.097   5.043
12907SOL     OW40617   8.126   0.946   3.246
12907SOL    HW140618   8.114   0.984   3.159
12907SOL    HW240619   8.144   1.021   3.303
12908SOL     OW40620   1.553   3.150   5.369
12908SOL    HW140621   1.573   3.148   5.276
12908SOL    HW240622   1.638   3.143   5.413
12909SOL     OW40623   9.863   0.175  10.215
12909SOL    HW140624   9.773   0.204  10.226
12909SOL    HW240625   9.915   0.255  10.227
12910SOL     OW40626  10.100   8.970   2.900
12910SOL    HW140627  10.126   8.907   2.967
12910SOL    HW240628  10.153   9.047   2.918
12911SOL     OW40629  14.265   9.944   5.650
12911SOL    HW140630  14.249  10.032   5.616
12911SOL    HW240631  14.355   9.925   5.625
12912SOL     OW40632  13.869   5.623  10.195
12912SOL    HW140633  13.856   5.705  10.242
12912SOL    HW240634  13.884   5.649  10.104
12913SOL     OW40635   7.234   0.577  11.631
12913SOL    HW140636   7.226   0.658  11.680
12913SOL    HW240637   7.212   0.600  11.541
12914SOL     OW40638   6.822  13.848   7.018
12914SOL    HW140639   6.747  13.825   6.962
12914SOL    HW240640   6.782  13.878   7.100
12915SOL     OW40641   5.678   7.971  11.356
12915SOL    HW140642   5.729   8.001  11.432
12915SOL    HW240643   5.691   8.040  11.291
12916SOL     OW40644  11.813   4.393  13.545
12916SOL    HW140645  11.828   4.301  13.523
12916SOL    HW240646  11.778   4.432  13.464
12917SOL     OW40647   7.229   2.732  14.778
12917SOL    HW140648   7.247   2.638  14.773
12917SOL    HW240649   7.301   2.767  14.830
12918SOL     OW40650   1.682  11.685   9.919
12918SOL    HW140651   1.631  11.765   9.931
12918SOL    HW240652   1.723  11.696   9.833
12919SOL     OW40653  14.824  12.352   4.328
12919SOL    HW140654  14.786  12.293   4.394
12919SOL    HW240655  14.750  12.379   4.274
12920SOL     OW40656   1.549   7.120   4.772
12920SOL    HW140657   1.527   7.044   4.719
12920SOL    HW240658   1.587   7.183   4.710
12921SOL     OW40659   7.062   1.343  14.808
12921SOL    HW140660   6.976   1.358  14.769
12921SOL    HW240661   7.069   1.248  14.817
12922SOL     OW40662  10.411  11.569   4.177
12922SOL    HW140663  10.488  11.552   4.124
12922SOL    HW240664  10.443  11.624   4.249
12923SOL     OW40665   3.074   2.828  14.691
12923SOL    HW140666   3.030   2.809  14.608
12923SOL    HW240667   3.157   2.868  14.666
12924SOL     OW40668  14.692   5.651   5.891
12924SOL    HW140669  14.622   5.624   5.830
12924SOL    HW240670  14.647   5.706   5.955
12925SOL     OW40671   4.683  10.265  12.032
12925SOL    HW140672   4.694  10.298  12.121
12925SOL    HW240673   4.609  10.204  12.038
12926SOL     OW40674   9.858   8.065   3.106
12926SOL    HW140675   9.915   8.045   3.180
12926SOL    HW240676   9.895   8.146   3.069
12927SOL     OW40677   8.222   8.468  11.634
12927SOL    HW140678   8.243   8.402  11.568
12927SOL    HW240679   8.203   8.547  11.584
12928SOL     OW40680   0.836   6.729  12.375
12928SOL    HW140681   0.826   6.766  12.288
12928SOL    HW240682   0.842   6.805  12.433
12929SOL     OW40683  14.270   8.823   6.502
12929SOL    HW140684  14.304   8.737   6.480
12929SOL    HW240685  14.286   8.832   6.596
12930SOL     OW40686   5.302  13.953   4.880
12930SOL    HW140687   5.342  13.884   4.932
12930SOL    HW240688   5.348  14.033   4.906
12931SOL     OW40689   0.103   2.217   3.568
12931SOL    HW140690   0.037   2.167   3.521
12931SOL    HW240691   0.180   2.217   3.511
12932SOL     OW40692   0.586   1.562   1.594
12932SOL    HW140693   0.542   1.478   1.606
12932SOL    HW240694   0.581   1.604   1.680
12933SOL     OW40695   3.837  12.494   8.235
12933SOL    HW140696   3.811  12.518   8.324
12933SOL    HW240697   3.908  12.555   8.213
12934SOL     OW40698  12.447   3.002  11.004
12934SOL    HW140699  12.450   2.960  10.918
12934SOL    HW240700  12.472   2.932  11.065
12935SOL     OW40701  14.292   5.395   4.191
12935SOL    HW140702  14.302   5.300   4.184
12935SOL    HW240703  14.199   5.411   4.177
12936SOL     OW40704   2.710   6.413   8.400
12936SOL    HW140705   2.630   6.386   8.356
12936SOL    HW240706   2.778   6.355   8.366
12937SOL     OW40707  13.528  10.267   7.706
12937SOL    HW140708  13.565  10.222   7.782
12937SOL    HW240709  13.604  10.299   7.657
12938SOL     OW40710   2.625   9.580   3.494
12938SOL    HW140711   2.643   9.673   3.484
12938SOL    HW240712   2.530   9.572   3.483
12939SOL     OW40713   7.458   7.737  10.013
12939SOL    HW140714   7.443   7.682   9.936
12939SOL    HW240715   7.406   7.815   9.997
12940SOL     OW40716   6.433   9.241  11.533
12940SOL    HW140717   6.480   9.240  11.616
12940SOL    HW240718   6.403   9.151  11.521
12941SOL     OW40719  12.761  13.313   7.786
12941SOL    HW140720  12.763  13.401   7.748
12941SOL    HW240721  12.671  13.303   7.816
12942SOL     OW40722   5.346  14.173  13.944
12942SOL    HW140723   5.305  14.089  13.961
12942SOL    HW240724   5.337  14.185  13.849
12943SOL     OW40725  11.130  14.169   2.479
12943SOL    HW140726  11.119  14.206   2.392
12943SOL    HW240727  11.178  14.236   2.528
12944SOL     OW40728   4.155  11.647  11.032
12944SOL    HW140729   4.141  11.589  10.957
12944SOL    HW240730   4.165  11.734  10.993
12945SOL     OW40731  12.105   4.606   7.697
12945SOL    HW140732  12.020   4.613   7.655
12945SOL    HW240733  12.085   4.591   7.790
12946SOL     OW40734   4.720   7.303  12.453
12946SOL    HW140735   4.802   7.266  12.483
12946SOL    HW240736   4.696   7.367  12.520
12947SOL     OW40737   7.826   7.039  10.040
12947SOL    HW140738   7.738   7.017  10.008
12947SOL    HW240739   7.850   7.119   9.992
12948SOL     OW40740   0.904   6.154   8.838
12948SOL    HW140741   0.992   6.117   8.833
12948SOL    HW240742   0.876   6.163   8.747
12949SOL     OW40743   8.376   2.589  10.036
12949SOL    HW140744   8.301   2.647  10.050
12949SOL    HW240745   8.430   2.635   9.972
12950SOL     OW40746   6.567  14.131   4.894
12950SOL    HW140747   6.622  14.163   4.823
12950SOL    HW240748   6.527  14.051   4.860
12951SOL     OW40749   0.068  13.702  11.754
12951SOL    HW140750   0.105  13.740  11.834
12951SOL    HW240751   0.131  13.634  11.729
12952SOL     OW40752  14.627   8.183  10.993
12952SOL    HW140753  14.562   8.205  11.061
12952SOL    HW240754  14.710   8.211  11.030
12953SOL     OW40755  13.811   2.043   4.290
12953SOL    HW140756  13.889   2.080   4.333
12953SOL    HW240757  13.747   2.034   4.361
12954SOL     OW40758  10.516   0.084   2.636
12954SOL    HW140759  10.598   0.120   2.669
12954SOL    HW240760  10.459   0.160   2.627
12955SOL     OW40761   8.090   4.276   7.898
12955SOL    HW140762   8.065   4.315   7.814
12955SOL    HW240763   8.055   4.336   7.963
12956SOL     OW40764   8.808   4.969   9.801
12956SOL    HW140765   8.811   5.053   9.846
12956SOL    HW240766   8.765   4.910   9.863
12957SOL     OW40767  10.467   5.333  12.711
12957SOL    HW140768  10.380   5.340  12.748
12957SOL    HW240769  10.516   5.279  12.774
12958SOL     OW40770  13.754   9.549   5.589
12958SOL    HW140771  13.744   9.644   5.598
12958SOL    HW240772  13.840   9.538   5.548
12959SOL     OW40773  12.267   8.263   2.566
12959SOL    HW140774  12.273   8.343   2.619
12959SOL    HW240775  12.207   8.207   2.615
12960SOL     OW40776   0.218  13.125   6.268
12960SOL    HW140777   0.313  13.122   6.272
12960SOL    HW240778   0.196  13.084   6.184
12961SOL     OW40779   5.441   6.113   6.486
12961SOL    HW140780   5.414   6.053   6.417
12961SOL    HW240781   5.433   6.061   6.567
12962SOL     OW40782  10.740   0.738  11.969
12962SOL    HW140783  10.761   0.722  12.061
12962SOL    HW240784  10.649   0.712  11.960
12963SOL     OW40785   5.832   1.904   6.132
12963SOL    HW140786   5.789   1.826   6.096
12963SOL    HW240787   5.889   1.870   6.201
12964SOL     OW40788   5.426   8.731  12.523
12964SOL    HW140789   5.433   8.727  12.428
12964SOL    HW240790   5.510   8.698  12.555
12965SOL     OW40791  10.900   7.889  12.347
12965SOL    HW140792  10.808   7.882  12.371
12965SOL    HW240793  10.946   7.837  12.412
12966SOL     OW40794   5.065   6.363   0.925
12966SOL    HW140795   4.998   6.311   0.880
12966SOL    HW240796   5.075   6.320   1.010
12967SOL     OW40797  13.534  12.374  10.203
12967SOL    HW140798  13.609  12.433  10.198
12967SOL    HW240799  13.460  12.425  10.170
12968SOL     OW40800   9.244   8.182   7.065
12968SOL    HW140801   9.300   8.259   7.077
12968SOL    HW240802   9.236   8.173   6.970
12969SOL     OW40803   4.793  13.222  12.479
12969SOL    HW140804   4.843  13.297  12.446
12969SOL    HW240805   4.703  13.238  12.450
12970SOL     OW40806   3.203   1.558   7.979
12970SOL    HW140807   3.109   1.562   7.962
12970SOL    HW240808   3.212   1.491   8.046
12971SOL     OW40809  13.317  13.073   7.002
12971SOL    HW140810  13.262  12.999   6.975
12971SOL    HW240811  13.274  13.149   6.963
12972SOL     OW40812   8.228  14.866   6.518
12972SOL    HW140813   8.270   0.017   6.601
12972SOL    HW240814   8.209   0.081   6.478
12973SOL     OW40815   3.402   6.090   8.284
12973SOL    HW140816   3.416   6.003   8.246
12973SOL    HW240817   3.489   6.130   8.283
12974SOL     OW40818   1.299   8.834   2.339
12974SOL    HW140819   1.280   8.916   2.293
12974SOL    HW240820   1.260   8.767   2.284
12975SOL     OW40821  10.255   3.837   2.333
12975SOL    HW140822  10.165   3.869   2.335
12975SOL    HW240823  10.247   3.743   2.348
12976SOL     OW40824   3.576   9.042   1.793
12976SOL    HW140825   3.536   9.093   1.723
12976SOL    HW240826   3.653   9.002   1.752
12977SOL     OW40827   5.584   6.297  13.867
12977SOL    HW140828   5.661   6.299  13.923
12977SOL    HW240829   5.558   6.205  13.865
12978SOL     OW40830  10.774  12.592   4.157
12978SOL    HW140831  10.738  12.549   4.080
12978SOL    HW240832  10.799  12.520   4.215
12979SOL     OW40833   7.525  10.889  10.500
12979SOL    HW140834   7.602  10.841  10.529
12979SOL    HW240835   7.453  10.825  10.506
12980SOL     OW40836   4.152   2.357   2.010
12980SOL    HW140837   4.223   2.293   2.008
12980SOL    HW240838   4.170   2.415   1.936
12981SOL     OW40839  11.931   5.842   9.865
12981SOL    HW140840  11.955   5.863   9.955
12981SOL    HW240841  11.943   5.923   9.817
12982SOL     OW40842   6.941   1.519   0.561
12982SOL    HW140843   6.965   1.592   0.618
12982SOL    HW240844   7.020   1.464   0.558
12983SOL     OW40845   2.274   7.182   0.508
12983SOL    HW140846   2.288   7.258   0.564
12983SOL    HW240847   2.326   7.200   0.430
12984SOL     OW40848   0.789  12.523  10.598
12984SOL    HW140849   0.741  12.596  10.559
12984SOL    HW240850   0.794  12.545  10.691
12985SOL     OW40851   6.725  13.594   6.149
12985SOL    HW140852   6.691  13.682   6.130
12985SOL    HW240853   6.740  13.555   6.064
12986SOL     OW40854   0.468   0.069   3.814
12986SOL    HW140855   0.539   0.007   3.796
12986SOL    HW240856   0.402   0.048   3.748
12987SOL     OW40857   6.276   2.088   5.141
12987SOL    HW140858   6.279   1.993   5.145
12987SOL    HW240859   6.209   2.107   5.075
12988SOL     OW40860   6.067  11.860   2.802
12988SOL    HW140861   6.140  11.876   2.743
12988SOL    HW240862   6.037  11.948   2.827
12989SOL     OW40863   6.690   2.069   0.236
12989SOL    HW140864   6.667   2.094   0.326
12989SOL    HW240865   6.679   1.974   0.233
12990SOL     OW40866  14.799   4.927   0.287
12990SOL    HW140867  14.809   5.010   0.333
12990SOL    HW240868  14.705   4.915   0.277
12991SOL     OW40869   0.927   1.193  13.489
12991SOL    HW140870   0.941   1.276  13.444
12991SOL    HW240871   0.998   1.137  13.458
12992SOL     OW40872   4.227   3.990  13.061
12992SOL    HW140873   4.315   4.026  13.075
12992SOL    HW240874   4.223   3.971  12.968
12993SOL     OW40875   3.141   7.075   0.614
12993SOL    HW140876   3.218   7.131   0.618
12993SOL    HW240877   3.067   7.135   0.621
12994SOL     OW40878  10.839  13.898   5.875
12994SOL    HW140879  10.928  13.923   5.850
12994SOL    HW240880  10.818  13.824   5.819
12995SOL     OW40881   9.534   6.362  11.097
12995SOL    HW140882   9.496   6.301  11.034
12995SOL    HW240883   9.624   6.331  11.109
12996SOL     OW40884   3.625   8.508  10.980
12996SOL    HW140885   3.550   8.496  11.038
12996SOL    HW240886   3.600   8.465  10.899
12997SOL     OW40887  11.425  12.264   5.092
12997SOL    HW140888  11.493  12.227   5.148
12997SOL    HW240889  11.446  12.357   5.085
12998SOL     OW40890   5.262   2.336   9.575
12998SOL    HW140891   5.195   2.281   9.615
12998SOL    HW240892   5.226   2.425   9.579
12999SOL     OW40893   4.670  11.764   7.823
12999SOL    HW140894   4.656  11.768   7.918
12999SOL    HW240895   4.599  11.709   7.791
13000SOL     OW40896  12.772   4.535   8.733
13000SOL    HW140897  12.787   4.610   8.791
13000SOL    HW240898  12.706   4.566   8.671
13001SOL     OW40899   6.294  14.597   2.375
13001SOL    HW140900   6.278  14.672   2.433
13001SOL    HW240901   6.383  14.612   2.341
13002SOL     OW40902   7.999   0.470   4.046
13002SOL    HW140903   8.043   0.499   3.966
13002SOL    HW240904   8.069   0.469   4.112
13003SOL     OW40905  10.958  12.567   0.205
13003SOL    HW140906  10.981  12.593   0.295
13003SOL    HW240907  11.014  12.492   0.187
13004SOL     OW40908  10.981  13.110   1.589
13004SOL    HW140909  10.935  13.184   1.629
13004SOL    HW240910  11.059  13.099   1.643
13005SOL     OW40911   4.208   5.032   7.728
13005SOL    HW140912   4.191   5.052   7.820
13005SOL    HW240913   4.178   4.942   7.716
13006SOL     OW40914   1.828   5.452   4.622
13006SOL    HW140915   1.883   5.476   4.547
13006SOL    HW240916   1.793   5.366   4.598
13007SOL     OW40917  14.192   2.811  10.655
13007SOL    HW140918  14.100   2.821  10.631
13007SOL    HW240919  14.192   2.807  10.751
13008SOL     OW40920   6.900   8.715   8.151
13008SOL    HW140921   6.896   8.802   8.190
13008SOL    HW240922   6.952   8.726   8.072
13009SOL     OW40923  13.234  13.665   3.004
13009SOL    HW140924  13.161  13.709   3.048
13009SOL    HW240925  13.192  13.601   2.947
13010SOL     OW40926  14.187   0.289  14.079
13010SOL    HW140927  14.124   0.326  14.018
13010SOL    HW240928  14.266   0.341  14.065
13011SOL     OW40929   4.107  12.943   0.137
13011SOL    HW140930   4.112  12.907   0.048
13011SOL    HW240931   4.170  12.892   0.188
13012SOL     OW40932  13.851  11.737   2.321
13012SOL    HW140933  13.826  11.678   2.251
13012SOL    HW240934  13.912  11.798   2.280
13013SOL     OW40935  14.251   1.843  12.273
13013SOL    HW140936  14.316   1.803  12.216
13013SOL    HW240937  14.185   1.880  12.214
13014SOL     OW40938   3.270   8.786   8.810
13014SOL    HW140939   3.221   8.771   8.891
13014SOL    HW240940   3.300   8.876   8.816
13015SOL     OW40941   7.057   7.915   7.400
13015SOL    HW140942   6.968   7.901   7.366
13015SOL    HW240943   7.044   7.968   7.479
13016SOL     OW40944   2.016   9.752   3.313
13016SOL    HW140945   2.081   9.819   3.334
13016SOL    HW240946   1.989   9.716   3.398
13017SOL     OW40947   5.337  13.059   9.528
13017SOL    HW140948   5.287  13.048   9.609
13017SOL    HW240949   5.283  13.018   9.460
13018SOL     OW40950   3.637   5.006   2.691
13018SOL    HW140951   3.556   5.024   2.642
13018SOL    HW240952   3.608   4.991   2.781
13019SOL     OW40953   7.576   8.040  13.107
13019SOL    HW140954   7.644   8.037  13.175
13019SOL    HW240955   7.538   7.952  13.108
13020SOL     OW40956   8.642   8.928   5.952
13020SOL    HW140957   8.582   8.998   5.929
13020SOL    HW240958   8.729   8.962   5.932
13021SOL     OW40959  14.276   9.956   2.761
13021SOL    HW140960  14.357   9.971   2.713
13021SOL    HW240961  14.233  10.041   2.762
13022SOL     OW40962  14.684   8.397   2.511
13022SOL    HW140963  14.655   8.467   2.570
13022SOL    HW240964  14.610   8.336   2.507
13023SOL     OW40965  14.844  12.049   4.277
13023SOL    HW140966  14.808  12.083   4.195
13023SOL    HW240967  14.796  12.096   4.345
13024SOL     OW40968  13.604   0.561   2.684
13024SOL    HW140969  13.689   0.532   2.649
13024SOL    HW240970  13.562   0.604   2.610
13025SOL     OW40971   3.213   8.822   2.013
13025SOL    HW140972   3.235   8.906   2.054
13025SOL    HW240973   3.232   8.834   1.920
13026SOL     OW40974   3.579   4.689  11.915
13026SOL    HW140975   3.609   4.606  11.950
13026SOL    HW240976   3.576   4.676  11.820
13027SOL     OW40977   8.486   6.540  12.009
13027SOL    HW140978   8.424   6.613  12.015
13027SOL    HW240979   8.434   6.463  12.029
13028SOL     OW40980   2.475  10.542   2.566
13028SOL    HW140981   2.505  10.473   2.627
13028SOL    HW240982   2.539  10.612   2.577
13029SOL     OW40983   4.987   7.574  12.286
13029SOL    HW140984   5.046   7.523  12.230
13029SOL    HW240985   5.034   7.655  12.303
13030SOL     OW40986   4.784   3.375  13.711
13030SOL    HW140987   4.857   3.396  13.653
13030SOL    HW240988   4.725   3.324  13.656
13031SOL     OW40989   1.608   7.597   3.885
13031SOL    HW140990   1.544   7.574   3.952
13031SOL    HW240991   1.624   7.690   3.899
13032SOL     OW40992  14.829  14.373  10.162
13032SOL    HW140993   0.021  14.414  10.223
13032SOL    HW240994  14.844  14.279  10.172
13033SOL     OW40995   6.686   4.515   1.116
13033SOL    HW140996   6.733   4.590   1.154
13033SOL    HW240997   6.677   4.454   1.189
13034SOL     OW40998  10.648  11.053  11.795
13034SOL    HW140999  10.630  11.081  11.884
13034SOL    HW241000  10.701  10.974  11.804
13035SOL     OW41001  14.579   4.552  13.126
13035SOL    HW141002  14.523   4.607  13.071
13035SOL    HW241003  14.640   4.510  13.064
13036SOL     OW41004  10.998   2.353   7.816
13036SOL    HW141005  10.953   2.365   7.900
13036SOL    HW241006  11.082   2.396   7.828
13037SOL     OW41007   5.362   0.795   7.012
13037SOL    HW141008   5.349   0.886   7.039
13037SOL    HW241009   5.435   0.799   6.950
13038SOL     OW41010   5.297   9.674   1.714
13038SOL    HW141011   5.298   9.645   1.623
13038SOL    HW241012   5.252   9.605   1.761
13039SOL     OW41013  14.079  10.302   5.055
13039SOL    HW141014  14.064  10.208   5.062
13039SOL    HW241015  14.160  10.310   5.005
13040SOL     OW41016  11.406   8.254   7.554
13040SOL    HW141017  11.456   8.335   7.557
13040SOL    HW241018  11.325   8.273   7.601
13041SOL     OW41019  10.372   5.319  12.330
13041SOL    HW141020  10.448   5.266  12.352
13041SOL    HW241021  10.358   5.302  12.237
13042SOL     OW41022   8.802   5.149   8.650
13042SOL    HW141023   8.829   5.096   8.576
13042SOL    HW241024   8.881   5.194   8.678
13043SOL     OW41025   5.340   0.124   5.894
13043SOL    HW141026   5.407   0.164   5.949
13043SOL    HW241027   5.389   0.072   5.830
13044SOL     OW41028  11.451   9.385   4.900
13044SOL    HW141029  11.442   9.296   4.934
13044SOL    HW241030  11.362   9.409   4.873
13045SOL     OW41031   0.257   9.086   1.224
13045SOL    HW141032   0.279   9.111   1.313
13045SOL    HW241033   0.300   9.152   1.169
13046SOL     OW41034   5.084  13.343   6.120
13046SOL    HW141035   5.019  13.406   6.153
13046SOL    HW241036   5.035  13.287   6.060
13047SOL     OW41037   3.533   4.126  10.315
13047SOL    HW141038   3.544   4.047  10.263
13047SOL    HW241039   3.510   4.194  10.252
13048SOL     OW41040   4.495   4.255  12.239
13048SOL    HW141041   4.476   4.299  12.156
13048SOL    HW241042   4.553   4.316  12.285
13049SOL     OW41043   0.208  11.137  11.238
13049SOL    HW141044   0.241  11.180  11.317
13049SOL    HW241045   0.197  11.208  11.175
13050SOL     OW41046   2.980  14.317  13.570
13050SOL    HW141047   2.985  14.406  13.534
13050SOL    HW241048   3.065  14.278  13.550
13051SOL     OW41049  14.351  14.465  12.731
13051SOL    HW141050  14.280  14.528  12.726
13051SOL    HW241051  14.313  14.389  12.774
13052SOL     OW41052  13.168   2.091  11.792
13052SOL    HW141053  13.094   2.041  11.825
13052SOL    HW241054  13.245   2.044  11.823
13053SOL     OW41055   2.257   8.876   4.770
13053SOL    HW141056   2.337   8.908   4.812
13053SOL    HW241057   2.278   8.872   4.677
13054SOL     OW41058   3.078   8.138   2.868
13054SOL    HW141059   3.132   8.204   2.911
13054SOL    HW241060   3.080   8.162   2.775
13055SOL     OW41061   2.712   6.809   7.839
13055SOL    HW141062   2.729   6.735   7.897
13055SOL    HW241063   2.627   6.789   7.799
13056SOL     OW41064   1.972  11.190   1.027
13056SOL    HW141065   1.883  11.165   1.005
13056SOL    HW241066   1.976  11.187   1.122
13057SOL     OW41067  10.716  14.095   9.200
13057SOL    HW141068  10.802  14.062   9.175
13057SOL    HW241069  10.663  14.087   9.120
13058SOL     OW41070  14.384   0.512  12.224
13058SOL    HW141071  14.453   0.544  12.165
13058SOL    HW241072  14.328   0.459  12.168
13059SOL     OW41073  12.534   7.741   1.982
13059SOL    HW141074  12.446   7.758   1.948
13059SOL    HW241075  12.549   7.648   1.965
13060SOL     OW41076   4.842   2.459   7.624
13060SOL    HW141077   4.915   2.415   7.580
13060SOL    HW241078   4.803   2.392   7.680
13061SOL     OW41079   5.425  11.477  13.510
13061SOL    HW141080   5.367  11.548  13.482
13061SOL    HW241081   5.452  11.435  13.428
13062SOL     OW41082  12.550   8.404   4.970
13062SOL    HW141083  12.561   8.457   4.891
13062SOL    HW241084  12.630   8.351   4.975
13063SOL     OW41085   7.038   2.342  13.545
13063SOL    HW141086   7.086   2.277  13.598
13063SOL    HW241087   6.949   2.341  13.581
13064SOL     OW41088   0.173  13.312  13.196
13064SOL    HW141089   0.154  13.232  13.245
13064SOL    HW241090   0.207  13.373  13.262
13065SOL     OW41091   5.460  10.228   2.960
13065SOL    HW141092   5.458  10.169   2.884
13065SOL    HW241093   5.371  10.263   2.965
13066SOL     OW41094   1.556   4.208   6.635
13066SOL    HW141095   1.510   4.143   6.581
13066SOL    HW241096   1.565   4.166   6.720
13067SOL     OW41097   8.121   4.566   6.819
13067SOL    HW141098   8.116   4.517   6.902
13067SOL    HW241099   8.036   4.553   6.778
13068SOL     OW41100   3.856   6.202   0.927
13068SOL    HW141101   3.817   6.239   0.847
13068SOL    HW241102   3.809   6.120   0.940
13069SOL     OW41103  10.570   2.122   7.451
13069SOL    HW141104  10.568   2.192   7.386
13069SOL    HW241105  10.631   2.057   7.415
13070SOL     OW41106   3.217  13.169   5.159
13070SOL    HW141107   3.145  13.149   5.219
13070SOL    HW241108   3.257  13.084   5.141
13071SOL     OW41109   5.446   2.867  13.999
13071SOL    HW141110   5.416   2.911  14.078
13071SOL    HW241111   5.497   2.934  13.952
13072SOL     OW41112  14.210  14.249   3.097
13072SOL    HW141113  14.247  14.325   3.142
13072SOL    HW241114  14.235  14.261   3.006
13073SOL     OW41115   9.681  13.097   8.250
13073SOL    HW141116   9.665  13.146   8.330
13073SOL    HW241117   9.603  13.042   8.239
13074SOL     OW41118  14.705   9.480   8.616
13074SOL    HW141119  14.766   9.420   8.659
13074SOL    HW241120  14.759   9.526   8.552
13075SOL     OW41121  14.733   5.613   9.774
13075SOL    HW141122  14.758   5.705   9.776
13075SOL    HW241123  14.770   5.576   9.854
13076SOL     OW41124   1.900  13.862  10.780
13076SOL    HW141125   1.940  13.840  10.864
13076SOL    HW241126   1.918  13.956  10.769
13077SOL     OW41127   2.918  10.592   2.367
13077SOL    HW141128   2.986  10.564   2.428
13077SOL    HW241129   2.939  10.684   2.349
13078SOL     OW41130  13.972   2.242  11.175
13078SOL    HW141131  13.939   2.189  11.103
13078SOL    HW241132  14.064   2.217  11.183
13079SOL     OW41133   4.309  13.295   7.369
13079SOL    HW141134   4.397  13.257   7.361
13079SOL    HW241135   4.273  13.255   7.448
13080SOL     OW41136   7.691   1.221   2.666
13080SOL    HW141137   7.601   1.191   2.665
13080SOL    HW241138   7.689   1.302   2.716
13081SOL     OW41139  10.058   1.775   0.736
13081SOL    HW141140   9.973   1.764   0.778
13081SOL    HW241141  10.108   1.698   0.761
13082SOL     OW41142   7.232   1.525   4.059
13082SOL    HW141143   7.314   1.491   4.023
13082SOL    HW241144   7.217   1.473   4.139
13083SOL     OW41145   7.599   9.386   3.338
13083SOL    HW141146   7.653   9.404   3.261
13083SOL    HW241147   7.560   9.471   3.361
13084SOL     OW41148   9.709  13.599   8.698
13084SOL    HW141149   9.717  13.694   8.691
13084SOL    HW241150   9.615  13.582   8.704
13085SOL     OW41151  14.693  14.518   7.789
13085SOL    HW141152  14.765  14.478   7.838
13085SOL    HW241153  14.644  14.567   7.854
13086SOL     OW41154   1.288   4.015   4.516
13086SOL    HW141155   1.328   4.042   4.433
13086SOL    HW241156   1.278   3.921   4.508
13087SOL     OW41157   7.839   6.477   7.166
13087SOL    HW141158   7.747   6.467   7.144
13087SOL    HW241159   7.882   6.493   7.082
13088SOL     OW41160   0.699  13.575   3.398
13088SOL    HW141161   0.742  13.588   3.314
13088SOL    HW241162   0.616  13.532   3.377
13089SOL     OW41163   9.161   5.499   5.262
13089SOL    HW141164   9.223   5.473   5.330
13089SOL    HW241165   9.075   5.488   5.301
13090SOL     OW41166   7.616   7.341   3.151
13090SOL    HW141167   7.680   7.287   3.106
13090SOL    HW241168   7.668   7.410   3.193
13091SOL     OW41169   9.250   5.668   8.427
13091SOL    HW141170   9.278   5.749   8.469
13091SOL    HW241171   9.186   5.630   8.487
13092SOL     OW41172   3.713   4.638   1.991
13092SOL    HW141173   3.689   4.602   2.076
13092SOL    HW241174   3.649   4.708   1.975
13093SOL     OW41175   4.477   6.971   3.732
13093SOL    HW141176   4.531   7.042   3.697
13093SOL    HW241177   4.425   7.012   3.801
13094SOL     OW41178  10.479   9.436   6.437
13094SOL    HW141179  10.544   9.454   6.505
13094SOL    HW241180  10.395   9.444   6.482
13095SOL     OW41181  13.941  11.058  10.561
13095SOL    HW141182  13.918  11.041  10.652
13095SOL    HW241183  13.863  11.035  10.512
13096SOL     OW41184   6.709  13.259   8.284
13096SOL    HW141185   6.739  13.263   8.193
13096SOL    HW241186   6.646  13.331   8.291
13097SOL     OW41187   5.823  10.170   0.203
13097SOL    HW141188   5.784  10.116   0.271
13097SOL    HW241189   5.758  10.238   0.185
13098SOL     OW41190  10.453   6.735   4.416
13098SOL    HW141191  10.413   6.802   4.472
13098SOL    HW241192  10.380   6.703   4.362
13099SOL     OW41193   0.169   8.933  13.281
13099SOL    HW141194   0.104   8.863  13.289
13099SOL    HW241195   0.188   8.958  13.372
13100SOL     OW41196   4.482   2.780   9.086
13100SOL    HW141197   4.443   2.708   9.036
13100SOL    HW241198   4.531   2.830   9.022
13101SOL     OW41199   2.366  13.269   0.070
13101SOL    HW141200   2.385  13.176   0.061
13101SOL    HW241201   2.282  13.272   0.117
13102SOL     OW41202   1.683   0.922   8.788
13102SOL    HW141203   1.703   0.974   8.710
13102SOL    HW241204   1.722   0.972   8.860
13103SOL     OW41205  12.512   3.979   1.413
13103SOL    HW141206  12.539   3.979   1.321
13103SOL    HW241207  12.537   3.893   1.446
13104SOL     OW41208   8.692  11.501  14.307
13104SOL    HW141209   8.628  11.456  14.253
13104SOL    HW241210   8.641  11.543  14.376
13105SOL     OW41211   5.182   7.002   3.040
13105SOL    HW141212   5.140   6.921   3.010
13105SOL    HW241213   5.254   7.015   2.977
13106SOL     OW41214   2.552   1.888  12.952
13106SOL    HW141215   2.482   1.823  12.945
13106SOL    HW241216   2.630   1.837  12.974
13107SOL     OW41217   6.829  10.312   3.220
13107SOL    HW141218   6.736  10.311   3.200
13107SOL    HW241219   6.864  10.235   3.176
13108SOL     OW41220   5.735   5.334  12.790
13108SOL    HW141221   5.707   5.248  12.823
13108SOL    HW241222   5.776   5.316  12.706
13109SOL     OW41223   4.447   3.689   8.322
13109SOL    HW141224   4.390   3.627   8.276
13109SOL    HW241225   4.514   3.634   8.364
13110SOL     OW41226   4.289   4.422  12.647
13110SOL    HW141227   4.303   4.496  12.588
13110SOL    HW241228   4.219   4.451  12.705
13111SOL     OW41229   4.203   3.922   1.192
13111SOL    HW141230   4.238   3.832   1.190
13111SOL    HW241231   4.280   3.977   1.205
13112SOL     OW41232   7.448   9.988   3.216
13112SOL    HW141233   7.452   9.928   3.290
13112SOL    HW241234   7.365  10.034   3.226
13113SOL     OW41235   8.515  13.227  14.374
13113SOL    HW141236   8.585  13.161  14.376
13113SOL    HW241237   8.439  13.181  14.409
13114SOL     OW41238  11.897   0.147   3.770
13114SOL    HW141239  11.873   0.234   3.803
13114SOL    HW241240  11.918   0.096   3.848
13115SOL     OW41241  13.916   0.915   3.701
13115SOL    HW141242  13.837   0.861   3.698
13115SOL    HW241243  13.910   0.961   3.785
13116SOL     OW41244  12.116   3.389   3.565
13116SOL    HW141245  12.114   3.300   3.529
13116SOL    HW241246  12.033   3.396   3.614
13117SOL     OW41247  12.399   9.608   9.488
13117SOL    HW141248  12.352   9.563   9.418
13117SOL    HW241249  12.474   9.648   9.444
13118SOL     OW41250  11.292  13.478  12.676
13118SOL    HW141251  11.224  13.498  12.741
13118SOL    HW241252  11.370  13.459  12.727
13119SOL     OW41253  13.954   4.532  13.325
13119SOL    HW141254  13.927   4.457  13.377
13119SOL    HW241255  13.994   4.494  13.246
13120SOL     OW41256   0.940  14.383   1.288
13120SOL    HW141257   1.020  14.349   1.249
13120SOL    HW241258   0.950  14.370   1.382
13121SOL     OW41259   2.844  12.549   7.808
13121SOL    HW141260   2.848  12.610   7.734
13121SOL    HW241261   2.756  12.560   7.844
13122SOL     OW41262  10.008   7.095  13.125
13122SOL    HW141263  10.019   7.121  13.217
13122SOL    HW241264  10.079   7.140  13.079
13123SOL     OW41265  11.774  13.029   9.157
13123SOL    HW141266  11.769  13.104   9.216
13123SOL    HW241267  11.793  12.955   9.214
13124SOL     OW41268   5.942   2.393   3.848
13124SOL    HW141269   5.921   2.465   3.787
13124SOL    HW241270   6.037   2.392   3.852
13125SOL     OW41271   5.163   9.431   7.259
13125SOL    HW141272   5.073   9.455   7.280
13125SOL    HW241273   5.179   9.350   7.307
13126SOL     OW41274   5.321  13.163   4.571
13126SOL    HW141275   5.351  13.247   4.535
13126SOL    HW241276   5.306  13.109   4.493
13127SOL     OW41277   5.708  14.099   0.655
13127SOL    HW141278   5.738  14.167   0.595
13127SOL    HW241279   5.768  14.025   0.640
13128SOL     OW41280  13.978   6.998   9.553
13128SOL    HW141281  13.909   7.048   9.597
13128SOL    HW241282  13.985   7.039   9.467
13129SOL     OW41283  14.251  11.774  12.159
13129SOL    HW141284  14.176  11.727  12.122
13129SOL    HW241285  14.217  11.817  12.237
13130SOL     OW41286   4.765   7.236   1.257
13130SOL    HW141287   4.707   7.203   1.188
13130SOL    HW241288   4.717   7.221   1.338
13131SOL     OW41289  13.106  12.073   9.044
13131SOL    HW141290  13.179  12.112   9.091
13131SOL    HW241291  13.139  11.989   9.013
13132SOL     OW41292  11.854   9.880   0.589
13132SOL    HW141293  11.790   9.877   0.518
13132SOL    HW241294  11.848   9.969   0.622
13133SOL     OW41295   6.411  11.753   4.601
13133SOL    HW141296   6.419  11.663   4.633
13133SOL    HW241297   6.437  11.748   4.509
13134SOL     OW41298  11.519   2.106   3.039
13134SOL    HW141299  11.434   2.110   3.083
13134SOL    HW241300  11.545   2.198   3.031
13135SOL     OW41301  11.583   1.217  12.822
13135SOL    HW141302  11.568   1.284  12.756
13135SOL    HW241303  11.566   1.260  12.906
13136SOL     OW41304  10.323   5.351   3.731
13136SOL    HW141305  10.409   5.392   3.728
13136SOL    HW241306  10.328   5.289   3.805
13137SOL     OW41307   7.040   6.348   9.623
13137SOL    HW141308   7.075   6.432   9.652
13137SOL    HW241309   6.947   6.365   9.607
13138SOL     OW41310   6.667   8.520  12.049
13138SOL    HW141311   6.693   8.436  12.087
13138SOL    HW241312   6.748   8.558  12.016
13139SOL     OW41313   9.020  12.133   7.440
13139SOL    HW141314   9.085  12.201   7.422
13139SOL    HW241315   9.028  12.072   7.367
13140SOL     OW41316  10.652   2.005   1.566
13140SOL    HW141317  10.661   2.085   1.514
13140SOL    HW241318  10.741   1.972   1.575
13141SOL     OW41319   3.927  14.817  12.408
13141SOL    HW141320   3.911  14.825  12.502
13141SOL    HW241321   4.022  14.816  12.400
13142SOL     OW41322   0.026   7.358   7.627
13142SOL    HW141323   0.092   7.426   7.614
13142SOL    HW241324  14.833   7.371   7.555
13143SOL     OW41325  12.061   8.996   0.538
13143SOL    HW141326  12.156   9.004   0.553
13143SOL    HW241327  12.049   8.906   0.510
13144SOL     OW41328  11.459   3.017   5.995
13144SOL    HW141329  11.412   3.097   5.969
13144SOL    HW241330  11.401   2.946   5.968
13145SOL     OW41331   6.685   1.424   7.026
13145SOL    HW141332   6.703   1.394   7.115
13145SOL    HW241333   6.693   1.345   6.972
13146SOL     OW41334  11.182   4.455   0.204
13146SOL    HW141335  11.111   4.391   0.195
13146SOL    HW241336  11.250   4.425   0.143
13147SOL     OW41337   2.170   3.242   2.060
13147SOL    HW141338   2.186   3.244   1.966
13147SOL    HW241339   2.159   3.149   2.081
13148SOL     OW41340   1.018   9.235   5.806
13148SOL    HW141341   1.038   9.142   5.812
13148SOL    HW241342   0.923   9.239   5.816
13149SOL     OW41343  14.416   4.075   9.186
13149SOL    HW141344  14.447   4.162   9.208
13149SOL    HW241345  14.440   4.020   9.261
13150SOL     OW41346   4.914  14.718   6.686
13150SOL    HW141347   4.873  14.743   6.769
13150SOL    HW241348   4.860  14.760   6.619
13151SOL     OW41349  12.266   2.677   3.731
13151SOL    HW141350  12.309   2.754   3.770
13151SOL    HW241351  12.339   2.624   3.698
13152SOL     OW41352  14.063   2.932   2.967
13152SOL    HW141353  14.088   2.994   3.036
13152SOL    HW241354  13.968   2.925   2.974
13153SOL     OW41355   1.004   2.416   5.108
13153SOL    HW141356   0.954   2.417   5.189
13153SOL    HW241357   0.964   2.346   5.056
13154SOL     OW41358   9.931   0.378   5.470
13154SOL    HW141359   9.905   0.362   5.560
13154SOL    HW241360   9.903   0.468   5.453
13155SOL     OW41361  14.238  12.382  12.658
13155SOL    HW141362  14.232  12.294  12.620
13155SOL    HW241363  14.181  12.380  12.734
13156SOL     OW41364   3.407   7.529   6.219
13156SOL    HW141365   3.456   7.611   6.219
13156SOL    HW241366   3.458   7.470   6.163
13157SOL     OW41367   5.373   5.695  11.608
13157SOL    HW141368   5.340   5.686  11.519
13157SOL    HW241369   5.393   5.789  11.617
13158SOL     OW41370   6.359  14.208   9.412
13158SOL    HW141371   6.375  14.199   9.506
13158SOL    HW241372   6.435  14.166   9.371
13159SOL     OW41373   8.794  13.509   7.678
13159SOL    HW141374   8.862  13.546   7.734
13159SOL    HW241375   8.730  13.580   7.668
13160SOL     OW41376  12.146   4.857   6.306
13160SOL    HW141377  12.180   4.875   6.393
13160SOL    HW241378  12.215   4.805   6.264
13161SOL     OW41379   4.845   7.435   7.463
13161SOL    HW141380   4.786   7.365   7.491
13161SOL    HW241381   4.836   7.503   7.531
13162SOL     OW41382  10.519   1.132  11.627
13162SOL    HW141383  10.559   1.135  11.540
13162SOL    HW241384  10.592   1.113  11.686
13163SOL     OW41385  11.664   0.901  11.220
13163SOL    HW141386  11.611   0.952  11.158
13163SOL    HW241387  11.627   0.813  11.215
13164SOL     OW41388   9.351  10.596   5.810
13164SOL    HW141389   9.356  10.661   5.880
13164SOL    HW241390   9.263  10.558   5.818
13165SOL     OW41391   8.787   0.263   4.998
13165SOL    HW141392   8.786   0.256   4.903
13165SOL    HW241393   8.762   0.354   5.015
13166SOL     OW41394  12.989  14.330   1.643
13166SOL    HW141395  13.034  14.332   1.728
13166SOL    HW241396  12.950  14.417   1.635
13167SOL     OW41397   2.593  12.289   1.106
13167SOL    HW141398   2.675  12.329   1.077
13167SOL    HW241399   2.578  12.218   1.044
13168SOL     OW41400  11.221   8.475  11.412
13168SOL    HW141401  11.283   8.547  11.422
13168SOL    HW241402  11.141   8.507  11.455
13169SOL     OW41403   6.280  13.161   0.919
13169SOL    HW141404   6.360  13.119   0.950
13169SOL    HW241405   6.290  13.253   0.944
13170SOL     OW41406   6.490   8.799  10.051
13170SOL    HW141407   6.548   8.800  10.128
13170SOL    HW241408   6.471   8.706  10.038
13171SOL     OW41409   7.172   6.237   3.144
13171SOL    HW141410   7.179   6.142   3.141
13171SOL    HW241411   7.125   6.260   3.063
13172SOL     OW41412   1.397   1.180   2.761
13172SOL    HW141413   1.442   1.263   2.743
13172SOL    HW241414   1.324   1.177   2.699
13173SOL     OW41415   6.999  11.142  13.978
13173SOL    HW141416   7.084  11.112  14.012
13173SOL    HW241417   6.942  11.066  13.987
13174SOL     OW41418  11.894   7.525   5.619
13174SOL    HW141419  11.974   7.571   5.643
13174SOL    HW241420  11.923   7.441   5.585
13175SOL     OW41421   3.403   9.371   3.631
13175SOL    HW141422   3.494   9.392   3.609
13175SOL    HW241423   3.406   9.283   3.668
13176SOL     OW41424   6.997   5.615  10.808
13176SOL    HW141425   7.051   5.629  10.730
13176SOL    HW241426   6.966   5.703  10.832
13177SOL     OW41427   3.979   0.726  13.763
13177SOL    HW141428   4.014   0.673  13.836
13177SOL    HW241429   4.054   0.737  13.704
13178SOL     OW41430   1.127   4.218   7.794
13178SOL    HW141431   1.035   4.241   7.779
13178SOL    HW241432   1.130   4.123   7.783
13179SOL     OW41433  12.555   7.856   4.039
13179SOL    HW141434  12.627   7.808   4.081
13179SOL    HW241435  12.591   7.885   3.955
13180SOL     OW41436   9.169   6.167   3.847
13180SOL    HW141437   9.258   6.193   3.824
13180SOL    HW241438   9.163   6.075   3.821
13181SOL     OW41439   5.318   5.476  14.841
13181SOL    HW141440   5.341   5.534   0.045
13181SOL    HW241441   5.226   5.496  14.824
13182SOL     OW41442   8.211  10.843  14.853
13182SOL    HW141443   8.195  10.766   0.038
13182SOL    HW241444   8.144  10.839  14.785
13183SOL     OW41445  12.022  13.984   3.719
13183SOL    HW141446  11.951  14.014   3.776
13183SOL    HW241447  12.070  13.921   3.773
13184SOL     OW41448  14.469   4.570  10.755
13184SOL    HW141449  14.509   4.518  10.825
13184SOL    HW241450  14.463   4.508  10.681
13185SOL     OW41451   0.997  13.434   3.304
13185SOL    HW141452   0.943  13.357   3.287
13185SOL    HW241453   1.064  13.433   3.235
13186SOL     OW41454  12.710   9.255  12.863
13186SOL    HW141455  12.616   9.266  12.871
13186SOL    HW241456  12.728   9.175  12.913
13187SOL     OW41457   8.921   4.043  13.169
13187SOL    HW141458   8.975   4.058  13.091
13187SOL    HW241459   8.834   4.074  13.143
13188SOL     OW41460   4.020   4.308   3.225
13188SOL    HW141461   3.956   4.257   3.173
13188SOL    HW241462   4.065   4.362   3.160
13189SOL     OW41463   4.971   4.651  14.700
13189SOL    HW141464   5.032   4.589  14.661
13189SOL    HW241465   4.974   4.727  14.642
13190SOL     OW41466   9.730   5.084  11.942
13190SOL    HW141467   9.704   5.122  12.025
13190SOL    HW241468   9.746   5.159  11.885
13191SOL     OW41469   5.426   7.346   2.635
13191SOL    HW141470   5.496   7.298   2.680
13191SOL    HW241471   5.363   7.367   2.704
13192SOL     OW41472   3.978  10.581   2.254
13192SOL    HW141473   4.001  10.508   2.198
13192SOL    HW241474   4.016  10.658   2.210
13193SOL     OW41475  14.023  11.830   5.386
13193SOL    HW141476  14.047  11.747   5.346
13193SOL    HW241477  14.039  11.895   5.318
13194SOL     OW41478   8.256   1.521  11.701
13194SOL    HW141479   8.289   1.479  11.780
13194SOL    HW241480   8.330   1.519  11.640
13195SOL     OW41481   5.492   1.245   3.852
13195SOL    HW141482   5.410   1.240   3.804
13195SOL    HW241483   5.471   1.296   3.931
13196SOL     OW41484   2.603   0.116  10.125
13196SOL    HW141485   2.622   0.039  10.071
13196SOL    HW241486   2.531   0.161  10.079
13197SOL     OW41487  11.990   1.911  10.569
13197SOL    HW141488  12.012   1.836  10.623
13197SOL    HW241489  11.966   1.980  10.632
13198SOL     OW41490   2.636  12.717   0.150
13198SOL    HW141491   2.558  12.712   0.205
13198SOL    HW241492   2.707  12.736   0.212
13199SOL     OW41493   8.788   1.424  11.331
13199SOL    HW141494   8.713   1.388  11.377
13199SOL    HW241495   8.864   1.390  11.379
13200SOL     OW41496   4.229  11.699   1.651
13200SOL    HW141497   4.136  11.707   1.670
13200SOL    HW241498   4.243  11.606   1.637
13201SOL     OW41499   3.540  10.108   8.857
13201SOL    HW141500   3.540  10.134   8.765
13201SOL    HW241501   3.596  10.172   8.900
13202SOL     OW41502   7.191  10.285   6.173
13202SOL    HW141503   7.118  10.223   6.181
13202SOL    HW241504   7.242  10.272   6.252
13203SOL     OW41505  13.384   9.792   5.339
13203SOL    HW141506  13.347   9.872   5.375
13203SOL    HW241507  13.312   9.752   5.291
13204SOL     OW41508   8.167   4.225  13.846
13204SOL    HW141509   8.215   4.153  13.888
13204SOL    HW241510   8.236   4.285  13.817
13205SOL     OW41511   0.084  11.542   9.804
13205SOL    HW141512   0.157  11.590   9.765
13205SOL    HW241513   0.078  11.574   9.894
13206SOL     OW41514   7.670  11.848   2.592
13206SOL    HW141515   7.729  11.801   2.533
13206SOL    HW241516   7.582  11.823   2.562
13207SOL     OW41517   4.020   0.057   1.996
13207SOL    HW141518   4.013   0.033   1.904
13207SOL    HW241519   4.114   0.057   2.013
13208SOL     OW41520   8.043   0.187  13.195
13208SOL    HW141521   8.086   0.166  13.112
13208SOL    HW241522   8.101   0.250  13.237
13209SOL     OW41523   1.582   6.498   2.648
13209SOL    HW141524   1.570   6.449   2.566
13209SOL    HW241525   1.605   6.432   2.713
13210SOL     OW41526  11.877  13.122   7.940
13210SOL    HW141527  11.930  13.048   7.967
13210SOL    HW241528  11.871  13.177   8.018
13211SOL     OW41529   8.107  13.736   7.444
13211SOL    HW141530   8.036  13.738   7.380
13211SOL    HW241531   8.079  13.796   7.513
13212SOL     OW41532   3.025   5.794   3.550
13212SOL    HW141533   3.075   5.761   3.475
13212SOL    HW241534   3.090   5.839   3.605
13213SOL     OW41535  13.067   0.145   0.537
13213SOL    HW141536  13.016   0.117   0.613
13213SOL    HW241537  13.135   0.077   0.528
13214SOL     OW41538   6.218  11.900  11.951
13214SOL    HW141539   6.184  11.986  11.924
13214SOL    HW241540   6.309  11.900  11.922
13215SOL     OW41541   7.918  10.853   6.084
13215SOL    HW141542   7.856  10.782   6.100
13215SOL    HW241543   7.900  10.881   5.994
13216SOL     OW41544  10.387   4.608  10.064
13216SOL    HW141545  10.364   4.516  10.051
13216SOL    HW241546  10.421   4.637   9.980
13217SOL     OW41547   2.170  10.284   2.805
13217SOL    HW141548   2.225  10.217   2.846
13217SOL    HW241549   2.112  10.313   2.875
13218SOL     OW41550  11.101   6.093  10.694
13218SOL    HW141551  11.084   6.125  10.782
13218SOL    HW241552  11.079   6.000  10.698
13219SOL     OW41553   2.645   0.426  14.164
13219SOL    HW141554   2.697   0.427  14.084
13219SOL    HW241555   2.573   0.365  14.146
13220SOL     OW41556  12.901   0.611   2.932
13220SOL    HW141557  12.876   0.650   2.849
13220SOL    HW241558  12.877   0.518   2.924
13221SOL     OW41559   2.782   3.175   8.239
13221SOL    HW141560   2.842   3.108   8.205
13221SOL    HW241561   2.794   3.172   8.333
13222SOL     OW41562   4.559   5.504  14.074
13222SOL    HW141563   4.550   5.566  14.002
13222SOL    HW241564   4.644   5.525  14.113
13223SOL     OW41565   6.988  14.846   2.178
13223SOL    HW141566   7.051   0.024   2.125
13223SOL    HW241567   7.026  14.759   2.188
13224SOL     OW41568   0.942   3.654  14.620
13224SOL    HW141569   0.954   3.689  14.708
13224SOL    HW241570   1.031   3.641  14.587
13225SOL     OW41571   3.704  14.541  10.658
13225SOL    HW141572   3.774  14.477  10.646
13225SOL    HW241573   3.698  14.552  10.753
13226SOL     OW41574   1.813  13.679   6.583
13226SOL    HW141575   1.772  13.602   6.544
13226SOL    HW241576   1.755  13.701   6.656
13227SOL     OW41577  12.064   5.458   2.834
13227SOL    HW141578  12.115   5.488   2.758
13227SOL    HW241579  11.977   5.441   2.800
13228SOL     OW41580   9.141   2.879   1.852
13228SOL    HW141581   9.210   2.920   1.801
13228SOL    HW241582   9.121   2.942   1.922
13229SOL     OW41583  14.823  13.965   2.878
13229SOL    HW141584  14.756  13.898   2.885
13229SOL    HW241585  14.774  14.045   2.859
13230SOL     OW41586   2.082   1.991  13.398
13230SOL    HW141587   2.042   1.950  13.322
13230SOL    HW241588   2.176   1.988  13.381
13231SOL     OW41589  10.812   1.162   7.143
13231SOL    HW141590  10.793   1.226   7.212
13231SOL    HW241591  10.804   1.077   7.186
13232SOL     OW41592   9.046   1.178   8.451
13232SOL    HW141593   9.016   1.255   8.401
13232SOL    HW241594   9.012   1.103   8.402
13233SOL     OW41595   7.606   5.627   2.791
13233SOL    HW141596   7.636   5.564   2.857
13233SOL    HW241597   7.566   5.698   2.842
13234SOL     OW41598   2.506  11.718   8.736
13234SOL    HW141599   2.592  11.760   8.731
13234SOL    HW241600   2.448  11.787   8.768
13235SOL     OW41601  10.440   2.468  13.831
13235SOL    HW141602  10.471   2.448  13.743
13235SOL    HW241603  10.351   2.434  13.834
13236SOL     OW41604   8.393   5.508  11.000
13236SOL    HW141605   8.332   5.477  10.934
13236SOL    HW241606   8.437   5.429  11.031
13237SOL     OW41607   8.711   1.752   4.681
13237SOL    HW141608   8.651   1.718   4.614
13237SOL    HW241609   8.655   1.776   4.754
13238SOL     OW41610  11.643   7.261   5.504
13238SOL    HW141611  11.612   7.335   5.557
13238SOL    HW241612  11.566   7.204   5.496
13239SOL     OW41613   6.768   1.377  10.595
13239SOL    HW141614   6.799   1.331  10.517
13239SOL    HW241615   6.683   1.414  10.569
13240SOL     OW41616   5.291   2.765   2.934
13240SOL    HW141617   5.246   2.762   3.018
13240SOL    HW241618   5.229   2.729   2.872
13241SOL     OW41619  10.536   2.484   8.720
13241SOL    HW141620  10.551   2.477   8.814
13241SOL    HW241621  10.623   2.470   8.681
13242SOL     OW41622  13.387   2.558   0.801
13242SOL    HW141623  13.325   2.631   0.809
13242SOL    HW241624  13.459   2.581   0.860
13243SOL     OW41625   0.794   8.187  12.689
13243SOL    HW141626   0.827   8.273  12.662
13243SOL    HW241627   0.783   8.139  12.608
13244SOL     OW41628  14.183  14.612   5.299
13244SOL    HW141629  14.111  14.672   5.320
13244SOL    HW241630  14.227  14.597   5.383
13245SOL     OW41631   6.032  12.421   9.076
13245SOL    HW141632   6.110  12.438   9.023
13245SOL    HW241633   6.006  12.508   9.108
13246SOL     OW41634   3.665  14.342  13.515
13246SOL    HW141635   3.600  14.338  13.585
13246SOL    HW241636   3.686  14.436  13.508
13247SOL     OW41637  10.016   8.817   6.092
13247SOL    HW141638   9.979   8.850   6.010
13247SOL    HW241639   9.940   8.790   6.143
13248SOL     OW41640   7.489  10.040  14.587
13248SOL    HW141641   7.463  10.109  14.526
13248SOL    HW241642   7.571  10.006  14.551
13249SOL     OW41643  14.634   3.195  13.808
13249SOL    HW141644  14.719   3.217  13.768
13249SOL    HW241645  14.653   3.121  13.866
13250SOL     OW41646   3.869   5.831   2.008
13250SOL    HW141647   3.894   5.915   2.045
13250SOL    HW241648   3.947   5.777   2.016
13251SOL     OW41649   4.275   4.842   8.369
13251SOL    HW141650   4.338   4.871   8.303
13251SOL    HW241651   4.222   4.775   8.325
13252SOL     OW41652   8.134  13.203   5.993
13252SOL    HW141653   8.107  13.132   5.935
13252SOL    HW241654   8.052  13.244   6.021
13253SOL     OW41655   3.536  13.487   4.677
13253SOL    HW141656   3.453  13.444   4.699
13253SOL    HW241657   3.597  13.415   4.663
13254SOL     OW41658   7.277   6.132   7.341
13254SOL    HW141659   7.282   6.079   7.421
13254SOL    HW241660   7.201   6.098   7.294
13255SOL     OW41661   8.960   9.035   3.508
13255SOL    HW141662   8.916   9.119   3.494
13255SOL    HW241663   8.939   9.012   3.598
13256SOL     OW41664   4.965   6.278   0.631
13256SOL    HW141665   4.903   6.301   0.562
13256SOL    HW241666   5.051   6.287   0.589
13257SOL     OW41667   8.686   4.191   1.986
13257SOL    HW141668   8.640   4.129   2.044
13257SOL    HW241669   8.731   4.135   1.923
13258SOL     OW41670   1.679   9.598  12.190
13258SOL    HW141671   1.602   9.612  12.136
13258SOL    HW241672   1.655   9.635  12.276
13259SOL     OW41673   4.579   3.591   1.162
13259SOL    HW141674   4.566   3.651   1.236
13259SOL    HW241675   4.620   3.514   1.201
13260SOL     OW41676   4.740   6.926  14.540
13260SOL    HW141677   4.771   6.859  14.480
13260SOL    HW241678   4.645   6.914  14.542
13261SOL     OW41679  13.050   7.228  12.348
13261SOL    HW141680  12.963   7.247  12.313
13261SOL    HW241681  13.091   7.313  12.358
13262SOL     OW41682   6.182  12.145   2.278
13262SOL    HW141683   6.245  12.097   2.332
13262SOL    HW241684   6.233  12.171   2.201
13263SOL     OW41685   6.768   2.497   6.166
13263SOL    HW141686   6.742   2.426   6.108
13263SOL    HW241687   6.723   2.574   6.131
13264SOL     OW41688   8.467   1.691  14.629
13264SOL    HW141689   8.499   1.757  14.568
13264SOL    HW241690   8.397   1.647  14.581
13265SOL     OW41691   5.852   4.759   2.644
13265SOL    HW141692   5.944   4.782   2.631
13265SOL    HW241693   5.851   4.665   2.657
13266SOL     OW41694   0.753   4.567   8.615
13266SOL    HW141695   0.781   4.479   8.587
13266SOL    HW241696   0.833   4.620   8.609
13267SOL     OW41697  10.172   6.600   0.827
13267SOL    HW141698  10.139   6.593   0.738
13267SOL    HW241699  10.156   6.691   0.852
13268SOL     OW41700   2.299  13.522   2.254
13268SOL    HW141701   2.352  13.542   2.331
13268SOL    HW241702   2.361  13.490   2.189
13269SOL     OW41703   8.148   3.034   6.943
13269SOL    HW141704   8.117   2.947   6.968
13269SOL    HW241705   8.124   3.042   6.851
13270SOL     OW41706  14.719   6.489   1.050
13270SOL    HW141707  14.765   6.416   1.091
13270SOL    HW241708  14.639   6.451   1.015
13271SOL     OW41709   1.386  11.614   5.329
13271SOL    HW141710   1.455  11.668   5.367
13271SOL    HW241711   1.412  11.602   5.238
13272SOL     OW41712   8.626   5.257  13.310
13272SOL    HW141713   8.595   5.167  13.308
13272SOL    HW241714   8.550   5.307  13.342
13273SOL     OW41715  13.639  12.013   4.171
13273SOL    HW141716  13.589  12.034   4.249
13273SOL    HW241717  13.662  11.921   4.181
13274SOL     OW41718   7.350  12.688  12.480
13274SOL    HW141719   7.358  12.595  12.504
13274SOL    HW241720   7.414  12.700  12.410
13275SOL     OW41721   5.916   9.596   2.460
13275SOL    HW141722   5.886   9.526   2.518
13275SOL    HW241723   6.010   9.582   2.452
13276SOL     OW41724  11.428  14.621  11.642
13276SOL    HW141725  11.510  14.640  11.688
13276SOL    HW241726  11.430  14.679  11.566
13277SOL     OW41727   8.814  10.803  11.105
13277SOL    HW141728   8.804  10.739  11.035
13277SOL    HW241729   8.815  10.750  11.185
13278SOL     OW41730   9.914  11.405   3.563
13278SOL    HW141731   9.861  11.445   3.633
13278SOL    HW241732   9.957  11.331   3.605
13279SOL     OW41733  10.662   9.822   1.728
13279SOL    HW141734  10.739   9.817   1.786
13279SOL    HW241735  10.694   9.792   1.643
13280SOL     OW41736   6.361   6.521   9.940
13280SOL    HW141737   6.283   6.467   9.948
13280SOL    HW241738   6.431   6.469   9.981
13281SOL     OW41739   0.265  13.442   5.492
13281SOL    HW141740   0.224  13.452   5.406
13281SOL    HW241741   0.204  13.387   5.542
13282SOL     OW41742   0.314   3.865   7.448
13282SOL    HW141743   0.336   3.798   7.383
13282SOL    HW241744   0.289   3.942   7.397
13283SOL     OW41745  13.430   4.012  10.504
13283SOL    HW141746  13.404   3.971  10.587
13283SOL    HW241747  13.525   4.011  10.506
13284SOL     OW41748   7.958   4.275  10.026
13284SOL    HW141749   7.891   4.342  10.016
13284SOL    HW241750   8.041   4.322  10.018
13285SOL     OW41751   6.714  12.310  13.717
13285SOL    HW141752   6.759  12.296  13.634
13285SOL    HW241753   6.625  12.277  13.702
13286SOL     OW41754  12.630   0.255  10.545
13286SOL    HW141755  12.715   0.229  10.511
13286SOL    HW241756  12.576   0.177  10.536
13287SOL     OW41757   8.616   2.305   2.803
13287SOL    HW141758   8.654   2.392   2.815
13287SOL    HW241759   8.526   2.321   2.774
13288SOL     OW41760  10.452   7.726   2.327
13288SOL    HW141761  10.464   7.821   2.323
13288SOL    HW241762  10.451   7.706   2.421
13289SOL     OW41763  10.064  10.149   6.763
13289SOL    HW141764   9.994  10.177   6.703
13289SOL    HW241765  10.135  10.211   6.748
13290SOL     OW41766   0.729   8.882   3.360
13290SOL    HW141767   0.661   8.900   3.424
13290SOL    HW241768   0.689   8.820   3.299
13291SOL     OW41769   4.403   8.634   4.920
13291SOL    HW141770   4.443   8.585   4.991
13291SOL    HW241771   4.425   8.584   4.841
13292SOL     OW41772   1.942   5.366   7.777
13292SOL    HW141773   1.967   5.457   7.761
13292SOL    HW241774   2.019   5.325   7.817
13293SOL     OW41775  14.195  12.560  14.287
13293SOL    HW141776  14.262  12.616  14.247
13293SOL    HW241777  14.182  12.489  14.224
13294SOL     OW41778   3.793   5.255  13.491
13294SOL    HW141779   3.734   5.296  13.554
13294SOL    HW241780   3.824   5.176  13.536
13295SOL     OW41781  13.377   2.838   2.885
13295SOL    HW141782  13.397   2.774   2.953
13295SOL    HW241783  13.289   2.870   2.907
13296SOL     OW41784   2.047   2.015   5.684
13296SOL    HW141785   1.999   1.970   5.614
13296SOL    HW241786   2.129   2.042   5.644
13297SOL     OW41787  12.559  10.213   4.123
13297SOL    HW141788  12.509  10.214   4.042
13297SOL    HW241789  12.649  10.230   4.096
13298SOL     OW41790   0.005   9.726  10.550
13298SOL    HW141791   0.079   9.785  10.538
13298SOL    HW241792  14.797   9.782  10.543
13299SOL     OW41793  13.400   7.700   3.798
13299SOL    HW141794  13.338   7.767   3.828
13299SOL    HW241795  13.463   7.691   3.869
13300SOL     OW41796  13.128   8.824  10.377
13300SOL    HW141797  13.168   8.780  10.452
13300SOL    HW241798  13.045   8.857  10.410
13301SOL     OW41799  13.250  13.738  10.606
13301SOL    HW141800  13.267  13.695  10.522
13301SOL    HW241801  13.256  13.668  10.671
13302SOL     OW41802   8.018  10.362   2.706
13302SOL    HW141803   8.045  10.280   2.664
13302SOL    HW241804   8.076  10.370   2.782
13303SOL     OW41805   1.197  10.021   3.567
13303SOL    HW141806   1.293  10.024   3.572
13303SOL    HW241807   1.177  10.033   3.474
13304SOL     OW41808  13.387   7.230   7.973
13304SOL    HW141809  13.345   7.316   7.980
13304SOL    HW241810  13.475   7.243   8.007
13305SOL     OW41811   7.783  13.952  13.457
13305SOL    HW141812   7.751  14.011  13.525
13305SOL    HW241813   7.776  13.865  13.495
13306SOL     OW41814   4.310   2.815   6.656
13306SOL    HW141815   4.309   2.910   6.659
13306SOL    HW241816   4.330   2.788   6.745
13307SOL     OW41817   3.980   5.460   3.341
13307SOL    HW141818   3.899   5.492   3.380
13307SOL    HW241819   4.018   5.401   3.406
13308SOL     OW41820   2.095   4.554  10.782
13308SOL    HW141821   2.129   4.527  10.696
13308SOL    HW241822   2.150   4.629  10.806
13309SOL     OW41823   0.315  14.595   7.062
13309SOL    HW141824   0.265  14.632   6.990
13309SOL    HW241825   0.250  14.582   7.132
13310SOL     OW41826   6.287  10.250   9.732
13310SOL    HW141827   6.231  10.308   9.680
13310SOL    HW241828   6.335  10.309   9.790
13311SOL     OW41829  11.550   9.595  10.466
13311SOL    HW141830  11.473   9.542  10.444
13311SOL    HW241831  11.531   9.681  10.429
13312SOL     OW41832  12.079  11.457  10.853
13312SOL    HW141833  12.131  11.531  10.822
13312SOL    HW241834  12.054  11.410  10.774
13313SOL     OW41835  14.750   3.625   4.328
13313SOL    HW141836  14.708   3.703   4.365
13313SOL    HW241837  14.682   3.558   4.332
13314SOL     OW41838   3.671   9.244   5.646
13314SOL    HW141839   3.749   9.277   5.690
13314SOL    HW241840   3.705   9.195   5.571
13315SOL     OW41841  12.369   5.872   3.365
13315SOL    HW141842  12.313   5.949   3.367
13315SOL    HW241843  12.329   5.816   3.298
13316SOL     OW41844   3.119   4.378   2.632
13316SOL    HW141845   3.057   4.405   2.700
13316SOL    HW241846   3.105   4.441   2.561
13317SOL     OW41847  11.782  13.370   0.587
13317SOL    HW141848  11.812  13.318   0.513
13317SOL    HW241849  11.721  13.434   0.550
13318SOL     OW41850  13.903  13.604   9.226
13318SOL    HW141851  13.844  13.540   9.265
13318SOL    HW241852  13.990  13.563   9.232
13319SOL     OW41853   9.965   4.949   8.203
13319SOL    HW141854  10.042   4.897   8.180
13319SOL    HW241855   9.990   5.039   8.181
13320SOL     OW41856   7.761   4.248   5.543
13320SOL    HW141857   7.758   4.153   5.540
13320SOL    HW241858   7.809   4.268   5.624
13321SOL     OW41859  14.643   0.510   4.764
13321SOL    HW141860  14.554   0.475   4.765
13321SOL    HW241861  14.632   0.601   4.735
13322SOL     OW41862   8.171   6.609  11.004
13322SOL    HW141863   8.257   6.646  11.022
13322SOL    HW241864   8.136   6.662  10.933
13323SOL     OW41865   7.665   7.081  13.106
13323SOL    HW141866   7.664   7.004  13.163
13323SOL    HW241867   7.750   7.121  13.121
13324SOL     OW41868   9.831   7.834   8.375
13324SOL    HW141869   9.906   7.798   8.422
13324SOL    HW241870   9.829   7.785   8.293
13325SOL     OW41871   6.294   3.568   4.837
13325SOL    HW141872   6.338   3.513   4.902
13325SOL    HW241873   6.252   3.637   4.887
13326SOL     OW41874  10.435  14.578   3.033
13326SOL    HW141875  10.463  14.664   3.064
13326SOL    HW241876  10.340  14.580   3.039
13327SOL     OW41877  10.790   3.024   5.938
13327SOL    HW141878  10.738   2.951   5.906
13327SOL    HW241879  10.785   3.090   5.869
13328SOL     OW41880   2.839  13.919  13.379
13328SOL    HW141881   2.799  14.005  13.372
13328SOL    HW241882   2.765  13.859  13.392
13329SOL     OW41883  12.098   8.751   0.217
13329SOL    HW141884  12.080   8.771   0.309
13329SOL    HW241885  12.151   8.825   0.187
13330SOL     OW41886   6.080   8.388   7.997
13330SOL    HW141887   6.088   8.463   8.056
13330SOL    HW241888   5.989   8.391   7.967
13331SOL     OW41889  12.867   6.400  13.849
13331SOL    HW141890  12.932   6.453  13.895
13331SOL    HW241891  12.826   6.348  13.919
13332SOL     OW41892   2.124   8.147  14.704
13332SOL    HW141893   2.083   8.171  14.620
13332SOL    HW241894   2.050   8.125  14.761
13333SOL     OW41895  11.485   6.956   4.162
13333SOL    HW141896  11.426   6.980   4.090
13333SOL    HW241897  11.487   6.860   4.161
13334SOL     OW41898  12.098  12.271  11.781
13334SOL    HW141899  12.081  12.177  11.771
13334SOL    HW241900  12.193  12.279  11.772
13335SOL     OW41901   0.655  12.547  11.922
13335SOL    HW141902   0.724  12.498  11.877
13335SOL    HW241903   0.699  12.622  11.961
13336SOL     OW41904   0.036   0.733   0.905
13336SOL    HW141905   0.010   0.641   0.897
13336SOL    HW241906  14.858   0.778   0.835
13337SOL     OW41907  13.301  14.176   9.927
13337SOL    HW141908  13.342  14.141   9.849
13337SOL    HW241909  13.208  14.159   9.915
13338SOL     OW41910   6.264  10.266   7.973
13338SOL    HW141911   6.183  10.279   7.924
13338SOL    HW241912   6.265  10.172   7.993
13339SOL     OW41913  11.969  12.245   1.643
13339SOL    HW141914  11.886  12.278   1.608
13339SOL    HW241915  11.961  12.253   1.738
13340SOL     OW41916  10.126   8.422  14.784
13340SOL    HW141917  10.090   8.504  14.753
13340SOL    HW241918  10.158   8.378  14.705
13341SOL     OW41919  11.326  10.200   7.069
13341SOL    HW141920  11.342  10.273   7.010
13341SOL    HW241921  11.230  10.193   7.073
13342SOL     OW41922   9.255   0.600   7.496
13342SOL    HW141923   9.189   0.641   7.552
13342SOL    HW241924   9.338   0.615   7.540
13343SOL     OW41925  10.194   7.081   0.888
13343SOL    HW141926  10.120   7.139   0.874
13343SOL    HW241927  10.270   7.130   0.857
13344SOL     OW41928  13.453  13.489   3.831
13344SOL    HW141929  13.474  13.432   3.904
13344SOL    HW241930  13.432  13.430   3.759
13345SOL     OW41931  10.770   8.780   8.678
13345SOL    HW141932  10.713   8.723   8.730
13345SOL    HW241933  10.856   8.739   8.684
13346SOL     OW41934   1.549   8.295   4.689
13346SOL    HW141935   1.569   8.245   4.610
13346SOL    HW241936   1.611   8.262   4.754
13347SOL     OW41937  13.966   1.535   1.788
13347SOL    HW141938  13.965   1.517   1.694
13347SOL    HW241939  13.976   1.630   1.795
13348SOL     OW41940   5.440   7.200   0.995
13348SOL    HW141941   5.501   7.246   1.053
13348SOL    HW241942   5.357   7.246   1.008
13349SOL     OW41943   6.112   2.591   7.994
13349SOL    HW141944   6.134   2.572   8.085
13349SOL    HW241945   6.116   2.506   7.950
13350SOL     OW41946   9.515   3.131   4.338
13350SOL    HW141947   9.547   3.220   4.322
13350SOL    HW241948   9.421   3.137   4.322
13351SOL     OW41949   1.027   3.926  13.302
13351SOL    HW141950   0.977   4.006  13.284
13351SOL    HW241951   1.105   3.957  13.347
13352SOL     OW41952   6.441   2.729  13.657
13352SOL    HW141953   6.505   2.693  13.718
13352SOL    HW241954   6.363   2.745  13.710
13353SOL     OW41955  14.309   9.525   3.462
13353SOL    HW141956  14.316   9.494   3.372
13353SOL    HW241957  14.264   9.609   3.456
13354SOL     OW41958  12.603   1.784   8.904
13354SOL    HW141959  12.638   1.772   8.992
13354SOL    HW241960  12.578   1.695   8.876
13355SOL     OW41961   9.732   3.020  11.145
13355SOL    HW141962   9.800   3.043  11.208
13355SOL    HW241963   9.759   2.935  11.111
13356SOL     OW41964   1.580   6.041   9.044
13356SOL    HW141965   1.607   6.053   9.135
13356SOL    HW241966   1.652   5.993   9.003
13357SOL     OW41967   2.035  10.327   9.793
13357SOL    HW141968   2.057  10.271   9.867
13357SOL    HW241969   2.004  10.267   9.725
13358SOL     OW41970   9.488   3.389  11.112
13358SOL    HW141971   9.480   3.296  11.136
13358SOL    HW241972   9.493   3.434  11.196
13359SOL     OW41973   4.914   0.612   9.763
13359SOL    HW141974   4.850   0.641   9.828
13359SOL    HW241975   4.994   0.598   9.812
13360SOL     OW41976   0.086  10.338   6.778
13360SOL    HW141977   0.165  10.367   6.823
13360SOL    HW241978   0.101  10.360   6.686
13361SOL     OW41979  14.494   7.605   8.651
13361SOL    HW141980  14.569   7.601   8.592
13361SOL    HW241981  14.512   7.538   8.717
13362SOL     OW41982   0.554   1.989  13.775
13362SOL    HW141983   0.486   1.959  13.836
13362SOL    HW241984   0.579   2.075  13.808
13363SOL     OW41985   3.859   8.108   1.513
13363SOL    HW141986   3.954   8.121   1.520
13363SOL    HW241987   3.843   8.102   1.419
13364SOL     OW41988   6.777   6.972  13.966
13364SOL    HW141989   6.870   6.956  13.985
13364SOL    HW241990   6.740   6.884  13.956
13365SOL     OW41991   2.471  10.377   5.174
13365SOL    HW141992   2.524  10.444   5.217
13365SOL    HW241993   2.511  10.294   5.201
13366SOL     OW41994   7.402   2.202   2.691
13366SOL    HW141995   7.380   2.120   2.735
13366SOL    HW241996   7.415   2.265   2.762
13367SOL     OW41997   3.714  13.375  13.303
13367SOL    HW141998   3.713  13.346  13.394
13367SOL    HW241999   3.742  13.467  13.307
13368SOL     OW42000   9.137  14.265   4.617
13368SOL    HW142001   9.113  14.174   4.636
13368SOL    HW242002   9.200  14.259   4.546
13369SOL     OW42003   7.392   6.500  11.675
13369SOL    HW142004   7.299   6.521  11.678
13369SOL    HW242005   7.435   6.579  11.709
13370SOL     OW42006   0.335  14.720   7.441
13370SOL    HW142007   0.278  14.682   7.375
13370SOL    HW242008   0.277  14.776   7.494
13371SOL     OW42009   3.587   7.237   0.394
13371SOL    HW142010   3.622   7.282   0.471
13371SOL    HW242011   3.652   7.169   0.374
13372SOL     OW42012   7.669   1.871   0.448
13372SOL    HW142013   7.756   1.897   0.478
13372SOL    HW242014   7.615   1.949   0.458
13373SOL     OW42015  12.452   9.156  12.918
13373SOL    HW142016  12.400   9.123  12.991
13373SOL    HW242017  12.459   9.082  12.858
13374SOL     OW42018  12.037  14.210   3.565
13374SOL    HW142019  12.045  14.169   3.479
13374SOL    HW242020  12.018  14.137   3.624
13375SOL     OW42021   4.637   8.508   7.055
13375SOL    HW142022   4.656   8.449   6.982
13375SOL    HW242023   4.580   8.457   7.114
13376SOL     OW42024  12.517  11.695   6.413
13376SOL    HW142025  12.447  11.635   6.438
13376SOL    HW242026  12.478  11.751   6.346
13377SOL     OW42027   1.489  12.946  12.254
13377SOL    HW142028   1.521  13.026  12.296
13377SOL    HW242029   1.536  12.875  12.298
13378SOL     OW42030   3.087  12.886   3.170
13378SOL    HW142031   3.020  12.879   3.103
13378SOL    HW242032   3.039  12.907   3.251
13379SOL     OW42033   6.844   8.423  11.722
13379SOL    HW142034   6.868   8.333  11.743
13379SOL    HW242035   6.748   8.423  11.726
13380SOL     OW42036   0.279   5.133   3.081
13380SOL    HW142037   0.190   5.118   3.113
13380SOL    HW242038   0.295   5.225   3.098
13381SOL     OW42039   2.148   5.648   1.817
13381SOL    HW142040   2.175   5.681   1.902
13381SOL    HW242041   2.154   5.723   1.758
13382SOL     OW42042   0.455   0.656  10.317
13382SOL    HW142043   0.360   0.653  10.312
13382SOL    HW242044   0.476   0.617  10.402
13383SOL     OW42045  14.510  12.475   0.778
13383SOL    HW142046  14.564  12.551   0.796
13383SOL    HW242047  14.459  12.462   0.858
13384SOL     OW42048  13.086   2.724   6.284
13384SOL    HW142049  13.098   2.793   6.219
13384SOL    HW242050  12.993   2.725   6.303
13385SOL     OW42051  11.606   2.671  11.548
13385SOL    HW142052  11.648   2.747  11.509
13385SOL    HW242053  11.587   2.612  11.474
13386SOL     OW42054   6.366  10.558   3.387
13386SOL    HW142055   6.306  10.631   3.403
13386SOL    HW242056   6.442  10.598   3.345
13387SOL     OW42057  10.199   6.250   1.713
13387SOL    HW142058  10.237   6.192   1.779
13387SOL    HW242059  10.145   6.192   1.658
13388SOL     OW42060   7.552   2.411  12.819
13388SOL    HW142061   7.605   2.466  12.761
13388SOL    HW242062   7.608   2.336  12.837
13389SOL     OW42063   8.569   0.254   7.903
13389SOL    HW142064   8.552   0.304   7.983
13389SOL    HW242065   8.516   0.298   7.836
13390SOL     OW42066  10.409   6.902   2.050
13390SOL    HW142067  10.324   6.948   2.054
13390SOL    HW242068  10.444   6.910   2.138
13391SOL     OW42069  12.583  12.543   3.849
13391SOL    HW142070  12.567  12.627   3.892
13391SOL    HW242071  12.550  12.555   3.760
13392SOL     OW42072   7.218  13.766  11.987
13392SOL    HW142073   7.263  13.751  11.905
13392SOL    HW242074   7.128  13.737  11.971
13393SOL     OW42075   5.886   3.222   0.082
13393SOL    HW142076   5.890   3.257   0.171
13393SOL    HW242077   5.839   3.289   0.032
13394SOL     OW42078  10.644  12.226   0.718
13394SOL    HW142079  10.705  12.296   0.696
13394SOL    HW242080  10.599  12.206   0.635
13395SOL     OW42081   2.342  11.903   4.815
13395SOL    HW142082   2.349  11.932   4.724
13395SOL    HW242083   2.345  11.984   4.866
13396SOL     OW42084  12.578   1.446   6.954
13396SOL    HW142085  12.549   1.534   6.931
13396SOL    HW242086  12.504   1.390   6.934
13397SOL     OW42087  14.009  11.330   6.577
13397SOL    HW142088  13.928  11.349   6.530
13397SOL    HW242089  14.025  11.407   6.630
13398SOL     OW42090   9.243   4.981   5.489
13398SOL    HW142091   9.182   4.993   5.417
13398SOL    HW242092   9.256   4.886   5.494
13399SOL     OW42093  13.145   1.005   6.059
13399SOL    HW142094  13.115   0.920   6.025
13399SOL    HW242095  13.065   1.054   6.074
13400SOL     OW42096   6.217   9.252   5.647
13400SOL    HW142097   6.171   9.255   5.732
13400SOL    HW242098   6.274   9.329   5.648
13401SOL     OW42099  14.792  10.174  10.428
13401SOL    HW142100  14.772  10.162  10.335
13401SOL    HW242101  14.707  10.177  10.471
13402SOL     OW42102   4.870  14.601  13.525
13402SOL    HW142103   4.899  14.517  13.561
13402SOL    HW242104   4.889  14.595  13.432
13403SOL     OW42105   6.469   7.326   8.190
13403SOL    HW142106   6.481   7.271   8.113
13403SOL    HW242107   6.515   7.407   8.170
13404SOL     OW42108   5.355   3.964  12.695
13404SOL    HW142109   5.302   4.014  12.757
13404SOL    HW242110   5.293   3.906  12.651
13405SOL     OW42111   0.340  14.499   8.861
13405SOL    HW142112   0.359  14.543   8.778
13405SOL    HW242113   0.346  14.406   8.841
13406SOL     OW42114   2.120   1.955  11.227
13406SOL    HW142115   2.026   1.940  11.238
13406SOL    HW242116   2.159   1.868  11.222
13407SOL     OW42117   2.159   0.102   5.984
13407SOL    HW142118   2.070   0.110   5.950
13407SOL    HW242119   2.150   0.048   6.062
13408SOL     OW42120   5.068   7.879   5.327
13408SOL    HW142121   5.080   7.828   5.406
13408SOL    HW242122   5.151   7.926   5.315
13409SOL     OW42123  11.364  14.529  11.394
13409SOL    HW142124  11.371  14.512  11.300
13409SOL    HW242125  11.407  14.614  11.406
13410SOL     OW42126   9.229  14.297  10.645
13410SOL    HW142127   9.253  14.280  10.553
13410SOL    HW242128   9.213  14.210  10.681
13411SOL     OW42129  13.679  11.204   1.968
13411SOL    HW142130  13.645  11.184   2.054
13411SOL    HW242131  13.748  11.138   1.954
13412SOL     OW42132   3.427   6.174   0.233
13412SOL    HW142133   3.521   6.158   0.228
13412SOL    HW242134   3.411   6.240   0.165
13413SOL     OW42135   0.930   1.241   1.757
13413SOL    HW142136   0.856   1.188   1.727
13413SOL    HW242137   0.903   1.331   1.741
13414SOL     OW42138   6.744   4.334  11.172
13414SOL    HW142139   6.840   4.338  11.173
13414SOL    HW242140   6.724   4.240  11.181
13415SOL     OW42141   4.138   1.896   1.515
13415SOL    HW142142   4.135   1.992   1.515
13415SOL    HW242143   4.141   1.872   1.607
13416SOL     OW42144   4.044  12.906   6.333
13416SOL    HW142145   4.112  12.842   6.313
13416SOL    HW242146   4.005  12.926   6.248
13417SOL     OW42147  12.335  11.911   4.719
13417SOL    HW142148  12.410  11.964   4.696
13417SOL    HW242149  12.317  11.859   4.641
13418SOL     OW42150  10.186   4.641  11.642
13418SOL    HW142151  10.124   4.710  11.617
13418SOL    HW242152  10.142   4.559  11.618
13419SOL     OW42153  13.958   3.263  12.416
13419SOL    HW142154  13.995   3.351  12.415
13419SOL    HW242155  13.874   3.272  12.371
13420SOL     OW42156   4.010   6.108   4.596
13420SOL    HW142157   3.920   6.129   4.623
13420SOL    HW242158   4.018   6.146   4.508
13421SOL     OW42159   3.789   3.771  10.659
13421SOL    HW142160   3.832   3.777  10.744
13421SOL    HW242161   3.788   3.677  10.639
13422SOL     OW42162   3.914   2.959   1.063
13422SOL    HW142163   3.909   2.924   1.152
13422SOL    HW242164   4.008   2.962   1.044
13423SOL     OW42165  12.664   8.268   2.714
13423SOL    HW142166  12.725   8.342   2.706
13423SOL    HW242167  12.680   8.235   2.803
13424SOL     OW42168   4.396  10.979   2.982
13424SOL    HW142169   4.387  10.884   2.970
13424SOL    HW242170   4.308  11.013   2.965
13425SOL     OW42171  12.481   0.458   4.279
13425SOL    HW142172  12.401   0.468   4.228
13425SOL    HW242173  12.495   0.544   4.319
13426SOL     OW42174   6.908   7.742   7.070
13426SOL    HW142175   6.922   7.707   6.982
13426SOL    HW242176   6.819   7.777   7.069
13427SOL     OW42177   6.816  11.379   7.608
13427SOL    HW142178   6.868  11.303   7.583
13427SOL    HW242179   6.770  11.404   7.527
13428SOL     OW42180  12.380  10.476   1.603
13428SOL    HW142181  12.343  10.389   1.621
13428SOL    HW242182  12.358  10.492   1.511
13429SOL     OW42183   8.782   0.844   4.020
13429SOL    HW142184   8.813   0.764   4.062
13429SOL    HW242185   8.821   0.915   4.072
13430SOL     OW42186  14.255   5.689  10.379
13430SOL    HW142187  14.349   5.675  10.390
13430SOL    HW242188  14.216   5.602  10.390
13431SOL     OW42189   2.563   1.047   7.358
13431SOL    HW142190   2.657   1.043   7.375
13431SOL    HW242191   2.534   1.127   7.403
13432SOL     OW42192   3.805  11.440   1.444
13432SOL    HW142193   3.745  11.472   1.377
13432SOL    HW242194   3.892  11.464   1.413
13433SOL     OW42195   9.956  10.752   1.818
13433SOL    HW142196   9.998  10.770   1.733
13433SOL    HW242197   9.886  10.691   1.798
13434SOL     OW42198  13.210  12.664   6.542
13434SOL    HW142199  13.259  12.596   6.497
13434SOL    HW242200  13.162  12.617   6.610
13435SOL     OW42201   2.636   4.949   1.923
13435SOL    HW142202   2.697   4.938   1.996
13435SOL    HW242203   2.551   4.926   1.960
13436SOL     OW42204  13.006   4.175   0.190
13436SOL    HW142205  12.988   4.111   0.120
13436SOL    HW242206  12.949   4.249   0.169
13437SOL     OW42207   3.389   7.416   4.709
13437SOL    HW142208   3.348   7.354   4.648
13437SOL    HW242209   3.479   7.422   4.679
13438SOL     OW42210  11.089  10.944  12.506
13438SOL    HW142211  11.115  10.884  12.575
13438SOL    HW242212  11.072  10.887  12.430
13439SOL     OW42213   3.765   1.352   4.640
13439SOL    HW142214   3.780   1.260   4.664
13439SOL    HW242215   3.812   1.402   4.707
13440SOL     OW42216  10.024   3.000   5.218
13440SOL    HW142217   9.943   2.952   5.201
13440SOL    HW242218  10.092   2.933   5.220
13441SOL     OW42219  14.341   0.114  11.048
13441SOL    HW142220  14.311   0.083  11.133
13441SOL    HW242221  14.303   0.053  10.985
13442SOL     OW42222  11.539   0.260  13.110
13442SOL    HW142223  11.526   0.249  13.205
13442SOL    HW242224  11.525   0.353  13.095
13443SOL     OW42225   1.023   2.004   8.372
13443SOL    HW142226   1.076   1.984   8.450
13443SOL    HW242227   1.071   1.965   8.299
13444SOL     OW42228  13.569   3.602   5.491
13444SOL    HW142229  13.513   3.558   5.555
13444SOL    HW242230  13.635   3.646   5.544
13445SOL     OW42231   8.224   2.316   6.246
13445SOL    HW142232   8.296   2.308   6.308
13445SOL    HW242233   8.160   2.250   6.274
13446SOL     OW42234   4.752  13.938  11.554
13446SOL    HW142235   4.696  13.921  11.479
13446SOL    HW242236   4.793  13.854  11.574
13447SOL     OW42237   4.953   3.982   4.356
13447SOL    HW142238   4.886   3.915   4.354
13447SOL    HW242239   4.968   3.999   4.449
13448SOL     OW42240   9.423  14.571   5.514
13448SOL    HW142241   9.356  14.589   5.580
13448SOL    HW242242   9.486  14.643   5.523
13449SOL     OW42243   8.019   4.597   0.841
13449SOL    HW142244   8.055   4.511   0.819
13449SOL    HW242245   8.047   4.654   0.769
13450SOL     OW42246   2.370  11.444   1.044
13450SOL    HW142247   2.279  11.437   1.016
13450SOL    HW242248   2.364  11.453   1.140
13451SOL     OW42249  10.353   6.077  12.484
13451SOL    HW142250  10.279   6.036  12.529
13451SOL    HW242251  10.331   6.072  12.391
13452SOL     OW42252   1.155   0.449  14.073
13452SOL    HW142253   1.214   0.522  14.096
13452SOL    HW242254   1.205   0.370  14.096
13453SOL     OW42255   0.192   6.748   2.279
13453SOL    HW142256   0.249   6.718   2.350
13453SOL    HW242257   0.151   6.827   2.314
13454SOL     OW42258   8.075   4.990   4.964
13454SOL    HW142259   7.981   4.977   4.970
13454SOL    HW242260   8.086   5.076   4.924
13455SOL     OW42261   3.236   1.288   5.151
13455SOL    HW142262   3.155   1.331   5.177
13455SOL    HW242263   3.214   1.239   5.072
13456SOL     OW42264   3.519   8.364   9.027
13456SOL    HW142265   3.451   8.427   9.049
13456SOL    HW242266   3.516   8.299   9.097
13457SOL     OW42267  12.278   6.258   1.236
13457SOL    HW142268  12.203   6.271   1.178
13457SOL    HW242269  12.354   6.279   1.181
13458SOL     OW42270   0.821   3.554   1.292
13458SOL    HW142271   0.767   3.534   1.369
13458SOL    HW242272   0.769   3.619   1.244
13459SOL     OW42273  13.907   4.738  12.109
13459SOL    HW142274  13.862   4.799  12.051
13459SOL    HW242275  13.998   4.767  12.109
13460SOL     OW42276   3.724   8.899  10.011
13460SOL    HW142277   3.799   8.860   9.965
13460SOL    HW242278   3.758   8.920  10.098
13461SOL     OW42279   3.507   6.303   8.789
13461SOL    HW142280   3.489   6.296   8.695
13461SOL    HW242281   3.593   6.345   8.793
13462SOL     OW42282  11.744  14.826   6.048
13462SOL    HW142283  11.659  14.866   6.067
13462SOL    HW242284  11.767  14.780   6.129
13463SOL     OW42285   4.434   6.599   2.556
13463SOL    HW142286   4.395   6.680   2.522
13463SOL    HW242287   4.396   6.589   2.644
13464SOL     OW42288   2.691  10.100   9.490
13464SOL    HW142289   2.633  10.041   9.442
13464SOL    HW242290   2.716  10.166   9.425
13465SOL     OW42291   8.290   2.885  14.205
13465SOL    HW142292   8.225   2.949  14.234
13465SOL    HW242293   8.297   2.899  14.111
13466SOL     OW42294   0.644   0.404   2.323
13466SOL    HW142295   0.644   0.496   2.352
13466SOL    HW242296   0.578   0.400   2.254
13467SOL     OW42297   6.916  13.472  13.617
13467SOL    HW142298   6.947  13.470  13.526
13467SOL    HW242299   6.949  13.556  13.651
13468SOL     OW42300   7.620   1.431  13.739
13468SOL    HW142301   7.714   1.425  13.755
13468SOL    HW242302   7.596   1.344  13.709
13469SOL     OW42303   3.826   7.075   7.623
13469SOL    HW142304   3.806   7.167   7.605
13469SOL    HW242305   3.822   7.032   7.538
13470SOL     OW42306  11.034   5.112  10.394
13470SOL    HW142307  11.052   5.156  10.477
13470SOL    HW242308  10.952   5.150  10.364
13471SOL     OW42309   8.110  14.382  14.084
13471SOL    HW142310   8.038  14.324  14.109
13471SOL    HW242311   8.189  14.331  14.104
13472SOL     OW42312   2.696   0.362  14.438
13472SOL    HW142313   2.705   0.382  14.345
13472SOL    HW242314   2.660   0.442  14.476
13473SOL     OW42315  10.967  14.698   0.968
13473SOL    HW142316  10.992  14.790   0.976
13473SOL    HW242317  10.961  14.666   1.058
13474SOL     OW42318   7.533  13.931   1.370
13474SOL    HW142319   7.498  13.853   1.326
13474SOL    HW242320   7.609  13.898   1.417
13475SOL     OW42321   1.690   9.504  10.961
13475SOL    HW142322   1.686   9.542  10.873
13475SOL    HW242323   1.772   9.455  10.963
13476SOL     OW42324   1.052   5.917   5.687
13476SOL    HW142325   1.023   5.868   5.610
13476SOL    HW242326   1.065   6.006   5.655
13477SOL     OW42327  12.527  10.363   3.300
13477SOL    HW142328  12.445  10.316   3.290
13477SOL    HW242329  12.595  10.298   3.283
13478SOL     OW42330   3.790   0.695   2.667
13478SOL    HW142331   3.752   0.731   2.748
13478SOL    HW242332   3.849   0.626   2.696
13479SOL     OW42333  14.535   3.649  10.447
13479SOL    HW142334  14.512   3.637  10.539
13479SOL    HW242335  14.451   3.651  10.401
13480SOL     OW42336   5.944  12.949   1.135
13480SOL    HW142337   5.929  12.857   1.111
13480SOL    HW242338   5.998  12.944   1.214
13481SOL     OW42339   5.784   5.695   5.745
13481SOL    HW142340   5.783   5.767   5.682
13481SOL    HW242341   5.787   5.616   5.692
13482SOL     OW42342   7.644   1.772   3.731
13482SOL    HW142343   7.665   1.708   3.663
13482SOL    HW242344   7.558   1.745   3.763
13483SOL     OW42345   6.808  12.587   5.758
13483SOL    HW142346   6.898  12.615   5.775
13483SOL    HW242347   6.811  12.544   5.673
13484SOL     OW42348   3.742  14.037  10.223
13484SOL    HW142349   3.689  13.986  10.162
13484SOL    HW242350   3.820  14.061  10.173
13485SOL     OW42351   0.020   3.155  10.727
13485SOL    HW142352  14.816   3.108  10.688
13485SOL    HW242353  14.868   3.247  10.716
13486SOL     OW42354   7.486  14.076   0.439
13486SOL    HW142355   7.489  13.991   0.396
13486SOL    HW242356   7.515  14.059   0.529
13487SOL     OW42357   4.777  11.972  11.916
13487SOL    HW142358   4.723  12.045  11.885
13487SOL    HW242359   4.837  11.954  11.843
13488SOL     OW42360   8.978  10.049   8.460
13488SOL    HW142361   8.919  10.035   8.535
13488SOL    HW242362   9.034   9.972   8.458
13489SOL     OW42363   4.275  11.784   4.992
13489SOL    HW142364   4.365  11.802   4.965
13489SOL    HW242365   4.274  11.802   5.086
13490SOL     OW42366   6.281   4.652   5.292
13490SOL    HW142367   6.243   4.740   5.281
13490SOL    HW242368   6.233   4.598   5.229
13491SOL     OW42369   9.134   4.556   1.829
13491SOL    HW142370   9.188   4.564   1.907
13491SOL    HW242371   9.046   4.540   1.861
13492SOL     OW42372   6.369  14.496   6.884
13492SOL    HW142373   6.374  14.545   6.966
13492SOL    HW242374   6.460  14.488   6.856
13493SOL     OW42375  13.282   3.539   7.401
13493SOL    HW142376  13.231   3.576   7.473
13493SOL    HW242377  13.246   3.580   7.322
13494SOL     OW42378   5.125   7.021   9.213
13494SOL    HW142379   5.089   7.065   9.290
13494SOL    HW242380   5.220   7.027   9.224
13495SOL     OW42381   5.544  11.074   8.510
13495SOL    HW142382   5.541  11.099   8.417
13495SOL    HW242383   5.479  11.129   8.552
13496SOL     OW42384  13.387   2.823   5.873
13496SOL    HW142385  13.341   2.764   5.933
13496SOL    HW242386  13.454   2.768   5.832
13497SOL     OW42387   5.086  13.530  14.296
13497SOL    HW142388   5.066  13.546  14.389
13497SOL    HW242389   5.179  13.511  14.295
13498SOL     OW42390   2.035  11.855   6.293
13498SOL    HW142391   2.016  11.948   6.285
13498SOL    HW242392   2.064  11.845   6.384
13499SOL     OW42393  11.570  10.753   9.423
13499SOL    HW142394  11.587  10.813   9.496
13499SOL    HW242395  11.624  10.786   9.351
13500SOL     OW42396   2.248   9.926   3.435
13500SOL    HW142397   2.286   9.859   3.378
13500SOL    HW242398   2.324   9.970   3.472
13501SOL     OW42399   5.552   6.228   5.412
13501SOL    HW142400   5.587   6.175   5.340
13501SOL    HW242401   5.619   6.295   5.427
13502SOL     OW42402   5.773   4.403   4.285
13502SOL    HW142403   5.814   4.382   4.369
13502SOL    HW242404   5.822   4.480   4.254
13503SOL     OW42405   6.122   0.034  12.525
13503SOL    HW142406   6.207  14.861  12.513
13503SOL    HW242407   6.141   0.127  12.516
13504SOL     OW42408  10.702  14.139  12.803
13504SOL    HW142409  10.761  14.133  12.877
13504SOL    HW242410  10.689  14.049  12.775
13505SOL     OW42411   3.700  13.863   6.129
13505SOL    HW142412   3.637  13.801   6.165
13505SOL    HW242413   3.778  13.810   6.112
13506SOL     OW42414   4.692   7.696  14.793
13506SOL    HW142415   4.712   7.612  14.832
13506SOL    HW242416   4.741   7.696  14.710
13507SOL     OW42417  11.057   5.289  10.608
13507SOL    HW142418  10.993   5.233  10.652
13507SOL    HW242419  11.009   5.370  10.589
13508SOL     OW42420   4.365  11.304  13.564
13508SOL    HW142421   4.270  11.314  13.556
13508SOL    HW242422   4.387  11.234  13.503
13509SOL     OW42423   0.152   4.202   1.908
13509SOL    HW142424   0.090   4.226   1.840
13509SOL    HW242425   0.157   4.107   1.904
13510SOL     OW42426   3.348   5.319   0.967
13510SOL    HW142427   3.286   5.355   1.030
13510SOL    HW242428   3.419   5.383   0.963
13511SOL     OW42429   6.174  13.108   6.257
13511SOL    HW142430   6.250  13.060   6.290
13511SOL    HW242431   6.204  13.199   6.251
13512SOL     OW42432   9.003  10.318  14.054
13512SOL    HW142433   9.044  10.300  13.970
13512SOL    HW242434   9.036  10.404  14.080
13513SOL     OW42435   7.315   4.252  12.608
13513SOL    HW142436   7.302   4.284  12.697
13513SOL    HW242437   7.270   4.167  12.606
13514SOL     OW42438   9.130   7.287   6.263
13514SOL    HW142439   9.088   7.233   6.196
13514SOL    HW242440   9.081   7.369   6.262
13515SOL     OW42441   5.129   9.044   8.688
13515SOL    HW142442   5.182   9.124   8.695
13515SOL    HW242443   5.142   9.014   8.598
13516SOL     OW42444   7.921  13.703   1.587
13516SOL    HW142445   7.874  13.635   1.635
13516SOL    HW242446   8.013  13.676   1.593
13517SOL     OW42447   9.591   0.645   8.299
13517SOL    HW142448   9.554   0.711   8.240
13517SOL    HW242449   9.551   0.664   8.384
13518SOL     OW42450   5.214  14.387   7.063
13518SOL    HW142451   5.286  14.367   7.122
13518SOL    HW242452   5.166  14.457   7.107
13519SOL     OW42453  10.348   0.388   4.922
13519SOL    HW142454  10.293   0.404   4.999
13519SOL    HW242455  10.414   0.326   4.953
13520SOL     OW42456   1.214  11.355   6.505
13520SOL    HW142457   1.302  11.353   6.542
13520SOL    HW242458   1.227  11.345   6.411
13521SOL     OW42459  14.391  12.219   2.839
13521SOL    HW142460  14.342  12.147   2.879
13521SOL    HW242461  14.434  12.180   2.763
13522SOL     OW42462   1.164  13.062   4.120
13522SOL    HW142463   1.156  13.157   4.132
13522SOL    HW242464   1.079  13.027   4.147
13523SOL     OW42465   2.547  13.696   9.741
13523SOL    HW142466   2.526  13.615   9.695
13523SOL    HW242467   2.536  13.765   9.675
13524SOL     OW42468  14.615  12.396  10.051
13524SOL    HW142469  14.687  12.334  10.037
13524SOL    HW242470  14.634  12.437  10.135
13525SOL     OW42471   2.456   1.200   1.287
13525SOL    HW142472   2.385   1.147   1.322
13525SOL    HW242473   2.454   1.183   1.193
13526SOL     OW42474   1.523  10.560   5.662
13526SOL    HW142475   1.463  10.563   5.587
13526SOL    HW242476   1.607  10.534   5.624
13527SOL     OW42477   8.402   9.112  13.142
13527SOL    HW142478   8.470   9.051  13.171
13527SOL    HW242479   8.388   9.170  13.217
13528SOL     OW42480   7.253   2.081  10.308
13528SOL    HW142481   7.303   2.055  10.232
13528SOL    HW242482   7.298   2.159  10.342
13529SOL     OW42483   7.610   6.792   5.276
13529SOL    HW142484   7.524   6.765   5.242
13529SOL    HW242485   7.590   6.863   5.337
13530SOL     OW42486  11.956  11.051  12.955
13530SOL    HW142487  11.979  11.021  13.043
13530SOL    HW242488  12.034  11.035  12.903
13531SOL     OW42489   4.524   1.132   7.015
13531SOL    HW142490   4.549   1.223   7.030
13531SOL    HW242491   4.594   1.097   6.959
13532SOL     OW42492  13.086   4.727   0.466
13532SOL    HW142493  13.130   4.663   0.523
13532SOL    HW242494  13.016   4.677   0.424
13533SOL     OW42495   9.755   8.126   5.062
13533SOL    HW142496   9.779   8.171   5.143
13533SOL    HW242497   9.829   8.069   5.044
13534SOL     OW42498   9.866   2.990   5.745
13534SOL    HW142499   9.791   3.034   5.703
13534SOL    HW242500   9.942   3.019   5.694
13535SOL     OW42501   2.733   5.437   5.851
13535SOL    HW142502   2.729   5.516   5.905
13535SOL    HW242503   2.724   5.468   5.761
13536SOL     OW42504   1.861   1.088  14.225
13536SOL    HW142505   1.878   1.035  14.303
13536SOL    HW242506   1.909   1.170  14.241
13537SOL     OW42507   3.609   5.819   0.147
13537SOL    HW142508   3.661   5.788   0.221
13537SOL    HW242509   3.636   5.910   0.136
13538SOL     OW42510   1.112  13.277   1.808
13538SOL    HW142511   1.186  13.253   1.753
13538SOL    HW242512   1.106  13.372   1.802
13539SOL     OW42513   3.571  10.114  13.575
13539SOL    HW142514   3.665  10.122  13.591
13539SOL    HW242515   3.536  10.079  13.656
13540SOL     OW42516   3.122   3.634   3.983
13540SOL    HW142517   3.041   3.596   3.949
13540SOL    HW242518   3.172   3.657   3.905
13541SOL     OW42519   5.447   6.876   2.918
13541SOL    HW142520   5.492   6.801   2.878
13541SOL    HW242521   5.476   6.876   3.009
13542SOL     OW42522   8.816   3.206   0.856
13542SOL    HW142523   8.752   3.142   0.884
13542SOL    HW242524   8.824   3.193   0.762
13543SOL     OW42525   6.670   0.596  14.251
13543SOL    HW142526   6.740   0.661  14.244
13543SOL    HW242527   6.624   0.619  14.332
13544SOL     OW42528   9.990   0.662   6.070
13544SOL    HW142529   9.942   0.647   6.152
13544SOL    HW242530   9.959   0.593   6.011
13545SOL     OW42531   7.063   8.454   9.434
13545SOL    HW142532   7.043   8.381   9.376
13545SOL    HW242533   7.132   8.421   9.491
13546SOL     OW42534   6.281   2.082   6.294
13546SOL    HW142535   6.357   2.134   6.319
13546SOL    HW242536   6.308   1.991   6.309
13547SOL     OW42537  12.694  14.315   9.298
13547SOL    HW142538  12.647  14.362   9.366
13547SOL    HW242539  12.710  14.228   9.336
13548SOL     OW42540   6.778   3.534  13.216
13548SOL    HW142541   6.757   3.483  13.138
13548SOL    HW242542   6.696   3.578  13.239
13549SOL     OW42543   5.680   4.977  11.541
13549SOL    HW142544   5.730   4.932  11.474
13549SOL    HW242545   5.666   5.065  11.506
13550SOL     OW42546  10.756   7.680   3.550
13550SOL    HW142547  10.740   7.682   3.455
13550SOL    HW242548  10.790   7.766   3.571
13551SOL     OW42549   0.809   7.086   9.188
13551SOL    HW142550   0.732   7.032   9.169
13551SOL    HW242551   0.793   7.168   9.141
13552SOL     OW42552   7.622   2.723   6.040
13552SOL    HW142553   7.546   2.664   6.049
13552SOL    HW242554   7.629   2.738   5.946
13553SOL     OW42555  10.137   8.801   0.906
13553SOL    HW142556  10.144   8.845   0.991
13553SOL    HW242557  10.205   8.841   0.853
13554SOL     OW42558  13.028   1.859   6.136
13554SOL    HW142559  12.972   1.885   6.210
13554SOL    HW242560  12.968   1.822   6.072
13555SOL     OW42561  12.493   3.264   7.507
13555SOL    HW142562  12.424   3.320   7.542
13555SOL    HW242563  12.517   3.304   7.424
13556SOL     OW42564   6.742   2.102   4.598
13556SOL    HW142565   6.672   2.115   4.662
13556SOL    HW242566   6.725   2.016   4.560
13557SOL     OW42567  11.248   2.327  11.373
13557SOL    HW142568  11.299   2.286  11.444
13557SOL    HW242569  11.235   2.417  11.402
13558SOL     OW42570  12.973   1.978   5.620
13558SOL    HW142571  13.015   2.000   5.536
13558SOL    HW242572  12.964   2.062   5.665
13559SOL     OW42573   9.001   7.346   7.494
13559SOL    HW142574   9.094   7.328   7.502
13559SOL    HW242575   8.995   7.422   7.436
13560SOL     OW42576   6.508  11.846   6.687
13560SOL    HW142577   6.473  11.787   6.620
13560SOL    HW242578   6.597  11.813   6.703
13561SOL     OW42579  14.057  13.980  13.523
13561SOL    HW142580  14.106  13.915  13.472
13561SOL    HW242581  13.976  13.993  13.473
13562SOL     OW42582   2.306   2.997   9.545
13562SOL    HW142583   2.250   3.052   9.490
13562SOL    HW242584   2.384   3.049   9.561
13563SOL     OW42585   7.475   4.322   0.041
13563SOL    HW142586   7.460   4.352   0.131
13563SOL    HW242587   7.503   4.231   0.051
13564SOL     OW42588  13.532  12.460  14.350
13564SOL    HW142589  13.588  12.397  14.306
13564SOL    HW242590  13.452  12.461  14.298
13565SOL     OW42591   8.199   0.716  13.282
13565SOL    HW142592   8.244   0.800  13.278
13565SOL    HW242593   8.175   0.705  13.374
13566SOL     OW42594   3.619   3.634   8.827
13566SOL    HW142595   3.674   3.603   8.899
13566SOL    HW242596   3.638   3.573   8.755
13567SOL     OW42597  13.573  14.818   9.422
13567SOL    HW142598  13.480  14.811   9.401
13567SOL    HW242599  13.595  14.736   9.467
13568SOL     OW42600   5.395   0.131  13.175
13568SOL    HW142601   5.342   0.157  13.250
13568SOL    HW242602   5.421   0.040  13.194
13569SOL     OW42603   7.306   7.320   0.166
13569SOL    HW142604   7.323   7.259   0.238
13569SOL    HW242605   7.257   7.392   0.207
13570SOL     OW42606  13.297   1.828  14.191
13570SOL    HW142607  13.205   1.817  14.166
13570SOL    HW242608  13.346   1.810  14.111
13571SOL     OW42609   9.659   8.727  14.003
13571SOL    HW142610   9.574   8.702  13.966
13571SOL    HW242611   9.682   8.808  13.956
13572SOL     OW42612   8.671   2.324   0.119
13572SOL    HW142613   8.751   2.299   0.165
13572SOL    HW242614   8.601   2.284   0.169
13573SOL     OW42615  14.313   7.162   5.355
13573SOL    HW142616  14.291   7.086   5.410
13573SOL    HW242617  14.251   7.158   5.282
13574SOL     OW42618  12.123   4.646   0.683
13574SOL    HW142619  12.110   4.740   0.679
13574SOL    HW242620  12.184   4.627   0.611
13575SOL     OW42621   8.642   1.963   7.365
13575SOL    HW142622   8.639   1.917   7.281
13575SOL    HW242623   8.652   1.893   7.430
13576SOL     OW42624   3.940  11.414  14.821
13576SOL    HW142625   4.006  11.344  14.828
13576SOL    HW242626   3.884  11.386  14.748
13577SOL     OW42627   3.169  11.554  10.486
13577SOL    HW142628   3.263  11.568  10.486
13577SOL    HW242629   3.134  11.621  10.545
13578SOL     OW42630   7.822  10.924   8.451
13578SOL    HW142631   7.876  10.866   8.506
13578SOL    HW242632   7.815  10.878   8.368
13579SOL     OW42633   8.884   3.811  11.241
13579SOL    HW142634   8.928   3.763  11.311
13579SOL    HW242635   8.827   3.873  11.287
13580SOL     OW42636   5.029   4.228  11.445
13580SOL    HW142637   4.996   4.163  11.507
13580SOL    HW242638   5.113   4.255  11.482
13581SOL     OW42639   4.563  12.434   2.442
13581SOL    HW142640   4.576  12.443   2.347
13581SOL    HW242641   4.476  12.468   2.458
13582SOL     OW42642  12.252   0.706   9.003
13582SOL    HW142643  12.285   0.619   9.025
13582SOL    HW242644  12.266   0.758   9.082
13583SOL     OW42645  14.044   6.284   0.682
13583SOL    HW142646  14.115   6.220   0.680
13583SOL    HW242647  13.972   6.242   0.636
13584SOL     OW42648   0.553   0.992  11.450
13584SOL    HW142649   0.499   0.958  11.378
13584SOL    HW242650   0.540   1.087  11.447
13585SOL     OW42651  12.022   4.771   9.733
13585SOL    HW142652  12.012   4.826   9.656
13585SOL    HW242653  12.025   4.682   9.699
13586SOL     OW42654   7.695  11.826   8.691
13586SOL    HW142655   7.658  11.900   8.740
13586SOL    HW242656   7.619  11.785   8.650
13587SOL     OW42657  11.019   3.808   9.140
13587SOL    HW142658  11.047   3.893   9.107
13587SOL    HW242659  11.002   3.823   9.233
13588SOL     OW42660   3.789   7.097   5.881
13588SOL    HW142661   3.714   7.081   5.938
13588SOL    HW242662   3.828   7.178   5.915
13589SOL     OW42663  14.496  10.531   9.928
13589SOL    HW142664  14.573  10.569   9.886
13589SOL    HW242665  14.531  10.487  10.006
13590SOL     OW42666  12.658   4.079   0.962
13590SOL    HW142667  12.671   4.161   1.010
13590SOL    HW242668  12.574   4.091   0.917
13591SOL     OW42669   4.560  11.937  12.390
13591SOL    HW142670   4.639  11.928  12.444
13591SOL    HW242671   4.549  11.852  12.349
13592SOL     OW42672  12.515   4.834   2.147
13592SOL    HW142673  12.556   4.809   2.065
13592SOL    HW242674  12.439   4.887   2.120
13593SOL     OW42675   3.982   7.760   5.177
13593SOL    HW142676   3.984   7.672   5.140
13593SOL    HW242677   3.921   7.754   5.250
13594SOL     OW42678  13.086   7.883   2.300
13594SOL    HW142679  13.090   7.788   2.312
13594SOL    HW242680  13.023   7.896   2.230
13595SOL     OW42681   2.935  14.711   3.493
13595SOL    HW142682   2.933  14.691   3.587
13595SOL    HW242683   2.997  14.648   3.457
13596SOL     OW42684  11.059  12.104   8.350
13596SOL    HW142685  11.012  12.021   8.341
13596SOL    HW242686  11.151  12.080   8.345
13597SOL     OW42687   6.492   4.936  13.315
13597SOL    HW142688   6.416   4.977  13.356
13597SOL    HW242689   6.510   4.859  13.369
13598SOL     OW42690  14.699   0.625   7.963
13598SOL    HW142691  14.619   0.620   8.016
13598SOL    HW242692  14.673   0.674   7.885
13599SOL     OW42693  14.762   3.064   3.694
13599SOL    HW142694  14.710   3.141   3.717
13599SOL    HW242695  14.849   3.081   3.730
13600SOL     OW42696   8.796   3.856   9.290
13600SOL    HW142697   8.852   3.855   9.213
13600SOL    HW242698   8.777   3.949   9.304
13601SOL     OW42699   5.534   0.783   5.683
13601SOL    HW142700   5.444   0.781   5.716
13601SOL    HW242701   5.549   0.875   5.660
13602SOL     OW42702  12.988   9.403  13.745
13602SOL    HW142703  13.038   9.328  13.713
13602SOL    HW242704  13.055   9.470  13.762
13603SOL     OW42705  12.158   2.442   4.399
13603SOL    HW142706  12.171   2.455   4.305
13603SOL    HW242707  12.127   2.526   4.431
13604SOL     OW42708  10.969   5.014   5.358
13604SOL    HW142709  10.941   5.105   5.352
13604SOL    HW242710  10.934   4.972   5.280
13605SOL     OW42711  10.146  13.912   7.371
13605SOL    HW142712  10.154  14.004   7.398
13605SOL    HW242713  10.233  13.888   7.340
13606SOL     OW42714   9.381   8.196   5.597
13606SOL    HW142715   9.441   8.122   5.607
13606SOL    HW242716   9.390   8.222   5.505
13607SOL     OW42717   4.004  14.834  14.528
13607SOL    HW142718   4.005   0.001  14.616
13607SOL    HW242719   3.912  14.839  14.501
13608SOL     OW42720   2.788   9.373  12.924
13608SOL    HW142721   2.863   9.432  12.919
13608SOL    HW242722   2.758   9.380  13.014
13609SOL     OW42723   7.648   2.609   4.335
13609SOL    HW142724   7.600   2.677   4.381
13609SOL    HW242725   7.614   2.612   4.245
13610SOL     OW42726  14.032   7.947   0.644
13610SOL    HW142727  13.943   7.936   0.677
13610SOL    HW242728  14.081   7.875   0.683
13611SOL     OW42729   3.800   6.462  11.121
13611SOL    HW142730   3.821   6.369  11.109
13611SOL    HW242731   3.812   6.500  11.034
13612SOL     OW42732   2.858   6.592  11.190
13612SOL    HW142733   2.924   6.657  11.168
13612SOL    HW242734   2.900   6.508  11.174
13613SOL     OW42735   6.977   6.893   6.752
13613SOL    HW142736   7.000   6.917   6.662
13613SOL    HW242737   6.898   6.943   6.772
13614SOL     OW42738  11.244  10.807   0.539
13614SOL    HW142739  11.268  10.859   0.463
13614SOL    HW242740  11.179  10.744   0.506
13615SOL     OW42741   1.606   7.298   9.801
13615SOL    HW142742   1.683   7.242   9.798
13615SOL    HW242743   1.534   7.241   9.777
13616SOL     OW42744   4.681   9.409   9.566
13616SOL    HW142745   4.645   9.366   9.488
13616SOL    HW242746   4.608   9.462   9.599
13617SOL     OW42747   6.603  12.454   7.616
13617SOL    HW142748   6.670  12.432   7.680
13617SOL    HW242749   6.607  12.383   7.552
13618SOL     OW42750   0.916  14.104  13.699
13618SOL    HW142751   0.828  14.075  13.726
13618SOL    HW242752   0.904  14.196  13.676
13619SOL     OW42753   3.367   0.401   2.246
13619SOL    HW142754   3.393   0.310   2.234
13619SOL    HW242755   3.360   0.436   2.157
13620SOL     OW42756   7.740  10.365   0.184
13620SOL    HW142757   7.721  10.344   0.093
13620SOL    HW242758   7.755  10.281   0.226
13621SOL     OW42759   4.487  13.825   8.205
13621SOL    HW142760   4.401  13.786   8.191
13621SOL    HW242761   4.468  13.915   8.234
13622SOL     OW42762   2.241   3.830   3.624
13622SOL    HW142763   2.197   3.755   3.585
13622SOL    HW242764   2.313   3.850   3.564
13623SOL     OW42765  12.251  11.307   1.017
13623SOL    HW142766  12.195  11.359   0.959
13623SOL    HW242767  12.223  11.331   1.105
13624SOL     OW42768   8.804   9.069  10.240
13624SOL    HW142769   8.829   9.125  10.313
13624SOL    HW242770   8.779   9.131  10.170
13625SOL     OW42771  10.486   4.378   4.566
13625SOL    HW142772  10.485   4.385   4.471
13625SOL    HW242773  10.396   4.354   4.589
13626SOL     OW42774   1.404  14.469   7.424
13626SOL    HW142775   1.312  14.453   7.446
13626SOL    HW242776   1.411  14.564   7.415
13627SOL     OW42777   4.910  13.080   1.320
13627SOL    HW142778   4.972  13.019   1.359
13627SOL    HW242779   4.833  13.077   1.377
13628SOL     OW42780   0.490   2.023   2.877
13628SOL    HW142781   0.558   2.089   2.866
13628SOL    HW242782   0.526   1.944   2.835
13629SOL     OW42783   8.337   0.411  10.560
13629SOL    HW142784   8.389   0.382  10.634
13629SOL    HW242785   8.346   0.507  10.561
13630SOL     OW42786  14.084   7.585   5.927
13630SOL    HW142787  14.004   7.540   5.956
13630SOL    HW242788  14.053   7.666   5.888
13631SOL     OW42789   8.658   4.218  12.022
13631SOL    HW142790   8.564   4.206  12.033
13631SOL    HW242791   8.682   4.281  12.090
13632SOL     OW42792   5.065   7.603  10.915
13632SOL    HW142793   5.089   7.510  10.908
13632SOL    HW242794   4.979   7.609  10.874
13633SOL     OW42795  13.590  12.222   2.629
13633SOL    HW142796  13.651  12.183   2.692
13633SOL    HW242797  13.637  12.220   2.546
13634SOL     OW42798   1.488  14.247   0.492
13634SOL    HW142799   1.402  14.221   0.526
13634SOL    HW242800   1.497  14.200   0.409
13635SOL     OW42801   1.173  12.733   0.269
13635SOL    HW142802   1.189  12.757   0.178
13635SOL    HW242803   1.239  12.668   0.290
13636SOL     OW42804   0.098   3.075   9.522
13636SOL    HW142805   0.022   3.108   9.570
13636SOL    HW242806   0.163   3.056   9.590
13637SOL     OW42807   3.235  13.072  10.995
13637SOL    HW142808   3.158  13.018  10.977
13637SOL    HW242809   3.309  13.015  10.976
13638SOL     OW42810   9.419  12.228   4.755
13638SOL    HW142811   9.507  12.192   4.761
13638SOL    HW242812   9.412  12.262   4.665
13639SOL     OW42813   3.124  10.715   6.563
13639SOL    HW142814   3.031  10.720   6.586
13639SOL    HW242815   3.149  10.625   6.586
13640SOL     OW42816  13.212  13.468   8.252
13640SOL    HW142817  13.210  13.560   8.225
13640SOL    HW242818  13.290  13.461   8.307
13641SOL     OW42819   3.838  14.177   4.630
13641SOL    HW142820   3.792  14.187   4.713
13641SOL    HW242821   3.819  14.087   4.602
13642SOL     OW42822   8.544   8.067   8.280
13642SOL    HW142823   8.551   7.988   8.333
13642SOL    HW242824   8.457   8.102   8.302
13643SOL     OW42825   0.768  11.382   5.206
13643SOL    HW142826   0.853  11.338   5.198
13643SOL    HW242827   0.780  11.444   5.278
13644SOL     OW42828   0.947  14.773   3.828
13644SOL    HW142829   0.854  14.779   3.850
13644SOL    HW242830   0.989  14.749   3.911
13645SOL     OW42831   5.293   9.026   2.293
13645SOL    HW142832   5.304   8.949   2.348
13645SOL    HW242833   5.332   9.098   2.343
13646SOL     OW42834   1.759  12.892  10.960
13646SOL    HW142835   1.821  12.947  10.911
13646SOL    HW242836   1.789  12.803  10.945
13647SOL     OW42837   0.138   8.277   7.772
13647SOL    HW142838   0.100   8.325   7.698
13647SOL    HW242839   0.201   8.217   7.731
13648SOL     OW42840   4.647  13.390   2.367
13648SOL    HW142841   4.632  13.460   2.304
13648SOL    HW242842   4.720  13.340   2.330
13649SOL     OW42843   6.889   8.502  11.439
13649SOL    HW142844   6.807   8.456  11.418
13649SOL    HW242845   6.898   8.491  11.534
13650SOL     OW42846   3.650   7.889   8.355
13650SOL    HW142847   3.683   7.815   8.406
13650SOL    HW242848   3.623   7.953   8.421
13651SOL     OW42849   8.576   0.578  10.362
13651SOL    HW142850   8.492   0.616  10.338
13651SOL    HW242851   8.572   0.488  10.328
13652SOL     OW42852   0.645  11.834   9.945
13652SOL    HW142853   0.602  11.828   9.860
13652SOL    HW242854   0.593  11.899   9.993
13653SOL     OW42855   7.019   2.939   5.122
13653SOL    HW142856   7.107   2.966   5.098
13653SOL    HW242857   6.965   3.017   5.109
13654SOL     OW42858   8.451  14.046   1.982
13654SOL    HW142859   8.376  13.988   1.994
13654SOL    HW242860   8.419  14.132   2.011
13655SOL     OW42861   1.241   4.271   1.238
13655SOL    HW142862   1.189   4.199   1.203
13655SOL    HW242863   1.211   4.348   1.190
13656SOL     OW42864  14.765   1.750   0.422
13656SOL    HW142865  14.849   1.783   0.452
13656SOL    HW242866  14.788   1.687   0.353
13657SOL     OW42867   5.109   6.504   1.428
13657SOL    HW142868   5.027   6.549   1.410
13657SOL    HW242869   5.163   6.518   1.350
13658SOL     OW42870   7.719   9.923   4.076
13658SOL    HW142871   7.782   9.981   4.034
13658SOL    HW242872   7.633   9.957   4.049
13659SOL     OW42873   5.371  14.219   2.888
13659SOL    HW142874   5.317  14.146   2.919
13659SOL    HW242875   5.414  14.252   2.967
13660SOL     OW42876   2.747   2.148   5.528
13660SOL    HW142877   2.748   2.224   5.470
13660SOL    HW242878   2.706   2.079   5.476
13661SOL     OW42879   5.619   0.253   8.613
13661SOL    HW142880   5.673   0.177   8.590
13661SOL    HW242881   5.615   0.304   8.532
13662SOL     OW42882  11.826   3.950   9.268
13662SOL    HW142883  11.801   3.947   9.360
13662SOL    HW242884  11.762   4.009   9.228
13663SOL     OW42885   3.097  12.086  12.041
13663SOL    HW142886   3.028  12.022  12.059
13663SOL    HW242887   3.121  12.070  11.949
13664SOL     OW42888   8.381   8.603  14.251
13664SOL    HW142889   8.344   8.526  14.208
13664SOL    HW242890   8.378   8.582  14.345
13665SOL     OW42891   5.547   1.682   1.208
13665SOL    HW142892   5.610   1.679   1.136
13665SOL    HW242893   5.583   1.748   1.268
13666SOL     OW42894   6.619   0.086  13.189
13666SOL    HW142895   6.556   0.036  13.138
13666SOL    HW242896   6.648   0.026  13.258
13667SOL     OW42897  11.353   5.103  11.041
13667SOL    HW142898  11.339   5.119  11.134
13667SOL    HW242899  11.296   5.029  11.020
13668SOL     OW42900   7.978   6.802   0.663
13668SOL    HW142901   7.920   6.818   0.588
13668SOL    HW242902   8.065   6.796   0.625
13669SOL     OW42903   1.646   9.536   0.973
13669SOL    HW142904   1.662   9.522   1.067
13669SOL    HW242905   1.695   9.616   0.952
13670SOL     OW42906  12.615  13.653   1.256
13670SOL    HW142907  12.624  13.581   1.318
13670SOL    HW242908  12.573  13.723   1.306
13671SOL     OW42909   7.910  13.340   8.352
13671SOL    HW142910   7.876  13.414   8.403
13671SOL    HW242911   7.921  13.270   8.416
13672SOL     OW42912   9.166   0.148   8.850
13672SOL    HW142913   9.177   0.134   8.756
13672SOL    HW242914   9.246   0.192   8.878
13673SOL     OW42915   3.838  10.735   9.587
13673SOL    HW142916   3.931  10.738   9.567
13673SOL    HW242917   3.826  10.798   9.658
13674SOL     OW42918  13.754   2.116   5.664
13674SOL    HW142919  13.755   2.206   5.631
13674SOL    HW242920  13.710   2.122   5.749
13675SOL     OW42921   2.512   3.012   9.280
13675SOL    HW142922   2.536   3.101   9.304
13675SOL    HW242923   2.585   2.958   9.309
13676SOL     OW42924   0.682  12.229  13.178
13676SOL    HW142925   0.758  12.212  13.233
13676SOL    HW242926   0.614  12.259  13.238
13677SOL     OW42927   5.054   7.114   9.809
13677SOL    HW142928   4.978   7.120   9.865
13677SOL    HW242929   5.021   7.076   9.727
13678SOL     OW42930   3.215  14.555   2.334
13678SOL    HW142931   3.146  14.613   2.301
13678SOL    HW242932   3.172  14.469   2.341
13679SOL     OW42933   7.273  11.128   5.802
13679SOL    HW142934   7.219  11.194   5.846
13679SOL    HW242935   7.342  11.107   5.866
13680SOL     OW42936   9.503   9.801   0.685
13680SOL    HW142937   9.461   9.783   0.601
13680SOL    HW242938   9.549   9.884   0.671
13681SOL     OW42939   9.800   2.151   9.789
13681SOL    HW142940   9.892   2.126   9.785
13681SOL    HW242941   9.774   2.163   9.698
13682SOL     OW42942   5.230   3.801  11.895
13682SOL    HW142943   5.190   3.780  11.979
13682SOL    HW242944   5.306   3.855  11.918
13683SOL     OW42945  10.399   7.516   8.593
13683SOL    HW142946  10.464   7.449   8.616
13683SOL    HW242947  10.323   7.494   8.647
13684SOL     OW42948   6.185   5.420   9.805
13684SOL    HW142949   6.256   5.388   9.749
13684SOL    HW242950   6.215   5.507   9.833
13685SOL     OW42951  12.022   2.251   3.130
13685SOL    HW142952  11.944   2.306   3.136
13685SOL    HW242953  12.058   2.251   3.219
13686SOL     OW42954   1.801   0.203   4.920
13686SOL    HW142955   1.729   0.213   4.858
13686SOL    HW242956   1.760   0.174   5.001
13687SOL     OW42957   4.515  14.539   0.825
13687SOL    HW142958   4.590  14.537   0.767
13687SOL    HW242959   4.477  14.627   0.814
13688SOL     OW42960   1.912   2.508   9.275
13688SOL    HW142961   1.978   2.571   9.303
13688SOL    HW242962   1.829   2.554   9.285
13689SOL     OW42963   4.218  10.745   3.809
13689SOL    HW142964   4.256  10.705   3.730
13689SOL    HW242965   4.125  10.723   3.804
13690SOL     OW42966   7.578   8.463  10.540
13690SOL    HW142967   7.643   8.526  10.511
13690SOL    HW242968   7.626   8.381  10.553
13691SOL     OW42969  14.135  10.828   4.997
13691SOL    HW142970  14.060  10.820   5.056
13691SOL    HW242971  14.211  10.806   5.052
13692SOL     OW42972   1.061  11.728   6.446
13692SOL    HW142973   0.986  11.672   6.463
13692SOL    HW242974   1.058  11.745   6.352
13693SOL     OW42975   5.929  12.544  14.391
13693SOL    HW142976   6.004  12.484  14.387
13693SOL    HW242977   5.949  12.610  14.324
13694SOL     OW42978   7.022  13.125   5.968
13694SOL    HW142979   7.019  13.085   5.881
13694SOL    HW242980   6.936  13.105   6.006
13695SOL     OW42981   1.123   8.710   9.414
13695SOL    HW142982   1.165   8.786   9.455
13695SOL    HW242983   1.168   8.635   9.453
13696SOL     OW42984   0.942   1.164  13.756
13696SOL    HW142985   1.034   1.139  13.747
13696SOL    HW242986   0.911   1.175  13.667
13697SOL     OW42987   6.322   0.317   7.068
13697SOL    HW142988   6.365   0.231   7.064
13697SOL    HW242989   6.332   0.344   7.159
13698SOL     OW42990  13.500   3.650   4.487
13698SOL    HW142991  13.442   3.721   4.458
13698SOL    HW242992  13.513   3.666   4.580
13699SOL     OW42993   7.815   0.457  11.555
13699SOL    HW142994   7.774   0.501  11.629
13699SOL    HW242995   7.769   0.373  11.548
13700SOL     OW42996  14.025   3.262   4.360
13700SOL    HW142997  13.962   3.203   4.402
13700SOL    HW242998  14.063   3.312   4.431
13701SOL     OW42999  10.921   6.650   4.888
13701SOL    HW143000  10.858   6.672   4.957
13701SOL    HW243001  11.007   6.665   4.929
13702SOL     OW43002   0.970  11.311   1.408
13702SOL    HW143003   1.014  11.391   1.438
13702SOL    HW243004   0.977  11.314   1.313
13703SOL     OW43005  10.447   1.571   6.101
13703SOL    HW143006  10.427   1.641   6.164
13703SOL    HW243007  10.378   1.578   6.036
13704SOL     OW43008   5.630   8.706   3.348
13704SOL    HW143009   5.612   8.703   3.442
13704SOL    HW243010   5.682   8.627   3.331
13705SOL     OW43011   1.970  10.887   0.515
13705SOL    HW143012   1.991  10.960   0.573
13705SOL    HW243013   2.027  10.899   0.440
13706SOL     OW43014   4.947  14.506   9.745
13706SOL    HW143015   4.882  14.540   9.684
13706SOL    HW243016   4.955  14.413   9.723
13707SOL     OW43017  11.471   1.471  11.372
13707SOL    HW143018  11.435   1.487  11.286
13707SOL    HW243019  11.548   1.416  11.357
13708SOL     OW43020   1.435  14.854   2.284
13708SOL    HW143021   1.340  14.862   2.275
13708SOL    HW243022   1.456  14.771   2.241
13709SOL     OW43023   7.590  10.858   5.372
13709SOL    HW143024   7.618  10.822   5.288
13709SOL    HW243025   7.654  10.825   5.435
13710SOL     OW43026   0.407   8.469  12.880
13710SOL    HW143027   0.500   8.492  12.872
13710SOL    HW243028   0.387   8.423  12.799
13711SOL     OW43029  11.282   3.835  14.096
13711SOL    HW143030  11.326   3.791  14.169
13711SOL    HW243031  11.192   3.803  14.101
13712SOL     OW43032   6.574  12.144  12.545
13712SOL    HW143033   6.490  12.166  12.587
13712SOL    HW243034   6.620  12.091  12.611
13713SOL     OW43035   3.022   7.764   1.800
13713SOL    HW143036   2.985   7.677   1.807
13713SOL    HW243037   3.110   7.750   1.763
13714SOL     OW43038   3.330   8.538   5.965
13714SOL    HW143039   3.423   8.554   5.946
13714SOL    HW243040   3.299   8.620   6.003
13715SOL     OW43041  10.884   1.458  14.256
13715SOL    HW143042  10.968   1.504  14.253
13715SOL    HW243043  10.878   1.424  14.345
13716SOL     OW43044   8.374  10.255  14.812
13716SOL    HW143045   8.344  10.337  14.853
13716SOL    HW243046   8.457  10.235  14.855
13717SOL     OW43047   0.855   1.128   3.757
13717SOL    HW143048   0.904   1.181   3.819
13717SOL    HW243049   0.886   1.157   3.671
13718SOL     OW43050  13.536   0.848   7.624
13718SOL    HW143051  13.614   0.832   7.678
13718SOL    HW243052  13.468   0.872   7.688
13719SOL     OW43053   8.915   5.157  13.240
13719SOL    HW143054   8.865   5.239  13.241
13719SOL    HW243055   8.893   5.118  13.155
13720SOL     OW43056   9.687   7.509   6.848
13720SOL    HW143057   9.653   7.587   6.805
13720SOL    HW243058   9.708   7.449   6.776
13721SOL     OW43059   9.966  11.805   5.132
13721SOL    HW143060   9.906  11.741   5.170
13721SOL    HW243061   9.911  11.879   5.109
13722SOL     OW43062   9.493   8.828   3.810
13722SOL    HW143063   9.425   8.776   3.853
13722SOL    HW243064   9.520   8.891   3.877
13723SOL     OW43065   8.755  14.635   6.551
13723SOL    HW143066   8.848  14.651   6.570
13723SOL    HW243067   8.750  14.542   6.531
13724SOL     OW43068  10.205   8.799   8.779
13724SOL    HW143069  10.194   8.851   8.699
13724SOL    HW243070  10.116   8.777   8.807
13725SOL     OW43071   9.122   8.980   7.951
13725SOL    HW143072   9.160   9.030   8.024
13725SOL    HW243073   9.129   8.889   7.978
13726SOL     OW43074   2.751  12.407  10.142
13726SOL    HW143075   2.771  12.491  10.183
13726SOL    HW243076   2.708  12.357  10.211
13727SOL     OW43077  10.260   7.550   9.917
13727SOL    HW143078  10.335   7.548   9.858
13727SOL    HW243079  10.184   7.561   9.860
13728SOL     OW43080  14.488   6.275  11.724
13728SOL    HW143081  14.466   6.310  11.638
13728SOL    HW243082  14.583   6.260  11.721
13729SOL     OW43083   3.622  12.331   2.526
13729SOL    HW143084   3.594  12.421   2.543
13729SOL    HW243085   3.670  12.305   2.605
13730SOL     OW43086  13.551   5.347   2.315
13730SOL    HW143087  13.532   5.358   2.222
13730SOL    HW243088  13.544   5.435   2.352
13731SOL     OW43089   3.253  13.312   5.505
13731SOL    HW143090   3.158  13.301   5.504
13731SOL    HW243091   3.269  13.375   5.575
13732SOL     OW43092  10.961   0.827  13.537
13732SOL    HW143093  10.897   0.879  13.488
13732SOL    HW243094  11.023   0.797  13.470
13733SOL     OW43095  13.441  11.891   0.415
13733SOL    HW143096  13.355  11.909   0.379
13733SOL    HW243097  13.427  11.884   0.509
13734SOL     OW43098   3.868   1.826   3.212
13734SOL    HW143099   3.823   1.888   3.269
13734SOL    HW243100   3.951   1.808   3.257
13735SOL     OW43101  10.591   4.016   3.847
13735SOL    HW143102  10.515   4.068   3.822
13735SOL    HW243103  10.666   4.070   3.821
13736SOL     OW43104  10.818  13.332  12.639
13736SOL    HW143105  10.792  13.264  12.701
13736SOL    HW243106  10.911  13.317  12.624
13737SOL     OW43107   6.191  11.305   1.538
13737SOL    HW143108   6.123  11.310   1.605
13737SOL    HW243109   6.267  11.347   1.578
13738SOL     OW43110  13.903  14.100  12.589
13738SOL    HW143111  13.905  14.005  12.579
13738SOL    HW243112  13.854  14.131  12.512
13739SOL     OW43113   2.418   0.282  11.721
13739SOL    HW143114   2.470   0.284  11.802
13739SOL    HW243115   2.383   0.371  11.713
13740SOL     OW43116   9.345   4.906  10.601
13740SOL    HW143117   9.407   4.855  10.653
13740SOL    HW243118   9.284   4.942  10.665
13741SOL     OW43119  13.637   3.419   9.904
13741SOL    HW143120  13.594   3.356   9.963
13741SOL    HW243121  13.716   3.445   9.950
13742SOL     OW43122  14.686  12.001   0.210
13742SOL    HW143123  14.625  12.056   0.259
13742SOL    HW243124  14.640  11.981   0.129
13743SOL     OW43125   0.540   3.566   6.763
13743SOL    HW143126   0.547   3.551   6.668
13743SOL    HW243127   0.528   3.479   6.800
13744SOL     OW43128   9.388  11.199   0.919
13744SOL    HW143129   9.446  11.124   0.923
13744SOL    HW243130   9.366  11.218   1.010
13745SOL     OW43131   8.273   6.158   0.395
13745SOL    HW143132   8.180   6.155   0.418
13745SOL    HW243133   8.310   6.079   0.433
13746SOL     OW43134  12.034   3.077  13.774
13746SOL    HW143135  11.977   3.036  13.839
13746SOL    HW243136  12.102   3.121  13.825
13747SOL     OW43137   3.130  10.995   9.933
13747SOL    HW143138   3.074  10.993  10.011
13747SOL    HW243139   3.093  10.928   9.875
13748SOL     OW43140  10.199   8.446   2.961
13748SOL    HW143141  10.233   8.361   2.991
13748SOL    HW243142  10.211   8.444   2.866
13749SOL     OW43143   8.676   6.987   7.051
13749SOL    HW143144   8.658   6.989   7.145
13749SOL    HW243145   8.648   7.072   7.020
13750SOL     OW43146  12.806   0.574   8.383
13750SOL    HW143147  12.886   0.554   8.431
13750SOL    HW243148  12.749   0.498   8.397
13751SOL     OW43149  10.126   2.510   3.100
13751SOL    HW143150  10.078   2.537   3.178
13751SOL    HW243151  10.105   2.417   3.090
13752SOL     OW43152  14.305  13.399   1.189
13752SOL    HW143153  14.376  13.372   1.131
13752SOL    HW243154  14.309  13.495   1.189
13753SOL     OW43155   7.720   7.220   7.514
13753SOL    HW143156   7.763   7.297   7.549
13753SOL    HW243157   7.634   7.252   7.484
13754SOL     OW43158   6.115   9.694   5.206
13754SOL    HW143159   6.099   9.617   5.151
13754SOL    HW243160   6.192   9.670   5.258
13755SOL     OW43161  13.912   8.532   1.998
13755SOL    HW143162  13.863   8.467   2.049
13755SOL    HW243163  13.897   8.507   1.907
13756SOL     OW43164   3.104  11.448   3.617
13756SOL    HW143165   3.069  11.529   3.655
13756SOL    HW243166   3.137  11.474   3.531
13757SOL     OW43167  14.760   4.428  12.888
13757SOL    HW143168  14.816   4.401  12.960
13757SOL    HW243169  14.786   4.372  12.815
13758SOL     OW43170  10.231  13.842   9.518
13758SOL    HW143171  10.305  13.821   9.461
13758SOL    HW243172  10.269  13.893   9.589
13759SOL     OW43173  10.150   9.527   1.326
13759SOL    HW143174  10.200   9.450   1.298
13759SOL    HW243175  10.111   9.561   1.245
13760SOL     OW43176  14.187   5.147   6.291
13760SOL    HW143177  14.259   5.098   6.252
13760SOL    HW243178  14.117   5.083   6.302
13761SOL     OW43179   6.754  12.534  10.587
13761SOL    HW143180   6.726  12.501  10.502
13761SOL    HW243181   6.776  12.625  10.571
13762SOL     OW43182   3.207   0.211   0.225
13762SOL    HW143183   3.146   0.201   0.152
13762SOL    HW243184   3.197   0.303   0.252
13763SOL     OW43185   4.586  14.477   4.723
13763SOL    HW143186   4.513  14.516   4.673
13763SOL    HW243187   4.546  14.450   4.806
13764SOL     OW43188   8.666   9.691   8.180
13764SOL    HW143189   8.683   9.779   8.214
13764SOL    HW243190   8.698   9.694   8.090
13765SOL     OW43191   2.575   9.212   2.731
13765SOL    HW143192   2.524   9.173   2.660
13765SOL    HW243193   2.666   9.197   2.707
13766SOL     OW43194   1.936   9.819   3.805
13766SOL    HW143195   2.013   9.863   3.768
13766SOL    HW243196   1.972   9.760   3.871
13767SOL     OW43197   3.123  10.328   1.528
13767SOL    HW143198   3.137  10.322   1.622
13767SOL    HW243199   3.211  10.325   1.490
13768SOL     OW43200  13.403   8.687   8.805
13768SOL    HW143201  13.369   8.597   8.810
13768SOL    HW243202  13.371   8.720   8.721
13769SOL     OW43203   1.601  14.007   2.164
13769SOL    HW143204   1.687  14.032   2.131
13769SOL    HW243205   1.617  13.980   2.255
13770SOL     OW43206   0.046   2.814   3.917
13770SOL    HW143207   0.021   2.764   3.995
13770SOL    HW243208   0.062   2.747   3.850
13771SOL     OW43209   0.862  14.097   0.886
13771SOL    HW143210   0.922  14.133   0.821
13771SOL    HW243211   0.912  14.095   0.967
13772SOL     OW43212   1.936   1.559   7.499
13772SOL    HW143213   1.848   1.523   7.491
13772SOL    HW243214   1.974   1.549   7.411
13773SOL     OW43215   0.346   4.110   3.088
13773SOL    HW143216   0.360   4.167   3.012
13773SOL    HW243217   0.433   4.079   3.112
13774SOL     OW43218   3.711   2.061   8.922
13774SOL    HW143219   3.630   2.074   8.972
13774SOL    HW243220   3.779   2.101   8.976
13775SOL     OW43221   7.567   4.964  12.141
13775SOL    HW143222   7.473   4.951  12.127
13775SOL    HW243223   7.605   4.877  12.130
13776SOL     OW43224  10.233   8.463  10.283
13776SOL    HW143225  10.197   8.508  10.359
13776SOL    HW243226  10.189   8.378  10.282
13777SOL     OW43227   8.066   1.081  13.553
13777SOL    HW143228   8.087   1.105  13.462
13777SOL    HW243229   8.023   0.995  13.545
13778SOL     OW43230  11.237   6.314   6.106
13778SOL    HW143231  11.237   6.390   6.164
13778SOL    HW243232  11.328   6.307   6.076
13779SOL     OW43233   0.938  12.282   6.652
13779SOL    HW143234   0.944  12.343   6.578
13779SOL    HW243235   1.022  12.291   6.697
13780SOL     OW43236   8.703  10.080  12.577
13780SOL    HW143237   8.693  10.159  12.525
13780SOL    HW243238   8.708  10.009  12.512
13781SOL     OW43239  11.052   2.376  11.639
13781SOL    HW143240  10.988   2.448  11.642
13781SOL    HW243241  11.000   2.299  11.616
13782SOL     OW43242   4.156  12.418  13.373
13782SOL    HW143243   4.140  12.506  13.409
13782SOL    HW243244   4.168  12.362  13.450
13783SOL     OW43245   0.647   1.335  12.358
13783SOL    HW143246   0.640   1.240  12.364
13783SOL    HW243247   0.734   1.351  12.321
13784SOL     OW43248  13.376   7.611  13.187
13784SOL    HW143249  13.461   7.645  13.214
13784SOL    HW243250  13.374   7.521  13.221
13785SOL     OW43251   2.116   5.877   5.327
13785SOL    HW143252   2.085   5.787   5.336
13785SOL    HW243253   2.041   5.930   5.352
13786SOL     OW43254   3.795   1.021   6.538
13786SOL    HW143255   3.748   0.937   6.541
13786SOL    HW243256   3.736   1.083   6.580
13787SOL     OW43257   2.123  12.954   4.621
13787SOL    HW143258   2.149  13.038   4.660
13787SOL    HW243259   2.115  12.973   4.527
13788SOL     OW43260   9.690   4.897  12.453
13788SOL    HW143261   9.649   4.829  12.399
13788SOL    HW243262   9.662   4.877  12.542
13789SOL     OW43263  10.637   7.373   3.948
13789SOL    HW143264  10.660   7.442   3.886
13789SOL    HW243265  10.629   7.294   3.894
13790SOL     OW43266  10.174  12.449  14.279
13790SOL    HW143267  10.232  12.376  14.301
13790SOL    HW243268  10.191  12.465  14.186
13791SOL     OW43269   8.459  14.003   4.602
13791SOL    HW143270   8.535  14.052   4.571
13791SOL    HW243271   8.459  13.924   4.549
13792SOL     OW43272   2.399   4.550   2.805
13792SOL    HW143273   2.495   4.559   2.808
13792SOL    HW243274   2.374   4.589   2.721
13793SOL     OW43275   2.906   9.063   4.068
13793SOL    HW143276   2.914   8.979   4.022
13793SOL    HW243277   2.911   9.129   3.998
13794SOL     OW43278   6.497   3.724  14.713
13794SOL    HW143279   6.487   3.639  14.757
13794SOL    HW243280   6.590   3.728  14.690
13795SOL     OW43281   2.889   6.982  13.706
13795SOL    HW143282   2.925   6.955  13.622
13795SOL    HW243283   2.811   7.033  13.683
13796SOL     OW43284   0.138  13.853   1.335
13796SOL    HW143285   0.117  13.766   1.366
13796SOL    HW243286   0.146  13.906   1.414
13797SOL     OW43287   7.405   8.567   1.951
13797SOL    HW143288   7.335   8.550   1.889
13797SOL    HW243289   7.372   8.533   2.035
13798SOL     OW43290   9.342   0.911   3.589
13798SOL    HW143291   9.310   0.833   3.544
13798SOL    HW243292   9.420   0.882   3.636
13799SOL     OW43293   0.958   3.965  12.477
13799SOL    HW143294   0.878   3.921  12.449
13799SOL    HW243295   0.992   4.005  12.396
13800SOL     OW43296   5.334  13.436   6.182
13800SOL    HW143297   5.251  13.417   6.139
13800SOL    HW243298   5.397  13.377   6.139
13801SOL     OW43299   2.466   9.388  12.495
13801SOL    HW143300   2.538   9.391  12.433
13801SOL    HW243301   2.394   9.432  12.451
13802SOL     OW43302   8.118   7.331   7.175
13802SOL    HW143303   8.105   7.354   7.267
13802SOL    HW243304   8.205   7.367   7.154
13803SOL     OW43305  12.608   0.311   3.796
13803SOL    HW143306  12.624   0.352   3.882
13803SOL    HW243307  12.588   0.384   3.738
13804SOL     OW43308   2.752   0.877  10.202
13804SOL    HW143309   2.704   0.926  10.269
13804SOL    HW243310   2.805   0.943  10.157
13805SOL     OW43311   9.800  14.483  13.771
13805SOL    HW143312   9.861  14.511  13.704
13805SOL    HW243313   9.855  14.464  13.847
13806SOL     OW43314   6.155   0.932   0.290
13806SOL    HW143315   6.144   0.977   0.207
13806SOL    HW243316   6.249   0.920   0.299
13807SOL     OW43317  12.932  12.727  11.682
13807SOL    HW143318  12.895  12.670  11.750
13807SOL    HW243319  13.009  12.766  11.722
13808SOL     OW43320   0.259  13.888   1.113
13808SOL    HW143321   0.211  13.884   1.196
13808SOL    HW243322   0.342  13.845   1.131
13809SOL     OW43323   4.271   4.014   6.820
13809SOL    HW143324   4.273   4.020   6.725
13809SOL    HW243325   4.243   3.924   6.838
13810SOL     OW43326  13.387   4.521   6.442
13810SOL    HW143327  13.453   4.527   6.373
13810SOL    HW243328  13.392   4.604   6.488
13811SOL     OW43329   4.872   7.052   7.560
13811SOL    HW143330   4.786   7.058   7.603
13811SOL    HW243331   4.863   7.106   7.482
13812SOL     OW43332  12.585   9.452   0.936
13812SOL    HW143333  12.570   9.359   0.918
13812SOL    HW243334  12.639   9.453   1.016
13813SOL     OW43335   1.205   1.883   3.100
13813SOL    HW143336   1.297   1.883   3.074
13813SOL    HW243337   1.163   1.946   3.042
13814SOL     OW43338  11.759   3.523  11.534
13814SOL    HW143339  11.736   3.538  11.626
13814SOL    HW243340  11.839   3.471  11.539
13815SOL     OW43341   2.212  13.521   7.862
13815SOL    HW143342   2.280  13.477   7.811
13815SOL    HW243343   2.222  13.614   7.840
13816SOL     OW43344   7.120   8.490  11.042
13816SOL    HW143345   7.132   8.401  11.075
13816SOL    HW243346   7.075   8.536  11.114
13817SOL     OW43347   0.840  11.542   8.577
13817SOL    HW143348   0.889  11.600   8.519
13817SOL    HW243349   0.800  11.478   8.518
13818SOL     OW43350   9.580   5.298   5.162
13818SOL    HW143351   9.643   5.364   5.132
13818SOL    HW243352   9.496   5.328   5.126
13819SOL     OW43353   1.759   7.760   3.262
13819SOL    HW143354   1.811   7.762   3.182
13819SOL    HW243355   1.820   7.728   3.329
13820SOL     OW43356   0.538  11.800   7.274
13820SOL    HW143357   0.545  11.795   7.369
13820SOL    HW243358   0.448  11.828   7.258
13821SOL     OW43359  11.460   5.481   1.306
13821SOL    HW143360  11.496   5.406   1.259
13821SOL    HW243361  11.389   5.512   1.250
13822SOL     OW43362  10.026   2.320   6.196
13822SOL    HW143363  10.080   2.398   6.197
13822SOL    HW243364  10.088   2.247   6.204
13823SOL     OW43365  14.424   0.564   2.472
13823SOL    HW143366  14.485   0.494   2.494
13823SOL    HW243367  14.364   0.569   2.547
13824SOL     OW43368   9.714  11.020   2.441
13824SOL    HW143369   9.763  10.980   2.370
13824SOL    HW243370   9.647  11.072   2.397
13825SOL     OW43371   8.745  13.442   4.839
13825SOL    HW143372   8.773  13.438   4.748
13825SOL    HW243373   8.812  13.394   4.887
13826SOL     OW43374   1.908   0.525   1.214
13826SOL    HW143375   1.983   0.470   1.191
13826SOL    HW243376   1.941   0.583   1.284
13827SOL     OW43377   4.066  14.459   8.958
13827SOL    HW143378   4.013  14.398   9.008
13827SOL    HW243379   4.088  14.412   8.877
13828SOL     OW43380   9.211   8.833   4.498
13828SOL    HW143381   9.178   8.823   4.408
13828SOL    HW243382   9.133   8.854   4.549
13829SOL     OW43383   6.926   5.714   5.407
13829SOL    HW143384   7.000   5.655   5.425
13829SOL    HW243385   6.874   5.667   5.342
13830SOL     OW43386   9.704   0.659   9.240
13830SOL    HW143387   9.706   0.640   9.146
13830SOL    HW243388   9.637   0.600   9.275
13831SOL     OW43389  10.289   9.317   2.087
13831SOL    HW143390  10.356   9.262   2.128
13831SOL    HW243391  10.312   9.406   2.112
13832SOL     OW43392  10.039   2.316  11.878
13832SOL    HW143393   9.950   2.333  11.848
13832SOL    HW243394  10.088   2.395  11.855
13833SOL     OW43395   6.277  11.137  12.012
13833SOL    HW143396   6.293  11.084  11.933
13833SOL    HW243397   6.302  11.079  12.084
13834SOL     OW43398   0.459   5.122   4.116
13834SOL    HW143399   0.405   5.172   4.055
13834SOL    HW243400   0.457   5.033   4.082
13835SOL     OW43401   3.753   4.989   0.813
13835SOL    HW143402   3.704   4.911   0.839
13835SOL    HW243403   3.791   5.022   0.895
13836SOL     OW43404  10.196  12.154   1.948
13836SOL    HW143405  10.235  12.240   1.961
13836SOL    HW243406  10.116  12.170   1.898
13837SOL     OW43407   5.235   3.468   9.274
13837SOL    HW143408   5.319   3.484   9.232
13837SOL    HW243409   5.176   3.448   9.202
13838SOL     OW43410  10.341   6.020   2.674
13838SOL    HW143411  10.432   6.021   2.643
13838SOL    HW243412  10.311   5.930   2.661
13839SOL     OW43413   5.742  12.025  13.496
13839SOL    HW143414   5.677  11.994  13.434
13839SOL    HW243415   5.716  11.986  13.580
13840SOL     OW43416  13.604  11.065   3.714
13840SOL    HW143417  13.622  11.132   3.648
13840SOL    HW243418  13.539  11.105   3.772
13841SOL     OW43419   6.046  12.358   7.086
13841SOL    HW143420   6.072  12.369   7.178
13841SOL    HW243421   5.990  12.434   7.068
13842SOL     OW43422   3.747   7.771  12.422
13842SOL    HW143423   3.705   7.694  12.384
13842SOL    HW243424   3.812   7.736  12.482
13843SOL     OW43425  10.369   3.403   4.136
13843SOL    HW143426  10.292   3.356   4.168
13843SOL    HW243427  10.385   3.470   4.203
13844SOL     OW43428   4.430  13.090   2.969
13844SOL    HW143429   4.371  13.018   2.946
13844SOL    HW243430   4.397  13.165   2.920
13845SOL     OW43431   4.787   0.635   4.300
13845SOL    HW143432   4.824   0.549   4.279
13845SOL    HW243433   4.767   0.674   4.215
13846SOL     OW43434  14.743   9.317   5.838
13846SOL    HW143435  14.652   9.344   5.837
13846SOL    HW243436  14.791   9.394   5.809
13847SOL     OW43437  10.391  11.849   9.665
13847SOL    HW143438  10.426  11.771   9.622
13847SOL    HW243439  10.326  11.884   9.603
13848SOL     OW43440   4.396   0.000   4.991
13848SOL    HW143441   4.454   0.028   4.920
13848SOL    HW243442   4.455  14.827   5.053
13849SOL     OW43443   1.047   8.537   4.477
13849SOL    HW143444   0.981   8.588   4.429
13849SOL    HW243445   1.049   8.576   4.564
13850SOL     OW43446  12.387   7.335   5.200
13850SOL    HW143447  12.390   7.252   5.249
13850SOL    HW243448  12.376   7.402   5.267
13851SOL     OW43449   4.118  12.763   0.751
13851SOL    HW143450   4.159  12.830   0.697
13851SOL    HW243451   4.158  12.773   0.837
13852SOL     OW43452  13.853   7.738  11.206
13852SOL    HW143453  13.892   7.765  11.124
13852SOL    HW243454  13.905   7.663  11.235
13853SOL     OW43455   0.511  10.408   1.302
13853SOL    HW143456   0.589  10.389   1.355
13853SOL    HW243457   0.486  10.323   1.266
13854SOL     OW43458   8.641   9.502   9.274
13854SOL    HW143459   8.723   9.476   9.231
13854SOL    HW243460   8.575   9.446   9.234
13855SOL     OW43461   5.667   2.296  11.672
13855SOL    HW143462   5.679   2.237  11.746
13855SOL    HW243463   5.619   2.245  11.607
13856SOL     OW43464   9.087  11.932   8.923
13856SOL    HW143465   9.154  11.999   8.935
13856SOL    HW243466   9.005  11.980   8.918
13857SOL     OW43467   3.113  12.197  13.547
13857SOL    HW143468   3.110  12.129  13.615
13857SOL    HW243469   3.074  12.274  13.588
13858SOL     OW43470  11.633   2.734  13.527
13858SOL    HW143471  11.639   2.711  13.620
13858SOL    HW243472  11.590   2.658  13.487
13859SOL     OW43473   3.680   3.995  13.264
13859SOL    HW143474   3.618   4.058  13.227
13859SOL    HW243475   3.627   3.942  13.324
13860SOL     OW43476   4.779  10.288   6.819
13860SOL    HW143477   4.784  10.265   6.726
13860SOL    HW243478   4.871  10.286   6.849
13861SOL     OW43479  10.800   4.847   5.212
13861SOL    HW143480  10.717   4.889   5.190
13861SOL    HW243481  10.793   4.758   5.177
13862SOL     OW43482  12.362   8.927  12.745
13862SOL    HW143483  12.322   9.005  12.707
13862SOL    HW243484  12.353   8.939  12.840
13863SOL     OW43485   0.723   0.433   5.828
13863SOL    HW143486   0.716   0.349   5.782
13863SOL    HW243487   0.811   0.433   5.865
13864SOL     OW43488   3.818   3.998   1.743
13864SOL    HW143489   3.801   3.921   1.689
13864SOL    HW243490   3.864   4.059   1.685
13865SOL     OW43491   3.142   4.669  13.207
13865SOL    HW143492   3.194   4.648  13.130
13865SOL    HW243493   3.122   4.584  13.247
13866SOL     OW43494   7.342   9.212  12.534
13866SOL    HW143495   7.436   9.195  12.541
13866SOL    HW243496   7.329   9.292  12.585
13867SOL     OW43497   7.118   3.948   1.611
13867SOL    HW143498   7.180   3.899   1.556
13867SOL    HW243499   7.049   3.885   1.631
13868SOL     OW43500  11.780   9.736  13.266
13868SOL    HW143501  11.814   9.826  13.271
13868SOL    HW243502  11.808   9.705  13.180
13869SOL     OW43503   5.521  10.482   1.321
13869SOL    HW143504   5.441  10.533   1.333
13869SOL    HW243505   5.549  10.502   1.232
13870SOL     OW43506   7.712  14.352  12.165
13870SOL    HW143507   7.672  14.265  12.168
13870SOL    HW243508   7.787  14.343  12.106
13871SOL     OW43509  13.900   2.229   4.741
13871SOL    HW143510  13.810   2.212   4.770
13871SOL    HW243511  13.890   2.285   4.664
13872SOL     OW43512   7.724   0.514   2.777
13872SOL    HW143513   7.723   0.570   2.855
13872SOL    HW243514   7.706   0.426   2.811
13873SOL     OW43515  12.742   8.549  14.028
13873SOL    HW143516  12.669   8.542  14.089
13873SOL    HW243517  12.709   8.514  13.945
13874SOL     OW43518   2.649  11.917   3.165
13874SOL    HW143519   2.652  12.009   3.138
13874SOL    HW243520   2.659  11.868   3.084
13875SOL     OW43521   2.040  14.361  12.482
13875SOL    HW143522   2.130  14.374  12.454
13875SOL    HW243523   2.037  14.271  12.514
13876SOL     OW43524  11.055  10.080  12.333
13876SOL    HW143525  10.975  10.132  12.340
13876SOL    HW243526  11.072  10.074  12.239
13877SOL     OW43527   0.487   0.661  14.096
13877SOL    HW143528   0.549   0.603  14.052
13877SOL    HW243529   0.408   0.607  14.107
13878SOL     OW43530   0.405   2.612   0.673
13878SOL    HW143531   0.403   2.572   0.760
13878SOL    HW243532   0.355   2.552   0.618
13879SOL     OW43533   1.120   7.216   7.685
13879SOL    HW143534   1.108   7.141   7.626
13879SOL    HW243535   1.109   7.180   7.773
13880SOL     OW43536  12.461  13.108  11.960
13880SOL    HW143537  12.530  13.168  11.931
13880SOL    HW243538  12.462  13.038  11.894
13881SOL     OW43539  13.858   8.165   8.072
13881SOL    HW143540  13.885   8.109   8.144
13881SOL    HW243541  13.933   8.223   8.057
13882SOL     OW43542  12.027   3.888   4.256
13882SOL    HW143543  11.967   3.898   4.183
13882SOL    HW243544  12.021   3.970   4.304
13883SOL     OW43545  14.062   2.017   1.372
13883SOL    HW143546  13.993   2.000   1.308
13883SOL    HW243547  14.141   2.027   1.320
13884SOL     OW43548  10.631  10.173  11.399
13884SOL    HW143549  10.539  10.164  11.424
13884SOL    HW243550  10.628  10.208  11.310
13885SOL     OW43551   2.418  13.235   9.021
13885SOL    HW143552   2.513  13.236   9.007
13885SOL    HW243553   2.405  13.283   9.103
13886SOL     OW43554   0.543   5.535  10.368
13886SOL    HW143555   0.589   5.521  10.451
13886SOL    HW243556   0.535   5.448  10.330
13887SOL     OW43557   3.825   1.265  13.662
13887SOL    HW143558   3.758   1.269  13.730
13887SOL    HW243559   3.908   1.274  13.709
13888SOL     OW43560   7.975  10.058   4.293
13888SOL    HW143561   7.999  10.120   4.362
13888SOL    HW243562   7.896  10.015   4.327
13889SOL     OW43563  12.529   8.073   0.010
13889SOL    HW143564  12.559   8.076   0.101
13889SOL    HW243565  12.505   8.164  14.860
13890SOL     OW43566  12.281  14.850  13.241
13890SOL    HW143567  12.374  14.841  13.261
13890SOL    HW243568  12.278   0.007  13.149
13891SOL     OW43569  13.160  10.328   2.850
13891SOL    HW143570  13.115  10.311   2.768
13891SOL    HW243571  13.251  10.303   2.834
13892SOL     OW43572   1.823   1.296   2.750
13892SOL    HW143573   1.770   1.258   2.680
13892SOL    HW243574   1.905   1.321   2.708
13893SOL     OW43575   0.518   5.885   7.339
13893SOL    HW143576   0.584   5.866   7.407
13893SOL    HW243577   0.435   5.857   7.378
13894SOL     OW43578   9.523   0.063  10.014
13894SOL    HW143579   9.592  14.868  10.030
13894SOL    HW243580   9.482   0.034   9.932
13895SOL     OW43581   0.446  12.334   7.394
13895SOL    HW143582   0.498  12.413   7.412
13895SOL    HW243583   0.445  12.287   7.477
13896SOL     OW43584   6.512  14.216  10.660
13896SOL    HW143585   6.420  14.188  10.661
13896SOL    HW243586   6.509  14.307  10.688
13897SOL     OW43587   1.769  10.860   3.261
13897SOL    HW143588   1.713  10.877   3.184
13897SOL    HW243589   1.819  10.941   3.272
13898SOL     OW43590   3.439   4.805   3.403
13898SOL    HW143591   3.513   4.788   3.344
13898SOL    HW243592   3.448   4.897   3.427
13899SOL     OW43593   5.362   5.062   8.375
13899SOL    HW143594   5.303   5.027   8.308
13899SOL    HW243595   5.362   5.156   8.360
13900SOL     OW43596   5.279  14.269  10.469
13900SOL    HW143597   5.192  14.234  10.448
13900SOL    HW243598   5.262  14.338  10.533
13901SOL     OW43599   7.630  12.794   6.917
13901SOL    HW143600   7.654  12.887   6.912
13901SOL    HW243601   7.534  12.794   6.921
13902SOL     OW43602   4.328   8.048  13.733
13902SOL    HW143603   4.413   8.091  13.719
13902SOL    HW243604   4.289   8.043  13.646
13903SOL     OW43605   9.497   5.039   2.547
13903SOL    HW143606   9.460   5.098   2.480
13903SOL    HW243607   9.422   5.014   2.601
13904SOL     OW43608  14.156   1.268   4.372
13904SOL    HW143609  14.242   1.239   4.343
13904SOL    HW243610  14.142   1.351   4.325
13905SOL     OW43611   3.163  14.023   2.623
13905SOL    HW143612   3.098  13.987   2.562
13905SOL    HW243613   3.172  13.955   2.691
13906SOL     OW43614   0.749   4.372   9.731
13906SOL    HW143615   0.755   4.465   9.706
13906SOL    HW243616   0.675   4.339   9.681
13907SOL     OW43617   5.482  14.669  11.826
13907SOL    HW143618   5.462  14.756  11.791
13907SOL    HW243619   5.554  14.684  11.887
13908SOL     OW43620   4.558   4.357   0.956
13908SOL    HW143621   4.498   4.396   1.019
13908SOL    HW243622   4.503   4.299   0.903
13909SOL     OW43623   3.024  14.612   6.206
13909SOL    HW143624   3.094  14.650   6.259
13909SOL    HW243625   2.953  14.595   6.268
13910SOL     OW43626   3.918   2.195  13.820
13910SOL    HW143627   3.960   2.145  13.750
13910SOL    HW243628   3.990   2.236  13.868
13911SOL     OW43629   3.664   9.469   6.383
13911SOL    HW143630   3.724   9.500   6.451
13911SOL    HW243631   3.604   9.410   6.429
13912SOL     OW43632  13.139   5.973   4.525
13912SOL    HW143633  13.212   5.977   4.587
13912SOL    HW243634  13.178   5.998   4.441
13913SOL     OW43635  11.935  14.431   6.835
13913SOL    HW143636  11.894  14.425   6.749
13913SOL    HW243637  11.993  14.355   6.838
13914SOL     OW43638   3.485  14.041   8.070
13914SOL    HW143639   3.400  14.084   8.081
13914SOL    HW243640   3.533  14.098   8.010
13915SOL     OW43641   9.832   3.293  11.349
13915SOL    HW143642   9.882   3.372  11.328
13915SOL    HW243643   9.894   3.221  11.336
13916SOL     OW43644   7.824   2.057  13.290
13916SOL    HW143645   7.878   2.080  13.366
13916SOL    HW243646   7.829   2.134  13.233
13917SOL     OW43647   1.174   9.415   3.646
13917SOL    HW143648   1.203   9.338   3.696
13917SOL    HW243649   1.253   9.446   3.601
13918SOL     OW43650   0.835   6.470   4.356
13918SOL    HW143651   0.896   6.409   4.398
13918SOL    HW243652   0.848   6.552   4.402
13919SOL     OW43653   0.372   9.142   4.884
13919SOL    HW143654   0.447   9.192   4.917
13919SOL    HW243655   0.398   9.117   4.795
13920SOL     OW43656   4.555   0.466  11.561
13920SOL    HW143657   4.543   0.414  11.482
13920SOL    HW243658   4.607   0.541  11.532
13921SOL     OW43659   4.387   8.375   4.421
13921SOL    HW143660   4.413   8.410   4.336
13921SOL    HW243661   4.355   8.452   4.469
13922SOL     OW43662  14.563  11.017  13.785
13922SOL    HW143663  14.634  11.066  13.827
13922SOL    HW243664  14.520  11.082  13.728
13923SOL     OW43665   5.832   3.330   4.859
13923SOL    HW143666   5.761   3.392   4.874
13923SOL    HW243667   5.910   3.385   4.849
13924SOL     OW43668   7.061  10.428   4.115
13924SOL    HW143669   7.049  10.464   4.203
13924SOL    HW243670   7.057  10.505   4.058
13925SOL     OW43671   4.057   8.749  11.485
13925SOL    HW143672   4.136   8.697  11.503
13925SOL    HW243673   3.993   8.685  11.454
13926SOL     OW43674   0.689  13.791   1.739
13926SOL    HW143675   0.744  13.795   1.818
13926SOL    HW243676   0.703  13.703   1.705
13927SOL     OW43677  11.757   2.494   5.009
13927SOL    HW143678  11.689   2.507   4.943
13927SOL    HW243679  11.822   2.562   4.990
13928SOL     OW43680  14.327   0.826   1.841
13928SOL    HW143681  14.323   0.782   1.756
13928SOL    HW243682  14.236   0.828   1.871
13929SOL     OW43683   6.380   3.071  12.313
13929SOL    HW143684   6.298   3.062  12.362
13929SOL    HW243685   6.443   3.019  12.363
13930SOL     OW43686  12.232   2.774   6.187
13930SOL    HW143687  12.214   2.854   6.138
13930SOL    HW243688  12.269   2.714   6.123
13931SOL     OW43689   7.585   1.683  10.844
13931SOL    HW143690   7.516   1.738  10.883
13931SOL    HW243691   7.539   1.632  10.777
13932SOL     OW43692   6.853   1.393   1.652
13932SOL    HW143693   6.785   1.457   1.630
13932SOL    HW243694   6.860   1.397   1.747
13933SOL     OW43695   0.654   7.445  12.921
13933SOL    HW143696   0.650   7.384  12.994
13933SOL    HW243697   0.633   7.393  12.844
13934SOL     OW43698   0.029  13.687   4.486
13934SOL    HW143699   0.019  13.604   4.533
13934SOL    HW243700   0.116  13.682   4.446
13935SOL     OW43701   0.074  11.823  13.955
13935SOL    HW143702  14.867  11.770  13.932
13935SOL    HW243703   0.060  11.849  14.046
13936SOL     OW43704  14.083   1.346  10.371
13936SOL    HW143705  14.127   1.412  10.426
13936SOL    HW243706  14.155   1.297  10.332
13937SOL     OW43707   3.183   7.302   5.618
13937SOL    HW143708   3.227   7.237   5.673
13937SOL    HW243709   3.177   7.380   5.674
13938SOL     OW43710   9.728   9.409   6.784
13938SOL    HW143711   9.693   9.322   6.767
13938SOL    HW243712   9.661   9.469   6.751
13939SOL     OW43713   3.171   8.945   9.945
13939SOL    HW143714   3.235   9.015   9.929
13939SOL    HW243715   3.208   8.869   9.900
13940SOL     OW43716  12.797   3.395  11.665
13940SOL    HW143717  12.762   3.323  11.717
13940SOL    HW243718  12.890   3.375  11.655
13941SOL     OW43719   2.646   0.197  11.594
13941SOL    HW143720   2.569   0.251  11.614
13941SOL    HW243721   2.614   0.133  11.530
13942SOL     OW43722  13.373   7.766   4.555
13942SOL    HW143723  13.326   7.725   4.628
13942SOL    HW243724  13.419   7.840   4.596
13943SOL     OW43725   9.862   4.451   0.456
13943SOL    HW143726   9.954   4.446   0.483
13943SOL    HW243727   9.828   4.530   0.498
13944SOL     OW43728  14.777  13.036   3.786
13944SOL    HW143729  14.685  13.009   3.780
13944SOL    HW243730  14.807  13.041   3.696
13945SOL     OW43731   1.562   0.147   4.386
13945SOL    HW143732   1.529   0.060   4.410
13945SOL    HW243733   1.634   0.162   4.447
13946SOL     OW43734   7.740   0.150   5.509
13946SOL    HW143735   7.762   0.242   5.524
13946SOL    HW243736   7.695   0.150   5.425
13947SOL     OW43737  10.198   2.692  14.006
13947SOL    HW143738  10.165   2.676  13.918
13947SOL    HW243739  10.154   2.773  14.033
13948SOL     OW43740   7.766  10.266   6.223
13948SOL    HW143741   7.732  10.202   6.160
13948SOL    HW243742   7.809  10.213   6.290
13949SOL     OW43743   7.671   0.447   5.154
13949SOL    HW143744   7.703   0.430   5.243
13949SOL    HW243745   7.748   0.479   5.107
13950SOL     OW43746   5.088   0.781   3.059
13950SOL    HW143747   5.058   0.758   3.146
13950SOL    HW243748   5.147   0.709   3.034
13951SOL     OW43749  11.284   8.949  10.488
13951SOL    HW143750  11.289   9.015  10.557
13951SOL    HW243751  11.353   8.886  10.511
13952SOL     OW43752   7.467   8.967   3.380
13952SOL    HW143753   7.560   8.963   3.361
13952SOL    HW243754   7.442   9.058   3.365
13953SOL     OW43755   9.544   9.114   6.446
13953SOL    HW143756   9.634   9.082   6.441
13953SOL    HW243757   9.552   9.206   6.471
13954SOL     OW43758  11.772   8.547  11.179
13954SOL    HW143759  11.742   8.635  11.159
13954SOL    HW243760  11.692   8.498  11.196
13955SOL     OW43761   3.646   6.054   0.063
13955SOL    HW143762   3.559   6.048   0.024
13955SOL    HW243763   3.695   6.112   0.005
13956SOL     OW43764  14.053   0.313  13.591
13956SOL    HW143765  13.965   0.304  13.626
13956SOL    HW243766  14.102   0.240  13.628
13957SOL     OW43767   2.948   4.741   0.719
13957SOL    HW143768   2.882   4.767   0.783
13957SOL    HW243769   2.984   4.823   0.686
13958SOL     OW43770   5.266   6.836   1.895
13958SOL    HW143771   5.323   6.850   1.819
13958SOL    HW243772   5.182   6.811   1.857
13959SOL     OW43773   3.189  13.872   0.583
13959SOL    HW143774   3.253  13.943   0.572
13959SOL    HW243775   3.175  13.839   0.494
13960SOL     OW43776   4.699  10.047   4.319
13960SOL    HW143777   4.665  10.004   4.397
13960SOL    HW243778   4.624  10.093   4.281
13961SOL     OW43779   6.557  13.782   9.527
13961SOL    HW143780   6.505  13.844   9.476
13961SOL    HW243781   6.644  13.822   9.530
13962SOL     OW43782  14.155   4.296   7.236
13962SOL    HW143783  14.105   4.239   7.177
13962SOL    HW243784  14.151   4.252   7.321
13963SOL     OW43785   9.588  13.287   9.208
13963SOL    HW143786   9.637  13.368   9.220
13963SOL    HW243787   9.530  13.305   9.134
13964SOL     OW43788   9.175   9.165   0.232
13964SOL    HW143789   9.166   9.194   0.141
13964SOL    HW243790   9.269   9.153   0.244
13965SOL     OW43791  11.084   2.015  11.655
13965SOL    HW143792  11.047   1.933  11.622
13965SOL    HW243793  11.056   2.019  11.747
13966SOL     OW43794   5.597  11.398  14.547
13966SOL    HW143795   5.567  11.441  14.467
13966SOL    HW243796   5.598  11.468  14.612
13967SOL     OW43797  14.865   5.648   7.270
13967SOL    HW143798  14.821   5.618   7.350
13967SOL    HW243799  14.846   5.742   7.267
13968SOL     OW43800   3.383  14.377   4.780
13968SOL    HW143801   3.471  14.340   4.787
13968SOL    HW243802   3.392  14.467   4.811
13969SOL     OW43803   9.595   0.960   9.733
13969SOL    HW143804   9.593   1.005   9.649
13969SOL    HW243805   9.503   0.951   9.758
13970SOL     OW43806   1.386   9.239   0.594
13970SOL    HW143807   1.438   9.164   0.565
13970SOL    HW243808   1.439   9.315   0.571
13971SOL     OW43809  12.468   2.535   3.655
13971SOL    HW143810  12.506   2.572   3.575
13971SOL    HW243811  12.476   2.440   3.643
13972SOL     OW43812   6.819   7.242   9.148
13972SOL    HW143813   6.800   7.193   9.228
13972SOL    HW243814   6.743   7.299   9.135
13973SOL     OW43815   8.228  10.028   1.944
13973SOL    HW143816   8.286  10.102   1.926
13973SOL    HW243817   8.143  10.055   1.909
13974SOL     OW43818  12.591  13.358   4.261
13974SOL    HW143819  12.675  13.360   4.308
13974SOL    HW243820  12.525  13.371   4.329
13975SOL     OW43821   7.487  10.823   6.916
13975SOL    HW143822   7.489  10.740   6.962
13975SOL    HW243823   7.579  10.844   6.898
13976SOL     OW43824  14.589   2.738   8.925
13976SOL    HW143825  14.542   2.762   8.845
13976SOL    HW243826  14.612   2.646   8.913
13977SOL     OW43827   2.857  13.748   5.077
13977SOL    HW143828   2.935  13.741   5.022
13977SOL    HW243829   2.852  13.665   5.124
13978SOL     OW43830   3.335   0.971   6.005
13978SOL    HW143831   3.264   0.961   6.068
13978SOL    HW243832   3.308   0.919   5.929
13979SOL     OW43833   8.894   4.838   7.340
13979SOL    HW143834   8.845   4.774   7.392
13979SOL    HW243835   8.986   4.816   7.355
13980SOL     OW43836  11.735   1.886   9.282
13980SOL    HW143837  11.714   1.978   9.267
13980SOL    HW243838  11.658   1.850   9.326
13981SOL     OW43839   1.444  13.268   2.787
13981SOL    HW143840   1.426  13.359   2.763
13981SOL    HW243841   1.463  13.272   2.881
13982SOL     OW43842   7.731   1.315  14.235
13982SOL    HW143843   7.768   1.253  14.298
13982SOL    HW243844   7.739   1.271  14.150
13983SOL     OW43845  12.260   9.122   7.768
13983SOL    HW143846  12.252   9.029   7.746
13983SOL    HW243847  12.219   9.130   7.854
13984SOL     OW43848  10.611  11.759   2.018
13984SOL    HW143849  10.689  11.794   1.976
13984SOL    HW243850  10.640  11.731   2.105
13985SOL     OW43851   7.539  11.273   3.102
13985SOL    HW143852   7.536  11.193   3.050
13985SOL    HW243853   7.455  11.316   3.085
13986SOL     OW43854   0.794  13.416   0.442
13986SOL    HW143855   0.876  13.374   0.467
13986SOL    HW243856   0.727  13.349   0.456
13987SOL     OW43857   7.394   4.900   9.467
13987SOL    HW143858   7.436   4.976   9.507
13987SOL    HW243859   7.467   4.850   9.429
13988SOL     OW43860   4.511   6.239   2.722
13988SOL    HW143861   4.464   6.223   2.640
13988SOL    HW243862   4.511   6.334   2.731
13989SOL     OW43863  14.508  14.708   8.571
13989SOL    HW143864  14.416  14.733   8.558
13989SOL    HW243865  14.532  14.664   8.489
13990SOL     OW43866  12.333  12.016  12.776
13990SOL    HW143867  12.376  12.050  12.854
13990SOL    HW243868  12.289  11.937  12.805
13991SOL     OW43869   2.147   2.813  12.611
13991SOL    HW143870   2.224   2.820  12.554
13991SOL    HW243871   2.140   2.719  12.630
13992SOL     OW43872   8.799   1.391   4.368
13992SOL    HW143873   8.748   1.318   4.402
13992SOL    HW243874   8.812   1.448   4.444
13993SOL     OW43875   7.105   5.592   6.898
13993SOL    HW143876   7.177   5.632   6.948
13993SOL    HW243877   7.115   5.498   6.913
13994SOL     OW43878   6.218   2.244   8.128
13994SOL    HW143879   6.294   2.285   8.088
13994SOL    HW243880   6.249   2.159   8.159
13995SOL     OW43881  14.249   8.115   3.052
13995SOL    HW143882  14.169   8.073   3.085
13995SOL    HW243883  14.237   8.119   2.957
13996SOL     OW43884   7.284  14.395   0.983
13996SOL    HW143885   7.299  14.488   1.000
13996SOL    HW243886   7.350  14.350   1.036
13997SOL     OW43887   0.047   0.715   6.518
13997SOL    HW143888   0.093   0.659   6.581
13997SOL    HW243889   0.116   0.755   6.466
13998SOL     OW43890   5.746   4.695  13.740
13998SOL    HW143891   5.739   4.752  13.663
13998SOL    HW243892   5.668   4.715  13.792
13999SOL     OW43893   4.729   0.537  14.152
13999SOL    HW143894   4.665   0.533  14.223
13999SOL    HW243895   4.726   0.627  14.122
14000SOL     OW43896   6.989   9.444   5.091
14000SOL    HW143897   7.067   9.422   5.141
14000SOL    HW243898   6.977   9.369   5.032
14001SOL     OW43899  11.092   5.417  13.296
14001SOL    HW143900  11.137   5.480  13.353
14001SOL    HW243901  11.013   5.463  13.267
14002SOL     OW43902   0.094   3.954  12.080
14002SOL    HW143903   0.009   3.995  12.098
14002SOL    HW243904   0.155   4.028  12.077
14003SOL     OW43905   1.453  13.789   3.261
14003SOL    HW143906   1.380  13.727   3.262
14003SOL    HW243907   1.435  13.848   3.334
14004SOL     OW43908   6.980   8.262   5.214
14004SOL    HW143909   7.029   8.344   5.208
14004SOL    HW243910   7.014   8.208   5.143
14005SOL     OW43911  12.096   4.132   2.504
14005SOL    HW143912  12.048   4.184   2.439
14005SOL    HW243913  12.174   4.183   2.523
14006SOL     OW43914  10.643   4.176   1.243
14006SOL    HW143915  10.581   4.235   1.199
14006SOL    HW243916  10.717   4.232   1.266
14007SOL     OW43917   2.021   2.265   9.244
14007SOL    HW143918   2.019   2.221   9.330
14007SOL    HW243919   1.970   2.344   9.257
14008SOL     OW43920   8.765   4.483   5.618
14008SOL    HW143921   8.691   4.449   5.669
14008SOL    HW243922   8.724   4.517   5.538
14009SOL     OW43923  13.239   9.545  12.232
14009SOL    HW143924  13.257   9.559  12.325
14009SOL    HW243925  13.145   9.563  12.223
14010SOL     OW43926   9.797   8.100  11.734
14010SOL    HW143927   9.808   8.023  11.679
14010SOL    HW243928   9.886   8.130  11.753
14011SOL     OW43929   0.377   9.362  12.404
14011SOL    HW143930   0.385   9.407  12.488
14011SOL    HW243931   0.381   9.269  12.427
14012SOL     OW43932   0.949   5.739   5.474
14012SOL    HW143933   0.966   5.650   5.443
14012SOL    HW243934   1.008   5.794   5.422
14013SOL     OW43935  14.102   9.057  12.381
14013SOL    HW143936  14.039   9.042  12.310
14013SOL    HW243937  14.133   9.147  12.366
14014SOL     OW43938   6.575   6.184  14.408
14014SOL    HW143939   6.668   6.180  14.432
14014SOL    HW243940   6.562   6.274  14.379
14015SOL     OW43941   4.514   8.778   1.917
14015SOL    HW143942   4.440   8.780   1.856
14015SOL    HW243943   4.542   8.870   1.923
14016SOL     OW43944  13.271   8.309   8.156
14016SOL    HW143945  13.180   8.287   8.138
14016SOL    HW243946  13.309   8.328   8.071
14017SOL     OW43947   8.107   8.448   8.607
14017SOL    HW143948   8.120   8.380   8.540
14017SOL    HW243949   8.059   8.403   8.676
14018SOL     OW43950   5.631   6.868   4.527
14018SOL    HW143951   5.590   6.904   4.606
14018SOL    HW243952   5.633   6.774   4.542
14019SOL     OW43953   5.031   7.249   6.767
14019SOL    HW143954   5.037   7.256   6.672
14019SOL    HW243955   5.092   7.180   6.790
14020SOL     OW43956   1.434   8.023  12.349
14020SOL    HW143957   1.506   8.005  12.288
14020SOL    HW243958   1.357   7.988  12.305
14021SOL     OW43959  12.529  14.362   6.419
14021SOL    HW143960  12.527  14.404   6.505
14021SOL    HW243961  12.449  14.393   6.376
14022SOL     OW43962  13.792   4.097  11.277
14022SOL    HW143963  13.702   4.104  11.310
14022SOL    HW243964  13.833   4.031  11.332
14023SOL     OW43965   2.650  10.143   9.832
14023SOL    HW143966   2.627  10.231   9.804
14023SOL    HW243967   2.585  10.121   9.899
14024SOL     OW43968  13.130   7.844   6.960
14024SOL    HW143969  13.188   7.816   6.889
14024SOL    HW243970  13.176   7.817   7.040
14025SOL     OW43971   1.651  10.298  14.650
14025SOL    HW143972   1.680  10.247  14.726
14025SOL    HW243973   1.572  10.342  14.679
14026SOL     OW43974  10.641   2.098  13.362
14026SOL    HW143975  10.691   2.065  13.436
14026SOL    HW243976  10.604   2.020  13.320
14027SOL     OW43977  10.627   9.671   0.773
14027SOL    HW143978  10.550   9.728   0.770
14027SOL    HW243979  10.612   9.614   0.848
14028SOL     OW43980   6.329   0.537   4.056
14028SOL    HW143981   6.289   0.601   3.997
14028SOL    HW243982   6.423   0.555   4.051
14029SOL     OW43983   8.546  13.025   8.273
14029SOL    HW143984   8.641  13.019   8.273
14029SOL    HW243985   8.516  12.941   8.236
14030SOL     OW43986   7.051   8.688   7.901
14030SOL    HW143987   6.965   8.661   7.869
14030SOL    HW243988   7.100   8.713   7.822
14031SOL     OW43989   1.557  13.894  13.889
14031SOL    HW143990   1.507  13.933  13.817
14031SOL    HW243991   1.519  13.806  13.900
14032SOL     OW43992   2.457   5.567   3.285
14032SOL    HW143993   2.472   5.647   3.335
14032SOL    HW243994   2.543   5.543   3.251
14033SOL     OW43995   6.585  13.748   2.666
14033SOL    HW143996   6.559  13.834   2.697
14033SOL    HW243997   6.662  13.726   2.720
14034SOL     OW43998   5.367   0.618  10.622
14034SOL    HW143999   5.460   0.630  10.605
14034SOL    HW244000   5.341   0.698  10.668
14035SOL     OW44001   1.460   5.403   2.230
14035SOL    HW144002   1.547   5.416   2.268
14035SOL    HW244003   1.405   5.377   2.304
14036SOL     OW44004  10.076   7.215   4.577
14036SOL    HW144005   9.989   7.210   4.538
14036SOL    HW244006  10.137   7.200   4.505
14037SOL     OW44007  11.155   0.362   3.721
14037SOL    HW144008  11.065   0.331   3.724
14037SOL    HW244009  11.180   0.356   3.629
14038SOL     OW44010  12.758   7.561   1.093
14038SOL    HW144011  12.802   7.598   1.170
14038SOL    HW244012  12.744   7.637   1.035
14039SOL     OW44013   8.702  12.649   9.241
14039SOL    HW144014   8.735  12.597   9.168
14039SOL    HW244015   8.780  12.681   9.286
14040SOL     OW44016   4.100  13.509   1.411
14040SOL    HW144017   4.130  13.489   1.500
14040SOL    HW244018   4.143  13.444   1.356
14041SOL     OW44019   9.241   2.604   3.267
14041SOL    HW144020   9.297   2.564   3.201
14041SOL    HW244021   9.213   2.532   3.322
14042SOL     OW44022   7.160   7.254   4.438
14042SOL    HW144023   7.237   7.202   4.462
14042SOL    HW244024   7.086   7.195   4.450
14043SOL     OW44025   6.517   7.504   3.081
14043SOL    HW144026   6.515   7.585   3.030
14043SOL    HW244027   6.572   7.445   3.029
14044SOL     OW44028   0.048  13.572   8.763
14044SOL    HW144029   0.118  13.539   8.820
14044SOL    HW244030  14.837  13.546   8.807
14045SOL     OW44031   6.677  14.053   2.016
14045SOL    HW144032   6.730  14.091   2.086
14045SOL    HW244033   6.649  13.968   2.050
14046SOL     OW44034   6.936   7.619   8.737
14046SOL    HW144035   7.010   7.677   8.719
14046SOL    HW244036   6.948   7.594   8.829
14047SOL     OW44037   3.458  12.314  11.251
14047SOL    HW144038   3.404  12.320  11.173
14047SOL    HW244039   3.548  12.310  11.218
14048SOL     OW44040   1.399   8.662   3.038
14048SOL    HW144041   1.433   8.608   3.109
14048SOL    HW244042   1.429   8.619   2.958
14049SOL     OW44043  10.776   9.099  12.324
14049SOL    HW144044  10.749   9.166  12.261
14049SOL    HW244045  10.725   9.021  12.300
14050SOL     OW44046   2.701   0.065   7.507
14050SOL    HW144047   2.706   0.156   7.537
14050SOL    HW244048   2.611   0.039   7.526
14051SOL     OW44049  11.362   6.923   7.400
14051SOL    HW144050  11.437   6.895   7.453
14051SOL    HW244051  11.287   6.880   7.441
14052SOL     OW44052   8.069  14.535  11.490
14052SOL    HW144053   8.015  14.588  11.548
14052SOL    HW244054   8.121  14.599  11.441
14053SOL     OW44055  13.597   2.870  13.963
14053SOL    HW144056  13.666   2.856  13.899
14053SOL    HW244057  13.516   2.877  13.912
14054SOL     OW44058   8.628  12.412   0.133
14054SOL    HW144059   8.713  12.437   0.170
14054SOL    HW244060   8.573  12.489   0.145
14055SOL     OW44061   2.395   3.734  12.979
14055SOL    HW144062   2.469   3.674  12.990
14055SOL    HW244063   2.403   3.795  13.053
14056SOL     OW44064   4.049   6.495   4.642
14056SOL    HW144065   4.081   6.475   4.554
14056SOL    HW244066   4.108   6.564   4.673
14057SOL     OW44067   3.320   3.252   0.576
14057SOL    HW144068   3.228   3.278   0.576
14057SOL    HW244069   3.332   3.207   0.659
14058SOL     OW44070   3.673   0.176   7.429
14058SOL    HW144071   3.735   0.249   7.419
14058SOL    HW244072   3.719   0.101   7.391
14059SOL     OW44073  12.761  13.189  11.119
14059SOL    HW144074  12.786  13.232  11.201
14059SOL    HW244075  12.805  13.239  11.051
14060SOL     OW44076   6.499   7.069   5.746
14060SOL    HW144077   6.424   7.011   5.755
14060SOL    HW244078   6.548   7.059   5.828
14061SOL     OW44079   7.486   3.113   0.981
14061SOL    HW144080   7.401   3.096   1.022
14061SOL    HW244081   7.547   3.118   1.055
14062SOL     OW44082  12.494  11.726   4.921
14062SOL    HW144083  12.413  11.716   4.872
14062SOL    HW244084  12.518  11.818   4.910
14063SOL     OW44085   7.019   7.901   3.249
14063SOL    HW144086   7.106   7.902   3.208
14063SOL    HW244087   6.993   7.809   3.245
14064SOL     OW44088   1.357  14.385  13.311
14064SOL    HW144089   1.357  14.467  13.361
14064SOL    HW244090   1.431  14.394  13.251
14065SOL     OW44091   4.960  12.890   5.491
14065SOL    HW144092   4.885  12.831   5.496
14065SOL    HW244093   4.971  12.906   5.397
14066SOL     OW44094   1.245  12.710   0.651
14066SOL    HW144095   1.262  12.654   0.727
14066SOL    HW244096   1.162  12.678   0.616
14067SOL     OW44097   8.184  13.711   8.258
14067SOL    HW144098   8.179  13.666   8.342
14067SOL    HW244099   8.095  13.740   8.240
14068SOL     OW44100   5.551   9.329  13.812
14068SOL    HW144101   5.463   9.365  13.809
14068SOL    HW244102   5.573   9.313  13.720
14069SOL     OW44103   0.202   3.453   2.184
14069SOL    HW144104   0.187   3.488   2.096
14069SOL    HW244105   0.119   3.412   2.208
14070SOL     OW44106   3.281  12.765   2.252
14070SOL    HW144107   3.279  12.688   2.308
14070SOL    HW244108   3.354  12.817   2.285
14071SOL     OW44109   7.421  13.585   2.210
14071SOL    HW144110   7.336  13.575   2.167
14071SOL    HW244111   7.480  13.531   2.159
14072SOL     OW44112  14.774   6.167  13.056
14072SOL    HW144113  14.843   6.143  12.994
14072SOL    HW244114  14.818   6.168  13.141
14073SOL     OW44115   6.737  13.163   2.836
14073SOL    HW144116   6.687  13.222   2.779
14073SOL    HW244117   6.691  13.079   2.831
14074SOL     OW44118  10.682   9.334   8.989
14074SOL    HW144119  10.631   9.269   8.941
14074SOL    HW244120  10.747   9.365   8.926
14075SOL     OW44121  13.342   6.175   7.307
14075SOL    HW144122  13.356   6.081   7.323
14075SOL    HW244123  13.430   6.212   7.304
14076SOL     OW44124   8.318   7.202  14.654
14076SOL    HW144125   8.260   7.276  14.675
14076SOL    HW244126   8.267   7.124  14.676
14077SOL     OW44127   3.902   4.434   7.949
14077SOL    HW144128   3.876   4.438   8.041
14077SOL    HW244129   3.985   4.386   7.950
14078SOL     OW44130   7.464   9.401  13.869
14078SOL    HW144131   7.504   9.366  13.789
14078SOL    HW244132   7.489   9.493  13.869
14079SOL     OW44133   7.311  14.270  10.454
14079SOL    HW144134   7.287  14.177  10.460
14079SOL    HW244135   7.350  14.290  10.539
14080SOL     OW44136  11.854  10.647  14.523
14080SOL    HW144137  11.947  10.630  14.538
14080SOL    HW244138  11.825  10.694  14.602
14081SOL     OW44139  13.428   7.198  10.081
14081SOL    HW144140  13.375   7.153  10.015
14081SOL    HW244141  13.485   7.130  10.117
14082SOL     OW44142   2.159  14.184  14.647
14082SOL    HW144143   2.109  14.210  14.569
14082SOL    HW244144   2.135  14.249  14.713
14083SOL     OW44145   8.864   3.841  10.969
14083SOL    HW144146   8.875   3.816  11.061
14083SOL    HW244147   8.794   3.906  10.970
14084SOL     OW44148   2.424  14.033  13.986
14084SOL    HW144149   2.452  13.955  14.034
14084SOL    HW244150   2.357  14.000  13.926
14085SOL     OW44151   6.766   5.607  14.758
14085SOL    HW144152   6.740   5.653  14.837
14085SOL    HW244153   6.732   5.660  14.686
14086SOL     OW44154   5.034   5.445  13.460
14086SOL    HW144155   5.048   5.420  13.369
14086SOL    HW244156   5.104   5.402  13.508
14087SOL     OW44157  10.844   7.072   8.447
14087SOL    HW144158  10.865   7.165   8.452
14087SOL    HW244159  10.836   7.054   8.353
14088SOL     OW44160  14.859   7.005   3.306
14088SOL    HW144161  14.836   6.921   3.346
14088SOL    HW244162  14.820   7.071   3.365
14089SOL     OW44163   3.082   1.911   2.433
14089SOL    HW144164   3.135   1.875   2.504
14089SOL    HW244165   3.141   1.912   2.357
14090SOL     OW44166   1.347   1.260  11.769
14090SOL    HW144167   1.431   1.296  11.739
14090SOL    HW244168   1.301   1.335  11.806
14091SOL     OW44169  14.207  12.498  13.601
14091SOL    HW144170  14.230  12.559  13.532
14091SOL    HW244171  14.251  12.532  13.679
14092SOL     OW44172  11.752   9.140   9.543
14092SOL    HW144173  11.815   9.119   9.611
14092SOL    HW244174  11.717   9.226   9.568
14093SOL     OW44175   0.541   5.321   2.004
14093SOL    HW144176   0.637   5.319   2.004
14093SOL    HW244177   0.515   5.263   2.075
14094SOL     OW44178  13.635   5.091   4.083
14094SOL    HW144179  13.650   5.184   4.063
14094SOL    HW244180  13.713   5.047   4.050
14095SOL     OW44181   7.977   1.182  12.648
14095SOL    HW144182   7.996   1.275  12.656
14095SOL    HW244183   7.948   1.156  12.735
14096SOL     OW44184   7.437   1.715  13.367
14096SOL    HW144185   7.366   1.703  13.304
14096SOL    HW244186   7.411   1.791  13.418
14097SOL     OW44187  11.959   8.457   5.115
14097SOL    HW144188  11.999   8.482   5.032
14097SOL    HW244189  11.960   8.537   5.167
14098SOL     OW44190   2.783   8.566   4.836
14098SOL    HW144191   2.734   8.613   4.903
14098SOL    HW244192   2.718   8.545   4.769
14099SOL     OW44193   3.514   3.355   5.681
14099SOL    HW144194   3.438   3.304   5.710
14099SOL    HW244195   3.580   3.339   5.748
14100SOL     OW44196   4.295   3.102  10.754
14100SOL    HW144197   4.306   3.174  10.692
14100SOL    HW244198   4.255   3.142  10.831
14101SOL     OW44199  14.068  12.040  13.115
14101SOL    HW144200  14.122  12.075  13.186
14101SOL    HW244201  14.113  12.068  13.035
14102SOL     OW44202  11.054  13.296   6.193
14102SOL    HW144203  11.026  13.338   6.112
14102SOL    HW244204  11.001  13.217   6.199
14103SOL     OW44205   2.875   8.458   9.786
14103SOL    HW144206   2.865   8.366   9.811
14103SOL    HW244207   2.787   8.484   9.757
14104SOL     OW44208   0.732  10.909  13.339
14104SOL    HW144209   0.681  10.911  13.420
14104SOL    HW244210   0.667  10.922  13.270
14105SOL     OW44211   3.864   0.852  13.560
14105SOL    HW144212   3.923   0.926  13.554
14105SOL    HW244213   3.895   0.804  13.637
14106SOL     OW44214  14.600  13.945   1.621
14106SOL    HW144215  14.613  13.863   1.573
14106SOL    HW244216  14.683  13.992   1.612
14107SOL     OW44217  14.719  13.359   2.100
14107SOL    HW144218  14.708  13.401   2.014
14107SOL    HW244219  14.708  13.431   2.163
14108SOL     OW44220   6.419  14.213   9.824
14108SOL    HW144221   6.463  14.161   9.891
14108SOL    HW244222   6.490  14.244   9.767
14109SOL     OW44223   4.915   1.905   5.906
14109SOL    HW144224   4.880   1.944   5.986
14109SOL    HW244225   4.895   1.812   5.914
14110SOL     OW44226  10.702   4.041   9.774
14110SOL    HW144227  10.764   4.085   9.832
14110SOL    HW244228  10.621   4.092   9.782
14111SOL     OW44229   8.211   9.851   7.951
14111SOL    HW144230   8.276   9.871   7.884
14111SOL    HW244231   8.214   9.755   7.959
14112SOL     OW44232   0.252   1.240  10.105
14112SOL    HW144233   0.195   1.186  10.160
14112SOL    HW244234   0.211   1.237  10.018
14113SOL     OW44235   1.158  13.541   3.909
14113SOL    HW144236   1.092  13.609   3.923
14113SOL    HW244237   1.115  13.477   3.853
14114SOL     OW44238  10.544   9.070   1.909
14114SOL    HW144239  10.605   9.125   1.859
14114SOL    HW244240  10.591   8.988   1.922
14115SOL     OW44241   2.302  12.534   5.754
14115SOL    HW144242   2.287  12.498   5.841
14115SOL    HW244243   2.366  12.474   5.714
14116SOL     OW44244  11.097   5.904  10.425
14116SOL    HW144245  11.184   5.922  10.459
14116SOL    HW244246  11.112   5.864  10.339
14117SOL     OW44247  11.595  10.571  14.084
14117SOL    HW144248  11.545  10.603  14.008
14117SOL    HW244249  11.583  10.639  14.150
14118SOL     OW44250   6.539   1.152   1.715
14118SOL    HW144251   6.458   1.151   1.665
14118SOL    HW244252   6.512   1.154   1.807
14119SOL     OW44253  14.101   1.674   9.480
14119SOL    HW144254  14.136   1.613   9.544
14119SOL    HW244255  14.139   1.759   9.504
14120SOL     OW44256   1.003   8.412   2.716
14120SOL    HW144257   1.082   8.413   2.663
14120SOL    HW244258   0.945   8.351   2.672
14121SOL     OW44259   6.871   6.359   1.305
14121SOL    HW144260   6.901   6.401   1.386
14121SOL    HW244261   6.875   6.266   1.324
14122SOL     OW44262  10.477  13.210  12.596
14122SOL    HW144263  10.388  13.184  12.574
14122SOL    HW244264  10.529  13.130  12.583
14123SOL     OW44265   2.213  11.627   0.644
14123SOL    HW144266   2.264  11.682   0.585
14123SOL    HW244267   2.276  11.598   0.710
14124SOL     OW44268  10.482   8.023   7.979
14124SOL    HW144269  10.449   7.997   8.065
14124SOL    HW244270  10.436   7.965   7.918
14125SOL     OW44271   2.175   0.049   1.218
14125SOL    HW144272   2.130   0.112   1.274
14125SOL    HW244273   2.266   0.078   1.217
14126SOL     OW44274   9.173   9.045  11.824
14126SOL    HW144275   9.133   9.062  11.910
14126SOL    HW244276   9.161   9.127  11.776
14127SOL     OW44277   6.172  10.804  11.034
14127SOL    HW144278   6.257  10.845  11.050
14127SOL    HW244279   6.186  10.749  10.958
14128SOL     OW44280   7.889  12.799   1.817
14128SOL    HW144281   7.968  12.813   1.869
14128SOL    HW244282   7.867  12.886   1.783
14129SOL     OW44283   7.990   0.608   9.820
14129SOL    HW144284   8.014   0.629   9.730
14129SOL    HW244285   8.053   0.656   9.874
14130SOL     OW44286   4.340  10.763  14.339
14130SOL    HW144287   4.247  10.771  14.316
14130SOL    HW244288   4.340  10.731  14.429
14131SOL     OW44289   7.620  12.987   5.305
14131SOL    HW144290   7.606  13.079   5.326
14131SOL    HW244291   7.540  12.960   5.259
14132SOL     OW44292  14.658   9.771   8.294
14132SOL    HW144293  14.590   9.824   8.253
14132SOL    HW244294  14.679   9.818   8.375
14133SOL     OW44295  11.342  14.697   7.154
14133SOL    HW144296  11.330  14.728   7.243
14133SOL    HW244297  11.386  14.770   7.109
14134SOL     OW44298  11.986   7.833   5.426
14134SOL    HW144299  12.053   7.792   5.480
14134SOL    HW244300  12.034   7.896   5.372
14135SOL     OW44301   9.020  13.780   8.362
14135SOL    HW144302   8.988  13.691   8.380
14135SOL    HW244303   9.112  13.777   8.388
14136SOL     OW44304  10.034   9.040  12.062
14136SOL    HW144305  10.080   8.958  12.077
14136SOL    HW244306  10.049   9.091  12.142
14137SOL     OW44307   4.046   6.707  12.006
14137SOL    HW144308   4.084   6.621  12.023
14137SOL    HW244309   3.952   6.696  12.024
14138SOL     OW44310  12.475   0.593   9.222
14138SOL    HW144311  12.476   0.543   9.141
14138SOL    HW244312  12.542   0.552   9.277
14139SOL     OW44313   6.109   2.016  12.680
14139SOL    HW144314   6.033   1.980  12.634
14139SOL    HW244315   6.107   2.109  12.658
14140SOL     OW44316  11.010   4.525  13.786
14140SOL    HW144317  11.047   4.439  13.807
14140SOL    HW244318  11.085   4.583  13.777
14141SOL     OW44319  13.724  14.617  13.127
14141SOL    HW144320  13.688  14.571  13.051
14141SOL    HW244321  13.681  14.703  13.127
14142SOL     OW44322  10.002  13.305   9.480
14142SOL    HW144323  10.036  13.279   9.394
14142SOL    HW244324   9.969  13.224   9.519
14143SOL     OW44325   8.056  10.758   3.842
14143SOL    HW144326   8.127  10.761   3.906
14143SOL    HW244327   8.079  10.688   3.782
14144SOL     OW44328   3.695   6.714  12.213
14144SOL    HW144329   3.612   6.668  12.205
14144SOL    HW244330   3.737   6.676  12.290
14145SOL     OW44331  14.801   7.162   3.518
14145SOL    HW144332  14.731   7.216   3.554
14145SOL    HW244333   0.008   7.185   3.569
14146SOL     OW44334  11.711   3.950   3.099
14146SOL    HW144335  11.688   3.988   3.184
14146SOL    HW244336  11.754   4.021   3.052
14147SOL     OW44337  10.599   2.304   4.873
14147SOL    HW144338  10.691   2.327   4.868
14147SOL    HW244339  10.560   2.371   4.929
14148SOL     OW44340  14.184   4.221   8.791
14148SOL    HW144341  14.184   4.316   8.799
14148SOL    HW244342  14.093   4.198   8.770
14149SOL     OW44343   9.576   0.924  11.106
14149SOL    HW144344   9.661   0.941  11.145
14149SOL    HW244345   9.585   0.952  11.015
14150SOL     OW44346   8.713   4.315  12.946
14150SOL    HW144347   8.697   4.314  12.852
14150SOL    HW244348   8.681   4.401  12.975
14151SOL     OW44349   6.662  12.998   0.215
14151SOL    HW144350   6.622  12.945   0.285
14151SOL    HW244351   6.687  12.934   0.149
14152SOL     OW44352  12.936   2.223  14.127
14152SOL    HW144353  12.890   2.140  14.118
14152SOL    HW244354  12.965   2.225  14.218
14153SOL     OW44355  10.022   6.905   3.046
14153SOL    HW144356   9.958   6.865   2.987
14153SOL    HW244357  10.044   6.989   3.005
14154SOL     OW44358  10.481  13.483   0.284
14154SOL    HW144359  10.499  13.565   0.330
14154SOL    HW244360  10.385  13.478   0.283
14155SOL     OW44361   0.680  10.437   7.186
14155SOL    HW144362   0.685  10.428   7.091
14155SOL    HW244363   0.587  10.452   7.205
14156SOL     OW44364   5.168  14.760  14.403
14156SOL    HW144365   5.143  14.841  14.449
14156SOL    HW244366   5.099  14.747  14.338
14157SOL     OW44367  14.174  10.341   8.826
14157SOL    HW144368  14.099  10.286   8.849
14157SOL    HW244369  14.136  10.421   8.791
14158SOL     OW44370   7.565   7.087  12.840
14158SOL    HW144371   7.592   7.094  12.932
14158SOL    HW244372   7.618   7.015  12.805
14159SOL     OW44373  13.837   8.012  10.647
14159SOL    HW144374  13.928   8.020  10.675
14159SOL    HW244375  13.842   7.989  10.554
14160SOL     OW44376   0.289   6.473  10.019
14160SOL    HW144377   0.366   6.417  10.026
14160SOL    HW244378   0.288   6.525  10.099
14161SOL     OW44379  11.275   9.791   7.398
14161SOL    HW144380  11.360   9.756   7.369
14161SOL    HW244381  11.273   9.880   7.365
14162SOL     OW44382  13.441  11.722  14.028
14162SOL    HW144383  13.382  11.658  14.066
14162SOL    HW244384  13.474  11.773  14.103
14163SOL     OW44385   6.562   5.362   2.159
14163SOL    HW144386   6.626   5.421   2.198
14163SOL    HW244387   6.533   5.306   2.232
14164SOL     OW44388   0.403   2.138   4.266
14164SOL    HW144389   0.484   2.116   4.220
14164SOL    HW244390   0.354   2.192   4.204
14165SOL     OW44391   1.175   5.641  13.274
14165SOL    HW144392   1.232   5.716  13.257
14165SOL    HW244393   1.231   5.577  13.319
14166SOL     OW44394   7.345  14.317  14.727
14166SOL    HW144395   7.269  14.264  14.701
14166SOL    HW244396   7.379  14.351  14.644
14167SOL     OW44397  13.678  12.039   6.956
14167SOL    HW144398  13.710  11.962   6.910
14167SOL    HW244399  13.736  12.110   6.926
14168SOL     OW44400   2.134   4.973   6.883
14168SOL    HW144401   2.209   5.007   6.932
14168SOL    HW244402   2.157   4.883   6.862
14169SOL     OW44403  12.401   0.544   3.232
14169SOL    HW144404  12.483   0.542   3.182
14169SOL    HW244405  12.361   0.628   3.210
14170SOL     OW44406   0.957  12.943   1.312
14170SOL    HW144407   1.050  12.923   1.298
14170SOL    HW244408   0.913  12.912   1.233
14171SOL     OW44409   2.621  12.610   5.077
14171SOL    HW144410   2.526  12.600   5.075
14171SOL    HW244411   2.655  12.521   5.079
14172SOL     OW44412   1.898   0.050  14.778
14172SOL    HW144413   1.908   0.009  14.865
14172SOL    HW244414   1.807   0.036  14.755
14173SOL     OW44415   1.204  12.157   6.435
14173SOL    HW144416   1.121  12.112   6.453
14173SOL    HW244417   1.244  12.107   6.364
14174SOL     OW44418   3.250  11.960   6.766
14174SOL    HW144419   3.185  11.927   6.705
14174SOL    HW244420   3.205  12.029   6.814
14175SOL     OW44421   4.937   6.064   2.817
14175SOL    HW144422   5.026   6.028   2.817
14175SOL    HW244423   4.933   6.118   2.895
14176SOL     OW44424   7.577   9.257   1.343
14176SOL    HW144425   7.497   9.271   1.291
14176SOL    HW244426   7.621   9.342   1.344
14177SOL     OW44427   8.165   6.329   4.199
14177SOL    HW144428   8.207   6.290   4.122
14177SOL    HW244429   8.084   6.280   4.211
14178SOL     OW44430   8.251  13.151   5.688
14178SOL    HW144431   8.235  13.228   5.632
14178SOL    HW244432   8.281  13.188   5.771
14179SOL     OW44433   9.871   0.742  13.835
14179SOL    HW144434   9.875   0.784  13.750
14179SOL    HW244435   9.938   0.785  13.887
14180SOL     OW44436   9.758  11.483   1.355
14180SOL    HW144437   9.789  11.485   1.446
14180SOL    HW244438   9.785  11.567   1.318
14181SOL     OW44439   1.898   7.506   4.223
14181SOL    HW144440   1.922   7.414   4.221
14181SOL    HW244441   1.893   7.528   4.316
14182SOL     OW44442   0.370  11.034   0.004
14182SOL    HW144443   0.453  10.994   0.032
14182SOL    HW244444   0.336  11.076   0.083
14183SOL     OW44445   2.129  12.939   1.039
14183SOL    HW144446   2.155  13.028   1.016
14183SOL    HW244447   2.035  12.946   1.057
14184SOL     OW44448   1.272   3.197  13.681
14184SOL    HW144449   1.354   3.152  13.663
14184SOL    HW244450   1.213   3.168  13.612
14185SOL     OW44451  10.620  13.017   3.759
14185SOL    HW144452  10.582  13.085   3.703
14185SOL    HW244453  10.712  13.042   3.767
14186SOL     OW44454   2.920   8.054   6.121
14186SOL    HW144455   2.902   8.001   6.198
14186SOL    HW244456   2.975   8.126   6.153
14187SOL     OW44457  14.502  13.799  13.651
14187SOL    HW144458  14.588  13.833  13.676
14187SOL    HW244459  14.440  13.854  13.700
14188SOL     OW44460  14.106   4.220   7.521
14188SOL    HW144461  14.056   4.199   7.600
14188SOL    HW244462  14.187   4.170   7.531
14189SOL     OW44463   4.397   2.993  13.060
14189SOL    HW144464   4.399   2.903  13.026
14189SOL    HW244465   4.385   2.983  13.154
14190SOL     OW44466  11.760   8.791   7.962
14190SOL    HW144467  11.776   8.702   7.932
14190SOL    HW244468  11.667   8.805   7.948
14191SOL     OW44469  12.059  13.197   1.570
14191SOL    HW144470  12.146  13.221   1.603
14191SOL    HW244471  12.071  13.112   1.529
14192SOL     OW44472   7.776   1.542   3.571
14192SOL    HW144473   7.718   1.534   3.496
14192SOL    HW244474   7.864   1.547   3.533
14193SOL     OW44475   5.462   9.971   3.856
14193SOL    HW144476   5.373  10.001   3.834
14193SOL    HW244477   5.519  10.026   3.803
14194SOL     OW44478   4.604  11.869   6.271
14194SOL    HW144479   4.628  11.960   6.253
14194SOL    HW244480   4.510  11.866   6.253
14195SOL     OW44481  12.618   1.638  11.126
14195SOL    HW144482  12.648   1.552  11.096
14195SOL    HW244483  12.553   1.618  11.194
14196SOL     OW44484  13.436   0.590   7.908
14196SOL    HW144485  13.389   0.510   7.884
14196SOL    HW244486  13.369   0.657   7.912
14197SOL     OW44487   6.656   6.272   1.784
14197SOL    HW144488   6.732   6.215   1.797
14197SOL    HW244489   6.654   6.287   1.689
14198SOL     OW44490   0.407  11.836  10.458
14198SOL    HW144491   0.376  11.821  10.548
14198SOL    HW244492   0.455  11.919  10.463
14199SOL     OW44493   3.320  14.453  12.248
14199SOL    HW144494   3.380  14.481  12.317
14199SOL    HW244495   3.270  14.532  12.227
14200SOL     OW44496  11.305   4.256   1.730
14200SOL    HW144497  11.386   4.213   1.757
14200SOL    HW244498  11.314   4.268   1.636
14201SOL     OW44499   2.314   7.479   6.462
14201SOL    HW144500   2.401   7.480   6.423
14201SOL    HW244501   2.258   7.438   6.396
14202SOL     OW44502  14.480  14.384  10.351
14202SOL    HW144503  14.480  14.297  10.390
14202SOL    HW244504  14.445  14.441  10.419
14203SOL     OW44505  12.520  14.656   6.089
14203SOL    HW144506  12.597  14.683   6.039
14203SOL    HW244507  12.498  14.570   6.055
14204SOL     OW44508   2.414   7.157   6.205
14204SOL    HW144509   2.419   7.113   6.119
14204SOL    HW244510   2.504   7.180   6.226
14205SOL     OW44511  10.990   4.597   0.827
14205SOL    HW144512  10.932   4.533   0.868
14205SOL    HW244513  10.976   4.584   0.733
14206SOL     OW44514   9.202  12.858   5.954
14206SOL    HW144515   9.118  12.819   5.930
14206SOL    HW244516   9.267  12.814   5.899
14207SOL     OW44517   1.327   5.602   5.366
14207SOL    HW144518   1.310   5.685   5.412
14207SOL    HW244519   1.264   5.602   5.294
14208SOL     OW44520   1.554   1.338   5.750
14208SOL    HW144521   1.606   1.377   5.680
14208SOL    HW244522   1.494   1.278   5.705
14209SOL     OW44523   2.643  11.509   3.324
14209SOL    HW144524   2.603  11.596   3.325
14209SOL    HW244525   2.686  11.504   3.239
14210SOL     OW44526   0.968   8.405   2.178
14210SOL    HW144527   0.993   8.378   2.089
14210SOL    HW244528   1.000   8.334   2.234
14211SOL     OW44529   9.783   9.528  13.771
14211SOL    HW144530   9.736   9.552  13.691
14211SOL    HW244531   9.814   9.612  13.806
14212SOL     OW44532   4.457   3.118   3.902
14212SOL    HW144533   4.443   3.043   3.843
14212SOL    HW244534   4.373   3.129   3.947
14213SOL     OW44535   4.022  14.432   4.365
14213SOL    HW144536   3.972  14.478   4.297
14213SOL    HW244537   4.047  14.349   4.324
14214SOL     OW44538   3.564  11.395  11.421
14214SOL    HW144539   3.482  11.439  11.439
14214SOL    HW244540   3.545  11.302  11.433
14215SOL     OW44541   8.421  13.784   6.792
14215SOL    HW144542   8.488  13.799   6.726
14215SOL    HW244543   8.412  13.867   6.838
14216SOL     OW44544  12.972   7.045   0.584
14216SOL    HW144545  12.972   7.129   0.630
14216SOL    HW244546  13.023   6.986   0.641
14217SOL     OW44547   1.684   3.006   2.443
14217SOL    HW144548   1.696   3.083   2.389
14217SOL    HW244549   1.589   2.996   2.450
14218SOL     OW44550   7.366   4.505   4.088
14218SOL    HW144551   7.462   4.503   4.090
14218SOL    HW244552   7.344   4.593   4.119
14219SOL     OW44553  10.782  11.804   1.613
14219SOL    HW144554  10.858  11.831   1.562
14219SOL    HW244555  10.750  11.725   1.568
14220SOL     OW44556  14.317   5.599  12.122
14220SOL    HW144557  14.375   5.601  12.198
14220SOL    HW244558  14.242   5.653  12.148
14221SOL     OW44559   1.963  10.761   1.480
14221SOL    HW144560   1.900  10.712   1.533
14221SOL    HW244561   2.026  10.794   1.543
14222SOL     OW44562   1.361  10.067   8.115
14222SOL    HW144563   1.358  10.162   8.113
14222SOL    HW244564   1.454  10.046   8.127
14223SOL     OW44565   2.564   9.978   8.317
14223SOL    HW144566   2.594   9.952   8.404
14223SOL    HW244567   2.594   9.907   8.260
14224SOL     OW44568   3.512  14.301   4.403
14224SOL    HW144569   3.504  14.235   4.471
14224SOL    HW244570   3.519  14.384   4.450
14225SOL     OW44571  10.485  13.346   9.738
14225SOL    HW144572  10.578  13.369   9.734
14225SOL    HW244573  10.439  13.426   9.714
14226SOL     OW44574  12.452   1.946  12.477
14226SOL    HW144575  12.462   1.974  12.386
14226SOL    HW244576  12.388   2.008  12.513
14227SOL     OW44577  10.374   7.272   5.701
14227SOL    HW144578  10.319   7.288   5.777
14227SOL    HW244579  10.461   7.305   5.726
14228SOL     OW44580   2.894   9.097   4.739
14228SOL    HW144581   2.895   9.006   4.709
14228SOL    HW244582   2.872   9.091   4.832
14229SOL     OW44583  14.678   5.062   5.127
14229SOL    HW144584  14.718   5.145   5.104
14229SOL    HW244585  14.703   5.046   5.218
14230SOL     OW44586  10.085   9.505  11.618
14230SOL    HW144587  10.159   9.528  11.674
14230SOL    HW244588  10.112   9.424  11.575
14231SOL     OW44589  10.643  14.197   7.561
14231SOL    HW144590  10.715  14.139   7.536
14231SOL    HW244591  10.664  14.281   7.519
14232SOL     OW44592   1.089   8.962  11.647
14232SOL    HW144593   1.082   8.921  11.734
14232SOL    HW244594   1.093   8.888  11.586
14233SOL     OW44595  13.830  14.367   9.886
14233SOL    HW144596  13.831  14.316   9.967
14233SOL    HW244597  13.863  14.453   9.912
14234SOL     OW44598   4.992  13.189  13.138
14234SOL    HW144599   4.938  13.158  13.065
14234SOL    HW244600   5.078  13.149  13.123
14235SOL     OW44601   1.126   4.395  13.722
14235SOL    HW144602   1.136   4.489  13.737
14235SOL    HW244603   1.202   4.371  13.668
14236SOL     OW44604   2.520   6.017   9.676
14236SOL    HW144605   2.605   6.006   9.717
14236SOL    HW244606   2.470   6.072   9.736
14237SOL     OW44607  12.471  11.212   1.932
14237SOL    HW144608  12.379  11.225   1.910
14237SOL    HW244609  12.513  11.194   1.848
14238SOL     OW44610   6.782   8.377   1.393
14238SOL    HW144611   6.788   8.334   1.478
14238SOL    HW244612   6.747   8.464   1.412
14239SOL     OW44613   2.405   2.306   1.526
14239SOL    HW144614   2.497   2.280   1.525
14239SOL    HW244615   2.400   2.374   1.593
14240SOL     OW44616   2.000  13.467   6.810
14240SOL    HW144617   1.949  13.401   6.764
14240SOL    HW244618   2.083  13.472   6.762
14241SOL     OW44619   3.646   2.583   9.673
14241SOL    HW144620   3.623   2.621   9.758
14241SOL    HW244621   3.628   2.490   9.683
14242SOL     OW44622  14.308  12.505   5.344
14242SOL    HW144623  14.231  12.475   5.392
14242SOL    HW244624  14.381  12.493   5.406
14243SOL     OW44625   0.621  10.624   4.727
14243SOL    HW144626   0.540  10.651   4.684
14243SOL    HW244627   0.655  10.704   4.769
14244SOL     OW44628   1.251   5.207   0.420
14244SOL    HW144629   1.161   5.235   0.438
14244SOL    HW244630   1.305   5.265   0.474
14245SOL     OW44631   0.353   6.691  13.705
14245SOL    HW144632   0.302   6.771  13.710
14245SOL    HW244633   0.436   6.713  13.749
14246SOL     OW44634   2.271  14.488   5.436
14246SOL    HW144635   2.209  14.557   5.463
14246SOL    HW244636   2.310  14.521   5.355
14247SOL     OW44637   7.881  14.386   0.418
14247SOL    HW144638   7.830  14.315   0.379
14247SOL    HW244639   7.826  14.464   0.407
14248SOL     OW44640   6.759  10.950  12.688
14248SOL    HW144641   6.808  10.886  12.739
14248SOL    HW244642   6.791  10.941  12.599
14249SOL     OW44643   3.818  11.510  10.236
14249SOL    HW144644   3.827  11.416  10.222
14249SOL    HW244645   3.902  11.547  10.210
14250SOL     OW44646   0.857   1.770  12.958
14250SOL    HW144647   0.938   1.746  12.914
14250SOL    HW244648   0.858   1.723  13.041
14251SOL     OW44649   5.189   6.511   2.327
14251SOL    HW144650   5.221   6.470   2.407
14251SOL    HW244651   5.189   6.440   2.262
14252SOL     OW44652   7.975   1.814  12.393
14252SOL    HW144653   7.918   1.743  12.421
14252SOL    HW244654   7.947   1.889  12.445
14253SOL     OW44655  14.435  11.374   2.835
14253SOL    HW144656  14.502  11.441   2.821
14253SOL    HW244657  14.398  11.394   2.921
14254SOL     OW44658   6.334   2.419  10.062
14254SOL    HW144659   6.379   2.481  10.004
14254SOL    HW244660   6.341   2.459  10.148
14255SOL     OW44661   3.267   9.052   9.422
14255SOL    HW144662   3.283   9.015   9.508
14255SOL    HW244663   3.305   9.140   9.426
14256SOL     OW44664   6.769   7.883   6.707
14256SOL    HW144665   6.729   7.885   6.620
14256SOL    HW244666   6.859   7.854   6.691
14257SOL     OW44667   0.084  14.596  13.279
14257SOL    HW144668   0.014  14.648  13.241
14257SOL    HW244669   0.046  14.509  13.292
14258SOL     OW44670   1.224   3.878   8.607
14258SOL    HW144671   1.275   3.919   8.537
14258SOL    HW244672   1.167   3.948   8.639
14259SOL     OW44673  14.721  11.024   0.020
14259SOL    HW144674  14.773  11.029   0.100
14259SOL    HW244675  14.639  10.984   0.048
14260SOL     OW44676   8.431   4.593   8.557
14260SOL    HW144677   8.420   4.617   8.649
14260SOL    HW244678   8.343   4.599   8.519
14261SOL     OW44679  10.573  12.854   7.913
14261SOL    HW144680  10.656  12.831   7.872
14261SOL    HW244681  10.581  12.947   7.934
14262SOL     OW44682   8.461  12.909   2.701
14262SOL    HW144683   8.431  12.930   2.789
14262SOL    HW244684   8.449  12.814   2.694
14263SOL     OW44685   4.087  10.182  14.790
14263SOL    HW144686   4.000  10.200  14.825
14263SOL    HW244687   4.083  10.090  14.762
14264SOL     OW44688   2.036   5.461   3.856
14264SOL    HW144689   2.097   5.440   3.927
14264SOL    HW244690   2.092   5.471   3.779
14265SOL     OW44691   3.849   8.061   5.706
14265SOL    HW144692   3.796   8.071   5.785
14265SOL    HW244693   3.791   8.019   5.643
14266SOL     OW44694   1.287   2.844   7.205
14266SOL    HW144695   1.351   2.836   7.275
14266SOL    HW244696   1.250   2.931   7.215
14267SOL     OW44697   8.938  14.051   1.946
14267SOL    HW144698   8.966  14.018   2.032
14267SOL    HW244699   8.845  14.030   1.942
14268SOL     OW44700   7.411   7.064   6.863
14268SOL    HW144701   7.506   7.052   6.866
14268SOL    HW244702   7.386   7.035   6.775
14269SOL     OW44703  14.818   6.818  13.732
14269SOL    HW144704   0.007   6.753  13.694
14269SOL    HW244705  14.860   6.844  13.814
14270SOL     OW44706   6.446   6.051   8.385
14270SOL    HW144707   6.502   6.049   8.463
14270SOL    HW244708   6.496   6.004   8.318
14271SOL     OW44709   4.839   3.866   3.940
14271SOL    HW144710   4.890   3.927   3.994
14271SOL    HW244711   4.852   3.896   3.850
14272SOL     OW44712   8.720  12.255   5.332
14272SOL    HW144713   8.758  12.272   5.419
14272SOL    HW244714   8.626  12.255   5.347
14273SOL     OW44715   2.220   4.009   4.620
14273SOL    HW144716   2.235   4.097   4.653
14273SOL    HW244717   2.162   3.968   4.684
14274SOL     OW44718   7.682   0.425  13.518
14274SOL    HW144719   7.608   0.399  13.573
14274SOL    HW244720   7.680   0.362  13.446
14275SOL     OW44721   8.825   4.108   2.489
14275SOL    HW144722   8.802   4.064   2.571
14275SOL    HW244723   8.889   4.175   2.514
14276SOL     OW44724  10.724   5.122   5.632
14276SOL    HW144725  10.797   5.142   5.573
14276SOL    HW244726  10.760   5.136   5.720
14277SOL     OW44727  10.458   7.715   2.628
14277SOL    HW144728  10.489   7.803   2.605
14277SOL    HW244729  10.414   7.726   2.712
14278SOL     OW44730   1.476   0.652   2.904
14278SOL    HW144731   1.492   0.726   2.963
14278SOL    HW244732   1.535   0.668   2.830
14279SOL     OW44733   7.885   5.966  12.281
14279SOL    HW144734   7.797   6.000  12.298
14279SOL    HW244735   7.870   5.877  12.248
14280SOL     OW44736   3.439  12.484  11.697
14280SOL    HW144737   3.487  12.544  11.754
14280SOL    HW244738   3.419  12.409  11.753
14281SOL     OW44739   9.593   7.294   7.295
14281SOL    HW144740   9.528   7.303   7.225
14281SOL    HW244741   9.616   7.201   7.294
14282SOL     OW44742  13.528   3.578   1.028
14282SOL    HW144743  13.589   3.630   0.975
14282SOL    HW244744  13.442   3.596   0.989
14283SOL     OW44745   9.308  12.329   5.856
14283SOL    HW144746   9.335  12.276   5.782
14283SOL    HW244747   9.389  12.355   5.899
14284SOL     OW44748  13.481  14.813   5.570
14284SOL    HW144749  13.545  14.762   5.620
14284SOL    HW244750  13.464  14.759   5.493
14285SOL     OW44751  12.933  12.507   9.012
14285SOL    HW144752  12.932  12.413   8.994
14285SOL    HW244753  12.970  12.547   8.934
14286SOL     OW44754   4.496  14.684  12.326
14286SOL    HW144755   4.491  14.670  12.231
14286SOL    HW244756   4.477  14.598  12.364
14287SOL     OW44757   1.141   9.772   4.397
14287SOL    HW144758   1.058   9.748   4.436
14287SOL    HW244759   1.120   9.842   4.335
14288SOL     OW44760   8.626   4.919   0.560
14288SOL    HW144761   8.684   4.979   0.606
14288SOL    HW244762   8.582   4.974   0.494
14289SOL     OW44763   4.326  14.660   0.245
14289SOL    HW144764   4.327  14.679   0.151
14289SOL    HW244765   4.391  14.719   0.282
14290SOL     OW44766   8.109  14.034   7.217
14290SOL    HW144767   8.042  14.026   7.285
14290SOL    HW244768   8.083  14.111   7.167
14291SOL     OW44769   7.992   8.143  11.779
14291SOL    HW144770   7.959   8.169  11.865
14291SOL    HW244771   8.031   8.057  11.793
14292SOL     OW44772  11.833   3.438  10.766
14292SOL    HW144773  11.912   3.490  10.777
14292SOL    HW244774  11.814   3.442  10.672
14293SOL     OW44775   0.028  11.321   4.935
14293SOL    HW144776  14.854  11.286   5.013
14293SOL    HW244777   0.076  11.246   4.900
14294SOL     OW44778   5.112   4.328   1.623
14294SOL    HW144779   5.146   4.320   1.712
14294SOL    HW244780   5.174   4.277   1.570
14295SOL     OW44781  14.259   3.474   8.730
14295SOL    HW144782  14.188   3.536   8.745
14295SOL    HW244783  14.338   3.520   8.758
14296SOL     OW44784   2.683   2.743   6.913
14296SOL    HW144785   2.650   2.806   6.849
14296SOL    HW244786   2.763   2.783   6.947
14297SOL     OW44787  12.111  13.992   3.352
14297SOL    HW144788  12.025  14.024   3.324
14297SOL    HW244789  12.164  14.071   3.359
14298SOL     OW44790   3.424  13.787  11.563
14298SOL    HW144791   3.414  13.868  11.513
14298SOL    HW244792   3.403  13.811  11.653
14299SOL     OW44793   8.014   6.348   8.730
14299SOL    HW144794   7.993   6.333   8.638
14299SOL    HW244795   8.064   6.271   8.756
14300SOL     OW44796   4.884   0.621  10.208
14300SOL    HW144797   4.913   0.531  10.195
14300SOL    HW244798   4.824   0.617  10.282
14301SOL     OW44799  10.250   2.749   5.944
14301SOL    HW144800  10.219   2.830   5.985
14301SOL    HW244801  10.179   2.686   5.958
14302SOL     OW44802   7.954   7.045  12.915
14302SOL    HW144803   7.930   6.984  12.846
14302SOL    HW244804   8.026   7.096  12.880
14303SOL     OW44805   2.686   7.275   2.878
14303SOL    HW144806   2.609   7.281   2.934
14303SOL    HW244807   2.759   7.258   2.939
14304SOL     OW44808   6.724  10.531   5.901
14304SOL    HW144809   6.715  10.436   5.895
14304SOL    HW244810   6.677  10.555   5.981
14305SOL     OW44811  10.692  14.644   7.086
14305SOL    HW144812  10.660  14.720   7.037
14305SOL    HW244813  10.776  14.623   7.045
14306SOL     OW44814  12.052  11.838   9.265
14306SOL    HW144815  12.031  11.751   9.298
14306SOL    HW244816  12.006  11.844   9.181
14307SOL     OW44817   8.105   9.587  11.512
14307SOL    HW144818   8.160   9.550  11.580
14307SOL    HW244819   8.060   9.660  11.554
14308SOL     OW44820  11.953   9.605   7.222
14308SOL    HW144821  11.936   9.525   7.272
14308SOL    HW244822  12.015   9.655   7.275
14309SOL     OW44823   0.329   0.299   7.156
14309SOL    HW144824   0.309   0.210   7.127
14309SOL    HW244825   0.244   0.344   7.157
14310SOL     OW44826   2.618  13.837  13.541
14310SOL    HW144827   2.560  13.817  13.467
14310SOL    HW244828   2.584  13.919  13.576
14311SOL     OW44829  10.080   4.449  11.189
14311SOL    HW144830  10.104   4.473  11.279
14311SOL    HW244831   9.985   4.460  11.187
14312SOL     OW44832   5.830   3.157   6.959
14312SOL    HW144833   5.806   3.167   6.866
14312SOL    HW244834   5.876   3.238   6.980
14313SOL     OW44835   1.857  11.459   3.260
14313SOL    HW144836   1.859  11.438   3.167
14313SOL    HW244837   1.774  11.421   3.291
14314SOL     OW44838   1.275   4.014  10.454
14314SOL    HW144839   1.253   4.017  10.361
14314SOL    HW244840   1.358   3.967  10.457
14315SOL     OW44841  11.064  10.530   4.984
14315SOL    HW144842  11.056  10.624   4.972
14315SOL    HW244843  11.055  10.494   4.896
14316SOL     OW44844   3.794   3.433   6.109
14316SOL    HW144845   3.848   3.371   6.060
14316SOL    HW244846   3.845   3.515   6.107
14317SOL     OW44847   3.416   2.102   9.786
14317SOL    HW144848   3.463   2.023   9.757
14317SOL    HW244849   3.349   2.069   9.847
14318SOL     OW44850   6.403   3.677   7.601
14318SOL    HW144851   6.434   3.590   7.627
14318SOL    HW244852   6.308   3.667   7.592
14319SOL     OW44853   1.868  11.089   4.131
14319SOL    HW144854   1.855  11.037   4.210
14319SOL    HW244855   1.780  11.113   4.102
14320SOL     OW44856  10.903   2.198   9.692
14320SOL    HW144857  10.828   2.187   9.750
14320SOL    HW244858  10.973   2.229   9.750
14321SOL     OW44859   5.704  13.247  12.986
14321SOL    HW144860   5.637  13.305  13.022
14321SOL    HW244861   5.684  13.242  12.892
14322SOL     OW44862  14.471   5.815   3.093
14322SOL    HW144863  14.378   5.822   3.116
14322SOL    HW244864  14.472   5.827   2.998
14323SOL     OW44865   2.500   9.793   2.043
14323SOL    HW144866   2.406   9.812   2.043
14323SOL    HW244867   2.541   9.875   2.071
14324SOL     OW44868   1.047   0.487   7.995
14324SOL    HW144869   1.084   0.541   7.924
14324SOL    HW244870   1.108   0.415   8.005
14325SOL     OW44871   7.401   8.150  14.015
14325SOL    HW144872   7.404   8.154  14.110
14325SOL    HW244873   7.339   8.219  13.990
14326SOL     OW44874  12.266   8.230   8.816
14326SOL    HW144875  12.225   8.233   8.730
14326SOL    HW244876  12.202   8.270   8.875
14327SOL     OW44877   0.311  10.915  11.777
14327SOL    HW144878   0.261  10.975  11.720
14327SOL    HW244879   0.264  10.917  11.860
14328SOL     OW44880  10.670   0.860   5.959
14328SOL    HW144881  10.735   0.801   5.920
14328SOL    HW244882  10.655   0.824   6.046
14329SOL     OW44883  10.359   1.930  14.231
14329SOL    HW144884  10.428   1.902  14.170
14329SOL    HW244885  10.407   1.965  14.306
14330SOL     OW44886  12.565   9.356   6.816
14330SOL    HW144887  12.640   9.302   6.796
14330SOL    HW244888  12.526   9.315   6.893
14331SOL     OW44889   1.039  11.064  10.949
14331SOL    HW144890   1.097  11.140  10.948
14331SOL    HW244891   1.027  11.041  10.857
14332SOL     OW44892   8.485   9.019   9.309
14332SOL    HW144893   8.576   9.014   9.341
14332SOL    HW244894   8.491   8.998   9.216
14333SOL     OW44895   0.912  12.802  13.221
14333SOL    HW144896   0.977  12.767  13.282
14333SOL    HW244897   0.918  12.897  13.231
14334SOL     OW44898  13.622   0.118  14.576
14334SOL    HW144899  13.574   0.096  14.496
14334SOL    HW244900  13.692   0.052  14.581
14335SOL     OW44901  11.742   3.633   8.246
14335SOL    HW144902  11.775   3.651   8.158
14335SOL    HW244903  11.695   3.712   8.271
14336SOL     OW44904   9.146   0.687  12.557
14336SOL    HW144905   9.233   0.696  12.594
14336SOL    HW244906   9.159   0.700  12.463
14337SOL     OW44907   0.982   7.815   3.781
14337SOL    HW144908   1.044   7.743   3.777
14337SOL    HW244909   0.905   7.783   3.734
14338SOL     OW44910   1.626   7.857   3.999
14338SOL    HW144911   1.696   7.830   4.059
14338SOL    HW244912   1.668   7.916   3.937
14339SOL     OW44913  10.298   9.198   4.099
14339SOL    HW144914  10.315   9.226   4.189
14339SOL    HW244915  10.345   9.262   4.045
14340SOL     OW44916   5.667  10.452   1.549
14340SOL    HW144917   5.748  10.504   1.547
14340SOL    HW244918   5.628  10.466   1.462
14341SOL     OW44919   2.850  10.654   7.554
14341SOL    HW144920   2.839  10.742   7.519
14341SOL    HW244921   2.877  10.601   7.479
14342SOL     OW44922  12.196  10.119  14.589
14342SOL    HW144923  12.217  10.162  14.672
14342SOL    HW244924  12.130  10.175  14.549
14343SOL     OW44925  13.093   3.899   9.294
14343SOL    HW144926  13.099   3.902   9.198
14343SOL    HW244927  13.017   3.844   9.312
14344SOL     OW44928   9.180   6.342  14.497
14344SOL    HW144929   9.222   6.405  14.438
14344SOL    HW244930   9.124   6.396  14.553
14345SOL     OW44931   5.454   7.586   9.602
14345SOL    HW144932   5.508   7.635   9.663
14345SOL    HW244933   5.509   7.513   9.574
14346SOL     OW44934   4.292  13.760   1.355
14346SOL    HW144935   4.262  13.766   1.445
14346SOL    HW244936   4.212  13.750   1.304
14347SOL     OW44937   8.225  11.310  12.862
14347SOL    HW144938   8.240  11.313  12.957
14347SOL    HW244939   8.234  11.400  12.833
14348SOL     OW44940  10.180   3.772   2.858
14348SOL    HW144941  10.138   3.844   2.811
14348SOL    HW244942  10.109   3.711   2.878
14349SOL     OW44943  12.315  11.550   3.735
14349SOL    HW144944  12.260  11.477   3.705
14349SOL    HW244945  12.311  11.544   3.831
14350SOL     OW44946   3.062  14.800   0.949
14350SOL    HW144947   3.158  14.798   0.955
14350SOL    HW244948   3.041   0.023   0.938
14351SOL     OW44949   0.467   3.112   5.718
14351SOL    HW144950   0.394   3.165   5.749
14351SOL    HW244951   0.544   3.150   5.761
14352SOL     OW44952   4.391   0.855  13.671
14352SOL    HW144953   4.443   0.916  13.619
14352SOL    HW244954   4.455   0.812  13.729
14353SOL     OW44955   1.118   2.871   8.629
14353SOL    HW144956   1.209   2.893   8.653
14353SOL    HW244957   1.123   2.780   8.599
14354SOL     OW44958   0.110   4.956   2.390
14354SOL    HW144959   0.037   4.947   2.329
14354SOL    HW244960   0.132   5.050   2.387
14355SOL     OW44961  14.664   0.584   7.091
14355SOL    HW144962  14.660   0.500   7.135
14355SOL    HW244963  14.677   0.648   7.161
14356SOL     OW44964   1.494   4.740  12.162
14356SOL    HW144965   1.578   4.697  12.144
14356SOL    HW244966   1.504   4.829  12.127
14357SOL     OW44967  10.034   3.236   5.380
14357SOL    HW144968   9.946   3.268   5.362
14357SOL    HW244969  10.038   3.151   5.336
14358SOL     OW44970  10.792  12.143  13.832
14358SOL    HW144971  10.795  12.226  13.784
14358SOL    HW244972  10.861  12.091  13.792
14359SOL     OW44973  12.191  12.639   6.663
14359SOL    HW144974  12.127  12.620   6.731
14359SOL    HW244975  12.238  12.556   6.651
14360SOL     OW44976   7.956   0.957  11.310
14360SOL    HW144977   7.898   0.887  11.339
14360SOL    HW244978   7.897   1.024  11.275
14361SOL     OW44979   3.203  13.039   0.142
14361SOL    HW144980   3.274  13.085   0.185
14361SOL    HW244981   3.183  12.965   0.199
14362SOL     OW44982  10.279   5.061   6.222
14362SOL    HW144983  10.222   5.138   6.214
14362SOL    HW244984  10.322   5.072   6.306
14363SOL     OW44985  10.783  13.999   2.535
14363SOL    HW144986  10.747  14.056   2.602
14363SOL    HW244987  10.851  14.051   2.492
14364SOL     OW44988   4.625   5.826   5.570
14364SOL    HW144989   4.576   5.856   5.646
14364SOL    HW244990   4.712   5.864   5.581
14365SOL     OW44991  13.690   2.552  10.280
14365SOL    HW144992  13.652   2.592  10.202
14365SOL    HW244993  13.698   2.459  10.258
14366SOL     OW44994   3.298  12.532  12.682
14366SOL    HW144995   3.309  12.584  12.762
14366SOL    HW244996   3.227  12.471  12.704
14367SOL     OW44997   6.990   1.003  12.530
14367SOL    HW144998   6.943   1.078  12.565
14367SOL    HW244999   6.962   0.996  12.439
14368SOL     OW45000  13.589  11.834   0.194
14368SOL    HW145001  13.604  11.741   0.211
14368SOL    HW245002  13.538  11.864   0.269
14369SOL     OW45003   1.662  10.687   8.426
14369SOL    HW145004   1.668  10.769   8.378
14369SOL    HW245005   1.629  10.711   8.512
14370SOL     OW45006   2.165   9.352   5.358
14370SOL    HW145007   2.113   9.304   5.422
14370SOL    HW245008   2.105   9.418   5.323
14371SOL     OW45009  13.410  11.190   6.820
14371SOL    HW145010  13.367  11.105   6.808
14371SOL    HW245011  13.453  11.184   6.905
14372SOL     OW45012   8.720   2.962   9.157
14372SOL    HW145013   8.791   2.904   9.127
14372SOL    HW245014   8.764   3.043   9.182
14373SOL     OW45015  10.301   2.666  13.195
14373SOL    HW145016  10.327   2.757  13.182
14373SOL    HW245017  10.288   2.632  13.107
14374SOL     OW45018   4.569   2.476   1.563
14374SOL    HW145019   4.487   2.523   1.580
14374SOL    HW245020   4.588   2.430   1.645
14375SOL     OW45021  12.476   7.318   4.301
14375SOL    HW145022  12.552   7.374   4.318
14375SOL    HW245023  12.453   7.283   4.387
14376SOL     OW45024  14.034  12.625   2.113
14376SOL    HW145025  14.069  12.642   2.201
14376SOL    HW245026  14.098  12.567   2.072
14377SOL     OW45027   0.601  14.275  11.136
14377SOL    HW145028   0.610  14.324  11.054
14377SOL    HW245029   0.529  14.317  11.182
14378SOL     OW45030   6.969   5.224  13.567
14378SOL    HW145031   7.019   5.146  13.542
14378SOL    HW245032   6.879   5.204  13.540
14379SOL     OW45033  12.702  13.678   9.288
14379SOL    HW145034  12.669  13.739   9.223
14379SOL    HW245035  12.798  13.683   9.279
14380SOL     OW45036   2.192  13.154   2.549
14380SOL    HW145037   2.197  13.198   2.464
14380SOL    HW245038   2.129  13.206   2.600
14381SOL     OW45039   4.025  11.092  10.663
14381SOL    HW145040   4.011  11.090  10.758
14381SOL    HW245041   4.109  11.136  10.652
14382SOL     OW45042   3.100   5.160  12.131
14382SOL    HW145043   3.166   5.101  12.168
14382SOL    HW245044   3.082   5.125  12.044
14383SOL     OW45045  13.997   8.566   9.066
14383SOL    HW145046  14.063   8.591   9.001
14383SOL    HW245047  14.045   8.563   9.149
14384SOL     OW45048  11.333  13.282  10.575
14384SOL    HW145049  11.280  13.325  10.509
14384SOL    HW245050  11.277  13.281  10.654
14385SOL     OW45051   5.208   0.175  13.426
14385SOL    HW145052   5.149   0.241  13.390
14385SOL    HW245053   5.149   0.110  13.465
14386SOL     OW45054   6.209  12.690   9.076
14386SOL    HW145055   6.271  12.699   9.148
14386SOL    HW245056   6.252  12.731   9.001
14387SOL     OW45057  14.300  13.989   9.646
14387SOL    HW145058  14.389  14.017   9.669
14387SOL    HW245059  14.299  13.895   9.665
14388SOL     OW45060  13.661   7.727  10.272
14388SOL    HW145061  13.699   7.660  10.215
14388SOL    HW245062  13.620   7.790  10.212
14389SOL     OW45063   0.806  12.942   6.569
14389SOL    HW145064   0.853  12.865   6.538
14389SOL    HW245065   0.871  13.013   6.566
14390SOL     OW45066  12.369   6.186   5.016
14390SOL    HW145067  12.329   6.266   5.051
14390SOL    HW245068  12.459   6.212   4.994
14391SOL     OW45069   4.452  11.167   1.775
14391SOL    HW145070   4.407  11.095   1.731
14391SOL    HW245071   4.544  11.143   1.773
14392SOL     OW45072   5.824   7.665  12.255
14392SOL    HW145073   5.851   7.623  12.336
14392SOL    HW245074   5.861   7.753  12.260
14393SOL     OW45075   3.183   5.004   9.479
14393SOL    HW145076   3.223   4.968   9.400
14393SOL    HW245077   3.096   4.964   9.482
14394SOL     OW45078  10.208  12.725   6.573
14394SOL    HW145079  10.231  12.743   6.664
14394SOL    HW245080  10.229  12.632   6.562
14395SOL     OW45081   4.788   5.000   8.224
14395SOL    HW145082   4.719   5.058   8.192
14395SOL    HW245083   4.841   4.980   8.147
14396SOL     OW45084   1.687   7.267  10.560
14396SOL    HW145085   1.730   7.294  10.479
14396SOL    HW245086   1.755   7.222  10.610
14397SOL     OW45087   5.651   2.961   5.464
14397SOL    HW145088   5.654   2.947   5.369
14397SOL    HW245089   5.717   3.028   5.481
14398SOL     OW45090   9.372   1.747   9.293
14398SOL    HW145091   9.330   1.825   9.256
14398SOL    HW245092   9.418   1.708   9.219
14399SOL     OW45093   7.937   5.297   9.638
14399SOL    HW145094   7.884   5.371   9.666
14399SOL    HW245095   7.876   5.223   9.640
14400SOL     OW45096  14.103   5.282   9.164
14400SOL    HW145097  14.154   5.227   9.104
14400SOL    HW245098  14.028   5.227   9.188
14401SOL     OW45099   5.393   9.097  11.028
14401SOL    HW145100   5.460   9.073  10.965
14401SOL    HW245101   5.434   9.080  11.113
14402SOL     OW45102  14.084   3.107   3.225
14402SOL    HW145103  14.150   3.176   3.217
14402SOL    HW245104  14.001   3.155   3.232
14403SOL     OW45105  13.794   6.156   9.023
14403SOL    HW145106  13.759   6.126   8.939
14403SOL    HW245107  13.748   6.105   9.088
14404SOL     OW45108  10.451   9.857   6.481
14404SOL    HW145109  10.532   9.867   6.532
14404SOL    HW245110  10.394   9.803   6.537
14405SOL     OW45111  11.964  10.446   2.034
14405SOL    HW145112  11.970  10.542   2.029
14405SOL    HW245113  11.870  10.428   2.041
14406SOL     OW45114   3.542   4.374   8.587
14406SOL    HW145115   3.487   4.368   8.665
14406SOL    HW245116   3.481   4.398   8.517
14407SOL     OW45117   3.665  11.164   3.489
14407SOL    HW145118   3.755  11.139   3.467
14407SOL    HW245119   3.617  11.159   3.406
14408SOL     OW45120   9.800  10.469   4.309
14408SOL    HW145121   9.831  10.538   4.367
14408SOL    HW245122   9.840  10.489   4.224
14409SOL     OW45123   9.098   3.133  12.958
14409SOL    HW145124   9.006   3.138  12.986
14409SOL    HW245125   9.104   3.196  12.885
14410SOL     OW45126   4.229   8.142   7.070
14410SOL    HW145127   4.166   8.195   7.020
14410SOL    HW245128   4.306   8.198   7.078
14411SOL     OW45129   5.427   1.495   7.307
14411SOL    HW145130   5.512   1.484   7.264
14411SOL    HW245131   5.367   1.441   7.255
14412SOL     OW45132  14.245   2.804   4.771
14412SOL    HW145133  14.253   2.737   4.703
14412SOL    HW245134  14.194   2.874   4.731
14413SOL     OW45135   2.456  14.857  12.052
14413SOL    HW145136   2.545   0.012  12.078
14413SOL    HW245137   2.404   0.000  12.131
14414SOL     OW45138   4.885   4.538  12.809
14414SOL    HW145139   4.830   4.600  12.761
14414SOL    HW245140   4.960   4.523  12.751
14415SOL     OW45141   0.307   5.136  11.410
14415SOL    HW145142   0.377   5.087  11.455
14415SOL    HW245143   0.290   5.085  11.331
14416SOL     OW45144  10.095   9.732   2.268
14416SOL    HW145145  10.044   9.810   2.246
14416SOL    HW245146  10.184   9.752   2.239
14417SOL     OW45147   0.484  10.532   9.123
14417SOL    HW145148   0.530  10.556   9.043
14417SOL    HW245149   0.546  10.551   9.193
14418SOL     OW45150   6.678  13.624   1.953
14418SOL    HW145151   6.643  13.536   1.941
14418SOL    HW245152   6.684  13.660   1.865
14419SOL     OW45153  10.831   9.892   6.561
14419SOL    HW145154  10.771   9.868   6.632
14419SOL    HW245155  10.796   9.974   6.526
14420SOL     OW45156   5.721  13.306   8.521
14420SOL    HW145157   5.659  13.282   8.591
14420SOL    HW245158   5.749  13.222   8.485
14421SOL     OW45159  13.395   7.218   5.329
14421SOL    HW145160  13.311   7.261   5.315
14421SOL    HW245161  13.392   7.141   5.273
14422SOL     OW45162  12.643  12.099  12.418
14422SOL    HW145163  12.722  12.061  12.459
14422SOL    HW245164  12.571  12.049  12.455
14423SOL     OW45165  12.313   2.361  10.567
14423SOL    HW145166  12.267   2.354  10.651
14423SOL    HW245167  12.374   2.433  10.578
14424SOL     OW45168  12.080   6.786   0.050
14424SOL    HW145169  12.066   6.879   0.038
14424SOL    HW245170  12.064   6.748  14.833
14425SOL     OW45171   3.479   0.258  11.890
14425SOL    HW145172   3.540   0.211  11.945
14425SOL    HW245173   3.515   0.250  11.801
14426SOL     OW45174  10.907   5.151   4.405
14426SOL    HW145175  10.866   5.233   4.377
14426SOL    HW245176  10.888   5.145   4.499
14427SOL     OW45177   8.045  11.432   5.238
14427SOL    HW145178   8.065  11.474   5.321
14427SOL    HW245179   8.071  11.497   5.172
14428SOL     OW45180   3.015  10.506   4.099
14428SOL    HW145181   3.109  10.519   4.084
14428SOL    HW245182   3.001  10.412   4.087
14429SOL     OW45183  12.702  13.804  12.606
14429SOL    HW145184  12.665  13.842  12.526
14429SOL    HW245185  12.628  13.763  12.650
14430SOL     OW45186   6.562   1.353  14.290
14430SOL    HW145187   6.550   1.262  14.261
14430SOL    HW245188   6.560   1.404  14.210
14431SOL     OW45189   6.636   3.330  11.046
14431SOL    HW145190   6.671   3.343  11.135
14431SOL    HW245191   6.581   3.252  11.053
14432SOL     OW45192   8.420  11.423  13.755
14432SOL    HW145193   8.424  11.514  13.727
14432SOL    HW245194   8.497  11.410  13.810
14433SOL     OW45195   7.512  12.996  13.531
14433SOL    HW145196   7.566  12.923  13.499
14433SOL    HW245197   7.575  13.056  13.572
14434SOL     OW45198  11.533   9.130  11.307
14434SOL    HW145199  11.553   9.163  11.219
14434SOL    HW245200  11.468   9.061  11.293
14435SOL     OW45201   8.581   4.078   3.705
14435SOL    HW145202   8.513   4.135   3.741
14435SOL    HW245203   8.560   3.991   3.739
14436SOL     OW45204   9.718   8.840   4.747
14436SOL    HW145205   9.781   8.862   4.678
14436SOL    HW245206   9.636   8.879   4.718
14437SOL     OW45207  12.356  12.096  13.069
14437SOL    HW145208  12.354  12.011  13.113
14437SOL    HW245209  12.446  12.127  13.080
14438SOL     OW45210   2.264   2.153   9.186
14438SOL    HW145211   2.300   2.226   9.135
14438SOL    HW245212   2.171   2.173   9.193
14439SOL     OW45213   5.525   4.398   3.848
14439SOL    HW145214   5.579   4.456   3.902
14439SOL    HW245215   5.536   4.431   3.759
14440SOL     OW45216   2.723   2.308   7.028
14440SOL    HW145217   2.777   2.229   7.039
14440SOL    HW245218   2.747   2.341   6.941
14441SOL     OW45219   2.742   7.668   1.139
14441SOL    HW145220   2.734   7.753   1.183
14441SOL    HW245221   2.679   7.672   1.067
14442SOL     OW45222   2.364  10.094   1.182
14442SOL    HW145223   2.360  10.000   1.165
14442SOL    HW245224   2.393  10.101   1.273
14443SOL     OW45225   9.444   7.851   1.706
14443SOL    HW145226   9.379   7.836   1.638
14443SOL    HW245227   9.424   7.938   1.740
14444SOL     OW45228  12.373   0.921  11.610
14444SOL    HW145229  12.415   0.979  11.674
14444SOL    HW245230  12.293   0.967  11.585
14445SOL     OW45231  12.963  12.841  13.162
14445SOL    HW145232  12.946  12.795  13.080
14445SOL    HW245233  13.054  12.818  13.183
14446SOL     OW45234   5.707  10.515  10.611
14446SOL    HW145235   5.748  10.596  10.640
14446SOL    HW245236   5.617  10.540  10.591
14447SOL     OW45237   9.323   4.659   4.741
14447SOL    HW145238   9.310   4.623   4.653
14447SOL    HW245239   9.415   4.686   4.742
14448SOL     OW45240  10.132  12.715   5.198
14448SOL    HW145241  10.153  12.646   5.260
14448SOL    HW245242  10.036  12.716   5.195
14449SOL     OW45243  12.937  12.942   6.559
14449SOL    HW145244  12.918  12.927   6.651
14449SOL    HW245245  13.023  12.983   6.558
14450SOL     OW45246   1.454   1.073   7.326
14450SOL    HW145247   1.447   1.168   7.330
14450SOL    HW245248   1.523   1.056   7.261
14451SOL     OW45249  12.777   4.449   8.076
14451SOL    HW145250  12.840   4.383   8.047
14451SOL    HW245251  12.828   4.511   8.127
14452SOL     OW45252  12.002  10.827   3.326
14452SOL    HW145253  12.058  10.846   3.401
14452SOL    HW245254  11.938  10.764   3.360
14453SOL     OW45255  10.562   9.650   4.033
14453SOL    HW145256  10.655   9.646   4.013
14453SOL    HW245257  10.554   9.716   4.101
14454SOL     OW45258   9.600   2.945   4.098
14454SOL    HW145259   9.692   2.967   4.089
14454SOL    HW245260   9.570   2.994   4.175
14455SOL     OW45261   1.902   6.318  13.712
14455SOL    HW145262   1.936   6.307  13.623
14455SOL    HW245263   1.894   6.413  13.723
14456SOL     OW45264   5.965  12.732   0.468
14456SOL    HW145265   6.057  12.755   0.478
14456SOL    HW245266   5.925  12.759   0.551
14457SOL     OW45267   2.774   5.925   9.741
14457SOL    HW145268   2.779   5.836   9.775
14457SOL    HW245269   2.740   5.915   9.652
14458SOL     OW45270  10.696   2.349   8.011
14458SOL    HW145271  10.615   2.302   7.994
14458SOL    HW245272  10.701   2.416   7.943
14459SOL     OW45273   2.773   3.124   3.996
14459SOL    HW145274   2.732   3.057   3.942
14459SOL    HW245275   2.863   3.094   4.007
14460SOL     OW45276  10.594   9.771  14.492
14460SOL    HW145277  10.564   9.719  14.417
14460SOL    HW245278  10.608   9.858  14.456
14461SOL     OW45279   7.364   6.616   5.233
14461SOL    HW145280   7.441   6.598   5.179
14461SOL    HW245281   7.289   6.592   5.179
14462SOL     OW45282  14.601  14.143  14.247
14462SOL    HW145283  14.571  14.229  14.278
14462SOL    HW245284  14.574  14.140  14.156
14463SOL     OW45285  10.508   7.250   9.874
14463SOL    HW145286  10.596   7.221   9.897
14463SOL    HW245287  10.514   7.279   9.784
14464SOL     OW45288   7.641  11.366  10.532
14464SOL    HW145289   7.566  11.306  10.528
14464SOL    HW245290   7.628  11.426  10.459
14465SOL     OW45291   9.572   5.488   6.801
14465SOL    HW145292   9.600   5.578   6.789
14465SOL    HW245293   9.479   5.488   6.778
14466SOL     OW45294  12.887  12.418  10.416
14466SOL    HW145295  12.861  12.492  10.470
14466SOL    HW245296  12.812  12.359  10.418
14467SOL     OW45297   1.632  11.448   7.921
14467SOL    HW145298   1.636  11.540   7.896
14467SOL    HW245299   1.662  11.401   7.843
14468SOL     OW45300  10.520   9.869   5.227
14468SOL    HW145301  10.589   9.904   5.170
14468SOL    HW245302  10.517   9.929   5.301
14469SOL     OW45303   2.687  10.554   1.446
14469SOL    HW145304   2.716  10.607   1.372
14469SOL    HW245305   2.753  10.569   1.514
14470SOL     OW45306  12.112   0.616   5.673
14470SOL    HW145307  12.087   0.580   5.588
14470SOL    HW245308  12.129   0.539   5.728
14471SOL     OW45309   1.639   2.061  14.399
14471SOL    HW145310   1.653   2.049  14.306
14471SOL    HW245311   1.641   2.156  14.412
14472SOL     OW45312   2.611  11.956   1.345
14472SOL    HW145313   2.679  11.894   1.370
14472SOL    HW245314   2.551  11.906   1.290
14473SOL     OW45315  12.772   3.893  13.590
14473SOL    HW145316  12.784   3.823  13.526
14473SOL    HW245317  12.852   3.946  13.583
14474SOL     OW45318  12.401   0.166   9.026
14474SOL    HW145319  12.434   0.093   8.974
14474SOL    HW245320  12.404   0.134   9.116
14475SOL     OW45321  12.021   3.990  11.844
14475SOL    HW145322  11.991   3.971  11.933
14475SOL    HW245323  11.989   3.916  11.792
14476SOL     OW45324   1.799   2.486  10.856
14476SOL    HW145325   1.857   2.491  10.780
14476SOL    HW245326   1.721   2.535  10.831
14477SOL     OW45327   3.083  10.427   1.808
14477SOL    HW145328   3.149  10.496   1.809
14477SOL    HW245329   3.133  10.345   1.818
14478SOL     OW45330   9.253   5.893   9.722
14478SOL    HW145331   9.287   5.902   9.633
14478SOL    HW245332   9.181   5.955   9.727
14479SOL     OW45333  11.719  10.730   5.402
14479SOL    HW145334  11.642  10.781   5.375
14479SOL    HW245335  11.793  10.789   5.388
14480SOL     OW45336   8.145   0.276   9.733
14480SOL    HW145337   8.159   0.233   9.817
14480SOL    HW245338   8.059   0.317   9.740
14481SOL     OW45339  11.579   7.310   2.265
14481SOL    HW145340  11.639   7.298   2.339
14481SOL    HW245341  11.511   7.244   2.279
14482SOL     OW45342   1.308   1.016   6.766
14482SOL    HW145343   1.243   1.056   6.824
14482SOL    HW245344   1.290   1.054   6.680
14483SOL     OW45345   0.369   1.089   4.485
14483SOL    HW145346   0.355   0.994   4.479
14483SOL    HW245347   0.463   1.100   4.468
14484SOL     OW45348   4.717  10.819   5.400
14484SOL    HW145349   4.666  10.869   5.337
14484SOL    HW245350   4.779  10.769   5.346
14485SOL     OW45351  13.056  13.355   5.948
14485SOL    HW145352  13.061  13.435   6.002
14485SOL    HW245353  13.003  13.381   5.873
14486SOL     OW45354   3.155  13.481  11.468
14486SOL    HW145355   3.187  13.541  11.400
14486SOL    HW245356   3.070  13.451  11.435
14487SOL     OW45357  12.351  12.031  14.822
14487SOL    HW145358  12.382  12.031  14.731
14487SOL    HW245359  12.292  12.106  14.827
14488SOL     OW45360   9.882   2.826   6.659
14488SOL    HW145361   9.840   2.893   6.606
14488SOL    HW245362   9.810   2.769   6.687
14489SOL     OW45363   7.489   8.780   2.485
14489SOL    HW145364   7.424   8.745   2.547
14489SOL    HW245365   7.521   8.860   2.527
14490SOL     OW45366   0.098   3.485   2.772
14490SOL    HW145367   0.073   3.570   2.809
14490SOL    HW245368   0.097   3.499   2.677
14491SOL     OW45369   7.325   4.549  14.053
14491SOL    HW145370   7.384   4.550  13.978
14491SOL    HW245371   7.264   4.622  14.036
14492SOL     OW45372   2.462  14.064   9.307
14492SOL    HW145373   2.411  14.088   9.229
14492SOL    HW245374   2.469  13.969   9.303
14493SOL     OW45375   9.803  12.909   8.557
14493SOL    HW145376   9.709  12.895   8.572
14493SOL    HW245377   9.828  12.840   8.497
14494SOL     OW45378   5.036   5.706   3.835
14494SOL    HW145379   4.948   5.685   3.866
14494SOL    HW245380   5.046   5.799   3.851
14495SOL     OW45381   0.593   5.130   2.213
14495SOL    HW145382   0.629   5.200   2.267
14495SOL    HW245383   0.529   5.087   2.269
14496SOL     OW45384   1.503   9.465  13.299
14496SOL    HW145385   1.439   9.408  13.340
14496SOL    HW245386   1.466   9.553  13.307
14497SOL     OW45387   4.624  13.526  10.256
14497SOL    HW145388   4.631  13.617  10.283
14497SOL    HW245389   4.585  13.481  10.331
14498SOL     OW45390  12.741   1.818  13.484
14498SOL    HW145391  12.686   1.892  13.513
14498SOL    HW245392  12.747   1.761  13.561
14499SOL     OW45393   0.278  11.205   7.391
14499SOL    HW145394   0.243  11.239   7.473
14499SOL    HW245395   0.372  11.220   7.396
14500SOL     OW45396   6.520   5.815   2.926
14500SOL    HW145397   6.491   5.775   3.008
14500SOL    HW245398   6.446   5.871   2.900
14501SOL     OW45399   2.932   7.340  11.576
14501SOL    HW145400   3.025   7.342  11.554
14501SOL    HW245401   2.887   7.359  11.493
14502SOL     OW45402   8.853   0.825  12.882
14502SOL    HW145403   8.911   0.855  12.951
14502SOL    HW245404   8.787   0.894  12.873
14503SOL     OW45405   4.114   1.686   8.425
14503SOL    HW145406   4.102   1.603   8.379
14503SOL    HW245407   4.040   1.691   8.485
14504SOL     OW45408  13.657   5.626   2.011
14504SOL    HW145409  13.722   5.696   2.004
14504SOL    HW245410  13.581   5.659   1.963
14505SOL     OW45411   0.346  12.159   5.121
14505SOL    HW145412   0.315  12.167   5.212
14505SOL    HW245413   0.399  12.079   5.121
14506SOL     OW45414   8.586  13.023  12.103
14506SOL    HW145415   8.498  13.030  12.139
14506SOL    HW245416   8.589  12.936  12.063
14507SOL     OW45417  11.059  10.817   6.219
14507SOL    HW145418  11.061  10.759   6.295
14507SOL    HW245419  11.109  10.770   6.152
14508SOL     OW45420   8.699   5.173   4.310
14508SOL    HW145421   8.604   5.172   4.307
14508SOL    HW245422   8.721   5.259   4.346
14509SOL     OW45423   2.776  12.529   4.011
14509SOL    HW145424   2.730  12.611   3.995
14509SOL    HW245425   2.771  12.482   3.927
14510SOL     OW45426   4.582   2.137   0.679
14510SOL    HW145427   4.512   2.128   0.743
14510SOL    HW245428   4.662   2.121   0.728
14511SOL     OW45429   2.499   2.578  11.186
14511SOL    HW145430   2.406   2.586  11.167
14511SOL    HW245431   2.522   2.490  11.155
14512SOL     OW45432  14.451   3.239   6.735
14512SOL    HW145433  14.454   3.322   6.782
14512SOL    HW245434  14.357   3.221   6.725
14513SOL     OW45435  14.556   3.295   2.424
14513SOL    HW145436  14.487   3.311   2.488
14513SOL    HW245437  14.511   3.261   2.347
14514SOL     OW45438   0.696   2.281   7.550
14514SOL    HW145439   0.649   2.359   7.523
14514SOL    HW245440   0.766   2.313   7.607
14515SOL     OW45441   6.713   3.673   4.798
14515SOL    HW145442   6.756   3.589   4.783
14515SOL    HW245443   6.781   3.738   4.781
14516SOL     OW45444   8.433   0.488   1.585
14516SOL    HW145445   8.351   0.452   1.550
14516SOL    HW245446   8.456   0.557   1.523
14517SOL     OW45447  14.411   0.748   3.715
14517SOL    HW145448  14.395   0.653   3.706
14517SOL    HW245449  14.433   0.760   3.807
14518SOL     OW45450   5.297   4.892  11.251
14518SOL    HW145451   5.351   4.932  11.183
14518SOL    HW245452   5.246   4.825  11.204
14519SOL     OW45453   6.586   9.179   3.197
14519SOL    HW145454   6.629   9.205   3.279
14519SOL    HW245455   6.654   9.186   3.131
14520SOL     OW45456  11.008  13.245   9.863
14520SOL    HW145457  11.071  13.316   9.848
14520SOL    HW245458  11.033  13.177   9.802
14521SOL     OW45459   8.876   7.865   8.084
14521SOL    HW145460   8.808   7.803   8.111
14521SOL    HW245461   8.853   7.888   7.994
14522SOL     OW45462   3.607   2.922   2.487
14522SOL    HW145463   3.547   2.853   2.460
14522SOL    HW245464   3.608   2.983   2.413
14523SOL     OW45465   1.676  10.845   9.012
14523SOL    HW145466   1.598  10.794   9.036
14523SOL    HW245467   1.653  10.935   9.034
14524SOL     OW45468  13.183   6.381   1.828
14524SOL    HW145469  13.141   6.463   1.857
14524SOL    HW245470  13.111   6.319   1.819
14525SOL     OW45471   2.860   0.522  11.124
14525SOL    HW145472   2.934   0.574  11.095
14525SOL    HW245473   2.818   0.575  11.191
14526SOL     OW45474   7.298   8.550   8.165
14526SOL    HW145475   7.328   8.549   8.256
14526SOL    HW245476   7.247   8.630   8.158
14527SOL     OW45477   5.334   8.695   2.674
14527SOL    HW145478   5.252   8.667   2.715
14527SOL    HW245479   5.355   8.778   2.717
14528SOL     OW45480   0.483   1.924   7.002
14528SOL    HW145481   0.503   1.965   6.918
14528SOL    HW245482   0.392   1.895   6.993
14529SOL     OW45483   4.642   4.426   2.278
14529SOL    HW145484   4.640   4.409   2.372
14529SOL    HW245485   4.696   4.504   2.269
14530SOL     OW45486   8.719   2.416  11.978
14530SOL    HW145487   8.782   2.371  12.034
14530SOL    HW245488   8.722   2.368  11.895
14531SOL     OW45489   9.019   7.158   6.061
14531SOL    HW145490   8.947   7.135   6.001
14531SOL    HW245491   9.075   7.081   6.061
14532SOL     OW45492  11.244  13.827   1.870
14532SOL    HW145493  11.274  13.912   1.902
14532SOL    HW245494  11.188  13.848   1.795
14533SOL     OW45495   5.110   3.646   6.078
14533SOL    HW145496   5.157   3.684   6.005
14533SOL    HW245497   5.175   3.638   6.148
14534SOL     OW45498  14.157  13.260   7.368
14534SOL    HW145499  14.140  13.326   7.301
14534SOL    HW245500  14.224  13.204   7.329
14535SOL     OW45501   2.705   0.508   6.602
14535SOL    HW145502   2.700   0.508   6.507
14535SOL    HW245503   2.638   0.445   6.630
14536SOL     OW45504   9.690   8.126  11.441
14536SOL    HW145505   9.709   8.150  11.531
14536SOL    HW245506   9.777   8.115  11.401
14537SOL     OW45507   4.120  14.308  12.489
14537SOL    HW145508   4.038  14.357  12.495
14537SOL    HW245509   4.115  14.244  12.561
14538SOL     OW45510   1.872   5.098   5.320
14538SOL    HW145511   1.878   5.028   5.255
14538SOL    HW245512   1.831   5.171   5.274
14539SOL     OW45513   9.248   5.731   3.940
14539SOL    HW145514   9.170   5.774   3.977
14539SOL    HW245515   9.217   5.691   3.859
14540SOL     OW45516  10.194   9.529   7.061
14540SOL    HW145517  10.152   9.489   7.137
14540SOL    HW245518  10.285   9.541   7.087
14541SOL     OW45519   8.368   0.230   1.411
14541SOL    HW145520   8.451   0.198   1.375
14541SOL    HW245521   8.385   0.239   1.505
14542SOL     OW45522  13.518  11.228   0.382
14542SOL    HW145523  13.516  11.215   0.287
14542SOL    HW245524  13.574  11.304   0.395
14543SOL     OW45525  14.771   6.280  11.757
14543SOL    HW145526  14.769   6.344  11.686
14543SOL    HW245527  14.776   6.333  11.837
14544SOL     OW45528  11.973   0.154   6.123
14544SOL    HW145529  12.017   0.075   6.091
14544SOL    HW245530  11.887   0.124   6.152
14545SOL     OW45531  13.270   3.726  14.506
14545SOL    HW145532  13.292   3.715  14.599
14545SOL    HW245533  13.338   3.784  14.472
14546SOL     OW45534   5.573   3.616   0.008
14546SOL    HW145535   5.597   3.594   0.098
14546SOL    HW245536   5.593   3.709  14.868
14547SOL     OW45537   7.994   4.068  11.350
14547SOL    HW145538   7.985   3.990  11.405
14547SOL    HW245539   7.905   4.087  11.320
14548SOL     OW45540   3.981  13.318   7.764
14548SOL    HW145541   3.940  13.339   7.681
14548SOL    HW245542   4.073  13.342   7.752
14549SOL     OW45543   2.880   5.621  13.935
14549SOL    HW145544   2.876   5.603  13.841
14549SOL    HW245545   2.891   5.716  13.941
14550SOL     OW45546   5.682  13.685  10.986
14550SOL    HW145547   5.644  13.625  10.923
14550SOL    HW245548   5.728  13.750  10.932
14551SOL     OW45549   2.725  14.821   3.889
14551SOL    HW145550   2.728  14.735   3.848
14551SOL    HW245551   2.815  14.838   3.917
14552SOL     OW45552   7.568   3.124   9.390
14552SOL    HW145553   7.507   3.193   9.418
14552SOL    HW245554   7.648   3.171   9.366
14553SOL     OW45555   4.176   5.105   8.800
14553SOL    HW145556   4.155   5.013   8.815
14553SOL    HW245557   4.262   5.104   8.758
14554SOL     OW45558   9.864   6.129   3.893
14554SOL    HW145559   9.915   6.170   3.963
14554SOL    HW245560   9.860   6.195   3.824
14555SOL     OW45561  13.256   6.593  11.384
14555SOL    HW145562  13.162   6.613  11.389
14555SOL    HW245563  13.298   6.677  11.371
14556SOL     OW45564  12.476  11.560   7.346
14556SOL    HW145565  12.392  11.579   7.387
14556SOL    HW245566  12.475  11.610   7.264
14557SOL     OW45567   3.803   5.028   6.575
14557SOL    HW145568   3.854   4.955   6.539
14557SOL    HW245569   3.725   5.032   6.521
14558SOL     OW45570   2.526   3.218  10.786
14558SOL    HW145571   2.603   3.274  10.773
14558SOL    HW245572   2.561   3.129  10.791
14559SOL     OW45573   3.008  13.707   2.635
14559SOL    HW145574   2.961  13.625   2.625
14559SOL    HW245575   3.067  13.710   2.559
14560SOL     OW45576   0.041   0.389   9.712
14560SOL    HW145577  14.833   0.333   9.704
14560SOL    HW245578   0.092   0.370   9.633
14561SOL     OW45579   7.992   1.002   6.791
14561SOL    HW145580   8.028   1.032   6.875
14561SOL    HW245581   7.923   1.066   6.771
14562SOL     OW45582   2.390   9.220   9.432
14562SOL    HW145583   2.375   9.148   9.493
14562SOL    HW245584   2.362   9.298   9.479
14563SOL     OW45585  10.298  10.852   9.062
14563SOL    HW145586  10.258  10.826   9.145
14563SOL    HW245587  10.300  10.948   9.066
14564SOL     OW45588  11.674  13.237  10.088
14564SOL    HW145589  11.728  13.175  10.137
14564SOL    HW245590  11.613  13.181  10.038
14565SOL     OW45591   0.155   9.190   3.632
14565SOL    HW145592   0.066   9.165   3.658
14565SOL    HW245593   0.160   9.169   3.539
14566SOL     OW45594  10.544   3.749   8.556
14566SOL    HW145595  10.555   3.780   8.466
14566SOL    HW245596  10.464   3.791   8.586
14567SOL     OW45597   9.447  10.347  10.491
14567SOL    HW145598   9.423  10.255  10.499
14567SOL    HW245599   9.460  10.361  10.397
14568SOL     OW45600   1.382   3.080   7.387
14568SOL    HW145601   1.447   3.017   7.357
14568SOL    HW245602   1.382   3.071   7.483
14569SOL     OW45603  13.235  12.622   2.161
14569SOL    HW145604  13.273  12.611   2.248
14569SOL    HW245605  13.153  12.572   2.163
14570SOL     OW45606  13.731   9.818   5.563
14570SOL    HW145607  13.724   9.891   5.624
14570SOL    HW245608  13.774   9.856   5.486
14571SOL     OW45609   3.603   7.161   9.301
14571SOL    HW145610   3.580   7.073   9.330
14571SOL    HW245611   3.565   7.167   9.213
14572SOL     OW45612   9.803   8.856  11.127
14572SOL    HW145613   9.837   8.767  11.137
14572SOL    HW245614   9.831   8.902  11.206
14573SOL     OW45615   1.967  11.807   1.863
14573SOL    HW145616   1.918  11.729   1.834
14573SOL    HW245617   1.916  11.881   1.830
14574SOL     OW45618   6.764   7.615   1.048
14574SOL    HW145619   6.811   7.691   1.012
14574SOL    HW245620   6.828   7.574   1.107
14575SOL     OW45621  11.134   3.481   7.218
14575SOL    HW145622  11.164   3.442   7.135
14575SOL    HW245623  11.125   3.575   7.198
14576SOL     OW45624   2.995   3.063   1.707
14576SOL    HW145625   3.059   2.994   1.688
14576SOL    HW245626   2.929   3.021   1.762
14577SOL     OW45627   6.729   5.444   7.762
14577SOL    HW145628   6.670   5.377   7.794
14577SOL    HW245629   6.686   5.527   7.784
14578SOL     OW45630  11.059  14.147   3.959
14578SOL    HW145631  10.987  14.137   4.021
14578SOL    HW245632  11.113  14.216   3.997
14579SOL     OW45633  11.228   4.231   7.866
14579SOL    HW145634  11.153   4.283   7.897
14579SOL    HW245635  11.305   4.281   7.892
14580SOL     OW45636   5.091   8.872   3.500
14580SOL    HW145637   5.087   8.821   3.581
14580SOL    HW245638   5.126   8.957   3.526
14581SOL     OW45639   5.891   3.062   2.080
14581SOL    HW145640   5.970   3.062   2.135
14581SOL    HW245641   5.916   3.017   2.000
14582SOL     OW45642   8.118   3.445  10.931
14582SOL    HW145643   8.083   3.363  10.965
14582SOL    HW245644   8.193   3.465  10.988
14583SOL     OW45645  11.501   6.585   7.394
14583SOL    HW145646  11.546   6.503   7.414
14583SOL    HW245647  11.549   6.652   7.442
14584SOL     OW45648   9.266  14.751  12.423
14584SOL    HW145649   9.200  14.693  12.460
14584SOL    HW245650   9.217  14.818  12.376
14585SOL     OW45651   5.994   4.431  11.578
14585SOL    HW145652   6.049   4.471  11.510
14585SOL    HW245653   5.991   4.338  11.555
14586SOL     OW45654  11.975  10.854   9.080
14586SOL    HW145655  12.013  10.791   9.019
14586SOL    HW245656  12.033  10.931   9.075
14587SOL     OW45657   3.687  10.153   5.408
14587SOL    HW145658   3.646  10.071   5.380
14587SOL    HW245659   3.773  10.152   5.365
14588SOL     OW45660   5.275  11.927  11.811
14588SOL    HW145661   5.303  11.976  11.735
14588SOL    HW245662   5.355  11.884  11.843
14589SOL     OW45663   2.199  11.365  14.602
14589SOL    HW145664   2.286  11.377  14.639
14589SOL    HW245665   2.151  11.317  14.669
14590SOL     OW45666  11.669   0.301   6.856
14590SOL    HW145667  11.601   0.236   6.840
14590SOL    HW245668  11.680   0.344   6.771
14591SOL     OW45669  12.125  13.507   4.985
14591SOL    HW145670  12.031  13.503   4.969
14591SOL    HW245671  12.160  13.562   4.915
14592SOL     OW45672  10.885   6.727  14.852
14592SOL    HW145673  10.938   6.739   0.061
14592SOL    HW245674  10.828   6.803  14.848
14593SOL     OW45675   6.206  11.914  11.641
14593SOL    HW145676   6.178  11.846  11.580
14593SOL    HW245677   6.277  11.874  11.691
14594SOL     OW45678  11.603   3.798  11.875
14594SOL    HW145679  11.520   3.775  11.919
14594SOL    HW245680  11.576   3.837  11.792
14595SOL     OW45681   9.077   9.860   8.047
14595SOL    HW145682   9.129   9.793   8.092
14595SOL    HW245683   9.136   9.935   8.041
14596SOL     OW45684  14.004  10.847   2.925
14596SOL    HW145685  14.000  10.927   2.977
14596SOL    HW245686  13.916  10.838   2.888
14597SOL     OW45687   0.657   3.428   1.488
14597SOL    HW145688   0.643   3.339   1.453
14597SOL    HW245689   0.585   3.440   1.550
14598SOL     OW45690   9.769   3.138   9.412
14598SOL    HW145691   9.747   3.053   9.449
14598SOL    HW245692   9.708   3.150   9.339
14599SOL     OW45693  14.674  11.537   8.519
14599SOL    HW145694  14.667  11.533   8.423
14599SOL    HW245695  14.746  11.599   8.534
14600SOL     OW45696   7.625   7.423   6.379
14600SOL    HW145697   7.718   7.440   6.368
14600SOL    HW245698   7.582   7.483   6.319
14601SOL     OW45699   2.738   2.452  10.645
14601SOL    HW145700   2.795   2.449  10.568
14601SOL    HW245701   2.694   2.368  10.646
14602SOL     OW45702   4.308  11.987   8.011
14602SOL    HW145703   4.328  12.074   8.044
14602SOL    HW245704   4.294  11.934   8.090
14603SOL     OW45705  12.579  14.735   9.638
14603SOL    HW145706  12.505  14.777   9.593
14603SOL    HW245707  12.560  14.746   9.731
14604SOL     OW45708   5.887  12.142   2.768
14604SOL    HW145709   5.856  12.121   2.680
14604SOL    HW245710   5.820  12.202   2.803
14605SOL     OW45711   0.286   4.756  14.417
14605SOL    HW145712   0.295   4.847  14.445
14605SOL    HW245713   0.191   4.740  14.417
14606SOL     OW45714  11.440   5.043  14.812
14606SOL    HW145715  11.355   5.052  14.769
14606SOL    HW245716  11.460   5.131  14.843
14607SOL     OW45717   5.299   8.649   7.402
14607SOL    HW145718   5.286   8.633   7.496
14607SOL    HW245719   5.215   8.682   7.372
14608SOL     OW45720   6.151   1.610  13.009
14608SOL    HW145721   6.245   1.602  12.994
14608SOL    HW245722   6.140   1.589  13.102
14609SOL     OW45723   7.907   3.603   0.071
14609SOL    HW145724   7.870   3.683   0.108
14609SOL    HW245725   7.983   3.584   0.127
14610SOL     OW45726   8.189  14.388  12.602
14610SOL    HW145727   8.268  14.441  12.614
14610SOL    HW245728   8.210  14.331  12.528
14611SOL     OW45729   1.955   0.864   2.224
14611SOL    HW145730   2.044   0.876   2.255
14611SOL    HW245731   1.906   0.937   2.263
14612SOL     OW45732   3.937  14.559   9.814
14612SOL    HW145733   3.873  14.561   9.885
14612SOL    HW245734   3.903  14.493   9.753
14613SOL     OW45735   6.099   2.918   1.108
14613SOL    HW145736   6.171   2.979   1.092
14613SOL    HW245737   6.027   2.951   1.055
14614SOL     OW45738   3.845  10.467   6.546
14614SOL    HW145739   3.844  10.554   6.587
14614SOL    HW245740   3.881  10.409   6.614
14615SOL     OW45741  11.500   4.933   0.691
14615SOL    HW145742  11.586   4.901   0.665
14615SOL    HW245743  11.462   4.971   0.612
14616SOL     OW45744   9.257  12.132  10.384
14616SOL    HW145745   9.299  12.065  10.437
14616SOL    HW245746   9.325  12.199  10.372
14617SOL     OW45747   8.378   9.622   5.333
14617SOL    HW145748   8.293   9.583   5.354
14617SOL    HW245749   8.441   9.569   5.382
14618SOL     OW45750  13.908   3.884   9.627
14618SOL    HW145751  13.899   3.975   9.655
14618SOL    HW245752  13.953   3.841   9.700
14619SOL     OW45753  14.789   7.149   5.166
14619SOL    HW145754  14.852   7.192   5.224
14619SOL    HW245755  14.706   7.194   5.183
14620SOL     OW45756  10.432   0.023  11.355
14620SOL    HW145757  10.503  14.829  11.347
14620SOL    HW245758  10.353  14.839  11.360
14621SOL     OW45759   8.434  13.691   1.759
14621SOL    HW145760   8.426  13.735   1.843
14621SOL    HW245761   8.401  13.602   1.776
14622SOL     OW45762   9.215   9.532   4.020
14622SOL    HW145763   9.271   9.519   3.943
14622SOL    HW245764   9.129   9.498   3.993
14623SOL     OW45765   1.450   0.340  11.504
14623SOL    HW145766   1.527   0.282  11.504
14623SOL    HW245767   1.476   0.414  11.450
14624SOL     OW45768  13.741   1.589   6.672
14624SOL    HW145769  13.825   1.587   6.625
14624SOL    HW245770  13.759   1.544   6.755
14625SOL     OW45771   4.970   9.566   0.877
14625SOL    HW145772   5.051   9.603   0.840
14625SOL    HW245773   4.942   9.630   0.941
14626SOL     OW45774   9.866  10.059   9.723
14626SOL    HW145775   9.883  10.134   9.781
14626SOL    HW245776   9.776  10.072   9.693
14627SOL     OW45777  10.871   4.221   9.888
14627SOL    HW145778  10.848   4.221   9.981
14627SOL    HW245779  10.966   4.236   9.887
14628SOL     OW45780  14.629   3.553   9.923
14628SOL    HW145781  14.641   3.462   9.896
14628SOL    HW245782  14.619   3.548  10.018
14629SOL     OW45783   1.199   7.906  12.328
14629SOL    HW145784   1.245   7.888  12.410
14629SOL    HW245785   1.150   7.986  12.345
14630SOL     OW45786   3.302   0.525   2.865
14630SOL    HW145787   3.269   0.449   2.817
14630SOL    HW245788   3.325   0.492   2.951
14631SOL     OW45789   2.758   3.779   9.407
14631SOL    HW145790   2.691   3.836   9.368
14631SOL    HW245791   2.711   3.725   9.470
14632SOL     OW45792   1.259   2.714   4.418
14632SOL    HW145793   1.314   2.790   4.437
14632SOL    HW245794   1.192   2.715   4.487
14633SOL     OW45795  10.915   1.051  10.175
14633SOL    HW145796  10.980   1.001  10.225
14633SOL    HW245797  10.955   1.138  10.164
14634SOL     OW45798   5.155  14.113   5.908
14634SOL    HW145799   5.192  14.189   5.863
14634SOL    HW245800   5.211  14.100   5.985
14635SOL     OW45801   2.181   3.949  10.639
14635SOL    HW145802   2.151   3.871  10.686
14635SOL    HW245803   2.266   3.968  10.677
14636SOL     OW45804  14.605  13.641   4.175
14636SOL    HW145805  14.668  13.569   4.168
14636SOL    HW245806  14.612  13.688   4.092
14637SOL     OW45807   1.957  12.787  12.408
14637SOL    HW145808   1.954  12.852  12.338
14637SOL    HW245809   1.933  12.835  12.487
14638SOL     OW45810   8.525   2.011   6.613
14638SOL    HW145811   8.579   1.972   6.682
14638SOL    HW245812   8.510   2.101   6.642
14639SOL     OW45813   5.277   2.146   8.655
14639SOL    HW145814   5.195   2.147   8.705
14639SOL    HW245815   5.274   2.227   8.604
14640SOL     OW45816   5.857  10.611   2.485
14640SOL    HW145817   5.925  10.568   2.432
14640SOL    HW245818   5.898  10.691   2.517
14641SOL     OW45819  11.951  11.719   6.964
14641SOL    HW145820  11.930  11.724   6.870
14641SOL    HW245821  12.016  11.788   6.977
14642SOL     OW45822   4.032  10.400  11.358
14642SOL    HW145823   4.054  10.378  11.449
14642SOL    HW245824   4.105  10.455  11.329
14643SOL     OW45825   8.028  13.258   9.028
14643SOL    HW145826   8.010  13.235   9.119
14643SOL    HW245827   7.953  13.310   9.001
14644SOL     OW45828  13.659   4.607   6.775
14644SOL    HW145829  13.579   4.649   6.742
14644SOL    HW245830  13.727   4.673   6.763
14645SOL     OW45831  11.338   2.926  13.960
14645SOL    HW145832  11.263   2.940  13.902
14645SOL    HW245833  11.321   2.983  14.035
14646SOL     OW45834  14.713   0.546   2.262
14646SOL    HW145835  14.753   0.517   2.180
14646SOL    HW245836  14.619   0.533   2.249
14647SOL     OW45837  11.032   6.198  10.952
14647SOL    HW145838  11.043   6.205  11.047
14647SOL    HW245839  10.952   6.248  10.934
14648SOL     OW45840   8.381   3.596   0.687
14648SOL    HW145841   8.336   3.646   0.756
14648SOL    HW245842   8.409   3.516   0.730
14649SOL     OW45843   0.663   9.598   2.942
14649SOL    HW145844   0.577   9.624   2.910
14649SOL    HW245845   0.701   9.677   2.980
14650SOL     OW45846   2.070   1.424   7.680
14650SOL    HW145847   2.055   1.449   7.771
14650SOL    HW245848   2.010   1.478   7.629
14651SOL     OW45849   3.815   8.858  10.695
14651SOL    HW145850   3.753   8.792  10.663
14651SOL    HW245851   3.831   8.832  10.786
14652SOL     OW45852  11.352   8.167   4.413
14652SOL    HW145853  11.355   8.168   4.509
14652SOL    HW245854  11.259   8.161   4.393
14653SOL     OW45855   5.280   6.073   7.276
14653SOL    HW145856   5.279   6.154   7.226
14653SOL    HW245857   5.334   6.093   7.353
14654SOL     OW45858   0.828   7.648  11.607
14654SOL    HW145859   0.917   7.656  11.574
14654SOL    HW245860   0.797   7.564  11.574
14655SOL     OW45861   8.414   3.150   9.018
14655SOL    HW145862   8.343   3.093   9.048
14655SOL    HW245863   8.417   3.135   8.923
14656SOL     OW45864   2.567   3.941  11.914
14656SOL    HW145865   2.521   3.940  11.998
14656SOL    HW245866   2.523   3.874  11.861
14657SOL     OW45867  10.242  10.941  14.502
14657SOL    HW145868  10.285  10.891  14.433
14657SOL    HW245869  10.207  10.875  14.561
14658SOL     OW45870   6.138   3.024   6.531
14658SOL    HW145871   6.048   2.992   6.539
14658SOL    HW245872   6.135   3.113   6.566
14659SOL     OW45873  10.353  10.374   3.785
14659SOL    HW145874  10.426  10.420   3.825
14659SOL    HW245875  10.275  10.415   3.824
14660SOL     OW45876  14.306  14.456  10.988
14660SOL    HW145877  14.244  14.395  10.946
14660SOL    HW245878  14.326  14.416  11.072
14661SOL     OW45879   6.735  13.204   5.693
14661SOL    HW145880   6.662  13.143   5.682
14661SOL    HW245881   6.811  13.148   5.708
14662SOL     OW45882   3.846   9.640   6.492
14662SOL    HW145883   3.896   9.599   6.562
14662SOL    HW245884   3.900   9.714   6.463
14663SOL     OW45885  10.948   2.741   2.091
14663SOL    HW145886  11.038   2.773   2.097
14663SOL    HW245887  10.895   2.820   2.079
14664SOL     OW45888   2.470   0.481  13.771
14664SOL    HW145889   2.398   0.524  13.818
14664SOL    HW245890   2.481   0.533  13.692
14665SOL     OW45891   0.945   0.137   5.526
14665SOL    HW145892   0.926   0.046   5.504
14665SOL    HW245893   0.865   0.184   5.501
14666SOL     OW45894   2.159   9.290   1.259
14666SOL    HW145895   2.249   9.297   1.226
14666SOL    HW245896   2.130   9.381   1.267
14667SOL     OW45897   9.626   3.487  13.124
14667SOL    HW145898   9.720   3.468  13.114
14667SOL    HW245899   9.622   3.545  13.200
14668SOL     OW45900  10.288   4.176   7.532
14668SOL    HW145901  10.230   4.167   7.457
14668SOL    HW245902  10.265   4.104   7.590
14669SOL     OW45903   5.881  14.199  13.334
14669SOL    HW145904   5.842  14.192  13.247
14669SOL    HW245905   5.871  14.112  13.372
14670SOL     OW45906   5.612  11.078  12.395
14670SOL    HW145907   5.621  11.136  12.470
14670SOL    HW245908   5.523  11.094  12.363
14671SOL     OW45909  11.466   9.194   8.998
14671SOL    HW145910  11.471   9.234   8.911
14671SOL    HW245911  11.377   9.160   9.004
14672SOL     OW45912  11.830   5.489   9.105
14672SOL    HW145913  11.915   5.519   9.138
14672SOL    HW245914  11.849   5.406   9.061
14673SOL     OW45915   5.777  14.832  13.136
14673SOL    HW145916   5.802   0.018  13.063
14673SOL    HW245917   5.801   0.012  13.214
14674SOL     OW45918   6.769  13.532   3.681
14674SOL    HW145919   6.732  13.470   3.744
14674SOL    HW245920   6.836  13.482   3.634
14675SOL     OW45921  12.825  12.721   7.660
14675SOL    HW145922  12.826  12.627   7.645
14675SOL    HW245923  12.733  12.746   7.648
14676SOL     OW45924   0.719   5.517   8.268
14676SOL    HW145925   0.689   5.529   8.178
14676SOL    HW245926   0.653   5.460   8.308
14677SOL     OW45927   5.308  11.837   6.425
14677SOL    HW145928   5.216  11.847   6.448
14677SOL    HW245929   5.356  11.861   6.504
14678SOL     OW45930   0.512   9.036  11.350
14678SOL    HW145931   0.428   9.023  11.395
14678SOL    HW245932   0.538   9.125  11.375
14679SOL     OW45933   4.044   8.032   6.808
14679SOL    HW145934   4.037   8.105   6.869
14679SOL    HW245935   4.048   8.074   6.722
14680SOL     OW45936   9.616   6.860   0.248
14680SOL    HW145937   9.560   6.877   0.324
14680SOL    HW245938   9.671   6.786   0.275
14681SOL     OW45939   1.933   5.630  14.678
14681SOL    HW145940   1.933   5.681  14.597
14681SOL    HW245941   2.013   5.657  14.723
14682SOL     OW45942   3.649   3.146   1.380
14682SOL    HW145943   3.721   3.084   1.367
14682SOL    HW245944   3.658   3.210   1.309
14683SOL     OW45945   2.293  12.076   1.087
14683SOL    HW145946   2.377  12.032   1.100
14683SOL    HW245947   2.300  12.116   1.000
14684SOL     OW45948   4.524   8.094  14.282
14684SOL    HW145949   4.445   8.079  14.230
14684SOL    HW245950   4.525   8.022  14.345
14685SOL     OW45951   8.746   0.272  14.075
14685SOL    HW145952   8.768   0.337  14.142
14685SOL    HW245953   8.701   0.322  14.007
14686SOL     OW45954  13.427   0.618   6.853
14686SOL    HW145955  13.338   0.635   6.881
14686SOL    HW245956  13.418   0.564   6.774
14687SOL     OW45957   2.311   2.815  10.929
14687SOL    HW145958   2.335   2.896  10.884
14687SOL    HW245959   2.353   2.823  11.015
14688SOL     OW45960   6.861   8.692   3.496
14688SOL    HW145961   6.909   8.716   3.575
14688SOL    HW245962   6.798   8.625   3.525
14689SOL     OW45963  14.576  14.437  14.338
14689SOL    HW145964  14.632  14.478  14.404
14689SOL    HW245965  14.607  14.473  14.255
14690SOL     OW45966  13.803   9.137   2.945
14690SOL    HW145967  13.816   9.047   2.914
14690SOL    HW245968  13.775   9.185   2.867
14691SOL     OW45969   0.622   7.160   2.630
14691SOL    HW145970   0.714   7.179   2.612
14691SOL    HW245971   0.578   7.176   2.546
14692SOL     OW45972   7.991   7.983   5.234
14692SOL    HW145973   7.899   7.988   5.209
14692SOL    HW245974   8.039   8.002   5.153
14693SOL     OW45975   3.051   0.320   0.484
14693SOL    HW145976   3.140   0.311   0.449
14693SOL    HW245977   2.999   0.259   0.431
14694SOL     OW45978   1.345   8.725   1.772
14694SOL    HW145979   1.357   8.797   1.710
14694SOL    HW245980   1.345   8.767   1.858
14695SOL     OW45981  14.468  12.550   4.433
14695SOL    HW145982  14.523  12.532   4.357
14695SOL    HW245983  14.399  12.484   4.429
14696SOL     OW45984  13.565  11.581  14.558
14696SOL    HW145985  13.550  11.670  14.592
14696SOL    HW245986  13.496  11.568  14.493
14697SOL     OW45987  14.692   0.257   2.119
14697SOL    HW145988  14.634   0.269   2.044
14697SOL    HW245989  14.780   0.261   2.082
14698SOL     OW45990  14.474   9.253   4.398
14698SOL    HW145991  14.426   9.288   4.324
14698SOL    HW245992  14.504   9.166   4.370
14699SOL     OW45993   5.417  13.783   7.981
14699SOL    HW145994   5.375  13.832   7.911
14699SOL    HW245995   5.490  13.738   7.939
14700SOL     OW45996   2.425   5.223  11.853
14700SOL    HW145997   2.417   5.213  11.758
14700SOL    HW245998   2.363   5.292  11.875
14701SOL     OW45999  13.880   9.065  12.113
14701SOL    HW146000  13.832   8.984  12.125
14701SOL    HW246001  13.944   9.046  12.044
14702SOL     OW46002  12.451   3.012   9.202
14702SOL    HW146003  12.470   3.105   9.202
14702SOL    HW246004  12.477   2.982   9.289
14703SOL     OW46005   2.844  13.938   4.645
14703SOL    HW146006   2.797  14.006   4.693
14703SOL    HW246007   2.922  13.982   4.612
14704SOL     OW46008   8.124  12.039  10.313
14704SOL    HW146009   8.197  12.047  10.373
14704SOL    HW246010   8.087  12.128  10.308
14705SOL     OW46011   1.133   2.004   7.483
14705SOL    HW146012   1.216   1.964   7.460
14705SOL    HW246013   1.118   2.069   7.414
14706SOL     OW46014   6.821   1.304   8.388
14706SOL    HW146015   6.810   1.323   8.481
14706SOL    HW246016   6.899   1.249   8.384
14707SOL     OW46017  13.581   0.012   5.055
14707SOL    HW146018  13.647   0.005   4.986
14707SOL    HW246019  13.501  14.847   5.016
14708SOL     OW46020   6.312   4.094   6.362
14708SOL    HW146021   6.395   4.075   6.407
14708SOL    HW246022   6.338   4.143   6.284
14709SOL     OW46023   5.866   5.155   0.554
14709SOL    HW146024   5.934   5.159   0.621
14709SOL    HW246025   5.899   5.091   0.490
14710SOL     OW46026   6.651   8.177   2.410
14710SOL    HW146027   6.658   8.220   2.495
14710SOL    HW246028   6.565   8.202   2.377
14711SOL     OW46029  10.769   8.615  11.374
14711SOL    HW146030  10.784   8.636  11.466
14711SOL    HW246031  10.761   8.520  11.372
14712SOL     OW46032  14.684   5.736  12.749
14712SOL    HW146033  14.776   5.762  12.741
14712SOL    HW246034  14.654   5.780  12.828
14713SOL     OW46035  14.623   6.606   7.468
14713SOL    HW146036  14.591   6.586   7.380
14713SOL    HW246037  14.718   6.602   7.460
14714SOL     OW46038  12.491   4.440  12.304
14714SOL    HW146039  12.561   4.387  12.268
14714SOL    HW246040  12.533   4.524  12.324
14715SOL     OW46041   9.502  13.688   5.572
14715SOL    HW146042   9.560  13.756   5.537
14715SOL    HW246043   9.545  13.660   5.653
14716SOL     OW46044   5.322   8.731   1.191
14716SOL    HW146045   5.253   8.796   1.176
14716SOL    HW246046   5.354   8.709   1.103
14717SOL     OW46047   3.458  12.316   5.778
14717SOL    HW146048   3.502  12.251   5.832
14717SOL    HW246049   3.508  12.318   5.696
14718SOL     OW46050   8.945  11.322   2.520
14718SOL    HW146051   8.992  11.327   2.603
14718SOL    HW246052   9.011  11.342   2.453
14719SOL     OW46053   3.440   5.135  13.558
14719SOL    HW146054   3.381   5.202  13.524
14719SOL    HW246055   3.507   5.126  13.490
14720SOL     OW46056   7.352   2.212   5.823
14720SOL    HW146057   7.266   2.248   5.842
14720SOL    HW246058   7.381   2.259   5.745
14721SOL     OW46059  13.869  14.261   7.740
14721SOL    HW146060  13.953  14.302   7.721
14721SOL    HW246061  13.813  14.333   7.766
14722SOL     OW46062  14.033   6.274  14.333
14722SOL    HW146063  14.008   6.198  14.282
14722SOL    HW246064  14.072   6.238  14.413
14723SOL     OW46065   0.082   8.758   0.549
14723SOL    HW146066   0.151   8.824   0.539
14723SOL    HW246067   0.127   8.680   0.582
14724SOL     OW46068   5.735   1.292   1.392
14724SOL    HW146069   5.770   1.310   1.479
14724SOL    HW246070   5.752   1.198   1.378
14725SOL     OW46071  11.520  12.373   5.772
14725SOL    HW146072  11.588  12.368   5.705
14725SOL    HW246073  11.440  12.396   5.724
14726SOL     OW46074  11.029  11.727   1.324
14726SOL    HW146075  11.082  11.740   1.245
14726SOL    HW246076  11.073  11.780   1.391
14727SOL     OW46077   1.289   3.612   0.146
14727SOL    HW146078   1.342   3.688   0.171
14727SOL    HW246079   1.202   3.630   0.181
14728SOL     OW46080   0.532   6.453  12.567
14728SOL    HW146081   0.569   6.535  12.600
14728SOL    HW246082   0.461   6.480  12.509
14729SOL     OW46083   9.083   9.389   1.419
14729SOL    HW146084   9.083   9.293   1.423
14729SOL    HW246085   9.141   9.416   1.491
14730SOL     OW46086  12.180   8.283  14.090
14730SOL    HW146087  12.126   8.350  14.050
14730SOL    HW246088  12.123   8.207  14.098
14731SOL     OW46089   1.114  13.305   9.942
14731SOL    HW146090   1.189  13.287   9.885
14731SOL    HW246091   1.039  13.271   9.893
14732SOL     OW46092  12.908   2.475   3.235
14732SOL    HW146093  12.920   2.569   3.252
14732SOL    HW246094  12.920   2.466   3.141
14733SOL     OW46095   1.555  10.964   1.444
14733SOL    HW146096   1.578  10.874   1.464
14733SOL    HW246097   1.633  11.014   1.466
14734SOL     OW46098   5.719   7.952   9.841
14734SOL    HW146099   5.648   8.003   9.881
14734SOL    HW246100   5.727   7.989   9.753
14735SOL     OW46101   6.512   4.278  10.989
14735SOL    HW146102   6.607   4.289  10.991
14735SOL    HW246103   6.477   4.367  10.981
14736SOL     OW46104  12.397   1.076   3.975
14736SOL    HW146105  12.488   1.102   3.986
14736SOL    HW246106  12.398   0.981   3.982
14737SOL     OW46107   9.953  12.175  14.824
14737SOL    HW146108   9.880  12.114  14.837
14737SOL    HW246109   9.913  12.261  14.827
14738SOL     OW46110   9.972  12.614   8.202
14738SOL    HW146111  10.054  12.629   8.248
14738SOL    HW246112   9.926  12.698   8.206
14739SOL     OW46113  10.755  13.503  11.764
14739SOL    HW146114  10.720  13.430  11.714
14739SOL    HW246115  10.718  13.493  11.852
14740SOL     OW46116  11.715   3.574  11.775
14740SOL    HW146117  11.725   3.490  11.820
14740SOL    HW246118  11.641   3.616  11.817
14741SOL     OW46119  13.872   4.506  14.826
14741SOL    HW146120  13.862   4.589   0.003
14741SOL    HW246121  13.788   4.493  14.783
14742SOL     OW46122  14.592  13.057   5.064
14742SOL    HW146123  14.506  13.015   5.061
14742SOL    HW246124  14.579  13.138   5.113
14743SOL     OW46125  14.081   7.752   1.970
14743SOL    HW146126  14.005   7.744   2.028
14743SOL    HW246127  14.060   7.698   1.894
14744SOL     OW46128   4.309  12.164  11.194
14744SOL    HW146129   4.390  12.135  11.153
14744SOL    HW246130   4.269  12.084  11.227
14745SOL     OW46131  12.099   2.015  10.167
14745SOL    HW146132  12.005   2.029  10.170
14745SOL    HW246133  12.119   1.967  10.248
14746SOL     OW46134   2.385   4.179   1.397
14746SOL    HW146135   2.398   4.269   1.368
14746SOL    HW246136   2.467   4.156   1.441
14747SOL     OW46137  11.828   8.606   4.716
14747SOL    HW146138  11.790   8.519   4.730
14747SOL    HW246139  11.825   8.618   4.621
14748SOL     OW46140  13.280   1.328   8.846
14748SOL    HW146141  13.375   1.330   8.860
14748SOL    HW246142  13.265   1.394   8.778
14749SOL     OW46143   2.707  13.661   4.107
14749SOL    HW146144   2.686  13.587   4.164
14749SOL    HW246145   2.796  13.644   4.076
14750SOL     OW46146   7.985   7.998   6.475
14750SOL    HW146147   7.981   8.069   6.411
14750SOL    HW246148   8.026   7.926   6.428
14751SOL     OW46149   2.060  12.886   5.633
14751SOL    HW146150   1.977  12.873   5.587
14751SOL    HW246151   2.115  12.935   5.572
14752SOL     OW46152   2.839   9.242   6.396
14752SOL    HW146153   2.914   9.296   6.421
14752SOL    HW246154   2.848   9.232   6.301
14753SOL     OW46155   0.569  11.527  12.715
14753SOL    HW146156   0.659  11.496  12.707
14753SOL    HW246157   0.519  11.450  12.743
14754SOL     OW46158   1.607   4.977  12.762
14754SOL    HW146159   1.634   4.983  12.670
14754SOL    HW246160   1.677   4.928  12.804
14755SOL     OW46161   4.128   3.396   8.338
14755SOL    HW146162   4.038   3.379   8.309
14755SOL    HW246163   4.161   3.311   8.364
14756SOL     OW46164   6.021  10.073   6.906
14756SOL    HW146165   6.061  10.015   6.971
14756SOL    HW246166   5.930  10.081   6.936
14757SOL     OW46167   0.295   6.903   2.619
14757SOL    HW146168   0.370   6.895   2.560
14757SOL    HW246169   0.317   6.845   2.692
14758SOL     OW46170   4.652   4.111   0.521
14758SOL    HW146171   4.610   4.172   0.460
14758SOL    HW246172   4.580   4.058   0.556
14759SOL     OW46173   2.863  13.069   2.304
14759SOL    HW146174   2.937  13.128   2.289
14759SOL    HW246175   2.787  13.127   2.306
14760SOL     OW46176  10.838   2.909   6.534
14760SOL    HW146177  10.791   2.991   6.528
14760SOL    HW246178  10.911   2.919   6.473
14761SOL     OW46179   4.639   0.309  11.960
14761SOL    HW146180   4.686   0.368  11.901
14761SOL    HW246181   4.592   0.249  11.902
14762SOL     OW46182  13.922   9.937   1.121
14762SOL    HW146183  14.012   9.909   1.105
14762SOL    HW246184  13.914   9.936   1.216
14763SOL     OW46185   0.163   0.052   7.631
14763SOL    HW146186   0.095   0.118   7.635
14763SOL    HW246187   0.208   0.059   7.715
14764SOL     OW46188   3.344  13.515   6.121
14764SOL    HW146189   3.251  13.529   6.140
14764SOL    HW246190   3.347  13.428   6.080
14765SOL     OW46191  10.722   6.269  10.453
14765SOL    HW146192  10.817   6.263  10.447
14765SOL    HW246193  10.691   6.183  10.425
14766SOL     OW46194  14.646  14.832   6.478
14766SOL    HW146195  14.672   0.033   6.537
14766SOL    HW246196  14.728  14.796   6.445
14767SOL     OW46197  10.110   3.867   4.663
14767SOL    HW146198  10.099   3.777   4.693
14767SOL    HW246199  10.158   3.910   4.733
14768SOL     OW46200   6.235   1.178  10.025
14768SOL    HW146201   6.276   1.264  10.014
14768SOL    HW246202   6.163   1.193  10.086
14769SOL     OW46203   5.914  11.646   9.918
14769SOL    HW146204   5.909  11.645  10.014
14769SOL    HW246205   5.865  11.723   9.892
14770SOL     OW46206  13.738   2.489   0.253
14770SOL    HW146207  13.658   2.517   0.298
14770SOL    HW246208  13.785   2.438   0.318
14771SOL     OW46209  14.508  13.167   1.838
14771SOL    HW146210  14.513  13.124   1.924
14771SOL    HW246211  14.466  13.251   1.856
14772SOL     OW46212   0.243  11.787   0.381
14772SOL    HW146213   0.327  11.818   0.347
14772SOL    HW246214   0.238  11.822   0.470
14773SOL     OW46215   1.009   4.227   5.114
14773SOL    HW146216   1.076   4.246   5.049
14773SOL    HW246217   0.937   4.188   5.064
14774SOL     OW46218   6.953   8.374   8.482
14774SOL    HW146219   6.862   8.344   8.478
14774SOL    HW246220   6.948   8.468   8.464
14775SOL     OW46221   2.120  11.791   6.026
14775SOL    HW146222   2.040  11.818   5.981
14775SOL    HW246223   2.096  11.786   6.119
14776SOL     OW46224   4.357   4.192   0.821
14776SOL    HW146225   4.320   4.112   0.786
14776SOL    HW246226   4.308   4.262   0.779
14777SOL     OW46227  12.203   0.466   1.009
14777SOL    HW146228  12.203   0.407   1.084
14777SOL    HW246229  12.134   0.432   0.951
14778SOL     OW46230   0.677   8.836   9.112
14778SOL    HW146231   0.760   8.883   9.101
14778SOL    HW246232   0.636   8.840   9.026
14779SOL     OW46233  11.182  12.226   3.017
14779SOL    HW146234  11.149  12.151   3.066
14779SOL    HW246235  11.266  12.247   3.058
14780SOL     OW46236   7.910   6.881  12.711
14780SOL    HW146237   7.816   6.887  12.698
14780SOL    HW246238   7.946   6.867  12.624
14781SOL     OW46239   7.221   4.578  12.621
14781SOL    HW146240   7.227   4.555  12.714
14781SOL    HW246241   7.306   4.553  12.585
14782SOL     OW46242   7.083  10.146  10.744
14782SOL    HW146243   7.060  10.238  10.731
14782SOL    HW246244   7.001  10.099  10.728
14783SOL     OW46245   9.050  12.167   8.285
14783SOL    HW146246   9.000  12.177   8.366
14783SOL    HW246247   8.990  12.124   8.224
14784SOL     OW46248   0.700   1.196   0.949
14784SOL    HW146249   0.691   1.286   0.918
14784SOL    HW246250   0.758   1.153   0.886
14785SOL     OW46251   4.395  10.696   2.946
14785SOL    HW146252   4.334  10.628   2.919
14785SOL    HW246253   4.474  10.681   2.894
14786SOL     OW46254   4.772  14.116  10.520
14786SOL    HW146255   4.698  14.082  10.570
14786SOL    HW246256   4.761  14.211  10.522
14787SOL     OW46257   1.044   9.863   5.978
14787SOL    HW146258   0.954   9.894   5.965
14787SOL    HW246259   1.048   9.780   5.932
14788SOL     OW46260   7.991  13.054  13.696
14788SOL    HW146261   8.060  13.049  13.762
14788SOL    HW246262   8.020  13.124  13.636
14789SOL     OW46263   4.718   7.712   5.497
14789SOL    HW146264   4.752   7.629   5.529
14789SOL    HW246265   4.750   7.718   5.407
14790SOL     OW46266  10.705   8.065  13.009
14790SOL    HW146267  10.677   8.070  13.101
14790SOL    HW246268  10.650   7.996  12.972
14791SOL     OW46269  12.351   5.860  13.527
14791SOL    HW146270  12.355   5.794  13.458
14791SOL    HW246271  12.423   5.838  13.586
14792SOL     OW46272   1.051   3.832   9.729
14792SOL    HW146273   0.971   3.784   9.708
14792SOL    HW246274   1.022   3.921   9.749
14793SOL     OW46275   9.286  14.327   6.651
14793SOL    HW146276   9.341  14.267   6.702
14793SOL    HW246277   9.215  14.351   6.711
14794SOL     OW46278  11.933   1.855   1.811
14794SOL    HW146279  11.890   1.817   1.734
14794SOL    HW246280  11.933   1.785   1.876
14795SOL     OW46281  11.376   2.885  13.553
14795SOL    HW146282  11.421   2.957  13.596
14795SOL    HW246283  11.441   2.815  13.548
14796SOL     OW46284   3.166  11.453   9.104
14796SOL    HW146285   3.146  11.364   9.076
14796SOL    HW246286   3.106  11.509   9.055
14797SOL     OW46287  12.618   9.312  14.619
14797SOL    HW146288  12.596   9.398  14.654
14797SOL    HW246289  12.673   9.330  14.543
14798SOL     OW46290   0.215   5.060   3.772
14798SOL    HW146291   0.285   5.025   3.716
14798SOL    HW246292   0.246   5.148   3.796
14799SOL     OW46293   4.754   8.076   3.033
14799SOL    HW146294   4.795   8.134   2.968
14799SOL    HW246295   4.811   7.999   3.035
14800SOL     OW46296  14.555  13.015   5.824
14800SOL    HW146297  14.628  13.003   5.885
14800SOL    HW246298  14.585  12.975   5.743
14801SOL     OW46299   4.276   6.811   8.269
14801SOL    HW146300   4.204   6.760   8.307
14801SOL    HW246301   4.269   6.796   8.175
14802SOL     OW46302   0.011   1.201   6.850
14802SOL    HW146303  14.812   1.171   6.910
14802SOL    HW246304  14.837   1.264   6.793
14803SOL     OW46305  12.275   0.851  10.944
14803SOL    HW146306  12.260   0.927  10.888
14803SOL    HW246307  12.188   0.829  10.979
14804SOL     OW46308   7.183  11.319   9.050
14804SOL    HW146309   7.261  11.267   9.070
14804SOL    HW246310   7.112  11.272   9.092
14805SOL     OW46311   4.251   9.445   6.325
14805SOL    HW146312   4.186   9.492   6.273
14805SOL    HW246313   4.331   9.450   6.273
14806SOL     OW46314   7.833   0.616   1.737
14806SOL    HW146315   7.917   0.606   1.691
14806SOL    HW246316   7.771   0.639   1.668
14807SOL     OW46317  13.258   2.777   9.618
14807SOL    HW146318  13.162   2.774   9.618
14807SOL    HW246319  13.280   2.852   9.672
14808SOL     OW46320  14.697   7.131  12.438
14808SOL    HW146321  14.674   7.039  12.451
14808SOL    HW246322  14.662   7.176  12.516
14809SOL     OW46323   7.211   6.201   7.778
14809SOL    HW146324   7.177   6.246   7.700
14809SOL    HW246325   7.235   6.114   7.746
14810SOL     OW46326   5.043   8.440  10.475
14810SOL    HW146327   5.098   8.439  10.553
14810SOL    HW246328   4.953   8.433  10.509
14811SOL     OW46329   8.096   5.881   8.828
14811SOL    HW146330   8.173   5.933   8.805
14811SOL    HW246331   8.025   5.917   8.774
14812SOL     OW46332  14.026   4.683   8.465
14812SOL    HW146333  14.110   4.647   8.436
14812SOL    HW246334  14.043   4.775   8.480
14813SOL     OW46335  13.465   5.231  12.697
14813SOL    HW146336  13.487   5.287  12.771
14813SOL    HW246337  13.400   5.170  12.732
14814SOL     OW46338  13.218  13.412  12.683
14814SOL    HW146339  13.125  13.419  12.663
14814SOL    HW246340  13.257  13.488  12.639
14815SOL     OW46341   3.409  10.992  11.345
14815SOL    HW146342   3.327  11.039  11.358
14815SOL    HW246343   3.398  10.945  11.262
14816SOL     OW46344  10.370   2.598  11.900
14816SOL    HW146345  10.318   2.602  11.819
14816SOL    HW246346  10.434   2.529  11.884
14817SOL     OW46347   8.886   4.417   4.354
14817SOL    HW146348   8.833   4.455   4.424
14817SOL    HW246349   8.832   4.424   4.276
14818SOL     OW46350   5.819  14.236  14.692
14818SOL    HW146351   5.802  14.325  14.661
14818SOL    HW246352   5.737  14.189  14.677
14819SOL     OW46353  12.085   3.877   1.758
14819SOL    HW146354  12.148   3.806   1.746
14819SOL    HW246355  12.018   3.860   1.691
14820SOL     OW46356  12.561   2.077   4.621
14820SOL    HW146357  12.514   2.012   4.569
14820SOL    HW246358  12.626   2.027   4.670
14821SOL     OW46359   7.704   2.032   3.732
14821SOL    HW146360   7.663   2.067   3.652
14821SOL    HW246361   7.684   1.939   3.730
14822SOL     OW46362   6.347   2.425   3.528
14822SOL    HW146363   6.424   2.440   3.474
14822SOL    HW246364   6.287   2.495   3.504
14823SOL     OW46365   0.406   6.730   3.866
14823SOL    HW146366   0.452   6.714   3.784
14823SOL    HW246367   0.342   6.659   3.871
14824SOL     OW46368   9.462   1.855   6.819
14824SOL    HW146369   9.445   1.948   6.832
14824SOL    HW246370   9.476   1.847   6.724
14825SOL     OW46371  14.215  12.210  14.629
14825SOL    HW146372  14.149  12.275  14.654
14825SOL    HW246373  14.228  12.157  14.709
14826SOL     OW46374   4.704   2.915  12.939
14826SOL    HW146375   4.678   2.992  12.889
14826SOL    HW246376   4.622   2.868  12.955
14827SOL     OW46377  14.803  13.596   1.826
14827SOL    HW146378  14.845  13.605   1.740
14827SOL    HW246379  14.766  13.508   1.825
14828SOL     OW46380  12.537   6.245   0.771
14828SOL    HW146381  12.491   6.268   0.690
14828SOL    HW246382  12.539   6.149   0.771
14829SOL     OW46383   9.478   5.317   6.189
14829SOL    HW146384   9.553   5.263   6.165
14829SOL    HW246385   9.439   5.273   6.264
14830SOL     OW46386   1.916  13.515   0.558
14830SOL    HW146387   1.827  13.487   0.581
14830SOL    HW246388   1.928  13.484   0.468
14831SOL     OW46389  11.645  14.584  13.133
14831SOL    HW146390  11.709  14.517  13.108
14831SOL    HW246391  11.560  14.542  13.119
14832SOL     OW46392  14.749   7.486   6.047
14832SOL    HW146393  14.681   7.501   6.112
14832SOL    HW246394  14.705   7.439   5.976
14833SOL     OW46395   0.913  12.034   9.460
14833SOL    HW146396   0.867  11.971   9.404
14833SOL    HW246397   0.921  12.113   9.405
14834SOL     OW46398   6.353   7.982  10.990
14834SOL    HW146399   6.262   7.950  10.988
14834SOL    HW246400   6.393   7.944  10.913
14835SOL     OW46401   3.596   4.744   0.842
14835SOL    HW146402   3.544   4.719   0.765
14835SOL    HW246403   3.593   4.668   0.899
14836SOL     OW46404  10.571   5.521   6.292
14836SOL    HW146405  10.560   5.462   6.218
14836SOL    HW246406  10.661   5.552   6.285
14837SOL     OW46407  10.040   6.485  10.308
14837SOL    HW146408  10.081   6.462  10.225
14837SOL    HW246409  10.034   6.580  10.307
14838SOL     OW46410  10.365  11.260   0.172
14838SOL    HW146411  10.335  11.195   0.236
14838SOL    HW246412  10.398  11.332   0.226
14839SOL     OW46413   2.594   2.717   3.668
14839SOL    HW146414   2.665   2.655   3.653
14839SOL    HW246415   2.636   2.803   3.665
14840SOL     OW46416   4.487  12.095   5.415
14840SOL    HW146417   4.567  12.124   5.458
14840SOL    HW246418   4.450  12.029   5.474
14841SOL     OW46419   6.214  13.651  10.647
14841SOL    HW146420   6.139  13.622  10.699
14841SOL    HW246421   6.186  13.735  10.610
14842SOL     OW46422  11.073   2.459  14.764
14842SOL    HW146423  10.999   2.498  14.811
14842SOL    HW246424  11.103   2.529  14.705
14843SOL     OW46425   4.014   1.199   0.995
14843SOL    HW146426   4.008   1.290   1.023
14843SOL    HW246427   4.108   1.184   0.985
14844SOL     OW46428   1.942  10.478   5.968
14844SOL    HW146429   1.954  10.527   5.887
14844SOL    HW246430   1.941  10.386   5.941
14845SOL     OW46431  12.510   3.683   4.407
14845SOL    HW146432  12.555   3.767   4.420
14845SOL    HW246433  12.426   3.706   4.367
14846SOL     OW46434   4.347  13.964  10.837
14846SOL    HW146435   4.355  13.881  10.884
14846SOL    HW246436   4.253  13.982  10.837
14847SOL     OW46437  13.364   0.340   4.095
14847SOL    HW146438  13.432   0.393   4.054
14847SOL    HW246439  13.333   0.395   4.168
14848SOL     OW46440   8.129   3.150   2.595
14848SOL    HW146441   8.224   3.159   2.602
14848SOL    HW246442   8.106   3.197   2.515
14849SOL     OW46443  12.658   4.524  12.582
14849SOL    HW146444  12.638   4.614  12.607
14849SOL    HW246445  12.725   4.532  12.514
14850SOL     OW46446  10.198   7.663  14.861
14850SOL    HW146447  10.147   7.742  14.846
14850SOL    HW246448  10.267   7.667  14.794
14851SOL     OW46449   4.109   6.339   6.232
14851SOL    HW146450   4.099   6.433   6.214
14851SOL    HW246451   4.042   6.297   6.179
14852SOL     OW46452   4.077   0.251   2.780
14852SOL    HW146453   4.062   0.192   2.707
14852SOL    HW246454   4.026   0.214   2.852
14853SOL     OW46455   2.417  10.647   3.649
14853SOL    HW146456   2.507  10.679   3.654
14853SOL    HW246457   2.374  10.683   3.726
14854SOL     OW46458  11.341   8.713   6.237
14854SOL    HW146459  11.288   8.709   6.158
14854SOL    HW246460  11.280   8.692   6.308
14855SOL     OW46461   0.843  12.768   7.357
14855SOL    HW146462   0.921  12.815   7.326
14855SOL    HW246463   0.878  12.691   7.403
14856SOL     OW46464   7.530   5.099  12.377
14856SOL    HW146465   7.617   5.095  12.415
14856SOL    HW246466   7.539   5.058  12.291
14857SOL     OW46467   8.000   2.055  13.999
14857SOL    HW146468   8.029   2.009  13.920
14857SOL    HW246469   8.078   2.101  14.030
14858SOL     OW46470   0.877  10.532   4.330
14858SOL    HW146471   0.923  10.449   4.343
14858SOL    HW246472   0.911  10.566   4.247
14859SOL     OW46473   2.753  12.275   3.416
14859SOL    HW146474   2.760  12.246   3.507
14859SOL    HW246475   2.658  12.281   3.400
14860SOL     OW46476   8.289   5.559   3.700
14860SOL    HW146477   8.325   5.573   3.612
14860SOL    HW246478   8.196   5.543   3.686
14861SOL     OW46479  10.579   8.722   7.023
14861SOL    HW146480  10.510   8.677   6.974
14861SOL    HW246481  10.554   8.814   7.020
14862SOL     OW46482   0.140  10.338   7.184
14862SOL    HW146483   0.124  10.330   7.090
14862SOL    HW246484   0.220  10.287   7.199
14863SOL     OW46485  10.158   9.842  11.010
14863SOL    HW146486  10.100   9.803  11.075
14863SOL    HW246487  10.099   9.883  10.946
14864SOL     OW46488   6.084   0.266   5.779
14864SOL    HW146489   6.014   0.268   5.714
14864SOL    HW246490   6.161   0.300   5.733
14865SOL     OW46491   0.349   9.462   4.018
14865SOL    HW146492   0.355   9.373   3.982
14865SOL    HW246493   0.255   9.479   4.023
14866SOL     OW46494   3.617  14.283  10.329
14866SOL    HW146495   3.676  14.320  10.394
14866SOL    HW246496   3.658  14.200  10.303
14867SOL     OW46497   1.072  10.173  13.871
14867SOL    HW146498   1.069  10.110  13.799
14867SOL    HW246499   1.114  10.127  13.943
14868SOL     OW46500   9.057   3.595   4.333
14868SOL    HW146501   9.120   3.632   4.395
14868SOL    HW246502   9.022   3.518   4.377
14869SOL     OW46503   1.768   7.572   7.860
14869SOL    HW146504   1.682   7.605   7.888
14869SOL    HW246505   1.751   7.527   7.777
14870SOL     OW46506   8.010   0.017   9.276
14870SOL    HW146507   8.096  14.849   9.256
14870SOL    HW246508   8.007   0.099   9.227
14871SOL     OW46509  12.135  10.628   8.472
14871SOL    HW146510  12.156  10.541   8.439
14871SOL    HW246511  12.219  10.674   8.473
14872SOL     OW46512  12.616   8.619  10.410
14872SOL    HW146513  12.557   8.547  10.387
14872SOL    HW246514  12.560   8.679  10.460
14873SOL     OW46515   2.595   5.907  12.717
14873SOL    HW146516   2.600   5.849  12.641
14873SOL    HW246517   2.668   5.969  12.705
14874SOL     OW46518   6.012   9.437  14.815
14874SOL    HW146519   5.921   9.466  14.822
14874SOL    HW246520   6.008   9.342  14.819
14875SOL     OW46521   3.604  10.923   0.074
14875SOL    HW146522   3.682  10.873   0.050
14875SOL    HW246523   3.632  10.979   0.147
14876SOL     OW46524   7.803   6.095   5.278
14876SOL    HW146525   7.867   6.098   5.208
14876SOL    HW246526   7.852   6.066   5.355
14877SOL     OW46527   0.095  14.012   2.389
14877SOL    HW146528   0.017  13.958   2.394
14877SOL    HW246529   0.063  14.101   2.373
14878SOL     OW46530   7.433  10.736   2.310
14878SOL    HW146531   7.375  10.800   2.270
14878SOL    HW246532   7.503  10.789   2.350
14879SOL     OW46533  14.117   7.079  11.002
14879SOL    HW146534  14.080   7.044  10.922
14879SOL    HW246535  14.089   7.171  11.004
14880SOL     OW46536  14.811   8.771   2.503
14880SOL    HW146537  14.746   8.701   2.494
14880SOL    HW246538  14.853   8.755   2.587
14881SOL     OW46539   2.766  14.366   4.840
14881SOL    HW146540   2.770  14.277   4.875
14881SOL    HW246541   2.789  14.422   4.915
14882SOL     OW46542  14.623   5.790   6.117
14882SOL    HW146543  14.687   5.744   6.173
14882SOL    HW246544  14.564   5.832   6.179
14883SOL     OW46545   3.952   5.957   0.691
14883SOL    HW146546   3.924   5.892   0.756
14883SOL    HW246547   4.010   6.015   0.739
14884SOL     OW46548   5.231   0.873  11.346
14884SOL    HW146549   5.255   0.823  11.424
14884SOL    HW246550   5.209   0.960  11.378
14885SOL     OW46551   7.830   5.743   5.280
14885SOL    HW146552   7.920   5.756   5.309
14885SOL    HW246553   7.818   5.806   5.209
14886SOL     OW46554  13.058   8.120   6.935
14886SOL    HW146555  13.062   8.032   6.971
14886SOL    HW246556  13.085   8.110   6.843
14887SOL     OW46557   7.392   6.971   0.795
14887SOL    HW146558   7.314   7.016   0.765
14887SOL    HW246559   7.424   6.924   0.719
14888SOL     OW46560   3.760   4.342   6.398
14888SOL    HW146561   3.838   4.369   6.348
14888SOL    HW246562   3.706   4.295   6.334
14889SOL     OW46563  12.629   9.299   9.491
14889SOL    HW146564  12.627   9.394   9.500
14889SOL    HW246565  12.680   9.282   9.412
14890SOL     OW46566   0.699  12.258   0.405
14890SOL    HW146567   0.766  12.191   0.424
14890SOL    HW246568   0.747  12.329   0.362
14891SOL     OW46569  10.998  12.200   2.781
14891SOL    HW146570  11.056  12.239   2.847
14891SOL    HW246571  10.998  12.107   2.801
14892SOL     OW46572   6.902   5.982   5.526
14892SOL    HW146573   6.817   5.961   5.565
14892SOL    HW246574   6.921   5.908   5.468
14893SOL     OW46575   0.360   8.373  13.292
14893SOL    HW146576   0.313   8.423  13.359
14893SOL    HW246577   0.294   8.356  13.225
14894SOL     OW46578   9.467  14.166   8.010
14894SOL    HW146579   9.460  14.085   8.060
14894SOL    HW246580   9.557  14.195   8.023
14895SOL     OW46581   9.325   9.362  13.431
14895SOL    HW146582   9.380   9.405  13.366
14895SOL    HW246583   9.236   9.389  13.410
14896SOL     OW46584   9.995   3.028  10.134
14896SOL    HW146585  10.049   3.008  10.058
14896SOL    HW246586   9.918   3.073  10.097
14897SOL     OW46587   8.338   8.918   0.698
14897SOL    HW146588   8.318   8.913   0.604
14897SOL    HW246589   8.418   8.867   0.709
14898SOL     OW46590   8.274   6.087  11.370
14898SOL    HW146591   8.221   6.062  11.294
14898SOL    HW246592   8.216   6.144  11.421
14899SOL     OW46593   1.732   9.127  10.238
14899SOL    HW146594   1.678   9.175  10.301
14899SOL    HW246595   1.791   9.193  10.202
14900SOL     OW46596   8.867  13.227  13.018
14900SOL    HW146597   8.905  13.287  13.083
14900SOL    HW246598   8.814  13.167  13.070
14901SOL     OW46599  11.715   8.218   2.122
14901SOL    HW146600  11.643   8.174   2.168
14901SOL    HW246601  11.794   8.188   2.166
14902SOL     OW46602   0.491   8.275   1.469
14902SOL    HW146603   0.486   8.234   1.383
14902SOL    HW246604   0.434   8.352   1.462
14903SOL     OW46605   5.685   4.534   2.859
14903SOL    HW146606   5.766   4.495   2.892
14903SOL    HW246607   5.689   4.626   2.885
14904SOL     OW46608   7.346   0.640  11.025
14904SOL    HW146609   7.274   0.698  10.998
14904SOL    HW246610   7.407   0.696  11.071
14905SOL     OW46611  12.955   9.483   5.166
14905SOL    HW146612  13.007   9.514   5.241
14905SOL    HW246613  12.867   9.471   5.201
14906SOL     OW46614   4.701   4.021   2.188
14906SOL    HW146615   4.623   4.036   2.242
14906SOL    HW246616   4.764   3.980   2.247
14907SOL     OW46617   3.061  12.225  10.912
14907SOL    HW146618   3.073  12.131  10.925
14907SOL    HW246619   3.063  12.237  10.817
14908SOL     OW46620   9.279   7.608   0.264
14908SOL    HW146621   9.210   7.554   0.226
14908SOL    HW246622   9.302   7.670   0.195
14909SOL     OW46623  13.142   8.344  13.530
14909SOL    HW146624  13.105   8.322  13.445
14909SOL    HW246625  13.173   8.260  13.565
14910SOL     OW46626   6.251   9.749   8.883
14910SOL    HW146627   6.192   9.682   8.849
14910SOL    HW246628   6.197   9.828   8.890
14911SOL     OW46629   6.281  10.833   4.234
14911SOL    HW146630   6.268  10.820   4.328
14911SOL    HW246631   6.195  10.815   4.196
14912SOL     OW46632  13.347  11.253   1.174
14912SOL    HW146633  13.319  11.268   1.084
14912SOL    HW246634  13.392  11.334   1.199
14913SOL     OW46635  13.162   3.875   6.036
14913SOL    HW146636  13.133   3.903   5.949
14913SOL    HW246637  13.219   3.946   6.066
14914SOL     OW46638  12.467   1.822  11.395
14914SOL    HW146639  12.385   1.855  11.357
14914SOL    HW246640  12.460   1.727  11.389
14915SOL     OW46641  12.352   1.550   6.634
14915SOL    HW146642  12.326   1.458   6.634
14915SOL    HW246643  12.355   1.574   6.541
14916SOL     OW46644  11.685   0.514   0.773
14916SOL    HW146645  11.600   0.499   0.815
14916SOL    HW246646  11.725   0.583   0.825
14917SOL     OW46647   5.434  11.407   9.729
14917SOL    HW146648   5.440  11.329   9.784
14917SOL    HW246649   5.430  11.373   9.640
14918SOL     OW46650   4.777   6.729   6.264
14918SOL    HW146651   4.684   6.724   6.284
14918SOL    HW246652   4.780   6.741   6.169
14919SOL     OW46653   1.466   4.348   4.786
14919SOL    HW146654   1.548   4.380   4.748
14919SOL    HW246655   1.470   4.253   4.776
14920SOL     OW46656   0.158   6.683   5.497
14920SOL    HW146657   0.137   6.597   5.533
14920SOL    HW246658   0.245   6.702   5.532
14921SOL     OW46659   4.953  14.290   6.876
14921SOL    HW146660   4.890  14.357   6.902
14921SOL    HW246661   5.017  14.288   6.947
14922SOL     OW46662  14.738   3.673   0.617
14922SOL    HW146663  14.785   3.637   0.542
14922SOL    HW246664  14.706   3.596   0.664
14923SOL     OW46665   8.428  11.934  13.275
14923SOL    HW146666   8.377  11.946  13.355
14923SOL    HW246667   8.445  11.840  13.272
14924SOL     OW46668   5.788   2.783   1.496
14924SOL    HW146669   5.742   2.741   1.424
14924SOL    HW246670   5.795   2.875   1.471
14925SOL     OW46671  11.851   6.104   0.832
14925SOL    HW146672  11.869   6.064   0.917
14925SOL    HW246673  11.850   6.198   0.849
14926SOL     OW46674   2.735   8.581   8.272
14926SOL    HW146675   2.740   8.566   8.366
14926SOL    HW246676   2.724   8.494   8.234
14927SOL     OW46677   1.771   5.549  10.624
14927SOL    HW146678   1.775   5.516  10.713
14927SOL    HW246679   1.858   5.534  10.588
14928SOL     OW46680   4.448  12.771   3.486
14928SOL    HW146681   4.405  12.701   3.535
14928SOL    HW246682   4.376  12.819   3.446
14929SOL     OW46683  11.968   7.077   3.766
14929SOL    HW146684  11.958   7.162   3.723
14929SOL    HW246685  11.954   7.095   3.859
14930SOL     OW46686   0.105   0.334   5.488
14930SOL    HW146687   0.047   0.289   5.549
14930SOL    HW246688   0.130   0.267   5.425
14931SOL     OW46689  10.943  11.077   7.833
14931SOL    HW146690  10.882  11.095   7.904
14931SOL    HW246691  10.894  11.023   7.771
14932SOL     OW46692  14.052   6.213   4.451
14932SOL    HW146693  14.133   6.190   4.405
14932SOL    HW246694  14.080   6.273   4.520
14933SOL     OW46695   5.483  13.255   9.007
14933SOL    HW146696   5.392  13.271   9.032
14933SOL    HW246697   5.534  13.315   9.061
14934SOL     OW46698   8.269  14.271   8.971
14934SOL    HW146699   8.355  14.296   8.937
14934SOL    HW246700   8.213  14.268   8.893
14935SOL     OW46701  12.835   9.928  10.702
14935SOL    HW146702  12.741   9.927  10.720
14935SOL    HW246703  12.853  10.018  10.675
14936SOL     OW46704   5.344   0.441   3.357
14936SOL    HW146705   5.273   0.497   3.327
14936SOL    HW246706   5.313   0.405   3.440
14937SOL     OW46707   6.325   0.048  14.182
14937SOL    HW146708   6.386  14.849  14.208
14937SOL    HW246709   6.355   0.076  14.096
14938SOL     OW46710   5.105  10.908   5.193
14938SOL    HW146711   5.112  10.859   5.275
14938SOL    HW246712   5.028  10.965   5.206
14939SOL     OW46713   9.313   9.314   6.979
14939SOL    HW146714   9.318   9.219   6.975
14939SOL    HW246715   9.295   9.333   7.071
14940SOL     OW46716   0.630   0.103  11.794
14940SOL    HW146717   0.676   0.044  11.854
14940SOL    HW246718   0.679   0.097  11.712
14941SOL     OW46719  12.435   0.462  13.986
14941SOL    HW146720  12.456   0.433  14.075
14941SOL    HW246721  12.339   0.461  13.982
14942SOL     OW46722   0.620  11.230   5.804
14942SOL    HW146723   0.682  11.205   5.736
14942SOL    HW246724   0.619  11.326   5.802
14943SOL     OW46725   5.531   9.312   3.454
14943SOL    HW146726   5.479   9.325   3.375
14943SOL    HW246727   5.619   9.292   3.421
14944SOL     OW46728   6.227  14.617  10.849
14944SOL    HW146729   6.295  14.654  10.905
14944SOL    HW246730   6.156  14.595  10.909
14945SOL     OW46731   3.382   8.501  11.124
14945SOL    HW146732   3.308   8.441  11.122
14945SOL    HW246733   3.383   8.537  11.212
14946SOL     OW46734   1.293   1.925   9.608
14946SOL    HW146735   1.270   1.835   9.585
14946SOL    HW246736   1.357   1.916   9.678
14947SOL     OW46737   8.091   6.053   7.081
14947SOL    HW146738   8.071   5.977   7.026
14947SOL    HW246739   8.005   6.091   7.102
14948SOL     OW46740   1.588  11.695   1.449
14948SOL    HW146741   1.493  11.702   1.446
14948SOL    HW246742   1.620  11.779   1.416
14949SOL     OW46743   4.857   0.666   3.539
14949SOL    HW146744   4.792   0.732   3.561
14949SOL    HW246745   4.809   0.602   3.486
14950SOL     OW46746   3.099  11.811   9.656
14950SOL    HW146747   3.071  11.821   9.747
14950SOL    HW246748   3.098  11.716   9.641
14951SOL     OW46749   0.965   5.197  14.666
14951SOL    HW146750   0.935   5.282  14.634
14951SOL    HW246751   0.930   5.134  14.602
14952SOL     OW46752   7.921   3.759  10.299
14952SOL    HW146753   7.937   3.666  10.287
14952SOL    HW246754   7.987   3.788  10.362
14953SOL     OW46755   3.734   9.448   3.977
14953SOL    HW146756   3.669   9.484   4.038
14953SOL    HW246757   3.801   9.515   3.969
14954SOL     OW46758   8.121  13.980   1.170
14954SOL    HW146759   8.074  13.947   1.095
14954SOL    HW246760   8.118  14.076   1.161
14955SOL     OW46761   5.052  10.514  13.015
14955SOL    HW146762   5.068  10.491  12.924
14955SOL    HW246763   5.109  10.456  13.065
14956SOL     OW46764  14.363   1.998  10.198
14956SOL    HW146765  14.375   2.076  10.144
14956SOL    HW246766  14.436   2.000  10.259
14957SOL     OW46767   1.939   7.247   0.261
14957SOL    HW146768   1.956   7.182   0.329
14957SOL    HW246769   1.848   7.234   0.237
14958SOL     OW46770  13.920  13.217   4.301
14958SOL    HW146771  13.865  13.235   4.377
14958SOL    HW246772  13.993  13.166   4.336
14959SOL     OW46773   7.753   7.700  12.037
14959SOL    HW146774   7.797   7.623  12.072
14959SOL    HW246775   7.823   7.764  12.023
14960SOL     OW46776  11.584  10.839   0.304
14960SOL    HW146777  11.496  10.876   0.300
14960SOL    HW246778  11.571  10.745   0.318
14961SOL     OW46779   7.924   5.615  14.260
14961SOL    HW146780   7.969   5.630  14.343
14961SOL    HW246781   7.832   5.636  14.278
14962SOL     OW46782   0.003   9.666   2.027
14962SOL    HW146783   0.014   9.628   2.114
14962SOL    HW246784   0.085   9.644   1.982
14963SOL     OW46785  11.284  10.326  12.258
14963SOL    HW146786  11.317  10.371  12.180
14963SOL    HW246787  11.233  10.393  12.304
14964SOL     OW46788  14.813   3.309  13.321
14964SOL    HW146789  14.790   3.394  13.360
14964SOL    HW246790   0.017   3.278  13.373
14965SOL     OW46791   8.947  11.990   0.784
14965SOL    HW146792   8.927  11.897   0.796
14965SOL    HW246793   8.957  12.000   0.689
14966SOL     OW46794  11.471  12.688  12.362
14966SOL    HW146795  11.437  12.687  12.451
14966SOL    HW246796  11.398  12.720  12.308
14967SOL     OW46797   6.533   4.073   9.282
14967SOL    HW146798   6.479   4.125   9.341
14967SOL    HW246799   6.557   3.996   9.333
14968SOL     OW46800  10.704  11.097   3.948
14968SOL    HW146801  10.782  11.095   3.892
14968SOL    HW246802  10.680  11.005   3.958
14969SOL     OW46803   4.389   6.173   3.195
14969SOL    HW146804   4.444   6.133   3.127
14969SOL    HW246805   4.378   6.103   3.260
14970SOL     OW46806   4.888   6.328  13.699
14970SOL    HW146807   4.886   6.390  13.625
14970SOL    HW246808   4.927   6.378  13.770
14971SOL     OW46809   2.578   8.839   4.078
14971SOL    HW146810   2.640   8.797   4.137
14971SOL    HW246811   2.499   8.786   4.084
14972SOL     OW46812   7.203   6.003  10.298
14972SOL    HW146813   7.201   5.942  10.372
14972SOL    HW246814   7.289   5.988  10.258
14973SOL     OW46815   8.890  14.039   0.469
14973SOL    HW146816   8.945  14.107   0.431
14973SOL    HW246817   8.933  14.017   0.552
14974SOL     OW46818  13.400  11.533  13.333
14974SOL    HW146819  13.344  11.476  13.281
14974SOL    HW246820  13.368  11.622  13.315
14975SOL     OW46821   8.818   4.889   1.896
14975SOL    HW146822   8.858   4.960   1.946
14975SOL    HW246823   8.738   4.868   1.944
14976SOL     OW46824   9.016   0.500  10.348
14976SOL    HW146825   8.941   0.552  10.317
14976SOL    HW246826   9.090   0.560  10.343
14977SOL     OW46827   4.495  14.567  14.859
14977SOL    HW146828   4.521  14.506   0.058
14977SOL    HW246829   4.432  14.518  14.806
14978SOL     OW46830   1.244   6.020  11.569
14978SOL    HW146831   1.156   6.051  11.593
14978SOL    HW246832   1.276   5.976  11.648
14979SOL     OW46833   1.931   4.309  10.593
14979SOL    HW146834   1.927   4.326  10.687
14979SOL    HW246835   1.868   4.239  10.579
14980SOL     OW46836   7.453   8.094   2.103
14980SOL    HW146837   7.378   8.140   2.065
14980SOL    HW246838   7.502   8.061   2.028
14981SOL     OW46839  14.627   8.790  10.002
14981SOL    HW146840  14.667   8.869  10.037
14981SOL    HW246841  14.533   8.808  10.007
14982SOL     OW46842  14.772   9.064   9.986
14982SOL    HW146843  14.833   9.020  10.045
14982SOL    HW246844  14.828   9.105   9.920
14983SOL     OW46845  13.698   5.524   1.408
14983SOL    HW146846  13.614   5.480   1.392
14983SOL    HW246847  13.673   5.613   1.434
14984SOL     OW46848   7.430   0.184   7.620
14984SOL    HW146849   7.440   0.259   7.562
14984SOL    HW246850   7.344   0.147   7.597
14985SOL     OW46851   5.451   1.654   8.333
14985SOL    HW146852   5.542   1.655   8.301
14985SOL    HW246853   5.399   1.639   8.254
14986SOL     OW46854   5.621   1.450  11.091
14986SOL    HW146855   5.632   1.468  10.998
14986SOL    HW246856   5.551   1.385  11.095
14987SOL     OW46857   6.796  10.701   6.414
14987SOL    HW146858   6.712  10.704   6.461
14987SOL    HW246859   6.807  10.789   6.380
14988SOL     OW46860   1.711   2.600   3.368
14988SOL    HW146861   1.727   2.651   3.447
14988SOL    HW246862   1.722   2.509   3.395
14989SOL     OW46863  10.172  11.696   9.438
14989SOL    HW146864  10.198  11.788   9.438
14989SOL    HW246865  10.199  11.664   9.352
14990SOL     OW46866   2.723   6.166   6.520
14990SOL    HW146867   2.794   6.120   6.566
14990SOL    HW246868   2.649   6.163   6.581
14991SOL     OW46869   1.034  11.000   7.711
14991SOL    HW146870   1.014  10.990   7.804
14991SOL    HW246871   1.042  10.911   7.678
14992SOL     OW46872  12.736   5.234   3.190
14992SOL    HW146873  12.800   5.222   3.260
14992SOL    HW246874  12.670   5.167   3.206
14993SOL     OW46875   7.843  14.320  13.492
14993SOL    HW146876   7.926  14.286  13.525
14993SOL    HW246877   7.822  14.393  13.551
14994SOL     OW46878   2.810   7.847   8.899
14994SOL    HW146879   2.771   7.886   8.977
14994SOL    HW246880   2.739   7.796   8.860
14995SOL     OW46881   5.249   0.372   8.926
14995SOL    HW146882   5.182   0.367   8.858
14995SOL    HW246883   5.329   0.395   8.879
14996SOL     OW46884   5.666   6.349  14.448
14996SOL    HW146885   5.727   6.278  14.468
14996SOL    HW246886   5.695   6.422  14.503
14997SOL     OW46887  10.870  11.409   8.415
14997SOL    HW146888  10.781  11.385   8.390
14997SOL    HW246889  10.898  11.341   8.477
14998SOL     OW46890   6.507  12.266  11.986
14998SOL    HW146891   6.567  12.241  11.916
14998SOL    HW246892   6.521  12.201  12.055
14999SOL     OW46893   0.474   3.172   0.137
14999SOL    HW146894   0.460   3.266   0.153
14999SOL    HW246895   0.548   3.169   0.077
15000SOL     OW46896   4.022   9.507   9.266
15000SOL    HW146897   4.031   9.466   9.352
15000SOL    HW246898   4.053   9.597   9.279
15001SOL     OW46899  10.903   5.016   7.910
15001SOL    HW146900  10.955   5.023   7.830
15001SOL    HW246901  10.814   5.037   7.883
15002SOL     OW46902  12.817  10.679   7.018
15002SOL    HW146903  12.794  10.668   6.925
15002SOL    HW246904  12.892  10.738   7.017
15003SOL     OW46905  10.070  14.801   2.081
15003SOL    HW146906  10.102  14.712   2.061
15003SOL    HW246907   9.990  14.787   2.132
15004SOL     OW46908   1.147   2.930   0.256
15004SOL    HW146909   1.176   2.869   0.324
15004SOL    HW246910   1.062   2.898   0.229
15005SOL     OW46911   7.788  12.123   5.831
15005SOL    HW146912   7.795  12.139   5.925
15005SOL    HW246913   7.698  12.092   5.819
15006SOL     OW46914   3.091  11.946   3.330
15006SOL    HW146915   3.041  11.865   3.345
15006SOL    HW246916   3.181  11.916   3.316
15007SOL     OW46917  10.860   2.654   7.409
15007SOL    HW146918  10.892   2.597   7.478
15007SOL    HW246919  10.781   2.693   7.445
15008SOL     OW46920   5.678   4.478   4.772
15008SOL    HW146921   5.635   4.411   4.719
15008SOL    HW246922   5.702   4.433   4.853
15009SOL     OW46923   0.073   3.957   1.997
15009SOL    HW146924  14.863   4.006   2.014
15009SOL    HW246925   0.060   3.873   2.042
15010SOL     OW46926   5.406  10.592   1.611
15010SOL    HW146927   5.391  10.596   1.517
15010SOL    HW246928   5.500  10.580   1.620
15011SOL     OW46929   9.630  13.463   0.442
15011SOL    HW146930   9.609  13.456   0.349
15011SOL    HW246931   9.723  13.439   0.447
15012SOL     OW46932   2.758   5.849   8.471
15012SOL    HW146933   2.831   5.878   8.526
15012SOL    HW246934   2.724   5.929   8.432
15013SOL     OW46935  12.776  12.295  12.010
15013SOL    HW146936  12.772  12.354  11.934
15013SOL    HW246937  12.728  12.342  12.078
15014SOL     OW46938  14.104  10.895   7.779
15014SOL    HW146939  14.017  10.869   7.751
15014SOL    HW246940  14.090  10.967   7.840
15015SOL     OW46941   4.556   4.209   4.669
15015SOL    HW146942   4.526   4.141   4.729
15015SOL    HW246943   4.598   4.162   4.597
15016SOL     OW46944   1.069  11.072   8.268
15016SOL    HW146945   1.120  11.149   8.292
15016SOL    HW246946   1.051  11.028   8.350
15017SOL     OW46947  13.655  14.536   5.085
15017SOL    HW146948  13.595  14.462   5.077
15017SOL    HW246949  13.645  14.566   5.175
15018SOL     OW46950  14.073  12.786   6.242
15018SOL    HW146951  14.063  12.868   6.193
15018SOL    HW246952  14.090  12.720   6.175
15019SOL     OW46953  10.465  12.211   7.202
15019SOL    HW146954  10.373  12.197   7.227
15019SOL    HW246955  10.514  12.148   7.255
15020SOL     OW46956   1.598   6.344  10.752
15020SOL    HW146957   1.657   6.411  10.718
15020SOL    HW246958   1.521   6.392  10.782
15021SOL     OW46959   7.015  12.398   3.088
15021SOL    HW146960   6.997  12.314   3.130
15021SOL    HW246961   6.955  12.460   3.130
15022SOL     OW46962   4.719   6.880   8.238
15022SOL    HW146963   4.803   6.921   8.217
15022SOL    HW246964   4.668   6.890   8.158
15023SOL     OW46965   8.527   6.223  11.166
15023SOL    HW146966   8.500   6.147  11.115
15023SOL    HW246967   8.609   6.196  11.208
15024SOL     OW46968   3.481  11.973   8.240
15024SOL    HW146969   3.421  11.927   8.298
15024SOL    HW246970   3.527  11.903   8.193
15025SOL     OW46971  13.951  10.934   8.042
15025SOL    HW146972  13.995  10.873   8.101
15025SOL    HW246973  13.915  10.878   7.972
15026SOL     OW46974   2.471   6.990   3.744
15026SOL    HW146975   2.496   6.923   3.680
15026SOL    HW246976   2.544   7.052   3.744
15027SOL     OW46977   4.099   5.964  11.535
15027SOL    HW146978   4.099   6.012  11.617
15027SOL    HW246979   4.015   5.985  11.494
15028SOL     OW46980  13.969   9.119   5.896
15028SOL    HW146981  14.005   9.141   5.810
15028SOL    HW246982  13.879   9.153   5.893
15029SOL     OW46983   3.471  10.600   5.497
15029SOL    HW146984   3.466  10.541   5.573
15029SOL    HW246985   3.426  10.680   5.527
15030SOL     OW46986  13.368   1.700   5.083
15030SOL    HW146987  13.439   1.635   5.085
15030SOL    HW246988  13.347   1.716   5.175
15031SOL     OW46989   5.904  11.321   7.098
15031SOL    HW146990   5.996  11.338   7.121
15031SOL    HW246991   5.903  11.325   7.002
15032SOL     OW46992  12.179   1.040   1.689
15032SOL    HW146993  12.142   0.975   1.748
15032SOL    HW246994  12.174   1.000   1.602
15033SOL     OW46995  12.264   7.604   1.000
15033SOL    HW146996  12.326   7.533   1.017
15033SOL    HW246997  12.198   7.596   1.069
15034SOL     OW46998  13.853  12.174   1.083
15034SOL    HW146999  13.759  12.193   1.083
15034SOL    HW247000  13.874  12.158   1.175
15035SOL     OW47001   4.431   7.137  11.243
15035SOL    HW147002   4.403   7.121  11.152
15035SOL    HW247003   4.471   7.054  11.270
15036SOL     OW47004  14.486   1.669   8.819
15036SOL    HW147005  14.549   1.643   8.751
15036SOL    HW247006  14.540   1.687   8.896
15037SOL     OW47007   6.900  14.301   5.202
15037SOL    HW147008   6.865  14.218   5.234
15037SOL    HW247009   6.882  14.364   5.273
15038SOL     OW47010  12.410  12.528   6.049
15038SOL    HW147011  12.431  12.471   6.122
15038SOL    HW247012  12.326  12.495   6.016
15039SOL     OW47013   9.315   1.365  11.008
15039SOL    HW147014   9.234   1.413  11.026
15039SOL    HW247015   9.325   1.306  11.083
15040SOL     OW47016  14.680   5.898   8.201
15040SOL    HW147017  14.675   5.803   8.196
15040SOL    HW247018  14.589   5.926   8.211
15041SOL     OW47019   4.480   2.520   2.811
15041SOL    HW147020   4.390   2.543   2.790
15041SOL    HW247021   4.513   2.596   2.861
15042SOL     OW47022   2.726   7.326   2.586
15042SOL    HW147023   2.755   7.244   2.546
15042SOL    HW247024   2.739   7.313   2.680
15043SOL     OW47025   4.853  11.364   7.167
15043SOL    HW147026   4.922  11.382   7.103
15043SOL    HW247027   4.808  11.447   7.180
15044SOL     OW47028   9.443   8.303   6.588
15044SOL    HW147029   9.468   8.323   6.497
15044SOL    HW247030   9.470   8.381   6.637
15045SOL     OW47031  14.521   3.801  11.114
15045SOL    HW147032  14.464   3.814  11.039
15045SOL    HW247033  14.467   3.753  11.177
15046SOL     OW47034   7.844  13.769   6.906
15046SOL    HW147035   7.876  13.793   6.993
15046SOL    HW247036   7.788  13.693   6.921
15047SOL     OW47037   9.876  12.729   5.666
15047SOL    HW147038   9.849  12.683   5.587
15047SOL    HW247039   9.803  12.788   5.686
15048SOL     OW47040   5.180   8.433  10.730
15048SOL    HW147041   5.162   8.428  10.824
15048SOL    HW247042   5.275   8.424  10.723
15049SOL     OW47043   5.507   5.488  13.511
15049SOL    HW147044   5.508   5.399  13.475
15049SOL    HW247045   5.584   5.492  13.567
15050SOL     OW47046   5.344   5.986  13.568
15050SOL    HW147047   5.410   6.028  13.513
15050SOL    HW247048   5.344   5.895  13.541
15051SOL     OW47049  13.350   3.281   9.773
15051SOL    HW147050  13.265   3.324   9.759
15051SOL    HW247051  13.411   3.329   9.718
15052SOL     OW47052  10.484   0.885   3.703
15052SOL    HW147053  10.546   0.941   3.656
15052SOL    HW247054  10.537   0.836   3.765
15053SOL     OW47055   9.330   4.990   7.536
15053SOL    HW147056   9.267   5.038   7.589
15053SOL    HW247057   9.357   4.917   7.593
15054SOL     OW47058   1.795   5.919   8.920
15054SOL    HW147059   1.835   5.984   8.861
15054SOL    HW247060   1.855   5.844   8.917
15055SOL     OW47061  12.497   0.242  13.428
15055SOL    HW147062  12.527   0.155  13.402
15055SOL    HW247063  12.485   0.236  13.523
15056SOL     OW47064  10.345   1.947   2.103
15056SOL    HW147065  10.382   1.969   2.018
15056SOL    HW247066  10.374   2.018   2.161
15057SOL     OW47067   1.406   3.097  11.739
15057SOL    HW147068   1.381   3.009  11.769
15057SOL    HW247069   1.416   3.089  11.645
15058SOL     OW47070   3.696  10.483  11.086
15058SOL    HW147071   3.714  10.389  11.092
15058SOL    HW247072   3.774  10.519  11.044
15059SOL     OW47073   0.762  14.053   3.500
15059SOL    HW147074   0.846  14.028   3.539
15059SOL    HW247075   0.748  13.989   3.430
15060SOL     OW47076   6.915  11.383  11.556
15060SOL    HW147077   7.002  11.366  11.521
15060SOL    HW247078   6.858  11.320  11.513
15061SOL     OW47079  11.184  12.300   3.422
15061SOL    HW147080  11.133  12.255   3.488
15061SOL    HW247081  11.211  12.231   3.361
15062SOL     OW47082   6.341   2.936   7.331
15062SOL    HW147083   6.423   2.971   7.365
15062SOL    HW247084   6.324   2.859   7.385
15063SOL     OW47085   1.322   0.662   7.533
15063SOL    HW147086   1.407   0.707   7.535
15063SOL    HW247087   1.300   0.649   7.625
15064SOL     OW47088  12.535   7.769  12.315
15064SOL    HW147089  12.515   7.757  12.408
15064SOL    HW247090  12.511   7.686  12.274
15065SOL     OW47091   6.781   9.317   3.421
15065SOL    HW147092   6.839   9.365   3.363
15065SOL    HW247093   6.839   9.254   3.465
15066SOL     OW47094   1.904   9.919  12.675
15066SOL    HW147095   1.926   9.890  12.586
15066SOL    HW247096   1.989   9.926  12.719
15067SOL     OW47097  11.384   5.058  13.600
15067SOL    HW147098  11.367   5.113  13.524
15067SOL    HW247099  11.475   5.031  13.591
15068SOL     OW47100   7.121   0.006   0.751
15068SOL    HW147101   7.154   0.088   0.715
15068SOL    HW247102   7.074   0.032   0.831
15069SOL     OW47103  12.883  12.015   2.828
15069SOL    HW147104  12.910  11.938   2.878
15069SOL    HW247105  12.936  12.012   2.748
15070SOL     OW47106  13.384   3.757   3.269
15070SOL    HW147107  13.433   3.807   3.204
15070SOL    HW247108  13.292   3.779   3.253
15071SOL     OW47109   3.584  14.643  11.714
15071SOL    HW147110   3.545  14.729  11.696
15071SOL    HW247111   3.678  14.658  11.707
15072SOL     OW47112  10.302   9.486   8.416
15072SOL    HW147113  10.237   9.546   8.453
15072SOL    HW247114  10.300   9.410   8.474
15073SOL     OW47115  11.744   5.772   9.668
15073SOL    HW147116  11.789   5.690   9.648
15073SOL    HW247117  11.783   5.801   9.751
15074SOL     OW47118   7.562  10.224   3.747
15074SOL    HW147119   7.475  10.260   3.730
15074SOL    HW247120   7.545  10.141   3.792
15075SOL     OW47121   4.412   6.274   5.223
15075SOL    HW147122   4.407   6.305   5.132
15075SOL    HW247123   4.478   6.205   5.221
15076SOL     OW47124  11.084  13.625   9.255
15076SOL    HW147125  11.108  13.610   9.164
15076SOL    HW247126  11.159  13.670   9.293
15077SOL     OW47127   1.921  10.329   3.510
15077SOL    HW147128   1.924  10.248   3.459
15077SOL    HW247129   1.990  10.320   3.574
15078SOL     OW47130  11.817   6.791   6.409
15078SOL    HW147131  11.887   6.845   6.373
15078SOL    HW247132  11.744   6.802   6.348
15079SOL     OW47133   3.476   5.046  10.440
15079SOL    HW147134   3.466   5.024  10.532
15079SOL    HW247135   3.523   4.972  10.402
15080SOL     OW47136  12.347   4.831   2.495
15080SOL    HW147137  12.385   4.743   2.503
15080SOL    HW247138  12.298   4.844   2.576
15081SOL     OW47139   5.047   9.675  12.111
15081SOL    HW147140   4.964   9.651  12.152
15081SOL    HW247141   5.024   9.697  12.020
15082SOL     OW47142  13.628  12.921   8.105
15082SOL    HW147143  13.580  12.977   8.166
15082SOL    HW247144  13.709  12.899   8.152
15083SOL     OW47145   4.273   0.662   2.701
15083SOL    HW147146   4.179   0.655   2.684
15083SOL    HW247147   4.283   0.635   2.793
15084SOL     OW47148   4.616   8.771  11.777
15084SOL    HW147149   4.532   8.741  11.811
15084SOL    HW247150   4.675   8.696  11.787
15085SOL     OW47151  12.265  10.369  14.079
15085SOL    HW147152  12.332  10.427  14.042
15085SOL    HW247153  12.308  10.330  14.155
15086SOL     OW47154   8.734   5.226  10.951
15086SOL    HW147155   8.735   5.199  10.859
15086SOL    HW247156   8.750   5.321  10.949
15087SOL     OW47157   1.034   9.614   6.769
15087SOL    HW147158   0.977   9.545   6.735
15087SOL    HW247159   1.049   9.590   6.860
15088SOL     OW47160  14.317   7.558   6.208
15088SOL    HW147161  14.241   7.605   6.243
15088SOL    HW247162  14.280   7.492   6.150
15089SOL     OW47163  14.519   1.738   1.280
15089SOL    HW147164  14.453   1.670   1.297
15089SOL    HW247165  14.580   1.732   1.354
15090SOL     OW47166  14.646   3.382   7.713
15090SOL    HW147167  14.707   3.329   7.766
15090SOL    HW247168  14.581   3.413   7.776
15091SOL     OW47169  12.903   9.506   8.712
15091SOL    HW147170  12.828   9.464   8.672
15091SOL    HW247171  12.868   9.548   8.791
15092SOL     OW47172   1.411  14.071   8.892
15092SOL    HW147173   1.320  14.087   8.869
15092SOL    HW247174   1.408  14.041   8.983
15093SOL     OW47175   5.462   8.138  12.928
15093SOL    HW147176   5.539   8.142  12.871
15093SOL    HW247177   5.440   8.045  12.931
15094SOL     OW47178   9.166   9.546   6.863
15094SOL    HW147179   9.112   9.480   6.821
15094SOL    HW247180   9.228   9.496   6.917
15095SOL     OW47181   2.416   4.959  14.503
15095SOL    HW147182   2.421   5.012  14.583
15095SOL    HW247183   2.497   4.909  14.502
15096SOL     OW47184  11.149  13.302   2.427
15096SOL    HW147185  11.235  13.342   2.445
15096SOL    HW247186  11.103  13.367   2.374
15097SOL     OW47187   1.847   7.579   3.720
15097SOL    HW147188   1.859   7.618   3.807
15097SOL    HW247189   1.753   7.567   3.712
15098SOL     OW47190   4.559   6.352  14.774
15098SOL    HW147191   4.523   6.405  14.703
15098SOL    HW247192   4.591   6.273  14.731
15099SOL     OW47193  12.612   1.263   9.207
15099SOL    HW147194  12.591   1.334   9.147
15099SOL    HW247195  12.707   1.253   9.200
15100SOL     OW47196   5.905  14.064   2.828
15100SOL    HW147197   5.857  14.018   2.759
15100SOL    HW247198   5.839  14.120   2.870
15101SOL     OW47199   4.137   8.224   1.536
15101SOL    HW147200   4.172   8.199   1.450
15101SOL    HW247201   4.103   8.312   1.524
15102SOL     OW47202   0.267   4.303  13.282
15102SOL    HW147203   0.307   4.221  13.311
15102SOL    HW247204   0.292   4.367  13.349
15103SOL     OW47205   8.276   2.839   5.618
15103SOL    HW147206   8.207   2.864   5.556
15103SOL    HW247207   8.355   2.881   5.585
15104SOL     OW47208  13.115  14.794  13.250
15104SOL    HW147209  13.171  14.843  13.190
15104SOL    HW247210  13.083  14.720  13.199
15105SOL     OW47211   7.290   9.323   1.504
15105SOL    HW147212   7.208   9.305   1.457
15105SOL    HW247213   7.299   9.418   1.500
15106SOL     OW47214   2.995   6.643  12.109
15106SOL    HW147215   2.922   6.673  12.163
15106SOL    HW247216   2.975   6.675  12.021
15107SOL     OW47217   5.086   0.284   3.823
15107SOL    HW147218   5.127   0.244   3.899
15107SOL    HW247219   4.999   0.310   3.853
15108SOL     OW47220  13.515  13.608   0.879
15108SOL    HW147221  13.543  13.588   0.790
15108SOL    HW247222  13.421  13.590   0.880
15109SOL     OW47223   2.116   2.616   4.502
15109SOL    HW147224   2.210   2.615   4.518
15109SOL    HW247225   2.094   2.524   4.487
15110SOL     OW47226  13.151   4.701  13.358
15110SOL    HW147227  13.208   4.627  13.336
15110SOL    HW247228  13.117   4.729  13.273
15111SOL     OW47229   0.432  14.146   8.199
15111SOL    HW147230   0.461  14.237   8.209
15111SOL    HW247231   0.388  14.144   8.114
15112SOL     OW47232  10.257  11.307  12.418
15112SOL    HW147233  10.222  11.384  12.464
15112SOL    HW247234  10.182  11.248  12.409
15113SOL     OW47235   4.031  12.725   8.187
15113SOL    HW147236   3.987  12.797   8.141
15113SOL    HW247237   4.121  12.728   8.154
15114SOL     OW47238  12.551   3.643   1.814
15114SOL    HW147239  12.609   3.587   1.867
15114SOL    HW247240  12.600   3.724   1.802
15115SOL     OW47241  10.671   1.031   1.196
15115SOL    HW147242  10.698   1.123   1.184
15115SOL    HW247243  10.746   0.990   1.238
15116SOL     OW47244  11.127  13.877   7.824
15116SOL    HW147245  11.192  13.814   7.856
15116SOL    HW247246  11.059  13.823   7.785
15117SOL     OW47247  11.099  11.332   9.101
15117SOL    HW147248  11.173  11.275   9.120
15117SOL    HW247249  11.031  11.274   9.068
15118SOL     OW47250   8.291  12.333   0.835
15118SOL    HW147251   8.294  12.337   0.739
15118SOL    HW247252   8.291  12.239   0.854
15119SOL     OW47253   0.754  11.935   0.814
15119SOL    HW147254   0.705  11.919   0.734
15119SOL    HW247255   0.720  11.870   0.876
15120SOL     OW47256   8.609   0.667  11.838
15120SOL    HW147257   8.680   0.709  11.789
15120SOL    HW247258   8.607   0.577  11.805
15121SOL     OW47259   7.451   1.115   0.544
15121SOL    HW147260   7.402   1.052   0.492
15121SOL    HW247261   7.543   1.090   0.531
15122SOL     OW47262   9.463   7.664   7.539
15122SOL    HW147263   9.524   7.598   7.507
15122SOL    HW247264   9.501   7.694   7.621
15123SOL     OW47265  12.669   0.435   5.134
15123SOL    HW147266  12.750   0.418   5.086
15123SOL    HW247267  12.685   0.399   5.222
15124SOL     OW47268  13.600  10.812   9.871
15124SOL    HW147269  13.552  10.731   9.890
15124SOL    HW247270  13.626  10.804   9.779
15125SOL     OW47271  14.352   9.654   1.546
15125SOL    HW147272  14.399   9.579   1.584
15125SOL    HW247273  14.310   9.618   1.468
15126SOL     OW47274   2.154   5.097   1.602
15126SOL    HW147275   2.154   5.185   1.562
15126SOL    HW247276   2.245   5.069   1.596
15127SOL     OW47277   1.849  12.617   2.891
15127SOL    HW147278   1.828  12.542   2.835
15127SOL    HW247279   1.767  12.666   2.898
15128SOL     OW47280   1.980   0.881  12.621
15128SOL    HW147281   2.019   0.824  12.688
15128SOL    HW247282   1.919   0.936  12.669
15129SOL     OW47283   2.395  14.111   9.809
15129SOL    HW147284   2.349  14.049   9.866
15129SOL    HW247285   2.458  14.155   9.867
15130SOL     OW47286   6.360  11.535   8.917
15130SOL    HW147287   6.365  11.617   8.868
15130SOL    HW247288   6.268  11.509   8.909
15131SOL     OW47289   0.852  14.205   9.448
15131SOL    HW147290   0.835  14.275   9.511
15131SOL    HW247291   0.769  14.193   9.402
15132SOL     OW47292   8.084   6.158   1.924
15132SOL    HW147293   8.011   6.219   1.933
15132SOL    HW247294   8.139   6.197   1.856
15133SOL     OW47295   5.571   5.627   6.881
15133SOL    HW147296   5.579   5.532   6.881
15133SOL    HW247297   5.504   5.646   6.947
15134SOL     OW47298  11.118   5.006   8.737
15134SOL    HW147299  11.207   5.022   8.766
15134SOL    HW247300  11.065   5.073   8.780
15135SOL     OW47301   0.978   3.845   7.276
15135SOL    HW147302   1.047   3.813   7.217
15135SOL    HW247303   0.973   3.779   7.345
15136SOL     OW47304   3.809   3.583   9.483
15136SOL    HW147305   3.729   3.585   9.430
15136SOL    HW247306   3.806   3.665   9.533
15137SOL     OW47307   5.896   8.652   2.250
15137SOL    HW147308   5.860   8.715   2.187
15137SOL    HW247309   5.895   8.569   2.203
15138SOL     OW47310  10.068   6.888   3.954
15138SOL    HW147311  10.158   6.902   3.985
15138SOL    HW247312  10.075   6.818   3.889
15139SOL     OW47313   1.197  10.795   0.823
15139SOL    HW147314   1.117  10.848   0.822
15139SOL    HW247315   1.186  10.735   0.749
15140SOL     OW47316   0.509   2.973   2.402
15140SOL    HW147317   0.415   2.960   2.386
15140SOL    HW247318   0.533   2.898   2.457
15141SOL     OW47319  12.166  13.324   5.628
15141SOL    HW147320  12.251  13.366   5.643
15141SOL    HW247321  12.160  13.256   5.695
15142SOL     OW47322   4.825  14.824   4.292
15142SOL    HW147323   4.771   0.023   4.331
15142SOL    HW247324   4.845  14.765   4.365
15143SOL     OW47325   4.596  14.219   6.754
15143SOL    HW147326   4.677  14.172   6.734
15143SOL    HW247327   4.592  14.220   6.850
15144SOL     OW47328  14.418  11.015  11.372
15144SOL    HW147329  14.341  10.965  11.400
15144SOL    HW247330  14.434  10.985  11.282
15145SOL     OW47331  11.110   9.936  10.955
15145SOL    HW147332  11.111   9.996  10.881
15145SOL    HW247333  11.068   9.857  10.921
15146SOL     OW47334   9.597   1.530   7.690
15146SOL    HW147335   9.601   1.480   7.609
15146SOL    HW247336   9.581   1.620   7.662
15147SOL     OW47337   9.967   2.740   7.127
15147SOL    HW147338   9.896   2.803   7.112
15147SOL    HW247339  10.043   2.794   7.147
15148SOL     OW47340   4.322  12.144   9.970
15148SOL    HW147341   4.270  12.069  10.000
15148SOL    HW247342   4.371  12.172  10.047
15149SOL     OW47343   7.844   1.215   1.619
15149SOL    HW147344   7.851   1.246   1.529
15149SOL    HW247345   7.874   1.124   1.616
15150SOL     OW47346  13.672   9.764   5.939
15150SOL    HW147347  13.636   9.789   5.854
15150SOL    HW247348  13.699   9.847   5.978
15151SOL     OW47349   6.476   9.614  13.243
15151SOL    HW147350   6.403   9.613  13.305
15151SOL    HW247351   6.533   9.685  13.273
15152SOL     OW47352  12.347  14.640   3.626
15152SOL    HW147353  12.306  14.725   3.642
15152SOL    HW247354  12.298  14.602   3.553
15153SOL     OW47355   3.583   5.395  13.632
15153SOL    HW147356   3.512   5.356  13.683
15153SOL    HW247357   3.594   5.482  13.669
15154SOL     OW47358   1.550  13.942  13.434
15154SOL    HW147359   1.616  13.931  13.502
15154SOL    HW247360   1.571  13.874  13.369
15155SOL     OW47361  14.135   2.553   0.851
15155SOL    HW147362  14.081   2.627   0.822
15155SOL    HW247363  14.099   2.530   0.937
15156SOL     OW47364   7.596  11.365  12.465
15156SOL    HW147365   7.619  11.279  12.501
15156SOL    HW247366   7.501  11.365  12.461
15157SOL     OW47367   4.314  11.956   0.023
15157SOL    HW147368   4.346  11.892   0.086
15157SOL    HW247369   4.231  11.920  14.862
15158SOL     OW47370  11.052  14.811   8.346
15158SOL    HW147371  11.127  14.760   8.374
15158SOL    HW247372  11.078  14.845   8.260
15159SOL     OW47373   5.035   9.168   0.046
15159SOL    HW147374   4.965   9.201   0.102
15159SOL    HW247375   4.989   9.135  14.838
15160SOL     OW47376  12.751   9.957   9.465
15160SOL    HW147377  12.771   9.974   9.372
15160SOL    HW247378  12.834   9.975   9.510
15161SOL     OW47379   1.220   2.183   8.719
15161SOL    HW147380   1.166   2.145   8.788
15161SOL    HW247381   1.202   2.277   8.724
15162SOL     OW47382   3.582   7.374   1.293
15162SOL    HW147383   3.570   7.436   1.365
15162SOL    HW247384   3.560   7.425   1.215
15163SOL     OW47385   2.383  14.765  10.287
15163SOL    HW147386   2.311  14.714  10.324
15163SOL    HW247387   2.462  14.717  10.313
15164SOL     OW47388   0.650   4.337   9.978
15164SOL    HW147389   0.709   4.379  10.041
15164SOL    HW247390   0.693   4.350   9.894
15165SOL     OW47391   6.470  13.454   1.665
15165SOL    HW147392   6.496  13.400   1.740
15165SOL    HW247393   6.382  13.484   1.686
15166SOL     OW47394   0.290  14.066   9.233
15166SOL    HW147395   0.303  13.977   9.201
15166SOL    HW247396   0.206  14.063   9.279
15167SOL     OW47397  13.217   5.413   5.954
15167SOL    HW147398  13.269   5.357   6.011
15167SOL    HW247399  13.177   5.353   5.891
15168SOL     OW47400   0.667   8.386  10.064
15168SOL    HW147401   0.651   8.293  10.046
15168SOL    HW247402   0.605   8.433  10.008
15169SOL     OW47403  10.767   4.258   5.209
15169SOL    HW147404  10.730   4.342   5.182
15169SOL    HW247405  10.731   4.243   5.296
15170SOL     OW47406   4.944  12.197   6.660
15170SOL    HW147407   4.902  12.154   6.586
15170SOL    HW247408   4.874  12.244   6.705
15171SOL     OW47409   0.297  11.433  13.024
15171SOL    HW147410   0.248  11.503  13.067
15171SOL    HW247411   0.344  11.389  13.095
15172SOL     OW47412   3.580   7.574   7.557
15172SOL    HW147413   3.673   7.554   7.571
15172SOL    HW247414   3.548   7.596   7.645
15173SOL     OW47415   4.442   8.310  14.632
15173SOL    HW147416   4.532   8.327  14.605
15173SOL    HW247417   4.450   8.256  14.711
15174SOL     OW47418   6.510   5.028   0.361
15174SOL    HW147419   6.557   4.998   0.283
15174SOL    HW247420   6.424   5.054   0.328
15175SOL     OW47421  12.591  13.518  14.464
15175SOL    HW147422  12.644  13.593  14.437
15175SOL    HW247423  12.506  13.555  14.486
15176SOL     OW47424   7.218   9.148  13.740
15176SOL    HW147425   7.304   9.132  13.778
15176SOL    HW247426   7.197   9.238  13.765
15177SOL     OW47427   3.755  10.264  14.375
15177SOL    HW147428   3.743  10.169  14.371
15177SOL    HW247429   3.677  10.300  14.333
15178SOL     OW47430  12.078   0.168   9.004
15178SOL    HW147431  12.156   0.157   9.058
15178SOL    HW247432  12.006   0.144   9.062
15179SOL     OW47433   3.059   3.523   7.372
15179SOL    HW147434   3.116   3.455   7.337
15179SOL    HW247435   2.970   3.492   7.353
15180SOL     OW47436   1.920   1.252   5.423
15180SOL    HW147437   1.966   1.198   5.487
15180SOL    HW247438   1.984   1.317   5.394
15181SOL     OW47439  12.950  12.448   3.702
15181SOL    HW147440  13.027  12.504   3.690
15181SOL    HW247441  12.966  12.402   3.784
15182SOL     OW47442   0.097  14.352   7.949
15182SOL    HW147443   0.152  14.277   7.924
15182SOL    HW247444   0.108  14.414   7.877
15183SOL     OW47445   2.212   7.405  13.766
15183SOL    HW147446   2.294   7.449  13.784
15183SOL    HW247447   2.152   7.475  13.740
15184SOL     OW47448   4.580   4.573   1.485
15184SOL    HW147449   4.646   4.641   1.471
15184SOL    HW247450   4.584   4.519   1.407
15185SOL     OW47451  13.965   9.043  14.429
15185SOL    HW147452  14.039   9.102  14.443
15185SOL    HW247453  13.888   9.097  14.444
15186SOL     OW47454   9.830  11.723   9.071
15186SOL    HW147455   9.852  11.814   9.091
15186SOL    HW247456   9.858  11.712   8.980
15187SOL     OW47457   2.716   3.262   8.988
15187SOL    HW147458   2.637   3.211   9.003
15187SOL    HW247459   2.686   3.339   8.939
15188SOL     OW47460   8.415  11.769   3.624
15188SOL    HW147461   8.334  11.788   3.578
15188SOL    HW247462   8.412  11.675   3.642
15189SOL     OW47463   2.745  10.940  14.184
15189SOL    HW147464   2.690  10.950  14.262
15189SOL    HW247465   2.821  10.891  14.215
15190SOL     OW47466   3.636  11.713   5.536
15190SOL    HW147467   3.623  11.644   5.601
15190SOL    HW247468   3.586  11.684   5.460
15191SOL     OW47469  14.493  11.842  13.264
15191SOL    HW147470  14.552  11.868  13.335
15191SOL    HW247471  14.489  11.919  13.208
15192SOL     OW47472   2.235   1.868  13.628
15192SOL    HW147473   2.269   1.931  13.565
15192SOL    HW247474   2.304   1.860  13.694
15193SOL     OW47475   3.704   5.589   4.856
15193SOL    HW147476   3.785   5.575   4.808
15193SOL    HW247477   3.678   5.678   4.833
15194SOL     OW47478   8.288   2.286  11.247
15194SOL    HW147479   8.371   2.320  11.213
15194SOL    HW247480   8.301   2.192  11.252
15195SOL     OW47481   4.403   0.968   4.472
15195SOL    HW147482   4.322   0.920   4.489
15195SOL    HW247483   4.413   0.965   4.377
15196SOL     OW47484  14.561   6.034   3.769
15196SOL    HW147485  14.632   5.975   3.744
15196SOL    HW247486  14.504   6.036   3.692
15197SOL     OW47487   2.177  14.742   1.467
15197SOL    HW147488   2.131  14.750   1.384
15197SOL    HW247489   2.158  14.654   1.498
15198SOL     OW47490  11.107   1.400   0.886
15198SOL    HW147491  11.074   1.373   0.800
15198SOL    HW247492  11.045   1.467   0.915
15199SOL     OW47493   4.480   4.867   1.986
15199SOL    HW147494   4.472   4.785   1.938
15199SOL    HW247495   4.393   4.906   1.982
15200SOL     OW47496   6.706  10.673   3.135
15200SOL    HW147497   6.660  10.684   3.218
15200SOL    HW247498   6.692  10.756   3.088
15201SOL     OW47499  10.245  12.998   8.083
15201SOL    HW147500  10.235  12.981   8.176
15201SOL    HW247501  10.337  13.022   8.072
15202SOL     OW47502   8.055   3.546   2.988
15202SOL    HW147503   8.043   3.628   2.941
15202SOL    HW247504   7.973   3.533   3.035
15203SOL     OW47505   8.790   0.039   5.596
15203SOL    HW147506   8.778   0.120   5.646
15203SOL    HW247507   8.741  14.843   5.644
15204SOL     OW47508   2.382   0.868  13.600
15204SOL    HW147509   2.341   0.923  13.667
15204SOL    HW247510   2.412   0.929  13.533
15205SOL     OW47511   0.451   3.915   9.426
15205SOL    HW147512   0.536   3.874   9.444
15205SOL    HW247513   0.461   3.953   9.339
15206SOL     OW47514  13.974   1.915  13.934
15206SOL    HW147515  13.985   1.944  14.024
15206SOL    HW247516  14.063   1.900  13.902
15207SOL     OW47517  10.532   6.430   9.016
15207SOL    HW147518  10.619   6.458   9.045
15207SOL    HW247519  10.542   6.337   8.998
15208SOL     OW47520  13.021  10.385  11.787
15208SOL    HW147521  13.105  10.424  11.811
15208SOL    HW247522  12.977  10.369  11.871
15209SOL     OW47523   4.200  14.029  10.562
15209SOL    HW147524   4.253  14.093  10.514
15209SOL    HW247525   4.251  13.948  10.557
15210SOL     OW47526   6.080   1.536   1.580
15210SOL    HW147527   6.070   1.487   1.499
15210SOL    HW247528   5.991   1.562   1.605
15211SOL     OW47529   9.199  11.036  13.628
15211SOL    HW147530   9.164  11.090  13.557
15211SOL    HW247531   9.144  11.056  13.703
15212SOL     OW47532   2.474  13.467   2.040
15212SOL    HW147533   2.527  13.521   1.982
15212SOL    HW247534   2.476  13.380   2.001
15213SOL     OW47535   0.577  10.726   6.262
15213SOL    HW147536   0.669  10.748   6.279
15213SOL    HW247537   0.576  10.701   6.169
15214SOL     OW47538   1.098   0.524   1.080
15214SOL    HW147539   1.049   0.523   1.162
15214SOL    HW247540   1.173   0.466   1.097
15215SOL     OW47541   3.134   2.706  12.154
15215SOL    HW147542   3.133   2.801  12.162
15215SOL    HW247543   3.086   2.688  12.073
15216SOL     OW47544   2.246   6.649  10.093
15216SOL    HW147545   2.260   6.741  10.115
15216SOL    HW247546   2.329   6.621  10.054
15217SOL     OW47547  14.353   1.930   2.881
15217SOL    HW147548  14.267   1.887   2.886
15217SOL    HW247549  14.416   1.860   2.900
15218SOL     OW47550  11.423   3.533   8.518
15218SOL    HW147551  11.338   3.488   8.520
15218SOL    HW247552  11.408   3.611   8.464
15219SOL     OW47553  11.377   0.006  13.480
15219SOL    HW147554  11.360   0.096  13.507
15219SOL    HW247555  11.290  14.836  13.474
15220SOL     OW47556  12.559   9.570   2.938
15220SOL    HW147557  12.600   9.509   2.878
15220SOL    HW247558  12.596   9.549   3.024
15221SOL     OW47559  11.488   9.160  10.387
15221SOL    HW147560  11.474   9.080  10.335
15221SOL    HW247561  11.412   9.215  10.367
15222SOL     OW47562   2.598  12.984   3.124
15222SOL    HW147563   2.641  12.952   3.203
15222SOL    HW247564   2.524  13.035   3.155
15223SOL     OW47565  13.446  13.331   9.320
15223SOL    HW147566  13.420  13.275   9.246
15223SOL    HW247567  13.365  13.349   9.366
15224SOL     OW47568  10.256   5.672   6.383
15224SOL    HW147569  10.164   5.651   6.399
15224SOL    HW247570  10.291   5.593   6.341
15225SOL     OW47571  11.792   7.498   3.781
15225SOL    HW147572  11.699   7.481   3.800
15225SOL    HW247573  11.830   7.516   3.867
15226SOL     OW47574   6.928  13.886   9.689
15226SOL    HW147575   7.010  13.931   9.709
15226SOL    HW247576   6.882  13.881   9.773
15227SOL     OW47577   5.517   3.832   2.837
15227SOL    HW147578   5.534   3.778   2.760
15227SOL    HW247579   5.601   3.838   2.882
15228SOL     OW47580   1.417  14.385   3.498
15228SOL    HW147581   1.476  14.417   3.566
15228SOL    HW247582   1.336  14.365   3.545
15229SOL     OW47583   5.324   0.362   5.209
15229SOL    HW147584   5.306   0.447   5.249
15229SOL    HW247585   5.371   0.313   5.276
15230SOL     OW47586   6.410   0.111   0.304
15230SOL    HW147587   6.435   0.029   0.347
15230SOL    HW247588   6.389   0.086   0.214
15231SOL     OW47589   9.823   0.599   1.521
15231SOL    HW147590   9.785   0.550   1.448
15231SOL    HW247591   9.911   0.562   1.531
15232SOL     OW47592   7.108   2.594   8.863
15232SOL    HW147593   7.093   2.593   8.769
15232SOL    HW247594   7.160   2.516   8.881
15233SOL     OW47595  11.462   7.289   6.322
15233SOL    HW147596  11.523   7.236   6.372
15233SOL    HW247597  11.381   7.238   6.320
15234SOL     OW47598  10.269   0.518   8.499
15234SOL    HW147599  10.350   0.488   8.541
15234SOL    HW247600  10.199   0.468   8.541
15235SOL     OW47601  12.773  12.818   9.121
15235SOL    HW147602  12.867  12.832   9.135
15235SOL    HW247603  12.758  12.851   9.032
15236SOL     OW47604   2.751  14.718  10.503
15236SOL    HW147605   2.726  14.697  10.593
15236SOL    HW247606   2.753  14.814  10.500
15237SOL     OW47607   1.276   7.799   0.138
15237SOL    HW147608   1.261   7.741   0.212
15237SOL    HW247609   1.347   7.759   0.089
15238SOL     OW47610  13.889  14.353   7.012
15238SOL    HW147611  13.919  14.368   6.922
15238SOL    HW247612  13.821  14.418   7.026
15239SOL     OW47613   9.664   4.327  13.859
15239SOL    HW147614   9.690   4.359  13.945
15239SOL    HW247615   9.655   4.406  13.805
15240SOL     OW47616  14.098  12.018  11.592
15240SOL    HW147617  14.050  11.997  11.512
15240SOL    HW247618  14.139  12.102  11.573
15241SOL     OW47619   1.309   5.774   4.765
15241SOL    HW147620   1.218   5.793   4.788
15241SOL    HW247621   1.343   5.722   4.838
15242SOL     OW47622   0.590   1.050   3.735
15242SOL    HW147623   0.678   1.067   3.767
15242SOL    HW247624   0.596   1.063   3.640
15243SOL     OW47625  14.086   0.027   6.004
15243SOL    HW147626  14.157  14.852   5.959
15243SOL    HW247627  14.006  14.864   5.962
15244SOL     OW47628   8.487   9.072   5.100
15244SOL    HW147629   8.578   9.055   5.076
15244SOL    HW247630   8.489   9.078   5.196
15245SOL     OW47631   5.610  12.571  13.778
15245SOL    HW147632   5.564  12.599  13.857
15245SOL    HW247633   5.568  12.488  13.754
15246SOL     OW47634   4.668  12.177  14.201
15246SOL    HW147635   4.643  12.202  14.290
15246SOL    HW247636   4.631  12.089  14.189
15247SOL     OW47637  13.503   8.134   3.837
15247SOL    HW147638  13.556   8.099   3.766
15247SOL    HW247639  13.413   8.117   3.809
15248SOL     OW47640  12.715   2.129   0.874
15248SOL    HW147641  12.633   2.080   0.864
15248SOL    HW247642  12.713   2.194   0.804
15249SOL     OW47643  10.635   3.371   9.477
15249SOL    HW147644  10.715   3.323   9.457
15249SOL    HW247645  10.594   3.321   9.547
15250SOL     OW47646   3.365   6.326   0.024
15250SOL    HW147647   3.354   6.357  14.804
15250SOL    HW247648   3.284   6.350   0.068
15251SOL     OW47649  13.537   9.538   0.323
15251SOL    HW147650  13.538   9.585   0.239
15251SOL    HW247651  13.501   9.452   0.301
15252SOL     OW47652   0.161   0.211   0.272
15252SOL    HW147653   0.115   0.279   0.221
15252SOL    HW247654   0.229   0.259   0.319
15253SOL     OW47655   6.750   8.376   4.292
15253SOL    HW147656   6.832   8.354   4.249
15253SOL    HW247657   6.689   8.393   4.220
15254SOL     OW47658   3.447   7.172  10.614
15254SOL    HW147659   3.511   7.178  10.686
15254SOL    HW247660   3.475   7.096  10.564
15255SOL     OW47661   8.830   2.190   1.565
15255SOL    HW147662   8.924   2.193   1.583
15255SOL    HW247663   8.824   2.197   1.469
15256SOL     OW47664   1.692   5.171   4.533
15256SOL    HW147665   1.652   5.094   4.494
15256SOL    HW247666   1.696   5.235   4.462
15257SOL     OW47667   6.807   5.943   7.832
15257SOL    HW147668   6.850   5.899   7.759
15257SOL    HW247669   6.866   6.016   7.853
15258SOL     OW47670   8.874   2.764   6.920
15258SOL    HW147671   8.924   2.782   7.000
15258SOL    HW247672   8.794   2.816   6.929
15259SOL     OW47673   5.760  10.582   6.700
15259SOL    HW147674   5.812  10.524   6.645
15259SOL    HW247675   5.776  10.669   6.665
15260SOL     OW47676  10.018   4.784  10.721
15260SOL    HW147677  10.052   4.748  10.803
15260SOL    HW247678  10.093   4.827  10.680
15261SOL     OW47679   3.836  12.359   1.243
15261SOL    HW147680   3.761  12.394   1.290
15261SOL    HW247681   3.899  12.432   1.241
15262SOL     OW47682  11.151   8.005   2.843
15262SOL    HW147683  11.201   8.038   2.917
15262SOL    HW247684  11.139   8.081   2.786
15263SOL     OW47685   0.028  14.079   6.076
15263SOL    HW147686   0.075  14.093   5.994
15263SOL    HW247687   0.096  14.074   6.143
15264SOL     OW47688   0.365   3.088  11.838
15264SOL    HW147689   0.272   3.075  11.822
15264SOL    HW247690   0.408   3.011  11.801
15265SOL     OW47691   4.732  13.457  10.734
15265SOL    HW147692   4.659  13.399  10.758
15265SOL    HW247693   4.761  13.494  10.818
15266SOL     OW47694   4.167   6.807   3.908
15266SOL    HW147695   4.105   6.842   3.845
15266SOL    HW247696   4.133   6.720   3.930
15267SOL     OW47697   6.031   6.877   4.733
15267SOL    HW147698   6.072   6.946   4.786
15267SOL    HW247699   5.944   6.865   4.771
15268SOL     OW47700   7.210   7.899  10.525
15268SOL    HW147701   7.225   7.857  10.610
15268SOL    HW247702   7.287   7.956  10.513
15269SOL     OW47703  14.333  14.461   9.749
15269SOL    HW147704  14.322  14.418   9.834
15269SOL    HW247705  14.246  14.459   9.709
15270SOL     OW47706  12.580   8.957  12.531
15270SOL    HW147707  12.501   9.010  12.528
15270SOL    HW247708  12.619   8.978  12.616
15271SOL     OW47709   1.225  12.713   7.179
15271SOL    HW147710   1.172  12.735   7.256
15271SOL    HW247711   1.184  12.761   7.107
15272SOL     OW47712   1.522   5.256  12.175
15272SOL    HW147713   1.562   5.330  12.130
15272SOL    HW247714   1.538   5.181  12.117
15273SOL     OW47715   7.966   9.722  13.093
15273SOL    HW147716   8.040   9.676  13.053
15273SOL    HW247717   7.990   9.815  13.087
15274SOL     OW47718   6.732   6.550   7.038
15274SOL    HW147719   6.688   6.617   7.091
15274SOL    HW247720   6.786   6.599   6.976
15275SOL     OW47721   9.627  12.094   8.807
15275SOL    HW147722   9.634  12.113   8.901
15275SOL    HW247723   9.545  12.045   8.799
15276SOL     OW47724   0.961   4.268   9.598
15276SOL    HW147725   0.924   4.291   9.512
15276SOL    HW247726   0.891   4.287   9.660
15277SOL     OW47727   9.735   2.331  13.818
15277SOL    HW147728   9.695   2.409  13.779
15277SOL    HW247729   9.690   2.321  13.902
15278SOL     OW47730   9.555   3.409  12.672
15278SOL    HW147731   9.480   3.377  12.622
15278SOL    HW247732   9.528   3.400  12.763
15279SOL     OW47733   0.922  14.498  14.626
15279SOL    HW147734   0.914  14.412  14.584
15279SOL    HW247735   0.994  14.486  14.689
15280SOL     OW47736   5.752   3.772   8.159
15280SOL    HW147737   5.733   3.691   8.112
15280SOL    HW247738   5.674   3.788   8.212
15281SOL     OW47739  13.815   5.699   9.752
15281SOL    HW147740  13.883   5.638   9.780
15281SOL    HW247741  13.762   5.715   9.831
15282SOL     OW47742   1.995  14.238   5.064
15282SOL    HW147743   2.067  14.194   5.109
15282SOL    HW247744   1.971  14.178   4.993
15283SOL     OW47745   6.570  13.081  14.562
15283SOL    HW147746   6.558  13.122  14.477
15283SOL    HW247747   6.526  12.996  14.555
15284SOL     OW47748   8.184   7.440   3.933
15284SOL    HW147749   8.144   7.463   3.849
15284SOL    HW247750   8.277   7.433   3.913
15285SOL     OW47751   1.436  11.140  12.119
15285SOL    HW147752   1.464  11.231  12.128
15285SOL    HW247753   1.347  11.138  12.153
15286SOL     OW47754   3.163   6.283   3.295
15286SOL    HW147755   3.108   6.215   3.334
15286SOL    HW247756   3.207   6.241   3.222
15287SOL     OW47757   5.813   1.622   3.173
15287SOL    HW147758   5.802   1.527   3.178
15287SOL    HW247759   5.908   1.635   3.171
15288SOL     OW47760   3.836   4.706  14.335
15288SOL    HW147761   3.849   4.776  14.270
15288SOL    HW247762   3.895   4.636  14.306
15289SOL     OW47763   3.778  11.470   9.007
15289SOL    HW147764   3.838  11.535   8.971
15289SOL    HW247765   3.710  11.521   9.051
15290SOL     OW47766  14.678  12.190   1.089
15290SOL    HW147767  14.730  12.264   1.056
15290SOL    HW247768  14.587  12.217   1.077
15291SOL     OW47769   1.406  12.094  14.643
15291SOL    HW147770   1.424  12.185  14.620
15291SOL    HW247771   1.376  12.054  14.561
15292SOL     OW47772   7.949   2.631   4.423
15292SOL    HW147773   7.959   2.617   4.329
15292SOL    HW247774   7.854   2.627   4.437
15293SOL     OW47775   5.992   1.942  10.376
15293SOL    HW147776   5.913   1.976  10.335
15293SOL    HW247777   6.040   2.019  10.404
15294SOL     OW47778  13.266  13.371   7.219
15294SOL    HW147779  13.333  13.304   7.210
15294SOL    HW247780  13.296  13.443   7.164
15295SOL     OW47781   3.075   0.222   8.782
15295SOL    HW147782   3.030   0.150   8.826
15295SOL    HW247783   3.060   0.298   8.838
15296SOL     OW47784  11.929   0.419   2.862
15296SOL    HW147785  12.004   0.469   2.895
15296SOL    HW247786  11.854   0.476   2.880
15297SOL     OW47787  10.469  13.178   4.616
15297SOL    HW147788  10.402  13.177   4.548
15297SOL    HW247789  10.422  13.156   4.697
15298SOL     OW47790   3.577   9.679  11.284
15298SOL    HW147791   3.631   9.754  11.309
15298SOL    HW247792   3.499   9.687  11.338
15299SOL     OW47793  10.604  13.778   5.411
15299SOL    HW147794  10.511  13.758   5.403
15299SOL    HW247795  10.607  13.871   5.433
15300SOL     OW47796   6.320  13.602   8.150
15300SOL    HW147797   6.302  13.694   8.135
15300SOL    HW247798   6.275  13.556   8.078
15301SOL     OW47799  11.287   5.317   8.741
15301SOL    HW147800  11.294   5.222   8.731
15301SOL    HW247801  11.215   5.342   8.684
15302SOL     OW47802   3.733  12.858   2.710
15302SOL    HW147803   3.663  12.923   2.704
15302SOL    HW247804   3.814  12.909   2.710
15303SOL     OW47805   0.612   4.114  11.875
15303SOL    HW147806   0.627   4.209  11.880
15303SOL    HW247807   0.685   4.076  11.923
15304SOL     OW47808  14.592  13.907  12.700
15304SOL    HW147809  14.596  13.847  12.626
15304SOL    HW247810  14.532  13.976  12.672
15305SOL     OW47811   6.312   9.779  10.280
15305SOL    HW147812   6.255   9.711  10.316
15305SOL    HW247813   6.354   9.737  10.204
15306SOL     OW47814  12.029  10.552   9.180
15306SOL    HW147815  12.069  10.631   9.143
15306SOL    HW247816  11.987  10.581   9.261
15307SOL     OW47817   9.967   5.316  11.565
15307SOL    HW147818  10.033   5.253  11.594
15307SOL    HW247819  10.014   5.379  11.512
15308SOL     OW47820   7.199  10.889   9.054
15308SOL    HW147821   7.190  10.951   8.982
15308SOL    HW247822   7.205  10.803   9.012
15309SOL     OW47823  14.287   2.554   9.587
15309SOL    HW147824  14.322   2.494   9.652
15309SOL    HW247825  14.244   2.497   9.523
15310SOL     OW47826   9.386   6.454   7.270
15310SOL    HW147827   9.442   6.520   7.230
15310SOL    HW247828   9.297   6.480   7.246
15311SOL     OW47829   0.391   5.143  12.723
15311SOL    HW147830   0.430   5.056  12.711
15311SOL    HW247831   0.321   5.129  12.787
15312SOL     OW47832   8.712  13.699   8.446
15312SOL    HW147833   8.716  13.793   8.465
15312SOL    HW247834   8.774  13.660   8.508
15313SOL     OW47835   4.866  14.318   2.602
15313SOL    HW147836   4.864  14.237   2.551
15313SOL    HW247837   4.910  14.381   2.545
15314SOL     OW47838  11.585   1.694   6.293
15314SOL    HW147839  11.597   1.701   6.387
15314SOL    HW247840  11.491   1.681   6.281
15315SOL     OW47841   5.524   7.441  13.887
15315SOL    HW147842   5.481   7.481  13.811
15315SOL    HW247843   5.604   7.492  13.899
15316SOL     OW47844   7.096   8.867  14.374
15316SOL    HW147845   7.013   8.887  14.416
15316SOL    HW247846   7.085   8.778  14.340
15317SOL     OW47847   5.727  10.765   5.139
15317SOL    HW147848   5.804  10.801   5.181
15317SOL    HW247849   5.654  10.815   5.175
15318SOL     OW47850  13.695   1.024   6.878
15318SOL    HW147851  13.751   0.950   6.856
15318SOL    HW247852  13.623   0.986   6.928
15319SOL     OW47853   5.502   2.541   5.412
15319SOL    HW147854   5.526   2.465   5.359
15319SOL    HW247855   5.411   2.559   5.389
15320SOL     OW47856   3.791  12.713  10.389
15320SOL    HW147857   3.832  12.783  10.337
15320SOL    HW247858   3.779  12.641  10.327
15321SOL     OW47859   3.922   7.253  13.091
15321SOL    HW147860   3.947   7.175  13.040
15321SOL    HW247861   4.000   7.309  13.087
15322SOL     OW47862   1.151  13.450  13.626
15322SOL    HW147863   1.107  13.437  13.542
15322SOL    HW247864   1.219  13.515  13.609
15323SOL     OW47865  12.400  10.693  14.335
15323SOL    HW147866  12.418  10.687  14.429
15323SOL    HW247867  12.388  10.786  14.318
15324SOL     OW47868  10.334   1.181   6.267
15324SOL    HW147869  10.376   1.097   6.288
15324SOL    HW247870  10.285   1.204   6.345
15325SOL     OW47871   4.369  12.344   9.751
15325SOL    HW147872   4.369  12.329   9.657
15325SOL    HW247873   4.329  12.264   9.788
15326SOL     OW47874  14.414  10.877   8.423
15326SOL    HW147875  14.417  10.955   8.479
15326SOL    HW247876  14.387  10.807   8.482
15327SOL     OW47877   7.980   6.297  12.940
15327SOL    HW147878   8.034   6.218  12.943
15327SOL    HW247879   8.028   6.361  12.993
15328SOL     OW47880  14.466  10.450  14.747
15328SOL    HW147881  14.445  10.480  14.658
15328SOL    HW247882  14.380  10.434  14.787
15329SOL     OW47883   8.545   8.401   4.522
15329SOL    HW147884   8.558   8.367   4.433
15329SOL    HW247885   8.451   8.395   4.537
15330SOL     OW47886  10.626  14.643  12.940
15330SOL    HW147887  10.712  14.682  12.924
15330SOL    HW247888  10.584  14.702  13.002
15331SOL     OW47889   1.084   4.011  11.477
15331SOL    HW147890   1.178   4.011  11.457
15331SOL    HW247891   1.073   4.083  11.539
15332SOL     OW47892   4.452   5.718  12.256
15332SOL    HW147893   4.421   5.677  12.337
15332SOL    HW247894   4.442   5.650  12.189
15333SOL     OW47895  13.587   8.491   4.884
15333SOL    HW147896  13.651   8.551   4.920
15333SOL    HW247897  13.516   8.547   4.852
15334SOL     OW47898   0.484  10.900   1.990
15334SOL    HW147899   0.463  10.908   1.897
15334SOL    HW247900   0.577  10.918   1.996
15335SOL     OW47901   7.865   1.838  12.148
15335SOL    HW147902   7.908   1.824  12.232
15335SOL    HW247903   7.849   1.750  12.114
15336SOL     OW47904  11.526   2.575   8.314
15336SOL    HW147905  11.547   2.665   8.291
15336SOL    HW247906  11.434   2.565   8.289
15337SOL     OW47907   6.614   9.850   1.505
15337SOL    HW147908   6.534   9.893   1.535
15337SOL    HW247909   6.652   9.910   1.441
15338SOL     OW47910   3.748  14.405   2.388
15338SOL    HW147911   3.791  14.383   2.305
15338SOL    HW247912   3.655  14.410   2.366
15339SOL     OW47913  12.634   2.363   0.681
15339SOL    HW147914  12.584   2.442   0.663
15339SOL    HW247915  12.725   2.387   0.664
15340SOL     OW47916   6.978   8.839   9.343
15340SOL    HW147917   7.031   8.913   9.371
15340SOL    HW247918   6.900   8.843   9.398
15341SOL     OW47919   5.844  14.176   8.290
15341SOL    HW147920   5.879  14.250   8.240
15341SOL    HW247921   5.753  14.200   8.309
15342SOL     OW47922   0.411  12.342   4.911
15342SOL    HW147923   0.474  12.392   4.963
15342SOL    HW247924   0.368  12.284   4.973
15343SOL     OW47925   8.231   8.101  10.227
15343SOL    HW147926   8.315   8.137  10.255
15343SOL    HW247927   8.166   8.159  10.266
15344SOL     OW47928   3.019   1.739  13.631
15344SOL    HW147929   2.976   1.794  13.697
15344SOL    HW247930   2.958   1.666  13.617
15345SOL     OW47931   5.664   7.558  10.642
15345SOL    HW147932   5.710   7.557  10.558
15345SOL    HW247933   5.726   7.596  10.704
15346SOL     OW47934   1.166  13.404   8.233
15346SOL    HW147935   1.077  13.392   8.265
15346SOL    HW247936   1.183  13.327   8.179
15347SOL     OW47937   1.327  12.760   3.341
15347SOL    HW147938   1.421  12.757   3.358
15347SOL    HW247939   1.290  12.802   3.419
15348SOL     OW47940   9.113   9.301   5.690
15348SOL    HW147941   9.140   9.362   5.621
15348SOL    HW247942   9.123   9.350   5.771
15349SOL     OW47943  10.577   3.050   9.564
15349SOL    HW147944  10.606   2.975   9.616
15349SOL    HW247945  10.487   3.027   9.539
15350SOL     OW47946   4.979   8.178   0.651
15350SOL    HW147947   5.019   8.248   0.702
15350SOL    HW247948   5.053   8.133   0.610
15351SOL     OW47949   1.460   9.612   9.893
15351SOL    HW147950   1.423   9.600   9.806
15351SOL    HW247951   1.543   9.656   9.879
15352SOL     OW47952   3.607   9.701  13.174
15352SOL    HW147953   3.701   9.691  13.183
15352SOL    HW247954   3.582   9.760  13.245
15353SOL     OW47955   8.438   0.409  12.292
15353SOL    HW147956   8.496   0.435  12.220
15353SOL    HW247957   8.484   0.436  12.371
15354SOL     OW47958  12.013  10.242  11.634
15354SOL    HW147959  12.006  10.151  11.665
15354SOL    HW247960  11.924  10.277  11.641
15355SOL     OW47961   4.402   7.654   6.913
15355SOL    HW147962   4.355   7.738   6.913
15355SOL    HW247963   4.379   7.614   6.997
15356SOL     OW47964  14.210   9.810   7.694
15356SOL    HW147965  14.296   9.790   7.658
15356SOL    HW247966  14.169   9.725   7.709
15357SOL     OW47967  12.203   3.638   7.681
15357SOL    HW147968  12.253   3.718   7.696
15357SOL    HW247969  12.185   3.604   7.769
15358SOL     OW47970   0.792   5.228  11.897
15358SOL    HW147971   0.862   5.224  11.962
15358SOL    HW247972   0.811   5.307  11.845
15359SOL     OW47973  11.783  11.593   3.239
15359SOL    HW147974  11.717  11.523   3.233
15359SOL    HW247975  11.850  11.558   3.297
15360SOL     OW47976   1.893  10.277  12.189
15360SOL    HW147977   1.933  10.265  12.275
15360SOL    HW247978   1.841  10.197  12.175
15361SOL     OW47979   5.949  11.441   1.272
15361SOL    HW147980   5.946  11.536   1.268
15361SOL    HW247981   5.857  11.415   1.283
15362SOL     OW47982   9.068  11.216   5.481
15362SOL    HW147983   9.052  11.239   5.573
15362SOL    HW247984   9.161  11.193   5.478
15363SOL     OW47985   2.681   7.085   9.528
15363SOL    HW147986   2.592   7.094   9.495
15363SOL    HW247987   2.731   7.049   9.455
15364SOL     OW47988   6.533  14.573   0.853
15364SOL    HW147989   6.606  14.588   0.913
15364SOL    HW247990   6.565  14.507   0.792
15365SOL     OW47991   7.826  14.021   9.471
15365SOL    HW147992   7.741  14.045   9.434
15365SOL    HW247993   7.869  14.104   9.490
15366SOL     OW47994   3.959   1.961  10.599
15366SOL    HW147995   3.868   1.930  10.593
15366SOL    HW247996   3.990   1.926  10.683
15367SOL     OW47997  13.149  13.827   6.513
15367SOL    HW147998  13.185  13.807   6.427
15367SOL    HW247999  13.064  13.782   6.514
15368SOL     OW48000  10.794   2.718   7.758
15368SOL    HW148001  10.867   2.713   7.820
15368SOL    HW248002  10.826   2.777   7.689
15369SOL     OW48003  13.752  13.668   6.605
15369SOL    HW148004  13.671  13.706   6.573
15369SOL    HW248005  13.819  13.702   6.545
15370SOL     OW48006   0.424  11.280   3.819
15370SOL    HW148007   0.495  11.343   3.807
15370SOL    HW248008   0.400  11.254   3.729
15371SOL     OW48009  13.957   0.436  14.423
15371SOL    HW148010  13.938   0.391  14.506
15371SOL    HW248011  14.028   0.496  14.444
15372SOL     OW48012   5.122   6.486   3.881
15372SOL    HW148013   5.207   6.524   3.858
15372SOL    HW248014   5.136   6.391   3.873
15373SOL     OW48015  13.102  12.208   8.664
15373SOL    HW148016  13.102  12.289   8.613
15373SOL    HW248017  13.012  12.175   8.656
15374SOL     OW48018   7.623  10.872   1.107
15374SOL    HW148019   7.641  10.958   1.146
15374SOL    HW248020   7.641  10.809   1.177
15375SOL     OW48021   5.552   0.373  14.693
15375SOL    HW148022   5.635   0.328  14.678
15375SOL    HW248023   5.499   0.311  14.743
15376SOL     OW48024   2.743   7.794   1.936
15376SOL    HW148025   2.837   7.790   1.915
15376SOL    HW248026   2.706   7.719   1.890
15377SOL     OW48027   0.975   5.479   5.389
15377SOL    HW148028   0.898   5.445   5.436
15377SOL    HW248029   1.006   5.405   5.337
15378SOL     OW48030   9.252   5.031   4.788
15378SOL    HW148031   9.228   5.106   4.733
15378SOL    HW248032   9.168   4.996   4.819
15379SOL     OW48033   0.742   1.137   9.248
15379SOL    HW148034   0.782   1.168   9.329
15379SOL    HW248035   0.806   1.157   9.180
15380SOL     OW48036   9.205   2.733   2.371
15380SOL    HW148037   9.124   2.734   2.423
15380SOL    HW248038   9.223   2.826   2.353
15381SOL     OW48039   4.169   7.880   1.237
15381SOL    HW148040   4.197   7.883   1.328
15381SOL    HW248041   4.210   7.802   1.201
15382SOL     OW48042   3.837  11.275   5.410
15382SOL    HW148043   3.918  11.227   5.426
15382SOL    HW248044   3.864  11.356   5.368
15383SOL     OW48045   5.680   7.976   4.722
15383SOL    HW148046   5.637   7.979   4.807
15383SOL    HW248047   5.772   7.996   4.740
15384SOL     OW48048  14.103   8.946   2.319
15384SOL    HW148049  14.135   9.034   2.302
15384SOL    HW248050  14.160   8.889   2.267
15385SOL     OW48051   2.381   0.158  10.364
15385SOL    HW148052   2.355   0.218  10.294
15385SOL    HW248053   2.398   0.075  10.319
15386SOL     OW48054   6.832   6.257   0.811
15386SOL    HW148055   6.804   6.302   0.891
15386SOL    HW248056   6.751   6.221   0.774
15387SOL     OW48057   0.722  11.743   1.678
15387SOL    HW148058   0.776  11.789   1.613
15387SOL    HW248059   0.632  11.763   1.652
15388SOL     OW48060   3.212   5.884  12.244
15388SOL    HW148061   3.265   5.808  12.264
15388SOL    HW248062   3.188   5.873  12.152
15389SOL     OW48063   5.912   9.178  13.361
15389SOL    HW148064   5.994   9.129  13.365
15389SOL    HW248065   5.904   9.205  13.270
15390SOL     OW48066   6.409   7.586   4.958
15390SOL    HW148067   6.411   7.495   4.990
15390SOL    HW248068   6.317   7.600   4.934
15391SOL     OW48069   6.844  12.956   3.456
15391SOL    HW148070   6.892  12.884   3.415
15391SOL    HW248071   6.765  12.964   3.403
15392SOL     OW48072   8.184   3.144   5.466
15392SOL    HW148073   8.113   3.203   5.490
15392SOL    HW248074   8.141   3.060   5.450
15393SOL     OW48075  12.518  13.017   9.828
15393SOL    HW148076  12.611  12.996   9.837
15393SOL    HW248077  12.476  12.932   9.811
15394SOL     OW48078  12.278   0.612   6.073
15394SOL    HW148079  12.345   0.566   6.124
15394SOL    HW248080  12.234   0.543   6.024
15395SOL     OW48081   4.950   4.888  14.555
15395SOL    HW148082   4.980   4.938  14.479
15395SOL    HW248083   4.857   4.909  14.563
15396SOL     OW48084   5.053   8.250  11.597
15396SOL    HW148085   5.112   8.302  11.651
15396SOL    HW248086   5.034   8.306  11.522
15397SOL     OW48087   0.348  13.874   3.635
15397SOL    HW148088   0.332  13.904   3.545
15397SOL    HW248089   0.390  13.948   3.678
15398SOL     OW48090  13.239   9.631   2.943
15398SOL    HW148091  13.158   9.594   2.907
15398SOL    HW248092  13.210   9.709   2.991
15399SOL     OW48093   9.388   4.471   6.157
15399SOL    HW148094   9.399   4.563   6.133
15399SOL    HW248095   9.309   4.471   6.212
15400SOL     OW48096   7.304   2.030   4.355
15400SOL    HW148097   7.324   2.123   4.352
15400SOL    HW248098   7.235   2.018   4.290
15401SOL     OW48099   3.484   9.967   0.278
15401SOL    HW148100   3.501   9.912   0.201
15401SOL    HW248101   3.396  10.003   0.262
15402SOL     OW48102   9.572   0.033  14.561
15402SOL    HW148103   9.650  14.851  14.581
15402SOL    HW248104   9.581   0.112  14.616
15403SOL     OW48105  10.627   5.936   0.798
15403SOL    HW148106  10.712   5.945   0.842
15403SOL    HW248107  10.562   5.943   0.868
15404SOL     OW48108  11.206  13.759  11.196
15404SOL    HW148109  11.265  13.752  11.271
15404SOL    HW248110  11.263  13.771  11.121
15405SOL     OW48111  13.530   9.321  13.006
15405SOL    HW148112  13.525   9.411  13.039
15405SOL    HW248113  13.441   9.287  13.016
15406SOL     OW48114  11.771   6.829   6.008
15406SOL    HW148115  11.707   6.813   6.077
15406SOL    HW248116  11.802   6.918   6.025
15407SOL     OW48117   6.001   6.387   7.616
15407SOL    HW148118   5.956   6.457   7.569
15407SOL    HW248119   5.947   6.372   7.694
15408SOL     OW48120   6.795  14.159  14.777
15408SOL    HW148121   6.701  14.156  14.756
15408SOL    HW248122   6.833  14.086  14.730
15409SOL     OW48123  14.464   7.949  13.433
15409SOL    HW148124  14.558   7.952  13.417
15409SOL    HW248125  14.453   7.978  13.523
15410SOL     OW48126  12.725   4.101   3.840
15410SOL    HW148127  12.800   4.133   3.889
15410SOL    HW248128  12.723   4.007   3.857
15411SOL     OW48129   0.644  13.238   2.356
15411SOL    HW148130   0.636  13.216   2.264
15411SOL    HW248131   0.739  13.237   2.373
15412SOL     OW48132   9.310  10.334   1.735
15412SOL    HW148133   9.221  10.308   1.713
15412SOL    HW248134   9.362  10.309   1.659
15413SOL     OW48135  10.245  11.826   7.757
15413SOL    HW148136  10.267  11.919   7.765
15413SOL    HW248137  10.157  11.819   7.793
15414SOL     OW48138   3.756  12.885  14.527
15414SOL    HW148139   3.700  12.807  14.531
15414SOL    HW248140   3.757  12.918  14.617
15415SOL     OW48141   5.982  14.226   5.682
15415SOL    HW148142   5.980  14.140   5.724
15415SOL    HW248143   6.074  14.250   5.681
15416SOL     OW48144   7.374  10.523   8.035
15416SOL    HW148145   7.331  10.489   8.113
15416SOL    HW248146   7.303  10.550   7.977
15417SOL     OW48147   7.225   4.525   1.880
15417SOL    HW148148   7.174   4.564   1.951
15417SOL    HW248149   7.232   4.594   1.814
15418SOL     OW48150   4.504   6.146   9.094
15418SOL    HW148151   4.476   6.065   9.052
15418SOL    HW248152   4.423   6.186   9.125
15419SOL     OW48153   6.077  14.299   1.013
15419SOL    HW148154   6.051  14.330   0.927
15419SOL    HW248155   6.167  14.329   1.024
15420SOL     OW48156   5.991  13.329  12.729
15420SOL    HW148157   6.008  13.410  12.777
15420SOL    HW248158   6.061  13.325  12.663
15421SOL     OW48159   6.455   3.230   6.965
15421SOL    HW148160   6.511   3.186   7.029
15421SOL    HW248161   6.366   3.202   6.986
15422SOL     OW48162  10.321  14.723   3.904
15422SOL    HW148163  10.269  14.779   3.961
15422SOL    HW248164  10.390  14.687   3.961
15423SOL     OW48165   9.462   0.422   0.170
15423SOL    HW148166   9.523   0.370   0.222
15423SOL    HW248167   9.475   0.392   0.080
15424SOL     OW48168  10.573  13.800   8.419
15424SOL    HW148169  10.491  13.757   8.443
15424SOL    HW248170  10.633  13.778   8.489
15425SOL     OW48171   2.888   3.222   0.870
15425SOL    HW148172   2.905   3.146   0.925
15425SOL    HW248173   2.839   3.282   0.926
15426SOL     OW48174   6.947   6.889   8.081
15426SOL    HW148175   6.979   6.959   8.138
15426SOL    HW248176   6.891   6.836   8.136
15427SOL     OW48177   7.509   3.359   3.497
15427SOL    HW148178   7.532   3.405   3.416
15427SOL    HW248179   7.454   3.422   3.544
15428SOL     OW48180   7.674  12.618   2.618
15428SOL    HW148181   7.770  12.617   2.614
15428SOL    HW248182   7.649  12.696   2.568
15429SOL     OW48183  12.045   9.988   4.900
15429SOL    HW148184  11.972  10.025   4.851
15429SOL    HW248185  12.121  10.000   4.842
15430SOL     OW48186   8.492   9.686   2.691
15430SOL    HW148187   8.552   9.647   2.754
15430SOL    HW248188   8.454   9.612   2.644
15431SOL     OW48189   1.172   7.269   3.574
15431SOL    HW148190   1.187   7.359   3.547
15431SOL    HW248191   1.190   7.268   3.668
15432SOL     OW48192   6.544   3.192   0.701
15432SOL    HW148193   6.612   3.230   0.757
15432SOL    HW248194   6.537   3.252   0.627
15433SOL     OW48195  12.806  10.177   3.191
15433SOL    HW148196  12.824  10.253   3.136
15433SOL    HW248197  12.835  10.203   3.279
15434SOL     OW48198  11.566   6.900  11.053
15434SOL    HW148199  11.475   6.890  11.081
15434SOL    HW248200  11.612   6.930  11.132
15435SOL     OW48201   4.106   4.572   8.874
15435SOL    HW148202   4.054   4.642   8.913
15435SOL    HW248203   4.164   4.543   8.945
15436SOL     OW48204   2.774   5.996  10.775
15436SOL    HW148205   2.854   6.018  10.824
15436SOL    HW248206   2.715   6.069  10.793
15437SOL     OW48207   9.520   4.441   7.428
15437SOL    HW148208   9.514   4.510   7.494
15437SOL    HW248209   9.518   4.359   7.478
15438SOL     OW48210   5.600  12.789   7.002
15438SOL    HW148211   5.685  12.778   6.960
15438SOL    HW248212   5.563  12.867   6.961
15439SOL     OW48213   0.651   9.605  11.705
15439SOL    HW148214   0.644   9.689  11.751
15439SOL    HW248215   0.574   9.556  11.733
15440SOL     OW48216   7.458   1.146   1.080
15440SOL    HW148217   7.513   1.142   1.002
15440SOL    HW248218   7.396   1.074   1.069
15441SOL     OW48219   4.353   8.498   1.237
15441SOL    HW148220   4.282   8.434   1.235
15441SOL    HW248221   4.385   8.501   1.147
15442SOL     OW48222   3.463  13.508   8.624
15442SOL    HW148223   3.478  13.538   8.714
15442SOL    HW248224   3.453  13.589   8.574
15443SOL     OW48225   3.254   7.655   3.821
15443SOL    HW148226   3.313   7.580   3.819
15443SOL    HW248227   3.221   7.657   3.911
15444SOL     OW48228  14.496  11.139  13.324
15444SOL    HW148229  14.512  11.106  13.236
15444SOL    HW248230  14.419  11.092  13.355
15445SOL     OW48231  13.149   8.121   9.146
15445SOL    HW148232  13.095   8.175   9.203
15445SOL    HW248233  13.091   8.096   9.074
15446SOL     OW48234   3.178   4.903  11.767
15446SOL    HW148235   3.237   4.880  11.839
15446SOL    HW248236   3.153   4.819  11.728
15447SOL     OW48237   4.579  11.850   5.219
15447SOL    HW148238   4.650  11.854   5.284
15447SOL    HW248239   4.527  11.775   5.246
15448SOL     OW48240   2.543   1.695   6.716
15448SOL    HW148241   2.631   1.690   6.679
15448SOL    HW248242   2.491   1.740   6.649
15449SOL     OW48243   0.999  11.965   0.922
15449SOL    HW148244   0.915  11.935   0.888
15449SOL    HW248245   1.063  11.902   0.888
15450SOL     OW48246   2.200   8.417  13.793
15450SOL    HW148247   2.181   8.350  13.727
15450SOL    HW248248   2.160   8.383  13.874
15451SOL     OW48249   3.083  14.433   6.886
15451SOL    HW148250   3.159  14.406   6.938
15451SOL    HW248251   3.025  14.357   6.887
15452SOL     OW48252   0.874  13.155   1.955
15452SOL    HW148253   0.849  13.101   1.880
15452SOL    HW248254   0.961  13.188   1.933
15453SOL     OW48255   7.093   7.486   0.273
15453SOL    HW148256   7.011   7.476   0.225
15453SOL    HW248257   7.069   7.474   0.365
15454SOL     OW48258  13.862   2.270   7.201
15454SOL    HW148259  13.910   2.309   7.274
15454SOL    HW248260  13.843   2.180   7.230
15455SOL     OW48261   3.345   4.160   4.749
15455SOL    HW148262   3.275   4.189   4.690
15455SOL    HW248263   3.389   4.241   4.774
15456SOL     OW48264  12.153  11.461  10.075
15456SOL    HW148265  12.099  11.384  10.094
15456SOL    HW248266  12.090  11.534  10.075
15457SOL     OW48267  10.197  12.014   8.961
15457SOL    HW148268  10.199  11.931   8.913
15457SOL    HW248269  10.289  12.031   8.983
15458SOL     OW48270  12.034  12.949   2.977
15458SOL    HW148271  12.084  12.868   2.961
15458SOL    HW248272  12.100  13.011   3.008
15459SOL     OW48273  12.665   6.736   8.462
15459SOL    HW148274  12.693   6.647   8.482
15459SOL    HW248275  12.575   6.726   8.430
15460SOL     OW48276  11.923   0.932  12.304
15460SOL    HW148277  11.876   0.890  12.232
15460SOL    HW248278  11.976   1.000  12.261
15461SOL     OW48279  14.170   3.879   3.408
15461SOL    HW148280  14.167   3.950   3.343
15461SOL    HW248281  14.144   3.921   3.490
15462SOL     OW48282  14.043   4.211  11.114
15462SOL    HW148283  13.960   4.191  11.157
15462SOL    HW248284  14.046   4.153  11.038
15463SOL     OW48285   0.820  12.117  14.690
15463SOL    HW148286   0.781  12.079  14.768
15463SOL    HW248287   0.805  12.053  14.621
15464SOL     OW48288   4.484   4.948  14.341
15464SOL    HW148289   4.498   5.009  14.269
15464SOL    HW248290   4.389   4.946  14.352
15465SOL     OW48291  13.643   6.330  10.110
15465SOL    HW148292  13.670   6.375  10.190
15465SOL    HW248293  13.627   6.240  10.136
15466SOL     OW48294   9.891  13.737   2.825
15466SOL    HW148295   9.899  13.831   2.811
15466SOL    HW248296   9.801  13.716   2.800
15467SOL     OW48297  12.501   3.591   5.882
15467SOL    HW148298  12.532   3.504   5.856
15467SOL    HW248299  12.414   3.598   5.843
15468SOL     OW48300  12.498  10.139  14.683
15468SOL    HW148301  12.581  10.185  14.671
15468SOL    HW248302  12.481  10.145  14.777
15469SOL     OW48303   5.419   0.524   5.942
15469SOL    HW148304   5.467   0.532   5.860
15469SOL    HW248305   5.486   0.536   6.010
15470SOL     OW48306   0.733   4.805   0.398
15470SOL    HW148307   0.785   4.830   0.322
15470SOL    HW248308   0.798   4.778   0.463
15471SOL     OW48309   8.021   1.878   2.936
15471SOL    HW148310   7.947   1.867   2.996
15471SOL    HW248311   8.033   1.973   2.931
15472SOL     OW48312  11.240  13.717   9.482
15472SOL    HW148313  11.233  13.629   9.521
15472SOL    HW248314  11.306  13.762   9.536
15473SOL     OW48315   8.473  11.165   4.590
15473SOL    HW148316   8.425  11.212   4.658
15473SOL    HW248317   8.510  11.089   4.634
15474SOL     OW48318  11.681  13.153   7.307
15474SOL    HW148319  11.636  13.199   7.379
15474SOL    HW248320  11.610  13.131   7.246
15475SOL     OW48321   8.034  11.350  13.453
15475SOL    HW148322   7.999  11.324  13.368
15475SOL    HW248323   8.087  11.427  13.435
15476SOL     OW48324   7.455  14.215  10.660
15476SOL    HW148325   7.463  14.260  10.745
15476SOL    HW248326   7.413  14.131  10.681
15477SOL     OW48327   8.072   6.283  11.959
15477SOL    HW148328   8.077   6.190  11.936
15477SOL    HW248329   7.983   6.295  11.990
15478SOL     OW48330   2.005   6.035  10.102
15478SOL    HW148331   1.955   6.079  10.033
15478SOL    HW248332   2.083   6.088  10.114
15479SOL     OW48333   2.669  14.436  13.164
15479SOL    HW148334   2.722  14.482  13.229
15479SOL    HW248335   2.729  14.373  13.124
15480SOL     OW48336   3.062   8.317  11.603
15480SOL    HW148337   2.969   8.301  11.618
15480SOL    HW248338   3.092   8.359  11.683
15481SOL     OW48339   0.786   9.925   0.571
15481SOL    HW148340   0.781   9.990   0.641
15481SOL    HW248341   0.880   9.917   0.552
15482SOL     OW48342   5.095  13.158   7.195
15482SOL    HW148343   5.160  13.100   7.155
15482SOL    HW248344   5.012  13.133   7.153
15483SOL     OW48345  14.588   9.778  13.933
15483SOL    HW148346  14.504   9.755  13.972
15483SOL    HW248347  14.651   9.772  14.005
15484SOL     OW48348   7.839   2.015   1.761
15484SOL    HW148349   7.929   1.984   1.766
15484SOL    HW248350   7.789   1.953   1.814
15485SOL     OW48351  14.648  12.848   8.931
15485SOL    HW148352  14.592  12.925   8.941
15485SOL    HW248353  14.648  12.807   9.018
15486SOL     OW48354   6.522   4.361   1.695
15486SOL    HW148355   6.459   4.421   1.734
15486SOL    HW248356   6.598   4.366   1.752
15487SOL     OW48357   3.564   3.877  11.785
15487SOL    HW148358   3.553   3.970  11.762
15487SOL    HW248359   3.658   3.863  11.782
15488SOL     OW48360  12.534   9.393  12.393
15488SOL    HW148361  12.514   9.456  12.462
15488SOL    HW248362  12.513   9.439  12.312
15489SOL     OW48363   8.404  12.495   6.664
15489SOL    HW148364   8.358  12.484   6.747
15489SOL    HW248365   8.346  12.455   6.598
15490SOL     OW48366   0.048   7.011   1.963
15490SOL    HW148367   0.039   7.088   2.018
15490SOL    HW248368   0.017   7.039   1.877
15491SOL     OW48369  11.693  14.540   0.111
15491SOL    HW148370  11.675  14.570   0.200
15491SOL    HW248371  11.773  14.585   0.086
15492SOL     OW48372  11.529  10.283   9.609
15492SOL    HW148373  11.545  10.197   9.648
15492SOL    HW248374  11.579  10.282   9.527
15493SOL     OW48375   2.308  13.605  12.144
15493SOL    HW148376   2.374  13.591  12.077
15493SOL    HW248377   2.272  13.691  12.125
15494SOL     OW48378  12.652   0.304   3.264
15494SOL    HW148379  12.625   0.321   3.354
15494SOL    HW248380  12.691   0.386   3.234
15495SOL     OW48381   6.218   9.519   6.424
15495SOL    HW148382   6.130   9.521   6.386
15495SOL    HW248383   6.262   9.595   6.388
15496SOL     OW48384   2.335  11.736  11.916
15496SOL    HW148385   2.385  11.810  11.950
15496SOL    HW248386   2.401  11.670  11.895
15497SOL     OW48387   9.693   5.662   2.847
15497SOL    HW148388   9.726   5.706   2.926
15497SOL    HW248389   9.599   5.684   2.845
15498SOL     OW48390  13.213   4.386   9.882
15498SOL    HW148391  13.267   4.457   9.917
15498SOL    HW248392  13.275   4.327   9.841
15499SOL     OW48393  14.784  13.806   7.376
15499SOL    HW148394  14.826  13.732   7.333
15499SOL    HW248395  14.690  13.794   7.358
15500SOL     OW48396   4.508  12.532   9.350
15500SOL    HW148397   4.473  12.467   9.290
15500SOL    HW248398   4.564  12.483   9.410
15501SOL     OW48399   3.739   4.276   4.951
15501SOL    HW148400   3.676   4.273   4.879
15501SOL    HW248401   3.759   4.369   4.961
15502SOL     OW48402  11.398   1.738  12.515
15502SOL    HW148403  11.396   1.833  12.507
15502SOL    HW248404  11.412   1.706  12.426
15503SOL     OW48405  12.989  14.841   4.757
15503SOL    HW148406  12.964  14.845   4.664
15503SOL    HW248407  12.996   0.063   4.783
15504SOL     OW48408   0.048   2.393   5.554
15504SOL    HW148409  14.847   2.457   5.555
15504SOL    HW248410   0.003   2.308   5.555
15505SOL     OW48411   6.960   5.110   6.666
15505SOL    HW148412   6.925   5.072   6.747
15505SOL    HW248413   6.892   5.170   6.636
15506SOL     OW48414   9.809   9.481   5.505
15506SOL    HW148415   9.748   9.413   5.535
15506SOL    HW248416   9.831   9.456   5.416
15507SOL     OW48417   2.612   5.121  10.464
15507SOL    HW148418   2.684   5.139  10.403
15507SOL    HW248419   2.587   5.030  10.447
15508SOL     OW48420   9.345  13.315  12.572
15508SOL    HW148421   9.257  13.352  12.569
15508SOL    HW248422   9.387  13.345  12.492
15509SOL     OW48423  12.568   5.053   2.927
15509SOL    HW148424  12.558   4.967   2.966
15509SOL    HW248425  12.527   5.113   2.990
15510SOL     OW48426   2.886   3.438   7.690
15510SOL    HW148427   2.918   3.407   7.775
15510SOL    HW248428   2.943   3.397   7.626
15511SOL     OW48429   5.357   0.086  11.108
15511SOL    HW148430   5.392  14.869  11.133
15511SOL    HW248431   5.281   0.066  11.054
15512SOL     OW48432  13.917  13.772   1.348
15512SOL    HW148433  13.908  13.861   1.313
15512SOL    HW248434  13.940  13.719   1.272
15513SOL     OW48435   8.253   6.236   9.394
15513SOL    HW148436   8.171   6.192   9.370
15513SOL    HW248437   8.227   6.300   9.460
15514SOL     OW48438   9.956   7.775   3.589
15514SOL    HW148439   9.888   7.785   3.655
15514SOL    HW248440  10.007   7.700   3.618
15515SOL     OW48441   5.840   0.495   3.822
15515SOL    HW148442   5.793   0.420   3.786
15515SOL    HW248443   5.932   0.473   3.814
15516SOL     OW48444   1.069   8.958   7.497
15516SOL    HW148445   1.039   8.876   7.535
15516SOL    HW248446   1.130   8.994   7.562
15517SOL     OW48447   9.328  13.369   1.738
15517SOL    HW148448   9.383  13.445   1.720
15517SOL    HW248449   9.283  13.351   1.656
15518SOL     OW48450   6.781   7.965   1.382
15518SOL    HW148451   6.738   8.039   1.425
15518SOL    HW248452   6.740   7.961   1.296
15519SOL     OW48453   6.232  11.493  11.699
15519SOL    HW148454   6.318  11.465  11.732
15519SOL    HW248455   6.185  11.523  11.777
15520SOL     OW48456   4.448   4.215   1.724
15520SOL    HW148457   4.520   4.194   1.664
15520SOL    HW248458   4.454   4.148   1.793
15521SOL     OW48459   0.743  13.822   2.665
15521SOL    HW148460   0.796  13.752   2.702
15521SOL    HW248461   0.804  13.892   2.647
15522SOL     OW48462   0.373   2.037   3.668
15522SOL    HW148463   0.309   1.971   3.641
15522SOL    HW248464   0.376   2.029   3.764
15523SOL     OW48465  13.394   1.577  10.854
15523SOL    HW148466  13.445   1.501  10.882
15523SOL    HW248467  13.443   1.612  10.779
15524SOL     OW48468  13.462   9.222   5.598
15524SOL    HW148469  13.387   9.279   5.582
15524SOL    HW248470  13.526   9.248   5.532
15525SOL     OW48471  14.299  11.645   6.380
15525SOL    HW148472  14.340  11.687   6.455
15525SOL    HW248473  14.314  11.705   6.307
15526SOL     OW48474   7.018   5.017  12.590
15526SOL    HW148475   7.076   5.086  12.623
15526SOL    HW248476   7.048   4.937  12.635
15527SOL     OW48477   0.759   8.334   5.336
15527SOL    HW148478   0.746   8.383   5.254
15527SOL    HW248479   0.694   8.372   5.396
15528SOL     OW48480   2.056   0.591  10.430
15528SOL    HW148481   2.077   0.684  10.439
15528SOL    HW248482   1.960   0.588  10.427
15529SOL     OW48483   6.067   0.812   3.197
15529SOL    HW148484   5.974   0.827   3.215
15529SOL    HW248485   6.070   0.791   3.103
15530SOL     OW48486  13.395   5.929   4.199
15530SOL    HW148487  13.449   5.924   4.278
15530SOL    HW248488  13.436   5.998   4.147
15531SOL     OW48489   5.543   6.324  14.826
15531SOL    HW148490   5.487   6.257  14.786
15531SOL    HW248491   5.486   6.369   0.018
15532SOL     OW48492   3.818   8.023   4.741
15532SOL    HW148493   3.898   8.064   4.710
15532SOL    HW248494   3.762   8.018   4.663
15533SOL     OW48495   4.122   8.592  12.336
15533SOL    HW148496   4.047   8.534  12.348
15533SOL    HW248497   4.157   8.604  12.424
15534SOL     OW48498   7.200   6.845   1.727
15534SOL    HW148499   7.195   6.868   1.634
15534SOL    HW248500   7.119   6.796   1.743
15535SOL     OW48501  11.366   0.267  13.653
15535SOL    HW148502  11.450   0.310  13.638
15535SOL    HW248503  11.304   0.340  13.665
15536SOL     OW48504   2.570   0.817  11.643
15536SOL    HW148505   2.618   0.888  11.601
15536SOL    HW248506   2.627   0.741  11.633
15537SOL     OW48507  14.066   5.157  11.701
15537SOL    HW148508  14.077   5.117  11.615
15537SOL    HW248509  14.053   5.250  11.684
15538SOL     OW48510   2.027   4.332   9.403
15538SOL    HW148511   2.065   4.267   9.343
15538SOL    HW248512   1.997   4.281   9.478
15539SOL     OW48513   8.536  11.794   4.058
15539SOL    HW148514   8.471  11.857   4.088
15539SOL    HW248515   8.509  11.711   4.096
15540SOL     OW48516   5.105   2.771   0.208
15540SOL    HW148517   5.040   2.727   0.154
15540SOL    HW248518   5.058   2.799   0.286
15541SOL     OW48519  14.204  10.470   2.582
15541SOL    HW148520  14.111  10.493   2.579
15541SOL    HW248521  14.246  10.547   2.621
15542SOL     OW48522   7.821   3.935   4.471
15542SOL    HW148523   7.848   3.850   4.507
15542SOL    HW248524   7.847   3.999   4.537
15543SOL     OW48525   1.427  13.304  12.708
15543SOL    HW148526   1.440  13.279  12.800
15543SOL    HW248527   1.429  13.220  12.661
15544SOL     OW48528  11.508  13.335   7.081
15544SOL    HW148529  11.460  13.356   7.002
15544SOL    HW248530  11.472  13.251   7.110
15545SOL     OW48531  11.724  11.575   7.078
15545SOL    HW148532  11.669  11.613   7.010
15545SOL    HW248533  11.810  11.617   7.067
15546SOL     OW48534   2.235  11.187   2.644
15546SOL    HW148535   2.284  11.179   2.562
15546SOL    HW248536   2.152  11.228   2.618
15547SOL     OW48537   6.091   0.779   1.098
15547SOL    HW148538   6.009   0.740   1.128
15547SOL    HW248539   6.079   0.789   1.003
15548SOL     OW48540   8.486  13.375   7.724
15548SOL    HW148541   8.428  13.427   7.779
15548SOL    HW248542   8.437  13.362   7.643
15549SOL     OW48543  14.864   0.419   6.715
15549SOL    HW148544  14.835   0.358   6.783
15549SOL    HW248545  14.829   0.504   6.744
15550SOL     OW48546  13.882   9.545   5.345
15550SOL    HW148547  13.810   9.601   5.314
15550SOL    HW248548  13.902   9.489   5.270
15551SOL     OW48549   8.125   6.637   9.324
15551SOL    HW148550   8.216   6.661   9.308
15551SOL    HW248551   8.074   6.711   9.291
15552SOL     OW48552   0.715   8.824  14.559
15552SOL    HW148553   0.697   8.764  14.486
15552SOL    HW248554   0.652   8.799  14.627
15553SOL     OW48555  11.033   1.340   1.134
15553SOL    HW148556  11.095   1.278   1.172
15553SOL    HW248557  11.060   1.349   1.043
15554SOL     OW48558  12.213  14.836   2.038
15554SOL    HW148559  12.121  14.847   2.061
15554SOL    HW248560  12.241   0.052   2.008
15555SOL     OW48561  10.124   8.168   1.496
15555SOL    HW148562  10.211   8.183   1.461
15555SOL    HW248563  10.092   8.091   1.449
15556SOL     OW48564   3.993  12.610   1.241
15556SOL    HW148565   3.947  12.687   1.206
15556SOL    HW248566   4.016  12.635   1.331
15557SOL     OW48567  10.875   8.335   5.076
15557SOL    HW148568  10.812   8.406   5.090
15557SOL    HW248569  10.909   8.315   5.163
15558SOL     OW48570   9.460   0.096   0.746
15558SOL    HW148571   9.507   0.022   0.706
15558SOL    HW248572   9.370   0.066   0.753
15559SOL     OW48573  12.462   1.582  10.301
15559SOL    HW148574  12.506   1.625  10.375
15559SOL    HW248575  12.518   1.599  10.226
15560SOL     OW48576   5.532   7.399   6.842
15560SOL    HW148577   5.487   7.449   6.773
15560SOL    HW248578   5.614   7.371   6.801
15561SOL     OW48579   9.355   1.481   4.975
15561SOL    HW148580   9.312   1.413   4.925
15561SOL    HW248581   9.444   1.484   4.942
15562SOL     OW48582   1.474   5.033  12.012
15562SOL    HW148583   1.396   5.033  12.067
15562SOL    HW248584   1.454   5.098  11.944
15563SOL     OW48585  14.571   7.440  10.428
15563SOL    HW148586  14.482   7.421  10.398
15563SOL    HW248587  14.584   7.381  10.503
15564SOL     OW48588   7.034   0.852   7.864
15564SOL    HW148589   7.015   0.922   7.927
15564SOL    HW248590   7.088   0.791   7.914
15565SOL     OW48591   6.459  12.009   7.713
15565SOL    HW148592   6.541  12.059   7.715
15565SOL    HW248593   6.391  12.074   7.728
15566SOL     OW48594   2.693   9.455   7.087
15566SOL    HW148595   2.651   9.388   7.033
15566SOL    HW248596   2.757   9.407   7.140
15567SOL     OW48597   5.716   7.112   0.019
15567SOL    HW148598   5.742   7.164  14.812
15567SOL    HW248599   5.754   7.159   0.093
15568SOL     OW48600   0.265   0.837   6.046
15568SOL    HW148601   0.316   0.917   6.037
15568SOL    HW248602   0.208   0.836   5.970
15569SOL     OW48603   1.758   2.783   3.984
15569SOL    HW148604   1.754   2.878   3.972
15569SOL    HW248605   1.753   2.771   4.079
15570SOL     OW48606  13.321   7.578   7.041
15570SOL    HW148607  13.339   7.630   7.119
15570SOL    HW248608  13.319   7.641   6.969
15571SOL     OW48609  11.052  11.842   7.195
15571SOL    HW148610  11.087  11.803   7.115
15571SOL    HW248611  11.027  11.931   7.170
15572SOL     OW48612  10.282  10.271   5.502
15572SOL    HW148613  10.260  10.179   5.489
15572SOL    HW248614  10.206  10.319   5.468
15573SOL     OW48615   4.428  11.109   7.927
15573SOL    HW148616   4.458  11.086   7.839
15573SOL    HW248617   4.506  11.102   7.982
15574SOL     OW48618   2.364   6.269   3.810
15574SOL    HW148619   2.292   6.332   3.809
15574SOL    HW248620   2.367   6.235   3.899
15575SOL     OW48621   6.645  11.531  11.254
15575SOL    HW148622   6.679  11.455  11.208
15575SOL    HW248623   6.668  11.605  11.197
15576SOL     OW48624   3.045   3.212   2.155
15576SOL    HW148625   3.072   3.137   2.103
15576SOL    HW248626   3.122   3.235   2.208
15577SOL     OW48627  14.769  14.046  13.916
15577SOL    HW148628  14.824  14.124  13.908
15577SOL    HW248629  14.776  14.004  13.830
15578SOL     OW48630  11.057   5.294   8.579
15578SOL    HW148631  11.081   5.364   8.519
15578SOL    HW248632  10.978   5.256   8.540
15579SOL     OW48633  11.635   0.937  10.044
15579SOL    HW148634  11.576   1.003  10.080
15579SOL    HW248635  11.611   0.932   9.951
15580SOL     OW48636   8.675  14.262   1.876
15580SOL    HW148637   8.584  14.290   1.883
15580SOL    HW248638   8.675  14.171   1.909
15581SOL     OW48639  13.271   0.010   0.911
15581SOL    HW148640  13.192   0.011   0.965
15581SOL    HW248641  13.238   0.003   0.821
15582SOL     OW48642  13.389   8.732   7.683
15582SOL    HW148643  13.302   8.692   7.686
15582SOL    HW248644  13.448   8.658   7.669
15583SOL     OW48645  12.578  12.252   2.954
15583SOL    HW148646  12.670  12.275   2.941
15583SOL    HW248647  12.581  12.165   2.993
15584SOL     OW48648   6.793   7.514  10.504
15584SOL    HW148649   6.739   7.581  10.463
15584SOL    HW248650   6.762   7.510  10.595
15585SOL     OW48651   3.485  14.380   8.997
15585SOL    HW148652   3.476  14.468   9.032
15585SOL    HW248653   3.506  14.392   8.904
15586SOL     OW48654   0.640   0.723   7.913
15586SOL    HW148655   0.652   0.664   7.987
15586SOL    HW248656   0.605   0.803   7.951
15587SOL     OW48657  10.969   9.192   5.141
15587SOL    HW148658  10.963   9.215   5.048
15587SOL    HW248659  10.887   9.145   5.159
15588SOL     OW48660   7.254   5.849   1.140
15588SOL    HW148661   7.319   5.834   1.208
15588SOL    HW248662   7.218   5.763   1.121
15589SOL     OW48663   4.137   0.435   1.930
15589SOL    HW148664   4.121   0.523   1.896
15589SOL    HW248665   4.176   0.387   1.856
15590SOL     OW48666   0.421  13.956   4.889
15590SOL    HW148667   0.365  13.932   4.815
15590SOL    HW248668   0.408  13.886   4.953
15591SOL     OW48669   1.878  14.745   0.180
15591SOL    HW148670   1.784  14.725   0.185
15591SOL    HW248671   1.903  14.765   0.270
15592SOL     OW48672  12.371  13.161   1.213
15592SOL    HW148673  12.370  13.067   1.231
15592SOL    HW248674  12.300  13.174   1.150
15593SOL     OW48675   7.520  13.579  13.890
15593SOL    HW148676   7.585  13.648  13.903
15593SOL    HW248677   7.512  13.537  13.975
15594SOL     OW48678  12.756  11.530  12.128
15594SOL    HW148679  12.671  11.524  12.171
15594SOL    HW248680  12.790  11.616  12.152
15595SOL     OW48681  13.528   0.872  14.403
15595SOL    HW148682  13.509   0.958  14.440
15595SOL    HW248683  13.474   0.867  14.324
15596SOL     OW48684   8.246   5.316   8.323
15596SOL    HW148685   8.249   5.333   8.417
15596SOL    HW248686   8.153   5.321   8.300
15597SOL     OW48687  13.269   9.818   8.995
15597SOL    HW148688  13.233   9.828   9.083
15597SOL    HW248689  13.348   9.872   8.995
15598SOL     OW48690   2.358   4.724   5.750
15598SOL    HW148691   2.334   4.785   5.820
15598SOL    HW248692   2.454   4.722   5.752
15599SOL     OW48693   1.585   0.472  13.061
15599SOL    HW148694   1.533   0.505  13.134
15599SOL    HW248695   1.541   0.391  13.035
15600SOL     OW48696  10.146   2.744  11.589
15600SOL    HW148697  10.056   2.770  11.569
15600SOL    HW248698  10.159   2.769  11.680
15601SOL     OW48699   8.229  11.296  13.156
15601SOL    HW148700   8.157  11.234  13.167
15601SOL    HW248701   8.307  11.250  13.187
15602SOL     OW48702   8.581   4.512  13.952
15602SOL    HW148703   8.530   4.593  13.948
15602SOL    HW248704   8.518   4.445  13.979
15603SOL     OW48705  13.627   5.157  13.281
15603SOL    HW148706  13.662   5.068  13.275
15603SOL    HW248707  13.685   5.202  13.342
15604SOL     OW48708   3.137   1.072   1.297
15604SOL    HW148709   3.055   1.079   1.250
15604SOL    HW248710   3.166   0.982   1.281
15605SOL     OW48711  11.318   4.304  11.912
15605SOL    HW148712  11.406   4.316  11.947
15605SOL    HW248713  11.265   4.281  11.988
15606SOL     OW48714   7.699   1.035   0.499
15606SOL    HW148715   7.758   0.965   0.469
15606SOL    HW248716   7.753   1.090   0.555
15607SOL     OW48717   0.610   1.109   9.972
15607SOL    HW148718   0.546   1.060  10.024
15607SOL    HW248719   0.564   1.134   9.893
15608SOL     OW48720  13.173  14.777   6.972
15608SOL    HW148721  13.164  14.801   7.064
15608SOL    HW248722  13.221  14.694   6.974
15609SOL     OW48723   3.856   5.738   8.826
15609SOL    HW148724   3.860   5.671   8.895
15609SOL    HW248725   3.858   5.821   8.874
15610SOL     OW48726   7.248  12.021  14.788
15610SOL    HW148727   7.197  12.102  14.791
15610SOL    HW248728   7.260  12.004  14.695
15611SOL     OW48729   0.929   1.102  11.401
15611SOL    HW148730   1.014   1.130  11.434
15611SOL    HW248731   0.945   1.080  11.309
15612SOL     OW48732   3.949   6.258   8.629
15612SOL    HW148733   3.899   6.180   8.607
15612SOL    HW248734   3.998   6.234   8.708
15613SOL     OW48735  13.889   6.729   8.322
15613SOL    HW148736  13.926   6.664   8.382
15613SOL    HW248737  13.797   6.704   8.314
15614SOL     OW48738  10.322  11.044   8.224
15614SOL    HW148739  10.388  11.105   8.191
15614SOL    HW248740  10.366  10.994   8.293
15615SOL     OW48741   4.085  13.848   0.577
15615SOL    HW148742   4.011  13.787   0.586
15615SOL    HW248743   4.045  13.934   0.583
15616SOL     OW48744  11.346  11.047  11.599
15616SOL    HW148745  11.350  10.993  11.678
15616SOL    HW248746  11.427  11.098  11.600
15617SOL     OW48747  11.656   6.802  10.808
15617SOL    HW148748  11.699   6.719  10.832
15617SOL    HW248749  11.610   6.829  10.887
15618SOL     OW48750   9.702  10.396   8.114
15618SOL    HW148751   9.717  10.312   8.071
15618SOL    HW248752   9.788  10.423   8.145
15619SOL     OW48753   5.037  11.109   3.833
15619SOL    HW148754   5.058  11.129   3.924
15619SOL    HW248755   4.999  11.021   3.836
15620SOL     OW48756   4.724  12.240   6.866
15620SOL    HW148757   4.734  12.335   6.854
15620SOL    HW248758   4.636  12.220   6.832
15621SOL     OW48759   1.177   8.116  14.488
15621SOL    HW148760   1.122   8.194  14.481
15621SOL    HW248761   1.155   8.064  14.410
15622SOL     OW48762   1.741   4.701   8.690
15622SOL    HW148763   1.717   4.758   8.617
15622SOL    HW248764   1.697   4.618   8.671
15623SOL     OW48765  13.762  10.687   6.553
15623SOL    HW148766  13.784  10.618   6.616
15623SOL    HW248767  13.835  10.749   6.560
15624SOL     OW48768   2.737   2.544  10.911
15624SOL    HW148769   2.652   2.511  10.939
15624SOL    HW248770   2.751   2.504  10.825
15625SOL     OW48771   3.759  14.370  14.820
15625SOL    HW148772   3.797  14.450  14.783
15625SOL    HW248773   3.684  14.400   0.001
15626SOL     OW48774   6.314   1.430   9.311
15626SOL    HW148775   6.228   1.466   9.287
15626SOL    HW248776   6.330   1.465   9.398
15627SOL     OW48777   8.354   6.165   3.081
15627SOL    HW148778   8.360   6.072   3.102
15627SOL    HW248779   8.406   6.175   3.001
15628SOL     OW48780  13.266  12.046   8.033
15628SOL    HW148781  13.186  12.098   8.021
15628SOL    HW248782  13.278  12.042   8.128
15629SOL     OW48783   6.567   3.284  14.570
15629SOL    HW148784   6.595   3.251  14.485
15629SOL    HW248785   6.495   3.344  14.550
15630SOL     OW48786  10.659  13.597   7.408
15630SOL    HW148787  10.670  13.677   7.460
15630SOL    HW248788  10.749  13.568   7.390
15631SOL     OW48789   6.347  14.282   5.030
15631SOL    HW148790   6.413  14.240   4.974
15631SOL    HW248791   6.265  14.239   5.005
15632SOL     OW48792  13.939   8.483   4.703
15632SOL    HW148793  13.897   8.447   4.624
15632SOL    HW248794  13.949   8.576   4.685
15633SOL     OW48795   7.591   6.282   8.157
15633SOL    HW148796   7.608   6.246   8.070
15633SOL    HW248797   7.540   6.214   8.201
15634SOL     OW48798   1.521   7.878   8.349
15634SOL    HW148799   1.451   7.820   8.318
15634SOL    HW248800   1.562   7.911   8.269
15635SOL     OW48801  12.952   2.939  11.473
15635SOL    HW148802  12.906   2.990  11.539
15635SOL    HW248803  13.045   2.953  11.493
15636SOL     OW48804   9.381   2.144   9.084
15636SOL    HW148805   9.465   2.099   9.076
15636SOL    HW248806   9.368   2.184   8.997
15637SOL     OW48807   4.986  10.317   4.193
15637SOL    HW148808   4.958  10.312   4.102
15637SOL    HW248809   5.056  10.381   4.194
15638SOL     OW48810   4.654  12.694   2.256
15638SOL    HW148811   4.710  12.673   2.331
15638SOL    HW248812   4.623  12.610   2.224
15639SOL     OW48813   5.007   4.175   3.723
15639SOL    HW148814   4.974   4.247   3.670
15639SOL    HW248815   5.097   4.199   3.744
15640SOL     OW48816   8.301   0.265  12.125
15640SOL    HW148817   8.347   0.195  12.079
15640SOL    HW248818   8.363   0.295  12.191
15641SOL     OW48819   8.219   6.548  12.583
15641SOL    HW148820   8.155   6.482  12.609
15641SOL    HW248821   8.206   6.620  12.644
15642SOL     OW48822   0.252   7.803   5.704
15642SOL    HW148823   0.218   7.892   5.694
15642SOL    HW248824   0.307   7.806   5.782
15643SOL     OW48825   9.105  12.919   3.435
15643SOL    HW148826   9.099  12.890   3.525
15643SOL    HW248827   9.199  12.926   3.417
15644SOL     OW48828   4.877   6.278   3.120
15644SOL    HW148829   4.912   6.190   3.135
15644SOL    HW248830   4.951   6.336   3.137
15645SOL     OW48831   5.575  11.167  14.161
15645SOL    HW148832   5.558  11.138  14.251
15645SOL    HW248833   5.651  11.224  14.169
15646SOL     OW48834   5.655   6.907  13.565
15646SOL    HW148835   5.644   7.002  13.570
15646SOL    HW248836   5.676   6.890  13.474
15647SOL     OW48837   7.321   0.756   5.742
15647SOL    HW148838   7.277   0.675   5.716
15647SOL    HW248839   7.282   0.778   5.826
15648SOL     OW48840   9.135   6.635   6.735
15648SOL    HW148841   9.069   6.655   6.668
15648SOL    HW248842   9.218   6.662   6.696
15649SOL     OW48843  10.824  12.230   6.676
15649SOL    HW148844  10.735  12.261   6.661
15649SOL    HW248845  10.823  12.194   6.764
15650SOL     OW48846   7.295  11.132   6.338
15650SOL    HW148847   7.250  11.095   6.414
15650SOL    HW248848   7.323  11.055   6.288
15651SOL     OW48849  12.918   4.984   3.120
15651SOL    HW148850  12.921   4.986   3.025
15651SOL    HW248851  12.836   4.939   3.141
15652SOL     OW48852   7.095  14.075  10.859
15652SOL    HW148853   7.086  14.024  10.779
15652SOL    HW248854   7.093  14.166  10.830
15653SOL     OW48855   9.220  11.824   7.909
15653SOL    HW148856   9.134  11.782   7.898
15653SOL    HW248857   9.234  11.871   7.826
15654SOL     OW48858  12.646   5.505  11.914
15654SOL    HW148859  12.708   5.578  11.914
15654SOL    HW248860  12.702   5.427  11.903
15655SOL     OW48861   4.766   8.772  11.255
15655SOL    HW148862   4.716   8.691  11.265
15655SOL    HW248863   4.839   8.763  11.316
15656SOL     OW48864   2.337  14.553   9.689
15656SOL    HW148865   2.265  14.504   9.729
15656SOL    HW248866   2.295  14.625   9.643
15657SOL     OW48867   2.973   3.507  13.680
15657SOL    HW148868   3.065   3.529  13.667
15657SOL    HW248869   2.969   3.413  13.663
15658SOL     OW48870  13.059  10.525   8.895
15658SOL    HW148871  13.050  10.540   8.989
15658SOL    HW248872  13.094  10.606   8.861
15659SOL     OW48873   8.065  11.315   6.603
15659SOL    HW148874   8.067  11.331   6.509
15659SOL    HW248875   7.977  11.281   6.620
15660SOL     OW48876   0.101   0.504   8.930
15660SOL    HW148877   0.189   0.488   8.897
15660SOL    HW248878   0.045   0.501   8.852
15661SOL     OW48879  14.143   8.092   2.599
15661SOL    HW148880  14.050   8.090   2.576
15661SOL    HW248881  14.183   8.148   2.533
15662SOL     OW48882  14.179   8.819   5.347
15662SOL    HW148883  14.202   8.899   5.300
15662SOL    HW248884  14.170   8.847   5.438
15663SOL     OW48885   3.000   8.691   2.106
15663SOL    HW148886   3.072   8.744   2.071
15663SOL    HW248887   2.921   8.732   2.071
15664SOL     OW48888   9.598   5.220   1.321
15664SOL    HW148889   9.683   5.263   1.328
15664SOL    HW248890   9.588   5.173   1.404
15665SOL     OW48891  11.248   0.129  14.047
15665SOL    HW148892  11.340   0.153  14.056
15665SOL    HW248893  11.217   0.116  14.136
15666SOL     OW48894  14.787   4.697   8.993
15666SOL    HW148895  14.853   4.650   9.044
15666SOL    HW248896  14.776   4.780   9.040
15667SOL     OW48897   2.884   6.917   9.079
15667SOL    HW148898   2.916   6.993   9.030
15667SOL    HW248899   2.866   6.851   9.012
15668SOL     OW48900  14.205   1.183   9.783
15668SOL    HW148901  14.221   1.277   9.789
15668SOL    HW248902  14.214   1.151   9.873
15669SOL     OW48903   3.951   2.459  10.132
15669SOL    HW148904   4.038   2.473  10.170
15669SOL    HW248905   3.899   2.423  10.204
15670SOL     OW48906   2.794  11.937   4.389
15670SOL    HW148907   2.850  12.013   4.405
15670SOL    HW248908   2.856  11.865   4.374
15671SOL     OW48909   6.875   3.452  13.735
15671SOL    HW148910   6.856   3.425  13.645
15671SOL    HW248911   6.790   3.447  13.780
15672SOL     OW48912   5.443  11.687   2.095
15672SOL    HW148913   5.529  11.686   2.135
15672SOL    HW248914   5.456  11.729   2.010
15673SOL     OW48915   8.146   9.085   6.418
15673SOL    HW148916   8.212   9.048   6.477
15673SOL    HW248917   8.066   9.035   6.436
15674SOL     OW48918   3.942   5.682   0.230
15674SOL    HW148919   3.864   5.692   0.285
15674SOL    HW248920   3.984   5.603   0.263
15675SOL     OW48921   5.532   1.472  13.307
15675SOL    HW148922   5.460   1.425  13.350
15675SOL    HW248923   5.548   1.548  13.363
15676SOL     OW48924  13.429   3.617   7.748
15676SOL    HW148925  13.337   3.631   7.769
15676SOL    HW248926  13.456   3.698   7.705
15677SOL     OW48927   2.533  11.337   8.792
15677SOL    HW148928   2.598  11.378   8.849
15677SOL    HW248929   2.554  11.244   8.794
15678SOL     OW48930   7.211  11.025   3.107
15678SOL    HW148931   7.204  10.961   3.037
15678SOL    HW248932   7.127  11.019   3.153
15679SOL     OW48933   3.977  14.449   3.679
15679SOL    HW148934   4.020  14.523   3.723
15679SOL    HW248935   3.884  14.459   3.701
15680SOL     OW48936  10.466   3.229   8.113
15680SOL    HW148937  10.396   3.225   8.179
15680SOL    HW248938  10.471   3.140   8.079
15681SOL     OW48939  13.741   4.868  12.359
15681SOL    HW148940  13.697   4.950  12.335
15681SOL    HW248941  13.834   4.888  12.352
15682SOL     OW48942  11.407   2.089   3.648
15682SOL    HW148943  11.317   2.098   3.618
15682SOL    HW248944  11.399   2.060   3.739
15683SOL     OW48945  12.258   5.780  10.420
15683SOL    HW148946  12.168   5.807  10.435
15683SOL    HW248947  12.308   5.823  10.489
15684SOL     OW48948   5.854   1.721  12.288
15684SOL    HW148949   5.882   1.629  12.287
15684SOL    HW248950   5.761   1.717  12.310
15685SOL     OW48951   1.147   4.125   2.581
15685SOL    HW148952   1.099   4.114   2.499
15685SOL    HW248953   1.082   4.109   2.649
15686SOL     OW48954   3.618   4.307   6.163
15686SOL    HW148955   3.539   4.258   6.187
15686SOL    HW248956   3.588   4.370   6.098
15687SOL     OW48957   5.860   9.793  14.574
15687SOL    HW148958   5.871   9.701  14.550
15687SOL    HW248959   5.879   9.795  14.668
15688SOL     OW48960  12.557  10.011   9.666
15688SOL    HW148961  12.621  10.060   9.718
15688SOL    HW248962  12.602   9.994   9.583
15689SOL     OW48963   9.322   5.738   9.077
15689SOL    HW148964   9.417   5.735   9.074
15689SOL    HW248965   9.299   5.818   9.031
15690SOL     OW48966   9.850   8.607   9.722
15690SOL    HW148967   9.864   8.639   9.811
15690SOL    HW248968   9.915   8.537   9.711
15691SOL     OW48969   5.869  10.091  13.088
15691SOL    HW148970   5.853   9.997  13.083
15691SOL    HW248971   5.964  10.098  13.100
15692SOL     OW48972  12.357   6.472  12.819
15692SOL    HW148973  12.295   6.543  12.839
15692SOL    HW248974  12.301   6.396  12.804
15693SOL     OW48975   6.047   1.761   3.816
15693SOL    HW148976   6.023   1.854   3.818
15693SOL    HW248977   5.985   1.718   3.875
15694SOL     OW48978  13.237   5.774  12.123
15694SOL    HW148979  13.303   5.725  12.173
15694SOL    HW248980  13.287   5.821  12.057
15695SOL     OW48981   7.449   1.754  11.313
15695SOL    HW148982   7.440   1.832  11.369
15695SOL    HW248983   7.528   1.772  11.262
15696SOL     OW48984   2.111   4.921  14.172
15696SOL    HW148985   2.123   5.016  14.181
15696SOL    HW248986   2.200   4.886  14.167
15697SOL     OW48987   0.930   2.299   0.523
15697SOL    HW148988   0.899   2.221   0.477
15697SOL    HW248989   0.889   2.372   0.476
15698SOL     OW48990   4.617  12.467   7.673
15698SOL    HW148991   4.681  12.410   7.631
15698SOL    HW248992   4.569  12.410   7.733
15699SOL     OW48993  14.410   7.074   0.825
15699SOL    HW148994  14.366   7.120   0.897
15699SOL    HW248995  14.342   7.018   0.787
15700SOL     OW48996   7.530   8.544   7.284
15700SOL    HW148997   7.487   8.493   7.352
15700SOL    HW248998   7.460   8.593   7.242
15701SOL     OW48999  12.868   4.504  13.526
15701SOL    HW149000  12.798   4.445  13.500
15701SOL    HW249001  12.867   4.573  13.459
15702SOL     OW49002   9.798  14.811   7.385
15702SOL    HW149003   9.790  14.722   7.419
15702SOL    HW249004   9.731  14.817   7.317
15703SOL     OW49005   2.180   2.775   1.189
15703SOL    HW149006   2.115   2.732   1.135
15703SOL    HW249007   2.250   2.799   1.129
15704SOL     OW49008  11.081   8.142   5.210
15704SOL    HW149009  11.148   8.181   5.266
15704SOL    HW249010  11.031   8.086   5.269
15705SOL     OW49011   6.114   9.486  10.767
15705SOL    HW149012   6.075   9.571  10.789
15705SOL    HW249013   6.076   9.425  10.830
15706SOL     OW49014  10.762   2.781  13.269
15706SOL    HW149015  10.688   2.840  13.255
15706SOL    HW249016  10.728   2.694  13.249
15707SOL     OW49017  13.486  10.712   9.372
15707SOL    HW149018  13.541  10.789   9.381
15707SOL    HW249019  13.418  10.722   9.439
15708SOL     OW49020   5.963  12.921  13.920
15708SOL    HW149021   5.935  12.990  13.860
15708SOL    HW249022   5.885  12.901  13.972
15709SOL     OW49023   4.469   9.262  13.380
15709SOL    HW149024   4.521   9.199  13.329
15709SOL    HW249025   4.452   9.334  13.319
15710SOL     OW49026  13.200  11.228   2.327
15710SOL    HW149027  13.107  11.242   2.313
15710SOL    HW249028  13.222  11.281   2.403
15711SOL     OW49029  12.606  12.063  13.307
15711SOL    HW149030  12.618  12.119  13.384
15711SOL    HW249031  12.539  12.000  13.333
15712SOL     OW49032   8.694  10.884  12.968
15712SOL    HW149033   8.694  10.895  13.063
15712SOL    HW249034   8.758  10.815  12.952
15713SOL     OW49035   1.764   8.252   7.322
15713SOL    HW149036   1.737   8.185   7.259
15713SOL    HW249037   1.854   8.227   7.345
15714SOL     OW49038   5.856  13.370   2.545
15714SOL    HW149039   5.864  13.444   2.485
15714SOL    HW249040   5.899  13.400   2.625
15715SOL     OW49041   7.421   0.767  12.223
15715SOL    HW149042   7.384   0.796  12.139
15715SOL    HW249043   7.399   0.837  12.285
15716SOL     OW49044  10.407   8.215  12.550
15716SOL    HW149045  10.413   8.285  12.486
15716SOL    HW249046  10.473   8.237  12.616
15717SOL     OW49047  11.734  13.906   8.777
15717SOL    HW149048  11.779  13.830   8.740
15717SOL    HW249049  11.641  13.883   8.776
15718SOL     OW49050  11.932   6.298   1.823
15718SOL    HW149051  11.929   6.276   1.916
15718SOL    HW249052  12.025   6.305   1.803
15719SOL     OW49053   3.054   2.970   6.804
15719SOL    HW149054   3.120   3.019   6.853
15719SOL    HW249055   2.994   2.936   6.871
15720SOL     OW49056  11.500   3.796  11.596
15720SOL    HW149057  11.406   3.806  11.611
15720SOL    HW249058  11.507   3.757  11.509
15721SOL     OW49059   4.394   9.534   5.040
15721SOL    HW149060   4.404   9.439   5.041
15721SOL    HW249061   4.472   9.567   5.083
15722SOL     OW49062   8.367  10.180   9.839
15722SOL    HW149063   8.306  10.195   9.768
15722SOL    HW249064   8.332  10.230   9.913
15723SOL     OW49065   3.356  13.526   2.496
15723SOL    HW149066   3.409  13.501   2.571
15723SOL    HW249067   3.375  13.459   2.430
15724SOL     OW49068   4.324   2.882  12.249
15724SOL    HW149069   4.411   2.915  12.225
15724SOL    HW249070   4.341   2.793  12.280
15725SOL     OW49071   7.466   7.349   7.433
15725SOL    HW149072   7.380   7.319   7.405
15725SOL    HW249073   7.494   7.408   7.363
15726SOL     OW49074  10.083  14.116   5.766
15726SOL    HW149075  10.068  14.207   5.740
15726SOL    HW249076  10.050  14.112   5.856
15727SOL     OW49077  10.398  13.884  12.596
15727SOL    HW149078  10.414  13.803  12.549
15727SOL    HW249079  10.472  13.940  12.574
15728SOL     OW49080  13.843   8.892   0.135
15728SOL    HW149081  13.914   8.954   0.119
15728SOL    HW249082  13.781   8.939   0.190
15729SOL     OW49083  14.025   5.354  12.566
15729SOL    HW149084  14.021   5.388  12.477
15729SOL    HW249085  14.099   5.293  12.565
15730SOL     OW49086   5.894   0.458   8.171
15730SOL    HW149087   5.955   0.529   8.192
15730SOL    HW249088   5.833   0.456   8.245
15731SOL     OW49089   8.803   8.680   2.499
15731SOL    HW149090   8.723   8.662   2.450
15731SOL    HW249091   8.796   8.773   2.523
15732SOL     OW49092  11.512   9.635   7.989
15732SOL    HW149093  11.585   9.660   7.933
15732SOL    HW249094  11.471   9.717   8.015
15733SOL     OW49095  12.280   4.721  14.206
15733SOL    HW149096  12.334   4.644  14.222
15733SOL    HW249097  12.227   4.729  14.285
15734SOL     OW49098   1.906   3.216  13.917
15734SOL    HW149099   1.866   3.300  13.894
15734SOL    HW249100   1.944   3.184  13.835
15735SOL     OW49101   7.995  12.478  14.320
15735SOL    HW149102   7.906  12.452  14.345
15735SOL    HW249103   8.041  12.395  14.306
15736SOL     OW49104   5.499   3.669   5.224
15736SOL    HW149105   5.410   3.685   5.195
15736SOL    HW249106   5.505   3.575   5.235
15737SOL     OW49107   0.283   9.393   2.327
15737SOL    HW149108   0.301   9.322   2.265
15737SOL    HW249109   0.364   9.401   2.378
15738SOL     OW49110   8.338  13.883   0.871
15738SOL    HW149111   8.249  13.859   0.898
15738SOL    HW249112   8.342  13.858   0.778
15739SOL     OW49113   3.425  10.330   9.112
15739SOL    HW149114   3.421  10.389   9.188
15739SOL    HW249115   3.365  10.369   9.048
15740SOL     OW49116  10.660   5.430   2.000
15740SOL    HW149117  10.755   5.436   1.997
15740SOL    HW249118  10.641   5.387   2.083
15741SOL     OW49119   5.473   1.979   8.522
15741SOL    HW149120   5.408   2.030   8.570
15741SOL    HW249121   5.468   2.011   8.432
15742SOL     OW49122   8.137  12.282   9.030
15742SOL    HW149123   8.218  12.334   9.023
15742SOL    HW249124   8.161  12.196   8.996
15743SOL     OW49125   4.631  13.374   9.409
15743SOL    HW149126   4.624  13.316   9.484
15743SOL    HW249127   4.725  13.389   9.398
15744SOL     OW49128   7.678   5.384   0.912
15744SOL    HW149129   7.609   5.433   0.957
15744SOL    HW249130   7.719   5.331   0.981
15745SOL     OW49131   4.314   7.816  10.149
15745SOL    HW149132   4.318   7.722  10.168
15745SOL    HW249133   4.388   7.832  10.090
15746SOL     OW49134   4.025   2.842   6.571
15746SOL    HW149135   4.109   2.815   6.608
15746SOL    HW249136   4.010   2.780   6.499
15747SOL     OW49137   9.244  12.407   0.819
15747SOL    HW149138   9.191  12.392   0.898
15747SOL    HW249139   9.180  12.425   0.750
15748SOL     OW49140   5.458   1.330  11.769
15748SOL    HW149141   5.415   1.350  11.852
15748SOL    HW249142   5.525   1.398  11.759
15749SOL     OW49143   0.021  11.555  13.694
15749SOL    HW149144  14.813  11.499  13.686
15749SOL    HW249145   0.086  11.501  13.739
15750SOL     OW49146   0.026   2.368  11.632
15750SOL    HW149147  14.863   2.412  11.554
15750SOL    HW249148  14.817   2.334  11.675
15751SOL     OW49149  10.661   4.385  10.967
15751SOL    HW149150  10.684   4.394  10.874
15751SOL    HW249151  10.629   4.472  10.992
15752SOL     OW49152   3.900  11.623  12.396
15752SOL    HW149153   3.955  11.623  12.318
15752SOL    HW249154   3.955  11.586  12.465
15753SOL     OW49155  11.399   0.402  11.258
15753SOL    HW149156  11.447   0.338  11.206
15753SOL    HW249157  11.376   0.355  11.339
15754SOL     OW49158   3.021   7.737   9.060
15754SOL    HW149159   2.986   7.658   9.102
15754SOL    HW249160   2.995   7.729   8.968
15755SOL     OW49161  11.971  14.769   4.452
15755SOL    HW149162  11.905  14.740   4.515
15755SOL    HW249163  12.049  14.788   4.504
15756SOL     OW49164   4.244  13.208   1.971
15756SOL    HW149165   4.190  13.183   1.896
15756SOL    HW249166   4.261  13.301   1.959
15757SOL     OW49167   7.573   1.401   0.466
15757SOL    HW149168   7.478   1.399   0.454
15757SOL    HW249169   7.600   1.309   0.457
15758SOL     OW49170  12.461  10.696  10.888
15758SOL    HW149171  12.381  10.745  10.869
15758SOL    HW249172  12.490  10.664  10.803
15759SOL     OW49173   3.536  12.492   3.945
15759SOL    HW149174   3.508  12.561   4.005
15759SOL    HW249175   3.470  12.494   3.875
15760SOL     OW49176   2.613   5.073   3.885
15760SOL    HW149177   2.563   5.155   3.887
15760SOL    HW249178   2.686   5.091   3.825
15761SOL     OW49179  12.584  10.620  13.023
15761SOL    HW149180  12.498  10.619  12.981
15761SOL    HW249181  12.633  10.688  12.976
15762SOL     OW49182   2.389  14.176   1.256
15762SOL    HW149183   2.351  14.207   1.338
15762SOL    HW249184   2.348  14.090   1.242
15763SOL     OW49185   9.224   6.219   9.826
15763SOL    HW149186   9.268   6.205   9.910
15763SOL    HW249187   9.215   6.314   9.820
15764SOL     OW49188   4.300  13.814   7.016
15764SOL    HW149189   4.251  13.736   6.987
15764SOL    HW249190   4.233  13.881   7.027
15765SOL     OW49191   1.928   1.000   9.928
15765SOL    HW149192   1.963   1.070   9.873
15765SOL    HW249193   1.833   1.008   9.921
15766SOL     OW49194   2.672   7.056  11.688
15766SOL    HW149195   2.766   7.065  11.701
15766SOL    HW249196   2.664   6.985  11.624
15767SOL     OW49197   6.601   1.687   3.105
15767SOL    HW149198   6.568   1.768   3.143
15767SOL    HW249199   6.686   1.710   3.068
15768SOL     OW49200  10.400   7.548   7.058
15768SOL    HW149201  10.317   7.525   7.017
15768SOL    HW249202  10.443   7.464   7.074
15769SOL     OW49203   5.339   6.602   1.707
15769SOL    HW149204   5.354   6.686   1.663
15769SOL    HW249205   5.262   6.617   1.762
15770SOL     OW49206   9.102  12.936  10.786
15770SOL    HW149207   9.013  12.926  10.822
15770SOL    HW249208   9.134  13.018  10.825
15771SOL     OW49209   4.848   7.516   5.350
15771SOL    HW149210   4.761   7.477   5.351
15771SOL    HW249211   4.907   7.443   5.369
15772SOL     OW49212   9.772   9.414   7.179
15772SOL    HW149213   9.816   9.471   7.116
15772SOL    HW249214   9.761   9.331   7.133
15773SOL     OW49215  11.688   3.387   5.142
15773SOL    HW149216  11.636   3.347   5.212
15773SOL    HW249217  11.666   3.480   5.145
15774SOL     OW49218   0.427   9.434  12.846
15774SOL    HW149219   0.513   9.394  12.858
15774SOL    HW249220   0.393   9.445  12.935
15775SOL     OW49221   5.373   7.791   3.609
15775SOL    HW149222   5.403   7.859   3.550
15775SOL    HW249223   5.330   7.727   3.552
15776SOL     OW49224   1.562   7.410   2.622
15776SOL    HW149225   1.588   7.345   2.687
15776SOL    HW249226   1.557   7.492   2.671
15777SOL     OW49227   4.241   5.503   7.094
15777SOL    HW149228   4.324   5.462   7.069
15777SOL    HW249229   4.242   5.588   7.050
15778SOL     OW49230   7.290   8.039   7.668
15778SOL    HW149231   7.301   7.969   7.732
15778SOL    HW249232   7.202   8.073   7.684
15779SOL     OW49233  11.153   9.203  14.408
15779SOL    HW149234  11.099   9.125  14.416
15779SOL    HW249235  11.211   9.186  14.334
15780SOL     OW49236   0.478   7.495  13.809
15780SOL    HW149237   0.563   7.469  13.773
15780SOL    HW249238   0.451   7.570  13.755
15781SOL     OW49239   5.663   9.826   7.777
15781SOL    HW149240   5.688   9.735   7.791
15781SOL    HW249241   5.667   9.838   7.682
15782SOL     OW49242  12.803   9.544   8.969
15782SOL    HW149243  12.857   9.481   9.017
15782SOL    HW249244  12.716   9.504   8.966
15783SOL     OW49245   5.423   2.265   9.355
15783SOL    HW149246   5.368   2.294   9.427
15783SOL    HW249247   5.474   2.193   9.391
15784SOL     OW49248  14.009  11.384   3.815
15784SOL    HW149249  13.966  11.299   3.817
15784SOL    HW249250  14.087  11.373   3.871
15785SOL     OW49251   8.561   2.227   8.617
15785SOL    HW149252   8.503   2.150   8.609
15785SOL    HW249253   8.510   2.299   8.579
15786SOL     OW49254   7.808   2.940  14.065
15786SOL    HW149255   7.884   2.965  14.118
15786SOL    HW249256   7.746   3.011  14.077
15787SOL     OW49257   4.226  13.165   6.852
15787SOL    HW149258   4.189  13.178   6.940
15787SOL    HW249259   4.168  13.101   6.811
15788SOL     OW49260   9.825   6.611  11.006
15788SOL    HW149261   9.757   6.642  11.066
15788SOL    HW249262   9.888   6.566  11.062
15789SOL     OW49263   5.739   3.498   8.169
15789SOL    HW149264   5.804   3.484   8.238
15789SOL    HW249265   5.770   3.445   8.096
15790SOL     OW49266   6.229   6.730   6.541
15790SOL    HW149267   6.297   6.796   6.530
15790SOL    HW249268   6.153   6.779   6.573
15791SOL     OW49269   0.844   1.839   9.947
15791SOL    HW149270   0.835   1.752   9.985
15791SOL    HW249271   0.938   1.850   9.935
15792SOL     OW49272   7.575  11.763   4.186
15792SOL    HW149273   7.512  11.695   4.209
15792SOL    HW249274   7.547  11.840   4.235
15793SOL     OW49275   0.107  10.925   5.051
15793SOL    HW149276   0.120  10.956   4.961
15793SOL    HW249277   0.132  10.832   5.048
15794SOL     OW49278   3.704  11.675  10.580
15794SOL    HW149279   3.737  11.644  10.665
15794SOL    HW249280   3.714  11.601  10.521
15795SOL     OW49281   5.452   8.593  11.815
15795SOL    HW149282   5.530   8.646  11.835
15795SOL    HW249283   5.477   8.544  11.736
15796SOL     OW49284   2.894  12.150   2.105
15796SOL    HW149285   2.885  12.064   2.146
15796SOL    HW249286   2.805  12.186   2.107
15797SOL     OW49287  12.475   5.630   3.755
15797SOL    HW149288  12.538   5.697   3.781
15797SOL    HW249289  12.525   5.572   3.697
15798SOL     OW49290  11.068   0.569   9.989
15798SOL    HW149291  11.008   0.496   9.973
15798SOL    HW249292  11.035   0.640   9.934
15799SOL     OW49293   1.181   2.427  13.269
15799SOL    HW149294   1.197   2.404  13.178
15799SOL    HW249295   1.215   2.516  13.278
15800SOL     OW49296   4.400   8.376  13.081
15800SOL    HW149297   4.403   8.471  13.076
15800SOL    HW249298   4.480   8.347  13.037
15801SOL     OW49299  10.962   2.518  14.105
15801SOL    HW149300  11.002   2.602  14.128
15801SOL    HW249301  10.995   2.457  14.171
15802SOL     OW49302   6.306  12.619  11.651
15802SOL    HW149303   6.232  12.565  11.676
15802SOL    HW249304   6.374  12.597  11.715
15803SOL     OW49305  11.394   2.975   6.597
15803SOL    HW149306  11.400   2.889   6.638
15803SOL    HW249307  11.328   3.022   6.648
15804SOL     OW49308   1.253  13.972   1.010
15804SOL    HW149309   1.253  13.884   0.974
15804SOL    HW249310   1.321  13.971   1.077
15805SOL     OW49311   5.035  12.284   1.365
15805SOL    HW149312   5.116  12.275   1.416
15805SOL    HW249313   5.050  12.231   1.286
15806SOL     OW49314   1.487   0.426   5.816
15806SOL    HW149315   1.432   0.366   5.866
15806SOL    HW249316   1.429   0.500   5.796
15807SOL     OW49317  11.352   7.847  14.252
15807SOL    HW149318  11.367   7.934  14.288
15807SOL    HW249319  11.369   7.788  14.325
15808SOL     OW49320   8.634  12.181  11.457
15808SOL    HW149321   8.546  12.210  11.432
15808SOL    HW249322   8.692  12.252  11.429
15809SOL     OW49323  13.739   1.837  11.426
15809SOL    HW149324  13.683   1.763  11.399
15809SOL    HW249325  13.706   1.911  11.376
15810SOL     OW49326   6.851  10.049   4.720
15810SOL    HW149327   6.860   9.954   4.732
15810SOL    HW249328   6.807  10.059   4.635
15811SOL     OW49329   9.411  12.192   0.832
15811SOL    HW149330   9.348  12.120   0.829
15811SOL    HW249331   9.360  12.269   0.808
15812SOL     OW49332   7.785  10.939   0.527
15812SOL    HW149333   7.801  10.891   0.446
15812SOL    HW249334   7.704  10.986   0.511
15813SOL     OW49335  12.253   7.496   5.380
15813SOL    HW149336  12.312   7.571   5.387
15813SOL    HW249337  12.167   7.535   5.360
15814SOL     OW49338   7.090   3.432  10.394
15814SOL    HW149339   7.122   3.456  10.307
15814SOL    HW249340   7.167   3.440  10.451
15815SOL     OW49341  12.276   0.959  12.026
15815SOL    HW149342  12.184   0.982  12.014
15815SOL    HW249343  12.278   0.863  12.019
15816SOL     OW49344   0.140  13.750   9.377
15816SOL    HW149345   0.227  13.772   9.342
15816SOL    HW249346   0.082  13.754   9.301
15817SOL     OW49347   0.739   2.541   8.013
15817SOL    HW149348   0.701   2.543   7.925
15817SOL    HW249349   0.700   2.616   8.058
15818SOL     OW49350   4.568   5.661  10.417
15818SOL    HW149351   4.490   5.643  10.364
15818SOL    HW249352   4.630   5.701  10.356
15819SOL     OW49353   5.315   0.986  10.146
15819SOL    HW149354   5.279   1.017  10.062
15819SOL    HW249355   5.252   1.018  10.211
15820SOL     OW49356  13.582   2.553   6.240
15820SOL    HW149357  13.667   2.515   6.221
15820SOL    HW249358  13.578   2.558   6.335
15821SOL     OW49359   0.323   6.505   6.607
15821SOL    HW149360   0.362   6.510   6.520
15821SOL    HW249361   0.285   6.592   6.621
15822SOL     OW49362   5.204  14.646   7.787
15822SOL    HW149363   5.258  14.572   7.815
15822SOL    HW249364   5.114  14.614   7.793
15823SOL     OW49365  12.876  11.054  12.754
15823SOL    HW149366  12.880  11.012  12.668
15823SOL    HW249367  12.810  11.122  12.744
15824SOL     OW49368  12.888   3.945   7.095
15824SOL    HW149369  12.933   3.942   7.011
15824SOL    HW249370  12.912   3.862   7.138
15825SOL     OW49371  14.700   3.733   5.404
15825SOL    HW149372  14.738   3.808   5.449
15825SOL    HW249373  14.765   3.710   5.337
15826SOL     OW49374   0.674   8.681   3.628
15826SOL    HW149375   0.626   8.754   3.587
15826SOL    HW249376   0.766   8.705   3.618
15827SOL     OW49377   7.052   2.912  11.352
15827SOL    HW149378   6.958   2.928  11.364
15827SOL    HW249379   7.094   2.996  11.371
15828SOL     OW49380  14.869   6.398  11.379
15828SOL    HW149381  14.825   6.416  11.462
15828SOL    HW249382  14.847   6.472  11.323
15829SOL     OW49383   4.110   6.288   7.472
15829SOL    HW149384   4.188   6.332   7.505
15829SOL    HW249385   4.125   6.281   7.378
15830SOL     OW49386   7.562   0.126  12.102
15830SOL    HW149387   7.515   0.044  12.119
15830SOL    HW249388   7.645   0.097  12.064
15831SOL     OW49389  12.115  10.606   2.538
15831SOL    HW149390  12.161  10.665   2.479
15831SOL    HW249391  12.166  10.525   2.537
15832SOL     OW49392   2.361   9.098  12.317
15832SOL    HW149393   2.439   9.153  12.318
15832SOL    HW249394   2.321   9.111  12.403
15833SOL     OW49395   7.522   6.432   1.260
15833SOL    HW149396   7.596   6.435   1.320
15833SOL    HW249397   7.557   6.391   1.181
15834SOL     OW49398   6.493   0.035   6.219
15834SOL    HW149399   6.550  14.861   6.282
15834SOL    HW249400   6.406  14.869   6.235
15835SOL     OW49401   8.827   2.755  10.616
15835SOL    HW149402   8.783   2.716  10.541
15835SOL    HW249403   8.818   2.691  10.686
15836SOL     OW49404   3.165   5.891  12.992
15836SOL    HW149405   3.104   5.829  12.950
15836SOL    HW249406   3.136   5.894  13.083
15837SOL     OW49407  12.856   3.749   9.264
15837SOL    HW149408  12.846   3.806   9.187
15837SOL    HW249409  12.867   3.661   9.227
15838SOL     OW49410   9.660   3.441   0.529
15838SOL    HW149411   9.733   3.502   0.529
15838SOL    HW249412   9.688   3.370   0.471
15839SOL     OW49413   2.101   2.736   6.464
15839SOL    HW149414   2.157   2.754   6.539
15839SOL    HW249415   2.079   2.643   6.472
15840SOL     OW49416   2.743  12.561  11.687
15840SOL    HW149417   2.733  12.655  11.701
15840SOL    HW249418   2.712  12.546  11.597
15841SOL     OW49419   3.181  10.679   7.298
15841SOL    HW149420   3.239  10.662   7.224
15841SOL    HW249421   3.239  10.693   7.372
15842SOL     OW49422   4.019   5.316   8.749
15842SOL    HW149423   4.071   5.235   8.754
15842SOL    HW249424   4.070   5.380   8.798
15843SOL     OW49425  10.734   2.495   3.498
15843SOL    HW149426  10.811   2.438   3.490
15843SOL    HW249427  10.668   2.455   3.441
15844SOL     OW49428   0.914  10.408   1.202
15844SOL    HW149429   0.864  10.342   1.250
15844SOL    HW249430   0.989  10.360   1.167
15845SOL     OW49431  12.763  13.370  14.626
15845SOL    HW149432  12.702  13.320  14.680
15845SOL    HW249433  12.706  13.419  14.566
15846SOL     OW49434  11.358   2.348  12.711
15846SOL    HW149435  11.410   2.422  12.742
15846SOL    HW249436  11.311   2.382  12.634
15847SOL     OW49437   2.460   0.729  13.102
15847SOL    HW149438   2.554   0.720  13.087
15847SOL    HW249439   2.452   0.751  13.195
15848SOL     OW49440   6.831   5.518   2.854
15848SOL    HW149441   6.750   5.499   2.901
15848SOL    HW249442   6.899   5.475   2.905
15849SOL     OW49443  11.814   0.368   4.819
15849SOL    HW149444  11.751   0.368   4.891
15849SOL    HW249445  11.860   0.451   4.827
15850SOL     OW49446   1.495   5.465   7.433
15850SOL    HW149447   1.526   5.419   7.355
15850SOL    HW249448   1.550   5.543   7.439
15851SOL     OW49449   1.946   1.126  13.155
15851SOL    HW149450   1.925   1.033  13.157
15851SOL    HW249451   1.865   1.171  13.179
15852SOL     OW49452  14.119   2.151   9.981
15852SOL    HW149453  14.029   2.119   9.970
15852SOL    HW249454  14.171   2.095   9.924
15853SOL     OW49455   7.151  13.509   1.944
15853SOL    HW149456   7.082  13.550   1.995
15853SOL    HW249457   7.197  13.582   1.902
15854SOL     OW49458  14.793   0.788   5.468
15854SOL    HW149459  14.841   0.711   5.497
15854SOL    HW249460  14.819   0.857   5.528
15855SOL     OW49461   2.986   9.672   0.602
15855SOL    HW149462   3.002   9.749   0.548
15855SOL    HW249463   3.036   9.602   0.559
15856SOL     OW49464   1.929   6.486  13.059
15856SOL    HW149465   1.886   6.401  13.058
15856SOL    HW249466   1.997   6.478  13.126
15857SOL     OW49467   6.376  11.486   8.119
15857SOL    HW149468   6.333  11.513   8.200
15857SOL    HW249469   6.372  11.564   8.063
15858SOL     OW49470   4.746  12.918   5.862
15858SOL    HW149471   4.801  12.994   5.880
15858SOL    HW249472   4.667  12.956   5.822
15859SOL     OW49473  11.857   1.375  11.201
15859SOL    HW149474  11.894   1.462  11.200
15859SOL    HW249475  11.921   1.321  11.248
15860SOL     OW49476   6.658  12.551  13.365
15860SOL    HW149477   6.637  12.513  13.280
15860SOL    HW249478   6.624  12.640  13.361
15861SOL     OW49479  11.976   2.664  13.258
15861SOL    HW149480  11.937   2.578  13.276
15861SOL    HW249481  12.036   2.679  13.332
15862SOL     OW49482  11.810   7.109   3.247
15862SOL    HW149483  11.876   7.044   3.270
15862SOL    HW249484  11.784   7.087   3.157
15863SOL     OW49485   3.403   6.469   7.676
15863SOL    HW149486   3.371   6.440   7.591
15863SOL    HW249487   3.496   6.450   7.675
15864SOL     OW49488   3.530  13.941   1.956
15864SOL    HW149489   3.463  13.901   2.010
15864SOL    HW249490   3.579  13.998   2.016
15865SOL     OW49491   6.933  14.159  12.327
15865SOL    HW149492   6.936  14.068  12.296
15865SOL    HW249493   6.849  14.193  12.296
15866SOL     OW49494   3.184   6.904  11.431
15866SOL    HW149495   3.278   6.910  11.414
15866SOL    HW249496   3.143   6.941  11.353
15867SOL     OW49497   7.905  14.606  13.890
15867SOL    HW149498   7.895  14.697  13.861
15867SOL    HW249499   7.959  14.612  13.969
15868SOL     OW49500   2.354   9.514   9.782
15868SOL    HW149501   2.385   9.563   9.858
15868SOL    HW249502   2.266   9.486   9.807
15869SOL     OW49503   1.138   5.376   3.406
15869SOL    HW149504   1.164   5.466   3.424
15869SOL    HW249505   1.109   5.342   3.490
15870SOL     OW49506   4.434  10.800  11.978
15870SOL    HW149507   4.493  10.732  11.944
15870SOL    HW249508   4.454  10.804  12.071
15871SOL     OW49509   7.872   8.695  11.139
15871SOL    HW149510   7.904   8.666  11.055
15871SOL    HW249511   7.923   8.774  11.159
15872SOL     OW49512   0.103   8.660   2.216
15872SOL    HW149513   0.149   8.669   2.299
15872SOL    HW249514   0.162   8.605   2.163
15873SOL     OW49515  14.095  11.765   1.977
15873SOL    HW149516  14.037  11.793   2.047
15873SOL    HW249517  14.037  11.754   1.901
15874SOL     OW49518   6.525   9.777   9.450
15874SOL    HW149519   6.485   9.698   9.413
15874SOL    HW249520   6.451   9.833   9.474
15875SOL     OW49521   8.732  13.893  10.636
15875SOL    HW149522   8.704  13.916  10.547
15875SOL    HW249523   8.676  13.820  10.660
15876SOL     OW49524  11.842   5.248   2.404
15876SOL    HW149525  11.769   5.200   2.442
15876SOL    HW249526  11.918   5.221   2.456
15877SOL     OW49527  10.442  10.087  12.739
15877SOL    HW149528  10.433  10.164  12.684
15877SOL    HW249529  10.419  10.118  12.827
15878SOL     OW49530  11.684   1.482   6.079
15878SOL    HW149531  11.665   1.549   6.144
15878SOL    HW249532  11.603   1.474   6.028
15879SOL     OW49533  14.161   6.097   0.094
15879SOL    HW149534  14.256   6.082   0.089
15879SOL    HW249535  14.124   6.011   0.114
15880SOL     OW49536  13.385   3.357   6.484
15880SOL    HW149537  13.370   3.444   6.522
15880SOL    HW249538  13.366   3.368   6.391
15881SOL     OW49539   9.849   4.150   5.791
15881SOL    HW149540   9.777   4.100   5.831
15881SOL    HW249541   9.879   4.208   5.860
15882SOL     OW49542   3.915   4.593   1.192
15882SOL    HW149543   3.891   4.586   1.284
15882SOL    HW249544   3.991   4.536   1.181
15883SOL     OW49545   8.740  12.852  11.294
15883SOL    HW149546   8.717  12.940  11.327
15883SOL    HW249547   8.679  12.838  11.222
15884SOL     OW49548  13.222  10.653  10.907
15884SOL    HW149549  13.244  10.587  10.842
15884SOL    HW249550  13.160  10.711  10.862
15885SOL     OW49551   1.418  13.742   8.937
15885SOL    HW149552   1.369  13.797   8.997
15885SOL    HW249553   1.390  13.769   8.850
15886SOL     OW49554   3.336   7.094   5.691
15886SOL    HW149555   3.420   7.123   5.656
15886SOL    HW249556   3.311   7.020   5.636
15887SOL     OW49557   2.535   4.634  12.576
15887SOL    HW149558   2.551   4.726  12.599
15887SOL    HW249559   2.448   4.616  12.610
15888SOL     OW49560  12.030   9.247   8.709
15888SOL    HW149561  11.986   9.166   8.733
15888SOL    HW249562  12.098   9.258   8.777
15889SOL     OW49563   3.948   8.612  14.249
15889SOL    HW149564   4.024   8.652  14.208
15889SOL    HW249565   3.980   8.527  14.282
15890SOL     OW49566  12.292   5.215   2.287
15890SOL    HW149567  12.250   5.135   2.319
15890SOL    HW249568  12.280   5.278   2.358
15891SOL     OW49569   7.369   4.908   2.839
15891SOL    HW149570   7.296   4.932   2.896
15891SOL    HW249571   7.416   4.990   2.824
15892SOL     OW49572   2.214  13.777  11.645
15892SOL    HW149573   2.225  13.693  11.601
15892SOL    HW249574   2.277  13.775  11.717
15893SOL     OW49575  10.700  11.891   7.623
15893SOL    HW149576  10.777  11.935   7.658
15893SOL    HW249577  10.626  11.937   7.663
15894SOL     OW49578   0.629  10.777   0.552
15894SOL    HW149579   0.654  10.790   0.643
15894SOL    HW249580   0.653  10.686   0.533
15895SOL     OW49581   1.418   4.139   9.148
15895SOL    HW149582   1.435   4.169   9.059
15895SOL    HW249583   1.501   4.103   9.178
15896SOL     OW49584   7.596   3.335   0.654
15896SOL    HW149585   7.596   3.282   0.574
15896SOL    HW249586   7.663   3.295   0.709
15897SOL     OW49587   9.504   3.470   7.792
15897SOL    HW149588   9.568   3.399   7.795
15897SOL    HW249589   9.497   3.492   7.699
15898SOL     OW49590   3.153   4.917   7.513
15898SOL    HW149591   3.206   4.840   7.493
15898SOL    HW249592   3.069   4.881   7.543
15899SOL     OW49593   8.943  10.571  14.220
15899SOL    HW149594   8.855  10.591  14.188
15899SOL    HW249595   8.930  10.507  14.289
15900SOL     OW49596  12.884  14.828   1.928
15900SOL    HW149597  12.855  14.737   1.918
15900SOL    HW249598  12.844   0.004   1.854
15901SOL     OW49599  13.070  14.181   8.333
15901SOL    HW149600  13.160  14.212   8.321
15901SOL    HW249601  13.065  14.158   8.426
15902SOL     OW49602  14.761   3.608  11.458
15902SOL    HW149603  14.708   3.545  11.507
15902SOL    HW249604  14.800   3.663  11.526
15903SOL     OW49605  12.867  12.237  13.770
15903SOL    HW149606  12.916  12.240  13.852
15903SOL    HW249607  12.814  12.317  13.770
15904SOL     OW49608   8.563   0.199   4.275
15904SOL    HW149609   8.472   0.183   4.301
15904SOL    HW249610   8.579   0.138   4.203
15905SOL     OW49611   8.562  10.257   5.331
15905SOL    HW149612   8.522  10.313   5.264
15905SOL    HW249613   8.629  10.312   5.371
15906SOL     OW49614  11.735  10.713  14.295
15906SOL    HW149615  11.662  10.722  14.356
15906SOL    HW249616  11.809  10.687  14.349
15907SOL     OW49617   0.264   9.764   7.262
15907SOL    HW149618   0.256   9.724   7.175
15907SOL    HW249619   0.339   9.719   7.302
15908SOL     OW49620   1.477   5.710  13.312
15908SOL    HW149621   1.462   5.797  13.275
15908SOL    HW249622   1.530   5.727  13.391
15909SOL     OW49623  14.838   0.090   3.938
15909SOL    HW149624  14.778   0.147   3.986
15909SOL    HW249625  14.798   0.081   3.851
15910SOL     OW49626  11.424  11.495   7.756
15910SOL    HW149627  11.345  11.540   7.727
15910SOL    HW249628  11.399  11.453   7.838
15911SOL     OW49629   5.966   5.820   1.730
15911SOL    HW149630   5.880   5.862   1.736
15911SOL    HW249631   5.972   5.766   1.809
15912SOL     OW49632  10.738   6.191   0.977
15912SOL    HW149633  10.713   6.098   0.975
15912SOL    HW249634  10.827   6.193   0.941
15913SOL     OW49635   8.364   9.201   8.700
15913SOL    HW149636   8.411   9.177   8.620
15913SOL    HW249637   8.276   9.225   8.670
15914SOL     OW49638   8.398   0.322   6.687
15914SOL    HW149639   8.437   0.288   6.606
15914SOL    HW249640   8.366   0.244   6.733
15915SOL     OW49641   7.955   0.816  13.924
15915SOL    HW149642   8.007   0.758  13.869
15915SOL    HW249643   7.975   0.789  14.014
15916SOL     OW49644  13.855  11.506   2.596
15916SOL    HW149645  13.785  11.571   2.610
15916SOL    HW249646  13.932  11.559   2.574
15917SOL     OW49647  12.281  14.040   9.910
15917SOL    HW149648  12.296  14.030  10.004
15917SOL    HW249649  12.200  13.992   9.894
15918SOL     OW49650   8.417   8.486   9.441
15918SOL    HW149651   8.503   8.528   9.443
15918SOL    HW249652   8.377   8.518   9.360
15919SOL     OW49653  14.510   1.929   7.629
15919SOL    HW149654  14.434   1.986   7.615
15919SOL    HW249655  14.511   1.872   7.552
15920SOL     OW49656  10.177  12.870  13.223
15920SOL    HW149657  10.266  12.842  13.242
15920SOL    HW249658  10.159  12.941  13.284
15921SOL     OW49659   6.650   6.420   4.391
15921SOL    HW149660   6.726   6.425   4.450
15921SOL    HW249661   6.678   6.465   4.312
15922SOL     OW49662  12.186   3.929   2.931
15922SOL    HW149663  12.134   4.010   2.932
15922SOL    HW249664  12.162   3.885   3.012
15923SOL     OW49665   7.373   0.019  13.639
15923SOL    HW149666   7.365   0.086  13.707
15923SOL    HW249667   7.309   0.044  13.573
15924SOL     OW49668   6.478   6.184  10.467
15924SOL    HW149669   6.389   6.188  10.502
15924SOL    HW249670   6.502   6.091  10.473
15925SOL     OW49671  14.361   4.483   8.703
15925SOL    HW149672  14.415   4.419   8.749
15925SOL    HW249673  14.286   4.498   8.760
15926SOL     OW49674   6.842   2.366  12.061
15926SOL    HW149675   6.823   2.414  12.142
15926SOL    HW249676   6.852   2.434  11.995
15927SOL     OW49677   0.276   9.456   3.448
15927SOL    HW149678   0.326   9.381   3.481
15927SOL    HW249679   0.229   9.422   3.372
15928SOL     OW49680  11.588   7.822  10.453
15928SOL    HW149681  11.510   7.874  10.476
15928SOL    HW249682  11.601   7.765  10.528
15929SOL     OW49683   9.646  14.346   7.174
15929SOL    HW149684   9.697  14.424   7.156
15929SOL    HW249685   9.607  14.323   7.089
15930SOL     OW49686   9.754  10.410   1.115
15930SOL    HW149687   9.719  10.428   1.028
15930SOL    HW249688   9.800  10.491   1.139
15931SOL     OW49689   7.995   5.572  11.737
15931SOL    HW149690   8.067   5.619  11.695
15931SOL    HW249691   8.012   5.480  11.717
15932SOL     OW49692  13.200   4.255   9.515
15932SOL    HW149693  13.210   4.227   9.424
15932SOL    HW249694  13.186   4.350   9.510
15933SOL     OW49695   6.870   5.475   9.220
15933SOL    HW149696   6.804   5.462   9.288
15933SOL    HW249697   6.824   5.524   9.152
15934SOL     OW49698   4.233  13.074   1.646
15934SOL    HW149699   4.297  13.092   1.715
15934SOL    HW249700   4.148  13.092   1.688
15935SOL     OW49701  14.716  13.451   4.561
15935SOL    HW149702  14.704  13.376   4.619
15935SOL    HW249703  14.793  13.429   4.509
15936SOL     OW49704   5.363   8.118   5.087
15936SOL    HW149705   5.270   8.139   5.090
15936SOL    HW249706   5.378   8.089   4.997
15937SOL     OW49707   1.704   4.989   6.099
15937SOL    HW149708   1.639   5.050   6.132
15937SOL    HW249709   1.689   4.987   6.004
15938SOL     OW49710  10.690   2.041  12.855
15938SOL    HW149711  10.758   2.075  12.798
15938SOL    HW249712  10.705   1.947  12.859
15939SOL     OW49713  11.863   0.033   0.169
15939SOL    HW149714  11.770   0.055   0.159
15939SOL    HW249715  11.879  14.834   0.104
15940SOL     OW49716   2.581   2.737   4.771
15940SOL    HW149717   2.551   2.789   4.845
15940SOL    HW249718   2.676   2.742   4.775
15941SOL     OW49719   5.964   7.605   5.762
15941SOL    HW149720   6.002   7.554   5.834
15941SOL    HW249721   6.040   7.631   5.709
15942SOL     OW49722   2.650  13.943   1.132
15942SOL    HW149723   2.637  13.983   1.218
15942SOL    HW249724   2.654  13.849   1.150
15943SOL     OW49725   2.764  12.468   1.371
15943SOL    HW149726   2.756  12.520   1.292
15943SOL    HW249727   2.762  12.532   1.443
15944SOL     OW49728  13.853   9.289   8.909
15944SOL    HW149729  13.926   9.313   8.966
15944SOL    HW249730  13.887   9.218   8.855
15945SOL     OW49731   8.138   3.461   6.240
15945SOL    HW149732   8.050   3.497   6.228
15945SOL    HW249733   8.153   3.408   6.162
15946SOL     OW49734  11.851   4.927  13.206
15946SOL    HW149735  11.911   4.942  13.133
15946SOL    HW249736  11.786   4.997  13.199
15947SOL     OW49737   1.330   3.620  12.223
15947SOL    HW149738   1.416   3.595  12.186
15947SOL    HW249739   1.351   3.664  12.305
15948SOL     OW49740   7.351   4.929  11.971
15948SOL    HW149741   7.302   5.004  12.006
15948SOL    HW249742   7.292   4.890  11.906
15949SOL     OW49743   4.676   4.331   5.382
15949SOL    HW149744   4.721   4.293   5.457
15949SOL    HW249745   4.587   4.294   5.387
15950SOL     OW49746   6.141   5.150   0.977
15950SOL    HW149747   6.199   5.076   0.990
15950SOL    HW249748   6.096   5.161   1.061
15951SOL     OW49749  13.923   8.816  13.856
15951SOL    HW149750  13.855   8.877  13.886
15951SOL    HW249751  14.004   8.852  13.891
15952SOL     OW49752   8.667   7.117   5.369
15952SOL    HW149753   8.712   7.195   5.336
15952SOL    HW249754   8.586   7.150   5.407
15953SOL     OW49755   9.247  12.216   1.836
15953SOL    HW149756   9.276  12.303   1.860
15953SOL    HW249757   9.159  12.229   1.799
15954SOL     OW49758   3.829  10.063   6.451
15954SOL    HW149759   3.790  10.102   6.529
15954SOL    HW249760   3.863  10.137   6.401
15955SOL     OW49761   5.949   9.271   4.316
15955SOL    HW149762   5.963   9.335   4.386
15955SOL    HW249763   5.912   9.195   4.360
15956SOL     OW49764  10.151   8.142  12.698
15956SOL    HW149765  10.233   8.150  12.649
15956SOL    HW249766  10.107   8.066  12.659
15957SOL     OW49767   8.364  11.993  10.509
15957SOL    HW149768   8.390  11.903  10.526
15957SOL    HW249769   8.367  12.036  10.594
15958SOL     OW49770   4.867   2.129   0.530
15958SOL    HW149771   4.853   2.149   0.623
15958SOL    HW249772   4.799   2.065   0.508
15959SOL     OW49773   0.519   7.832   0.125
15959SOL    HW149774   0.506   7.779   0.046
15959SOL    HW249775   0.506   7.922   0.096
15960SOL     OW49776   4.394  13.825   0.005
15960SOL    HW149777   4.453  13.806   0.078
15960SOL    HW249778   4.449  13.866  14.809
15961SOL     OW49779   5.648  12.272   2.801
15961SOL    HW149780   5.697  12.343   2.843
15961SOL    HW249781   5.560  12.309   2.788
15962SOL     OW49782  13.900  10.994  10.820
15962SOL    HW149783  13.979  10.980  10.873
15962SOL    HW249784  13.828  10.968  10.878
15963SOL     OW49785   4.352   6.793  10.249
15963SOL    HW149786   4.412   6.859  10.284
15963SOL    HW249787   4.293   6.843  10.192
15964SOL     OW49788   7.403  11.014  11.911
15964SOL    HW149789   7.454  11.050  11.839
15964SOL    HW249790   7.415  11.077  11.983
15965SOL     OW49791   5.431   0.286   7.643
15965SOL    HW149792   5.499   0.220   7.653
15965SOL    HW249793   5.477   0.369   7.649
15966SOL     OW49794  12.313   3.461   9.016
15966SOL    HW149795  12.308   3.366   9.000
15966SOL    HW249796  12.353   3.496   8.937
15967SOL     OW49797  13.160   2.668   5.754
15967SOL    HW149798  13.079   2.648   5.707
15967SOL    HW249799  13.152   2.760   5.778
15968SOL     OW49800   6.424  12.079  14.829
15968SOL    HW149801   6.356  12.018  14.858
15968SOL    HW249802   6.396  12.164  14.863
15969SOL     OW49803   4.873   4.351  14.534
15969SOL    HW149804   4.907   4.434  14.501
15969SOL    HW249805   4.846   4.303  14.456
15970SOL     OW49806   6.426  13.414   3.168
15970SOL    HW149807   6.351  13.413   3.228
15970SOL    HW249808   6.469  13.330   3.181
15971SOL     OW49809  10.353   7.191   8.962
15971SOL    HW149810  10.332   7.104   8.926
15971SOL    HW249811  10.382   7.173   9.051
15972SOL     OW49812   2.076  11.278   3.562
15972SOL    HW149813   2.061  11.373   3.558
15972SOL    HW249814   2.010  11.241   3.503
15973SOL     OW49815  13.403   6.346  11.419
15973SOL    HW149816  13.342   6.304  11.358
15973SOL    HW249817  13.361   6.429  11.442
15974SOL     OW49818   8.106  12.806  11.420
15974SOL    HW149819   8.200  12.813  11.438
15974SOL    HW249820   8.064  12.828  11.503
15975SOL     OW49821   2.743   2.551   2.155
15975SOL    HW149822   2.681   2.599   2.210
15975SOL    HW249823   2.803   2.511   2.218
15976SOL     OW49824  13.793  11.409   1.836
15976SOL    HW149825  13.731  11.420   1.763
15976SOL    HW249826  13.760  11.333   1.884
15977SOL     OW49827   7.660   1.292   0.041
15977SOL    HW149828   7.647   1.224   0.106
15977SOL    HW249829   7.681   1.370   0.091
15978SOL     OW49830  10.830  10.440   3.781
15978SOL    HW149831  10.876  10.358   3.760
15978SOL    HW249832  10.799  10.472   3.696
15979SOL     OW49833   0.962   8.417  12.344
15979SOL    HW149834   0.904   8.462  12.405
15979SOL    HW249835   1.004   8.348  12.396
15980SOL     OW49836   2.848   6.607  13.764
15980SOL    HW149837   2.890   6.565  13.688
15980SOL    HW249838   2.795   6.677  13.727
15981SOL     OW49839   9.942   3.379   9.663
15981SOL    HW149840   9.966   3.371   9.755
15981SOL    HW249841   9.999   3.448   9.629
15982SOL     OW49842   6.215   7.860   2.747
15982SOL    HW149843   6.223   7.769   2.777
15982SOL    HW249844   6.177   7.853   2.660
15983SOL     OW49845  13.407   7.144   1.580
15983SOL    HW149846  13.343   7.139   1.509
15983SOL    HW249847  13.418   7.238   1.594
15984SOL     OW49848   9.725  10.665  10.973
15984SOL    HW149849   9.678  10.695  10.895
15984SOL    HW249850   9.735  10.744  11.026
15985SOL     OW49851   3.173   5.731   9.509
15985SOL    HW149852   3.228   5.661   9.545
15985SOL    HW249853   3.083   5.701   9.521
15986SOL     OW49854   0.595  12.756   7.219
15986SOL    HW149855   0.549  12.707   7.287
15986SOL    HW249856   0.687  12.756   7.247
15987SOL     OW49857  12.602   4.706  12.344
15987SOL    HW149858  12.691   4.740  12.345
15987SOL    HW249859  12.550   4.776  12.304
15988SOL     OW49860   3.263   6.413   8.565
15988SOL    HW149861   3.344   6.370   8.537
15988SOL    HW249862   3.287   6.458   8.646
15989SOL     OW49863   8.110   8.056   3.057
15989SOL    HW149864   8.034   8.029   3.109
15989SOL    HW249865   8.098   8.013   2.972
15990SOL     OW49866   0.073   6.655   0.609
15990SOL    HW149867  14.865   6.608   0.640
15990SOL    HW249868   0.132   6.587   0.578
15991SOL     OW49869  11.094   4.581   7.155
15991SOL    HW149870  11.008   4.612   7.128
15991SOL    HW249871  11.075   4.513   7.221
15992SOL     OW49872   8.338  12.160  13.694
15992SOL    HW149873   8.289  12.207  13.762
15992SOL    HW249874   8.334  12.216  13.617
15993SOL     OW49875   7.430   2.234  12.241
15993SOL    HW149876   7.524   2.217  12.241
15993SOL    HW249877   7.394   2.168  12.301
15994SOL     OW49878   7.641   7.782   0.115
15994SOL    HW149879   7.584   7.705   0.106
15994SOL    HW249880   7.727   7.752   0.086
15995SOL     OW49881   3.768   6.261   1.973
15995SOL    HW149882   3.692   6.264   2.032
15995SOL    HW249883   3.842   6.288   2.028
15996SOL     OW49884   9.723   1.704   1.076
15996SOL    HW149885   9.768   1.743   1.001
15996SOL    HW249886   9.783   1.717   1.150
15997SOL     OW49887  10.947  14.415  13.568
15997SOL    HW149888  10.902  14.404  13.652
15997SOL    HW249889  10.890  14.373  13.504
15998SOL     OW49890  14.360   3.558   7.605
15998SOL    HW149891  14.404   3.633   7.563
15998SOL    HW249892  14.414   3.483   7.581
15999SOL     OW49893   7.695   2.238   2.052
15999SOL    HW149894   7.667   2.277   2.135
15999SOL    HW249895   7.644   2.283   1.985
16000SOL     OW49896  12.217  11.291  12.326
16000SOL    HW149897  12.127  11.270  12.351
16000SOL    HW249898  12.208  11.347  12.249
16001SOL     OW49899  14.163   1.964  12.627
16001SOL    HW149900  14.238   1.980  12.569
16001SOL    HW249901  14.131   1.877  12.600
16002SOL     OW49902  12.806   6.558   3.646
16002SOL    HW149903  12.830   6.465   3.655
16002SOL    HW249904  12.714   6.556   3.620
16003SOL     OW49905  12.689  14.682  12.372
16003SOL    HW149906  12.758  14.711  12.312
16003SOL    HW249907  12.616  14.660  12.315
16004SOL     OW49908   2.360   2.054   3.960
16004SOL    HW149909   2.321   1.969   3.982
16004SOL    HW249910   2.453   2.035   3.950
16005SOL     OW49911   9.460   0.116  13.273
16005SOL    HW149912   9.539   0.136  13.323
16005SOL    HW249913   9.432   0.030  13.306
16006SOL     OW49914  10.702  12.517   6.475
16006SOL    HW149915  10.664  12.604   6.477
16006SOL    HW249916  10.795  12.530   6.490
16007SOL     OW49917   3.899   6.933   8.378
16007SOL    HW149918   3.939   6.851   8.406
16007SOL    HW249919   3.946   6.955   8.297
16008SOL     OW49920  10.599   9.366   7.765
16008SOL    HW149921  10.635   9.278   7.755
16008SOL    HW249922  10.603   9.384   7.859
16009SOL     OW49923  14.651   5.586   3.090
16009SOL    HW149924  14.602   5.668   3.081
16009SOL    HW249925  14.601   5.535   3.154
16010SOL     OW49926  13.056  10.365   0.043
16010SOL    HW149927  13.059  10.270   0.046
16010SOL    HW249928  13.053  10.392   0.135
16011SOL     OW49929   6.023   7.842  13.000
16011SOL    HW149930   6.024   7.816  12.908
16011SOL    HW249931   6.108   7.814  13.033
16012SOL     OW49932   8.100   5.186   2.919
16012SOL    HW149933   8.144   5.123   2.862
16012SOL    HW249934   8.128   5.163   3.007
16013SOL     OW49935  13.186  11.218   3.703
16013SOL    HW149936  13.250  11.235   3.772
16013SOL    HW249937  13.238  11.185   3.629
16014SOL     OW49938   8.092   9.888   3.523
16014SOL    HW149939   8.109   9.814   3.465
16014SOL    HW249940   8.173   9.899   3.573
16015SOL     OW49941  11.767  10.529  10.456
16015SOL    HW149942  11.801  10.450  10.414
16015SOL    HW249943  11.797  10.523  10.547
16016SOL     OW49944   0.694  10.609   5.251
16016SOL    HW149945   0.761  10.587   5.186
16016SOL    HW249946   0.620  10.641   5.200
16017SOL     OW49947   8.878  14.066   9.352
16017SOL    HW149948   8.966  14.102   9.364
16017SOL    HW249949   8.892  13.979   9.314
16018SOL     OW49950  14.069  10.529  12.768
16018SOL    HW149951  14.042  10.563  12.854
16018SOL    HW249952  13.995  10.550  12.710
16019SOL     OW49953  13.955  12.238  14.241
16019SOL    HW149954  13.977  12.151  14.209
16019SOL    HW249955  14.015  12.297  14.196
16020SOL     OW49956   5.527  11.086  14.428
16020SOL    HW149957   5.459  11.019  14.421
16020SOL    HW249958   5.595  11.046  14.481
16021SOL     OW49959   0.441   3.973   2.782
16021SOL    HW149960   0.511   4.038   2.793
16021SOL    HW249961   0.403   3.993   2.696
16022SOL     OW49962  11.826  11.051   1.008
16022SOL    HW149963  11.912  11.090   0.998
16022SOL    HW249964  11.838  10.979   1.070
16023SOL     OW49965   9.674   1.240   9.013
16023SOL    HW149966   9.714   1.325   8.993
16023SOL    HW249967   9.597   1.261   9.065
16024SOL     OW49968   4.056   7.053   0.462
16024SOL    HW149969   4.143   7.089   0.442
16024SOL    HW249970   4.073   6.982   0.524
16025SOL     OW49971   9.470  14.418  12.836
16025SOL    HW149972   9.410  14.406  12.763
16025SOL    HW249973   9.519  14.335  12.841
16026SOL     OW49974  13.841  12.175  13.517
16026SOL    HW149975  13.909  12.194  13.581
16026SOL    HW249976  13.796  12.258  13.503
16027SOL     OW49977   2.735   3.487   2.081
16027SOL    HW149978   2.654   3.536   2.067
16027SOL    HW249979   2.744   3.482   2.176
16028SOL     OW49980   4.106   8.773  10.785
16028SOL    HW149981   4.167   8.846  10.778
16028SOL    HW249982   4.117   8.742  10.875
16029SOL     OW49983  11.200   2.330   9.544
16029SOL    HW149984  11.185   2.338   9.638
16029SOL    HW249985  11.158   2.407   9.505
16030SOL     OW49986  13.787   8.358   2.177
16030SOL    HW149987  13.799   8.345   2.271
16030SOL    HW249988  13.747   8.276   2.146
16031SOL     OW49989  12.107   1.666   3.387
16031SOL    HW149990  12.185   1.643   3.336
16031SOL    HW249991  12.036   1.665   3.323
16032SOL     OW49992   9.764  11.243   8.323
16032SOL    HW149993   9.722  11.236   8.238
16032SOL    HW249994   9.695  11.273   8.382
16033SOL     OW49995  13.836  12.503   0.685
16033SOL    HW149996  13.820  12.458   0.602
16033SOL    HW249997  13.881  12.438   0.738
16034SOL     OW49998   2.486   2.712   0.627
16034SOL    HW149999   2.478   2.636   0.685
16034SOL    HW250000   2.579   2.735   0.631
16035SOL     OW50001   3.635   4.686   4.344
16035SOL    HW150002   3.710   4.745   4.355
16035SOL    HW250003   3.591   4.718   4.266
16036SOL     OW50004   4.995   3.491  13.299
16036SOL    HW150005   5.021   3.474  13.208
16036SOL    HW250006   4.948   3.412  13.326
16037SOL     OW50007   6.715   7.530  11.771
16037SOL    HW150008   6.779   7.592  11.737
16037SOL    HW250009   6.666   7.501  11.694
16038SOL     OW50010   6.368  11.641   6.534
16038SOL    HW150011   6.402  11.552   6.530
16038SOL    HW250012   6.282  11.636   6.493
16039SOL     OW50013   1.868  10.773   6.676
16039SOL    HW150014   1.880  10.746   6.585
16039SOL    HW250015   1.912  10.705   6.727
16040SOL     OW50016   2.000   8.962  10.299
16040SOL    HW150017   1.918   9.002  10.269
16040SOL    HW250018   2.005   8.984  10.392
16041SOL     OW50019  10.802   7.010   8.172
16041SOL    HW150020  10.897   7.012   8.158
16041SOL    HW250021  10.766   6.982   8.089
16042SOL     OW50022  12.984   5.046   2.321
16042SOL    HW150023  13.064   5.068   2.273
16042SOL    HW250024  12.994   4.954   2.343
16043SOL     OW50025  10.532  14.408   4.925
16043SOL    HW150026  10.592  14.372   4.990
16043SOL    HW250027  10.445  14.386   4.958
16044SOL     OW50028   1.101   3.233   5.721
16044SOL    HW150029   1.191   3.201   5.724
16044SOL    HW250030   1.054   3.166   5.670
16045SOL     OW50031   0.269   6.983   0.510
16045SOL    HW150032   0.293   7.059   0.563
16045SOL    HW250033   0.199   7.015   0.453
16046SOL     OW50034   7.867   2.594  12.118
16046SOL    HW150035   7.830   2.624  12.035
16046SOL    HW250036   7.870   2.498  12.109
16047SOL     OW50037   3.031   5.949   2.375
16047SOL    HW150038   3.124   5.925   2.373
16047SOL    HW250039   2.994   5.897   2.447
16048SOL     OW50040   1.868  14.555   6.053
16048SOL    HW150041   1.817  14.481   6.020
16048SOL    HW250042   1.835  14.570   6.142
16049SOL     OW50043  12.945   6.198  11.133
16049SOL    HW150044  12.972   6.275  11.083
16049SOL    HW250045  12.854   6.216  11.157
16050SOL     OW50046  11.531   4.790   4.470
16050SOL    HW150047  11.437   4.784   4.489
16050SOL    HW250048  11.544   4.881   4.444
16051SOL     OW50049   8.400   2.548   7.908
16051SOL    HW150050   8.367   2.460   7.890
16051SOL    HW250051   8.454   2.570   7.832
16052SOL     OW50052  14.600  12.437   7.043
16052SOL    HW150053  14.597  12.433   6.948
16052SOL    HW250054  14.527  12.382   7.072
16053SOL     OW50055   5.583   7.726  13.221
16053SOL    HW150056   5.636   7.781  13.163
16053SOL    HW250057   5.539   7.789  13.280
16054SOL     OW50058  12.166   1.070  13.449
16054SOL    HW150059  12.233   1.125  13.489
16054SOL    HW250060  12.164   1.098  13.357
16055SOL     OW50061   6.750  13.503  13.843
16055SOL    HW150062   6.685  13.568  13.815
16055SOL    HW250063   6.804  13.488  13.766
16056SOL     OW50064   3.811  13.893  12.005
16056SOL    HW150065   3.781  13.975  11.966
16056SOL    HW250066   3.878  13.920  12.068
16057SOL     OW50067   7.696   6.727  12.953
16057SOL    HW150068   7.755   6.699  12.883
16057SOL    HW250069   7.619   6.762  12.909
16058SOL     OW50070  11.497  12.262  14.087
16058SOL    HW150071  11.442  12.194  14.127
16058SOL    HW250072  11.441  12.339  14.084
16059SOL     OW50073   9.315   2.316   1.301
16059SOL    HW150074   9.320   2.382   1.232
16059SOL    HW250075   9.396   2.326   1.350
16060SOL     OW50076   1.270  10.931   1.502
16060SOL    HW150077   1.226  10.975   1.429
16060SOL    HW250078   1.362  10.959   1.495
16061SOL     OW50079  11.256   6.300   2.075
16061SOL    HW150080  11.277   6.233   2.009
16061SOL    HW250081  11.244   6.381   2.024
16062SOL     OW50082   3.352   3.756   7.642
16062SOL    HW150083   3.289   3.708   7.695
16062SOL    HW250084   3.325   3.740   7.551
16063SOL     OW50085  14.777   3.914   8.865
16063SOL    HW150086  14.715   3.965   8.917
16063SOL    HW250087  14.841   3.883   8.929
16064SOL     OW50088  14.122   8.890  11.428
16064SOL    HW150089  14.174   8.960  11.388
16064SOL    HW250090  14.046   8.880  11.371
16065SOL     OW50091   5.009  10.023  12.254
16065SOL    HW150092   5.013  10.080  12.177
16065SOL    HW250093   5.100  10.016  12.283
16066SOL     OW50094  13.067  11.255   9.258
16066SOL    HW150095  13.060  11.239   9.352
16066SOL    HW250096  13.028  11.342   9.246
16067SOL     OW50097   2.774   4.825   8.970
16067SOL    HW150098   2.856   4.810   8.923
16067SOL    HW250099   2.706   4.796   8.909
16068SOL     OW50100   5.288   2.847  10.178
16068SOL    HW150101   5.354   2.860  10.110
16068SOL    HW250102   5.267   2.936  10.208
16069SOL     OW50103   3.064   7.728   4.309
16069SOL    HW150104   2.984   7.757   4.264
16069SOL    HW250105   3.036   7.714   4.400
16070SOL     OW50106  10.312   0.400   9.394
16070SOL    HW150107  10.229   0.363   9.423
16070SOL    HW250108  10.320   0.483   9.442
16071SOL     OW50109   8.265   2.296   2.288
16071SOL    HW150110   8.193   2.287   2.351
16071SOL    HW250111   8.335   2.242   2.324
16072SOL     OW50112   6.731   5.160   2.928
16072SOL    HW150113   6.798   5.227   2.941
16072SOL    HW250114   6.651   5.199   2.962
16073SOL     OW50115   4.324   9.057  13.764
16073SOL    HW150116   4.379   9.003  13.706
16073SOL    HW250117   4.330   9.145  13.727
16074SOL     OW50118  14.099  13.077   1.331
16074SOL    HW150119  14.053  13.075   1.415
16074SOL    HW250120  14.086  12.990   1.294
16075SOL     OW50121   2.057  12.077   8.838
16075SOL    HW150122   2.045  12.122   8.755
16075SOL    HW250123   2.030  12.142   8.904
16076SOL     OW50124   1.477  10.248   4.877
16076SOL    HW150125   1.521  10.169   4.908
16076SOL    HW250126   1.402  10.257   4.936
16077SOL     OW50127   0.567   6.710  13.857
16077SOL    HW150128   0.662   6.716  13.862
16077SOL    HW250129   0.535   6.776  13.918
16078SOL     OW50130   4.300   2.846  14.449
16078SOL    HW150131   4.379   2.900  14.448
16078SOL    HW250132   4.228   2.909  14.448
16079SOL     OW50133  10.598  11.071  10.386
16079SOL    HW150134  10.568  10.989  10.346
16079SOL    HW250135  10.546  11.079  10.466
16080SOL     OW50136   4.693   8.798   8.592
16080SOL    HW150137   4.686   8.703   8.582
16080SOL    HW250138   4.782   8.819   8.564
16081SOL     OW50139   7.800   7.255  12.304
16081SOL    HW150140   7.873   7.295  12.351
16081SOL    HW250141   7.726   7.264  12.364
16082SOL     OW50142   9.612  13.685   2.654
16082SOL    HW150143   9.518  13.701   2.660
16082SOL    HW250144   9.619  13.589   2.647
16083SOL     OW50145  12.718   6.869   7.910
16083SOL    HW150146  12.677   6.796   7.866
16083SOL    HW250147  12.753   6.832   7.991
16084SOL     OW50148   2.275   0.522   7.650
16084SOL    HW150149   2.275   0.482   7.563
16084SOL    HW250150   2.300   0.450   7.709
16085SOL     OW50151   0.168   4.768  12.772
16085SOL    HW150152   0.201   4.725  12.851
16085SOL    HW250153   0.239   4.829  12.747
16086SOL     OW50154  14.794  13.393  11.240
16086SOL    HW150155  14.808  13.310  11.194
16086SOL    HW250156   0.009  13.437  11.235
16087SOL     OW50157  10.108  11.155   3.666
16087SOL    HW150158  10.070  11.208   3.736
16087SOL    HW250159  10.166  11.094   3.711
16088SOL     OW50160   7.913   7.640   4.943
16088SOL    HW150161   7.873   7.555   4.924
16088SOL    HW250162   7.867   7.672   5.020
16089SOL     OW50163   3.934   9.156   7.177
16089SOL    HW150164   3.848   9.191   7.153
16089SOL    HW250165   3.930   9.063   7.155
16090SOL     OW50166  12.745   5.227  11.040
16090SOL    HW150167  12.655   5.257  11.025
16090SOL    HW250168  12.773   5.193  10.955
16091SOL     OW50169  11.475   3.340   1.133
16091SOL    HW150170  11.546   3.277   1.142
16091SOL    HW250171  11.448   3.359   1.223
16092SOL     OW50172  11.076  10.412   0.663
16092SOL    HW150173  11.026  10.362   0.726
16092SOL    HW250174  11.167  10.402   0.691
16093SOL     OW50175  11.294  14.009   9.251
16093SOL    HW150176  11.376  13.985   9.208
16093SOL    HW250177  11.226  13.968   9.198
16094SOL     OW50178   8.980   6.466   1.738
16094SOL    HW150179   9.034   6.533   1.780
16094SOL    HW250180   8.899   6.465   1.789
16095SOL     OW50181   2.507   6.330  13.191
16095SOL    HW150182   2.512   6.396  13.121
16095SOL    HW250183   2.558   6.368  13.262
16096SOL     OW50184   4.442   4.369  13.736
16096SOL    HW150185   4.440   4.352  13.642
16096SOL    HW250186   4.370   4.317  13.772
16097SOL     OW50187   0.135   4.230   3.354
16097SOL    HW150188   0.087   4.149   3.338
16097SOL    HW250189   0.072   4.286   3.399
16098SOL     OW50190  14.848   1.160   1.560
16098SOL    HW150191  14.868   1.124   1.646
16098SOL    HW250192  14.779   1.103   1.526
16099SOL     OW50193  11.140   5.680   5.601
16099SOL    HW150194  11.068   5.707   5.658
16099SOL    HW250195  11.129   5.732   5.521
16100SOL     OW50196   4.448  12.742   8.922
16100SOL    HW150197   4.377  12.694   8.879
16100SOL    HW250198   4.528  12.698   8.893
16101SOL     OW50199   4.745  11.020   7.809
16101SOL    HW150200   4.815  10.990   7.868
16101SOL    HW250201   4.745  11.115   7.819
16102SOL     OW50202   2.958   6.256   8.250
16102SOL    HW150203   2.927   6.293   8.167
16102SOL    HW250204   2.979   6.165   8.229
16103SOL     OW50205  10.292   4.883   1.367
16103SOL    HW150206  10.264   4.847   1.283
16103SOL    HW250207  10.263   4.818   1.432
16104SOL     OW50208  12.857  11.553  11.838
16104SOL    HW150209  12.903  11.517  11.913
16104SOL    HW250210  12.832  11.642  11.864
16105SOL     OW50211   1.834   3.411   9.791
16105SOL    HW150212   1.871   3.492   9.827
16105SOL    HW250213   1.739   3.424   9.795
16106SOL     OW50214   8.388   3.689   3.054
16106SOL    HW150215   8.343   3.722   3.131
16106SOL    HW250216   8.469   3.651   3.088
16107SOL     OW50217   9.758  14.452  10.359
16107SOL    HW150218   9.671  14.466  10.398
16107SOL    HW250219   9.754  14.364  10.323
16108SOL     OW50220   9.636   9.983   2.427
16108SOL    HW150221   9.554   9.933   2.431
16108SOL    HW250222   9.608  10.073   2.413
16109SOL     OW50223   8.050   7.551   3.708
16109SOL    HW150224   7.962   7.547   3.747
16109SOL    HW250225   8.036   7.594   3.624
16110SOL     OW50226   7.084   4.670  10.220
16110SOL    HW150227   7.157   4.637  10.168
16110SOL    HW250228   7.007   4.655  10.165
16111SOL     OW50229  12.080  14.616  10.162
16111SOL    HW150230  12.154  14.585  10.111
16111SOL    HW250231  12.073  14.554  10.235
16112SOL     OW50232   6.079   5.577   8.673
16112SOL    HW150233   5.989   5.559   8.702
16112SOL    HW250234   6.092   5.520   8.597
16113SOL     OW50235   8.117   8.353  14.582
16113SOL    HW150236   8.119   8.384  14.491
16113SOL    HW250237   8.029   8.374  14.612
16114SOL     OW50238   8.000  14.424   3.425
16114SOL    HW150239   7.956  14.384   3.500
16114SOL    HW250240   8.005  14.354   3.360
16115SOL     OW50241  10.539   4.834   2.940
16115SOL    HW150242  10.523   4.877   3.024
16115SOL    HW250243  10.557   4.742   2.963
16116SOL     OW50244   6.736   8.995   7.023
16116SOL    HW150245   6.770   8.954   7.102
16116SOL    HW250246   6.642   8.981   7.027
16117SOL     OW50247  12.652  12.783   1.719
16117SOL    HW150248  12.734  12.814   1.681
16117SOL    HW250249  12.666  12.788   1.814
16118SOL     OW50250   1.551   1.898  12.721
16118SOL    HW150251   1.630   1.946  12.694
16118SOL    HW250252   1.487   1.917  12.652
16119SOL     OW50253   4.694  14.525   4.255
16119SOL    HW150254   4.774  14.535   4.203
16119SOL    HW250255   4.646  14.454   4.211
16120SOL     OW50256   5.367   5.307  10.326
16120SOL    HW150257   5.393   5.345  10.242
16120SOL    HW250258   5.436   5.336  10.386
16121SOL     OW50259   9.782  13.092   9.185
16121SOL    HW150260   9.713  13.155   9.203
16121SOL    HW250261   9.853  13.143   9.147
16122SOL     OW50262  12.438   2.114   7.045
16122SOL    HW150263  12.435   2.209   7.036
16122SOL    HW250264  12.393   2.081   6.967
16123SOL     OW50265   7.302  14.680   9.264
16123SOL    HW150266   7.349  14.748   9.215
16123SOL    HW250267   7.322  14.599   9.218
16124SOL     OW50268   9.716   4.410  14.130
16124SOL    HW150269   9.653   4.460  14.183
16124SOL    HW250270   9.781   4.380  14.193
16125SOL     OW50271  11.384  13.557  10.775
16125SOL    HW150272  11.374  13.634  10.719
16125SOL    HW250273  11.476  13.559  10.802
16126SOL     OW50274   9.945   6.016  13.822
16126SOL    HW150275  10.008   6.083  13.797
16126SOL    HW250276   9.922   6.038  13.913
16127SOL     OW50277  10.953  13.381   1.460
16127SOL    HW150278  10.867  13.409   1.491
16127SOL    HW250279  10.949  13.285   1.461
16128SOL     OW50280   5.967  10.919  12.131
16128SOL    HW150281   5.985  10.894  12.041
16128SOL    HW250282   5.919  11.002  12.124
16129SOL     OW50283   8.986   5.980   1.522
16129SOL    HW150284   9.002   5.991   1.429
16129SOL    HW250285   8.971   6.068   1.555
16130SOL     OW50286   9.645  11.768   3.894
16130SOL    HW150287   9.595  11.769   3.812
16130SOL    HW250288   9.711  11.837   3.882
16131SOL     OW50289  14.199  10.364   9.428
16131SOL    HW150290  14.128  10.419   9.397
16131SOL    HW250291  14.172  10.275   9.405
16132SOL     OW50292   8.664   9.427  11.032
16132SOL    HW150293   8.659   9.518  11.002
16132SOL    HW250294   8.579   9.412  11.075
16133SOL     OW50295  12.849   2.138   9.350
16133SOL    HW150296  12.790   2.159   9.278
16133SOL    HW250297  12.936   2.135   9.311
16134SOL     OW50298   5.790   0.167   1.096
16134SOL    HW150299   5.795   0.072   1.109
16134SOL    HW250300   5.733   0.178   1.020
16135SOL     OW50301   8.937  12.593   7.343
16135SOL    HW150302   8.962  12.636   7.424
16135SOL    HW250303   8.850  12.628   7.323
16136SOL     OW50304  14.707   2.125  11.532
16136SOL    HW150305  14.721   2.178  11.453
16136SOL    HW250306  14.672   2.187  11.596
16137SOL     OW50307  11.105   2.964  11.572
16137SOL    HW150308  11.140   2.880  11.601
16137SOL    HW250309  11.030   2.940  11.517
16138SOL     OW50310   9.098  11.096  12.120
16138SOL    HW150311   9.080  11.163  12.186
16138SOL    HW250312   9.162  11.137  12.062
16139SOL     OW50313   3.382   7.484   4.954
16139SOL    HW150314   3.439   7.558   4.936
16139SOL    HW250315   3.382   7.433   4.874
16140SOL     OW50316   3.475   8.881   3.187
16140SOL    HW150317   3.473   8.851   3.278
16140SOL    HW250318   3.398   8.841   3.148
16141SOL     OW50319   9.450   0.587   2.618
16141SOL    HW150320   9.491   0.553   2.698
16141SOL    HW250321   9.370   0.630   2.649
16142SOL     OW50322   9.993   1.881   6.281
16142SOL    HW150323  10.080   1.899   6.317
16142SOL    HW250324   9.937   1.948   6.319
16143SOL     OW50325   6.729   8.276  12.231
16143SOL    HW150326   6.715   8.290  12.324
16143SOL    HW250327   6.664   8.210  12.206
16144SOL     OW50328   5.600   1.145  13.562
16144SOL    HW150329   5.529   1.091  13.595
16144SOL    HW250330   5.574   1.168  13.472
16145SOL     OW50331   6.926   8.573  13.313
16145SOL    HW150332   7.014   8.604  13.293
16145SOL    HW250333   6.875   8.595  13.235
16146SOL     OW50334   8.528   6.998   6.337
16146SOL    HW150335   8.577   7.045   6.404
16146SOL    HW250336   8.528   6.907   6.367
16147SOL     OW50337  13.753   9.179  12.476
16147SOL    HW150338  13.663   9.214  12.478
16147SOL    HW250339  13.799   9.234  12.414
16148SOL     OW50340   9.812   4.348   9.800
16148SOL    HW150341   9.814   4.258   9.766
16148SOL    HW250342   9.880   4.350   9.867
16149SOL     OW50343   1.097   2.916   6.930
16149SOL    HW150344   1.107   2.994   6.875
16149SOL    HW250345   1.124   2.945   7.017
16150SOL     OW50346   8.237   1.223   6.774
16150SOL    HW150347   8.312   1.282   6.765
16150SOL    HW250348   8.170   1.275   6.818
16151SOL     OW50349   2.685   3.505  11.349
16151SOL    HW150350   2.772   3.475  11.372
16151SOL    HW250351   2.691   3.601  11.349
16152SOL     OW50352  11.406   5.644   5.664
16152SOL    HW150353  11.410   5.672   5.573
16152SOL    HW250354  11.313   5.644   5.686
16153SOL     OW50355   0.427   1.466  14.318
16153SOL    HW150356   0.372   1.531  14.275
16153SOL    HW250357   0.392   1.382  14.290
16154SOL     OW50358   5.109  14.736   2.647
16154SOL    HW150359   5.172  14.665   2.643
16154SOL    HW250360   5.134  14.787   2.723
16155SOL     OW50361   6.916   0.357   0.698
16155SOL    HW150362   6.840   0.318   0.741
16155SOL    HW250363   6.879   0.412   0.629
16156SOL     OW50364   4.248  13.409   7.717
16156SOL    HW150365   4.305  13.484   7.731
16156SOL    HW250366   4.308  13.335   7.704
16157SOL     OW50367   3.573   4.389   2.539
16157SOL    HW150368   3.589   4.474   2.580
16157SOL    HW250369   3.636   4.386   2.466
16158SOL     OW50370  11.890   3.345  12.152
16158SOL    HW150371  11.945   3.416  12.184
16158SOL    HW250372  11.811   3.350  12.206
16159SOL     OW50373   4.857  13.933   0.889
16159SOL    HW150374   4.871  13.889   0.805
16159SOL    HW250375   4.793  13.877   0.934
16160SOL     OW50376   4.851   3.074  13.541
16160SOL    HW150377   4.890   3.002  13.493
16160SOL    HW250378   4.784   3.033  13.596
16161SOL     OW50379  14.230   3.075   7.011
16161SOL    HW150380  14.225   3.145   7.076
16161SOL    HW250381  14.139   3.051   6.994
16162SOL     OW50382   4.341   2.765   2.790
16162SOL    HW150383   4.261   2.717   2.771
16162SOL    HW250384   4.347   2.830   2.720
16163SOL     OW50385   8.377  10.766  14.293
16163SOL    HW150386   8.441  10.835  14.314
16163SOL    HW250387   8.398  10.741  14.203
16164SOL     OW50388  14.371   7.983   2.271
16164SOL    HW150389  14.411   8.067   2.295
16164SOL    HW250390  14.304   8.006   2.206
16165SOL     OW50391  11.058   8.352   3.119
16165SOL    HW150392  11.097   8.428   3.076
16165SOL    HW250393  10.998   8.390   3.183
16166SOL     OW50394   8.591   9.320   8.310
16166SOL    HW150395   8.577   9.232   8.274
16166SOL    HW250396   8.507   9.343   8.350
16167SOL     OW50397  11.178   8.409   7.628
16167SOL    HW150398  11.112   8.445   7.687
16167SOL    HW250399  11.132   8.400   7.544
16168SOL     OW50400   6.689  10.282   6.235
16168SOL    HW150401   6.625  10.212   6.223
16168SOL    HW250402   6.659  10.328   6.314
16169SOL     OW50403   7.533  14.844  12.606
16169SOL    HW150404   7.524  14.751  12.583
16169SOL    HW250405   7.600  14.845  12.674
16170SOL     OW50406   8.746   3.191   3.274
16170SOL    HW150407   8.651   3.195   3.277
16170SOL    HW250408   8.765   3.097   3.265
16171SOL     OW50409   3.703   7.719   6.299
16171SOL    HW150410   3.798   7.724   6.290
16171SOL    HW250411   3.670   7.797   6.253
16172SOL     OW50412   5.834   0.825   0.236
16172SOL    HW150413   5.839   0.904   0.290
16172SOL    HW250414   5.746   0.828   0.198
16173SOL     OW50415   0.684   2.217  14.761
16173SOL    HW150416   0.591   2.242  14.762
16173SOL    HW250417   0.709   2.222  14.669
16174SOL     OW50418  14.541   6.581   8.518
16174SOL    HW150419  14.524   6.584   8.424
16174SOL    HW250420  14.463   6.540   8.555
16175SOL     OW50421   4.329  11.001  13.619
16175SOL    HW150422   4.321  11.002  13.715
16175SOL    HW250423   4.239  10.998  13.588
16176SOL     OW50424   4.189   5.486  14.858
16176SOL    HW150425   4.278   5.503   0.019
16176SOL    HW250426   4.153   5.573  14.840
16177SOL     OW50427   8.698  12.521   2.148
16177SOL    HW150428   8.621  12.524   2.206
16177SOL    HW250429   8.743  12.440   2.172
16178SOL     OW50430   8.241   5.710  11.278
16178SOL    HW150431   8.306   5.669  11.335
16178SOL    HW250432   8.290   5.741  11.202
16179SOL     OW50433   2.404   6.502   5.533
16179SOL    HW150434   2.428   6.568   5.599
16179SOL    HW250435   2.480   6.443   5.531
16180SOL     OW50436   6.190  11.048   9.795
16180SOL    HW150437   6.129  11.018   9.728
16180SOL    HW250438   6.138  11.052   9.875
16181SOL     OW50439   1.151   9.436   8.126
16181SOL    HW150440   1.193   9.405   8.206
16181SOL    HW250441   1.126   9.526   8.146
16182SOL     OW50442  14.208   0.669   5.912
16182SOL    HW150443  14.249   0.638   5.993
16182SOL    HW250444  14.280   0.704   5.861
16183SOL     OW50445   3.198   9.246  14.277
16183SOL    HW150446   3.122   9.303  14.270
16183SOL    HW250447   3.167   9.160  14.248
16184SOL     OW50448  12.349  12.879  12.283
16184SOL    HW150449  12.283  12.947  12.295
16184SOL    HW250450  12.299  12.801  12.260
16185SOL     OW50451  12.943   7.642   8.805
16185SOL    HW150452  12.939   7.546   8.802
16185SOL    HW250453  13.019   7.661   8.859
16186SOL     OW50454  13.777  13.650   5.850
16186SOL    HW150455  13.787  13.571   5.798
16186SOL    HW250456  13.706  13.630   5.911
16187SOL     OW50457   7.099   8.838   0.174
16187SOL    HW150458   7.170   8.895   0.203
16187SOL    HW250459   7.046   8.893   0.117
16188SOL     OW50460   9.808   3.317  13.855
16188SOL    HW150461   9.720   3.287  13.878
16188SOL    HW250462   9.800   3.349  13.765
16189SOL     OW50463  12.149   6.139   5.270
16189SOL    HW150464  12.061   6.101   5.262
16189SOL    HW250465  12.137   6.231   5.244
16190SOL     OW50466   8.794  12.972   4.566
16190SOL    HW150467   8.739  13.019   4.503
16190SOL    HW250468   8.784  12.880   4.542
16191SOL     OW50469   2.407   3.687   4.899
16191SOL    HW150470   2.488   3.668   4.947
16191SOL    HW250471   2.371   3.763   4.944
16192SOL     OW50472   2.938   3.909   9.609
16192SOL    HW150473   2.988   3.968   9.664
16192SOL    HW250474   2.965   3.930   9.520
16193SOL     OW50475  13.088  14.182   7.856
16193SOL    HW150476  13.071  14.235   7.934
16193SOL    HW250477  13.059  14.094   7.880
16194SOL     OW50478   0.325  13.801   9.150
16194SOL    HW150479   0.287  13.754   9.076
16194SOL    HW250480   0.418  13.811   9.126
16195SOL     OW50481   3.744   6.390   2.441
16195SOL    HW150482   3.768   6.359   2.528
16195SOL    HW250483   3.649   6.403   2.445
16196SOL     OW50484   4.971   5.061   9.707
16196SOL    HW150485   4.882   5.027   9.712
16196SOL    HW250486   4.989   5.068   9.613
16197SOL     OW50487   8.939   6.804   0.194
16197SOL    HW150488   8.925   6.851   0.277
16197SOL    HW250489   8.981   6.868   0.137
16198SOL     OW50490  10.550   9.308   6.192
16198SOL    HW150491  10.543   9.378   6.257
16198SOL    HW250492  10.488   9.332   6.124
16199SOL     OW50493   6.236   4.829   0.286
16199SOL    HW150494   6.166   4.793   0.231
16199SOL    HW250495   6.259   4.911   0.245
16200SOL     OW50496   1.666   7.536   3.042
16200SOL    HW150497   1.703   7.449   3.027
16200SOL    HW250498   1.693   7.558   3.132
16201SOL     OW50499   4.176   3.817   7.549
16201SOL    HW150500   4.194   3.737   7.499
16201SOL    HW250501   4.173   3.886   7.483
16202SOL     OW50502  11.681   6.524   3.830
16202SOL    HW150503  11.647   6.587   3.893
16202SOL    HW250504  11.776   6.533   3.837
16203SOL     OW50505   1.633  13.132   5.203
16203SOL    HW150506   1.613  13.213   5.156
16203SOL    HW250507   1.691  13.084   5.143
16204SOL     OW50508  14.101  10.587   7.247
16204SOL    HW150509  14.010  10.617   7.238
16204SOL    HW250510  14.096  10.513   7.308
16205SOL     OW50511   4.980   6.536  11.937
16205SOL    HW150512   5.068   6.520  11.970
16205SOL    HW250513   4.938   6.589  12.005
16206SOL     OW50514  11.928   8.376  11.035
16206SOL    HW150515  11.866   8.307  11.012
16206SOL    HW250516  11.874   8.448  11.067
16207SOL     OW50517  11.813   2.764   5.752
16207SOL    HW150518  11.796   2.718   5.670
16207SOL    HW250519  11.761   2.844   5.745
16208SOL     OW50520  14.767  10.841   3.821
16208SOL    HW150521  14.767  10.772   3.887
16208SOL    HW250522  14.840  10.819   3.763
16209SOL     OW50523   3.094   0.980   0.189
16209SOL    HW150524   3.160   0.976   0.259
16209SOL    HW250525   3.116   0.906   0.132
16210SOL     OW50526   3.753  10.958   2.582
16210SOL    HW150527   3.698  11.030   2.549
16210SOL    HW250528   3.842  10.988   2.567
16211SOL     OW50529   0.004   7.345  14.560
16211SOL    HW150530   0.057   7.266  14.567
16211SOL    HW250531   0.055   7.412  14.605
16212SOL     OW50532  10.996  12.118   7.162
16212SOL    HW150533  10.969  12.200   7.121
16212SOL    HW250534  11.075  12.141   7.211
16213SOL     OW50535   4.797   5.563  11.940
16213SOL    HW150536   4.878   5.603  11.908
16213SOL    HW250537   4.733   5.633  11.936
16214SOL     OW50538  12.162  12.745   6.956
16214SOL    HW150539  12.134  12.811   7.019
16214SOL    HW250540  12.200  12.794   6.884
16215SOL     OW50541   3.748  13.284  10.681
16215SOL    HW150542   3.781  13.364  10.639
16215SOL    HW250543   3.658  13.305  10.705
16216SOL     OW50544  10.559  12.281   4.314
16216SOL    HW150545  10.511  12.255   4.393
16216SOL    HW250546  10.522  12.366   4.291
16217SOL     OW50547   1.228  10.134   6.621
16217SOL    HW150548   1.295  10.087   6.573
16217SOL    HW250549   1.216  10.216   6.572
16218SOL     OW50550  12.480   6.193   8.001
16218SOL    HW150551  12.496   6.132   7.929
16218SOL    HW250552  12.525   6.273   7.974
16219SOL     OW50553   3.575   0.302   9.989
16219SOL    HW150554   3.585   0.285  10.083
16219SOL    HW250555   3.598   0.220   9.947
16220SOL     OW50556  12.894   4.986  14.809
16220SOL    HW150557  12.862   4.930   0.009
16220SOL    HW250558  12.873   4.938  14.728
16221SOL     OW50559   3.359   2.554  13.531
16221SOL    HW150560   3.331   2.637  13.571
16221SOL    HW250561   3.429   2.579  13.471
16222SOL     OW50562  10.674  10.957  12.427
16222SOL    HW150563  10.734  11.001  12.367
16222SOL    HW250564  10.591  11.005  12.418
16223SOL     OW50565   9.891  13.965  12.871
16223SOL    HW150566   9.901  14.053  12.906
16223SOL    HW250567   9.939  13.966  12.788
16224SOL     OW50568   4.292   1.336   6.662
16224SOL    HW150569   4.278   1.269   6.728
16224SOL    HW250570   4.301   1.417   6.711
16225SOL     OW50571   4.850   5.959   1.483
16225SOL    HW150572   4.791   5.983   1.410
16225SOL    HW250573   4.792   5.923   1.550
16226SOL     OW50574   4.553   6.893   4.856
16226SOL    HW150575   4.482   6.924   4.798
16226SOL    HW250576   4.632   6.900   4.803
16227SOL     OW50577  10.418   8.237   1.165
16227SOL    HW150578  10.423   8.329   1.142
16227SOL    HW250579  10.409   8.236   1.261
16228SOL     OW50580   1.786  13.932  13.581
16228SOL    HW150581   1.821  14.022  13.582
16228SOL    HW250582   1.842  13.885  13.643
16229SOL     OW50583   7.615  14.418  12.871
16229SOL    HW150584   7.705  14.437  12.846
16229SOL    HW250585   7.622  14.364  12.950
16230SOL     OW50586   2.446   4.324   3.542
16230SOL    HW150587   2.471   4.414   3.560
16230SOL    HW250588   2.359   4.316   3.580
16231SOL     OW50589   0.581   0.802   8.889
16231SOL    HW150590   0.611   0.823   8.977
16231SOL    HW250591   0.594   0.882   8.839
16232SOL     OW50592   4.087   1.568  14.669
16232SOL    HW150593   4.178   1.561  14.700
16232SOL    HW250594   4.093   1.622  14.590
16233SOL     OW50595  11.463  11.193   4.421
16233SOL    HW150596  11.502  11.152   4.344
16233SOL    HW250597  11.538  11.217   4.475
16234SOL     OW50598  12.931  14.799   3.013
16234SOL    HW150599  12.940  14.736   3.085
16234SOL    HW250600  12.920   0.014   3.056
16235SOL     OW50601   4.993   2.241  10.216
16235SOL    HW150602   5.069   2.195  10.181
16235SOL    HW250603   5.029   2.307  10.275
16236SOL     OW50604   8.032   7.796   2.131
16236SOL    HW150605   8.125   7.770   2.128
16236SOL    HW250606   7.985   7.716   2.108
16237SOL     OW50607  10.981   1.855  11.263
16237SOL    HW150608  11.071   1.841  11.233
16237SOL    HW250609  10.926   1.832  11.189
16238SOL     OW50610   5.223   3.157   5.084
16238SOL    HW150611   5.275   3.144   5.164
16238SOL    HW250612   5.278   3.121   5.015
16239SOL     OW50613  11.589  12.248   9.946
16239SOL    HW150614  11.631  12.308   9.885
16239SOL    HW250615  11.520  12.300   9.987
16240SOL     OW50616   5.031  12.322  12.086
16240SOL    HW150617   5.047  12.412  12.058
16240SOL    HW250618   4.936  12.317  12.100
16241SOL     OW50619  14.736   4.163   1.494
16241SOL    HW150620  14.653   4.209   1.483
16241SOL    HW250621  14.750   4.118   1.410
16242SOL     OW50622  11.982   6.111   5.764
16242SOL    HW150623  12.070   6.094   5.732
16242SOL    HW250624  11.943   6.024   5.773
16243SOL     OW50625  11.814   8.833   0.357
16243SOL    HW150626  11.801   8.928   0.353
16243SOL    HW250627  11.742   8.801   0.411
16244SOL     OW50628   4.795   9.626   0.416
16244SOL    HW150629   4.880   9.666   0.438
16244SOL    HW250630   4.778   9.564   0.487
16245SOL     OW50631   5.466   7.176   8.777
16245SOL    HW150632   5.463   7.237   8.850
16245SOL    HW250633   5.454   7.089   8.817
16246SOL     OW50634  12.426   6.877   1.547
16246SOL    HW150635  12.509   6.829   1.544
16246SOL    HW250636  12.379   6.848   1.469
16247SOL     OW50637   2.972   5.289   5.949
16247SOL    HW150638   2.958   5.194   5.945
16247SOL    HW250639   2.884   5.327   5.940
16248SOL     OW50640  13.803   7.829  12.629
16248SOL    HW150641  13.845   7.852  12.546
16248SOL    HW250642  13.807   7.908  12.682
16249SOL     OW50643   2.681  12.422  13.593
16249SOL    HW150644   2.728  12.494  13.551
16249SOL    HW250645   2.714  12.343  13.548
16250SOL     OW50646  14.408   6.693   0.679
16250SOL    HW150647  14.367   6.620   0.633
16250SOL    HW250648  14.443   6.654   0.759
16251SOL     OW50649   9.383   1.404   9.769
16251SOL    HW150650   9.433   1.484   9.752
16251SOL    HW250651   9.429   1.362   9.842
16252SOL     OW50652   1.873   7.040   3.279
16252SOL    HW150653   1.931   7.013   3.208
16252SOL    HW250654   1.924   7.102   3.330
16253SOL     OW50655  10.029   5.979  13.406
16253SOL    HW150656  10.103   6.021  13.363
16253SOL    HW250657   9.984   6.049  13.452
16254SOL     OW50658  11.197   7.372   8.909
16254SOL    HW150659  11.288   7.396   8.929
16254SOL    HW250660  11.170   7.437   8.843
16255SOL     OW50661  14.582   9.604  12.931
16255SOL    HW150662  14.635   9.668  12.979
16255SOL    HW250663  14.534   9.558  12.999
16256SOL     OW50664   6.342   2.209   2.944
16256SOL    HW150665   6.426   2.250   2.921
16256SOL    HW250666   6.365   2.120   2.970
16257SOL     OW50667   1.298   3.857  14.721
16257SOL    HW150668   1.336   3.800  14.788
16257SOL    HW250669   1.278   3.798  14.649
16258SOL     OW50670   3.350  10.860  11.082
16258SOL    HW150671   3.302  10.811  11.015
16258SOL    HW250672   3.407  10.795  11.123
16259SOL     OW50673  14.549  12.022  11.528
16259SOL    HW150674  14.480  11.992  11.588
16259SOL    HW250675  14.595  11.943  11.503
16260SOL     OW50676  13.204   1.601  11.129
16260SOL    HW150677  13.232   1.640  11.046
16260SOL    HW250678  13.281   1.554  11.160
16261SOL     OW50679   4.099   0.769  11.157
16261SOL    HW150680   4.070   0.828  11.227
16261SOL    HW250681   4.143   0.827  11.094
16262SOL     OW50682   4.103  10.786   2.040
16262SOL    HW150683   4.187  10.815   2.075
16262SOL    HW250684   4.116  10.780   1.945
16263SOL     OW50685  12.781   2.006  10.871
16263SOL    HW150686  12.875   2.001  10.891
16263SOL    HW250687  12.759   2.098  10.880
16264SOL     OW50688   8.878   7.974   2.558
16264SOL    HW150689   8.799   7.952   2.509
16264SOL    HW250690   8.913   7.890   2.588
16265SOL     OW50691  13.333   9.807   9.565
16265SOL    HW150692  13.426   9.828   9.555
16265SOL    HW250693  13.319   9.800   9.659
16266SOL     OW50694   1.306   6.910   8.988
16266SOL    HW150695   1.311   6.814   8.994
16266SOL    HW250696   1.244   6.935   9.056
16267SOL     OW50697   0.064  14.113  14.198
16267SOL    HW150698   0.099  14.034  14.157
16267SOL    HW250699  14.842  14.115  14.172
16268SOL     OW50700   4.624   1.331  13.190
16268SOL    HW150701   4.684   1.288  13.250
16268SOL    HW250702   4.606   1.266  13.122
16269SOL     OW50703   0.439  10.816   4.421
16269SOL    HW150704   0.473  10.727   4.427
16269SOL    HW250705   0.438  10.835   4.327
16270SOL     OW50706   6.195  14.454   7.644
16270SOL    HW150707   6.122  14.394   7.631
16270SOL    HW250708   6.174  14.530   7.589
16271SOL     OW50709   5.733  14.154  13.103
16271SOL    HW150710   5.678  14.224  13.067
16271SOL    HW250711   5.671  14.092  13.141
16272SOL     OW50712   4.415   6.170   6.035
16272SOL    HW150713   4.401   6.212   6.120
16272SOL    HW250714   4.506   6.188   6.013
16273SOL     OW50715   3.056   2.737   1.697
16273SOL    HW150716   3.006   2.761   1.619
16273SOL    HW250717   3.142   2.775   1.684
16274SOL     OW50718   6.052  10.248  12.688
16274SOL    HW150719   6.020  10.337  12.675
16274SOL    HW250720   6.034  10.203  12.606
16275SOL     OW50721  10.191   6.962   9.476
16275SOL    HW150722  10.141   6.882   9.460
16275SOL    HW250723  10.270   6.932   9.521
16276SOL     OW50724   3.800  11.441  14.558
16276SOL    HW150725   3.866  11.415  14.494
16276SOL    HW250726   3.766  11.524  14.524
16277SOL     OW50727   7.374   2.577   3.153
16277SOL    HW150728   7.392   2.527   3.073
16277SOL    HW250729   7.454   2.626   3.170
16278SOL     OW50730   7.208   8.802   5.006
16278SOL    HW150731   7.212   8.873   5.070
16278SOL    HW250732   7.131   8.751   5.030
16279SOL     OW50733   6.445  10.408   9.856
16279SOL    HW150734   6.403  10.430   9.939
16279SOL    HW250735   6.532  10.449   9.861
16280SOL     OW50736  11.029   5.952   7.644
16280SOL    HW150737  10.945   5.906   7.656
16280SOL    HW250738  11.038   5.961   7.550
16281SOL     OW50739  12.062  13.709  10.049
16281SOL    HW150740  12.057  13.714  10.144
16281SOL    HW250741  12.030  13.622  10.028
16282SOL     OW50742   7.635  10.770  12.082
16282SOL    HW150743   7.631  10.865  12.076
16282SOL    HW250744   7.724  10.751  12.111
16283SOL     OW50745   5.770   7.228   5.160
16283SOL    HW150746   5.729   7.242   5.245
16283SOL    HW250747   5.789   7.134   5.157
16284SOL     OW50748   8.238  11.540  14.774
16284SOL    HW150749   8.300  11.557  14.703
16284SOL    HW250750   8.232  11.445  14.779
16285SOL     OW50751  12.907   0.507  10.063
16285SOL    HW150752  12.871   0.593  10.044
16285SOL    HW250753  13.000   0.515  10.046
16286SOL     OW50754   2.959  12.649   1.324
16286SOL    HW150755   3.046  12.623   1.356
16286SOL    HW250756   2.903  12.575   1.346
16287SOL     OW50757   8.554  10.666   3.557
16287SOL    HW150758   8.466  10.697   3.578
16287SOL    HW250759   8.587  10.728   3.493
16288SOL     OW50760   0.847  13.011  12.275
16288SOL    HW150761   0.824  13.012  12.182
16288SOL    HW250762   0.806  12.931  12.308
16289SOL     OW50763  12.390  12.309   8.125
16289SOL    HW150764  12.434  12.296   8.209
16289SOL    HW250765  12.309  12.355   8.146
16290SOL     OW50766  12.063   1.539  13.504
16290SOL    HW150767  12.051   1.456  13.458
16290SOL    HW250768  12.010   1.602  13.455
16291SOL     OW50769   1.870  10.842  13.183
16291SOL    HW150770   1.819  10.792  13.247
16291SOL    HW250771   1.961  10.828  13.209
16292SOL     OW50772   1.960   6.184  11.210
16292SOL    HW150773   1.960   6.202  11.116
16292SOL    HW250774   1.912   6.101  11.219
16293SOL     OW50775   0.578  11.047   6.098
16293SOL    HW150776   0.630  11.112   6.051
16293SOL    HW250777   0.618  11.041   6.184
16294SOL     OW50778  14.191   0.466  12.860
16294SOL    HW150779  14.160   0.506  12.942
16294SOL    HW250780  14.228   0.539  12.810
16295SOL     OW50781   2.853  13.679  10.777
16295SOL    HW150782   2.933  13.670  10.725
16295SOL    HW250783   2.792  13.615  10.739
16296SOL     OW50784   7.648   5.898  13.506
16296SOL    HW150785   7.743   5.912  13.517
16296SOL    HW250786   7.621   5.969  13.447
16297SOL     OW50787  10.679  14.834   5.314
16297SOL    HW150788  10.738  14.770   5.275
16297SOL    HW250789  10.608  14.782   5.352
16298SOL     OW50790   1.362   0.127  13.262
16298SOL    HW150791   1.415   0.111  13.184
16298SOL    HW250792   1.287   0.177  13.230
16299SOL     OW50793   0.067   1.233   3.664
16299SOL    HW150794   0.004   1.291   3.622
16299SOL    HW250795   0.119   1.291   3.719
16300SOL     OW50796  11.675  14.328  14.493
16300SOL    HW150797  11.634  14.279  14.564
16300SOL    HW250798  11.721  14.399  14.538
16301SOL     OW50799   5.400   4.616  10.130
16301SOL    HW150800   5.334   4.551  10.105
16301SOL    HW250801   5.479   4.565  10.146
16302SOL     OW50802   2.096  11.561   9.616
16302SOL    HW150803   2.098  11.630   9.549
16302SOL    HW250804   2.178  11.514   9.604
16303SOL     OW50805  12.343  11.228   5.954
16303SOL    HW150806  12.304  11.207   6.039
16303SOL    HW250807  12.313  11.317   5.936
16304SOL     OW50808   1.630  11.027   6.430
16304SOL    HW150809   1.579  11.096   6.386
16304SOL    HW250810   1.603  10.946   6.388
16305SOL     OW50811   2.267   3.284  10.990
16305SOL    HW150812   2.307   3.206  10.950
16305SOL    HW250813   2.305   3.287  11.078
16306SOL     OW50814   1.059   0.944   5.667
16306SOL    HW150815   1.023   0.954   5.579
16306SOL    HW250816   0.992   0.895   5.715
16307SOL     OW50817   3.384   6.677   4.040
16307SOL    HW150818   3.478   6.667   4.057
16307SOL    HW250819   3.368   6.628   3.960
16308SOL     OW50820   7.369  12.820   4.329
16308SOL    HW150821   7.350  12.848   4.239
16308SOL    HW250822   7.284  12.797   4.366
16309SOL     OW50823   0.271   4.215   3.784
16309SOL    HW150824   0.309   4.277   3.847
16309SOL    HW250825   0.260   4.134   3.833
16310SOL     OW50826   6.457   9.664   1.381
16310SOL    HW150827   6.472   9.729   1.450
16310SOL    HW250828   6.361   9.656   1.377
16311SOL     OW50829   6.603  11.656   8.586
16311SOL    HW150830   6.542  11.691   8.521
16311SOL    HW250831   6.680  11.630   8.534
16312SOL     OW50832  10.200  10.971   5.367
16312SOL    HW150833  10.258  10.959   5.443
16312SOL    HW250834  10.112  10.967   5.403
16313SOL     OW50835   2.258  12.560   7.519
16313SOL    HW150836   2.211  12.593   7.597
16313SOL    HW250837   2.345  12.600   7.526
16314SOL     OW50838   9.777   0.798   0.648
16314SOL    HW150839   9.756   0.861   0.578
16314SOL    HW250840   9.727   0.829   0.723
16315SOL     OW50841   0.085  12.175   3.075
16315SOL    HW150842   0.012  12.205   3.129
16315SOL    HW250843   0.091  12.239   3.004
16316SOL     OW50844   7.973  14.101   2.217
16316SOL    HW150845   8.064  14.126   2.232
16316SOL    HW250846   7.922  14.162   2.270
16317SOL     OW50847   4.364   7.471  13.966
16317SOL    HW150848   4.339   7.497  14.055
16317SOL    HW250849   4.283   7.475  13.916
16318SOL     OW50850   9.601  11.948  13.564
16318SOL    HW150851   9.589  11.937  13.470
16318SOL    HW250852   9.652  12.028  13.573
16319SOL     OW50853   8.550  13.995   9.249
16319SOL    HW150854   8.572  14.082   9.283
16319SOL    HW250855   8.460  14.004   9.218
16320SOL     OW50856   1.334   7.224   2.486
16320SOL    HW150857   1.284   7.232   2.567
16320SOL    HW250858   1.396   7.297   2.488
16321SOL     OW50859  12.077  10.830   9.652
16321SOL    HW150860  12.145  10.793   9.708
16321SOL    HW250861  12.078  10.924   9.671
16322SOL     OW50862   4.054   5.858   8.414
16322SOL    HW150863   4.144   5.889   8.424
16322SOL    HW250864   4.046   5.787   8.478
16323SOL     OW50865   7.934   8.442   6.033
16323SOL    HW150866   7.991   8.511   6.001
16323SOL    HW250867   7.921   8.462   6.126
16324SOL     OW50868  14.406   8.502   3.084
16324SOL    HW150869  14.491   8.481   3.044
16324SOL    HW250870  14.424   8.581   3.136
16325SOL     OW50871   9.068  13.167  14.849
16325SOL    HW150872   9.082  13.099  14.783
16325SOL    HW250873   9.080  13.249  14.801
16326SOL     OW50874  14.419  11.344   9.033
16326SOL    HW150875  14.475  11.389   8.970
16326SOL    HW250876  14.466  11.353   9.117
16327SOL     OW50877   3.285   9.018   5.917
16327SOL    HW150878   3.377   8.997   5.901
16327SOL    HW250879   3.259   9.072   5.843
16328SOL     OW50880  14.110   7.910  14.013
16328SOL    HW150881  14.171   7.877  13.947
16328SOL    HW250882  14.023   7.892  13.977
16329SOL     OW50883   4.157  11.017   3.320
16329SOL    HW150884   4.179  11.036   3.229
16329SOL    HW250885   4.172  10.922   3.329
16330SOL     OW50886   0.872   1.232   7.995
16330SOL    HW150887   0.833   1.194   7.917
16330SOL    HW250888   0.962   1.199   7.995
16331SOL     OW50889   9.172   6.768   1.022
16331SOL    HW150890   9.126   6.760   0.939
16331SOL    HW250891   9.177   6.679   1.057
16332SOL     OW50892   5.172  14.051   0.693
16332SOL    HW150893   5.110  13.979   0.680
16332SOL    HW250894   5.198  14.043   0.785
16333SOL     OW50895  11.966   9.464  12.441
16333SOL    HW150896  12.040   9.514  12.406
16333SOL    HW250897  11.976   9.376  12.404
16334SOL     OW50898   7.146  12.542   8.187
16334SOL    HW150899   7.053  12.520   8.174
16334SOL    HW250900   7.193  12.472   8.141
16335SOL     OW50901   6.715  13.986   9.875
16335SOL    HW150902   6.653  13.914   9.867
16335SOL    HW250903   6.677  14.043   9.942
16336SOL     OW50904   1.878   2.791   2.383
16336SOL    HW150905   1.843   2.873   2.417
16336SOL    HW250906   1.832   2.723   2.431
16337SOL     OW50907   0.951   8.127  12.069
16337SOL    HW150908   0.905   8.051  12.104
16337SOL    HW250909   1.004   8.093  11.998
16338SOL     OW50910  11.031   8.279  11.129
16338SOL    HW150911  11.041   8.219  11.055
16338SOL    HW250912  11.047   8.365  11.092
16339SOL     OW50913  11.295  11.066   3.832
16339SOL    HW150914  11.294  11.093   3.924
16339SOL    HW250915  11.264  10.976   3.834
16340SOL     OW50916   0.137   1.508   9.191
16340SOL    HW150917   0.189   1.433   9.161
16340SOL    HW250918   0.177   1.532   9.275
16341SOL     OW50919   9.513   6.451   1.484
16341SOL    HW150920   9.556   6.366   1.474
16341SOL    HW250921   9.480   6.471   1.396
16342SOL     OW50922   2.405  13.207   0.802
16342SOL    HW150923   2.427  13.192   0.894
16342SOL    HW250924   2.477  13.260   0.768
16343SOL     OW50925  10.401   1.763   4.046
16343SOL    HW150926  10.415   1.694   3.982
16343SOL    HW250927  10.311   1.792   4.032
16344SOL     OW50928  11.883   4.605   7.205
16344SOL    HW150929  11.816   4.596   7.273
16344SOL    HW250930  11.904   4.515   7.181
16345SOL     OW50931   5.474  10.176   6.599
16345SOL    HW150932   5.431  10.195   6.682
16345SOL    HW250933   5.515  10.091   6.613
16346SOL     OW50934   8.333   7.251   1.057
16346SOL    HW150935   8.274   7.291   1.121
16346SOL    HW250936   8.411   7.229   1.107
16347SOL     OW50937   0.973  11.169  11.939
16347SOL    HW150938   0.975  11.258  11.974
16347SOL    HW250939   0.971  11.181  11.844
16348SOL     OW50940   1.014   5.409   6.117
16348SOL    HW150941   1.029   5.488   6.168
16348SOL    HW250942   0.999   5.441   6.028
16349SOL     OW50943  14.181  10.119  14.021
16349SOL    HW150944  14.266  10.107  13.978
16349SOL    HW250945  14.132  10.174  13.959
16350SOL     OW50946   3.988  11.461  12.628
16350SOL    HW150947   4.066  11.407  12.643
16350SOL    HW250948   3.915  11.400  12.634
16351SOL     OW50949  12.734   3.478  13.587
16351SOL    HW150950  12.658   3.422  13.568
16351SOL    HW250951  12.792   3.421  13.638
16352SOL     OW50952   6.537  10.252   0.105
16352SOL    HW150953   6.576  10.215   0.184
16352SOL    HW250954   6.446  10.271   0.130
16353SOL     OW50955  13.441  12.001   0.986
16353SOL    HW150956  13.354  12.038   1.002
16353SOL    HW250957  13.424  11.908   0.970
16354SOL     OW50958   7.746  11.149   8.146
16354SOL    HW150959   7.829  11.195   8.159
16354SOL    HW250960   7.708  11.143   8.233
16355SOL     OW50961  14.733   2.269  13.330
16355SOL    HW150962  14.796   2.279  13.258
16355SOL    HW250963  14.764   2.328  13.398
16356SOL     OW50964   6.272   3.304   0.639
16356SOL    HW150965   6.198   3.318   0.699
16356SOL    HW250966   6.345   3.278   0.696
16357SOL     OW50967  11.408  14.173   4.610
16357SOL    HW150968  11.391  14.198   4.519
16357SOL    HW250969  11.329  14.126   4.637
16358SOL     OW50970  12.084   6.884   4.003
16358SOL    HW150971  12.132   6.953   4.048
16358SOL    HW250972  12.107   6.894   3.910
16359SOL     OW50973   9.165   5.187   0.808
16359SOL    HW150974   9.217   5.187   0.728
16359SOL    HW250975   9.195   5.110   0.856
16360SOL     OW50976   4.189  12.378  14.018
16360SOL    HW150977   4.198  12.387  14.113
16360SOL    HW250978   4.156  12.462  13.988
16361SOL     OW50979   1.113   9.657   0.509
16361SOL    HW150980   1.067   9.740   0.512
16361SOL    HW250981   1.096   9.616   0.594
16362SOL     OW50982   6.313   4.273   3.142
16362SOL    HW150983   6.395   4.224   3.138
16362SOL    HW250984   6.255   4.229   3.079
16363SOL     OW50985   7.295   0.285   8.890
16363SOL    HW150986   7.304   0.330   8.974
16363SOL    HW250987   7.347   0.338   8.829
16364SOL     OW50988   6.679  12.878  12.789
16364SOL    HW150989   6.763  12.842  12.763
16364SOL    HW250990   6.636  12.807  12.837
16365SOL     OW50991  12.154   1.407   1.962
16365SOL    HW150992  12.073   1.455   1.947
16365SOL    HW250993  12.189   1.391   1.875
16366SOL     OW50994   7.809   0.627   5.836
16366SOL    HW150995   7.873   0.652   5.769
16366SOL    HW250996   7.795   0.533   5.821
16367SOL     OW50997   1.370  10.483  13.111
16367SOL    HW150998   1.456  10.462  13.074
16367SOL    HW250999   1.318  10.403  13.098
16368SOL     OW51000   9.643  11.064   1.582
16368SOL    HW151001   9.573  11.013   1.625
16368SOL    HW251002   9.698  11.093   1.655
16369SOL     OW51003   4.292   3.985   0.671
16369SOL    HW151004   4.201   3.955   0.675
16369SOL    HW251005   4.311   3.990   0.577
16370SOL     OW51006   5.691   6.614   7.850
16370SOL    HW151007   5.633   6.665   7.794
16370SOL    HW251008   5.764   6.673   7.870
16371SOL     OW51009   0.515   9.479  11.168
16371SOL    HW151010   0.533   9.558  11.118
16371SOL    HW251011   0.528   9.505  11.259
16372SOL     OW51012   8.526   3.321   0.697
16372SOL    HW151013   8.610   3.274   0.702
16372SOL    HW251014   8.486   3.308   0.783
16373SOL     OW51015  11.169   2.932   3.765
16373SOL    HW151016  11.139   2.953   3.853
16373SOL    HW251017  11.089   2.912   3.716
16374SOL     OW51018   6.354   2.154  10.009
16374SOL    HW151019   6.449   2.149  10.007
16374SOL    HW251020   6.335   2.248  10.015
16375SOL     OW51021  12.779   0.294  11.394
16375SOL    HW151022  12.813   0.368  11.443
16375SOL    HW251023  12.701   0.267  11.443
16376SOL     OW51024   3.131   6.611   2.543
16376SOL    HW151025   3.140   6.641   2.452
16376SOL    HW251026   3.040   6.582   2.549
16377SOL     OW51027   0.451  13.886   5.841
16377SOL    HW151028   0.385  13.871   5.910
16377SOL    HW251029   0.487  13.799   5.823
16378SOL     OW51030   4.989   5.961   8.527
16378SOL    HW151031   5.075   5.944   8.566
16378SOL    HW251032   4.933   5.978   8.603
16379SOL     OW51033   0.287   6.686   3.184
16379SOL    HW151034   0.293   6.767   3.133
16379SOL    HW251035   0.290   6.616   3.118
16380SOL     OW51036   8.841  11.108  10.423
16380SOL    HW151037   8.773  11.170  10.398
16380SOL    HW251038   8.799  11.022  10.418
16381SOL     OW51039  10.398  12.622   1.048
16381SOL    HW151040  10.437  12.553   0.994
16381SOL    HW251041  10.473  12.671   1.082
16382SOL     OW51042   9.687   8.057  14.696
16382SOL    HW151043   9.726   7.996  14.759
16382SOL    HW251044   9.730   8.140  14.713
16383SOL     OW51045   0.385   1.719   5.628
16383SOL    HW151046   0.320   1.727   5.698
16383SOL    HW251047   0.384   1.804   5.584
16384SOL     OW51048   0.353   8.190   8.675
16384SOL    HW151049   0.342   8.181   8.581
16384SOL    HW251050   0.371   8.283   8.689
16385SOL     OW51051   3.482  10.811   6.789
16385SOL    HW151052   3.391  10.835   6.771
16385SOL    HW251053   3.488  10.810   6.885
16386SOL     OW51054   3.747   3.484  10.663
16386SOL    HW151055   3.802   3.422  10.616
16386SOL    HW251056   3.711   3.434  10.736
16387SOL     OW51057   4.943   2.130  13.763
16387SOL    HW151058   4.990   2.176  13.833
16387SOL    HW251059   4.861   2.180  13.752
16388SOL     OW51060  14.600   8.045   4.015
16388SOL    HW151061  14.595   8.115   4.080
16388SOL    HW251062  14.650   7.976   4.058
16389SOL     OW51063   7.136  10.856   3.380
16389SOL    HW151064   7.074  10.802   3.430
16389SOL    HW251065   7.118  10.945   3.408
16390SOL     OW51066  13.422   7.409   2.555
16390SOL    HW151067  13.470   7.391   2.474
16390SOL    HW251068  13.354   7.341   2.558
16391SOL     OW51069   2.088  11.710   5.416
16391SOL    HW151070   2.024  11.759   5.467
16391SOL    HW251071   2.114  11.637   5.473
16392SOL     OW51072  13.838   3.939  11.517
16392SOL    HW151073  13.773   3.868  11.515
16392SOL    HW251074  13.853   3.956  11.610
16393SOL     OW51075   3.967  10.926   5.890
16393SOL    HW151076   4.060  10.943   5.906
16393SOL    HW251077   3.948  10.848   5.941
16394SOL     OW51078  12.466  10.730   5.646
16394SOL    HW151079  12.405  10.793   5.607
16394SOL    HW251080  12.409  10.665   5.688
16395SOL     OW51081   7.388   4.805   7.726
16395SOL    HW151082   7.307   4.855   7.730
16395SOL    HW251083   7.446   4.856   7.669
16396SOL     OW51084   4.660  13.344   8.526
16396SOL    HW151085   4.662  13.436   8.552
16396SOL    HW251086   4.753  13.320   8.518
16397SOL     OW51087   3.683   6.377   0.223
16397SOL    HW151088   3.610   6.374   0.285
16397SOL    HW251089   3.751   6.323   0.262
16398SOL     OW51090   7.693  11.303  14.068
16398SOL    HW151091   7.669  11.362  13.996
16398SOL    HW251092   7.773  11.341  14.105
16399SOL     OW51093  14.277   2.135   8.597
16399SOL    HW151094  14.363   2.094   8.602
16399SOL    HW251095  14.294   2.229   8.602
16400SOL     OW51096   9.081   9.257   4.284
16400SOL    HW151097   9.022   9.250   4.359
16400SOL    HW251098   9.065   9.179   4.232
16401SOL     OW51099  11.610  14.851   3.736
16401SOL    HW151100  11.657  14.842   3.653
16401SOL    HW251101  11.676  14.837   3.803
16402SOL     OW51102  12.238  13.104   3.183
16402SOL    HW151103  12.242  13.010   3.202
16402SOL    HW251104  12.160  13.134   3.229
16403SOL     OW51105   9.171  12.049   1.603
16403SOL    HW151106   9.176  11.962   1.564
16403SOL    HW251107   9.175  12.109   1.529
16404SOL     OW51108   2.229  10.540  13.310
16404SOL    HW151109   2.234  10.581  13.223
16404SOL    HW251110   2.167  10.594  13.359
16405SOL     OW51111   8.519   3.214   4.998
16405SOL    HW151112   8.482   3.299   5.022
16405SOL    HW251113   8.472   3.151   5.052
16406SOL     OW51114   5.285  13.179   7.397
16406SOL    HW151115   5.260  13.164   7.488
16406SOL    HW251116   5.203  13.180   7.349
16407SOL     OW51117   0.331   5.151  13.722
16407SOL    HW151118   0.393   5.139  13.793
16407SOL    HW251119   0.366   5.225  13.672
16408SOL     OW51120  12.706   1.542   5.162
16408SOL    HW151121  12.620   1.581   5.179
16408SOL    HW251122  12.741   1.524   5.250
16409SOL     OW51123  13.942   5.680  12.344
16409SOL    HW151124  14.005   5.628  12.393
16409SOL    HW251125  13.873   5.619  12.320
16410SOL     OW51126   9.614   4.771   8.227
16410SOL    HW151127   9.551   4.753   8.296
16410SOL    HW251128   9.601   4.702   8.163
16411SOL     OW51129   0.366   7.183   1.990
16411SOL    HW151130   0.372   7.099   1.944
16411SOL    HW251131   0.328   7.162   2.075
16412SOL     OW51132   3.065   2.672   9.167
16412SOL    HW151133   3.013   2.655   9.088
16412SOL    HW251134   3.009   2.728   9.221
16413SOL     OW51135   6.983   0.121  11.871
16413SOL    HW151136   7.008   0.213  11.864
16413SOL    HW251137   7.021   0.091  11.953
16414SOL     OW51138  13.198   6.960   4.980
16414SOL    HW151139  13.145   6.950   4.902
16414SOL    HW251140  13.139   6.999   5.045
16415SOL     OW51141  10.105   4.914   4.922
16415SOL    HW151142  10.097   4.893   4.829
16415SOL    HW251143  10.022   4.957   4.944
16416SOL     OW51144  11.166   6.606   7.494
16416SOL    HW151145  11.254   6.607   7.455
16416SOL    HW251146  11.182   6.625   7.587
16417SOL     OW51147   2.229  14.285   6.258
16417SOL    HW151148   2.143  14.262   6.222
16417SOL    HW251149   2.282  14.307   6.182
16418SOL     OW51150   3.314   3.274   6.387
16418SOL    HW151151   3.304   3.183   6.359
16418SOL    HW251152   3.302   3.324   6.306
16419SOL     OW51153  13.966   6.856  12.911
16419SOL    HW151154  13.992   6.765  12.922
16419SOL    HW251155  13.999   6.900  12.990
16420SOL     OW51156  10.326   9.088  13.660
16420SOL    HW151157  10.257   9.064  13.722
16420SOL    HW251158  10.349   9.006  13.618
16421SOL     OW51159   5.917   0.184   8.373
16421SOL    HW151160   5.889   0.143   8.456
16421SOL    HW251161   5.923   0.111   8.311
16422SOL     OW51162   7.496  10.093   9.860
16422SOL    HW151163   7.587  10.098   9.832
16422SOL    HW251164   7.472  10.001   9.850
16423SOL     OW51165   8.548   1.119  14.142
16423SOL    HW151166   8.552   1.193  14.204
16423SOL    HW251167   8.455   1.098  14.135
16424SOL     OW51168   9.407  11.752   1.983
16424SOL    HW151169   9.321  11.787   1.959
16424SOL    HW251170   9.468  11.796   1.925
16425SOL     OW51171   0.028  13.795   2.030
16425SOL    HW151172   0.019  13.713   1.983
16425SOL    HW251173   0.112  13.788   2.075
16426SOL     OW51174   7.607  14.662   3.411
16426SOL    HW151175   7.557  14.744   3.405
16426SOL    HW251176   7.545  14.599   3.447
16427SOL     OW51177   2.078   9.928   5.703
16427SOL    HW151178   2.132   9.952   5.627
16427SOL    HW251179   2.132   9.952   5.779
16428SOL     OW51180  12.310   0.549   9.554
16428SOL    HW151181  12.395   0.555   9.598
16428SOL    HW251182  12.332   0.538   9.461
16429SOL     OW51183   9.735  14.251   4.050
16429SOL    HW151184   9.777  14.203   3.978
16429SOL    HW251185   9.771  14.340   4.042
16430SOL     OW51186   7.067   9.639   2.135
16430SOL    HW151187   7.011   9.577   2.089
16430SOL    HW251188   7.150   9.637   2.087
16431SOL     OW51189  14.780   5.151   0.467
16431SOL    HW151190  14.685   5.159   0.458
16431SOL    HW251191  14.812   5.241   0.460
16432SOL     OW51192  13.965   7.925   7.390
16432SOL    HW151193  13.891   7.878   7.349
16432SOL    HW251194  13.966   8.010   7.347
16433SOL     OW51195  13.055   4.411  14.273
16433SOL    HW151196  13.035   4.502  14.296
16433SOL    HW251197  12.992   4.360  14.323
16434SOL     OW51198  13.111  11.362  14.800
16434SOL    HW151199  13.082  11.315  14.721
16434SOL    HW251200  13.202  11.336  14.812
16435SOL     OW51201   9.635   0.816   5.081
16435SOL    HW151202   9.574   0.890   5.072
16435SOL    HW251203   9.721   0.854   5.064
16436SOL     OW51204   9.817  11.701  12.432
16436SOL    HW151205   9.899  11.685  12.478
16436SOL    HW251206   9.816  11.795  12.416
16437SOL     OW51207   1.422   2.893  14.271
16437SOL    HW151208   1.463   2.812  14.302
16437SOL    HW251209   1.374   2.926  14.347
16438SOL     OW51210   8.955  11.801   4.684
16438SOL    HW151211   8.921  11.853   4.757
16438SOL    HW251212   8.961  11.863   4.611
16439SOL     OW51213   3.939   7.637  14.600
16439SOL    HW151214   3.936   7.544  14.576
16439SOL    HW251215   3.868   7.647  14.663
16440SOL     OW51216   5.745   0.305   5.094
16440SOL    HW151217   5.796   0.243   5.041
16440SOL    HW251218   5.672   0.330   5.039
16441SOL     OW51219   3.931   1.332  12.193
16441SOL    HW151220   3.919   1.427  12.192
16441SOL    HW251221   3.980   1.315  12.274
16442SOL     OW51222  11.485   4.187   0.408
16442SOL    HW151223  11.554   4.189   0.342
16442SOL    HW251224  11.500   4.266   0.461
16443SOL     OW51225  14.632  11.276   5.350
16443SOL    HW151226  14.672  11.225   5.280
16443SOL    HW251227  14.703  11.291   5.412
16444SOL     OW51228   0.594  13.056   4.414
16444SOL    HW151229   0.538  12.987   4.378
16444SOL    HW251230   0.570  13.135   4.366
16445SOL     OW51231  12.766  14.729   4.959
16445SOL    HW151232  12.769  14.816   4.998
16445SOL    HW251233  12.721  14.741   4.876
16446SOL     OW51234  11.763   2.761   9.828
16446SOL    HW151235  11.703   2.741   9.756
16446SOL    HW251236  11.741   2.698   9.896
16447SOL     OW51237   1.817  12.715   4.355
16447SOL    HW151238   1.900  12.761   4.346
16447SOL    HW251239   1.830  12.657   4.430
16448SOL     OW51240  12.659   8.744  12.070
16448SOL    HW151241  12.711   8.823  12.058
16448SOL    HW251242  12.636   8.744  12.163
16449SOL     OW51243  10.267   8.029   7.539
16449SOL    HW151244  10.317   7.995   7.465
16449SOL    HW251245  10.176   8.005   7.520
16450SOL     OW51246  13.096   5.617  11.327
16450SOL    HW151247  13.041   5.612  11.248
16450SOL    HW251248  13.135   5.531  11.334
16451SOL     OW51249   9.104   6.653  12.418
16451SOL    HW151250   9.181   6.682  12.370
16451SOL    HW251251   9.054   6.734  12.435
16452SOL     OW51252   3.345   0.536   0.953
16452SOL    HW151253   3.312   0.449   0.932
16452SOL    HW251254   3.272   0.595   0.931
16453SOL     OW51255   4.752   7.024   5.468
16453SOL    HW151256   4.786   7.071   5.544
16453SOL    HW251257   4.828   7.015   5.410
16454SOL     OW51258   5.354   5.038  13.061
16454SOL    HW151259   5.342   5.037  12.966
16454SOL    HW251260   5.335   4.948  13.088
16455SOL     OW51261   6.038   9.002  11.029
16455SOL    HW151262   5.962   8.955  11.066
16455SOL    HW251263   6.113   8.956  11.065
16456SOL     OW51264   9.120  10.875  11.664
16456SOL    HW151265   9.088  10.895  11.752
16456SOL    HW251266   9.085  10.945  11.609
16457SOL     OW51267  13.377  11.727  11.616
16457SOL    HW151268  13.310  11.700  11.679
16457SOL    HW251269  13.442  11.656  11.619
16458SOL     OW51270   0.510   4.614   5.710
16458SOL    HW151271   0.548   4.675   5.647
16458SOL    HW251272   0.501   4.532   5.661
16459SOL     OW51273   7.009  10.093   5.281
16459SOL    HW151274   7.101  10.103   5.307
16459SOL    HW251275   6.961  10.095   5.364
16460SOL     OW51276   6.568   1.278   8.775
16460SOL    HW151277   6.613   1.288   8.859
16460SOL    HW251278   6.476   1.297   8.795
16461SOL     OW51279   8.594  12.515  13.752
16461SOL    HW151280   8.558  12.603  13.747
16461SOL    HW251281   8.582  12.480  13.664
16462SOL     OW51282   3.790   6.709  13.334
16462SOL    HW151283   3.782   6.663  13.251
16462SOL    HW251284   3.884   6.712  13.351
16463SOL     OW51285   0.977  12.653   6.441
16463SOL    HW151286   1.065  12.653   6.479
16463SOL    HW251287   0.957  12.561   6.428
16464SOL     OW51288   2.976   3.437   8.643
16464SOL    HW151289   2.937   3.524   8.632
16464SOL    HW251290   2.953   3.391   8.562
16465SOL     OW51291   2.051   7.404   9.736
16465SOL    HW151292   1.999   7.463   9.682
16465SOL    HW251293   1.988   7.356   9.789
16466SOL     OW51294   2.853   9.604  10.989
16466SOL    HW151295   2.893   9.689  10.971
16466SOL    HW251296   2.915   9.540  10.955
16467SOL     OW51297   5.949  10.848   2.836
16467SOL    HW151298   6.039  10.834   2.805
16467SOL    HW251299   5.946  10.803   2.920
16468SOL     OW51300   8.534  14.797  13.235
16468SOL    HW151301   8.602  14.748  13.280
16468SOL    HW251302   8.544  14.773  13.143
16469SOL     OW51303   7.783  11.988   7.993
16469SOL    HW151304   7.840  11.986   7.915
16469SOL    HW251305   7.837  11.951   8.062
16470SOL     OW51306  12.239  14.796   2.356
16470SOL    HW151307  12.182  14.725   2.327
16470SOL    HW251308  12.198   0.006   2.321
16471SOL     OW51309   5.838   7.477   6.229
16471SOL    HW151310   5.883   7.525   6.299
16471SOL    HW251311   5.847   7.385   6.255
16472SOL     OW51312   1.439  11.730   7.371
16472SOL    HW151313   1.474  11.657   7.420
16472SOL    HW251314   1.447  11.704   7.279
16473SOL     OW51315   2.099   2.774   0.873
16473SOL    HW151316   2.072   2.700   0.926
16473SOL    HW251317   2.187   2.796   0.904
16474SOL     OW51318  10.111   7.415   0.783
16474SOL    HW151319  10.084   7.369   0.703
16474SOL    HW251320  10.040   7.398   0.845
16475SOL     OW51321  14.316  12.226   4.210
16475SOL    HW151322  14.223  12.244   4.195
16475SOL    HW251323  14.356  12.233   4.123
16476SOL     OW51324   8.236   2.524   3.120
16476SOL    HW151325   8.227   2.619   3.123
16476SOL    HW251326   8.264   2.500   3.209
16477SOL     OW51327  10.848   5.122   9.544
16477SOL    HW151328  10.908   5.082   9.481
16477SOL    HW251329  10.763   5.121   9.500
16478SOL     OW51330   8.815   1.589  10.932
16478SOL    HW151331   8.827   1.591  10.837
16478SOL    HW251332   8.812   1.681  10.959
16479SOL     OW51333  10.863   4.072   4.429
16479SOL    HW151334  10.845   4.067   4.523
16479SOL    HW251335  10.871   3.981   4.401
16480SOL     OW51336   8.112   4.431  14.322
16480SOL    HW151337   8.051   4.475  14.263
16480SOL    HW251338   8.113   4.485  14.401
16481SOL     OW51339   9.181   1.319  13.257
16481SOL    HW151340   9.252   1.376  13.288
16481SOL    HW251341   9.114   1.326  13.325
16482SOL     OW51342   8.828   1.214  13.486
16482SOL    HW151343   8.736   1.241  13.483
16482SOL    HW251344   8.824   1.119  13.498
16483SOL     OW51345   3.155   0.398   1.128
16483SOL    HW151346   3.128   0.490   1.123
16483SOL    HW251347   3.234   0.399   1.181
16484SOL     OW51348   9.624   6.582   2.588
16484SOL    HW151349   9.662   6.656   2.541
16484SOL    HW251350   9.694   6.516   2.587
16485SOL     OW51351   8.376  10.853   5.352
16485SOL    HW151352   8.359  10.762   5.327
16485SOL    HW251353   8.467  10.868   5.325
16486SOL     OW51354   2.224  10.150  12.044
16486SOL    HW151355   2.140  10.104  12.050
16486SOL    HW251356   2.233  10.172  11.952
16487SOL     OW51357  10.189  12.396   7.067
16487SOL    HW151358  10.234  12.314   7.049
16487SOL    HW251359  10.241  12.462   7.021
16488SOL     OW51360  12.453   0.980   9.808
16488SOL    HW151361  12.428   1.030   9.730
16488SOL    HW251362  12.418   0.892   9.791
16489SOL     OW51363   8.294  10.816   9.248
16489SOL    HW151364   8.389  10.809   9.261
16489SOL    HW251365   8.270  10.735   9.204
16490SOL     OW51366   7.628   7.486   9.120
16490SOL    HW151367   7.669   7.411   9.162
16490SOL    HW251368   7.553   7.507   9.177
16491SOL     OW51369   1.031   6.516   7.893
16491SOL    HW151370   0.963   6.471   7.843
16491SOL    HW251371   1.020   6.609   7.871
16492SOL     OW51372  11.631  12.764   6.206
16492SOL    HW151373  11.707  12.706   6.203
16492SOL    HW251374  11.658  12.836   6.263
16493SOL     OW51375  13.543  12.753  12.337
16493SOL    HW151376  13.450  12.735  12.320
16493SOL    HW251377  13.567  12.819  12.271
16494SOL     OW51378   0.245   1.796   4.904
16494SOL    HW151379   0.266   1.859   4.835
16494SOL    HW251380   0.220   1.850   4.979
16495SOL     OW51381   7.156  12.793  14.863
16495SOL    HW151382   7.085  12.767   0.052
16495SOL    HW251383   7.112  12.817  14.782
16496SOL     OW51384  11.873   1.636   4.073
16496SOL    HW151385  11.850   1.570   4.139
16496SOL    HW251386  11.800   1.633   4.011
16497SOL     OW51387   0.118   5.117   4.949
16497SOL    HW151388   0.140   5.032   4.987
16497SOL    HW251389   0.169   5.122   4.868
16498SOL     OW51390   9.574   3.368   1.599
16498SOL    HW151391   9.634   3.350   1.672
16498SOL    HW251392   9.606   3.449   1.561
16499SOL     OW51393  13.730   0.424   3.216
16499SOL    HW151394  13.766   0.477   3.145
16499SOL    HW251395  13.637   0.444   3.217
16500SOL     OW51396  10.700   0.631  12.851
16500SOL    HW151397  10.751   0.624  12.770
16500SOL    HW251398  10.629   0.568  12.840
16501SOL     OW51399   4.176   4.628   3.550
16501SOL    HW151400   4.184   4.636   3.455
16501SOL    HW251401   4.083   4.612   3.565
16502SOL     OW51402  12.226  11.540  11.322
16502SOL    HW151403  12.291  11.484  11.280
16502SOL    HW251404  12.221  11.507  11.412
16503SOL     OW51405   1.998   6.120  11.838
16503SOL    HW151406   1.932   6.074  11.786
16503SOL    HW251407   2.082   6.086  11.807
16504SOL     OW51408   4.918  12.981   7.122
16504SOL    HW151409   4.860  12.989   7.046
16504SOL    HW251410   4.862  12.947   7.191
16505SOL     OW51411   8.997   1.446   1.446
16505SOL    HW151412   8.951   1.491   1.517
16505SOL    HW251413   9.053   1.382   1.490
16506SOL     OW51414   9.150  10.382   4.149
16506SOL    HW151415   9.077  10.338   4.194
16506SOL    HW251416   9.188  10.439   4.216
16507SOL     OW51417   5.313   1.113   0.278
16507SOL    HW151418   5.398   1.138   0.314
16507SOL    HW251419   5.250   1.134   0.347
16508SOL     OW51420  11.753  13.659   3.835
16508SOL    HW151421  11.790  13.594   3.775
16508SOL    HW251422  11.687  13.705   3.783
16509SOL     OW51423   3.817   8.741   7.725
16509SOL    HW151424   3.810   8.690   7.806
16509SOL    HW251425   3.833   8.676   7.657
16510SOL     OW51426   7.109   1.885  11.597
16510SOL    HW151427   7.084   1.973  11.624
16510SOL    HW251428   7.082   1.879  11.506
16511SOL     OW51429   2.588  14.305  11.587
16511SOL    HW151430   2.624  14.324  11.674
16511SOL    HW251431   2.664  14.274  11.537
16512SOL     OW51432  12.988   4.083   0.428
16512SOL    HW151433  12.990   3.997   0.387
16512SOL    HW251434  13.018   4.144   0.361
16513SOL     OW51435  11.096   7.736  11.096
16513SOL    HW151436  11.038   7.698  11.162
16513SOL    HW251437  11.046   7.808  11.058
16514SOL     OW51438   9.364  12.243   2.617
16514SOL    HW151439   9.288  12.199   2.657
16514SOL    HW251440   9.327  12.318   2.571
16515SOL     OW51441   4.592   2.921   0.087
16515SOL    HW151442   4.633   2.900   0.171
16515SOL    HW251443   4.498   2.912   0.104
16516SOL     OW51444  14.085   0.718   9.972
16516SOL    HW151445  14.089   0.763   9.888
16516SOL    HW251446  14.010   0.757  10.017
16517SOL     OW51447   2.087   3.716   9.552
16517SOL    HW151448   2.157   3.654   9.573
16517SOL    HW251449   2.118   3.800   9.587
16518SOL     OW51450   8.738  10.867   8.160
16518SOL    HW151451   8.754  10.856   8.254
16518SOL    HW251452   8.643  10.875   8.153
16519SOL     OW51453  11.399   9.491   1.954
16519SOL    HW151454  11.316   9.451   1.978
16519SOL    HW251455  11.451   9.488   2.035
16520SOL     OW51456   2.849   2.529   7.793
16520SOL    HW151457   2.944   2.540   7.781
16520SOL    HW251458   2.837   2.434   7.799
16521SOL     OW51459   9.869   2.260   7.585
16521SOL    HW151460   9.956   2.297   7.599
16521SOL    HW251461   9.879   2.166   7.602
16522SOL     OW51462   7.431   0.002   3.992
16522SOL    HW151463   7.473   0.079   3.955
16522SOL    HW251464   7.337   0.022   3.989
16523SOL     OW51465  14.167   3.917   3.982
16523SOL    HW151466  14.259   3.900   3.965
16523SOL    HW251467  14.155   4.010   3.963
16524SOL     OW51468   4.617   2.615   2.077
16524SOL    HW151469   4.675   2.555   2.029
16524SOL    HW251470   4.555   2.557   2.122
16525SOL     OW51471   0.719   7.208   2.048
16525SOL    HW151472   0.726   7.126   2.095
16525SOL    HW251473   0.723   7.275   2.116
16526SOL     OW51474   8.044  14.185  14.390
16526SOL    HW151475   7.950  14.177  14.373
16526SOL    HW251476   8.049  14.234  14.472
16527SOL     OW51477  11.113  10.977  10.914
16527SOL    HW151478  11.181  10.935  10.860
16527SOL    HW251479  11.052  11.015  10.850
16528SOL     OW51480  14.612   8.136  11.477
16528SOL    HW151481  14.698   8.177  11.485
16528SOL    HW251482  14.551   8.201  11.510
16529SOL     OW51483   9.308   1.703   9.685
16529SOL    HW151484   9.272   1.635   9.628
16529SOL    HW251485   9.236   1.724   9.744
16530SOL     OW51486   5.865   0.932   9.355
16530SOL    HW151487   5.811   0.931   9.434
16530SOL    HW251488   5.904   1.020   9.354
16531SOL     OW51489   8.112  12.986   2.148
16531SOL    HW151490   8.168  12.980   2.225
16531SOL    HW251491   8.112  13.080   2.127
16532SOL     OW51492   1.624  10.385   6.418
16532SOL    HW151493   1.644  10.457   6.357
16532SOL    HW251494   1.621  10.307   6.362
16533SOL     OW51495  14.356   7.555   5.141
16533SOL    HW151496  14.282   7.598   5.185
16533SOL    HW251497  14.421   7.541   5.210
16534SOL     OW51498   9.635   0.863   7.222
16534SOL    HW151499   9.590   0.894   7.144
16534SOL    HW251500   9.665   0.943   7.266
16535SOL     OW51501   9.784   0.832  11.709
16535SOL    HW151502   9.778   0.927  11.700
16535SOL    HW251503   9.795   0.817  11.803
16536SOL     OW51504   2.968   4.206   9.126
16536SOL    HW151505   2.910   4.230   9.199
16536SOL    HW251506   2.910   4.163   9.063
16537SOL     OW51507   9.953  11.311   8.720
16537SOL    HW151508   9.999  11.304   8.803
16537SOL    HW251509   9.870  11.354   8.742
16538SOL     OW51510  14.562  13.901   9.815
16538SOL    HW151511  14.603  13.816   9.799
16538SOL    HW251512  14.633  13.964   9.799
16539SOL     OW51513   9.591   7.622   1.542
16539SOL    HW151514   9.544   7.683   1.598
16539SOL    HW251515   9.684   7.638   1.560
16540SOL     OW51516  14.250  12.967  11.041
16540SOL    HW151517  14.315  12.919  10.989
16540SOL    HW251518  14.301  13.009  11.110
16541SOL     OW51519   7.454  11.071   6.012
16541SOL    HW151520   7.548  11.069   5.995
16541SOL    HW251521   7.430  10.979   6.022
16542SOL     OW51522  11.568   1.501   1.018
16542SOL    HW151523  11.475   1.511   0.999
16542SOL    HW251524  11.572   1.440   1.091
16543SOL     OW51525   0.888  13.054   4.086
16543SOL    HW151526   0.864  13.145   4.073
16543SOL    HW251527   0.871  13.012   4.002
16544SOL     OW51528   5.842   4.428  14.224
16544SOL    HW151529   5.877   4.349  14.183
16544SOL    HW251530   5.909   4.454  14.287
16545SOL     OW51531  10.311  10.902   5.114
16545SOL    HW151532  10.394  10.863   5.143
16545SOL    HW251533  10.262  10.917   5.195
16546SOL     OW51534   1.680   8.333  11.390
16546SOL    HW151535   1.676   8.417  11.343
16546SOL    HW251536   1.623   8.345  11.466
16547SOL     OW51537  10.867   8.318  10.670
16547SOL    HW151538  10.797   8.379  10.647
16547SOL    HW251539  10.822   8.239  10.699
16548SOL     OW51540   5.804   0.774   6.444
16548SOL    HW151541   5.813   0.701   6.384
16548SOL    HW251542   5.796   0.734   6.530
16549SOL     OW51543   5.737  14.601   5.682
16549SOL    HW151544   5.783  14.574   5.602
16549SOL    HW251545   5.781  14.553   5.752
16550SOL     OW51546   4.984   6.576  11.197
16550SOL    HW151547   5.079   6.567  11.211
16550SOL    HW251548   4.975   6.585  11.103
16551SOL     OW51549  11.064   6.149   2.220
16551SOL    HW151550  10.970   6.154   2.232
16551SOL    HW251551  11.087   6.226   2.169
16552SOL     OW51552  14.013   1.590   3.801
16552SOL    HW151553  13.966   1.570   3.721
16552SOL    HW251554  14.034   1.684   3.794
16553SOL     OW51555   8.212  11.634   7.524
16553SOL    HW151556   8.163  11.630   7.441
16553SOL    HW251557   8.223  11.543   7.549
16554SOL     OW51558   7.557   0.284   2.503
16554SOL    HW151559   7.613   0.214   2.534
16554SOL    HW251560   7.535   0.334   2.582
16555SOL     OW51561   2.394   5.998   4.299
16555SOL    HW151562   2.460   5.950   4.349
16555SOL    HW251563   2.333   6.031   4.366
16556SOL     OW51564  14.211  12.450   4.412
16556SOL    HW151565  14.158  12.371   4.422
16556SOL    HW251566  14.221  12.460   4.318
16557SOL     OW51567   9.535   3.700   7.935
16557SOL    HW151568   9.603   3.757   7.899
16557SOL    HW251569   9.507   3.646   7.861
16558SOL     OW51570   9.582  10.620   1.373
16558SOL    HW151571   9.509  10.640   1.313
16558SOL    HW251572   9.647  10.577   1.317
16559SOL     OW51573   2.650   3.976   1.767
16559SOL    HW151574   2.734   4.021   1.770
16559SOL    HW251575   2.585   4.042   1.792
16560SOL     OW51576   2.355   0.245   3.369
16560SOL    HW151577   2.278   0.222   3.318
16560SOL    HW251578   2.426   0.196   3.328
16561SOL     OW51579   3.724  10.663   6.939
16561SOL    HW151580   3.675  10.599   6.991
16561SOL    HW251581   3.688  10.748   6.965
16562SOL     OW51582   3.230   0.505   8.312
16562SOL    HW151583   3.242   0.412   8.332
16562SOL    HW251584   3.274   0.517   8.228
16563SOL     OW51585   9.966  12.109   3.305
16563SOL    HW151586  10.005  12.050   3.370
16563SOL    HW251587  10.005  12.083   3.222
16564SOL     OW51588  14.046   3.625  13.595
16564SOL    HW151589  14.089   3.695  13.546
16564SOL    HW251590  14.022   3.666  13.679
16565SOL     OW51591  10.726   1.272   2.328
16565SOL    HW151592  10.746   1.249   2.237
16565SOL    HW251593  10.641   1.232   2.345
16566SOL     OW51594   2.878  13.782   6.628
16566SOL    HW151595   2.903  13.873   6.645
16566SOL    HW251596   2.816  13.787   6.555
16567SOL     OW51597   3.533   4.606   5.658
16567SOL    HW151598   3.568   4.639   5.575
16567SOL    HW251599   3.486   4.527   5.635
16568SOL     OW51600   1.543   3.947   7.940
16568SOL    HW151601   1.493   3.923   7.863
16568SOL    HW251602   1.494   3.911   8.013
16569SOL     OW51603   7.208   4.409  12.350
16569SOL    HW151604   7.277   4.371  12.405
16569SOL    HW251605   7.254   4.469  12.291
16570SOL     OW51606   1.559   1.713   2.105
16570SOL    HW151607   1.567   1.622   2.076
16570SOL    HW251608   1.489   1.749   2.050
16571SOL     OW51609   3.275   0.698   7.658
16571SOL    HW151610   3.353   0.670   7.610
16571SOL    HW251611   3.304   0.706   7.749
16572SOL     OW51612   4.759   3.384   9.224
16572SOL    HW151613   4.766   3.341   9.310
16572SOL    HW251614   4.691   3.450   9.236
16573SOL     OW51615  13.211  12.718   0.254
16573SOL    HW151616  13.161  12.797   0.275
16573SOL    HW251617  13.299  12.750   0.235
16574SOL     OW51618   8.801  11.857   5.314
16574SOL    HW151619   8.868  11.837   5.379
16574SOL    HW251620   8.783  11.773   5.271
16575SOL     OW51621   8.614   4.985   3.781
16575SOL    HW151622   8.567   4.944   3.853
16575SOL    HW251623   8.697   5.013   3.818
16576SOL     OW51624   3.394   7.457   9.297
16576SOL    HW151625   3.391   7.367   9.264
16576SOL    HW251626   3.463   7.456   9.363
16577SOL     OW51627   4.903   9.138   7.899
16577SOL    HW151628   4.924   9.197   7.826
16577SOL    HW251629   4.810   9.154   7.916
16578SOL     OW51630  11.166   7.047  13.077
16578SOL    HW151631  11.150   7.109  13.148
16578SOL    HW251632  11.260   7.030  13.080
16579SOL     OW51633  11.202   5.347  12.692
16579SOL    HW151634  11.177   5.262  12.654
16579SOL    HW251635  11.206   5.406  12.617
16580SOL     OW51636   0.511   8.424   7.457
16580SOL    HW151637   0.566   8.453   7.385
16580SOL    HW251638   0.573   8.394   7.524
16581SOL     OW51639   8.188   0.442   4.250
16581SOL    HW151640   8.227   0.487   4.325
16581SOL    HW251641   8.119   0.388   4.287
16582SOL     OW51642   6.599   9.861   9.164
16582SOL    HW151643   6.525   9.808   9.195
16582SOL    HW251644   6.569   9.899   9.082
16583SOL     OW51645  13.579   8.619   3.356
16583SOL    HW151646  13.544   8.647   3.272
16583SOL    HW251647  13.553   8.527   3.363
16584SOL     OW51648  12.456  13.393  12.959
16584SOL    HW151649  12.491  13.335  13.027
16584SOL    HW251650  12.532  13.418  12.907
16585SOL     OW51651  11.723   7.286   8.361
16585SOL    HW151652  11.749   7.375   8.337
16585SOL    HW251653  11.682   7.296   8.447
16586SOL     OW51654  13.981   9.800   4.536
16586SOL    HW151655  14.045   9.859   4.494
16586SOL    HW251656  14.029   9.718   4.548
16587SOL     OW51657  12.418   0.975  13.343
16587SOL    HW151658  12.429   0.968  13.248
16587SOL    HW251659  12.333   0.935  13.360
16588SOL     OW51660  14.679   0.349   9.559
16588SOL    HW151661  14.609   0.381   9.617
16588SOL    HW251662  14.633   0.312   9.484
16589SOL     OW51663  13.536  11.505  11.618
16589SOL    HW151664  13.605  11.484  11.681
16589SOL    HW251665  13.526  11.425  11.567
16590SOL     OW51666   9.748   4.139   2.485
16590SOL    HW151667   9.817   4.202   2.464
16590SOL    HW251668   9.677   4.160   2.425
16591SOL     OW51669   5.400   1.293   1.190
16591SOL    HW151670   5.340   1.244   1.246
16591SOL    HW251671   5.452   1.345   1.251
16592SOL     OW51672  11.749   9.523  12.995
16592SOL    HW151673  11.717   9.580  12.925
16592SOL    HW251674  11.669   9.489  13.036
16593SOL     OW51675   2.245   4.297   3.738
16593SOL    HW151676   2.159   4.286   3.780
16593SOL    HW251677   2.292   4.358   3.794
16594SOL     OW51678  10.362  13.476   2.604
16594SOL    HW151679  10.290  13.421   2.575
16594SOL    HW251680  10.398  13.513   2.524
16595SOL     OW51681   0.080   3.373  12.394
16595SOL    HW151682   0.026   3.383  12.315
16595SOL    HW251683   0.155   3.321  12.365
16596SOL     OW51684   9.408  11.080  13.079
16596SOL    HW151685   9.336  11.039  13.031
16596SOL    HW251686   9.487  11.047  13.038
16597SOL     OW51687   2.913  14.684   4.148
16597SOL    HW151688   2.929  14.762   4.096
16597SOL    HW251689   2.818  14.669   4.142
16598SOL     OW51690   6.656   4.669   0.547
16598SOL    HW151691   6.664   4.750   0.597
16598SOL    HW251692   6.570   4.675   0.506
16599SOL     OW51693   2.510   3.403  10.543
16599SOL    HW151694   2.473   3.491  10.554
16599SOL    HW251695   2.503   3.362  10.629
16600SOL     OW51696  11.631  10.345   9.139
16600SOL    HW151697  11.679  10.427   9.152
16600SOL    HW251698  11.628  10.304   9.225
16601SOL     OW51699  11.588  11.079   4.215
16601SOL    HW151700  11.575  11.000   4.163
16601SOL    HW251701  11.683  11.090   4.218
16602SOL     OW51702   8.629  10.952   8.714
16602SOL    HW151703   8.540  10.961   8.681
16602SOL    HW251704   8.680  10.921   8.639
16603SOL     OW51705   1.549   7.350  11.764
16603SOL    HW151706   1.613   7.282  11.743
16603SOL    HW251707   1.505   7.317  11.842
16604SOL     OW51708  14.543  14.706  11.252
16604SOL    HW151709  14.480  14.777  11.236
16604SOL    HW251710  14.512  14.666  11.334
16605SOL     OW51711   1.957   0.516  14.564
16605SOL    HW151712   1.892   0.446  14.565
16605SOL    HW251713   1.964   0.544  14.655
16606SOL     OW51714   1.154   3.556   0.681
16606SOL    HW151715   1.200   3.632   0.647
16606SOL    HW251716   1.185   3.548   0.772
16607SOL     OW51717   3.237   3.185  10.484
16607SOL    HW151718   3.219   3.279  10.492
16607SOL    HW251719   3.150   3.144  10.491
16608SOL     OW51720  12.204   6.543  13.155
16608SOL    HW151721  12.109   6.550  13.146
16608SOL    HW251722  12.223   6.578  13.241
16609SOL     OW51723   3.114   8.689  10.744
16609SOL    HW151724   3.062   8.762  10.776
16609SOL    HW251725   3.065   8.611  10.771
16610SOL     OW51726   2.135  11.140  13.102
16610SOL    HW151727   2.104  11.119  13.190
16610SOL    HW251728   2.098  11.070  13.047
16611SOL     OW51729   4.337   2.749   2.358
16611SOL    HW151730   4.287   2.806   2.299
16611SOL    HW251731   4.360   2.806   2.432
16612SOL     OW51732  11.549   0.148   6.359
16612SOL    HW151733  11.532   0.101   6.278
16612SOL    HW251734  11.630   0.195   6.343
16613SOL     OW51735  13.252   6.687   3.605
16613SOL    HW151736  13.294   6.678   3.690
16613SOL    HW251737  13.210   6.603   3.590
16614SOL     OW51738   3.071   9.439   1.873
16614SOL    HW151739   2.999   9.491   1.839
16614SOL    HW251740   3.118   9.409   1.795
16615SOL     OW51741   3.680  12.275   0.922
16615SOL    HW151742   3.762  12.247   0.964
16615SOL    HW251743   3.708  12.305   0.835
16616SOL     OW51744   1.893  14.566  11.177
16616SOL    HW151745   1.899  14.494  11.114
16616SOL    HW251746   1.890  14.523  11.262
16617SOL     OW51747   1.588   5.472   3.282
16617SOL    HW151748   1.500   5.500   3.307
16617SOL    HW251749   1.603   5.392   3.333
16618SOL     OW51750   0.088  12.162   1.345
16618SOL    HW151751   0.134  12.105   1.284
16618SOL    HW251752   0.085  12.247   1.301
16619SOL     OW51753  14.656   0.704   0.382
16619SOL    HW151754  14.624   0.614   0.387
16619SOL    HW251755  14.589   0.755   0.427
16620SOL     OW51756  14.625  14.335   3.041
16620SOL    HW151757  14.683  14.324   3.117
16620SOL    HW251758  14.627  14.251   2.996
16621SOL     OW51759  10.060  11.964  11.100
16621SOL    HW151760  10.018  12.042  11.136
16621SOL    HW251761  10.092  11.991  11.015
16622SOL     OW51762   3.213   3.095  13.681
16622SOL    HW151763   3.217   3.046  13.763
16622SOL    HW251764   3.295   3.143  13.677
16623SOL     OW51765   7.319   1.891  10.695
16623SOL    HW151766   7.228   1.865  10.686
16623SOL    HW251767   7.355   1.884  10.606
16624SOL     OW51768  14.548   6.203   2.797
16624SOL    HW151769  14.455   6.206   2.775
16624SOL    HW251770  14.555   6.250   2.880
16625SOL     OW51771   6.985   1.397   2.933
16625SOL    HW151772   6.939   1.390   3.017
16625SOL    HW251773   6.932   1.456   2.881
16626SOL     OW51774   7.917  14.187  11.624
16626SOL    HW151775   7.906  14.137  11.543
16626SOL    HW251776   7.854  14.259  11.616
16627SOL     OW51777  14.577   5.059   8.584
16627SOL    HW151778  14.568   5.045   8.678
16627SOL    HW251779  14.631   4.986   8.554
16628SOL     OW51780   5.637   5.943  10.618
16628SOL    HW151781   5.706   5.933  10.553
16628SOL    HW251782   5.578   6.010  10.581
16629SOL     OW51783   8.397  11.950   1.399
16629SOL    HW151784   8.361  12.012   1.335
16629SOL    HW251785   8.320  11.909   1.438
16630SOL     OW51786   4.796   5.871   8.066
16630SOL    HW151787   4.710   5.884   8.106
16630SOL    HW251788   4.858   5.909   8.129
16631SOL     OW51789   6.443  13.149  14.042
16631SOL    HW151790   6.353  13.157  14.074
16631SOL    HW251791   6.473  13.239  14.031
16632SOL     OW51792   7.789   4.998  14.212
16632SOL    HW151793   7.707   4.958  14.183
16632SOL    HW251794   7.792   4.981  14.306
16633SOL     OW51795   1.601   8.639   2.247
16633SOL    HW151796   1.602   8.549   2.216
16633SOL    HW251797   1.553   8.636   2.330
16634SOL     OW51798   6.520  13.776   9.948
16634SOL    HW151799   6.430  13.746   9.961
16634SOL    HW251800   6.563  13.760  10.032
16635SOL     OW51801   8.925   6.413   8.735
16635SOL    HW151802   8.926   6.362   8.654
16635SOL    HW251803   8.889   6.498   8.709
16636SOL     OW51804   2.294  11.163   3.685
16636SOL    HW151805   2.215  11.201   3.646
16636SOL    HW251806   2.296  11.198   3.774
16637SOL     OW51807   9.259   7.055   2.923
16637SOL    HW151808   9.179   7.004   2.917
16637SOL    HW251809   9.309   7.031   2.845
16638SOL     OW51810  14.847   4.471   8.835
16638SOL    HW151811   0.070   4.493   8.824
16638SOL    HW251812  14.804   4.554   8.854
16639SOL     OW51813   2.943   3.840   2.528
16639SOL    HW151814   2.972   3.782   2.599
16639SOL    HW251815   2.925   3.781   2.455
16640SOL     OW51816   0.408   0.400   5.313
16640SOL    HW151817   0.394   0.309   5.340
16640SOL    HW251818   0.460   0.393   5.233
16641SOL     OW51819   8.587  10.039   7.430
16641SOL    HW151820   8.515   9.978   7.414
16641SOL    HW251821   8.651   9.988   7.481
16642SOL     OW51822   8.591   0.462   4.141
16642SOL    HW151823   8.667   0.513   4.170
16642SOL    HW251824   8.579   0.396   4.209
16643SOL     OW51825  11.108   8.932   4.553
16643SOL    HW151826  11.019   8.898   4.546
16643SOL    HW251827  11.138   8.903   4.639
16644SOL     OW51828  12.271  13.265  10.128
16644SOL    HW151829  12.330  13.190  10.143
16644SOL    HW251830  12.199  13.252  10.189
16645SOL     OW51831   3.945   3.831   9.835
16645SOL    HW151832   3.905   3.847   9.749
16645SOL    HW251833   3.910   3.900   9.891
16646SOL     OW51834  12.932   0.542   5.788
16646SOL    HW151835  12.872   0.482   5.832
16646SOL    HW251836  13.009   0.489   5.769
16647SOL     OW51837   1.299   6.630   9.867
16647SOL    HW151838   1.254   6.550   9.840
16647SOL    HW251839   1.270   6.644   9.958
16648SOL     OW51840   1.258   2.982  13.208
16648SOL    HW151841   1.297   2.942  13.130
16648SOL    HW251842   1.172   2.941  13.215
16649SOL     OW51843  13.629   4.594   1.810
16649SOL    HW151844  13.619   4.499   1.810
16649SOL    HW251845  13.722   4.609   1.798
16650SOL     OW51846   9.220   9.424   3.372
16650SOL    HW151847   9.201   9.400   3.463
16650SOL    HW251848   9.309   9.458   3.374
16651SOL     OW51849   1.244   2.102  11.340
16651SOL    HW151850   1.168   2.062  11.381
16651SOL    HW251851   1.219   2.114  11.248
16652SOL     OW51852   2.710  11.435   3.051
16652SOL    HW151853   2.631  11.457   3.001
16652SOL    HW251854   2.749  11.362   3.004
16653SOL     OW51855  13.751   8.824   0.915
16653SOL    HW151856  13.837   8.780   0.912
16653SOL    HW251857  13.736   8.854   0.826
16654SOL     OW51858   9.431   8.553   6.708
16654SOL    HW151859   9.520   8.589   6.706
16654SOL    HW251860   9.399   8.573   6.796
16655SOL     OW51861   2.913  14.393   7.635
16655SOL    HW151862   2.986  14.446   7.666
16655SOL    HW251863   2.845  14.456   7.613
16656SOL     OW51864   0.031  13.842   0.939
16656SOL    HW151865   0.105  13.834   0.999
16656SOL    HW251866   0.068  13.880   0.860
16657SOL     OW51867   6.131   8.548   0.666
16657SOL    HW151868   6.199   8.537   0.732
16657SOL    HW251869   6.049   8.545   0.715
16658SOL     OW51870   7.891   8.996   3.072
16658SOL    HW151871   7.853   9.078   3.041
16658SOL    HW251872   7.822   8.931   3.060
16659SOL     OW51873   1.025   7.475   0.355
16659SOL    HW151874   1.020   7.568   0.379
16659SOL    HW251875   1.044   7.430   0.437
16660SOL     OW51876   2.182   8.951   9.172
16660SOL    HW151877   2.147   8.863   9.184
16660SOL    HW251878   2.117   9.008   9.214
16661SOL     OW51879   6.652   0.784  10.060
16661SOL    HW151880   6.615   0.695  10.064
16661SOL    HW251881   6.746   0.770  10.047
16662SOL     OW51882  13.936   9.443   7.065
16662SOL    HW151883  13.846   9.423   7.040
16662SOL    HW251884  13.929   9.487   7.150
16663SOL     OW51885   2.831  12.001   8.016
16663SOL    HW151886   2.869  11.949   7.945
16663SOL    HW251887   2.787  11.937   8.071
16664SOL     OW51888   0.954   9.517   3.828
16664SOL    HW151889   0.897   9.526   3.752
16664SOL    HW251890   1.042   9.504   3.791
16665SOL     OW51891   4.813   5.696  10.177
16665SOL    HW151892   4.883   5.761  10.179
16665SOL    HW251893   4.739   5.743  10.138
16666SOL     OW51894   1.590   7.045  14.585
16666SOL    HW151895   1.671   7.042  14.535
16666SOL    HW251896   1.561   6.954  14.591
16667SOL     OW51897  12.090   8.748   5.432
16667SOL    HW151898  12.072   8.784   5.519
16667SOL    HW251899  12.015   8.691   5.414
16668SOL     OW51900   2.263  10.180   9.880
16668SOL    HW151901   2.316  10.121   9.933
16668SOL    HW251902   2.310  10.184   9.796
16669SOL     OW51903   8.157   2.434  12.404
16669SOL    HW151904   8.214   2.401  12.334
16669SOL    HW251905   8.173   2.528  12.406
16670SOL     OW51906   2.075   1.234  14.588
16670SOL    HW151907   2.041   1.267  14.504
16670SOL    HW251908   2.076   1.310  14.646
16671SOL     OW51909  14.814  14.320  11.961
16671SOL    HW151910  14.779  14.251  11.905
16671SOL    HW251911   0.035  14.330  11.932
16672SOL     OW51912   2.281   1.299   5.106
16672SOL    HW151913   2.269   1.207   5.132
16672SOL    HW251914   2.376   1.309   5.100
16673SOL     OW51915  14.043   1.926  12.110
16673SOL    HW151916  14.041   2.019  12.090
16673SOL    HW251917  13.954   1.906  12.139
16674SOL     OW51918   6.009   2.142   8.449
16674SOL    HW151919   5.932   2.198   8.454
16674SOL    HW251920   6.014   2.099   8.535
16675SOL     OW51921   7.966   0.517   3.270
16675SOL    HW151922   7.941   0.576   3.341
16675SOL    HW251923   7.899   0.531   3.203
16676SOL     OW51924   4.067   7.004   6.479
16676SOL    HW151925   4.053   7.086   6.434
16676SOL    HW251926   4.099   7.029   6.566
16677SOL     OW51927   1.896  14.202   7.619
16677SOL    HW151928   1.874  14.259   7.546
16677SOL    HW251929   1.972  14.244   7.660
16678SOL     OW51930  10.283   8.174   2.018
16678SOL    HW151931  10.319   8.086   2.008
16678SOL    HW251932  10.268   8.205   1.929
16679SOL     OW51933   6.319   5.531  13.274
16679SOL    HW151934   6.267   5.589  13.218
16679SOL    HW251935   6.379   5.487  13.214
16680SOL     OW51936  12.263  11.406  13.031
16680SOL    HW151937  12.299  11.405  13.119
16680SOL    HW251938  12.336  11.430  12.975
16681SOL     OW51939  11.792  14.616  13.933
16681SOL    HW151940  11.795  14.563  13.853
16681SOL    HW251941  11.800  14.553  14.004
16682SOL     OW51942   9.118   6.656  12.947
16682SOL    HW151943   9.196   6.601  12.956
16682SOL    HW251944   9.045   6.594  12.948
16683SOL     OW51945  12.179   7.101   9.975
16683SOL    HW151946  12.089   7.128   9.995
16683SOL    HW251947  12.229   7.182   9.975
16684SOL     OW51948   0.620   3.203   9.320
16684SOL    HW151949   0.587   3.114   9.306
16684SOL    HW251950   0.625   3.242   9.233
16685SOL     OW51951   7.802   7.544  14.816
16685SOL    HW151952   7.876   7.598  14.788
16685SOL    HW251953   7.743   7.543  14.740
16686SOL     OW51954   1.883  13.082   8.697
16686SOL    HW151955   1.799  13.114   8.666
16686SOL    HW251956   1.886  12.991   8.668
16687SOL     OW51957   7.749   8.406   9.124
16687SOL    HW151958   7.731   8.437   9.213
16687SOL    HW251959   7.833   8.446   9.101
16688SOL     OW51960  13.001  10.418  12.420
16688SOL    HW151961  12.945  10.341  12.417
16688SOL    HW251962  13.083  10.387  12.459
16689SOL     OW51963  14.822   6.152   6.183
16689SOL    HW151964   0.001   6.085   6.135
16689SOL    HW251965  14.735   6.152   6.143
16690SOL     OW51966   6.088   8.883   6.061
16690SOL    HW151967   6.154   8.824   6.025
16690SOL    HW251968   6.121   8.906   6.148
16691SOL     OW51969   5.160  10.011  13.195
16691SOL    HW151970   5.086   9.995  13.254
16691SOL    HW251971   5.152   9.944  13.127
16692SOL     OW51972   5.370   0.051   2.154
16692SOL    HW151973   5.338  14.848   2.207
16692SOL    HW251974   5.376   0.016   2.065
16693SOL     OW51975   9.418   9.124   6.160
16693SOL    HW151976   9.484   9.108   6.227
16693SOL    HW251977   9.468   9.148   6.082
16694SOL     OW51978   2.414   9.987   6.622
16694SOL    HW151979   2.487   9.955   6.675
16694SOL    HW251980   2.440   9.967   6.532
16695SOL     OW51981   7.460  10.145  10.932
16695SOL    HW151982   7.400  10.077  10.963
16695SOL    HW251983   7.415  10.184  10.858
16696SOL     OW51984  12.672  14.512  12.027
16696SOL    HW151985  12.656  14.567  11.950
16696SOL    HW251986  12.766  14.520  12.043
16697SOL     OW51987  14.518   3.385  11.232
16697SOL    HW151988  14.592   3.440  11.208
16697SOL    HW251989  14.510   3.321  11.161
16698SOL     OW51990   0.493   5.078   9.819
16698SOL    HW151991   0.448   5.099   9.737
16698SOL    HW251992   0.580   5.117   9.810
16699SOL     OW51993   2.993  10.261  14.344
16699SOL    HW151994   2.979  10.313  14.423
16699SOL    HW251995   2.918  10.282  14.288
16700SOL     OW51996   6.864   0.489  11.314
16700SOL    HW151997   6.895   0.480  11.404
16700SOL    HW251998   6.790   0.549  11.320
16701SOL     OW51999   9.420   0.718   9.871
16701SOL    HW152000   9.390   0.630   9.894
16701SOL    HW252001   9.481   0.741   9.942
16702SOL     OW52002   3.299   0.416   1.987
16702SOL    HW152003   3.251   0.493   1.956
16702SOL    HW252004   3.316   0.365   1.908
16703SOL     OW52005   5.551   3.711   0.486
16703SOL    HW152006   5.621   3.759   0.530
16703SOL    HW252007   5.474   3.766   0.494
16704SOL     OW52008   7.420  14.323  12.724
16704SOL    HW152009   7.453  14.314  12.635
16704SOL    HW252010   7.495  14.350  12.775
16705SOL     OW52011  14.697   6.758   0.093
16705SOL    HW152012  14.706   6.702   0.015
16705SOL    HW252013  14.786   6.790   0.109
16706SOL     OW52014   9.823  14.393   1.624
16706SOL    HW152015   9.768  14.336   1.678
16706SOL    HW252016   9.902  14.407   1.677
16707SOL     OW52017   4.800   2.321  11.408
16707SOL    HW152018   4.871   2.359  11.357
16707SOL    HW252019   4.725   2.380  11.394
16708SOL     OW52020   0.012  11.767  11.981
16708SOL    HW152021   0.056  11.812  11.909
16708SOL    HW252022  14.819  11.830  12.014
16709SOL     OW52023   9.754   1.778   7.396
16709SOL    HW152024   9.730   1.725   7.320
16709SOL    HW252025   9.759   1.868   7.362
16710SOL     OW52026   3.357   2.866   7.175
16710SOL    HW152027   3.419   2.797   7.201
16710SOL    HW252028   3.412   2.935   7.138
16711SOL     OW52029   3.448   9.832  13.472
16711SOL    HW152030   3.504   9.862  13.544
16711SOL    HW252031   3.405   9.911  13.441
16712SOL     OW52032   1.746  13.424  13.246
16712SOL    HW152033   1.776  13.422  13.337
16712SOL    HW252034   1.820  13.392  13.196
16713SOL     OW52035   1.129  11.591   0.909
16713SOL    HW152036   1.167  11.543   0.835
16713SOL    HW252037   1.198  11.652   0.936
16714SOL     OW52038   7.572   5.341   7.780
16714SOL    HW152039   7.555   5.434   7.769
16714SOL    HW252040   7.486   5.300   7.770
16715SOL     OW52041  13.267   4.808  11.522
16715SOL    HW152042  13.306   4.738  11.469
16715SOL    HW252043  13.233   4.870  11.458
16716SOL     OW52044  11.837   5.519   0.689
16716SOL    HW152045  11.746   5.530   0.663
16716SOL    HW252046  11.859   5.601   0.734
16717SOL     OW52047   7.757  10.595   9.737
16717SOL    HW152048   7.816  10.612   9.663
16717SOL    HW252049   7.688  10.660   9.727
16718SOL     OW52050   8.382   8.283   4.828
16718SOL    HW152051   8.293   8.316   4.816
16718SOL    HW252052   8.430   8.356   4.867
16719SOL     OW52053  11.099   4.652   4.775
16719SOL    HW152054  11.084   4.613   4.689
16719SOL    HW252055  11.069   4.743   4.765
16720SOL     OW52056  12.536   7.068   7.940
16720SOL    HW152057  12.480   7.049   8.016
16720SOL    HW252058  12.617   7.019   7.958
16721SOL     OW52059   7.329   9.088  10.298
16721SOL    HW152060   7.244   9.086  10.255
16721SOL    HW252061   7.328   9.013  10.358
16722SOL     OW52062   5.492  13.361  10.605
16722SOL    HW152063   5.450  13.280  10.576
16722SOL    HW252064   5.445  13.430  10.559
16723SOL     OW52065   6.787  12.944  14.630
16723SOL    HW152066   6.751  12.873  14.576
16723SOL    HW252067   6.725  13.016  14.619
16724SOL     OW52068   5.092  12.217   1.089
16724SOL    HW152069   5.113  12.273   1.014
16724SOL    HW252070   4.998  12.226   1.099
16725SOL     OW52071   5.262   9.343  10.306
16725SOL    HW152072   5.260   9.408  10.376
16725SOL    HW252073   5.355   9.330  10.287
16726SOL     OW52074  10.558   4.489   2.663
16726SOL    HW152075  10.560   4.437   2.744
16726SOL    HW252076  10.648   4.521   2.654
16727SOL     OW52077  12.357   9.905  12.552
16727SOL    HW152078  12.344   9.978  12.491
16727SOL    HW252079  12.320   9.935  12.635
16728SOL     OW52080  14.233   6.570   8.218
16728SOL    HW152081  14.216   6.585   8.311
16728SOL    HW252082  14.197   6.648   8.175
16729SOL     OW52083   3.314  13.744   7.268
16729SOL    HW152084   3.300  13.831   7.305
16729SOL    HW252085   3.271  13.747   7.183
16730SOL     OW52086  13.382   5.578  11.876
16730SOL    HW152087  13.365   5.507  11.939
16730SOL    HW252088  13.457   5.548  11.826
16731SOL     OW52089   1.143   4.450   8.671
16731SOL    HW152090   1.196   4.468   8.593
16731SOL    HW252091   1.206   4.421   8.736
16732SOL     OW52092  10.975   2.900   4.362
16732SOL    HW152093  10.956   2.992   4.344
16732SOL    HW252094  11.049   2.903   4.423
16733SOL     OW52095   8.492   1.421   0.619
16733SOL    HW152096   8.507   1.504   0.574
16733SOL    HW252097   8.578   1.393   0.649
16734SOL     OW52098  11.988   3.839   8.812
16734SOL    HW152099  12.067   3.892   8.818
16734SOL    HW252100  12.015   3.760   8.766
16735SOL     OW52101   4.496   8.778  10.952
16735SOL    HW152102   4.490   8.698  10.900
16735SOL    HW252103   4.484   8.849  10.889
16736SOL     OW52104  11.102   9.576   7.271
16736SOL    HW152105  11.177   9.533   7.230
16736SOL    HW252106  11.138   9.655   7.311
16737SOL     OW52107  13.105   3.030   4.794
16737SOL    HW152108  13.021   3.024   4.750
16737SOL    HW252109  13.169   3.033   4.722
16738SOL     OW52110  13.459   4.544  10.365
16738SOL    HW152111  13.410   4.461  10.356
16738SOL    HW252112  13.496   4.539  10.453
16739SOL     OW52113   4.920   6.609  12.862
16739SOL    HW152114   4.985   6.590  12.794
16739SOL    HW252115   4.957   6.683  12.910
16740SOL     OW52116   4.979   6.376  10.696
16740SOL    HW152117   5.061   6.336  10.724
16740SOL    HW252118   4.912   6.310  10.715
16741SOL     OW52119   1.859   6.987   7.099
16741SOL    HW152120   1.929   7.041   7.136
16741SOL    HW252121   1.780   7.041   7.108
16742SOL     OW52122  11.742   1.001  14.423
16742SOL    HW152123  11.813   1.003  14.360
16742SOL    HW252124  11.700   0.916  14.409
16743SOL     OW52125   2.880  10.571   0.527
16743SOL    HW152126   2.838  10.622   0.457
16743SOL    HW252127   2.847  10.609   0.608
16744SOL     OW52128   1.496   6.084  13.603
16744SOL    HW152129   1.586   6.087  13.571
16744SOL    HW252130   1.462   6.000  13.572
16745SOL     OW52131   6.996   5.860   9.277
16745SOL    HW152132   7.019   5.933   9.334
16745SOL    HW252133   6.946   5.901   9.206
16746SOL     OW52134   5.795   4.110  13.091
16746SOL    HW152135   5.806   4.043  13.024
16746SOL    HW252136   5.823   4.191  13.048
16747SOL     OW52137   5.352   7.139  13.403
16747SOL    HW152138   5.267   7.096  13.409
16747SOL    HW252139   5.353   7.179  13.317
16748SOL     OW52140  11.454  14.697  12.233
16748SOL    HW152141  11.402  14.698  12.153
16748SOL    HW252142  11.404  14.642  12.293
16749SOL     OW52143   8.003   9.709  11.270
16749SOL    HW152144   7.952   9.631  11.248
16749SOL    HW252145   8.031   9.695  11.361
16750SOL     OW52146  11.483   0.544  12.041
16750SOL    HW152147  11.529   0.480  12.095
16750SOL    HW252148  11.498   0.628  12.085
16751SOL     OW52149   3.785   9.363  10.833
16751SOL    HW152150   3.693   9.367  10.809
16751SOL    HW252151   3.808   9.270  10.828
16752SOL     OW52152   6.618   7.087   3.271
16752SOL    HW152153   6.575   7.078   3.187
16752SOL    HW252154   6.558   7.139   3.324
16753SOL     OW52155  11.519   8.891   8.151
16753SOL    HW152156  11.471   8.933   8.079
16753SOL    HW252157  11.597   8.945   8.163
16754SOL     OW52158   2.385   1.390  11.944
16754SOL    HW152159   2.292   1.387  11.968
16754SOL    HW252160   2.428   1.330  12.005
16755SOL     OW52161   2.961   6.855  14.460
16755SOL    HW152162   3.028   6.923  14.466
16755SOL    HW252163   2.911   6.878  14.382
16756SOL     OW52164   9.415   7.354  10.246
16756SOL    HW152165   9.381   7.377  10.160
16756SOL    HW252166   9.464   7.432  10.274
16757SOL     OW52167  12.917   0.706  12.029
16757SOL    HW152168  12.962   0.693  12.112
16757SOL    HW252169  12.925   0.622  11.984
16758SOL     OW52170   2.260  13.958   1.225
16758SOL    HW152171   2.167  13.940   1.216
16758SOL    HW252172   2.289  13.902   1.297
16759SOL     OW52173   2.182   0.371  10.461
16759SOL    HW152174   2.260   0.424  10.480
16759SOL    HW252175   2.112   0.435  10.448
16760SOL     OW52176  10.899   3.200   4.823
16760SOL    HW152177  10.871   3.289   4.842
16760SOL    HW252178  10.964   3.180   4.891
16761SOL     OW52179  12.587   3.708   3.350
16761SOL    HW152180  12.666   3.728   3.401
16761SOL    HW252181  12.561   3.793   3.314
16762SOL     OW52182   1.742   4.846  11.185
16762SOL    HW152183   1.770   4.812  11.100
16762SOL    HW252184   1.771   4.779  11.248
16763SOL     OW52185   3.501   8.695   3.754
16763SOL    HW152186   3.531   8.670   3.842
16763SOL    HW252187   3.550   8.775   3.734
16764SOL     OW52188  10.875   7.105   1.927
16764SOL    HW152189  10.857   7.161   1.851
16764SOL    HW252190  10.789   7.081   1.961
16765SOL     OW52191  10.623  10.803   8.624
16765SOL    HW152192  10.651  10.755   8.546
16765SOL    HW252193  10.545  10.756   8.655
16766SOL     OW52194  12.528   7.944   2.527
16766SOL    HW152195  12.508   7.922   2.618
16766SOL    HW252196  12.552   8.037   2.530
16767SOL     OW52197  13.857   7.665  12.871
16767SOL    HW152198  13.826   7.720  12.799
16767SOL    HW252199  13.918   7.604  12.830
16768SOL     OW52200   1.989   1.334   6.802
16768SOL    HW152201   1.996   1.250   6.756
16768SOL    HW252202   2.035   1.396   6.747
16769SOL     OW52203   4.290   8.513   8.391
16769SOL    HW152204   4.245   8.476   8.467
16769SOL    HW252205   4.362   8.452   8.373
16770SOL     OW52206   8.268   1.256   0.605
16770SOL    HW152207   8.288   1.214   0.689
16770SOL    HW252208   8.348   1.305   0.584
16771SOL     OW52209  10.486  10.635  13.981
16771SOL    HW152210  10.565  10.647  13.928
16771SOL    HW252211  10.491  10.544  14.011
16772SOL     OW52212   8.406  13.504  12.470
16772SOL    HW152213   8.400  13.574  12.535
16772SOL    HW252214   8.479  13.530  12.413
16773SOL     OW52215   2.057  14.640   0.646
16773SOL    HW152216   2.097  14.567   0.599
16773SOL    HW252217   2.107  14.717   0.617
16774SOL     OW52218   3.112  11.513   7.636
16774SOL    HW152219   3.173  11.549   7.571
16774SOL    HW252220   3.148  11.427   7.658
16775SOL     OW52221   8.653   3.971   6.794
16775SOL    HW152222   8.686   3.936   6.711
16775SOL    HW252223   8.653   4.066   6.782
16776SOL     OW52224   4.060   2.416   6.482
16776SOL    HW152225   4.067   2.414   6.386
16776SOL    HW252226   4.110   2.494   6.508
16777SOL     OW52227   7.073   1.533   1.452
16777SOL    HW152228   7.065   1.567   1.541
16777SOL    HW252229   7.147   1.473   1.456
16778SOL     OW52230   4.304   5.866   8.488
16778SOL    HW152231   4.332   5.956   8.504
16778SOL    HW252232   4.336   5.817   8.564
16779SOL     OW52233  13.737   2.456   1.608
16779SOL    HW152234  13.673   2.387   1.589
16779SOL    HW252235  13.812   2.409   1.644
16780SOL     OW52236   0.738   9.231   9.968
16780SOL    HW152237   0.770   9.192  10.049
16780SOL    HW252238   0.663   9.176   9.944
16781SOL     OW52239   4.073  10.254   8.505
16781SOL    HW152240   4.043  10.184   8.563
16781SOL    HW252241   4.053  10.222   8.417
16782SOL     OW52242  10.822   1.234   4.216
16782SOL    HW152243  10.801   1.327   4.206
16782SOL    HW252244  10.789   1.211   4.303
16783SOL     OW52245  11.671   4.752   3.812
16783SOL    HW152246  11.630   4.674   3.775
16783SOL    HW252247  11.755   4.759   3.767
16784SOL     OW52248   5.397   5.896   9.352
16784SOL    HW152249   5.319   5.904   9.297
16784SOL    HW252250   5.365   5.908   9.441
16785SOL     OW52251   9.781   2.426  11.173
16785SOL    HW152252   9.770   2.520  11.159
16785SOL    HW252253   9.707   2.386  11.129
16786SOL     OW52254  12.885  14.596   3.244
16786SOL    HW152255  12.877  14.548   3.162
16786SOL    HW252256  12.972  14.575   3.276
16787SOL     OW52257   2.291   8.230  11.767
16787SOL    HW152258   2.345   8.240  11.689
16787SOL    HW252259   2.322   8.299  11.826
16788SOL     OW52260   2.978   0.742   8.018
16788SOL    HW152261   2.963   0.702   8.104
16788SOL    HW252262   2.915   0.698   7.961
16789SOL     OW52263  14.685  12.299   2.819
16789SOL    HW152264  14.644  12.382   2.797
16789SOL    HW252265  14.647  12.236   2.757
16790SOL     OW52266  11.849  11.177   9.763
16790SOL    HW152267  11.769  11.226   9.778
16790SOL    HW252268  11.824  11.109   9.701
16791SOL     OW52269   0.297  12.248   9.250
16791SOL    HW152270   0.320  12.330   9.207
16791SOL    HW252271   0.381  12.207   9.272
16792SOL     OW52272  13.168   3.501  12.835
16792SOL    HW152273  13.165   3.484  12.929
16792SOL    HW252274  13.247   3.455  12.805
16793SOL     OW52275   4.813   5.186   0.253
16793SOL    HW152276   4.908   5.192   0.265
16793SOL    HW252277   4.800   5.105   0.202
16794SOL     OW52278   9.071  13.815   1.534
16794SOL    HW152279   9.083  13.900   1.492
16794SOL    HW252280   9.080  13.834   1.628
16795SOL     OW52281  12.122  10.286   5.709
16795SOL    HW152282  12.047  10.228   5.696
16795SOL    HW252283  12.084  10.371   5.728
16796SOL     OW52284   6.722   4.287   6.905
16796SOL    HW152285   6.729   4.196   6.877
16796SOL    HW252286   6.662   4.326   6.842
16797SOL     OW52287  12.390   3.380   8.525
16797SOL    HW152288  12.361   3.313   8.586
16797SOL    HW252289  12.358   3.462   8.563
16798SOL     OW52290  14.023   0.953   7.882
16798SOL    HW152291  13.974   1.022   7.838
16798SOL    HW252292  14.016   0.973   7.975
16799SOL     OW52293   4.365   8.090   7.490
16799SOL    HW152294   4.351   8.184   7.480
16799SOL    HW252295   4.277   8.054   7.501
16800SOL     OW52296   7.661   3.175  11.509
16800SOL    HW152297   7.750   3.199  11.481
16800SOL    HW252298   7.667   3.082  11.529
16801SOL     OW52299  10.262   7.181  12.985
16801SOL    HW152300  10.322   7.254  12.997
16801SOL    HW252301  10.317   7.103  12.988
16802SOL     OW52302   5.025   5.087   0.914
16802SOL    HW152303   5.049   5.001   0.948
16802SOL    HW252304   5.093   5.146   0.947
16803SOL     OW52305  14.680  13.336  10.838
16803SOL    HW152306  14.750  13.358  10.776
16803SOL    HW252307  14.697  13.392  10.914
16804SOL     OW52308   9.453  11.916  12.472
16804SOL    HW152309   9.395  11.861  12.524
16804SOL    HW252310   9.432  12.006  12.499
16805SOL     OW52311   1.500   1.606   8.303
16805SOL    HW152312   1.426   1.573   8.252
16805SOL    HW252313   1.461   1.669   8.364
16806SOL     OW52314  14.556  13.242  11.168
16806SOL    HW152315  14.541  13.149  11.157
16806SOL    HW252316  14.527  13.261  11.257
16807SOL     OW52317   6.930   1.811   3.451
16807SOL    HW152318   6.894   1.898   3.432
16807SOL    HW252319   6.861   1.751   3.424
16808SOL     OW52320   6.756   8.989   4.980
16808SOL    HW152321   6.741   8.942   5.062
16808SOL    HW252322   6.690   8.953   4.920
16809SOL     OW52323   5.022   5.464  10.457
16809SOL    HW152324   4.928   5.465  10.477
16809SOL    HW252325   5.026   5.451  10.362
16810SOL     OW52326  13.198   7.823   4.008
16810SOL    HW152327  13.188   7.729   4.020
16810SOL    HW252328  13.160   7.862   4.087
16811SOL     OW52329   1.014  13.658  11.406
16811SOL    HW152330   0.980  13.681  11.320
16811SOL    HW252331   0.937  13.629  11.455
16812SOL     OW52332  11.624  14.291   1.527
16812SOL    HW152333  11.671  14.310   1.608
16812SOL    HW252334  11.636  14.196   1.515
16813SOL     OW52335   2.733   9.327   1.850
16813SOL    HW152336   2.815   9.289   1.820
16813SOL    HW252337   2.665   9.272   1.811
16814SOL     OW52338   7.606   5.983  14.503
16814SOL    HW152339   7.555   6.046  14.454
16814SOL    HW252340   7.639   6.032  14.579
16815SOL     OW52341   9.329   2.261   7.728
16815SOL    HW152342   9.342   2.330   7.793
16815SOL    HW252343   9.418   2.235   7.705
16816SOL     OW52344  14.206  10.254  12.781
16816SOL    HW152345  14.158  10.335  12.801
16816SOL    HW252346  14.246  10.270  12.695
16817SOL     OW52347  14.058   5.426   7.515
16817SOL    HW152348  13.970   5.457   7.496
16817SOL    HW252349  14.113   5.505   7.508
16818SOL     OW52350   4.616  11.494  11.956
16818SOL    HW152351   4.605  11.588  11.964
16818SOL    HW252352   4.698  11.475  12.003
16819SOL     OW52353  11.751   2.021   8.046
16819SOL    HW152354  11.710   2.083   8.107
16819SOL    HW252355  11.791   1.956   8.103
16820SOL     OW52356   5.648  13.615   0.571
16820SOL    HW152357   5.605  13.554   0.512
16820SOL    HW252358   5.739  13.618   0.540
16821SOL     OW52359   2.798   8.716  13.551
16821SOL    HW152360   2.886   8.683  13.569
16821SOL    HW252361   2.761   8.733  13.638
16822SOL     OW52362   7.504   6.314  11.816
16822SOL    HW152363   7.469   6.395  11.778
16822SOL    HW252364   7.583   6.296  11.766
16823SOL     OW52365   3.761  12.269   3.003
16823SOL    HW152366   3.752  12.297   2.912
16823SOL    HW252367   3.732  12.177   3.003
16824SOL     OW52368   8.326  11.943   5.302
16824SOL    HW152369   8.290  11.863   5.342
16824SOL    HW252370   8.261  12.011   5.322
16825SOL     OW52371   7.950   9.765   6.538
16825SOL    HW152372   8.038   9.774   6.502
16825SOL    HW252373   7.936   9.671   6.544
16826SOL     OW52374   6.326   2.461   6.410
16826SOL    HW152375   6.328   2.548   6.451
16826SOL    HW252376   6.249   2.462   6.354
16827SOL     OW52377   5.589   3.701   2.622
16827SOL    HW152378   5.664   3.736   2.575
16827SOL    HW252379   5.533   3.664   2.554
16828SOL     OW52380  14.410   1.503  11.881
16828SOL    HW152381  14.420   1.427  11.938
16828SOL    HW252382  14.315   1.514  11.873
16829SOL     OW52383  12.686   0.543  14.161
16829SOL    HW152384  12.652   0.629  14.185
16829SOL    HW252385  12.611   0.484  14.171
16830SOL     OW52386   0.991  12.063   2.953
16830SOL    HW152387   1.063  12.036   3.010
16830SOL    HW252388   0.936  12.118   3.010
16831SOL     OW52389   1.343   3.111   0.893
16831SOL    HW152390   1.373   3.192   0.854
16831SOL    HW252391   1.289   3.070   0.826
16832SOL     OW52392   2.594  14.240   5.141
16832SOL    HW152393   2.629  14.151   5.136
16832SOL    HW252394   2.630  14.276   5.222
16833SOL     OW52395  10.878  10.885   2.955
16833SOL    HW152396  10.905  10.900   2.864
16833SOL    HW252397  10.843  10.969   2.984
16834SOL     OW52398   4.167   9.967   1.218
16834SOL    HW152399   4.102   9.906   1.253
16834SOL    HW252400   4.118  10.047   1.199
16835SOL     OW52401   3.339  10.631   6.262
16835SOL    HW152402   3.247  10.653   6.269
16835SOL    HW252403   3.365  10.663   6.175
16836SOL     OW52404  14.654   6.433   8.917
16836SOL    HW152405  14.678   6.358   8.863
16836SOL    HW252406  14.562   6.417   8.940
16837SOL     OW52407   0.174   7.135  14.595
16837SOL    HW152408   0.258   7.093  14.577
16837SOL    HW252409   0.146   7.099  14.679
16838SOL     OW52410   5.698  11.727   4.077
16838SOL    HW152411   5.617  11.678   4.089
16838SOL    HW252412   5.672  11.819   4.088
16839SOL     OW52413  11.770  14.610   5.820
16839SOL    HW152414  11.679  14.639   5.829
16839SOL    HW252415  11.818  14.666   5.880
16840SOL     OW52416   2.147  12.811   9.477
16840SOL    HW152417   2.177  12.854   9.557
16840SOL    HW252418   2.148  12.880   9.410
16841SOL     OW52419   3.214   0.365   7.460
16841SOL    HW152420   3.207   0.325   7.373
16841SOL    HW252421   3.286   0.318   7.502
16842SOL     OW52422  14.375   1.405   8.763
16842SOL    HW152423  14.380   1.497   8.788
16842SOL    HW252424  14.314   1.366   8.826
16843SOL     OW52425  14.421   4.314   0.872
16843SOL    HW152426  14.426   4.385   0.935
16843SOL    HW252427  14.411   4.235   0.925
16844SOL     OW52428   0.221   6.989   6.679
16844SOL    HW152429   0.300   6.953   6.720
16844SOL    HW252430   0.244   6.999   6.587
16845SOL     OW52431   2.684  13.174  10.135
16845SOL    HW152432   2.764  13.145  10.180
16845SOL    HW252433   2.663  13.258  10.175
16846SOL     OW52434   1.399   4.062  12.357
16846SOL    HW152435   1.396   4.136  12.297
16846SOL    HW252436   1.414   4.100  12.443
16847SOL     OW52437   6.589   9.313   9.173
16847SOL    HW152438   6.550   9.276   9.095
16847SOL    HW252439   6.602   9.239   9.232
16848SOL     OW52440   1.015  10.131  14.324
16848SOL    HW152441   0.935  10.180  14.343
16848SOL    HW252442   1.033  10.083  14.405
16849SOL     OW52443   6.028   2.209  11.344
16849SOL    HW152444   5.974   2.256  11.408
16849SOL    HW252445   6.050   2.126  11.387
16850SOL     OW52446   8.595  14.003  11.755
16850SOL    HW152447   8.604  14.067  11.826
16850SOL    HW252448   8.662  14.027  11.692
16851SOL     OW52449   7.357  14.290   4.575
16851SOL    HW152450   7.277  14.263   4.529
16851SOL    HW252451   7.362  14.231   4.651
16852SOL     OW52452   6.055   4.371  10.657
16852SOL    HW152453   6.087   4.287  10.691
16852SOL    HW252454   5.974   4.349  10.612
16853SOL     OW52455   9.927  10.453  14.070
16853SOL    HW152456   9.968  10.459  14.156
16853SOL    HW252457   9.951  10.535  14.027
16854SOL     OW52458   2.112   8.212   9.278
16854SOL    HW152459   2.016   8.210   9.288
16854SOL    HW252460   2.128   8.274   9.207
16855SOL     OW52461   1.803   8.021   7.957
16855SOL    HW152462   1.821   7.954   7.892
16855SOL    HW252463   1.773   8.097   7.906
16856SOL     OW52464   5.093   6.913   5.814
16856SOL    HW152465   5.010   6.864   5.811
16856SOL    HW252466   5.146   6.867   5.879
16857SOL     OW52467   1.743   7.358  14.293
16857SOL    HW152468   1.773   7.383  14.206
16857SOL    HW252469   1.647   7.355  14.286
16858SOL     OW52470   7.678   6.235   4.499
16858SOL    HW152471   7.715   6.308   4.547
16858SOL    HW252472   7.584   6.241   4.515
16859SOL     OW52473   4.221  11.084   1.018
16859SOL    HW152474   4.260  11.147   1.078
16859SOL    HW252475   4.130  11.078   1.045
16860SOL     OW52476  14.436  11.075   3.243
16860SOL    HW152477  14.445  11.018   3.320
16860SOL    HW252478  14.352  11.118   3.255
16861SOL     OW52479  12.630   7.089   2.941
16861SOL    HW152480  12.646   7.039   3.021
16861SOL    HW252481  12.556   7.146   2.963
16862SOL     OW52482  12.207   5.027   5.732
16862SOL    HW152483  12.297   5.051   5.757
16862SOL    HW252484  12.174   4.981   5.809
16863SOL     OW52485   6.858   3.842  10.323
16863SOL    HW152486   6.891   3.844  10.233
16863SOL    HW252487   6.849   3.749  10.343
16864SOL     OW52488   8.234  10.479  11.487
16864SOL    HW152489   8.185  10.535  11.426
16864SOL    HW252490   8.184  10.484  11.569
16865SOL     OW52491   3.819   7.726  13.231
16865SOL    HW152492   3.886   7.658  13.226
16865SOL    HW252493   3.844   7.779  13.307
16866SOL     OW52494   2.726   9.914   7.862
16866SOL    HW152495   2.819   9.913   7.839
16866SOL    HW252496   2.699   9.822   7.855
16867SOL     OW52497  11.385   4.351   5.331
16867SOL    HW152498  11.447   4.303   5.385
16867SOL    HW252499  11.438   4.390   5.262
16868SOL     OW52500   6.092   3.441   2.538
16868SOL    HW152501   6.113   3.508   2.603
16868SOL    HW252502   6.037   3.379   2.585
16869SOL     OW52503   3.031   5.157   3.847
16869SOL    HW152504   3.099   5.214   3.882
16869SOL    HW252505   2.962   5.158   3.914
16870SOL     OW52506  13.999  12.640   2.614
16870SOL    HW152507  14.056  12.635   2.691
16870SOL    HW252508  13.940  12.566   2.623
16871SOL     OW52509   7.255   1.809  13.977
16871SOL    HW152510   7.172   1.812  13.930
16871SOL    HW252511   7.258   1.722  14.016
16872SOL     OW52512   6.877  10.571  10.303
16872SOL    HW152513   6.893  10.560  10.209
16872SOL    HW252514   6.782  10.570  10.312
16873SOL     OW52515   6.711   2.485  11.695
16873SOL    HW152516   6.654   2.498  11.619
16873SOL    HW252517   6.766   2.564  11.697
16874SOL     OW52518   8.148   3.556   2.122
16874SOL    HW152519   8.109   3.624   2.177
16874SOL    HW252520   8.172   3.601   2.041
16875SOL     OW52521   3.484   5.426  11.479
16875SOL    HW152522   3.442   5.347  11.443
16875SOL    HW252523   3.430   5.498  11.448
16876SOL     OW52524   1.283  14.550  13.703
16876SOL    HW152525   1.369  14.510  13.693
16876SOL    HW252526   1.250  14.559  13.614
16877SOL     OW52527   3.041  12.111   9.908
16877SOL    HW152528   3.014  12.123   9.999
16877SOL    HW252529   3.029  12.198   9.869
16878SOL     OW52530  12.339   8.472   4.063
16878SOL    HW152531  12.340   8.395   4.005
16878SOL    HW252532  12.275   8.451   4.131
16879SOL     OW52533   7.820  13.406   2.008
16879SOL    HW152534   7.744  13.458   1.984
16879SOL    HW252535   7.784  13.329   2.053
16880SOL     OW52536   9.220   2.570   1.630
16880SOL    HW152537   9.160   2.645   1.631
16880SOL    HW252538   9.302   2.605   1.596
16881SOL     OW52539   6.235   0.939  11.804
16881SOL    HW152540   6.153   0.901  11.773
16881SOL    HW252541   6.216   1.033  11.814
16882SOL     OW52542   7.926   2.463   6.059
16882SOL    HW152543   7.910   2.516   5.981
16882SOL    HW252544   8.022   2.455   6.063
16883SOL     OW52545   6.779   7.090   8.475
16883SOL    HW152546   6.818   7.074   8.390
16883SOL    HW252547   6.688   7.060   8.466
16884SOL     OW52548  14.105   1.506  10.624
16884SOL    HW152549  14.192   1.490  10.587
16884SOL    HW252550  14.084   1.595  10.599
16885SOL     OW52551   4.085   1.115  10.762
16885SOL    HW152552   4.040   1.194  10.734
16885SOL    HW252553   4.115   1.075  10.681
16886SOL     OW52554   0.018  13.154   7.655
16886SOL    HW152555  14.866  13.145   7.747
16886SOL    HW252556   0.111  13.179   7.655
16887SOL     OW52557   8.460   1.108   6.412
16887SOL    HW152558   8.440   1.069   6.497
16887SOL    HW252559   8.537   1.060   6.381
16888SOL     OW52560   4.699   8.362   0.199
16888SOL    HW152561   4.768   8.351   0.264
16888SOL    HW252562   4.618   8.349   0.247
16889SOL     OW52563  14.541   1.733  10.675
16889SOL    HW152564  14.472   1.797  10.661
16889SOL    HW252565  14.596   1.738  10.596
16890SOL     OW52566   0.339   1.734   8.278
16890SOL    HW152567   0.338   1.642   8.304
16890SOL    HW252568   0.374   1.780   8.354
16891SOL     OW52569   5.363   6.797   4.570
16891SOL    HW152570   5.404   6.850   4.638
16891SOL    HW252571   5.327   6.861   4.508
16892SOL     OW52572   5.897  12.650   4.382
16892SOL    HW152573   5.961  12.592   4.424
16892SOL    HW252574   5.884  12.721   4.444
16893SOL     OW52575   5.482   8.098   1.728
16893SOL    HW152576   5.539   8.153   1.674
16893SOL    HW252577   5.394   8.120   1.699
16894SOL     OW52578   6.113   1.677  13.478
16894SOL    HW152579   6.068   1.709  13.556
16894SOL    HW252580   6.062   1.710  13.405
16895SOL     OW52581   8.815  12.035  13.719
16895SOL    HW152582   8.906  12.004  13.726
16895SOL    HW252583   8.790  12.054  13.810
16896SOL     OW52584   4.957  10.926   3.409
16896SOL    HW152585   5.012  10.881   3.345
16896SOL    HW252586   4.912  10.856   3.456
16897SOL     OW52587   0.036   4.651  14.385
16897SOL    HW152588  14.812   4.634  14.374
16897SOL    HW252589   0.078   4.597  14.319
16898SOL     OW52590   4.219   6.735  13.083
16898SOL    HW152591   4.250   6.673  13.018
16898SOL    HW252592   4.281   6.725  13.156
16899SOL     OW52593   8.045   4.471   4.398
16899SOL    HW152594   7.999   4.554   4.392
16899SOL    HW252595   7.978   4.407   4.419
16900SOL     OW52596   7.530   3.175  13.064
16900SOL    HW152597   7.598   3.136  13.009
16900SOL    HW252598   7.559   3.157  13.154
16901SOL     OW52599   8.587  12.576  10.636
16901SOL    HW152600   8.524  12.645  10.614
16901SOL    HW252601   8.601  12.529  10.553
16902SOL     OW52602  13.457  13.960  14.260
16902SOL    HW152603  13.433  13.867  14.255
16902SOL    HW252604  13.505  13.976  14.178
16903SOL     OW52605   9.275   4.265  12.638
16903SOL    HW152606   9.183   4.259  12.664
16903SOL    HW252607   9.321   4.288  12.719
16904SOL     OW52608  10.651   4.634   3.673
16904SOL    HW152609  10.632   4.681   3.754
16904SOL    HW252610  10.588   4.562   3.671
16905SOL     OW52611   7.589   6.077   7.249
16905SOL    HW152612   7.533   6.018   7.198
16905SOL    HW252613   7.540   6.159   7.251
16906SOL     OW52614  12.236   5.933   2.584
16906SOL    HW152615  12.220   5.864   2.519
16906SOL    HW252616  12.280   6.002   2.535
16907SOL     OW52617   1.771   4.058   7.565
16907SOL    HW152618   1.785   4.026   7.654
16907SOL    HW252619   1.773   3.978   7.511
16908SOL     OW52620   2.622  14.057   8.041
16908SOL    HW152621   2.563  14.121   8.079
16908SOL    HW252622   2.622  14.077   7.947
16909SOL     OW52623   5.941  10.023   1.728
16909SOL    HW152624   5.874  10.087   1.706
16909SOL    HW252625   6.023  10.062   1.697
16910SOL     OW52626   0.499  10.736   2.858
16910SOL    HW152627   0.518  10.658   2.807
16910SOL    HW252628   0.499  10.706   2.949
16911SOL     OW52629   4.218   9.237   9.351
16911SOL    HW152630   4.310   9.261   9.343
16911SOL    HW252631   4.196   9.254   9.442
16912SOL     OW52632   6.693   6.283  12.630
16912SOL    HW152633   6.737   6.199  12.645
16912SOL    HW252634   6.621   6.262  12.571
16913SOL     OW52635  12.233   6.880   0.932
16913SOL    HW152636  12.204   6.891   0.841
16913SOL    HW252637  12.312   6.933   0.939
16914SOL     OW52638  10.264   3.623   3.242
16914SOL    HW152639  10.241   3.566   3.168
16914SOL    HW252640  10.309   3.697   3.202
16915SOL     OW52641   6.020   4.504   0.424
16915SOL    HW152642   6.037   4.436   0.489
16915SOL    HW252643   5.935   4.481   0.386
16916SOL     OW52644   2.071   4.663  14.290
16916SOL    HW152645   2.147   4.678  14.346
16916SOL    HW252646   2.044   4.750  14.262
16917SOL     OW52647   9.616   7.675   5.998
16917SOL    HW152648   9.572   7.596   5.968
16917SOL    HW252649   9.565   7.747   5.962
16918SOL     OW52650   1.136  11.299  12.591
16918SOL    HW152651   1.153  11.206  12.601
16918SOL    HW252652   1.223  11.339  12.590
16919SOL     OW52653   2.795  13.745  13.986
16919SOL    HW152654   2.820  13.753  13.894
16919SOL    HW252655   2.853  13.806  14.032
16920SOL     OW52656   4.088   5.470   5.044
16920SOL    HW152657   4.180   5.499   5.042
16920SOL    HW252658   4.051   5.513   5.121
16921SOL     OW52659  14.216   6.296  11.561
16921SOL    HW152660  14.215   6.204  11.587
16921SOL    HW252661  14.282   6.301  11.492
16922SOL     OW52662  10.329   3.182   9.299
16922SOL    HW152663  10.336   3.108   9.360
16922SOL    HW252664  10.379   3.252   9.341
16923SOL     OW52665   2.487   3.646  10.795
16923SOL    HW152666   2.408   3.609  10.835
16923SOL    HW252667   2.465   3.657  10.702
16924SOL     OW52668   2.027   4.804  14.852
16924SOL    HW152669   2.051   4.880  14.800
16924SOL    HW252670   1.931   4.809  14.860
16925SOL     OW52671   0.970   5.440   1.282
16925SOL    HW152672   0.926   5.358   1.303
16925SOL    HW252673   0.997   5.431   1.191
16926SOL     OW52674   2.454  13.796   4.812
16926SOL    HW152675   2.549  13.789   4.816
16926SOL    HW252676   2.436  13.889   4.822
16927SOL     OW52677   5.311   4.488   6.996
16927SOL    HW152678   5.234   4.523   6.951
16927SOL    HW252679   5.340   4.560   7.052
16928SOL     OW52680   8.048   1.383   6.440
16928SOL    HW152681   8.020   1.473   6.423
16928SOL    HW252682   8.141   1.390   6.461
16929SOL     OW52683   5.463   6.811   9.251
16929SOL    HW152684   5.443   6.769   9.334
16929SOL    HW252685   5.449   6.905   9.268
16930SOL     OW52686   5.611  11.754   3.615
16930SOL    HW152687   5.530  11.753   3.667
16930SOL    HW252688   5.581  11.747   3.525
16931SOL     OW52689   5.208   7.045   4.671
16931SOL    HW152690   5.262   7.059   4.748
16931SOL    HW252691   5.153   7.123   4.665
16932SOL     OW52692   5.213   4.517   4.845
16932SOL    HW152693   5.129   4.563   4.844
16932SOL    HW252694   5.276   4.582   4.813
16933SOL     OW52695   6.868   7.190   9.754
16933SOL    HW152696   6.786   7.148   9.779
16933SOL    HW252697   6.848   7.284   9.756
16934SOL     OW52698   4.753  11.263   1.990
16934SOL    HW152699   4.696  11.246   2.064
16934SOL    HW252700   4.747  11.184   1.936
16935SOL     OW52701   3.526  14.410  12.952
16935SOL    HW152702   3.585  14.343  12.986
16935SOL    HW252703   3.452  14.360  12.916
16936SOL     OW52704   2.916   5.637   9.480
16936SOL    HW152705   2.855   5.711   9.475
16936SOL    HW252706   2.861   5.559   9.471
16937SOL     OW52707   5.588   7.470   6.406
16937SOL    HW152708   5.564   7.506   6.321
16937SOL    HW252709   5.664   7.414   6.388
16938SOL     OW52710  10.528   8.987   8.502
16938SOL    HW152711  10.573   9.056   8.551
16938SOL    HW252712  10.593   8.917   8.493
16939SOL     OW52713   4.780  10.416  13.015
16939SOL    HW152714   4.861  10.464  13.033
16939SOL    HW252715   4.807  10.346  12.955
16940SOL     OW52716   4.251  12.121   2.711
16940SOL    HW152717   4.238  12.043   2.656
16940SOL    HW252718   4.262  12.086   2.800
16941SOL     OW52719   3.499   2.714   8.103
16941SOL    HW152720   3.594   2.709   8.089
16941SOL    HW252721   3.488   2.785   8.167
16942SOL     OW52722   2.337   0.188  12.886
16942SOL    HW152723   2.426   0.210  12.861
16942SOL    HW252724   2.311   0.118  12.825
16943SOL     OW52725  13.919  13.203   7.055
16943SOL    HW152726  13.833  13.242   7.071
16943SOL    HW252727  13.936  13.149   7.132
16944SOL     OW52728  13.469   4.254  12.394
16944SOL    HW152729  13.464   4.161  12.374
16944SOL    HW252730  13.529   4.290  12.329
16945SOL     OW52731  11.455  11.734   7.451
16945SOL    HW152732  11.541  11.733   7.495
16945SOL    HW252733  11.474  11.761   7.362
16946SOL     OW52734  11.359   4.009  13.559
16946SOL    HW152735  11.285   4.065  13.536
16946SOL    HW252736  11.398   4.052  13.636
16947SOL     OW52737  13.324   7.421   9.030
16947SOL    HW152738  13.235   7.406   8.998
16947SOL    HW252739  13.342   7.346   9.087
16948SOL     OW52740   7.585  13.076   2.394
16948SOL    HW152741   7.497  13.106   2.414
16948SOL    HW252742   7.632  13.083   2.477
16949SOL     OW52743  10.107  14.781   8.912
16949SOL    HW152744  10.120  14.721   8.986
16949SOL    HW252745  10.131  14.730   8.835
16950SOL     OW52746  10.891   9.659  14.386
16950SOL    HW152747  10.961   9.599  14.413
16950SOL    HW252748  10.822   9.647  14.452
16951SOL     OW52749   2.403   5.467   9.150
16951SOL    HW152750   2.484   5.502   9.186
16951SOL    HW252751   2.389   5.385   9.198
16952SOL     OW52752   1.679  12.027  10.645
16952SOL    HW152753   1.723  11.955  10.691
16952SOL    HW252754   1.596  11.989  10.615
16953SOL     OW52755   3.192   1.196  14.724
16953SOL    HW152756   3.116   1.192  14.782
16953SOL    HW252757   3.248   1.263  14.763
16954SOL     OW52758   0.167   5.351   0.691
16954SOL    HW152759   0.209   5.281   0.742
16954SOL    HW252760   0.203   5.432   0.728
16955SOL     OW52761   9.136   9.847   5.569
16955SOL    HW152762   9.180   9.870   5.487
16955SOL    HW252763   9.192   9.780   5.608
16956SOL     OW52764  12.439   8.229   7.562
16956SOL    HW152765  12.532   8.221   7.543
16956SOL    HW252766  12.425   8.322   7.578
16957SOL     OW52767   4.472   5.435   1.825
16957SOL    HW152768   4.561   5.439   1.790
16957SOL    HW252769   4.471   5.357   1.880
16958SOL     OW52770   9.110  13.866  14.190
16958SOL    HW152771   9.140  13.816  14.114
16958SOL    HW252772   9.048  13.930  14.154
16959SOL     OW52773  14.460   1.045  11.308
16959SOL    HW152774  14.467   1.001  11.223
16959SOL    HW252775  14.375   1.089  11.306
16960SOL     OW52776  13.268  11.337   1.968
16960SOL    HW152777  13.316  11.301   2.042
16960SOL    HW252778  13.176  11.334   1.994
16961SOL     OW52779   5.449   1.452   2.932
16961SOL    HW152780   5.524   1.508   2.913
16961SOL    HW252781   5.405   1.495   3.005
16962SOL     OW52782  13.786   5.283  13.463
16962SOL    HW152783  13.830   5.202  13.488
16962SOL    HW252784  13.830   5.312  13.384
16963SOL     OW52785   4.979  13.037   5.262
16963SOL    HW152786   5.019  13.073   5.341
16963SOL    HW252787   4.890  13.072   5.262
16964SOL     OW52788   6.706  11.376  12.238
16964SOL    HW152789   6.632  11.431  12.213
16964SOL    HW252790   6.675  11.328  12.315
16965SOL     OW52791  13.930  14.588   1.390
16965SOL    HW152792  13.880  14.508   1.375
16965SOL    HW252793  13.916  14.608   1.482
16966SOL     OW52794   4.649   8.930   1.145
16966SOL    HW152795   4.722   8.986   1.118
16966SOL    HW252796   4.659   8.922   1.240
16967SOL     OW52797   8.892   5.084   0.399
16967SOL    HW152798   8.874   5.178   0.398
16967SOL    HW252799   8.917   5.065   0.490
16968SOL     OW52800   2.086   0.952  11.831
16968SOL    HW152801   2.148   0.995  11.772
16968SOL    HW252802   2.064   1.019  11.896
16969SOL     OW52803   8.480   4.973  10.957
16969SOL    HW152804   8.573   4.953  10.970
16969SOL    HW252805   8.468   4.971  10.863
16970SOL     OW52806  11.651   7.195   4.117
16970SOL    HW152807  11.624   7.128   4.180
16970SOL    HW252808  11.602   7.175   4.037
16971SOL     OW52809   3.652   5.393  14.579
16971SOL    HW152810   3.684   5.448  14.651
16971SOL    HW252811   3.692   5.307  14.595
16972SOL     OW52812   7.330   8.243   4.358
16972SOL    HW152813   7.389   8.174   4.329
16972SOL    HW252814   7.361   8.265   4.447
16973SOL     OW52815   6.868  10.915   1.136
16973SOL    HW152816   6.937  10.899   1.070
16973SOL    HW252817   6.798  10.958   1.087
16974SOL     OW52818   7.490   8.649  11.316
16974SOL    HW152819   7.570   8.686  11.354
16974SOL    HW252820   7.489   8.683  11.226
16975SOL     OW52821   2.884   7.454  13.246
16975SOL    HW152822   2.817   7.523  13.255
16975SOL    HW252823   2.925   7.449  13.332
16976SOL     OW52824   2.530   0.209   4.425
16976SOL    HW152825   2.560   0.121   4.447
16976SOL    HW252826   2.548   0.260   4.504
16977SOL     OW52827  12.983  11.293   1.128
16977SOL    HW152828  12.890  11.303   1.106
16977SOL    HW252829  13.025  11.269   1.046
16978SOL     OW52830   3.206   1.660  12.025
16978SOL    HW152831   3.167   1.573  12.015
16978SOL    HW252832   3.212   1.694  11.936
16979SOL     OW52833  12.449   7.193  13.313
16979SOL    HW152834  12.448   7.144  13.231
16979SOL    HW252835  12.479   7.280  13.288
16980SOL     OW52836  14.585   6.605   5.659
16980SOL    HW152837  14.644   6.678   5.677
16980SOL    HW252838  14.614   6.571   5.574
16981SOL     OW52839  13.205  11.712   9.415
16981SOL    HW152840  13.239  11.794   9.452
16981SOL    HW252841  13.266  11.645   9.444
16982SOL     OW52842   5.468   9.447  11.059
16982SOL    HW152843   5.401   9.504  11.021
16982SOL    HW252844   5.455   9.362  11.017
16983SOL     OW52845   9.326  11.831   2.594
16983SOL    HW152846   9.359  11.748   2.561
16983SOL    HW252847   9.347  11.831   2.688
16984SOL     OW52848   3.057   2.567   3.259
16984SOL    HW152849   3.097   2.611   3.334
16984SOL    HW252850   3.114   2.492   3.242
16985SOL     OW52851  12.454  13.592   7.815
16985SOL    HW152852  12.389  13.595   7.885
16985SOL    HW252853  12.442  13.675   7.768
16986SOL     OW52854   7.438  12.239   5.051
16986SOL    HW152855   7.366  12.201   5.000
16986SOL    HW252856   7.493  12.164   5.073
16987SOL     OW52857   3.070  13.649   9.599
16987SOL    HW152858   3.022  13.729   9.621
16987SOL    HW252859   3.003  13.580   9.599
16988SOL     OW52860   8.401  12.558   4.632
16988SOL    HW152861   8.475  12.613   4.659
16988SOL    HW252862   8.433  12.468   4.643
16989SOL     OW52863   8.138  13.756  10.645
16989SOL    HW152864   8.059  13.764  10.591
16989SOL    HW252865   8.117  13.690  10.710
16990SOL     OW52866   5.939   6.579  14.388
16990SOL    HW152867   5.977   6.536  14.465
16990SOL    HW252868   5.972   6.669  14.392
16991SOL     OW52869   1.269  10.732   8.808
16991SOL    HW152870   1.272  10.708   8.715
16991SOL    HW252871   1.176  10.744   8.827
16992SOL     OW52872  13.489   2.541   3.556
16992SOL    HW152873  13.428   2.535   3.482
16992SOL    HW252874  13.551   2.469   3.541
16993SOL     OW52875  12.560  11.692   8.511
16993SOL    HW152876  12.593  11.607   8.538
16993SOL    HW252877  12.639  11.745   8.495
16994SOL     OW52878   6.051   4.756   2.105
16994SOL    HW152879   6.007   4.837   2.131
16994SOL    HW252880   6.108   4.781   2.032
16995SOL     OW52881   7.307  13.872   2.670
16995SOL    HW152882   7.321  13.787   2.711
16995SOL    HW252883   7.387  13.889   2.621
16996SOL     OW52884   8.595   9.756   5.646
16996SOL    HW152885   8.548   9.839   5.633
16996SOL    HW252886   8.539   9.705   5.703
16997SOL     OW52887  11.664   1.001  14.081
16997SOL    HW152888  11.695   0.963  13.999
16997SOL    HW252889  11.599   0.938  14.114
16998SOL     OW52890   7.258   2.862  14.214
16998SOL    HW152891   7.218   2.879  14.300
16998SOL    HW252892   7.234   2.772  14.193
16999SOL     OW52893   7.664   8.197  11.370
16999SOL    HW152894   7.688   8.282  11.406
16999SOL    HW252895   7.694   8.200  11.279
17000SOL     OW52896   9.539  11.239   6.535
17000SOL    HW152897   9.604  11.194   6.481
17000SOL    HW252898   9.551  11.332   6.515
17001SOL     OW52899   3.158  14.170  14.431
17001SOL    HW152900   3.101  14.234  14.472
17001SOL    HW252901   3.100  14.116  14.378
17002SOL     OW52902   4.739   5.483  10.507
17002SOL    HW152903   4.706   5.395  10.493
17002SOL    HW252904   4.679   5.540  10.459
17003SOL     OW52905   5.501   8.814  14.591
17003SOL    HW152906   5.476   8.814  14.499
17003SOL    HW252907   5.423   8.847  14.636
17004SOL     OW52908   5.263   9.155   2.886
17004SOL    HW152909   5.255   9.156   2.981
17004SOL    HW252910   5.176   9.129   2.855
17005SOL     OW52911   4.892   0.850   7.057
17005SOL    HW152912   4.804   0.841   7.093
17005SOL    HW252913   4.949   0.810   7.123
17006SOL     OW52914  10.280   4.142   0.901
17006SOL    HW152915  10.247   4.162   0.814
17006SOL    HW252916  10.341   4.070   0.888
17007SOL     OW52917  12.373   1.540   5.088
17007SOL    HW152918  12.348   1.629   5.066
17007SOL    HW252919  12.408   1.504   5.006
17008SOL     OW52920  11.708   4.203  14.279
17008SOL    HW152921  11.650   4.158  14.218
17008SOL    HW252922  11.694   4.159  14.363
17009SOL     OW52923   5.142  12.921   6.802
17009SOL    HW152924   5.161  12.923   6.896
17009SOL    HW252925   5.151  12.829   6.777
17010SOL     OW52926  12.368   3.420   3.874
17010SOL    HW152927  12.348   3.341   3.823
17010SOL    HW252928  12.283   3.450   3.906
17011SOL     OW52929   4.855   0.920   9.542
17011SOL    HW152930   4.914   0.845   9.526
17011SOL    HW252931   4.784   0.908   9.480
17012SOL     OW52932  13.771   1.843   3.395
17012SOL    HW152933  13.753   1.832   3.489
17012SOL    HW252934  13.847   1.787   3.379
17013SOL     OW52935  11.133  14.124   4.930
17013SOL    HW152936  11.141  14.062   4.857
17013SOL    HW252937  11.119  14.209   4.888
17014SOL     OW52938  10.771  10.636   2.990
17014SOL    HW152939  10.678  10.652   2.979
17014SOL    HW252940  10.812  10.721   2.975
17015SOL     OW52941  11.596   9.463   9.565
17015SOL    HW152942  11.667   9.524   9.583
17015SOL    HW252943  11.568   9.485   9.476
17016SOL     OW52944   7.620   8.029   5.262
17016SOL    HW152945   7.638   8.111   5.308
17016SOL    HW252946   7.524   8.024   5.260
17017SOL     OW52947  11.285   0.033  13.105
17017SOL    HW152948  11.254   0.104  13.049
17017SOL    HW252949  11.265   0.062  13.194
17018SOL     OW52950  13.232   5.748   4.035
17018SOL    HW152951  13.258   5.820   4.093
17018SOL    HW252952  13.247   5.669   4.087
17019SOL     OW52953  14.740   3.847  10.867
17019SOL    HW152954  14.804   3.919  10.868
17019SOL    HW252955  14.678   3.871  10.936
17020SOL     OW52956   0.849  12.007   4.802
17020SOL    HW152957   0.826  11.918   4.831
17020SOL    HW252958   0.901  11.994   4.723
17021SOL     OW52959  13.606   3.642   1.904
17021SOL    HW152960  13.601   3.551   1.932
17021SOL    HW252961  13.698   3.656   1.883
17022SOL     OW52962  10.026   4.617  10.136
17022SOL    HW152963  10.049   4.609  10.044
17022SOL    HW252964  10.095   4.570  10.183
17023SOL     OW52965   9.307   4.986   6.786
17023SOL    HW152966   9.346   5.031   6.711
17023SOL    HW252967   9.382   4.958   6.839
17024SOL     OW52968   6.815  12.829   8.602
17024SOL    HW152969   6.735  12.817   8.552
17024SOL    HW252970   6.846  12.917   8.578
17025SOL     OW52971  10.064  14.590  13.982
17025SOL    HW152972  10.008  14.521  14.018
17025SOL    HW252973  10.058  14.579  13.887
17026SOL     OW52974   6.884  14.697   3.015
17026SOL    HW152975   6.944  14.654   3.076
17026SOL    HW252976   6.812  14.729   3.070
17027SOL     OW52977   3.358  13.632   4.436
17027SOL    HW152978   3.435  13.609   4.487
17027SOL    HW252979   3.393  13.653   4.349
17028SOL     OW52980  11.982  10.567   8.699
17028SOL    HW152981  12.043  10.583   8.771
17028SOL    HW252982  12.032  10.585   8.620
17029SOL     OW52983   5.566   9.931   4.909
17029SOL    HW152984   5.522   9.998   4.963
17029SOL    HW252985   5.578   9.857   4.969
17030SOL     OW52986  11.376  11.266  14.327
17030SOL    HW152987  11.387  11.265  14.232
17030SOL    HW252988  11.300  11.323  14.341
17031SOL     OW52989   8.208   5.667   4.418
17031SOL    HW152990   8.261   5.671   4.498
17031SOL    HW252991   8.132   5.722   4.437
17032SOL     OW52992  13.441   7.796   5.277
17032SOL    HW152993  13.400   7.728   5.224
17032SOL    HW252994  13.535   7.788   5.259
17033SOL     OW52995  14.716  10.654   9.813
17033SOL    HW152996  14.752  10.723   9.869
17033SOL    HW252997  14.663  10.702   9.748
17034SOL     OW52998   6.183  12.827   5.703
17034SOL    HW152999   6.181  12.912   5.658
17034SOL    HW253000   6.217  12.766   5.637
17035SOL     OW53001   6.826   6.459  12.194
17035SOL    HW153002   6.843   6.440  12.286
17035SOL    HW253003   6.900   6.513  12.166
17036SOL     OW53004   3.254   9.413   7.628
17036SOL    HW153005   3.340   9.451   7.644
17036SOL    HW253006   3.215   9.470   7.560
17037SOL     OW53007   3.859  10.400   3.042
17037SOL    HW153008   3.888  10.372   2.955
17037SOL    HW253009   3.802  10.476   3.025
17038SOL     OW53010   3.543  11.764  11.283
17038SOL    HW153011   3.629  11.790  11.316
17038SOL    HW253012   3.485  11.771  11.358
17039SOL     OW53013   8.132   9.332  12.891
17039SOL    HW153014   8.222   9.300  12.882
17039SOL    HW253015   8.092   9.275  12.956
17040SOL     OW53016   1.566   7.077   2.831
17040SOL    HW153017   1.621   7.056   2.755
17040SOL    HW253018   1.619   7.138   2.882
17041SOL     OW53019  14.553   5.531   2.240
17041SOL    HW153020  14.550   5.605   2.301
17041SOL    HW253021  14.627   5.478   2.271
17042SOL     OW53022   7.611   9.750  10.314
17042SOL    HW153023   7.617   9.777  10.223
17042SOL    HW253024   7.701   9.753  10.347
17043SOL     OW53025   7.518   4.446   8.015
17043SOL    HW153026   7.440   4.485   8.053
17043SOL    HW253027   7.491   4.358   7.989
17044SOL     OW53028   5.598  14.350   8.804
17044SOL    HW153029   5.575  14.292   8.731
17044SOL    HW253030   5.606  14.291   8.879
17045SOL     OW53031  11.948   2.471   8.266
17045SOL    HW153032  12.002   2.432   8.197
17045SOL    HW253033  12.008   2.480   8.340
17046SOL     OW53034   0.077   2.552   1.308
17046SOL    HW153035   0.016   2.617   1.343
17046SOL    HW253036   0.164   2.591   1.321
17047SOL     OW53037   5.559   2.252   5.599
17047SOL    HW153038   5.469   2.248   5.630
17047SOL    HW253039   5.591   2.338   5.626
17048SOL     OW53040  13.900   2.772   2.492
17048SOL    HW153041  13.879   2.865   2.502
17048SOL    HW253042  13.940   2.747   2.576
17049SOL     OW53043   8.255  11.415   5.783
17049SOL    HW153044   8.219  11.328   5.802
17049SOL    HW253045   8.347  11.399   5.761
17050SOL     OW53046   8.367   8.441   3.248
17050SOL    HW153047   8.301   8.374   3.230
17050SOL    HW253048   8.448   8.405   3.210
17051SOL     OW53049   6.408   1.155   9.201
17051SOL    HW153050   6.363   1.215   9.142
17051SOL    HW253051   6.412   1.201   9.285
17052SOL     OW53052  12.501   2.299   5.078
17052SOL    HW153053  12.586   2.286   5.120
17052SOL    HW253054  12.516   2.371   5.017
17053SOL     OW53055   5.051   9.954   4.509
17053SOL    HW153056   5.127   9.920   4.555
17053SOL    HW253057   5.044  10.045   4.537
17054SOL     OW53058   9.523   2.367  13.608
17054SOL    HW153059   9.535   2.442  13.667
17054SOL    HW253060   9.606   2.320  13.611
17055SOL     OW53061  12.153   1.868  14.654
17055SOL    HW153062  12.164   1.779  14.687
17055SOL    HW253063  12.078   1.903  14.702
17056SOL     OW53064  11.144   9.297   5.494
17056SOL    HW153065  11.211   9.327   5.555
17056SOL    HW253066  11.122   9.209   5.523
17057SOL     OW53067   7.634   8.816  12.379
17057SOL    HW153068   7.572   8.763  12.431
17057SOL    HW253069   7.582   8.891  12.351
17058SOL     OW53070  12.020   2.366  11.231
17058SOL    HW153071  12.044   2.454  11.258
17058SOL    HW253072  11.966   2.378  11.153
17059SOL     OW53073   4.523  14.265   0.945
17059SOL    HW153074   4.555  14.351   0.919
17059SOL    HW253075   4.550  14.206   0.875
17060SOL     OW53076   7.884   0.945   7.783
17060SOL    HW153077   7.978   0.927   7.787
17060SOL    HW253078   7.846   0.885   7.847
17061SOL     OW53079  13.559   2.028  13.993
17061SOL    HW153080  13.623   2.041  13.923
17061SOL    HW253081  13.502   1.958  13.960
17062SOL     OW53082  10.719  13.349   7.847
17062SOL    HW153083  10.689  13.440   7.843
17062SOL    HW253084  10.805  13.354   7.888
17063SOL     OW53085   1.770  13.889   9.498
17063SOL    HW153086   1.763  13.796   9.479
17063SOL    HW253087   1.860  13.912   9.477
17064SOL     OW53088   3.664   9.436   1.197
17064SOL    HW153089   3.615   9.355   1.194
17064SOL    HW253090   3.718   9.435   1.118
17065SOL     OW53091   3.593  10.946   1.647
17065SOL    HW153092   3.673  10.974   1.692
17065SOL    HW253093   3.622  10.879   1.585
17066SOL     OW53094  14.058   2.504   1.939
17066SOL    HW153095  14.137   2.492   1.991
17066SOL    HW253096  13.987   2.470   1.995
17067SOL     OW53097  12.648   3.000  12.098
17067SOL    HW153098  12.626   2.912  12.067
17067SOL    HW253099  12.587   3.058  12.051
17068SOL     OW53100  12.100   8.344   1.260
17068SOL    HW153101  12.031   8.390   1.308
17068SOL    HW253102  12.167   8.410   1.246
17069SOL     OW53103   6.877   1.468  12.825
17069SOL    HW153104   6.841   1.468  12.914
17069SOL    HW253105   6.912   1.556  12.814
17070SOL     OW53106  10.715  12.029   0.023
17070SOL    HW153107  10.790  11.973   0.005
17070SOL    HW253108  10.752  12.116   0.033
17071SOL     OW53109   9.017   8.949   0.618
17071SOL    HW153110   9.047   8.867   0.579
17071SOL    HW253111   8.991   9.003   0.544
17072SOL     OW53112   7.459   4.283   9.819
17072SOL    HW153113   7.532   4.223   9.830
17072SOL    HW253114   7.488   4.365   9.859
17073SOL     OW53115   1.306  10.131   2.794
17073SOL    HW153116   1.362  10.066   2.752
17073SOL    HW253117   1.356  10.162   2.869
17074SOL     OW53118   4.302   0.673   5.791
17074SOL    HW153119   4.376   0.618   5.764
17074SOL    HW253120   4.227   0.638   5.743
17075SOL     OW53121   6.314   0.295  13.241
17075SOL    HW153122   6.309   0.203  13.267
17075SOL    HW253123   6.224   0.317  13.214
17076SOL     OW53124   2.541   4.870  12.735
17076SOL    HW153125   2.522   4.959  12.764
17076SOL    HW253126   2.483   4.815  12.786
17077SOL     OW53127  11.979   2.938  13.166
17077SOL    HW153128  11.903   2.955  13.111
17077SOL    HW253129  11.964   2.850  13.200
17078SOL     OW53130   0.465   7.931   1.906
17078SOL    HW153131   0.502   8.020   1.906
17078SOL    HW253132   0.401   7.932   1.977
17079SOL     OW53133   4.299   1.246   7.321
17079SOL    HW153134   4.242   1.302   7.267
17079SOL    HW253135   4.293   1.159   7.280
17080SOL     OW53136  14.099  14.495   5.042
17080SOL    HW153137  14.029  14.439   5.075
17080SOL    HW253138  14.139  14.531   5.121
17081SOL     OW53139   1.115  10.396  13.451
17081SOL    HW153140   1.150  10.322  13.401
17081SOL    HW253141   1.147  10.382  13.540
17082SOL     OW53142   7.691  14.825   8.330
17082SOL    HW153143   7.785  14.818   8.350
17082SOL    HW253144   7.648  14.773   8.397
17083SOL     OW53145   9.443  11.754   3.706
17083SOL    HW153146   9.423  11.787   3.618
17083SOL    HW253147   9.427  11.659   3.700
17084SOL     OW53148   4.942  13.331   6.429
17084SOL    HW153149   4.899  13.348   6.513
17084SOL    HW253150   5.028  13.297   6.453
17085SOL     OW53151   2.163   2.191   8.054
17085SOL    HW153152   2.255   2.184   8.079
17085SOL    HW253153   2.164   2.194   7.958
17086SOL     OW53154   0.364   4.151   2.207
17086SOL    HW153155   0.361   4.056   2.219
17086SOL    HW253156   0.286   4.171   2.155
17087SOL     OW53157  10.942   9.092   2.243
17087SOL    HW153158  10.889   9.172   2.239
17087SOL    HW253159  10.880   9.021   2.228
17088SOL     OW53160   0.995   6.248  14.292
17088SOL    HW153161   1.040   6.332  14.283
17088SOL    HW253162   1.014   6.201  14.211
17089SOL     OW53163   3.895   2.205  11.212
17089SOL    HW153164   3.882   2.147  11.137
17089SOL    HW253165   3.924   2.288  11.173
17090SOL     OW53166   0.697  13.485   4.113
17090SOL    HW153167   0.788  13.497   4.139
17090SOL    HW253168   0.653  13.564   4.144
17091SOL     OW53169   0.235   0.681  13.165
17091SOL    HW153170   0.298   0.751  13.149
17091SOL    HW253171   0.151   0.725  13.170
17092SOL     OW53172   7.484   9.786   6.951
17092SOL    HW153173   7.558   9.847   6.955
17092SOL    HW253174   7.448   9.799   6.863
17093SOL     OW53175  12.515   5.207  12.077
17093SOL    HW153176  12.510   5.137  12.141
17093SOL    HW253177  12.514   5.162  11.992
17094SOL     OW53178   2.617  11.830  12.927
17094SOL    HW153179   2.620  11.738  12.901
17094SOL    HW253180   2.523  11.849  12.935
17095SOL     OW53181  10.506   0.499  14.844
17095SOL    HW153182  10.471   0.538   0.055
17095SOL    HW253183  10.431   0.457  14.803
17096SOL     OW53184   9.590   7.247  10.561
17096SOL    HW153185   9.521   7.313  10.558
17096SOL    HW253186   9.647   7.268  10.487
17097SOL     OW53187   3.173  12.005   2.230
17097SOL    HW153188   3.170  11.910   2.246
17097SOL    HW253189   3.081  12.032   2.232
17098SOL     OW53190  11.637  13.176   0.730
17098SOL    HW153191  11.549  13.189   0.695
17098SOL    HW253192  11.695  13.218   0.667
17099SOL     OW53193  14.463   5.418   5.941
17099SOL    HW153194  14.502   5.359   5.877
17099SOL    HW253195  14.398   5.468   5.892
17100SOL     OW53196   8.575   5.682  11.656
17100SOL    HW153197   8.625   5.600  11.650
17100SOL    HW253198   8.638   5.750  11.634
17101SOL     OW53199   9.404   9.705  14.293
17101SOL    HW153200   9.427   9.628  14.346
17101SOL    HW253201   9.403   9.778  14.354
17102SOL     OW53202   1.652   2.606   6.615
17102SOL    HW153203   1.586   2.578   6.551
17102SOL    HW253204   1.630   2.698   6.632
17103SOL     OW53205  11.248   8.588  14.862
17103SOL    HW153206  11.196   8.663   0.022
17103SOL    HW253207  11.296   8.559   0.070
17104SOL     OW53208   9.986   5.400   4.197
17104SOL    HW153209  10.000   5.428   4.106
17104SOL    HW253210  10.057   5.338   4.214
17105SOL     OW53211   8.406  10.957   1.511
17105SOL    HW153212   8.410  11.024   1.443
17105SOL    HW253213   8.483  10.974   1.565
17106SOL     OW53214   5.124   4.610   6.801
17106SOL    HW153215   5.169   4.533   6.766
17106SOL    HW253216   5.177   4.684   6.771
17107SOL     OW53217  12.959   5.256   8.007
17107SOL    HW153218  12.925   5.287   8.091
17107SOL    HW253219  12.881   5.240   7.954
17108SOL     OW53220   3.794   8.647  14.783
17108SOL    HW153221   3.796   8.571  14.840
17108SOL    HW253222   3.836   8.618  14.702
17109SOL     OW53223  11.456   5.053   2.117
17109SOL    HW153224  11.405   4.978   2.084
17109SOL    HW253225  11.509   5.080   2.042
17110SOL     OW53226  11.967   8.889   1.905
17110SOL    HW153227  11.957   8.892   1.810
17110SOL    HW253228  11.997   8.977   1.929
17111SOL     OW53229   6.254  12.718   4.031
17111SOL    HW153230   6.216  12.650   3.975
17111SOL    HW253231   6.259  12.795   3.974
17112SOL     OW53232   7.941   6.999   2.153
17112SOL    HW153233   7.914   7.088   2.130
17112SOL    HW253234   8.025   7.010   2.197
17113SOL     OW53235   7.427   9.796   8.372
17113SOL    HW153236   7.454   9.869   8.428
17113SOL    HW253237   7.509   9.757   8.342
17114SOL     OW53238   7.151   6.592   9.704
17114SOL    HW153239   7.188   6.639   9.779
17114SOL    HW253240   7.226   6.582   9.645
17115SOL     OW53241   2.616   9.633   7.897
17115SOL    HW153242   2.659   9.560   7.852
17115SOL    HW253243   2.559   9.591   7.961
17116SOL     OW53244   7.011  14.170   8.087
17116SOL    HW153245   6.955  14.154   8.163
17116SOL    HW253246   7.094  14.197   8.124
17117SOL     OW53247  11.973  14.025   5.242
17117SOL    HW153248  11.987  13.932   5.227
17117SOL    HW253249  11.969  14.064   5.155
17118SOL     OW53250  10.582   2.128   8.886
17118SOL    HW153251  10.649   2.062   8.901
17118SOL    HW253252  10.522   2.088   8.823
17119SOL     OW53253   3.512  14.800   0.300
17119SOL    HW153254   3.448  14.738   0.266
17119SOL    HW253255   3.590  14.748   0.317
17120SOL     OW53256  13.631   7.656   5.476
17120SOL    HW153257  13.722   7.647   5.506
17120SOL    HW253258  13.616   7.578   5.423
17121SOL     OW53259   1.557   3.618  14.454
17121SOL    HW153260   1.522   3.698  14.415
17121SOL    HW253261   1.489   3.553  14.439
17122SOL     OW53262   8.011   9.284   6.212
17122SOL    HW153263   8.053   9.217   6.158
17122SOL    HW253264   7.952   9.235   6.269
17123SOL     OW53265   9.155   2.685   4.075
17123SOL    HW153266   9.150   2.593   4.101
17123SOL    HW253267   9.223   2.722   4.131
17124SOL     OW53268   8.640   9.061   2.712
17124SOL    HW153269   8.608   9.151   2.708
17124SOL    HW253270   8.583   9.018   2.776
17125SOL     OW53271  14.193  11.938   4.589
17125SOL    HW153272  14.232  11.865   4.638
17125SOL    HW253273  14.174  11.901   4.503
17126SOL     OW53274  11.482  14.526   9.072
17126SOL    HW153275  11.401  14.576   9.060
17126SOL    HW253276  11.549  14.579   9.030
17127SOL     OW53277  12.769   6.700   6.409
17127SOL    HW153278  12.809   6.778   6.370
17127SOL    HW253279  12.798   6.701   6.500
17128SOL     OW53280   0.950  13.554   6.263
17128SOL    HW153281   0.906  13.481   6.305
17128SOL    HW253282   0.887  13.626   6.268
17129SOL     OW53283  10.680   9.047  11.383
17129SOL    HW153284  10.699   9.140  11.370
17129SOL    HW253285  10.765   9.008  11.406
17130SOL     OW53286  10.352   2.836   3.726
17130SOL    HW153287  10.435   2.792   3.705
17130SOL    HW253288  10.375   2.895   3.797
17131SOL     OW53289  12.566  12.466   4.844
17131SOL    HW153290  12.650  12.482   4.887
17131SOL    HW253291  12.575  12.378   4.808
17132SOL     OW53292   9.022   7.854  13.938
17132SOL    HW153293   8.977   7.770  13.933
17132SOL    HW253294   9.095   7.838  13.998
17133SOL     OW53295   1.563  12.704   4.256
17133SOL    HW153296   1.654  12.715   4.286
17133SOL    HW253297   1.536  12.792   4.231
17134SOL     OW53298   0.561   3.278   5.405
17134SOL    HW153299   0.562   3.242   5.317
17134SOL    HW253300   0.636   3.237   5.449
17135SOL     OW53301  12.244   0.684   5.061
17135SOL    HW153302  12.274   0.596   5.084
17135SOL    HW253303  12.184   0.708   5.132
17136SOL     OW53304   9.732   3.111  10.361
17136SOL    HW153305   9.761   3.202  10.369
17136SOL    HW253306   9.720   3.098  10.267
17137SOL     OW53307  11.863   5.889   4.284
17137SOL    HW153308  11.833   5.797   4.285
17137SOL    HW253309  11.864   5.914   4.377
17138SOL     OW53310  14.763   6.503  11.996
17138SOL    HW153311  14.765   6.426  12.052
17138SOL    HW253312  14.853   6.534  11.995
17139SOL     OW53313  11.828   9.835   4.782
17139SOL    HW153314  11.812   9.748   4.818
17139SOL    HW253315  11.923   9.837   4.766
17140SOL     OW53316   6.578   2.500   5.642
17140SOL    HW153317   6.537   2.431   5.693
17140SOL    HW253318   6.577   2.468   5.552
17141SOL     OW53319  11.822   8.024   3.154
17141SOL    HW153320  11.783   8.108   3.176
17141SOL    HW253321  11.890   8.044   3.090
17142SOL     OW53322   4.270   4.452  13.230
17142SOL    HW153323   4.314   4.452  13.145
17142SOL    HW253324   4.206   4.382  13.224
17143SOL     OW53325   6.568   8.405   5.964
17143SOL    HW153326   6.587   8.313   5.942
17143SOL    HW253327   6.601   8.414   6.053
17144SOL     OW53328   8.860  10.410   1.708
17144SOL    HW153329   8.801  10.349   1.664
17144SOL    HW253330   8.943  10.363   1.713
17145SOL     OW53331  10.067   1.000  10.331
17145SOL    HW153332  10.039   1.081  10.288
17145SOL    HW253333  10.106   0.948  10.262
17146SOL     OW53334   4.895   1.331  12.910
17146SOL    HW153335   4.800   1.327  12.910
17146SOL    HW253336   4.922   1.290  12.828
17147SOL     OW53337   5.145   8.018  11.467
17147SOL    HW153338   5.209   8.059  11.409
17147SOL    HW253339   5.104   8.091  11.513
17148SOL     OW53340   1.867   1.190   7.664
17148SOL    HW153341   1.898   1.137   7.591
17148SOL    HW253342   1.927   1.265   7.667
17149SOL     OW53343   7.003   3.685  12.655
17149SOL    HW153344   7.001   3.713  12.747
17149SOL    HW253345   6.948   3.748  12.609
17150SOL     OW53346  11.100   7.679   2.303
17150SOL    HW153347  11.078   7.742   2.371
17150SOL    HW253348  11.016   7.646   2.273
17151SOL     OW53349   7.677   2.741   8.075
17151SOL    HW153350   7.616   2.724   8.003
17151SOL    HW253351   7.763   2.745   8.033
17152SOL     OW53352  10.529   6.822  11.054
17152SOL    HW153353  10.437   6.804  11.071
17152SOL    HW253354  10.537   6.811  10.959
17153SOL     OW53355   9.573  11.473  10.684
17153SOL    HW153356   9.647  11.534  10.684
17153SOL    HW253357   9.563  11.448  10.776
17154SOL     OW53358  12.899   7.816   7.144
17154SOL    HW153359  12.837   7.759   7.100
17154SOL    HW253360  12.975   7.819   7.086
17155SOL     OW53361   0.793   7.927  13.305
17155SOL    HW153362   0.714   7.875  13.288
17155SOL    HW253363   0.774   7.974  13.386
17156SOL     OW53364   9.512  11.426   2.300
17156SOL    HW153365   9.520  11.470   2.215
17156SOL    HW253366   9.419  11.410   2.311
17157SOL     OW53367  14.179   8.353  10.237
17157SOL    HW153368  14.256   8.369  10.183
17157SOL    HW253369  14.129   8.435  10.232
17158SOL     OW53370  14.811  11.686   0.913
17158SOL    HW153371  14.743  11.705   0.847
17158SOL    HW253372  14.826  11.770   0.956
17159SOL     OW53373  12.044  10.611   4.627
17159SOL    HW153374  11.960  10.582   4.592
17159SOL    HW253375  12.034  10.604   4.722
17160SOL     OW53376   1.770  11.434  10.416
17160SOL    HW153377   1.753  11.394  10.502
17160SOL    HW253378   1.866  11.439  10.412
17161SOL     OW53379   1.613   2.796   5.400
17161SOL    HW153380   1.616   2.700   5.409
17161SOL    HW253381   1.553   2.811   5.327
17162SOL     OW53382   0.165   8.498  13.596
17162SOL    HW153383   0.100   8.481  13.664
17162SOL    HW253384   0.114   8.522  13.519
17163SOL     OW53385   8.775   7.748   3.381
17163SOL    HW153386   8.804   7.748   3.473
17163SOL    HW253387   8.799   7.661   3.349
17164SOL     OW53388   7.991   3.976   6.496
17164SOL    HW153389   7.902   3.970   6.531
17164SOL    HW253390   7.984   3.939   6.407
17165SOL     OW53391  13.174   1.041   3.895
17165SOL    HW153392  13.181   1.017   3.803
17165SOL    HW253393  13.093   0.999   3.924
17166SOL     OW53394   6.882   0.172  11.365
17166SOL    HW153395   6.872   0.249  11.308
17166SOL    HW253396   6.969   0.182  11.404
17167SOL     OW53397   9.222   0.280   5.623
17167SOL    HW153398   9.175   0.258   5.543
17167SOL    HW253399   9.206   0.205   5.681
17168SOL     OW53400  14.219   2.881  13.303
17168SOL    HW153401  14.168   2.947  13.350
17168SOL    HW253402  14.156   2.812  13.283
17169SOL     OW53403  14.823   8.594  11.951
17169SOL    HW153404  14.757   8.526  11.939
17169SOL    HW253405  14.778   8.662  12.002
17170SOL     OW53406  10.498   5.957   2.908
17170SOL    HW153407  10.447   5.996   2.837
17170SOL    HW253408  10.589   5.962   2.877
17171SOL     OW53409   3.750  14.167   5.767
17171SOL    HW153410   3.702  14.085   5.772
17171SOL    HW253411   3.804  14.169   5.846
17172SOL     OW53412  11.245   5.122   4.098
17172SOL    HW153413  11.315   5.069   4.059
17172SOL    HW253414  11.216   5.070   4.173
17173SOL     OW53415   8.534   6.991   4.654
17173SOL    HW153416   8.514   6.899   4.671
17173SOL    HW253417   8.493   7.039   4.726
17174SOL     OW53418   1.186  13.406   0.978
17174SOL    HW153419   1.245  13.408   1.054
17174SOL    HW253420   1.139  13.323   0.987
17175SOL     OW53421  14.044   7.079   5.594
17175SOL    HW153422  13.981   7.102   5.526
17175SOL    HW253423  13.992   7.073   5.674
17176SOL     OW53424  13.290   6.111  13.278
17176SOL    HW153425  13.218   6.073  13.228
17176SOL    HW253426  13.338   6.163  13.214
17177SOL     OW53427  10.093   6.508  14.753
17177SOL    HW153428  10.166   6.525  14.694
17177SOL    HW253429  10.053   6.594  14.766
17178SOL     OW53430   1.705   8.025   9.769
17178SOL    HW153431   1.711   7.932   9.748
17178SOL    HW253432   1.792   8.049   9.802
17179SOL     OW53433   3.977   1.394   5.327
17179SOL    HW153434   4.036   1.458   5.366
17179SOL    HW253435   3.999   1.393   5.234
17180SOL     OW53436   7.493   7.074  14.002
17180SOL    HW153437   7.570   7.017  13.990
17180SOL    HW253438   7.483   7.119  13.919
17181SOL     OW53439   5.812   7.985  12.504
17181SOL    HW153440   5.855   7.970  12.420
17181SOL    HW253441   5.745   8.051  12.486
17182SOL     OW53442  10.983   7.267  12.074
17182SOL    HW153443  10.950   7.326  12.141
17182SOL    HW253444  10.998   7.323  11.997
17183SOL     OW53445  11.438   8.654  11.450
17183SOL    HW153446  11.488   8.574  11.467
17183SOL    HW253447  11.450   8.707  11.528
17184SOL     OW53448   2.569  13.001   6.200
17184SOL    HW153449   2.634  12.930   6.202
17184SOL    HW253450   2.543  13.006   6.108
17185SOL     OW53451   2.125  13.357  12.454
17185SOL    HW153452   2.209  13.337  12.496
17185SOL    HW253453   2.067  13.377  12.527
17186SOL     OW53454   5.080   1.854  13.592
17186SOL    HW153455   5.001   1.799  13.590
17186SOL    HW253456   5.089   1.880  13.683
17187SOL     OW53457   9.886  12.666   2.723
17187SOL    HW153458   9.932  12.652   2.806
17187SOL    HW253459   9.857  12.579   2.697
17188SOL     OW53460  11.937  12.434   5.327
17188SOL    HW153461  12.016  12.447   5.380
17188SOL    HW253462  11.943  12.343   5.298
17189SOL     OW53463   6.713   3.630   0.721
17189SOL    HW153464   6.636   3.686   0.729
17189SOL    HW253465   6.762   3.668   0.648
17190SOL     OW53466  13.136   6.758   2.758
17190SOL    HW153467  13.076   6.685   2.774
17190SOL    HW253468  13.080   6.832   2.738
17191SOL     OW53469  13.667  11.718   2.662
17191SOL    HW153470  13.688  11.718   2.755
17191SOL    HW253471  13.587  11.665   2.655
17192SOL     OW53472   8.025  13.468   2.232
17192SOL    HW153473   7.962  13.470   2.160
17192SOL    HW253474   7.971  13.469   2.311
17193SOL     OW53475  12.452   1.238   8.405
17193SOL    HW153476  12.374   1.293   8.417
17193SOL    HW253477  12.494   1.237   8.491
17194SOL     OW53478   3.492   2.226   4.491
17194SOL    HW153479   3.518   2.312   4.457
17194SOL    HW253480   3.525   2.164   4.426
17195SOL     OW53481   8.194  13.815  11.232
17195SOL    HW153482   8.271  13.760  11.246
17195SOL    HW253483   8.125  13.754  11.204
17196SOL     OW53484  13.642   3.073   3.757
17196SOL    HW153485  13.729   3.072   3.797
17196SOL    HW253486  13.581   3.066   3.830
17197SOL     OW53487   3.694  13.429   2.798
17197SOL    HW153488   3.688  13.334   2.806
17197SOL    HW253489   3.661  13.463   2.881
17198SOL     OW53490  12.173   5.225   1.941
17198SOL    HW153491  12.256   5.271   1.955
17198SOL    HW253492  12.107   5.285   1.976
17199SOL     OW53493   4.010   3.000   0.531
17199SOL    HW153494   3.965   3.066   0.584
17199SOL    HW253495   3.970   2.917   0.559
17200SOL     OW53496  14.018  11.439   2.096
17200SOL    HW153497  13.974  11.494   2.031
17200SOL    HW253498  13.946  11.398   2.145
17201SOL     OW53499  13.256  11.457  11.766
17201SOL    HW153500  13.327  11.422  11.820
17201SOL    HW253501  13.267  11.413  11.682
17202SOL     OW53502  12.978   1.297   3.006
17202SOL    HW153503  12.971   1.207   3.038
17202SOL    HW253504  12.970   1.289   2.911
17203SOL     OW53505   0.430  14.286  12.587
17203SOL    HW153506   0.366  14.235  12.537
17203SOL    HW253507   0.379  14.331  12.653
17204SOL     OW53508  12.608   9.082  13.377
17204SOL    HW153509  12.651   9.000  13.351
17204SOL    HW253510  12.680   9.138  13.405
17205SOL     OW53511   1.962  12.921  10.096
17205SOL    HW153512   1.955  12.934  10.001
17205SOL    HW253513   2.034  12.977  10.123
17206SOL     OW53514   1.321   9.284  13.440
17206SOL    HW153515   1.329   9.215  13.505
17206SOL    HW253516   1.259   9.250  13.376
17207SOL     OW53517   5.611   1.350   8.085
17207SOL    HW153518   5.555   1.363   8.162
17207SOL    HW253519   5.576   1.272   8.043
17208SOL     OW53520   7.528  14.205  14.237
17208SOL    HW153521   7.476  14.272  14.280
17208SOL    HW253522   7.618  14.223  14.265
17209SOL     OW53523   0.009   4.072  10.899
17209SOL    HW153524   0.077   4.090  10.834
17209SOL    HW253525   0.017   4.144  10.962
17210SOL     OW53526   7.405  14.327   7.720
17210SOL    HW153527   7.377  14.373   7.640
17210SOL    HW253528   7.500  14.323   7.714
17211SOL     OW53529   6.123   6.216   3.680
17211SOL    HW153530   6.097   6.300   3.716
17211SOL    HW253531   6.090   6.152   3.743
17212SOL     OW53532   6.656   3.976   9.837
17212SOL    HW153533   6.594   4.048   9.840
17212SOL    HW253534   6.603   3.898   9.819
17213SOL     OW53535  13.687  11.200  13.095
17213SOL    HW153536  13.687  11.295  13.112
17213SOL    HW253537  13.709  11.193  13.002
17214SOL     OW53538   5.664  11.398  11.334
17214SOL    HW153539   5.631  11.308  11.337
17214SOL    HW253540   5.727  11.399  11.262
17215SOL     OW53541   5.657   1.533  10.427
17215SOL    HW153542   5.675   1.456  10.372
17215SOL    HW253543   5.639   1.603  10.365
17216SOL     OW53544   7.442   7.283   1.757
17216SOL    HW153545   7.453   7.241   1.842
17216SOL    HW253546   7.430   7.211   1.696
17217SOL     OW53547   9.049   0.097   1.408
17217SOL    HW153548   9.009   0.182   1.428
17217SOL    HW253549   9.047   0.050   1.491
17218SOL     OW53550   8.410  10.941  11.605
17218SOL    HW153551   8.319  10.950  11.576
17218SOL    HW253552   8.440  10.859  11.566
17219SOL     OW53553   8.942   2.595   5.693
17219SOL    HW153554   8.944   2.620   5.786
17219SOL    HW253555   8.857   2.553   5.682
17220SOL     OW53556   9.160   8.757  11.952
17220SOL    HW153557   9.164   8.831  12.012
17220SOL    HW253558   9.167   8.796  11.865
17221SOL     OW53559  12.842   1.621   7.308
17221SOL    HW153560  12.874   1.531   7.312
17221SOL    HW253561  12.905   1.670   7.361
17222SOL     OW53562   0.407   3.489  12.340
17222SOL    HW153563   0.408   3.584  12.353
17222SOL    HW253564   0.492   3.459  12.372
17223SOL     OW53565   5.212   3.120   6.688
17223SOL    HW153566   5.182   3.036   6.653
17223SOL    HW253567   5.304   3.106   6.709
17224SOL     OW53568   9.846   4.277   1.016
17224SOL    HW153569   9.858   4.211   1.084
17224SOL    HW253570   9.892   4.354   1.050
17225SOL     OW53571   8.751   1.224   3.227
17225SOL    HW153572   8.792   1.211   3.313
17225SOL    HW253573   8.760   1.139   3.184
17226SOL     OW53574   5.608   1.477   8.500
17226SOL    HW153575   5.582   1.473   8.592
17226SOL    HW253576   5.561   1.552   8.465
17227SOL     OW53577  13.639   0.363  10.898
17227SOL    HW153578  13.555   0.405  10.917
17227SOL    HW253579  13.640   0.285  10.954
17228SOL     OW53580   7.440   6.858   4.890
17228SOL    HW153581   7.441   6.912   4.969
17228SOL    HW253582   7.476   6.774   4.918
17229SOL     OW53583   0.251   4.198   9.670
17229SOL    HW153584   0.204   4.131   9.619
17229SOL    HW253585   0.246   4.277   9.617
17230SOL     OW53586  13.329  11.340  14.517
17230SOL    HW153587  13.239  11.309  14.520
17230SOL    HW253588  13.328  11.408  14.449
17231SOL     OW53589   0.595   3.487  13.798
17231SOL    HW153590   0.615   3.411  13.742
17231SOL    HW253591   0.666   3.488  13.862
17232SOL     OW53592   7.244  11.710   7.166
17232SOL    HW153593   7.328  11.670   7.143
17232SOL    HW253594   7.245  11.713   7.262
17233SOL     OW53595  12.817   6.026  12.016
17233SOL    HW153596  12.874   6.050  11.944
17233SOL    HW253597  12.858   6.064  12.094
17234SOL     OW53598  12.447   3.304   1.303
17234SOL    HW153599  12.537   3.273   1.312
17234SOL    HW253600  12.421   3.275   1.215
17235SOL     OW53601   1.354   2.074  13.869
17235SOL    HW153602   1.410   2.118  13.804
17235SOL    HW253603   1.400   1.992  13.888
17236SOL     OW53604   8.002   3.540   6.682
17236SOL    HW153605   7.934   3.595   6.643
17236SOL    HW253606   7.992   3.455   6.639
17237SOL     OW53607   9.237   8.835  14.140
17237SOL    HW153608   9.218   8.805  14.229
17237SOL    HW253609   9.151   8.862  14.105
17238SOL     OW53610  11.961  12.271   3.688
17238SOL    HW153611  11.962  12.229   3.602
17238SOL    HW253612  11.874  12.311   3.693
17239SOL     OW53613   8.379  14.200  10.473
17239SOL    HW153614   8.393  14.117  10.428
17239SOL    HW253615   8.284  14.211  10.476
17240SOL     OW53616   3.262   8.667   3.946
17240SOL    HW153617   3.263   8.733   4.015
17240SOL    HW253618   3.355   8.648   3.930
17241SOL     OW53619  11.010   7.005  11.977
17241SOL    HW153620  10.921   6.983  12.005
17241SOL    HW253621  11.029   7.088  12.021
17242SOL     OW53622   4.351   1.077   5.055
17242SOL    HW153623   4.428   1.062   5.000
17242SOL    HW253624   4.383   1.065   5.145
17243SOL     OW53625   3.413   8.607   8.491
17243SOL    HW153626   3.494   8.625   8.538
17243SOL    HW253627   3.419   8.514   8.468
17244SOL     OW53628   9.531   5.234  11.706
17244SOL    HW153629   9.549   5.202  11.617
17244SOL    HW253630   9.618   5.246  11.744
17245SOL     OW53631   8.954   7.542   2.541
17245SOL    HW153632   9.015   7.608   2.508
17245SOL    HW253633   8.892   7.591   2.596
17246SOL     OW53634   4.053   4.599  13.409
17246SOL    HW153635   4.114   4.622  13.339
17246SOL    HW253636   4.052   4.503  13.408
17247SOL     OW53637   4.591   8.983  13.621
17247SOL    HW153638   4.615   9.057  13.565
17247SOL    HW253639   4.639   8.998  13.702
17248SOL     OW53640  14.330   4.163   2.735
17248SOL    HW153641  14.319   4.160   2.640
17248SOL    HW253642  14.309   4.254   2.758
17249SOL     OW53643   5.141   5.339   9.546
17249SOL    HW153644   5.154   5.254   9.588
17249SOL    HW253645   5.171   5.403   9.612
17250SOL     OW53646  14.154   3.149  12.622
17250SOL    HW153647  14.088   3.089  12.657
17250SOL    HW253648  14.103   3.213  12.571
17251SOL     OW53649   3.843   9.073   4.596
17251SOL    HW153650   3.825   9.077   4.690
17251SOL    HW253651   3.784   9.006   4.562
17252SOL     OW53652  12.069   2.784   2.916
17252SOL    HW153653  12.001   2.792   2.984
17252SOL    HW253654  12.042   2.708   2.865
17253SOL     OW53655   0.572   4.101  14.049
17253SOL    HW153656   0.635   4.079  14.117
17253SOL    HW253657   0.495   4.132  14.096
17254SOL     OW53658  10.738   3.265   7.386
17254SOL    HW153659  10.800   3.193   7.374
17254SOL    HW253660  10.714   3.290   7.297
17255SOL     OW53661   4.073   9.387  12.308
17255SOL    HW153662   3.999   9.391  12.368
17255SOL    HW253663   4.077   9.474  12.269
17256SOL     OW53664   3.543   1.144   0.483
17256SOL    HW153665   3.553   1.237   0.505
17256SOL    HW253666   3.505   1.105   0.562
17257SOL     OW53667   0.003   0.387  11.064
17257SOL    HW153668  14.867   0.438  11.146
17257SOL    HW253669   0.064   0.437  11.010
17258SOL     OW53670   1.544  14.332   2.293
17258SOL    HW153671   1.564  14.420   2.325
17258SOL    HW253672   1.457  14.339   2.253
17259SOL     OW53673   5.866   8.455   8.713
17259SOL    HW153674   5.944   8.510   8.719
17259SOL    HW253675   5.891   8.383   8.656
17260SOL     OW53676   2.106   7.707  14.312
17260SOL    HW153677   2.059   7.628  14.340
17260SOL    HW253678   2.124   7.754  14.394
17261SOL     OW53679   0.983   7.791  13.162
17261SOL    HW153680   0.926   7.716  13.145
17261SOL    HW253681   0.934   7.845  13.223
17262SOL     OW53682   4.806   3.294   4.819
17262SOL    HW153683   4.862   3.218   4.833
17262SOL    HW253684   4.742   3.266   4.754
17263SOL     OW53685   6.292   0.524   2.459
17263SOL    HW153686   6.335   0.499   2.541
17263SOL    HW253687   6.360   0.513   2.393
17264SOL     OW53688  14.538   4.214  11.623
17264SOL    HW153689  14.555   4.126  11.589
17264SOL    HW253690  14.625   4.252  11.636
17265SOL     OW53691  14.618  11.645  11.982
17265SOL    HW153692  14.665  11.601  11.911
17265SOL    HW253693  14.686  11.672  12.043
17266SOL     OW53694   2.437   1.615  10.197
17266SOL    HW153695   2.418   1.555  10.269
17266SOL    HW253696   2.392   1.696  10.222
17267SOL     OW53697   8.481  13.345   4.791
17267SOL    HW153698   8.454  13.363   4.881
17267SOL    HW253699   8.570  13.380   4.785
17268SOL     OW53700  11.694   6.894  10.421
17268SOL    HW153701  11.694   6.919  10.329
17268SOL    HW253702  11.701   6.977  10.469
17269SOL     OW53703  14.564  12.516   6.672
17269SOL    HW153704  14.530  12.590   6.622
17269SOL    HW253705  14.656  12.537   6.688
17270SOL     OW53706   0.827  11.135  12.705
17270SOL    HW153707   0.738  11.129  12.739
17270SOL    HW253708   0.880  11.161  12.781
17271SOL     OW53709   1.620   1.057   0.799
17271SOL    HW153710   1.589   0.969   0.778
17271SOL    HW253711   1.715   1.048   0.806
17272SOL     OW53712   9.896  14.222  11.521
17272SOL    HW153713   9.804  14.241  11.541
17272SOL    HW253714   9.917  14.280  11.448
17273SOL     OW53715   2.686  11.040  11.756
17273SOL    HW153716   2.591  11.041  11.742
17273SOL    HW253717   2.710  11.133  11.764
17274SOL     OW53718   5.088   3.275  14.510
17274SOL    HW153719   5.017   3.331  14.540
17274SOL    HW253720   5.090   3.203  14.574
17275SOL     OW53721  11.995   5.027  11.880
17275SOL    HW153722  11.918   5.024  11.824
17275SOL    HW253723  12.069   5.025  11.819
17276SOL     OW53724   9.509   8.825  11.479
17276SOL    HW153725   9.429   8.828  11.531
17276SOL    HW253726   9.558   8.903  11.505
17277SOL     OW53727   7.181   7.619  14.505
17277SOL    HW153728   7.091   7.640  14.527
17277SOL    HW253729   7.175   7.541  14.451
17278SOL     OW53730   2.511   4.565   7.546
17278SOL    HW153731   2.595   4.539   7.584
17278SOL    HW253732   2.528   4.653   7.511
17279SOL     OW53733   0.469   0.149  12.736
17279SOL    HW153734   0.459   0.054  12.730
17279SOL    HW253735   0.413   0.175  12.809
17280SOL     OW53736   0.548   4.989   1.186
17280SOL    HW153737   0.606   4.956   1.254
17280SOL    HW253738   0.465   5.004   1.231
17281SOL     OW53739   8.238   7.644   1.995
17281SOL    HW153740   8.267   7.585   2.065
17281SOL    HW253741   8.314   7.651   1.937
17282SOL     OW53742   5.791   4.266   0.834
17282SOL    HW153743   5.806   4.177   0.866
17282SOL    HW253744   5.738   4.307   0.901
17283SOL     OW53745  10.786   6.747   8.300
17283SOL    HW153746  10.881   6.741   8.296
17283SOL    HW253747  10.766   6.836   8.271
17284SOL     OW53748   0.516   7.524  14.803
17284SOL    HW153749   0.435   7.494  14.845
17284SOL    HW253750   0.506   7.500  14.711
17285SOL     OW53751   0.440   3.414   7.532
17285SOL    HW153752   0.479   3.480   7.475
17285SOL    HW253753   0.375   3.370   7.476
17286SOL     OW53754  12.390   3.406  11.791
17286SOL    HW153755  12.467   3.453  11.823
17286SOL    HW253756  12.323   3.473  11.781
17287SOL     OW53757   6.817  13.747   6.503
17287SOL    HW153758   6.774  13.751   6.418
17287SOL    HW253759   6.892  13.806   6.495
17288SOL     OW53760   5.198   1.905  13.196
17288SOL    HW153761   5.115   1.887  13.240
17288SOL    HW253762   5.188   1.863  13.110
17289SOL     OW53763   8.091   1.657   6.334
17289SOL    HW153764   8.093   1.739   6.286
17289SOL    HW253765   8.124   1.679   6.421
17290SOL     OW53766   5.402   4.433  11.701
17290SOL    HW153767   5.417   4.446  11.794
17290SOL    HW253768   5.489   4.415  11.665
17291SOL     OW53769   3.839  11.884  12.409
17291SOL    HW153770   3.904  11.926  12.466
17291SOL    HW253771   3.852  11.790  12.422
17292SOL     OW53772   1.333   5.599   1.360
17292SOL    HW153773   1.265   5.542   1.396
17292SOL    HW253774   1.354   5.659   1.431
17293SOL     OW53775   8.643   7.589   2.228
17293SOL    HW153776   8.626   7.646   2.303
17293SOL    HW253777   8.731   7.556   2.243
17294SOL     OW53778   4.294  10.833   7.413
17294SOL    HW153779   4.231  10.773   7.372
17294SOL    HW253780   4.350  10.776   7.466
17295SOL     OW53781  14.503   3.496   6.827
17295SOL    HW153782  14.427   3.552   6.839
17295SOL    HW253783  14.568   3.529   6.890
17296SOL     OW53784   2.955   1.820   9.226
17296SOL    HW153785   2.965   1.866   9.143
17296SOL    HW253786   2.999   1.877   9.290
17297SOL     OW53787   8.483   1.053  10.093
17297SOL    HW153788   8.533   0.974  10.075
17297SOL    HW253789   8.549   1.116  10.123
17298SOL     OW53790   2.729   8.334   1.888
17298SOL    HW153791   2.655   8.377   1.846
17298SOL    HW253792   2.698   8.245   1.906
17299SOL     OW53793  10.613   0.232   5.233
17299SOL    HW153794  10.620   0.141   5.262
17299SOL    HW253795  10.648   0.283   5.306
17300SOL     OW53796   9.628   6.777  14.157
17300SOL    HW153797   9.654   6.836  14.227
17300SOL    HW253798   9.639   6.829  14.077
17301SOL     OW53799   8.088   3.274   4.035
17301SOL    HW153800   8.120   3.255   4.124
17301SOL    HW253801   7.993   3.262   4.041
17302SOL     OW53802   7.356   5.093   0.942
17302SOL    HW153803   7.329   5.153   1.011
17302SOL    HW253804   7.425   5.140   0.895
17303SOL     OW53805  10.976   1.179  12.926
17303SOL    HW153806  11.000   1.270  12.943
17303SOL    HW253807  10.920   1.183  12.849
17304SOL     OW53808   7.095   5.379   5.572
17304SOL    HW153809   7.153   5.304   5.588
17304SOL    HW253810   7.017   5.340   5.532
17305SOL     OW53811   9.740  14.507   0.166
17305SOL    HW153812   9.803  14.559   0.215
17305SOL    HW253813   9.656  14.525   0.209
17306SOL     OW53814   6.877  12.048   6.352
17306SOL    HW153815   6.939  12.022   6.420
17306SOL    HW253816   6.796  12.068   6.400
17307SOL     OW53817   8.308   7.336   2.588
17307SOL    HW153818   8.268   7.256   2.623
17307SOL    HW253819   8.385   7.350   2.644
17308SOL     OW53820   3.622   1.994   6.628
17308SOL    HW153821   3.549   1.941   6.597
17308SOL    HW253822   3.694   1.976   6.567
17309SOL     OW53823   3.726   0.399   0.001
17309SOL    HW153824   3.641   0.415   0.043
17309SOL    HW253825   3.704   0.377  14.780
17310SOL     OW53826   5.317  10.542   3.033
17310SOL    HW153827   5.313  10.539   3.129
17310SOL    HW253828   5.284  10.456   3.005
17311SOL     OW53829  10.522   8.020  14.209
17311SOL    HW153830  10.591   8.051  14.151
17311SOL    HW253831  10.569   7.976  14.280
17312SOL     OW53832   6.305  11.257   0.342
17312SOL    HW153833   6.238  11.220   0.400
17312SOL    HW253834   6.373  11.289   0.402
17313SOL     OW53835  10.369   7.255   5.418
17313SOL    HW153836  10.321   7.256   5.501
17313SOL    HW253837  10.348   7.338   5.377
17314SOL     OW53838   6.876  13.663   0.158
17314SOL    HW153839   6.835  13.592   0.108
17314SOL    HW253840   6.919  13.619   0.231
17315SOL     OW53841   2.753   0.708   9.423
17315SOL    HW153842   2.837   0.754   9.411
17315SOL    HW253843   2.694   0.751   9.362
17316SOL     OW53844  12.723   9.204   5.660
17316SOL    HW153845  12.800   9.260   5.648
17316SOL    HW253846  12.691   9.226   5.747
17317SOL     OW53847  11.338  13.784  13.173
17317SOL    HW153848  11.425  13.793  13.213
17317SOL    HW253849  11.286  13.737  13.238
17318SOL     OW53850  11.198   1.895   8.576
17318SOL    HW153851  11.149   1.825   8.619
17318SOL    HW253852  11.143   1.921   8.502
17319SOL     OW53853  10.977   8.215   3.458
17319SOL    HW153854  10.896   8.266   3.455
17319SOL    HW253855  11.010   8.217   3.368
17320SOL     OW53856   4.150  10.957  14.852
17320SOL    HW153857   4.103  10.917  14.779
17320SOL    HW253858   4.137  10.897   0.056
17321SOL     OW53859  11.255   8.578   4.971
17321SOL    HW153860  11.297   8.514   4.913
17321SOL    HW253861  11.312   8.582   5.048
17322SOL     OW53862   4.537  11.347  13.969
17322SOL    HW153863   4.465  11.304  14.015
17322SOL    HW253864   4.605  11.358  14.036
17323SOL     OW53865   5.011  13.081  10.876
17323SOL    HW153866   5.010  13.051  10.967
17323SOL    HW253867   5.104  13.087  10.854
17324SOL     OW53868   8.875   3.170   5.460
17324SOL    HW153869   8.966   3.147   5.439
17324SOL    HW253870   8.857   3.248   5.407
17325SOL     OW53871  10.039  14.118   1.555
17325SOL    HW153872  10.029  14.059   1.630
17325SOL    HW253873  10.071  14.200   1.592
17326SOL     OW53874   2.407   5.647   9.668
17326SOL    HW153875   2.332   5.590   9.688
17326SOL    HW253876   2.399   5.666   9.575
17327SOL     OW53877   3.700   9.918   6.252
17327SOL    HW153878   3.760   9.935   6.180
17327SOL    HW253879   3.745   9.951   6.329
17328SOL     OW53880   1.702   8.321  11.007
17328SOL    HW153881   1.682   8.332  10.914
17328SOL    HW253882   1.797   8.314  11.010
17329SOL     OW53883   3.856   6.499  13.618
17329SOL    HW153884   3.766   6.483  13.593
17329SOL    HW253885   3.905   6.499  13.536
17330SOL     OW53886   4.223  10.608  12.476
17330SOL    HW153887   4.174  10.528  12.461
17330SOL    HW253888   4.160  10.668  12.515
17331SOL     OW53889   4.543   6.572   7.247
17331SOL    HW153890   4.583   6.485   7.255
17331SOL    HW253891   4.578   6.621   7.320
17332SOL     OW53892   9.128   7.182  11.857
17332SOL    HW153893   9.034   7.177  11.840
17332SOL    HW253894   9.165   7.219  11.776
17333SOL     OW53895  13.032  12.007   2.590
17333SOL    HW153896  13.112  11.961   2.564
17333SOL    HW253897  12.973  11.998   2.516
17334SOL     OW53898   6.017   3.427  13.031
17334SOL    HW153899   6.021   3.451  13.124
17334SOL    HW253900   6.090   3.475  12.992
17335SOL     OW53901   5.443   0.790   2.304
17335SOL    HW153902   5.521   0.735   2.302
17335SOL    HW253903   5.406   0.776   2.391
17336SOL     OW53904  12.120  10.264  10.668
17336SOL    HW153905  12.166  10.325  10.725
17336SOL    HW253906  12.050  10.315  10.629
17337SOL     OW53907   4.597  13.747   4.263
17337SOL    HW153908   4.612  13.840   4.278
17337SOL    HW253909   4.612  13.706   4.349
17338SOL     OW53910   8.994   1.534  11.154
17338SOL    HW153911   8.945   1.511  11.233
17338SOL    HW253912   8.931   1.524  11.083
17339SOL     OW53913   1.524  12.250  12.574
17339SOL    HW153914   1.615  12.258  12.603
17339SOL    HW253915   1.498  12.339  12.550
17340SOL     OW53916   3.213  11.816  13.369
17340SOL    HW153917   3.267  11.883  13.410
17340SOL    HW253918   3.250  11.733  13.398
17341SOL     OW53919  14.064   7.993   6.480
17341SOL    HW153920  14.100   7.915   6.523
17341SOL    HW253921  14.009   8.034   6.546
17342SOL     OW53922   6.344   6.172   3.925
17342SOL    HW153923   6.362   6.190   3.832
17342SOL    HW253924   6.265   6.119   3.924
17343SOL     OW53925   8.694   8.567  11.595
17343SOL    HW153926   8.693   8.497  11.530
17343SOL    HW253927   8.604   8.600  11.597
17344SOL     OW53928  12.364   3.243   0.407
17344SOL    HW153929  12.388   3.157   0.443
17344SOL    HW253930  12.426   3.304   0.447
17345SOL     OW53931  13.683   9.862  12.932
17345SOL    HW153932  13.684   9.911  13.014
17345SOL    HW253933  13.739   9.787  12.948
17346SOL     OW53934  12.786  12.542   6.983
17346SOL    HW153935  12.830  12.499   6.911
17346SOL    HW253936  12.847  12.609   7.014
17347SOL     OW53937  13.266   9.228  13.073
17347SOL    HW153938  13.255   9.279  13.154
17347SOL    HW253939  13.179   9.227  13.034
17348SOL     OW53940   3.678   3.870   0.525
17348SOL    HW153941   3.753   3.828   0.567
17348SOL    HW253942   3.715   3.911   0.447
17349SOL     OW53943   8.045   5.443   2.820
17349SOL    HW153944   8.019   5.500   2.892
17349SOL    HW253945   8.075   5.362   2.861
17350SOL     OW53946   1.208   4.249   3.018
17350SOL    HW153947   1.233   4.339   3.002
17350SOL    HW253948   1.245   4.199   2.945
17351SOL     OW53949   9.055   8.584   8.473
17351SOL    HW153950   9.143   8.554   8.453
17351SOL    HW253951   9.051   8.674   8.441
17352SOL     OW53952   4.686  12.832   3.430
17352SOL    HW153953   4.734  12.806   3.508
17352SOL    HW253954   4.594  12.832   3.457
17353SOL     OW53955   0.905   0.531   2.278
17353SOL    HW153956   0.910   0.607   2.336
17353SOL    HW253957   0.815   0.500   2.287
17354SOL     OW53958  12.919   9.671   8.290
17354SOL    HW153959  12.832   9.633   8.300
17354SOL    HW253960  12.960   9.619   8.220
17355SOL     OW53961   7.485  14.164   8.935
17355SOL    HW153962   7.496  14.256   8.962
17355SOL    HW253963   7.390  14.152   8.932
17356SOL     OW53964   6.072  10.657  11.356
17356SOL    HW153965   6.119  10.605  11.291
17356SOL    HW253966   6.140  10.691  11.414
17357SOL     OW53967  11.367   3.304  13.502
17357SOL    HW153968  11.408   3.230  13.546
17357SOL    HW253969  11.335   3.359  13.573
17358SOL     OW53970  13.432   8.898   1.398
17358SOL    HW153971  13.516   8.880   1.441
17358SOL    HW253972  13.368   8.848   1.449
17359SOL     OW53973  13.565   2.850   6.279
17359SOL    HW153974  13.495   2.858   6.343
17359SOL    HW253975  13.551   2.764   6.238
17360SOL     OW53976   8.554   6.435  11.753
17360SOL    HW153977   8.546   6.484  11.834
17360SOL    HW253978   8.525   6.495  11.685
17361SOL     OW53979  12.434   0.824   2.667
17361SOL    HW153980  12.461   0.732   2.662
17361SOL    HW253981  12.343   0.821   2.696
17362SOL     OW53982   4.641   6.604  13.457
17362SOL    HW153983   4.716   6.546  13.470
17362SOL    HW253984   4.679   6.692  13.459
17363SOL     OW53985   8.514   3.015   8.556
17363SOL    HW153986   8.498   3.098   8.601
17363SOL    HW253987   8.429   2.991   8.519
17364SOL     OW53988   2.225  10.927  10.271
17364SOL    HW153989   2.270  10.930  10.187
17364SOL    HW253990   2.288  10.887  10.331
17365SOL     OW53991   4.301  11.136   6.782
17365SOL    HW153992   4.325  11.043   6.790
17365SOL    HW253993   4.272  11.160   6.870
17366SOL     OW53994   6.521  11.761   5.914
17366SOL    HW153995   6.481  11.848   5.907
17366SOL    HW253996   6.517  11.741   6.008
17367SOL     OW53997   9.395   2.787   9.974
17367SOL    HW153998   9.434   2.817  10.056
17367SOL    HW253999   9.461   2.728   9.937
17368SOL     OW54000  13.999  12.602   7.260
17368SOL    HW154001  14.009  12.567   7.172
17368SOL    HW254002  13.950  12.683   7.249
17369SOL     OW54003  11.313   3.099  11.644
17369SOL    HW154004  11.296   3.127  11.734
17369SOL    HW254005  11.243   3.037  11.624
17370SOL     OW54006   6.712   0.923   4.473
17370SOL    HW154007   6.631   0.881   4.500
17370SOL    HW254008   6.771   0.850   4.452
17371SOL     OW54009  13.156  10.272   5.569
17371SOL    HW154010  13.118  10.235   5.489
17371SOL    HW254011  13.205  10.348   5.538
17372SOL     OW54012   2.725   7.050  13.033
17372SOL    HW154013   2.694   7.007  13.113
17372SOL    HW254014   2.800   7.103  13.061
17373SOL     OW54015  11.209  12.796   0.970
17373SOL    HW154016  11.173  12.749   0.895
17373SOL    HW254017  11.150  12.774   1.042
17374SOL     OW54018   8.547   7.029   0.336
17374SOL    HW154019   8.533   6.973   0.412
17374SOL    HW254020   8.642   7.027   0.322
17375SOL     OW54021   9.265  13.866   7.541
17375SOL    HW154022   9.188  13.868   7.598
17375SOL    HW254023   9.292  13.774   7.541
17376SOL     OW54024   2.293   4.981  13.474
17376SOL    HW154025   2.327   4.949  13.390
17376SOL    HW254026   2.210   5.024  13.452
17377SOL     OW54027   0.657   6.726  14.201
17377SOL    HW154028   0.747   6.720  14.232
17377SOL    HW254029   0.646   6.818  14.177
17378SOL     OW54030   6.724   5.642  12.777
17378SOL    HW154031   6.712   5.637  12.871
17378SOL    HW254032   6.792   5.578  12.757
17379SOL     OW54033   3.370   6.654   8.115
17379SOL    HW154034   3.350   6.602   8.037
17379SOL    HW254035   3.364   6.745   8.086
17380SOL     OW54036   2.326  10.944   7.978
17380SOL    HW154037   2.314  11.000   8.055
17380SOL    HW254038   2.238  10.914   7.956
17381SOL     OW54039  11.627   6.281   6.564
17381SOL    HW154040  11.703   6.274   6.621
17381SOL    HW254041  11.640   6.213   6.497
17382SOL     OW54042  11.978   6.514   5.390
17382SOL    HW154043  11.952   6.590   5.442
17382SOL    HW254044  12.006   6.449   5.454
17383SOL     OW54045   7.593   5.777   0.017
17383SOL    HW154046   7.537   5.715   0.063
17383SOL    HW254047   7.553   5.785  14.800
17384SOL     OW54048  14.078  11.544   8.738
17384SOL    HW154049  14.028  11.501   8.808
17384SOL    HW254050  14.156  11.489   8.728
17385SOL     OW54051   4.876   6.119   1.853
17385SOL    HW154052   4.858   6.211   1.876
17385SOL    HW254053   4.971   6.115   1.845
17386SOL     OW54054   9.024   6.386   5.811
17386SOL    HW154055   9.020   6.307   5.864
17386SOL    HW254056   8.972   6.450   5.859
17387SOL     OW54057   1.124  13.313   9.216
17387SOL    HW154058   1.188  13.280   9.280
17387SOL    HW254059   1.052  13.345   9.270
17388SOL     OW54060   3.514   1.482   4.636
17388SOL    HW154061   3.473   1.437   4.562
17388SOL    HW254062   3.599   1.440   4.646
17389SOL     OW54063  14.104   5.781   9.258
17389SOL    HW154064  14.153   5.809   9.335
17389SOL    HW254065  14.171   5.759   9.193
17390SOL     OW54066   6.309   5.880  14.341
17390SOL    HW154067   6.281   5.827  14.415
17390SOL    HW254068   6.280   5.831  14.264
17391SOL     OW54069   0.254   4.448   1.624
17391SOL    HW154070   0.196   4.512   1.665
17391SOL    HW254071   0.196   4.393   1.572
17392SOL     OW54072  11.201   5.656   7.518
17392SOL    HW154073  11.133   5.622   7.577
17392SOL    HW254074  11.153   5.683   7.440
17393SOL     OW54075   0.336   3.502  12.746
17393SOL    HW154076   0.407   3.562  12.721
17393SOL    HW254077   0.257   3.554  12.734
17394SOL     OW54078   2.338  14.422  13.435
17394SOL    HW154079   2.374  14.466  13.358
17394SOL    HW254080   2.331  14.330  13.409
17395SOL     OW54081  11.025   8.691   2.965
17395SOL    HW154082  11.031   8.755   2.894
17395SOL    HW254083  11.093   8.627   2.945
17396SOL     OW54084   6.104   1.667  10.327
17396SOL    HW154085   6.057   1.750  10.337
17396SOL    HW254086   6.090   1.622  10.410
17397SOL     OW54087  14.100   7.334   8.535
17397SOL    HW154088  14.153   7.260   8.565
17397SOL    HW254089  14.164   7.392   8.493
17398SOL     OW54090   8.721  14.805   3.278
17398SOL    HW154091   8.628  14.792   3.296
17398SOL    HW254092   8.725  14.830   3.186
17399SOL     OW54093  12.133   1.000   2.865
17399SOL    HW154094  12.127   1.079   2.812
17399SOL    HW254095  12.096   1.024   2.950
17400SOL     OW54096  12.526  10.575  10.660
17400SOL    HW154097  12.616  10.546  10.649
17400SOL    HW254098  12.498  10.600  10.572
17401SOL     OW54099   7.527   6.806   9.157
17401SOL    HW154100   7.458   6.792   9.222
17401SOL    HW254101   7.565   6.891   9.181
17402SOL     OW54102  11.388  12.260  12.840
17402SOL    HW154103  11.467  12.220  12.804
17402SOL    HW254104  11.357  12.319  12.771
17403SOL     OW54105   8.039  12.322  11.355
17403SOL    HW154106   8.118  12.376  11.360
17403SOL    HW254107   8.070  12.235  11.329
17404SOL     OW54108   5.780   1.505   4.622
17404SOL    HW154109   5.768   1.492   4.716
17404SOL    HW254110   5.745   1.593   4.606
17405SOL     OW54111   3.775   3.784   6.713
17405SOL    HW154112   3.725   3.799   6.633
17405SOL    HW254113   3.834   3.859   6.718
17406SOL     OW54114   0.043   2.043  14.814
17406SOL    HW154115   0.121   2.053  14.759
17406SOL    HW254116  14.842   2.078  14.761
17407SOL     OW54117   2.020  13.598  11.380
17407SOL    HW154118   2.034  13.523  11.322
17407SOL    HW254119   2.053  13.569  11.465
17408SOL     OW54120   8.976   2.066  10.688
17408SOL    HW154121   8.896   2.038  10.643
17408SOL    HW254122   8.975   2.019  10.771
17409SOL     OW54123   2.106  10.664   4.464
17409SOL    HW154124   2.197  10.670   4.494
17409SOL    HW254125   2.057  10.642   4.543
17410SOL     OW54126   2.588   1.452   7.334
17410SOL    HW154127   2.529   1.526   7.352
17410SOL    HW254128   2.597   1.408   7.418
17411SOL     OW54129   1.969   1.838  11.557
17411SOL    HW154130   1.916   1.783  11.616
17411SOL    HW254131   2.034   1.878  11.614
17412SOL     OW54132  11.369   8.913   2.397
17412SOL    HW154133  11.340   8.823   2.383
17412SOL    HW254134  11.289   8.965   2.389
17413SOL     OW54135  13.989   9.761   6.179
17413SOL    HW154136  13.908   9.808   6.159
17413SOL    HW254137  14.051   9.791   6.112
17414SOL     OW54138   9.947  14.787   8.037
17414SOL    HW154139   9.928   0.010   8.054
17414SOL    HW254140   9.911  14.742   8.113
17415SOL     OW54141   3.324  11.500  11.501
17415SOL    HW154142   3.253  11.488  11.564
17415SOL    HW254143   3.340  11.594  11.500
17416SOL     OW54144   9.736   3.699  11.888
17416SOL    HW154145   9.805   3.669  11.829
17416SOL    HW254146   9.670   3.629  11.884
17417SOL     OW54147   8.131   1.697   7.219
17417SOL    HW154148   8.072   1.632   7.182
17417SOL    HW254149   8.197   1.645   7.266
17418SOL     OW54150  12.505  14.334   4.932
17418SOL    HW154151  12.439  14.269   4.911
17418SOL    HW254152  12.476  14.413   4.887
17419SOL     OW54153   9.416   4.565   4.280
17419SOL    HW154154   9.497   4.575   4.230
17419SOL    HW254155   9.373   4.650   4.275
17420SOL     OW54156   8.451  13.567   7.311
17420SOL    HW154157   8.543  13.593   7.313
17420SOL    HW254158   8.405  13.643   7.277
17421SOL     OW54159   3.184  13.031   2.439
17421SOL    HW154160   3.258  13.053   2.383
17421SOL    HW254161   3.221  12.975   2.507
17422SOL     OW54162  11.708  14.773   0.649
17422SOL    HW154163  11.686  14.850   0.597
17422SOL    HW254164  11.628  14.720   0.647
17423SOL     OW54165   6.916   1.193   3.902
17423SOL    HW154166   6.899   1.278   3.944
17423SOL    HW254167   7.011   1.190   3.893
17424SOL     OW54168   6.030   9.890   3.833
17424SOL    HW154169   6.111   9.883   3.884
17424SOL    HW254170   6.017   9.984   3.820
17425SOL     OW54171   9.330   3.024   2.317
17425SOL    HW154172   9.424   3.005   2.312
17425SOL    HW254173   9.317   3.056   2.407
17426SOL     OW54174   7.925   1.225   1.334
17426SOL    HW154175   7.948   1.157   1.271
17426SOL    HW254176   7.915   1.305   1.282
17427SOL     OW54177   9.107   2.627   8.538
17427SOL    HW154178   9.074   2.714   8.563
17427SOL    HW254179   9.029   2.579   8.511
17428SOL     OW54180   5.372   4.235  14.183
17428SOL    HW154181   5.295   4.287  14.205
17428SOL    HW254182   5.442   4.273  14.236
17429SOL     OW54183  12.893   5.241   3.877
17429SOL    HW154184  12.864   5.152   3.899
17429SOL    HW254185  12.812   5.292   3.874
17430SOL     OW54186  10.963  11.797   4.239
17430SOL    HW154187  11.058  11.812   4.242
17430SOL    HW254188  10.925  11.884   4.245
17431SOL     OW54189   6.648  12.771  10.217
17431SOL    HW154190   6.555  12.749  10.203
17431SOL    HW254191   6.659  12.856  10.175
17432SOL     OW54192   2.224   4.124   5.724
17432SOL    HW154193   2.240   4.033   5.698
17432SOL    HW254194   2.311   4.162   5.733
17433SOL     OW54195   5.562  14.446  10.240
17433SOL    HW154196   5.473  14.452  10.207
17433SOL    HW254197   5.600  14.532  10.223
17434SOL     OW54198   5.025   3.362   4.036
17434SOL    HW154199   4.959   3.389   4.099
17434SOL    HW254200   4.989   3.387   3.951
17435SOL     OW54201  13.361   7.978   8.597
17435SOL    HW154202  13.320   7.943   8.518
17435SOL    HW254203  13.442   8.019   8.566
17436SOL     OW54204   5.351  11.142   7.376
17436SOL    HW154205   5.284  11.094   7.425
17436SOL    HW254206   5.315  11.148   7.287
17437SOL     OW54207   7.222   7.484  12.852
17437SOL    HW154208   7.314   7.504  12.835
17437SOL    HW254209   7.199   7.417  12.788
17438SOL     OW54210   3.354   7.938   0.889
17438SOL    HW154211   3.443   7.903   0.887
17438SOL    HW254212   3.300   7.869   0.850
17439SOL     OW54213   4.001  12.751  13.177
17439SOL    HW154214   3.947  12.816  13.222
17439SOL    HW254215   4.006  12.783  13.087
17440SOL     OW54216   2.212   6.521  12.467
17440SOL    HW154217   2.199   6.614  12.484
17440SOL    HW254218   2.242   6.486  12.551
17441SOL     OW54219  11.848   2.788   4.679
17441SOL    HW154220  11.854   2.706   4.728
17441SOL    HW254221  11.897   2.851   4.731
17442SOL     OW54222   0.196   0.178   5.296
17442SOL    HW154223   0.210   0.191   5.202
17442SOL    HW254224   0.139   0.101   5.302
17443SOL     OW54225  11.283   7.189  11.028
17443SOL    HW154226  11.269   7.137  10.948
17443SOL    HW254227  11.206   7.246  11.033
17444SOL     OW54228  10.279  13.438  14.370
17444SOL    HW154229  10.286  13.358  14.317
17444SOL    HW254230  10.321  13.415  14.453
17445SOL     OW54231  12.973  13.033   9.662
17445SOL    HW154232  12.931  13.115   9.687
17445SOL    HW254233  12.918  12.999   9.591
17446SOL     OW54234   6.574   8.828  13.491
17446SOL    HW154235   6.606   8.739  13.504
17446SOL    HW254236   6.622   8.881  13.554
17447SOL     OW54237  13.420   9.341  12.145
17447SOL    HW154238  13.337   9.385  12.164
17447SOL    HW254239  13.414   9.319  12.052
17448SOL     OW54240   0.248  12.700   3.500
17448SOL    HW154241   0.183  12.678   3.567
17448SOL    HW254242   0.259  12.620   3.450
17449SOL     OW54243   6.408  13.869   4.140
17449SOL    HW154244   6.320  13.889   4.170
17449SOL    HW254245   6.421  13.926   4.065
17450SOL     OW54246   1.415  14.227  13.961
17450SOL    HW154247   1.509  14.227  13.983
17450SOL    HW254248   1.405  14.159  13.895
17451SOL     OW54249   4.416   4.696   7.628
17451SOL    HW154250   4.331   4.709   7.671
17451SOL    HW254251   4.456   4.783   7.627
17452SOL     OW54252   5.473   8.459  10.702
17452SOL    HW154253   5.505   8.548  10.717
17452SOL    HW254254   5.549   8.403  10.718
17453SOL     OW54255   7.880   3.818   0.588
17453SOL    HW154256   7.875   3.737   0.537
17453SOL    HW254257   7.947   3.870   0.543
17454SOL     OW54258   1.015  11.009   0.770
17454SOL    HW154259   1.009  11.085   0.827
17454SOL    HW254260   1.070  11.038   0.697
17455SOL     OW54261  14.432   5.585   0.094
17455SOL    HW154262  14.490   5.612   0.024
17455SOL    HW254263  14.473   5.618   0.174
17456SOL     OW54264   6.475   5.602   6.486
17456SOL    HW154265   6.540   5.662   6.449
17456SOL    HW254266   6.472   5.529   6.424
17457SOL     OW54267  10.754   6.650   6.330
17457SOL    HW154268  10.832   6.660   6.276
17457SOL    HW254269  10.757   6.723   6.391
17458SOL     OW54270  14.401   2.726   6.806
17458SOL    HW154271  14.355   2.699   6.885
17458SOL    HW254272  14.425   2.817   6.822
17459SOL     OW54273   5.992   4.599  10.016
17459SOL    HW154274   6.012   4.536  10.086
17459SOL    HW254275   5.985   4.545   9.937
17460SOL     OW54276   8.089  13.007   9.641
17460SOL    HW154277   8.181  12.991   9.661
17460SOL    HW254278   8.088  13.093   9.598
17461SOL     OW54279   8.089   7.380   4.174
17461SOL    HW154280   8.132   7.378   4.088
17461SOL    HW254281   8.161   7.373   4.236
17462SOL     OW54282  12.092   0.062  10.490
17462SOL    HW154283  12.000   0.064  10.463
17462SOL    HW254284  12.141   0.072  10.409
17463SOL     OW54285   9.894   0.803   4.413
17463SOL    HW154286   9.851   0.731   4.367
17463SOL    HW254287   9.829   0.873   4.415
17464SOL     OW54288   7.050   8.983   1.490
17464SOL    HW154289   6.974   9.016   1.443
17464SOL    HW254290   7.026   8.893   1.514
17465SOL     OW54291  11.469   2.516   3.252
17465SOL    HW154292  11.417   2.454   3.304
17465SOL    HW254293  11.452   2.601   3.294
17466SOL     OW54294   5.458   7.731   2.202
17466SOL    HW154295   5.435   7.644   2.236
17466SOL    HW254296   5.451   7.722   2.107
17467SOL     OW54297   2.834  10.149   3.015
17467SOL    HW154298   2.909  10.145   3.074
17467SOL    HW254299   2.858  10.215   2.950
17468SOL     OW54300   1.067   2.652   7.184
17468SOL    HW154301   1.106   2.740   7.181
17468SOL    HW254302   1.132   2.597   7.140
17469SOL     OW54303   6.107  13.376   1.247
17469SOL    HW154304   6.188  13.417   1.218
17469SOL    HW254305   6.054  13.368   1.167
17470SOL     OW54306   1.310   5.291   3.211
17470SOL    HW154307   1.270   5.204   3.213
17470SOL    HW254308   1.250   5.347   3.260
17471SOL     OW54309   7.134   4.642   9.364
17471SOL    HW154310   7.161   4.626   9.455
17471SOL    HW254311   7.069   4.712   9.370
17472SOL     OW54312  13.645  10.011   5.797
17472SOL    HW154313  13.622  10.081   5.736
17472SOL    HW254314  13.736  10.030   5.822
17473SOL     OW54315  12.393   7.250   1.247
17473SOL    HW154316  12.363   7.333   1.283
17473SOL    HW254317  12.326   7.226   1.183
17474SOL     OW54318   0.353   6.746   0.651
17474SOL    HW154319   0.348   6.655   0.620
17474SOL    HW254320   0.311   6.797   0.581
17475SOL     OW54321  13.610  14.561  10.153
17475SOL    HW154322  13.597  14.640  10.101
17475SOL    HW254323  13.540  14.502  10.124
17476SOL     OW54324   6.343  10.304  10.158
17476SOL    HW154325   6.331  10.214  10.189
17476SOL    HW254326   6.254  10.338  10.148
17477SOL     OW54327   2.601   8.369  14.032
17477SOL    HW154328   2.557   8.436  13.978
17477SOL    HW254329   2.534   8.341  14.094
17478SOL     OW54330  13.222   1.841   9.294
17478SOL    HW154331  13.209   1.850   9.389
17478SOL    HW254332  13.281   1.913   9.271
17479SOL     OW54333   8.969   5.864   6.693
17479SOL    HW154334   8.883   5.823   6.681
17479SOL    HW254335   9.032   5.794   6.673
17480SOL     OW54336  10.440   0.913   9.057
17480SOL    HW154337  10.355   0.873   9.038
17480SOL    HW254338  10.487   0.847   9.107
17481SOL     OW54339   4.944   9.421   6.913
17481SOL    HW154340   4.914   9.453   6.998
17481SOL    HW254341   4.899   9.476   6.849
17482SOL     OW54342   9.325  11.092   0.168
17482SOL    HW154343   9.305  11.166   0.226
17482SOL    HW254344   9.274  11.109   0.089
17483SOL     OW54345   3.500   2.996   1.554
17483SOL    HW154346   3.457   2.948   1.482
17483SOL    HW254347   3.552   3.063   1.510
17484SOL     OW54348   0.805   0.609   1.531
17484SOL    HW154349   0.805   0.541   1.463
17484SOL    HW254350   0.870   0.579   1.594
17485SOL     OW54351  14.555   6.857   2.643
17485SOL    HW154352  14.590   6.812   2.719
17485SOL    HW254353  14.619   6.925   2.623
17486SOL     OW54354   0.662  10.632  14.676
17486SOL    HW154355   0.656  10.592  14.763
17486SOL    HW254356   0.638  10.562  14.616
17487SOL     OW54357   1.332  14.065   2.314
17487SOL    HW154358   1.350  14.041   2.223
17487SOL    HW254359   1.250  14.115   2.309
17488SOL     OW54360   8.710   0.376   5.303
17488SOL    HW154361   8.795   0.402   5.267
17488SOL    HW254362   8.717   0.281   5.315
17489SOL     OW54363  13.463   3.239   5.293
17489SOL    HW154364  13.396   3.307   5.291
17489SOL    HW254365  13.531   3.273   5.352
17490SOL     OW54366  10.179  13.805  10.277
17490SOL    HW154367  10.136  13.872  10.224
17490SOL    HW254368  10.264  13.844  10.299
17491SOL     OW54369   9.564   1.017  14.676
17491SOL    HW154370   9.518   0.985  14.755
17491SOL    HW254371   9.603   1.100  14.703
17492SOL     OW54372   2.200   6.660  13.584
17492SOL    HW154373   2.231   6.573  13.559
17492SOL    HW254374   2.280   6.711  13.599
17493SOL     OW54375   6.011  11.811   6.719
17493SOL    HW154376   6.056  11.769   6.647
17493SOL    HW254377   6.078  11.865   6.762
17494SOL     OW54378   3.831   1.552  11.583
17494SOL    HW154379   3.822   1.536  11.677
17494SOL    HW254380   3.761   1.500  11.543
17495SOL     OW54381  14.811   1.288   7.827
17495SOL    HW154382  14.847   1.250   7.747
17495SOL    HW254383  14.853   1.239   7.898
17496SOL     OW54384   8.209   7.215   3.225
17496SOL    HW154385   8.248   7.133   3.197
17496SOL    HW254386   8.269   7.283   3.195
17497SOL     OW54387   2.301  13.248  10.105
17497SOL    HW154388   2.318  13.154  10.099
17497SOL    HW254389   2.218  13.254  10.152
17498SOL     OW54390  11.647   4.772   0.345
17498SOL    HW154391  11.692   4.716   0.408
17498SOL    HW254392  11.637   4.716   0.268
17499SOL     OW54393  14.575   1.915   2.284
17499SOL    HW154394  14.591   1.821   2.294
17499SOL    HW254395  14.486   1.921   2.249
17500SOL     OW54396   3.862  11.608   3.363
17500SOL    HW154397   3.886  11.520   3.334
17500SOL    HW254398   3.774  11.622   3.327
17501SOL     OW54399   0.291  12.214   8.218
17501SOL    HW154400   0.206  12.258   8.212
17501SOL    HW254401   0.349  12.280   8.254
17502SOL     OW54402   3.441   9.568  13.425
17502SOL    HW154403   3.517   9.568  13.482
17502SOL    HW254404   3.418   9.661  13.415
17503SOL     OW54405   3.318  10.919   5.238
17503SOL    HW154406   3.399  10.967   5.255
17503SOL    HW254407   3.343  10.849   5.179
17504SOL     OW54408  14.467  12.991   4.542
17504SOL    HW154409  14.479  12.982   4.636
17504SOL    HW254410  14.513  12.915   4.505
17505SOL     OW54411   0.299   3.054  14.375
17505SOL    HW154412   0.375   3.016  14.332
17505SOL    HW254413   0.307   3.148  14.359
17506SOL     OW54414   7.099  13.361  11.329
17506SOL    HW154415   7.138  13.404  11.405
17506SOL    HW254416   7.147  13.396  11.255
17507SOL     OW54417   1.476   0.387   9.084
17507SOL    HW154418   1.548   0.325   9.077
17507SOL    HW254419   1.496   0.438   9.162
17508SOL     OW54420   1.246   6.357  11.262
17508SOL    HW154421   1.285   6.285  11.212
17508SOL    HW254422   1.282   6.347  11.350
17509SOL     OW54423   5.147   2.227  12.027
17509SOL    HW154424   5.222   2.283  12.005
17509SOL    HW254425   5.071   2.277  11.999
17510SOL     OW54426   2.293   1.539   7.606
17510SOL    HW154427   2.272   1.633   7.610
17510SOL    HW254428   2.210   1.495   7.624
17511SOL     OW54429   9.854   0.935   5.218
17511SOL    HW154430   9.937   0.983   5.224
17511SOL    HW254431   9.792   0.988   5.268
17512SOL     OW54432   4.451  10.078  13.000
17512SOL    HW154433   4.427  10.013  13.067
17512SOL    HW254434   4.380  10.142  13.002
17513SOL     OW54435   9.523  14.273  10.736
17513SOL    HW154436   9.545  14.184  10.709
17513SOL    HW254437   9.432  14.267  10.765
17514SOL     OW54438  12.865  10.749  11.953
17514SOL    HW154439  12.948  10.719  11.915
17514SOL    HW254440  12.870  10.844  11.948
17515SOL     OW54441   5.825   6.537  11.246
17515SOL    HW154442   5.784   6.460  11.208
17515SOL    HW254443   5.871   6.504  11.324
17516SOL     OW54444   3.987   2.890   5.314
17516SOL    HW154445   4.049   2.961   5.303
17516SOL    HW254446   3.959   2.869   5.225
17517SOL     OW54447  10.065  12.527   3.860
17517SOL    HW154448  10.017  12.567   3.787
17517SOL    HW254449  10.095  12.601   3.912
17518SOL     OW54450   1.239  10.208   2.457
17518SOL    HW154451   1.311  10.195   2.394
17518SOL    HW254452   1.233  10.303   2.467
17519SOL     OW54453  11.601   4.818  11.064
17519SOL    HW154454  11.693   4.796  11.071
17519SOL    HW254455  11.569   4.766  10.990
17520SOL     OW54456  12.942   8.320   7.086
17520SOL    HW154457  12.926   8.262   7.160
17520SOL    HW254458  12.992   8.267   7.024
17521SOL     OW54459   0.605  14.153   0.898
17521SOL    HW154460   0.598  14.244   0.927
17521SOL    HW254461   0.698  14.131   0.910
17522SOL     OW54462   3.204   8.775   6.056
17522SOL    HW154463   3.149   8.808   6.128
17522SOL    HW254464   3.225   8.853   6.004
17523SOL     OW54465   6.998  12.706  14.584
17523SOL    HW154466   6.915  12.685  14.627
17523SOL    HW254467   6.973  12.758  14.508
17524SOL     OW54468   7.841  14.351   0.091
17524SOL    HW154469   7.773  14.358   0.024
17524SOL    HW254470   7.799  14.306   0.164
17525SOL     OW54471  10.039   4.328   4.145
17525SOL    HW154472   9.987   4.248   4.149
17525SOL    HW254473   9.992   4.391   4.200
17526SOL     OW54474   3.765  13.314   4.684
17526SOL    HW154475   3.840  13.367   4.659
17526SOL    HW254476   3.794  13.224   4.671
17527SOL     OW54477   1.743   5.667   3.192
17527SOL    HW154478   1.709   5.731   3.255
17527SOL    HW254479   1.704   5.584   3.221
17528SOL     OW54480   2.958   7.317   6.808
17528SOL    HW154481   3.037   7.330   6.860
17528SOL    HW254482   2.887   7.316   6.871
17529SOL     OW54483  10.450  12.147  14.538
17529SOL    HW154484  10.408  12.123  14.621
17529SOL    HW254485  10.485  12.064  14.505
17530SOL     OW54486   9.982  11.686   0.704
17530SOL    HW154487  10.012  11.602   0.738
17530SOL    HW254488  10.008  11.750   0.770
17531SOL     OW54489   8.978   5.602   6.440
17531SOL    HW154490   8.993   5.573   6.350
17531SOL    HW254491   8.907   5.666   6.433
17532SOL     OW54492   3.448   0.183   0.339
17532SOL    HW154493   3.372   0.186   0.280
17532SOL    HW254494   3.485   0.095   0.325
17533SOL     OW54495   3.349   7.682   2.656
17533SOL    HW154496   3.327   7.750   2.719
17533SOL    HW254497   3.419   7.632   2.698
17534SOL     OW54498  14.577   8.921   6.049
17534SOL    HW154499  14.640   8.988   6.079
17534SOL    HW254500  14.517   8.911   6.123
17535SOL     OW54501   4.876  12.724   9.967
17535SOL    HW154502   4.797  12.730  10.022
17535SOL    HW254503   4.857  12.654   9.905
17536SOL     OW54504  11.248  11.980   1.055
17536SOL    HW154505  11.155  11.994   1.035
17536SOL    HW254506  11.268  11.895   1.016
17537SOL     OW54507  11.089  13.570  14.030
17537SOL    HW154508  11.063  13.495  14.084
17537SOL    HW254509  11.010  13.594  13.982
17538SOL     OW54510  14.003   8.770   3.177
17538SOL    HW154511  14.023   8.714   3.252
17538SOL    HW254512  13.981   8.855   3.216
17539SOL     OW54513   8.280  13.141   8.277
17539SOL    HW154514   8.373  13.123   8.267
17539SOL    HW254515   8.277  13.228   8.317
17540SOL     OW54516   5.548   7.516   3.289
17540SOL    HW154517   5.556   7.428   3.325
17540SOL    HW254518   5.597   7.572   3.350
17541SOL     OW54519   1.739   4.764   9.660
17541SOL    HW154520   1.775   4.850   9.640
17541SOL    HW254521   1.756   4.712   9.582
17542SOL     OW54522  11.521  14.514   2.553
17542SOL    HW154523  11.612  14.538   2.570
17542SOL    HW254524  11.469  14.584   2.593
17543SOL     OW54525  12.498   3.484  13.849
17543SOL    HW154526  12.503   3.400  13.803
17543SOL    HW254527  12.540   3.546  13.789
17544SOL     OW54528  10.932  10.862   1.646
17544SOL    HW154529  10.989  10.938   1.650
17544SOL    HW254530  10.866  10.884   1.580
17545SOL     OW54531   9.666   2.973   9.670
17545SOL    HW154532   9.725   2.926   9.611
17545SOL    HW254533   9.720   3.000   9.744
17546SOL     OW54534  14.168   1.812  10.111
17546SOL    HW154535  14.119   1.890  10.085
17546SOL    HW254536  14.221   1.841  10.186
17547SOL     OW54537  11.900  10.360   6.365
17547SOL    HW154538  11.911  10.271   6.333
17547SOL    HW254539  11.884  10.350   6.459
17548SOL     OW54540   5.129   6.258  13.238
17548SOL    HW154541   5.107   6.350  13.253
17548SOL    HW254542   5.204   6.260  13.179
17549SOL     OW54543   6.848   3.241   4.083
17549SOL    HW154544   6.885   3.319   4.041
17549SOL    HW254545   6.754   3.246   4.062
17550SOL     OW54546   3.743   6.322  11.482
17550SOL    HW154547   3.655   6.361  11.479
17550SOL    HW254548   3.801   6.390  11.447
17551SOL     OW54549   6.084  14.226  14.765
17551SOL    HW154550   6.123  14.303  14.723
17551SOL    HW254551   5.991  14.231  14.744
17552SOL     OW54552  12.640   3.908  12.807
17552SOL    HW154553  12.546   3.926  12.809
17552SOL    HW254554  12.681   3.994  12.802
17553SOL     OW54555   6.741   8.760  14.713
17553SOL    HW154556   6.694   8.731  14.791
17553SOL    HW254557   6.675   8.806  14.661
17554SOL     OW54558  12.209   1.804  14.060
17554SOL    HW154559  12.158   1.783  14.138
17554SOL    HW254560  12.213   1.721  14.012
17555SOL     OW54561   6.528  14.848   3.720
17555SOL    HW154562   6.528  14.754   3.738
17555SOL    HW254563   6.620   0.003   3.726
17556SOL     OW54564   6.475   6.162  13.864
17556SOL    HW154565   6.515   6.087  13.909
17556SOL    HW254566   6.498   6.151  13.772
17557SOL     OW54567   9.440  11.784  14.128
17557SOL    HW154568   9.487  11.745  14.202
17557SOL    HW254569   9.487  11.865  14.110
17558SOL     OW54570   0.635  11.439   2.868
17558SOL    HW154571   0.638  11.346   2.844
17558SOL    HW254572   0.664  11.440   2.959
17559SOL     OW54573  11.432   3.854   8.624
17559SOL    HW154574  11.500   3.917   8.647
17559SOL    HW254575  11.367   3.862   8.693
17560SOL     OW54576  14.784   1.966   6.457
17560SOL    HW154577  14.710   2.024   6.477
17560SOL    HW254578  14.801   1.982   6.364
17561SOL     OW54579   3.418  13.128   8.793
17561SOL    HW154580   3.345  13.114   8.733
17561SOL    HW254581   3.483  13.175   8.741
17562SOL     OW54582  14.551   5.538   3.419
17562SOL    HW154583  14.555   5.627   3.384
17562SOL    HW254584  14.485   5.494   3.366
17563SOL     OW54585  11.674  12.627   9.267
17563SOL    HW154586  11.746  12.689   9.278
17563SOL    HW254587  11.655  12.628   9.174
17564SOL     OW54588   6.171  11.764   3.027
17564SOL    HW154589   6.131  11.767   2.940
17564SOL    HW254590   6.197  11.854   3.044
17565SOL     OW54591  11.364   0.404   6.128
17565SOL    HW154592  11.459   0.401   6.116
17565SOL    HW254593  11.335   0.315   6.111
17566SOL     OW54594   2.542   6.006  11.114
17566SOL    HW154595   2.537   6.078  11.052
17566SOL    HW254596   2.497   5.934  11.071
17567SOL     OW54597   6.869   6.753   9.710
17567SOL    HW154598   6.796   6.748   9.771
17567SOL    HW254599   6.928   6.683   9.736
17568SOL     OW54600   1.840  14.334   7.344
17568SOL    HW154601   1.882  14.264   7.293
17568SOL    HW254602   1.887  14.413   7.319
17569SOL     OW54603  12.922   6.846  11.004
17569SOL    HW154604  12.830   6.823  11.006
17569SOL    HW254605  12.942   6.860  10.912
17570SOL     OW54606   0.127  10.443   2.770
17570SOL    HW154607   0.188  10.393   2.824
17570SOL    HW254608   0.076  10.495   2.833
17571SOL     OW54609  14.546  11.879   4.492
17571SOL    HW154610  14.527  11.874   4.586
17571SOL    HW254611  14.461  11.864   4.450
17572SOL     OW54612   1.868   6.590   8.008
17572SOL    HW154613   1.806   6.521   7.986
17572SOL    HW254614   1.842   6.664   7.953
17573SOL     OW54615   1.522   3.411   1.158
17573SOL    HW154616   1.530   3.436   1.250
17573SOL    HW254617   1.434   3.440   1.133
17574SOL     OW54618   2.278   6.908  12.090
17574SOL    HW154619   2.235   6.842  12.036
17574SOL    HW254620   2.365   6.871  12.108
17575SOL     OW54621   6.509  10.940   6.190
17575SOL    HW154622   6.543  10.980   6.110
17575SOL    HW254623   6.469  11.012   6.238
17576SOL     OW54624  12.979   7.513  14.522
17576SOL    HW154625  12.971   7.575  14.449
17576SOL    HW254626  13.040   7.555  14.583
17577SOL     OW54627   1.242  14.472   0.580
17577SOL    HW154628   1.179  14.539   0.552
17577SOL    HW254629   1.237  14.405   0.512
17578SOL     OW54630   7.603   2.100   9.401
17578SOL    HW154631   7.539   2.067   9.339
17578SOL    HW254632   7.552   2.152   9.463
17579SOL     OW54633   6.374  14.678  14.498
17579SOL    HW154634   6.415  14.676  14.411
17579SOL    HW254635   6.312  14.606  14.497
17580SOL     OW54636   6.783   1.263   7.296
17580SOL    HW154637   6.721   1.196   7.323
17580SOL    HW254638   6.797   1.317   7.375
17581SOL     OW54639   5.868   9.787  11.608
17581SOL    HW154640   5.845   9.826  11.523
17581SOL    HW254641   5.792   9.733  11.631
17582SOL     OW54642   3.146  13.021   8.373
17582SOL    HW154643   3.191  12.956   8.318
17582SOL    HW254644   3.140  13.099   8.317
17583SOL     OW54645   5.014   8.632   4.666
17583SOL    HW154646   5.058   8.668   4.743
17583SOL    HW254647   5.034   8.539   4.668
17584SOL     OW54648   3.614  14.108   7.489
17584SOL    HW154649   3.531  14.156   7.499
17584SOL    HW254650   3.595  14.020   7.521
17585SOL     OW54651  12.038   5.026  13.438
17585SOL    HW154652  11.991   5.078  13.503
17585SOL    HW254653  11.971   5.001  13.374
17586SOL     OW54654   9.418   5.779   4.982
17586SOL    HW154655   9.402   5.704   5.041
17586SOL    HW254656   9.370   5.757   4.902
17587SOL     OW54657   3.204   2.735  14.298
17587SOL    HW154658   3.275   2.770  14.245
17587SOL    HW254659   3.128   2.738  14.241
17588SOL     OW54660   6.448   8.176   5.689
17588SOL    HW154661   6.451   8.081   5.689
17588SOL    HW254662   6.431   8.200   5.780
17589SOL     OW54663   2.448   4.728   6.183
17589SOL    HW154664   2.423   4.671   6.256
17589SOL    HW254665   2.517   4.784   6.218
17590SOL     OW54666   5.712  11.776   2.148
17590SOL    HW154667   5.774  11.713   2.112
17590SOL    HW254668   5.684  11.829   2.073
17591SOL     OW54669  12.615   1.708  11.849
17591SOL    HW154670  12.676   1.634  11.856
17591SOL    HW254671  12.592   1.728  11.940
17592SOL     OW54672   3.968   7.227   4.928
17592SOL    HW154673   4.035   7.239   4.861
17592SOL    HW254674   3.934   7.315   4.944
17593SOL     OW54675  13.260   6.077  13.775
17593SOL    HW154676  13.285   6.042  13.860
17593SOL    HW254677  13.300   6.018  13.711
17594SOL     OW54678   0.211   3.055  12.896
17594SOL    HW154679   0.251   3.114  12.833
17594SOL    HW254680   0.240   3.088  12.981
17595SOL     OW54681   8.827   3.857   0.012
17595SOL    HW154682   8.884   3.780   0.003
17595SOL    HW254683   8.811   3.863   0.106
17596SOL     OW54684  14.167  10.921   5.670
17596SOL    HW154685  14.074  10.936   5.655
17596SOL    HW254686  14.199  11.001   5.711
17597SOL     OW54687   8.679  10.541   6.952
17597SOL    HW154688   8.756  10.486   6.942
17597SOL    HW254689   8.624  10.495   7.016
17598SOL     OW54690  12.040  10.270  12.052
17598SOL    HW154691  12.051  10.338  11.986
17598SOL    HW254692  11.950  10.282  12.084
17599SOL     OW54693  13.864   7.554  12.490
17599SOL    HW154694  13.864   7.516  12.578
17599SOL    HW254695  13.922   7.630  12.497
17600SOL     OW54696   4.855   7.357  10.885
17600SOL    HW154697   4.950   7.350  10.892
17600SOL    HW254698   4.840   7.448  10.860
17601SOL     OW54699  12.553   0.282   5.753
17601SOL    HW154700  12.548   0.314   5.663
17601SOL    HW254701  12.538   0.360   5.808
17602SOL     OW54702  11.464   4.754   1.654
17602SOL    HW154703  11.540   4.813   1.658
17602SOL    HW254704  11.494   4.675   1.697
17603SOL     OW54705   0.135  13.915   6.480
17603SOL    HW154706   0.172  13.958   6.402
17603SOL    HW254707   0.135  13.822   6.458
17604SOL     OW54708   8.294   2.197   0.005
17604SOL    HW154709   8.202   2.207  14.851
17604SOL    HW254710   8.296   2.122   0.064
17605SOL     OW54711  11.178   3.674   4.610
17605SOL    HW154712  11.215   3.744   4.663
17605SOL    HW254713  11.220   3.595   4.642
17606SOL     OW54714   9.830   5.355   1.366
17606SOL    HW154715   9.849   5.357   1.273
17606SOL    HW254716   9.916   5.355   1.408
17607SOL     OW54717  14.419   7.734   5.959
17607SOL    HW154718  14.417   7.829   5.971
17607SOL    HW254719  14.399   7.698   6.045
17608SOL     OW54720  12.779   0.515  14.601
17608SOL    HW154721  12.744   0.591  14.554
17608SOL    HW254722  12.720   0.503  14.675
17609SOL     OW54723   4.167   2.169   0.104
17609SOL    HW154724   4.210   2.086   0.085
17609SOL    HW254725   4.232   2.219   0.155
17610SOL     OW54726   1.960   6.936   8.721
17610SOL    HW154727   1.932   6.930   8.629
17610SOL    HW254728   2.009   7.018   8.725
17611SOL     OW54729   7.530   8.889  13.510
17611SOL    HW154730   7.580   8.948  13.454
17611SOL    HW254731   7.581   8.808  13.511
17612SOL     OW54732   4.953  11.330  11.420
17612SOL    HW154733   5.034  11.281  11.407
17612SOL    HW254734   4.884  11.273  11.386
17613SOL     OW54735  12.273   4.931  12.307
17613SOL    HW154736  12.243   4.991  12.375
17613SOL    HW254737  12.197   4.921  12.249
17614SOL     OW54738   8.044   4.272   8.276
17614SOL    HW154739   8.001   4.229   8.350
17614SOL    HW254740   7.975   4.283   8.210
17615SOL     OW54741   6.308   5.222   2.386
17615SOL    HW154742   6.247   5.162   2.428
17615SOL    HW254743   6.380   5.166   2.356
17616SOL     OW54744   7.544   9.371   1.640
17616SOL    HW154745   7.606   9.308   1.601
17616SOL    HW254746   7.460   9.347   1.602
17617SOL     OW54747   9.604   9.949   4.739
17617SOL    HW154748   9.582  10.020   4.679
17617SOL    HW254749   9.579   9.869   4.692
17618SOL     OW54750   8.687   1.139   6.713
17618SOL    HW154751   8.615   1.084   6.743
17618SOL    HW254752   8.693   1.208   6.779
17619SOL     OW54753   0.898   6.742   9.546
17619SOL    HW154754   0.854   6.707   9.469
17619SOL    HW254755   0.933   6.826   9.518
17620SOL     OW54756  12.468   2.180   4.219
17620SOL    HW154757  12.503   2.222   4.140
17620SOL    HW254758  12.527   2.106   4.235
17621SOL     OW54759  10.239   9.898   8.977
17621SOL    HW154760  10.311   9.835   8.969
17621SOL    HW254761  10.163   9.852   8.942
17622SOL     OW54762   6.502   9.645   8.814
17622SOL    HW154763   6.470   9.572   8.761
17622SOL    HW254764   6.429   9.665   8.873
17623SOL     OW54765   9.385  13.250   7.694
17623SOL    HW154766   9.340  13.279   7.774
17623SOL    HW254767   9.326  13.275   7.623
17624SOL     OW54768   2.983  11.852   4.101
17624SOL    HW154769   2.985  11.858   4.196
17624SOL    HW254770   2.983  11.758   4.082
17625SOL     OW54771   3.501   9.888   1.042
17625SOL    HW154772   3.533   9.863   1.129
17625SOL    HW254773   3.485   9.982   1.048
17626SOL     OW54774  12.661   7.062  11.493
17626SOL    HW154775  12.612   7.110  11.560
17626SOL    HW254776  12.752   7.087  11.508
17627SOL     OW54777  11.470   1.611   3.503
17627SOL    HW154778  11.526   1.682   3.534
17627SOL    HW254779  11.530   1.555   3.453
17628SOL     OW54780   4.575  14.310   5.645
17628SOL    HW154781   4.541  14.399   5.655
17628SOL    HW254782   4.641  14.300   5.714
17629SOL     OW54783  12.836  14.390   6.538
17629SOL    HW154784  12.745  14.409   6.563
17629SOL    HW254785  12.831  14.306   6.491
17630SOL     OW54786   0.573  10.539   7.555
17630SOL    HW154787   0.621  10.621   7.544
17630SOL    HW254788   0.526  10.528   7.473
17631SOL     OW54789  14.556   4.960   4.470
17631SOL    HW154790  14.528   4.902   4.399
17631SOL    HW254791  14.530   4.914   4.549
17632SOL     OW54792   4.378   5.777   4.542
17632SOL    HW154793   4.388   5.700   4.486
17632SOL    HW254794   4.283   5.794   4.541
17633SOL     OW54795   1.073  14.624   0.418
17633SOL    HW154796   1.028  14.706   0.441
17633SOL    HW254797   1.002  14.564   0.393
17634SOL     OW54798  13.142   7.347   1.686
17634SOL    HW154799  13.111   7.432   1.654
17634SOL    HW254800  13.119   7.286   1.616
17635SOL     OW54801   3.242   5.231  10.124
17635SOL    HW154802   3.300   5.186  10.185
17635SOL    HW254803   3.198   5.297  10.176
17636SOL     OW54804   7.826   1.493  13.340
17636SOL    HW154805   7.918   1.505  13.319
17636SOL    HW254806   7.784   1.575  13.312
17637SOL     OW54807  12.402   9.536   7.245
17637SOL    HW154808  12.370   9.620   7.215
17637SOL    HW254809  12.495   9.537   7.223
17638SOL     OW54810   1.345   3.941  12.753
17638SOL    HW154811   1.250   3.951  12.747
17638SOL    HW254812   1.363   3.856  12.712
17639SOL     OW54813  12.442   3.182   4.608
17639SOL    HW154814  12.446   3.260   4.553
17639SOL    HW254815  12.528   3.142   4.599
17640SOL     OW54816  10.985   4.028   0.387
17640SOL    HW154817  10.984   4.045   0.481
17640SOL    HW254818  11.078   4.027   0.364
17641SOL     OW54819   2.265   7.014   1.465
17641SOL    HW154820   2.305   6.947   1.408
17641SOL    HW254821   2.171   6.996   1.460
17642SOL     OW54822   0.094   2.900  13.858
17642SOL    HW154823   0.183   2.873  13.838
17642SOL    HW254824   0.043   2.874  13.782
17643SOL     OW54825   4.375  11.027  11.113
17643SOL    HW154826   4.304  11.034  11.177
17643SOL    HW254827   4.342  10.966  11.047
17644SOL     OW54828   8.081   8.977   5.275
17644SOL    HW154829   8.145   8.981   5.346
17644SOL    HW254830   8.115   9.035   5.207
17645SOL     OW54831  13.636   9.437   3.647
17645SOL    HW154832  13.576   9.366   3.627
17645SOL    HW254833  13.719   9.411   3.606
17646SOL     OW54834   0.877   7.056   3.305
17646SOL    HW154835   0.963   7.022   3.282
17646SOL    HW254836   0.833   7.070   3.221
17647SOL     OW54837   2.652   1.484   0.979
17647SOL    HW154838   2.733   1.480   0.927
17647SOL    HW254839   2.586   1.516   0.918
17648SOL     OW54840   3.280   9.048  13.935
17648SOL    HW154841   3.210   9.028  13.997
17648SOL    HW254842   3.360   9.050  13.988
17649SOL     OW54843   6.749   4.275   0.361
17649SOL    HW154844   6.717   4.196   0.403
17649SOL    HW254845   6.740   4.344   0.427
17650SOL     OW54846   3.964   6.371   5.741
17650SOL    HW154847   4.055   6.355   5.766
17650SOL    HW254848   3.957   6.466   5.732
17651SOL     OW54849   7.144   5.665  13.594
17651SOL    HW154850   7.116   5.580  13.628
17651SOL    HW254851   7.196   5.644  13.516
17652SOL     OW54852   0.053   9.852   9.538
17652SOL    HW154853   0.110   9.891   9.605
17652SOL    HW254854  14.861   9.921   9.515
17653SOL     OW54855   1.498  11.282   6.364
17653SOL    HW154856   1.432  11.299   6.297
17653SOL    HW254857   1.572  11.338   6.340
17654SOL     OW54858  11.910   7.922   9.770
17654SOL    HW154859  11.921   8.017   9.778
17654SOL    HW254860  11.987   7.885   9.814
17655SOL     OW54861   4.208   6.330   5.856
17655SOL    HW154862   4.206   6.279   5.938
17655SOL    HW254863   4.253   6.411   5.880
17656SOL     OW54864   8.298   4.400  12.967
17656SOL    HW154865   8.285   4.305  12.974
17656SOL    HW254866   8.215   4.433  12.933
17657SOL     OW54867   0.037  12.050   0.393
17657SOL    HW154868  14.828  12.064   0.340
17657SOL    HW254869   0.109  12.080   0.337
17658SOL     OW54870  10.919  11.971  11.389
17658SOL    HW154871  10.842  12.028  11.396
17658SOL    HW254872  10.912  11.931  11.303
17659SOL     OW54873   6.152  13.681  12.477
17659SOL    HW154874   6.122  13.718  12.393
17659SOL    HW254875   6.090  13.715  12.541
17660SOL     OW54876   0.677  14.455   0.831
17660SOL    HW154877   0.739  14.477   0.900
17660SOL    HW254878   0.614  14.527   0.831
17661SOL     OW54879   0.821   6.558  10.410
17661SOL    HW154880   0.885   6.521  10.349
17661SOL    HW254881   0.875   6.605  10.474
17662SOL     OW54882   3.297   3.792   9.948
17662SOL    HW154883   3.345   3.749   9.878
17662SOL    HW254884   3.272   3.722  10.008
17663SOL     OW54885  14.212   3.950  14.377
17663SOL    HW154886  14.188   3.871  14.328
17663SOL    HW254887  14.269   3.999  14.318
17664SOL     OW54888   7.123   9.234   6.928
17664SOL    HW154889   7.058   9.180   6.884
17664SOL    HW254890   7.142   9.186   7.009
17665SOL     OW54891  14.109  14.867   3.370
17665SOL    HW154892  14.077   0.023   3.457
17665SOL    HW254893  14.201   0.024   3.370
17666SOL     OW54894   7.854   9.757   9.697
17666SOL    HW154895   7.941   9.733   9.728
17666SOL    HW254896   7.795   9.696   9.741
17667SOL     OW54897  14.779   8.826   8.001
17667SOL    HW154898  14.864   8.783   7.992
17667SOL    HW254899  14.775   8.853   8.093
17668SOL     OW54900   8.190  14.635  14.634
17668SOL    HW154901   8.243  14.715  14.626
17668SOL    HW254902   8.139  14.648  14.714
17669SOL     OW54903   2.806  10.081   3.321
17669SOL    HW154904   2.750  10.142   3.369
17669SOL    HW254905   2.885  10.074   3.375
17670SOL     OW54906   9.896   3.304   1.222
17670SOL    HW154907   9.852   3.366   1.280
17670SOL    HW254908   9.831   3.235   1.208
17671SOL     OW54909   2.071   1.891   7.403
17671SOL    HW154910   2.021   1.832   7.348
17671SOL    HW254911   2.096   1.838   7.479
17672SOL     OW54912  14.611   9.877   3.594
17672SOL    HW154913  14.682   9.922   3.548
17672SOL    HW254914  14.602   9.794   3.547
17673SOL     OW54915   6.615  12.350   1.366
17673SOL    HW154916   6.655  12.282   1.311
17673SOL    HW254917   6.521  12.329   1.365
17674SOL     OW54918   9.567  10.097   9.648
17674SOL    HW154919   9.499  10.108   9.715
17674SOL    HW254920   9.550  10.011   9.610
17675SOL     OW54921  13.093   5.598  10.814
17675SOL    HW154922  13.177   5.589  10.859
17675SOL    HW254923  13.100   5.681  10.767
17676SOL     OW54924   4.991   6.882   9.481
17676SOL    HW154925   4.956   6.798   9.511
17676SOL    HW254926   4.934   6.907   9.409
17677SOL     OW54927   3.101   6.049   6.813
17677SOL    HW154928   3.186   6.066   6.773
17677SOL    HW254929   3.121   5.990   6.886
17678SOL     OW54930   1.360  14.463   9.235
17678SOL    HW154931   1.343  14.543   9.185
17678SOL    HW254932   1.397  14.402   9.172
17679SOL     OW54933  10.023   8.993  10.241
17679SOL    HW154934  10.039   8.915  10.294
17679SOL    HW254935  10.065   8.975  10.157
17680SOL     OW54936   8.034   9.146   2.038
17680SOL    HW154937   7.974   9.166   1.965
17680SOL    HW254938   8.093   9.222   2.042
17681SOL     OW54939   5.400   4.230   6.942
17681SOL    HW154940   5.410   4.324   6.960
17681SOL    HW254941   5.358   4.226   6.856
17682SOL     OW54942   2.164   6.848   8.910
17682SOL    HW154943   2.224   6.817   8.842
17682SOL    HW254944   2.082   6.865   8.864
17683SOL     OW54945  13.965  11.502   0.410
17683SOL    HW154946  13.943  11.555   0.334
17683SOL    HW254947  14.056  11.524   0.430
17684SOL     OW54948   2.819   7.565  12.680
17684SOL    HW154949   2.732   7.588  12.651
17684SOL    HW254950   2.878   7.615  12.624
17685SOL     OW54951   7.338   1.755   9.383
17685SOL    HW154952   7.416   1.797   9.348
17685SOL    HW254953   7.265   1.797   9.337
17686SOL     OW54954   2.599   6.660  12.516
17686SOL    HW154955   2.651   6.597  12.466
17686SOL    HW254956   2.655   6.736  12.525
17687SOL     OW54957   3.257  10.183   7.055
17687SOL    HW154958   3.349  10.165   7.073
17687SOL    HW254959   3.210  10.110   7.094
17688SOL     OW54960   0.761   2.486   8.666
17688SOL    HW154961   0.792   2.475   8.576
17688SOL    HW254962   0.763   2.398   8.703
17689SOL     OW54963  13.282  14.438   4.940
17689SOL    HW154964  13.264  14.360   4.993
17689SOL    HW254965  13.200  14.456   4.895
17690SOL     OW54966   0.290   8.277   6.433
17690SOL    HW154967   0.205   8.270   6.477
17690SOL    HW254968   0.278   8.231   6.350
17691SOL     OW54969  12.603   2.625   3.366
17691SOL    HW154970  12.544   2.622   3.291
17691SOL    HW254971  12.632   2.535   3.377
17692SOL     OW54972  12.979   2.731  11.299
17692SOL    HW154973  12.952   2.797  11.363
17692SOL    HW254974  13.060   2.696  11.334
17693SOL     OW54975   1.613   5.760  11.632
17693SOL    HW154976   1.634   5.767  11.725
17693SOL    HW254977   1.517   5.763  11.629
17694SOL     OW54978   5.649  14.825   7.145
17694SOL    HW154979   5.725  14.847   7.092
17694SOL    HW254980   5.685  14.784   7.224
17695SOL     OW54981   7.902   1.829  12.969
17695SOL    HW154982   7.921   1.898  13.032
17695SOL    HW254983   7.888   1.875  12.886
17696SOL     OW54984  13.137   2.004  12.931
17696SOL    HW154985  13.148   1.931  12.991
17696SOL    HW254986  13.226   2.033  12.910
17697SOL     OW54987   0.775   9.414   7.950
17697SOL    HW154988   0.791   9.508   7.946
17697SOL    HW254989   0.680   9.406   7.948
17698SOL     OW54990   3.346   7.357   1.994
17698SOL    HW154991   3.267   7.411   1.999
17698SOL    HW254992   3.412   7.405   2.045
17699SOL     OW54993   6.025   3.984   8.900
17699SOL    HW154994   6.093   3.952   8.959
17699SOL    HW254995   6.039   4.078   8.894
17700SOL     OW54996  13.932   2.119   1.072
17700SOL    HW154997  13.890   2.094   0.990
17700SOL    HW254998  14.016   2.156   1.046
17701SOL     OW54999   5.341  13.269   3.106
17701SOL    HW155000   5.389  13.293   3.027
17701SOL    HW255001   5.345  13.174   3.109
17702SOL     OW55002   1.570   7.764   6.145
17702SOL    HW155003   1.515   7.784   6.069
17702SOL    HW255004   1.627   7.840   6.154
17703SOL     OW55005  12.372   5.807   7.656
17703SOL    HW155006  12.454   5.835   7.695
17703SOL    HW255007  12.333   5.748   7.720
17704SOL     OW55008  10.071  11.038  10.254
17704SOL    HW155009  10.132  11.089  10.307
17704SOL    HW255010  10.012  11.103  10.216
17705SOL     OW55011   1.932   5.101   5.926
17705SOL    HW155012   1.879   5.118   5.848
17705SOL    HW255013   1.873   5.120   6.000
17706SOL     OW55014   1.106  10.906   7.961
17706SOL    HW155015   1.200  10.916   7.956
17706SOL    HW255016   1.093  10.826   8.013
17707SOL     OW55017   0.771  14.042   5.846
17707SOL    HW155018   0.837  14.110   5.859
17707SOL    HW255019   0.699  14.066   5.904
17708SOL     OW55020   7.959   9.340  10.991
17708SOL    HW155021   7.887   9.299  10.943
17708SOL    HW255022   7.924   9.426  11.015
17709SOL     OW55023   4.374  11.870   4.021
17709SOL    HW155024   4.434  11.854   4.094
17709SOL    HW255025   4.404  11.811   3.952
17710SOL     OW55026   1.376   2.278   4.384
17710SOL    HW155027   1.432   2.210   4.421
17710SOL    HW255028   1.287   2.245   4.395
17711SOL     OW55029   5.245   9.441  11.723
17711SOL    HW155030   5.187   9.432  11.648
17711SOL    HW255031   5.213   9.377  11.786
17712SOL     OW55032  14.795   0.157   5.635
17712SOL    HW155033  14.699   0.161   5.627
17712SOL    HW255034  14.813   0.184   5.725
17713SOL     OW55035   4.882  11.699   1.557
17713SOL    HW155036   4.935  11.775   1.535
17713SOL    HW255037   4.890  11.641   1.481
17714SOL     OW55038   4.107   3.474   5.841
17714SOL    HW155039   4.161   3.472   5.920
17714SOL    HW255040   4.024   3.434   5.867
17715SOL     OW55041   3.725   3.513  11.460
17715SOL    HW155042   3.667   3.548  11.528
17715SOL    HW255043   3.745   3.424  11.488
17716SOL     OW55044   5.404   7.298  10.872
17716SOL    HW155045   5.429   7.286  10.781
17716SOL    HW255046   5.473   7.252  10.921
17717SOL     OW55047  14.763   9.365   6.968
17717SOL    HW155048  14.689   9.373   7.028
17717SOL    HW255049  14.799   9.454   6.962
17718SOL     OW55050   7.499   9.569  14.790
17718SOL    HW155051   7.500   9.556   0.015
17718SOL    HW255052   7.514   9.663  14.779
17719SOL     OW55053   3.917   6.176   5.556
17719SOL    HW155054   3.960   6.201   5.474
17719SOL    HW255055   3.932   6.250   5.614
17720SOL     OW55056  11.876  11.640   0.493
17720SOL    HW155057  11.933  11.689   0.552
17720SOL    HW255058  11.831  11.707   0.442
17721SOL     OW55059   9.606   5.206  14.733
17721SOL    HW155060   9.668   5.214  14.661
17721SOL    HW255061   9.520   5.216  14.692
17722SOL     OW55062  12.298   0.513   8.536
17722SOL    HW155063  12.346   0.531   8.455
17722SOL    HW255064  12.289   0.598   8.578
17723SOL     OW55065   1.834   7.744   1.819
17723SOL    HW155066   1.788   7.805   1.760
17723SOL    HW255067   1.910   7.716   1.769
17724SOL     OW55068  14.026   2.610  11.099
17724SOL    HW155069  13.955   2.553  11.067
17724SOL    HW255070  14.046   2.576  11.186
17725SOL     OW55071  10.590  12.569   2.452
17725SOL    HW155072  10.596  12.616   2.369
17725SOL    HW255073  10.628  12.630   2.516
17726SOL     OW55074  14.260   7.915   5.133
17726SOL    HW155075  14.308   7.844   5.090
17726SOL    HW255076  14.227   7.876   5.214
17727SOL     OW55077   4.263  11.399  14.220
17727SOL    HW155078   4.341  11.351  14.247
17727SOL    HW255079   4.229  11.351  14.145
17728SOL     OW55080  11.157   2.150   8.421
17728SOL    HW155081  11.242   2.123   8.388
17728SOL    HW255082  11.174   2.176   8.512
17729SOL     OW55083  14.336  14.064   4.414
17729SOL    HW155084  14.312  13.984   4.461
17729SOL    HW255085  14.331  14.133   4.480
17730SOL     OW55086   2.217   5.232   5.098
17730SOL    HW155087   2.225   5.227   5.194
17730SOL    HW255088   2.146   5.171   5.077
17731SOL     OW55089  13.529  13.252  12.184
17731SOL    HW155090  13.470  13.189  12.226
17731SOL    HW255091  13.471  13.318  12.147
17732SOL     OW55092   7.756   4.340   9.616
17732SOL    HW155093   7.716   4.346   9.703
17732SOL    HW255094   7.782   4.248   9.608
17733SOL     OW55095   9.167   8.877  12.921
17733SOL    HW155096   9.101   8.938  12.954
17733SOL    HW255097   9.201   8.835  13.000
17734SOL     OW55098   2.745   7.643   0.116
17734SOL    HW155099   2.813   7.669   0.179
17734SOL    HW255100   2.781   7.564   0.075
17735SOL     OW55101  11.370   7.725  11.913
17735SOL    HW155102  11.431   7.732  11.986
17735SOL    HW255103  11.368   7.812  11.874
17736SOL     OW55104   5.705   5.068   5.745
17736SOL    HW155105   5.614   5.040   5.746
17736SOL    HW255106   5.709   5.137   5.679
17737SOL     OW55107   4.035   6.476   7.826
17737SOL    HW155108   4.041   6.506   7.917
17737SOL    HW255109   4.088   6.540   7.778
17738SOL     OW55110  13.336   7.343  12.911
17738SOL    HW155111  13.414   7.396  12.897
17738SOL    HW255112  13.354   7.261  12.866
17739SOL     OW55113  12.664   1.361   4.291
17739SOL    HW155114  12.703   1.415   4.221
17739SOL    HW255115  12.737   1.342   4.349
17740SOL     OW55116   5.640   2.869   4.360
17740SOL    HW155117   5.644   2.891   4.453
17740SOL    HW255118   5.702   2.930   4.319
17741SOL     OW55119   1.882   7.181  11.082
17741SOL    HW155120   1.924   7.095  11.083
17741SOL    HW255121   1.949   7.241  11.111
17742SOL     OW55122  11.148   2.014   5.177
17742SOL    HW155123  11.128   2.104   5.206
17742SOL    HW255124  11.063   1.979   5.148
17743SOL     OW55125   6.747   2.265   3.614
17743SOL    HW155126   6.782   2.314   3.540
17743SOL    HW255127   6.718   2.333   3.675
17744SOL     OW55128   0.208   1.465   1.358
17744SOL    HW155129   0.154   1.543   1.370
17744SOL    HW255130   0.295   1.499   1.339
17745SOL     OW55131   6.354   4.320   0.660
17745SOL    HW155132   6.409   4.389   0.623
17745SOL    HW255133   6.328   4.353   0.746
17746SOL     OW55134  10.291  10.281   9.353
17746SOL    HW155135  10.321  10.324   9.273
17746SOL    HW255136  10.212  10.329   9.378
17747SOL     OW55137  13.821  12.149   9.015
17747SOL    HW155138  13.736  12.172   8.977
17747SOL    HW255139  13.825  12.199   9.097
17748SOL     OW55140   6.609   8.580   6.231
17748SOL    HW155141   6.607   8.506   6.293
17748SOL    HW255142   6.575   8.654   6.280
17749SOL     OW55143   7.705  13.534   9.979
17749SOL    HW155144   7.698  13.495  10.066
17749SOL    HW255145   7.632  13.496   9.930
17750SOL     OW55146   4.049   6.088   2.480
17750SOL    HW155147   4.042   6.181   2.500
17750SOL    HW255148   3.959   6.055   2.488
17751SOL     OW55149   0.539   2.900  14.758
17751SOL    HW155150   0.526   2.868  14.669
17751SOL    HW255151   0.471   2.856  14.810
17752SOL     OW55152   7.648   4.764   5.946
17752SOL    HW155153   7.683   4.854   5.947
17752SOL    HW255154   7.563   4.773   5.903
17753SOL     OW55155   5.031   3.947   0.855
17753SOL    HW155156   4.961   3.970   0.794
17753SOL    HW255157   5.004   3.864   0.893
17754SOL     OW55158   0.560  11.267   6.745
17754SOL    HW155159   0.542  11.262   6.838
17754SOL    HW255160   0.587  11.178   6.721
17755SOL     OW55161  14.670   7.152  14.661
17755SOL    HW155162  14.733   7.206  14.710
17755SOL    HW255163  14.620   7.106  14.729
17756SOL     OW55164   9.452  10.199   7.939
17756SOL    HW155165   9.455  10.252   8.019
17756SOL    HW255166   9.460  10.262   7.868
17757SOL     OW55167   9.921   2.714  13.831
17757SOL    HW155168   9.853   2.774  13.801
17757SOL    HW255169   9.972   2.694  13.751
17758SOL     OW55170  11.315  10.618   2.087
17758SOL    HW155171  11.356  10.572   2.014
17758SOL    HW255172  11.345  10.709   2.079
17759SOL     OW55173  13.869  14.462  12.450
17759SOL    HW155174  13.935  14.416  12.399
17759SOL    HW255175  13.912  14.543  12.478
17760SOL     OW55176  10.196  10.704   7.628
17760SOL    HW155177  10.194  10.769   7.558
17760SOL    HW255178  10.162  10.624   7.587
17761SOL     OW55179   6.089  13.019   8.368
17761SOL    HW155180   6.134  13.038   8.450
17761SOL    HW255181   6.143  13.059   8.300
17762SOL     OW55182   2.242   5.519   5.074
17762SOL    HW155183   2.256   5.425   5.083
17762SOL    HW255184   2.201   5.529   4.988
17763SOL     OW55185   6.962   8.624  12.829
17763SOL    HW155186   6.953   8.708  12.875
17763SOL    HW255187   6.873   8.602  12.801
17764SOL     OW55188   5.084  13.562   9.531
17764SOL    HW155189   5.095  13.640   9.585
17764SOL    HW255190   5.145  13.498   9.569
17765SOL     OW55191  14.322  14.023   1.993
17765SOL    HW155192  14.336  13.967   2.069
17765SOL    HW255193  14.409  14.032   1.953
17766SOL     OW55194  13.458   8.502   0.500
17766SOL    HW155195  13.428   8.422   0.457
17766SOL    HW255196  13.551   8.486   0.518
17767SOL     OW55197  11.197   7.389   2.635
17767SOL    HW155198  11.235   7.386   2.723
17767SOL    HW255199  11.125   7.325   2.638
17768SOL     OW55200   6.862   3.751   0.526
17768SOL    HW155201   6.830   3.689   0.461
17768SOL    HW255202   6.866   3.835   0.479
17769SOL     OW55203  13.612   4.735   7.886
17769SOL    HW155204  13.615   4.651   7.931
17769SOL    HW255205  13.665   4.723   7.807
17770SOL     OW55206   3.655   1.719  12.094
17770SOL    HW155207   3.735   1.668  12.090
17770SOL    HW255208   3.684   1.809  12.113
17771SOL     OW55209   1.551   1.762   8.691
17771SOL    HW155210   1.574   1.838   8.636
17771SOL    HW255211   1.617   1.761   8.759
17772SOL     OW55212   9.556   6.792   0.680
17772SOL    HW155213   9.499   6.823   0.609
17772SOL    HW255214   9.498   6.785   0.756
17773SOL     OW55215   3.762   4.261   6.674
17773SOL    HW155216   3.685   4.273   6.729
17773SOL    HW255217   3.737   4.298   6.589
17774SOL     OW55218   7.069   9.867   5.088
17774SOL    HW155219   7.010   9.942   5.079
17774SOL    HW255220   7.081   9.857   5.183
17775SOL     OW55221   9.616  14.016   0.916
17775SOL    HW155222   9.630  14.003   1.010
17775SOL    HW255223   9.699  14.049   0.883
17776SOL     OW55224   7.916   1.223  10.290
17776SOL    HW155225   7.873   1.262  10.214
17776SOL    HW255226   7.937   1.297  10.347
17777SOL     OW55227   4.428   9.099  14.499
17777SOL    HW155228   4.504   9.143  14.537
17777SOL    HW255229   4.436   9.008  14.529
17778SOL     OW55230   6.776  10.861   5.836
17778SOL    HW155231   6.830  10.825   5.765
17778SOL    HW255232   6.760  10.787   5.894
17779SOL     OW55233  10.469   4.538   6.238
17779SOL    HW155234  10.446   4.451   6.205
17779SOL    HW255235  10.533   4.571   6.174
17780SOL     OW55236  12.372   1.003  13.075
17780SOL    HW155237  12.313   0.981  13.003
17780SOL    HW255238  12.330   1.077  13.118
17781SOL     OW55239   8.982   6.603  13.540
17781SOL    HW155240   8.950   6.514  13.527
17781SOL    HW255241   9.015   6.603  13.630
17782SOL     OW55242   4.305  12.971   0.624
17782SOL    HW155243   4.275  13.033   0.691
17782SOL    HW255244   4.234  12.969   0.560
17783SOL     OW55245   3.928   1.020  10.966
17783SOL    HW155246   3.912   0.928  10.945
17783SOL    HW255247   3.952   1.061  10.883
17784SOL     OW55248   6.535   4.153   3.388
17784SOL    HW155249   6.515   4.206   3.311
17784SOL    HW255250   6.562   4.217   3.454
17785SOL     OW55251  13.459   9.186  12.375
17785SOL    HW155252  13.469   9.222  12.287
17785SOL    HW255253  13.484   9.094  12.367
17786SOL     OW55254   9.046   5.681   8.647
17786SOL    HW155255   9.085   5.640   8.724
17786SOL    HW255256   8.991   5.613   8.609
17787SOL     OW55257   4.248   9.695  12.808
17787SOL    HW155258   4.216   9.630  12.745
17787SOL    HW255259   4.314   9.648  12.859
17788SOL     OW55260   8.694   8.346   1.120
17788SOL    HW155261   8.756   8.417   1.101
17788SOL    HW255262   8.745   8.282   1.170
17789SOL     OW55263  12.277   3.759   4.288
17789SOL    HW155264  12.184   3.779   4.289
17789SOL    HW255265  12.287   3.692   4.220
17790SOL     OW55266  14.606   1.620  14.287
17790SOL    HW155267  14.550   1.542  14.285
17790SOL    HW255268  14.551   1.688  14.327
17791SOL     OW55269  13.757  13.178   8.998
17791SOL    HW155270  13.751  13.208   8.908
17791SOL    HW255271  13.752  13.257   9.051
17792SOL     OW55272  13.245   8.427   1.618
17792SOL    HW155273  13.260   8.351   1.562
17792SOL    HW255274  13.185   8.395   1.686
17793SOL     OW55275  13.254   5.052  11.034
17793SOL    HW155276  13.339   5.080  11.068
17793SOL    HW255277  13.248   5.092  10.948
17794SOL     OW55278  13.287   4.778  14.176
17794SOL    HW155279  13.229   4.849  14.202
17794SOL    HW255280  13.363   4.821  14.137
17795SOL     OW55281   0.124   9.115  13.980
17795SOL    HW155282   0.164   9.091  13.896
17795SOL    HW255283   0.197   9.150  14.032
17796SOL     OW55284  10.824  14.839   1.449
17796SOL    HW155285  10.785   0.025   1.516
17796SOL    HW255286  10.752  14.781   1.422
17797SOL     OW55287   6.013  10.877   9.151
17797SOL    HW155288   6.083  10.916   9.204
17797SOL    HW255289   5.952  10.948   9.136
17798SOL     OW55290   9.441   2.675  14.856
17798SOL    HW155291   9.530   2.662  14.823
17798SOL    HW255292   9.451   2.743   0.053
17799SOL     OW55293   5.059   6.485  12.265
17799SOL    HW155294   5.130   6.549  12.259
17799SOL    HW255295   5.102   6.403  12.287
17800SOL     OW55296  10.886  13.028   8.387
17800SOL    HW155297  10.951  13.025   8.456
17800SOL    HW255298  10.838  12.945   8.395
17801SOL     OW55299   8.127   3.540   4.982
17801SOL    HW155300   8.154   3.611   5.040
17801SOL    HW255301   8.185   3.548   4.906
17802SOL     OW55302   4.979   3.223  11.618
17802SOL    HW155303   5.074   3.222  11.635
17802SOL    HW255304   4.941   3.179  11.694
17803SOL     OW55305   7.243  11.485  10.726
17803SOL    HW155306   7.311  11.512  10.788
17803SOL    HW255307   7.187  11.425  10.776
17804SOL     OW55308   7.265   0.348   6.499
17804SOL    HW155309   7.235   0.394   6.578
17804SOL    HW255310   7.258   0.413   6.429
17805SOL     OW55311   1.500   1.785   5.976
17805SOL    HW155312   1.444   1.802   5.900
17805SOL    HW255313   1.589   1.792   5.942
17806SOL     OW55314  10.881   2.623   0.045
17806SOL    HW155315  10.787   2.614   0.031
17806SOL    HW255316  10.903   2.707   0.002
17807SOL     OW55317  13.994   2.826   6.468
17807SOL    HW155318  13.966   2.870   6.388
17807SOL    HW255319  13.923   2.767   6.490
17808SOL     OW55320   2.665  13.320  13.735
17808SOL    HW155321   2.626  13.406  13.717
17808SOL    HW255322   2.632  13.297  13.822
17809SOL     OW55323   0.750   6.070  13.894
17809SOL    HW155324   0.763   5.997  13.955
17809SOL    HW255325   0.679   6.121  13.932
17810SOL     OW55326   5.839   1.203   5.295
17810SOL    HW155327   5.799   1.282   5.258
17810SOL    HW255328   5.911   1.182   5.235
17811SOL     OW55329   0.369  14.292  13.979
17811SOL    HW155330   0.312  14.361  14.012
17811SOL    HW255331   0.399  14.325  13.894
17812SOL     OW55332  14.328  14.185   4.677
17812SOL    HW155333  14.267  14.223   4.739
17812SOL    HW255334  14.395  14.143   4.731
17813SOL     OW55335  12.550   3.068   2.302
17813SOL    HW155336  12.512   3.037   2.384
17813SOL    HW255337  12.591   3.151   2.325
17814SOL     OW55338  10.326   8.915  12.999
17814SOL    HW155339  10.284   8.988  12.952
17814SOL    HW255340  10.267   8.841  12.984
17815SOL     OW55341   3.957   1.206   5.502
17815SOL    HW155342   3.965   1.275   5.435
17815SOL    HW255343   3.901   1.243   5.569
17816SOL     OW55344   0.581   5.569   2.481
17816SOL    HW155345   0.660   5.596   2.434
17816SOL    HW255346   0.611   5.547   2.569
17817SOL     OW55347   9.890   6.869  12.459
17817SOL    HW155348   9.935   6.952  12.475
17817SOL    HW255349   9.914   6.845  12.370
17818SOL     OW55350  11.139   8.098  12.436
17818SOL    HW155351  11.163   8.190  12.448
17818SOL    HW255352  11.087   8.076  12.513
17819SOL     OW55353   5.200   5.581   1.179
17819SOL    HW155354   5.136   5.514   1.202
17819SOL    HW255355   5.160   5.663   1.207
17820SOL     OW55356   0.236  11.466   6.666
17820SOL    HW155357   0.284  11.399   6.618
17820SOL    HW255358   0.145  11.436   6.666
17821SOL     OW55359   1.351   4.722   9.467
17821SOL    HW155360   1.294   4.783   9.514
17821SOL    HW255361   1.388   4.666   9.536
17822SOL     OW55362   7.651   1.323   4.719
17822SOL    HW155363   7.719   1.318   4.652
17822SOL    HW255364   7.698   1.341   4.800
17823SOL     OW55365   7.887  13.154   6.408
17823SOL    HW155366   7.904  13.173   6.500
17823SOL    HW255367   7.971  13.124   6.373
17824SOL     OW55368   2.773  11.333   6.383
17824SOL    HW155369   2.784  11.252   6.333
17824SOL    HW255370   2.861  11.354   6.414
17825SOL     OW55371   3.514   5.366   2.759
17825SOL    HW155372   3.502   5.301   2.690
17825SOL    HW255373   3.516   5.450   2.713
17826SOL     OW55374   7.279   5.478   6.467
17826SOL    HW155375   7.237   5.540   6.408
17826SOL    HW255376   7.372   5.498   6.460
17827SOL     OW55377   7.496  10.774  10.838
17827SOL    HW155378   7.576  10.753  10.887
17827SOL    HW255379   7.468  10.690  10.802
17828SOL     OW55380  10.712  10.042   5.110
17828SOL    HW155381  10.769  10.078   5.178
17828SOL    HW255382  10.677  10.119   5.065
17829SOL     OW55383  11.120   6.663   4.570
17829SOL    HW155384  11.153   6.618   4.648
17829SOL    HW255385  11.198   6.679   4.517
17830SOL     OW55386   1.290   6.498  10.959
17830SOL    HW155387   1.356   6.544  11.011
17830SOL    HW255388   1.273   6.418  11.009
17831SOL     OW55389  10.431   2.783   0.012
17831SOL    HW155390  10.385   2.844   0.070
17831SOL    HW255391  10.372   2.771  14.808
17832SOL     OW55392  13.449   3.227  10.026
17832SOL    HW155393  13.412   3.264   9.946
17832SOL    HW255394  13.499   3.151   9.996
17833SOL     OW55395   2.934  13.475   5.912
17833SOL    HW155396   2.961  13.389   5.944
17833SOL    HW255397   2.909  13.523   5.991
17834SOL     OW55398   9.171  14.550   5.364
17834SOL    HW155399   9.188  14.520   5.274
17834SOL    HW255400   9.253  14.592   5.391
17835SOL     OW55401   6.961  12.328   3.465
17835SOL    HW155402   6.966  12.352   3.558
17835SOL    HW255403   7.052  12.331   3.435
17836SOL     OW55404   5.709   8.228   4.227
17836SOL    HW155405   5.748   8.257   4.309
17836SOL    HW255406   5.624   8.191   4.252
17837SOL     OW55407   2.964   2.822  14.424
17837SOL    HW155408   2.950   2.727  14.417
17837SOL    HW255409   3.038   2.840  14.366
17838SOL     OW55410  14.414   0.706  12.792
17838SOL    HW155411  14.357   0.747  12.857
17838SOL    HW255412  14.359   0.699  12.714
17839SOL     OW55413  11.046   4.374  10.637
17839SOL    HW155414  11.121   4.358  10.695
17839SOL    HW255415  11.079   4.353  10.549
17840SOL     OW55416   1.927   6.207   3.920
17840SOL    HW155417   1.878   6.125   3.918
17840SOL    HW255418   1.862   6.274   3.940
17841SOL     OW55419   6.402  11.756   8.754
17841SOL    HW155420   6.344  11.793   8.688
17841SOL    HW255421   6.480  11.730   8.706
17842SOL     OW55422   4.829   7.364   4.898
17842SOL    HW155423   4.901   7.419   4.929
17842SOL    HW255424   4.786   7.417   4.832
17843SOL     OW55425  11.807  12.648  11.675
17843SOL    HW155426  11.788  12.672  11.766
17843SOL    HW255427  11.881  12.703  11.651
17844SOL     OW55428  13.146   4.841   5.453
17844SOL    HW155429  13.123   4.891   5.374
17844SOL    HW255430  13.071   4.783   5.467
17845SOL     OW55431   6.408  13.917  11.249
17845SOL    HW155432   6.318  13.899  11.279
17845SOL    HW255433   6.463  13.870  11.311
17846SOL     OW55434   1.783   8.432   8.877
17846SOL    HW155435   1.763   8.521   8.904
17846SOL    HW255436   1.748   8.377   8.947
17847SOL     OW55437   6.862  11.646   0.046
17847SOL    HW155438   6.932  11.588   0.015
17847SOL    HW255439   6.898  11.734   0.036
17848SOL     OW55440   2.906   7.030   7.755
17848SOL    HW155441   2.889   7.028   7.661
17848SOL    HW255442   2.845   6.965   7.791
17849SOL     OW55443   5.473   7.026  13.826
17849SOL    HW155444   5.544   7.051  13.885
17849SOL    HW255445   5.465   6.931  13.836
17850SOL     OW55446  12.694  11.102   9.805
17850SOL    HW155447  12.626  11.118   9.740
17850SOL    HW255448  12.653  11.125   9.889
17851SOL     OW55449   8.278  14.320  13.594
17851SOL    HW155450   8.197  14.322  13.644
17851SOL    HW255451   8.279  14.234  13.553
17852SOL     OW55452  11.539  12.777   2.131
17852SOL    HW155453  11.615  12.834   2.121
17852SOL    HW255454  11.469  12.821   2.081
17853SOL     OW55455   4.815  11.008   2.336
17853SOL    HW155456   4.864  10.928   2.357
17853SOL    HW255457   4.723  10.981   2.340
17854SOL     OW55458  10.602   2.714   3.871
17854SOL    HW155459  10.697   2.707   3.861
17854SOL    HW255460  10.567   2.675   3.790
17855SOL     OW55461  10.011   6.260   4.892
17855SOL    HW155462  10.042   6.196   4.956
17855SOL    HW255463  10.065   6.337   4.907
17856SOL     OW55464  13.467   8.666   2.824
17856SOL    HW155465  13.399   8.611   2.784
17856SOL    HW255466  13.471   8.743   2.768
17857SOL     OW55467  11.721   4.174   9.160
17857SOL    HW155468  11.784   4.244   9.177
17857SOL    HW255469  11.757   4.127   9.085
17858SOL     OW55470  12.596   1.236   7.401
17858SOL    HW155471  12.646   1.300   7.349
17858SOL    HW255472  12.505   1.258   7.384
17859SOL     OW55473   4.374   9.596  10.980
17859SOL    HW155474   4.468   9.583  10.988
17859SOL    HW255475   4.336   9.510  10.999
17860SOL     OW55476   8.258   1.133   0.218
17860SOL    HW155477   8.267   1.218   0.176
17860SOL    HW255478   8.337   1.124   0.271
17861SOL     OW55479   7.748  10.683   2.364
17861SOL    HW155480   7.823  10.737   2.390
17861SOL    HW255481   7.702  10.736   2.299
17862SOL     OW55482  11.918   0.647   1.706
17862SOL    HW155483  11.941   0.556   1.687
17862SOL    HW255484  11.835   0.642   1.752
17863SOL     OW55485   3.234   0.949   0.441
17863SOL    HW155486   3.194   1.014   0.499
17863SOL    HW255487   3.286   0.893   0.498
17864SOL     OW55488   1.408   2.607   8.993
17864SOL    HW155489   1.323   2.649   9.007
17864SOL    HW255490   1.470   2.663   9.039
17865SOL     OW55491   4.991   7.916   4.539
17865SOL    HW155492   4.927   7.846   4.546
17865SOL    HW255493   4.966   7.979   4.607
17866SOL     OW55494  13.114   7.283  14.480
17866SOL    HW155495  13.039   7.342  14.472
17866SOL    HW255496  13.189   7.342  14.495
17867SOL     OW55497   0.826   7.315   6.012
17867SOL    HW155498   0.882   7.332   5.936
17867SOL    HW255499   0.771   7.393   6.019
17868SOL     OW55500   1.873   6.532   1.272
17868SOL    HW155501   1.880   6.448   1.317
17868SOL    HW255502   1.937   6.588   1.316
17869SOL     OW55503   8.870  13.573   6.512
17869SOL    HW155504   8.922  13.560   6.591
17869SOL    HW255505   8.793  13.518   6.524
17870SOL     OW55506  10.215   9.814   4.031
17870SOL    HW155507  10.181   9.793   3.944
17870SOL    HW255508  10.200   9.734   4.082
17871SOL     OW55509  11.261   6.996   5.664
17871SOL    HW155510  11.319   7.050   5.609
17871SOL    HW255511  11.291   6.907   5.648
17872SOL     OW55512   7.283   5.307  11.577
17872SOL    HW155513   7.237   5.390  11.582
17872SOL    HW255514   7.238   5.259  11.507
17873SOL     OW55515   5.543   0.898   7.883
17873SOL    HW155516   5.482   0.870   7.815
17873SOL    HW255517   5.571   0.818   7.926
17874SOL     OW55518   0.629  11.325   9.895
17874SOL    HW155519   0.600  11.381   9.967
17874SOL    HW255520   0.724  11.333   9.895
17875SOL     OW55521   7.329  13.356   7.284
17875SOL    HW155522   7.313  13.436   7.335
17875SOL    HW255523   7.316  13.382   7.193
17876SOL     OW55524   5.243   5.016  14.595
17876SOL    HW155525   5.186   5.011  14.671
17876SOL    HW255526   5.207   4.953  14.533
17877SOL     OW55527   3.423  11.191   1.713
17877SOL    HW155528   3.483  11.133   1.665
17877SOL    HW255529   3.365  11.131   1.760
17878SOL     OW55530   6.951   8.341   7.964
17878SOL    HW155531   6.943   8.307   7.875
17878SOL    HW255532   6.916   8.430   7.959
17879SOL     OW55533   2.584   8.606   3.438
17879SOL    HW155534   2.658   8.570   3.488
17879SOL    HW255535   2.623   8.644   3.360
17880SOL     OW55536   7.124   0.196   9.651
17880SOL    HW155537   7.132   0.149   9.569
17880SOL    HW255538   7.035   0.178   9.681
17881SOL     OW55539  10.170   6.209  14.058
17881SOL    HW155540  10.207   6.213  13.969
17881SOL    HW255541  10.166   6.301  14.086
17882SOL     OW55542   5.071  13.196  10.150
17882SOL    HW155543   5.084  13.171  10.241
17882SOL    HW255544   4.978  13.220  10.144
17883SOL     OW55545  11.325   0.238  10.844
17883SOL    HW155546  11.370   0.307  10.795
17883SOL    HW255547  11.245   0.280  10.876
17884SOL     OW55548   4.596  10.209  13.834
17884SOL    HW155549   4.508  10.208  13.873
17884SOL    HW255550   4.647  10.263  13.894
17885SOL     OW55551  14.141   1.064  11.547
17885SOL    HW155552  14.181   1.084  11.462
17885SOL    HW255553  14.170   0.976  11.567
17886SOL     OW55554   1.243   0.863   7.781
17886SOL    HW155555   1.288   0.795   7.830
17886SOL    HW255556   1.307   0.892   7.716
17887SOL     OW55557   7.118   3.464   3.697
17887SOL    HW155558   7.154   3.547   3.663
17887SOL    HW255559   7.152   3.398   3.637
17888SOL     OW55560   3.558   6.849  14.674
17888SOL    HW155561   3.477   6.819  14.634
17888SOL    HW255562   3.538   6.854  14.767
17889SOL     OW55563   8.314  13.067   3.713
17889SOL    HW155564   8.372  13.143   3.708
17889SOL    HW255565   8.314  13.042   3.805
17890SOL     OW55566  11.434   1.863  11.486
17890SOL    HW155567  11.507   1.822  11.439
17890SOL    HW255568  11.356   1.820  11.450
17891SOL     OW55569   8.864   7.615   9.990
17891SOL    HW155570   8.814   7.534  10.002
17891SOL    HW255571   8.951   7.586   9.964
17892SOL     OW55572   8.051   2.780   2.758
17892SOL    HW155573   8.043   2.798   2.664
17892SOL    HW255574   7.963   2.793   2.792
17893SOL     OW55575  13.275   6.742  10.417
17893SOL    HW155576  13.265   6.830  10.382
17893SOL    HW255577  13.198   6.729  10.473
17894SOL     OW55578  13.853  11.323  14.200
17894SOL    HW155579  13.763  11.321  14.231
17894SOL    HW255580  13.894  11.245  14.237
17895SOL     OW55581   4.901   2.710   1.023
17895SOL    HW155582   4.874   2.799   1.002
17895SOL    HW255583   4.986   2.700   0.981
17896SOL     OW55584  14.627   5.023   3.120
17896SOL    HW155585  14.592   4.969   3.049
17896SOL    HW255586  14.558   5.020   3.187
17897SOL     OW55587   4.408  13.429  10.073
17897SOL    HW155588   4.492  13.470  10.094
17897SOL    HW255589   4.345  13.501  10.076
17898SOL     OW55590   7.339  12.597   0.126
17898SOL    HW155591   7.282  12.654   0.074
17898SOL    HW255592   7.288  12.517   0.139
17899SOL     OW55593   3.450   6.399   1.709
17899SOL    HW155594   3.532   6.355   1.731
17899SOL    HW255595   3.433   6.376   1.618
17900SOL     OW55596   9.427   6.746   0.929
17900SOL    HW155597   9.441   6.655   0.903
17900SOL    HW255598   9.338   6.747   0.964
17901SOL     OW55599   5.349  14.330   4.723
17901SOL    HW155600   5.379  14.250   4.766
17901SOL    HW255601   5.309  14.300   4.641
17902SOL     OW55602   7.404   4.894   4.498
17902SOL    HW155603   7.319   4.884   4.540
17902SOL    HW255604   7.430   4.984   4.517
17903SOL     OW55605  13.744   8.985  13.998
17903SOL    HW155606  13.676   8.930  14.038
17903SOL    HW255607  13.762   9.052  14.064
17904SOL     OW55608   4.021  11.569  13.292
17904SOL    HW155609   3.954  11.632  13.264
17904SOL    HW255610   3.973  11.488  13.306
17905SOL     OW55611   1.109   5.295   4.802
17905SOL    HW155612   1.141   5.278   4.714
17905SOL    HW255613   1.082   5.210   4.836
17906SOL     OW55614  10.459  13.526   7.623
17906SOL    HW155615  10.422  13.438   7.627
17906SOL    HW255616  10.502  13.531   7.537
17907SOL     OW55617   7.212  13.905   4.686
17907SOL    HW155618   7.151  13.972   4.654
17907SOL    HW255619   7.164  13.823   4.679
17908SOL     OW55620   6.954   2.997  14.349
17908SOL    HW155621   6.920   3.049  14.276
17908SOL    HW255622   6.982   2.915  14.309
17909SOL     OW55623  11.341   2.479   7.430
17909SOL    HW155624  11.295   2.397   7.450
17909SOL    HW255625  11.389   2.500   7.509
17910SOL     OW55626   0.736   0.695   5.105
17910SOL    HW155627   0.739   0.790   5.095
17910SOL    HW255628   0.701   0.663   5.021
17911SOL     OW55629   7.541   2.929  11.878
17911SOL    HW155630   7.504   2.995  11.820
17911SOL    HW255631   7.607   2.885  11.824
17912SOL     OW55632  12.531  12.959  11.324
17912SOL    HW155633  12.441  12.957  11.291
17912SOL    HW255634  12.530  12.901  11.400
17913SOL     OW55635   2.442  10.201   7.396
17913SOL    HW155636   2.461  10.147   7.472
17913SOL    HW255637   2.465  10.290   7.424
17914SOL     OW55638   3.850  12.569  11.554
17914SOL    HW155639   3.791  12.498  11.530
17914SOL    HW255640   3.872  12.611  11.471
17915SOL     OW55641   1.422  11.312  11.705
17915SOL    HW155642   1.448  11.352  11.787
17915SOL    HW255643   1.414  11.218  11.725
17916SOL     OW55644   0.948  10.487   3.226
17916SOL    HW155645   0.911  10.399   3.215
17916SOL    HW255646   1.028  10.474   3.276
17917SOL     OW55647   0.906   3.599   4.992
17917SOL    HW155648   0.999   3.582   4.978
17917SOL    HW255649   0.903   3.689   5.026
17918SOL     OW55650   1.077   8.692   6.722
17918SOL    HW155651   1.154   8.745   6.705
17918SOL    HW255652   1.097   8.646   6.804
17919SOL     OW55653   0.221  11.712   7.010
17919SOL    HW155654   0.285  11.659   6.962
17919SOL    HW255655   0.274  11.761   7.073
17920SOL     OW55656   6.033   3.969   5.689
17920SOL    HW155657   6.000   3.881   5.672
17920SOL    HW255658   6.056   4.002   5.602
17921SOL     OW55659  11.925   7.194   9.983
17921SOL    HW155660  11.908   7.278   9.942
17921SOL    HW255661  11.875   7.197  10.065
17922SOL     OW55662  12.771   8.262   4.922
17922SOL    HW155663  12.861   8.285   4.897
17922SOL    HW255664  12.781   8.194   4.989
17923SOL     OW55665   5.497   2.465   9.216
17923SOL    HW155666   5.527   2.424   9.135
17923SOL    HW255667   5.479   2.392   9.275
17924SOL     OW55668  11.597   5.920   5.148
17924SOL    HW155669  11.596   5.838   5.099
17924SOL    HW255670  11.684   5.957   5.131
17925SOL     OW55671  12.679   6.818   6.097
17925SOL    HW155672  12.768   6.834   6.066
17925SOL    HW255673  12.668   6.879   6.170
17926SOL     OW55674   5.560   0.989  14.842
17926SOL    HW155675   5.526   0.925  14.780
17926SOL    HW255676   5.535   1.074  14.806
17927SOL     OW55677   5.257  11.908  13.943
17927SOL    HW155678   5.250  11.814  13.928
17927SOL    HW255679   5.173  11.944  13.914
17928SOL     OW55680   9.343  12.061  12.114
17928SOL    HW155681   9.428  12.076  12.072
17928SOL    HW255682   9.352  11.977  12.159
17929SOL     OW55683  14.439   4.683   8.556
17929SOL    HW155684  14.527   4.707   8.584
17929SOL    HW255685  14.414   4.611   8.614
17930SOL     OW55686   8.229  13.606  13.790
17930SOL    HW155687   8.230  13.701  13.798
17930SOL    HW255688   8.190  13.575  13.871
17931SOL     OW55689  12.064   6.515  12.186
17931SOL    HW155690  12.008   6.538  12.260
17931SOL    HW255691  12.004   6.510  12.111
17932SOL     OW55692   9.693   6.386   3.949
17932SOL    HW155693   9.771   6.442   3.956
17932SOL    HW255694   9.625   6.434   3.995
17933SOL     OW55695   9.229   8.114   4.792
17933SOL    HW155696   9.173   8.171   4.845
17933SOL    HW255697   9.289   8.174   4.748
17934SOL     OW55698   9.324   0.240  11.301
17934SOL    HW155699   9.375   0.285  11.234
17934SOL    HW255700   9.235   0.274  11.290
17935SOL     OW55701   1.975   4.706   8.512
17935SOL    HW155702   2.025   4.787   8.519
17935SOL    HW255703   1.894   4.724   8.558
17936SOL     OW55704   4.911  14.023   3.524
17936SOL    HW155705   4.997  14.056   3.500
17936SOL    HW255706   4.861  14.025   3.442
17937SOL     OW55707   1.128   5.540   0.280
17937SOL    HW155708   1.222   5.551   0.296
17937SOL    HW255709   1.087   5.607   0.334
17938SOL     OW55710   2.898  11.096   2.043
17938SOL    HW155711   2.806  11.105   2.020
17938SOL    HW255712   2.899  11.099   2.139
17939SOL     OW55713   2.207   0.376   6.024
17939SOL    HW155714   2.199   0.283   6.003
17939SOL    HW255715   2.227   0.418   5.940
17940SOL     OW55716   0.506  12.010  10.131
17940SOL    HW155717   0.516  12.105  10.140
17940SOL    HW255718   0.413  11.998  10.112
17941SOL     OW55719   4.527   0.779   6.344
17941SOL    HW155720   4.582   0.716   6.391
17941SOL    HW255721   4.579   0.802   6.267
17942SOL     OW55722   2.621   9.303   4.326
17942SOL    HW155723   2.586   9.253   4.400
17942SOL    HW255724   2.612   9.244   4.251
17943SOL     OW55725   7.653   2.585   2.922
17943SOL    HW155726   7.720   2.577   2.990
17943SOL    HW255727   7.690   2.647   2.859
17944SOL     OW55728   5.578   1.843  11.416
17944SOL    HW155729   5.565   1.909  11.348
17944SOL    HW255730   5.612   1.766  11.370
17945SOL     OW55731   8.179   5.925   6.134
17945SOL    HW155732   8.124   5.963   6.066
17945SOL    HW255733   8.158   5.976   6.213
17946SOL     OW55734  10.796   5.739   2.157
17946SOL    HW155735  10.883   5.700   2.166
17946SOL    HW255736  10.766   5.710   2.071
17947SOL     OW55737   0.827  11.126   6.007
17947SOL    HW155738   0.790  11.183   5.940
17947SOL    HW255739   0.921  11.121   5.986
17948SOL     OW55740   1.019   7.420  11.961
17948SOL    HW155741   0.993   7.499  12.008
17948SOL    HW255742   1.082   7.377  12.019
17949SOL     OW55743  11.042   6.930   8.539
17949SOL    HW155744  10.971   6.989   8.512
17949SOL    HW255745  11.118   6.958   8.488
17950SOL     OW55746   3.645   5.919   6.484
17950SOL    HW155747   3.570   5.876   6.526
17950SOL    HW255748   3.701   5.848   6.455
17951SOL     OW55749   2.369  11.470   3.535
17951SOL    HW155750   2.303  11.421   3.486
17951SOL    HW255751   2.427  11.403   3.570
17952SOL     OW55752  12.496  11.033  10.555
17952SOL    HW155753  12.467  11.077  10.475
17952SOL    HW255754  12.590  11.048  10.558
17953SOL     OW55755  12.521   5.634  12.889
17953SOL    HW155756  12.554   5.546  12.871
17953SOL    HW255757  12.476   5.659  12.808
17954SOL     OW55758  10.163   0.588   5.488
17954SOL    HW155759  10.105   0.583   5.412
17954SOL    HW255760  10.108   0.620   5.559
17955SOL     OW55761  11.873   8.719   5.686
17955SOL    HW155762  11.968   8.708   5.685
17955SOL    HW255763  11.840   8.645   5.634
17956SOL     OW55764  12.733  11.894   0.849
17956SOL    HW155765  12.796  11.845   0.796
17956SOL    HW255766  12.771  11.982   0.856
17957SOL     OW55767   0.540   4.230   7.609
17957SOL    HW155768   0.460   4.265   7.572
17957SOL    HW255769   0.577   4.302   7.661
17958SOL     OW55770  12.156   2.729   8.474
17958SOL    HW155771  12.104   2.789   8.420
17958SOL    HW255772  12.179   2.781   8.551
17959SOL     OW55773   7.963   4.456   7.194
17959SOL    HW155774   8.048   4.450   7.236
17959SOL    HW255775   7.957   4.547   7.164
17960SOL     OW55776   9.681  11.548   6.172
17960SOL    HW155777   9.770  11.513   6.159
17960SOL    HW255778   9.654  11.575   6.084
17961SOL     OW55779   9.874   7.360  11.473
17961SOL    HW155780   9.944   7.421  11.449
17961SOL    HW255781   9.795   7.398  11.435
17962SOL     OW55782  13.080  14.371  14.423
17962SOL    HW155783  13.143  14.411  14.482
17962SOL    HW255784  13.074  14.432  14.349
17963SOL     OW55785  13.169   6.482   4.514
17963SOL    HW155786  13.102   6.502   4.579
17963SOL    HW255787  13.199   6.394   4.538
17964SOL     OW55788  11.651   9.106   1.757
17964SOL    HW155789  11.615   9.120   1.845
17964SOL    HW255790  11.574   9.091   1.702
17965SOL     OW55791   9.528  11.741   0.338
17965SOL    HW155792   9.432  11.741   0.330
17965SOL    HW255793   9.552  11.649   0.330
17966SOL     OW55794  12.962   2.705  12.008
17966SOL    HW155795  12.902   2.630  12.013
17966SOL    HW255796  13.049   2.666  12.015
17967SOL     OW55797   6.431   3.306  10.696
17967SOL    HW155798   6.391   3.361  10.764
17967SOL    HW255799   6.476   3.367  10.639
17968SOL     OW55800  10.521   9.129   3.937
17968SOL    HW155801  10.533   9.087   4.022
17968SOL    HW255802  10.527   9.223   3.956
17969SOL     OW55803  13.509   8.807  10.571
17969SOL    HW155804  13.547   8.844  10.651
17969SOL    HW255805  13.428   8.858  10.557
17970SOL     OW55806   5.946   3.612   1.568
17970SOL    HW155807   5.902   3.529   1.586
17970SOL    HW255808   5.925   3.667   1.644
17971SOL     OW55809  14.370  12.752   6.800
17971SOL    HW155810  14.432  12.756   6.727
17971SOL    HW255811  14.348  12.659   6.808
17972SOL     OW55812  13.565  11.384   1.194
17972SOL    HW155813  13.578  11.368   1.100
17972SOL    HW255814  13.648  11.359   1.234
17973SOL     OW55815   1.798   1.946   2.720
17973SOL    HW155816   1.854   1.871   2.742
17973SOL    HW255817   1.736   1.952   2.793
17974SOL     OW55818   0.860   5.308   2.746
17974SOL    HW155819   0.858   5.404   2.745
17974SOL    HW255820   0.922   5.286   2.815
17975SOL     OW55821  10.142  10.932   2.681
17975SOL    HW155822  10.058  10.960   2.646
17975SOL    HW255823  10.202  10.937   2.607
17976SOL     OW55824  12.274   6.391   3.732
17976SOL    HW155825  12.261   6.443   3.653
17976SOL    HW255826  12.329   6.317   3.703
17977SOL     OW55827   4.101  13.570  13.521
17977SOL    HW155828   4.094  13.526  13.436
17977SOL    HW255829   4.022  13.622  13.527
17978SOL     OW55830   0.204   2.046  12.648
17978SOL    HW155831   0.181   2.008  12.563
17978SOL    HW255832   0.290   2.085  12.635
17979SOL     OW55833   1.375   8.653   4.704
17979SOL    HW155834   1.380   8.620   4.793
17979SOL    HW255835   1.281   8.652   4.683
17980SOL     OW55836   1.380   5.956   7.048
17980SOL    HW155837   1.416   6.024   6.992
17980SOL    HW255838   1.380   5.878   6.992
17981SOL     OW55839   7.679   7.459   8.722
17981SOL    HW155840   7.727   7.386   8.761
17981SOL    HW255841   7.603   7.471   8.780
17982SOL     OW55842   4.283  12.281   0.927
17982SOL    HW155843   4.205  12.226   0.917
17982SOL    HW255844   4.274  12.348   0.859
17983SOL     OW55845   3.227   2.375   2.529
17983SOL    HW155846   3.277   2.298   2.556
17983SOL    HW255847   3.145   2.340   2.493
17984SOL     OW55848   5.884  13.502   4.769
17984SOL    HW155849   5.940  13.511   4.846
17984SOL    HW255850   5.853  13.411   4.773
17985SOL     OW55851  12.192   6.226  13.530
17985SOL    HW155852  12.127   6.296  13.526
17985SOL    HW255853  12.274   6.270  13.552
17986SOL     OW55854  12.838   9.618   2.654
17986SOL    HW155855  12.787   9.684   2.607
17986SOL    HW255856  12.883   9.569   2.586
17987SOL     OW55857   1.648   4.247   9.626
17987SOL    HW155858   1.592   4.177   9.661
17987SOL    HW255859   1.603   4.275   9.546
17988SOL     OW55860   2.112   2.061   1.484
17988SOL    HW155861   2.158   2.066   1.400
17988SOL    HW255862   2.173   2.018   1.543
17989SOL     OW55863  11.365  10.404  13.047
17989SOL    HW155864  11.295  10.349  13.012
17989SOL    HW255865  11.434  10.400  12.982
17990SOL     OW55866  10.476   5.554  10.832
17990SOL    HW155867  10.494   5.644  10.805
17990SOL    HW255868  10.526   5.500  10.771
17991SOL     OW55869   1.547   5.278   5.547
17991SOL    HW155870   1.589   5.303   5.465
17991SOL    HW255871   1.461   5.319   5.543
17992SOL     OW55872   7.853   7.383  11.260
17992SOL    HW155873   7.799   7.397  11.338
17992SOL    HW255874   7.863   7.288  11.254
17993SOL     OW55875   5.629  14.181   3.935
17993SOL    HW155876   5.539  14.167   3.905
17993SOL    HW255877   5.620  14.198   4.029
17994SOL     OW55878   2.629   2.361   7.677
17994SOL    HW155879   2.648   2.327   7.764
17994SOL    HW255880   2.550   2.414   7.688
17995SOL     OW55881   6.033   5.866  12.164
17995SOL    HW155882   6.077   5.788  12.131
17995SOL    HW255883   6.029   5.925  12.089
17996SOL     OW55884  13.864  12.826  12.167
17996SOL    HW155885  13.875  12.875  12.249
17996SOL    HW255886  13.889  12.736  12.189
17997SOL     OW55887   4.381   6.518   2.810
17997SOL    HW155888   4.368   6.491   2.901
17997SOL    HW255889   4.477   6.522   2.800
17998SOL     OW55890  13.114   3.560   4.161
17998SOL    HW155891  13.155   3.604   4.087
17998SOL    HW255892  13.186   3.545   4.223
17999SOL     OW55893   8.433  14.857   0.673
17999SOL    HW155894   8.418  14.790   0.607
17999SOL    HW255895   8.417  14.813   0.757
18000SOL     OW55896  11.529   0.798   6.869
18000SOL    HW155897  11.494   0.850   6.796
18000SOL    HW255898  11.576   0.726   6.827
18001SOL     OW55899   6.395   9.061   5.072
18001SOL    HW155900   6.473   9.109   5.097
18001SOL    HW255901   6.424   9.001   5.002
18002SOL     OW55902   2.084   7.835   8.818
18002SOL    HW155903   2.068   7.917   8.866
18002SOL    HW255904   2.085   7.861   8.726
18003SOL     OW55905   9.452   7.941   6.058
18003SOL    HW155906   9.387   7.936   6.128
18003SOL    HW255907   9.411   7.897   5.984
18004SOL     OW55908   1.626  14.607   1.769
18004SOL    HW155909   1.558  14.674   1.782
18004SOL    HW255910   1.614  14.546   1.841
18005SOL     OW55911   7.724  13.157   0.796
18005SOL    HW155912   7.681  13.076   0.770
18005SOL    HW255913   7.657  13.206   0.843
18006SOL     OW55914   0.284   3.630   1.282
18006SOL    HW155915   0.360   3.688   1.284
18006SOL    HW255916   0.210   3.686   1.307
18007SOL     OW55917   6.138   9.221   4.131
18007SOL    HW155918   6.130   9.281   4.057
18007SOL    HW255919   6.060   9.238   4.185
18008SOL     OW55920   0.724   6.967   2.177
18008SOL    HW155921   0.647   6.984   2.231
18008SOL    HW255922   0.795   6.950   2.239
18009SOL     OW55923   8.089  12.020   6.840
18009SOL    HW155924   7.994  12.026   6.841
18009SOL    HW255925   8.111  11.978   6.923
18010SOL     OW55926  13.750   5.288   6.974
18010SOL    HW155927  13.842   5.313   6.962
18010SOL    HW255928  13.750   5.236   7.054
18011SOL     OW55929   4.045   9.052   7.639
18011SOL    HW155930   4.129   9.056   7.685
18011SOL    HW255931   4.067   9.077   7.549
18012SOL     OW55932   0.873  13.000   7.043
18012SOL    HW155933   0.901  13.092   7.044
18012SOL    HW255934   0.821  12.991   6.963
18013SOL     OW55935   0.968   1.771   7.883
18013SOL    HW155936   0.920   1.688   7.882
18013SOL    HW255937   0.915   1.828   7.827
18014SOL     OW55938   4.222   3.854   5.741
18014SOL    HW155939   4.265   3.769   5.730
18014SOL    HW255940   4.209   3.887   5.652
18015SOL     OW55941   7.748   4.380   7.826
18015SOL    HW155942   7.819   4.444   7.827
18015SOL    HW255943   7.680   4.420   7.773
18016SOL     OW55944  12.856   9.502   1.666
18016SOL    HW155945  12.937   9.549   1.687
18016SOL    HW255946  12.866   9.418   1.712
18017SOL     OW55947  14.742  10.053   3.879
18017SOL    HW155948  14.677   9.983   3.867
18017SOL    HW255949  14.826  10.007   3.880
18018SOL     OW55950  12.124  12.944   7.581
18018SOL    HW155951  12.216  12.953   7.606
18018SOL    HW255952  12.102  12.853   7.603
18019SOL     OW55953  10.057  13.362  12.958
18019SOL    HW155954  10.018  13.290  13.006
18019SOL    HW255955  10.081  13.325  12.874
18020SOL     OW55956   3.187   4.893   5.756
18020SOL    HW155957   3.231   4.930   5.679
18020SOL    HW255958   3.096   4.885   5.729
18021SOL     OW55959   8.411   2.278   0.578
18021SOL    HW155960   8.361   2.338   0.523
18021SOL    HW255961   8.350   2.206   0.597
18022SOL     OW55962   2.095  14.184   8.915
18022SOL    HW155963   2.116  14.276   8.929
18022SOL    HW255964   2.003  14.184   8.888
18023SOL     OW55965   7.290   7.402  11.657
18023SOL    HW155966   7.314   7.490  11.687
18023SOL    HW255967   7.197   7.408  11.636
18024SOL     OW55968   8.562   7.377   6.480
18024SOL    HW155969   8.561   7.464   6.439
18024SOL    HW255970   8.479   7.338   6.455
18025SOL     OW55971  10.487  14.193  11.703
18025SOL    HW155972  10.569  14.240  11.718
18025SOL    HW255973  10.428  14.225  11.771
18026SOL     OW55974   9.063  11.432   8.719
18026SOL    HW155975   8.987  11.466   8.671
18026SOL    HW255976   9.026  11.365   8.777
18027SOL     OW55977  10.259   9.806   0.021
18027SOL    HW155978  10.293   9.739  14.832
18027SOL    HW255979  10.319   9.880   0.011
18028SOL     OW55980   5.453   4.084  10.027
18028SOL    HW155981   5.478   4.173  10.054
18028SOL    HW255982   5.375   4.096   9.974
18029SOL     OW55983   0.156  12.153   9.544
18029SOL    HW155984   0.170  12.142   9.450
18029SOL    HW255985   0.197  12.237   9.565
18030SOL     OW55986  13.811   5.823   1.037
18030SOL    HW155987  13.836   5.799   0.948
18030SOL    HW255988  13.833   5.916   1.044
18031SOL     OW55989  14.446   3.297  12.131
18031SOL    HW155990  14.449   3.378  12.080
18031SOL    HW255991  14.537   3.266  12.132
18032SOL     OW55992   4.210   0.458   1.266
18032SOL    HW155993   4.178   0.481   1.354
18032SOL    HW255994   4.301   0.486   1.266
18033SOL     OW55995  12.680   5.379   2.402
18033SOL    HW155996  12.688   5.287   2.377
18033SOL    HW255997  12.674   5.377   2.498
18034SOL     OW55998   6.430   9.446   5.611
18034SOL    HW155999   6.495   9.514   5.628
18034SOL    HW256000   6.480   9.371   5.579
18035SOL     OW56001   7.900   8.118   1.106
18035SOL    HW156002   7.995   8.128   1.108
18035SOL    HW256003   7.875   8.103   1.197
18036SOL     OW56004   1.859  10.384   1.976
18036SOL    HW156005   1.889  10.318   1.914
18036SOL    HW256006   1.869  10.341   2.062
18037SOL     OW56007  11.973  12.123   4.648
18037SOL    HW156008  12.015  12.209   4.650
18037SOL    HW256009  11.959  12.100   4.740
18038SOL     OW56010   2.017   3.688   4.613
18038SOL    HW156011   2.098   3.710   4.567
18038SOL    HW256012   2.010   3.755   4.681
18039SOL     OW56013   0.953   6.325   1.899
18039SOL    HW156014   1.017   6.254   1.897
18039SOL    HW256015   1.001   6.400   1.933
18040SOL     OW56016   2.926   9.336  13.508
18040SOL    HW156017   2.914   9.410  13.567
18040SOL    HW256018   3.019   9.314  13.514
18041SOL     OW56019   9.431   6.372  11.638
18041SOL    HW156020   9.372   6.302  11.668
18041SOL    HW256021   9.433   6.361  11.543
18042SOL     OW56022   0.213  14.027   3.925
18042SOL    HW156023   0.182  14.093   3.863
18042SOL    HW256024   0.133  13.989   3.962
18043SOL     OW56025   3.693   1.840   4.526
18043SOL    HW156026   3.734   1.758   4.498
18043SOL    HW256027   3.608   1.813   4.562
18044SOL     OW56028  11.700  14.795  12.161
18044SOL    HW156029  11.614  14.776  12.199
18044SOL    HW256030  11.759  14.796  12.236
18045SOL     OW56031  11.210   2.239  14.820
18045SOL    HW156032  11.131   2.200  14.858
18045SOL    HW256033  11.177   2.310  14.766
18046SOL     OW56034   5.353   6.065   5.277
18046SOL    HW156035   5.421   6.107   5.224
18046SOL    HW256036   5.369   5.972   5.267
18047SOL     OW56037   7.126  14.364  11.068
18047SOL    HW156038   7.059  14.411  11.019
18047SOL    HW256039   7.090  14.354  11.156
18048SOL     OW56040   0.008   0.772  11.803
18048SOL    HW156041  14.829   0.780  11.721
18048SOL    HW256042  14.810   0.765  11.870
18049SOL     OW56043   3.459  14.274   1.469
18049SOL    HW156044   3.527  14.253   1.533
18049SOL    HW256045   3.501  14.334   1.408
18050SOL     OW56046   0.640   0.168  14.431
18050SOL    HW156047   0.618   0.116  14.353
18050SOL    HW256048   0.736   0.168  14.432
18051SOL     OW56049   8.978   0.385  11.750
18051SOL    HW156050   9.015   0.435  11.677
18051SOL    HW256051   9.045   0.391  11.818
18052SOL     OW56052   5.596  13.342   4.641
18052SOL    HW156053   5.577  13.394   4.719
18052SOL    HW256054   5.598  13.407   4.570
18053SOL     OW56055   0.948  13.594   3.533
18053SOL    HW156056   0.981  13.571   3.447
18053SOL    HW256057   0.856  13.619   3.519
18054SOL     OW56058   3.507   3.062  12.858
18054SOL    HW156059   3.531   2.993  12.797
18054SOL    HW256060   3.587   3.081  12.906
18055SOL     OW56061   3.104  13.993   4.838
18055SOL    HW156062   3.102  14.079   4.795
18055SOL    HW256063   3.098  13.931   4.765
18056SOL     OW56064  13.594   8.150   8.119
18056SOL    HW156065  13.686   8.163   8.100
18056SOL    HW256066  13.573   8.063   8.085
18057SOL     OW56067   9.237   5.400   8.345
18057SOL    HW156068   9.247   5.492   8.371
18057SOL    HW256069   9.157   5.398   8.292
18058SOL     OW56070   1.245  10.815   5.589
18058SOL    HW156071   1.157  10.824   5.626
18058SOL    HW256072   1.298  10.877   5.640
18059SOL     OW56073   8.413   1.940  12.724
18059SOL    HW156074   8.457   1.961  12.641
18059SOL    HW256075   8.320   1.939  12.703
18060SOL     OW56076   6.767   2.937   9.494
18060SOL    HW156077   6.699   2.897   9.440
18060SOL    HW256078   6.817   2.992   9.434
18061SOL     OW56079  14.019  13.900   4.575
18061SOL    HW156080  14.111  13.879   4.566
18061SOL    HW256081  13.987  13.910   4.485
18062SOL     OW56082  11.855  11.787   8.592
18062SOL    HW156083  11.893  11.746   8.670
18062SOL    HW256084  11.845  11.715   8.530
18063SOL     OW56085   1.852   9.038   9.068
18063SOL    HW156086   1.759   9.019   9.059
18063SOL    HW256087   1.869   9.107   9.005
18064SOL     OW56088  12.388  13.027  10.159
18064SOL    HW156089  12.436  12.956  10.201
18064SOL    HW256090  12.337  12.984  10.090
18065SOL     OW56091   0.496   0.143   2.807
18065SOL    HW156092   0.447   0.062   2.824
18065SOL    HW256093   0.585   0.114   2.789
18066SOL     OW56094   4.089   6.961  12.712
18066SOL    HW156095   4.171   6.990  12.751
18066SOL    HW256096   4.115   6.890  12.653
18067SOL     OW56097  14.040   5.229   3.058
18067SOL    HW156098  14.119   5.279   3.037
18067SOL    HW256099  14.044   5.153   2.999
18068SOL     OW56100   3.948  12.699  11.259
18068SOL    HW156101   3.855  12.690  11.281
18068SOL    HW256102   3.966  12.626  11.199
18069SOL     OW56103   4.963   2.471   8.732
18069SOL    HW156104   5.049   2.484   8.770
18069SOL    HW256105   4.950   2.547   8.675
18070SOL     OW56106   5.889   5.017   7.122
18070SOL    HW156107   5.935   5.047   7.044
18070SOL    HW256108   5.843   5.095   7.154
18071SOL     OW56109   4.346   0.457  11.213
18071SOL    HW156110   4.318   0.413  11.293
18071SOL    HW256111   4.436   0.484  11.231
18072SOL     OW56112  12.132   4.425  10.073
18072SOL    HW156113  12.051   4.474  10.087
18072SOL    HW256114  12.104   4.337  10.048
18073SOL     OW56115  11.710   7.377   2.007
18073SOL    HW156116  11.713   7.307   1.942
18073SOL    HW256117  11.676   7.335   2.086
18074SOL     OW56118  14.789  10.934   2.993
18074SOL    HW156119  14.866  10.950   2.938
18074SOL    HW256120  14.753  11.021   3.007
18075SOL     OW56121  12.361   4.507   8.197
18075SOL    HW156122  12.282   4.507   8.251
18075SOL    HW256123  12.358   4.424   8.150
18076SOL     OW56124   8.164   5.201   4.746
18076SOL    HW156125   8.192   5.292   4.741
18076SOL    HW256126   8.242   5.150   4.722
18077SOL     OW56127  10.467   2.032  12.701
18077SOL    HW156128  10.434   2.121  12.692
18077SOL    HW256129  10.544   2.039  12.758
18078SOL     OW56130   0.359  13.735   1.811
18078SOL    HW156131   0.434  13.675   1.813
18078SOL    HW256132   0.332  13.743   1.902
18079SOL     OW56133   3.530  10.290  14.247
18079SOL    HW156134   3.469  10.298  14.321
18079SOL    HW256135   3.502  10.357  14.185
18080SOL     OW56136   7.235   4.195   0.509
18080SOL    HW156137   7.304   4.196   0.574
18080SOL    HW256138   7.259   4.124   0.449
18081SOL     OW56139   5.030   6.457   4.222
18081SOL    HW156140   5.048   6.549   4.202
18081SOL    HW256141   4.968   6.460   4.295
18082SOL     OW56142   2.248   2.051   0.357
18082SOL    HW156143   2.197   2.052   0.276
18082SOL    HW256144   2.336   2.075   0.329
18083SOL     OW56145   3.320   7.707   9.198
18083SOL    HW156146   3.358   7.622   9.220
18083SOL    HW256147   3.252   7.688   9.134
18084SOL     OW56148  14.226  12.931   0.552
18084SOL    HW156149  14.188  12.848   0.582
18084SOL    HW256150  14.176  12.954   0.473
18085SOL     OW56151   8.258  13.401   8.344
18085SOL    HW156152   8.198  13.463   8.386
18085SOL    HW256153   8.306  13.454   8.281
18086SOL     OW56154   3.783   1.946   0.987
18086SOL    HW156155   3.819   1.904   0.910
18086SOL    HW256156   3.707   1.995   0.954
18087SOL     OW56157   0.738  11.129   8.801
18087SOL    HW156158   0.755  11.217   8.767
18087SOL    HW256159   0.655  11.138   8.848
18088SOL     OW56160   6.453   5.240  11.730
18088SOL    HW156161   6.504   5.303  11.780
18088SOL    HW256162   6.394   5.293  11.676
18089SOL     OW56163   3.944   9.350  13.558
18089SOL    HW156164   4.021   9.406  13.567
18089SOL    HW256165   3.972   9.265  13.592
18090SOL     OW56166   5.627   8.373   2.564
18090SOL    HW156167   5.681   8.443   2.525
18090SOL    HW256168   5.571   8.419   2.627
18091SOL     OW56169  13.483   9.412  14.629
18091SOL    HW156170  13.421   9.348  14.594
18091SOL    HW256171  13.515   9.373  14.710
18092SOL     OW56172  10.846   0.405   2.727
18092SOL    HW156173  10.842   0.327   2.783
18092SOL    HW256174  10.848   0.369   2.638
18093SOL     OW56175   3.090  13.403  11.752
18093SOL    HW156176   3.132  13.444  11.828
18093SOL    HW256177   3.141  13.434  11.678
18094SOL     OW56178   0.609  10.806  10.386
18094SOL    HW156179   0.630  10.899  10.398
18094SOL    HW256180   0.614  10.792  10.292
18095SOL     OW56181  11.620   4.721   1.955
18095SOL    HW156182  11.705   4.754   1.926
18095SOL    HW256183  11.610   4.638   1.910
18096SOL     OW56184  10.870   2.160   5.758
18096SOL    HW156185  10.963   2.148   5.739
18096SOL    HW256186  10.856   2.254   5.749
18097SOL     OW56187   3.503  10.400   7.548
18097SOL    HW156188   3.477  10.335   7.482
18097SOL    HW256189   3.445  10.383   7.622
18098SOL     OW56190   7.466  11.656   9.735
18098SOL    HW156191   7.373  11.641   9.716
18098SOL    HW256192   7.494  11.718   9.668
18099SOL     OW56193  14.175   5.506   0.041
18099SOL    HW156194  14.267   5.532   0.047
18099SOL    HW256195  14.174   5.437  14.845
18100SOL     OW56196   0.952   0.129  13.284
18100SOL    HW156197   1.036   0.162  13.251
18100SOL    HW256198   0.904   0.207  13.309
18101SOL     OW56199   2.722   0.482   6.332
18101SOL    HW156200   2.723   0.408   6.271
18101SOL    HW256201   2.803   0.529   6.315
18102SOL     OW56202   2.844  13.165   3.596
18102SOL    HW156203   2.762  13.130   3.630
18102SOL    HW256204   2.818  13.234   3.535
18103SOL     OW56205   3.592   8.512   4.835
18103SOL    HW156206   3.534   8.471   4.900
18103SOL    HW256207   3.644   8.439   4.801
18104SOL     OW56208  14.438   3.844   9.508
18104SOL    HW156209  14.440   3.795   9.427
18104SOL    HW256210  14.492   3.921   9.491
18105SOL     OW56211   8.112  10.868   0.370
18105SOL    HW156212   8.082  10.915   0.292
18105SOL    HW256213   8.175  10.804   0.338
18106SOL     OW56214   1.668   6.314   7.463
18106SOL    HW156215   1.669   6.302   7.368
18106SOL    HW256216   1.575   6.310   7.487
18107SOL     OW56217  13.220   2.755  11.789
18107SOL    HW156218  13.233   2.774  11.696
18107SOL    HW256219  13.254   2.666  11.800
18108SOL     OW56220  11.506  11.357   8.176
18108SOL    HW156221  11.523  11.269   8.208
18108SOL    HW256222  11.466  11.402   8.250
18109SOL     OW56223   5.931  10.266   2.104
18109SOL    HW156224   5.976  10.189   2.071
18109SOL    HW256225   5.841  10.236   2.120
18110SOL     OW56226   6.979   6.062   9.840
18110SOL    HW156227   7.040   6.112   9.894
18110SOL    HW256228   6.897   6.061   9.889
18111SOL     OW56229   8.700  10.322   3.144
18111SOL    HW156230   8.634  10.345   3.209
18111SOL    HW256231   8.715  10.228   3.158
18112SOL     OW56232  14.574  10.141   2.216
18112SOL    HW156233  14.586  10.054   2.178
18112SOL    HW256234  14.483  10.162   2.198
18113SOL     OW56235   8.112   1.949  12.814
18113SOL    HW156236   8.145   1.978  12.899
18113SOL    HW256237   8.026   1.991  12.806
18114SOL     OW56238   1.790   1.383   9.949
18114SOL    HW156239   1.864   1.428   9.909
18114SOL    HW256240   1.821   1.361  10.037
18115SOL     OW56241   6.622  12.198   9.333
18115SOL    HW156242   6.717  12.209   9.341
18115SOL    HW256243   6.612  12.113   9.290
18116SOL     OW56244   5.631   7.189  11.000
18116SOL    HW156245   5.660   7.121  11.060
18116SOL    HW256246   5.637   7.270  11.050
18117SOL     OW56247   6.344   5.474   2.480
18117SOL    HW156248   6.329   5.388   2.441
18117SOL    HW256249   6.287   5.477   2.557
18118SOL     OW56250   2.020  11.947  10.478
18118SOL    HW156251   1.983  11.966  10.564
18118SOL    HW256252   1.951  11.899  10.432
18119SOL     OW56253  14.210  11.426  10.909
18119SOL    HW156254  14.274  11.448  10.842
18119SOL    HW256255  14.213  11.500  10.970
18120SOL     OW56256   9.479  13.030   0.761
18120SOL    HW156257   9.527  12.950   0.782
18120SOL    HW256258   9.525  13.066   0.685
18121SOL     OW56259  10.140   7.604   9.040
18121SOL    HW156260  10.076   7.673   9.020
18121SOL    HW256261  10.223   7.650   9.045
18122SOL     OW56262   3.744  12.139   7.094
18122SOL    HW156263   3.752  12.216   7.151
18122SOL    HW256264   3.781  12.168   7.010
18123SOL     OW56265  11.924  11.420   3.932
18123SOL    HW156266  11.882  11.344   3.891
18123SOL    HW256267  11.856  11.486   3.936
18124SOL     OW56268   7.935   6.860   8.137
18124SOL    HW156269   7.898   6.851   8.050
18124SOL    HW256270   7.964   6.951   8.142
18125SOL     OW56271   4.373   7.132   8.231
18125SOL    HW156272   4.407   7.074   8.299
18125SOL    HW256273   4.312   7.077   8.181
18126SOL     OW56274   3.407   1.258   4.806
18126SOL    HW156275   3.417   1.351   4.783
18126SOL    HW256276   3.399   1.214   4.721
18127SOL     OW56277   1.483   0.836  11.477
18127SOL    HW156278   1.505   0.928  11.493
18127SOL    HW256279   1.507   0.821  11.386
18128SOL     OW56280  10.822   0.201  13.469
18128SOL    HW156281  10.759   0.144  13.424
18128SOL    HW256282  10.877   0.237  13.399
18129SOL     OW56283   0.921   0.860   5.405
18129SOL    HW156284   0.903   0.784   5.350
18129SOL    HW256285   0.929   0.933   5.344
18130SOL     OW56286   5.230   6.426   4.748
18130SOL    HW156287   5.219   6.437   4.842
18130SOL    HW256288   5.319   6.393   4.738
18131SOL     OW56289   0.190   5.623   3.385
18131SOL    HW156290   0.276   5.649   3.419
18131SOL    HW256291   0.133   5.624   3.462
18132SOL     OW56292   8.782   4.330   2.702
18132SOL    HW156293   8.856   4.336   2.643
18132SOL    HW256294   8.781   4.239   2.731
18133SOL     OW56295   6.049   3.358   0.813
18133SOL    HW156296   6.079   3.364   0.904
18133SOL    HW256297   6.046   3.448   0.783
18134SOL     OW56298  12.913   3.138  12.751
18134SOL    HW156299  12.992   3.086  12.764
18134SOL    HW256300  12.945   3.224  12.722
18135SOL     OW56301  13.630   0.220  14.841
18135SOL    HW156302  13.575   0.298  14.845
18135SOL    HW256303  13.621   0.188  14.751
18136SOL     OW56304   0.633   1.142  13.385
18136SOL    HW156305   0.568   1.106  13.444
18136SOL    HW256306   0.695   1.188  13.442
18137SOL     OW56307  10.752  11.573   4.898
18137SOL    HW156308  10.661  11.543   4.903
18137SOL    HW256309  10.797  11.504   4.849
18138SOL     OW56310  13.875   2.549   0.648
18138SOL    HW156311  13.865   2.509   0.734
18138SOL    HW256312  13.879   2.475   0.587
18139SOL     OW56313  10.606   8.750  13.640
18139SOL    HW156314  10.662   8.770  13.715
18139SOL    HW256315  10.576   8.660  13.656
18140SOL     OW56316  12.614   4.700  10.911
18140SOL    HW156317  12.577   4.743  10.834
18140SOL    HW256318  12.543   4.700  10.975
18141SOL     OW56319  10.983   1.603  10.512
18141SOL    HW156320  10.953   1.573  10.426
18141SOL    HW256321  11.043   1.534  10.542
18142SOL     OW56322  13.632   5.022  10.711
18142SOL    HW156323  13.648   5.114  10.732
18142SOL    HW256324  13.550   5.023  10.661
18143SOL     OW56325   6.893  14.694   4.373
18143SOL    HW156326   6.889  14.789   4.358
18143SOL    HW256327   6.967  14.664   4.321
18144SOL     OW56328   3.074   8.909   0.468
18144SOL    HW156329   2.997   8.939   0.516
18144SOL    HW256330   3.055   8.929   0.377
18145SOL     OW56331  13.553  10.252  11.409
18145SOL    HW156332  13.530  10.255  11.317
18145SOL    HW256333  13.469  10.250  11.455
18146SOL     OW56334   1.401  13.724   5.706
18146SOL    HW156335   1.438  13.796   5.757
18146SOL    HW256336   1.430  13.741   5.616
18147SOL     OW56337   0.646  14.457  10.909
18147SOL    HW156338   0.732  14.439  10.870
18147SOL    HW256339   0.660  14.537  10.960
18148SOL     OW56340   6.957   0.522  12.138
18148SOL    HW156341   6.997   0.437  12.155
18148SOL    HW256342   6.940   0.559  12.225
18149SOL     OW56343   3.765   0.935   6.932
18149SOL    HW156344   3.758   0.849   6.973
18149SOL    HW256345   3.838   0.978   6.977
18150SOL     OW56346  10.529  14.708   1.857
18150SOL    HW156347  10.535  14.626   1.908
18150SOL    HW256348  10.568  14.687   1.773
18151SOL     OW56349   4.289   1.893   7.666
18151SOL    HW156350   4.226   1.912   7.597
18151SOL    HW256351   4.237   1.889   7.746
18152SOL     OW56352   9.421  12.175   9.234
18152SOL    HW156353   9.388  12.249   9.285
18152SOL    HW256354   9.388  12.192   9.145
18153SOL     OW56355  12.908   6.309  11.398
18153SOL    HW156356  12.886   6.275  11.485
18153SOL    HW256357  12.993   6.270  11.378
18154SOL     OW56358   9.740   5.589   2.380
18154SOL    HW156359   9.827   5.590   2.421
18154SOL    HW256360   9.691   5.657   2.426
18155SOL     OW56361   4.734   6.918   1.310
18155SOL    HW156362   4.660   6.958   1.355
18155SOL    HW256363   4.694   6.856   1.249
18156SOL     OW56364   4.824   4.255   3.957
18156SOL    HW156365   4.865   4.279   3.873
18156SOL    HW256366   4.883   4.188   3.993
18157SOL     OW56367   7.449  12.933   3.843
18157SOL    HW156368   7.495  13.017   3.844
18157SOL    HW256369   7.388  12.941   3.769
18158SOL     OW56370  12.603   6.980   3.574
18158SOL    HW156371  12.579   7.040   3.504
18158SOL    HW256372  12.696   6.996   3.589
18159SOL     OW56373   5.520   6.673   6.800
18159SOL    HW156374   5.520   6.639   6.710
18159SOL    HW256375   5.455   6.744   6.798
18160SOL     OW56376  13.123   6.761  10.649
18160SOL    HW156377  13.036   6.779  10.613
18160SOL    HW256378  13.128   6.816  10.727
18161SOL     OW56379  12.227   6.588   2.924
18161SOL    HW156380  12.196   6.521   2.985
18161SOL    HW256381  12.179   6.667   2.949
18162SOL     OW56382  10.009  12.378  13.215
18162SOL    HW156383  10.036  12.379  13.123
18162SOL    HW256384   9.927  12.427  13.216
18163SOL     OW56385  14.176  14.554  10.130
18163SOL    HW156386  14.181  14.471  10.083
18163SOL    HW256387  14.107  14.542  10.195
18164SOL     OW56388  10.783   6.954   1.028
18164SOL    HW156389  10.704   6.937   0.977
18164SOL    HW256390  10.847   6.987   0.964
18165SOL     OW56391  12.210   0.038   0.573
18165SOL    HW156392  12.193   0.105   0.507
18165SOL    HW256393  12.125  14.865   0.585
18166SOL     OW56394   3.275  11.742  11.142
18166SOL    HW156395   3.355  11.789  11.164
18166SOL    HW256396   3.298  11.692  11.064
18167SOL     OW56397   3.841   1.347   8.809
18167SOL    HW156398   3.835   1.404   8.886
18167SOL    HW256399   3.789   1.270   8.832
18168SOL     OW56400   9.980   3.503  11.401
18168SOL    HW156401   9.970   3.598  11.397
18168SOL    HW256402  10.070   3.486  11.374
18169SOL     OW56403   2.030   5.862   6.263
18169SOL    HW156404   2.077   5.872   6.180
18169SOL    HW256405   1.974   5.786   6.250
18170SOL     OW56406  13.075  10.442  12.894
18170SOL    HW156407  13.162  10.452  12.932
18170SOL    HW256408  13.031  10.525  12.912
18171SOL     OW56409   0.946  13.403   1.339
18171SOL    HW156410   0.861  13.377   1.305
18171SOL    HW256411   0.987  13.452   1.268
18172SOL     OW56412  12.577   7.349   3.192
18172SOL    HW156413  12.633   7.407   3.141
18172SOL    HW256414  12.508   7.321   3.131
18173SOL     OW56415   3.246   7.504   0.445
18173SOL    HW156416   3.233   7.458   0.362
18173SOL    HW256417   3.267   7.594   0.420
18174SOL     OW56418   9.038   0.891   1.619
18174SOL    HW156419   9.067   0.952   1.687
18174SOL    HW256420   8.953   0.926   1.591
18175SOL     OW56421  11.034  12.422  12.747
18175SOL    HW156422  10.944  12.432  12.718
18175SOL    HW256423  11.031  12.350  12.810
18176SOL     OW56424  10.397   9.233  11.388
18176SOL    HW156425  10.404   9.238  11.293
18176SOL    HW256426  10.359   9.147  11.405
18177SOL     OW56427  10.097   3.239  10.849
18177SOL    HW156428  10.118   3.305  10.783
18177SOL    HW256429  10.152   3.164  10.827
18178SOL     OW56430  14.560   4.328  14.120
18178SOL    HW156431  14.564   4.369  14.034
18178SOL    HW256432  14.643   4.281  14.129
18179SOL     OW56433   9.729   4.250   5.234
18179SOL    HW156434   9.707   4.168   5.279
18179SOL    HW256435   9.654   4.267   5.178
18180SOL     OW56436   4.797  14.782  11.546
18180SOL    HW156437   4.784  14.751  11.636
18180SOL    HW256438   4.711  14.817  11.521
18181SOL     OW56439   1.721   2.033   3.243
18181SOL    HW156440   1.813   2.021   3.220
18181SOL    HW256441   1.700   2.122   3.214
18182SOL     OW56442   9.364   7.954   3.685
18182SOL    HW156443   9.400   8.007   3.756
18182SOL    HW256444   9.294   7.902   3.726
18183SOL     OW56445   5.075  13.174   3.803
18183SOL    HW156446   5.081  13.144   3.893
18183SOL    HW256447   5.151  13.231   3.791
18184SOL     OW56448   6.182  12.704   0.714
18184SOL    HW156449   6.102  12.743   0.749
18184SOL    HW256450   6.245  12.776   0.714
18185SOL     OW56451   2.526  10.816   1.366
18185SOL    HW156452   2.611  10.794   1.329
18185SOL    HW256453   2.546  10.868   1.444
18186SOL     OW56454  12.173   4.466   9.160
18186SOL    HW156455  12.133   4.439   9.242
18186SOL    HW256456  12.218   4.387   9.128
18187SOL     OW56457   2.877   0.904   3.254
18187SOL    HW156458   2.795   0.854   3.260
18187SOL    HW256459   2.942   0.848   3.296
18188SOL     OW56460   2.972   4.525   5.167
18188SOL    HW156461   2.939   4.597   5.113
18188SOL    HW256462   3.067   4.529   5.157
18189SOL     OW56463   2.074  10.210  12.960
18189SOL    HW156464   2.034  10.202  12.873
18189SOL    HW256465   2.140  10.141  12.962
18190SOL     OW56466   0.352   7.126   6.965
18190SOL    HW156467   0.324   7.123   7.057
18190SOL    HW256468   0.280   7.167   6.919
18191SOL     OW56469  10.102   5.364  14.363
18191SOL    HW156470  10.026   5.387  14.418
18191SOL    HW256471  10.156   5.442  14.363
18192SOL     OW56472   3.999  14.049   9.237
18192SOL    HW156473   4.075  14.073   9.185
18192SOL    HW256474   4.028  13.975   9.290
18193SOL     OW56475   8.595  14.239   8.540
18193SOL    HW156476   8.582  14.190   8.458
18193SOL    HW256477   8.666  14.299   8.521
18194SOL     OW56478   5.688   9.773  11.185
18194SOL    HW156479   5.712   9.701  11.127
18194SOL    HW256480   5.593   9.771  11.188
18195SOL     OW56481   4.003   6.484  13.864
18195SOL    HW156482   3.947   6.454  13.793
18195SOL    HW256483   4.092   6.472  13.832
18196SOL     OW56484   2.905   6.928   8.278
18196SOL    HW156485   2.979   6.887   8.322
18196SOL    HW256486   2.926   6.922   8.185
18197SOL     OW56487   0.656   0.363   7.905
18197SOL    HW156488   0.641   0.269   7.903
18197SOL    HW256489   0.571   0.401   7.927
18198SOL     OW56490   0.893  12.837   4.698
18198SOL    HW156491   0.885  12.816   4.605
18198SOL    HW256492   0.962  12.778   4.730
18199SOL     OW56493   3.114   2.170   4.040
18199SOL    HW156494   3.038   2.114   4.054
18199SOL    HW256495   3.177   2.115   3.993
18200SOL     OW56496  13.252   0.344   0.151
18200SOL    HW156497  13.169   0.389   0.170
18200SOL    HW256498  13.226   0.256   0.124
18201SOL     OW56499  11.972  14.277   3.890
18201SOL    HW156500  12.019  14.206   3.934
18201SOL    HW256501  12.011  14.357   3.926
18202SOL     OW56502   1.509  14.637  12.503
18202SOL    HW156503   1.576  14.577  12.535
18202SOL    HW256504   1.548  14.723  12.510
18203SOL     OW56505  14.052   6.313   8.052
18203SOL    HW156506  14.076   6.298   8.144
18203SOL    HW256507  14.134   6.335   8.009
18204SOL     OW56508   7.596   1.521  10.155
18204SOL    HW156509   7.631   1.440  10.191
18204SOL    HW256510   7.673   1.578  10.145
18205SOL     OW56511  13.511   3.442  14.640
18205SOL    HW156512  13.477   3.453  14.729
18205SOL    HW256513  13.550   3.354  14.640
18206SOL     OW56514  13.862   1.581  11.245
18206SOL    HW156515  13.902   1.652  11.196
18206SOL    HW256516  13.784   1.558  11.194
18207SOL     OW56517   5.203   2.619   7.722
18207SOL    HW156518   5.130   2.658   7.674
18207SOL    HW256519   5.258   2.693   7.746
18208SOL     OW56520   4.325   5.042  13.431
18208SOL    HW156521   4.390   5.061  13.499
18208SOL    HW256522   4.293   5.128  13.403
18209SOL     OW56523  12.477   9.143  12.168
18209SOL    HW156524  12.484   9.237  12.155
18209SOL    HW256525  12.397   9.118  12.123
18210SOL     OW56526   0.680  10.629  10.824
18210SOL    HW156527   0.594  10.600  10.853
18210SOL    HW256528   0.741  10.563  10.858
18211SOL     OW56529   4.557  11.781  11.915
18211SOL    HW156530   4.473  11.826  11.906
18211SOL    HW256531   4.621  11.851  11.927
18212SOL     OW56532  10.169   2.247   4.856
18212SOL    HW156533  10.122   2.234   4.938
18212SOL    HW256534  10.224   2.324   4.871
18213SOL     OW56535  14.639  14.709   4.503
18213SOL    HW156536  14.688  14.636   4.465
18213SOL    HW256537  14.568  14.666   4.551
18214SOL     OW56538   2.161  14.190   9.350
18214SOL    HW156539   2.222  14.208   9.421
18214SOL    HW256540   2.111  14.272   9.341
18215SOL     OW56541   9.662   9.381  11.980
18215SOL    HW156542   9.744   9.345  12.014
18215SOL    HW256543   9.648   9.336  11.896
18216SOL     OW56544   0.875   7.199   4.991
18216SOL    HW156545   0.839   7.210   5.079
18216SOL    HW256546   0.807   7.152   4.943
18217SOL     OW56547   1.639   6.256   4.495
18217SOL    HW156548   1.700   6.198   4.542
18217SOL    HW256549   1.669   6.254   4.404
18218SOL     OW56550  10.862  10.642   8.383
18218SOL    HW156551  10.793  10.657   8.319
18218SOL    HW256552  10.937  10.691   8.349
18219SOL     OW56553   2.152  10.890  14.608
18219SOL    HW156554   2.140  10.911  14.515
18219SOL    HW256555   2.070  10.919  14.649
18220SOL     OW56556   3.353  14.549  11.824
18220SOL    HW156557   3.430  14.594  11.791
18220SOL    HW256558   3.288  14.557  11.754
18221SOL     OW56559   2.965  12.263  14.037
18221SOL    HW156560   2.897  12.307  14.088
18221SOL    HW256561   2.958  12.171  14.063
18222SOL     OW56562  13.340   6.106   3.869
18222SOL    HW156563  13.250   6.076   3.856
18222SOL    HW256564  13.384   6.087   3.787
18223SOL     OW56565  10.977   8.743   9.049
18223SOL    HW156566  11.040   8.679   9.018
18223SOL    HW256567  11.021   8.828   9.038
18224SOL     OW56568   6.182   3.598   2.334
18224SOL    HW156569   6.144   3.540   2.401
18224SOL    HW256570   6.271   3.615   2.364
18225SOL     OW56571   5.184   6.819  13.216
18225SOL    HW156572   5.268   6.795  13.177
18225SOL    HW256573   5.207   6.866  13.296
18226SOL     OW56574  10.337  14.603   6.247
18226SOL    HW156575  10.278  14.599   6.171
18226SOL    HW256576  10.368  14.694   6.248
18227SOL     OW56577   3.510  10.961   0.939
18227SOL    HW156578   3.599  10.980   0.967
18227SOL    HW256579   3.511  10.972   0.844
18228SOL     OW56580   3.419  11.694  10.173
18228SOL    HW156581   3.383  11.607  10.156
18228SOL    HW256582   3.342  11.747  10.195
18229SOL     OW56583   5.820   2.956   0.033
18229SOL    HW156584   5.823   3.050   0.047
18229SOL    HW256585   5.729   2.932   0.052
18230SOL     OW56586   9.340  12.912   3.856
18230SOL    HW156587   9.260  12.885   3.812
18230SOL    HW256588   9.311  12.968   3.928
18231SOL     OW56589  11.611  10.827   4.556
18231SOL    HW156590  11.673  10.816   4.628
18231SOL    HW256591  11.648  10.776   4.484
18232SOL     OW56592  11.505   0.027   7.934
18232SOL    HW156593  11.528   0.093   8.000
18232SOL    HW256594  11.445   0.072   7.875
18233SOL     OW56595   9.028   6.454   8.119
18233SOL    HW156596   8.951   6.509   8.130
18233SOL    HW256597   9.094   6.493   8.177
18234SOL     OW56598   1.112  10.938  11.404
18234SOL    HW156599   1.144  10.995  11.474
18234SOL    HW256600   1.185  10.879  11.385
18235SOL     OW56601  10.064  13.015   5.528
18235SOL    HW156602  10.108  13.082   5.580
18235SOL    HW256603  10.005  12.972   5.590
18236SOL     OW56604   3.839   2.152  11.820
18236SOL    HW156605   3.856   2.059  11.829
18236SOL    HW256606   3.747   2.162  11.845
18237SOL     OW56607   1.410  12.483  10.769
18237SOL    HW156608   1.419  12.411  10.706
18237SOL    HW256609   1.321  12.516  10.756
18238SOL     OW56610  13.822   3.210   6.283
18238SOL    HW156611  13.822   3.205   6.379
18238SOL    HW256612  13.889   3.146   6.256
18239SOL     OW56613  14.789   4.135  13.939
18239SOL    HW156614  14.768   4.227  13.954
18239SOL    HW256615  14.860   4.116  14.001
18240SOL     OW56616   0.813   8.891   1.027
18240SOL    HW156617   0.798   8.958   0.960
18240SOL    HW256618   0.860   8.821   0.980
18241SOL     OW56619   7.029   0.719   1.545
18241SOL    HW156620   7.101   0.686   1.599
18241SOL    HW256621   7.056   0.807   1.520
18242SOL     OW56622  13.664  13.474   4.217
18242SOL    HW156623  13.642  13.541   4.152
18242SOL    HW256624  13.579  13.441   4.248
18243SOL     OW56625   0.421   2.754   7.386
18243SOL    HW156626   0.440   2.818   7.454
18243SOL    HW256627   0.381   2.805   7.315
18244SOL     OW56628   1.542   1.284   8.002
18244SOL    HW156629   1.577   1.203   7.966
18244SOL    HW256630   1.593   1.353   7.960
18245SOL     OW56631  12.284   1.539  12.521
18245SOL    HW156632  12.288   1.450  12.556
18245SOL    HW256633  12.202   1.542  12.473
18246SOL     OW56634  14.013   6.136  12.750
18246SOL    HW156635  13.952   6.081  12.700
18246SOL    HW256636  14.056   6.075  12.810
18247SOL     OW56637   5.667   8.097   2.559
18247SOL    HW156638   5.575   8.072   2.557
18247SOL    HW256639   5.669   8.184   2.520
18248SOL     OW56640   3.615   5.641   2.903
18248SOL    HW156641   3.634   5.557   2.946
18248SOL    HW256642   3.523   5.634   2.878
18249SOL     OW56643  13.737   8.551   9.180
18249SOL    HW156644  13.704   8.462   9.167
18249SOL    HW256645  13.810   8.558   9.119
18250SOL     OW56646   9.470  13.926  11.888
18250SOL    HW156647   9.557  13.930  11.847
18250SOL    HW256648   9.483  13.967  11.974
18251SOL     OW56649   1.251  11.417  14.829
18251SOL    HW156650   1.203  11.497  14.808
18251SOL    HW256651   1.185  11.360  14.868
18252SOL     OW56652  11.262   9.118  12.377
18252SOL    HW156653  11.318   9.135  12.301
18252SOL    HW256654  11.229   9.204  12.402
18253SOL     OW56655   1.307   1.869   5.402
18253SOL    HW156656   1.359   1.946   5.426
18253SOL    HW256657   1.348   1.796   5.448
18254SOL     OW56658   4.279  12.889  13.305
18254SOL    HW156659   4.212  12.827  13.274
18254SOL    HW256660   4.270  12.887  13.400
18255SOL     OW56661  10.850   4.868  11.754
18255SOL    HW156662  10.793   4.903  11.822
18255SOL    HW256663  10.869   4.779  11.783
18256SOL     OW56664   6.134   6.987  11.299
18256SOL    HW156665   6.136   6.971  11.205
18256SOL    HW256666   6.048   6.955  11.327
18257SOL     OW56667   2.157   5.701   7.395
18257SOL    HW156668   2.193   5.613   7.403
18257SOL    HW256669   2.217   5.746   7.336
18258SOL     OW56670   2.994   3.837   4.526
18258SOL    HW156671   2.901   3.839   4.550
18258SOL    HW256672   3.029   3.919   4.560
18259SOL     OW56673  12.961  13.743   8.201
18259SOL    HW156674  13.053  13.736   8.178
18259SOL    HW256675  12.943  13.837   8.197
18260SOL     OW56676   8.019  14.435   3.822
18260SOL    HW156677   8.076  14.443   3.899
18260SOL    HW256678   8.002  14.526   3.797
18261SOL     OW56679   7.200   5.309   6.675
18261SOL    HW156680   7.117   5.268   6.648
18261SOL    HW256681   7.211   5.382   6.615
18262SOL     OW56682   1.523   5.199  12.902
18262SOL    HW156683   1.428   5.190  12.897
18262SOL    HW256684   1.557   5.135  12.841
18263SOL     OW56685   4.954   8.036   1.938
18263SOL    HW156686   4.866   8.008   1.963
18263SOL    HW256687   4.953   8.034   1.842
18264SOL     OW56688   1.878   8.606  14.176
18264SOL    HW156689   1.827   8.537  14.134
18264SOL    HW256690   1.827   8.630  14.253
18265SOL     OW56691   0.781   6.001   5.218
18265SOL    HW156692   0.780   5.933   5.151
18265SOL    HW256693   0.716   5.972   5.283
18266SOL     OW56694  13.643  11.733   9.620
18266SOL    HW156695  13.607  11.647   9.644
18266SOL    HW256696  13.604  11.751   9.534
18267SOL     OW56697   7.614   7.331   5.724
18267SOL    HW156698   7.630   7.253   5.776
18267SOL    HW256699   7.599   7.401   5.788
18268SOL     OW56700   2.754  11.893  11.690
18268SOL    HW156701   2.810  11.833  11.641
18268SOL    HW256702   2.770  11.871  11.782
18269SOL     OW56703  11.562   6.516   1.425
18269SOL    HW156704  11.647   6.483   1.396
18269SOL    HW256705  11.576   6.543   1.515
18270SOL     OW56706   4.408   5.748   8.715
18270SOL    HW156707   4.458   5.672   8.689
18270SOL    HW256708   4.469   5.801   8.766
18271SOL     OW56709   4.101  13.691  13.843
18271SOL    HW156710   4.171  13.742  13.802
18271SOL    HW256711   4.117  13.700  13.937
18272SOL     OW56712  12.536   2.625   0.277
18272SOL    HW156713  12.610   2.663   0.229
18272SOL    HW256714  12.544   2.531   0.265
18273SOL     OW56715   5.261  12.495  13.108
18273SOL    HW156716   5.327  12.560  13.083
18273SOL    HW256717   5.302  12.446  13.179
18274SOL     OW56718   3.564   8.002   7.002
18274SOL    HW156719   3.535   8.027   6.915
18274SOL    HW256720   3.606   8.080   7.037
18275SOL     OW56721   6.544  13.897   8.706
18275SOL    HW156722   6.486  13.901   8.782
18275SOL    HW256723   6.487  13.872   8.633
18276SOL     OW56724   8.458   6.169   0.173
18276SOL    HW156725   8.433   6.228   0.101
18276SOL    HW256726   8.376   6.156   0.222
18277SOL     OW56727   6.955   1.060   8.077
18277SOL    HW156728   6.948   1.155   8.090
18277SOL    HW256729   7.045   1.040   8.100
18278SOL     OW56730  12.792   9.851  12.117
18278SOL    HW156731  12.742   9.929  12.094
18278SOL    HW256732  12.839   9.828  12.036
18279SOL     OW56733   8.912   7.752  11.670
18279SOL    HW156734   8.901   7.683  11.736
18279SOL    HW256735   8.823   7.769  11.639
18280SOL     OW56736   4.958   9.678   1.695
18280SOL    HW156737   4.869   9.707   1.675
18280SOL    HW256738   4.965   9.591   1.656
18281SOL     OW56739   9.219   2.047   3.810
18281SOL    HW156740   9.260   2.058   3.725
18281SOL    HW256741   9.137   2.001   3.791
18282SOL     OW56742  11.860  11.178   2.346
18282SOL    HW156743  11.832  11.191   2.436
18282SOL    HW256744  11.857  11.083   2.334
18283SOL     OW56745   4.857   3.847   7.656
18283SOL    HW156746   4.784   3.831   7.597
18283SOL    HW256747   4.856   3.941   7.671
18284SOL     OW56748   3.196   5.693  10.424
18284SOL    HW156749   3.113   5.714  10.381
18284SOL    HW256750   3.262   5.740  10.373
18285SOL     OW56751   8.319   6.011  13.489
18285SOL    HW156752   8.301   6.020  13.583
18285SOL    HW256753   8.346   5.920  13.479
18286SOL     OW56754  10.840   5.515   6.130
18286SOL    HW156755  10.808   5.527   6.040
18286SOL    HW256756  10.906   5.447   6.124
18287SOL     OW56757   3.234   9.520  10.395
18287SOL    HW156758   3.247   9.450  10.331
18287SOL    HW256759   3.230   9.600  10.342
18288SOL     OW56760   5.127   5.928   6.064
18288SOL    HW156761   5.188   5.857   6.044
18288SOL    HW256762   5.071   5.934   5.987
18289SOL     OW56763   8.333  10.424   2.615
18289SOL    HW156764   8.396  10.482   2.571
18289SOL    HW256765   8.252  10.474   2.616
18290SOL     OW56766  13.526   3.981  13.639
18290SOL    HW156767  13.576   3.948  13.713
18290SOL    HW256768  13.564   3.937  13.563
18291SOL     OW56769   9.498   8.386  14.784
18291SOL    HW156770   9.471   8.295  14.787
18291SOL    HW256771   9.421   8.435  14.812
18292SOL     OW56772   7.567   1.466  14.098
18292SOL    HW156773   7.598   1.460  14.007
18292SOL    HW256774   7.644   1.446  14.151
18293SOL     OW56775   9.972   8.324   1.273
18293SOL    HW156776  10.007   8.259   1.213
18293SOL    HW256777  10.044   8.384   1.290
18294SOL     OW56778   0.416   5.186   7.554
18294SOL    HW156779   0.393   5.094   7.568
18294SOL    HW256780   0.359   5.214   7.482
18295SOL     OW56781   1.883   7.838  12.826
18295SOL    HW156782   1.950   7.827  12.894
18295SOL    HW256783   1.931   7.839  12.744
18296SOL     OW56784  10.904   6.294  13.698
18296SOL    HW156785  10.916   6.370  13.641
18296SOL    HW256786  10.912   6.328  13.786
18297SOL     OW56787   4.934  12.508  13.829
18297SOL    HW156788   4.933  12.570  13.902
18297SOL    HW256789   4.862  12.536  13.773
18298SOL     OW56790   1.725   9.207  12.729
18298SOL    HW156791   1.758   9.136  12.784
18298SOL    HW256792   1.804   9.248  12.693
18299SOL     OW56793   7.940  12.915  10.046
18299SOL    HW156794   7.984  12.867   9.976
18299SOL    HW256795   8.007  12.970  10.085
18300SOL     OW56796  11.284   7.799   5.653
18300SOL    HW156797  11.260   7.772   5.742
18300SOL    HW256798  11.379   7.790   5.650
18301SOL     OW56799   4.336   9.607  12.027
18301SOL    HW156800   4.353   9.518  11.997
18301SOL    HW256801   4.273   9.597  12.098
18302SOL     OW56802   4.694   6.270  13.305
18302SOL    HW156803   4.712   6.202  13.240
18302SOL    HW256804   4.726   6.350  13.265
18303SOL     OW56805  13.588   4.997  12.917
18303SOL    HW156806  13.611   5.089  12.909
18303SOL    HW256807  13.518   4.995  12.982
18304SOL     OW56808   6.849  14.260   3.455
18304SOL    HW156809   6.840  14.343   3.407
18304SOL    HW256810   6.914  14.211   3.405
18305SOL     OW56811   2.491   7.854  12.189
18305SOL    HW156812   2.544   7.796  12.134
18305SOL    HW256813   2.404   7.851  12.149
18306SOL     OW56814  11.431  14.276   3.555
18306SOL    HW156815  11.498  14.339   3.582
18306SOL    HW256816  11.405  14.305   3.468
18307SOL     OW56817  13.344   0.335  11.996
18307SOL    HW156818  13.320   0.350  11.905
18307SOL    HW256819  13.409   0.264  11.992
18308SOL     OW56820   4.671  10.986   7.050
18308SOL    HW156821   4.667  10.917   6.984
18308SOL    HW256822   4.754  11.031   7.033
18309SOL     OW56823   9.040  10.838   5.546
18309SOL    HW156824   9.061  10.913   5.603
18309SOL    HW256825   9.125  10.803   5.521
18310SOL     OW56826   0.539  11.034  11.396
18310SOL    HW156827   0.621  11.013  11.441
18310SOL    HW256828   0.553  11.004  11.306
18311SOL     OW56829   4.027   6.433   3.638
18311SOL    HW156830   4.058   6.511   3.591
18311SOL    HW256831   3.998   6.467   3.723
18312SOL     OW56832   4.449  11.961  12.920
18312SOL    HW156833   4.520  12.021  12.896
18312SOL    HW256834   4.439  11.905  12.844
18313SOL     OW56835   3.348  12.504   3.758
18313SOL    HW156836   3.365  12.587   3.714
18313SOL    HW256837   3.258  12.483   3.736
18314SOL     OW56838  12.184   6.420   9.432
18314SOL    HW156839  12.261   6.368   9.454
18314SOL    HW256840  12.218   6.508   9.417
18315SOL     OW56841   4.898  11.842   9.737
18315SOL    HW156842   4.900  11.934   9.763
18315SOL    HW256843   4.869  11.796   9.816
18316SOL     OW56844  11.630   4.760  13.724
18316SOL    HW156845  11.720   4.772  13.754
18316SOL    HW256846  11.615   4.666  13.728
18317SOL     OW56847   8.931   2.942   7.489
18317SOL    HW156848   8.897   2.999   7.420
18317SOL    HW256849   8.899   2.982   7.570
18318SOL     OW56850  10.061   5.147   9.925
18318SOL    HW156851  10.109   5.099   9.993
18318SOL    HW256852   9.994   5.085   9.896
18319SOL     OW56853   3.087   5.119   1.608
18319SOL    HW156854   2.993   5.103   1.620
18319SOL    HW256855   3.102   5.206   1.645
18320SOL     OW56856   7.159   1.762  11.338
18320SOL    HW156857   7.235   1.705  11.339
18320SOL    HW256858   7.176   1.823  11.266
18321SOL     OW56859  10.341  12.808  12.036
18321SOL    HW156860  10.411  12.842  11.980
18321SOL    HW256861  10.370  12.720  12.059
18322SOL     OW56862   4.727   8.356  12.201
18322SOL    HW156863   4.720   8.425  12.267
18322SOL    HW256864   4.685   8.393  12.123
18323SOL     OW56865   3.493   8.479  10.708
18323SOL    HW156866   3.459   8.560  10.668
18323SOL    HW256867   3.415   8.425  10.721
18324SOL     OW56868  10.936   4.826   2.814
18324SOL    HW156869  10.983   4.863   2.888
18324SOL    HW256870  10.896   4.746   2.848
18325SOL     OW56871  14.812  14.566  14.516
18325SOL    HW156872  14.810  14.601  14.427
18325SOL    HW256873   0.023  14.600  14.553
18326SOL     OW56874  13.395  14.740   4.868
18326SOL    HW156875  13.300  14.736   4.881
18326SOL    HW256876  13.424  14.649   4.872
18327SOL     OW56877  12.135   3.347   0.297
18327SOL    HW156878  12.215   3.312   0.335
18327SOL    HW256879  12.075   3.272   0.292
18328SOL     OW56880  12.607   4.969   7.597
18328SOL    HW156881  12.654   4.974   7.680
18328SOL    HW256882  12.532   4.912   7.616
18329SOL     OW56883   0.441   1.377   7.817
18329SOL    HW156884   0.441   1.361   7.723
18329SOL    HW256885   0.446   1.290   7.857
18330SOL     OW56886   8.311   6.995  12.864
18330SOL    HW156887   8.335   7.017  12.954
18330SOL    HW256888   8.315   7.078  12.816
18331SOL     OW56889   3.762   4.943  10.241
18331SOL    HW156890   3.763   4.955  10.146
18331SOL    HW256891   3.675   4.909  10.260
18332SOL     OW56892   4.700  13.481   5.202
18332SOL    HW156893   4.605  13.475   5.195
18332SOL    HW256894   4.717  13.570   5.231
18333SOL     OW56895   6.195  11.390   6.912
18333SOL    HW156896   6.109  11.426   6.891
18333SOL    HW256897   6.182  11.295   6.909
18334SOL     OW56898   4.998   9.396  14.024
18334SOL    HW156899   5.064   9.394  14.094
18334SOL    HW256900   4.981   9.304  14.004
18335SOL     OW56901   9.633   1.077   9.479
18335SOL    HW156902   9.698   1.146   9.488
18335SOL    HW256903   9.673   1.013   9.420
18336SOL     OW56904   9.820   7.359   8.312
18336SOL    HW156905   9.758   7.287   8.323
18336SOL    HW256906   9.872   7.359   8.392
18337SOL     OW56907   2.017   6.041  13.481
18337SOL    HW156908   2.034   5.977  13.412
18337SOL    HW256909   2.055   6.002  13.560
18338SOL     OW56910   5.914   0.331  10.172
18338SOL    HW156911   5.884   0.247  10.205
18338SOL    HW256912   6.008   0.319  10.158
18339SOL     OW56913   5.298  10.620   1.367
18339SOL    HW156914   5.229  10.560   1.339
18339SOL    HW256915   5.262  10.707   1.353
18340SOL     OW56916   0.035  14.229   8.289
18340SOL    HW156917   0.032  14.176   8.210
18340SOL    HW256918  14.814  14.253   8.306
18341SOL     OW56919  13.968   0.682   7.491
18341SOL    HW156920  13.901   0.749   7.503
18341SOL    HW256921  13.919   0.603   7.467
18342SOL     OW56922   2.490   1.492  12.820
18342SOL    HW156923   2.418   1.477  12.758
18342SOL    HW256924   2.555   1.426  12.797
18343SOL     OW56925   8.080   2.896   1.420
18343SOL    HW156926   8.077   2.984   1.382
18343SOL    HW256927   8.156   2.897   1.477
18344SOL     OW56928   8.987   3.835   5.183
18344SOL    HW156929   8.945   3.878   5.258
18344SOL    HW256930   9.044   3.769   5.222
18345SOL     OW56931   6.687  13.406   4.555
18345SOL    HW156932   6.600  13.403   4.515
18345SOL    HW256933   6.672  13.445   4.642
18346SOL     OW56934  11.081   5.113  12.605
18346SOL    HW156935  10.990   5.089  12.590
18346SOL    HW256936  11.118   5.039  12.652
18347SOL     OW56937   5.296   9.727  13.995
18347SOL    HW156938   5.298   9.632  13.982
18347SOL    HW256939   5.386   9.755  13.979
18348SOL     OW56940   9.652  10.911   8.386
18348SOL    HW156941   9.743  10.908   8.358
18348SOL    HW256942   9.640  10.999   8.422
18349SOL     OW56943   4.534   9.922   1.956
18349SOL    HW156944   4.484   9.998   1.984
18349SOL    HW256945   4.512   9.854   2.019
18350SOL     OW56946   9.609  10.635   8.342
18350SOL    HW156947   9.640  10.725   8.328
18350SOL    HW256948   9.681  10.592   8.388
18351SOL     OW56949   1.894  14.213  10.781
18351SOL    HW156950   1.878  14.176  10.694
18351SOL    HW256951   1.809  14.249  10.808
18352SOL     OW56952  11.604   0.062   0.117
18352SOL    HW156953  11.563  14.867   0.060
18352SOL    HW256954  11.536   0.084   0.181
18353SOL     OW56955   9.676   1.648   5.244
18353SOL    HW156956   9.649   1.725   5.194
18353SOL    HW256957   9.745   1.608   5.192
18354SOL     OW56958   7.260   9.077   7.945
18354SOL    HW156959   7.202   9.045   8.015
18354SOL    HW256960   7.200   9.095   7.872
18355SOL     OW56961  10.206   3.718  14.553
18355SOL    HW156962  10.152   3.641  14.574
18355SOL    HW256963  10.229   3.754  14.638
18356SOL     OW56964  14.259   4.028  10.379
18356SOL    HW156965  14.302   4.002  10.298
18356SOL    HW256966  14.287   3.962  10.443
18357SOL     OW56967  13.973  12.572   6.987
18357SOL    HW156968  13.946  12.630   6.916
18357SOL    HW256969  13.897  12.515   7.002
18358SOL     OW56970   8.092   1.559  13.318
18358SOL    HW156971   8.100   1.646  13.279
18358SOL    HW256972   8.182   1.525  13.320
18359SOL     OW56973  13.824   1.336   8.502
18359SOL    HW156974  13.875   1.284   8.564
18359SOL    HW256975  13.870   1.325   8.419
18360SOL     OW56976  13.676  13.766  12.609
18360SOL    HW156977  13.742  13.698  12.625
18360SOL    HW256978  13.640  13.745  12.523
18361SOL     OW56979  12.681  12.821   6.438
18361SOL    HW156980  12.764  12.860   6.467
18361SOL    HW256981  12.639  12.793   6.519
18362SOL     OW56982   5.786   2.541  12.402
18362SOL    HW156983   5.871   2.499  12.413
18362SOL    HW256984   5.781   2.604  12.474
18363SOL     OW56985  11.942   6.426   2.286
18363SOL    HW156986  11.965   6.352   2.342
18363SOL    HW256987  11.877   6.474   2.337
18364SOL     OW56988   2.637  12.573   2.590
18364SOL    HW156989   2.549  12.536   2.597
18364SOL    HW256990   2.669  12.577   2.680
18365SOL     OW56991   1.032   2.748  12.021
18365SOL    HW156992   1.073   2.738  12.107
18365SOL    HW256993   1.095   2.798  11.970
18366SOL     OW56994   3.150   7.416   0.708
18366SOL    HW156995   3.190   7.407   0.621
18366SOL    HW256996   3.064   7.376   0.699
18367SOL     OW56997   3.025  10.882   2.840
18367SOL    HW156998   3.079  10.853   2.914
18367SOL    HW256999   2.993  10.968   2.867
18368SOL     OW57000   1.594  14.652   6.843
18368SOL    HW157001   1.623  14.585   6.905
18368SOL    HW257002   1.617  14.735   6.885
18369SOL     OW57003   8.413  11.989  12.593
18369SOL    HW157004   8.394  11.919  12.655
18369SOL    HW257005   8.370  12.066  12.629
18370SOL     OW57006   0.827  10.806   6.321
18370SOL    HW157007   0.906  10.833   6.368
18370SOL    HW257008   0.764  10.876   6.339
18371SOL     OW57009   1.923  14.246   0.712
18371SOL    HW157010   1.909  14.152   0.700
18371SOL    HW257011   1.884  14.286   0.634
18372SOL     OW57012   2.358   0.209   8.704
18372SOL    HW157013   2.404   0.156   8.639
18372SOL    HW257014   2.411   0.202   8.783
18373SOL     OW57015   0.512   4.791   7.983
18373SOL    HW157016   0.511   4.831   8.070
18373SOL    HW257017   0.423   4.760   7.970
18374SOL     OW57018   4.584   5.621   2.330
18374SOL    HW157019   4.647   5.690   2.353
18374SOL    HW257020   4.505   5.669   2.304
18375SOL     OW57021  12.498   1.312  10.532
18375SOL    HW157022  12.424   1.269  10.489
18375SOL    HW257023  12.513   1.391  10.480
18376SOL     OW57024  12.348   3.856   7.738
18376SOL    HW157025  12.404   3.821   7.668
18376SOL    HW257026  12.326   3.944   7.708
18377SOL     OW57027   6.107   5.456   6.393
18377SOL    HW157028   6.079   5.533   6.443
18377SOL    HW257029   6.124   5.491   6.305
18378SOL     OW57030   0.729  13.372  11.130
18378SOL    HW157031   0.809  13.417  11.157
18378SOL    HW257032   0.664  13.399  11.195
18379SOL     OW57033  12.890  13.091   9.036
18379SOL    HW157034  12.839  13.052   8.965
18379SOL    HW257035  12.974  13.111   8.995
18380SOL     OW57036   9.926   1.058   1.823
18380SOL    HW157037   9.999   1.042   1.882
18380SOL    HW257038   9.918   0.978   1.771
18381SOL     OW57039  10.079  14.407  14.704
18381SOL    HW157040  10.113  14.345  14.640
18381SOL    HW257041   9.984  14.402  14.695
18382SOL     OW57042  14.215  11.607  10.496
18382SOL    HW157043  14.162  11.631  10.572
18382SOL    HW257044  14.202  11.680  10.435
18383SOL     OW57045   9.215   4.174  10.132
18383SOL    HW157046   9.232   4.193  10.040
18383SOL    HW257047   9.299   4.185  10.175
18384SOL     OW57048   8.842   5.355   0.422
18384SOL    HW157049   8.747   5.357   0.409
18384SOL    HW257050   8.862   5.436   0.469
18385SOL     OW57051   8.203   0.455  12.791
18385SOL    HW157052   8.289   0.464  12.749
18385SOL    HW257053   8.200   0.524  12.856
18386SOL     OW57054   2.198   9.790   6.675
18386SOL    HW157055   2.230   9.881   6.676
18386SOL    HW257056   2.223   9.755   6.760
18387SOL     OW57057   7.145   6.815   7.191
18387SOL    HW157058   7.232   6.832   7.227
18387SOL    HW257059   7.142   6.721   7.178
18388SOL     OW57060  11.091   2.696  12.126
18388SOL    HW157061  11.131   2.622  12.082
18388SOL    HW257062  11.056   2.660  12.207
18389SOL     OW57063   4.557   0.614   5.234
18389SOL    HW157064   4.636   0.668   5.239
18389SOL    HW257065   4.501   0.660   5.171
18390SOL     OW57066  10.357  10.258  10.745
18390SOL    HW157067  10.341  10.345  10.708
18390SOL    HW257068  10.446  10.263  10.779
18391SOL     OW57069   3.544   3.852  12.873
18391SOL    HW157070   3.616   3.833  12.933
18391SOL    HW257071   3.582   3.908  12.805
18392SOL     OW57072   7.009   2.305   9.022
18392SOL    HW157073   6.991   2.383   9.075
18392SOL    HW257074   6.938   2.303   8.958
18393SOL     OW57075   7.275   9.279   9.263
18393SOL    HW157076   7.283   9.291   9.168
18393SOL    HW257077   7.187   9.242   9.275
18394SOL     OW57078   0.813   0.855  13.735
18394SOL    HW157079   0.728   0.861  13.779
18394SOL    HW257080   0.864   0.926  13.774
18395SOL     OW57081  12.281   6.636   1.022
18395SOL    HW157082  12.266   6.722   0.983
18395SOL    HW257083  12.193   6.601   1.038
18396SOL     OW57084   9.977   9.540  14.788
18396SOL    HW157085  10.067   9.518  14.765
18396SOL    HW257086   9.943   9.461  14.830
18397SOL     OW57087   6.318   9.927   9.171
18397SOL    HW157088   6.365   9.953   9.092
18397SOL    HW257089   6.288   9.837   9.152
18398SOL     OW57090   0.006   2.275   8.755
18398SOL    HW157091   0.033   2.204   8.697
18398SOL    HW257092   0.054   2.260   8.836
18399SOL     OW57093  14.357  12.674   7.237
18399SOL    HW157094  14.284  12.707   7.289
18399SOL    HW257095  14.435  12.709   7.280
18400SOL     OW57096   1.025   0.722  13.436
18400SOL    HW157097   0.962   0.675  13.490
18400SOL    HW257098   1.083   0.654  13.401
18401SOL     OW57099   3.068  10.272   3.168
18401SOL    HW157100   3.034  10.336   3.230
18401SOL    HW257101   3.159  10.259   3.194
18402SOL     OW57102   9.084   7.042   5.687
18402SOL    HW157103   9.008   7.018   5.634
18402SOL    HW257104   9.059   7.020   5.777
18403SOL     OW57105  11.533   2.302   9.833
18403SOL    HW157106  11.466   2.248   9.791
18403SOL    HW257107  11.597   2.319   9.765
18404SOL     OW57108  12.188   1.810   8.216
18404SOL    HW157109  12.270   1.840   8.256
18404SOL    HW257110  12.176   1.721   8.248
18405SOL     OW57111   2.790   1.954   1.094
18405SOL    HW157112   2.798   1.859   1.101
18405SOL    HW257113   2.861   1.988   1.148
18406SOL     OW57114  10.593   1.970   5.227
18406SOL    HW157115  10.570   2.032   5.296
18406SOL    HW257116  10.525   1.980   5.161
18407SOL     OW57117  12.298   9.700  11.738
18407SOL    HW157118  12.254   9.684  11.654
18407SOL    HW257119  12.364   9.766  11.718
18408SOL     OW57120  11.906  14.267  13.660
18408SOL    HW157121  11.964  14.343  13.662
18408SOL    HW257122  11.844  14.281  13.731
18409SOL     OW57123  14.549   3.685   7.436
18409SOL    HW157124  14.570   3.769   7.395
18409SOL    HW257125  14.607   3.622   7.393
18410SOL     OW57126   4.036   5.604   9.427
18410SOL    HW157127   3.955   5.562   9.398
18410SOL    HW257128   4.091   5.531   9.457
18411SOL     OW57129   9.417   4.062   8.772
18411SOL    HW157130   9.487   4.057   8.708
18411SOL    HW257131   9.446   4.129   8.834
18412SOL     OW57132   3.199  12.211   1.739
18412SOL    HW157133   3.190  12.197   1.645
18412SOL    HW257134   3.119  12.174   1.777
18413SOL     OW57135  10.958   9.129   7.307
18413SOL    HW157136  11.033   9.123   7.367
18413SOL    HW257137  10.997   9.153   7.223
18414SOL     OW57138   8.197   0.431   7.718
18414SOL    HW157139   8.280   0.389   7.698
18414SOL    HW257140   8.131   0.368   7.689
18415SOL     OW57141   6.190   8.950  11.510
18415SOL    HW157142   6.180   9.035  11.467
18415SOL    HW257143   6.246   8.899  11.451
18416SOL     OW57144   4.862  13.877  14.235
18416SOL    HW157145   4.834  13.907  14.321
18416SOL    HW257146   4.950  13.913  14.225
18417SOL     OW57147  10.683  11.179  13.513
18417SOL    HW157148  10.616  11.116  13.539
18417SOL    HW257149  10.639  11.264  13.517
18418SOL     OW57150   2.139   2.547  10.503
18418SOL    HW157151   2.167   2.578  10.417
18418SOL    HW257152   2.208   2.576  10.563
18419SOL     OW57153  14.459   5.892   2.520
18419SOL    HW157154  14.414   5.976   2.513
18419SOL    HW257155  14.551   5.915   2.536
18420SOL     OW57156   8.131   7.722  12.058
18420SOL    HW157157   8.060   7.771  12.100
18420SOL    HW257158   8.137   7.759  11.970
18421SOL     OW57159   0.705   2.608   9.920
18421SOL    HW157160   0.723   2.616  10.014
18421SOL    HW257161   0.758   2.678   9.880
18422SOL     OW57162   5.807   4.865   1.724
18422SOL    HW157163   5.843   4.781   1.698
18422SOL    HW257164   5.748   4.890   1.653
18423SOL     OW57165   6.009   1.532   7.626
18423SOL    HW157166   6.081   1.594   7.618
18423SOL    HW257167   5.935   1.575   7.584
18424SOL     OW57168  12.626   9.350   3.513
18424SOL    HW157169  12.645   9.410   3.440
18424SOL    HW257170  12.617   9.264   3.472
18425SOL     OW57171   4.395  11.519   8.614
18425SOL    HW157172   4.471  11.486   8.567
18425SOL    HW257173   4.390  11.465   8.693
18426SOL     OW57174   6.389   4.357  12.230
18426SOL    HW157175   6.445   4.308  12.170
18426SOL    HW257176   6.322   4.396  12.173
18427SOL     OW57177   6.707   2.963   1.221
18427SOL    HW157178   6.764   2.913   1.278
18427SOL    HW257179   6.700   3.049   1.262
18428SOL     OW57180   7.279  11.919   3.250
18428SOL    HW157181   7.186  11.907   3.270
18428SOL    HW257182   7.281  11.986   3.182
18429SOL     OW57183  13.661   8.577  12.722
18429SOL    HW157184  13.581   8.579  12.670
18429SOL    HW257185  13.644   8.637  12.796
18430SOL     OW57186  12.802   5.667   3.107
18430SOL    HW157187  12.828   5.727   3.037
18430SOL    HW257188  12.788   5.583   3.063
18431SOL     OW57189   9.638   7.511  10.255
18431SOL    HW157190   9.716   7.542  10.302
18431SOL    HW257191   9.647   7.415  10.256
18432SOL     OW57192  13.011   0.486   3.285
18432SOL    HW157193  13.093   0.507   3.240
18432SOL    HW257194  13.018   0.393   3.305
18433SOL     OW57195   0.870   7.456   2.644
18433SOL    HW157196   0.778   7.432   2.645
18433SOL    HW257197   0.890   7.476   2.553
18434SOL     OW57198  12.251   5.452   2.413
18434SOL    HW157199  12.268   5.546   2.405
18434SOL    HW257200  12.174   5.437   2.358
18435SOL     OW57201  10.379  14.343   3.241
18435SOL    HW157202  10.385  14.397   3.162
18435SOL    HW257203  10.459  14.290   3.240
18436SOL     OW57204  12.472   4.592   2.519
18436SOL    HW157205  12.543   4.550   2.568
18436SOL    HW257206  12.501   4.589   2.428
18437SOL     OW57207   8.752   0.146   8.279
18437SOL    HW157208   8.747   0.051   8.284
18437SOL    HW257209   8.733   0.175   8.368
18438SOL     OW57210   2.488   0.561   4.471
18438SOL    HW157211   2.497   0.592   4.381
18438SOL    HW257212   2.569   0.589   4.515
18439SOL     OW57213   5.233  10.942   9.029
18439SOL    HW157214   5.143  10.956   9.057
18439SOL    HW257215   5.285  11.006   9.078
18440SOL     OW57216   1.482  11.378   0.957
18440SOL    HW157217   1.546  11.447   0.942
18440SOL    HW257218   1.437  11.403   1.038
18441SOL     OW57219   7.213   1.903   6.733
18441SOL    HW157220   7.188   1.936   6.646
18441SOL    HW257221   7.131   1.897   6.781
18442SOL     OW57222   0.517  10.988   2.948
18442SOL    HW157223   0.513  10.896   2.923
18442SOL    HW257224   0.574  10.990   3.024
18443SOL     OW57225   3.129   5.362  11.219
18443SOL    HW157226   3.095   5.403  11.139
18443SOL    HW257227   3.213   5.325  11.192
18444SOL     OW57228   8.346  13.674   2.839
18444SOL    HW157229   8.334  13.707   2.750
18444SOL    HW257230   8.441  13.665   2.849
18445SOL     OW57231  10.756   1.666   4.444
18445SOL    HW157232  10.808   1.745   4.456
18445SOL    HW257233  10.686   1.673   4.509
18446SOL     OW57234   6.525  13.270   8.816
18446SOL    HW157235   6.476  13.205   8.866
18446SOL    HW257236   6.600  13.222   8.782
18447SOL     OW57237   6.176   8.631   5.308
18447SOL    HW157238   6.111   8.690   5.271
18447SOL    HW257239   6.164   8.639   5.403
18448SOL     OW57240   8.193  12.023   8.581
18448SOL    HW157241   8.226  12.103   8.622
18448SOL    HW257242   8.146  11.978   8.651
18449SOL     OW57243   4.055  11.640   7.993
18449SOL    HW157244   4.085  11.562   7.946
18449SOL    HW257245   4.000  11.686   7.930
18450SOL     OW57246   8.042   8.742   2.806
18450SOL    HW157247   8.019   8.787   2.725
18450SOL    HW257248   8.045   8.649   2.782
18451SOL     OW57249  14.126   5.824  12.828
18451SOL    HW157250  14.058   5.760  12.851
18451SOL    HW257251  14.160   5.795  12.744
18452SOL     OW57252   2.508   0.174   2.614
18452SOL    HW157253   2.452   0.234   2.664
18452SOL    HW257254   2.495   0.199   2.522
18453SOL     OW57255   1.644  10.918   6.710
18453SOL    HW157256   1.730  10.876   6.706
18453SOL    HW257257   1.629  10.949   6.620
18454SOL     OW57258   1.895  12.420   0.607
18454SOL    HW157259   1.804  12.434   0.580
18454SOL    HW257260   1.889  12.383   0.696
18455SOL     OW57261  11.348   6.444  10.828
18455SOL    HW157262  11.278   6.416  10.888
18455SOL    HW257263  11.424   6.392  10.853
18456SOL     OW57264   2.273  14.633   4.798
18456SOL    HW157265   2.221  14.626   4.718
18456SOL    HW257266   2.216  14.597   4.866
18457SOL     OW57267   6.311  12.711   6.670
18457SOL    HW157268   6.282  12.691   6.758
18457SOL    HW257269   6.275  12.641   6.615
18458SOL     OW57270  10.456   8.827   6.618
18458SOL    HW157271  10.496   8.759   6.563
18458SOL    HW257272  10.527   8.861   6.671
18459SOL     OW57273   1.649  14.745   9.955
18459SOL    HW157274   1.650  14.841   9.953
18459SOL    HW257275   1.689  14.722  10.039
18460SOL     OW57276   2.955  14.100  12.687
18460SOL    HW157277   2.870  14.108  12.645
18460SOL    HW257278   3.013  14.154  12.633
18461SOL     OW57279   0.029   2.767   5.202
18461SOL    HW157280   0.111   2.809   5.176
18461SOL    HW257281   0.019   2.789   5.295
18462SOL     OW57282  14.616   6.556  13.799
18462SOL    HW157283  14.700   6.534  13.840
18462SOL    HW257284  14.635   6.630  13.742
18463SOL     OW57285   5.719   0.618   0.747
18463SOL    HW157286   5.789   0.564   0.785
18463SOL    HW257287   5.702   0.685   0.813
18464SOL     OW57288   3.277  12.278   0.780
18464SOL    HW157289   3.192  12.239   0.762
18464SOL    HW257290   3.318  12.288   0.694
18465SOL     OW57291   3.969   7.798   5.671
18465SOL    HW157292   3.933   7.885   5.655
18465SOL    HW257293   4.006   7.771   5.587
18466SOL     OW57294   5.923   0.463  12.562
18466SOL    HW157295   5.828   0.454  12.556
18466SOL    HW257296   5.948   0.509  12.482
18467SOL     OW57297  12.527   4.611   4.167
18467SOL    HW157298  12.560   4.526   4.194
18467SOL    HW257299  12.598   4.672   4.189
18468SOL     OW57300  13.693   9.686   3.537
18468SOL    HW157301  13.692   9.670   3.442
18468SOL    HW257302  13.641   9.615   3.573
18469SOL     OW57303   7.170   5.084   9.716
18469SOL    HW157304   7.234   5.153   9.702
18469SOL    HW257305   7.114   5.116   9.787
18470SOL     OW57306   7.665   7.775   5.844
18470SOL    HW157307   7.654   7.681   5.859
18470SOL    HW257308   7.612   7.793   5.767
18471SOL     OW57309   6.131  12.312  11.415
18471SOL    HW157310   6.055  12.254  11.409
18471SOL    HW257311   6.177  12.284  11.494
18472SOL     OW57312   8.773   2.340   5.144
18472SOL    HW157313   8.811   2.311   5.062
18472SOL    HW257314   8.693   2.385   5.119
18473SOL     OW57315   7.330   5.850   4.322
18473SOL    HW157316   7.328   5.755   4.307
18473SOL    HW257317   7.327   5.888   4.235
18474SOL     OW57318  14.147  13.450  11.714
18474SOL    HW157319  14.096  13.369  11.724
18474SOL    HW257320  14.178  13.469  11.802
18475SOL     OW57321   4.883   5.656   4.794
18475SOL    HW157322   4.886   5.598   4.870
18475SOL    HW257323   4.933   5.610   4.726
18476SOL     OW57324   8.952   9.538  13.105
18476SOL    HW157325   9.038   9.542  13.063
18476SOL    HW257326   8.912   9.622  13.086
18477SOL     OW57327  11.908   9.310   6.647
18477SOL    HW157328  11.901   9.302   6.742
18477SOL    HW257329  11.860   9.390   6.626
18478SOL     OW57330  11.643   5.967   2.426
18478SOL    HW157331  11.627   5.906   2.354
18478SOL    HW257332  11.556   5.993   2.456
18479SOL     OW57333   1.831   8.086   1.894
18479SOL    HW157334   1.826   8.172   1.853
18479SOL    HW257335   1.795   8.026   1.828
18480SOL     OW57336   0.450   5.687  11.462
18480SOL    HW157337   0.498   5.743  11.400
18480SOL    HW257338   0.477   5.598  11.441
18481SOL     OW57339  14.301   4.302  10.193
18481SOL    HW157340  14.310   4.219  10.241
18481SOL    HW257341  14.218   4.295  10.147
18482SOL     OW57342   2.196   4.240   2.626
18482SOL    HW157343   2.229   4.151   2.614
18482SOL    HW257344   2.108   4.239   2.588
18483SOL     OW57345  10.760   9.516  10.596
18483SOL    HW157346  10.699   9.590  10.588
18483SOL    HW257347  10.771   9.484  10.506
18484SOL     OW57348   5.811  13.070  13.202
18484SOL    HW157349   5.887  13.069  13.143
18484SOL    HW257350   5.767  13.153  13.184
18485SOL     OW57351  13.736   0.559  10.515
18485SOL    HW157352  13.645   0.580  10.533
18485SOL    HW257353  13.740   0.546  10.420
18486SOL     OW57354   2.632  11.565   8.207
18486SOL    HW157355   2.696  11.506   8.246
18486SOL    HW257356   2.633  11.543   8.114
18487SOL     OW57357  12.085  10.918   2.519
18487SOL    HW157358  12.056  10.931   2.429
18487SOL    HW257359  12.042  10.837   2.547
18488SOL     OW57360   9.488  14.241   6.094
18488SOL    HW157361   9.480  14.220   6.001
18488SOL    HW257362   9.484  14.337   6.097
18489SOL     OW57363   9.174   3.790  12.646
18489SOL    HW157364   9.154   3.783  12.739
18489SOL    HW257365   9.194   3.882  12.632
18490SOL     OW57366  12.098  11.101   9.685
18490SOL    HW157367  12.125  11.159   9.614
18490SOL    HW257368  12.051  11.158   9.746
18491SOL     OW57369   8.531   1.278   8.373
18491SOL    HW157370   8.559   1.268   8.464
18491SOL    HW257371   8.550   1.370   8.353
18492SOL     OW57372   0.718   7.918  11.217
18492SOL    HW157373   0.650   7.879  11.272
18492SOL    HW257374   0.670   7.969  11.152
18493SOL     OW57375   3.389  11.026   2.529
18493SOL    HW157376   3.418  10.994   2.443
18493SOL    HW257377   3.346  10.951   2.570
18494SOL     OW57378   9.204   5.039   5.211
18494SOL    HW157379   9.121   4.993   5.223
18494SOL    HW257380   9.251   4.987   5.146
18495SOL     OW57381  12.764   9.322   3.926
18495SOL    HW157382  12.810   9.244   3.958
18495SOL    HW257383  12.676   9.291   3.904
18496SOL     OW57384   2.170   8.529   9.341
18496SOL    HW157385   2.237   8.501   9.403
18496SOL    HW257386   2.203   8.502   9.255
18497SOL     OW57387   8.426   5.746   2.533
18497SOL    HW157388   8.519   5.742   2.511
18497SOL    HW257389   8.385   5.678   2.480
18498SOL     OW57390   1.617   6.798  10.650
18498SOL    HW157391   1.552   6.734  10.680
18498SOL    HW257392   1.570   6.881  10.648
18499SOL     OW57393   2.246  12.877   7.361
18499SOL    HW157394   2.307  12.950   7.368
18499SOL    HW257395   2.298  12.799   7.383
18500SOL     OW57396   7.641   6.966  11.910
18500SOL    HW157397   7.709   7.021  11.948
18500SOL    HW257398   7.652   6.977  11.815
18501SOL     OW57399  13.222   5.004   8.815
18501SOL    HW157400  13.222   5.100   8.816
18501SOL    HW257401  13.256   4.981   8.729
18502SOL     OW57402   8.367   3.424  10.429
18502SOL    HW157403   8.299   3.406  10.365
18502SOL    HW257404   8.332   3.497  10.481
18503SOL     OW57405   6.594  12.732   9.412
18503SOL    HW157406   6.645  12.810   9.389
18503SOL    HW257407   6.596  12.678   9.333
18504SOL     OW57408   1.237  11.386   6.246
18504SOL    HW157409   1.196  11.471   6.228
18504SOL    HW257410   1.199  11.327   6.182
18505SOL     OW57411   7.338   6.350   2.058
18505SOL    HW157412   7.314   6.412   1.989
18505SOL    HW257413   7.256   6.329   2.102
18506SOL     OW57414  11.180   3.025   1.641
18506SOL    HW157415  11.092   2.997   1.617
18506SOL    HW257416  11.189   3.000   1.733
18507SOL     OW57417  11.492  13.894  13.995
18507SOL    HW157418  11.478  13.832  14.067
18507SOL    HW257419  11.403  13.915  13.965
18508SOL     OW57420   6.887  13.921  13.048
18508SOL    HW157421   6.908  14.014  13.044
18508SOL    HW257422   6.880  13.902  13.142
18509SOL     OW57423   0.551   5.774   0.042
18509SOL    HW157424   0.568   5.847  14.852
18509SOL    HW257425   0.542   5.815   0.128
18510SOL     OW57426   6.710  11.615   2.168
18510SOL    HW157427   6.660  11.695   2.150
18510SOL    HW257428   6.801  11.645   2.177
18511SOL     OW57429  11.786   6.279  11.268
18511SOL    HW157430  11.818   6.318  11.187
18511SOL    HW257431  11.796   6.185  11.255
18512SOL     OW57432  13.577   4.704  13.536
18512SOL    HW157433  13.623   4.621  13.549
18512SOL    HW257434  13.496   4.694  13.585
18513SOL     OW57435   4.134   8.840   9.597
18513SOL    HW157436   4.221   8.818   9.629
18513SOL    HW257437   4.114   8.924   9.638
18514SOL     OW57438   8.802   2.052  14.813
18514SOL    HW157439   8.896   2.056  14.832
18514SOL    HW257440   8.765   1.999   0.013
18515SOL     OW57441   2.262   9.274  14.030
18515SOL    HW157442   2.172   9.242  14.043
18515SOL    HW257443   2.295   9.290  14.118
18516SOL     OW57444   1.399   5.439   9.479
18516SOL    HW157445   1.433   5.354   9.450
18516SOL    HW257446   1.304   5.431   9.472
18517SOL     OW57447   3.874   9.336   5.794
18517SOL    HW157448   3.852   9.421   5.832
18517SOL    HW257449   3.967   9.324   5.814
18518SOL     OW57450   5.126   9.706   5.945
18518SOL    HW157451   5.214   9.699   5.908
18518SOL    HW257452   5.140   9.701   6.040
18519SOL     OW57453  11.671   4.197   4.122
18519SOL    HW157454  11.601   4.233   4.177
18519SOL    HW257455  11.732   4.270   4.110
18520SOL     OW57456   3.670   9.303   2.204
18520SOL    HW157457   3.721   9.325   2.126
18520SOL    HW257458   3.709   9.222   2.236
18521SOL     OW57459   8.406   3.469  12.444
18521SOL    HW157460   8.432   3.461  12.353
18521SOL    HW257461   8.426   3.560  12.468
18522SOL     OW57462   0.517   7.052  11.162
18522SOL    HW157463   0.495   7.138  11.126
18522SOL    HW257464   0.434   7.005  11.166
18523SOL     OW57465   6.504  11.245   4.901
18523SOL    HW157466   6.503  11.255   4.996
18523SOL    HW257467   6.583  11.292   4.873
18524SOL     OW57468  13.336   1.033  10.823
18524SOL    HW157469  13.297   0.971  10.762
18524SOL    HW257470  13.329   1.118  10.780
18525SOL     OW57471  12.797   5.822   7.276
18525SOL    HW157472  12.760   5.744   7.316
18525SOL    HW257473  12.890   5.802   7.267
18526SOL     OW57474  14.242   6.042  11.598
18526SOL    HW157475  14.275   5.969  11.544
18526SOL    HW257476  14.256   6.013  11.688
18527SOL     OW57477  10.339   9.923  11.357
18527SOL    HW157478  10.341  10.006  11.403
18527SOL    HW257479  10.361   9.945  11.267
18528SOL     OW57480   6.647   0.406  12.968
18528SOL    HW157481   6.660   0.475  13.034
18528SOL    HW257482   6.552   0.394  12.964
18529SOL     OW57483   2.782   4.622   1.115
18529SOL    HW157484   2.756   4.706   1.152
18529SOL    HW257485   2.866   4.602   1.155
18530SOL     OW57486   8.571  13.046  10.971
18530SOL    HW157487   8.616  13.090  10.899
18530SOL    HW257488   8.581  13.105  11.046
18531SOL     OW57489  12.909   2.846   3.571
18531SOL    HW157490  12.905   2.764   3.522
18531SOL    HW257491  12.993   2.884   3.547
18532SOL     OW57492  12.411  14.043  12.185
18532SOL    HW157493  12.432  14.136  12.174
18532SOL    HW257494  12.363  14.040  12.267
18533SOL     OW57495   5.758  11.914  14.338
18533SOL    HW157496   5.769  11.989  14.280
18533SOL    HW257497   5.844  11.901  14.377
18534SOL     OW57498  13.351   0.722   1.292
18534SOL    HW157499  13.325   0.734   1.384
18534SOL    HW257500  13.280   0.669   1.255
18535SOL     OW57501   4.444   2.954   7.892
18535SOL    HW157502   4.482   2.878   7.938
18535SOL    HW257503   4.516   3.018   7.890
18536SOL     OW57504   2.148   2.409   4.308
18536SOL    HW157505   2.071   2.401   4.253
18536SOL    HW257506   2.171   2.319   4.331
18537SOL     OW57507   0.176   7.520   4.054
18537SOL    HW157508   0.094   7.570   4.050
18537SOL    HW257509   0.244   7.586   4.042
18538SOL     OW57510   0.752  10.590   3.628
18538SOL    HW157511   0.842  10.607   3.599
18538SOL    HW257512   0.745  10.494   3.630
18539SOL     OW57513   2.917   8.943   0.869
18539SOL    HW157514   2.894   9.005   0.938
18539SOL    HW257515   2.923   8.859   0.914
18540SOL     OW57516  11.078   1.195   7.153
18540SOL    HW157517  11.078   1.191   7.248
18540SOL    HW257518  10.988   1.174   7.128
18541SOL     OW57519  10.505   2.038   8.142
18541SOL    HW157520  10.494   1.946   8.166
18541SOL    HW257521  10.492   2.086   8.224
18542SOL     OW57522   6.130   4.437   7.758
18542SOL    HW157523   6.203   4.416   7.700
18542SOL    HW257524   6.066   4.479   7.701
18543SOL     OW57525   6.590   3.061   0.478
18543SOL    HW157526   6.621   3.144   0.441
18543SOL    HW257527   6.560   3.085   0.566
18544SOL     OW57528  13.905   3.707   5.216
18544SOL    HW157529  13.875   3.620   5.188
18544SOL    HW257530  13.825   3.759   5.222
18545SOL     OW57531   1.852   0.326   2.678
18545SOL    HW157532   1.944   0.306   2.693
18545SOL    HW257533   1.833   0.399   2.736
18546SOL     OW57534   6.709   7.370  14.743
18546SOL    HW157535   6.730   7.316  14.667
18546SOL    HW257536   6.754   7.327  14.816
18547SOL     OW57537  14.597  10.972   2.629
18547SOL    HW157538  14.684  10.987   2.592
18547SOL    HW257539  14.564  11.059   2.651
18548SOL     OW57540   9.875  10.001   3.715
18548SOL    HW157541   9.795  10.050   3.698
18548SOL    HW257542   9.933  10.063   3.759
18549SOL     OW57543  11.057  12.786   1.198
18549SOL    HW157544  11.031  12.699   1.230
18549SOL    HW257545  11.027  12.846   1.266
18550SOL     OW57546   5.408   1.807   3.029
18550SOL    HW157547   5.428   1.861   2.952
18550SOL    HW257548   5.493   1.768   3.053
18551SOL     OW57549  12.817   0.317  13.843
18551SOL    HW157550  12.773   0.402  13.832
18551SOL    HW257551  12.907   0.333  13.815
18552SOL     OW57552   6.496  14.447   8.006
18552SOL    HW157553   6.561  14.518   8.012
18552SOL    HW257554   6.442  14.457   8.084
18553SOL     OW57555   2.022   3.898   4.801
18553SOL    HW157556   2.048   3.855   4.883
18553SOL    HW257557   1.927   3.899   4.804
18554SOL     OW57558   4.184   4.292   4.978
18554SOL    HW157559   4.194   4.361   5.044
18554SOL    HW257560   4.121   4.232   5.016
18555SOL     OW57561   5.640   1.545   3.786
18555SOL    HW157562   5.697   1.524   3.860
18555SOL    HW257563   5.666   1.633   3.759
18556SOL     OW57564   9.783   2.024  11.146
18556SOL    HW157565   9.829   1.973  11.079
18556SOL    HW257566   9.711   2.067  11.098
18557SOL     OW57567  12.074  10.066   3.574
18557SOL    HW157568  11.999  10.060   3.514
18557SOL    HW257569  12.149  10.082   3.516
18558SOL     OW57570   1.251   7.029   7.225
18558SOL    HW157571   1.236   7.120   7.251
18558SOL    HW257572   1.171   7.004   7.178
18559SOL     OW57573   4.313  10.943   5.021
18559SOL    HW157574   4.310  10.880   5.092
18559SOL    HW257575   4.234  10.925   4.969
18560SOL     OW57576   6.191   8.218   6.343
18560SOL    HW157577   6.129   8.180   6.281
18560SOL    HW257578   6.141   8.227   6.424
18561SOL     OW57579  13.427   3.734   1.643
18561SOL    HW157580  13.478   3.680   1.703
18561SOL    HW257581  13.491   3.766   1.579
18562SOL     OW57582   6.753   7.061   2.553
18562SOL    HW157583   6.783   6.994   2.491
18562SOL    HW257584   6.694   7.014   2.612
18563SOL     OW57585   4.595   2.580  13.249
18563SOL    HW157586   4.590   2.519  13.176
18563SOL    HW257587   4.556   2.661  13.215
18564SOL     OW57588   3.918   1.016   4.440
18564SOL    HW157589   4.006   0.990   4.468
18564SOL    HW257590   3.913   1.110   4.456
18565SOL     OW57591   7.823   8.803   5.225
18565SOL    HW157592   7.830   8.771   5.135
18565SOL    HW257593   7.912   8.829   5.248
18566SOL     OW57594  10.033  13.833   6.093
18566SOL    HW157595   9.958  13.868   6.141
18566SOL    HW257596  10.003  13.749   6.058
18567SOL     OW57597   6.972   5.831   0.489
18567SOL    HW157598   6.901   5.817   0.552
18567SOL    HW257599   6.982   5.927   0.486
18568SOL     OW57600   5.942  11.393   6.440
18568SOL    HW157601   6.021  11.349   6.472
18568SOL    HW257602   5.925  11.353   6.355
18569SOL     OW57603  12.227  12.080   3.019
18569SOL    HW157604  12.231  11.987   3.042
18569SOL    HW257605  12.160  12.085   2.950
18570SOL     OW57606   6.759   1.178   0.593
18570SOL    HW157607   6.722   1.163   0.680
18570SOL    HW257608   6.848   1.208   0.610
18571SOL     OW57609  12.264  11.547  12.101
18571SOL    HW157610  12.333  11.583  12.046
18571SOL    HW257611  12.245  11.617  12.164
18572SOL     OW57612   3.974   7.359   5.289
18572SOL    HW157613   4.043   7.409   5.246
18572SOL    HW257614   3.982   7.271   5.253
18573SOL     OW57615   7.161   9.270  14.272
18573SOL    HW157616   7.242   9.242  14.316
18573SOL    HW257617   7.122   9.333  14.332
18574SOL     OW57618   7.377   3.630   4.859
18574SOL    HW157619   7.358   3.536   4.867
18574SOL    HW257620   7.449   3.645   4.920
18575SOL     OW57621   1.387  13.333   0.495
18575SOL    HW157622   1.440  13.266   0.454
18575SOL    HW257623   1.297  13.313   0.468
18576SOL     OW57624   0.701   6.995  10.670
18576SOL    HW157625   0.652   6.980  10.751
18576SOL    HW257626   0.643   6.963  10.601
18577SOL     OW57627  12.136  11.231   6.979
18577SOL    HW157628  12.098  11.147   7.004
18577SOL    HW257629  12.216  11.238   7.031
18578SOL     OW57630  10.681  10.756  10.889
18578SOL    HW157631  10.704  10.727  10.802
18578SOL    HW257632  10.707  10.684  10.947
18579SOL     OW57633   2.828  12.788   6.908
18579SOL    HW157634   2.794  12.759   6.992
18579SOL    HW257635   2.883  12.715   6.878
18580SOL     OW57636   3.127  12.420   5.030
18580SOL    HW157637   3.136  12.407   5.125
18580SOL    HW257638   3.042  12.463   5.020
18581SOL     OW57639  13.557   7.113  11.926
18581SOL    HW157640  13.592   7.126  11.838
18581SOL    HW257641  13.470   7.076  11.912
18582SOL     OW57642   7.827   5.886   9.725
18582SOL    HW157643   7.788   5.966   9.689
18582SOL    HW257644   7.777   5.868   9.804
18583SOL     OW57645   2.654  13.279   7.799
18583SOL    HW157646   2.636  13.337   7.873
18583SOL    HW257647   2.635  13.332   7.722
18584SOL     OW57648  14.206   3.058   8.646
18584SOL    HW157649  14.212   3.117   8.721
18584SOL    HW257650  14.169   3.113   8.576
18585SOL     OW57651   6.088   9.581   7.457
18585SOL    HW157652   6.079   9.544   7.370
18585SOL    HW257653   6.090   9.676   7.443
18586SOL     OW57654  14.545   5.315   5.266
18586SOL    HW157655  14.634   5.337   5.296
18586SOL    HW257656  14.557   5.235   5.215
18587SOL     OW57657   0.476   4.657   7.225
18587SOL    HW157658   0.394   4.698   7.196
18587SOL    HW257659   0.541   4.727   7.217
18588SOL     OW57660  10.543   0.892  10.777
18588SOL    HW157661  10.523   0.801  10.755
18588SOL    HW257662  10.457   0.934  10.786
18589SOL     OW57663   7.551   9.749   9.042
18589SOL    HW157664   7.642   9.772   9.027
18589SOL    HW257665   7.525   9.699   8.965
18590SOL     OW57666   0.402   1.810  10.818
18590SOL    HW157667   0.411   1.844  10.907
18590SOL    HW257668   0.471   1.853  10.768
18591SOL     OW57669  13.895   1.086   3.928
18591SOL    HW157670  13.975   1.118   3.969
18591SOL    HW257671  13.825   1.116   3.985
18592SOL     OW57672   7.647   8.262  13.399
18592SOL    HW157673   7.585   8.332  13.382
18592SOL    HW257674   7.704   8.262  13.321
18593SOL     OW57675   9.463   6.101  11.069
18593SOL    HW157676   9.393   6.166  11.083
18593SOL    HW257677   9.424   6.036  11.012
18594SOL     OW57678   9.815   3.135   9.947
18594SOL    HW157679   9.720   3.123   9.951
18594SOL    HW257680   9.828   3.230   9.951
18595SOL     OW57681   3.386   7.687   3.212
18595SOL    HW157682   3.391   7.782   3.221
18595SOL    HW257683   3.349   7.658   3.296
18596SOL     OW57684   7.106  14.816   5.510
18596SOL    HW157685   7.110  14.724   5.537
18596SOL    HW257686   7.029  14.821   5.454
18597SOL     OW57687   9.590   5.081  11.475
18597SOL    HW157688   9.640   5.133  11.413
18597SOL    HW257689   9.655   5.031  11.524
18598SOL     OW57690  13.926  12.192   9.453
18598SOL    HW157691  13.933  12.282   9.421
18598SOL    HW257692  14.016  12.169   9.479
18599SOL     OW57693   2.561   3.557   9.262
18599SOL    HW157694   2.623   3.605   9.207
18599SOL    HW257695   2.523   3.624   9.320
18600SOL     OW57696   8.315   0.277   2.842
18600SOL    HW157697   8.338   0.232   2.923
18600SOL    HW257698   8.308   0.207   2.777
18601SOL     OW57699  10.368  11.110   2.300
18601SOL    HW157700  10.459  11.109   2.329
18601SOL    HW257701  10.365  11.177   2.232
18602SOL     OW57702   4.583   3.158   1.237
18602SOL    HW157703   4.527   3.110   1.299
18602SOL    HW257704   4.593   3.245   1.277
18603SOL     OW57705  10.923  10.621  11.324
18603SOL    HW157706  10.996  10.571  11.360
18603SOL    HW257707  10.963  10.678  11.258
18604SOL     OW57708   3.189   7.761  14.233
18604SOL    HW157709   3.236   7.688  14.274
18604SOL    HW257710   3.205   7.835  14.291
18605SOL     OW57711   6.471   2.799   1.237
18605SOL    HW157712   6.489   2.776   1.328
18605SOL    HW257713   6.556   2.828   1.202
18606SOL     OW57714   9.034  10.049   7.774
18606SOL    HW157715   9.070  10.011   7.855
18606SOL    HW257716   9.019   9.973   7.718
18607SOL     OW57717  14.725   8.806  11.261
18607SOL    HW157718  14.714   8.882  11.205
18607SOL    HW257719  14.738   8.733  11.201
18608SOL     OW57720  12.808  13.299  11.893
18608SOL    HW157721  12.742  13.359  11.859
18608SOL    HW257722  12.884  13.354  11.911
18609SOL     OW57723  10.809  10.278   3.091
18609SOL    HW157724  10.798  10.185   3.111
18609SOL    HW257725  10.743  10.296   3.025
18610SOL     OW57726  10.367   4.141   9.692
18610SOL    HW157727  10.402   4.138   9.602
18610SOL    HW257728  10.419   4.208   9.735
18611SOL     OW57729  10.393  11.270   9.899
18611SOL    HW157730  10.308  11.264   9.942
18611SOL    HW257731  10.440  11.337   9.950
18612SOL     OW57732   3.427  11.881   0.021
18612SOL    HW157733   3.522  11.871   0.027
18612SOL    HW257734   3.411  11.973   0.042
18613SOL     OW57735  14.164  11.328   4.883
18613SOL    HW157736  14.228  11.362   4.820
18613SOL    HW257737  14.215  11.273   4.942
18614SOL     OW57738  10.785  11.122   0.260
18614SOL    HW157739  10.746  11.208   0.268
18614SOL    HW257740  10.723  11.063   0.302
18615SOL     OW57741   2.916   3.507   8.036
18615SOL    HW157742   2.936   3.562   7.960
18615SOL    HW257743   2.822   3.516   8.048
18616SOL     OW57744   4.708   2.198   6.254
18616SOL    HW157745   4.617   2.171   6.259
18616SOL    HW257746   4.710   2.284   6.295
18617SOL     OW57747   9.272  13.943  12.850
18617SOL    HW157748   9.289  13.857  12.887
18617SOL    HW257749   9.355  13.989  12.856
18618SOL     OW57750   7.150  12.211   8.960
18618SOL    HW157751   7.114  12.286   9.007
18618SOL    HW257752   7.173  12.148   9.028
18619SOL     OW57753   3.534  13.432  13.895
18619SOL    HW157754   3.453  13.430  13.843
18619SOL    HW257755   3.577  13.349  13.875
18620SOL     OW57756   0.338   2.466   8.833
18620SOL    HW157757   0.368   2.378   8.857
18620SOL    HW257758   0.298   2.454   8.747
18621SOL     OW57759   1.242  13.983  10.478
18621SOL    HW157760   1.190  14.057  10.448
18621SOL    HW257761   1.249  13.996  10.573
18622SOL     OW57762   4.325  12.610   1.175
18622SOL    HW157763   4.322  12.604   1.270
18622SOL    HW257764   4.337  12.519   1.146
18623SOL     OW57765   3.235   0.331  11.843
18623SOL    HW157766   3.206   0.291  11.925
18623SOL    HW257767   3.329   0.318  11.842
18624SOL     OW57768  13.895  12.811   8.650
18624SOL    HW157769  13.895  12.797   8.744
18624SOL    HW257770  13.937  12.897   8.639
18625SOL     OW57771   6.220   2.393  13.272
18625SOL    HW157772   6.292   2.441  13.231
18625SOL    HW257773   6.263   2.326  13.324
18626SOL     OW57774   4.484   8.103   5.972
18626SOL    HW157775   4.399   8.134   6.004
18626SOL    HW257776   4.548   8.151   6.024
18627SOL     OW57777   9.508   0.904   5.867
18627SOL    HW157778   9.590   0.889   5.819
18627SOL    HW257779   9.448   0.837   5.833
18628SOL     OW57780   0.128  12.255  10.277
18628SOL    HW157781   0.146  12.213  10.361
18628SOL    HW257782   0.046  12.216  10.248
18629SOL     OW57783  14.768   8.771   0.731
18629SOL    HW157784  14.835   8.787   0.665
18629SOL    HW257785  14.793   8.688   0.772
18630SOL     OW57786   0.904   4.337   2.548
18630SOL    HW157787   0.897   4.250   2.587
18630SOL    HW257788   0.974   4.380   2.596
18631SOL     OW57789   4.425   4.322   8.703
18631SOL    HW157790   4.494   4.300   8.766
18631SOL    HW257791   4.467   4.312   8.618
18632SOL     OW57792   4.590   0.646   1.117
18632SOL    HW157793   4.589   0.674   1.026
18632SOL    HW257794   4.502   0.665   1.150
18633SOL     OW57795  13.311   5.623  10.955
18633SOL    HW157796  13.311   5.561  11.028
18633SOL    HW257797  13.279   5.705  10.993
18634SOL     OW57798   1.978   3.322   6.206
18634SOL    HW157799   2.006   3.242   6.161
18634SOL    HW257800   1.957   3.294   6.295
18635SOL     OW57801   7.413   0.388   2.736
18635SOL    HW157802   7.321   0.404   2.755
18635SOL    HW257803   7.451   0.476   2.728
18636SOL     OW57804   3.077   5.604   7.473
18636SOL    HW157805   3.095   5.598   7.379
18636SOL    HW257806   2.983   5.589   7.481
18637SOL     OW57807   8.766   4.514   4.564
18637SOL    HW157808   8.807   4.588   4.609
18637SOL    HW257809   8.763   4.444   4.629
18638SOL     OW57810   0.953  11.770   3.649
18638SOL    HW157811   0.914  11.772   3.736
18638SOL    HW257812   1.024  11.707   3.655
18639SOL     OW57813   0.046   0.120   6.899
18639SOL    HW157814  14.853   0.049   6.887
18639SOL    HW257815  14.862   0.196   6.920
18640SOL     OW57816   2.909   2.553   5.581
18640SOL    HW157817   2.912   2.641   5.544
18640SOL    HW257818   2.833   2.554   5.639
18641SOL     OW57819   4.272   4.705   3.785
18641SOL    HW157820   4.256   4.682   3.693
18641SOL    HW257821   4.217   4.782   3.800
18642SOL     OW57822   6.637  11.997  12.759
18642SOL    HW157823   6.710  12.051  12.788
18642SOL    HW257824   6.561  12.034  12.805
18643SOL     OW57825  13.099   2.898   2.962
18643SOL    HW157826  13.044   2.879   2.885
18643SOL    HW257827  13.101   2.993   2.966
18644SOL     OW57828  12.286  10.146   0.204
18644SOL    HW157829  12.323  10.200   0.274
18644SOL    HW257830  12.320  10.058   0.222
18645SOL     OW57831   8.250   5.045   2.739
18645SOL    HW157832   8.292   4.961   2.719
18645SOL    HW257833   8.322   5.103   2.764
18646SOL     OW57834   1.246   8.623  14.796
18646SOL    HW157835   1.261   8.539  14.838
18646SOL    HW257836   1.155   8.618  14.765
18647SOL     OW57837   7.074  14.375  13.995
18647SOL    HW157838   7.165  14.347  13.991
18647SOL    HW257839   7.044  14.372  13.904
18648SOL     OW57840   6.858   2.394   9.840
18648SOL    HW157841   6.929   2.331   9.825
18648SOL    HW257842   6.903   2.477   9.854
18649SOL     OW57843  14.174  12.633   2.834
18649SOL    HW157844  14.219  12.550   2.817
18649SOL    HW257845  14.228  12.699   2.789
18650SOL     OW57846   7.970   4.413   1.379
18650SOL    HW157847   7.911   4.436   1.451
18650SOL    HW257848   7.966   4.318   1.374
18651SOL     OW57849   1.226   9.339   0.796
18651SOL    HW157850   1.281   9.304   0.725
18651SOL    HW257851   1.255   9.430   0.806
18652SOL     OW57852   8.517   4.358   5.413
18652SOL    HW157853   8.424   4.379   5.425
18652SOL    HW257854   8.536   4.293   5.481
18653SOL     OW57855   3.523   6.868  13.985
18653SOL    HW157856   3.511   6.922  14.063
18653SOL    HW257857   3.602   6.816  14.004
18654SOL     OW57858   2.992   3.918   5.650
18654SOL    HW157859   3.047   3.841   5.663
18654SOL    HW257860   2.927   3.891   5.584
18655SOL     OW57861  12.073  13.201   6.747
18655SOL    HW157862  11.999  13.213   6.688
18655SOL    HW257863  12.110  13.289   6.757
18656SOL     OW57864   0.692   3.492   8.511
18656SOL    HW157865   0.598   3.512   8.518
18656SOL    HW257866   0.711   3.434   8.584
18657SOL     OW57867   8.623  13.717   2.840
18657SOL    HW157868   8.636  13.707   2.935
18657SOL    HW257869   8.712  13.721   2.805
18658SOL     OW57870  11.007   6.165   6.392
18658SOL    HW157871  11.058   6.242   6.367
18658SOL    HW257872  10.947   6.197   6.459
18659SOL     OW57873   7.338   7.591  13.169
18659SOL    HW157874   7.255   7.620  13.207
18659SOL    HW257875   7.315   7.515  13.116
18660SOL     OW57876   8.945   5.585   7.491
18660SOL    HW157877   8.919   5.498   7.522
18660SOL    HW257878   8.876   5.611   7.430
18661SOL     OW57879   1.933   1.649   3.089
18661SOL    HW157880   1.939   1.557   3.062
18661SOL    HW257881   1.930   1.644   3.185
18662SOL     OW57882   9.752   7.629   5.382
18662SOL    HW157883   9.797   7.598   5.460
18662SOL    HW257884   9.692   7.558   5.358
18663SOL     OW57885   5.445   0.359   9.136
18663SOL    HW157886   5.357   0.347   9.098
18663SOL    HW257887   5.438   0.319   9.223
18664SOL     OW57888   7.498   5.174   2.792
18664SOL    HW157889   7.532   5.239   2.853
18664SOL    HW257890   7.537   5.198   2.708
18665SOL     OW57891   3.718   5.664   3.934
18665SOL    HW157892   3.805   5.680   3.895
18665SOL    HW257893   3.704   5.570   3.924
18666SOL     OW57894   5.509  11.938   9.714
18666SOL    HW157895   5.429  11.890   9.695
18666SOL    HW257896   5.575  11.870   9.729
18667SOL     OW57897   9.749  14.724   5.552
18667SOL    HW157898   9.701  14.794   5.507
18667SOL    HW257899   9.834  14.763   5.572
18668SOL     OW57900   3.777   5.805   3.376
18668SOL    HW157901   3.775   5.748   3.453
18668SOL    HW257902   3.811   5.888   3.409
18669SOL     OW57903   1.516   7.245   7.361
18669SOL    HW157904   1.477   7.196   7.433
18669SOL    HW257905   1.443   7.265   7.303
18670SOL     OW57906  10.038   0.124   9.365
18670SOL    HW157907   9.947   0.113   9.394
18670SOL    HW257908  10.073   0.191   9.422
18671SOL     OW57909   4.009   7.346  13.564
18671SOL    HW157910   4.002   7.252  13.548
18671SOL    HW257911   3.947   7.385  13.503
18672SOL     OW57912   6.224  11.472  14.853
18672SOL    HW157913   6.276  11.512   0.053
18672SOL    HW257914   6.134  11.493   0.005
18673SOL     OW57915   7.060   1.197   8.415
18673SOL    HW157916   7.144   1.193   8.369
18673SOL    HW257917   7.071   1.142   8.492
18674SOL     OW57918   1.780   2.817   1.146
18674SOL    HW157919   1.765   2.909   1.168
18674SOL    HW257920   1.801   2.775   1.229
18675SOL     OW57921   7.763  10.190  12.406
18675SOL    HW157922   7.745  10.280  12.433
18675SOL    HW257923   7.748  10.137  12.484
18676SOL     OW57924   4.441  13.378   2.932
18676SOL    HW157925   4.346  13.364   2.933
18676SOL    HW257926   4.459  13.428   3.012
18677SOL     OW57927   3.329   5.562   6.914
18677SOL    HW157928   3.379   5.641   6.894
18677SOL    HW257929   3.322   5.517   6.830
18678SOL     OW57930   9.600   2.137   3.409
18678SOL    HW157931   9.554   2.097   3.336
18678SOL    HW257932   9.610   2.229   3.383
18679SOL     OW57933   6.291   3.109   1.532
18679SOL    HW157934   6.270   3.093   1.624
18679SOL    HW257935   6.380   3.075   1.522
18680SOL     OW57936  12.585  10.649   2.816
18680SOL    HW157937  12.565  10.582   2.882
18680SOL    HW257938  12.549  10.614   2.735
18681SOL     OW57939   3.540   9.810  11.561
18681SOL    HW157940   3.552   9.879  11.626
18681SOL    HW257941   3.467   9.840  11.507
18682SOL     OW57942   7.954   8.531  14.720
18682SOL    HW157943   7.907   8.574  14.649
18682SOL    HW257944   7.888   8.477  14.763
18683SOL     OW57945   8.555   5.196   8.138
18683SOL    HW157946   8.470   5.156   8.159
18683SOL    HW257947   8.540   5.290   8.146
18684SOL     OW57948   5.653   3.409  11.648
18684SOL    HW157949   5.748   3.408  11.659
18684SOL    HW257950   5.619   3.365  11.727
18685SOL     OW57951   3.018  11.229  12.507
18685SOL    HW157952   2.963  11.163  12.463
18685SOL    HW257953   3.068  11.269  12.436
18686SOL     OW57954  10.695   1.030   0.254
18686SOL    HW157955  10.721   1.019   0.346
18686SOL    HW257956  10.729   0.951   0.210
18687SOL     OW57957   4.366   7.407   6.288
18687SOL    HW157958   4.334   7.407   6.378
18687SOL    HW257959   4.386   7.316   6.269
18688SOL     OW57960   4.825  11.918   8.804
18688SOL    HW157961   4.751  11.945   8.859
18688SOL    HW257962   4.827  11.823   8.811
18689SOL     OW57963  13.545   4.193  10.885
18689SOL    HW157964  13.526   4.222  10.974
18689SOL    HW257965  13.467   4.216  10.835
18690SOL     OW57966   5.144  12.639  13.650
18690SOL    HW157967   5.224  12.589  13.633
18690SOL    HW257968   5.120  12.617  13.740
18691SOL     OW57969   8.446  13.230  12.384
18691SOL    HW157970   8.427  13.236  12.290
18691SOL    HW257971   8.421  13.315  12.419
18692SOL     OW57972   0.305   9.064   9.397
18692SOL    HW157973   0.394   9.057   9.429
18692SOL    HW257974   0.250   9.032   9.469
18693SOL     OW57975  11.331   6.050   3.203
18693SOL    HW157976  11.307   6.000   3.282
18693SOL    HW257977  11.249   6.084   3.170
18694SOL     OW57978  10.156   3.168   2.538
18694SOL    HW157979  10.181   3.164   2.446
18694SOL    HW257980  10.131   3.259   2.553
18695SOL     OW57981   7.663   8.245  12.102
18695SOL    HW157982   7.682   8.326  12.148
18695SOL    HW257983   7.567   8.241  12.098
18696SOL     OW57984   3.677   8.660  13.481
18696SOL    HW157985   3.650   8.682  13.571
18696SOL    HW257986   3.730   8.581  13.491
18697SOL     OW57987  10.314  14.783  11.033
18697SOL    HW157988  10.291  14.857  10.977
18697SOL    HW257989  10.409  14.788  11.042
18698SOL     OW57990  13.929   8.797   6.731
18698SOL    HW157991  13.968   8.721   6.774
18698SOL    HW257992  13.846   8.811   6.777
18699SOL     OW57993   1.673  11.368   8.199
18699SOL    HW157994   1.644  11.392   8.111
18699SOL    HW257995   1.768  11.369   8.194
18700SOL     OW57996   1.908  10.748  11.780
18700SOL    HW157997   1.893  10.710  11.866
18700SOL    HW257998   1.967  10.686  11.736
18701SOL     OW57999   0.416   0.856  13.094
18701SOL    HW158000   0.384   0.862  13.004
18701SOL    HW258001   0.489   0.917  13.098
18702SOL     OW58002   9.519  13.421   6.494
18702SOL    HW158003   9.519  13.463   6.408
18702SOL    HW258004   9.596  13.455   6.538
18703SOL     OW58005  14.856  10.566   4.768
18703SOL    HW158006  14.833  10.652   4.804
18703SOL    HW258007   0.046  10.585   4.695
18704SOL     OW58008   2.216   4.429   7.750
18704SOL    HW158009   2.211   4.505   7.808
18704SOL    HW258010   2.125   4.406   7.732
18705SOL     OW58011   7.041   6.706   2.191
18705SOL    HW158012   7.120   6.662   2.160
18705SOL    HW258013   6.983   6.635   2.220
18706SOL     OW58014   2.817   2.827   4.595
18706SOL    HW158015   2.753   2.873   4.649
18706SOL    HW258016   2.792   2.847   4.505
18707SOL     OW58017  13.279   2.665   6.843
18707SOL    HW158018  13.247   2.639   6.757
18707SOL    HW258019  13.296   2.582   6.888
18708SOL     OW58020   4.998   3.906   8.392
18708SOL    HW158021   4.990   3.995   8.359
18708SOL    HW258022   5.085   3.903   8.433
18709SOL     OW58023  10.010   1.093   0.114
18709SOL    HW158024   9.964   1.072   0.032
18709SOL    HW258025   9.941   1.124   0.173
18710SOL     OW58026  14.099  13.519   5.464
18710SOL    HW158027  14.080  13.595   5.409
18710SOL    HW258028  14.106  13.446   5.403
18711SOL     OW58029  10.078  11.527   7.561
18711SOL    HW158030   9.988  11.542   7.590
18711SOL    HW258031  10.123  11.491   7.637
18712SOL     OW58032  11.124   8.007   8.663
18712SOL    HW158033  11.056   7.952   8.703
18712SOL    HW258034  11.200   7.950   8.656
18713SOL     OW58035  11.505   8.458  11.187
18713SOL    HW158036  11.429   8.514  11.205
18713SOL    HW258037  11.481   8.411  11.107
18714SOL     OW58038  10.606  11.597   3.784
18714SOL    HW158039  10.658  11.659   3.731
18714SOL    HW258040  10.556  11.653   3.843
18715SOL     OW58041   1.187  12.356   7.810
18715SOL    HW158042   1.218  12.438   7.772
18715SOL    HW258043   1.246  12.289   7.775
18716SOL     OW58044   9.360   9.318  12.241
18716SOL    HW158045   9.418   9.245  12.220
18716SOL    HW258046   9.305   9.329  12.164
18717SOL     OW58047  10.446   8.678   8.497
18717SOL    HW158048  10.497   8.671   8.416
18717SOL    HW258049  10.406   8.765   8.492
18718SOL     OW58050   2.145  13.906  12.374
18718SOL    HW158051   2.067  13.854  12.356
18718SOL    HW258052   2.194  13.905  12.291
18719SOL     OW58053  13.213  14.802   5.668
18719SOL    HW158054  13.297  14.818   5.626
18719SOL    HW258055  13.148  14.826   5.602
18720SOL     OW58056  10.279  13.888   3.706
18720SOL    HW158057  10.318  13.801   3.698
18720SOL    HW258058  10.342  13.946   3.662
18721SOL     OW58059   6.427   5.422   9.677
18721SOL    HW158060   6.511   5.381   9.698
18721SOL    HW258061   6.449   5.514   9.662
18722SOL     OW58062  14.466   1.272   5.536
18722SOL    HW158063  14.430   1.360   5.531
18722SOL    HW258064  14.402   1.216   5.493
18723SOL     OW58065   3.035  14.101  10.274
18723SOL    HW158066   2.999  14.185  10.303
18723SOL    HW258067   3.082  14.121  10.194
18724SOL     OW58068  13.707   6.101   2.745
18724SOL    HW158069  13.691   6.021   2.795
18724SOL    HW258070  13.703   6.171   2.809
18725SOL     OW58071   5.148  12.130   5.074
18725SOL    HW158072   5.092  12.199   5.110
18725SOL    HW258073   5.211  12.176   5.018
18726SOL     OW58074  11.927  10.046   3.071
18726SOL    HW158075  12.009  10.083   3.040
18726SOL    HW258076  11.884  10.117   3.118
18727SOL     OW58077  10.144  10.457   2.992
18727SOL    HW158078  10.067  10.510   2.968
18727SOL    HW258079  10.144  10.456   3.087
18728SOL     OW58080   4.508  12.230  13.700
18728SOL    HW158081   4.563  12.262  13.772
18728SOL    HW258082   4.570  12.196  13.636
18729SOL     OW58083  12.314   4.644   0.477
18729SOL    HW158084  12.355   4.565   0.512
18729SOL    HW258085  12.382   4.710   0.481
18730SOL     OW58086  10.975  13.171   2.835
18730SOL    HW158087  11.000  13.250   2.882
18730SOL    HW258088  10.883  13.158   2.856
18731SOL     OW58089   7.778   9.839   6.883
18731SOL    HW158090   7.832   9.760   6.888
18731SOL    HW258091   7.841   9.911   6.878
18732SOL     OW58092  11.334   3.434   1.754
18732SOL    HW158093  11.294   3.449   1.668
18732SOL    HW258094  11.367   3.519   1.781
18733SOL     OW58095   4.396   8.585  10.249
18733SOL    HW158096   4.350   8.586  10.166
18733SOL    HW258097   4.489   8.596  10.226
18734SOL     OW58098   5.578  13.201   4.055
18734SOL    HW158099   5.515  13.257   4.099
18734SOL    HW258100   5.527  13.125   4.027
18735SOL     OW58101   1.301   0.425   1.559
18735SOL    HW158102   1.328   0.492   1.495
18735SOL    HW258103   1.357   0.441   1.635
18736SOL     OW58104  11.019   9.555   2.587
18736SOL    HW158105  10.957   9.611   2.540
18736SOL    HW258106  11.032   9.600   2.671
18737SOL     OW58107   9.563  13.260   7.424
18737SOL    HW158108   9.499  13.191   7.440
18737SOL    HW258109   9.560  13.273   7.329
18738SOL     OW58110   5.501   4.766  14.675
18738SOL    HW158111   5.522   4.814  14.595
18738SOL    HW258112   5.447   4.827  14.726
18739SOL     OW58113   7.144  11.220   1.247
18739SOL    HW158114   7.191  11.303   1.236
18739SOL    HW258115   7.125  11.216   1.341
18740SOL     OW58116   7.003   6.073   9.429
18740SOL    HW158117   7.073   6.111   9.376
18740SOL    HW258118   7.035   6.081   9.519
18741SOL     OW58119   1.768   2.524   5.974
18741SOL    HW158120   1.817   2.465   6.032
18741SOL    HW258121   1.725   2.465   5.912
18742SOL     OW58122   4.636   2.988   3.110
18742SOL    HW158123   4.727   3.014   3.124
18742SOL    HW258124   4.612   2.940   3.190
18743SOL     OW58125  10.337   2.403   1.223
18743SOL    HW158126  10.353   2.337   1.291
18743SOL    HW258127  10.424   2.428   1.193
18744SOL     OW58128   2.236   5.880   8.775
18744SOL    HW158129   2.245   5.804   8.833
18744SOL    HW258130   2.170   5.854   8.711
18745SOL     OW58131   0.827   0.998   8.902
18745SOL    HW158132   0.824   0.994   8.806
18745SOL    HW258133   0.788   1.082   8.924
18746SOL     OW58134  12.856   6.366   9.599
18746SOL    HW158135  12.901   6.415   9.667
18746SOL    HW258136  12.827   6.432   9.536
18747SOL     OW58137   7.344   2.190   3.778
18747SOL    HW158138   7.344   2.227   3.866
18747SOL    HW258139   7.280   2.119   3.782
18748SOL     OW58140   1.313   8.647  12.899
18748SOL    HW158141   1.389   8.593  12.919
18748SOL    HW258142   1.248   8.586  12.864
18749SOL     OW58143   4.857   4.698   0.303
18749SOL    HW158144   4.836   4.610   0.333
18749SOL    HW258145   4.788   4.720   0.241
18750SOL     OW58146   5.943  11.506  13.892
18750SOL    HW158147   5.906  11.459  13.817
18750SOL    HW258148   6.033  11.475  13.896
18751SOL     OW58149  11.683   9.762  13.515
18751SOL    HW158150  11.746   9.829  13.541
18751SOL    HW258151  11.727   9.712  13.447
18752SOL     OW58152   9.811  10.957  10.660
18752SOL    HW158153   9.794  10.968  10.754
18752SOL    HW258154   9.744  10.895  10.631
18753SOL     OW58155  13.301  13.705   3.689
18753SOL    HW158156  13.361  13.771   3.724
18753SOL    HW258157  13.339  13.622   3.717
18754SOL     OW58158   9.430   2.542  12.604
18754SOL    HW158159   9.359   2.590  12.648
18754SOL    HW258160   9.387   2.501  12.529
18755SOL     OW58161   3.552   2.338   5.455
18755SOL    HW158162   3.585   2.249   5.463
18755SOL    HW258163   3.485   2.333   5.387
18756SOL     OW58164  12.102   5.771   0.920
18756SOL    HW158165  12.068   5.700   0.975
18756SOL    HW258166  12.164   5.817   0.976
18757SOL     OW58167   4.386   1.682   8.468
18757SOL    HW158168   4.370   1.656   8.559
18757SOL    HW258169   4.299   1.680   8.428
18758SOL     OW58170   8.758   4.795  13.532
18758SOL    HW158171   8.788   4.721  13.480
18758SOL    HW258172   8.663   4.785  13.537
18759SOL     OW58173   9.273   3.290   6.629
18759SOL    HW158174   9.365   3.269   6.617
18759SOL    HW258175   9.236   3.287   6.541
18760SOL     OW58176   1.738  11.248  10.615
18760SOL    HW158177   1.745  11.226  10.522
18760SOL    HW258178   1.824  11.225  10.651
18761SOL     OW58179   2.594   2.517   9.839
18761SOL    HW158180   2.581   2.479   9.926
18761SOL    HW258181   2.643   2.450   9.792
18762SOL     OW58182  14.650   1.928  14.199
18762SOL    HW158183  14.615   1.917  14.110
18762SOL    HW258184  14.623   1.849  14.246
18763SOL     OW58185   9.854   2.730   8.708
18763SOL    HW158186   9.915   2.680   8.762
18763SOL    HW258187   9.843   2.813   8.754
18764SOL     OW58188   5.703   3.945   7.929
18764SOL    HW158189   5.776   3.987   7.882
18764SOL    HW258190   5.742   3.913   8.010
18765SOL     OW58191   3.941   2.086   3.324
18765SOL    HW158192   3.890   2.107   3.403
18765SOL    HW258193   4.025   2.056   3.357
18766SOL     OW58194   4.737  11.453  11.570
18766SOL    HW158195   4.793  11.375  11.562
18766SOL    HW258196   4.654  11.427  11.529
18767SOL     OW58197   3.563  12.685   0.095
18767SOL    HW158198   3.655  12.663   0.089
18767SOL    HW258199   3.541  12.671   0.188
18768SOL     OW58200   1.363   0.885  10.857
18768SOL    HW158201   1.338   0.917  10.944
18768SOL    HW258202   1.339   0.955  10.797
18769SOL     OW58203  14.304   9.642   6.012
18769SOL    HW158204  14.350   9.561   6.034
18769SOL    HW258205  14.212   9.620   6.017
18770SOL     OW58206   5.940  11.257   6.175
18770SOL    HW158207   5.982  11.171   6.171
18770SOL    HW258208   5.855  11.243   6.134
18771SOL     OW58209   0.987  13.272   4.498
18771SOL    HW158210   1.068  13.223   4.485
18771SOL    HW258211   0.923  13.228   4.442
18772SOL     OW58212  12.719   2.790   2.835
18772SOL    HW158213  12.725   2.799   2.740
18772SOL    HW258214  12.717   2.880   2.867
18773SOL     OW58215  10.673   6.466   1.442
18773SOL    HW158216  10.581   6.482   1.462
18773SOL    HW258217  10.672   6.417   1.360
18774SOL     OW58218  10.258   2.134  10.310
18774SOL    HW158219  10.258   2.147  10.215
18774SOL    HW258220  10.319   2.062  10.325
18775SOL     OW58221   8.560   5.389   5.345
18775SOL    HW158222   8.560   5.344   5.429
18775SOL    HW258223   8.523   5.476   5.364
18776SOL     OW58224   4.415  10.132   2.387
18776SOL    HW158225   4.507  10.136   2.413
18776SOL    HW258226   4.377  10.064   2.443
18777SOL     OW58227   4.558  13.238   9.172
18777SOL    HW158228   4.639  13.188   9.183
18777SOL    HW258229   4.562  13.304   9.242
18778SOL     OW58230   5.790   8.629  14.500
18778SOL    HW158231   5.777   8.536  14.482
18778SOL    HW258232   5.702   8.661  14.521
18779SOL     OW58233   0.800   8.282   8.042
18779SOL    HW158234   0.853   8.249   8.115
18779SOL    HW258235   0.792   8.376   8.059
18780SOL     OW58236   1.972   5.083   5.566
18780SOL    HW158237   1.893   5.050   5.609
18780SOL    HW258238   1.943   5.103   5.477
18781SOL     OW58239   7.524  11.126   5.381
18781SOL    HW158240   7.546  11.033   5.385
18781SOL    HW258241   7.443  11.133   5.432
18782SOL     OW58242   9.108  13.728   9.094
18782SOL    HW158243   9.082  13.758   9.007
18782SOL    HW258244   9.197  13.762   9.105
18783SOL     OW58245  11.787   8.248   3.839
18783SOL    HW158246  11.753   8.252   3.749
18783SOL    HW258247  11.860   8.309   3.840
18784SOL     OW58248   6.212   8.933   2.669
18784SOL    HW158249   6.125   8.913   2.637
18784SOL    HW258250   6.266   8.858   2.641
18785SOL     OW58251   4.564   7.845   8.149
18785SOL    HW158252   4.526   7.866   8.235
18785SOL    HW258253   4.576   7.750   8.151
18786SOL     OW58254  12.213  12.774  11.134
18786SOL    HW158255  12.130  12.779  11.182
18786SOL    HW258256  12.199  12.829  11.057
18787SOL     OW58257  14.161   3.068   5.514
18787SOL    HW158258  14.255   3.066   5.498
18787SOL    HW258259  14.150   3.021   5.597
18788SOL     OW58260   6.603   1.182   3.655
18788SOL    HW158261   6.540   1.243   3.694
18788SOL    HW258262   6.688   1.210   3.690
18789SOL     OW58263  14.459  10.308   7.533
18789SOL    HW158264  14.451  10.253   7.455
18789SOL    HW258265  14.535  10.275   7.579
18790SOL     OW58266  11.070  13.275   3.234
18790SOL    HW158267  11.111  13.311   3.313
18790SOL    HW258268  11.020  13.200   3.265
18791SOL     OW58269  13.111  13.487   2.817
18791SOL    HW158270  13.197  13.504   2.778
18791SOL    HW258271  13.081  13.408   2.773
18792SOL     OW58272   4.269  12.153  13.838
18792SOL    HW158273   4.337  12.194  13.785
18792SOL    HW258274   4.232  12.225  13.889
18793SOL     OW58275   5.699  11.551  13.181
18793SOL    HW158276   5.701  11.520  13.271
18793SOL    HW258277   5.760  11.493  13.135
18794SOL     OW58278   8.951   7.446   5.928
18794SOL    HW158279   8.887   7.509   5.896
18794SOL    HW258280   8.902   7.365   5.939
18795SOL     OW58281  10.532   1.571   6.716
18795SOL    HW158282  10.566   1.641   6.660
18795SOL    HW258283  10.601   1.556   6.780
18796SOL     OW58284  11.617   2.182   0.149
18796SOL    HW158285  11.684   2.117   0.167
18796SOL    HW258286  11.666   2.261   0.125
18797SOL     OW58287  14.318  14.436   7.208
18797SOL    HW158288  14.369  14.484   7.143
18797SOL    HW258289  14.271  14.370   7.158
18798SOL     OW58290   2.670   9.312  13.956
18798SOL    HW158291   2.722   9.261  14.019
18798SOL    HW258292   2.606   9.359  14.010
18799SOL     OW58293   9.949  10.833   6.816
18799SOL    HW158294   9.974  10.889   6.742
18799SOL    HW258295   9.881  10.883   6.862
18800SOL     OW58296  14.154   8.092  11.112
18800SOL    HW158297  14.122   8.180  11.132
18800SOL    HW258298  14.214   8.071  11.183
18801SOL     OW58299   4.109  11.562   8.873
18801SOL    HW158300   4.182  11.501   8.862
18801SOL    HW258301   4.138  11.642   8.830
18802SOL     OW58302   2.844  10.625   9.454
18802SOL    HW158303   2.749  10.620   9.462
18802SOL    HW258304   2.859  10.679   9.377
18803SOL     OW58305   7.137   9.189  14.797
18803SOL    HW158306   7.043   9.203  14.807
18803SOL    HW258307   7.178   9.260  14.847
18804SOL     OW58308   4.101   0.207  12.171
18804SOL    HW158309   4.093   0.115  12.147
18804SOL    HW258310   4.183   0.235  12.131
18805SOL     OW58311   5.646  11.588   7.067
18805SOL    HW158312   5.662  11.579   6.973
18805SOL    HW258313   5.695  11.665   7.093
18806SOL     OW58314   5.593   2.931   8.622
18806SOL    HW158315   5.624   2.986   8.550
18806SOL    HW258316   5.609   2.984   8.701
18807SOL     OW58317   5.201   1.146   9.264
18807SOL    HW158318   5.239   1.218   9.214
18807SOL    HW258319   5.212   1.069   9.208
18808SOL     OW58320   3.557   3.932   2.438
18808SOL    HW158321   3.501   3.997   2.481
18808SOL    HW258322   3.582   3.973   2.356
18809SOL     OW58323  13.183   4.916   2.959
18809SOL    HW158324  13.196   4.966   3.040
18809SOL    HW258325  13.175   4.825   2.988
18810SOL     OW58326   1.914  12.619   7.433
18810SOL    HW158327   1.920  12.596   7.341
18810SOL    HW258328   1.947  12.542   7.479
18811SOL     OW58329   8.731   4.564  10.811
18811SOL    HW158330   8.737   4.580  10.905
18811SOL    HW258331   8.781   4.635  10.771
18812SOL     OW58332  14.643  14.487   6.810
18812SOL    HW158333  14.592  14.461   6.733
18812SOL    HW258334  14.725  14.521   6.775
18813SOL     OW58335   3.128  13.578  13.980
18813SOL    HW158336   3.110  13.598  13.888
18813SOL    HW258337   3.130  13.482  13.983
18814SOL     OW58338   6.043  14.467   1.239
18814SOL    HW158339   6.049  14.421   1.155
18814SOL    HW258340   5.978  14.417   1.289
18815SOL     OW58341   0.026   2.825   6.336
18815SOL    HW158342   0.081   2.895   6.372
18815SOL    HW258343   0.042   2.751   6.393
18816SOL     OW58344   9.439   5.150   4.382
18816SOL    HW158345   9.499   5.212   4.424
18816SOL    HW258346   9.493   5.074   4.361
18817SOL     OW58347   4.304  11.706   8.476
18817SOL    HW158348   4.317  11.625   8.526
18817SOL    HW258349   4.231  11.750   8.521
18818SOL     OW58350  12.422   5.421   5.172
18818SOL    HW158351  12.429   5.492   5.235
18818SOL    HW258352  12.353   5.449   5.112
18819SOL     OW58353   5.066  14.453  11.744
18819SOL    HW158354   5.137  14.496  11.792
18819SOL    HW258355   5.044  14.515  11.675
18820SOL     OW58356   1.702   8.918  12.849
18820SOL    HW158357   1.708   8.825  12.868
18820SOL    HW258358   1.756   8.960  12.917
18821SOL     OW58359   2.504  12.295  13.043
18821SOL    HW158360   2.566  12.230  13.009
18821SOL    HW258361   2.435  12.300  12.977
18822SOL     OW58362   1.400   9.010   0.301
18822SOL    HW158363   1.432   8.922   0.282
18822SOL    HW258364   1.479   9.064   0.303
18823SOL     OW58365   2.465   6.821  10.361
18823SOL    HW158366   2.508   6.854  10.441
18823SOL    HW258367   2.526   6.843  10.291
18824SOL     OW58368   5.891  10.626   5.571
18824SOL    HW158369   5.899  10.586   5.657
18824SOL    HW258370   5.834  10.701   5.584
18825SOL     OW58371  14.069   6.776   5.274
18825SOL    HW158372  14.051   6.683   5.264
18825SOL    HW258373  14.135   6.795   5.208
18826SOL     OW58374   1.645   1.035   7.127
18826SOL    HW158375   1.728   1.079   7.145
18826SOL    HW258376   1.638   1.038   7.031
18827SOL     OW58377   1.076   0.859   6.567
18827SOL    HW158378   1.078   0.823   6.655
18827SOL    HW258379   1.075   0.782   6.510
18828SOL     OW58380  10.514   2.245   4.544
18828SOL    HW158381  10.455   2.200   4.604
18828SOL    HW258382  10.487   2.215   4.457
18829SOL     OW58383  13.264   5.797   3.752
18829SOL    HW158384  13.348   5.751   3.748
18829SOL    HW258385  13.247   5.810   3.845
18830SOL     OW58386  11.922   7.733   4.485
18830SOL    HW158387  11.857   7.741   4.415
18830SOL    HW258388  11.965   7.818   4.488
18831SOL     OW58389  12.686   2.246  10.003
18831SOL    HW158390  12.636   2.218   9.927
18831SOL    HW258391  12.622   2.292  10.058
18832SOL     OW58392   2.920   5.565   6.924
18832SOL    HW158393   2.988   5.603   6.869
18832SOL    HW258394   2.941   5.472   6.928
18833SOL     OW58395   2.873   7.665   3.130
18833SOL    HW158396   2.928   7.741   3.145
18833SOL    HW258397   2.879   7.647   3.037
18834SOL     OW58398  12.173   2.665  12.432
18834SOL    HW158399  12.179   2.653  12.337
18834SOL    HW258400  12.258   2.637  12.465
18835SOL     OW58401  10.381  13.800   9.007
18835SOL    HW158402  10.289  13.795   8.983
18835SOL    HW258403  10.408  13.887   8.979
18836SOL     OW58404  13.013   3.284   6.324
18836SOL    HW158405  13.029   3.345   6.396
18836SOL    HW258406  12.977   3.338   6.254
18837SOL     OW58407   5.274   8.646   9.147
18837SOL    HW158408   5.311   8.566   9.110
18837SOL    HW258409   5.193   8.661   9.098
18838SOL     OW58410   4.004   2.579   4.957
18838SOL    HW158411   4.005   2.601   4.864
18838SOL    HW258412   3.929   2.627   4.992
18839SOL     OW58413  13.178   3.926   2.843
18839SOL    HW158414  13.086   3.899   2.842
18839SOL    HW258415  13.197   3.942   2.936
18840SOL     OW58416   8.698  10.190   8.405
18840SOL    HW158417   8.648  10.271   8.414
18840SOL    HW258418   8.782  10.218   8.369
18841SOL     OW58419   3.772   5.165   5.530
18841SOL    HW158420   3.767   5.070   5.541
18841SOL    HW258421   3.741   5.181   5.441
18842SOL     OW58422  10.496  14.632  14.745
18842SOL    HW158423  10.408  14.612  14.777
18842SOL    HW258424  10.517  14.716  14.785
18843SOL     OW58425   6.312   3.016   6.838
18843SOL    HW158426   6.327   2.937   6.785
18843SOL    HW258427   6.302   2.984   6.927
18844SOL     OW58428   2.033  12.081   4.948
18844SOL    HW158429   1.981  12.011   4.909
18844SOL    HW258430   1.971  12.132   4.999
18845SOL     OW58431   1.816   2.677   4.974
18845SOL    HW158432   1.810   2.663   5.068
18845SOL    HW258433   1.910   2.682   4.956
18846SOL     OW58434   5.339   9.973   2.133
18846SOL    HW158435   5.339   9.879   2.115
18846SOL    HW258436   5.313  10.013   2.050
18847SOL     OW58437  13.958   8.624  12.187
18847SOL    HW158438  14.020   8.694  12.165
18847SOL    HW258439  14.014   8.554  12.222
18848SOL     OW58440  13.317  10.819   3.566
18848SOL    HW158441  13.352  10.754   3.505
18848SOL    HW258442  13.323  10.778   3.652
18849SOL     OW58443  13.163   2.229   5.653
18849SOL    HW158444  13.162   2.298   5.719
18849SOL    HW258445  13.252   2.196   5.653
18850SOL     OW58446  11.738   2.544   0.750
18850SOL    HW158447  11.688   2.484   0.805
18850SOL    HW258448  11.808   2.489   0.714
18851SOL     OW58449   5.126   4.639   8.920
18851SOL    HW158450   5.075   4.618   8.842
18851SOL    HW258451   5.111   4.733   8.933
18852SOL     OW58452   9.740   3.456   4.078
18852SOL    HW158453   9.725   3.419   4.165
18852SOL    HW258454   9.834   3.448   4.064
18853SOL     OW58455   6.590   3.487   3.283
18853SOL    HW158456   6.655   3.558   3.275
18853SOL    HW258457   6.510   3.524   3.247
18854SOL     OW58458   4.634   1.421   7.064
18854SOL    HW158459   4.697   1.492   7.076
18854SOL    HW258460   4.605   1.431   6.973
18855SOL     OW58461  11.863   8.821  10.798
18855SOL    HW158462  11.890   8.810  10.889
18855SOL    HW258463  11.904   8.902  10.770
18856SOL     OW58464  14.219   3.951  12.589
18856SOL    HW158465  14.287   3.998  12.637
18856SOL    HW258466  14.249   3.951  12.498
18857SOL     OW58467   1.940   4.358  11.133
18857SOL    HW158468   1.997   4.304  11.078
18857SOL    HW258469   1.932   4.441  11.087
18858SOL     OW58470   2.856  13.711   5.421
18858SOL    HW158471   2.874  13.671   5.506
18858SOL    HW258472   2.760  13.713   5.415
18859SOL     OW58473  12.099  10.160  12.990
18859SOL    HW158474  12.021  10.206  12.959
18859SOL    HW258475  12.111  10.191  13.080
18860SOL     OW58476  13.788   2.292  11.597
18860SOL    HW158477  13.763   2.264  11.509
18860SOL    HW258478  13.861   2.351  11.584
18861SOL     OW58479  10.941   2.345   0.176
18861SOL    HW158480  10.986   2.389   0.104
18861SOL    HW258481  10.865   2.399   0.194
18862SOL     OW58482   7.922   1.317   3.839
18862SOL    HW158483   7.854   1.287   3.778
18862SOL    HW258484   7.894   1.404   3.866
18863SOL     OW58485   7.326   4.903   4.800
18863SOL    HW158486   7.338   4.916   4.894
18863SOL    HW258487   7.299   4.988   4.767
18864SOL     OW58488   7.960   6.883   4.250
18864SOL    HW158489   7.959   6.972   4.216
18864SOL    HW258490   7.886   6.840   4.207
18865SOL     OW58491  14.188   1.649   1.551
18865SOL    HW158492  14.241   1.603   1.485
18865SOL    HW258493  14.103   1.605   1.548
18866SOL     OW58494  14.373  11.478  10.705
18866SOL    HW158495  14.467  11.485  10.690
18866SOL    HW258496  14.333  11.525  10.632
18867SOL     OW58497  12.470   7.048  12.585
18867SOL    HW158498  12.478   6.953  12.585
18867SOL    HW258499  12.558   7.079  12.607
18868SOL     OW58500   5.849   6.506   1.011
18868SOL    HW158501   5.758   6.532   0.998
18868SOL    HW258502   5.888   6.512   0.924
18869SOL     OW58503   0.964  14.748  11.468
18869SOL    HW158504   0.984  14.730  11.376
18869SOL    HW258505   1.023  14.693  11.518
18870SOL     OW58506   6.898   5.823   5.913
18870SOL    HW158507   6.982   5.866   5.930
18870SOL    HW258508   6.844   5.844   5.989
18871SOL     OW58509   9.570  11.233   0.126
18871SOL    HW158510   9.502  11.166   0.123
18871SOL    HW258511   9.644  11.190   0.168
18872SOL     OW58512   0.623   2.031   5.894
18872SOL    HW158513   0.653   2.118   5.921
18872SOL    HW258514   0.569   2.001   5.967
18873SOL     OW58515  11.125  12.111   9.013
18873SOL    HW158516  11.166  12.156   8.938
18873SOL    HW258517  11.133  12.174   9.085
18874SOL     OW58518   1.551   2.639   4.603
18874SOL    HW158519   1.462   2.604   4.607
18874SOL    HW258520   1.604   2.574   4.650
18875SOL     OW58521   6.072   6.324  12.285
18875SOL    HW158522   5.990   6.279  12.306
18875SOL    HW258523   6.138   6.254  12.279
18876SOL     OW58524   8.724  13.831   2.274
18876SOL    HW158525   8.749  13.913   2.316
18876SOL    HW258526   8.766  13.763   2.327
18877SOL     OW58527   1.626   6.244  11.904
18877SOL    HW158528   1.717   6.268  11.885
18877SOL    HW258529   1.589   6.320  11.948
18878SOL     OW58530   9.600  13.645   8.304
18878SOL    HW158531   9.514  13.669   8.270
18878SOL    HW258532   9.585  13.630   8.398
18879SOL     OW58533   2.013  11.945   3.015
18879SOL    HW158534   2.001  11.851   3.030
18879SOL    HW258535   2.101  11.963   3.047
18880SOL     OW58536  10.462   4.990   3.667
18880SOL    HW158537  10.383   4.957   3.709
18880SOL    HW258538  10.513   5.029   3.738
18881SOL     OW58539   9.743   5.986   9.523
18881SOL    HW158540   9.821   5.941   9.554
18881SOL    HW258541   9.670   5.938   9.563
18882SOL     OW58542  13.446   6.229  11.853
18882SOL    HW158543  13.394   6.158  11.813
18882SOL    HW258544  13.396   6.308  11.834
18883SOL     OW58545   0.272   3.990   6.621
18883SOL    HW158546   0.278   3.990   6.716
18883SOL    HW258547   0.338   3.926   6.593
18884SOL     OW58548  13.406  12.574   9.209
18884SOL    HW158549  13.358  12.537   9.283
18884SOL    HW258550  13.343  12.573   9.137
18885SOL     OW58551  13.584   2.646   5.822
18885SOL    HW158552  13.639   2.582   5.866
18885SOL    HW258553  13.584   2.619   5.730
18886SOL     OW58554   3.376   3.319   8.192
18886SOL    HW158555   3.396   3.257   8.262
18886SOL    HW258556   3.367   3.403   8.236
18887SOL     OW58557  11.182   9.207   3.527
18887SOL    HW158558  11.115   9.268   3.498
18887SOL    HW258559  11.198   9.230   3.619
18888SOL     OW58560   9.766   0.803   8.127
18888SOL    HW158561   9.767   0.826   8.035
18888SOL    HW258562   9.678   0.828   8.157
18889SOL     OW58563   5.108   7.427   2.422
18889SOL    HW158564   5.067   7.470   2.348
18889SOL    HW258565   5.095   7.334   2.406
18890SOL     OW58566   4.042   0.032   0.476
18890SOL    HW158567   3.959   0.074   0.498
18890SOL    HW258568   4.019  14.811   0.457
18891SOL     OW58569  10.542   3.949   3.442
18891SOL    HW158570  10.581   4.012   3.380
18891SOL    HW258571  10.616   3.894   3.469
18892SOL     OW58572   4.286   2.719   4.302
18892SOL    HW158573   4.333   2.703   4.384
18892SOL    HW258574   4.340   2.782   4.254
18893SOL     OW58575   5.219  12.105   7.482
18893SOL    HW158576   5.144  12.108   7.422
18893SOL    HW258577   5.267  12.187   7.464
18894SOL     OW58578  11.719  10.341   8.880
18894SOL    HW158579  11.678  10.321   8.964
18894SOL    HW258580  11.646  10.356   8.820
18895SOL     OW58581  13.548   7.505   2.804
18895SOL    HW158582  13.531   7.508   2.710
18895SOL    HW258583  13.588   7.590   2.824
18896SOL     OW58584  14.256   7.970   8.354
18896SOL    HW158585  14.206   7.946   8.432
18896SOL    HW258586  14.336   8.009   8.388
18897SOL     OW58587  13.356   3.771   9.223
18897SOL    HW158588  13.272   3.781   9.176
18897SOL    HW258589  13.348   3.829   9.299
18898SOL     OW58590   1.997  10.909   8.225
18898SOL    HW158591   1.960  10.883   8.309
18898SOL    HW258592   1.922  10.940   8.174
18899SOL     OW58593  10.951   9.646  10.984
18899SOL    HW158594  11.016   9.623  10.918
18899SOL    HW258595  10.875   9.675  10.933
18900SOL     OW58596  12.053   0.069  11.534
18900SOL    HW158597  12.133   0.017  11.529
18900SOL    HW258598  12.052   0.119  11.453
18901SOL     OW58599   5.725  13.728   8.440
18901SOL    HW158600   5.714  13.635   8.456
18901SOL    HW258601   5.710  13.738   8.346
18902SOL     OW58602   0.791  10.586  12.163
18902SOL    HW158603   0.748  10.657  12.115
18902SOL    HW258604   0.760  10.596  12.253
18903SOL     OW58605  13.240   0.893  14.590
18903SOL    HW158606  13.159   0.843  14.580
18903SOL    HW258607  13.239   0.922  14.681
18904SOL     OW58608  11.427   3.855   3.874
18904SOL    HW158609  11.373   3.826   3.947
18904SOL    HW258610  11.380   3.930   3.837
18905SOL     OW58611  11.562   2.465  13.480
18905SOL    HW158612  11.478   2.433  13.447
18905SOL    HW258613  11.598   2.392  13.530
18906SOL     OW58614   8.596   1.429  10.879
18906SOL    HW158615   8.529   1.481  10.834
18906SOL    HW258616   8.660   1.493  10.908
18907SOL     OW58617  14.843   7.454  12.734
18907SOL    HW158618  14.847   7.401  12.654
18907SOL    HW258619  14.788   7.528  12.710
18908SOL     OW58620   8.618   8.159  13.829
18908SOL    HW158621   8.713   8.155  13.830
18908SOL    HW258622   8.590   8.070  13.808
18909SOL     OW58623  13.389  11.608   1.864
18909SOL    HW158624  13.346  11.693   1.864
18909SOL    HW258625  13.348  11.559   1.936
18910SOL     OW58626  12.083  14.013  12.020
18910SOL    HW158627  12.027  14.070  12.072
18910SOL    HW258628  12.169  14.055  12.021
18911SOL     OW58629   0.820   3.704  12.435
18911SOL    HW158630   0.914   3.694  12.454
18911SOL    HW258631   0.816   3.713  12.340
18912SOL     OW58632   1.045   3.334  12.893
18912SOL    HW158633   1.085   3.333  12.980
18912SOL    HW258634   1.073   3.417  12.854
18913SOL     OW58635  13.588  14.809   3.999
18913SOL    HW158636  13.638  14.730   4.020
18913SOL    HW258637  13.655   0.003   3.974
18914SOL     OW58638  10.584   8.471  12.663
18914SOL    HW158639  10.602   8.388  12.708
18914SOL    HW258640  10.666   8.492  12.617
18915SOL     OW58641   1.911   6.684   7.177
18915SOL    HW158642   1.872   6.755   7.126
18915SOL    HW258643   1.960   6.727   7.246
18916SOL     OW58644   2.566   4.651   3.106
18916SOL    HW158645   2.566   4.568   3.057
18916SOL    HW258646   2.491   4.699   3.071
18917SOL     OW58647   3.263   0.422  12.276
18917SOL    HW158648   3.314   0.341  12.277
18917SOL    HW258649   3.178   0.397  12.313
18918SOL     OW58650  11.648   8.822   4.334
18918SOL    HW158651  11.693   8.906   4.339
18918SOL    HW258652  11.567   8.834   4.384
18919SOL     OW58653   5.888   0.658   8.365
18919SOL    HW158654   5.974   0.681   8.400
18919SOL    HW258655   5.827   0.717   8.410
18920SOL     OW58656   5.837   7.850   2.816
18920SOL    HW158657   5.744   7.850   2.792
18920SOL    HW258658   5.840   7.903   2.896
18921SOL     OW58659   7.939  13.145  11.661
18921SOL    HW158660   7.864  13.158  11.603
18921SOL    HW258661   7.929  13.211  11.729
18922SOL     OW58662   4.809  14.255   7.153
18922SOL    HW158663   4.799  14.336   7.103
18922SOL    HW258664   4.752  14.192   7.109
18923SOL     OW58665  12.246  14.274  14.551
18923SOL    HW158666  12.329  14.319  14.567
18923SOL    HW258667  12.182  14.344  14.545
18924SOL     OW58668   5.519   4.963   0.990
18924SOL    HW158669   5.511   5.011   1.073
18924SOL    HW258670   5.434   4.973   0.948
18925SOL     OW58671   6.891   2.472  13.936
18925SOL    HW158672   6.906   2.558  13.897
18925SOL    HW258673   6.831   2.428  13.876
18926SOL     OW58674   9.953   6.833   5.515
18926SOL    HW158675   9.925   6.871   5.431
18926SOL    HW258676   9.983   6.745   5.493
18927SOL     OW58677  13.915   6.309   5.997
18927SOL    HW158678  13.891   6.400   6.017
18927SOL    HW258679  13.999   6.316   5.951
18928SOL     OW58680   2.490  12.643   6.104
18928SOL    HW158681   2.441  12.724   6.115
18928SOL    HW258682   2.480  12.622   6.011
18929SOL     OW58683   7.875  12.223   2.058
18929SOL    HW158684   7.784  12.195   2.062
18929SOL    HW258685   7.871  12.317   2.075
18930SOL     OW58686   4.226  13.091  11.079
18930SOL    HW158687   4.175  13.011  11.065
18930SOL    HW258688   4.239  13.127  10.991
18931SOL     OW58689   7.106   9.327   2.599
18931SOL    HW158690   7.063   9.399   2.553
18931SOL    HW258691   7.198   9.335   2.575
18932SOL     OW58692   5.049   6.838  10.435
18932SOL    HW158693   4.977   6.828  10.373
18932SOL    HW258694   5.115   6.775  10.407
18933SOL     OW58695   4.210   9.022   1.854
18933SOL    HW158696   4.168   9.064   1.928
18933SOL    HW258697   4.224   9.092   1.790
18934SOL     OW58698   6.614  13.844   6.128
18934SOL    HW158699   6.574  13.926   6.099
18934SOL    HW258700   6.682  13.871   6.189
18935SOL     OW58701   3.118   9.453  11.435
18935SOL    HW158702   3.109   9.387  11.503
18935SOL    HW258703   3.032   9.495  11.431
18936SOL     OW58704   5.569  12.612   8.170
18936SOL    HW158705   5.572  12.627   8.075
18936SOL    HW258706   5.660  12.621   8.198
18937SOL     OW58707   2.294   1.420  12.656
18937SOL    HW158708   2.233   1.493  12.666
18937SOL    HW258709   2.242   1.343  12.678
18938SOL     OW58710   5.375   4.771  11.508
18938SOL    HW158711   5.323   4.698  11.541
18938SOL    HW258712   5.356   4.772  11.414
18939SOL     OW58713  12.546  10.375   1.176
18939SOL    HW158714  12.546  10.281   1.197
18939SOL    HW258715  12.624  10.408   1.221
18940SOL     OW58716   5.298   3.013   6.415
18940SOL    HW158717   5.302   3.108   6.430
18940SOL    HW258718   5.231   3.003   6.347
18941SOL     OW58719  13.264   5.395  13.498
18941SOL    HW158720  13.358   5.396  13.480
18941SOL    HW258721  13.234   5.483  13.477
18942SOL     OW58722  10.462   4.244  12.142
18942SOL    HW158723  10.556   4.232  12.130
18942SOL    HW258724  10.447   4.234  12.236
18943SOL     OW58725   3.023   9.455   6.094
18943SOL    HW158726   3.019   9.538   6.047
18943SOL    HW258727   3.060   9.477   6.180
18944SOL     OW58728  11.441  14.279  13.977
18944SOL    HW158729  11.458  14.328  14.057
18944SOL    HW258730  11.431  14.188  14.007
18945SOL     OW58731  13.729   3.627   3.151
18945SOL    HW158732  13.674   3.705   3.162
18945SOL    HW258733  13.757   3.629   3.059
18946SOL     OW58734  13.336   7.379   2.945
18946SOL    HW158735  13.403   7.355   3.009
18946SOL    HW258736  13.377   7.447   2.893
18947SOL     OW58737   0.330  11.394  14.724
18947SOL    HW158738   0.333  11.472  14.669
18947SOL    HW258739   0.262  11.339  14.684
18948SOL     OW58740   0.602  14.621  13.938
18948SOL    HW158741   0.508  14.606  13.936
18948SOL    HW258742   0.612  14.716  13.933
18949SOL     OW58743   0.612   9.888   8.092
18949SOL    HW158744   0.562   9.875   8.173
18949SOL    HW258745   0.575   9.824   8.031
18950SOL     OW58746   0.364   0.731  11.034
18950SOL    HW158747   0.320   0.660  11.080
18950SOL    HW258748   0.307   0.751  10.960
18951SOL     OW58749  11.986   5.738  14.305
18951SOL    HW158750  12.070   5.709  14.340
18951SOL    HW258751  11.937   5.657  14.292
18952SOL     OW58752   3.298  13.801   0.006
18952SOL    HW158753   3.298  13.806   0.102
18952SOL    HW258754   3.376  13.849  14.849
18953SOL     OW58755   2.902   4.925   2.931
18953SOL    HW158756   2.972   4.970   2.980
18953SOL    HW258757   2.822   4.946   2.980
18954SOL     OW58758  13.189   5.538   1.258
18954SOL    HW158759  13.267   5.482   1.260
18954SOL    HW258760  13.193   5.588   1.339
18955SOL     OW58761   2.264   4.696  13.549
18955SOL    HW158762   2.284   4.785  13.519
18955SOL    HW258763   2.198   4.665  13.487
18956SOL     OW58764   4.394   5.022   2.225
18956SOL    HW158765   4.311   5.066   2.241
18956SOL    HW258766   4.393   4.946   2.283
18957SOL     OW58767   1.474   8.788  12.362
18957SOL    HW158768   1.481   8.881  12.341
18957SOL    HW258769   1.503   8.781  12.453
18958SOL     OW58770   2.631   6.804   9.731
18958SOL    HW158771   2.611   6.756   9.651
18958SOL    HW258772   2.658   6.891   9.701
18959SOL     OW58773   9.637  13.371   1.573
18959SOL    HW158774   9.635  13.381   1.477
18959SOL    HW258775   9.679  13.287   1.587
18960SOL     OW58776  10.196   6.682   1.482
18960SOL    HW158777  10.134   6.710   1.549
18960SOL    HW258778  10.190   6.749   1.414
18961SOL     OW58779  11.082   9.470  14.436
18961SOL    HW158780  11.053   9.386  14.399
18961SOL    HW258781  11.162   9.448  14.483
18962SOL     OW58782   3.633   8.938   3.706
18962SOL    HW158783   3.705   8.933   3.770
18962SOL    HW258784   3.602   9.028   3.712
18963SOL     OW58785   5.888   4.160   0.384
18963SOL    HW158786   5.793   4.151   0.394
18963SOL    HW258787   5.915   4.219   0.455
18964SOL     OW58788   8.530   2.874  10.649
18964SOL    HW158789   8.625   2.870  10.641
18964SOL    HW258790   8.504   2.949  10.596
18965SOL     OW58791   2.389   0.952  12.884
18965SOL    HW158792   2.323   0.965  12.951
18965SOL    HW258793   2.434   0.871  12.909
18966SOL     OW58794   8.110  10.286   0.235
18966SOL    HW158795   8.198  10.309   0.265
18966SOL    HW258796   8.114  10.191   0.222
18967SOL     OW58797  12.165   4.825   8.309
18967SOL    HW158798  12.098   4.860   8.250
18967SOL    HW258799  12.142   4.733   8.319
18968SOL     OW58800   2.756   4.166   0.152
18968SOL    HW158801   2.846   4.185   0.127
18968SOL    HW258802   2.753   4.187   0.246
18969SOL     OW58803   3.635  12.103   7.985
18969SOL    HW158804   3.618  12.057   8.067
18969SOL    HW258805   3.665  12.190   8.011
18970SOL     OW58806  12.037  13.753   2.746
18970SOL    HW158807  12.078  13.826   2.793
18970SOL    HW258808  11.944  13.777   2.740
18971SOL     OW58809  10.650   1.935   3.783
18971SOL    HW158810  10.659   1.880   3.861
18971SOL    HW258811  10.566   1.979   3.795
18972SOL     OW58812   2.228  10.041   5.479
18972SOL    HW158813   2.247  10.028   5.386
18972SOL    HW258814   2.312  10.070   5.516
18973SOL     OW58815  13.397   6.043   9.114
18973SOL    HW158816  13.330   6.102   9.148
18973SOL    HW258817  13.471   6.054   9.173
18974SOL     OW58818   9.567   8.369   6.355
18974SOL    HW158819   9.487   8.403   6.316
18974SOL    HW258820   9.632   8.373   6.285
18975SOL     OW58821   4.419   6.431   0.647
18975SOL    HW158822   4.330   6.467   0.652
18975SOL    HW258823   4.459   6.478   0.574
18976SOL     OW58824   3.772   8.821   8.674
18976SOL    HW158825   3.681   8.799   8.693
18976SOL    HW258826   3.824   8.756   8.721
18977SOL     OW58827   5.450   8.613  13.315
18977SOL    HW158828   5.397   8.684  13.277
18977SOL    HW258829   5.504   8.582  13.243
18978SOL     OW58830   0.646   6.691  12.702
18978SOL    HW158831   0.682   6.734  12.779
18978SOL    HW258832   0.611   6.762  12.648
18979SOL     OW58833   3.670   9.235   3.844
18979SOL    HW158834   3.716   9.164   3.888
18979SOL    HW258835   3.690   9.312   3.898
18980SOL     OW58836   9.936   2.853   8.481
18980SOL    HW158837   9.895   2.807   8.554
18980SOL    HW258838  10.005   2.794   8.451
18981SOL     OW58839   9.933   3.240   2.282
18981SOL    HW158840   9.936   3.228   2.377
18981SOL    HW258841   9.927   3.335   2.270
18982SOL     OW58842   9.752   0.771  13.341
18982SOL    HW158843   9.678   0.832  13.344
18982SOL    HW258844   9.754   0.740  13.251
18983SOL     OW58845  13.073   3.453   6.573
18983SOL    HW158846  13.138   3.398   6.618
18983SOL    HW258847  12.998   3.455   6.632
18984SOL     OW58848   9.268   9.151   8.475
18984SOL    HW158849   9.187   9.194   8.505
18984SOL    HW258850   9.336   9.186   8.532
18985SOL     OW58851   3.167   3.929   6.196
18985SOL    HW158852   3.241   3.933   6.135
18985SOL    HW258853   3.202   3.960   6.279
18986SOL     OW58854   7.304  14.464   7.484
18986SOL    HW158855   7.321  14.558   7.485
18986SOL    HW258856   7.228  14.454   7.426
18987SOL     OW58857  11.121  14.688  10.000
18987SOL    HW158858  11.150  14.620   9.938
18987SOL    HW258859  11.028  14.700   9.980
18988SOL     OW58860   2.731   6.541   2.408
18988SOL    HW158861   2.654   6.528   2.353
18988SOL    HW258862   2.774   6.619   2.373
18989SOL     OW58863  10.367  13.342   2.178
18989SOL    HW158864  10.395  13.257   2.144
18989SOL    HW258865  10.295  13.322   2.238
18990SOL     OW58866   1.353  12.114  11.370
18990SOL    HW158867   1.382  12.126  11.279
18990SOL    HW258868   1.272  12.064  11.362
18991SOL     OW58869   3.506   6.271  10.561
18991SOL    HW158870   3.541   6.303  10.644
18991SOL    HW258871   3.509   6.347  10.502
18992SOL     OW58872   5.779  13.638   1.570
18992SOL    HW158873   5.831  13.589   1.506
18992SOL    HW258874   5.811  13.728   1.564
18993SOL     OW58875  10.532   9.920   2.060
18993SOL    HW158876  10.581  10.001   2.062
18993SOL    HW258877  10.598   9.851   2.073
18994SOL     OW58878   9.414  12.793  13.772
18994SOL    HW158879   9.433  12.798  13.678
18994SOL    HW258880   9.332  12.743  13.778
18995SOL     OW58881   9.858  10.080   4.775
18995SOL    HW158882   9.847  10.162   4.727
18995SOL    HW258883   9.771  10.041   4.776
18996SOL     OW58884   6.201   4.530   8.515
18996SOL    HW158885   6.276   4.470   8.511
18996SOL    HW258886   6.125   4.474   8.502
18997SOL     OW58887   0.482   2.220   6.276
18997SOL    HW158888   0.534   2.144   6.303
18997SOL    HW258889   0.534   2.261   6.207
18998SOL     OW58890  13.055   3.297  11.615
18998SOL    HW158891  13.081   3.223  11.670
18998SOL    HW258892  13.124   3.362  11.628
18999SOL     OW58893   9.872  11.180   5.427
18999SOL    HW158894   9.874  11.163   5.522
18999SOL    HW258895   9.907  11.100   5.388
19000SOL     OW58896  13.599   2.512   5.385
19000SOL    HW158897  13.647   2.438   5.348
19000SOL    HW258898  13.539   2.472   5.448
19001SOL     OW58899   3.978   3.814   6.322
19001SOL    HW158900   3.906   3.762   6.359
19001SOL    HW258901   4.057   3.771   6.354
19002SOL     OW58902   0.227   0.625  13.740
19002SOL    HW158903   0.155   0.645  13.680
19002SOL    HW258904   0.186   0.577  13.812
19003SOL     OW58905   8.808   6.823   6.879
19003SOL    HW158906   8.761   6.797   6.799
19003SOL    HW258907   8.779   6.912   6.896
19004SOL     OW58908   0.258   2.890   3.546
19004SOL    HW158909   0.352   2.885   3.533
19004SOL    HW258910   0.222   2.826   3.485
19005SOL     OW58911   4.263   1.599   1.970
19005SOL    HW158912   4.259   1.637   1.883
19005SOL    HW258913   4.172   1.579   1.992
19006SOL     OW58914   9.517   3.381   3.586
19006SOL    HW158915   9.498   3.473   3.607
19006SOL    HW258916   9.596   3.361   3.637
19007SOL     OW58917   3.498  12.829   4.837
19007SOL    HW158918   3.444  12.824   4.916
19007SOL    HW258919   3.438  12.858   4.769
19008SOL     OW58920   5.287   4.460  11.963
19008SOL    HW158921   5.331   4.487  12.044
19008SOL    HW258922   5.216   4.403  11.992
19009SOL     OW58923   9.497  11.047   8.943
19009SOL    HW158924   9.577  11.099   8.940
19009SOL    HW258925   9.428  11.110   8.965
19010SOL     OW58926   0.825   9.526  13.056
19010SOL    HW158927   0.759   9.470  13.014
19010SOL    HW258928   0.833   9.600  12.996
19011SOL     OW58929   6.054   4.124   0.021
19011SOL    HW158930   5.961   4.146   0.028
19011SOL    HW258931   6.057   4.056  14.824
19012SOL     OW58932  12.297  11.947   6.048
19012SOL    HW158933  12.348  11.974   6.125
19012SOL    HW258934  12.246  12.024   6.025
19013SOL     OW58935   1.760   5.686   6.681
19013SOL    HW158936   1.783   5.762   6.735
19013SOL    HW258937   1.844   5.648   6.657
19014SOL     OW58938   2.417   6.390   6.609
19014SOL    HW158939   2.445   6.301   6.629
19014SOL    HW258940   2.400   6.430   6.694
19015SOL     OW58941   8.387   0.830   0.984
19015SOL    HW158942   8.345   0.892   1.043
19015SOL    HW258943   8.475   0.819   1.020
19016SOL     OW58944  12.612   6.442   7.509
19016SOL    HW158945  12.670   6.486   7.572
19016SOL    HW258946  12.604   6.505   7.437
19017SOL     OW58947   2.857  11.130   4.624
19017SOL    HW158948   2.796  11.115   4.552
19017SOL    HW258949   2.943  11.134   4.583
19018SOL     OW58950  10.819   4.352   1.983
19018SOL    HW158951  10.800   4.427   2.040
19018SOL    HW258952  10.890   4.383   1.927
19019SOL     OW58953   7.613   8.983   0.753
19019SOL    HW158954   7.707   8.975   0.766
19019SOL    HW258955   7.598   8.953   0.664
19020SOL     OW58956   3.793  14.795   7.398
19020SOL    HW158957   3.718  14.741   7.422
19020SOL    HW258958   3.869  14.741   7.420
19021SOL     OW58959   7.998   7.073   6.453
19021SOL    HW158960   7.943   7.020   6.511
19021SOL    HW258961   7.988   7.032   6.367
19022SOL     OW58962   6.694   1.853   9.896
19022SOL    HW158963   6.752   1.821   9.964
19022SOL    HW258964   6.700   1.948   9.901
19023SOL     OW58965  13.234  14.524   5.586
19023SOL    HW158966  13.233  14.452   5.649
19023SOL    HW258967  13.184  14.593   5.628
19024SOL     OW58968   2.179  10.159  11.272
19024SOL    HW158969   2.126  10.107  11.333
19024SOL    HW258970   2.250  10.101  11.246
19025SOL     OW58971   8.290   6.334  11.034
19025SOL    HW158972   8.383   6.312  11.043
19025SOL    HW258973   8.244   6.256  11.063
19026SOL     OW58974   9.978   3.070  11.306
19026SOL    HW158975   9.970   2.990  11.359
19026SOL    HW258976  10.038   3.046  11.236
19027SOL     OW58977  12.460   5.690  13.942
19027SOL    HW158978  12.496   5.768  13.985
19027SOL    HW258979  12.366   5.694  13.958
19028SOL     OW58980   8.530  13.863   1.517
19028SOL    HW158981   8.482  13.838   1.596
19028SOL    HW258982   8.619  13.831   1.531
19029SOL     OW58983   1.789   3.783   7.307
19029SOL    HW158984   1.810   3.706   7.255
19029SOL    HW258985   1.712   3.821   7.264
19030SOL     OW58986   7.642   9.691   2.713
19030SOL    HW158987   7.731   9.715   2.687
19030SOL    HW258988   7.587   9.723   2.641
19031SOL     OW58989  10.145  10.958   5.723
19031SOL    HW158990  10.078  10.940   5.788
19031SOL    HW258991  10.096  10.968   5.641
19032SOL     OW58992  12.013  11.016   7.090
19032SOL    HW158993  11.977  10.980   7.171
19032SOL    HW258994  11.978  10.959   7.022
19033SOL     OW58995   4.962   4.616  10.838
19033SOL    HW158996   4.989   4.614  10.929
19033SOL    HW258997   5.037   4.581  10.790
19034SOL     OW58998  13.747   8.681   5.029
19034SOL    HW158999  13.839   8.690   5.056
19034SOL    HW259000  13.697   8.727   5.096
19035SOL     OW59001   4.132   4.487  12.891
19035SOL    HW159002   4.061   4.430  12.860
19035SOL    HW259003   4.090   4.571  12.906
19036SOL     OW59004   7.651   8.810   7.258
19036SOL    HW159005   7.648   8.895   7.213
19036SOL    HW259006   7.611   8.749   7.196
19037SOL     OW59007   1.593  13.013   4.741
19037SOL    HW159008   1.676  13.035   4.784
19037SOL    HW259009   1.551  13.098   4.725
19038SOL     OW59010   7.728  12.180   3.705
19038SOL    HW159011   7.772  12.103   3.668
19038SOL    HW259012   7.792  12.219   3.764
19039SOL     OW59013   4.617   9.214   3.024
19039SOL    HW159014   4.679   9.286   3.012
19039SOL    HW259015   4.619   9.195   3.117
19040SOL     OW59016   7.208   5.242  12.730
19040SOL    HW159017   7.221   5.336  12.733
19040SOL    HW259018   7.178   5.218  12.818
19041SOL     OW59019   5.772   5.044  10.696
19041SOL    HW159020   5.795   5.068  10.606
19041SOL    HW259021   5.812   4.959  10.709
19042SOL     OW59022   8.890   4.379  13.331
19042SOL    HW159023   8.934   4.346  13.410
19042SOL    HW259024   8.941   4.343  13.259
19043SOL     OW59025  10.027   2.519   7.498
19043SOL    HW159026  10.029   2.492   7.406
19043SOL    HW259027  10.079   2.599   7.500
19044SOL     OW59028   3.803   1.827   7.649
19044SOL    HW159029   3.817   1.854   7.739
19044SOL    HW259030   3.744   1.753   7.654
19045SOL     OW59031  10.515   5.697  13.706
19045SOL    HW159032  10.433   5.729  13.743
19045SOL    HW259033  10.558   5.651  13.778
19046SOL     OW59034   2.176   0.503   5.294
19046SOL    HW159035   2.243   0.460   5.240
19046SOL    HW259036   2.096   0.497   5.243
19047SOL     OW59037   9.440   9.847   9.536
19047SOL    HW159038   9.416   9.762   9.572
19047SOL    HW259039   9.356   9.889   9.516
19048SOL     OW59040   2.503  13.266  14.696
19048SOL    HW159041   2.475  13.271  14.787
19048SOL    HW259042   2.597  13.282  14.699
19049SOL     OW59043  10.252   1.960   7.292
19049SOL    HW159044  10.327   2.005   7.253
19049SOL    HW259045  10.181   2.023   7.289
19050SOL     OW59046   0.419   7.841  14.752
19050SOL    HW159047   0.329   7.813  14.736
19050SOL    HW259048   0.441   7.898  14.678
19051SOL     OW59049   0.073   2.137   0.873
19051SOL    HW159050   0.016   2.069   0.908
19051SOL    HW259051   0.021   2.179   0.804
19052SOL     OW59052   5.487   4.044   0.002
19052SOL    HW159053   5.524   3.982   0.065
19052SOL    HW259054   5.556   4.058  14.808
19053SOL     OW59055   2.389  12.263  10.104
19053SOL    HW159056   2.351  12.328  10.044
19053SOL    HW259057   2.462  12.226  10.055
19054SOL     OW59058   7.881  13.595   0.393
19054SOL    HW159059   7.787  13.577   0.399
19054SOL    HW259060   7.922  13.526   0.446
19055SOL     OW59061   3.126   3.048   6.574
19055SOL    HW159062   3.142   3.142   6.585
19055SOL    HW259063   3.087   3.021   6.657
19056SOL     OW59064   2.781   3.035   7.560
19056SOL    HW159065   2.806   2.968   7.623
19056SOL    HW259066   2.833   3.015   7.482
19057SOL     OW59067   0.487   7.287  13.443
19057SOL    HW159068   0.542   7.210  13.458
19057SOL    HW259069   0.546   7.361  13.453
19058SOL     OW59070   8.113   9.822   1.150
19058SOL    HW159071   8.069   9.892   1.104
19058SOL    HW259072   8.105   9.746   1.093
19059SOL     OW59073  11.004   2.147  11.218
19059SOL    HW159074  10.919   2.105  11.232
19059SOL    HW259075  11.058   2.118  11.291
19060SOL     OW59076  14.400  11.926  10.814
19060SOL    HW159077  14.424  11.864  10.745
19060SOL    HW259078  14.331  11.882  10.862
19061SOL     OW59079   0.575  14.833   5.108
19061SOL    HW159080   0.527  14.825   5.026
19061SOL    HW259081   0.537  14.766   5.165
19062SOL     OW59082   9.145   1.228   3.439
19062SOL    HW159083   9.226   1.219   3.489
19062SOL    HW259084   9.123   1.321   3.445
19063SOL     OW59085   9.902   3.597  12.059
19063SOL    HW159086   9.834   3.630  12.001
19063SOL    HW259087   9.979   3.651  12.038
19064SOL     OW59088  10.851   1.346   1.705
19064SOL    HW159089  10.892   1.269   1.667
19064SOL    HW259090  10.840   1.324   1.797
19065SOL     OW59091  14.635  11.454   3.357
19065SOL    HW159092  14.710  11.404   3.325
19065SOL    HW259093  14.669  11.501   3.434
19066SOL     OW59094  11.968   0.087   0.845
19066SOL    HW159095  12.058   0.088   0.878
19066SOL    HW259096  11.965   0.014   0.784
19067SOL     OW59097  12.504   6.228   1.775
19067SOL    HW159098  12.420   6.227   1.730
19067SOL    HW259099  12.569   6.214   1.706
19068SOL     OW59100  10.992   6.215  14.429
19068SOL    HW159101  10.940   6.241  14.505
19068SOL    HW259102  10.936   6.154  14.382
19069SOL     OW59103   2.828   6.500   1.862
19069SOL    HW159104   2.765   6.534   1.799
19069SOL    HW259105   2.782   6.428   1.906
19070SOL     OW59106  12.105   2.007  13.109
19070SOL    HW159107  12.168   2.016  13.038
19070SOL    HW259108  12.031   1.960  13.070
19071SOL     OW59109   7.572   6.434   7.085
19071SOL    HW159110   7.492   6.461   7.040
19071SOL    HW259111   7.542   6.404   7.171
19072SOL     OW59112   7.699  11.136   7.250
19072SOL    HW159113   7.649  11.214   7.273
19072SOL    HW259114   7.737  11.157   7.164
19073SOL     OW59115   0.808   0.856   2.292
19073SOL    HW159116   0.776   0.766   2.303
19073SOL    HW259117   0.890   0.845   2.244
19074SOL     OW59118   5.122  12.081   4.557
19074SOL    HW159119   5.067  12.151   4.593
19074SOL    HW259120   5.090  12.002   4.600
19075SOL     OW59121   9.575   6.764   8.126
19075SOL    HW159122   9.512   6.696   8.102
19075SOL    HW259123   9.550   6.840   8.073
19076SOL     OW59124   3.909  13.129   3.540
19076SOL    HW159125   3.851  13.191   3.583
19076SOL    HW259126   3.949  13.080   3.612
19077SOL     OW59127   6.725   9.358  11.486
19077SOL    HW159128   6.760   9.271  11.464
19077SOL    HW259129   6.671   9.343  11.564
19078SOL     OW59130   6.253   1.000   9.676
19078SOL    HW159131   6.314   0.963   9.740
19078SOL    HW259132   6.177   0.941   9.679
19079SOL     OW59133   8.883   1.614  13.359
19079SOL    HW159134   8.837   1.592  13.441
19079SOL    HW259135   8.901   1.707  13.366
19080SOL     OW59136   6.495   4.980  10.179
19080SOL    HW159137   6.459   4.892  10.186
19080SOL    HW259138   6.430   5.037  10.220
19081SOL     OW59139  13.813  13.495  12.547
19081SOL    HW159140  13.842  13.406  12.526
19081SOL    HW259141  13.810  13.539  12.462
19082SOL     OW59142  12.859  11.138   1.861
19082SOL    HW159143  12.788  11.191   1.825
19082SOL    HW259144  12.931  11.149   1.798
19083SOL     OW59145  11.796   1.508  14.803
19083SOL    HW159146  11.846   1.432  14.774
19083SOL    HW259147  11.758   1.482   0.017
19084SOL     OW59148  12.380  12.764  14.844
19084SOL    HW159149  12.466  12.785   0.011
19084SOL    HW259150  12.345  12.848  14.815
19085SOL     OW59151  12.078  11.867   5.120
19085SOL    HW159152  11.992  11.870   5.078
19085SOL    HW259153  12.133  11.819   5.058
19086SOL     OW59154   9.837   7.850  12.805
19086SOL    HW159155   9.920   7.870  12.849
19086SOL    HW259156   9.860   7.847  12.712
19087SOL     OW59157  12.383  10.896   6.121
19087SOL    HW159158  12.443  10.923   6.052
19087SOL    HW259159  12.296  10.903   6.081
19088SOL     OW59160   8.992   9.147  13.436
19088SOL    HW159161   8.948   9.229  13.460
19088SOL    HW259162   9.052   9.172  13.366
19089SOL     OW59163  13.996   8.271   2.823
19089SOL    HW159164  14.046   8.345   2.790
19089SOL    HW259165  13.954   8.303   2.903
19090SOL     OW59166  12.179  14.800   0.208
19090SOL    HW159167  12.225  14.717   0.219
19090SOL    HW259168  12.146  14.820   0.296
19091SOL     OW59169   4.177  10.793   5.417
19091SOL    HW159170   4.126  10.810   5.496
19091SOL    HW259171   4.264  10.771   5.450
19092SOL     OW59172   6.047  11.063  14.618
19092SOL    HW159173   6.057  11.155  14.595
19092SOL    HW259174   6.020  11.062  14.709
19093SOL     OW59175   7.804  11.714   5.971
19093SOL    HW159176   7.790  11.806   5.948
19093SOL    HW259177   7.887  11.692   5.931
19094SOL     OW59178   5.193   4.895  10.571
19094SOL    HW159179   5.205   4.905  10.666
19094SOL    HW259180   5.164   4.982  10.542
19095SOL     OW59181  10.839   5.557   5.232
19095SOL    HW159182  10.745   5.545   5.245
19095SOL    HW259183  10.856   5.646   5.262
19096SOL     OW59184   1.259  12.449   8.654
19096SOL    HW159185   1.218  12.396   8.586
19096SOL    HW259186   1.332  12.493   8.610
19097SOL     OW59187   0.679   0.647   4.323
19097SOL    HW159188   0.683   0.664   4.417
19097SOL    HW259189   0.608   0.703   4.291
19098SOL     OW59190   8.696   8.133   6.477
19098SOL    HW159191   8.680   8.213   6.528
19098SOL    HW259192   8.630   8.071   6.508
19099SOL     OW59193  12.026   2.651   9.859
19099SOL    HW159194  11.993   2.561   9.847
19099SOL    HW259195  11.954   2.706   9.829
19100SOL     OW59196   7.942   6.592   2.292
19100SOL    HW159197   7.896   6.673   2.313
19100SOL    HW259198   7.878   6.539   2.244
19101SOL     OW59199   1.041  10.688  14.680
19101SOL    HW159200   1.116  10.669  14.737
19101SOL    HW259201   1.080  10.711  14.596
19102SOL     OW59202  13.752   4.987   7.750
19102SOL    HW159203  13.675   5.025   7.708
19102SOL    HW259204  13.760   5.034   7.833
19103SOL     OW59205   6.560   1.547   7.965
19103SOL    HW159206   6.509   1.570   7.887
19103SOL    HW259207   6.527   1.461   7.991
19104SOL     OW59208   0.949   0.770  10.527
19104SOL    HW159209   0.975   0.716  10.602
19104SOL    HW259210   0.969   0.716  10.451
19105SOL     OW59211   8.030   8.217   2.602
19105SOL    HW159212   8.060   8.209   2.512
19105SOL    HW259213   7.935   8.228   2.595
19106SOL     OW59214   2.132   0.663  14.377
19106SOL    HW159215   2.219   0.633  14.352
19106SOL    HW259216   2.096   0.590  14.428
19107SOL     OW59217   7.016   2.030  14.699
19107SOL    HW159218   7.006   2.051  14.792
19107SOL    HW259219   7.108   2.007  14.689
19108SOL     OW59220   8.072   2.820  11.913
19108SOL    HW159221   7.993   2.772  11.940
19108SOL    HW259222   8.081   2.890  11.977
19109SOL     OW59223   9.150  13.435   8.844
19109SOL    HW159224   9.084  13.442   8.914
19109SOL    HW259225   9.155  13.523   8.806
19110SOL     OW59226   2.947   1.081  10.142
19110SOL    HW159227   2.982   1.124  10.220
19110SOL    HW259228   2.905   1.151  10.092
19111SOL     OW59229   1.890   9.575   5.319
19111SOL    HW159230   1.874   9.639   5.388
19111SOL    HW259231   1.822   9.509   5.331
19112SOL     OW59232   3.008   9.893   6.168
19112SOL    HW159233   3.074   9.902   6.236
19112SOL    HW259234   3.046   9.833   6.105
19113SOL     OW59235  14.660   2.758   2.827
19113SOL    HW159236  14.614   2.717   2.754
19113SOL    HW259237  14.641   2.702   2.902
19114SOL     OW59238   0.355   2.414   4.985
19114SOL    HW159239   0.360   2.372   4.899
19114SOL    HW259240   0.329   2.344   5.045
19115SOL     OW59241  13.900  13.458  12.962
19115SOL    HW159242  13.895  13.553  12.974
19115SOL    HW259243  13.988  13.434  12.993
19116SOL     OW59244   4.507   8.100   8.573
19116SOL    HW159245   4.496   8.155   8.651
19116SOL    HW259246   4.601   8.080   8.572
19117SOL     OW59247  13.825  13.504  10.393
19117SOL    HW159248  13.801  13.558  10.469
19117SOL    HW259249  13.794  13.554  10.318
19118SOL     OW59250   5.998  12.522   7.850
19118SOL    HW159251   6.092  12.535   7.856
19118SOL    HW259252   5.963  12.606   7.823
19119SOL     OW59253  12.381   3.022   7.456
19119SOL    HW159254  12.342   3.031   7.369
19119SOL    HW259255  12.420   3.108   7.474
19120SOL     OW59256   4.786   3.878   8.548
19120SOL    HW159257   4.857   3.897   8.487
19120SOL    HW259258   4.824   3.888   8.635
19121SOL     OW59259  13.277   4.673   2.364
19121SOL    HW159260  13.282   4.602   2.428
19121SOL    HW259261  13.190   4.711   2.378
19122SOL     OW59262   2.265   4.435   0.043
19122SOL    HW159263   2.354   4.428   0.078
19122SOL    HW259264   2.211   4.457   0.119
19123SOL     OW59265  12.035   5.720   3.968
19123SOL    HW159266  11.940   5.726   3.971
19123SOL    HW259267  12.065   5.763   4.047
19124SOL     OW59268  12.636   7.248   0.217
19124SOL    HW159269  12.621   7.285   0.130
19124SOL    HW259270  12.619   7.154   0.206
19125SOL     OW59271   7.147   8.103  11.928
19125SOL    HW159272   7.084   8.105  12.000
19125SOL    HW259273   7.200   8.025  11.945
19126SOL     OW59274  10.319   1.732  14.020
19126SOL    HW159275  10.361   1.646  14.008
19126SOL    HW259276  10.299   1.735  14.114
19127SOL     OW59277   2.151   6.491   4.429
19127SOL    HW159278   2.062   6.459   4.442
19127SOL    HW259279   2.193   6.480   4.514
19128SOL     OW59280   9.063   4.846   1.759
19128SOL    HW159281   9.085   4.759   1.794
19128SOL    HW259282   8.979   4.867   1.799
19129SOL     OW59283  12.762   4.322   0.710
19129SOL    HW159284  12.766   4.377   0.787
19129SOL    HW259285  12.812   4.244   0.732
19130SOL     OW59286  14.016   9.599   2.856
19130SOL    HW159287  13.949   9.624   2.920
19130SOL    HW259288  13.967   9.568   2.781
19131SOL     OW59289   0.494  12.978   3.055
19131SOL    HW159290   0.421  12.920   3.032
19131SOL    HW259291   0.477  13.058   3.005
19132SOL     OW59292  12.503  10.634  11.565
19132SOL    HW159293  12.536  10.544  11.561
19132SOL    HW259294  12.528  10.664  11.652
19133SOL     OW59295   9.761   6.338   5.547
19133SOL    HW159296   9.718   6.397   5.485
19133SOL    HW259297   9.717   6.355   5.630
19134SOL     OW59298   9.199  12.925   1.837
19134SOL    HW159299   9.114  12.904   1.798
19134SOL    HW259300   9.190  12.903   1.929
19135SOL     OW59301   7.421   6.408   5.455
19135SOL    HW159302   7.461   6.332   5.413
19135SOL    HW259303   7.418   6.475   5.386
19136SOL     OW59304   6.104   4.995   6.649
19136SOL    HW159305   6.081   5.078   6.607
19136SOL    HW259306   6.185   4.968   6.607
19137SOL     OW59307   0.826   9.283   2.240
19137SOL    HW159308   0.903   9.231   2.218
19137SOL    HW259309   0.832   9.360   2.183
19138SOL     OW59310   8.872  11.391   6.359
19138SOL    HW159311   8.912  11.429   6.437
19138SOL    HW259312   8.785  11.430   6.355
19139SOL     OW59313  14.524   1.317  11.171
19139SOL    HW159314  14.519   1.302  11.077
19139SOL    HW259315  14.505   1.232  11.211
19140SOL     OW59316   6.915   7.674   9.318
19140SOL    HW159317   6.822   7.652   9.328
19140SOL    HW259318   6.958   7.590   9.301
19141SOL     OW59319   8.226   3.035   1.115
19141SOL    HW159320   8.295   3.101   1.110
19141SOL    HW259321   8.250   2.970   1.049
19142SOL     OW59322  11.243   8.546  12.824
19142SOL    HW159323  11.266   8.542  12.732
19142SOL    HW259324  11.218   8.637  12.839
19143SOL     OW59325  11.919   6.524   1.454
19143SOL    HW159326  11.921   6.605   1.505
19143SOL    HW259327  12.009   6.513   1.424
19144SOL     OW59328  12.624   4.675   8.561
19144SOL    HW159329  12.631   4.631   8.476
19144SOL    HW259330  12.661   4.762   8.545
19145SOL     OW59331   3.372   3.258   2.828
19145SOL    HW159332   3.420   3.318   2.771
19145SOL    HW259333   3.402   3.278   2.916
19146SOL     OW59334   4.713   2.491  13.473
19146SOL    HW159335   4.675   2.546  13.403
19146SOL    HW259336   4.638   2.471  13.530
19147SOL     OW59337   4.396   5.936   0.456
19147SOL    HW159338   4.404   6.031   0.464
19147SOL    HW259339   4.302   5.920   0.456
19148SOL     OW59340   3.635  12.475   6.805
19148SOL    HW159341   3.598  12.420   6.874
19148SOL    HW259342   3.564  12.534   6.780
19149SOL     OW59343   0.503  10.703   9.916
19149SOL    HW159344   0.553  10.724   9.994
19149SOL    HW259345   0.501  10.784   9.866
19150SOL     OW59346   2.760  12.594  14.254
19150SOL    HW159347   2.733  12.504  14.232
19150SOL    HW259348   2.782  12.590  14.347
19151SOL     OW59349   7.122   5.172   9.207
19151SOL    HW159350   7.201   5.152   9.256
19151SOL    HW259351   7.057   5.196   9.273
19152SOL     OW59352   1.378   6.394   4.071
19152SOL    HW159353   1.414   6.328   4.012
19152SOL    HW259354   1.373   6.350   4.156
19153SOL     OW59355  11.970  13.828   1.719
19153SOL    HW159356  12.021  13.866   1.790
19153SOL    HW259357  11.969  13.734   1.739
19154SOL     OW59358  11.798  11.166   0.735
19154SOL    HW159359  11.853  11.143   0.809
19154SOL    HW259360  11.743  11.089   0.722
19155SOL     OW59361  12.378  11.769  14.841
19155SOL    HW159362  12.472  11.769  14.860
19155SOL    HW259363  12.353  11.861  14.842
19156SOL     OW59364   3.357   3.219   0.296
19156SOL    HW159365   3.272   3.187   0.327
19156SOL    HW259366   3.390   3.274   0.367
19157SOL     OW59367  12.742  10.922   3.675
19157SOL    HW159368  12.732  10.839   3.723
19157SOL    HW259369  12.832  10.920   3.643
19158SOL     OW59370  10.502   0.805  14.627
19158SOL    HW159371  10.594   0.815  14.602
19158SOL    HW259372  10.500   0.835  14.718
19159SOL     OW59373   1.151   5.595  10.634
19159SOL    HW159374   1.071   5.609  10.684
19159SOL    HW259375   1.130   5.622  10.545
19160SOL     OW59376   6.571   6.443   2.813
19160SOL    HW159377   6.528   6.459   2.729
19160SOL    HW259378   6.640   6.509   2.818
19161SOL     OW59379   4.443  11.434  11.467
19161SOL    HW159380   4.377  11.366  11.479
19161SOL    HW259381   4.438  11.486  11.547
19162SOL     OW59382  11.172   5.926   9.225
19162SOL    HW159383  11.189   5.847   9.277
19162SOL    HW259384  11.251   5.979   9.236
19163SOL     OW59385   0.509   8.728   4.811
19163SOL    HW159386   0.515   8.658   4.747
19163SOL    HW259387   0.461   8.690   4.885
19164SOL     OW59388  11.871   7.127   9.699
19164SOL    HW159389  11.905   7.206   9.657
19164SOL    HW259390  11.920   7.119   9.780
19165SOL     OW59391   4.409   6.061  11.649
19165SOL    HW159392   4.470   6.121  11.693
19165SOL    HW259393   4.323   6.097  11.667
19166SOL     OW59394  10.894   5.472   9.005
19166SOL    HW159395  10.907   5.438   9.093
19166SOL    HW259396  10.805   5.509   9.006
19167SOL     OW59397   9.838   3.219   4.301
19167SOL    HW159398   9.779   3.152   4.333
19167SOL    HW259399   9.798   3.302   4.329
19168SOL     OW59400   7.268  12.849   4.072
19168SOL    HW159401   7.312  12.863   3.988
19168SOL    HW259402   7.179  12.883   4.058
19169SOL     OW59403  12.697   5.836   5.809
19169SOL    HW159404  12.679   5.818   5.717
19169SOL    HW259405  12.631   5.786   5.856
19170SOL     OW59406  13.618  14.122   0.707
19170SOL    HW159407  13.623  14.215   0.730
19170SOL    HW259408  13.691  14.109   0.647
19171SOL     OW59409   0.828   6.520   5.776
19171SOL    HW159410   0.917   6.554   5.782
19171SOL    HW259411   0.802   6.533   5.685
19172SOL     OW59412  12.490  12.545  11.401
19172SOL    HW159413  12.462  12.529  11.311
19172SOL    HW259414  12.455  12.471  11.450
19173SOL     OW59415   3.770   1.605   3.080
19173SOL    HW159416   3.812   1.677   3.126
19173SOL    HW259417   3.703   1.573   3.140
19174SOL     OW59418   7.461   4.640   2.933
19174SOL    HW159419   7.429   4.725   2.902
19174SOL    HW259420   7.405   4.620   3.008
19175SOL     OW59421   1.673   1.181   8.227
19175SOL    HW159422   1.636   1.210   8.143
19175SOL    HW259423   1.609   1.118   8.260
19176SOL     OW59424   4.820   2.232   7.750
19176SOL    HW159425   4.850   2.189   7.670
19176SOL    HW259426   4.892   2.221   7.812
19177SOL     OW59427   0.719   4.387  12.814
19177SOL    HW159428   0.697   4.294  12.825
19177SOL    HW259429   0.636   4.433  12.825
19178SOL     OW59430   1.278   3.538   1.212
19178SOL    HW159431   1.343   3.569   1.275
19178SOL    HW259432   1.194   3.551   1.256
19179SOL     OW59433   4.820   3.881  11.551
19179SOL    HW159434   4.784   3.793  11.537
19179SOL    HW259435   4.838   3.914  11.463
19180SOL     OW59436   1.850  10.228   2.556
19180SOL    HW159437   1.867  10.144   2.515
19180SOL    HW259438   1.936  10.264   2.575
19181SOL     OW59439  13.160   3.156  14.367
19181SOL    HW159440  13.108   3.235  14.351
19181SOL    HW259441  13.167   3.115  14.281
19182SOL     OW59442   1.419   6.108   4.808
19182SOL    HW159443   1.399   6.074   4.895
19182SOL    HW259444   1.472   6.186   4.823
19183SOL     OW59445   0.498  12.118   2.560
19183SOL    HW159446   0.541  12.168   2.491
19183SOL    HW259447   0.510  12.026   2.534
19184SOL     OW59448   2.186  14.818  13.936
19184SOL    HW159449   2.279  14.814  13.957
19184SOL    HW259450   2.178   0.019  13.872
19185SOL     OW59451  14.831  10.867   9.904
19185SOL    HW159452  14.823  10.906   9.817
19185SOL    HW259453   0.027  10.920   9.948
19186SOL     OW59454  12.137   2.543   1.519
19186SOL    HW159455  12.120   2.460   1.475
19186SOL    HW259456  12.069   2.549   1.586
19187SOL     OW59457  13.409  13.389   9.968
19187SOL    HW159458  13.328  13.358  10.009
19187SOL    HW259459  13.433  13.319   9.906
19188SOL     OW59460   6.906   5.433  12.790
19188SOL    HW159461   6.866   5.373  12.852
19188SOL    HW259462   6.985   5.465  12.834
19189SOL     OW59463  11.395  12.915   6.731
19189SOL    HW159464  11.343  12.972   6.788
19189SOL    HW259465  11.409  12.836   6.782
19190SOL     OW59466   9.457  13.761  12.977
19190SOL    HW159467   9.526  13.791  12.919
19190SOL    HW259468   9.463  13.665  12.976
19191SOL     OW59469   6.881  13.314   1.333
19191SOL    HW159470   6.867  13.328   1.427
19191SOL    HW259471   6.864  13.399   1.293
19192SOL     OW59472  13.398   6.493   2.258
19192SOL    HW159473  13.347   6.558   2.306
19192SOL    HW259474  13.333   6.431   2.224
19193SOL     OW59475   5.900  14.165   6.915
19193SOL    HW159476   5.915  14.075   6.942
19193SOL    HW259477   5.961  14.179   6.843
19194SOL     OW59478   4.977  10.854   3.845
19194SOL    HW159479   4.882  10.843   3.840
19194SOL    HW259480   5.012  10.765   3.834
19195SOL     OW59481  13.400  11.481   9.521
19195SOL    HW159482  13.416  11.507   9.611
19195SOL    HW259483  13.488  11.470   9.483
19196SOL     OW59484  12.745  11.958   9.896
19196SOL    HW159485  12.760  12.045   9.859
19196SOL    HW259486  12.651  11.943   9.884
19197SOL     OW59487   9.838   0.311   4.393
19197SOL    HW159488   9.816   0.300   4.485
19197SOL    HW259489   9.891   0.235   4.371
19198SOL     OW59490   7.267  12.392   9.997
19198SOL    HW159491   7.228  12.316  10.040
19198SOL    HW259492   7.204  12.463  10.011
19199SOL     OW59493   8.686  12.154   8.731
19199SOL    HW159494   8.682  12.059   8.722
19199SOL    HW259495   8.610  12.177   8.784
19200SOL     OW59496   7.945   5.737   6.546
19200SOL    HW159497   7.917   5.816   6.592
19200SOL    HW259498   8.039   5.732   6.562
19201SOL     OW59499   8.095   4.945  11.660
19201SOL    HW159500   8.115   4.855  11.633
19201SOL    HW259501   8.151   4.999  11.605
19202SOL     OW59502   7.589  11.758   2.255
19202SOL    HW159503   7.609  11.851   2.263
19202SOL    HW259504   7.530  11.740   2.327
19203SOL     OW59505   3.004   7.248   2.914
19203SOL    HW159506   3.035   7.158   2.920
19203SOL    HW259507   3.064   7.298   2.970
19204SOL     OW59508  13.944   0.723  12.854
19204SOL    HW159509  13.913   0.744  12.941
19204SOL    HW259510  13.885   0.769  12.794
19205SOL     OW59511  10.041  14.328  12.653
19205SOL    HW159512  10.011  14.380  12.727
19205SOL    HW259513  10.132  14.356  12.640
19206SOL     OW59514   9.241  13.802   4.052
19206SOL    HW159515   9.241  13.797   3.956
19206SOL    HW259516   9.332  13.782   4.076
19207SOL     OW59517   1.102   5.279  11.429
19207SOL    HW159518   1.102   5.301  11.336
19207SOL    HW259519   1.194   5.281  11.455
19208SOL     OW59520  13.800   8.149   5.899
19208SOL    HW159521  13.735   8.212   5.930
19208SOL    HW259522  13.831   8.185   5.816
19209SOL     OW59523   9.519   2.901  14.439
19209SOL    HW159524   9.472   2.837  14.386
19209SOL    HW259525   9.465   2.912  14.517
19210SOL     OW59526  12.816   3.818   8.607
19210SOL    HW159527  12.752   3.888   8.620
19210SOL    HW259528  12.818   3.805   8.512
19211SOL     OW59529   9.687  12.890   6.819
19211SOL    HW159530   9.638  12.833   6.761
19211SOL    HW259531   9.761  12.919   6.766
19212SOL     OW59532  14.657  10.148   5.446
19212SOL    HW159533  14.584  10.099   5.410
19212SOL    HW259534  14.703  10.086   5.503
19213SOL     OW59535   8.083  12.954  14.476
19213SOL    HW159536   8.002  12.991  14.443
19213SOL    HW259537   8.072  12.859  14.468
19214SOL     OW59538  12.511   3.017   2.565
19214SOL    HW159539  12.458   2.946   2.601
19214SOL    HW259540  12.506   3.086   2.631
19215SOL     OW59541   3.332   5.267  11.095
19215SOL    HW159542   3.405   5.328  11.100
19215SOL    HW259543   3.369   5.188  11.056
19216SOL     OW59544  13.738  13.912   4.836
19216SOL    HW159545  13.774  13.830   4.869
19216SOL    HW259546  13.657  13.888   4.792
19217SOL     OW59547   5.802   3.847  10.301
19217SOL    HW159548   5.838   3.763  10.273
19217SOL    HW259549   5.725   3.860  10.245
19218SOL     OW59550   1.748   6.174   5.143
19218SOL    HW159551   1.831   6.195   5.186
19218SOL    HW259552   1.709   6.260   5.124
19219SOL     OW59553   1.444   1.669   4.414
19219SOL    HW159554   1.391   1.668   4.494
19219SOL    HW259555   1.429   1.583   4.375
19220SOL     OW59556  10.307   8.880   2.585
19220SOL    HW159557  10.244   8.823   2.541
19220SOL    HW259558  10.268   8.967   2.580
19221SOL     OW59559  11.396   2.415   1.737
19221SOL    HW159560  11.430   2.327   1.755
19221SOL    HW259561  11.312   2.399   1.693
19222SOL     OW59562   7.000  11.611   5.249
19222SOL    HW159563   6.987  11.702   5.277
19222SOL    HW259564   7.014  11.563   5.331
19223SOL     OW59565  12.438   6.088  13.865
19223SOL    HW159566  12.522   6.067  13.824
19223SOL    HW259567  12.437   6.034  13.945
19224SOL     OW59568   6.935   9.783   8.180
19224SOL    HW159569   6.892   9.748   8.102
19224SOL    HW259570   6.998   9.846   8.145
19225SOL     OW59571   6.699  12.345   5.892
19225SOL    HW159572   6.735  12.411   5.832
19225SOL    HW259573   6.646  12.288   5.837
19226SOL     OW59574   8.771   0.971   7.238
19226SOL    HW159575   8.837   1.034   7.209
19226SOL    HW259576   8.821   0.906   7.288
19227SOL     OW59577   8.199   3.740   5.172
19227SOL    HW159578   8.189   3.829   5.206
19227SOL    HW259579   8.294   3.727   5.169
19228SOL     OW59580  10.999  11.930   6.885
19228SOL    HW159581  10.912  11.914   6.847
19228SOL    HW259582  11.060  11.888   6.824
19229SOL     OW59583  11.535   9.195   9.983
19229SOL    HW159584  11.504   9.231   9.901
19229SOL    HW259585  11.628   9.220   9.987
19230SOL     OW59586   0.889   5.942  10.270
19230SOL    HW159587   0.815   6.000  10.287
19230SOL    HW259588   0.956   5.999  10.233
19231SOL     OW59589   0.938   5.801  14.852
19231SOL    HW159590   0.864   5.855  14.825
19231SOL    HW259591   0.952   5.741  14.778
19232SOL     OW59592   0.416  10.061   3.071
19232SOL    HW159593   0.501  10.061   3.027
19232SOL    HW259594   0.437  10.058   3.164
19233SOL     OW59595   6.535   7.299  12.488
19233SOL    HW159596   6.572   7.265  12.407
19233SOL    HW259597   6.589   7.376  12.508
19234SOL     OW59598  14.626   9.481  13.639
19234SOL    HW159599  14.648   9.417  13.571
19234SOL    HW259600  14.611   9.428  13.718
19235SOL     OW59601   6.104  11.356   8.005
19235SOL    HW159602   6.190  11.372   8.045
19235SOL    HW259603   6.098  11.261   7.999
19236SOL     OW59604   6.914   6.432   2.118
19236SOL    HW159605   6.998   6.386   2.123
19236SOL    HW259606   6.883   6.436   2.208
19237SOL     OW59607   5.998   8.123   9.874
19237SOL    HW159608   6.018   8.160   9.788
19237SOL    HW259609   5.970   8.197   9.927
19238SOL     OW59610   5.456  11.538  12.314
19238SOL    HW159611   5.452  11.589  12.233
19238SOL    HW259612   5.386  11.574  12.368
19239SOL     OW59613  13.471   2.102  14.751
19239SOL    HW159614  13.556   2.081  14.791
19239SOL    HW259615  13.494   2.149  14.670
19240SOL     OW59616   8.891   9.335   0.727
19240SOL    HW159617   8.852   9.396   0.664
19240SOL    HW259618   8.883   9.379   0.811
19241SOL     OW59619   2.625  14.584  12.605
19241SOL    HW159620   2.617  14.493  12.577
19241SOL    HW259621   2.712  14.590  12.643
19242SOL     OW59622   4.904   2.963   6.868
19242SOL    HW159623   4.869   2.998   6.785
19242SOL    HW259624   4.946   2.881   6.843
19243SOL     OW59625  14.041  11.207   4.442
19243SOL    HW159626  13.959  11.206   4.492
19243SOL    HW259627  14.029  11.278   4.379
19244SOL     OW59628  13.447   4.102   0.396
19244SOL    HW159629  13.434   4.015   0.433
19244SOL    HW259630  13.531   4.131   0.431
19245SOL     OW59631   4.266   5.586   2.161
19245SOL    HW159632   4.263   5.513   2.222
19245SOL    HW259633   4.284   5.662   2.216
19246SOL     OW59634  12.716   1.962   5.963
19246SOL    HW159635  12.765   1.939   5.884
19246SOL    HW259636  12.726   1.887   6.021
19247SOL     OW59637  13.004   4.225  12.691
19247SOL    HW159638  12.934   4.290  12.701
19247SOL    HW259639  12.981   4.156  12.753
19248SOL     OW59640   7.376  13.703   1.323
19248SOL    HW159641   7.292  13.685   1.364
19248SOL    HW259642   7.441  13.676   1.388
19249SOL     OW59643  14.056   0.986   4.350
19249SOL    HW159644  14.131   0.927   4.358
19249SOL    HW259645  14.092   1.065   4.309
19250SOL     OW59646   1.056   9.979  13.639
19250SOL    HW159647   0.965   9.992  13.612
19250SOL    HW259648   1.075   9.888  13.615
19251SOL     OW59649  12.299   3.129   7.793
19251SOL    HW159650  12.347   3.186   7.733
19251SOL    HW259651  12.225   3.182   7.823
19252SOL     OW59652   7.582   3.924   1.944
19252SOL    HW159653   7.623   3.927   1.858
19252SOL    HW259654   7.552   3.833   1.954
19253SOL     OW59655   5.171   6.947   0.661
19253SOL    HW159656   5.076   6.957   0.670
19253SOL    HW259657   5.206   7.033   0.685
19254SOL     OW59658   9.581   7.870   3.516
19254SOL    HW159659   9.501   7.895   3.563
19254SOL    HW259660   9.639   7.835   3.583
19255SOL     OW59661  14.219  11.131   6.057
19255SOL    HW159662  14.169  11.049   6.055
19255SOL    HW259663  14.236  11.151   5.965
19256SOL     OW59664   8.083   7.788  14.348
19256SOL    HW159665   8.137   7.867  14.353
19256SOL    HW259666   8.105   7.749  14.263
19257SOL     OW59667   5.851   8.932   5.447
19257SOL    HW159668   5.850   8.906   5.539
19257SOL    HW259669   5.771   8.984   5.436
19258SOL     OW59670   5.328   6.785   7.377
19258SOL    HW159671   5.309   6.692   7.366
19258SOL    HW259672   5.423   6.789   7.390
19259SOL     OW59673   4.492  11.947  11.194
19259SOL    HW159674   4.427  11.894  11.240
19259SOL    HW259675   4.546  11.883  11.148
19260SOL     OW59676   1.759   0.483   8.766
19260SOL    HW159677   1.673   0.447   8.789
19260SOL    HW259678   1.751   0.576   8.786
19261SOL     OW59679  12.544  14.868  10.155
19261SOL    HW159680  12.566  14.781  10.190
19261SOL    HW259681  12.530   0.053  10.232
19262SOL     OW59682   6.985  11.011   7.388
19262SOL    HW159683   7.035  11.055   7.320
19262SOL    HW259684   7.009  10.919   7.380
19263SOL     OW59685   6.264  13.189  10.884
19263SOL    HW159686   6.207  13.193  10.807
19263SOL    HW259687   6.343  13.146  10.853
19264SOL     OW59688   8.732   3.391  14.002
19264SOL    HW159689   8.658   3.411  13.944
19264SOL    HW259690   8.705   3.423  14.088
19265SOL     OW59691   3.344   6.520   3.810
19265SOL    HW159692   3.397   6.445   3.784
19265SOL    HW259693   3.258   6.484   3.827
19266SOL     OW59694   0.743   8.544   7.995
19266SOL    HW159695   0.770   8.564   7.905
19266SOL    HW259696   0.652   8.517   7.987
19267SOL     OW59697   0.434  10.576  11.306
19267SOL    HW159698   0.509  10.624  11.270
19267SOL    HW259699   0.471  10.525  11.378
19268SOL     OW59700   9.920   0.571  11.960
19268SOL    HW159701  10.003   0.612  11.986
19268SOL    HW259702   9.853   0.635  11.984
19269SOL     OW59703   4.056   0.386  13.285
19269SOL    HW159704   4.063   0.466  13.336
19269SOL    HW259705   4.059   0.315  13.350
19270SOL     OW59706   3.650  11.782   4.582
19270SOL    HW159707   3.627  11.853   4.642
19270SOL    HW259708   3.598  11.798   4.504
19271SOL     OW59709   3.293  12.411   7.811
19271SOL    HW159710   3.306  12.491   7.862
19271SOL    HW259711   3.381  12.373   7.805
19272SOL     OW59712   5.815   9.788   9.047
19272SOL    HW159713   5.722   9.771   9.035
19272SOL    HW259714   5.857   9.703   9.039
19273SOL     OW59715   7.677   6.022   3.450
19273SOL    HW159716   7.744   6.022   3.382
19273SOL    HW259717   7.671   6.113   3.479
19274SOL     OW59718   3.857   9.314   4.439
19274SOL    HW159719   3.830   9.286   4.352
19274SOL    HW259720   3.877   9.233   4.485
19275SOL     OW59721   0.941   4.464   4.238
19275SOL    HW159722   0.849   4.484   4.251
19275SOL    HW259723   0.950   4.454   4.143
19276SOL     OW59724   9.000  10.709   4.248
19276SOL    HW159725   9.009  10.710   4.153
19276SOL    HW259726   8.919  10.661   4.264
19277SOL     OW59727   5.103   0.094  14.202
19277SOL    HW159728   5.010   0.102  14.220
19277SOL    HW259729   5.107   0.039  14.124
19278SOL     OW59730  14.508   7.764   3.671
19278SOL    HW159731  14.461   7.809   3.741
19278SOL    HW259732  14.557   7.695   3.716
19279SOL     OW59733   6.820   3.812   4.428
19279SOL    HW159734   6.911   3.838   4.414
19279SOL    HW259735   6.790   3.867   4.500
19280SOL     OW59736   5.583   9.052   1.715
19280SOL    HW159737   5.661   9.106   1.707
19280SOL    HW259738   5.516   9.110   1.750
19281SOL     OW59739   5.341   2.995   2.147
19281SOL    HW159740   5.255   3.017   2.112
19281SOL    HW259741   5.327   2.985   2.241
19282SOL     OW59742  13.192  12.642  13.538
19282SOL    HW159743  13.101  12.615  13.555
19282SOL    HW259744  13.220  12.585  13.466
19283SOL     OW59745   3.341  10.759   1.048
19283SOL    HW159746   3.393  10.826   1.005
19283SOL    HW259747   3.371  10.760   1.139
19284SOL     OW59748   7.399   4.809   6.156
19284SOL    HW159749   7.330   4.846   6.101
19284SOL    HW259750   7.447   4.886   6.188
19285SOL     OW59751   9.096  14.162   8.045
19285SOL    HW159752   9.053  14.079   8.064
19285SOL    HW259753   9.080  14.177   7.952
19286SOL     OW59754   7.126   5.203  14.317
19286SOL    HW159755   7.188   5.220  14.247
19286SOL    HW259756   7.151   5.118  14.353
19287SOL     OW59757  11.617   0.353  10.156
19287SOL    HW159758  11.625   0.370  10.062
19287SOL    HW259759  11.651   0.264  10.168
19288SOL     OW59760   6.188   9.630   1.337
19288SOL    HW159761   6.139   9.693   1.389
19288SOL    HW259762   6.134   9.550   1.339
19289SOL     OW59763   0.606   9.034   6.248
19289SOL    HW159764   0.570   8.987   6.174
19289SOL    HW259765   0.649   8.967   6.302
19290SOL     OW59766   2.071   0.439  13.545
19290SOL    HW159767   2.067   0.528  13.582
19290SOL    HW259768   2.084   0.383  13.621
19291SOL     OW59769   4.960   7.095   2.628
19291SOL    HW159770   5.029   7.116   2.690
19291SOL    HW259771   4.945   7.177   2.581
19292SOL     OW59772   5.131  10.777   8.099
19292SOL    HW159773   5.215  10.817   8.121
19292SOL    HW259774   5.106  10.728   8.178
19293SOL     OW59775   0.813  12.890   1.067
19293SOL    HW159776   0.749  12.959   1.051
19293SOL    HW259777   0.787  12.819   1.009
19294SOL     OW59778   8.045   0.401   6.765
19294SOL    HW159779   8.012   0.490   6.781
19294SOL    HW259780   8.140   0.408   6.776
19295SOL     OW59781  11.661  13.990   9.494
19295SOL    HW159782  11.671  13.917   9.433
19295SOL    HW259783  11.566  13.998   9.507
19296SOL     OW59784  13.535  11.539   9.746
19296SOL    HW159785  13.576  11.456   9.772
19296SOL    HW259786  13.536  11.592   9.825
19297SOL     OW59787   6.842   1.604   9.176
19297SOL    HW159788   6.853   1.681   9.121
19297SOL    HW259789   6.918   1.604   9.234
19298SOL     OW59790   1.338  12.743  12.802
19298SOL    HW159791   1.357  12.693  12.882
19298SOL    HW259792   1.249  12.718  12.779
19299SOL     OW59793  13.055   4.659  11.754
19299SOL    HW159794  13.043   4.641  11.661
19299SOL    HW259795  13.065   4.754  11.759
19300SOL     OW59796   6.655   3.624   9.616
19300SOL    HW159797   6.598   3.654   9.686
19300SOL    HW259798   6.644   3.529   9.615
19301SOL     OW59799  11.369   8.526   8.347
19301SOL    HW159800  11.306   8.454   8.344
19301SOL    HW259801  11.389   8.545   8.255
19302SOL     OW59802   3.070   4.015   6.544
19302SOL    HW159803   3.119   4.047   6.620
19302SOL    HW259804   3.132   4.017   6.472
19303SOL     OW59805   0.029   6.809   8.622
19303SOL    HW159806   0.052   6.846   8.707
19303SOL    HW259807  14.812   6.770   8.635
19304SOL     OW59808   7.584  13.644  14.757
19304SOL    HW159809   7.552  13.680  14.674
19304SOL    HW259810   7.665  13.600  14.733
19305SOL     OW59811  12.695  12.576   0.125
19305SOL    HW159812  12.625  12.519   0.154
19305SOL    HW259813  12.774  12.540   0.165
19306SOL     OW59814   5.449   1.916   0.151
19306SOL    HW159815   5.394   1.840   0.133
19306SOL    HW259816   5.492   1.895   0.234
19307SOL     OW59817  14.304   7.499   7.630
19307SOL    HW159818  14.256   7.554   7.568
19307SOL    HW259819  14.240   7.435   7.660
19308SOL     OW59820   4.862   1.527   4.804
19308SOL    HW159821   4.928   1.521   4.873
19308SOL    HW259822   4.913   1.539   4.724
19309SOL     OW59823   1.009  10.202   9.917
19309SOL    HW159824   1.083  10.175   9.862
19309SOL    HW259825   0.979  10.121   9.958
19310SOL     OW59826  10.450   5.913  14.402
19310SOL    HW159827  10.393   5.985  14.375
19310SOL    HW259828  10.520   5.911  14.337
19311SOL     OW59829   2.157   0.231   2.429
19311SOL    HW159830   2.165   0.218   2.524
19311SOL    HW259831   2.154   0.142   2.393
19312SOL     OW59832  14.337   3.841   2.184
19312SOL    HW159833  14.349   3.918   2.128
19312SOL    HW259834  14.407   3.847   2.249
19313SOL     OW59835  14.103   9.853   5.409
19313SOL    HW159836  14.154   9.877   5.486
19313SOL    HW259837  14.036   9.921   5.403
19314SOL     OW59838   0.868  14.564   1.044
19314SOL    HW159839   0.931  14.541   1.111
19314SOL    HW259840   0.783  14.559   1.088
19315SOL     OW59841   9.356   2.761   3.785
19315SOL    HW159842   9.398   2.726   3.863
19315SOL    HW259843   9.336   2.684   3.731
19316SOL     OW59844  11.145   5.110   5.589
19316SOL    HW159845  11.124   5.029   5.543
19316SOL    HW259846  11.201   5.158   5.528
19317SOL     OW59847   6.532  14.418  11.211
19317SOL    HW159848   6.515  14.448  11.122
19317SOL    HW259849   6.624  14.439  11.226
19318SOL     OW59850   3.494  11.158   4.170
19318SOL    HW159851   3.536  11.117   4.095
19318SOL    HW259852   3.544  11.239   4.183
19319SOL     OW59853   2.410   2.002   7.832
19319SOL    HW159854   2.343   2.070   7.829
19319SOL    HW259855   2.483   2.037   7.781
19320SOL     OW59856  13.244   1.505   3.928
19320SOL    HW159857  13.151   1.484   3.925
19320SOL    HW259858  13.288   1.420   3.916
19321SOL     OW59859   7.156   7.878   5.682
19321SOL    HW159860   7.223   7.845   5.622
19321SOL    HW259861   7.073   7.851   5.643
19322SOL     OW59862  11.677   9.707   6.387
19322SOL    HW159863  11.597   9.745   6.422
19322SOL    HW259864  11.648   9.630   6.339
19323SOL     OW59865   1.203   3.128   9.973
19323SOL    HW159866   1.176   3.193  10.038
19323SOL    HW259867   1.190   3.043  10.017
19324SOL     OW59868   5.237   6.246  10.773
19324SOL    HW159869   5.317   6.282  10.811
19324SOL    HW259870   5.207   6.182  10.838
19325SOL     OW59871  12.333   9.681   0.646
19325SOL    HW159872  12.260   9.724   0.602
19325SOL    HW259873  12.357   9.740   0.717
19326SOL     OW59874  12.079  10.103   7.746
19326SOL    HW159875  12.120  10.137   7.666
19326SOL    HW259876  11.985  10.106   7.727
19327SOL     OW59877  11.541   9.884  10.641
19327SOL    HW159878  11.627   9.842  10.635
19327SOL    HW259879  11.503   9.873  10.553
19328SOL     OW59880   8.918   7.099   7.510
19328SOL    HW159881   8.951   7.186   7.489
19328SOL    HW259882   8.872   7.110   7.593
19329SOL     OW59883   6.938   2.096   9.195
19329SOL    HW159884   6.850   2.114   9.164
19329SOL    HW259885   6.991   2.168   9.162
19330SOL     OW59886   9.684   0.615   8.971
19330SOL    HW159887   9.644   0.693   8.933
19330SOL    HW259888   9.618   0.547   8.963
19331SOL     OW59889  11.973  11.163  12.011
19331SOL    HW159890  11.888  11.204  11.997
19331SOL    HW259891  12.037  11.232  11.991
19332SOL     OW59892   3.603  11.952  10.570
19332SOL    HW159893   3.642  12.028  10.526
19332SOL    HW259894   3.668  11.882  10.558
19333SOL     OW59895  10.675  10.543  11.038
19333SOL    HW159896  10.585  10.523  11.010
19333SOL    HW259897  10.717  10.457  11.047
19334SOL     OW59898   5.776   7.817   8.517
19334SOL    HW159899   5.736   7.829   8.431
19334SOL    HW259900   5.869   7.833   8.502
19335SOL     OW59901   3.992   2.752  12.859
19335SOL    HW159902   3.978   2.733  12.952
19335SOL    HW259903   3.907   2.784  12.828
19336SOL     OW59904   5.560   7.542   6.149
19336SOL    HW159905   5.617   7.618   6.155
19336SOL    HW259906   5.609   7.478   6.098
19337SOL     OW59907  14.070   0.682   3.097
19337SOL    HW159908  14.090   0.681   3.190
19337SOL    HW259909  14.143   0.635   3.056
19338SOL     OW59910   2.422  13.002   0.176
19338SOL    HW159911   2.504  13.051   0.180
19338SOL    HW259912   2.421  12.949   0.256
19339SOL     OW59913   2.029   9.744  10.531
19339SOL    HW159914   2.108   9.799  10.528
19339SOL    HW259915   1.993   9.759  10.618
19340SOL     OW59916   1.410  10.671  13.869
19340SOL    HW159917   1.390  10.706  13.956
19340SOL    HW259918   1.334  10.617  13.848
19341SOL     OW59919  12.395   3.574   7.417
19341SOL    HW159920  12.335   3.572   7.491
19341SOL    HW259921  12.340   3.590   7.341
19342SOL     OW59922   3.764  11.292  10.855
19342SOL    HW159923   3.817  11.246  10.920
19342SOL    HW259924   3.692  11.232  10.836
19343SOL     OW59925   6.795   2.832   2.051
19343SOL    HW159926   6.743   2.751   2.051
19343SOL    HW259927   6.736   2.898   2.016
19344SOL     OW59928   3.388  10.460  13.165
19344SOL    HW159929   3.315  10.516  13.140
19344SOL    HW259930   3.444  10.515  13.220
19345SOL     OW59931   6.521   7.120  10.146
19345SOL    HW159932   6.461   7.062  10.099
19345SOL    HW259933   6.560   7.064  10.213
19346SOL     OW59934   2.587   1.830  14.431
19346SOL    HW159935   2.652   1.776  14.385
19346SOL    HW259936   2.553   1.888  14.364
19347SOL     OW59937  14.063  14.489   9.688
19347SOL    HW159938  14.029  14.545   9.758
19347SOL    HW259939  13.998  14.420   9.679
19348SOL     OW59940   8.975   2.272  13.889
19348SOL    HW159941   8.948   2.337  13.954
19348SOL    HW259942   9.071   2.268  13.898
19349SOL     OW59943   6.814  11.820   3.710
19349SOL    HW159944   6.735  11.872   3.694
19349SOL    HW259945   6.806  11.745   3.650
19350SOL     OW59946   7.969  13.839   2.249
19350SOL    HW159947   8.026  13.831   2.326
19350SOL    HW259948   7.962  13.934   2.235
19351SOL     OW59949   4.222  13.811  14.075
19351SOL    HW159950   4.218  13.903  14.047
19351SOL    HW259951   4.144  13.799  14.128
19352SOL     OW59952   8.199   6.894  11.223
19352SOL    HW159953   8.218   6.816  11.275
19352SOL    HW259954   8.193   6.965  11.287
19353SOL     OW59955  10.540   9.143   2.166
19353SOL    HW159956  10.548   9.110   2.076
19353SOL    HW259957  10.627   9.176   2.188
19354SOL     OW59958   4.857   2.372  13.259
19354SOL    HW159959   4.815   2.407  13.180
19354SOL    HW259960   4.793   2.387  13.329
19355SOL     OW59961  11.596  14.382  11.604
19355SOL    HW159962  11.655  14.455  11.586
19355SOL    HW259963  11.632  14.309  11.552
19356SOL     OW59964  12.046   4.124   7.209
19356SOL    HW159965  12.067   4.057   7.274
19356SOL    HW259966  11.990   4.185   7.256
19357SOL     OW59967   7.245  10.716   5.279
19357SOL    HW159968   7.202  10.646   5.230
19357SOL    HW259969   7.319  10.742   5.224
19358SOL     OW59970   6.383   8.995   2.420
19358SOL    HW159971   6.350   9.024   2.504
19358SOL    HW259972   6.478   8.991   2.432
19359SOL     OW59973  14.183   7.030   4.330
19359SOL    HW159974  14.220   7.113   4.299
19359SOL    HW259975  14.189   6.972   4.255
19360SOL     OW59976   5.605   8.392   1.284
19360SOL    HW159977   5.700   8.400   1.277
19360SOL    HW259978   5.574   8.481   1.301
19361SOL     OW59979   2.181   5.030   3.335
19361SOL    HW159980   2.130   5.075   3.268
19361SOL    HW259981   2.183   5.091   3.409
19362SOL     OW59982   7.727   6.575   8.808
19362SOL    HW159983   7.727   6.482   8.785
19362SOL    HW259984   7.814   6.606   8.783
19363SOL     OW59985   7.685  13.977   8.847
19363SOL    HW159986   7.614  14.020   8.896
19363SOL    HW259987   7.658  13.983   8.756
19364SOL     OW59988  11.327  10.061  12.193
19364SOL    HW159989  11.358  10.014  12.270
19364SOL    HW259990  11.320  10.152  12.222
19365SOL     OW59991   6.673   6.363   9.174
19365SOL    HW159992   6.723   6.315   9.240
19365SOL    HW259993   6.735   6.376   9.102
19366SOL     OW59994   6.777   1.327   7.855
19366SOL    HW159995   6.707   1.392   7.849
19366SOL    HW259996   6.804   1.328   7.947
19367SOL     OW59997   0.485   3.609  14.612
19367SOL    HW159998   0.523   3.691  14.643
19367SOL    HW259999   0.504   3.546  14.681
19368SOL     OW60000   8.340  14.298  12.163
19368SOL    HW160001   8.375  14.362  12.101
19368SOL    HW260002   8.307  14.227  12.109
19369SOL     OW60003   3.464   2.425   2.323
19369SOL    HW160004   3.455   2.467   2.408
19369SOL    HW260005   3.380   2.382   2.307
19370SOL     OW60006  13.766   7.385  11.566
19370SOL    HW160007  13.788   7.391  11.473
19370SOL    HW260008  13.841   7.424  11.611
19371SOL     OW60009   6.491  10.138   7.081
19371SOL    HW160010   6.573  10.181   7.105
19371SOL    HW260011   6.515  10.078   7.010
19372SOL     OW60012  10.593   2.196  14.339
19372SOL    HW160013  10.587   2.239  14.253
19372SOL    HW260014  10.660   2.245  14.386
19373SOL     OW60015   5.655  13.239   2.652
19373SOL    HW160016   5.729  13.266   2.599
19373SOL    HW260017   5.583  13.228   2.590
19374SOL     OW60018   6.603  11.292   5.390
19374SOL    HW160019   6.588  11.373   5.440
19374SOL    HW260020   6.680  11.252   5.432
19375SOL     OW60021  12.994   1.566   5.128
19375SOL    HW160022  12.994   1.627   5.201
19375SOL    HW260023  12.910   1.520   5.134
19376SOL     OW60024  12.719   7.971   3.127
19376SOL    HW160025  12.750   8.016   3.205
19376SOL    HW260026  12.702   8.041   3.063
19377SOL     OW60027   4.007   0.532   2.745
19377SOL    HW160028   4.032   0.440   2.744
19377SOL    HW260029   4.027   0.562   2.834
19378SOL     OW60030   3.692  10.749   6.130
19378SOL    HW160031   3.725  10.802   6.204
19378SOL    HW260032   3.633  10.686   6.171
19379SOL     OW60033   9.105   2.624   1.185
19379SOL    HW160034   9.048   2.635   1.261
19379SOL    HW260035   9.075   2.542   1.145
19380SOL     OW60036   6.920   1.590  10.950
19380SOL    HW160037   7.009   1.613  10.977
19380SOL    HW260038   6.886   1.538  11.022
19381SOL     OW60039   8.343  12.019  11.598
19381SOL    HW160040   8.350  12.058  11.511
19381SOL    HW260041   8.257  12.047  11.630
19382SOL     OW60042   4.387  14.199   5.467
19382SOL    HW160043   4.465  14.218   5.519
19382SOL    HW260044   4.318  14.251   5.508
19383SOL     OW60045  10.010   4.372  13.070
19383SOL    HW160046   9.929   4.418  13.046
19383SOL    HW260047   9.987   4.323  13.149
19384SOL     OW60048  11.499   2.872   0.826
19384SOL    HW160049  11.565   2.811   0.793
19384SOL    HW260050  11.464   2.829   0.903
19385SOL     OW60051   8.127  12.115   5.370
19385SOL    HW160052   8.066  12.181   5.335
19385SOL    HW260053   8.098  12.102   5.460
19386SOL     OW60054   6.088   7.537  10.222
19386SOL    HW160055   6.082   7.507  10.313
19386SOL    HW260056   6.003   7.576  10.203
19387SOL     OW60057   6.368  10.402  13.207
19387SOL    HW160058   6.446  10.413  13.262
19387SOL    HW260059   6.296  10.402  13.270
19388SOL     OW60060  10.627  13.731   4.293
19388SOL    HW160061  10.593  13.716   4.381
19388SOL    HW260062  10.682  13.809   4.301
19389SOL     OW60063   2.910  14.289   3.324
19389SOL    HW160064   2.838  14.268   3.265
19389SOL    HW260065   2.959  14.358   3.280
19390SOL     OW60066  11.732   5.652   6.154
19390SOL    HW160067  11.640   5.662   6.130
19390SOL    HW260068  11.738   5.564   6.192
19391SOL     OW60069   5.033  13.737   2.345
19391SOL    HW160070   5.128  13.740   2.357
19391SOL    HW260071   5.005  13.829   2.354
19392SOL     OW60072   9.074  10.987   4.169
19392SOL    HW160073   9.082  10.919   4.103
19392SOL    HW260074   9.164  11.000   4.201
19393SOL     OW60075  12.764  10.348   9.100
19393SOL    HW160076  12.697  10.407   9.134
19393SOL    HW260077  12.779  10.378   9.010
19394SOL     OW60078   1.418   4.861   8.710
19394SOL    HW160079   1.476   4.915   8.656
19394SOL    HW260080   1.355   4.922   8.747
19395SOL     OW60081  12.674   2.124  13.199
19395SOL    HW160082  12.734   2.134  13.273
19395SOL    HW260083  12.730   2.099  13.125
19396SOL     OW60084  14.727  11.569   2.518
19396SOL    HW160085  14.798  11.512   2.545
19396SOL    HW260086  14.654  11.548   2.576
19397SOL     OW60087   3.363  10.374   6.104
19397SOL    HW160088   3.369  10.464   6.138
19397SOL    HW260089   3.280  10.341   6.138
19398SOL     OW60090   8.147  14.456   4.106
19398SOL    HW160091   8.158  14.456   4.201
19398SOL    HW260092   8.197  14.531   4.076
19399SOL     OW60093   7.635   2.889   5.386
19399SOL    HW160094   7.551   2.931   5.404
19399SOL    HW260095   7.690   2.959   5.351
19400SOL     OW60096  10.789  11.522   9.819
19400SOL    HW160097  10.871  11.548   9.861
19400SOL    HW260098  10.774  11.432   9.849
19401SOL     OW60099   6.277   0.358  14.782
19401SOL    HW160100   6.229   0.413  14.720
19401SOL    HW260101   6.283   0.273  14.738
19402SOL     OW60102  11.903   3.011   8.556
19402SOL    HW160103  11.961   3.079   8.524
19402SOL    HW260104  11.856   2.980   8.478
19403SOL     OW60105  12.380   3.706   6.962
19403SOL    HW160106  12.460   3.673   6.923
19403SOL    HW260107  12.358   3.785   6.912
19404SOL     OW60108   6.616   1.231   6.444
19404SOL    HW160109   6.585   1.152   6.398
19404SOL    HW260110   6.602   1.212   6.536
19405SOL     OW60111   5.562  14.455   9.178
19405SOL    HW160112   5.533  14.364   9.173
19405SOL    HW260113   5.656  14.451   9.160
19406SOL     OW60114  11.040   1.409  14.837
19406SOL    HW160115  11.059   1.347  14.766
19406SOL    HW260116  10.971   1.366   0.018
19407SOL     OW60117   9.578   1.213   7.584
19407SOL    HW160118   9.485   1.208   7.608
19407SOL    HW260119   9.623   1.165   7.654
19408SOL     OW60120  14.102  14.665   4.817
19408SOL    HW160121  14.147  14.742   4.853
19408SOL    HW260122  14.121  14.595   4.880
19409SOL     OW60123  13.076   2.761   3.374
19409SOL    HW160124  13.107   2.762   3.283
19409SOL    HW260125  13.150   2.797   3.423
19410SOL     OW60126   1.892   8.178  11.559
19410SOL    HW160127   1.951   8.121  11.510
19410SOL    HW260128   1.854   8.236  11.494
19411SOL     OW60129   8.419   0.457   0.212
19411SOL    HW160130   8.418   0.552   0.224
19411SOL    HW260131   8.425   0.421   0.301
19412SOL     OW60132  13.104   3.365   7.020
19412SOL    HW160133  13.137   3.361   6.930
19412SOL    HW260134  13.137   3.448   7.054
19413SOL     OW60135   2.012   8.809  10.615
19413SOL    HW160136   2.074   8.874  10.582
19413SOL    HW260137   1.933   8.823  10.563
19414SOL     OW60138   7.068  12.831  10.200
19414SOL    HW160139   7.022  12.907  10.165
19414SOL    HW260140   7.061  12.840  10.295
19415SOL     OW60141  12.317   2.873   4.649
19415SOL    HW160142  12.367   2.823   4.584
19415SOL    HW260143  12.264   2.807   4.695
19416SOL     OW60144   6.904   1.377   3.170
19416SOL    HW160145   6.822   1.348   3.211
19416SOL    HW260146   6.955   1.415   3.241
19417SOL     OW60147   4.909   3.769  14.384
19417SOL    HW160148   4.971   3.701  14.358
19417SOL    HW260149   4.958   3.851  14.377
19418SOL     OW60150   4.744   7.862  10.240
19418SOL    HW160151   4.703   7.900  10.162
19418SOL    HW260152   4.671   7.824  10.289
19419SOL     OW60153   6.211   0.274   6.380
19419SOL    HW160154   6.243   0.328   6.452
19419SOL    HW260155   6.218   0.184   6.412
19420SOL     OW60156   4.318  13.591   6.619
19420SOL    HW160157   4.303  13.625   6.532
19420SOL    HW260158   4.410  13.608   6.637
19421SOL     OW60159  13.668  14.549   1.642
19421SOL    HW160160  13.721  14.622   1.673
19421SOL    HW260161  13.727  14.473   1.644
19422SOL     OW60162   4.846  13.282   7.457
19422SOL    HW160163   4.819  13.201   7.413
19422SOL    HW260164   4.790  13.287   7.534
19423SOL     OW60165   9.662   4.424   6.600
19423SOL    HW160166   9.629   4.408   6.689
19423SOL    HW260167   9.682   4.337   6.566
19424SOL     OW60168  13.792   5.514  12.195
19424SOL    HW160169  13.785   5.453  12.121
19424SOL    HW260170  13.789   5.458  12.272
19425SOL     OW60171   2.888   9.800   4.413
19425SOL    HW160172   2.826   9.825   4.482
19425SOL    HW260173   2.867   9.857   4.339
19426SOL     OW60174   6.251   8.669   3.852
19426SOL    HW160175   6.287   8.622   3.777
19426SOL    HW260176   6.216   8.749   3.815
19427SOL     OW60177   2.099   7.233  10.830
19427SOL    HW160178   2.004   7.222  10.832
19427SOL    HW260179   2.113   7.318  10.789
19428SOL     OW60180   6.613   9.113   4.444
19428SOL    HW160181   6.584   9.122   4.354
19428SOL    HW260182   6.641   9.202   4.469
19429SOL     OW60183   0.181  11.999   1.947
19429SOL    HW160184   0.233  11.962   1.876
19429SOL    HW260185   0.094  11.959   1.936
19430SOL     OW60186   7.178  14.429   4.752
19430SOL    HW160187   7.092  14.394   4.730
19430SOL    HW260188   7.226  14.427   4.669
19431SOL     OW60189  14.094   9.854   2.559
19431SOL    HW160190  14.005   9.854   2.594
19431SOL    HW260191  14.149   9.875   2.634
19432SOL     OW60192  11.130   1.700  10.224
19432SOL    HW160193  11.142   1.669  10.135
19432SOL    HW260194  11.060   1.765  10.218
19433SOL     OW60195   2.389   3.977   6.635
19433SOL    HW160196   2.342   3.895   6.621
19433SOL    HW260197   2.384   4.022   6.550
19434SOL     OW60198   2.491  14.426   3.854
19434SOL    HW160199   2.397  14.418   3.872
19434SOL    HW260200   2.506  14.366   3.782
19435SOL     OW60201   9.650   0.116  12.200
19435SOL    HW160202   9.557   0.114  12.225
19435SOL    HW260203   9.655   0.182  12.132
19436SOL     OW60204  10.712   9.619  13.566
19436SOL    HW160205  10.792   9.595  13.519
19436SOL    HW260206  10.722   9.578  13.652
19437SOL     OW60207   2.173   6.274   6.900
19437SOL    HW160208   2.110   6.331   6.942
19437SOL    HW260209   2.250   6.329   6.886
19438SOL     OW60210  10.221  11.895   3.264
19438SOL    HW160211  10.244  11.971   3.211
19438SOL    HW260212  10.297  11.837   3.258
19439SOL     OW60213   5.771   7.681  13.621
19439SOL    HW160214   5.679   7.708  13.617
19439SOL    HW260215   5.804   7.696  13.533
19440SOL     OW60216  12.566   0.969  13.623
19440SOL    HW160217  12.550   0.875  13.622
19440SOL    HW260218  12.606   0.988  13.538
19441SOL     OW60219  10.506  12.634  10.593
19441SOL    HW160220  10.463  12.719  10.601
19441SOL    HW260221  10.434  12.572  10.580
19442SOL     OW60222  14.460  14.806  13.748
19442SOL    HW160223  14.454   0.031  13.759
19442SOL    HW260224  14.525  14.779  13.813
19443SOL     OW60225  13.814   2.215  12.983
19443SOL    HW160226  13.903   2.180  12.979
19443SOL    HW260227  13.813   2.269  13.062
19444SOL     OW60228  12.971   3.305   4.197
19444SOL    HW160229  12.976   3.288   4.103
19444SOL    HW260230  13.005   3.394   4.207
19445SOL     OW60231   7.045   2.356   2.873
19445SOL    HW160232   7.046   2.443   2.832
19445SOL    HW260233   7.039   2.375   2.967
19446SOL     OW60234   8.801   8.694  10.387
19446SOL    HW160235   8.742   8.759  10.426
19446SOL    HW260236   8.791   8.616  10.442
19447SOL     OW60237   0.340   9.520   8.357
19447SOL    HW160238   0.424   9.564   8.366
19447SOL    HW260239   0.345   9.474   8.273
19448SOL     OW60240   6.279  11.103  11.593
19448SOL    HW160241   6.199  11.107  11.647
19448SOL    HW260242   6.289  11.191  11.559
19449SOL     OW60243   2.035   7.064   5.675
19449SOL    HW160244   2.071   7.123   5.741
19449SOL    HW260245   1.972   7.119   5.626
19450SOL     OW60246   8.073  13.195   7.275
19450SOL    HW160247   8.115  13.275   7.306
19450SOL    HW260248   7.988  13.224   7.241
19451SOL     OW60249  12.854  11.618   5.817
19451SOL    HW160250  12.812  11.566   5.885
19451SOL    HW260251  12.948  11.606   5.833
19452SOL     OW60252   4.589  13.040   4.482
19452SOL    HW160253   4.497  13.067   4.488
19452SOL    HW260254   4.639  13.119   4.504
19453SOL     OW60255   1.801  10.503  13.372
19453SOL    HW160256   1.760  10.456  13.444
19453SOL    HW260257   1.784  10.450  13.295
19454SOL     OW60258   9.635   0.282  13.953
19454SOL    HW160259   9.676   0.338  13.887
19454SOL    HW260260   9.648   0.329  14.035
19455SOL     OW60261   9.810  13.134   7.473
19455SOL    HW160262   9.814  13.080   7.552
19455SOL    HW260263   9.727  13.181   7.479
19456SOL     OW60264   9.693   9.090   2.123
19456SOL    HW160265   9.782   9.059   2.107
19456SOL    HW260266   9.679   9.159   2.058
19457SOL     OW60267  11.800   5.993  12.290
19457SOL    HW160268  11.749   6.074  12.291
19457SOL    HW260269  11.735   5.923  12.295
19458SOL     OW60270   3.673  10.480   9.817
19458SOL    HW160271   3.744  10.543   9.803
19458SOL    HW260272   3.617  10.521   9.884
19459SOL     OW60273   6.214   3.877   9.093
19459SOL    HW160274   6.259   3.793   9.098
19459SOL    HW260275   6.278   3.935   9.051
19460SOL     OW60276   2.959   0.876   2.517
19460SOL    HW160277   3.013   0.952   2.537
19460SOL    HW260278   3.020   0.812   2.480
19461SOL     OW60279  12.815   8.312  13.841
19461SOL    HW160280  12.723   8.332  13.856
19461SOL    HW260281  12.822   8.217  13.853
19462SOL     OW60282  13.095   1.348   1.749
19462SOL    HW160283  13.112   1.261   1.783
19462SOL    HW260284  13.053   1.394   1.822
19463SOL     OW60285   5.247   4.085  10.930
19463SOL    HW160286   5.211   4.076  10.842
19463SOL    HW260287   5.293   4.169  10.929
19464SOL     OW60288   2.217  13.984   8.141
19464SOL    HW160289   2.263  13.986   8.057
19464SOL    HW260290   2.148  14.050   8.132
19465SOL     OW60291  14.150   3.533   7.389
19465SOL    HW160292  14.205   3.461   7.418
19465SOL    HW260293  14.158   3.599   7.458
19466SOL     OW60294   0.894  10.453   1.580
19466SOL    HW160295   0.807  10.427   1.550
19466SOL    HW260296   0.929  10.509   1.510
19467SOL     OW60297  13.294   4.586   9.249
19467SOL    HW160298  13.346   4.666   9.236
19467SOL    HW260299  13.357   4.523   9.285
19468SOL     OW60300   6.433   8.043  11.847
19468SOL    HW160301   6.483   7.985  11.790
19468SOL    HW260302   6.355   7.993  11.870
19469SOL     OW60303   5.386   5.893  12.167
19469SOL    HW160304   5.464   5.943  12.144
19469SOL    HW260305   5.373   5.833  12.093
19470SOL     OW60306   4.923   3.169   1.879
19470SOL    HW160307   4.950   3.196   1.791
19470SOL    HW260308   4.857   3.234   1.905
19471SOL     OW60309  10.946   8.487  10.886
19471SOL    HW160310  10.878   8.550  10.862
19471SOL    HW260311  10.941   8.420  10.818
19472SOL     OW60312   6.171   8.278   9.680
19472SOL    HW160313   6.266   8.288   9.673
19472SOL    HW260314   6.143   8.256   9.592
19473SOL     OW60315   1.466   9.348  13.061
19473SOL    HW160316   1.489   9.363  13.153
19473SOL    HW260317   1.402   9.416  13.040
19474SOL     OW60318   2.263  13.845   8.361
19474SOL    HW160319   2.283  13.894   8.281
19474SOL    HW260320   2.323  13.771   8.359
19475SOL     OW60321   4.817   4.537  12.216
19475SOL    HW160322   4.894   4.586  12.188
19475SOL    HW260323   4.826   4.531  12.312
19476SOL     OW60324   0.970   8.644   2.451
19476SOL    HW160325   0.939   8.734   2.458
19476SOL    HW260326   1.020   8.642   2.369
19477SOL     OW60327  14.235   7.159   3.046
19477SOL    HW160328  14.157   7.109   3.024
19477SOL    HW260329  14.235   7.162   3.142
19478SOL     OW60330   2.818  12.240   4.313
19478SOL    HW160331   2.739  12.294   4.302
19478SOL    HW260332   2.835  12.205   4.226
19479SOL     OW60333   7.852   8.617   8.484
19479SOL    HW160334   7.783   8.684   8.481
19479SOL    HW260335   7.807   8.540   8.520
19480SOL     OW60336   8.270  12.093  11.040
19480SOL    HW160337   8.269  11.998  11.028
19480SOL    HW260338   8.177  12.117  11.050
19481SOL     OW60339  14.408   6.497   3.311
19481SOL    HW160340  14.454   6.424   3.352
19481SOL    HW260341  14.433   6.492   3.218
19482SOL     OW60342   1.311   5.582   3.399
19482SOL    HW160343   1.286   5.627   3.319
19482SOL    HW260344   1.296   5.646   3.469
19483SOL     OW60345   5.749  10.867   0.332
19483SOL    HW160346   5.842  10.850   0.315
19483SOL    HW260347   5.713  10.782   0.358
19484SOL     OW60348  12.469   1.297  12.766
19484SOL    HW160349  12.484   1.304  12.672
19484SOL    HW260350  12.489   1.206  12.787
19485SOL     OW60351   3.159  13.553  10.772
19485SOL    HW160352   3.109  13.579  10.695
19485SOL    HW260353   3.175  13.460  10.761
19486SOL     OW60354   4.251   1.610   0.522
19486SOL    HW160355   4.228   1.558   0.599
19486SOL    HW260356   4.279   1.694   0.557
19487SOL     OW60357   8.410   6.540   0.634
19487SOL    HW160358   8.392   6.448   0.653
19487SOL    HW260359   8.419   6.581   0.719
19488SOL     OW60360   9.409   9.707   2.765
19488SOL    HW160361   9.483   9.686   2.821
19488SOL    HW260362   9.423   9.656   2.686
19489SOL     OW60363   1.689   9.211   4.566
19489SOL    HW160364   1.742   9.210   4.646
19489SOL    HW260365   1.709   9.295   4.525
19490SOL     OW60366   2.810  12.278   8.065
19490SOL    HW160367   2.891  12.309   8.024
19490SOL    HW260368   2.818  12.183   8.064
19491SOL     OW60369   1.936   5.540   0.672
19491SOL    HW160370   1.984   5.460   0.651
19491SOL    HW260371   1.959   5.601   0.601
19492SOL     OW60372   3.302   4.799   5.996
19492SOL    HW160373   3.238   4.778   6.064
19492SOL    HW260374   3.250   4.832   5.923
19493SOL     OW60375   3.693  12.198  13.728
19493SOL    HW160376   3.603  12.230  13.729
19493SOL    HW260377   3.707  12.169  13.638
19494SOL     OW60378  10.316   1.819   1.255
19494SOL    HW160379  10.393   1.765   1.238
19494SOL    HW260380  10.324   1.845   1.346
19495SOL     OW60381  10.848   9.600   6.857
19495SOL    HW160382  10.914   9.564   6.916
19495SOL    HW260383  10.897   9.653   6.795
19496SOL     OW60384   3.574   0.721   6.264
19496SOL    HW160385   3.491   0.770   6.271
19496SOL    HW260386   3.547   0.630   6.255
19497SOL     OW60387  12.417   9.407  13.899
19497SOL    HW160388  12.333   9.396  13.854
19497SOL    HW260389  12.479   9.429  13.830
19498SOL     OW60390   7.775   6.999   6.045
19498SOL    HW160391   7.758   6.909   6.018
19498SOL    HW260392   7.690   7.043   6.040
19499SOL     OW60393   6.320   5.242   6.740
19499SOL    HW160394   6.342   5.257   6.648
19499SOL    HW260395   6.356   5.155   6.759
19500SOL     OW60396   5.447  10.119   4.257
19500SOL    HW160397   5.426  10.037   4.214
19500SOL    HW260398   5.366  10.146   4.300
19501SOL     OW60399   4.881   4.477   2.874
19501SOL    HW160400   4.974   4.491   2.894
19501SOL    HW260401   4.850   4.417   2.942
19502SOL     OW60402   5.689   1.054   2.776
19502SOL    HW160403   5.707   1.141   2.814
19502SOL    HW260404   5.727   1.059   2.688
19503SOL     OW60405   8.604   8.367   6.627
19503SOL    HW160406   8.577   8.447   6.582
19503SOL    HW260407   8.572   8.377   6.716
19504SOL     OW60408   9.896   5.843  10.174
19504SOL    HW160409   9.830   5.826  10.241
19504SOL    HW260410   9.956   5.906  10.213
19505SOL     OW60411   8.519  13.823  11.552
19505SOL    HW160412   8.568  13.890  11.599
19505SOL    HW260413   8.586  13.770  11.508
19506SOL     OW60414   7.649   8.625  13.557
19506SOL    HW160415   7.737   8.662  13.550
19506SOL    HW260416   7.627   8.598  13.467
19507SOL     OW60417   7.162   5.264   6.064
19507SOL    HW160418   7.233   5.327   6.051
19507SOL    HW260419   7.146   5.266   6.159
19508SOL     OW60420   5.171   3.712   8.716
19508SOL    HW160421   5.207   3.780   8.659
19508SOL    HW260422   5.246   3.681   8.767
19509SOL     OW60423   9.584   5.135  13.037
19509SOL    HW160424   9.634   5.191  13.096
19509SOL    HW260425   9.511   5.190  13.008
19510SOL     OW60426  12.432   5.210  10.962
19510SOL    HW160427  12.437   5.271  10.888
19510SOL    HW260428  12.366   5.248  11.020
19511SOL     OW60429  10.881  10.930   1.124
19511SOL    HW160430  10.902  11.004   1.181
19511SOL    HW260431  10.845  10.864   1.182
19512SOL     OW60432   6.365  13.476   6.765
19512SOL    HW160433   6.325  13.431   6.839
19512SOL    HW260434   6.383  13.407   6.701
19513SOL     OW60435   8.821   6.094   6.645
19513SOL    HW160436   8.899   6.145   6.625
19513SOL    HW260437   8.853   6.005   6.658
19514SOL     OW60438   8.856  14.799  12.950
19514SOL    HW160439   8.873  14.824  13.041
19514SOL    HW260440   8.823   0.008  12.908
19515SOL     OW60441   2.745  12.592   9.919
19515SOL    HW160442   2.747  12.515   9.975
19515SOL    HW260443   2.697  12.563   9.841
19516SOL     OW60444   8.960   2.324  11.099
19516SOL    HW160445   8.990   2.250  11.047
19516SOL    HW260446   8.875   2.296  11.134
19517SOL     OW60447   3.282   2.758   1.943
19517SOL    HW160448   3.323   2.732   1.860
19517SOL    HW260449   3.350   2.743   2.009
19518SOL     OW60450   5.067  14.517   7.506
19518SOL    HW160451   5.158  14.487   7.505
19518SOL    HW260452   5.017  14.441   7.476
19519SOL     OW60453   1.044   8.900   4.020
19519SOL    HW160454   1.073   8.982   4.061
19519SOL    HW260455   0.949   8.904   4.026
19520SOL     OW60456   0.478  14.347   8.526
19520SOL    HW160457   0.507  14.435   8.501
19520SOL    HW260458   0.452  14.306   8.443
19521SOL     OW60459   3.995   6.868   7.793
19521SOL    HW160460   4.056   6.804   7.830
19521SOL    HW260461   4.011   6.864   7.699
19522SOL     OW60462   2.532   6.490   2.245
19522SOL    HW160463   2.483   6.502   2.164
19522SOL    HW260464   2.516   6.399   2.269
19523SOL     OW60465   8.336   7.521   7.722
19523SOL    HW160466   8.332   7.612   7.691
19523SOL    HW260467   8.425   7.493   7.701
19524SOL     OW60468  11.592   6.064  12.926
19524SOL    HW160469  11.538   6.116  12.867
19524SOL    HW260470  11.539   5.986  12.944
19525SOL     OW60471   0.182  14.206  13.112
19525SOL    HW160472   0.244  14.268  13.074
19525SOL    HW260473   0.134  14.258  13.177
19526SOL     OW60474  11.817   7.680  12.656
19526SOL    HW160475  11.899   7.636  12.677
19526SOL    HW260476  11.803   7.664  12.563
19527SOL     OW60477  11.288  11.542   7.394
19527SOL    HW160478  11.340  11.615   7.426
19527SOL    HW260479  11.242  11.510   7.471
19528SOL     OW60480   2.531   2.698  12.091
19528SOL    HW160481   2.438   2.678  12.086
19528SOL    HW260482   2.542   2.779  12.042
19529SOL     OW60483   1.407   2.795   7.446
19529SOL    HW160484   1.440   2.822   7.532
19529SOL    HW260485   1.348   2.722   7.465
19530SOL     OW60486  12.240   4.302  11.759
19530SOL    HW160487  12.233   4.247  11.681
19530SOL    HW260488  12.272   4.243  11.827
19531SOL     OW60489  10.188   9.283   8.590
19531SOL    HW160490  10.125   9.315   8.655
19531SOL    HW260491  10.248   9.228   8.640
19532SOL     OW60492   3.583   4.421   6.873
19532SOL    HW160493   3.607   4.503   6.917
19532SOL    HW260494   3.492   4.435   6.845
19533SOL     OW60495   5.200   4.312   4.489
19533SOL    HW160496   5.283   4.286   4.450
19533SOL    HW260497   5.135   4.299   4.420
19534SOL     OW60498   7.429   9.578   0.742
19534SOL    HW160499   7.370   9.644   0.706
19534SOL    HW260500   7.401   9.496   0.700
19535SOL     OW60501   1.022   5.241   9.625
19535SOL    HW160502   1.099   5.239   9.567
19535SOL    HW260503   0.974   5.320   9.599
19536SOL     OW60504  13.000   4.498   1.279
19536SOL    HW160505  13.012   4.505   1.373
19536SOL    HW260506  12.978   4.405   1.264
19537SOL     OW60507  13.811   6.719   4.963
19537SOL    HW160508  13.879   6.750   4.904
19537SOL    HW260509  13.760   6.798   4.985
19538SOL     OW60510   0.241   3.091   8.584
19538SOL    HW160511   0.157   3.106   8.542
19538SOL    HW260512   0.250   3.164   8.646
19539SOL     OW60513  12.608   6.128   9.938
19539SOL    HW160514  12.522   6.127   9.895
19539SOL    HW260515  12.625   6.220   9.955
19540SOL     OW60516   8.742  10.825  13.689
19540SOL    HW160517   8.815  10.804  13.631
19540SOL    HW260518   8.775  10.804  13.777
19541SOL     OW60519   5.094  10.661   5.075
19541SOL    HW160520   5.099  10.648   4.980
19541SOL    HW260521   5.110  10.754   5.087
19542SOL     OW60522  14.579   3.296   1.246
19542SOL    HW160523  14.628   3.337   1.175
19542SOL    HW260524  14.643   3.284   1.316
19543SOL     OW60525  14.182  11.033  10.219
19543SOL    HW160526  14.098  11.064  10.187
19543SOL    HW260527  14.185  11.060  10.311
19544SOL     OW60528   4.627   2.165  13.652
19544SOL    HW160529   4.658   2.243  13.699
19544SOL    HW260530   4.682   2.161  13.574
19545SOL     OW60531   8.111   9.091   4.051
19545SOL    HW160532   8.185   9.039   4.082
19545SOL    HW260533   8.151   9.164   4.004
19546SOL     OW60534   7.145  11.930   0.936
19546SOL    HW160535   7.071  11.932   0.875
19546SOL    HW260536   7.113  11.978   1.013
19547SOL     OW60537   3.678   6.184   8.294
19547SOL    HW160538   3.748   6.140   8.341
19547SOL    HW260539   3.719   6.219   8.215
19548SOL     OW60540   6.817   1.615   2.416
19548SOL    HW160541   6.811   1.685   2.481
19548SOL    HW260542   6.910   1.611   2.393
19549SOL     OW60543  11.908   2.770   3.131
19549SOL    HW160544  11.827   2.822   3.129
19549SOL    HW260545  11.949   2.793   3.215
19550SOL     OW60546   2.817   7.047   8.542
19550SOL    HW160547   2.835   6.981   8.475
19550SOL    HW260548   2.895   7.047   8.598
19551SOL     OW60549   0.659   9.485   9.989
19551SOL    HW160550   0.683   9.394  10.010
19551SOL    HW260551   0.729   9.514   9.930
19552SOL     OW60552  13.674  12.050  14.404
19552SOL    HW160553  13.684  12.126  14.346
19552SOL    HW260554  13.745  12.058  14.467
19553SOL     OW60555   2.900   3.171   6.404
19553SOL    HW160556   2.927   3.249   6.356
19553SOL    HW260557   2.977   3.113   6.403
19554SOL     OW60558   7.593   8.527  10.990
19554SOL    HW160559   7.532   8.593  10.957
19554SOL    HW260560   7.670   8.577  11.017
19555SOL     OW60561  11.020  14.154   6.646
19555SOL    HW160562  11.023  14.239   6.691
19555SOL    HW260563  10.985  14.094   6.712
19556SOL     OW60564   2.538   7.308   6.613
19556SOL    HW160565   2.626   7.272   6.607
19556SOL    HW260566   2.481   7.240   6.577
19557SOL     OW60567   0.135  10.893  10.375
19557SOL    HW160568   0.183  10.952  10.435
19557SOL    HW260569   0.048  10.933  10.368
19558SOL     OW60570  13.136   8.834  12.371
19558SOL    HW160571  13.108   8.840  12.462
19558SOL    HW260572  13.163   8.923  12.348
19559SOL     OW60573   6.554  14.666   8.585
19559SOL    HW160574   6.474  14.712   8.613
19559SOL    HW260575   6.533  14.635   8.497
19560SOL     OW60576   7.812  12.948   2.990
19560SOL    HW160577   7.821  13.043   3.001
19560SOL    HW260578   7.804  12.914   3.079
19561SOL     OW60579   0.152   5.920   1.398
19561SOL    HW160580   0.095   5.940   1.473
19561SOL    HW260581   0.128   5.986   1.332
19562SOL     OW60582   6.913   4.020   2.696
19562SOL    HW160583   6.962   4.039   2.615
19562SOL    HW260584   6.846   4.089   2.700
19563SOL     OW60585  10.174  14.396   6.375
19563SOL    HW160586  10.243  14.452   6.340
19563SOL    HW260587  10.093  14.430   6.335
19564SOL     OW60588   5.135   1.310   2.743
19564SOL    HW160589   5.041   1.298   2.734
19564SOL    HW260590   5.173   1.224   2.723
19565SOL     OW60591  12.158   4.952   7.552
19565SOL    HW160592  12.102   5.001   7.612
19565SOL    HW260593  12.227   5.013   7.528
19566SOL     OW60594  14.090  12.373   8.734
19566SOL    HW160595  14.009  12.375   8.785
19566SOL    HW260596  14.159  12.390   8.799
19567SOL     OW60597   1.456  11.606   6.082
19567SOL    HW160598   1.533  11.569   6.126
19567SOL    HW260599   1.447  11.694   6.119
19568SOL     OW60600   1.291   3.153   1.470
19568SOL    HW160601   1.379   3.181   1.492
19568SOL    HW260602   1.298   3.119   1.380
19569SOL     OW60603  13.524   9.507  11.844
19569SOL    HW160604  13.598   9.522  11.785
19569SOL    HW260605  13.505   9.413  11.834
19570SOL     OW60606  10.511  10.894  11.123
19570SOL    HW160607  10.528  10.802  11.143
19570SOL    HW260608  10.440  10.892  11.058
19571SOL     OW60609   3.792   3.703   1.034
19571SOL    HW160610   3.724   3.639   1.056
19571SOL    HW260611   3.875   3.657   1.049
19572SOL     OW60612   5.270   6.032  10.329
19572SOL    HW160613   5.258   6.003  10.238
19572SOL    HW260614   5.189   6.009  10.373
19573SOL     OW60615   1.064   9.505  10.169
19573SOL    HW160616   1.087   9.432  10.226
19573SOL    HW260617   0.974   9.526  10.192
19574SOL     OW60618   8.649   9.445  12.588
19574SOL    HW160619   8.583   9.513  12.570
19574SOL    HW260620   8.721   9.466  12.529
19575SOL     OW60621   0.120   8.662  10.461
19575SOL    HW160622   0.171   8.703  10.391
19575SOL    HW260623   0.045   8.720  10.473
19576SOL     OW60624  14.055   1.147  12.816
19576SOL    HW160625  14.071   1.214  12.882
19576SOL    HW260626  13.977   1.176  12.770
19577SOL     OW60627   2.099   7.157   2.595
19577SOL    HW160628   2.175   7.215   2.595
19577SOL    HW260629   2.129   7.077   2.552
19578SOL     OW60630   5.261   4.374   3.867
19578SOL    HW160631   5.251   4.419   3.782
19578SOL    HW260632   5.354   4.353   3.871
19579SOL     OW60633   5.168   8.262  11.948
19579SOL    HW160634   5.231   8.294  12.013
19579SOL    HW260635   5.097   8.224  12.001
19580SOL     OW60636  11.106  13.046  10.063
19580SOL    HW160637  11.124  13.076   9.974
19580SOL    HW260638  11.034  12.984  10.054
19581SOL     OW60639   5.306   4.685   3.842
19581SOL    HW160640   5.323   4.738   3.919
19581SOL    HW260641   5.328   4.595   3.868
19582SOL     OW60642   1.403  12.871   8.047
19582SOL    HW160643   1.315  12.836   8.056
19582SOL    HW260644   1.428  12.898   8.135
19583SOL     OW60645   5.416   9.471   1.967
19583SOL    HW160646   5.434   9.429   2.051
19583SOL    HW260647   5.502   9.500   1.935
19584SOL     OW60648   0.636   9.685   0.631
19584SOL    HW160649   0.713   9.742   0.631
19584SOL    HW260650   0.588   9.709   0.551
19585SOL     OW60651  12.663   4.793   1.914
19585SOL    HW160652  12.611   4.721   1.877
19585SOL    HW260653  12.682   4.849   1.839
19586SOL     OW60654  12.353  13.524   6.932
19586SOL    HW160655  12.446  13.517   6.954
19586SOL    HW260656  12.307  13.493   7.010
19587SOL     OW60657   8.248   6.838   4.170
19587SOL    HW160658   8.292   6.920   4.149
19587SOL    HW260659   8.160   6.865   4.198
19588SOL     OW60660   2.924  12.440   8.480
19588SOL    HW160661   3.011  12.405   8.460
19588SOL    HW260662   2.914  12.515   8.421
19589SOL     OW60663   8.178   0.730   6.114
19589SOL    HW160664   8.144   0.816   6.091
19589SOL    HW260665   8.233   0.745   6.191
19590SOL     OW60666  12.741  10.945   7.264
19590SOL    HW160667  12.766  10.983   7.180
19590SOL    HW260668  12.818  10.957   7.320
19591SOL     OW60669  13.969   6.002  14.209
19591SOL    HW160670  13.942   5.939  14.276
19591SOL    HW260671  13.888   6.043  14.181
19592SOL     OW60672  12.623  11.413   5.653
19592SOL    HW160673  12.714  11.395   5.629
19592SOL    HW260674  12.599  11.341   5.711
19593SOL     OW60675   3.440   3.013  11.264
19593SOL    HW160676   3.522   3.061  11.261
19593SOL    HW260677   3.465   2.922  11.281
19594SOL     OW60678   9.337   0.398   3.280
19594SOL    HW160679   9.263   0.346   3.311
19594SOL    HW260680   9.400   0.334   3.247
19595SOL     OW60681   5.772   4.037   5.820
19595SOL    HW160682   5.857   4.017   5.781
19595SOL    HW260683   5.708   4.010   5.754
19596SOL     OW60684   5.684   7.130   0.551
19596SOL    HW160685   5.670   7.200   0.615
19596SOL    HW260686   5.631   7.057   0.583
19597SOL     OW60687  10.410   1.588   3.796
19597SOL    HW160688  10.459   1.506   3.791
19597SOL    HW260689  10.389   1.609   3.705
19598SOL     OW60690  12.288  12.407   5.236
19598SOL    HW160691  12.263  12.316   5.224
19598SOL    HW260692  12.282  12.422   5.330
19599SOL     OW60693   2.106   2.249   0.779
19599SOL    HW160694   2.146   2.253   0.866
19599SOL    HW260695   2.031   2.190   0.790
19600SOL     OW60696   5.972   0.838  14.844
19600SOL    HW160697   6.043   0.889   0.013
19600SOL    HW260698   5.918   0.812   0.049
19601SOL     OW60699   0.812   5.891  12.968
19601SOL    HW160700   0.723   5.895  13.004
19601SOL    HW260701   0.809   5.820  12.904
19602SOL     OW60702   2.140   4.647  13.849
19602SOL    HW160703   2.231   4.676  13.846
19602SOL    HW260704   2.146   4.552  13.861
19603SOL     OW60705   5.642  12.176   5.492
19603SOL    HW160706   5.602  12.197   5.577
19603SOL    HW260707   5.707  12.245   5.479
19604SOL     OW60708  12.960  13.176  12.226
19604SOL    HW160709  12.924  13.102  12.177
19604SOL    HW260710  12.888  13.237  12.235
19605SOL     OW60711  11.243   6.877   2.519
19605SOL    HW160712  11.305   6.899   2.450
19605SOL    HW260713  11.158   6.877   2.476
19606SOL     OW60714   0.442   0.700   5.254
19606SOL    HW160715   0.431   0.606   5.272
19606SOL    HW260716   0.536   0.711   5.241
19607SOL     OW60717   2.624   9.801  12.548
19607SOL    HW160718   2.563   9.834  12.615
19607SOL    HW260719   2.568   9.757  12.485
19608SOL     OW60720   1.746   9.879  14.282
19608SOL    HW160721   1.827   9.923  14.255
19608SOL    HW260722   1.687   9.889  14.207
19609SOL     OW60723   3.114   2.051   3.150
19609SOL    HW160724   3.173   2.090   3.213
19609SOL    HW260725   3.170   1.993   3.097
19610SOL     OW60726  11.833  13.293   7.591
19610SOL    HW160727  11.770  13.304   7.663
19610SOL    HW260728  11.858  13.200   7.595
19611SOL     OW60729  14.419  11.108   1.501
19611SOL    HW160730  14.492  11.060   1.539
19611SOL    HW260731  14.461  11.178   1.450
19612SOL     OW60732   6.242   1.129   6.548
19612SOL    HW160733   6.259   1.201   6.609
19612SOL    HW260734   6.296   1.150   6.472
19613SOL     OW60735  10.495   1.164  14.081
19613SOL    HW160736  10.474   1.097  14.017
19613SOL    HW260737  10.546   1.118  14.148
19614SOL     OW60738   4.505   9.396  13.910
19614SOL    HW160739   4.555   9.421  13.987
19614SOL    HW260740   4.414   9.392  13.940
19615SOL     OW60741   8.097   5.758  12.912
19615SOL    HW160742   8.137   5.784  12.995
19615SOL    HW260743   8.003   5.774  12.924
19616SOL     OW60744  13.121  14.057   5.703
19616SOL    HW160745  13.028  14.039   5.710
19616SOL    HW260746  13.135  14.078   5.610
19617SOL     OW60747   2.758   0.536   2.474
19617SOL    HW160748   2.846   0.535   2.511
19617SOL    HW260749   2.712   0.603   2.524
19618SOL     OW60750  12.179   0.368   3.192
19618SOL    HW160751  12.247   0.427   3.225
19618SOL    HW260752  12.175   0.387   3.098
19619SOL     OW60753   1.806   0.842   3.205
19619SOL    HW160754   1.726   0.840   3.152
19619SOL    HW260755   1.792   0.914   3.267
19620SOL     OW60756   1.955   9.725  13.689
19620SOL    HW160757   1.923   9.808  13.654
19620SOL    HW260758   1.903   9.658  13.643
19621SOL     OW60759  10.441   1.157   5.979
19621SOL    HW160760  10.402   1.071   5.969
19621SOL    HW260761  10.400   1.193   6.057
19622SOL     OW60762   0.415   3.100   4.469
19622SOL    HW160763   0.422   3.186   4.428
19622SOL    HW260764   0.481   3.102   4.539
19623SOL     OW60765   9.844  12.301  14.144
19623SOL    HW160766   9.852  12.349  14.227
19623SOL    HW260767   9.822  12.368  14.079
19624SOL     OW60768   6.970  14.173   9.309
19624SOL    HW160769   6.953  14.197   9.218
19624SOL    HW260770   7.023  14.245   9.343
19625SOL     OW60771  14.254   2.759   5.435
19625SOL    HW160772  14.160   2.748   5.426
19625SOL    HW260773  14.292   2.695   5.375
19626SOL     OW60774   4.910   0.209   9.914
19626SOL    HW160775   5.003   0.233   9.911
19626SOL    HW260776   4.906   0.126   9.867
19627SOL     OW60777  13.108  12.650   9.975
19627SOL    HW160778  13.198  12.683   9.986
19627SOL    HW260779  13.115  12.557   9.996
19628SOL     OW60780   8.009   4.150  12.245
19628SOL    HW160781   7.993   4.112  12.332
19628SOL    HW260782   7.928   4.198  12.226
19629SOL     OW60783  10.160  14.021   0.371
19629SOL    HW160784  10.110  13.944   0.397
19629SOL    HW260785  10.179  14.006   0.278
19630SOL     OW60786  12.747   0.087   5.271
19630SOL    HW160787  12.801   0.154   5.312
19630SOL    HW260788  12.768   0.093   5.178
19631SOL     OW60789   5.621  10.254  13.464
19631SOL    HW160790   5.612  10.181  13.525
19631SOL    HW260791   5.599  10.332  13.516
19632SOL     OW60792   6.860   5.035  13.316
19632SOL    HW160793   6.848   4.943  13.339
19632SOL    HW260794   6.950   5.041  13.287
19633SOL     OW60795   2.285  10.084  12.653
19633SOL    HW160796   2.274  10.048  12.565
19633SOL    HW260797   2.306  10.009  12.708
19634SOL     OW60798   9.401  14.160   2.483
19634SOL    HW160799   9.447  14.244   2.482
19634SOL    HW260800   9.470  14.095   2.492
19635SOL     OW60801  13.828   9.779   0.398
19635SOL    HW160802  13.885   9.787   0.320
19635SOL    HW260803  13.746   9.744   0.364
19636SOL     OW60804   6.186   1.657  10.844
19636SOL    HW160805   6.181   1.653  10.940
19636SOL    HW260806   6.277   1.678  10.826
19637SOL     OW60807   5.648   3.986   2.061
19637SOL    HW160808   5.568   3.957   2.017
19637SOL    HW260809   5.672   3.912   2.117
19638SOL     OW60810   9.721  11.664   5.158
19638SOL    HW160811   9.638  11.621   5.139
19638SOL    HW260812   9.710  11.753   5.124
19639SOL     OW60813  11.644   3.454   0.924
19639SOL    HW160814  11.571   3.459   0.986
19639SOL    HW260815  11.706   3.520   0.955
19640SOL     OW60816   7.946   8.332   3.067
19640SOL    HW160817   7.861   8.292   3.045
19640SOL    HW260818   7.948   8.332   3.163
19641SOL     OW60819   5.445   8.095   2.026
19641SOL    HW160820   5.354   8.068   2.013
19641SOL    HW260821   5.483   8.094   1.938
19642SOL     OW60822   5.639   0.286   9.884
19642SOL    HW160823   5.615   0.317   9.797
19642SOL    HW260824   5.689   0.359   9.922
19643SOL     OW60825  10.621  10.507   4.387
19643SOL    HW160826  10.584  10.424   4.416
19643SOL    HW260827  10.705  10.484   4.348
19644SOL     OW60828  10.081   7.151   6.041
19644SOL    HW160829  10.048   7.075   5.994
19644SOL    HW260830  10.063   7.131   6.133
19645SOL     OW60831  13.137   8.941  13.812
19645SOL    HW160832  13.053   8.952  13.856
19645SOL    HW260833  13.147   9.021  13.760
19646SOL     OW60834   4.261  11.322   0.382
19646SOL    HW160835   4.235  11.373   0.459
19646SOL    HW260836   4.204  11.245   0.383
19647SOL     OW60837   3.296   2.543   4.463
19647SOL    HW160838   3.342   2.530   4.546
19647SOL    HW260839   3.225   2.480   4.465
19648SOL     OW60840  14.563   0.020   5.874
19648SOL    HW160841  14.599   0.075   5.943
19648SOL    HW260842  14.569   0.073   5.795
19649SOL     OW60843   2.391   2.281   6.401
19649SOL    HW160844   2.339   2.360   6.391
19649SOL    HW260845   2.336   2.211   6.366
19650SOL     OW60846  14.663  10.265   4.545
19650SOL    HW160847  14.674  10.196   4.610
19650SOL    HW260848  14.614  10.334   4.590
19651SOL     OW60849   5.195   8.560   0.799
19651SOL    HW160850   5.181   8.540   0.891
19651SOL    HW260851   5.256   8.493   0.768
19652SOL     OW60852  12.970  14.616  13.863
19652SOL    HW160853  12.963  14.708  13.890
19652SOL    HW260854  13.050  14.585  13.905
19653SOL     OW60855   0.726   9.138   4.647
19653SOL    HW160856   0.810   9.161   4.687
19653SOL    HW260857   0.661   9.168   4.710
19654SOL     OW60858  10.348   4.004  12.006
19654SOL    HW160859  10.268   4.046  12.037
19654SOL    HW260860  10.418   4.053  12.049
19655SOL     OW60861   9.641   8.590   7.271
19655SOL    HW160862   9.552   8.585   7.306
19655SOL    HW260863   9.677   8.502   7.284
19656SOL     OW60864   6.946  13.123  10.035
19656SOL    HW160865   6.995  13.189   9.986
19656SOL    HW260866   6.952  13.152  10.126
19657SOL     OW60867   6.317  11.047   6.649
19657SOL    HW160868   6.337  11.016   6.738
19657SOL    HW260869   6.350  10.977   6.592
19658SOL     OW60870   8.228   6.347   6.354
19658SOL    HW160871   8.154   6.383   6.404
19658SOL    HW260872   8.269   6.285   6.413
19659SOL     OW60873   9.256  13.070   2.298
19659SOL    HW160874   9.161  13.080   2.299
19659SOL    HW260875   9.280  13.053   2.389
19660SOL     OW60876   0.182   6.150   9.233
19660SOL    HW160877   0.268   6.131   9.194
19660SOL    HW260878   0.137   6.065   9.234
19661SOL     OW60879   9.819  10.682   2.471
19661SOL    HW160880   9.828  10.770   2.436
19661SOL    HW260881   9.903  10.640   2.453
19662SOL     OW60882  13.417   0.552  14.574
19662SOL    HW160883  13.462   0.534  14.491
19662SOL    HW260884  13.398   0.646  14.570
19663SOL     OW60885   4.611  11.595   9.263
19663SOL    HW160886   4.643  11.506   9.277
19663SOL    HW260887   4.689  11.650   9.272
19664SOL     OW60888   1.643   7.709   7.247
19664SOL    HW160889   1.650   7.618   7.272
19664SOL    HW260890   1.662   7.710   7.153
19665SOL     OW60891   7.118   3.430   9.998
19665SOL    HW160892   7.085   3.456   9.912
19665SOL    HW260893   7.205   3.395   9.980
19666SOL     OW60894  13.070   0.083  13.638
19666SOL    HW160895  13.102   0.164  13.678
19666SOL    HW260896  12.995   0.111  13.585
19667SOL     OW60897  12.444  13.317  10.536
19667SOL    HW160898  12.451  13.384  10.468
19667SOL    HW260899  12.461  13.234  10.491
19668SOL     OW60900   0.111   9.722   0.422
19668SOL    HW160901   0.159   9.673   0.490
19668SOL    HW260902   0.035   9.667   0.402
19669SOL     OW60903   2.681  13.434   9.795
19669SOL    HW160904   2.691  13.524   9.826
19669SOL    HW260905   2.590  13.412   9.816
19670SOL     OW60906   3.562   7.775   5.261
19670SOL    HW160907   3.530   7.691   5.228
19670SOL    HW260908   3.657   7.765   5.263
19671SOL     OW60909   1.547   8.067  10.235
19671SOL    HW160910   1.462   8.083  10.276
19671SOL    HW260911   1.595   8.016  10.299
19672SOL     OW60912   0.745   3.624   1.717
19672SOL    HW160913   0.781   3.535   1.719
19672SOL    HW260914   0.788   3.665   1.642
19673SOL     OW60915   5.454  10.200   3.361
19673SOL    HW160916   5.480  10.110   3.379
19673SOL    HW260917   5.536  10.246   3.342
19674SOL     OW60918   8.906   4.262   5.364
19674SOL    HW160919   8.895   4.209   5.285
19674SOL    HW260920   8.994   4.242   5.395
19675SOL     OW60921   8.908  13.279   3.541
19675SOL    HW160922   8.990  13.291   3.589
19675SOL    HW260923   8.937  13.250   3.454
19676SOL     OW60924   3.743  12.309  10.643
19676SOL    HW160925   3.662  12.272  10.607
19676SOL    HW260926   3.714  12.379  10.702
19677SOL     OW60927  12.311   7.840  12.829
19677SOL    HW160928  12.244   7.804  12.888
19677SOL    HW260929  12.288   7.932  12.820
19678SOL     OW60930   6.495   2.249   8.022
19678SOL    HW160931   6.567   2.249   8.085
19678SOL    HW260932   6.536   2.232   7.937
19679SOL     OW60933   7.880   6.971   8.645
19679SOL    HW160934   7.923   7.014   8.718
19679SOL    HW260935   7.896   6.878   8.658
19680SOL     OW60936   5.822   3.543  12.089
19680SOL    HW160937   5.886   3.536  12.019
19680SOL    HW260938   5.738   3.529  12.047
19681SOL     OW60939   1.648  10.625   6.271
19681SOL    HW160940   1.647  10.592   6.181
19681SOL    HW260941   1.736  10.660   6.283
19682SOL     OW60942   0.227   7.556   7.539
19682SOL    HW160943   0.217   7.550   7.444
19682SOL    HW260944   0.284   7.631   7.553
19683SOL     OW60945   4.975   8.853  13.873
19683SOL    HW160946   4.880   8.848  13.871
19683SOL    HW260947   5.003   8.811  13.792
19684SOL     OW60948  13.790  14.374  12.032
19684SOL    HW160949  13.825  14.417  11.954
19684SOL    HW260950  13.837  14.290  12.036
19685SOL     OW60951   4.777   1.587   9.702
19685SOL    HW160952   4.769   1.681   9.684
19685SOL    HW260953   4.869   1.575   9.726
19686SOL     OW60954   9.612   5.194   3.724
19686SOL    HW160955   9.532   5.156   3.761
19686SOL    HW260956   9.683   5.158   3.778
19687SOL     OW60957   5.326  12.159  12.939
19687SOL    HW160958   5.375  12.238  12.961
19687SOL    HW260959   5.387  12.106  12.888
19688SOL     OW60960  12.782  11.140  13.832
19688SOL    HW160961  12.707  11.082  13.851
19688SOL    HW260962  12.789  11.138  13.736
19689SOL     OW60963   9.346   1.640   0.911
19689SOL    HW160964   9.258   1.608   0.930
19689SOL    HW260965   9.400   1.605   0.981
19690SOL     OW60966   4.703   2.615   8.171
19690SOL    HW160967   4.793   2.614   8.204
19690SOL    HW260968   4.692   2.529   8.130
19691SOL     OW60969   5.209   5.961   2.771
19691SOL    HW160970   5.271   5.941   2.702
19691SOL    HW260971   5.249   6.034   2.818
19692SOL     OW60972  13.589  12.706  13.346
19692SOL    HW160973  13.576  12.686  13.438
19692SOL    HW260974  13.558  12.796  13.336
19693SOL     OW60975   3.147  11.849   7.672
19693SOL    HW160976   3.164  11.912   7.742
19693SOL    HW260977   3.232  11.808   7.656
19694SOL     OW60978   9.033   4.295   4.522
19694SOL    HW160979   8.981   4.338   4.453
19694SOL    HW260980   9.069   4.217   4.479
19695SOL     OW60981   5.275   5.693  11.341
19695SOL    HW160982   5.185   5.661  11.346
19695SOL    HW260983   5.292   5.701  11.247
19696SOL     OW60984   9.946   6.123  14.714
19696SOL    HW160985   9.971   6.089  14.800
19696SOL    HW260986   9.886   6.057  14.679
19697SOL     OW60987   6.743   7.258  11.098
19697SOL    HW160988   6.649   7.242  11.107
19697SOL    HW260989   6.764   7.227  11.010
19698SOL     OW60990   7.608  12.800   7.387
19698SOL    HW160991   7.620  12.766   7.476
19698SOL    HW260992   7.697  12.817   7.355
19699SOL     OW60993  14.545  13.734   6.203
19699SOL    HW160994  14.480  13.687   6.151
19699SOL    HW260995  14.622  13.741   6.145
19700SOL     OW60996   4.231  12.609   4.612
19700SOL    HW160997   4.140  12.582   4.601
19700SOL    HW260998   4.229  12.666   4.689
19701SOL     OW60999   1.021   8.026   8.920
19701SOL    HW161000   1.014   7.991   9.008
19701SOL    HW261001   1.018   7.950   8.863
19702SOL     OW61002   2.858   5.184  11.278
19702SOL    HW161003   2.908   5.265  11.274
19702SOL    HW261004   2.920   5.116  11.253
19703SOL     OW61005  10.170  14.628   2.978
19703SOL    HW161006  10.111  14.678   3.034
19703SOL    HW261007  10.194  14.689   2.909
19704SOL     OW61008   7.356  12.694  10.338
19704SOL    HW161009   7.268  12.660  10.320
19704SOL    HW261010   7.413  12.617  10.337
19705SOL     OW61011   8.626   3.175   6.853
19705SOL    HW161012   8.706   3.176   6.907
19705SOL    HW261013   8.634   3.253   6.798
19706SOL     OW61014  13.603   6.461   4.541
19706SOL    HW161015  13.662   6.447   4.467
19706SOL    HW261016  13.540   6.527   4.509
19707SOL     OW61017   0.675  12.623   6.754
19707SOL    HW161018   0.648  12.679   6.826
19707SOL    HW261019   0.769  12.608   6.769
19708SOL     OW61020   2.419   4.150   8.955
19708SOL    HW161021   2.421   4.244   8.971
19708SOL    HW261022   2.449   4.111   9.037
19709SOL     OW61023   8.398   7.854  11.081
19709SOL    HW161024   8.380   7.788  11.149
19709SOL    HW261025   8.328   7.918  11.090
19710SOL     OW61026   9.527   4.391   7.024
19710SOL    HW161027   9.562   4.428   7.105
19710SOL    HW261028   9.442   4.433   7.012
19711SOL     OW61029   0.808   3.939   7.710
19711SOL    HW161030   0.836   4.030   7.707
19711SOL    HW261031   0.735   3.933   7.649
19712SOL     OW61032   0.304   9.500   2.678
19712SOL    HW161033   0.373   9.438   2.703
19712SOL    HW261034   0.223   9.454   2.696
19713SOL     OW61035  10.596  11.269  11.629
19713SOL    HW161036  10.690  11.285  11.624
19713SOL    HW261037  10.585  11.211  11.705
19714SOL     OW61038   1.218   3.491   4.484
19714SOL    HW161039   1.207   3.450   4.570
19714SOL    HW261040   1.214   3.418   4.423
19715SOL     OW61041  13.519   3.861   3.860
19715SOL    HW161042  13.594   3.899   3.815
19715SOL    HW261043  13.488   3.791   3.802
19716SOL     OW61044  10.735   3.438  11.075
19716SOL    HW161045  10.719   3.352  11.112
19716SOL    HW261046  10.769   3.490  11.148
19717SOL     OW61047   1.757  13.197   0.823
19717SOL    HW161048   1.795  13.175   0.738
19717SOL    HW261049   1.821  13.256   0.863
19718SOL     OW61050  10.826   9.791   5.080
19718SOL    HW161051  10.808   9.884   5.093
19718SOL    HW261052  10.901   9.773   5.137
19719SOL     OW61053   2.911  11.901  12.148
19719SOL    HW161054   2.879  11.865  12.065
19719SOL    HW261055   2.977  11.838  12.177
19720SOL     OW61056   4.182   1.033  10.026
19720SOL    HW161057   4.201   0.970   9.957
19720SOL    HW261058   4.127   1.099   9.985
19721SOL     OW61059   7.126   6.269  13.778
19721SOL    HW161060   7.124   6.317  13.861
19721SOL    HW261061   7.093   6.332  13.714
19722SOL     OW61062   2.391   0.447   7.874
19722SOL    HW161063   2.412   0.499   7.951
19722SOL    HW261064   2.469   0.454   7.819
19723SOL     OW61065   8.947   5.948   2.099
19723SOL    HW161066   9.008   5.875   2.109
19723SOL    HW261067   8.962   6.002   2.176
19724SOL     OW61068  12.813   4.532   9.052
19724SOL    HW161069  12.818   4.438   9.036
19724SOL    HW261070  12.897   4.554   9.092
19725SOL     OW61071   7.189   4.846   0.168
19725SOL    HW161072   7.115   4.801   0.209
19725SOL    HW261073   7.266   4.815   0.216
19726SOL     OW61074   3.707  11.136   3.204
19726SOL    HW161075   3.761  11.070   3.160
19726SOL    HW261076   3.629  11.144   3.149
19727SOL     OW61077  13.416   7.211  14.044
19727SOL    HW161078  13.503   7.172  14.037
19727SOL    HW261079  13.386   7.188  14.132
19728SOL     OW61080  14.827   3.003   0.355
19728SOL    HW161081   0.020   2.987   0.425
19728SOL    HW261082  14.759   3.057   0.395
19729SOL     OW61083   8.455   1.857  14.399
19729SOL    HW161084   8.521   1.926  14.399
19729SOL    HW261085   8.387   1.890  14.340
19730SOL     OW61086   9.220  10.343  12.203
19730SOL    HW161087   9.169  10.396  12.264
19730SOL    HW261088   9.170  10.262  12.195
19731SOL     OW61089   5.459   2.929   7.819
19731SOL    HW161090   5.490   2.852   7.867
19731SOL    HW261091   5.456   2.999   7.885
19732SOL     OW61092   1.903   0.298  13.962
19732SOL    HW161093   1.807   0.293  13.954
19732SOL    HW261094   1.918   0.309  14.055
19733SOL     OW61095   4.420   6.393   4.487
19733SOL    HW161096   4.432   6.404   4.582
19733SOL    HW261097   4.373   6.310   4.479
19734SOL     OW61098   1.542   4.077   3.894
19734SOL    HW161099   1.530   4.170   3.876
19734SOL    HW261100   1.588   4.075   3.978
19735SOL     OW61101  11.346   2.060  10.419
19735SOL    HW161102  11.333   2.082  10.511
19735SOL    HW261103  11.363   1.966  10.419
19736SOL     OW61104   9.067   6.768   7.765
19736SOL    HW161105   9.044   6.675   7.761
19736SOL    HW261106   9.122   6.775   7.843
19737SOL     OW61107   8.070   8.546  13.855
19737SOL    HW161108   8.007   8.568  13.924
19737SOL    HW261109   8.089   8.630  13.813
19738SOL     OW61110   8.331  11.031   2.594
19738SOL    HW161111   8.378  10.981   2.527
19738SOL    HW261112   8.373  11.118   2.593
19739SOL     OW61113   9.088   9.700   3.671
19739SOL    HW161114   9.154   9.671   3.609
19739SOL    HW261115   9.137   9.744   3.740
19740SOL     OW61116   6.390  14.314   7.799
19740SOL    HW161117   6.429  14.378   7.859
19740SOL    HW261118   6.346  14.367   7.732
19741SOL     OW61119   6.040   8.379   6.086
19741SOL    HW161120   6.096   8.385   6.164
19741SOL    HW261121   5.979   8.308   6.105
19742SOL     OW61122   3.658  12.362   8.122
19742SOL    HW161123   3.722  12.423   8.157
19742SOL    HW261124   3.602  12.416   8.065
19743SOL     OW61125   7.133  14.510   5.988
19743SOL    HW161126   7.136  14.560   5.907
19743SOL    HW261127   7.196  14.439   5.976
19744SOL     OW61128  12.500  11.113  10.032
19744SOL    HW161129  12.411  11.138  10.007
19744SOL    HW261130  12.533  11.187  10.082
19745SOL     OW61131   9.307  12.056  13.084
19745SOL    HW161132   9.393  12.095  13.063
19745SOL    HW261133   9.316  12.026  13.174
19746SOL     OW61134   2.372  13.375   5.891
19746SOL    HW161135   2.286  13.415   5.900
19746SOL    HW261136   2.360  13.285   5.921
19747SOL     OW61137   8.584  14.763  13.641
19747SOL    HW161138   8.602  14.698  13.709
19747SOL    HW261139   8.663  14.764  13.587
19748SOL     OW61140   4.406   1.350  10.417
19748SOL    HW161141   4.460   1.272  10.400
19748SOL    HW261142   4.356   1.362  10.336
19749SOL     OW61143  11.606  11.572   9.964
19749SOL    HW161144  11.578  11.577  10.055
19749SOL    HW261145  11.627  11.480   9.950
19750SOL     OW61146  13.404  10.868   4.050
19750SOL    HW161147  13.322  10.822   4.069
19750SOL    HW261148  13.387  10.959   4.076
19751SOL     OW61149   9.551  11.030  11.903
19751SOL    HW161150   9.527  10.954  11.850
19751SOL    HW261151   9.609  10.995  11.971
19752SOL     OW61152   7.438   8.065  11.074
19752SOL    HW161153   7.466   8.133  11.013
19752SOL    HW261154   7.519   8.020  11.098
19753SOL     OW61155   6.307  14.003   5.489
19753SOL    HW161156   6.233  13.961   5.533
19753SOL    HW261157   6.332  13.941   5.420
19754SOL     OW61158   3.904  13.398   7.491
19754SOL    HW161159   3.839  13.333   7.462
19754SOL    HW261160   3.853  13.463   7.538
19755SOL     OW61161  12.590  14.352   2.454
19755SOL    HW161162  12.569  14.433   2.407
19755SOL    HW261163  12.618  14.381   2.541
19756SOL     OW61164   6.641  14.467  14.865
19756SOL    HW161165   6.605  14.553   0.020
19756SOL    HW261166   6.652  14.472  14.770
19757SOL     OW61167  14.337   4.887   4.286
19757SOL    HW161168  14.317   4.976   4.254
19757SOL    HW261169  14.340   4.834   4.206
19758SOL     OW61170   9.873   3.196   6.699
19758SOL    HW161171   9.931   3.152   6.762
19758SOL    HW261172   9.795   3.217   6.750
19759SOL     OW61173   7.280   5.785   8.021
19759SOL    HW161174   7.306   5.863   8.071
19759SOL    HW261175   7.205   5.750   8.069
19760SOL     OW61176   5.950  11.794  13.889
19760SOL    HW161177   5.983  11.793  13.979
19760SOL    HW261178   5.891  11.719  13.884
19761SOL     OW61179   8.902   5.963  14.001
19761SOL    HW161180   8.917   5.873  13.971
19761SOL    HW261181   8.841   5.954  14.074
19762SOL     OW61182   5.141   8.035  10.960
19762SOL    HW161183   5.197   7.958  10.959
19762SOL    HW261184   5.108   8.041  10.870
19763SOL     OW61185   0.222   6.493   6.910
19763SOL    HW161186   0.165   6.535   6.845
19763SOL    HW261187   0.270   6.565   6.951
19764SOL     OW61188   7.303  11.372   5.077
19764SOL    HW161189   7.292  11.467   5.071
19764SOL    HW261190   7.309  11.355   5.171
19765SOL     OW61191   7.636   4.830   2.571
19765SOL    HW161192   7.549   4.791   2.586
19765SOL    HW261193   7.680   4.823   2.656
19766SOL     OW61194   7.624   0.171   5.237
19766SOL    HW161195   7.531   0.154   5.219
19766SOL    HW261196   7.648   0.239   5.174
19767SOL     OW61197   2.853   1.208  11.075
19767SOL    HW161198   2.930   1.218  11.020
19767SOL    HW261199   2.864   1.123  11.117
19768SOL     OW61200   0.810   4.451   6.025
19768SOL    HW161201   0.726   4.406   6.021
19768SOL    HW261202   0.815   4.484   6.115
19769SOL     OW61203   8.651   3.570   4.724
19769SOL    HW161204   8.561   3.553   4.697
19769SOL    HW261205   8.650   3.659   4.758
19770SOL     OW61206  14.263   9.168   7.911
19770SOL    HW161207  14.354   9.149   7.885
19770SOL    HW261208  14.216   9.172   7.828
19771SOL     OW61209  12.944   7.309  13.728
19771SOL    HW161210  12.905   7.249  13.792
19771SOL    HW261211  12.881   7.311  13.656
19772SOL     OW61212   4.180  10.981   9.288
19772SOL    HW161213   4.214  11.029   9.213
19772SOL    HW261214   4.258  10.952   9.336
19773SOL     OW61215   1.747   6.048  13.488
19773SOL    HW161216   1.732   6.061  13.394
19773SOL    HW261217   1.841   6.056  13.499
19774SOL     OW61218   7.763  12.964   6.156
19774SOL    HW161219   7.858  12.960   6.159
19774SOL    HW261220   7.743  13.026   6.086
19775SOL     OW61221   5.307  13.043  11.982
19775SOL    HW161222   5.247  13.117  11.978
19775SOL    HW261223   5.383  13.070  11.932
19776SOL     OW61224   0.471   6.238  12.960
19776SOL    HW161225   0.428   6.323  12.972
19776SOL    HW261226   0.421   6.178  13.014
19777SOL     OW61227   8.492   5.243   2.414
19777SOL    HW161228   8.509   5.300   2.339
19777SOL    HW261229   8.408   5.202   2.394
19778SOL     OW61230   1.917  11.783  12.212
19778SOL    HW161231   1.988  11.816  12.157
19778SOL    HW261232   1.837  11.811  12.167
19779SOL     OW61233   0.969   5.582   7.675
19779SOL    HW161234   0.989   5.627   7.592
19779SOL    HW261235   1.046   5.528   7.692
19780SOL     OW61236   1.582   4.432   2.790
19780SOL    HW161237   1.592   4.386   2.873
19780SOL    HW261238   1.572   4.362   2.725
19781SOL     OW61239  12.719  11.976   3.791
19781SOL    HW161240  12.671  11.895   3.776
19781SOL    HW261241  12.685  12.037   3.725
19782SOL     OW61242  10.543   1.570   0.666
19782SOL    HW161243  10.534   1.602   0.755
19782SOL    HW261244  10.638   1.569   0.650
19783SOL     OW61245   8.261  11.925  14.606
19783SOL    HW161246   8.192  11.858  14.610
19783SOL    HW261247   8.282  11.933  14.513
19784SOL     OW61248   7.384   5.940   0.725
19784SOL    HW161249   7.343   5.954   0.640
19784SOL    HW261250   7.339   5.863   0.761
19785SOL     OW61251   0.804   2.710  13.481
19785SOL    HW161252   0.837   2.621  13.497
19785SOL    HW261253   0.718   2.711  13.523
19786SOL     OW61254   1.297  12.010   1.166
19786SOL    HW161255   1.211  12.016   1.209
19786SOL    HW261256   1.297  11.924   1.125
19787SOL     OW61257  14.267   2.767   1.728
19787SOL    HW161258  14.293   2.677   1.743
19787SOL    HW261259  14.179   2.773   1.765
19788SOL     OW61260   3.584  12.143   0.413
19788SOL    HW161261   3.580  12.047   0.416
19788SOL    HW261262   3.672  12.163   0.382
19789SOL     OW61263   4.855   9.989   2.072
19789SOL    HW161264   4.788   9.943   2.123
19789SOL    HW261265   4.913   9.920   2.041
19790SOL     OW61266   9.269  12.170   8.931
19790SOL    HW161267   9.317  12.112   8.873
19790SOL    HW261268   9.329  12.243   8.946
19791SOL     OW61269   1.888   6.691   1.559
19791SOL    HW161270   1.959   6.640   1.521
19791SOL    HW261271   1.912   6.782   1.542
19792SOL     OW61272   8.296   2.269  10.408
19792SOL    HW161273   8.266   2.307  10.490
19792SOL    HW261274   8.320   2.344  10.354
19793SOL     OW61275  10.450   6.580   0.733
19793SOL    HW161276  10.377   6.545   0.785
19793SOL    HW261277  10.430   6.553   0.643
19794SOL     OW61278   1.270  14.230   6.961
19794SOL    HW161279   1.345  14.271   7.005
19794SOL    HW261280   1.249  14.290   6.890
19795SOL     OW61281   0.654  13.645   6.882
19795SOL    HW161282   0.590  13.620   6.814
19795SOL    HW261283   0.701  13.719   6.844
19796SOL     OW61284   6.193   4.582   9.592
19796SOL    HW161285   6.178   4.610   9.682
19796SOL    HW261286   6.268   4.523   9.598
19797SOL     OW61287   2.616   8.980  11.441
19797SOL    HW161288   2.683   8.934  11.391
19797SOL    HW261289   2.596   9.057  11.389
19798SOL     OW61290   2.756   3.581   1.699
19798SOL    HW161291   2.692   3.544   1.638
19798SOL    HW261292   2.703   3.636   1.758
19799SOL     OW61293   0.011   6.576  13.581
19799SOL    HW161294   0.092   6.573  13.530
19799SOL    HW261295  14.811   6.564  13.517
19800SOL     OW61296   8.857   7.695   9.553
19800SOL    HW161297   8.827   7.727   9.468
19800SOL    HW261298   8.814   7.610   9.562
19801SOL     OW61299   5.371   8.263  14.263
19801SOL    HW161300   5.376   8.283  14.357
19801SOL    HW261301   5.403   8.173  14.256
19802SOL     OW61302   1.485   5.068   6.476
19802SOL    HW161303   1.465   5.033   6.389
19802SOL    HW261304   1.401   5.102   6.507
19803SOL     OW61305  14.766   1.167   0.063
19803SOL    HW161306  14.753   1.210  14.849
19803SOL    HW261307  14.698   1.203   0.120
19804SOL     OW61308   4.244  10.687   4.068
19804SOL    HW161309   4.245  10.707   3.975
19804SOL    HW261310   4.297  10.756   4.108
19805SOL     OW61311  12.569  14.655  13.168
19805SOL    HW161312  12.655  14.618  13.145
19805SOL    HW261313  12.520  14.656  13.086
19806SOL     OW61314   8.077   0.173   8.111
19806SOL    HW161315   8.062   0.110   8.041
19806SOL    HW261316   8.102   0.120   8.187
19807SOL     OW61317   4.671   0.017  11.048
19807SOL    HW161318   4.609   0.090  11.059
19807SOL    HW261319   4.664  14.863  10.956
19808SOL     OW61320   6.975   6.563   2.651
19808SOL    HW161321   7.004   6.652   2.671
19808SOL    HW261322   7.043   6.528   2.594
19809SOL     OW61323   2.057   1.728   3.332
19809SOL    HW161324   1.969   1.726   3.370
19809SOL    HW261325   2.112   1.684   3.396
19810SOL     OW61326   0.630   9.752  12.479
19810SOL    HW161327   0.582   9.698  12.542
19810SOL    HW261328   0.574   9.827  12.463
19811SOL     OW61329   7.151  10.475   3.367
19811SOL    HW161330   7.089  10.529   3.316
19811SOL    HW261331   7.234  10.484   3.319
19812SOL     OW61332   5.263  10.007   0.067
19812SOL    HW161333   5.358  10.016   0.071
19812SOL    HW261334   5.229  10.084   0.113
19813SOL     OW61335   8.312   8.548   0.620
19813SOL    HW161336   8.383   8.558   0.683
19813SOL    HW261337   8.236   8.526   0.674
19814SOL     OW61338   1.627   0.632   2.708
19814SOL    HW161339   1.614   0.560   2.646
19814SOL    HW261340   1.628   0.711   2.654
19815SOL     OW61341  12.723  13.427   4.582
19815SOL    HW161342  12.701  13.520   4.581
19815SOL    HW261343  12.776  13.414   4.504
19816SOL     OW61344   5.009  10.913   4.309
19816SOL    HW161345   5.057  10.996   4.309
19816SOL    HW261346   4.951  10.919   4.385
19817SOL     OW61347   4.354   1.034   8.165
19817SOL    HW161348   4.297   0.991   8.101
19817SOL    HW261349   4.430   1.062   8.114
19818SOL     OW61350   6.073  11.430   5.883
19818SOL    HW161351   6.081  11.518   5.845
19818SOL    HW261352   6.043  11.445   5.972
19819SOL     OW61353   1.250  10.758   2.079
19819SOL    HW161354   1.219  10.668   2.083
19819SOL    HW261355   1.257  10.778   1.985
19820SOL     OW61356   7.203  11.353   6.204
19820SOL    HW161357   7.119  11.345   6.248
19820SOL    HW261358   7.256  11.282   6.241
19821SOL     OW61359   3.513   5.564   8.834
19821SOL    HW161360   3.575   5.500   8.799
19821SOL    HW261361   3.546   5.584   8.922
19822SOL     OW61362   8.145   0.837  12.424
19822SOL    HW161363   8.101   0.752  12.436
19822SOL    HW261364   8.238   0.816  12.428
19823SOL     OW61365  10.418  10.707   0.758
19823SOL    HW161366  10.384  10.627   0.800
19823SOL    HW261367  10.513  10.701   0.767
19824SOL     OW61368  11.533   9.119   9.252
19824SOL    HW161369  11.508   9.151   9.165
19824SOL    HW261370  11.623   9.087   9.240
19825SOL     OW61371   5.695  12.022   7.913
19825SOL    HW161372   5.711  12.066   7.829
19825SOL    HW261373   5.774  11.969   7.928
19826SOL     OW61374   4.623   5.783  11.921
19826SOL    HW161375   4.561   5.775  11.849
19826SOL    HW261376   4.631   5.878  11.935
19827SOL     OW61377   2.444   7.088   2.674
19827SOL    HW161378   2.532   7.069   2.706
19827SOL    HW261379   2.399   7.125   2.749
19828SOL     OW61380   5.605   2.836   2.415
19828SOL    HW161381   5.620   2.900   2.345
19828SOL    HW261382   5.686   2.784   2.417
19829SOL     OW61383   7.002   1.731   7.396
19829SOL    HW161384   7.038   1.749   7.483
19829SOL    HW261385   7.033   1.643   7.376
19830SOL     OW61386   6.635  10.264   4.468
19830SOL    HW161387   6.718  10.246   4.423
19830SOL    HW261388   6.591  10.327   4.411
19831SOL     OW61389   9.185   6.508  12.681
19831SOL    HW161390   9.143   6.549  12.605
19831SOL    HW261391   9.113   6.470  12.731
19832SOL     OW61392   0.295   6.723   7.922
19832SOL    HW161393   0.382   6.703   7.956
19832SOL    HW261394   0.239   6.657   7.962
19833SOL     OW61395  14.275  14.349   6.051
19833SOL    HW161396  14.236  14.376   5.967
19833SOL    HW261397  14.366  14.329   6.029
19834SOL     OW61398   5.566  13.191   9.451
19834SOL    HW161399   5.489  13.143   9.480
19834SOL    HW261400   5.597  13.143   9.374
19835SOL     OW61401   2.820   9.544   5.185
19835SOL    HW161402   2.816   9.626   5.235
19835SOL    HW261403   2.906   9.508   5.206
19836SOL     OW61404  14.476   0.903  11.816
19836SOL    HW161405  14.385   0.874  11.808
19836SOL    HW261406  14.470   0.998  11.832
19837SOL     OW61407  13.286  14.313   1.672
19837SOL    HW161408  13.346  14.363   1.617
19837SOL    HW261409  13.210  14.296   1.616
19838SOL     OW61410   4.276   9.261  10.665
19838SOL    HW161411   4.361   9.278  10.624
19838SOL    HW261412   4.213   9.312  10.614
19839SOL     OW61413  12.703   5.417   5.791
19839SOL    HW161414  12.695   5.467   5.873
19839SOL    HW261415  12.613   5.394   5.768
19840SOL     OW61416   9.322   0.833   3.085
19840SOL    HW161417   9.394   0.864   3.030
19840SOL    HW261418   9.286   0.912   3.126
19841SOL     OW61419   7.594  12.118   6.477
19841SOL    HW161420   7.542  12.073   6.543
19841SOL    HW261421   7.598  12.056   6.403
19842SOL     OW61422   7.691  10.461   3.754
19842SOL    HW161423   7.644  10.378   3.763
19842SOL    HW261424   7.722  10.461   3.664
19843SOL     OW61425   6.365   1.795   6.176
19843SOL    HW161426   6.386   1.757   6.261
19843SOL    HW261427   6.425   1.752   6.115
19844SOL     OW61428   3.321  14.669  11.381
19844SOL    HW161429   3.366  14.586  11.397
19844SOL    HW261430   3.313  14.673  11.285
19845SOL     OW61431   4.008   3.911  13.170
19845SOL    HW161432   4.034   3.827  13.209
19845SOL    HW261433   4.087   3.942  13.126
19846SOL     OW61434  12.528  12.916  11.780
19846SOL    HW161435  12.568  12.834  11.809
19846SOL    HW261436  12.592  12.953  11.718
19847SOL     OW61437   2.547   5.846  10.840
19847SOL    HW161438   2.627   5.888  10.808
19847SOL    HW261439   2.568   5.752  10.843
19848SOL     OW61440   0.550   5.998   4.483
19848SOL    HW161441   0.508   5.921   4.445
19848SOL    HW261442   0.487   6.069   4.471
19849SOL     OW61443   2.790  10.465  12.333
19849SOL    HW161444   2.800  10.374  12.306
19849SOL    HW261445   2.695  10.479  12.338
19850SOL     OW61446  12.256  14.314   7.349
19850SOL    HW161447  12.270  14.274   7.263
19850SOL    HW261448  12.188  14.380   7.334
19851SOL     OW61449   1.323   1.712  11.547
19851SOL    HW161450   1.351   1.737  11.459
19851SOL    HW261451   1.292   1.794  11.586
19852SOL     OW61452  12.705  12.807   3.831
19852SOL    HW161453  12.754  12.773   3.757
19852SOL    HW261454  12.613  12.796   3.806
19853SOL     OW61455   5.159   5.245  14.058
19853SOL    HW161456   5.084   5.283  14.103
19853SOL    HW261457   5.192   5.179  14.119
19854SOL     OW61458   5.030  11.000   2.918
19854SOL    HW161459   5.078  10.920   2.899
19854SOL    HW261460   5.034  11.008   3.013
19855SOL     OW61461   7.494  11.901  12.130
19855SOL    HW161462   7.520  11.992  12.114
19855SOL    HW261463   7.495  11.860  12.043
19856SOL     OW61464   2.708   7.394  10.516
19856SOL    HW161465   2.684   7.387  10.424
19856SOL    HW261466   2.784   7.337  10.525
19857SOL     OW61467   4.109  10.200  10.786
19857SOL    HW161468   4.189  10.252  10.778
19857SOL    HW261469   4.054  10.250  10.845
19858SOL     OW61470   1.714  13.242   2.995
19858SOL    HW161471   1.741  13.151   3.004
19858SOL    HW261472   1.734  13.265   2.905
19859SOL     OW61473   3.844  11.711   0.979
19859SOL    HW161474   3.888  11.796   0.985
19859SOL    HW261475   3.753  11.733   0.957
19860SOL     OW61476   6.264  12.650   1.196
19860SOL    HW161477   6.221  12.603   1.125
19860SOL    HW261478   6.282  12.737   1.160
19861SOL     OW61479  13.896   9.526   1.170
19861SOL    HW161480  13.807   9.526   1.136
19861SOL    HW261481  13.950   9.554   1.096
19862SOL     OW61482  10.872   4.874   6.561
19862SOL    HW161483  10.817   4.936   6.512
19862SOL    HW261484  10.844   4.788   6.529
19863SOL     OW61485   3.607   1.305   0.997
19863SOL    HW161486   3.608   1.401   1.001
19863SOL    HW261487   3.670   1.277   1.063
19864SOL     OW61488  14.704  14.492   7.224
19864SOL    HW161489  14.687  14.479   7.318
19864SOL    HW261490  14.777  14.433   7.205
19865SOL     OW61491   4.061   2.354  14.796
19865SOL    HW161492   4.095   2.274  14.837
19865SOL    HW261493   4.140   2.401  14.769
19866SOL     OW61494   0.745  11.353  12.916
19866SOL    HW161495   0.708  11.323  12.999
19866SOL    HW261496   0.807  11.421  12.940
19867SOL     OW61497   3.174  12.703  13.125
19867SOL    HW161498   3.176  12.768  13.194
19867SOL    HW261499   3.116  12.634  13.159
19868SOL     OW61500   5.634  11.205  10.826
19868SOL    HW161501   5.603  11.283  10.872
19868SOL    HW261502   5.664  11.237  10.741
19869SOL     OW61503   2.196  14.161   2.518
19869SOL    HW161504   2.258  14.094   2.490
19869SOL    HW261505   2.242  14.209   2.587
19870SOL     OW61506   1.637   9.678   7.774
19870SOL    HW161507   1.552   9.703   7.739
19870SOL    HW261508   1.695   9.750   7.748
19871SOL     OW61509   8.595  13.432   5.605
19871SOL    HW161510   8.579  13.382   5.684
19871SOL    HW261511   8.685  13.411   5.580
19872SOL     OW61512  12.366   4.955   4.369
19872SOL    HW161513  12.320   5.005   4.302
19872SOL    HW261514  12.368   5.013   4.445
19873SOL     OW61515   4.457   2.055   6.224
19873SOL    HW161516   4.365   2.047   6.249
19873SOL    HW261517   4.489   1.965   6.219
19874SOL     OW61518  10.774   2.948  14.413
19874SOL    HW161519  10.817   3.021  14.368
19874SOL    HW261520  10.757   2.884  14.343
19875SOL     OW61521   9.896   9.601   4.790
19875SOL    HW161522   9.828   9.659   4.824
19875SOL    HW261523   9.971   9.614   4.848
19876SOL     OW61524  13.438  14.507   8.329
19876SOL    HW161525  13.528  14.518   8.359
19876SOL    HW261526  13.405  14.596   8.317
19877SOL     OW61527   8.817  10.464   9.025
19877SOL    HW161528   8.864  10.452   8.943
19877SOL    HW261529   8.881  10.441   9.093
19878SOL     OW61530   2.693   9.829   9.331
19878SOL    HW161531   2.612   9.821   9.281
19878SOL    HW261532   2.762   9.824   9.265
19879SOL     OW61533   3.655   0.559   8.948
19879SOL    HW161534   3.729   0.538   9.004
19879SOL    HW261535   3.642   0.481   8.894
19880SOL     OW61536   1.971   4.808   4.250
19880SOL    HW161537   2.047   4.788   4.196
19880SOL    HW261538   1.942   4.894   4.220
19881SOL     OW61539  12.076  10.235  14.301
19881SOL    HW161540  12.064  10.326  14.272
19881SOL    HW261541  11.995  10.191  14.277
19882SOL     OW61542   9.161  10.634   9.120
19882SOL    HW161543   9.182  10.726   9.110
19882SOL    HW261544   9.134  10.605   9.033
19883SOL     OW61545  11.051   1.108  12.130
19883SOL    HW161546  11.001   1.031  12.104
19883SOL    HW261547  11.074   1.091  12.222
19884SOL     OW61548   2.071   1.027   9.082
19884SOL    HW161549   2.146   1.080   9.054
19884SOL    HW261550   2.056   1.052   9.173
19885SOL     OW61551   8.696  13.738   1.718
19885SOL    HW161552   8.727  13.780   1.798
19885SOL    HW261553   8.602  13.725   1.732
19886SOL     OW61554  12.473   6.730   8.086
19886SOL    HW161555  12.560   6.748   8.050
19886SOL    HW261556  12.444   6.814   8.122
19887SOL     OW61557  11.820  13.716   9.057
19887SOL    HW161558  11.790  13.654   8.991
19887SOL    HW261559  11.881  13.667   9.112
19888SOL     OW61560   6.131   3.947  12.613
19888SOL    HW161561   6.199   4.013  12.622
19888SOL    HW261562   6.146   3.908  12.527
19889SOL     OW61563   8.801   2.882  11.498
19889SOL    HW161564   8.794   2.975  11.475
19889SOL    HW261565   8.862   2.846  11.433
19890SOL     OW61566   4.219   6.594   0.760
19890SOL    HW161567   4.135   6.550   0.744
19890SOL    HW261568   4.219   6.610   0.854
19891SOL     OW61569   8.938  12.673   4.315
19891SOL    HW161570   9.003  12.744   4.318
19891SOL    HW261571   8.961  12.623   4.236
19892SOL     OW61572  11.476   8.500   4.400
19892SOL    HW161573  11.560   8.509   4.356
19892SOL    HW261574  11.417   8.467   4.332
19893SOL     OW61575   9.388  13.330   8.109
19893SOL    HW161576   9.392  13.236   8.093
19893SOL    HW261577   9.383  13.369   8.022
19894SOL     OW61578  13.419   1.914   4.906
19894SOL    HW161579  13.491   1.914   4.968
19894SOL    HW261580  13.373   1.832   4.922
19895SOL     OW61581   1.395   1.577  13.833
19895SOL    HW161582   1.408   1.670  13.852
19895SOL    HW261583   1.455   1.532  13.892
19896SOL     OW61584  14.751  10.913   0.752
19896SOL    HW161585  14.762  10.977   0.682
19896SOL    HW261586  14.795  10.834   0.719
19897SOL     OW61587   0.962  11.576  13.481
19897SOL    HW161588   1.018  11.611  13.412
19897SOL    HW261589   0.892  11.531  13.434
19898SOL     OW61590   2.887   7.999  13.185
19898SOL    HW161591   2.860   8.078  13.232
19898SOL    HW261592   2.859   8.014  13.095
19899SOL     OW61593  13.789  12.827   3.187
19899SOL    HW161594  13.806  12.743   3.145
19899SOL    HW261595  13.874  12.869   3.192
19900SOL     OW61596   5.850   1.633   4.030
19900SOL    HW161597   5.799   1.706   4.066
19900SOL    HW261598   5.898   1.597   4.104
19901SOL     OW61599   4.369   9.809   6.242
19901SOL    HW161600   4.397   9.800   6.333
19901SOL    HW261601   4.374   9.720   6.207
19902SOL     OW61602  11.315   1.462   3.693
19902SOL    HW161603  11.342   1.530   3.754
19902SOL    HW261604  11.353   1.487   3.609
19903SOL     OW61605  10.370   7.164   8.470
19903SOL    HW161606  10.465   7.168   8.466
19903SOL    HW261607  10.351   7.092   8.530
19904SOL     OW61608   1.025   7.131   2.111
19904SOL    HW161609   1.053   7.218   2.083
19904SOL    HW261610   0.982   7.094   2.034
19905SOL     OW61611   0.770   2.832  12.004
19905SOL    HW161612   0.848   2.778  12.014
19905SOL    HW261613   0.789   2.889  11.930
19906SOL     OW61614   0.487   4.738   8.559
19906SOL    HW161615   0.562   4.712   8.612
19906SOL    HW261616   0.429   4.662   8.561
19907SOL     OW61617   0.739  12.541   1.658
19907SOL    HW161618   0.673  12.509   1.720
19907SOL    HW261619   0.705  12.515   1.572
19908SOL     OW61620   8.545   7.426   5.078
19908SOL    HW161621   8.601   7.483   5.130
19908SOL    HW261622   8.592   7.413   4.996
19909SOL     OW61623  10.314  13.225   5.246
19909SOL    HW161624  10.406  13.248   5.233
19909SOL    HW261625  10.310  13.133   5.220
19910SOL     OW61626   9.097   3.782  12.283
19910SOL    HW161627   9.134   3.701  12.319
19910SOL    HW261628   9.156   3.806  12.212
19911SOL     OW61629  14.731   8.503  12.781
19911SOL    HW161630  14.804   8.458  12.739
19911SOL    HW261631  14.767   8.586  12.811
19912SOL     OW61632   6.388   2.357  12.897
19912SOL    HW161633   6.305   2.344  12.943
19912SOL    HW261634   6.436   2.275  12.911
19913SOL     OW61635   0.298   7.781   7.061
19913SOL    HW161636   0.300   7.867   7.103
19913SOL    HW261637   0.284   7.800   6.969
19914SOL     OW61638  14.543  12.762   2.484
19914SOL    HW161639  14.555  12.856   2.467
19914SOL    HW261640  14.592  12.719   2.414
19915SOL     OW61641   8.710   0.642   2.715
19915SOL    HW161642   8.760   0.571   2.674
19915SOL    HW261643   8.619   0.614   2.710
19916SOL     OW61644   9.481   5.240   2.018
19916SOL    HW161645   9.452   5.186   1.945
19916SOL    HW261646   9.565   5.276   1.990
19917SOL     OW61647   4.190   8.767   5.524
19917SOL    HW161648   4.234   8.797   5.603
19917SOL    HW261649   4.103   8.807   5.528
19918SOL     OW61650   7.645  13.676  10.955
19918SOL    HW161651   7.707  13.603  10.962
19918SOL    HW261652   7.597  13.675  11.039
19919SOL     OW61653  13.421   0.423   7.185
19919SOL    HW161654  13.442   0.490   7.120
19919SOL    HW261655  13.397   0.346   7.134
19920SOL     OW61656  12.907  13.020   1.624
19920SOL    HW161657  12.898  13.074   1.545
19920SOL    HW261658  12.927  12.932   1.592
19921SOL     OW61659   1.824   1.714   4.946
19921SOL    HW161660   1.757   1.783   4.945
19921SOL    HW261661   1.802   1.658   4.872
19922SOL     OW61662  11.870   4.963   1.075
19922SOL    HW161663  11.794   5.013   1.045
19922SOL    HW261664  11.853   4.873   1.045
19923SOL     OW61665   7.935  11.106   2.193
19923SOL    HW161666   7.944  11.201   2.184
19923SOL    HW261667   7.902  11.094   2.282
19924SOL     OW61668   4.167  14.104   6.533
19924SOL    HW161669   4.150  14.057   6.451
19924SOL    HW261670   4.261  14.123   6.531
19925SOL     OW61671   5.686   7.390  11.166
19925SOL    HW161672   5.732   7.463  11.125
19925SOL    HW261673   5.626   7.431  11.228
19926SOL     OW61674  14.221  14.473   8.934
19926SOL    HW161675  14.150  14.500   8.876
19926SOL    HW261676  14.247  14.553   8.980
19927SOL     OW61677  11.159   2.341   1.602
19927SOL    HW161678  11.152   2.432   1.571
19927SOL    HW261679  11.081   2.298   1.568
19928SOL     OW61680   4.236   1.770  12.733
19928SOL    HW161681   4.169   1.802  12.673
19928SOL    HW261682   4.239   1.835  12.804
19929SOL     OW61683  11.426   6.734   1.738
19929SOL    HW161684  11.371   6.812   1.727
19929SOL    HW261685  11.388   6.689   1.813
19930SOL     OW61686   9.555   5.780   6.775
19930SOL    HW161687   9.559   5.862   6.825
19930SOL    HW261688   9.576   5.806   6.685
19931SOL     OW61689   0.202  10.632   4.177
19931SOL    HW161690   0.248  10.712   4.150
19931SOL    HW261691   0.177  10.648   4.268
19932SOL     OW61692   6.563  10.932   8.622
19932SOL    HW161693   6.476  10.972   8.625
19932SOL    HW261694   6.586  10.916   8.714
19933SOL     OW61695   5.470   8.796   8.833
19933SOL    HW161696   5.463   8.855   8.758
19933SOL    HW261697   5.533   8.730   8.806
19934SOL     OW61698  12.632   5.514   9.926
19934SOL    HW161699  12.687   5.591   9.917
19934SOL    HW261700  12.680   5.445   9.879
19935SOL     OW61701   3.781   8.592   7.961
19935SOL    HW161702   3.867   8.562   7.991
19935SOL    HW261703   3.751   8.652   8.029
19936SOL     OW61704   4.786   6.456   8.730
19936SOL    HW161705   4.736   6.398   8.789
19936SOL    HW261706   4.863   6.481   8.781
19937SOL     OW61707   3.856   1.239   2.117
19937SOL    HW161708   3.791   1.241   2.187
19937SOL    HW261709   3.847   1.152   2.078
19938SOL     OW61710   1.308  10.732  12.060
19938SOL    HW161711   1.306  10.804  12.122
19938SOL    HW261712   1.257  10.662  12.101
19939SOL     OW61713   6.093  11.073  13.473
19939SOL    HW161714   6.077  11.154  13.425
19939SOL    HW261715   6.022  11.069  13.537
19940SOL     OW61716  11.276   1.851   9.387
19940SOL    HW161717  11.237   1.932   9.354
19940SOL    HW261718  11.327   1.877   9.464
19941SOL     OW61719   3.198   6.265   1.928
19941SOL    HW161720   3.216   6.202   1.858
19941SOL    HW261721   3.255   6.339   1.909
19942SOL     OW61722   9.991   2.020   7.638
19942SOL    HW161723  10.070   1.989   7.682
19942SOL    HW261724   9.962   1.946   7.584
19943SOL     OW61725   2.496   8.867   1.727
19943SOL    HW161726   2.440   8.809   1.676
19943SOL    HW261727   2.585   8.845   1.699
19944SOL     OW61728   4.319  14.611   5.449
19944SOL    HW161729   4.259  14.677   5.482
19944SOL    HW261730   4.287  14.528   5.486
19945SOL     OW61731   0.559  14.760   9.742
19945SOL    HW161732   0.476  14.739   9.698
19945SOL    HW261733   0.609  14.679   9.738
19946SOL     OW61734  14.397   4.171  13.222
19946SOL    HW161735  14.462   4.164  13.292
19946SOL    HW261736  14.324   4.218  13.261
19947SOL     OW61737   8.035  10.184   9.739
19947SOL    HW161738   8.048  10.264   9.790
19947SOL    HW261739   7.954  10.146   9.774
19948SOL     OW61740   9.033   5.417   5.669
19948SOL    HW161741   8.977   5.455   5.602
19948SOL    HW261742   9.066   5.336   5.629
19949SOL     OW61743   0.284  14.141   2.883
19949SOL    HW161744   0.207  14.145   2.940
19949SOL    HW261745   0.254  14.096   2.804
19950SOL     OW61746   8.765   5.358  13.969
19950SOL    HW161747   8.724   5.271  13.965
19950SOL    HW261748   8.772   5.378  14.062
19951SOL     OW61749   4.752   0.743   1.914
19951SOL    HW161750   4.839   0.773   1.941
19951SOL    HW261751   4.693   0.814   1.939
19952SOL     OW61752  10.644   4.753   3.930
19952SOL    HW161753  10.569   4.744   3.989
19952SOL    HW261754  10.720   4.747   3.988
19953SOL     OW61755  13.834   3.136   6.559
19953SOL    HW161756  13.843   3.050   6.599
19953SOL    HW261757  13.740   3.144   6.542
19954SOL     OW61758   2.020   6.145   1.892
19954SOL    HW161759   2.040   6.075   1.953
19954SOL    HW261760   1.961   6.203   1.940
19955SOL     OW61761  11.572  12.907   3.929
19955SOL    HW161762  11.541  12.988   3.969
19955SOL    HW261763  11.501  12.844   3.946
19956SOL     OW61764  10.506  12.830   3.120
19956SOL    HW161765  10.511  12.813   3.215
19956SOL    HW261766  10.547  12.916   3.109
19957SOL     OW61767  10.680   2.573  13.117
19957SOL    HW161768  10.756   2.547  13.066
19957SOL    HW261769  10.644   2.492  13.153
19958SOL     OW61770  12.439  14.778   9.882
19958SOL    HW161771  12.364  14.729   9.848
19958SOL    HW261772  12.401  14.839   9.945
19959SOL     OW61773   2.742  10.448   3.053
19959SOL    HW161774   2.779  10.536   3.045
19959SOL    HW261775   2.787  10.410   3.129
19960SOL     OW61776  11.326   7.637   2.159
19960SOL    HW161777  11.240   7.632   2.201
19960SOL    HW261778  11.379   7.574   2.207
19961SOL     OW61779   3.493   1.447   2.226
19961SOL    HW161780   3.409   1.424   2.266
19961SOL    HW261781   3.474   1.453   2.132
19962SOL     OW61782   3.798   5.460   2.627
19962SOL    HW161783   3.814   5.435   2.718
19962SOL    HW261784   3.703   5.470   2.621
19963SOL     OW61785   1.214  10.046  12.796
19963SOL    HW161786   1.204   9.955  12.770
19963SOL    HW261787   1.132  10.088  12.768
19964SOL     OW61788   9.790   3.525   0.017
19964SOL    HW161789   9.830   3.611   0.001
19964SOL    HW261790   9.790   3.482  14.801
19965SOL     OW61791  12.909   3.105  12.181
19965SOL    HW161792  12.814   3.115  12.189
19965SOL    HW261793  12.940   3.190  12.151
19966SOL     OW61794   7.348   7.177  14.212
19966SOL    HW161795   7.331   7.264  14.175
19966SOL    HW261796   7.406   7.135  14.149
19967SOL     OW61797  11.931  13.413  14.241
19967SOL    HW161798  11.947  13.491  14.188
19967SOL    HW261799  12.006  13.409  14.300
19968SOL     OW61800  11.750   7.415   7.761
19968SOL    HW161801  11.779   7.467   7.686
19968SOL    HW261802  11.680   7.359   7.725
19969SOL     OW61803  12.178  14.552   3.440
19969SOL    HW161804  12.099  14.525   3.487
19969SOL    HW261805  12.176  14.502   3.359
19970SOL     OW61806   3.212   1.411   7.737
19970SOL    HW161807   3.227   1.456   7.821
19970SOL    HW261808   3.237   1.476   7.671
19971SOL     OW61809  12.368   1.122  12.228
19971SOL    HW161810  12.341   1.075  12.150
19971SOL    HW261811  12.459   1.096  12.241
19972SOL     OW61812   6.384  14.761   1.995
19972SOL    HW161813   6.301  14.757   1.947
19972SOL    HW261814   6.403  14.670   2.016
19973SOL     OW61815  11.554   3.180  11.968
19973SOL    HW161816  11.570   3.091  11.999
19973SOL    HW261817  11.474   3.173  11.916
19974SOL     OW61818   2.394  12.376   7.296
19974SOL    HW161819   2.321  12.408   7.348
19974SOL    HW261820   2.437  12.311   7.352
19975SOL     OW61821  14.402  14.700   4.207
19975SOL    HW161822  14.451  14.636   4.257
19975SOL    HW261823  14.384  14.657   4.123
19976SOL     OW61824  13.269   5.206  10.780
19976SOL    HW161825  13.200   5.262  10.816
19976SOL    HW261826  13.223   5.128  10.750
19977SOL     OW61827  10.888  14.229  14.186
19977SOL    HW161828  10.947  14.161  14.218
19977SOL    HW261829  10.944  14.291  14.139
19978SOL     OW61830  13.073   4.555   4.214
19978SOL    HW161831  13.120   4.610   4.277
19978SOL    HW261832  13.036   4.617   4.151
19979SOL     OW61833   5.498  11.894   4.392
19979SOL    HW161834   5.413  11.870   4.431
19979SOL    HW261835   5.545  11.811   4.383
19980SOL     OW61836   2.132  14.419   4.935
19980SOL    HW161837   2.221  14.414   4.971
19980SOL    HW261838   2.084  14.349   4.980
19981SOL     OW61839   1.927  10.915   1.263
19981SOL    HW161840   1.931  11.007   1.290
19981SOL    HW261841   1.950  10.866   1.342
19982SOL     OW61842  14.330  13.285   8.859
19982SOL    HW161843  14.391  13.339   8.808
19982SOL    HW261844  14.263  13.259   8.796
19983SOL     OW61845   1.669  11.591   4.227
19983SOL    HW161846   1.599  11.650   4.257
19983SOL    HW261847   1.674  11.524   4.296
19984SOL     OW61848  13.437   5.335   6.396
19984SOL    HW161849  13.453   5.429   6.384
19984SOL    HW261850  13.356   5.331   6.447
19985SOL     OW61851   8.864   9.013   8.353
19985SOL    HW161852   8.804   9.046   8.286
19985SOL    HW261853   8.850   8.918   8.352
19986SOL     OW61854  12.665  14.787   4.713
19986SOL    HW161855  12.711  14.718   4.666
19986SOL    HW261856  12.657  14.858   4.650
19987SOL     OW61857   1.786  14.630   8.507
19987SOL    HW161858   1.854  14.572   8.541
19987SOL    HW261859   1.711  14.573   8.492
19988SOL     OW61860  10.238  13.568  13.203
19988SOL    HW161861  10.213  13.476  13.202
19988SOL    HW261862  10.209  13.602  13.119
19989SOL     OW61863  11.158   9.951  10.284
19989SOL    HW161864  11.224  10.015  10.255
19989SOL    HW261865  11.101  10.001  10.342
19990SOL     OW61866  13.197   1.282  11.107
19990SOL    HW161867  13.174   1.326  11.025
19990SOL    HW261868  13.274   1.330  11.138
19991SOL     OW61869   2.562  14.639   5.742
19991SOL    HW161870   2.495  14.642   5.811
19991SOL    HW261871   2.556  14.550   5.708
19992SOL     OW61872   4.803   1.929   3.010
19992SOL    HW161873   4.740   1.887   2.951
19992SOL    HW261874   4.884   1.933   2.960
19993SOL     OW61875   1.230  13.659   8.138
19993SOL    HW161876   1.229  13.574   8.182
19993SOL    HW261877   1.237  13.637   8.045
19994SOL     OW61878  13.331   8.241  12.230
19994SOL    HW161879  13.396   8.242  12.300
19994SOL    HW261880  13.252   8.277  12.269
19995SOL     OW61881  11.487   2.848   2.097
19995SOL    HW161882  11.546   2.805   2.034
19995SOL    HW261883  11.496   2.797   2.177
19996SOL     OW61884   0.773   9.016  14.103
19996SOL    HW161885   0.766   9.017  14.198
19996SOL    HW261886   0.693   8.973  14.073
19997SOL     OW61887  12.156   3.310   1.280
19997SOL    HW161888  12.210   3.231   1.280
19997SOL    HW261889  12.182   3.356   1.360
19998SOL     OW61890   2.945  12.445  10.392
19998SOL    HW161891   2.889  12.410  10.461
19998SOL    HW261892   2.901  12.421  10.310
19999SOL     OW61893   9.078   7.216   4.229
19999SOL    HW161894   9.047   7.307   4.237
19999SOL    HW261895   9.003   7.163   4.255
20000SOL     OW61896   7.273   0.939   0.406
20000SOL    HW161897   7.305   0.858   0.444
20000SOL    HW261898   7.202   0.912   0.348
20001SOL     OW61899   7.757  11.997   9.957
20001SOL    HW161900   7.744  11.902   9.964
20001SOL    HW261901   7.670  12.034   9.969
20002SOL     OW61902   4.007   3.835   9.101
20002SOL    HW161903   3.949   3.892   9.051
20002SOL    HW261904   4.094   3.872   9.089
20003SOL     OW61905  10.844   5.923  10.594
20003SOL    HW161906  10.885   5.838  10.609
20003SOL    HW261907  10.860   5.942  10.502
20004SOL     OW61908   5.276   0.061   8.374
20004SOL    HW161909   5.184   0.070   8.399
20004SOL    HW261910   5.306   0.151   8.360
20005SOL     OW61911  11.553   2.883   9.563
20005SOL    HW161912  11.473   2.868   9.614
20005SOL    HW261913  11.552   2.976   9.543
20006SOL     OW61914   4.264   5.217  13.741
20006SOL    HW161915   4.292   5.221  13.832
20006SOL    HW261916   4.342   5.238  13.690
20007SOL     OW61917   0.799  10.202  11.181
20007SOL    HW161918   0.883  10.201  11.227
20007SOL    HW261919   0.753  10.125  11.214
20008SOL     OW61920   1.317   4.382   9.318
20008SOL    HW161921   1.406   4.347   9.312
20008SOL    HW261922   1.304   4.400   9.411
20009SOL     OW61923   9.004   4.659   3.750
20009SOL    HW161924   9.017   4.566   3.731
20009SOL    HW261925   8.915   4.664   3.785
20010SOL     OW61926   3.137  11.544   0.048
20010SOL    HW161927   3.150  11.626   0.096
20010SOL    HW261928   3.216  11.534  14.865
20011SOL     OW61929  10.082   1.353   9.927
20011SOL    HW161930  10.001   1.302   9.929
20011SOL    HW261931  10.136   1.310   9.861
20012SOL     OW61932   2.443   8.510  13.850
20012SOL    HW161933   2.448   8.596  13.809
20012SOL    HW261934   2.360   8.473  13.820
20013SOL     OW61935   5.828  12.813   6.856
20013SOL    HW161936   5.888  12.777   6.790
20013SOL    HW261937   5.818  12.904   6.832
20014SOL     OW61938  12.388   4.028  13.335
20014SOL    HW161939  12.390   3.942  13.293
20014SOL    HW261940  12.477   4.040  13.369
20015SOL     OW61941   1.241   4.749   1.386
20015SOL    HW161942   1.244   4.746   1.482
20015SOL    HW261943   1.232   4.842   1.365
20016SOL     OW61944   9.496   3.405   0.731
20016SOL    HW161945   9.552   3.424   0.656
20016SOL    HW261946   9.435   3.479   0.735
20017SOL     OW61947  14.067  11.278  11.704
20017SOL    HW161948  13.992  11.267  11.645
20017SOL    HW261949  14.028  11.298  11.789
20018SOL     OW61950   0.105   2.643   8.631
20018SOL    HW161951   0.097   2.578   8.561
20018SOL    HW261952   0.043   2.712   8.606
20019SOL     OW61953   8.142   1.702  12.708
20019SOL    HW161954   8.195   1.653  12.770
20019SOL    HW261955   8.120   1.784  12.753
20020SOL     OW61956   3.194   9.506   0.547
20020SOL    HW161957   3.281   9.536   0.520
20020SOL    HW261958   3.188   9.417   0.512
20021SOL     OW61959   2.684  12.633   8.742
20021SOL    HW161960   2.647  12.546   8.758
20021SOL    HW261961   2.658  12.684   8.819
20022SOL     OW61962   9.201   5.220   4.629
20022SOL    HW161963   9.106   5.227   4.634
20022SOL    HW261964   9.223   5.259   4.545
20023SOL     OW61965  12.848  12.333  10.870
20023SOL    HW161966  12.910  12.377  10.928
20023SOL    HW261967  12.791  12.403  10.838
20024SOL     OW61968   7.651   4.796  12.587
20024SOL    HW161969   7.570   4.846  12.598
20024SOL    HW261970   7.627   4.725  12.526
20025SOL     OW61971   5.220   9.472   4.720
20025SOL    HW161972   5.271   9.451   4.642
20025SOL    HW261973   5.182   9.388   4.747
20026SOL     OW61974   2.035   9.245   5.552
20026SOL    HW161975   2.096   9.210   5.617
20026SOL    HW261976   1.961   9.185   5.554
20027SOL     OW61977  12.194  12.740   2.996
20027SOL    HW161978  12.252  12.724   2.921
20027SOL    HW261979  12.170  12.652   3.026
20028SOL     OW61980   7.486   8.398   0.887
20028SOL    HW161981   7.576   8.401   0.854
20028SOL    HW261982   7.485   8.461   0.960
20029SOL     OW61983   0.165   2.696   0.599
20029SOL    HW161984   0.248   2.691   0.646
20029SOL    HW261985   0.178   2.642   0.520
20030SOL     OW61986  12.482   7.185  13.031
20030SOL    HW161987  12.525   7.260  12.989
20030SOL    HW261988  12.507   7.110  12.978
20031SOL     OW61989  11.155   5.341  12.251
20031SOL    HW161990  11.157   5.395  12.330
20031SOL    HW261991  11.179   5.254  12.281
20032SOL     OW61992  14.338   8.548   4.870
20032SOL    HW161993  14.374   8.466   4.902
20032SOL    HW261994  14.315   8.531   4.779
20033SOL     OW61995   5.728   9.298   6.455
20033SOL    HW161996   5.729   9.280   6.549
20033SOL    HW261997   5.661   9.240   6.420
20034SOL     OW61998   4.130  11.503   2.716
20034SOL    HW161999   4.200  11.510   2.651
20034SOL    HW262000   4.135  11.585   2.766
20035SOL     OW62001   2.321  11.212   3.314
20035SOL    HW162002   2.268  11.268   3.258
20035SOL    HW262003   2.271  11.130   3.320
20036SOL     OW62004   9.115   3.944  11.135
20036SOL    HW162005   9.054   3.876  11.163
20036SOL    HW262006   9.195   3.898  11.113
20037SOL     OW62007   0.610   2.001   6.367
20037SOL    HW162008   0.543   1.933   6.360
20037SOL    HW262009   0.646   1.990   6.455
20038SOL     OW62010   9.059  11.509   6.531
20038SOL    HW162011   9.060  11.603   6.551
20038SOL    HW262012   9.151  11.483   6.534
20039SOL     OW62013  10.134  10.952   6.157
20039SOL    HW162014  10.049  10.990   6.131
20039SOL    HW262015  10.147  10.879   6.096
20040SOL     OW62016  10.520   5.478  14.293
20040SOL    HW162017  10.439   5.477  14.345
20040SOL    HW262018  10.527   5.568  14.261
20041SOL     OW62019   1.000   1.693  11.109
20041SOL    HW162020   1.015   1.779  11.147
20041SOL    HW262021   1.075   1.679  11.051
20042SOL     OW62022   8.560   9.965  14.050
20042SOL    HW162023   8.582   9.918  13.969
20042SOL    HW262024   8.645   9.983  14.091
20043SOL     OW62025   5.403   9.168   5.411
20043SOL    HW162026   5.443   9.228   5.348
20043SOL    HW262027   5.440   9.194   5.495
20044SOL     OW62028   0.668  12.147   0.955
20044SOL    HW162029   0.703  12.070   0.912
20044SOL    HW262030   0.573  12.141   0.943
20045SOL     OW62031   8.095   7.379  13.460
20045SOL    HW162032   8.068   7.455  13.512
20045SOL    HW262033   8.144   7.324  13.521
20046SOL     OW62034   5.325   2.904   7.446
20046SOL    HW162035   5.323   2.991   7.406
20046SOL    HW262036   5.262   2.908   7.518
20047SOL     OW62037   1.615   6.356   1.857
20047SOL    HW162038   1.524   6.346   1.831
20047SOL    HW262039   1.633   6.279   1.912
20048SOL     OW62040   6.005   6.303   8.541
20048SOL    HW162041   6.057   6.231   8.576
20048SOL    HW262042   6.023   6.302   8.447
20049SOL     OW62043  14.362   5.428  10.166
20049SOL    HW162044  14.378   5.384  10.249
20049SOL    HW262045  14.449   5.453  10.135
20050SOL     OW62046   7.169   3.309   6.694
20050SOL    HW162047   7.246   3.260   6.669
20050SOL    HW262048   7.123   3.327   6.612
20051SOL     OW62049   9.983  14.719  13.209
20051SOL    HW162050   9.889  14.738  13.212
20051SOL    HW262051   9.990  14.629  13.241
20052SOL     OW62052   6.641  11.300  10.703
20052SOL    HW162053   6.658  11.358  10.629
20052SOL    HW262054   6.664  11.352  10.780
20053SOL     OW62055   2.253   9.635  10.370
20053SOL    HW162056   2.203   9.698  10.319
20053SOL    HW262057   2.291   9.686  10.441
20054SOL     OW62058   1.767  13.468  11.233
20054SOL    HW162059   1.702  13.511  11.289
20054SOL    HW262060   1.771  13.524  11.155
20055SOL     OW62061  11.936   2.292  13.567
20055SOL    HW162062  11.904   2.206  13.539
20055SOL    HW262063  11.932   2.289  13.662
20056SOL     OW62064   0.426   0.384   2.917
20056SOL    HW162065   0.450   0.304   2.870
20056SOL    HW262066   0.422   0.451   2.849
20057SOL     OW62067   3.521  11.187   8.665
20057SOL    HW162068   3.444  11.145   8.704
20057SOL    HW262069   3.566  11.228   8.739
20058SOL     OW62070   9.235  10.071   1.972
20058SOL    HW162071   9.273  10.153   2.002
20058SOL    HW262072   9.147  10.093   1.943
20059SOL     OW62073  13.919   7.445   8.203
20059SOL    HW162074  13.923   7.365   8.151
20059SOL    HW262075  13.866   7.505   8.151
20060SOL     OW62076  13.653   1.582   8.913
20060SOL    HW162077  13.577   1.601   8.968
20060SOL    HW262078  13.676   1.492   8.935
20061SOL     OW62079   8.750   4.671   3.887
20061SOL    HW162080   8.810   4.736   3.923
20061SOL    HW262081   8.695   4.645   3.961
20062SOL     OW62082  13.094   4.236   5.240
20062SOL    HW162083  13.180   4.200   5.261
20062SOL    HW262084  13.032   4.180   5.287
20063SOL     OW62085   2.580   0.124   3.293
20063SOL    HW162086   2.609   0.041   3.331
20063SOL    HW262087   2.602   0.116   3.200
20064SOL     OW62088   8.200  11.348   2.870
20064SOL    HW162089   8.162  11.286   2.932
20064SOL    HW262090   8.256  11.404   2.924
20065SOL     OW62091   3.958   7.746   4.591
20065SOL    HW162092   3.950   7.721   4.683
20065SOL    HW262093   4.051   7.762   4.578
20066SOL     OW62094  13.714   1.408   0.362
20066SOL    HW162095  13.734   1.394   0.455
20066SOL    HW262096  13.786   1.462   0.330
20067SOL     OW62097  14.481   8.484  13.846
20067SOL    HW162098  14.571   8.460  13.865
20067SOL    HW262099  14.430   8.445  13.917
20068SOL     OW62100  12.618  13.415   2.986
20068SOL    HW162101  12.635  13.325   2.958
20068SOL    HW262102  12.652  13.469   2.915
20069SOL     OW62103  14.500   7.607   2.437
20069SOL    HW162104  14.417   7.654   2.448
20069SOL    HW262105  14.567   7.671   2.461
20070SOL     OW62106   7.279  10.621  10.277
20070SOL    HW162107   7.268  10.661  10.191
20070SOL    HW262108   7.216  10.549  10.279
20071SOL     OW62109  13.215  11.840   8.883
20071SOL    HW162110  13.303  11.853   8.918
20071SOL    HW262111  13.224  11.856   8.789
20072SOL     OW62112  13.873  14.817   0.551
20072SOL    HW162113  13.867   0.031   0.505
20072SOL    HW262114  13.821  14.757   0.497
20073SOL     OW62115  14.227  13.139  10.329
20073SOL    HW162116  14.166  13.076  10.367
20073SOL    HW262117  14.183  13.223  10.336
20074SOL     OW62118   8.031  13.797   6.326
20074SOL    HW162119   7.957  13.844   6.288
20074SOL    HW262120   8.017  13.705   6.302
20075SOL     OW62121  11.802   5.126  13.526
20075SOL    HW162122  11.723   5.079  13.499
20075SOL    HW262123  11.786   5.217  13.501
20076SOL     OW62124   8.699   0.935   8.474
20076SOL    HW162125   8.607   0.950   8.454
20076SOL    HW262126   8.699   0.873   8.547
20077SOL     OW62127  14.849   1.789   5.201
20077SOL    HW162128   0.066   1.782   5.240
20077SOL    HW262129  14.834   1.704   5.160
20078SOL     OW62130   0.546  11.516  11.048
20078SOL    HW162131   0.531  11.606  11.019
20078SOL    HW262132   0.637  11.516  11.079
20079SOL     OW62133   4.568   6.598   2.139
20079SOL    HW162134   4.550   6.580   2.046
20079SOL    HW262135   4.654   6.640   2.139
20080SOL     OW62136   2.145   8.353   9.058
20080SOL    HW162137   2.215   8.413   9.033
20080SOL    HW262138   2.068   8.409   9.069
20081SOL     OW62139   4.025   2.477   2.511
20081SOL    HW162140   3.960   2.548   2.509
20081SOL    HW262141   4.020   2.439   2.423
20082SOL     OW62142   9.449  13.596   7.882
20082SOL    HW162143   9.516  13.572   7.817
20082SOL    HW262144   9.481  13.677   7.921
20083SOL     OW62145  10.047   7.633   9.760
20083SOL    HW162146  10.092   7.603   9.680
20083SOL    HW262147  10.042   7.728   9.750
20084SOL     OW62148   2.526  11.786   4.433
20084SOL    HW162149   2.516  11.708   4.487
20084SOL    HW262150   2.621  11.797   4.424
20085SOL     OW62151   4.178   5.755   4.002
20085SOL    HW162152   4.198   5.731   4.093
20085SOL    HW262153   4.260   5.793   3.969
20086SOL     OW62154   5.159   8.125   5.752
20086SOL    HW162155   5.212   8.045   5.759
20086SOL    HW262156   5.077   8.102   5.795
20087SOL     OW62157   6.942  11.620   7.595
20087SOL    HW162158   6.862  11.673   7.585
20087SOL    HW262159   6.909  11.532   7.613
20088SOL     OW62160   1.509  12.653   7.897
20088SOL    HW162161   1.428  12.618   7.860
20088SOL    HW262162   1.480  12.728   7.950
20089SOL     OW62163   4.367  12.971   5.671
20089SOL    HW162164   4.420  13.011   5.741
20089SOL    HW262165   4.284  12.949   5.714
20090SOL     OW62166   4.083   5.464   4.027
20090SOL    HW162167   4.148   5.402   4.059
20090SOL    HW262168   4.125   5.508   3.953
20091SOL     OW62169   9.219   9.356   9.113
20091SOL    HW162170   9.273   9.432   9.094
20091SOL    HW262171   9.148   9.389   9.167
20092SOL     OW62172  10.543   3.333   2.721
20092SOL    HW162173  10.447   3.339   2.721
20092SOL    HW262174  10.562   3.257   2.776
20093SOL     OW62175   3.295   4.854   0.551
20093SOL    HW162176   3.330   4.891   0.469
20093SOL    HW262177   3.201   4.873   0.547
20094SOL     OW62178  14.369   8.856  12.673
20094SOL    HW162179  14.428   8.885  12.604
20094SOL    HW262180  14.285   8.897  12.652
20095SOL     OW62181  11.759   9.563   3.928
20095SOL    HW162182  11.711   9.535   3.850
20095SOL    HW262183  11.834   9.613   3.894
20096SOL     OW62184   8.001   9.680  11.998
20096SOL    HW162185   7.939   9.669  11.926
20096SOL    HW262186   8.028   9.771  11.992
20097SOL     OW62187   8.032   9.044  10.668
20097SOL    HW162188   7.953   9.016  10.622
20097SOL    HW262189   8.062   8.965  10.713
20098SOL     OW62190  12.896  14.527  11.591
20098SOL    HW162191  12.922  14.596  11.652
20098SOL    HW262192  12.846  14.573  11.524
20099SOL     OW62193   8.256   4.927   5.176
20099SOL    HW162194   8.184   4.950   5.117
20099SOL    HW262195   8.312   4.869   5.125
20100SOL     OW62196  10.549   4.834   1.659
20100SOL    HW162197  10.590   4.891   1.724
20100SOL    HW262198  10.619   4.775   1.630
20101SOL     OW62199   3.307  14.288  11.938
20101SOL    HW162200   3.367  14.229  11.893
20101SOL    HW262201   3.343  14.376  11.920
20102SOL     OW62202  14.496   5.364  10.455
20102SOL    HW162203  14.488   5.459  10.440
20102SOL    HW262204  14.524   5.357  10.546
20103SOL     OW62205   5.528   9.709   2.990
20103SOL    HW162206   5.568   9.625   2.968
20103SOL    HW262207   5.552   9.767   2.918
20104SOL     OW62208   2.919  12.828  14.226
20104SOL    HW162209   3.014  12.837  14.235
20104SOL    HW262210   2.902  12.734  14.240
20105SOL     OW62211   6.617   1.479  12.748
20105SOL    HW162212   6.710   1.499  12.757
20105SOL    HW262213   6.574   1.564  12.744
20106SOL     OW62214  11.614   6.801   6.236
20106SOL    HW162215  11.582   6.711   6.242
20106SOL    HW262216  11.535   6.853   6.221
20107SOL     OW62217   6.100   2.185   4.420
20107SOL    HW162218   6.117   2.241   4.345
20107SOL    HW262219   6.174   2.124   4.422
20108SOL     OW62220   1.258   8.324   4.767
20108SOL    HW162221   1.325   8.308   4.833
20108SOL    HW262222   1.304   8.370   4.697
20109SOL     OW62223  12.114  13.268  10.858
20109SOL    HW162224  12.020  13.253  10.863
20109SOL    HW262225  12.153  13.191  10.901
20110SOL     OW62226   6.570   9.323  10.260
20110SOL    HW162227   6.478   9.301  10.246
20110SOL    HW262228   6.578   9.412  10.225
20111SOL     OW62229   8.560   7.234   7.022
20111SOL    HW162230   8.531   7.296   6.956
20111SOL    HW262231   8.479   7.192   7.052
20112SOL     OW62232  10.622  11.371   6.746
20112SOL    HW162233  10.700  11.401   6.792
20112SOL    HW262234  10.580  11.311   6.808
20113SOL     OW62235  14.162  13.558   0.636
20113SOL    HW162236  14.225  13.512   0.690
20113SOL    HW262237  14.099  13.491   0.609
20114SOL     OW62238  14.029   2.481  14.624
20114SOL    HW162239  14.073   2.545  14.680
20114SOL    HW262240  14.080   2.482  14.542
20115SOL     OW62241   9.789   3.387  10.049
20115SOL    HW162242   9.695   3.390  10.070
20115SOL    HW262243   9.826   3.462  10.095
20116SOL     OW62244   7.046  12.879   7.487
20116SOL    HW162245   7.133  12.837   7.489
20116SOL    HW262246   7.010  12.857   7.401
20117SOL     OW62247   8.821   7.286   0.062
20117SOL    HW162248   8.822   7.350   0.133
20117SOL    HW262249   8.903   7.301   0.015
20118SOL     OW62250   3.495   3.697   3.597
20118SOL    HW162251   3.515   3.731   3.509
20118SOL    HW262252   3.580   3.683   3.637
20119SOL     OW62253   6.288   0.716   4.840
20119SOL    HW162254   6.204   0.710   4.885
20119SOL    HW262255   6.269   0.693   4.749
20120SOL     OW62256   6.451  10.330  12.496
20120SOL    HW162257   6.472  10.389  12.568
20120SOL    HW262258   6.424  10.387  12.424
20121SOL     OW62259   6.493   1.483   3.518
20121SOL    HW162260   6.473   1.573   3.543
20121SOL    HW262261   6.437   1.429   3.573
20122SOL     OW62262  11.396   5.692   9.851
20122SOL    HW162263  11.467   5.630   9.867
20122SOL    HW262264  11.437   5.778   9.859
20123SOL     OW62265  12.678  14.004   3.998
20123SOL    HW162266  12.687  13.914   4.028
20123SOL    HW262267  12.725  14.007   3.915
20124SOL     OW62268  13.338   4.771   4.234
20124SOL    HW162269  13.350   4.714   4.310
20124SOL    HW262270  13.408   4.746   4.174
20125SOL     OW62271  12.309   7.220  13.998
20125SOL    HW162272  12.340   7.291  13.943
20125SOL    HW262273  12.369   7.147  13.980
20126SOL     OW62274   7.424   1.943   0.106
20126SOL    HW162275   7.484   1.871   0.088
20126SOL    HW262276   7.338   1.900   0.114
20127SOL     OW62277   7.435  11.183   1.259
20127SOL    HW162278   7.506  11.143   1.209
20127SOL    HW262279   7.356  11.162   1.208
20128SOL     OW62280   3.626  14.477   1.320
20128SOL    HW162281   3.714  14.458   1.352
20128SOL    HW262282   3.619  14.573   1.323
20129SOL     OW62283   2.232   7.478   6.760
20129SOL    HW162284   2.259   7.458   6.671
20129SOL    HW262285   2.293   7.429   6.815
20130SOL     OW62286  12.218  14.685  12.158
20130SOL    HW162287  12.177  14.762  12.118
20130SOL    HW262288  12.169  14.670  12.238
20131SOL     OW62289   3.857   8.550   7.533
20131SOL    HW162290   3.772   8.555   7.489
20131SOL    HW262291   3.856   8.464   7.577
20132SOL     OW62292  12.980   5.439   0.561
20132SOL    HW162293  13.011   5.353   0.588
20132SOL    HW262294  12.884   5.432   0.563
20133SOL     OW62295   4.354  13.553  13.276
20133SOL    HW162296   4.386  13.618  13.338
20133SOL    HW262297   4.272  13.589  13.243
20134SOL     OW62298   9.848  12.100   6.736
20134SOL    HW162299   9.831  12.161   6.808
20134SOL    HW262300   9.763  12.061   6.718
20135SOL     OW62301   5.200   3.839   7.273
20135SOL    HW162302   5.118   3.840   7.222
20135SOL    HW262303   5.201   3.923   7.319
20136SOL     OW62304   1.247   4.532   2.990
20136SOL    HW162305   1.271   4.586   2.915
20136SOL    HW262306   1.311   4.556   3.057
20137SOL     OW62307  11.908   8.208   0.919
20137SOL    HW162308  11.950   8.289   0.891
20137SOL    HW262309  11.862   8.176   0.842
20138SOL     OW62310   7.551   6.060   0.910
20138SOL    HW162311   7.545   6.020   0.997
20138SOL    HW262312   7.479   6.019   0.860
20139SOL     OW62313   6.981   5.380   1.780
20139SOL    HW162314   6.930   5.299   1.786
20139SOL    HW262315   7.067   5.352   1.751
20140SOL     OW62316  12.810   7.612   4.971
20140SOL    HW162317  12.820   7.667   5.049
20140SOL    HW262318  12.736   7.652   4.924
20141SOL     OW62319   2.208   8.928  12.848
20141SOL    HW162320   2.280   8.884  12.894
20141SOL    HW262321   2.138   8.863  12.845
20142SOL     OW62322   1.226   0.075   9.516
20142SOL    HW162323   1.146   0.024   9.505
20142SOL    HW262324   1.203   0.162   9.485
20143SOL     OW62325   8.392   9.537  12.794
20143SOL    HW162326   8.391   9.442  12.798
20143SOL    HW262327   8.406   9.557  12.701
20144SOL     OW62328   0.794  10.853  14.650
20144SOL    HW162329   0.745  10.771  14.646
20144SOL    HW262330   0.885  10.827  14.640
20145SOL     OW62331  10.647   9.483   6.695
20145SOL    HW162332  10.697   9.543   6.750
20145SOL    HW262333  10.699   9.403   6.693
20146SOL     OW62334   4.501  12.137  11.854
20146SOL    HW162335   4.458  12.123  11.770
20146SOL    HW262336   4.558  12.212  11.840
20147SOL     OW62337   9.442  12.444   1.804
20147SOL    HW162338   9.510  12.480   1.862
20147SOL    HW262339   9.474  12.462   1.716
20148SOL     OW62340   1.170   0.033   2.220
20148SOL    HW162341   1.080  14.869   2.218
20148SOL    HW262342   1.170   0.095   2.294
20149SOL     OW62343  12.361   9.215  11.919
20149SOL    HW162344  12.336   9.216  11.827
20149SOL    HW262345  12.453   9.187  11.919
20150SOL     OW62346  13.163   3.622   1.485
20150SOL    HW162347  13.251   3.628   1.522
20150SOL    HW262348  13.168   3.551   1.422
20151SOL     OW62349   9.305   4.777   0.035
20151SOL    HW162350   9.390   4.818   0.020
20151SOL    HW262351   9.265   4.829   0.105
20152SOL     OW62352  14.636  10.442  12.830
20152SOL    HW162353  14.705  10.379  12.848
20152SOL    HW262354  14.682  10.524  12.814
20153SOL     OW62355   8.817  12.042  13.339
20153SOL    HW162356   8.889  11.979  13.329
20153SOL    HW262357   8.768  12.009  13.414
20154SOL     OW62358  11.002   5.649   3.949
20154SOL    HW162359  10.922   5.626   3.901
20154SOL    HW262360  10.983   5.626   4.040
20155SOL     OW62361   1.612  12.200   5.495
20155SOL    HW162362   1.580  12.287   5.472
20155SOL    HW262363   1.573  12.142   5.429
20156SOL     OW62364   9.740  13.028   1.077
20156SOL    HW162365   9.645  13.042   1.069
20156SOL    HW262366   9.748  12.941   1.116
20157SOL     OW62367   9.390  11.528   5.960
20157SOL    HW162368   9.346  11.610   5.980
20157SOL    HW262369   9.481  11.553   5.943
20158SOL     OW62370   4.920   2.752   9.062
20158SOL    HW162371   4.910   2.665   9.023
20158SOL    HW262372   5.009   2.751   9.099
20159SOL     OW62373  14.450  13.393   4.677
20159SOL    HW162374  14.529  13.342   4.695
20159SOL    HW262375  14.482  13.472   4.633
20160SOL     OW62376  13.668   4.518   8.512
20160SOL    HW162377  13.751   4.514   8.558
20160SOL    HW262378  13.691   4.537   8.421
20161SOL     OW62379   9.319   9.714   3.473
20161SOL    HW162380   9.248   9.692   3.413
20161SOL    HW262381   9.319   9.810   3.476
20162SOL     OW62382   4.420  10.888   1.181
20162SOL    HW162383   4.342  10.909   1.130
20162SOL    HW262384   4.492  10.894   1.119
20163SOL     OW62385  14.059   4.890  11.935
20163SOL    HW162386  14.067   4.985  11.948
20163SOL    HW262387  14.143   4.855  11.963
20164SOL     OW62388   5.594  14.532   4.763
20164SOL    HW162389   5.516  14.497   4.807
20164SOL    HW262390   5.650  14.562   4.834
20165SOL     OW62391   7.587   8.485   3.995
20165SOL    HW162392   7.565   8.559   4.052
20165SOL    HW262393   7.512   8.476   3.937
20166SOL     OW62394  14.576   3.881   2.333
20166SOL    HW162395  14.618   3.840   2.408
20166SOL    HW262396  14.523   3.951   2.370
20167SOL     OW62397   3.271   4.830   2.814
20167SOL    HW162398   3.179   4.813   2.795
20167SOL    HW262399   3.297   4.760   2.873
20168SOL     OW62400  12.033   1.567   6.411
20168SOL    HW162401  12.115   1.617   6.402
20168SOL    HW262402  11.995   1.599   6.492
20169SOL     OW62403   9.362  13.201   9.585
20169SOL    HW162404   9.343  13.265   9.653
20169SOL    HW262405   9.289  13.208   9.523
20170SOL     OW62406   2.691   9.556  10.542
20170SOL    HW162407   2.779   9.560  10.504
20170SOL    HW262408   2.673   9.647  10.568
20171SOL     OW62409  14.827  14.057   8.059
20171SOL    HW162410  14.840  14.096   7.973
20171SOL    HW262411  14.758  13.992   8.045
20172SOL     OW62412   9.668   3.776   2.836
20172SOL    HW162413   9.600   3.724   2.793
20172SOL    HW262414   9.703   3.831   2.767
20173SOL     OW62415   4.774   3.050   2.195
20173SOL    HW162416   4.761   3.142   2.215
20173SOL    HW262417   4.851   3.024   2.246
20174SOL     OW62418   0.185   4.985  10.756
20174SOL    HW162419   0.233   4.955  10.679
20174SOL    HW262420   0.139   5.064  10.726
20175SOL     OW62421   8.098   6.913   5.714
20175SOL    HW162422   8.090   6.894   5.808
20175SOL    HW262423   8.123   6.829   5.675
20176SOL     OW62424  10.466   2.423   5.095
20176SOL    HW162425  10.391   2.473   5.064
20176SOL    HW262426  10.428   2.344   5.133
20177SOL     OW62427  13.772  12.523  11.489
20177SOL    HW162428  13.691  12.483  11.459
20177SOL    HW262429  13.816  12.455  11.539
20178SOL     OW62430   6.096   0.827  11.068
20178SOL    HW162431   6.147   0.746  11.072
20178SOL    HW262432   6.018   0.809  11.120
20179SOL     OW62433  14.738   8.765   7.042
20179SOL    HW162434  14.731   8.857   7.068
20179SOL    HW262435  14.664   8.722   7.086
20180SOL     OW62436   4.766   2.677   3.279
20180SOL    HW162437   4.787   2.613   3.348
20180SOL    HW262438   4.699   2.733   3.318
20181SOL     OW62439  13.008   3.094   5.993
20181SOL    HW162440  12.926   3.116   6.037
20181SOL    HW262441  13.005   3.143   5.911
20182SOL     OW62442   0.358   1.397  13.884
20182SOL    HW162443   0.442   1.418  13.924
20182SOL    HW262444   0.297   1.459  13.925
20183SOL     OW62445  13.495   7.058   3.898
20183SOL    HW162446  13.416   7.100   3.864
20183SOL    HW262447  13.524   6.999   3.828
20184SOL     OW62448   6.625   9.008   9.888
20184SOL    HW162449   6.574   8.965   9.957
20184SOL    HW262450   6.580   9.090   9.872
20185SOL     OW62451   9.113   5.714  13.468
20185SOL    HW162452   9.046   5.760  13.519
20185SOL    HW262453   9.108   5.754  13.381
20186SOL     OW62454   5.132   1.173   0.866
20186SOL    HW162455   5.138   1.112   0.940
20186SOL    HW262456   5.190   1.245   0.889
20187SOL     OW62457   3.482  11.713  12.098
20187SOL    HW162458   3.473  11.686  12.189
20187SOL    HW262459   3.508  11.805  12.102
20188SOL     OW62460   2.674   6.009   2.929
20188SOL    HW162461   2.694   6.003   2.836
20188SOL    HW262462   2.631   5.926   2.949
20189SOL     OW62463   6.948   4.497   5.425
20189SOL    HW162464   6.860   4.514   5.458
20189SOL    HW262465   6.974   4.579   5.383
20190SOL     OW62466   4.861   2.411   5.803
20190SOL    HW162467   4.847   2.318   5.786
20190SOL    HW262468   4.895   2.446   5.721
20191SOL     OW62469   1.401   2.881   5.225
20191SOL    HW162470   1.339   2.824   5.181
20191SOL    HW262471   1.431   2.941   5.157
20192SOL     OW62472   8.412   3.208   9.393
20192SOL    HW162473   8.394   3.297   9.364
20192SOL    HW262474   8.358   3.153   9.336
20193SOL     OW62475  14.392   6.727  11.601
20193SOL    HW162476  14.445   6.661  11.645
20193SOL    HW262477  14.301   6.707  11.625
20194SOL     OW62478  12.977  11.744   3.143
20194SOL    HW162479  12.998  11.816   3.083
20194SOL    HW262480  12.905  11.779   3.196
20195SOL     OW62481  12.351   0.552   0.203
20195SOL    HW162482  12.259   0.563   0.227
20195SOL    HW262483  12.374   0.466   0.236
20196SOL     OW62484   6.579  13.271   0.867
20196SOL    HW162485   6.569  13.347   0.925
20196SOL    HW262486   6.588  13.197   0.927
20197SOL     OW62487  14.269   6.158   2.735
20197SOL    HW162488  14.209   6.232   2.728
20197SOL    HW262489  14.213   6.081   2.731
20198SOL     OW62490   2.543   6.565   4.016
20198SOL    HW162491   2.553   6.538   3.925
20198SOL    HW262492   2.457   6.532   4.041
20199SOL     OW62493   2.562   1.318   0.347
20199SOL    HW162494   2.516   1.401   0.359
20199SOL    HW262495   2.570   1.281   0.435
20200SOL     OW62496   4.785  13.440   0.961
20200SOL    HW162497   4.853  13.386   1.002
20200SOL    HW262498   4.834  13.506   0.911
20201SOL     OW62499   6.162  14.327   8.245
20201SOL    HW162500   6.222  14.393   8.210
20201SOL    HW262501   6.194  14.312   8.334
20202SOL     OW62502  13.027   0.222  13.164
20202SOL    HW162503  12.981   0.270  13.095
20202SOL    HW262504  13.118   0.220  13.136
20203SOL     OW62505   9.274   4.004   6.795
20203SOL    HW162506   9.249   4.091   6.825
20203SOL    HW262507   9.232   3.995   6.709
20204SOL     OW62508   8.955   7.221  12.579
20204SOL    HW162509   8.927   7.296  12.630
20204SOL    HW262510   8.875   7.187  12.539
20205SOL     OW62511   1.307  11.580   4.234
20205SOL    HW162512   1.286  11.650   4.173
20205SOL    HW262513   1.365  11.620   4.299
20206SOL     OW62514  12.454  11.137   0.860
20206SOL    HW162515  12.408  11.184   0.930
20206SOL    HW262516  12.394  11.067   0.835
20207SOL     OW62517   0.740   0.813   9.406
20207SOL    HW162518   0.778   0.826   9.319
20207SOL    HW262519   0.662   0.759   9.390
20208SOL     OW62520   1.643   0.536  11.388
20208SOL    HW162521   1.737   0.554  11.377
20208SOL    HW262522   1.599   0.606  11.340
20209SOL     OW62523  14.023   9.725  12.493
20209SOL    HW162524  14.050   9.809  12.532
20209SOL    HW262525  13.982   9.749  12.410
20210SOL     OW62526   9.466   5.156   7.182
20210SOL    HW162527   9.555   5.147   7.150
20210SOL    HW262528   9.431   5.233   7.136
20211SOL     OW62529   1.285  11.693   0.647
20211SOL    HW162530   1.344  11.758   0.609
20211SOL    HW262531   1.280  11.624   0.581
20212SOL     OW62532   1.425   7.751  10.882
20212SOL    HW162533   1.378   7.678  10.841
20212SOL    HW262534   1.369   7.827  10.867
20213SOL     OW62535   1.726   4.372  13.213
20213SOL    HW162536   1.803   4.366  13.268
20213SOL    HW262537   1.665   4.427  13.262
20214SOL     OW62538   5.094   7.491   4.777
20214SOL    HW162539   5.118   7.403   4.746
20214SOL    HW262540   5.150   7.504   4.854
20215SOL     OW62541   7.312   5.606   7.082
20215SOL    HW162542   7.326   5.521   7.123
20215SOL    HW262543   7.391   5.619   7.028
20216SOL     OW62544  10.623   1.701   9.320
20216SOL    HW162545  10.713   1.731   9.317
20216SOL    HW262546  10.628   1.607   9.302
20217SOL     OW62547   7.896   2.076  14.557
20217SOL    HW162548   7.891   2.148  14.494
20217SOL    HW262549   7.937   2.115  14.634
20218SOL     OW62550   8.139   7.396  14.795
20218SOL    HW162551   8.126   7.308  14.831
20218SOL    HW262552   8.072   7.405  14.728
20219SOL     OW62553  14.331   8.930  11.134
20219SOL    HW162554  14.375   9.000  11.086
20219SOL    HW262555  14.285   8.975  11.204
20220SOL     OW62556  14.482  13.478  13.635
20220SOL    HW162557  14.483  13.475  13.730
20220SOL    HW262558  14.451  13.567  13.614
20221SOL     OW62559   6.638   9.937   4.291
20221SOL    HW162560   6.592  10.006   4.244
20221SOL    HW262561   6.725   9.935   4.252
20222SOL     OW62562  10.634   2.746   3.081
20222SOL    HW162563  10.645   2.775   2.990
20222SOL    HW262564  10.586   2.663   3.074
20223SOL     OW62565  11.594  10.694   4.299
20223SOL    HW162566  11.589  10.757   4.227
20223SOL    HW262567  11.626  10.613   4.258
20224SOL     OW62568  11.579   9.081   0.365
20224SOL    HW162569  11.517   9.154   0.355
20224SOL    HW262570  11.524   9.003   0.367
20225SOL     OW62571   1.994  13.654  12.617
20225SOL    HW162572   1.991  13.651  12.521
20225SOL    HW262573   1.937  13.728  12.640
20226SOL     OW62574   3.146   8.016  13.427
20226SOL    HW162575   3.198   8.026  13.347
20226SOL    HW262576   3.190   7.946  13.475
20227SOL     OW62577   6.728  12.462   1.623
20227SOL    HW162578   6.748  12.453   1.530
20227SOL    HW262579   6.711  12.555   1.636
20228SOL     OW62580   2.187   8.229   1.801
20228SOL    HW162581   2.114   8.248   1.861
20228SOL    HW262582   2.160   8.267   1.718
20229SOL     OW62583   2.526   4.403   6.349
20229SOL    HW162584   2.461   4.472   6.365
20229SOL    HW262585   2.517   4.383   6.256
20230SOL     OW62586   4.996   9.559   9.375
20230SOL    HW162587   5.066   9.613   9.338
20230SOL    HW262588   4.994   9.481   9.320
20231SOL     OW62589   4.837   1.836   0.268
20231SOL    HW162590   4.767   1.865   0.327
20231SOL    HW262591   4.830   1.894   0.192
20232SOL     OW62592   1.159   0.749   6.867
20232SOL    HW162593   1.168   0.826   6.922
20232SOL    HW262594   1.242   0.703   6.876
20233SOL     OW62595  14.117   7.102  11.710
20233SOL    HW162596  14.026   7.120  11.684
20233SOL    HW262597  14.162   7.186  11.700
20234SOL     OW62598  12.131   1.127  14.325
20234SOL    HW162599  12.204   1.156  14.270
20234SOL    HW262600  12.066   1.094  14.262
20235SOL     OW62601   6.623   1.743  12.731
20235SOL    HW162602   6.544   1.796  12.735
20235SOL    HW262603   6.689   1.802  12.693
20236SOL     OW62604   6.251   7.899   4.639
20236SOL    HW162605   6.174   7.934   4.593
20236SOL    HW262606   6.295   7.976   4.675
20237SOL     OW62607  13.355   3.006  13.216
20237SOL    HW162608  13.344   2.938  13.148
20237SOL    HW262609  13.410   3.072  13.174
20238SOL     OW62610   7.587   9.859  13.069
20238SOL    HW162611   7.591   9.786  13.131
20238SOL    HW262612   7.520   9.917  13.105
20239SOL     OW62613  11.043   3.716  11.510
20239SOL    HW162614  10.964   3.718  11.456
20239SOL    HW262615  11.110   3.679  11.453
20240SOL     OW62616   9.786  11.757   7.524
20240SOL    HW162617   9.785  11.685   7.586
20240SOL    HW262618   9.829  11.722   7.446
20241SOL     OW62619   6.045  11.495   6.143
20241SOL    HW162620   5.989  11.558   6.188
20241SOL    HW262621   6.009  11.410   6.167
20242SOL     OW62622  11.407   9.977   2.887
20242SOL    HW162623  11.362   9.909   2.937
20242SOL    HW262624  11.394   9.951   2.795
20243SOL     OW62625   9.016  10.890   7.070
20243SOL    HW162626   9.102  10.898   7.112
20243SOL    HW262627   9.005  10.972   7.022
20244SOL     OW62628   3.377   8.462  11.718
20244SOL    HW162629   3.344   8.495  11.802
20244SOL    HW262630   3.388   8.541  11.665
20245SOL     OW62631   3.604   6.180   4.388
20245SOL    HW162632   3.531   6.170   4.448
20245SOL    HW262633   3.674   6.219   4.441
20246SOL     OW62634   0.545   1.836  13.405
20246SOL    HW162635   0.525   1.874  13.491
20246SOL    HW262636   0.592   1.906  13.359
20247SOL     OW62637  13.472  14.267   5.955
20247SOL    HW162638  13.432  14.291   6.038
20247SOL    HW262639  13.554  14.317   5.952
20248SOL     OW62640  13.113   9.384   1.504
20248SOL    HW162641  13.183   9.396   1.569
20248SOL    HW262642  13.092   9.291   1.509
20249SOL     OW62643   0.936  13.526  10.282
20249SOL    HW162644   0.936  13.431  10.292
20249SOL    HW262645   0.856  13.556  10.325
20250SOL     OW62646   0.050   5.942   2.826
20250SOL    HW162647   0.022   6.032   2.813
20250SOL    HW262648   0.131   5.935   2.776
20251SOL     OW62649  11.779   7.278  11.195
20251SOL    HW162650  11.736   7.202  11.232
20251SOL    HW262651  11.712   7.320  11.141
20252SOL     OW62652  12.693   8.576   2.461
20252SOL    HW162653  12.738   8.543   2.540
20252SOL    HW262654  12.614   8.619   2.495
20253SOL     OW62655  10.252   9.399  13.279
20253SOL    HW162656  10.296   9.479  13.251
20253SOL    HW262657  10.159   9.421  13.278
20254SOL     OW62658  12.631   5.928   7.748
20254SOL    HW162659  12.625   6.015   7.710
20254SOL    HW262660  12.688   5.879   7.688
20255SOL     OW62661   6.601   1.877  14.606
20255SOL    HW162662   6.524   1.897  14.552
20255SOL    HW262663   6.573   1.896  14.696
20256SOL     OW62664  14.760   5.381   2.408
20256SOL    HW162665  14.796   5.429   2.333
20256SOL    HW262666  14.824   5.395   2.478
20257SOL     OW62667  11.251   0.766   7.977
20257SOL    HW162668  11.340   0.752   7.944
20257SOL    HW262669  11.262   0.795   8.067
20258SOL     OW62670  10.936  10.358   9.606
20258SOL    HW162671  10.861  10.341   9.663
20258SOL    HW262672  11.011  10.361   9.666
20259SOL     OW62673   7.994  11.658  10.463
20259SOL    HW162674   8.046  11.663  10.382
20259SOL    HW262675   8.022  11.576  10.504
20260SOL     OW62676   3.105   4.782   2.154
20260SOL    HW162677   3.030   4.805   2.209
20260SOL    HW262678   3.075   4.803   2.065
20261SOL     OW62679  14.868   8.354   9.681
20261SOL    HW162680   0.034   8.442   9.679
20261SOL    HW262681  14.808   8.353   9.756
20262SOL     OW62682  12.907  11.759   9.760
20262SOL    HW162683  12.960  11.824   9.713
20262SOL    HW262684  12.875  11.805   9.837
20263SOL     OW62685  12.830  10.887   3.273
20263SOL    HW162686  12.795  10.806   3.236
20263SOL    HW262687  12.755  10.946   3.275
20264SOL     OW62688  12.499   5.406   7.993
20264SOL    HW162689  12.408   5.423   8.014
20264SOL    HW262690  12.542   5.491   8.003
20265SOL     OW62691   7.468   1.794  12.123
20265SOL    HW162692   7.495   1.703  12.109
20265SOL    HW262693   7.510   1.843  12.052
20266SOL     OW62694  13.843  10.935   1.909
20266SOL    HW162695  13.842  10.869   1.840
20266SOL    HW262696  13.924  10.918   1.957
20267SOL     OW62697   7.579   2.021  13.136
20267SOL    HW162698   7.490   2.030  13.169
20267SOL    HW262699   7.630   1.990  13.211
20268SOL     OW62700   9.165   0.011   8.244
20268SOL    HW162701   9.255   0.040   8.228
20268SOL    HW262702   9.116   0.045   8.169
20269SOL     OW62703   4.034  10.799  10.789
20269SOL    HW162704   4.101  10.738  10.758
20269SOL    HW262705   4.014  10.853  10.713
20270SOL     OW62706  11.042   9.946  13.468
20270SOL    HW162707  10.984   9.982  13.536
20270SOL    HW262708  11.117   9.912  13.517
20271SOL     OW62709   6.273   6.088   1.273
20271SOL    HW162710   6.195   6.105   1.219
20271SOL    HW262711   6.297   6.174   1.308
20272SOL     OW62712  14.434  12.409   1.064
20272SOL    HW162713  14.507  12.446   1.114
20272SOL    HW262714  14.388  12.353   1.127
20273SOL     OW62715  12.577   8.685  10.003
20273SOL    HW162716  12.638   8.615  10.025
20273SOL    HW262717  12.504   8.641   9.959
20274SOL     OW62718  10.215   7.843   7.141
20274SOL    HW162719  10.160   7.919   7.158
20274SOL    HW262720  10.168   7.793   7.075
20275SOL     OW62721  13.503   2.534   4.190
20275SOL    HW162722  13.481   2.591   4.117
20275SOL    HW262723  13.446   2.562   4.261
20276SOL     OW62724   4.836  10.019  11.693
20276SOL    HW162725   4.878  10.079  11.755
20276SOL    HW262726   4.906   9.959  11.667
20277SOL     OW62727   2.299   9.981   5.221
20277SOL    HW162728   2.389   9.949   5.232
20277SOL    HW262729   2.259   9.919   5.159
20278SOL     OW62730   6.950   5.071  11.613
20278SOL    HW162731   6.861   5.097  11.590
20278SOL    HW262732   6.952   5.076  11.709
20279SOL     OW62733   0.958  12.184   5.843
20279SOL    HW162734   0.913  12.100   5.854
20279SOL    HW262735   1.012  12.173   5.765
20280SOL     OW62736   8.451   3.393   5.189
20280SOL    HW162737   8.372   3.397   5.242
20280SOL    HW262738   8.515   3.348   5.244
20281SOL     OW62739   7.872   4.961   1.189
20281SOL    HW162740   7.900   4.880   1.232
20281SOL    HW262741   7.952   5.013   1.182
20282SOL     OW62742   7.553   9.587   7.948
20282SOL    HW162743   7.613   9.562   8.018
20282SOL    HW262744   7.498   9.655   7.986
20283SOL     OW62745  10.031   1.335  12.007
20283SOL    HW162746  10.105   1.276  12.024
20283SOL    HW262747   9.957   1.292  12.050
20284SOL     OW62748  11.480   7.943  12.804
20284SOL    HW162749  11.425   7.988  12.740
20284SOL    HW262750  11.471   7.996  12.884
20285SOL     OW62751   8.487   8.811   3.799
20285SOL    HW162752   8.533   8.730   3.777
20285SOL    HW262753   8.501   8.868   3.724
20286SOL     OW62754   2.466   9.057  14.802
20286SOL    HW162755   2.472   9.062  14.707
20286SOL    HW262756   2.378   9.024  14.819
20287SOL     OW62757   3.662   5.317  11.675
20287SOL    HW162758   3.601   5.362  11.617
20287SOL    HW262759   3.676   5.379  11.747
20288SOL     OW62760   6.717   2.388   5.887
20288SOL    HW162761   6.754   2.455   5.829
20288SOL    HW262762   6.734   2.306   5.842
20289SOL     OW62763   3.213  14.762   7.712
20289SOL    HW162764   3.143  14.804   7.762
20289SOL    HW262765   3.239  14.687   7.764
20290SOL     OW62766  10.889   1.714   5.505
20290SOL    HW162767  10.874   1.807   5.486
20290SOL    HW262768  10.816   1.689   5.561
20291SOL     OW62769  10.948   4.375  13.560
20291SOL    HW162770  10.971   4.346  13.649
20291SOL    HW262771  10.905   4.460  13.572
20292SOL     OW62772  11.297  11.700   0.984
20292SOL    HW162773  11.387  11.702   1.017
20292SOL    HW262774  11.268  11.610   0.999
20293SOL     OW62775  10.561   8.753   4.084
20293SOL    HW162776  10.528   8.839   4.111
20293SOL    HW262777  10.536   8.694   4.156
20294SOL     OW62778   6.769   0.330  13.930
20294SOL    HW162779   6.790   0.245  13.892
20294SOL    HW262780   6.810   0.393  13.872
20295SOL     OW62781   1.220  14.635  13.116
20295SOL    HW162782   1.139  14.685  13.130
20295SOL    HW262783   1.194  14.562  13.060
20296SOL     OW62784   6.143   2.664   1.428
20296SOL    HW162785   6.059   2.640   1.467
20296SOL    HW262786   6.139   2.760   1.422
20297SOL     OW62787   0.006  13.332  10.663
20297SOL    HW162788   0.085  13.365  10.706
20297SOL    HW262789   0.038  13.285  10.586
20298SOL     OW62790  12.589   4.823   5.992
20298SOL    HW162791  12.526   4.765   6.035
20298SOL    HW262792  12.647   4.852   6.062
20299SOL     OW62793  11.944   7.484   6.259
20299SOL    HW162794  11.850   7.478   6.280
20299SOL    HW262795  11.946   7.526   6.173
20300SOL     OW62796   9.466   7.984  10.789
20300SOL    HW162797   9.377   7.983  10.825
20300SOL    HW262798   9.493   7.892  10.792
20301SOL     OW62799   6.038   2.095   2.513
20301SOL    HW162800   6.085   2.103   2.595
20301SOL    HW262801   5.968   2.032   2.531
20302SOL     OW62802  12.863   3.115   2.493
20302SOL    HW162803  12.861   3.165   2.575
20302SOL    HW262804  12.785   3.144   2.445
20303SOL     OW62805   4.166   0.816   8.707
20303SOL    HW162806   4.211   0.896   8.733
20303SOL    HW262807   4.201   0.748   8.765
20304SOL     OW62808  12.329  12.139  11.240
20304SOL    HW162809  12.398  12.173  11.297
20304SOL    HW262810  12.316  12.049  11.269
20305SOL     OW62811   9.650  12.115  10.430
20305SOL    HW162812   9.652  12.122  10.526
20305SOL    HW262813   9.584  12.179  10.403
20306SOL     OW62814   9.703  10.091  11.506
20306SOL    HW162815   9.762  10.165  11.520
20306SOL    HW262816   9.759  10.020  11.475
20307SOL     OW62817  12.525  13.967   7.882
20307SOL    HW162818  12.568  13.920   7.811
20307SOL    HW262819  12.473  14.035   7.838
20308SOL     OW62820  14.519   9.670   0.611
20308SOL    HW162821  14.496   9.734   0.544
20308SOL    HW262822  14.485   9.708   0.693
20309SOL     OW62823   3.713   9.569   7.646
20309SOL    HW162824   3.770   9.500   7.681
20309SOL    HW262825   3.772   9.643   7.631
20310SOL     OW62826   1.673   0.009  11.110
20310SOL    HW162827   1.735  14.848  11.177
20310SOL    HW262828   1.632   0.085  11.150
20311SOL     OW62829   7.136   1.608  14.787
20311SOL    HW162830   7.228   1.586  14.769
20311SOL    HW262831   7.093   1.524  14.799
20312SOL     OW62832   4.753   9.852   0.230
20312SOL    HW162833   4.779   9.799   0.154
20312SOL    HW262834   4.773   9.797   0.306
20313SOL     OW62835   2.312  11.715   6.553
20313SOL    HW162836   2.332  11.679   6.466
20313SOL    HW262837   2.247  11.654   6.589
20314SOL     OW62838   5.120   0.045   6.319
20314SOL    HW162839   5.065   0.116   6.350
20314SOL    HW262840   5.125  14.854   6.393
20315SOL     OW62841   6.505   6.646   8.735
20315SOL    HW162842   6.477   6.735   8.713
20315SOL    HW262843   6.596   6.656   8.761
20316SOL     OW62844  10.767   6.582  13.221
20316SOL    HW162845  10.819   6.656  13.188
20316SOL    HW262846  10.748   6.604  13.312
20317SOL     OW62847   4.433   7.468  11.418
20317SOL    HW162848   4.477   7.424  11.491
20317SOL    HW262849   4.341   7.466  11.442
20318SOL     OW62850   4.630   4.211  10.792
20318SOL    HW162851   4.682   4.193  10.714
20318SOL    HW262852   4.600   4.301  10.780
20319SOL     OW62853   5.184   4.959   5.883
20319SOL    HW162854   5.103   4.929   5.840
20319SOL    HW262855   5.174   4.932   5.974
20320SOL     OW62856   9.768  11.942   0.698
20320SOL    HW162857   9.818  11.862   0.714
20320SOL    HW262858   9.735  11.933   0.609
20321SOL     OW62859  11.583   4.434  11.585
20321SOL    HW162860  11.612   4.497  11.519
20321SOL    HW262861  11.616   4.349  11.553
20322SOL     OW62862  10.326   2.088  11.157
20322SOL    HW162863  10.251   2.090  11.098
20322SOL    HW262864  10.402   2.105  11.101
20323SOL     OW62865   9.100  11.755   2.020
20323SOL    HW162866   9.133  11.825   1.965
20323SOL    HW262867   9.006  11.772   2.027
20324SOL     OW62868   1.078   4.261  11.607
20324SOL    HW162869   1.114   4.306  11.531
20324SOL    HW262870   0.983   4.272  11.599
20325SOL     OW62871   9.697  10.348   8.616
20325SOL    HW162872   9.760  10.418   8.601
20325SOL    HW262873   9.644  10.345   8.537
20326SOL     OW62874   4.337   2.798   8.491
20326SOL    HW162875   4.245   2.812   8.467
20326SOL    HW262876   4.370   2.885   8.513
20327SOL     OW62877   7.935   5.330   7.329
20327SOL    HW162878   7.978   5.414   7.344
20327SOL    HW262879   7.992   5.284   7.267
20328SOL     OW62880   1.346  14.442  14.404
20328SOL    HW162881   1.359  14.348  14.406
20328SOL    HW262882   1.375  14.468  14.316
20329SOL     OW62883   3.951   4.016   3.647
20329SOL    HW162884   3.899   4.012   3.566
20329SOL    HW262885   3.952   4.109   3.669
20330SOL     OW62886  10.836   4.771   1.498
20330SOL    HW162887  10.877   4.718   1.430
20330SOL    HW262888  10.876   4.858   1.489
20331SOL     OW62889   8.406  12.350   2.697
20331SOL    HW162890   8.471  12.300   2.646
20331SOL    HW262891   8.413  12.314   2.785
20332SOL     OW62892   4.014  13.048   3.287
20332SOL    HW162893   4.089  13.104   3.267
20332SOL    HW262894   3.976  13.086   3.366
20333SOL     OW62895   5.711   2.181   8.740
20333SOL    HW162896   5.626   2.225   8.751
20333SOL    HW262897   5.751   2.223   8.664
20334SOL     OW62898  12.597   2.091  13.755
20334SOL    HW162899  12.560   2.036  13.824
20334SOL    HW262900  12.521   2.117  13.703
20335SOL     OW62901   1.412   4.611   2.661
20335SOL    HW162902   1.432   4.694   2.705
20335SOL    HW262903   1.461   4.545   2.709
20336SOL     OW62904   8.649   6.508   7.100
20336SOL    HW162905   8.675   6.561   7.175
20336SOL    HW262906   8.727   6.506   7.044
20337SOL     OW62907  14.460  11.869   6.449
20337SOL    HW162908  14.388  11.931   6.460
20337SOL    HW262909  14.529  11.921   6.407
20338SOL     OW62910   3.308  10.583   2.448
20338SOL    HW162911   3.216  10.558   2.458
20338SOL    HW262912   3.322  10.650   2.515
20339SOL     OW62913   2.330   0.934   5.819
20339SOL    HW162914   2.331   0.988   5.740
20339SOL    HW262915   2.309   0.847   5.788
20340SOL     OW62916   7.541   0.346   1.618
20340SOL    HW162917   7.559   0.311   1.531
20340SOL    HW262918   7.454   0.315   1.640
20341SOL     OW62919   9.808  14.148   9.385
20341SOL    HW162920   9.851  14.107   9.460
20341SOL    HW262921   9.716  14.123   9.393
20342SOL     OW62922   2.821   8.440   4.227
20342SOL    HW162923   2.829   8.514   4.167
20342SOL    HW262924   2.894   8.382   4.203
20343SOL     OW62925  11.157  12.352   4.920
20343SOL    HW162926  11.203  12.311   4.993
20343SOL    HW262927  11.079  12.299   4.906
20344SOL     OW62928   1.707   9.123  11.244
20344SOL    HW162929   1.704   9.104  11.150
20344SOL    HW262930   1.771   9.194  11.252
20345SOL     OW62931   7.312   4.428   6.349
20345SOL    HW162932   7.250   4.501   6.354
20345SOL    HW262933   7.394   4.465   6.381
20346SOL     OW62934   3.805   8.950  13.875
20346SOL    HW162935   3.874   8.902  13.831
20346SOL    HW262936   3.798   8.910  13.961
20347SOL     OW62937   4.509   1.723   3.097
20347SOL    HW162938   4.545   1.735   3.009
20347SOL    HW262939   4.568   1.660   3.138
20348SOL     OW62940   5.686   1.418  14.528
20348SOL    HW162941   5.713   1.356  14.595
20348SOL    HW262942   5.721   1.502  14.557
20349SOL     OW62943   3.786   6.222   4.170
20349SOL    HW162944   3.730   6.178   4.234
20349SOL    HW262945   3.777   6.171   4.090
20350SOL     OW62946   5.934  10.689   7.380
20350SOL    HW162947   5.939  10.603   7.338
20350SOL    HW262948   5.917  10.670   7.472
20351SOL     OW62949   7.506   2.367   0.082
20351SOL    HW162950   7.506   2.439   0.145
20351SOL    HW262951   7.552   2.401   0.006
20352SOL     OW62952   2.097   1.560   5.194
20352SOL    HW162953   2.074   1.472   5.164
20352SOL    HW262954   2.049   1.570   5.277
20353SOL     OW62955   7.096   6.210   0.843
20353SOL    HW162956   7.007   6.220   0.812
20353SOL    HW262957   7.148   6.268   0.787
20354SOL     OW62958  11.774   8.436   4.382
20354SOL    HW162959  11.737   8.378   4.448
20354SOL    HW262960  11.796   8.516   4.430
20355SOL     OW62961   9.876  13.637  14.163
20355SOL    HW162962   9.968  13.618  14.181
20355SOL    HW262963   9.829  13.560  14.193
20356SOL     OW62964   8.451   4.776  11.684
20356SOL    HW162965   8.501   4.699  11.710
20356SOL    HW262966   8.457   4.835  11.760
20357SOL     OW62967  13.777  10.085  13.460
20357SOL    HW162968  13.762  10.089  13.365
20357SOL    HW262969  13.850  10.024  13.470
20358SOL     OW62970  14.022   5.253   6.930
20358SOL    HW162971  14.096   5.254   6.991
20358SOL    HW262972  14.024   5.339   6.888
20359SOL     OW62973   1.209   8.862   0.458
20359SOL    HW162974   1.238   8.921   0.388
20359SOL    HW262975   1.277   8.869   0.525
20360SOL     OW62976  12.560   5.013   2.517
20360SOL    HW162977  12.482   4.965   2.487
20360SOL    HW262978  12.603   4.953   2.577
20361SOL     OW62979   8.283  13.704  11.871
20361SOL    HW162980   8.374  13.729  11.856
20361SOL    HW262981   8.273  13.702  11.966
20362SOL     OW62982  13.110  13.122  11.350
20362SOL    HW162983  13.118  13.040  11.300
20362SOL    HW262984  13.167  13.109  11.426
20363SOL     OW62985  11.864  10.801   7.483
20363SOL    HW162986  11.895  10.725   7.435
20363SOL    HW262987  11.927  10.812   7.555
20364SOL     OW62988  11.510   8.669   2.833
20364SOL    HW162989  11.500   8.637   2.744
20364SOL    HW262990  11.484   8.596   2.889
20365SOL     OW62991   8.326  12.618  12.698
20365SOL    HW162992   8.275  12.643  12.775
20365SOL    HW262993   8.268  12.560  12.649
20366SOL     OW62994  13.487   5.638   7.116
20366SOL    HW162995  13.433   5.591   7.054
20366SOL    HW262996  13.572   5.647   7.072
20367SOL     OW62997   8.443   3.390  10.825
20367SOL    HW162998   8.473   3.437  10.747
20367SOL    HW262999   8.390   3.454  10.872
20368SOL     OW63000  11.195   8.640   6.480
20368SOL    HW163001  11.206   8.561   6.428
20368SOL    HW263002  11.137   8.613   6.552
20369SOL     OW63003  12.388   8.516   6.961
20369SOL    HW163004  12.334   8.505   6.883
20369SOL    HW263005  12.476   8.534   6.928
20370SOL     OW63006   4.930   4.777   2.712
20370SOL    HW163007   5.000   4.713   2.702
20370SOL    HW263008   4.889   4.756   2.796
20371SOL     OW63009   7.892   3.103  10.300
20371SOL    HW163010   7.985   3.083  10.309
20371SOL    HW263011   7.877   3.176  10.360
20372SOL     OW63012   9.973   4.860   5.419
20372SOL    HW163013   9.999   4.900   5.502
20372SOL    HW263014  10.023   4.909   5.353
20373SOL     OW63015   6.307   3.256   3.873
20373SOL    HW163016   6.278   3.338   3.831
20373SOL    HW263017   6.314   3.278   3.966
20374SOL     OW63018   0.518   7.119  13.096
20374SOL    HW163019   0.526   7.042  13.153
20374SOL    HW263020   0.446   7.169  13.134
20375SOL     OW63021   5.696   9.531  14.776
20375SOL    HW163022   5.650   9.470  14.834
20375SOL    HW263023   5.684   9.616  14.817
20376SOL     OW63024  14.474   2.111   4.695
20376SOL    HW163025  14.455   2.203   4.680
20376SOL    HW263026  14.459   2.098   4.789
20377SOL     OW63027   1.907   4.471   3.433
20377SOL    HW163028   1.886   4.445   3.523
20377SOL    HW263029   1.991   4.430   3.415
20378SOL     OW63030  13.466   7.741   0.860
20378SOL    HW163031  13.478   7.763   0.768
20378SOL    HW263032  13.389   7.684   0.861
20379SOL     OW63033  14.411  10.773   3.174
20379SOL    HW163034  14.349  10.775   3.246
20379SOL    HW263035  14.371  10.827   3.106
20380SOL     OW63036   0.493   1.045   5.970
20380SOL    HW163037   0.459   1.114   6.026
20380SOL    HW263038   0.556   0.998   6.025
20381SOL     OW63039  14.013  11.765  14.278
20381SOL    HW163040  13.972  11.705  14.341
20381SOL    HW263041  14.062  11.707  14.219
20382SOL     OW63042  14.029   4.162   4.195
20382SOL    HW163043  14.043   4.209   4.112
20382SOL    HW263044  14.103   4.102   4.202
20383SOL     OW63045   7.314   1.581  14.090
20383SOL    HW163046   7.394   1.533  14.067
20383SOL    HW263047   7.331   1.617  14.177
20384SOL     OW63048   0.212   4.463   9.894
20384SOL    HW163049   0.175   4.516   9.965
20384SOL    HW263050   0.283   4.516   9.858
20385SOL     OW63051  10.154  11.487   4.477
20385SOL    HW163052  10.152  11.479   4.381
20385SOL    HW263053  10.246  11.503   4.498
20386SOL     OW63054   4.770  12.504   6.778
20386SOL    HW163055   4.749  12.579   6.834
20386SOL    HW263056   4.779  12.541   6.691
20387SOL     OW63057   4.363   8.226   9.908
20387SOL    HW163058   4.313   8.145   9.920
20387SOL    HW263059   4.363   8.241   9.813
20388SOL     OW63060   7.461   1.200  10.414
20388SOL    HW163061   7.421   1.115  10.398
20388SOL    HW263062   7.516   1.216  10.336
20389SOL     OW63063  12.247   9.330   7.162
20389SOL    HW163064  12.311   9.394   7.193
20389SOL    HW263065  12.192   9.312   7.238
20390SOL     OW63066  14.026   9.230   8.693
20390SOL    HW163067  14.010   9.321   8.670
20390SOL    HW263068  14.115   9.212   8.663
20391SOL     OW63069   7.258   5.401   1.722
20391SOL    HW163070   7.315   5.359   1.786
20391SOL    HW263071   7.305   5.392   1.639
20392SOL     OW63072   4.465   5.889   6.363
20392SOL    HW163073   4.538   5.945   6.387
20392SOL    HW263074   4.419   5.871   6.445
20393SOL     OW63075  14.142   0.228   0.444
20393SOL    HW163076  14.096   0.304   0.480
20393SOL    HW263077  14.213   0.265   0.392
20394SOL     OW63078  10.364   0.829   1.809
20394SOL    HW163079  10.367   0.912   1.857
20394SOL    HW263080  10.299   0.776   1.856
20395SOL     OW63081  12.542   1.899  11.123
20395SOL    HW163082  12.577   1.816  11.152
20395SOL    HW263083  12.521   1.946  11.204
20396SOL     OW63084   4.694   1.002  11.404
20396SOL    HW163085   4.720   1.079  11.354
20396SOL    HW263086   4.606   0.981  11.372
20397SOL     OW63087   8.922  12.863   8.993
20397SOL    HW163088   8.866  12.888   8.920
20397SOL    HW263089   9.011  12.871   8.959
20398SOL     OW63090  11.266  13.307  12.912
20398SOL    HW163091  11.317  13.277  12.836
20398SOL    HW263092  11.195  13.243  12.920
20399SOL     OW63093  11.979   9.854   0.866
20399SOL    HW163094  11.966   9.858   0.771
20399SOL    HW263095  12.074   9.850   0.876
20400SOL     OW63096  12.488   6.151   0.248
20400SOL    HW163097  12.402   6.150   0.206
20400SOL    HW263098  12.518   6.060   0.244
20401SOL     OW63099  13.911  14.365   0.998
20401SOL    HW163100  13.882  14.427   0.931
20401SOL    HW263101  13.894  14.279   0.960
20402SOL     OW63102  13.997   6.523  13.178
20402SOL    HW163103  13.958   6.518  13.090
20402SOL    HW263104  14.079   6.474  13.170
20403SOL     OW63105   0.307   7.769   2.909
20403SOL    HW163106   0.270   7.683   2.929
20403SOL    HW263107   0.391   7.751   2.867
20404SOL     OW63108  12.263   7.464   0.446
20404SOL    HW163109  12.337   7.424   0.493
20404SOL    HW263110  12.198   7.481   0.515
20405SOL     OW63111   6.784  14.230   4.405
20405SOL    HW163112   6.771  14.141   4.370
20405SOL    HW263113   6.827  14.277   4.334
20406SOL     OW63114   6.823  13.613   5.875
20406SOL    HW163115   6.731  13.603   5.849
20406SOL    HW263116   6.855  13.687   5.824
20407SOL     OW63117  13.006   5.604  12.108
20407SOL    HW163118  13.091   5.641  12.132
20407SOL    HW263119  12.955   5.604  12.189
20408SOL     OW63120  11.567   1.076   0.356
20408SOL    HW163121  11.527   1.008   0.302
20408SOL    HW263122  11.495   1.136   0.376
20409SOL     OW63123   7.085  12.865  14.363
20409SOL    HW163124   7.102  12.891  14.273
20409SOL    HW263125   7.138  12.786  14.376
20410SOL     OW63126   7.870   6.027  13.675
20410SOL    HW163127   7.886   6.003  13.766
20410SOL    HW263128   7.833   6.115  13.680
20411SOL     OW63129   1.492   6.000   8.497
20411SOL    HW163130   1.569   6.031   8.545
20411SOL    HW263131   1.519   5.914   8.464
20412SOL     OW63132   1.198   3.504   5.911
20412SOL    HW163133   1.228   3.494   5.821
20412SOL    HW263134   1.206   3.598   5.929
20413SOL     OW63135   7.803   4.157   4.088
20413SOL    HW163136   7.754   4.097   4.144
20413SOL    HW263137   7.881   4.106   4.062
20414SOL     OW63138   5.741  10.339   5.102
20414SOL    HW163139   5.649  10.364   5.097
20414SOL    HW263140   5.777  10.392   5.173
20415SOL     OW63141  14.603   4.677   8.272
20415SOL    HW163142  14.554   4.705   8.350
20415SOL    HW263143  14.624   4.586   8.288
20416SOL     OW63144   5.340   6.085   2.083
20416SOL    HW163145   5.434   6.087   2.068
20416SOL    HW263146   5.313   5.999   2.051
20417SOL     OW63147   6.127  11.746   4.542
20417SOL    HW163148   6.114  11.742   4.447
20417SOL    HW263149   6.221  11.734   4.554
20418SOL     OW63150  12.241   9.410  11.515
20418SOL    HW163151  12.230   9.357  11.594
20418SOL    HW263152  12.180   9.483  11.526
20419SOL     OW63153   8.685  10.834   7.028
20419SOL    HW163154   8.710  10.749   6.991
20419SOL    HW263155   8.727  10.898   6.970
20420SOL     OW63156   1.892   3.701  11.478
20420SOL    HW163157   1.902   3.774  11.417
20420SOL    HW263158   1.948   3.632  11.442
20421SOL     OW63159   1.326  10.097   6.151
20421SOL    HW163160   1.291  10.026   6.097
20421SOL    HW263161   1.397  10.134   6.098
20422SOL     OW63162  13.411  12.662  11.266
20422SOL    HW163163  13.446  12.645  11.353
20422SOL    HW263164  13.334  12.607  11.259
20423SOL     OW63165   0.603   5.616  11.712
20423SOL    HW163166   0.592   5.543  11.650
20423SOL    HW263167   0.550   5.686  11.676
20424SOL     OW63168  12.066   7.665  11.814
20424SOL    HW163169  12.156   7.670  11.782
20424SOL    HW263170  12.014   7.645  11.737
20425SOL     OW63171  11.155   4.470   2.599
20425SOL    HW163172  11.106   4.441   2.522
20425SOL    HW263173  11.162   4.565   2.587
20426SOL     OW63174   8.916  11.553   2.257
20426SOL    HW163175   8.936  11.646   2.246
20426SOL    HW263176   8.821  11.548   2.260
20427SOL     OW63177   5.069   8.712  13.654
20427SOL    HW163178   4.987   8.700  13.607
20427SOL    HW263179   5.134   8.666  13.601
20428SOL     OW63180   5.020   0.729   7.593
20428SOL    HW163181   4.930   0.739   7.623
20428SOL    HW263182   5.074   0.755   7.667
20429SOL     OW63183  12.088   1.021   2.343
20429SOL    HW163184  12.100   1.087   2.275
20429SOL    HW263185  12.157   0.957   2.327
20430SOL     OW63186  10.578   5.573   5.328
20430SOL    HW163187  10.539   5.488   5.308
20430SOL    HW263188  10.594   5.571   5.423
20431SOL     OW63189   3.694   6.329   4.940
20431SOL    HW163190   3.775   6.380   4.935
20431SOL    HW263191   3.650   6.362   5.018
20432SOL     OW63192   3.354  12.762  14.781
20432SOL    HW163193   3.391  12.715  14.706
20432SOL    HW263194   3.411  12.739  14.855
20433SOL     OW63195   1.323   0.934   4.041
20433SOL    HW163196   1.247   0.886   4.009
20433SOL    HW263197   1.387   0.928   3.970
20434SOL     OW63198   0.197  13.220  12.929
20434SOL    HW163199   0.169  13.285  12.865
20434SOL    HW263200   0.178  13.260  13.014
20435SOL     OW63201   5.523  13.243   8.700
20435SOL    HW163202   5.442  13.293   8.691
20435SOL    HW263203   5.538  13.238   8.795
20436SOL     OW63204   1.353   1.088   0.090
20436SOL    HW163205   1.348   0.993   0.079
20436SOL    HW263206   1.412   1.101   0.164
20437SOL     OW63207  13.222  10.877  14.222
20437SOL    HW163208  13.217  10.871  14.318
20437SOL    HW263209  13.144  10.831  14.192
20438SOL     OW63210  12.649  10.386   7.329
20438SOL    HW163211  12.709  10.440   7.380
20438SOL    HW263212  12.703  10.316   7.294
20439SOL     OW63213  10.770  12.277   3.505
20439SOL    HW163214  10.818  12.353   3.536
20439SOL    HW263215  10.711  12.310   3.438
20440SOL     OW63216   4.475   2.246   6.009
20440SOL    HW163217   4.468   2.333   6.049
20440SOL    HW263218   4.455   2.185   6.080
20441SOL     OW63219   4.763   7.692   1.645
20441SOL    HW163220   4.733   7.731   1.727
20441SOL    HW263221   4.853   7.725   1.635
20442SOL     OW63222  10.774  14.313  14.587
20442SOL    HW163223  10.840  14.261  14.541
20442SOL    HW263224  10.704  14.251  14.606
20443SOL     OW63225   0.837  14.784   5.079
20443SOL    HW163226   0.828  14.692   5.053
20443SOL    HW263227   0.749  14.820   5.070
20444SOL     OW63228   7.697   0.351   7.753
20444SOL    HW163229   7.657   0.352   7.666
20444SOL    HW263230   7.633   0.307   7.808
20445SOL     OW63231   4.694   0.033   8.058
20445SOL    HW163232   4.652  14.821   8.031
20445SOL    HW263233   4.664   0.097   7.994
20446SOL     OW63234  14.015  14.658  11.333
20446SOL    HW163235  13.927  14.695  11.335
20446SOL    HW263236  14.023  14.621  11.245
20447SOL     OW63237   7.743   2.988   7.921
20447SOL    HW163238   7.696   2.923   7.974
20447SOL    HW263239   7.676   3.048   7.891
20448SOL     OW63240  13.092  12.447  13.026
20448SOL    HW163241  13.063  12.536  13.007
20448SOL    HW263242  13.146  12.423  12.951
20449SOL     OW63243  14.819  10.514   1.981
20449SOL    HW163244  14.830  10.474   1.895
20449SOL    HW263245  14.810  10.441   2.041
20450SOL     OW63246  11.465   8.675  13.382
20450SOL    HW163247  11.510   8.744  13.334
20450SOL    HW263248  11.401   8.640  13.320
20451SOL     OW63249  13.538  11.122   0.120
20451SOL    HW163250  13.620  11.079   0.094
20451SOL    HW263251  13.474  11.052   0.121
20452SOL     OW63252   7.509   2.148  11.768
20452SOL    HW163253   7.427   2.131  11.814
20452SOL    HW263254   7.525   2.241  11.781
20453SOL     OW63255   6.961  11.044  10.262
20453SOL    HW163256   6.902  10.971  10.245
20453SOL    HW263257   6.950  11.102  10.186
20454SOL     OW63258   3.446   9.086   2.730
20454SOL    HW163259   3.437   9.078   2.825
20454SOL    HW263260   3.444   9.180   2.714
20455SOL     OW63261   0.263   5.966  10.868
20455SOL    HW163262   0.287   5.915  10.791
20455SOL    HW263263   0.333   6.031  10.876
20456SOL     OW63264   2.349   8.871   4.498
20456SOL    HW163265   2.445   8.880   4.502
20456SOL    HW263266   2.322   8.934   4.432
20457SOL     OW63267   7.145   0.072   1.548
20457SOL    HW163268   7.078   0.081   1.480
20457SOL    HW263269   7.097   0.040   1.624
20458SOL     OW63270   7.449   8.808   0.964
20458SOL    HW163271   7.504   8.885   0.980
20458SOL    HW263272   7.387   8.808   1.037
20459SOL     OW63273   7.901   4.781   9.177
20459SOL    HW163274   7.919   4.742   9.092
20459SOL    HW263275   7.958   4.734   9.238
20460SOL     OW63276  12.711   5.471   5.078
20460SOL    HW163277  12.631   5.437   5.119
20460SOL    HW263278  12.733   5.548   5.130
20461SOL     OW63279   2.135  12.479  10.337
20461SOL    HW163280   2.059  12.475  10.394
20461SOL    HW263281   2.142  12.570  10.311
20462SOL     OW63282   4.494  11.736   4.466
20462SOL    HW163283   4.451  11.815   4.499
20462SOL    HW263284   4.512  11.756   4.374
20463SOL     OW63285   1.250  11.247  11.002
20463SOL    HW163286   1.336  11.216  10.972
20463SOL    HW263287   1.258  11.254  11.097
20464SOL     OW63288   1.833  10.743   3.828
20464SOL    HW163289   1.833  10.688   3.750
20464SOL    HW263290   1.753  10.795   3.822
20465SOL     OW63291   2.246   2.129  14.515
20465SOL    HW163292   2.182   2.091  14.575
20465SOL    HW263293   2.331   2.096  14.546
20466SOL     OW63294   7.836   2.708   9.908
20466SOL    HW163295   7.780   2.651   9.961
20466SOL    HW263296   7.814   2.685   9.817
20467SOL     OW63297   2.612   7.711   9.458
20467SOL    HW163298   2.616   7.764   9.538
20467SOL    HW263299   2.550   7.758   9.402
20468SOL     OW63300   7.315   6.529   6.957
20468SOL    HW163301   7.253   6.493   7.021
20468SOL    HW263302   7.266   6.598   6.913
20469SOL     OW63303   8.191   6.070   2.668
20469SOL    HW163304   8.156   6.054   2.755
20469SOL    HW263305   8.118   6.107   2.619
20470SOL     OW63306   5.939   0.954   5.746
20470SOL    HW163307   5.862   0.916   5.789
20470SOL    HW263308   5.906   0.988   5.663
20471SOL     OW63309   3.207   8.805   5.595
20471SOL    HW163310   3.113   8.787   5.587
20471SOL    HW263311   3.243   8.725   5.634
20472SOL     OW63312   0.644   7.857  10.124
20472SOL    HW163313   0.618   7.805  10.049
20472SOL    HW263314   0.567   7.858  10.181
20473SOL     OW63315  10.155  11.042   0.183
20473SOL    HW163316  10.111  11.098   0.247
20473SOL    HW263317  10.238  11.019   0.225
20474SOL     OW63318   9.608   6.828  13.809
20474SOL    HW163319   9.657   6.900  13.848
20474SOL    HW263320   9.535   6.813  13.870
20475SOL     OW63321  12.473   4.394   7.421
20475SOL    HW163322  12.453   4.473   7.370
20475SOL    HW263323  12.510   4.427   7.503
20476SOL     OW63324  10.626   3.435  12.214
20476SOL    HW163325  10.550   3.441  12.273
20476SOL    HW263326  10.588   3.408  12.130
20477SOL     OW63327  11.188   6.010   4.245
20477SOL    HW163328  11.242   5.932   4.230
20477SOL    HW263329  11.100   5.984   4.219
20478SOL     OW63330   1.130   8.681  13.512
20478SOL    HW163331   1.076   8.758  13.491
20478SOL    HW263332   1.207   8.717  13.556
20479SOL     OW63333   4.730   4.878  13.943
20479SOL    HW163334   4.810   4.826  13.935
20479SOL    HW263335   4.756   4.954  13.996
20480SOL     OW63336   7.608   5.696   1.618
20480SOL    HW163337   7.688   5.743   1.640
20480SOL    HW263338   7.592   5.640   1.694
20481SOL     OW63339   9.653   5.407   9.785
20481SOL    HW163340   9.644   5.344   9.856
20481SOL    HW263341   9.711   5.475   9.820
20482SOL     OW63342   0.201  11.985   1.120
20482SOL    HW163343   0.283  11.995   1.072
20482SOL    HW263344   0.133  11.987   1.052
20483SOL     OW63345  12.948   8.152   9.571
20483SOL    HW163346  12.898   8.205   9.632
20483SOL    HW263347  13.034   8.142   9.612
20484SOL     OW63348   3.991   5.100  14.780
20484SOL    HW163349   4.069   5.153  14.794
20484SOL    HW263350   4.019   5.010  14.796
20485SOL     OW63351   6.588   5.494  14.168
20485SOL    HW163352   6.533   5.539  14.232
20485SOL    HW263353   6.676   5.526  14.187
20486SOL     OW63354   4.274   4.546   2.844
20486SOL    HW163355   4.224   4.527   2.765
20486SOL    HW263356   4.348   4.598   2.814
20487SOL     OW63357   9.444   2.690  12.047
20487SOL    HW163358   9.439   2.710  11.953
20487SOL    HW263359   9.526   2.730  12.076
20488SOL     OW63360   4.674  10.017   7.423
20488SOL    HW163361   4.666  10.090   7.486
20488SOL    HW263362   4.643   9.941   7.471
20489SOL     OW63363   7.808   2.332   5.188
20489SOL    HW163364   7.865   2.321   5.112
20489SOL    HW263365   7.867   2.324   5.263
20490SOL     OW63366   5.702  12.507   6.443
20490SOL    HW163367   5.638  12.566   6.403
20490SOL    HW263368   5.785  12.531   6.402
20491SOL     OW63369  13.427   0.971   9.608
20491SOL    HW163370  13.464   0.890   9.643
20491SOL    HW263371  13.501   1.018   9.570
20492SOL     OW63372   0.894  12.794  11.586
20492SOL    HW163373   0.892  12.805  11.681
20492SOL    HW263374   0.987  12.801  11.563
20493SOL     OW63375   8.015   9.923   5.464
20493SOL    HW163376   7.951   9.864   5.423
20493SOL    HW263377   8.100   9.882   5.445
20494SOL     OW63378  11.996   9.502   8.375
20494SOL    HW163379  12.048   9.579   8.400
20494SOL    HW263380  11.963   9.468   8.458
20495SOL     OW63381  12.115   2.908  12.003
20495SOL    HW163382  12.129   2.978  12.067
20495SOL    HW263383  12.063   2.949  11.934
20496SOL     OW63384  10.874   5.860   5.233
20496SOL    HW163385  10.908   5.942   5.197
20496SOL    HW263386  10.795   5.887   5.281
20497SOL     OW63387   2.102   4.030   7.432
20497SOL    HW163388   2.139   3.965   7.372
20497SOL    HW263389   2.078   4.103   7.374
20498SOL     OW63390  12.131   7.096  11.059
20498SOL    HW163391  12.145   7.187  11.033
20498SOL    HW263392  12.038   7.081  11.046
20499SOL     OW63393   0.610   6.786  10.185
20499SOL    HW163394   0.565   6.830  10.112
20499SOL    HW263395   0.696   6.827  10.188
20500SOL     OW63396   5.884   1.283   3.639
20500SOL    HW163397   5.899   1.350   3.572
20500SOL    HW263398   5.892   1.331   3.722
20501SOL     OW63399   6.797  13.155  12.461
20501SOL    HW163400   6.779  13.095  12.388
20501SOL    HW263401   6.792  13.242  12.421
20502SOL     OW63402   2.499  14.180  13.376
20502SOL    HW163403   2.544  14.101  13.344
20502SOL    HW263404   2.561  14.251  13.358
20503SOL     OW63405  12.281   6.301  13.836
20503SOL    HW163406  12.303   6.319  13.745
20503SOL    HW263407  12.331   6.222  13.857
20504SOL     OW63408   3.403   5.026  10.710
20504SOL    HW163409   3.353   5.107  10.704
20504SOL    HW263410   3.341   4.961  10.743
20505SOL     OW63411   0.791   9.301   4.207
20505SOL    HW163412   0.878   9.315   4.243
20505SOL    HW263413   0.739   9.265   4.279
20506SOL     OW63414   7.387   6.038  11.892
20506SOL    HW163415   7.339   6.120  11.897
20506SOL    HW263416   7.319   5.970  11.893
20507SOL     OW63417  11.463   8.085   1.660
20507SOL    HW163418  11.552   8.090   1.694
20507SOL    HW263419  11.472   8.105   1.566
20508SOL     OW63420   4.320   5.920   9.503
20508SOL    HW163421   4.233   5.947   9.474
20508SOL    HW263422   4.349   5.857   9.437
20509SOL     OW63423   0.732  12.953   9.680
20509SOL    HW163424   0.766  12.864   9.679
20509SOL    HW263425   0.808  13.009   9.665
20510SOL     OW63426  11.562  11.641   8.740
20510SOL    HW163427  11.590  11.553   8.715
20510SOL    HW263428  11.504  11.669   8.669
20511SOL     OW63429   8.689   3.756   9.527
20511SOL    HW163430   8.742   3.796   9.596
20511SOL    HW263431   8.717   3.801   9.447
20512SOL     OW63432  13.124   3.021   8.386
20512SOL    HW163433  13.177   3.041   8.309
20512SOL    HW263434  13.060   3.092   8.389
20513SOL     OW63435  11.457   9.436   3.955
20513SOL    HW163436  11.461   9.388   3.872
20513SOL    HW263437  11.408   9.378   4.014
20514SOL     OW63438  14.078   2.750   9.153
20514SOL    HW163439  14.158   2.705   9.182
20514SOL    HW263440  14.103   2.796   9.073
20515SOL     OW63441   1.144  13.027  12.993
20515SOL    HW163442   1.149  13.118  13.022
20515SOL    HW263443   1.085  13.030  12.918
20516SOL     OW63444   4.242   8.004   7.813
20516SOL    HW163445   4.250   7.925   7.866
20516SOL    HW263446   4.321   8.054   7.832
20517SOL     OW63447  14.678  13.927  11.981
20517SOL    HW163448  14.688  13.833  11.963
20517SOL    HW263449  14.627  13.930  12.062
20518SOL     OW63450   3.932  11.090   1.607
20518SOL    HW163451   3.901  11.077   1.697
20518SOL    HW263452   3.968  11.005   1.582
20519SOL     OW63453  13.393   9.452   2.253
20519SOL    HW163454  13.426   9.370   2.216
20519SOL    HW263455  13.306   9.430   2.285
20520SOL     OW63456   6.606   1.134   5.479
20520SOL    HW163457   6.603   1.052   5.430
20520SOL    HW263458   6.587   1.108   5.570
20521SOL     OW63459  10.555   3.705   2.694
20521SOL    HW163460  10.554   3.612   2.674
20521SOL    HW263461  10.500   3.745   2.627
20522SOL     OW63462   5.807  11.188   0.879
20522SOL    HW163463   5.733  11.144   0.837
20522SOL    HW263464   5.838  11.251   0.814
20523SOL     OW63465   0.480   4.466  10.577
20523SOL    HW163466   0.477   4.467  10.481
20523SOL    HW263467   0.395   4.432  10.603
20524SOL     OW63468   4.044  10.948  11.759
20524SOL    HW163469   4.124  10.981  11.799
20524SOL    HW263470   3.973  10.996  11.802
20525SOL     OW63471   0.222   5.967   4.204
20525SOL    HW163472   0.313   5.979   4.229
20525SOL    HW263473   0.219   5.882   4.162
20526SOL     OW63474   6.845  10.019  11.708
20526SOL    HW163475   6.879  10.099  11.670
20526SOL    HW263476   6.795   9.978  11.638
20527SOL     OW63477  13.792  11.115   5.984
20527SOL    HW163478  13.700  11.090   5.976
20527SOL    HW263479  13.837  11.035   6.012
20528SOL     OW63480  14.521  10.747   3.651
20528SOL    HW163481  14.553  10.797   3.726
20528SOL    HW263482  14.576  10.669   3.649
20529SOL     OW63483   6.372   9.896   5.876
20529SOL    HW163484   6.407   9.894   5.787
20529SOL    HW263485   6.449   9.895   5.932
20530SOL     OW63486   3.219  13.736   2.454
20530SOL    HW163487   3.250  13.648   2.477
20530SOL    HW263488   3.279  13.765   2.385
20531SOL     OW63489   5.658  13.307  10.326
20531SOL    HW163490   5.646  13.334  10.417
20531SOL    HW263491   5.745  13.268  10.324
20532SOL     OW63492   9.319  11.427  12.005
20532SOL    HW163493   9.342  11.467  12.089
20532SOL    HW263494   9.392  11.450  11.947
20533SOL     OW63495   0.740   7.747   3.681
20533SOL    HW163496   0.766   7.702   3.600
20533SOL    HW263497   0.662   7.796   3.657
20534SOL     OW63498   6.160   8.231  12.434
20534SOL    HW163499   6.139   8.151  12.481
20534SOL    HW263500   6.256   8.237  12.439
20535SOL     OW63501   5.361   7.912   2.538
20535SOL    HW163502   5.268   7.933   2.548
20535SOL    HW263503   5.383   7.947   2.451
20536SOL     OW63504  11.029   7.664  11.663
20536SOL    HW163505  11.067   7.744  11.700
20536SOL    HW263506  11.049   7.669  11.570
20537SOL     OW63507   9.658  13.916   6.630
20537SOL    HW163508   9.683  13.888   6.718
20537SOL    HW263509   9.733  13.894   6.575
20538SOL     OW63510  14.815   4.737  11.716
20538SOL    HW163511  14.857   4.753  11.631
20538SOL    HW263512   0.008   4.771  11.780
20539SOL     OW63513  13.192   4.493   0.604
20539SOL    HW163514  13.276   4.492   0.650
20539SOL    HW263515  13.130   4.528   0.668
20540SOL     OW63516   3.917   1.280   7.750
20540SOL    HW163517   3.933   1.237   7.834
20540SOL    HW263518   3.846   1.342   7.768
20541SOL     OW63519  13.611   9.859   9.556
20541SOL    HW163520  13.665   9.780   9.561
20541SOL    HW263521  13.669   9.930   9.582
20542SOL     OW63522   8.858   1.659  10.658
20542SOL    HW163523   8.948   1.634  10.638
20542SOL    HW263524   8.805   1.614  10.592
20543SOL     OW63525   8.983   9.861   4.785
20543SOL    HW163526   8.977   9.766   4.775
20543SOL    HW263527   8.907   9.884   4.839
20544SOL     OW63528   3.309  13.207   7.872
20544SOL    HW163529   3.240  13.273   7.872
20544SOL    HW263530   3.275  13.136   7.926
20545SOL     OW63531   8.301   1.035   1.149
20545SOL    HW163532   8.339   1.045   1.236
20545SOL    HW263533   8.306   1.122   1.110
20546SOL     OW63534   0.113   6.484   1.748
20546SOL    HW163535   0.041   6.461   1.690
20546SOL    HW263536   0.182   6.422   1.725
20547SOL     OW63537  10.461  13.668   1.960
20547SOL    HW163538  10.484  13.755   1.993
20547SOL    HW263539  10.524  13.609   2.003
20548SOL     OW63540  11.314  14.673   7.642
20548SOL    HW163541  11.385  14.737   7.647
20548SOL    HW263542  11.357  14.592   7.616
20549SOL     OW63543   3.842   1.536   4.193
20549SOL    HW163544   3.838   1.544   4.288
20549SOL    HW263545   3.911   1.596   4.166
20550SOL     OW63546  11.194   7.825  12.238
20550SOL    HW163547  11.278   7.868  12.220
20550SOL    HW263548  11.207   7.735  12.210
20551SOL     OW63549  13.700  14.495   0.500
20551SOL    HW163550  13.673  14.579   0.463
20551SOL    HW263551  13.700  14.434   0.426
20552SOL     OW63552   3.769  11.438  11.624
20552SOL    HW163553   3.799  11.529  11.621
20552SOL    HW263554   3.707  11.430  11.553
20553SOL     OW63555   4.370   7.416   8.252
20553SOL    HW163556   4.313   7.445   8.181
20553SOL    HW263557   4.386   7.323   8.235
20554SOL     OW63558  11.180  11.482   3.023
20554SOL    HW163559  11.183  11.410   3.086
20554SOL    HW263560  11.089  11.511   3.024
20555SOL     OW63561   7.268   0.163  11.920
20555SOL    HW163562   7.244   0.255  11.933
20555SOL    HW263563   7.227   0.117  11.994
20556SOL     OW63564  11.744   9.662   6.811
20556SOL    HW163565  11.808   9.706   6.755
20556SOL    HW263566  11.735   9.719   6.887
20557SOL     OW63567   2.962   9.525   1.314
20557SOL    HW163568   2.906   9.517   1.237
20557SOL    HW263569   3.041   9.570   1.282
20558SOL     OW63570  11.423   7.050   2.355
20558SOL    HW163571  11.377   7.134   2.345
20558SOL    HW263572  11.368   6.987   2.309
20559SOL     OW63573   6.402   2.636   9.919
20559SOL    HW163574   6.442   2.677   9.842
20559SOL    HW263575   6.391   2.709   9.980
20560SOL     OW63576   8.659   8.929   6.836
20560SOL    HW163577   8.599   8.856   6.850
20560SOL    HW263578   8.746   8.891   6.848
20561SOL     OW63579  11.969  13.490   3.965
20561SOL    HW163580  11.917  13.560   3.925
20561SOL    HW263581  11.973  13.422   3.898
20562SOL     OW63582  13.087   6.893   1.446
20562SOL    HW163583  13.032   6.838   1.502
20562SOL    HW263584  13.048   6.884   1.358
20563SOL     OW63585   7.335  11.320  13.446
20563SOL    HW163586   7.259  11.377  13.438
20563SOL    HW263587   7.314  11.244  13.392
20564SOL     OW63588  13.044   8.079   4.270
20564SOL    HW163589  13.119   8.080   4.329
20564SOL    HW263590  12.977   8.130   4.315
20565SOL     OW63591   0.564   1.173   1.875
20565SOL    HW163592   0.579   1.215   1.791
20565SOL    HW263593   0.469   1.178   1.888
20566SOL     OW63594   0.397   8.311   2.633
20566SOL    HW163595   0.330   8.336   2.697
20566SOL    HW263596   0.416   8.219   2.653
20567SOL     OW63597  11.128   0.884   0.082
20567SOL    HW163598  11.151   0.964   0.131
20567SOL    HW263599  11.208   0.861   0.035
20568SOL     OW63600   9.708   9.654   3.245
20568SOL    HW163601   9.619   9.685   3.232
20568SOL    HW263602   9.763   9.728   3.221
20569SOL     OW63603  12.536   3.225   6.634
20569SOL    HW163604  12.555   3.147   6.582
20569SOL    HW263605  12.608   3.285   6.613
20570SOL     OW63606   5.567   3.362   4.009
20570SOL    HW163607   5.583   3.267   4.004
20570SOL    HW263608   5.545   3.378   4.100
20571SOL     OW63609   1.783   6.902  13.940
20571SOL    HW163610   1.761   6.896  13.847
20571SOL    HW263611   1.827   6.819  13.959
20572SOL     OW63612   9.426   8.590  11.142
20572SOL    HW163613   9.464   8.557  11.224
20572SOL    HW263614   9.427   8.685  11.152
20573SOL     OW63615   0.437  10.168   5.689
20573SOL    HW163616   0.475  10.242   5.737
20573SOL    HW263617   0.369  10.134   5.747
20574SOL     OW63618   6.454   5.146   2.034
20574SOL    HW163619   6.521   5.082   2.056
20574SOL    HW263620   6.495   5.231   2.050
20575SOL     OW63621   8.867   7.863   7.252
20575SOL    HW163622   8.925   7.851   7.177
20575SOL    HW263623   8.922   7.843   7.328
20576SOL     OW63624  11.018  12.790   5.411
20576SOL    HW163625  11.081  12.718   5.413
20576SOL    HW263626  11.069  12.865   5.381
20577SOL     OW63627  10.578   7.877   0.327
20577SOL    HW163628  10.591   7.954   0.382
20577SOL    HW263629  10.594   7.802   0.385
20578SOL     OW63630   9.389  12.122  14.079
20578SOL    HW163631   9.388  12.085  14.167
20578SOL    HW263632   9.381  12.217  14.093
20579SOL     OW63633  14.592   0.323  14.642
20579SOL    HW163634  14.571   0.407  14.682
20579SOL    HW263635  14.632   0.345  14.558
20580SOL     OW63636  14.253  13.867  10.376
20580SOL    HW163637  14.178  13.822  10.416
20580SOL    HW263638  14.297  13.909  10.450
20581SOL     OW63639   7.411   4.026  12.850
20581SOL    HW163640   7.364   3.980  12.919
20581SOL    HW263641   7.398   4.119  12.870
20582SOL     OW63642   1.101  14.239   4.972
20582SOL    HW163643   1.103  14.227   5.067
20582SOL    HW263644   1.193  14.251   4.948
20583SOL     OW63645   7.823   6.383  12.011
20583SOL    HW163646   7.786   6.471  12.009
20583SOL    HW263647   7.808   6.349  11.922
20584SOL     OW63648  14.728  11.655   6.888
20584SOL    HW163649  14.709  11.598   6.813
20584SOL    HW263650  14.806  11.703   6.862
20585SOL     OW63651  12.633   7.813  11.598
20585SOL    HW163652  12.649   7.739  11.540
20585SOL    HW263653  12.692   7.800  11.672
20586SOL     OW63654  12.258   5.566   2.677
20586SOL    HW163655  12.255   5.490   2.618
20586SOL    HW263656  12.351   5.585   2.687
20587SOL     OW63657  13.437   0.367   0.754
20587SOL    HW163658  13.350   0.345   0.787
20587SOL    HW263659  13.422   0.418   0.675
20588SOL     OW63660   5.942   2.904   6.287
20588SOL    HW163661   5.946   2.999   6.295
20588SOL    HW263662   5.885   2.888   6.212
20589SOL     OW63663  13.210  14.032  12.360
20589SOL    HW163664  13.158  14.093  12.308
20589SOL    HW263665  13.175  13.946  12.335
20590SOL     OW63666   6.092  11.015  11.807
20590SOL    HW163667   6.037  10.941  11.832
20590SOL    HW263668   6.030  11.087  11.793
20591SOL     OW63669   5.845   6.411  13.223
20591SOL    HW163670   5.913   6.360  13.266
20591SOL    HW263671   5.863   6.501  13.248
20592SOL     OW63672   6.742   1.010  11.349
20592SOL    HW163673   6.749   1.069  11.424
20592SOL    HW263674   6.829   0.973  11.338
20593SOL     OW63675  12.277  13.847   0.077
20593SOL    HW163676  12.240  13.935   0.087
20593SOL    HW263677  12.371  13.861   0.066
20594SOL     OW63678  14.435   8.192  13.248
20594SOL    HW163679  14.418   8.098  13.245
20594SOL    HW263680  14.481   8.205  13.331
20595SOL     OW63681   5.470   7.984   9.083
20595SOL    HW163682   5.409   8.041   9.037
20595SOL    HW263683   5.416   7.936   9.146
20596SOL     OW63684   9.098  12.427   8.221
20596SOL    HW163685   9.093  12.464   8.309
20596SOL    HW263686   9.070  12.336   8.232
20597SOL     OW63687   9.891   7.928   6.498
20597SOL    HW163688   9.857   7.944   6.410
20597SOL    HW263689   9.985   7.946   6.491
20598SOL     OW63690   6.447   1.485   4.721
20598SOL    HW163691   6.362   1.444   4.736
20598SOL    HW263692   6.429   1.553   4.656
20599SOL     OW63693  12.863   0.858  14.768
20599SOL    HW163694  12.808   0.846  14.846
20599SOL    HW263695  12.952   0.854  14.801
20600SOL     OW63696   2.806   2.850   4.314
20600SOL    HW163697   2.866   2.924   4.324
20600SOL    HW263698   2.726   2.889   4.278
20601SOL     OW63699   9.730   5.058   5.551
20601SOL    HW163700   9.705   5.035   5.461
20601SOL    HW263701   9.707   4.981   5.603
20602SOL     OW63702  11.947  13.823   9.290
20602SOL    HW163703  11.856  13.800   9.307
20602SOL    HW263704  11.982  13.749   9.242
20603SOL     OW63705   8.361  13.053   4.495
20603SOL    HW163706   8.447  13.020   4.472
20603SOL    HW263707   8.309  12.974   4.514
20604SOL     OW63708   0.640  10.288   3.287
20604SOL    HW163709   0.569  10.347   3.315
20604SOL    HW263710   0.650  10.305   3.194
20605SOL     OW63711   1.498  14.450  11.800
20605SOL    HW163712   1.470  14.440  11.891
20605SOL    HW263713   1.484  14.543  11.781
20606SOL     OW63714   4.172   3.031   9.974
20606SOL    HW163715   4.194   2.963   9.910
20606SOL    HW263716   4.090   3.069   9.942
20607SOL     OW63717  14.277  13.901  11.159
20607SOL    HW163718  14.191  13.875  11.193
20607SOL    HW263719  14.329  13.821  11.160
20608SOL     OW63720   9.481   9.149   8.274
20608SOL    HW163721   9.410   9.164   8.337
20608SOL    HW263722   9.439   9.104   8.201
20609SOL     OW63723   9.887   0.168   0.689
20609SOL    HW163724   9.980   0.191   0.694
20609SOL    HW263725   9.841   0.245   0.724
20610SOL     OW63726   3.096   4.650  14.526
20610SOL    HW163727   3.148   4.631  14.448
20610SOL    HW263728   3.153   4.706  14.580
20611SOL     OW63729   6.889   8.087   4.475
20611SOL    HW163730   6.921   8.165   4.429
20611SOL    HW263731   6.814   8.058   4.423
20612SOL     OW63732   9.710   1.191   5.046
20612SOL    HW163733   9.794   1.229   5.021
20612SOL    HW263734   9.726   1.149   5.130
20613SOL     OW63735  11.616  11.749  13.545
20613SOL    HW163736  11.679  11.801  13.595
20613SOL    HW263737  11.615  11.790  13.458
20614SOL     OW63738   8.630  13.157   9.271
20614SOL    HW163739   8.719  13.126   9.253
20614SOL    HW263740   8.635  13.195   9.359
20615SOL     OW63741   1.838   0.973   3.432
20615SOL    HW163742   1.931   0.983   3.452
20615SOL    HW263743   1.803   0.920   3.503
20616SOL     OW63744  11.965   3.979   1.997
20616SOL    HW163745  11.877   3.944   1.980
20616SOL    HW263746  12.015   3.959   1.918
20617SOL     OW63747  12.930   9.882  10.950
20617SOL    HW163748  12.916   9.891  10.856
20617SOL    HW263749  12.881   9.804  10.975
20618SOL     OW63750   7.727   1.617   0.315
20618SOL    HW163751   7.657   1.571   0.362
20618SOL    HW263752   7.726   1.706   0.350
20619SOL     OW63753   0.199   6.724   6.718
20619SOL    HW163754   0.114   6.708   6.759
20619SOL    HW263755   0.192   6.811   6.680
20620SOL     OW63756   8.415  12.899   7.489
20620SOL    HW163757   8.323  12.883   7.511
20620SOL    HW263758   8.440  12.974   7.544
20621SOL     OW63759   1.148   1.183   9.263
20621SOL    HW163760   1.070   1.232   9.237
20621SOL    HW263761   1.201   1.245   9.312
20622SOL     OW63762  13.736   0.695  14.719
20622SOL    HW163763  13.680   0.765  14.753
20622SOL    HW263764  13.736   0.629  14.789
20623SOL     OW63765   2.226   3.670  12.480
20623SOL    HW163766   2.134   3.664  12.503
20623SOL    HW263767   2.249   3.762  12.496
20624SOL     OW63768   3.226   0.762   8.467
20624SOL    HW163769   3.257   0.727   8.551
20624SOL    HW263770   3.236   0.689   8.406
20625SOL     OW63771   3.327   9.566   2.723
20625SOL    HW163772   3.364   9.595   2.807
20625SOL    HW263773   3.244   9.612   2.717
20626SOL     OW63774  11.479   9.028   6.489
20626SOL    HW163775  11.480   9.094   6.559
20626SOL    HW263776  11.430   8.955   6.527
20627SOL     OW63777   8.487  13.033  11.471
20627SOL    HW163778   8.402  13.068  11.496
20627SOL    HW263779   8.547  13.064  11.539
20628SOL     OW63780   1.275   4.656  12.497
20628SOL    HW163781   1.362   4.698  12.493
20628SOL    HW263782   1.214   4.727  12.479
20629SOL     OW63783  11.474   2.165   1.760
20629SOL    HW163784  11.549   2.177   1.818
20629SOL    HW263785  11.463   2.070   1.755
20630SOL     OW63786   3.662   0.448  10.387
20630SOL    HW163787   3.663   0.529  10.337
20630SOL    HW263788   3.709   0.469  10.467
20631SOL     OW63789   8.390  12.169   8.061
20631SOL    HW163790   8.306  12.167   8.106
20631SOL    HW263791   8.390  12.254   8.017
20632SOL     OW63792   0.369   4.167   9.909
20632SOL    HW163793   0.351   4.186   9.817
20632SOL    HW263794   0.353   4.250   9.954
20633SOL     OW63795   2.907  13.153  12.652
20633SOL    HW163796   2.974  13.089  12.626
20633SOL    HW263797   2.949  13.238  12.642
20634SOL     OW63798   1.333   4.052   0.383
20634SOL    HW163799   1.248   4.063   0.340
20634SOL    HW263800   1.388   4.009   0.317
20635SOL     OW63801   8.142  10.820  11.959
20635SOL    HW163802   8.076  10.751  11.967
20635SOL    HW263803   8.092  10.901  11.966
20636SOL     OW63804   0.075   1.929   1.206
20636SOL    HW163805   0.104   2.020   1.215
20636SOL    HW263806  14.853   1.930   1.231
20637SOL     OW63807   3.187   9.689   7.222
20637SOL    HW163808   3.117   9.755   7.228
20637SOL    HW263809   3.260   9.735   7.182
20638SOL     OW63810   5.312   1.526   6.224
20638SOL    HW163811   5.376   1.508   6.293
20638SOL    HW263812   5.364   1.530   6.143
20639SOL     OW63813   4.160  12.567   6.621
20639SOL    HW163814   4.196  12.636   6.676
20639SOL    HW263815   4.084  12.607   6.578
20640SOL     OW63816   6.162   1.068   4.642
20640SOL    HW163817   6.130   0.978   4.633
20640SOL    HW263818   6.150   1.090   4.734
20641SOL     OW63819  12.740  14.573   0.951
20641SOL    HW163820  12.646  14.576   0.934
20641SOL    HW263821  12.769  14.664   0.939
20642SOL     OW63822  14.152   2.864  10.277
20642SOL    HW163823  14.116   2.940  10.321
20642SOL    HW263824  14.078   2.805  10.265
20643SOL     OW63825   2.138   5.193   9.849
20643SOL    HW163826   2.119   5.252   9.922
20643SOL    HW263827   2.216   5.231   9.808
20644SOL     OW63828  14.363   2.771   3.080
20644SOL    HW163829  14.429   2.735   3.140
20644SOL    HW263830  14.382   2.864   3.077
20645SOL     OW63831  12.061   1.160   6.857
20645SOL    HW163832  12.121   1.131   6.789
20645SOL    HW263833  12.071   1.096   6.928
20646SOL     OW63834  10.119   2.897   0.258
20646SOL    HW163835  10.025   2.910   0.275
20646SOL    HW263836  10.123   2.868   0.166
20647SOL     OW63837  14.615  11.011   5.439
20647SOL    HW163838  14.691  11.020   5.496
20647SOL    HW263839  14.576  11.099   5.437
20648SOL     OW63840   9.830  10.823   0.115
20648SOL    HW163841   9.811  10.876   0.192
20648SOL    HW263842   9.906  10.770   0.139
20649SOL     OW63843   9.247   8.525  13.785
20649SOL    HW163844   9.254   8.484  13.871
20649SOL    HW263845   9.157   8.557  13.782
20650SOL     OW63846  11.351  12.148   5.522
20650SOL    HW163847  11.319  12.110   5.441
20650SOL    HW263848  11.425  12.202   5.495
20651SOL     OW63849   4.250  13.819   4.330
20651SOL    HW163850   4.242  13.883   4.259
20651SOL    HW263851   4.330  13.771   4.310
20652SOL     OW63852   2.973   6.053  10.301
20652SOL    HW163853   2.894   6.104  10.284
20652SOL    HW263854   3.045   6.110  10.275
20653SOL     OW63855  10.392   4.488   0.631
20653SOL    HW163856  10.415   4.542   0.707
20653SOL    HW263857  10.313   4.441   0.659
20654SOL     OW63858   6.069   5.126  13.282
20654SOL    HW163859   6.021   5.208  13.270
20654SOL    HW263860   6.024   5.083  13.355
20655SOL     OW63861  11.146   9.885   1.488
20655SOL    HW163862  11.118   9.961   1.437
20655SOL    HW263863  11.126   9.909   1.579
20656SOL     OW63864  10.230   7.993   2.259
20656SOL    HW163865  10.317   8.031   2.271
20656SOL    HW263866  10.170   8.060   2.293
20657SOL     OW63867   8.585   4.822   1.122
20657SOL    HW163868   8.633   4.807   1.203
20657SOL    HW263869   8.501   4.778   1.135
20658SOL     OW63870   2.447   8.141   1.691
20658SOL    HW163871   2.365   8.168   1.731
20658SOL    HW263872   2.498   8.222   1.686
20659SOL     OW63873  12.362   1.264   5.559
20659SOL    HW163874  12.276   1.240   5.526
20659SOL    HW263875  12.410   1.294   5.482
20660SOL     OW63876   6.010  10.830   4.141
20660SOL    HW163877   5.968  10.896   4.195
20660SOL    HW263878   5.953  10.821   4.065
20661SOL     OW63879   5.458   5.220   5.470
20661SOL    HW163880   5.552   5.226   5.487
20661SOL    HW263881   5.420   5.290   5.521
20662SOL     OW63882   3.125   0.566   9.385
20662SOL    HW163883   3.041   0.574   9.339
20662SOL    HW263884   3.146   0.656   9.411
20663SOL     OW63885   3.509   8.919   6.582
20663SOL    HW163886   3.439   8.925   6.516
20663SOL    HW263887   3.472   8.866   6.652
20664SOL     OW63888   7.406   7.988   5.883
20664SOL    HW163889   7.468   7.970   5.954
20664SOL    HW263890   7.460   8.028   5.814
20665SOL     OW63891   1.210   8.629  10.736
20665SOL    HW163892   1.156   8.656  10.662
20665SOL    HW263893   1.258   8.708  10.761
20666SOL     OW63894  14.410   7.030   9.196
20666SOL    HW163895  14.491   6.979   9.201
20666SOL    HW263896  14.340   6.966   9.200
20667SOL     OW63897  11.254  10.514   3.736
20667SOL    HW163898  11.324  10.452   3.755
20667SOL    HW263899  11.194  10.506   3.810
20668SOL     OW63900   3.702  13.319   5.379
20668SOL    HW163901   3.764  13.248   5.361
20668SOL    HW263902   3.756  13.390   5.413
20669SOL     OW63903   6.757   9.457   2.606
20669SOL    HW163904   6.845   9.485   2.579
20669SOL    HW263905   6.735   9.515   2.679
20670SOL     OW63906   7.756  10.030  11.669
20670SOL    HW163907   7.846  10.056  11.653
20670SOL    HW263908   7.729   9.985  11.588
20671SOL     OW63909  10.160  10.557  12.130
20671SOL    HW163910  10.140  10.589  12.042
20671SOL    HW263911  10.206  10.474  12.116
20672SOL     OW63912   1.359   4.626  11.859
20672SOL    HW163913   1.400   4.540  11.856
20672SOL    HW263914   1.292   4.623  11.790
20673SOL     OW63915   3.770   2.295   4.113
20673SOL    HW163916   3.752   2.205   4.089
20673SOL    HW263917   3.688   2.328   4.149
20674SOL     OW63918   0.876   8.719   4.318
20674SOL    HW163919   0.839   8.690   4.234
20674SOL    HW263920   0.814   8.784   4.350
20675SOL     OW63921   4.211   9.804  14.761
20675SOL    HW163922   4.150   9.838  14.827
20675SOL    HW263923   4.296   9.842  14.785
20676SOL     OW63924  13.604   2.265   9.377
20676SOL    HW163925  13.537   2.320   9.337
20676SOL    HW263926  13.671   2.256   9.309
20677SOL     OW63927   9.972   5.142   0.591
20677SOL    HW163928   9.893   5.097   0.619
20677SOL    HW263929   9.987   5.111   0.502
20678SOL     OW63930   6.699   7.460   5.506
20678SOL    HW163931   6.754   7.384   5.527
20678SOL    HW263932   6.675   7.447   5.414
20679SOL     OW63933   0.463   7.952   4.715
20679SOL    HW163934   0.381   7.908   4.693
20679SOL    HW263935   0.528   7.883   4.718
20680SOL     OW63936   1.031  10.912   9.370
20680SOL    HW163937   0.962  10.900   9.304
20680SOL    HW263938   1.018  10.841   9.432
20681SOL     OW63939   8.269   5.734  12.150
20681SOL    HW163940   8.296   5.643  12.139
20681SOL    HW263941   8.250   5.742  12.243
20682SOL     OW63942   3.440  12.150  10.902
20682SOL    HW163943   3.438  12.080  10.837
20682SOL    HW263944   3.469  12.107  10.983
20683SOL     OW63945  11.051  10.109   8.749
20683SOL    HW163946  11.092  10.023   8.751
20683SOL    HW263947  11.101  10.160   8.814
20684SOL     OW63948  13.983   9.464  12.609
20684SOL    HW163949  13.891   9.451  12.631
20684SOL    HW263950  13.990   9.557  12.587
20685SOL     OW63951   3.666  10.601   2.997
20685SOL    HW163952   3.622  10.659   3.059
20685SOL    HW263953   3.605  10.591   2.925
20686SOL     OW63954  10.745   5.702  14.526
20686SOL    HW163955  10.779   5.654  14.450
20686SOL    HW263956  10.821   5.747  14.563
20687SOL     OW63957   2.821   5.851  13.208
20687SOL    HW163958   2.769   5.854  13.289
20687SOL    HW263959   2.768   5.898  13.144
20688SOL     OW63960  13.191   8.779   2.944
20688SOL    HW163961  13.160   8.728   3.019
20688SOL    HW263962  13.257   8.838   2.980
20689SOL     OW63963  12.807   9.559  13.563
20689SOL    HW163964  12.829   9.505  13.639
20689SOL    HW263965  12.736   9.615  13.594
20690SOL     OW63966  11.891   0.870   2.640
20690SOL    HW163967  11.899   0.801   2.575
20690SOL    HW263968  11.905   0.951   2.591
20691SOL     OW63969  13.261   0.389   7.437
20691SOL    HW163970  13.310   0.429   7.365
20691SOL    HW263971  13.315   0.316   7.466
20692SOL     OW63972  11.779  13.104  12.507
20692SOL    HW163973  11.779  13.147  12.421
20692SOL    HW263974  11.869  13.076  12.519
20693SOL     OW63975   9.474  13.634  11.942
20693SOL    HW163976   9.441  13.577  12.011
20693SOL    HW263977   9.488  13.719  11.984
20694SOL     OW63978   9.121   1.254   8.712
20694SOL    HW163979   9.126   1.278   8.620
20694SOL    HW263980   9.061   1.180   8.714
20695SOL     OW63981   6.402   7.478   9.965
20695SOL    HW163982   6.333   7.419   9.994
20695SOL    HW263983   6.473   7.420   9.938
20696SOL     OW63984   3.799   1.447   7.930
20696SOL    HW163985   3.844   1.514   7.981
20696SOL    HW263986   3.709   1.477   7.925
20697SOL     OW63987   7.468   0.937  10.806
20697SOL    HW163988   7.482   0.853  10.848
20697SOL    HW263989   7.526   0.936  10.729
20698SOL     OW63990   3.128   7.691   4.595
20698SOL    HW163991   3.211   7.712   4.639
20698SOL    HW263992   3.068   7.669   4.666
20699SOL     OW63993  13.697   7.522   1.434
20699SOL    HW163994  13.718   7.495   1.523
20699SOL    HW263995  13.637   7.596   1.445
20700SOL     OW63996  11.702  13.545   3.069
20700SOL    HW163997  11.665  13.633   3.074
20700SOL    HW263998  11.794  13.558   3.048
20701SOL     OW63999   0.531   2.819   7.100
20701SOL    HW164000   0.582   2.758   7.153
20701SOL    HW264001   0.467   2.764   7.054
20702SOL     OW64002  14.625   6.320   9.894
20702SOL    HW164003  14.591   6.348   9.809
20702SOL    HW264004  14.560   6.352   9.957
20703SOL     OW64005   9.858   4.831  11.974
20703SOL    HW164006   9.912   4.866  12.044
20703SOL    HW264007   9.786   4.893  11.965
20704SOL     OW64008  11.870  12.383  12.623
20704SOL    HW164009  11.796  12.430  12.585
20704SOL    HW264010  11.856  12.387  12.717
20705SOL     OW64011  11.251   9.935   4.038
20705SOL    HW164012  11.242   9.845   4.006
20705SOL    HW264013  11.260   9.925   4.133
20706SOL     OW64014  10.348   0.140   7.648
20706SOL    HW164015  10.427   0.190   7.670
20706SOL    HW264016  10.345   0.070   7.713
20707SOL     OW64017   4.147   2.749  10.138
20707SOL    HW164018   4.169   2.758  10.046
20707SOL    HW264019   4.064   2.796  10.148
20708SOL     OW64020  13.404  13.772   1.553
20708SOL    HW164021  13.456  13.847   1.523
20708SOL    HW264022  13.463  13.723   1.610
20709SOL     OW64023   0.684   3.347   2.200
20709SOL    HW164024   0.706   3.439   2.211
20709SOL    HW264025   0.747   3.314   2.136
20710SOL     OW64026  10.138  14.144  11.298
20710SOL    HW164027  10.108  14.214  11.357
20710SOL    HW264028  10.216  14.181  11.256
20711SOL     OW64029  11.264   1.384   9.317
20711SOL    HW164030  11.234   1.325   9.248
20711SOL    HW264031  11.358   1.367   9.323
20712SOL     OW64032   6.596   9.916   0.639
20712SOL    HW164033   6.655   9.976   0.684
20712SOL    HW264034   6.617   9.829   0.675
20713SOL     OW64035   8.741  14.683   6.993
20713SOL    HW164036   8.700  14.655   7.075
20713SOL    HW264037   8.733  14.778   6.993
20714SOL     OW64038   0.754   2.382   9.122
20714SOL    HW164039   0.692   2.312   9.142
20714SOL    HW264040   0.699   2.459   9.107
20715SOL     OW64041   2.644   3.826   3.615
20715SOL    HW164042   2.589   3.854   3.542
20715SOL    HW264043   2.609   3.741   3.640
20716SOL     OW64044   1.458   0.253   5.511
20716SOL    HW164045   1.377   0.243   5.460
20716SOL    HW264046   1.492   0.338   5.484
20717SOL     OW64047   6.443   0.042   4.312
20717SOL    HW164048   6.384   0.008   4.379
20717SOL    HW264049   6.498  14.837   4.288
20718SOL     OW64050  14.774   1.221   1.193
20718SOL    HW164051  14.693   1.237   1.241
20718SOL    HW264052  14.769   1.128   1.169
20719SOL     OW64053  13.503   6.537  12.561
20719SOL    HW164054  13.513   6.620  12.514
20719SOL    HW264055  13.593   6.509  12.579
20720SOL     OW64056  11.338   5.894  12.466
20720SOL    HW164057  11.288   5.950  12.526
20720SOL    HW264058  11.271   5.855  12.410
20721SOL     OW64059  13.873  13.397   5.295
20721SOL    HW164060  13.850  13.443   5.377
20721SOL    HW264061  13.812  13.433   5.230
20722SOL     OW64062  13.059   1.990   3.941
20722SOL    HW164063  13.107   1.948   3.870
20722SOL    HW264064  13.012   1.918   3.983
20723SOL     OW64065   5.092   4.447   2.237
20723SOL    HW164066   5.150   4.393   2.183
20723SOL    HW264067   5.084   4.398   2.319
20724SOL     OW64068   2.052  14.654   9.226
20724SOL    HW164069   2.000  14.576   9.205
20724SOL    HW264070   2.031  14.716   9.157
20725SOL     OW64071   8.503   5.132   9.214
20725SOL    HW164072   8.539   5.043   9.215
20725SOL    HW264073   8.420   5.126   9.261
20726SOL     OW64074  10.646   2.537   6.344
20726SOL    HW164075  10.710   2.561   6.277
20726SOL    HW264076  10.692   2.550   6.427
20727SOL     OW64077   1.132   0.196  12.567
20727SOL    HW164078   1.138   0.288  12.594
20727SOL    HW264079   1.114   0.201  12.473
20728SOL     OW64080  11.262   6.201   6.606
20728SOL    HW164081  11.171   6.182   6.584
20728SOL    HW264082  11.308   6.118   6.595
20729SOL     OW64083  11.062   1.160   5.595
20729SOL    HW164084  10.981   1.202   5.567
20729SOL    HW264085  11.116   1.156   5.516
20730SOL     OW64086  13.688   8.447  10.175
20730SOL    HW164087  13.599   8.473  10.153
20730SOL    HW264088  13.725   8.415  10.093
20731SOL     OW64089   2.669   4.864   6.259
20731SOL    HW164090   2.676   4.955   6.230
20731SOL    HW264091   2.730   4.858   6.333
20732SOL     OW64092   4.614   0.898   5.578
20732SOL    HW164093   4.685   0.838   5.555
20732SOL    HW264094   4.563   0.908   5.497
20733SOL     OW64095  13.989   5.363   0.187
20733SOL    HW164096  14.033   5.279   0.187
20733SOL    HW264097  14.047   5.422   0.140
20734SOL     OW64098   3.503  13.694  12.767
20734SOL    HW164099   3.428  13.751  12.786
20734SOL    HW264100   3.509  13.636  12.842
20735SOL     OW64101   3.913   2.102   5.097
20735SOL    HW164102   3.904   2.108   5.002
20735SOL    HW264103   3.835   2.055   5.126
20736SOL     OW64104   2.110   9.431  12.831
20736SOL    HW164105   2.197   9.428  12.791
20736SOL    HW264106   2.077   9.341  12.824
20737SOL     OW64107  13.648   0.348   6.518
20737SOL    HW164108  13.686   0.434   6.499
20737SOL    HW264109  13.639   0.346   6.613
20738SOL     OW64110   2.925   7.905   6.356
20738SOL    HW164111   2.991   7.957   6.400
20738SOL    HW264112   2.960   7.816   6.354
20739SOL     OW64113   4.929  11.055   9.086
20739SOL    HW164114   4.945  10.996   9.160
20739SOL    HW264115   4.865  11.009   9.032
20740SOL     OW64116   2.645   8.978  11.947
20740SOL    HW164117   2.713   8.977  12.014
20740SOL    HW264118   2.672   8.909  11.886
20741SOL     OW64119   8.821   8.936  12.651
20741SOL    HW164120   8.855   9.025  12.637
20741SOL    HW264121   8.885   8.895  12.709
20742SOL     OW64122  11.891   5.879   8.711
20742SOL    HW164123  11.878   5.822   8.787
20742SOL    HW264124  11.970   5.845   8.669
20743SOL     OW64125   6.505   7.066   3.023
20743SOL    HW164126   6.525   7.123   2.948
20743SOL    HW264127   6.410   7.058   3.022
20744SOL     OW64128   9.944   6.230   6.394
20744SOL    HW164129   9.996   6.237   6.474
20744SOL    HW264130   9.910   6.318   6.379
20745SOL     OW64131   4.260   2.264   3.350
20745SOL    HW164132   4.353   2.245   3.358
20745SOL    HW264133   4.222   2.231   3.431
20746SOL     OW64134   8.198   5.398   2.502
20746SOL    HW164135   8.204   5.307   2.473
20746SOL    HW264136   8.241   5.448   2.433
20747SOL     OW64137  12.021   9.066   9.354
20747SOL    HW164138  11.989   9.119   9.427
20747SOL    HW264139  11.943   9.049   9.301
20748SOL     OW64140   6.681   0.072   7.934
20748SOL    HW164141   6.717   0.001   7.880
20748SOL    HW264142   6.734   0.148   7.912
20749SOL     OW64143  13.471  13.029  10.982
20749SOL    HW164144  13.487  13.088  11.055
20749SOL    HW264145  13.552  12.979  10.972
20750SOL     OW64146   5.656  14.071   2.664
20750SOL    HW164147   5.622  13.983   2.652
20750SOL    HW264148   5.637  14.092   2.755
20751SOL     OW64149  14.327  11.978   0.255
20751SOL    HW164150  14.414  12.017   0.259
20751SOL    HW264151  14.342  11.886   0.234
20752SOL     OW64152  14.669   2.902   9.154
20752SOL    HW164153  14.712   2.987   9.140
20752SOL    HW264154  14.666   2.863   9.067
20753SOL     OW64155   4.965   0.825   4.428
20753SOL    HW164156   4.910   0.897   4.459
20753SOL    HW264157   4.903   0.755   4.407
20754SOL     OW64158  14.728  10.933  10.339
20754SOL    HW164159  14.723  10.928  10.434
20754SOL    HW264160  14.727  10.841  10.310
20755SOL     OW64161   8.762   2.004   1.838
20755SOL    HW164162   8.855   1.985   1.846
20755SOL    HW264163   8.758   2.099   1.826
20756SOL     OW64164  12.312   0.153   5.863
20756SOL    HW164165  12.388   0.165   5.806
20756SOL    HW264166  12.317   0.061   5.889
20757SOL     OW64167  10.265   7.852  11.444
20757SOL    HW164168  10.193   7.833  11.504
20757SOL    HW264169  10.224   7.898  11.371
20758SOL     OW64170  11.151  10.302   2.914
20758SOL    HW164171  11.228  10.357   2.932
20758SOL    HW264172  11.093  10.318   2.989
20759SOL     OW64173   0.074   6.712   4.998
20759SOL    HW164174   0.156   6.668   5.020
20759SOL    HW264175   0.037   6.737   5.083
20760SOL     OW64176   8.359  14.523  13.436
20760SOL    HW164177   8.421  14.474  13.382
20760SOL    HW264178   8.301  14.455  13.472
20761SOL     OW64179  13.629   8.743  14.857
20761SOL    HW164180  13.694   8.796   0.033
20761SOL    HW264181  13.680   8.689  14.797
20762SOL     OW64182   1.702  13.510   2.122
20762SOL    HW164183   1.711  13.582   2.060
20762SOL    HW264184   1.617  13.524   2.163
20763SOL     OW64185  10.218  14.754   8.093
20763SOL    HW164186  10.133  14.721   8.065
20763SOL    HW264187  10.198  14.830   8.146
20764SOL     OW64188   9.349   0.882   4.739
20764SOL    HW164189   9.355   0.976   4.752
20764SOL    HW264190   9.439   0.850   4.748
20765SOL     OW64191   5.842   8.690  12.438
20765SOL    HW164192   5.779   8.630  12.477
20765SOL    HW264193   5.927   8.662  12.473
20766SOL     OW64194  10.537   6.970  13.402
20766SOL    HW164195  10.476   6.938  13.469
20766SOL    HW264196  10.611   6.909  13.406
20767SOL     OW64197   3.009   4.820   5.270
20767SOL    HW164198   2.919   4.790   5.254
20767SOL    HW264199   3.055   4.801   5.189
20768SOL     OW64200  13.217  10.627   4.943
20768SOL    HW164201  13.173  10.710   4.956
20768SOL    HW264202  13.237  10.624   4.849
20769SOL     OW64203  10.918   3.826  10.148
20769SOL    HW164204  10.977   3.760  10.112
20769SOL    HW264205  10.848   3.776  10.190
20770SOL     OW64206   3.943  13.047   4.070
20770SOL    HW164207   3.939  12.952   4.057
20770SOL    HW264208   3.954  13.058   4.164
20771SOL     OW64209   2.837   8.297  13.701
20771SOL    HW164210   2.812   8.266  13.788
20771SOL    HW264211   2.900   8.366  13.718
20772SOL     OW64212   7.665  14.616   6.078
20772SOL    HW164213   7.635  14.707   6.069
20772SOL    HW264214   7.598  14.574   6.132
20773SOL     OW64215   7.891  10.087   6.406
20773SOL    HW164216   7.955  10.033   6.360
20773SOL    HW264217   7.814  10.030   6.415
20774SOL     OW64218  12.860   6.582  12.090
20774SOL    HW164219  12.809   6.662  12.105
20774SOL    HW264220  12.797   6.518  12.059
20775SOL     OW64221   0.166  10.295  13.709
20775SOL    HW164222   0.105  10.368  13.700
20775SOL    HW264223   0.121  10.221  13.668
20776SOL     OW64224   7.609  10.092   7.804
20776SOL    HW164225   7.629  10.026   7.738
20776SOL    HW264226   7.695  10.124   7.832
20777SOL     OW64227   9.055  12.102   1.144
20777SOL    HW164228   8.995  12.133   1.075
20777SOL    HW264229   9.076  12.012   1.118
20778SOL     OW64230  12.322   7.747  11.200
20778SOL    HW164231  12.352   7.837  11.210
20778SOL    HW264232  12.291   7.742  11.109
20779SOL     OW64233   0.206   5.028   0.280
20779SOL    HW164234   0.150   4.952   0.268
20779SOL    HW264235   0.236   5.023   0.371
20780SOL     OW64236   2.682  11.930   3.754
20780SOL    HW164237   2.749  11.966   3.812
20780SOL    HW264238   2.616  11.893   3.813
20781SOL     OW64239   0.949  10.376  13.043
20781SOL    HW164240   0.933  10.320  13.119
20781SOL    HW264241   1.043  10.366  13.026
20782SOL     OW64242   8.948  13.551  10.803
20782SOL    HW164243   8.999  13.488  10.752
20782SOL    HW264244   8.878  13.500  10.843
20783SOL     OW64245  11.339  13.998   0.039
20783SOL    HW164246  11.315  14.048  14.830
20783SOL    HW264247  11.342  14.063   0.109
20784SOL     OW64248  11.986   7.302   8.128
20784SOL    HW164249  12.025   7.342   8.050
20784SOL    HW264250  12.056   7.304   8.193
20785SOL     OW64251   9.644   4.334  14.578
20785SOL    HW164252   9.643   4.242  14.553
20785SOL    HW264253   9.592   4.338  14.658
20786SOL     OW64254   0.619   0.913   4.730
20786SOL    HW164255   0.600   0.866   4.811
20786SOL    HW264256   0.545   0.974   4.720
20787SOL     OW64257   7.127  11.016   2.442
20787SOL    HW164258   7.084  11.084   2.391
20787SOL    HW264259   7.177  11.063   2.508
20788SOL     OW64260   6.249   6.773  10.531
20788SOL    HW164261   6.277   6.696  10.481
20788SOL    HW264262   6.263   6.749  10.623
20789SOL     OW64263   8.666  10.233   7.694
20789SOL    HW164264   8.576  10.205   7.712
20789SOL    HW264265   8.679  10.309   7.750
20790SOL     OW64266   0.663  11.046  14.765
20790SOL    HW164267   0.637  11.012  14.850
20790SOL    HW264268   0.733  10.987  14.736
20791SOL     OW64269   1.434  13.895   9.916
20791SOL    HW164270   1.409  13.807   9.945
20791SOL    HW264271   1.481  13.881   9.834
20792SOL     OW64272   5.046  11.959  10.742
20792SOL    HW164273   5.051  11.997  10.829
20792SOL    HW264274   4.981  11.889  10.751
20793SOL     OW64275  11.691   1.213  14.869
20793SOL    HW164276  11.699   1.259  14.786
20793SOL    HW264277  11.640   1.134  14.849
20794SOL     OW64278   6.472   6.397   3.448
20794SOL    HW164279   6.384   6.424   3.477
20794SOL    HW264280   6.462   6.304   3.428
20795SOL     OW64281  14.679   3.604   8.701
20795SOL    HW164282  14.745   3.653   8.749
20795SOL    HW264283  14.628   3.670   8.655
20796SOL     OW64284   7.873  13.485   1.043
20796SOL    HW164285   7.958  13.444   1.059
20796SOL    HW264286   7.870  13.498   0.948
20797SOL     OW64287   2.284  11.883   4.532
20797SOL    HW164288   2.234  11.818   4.482
20797SOL    HW264289   2.376  11.860   4.515
20798SOL     OW64290   1.284  12.326   1.157
20798SOL    HW164291   1.302  12.323   1.063
20798SOL    HW264292   1.337  12.256   1.195
20799SOL     OW64293   9.670   4.648  13.210
20799SOL    HW164294   9.651   4.730  13.164
20799SOL    HW264295   9.585   4.606  13.222
20800SOL     OW64296   1.006   2.707   0.096
20800SOL    HW164297   1.081   2.687   0.152
20800SOL    HW264298   0.933   2.717   0.157
20801SOL     OW64299   5.145   7.276  14.406
20801SOL    HW164300   5.070   7.333  14.391
20801SOL    HW264301   5.158   7.277  14.501
20802SOL     OW64302  12.029  12.136  10.561
20802SOL    HW164303  12.015  12.046  10.588
20802SOL    HW264304  12.124  12.144  10.550
20803SOL     OW64305  11.847   0.924   3.275
20803SOL    HW164306  11.826   0.833   3.296
20803SOL    HW264307  11.876   0.921   3.184
20804SOL     OW64308   4.529   4.784   1.231
20804SOL    HW164309   4.511   4.730   1.154
20804SOL    HW264310   4.448   4.833   1.245
20805SOL     OW64311   4.035  14.316  14.667
20805SOL    HW164312   3.967  14.334  14.732
20805SOL    HW264313   4.045  14.221  14.668
20806SOL     OW64314  11.305   4.895  11.749
20806SOL    HW164315  11.313   4.825  11.684
20806SOL    HW264316  11.213   4.921  11.746
20807SOL     OW64317   6.003  11.192   7.734
20807SOL    HW164318   6.028  11.171   7.824
20807SOL    HW264319   5.908  11.184   7.732
20808SOL     OW64320  12.598  12.391   5.433
20808SOL    HW164321  12.621  12.463   5.374
20808SOL    HW264322  12.546  12.432   5.502
20809SOL     OW64323  14.868   5.325   6.716
20809SOL    HW164324  14.818   5.291   6.790
20809SOL    HW264325   0.082   5.278   6.720
20810SOL     OW64326  10.157   2.812   9.035
20810SOL    HW164327  10.083   2.753   9.027
20810SOL    HW264328  10.127   2.880   9.096
20811SOL     OW64329  13.157   3.807   8.016
20811SOL    HW164330  13.160   3.758   7.934
20811SOL    HW264331  13.222   3.765   8.072
20812SOL     OW64332  13.536  13.703  10.353
20812SOL    HW164333  13.604  13.714  10.288
20812SOL    HW264334  13.573  13.740  10.434
20813SOL     OW64335   9.056   0.371   3.575
20813SOL    HW164336   9.069   0.284   3.613
20813SOL    HW264337   9.061   0.357   3.481
20814SOL     OW64338  14.313   1.972   1.255
20814SOL    HW164339  14.366   1.894   1.271
20814SOL    HW264340  14.368   2.045   1.284
20815SOL     OW64341  13.471  12.393  10.959
20815SOL    HW164342  13.540  12.326  10.957
20815SOL    HW264343  13.440  12.392  11.050
20816SOL     OW64344   8.308   5.528   1.173
20816SOL    HW164345   8.338   5.577   1.250
20816SOL    HW264346   8.385   5.479   1.144
20817SOL     OW64347   9.494   1.040   4.981
20817SOL    HW164348   9.495   1.077   4.893
20817SOL    HW264349   9.555   1.094   5.031
20818SOL     OW64350  10.240  12.092   0.790
20818SOL    HW164351  10.201  12.139   0.716
20818SOL    HW264352  10.257  12.161   0.855
20819SOL     OW64353   1.272   7.643   2.659
20819SOL    HW164354   1.251   7.560   2.702
20819SOL    HW264355   1.328   7.689   2.721
20820SOL     OW64356  14.232   8.167   7.006
20820SOL    HW164357  14.285   8.164   6.927
20820SOL    HW264358  14.191   8.253   7.004
20821SOL     OW64359  11.853  12.818  13.336
20821SOL    HW164360  11.919  12.783  13.395
20821SOL    HW264361  11.899  12.829  13.252
20822SOL     OW64362  14.152  14.642   6.475
20822SOL    HW164363  14.109  14.721   6.443
20822SOL    HW264364  14.246  14.659   6.465
20823SOL     OW64365   8.244   4.569   4.972
20823SOL    HW164366   8.251   4.518   4.891
20823SOL    HW264367   8.251   4.660   4.944
20824SOL     OW64368   2.025   1.993   3.251
20824SOL    HW164369   2.109   2.031   3.278
20824SOL    HW264370   2.027   1.904   3.285
20825SOL     OW64371   6.149   9.575   0.146
20825SOL    HW164372   6.132   9.541   0.058
20825SOL    HW264373   6.124   9.667   0.142
20826SOL     OW64374  10.693  10.229  12.525
20826SOL    HW164375  10.721  10.292  12.592
20826SOL    HW264376  10.597  10.233  12.528
20827SOL     OW64377  13.134   2.090   6.004
20827SOL    HW164378  13.080   2.145   5.947
20827SOL    HW264379  13.073   2.022   6.035
20828SOL     OW64380   5.933  11.591   5.493
20828SOL    HW164381   5.975  11.586   5.407
20828SOL    HW264382   5.859  11.651   5.479
20829SOL     OW64383  11.169   5.777   8.962
20829SOL    HW164384  11.221   5.826   9.025
20829SOL    HW264385  11.082   5.814   8.968
20830SOL     OW64386  10.455  13.615   9.569
20830SOL    HW164387  10.498  13.699   9.584
20830SOL    HW264388  10.509  13.572   9.502
20831SOL     OW64389   5.687  11.373   4.968
20831SOL    HW164390   5.713  11.326   4.889
20831SOL    HW264391   5.611  11.425   4.942
20832SOL     OW64392  11.576   3.100  13.601
20832SOL    HW164393  11.613   3.086  13.514
20832SOL    HW264394  11.643   3.070  13.661
20833SOL     OW64395   0.293  13.450   8.902
20833SOL    HW164396   0.372  13.493   8.870
20833SOL    HW264397   0.323  13.363   8.930
20834SOL     OW64398  10.717   5.582   0.896
20834SOL    HW164399  10.733   5.635   0.974
20834SOL    HW264400  10.696   5.495   0.930
20835SOL     OW64401   5.983   9.943   5.343
20835SOL    HW164402   6.029   9.870   5.302
20835SOL    HW264403   5.898   9.946   5.300
20836SOL     OW64404   1.141   8.199  13.917
20836SOL    HW164405   1.117   8.155  13.835
20836SOL    HW264406   1.233   8.177  13.930
20837SOL     OW64407  13.154   2.212  11.568
20837SOL    HW164408  13.133   2.187  11.658
20837SOL    HW264409  13.208   2.291  11.577
20838SOL     OW64410  11.212  13.367   3.461
20838SOL    HW164411  11.297  13.405   3.483
20838SOL    HW264412  11.169  13.354   3.546
20839SOL     OW64413   6.399   8.542  12.484
20839SOL    HW164414   6.406   8.531  12.389
20839SOL    HW264415   6.384   8.635  12.496
20840SOL     OW64416   9.471   5.246   1.691
20840SOL    HW164417   9.447   5.329   1.733
20840SOL    HW264418   9.390   5.194   1.691
20841SOL     OW64419   7.731   8.030  10.482
20841SOL    HW164420   7.728   8.118  10.443
20841SOL    HW264421   7.760   8.045  10.572
20842SOL     OW64422   2.815  11.203   2.335
20842SOL    HW164423   2.863  11.286   2.324
20842SOL    HW264424   2.820  11.185   2.428
20843SOL     OW64425  13.431   9.084   9.682
20843SOL    HW164426  13.381   9.135   9.746
20843SOL    HW264427  13.451   9.146   9.612
20844SOL     OW64428  14.393  10.284   2.931
20844SOL    HW164429  14.338  10.254   2.858
20844SOL    HW264430  14.330  10.312   2.997
20845SOL     OW64431   1.782   4.579   6.050
20845SOL    HW164432   1.742   4.493   6.034
20845SOL    HW264433   1.863   4.560   6.097
20846SOL     OW64434   0.541   9.493   6.916
20846SOL    HW164435   0.547   9.403   6.884
20846SOL    HW264436   0.595   9.495   6.995
20847SOL     OW64437   5.247   9.449  10.625
20847SOL    HW164438   5.321   9.503  10.596
20847SOL    HW264439   5.237   9.471  10.717
20848SOL     OW64440   1.303   5.188  10.498
20848SOL    HW164441   1.368   5.194  10.568
20848SOL    HW264442   1.310   5.272  10.453
20849SOL     OW64443   1.564   6.452  14.460
20849SOL    HW164444   1.527   6.490  14.380
20849SOL    HW264445   1.489   6.411  14.503
20850SOL     OW64446   8.611   9.251   4.297
20850SOL    HW164447   8.622   9.162   4.263
20850SOL    HW264448   8.700   9.278   4.322
20851SOL     OW64449   4.337   3.399   0.240
20851SOL    HW164450   4.392   3.329   0.204
20851SOL    HW264451   4.251   3.384   0.202
20852SOL     OW64452   7.439  10.734  12.551
20852SOL    HW164453   7.378  10.666  12.579
20852SOL    HW264454   7.433  10.734  12.456
20853SOL     OW64455   5.730   2.626   9.221
20853SOL    HW164456   5.651   2.582   9.252
20853SOL    HW264457   5.788   2.555   9.195
20854SOL     OW64458   7.961  14.759   2.455
20854SOL    HW164459   7.930  14.716   2.535
20854SOL    HW264460   7.882  14.771   2.402
20855SOL     OW64461   3.027   6.598   8.101
20855SOL    HW164462   3.032   6.503   8.112
20855SOL    HW264463   3.091   6.632   8.164
20856SOL     OW64464   6.888   8.975  14.017
20856SOL    HW164465   6.923   8.992  13.930
20856SOL    HW264466   6.961   8.994  14.077
20857SOL     OW64467  10.914   2.271   7.188
20857SOL    HW164468  11.005   2.258   7.162
20857SOL    HW264469  10.897   2.364   7.169
20858SOL     OW64470   4.072   1.955   8.493
20858SOL    HW164471   4.077   1.946   8.398
20858SOL    HW264472   4.066   1.866   8.526
20859SOL     OW64473   6.227   8.400  10.895
20859SOL    HW164474   6.265   8.342  10.961
20859SOL    HW264475   6.292   8.402  10.824
20860SOL     OW64476   1.551  14.151   3.504
20860SOL    HW164477   1.475  14.095   3.491
20860SOL    HW264478   1.522  14.238   3.477
20861SOL     OW64479  10.527   0.146  11.131
20861SOL    HW164480  10.456   0.211  11.130
20861SOL    HW264481  10.509   0.093  11.209
20862SOL     OW64482   1.023   5.612  11.015
20862SOL    HW164483   0.989   5.701  11.003
20862SOL    HW264484   1.118   5.622  11.006
20863SOL     OW64485   3.794  10.019   5.799
20863SOL    HW164486   3.704   9.996   5.777
20863SOL    HW264487   3.802  10.111   5.774
20864SOL     OW64488  11.364   9.204   8.493
20864SOL    HW164489  11.339   9.121   8.451
20864SOL    HW264490  11.427   9.178   8.561
20865SOL     OW64491   1.932  11.124  11.634
20865SOL    HW164492   1.913  11.069  11.710
20865SOL    HW264493   1.859  11.185  11.630
20866SOL     OW64494  13.139   6.971  10.833
20866SOL    HW164495  13.161   7.045  10.777
20866SOL    HW264496  13.114   7.010  10.917
20867SOL     OW64497  14.342   8.545  14.219
20867SOL    HW164498  14.397   8.486  14.168
20867SOL    HW264499  14.367   8.633  14.191
20868SOL     OW64500  11.884   1.491   1.870
20868SOL    HW164501  11.873   1.430   1.797
20868SOL    HW264502  11.816   1.465   1.932
20869SOL     OW64503   8.683  11.132   3.393
20869SOL    HW164504   8.643  11.200   3.340
20869SOL    HW264505   8.681  11.053   3.338
20870SOL     OW64506   0.365  12.529  14.283
20870SOL    HW164507   0.366  12.591  14.357
20870SOL    HW264508   0.454  12.531  14.249
20871SOL     OW64509  11.881   6.546  11.993
20871SOL    HW164510  11.795   6.587  12.001
20871SOL    HW264511  11.943   6.619  11.994
20872SOL     OW64512   6.832  14.537   2.152
20872SOL    HW164513   6.906  14.559   2.209
20872SOL    HW264514   6.755  14.568   2.200
20873SOL     OW64515   7.092  12.792   5.570
20873SOL    HW164516   7.093  12.707   5.526
20873SOL    HW264517   7.014  12.836   5.535
20874SOL     OW64518  11.141   3.286   4.713
20874SOL    HW164519  11.076   3.222   4.684
20874SOL    HW264520  11.140   3.280   4.808
20875SOL     OW64521  13.903   9.718  14.463
20875SOL    HW164522  13.879   9.626  14.472
20875SOL    HW264523  13.845   9.751  14.394
20876SOL     OW64524   7.991  12.827   1.112
20876SOL    HW164525   7.934  12.904   1.107
20876SOL    HW264526   7.997  12.796   1.022
20877SOL     OW64527  12.231   6.645  13.401
20877SOL    HW164528  12.213   6.616  13.490
20877SOL    HW264529  12.318   6.684  13.405
20878SOL     OW64530   7.134  12.542  12.171
20878SOL    HW164531   7.042  12.565  12.186
20878SOL    HW264532   7.139  12.450  12.196
20879SOL     OW64533   7.027   8.221   9.245
20879SOL    HW164534   6.991   8.201   9.158
20879SOL    HW264535   7.025   8.138   9.292
20880SOL     OW64536   0.714   0.963   5.063
20880SOL    HW164537   0.762   1.013   4.997
20880SOL    HW264538   0.695   1.027   5.132
20881SOL     OW64539   1.434  14.501  14.728
20881SOL    HW164540   1.442  14.499  14.632
20881SOL    HW264541   1.521  14.525  14.758
20882SOL     OW64542   3.098  14.024  13.492
20882SOL    HW164543   3.145  13.973  13.559
20882SOL    HW264544   3.007  13.993  13.499
20883SOL     OW64545   7.990   2.604   4.144
20883SOL    HW164546   8.076   2.647   4.142
20883SOL    HW264547   7.998   2.533   4.080
20884SOL     OW64548  11.256  11.208  13.652
20884SOL    HW164549  11.199  11.134  13.629
20884SOL    HW264550  11.297  11.233  13.569
20885SOL     OW64551  14.468   3.162   2.195
20885SOL    HW164552  14.404   3.097   2.224
20885SOL    HW264553  14.446   3.179   2.103
20886SOL     OW64554   5.318   5.787   2.091
20886SOL    HW164555   5.224   5.783   2.112
20886SOL    HW264556   5.352   5.701   2.115
20887SOL     OW64557   3.613  10.134   1.474
20887SOL    HW164558   3.595  10.222   1.508
20887SOL    HW264559   3.622  10.080   1.552
20888SOL     OW64560  14.235  13.632   9.594
20888SOL    HW164561  14.176  13.567   9.632
20888SOL    HW264562  14.321  13.612   9.631
20889SOL     OW64563  11.999  10.650  13.619
20889SOL    HW164564  12.026  10.721  13.561
20889SOL    HW264565  12.056  10.577  13.596
20890SOL     OW64566   6.604   9.887  12.180
20890SOL    HW164567   6.648   9.935  12.111
20890SOL    HW264568   6.653   9.805  12.187
20891SOL     OW64569   9.405   7.875   4.866
20891SOL    HW164570   9.345   7.944   4.838
20891SOL    HW264571   9.448   7.911   4.943
20892SOL     OW64572   4.893   0.523   1.508
20892SOL    HW164573   4.822   0.460   1.501
20892SOL    HW264574   4.965   0.474   1.548
20893SOL     OW64575   2.815  10.108   7.234
20893SOL    HW164576   2.788  10.057   7.157
20893SOL    HW264577   2.759  10.076   7.305
20894SOL     OW64578   7.430   1.423   8.093
20894SOL    HW164579   7.474   1.424   8.009
20894SOL    HW264580   7.486   1.474   8.151
20895SOL     OW64581   2.473   7.004   3.205
20895SOL    HW164582   2.397   6.966   3.248
20895SOL    HW264583   2.437   7.074   3.150
20896SOL     OW64584   7.935  14.682   6.115
20896SOL    HW164585   7.841  14.667   6.101
20896SOL    HW264586   7.977  14.628   6.048
20897SOL     OW64587  14.436   6.446   4.391
20897SOL    HW164588  14.362   6.494   4.427
20897SOL    HW264589  14.396   6.381   4.333
20898SOL     OW64590   7.402  13.413   1.122
20898SOL    HW164591   7.476  13.436   1.179
20898SOL    HW264592   7.331  13.391   1.182
20899SOL     OW64593   4.306   8.854   8.037
20899SOL    HW164594   4.259   8.904   8.103
20899SOL    HW264595   4.316   8.767   8.075
20900SOL     OW64596   3.741   0.945  12.012
20900SOL    HW164597   3.701   0.875  11.961
20900SOL    HW264598   3.698   0.939  12.098
20901SOL     OW64599   8.378  13.190  10.574
20901SOL    HW164600   8.318  13.244  10.523
20901SOL    HW264601   8.452  13.174  10.516
20902SOL     OW64602   3.768   4.907  13.456
20902SOL    HW164603   3.750   4.952  13.538
20902SOL    HW264604   3.848   4.857  13.473
20903SOL     OW64605  12.198  10.448   7.212
20903SOL    HW164606  12.222  10.491   7.130
20903SOL    HW264607  12.275  10.459   7.268
20904SOL     OW64608   1.839   5.298   8.422
20904SOL    HW164609   1.803   5.384   8.402
20904SOL    HW264610   1.817   5.245   8.345
20905SOL     OW64611   1.767   2.640  14.392
20905SOL    HW164612   1.676   2.668  14.380
20905SOL    HW264613   1.761   2.548  14.417
20906SOL     OW64614   2.208   6.990  10.893
20906SOL    HW164615   2.156   7.058  10.850
20906SOL    HW264616   2.167   6.980  10.979
20907SOL     OW64617   3.078   4.093   1.983
20907SOL    HW164618   3.121   4.019   1.940
20907SOL    HW264619   2.990   4.095   1.945
20908SOL     OW64620   6.538   1.532   0.360
20908SOL    HW164621   6.602   1.554   0.428
20908SOL    HW264622   6.530   1.437   0.364
20909SOL     OW64623   7.534   2.013   8.192
20909SOL    HW164624   7.458   2.024   8.249
20909SOL    HW264625   7.508   2.051   8.109
20910SOL     OW64626  13.992   7.447   2.953
20910SOL    HW164627  13.982   7.541   2.967
20910SOL    HW264628  13.912   7.421   2.906
20911SOL     OW64629   8.429  14.232  12.791
20911SOL    HW164630   8.361  14.166  12.777
20911SOL    HW264631   8.474  14.238  12.707
20912SOL     OW64632   8.145   1.345  12.237
20912SOL    HW164633   8.207   1.300  12.179
20912SOL    HW264634   8.129   1.282  12.307
20913SOL     OW64635   8.817   0.032  11.527
20913SOL    HW164636   8.811  14.810  11.555
20913SOL    HW264637   8.878   0.072  11.589
20914SOL     OW64638  10.962   6.166  11.721
20914SOL    HW164639  10.904   6.125  11.786
20914SOL    HW264640  11.003   6.092  11.676
20915SOL     OW64641   6.418   9.256   0.464
20915SOL    HW164642   6.505   9.296   0.455
20915SOL    HW264643   6.365   9.300   0.398
20916SOL     OW64644   6.132   2.423   4.553
20916SOL    HW164645   6.051   2.452   4.595
20916SOL    HW264646   6.116   2.331   4.531
20917SOL     OW64647   6.197   3.728   9.635
20917SOL    HW164648   6.167   3.767   9.717
20917SOL    HW264649   6.126   3.746   9.573
20918SOL     OW64650   8.974   4.415   3.994
20918SOL    HW164651   8.966   4.414   3.899
20918SOL    HW264652   9.056   4.370   4.013
20919SOL     OW64653  10.896   9.339   4.493
20919SOL    HW164654  10.865   9.256   4.530
20919SOL    HW264655  10.857   9.342   4.406
20920SOL     OW64656   3.264   8.181   5.031
20920SOL    HW164657   3.232   8.217   5.113
20920SOL    HW264658   3.261   8.255   4.970
20921SOL     OW64659  11.121   8.751   4.236
20921SOL    HW164660  11.197   8.779   4.184
20921SOL    HW264661  11.148   8.767   4.327
20922SOL     OW64662  12.669  10.227   2.832
20922SOL    HW164663  12.621  10.288   2.888
20922SOL    HW264664  12.612  10.151   2.824
20923SOL     OW64665  10.106   3.047  14.832
20923SOL    HW164666  10.013   3.057  14.849
20923SOL    HW264667  10.148   3.092   0.036
20924SOL     OW64668   8.152   5.886  14.333
20924SOL    HW164669   8.057   5.895  14.333
20924SOL    HW264670   8.184   5.967  14.374
20925SOL     OW64671  10.469  11.048   1.913
20925SOL    HW164672  10.492  11.038   1.820
20925SOL    HW264673  10.397  11.111   1.912
20926SOL     OW64674   4.961   6.491   7.636
20926SOL    HW164675   4.893   6.554   7.612
20926SOL    HW264676   4.922   6.439   7.707
20927SOL     OW64677   4.907   8.091   1.055
20927SOL    HW164678   4.913   8.010   1.004
20927SOL    HW264679   4.835   8.076   1.115
20928SOL     OW64680   8.745  14.152   6.001
20928SOL    HW164681   8.807  14.104   5.946
20928SOL    HW264682   8.729  14.095   6.076
20929SOL     OW64683  10.545   5.518   4.563
20929SOL    HW164684  10.576   5.597   4.519
20929SOL    HW264685  10.450   5.523   4.558
20930SOL     OW64686   4.313   1.338  13.274
20930SOL    HW164687   4.345   1.398  13.206
20930SOL    HW264688   4.283   1.261  13.225
20931SOL     OW64689  12.077   8.352   4.544
20931SOL    HW164690  12.035   8.279   4.497
20931SOL    HW264691  12.085   8.421   4.478
20932SOL     OW64692   1.742   8.984   6.553
20932SOL    HW164693   1.704   8.974   6.640
20932SOL    HW264694   1.669   8.968   6.493
20933SOL     OW64695   4.196   5.192  10.931
20933SOL    HW164696   4.271   5.249  10.915
20933SOL    HW264697   4.135   5.245  10.982
20934SOL     OW64698   8.773  13.085   5.221
20934SOL    HW164699   8.868  13.081   5.205
20934SOL    HW264700   8.747  12.994   5.234
20935SOL     OW64701  10.596  11.821   2.863
20935SOL    HW164702  10.511  11.841   2.822
20935SOL    HW264703  10.620  11.901   2.910
20936SOL     OW64704   6.968  13.394   3.521
20936SOL    HW164705   6.998  13.400   3.612
20936SOL    HW264706   6.995  13.307   3.492
20937SOL     OW64707   0.092  11.656   8.271
20937SOL    HW164708   0.131  11.637   8.185
20937SOL    HW264709   0.155  11.623   8.334
20938SOL     OW64710  14.534   8.360   6.134
20938SOL    HW164711  14.556   8.441   6.089
20938SOL    HW264712  14.596   8.296   6.100
20939SOL     OW64713   3.731  11.899   3.418
20939SOL    HW164714   3.670  11.946   3.474
20939SOL    HW264715   3.692  11.812   3.407
20940SOL     OW64716   0.344  13.918  11.178
20940SOL    HW164717   0.289  13.919  11.100
20940SOL    HW264718   0.322  14.000  11.223
20941SOL     OW64719  10.385  14.441   5.724
20941SOL    HW164720  10.308  14.409   5.771
20941SOL    HW264721  10.433  14.492   5.790
20942SOL     OW64722   9.923   1.831   8.783
20942SOL    HW164723   9.923   1.736   8.789
20942SOL    HW264724   9.837   1.857   8.817
20943SOL     OW64725   9.435   4.008   1.154
20943SOL    HW164726   9.503   4.022   1.088
20943SOL    HW264727   9.473   4.043   1.235
20944SOL     OW64728   5.128   5.530   3.644
20944SOL    HW164729   5.113   5.602   3.705
20944SOL    HW264730   5.092   5.560   3.561
20945SOL     OW64731   2.987   1.895   1.761
20945SOL    HW164732   2.905   1.846   1.747
20945SOL    HW264733   3.036   1.883   1.679
20946SOL     OW64734   4.733   2.824  12.451
20946SOL    HW164735   4.738   2.766  12.527
20946SOL    HW264736   4.819   2.815  12.409
20947SOL     OW64737   1.757   4.570   0.339
20947SOL    HW164738   1.769   4.650   0.288
20947SOL    HW264739   1.813   4.505   0.296
20948SOL     OW64740   2.973   7.812   2.729
20948SOL    HW164741   2.944   7.721   2.721
20948SOL    HW264742   3.030   7.826   2.653
20949SOL     OW64743   4.345  10.487  11.217
20949SOL    HW164744   4.394  10.410  11.187
20949SOL    HW264745   4.412  10.553  11.234
20950SOL     OW64746   9.424   8.517   9.173
20950SOL    HW164747   9.403   8.471   9.092
20950SOL    HW264748   9.488   8.584   9.147
20951SOL     OW64749   6.899  10.868  12.441
20951SOL    HW164750   6.837  10.809  12.398
20951SOL    HW264751   6.925  10.929  12.372
20952SOL     OW64752   3.967  12.339   7.005
20952SOL    HW164753   3.925  12.411   6.957
20952SOL    HW264754   4.023  12.296   6.940
20953SOL     OW64755   3.654   0.957   0.102
20953SOL    HW164756   3.587   0.965   0.169
20953SOL    HW264757   3.732   0.926   0.149
20954SOL     OW64758   2.604   9.036   0.774
20954SOL    HW164759   2.546   8.961   0.762
20954SOL    HW264760   2.585   9.092   0.698
20955SOL     OW64761   2.552   8.728  14.733
20955SOL    HW164762   2.551   8.633  14.746
20955SOL    HW264763   2.628   8.759  14.781
20956SOL     OW64764   5.349   7.449  12.564
20956SOL    HW164765   5.364   7.468  12.472
20956SOL    HW264766   5.317   7.359  12.566
20957SOL     OW64767  14.684   2.491   4.473
20957SOL    HW164768  14.653   2.548   4.403
20957SOL    HW264769  14.659   2.537   4.554
20958SOL     OW64770  13.395   8.811   5.353
20958SOL    HW164771  13.307   8.797   5.386
20958SOL    HW264772  13.442   8.854   5.425
20959SOL     OW64773  14.794  10.845   7.307
20959SOL    HW164774  14.799  10.765   7.360
20959SOL    HW264775  14.744  10.906   7.361
20960SOL     OW64776   7.174   3.304   3.488
20960SOL    HW164777   7.210   3.332   3.404
20960SOL    HW264778   7.164   3.209   3.479
20961SOL     OW64779   8.218  11.087   9.003
20961SOL    HW164780   8.181  11.119   9.085
20961SOL    HW264781   8.294  11.035   9.028
20962SOL     OW64782  10.417   8.505  14.384
20962SOL    HW164783  10.451   8.482  14.470
20962SOL    HW264784  10.349   8.441  14.367
20963SOL     OW64785  14.034   7.460   2.627
20963SOL    HW164786  13.953   7.454   2.678
20963SOL    HW264787  14.086   7.385   2.657
20964SOL     OW64788   7.497   5.688  11.924
20964SOL    HW164789   7.573   5.744  11.912
20964SOL    HW264790   7.520   5.605  11.882
20965SOL     OW64791   4.451   3.443   5.436
20965SOL    HW164792   4.474   3.351   5.427
20965SOL    HW264793   4.453   3.478   5.347
20966SOL     OW64794   5.441   7.917  10.141
20966SOL    HW164795   5.476   7.964  10.065
20966SOL    HW264796   5.358   7.881  10.111
20967SOL     OW64797   1.845  14.462   3.798
20967SOL    HW164798   1.829  14.384   3.851
20967SOL    HW264799   1.921  14.439   3.744
20968SOL     OW64800  13.406  13.529  14.176
20968SOL    HW164801  13.497  13.509  14.152
20968SOL    HW264802  13.373  13.582  14.104
20969SOL     OW64803   7.152   1.068   5.002
20969SOL    HW164804   7.146   0.973   4.991
20969SOL    HW264805   7.159   1.080   5.097
20970SOL     OW64806   0.501   5.777   0.804
20970SOL    HW164807   0.478   5.867   0.783
20970SOL    HW264808   0.595   5.780   0.821
20971SOL     OW64809  13.474   3.440   3.863
20971SOL    HW164810  13.408   3.371   3.869
20971SOL    HW264811  13.544   3.411   3.921
20972SOL     OW64812   5.251   5.948  13.885
20972SOL    HW164813   5.303   5.898  13.948
20972SOL    HW264814   5.291   5.929  13.800
20973SOL     OW64815  14.459   3.926   0.921
20973SOL    HW164816  14.549   3.903   0.897
20973SOL    HW264817  14.404   3.869   0.868
20974SOL     OW64818   5.232   1.680   8.129
20974SOL    HW164819   5.144   1.644   8.136
20974SOL    HW264820   5.235   1.750   8.194
20975SOL     OW64821   2.985   8.763  12.164
20975SOL    HW164822   3.050   8.694  12.159
20975SOL    HW264823   2.968   8.772  12.258
20976SOL     OW64824   0.840  11.600   2.306
20976SOL    HW164825   0.827  11.687   2.269
20976SOL    HW264826   0.751  11.568   2.324
20977SOL     OW64827   3.362   7.246   0.574
20977SOL    HW164828   3.394   7.325   0.617
20977SOL    HW264829   3.428   7.226   0.507
20978SOL     OW64830   4.955   2.576   9.857
20978SOL    HW164831   4.889   2.507   9.864
20978SOL    HW264832   5.023   2.549   9.920
20979SOL     OW64833   3.246  11.335   8.543
20979SOL    HW164834   3.200  11.255   8.571
20979SOL    HW264835   3.232  11.339   8.449
20980SOL     OW64836  10.631  11.192   3.511
20980SOL    HW164837  10.564  11.225   3.571
20980SOL    HW264838  10.593  11.113   3.474
20981SOL     OW64839  14.159   6.560   0.866
20981SOL    HW164840  14.104   6.549   0.789
20981SOL    HW264841  14.225   6.491   0.858
20982SOL     OW64842   5.861   2.936   8.305
20982SOL    HW164843   5.946   2.897   8.328
20982SOL    HW264844   5.834   2.982   8.384
20983SOL     OW64845  14.569   7.484   5.305
20983SOL    HW164846  14.549   7.549   5.373
20983SOL    HW264847  14.638   7.526   5.252
20984SOL     OW64848  12.725   3.176   1.295
20984SOL    HW164849  12.721   3.233   1.218
20984SOL    HW264850  12.749   3.090   1.261
20985SOL     OW64851  10.260  14.152   3.110
20985SOL    HW164852  10.292  14.222   3.167
20985SOL    HW264853  10.340  14.107   3.082
20986SOL     OW64854   8.661   6.053   8.151
20986SOL    HW164855   8.708   6.081   8.072
20986SOL    HW264856   8.729   6.030   8.213
20987SOL     OW64857  11.294  14.549   9.754
20987SOL    HW164858  11.220  14.566   9.695
20987SOL    HW264859  11.307  14.455   9.749
20988SOL     OW64860   2.712  13.010   1.888
20988SOL    HW164861   2.705  13.057   1.804
20988SOL    HW264862   2.794  13.040   1.926
20989SOL     OW64863   1.781  12.216   9.631
20989SOL    HW164864   1.744  12.194   9.546
20989SOL    HW264865   1.852  12.152   9.643
20990SOL     OW64866   6.795  12.242  12.234
20990SOL    HW164867   6.872  12.189  12.253
20990SOL    HW264868   6.806  12.267  12.142
20991SOL     OW64869   3.828   3.312   1.002
20991SOL    HW164870   3.901   3.280   0.950
20991SOL    HW264871   3.750   3.283   0.954
20992SOL     OW64872  14.580   0.941  13.204
20992SOL    HW164873  14.549   0.856  13.235
20992SOL    HW264874  14.653   0.962  13.262
20993SOL     OW64875   8.638  12.664   5.699
20993SOL    HW164876   8.680  12.578   5.706
20993SOL    HW264877   8.603  12.666   5.610
20994SOL     OW64878  11.488   9.552  12.801
20994SOL    HW164879  11.555   9.558  12.733
20994SOL    HW264880  11.410   9.590  12.760
20995SOL     OW64881   8.469  10.078   0.444
20995SOL    HW164882   8.418  10.044   0.518
20995SOL    HW264883   8.552  10.105   0.482
20996SOL     OW64884   9.930  10.427   0.297
20996SOL    HW164885  10.007  10.412   0.243
20996SOL    HW264886   9.862  10.373   0.257
20997SOL     OW64887  12.173   8.639  11.717
20997SOL    HW164888  12.190   8.621  11.810
20997SOL    HW264889  12.151   8.732  11.715
20998SOL     OW64890  11.523   8.540   5.585
20998SOL    HW164891  11.460   8.591   5.534
20998SOL    HW264892  11.543   8.594   5.661
20999SOL     OW64893   7.194  13.922   9.801
20999SOL    HW164894   7.269  13.973   9.769
20999SOL    HW264895   7.144  13.983   9.854
21000SOL     OW64896  14.278   0.096   4.158
21000SOL    HW164897  14.329   0.177   4.170
21000SOL    HW264898  14.344   0.027   4.157
21001SOL     OW64899  12.861   0.796  11.183
21001SOL    HW164900  12.934   0.813  11.243
21001SOL    HW264901  12.879   0.710  11.146
21002SOL     OW64902  14.590  10.895   6.677
21002SOL    HW164903  14.589  10.974   6.730
21002SOL    HW264904  14.671  10.900   6.627
21003SOL     OW64905   7.059   6.299   8.856
21003SOL    HW164906   7.110   6.371   8.892
21003SOL    HW264907   6.968   6.323   8.873
21004SOL     OW64908   0.491   2.558   6.366
21004SOL    HW164909   0.564   2.607   6.405
21004SOL    HW264910   0.531   2.504   6.298
21005SOL     OW64911   1.098   9.296   9.268
21005SOL    HW164912   1.009   9.331   9.270
21005SOL    HW264913   1.095   9.220   9.327
21006SOL     OW64914   5.090  11.808   6.743
21006SOL    HW164915   5.052  11.818   6.656
21006SOL    HW264916   5.184  11.820   6.730
21007SOL     OW64917   6.854  11.642   7.925
21007SOL    HW164918   6.932  11.671   7.878
21007SOL    HW264919   6.812  11.723   7.954
21008SOL     OW64920   9.228   0.446  11.882
21008SOL    HW164921   9.265   0.370  11.928
21008SOL    HW264922   9.289   0.462  11.810
21009SOL     OW64923  12.560   0.349  14.492
21009SOL    HW164924  12.546   0.255  14.482
21009SOL    HW264925  12.656   0.359  14.491
21010SOL     OW64926   8.057  12.622   6.058
21010SOL    HW164927   8.000  12.635   5.982
21010SOL    HW264928   8.059  12.527   6.069
21011SOL     OW64929  13.288  14.429   0.721
21011SOL    HW164930  13.302  14.456   0.630
21011SOL    HW264931  13.203  14.385   0.720
21012SOL     OW64932  14.131  13.314   5.281
21012SOL    HW164933  14.168  13.273   5.203
21012SOL    HW264934  14.044  13.344   5.254
21013SOL     OW64935   9.998   9.456   3.332
21013SOL    HW164936   9.997   9.361   3.342
21013SOL    HW264937   9.918   9.476   3.284
21014SOL     OW64938   6.870   1.347   9.126
21014SOL    HW164939   6.846   1.439   9.144
21014SOL    HW264940   6.955   1.336   9.168
21015SOL     OW64941  10.070  14.577   3.697
21015SOL    HW164942  10.049  14.564   3.605
21015SOL    HW264943  10.133  14.648   3.698
21016SOL     OW64944   2.614  10.918  12.058
21016SOL    HW164945   2.644  11.008  12.076
21016SOL    HW264946   2.675  10.886  11.992
21017SOL     OW64947   7.443  13.727   3.228
21017SOL    HW164948   7.418  13.693   3.314
21017SOL    HW264949   7.377  13.693   3.168
21018SOL     OW64950   2.042   8.339   7.805
21018SOL    HW164951   2.036   8.248   7.835
21018SOL    HW264952   2.022   8.335   7.712
21019SOL     OW64953   8.147  12.568   0.499
21019SOL    HW164954   8.088  12.502   0.535
21019SOL    HW264955   8.107  12.592   0.415
21020SOL     OW64956   6.192   7.489   8.236
21020SOL    HW164957   6.218   7.567   8.187
21020SOL    HW264958   6.242   7.494   8.318
21021SOL     OW64959   2.473  13.249   9.519
21021SOL    HW164960   2.431  13.246   9.605
21021SOL    HW264961   2.546  13.187   9.526
21022SOL     OW64962  13.957   5.206   2.062
21022SOL    HW164963  13.866   5.203   2.033
21022SOL    HW264964  13.956   5.170   2.150
21023SOL     OW64965   6.714   5.167  13.519
21023SOL    HW164966   6.761   5.130  13.444
21023SOL    HW264967   6.663   5.239  13.483
21024SOL     OW64968   3.927   8.623   4.141
21024SOL    HW164969   3.899   8.555   4.080
21024SOL    HW264970   3.983   8.681   4.089
21025SOL     OW64971   5.464   8.628   5.278
21025SOL    HW164972   5.491   8.537   5.264
21025SOL    HW264973   5.449   8.634   5.372
21026SOL     OW64974   2.150   6.866   7.831
21026SOL    HW164975   2.115   6.931   7.892
21026SOL    HW264976   2.118   6.782   7.863
21027SOL     OW64977  11.399   9.736  14.507
21027SOL    HW164978  11.492   9.730  14.485
21027SOL    HW264979  11.382   9.830  14.511
21028SOL     OW64980  13.028  11.927   6.676
21028SOL    HW164981  12.994  11.853   6.627
21028SOL    HW264982  13.082  11.976   6.613
21029SOL     OW64983  11.798   6.336   4.804
21029SOL    HW164984  11.729   6.284   4.764
21029SOL    HW264985  11.865   6.272   4.830
21030SOL     OW64986   8.677   9.643   3.730
21030SOL    HW164987   8.706   9.711   3.791
21030SOL    HW264988   8.647   9.572   3.786
21031SOL     OW64989  14.094   2.914   2.110
21031SOL    HW164990  14.054   2.877   2.032
21031SOL    HW264991  14.081   3.009   2.102
21032SOL     OW64992   0.310  10.610  14.168
21032SOL    HW164993   0.289  10.533  14.220
21032SOL    HW264994   0.375  10.657  14.220
21033SOL     OW64995   0.363  11.640   1.985
21033SOL    HW164996   0.396  11.636   1.896
21033SOL    HW264997   0.268  11.642   1.975
21034SOL     OW64998   3.289   5.134   5.896
21034SOL    HW164999   3.234   5.198   5.849
21034SOL    HW265000   3.281   5.054   5.845
21035SOL     OW65001  11.551   2.749  10.795
21035SOL    HW165002  11.640   2.742  10.760
21035SOL    HW265003  11.495   2.752  10.718
21036SOL     OW65004   5.982   6.242   0.094
21036SOL    HW165005   6.012   6.154   0.118
21036SOL    HW265006   5.992   6.245  14.869
21037SOL     OW65007  13.565   3.471   5.910
21037SOL    HW165008  13.616   3.409   5.963
21037SOL    HW265009  13.547   3.544   5.969
21038SOL     OW65010   2.320   7.566   1.888
21038SOL    HW165011   2.355   7.534   1.972
21038SOL    HW265012   2.228   7.584   1.906
21039SOL     OW65013   7.377  14.025  13.868
21039SOL    HW165014   7.359  13.939  13.909
21039SOL    HW265015   7.291  14.057  13.842
21040SOL     OW65016  11.671  10.700  13.538
21040SOL    HW165017  11.719  10.764  13.591
21040SOL    HW265018  11.666  10.623  13.593
21041SOL     OW65019   6.783  13.939   8.952
21041SOL    HW165020   6.739  13.931   9.036
21041SOL    HW265021   6.750  14.021   8.915
21042SOL     OW65022   4.114  11.376   3.065
21042SOL    HW165023   4.125  11.471   3.068
21042SOL    HW265024   4.177  11.347   2.999
21043SOL     OW65025   8.494   1.672  10.700
21043SOL    HW165026   8.501   1.726  10.621
21043SOL    HW265027   8.497   1.735  10.773
21044SOL     OW65028   0.830   9.894   1.366
21044SOL    HW165029   0.892   9.866   1.433
21044SOL    HW265030   0.756   9.833   1.375
21045SOL     OW65031   3.731   6.141   6.809
21045SOL    HW165032   3.808   6.084   6.802
21045SOL    HW265033   3.686   6.111   6.888
21046SOL     OW65034  10.545   8.789  14.566
21046SOL    HW165035  10.603   8.845  14.618
21046SOL    HW265036  10.540   8.708  14.616
21047SOL     OW65037  14.671   1.598   8.619
21047SOL    HW165038  14.748   1.610   8.564
21047SOL    HW265039  14.698   1.534   8.685
21048SOL     OW65040  14.726   5.429  13.508
21048SOL    HW165041  14.670   5.391  13.440
21048SOL    HW265042  14.743   5.355  13.568
21049SOL     OW65043  10.447   9.525   7.144
21049SOL    HW165044  10.543   9.532   7.148
21049SOL    HW265045  10.426   9.450   7.199
21050SOL     OW65046   3.746   2.955   9.817
21050SOL    HW165047   3.652   2.941   9.809
21050SOL    HW265048   3.773   2.900   9.889
21051SOL     OW65049  11.963  13.892   7.537
21051SOL    HW165050  11.889  13.878   7.596
21051SOL    HW265051  12.005  13.972   7.570
21052SOL     OW65052   2.957  14.848   6.552
21052SOL    HW165053   3.034  14.831   6.606
21052SOL    HW265054   2.935   0.070   6.569
21053SOL     OW65055  12.668   6.616  12.815
21053SOL    HW165056  12.728   6.595  12.744
21053SOL    HW265057  12.588   6.646  12.772
21054SOL     OW65058   0.932  10.537   2.162
21054SOL    HW165059   1.010  10.528   2.107
21054SOL    HW265060   0.934  10.461   2.219
21055SOL     OW65061  13.851  11.346   8.104
21055SOL    HW165062  13.817  11.399   8.176
21055SOL    HW265063  13.878  11.409   8.038
21056SOL     OW65064  14.459  10.194  11.962
21056SOL    HW165065  14.369  10.181  11.990
21056SOL    HW265066  14.495  10.257  12.025
21057SOL     OW65067   8.993   7.724   2.063
21057SOL    HW165068   8.936   7.772   2.004
21057SOL    HW265069   8.934   7.688   2.129
21058SOL     OW65070   4.786   6.759  10.781
21058SOL    HW165071   4.749   6.799  10.860
21058SOL    HW265072   4.710   6.733  10.729
21059SOL     OW65073  13.656   2.326  14.391
21059SOL    HW165074  13.578   2.380  14.381
21059SOL    HW265075  13.693   2.351  14.476
21060SOL     OW65076  12.129   6.350  12.786
21060SOL    HW165077  12.102   6.318  12.872
21060SOL    HW265078  12.110   6.277  12.727
21061SOL     OW65079  10.656  13.043  11.353
21061SOL    HW165080  10.611  13.099  11.416
21061SOL    HW265081  10.614  13.064  11.269
21062SOL     OW65082   6.703   9.335  12.010
21062SOL    HW165083   6.717   9.365  12.100
21062SOL    HW265084   6.791   9.324  11.975
21063SOL     OW65085   3.764   6.044  14.655
21063SOL    HW165086   3.848   6.029  14.612
21063SOL    HW265087   3.747   5.962  14.702
21064SOL     OW65088  14.487   2.843   8.656
21064SOL    HW165089  14.466   2.845   8.563
21064SOL    HW265090  14.469   2.932   8.687
21065SOL     OW65091   5.445   7.117   3.475
21065SOL    HW165092   5.489   7.083   3.553
21065SOL    HW265093   5.376   7.053   3.457
21066SOL     OW65094   6.742   6.202   7.388
21066SOL    HW165095   6.782   6.127   7.431
21066SOL    HW265096   6.816   6.260   7.368
21067SOL     OW65097  11.298  11.922   1.803
21067SOL    HW165098  11.324  12.010   1.832
21067SOL    HW265099  11.205  11.916   1.826
21068SOL     OW65100   2.721   5.637   4.728
21068SOL    HW165101   2.752   5.727   4.729
21068SOL    HW265102   2.674   5.626   4.811
21069SOL     OW65103   8.384   5.634  10.420
21069SOL    HW165104   8.439   5.608  10.346
21069SOL    HW265105   8.381   5.556  10.476
21070SOL     OW65106   1.902   9.883   3.053
21070SOL    HW165107   1.892   9.811   2.991
21070SOL    HW265108   1.909   9.840   3.138
21071SOL     OW65109   7.513   6.290  12.083
21071SOL    HW165110   7.558   6.207  12.102
21071SOL    HW265111   7.520   6.300  11.989
21072SOL     OW65112   0.441   2.214   3.969
21072SOL    HW165113   0.390   2.295   3.957
21072SOL    HW265114   0.500   2.213   3.893
21073SOL     OW65115   4.534   9.638   0.183
21073SOL    HW165116   4.519   9.708   0.119
21073SOL    HW265117   4.588   9.678   0.251
21074SOL     OW65118  14.792   7.968  14.307
21074SOL    HW165119  14.789   8.005  14.395
21074SOL    HW265120  14.755   7.880  14.317
21075SOL     OW65121   3.004   2.727   6.554
21075SOL    HW165122   2.998   2.751   6.646
21075SOL    HW265123   3.024   2.633   6.555
21076SOL     OW65124  12.783   1.955  11.389
21076SOL    HW165125  12.743   2.032  11.429
21076SOL    HW265126  12.718   1.885  11.400
21077SOL     OW65127   1.131   9.498  14.577
21077SOL    HW165128   1.159   9.480  14.487
21077SOL    HW265129   1.111   9.411  14.613
21078SOL     OW65130   3.324  10.072  11.753
21078SOL    HW165131   3.412  10.036  11.766
21078SOL    HW265132   3.268  10.020  11.811
21079SOL     OW65133  13.092   2.258  13.885
21079SOL    HW165134  13.123   2.168  13.872
21079SOL    HW265135  13.034   2.252  13.960
21080SOL     OW65136  14.579   5.128  11.776
21080SOL    HW165137  14.538   5.042  11.768
21080SOL    HW265138  14.671   5.113  11.752
21081SOL     OW65139   5.868   6.560   1.621
21081SOL    HW165140   5.847   6.627   1.556
21081SOL    HW265141   5.812   6.581   1.696
21082SOL     OW65142   6.260  14.209   1.723
21082SOL    HW165143   6.227  14.133   1.771
21082SOL    HW265144   6.354  14.207   1.738
21083SOL     OW65145   3.479   4.893   1.048
21083SOL    HW165146   3.408   4.946   1.010
21083SOL    HW265147   3.531   4.866   0.972
21084SOL     OW65148   4.860   2.634   4.384
21084SOL    HW165149   4.818   2.681   4.456
21084SOL    HW265150   4.873   2.701   4.317
21085SOL     OW65151   9.873  10.661   5.319
21085SOL    HW165152   9.793  10.713   5.306
21085SOL    HW265153   9.875  10.603   5.242
21086SOL     OW65154   4.843   5.176   2.869
21086SOL    HW165155   4.769   5.236   2.873
21086SOL    HW265156   4.901   5.204   2.940
21087SOL     OW65157   4.050   0.835   3.005
21087SOL    HW165158   4.043   0.740   3.001
21087SOL    HW265159   4.062   0.863   2.914
21088SOL     OW65160   7.838   3.102  13.787
21088SOL    HW165161   7.803   3.083  13.874
21088SOL    HW265162   7.816   3.194  13.772
21089SOL     OW65163   8.513  11.153   4.229
21089SOL    HW165164   8.486  11.207   4.303
21089SOL    HW265165   8.520  11.064   4.264
21090SOL     OW65166   2.693  10.680   5.967
21090SOL    HW165167   2.657  10.763   5.998
21090SOL    HW265168   2.619  10.621   5.964
21091SOL     OW65169  11.335  13.759   4.382
21091SOL    HW165170  11.403  13.787   4.321
21091SOL    HW265171  11.256  13.805   4.353
21092SOL     OW65172  11.865   5.783   0.169
21092SOL    HW165173  11.912   5.844   0.227
21092SOL    HW265174  11.918   5.704   0.170
21093SOL     OW65175   2.114  12.563   2.749
21093SOL    HW165176   2.025  12.590   2.730
21093SOL    HW265177   2.109  12.518   2.833
21094SOL     OW65178  11.910   9.175   1.794
21094SOL    HW165179  11.975   9.161   1.724
21094SOL    HW265180  11.831   9.133   1.762
21095SOL     OW65181   6.670   4.054  11.180
21095SOL    HW165182   6.757   4.017  11.190
21095SOL    HW265183   6.633   4.008  11.104
21096SOL     OW65184   0.325  14.198  14.279
21096SOL    HW165185   0.390  14.215  14.210
21096SOL    HW265186   0.245  14.175  14.231
21097SOL     OW65187   2.830  13.096   7.069
21097SOL    HW165188   2.919  13.103   7.035
21097SOL    HW265189   2.775  13.141   7.005
21098SOL     OW65190   2.662   3.290   7.623
21098SOL    HW165191   2.704   3.211   7.591
21098SOL    HW265192   2.734   3.347   7.650
21099SOL     OW65193   8.306  13.834   5.289
21099SOL    HW165194   8.379  13.777   5.264
21099SOL    HW265195   8.340  13.885   5.362
21100SOL     OW65196   8.744   9.484  11.309
21100SOL    HW165197   8.697   9.456  11.230
21100SOL    HW265198   8.797   9.558  11.280
21101SOL     OW65199  11.780  10.442   1.327
21101SOL    HW165200  11.771  10.373   1.392
21101SOL    HW265201  11.783  10.397   1.243
21102SOL     OW65202  13.392  11.111   4.187
21102SOL    HW165203  13.454  11.112   4.260
21102SOL    HW265204  13.308  11.134   4.227
21103SOL     OW65205   4.205  13.633   6.024
21103SOL    HW165206   4.250  13.702   5.974
21103SOL    HW265207   4.205  13.557   5.966
21104SOL     OW65208  11.659  12.655   8.971
21104SOL    HW165209  11.616  12.685   8.891
21104SOL    HW265210  11.643  12.560   8.973
21105SOL     OW65211  12.262   4.369   9.807
21105SOL    HW165212  12.262   4.282   9.846
21105SOL    HW265213  12.347   4.406   9.831
21106SOL     OW65214  11.987  14.768   8.838
21106SOL    HW165215  12.003  14.800   8.927
21106SOL    HW265216  11.961  14.847   8.790
21107SOL     OW65217   1.140  11.063  12.157
21107SOL    HW165218   1.080  10.992  12.181
21107SOL    HW265219   1.093  11.112  12.089
21108SOL     OW65220   4.374   8.851  12.436
21108SOL    HW165221   4.367   8.923  12.499
21108SOL    HW265222   4.337   8.775  12.480
21109SOL     OW65223   2.271  10.202   6.668
21109SOL    HW165224   2.335  10.133   6.680
21109SOL    HW265225   2.269  10.249   6.751
21110SOL     OW65226  10.432   0.017   1.502
21110SOL    HW165227  10.340  14.859   1.499
21110SOL    HW265228  10.456   0.028   1.410
21111SOL     OW65229   1.137   0.009   1.516
21111SOL    HW165230   1.097   0.073   1.457
21111SOL    HW265231   1.226   0.042   1.530
21112SOL     OW65232  12.786   2.388   5.508
21112SOL    HW165233  12.877   2.361   5.492
21112SOL    HW265234  12.794   2.473   5.552
21113SOL     OW65235   0.425   4.739   3.929
21113SOL    HW165236   0.379   4.711   4.008
21113SOL    HW265237   0.507   4.776   3.960
21114SOL     OW65238   1.439   2.594  12.347
21114SOL    HW165239   1.534   2.591  12.362
21114SOL    HW265240   1.419   2.509  12.308
21115SOL     OW65241   1.893  10.586   2.559
21115SOL    HW165242   1.902  10.663   2.614
21115SOL    HW265243   1.801  10.562   2.567
21116SOL     OW65244  13.891   8.340  14.112
21116SOL    HW165245  13.940   8.356  14.193
21116SOL    HW265246  13.911   8.416  14.058
21117SOL     OW65247   5.451  14.752   1.925
21117SOL    HW165248   5.475  14.775   1.836
21117SOL    HW265249   5.400  14.671   1.916
21118SOL     OW65250   1.958   7.119   8.005
21118SOL    HW165251   2.051   7.119   8.025
21118SOL    HW265252   1.931   7.210   8.017
21119SOL     OW65253   1.958   3.972   5.890
21119SOL    HW165254   1.915   3.888   5.873
21119SOL    HW265255   1.948   4.021   5.809
21120SOL     OW65256   1.403   1.537   9.558
21120SOL    HW165257   1.375   1.501   9.642
21120SOL    HW265258   1.447   1.619   9.582
21121SOL     OW65259   1.829   9.187   1.799
21121SOL    HW165260   1.853   9.172   1.707
21121SOL    HW265261   1.768   9.261   1.796
21122SOL     OW65262   5.502   4.932   7.506
21122SOL    HW165263   5.559   4.997   7.465
21122SOL    HW265264   5.541   4.848   7.480
21123SOL     OW65265   6.229   4.097  14.142
21123SOL    HW165266   6.247   4.148  14.221
21123SOL    HW265267   6.315   4.069  14.110
21124SOL     OW65268   0.566  14.095   2.419
21124SOL    HW165269   0.534  14.073   2.507
21124SOL    HW265270   0.562  14.012   2.371
21125SOL     OW65271  10.370  13.123   0.047
21125SOL    HW165272  10.332  13.210   0.032
21125SOL    HW265273  10.330  13.092   0.128
21126SOL     OW65274   4.452  10.814   2.618
21126SOL    HW165275   4.461  10.758   2.695
21126SOL    HW265276   4.372  10.784   2.576
21127SOL     OW65277  12.901   2.511  14.377
21127SOL    HW165278  12.855   2.571  14.436
21127SOL    HW265279  12.938   2.568  14.309
21128SOL     OW65280  11.810   6.914  11.963
21128SOL    HW165281  11.825   6.975  11.890
21128SOL    HW265282  11.889   6.860  11.966
21129SOL     OW65283   2.050   5.760   9.690
21129SOL    HW165284   1.968   5.755   9.740
21129SOL    HW265285   2.116   5.785   9.755
21130SOL     OW65286   8.782   7.738   3.662
21130SOL    HW165287   8.712   7.673   3.659
21130SOL    HW265288   8.755   7.800   3.730
21131SOL     OW65289   5.288   5.823  14.181
21131SOL    HW165290   5.344   5.901  14.186
21131SOL    HW265291   5.346   5.753  14.151
21132SOL     OW65292   9.581   5.041  12.794
21132SOL    HW165293   9.548   5.107  12.733
21132SOL    HW265294   9.562   5.076  12.880
21133SOL     OW65295   2.198   7.757  13.327
21133SOL    HW165296   2.228   7.801  13.406
21133SOL    HW265297   2.106   7.781  13.319
21134SOL     OW65298   5.991   9.110   8.852
21134SOL    HW165299   6.082   9.120   8.880
21134SOL    HW265300   5.985   9.019   8.824
21135SOL     OW65301   5.133   2.512   1.185
21135SOL    HW165302   5.161   2.421   1.178
21135SOL    HW265303   5.069   2.512   1.256
21136SOL     OW65304  12.233   3.970  12.589
21136SOL    HW165305  12.142   3.941  12.593
21136SOL    HW265306  12.229   4.057  12.551
21137SOL     OW65307  10.548  10.021   6.243
21137SOL    HW165308  10.484   9.978   6.300
21137SOL    HW265309  10.496  10.070   6.179
21138SOL     OW65310   3.146  10.784   4.192
21138SOL    HW165311   3.194  10.708   4.224
21138SOL    HW265312   3.178  10.796   4.102
21139SOL     OW65313   7.977  12.506   0.274
21139SOL    HW165314   7.956  12.579   0.215
21139SOL    HW265315   7.943  12.429   0.229
21140SOL     OW65316   5.515   3.377   3.044
21140SOL    HW165317   5.578   3.403   2.978
21140SOL    HW265318   5.553   3.299   3.085
21141SOL     OW65319   9.259   1.030   7.875
21141SOL    HW165320   9.310   0.949   7.872
21141SOL    HW265321   9.279   1.068   7.961
21142SOL     OW65322  11.816  14.351   7.847
21142SOL    HW165323  11.731  14.392   7.832
21142SOL    HW265324  11.879  14.417   7.819
21143SOL     OW65325   6.429  13.205   5.504
21143SOL    HW165326   6.479  13.286   5.500
21143SOL    HW265327   6.492  13.139   5.534
21144SOL     OW65328  13.616  12.976  12.143
21144SOL    HW165329  13.574  13.032  12.208
21144SOL    HW265330  13.548  12.961  12.077
21145SOL     OW65331   4.248   0.283  14.815
21145SOL    HW165332   4.222   0.372  14.792
21145SOL    HW265333   4.343   0.283  14.809
21146SOL     OW65334  11.900   1.134   7.559
21146SOL    HW165335  11.966   1.065   7.562
21146SOL    HW265336  11.832   1.100   7.502
21147SOL     OW65337   6.576   7.839   8.794
21147SOL    HW165338   6.513   7.771   8.769
21147SOL    HW265339   6.634   7.846   8.718
21148SOL     OW65340   4.976   8.894   5.450
21148SOL    HW165341   4.900   8.932   5.406
21148SOL    HW265342   5.048   8.953   5.429
21149SOL     OW65343   5.430   5.808   5.255
21149SOL    HW165344   5.491   5.813   5.182
21149SOL    HW265345   5.468   5.744   5.315
21150SOL     OW65346   9.752   3.272   3.711
21150SOL    HW165347   9.712   3.191   3.744
21150SOL    HW265348   9.837   3.244   3.677
21151SOL     OW65349   3.359  11.732   8.388
21151SOL    HW165350   3.383  11.640   8.376
21151SOL    HW265351   3.390  11.754   8.476
21152SOL     OW65352  13.378   2.767  14.581
21152SOL    HW165353  13.388   2.846  14.528
21152SOL    HW265354  13.315   2.791  14.648
21153SOL     OW65355   2.076   9.695  14.171
21153SOL    HW165356   2.152   9.734  14.215
21153SOL    HW265357   2.042   9.631  14.234
21154SOL     OW65358  13.613   3.494  14.127
21154SOL    HW165359  13.680   3.431  14.152
21154SOL    HW265360  13.550   3.493  14.199
21155SOL     OW65361  13.514   9.237   3.202
21155SOL    HW165362  13.491   9.260   3.292
21155SOL    HW265363  13.436   9.260   3.151
21156SOL     OW65364   8.880  14.450   5.208
21156SOL    HW165365   8.848  14.378   5.263
21156SOL    HW265366   8.974  14.451   5.223
21157SOL     OW65367   2.825   8.829   6.062
21157SOL    HW165368   2.797   8.811   5.972
21157SOL    HW265369   2.768   8.774   6.116
21158SOL     OW65370  11.631   9.360  11.998
21158SOL    HW165371  11.642   9.361  11.903
21158SOL    HW265372  11.687   9.288  12.027
21159SOL     OW65373  10.307  13.468   8.201
21159SOL    HW165374  10.233  13.525   8.183
21159SOL    HW265375  10.304  13.402   8.131
21160SOL     OW65376  13.456   5.512  11.193
21160SOL    HW165377  13.411   5.475  11.269
21160SOL    HW265378  13.486   5.435  11.144
21161SOL     OW65379  10.490   4.214   8.743
21161SOL    HW165380  10.416   4.207   8.683
21161SOL    HW265381  10.466   4.285   8.803
21162SOL     OW65382  12.210   1.433   5.730
21162SOL    HW165383  12.235   1.510   5.679
21162SOL    HW265384  12.263   1.362   5.694
21163SOL     OW65385   8.359   1.813   8.136
21163SOL    HW165386   8.422   1.762   8.185
21163SOL    HW265387   8.411   1.874   8.083
21164SOL     OW65388  12.330   4.659   0.167
21164SOL    HW165389  12.244   4.629   0.198
21164SOL    HW265390  12.352   4.732   0.224
21165SOL     OW65391   1.540   4.146   8.332
21165SOL    HW165392   1.496   4.227   8.308
21165SOL    HW265393   1.626   4.174   8.365
21166SOL     OW65394   1.240   5.179   5.319
21166SOL    HW165395   1.148   5.207   5.313
21166SOL    HW265396   1.278   5.237   5.385
21167SOL     OW65397  10.971   0.770   0.907
21167SOL    HW165398  10.902   0.786   0.972
21167SOL    HW265399  11.003   0.682   0.927
21168SOL     OW65400  11.633   1.219  11.813
21168SOL    HW165401  11.598   1.308  11.813
21168SOL    HW265402  11.622   1.189  11.722
21169SOL     OW65403  11.418  11.883  14.011
21169SOL    HW165404  11.490  11.928  13.967
21169SOL    HW265405  11.381  11.949  14.071
21170SOL     OW65406  10.717   4.432  14.281
21170SOL    HW165407  10.801   4.394  14.255
21170SOL    HW265408  10.730   4.459  14.371
21171SOL     OW65409   9.760  11.099  10.431
21171SOL    HW165410   9.703  11.168  10.466
21171SOL    HW265411   9.793  11.053  10.508
21172SOL     OW65412   0.112   9.364   1.620
21172SOL    HW165413   0.135   9.438   1.676
21172SOL    HW265414   0.152   9.386   1.535
21173SOL     OW65415   0.353   0.778   6.837
21173SOL    HW165416   0.431   0.830   6.854
21173SOL    HW265417   0.288   0.842   6.807
21174SOL     OW65418  12.387   6.253   6.257
21174SOL    HW165419  12.338   6.323   6.214
21174SOL    HW265420  12.321   6.202   6.303
21175SOL     OW65421   5.640  10.609   4.900
21175SOL    HW165422   5.701  10.603   4.827
21175SOL    HW265423   5.690  10.651   4.970
21176SOL     OW65424   3.233   8.366   7.933
21176SOL    HW165425   3.313   8.314   7.922
21176SOL    HW265426   3.260   8.440   7.988
21177SOL     OW65427   9.072   1.155   8.127
21177SOL    HW165428   9.017   1.081   8.152
21177SOL    HW265429   9.015   1.212   8.076
21178SOL     OW65430   0.497  11.959   0.479
21178SOL    HW165431   0.531  11.909   0.405
21178SOL    HW265432   0.535  12.047   0.468
21179SOL     OW65433   7.573   9.688  12.823
21179SOL    HW165434   7.658   9.702  12.781
21179SOL    HW265435   7.586   9.721  12.912
21180SOL     OW65436   2.577   8.737  12.818
21180SOL    HW165437   2.638   8.710  12.886
21180SOL    HW265438   2.558   8.829  12.837
21181SOL     OW65439   3.678  14.646   5.799
21181SOL    HW165440   3.689  14.737   5.773
21181SOL    HW265441   3.736  14.597   5.741
21182SOL     OW65442  14.745   0.785  10.945
21182SOL    HW165443  14.829   0.825  10.924
21182SOL    HW265444  14.720   0.738  10.865
21183SOL     OW65445   2.875  10.120   0.373
21183SOL    HW165446   2.915  10.207   0.381
21183SOL    HW265447   2.813  10.115   0.446
21184SOL     OW65448  14.729  11.089   4.685
21184SOL    HW165449  14.721  11.130   4.599
21184SOL    HW265450  14.666  11.136   4.740
21185SOL     OW65451  14.507   5.203   0.496
21185SOL    HW165452  14.436   5.227   0.437
21185SOL    HW265453  14.470   5.135   0.552
21186SOL     OW65454   4.331   6.835   5.204
21186SOL    HW165455   4.407   6.877   5.243
21186SOL    HW265456   4.361   6.805   5.118
21187SOL     OW65457   4.710  14.796   9.331
21187SOL    HW165458   4.623  14.837   9.323
21187SOL    HW265459   4.770  14.869   9.342
21188SOL     OW65460   7.801   6.009  14.300
21188SOL    HW165461   7.797   6.101  14.326
21188SOL    HW265462   7.720   5.971  14.336
21189SOL     OW65463   6.861   0.822   8.678
21189SOL    HW165464   6.906   0.765   8.615
21189SOL    HW265465   6.851   0.768   8.756
21190SOL     OW65466   6.039   1.240   0.850
21190SOL    HW165467   6.018   1.203   0.937
21190SOL    HW265468   6.127   1.207   0.831
21191SOL     OW65469   0.873   7.844  10.629
21191SOL    HW165470   0.880   7.752  10.656
21191SOL    HW265471   0.956   7.862  10.584
21192SOL     OW65472   6.651   8.280   5.564
21192SOL    HW165473   6.573   8.242   5.603
21192SOL    HW265474   6.723   8.249   5.619
21193SOL     OW65475   5.483  11.495   4.831
21193SOL    HW165476   5.389  11.516   4.836
21193SOL    HW265477   5.494  11.454   4.745
21194SOL     OW65478   0.968   5.925   0.478
21194SOL    HW165479   1.046   5.978   0.466
21194SOL    HW265480   0.915   5.942   0.400
21195SOL     OW65481   5.783  10.844   6.259
21195SOL    HW165482   5.728  10.887   6.193
21195SOL    HW265483   5.740  10.760   6.274
21196SOL     OW65484   1.654  14.866  12.528
21196SOL    HW165485   1.667   0.031  12.616
21196SOL    HW265486   1.724   0.036  12.476
21197SOL     OW65487   2.368   3.822   1.495
21197SOL    HW165488   2.406   3.774   1.421
21197SOL    HW265489   2.428   3.896   1.507
21198SOL     OW65490   1.908   7.979   2.585
21198SOL    HW165491   1.891   8.046   2.651
21198SOL    HW265492   1.895   8.024   2.501
21199SOL     OW65493   3.313   1.324   8.142
21199SOL    HW165494   3.378   1.293   8.206
21199SOL    HW265495   3.338   1.282   8.060
21200SOL     OW65496  12.749  13.998   3.371
21200SOL    HW165497  12.786  13.921   3.414
21200SOL    HW265498  12.670  14.019   3.422
21201SOL     OW65499   9.100   7.528   9.887
21201SOL    HW165500   9.179   7.562   9.928
21201SOL    HW265501   9.111   7.545   9.794
21202SOL     OW65502  13.276   7.957   9.635
21202SOL    HW165503  13.256   7.950   9.542
21202SOL    HW265504  13.303   7.868   9.660
21203SOL     OW65505   2.262  13.590   9.307
21203SOL    HW165506   2.169  13.578   9.328
21203SOL    HW265507   2.289  13.665   9.361
21204SOL     OW65508   6.138   0.470  14.570
21204SOL    HW165509   6.070   0.482  14.504
21204SOL    HW265510   6.219   0.460  14.520
21205SOL     OW65511   4.973   6.571   7.298
21205SOL    HW165512   4.990   6.642   7.361
21205SOL    HW265513   4.941   6.616   7.220
21206SOL     OW65514   2.848   1.294  12.488
21206SOL    HW165515   2.791   1.336  12.424
21206SOL    HW265516   2.914   1.361  12.509
21207SOL     OW65517   1.919   0.846  13.217
21207SOL    HW165518   1.980   0.812  13.283
21207SOL    HW265519   1.849   0.781  13.213
21208SOL     OW65520   7.719   4.752  10.957
21208SOL    HW165521   7.719   4.794  11.043
21208SOL    HW265522   7.637   4.779  10.917
21209SOL     OW65523   2.461   1.408  10.372
21209SOL    HW165524   2.531   1.415  10.437
21209SOL    HW265525   2.494   1.346  10.307
21210SOL     OW65526  12.784   7.448  12.879
21210SOL    HW165527  12.774   7.432  12.972
21210SOL    HW265528  12.695   7.467  12.848
21211SOL     OW65529  10.262   3.931   7.633
21211SOL    HW165530  10.184   3.883   7.658
21211SOL    HW265531  10.329   3.864   7.620
21212SOL     OW65532   3.542   5.569   4.178
21212SOL    HW165533   3.575   5.605   4.096
21212SOL    HW265534   3.611   5.585   4.241
21213SOL     OW65535  12.841   8.935   4.096
21213SOL    HW165536  12.857   9.014   4.146
21213SOL    HW265537  12.878   8.864   4.149
21214SOL     OW65538   2.574   9.224  12.078
21214SOL    HW165539   2.551   9.133  12.062
21214SOL    HW265540   2.652   9.240  12.025
21215SOL     OW65541   1.908   2.084   8.050
21215SOL    HW165542   1.901   2.106   8.143
21215SOL    HW265543   1.994   2.119   8.024
21216SOL     OW65544   9.779   0.499  13.872
21216SOL    HW165545   9.805   0.585  13.840
21216SOL    HW265546   9.857   0.465  13.916
21217SOL     OW65547   3.404   7.919   3.886
21217SOL    HW165548   3.354   7.994   3.853
21217SOL    HW265549   3.342   7.846   3.883
21218SOL     OW65550   8.173   1.707  10.339
21218SOL    HW165551   8.170   1.777  10.404
21218SOL    HW265552   8.145   1.628  10.386
21219SOL     OW65553   8.280   1.566  12.916
21219SOL    HW165554   8.246   1.627  12.981
21219SOL    HW265555   8.289   1.483  12.963
21220SOL     OW65556   8.308   8.046   1.758
21220SOL    HW165557   8.309   8.141   1.743
21220SOL    HW265558   8.269   8.036   1.845
21221SOL     OW65559   9.789   4.711   0.508
21221SOL    HW165560   9.807   4.763   0.429
21221SOL    HW265561   9.862   4.730   0.567
21222SOL     OW65562   4.921   4.469   7.867
21222SOL    HW165563   4.876   4.421   7.937
21222SOL    HW265564   5.011   4.437   7.870
21223SOL     OW65565   1.849   8.431   6.809
21223SOL    HW165566   1.793   8.416   6.885
21223SOL    HW265567   1.823   8.517   6.776
21224SOL     OW65568   2.656   7.673  12.054
21224SOL    HW165569   2.735   7.713  12.091
21224SOL    HW265570   2.660   7.694  11.961
21225SOL     OW65571   7.495   6.613   7.675
21225SOL    HW165572   7.579   6.659   7.683
21225SOL    HW265573   7.491   6.558   7.753
21226SOL     OW65574   2.644   9.634   5.649
21226SOL    HW165575   2.608   9.670   5.568
21226SOL    HW265576   2.665   9.543   5.628
21227SOL     OW65577   3.146   1.281   9.123
21227SOL    HW165578   3.062   1.248   9.090
21227SOL    HW265579   3.201   1.288   9.046
21228SOL     OW65580   0.581   3.662   0.441
21228SOL    HW165581   0.527   3.583   0.449
21228SOL    HW265582   0.626   3.668   0.526
21229SOL     OW65583  11.252   0.546   4.979
21229SOL    HW165584  11.317   0.613   5.003
21229SOL    HW265585  11.292   0.500   4.905
21230SOL     OW65586  14.418   4.627  14.068
21230SOL    HW165587  14.438   4.615  13.975
21230SOL    HW265588  14.340   4.575  14.083
21231SOL     OW65589  13.169   5.761   0.383
21231SOL    HW165590  13.120   5.809   0.449
21231SOL    HW265591  13.228   5.826   0.344
21232SOL     OW65592  10.076   0.414   2.207
21232SOL    HW165593  10.030   0.497   2.191
21232SOL    HW265594  10.009   0.347   2.200
21233SOL     OW65595   0.342  10.172   3.539
21233SOL    HW165596   0.386  10.159   3.623
21233SOL    HW265597   0.248  10.164   3.560
21234SOL     OW65598   1.325  11.865   4.188
21234SOL    HW165599   1.366  11.846   4.103
21234SOL    HW265600   1.398  11.871   4.249
21235SOL     OW65601   9.969   5.314  13.117
21235SOL    HW165602  10.011   5.244  13.067
21235SOL    HW265603  10.040   5.376  13.135
21236SOL     OW65604  13.986   8.736   3.494
21236SOL    HW165605  13.896   8.758   3.520
21236SOL    HW265606  13.995   8.643   3.516
21237SOL     OW65607   2.355   5.570   1.429
21237SOL    HW165608   2.398   5.565   1.514
21237SOL    HW265609   2.375   5.486   1.387
21238SOL     OW65610   5.865   6.103   2.494
21238SOL    HW165611   5.916   6.168   2.543
21238SOL    HW265612   5.804   6.068   2.559
21239SOL     OW65613   0.548   0.307   3.915
21239SOL    HW165614   0.533   0.223   3.870
21239SOL    HW265615   0.551   0.284   4.007
21240SOL     OW65616  13.423   5.157   3.142
21240SOL    HW165617  13.331   5.168   3.167
21240SOL    HW265618  13.455   5.087   3.198
21241SOL     OW65619   5.551   8.469  13.495
21241SOL    HW165620   5.632   8.519  13.508
21241SOL    HW265621   5.503   8.517  13.428
21242SOL     OW65622   0.692   1.488   0.186
21242SOL    HW165623   0.782   1.483   0.151
21242SOL    HW265624   0.649   1.411   0.151
21243SOL     OW65625   2.376   1.212   2.260
21243SOL    HW165626   2.405   1.198   2.170
21243SOL    HW265627   2.304   1.151   2.273
21244SOL     OW65628   4.674   0.959  13.256
21244SOL    HW165629   4.697   1.028  13.318
21244SOL    HW265630   4.695   0.877  13.302
21245SOL     OW65631   9.217   6.324   5.384
21245SOL    HW165632   9.234   6.288   5.471
21245SOL    HW265633   9.173   6.254   5.337
21246SOL     OW65634  10.656  14.786  11.222
21246SOL    HW165635  10.589  14.724  11.194
21246SOL    HW265636  10.699  14.812  11.141
21247SOL     OW65637  11.515  10.256   2.993
21247SOL    HW165638  11.467  10.173   2.985
21247SOL    HW265639  11.520  10.272   3.087
21248SOL     OW65640  13.758   7.879   4.824
21248SOL    HW165641  13.741   7.891   4.917
21248SOL    HW265642  13.783   7.966   4.793
21249SOL     OW65643   1.059   6.880   5.438
21249SOL    HW165644   1.129   6.884   5.373
21249SOL    HW265645   1.016   6.966   5.432
21250SOL     OW65646  13.763   1.957  14.805
21250SOL    HW165647  13.829   2.003  14.753
21250SOL    HW265648  13.729   1.889  14.747
21251SOL     OW65649   3.400   8.765   9.763
21251SOL    HW165650   3.410   8.672   9.742
21251SOL    HW265651   3.327   8.793   9.708
21252SOL     OW65652   8.549   8.987   3.574
21252SOL    HW165653   8.548   9.077   3.541
21252SOL    HW265654   8.479   8.943   3.526
21253SOL     OW65655  11.901  12.265   2.205
21253SOL    HW165656  11.955  12.247   2.283
21253SOL    HW265657  11.845  12.338   2.232
21254SOL     OW65658  10.380  13.328   5.571
21254SOL    HW165659  10.464  13.290   5.594
21254SOL    HW265660  10.358  13.288   5.487
21255SOL     OW65661   9.016  10.427   3.876
21255SOL    HW165662   9.062  10.414   3.959
21255SOL    HW265663   9.026  10.520   3.858
21256SOL     OW65664   9.844  10.646   1.137
21256SOL    HW165665   9.928  10.620   1.100
21256SOL    HW265666   9.824  10.729   1.093
21257SOL     OW65667  13.619   4.533  11.095
21257SOL    HW165668  13.645   4.596  11.161
21257SOL    HW265669  13.622   4.448  11.139
21258SOL     OW65670   2.616   7.132  13.657
21258SOL    HW165671   2.612   7.047  13.701
21258SOL    HW265672   2.526   7.163  13.656
21259SOL     OW65673   9.659   1.469   7.387
21259SOL    HW165674   9.586   1.449   7.329
21259SOL    HW265675   9.716   1.526   7.335
21260SOL     OW65676   2.030   4.898   7.332
21260SOL    HW165677   1.968   4.966   7.305
21260SOL    HW265678   2.106   4.947   7.365
21261SOL     OW65679   1.313   8.410   6.010
21261SOL    HW165680   1.284   8.338   6.066
21261SOL    HW265681   1.309   8.373   5.921
21262SOL     OW65682   4.321  13.342   0.944
21262SOL    HW165683   4.300  13.283   1.015
21262SOL    HW265684   4.372  13.412   0.985
21263SOL     OW65685  11.712   6.171   4.604
21263SOL    HW165686  11.767   6.240   4.565
21263SOL    HW265687  11.751   6.089   4.572
21264SOL     OW65688   0.681   6.222   7.706
21264SOL    HW165689   0.728   6.167   7.644
21264SOL    HW265690   0.590   6.193   7.700
21265SOL     OW65691   8.387  12.008   9.229
21265SOL    HW165692   8.355  11.925   9.263
21265SOL    HW265693   8.424  11.987   9.143
21266SOL     OW65694  11.825   0.973  14.691
21266SOL    HW165695  11.802   0.978  14.598
21266SOL    HW265696  11.744   0.991  14.738
21267SOL     OW65697  13.204   8.141   2.129
21267SOL    HW165698  13.110   8.133   2.116
21267SOL    HW265699  13.217   8.130   2.223
21268SOL     OW65700  11.984   0.297  10.020
21268SOL    HW165701  12.021   0.224   9.971
21268SOL    HW265702  12.012   0.284  10.110
21269SOL     OW65703   8.974   0.283   8.226
21269SOL    HW165704   9.008   0.305   8.139
21269SOL    HW265705   8.909   0.215   8.211
21270SOL     OW65706  13.450   8.733   3.157
21270SOL    HW165707  13.482   8.803   3.100
21270SOL    HW265708  13.384   8.775   3.212
21271SOL     OW65709   4.090   7.157   5.730
21271SOL    HW165710   4.173   7.139   5.684
21271SOL    HW265711   4.043   7.216   5.672
21272SOL     OW65712   7.309  13.681   1.816
21272SOL    HW165713   7.381  13.745   1.809
21272SOL    HW265714   7.321  13.624   1.740
21273SOL     OW65715   3.290  13.511   7.680
21273SOL    HW165716   3.232  13.586   7.694
21273SOL    HW265717   3.263  13.447   7.747
21274SOL     OW65718  10.825  10.062  10.837
21274SOL    HW165719  10.848  10.007  10.763
21274SOL    HW265720  10.803  10.001  10.907
21275SOL     OW65721   9.842   5.134  13.771
21275SOL    HW165722   9.774   5.118  13.836
21275SOL    HW265723   9.813   5.212  13.724
21276SOL     OW65724  12.894   2.416  12.032
21276SOL    HW165725  12.977   2.375  12.057
21276SOL    HW265726  12.860   2.360  11.962
21277SOL     OW65727  12.598   0.584   2.321
21277SOL    HW165728  12.674   0.527   2.314
21277SOL    HW265729  12.631   0.671   2.298
21278SOL     OW65730  12.029   4.173   5.537
21278SOL    HW165731  12.008   4.230   5.464
21278SOL    HW265732  12.106   4.213   5.578
21279SOL     OW65733  14.528   9.298  14.763
21279SOL    HW165734  14.527   9.319  14.857
21279SOL    HW265735  14.621   9.287  14.742
21280SOL     OW65736   9.832   8.516  12.105
21280SOL    HW165737   9.839   8.583  12.173
21280SOL    HW265738   9.923   8.492  12.085
21281SOL     OW65739   9.438   9.379   0.005
21281SOL    HW165740   9.508   9.332  14.830
21281SOL    HW265741   9.391   9.424  14.805
21282SOL     OW65742   9.405   3.943  14.750
21282SOL    HW165743   9.475   3.892  14.709
21282SOL    HW265744   9.373   3.887  14.820
21283SOL     OW65745  11.517   6.428  13.363
21283SOL    HW165746  11.581   6.384  13.419
21283SOL    HW265747  11.432   6.401  13.398
21284SOL     OW65748   3.450   3.604   4.790
21284SOL    HW165749   3.392   3.610   4.713
21284SOL    HW265750   3.533   3.575   4.754
21285SOL     OW65751  11.137  10.426   0.274
21285SOL    HW165752  11.231  10.409   0.279
21285SOL    HW265753  11.096  10.343   0.300
21286SOL     OW65754   0.268  11.875   7.244
21286SOL    HW165755   0.234  11.859   7.332
21286SOL    HW265756   0.256  11.970   7.231
21287SOL     OW65757  10.596  13.407  11.509
21287SOL    HW165758  10.637  13.394  11.423
21287SOL    HW265759  10.536  13.333  11.519
21288SOL     OW65760   9.687   6.382   6.615
21288SOL    HW165761   9.749   6.378   6.542
21288SOL    HW265762   9.683   6.292   6.648
21289SOL     OW65763   9.983   1.045   0.851
21289SOL    HW165764  10.040   0.988   0.800
21289SOL    HW265765   9.926   1.087   0.786
21290SOL     OW65766   6.978  12.728   3.426
21290SOL    HW165767   7.006  12.681   3.504
21290SOL    HW265768   7.052  12.723   3.366
21291SOL     OW65769   2.711   8.651   9.324
21291SOL    HW165770   2.776   8.603   9.272
21291SOL    HW265771   2.705   8.603   9.406
21292SOL     OW65772  12.710   8.283   5.867
21292SOL    HW165773  12.722   8.296   5.961
21292SOL    HW265774  12.686   8.370   5.834
21293SOL     OW65775   2.359   3.389   8.410
21293SOL    HW165776   2.384   3.430   8.493
21293SOL    HW265777   2.272   3.424   8.391
21294SOL     OW65778   8.176   3.726  11.106
21294SOL    HW165779   8.147   3.755  11.192
21294SOL    HW265780   8.126   3.781  11.045
21295SOL     OW65781   1.658   5.700   8.831
21295SOL    HW165782   1.704   5.783   8.814
21295SOL    HW265783   1.703   5.636   8.777
21296SOL     OW65784   3.379   9.779   5.452
21296SOL    HW165785   3.401   9.720   5.524
21296SOL    HW265786   3.315   9.839   5.489
21297SOL     OW65787  12.602  12.932  12.604
21297SOL    HW165788  12.582  13.026  12.597
21297SOL    HW265789  12.695  12.926  12.582
21298SOL     OW65790  14.116   8.674   9.809
21298SOL    HW165791  14.023   8.675   9.835
21298SOL    HW265792  14.164   8.688   9.890
21299SOL     OW65793   2.479  13.918  10.818
21299SOL    HW165794   2.455  13.993  10.764
21299SOL    HW265795   2.511  13.956  10.900
21300SOL     OW65796   1.933   0.662  10.793
21300SOL    HW165797   1.912   0.607  10.868
21300SOL    HW265798   1.857   0.720  10.784
21301SOL     OW65799   8.583   5.338   3.112
21301SOL    HW165800   8.661   5.289   3.087
21301SOL    HW265801   8.544   5.366   3.029
21302SOL     OW65802  14.093  10.038   7.615
21302SOL    HW165803  14.055  10.069   7.697
21302SOL    HW265804  14.117   9.947   7.632
21303SOL     OW65805  12.017  13.463   1.528
21303SOL    HW165806  12.034  13.369   1.539
21303SOL    HW265807  11.924  13.473   1.546
21304SOL     OW65808  14.808   0.191  12.817
21304SOL    HW165809   0.006   0.238  12.768
21304SOL    HW265810  14.853   0.159  12.895
21305SOL     OW65811   9.552   1.165   6.810
21305SOL    HW165812   9.568   1.206   6.725
21305SOL    HW265813   9.578   1.074   6.798
21306SOL     OW65814   4.009   5.323   2.502
21306SOL    HW165815   3.929   5.372   2.520
21306SOL    HW265816   4.004   5.247   2.561
21307SOL     OW65817   8.442   7.285  11.523
21307SOL    HW165818   8.475   7.341  11.452
21307SOL    HW265819   8.381   7.341  11.571
21308SOL     OW65820   9.332   1.061   9.851
21308SOL    HW165821   9.319   1.059   9.756
21308SOL    HW265822   9.255   1.018   9.887
21309SOL     OW65823   8.358  12.426   8.973
21309SOL    HW165824   8.450  12.409   8.995
21309SOL    HW265825   8.353  12.521   8.964
21310SOL     OW65826   3.788   8.170  14.698
21310SOL    HW165827   3.718   8.230  14.724
21310SOL    HW265828   3.868   8.223  14.703
21311SOL     OW65829  13.964   3.593   9.165
21311SOL    HW165830  13.891   3.595   9.103
21311SOL    HW265831  13.932   3.641   9.242
21312SOL     OW65832   8.845  11.845   8.712
21312SOL    HW165833   8.750  11.833   8.718
21312SOL    HW265834   8.879  11.793   8.785
21313SOL     OW65835   1.978   3.012  12.992
21313SOL    HW165836   1.963   2.936  12.937
21313SOL    HW265837   2.063   2.996  13.033
21314SOL     OW65838   1.413   4.867   3.335
21314SOL    HW165839   1.452   4.794   3.383
21314SOL    HW265840   1.470   4.941   3.353
21315SOL     OW65841   0.030   8.556  14.818
21315SOL    HW165842   0.101   8.552  14.755
21315SOL    HW265843   0.036   8.643  14.856
21316SOL     OW65844   2.962   5.386   7.935
21316SOL    HW165845   3.048   5.413   7.904
21316SOL    HW265846   2.939   5.451   8.002
21317SOL     OW65847   4.134  12.799  14.408
21317SOL    HW165848   4.182  12.773  14.330
21317SOL    HW265849   4.091  12.719  14.438
21318SOL     OW65850   7.851   7.411  12.804
21318SOL    HW165851   7.811   7.494  12.828
21318SOL    HW265852   7.919   7.435  12.740
21319SOL     OW65853   9.106   2.021   2.368
21319SOL    HW165854   9.038   1.988   2.310
21319SOL    HW265855   9.172   1.951   2.370
21320SOL     OW65856  10.795   0.066   1.958
21320SOL    HW165857  10.800  14.857   1.904
21320SOL    HW265858  10.880   0.108   1.947
21321SOL     OW65859  11.909  13.740  13.466
21321SOL    HW165860  11.903  13.825  13.509
21321SOL    HW265861  11.856  13.682  13.520
21322SOL     OW65862  11.757   5.883   8.015
21322SOL    HW165863  11.736   5.905   7.924
21322SOL    HW265864  11.852   5.896   8.021
21323SOL     OW65865   9.301   4.543  14.207
21323SOL    HW165866   9.261   4.627  14.186
21323SOL    HW265867   9.234   4.479  14.185
21324SOL     OW65868   9.314   2.875  13.485
21324SOL    HW165869   9.261   2.805  13.448
21324SOL    HW265870   9.306   2.865  13.580
21325SOL     OW65871   3.099  10.568   9.405
21325SOL    HW165872   3.010  10.585   9.434
21325SOL    HW265873   3.091  10.496   9.343
21326SOL     OW65874  14.569   6.307   3.406
21326SOL    HW165875  14.543   6.216   3.392
21326SOL    HW265876  14.647   6.301   3.462
21327SOL     OW65877   6.332   4.459  12.575
21327SOL    HW165878   6.335   4.501  12.661
21327SOL    HW265879   6.251   4.409  12.576
21328SOL     OW65880   9.693   6.432   7.310
21328SOL    HW165881   9.697   6.389   7.224
21328SOL    HW265882   9.726   6.367   7.371
21329SOL     OW65883   6.014  12.335   6.608
21329SOL    HW165884   6.061  12.373   6.682
21329SOL    HW265885   6.076  12.275   6.568
21330SOL     OW65886   8.529   4.332   8.074
21330SOL    HW165887   8.465   4.314   8.142
21330SOL    HW265888   8.482   4.383   8.008
21331SOL     OW65889  12.455   2.255  13.095
21331SOL    HW165890  12.404   2.323  13.139
21331SOL    HW265891  12.502   2.211  13.166
21332SOL     OW65892  12.621   9.071   3.998
21332SOL    HW165893  12.693   9.026   4.042
21332SOL    HW265894  12.617   9.031   3.911
21333SOL     OW65895   3.310   7.975   5.644
21333SOL    HW165896   3.267   8.046   5.692
21333SOL    HW265897   3.256   7.898   5.663
21334SOL     OW65898  14.116   9.451   9.441
21334SOL    HW165899  14.062   9.397   9.384
21334SOL    HW265900  14.111   9.539   9.404
21335SOL     OW65901   9.088  12.548   2.449
21335SOL    HW165902   9.052  12.627   2.407
21335SOL    HW265903   9.163  12.524   2.394
21336SOL     OW65904   2.396  12.583   3.781
21336SOL    HW165905   2.476  12.614   3.738
21336SOL    HW265906   2.417  12.583   3.874
21337SOL     OW65907   3.286   9.602   3.731
21337SOL    HW165908   3.315   9.511   3.720
21337SOL    HW265909   3.212   9.611   3.670
21338SOL     OW65910  10.336   3.671  11.919
21338SOL    HW165911  10.345   3.579  11.894
21338SOL    HW265912  10.325   3.717  11.836
21339SOL     OW65913  11.020   7.310   7.610
21339SOL    HW165914  10.988   7.400   7.613
21339SOL    HW265915  10.951   7.262   7.563
21340SOL     OW65916   7.438   2.393   0.587
21340SOL    HW165917   7.349   2.422   0.605
21340SOL    HW265918   7.484   2.402   0.670
21341SOL     OW65919   5.325   2.000  13.853
21341SOL    HW165920   5.361   2.086  13.875
21341SOL    HW265921   5.384   1.967  13.784
21342SOL     OW65922   9.799  10.538   2.155
21342SOL    HW165923   9.754  10.584   2.226
21342SOL    HW265924   9.768  10.580   2.075
21343SOL     OW65925  14.178  14.340  12.913
21343SOL    HW165926  14.147  14.306  12.830
21343SOL    HW265927  14.104  14.391  12.948
21344SOL     OW65928  13.744   7.119   6.714
21344SOL    HW165929  13.712   7.097   6.802
21344SOL    HW265930  13.809   7.051   6.695
21345SOL     OW65931   0.526  11.157   1.827
21345SOL    HW165932   0.474  11.193   1.755
21345SOL    HW265933   0.611  11.135   1.789
21346SOL     OW65934  10.563  11.831  12.502
21346SOL    HW165935  10.550  11.745  12.462
21346SOL    HW265936  10.605  11.812  12.586
21347SOL     OW65937   9.126   3.419  11.481
21347SOL    HW165938   9.210   3.463  11.476
21347SOL    HW265939   9.146   3.327  11.467
21348SOL     OW65940   5.605   0.816   4.727
21348SOL    HW165941   5.565   0.863   4.800
21348SOL    HW265942   5.638   0.735   4.765
21349SOL     OW65943  11.449  10.831   4.833
21349SOL    HW165944  11.511  10.840   4.762
21349SOL    HW265945  11.438  10.920   4.867
21350SOL     OW65946   9.516   7.767  11.754
21350SOL    HW165947   9.536   7.754  11.847
21350SOL    HW265948   9.453   7.839  11.753
21351SOL     OW65949  14.756   1.782   7.334
21351SOL    HW165950  14.726   1.697   7.302
21351SOL    HW265951  14.809   1.762   7.411
21352SOL     OW65952  13.416   1.736   2.955
21352SOL    HW165953  13.396   1.830   2.954
21352SOL    HW265954  13.480   1.724   2.885
21353SOL     OW65955  13.092   9.332   8.814
21353SOL    HW165956  13.036   9.388   8.760
21353SOL    HW265957  13.173   9.323   8.764
21354SOL     OW65958   1.821   8.166   3.094
21354SOL    HW165959   1.788   8.253   3.075
21354SOL    HW265960   1.757   8.128   3.154
21355SOL     OW65961   7.476  10.484   4.826
21355SOL    HW165962   7.497  10.395   4.853
21355SOL    HW265963   7.400  10.508   4.878
21356SOL     OW65964   9.325   9.049  14.856
21356SOL    HW165965   9.348   9.058   0.079
21356SOL    HW265966   9.405   9.074  14.810
21357SOL     OW65967   7.381   4.024  10.186
21357SOL    HW165968   7.384   4.060  10.275
21357SOL    HW265969   7.305   4.067  10.145
21358SOL     OW65970   7.596   5.001   9.158
21358SOL    HW165971   7.544   5.007   9.078
21358SOL    HW265972   7.544   4.946   9.216
21359SOL     OW65973   4.456   3.521   1.693
21359SOL    HW165974   4.455   3.433   1.656
21359SOL    HW265975   4.547   3.548   1.690
21360SOL     OW65976  11.816   8.121  10.641
21360SOL    HW165977  11.853   8.200  10.603
21360SOL    HW265978  11.847   8.121  10.732
21361SOL     OW65979   0.270   3.507   8.025
21361SOL    HW165980   0.251   3.523   7.932
21361SOL    HW265981   0.220   3.574   8.071
21362SOL     OW65982   7.128  11.500   6.997
21362SOL    HW165983   7.164  11.576   7.043
21362SOL    HW265984   7.202  11.466   6.946
21363SOL     OW65985   5.964   4.421   9.797
21363SOL    HW165986   6.009   4.449   9.717
21363SOL    HW265987   5.912   4.345   9.770
21364SOL     OW65988   3.336   5.014   1.664
21364SOL    HW165989   3.250   5.042   1.633
21364SOL    HW265990   3.386   5.095   1.674
21365SOL     OW65991   0.104   2.446  10.880
21365SOL    HW165992   0.164   2.396  10.935
21365SOL    HW265993   0.156   2.520  10.848
21366SOL     OW65994  12.724   4.174   3.256
21366SOL    HW165995  12.679   4.092   3.276
21366SOL    HW265996  12.720   4.223   3.338
21367SOL     OW65997   1.396  14.251   7.802
21367SOL    HW165998   1.414  14.334   7.846
21367SOL    HW265999   1.483  14.212   7.789
21368SOL     OW66000   8.441   3.671   1.592
21368SOL    HW166001   8.346   3.668   1.608
21368SOL    HW266002   8.479   3.679   1.679
21369SOL     OW66003   3.161   2.520   2.219
21369SOL    HW166004   3.105   2.553   2.149
21369SOL    HW266005   3.178   2.596   2.275
21370SOL     OW66006   4.441  11.997   7.279
21370SOL    HW166007   4.496  11.927   7.315
21370SOL    HW266008   4.499  12.048   7.223
21371SOL     OW66009  12.330   5.857   4.038
21371SOL    HW166010  12.267   5.889   4.102
21371SOL    HW266011  12.355   5.935   3.989
21372SOL     OW66012   9.178   8.106  12.629
21372SOL    HW166013   9.133   8.076  12.550
21372SOL    HW266014   9.218   8.189  12.603
21373SOL     OW66015   7.419   5.279   2.173
21373SOL    HW166016   7.349   5.340   2.147
21373SOL    HW266017   7.373   5.205   2.213
21374SOL     OW66018   1.392   7.234   4.078
21374SOL    HW166019   1.472   7.192   4.047
21374SOL    HW266020   1.375   7.193   4.162
21375SOL     OW66021   8.424   5.873   9.891
21375SOL    HW166022   8.448   5.939   9.826
21375SOL    HW266023   8.328   5.876   9.893
21376SOL     OW66024  13.042  14.095   1.156
21376SOL    HW166025  13.122  14.081   1.206
21376SOL    HW266026  12.972  14.091   1.221
21377SOL     OW66027  14.695   1.786   2.683
21377SOL    HW166028  14.648   1.733   2.746
21377SOL    HW266029  14.787   1.780   2.710
21378SOL     OW66030   1.327  11.259   8.125
21378SOL    HW166031   1.290  11.234   8.040
21378SOL    HW266032   1.343  11.353   8.117
21379SOL     OW66033  14.269  14.003  13.688
21379SOL    HW166034  14.245  13.985  13.779
21379SOL    HW266035  14.185  14.006  13.641
21380SOL     OW66036  10.083  11.376   8.481
21380SOL    HW166037  10.009  11.378   8.542
21380SOL    HW266038  10.113  11.285   8.482
21381SOL     OW66039   8.609   2.455   0.587
21381SOL    HW166040   8.561   2.521   0.537
21381SOL    HW266041   8.551   2.378   0.587
21382SOL     OW66042   6.234   4.185  11.238
21382SOL    HW166043   6.308   4.200  11.297
21382SOL    HW266044   6.220   4.270  11.196
21383SOL     OW66045   1.468  10.005   9.770
21383SOL    HW166046   1.511  10.089   9.784
21383SOL    HW266047   1.531   9.953   9.720
21384SOL     OW66048  13.036  14.056   8.589
21384SOL    HW166049  13.106  14.089   8.645
21384SOL    HW266050  13.069  13.973   8.556
21385SOL     OW66051   1.491  10.797   4.570
21385SOL    HW166052   1.541  10.721   4.599
21385SOL    HW266053   1.541  10.833   4.497
21386SOL     OW66054   2.973   9.754   3.344
21386SOL    HW166055   2.923   9.753   3.426
21386SOL    HW266056   3.063   9.733   3.370
21387SOL     OW66057   5.342  14.683   4.558
21387SOL    HW166058   5.397  14.662   4.633
21387SOL    HW266059   5.395  14.743   4.505
21388SOL     OW66060   5.867   4.425   8.694
21388SOL    HW166061   5.787   4.478   8.694
21388SOL    HW266062   5.905   4.439   8.607
21389SOL     OW66063  10.549  12.604   5.091
21389SOL    HW166064  10.494  12.527   5.075
21389SOL    HW266065  10.639  12.571   5.087
21390SOL     OW66066  14.101   6.443   4.965
21390SOL    HW166067  14.130   6.510   4.903
21390SOL    HW266068  14.172   6.379   4.965
21391SOL     OW66069   1.409   9.223   6.138
21391SOL    HW166070   1.419   9.306   6.184
21391SOL    HW266071   1.327   9.232   6.090
21392SOL     OW66072   1.510  13.338  13.127
21392SOL    HW166073   1.564  13.395  13.182
21392SOL    HW266074   1.423  13.378  13.129
21393SOL     OW66075   9.491   6.357  12.521
21393SOL    HW166076   9.522   6.438  12.481
21393SOL    HW266077   9.398   6.352  12.497
21394SOL     OW66078  11.259  12.444  13.050
21394SOL    HW166079  11.277  12.509  12.982
21394SOL    HW266080  11.329  12.380  13.043
21395SOL     OW66081  11.387   2.815   3.632
21395SOL    HW166082  11.377   2.722   3.652
21395SOL    HW266083  11.312   2.857   3.673
21396SOL     OW66084  12.639   7.057   4.155
21396SOL    HW166085  12.727   7.041   4.188
21396SOL    HW266086  12.581   7.036   4.228
21397SOL     OW66087   8.952   1.635   7.071
21397SOL    HW166088   8.992   1.713   7.109
21397SOL    HW266089   8.935   1.578   7.146
21398SOL     OW66090  12.423   1.307  12.024
21398SOL    HW166091  12.338   1.312  11.980
21398SOL    HW266092  12.403   1.266  12.109
21399SOL     OW66093  14.140   6.791   2.072
21399SOL    HW166094  14.195   6.716   2.050
21399SOL    HW266095  14.183   6.829   2.149
21400SOL     OW66096  10.284  14.296  13.512
21400SOL    HW166097  10.235  14.257  13.585
21400SOL    HW266098  10.371  14.256  13.517
21401SOL     OW66099   9.318  13.430  12.257
21401SOL    HW166100   9.303  13.355  12.200
21401SOL    HW266101   9.406  13.460  12.235
21402SOL     OW66102   4.508   2.110   8.709
21402SOL    HW166103   4.538   2.051   8.639
21402SOL    HW266104   4.527   2.198   8.676
21403SOL     OW66105  13.626   0.079   8.894
21403SOL    HW166106  13.675   0.067   8.813
21403SOL    HW266107  13.631  14.863   8.938
21404SOL     OW66108   7.829  11.612   5.146
21404SOL    HW166109   7.840  11.556   5.223
21404SOL    HW266110   7.897  11.679   5.156
21405SOL     OW66111   3.824  14.766   0.078
21405SOL    HW166112   3.810  14.713   0.157
21405SOL    HW266113   3.780  14.848   0.096
21406SOL     OW66114  12.772   0.604  13.875
21406SOL    HW166115  12.772   0.697  13.897
21406SOL    HW266116  12.785   0.559  13.958
21407SOL     OW66117   6.362   4.284   6.933
21407SOL    HW166118   6.362   4.222   6.860
21407SOL    HW266119   6.271   4.311   6.942
21408SOL     OW66120   2.249   9.902  12.404
21408SOL    HW166121   2.292   9.975  12.360
21408SOL    HW266122   2.312   9.830  12.398
21409SOL     OW66123  12.259   7.083   7.237
21409SOL    HW166124  12.297   7.170   7.228
21409SOL    HW266125  12.261   7.065   7.332
21410SOL     OW66126   1.706  13.528   9.700
21410SOL    HW166127   1.723  13.444   9.742
21410SOL    HW266128   1.753  13.524   9.617
21411SOL     OW66129   6.063  13.160   3.512
21411SOL    HW166130   6.120  13.137   3.438
21411SOL    HW266131   5.975  13.160   3.476
21412SOL     OW66132   5.082  13.347   1.381
21412SOL    HW166133   5.159  13.377   1.429
21412SOL    HW266134   5.012  13.347   1.446
21413SOL     OW66135  11.298   4.233  10.210
21413SOL    HW166136  11.294   4.182  10.291
21413SOL    HW266137  11.239   4.188  10.150
21414SOL     OW66138   7.458   2.231   9.009
21414SOL    HW166139   7.490   2.289   9.078
21414SOL    HW266140   7.538   2.194   8.970
21415SOL     OW66141  13.301  12.874  13.395
21415SOL    HW166142  13.249  12.843  13.469
21415SOL    HW266143  13.268  12.824  13.320
21416SOL     OW66144   2.411  11.907   1.951
21416SOL    HW166145   2.493  11.864   1.977
21416SOL    HW266146   2.346  11.876   2.014
21417SOL     OW66147  11.196   2.758   0.241
21417SOL    HW166148  11.127   2.818   0.267
21417SOL    HW266149  11.204   2.697   0.315
21418SOL     OW66150   4.668   0.761  13.454
21418SOL    HW166151   4.657   0.696  13.524
21418SOL    HW266152   4.731   0.824  13.490
21419SOL     OW66153   0.261  12.147   4.271
21419SOL    HW166154   0.315  12.099   4.334
21419SOL    HW266155   0.172  12.142   4.306
21420SOL     OW66156   4.265   2.904   3.463
21420SOL    HW166157   4.276   2.822   3.416
21420SOL    HW266158   4.290   2.971   3.400
21421SOL     OW66159   4.759   0.028  13.026
21421SOL    HW166160   4.821   0.088  13.067
21421SOL    HW266161   4.678   0.078  13.019
21422SOL     OW66162   2.320   2.836   9.173
21422SOL    HW166163   2.366   2.907   9.218
21422SOL    HW266164   2.374   2.759   9.189
21423SOL     OW66165  14.563   8.312  12.209
21423SOL    HW166166  14.502   8.342  12.277
21423SOL    HW266167  14.547   8.217  12.204
21424SOL     OW66168   3.982  12.196   0.875
21424SOL    HW166169   3.960  12.206   0.782
21424SOL    HW266170   3.977  12.285   0.910
21425SOL     OW66171   6.806  12.974  13.698
21425SOL    HW166172   6.811  12.878  13.697
21425SOL    HW266173   6.783  12.996  13.788
21426SOL     OW66174  14.443   6.414  13.450
21426SOL    HW166175  14.481   6.377  13.530
21426SOL    HW266176  14.349   6.419  13.468
21427SOL     OW66177  12.129   7.639   0.285
21427SOL    HW166178  12.189   7.586   0.338
21427SOL    HW266179  12.047   7.639   0.334
21428SOL     OW66180   4.258   0.375  12.878
21428SOL    HW166181   4.350   0.348  12.871
21428SOL    HW266182   4.221   0.356  12.791
21429SOL     OW66183   0.211  12.132   4.667
21429SOL    HW166184   0.193  12.081   4.588
21429SOL    HW266185   0.206  12.223   4.638
21430SOL     OW66186  13.839   2.957   0.756
21430SOL    HW166187  13.928   2.941   0.789
21430SOL    HW266188  13.835   2.907   0.674
21431SOL     OW66189   6.694   3.505   0.324
21431SOL    HW166190   6.745   3.480   0.247
21431SOL    HW266191   6.638   3.576   0.294
21432SOL     OW66192  10.772   0.166   0.121
21432SOL    HW166193  10.799   0.238   0.064
21432SOL    HW266194  10.830   0.172   0.197
21433SOL     OW66195   4.824  14.640  13.020
21433SOL    HW166196   4.769  14.718  13.018
21433SOL    HW266197   4.879  14.648  12.942
21434SOL     OW66198   6.529   7.693   2.224
21434SOL    HW166199   6.491   7.758   2.282
21434SOL    HW266200   6.512   7.609   2.267
21435SOL     OW66201   4.321   6.287  12.221
21435SOL    HW166202   4.235   6.261  12.255
21435SOL    HW266203   4.328   6.243  12.136
21436SOL     OW66204   1.979  13.738  10.349
21436SOL    HW166205   1.961  13.695  10.432
21436SOL    HW266206   2.068  13.710  10.326
21437SOL     OW66207   4.544  13.402  10.485
21437SOL    HW166208   4.591  13.319  10.475
21437SOL    HW266209   4.543  13.418  10.579
21438SOL     OW66210  11.660  12.007   7.014
21438SOL    HW166211  11.717  11.934   7.037
21438SOL    HW266212  11.651  12.001   6.919
21439SOL     OW66213  13.985  11.960  12.398
21439SOL    HW166214  14.038  11.883  12.420
21439SOL    HW266215  13.948  11.939  12.312
21440SOL     OW66216   1.440  10.798   6.838
21440SOL    HW166217   1.518  10.803   6.783
21440SOL    HW266218   1.372  10.762   6.781
21441SOL     OW66219   1.589   0.602   0.570
21441SOL    HW166220   1.592   0.658   0.492
21441SOL    HW266221   1.546   0.522   0.541
21442SOL     OW66222  13.370   3.179   3.446
21442SOL    HW166223  13.397   3.271   3.441
21442SOL    HW266224  13.451   3.131   3.460
21443SOL     OW66225   0.935  13.131   2.637
21443SOL    HW166226   0.895  13.048   2.664
21443SOL    HW266227   1.007  13.145   2.699
21444SOL     OW66228   1.459   6.357   0.921
21444SOL    HW166229   1.415   6.440   0.940
21444SOL    HW266230   1.466   6.314   1.007
21445SOL     OW66231   1.572   8.060   3.805
21445SOL    HW166232   1.650   8.101   3.842
21445SOL    HW266233   1.531   8.129   3.753
21446SOL     OW66234   9.697  12.675  10.121
21446SOL    HW166235   9.710  12.580  10.119
21446SOL    HW266236   9.784  12.711  10.104
21447SOL     OW66237   2.518   5.865  13.573
21447SOL    HW166238   2.563   5.947  13.553
21447SOL    HW266239   2.565   5.830  13.649
21448SOL     OW66240   0.366   9.385   8.600
21448SOL    HW166241   0.370   9.463   8.655
21448SOL    HW266242   0.376   9.418   8.511
21449SOL     OW66243  14.558   4.136   6.829
21449SOL    HW166244  14.474   4.098   6.856
21449SOL    HW266245  14.584   4.085   6.753
21450SOL     OW66246   8.029   8.491   9.096
21450SOL    HW166247   8.030   8.587   9.096
21450SOL    HW266248   8.082   8.467   9.172
21451SOL     OW66249  10.776  11.584  13.470
21451SOL    HW166250  10.828  11.636  13.409
21451SOL    HW266251  10.828  11.584  13.551
21452SOL     OW66252   9.781   9.147  10.515
21452SOL    HW166253   9.772   9.129  10.609
21452SOL    HW266254   9.720   9.219  10.499
21453SOL     OW66255   7.539   3.334   2.214
21453SOL    HW166256   7.469   3.271   2.231
21453SOL    HW266257   7.494   3.418   2.202
21454SOL     OW66258   0.911   3.022   9.132
21454SOL    HW166259   0.919   2.967   9.055
21454SOL    HW266260   0.867   2.966   9.197
21455SOL     OW66261   4.025   7.264   6.406
21455SOL    HW166262   4.106   7.298   6.445
21455SOL    HW266263   3.956   7.321   6.440
21456SOL     OW66264  11.379   8.153   8.476
21456SOL    HW166265  11.423   8.081   8.522
21456SOL    HW266266  11.306   8.177   8.533
21457SOL     OW66267  14.217   8.425   0.657
21457SOL    HW166268  14.184   8.495   0.600
21457SOL    HW266269  14.149   8.358   0.655
21458SOL     OW66270   0.682   2.023   9.858
21458SOL    HW166271   0.710   2.109   9.888
21458SOL    HW266272   0.757   1.966   9.876
21459SOL     OW66273   0.251   5.811   1.824
21459SOL    HW166274   0.302   5.880   1.866
21459SOL    HW266275   0.313   5.765   1.768
21460SOL     OW66276   2.535  10.974   1.895
21460SOL    HW166277   2.577  10.929   1.968
21460SOL    HW266278   2.567  11.064   1.900
21461SOL     OW66279  11.637   5.074   6.370
21461SOL    HW166280  11.578   5.113   6.305
21461SOL    HW266281  11.724   5.084   6.333
21462SOL     OW66282   4.439   1.925  10.151
21462SOL    HW166283   4.485   1.895  10.229
21462SOL    HW266284   4.455   1.857  10.086
21463SOL     OW66285   5.689   0.091   0.236
21463SOL    HW166286   5.765   0.033   0.235
21463SOL    HW266287   5.619   0.041   0.194
21464SOL     OW66288   2.351   9.253   3.119
21464SOL    HW166289   2.256   9.244   3.112
21464SOL    HW266290   2.378   9.184   3.180
21465SOL     OW66291   3.297  14.660   0.185
21465SOL    HW166292   3.215  14.708   0.196
21465SOL    HW266293   3.292  14.625   0.096
21466SOL     OW66294  11.095   6.248   1.646
21466SOL    HW166295  11.079   6.183   1.578
21466SOL    HW266296  11.171   6.298   1.614
21467SOL     OW66297   0.605   8.541   5.498
21467SOL    HW166298   0.516   8.558   5.469
21467SOL    HW266299   0.658   8.604   5.448
21468SOL     OW66300  14.810  12.223   4.742
21468SOL    HW166301  14.856  12.305   4.757
21468SOL    HW266302  14.841  12.165   4.812
21469SOL     OW66303   9.541   1.728  10.562
21469SOL    HW166304   9.604   1.755  10.628
21469SOL    HW266305   9.595   1.692  10.491
21470SOL     OW66306  14.605  13.563  11.340
21470SOL    HW166307  14.658  13.496  11.297
21470SOL    HW266308  14.621  13.550  11.433
21471SOL     OW66309   0.269  11.669   8.529
21471SOL    HW166310   0.357  11.707   8.529
21471SOL    HW266311   0.284  11.575   8.517
21472SOL     OW66312  12.238   4.033  10.176
21472SOL    HW166313  12.323   4.036  10.221
21472SOL    HW266314  12.174   4.048  10.244
21473SOL     OW66315  11.351  13.276   7.861
21473SOL    HW166316  11.382  13.186   7.848
21473SOL    HW266317  11.340  13.310   7.772
21474SOL     OW66318   3.949  13.640   1.646
21474SOL    HW166319   3.885  13.690   1.696
21474SOL    HW266320   3.926  13.657   1.554
21475SOL     OW66321   2.169   7.963   5.407
21475SOL    HW166322   2.205   8.004   5.485
21475SOL    HW266323   2.135   8.036   5.355
21476SOL     OW66324   1.827  13.037   9.292
21476SOL    HW166325   1.815  13.082   9.209
21476SOL    HW266326   1.768  13.082   9.353
21477SOL     OW66327  13.087  11.571  14.600
21477SOL    HW166328  13.073  11.514  14.676
21477SOL    HW266329  13.138  11.644  14.635
21478SOL     OW66330  10.105   2.493  11.698
21478SOL    HW166331  10.145   2.558  11.641
21478SOL    HW266332  10.087   2.419  11.641
21479SOL     OW66333  10.024   7.452  10.181
21479SOL    HW166334   9.979   7.458  10.096
21479SOL    HW266335   9.956   7.475  10.245
21480SOL     OW66336   9.911   9.368   8.126
21480SOL    HW166337   9.954   9.413   8.053
21480SOL    HW266338   9.886   9.438   8.186
21481SOL     OW66339   4.094  11.881  13.650
21481SOL    HW166340   4.037  11.868  13.574
21481SOL    HW266341   4.172  11.924  13.615
21482SOL     OW66342  13.740   3.162   3.059
21482SOL    HW166343  13.791   3.147   2.980
21482SOL    HW266344  13.649   3.152   3.031
21483SOL     OW66345   8.820   9.741   7.945
21483SOL    HW166346   8.841   9.744   7.851
21483SOL    HW266347   8.893   9.785   7.988
21484SOL     OW66348   1.327   0.222  10.186
21484SOL    HW166349   1.269   0.263  10.251
21484SOL    HW266350   1.412   0.262  10.202
21485SOL     OW66351   4.421  14.278   4.832
21485SOL    HW166352   4.395  14.355   4.882
21485SOL    HW266353   4.338  14.237   4.806
21486SOL     OW66354   7.954   7.141   4.177
21486SOL    HW166355   8.000   7.225   4.181
21486SOL    HW266356   7.863   7.165   4.158
21487SOL     OW66357   9.732  12.491  14.016
21487SOL    HW166358   9.745  12.563  14.077
21487SOL    HW266359   9.660  12.520  13.959
21488SOL     OW66360  11.197   9.451   6.122
21488SOL    HW166361  11.144   9.379   6.087
21488SOL    HW266362  11.218   9.424   6.211
21489SOL     OW66363  14.621   0.968  12.544
21489SOL    HW166364  14.579   0.894  12.501
21489SOL    HW266365  14.705   0.933  12.575
21490SOL     OW66366   3.992   1.079   3.410
21490SOL    HW166367   4.043   1.034   3.343
21490SOL    HW266368   3.931   1.012   3.442
21491SOL     OW66369   4.744   5.494   9.014
21491SOL    HW166370   4.707   5.409   8.992
21491SOL    HW266371   4.763   5.534   8.929
21492SOL     OW66372  11.377  11.250  11.984
21492SOL    HW166373  11.437  11.318  11.952
21492SOL    HW266374  11.402  11.238  12.076
21493SOL     OW66375   2.535  12.242  11.802
21493SOL    HW166376   2.500  12.221  11.716
21493SOL    HW266377   2.630  12.246  11.789
21494SOL     OW66378  13.080   5.271   1.222
21494SOL    HW166379  13.075   5.365   1.240
21494SOL    HW266380  13.137   5.264   1.146
21495SOL     OW66381   5.654   4.132   1.449
21495SOL    HW166382   5.616   4.191   1.384
21495SOL    HW266383   5.749   4.143   1.438
21496SOL     OW66384  10.283   4.848   0.715
21496SOL    HW166385  10.269   4.939   0.689
21496SOL    HW266386  10.379   4.840   0.721
21497SOL     OW66387   9.772   5.634  13.307
21497SOL    HW166388   9.685   5.622  13.346
21497SOL    HW266389   9.826   5.568  13.351
21498SOL     OW66390   1.813   4.306   5.566
21498SOL    HW166391   1.889   4.332   5.617
21498SOL    HW266392   1.768   4.241   5.621
21499SOL     OW66393   4.267   9.004  10.742
21499SOL    HW166394   4.268   9.095  10.713
21499SOL    HW266395   4.359   8.978  10.743
21500SOL     OW66396   9.574   3.872   8.619
21500SOL    HW166397   9.620   3.910   8.545
21500SOL    HW266398   9.585   3.777   8.609
21501SOL     OW66399   7.452   5.677  11.400
21501SOL    HW166400   7.414   5.644  11.318
21501SOL    HW266401   7.530   5.724  11.373
21502SOL     OW66402  10.268   7.553  10.676
21502SOL    HW166403  10.298   7.485  10.617
21502SOL    HW266404  10.219   7.507  10.745
21503SOL     OW66405   3.842   4.967   8.387
21503SOL    HW166406   3.892   4.909   8.329
21503SOL    HW266407   3.901   4.983   8.461
21504SOL     OW66408   6.295  12.942   3.851
21504SOL    HW166409   6.361  12.993   3.898
21504SOL    HW266410   6.227  13.005   3.827
21505SOL     OW66411   2.075   2.866  11.443
21505SOL    HW166412   2.063   2.827  11.356
21505SOL    HW266413   2.004   2.930  11.449
21506SOL     OW66414   6.392   5.159   9.890
21506SOL    HW166415   6.451   5.170   9.815
21506SOL    HW266416   6.435   5.204   9.962
21507SOL     OW66417   2.538   9.532   0.411
21507SOL    HW166418   2.588   9.607   0.379
21507SOL    HW266419   2.598   9.489   0.473
21508SOL     OW66420   1.981   0.035   3.310
21508SOL    HW166421   1.900   0.078   3.336
21508SOL    HW266422   1.995  14.838   3.377
21509SOL     OW66423  10.681  13.608   7.808
21509SOL    HW166424  10.629  13.649   7.738
21509SOL    HW266425  10.666  13.663   7.885
21510SOL     OW66426   5.309   2.952   9.253
21510SOL    HW166427   5.388   2.993   9.289
21510SOL    HW266428   5.314   2.861   9.279
21511SOL     OW66429   6.275  12.623  12.012
21511SOL    HW166430   6.291  12.567  12.088
21511SOL    HW266431   6.360  12.662  11.992
21512SOL     OW66432  12.131   6.861  13.853
21512SOL    HW166433  12.100   6.918  13.782
21512SOL    HW266434  12.226   6.870  13.849
21513SOL     OW66435  12.732   3.192   5.682
21513SOL    HW166436  12.812   3.140   5.687
21513SOL    HW266437  12.669   3.135   5.638
21514SOL     OW66438  13.608  11.282   9.380
21514SOL    HW166439  13.686  11.336   9.371
21514SOL    HW266440  13.633  11.213   9.442
21515SOL     OW66441  10.209   3.640  13.309
21515SOL    HW166442  10.120   3.650  13.273
21515SOL    HW266443  10.221   3.545  13.315
21516SOL     OW66444   9.801   9.685   1.363
21516SOL    HW166445   9.727   9.637   1.325
21516SOL    HW266446   9.761   9.765   1.399
21517SOL     OW66447   9.708  12.845   0.816
21517SOL    HW166448   9.697  12.766   0.869
21517SOL    HW266449   9.686  12.817   0.727
21518SOL     OW66450   8.415   4.250   4.083
21518SOL    HW166451   8.328   4.223   4.115
21518SOL    HW266452   8.427   4.338   4.119
21519SOL     OW66453   1.496   4.622   9.706
21519SOL    HW166454   1.558   4.695   9.698
21519SOL    HW266455   1.552   4.546   9.721
21520SOL     OW66456   4.388   0.688   9.734
21520SOL    HW166457   4.375   0.759   9.796
21520SOL    HW266458   4.449   0.628   9.778
21521SOL     OW66459   0.426   6.019   9.844
21521SOL    HW166460   0.441   6.076   9.768
21521SOL    HW266461   0.442   6.076   9.919
21522SOL     OW66462  10.578   1.955  10.048
21522SOL    HW166463  10.561   1.911  10.132
21522SOL    HW266464  10.495   1.948  10.001
21523SOL     OW66465   3.623   5.585  13.804
21523SOL    HW166466   3.558   5.653  13.786
21523SOL    HW266467   3.639   5.592  13.898
21524SOL     OW66468  14.180   8.853   5.938
21524SOL    HW166469  14.092   8.862   5.973
21524SOL    HW266470  14.217   8.778   5.984
21525SOL     OW66471   4.959  14.140  12.885
21525SOL    HW166472   4.909  14.098  12.955
21525SOL    HW266473   4.893  14.176  12.826
21526SOL     OW66474   3.267  10.227   1.771
21526SOL    HW166475   3.283  10.134   1.756
21526SOL    HW266476   3.352  10.269   1.760
21527SOL     OW66477   1.627   5.646   2.017
21527SOL    HW166478   1.628   5.554   1.992
21527SOL    HW266479   1.706   5.658   2.071
21528SOL     OW66480  14.413  13.416   2.978
21528SOL    HW166481  14.335  13.438   2.928
21528SOL    HW266482  14.486  13.427   2.917
21529SOL     OW66483   1.709   0.070   2.824
21529SOL    HW166484   1.624   0.072   2.779
21529SOL    HW266485   1.761   0.137   2.779
21530SOL     OW66486   3.921  13.165   0.629
21530SOL    HW166487   3.988  13.206   0.685
21530SOL    HW266488   3.859  13.126   0.690
21531SOL     OW66489   6.769   6.725   3.567
21531SOL    HW166490   6.740   6.640   3.536
21531SOL    HW266491   6.777   6.715   3.662
21532SOL     OW66492   6.546  14.047   2.680
21532SOL    HW166493   6.546  14.097   2.762
21532SOL    HW266494   6.610  14.092   2.624
21533SOL     OW66495  12.217  13.812   7.161
21533SOL    HW166496  12.212  13.827   7.066
21533SOL    HW266497  12.233  13.718   7.170
21534SOL     OW66498   7.167   2.039  13.039
21534SOL    HW166499   7.079   2.053  13.075
21534SOL    HW266500   7.167   2.089  12.957
21535SOL     OW66501   7.333   3.655  12.008
21535SOL    HW166502   7.312   3.601  12.084
21535SOL    HW266503   7.429   3.654  12.004
21536SOL     OW66504   1.007   0.527   5.870
21536SOL    HW166505   1.040   0.440   5.892
21536SOL    HW266506   1.005   0.527   5.774
21537SOL     OW66507  12.055  13.276   2.967
21537SOL    HW166508  12.107  13.286   3.046
21537SOL    HW266509  12.067  13.358   2.920
21538SOL     OW66510   1.112   7.744   9.516
21538SOL    HW166511   1.060   7.667   9.540
21538SOL    HW266512   1.186   7.709   9.467
21539SOL     OW66513   7.996   0.729   2.548
21539SOL    HW166514   8.000   0.659   2.483
21539SOL    HW266515   7.925   0.786   2.519
21540SOL     OW66516   9.601   8.701   8.075
21540SOL    HW166517   9.632   8.758   8.005
21540SOL    HW266518   9.628   8.613   8.048
21541SOL     OW66519  14.420   9.470   9.528
21541SOL    HW166520  14.358   9.457   9.456
21541SOL    HW266521  14.504   9.487   9.484
21542SOL     OW66522   4.199   4.057   5.164
21542SOL    HW166523   4.176   4.031   5.075
21542SOL    HW266524   4.117   4.052   5.212
21543SOL     OW66525  10.442   4.673   5.453
21543SOL    HW166526  10.372   4.730   5.481
21543SOL    HW266527  10.400   4.608   5.397
21544SOL     OW66528  11.617   0.625  13.768
21544SOL    HW166529  11.589   0.561  13.702
21544SOL    HW266530  11.675   0.685  13.720
21545SOL     OW66531   0.345  10.870  11.079
21545SOL    HW166532   0.311  10.781  11.082
21545SOL    HW266533   0.327  10.906  11.166
21546SOL     OW66534   6.956  12.351   0.794
21546SOL    HW166535   6.980  12.387   0.879
21546SOL    HW266536   7.039  12.317   0.759
21547SOL     OW66537   7.236   6.376   8.183
21547SOL    HW166538   7.255   6.332   8.267
21547SOL    HW266539   7.160   6.329   8.148
21548SOL     OW66540   2.040   3.829   9.106
21548SOL    HW166541   2.061   3.808   9.015
21548SOL    HW266542   1.956   3.785   9.122
21549SOL     OW66543   3.550   7.072  14.172
21549SOL    HW166544   3.479   7.133  14.154
21549SOL    HW266545   3.595   7.108  14.248
21550SOL     OW66546  13.527   0.777   2.167
21550SOL    HW166547  13.477   0.855   2.193
21550SOL    HW266548  13.479   0.742   2.092
21551SOL     OW66549   9.964  12.728  13.407
21551SOL    HW166550  10.048  12.715  13.365
21551SOL    HW266551   9.984  12.730  13.501
21552SOL     OW66552   3.060   5.354  13.074
21552SOL    HW166553   3.123   5.422  13.054
21552SOL    HW266554   3.111   5.273  13.071
21553SOL     OW66555   1.466  10.034   0.087
21553SOL    HW166556   1.462   9.950   0.131
21553SOL    HW266557   1.386  10.079   0.113
21554SOL     OW66558   1.039   5.888   7.598
21554SOL    HW166559   1.046   5.876   7.503
21554SOL    HW266560   1.130   5.891   7.628
21555SOL     OW66561  13.326   5.334   4.858
21555SOL    HW166562  13.331   5.257   4.801
21555SOL    HW266563  13.400   5.388   4.833
21556SOL     OW66564  11.918   4.224   0.046
21556SOL    HW166565  11.986   4.290   0.046
21556SOL    HW266566  11.956   4.150  14.867
21557SOL     OW66567   8.944   7.536  14.194
21557SOL    HW166568   8.948   7.494  14.280
21557SOL    HW266569   9.002   7.484  14.139
21558SOL     OW66570   2.615  12.263   4.698
21558SOL    HW166571   2.654  12.182   4.664
21558SOL    HW266572   2.533  12.272   4.650
21559SOL     OW66573  11.862  10.133   4.683
21559SOL    HW166574  11.833  10.128   4.592
21559SOL    HW266575  11.783  10.115   4.734
21560SOL     OW66576  14.137   9.393   6.665
21560SOL    HW166577  14.208   9.337   6.632
21560SOL    HW266578  14.077   9.401   6.591
21561SOL     OW66579   2.209   0.403   8.603
21561SOL    HW166580   2.255   0.328   8.641
21561SOL    HW266581   2.242   0.479   8.652
21562SOL     OW66582   6.628   1.843   4.421
21562SOL    HW166583   6.605   1.903   4.351
21562SOL    HW266584   6.640   1.758   4.378
21563SOL     OW66585  13.039   7.019   2.764
21563SOL    HW166586  13.124   7.061   2.777
21563SOL    HW266587  12.984   7.053   2.835
21564SOL     OW66588  10.391  10.775  10.568
21564SOL    HW166589  10.300  10.801  10.586
21564SOL    HW266590  10.439  10.858  10.570
21565SOL     OW66591   0.839  10.043  12.516
21565SOL    HW166592   0.843   9.973  12.451
21565SOL    HW266593   0.793  10.114  12.472
21566SOL     OW66594   4.629   8.128  11.855
21566SOL    HW166595   4.723   8.143  11.847
21566SOL    HW266596   4.622   8.041  11.895
21567SOL     OW66597   0.119   0.710   9.619
21567SOL    HW166598   0.053   0.672   9.562
21567SOL    HW266599   0.157   0.635   9.665
21568SOL     OW66600   0.922   9.956  13.313
21568SOL    HW166601   0.881  10.003  13.241
21568SOL    HW266602   0.869   9.979  13.390
21569SOL     OW66603   0.003   1.167   9.495
21569SOL    HW166604  14.840   1.130   9.414
21569SOL    HW266605   0.001   1.095   9.558
21570SOL     OW66606   1.519   2.800  13.687
21570SOL    HW166607   1.427   2.790  13.714
21570SOL    HW266608   1.529   2.894  13.674
21571SOL     OW66609   4.855   6.786   2.763
21571SOL    HW166610   4.860   6.691   2.757
21571SOL    HW266611   4.915   6.817   2.695
21572SOL     OW66612   2.626   2.705   0.285
21572SOL    HW166613   2.564   2.714   0.213
21572SOL    HW266614   2.600   2.625   0.329
21573SOL     OW66615  11.622  11.844   1.503
21573SOL    HW166616  11.564  11.917   1.523
21573SOL    HW266617  11.587  11.771   1.554
21574SOL     OW66618   2.796   5.815  12.208
21574SOL    HW166619   2.876   5.770  12.233
21574SOL    HW266620   2.826   5.902  12.181
21575SOL     OW66621   4.447   3.783   6.658
21575SOL    HW166622   4.360   3.778   6.619
21575SOL    HW266623   4.430   3.795   6.752
21576SOL     OW66624   6.282   7.977  12.802
21576SOL    HW166625   6.361   7.929  12.823
21576SOL    HW266626   6.265   7.958  12.710
21577SOL     OW66627   6.083   8.458   4.906
21577SOL    HW166628   6.173   8.428   4.913
21577SOL    HW266629   6.050   8.456   4.995
21578SOL     OW66630   0.273  11.379   0.860
21578SOL    HW166631   0.264  11.469   0.831
21578SOL    HW266632   0.322  11.336   0.791
21579SOL     OW66633   2.755   8.639  13.010
21579SOL    HW166634   2.835   8.691  13.014
21579SOL    HW266635   2.699   8.676  13.079
21580SOL     OW66636   8.295   6.213  10.461
21580SOL    HW166637   8.231   6.205  10.533
21580SOL    HW266638   8.321   6.123  10.443
21581SOL     OW66639  10.809  14.339   4.323
21581SOL    HW166640  10.717  14.354   4.345
21581SOL    HW266641  10.807  14.295   4.238
21582SOL     OW66642   9.220   3.109  14.579
21582SOL    HW166643   9.210   3.190  14.529
21582SOL    HW266644   9.204   3.135  14.670
21583SOL     OW66645  10.545   6.630   0.084
21583SOL    HW166646  10.466   6.639   0.137
21583SOL    HW266647  10.524   6.562   0.020
21584SOL     OW66648   7.609  10.824   5.854
21584SOL    HW166649   7.641  10.778   5.932
21584SOL    HW266650   7.514  10.831   5.867
21585SOL     OW66651  10.338   8.913   0.774
21585SOL    HW166652  10.408   8.971   0.805
21585SOL    HW266653  10.322   8.942   0.684
21586SOL     OW66654   1.277   9.701   3.472
21586SOL    HW166655   1.319   9.637   3.413
21586SOL    HW266656   1.348   9.729   3.530
21587SOL     OW66657   2.914   5.048   5.022
21587SOL    HW166658   2.882   5.042   5.113
21587SOL    HW266659   3.009   5.053   5.030
21588SOL     OW66660   1.153  13.498   8.610
21588SOL    HW166661   1.238  13.518   8.571
21588SOL    HW266662   1.174  13.448   8.689
21589SOL     OW66663  14.103   1.868   2.924
21589SOL    HW166664  14.069   1.824   3.002
21589SOL    HW266665  14.044   1.942   2.911
21590SOL     OW66666  10.874   2.200  11.529
21590SOL    HW166667  10.923   2.129  11.571
21590SOL    HW266668  10.784   2.187  11.559
21591SOL     OW66669   0.673   7.143  13.796
21591SOL    HW166670   0.629   7.077  13.850
21591SOL    HW266671   0.648   7.121  13.707
21592SOL     OW66672   1.761   3.070  11.733
21592SOL    HW166673   1.749   3.024  11.650
21592SOL    HW266674   1.707   3.149  11.725
21593SOL     OW66675   4.184   4.013   9.733
21593SOL    HW166676   4.111   4.034   9.792
21593SOL    HW266677   4.150   4.032   9.645
21594SOL     OW66678   0.995   0.213  11.210
21594SOL    HW166679   1.019   0.234  11.119
21594SOL    HW266680   1.072   0.238  11.261
21595SOL     OW66681   2.284  12.751   6.371
21595SOL    HW166682   2.309  12.756   6.278
21595SOL    HW266683   2.341  12.683   6.407
21596SOL     OW66684   7.349   7.020   6.606
21596SOL    HW166685   7.337   7.103   6.560
21596SOL    HW266686   7.334   6.953   6.539
21597SOL     OW66687   6.808   3.743  11.126
21597SOL    HW166688   6.818   3.651  11.100
21597SOL    HW266689   6.743   3.741  11.197
21598SOL     OW66690  14.831   9.383   1.169
21598SOL    HW166691  14.777   9.395   1.247
21598SOL    HW266692  14.800   9.301   1.131
21599SOL     OW66693   2.467  11.256   6.986
21599SOL    HW166694   2.513  11.294   7.060
21599SOL    HW266695   2.425  11.331   6.942
21600SOL     OW66696  13.404   0.453   5.808
21600SOL    HW166697  13.393   0.485   5.898
21600SOL    HW266698  13.468   0.383   5.815
21601SOL     OW66699  11.156   1.511   8.089
21601SOL    HW166700  11.214   1.435   8.086
21601SOL    HW266701  11.182   1.559   8.167
21602SOL     OW66702  12.137   6.957   1.211
21602SOL    HW166703  12.141   7.045   1.174
21602SOL    HW266704  12.166   6.900   1.140
21603SOL     OW66705  12.266   6.603   1.902
21603SOL    HW166706  12.217   6.546   1.962
21603SOL    HW266707  12.299   6.673   1.958
21604SOL     OW66708   6.776   9.942  11.958
21604SOL    HW166709   6.799   9.970  11.869
21604SOL    HW266710   6.824   9.860  11.970
21605SOL     OW66711   3.260  14.079   6.677
21605SOL    HW166712   3.329  14.146   6.686
21605SOL    HW266713   3.303  13.997   6.702
21606SOL     OW66714   0.933   9.857  10.339
21606SOL    HW166715   0.908   9.889  10.426
21606SOL    HW266716   0.854   9.866  10.287
21607SOL     OW66717   1.074  12.672   4.880
21607SOL    HW166718   1.135  12.689   4.809
21607SOL    HW266719   1.091  12.582   4.907
21608SOL     OW66720  13.151   6.818   5.979
21608SOL    HW166721  13.173   6.788   5.891
21608SOL    HW266722  13.166   6.742   6.035
21609SOL     OW66723   2.555   8.742  11.034
21609SOL    HW166724   2.533   8.780  11.119
21609SOL    HW266725   2.509   8.657  11.033
21610SOL     OW66726  14.546   9.426   7.575
21610SOL    HW166727  14.640   9.444   7.579
21610SOL    HW266728  14.506   9.495   7.628
21611SOL     OW66729   3.116   4.524   4.877
21611SOL    HW166730   3.193   4.581   4.885
21611SOL    HW266731   3.117   4.471   4.957
21612SOL     OW66732   9.655   1.032  10.532
21612SOL    HW166733   9.602   0.980  10.593
21612SOL    HW266734   9.741   0.990  10.535
21613SOL     OW66735  12.706  13.694   0.566
21613SOL    HW166736  12.660  13.727   0.489
21613SOL    HW266737  12.757  13.770   0.597
21614SOL     OW66738   5.967  12.772   0.157
21614SOL    HW166739   5.987  12.765   0.250
21614SOL    HW266740   5.943  12.864   0.145
21615SOL     OW66741   6.763  13.240  13.561
21615SOL    HW166742   6.761  13.172  13.629
21615SOL    HW266743   6.782  13.321  13.608
21616SOL     OW66744  10.722  12.991   3.443
21616SOL    HW166745  10.760  12.933   3.509
21616SOL    HW266746  10.798  13.021   3.392
21617SOL     OW66747   9.919  13.275  13.575
21617SOL    HW166748  10.005  13.315  13.591
21617SOL    HW266749   9.860  13.320  13.636
21618SOL     OW66750   9.447  10.178   0.078
21618SOL    HW166751   9.391  10.117   0.030
21618SOL    HW266752   9.386  10.240   0.118
21619SOL     OW66753   1.363   0.830   9.791
21619SOL    HW166754   1.319   0.914   9.787
21619SOL    HW266755   1.429   0.834   9.723
21620SOL     OW66756   0.612  13.782   7.104
21620SOL    HW166757   0.617  13.728   7.025
21620SOL    HW266758   0.586  13.869   7.072
21621SOL     OW66759  11.212   9.180   1.261
21621SOL    HW166760  11.266   9.207   1.336
21621SOL    HW266761  11.264   9.205   1.184
21622SOL     OW66762  11.997  11.742   9.767
21622SOL    HW166763  11.993  11.659   9.719
21622SOL    HW266764  11.935  11.799   9.723
21623SOL     OW66765  10.951   4.495   3.205
21623SOL    HW166766  11.029   4.456   3.245
21623SOL    HW266767  10.904   4.535   3.279
21624SOL     OW66768   0.845   0.357   2.785
21624SOL    HW166769   0.905   0.418   2.742
21624SOL    HW266770   0.818   0.297   2.716
21625SOL     OW66771  11.630   5.881   0.495
21625SOL    HW166772  11.559   5.936   0.526
21625SOL    HW266773  11.613   5.795   0.533
21626SOL     OW66774  12.988   8.900   6.371
21626SOL    HW166775  13.081   8.920   6.366
21626SOL    HW266776  12.973   8.878   6.463
21627SOL     OW66777   9.403   9.244  13.070
21627SOL    HW166778   9.384   9.223  12.979
21627SOL    HW266779   9.462   9.320  13.065
21628SOL     OW66780   6.733   2.988   3.888
21628SOL    HW166781   6.765   3.068   3.845
21628SOL    HW266782   6.660   3.019   3.942
21629SOL     OW66783  10.910   0.513   3.043
21629SOL    HW166784  10.986   0.463   3.014
21629SOL    HW266785  10.939   0.604   3.044
21630SOL     OW66786   8.688   7.229   4.548
21630SOL    HW166787   8.769   7.193   4.511
21630SOL    HW266788   8.631   7.153   4.559
21631SOL     OW66789   0.831   5.654  11.883
21631SOL    HW166790   0.749   5.626  11.841
21631SOL    HW266791   0.807   5.732  11.931
21632SOL     OW66792   7.699   1.992   4.847
21632SOL    HW166793   7.786   1.991   4.806
21632SOL    HW266794   7.695   2.076   4.893
21633SOL     OW66795   9.571   1.303  12.383
21633SOL    HW166796   9.666   1.313  12.373
21633SOL    HW266797   9.539   1.392  12.392
21634SOL     OW66798   2.377  14.668  10.029
21634SOL    HW166799   2.359  14.689  10.120
21634SOL    HW266800   2.473  14.666  10.023
21635SOL     OW66801  13.158  10.994  14.494
21635SOL    HW166802  13.151  10.904  14.523
21635SOL    HW266803  13.247  11.021  14.516
21636SOL     OW66804   4.238   8.086  11.010
21636SOL    HW166805   4.254   8.101  10.917
21636SOL    HW266806   4.143   8.093  11.020
21637SOL     OW66807  10.026  12.956   7.915
21637SOL    HW166808  10.097  12.973   7.978
21637SOL    HW266809   9.951  12.934   7.970
21638SOL     OW66810   4.333  13.874   2.690
21638SOL    HW166811   4.359  13.954   2.645
21638SOL    HW266812   4.379  13.804   2.643
21639SOL     OW66813   5.237   7.688  10.314
21639SOL    HW166814   5.227   7.775  10.353
21639SOL    HW266815   5.161   7.678  10.258
21640SOL     OW66816   3.952  10.644   4.683
21640SOL    HW166817   3.880  10.595   4.723
21640SOL    HW266818   3.939  10.734   4.712
21641SOL     OW66819   4.952   6.788  12.358
21641SOL    HW166820   4.980   6.865  12.408
21641SOL    HW266821   4.880   6.751  12.409
21642SOL     OW66822   9.861   3.411   4.876
21642SOL    HW166823   9.826   3.458   4.801
21642SOL    HW266824   9.880   3.323   4.843
21643SOL     OW66825   5.879   5.256  12.189
21643SOL    HW166826   5.840   5.206  12.117
21643SOL    HW266827   5.941   5.195  12.229
21644SOL     OW66828   0.710  12.215   6.012
21644SOL    HW166829   0.657  12.255   6.080
21644SOL    HW266830   0.769  12.156   6.059
21645SOL     OW66831   6.494   6.934  13.113
21645SOL    HW166832   6.550   6.871  13.069
21645SOL    HW266833   6.413   6.886  13.131
21646SOL     OW66834   2.357   6.685  13.133
21646SOL    HW166835   2.419   6.700  13.204
21646SOL    HW266836   2.308   6.767  13.125
21647SOL     OW66837   6.346   6.120   0.897
21647SOL    HW166838   6.295   6.068   0.959
21647SOL    HW266839   6.283   6.147   0.830
21648SOL     OW66840  13.309   6.181   6.281
21648SOL    HW166841  13.253   6.115   6.240
21648SOL    HW266842  13.315   6.252   6.217
21649SOL     OW66843  12.841   6.291   0.689
21649SOL    HW166844  12.822   6.216   0.633
21649SOL    HW266845  12.860   6.253   0.775
21650SOL     OW66846   1.005  13.047   9.660
21650SOL    HW166847   1.045  13.114   9.715
21650SOL    HW266848   1.076  13.019   9.602
21651SOL     OW66849   0.387   6.241   7.026
21651SOL    HW166850   0.361   6.224   6.936
21651SOL    HW266851   0.305   6.262   7.071
21652SOL     OW66852   4.301   0.843   0.652
21652SOL    HW166853   4.273   0.808   0.568
21652SOL    HW266854   4.336   0.930   0.633
21653SOL     OW66855  12.074   9.037   2.611
21653SOL    HW166856  12.084   9.131   2.630
21653SOL    HW266857  12.003   9.033   2.546
21654SOL     OW66858   6.309   8.456   7.864
21654SOL    HW166859   6.243   8.431   7.929
21654SOL    HW266860   6.277   8.419   7.782
21655SOL     OW66861  13.789   9.598   9.455
21655SOL    HW166862  13.787   9.679   9.405
21655SOL    HW266863  13.744   9.534   9.400
21656SOL     OW66864   3.433   7.923  10.826
21656SOL    HW166865   3.374   7.989  10.792
21656SOL    HW266866   3.511   7.971  10.855
21657SOL     OW66867  11.556   3.400  11.416
21657SOL    HW166868  11.569   3.407  11.322
21657SOL    HW266869  11.627   3.449  11.455
21658SOL     OW66870   7.755  12.946   4.545
21658SOL    HW166871   7.774  13.021   4.601
21658SOL    HW266872   7.825  12.945   4.480
21659SOL     OW66873   8.612  11.147   2.325
21659SOL    HW166874   8.610  11.085   2.253
21659SOL    HW266875   8.540  11.208   2.307
21660SOL     OW66876   7.839   5.649   9.236
21660SOL    HW166877   7.889   5.669   9.157
21660SOL    HW266878   7.871   5.711   9.301
21661SOL     OW66879   1.403   4.373   4.010
21661SOL    HW166880   1.421   4.328   4.092
21661SOL    HW266881   1.332   4.324   3.970
21662SOL     OW66882  14.099  12.009   8.208
21662SOL    HW166883  14.121  11.995   8.300
21662SOL    HW266884  14.038  12.083   8.209
21663SOL     OW66885   8.702   1.845  12.364
21663SOL    HW166886   8.640   1.777  12.391
21663SOL    HW266887   8.723   1.892  12.444
21664SOL     OW66888   9.796  11.110   0.220
21664SOL    HW166889   9.849  11.150   0.288
21664SOL    HW266890   9.858  11.090   0.150
21665SOL     OW66891  12.343   5.451   0.416
21665SOL    HW166892  12.268   5.406   0.377
21665SOL    HW266893  12.306   5.530   0.455
21666SOL     OW66894   5.833   1.011  13.586
21666SOL    HW166895   5.758   1.069  13.580
21666SOL    HW266896   5.807   0.932  13.538
21667SOL     OW66897  12.185  13.082   7.340
21667SOL    HW166898  12.135  13.042   7.411
21667SOL    HW266899  12.158  13.033   7.262
21668SOL     OW66900   6.283   3.470   2.111
21668SOL    HW166901   6.255   3.495   2.199
21668SOL    HW266902   6.314   3.551   2.072
21669SOL     OW66903   3.707   4.944   4.781
21669SOL    HW166904   3.686   5.037   4.771
21669SOL    HW266905   3.783   4.931   4.724
21670SOL     OW66906   1.848   5.232   9.540
21670SOL    HW166907   1.821   5.142   9.556
21670SOL    HW266908   1.861   5.269   9.627
21671SOL     OW66909   7.853  13.552   8.073
21671SOL    HW166910   7.874  13.623   8.133
21671SOL    HW266911   7.921  13.487   8.088
21672SOL     OW66912   4.040   0.819   5.403
21672SOL    HW166913   3.950   0.807   5.373
21672SOL    HW266914   4.044   0.770   5.485
21673SOL     OW66915   1.829   3.587  12.020
21673SOL    HW166916   1.868   3.557  11.938
21673SOL    HW266917   1.825   3.682  12.011
21674SOL     OW66918   7.555   8.297  14.616
21674SOL    HW166919   7.546   8.237  14.690
21674SOL    HW266920   7.572   8.383  14.656
21675SOL     OW66921  11.566   5.366   3.843
21675SOL    HW166922  11.489   5.311   3.832
21675SOL    HW266923  11.591   5.354   3.935
21676SOL     OW66924  12.445   9.758   6.580
21676SOL    HW166925  12.452   9.753   6.675
21676SOL    HW266926  12.478   9.673   6.549
21677SOL     OW66927  12.447   8.450   9.138
21677SOL    HW166928  12.415   8.472   9.226
21677SOL    HW266929  12.367   8.427   9.090
21678SOL     OW66930   9.993   5.721  11.108
21678SOL    HW166931   9.975   5.712  11.014
21678SOL    HW266932   9.907   5.710  11.149
21679SOL     OW66933  14.483   7.337   2.996
21679SOL    HW166934  14.431   7.399   3.046
21679SOL    HW266935  14.432   7.256   2.998
21680SOL     OW66936   9.422   2.784   0.265
21680SOL    HW166937   9.439   2.877   0.280
21680SOL    HW266938   9.355   2.761   0.330
21681SOL     OW66939  10.991   8.682   2.366
21681SOL    HW166940  10.955   8.635   2.442
21681SOL    HW266941  10.990   8.774   2.392
21682SOL     OW66942   6.951   1.848   4.842
21682SOL    HW166943   7.033   1.883   4.808
21682SOL    HW266944   6.934   1.771   4.787
21683SOL     OW66945   0.283  10.373   6.533
21683SOL    HW166946   0.287  10.376   6.437
21683SOL    HW266947   0.356  10.316   6.558
21684SOL     OW66948   8.939  10.373   3.447
21684SOL    HW166949   8.874  10.305   3.465
21684SOL    HW266950   8.892  10.455   3.462
21685SOL     OW66951   7.320   1.853   8.312
21685SOL    HW166952   7.247   1.840   8.251
21685SOL    HW266953   7.280   1.851   8.399
21686SOL     OW66954  11.282   9.219  13.579
21686SOL    HW166955  11.188   9.198  13.581
21686SOL    HW266956  11.301   9.234  13.487
21687SOL     OW66957  13.145   3.644   2.392
21687SOL    HW166958  13.173   3.725   2.435
21687SOL    HW266959  13.179   3.652   2.303
21688SOL     OW66960   2.004  10.981  10.120
21688SOL    HW166961   2.063  10.958  10.191
21688SOL    HW266962   2.001  10.903  10.065
21689SOL     OW66963  12.276  11.632  14.650
21689SOL    HW166964  12.316  11.675  14.726
21689SOL    HW266965  12.341  11.567  14.623
21690SOL     OW66966   9.691  13.644   3.777
21690SOL    HW166967   9.739  13.707   3.831
21690SOL    HW266968   9.719  13.662   3.688
21691SOL     OW66969  10.549  14.489   0.581
21691SOL    HW166970  10.487  14.491   0.508
21691SOL    HW266971  10.514  14.553   0.643
21692SOL     OW66972   8.528   0.897  10.754
21692SOL    HW166973   8.511   0.824  10.694
21692SOL    HW266974   8.481   0.971  10.716
21693SOL     OW66975   6.047   7.722   8.424
21693SOL    HW166976   6.071   7.703   8.333
21693SOL    HW266977   6.007   7.641   8.456
21694SOL     OW66978   9.055   2.359  11.947
21694SOL    HW166979   8.980   2.318  11.904
21694SOL    HW266980   9.087   2.423  11.882
21695SOL     OW66981  10.069   5.441   1.525
21695SOL    HW166982  10.107   5.500   1.459
21695SOL    HW266983  10.018   5.499   1.582
21696SOL     OW66984   5.779   1.495   5.537
21696SOL    HW166985   5.838   1.451   5.476
21696SOL    HW266986   5.750   1.573   5.490
21697SOL     OW66987   7.849   1.319  13.753
21697SOL    HW166988   7.925   1.377  13.759
21697SOL    HW266989   7.881   1.234  13.781
21698SOL     OW66990  13.778  10.936  13.526
21698SOL    HW166991  13.733  11.010  13.566
21698SOL    HW266992  13.764  10.863  13.587
21699SOL     OW66993   2.867   7.571   7.559
21699SOL    HW166994   2.797   7.632   7.536
21699SOL    HW266995   2.831   7.485   7.535
21700SOL     OW66996  10.250   0.005   5.757
21700SOL    HW166997  10.263   0.070   5.827
21700SOL    HW266998  10.333  14.827   5.754
21701SOL     OW66999   6.201   6.378  10.239
21701SOL    HW167000   6.277   6.338  10.196
21701SOL    HW267001   6.130   6.316  10.225
21702SOL     OW67002   2.238  13.208   7.251
21702SOL    HW167003   2.176  13.189   7.181
21702SOL    HW267004   2.184  13.238   7.324
21703SOL     OW67005  10.367   2.993   2.627
21703SOL    HW167006  10.304   3.063   2.616
21703SOL    HW267007  10.354   2.962   2.717
21704SOL     OW67008  12.936   4.026   7.764
21704SOL    HW167009  12.978   4.038   7.679
21704SOL    HW267010  12.907   3.935   7.763
21705SOL     OW67011  12.202  12.675   5.627
21705SOL    HW167012  12.153  12.737   5.573
21705SOL    HW267013  12.180  12.698   5.717
21706SOL     OW67014   3.218  14.107  10.043
21706SOL    HW167015   3.275  14.112  10.119
21706SOL    HW267016   3.230  14.018  10.009
21707SOL     OW67017   5.358   4.409   3.183
21707SOL    HW167018   5.278   4.457   3.202
21707SOL    HW267019   5.420   4.477   3.155
21708SOL     OW67020   3.688   2.455  14.153
21708SOL    HW167021   3.722   2.373  14.188
21708SOL    HW267022   3.642   2.495  14.227
21709SOL     OW67023  11.767  13.439   0.016
21709SOL    HW167024  11.813  13.361  14.856
21709SOL    HW267025  11.755  13.492  14.806
21710SOL     OW67026   2.642   9.866   5.937
21710SOL    HW167027   2.725   9.871   5.890
21710SOL    HW267028   2.606   9.780   5.914
21711SOL     OW67029   5.486   2.904  13.193
21711SOL    HW167030   5.561   2.962  13.202
21711SOL    HW267031   5.511   2.844  13.122
21712SOL     OW67032   0.406  13.632   3.760
21712SOL    HW167033   0.387  13.716   3.717
21712SOL    HW267034   0.422  13.571   3.688
21713SOL     OW67035   5.328   2.204  11.236
21713SOL    HW167036   5.303   2.143  11.305
21713SOL    HW267037   5.246   2.224  11.191
21714SOL     OW67038   0.340   0.986   6.414
21714SOL    HW167039   0.395   0.962   6.488
21714SOL    HW267040   0.384   1.062   6.375
21715SOL     OW67041  11.715  14.785   4.002
21715SOL    HW167042  11.735  14.869   4.043
21715SOL    HW267043  11.790  14.729   4.023
21716SOL     OW67044   5.956   8.841   0.588
21716SOL    HW167045   6.037   8.890   0.574
21716SOL    HW267046   5.931   8.811   0.501
21717SOL     OW67047   1.144   2.712  12.311
21717SOL    HW167048   1.125   2.803  12.334
21717SOL    HW267049   1.200   2.680  12.381
21718SOL     OW67050  10.320  11.226   2.883
21718SOL    HW167051  10.365  11.194   2.805
21718SOL    HW267052  10.303  11.148   2.936
21719SOL     OW67053   1.283  11.897   7.193
21719SOL    HW167054   1.308  11.855   7.275
21719SOL    HW267055   1.355  11.957   7.174
21720SOL     OW67056   8.145  11.164   5.592
21720SOL    HW167057   8.219  11.113   5.627
21720SOL    HW267058   8.186  11.230   5.537
21721SOL     OW67059  11.144   8.712  10.908
21721SOL    HW167060  11.058   8.682  10.877
21721SOL    HW267061  11.147   8.805  10.884
21722SOL     OW67062   0.647   4.406   2.998
21722SOL    HW167063   0.627   4.499   2.993
21722SOL    HW267064   0.645   4.386   3.091
21723SOL     OW67065   4.027   3.516   3.219
21723SOL    HW167066   4.003   3.470   3.300
21723SOL    HW267067   4.059   3.601   3.249
21724SOL     OW67068  11.187  13.495  13.100
21724SOL    HW167069  11.263  13.518  13.153
21724SOL    HW267070  11.216  13.421  13.047
21725SOL     OW67071  12.811   0.755   6.802
21725SOL    HW167072  12.817   0.791   6.890
21725SOL    HW267073  12.719   0.765   6.778
21726SOL     OW67074   3.078   0.439   2.156
21726SOL    HW167075   3.168   0.416   2.134
21726SOL    HW267076   3.035   0.356   2.176
21727SOL     OW67077  10.478  10.876   7.640
21727SOL    HW167078  10.438  10.810   7.697
21727SOL    HW267079  10.452  10.851   7.552
21728SOL     OW67080   6.226   4.865   6.860
21728SOL    HW167081   6.187   4.857   6.946
21728SOL    HW267082   6.164   4.917   6.809
21729SOL     OW67083  11.941  12.719   8.029
21729SOL    HW167084  11.904  12.645   8.076
21729SOL    HW267085  11.874  12.743   7.965
21730SOL     OW67086   5.520  12.302  14.285
21730SOL    HW167087   5.476  12.291  14.369
21730SOL    HW267088   5.449  12.309  14.221
21731SOL     OW67089  13.686  10.969  14.441
21731SOL    HW167090  13.710  10.962  14.348
21731SOL    HW267091  13.636  10.890  14.459
21732SOL     OW67092   6.280  13.234  14.449
21732SOL    HW167093   6.243  13.312  14.409
21732SOL    HW267094   6.255  13.162  14.391
21733SOL     OW67095  11.153  11.648   5.640
21733SOL    HW167096  11.184  11.711   5.705
21733SOL    HW267097  11.061  11.671   5.627
21734SOL     OW67098   3.358   6.186  14.234
21734SOL    HW167099   3.361   6.121  14.164
21734SOL    HW267100   3.447   6.219  14.241
21735SOL     OW67101  11.895   6.354  11.807
21735SOL    HW167102  11.810   6.330  11.771
21735SOL    HW267103  11.877   6.429  11.865
21736SOL     OW67104  13.380  14.434   0.475
21736SOL    HW167105  13.376  14.455   0.381
21736SOL    HW267106  13.390  14.339   0.479
21737SOL     OW67107   2.322   9.797  13.423
21737SOL    HW167108   2.269   9.727  13.385
21737SOL    HW267109   2.281   9.815  13.508
21738SOL     OW67110   9.303   4.037  10.465
21738SOL    HW167111   9.267   3.949  10.470
21738SOL    HW267112   9.398   4.024  10.455
21739SOL     OW67113   9.131   9.238   0.802
21739SOL    HW167114   9.052   9.274   0.761
21739SOL    HW267115   9.109   9.230   0.895
21740SOL     OW67116   8.233   4.262   0.587
21740SOL    HW167117   8.309   4.316   0.606
21740SOL    HW267118   8.175   4.276   0.662
21741SOL     OW67119  10.566   7.616  11.807
21741SOL    HW167120  10.534   7.535  11.846
21741SOL    HW267121  10.503   7.635  11.737
21742SOL     OW67122  12.350   5.898   8.059
21742SOL    HW167123  12.313   5.892   8.147
21742SOL    HW267124  12.444   5.906   8.072
21743SOL     OW67125   1.951   9.384   0.059
21743SOL    HW167126   1.940   9.388   0.154
21743SOL    HW267127   1.866   9.355   0.026
21744SOL     OW67128  13.682   5.784   5.979
21744SOL    HW167129  13.699   5.789   6.073
21744SOL    HW267130  13.688   5.691   5.958
21745SOL     OW67131   1.503  11.218  10.940
21745SOL    HW167132   1.517  11.142  10.883
21745SOL    HW267133   1.572  11.279  10.915
21746SOL     OW67134   4.353   4.544   7.396
21746SOL    HW167135   4.329   4.604   7.467
21746SOL    HW267136   4.442   4.569   7.373
21747SOL     OW67137  13.697   2.528  13.508
21747SOL    HW167138  13.777   2.561  13.468
21747SOL    HW267139  13.663   2.601  13.559
21748SOL     OW67140  14.831   0.199  11.726
21748SOL    HW167141   0.012   0.273  11.761
21748SOL    HW267142  14.751   0.197  11.780
21749SOL     OW67143   5.309   6.846   7.871
21749SOL    HW167144   5.377   6.811   7.813
21749SOL    HW267145   5.338   6.935   7.890
21750SOL     OW67146   6.435   8.225  11.381
21750SOL    HW167147   6.372   8.296  11.371
21750SOL    HW267148   6.382   8.147  11.397
21751SOL     OW67149   7.559   6.646   0.216
21751SOL    HW167150   7.511   6.654   0.134
21751SOL    HW267151   7.609   6.727   0.224
21752SOL     OW67152   8.154  12.991  12.469
21752SOL    HW167153   8.079  13.011  12.413
21752SOL    HW267154   8.222  12.961  12.409
21753SOL     OW67155  10.490   5.328  13.858
21753SOL    HW167156  10.426   5.384  13.815
21753SOL    HW267157  10.547   5.298  13.787
21754SOL     OW67158  12.756   5.167  14.226
21754SOL    HW167159  12.660   5.165  14.226
21754SOL    HW267160  12.781   5.098  14.165
21755SOL     OW67161   3.828  13.227   7.100
21755SOL    HW167162   3.849  13.241   7.192
21755SOL    HW267163   3.894  13.277   7.052
21756SOL     OW67164  11.601  12.895   0.670
21756SOL    HW167165  11.527  12.881   0.729
21756SOL    HW267166  11.629  12.985   0.686
21757SOL     OW67167  13.494   8.859   7.031
21757SOL    HW167168  13.566   8.808   6.993
21757SOL    HW267169  13.440   8.795   7.077
21758SOL     OW67170   4.240   7.744   6.331
21758SOL    HW167171   4.282   7.774   6.251
21758SOL    HW267172   4.293   7.668   6.358
21759SOL     OW67173  13.987   0.949   3.104
21759SOL    HW167174  13.980   0.854   3.095
21759SOL    HW267175  14.081   0.965   3.110
21760SOL     OW67176   6.235   8.481  13.688
21760SOL    HW167177   6.214   8.482  13.782
21760SOL    HW267178   6.219   8.572  13.660
21761SOL     OW67179   5.783   9.335   9.710
21761SOL    HW167180   5.805   9.401   9.644
21761SOL    HW267181   5.800   9.378   9.794
21762SOL     OW67182   3.443  12.534  14.267
21762SOL    HW167183   3.487  12.589  14.202
21762SOL    HW267184   3.485  12.449  14.258
21763SOL     OW67185   8.861   2.652   4.288
21763SOL    HW167186   8.889   2.613   4.205
21763SOL    HW267187   8.839   2.743   4.266
21764SOL     OW67188   7.076  13.769  12.930
21764SOL    HW167189   6.997  13.797  12.976
21764SOL    HW267190   7.109  13.850  12.889
21765SOL     OW67191  10.938  13.020   3.290
21765SOL    HW167192  11.027  12.984   3.291
21765SOL    HW267193  10.899  12.985   3.210
21766SOL     OW67194   3.651   8.173   5.862
21766SOL    HW167195   3.594   8.218   5.800
21766SOL    HW267196   3.599   8.098   5.892
21767SOL     OW67197   0.077  10.677   3.243
21767SOL    HW167198   0.073  10.724   3.327
21767SOL    HW267199   0.025  10.598   3.258
21768SOL     OW67200  11.682  14.276   7.021
21768SOL    HW167201  11.761  14.231   7.049
21768SOL    HW267202  11.615  14.207   7.018
21769SOL     OW67203   9.898   1.760  12.962
21769SOL    HW167204   9.894   1.796  13.051
21769SOL    HW267205   9.865   1.671  12.972
21770SOL     OW67206   7.164   1.440  12.321
21770SOL    HW167207   7.075   1.414  12.345
21770SOL    HW267208   7.155   1.480  12.235
21771SOL     OW67209  11.877   3.596   0.630
21771SOL    HW167210  11.826   3.624   0.706
21771SOL    HW267211  11.962   3.638   0.641
21772SOL     OW67212   4.504   2.032   2.919
21772SOL    HW167213   4.553   1.950   2.920
21772SOL    HW267214   4.418   2.009   2.883
21773SOL     OW67215   1.255   1.907   2.386
21773SOL    HW167216   1.345   1.895   2.354
21773SOL    HW267217   1.220   1.978   2.334
21774SOL     OW67218   7.011   8.866   6.649
21774SOL    HW167219   7.083   8.807   6.672
21774SOL    HW267220   7.054   8.948   6.625
21775SOL     OW67221   7.740   6.903   4.661
21775SOL    HW167222   7.778   6.862   4.738
21775SOL    HW267223   7.752   6.838   4.591
21776SOL     OW67224  12.289   7.325   3.720
21776SOL    HW167225  12.260   7.343   3.809
21776SOL    HW267226  12.365   7.382   3.707
21777SOL     OW67227   1.547   0.156  13.054
21777SOL    HW167228   1.520   0.064  13.047
21777SOL    HW267229   1.621   0.155  13.113
21778SOL     OW67230   1.020  14.396  11.458
21778SOL    HW167231   1.032  14.480  11.501
21778SOL    HW267232   1.107  14.371  11.428
21779SOL     OW67233  14.208   8.546   5.874
21779SOL    HW167234  14.267   8.579   5.941
21779SOL    HW267235  14.183   8.459   5.905
21780SOL     OW67236   0.152  11.728  11.023
21780SOL    HW167237   0.083  11.672  11.059
21780SOL    HW267238   0.212  11.667  10.981
21781SOL     OW67239   0.069   7.203   8.488
21781SOL    HW167240   0.070   7.126   8.431
21781SOL    HW267241   0.044   7.275   8.430
21782SOL     OW67242  11.361   2.570  13.233
21782SOL    HW167243  11.293   2.621  13.189
21782SOL    HW267244  11.443   2.605  13.198
21783SOL     OW67245  10.788  10.715   9.736
21783SOL    HW167246  10.766  10.623   9.722
21783SOL    HW267247  10.712  10.752   9.780
21784SOL     OW67248   3.509   6.286   8.483
21784SOL    HW167249   3.568   6.325   8.418
21784SOL    HW267250   3.496   6.196   8.453
21785SOL     OW67251  12.549   0.106  14.841
21785SOL    HW167252  12.618   0.172  14.836
21785SOL    HW267253  12.524   0.090  14.750
21786SOL     OW67254   0.060   9.917  12.266
21786SOL    HW167255   0.016   9.987  12.314
21786SOL    HW267256   0.071   9.847  12.331
21787SOL     OW67257   0.348   9.750   8.964
21787SOL    HW167258   0.288   9.795   8.904
21787SOL    HW267259   0.403   9.820   8.999
21788SOL     OW67260  10.821   3.760   9.679
21788SOL    HW167261  10.758   3.827   9.651
21788SOL    HW267262  10.772   3.703   9.738
21789SOL     OW67263   1.407   6.904   3.011
21789SOL    HW167264   1.411   6.925   3.105
21789SOL    HW267265   1.474   6.959   2.971
21790SOL     OW67266   1.975   1.177   2.252
21790SOL    HW167267   2.010   1.141   2.334
21790SOL    HW267268   2.038   1.245   2.227
21791SOL     OW67269   0.672  12.814  13.129
21791SOL    HW167270   0.764  12.799  13.151
21791SOL    HW267271   0.633  12.848  13.209
21792SOL     OW67272   5.397  13.205  14.310
21792SOL    HW167273   5.360  13.127  14.353
21792SOL    HW267274   5.446  13.249  14.380
21793SOL     OW67275   9.155   9.208   9.399
21793SOL    HW167276   9.229   9.156   9.365
21793SOL    HW267277   9.104   9.145   9.450
21794SOL     OW67278   7.561   1.144   5.404
21794SOL    HW167279   7.468   1.120   5.396
21794SOL    HW267280   7.590   1.101   5.484
21795SOL     OW67281   8.079   0.417  13.805
21795SOL    HW167282   7.999   0.406  13.857
21795SOL    HW267283   8.070   0.354  13.733
21796SOL     OW67284   4.680  11.411   3.799
21796SOL    HW167285   4.771  11.440   3.804
21796SOL    HW267286   4.639  11.448   3.877
21797SOL     OW67287   5.991   2.621  11.021
21797SOL    HW167288   6.051   2.550  11.047
21797SOL    HW267289   6.047   2.684  10.977
21798SOL     OW67290   9.752  13.854   6.068
21798SOL    HW167291   9.706  13.887   5.991
21798SOL    HW267292   9.789  13.771   6.040
21799SOL     OW67293  13.939  12.134  11.167
21799SOL    HW167294  13.918  12.223  11.197
21799SOL    HW267295  14.019  12.144  11.116
21800SOL     OW67296   1.570  13.660  12.034
21800SOL    HW167297   1.609  13.585  12.077
21800SOL    HW267298   1.475  13.645  12.040
21801SOL     OW67299  12.374  13.694  11.683
21801SOL    HW167300  12.382  13.788  11.699
21801SOL    HW267301  12.307  13.686  11.615
21802SOL     OW67302  11.017   7.688   4.805
21802SOL    HW167303  10.999   7.698   4.898
21802SOL    HW267304  10.964   7.755   4.762
21803SOL     OW67305   8.699   7.118  12.535
21803SOL    HW167306   8.648   7.122  12.454
21803SOL    HW267307   8.656   7.050  12.587
21804SOL     OW67308   3.938   8.758   7.348
21804SOL    HW167309   3.924   8.692   7.416
21804SOL    HW267310   3.871   8.739   7.282
21805SOL     OW67311  14.811   8.021   5.903
21805SOL    HW167312  14.720   8.011   5.874
21805SOL    HW267313  14.846   7.932   5.904
21806SOL     OW67314   6.852   8.930  14.509
21806SOL    HW167315   6.854   9.024  14.529
21806SOL    HW267316   6.840   8.888  14.594
21807SOL     OW67317   1.471   9.628   6.009
21807SOL    HW167318   1.388   9.587   5.982
21807SOL    HW267319   1.456   9.721   5.994
21808SOL     OW67320   7.959  13.833  14.119
21808SOL    HW167321   8.004  13.774  14.058
21808SOL    HW267322   8.004  13.819  14.203
21809SOL     OW67323   3.996  12.175  14.758
21809SOL    HW167324   4.026  12.234  14.827
21809SOL    HW267325   3.971  12.095  14.804
21810SOL     OW67326   3.269   0.923   3.559
21810SOL    HW167327   3.295   0.914   3.650
21810SOL    HW267328   3.194   0.983   3.561
21811SOL     OW67329  11.003   9.114   1.985
21811SOL    HW167330  11.085   9.079   1.951
21811SOL    HW267331  11.011   9.108   2.080
21812SOL     OW67332   5.588   6.291   4.415
21812SOL    HW167333   5.669   6.277   4.365
21812SOL    HW267334   5.526   6.227   4.380
21813SOL     OW67335   7.871   9.033   6.953
21813SOL    HW167336   7.862   9.076   7.038
21813SOL    HW267337   7.904   8.946   6.973
21814SOL     OW67338  10.759   6.250  12.124
21814SOL    HW167339  10.778   6.343  12.110
21814SOL    HW267340  10.664   6.246  12.134
21815SOL     OW67341   4.260   4.151   2.210
21815SOL    HW167342   4.229   4.062   2.227
21815SOL    HW267343   4.342   4.140   2.163
21816SOL     OW67344   3.161  13.038   8.020
21816SOL    HW167345   3.080  13.020   7.972
21816SOL    HW267346   3.182  12.956   8.064
21817SOL     OW67347   6.801  10.564  10.760
21817SOL    HW167348   6.841  10.555  10.673
21817SOL    HW267349   6.728  10.624  10.746
21818SOL     OW67350  13.580   7.451   0.885
21818SOL    HW167351  13.672   7.458   0.859
21818SOL    HW267352  13.543   7.388   0.823
21819SOL     OW67353  11.107  13.998   8.111
21819SOL    HW167354  11.070  13.910   8.111
21819SOL    HW267355  11.141  14.010   8.022
21820SOL     OW67356   0.031   5.058   3.174
21820SOL    HW167357  14.827   5.029   3.121
21820SOL    HW267358  14.861   5.090   3.255
21821SOL     OW67359   2.952  10.155   6.657
21821SOL    HW167360   2.908  10.165   6.742
21821SOL    HW267361   2.961  10.060   6.646
21822SOL     OW67362   6.088   3.059   2.979
21822SOL    HW167363   6.135   3.011   2.911
21822SOL    HW267364   6.080   3.148   2.945
21823SOL     OW67365  11.390  12.147   9.770
21823SOL    HW167366  11.478  12.171   9.800
21823SOL    HW267367  11.369  12.068   9.820
21824SOL     OW67368   1.555   4.798  10.618
21824SOL    HW167369   1.588   4.735  10.682
21824SOL    HW267370   1.492   4.851  10.667
21825SOL     OW67371  11.171   9.426   9.449
21825SOL    HW167372  11.244   9.398   9.394
21825SOL    HW267373  11.143   9.510   9.412
21826SOL     OW67374  13.394   9.571  11.106
21826SOL    HW167375  13.451   9.608  11.038
21826SOL    HW267376  13.407   9.628  11.182
21827SOL     OW67377   2.451   5.290   7.569
21827SOL    HW167378   2.523   5.294   7.506
21827SOL    HW267379   2.427   5.197   7.572
21828SOL     OW67380  11.693  12.382  11.821
21828SOL    HW167381  11.672  12.291  11.842
21828SOL    HW267382  11.774  12.400  11.868
21829SOL     OW67383  12.305   5.586  12.395
21829SOL    HW167384  12.310   5.514  12.332
21829SOL    HW267385  12.373   5.648  12.367
21830SOL     OW67386   5.645   7.121   4.379
21830SOL    HW167387   5.673   7.193   4.436
21830SOL    HW267388   5.665   7.042   4.429
21831SOL     OW67389   8.290   4.075   8.253
21831SOL    HW167390   8.198   4.049   8.252
21831SOL    HW267391   8.337   3.994   8.276
21832SOL     OW67392   0.484   8.012  12.468
21832SOL    HW167393   0.442   7.950  12.528
21832SOL    HW267394   0.412   8.067  12.437
21833SOL     OW67395   5.754   5.264   9.477
21833SOL    HW167396   5.745   5.193   9.541
21833SOL    HW267397   5.740   5.344   9.527
21834SOL     OW67398   7.724   9.521   4.439
21834SOL    HW167399   7.644   9.471   4.420
21834SOL    HW267400   7.736   9.577   4.362
21835SOL     OW67401   8.852   8.419  11.052
21835SOL    HW167402   8.835   8.512  11.067
21835SOL    HW267403   8.929   8.418  10.994
21836SOL     OW67404   2.599   1.168   6.460
21836SOL    HW167405   2.631   1.148   6.548
21836SOL    HW267406   2.510   1.199   6.473
21837SOL     OW67407   6.526   8.576   7.943
21837SOL    HW167408   6.477   8.624   8.010
21837SOL    HW267409   6.460   8.531   7.892
21838SOL     OW67410   1.841  12.945   6.272
21838SOL    HW167411   1.866  12.916   6.360
21838SOL    HW267412   1.811  13.035   6.284
21839SOL     OW67413  11.874  14.072   2.599
21839SOL    HW167414  11.952  14.090   2.652
21839SOL    HW267415  11.864  14.148   2.543
21840SOL     OW67416  13.684  11.583   5.731
21840SOL    HW167417  13.747  11.650   5.759
21840SOL    HW267418  13.733  11.501   5.735
21841SOL     OW67419   9.721  11.007   6.825
21841SOL    HW167420   9.697  11.048   6.908
21841SOL    HW267421   9.667  10.928   6.820
21842SOL     OW67422   0.614  11.066   3.250
21842SOL    HW167423   0.554  11.124   3.297
21842SOL    HW267424   0.625  10.991   3.309
21843SOL     OW67425  13.916   8.693  11.742
21843SOL    HW167426  13.992   8.682  11.799
21843SOL    HW267427  13.871   8.770  11.777
21844SOL     OW67428  13.671   2.300  12.753
21844SOL    HW167429  13.731   2.273  12.823
21844SOL    HW267430  13.656   2.220  12.703
21845SOL     OW67431  12.084   4.958   5.474
21845SOL    HW167432  12.160   4.957   5.416
21845SOL    HW267433  12.119   4.930   5.559
21846SOL     OW67434   7.790   4.675   2.296
21846SOL    HW167435   7.726   4.693   2.364
21846SOL    HW267436   7.864   4.731   2.318
21847SOL     OW67437  12.004   9.184   3.426
21847SOL    HW167438  11.945   9.206   3.498
21847SOL    HW267439  11.950   9.188   3.348
21848SOL     OW67440  10.397  14.263   2.248
21848SOL    HW167441  10.450  14.224   2.318
21848SOL    HW267442  10.349  14.189   2.211
21849SOL     OW67443   3.808   6.846   2.791
21849SOL    HW167444   3.774   6.935   2.800
21849SOL    HW267445   3.852   6.829   2.874
21850SOL     OW67446  10.983   4.240  14.757
21850SOL    HW167447  11.045   4.175  14.791
21850SOL    HW267448  10.899   4.195  14.754
21851SOL     OW67449   6.711   3.094   1.705
21851SOL    HW167450   6.735   3.003   1.725
21851SOL    HW267451   6.792   3.143   1.715
21852SOL     OW67452  12.190   1.586  10.243
21852SOL    HW167453  12.230   1.665  10.209
21852SOL    HW267454  12.261   1.538  10.286
21853SOL     OW67455  12.888  14.437   8.553
21853SOL    HW167456  12.837  14.356   8.546
21853SOL    HW267457  12.831  14.498   8.599
21854SOL     OW67458   4.645  10.282   7.931
21854SOL    HW167459   4.639  10.359   7.988
21854SOL    HW267460   4.665  10.209   7.990
21855SOL     OW67461   3.258   3.149   8.456
21855SOL    HW167462   3.230   3.084   8.520
21855SOL    HW267463   3.259   3.232   8.504
21856SOL     OW67464   3.929   3.699   7.639
21856SOL    HW167465   3.929   3.657   7.725
21856SOL    HW267466   4.022   3.718   7.622
21857SOL     OW67467   0.430  11.193   9.730
21857SOL    HW167468   0.492  11.223   9.796
21857SOL    HW267469   0.473  11.212   9.646
21858SOL     OW67470   5.481  12.145   1.324
21858SOL    HW167471   5.460  12.141   1.231
21858SOL    HW267472   5.403  12.185   1.364
21859SOL     OW67473  12.119   7.259   4.518
21859SOL    HW167474  12.160   7.342   4.493
21859SOL    HW267475  12.163   7.193   4.465
21860SOL     OW67476  10.927   9.717   8.497
21860SOL    HW167477  10.979   9.768   8.435
21860SOL    HW267478  10.928   9.628   8.461
21861SOL     OW67479  11.941   9.011  13.599
21861SOL    HW167480  12.006   8.974  13.660
21861SOL    HW267481  11.931   9.102  13.626
21862SOL     OW67482   0.180   6.516  12.754
21862SOL    HW167483   0.251   6.534  12.816
21862SOL    HW267484   0.213   6.443  12.701
21863SOL     OW67485   6.600   6.477  14.585
21863SOL    HW167486   6.592   6.416  14.658
21863SOL    HW267487   6.514   6.519  14.579
21864SOL     OW67488  11.426   9.225   0.201
21864SOL    HW167489  11.333   9.208   0.214
21864SOL    HW267490  11.438   9.317   0.226
21865SOL     OW67491  10.376  13.293  12.306
21865SOL    HW167492  10.463  13.324  12.283
21865SOL    HW267493  10.373  13.203  12.275
21866SOL     OW67494  10.408  12.162   6.933
21866SOL    HW167495  10.421  12.188   7.024
21866SOL    HW267496  10.392  12.068   6.936
21867SOL     OW67497   8.541  13.544   4.301
21867SOL    HW167498   8.506  13.538   4.390
21867SOL    HW267499   8.598  13.467   4.292
21868SOL     OW67500  11.416  13.973   3.033
21868SOL    HW167501  11.349  14.023   3.080
21868SOL    HW267502  11.417  14.012   2.945
21869SOL     OW67503   5.852   2.127   7.112
21869SOL    HW167504   5.877   2.210   7.070
21869SOL    HW267505   5.924   2.108   7.172
21870SOL     OW67506   2.206  12.977   0.686
21870SOL    HW167507   2.177  12.952   0.599
21870SOL    HW267508   2.255  13.059   0.673
21871SOL     OW67509   5.783   9.665   6.686
21871SOL    HW167510   5.838   9.633   6.757
21871SOL    HW267511   5.706   9.701   6.730
21872SOL     OW67512   9.957   0.700   1.186
21872SOL    HW167513  10.034   0.753   1.168
21872SOL    HW267514   9.935   0.661   1.101
21873SOL     OW67515   5.420   4.477   7.991
21873SOL    HW167516   5.479   4.406   8.017
21873SOL    HW267517   5.440   4.492   7.898
21874SOL     OW67518   9.965   5.703   1.551
21874SOL    HW167519   9.921   5.784   1.574
21874SOL    HW267520   9.902   5.655   1.497
21875SOL     OW67521  11.196   5.702   3.365
21875SOL    HW167522  11.284   5.701   3.327
21875SOL    HW267523  11.211   5.706   3.459
21876SOL     OW67524  14.287  10.521   0.683
21876SOL    HW167525  14.235  10.599   0.661
21876SOL    HW267526  14.259  10.499   0.772
21877SOL     OW67527   9.405   2.921   5.928
21877SOL    HW167528   9.339   2.880   5.985
21877SOL    HW267529   9.483   2.930   5.984
21878SOL     OW67530   5.206   4.503   9.870
21878SOL    HW167531   5.275   4.447   9.836
21878SOL    HW267532   5.126   4.450   9.862
21879SOL     OW67533   4.810   2.956   0.949
21879SOL    HW167534   4.745   2.945   1.019
21879SOL    HW267535   4.862   3.031   0.977
21880SOL     OW67536   1.473  11.444  12.281
21880SOL    HW167537   1.399  11.385  12.264
21880SOL    HW267538   1.438  11.531  12.263
21881SOL     OW67539   0.844  11.879   5.904
21881SOL    HW167540   0.851  11.834   5.988
21881SOL    HW267541   0.751  11.904   5.899
21882SOL     OW67542  11.713  13.794   7.318
21882SOL    HW167543  11.729  13.785   7.224
21882SOL    HW267544  11.727  13.707   7.354
21883SOL     OW67545  11.712  12.888  14.016
21883SOL    HW167546  11.778  12.953  13.992
21883SOL    HW267547  11.686  12.849  13.932
21884SOL     OW67548  13.203  12.889  12.571
21884SOL    HW167549  13.275  12.918  12.628
21884SOL    HW267550  13.179  12.967  12.521
21885SOL     OW67551   6.253   4.463   0.277
21885SOL    HW167552   6.172   4.480   0.326
21885SOL    HW267553   6.255   4.368   0.266
21886SOL     OW67554   9.871   4.695   9.789
21886SOL    HW167555   9.887   4.787   9.770
21886SOL    HW267556   9.951   4.665   9.833
21887SOL     OW67557   1.825   6.853  10.860
21887SOL    HW167558   1.753   6.837  10.799
21887SOL    HW267559   1.810   6.791  10.932
21888SOL     OW67560   4.428   1.353   9.959
21888SOL    HW167561   4.419   1.340  10.054
21888SOL    HW267562   4.355   1.409   9.936
21889SOL     OW67563   6.356   2.132   8.604
21889SOL    HW167564   6.447   2.106   8.593
21889SOL    HW267565   6.360   2.228   8.614
21890SOL     OW67566   2.093  11.521   5.868
21890SOL    HW167567   2.141  11.520   5.785
21890SOL    HW267568   2.064  11.612   5.877
21891SOL     OW67569   1.575  13.660   0.790
21891SOL    HW167570   1.483  13.659   0.763
21891SOL    HW267571   1.589  13.748   0.824
21892SOL     OW67572   3.553  13.399   1.412
21892SOL    HW167573   3.643  13.372   1.428
21892SOL    HW267574   3.507  13.317   1.394
21893SOL     OW67575  10.233  13.214   9.356
21893SOL    HW167576  10.214  13.191   9.446
21893SOL    HW267577  10.311  13.164   9.334
21894SOL     OW67578  12.960   5.857  11.702
21894SOL    HW167579  12.955   5.864  11.606
21894SOL    HW267580  12.960   5.948  11.732
21895SOL     OW67581   1.426   2.526   4.286
21895SOL    HW167582   1.419   2.443   4.334
21895SOL    HW267583   1.344   2.571   4.306
21896SOL     OW67584   4.063  13.282  13.092
21896SOL    HW167585   4.117  13.240  13.024
21896SOL    HW267586   4.049  13.213  13.157
21897SOL     OW67587  12.284  11.671   0.906
21897SOL    HW167588  12.254  11.749   0.858
21897SOL    HW267589  12.377  11.665   0.886
21898SOL     OW67590  12.806  12.887   9.462
21898SOL    HW167591  12.772  12.800   9.483
21898SOL    HW267592  12.846  12.877   9.375
21899SOL     OW67593  14.431  10.951   3.479
21899SOL    HW167594  14.389  11.034   3.499
21899SOL    HW267595  14.439  10.907   3.564
21900SOL     OW67596   3.481   1.421   2.876
21900SOL    HW167597   3.575   1.437   2.866
21900SOL    HW267598   3.454   1.380   2.794
21901SOL     OW67599  13.284   4.302   5.998
21901SOL    HW167600  13.278   4.397   6.009
21901SOL    HW267601  13.366   4.278   6.041
21902SOL     OW67602   8.093   7.317   0.969
21902SOL    HW167603   8.185   7.292   0.957
21902SOL    HW267604   8.043   7.241   0.940
21903SOL     OW67605   0.271   1.246  14.274
21903SOL    HW167606   0.341   1.187  14.301
21903SOL    HW267607   0.202   1.235  14.339
21904SOL     OW67608  14.413   0.768   0.151
21904SOL    HW167609  14.369   0.851   0.135
21904SOL    HW267610  14.471   0.784   0.225
21905SOL     OW67611  10.439  13.490  11.130
21905SOL    HW167612  10.498  13.421  11.100
21905SOL    HW267613  10.498  13.562  11.155
21906SOL     OW67614  12.517  11.149   6.860
21906SOL    HW167615  12.583  11.208   6.824
21906SOL    HW267616  12.521  11.164   6.955
21907SOL     OW67617   0.201   6.258  14.480
21907SOL    HW167618   0.146   6.333  14.458
21907SOL    HW267619   0.147   6.181  14.460
21908SOL     OW67620   6.868   0.962   9.831
21908SOL    HW167621   6.782   0.992   9.801
21908SOL    HW267622   6.919   1.043   9.840
21909SOL     OW67623   2.284   6.187  10.929
21909SOL    HW167624   2.276   6.145  11.014
21909SOL    HW267625   2.194   6.205  10.902
21910SOL     OW67626   0.912   1.972  11.702
21910SOL    HW167627   0.883   2.029  11.773
21910SOL    HW267628   0.841   1.910  11.690
21911SOL     OW67629   3.748   6.158   9.750
21911SOL    HW167630   3.776   6.102   9.678
21911SOL    HW267631   3.814   6.145   9.818
21912SOL     OW67632   4.346   7.589   5.845
21912SOL    HW167633   4.440   7.573   5.854
21912SOL    HW267634   4.306   7.536   5.914
21913SOL     OW67635  12.893  13.570  14.854
21913SOL    HW167636  12.805  13.591  14.825
21913SOL    HW267637  12.937  13.538  14.775
21914SOL     OW67638  11.430  14.466   8.288
21914SOL    HW167639  11.398  14.382   8.321
21914SOL    HW267640  11.525  14.460   8.295
21915SOL     OW67641   0.192   0.801   8.149
21915SOL    HW167642   0.128   0.871   8.166
21915SOL    HW267643   0.157   0.725   8.195
21916SOL     OW67644   5.795  12.506  13.331
21916SOL    HW167645   5.819  12.471  13.245
21916SOL    HW267646   5.827  12.596  13.331
21917SOL     OW67647   5.057   3.046   9.256
21917SOL    HW167648   5.148   3.017   9.257
21917SOL    HW267649   5.011   2.985   9.313
21918SOL     OW67650   7.378   7.857   1.915
21918SOL    HW167651   7.406   7.808   1.992
21918SOL    HW267652   7.460   7.890   1.877
21919SOL     OW67653  13.096   6.788   5.342
21919SOL    HW167654  13.110   6.861   5.282
21919SOL    HW267655  13.045   6.725   5.291
21920SOL     OW67656   2.406   1.811  11.632
21920SOL    HW167657   2.449   1.894  11.652
21920SOL    HW267658   2.313   1.827  11.647
21921SOL     OW67659   0.275   8.000  10.459
21921SOL    HW167660   0.217   7.944  10.510
21921SOL    HW267661   0.320   8.054  10.525
21922SOL     OW67662   8.426  11.950   6.441
21922SOL    HW167663   8.341  11.971   6.478
21922SOL    HW267664   8.460  11.879   6.496
21923SOL     OW67665  11.210  10.173   2.392
21923SOL    HW167666  11.167  10.213   2.317
21923SOL    HW267667  11.166  10.212   2.468
21924SOL     OW67668  12.387  10.448   0.017
21924SOL    HW167669  12.441  10.380   0.057
21924SOL    HW267670  12.322  10.399  14.836
21925SOL     OW67671   8.440   1.942   5.631
21925SOL    HW167672   8.439   1.983   5.718
21925SOL    HW267673   8.385   1.864   5.642
21926SOL     OW67674  11.456   5.845  12.960
21926SOL    HW167675  11.424   5.804  12.879
21926SOL    HW267676  11.456   5.774  13.024
21927SOL     OW67677   4.665  11.623   3.206
21927SOL    HW167678   4.710  11.649   3.286
21927SOL    HW267679   4.736  11.598   3.146
21928SOL     OW67680   8.368   4.035   2.071
21928SOL    HW167681   8.441   3.975   2.089
21928SOL    HW267682   8.317   4.036   2.152
21929SOL     OW67683   6.326   3.522   6.413
21929SOL    HW167684   6.293   3.490   6.329
21929SOL    HW267685   6.343   3.443   6.464
21930SOL     OW67686   8.881   0.128  10.212
21930SOL    HW167687   8.877   0.217  10.177
21930SOL    HW267688   8.816   0.127  10.282
21931SOL     OW67689  11.830   8.260  12.598
21931SOL    HW167690  11.772   8.208  12.543
21931SOL    HW267691  11.913   8.212  12.597
21932SOL     OW67692   7.549   5.076   6.828
21932SOL    HW167693   7.468   5.121   6.850
21932SOL    HW267694   7.524   4.984   6.821
21933SOL     OW67695   9.373  11.643   5.067
21933SOL    HW167696   9.420  11.560   5.072
21933SOL    HW267697   9.385  11.673   4.977
21934SOL     OW67698  11.761   5.136  13.789
21934SOL    HW167699  11.801   5.061  13.833
21934SOL    HW267700  11.791   5.129  13.698
21935SOL     OW67701  11.338  11.661  12.836
21935SOL    HW167702  11.391  11.727  12.791
21935SOL    HW267703  11.277  11.711  12.889
21936SOL     OW67704   1.392   1.519   3.923
21936SOL    HW167705   1.334   1.546   3.853
21936SOL    HW267706   1.475   1.499   3.879
21937SOL     OW67707   7.982  11.122  13.907
21937SOL    HW167708   8.013  11.184  13.841
21937SOL    HW267709   8.043  11.131  13.980
21938SOL     OW67710  10.685   1.150   1.467
21938SOL    HW167711  10.662   1.128   1.557
21938SOL    HW267712  10.771   1.191   1.473
21939SOL     OW67713  10.544   8.427   4.552
21939SOL    HW167714  10.500   8.392   4.474
21939SOL    HW267715  10.637   8.408   4.538
21940SOL     OW67716   9.687  14.249   4.396
21940SOL    HW167717   9.746  14.176   4.377
21940SOL    HW267718   9.711  14.316   4.331
21941SOL     OW67719  10.331   3.413  11.793
21941SOL    HW167720  10.331   3.423  11.698
21941SOL    HW267721  10.245   3.376  11.813
21942SOL     OW67722  11.444   0.214  14.317
21942SOL    HW167723  11.398   0.130  14.317
21942SOL    HW267724  11.537   0.190  14.317
21943SOL     OW67725   0.031   6.536   7.413
21943SOL    HW167726   0.098   6.598   7.387
21943SOL    HW267727   0.067   6.490   7.489
21944SOL     OW67728  12.125  14.298   5.468
21944SOL    HW167729  12.170  14.304   5.552
21944SOL    HW267730  12.147  14.211   5.436
21945SOL     OW67731   0.186   4.822  11.574
21945SOL    HW167732   0.273   4.832  11.535
21945SOL    HW267733   0.195   4.857  11.662
21946SOL     OW67734   1.455  14.128   1.964
21946SOL    HW167735   1.505  14.063   2.013
21946SOL    HW267736   1.503  14.138   1.881
21947SOL     OW67737   8.393   2.335   4.266
21947SOL    HW167738   8.488   2.331   4.258
21947SOL    HW267739   8.377   2.367   4.355
21948SOL     OW67740   6.618   2.029   0.795
21948SOL    HW167741   6.612   1.934   0.806
21948SOL    HW267742   6.564   2.065   0.865
21949SOL     OW67743   2.588   7.656   3.531
21949SOL    HW167744   2.650   7.725   3.553
21949SOL    HW267745   2.537   7.642   3.611
21950SOL     OW67746   8.793   0.372  12.624
21950SOL    HW167747   8.826   0.461  12.642
21950SOL    HW267748   8.805   0.325  12.707
21951SOL     OW67749  11.658  10.571   1.065
21951SOL    HW167750  11.574  10.531   1.088
21951SOL    HW267751  11.633  10.646   1.010
21952SOL     OW67752   2.845   0.645   9.016
21952SOL    HW167753   2.787   0.569   9.011
21952SOL    HW267754   2.929   0.610   9.044
21953SOL     OW67755  11.328   4.796   8.594
21953SOL    HW167756  11.376   4.715   8.579
21953SOL    HW267757  11.269   4.803   8.519
21954SOL     OW67758  11.269   4.000   7.058
21954SOL    HW167759  11.259   4.078   7.113
21954SOL    HW267760  11.294   4.034   6.973
21955SOL     OW67761   2.893   4.184   6.380
21955SOL    HW167762   2.954   4.138   6.438
21955SOL    HW267763   2.820   4.123   6.369
21956SOL     OW67764   6.843   5.784   1.893
21956SOL    HW167765   6.921   5.840   1.891
21956SOL    HW267766   6.792   5.818   1.967
21957SOL     OW67767   7.212   3.780   5.314
21957SOL    HW167768   7.296   3.819   5.289
21957SOL    HW267769   7.160   3.853   5.346
21958SOL     OW67770   8.814   2.720   6.599
21958SOL    HW167771   8.908   2.725   6.612
21958SOL    HW267772   8.777   2.780   6.663
21959SOL     OW67773   8.684   8.048   1.210
21959SOL    HW167774   8.779   8.037   1.203
21959SOL    HW267775   8.648   7.970   1.168
21960SOL     OW67776  10.560   0.409   9.795
21960SOL    HW167777  10.537   0.359   9.717
21960SOL    HW267778  10.522   0.359   9.868
21961SOL     OW67779   3.658   7.968   3.776
21961SOL    HW167780   3.723   7.947   3.843
21961SOL    HW267781   3.574   7.951   3.818
21962SOL     OW67782   0.102  10.638   5.921
21962SOL    HW167783   0.184  10.592   5.904
21962SOL    HW267784   0.113  10.676   6.008
21963SOL     OW67785   6.234   2.804   7.875
21963SOL    HW167786   6.169   2.738   7.897
21963SOL    HW267787   6.186   2.887   7.879
21964SOL     OW67788   9.402  14.258   5.820
21964SOL    HW167789   9.450  14.267   5.738
21964SOL    HW267790   9.350  14.179   5.808
21965SOL     OW67791  10.217  11.885  12.516
21965SOL    HW167792  10.263  11.877  12.600
21965SOL    HW267793  10.277  11.845  12.453
21966SOL     OW67794  11.625   6.563  13.160
21966SOL    HW167795  11.585   6.538  13.244
21966SOL    HW267796  11.551   6.576  13.101
21967SOL     OW67797  14.210   0.765  12.951
21967SOL    HW167798  14.129   0.720  12.929
21967SOL    HW267799  14.181   0.848  12.989
21968SOL     OW67800   0.028  10.530   9.171
21968SOL    HW167801   0.023  10.576   9.088
21968SOL    HW267802  14.807  10.523   9.200
21969SOL     OW67803  11.133   0.407   2.962
21969SOL    HW167804  11.172   0.490   2.934
21969SOL    HW267805  11.193   0.374   3.029
21970SOL     OW67806   7.334   1.594   7.303
21970SOL    HW167807   7.349   1.669   7.359
21970SOL    HW267808   7.345   1.627   7.214
21971SOL     OW67809   2.619   1.665   2.167
21971SOL    HW167810   2.608   1.759   2.178
21971SOL    HW267811   2.711   1.654   2.142
21972SOL     OW67812   6.473  14.147  12.957
21972SOL    HW167813   6.485  14.233  12.997
21972SOL    HW267814   6.512  14.156  12.870
21973SOL     OW67815  14.440   8.792   9.127
21973SOL    HW167816  14.437   8.716   9.185
21973SOL    HW267817  14.350   8.804   9.097
21974SOL     OW67818   9.908  12.385   4.209
21974SOL    HW167819   9.832  12.404   4.154
21974SOL    HW267820   9.963  12.329   4.154
21975SOL     OW67821  11.845   5.319   3.327
21975SOL    HW167822  11.808   5.402   3.357
21975SOL    HW267823  11.862   5.334   3.234
21976SOL     OW67824  12.719   1.969  14.656
21976SOL    HW167825  12.644   1.986  14.713
21976SOL    HW267826  12.733   2.051  14.609
21977SOL     OW67827   0.083   1.027  13.589
21977SOL    HW167828   0.123   1.060  13.669
21977SOL    HW267829   0.153   1.032  13.524
21978SOL     OW67830   7.484   8.755   8.862
21978SOL    HW167831   7.524   8.753   8.949
21978SOL    HW267832   7.418   8.824   8.868
21979SOL     OW67833  12.704   1.218   1.250
21979SOL    HW167834  12.719   1.152   1.182
21979SOL    HW267835  12.735   1.178   1.331
21980SOL     OW67836  13.631   4.116   3.397
21980SOL    HW167837  13.716   4.157   3.378
21980SOL    HW267838  13.606   4.151   3.482
21981SOL     OW67839   9.346  10.872  13.795
21981SOL    HW167840   9.436  10.860  13.764
21981SOL    HW267841   9.302  10.918  13.723
21982SOL     OW67842   3.498  14.752   3.470
21982SOL    HW167843   3.514  14.678   3.529
21982SOL    HW267844   3.413  14.733   3.430
21983SOL     OW67845  11.069   8.048  14.088
21983SOL    HW167846  11.023   8.131  14.091
21983SOL    HW267847  11.162   8.071  14.096
21984SOL     OW67848   8.069  13.075   8.828
21984SOL    HW167849   7.975  13.056   8.824
21984SOL    HW267850   8.083  13.109   8.917
21985SOL     OW67851   0.176  14.318   4.067
21985SOL    HW167852   0.241  14.252   4.090
21985SOL    HW267853   0.225  14.401   4.065
21986SOL     OW67854  13.147   9.348   5.432
21986SOL    HW167855  13.226   9.393   5.464
21986SOL    HW267856  13.173   9.256   5.425
21987SOL     OW67857  10.943   8.710   9.368
21987SOL    HW167858  10.909   8.681   9.452
21987SOL    HW267859  10.865   8.726   9.314
21988SOL     OW67860   1.635  11.595   0.970
21988SOL    HW167861   1.650  11.629   1.058
21988SOL    HW267862   1.722  11.569   0.939
21989SOL     OW67863   6.435   9.788   7.208
21989SOL    HW167864   6.434   9.698   7.178
21989SOL    HW267865   6.526   9.805   7.230
21990SOL     OW67866  13.503   5.339   4.386
21990SOL    HW167867  13.477   5.360   4.476
21990SOL    HW267868  13.506   5.243   4.384
21991SOL     OW67869   9.135  11.586   2.594
21991SOL    HW167870   9.113  11.610   2.504
21991SOL    HW267871   9.066  11.627   2.647
21992SOL     OW67872   2.143   0.020   7.874
21992SOL    HW167873   2.218   0.078   7.876
21992SOL    HW267874   2.178  14.803   7.892
21993SOL     OW67875   6.032   8.478   5.546
21993SOL    HW167876   5.974   8.495   5.472
21993SOL    HW267877   6.010   8.546   5.610
21994SOL     OW67878  11.365  13.150   4.580
21994SOL    HW167879  11.306  13.112   4.645
21994SOL    HW267880  11.383  13.079   4.519
21995SOL     OW67881   5.771  13.540   9.030
21995SOL    HW167882   5.842  13.491   8.988
21995SOL    HW267883   5.752  13.611   8.968
21996SOL     OW67884  12.520   4.677   7.986
21996SOL    HW167885  12.564   4.746   8.037
21996SOL    HW267886  12.542   4.596   8.032
21997SOL     OW67887  14.001  12.523   3.298
21997SOL    HW167888  13.956  12.571   3.229
21997SOL    HW267889  14.082  12.572   3.314
21998SOL     OW67890   9.919   3.523  11.720
21998SOL    HW167891   9.910   3.473  11.639
21998SOL    HW267892   9.984   3.591  11.699
21999SOL     OW67893   3.152   0.591  11.183
21999SOL    HW167894   3.203   0.519  11.147
21999SOL    HW267895   3.173   0.591  11.277
22000SOL     OW67896   4.461   5.445   6.044
22000SOL    HW167897   4.529   5.481   6.101
22000SOL    HW267898   4.379   5.468   6.088
22001SOL     OW67899  10.457  13.363   1.229
22001SOL    HW167900  10.366  13.391   1.236
22001SOL    HW267901  10.499  13.428   1.173
22002SOL     OW67902  10.121   2.689  12.499
22002SOL    HW167903  10.181   2.682  12.574
22002SOL    HW267904  10.046   2.737  12.533
22003SOL     OW67905  10.888   9.985   0.319
22003SOL    HW167906  10.852   9.932   0.390
22003SOL    HW267907  10.819  10.048   0.299
22004SOL     OW67908   8.711  13.327   4.330
22004SOL    HW167909   8.679  13.261   4.270
22004SOL    HW267910   8.796  13.353   4.294
22005SOL     OW67911   7.277   1.969  14.698
22005SOL    HW167912   7.339   1.941  14.765
22005SOL    HW267913   7.285   1.903  14.629
22006SOL     OW67914  13.619   1.775  13.222
22006SOL    HW167915  13.632   1.832  13.145
22006SOL    HW267916  13.614   1.836  13.296
22007SOL     OW67917   8.010  11.827  13.065
22007SOL    HW167918   7.934  11.778  13.096
22007SOL    HW267919   8.021  11.798  12.974
22008SOL     OW67920   6.635   0.884   9.440
22008SOL    HW167921   6.616   0.832   9.518
22008SOL    HW267922   6.563   0.863   9.380
22009SOL     OW67923   3.381   6.539   5.284
22009SOL    HW167924   3.450   6.509   5.226
22009SOL    HW267925   3.424   6.604   5.340
22010SOL     OW67926  13.051   3.371  12.594
22010SOL    HW167927  13.053   3.384  12.499
22010SOL    HW267928  13.125   3.422  12.627
22011SOL     OW67929  11.473  13.454   3.488
22011SOL    HW167930  11.534  13.516   3.446
22011SOL    HW267931  11.502  13.451   3.579
22012SOL     OW67932   0.828   1.527  12.816
22012SOL    HW167933   0.885   1.478  12.875
22012SOL    HW267934   0.740   1.519  12.855
22013SOL     OW67935   2.393  13.762   8.751
22013SOL    HW167936   2.352  13.708   8.683
22013SOL    HW267937   2.470  13.800   8.709
22014SOL     OW67938  10.366   9.183   9.932
22014SOL    HW167939  10.338   9.249   9.995
22014SOL    HW267940  10.385   9.232   9.852
22015SOL     OW67941   1.021   7.743   2.600
22015SOL    HW167942   1.073   7.677   2.644
22015SOL    HW267943   1.074   7.769   2.524
22016SOL     OW67944   6.299   6.345   1.402
22016SOL    HW167945   6.352   6.293   1.462
22016SOL    HW267946   6.292   6.431   1.445
22017SOL     OW67947  13.437   5.308  10.604
22017SOL    HW167948  13.470   5.377  10.660
22017SOL    HW267949  13.394   5.247  10.664
22018SOL     OW67950   2.857  13.805  13.708
22018SOL    HW167951   2.920  13.747  13.664
22018SOL    HW267952   2.784  13.810  13.647
22019SOL     OW67953   9.320   8.683   3.132
22019SOL    HW167954   9.255   8.684   3.061
22019SOL    HW267955   9.348   8.592   3.137
22020SOL     OW67956   7.994   5.336   2.159
22020SOL    HW167957   7.928   5.267   2.166
22020SOL    HW267958   8.075   5.289   2.135
22021SOL     OW67959  11.214  12.219   8.744
22021SOL    HW167960  11.228  12.314   8.746
22021SOL    HW267961  11.134  12.207   8.694
22022SOL     OW67962   9.219   6.168   2.229
22022SOL    HW167963   9.222   6.147   2.322
22022SOL    HW267964   9.134   6.209   2.216
22023SOL     OW67965   9.402   4.282  12.892
22023SOL    HW167966   9.403   4.241  12.978
22023SOL    HW267967   9.492   4.276  12.862
22024SOL     OW67968   2.090   8.086   0.881
22024SOL    HW167969   2.118   8.025   0.813
22024SOL    HW267970   2.008   8.122   0.848
22025SOL     OW67971  12.213  13.606  12.642
22025SOL    HW167972  12.225  13.699  12.625
22025SOL    HW267973  12.204  13.600  12.737
22026SOL     OW67974   8.989  12.545   8.809
22026SOL    HW167975   9.028  12.460   8.789
22026SOL    HW267976   9.064  12.604   8.814
22027SOL     OW67977  14.550  12.980   7.691
22027SOL    HW167978  14.510  13.066   7.678
22027SOL    HW267979  14.631  12.983   7.640
22028SOL     OW67980   0.302  14.554  14.373
22028SOL    HW167981   0.248  14.632  14.372
22028SOL    HW267982   0.290  14.517  14.461
22029SOL     OW67983   3.576   8.882  11.014
22029SOL    HW167984   3.658   8.847  10.979
22029SOL    HW267985   3.595   8.899  11.106
22030SOL     OW67986  11.468   7.852   8.446
22030SOL    HW167987  11.410   7.857   8.371
22030SOL    HW267988  11.540   7.796   8.417
22031SOL     OW67989   7.272  10.234   9.311
22031SOL    HW167990   7.317  10.209   9.391
22031SOL    HW267991   7.179  10.221   9.331
22032SOL     OW67992   7.058   1.927   4.179
22032SOL    HW167993   7.052   1.858   4.245
22032SOL    HW267994   7.003   1.997   4.213
22033SOL     OW67995   3.664  10.451   4.762
22033SOL    HW167996   3.677  10.365   4.724
22033SOL    HW267997   3.710  10.448   4.846
22034SOL     OW67998  11.634   3.292   3.752
22034SOL    HW167999  11.675   3.224   3.805
22034SOL    HW268000  11.564   3.248   3.705
22035SOL     OW68001   9.606  10.827   9.644
22035SOL    HW168002   9.533  10.888   9.633
22035SOL    HW268003   9.623  10.826   9.738
22036SOL     OW68004   5.985   3.848  11.436
22036SOL    HW168005   6.049   3.828  11.504
22036SOL    HW268006   5.948   3.932  11.462
22037SOL     OW68007  11.556   2.373  12.161
22037SOL    HW168008  11.648   2.354  12.181
22037SOL    HW268009  11.529   2.301  12.104
22038SOL     OW68010  13.774   8.817  10.164
22038SOL    HW168011  13.684   8.796  10.137
22038SOL    HW268012  13.811   8.732  10.190
22039SOL     OW68013   9.607   2.712  13.104
22039SOL    HW168014   9.613   2.617  13.112
22039SOL    HW268015   9.619   2.745  13.193
22040SOL     OW68016   0.832   9.459   0.767
22040SOL    HW168017   0.914   9.505   0.752
22040SOL    HW268018   0.851   9.400   0.840
22041SOL     OW68019  11.676   4.654   8.828
22041SOL    HW168020  11.711   4.672   8.916
22041SOL    HW268021  11.736   4.590   8.791
22042SOL     OW68022   1.381  14.380   6.348
22042SOL    HW168023   1.456  14.367   6.291
22042SOL    HW268024   1.316  14.424   6.293
22043SOL     OW68025   2.107   0.732   6.475
22043SOL    HW168026   2.115   0.727   6.380
22043SOL    HW268027   2.013   0.741   6.491
22044SOL     OW68028   2.971  14.845   7.870
22044SOL    HW168029   2.878  14.857   7.893
22044SOL    HW268030   3.018   0.025   7.938
22045SOL     OW68031   3.281   9.485   9.858
22045SOL    HW168032   3.242   9.482   9.771
22045SOL    HW268033   3.375   9.480   9.842
22046SOL     OW68034   4.036  10.756   8.064
22046SOL    HW168035   3.992  10.699   8.001
22046SOL    HW268036   4.113  10.706   8.091
22047SOL     OW68037   2.506   9.012  12.837
22047SOL    HW168038   2.534   9.090  12.788
22047SOL    HW268039   2.432   9.042  12.889
22048SOL     OW68040  12.122   1.531   8.247
22048SOL    HW168041  12.160   1.480   8.319
22048SOL    HW268042  12.028   1.526   8.261
22049SOL     OW68043   1.083   7.623   2.201
22049SOL    HW168044   0.998   7.629   2.157
22049SOL    HW268045   1.111   7.714   2.210
22050SOL     OW68046   6.356  12.227   8.592
22050SOL    HW168047   6.431  12.192   8.640
22050SOL    HW268048   6.281  12.180   8.628
22051SOL     OW68049   7.296  14.363  13.263
22051SOL    HW168050   7.364  14.429  13.264
22051SOL    HW268051   7.292  14.333  13.172
22052SOL     OW68052  10.297  10.174  13.120
22052SOL    HW168053  10.204  10.165  13.099
22052SOL    HW268054  10.316  10.101  13.179
22053SOL     OW68055   1.296   5.667  11.677
22053SOL    HW168056   1.225   5.656  11.614
22053SOL    HW268057   1.270   5.741  11.731
22054SOL     OW68058   3.837   7.522  11.260
22054SOL    HW168059   3.905   7.587  11.241
22054SOL    HW268060   3.804   7.546  11.347
22055SOL     OW68061   1.805  11.026  13.493
22055SOL    HW168062   1.774  10.967  13.424
22055SOL    HW268063   1.836  10.967  13.562
22056SOL     OW68064  12.596   4.268   2.497
22056SOL    HW168065  12.669   4.268   2.434
22056SOL    HW268066  12.588   4.177   2.524
22057SOL     OW68067   5.418  12.839   7.857
22057SOL    HW168068   5.438  12.749   7.883
22057SOL    HW268069   5.457  12.849   7.770
22058SOL     OW68070   4.927   3.244  12.215
22058SOL    HW168071   4.850   3.199  12.248
22058SOL    HW268072   4.910   3.256  12.121
22059SOL     OW68073  14.485   6.800   5.901
22059SOL    HW168074  14.487   6.806   5.805
22059SOL    HW268075  14.477   6.891   5.931
22060SOL     OW68076   2.813  11.327  11.781
22060SOL    HW168077   2.858  11.314  11.864
22060SOL    HW268078   2.755  11.402  11.796
22061SOL     OW68079  12.187  10.053   6.986
22061SOL    HW168080  12.232  10.086   7.064
22061SOL    HW268081  12.140   9.975   7.016
22062SOL     OW68082   0.614   1.415   2.114
22062SOL    HW168083   0.660   1.333   2.100
22062SOL    HW268084   0.527   1.390   2.143
22063SOL     OW68085  12.470   5.830  14.694
22063SOL    HW168086  12.491   5.905  14.751
22063SOL    HW268087  12.483   5.863  14.605
22064SOL     OW68088   4.267   6.303  14.787
22064SOL    HW168089   4.291   6.231  14.845
22064SOL    HW268090   4.340   6.309  14.725
22065SOL     OW68091   1.478   8.568  14.646
22065SOL    HW168092   1.404   8.601  14.697
22065SOL    HW268093   1.512   8.495  14.697
22066SOL     OW68094  12.753   0.353   2.872
22066SOL    HW168095  12.816   0.341   2.942
22066SOL    HW268096  12.669   0.328   2.911
22067SOL     OW68097   5.156   0.064  12.997
22067SOL    HW168098   5.084   0.106  13.044
22067SOL    HW268099   5.235   0.093  13.043
22068SOL     OW68100   3.221  11.890  10.173
22068SOL    HW168101   3.252  11.944  10.246
22068SOL    HW268102   3.134  11.862  10.199
22069SOL     OW68103   6.152  12.519   2.658
22069SOL    HW168104   6.216  12.481   2.718
22069SOL    HW268105   6.169  12.478   2.574
22070SOL     OW68106   5.517  13.057   7.665
22070SOL    HW168107   5.431  13.090   7.640
22070SOL    HW268108   5.518  12.966   7.634
22071SOL     OW68109   7.558  14.795  11.673
22071SOL    HW168110   7.508   0.000  11.640
22071SOL    HW268111   7.511  14.719  11.638
22072SOL     OW68112   2.288   6.563   7.272
22072SOL    HW168113   2.362   6.577   7.331
22072SOL    HW268114   2.251   6.650   7.258
22073SOL     OW68115   5.436  11.373   8.903
22073SOL    HW168116   5.453  11.441   8.967
22073SOL    HW268117   5.345  11.388   8.875
22074SOL     OW68118  13.188   2.268  12.001
22074SOL    HW168119  13.134   2.215  12.059
22074SOL    HW268120  13.178   2.227  11.915
22075SOL     OW68121   1.809   5.270   1.397
22075SOL    HW168122   1.804   5.348   1.341
22075SOL    HW268123   1.817   5.197   1.335
22076SOL     OW68124   4.427   3.523   3.817
22076SOL    HW168125   4.414   3.496   3.908
22076SOL    HW268126   4.481   3.454   3.779
22077SOL     OW68127  11.786   1.558   5.463
22077SOL    HW168128  11.732   1.606   5.526
22077SOL    HW268129  11.749   1.470   5.462
22078SOL     OW68130  13.949   1.971   6.411
22078SOL    HW168131  13.978   1.906   6.475
22078SOL    HW268132  14.025   2.028   6.400
22079SOL     OW68133   1.084  13.537   9.067
22079SOL    HW168134   1.086  13.457   9.120
22079SOL    HW268135   1.174  13.547   9.035
22080SOL     OW68136   5.415   0.582   9.315
22080SOL    HW168137   5.417   0.666   9.269
22080SOL    HW268138   5.471   0.524   9.262
22081SOL     OW68139  14.459  13.637  12.892
22081SOL    HW168140  14.509  13.557  12.904
22081SOL    HW268141  14.505  13.702  12.945
22082SOL     OW68142   3.759   3.575   5.797
22082SOL    HW168143   3.735   3.483   5.804
22082SOL    HW268144   3.758   3.607   5.887
22083SOL     OW68145   6.520   6.926  11.255
22083SOL    HW168146   6.467   7.004  11.272
22083SOL    HW268147   6.608   6.960  11.238
22084SOL     OW68148   4.956   7.406   9.970
22084SOL    HW168149   4.914   7.490   9.987
22084SOL    HW268150   5.050   7.423   9.979
22085SOL     OW68151   3.495   1.747   2.938
22085SOL    HW168152   3.535   1.682   2.880
22085SOL    HW268153   3.565   1.776   2.995
22086SOL     OW68154   9.095   1.090   0.625
22086SOL    HW168155   9.180   1.053   0.651
22086SOL    HW268156   9.039   1.014   0.614
22087SOL     OW68157   4.464  11.262   4.130
22087SOL    HW168158   4.505  11.228   4.050
22087SOL    HW268159   4.516  11.339   4.153
22088SOL     OW68160   3.194  13.030  12.103
22088SOL    HW168161   3.189  13.125  12.114
22088SOL    HW268162   3.107  13.005  12.072
22089SOL     OW68163   1.710   6.274   0.429
22089SOL    HW168164   1.781   6.315   0.477
22089SOL    HW268165   1.633   6.288   0.485
22090SOL     OW68166  10.124   5.506   9.404
22090SOL    HW168167  10.214   5.473   9.406
22090SOL    HW268168  10.121   5.562   9.327
22091SOL     OW68169  13.984   8.125   4.173
22091SOL    HW168170  13.958   8.132   4.265
22091SOL    HW268171  13.936   8.196   4.130
22092SOL     OW68172  14.080  11.888   4.837
22092SOL    HW168173  14.003  11.944   4.832
22092SOL    HW268174  14.125  11.902   4.754
22093SOL     OW68175   8.843   2.644  14.317
22093SOL    HW168176   8.790   2.644  14.398
22093SOL    HW268177   8.912   2.707  14.334
22094SOL     OW68178   0.212   4.061  10.304
22094SOL    HW168179   0.189   3.980  10.258
22094SOL    HW268180   0.308   4.060  10.307
22095SOL     OW68181   9.768   0.720  10.624
22095SOL    HW168182   9.836   0.783  10.599
22095SOL    HW268183   9.796   0.637  10.586
22096SOL     OW68184   4.359  14.100   1.447
22096SOL    HW168185   4.319  14.174   1.401
22096SOL    HW268186   4.387  14.041   1.378
22097SOL     OW68187  12.353  13.787   8.730
22097SOL    HW168188  12.334  13.855   8.666
22097SOL    HW268189  12.338  13.829   8.815
22098SOL     OW68190  14.513  14.221  13.096
22098SOL    HW168191  14.519  14.301  13.044
22098SOL    HW268192  14.594  14.174  13.075
22099SOL     OW68193   5.442  12.451   4.079
22099SOL    HW168194   5.479  12.424   4.163
22099SOL    HW268195   5.470  12.384   4.018
22100SOL     OW68196  12.585  13.359  13.651
22100SOL    HW168197  12.528  13.433  13.674
22100SOL    HW268198  12.608  13.374  13.560
22101SOL     OW68199   3.965   4.248   5.294
22101SOL    HW168200   4.026   4.321   5.291
22101SOL    HW268201   3.966   4.212   5.206
22102SOL     OW68202  10.743  13.264   7.585
22102SOL    HW168203  10.714  13.175   7.606
22102SOL    HW268204  10.724  13.315   7.664
22103SOL     OW68205   6.998   8.018   7.666
22103SOL    HW168206   6.944   7.961   7.722
22103SOL    HW268207   6.967   8.106   7.685
22104SOL     OW68208   3.930  12.696   6.529
22104SOL    HW168209   3.884  12.639   6.467
22104SOL    HW268210   3.974  12.760   6.473
22105SOL     OW68211  13.142   2.164  10.760
22105SOL    HW168212  13.201   2.144  10.832
22105SOL    HW268213  13.141   2.084  10.707
22106SOL     OW68214   9.927  14.599  11.468
22106SOL    HW168215   9.847  14.611  11.521
22106SOL    HW268216   9.998  14.627  11.526
22107SOL     OW68217  13.534   8.649   6.592
22107SOL    HW168218  13.470   8.642   6.521
22107SOL    HW268219  13.528   8.565   6.638
22108SOL     OW68220   4.174   9.175  12.534
22108SOL    HW168221   4.260   9.143  12.563
22108SOL    HW268222   4.181   9.177  12.438
22109SOL     OW68223   5.879   4.939  11.720
22109SOL    HW168224   5.828   4.914  11.643
22109SOL    HW268225   5.943   4.868  11.729
22110SOL     OW68226   1.065   8.943   5.761
22110SOL    HW168227   1.004   8.877   5.729
22110SOL    HW268228   1.126   8.958   5.689
22111SOL     OW68229  13.962  11.641   4.283
22111SOL    HW168230  14.019  11.564   4.279
22111SOL    HW268231  13.884  11.610   4.330
22112SOL     OW68232   8.524  13.458   5.885
22112SOL    HW168233   8.594  13.520   5.865
22112SOL    HW268234   8.511  13.467   5.980
22113SOL     OW68235   2.545   0.334   6.983
22113SOL    HW168236   2.574   0.426   6.987
22113SOL    HW268237   2.507   0.317   7.070
22114SOL     OW68238   6.663   1.965  11.651
22114SOL    HW168239   6.576   2.004  11.659
22114SOL    HW268240   6.691   1.951  11.742
22115SOL     OW68241   5.434   6.566  11.341
22115SOL    HW168242   5.406   6.573  11.250
22115SOL    HW268243   5.506   6.628  11.349
22116SOL     OW68244  13.460   7.039  10.421
22116SOL    HW168245  13.493   7.099  10.488
22116SOL    HW268246  13.369   7.022  10.447
22117SOL     OW68247   9.932   9.459   4.562
22117SOL    HW168248   9.888   9.497   4.486
22117SOL    HW268249   9.918   9.522   4.632
22118SOL     OW68250  11.465  14.794   2.792
22118SOL    HW168251  11.531  14.835   2.735
22118SOL    HW268252  11.391  14.777   2.734
22119SOL     OW68253   5.768   7.419   2.519
22119SOL    HW168254   5.704   7.382   2.580
22119SOL    HW268255   5.777   7.510   2.545
22120SOL     OW68256  13.219  13.278  13.711
22120SOL    HW168257  13.162  13.286  13.788
22120SOL    HW268258  13.292  13.336  13.729
22121SOL     OW68259   7.816  11.432   9.030
22121SOL    HW168260   7.795  11.512   8.982
22121SOL    HW268261   7.901  11.449   9.070
22122SOL     OW68262  12.055   4.607   2.358
22122SOL    HW168263  12.145   4.640   2.364
22122SOL    HW268264  12.009   4.673   2.308
22123SOL     OW68265   8.879   8.450   4.453
22123SOL    HW168266   8.932   8.378   4.485
22123SOL    HW268267   8.858   8.426   4.363
22124SOL     OW68268  13.581  11.148  11.813
22124SOL    HW168269  13.544  11.218  11.866
22124SOL    HW268270  13.553  11.167  11.724
22125SOL     OW68271   7.684  12.332   9.550
22125SOL    HW168272   7.664  12.244   9.583
22125SOL    HW268273   7.651  12.331   9.460
22126SOL     OW68274  10.190   0.445  12.311
22126SOL    HW168275  10.224   0.358  12.333
22126SOL    HW268276  10.175   0.441  12.217
22127SOL     OW68277   5.009   5.838   0.339
22127SOL    HW168278   5.046   5.868   0.256
22127SOL    HW268279   5.069   5.871   0.406
22128SOL     OW68280  14.043   2.777  13.749
22128SOL    HW168281  14.081   2.695  13.718
22128SOL    HW268282  14.105   2.844  13.723
22129SOL     OW68283  13.185   8.379   4.456
22129SOL    HW168284  13.244   8.383   4.531
22129SOL    HW268285  13.105   8.340   4.491
22130SOL     OW68286   6.458  11.232  11.113
22130SOL    HW168287   6.493  11.219  11.201
22130SOL    HW268288   6.521  11.289  11.069
22131SOL     OW68289   4.884  12.886   6.421
22131SOL    HW168290   4.963  12.883   6.475
22131SOL    HW268291   4.826  12.946   6.467
22132SOL     OW68292   7.517  11.786   7.676
22132SOL    HW168293   7.570  11.865   7.679
22132SOL    HW268294   7.511  11.757   7.767
22133SOL     OW68295  10.641   7.466   4.258
22133SOL    HW168296  10.673   7.469   4.168
22133SOL    HW268297  10.720   7.473   4.312
22134SOL     OW68298   9.455  14.132   4.748
22134SOL    HW168299   9.547  14.119   4.770
22134SOL    HW268300   9.407  14.081   4.813
22135SOL     OW68301   3.143  12.128   5.063
22135SOL    HW168302   3.130  12.189   5.134
22135SOL    HW268303   3.094  12.165   4.989
22136SOL     OW68304  12.914   2.002   1.884
22136SOL    HW168305  12.830   1.972   1.850
22136SOL    HW268306  12.978   1.939   1.851
22137SOL     OW68307  11.313  11.162   4.746
22137SOL    HW168308  11.283  11.113   4.822
22137SOL    HW268309  11.400  11.193   4.769
22138SOL     OW68310  13.549   2.990   9.906
22138SOL    HW168311  13.635   2.966   9.940
22138SOL    HW268312  13.559   2.989   9.811
22139SOL     OW68313  13.296  12.497   4.656
22139SOL    HW168314  13.370  12.517   4.598
22139SOL    HW268315  13.325  12.422   4.707
22140SOL     OW68316   3.461  14.151   9.136
22140SOL    HW168317   3.551  14.119   9.124
22140SOL    HW268318   3.457  14.230   9.081
22141SOL     OW68319   4.866  10.170   5.088
22141SOL    HW168320   4.837  10.168   4.996
22141SOL    HW268321   4.921  10.248   5.093
22142SOL     OW68322   9.290   1.141   6.837
22142SOL    HW168323   9.383   1.131   6.818
22142SOL    HW268324   9.259   1.051   6.849
22143SOL     OW68325   2.327   9.585   1.938
22143SOL    HW168326   2.239   9.612   1.966
22143SOL    HW268327   2.387   9.639   1.988
22144SOL     OW68328   8.673   7.385   5.784
22144SOL    HW168329   8.714   7.471   5.795
22144SOL    HW268330   8.601   7.399   5.723
22145SOL     OW68331   5.428   3.890   5.973
22145SOL    HW168332   5.423   3.983   5.951
22145SOL    HW268333   5.369   3.848   5.911
22146SOL     OW68334  11.727   9.507   1.348
22146SOL    HW168335  11.738   9.510   1.443
22146SOL    HW268336  11.641   9.548   1.332
22147SOL     OW68337   8.522   7.292   7.301
22147SOL    HW168338   8.528   7.265   7.209
22147SOL    HW268339   8.448   7.242   7.336
22148SOL     OW68340   1.698   4.873   5.219
22148SOL    HW168341   1.627   4.878   5.282
22148SOL    HW268342   1.762   4.815   5.260
22149SOL     OW68343   2.636  10.879  14.439
22149SOL    HW168344   2.568  10.827  14.396
22149SOL    HW268345   2.594  10.917  14.515
22150SOL     OW68346   1.641   0.311   7.031
22150SOL    HW168347   1.671   0.291   7.120
22150SOL    HW268348   1.643   0.407   7.027
22151SOL     OW68349   9.527  13.251  13.755
22151SOL    HW168350   9.599  13.193  13.781
22151SOL    HW268351   9.515  13.309  13.829
22152SOL     OW68352   0.880   1.768   4.300
22152SOL    HW168353   0.933   1.695   4.333
22152SOL    HW268354   0.941   1.823   4.252
22153SOL     OW68355   0.791   7.569  10.704
22153SOL    HW168356   0.719   7.630  10.690
22153SOL    HW268357   0.770   7.525  10.787
22154SOL     OW68358  11.984  14.113   3.007
22154SOL    HW168359  12.044  14.185   3.024
22154SOL    HW268360  11.904  14.155   2.975
22155SOL     OW68361   0.456   8.643   4.481
22155SOL    HW168362   0.385   8.591   4.520
22155SOL    HW268363   0.495   8.584   4.416
22156SOL     OW68364  13.482   9.728   5.627
22156SOL    HW168365  13.560   9.727   5.570
22156SOL    HW268366  13.447   9.816   5.616
22157SOL     OW68367   4.564   3.718  10.122
22157SOL    HW168368   4.553   3.805  10.083
22157SOL    HW268369   4.657   3.699  10.111
22158SOL     OW68370   2.766   0.146   9.343
22158SOL    HW168371   2.715   0.222   9.316
22158SOL    HW268372   2.700   0.077   9.356
22159SOL     OW68373   7.697   8.112   3.728
22159SOL    HW168374   7.726   8.176   3.663
22159SOL    HW268375   7.697   8.028   3.681
22160SOL     OW68376  13.688   7.905  11.349
22160SOL    HW168377  13.763   7.855  11.317
22160SOL    HW268378  13.669   7.868  11.435
22161SOL     OW68379   0.887   3.776   1.534
22161SOL    HW168380   0.949   3.813   1.597
22161SOL    HW268381   0.913   3.813   1.450
22162SOL     OW68382   0.915  12.433  13.910
22162SOL    HW168383   0.884  12.491  13.841
22162SOL    HW268384   0.905  12.345  13.875
22163SOL     OW68385  10.537   3.482   7.960
22163SOL    HW168386  10.526   3.555   8.021
22163SOL    HW268387  10.534   3.404   8.016
22164SOL     OW68388  10.451  11.320   8.969
22164SOL    HW168389  10.541  11.343   8.992
22164SOL    HW268390  10.459  11.234   8.926
22165SOL     OW68391  10.972  13.303  14.480
22165SOL    HW168392  11.025  13.226  14.459
22165SOL    HW268393  10.881  13.273  14.473
22166SOL     OW68394  13.556   7.813  11.123
22166SOL    HW168395  13.572   7.861  11.204
22166SOL    HW268396  13.641   7.809  11.080
22167SOL     OW68397  14.470   3.204   7.291
22167SOL    HW168398  14.532   3.233   7.224
22167SOL    HW268399  14.384   3.227   7.256
22168SOL     OW68400   9.667   9.934   4.452
22168SOL    HW168401   9.620   9.988   4.389
22168SOL    HW268402   9.755   9.972   4.455
22169SOL     OW68403  10.369   3.359  12.883
22169SOL    HW168404  10.413   3.298  12.942
22169SOL    HW268405  10.290   3.385  12.930
22170SOL     OW68406  13.827  12.461   5.392
22170SOL    HW168407  13.734  12.438   5.383
22170SOL    HW268408  13.868  12.422   5.314
22171SOL     OW68409   5.475   9.950  12.883
22171SOL    HW168410   5.461  10.034  12.928
22171SOL    HW268411   5.477   9.973  12.790
22172SOL     OW68412   9.749   8.474  13.387
22172SOL    HW168413   9.785   8.385  13.393
22172SOL    HW268414   9.733   8.500  13.477
22173SOL     OW68415   0.932   6.169  10.506
22173SOL    HW168416   0.918   6.252  10.553
22173SOL    HW268417   0.854   6.117  10.525
22174SOL     OW68418   7.047   1.265  14.253
22174SOL    HW168419   7.011   1.333  14.196
22174SOL    HW268420   7.102   1.314  14.315
22175SOL     OW68421  10.873  14.239  11.326
22175SOL    HW168422  10.847  14.221  11.236
22175SOL    HW268423  10.954  14.288  11.318
22176SOL     OW68424   8.123   4.983   9.047
22176SOL    HW168425   8.126   5.063   8.994
22176SOL    HW268426   8.048   4.996   9.106
22177SOL     OW68427  12.439  13.301   6.791
22177SOL    HW168428  12.374  13.372   6.790
22177SOL    HW268429  12.506  13.330   6.853
22178SOL     OW68430  11.964   3.633   5.050
22178SOL    HW168431  12.025   3.683   5.104
22178SOL    HW268432  11.887   3.690   5.042
22179SOL     OW68433   8.874   3.751   8.622
22179SOL    HW168434   8.851   3.658   8.617
22179SOL    HW268435   8.790   3.797   8.617
22180SOL     OW68436   6.835   0.364   4.081
22180SOL    HW168437   6.905   0.349   4.017
22180SOL    HW268438   6.851   0.452   4.113
22181SOL     OW68439   4.617   8.946   5.838
22181SOL    HW168440   4.632   8.935   5.932
22181SOL    HW268441   4.694   8.908   5.797
22182SOL     OW68442   2.768   3.858  12.055
22182SOL    HW168443   2.725   3.776  12.079
22182SOL    HW268444   2.702   3.906  12.005
22183SOL     OW68445   7.338   8.719  13.570
22183SOL    HW168446   7.400   8.785  13.538
22183SOL    HW268447   7.315   8.749  13.658
22184SOL     OW68448  12.364  11.543   9.912
22184SOL    HW168449  12.326  11.629   9.930
22184SOL    HW268450  12.318  11.483   9.970
22185SOL     OW68451   4.753  13.270  10.154
22185SOL    HW168452   4.683  13.212  10.124
22185SOL    HW268453   4.711  13.355  10.166
22186SOL     OW68454  10.415   4.115   2.839
22186SOL    HW168455  10.458   4.033   2.863
22186SOL    HW268456  10.406   4.111   2.744
22187SOL     OW68457  11.032   1.714   0.739
22187SOL    HW168458  10.995   1.672   0.816
22187SOL    HW268459  11.003   1.661   0.665
22188SOL     OW68460   6.701   7.007  12.502
22188SOL    HW168461   6.627   7.038  12.555
22188SOL    HW268462   6.662   6.975  12.421
22189SOL     OW68463   1.056   8.428   6.937
22189SOL    HW168464   1.088   8.376   7.010
22189SOL    HW268465   1.054   8.367   6.863
22190SOL     OW68466   0.771   6.172   4.931
22190SOL    HW168467   0.741   6.186   4.841
22190SOL    HW268468   0.692   6.154   4.980
22191SOL     OW68469   5.406   1.943   9.487
22191SOL    HW168470   5.402   1.901   9.401
22191SOL    HW268471   5.495   1.980   9.490
22192SOL     OW68472  11.504  12.901   5.007
22192SOL    HW168473  11.463  12.844   4.941
22192SOL    HW268474  11.598  12.884   4.997
22193SOL     OW68475   0.452   0.906  12.097
22193SOL    HW168476   0.416   0.827  12.136
22193SOL    HW268477   0.390   0.929  12.028
22194SOL     OW68478  13.743  10.538  11.983
22194SOL    HW168479  13.752  10.521  11.890
22194SOL    HW268480  13.828  10.575  12.009
22195SOL     OW68481   2.976  10.248   0.802
22195SOL    HW168482   2.964  10.342   0.817
22195SOL    HW268483   2.967  10.209   0.889
22196SOL     OW68484   2.617  12.765   2.298
22196SOL    HW168485   2.563  12.703   2.249
22196SOL    HW268486   2.572  12.774   2.382
22197SOL     OW68487  12.879   7.144  12.988
22197SOL    HW168488  12.957   7.188  13.021
22197SOL    HW268489  12.806   7.188  13.031
22198SOL     OW68490  12.674  12.115   3.397
22198SOL    HW168491  12.736  12.182   3.424
22198SOL    HW268492  12.593  12.137   3.443
22199SOL     OW68493   2.900  12.444   4.666
22199SOL    HW168494   2.844  12.408   4.735
22199SOL    HW268495   2.840  12.493   4.610
22200SOL     OW68496   4.058   7.942  12.612
22200SOL    HW168497   4.006   7.874  12.570
22200SOL    HW268498   4.147   7.905  12.617
22201SOL     OW68499  14.863   2.941   5.936
22201SOL    HW168500   0.054   2.867   5.938
22201SOL    HW268501  14.809   2.925   5.858
22202SOL     OW68502   6.376  12.979  12.178
22202SOL    HW168503   6.291  12.936  12.170
22202SOL    HW268504   6.430  12.918  12.228
22203SOL     OW68505   0.958   2.637  11.588
22203SOL    HW168506   0.896   2.627  11.661
22203SOL    HW268507   1.044   2.625  11.628
22204SOL     OW68508   5.239   5.484   4.793
22204SOL    HW168509   5.247   5.390   4.812
22204SOL    HW268510   5.275   5.527   4.870
22205SOL     OW68511   1.273   9.671   9.278
22205SOL    HW168512   1.294   9.595   9.332
22205SOL    HW268513   1.347   9.731   9.291
22206SOL     OW68514   6.543   4.639   4.088
22206SOL    HW168515   6.505   4.725   4.074
22206SOL    HW268516   6.605   4.628   4.016
22207SOL     OW68517   5.511   9.045  11.286
22207SOL    HW168518   5.449   8.994  11.338
22207SOL    HW268519   5.594   8.999  11.296
22208SOL     OW68520  12.110   4.165   9.955
22208SOL    HW168521  12.082   4.085   9.912
22208SOL    HW268522  12.176   4.136  10.018
22209SOL     OW68523  13.330  12.085  10.561
22209SOL    HW168524  13.314  12.118  10.472
22209SOL    HW268525  13.423  12.063  10.561
22210SOL     OW68526   3.626   1.712   4.058
22210SOL    HW168527   3.624   1.773   3.984
22210SOL    HW268528   3.717   1.684   4.064
22211SOL     OW68529   1.656   4.712   9.071
22211SOL    HW168530   1.721   4.760   9.019
22211SOL    HW268531   1.697   4.627   9.086
22212SOL     OW68532  11.281   7.624   0.998
22212SOL    HW168533  11.366   7.615   0.955
22212SOL    HW268534  11.296   7.594   1.088
22213SOL     OW68535  13.871   4.899  13.622
22213SOL    HW168536  13.934   4.920  13.691
22213SOL    HW268537  13.924   4.894  13.542
22214SOL     OW68538  12.787   9.971   6.650
22214SOL    HW168539  12.878   9.986   6.675
22214SOL    HW268540  12.737  10.019   6.717
22215SOL     OW68541   1.076   4.374  14.855
22215SOL    HW168542   1.051   4.452  14.805
22215SOL    HW268543   1.009   4.309  14.832
22216SOL     OW68544   7.616   1.161   0.270
22216SOL    HW168545   7.634   1.083   0.323
22216SOL    HW268546   7.526   1.149   0.239
22217SOL     OW68547   2.876   6.699   5.684
22217SOL    HW168548   2.950   6.730   5.737
22217SOL    HW268549   2.800   6.743   5.721
22218SOL     OW68550  10.444  13.728   0.429
22218SOL    HW168551  10.381  13.710   0.499
22218SOL    HW268552  10.463  13.822   0.439
22219SOL     OW68553   9.446   7.789  12.881
22219SOL    HW168554   9.383   7.755  12.945
22219SOL    HW268555   9.465   7.714  12.825
22220SOL     OW68556   9.419   4.408  13.992
22220SOL    HW168557   9.407   4.462  14.070
22220SOL    HW268558   9.512   4.384  13.994
22221SOL     OW68559  13.939   1.808  14.560
22221SOL    HW168560  13.913   1.888  14.515
22221SOL    HW268561  13.985   1.756  14.494
22222SOL     OW68562   6.458   2.202  13.615
22222SOL    HW168563   6.429   2.143  13.684
22222SOL    HW268564   6.404   2.280  13.625
22223SOL     OW68565   6.601   7.262   1.002
22223SOL    HW168566   6.583   7.355   0.992
22223SOL    HW268567   6.615   7.231   0.912
22224SOL     OW68568  10.602   6.444   5.163
22224SOL    HW168569  10.648   6.518   5.124
22224SOL    HW268570  10.646   6.367   5.126
22225SOL     OW68571  14.316   2.388  12.969
22225SOL    HW168572  14.394   2.333  12.979
22225SOL    HW268573  14.316   2.443  13.047
22226SOL     OW68574   1.825   0.489   5.413
22226SOL    HW168575   1.846   0.402   5.446
22226SOL    HW268576   1.844   0.485   5.319
22227SOL     OW68577  14.242  10.496  13.942
22227SOL    HW168578  14.173  10.429  13.937
22227SOL    HW268579  14.312  10.455  13.992
22228SOL     OW68580   3.126   4.412   0.784
22228SOL    HW168581   3.172   4.476   0.839
22228SOL    HW268582   3.042   4.400   0.828
22229SOL     OW68583  14.744   1.663  10.212
22229SOL    HW168584  14.820   1.605  10.210
22229SOL    HW268585  14.679   1.619  10.157
22230SOL     OW68586   4.693  12.296  14.488
22230SOL    HW168587   4.768  12.295  14.428
22230SOL    HW268588   4.730  12.325  14.571
22231SOL     OW68589   7.011   1.778  14.370
22231SOL    HW168590   6.984   1.708  14.311
22231SOL    HW268591   6.962   1.762  14.451
22232SOL     OW68592  13.614  12.885   9.383
22232SOL    HW168593  13.597  12.921   9.296
22232SOL    HW268594  13.529  12.854   9.413
22233SOL     OW68595   7.568   3.919   8.350
22233SOL    HW168596   7.510   3.867   8.294
22233SOL    HW268597   7.550   4.010   8.326
22234SOL     OW68598   1.657   9.800  13.281
22234SOL    HW168599   1.705   9.882  13.276
22234SOL    HW268600   1.718   9.738  13.321
22235SOL     OW68601  11.469   9.103   4.710
22235SOL    HW168602  11.556   9.064   4.706
22235SOL    HW268603  11.441   9.089   4.801
22236SOL     OW68604   2.874   8.658   8.572
22236SOL    HW168605   2.967   8.638   8.559
22236SOL    HW268606   2.873   8.749   8.602
22237SOL     OW68607  13.905   7.207   6.284
22237SOL    HW168608  13.828   7.185   6.337
22237SOL    HW268609  13.901   7.148   6.209
22238SOL     OW68610  11.824   3.226  12.445
22238SOL    HW168611  11.917   3.209  12.455
22238SOL    HW268612  11.816   3.321  12.449
22239SOL     OW68613   5.795   7.097   0.919
22239SOL    HW168614   5.850   7.130   0.991
22239SOL    HW268615   5.764   7.176   0.875
22240SOL     OW68616  11.290   8.514  13.933
22240SOL    HW168617  11.366   8.572  13.928
22240SOL    HW268618  11.249   8.520  13.847
22241SOL     OW68619  11.379  14.443   9.338
22241SOL    HW168620  11.301  14.389   9.326
22241SOL    HW268621  11.409  14.460   9.248
22242SOL     OW68622  13.756  12.939   6.194
22242SOL    HW168623  13.760  12.930   6.289
22242SOL    HW268624  13.670  12.979   6.178
22243SOL     OW68625   7.711   7.959   4.704
22243SOL    HW168626   7.751   7.999   4.627
22243SOL    HW268627   7.620   7.944   4.680
22244SOL     OW68628  14.691   0.037   8.640
22244SOL    HW168629  14.641  14.828   8.620
22244SOL    HW268630  14.649   0.106   8.588
22245SOL     OW68631   1.606   2.763   9.069
22245SOL    HW168632   1.598   2.858   9.066
22245SOL    HW268633   1.700   2.747   9.076
22246SOL     OW68634   8.510  12.667  13.297
22246SOL    HW168635   8.572  12.668  13.225
22246SOL    HW268636   8.551  12.719  13.366
22247SOL     OW68637  12.142   3.768   5.548
22247SOL    HW168638  12.184   3.776   5.463
22247SOL    HW268639  12.119   3.675   5.556
22248SOL     OW68640   2.154   8.845   5.392
22248SOL    HW168641   2.114   8.760   5.373
22248SOL    HW268642   2.215   8.828   5.464
22249SOL     OW68643   7.194   9.691  13.114
22249SOL    HW168644   7.147   9.695  13.030
22249SOL    HW268645   7.125   9.677  13.179
22250SOL     OW68646   0.180  13.224   3.165
22250SOL    HW168647   0.173  13.187   3.253
22250SOL    HW268648   0.154  13.152   3.107
22251SOL     OW68649   8.693   1.446   2.456
22251SOL    HW168650   8.762   1.412   2.399
22251SOL    HW268651   8.614   1.445   2.402
22252SOL     OW68652  14.072   8.870  10.428
22252SOL    HW168653  14.086   8.786  10.471
22252SOL    HW268654  13.977   8.881  10.427
22253SOL     OW68655  11.268  11.378   0.898
22253SOL    HW168656  11.212  11.303   0.878
22253SOL    HW268657  11.349  11.359   0.851
22254SOL     OW68658   3.937  11.859  13.872
22254SOL    HW168659   3.991  11.886  13.946
22254SOL    HW268660   3.982  11.895  13.795
22255SOL     OW68661  12.376   7.115   5.382
22255SOL    HW168662  12.393   7.153   5.468
22255SOL    HW268663  12.433   7.038   5.378
22256SOL     OW68664   9.426  14.617  12.245
22256SOL    HW168665   9.496  14.576  12.296
22256SOL    HW268666   9.380  14.673  12.308
22257SOL     OW68667   0.192  12.330  14.248
22257SOL    HW168668   0.262  12.395  14.255
22257SOL    HW268669   0.127  12.372  14.191
22258SOL     OW68670   3.363  14.686   4.137
22258SOL    HW168671   3.298  14.625   4.104
22258SOL    HW268672   3.384  14.654   4.225
22259SOL     OW68673   7.933  12.881   8.410
22259SOL    HW168674   8.000  12.871   8.342
22259SOL    HW268675   7.914  12.792   8.438
22260SOL     OW68676  14.678   0.484   2.741
22260SOL    HW168677  14.657   0.406   2.791
22260SOL    HW268678  14.675   0.456   2.649
22261SOL     OW68679   7.426   7.307   9.389
22261SOL    HW168680   7.433   7.400   9.367
22261SOL    HW268681   7.448   7.261   9.308
22262SOL     OW68682   7.667   0.486   8.971
22262SOL    HW168683   7.635   0.499   8.882
22262SOL    HW268684   7.718   0.565   8.990
22263SOL     OW68685  13.465   6.121   1.638
22263SOL    HW168686  13.384   6.097   1.592
22263SOL    HW268687  13.455   6.214   1.657
22264SOL     OW68688   3.586   7.497   0.232
22264SOL    HW168689   3.530   7.427   0.266
22264SOL    HW268690   3.664   7.452   0.199
22265SOL     OW68691   1.328   6.049   1.818
22265SOL    HW168692   1.389   6.122   1.822
22265SOL    HW268693   1.367   5.982   1.876
22266SOL     OW68694   2.737  14.770   7.278
22266SOL    HW168695   2.823  14.789   7.241
22266SOL    HW268696   2.727  14.834   7.349
22267SOL     OW68697   4.653   8.775   7.309
22267SOL    HW168698   4.664   8.868   7.325
22267SOL    HW268699   4.715   8.755   7.239
22268SOL     OW68700  13.984  12.916   7.632
22268SOL    HW168701  14.014  12.832   7.665
22268SOL    HW268702  14.061  12.973   7.637
22269SOL     OW68703   2.041   6.212   2.877
22269SOL    HW168704   1.984   6.214   2.800
22269SOL    HW268705   2.129   6.198   2.841
22270SOL     OW68706  14.845   0.826   7.099
22270SOL    HW168707   0.028   0.747   7.094
22270SOL    HW268708  14.840   0.845   7.193
22271SOL     OW68709  10.864   6.589  12.801
22271SOL    HW168710  10.795   6.640  12.844
22271SOL    HW268711  10.915   6.654  12.752
22272SOL     OW68712   6.781   6.713  11.750
22272SOL    HW168713   6.819   6.756  11.827
22272SOL    HW268714   6.712   6.773  11.722
22273SOL     OW68715   2.572  12.287   1.410
22273SOL    HW168716   2.564  12.257   1.320
22273SOL    HW268717   2.640  12.355   1.406
22274SOL     OW68718   6.789  11.804   1.413
22274SOL    HW168719   6.794  11.799   1.317
22274SOL    HW268720   6.702  11.841   1.430
22275SOL     OW68721  11.149   1.058   1.170
22275SOL    HW168722  11.187   1.067   1.257
22275SOL    HW268723  11.224   1.044   1.112
22276SOL     OW68724   8.446  11.926   5.061
22276SOL    HW168725   8.386  11.953   5.131
22276SOL    HW268726   8.532  11.957   5.091
22277SOL     OW68727  14.853  12.493  13.740
22277SOL    HW168728  14.844  12.482  13.646
22277SOL    HW268729   0.048  12.428  13.766
22278SOL     OW68730   0.815   3.615  13.378
22278SOL    HW168731   0.865   3.690  13.349
22278SOL    HW268732   0.793   3.567  13.298
22279SOL     OW68733  13.680   0.647   4.705
22279SOL    HW168734  13.743   0.715   4.728
22279SOL    HW268735  13.601   0.671   4.753
22280SOL     OW68736   9.962  12.063   0.448
22280SOL    HW168737   9.980  12.014   0.368
22280SOL    HW268738  10.049  12.088   0.481
22281SOL     OW68739  12.652   3.790   4.179
22281SOL    HW168740  12.589   3.735   4.226
22281SOL    HW268741  12.737   3.751   4.198
22282SOL     OW68742   9.412  14.277  11.900
22282SOL    HW168743   9.385  14.340  11.832
22282SOL    HW268744   9.450  14.332  11.969
22283SOL     OW68745  12.005  11.730  14.778
22283SOL    HW168746  12.098  11.751  14.783
22283SOL    HW268747  11.998  11.669  14.704
22284SOL     OW68748   1.591  11.888   6.111
22284SOL    HW168749   1.640  11.955   6.062
22284SOL    HW268750   1.655  11.817   6.124
22285SOL     OW68751   1.448   3.584  10.863
22285SOL    HW168752   1.424   3.503  10.907
22285SOL    HW268753   1.371   3.641  10.873
22286SOL     OW68754   3.130   1.548  13.320
22286SOL    HW168755   3.117   1.461  13.283
22286SOL    HW268756   3.199   1.536  13.386
22287SOL     OW68757  10.323   8.795   7.501
22287SOL    HW168758  10.410   8.788   7.539
22287SOL    HW268759  10.268   8.741   7.558
22288SOL     OW68760  14.382   8.074  12.700
22288SOL    HW168761  14.391   8.145  12.763
22288SOL    HW268762  14.450   8.090  12.635
22289SOL     OW68763   6.010   4.188  10.899
22289SOL    HW168764   5.988   4.095  10.897
22289SOL    HW268765   6.105   4.190  10.886
22290SOL     OW68766   5.216   7.036   7.624
22290SOL    HW168767   5.152   7.000   7.563
22290SOL    HW268768   5.163   7.081   7.690
22291SOL     OW68769  12.616   8.842   3.337
22291SOL    HW168770  12.663   8.776   3.287
22291SOL    HW268771  12.552   8.878   3.276
22292SOL     OW68772   8.786   6.043   4.054
22292SOL    HW168773   8.702   6.062   4.011
22292SOL    HW268774   8.805   6.121   4.105
22293SOL     OW68775   1.845  11.924  12.688
22293SOL    HW168776   1.810  11.979  12.618
22293SOL    HW268777   1.881  11.848  12.643
22294SOL     OW68778   1.661   2.239   9.579
22294SOL    HW168779   1.642   2.238   9.485
22294SOL    HW268780   1.750   2.274   9.585
22295SOL     OW68781   3.813  14.839   2.144
22295SOL    HW168782   3.883  14.867   2.085
22295SOL    HW268783   3.858  14.792   2.214
22296SOL     OW68784   1.371  10.057  12.313
22296SOL    HW168785   1.373  10.018  12.225
22296SOL    HW268786   1.280  10.049  12.341
22297SOL     OW68787   7.324  13.065   3.588
22297SOL    HW168788   7.346  13.155   3.612
22297SOL    HW268789   7.354  13.056   3.498
22298SOL     OW68790  10.660   0.934   5.155
22298SOL    HW168791  10.692   0.855   5.111
22298SOL    HW268792  10.571   0.946   5.122
22299SOL     OW68793  10.694  14.501   3.184
22299SOL    HW168794  10.737  14.556   3.118
22299SOL    HW268795  10.605  14.537   3.191
22300SOL     OW68796   0.874   5.975   6.428
22300SOL    HW168797   0.800   5.927   6.391
22300SOL    HW268798   0.857   6.066   6.405
22301SOL     OW68799   9.618   7.964  10.296
22301SOL    HW168800   9.546   7.919  10.342
22301SOL    HW268801   9.575   8.019  10.231
22302SOL     OW68802   7.256   4.029   8.518
22302SOL    HW168803   7.304   3.950   8.542
22302SOL    HW268804   7.186   4.036   8.582
22303SOL     OW68805   2.576  12.238  13.853
22303SOL    HW168806   2.667  12.219  13.827
22303SOL    HW268807   2.545  12.157  13.892
22304SOL     OW68808   4.104   9.562  11.326
22304SOL    HW168809   4.112   9.468  11.344
22304SOL    HW268810   4.010   9.577  11.319
22305SOL     OW68811   9.673   3.966   8.291
22305SOL    HW168812   9.739   3.998   8.353
22305SOL    HW268813   9.592   4.009   8.319
22306SOL     OW68814   8.381   7.938   6.110
22306SOL    HW168815   8.295   7.971   6.137
22306SOL    HW268816   8.438   7.958   6.184
22307SOL     OW68817   7.324   9.586   1.428
22307SOL    HW168818   7.351   9.617   1.342
22307SOL    HW268819   7.393   9.616   1.487
22308SOL     OW68820   1.737   4.637  11.374
22308SOL    HW168821   1.830   4.616  11.386
22308SOL    HW268822   1.702   4.641  11.462
22309SOL     OW68823   9.348   3.596   1.214
22309SOL    HW168824   9.420   3.532   1.208
22309SOL    HW268825   9.388   3.679   1.187
22310SOL     OW68826   1.059  13.124  14.141
22310SOL    HW168827   1.079  13.218  14.140
22310SOL    HW268828   1.022  13.107  14.054
22311SOL     OW68829  13.831   3.198   3.322
22311SOL    HW168830  13.778   3.192   3.242
22311SOL    HW268831  13.837   3.291   3.340
22312SOL     OW68832  13.706  13.761  14.118
22312SOL    HW168833  13.793  13.756  14.078
22312SOL    HW268834  13.650  13.796  14.049
22313SOL     OW68835   2.836   5.352  13.230
22313SOL    HW168836   2.782   5.305  13.166
22313SOL    HW268837   2.923   5.355  13.190
22314SOL     OW68838   7.745   4.566   1.232
22314SOL    HW168839   7.776   4.586   1.144
22314SOL    HW268840   7.653   4.540   1.219
22315SOL     OW68841   3.383   5.728  10.663
22315SOL    HW168842   3.337   5.806  10.631
22315SOL    HW268843   3.475   5.748  10.652
22316SOL     OW68844   1.472   5.916  12.310
22316SOL    HW168845   1.496   5.830  12.277
22316SOL    HW268846   1.551   5.948  12.353
22317SOL     OW68847   2.423  10.757   0.181
22317SOL    HW168848   2.424  10.661   0.172
22317SOL    HW268849   2.395  10.788   0.094
22318SOL     OW68850  11.041  14.723  11.825
22318SOL    HW168851  10.985  14.649  11.849
22318SOL    HW268852  11.018  14.791  11.889
22319SOL     OW68853   5.925   4.001   7.771
22319SOL    HW168854   5.946   4.052   7.693
22319SOL    HW268855   5.989   3.930   7.771
22320SOL     OW68856   4.845   3.489   3.432
22320SOL    HW168857   4.854   3.423   3.364
22320SOL    HW268858   4.930   3.490   3.476
22321SOL     OW68859  13.688   4.978   6.985
22321SOL    HW168860  13.736   4.930   6.918
22321SOL    HW268861  13.670   5.063   6.946
22322SOL     OW68862   0.450   4.471  10.304
22322SOL    HW168863   0.371   4.423  10.280
22322SOL    HW268864   0.474   4.520  10.225
22323SOL     OW68865   5.155   6.377   3.133
22323SOL    HW168866   5.239   6.353   3.093
22323SOL    HW268867   5.130   6.301   3.185
22324SOL     OW68868   7.677  10.578  14.567
22324SOL    HW168869   7.663  10.621  14.651
22324SOL    HW268870   7.716  10.645  14.511
22325SOL     OW68871  14.082   3.156   6.435
22325SOL    HW168872  14.045   3.150   6.523
22325SOL    HW268873  14.052   3.077   6.390
22326SOL     OW68874   6.407  10.574  12.347
22326SOL    HW168875   6.440  10.650  12.300
22326SOL    HW268876   6.351  10.611  12.416
22327SOL     OW68877   3.675  14.163   6.986
22327SOL    HW168878   3.690  14.185   7.078
22327SOL    HW268879   3.638  14.075   6.988
22328SOL     OW68880  14.382   3.442   3.457
22328SOL    HW168881  14.311   3.409   3.512
22328SOL    HW268882  14.339   3.505   3.399
22329SOL     OW68883  13.189   4.107   7.907
22329SOL    HW168884  13.218   4.018   7.925
22329SOL    HW268885  13.134   4.099   7.829
22330SOL     OW68886   8.346  12.681   1.984
22330SOL    HW168887   8.433  12.691   1.947
22330SOL    HW268888   8.329  12.587   1.982
22331SOL     OW68889  10.357  13.679  13.724
22331SOL    HW168890  10.306  13.738  13.668
22331SOL    HW268891  10.382  13.732  13.799
22332SOL     OW68892  13.381   6.505   1.416
22332SOL    HW168893  13.360   6.537   1.504
22332SOL    HW268894  13.475   6.487   1.419
22333SOL     OW68895  13.890  10.130   6.726
22333SOL    HW168896  13.979  10.163   6.714
22333SOL    HW268897  13.898  10.059   6.788
22334SOL     OW68898   6.682   2.316   4.447
22334SOL    HW168899   6.754   2.368   4.483
22334SOL    HW268900   6.672   2.244   4.509
22335SOL     OW68901   7.341  12.978   5.931
22335SOL    HW168902   7.318  12.988   5.839
22335SOL    HW268903   7.321  12.886   5.951
22336SOL     OW68904   0.435   0.557   1.599
22336SOL    HW168905   0.341   0.542   1.588
22336SOL    HW268906   0.441   0.631   1.660
22337SOL     OW68907  12.108  13.439  11.624
22337SOL    HW168908  12.114  13.531  11.598
22337SOL    HW268909  12.041  13.439  11.693
22338SOL     OW68910   2.940  13.221  13.757
22338SOL    HW168911   2.927  13.126  13.767
22338SOL    HW268912   2.853  13.258  13.771
22339SOL     OW68913   4.185  14.288   9.698
22339SOL    HW168914   4.177  14.193   9.701
22339SOL    HW268915   4.136  14.314   9.620
22340SOL     OW68916   5.551   6.675   4.881
22340SOL    HW168917   5.539   6.761   4.920
22340SOL    HW268918   5.471   6.659   4.832
22341SOL     OW68919   0.755  12.345   2.791
22341SOL    HW168920   0.767  12.336   2.885
22341SOL    HW268921   0.665  12.377   2.781
22342SOL     OW68922  12.040   3.867   0.706
22342SOL    HW168923  12.041   3.896   0.615
22342SOL    HW268924  11.956   3.898   0.740
22343SOL     OW68925   0.202   2.967   2.323
22343SOL    HW168926   0.143   2.893   2.310
22343SOL    HW268927   0.162   3.016   2.395
22344SOL     OW68928   7.695   7.803  12.355
22344SOL    HW168929   7.744   7.757  12.287
22344SOL    HW268930   7.652   7.733  12.404
22345SOL     OW68931   3.001   7.845  12.780
22345SOL    HW168932   3.008   7.929  12.826
22345SOL    HW268933   3.090   7.827  12.750
22346SOL     OW68934   0.279   7.864  13.170
22346SOL    HW168935   0.338   7.802  13.128
22346SOL    HW268936   0.214   7.884  13.103
22347SOL     OW68937  11.775   5.356   8.768
22347SOL    HW168938  11.700   5.414   8.761
22347SOL    HW268939  11.797   5.334   8.678
22348SOL     OW68940  11.072   3.750   1.617
22348SOL    HW168941  11.061   3.823   1.556
22348SOL    HW268942  11.105   3.792   1.697
22349SOL     OW68943   5.220  12.018   6.227
22349SOL    HW168944   5.238  11.964   6.150
22349SOL    HW268945   5.260  11.971   6.300
22350SOL     OW68946  10.857   1.027   3.268
22350SOL    HW168947  10.777   0.976   3.262
22350SOL    HW268948  10.844   1.083   3.344
22351SOL     OW68949  10.333  10.835   1.694
22351SOL    HW168950  10.283  10.789   1.626
22351SOL    HW268951  10.377  10.765   1.743
22352SOL     OW68952   0.518   9.640   2.530
22352SOL    HW168953   0.460   9.687   2.470
22352SOL    HW268954   0.460   9.610   2.600
22353SOL     OW68955   2.709   6.105   9.941
22353SOL    HW168956   2.773   6.046   9.901
22353SOL    HW268957   2.712   6.184   9.887
22354SOL     OW68958   3.309   9.124   7.525
22354SOL    HW168959   3.249   9.080   7.586
22354SOL    HW268960   3.303   9.216   7.547
22355SOL     OW68961   5.947   5.310   1.377
22355SOL    HW168962   5.930   5.253   1.453
22355SOL    HW268963   5.860   5.335   1.346
22356SOL     OW68964   8.212  11.127   3.661
22356SOL    HW168965   8.205  11.139   3.566
22356SOL    HW268966   8.126  11.153   3.695
22357SOL     OW68967   3.540   3.196   2.349
22357SOL    HW168968   3.578   3.141   2.281
22357SOL    HW268969   3.589   3.277   2.346
22358SOL     OW68970   2.126  14.543   7.475
22358SOL    HW168971   2.210  14.551   7.430
22358SOL    HW268972   2.063  14.524   7.406
22359SOL     OW68973   1.516  12.535   8.887
22359SOL    HW168974   1.501  12.466   8.951
22359SOL    HW268975   1.461  12.607   8.916
22360SOL     OW68976   3.502  14.292   3.900
22360SOL    HW168977   3.591  14.279   3.933
22360SOL    HW268978   3.455  14.331   3.974
22361SOL     OW68979   1.593   5.139  13.566
22361SOL    HW168980   1.617   5.220  13.521
22361SOL    HW268981   1.589   5.164  13.659
22362SOL     OW68982   4.315   1.855   8.758
22362SOL    HW168983   4.389   1.915   8.772
22362SOL    HW268984   4.331   1.817   8.672
22363SOL     OW68985   7.222   1.711   3.480
22363SOL    HW168986   7.286   1.782   3.480
22363SOL    HW268987   7.143   1.749   3.518
22364SOL     OW68988   6.346   4.336  10.425
22364SOL    HW168989   6.360   4.282  10.502
22364SOL    HW268990   6.434   4.347  10.387
22365SOL     OW68991   7.166  10.208   7.996
22365SOL    HW168992   7.137  10.299   7.987
22365SOL    HW268993   7.250  10.205   7.949
22366SOL     OW68994   2.654   8.059   0.184
22366SOL    HW168995   2.712   7.993   0.222
22366SOL    HW268996   2.698   8.142   0.201
22367SOL     OW68997   6.013   0.930   2.873
22367SOL    HW168998   6.070   0.854   2.885
22367SOL    HW268999   6.060   0.985   2.810
22368SOL     OW69000   6.138  12.051   0.550
22368SOL    HW169001   6.063  12.110   0.564
22368SOL    HW269002   6.114  11.970   0.594
22369SOL     OW69003   0.168   7.906   3.142
22369SOL    HW169004   0.205   7.849   3.075
22369SOL    HW269005   0.227   7.896   3.217
22370SOL     OW69006   3.837   6.776   1.963
22370SOL    HW169007   3.831   6.723   2.042
22370SOL    HW269008   3.751   6.769   1.921
22371SOL     OW69009  14.211   0.884   3.920
22371SOL    HW169010  14.252   0.813   3.970
22371SOL    HW269011  14.120   0.857   3.910
22372SOL     OW69012  13.703   9.438  11.148
22372SOL    HW169013  13.650   9.457  11.071
22372SOL    HW269014  13.790   9.416  11.113
22373SOL     OW69015   6.427   5.586   2.014
22373SOL    HW169016   6.467   5.544   2.090
22373SOL    HW269017   6.417   5.515   1.950
22374SOL     OW69018   0.997   1.657  13.956
22374SOL    HW169019   0.933   1.727  13.951
22374SOL    HW269020   0.949   1.579  13.928
22375SOL     OW69021  13.431   0.690  12.448
22375SOL    HW169022  13.483   0.771  12.447
22375SOL    HW269023  13.344   0.717  12.421
22376SOL     OW69024   0.840   2.737   1.589
22376SOL    HW169025   0.866   2.797   1.660
22376SOL    HW269026   0.893   2.659   1.604
22377SOL     OW69027   2.522   6.033   0.029
22377SOL    HW169028   2.439   6.017   0.075
22377SOL    HW269029   2.580   5.963   0.057
22378SOL     OW69030   4.694   0.890   3.605
22378SOL    HW169031   4.606   0.886   3.643
22378SOL    HW269032   4.722   0.981   3.619
22379SOL     OW69033   5.629   8.710  10.475
22379SOL    HW169034   5.713   8.670  10.497
22379SOL    HW269035   5.585   8.724  10.559
22380SOL     OW69036  10.819  11.213  11.013
22380SOL    HW169037  10.775  11.281  11.064
22380SOL    HW269038  10.797  11.131  11.057
22381SOL     OW69039  10.581   2.589   0.111
22381SOL    HW169040  10.514   2.537   0.154
22381SOL    HW269041  10.532   2.660   0.068
22382SOL     OW69042  13.832   8.395  13.459
22382SOL    HW169043  13.825   8.367  13.550
22382SOL    HW269044  13.821   8.490  13.463
22383SOL     OW69045  10.699   8.585   1.100
22383SOL    HW169046  10.774   8.643   1.091
22383SOL    HW269047  10.730   8.500   1.070
22384SOL     OW69048  13.087   5.255   5.772
22384SOL    HW169049  13.091   5.232   5.679
22384SOL    HW269050  13.050   5.177   5.814
22385SOL     OW69051   4.375  11.641  12.430
22385SOL    HW169052   4.416  11.645  12.344
22385SOL    HW269053   4.356  11.548  12.444
22386SOL     OW69054   1.931   0.132   9.115
22386SOL    HW169055   1.924   0.192   9.042
22386SOL    HW269056   1.959   0.049   9.076
22387SOL     OW69057  12.972   9.509  13.115
22387SOL    HW169058  12.975   9.566  13.192
22387SOL    HW269059  13.010   9.561  13.045
22388SOL     OW69060   5.106   0.174   6.623
22388SOL    HW169061   5.142   0.246   6.675
22388SOL    HW269062   5.150   0.096   6.658
22389SOL     OW69063   8.781   0.873   5.778
22389SOL    HW169064   8.714   0.815   5.743
22389SOL    HW269065   8.810   0.925   5.703
22390SOL     OW69066   2.838  13.422  10.919
22390SOL    HW169067   2.890  13.502  10.926
22390SOL    HW269068   2.768  13.444  10.857
22391SOL     OW69069  13.523  13.649   7.964
22391SOL    HW169070  13.434  13.640   7.929
22391SOL    HW269071  13.535  13.571   8.018
22392SOL     OW69072  11.533   7.428   7.129
22392SOL    HW169073  11.529   7.352   7.071
22392SOL    HW269074  11.539   7.503   7.069
22393SOL     OW69075   2.212  13.666  13.676
22393SOL    HW169076   2.244  13.593  13.729
22393SOL    HW269077   2.268  13.740  13.702
22394SOL     OW69078   2.887  13.689  11.827
22394SOL    HW169079   2.866  13.662  11.738
22394SOL    HW269080   2.925  13.611  11.868
22395SOL     OW69081   5.997   8.966   9.297
22395SOL    HW169082   6.063   8.935   9.234
22395SOL    HW269083   6.008   8.908   9.373
22396SOL     OW69084   5.184   5.225   5.882
22396SOL    HW169085   5.272   5.262   5.878
22396SOL    HW269086   5.198   5.131   5.892
22397SOL     OW69087   8.874   2.801   5.508
22397SOL    HW169088   8.799   2.860   5.514
22397SOL    HW269089   8.882   2.763   5.595
22398SOL     OW69090   3.434   2.273   3.492
22398SOL    HW169091   3.444   2.216   3.568
22398SOL    HW269092   3.486   2.351   3.513
22399SOL     OW69093  10.390   2.016   8.710
22399SOL    HW169094  10.295   2.005   8.700
22399SOL    HW269095  10.428   1.961   8.641
22400SOL     OW69096  12.466   8.012  10.546
22400SOL    HW169097  12.450   8.076  10.615
22400SOL    HW269098  12.410   8.040  10.473
22401SOL     OW69099   3.396   8.400   6.287
22401SOL    HW169100   3.422   8.491   6.270
22401SOL    HW269101   3.314   8.389   6.239
22402SOL     OW69102   4.014   0.248   7.848
22402SOL    HW169103   4.018   0.336   7.810
22402SOL    HW269104   4.095   0.240   7.898
22403SOL     OW69105   6.667   4.574   1.432
22403SOL    HW169106   6.744   4.518   1.441
22403SOL    HW269107   6.592   4.515   1.436
22404SOL     OW69108   9.819   4.279  12.534
22404SOL    HW169109   9.807   4.184  12.537
22404SOL    HW269110   9.841   4.304  12.624
22405SOL     OW69111   8.707   6.894   5.215
22405SOL    HW169112   8.701   6.971   5.272
22405SOL    HW269113   8.749   6.926   5.136
22406SOL     OW69114  10.217   1.039   3.928
22406SOL    HW169115  10.217   0.945   3.910
22406SOL    HW269116  10.226   1.080   3.843
22407SOL     OW69117   3.020  14.231   1.288
22407SOL    HW169118   3.063  14.147   1.309
22407SOL    HW269119   3.049  14.250   1.199
22408SOL     OW69120   8.728   3.613  14.191
22408SOL    HW169121   8.758   3.636  14.280
22408SOL    HW269122   8.778   3.672  14.134
22409SOL     OW69123   2.664  14.259   3.668
22409SOL    HW169124   2.759  14.273   3.678
22409SOL    HW269125   2.658  14.184   3.608
22410SOL     OW69126  13.819  10.182   9.364
22410SOL    HW169127  13.880  10.109   9.374
22410SOL    HW269128  13.783  10.196   9.452
22411SOL     OW69129  13.661   0.730   5.182
22411SOL    HW169130  13.677   0.636   5.194
22411SOL    HW269131  13.573   0.734   5.144
22412SOL     OW69132   4.646   9.355  11.891
22412SOL    HW169133   4.717   9.305  11.851
22412SOL    HW269134   4.595   9.290  11.939
22413SOL     OW69135  13.852   9.469  14.770
22413SOL    HW169136  13.811   9.451  14.855
22413SOL    HW269137  13.896   9.554  14.783
22414SOL     OW69138  13.113  11.212   0.896
22414SOL    HW169139  13.181  11.183   0.835
22414SOL    HW269140  13.044  11.248   0.840
22415SOL     OW69141   8.009  13.383   1.374
22415SOL    HW169142   8.080  13.418   1.321
22415SOL    HW269143   8.047  13.308   1.419
22416SOL     OW69144   4.022  14.021   7.056
22416SOL    HW169145   3.942  13.970   7.042
22416SOL    HW269146   4.013  14.057   7.144
22417SOL     OW69147   2.113   8.101   3.549
22417SOL    HW169148   2.036   8.047   3.530
22417SOL    HW269149   2.107   8.173   3.486
22418SOL     OW69150  12.238  13.736   3.644
22418SOL    HW169151  12.148  13.739   3.613
22418SOL    HW269152  12.282  13.675   3.584
22419SOL     OW69153   4.799   8.542   5.107
22419SOL    HW169154   4.850   8.464   5.086
22419SOL    HW269155   4.812   8.600   5.032
22420SOL     OW69156   7.098   7.266   3.089
22420SOL    HW169157   7.137   7.181   3.107
22420SOL    HW269158   7.155   7.305   3.023
22421SOL     OW69159   1.186  11.713   5.500
22421SOL    HW169160   1.252  11.678   5.439
22421SOL    HW269161   1.211  11.804   5.514
22422SOL     OW69162  13.631   1.582   5.130
22422SOL    HW169163  13.692   1.551   5.196
22422SOL    HW269164  13.674   1.565   5.047
22423SOL     OW69165   7.831   4.797  10.712
22423SOL    HW169166   7.822   4.730  10.645
22423SOL    HW269167   7.785   4.763  10.788
22424SOL     OW69168  12.154   9.428   6.922
22424SOL    HW169169  12.081   9.371   6.899
22424SOL    HW269170  12.189   9.390   7.003
22425SOL     OW69171  14.500  11.890   4.800
22425SOL    HW169172  14.556  11.923   4.871
22425SOL    HW269173  14.419  11.864   4.844
22426SOL     OW69174  10.830   0.700   8.052
22426SOL    HW169175  10.747   0.663   8.022
22426SOL    HW269176  10.818   0.794   8.043
22427SOL     OW69177   3.812  14.091   8.285
22427SOL    HW169178   3.890  14.046   8.253
22427SOL    HW269179   3.743  14.024   8.280
22428SOL     OW69180   9.338   2.372   3.781
22428SOL    HW169181   9.256   2.411   3.813
22428SOL    HW269182   9.317   2.279   3.769
22429SOL     OW69183  11.394   9.392  12.144
22429SOL    HW169184  11.385   9.442  12.225
22429SOL    HW269185  11.487   9.395  12.124
22430SOL     OW69186   7.757   1.197  12.477
22430SOL    HW169187   7.726   1.110  12.501
22430SOL    HW269188   7.833   1.213  12.534
22431SOL     OW69189   3.655   5.360  10.630
22431SOL    HW169190   3.676   5.290  10.692
22431SOL    HW269191   3.677   5.323  10.544
22432SOL     OW69192   8.572   1.012  13.077
22432SOL    HW169193   8.569   1.031  12.983
22432SOL    HW269194   8.489   1.045  13.111
22433SOL     OW69195   0.062   9.235   7.220
22433SOL    HW169196   0.016   9.198   7.295
22433SOL    HW269197   0.024   9.323   7.210
22434SOL     OW69198   4.065   3.537   5.364
22434SOL    HW169199   4.077   3.631   5.351
22434SOL    HW269200   4.018   3.531   5.447
22435SOL     OW69201   3.707   6.269  11.764
22435SOL    HW169202   3.612   6.272  11.763
22435SOL    HW269203   3.732   6.280  11.672
22436SOL     OW69204  13.548   5.404   3.112
22436SOL    HW169205  13.488   5.444   3.175
22436SOL    HW269206  13.514   5.315   3.100
22437SOL     OW69207  14.287  10.009   6.142
22437SOL    HW169208  14.218   9.994   6.208
22437SOL    HW269209  14.341  10.078   6.180
22438SOL     OW69210   4.835   2.468  12.249
22438SOL    HW169211   4.852   2.522  12.171
22438SOL    HW269212   4.836   2.378  12.216
22439SOL     OW69213   7.501  13.632  10.519
22439SOL    HW169214   7.497  13.546  10.476
22439SOL    HW269215   7.508  13.695  10.447
22440SOL     OW69216   4.875  12.124  11.234
22440SOL    HW169217   4.797  12.136  11.288
22440SOL    HW269218   4.948  12.134  11.295
22441SOL     OW69219   1.564  14.646   5.130
22441SOL    HW169220   1.557  14.583   5.059
22441SOL    HW269221   1.482  14.636   5.179
22442SOL     OW69222   4.076   1.145   7.578
22442SOL    HW169223   4.146   1.205   7.554
22442SOL    HW269224   4.014   1.198   7.628
22443SOL     OW69225   3.669  11.280   1.883
22443SOL    HW169226   3.733  11.341   1.920
22443SOL    HW269227   3.674  11.293   1.789
22444SOL     OW69228  12.418   1.620   1.967
22444SOL    HW169229  12.416   1.715   1.978
22444SOL    HW269230  12.417   1.607   1.872
22445SOL     OW69231   9.483   0.858   6.166
22445SOL    HW169232   9.554   0.892   6.221
22445SOL    HW269233   9.518   0.862   6.077
22446SOL     OW69234   9.195   1.647   7.663
22446SOL    HW169235   9.184   1.631   7.570
22446SOL    HW269236   9.115   1.692   7.690
22447SOL     OW69237  14.550  12.161   8.436
22447SOL    HW169238  14.645  12.166   8.449
22447SOL    HW269239  14.537  12.192   8.346
22448SOL     OW69240   5.202   5.207   0.636
22448SOL    HW169241   5.205   5.125   0.684
22448SOL    HW269242   5.127   5.254   0.673
22449SOL     OW69243   2.572   5.893  12.964
22449SOL    HW169244   2.572   5.890  12.868
22449SOL    HW269245   2.621   5.972  12.985
22450SOL     OW69246   6.903   6.929  14.334
22450SOL    HW169247   6.969   6.938  14.265
22450SOL    HW269248   6.897   6.835  14.349
22451SOL     OW69249  12.014   9.756   1.514
22451SOL    HW169250  11.984   9.675   1.554
22451SOL    HW269251  12.013   9.739   1.420
22452SOL     OW69252  12.852  10.355   8.862
22452SOL    HW169253  12.927  10.414   8.855
22452SOL    HW269254  12.872  10.283   8.801
22453SOL     OW69255  10.060   8.613   4.749
22453SOL    HW169256  10.050   8.562   4.669
22453SOL    HW269257  10.023   8.557   4.818
22454SOL     OW69258  12.290   6.655   0.146
22454SOL    HW169259  12.212   6.705   0.122
22454SOL    HW269260  12.261   6.594   0.214
22455SOL     OW69261   8.820  12.254   8.474
22455SOL    HW169262   8.831  12.176   8.529
22455SOL    HW269263   8.725  12.260   8.461
22456SOL     OW69264   6.755   7.184   8.157
22456SOL    HW169265   6.674   7.136   8.146
22456SOL    HW269266   6.824   7.117   8.153
22457SOL     OW69267  14.732   6.169   8.206
22457SOL    HW169268  14.662   6.190   8.144
22457SOL    HW269269  14.732   6.073   8.211
22458SOL     OW69270   3.058   9.413   2.567
22458SOL    HW169271   3.080   9.319   2.563
22458SOL    HW269272   3.131   9.456   2.523
22459SOL     OW69273  10.184   8.574  11.923
22459SOL    HW169274  10.251   8.525  11.971
22459SOL    HW269275  10.145   8.510  11.863
22460SOL     OW69276  11.169  13.346  13.553
22460SOL    HW169277  11.139  13.342  13.644
22460SOL    HW269278  11.100  13.395  13.507
22461SOL     OW69279   9.894   7.764   9.178
22461SOL    HW169280   9.952   7.781   9.253
22461SOL    HW269281   9.836   7.695   9.209
22462SOL     OW69282  14.523  14.685  10.958
22462SOL    HW169283  14.513  14.697  11.052
22462SOL    HW269284  14.433  14.690  10.924
22463SOL     OW69285  10.626   7.574   3.783
22463SOL    HW169286  10.672   7.615   3.710
22463SOL    HW269287  10.546   7.539   3.744
22464SOL     OW69288   3.702   6.366   9.254
22464SOL    HW169289   3.711   6.453   9.293
22464SOL    HW269290   3.775   6.316   9.291
22465SOL     OW69291   7.850   2.128   3.382
22465SOL    HW169292   7.782   2.093   3.440
22465SOL    HW269293   7.849   2.222   3.398
22466SOL     OW69294   3.617   9.041  13.700
22466SOL    HW169295   3.581   9.116  13.747
22466SOL    HW269296   3.700   9.022  13.743
22467SOL     OW69297   2.672  10.831  14.798
22467SOL    HW169298   2.576  10.829  14.792
22467SOL    HW269299   2.690  10.857   0.018
22468SOL     OW69300   5.718   3.790   4.169
22468SOL    HW169301   5.790   3.842   4.204
22468SOL    HW269302   5.673   3.850   4.109
22469SOL     OW69303   9.184  14.060   2.629
22469SOL    HW169304   9.269  14.062   2.585
22469SOL    HW269305   9.143  13.980   2.598
22470SOL     OW69306  11.648   4.462  12.474
22470SOL    HW169307  11.581   4.466  12.406
22470SOL    HW269308  11.607   4.502  12.551
22471SOL     OW69309   9.216  10.081   8.034
22471SOL    HW169310   9.188  10.160   8.081
22471SOL    HW269311   9.298  10.106   7.992
22472SOL     OW69312   0.264  12.366   6.159
22472SOL    HW169313   0.189  12.307   6.166
22472SOL    HW269314   0.236  12.435   6.100
22473SOL     OW69315   9.771   8.784  14.618
22473SOL    HW169316   9.782   8.701  14.572
22473SOL    HW269317   9.801   8.850  14.556
22474SOL     OW69318   7.903   7.466   6.363
22474SOL    HW169319   7.953   7.524   6.304
22474SOL    HW269320   7.957   7.459   6.441
22475SOL     OW69321   9.699  13.702   1.369
22475SOL    HW169322   9.781  13.721   1.415
22475SOL    HW269323   9.713  13.615   1.331
22476SOL     OW69324   6.488  14.384   5.627
22476SOL    HW169325   6.511  14.475   5.646
22476SOL    HW269326   6.484  14.380   5.531
22477SOL     OW69327  13.014  13.832   2.527
22477SOL    HW169328  13.106  13.818   2.503
22477SOL    HW269329  12.981  13.891   2.459
22478SOL     OW69330  12.949   6.282   5.397
22478SOL    HW169331  12.898   6.253   5.322
22478SOL    HW269332  12.982   6.202   5.437
22479SOL     OW69333   3.575   0.789  13.961
22479SOL    HW169334   3.632   0.751  14.028
22479SOL    HW269335   3.587   0.732  13.884
22480SOL     OW69336  13.519  10.035   9.879
22480SOL    HW169337  13.553  10.070   9.797
22480SOL    HW269338  13.551  10.095   9.946
22481SOL     OW69339   9.393  10.064   3.156
22481SOL    HW169340   9.372  10.049   3.064
22481SOL    HW269341   9.452  10.139   3.155
22482SOL     OW69342   1.790  11.191   2.226
22482SOL    HW169343   1.711  11.185   2.280
22482SOL    HW269344   1.773  11.132   2.152
22483SOL     OW69345   6.901   3.717   1.705
22483SOL    HW169346   6.831   3.773   1.741
22483SOL    HW269347   6.861   3.630   1.700
22484SOL     OW69348  12.742   9.927   6.087
22484SOL    HW169349  12.758  10.021   6.076
22484SOL    HW269350  12.735   9.915   6.182
22485SOL     OW69351   5.297   4.083   6.420
22485SOL    HW169352   5.240   4.008   6.404
22485SOL    HW269353   5.299   4.130   6.336
22486SOL     OW69354   2.110   0.745  13.376
22486SOL    HW169355   2.097   0.730  13.469
22486SOL    HW269356   2.137   0.659  13.342
22487SOL     OW69357  12.497  12.343   1.786
22487SOL    HW169358  12.440  12.376   1.855
22487SOL    HW269359  12.523  12.256   1.817
22488SOL     OW69360   9.247   6.884  13.058
22488SOL    HW169361   9.304   6.880  13.135
22488SOL    HW269362   9.202   6.800  13.057
22489SOL     OW69363  14.651  14.521  11.871
22489SOL    HW169364  14.702  14.456  11.920
22489SOL    HW269365  14.562  14.514  11.908
22490SOL     OW69366  13.141  13.669  14.402
22490SOL    HW169367  13.069  13.630  14.353
22490SOL    HW269368  13.171  13.741  14.346
22491SOL     OW69369   8.905  10.863   2.213
22491SOL    HW169370   8.893  10.956   2.229
22491SOL    HW269371   8.924  10.857   2.120
22492SOL     OW69372   9.931   4.270  14.558
22492SOL    HW169373   9.952   4.196  14.614
22492SOL    HW269374   9.844   4.249  14.522
22493SOL     OW69375   7.523  13.076   6.266
22493SOL    HW169376   7.569  13.005   6.222
22493SOL    HW269377   7.480  13.124   6.195
22494SOL     OW69378  10.712   9.570   9.897
22494SOL    HW169379  10.685   9.593   9.808
22494SOL    HW269380  10.711   9.653   9.945
22495SOL     OW69381   8.000   7.831   6.804
22495SOL    HW169382   7.978   7.802   6.716
22495SOL    HW269383   8.071   7.773   6.832
22496SOL     OW69384   0.617  12.626   9.787
22496SOL    HW169385   0.702  12.652   9.751
22496SOL    HW269386   0.637  12.548   9.839
22497SOL     OW69387   0.813   7.425   9.629
22497SOL    HW169388   0.811   7.469   9.544
22497SOL    HW269389   0.721   7.420   9.655
22498SOL     OW69390  11.134   1.566   4.666
22498SOL    HW169391  11.155   1.610   4.584
22498SOL    HW269392  11.076   1.494   4.641
22499SOL     OW69393  10.814   0.476   1.091
22499SOL    HW169394  10.814   0.570   1.071
22499SOL    HW269395  10.731   0.462   1.137
22500SOL     OW69396   1.035   3.250   8.111
22500SOL    HW169397   1.114   3.255   8.057
22500SOL    HW269398   0.967   3.290   8.057
22501SOL     OW69399   1.950   4.232  10.069
22501SOL    HW169400   1.927   4.245   9.976
22501SOL    HW269401   1.981   4.142  10.072
22502SOL     OW69402  11.433   4.371   2.443
22502SOL    HW169403  11.461   4.426   2.516
22502SOL    HW269404  11.486   4.401   2.369
22503SOL     OW69405   7.509   5.987   4.798
22503SOL    HW169406   7.442   5.979   4.729
22503SOL    HW269407   7.488   5.916   4.859
22504SOL     OW69408   0.386  10.898   9.300
22504SOL    HW169409   0.473  10.859   9.296
22504SOL    HW269410   0.400  10.986   9.335
22505SOL     OW69411  11.358   5.831  11.387
22505SOL    HW169412  11.431   5.824  11.448
22505SOL    HW269413  11.284   5.792  11.433
22506SOL     OW69414   1.437   8.500   6.233
22506SOL    HW169415   1.424   8.482   6.140
22506SOL    HW269416   1.527   8.474   6.251
22507SOL     OW69417  12.952   4.019   5.386
22507SOL    HW169418  12.888   4.026   5.457
22507SOL    HW269419  12.900   4.017   5.306
22508SOL     OW69420   4.999   5.215  13.064
22508SOL    HW169421   4.932   5.170  13.115
22508SOL    HW269422   5.015   5.296  13.111
22509SOL     OW69423  13.186  14.195   4.114
22509SOL    HW169424  13.170  14.138   4.039
22509SOL    HW269425  13.139  14.276   4.093
22510SOL     OW69426   7.082   3.498   7.012
22510SOL    HW169427   7.129   3.414   7.011
22510SOL    HW269428   7.109   3.542   6.932
22511SOL     OW69429   6.596   6.050   1.324
22511SOL    HW169430   6.563   5.968   1.358
22511SOL    HW269431   6.582   6.045   1.230
22512SOL     OW69432   5.266  12.642   8.865
22512SOL    HW169433   5.289  12.697   8.791
22512SOL    HW269434   5.348  12.602   8.893
22513SOL     OW69435  12.142   2.007   1.750
22513SOL    HW169436  12.226   1.962   1.739
22513SOL    HW269437  12.081   1.940   1.779
22514SOL     OW69438   9.924   2.690   4.556
22514SOL    HW169439   9.839   2.731   4.572
22514SOL    HW269440   9.939   2.701   4.462
22515SOL     OW69441   2.043  14.454   2.177
22515SOL    HW169442   2.025  14.481   2.267
22515SOL    HW269443   1.970  14.491   2.126
22516SOL     OW69444   6.702  10.833   8.282
22516SOL    HW169445   6.694  10.739   8.269
22516SOL    HW269446   6.621  10.858   8.326
22517SOL     OW69447   0.281  13.225   7.670
22517SOL    HW169448   0.310  13.316   7.678
22517SOL    HW269449   0.362  13.174   7.679
22518SOL     OW69450   9.376   4.365   3.484
22518SOL    HW169451   9.347   4.450   3.449
22518SOL    HW269452   9.390   4.311   3.407
22519SOL     OW69453   7.629   6.696   2.995
22519SOL    HW169454   7.714   6.687   3.037
22519SOL    HW269455   7.639   6.654   2.910
22520SOL     OW69456   5.652   6.177  12.594
22520SOL    HW169457   5.726   6.117  12.607
22520SOL    HW269458   5.694   6.261  12.575
22521SOL     OW69459   8.067   4.825  11.164
22521SOL    HW169460   8.062   4.919  11.144
22521SOL    HW269461   8.038   4.818  11.255
22522SOL     OW69462  12.870  13.559   4.172
22522SOL    HW169463  12.823  13.486   4.133
22522SOL    HW269464  12.946  13.572   4.115
22523SOL     OW69465   7.880  10.933  11.984
22523SOL    HW169466   7.823  11.006  11.961
22523SOL    HW269467   7.860  10.865  11.920
22524SOL     OW69468   3.803  14.390   7.820
22524SOL    HW169469   3.849  14.389   7.904
22524SOL    HW269470   3.872  14.391   7.754
22525SOL     OW69471   2.088   4.139   1.449
22525SOL    HW169472   2.078   4.045   1.464
22525SOL    HW269473   2.182   4.154   1.452
22526SOL     OW69474   3.882   1.608  12.461
22526SOL    HW169475   3.890   1.578  12.371
22526SOL    HW269476   3.929   1.543  12.513
22527SOL     OW69477   0.712   3.629  13.121
22527SOL    HW169478   0.677   3.703  13.170
22527SOL    HW269479   0.650   3.616  13.049
22528SOL     OW69480   3.311  10.225  14.449
22528SOL    HW169481   3.226  10.259  14.420
22528SOL    HW269482   3.317  10.138  14.410
22529SOL     OW69483  10.075   3.786  11.099
22529SOL    HW169484  10.052   3.716  11.037
22529SOL    HW269485  10.131   3.845  11.048
22530SOL     OW69486   3.617   6.957  12.092
22530SOL    HW169487   3.636   6.866  12.113
22530SOL    HW269488   3.537   6.976  12.141
22531SOL     OW69489  11.450   8.482  12.280
22531SOL    HW169490  11.509   8.407  12.270
22531SOL    HW269491  11.501   8.546  12.329
22532SOL     OW69492   0.310   8.464   7.237
22532SOL    HW169493   0.273   8.550   7.221
22532SOL    HW269494   0.359   8.473   7.318
22533SOL     OW69495  10.111  13.395   6.050
22533SOL    HW169496  10.190  13.445   6.028
22533SOL    HW269497  10.129  13.359   6.137
22534SOL     OW69498   0.346  13.540  10.571
22534SOL    HW169499   0.256  13.568  10.558
22534SOL    HW269500   0.341  13.478  10.644
22535SOL     OW69501  13.431   6.054   3.150
22535SOL    HW169502  13.448   6.124   3.212
22535SOL    HW269503  13.515   6.007   3.143
22536SOL     OW69504   8.705   4.376   4.797
22536SOL    HW169505   8.682   4.290   4.833
22536SOL    HW269506   8.645   4.437   4.839
22537SOL     OW69507   9.645   3.701  13.349
22537SOL    HW169508   9.577   3.701  13.415
22537SOL    HW269509   9.610   3.756  13.278
22538SOL     OW69510  11.629   4.391   9.532
22538SOL    HW169511  11.556   4.332   9.552
22538SOL    HW269512  11.609   4.472   9.579
22539SOL     OW69513   7.275  11.394   5.348
22539SOL    HW169514   7.308  11.321   5.401
22539SOL    HW269515   7.216  11.441   5.407
22540SOL     OW69516   5.761   2.166  13.827
22540SOL    HW169517   5.854   2.174  13.807
22540SOL    HW269518   5.718   2.225  13.766
22541SOL     OW69519   4.012   5.294   7.804
22541SOL    HW169520   3.975   5.282   7.717
22541SOL    HW269521   3.943   5.340   7.853
22542SOL     OW69522   7.206  12.640   9.829
22542SOL    HW169523   7.122  12.635   9.873
22542SOL    HW269524   7.258  12.701   9.883
22543SOL     OW69525   8.128   8.525   3.578
22543SOL    HW169526   8.206   8.470   3.567
22543SOL    HW269527   8.122   8.574   3.497
22544SOL     OW69528   7.642  14.016  10.629
22544SOL    HW169529   7.599  14.086  10.678
22544SOL    HW269530   7.703  13.976  10.691
22545SOL     OW69531   4.040  14.657   5.819
22545SOL    HW169532   4.128  14.647   5.857
22545SOL    HW269533   4.056  14.701   5.736
22546SOL     OW69534   5.619  13.985   3.157
22546SOL    HW169535   5.686  13.950   3.217
22546SOL    HW269536   5.556  14.027   3.215
22547SOL     OW69537   4.173  13.289   2.891
22547SOL    HW169538   4.132  13.210   2.924
22547SOL    HW269539   4.116  13.360   2.920
22548SOL     OW69540   2.521   1.146  14.112
22548SOL    HW169541   2.495   1.120  14.201
22548SOL    HW269542   2.529   1.241  14.118
22549SOL     OW69543   4.135   5.086   0.994
22549SOL    HW169544   4.120   4.999   1.031
22549SOL    HW269545   4.220   5.080   0.951
22550SOL     OW69546   2.198   5.997   6.880
22550SOL    HW169547   2.208   5.960   6.968
22550SOL    HW269548   2.207   6.091   6.893
22551SOL     OW69549   1.173   7.558  11.752
22551SOL    HW169550   1.101   7.594  11.700
22551SOL    HW269551   1.131   7.502  11.816
22552SOL     OW69552  12.161   4.779   7.311
22552SOL    HW169553  12.175   4.841   7.382
22552SOL    HW269554  12.076   4.804   7.273
22553SOL     OW69555  11.637   0.243   8.110
22553SOL    HW169556  11.722   0.285   8.096
22553SOL    HW269557  11.581   0.313   8.145
22554SOL     OW69558   0.585   8.361   4.852
22554SOL    HW169559   0.666   8.412   4.852
22554SOL    HW269560   0.588   8.311   4.770
22555SOL     OW69561   5.203   1.781   5.166
22555SOL    HW169562   5.117   1.737   5.171
22555SOL    HW269563   5.200   1.828   5.083
22556SOL     OW69564  13.783   8.488   8.330
22556SOL    HW169565  13.727   8.530   8.265
22556SOL    HW269566  13.787   8.551   8.402
22557SOL     OW69567   2.639   9.885  12.101
22557SOL    HW169568   2.664   9.868  12.010
22557SOL    HW269569   2.563   9.829  12.115
22558SOL     OW69570   2.551   6.885   1.101
22558SOL    HW169571   2.569   6.928   1.018
22558SOL    HW269572   2.460   6.906   1.120
22559SOL     OW69573   1.573   5.256   9.348
22559SOL    HW169574   1.551   5.274   9.257
22559SOL    HW269575   1.667   5.238   9.347
22560SOL     OW69576   2.116  12.269   0.553
22560SOL    HW169577   2.046  12.323   0.591
22560SOL    HW269578   2.188  12.276   0.615
22561SOL     OW69579  10.419   9.726   6.967
22561SOL    HW169580  10.435   9.639   7.004
22561SOL    HW269581  10.381   9.776   7.040
22562SOL     OW69582   8.362   7.162  13.133
22562SOL    HW169583   8.305   7.234  13.157
22562SOL    HW269584   8.450   7.198  13.138
22563SOL     OW69585   8.322   6.669   5.853
22563SOL    HW169586   8.345   6.579   5.877
22563SOL    HW269587   8.403   6.718   5.865
22564SOL     OW69588   6.582  12.505   7.337
22564SOL    HW169589   6.535  12.467   7.412
22564SOL    HW269590   6.515  12.550   7.287
22565SOL     OW69591   5.920   9.159  11.304
22565SOL    HW169592   5.880   9.087  11.351
22565SOL    HW269593   5.847   9.203  11.260
22566SOL     OW69594   1.314   1.595   2.391
22566SOL    HW169595   1.407   1.573   2.384
22566SOL    HW269596   1.311   1.691   2.383
22567SOL     OW69597  13.108   3.574   4.483
22567SOL    HW169598  13.171   3.591   4.412
22567SOL    HW269599  13.127   3.485   4.511
22568SOL     OW69600  12.820   5.941  11.211
22568SOL    HW169601  12.729   5.969  11.203
22568SOL    HW269602  12.871   6.022  11.200
22569SOL     OW69603   3.206   6.142   0.414
22569SOL    HW169604   3.235   6.086   0.486
22569SOL    HW269605   3.286   6.165   0.368
22570SOL     OW69606  14.682   8.202  13.008
22570SOL    HW169607  14.680   8.271  13.075
22570SOL    HW269608  14.611   8.224  12.948
22571SOL     OW69609   1.392   6.978   3.288
22571SOL    HW169610   1.445   7.015   3.358
22571SOL    HW269611   1.388   6.884   3.307
22572SOL     OW69612   3.169   0.802  14.860
22572SOL    HW169613   3.186   0.815  14.767
22572SOL    HW269614   3.176   0.708   0.003
22573SOL     OW69615   7.666   5.871   2.413
22573SOL    HW169616   7.610   5.842   2.341
22573SOL    HW269617   7.606   5.878   2.488
22574SOL     OW69618   0.134   7.653   1.258
22574SOL    HW169619   0.155   7.724   1.319
22574SOL    HW269620   0.194   7.582   1.283
22575SOL     OW69621   0.951   6.231  12.515
22575SOL    HW169622   0.929   6.324  12.515
22575SOL    HW269623   0.945   6.205  12.607
22576SOL     OW69624  14.476  10.623  11.654
22576SOL    HW169625  14.565  10.636  11.623
22576SOL    HW269626  14.421  10.648  11.581
22577SOL     OW69627  12.356  10.452   4.138
22577SOL    HW169628  12.314  10.511   4.201
22577SOL    HW269629  12.371  10.372   4.187
22578SOL     OW69630   2.386   1.603   2.273
22578SOL    HW169631   2.389   1.547   2.196
22578SOL    HW269632   2.475   1.638   2.281
22579SOL     OW69633  12.455   7.417   7.572
22579SOL    HW169634  12.363   7.427   7.550
22579SOL    HW269635  12.456   7.388   7.663
22580SOL     OW69636  12.132  13.846   4.018
22580SOL    HW169637  12.187  13.781   4.061
22580SOL    HW269638  12.043  13.823   4.043
22581SOL     OW69639  14.286   2.616   8.746
22581SOL    HW169640  14.206   2.568   8.768
22581SOL    HW269641  14.291   2.685   8.812
22582SOL     OW69642   6.013  10.868   7.192
22582SOL    HW169643   5.971  10.814   7.260
22582SOL    HW269644   6.095  10.823   7.173
22583SOL     OW69645   0.462   2.268  11.992
22583SOL    HW169646   0.429   2.250  11.904
22583SOL    HW269647   0.404   2.336  12.026
22584SOL     OW69648   5.425   9.841  11.208
22584SOL    HW169649   5.403   9.807  11.121
22584SOL    HW269650   5.381   9.782  11.269
22585SOL     OW69651   1.787   2.452   1.287
22585SOL    HW169652   1.767   2.523   1.348
22585SOL    HW269653   1.872   2.418   1.316
22586SOL     OW69654   6.147  14.333   2.853
22586SOL    HW169655   6.068  14.347   2.800
22586SOL    HW269656   6.142  14.399   2.922
22587SOL     OW69657   8.059   3.121   5.747
22587SOL    HW169658   8.050   3.184   5.675
22587SOL    HW269659   8.065   3.176   5.825
22588SOL     OW69660   9.857   9.813   7.486
22588SOL    HW169661   9.813   9.781   7.565
22588SOL    HW269662   9.927   9.750   7.471
22589SOL     OW69663  12.902   8.918   1.386
22589SOL    HW169664  12.815   8.943   1.353
22589SOL    HW269665  12.902   8.822   1.380
22590SOL     OW69666   7.965   4.381   8.783
22590SOL    HW169667   7.901   4.367   8.713
22590SOL    HW269668   7.932   4.331   8.857
22591SOL     OW69669   4.411  12.878  10.728
22591SOL    HW169670   4.341  12.913  10.673
22591SOL    HW269671   4.368  12.818  10.788
22592SOL     OW69672   5.033  10.357   0.884
22592SOL    HW169673   5.081  10.434   0.914
22592SOL    HW269674   4.941  10.379   0.899
22593SOL     OW69675   4.157   7.461  12.870
22593SOL    HW169676   4.155   7.550  12.907
22593SOL    HW269677   4.065   7.439  12.855
22594SOL     OW69678   3.124   8.080  11.953
22594SOL    HW169679   3.100   8.080  12.046
22594SOL    HW269680   3.213   8.117  11.952
22595SOL     OW69681   5.994  13.776   1.030
22595SOL    HW169682   6.020  13.840   0.964
22595SOL    HW269683   5.979  13.695   0.980
22596SOL     OW69684  11.075  14.294  14.829
22596SOL    HW169685  11.026  14.225   0.004
22596SOL    HW269686  11.136  14.246  14.772
22597SOL     OW69687   5.951   5.931   3.356
22597SOL    HW169688   5.890   5.935   3.430
22597SOL    HW269689   5.941   6.015   3.312
22598SOL     OW69690   9.652   2.354   3.278
22598SOL    HW169691   9.610   2.359   3.192
22598SOL    HW269692   9.654   2.445   3.309
22599SOL     OW69693   8.796   0.230   4.737
22599SOL    HW169694   8.806   0.265   4.648
22599SOL    HW269695   8.789   0.135   4.724
22600SOL     OW69696  13.009  10.083   0.025
22600SOL    HW169697  13.056  10.080  14.811
22600SOL    HW269698  13.065  10.033   0.085
22601SOL     OW69699  13.241   3.057  11.305
22601SOL    HW169700  13.293   3.135  11.326
22601SOL    HW269701  13.233   3.059  11.210
22602SOL     OW69702   8.482   5.657   1.816
22602SOL    HW169703   8.524   5.735   1.851
22602SOL    HW269704   8.486   5.669   1.721
22603SOL     OW69705   5.169  13.403   7.867
22603SOL    HW169706   5.177  13.411   7.963
22603SOL    HW269707   5.076  13.414   7.850
22604SOL     OW69708   4.662  10.916   9.026
22604SOL    HW169709   4.612  10.861   9.086
22604SOL    HW269710   4.669  10.864   8.946
22605SOL     OW69711   0.170   6.527  11.981
22605SOL    HW169712   0.221   6.458  11.939
22605SOL    HW269713   0.229   6.564  12.047
22606SOL     OW69714   7.594   3.974   2.222
22606SOL    HW169715   7.607   4.068   2.230
22606SOL    HW269716   7.600   3.957   2.128
22607SOL     OW69717  11.817  14.606   5.064
22607SOL    HW169718  11.895  14.562   5.099
22607SOL    HW269719  11.745  14.547   5.086
22608SOL     OW69720  13.462   0.205   7.466
22608SOL    HW169721  13.544   0.207   7.516
22608SOL    HW269722  13.491   0.192   7.375
22609SOL     OW69723   7.019   2.810  13.482
22609SOL    HW169724   6.938   2.780  13.524
22609SOL    HW269725   7.077   2.734  13.486
22610SOL     OW69726   1.980  13.208   8.490
22610SOL    HW169727   1.939  13.137   8.540
22610SOL    HW269728   1.963  13.287   8.541
22611SOL     OW69729  10.219   4.147   6.224
22611SOL    HW169730  10.152   4.121   6.161
22611SOL    HW269731  10.180   4.218   6.274
22612SOL     OW69732   5.959  14.023   6.366
22612SOL    HW169733   6.033  13.976   6.327
22612SOL    HW269734   5.932  13.968   6.440
22613SOL     OW69735   2.259   3.422   3.645
22613SOL    HW169736   2.291   3.338   3.611
22613SOL    HW269737   2.249   3.477   3.567
22614SOL     OW69738   2.086   6.012   3.334
22614SOL    HW169739   2.052   5.948   3.272
22614SOL    HW269740   2.174   6.031   3.304
22615SOL     OW69741   5.736   2.890   6.109
22615SOL    HW169742   5.665   2.916   6.167
22615SOL    HW269743   5.695   2.887   6.022
22616SOL     OW69744   2.700  11.553   6.829
22616SOL    HW169745   2.790  11.518   6.828
22616SOL    HW269746   2.667  11.538   6.741
22617SOL     OW69747  13.569   6.266  14.801
22617SOL    HW169748  13.580   6.343  14.856
22617SOL    HW269749  13.530   6.299  14.720
22618SOL     OW69750   5.031   7.163   4.013
22618SOL    HW169751   4.976   7.197   3.943
22618SOL    HW269752   5.115   7.143   3.971
22619SOL     OW69753   3.429   0.785  10.009
22619SOL    HW169754   3.458   0.875  10.003
22619SOL    HW269755   3.348   0.789  10.061
22620SOL     OW69756   0.699   2.332  12.068
22620SOL    HW169757   0.607   2.320  12.044
22620SOL    HW269758   0.706   2.296  12.156
22621SOL     OW69759   2.561   6.090  12.031
22621SOL    HW169760   2.580   6.137  12.113
22621SOL    HW269761   2.600   6.145  11.963
22622SOL     OW69762   5.651   2.057   7.721
22622SOL    HW169763   5.587   1.990   7.698
22622SOL    HW269764   5.650   2.061   7.816
22623SOL     OW69765  14.002   5.811   8.804
22623SOL    HW169766  14.028   5.757   8.878
22623SOL    HW269767  14.082   5.827   8.755
22624SOL     OW69768  13.809   3.598  12.488
22624SOL    HW169769  13.887   3.610  12.542
22624SOL    HW269770  13.741   3.570  12.550
22625SOL     OW69771   6.450   8.606   1.753
22625SOL    HW169772   6.421   8.690   1.790
22625SOL    HW269773   6.472   8.553   1.829
22626SOL     OW69774   1.136  10.086   2.116
22626SOL    HW169775   1.072  10.107   2.048
22626SOL    HW269776   1.204  10.153   2.107
22627SOL     OW69777  12.593   7.735   3.000
22627SOL    HW169778  12.513   7.720   3.050
22627SOL    HW269779  12.629   7.816   3.036
22628SOL     OW69780   0.186  10.255  11.821
22628SOL    HW169781   0.121  10.211  11.876
22628SOL    HW269782   0.140  10.272  11.739
22629SOL     OW69783   6.480   5.804   1.845
22629SOL    HW169784   6.521   5.875   1.894
22629SOL    HW269785   6.474   5.732   1.907
22630SOL     OW69786  13.004   4.233   9.006
22630SOL    HW169787  13.018   4.316   9.052
22630SOL    HW269788  12.923   4.246   8.957
22631SOL     OW69789   8.692   2.406  10.213
22631SOL    HW169790   8.679   2.434  10.123
22631SOL    HW269791   8.687   2.486  10.265
22632SOL     OW69792  11.275   5.325   0.806
22632SOL    HW169793  11.196   5.376   0.788
22632SOL    HW269794  11.310   5.303   0.720
22633SOL     OW69795   2.016   6.842   5.308
22633SOL    HW169796   1.978   6.791   5.236
22633SOL    HW269797   2.108   6.814   5.311
22634SOL     OW69798   2.652   2.044   2.898
22634SOL    HW169799   2.704   2.062   2.976
22634SOL    HW269800   2.698   1.973   2.854
22635SOL     OW69801   5.448   8.648  10.249
22635SOL    HW169802   5.517   8.617  10.189
22635SOL    HW269803   5.495   8.703  10.312
22636SOL     OW69804   5.121   8.325   1.420
22636SOL    HW169805   5.150   8.410   1.386
22636SOL    HW269806   5.037   8.344   1.462
22637SOL     OW69807   8.682   6.378  12.448
22637SOL    HW169808   8.596   6.357  12.483
22637SOL    HW269809   8.676   6.356  12.355
22638SOL     OW69810  11.490   0.072   6.075
22638SOL    HW169811  11.432   0.016   6.127
22638SOL    HW269812  11.450   0.075   5.988
22639SOL     OW69813   7.892   4.355   2.868
22639SOL    HW169814   7.821   4.373   2.930
22639SOL    HW269815   7.861   4.388   2.784
22640SOL     OW69816   8.548  10.381   6.163
22640SOL    HW169817   8.485  10.452   6.175
22640SOL    HW269818   8.542  10.331   6.244
22641SOL     OW69819  11.321   7.576   3.977
22641SOL    HW169820  11.307   7.517   4.051
22641SOL    HW269821  11.384   7.640   4.010
22642SOL     OW69822   0.949   8.791  14.110
22642SOL    HW169823   0.879   8.855  14.098
22642SOL    HW269824   1.025   8.843  14.136
22643SOL     OW69825   3.947   2.989   8.209
22643SOL    HW169826   3.868   2.937   8.224
22643SOL    HW269827   3.929   3.072   8.253
22644SOL     OW69828  10.329  11.824   3.755
22644SOL    HW169829  10.386  11.792   3.824
22644SOL    HW269830  10.273  11.888   3.798
22645SOL     OW69831   5.298   4.764  13.087
22645SOL    HW169832   5.246   4.728  13.015
22645SOL    HW269833   5.241   4.757  13.164
22646SOL     OW69834   7.669   0.213  13.146
22646SOL    HW169835   7.636   0.281  13.204
22646SOL    HW269836   7.735   0.257  13.092
22647SOL     OW69837   8.303   1.080  12.982
22647SOL    HW169838   8.242   1.045  13.047
22647SOL    HW269839   8.302   1.017  12.910
22648SOL     OW69840   9.431   1.472   7.231
22648SOL    HW169841   9.396   1.521   7.156
22648SOL    HW269842   9.355   1.432   7.272
22649SOL     OW69843   7.167   7.555   9.586
22649SOL    HW169844   7.146   7.462   9.592
22649SOL    HW269845   7.138   7.580   9.498
22650SOL     OW69846  11.470   1.136   4.443
22650SOL    HW169847  11.420   1.205   4.486
22650SOL    HW269848  11.558   1.143   4.481
22651SOL     OW69849   7.685   3.437  10.297
22651SOL    HW169850   7.644   3.386  10.226
22651SOL    HW269851   7.772   3.459  10.264
22652SOL     OW69852   5.594   0.045  10.015
22652SOL    HW169853   5.536  14.867   9.955
22652SOL    HW269854   5.630   0.116   9.961
22653SOL     OW69855  14.764   6.337   4.977
22653SOL    HW169856  14.680   6.332   4.933
22653SOL    HW269857  14.742   6.345   5.070
22654SOL     OW69858  13.547   0.214   5.572
22654SOL    HW169859  13.538   0.119   5.568
22654SOL    HW269860  13.539   0.235   5.666
22655SOL     OW69861   8.273   7.304   9.743
22655SOL    HW169862   8.264   7.333   9.834
22655SOL    HW269863   8.216   7.227   9.738
22656SOL     OW69864   4.750   4.688   8.332
22656SOL    HW169865   4.694   4.674   8.256
22656SOL    HW269866   4.827   4.733   8.297
22657SOL     OW69867   5.183   5.951  12.885
22657SOL    HW169868   5.095   5.924  12.861
22657SOL    HW269869   5.189   5.935  12.979
22658SOL     OW69870   5.406   1.634   5.042
22658SOL    HW169871   5.354   1.665   5.116
22658SOL    HW269872   5.425   1.542   5.063
22659SOL     OW69873   9.897   7.925   4.160
22659SOL    HW169874   9.915   8.015   4.189
22659SOL    HW269875   9.925   7.871   4.234
22660SOL     OW69876   4.634  13.131  10.564
22660SOL    HW169877   4.591  13.175  10.637
22660SOL    HW269878   4.564  13.118  10.500
22661SOL     OW69879   5.540   3.315   9.383
22661SOL    HW169880   5.634   3.334   9.392
22661SOL    HW269881   5.499   3.402   9.377
22662SOL     OW69882   2.622   3.846   7.602
22662SOL    HW169883   2.575   3.894   7.534
22662SOL    HW269884   2.702   3.815   7.559
22663SOL     OW69885   1.007   1.443   2.099
22663SOL    HW169886   1.082   1.500   2.112
22663SOL    HW269887   0.940   1.500   2.061
22664SOL     OW69888  11.447  13.247   5.848
22664SOL    HW169889  11.440  13.289   5.763
22664SOL    HW269890  11.533  13.205   5.847
22665SOL     OW69891   6.415   0.255   7.934
22665SOL    HW169892   6.502   0.269   7.896
22665SOL    HW269893   6.356   0.305   7.878
22666SOL     OW69894   6.724  14.559  12.416
22666SOL    HW169895   6.682  14.492  12.363
22666SOL    HW269896   6.755  14.624  12.353
22667SOL     OW69897   7.245  13.655  11.721
22667SOL    HW169898   7.185  13.584  11.695
22667SOL    HW269899   7.293  13.675  11.640
22668SOL     OW69900   2.626   9.293  14.564
22668SOL    HW169901   2.549   9.279  14.619
22668SOL    HW269902   2.698   9.255  14.614
22669SOL     OW69903   8.959   5.241   4.222
22669SOL    HW169904   8.925   5.308   4.161
22669SOL    HW269905   8.881   5.209   4.267
22670SOL     OW69906   5.225   3.671   0.404
22670SOL    HW169907   5.129   3.680   0.407
22670SOL    HW269908   5.240   3.593   0.351
22671SOL     OW69909   1.455   3.156  11.453
22671SOL    HW169910   1.401   3.134  11.376
22671SOL    HW269911   1.475   3.249  11.442
22672SOL     OW69912   7.740   7.986   3.983
22672SOL    HW169913   7.763   8.058   4.041
22672SOL    HW269914   7.738   8.025   3.895
22673SOL     OW69915   9.323  11.162  11.956
22673SOL    HW169916   9.403  11.121  11.922
22673SOL    HW269917   9.353  11.242  11.997
22674SOL     OW69918  10.366   5.251  13.530
22674SOL    HW169919  10.317   5.266  13.612
22674SOL    HW269920  10.334   5.319  13.471
22675SOL     OW69921  13.473   6.220  13.080
22675SOL    HW169922  13.546   6.230  13.019
22675SOL    HW269923  13.401   6.269  13.040
22676SOL     OW69924   5.544   7.307   7.594
22676SOL    HW169925   5.470   7.349   7.551
22676SOL    HW269926   5.520   7.214   7.597
22677SOL     OW69927   4.793   1.431   9.089
22677SOL    HW169928   4.697   1.434   9.086
22677SOL    HW269929   4.815   1.460   9.177
22678SOL     OW69930   0.908  10.197  10.374
22678SOL    HW169931   0.951  10.150  10.445
22678SOL    HW269932   0.916  10.289  10.399
22679SOL     OW69933  12.088   4.504   2.848
22679SOL    HW169934  12.139   4.517   2.769
22679SOL    HW269935  12.034   4.583   2.855
22680SOL     OW69936  12.834  14.479  12.445
22680SOL    HW169937  12.861  14.514  12.530
22680SOL    HW269938  12.757  14.531  12.421
22681SOL     OW69939  13.215   9.205  12.752
22681SOL    HW169940  13.143   9.177  12.808
22681SOL    HW269941  13.204   9.300  12.743
22682SOL     OW69942  12.170  13.210   4.962
22682SOL    HW169943  12.176  13.296   4.922
22682SOL    HW269944  12.111  13.222   5.037
22683SOL     OW69945   5.736   6.275   7.502
22683SOL    HW169946   5.696   6.316   7.426
22683SOL    HW269947   5.697   6.320   7.577
22684SOL     OW69948   9.282   4.702   8.573
22684SOL    HW169949   9.298   4.796   8.566
22684SOL    HW269950   9.228   4.692   8.651
22685SOL     OW69951   5.322   3.525   9.923
22685SOL    HW169952   5.383   3.598   9.933
22685SOL    HW269953   5.258   3.537   9.993
22686SOL     OW69954  11.917   9.122   2.069
22686SOL    HW169955  11.853   9.168   2.123
22686SOL    HW269956  11.895   9.145   1.979
22687SOL     OW69957   9.131   7.478   7.063
22687SOL    HW169958   9.103   7.387   7.053
22687SOL    HW269959   9.194   7.492   6.993
22688SOL     OW69960   4.846   3.374   6.949
22688SOL    HW169961   4.937   3.384   6.978
22688SOL    HW269962   4.819   3.290   6.985
22689SOL     OW69963  10.822   2.173   8.622
22689SOL    HW169964  10.828   2.078   8.613
22689SOL    HW269965  10.897   2.197   8.676
22690SOL     OW69966   8.575   0.667   6.464
22690SOL    HW169967   8.514   0.599   6.494
22690SOL    HW269968   8.587   0.724   6.540
22691SOL     OW69969   1.113  12.782   7.657
22691SOL    HW169970   1.201  12.767   7.622
22691SOL    HW269971   1.097  12.876   7.642
22692SOL     OW69972  12.741   9.234   4.756
22692SOL    HW169973  12.811   9.237   4.690
22692SOL    HW269974  12.762   9.306   4.816
22693SOL     OW69975   4.452   4.860   3.376
22693SOL    HW169976   4.458   4.903   3.291
22693SOL    HW269977   4.407   4.924   3.432
22694SOL     OW69978  12.167  12.665   9.313
22694SOL    HW169979  12.219  12.746   9.318
22694SOL    HW269980  12.104  12.681   9.243
22695SOL     OW69981   8.532   7.246   8.248
22695SOL    HW169982   8.565   7.158   8.234
22695SOL    HW269983   8.481   7.266   8.169
22696SOL     OW69984   4.479  10.089   6.490
22696SOL    HW169985   4.512  10.169   6.532
22696SOL    HW269986   4.454  10.117   6.402
22697SOL     OW69987   5.419   7.343  14.652
22697SOL    HW169988   5.438   7.374  14.740
22697SOL    HW269989   5.393   7.252  14.663
22698SOL     OW69990  10.040   5.375  11.270
22698SOL    HW169991  10.032   5.281  11.254
22698SOL    HW269992   9.953   5.410  11.252
22699SOL     OW69993  12.908  12.818  13.738
22699SOL    HW169994  12.894  12.756  13.667
22699SOL    HW269995  12.957  12.890  13.698
22700SOL     OW69996  14.825   2.202  13.889
22700SOL    HW169997  14.843   2.120  13.934
22700SOL    HW269998  14.763   2.248  13.945
22701SOL     OW69999  13.352  10.912   6.903
22701SOL    HW170000  13.328  10.900   6.995
22701SOL    HW270001  13.434  10.864   6.894
22702SOL     OW70002   6.839   5.122   7.355
22702SOL    HW170003   6.788   5.155   7.281
22702SOL    HW270004   6.776   5.117   7.427
22703SOL     OW70005   7.394  14.238  10.927
22703SOL    HW170006   7.315  14.292  10.938
22703SOL    HW270007   7.374  14.157  10.974
22704SOL     OW70008  10.108   3.365   8.219
22704SOL    HW170009  10.109   3.298   8.151
22704SOL    HW270010  10.079   3.445   8.174
22705SOL     OW70011  14.252   2.238   7.542
22705SOL    HW170012  14.256   2.150   7.506
22705SOL    HW270013  14.191   2.231   7.616
22706SOL     OW70014   9.255  14.759  10.525
22706SOL    HW170015   9.254  14.852  10.548
22706SOL    HW270016   9.185  14.749  10.461
22707SOL     OW70017  13.598  12.565   3.279
22707SOL    HW170018  13.519  12.605   3.315
22707SOL    HW270019  13.581  12.559   3.185
22708SOL     OW70020   0.067   3.673  13.252
22708SOL    HW170021   0.130   3.646  13.319
22708SOL    HW270022   0.103   3.753  13.214
22709SOL     OW70023  11.258   0.080  11.167
22709SOL    HW170024  11.328   0.021  11.141
22709SOL    HW270025  11.289   0.121  11.248
22710SOL     OW70026   0.069  12.739   1.746
22710SOL    HW170027   0.141  12.795   1.777
22710SOL    HW270028   0.039  12.782   1.665
22711SOL     OW70029  11.253   9.815   1.185
22711SOL    HW170030  11.185   9.774   1.130
22711SOL    HW270031  11.207   9.838   1.265
22712SOL     OW70032   8.031   3.705  13.524
22712SOL    HW170033   8.052   3.612  13.519
22712SOL    HW270034   7.954   3.715  13.468
22713SOL     OW70035  14.606   0.412  11.130
22713SOL    HW170036  14.544   0.410  11.056
22713SOL    HW270037  14.681   0.362  11.099
22714SOL     OW70038  14.526   9.847   5.044
22714SOL    HW170039  14.545   9.830   4.952
22714SOL    HW270040  14.468   9.775   5.071
22715SOL     OW70041  14.481   2.699  12.644
22715SOL    HW170042  14.533   2.761  12.696
22715SOL    HW270043  14.466   2.743  12.561
22716SOL     OW70044   1.311  12.463   1.959
22716SOL    HW170045   1.319  12.368   1.949
22716SOL    HW270046   1.311  12.497   1.869
22717SOL     OW70047   4.544  10.018   8.335
22717SOL    HW170048   4.524   9.931   8.371
22717SOL    HW270049   4.487  10.025   8.259
22718SOL     OW70050   8.030  10.181   1.176
22718SOL    HW170051   8.049  10.224   1.092
22718SOL    HW270052   7.965  10.114   1.154
22719SOL     OW70053   6.179   4.937   5.287
22719SOL    HW170054   6.211   5.025   5.307
22719SOL    HW270055   6.167   4.896   5.372
22720SOL     OW70056  13.728   5.531  10.902
22720SOL    HW170057  13.808   5.569  10.866
22720SOL    HW270058  13.747   5.516  10.994
22721SOL     OW70059  10.520  11.750   1.149
22721SOL    HW170060  10.616  11.750   1.144
22721SOL    HW270061  10.495  11.839   1.124
22722SOL     OW70062   5.863   0.469   9.656
22722SOL    HW170063   5.774   0.499   9.673
22722SOL    HW270064   5.899   0.449   9.743
22723SOL     OW70065   3.999   9.333   7.944
22723SOL    HW170066   3.934   9.363   8.008
22723SOL    HW270067   4.081   9.327   7.993
22724SOL     OW70068   1.138   4.543   2.605
22724SOL    HW170069   1.087   4.571   2.681
22724SOL    HW270070   1.226   4.577   2.621
22725SOL     OW70071  14.709   9.452   2.464
22725SOL    HW170072  14.746   9.532   2.503
22725SOL    HW270073  14.784   9.392   2.458
22726SOL     OW70074  13.832  14.636   8.227
22726SOL    HW170075  13.845  14.542   8.216
22726SOL    HW270076  13.749  14.654   8.182
22727SOL     OW70077  13.964   7.327   9.058
22727SOL    HW170078  14.044   7.315   9.109
22727SOL    HW270079  13.994   7.329   8.967
22728SOL     OW70080  10.802  11.741   2.697
22728SOL    HW170081  10.760  11.779   2.774
22728SOL    HW270082  10.736  11.681   2.661
22729SOL     OW70083   2.963   2.589   4.156
22729SOL    HW170084   2.973   2.500   4.122
22729SOL    HW270085   2.937   2.577   4.248
22730SOL     OW70086   3.695   4.037   5.865
22730SOL    HW170087   3.638   4.111   5.842
22730SOL    HW270088   3.774   4.077   5.900
22731SOL     OW70089  10.493   8.015   5.767
22731SOL    HW170090  10.507   8.105   5.797
22731SOL    HW270091  10.472   7.966   5.847
22732SOL     OW70092   7.800   7.732   2.790
22732SOL    HW170093   7.747   7.812   2.785
22732SOL    HW270094   7.786   7.699   2.879
22733SOL     OW70095   1.784   0.798   8.170
22733SOL    HW170096   1.805   0.721   8.224
22733SOL    HW270097   1.689   0.805   8.175
22734SOL     OW70098   5.724  13.674   3.055
22734SOL    HW170099   5.725  13.708   2.965
22734SOL    HW270100   5.631  13.673   3.079
22735SOL     OW70101   2.573  10.341  11.982
22735SOL    HW170102   2.596  10.415  11.926
22735SOL    HW270103   2.598  10.263  11.931
22736SOL     OW70104   8.330   5.542   6.290
22736SOL    HW170105   8.317   5.448   6.305
22736SOL    HW270106   8.252   5.571   6.243
22737SOL     OW70107   5.755   0.509   9.367
22737SOL    HW170108   5.732   0.418   9.347
22737SOL    HW270109   5.776   0.508   9.461
22738SOL     OW70110   2.073   4.939   3.761
22738SOL    HW170111   2.122   4.859   3.774
22738SOL    HW270112   1.981   4.912   3.763
22739SOL     OW70113   0.123   5.065  14.841
22739SOL    HW170114   0.147   5.086   0.061
22739SOL    HW270115   0.137   5.147  14.793
22740SOL     OW70116  10.707   8.505  14.838
22740SOL    HW170117  10.703   8.490  14.743
22740SOL    HW270118  10.705   8.417   0.006
22741SOL     OW70119  13.454  14.794  10.453
22741SOL    HW170120  13.423  14.710  10.486
22741SOL    HW270121  13.431  14.794  10.360
22742SOL     OW70122   7.240   6.838   4.707
22742SOL    HW170123   7.300   6.834   4.781
22742SOL    HW270124   7.231   6.931   4.687
22743SOL     OW70125  14.039  11.913   7.678
22743SOL    HW170126  14.073  11.898   7.766
22743SOL    HW270127  14.081  11.994   7.650
22744SOL     OW70128   2.249   7.176  14.133
22744SOL    HW170129   2.211   7.140  14.053
22744SOL    HW270130   2.328   7.123  14.147
22745SOL     OW70131   9.746   8.338  14.742
22745SOL    HW170132   9.765   8.329  14.648
22745SOL    HW270133   9.652   8.355  14.746
22746SOL     OW70134  11.582   5.454   4.395
22746SOL    HW170135  11.577   5.418   4.306
22746SOL    HW270136  11.603   5.547   4.383
22747SOL     OW70137  10.612   5.298  14.124
22747SOL    HW170138  10.572   5.365  14.179
22747SOL    HW270139  10.554   5.292  14.048
22748SOL     OW70140   9.344   8.356  11.589
22748SOL    HW170141   9.389   8.432  11.626
22748SOL    HW270142   9.387   8.281  11.629
22749SOL     OW70143   9.353   1.373   0.783
22749SOL    HW170144   9.320   1.437   0.720
22749SOL    HW270145   9.349   1.419   0.867
22750SOL     OW70146   2.784   5.148  14.822
22750SOL    HW170147   2.742   5.229  14.851
22750SOL    HW270148   2.759   5.140  14.729
22751SOL     OW70149  13.167  11.861  10.659
22751SOL    HW170150  13.254  11.821  10.661
22751SOL    HW270151  13.138  11.852  10.568
22752SOL     OW70152  13.099  10.166   7.859
22752SOL    HW170153  13.139  10.194   7.777
22752SOL    HW270154  13.056  10.083   7.837
22753SOL     OW70155  10.995  13.119   2.570
22753SOL    HW170156  10.978  13.136   2.662
22753SOL    HW270157  11.078  13.164   2.551
22754SOL     OW70158   2.327   0.943   1.675
22754SOL    HW170159   2.397   1.007   1.659
22754SOL    HW270160   2.311   0.948   1.769
22755SOL     OW70161   0.707   4.701   2.204
22755SOL    HW170162   0.640   4.696   2.135
22755SOL    HW270163   0.776   4.642   2.174
22756SOL     OW70164   2.194   1.606   4.295
22756SOL    HW170165   2.232   1.615   4.208
22756SOL    HW270166   2.163   1.694   4.317
22757SOL     OW70167  12.442   3.611   9.218
22757SOL    HW170168  12.390   3.546   9.171
22757SOL    HW270169  12.382   3.683   9.235
22758SOL     OW70170   6.985   4.204   0.712
22758SOL    HW170171   7.027   4.192   0.627
22758SOL    HW270172   6.965   4.115   0.742
22759SOL     OW70173   7.131   9.520   5.904
22759SOL    HW170174   7.140   9.612   5.931
22759SOL    HW270175   7.051   9.519   5.851
22760SOL     OW70176   3.472   0.807   8.156
22760SOL    HW170177   3.513   0.774   8.236
22760SOL    HW270178   3.420   0.882   8.185
22761SOL     OW70179   7.975   1.087  13.818
22761SOL    HW170180   7.970   0.995  13.845
22761SOL    HW270181   8.013   1.084  13.730
22762SOL     OW70182   4.003   6.300   1.672
22762SOL    HW170183   4.038   6.339   1.753
22762SOL    HW270184   3.981   6.210   1.696
22763SOL     OW70185   6.571  11.450  10.967
22763SOL    HW170186   6.512  11.492  10.905
22763SOL    HW270187   6.657  11.487  10.948
22764SOL     OW70188   3.909  13.190   8.021
22764SOL    HW170189   3.878  13.209   7.932
22764SOL    HW270190   3.875  13.263   8.073
22765SOL     OW70191   0.014   6.162   3.780
22765SOL    HW170192  14.853   6.107   3.708
22765SOL    HW270193   0.092   6.205   3.746
22766SOL     OW70194  12.920  12.051  11.907
22766SOL    HW170195  12.847  12.113  11.901
22766SOL    HW270196  12.935  12.042  12.001
22767SOL     OW70197   6.530   1.755   3.618
22767SOL    HW170198   6.459   1.815   3.595
22767SOL    HW270199   6.505   1.722   3.705
22768SOL     OW70200  10.241  13.522  10.064
22768SOL    HW170201  10.200  13.606  10.046
22768SOL    HW270202  10.320  13.544  10.114
22769SOL     OW70203   4.643  13.815   1.842
22769SOL    HW170204   4.702  13.756   1.794
22769SOL    HW270205   4.629  13.889   1.783
22770SOL     OW70206  13.612  12.705   7.165
22770SOL    HW170207  13.620  12.652   7.245
22770SOL    HW270208  13.642  12.792   7.190
22771SOL     OW70209  10.225  12.496   8.798
22771SOL    HW170210  10.181  12.436   8.858
22771SOL    HW270211  10.170  12.574   8.796
22772SOL     OW70212   4.906   5.432   7.178
22772SOL    HW170213   5.000   5.449   7.184
22772SOL    HW270214   4.864   5.510   7.214
22773SOL     OW70215  13.092  13.700   7.127
22773SOL    HW170216  13.022  13.678   7.188
22773SOL    HW270217  13.064  13.781   7.086
22774SOL     OW70218  13.388  14.170   0.542
22774SOL    HW170219  13.429  14.087   0.517
22774SOL    HW270220  13.434  14.195   0.622
22775SOL     OW70221   6.066   1.433  14.727
22775SOL    HW170222   5.987   1.487  14.727
22775SOL    HW270223   6.089   1.425  14.819
22776SOL     OW70224   5.871   5.102  11.093
22776SOL    HW170225   5.787   5.136  11.126
22776SOL    HW270226   5.925   5.179  11.081
22777SOL     OW70227   8.939   0.954  12.551
22777SOL    HW170228   8.888   0.883  12.510
22777SOL    HW270229   9.028   0.942  12.518
22778SOL     OW70230   1.463  11.774  12.234
22778SOL    HW170231   1.383  11.744  12.190
22778SOL    HW270232   1.448  11.756  12.327
22779SOL     OW70233   1.121  11.979   3.567
22779SOL    HW170234   1.041  11.926   3.573
22779SOL    HW270235   1.164  11.968   3.651
22780SOL     OW70236   8.916   8.335   4.703
22780SOL    HW170237   8.953   8.423   4.714
22780SOL    HW270238   8.840   8.334   4.760
22781SOL     OW70239  13.894  13.258  12.498
22781SOL    HW170240  13.856  13.214  12.422
22781SOL    HW270241  13.977  13.213  12.514
22782SOL     OW70242  13.209   9.959  14.168
22782SOL    HW170243  13.237   9.987  14.081
22782SOL    HW270244  13.148  10.027  14.197
22783SOL     OW70245   1.433  10.523   0.547
22783SOL    HW170246   1.367  10.518   0.479
22783SOL    HW270247   1.516  10.510   0.501
22784SOL     OW70248   2.933   9.113  11.386
22784SOL    HW170249   3.002   9.179  11.380
22784SOL    HW270250   2.933   9.070  11.301
22785SOL     OW70251   3.495  13.105  12.185
22785SOL    HW170252   3.535  13.067  12.264
22785SOL    HW270253   3.404  13.122  12.210
22786SOL     OW70254  12.885   2.928   0.507
22786SOL    HW170255  12.975   2.961   0.503
22786SOL    HW270256  12.858   2.944   0.598
22787SOL     OW70257  11.703   7.519   9.140
22787SOL    HW170258  11.672   7.457   9.206
22787SOL    HW270259  11.723   7.599   9.190
22788SOL     OW70260   7.567   7.809   8.009
22788SOL    HW170261   7.559   7.904   8.014
22788SOL    HW270262   7.589   7.782   8.098
22789SOL     OW70263   0.131   1.398   3.874
22789SOL    HW170264   0.197   1.344   3.917
22789SOL    HW270265   0.145   1.486   3.909
22790SOL     OW70266   9.947  13.362   2.150
22790SOL    HW170267   9.863  13.371   2.104
22790SOL    HW270268   9.938  13.418   2.227
22791SOL     OW70269  10.870  11.620   3.439
22791SOL    HW170270  10.782  11.615   3.402
22791SOL    HW270271  10.858  11.670   3.521
22792SOL     OW70272   8.615   5.588  13.892
22792SOL    HW170273   8.595   5.632  13.975
22792SOL    HW270274   8.672   5.515  13.917
22793SOL     OW70275   6.467   9.973   8.903
22793SOL    HW170276   6.534  10.002   8.842
22793SOL    HW270277   6.424   9.900   8.858
22794SOL     OW70278   0.992   2.616   4.930
22794SOL    HW170279   0.968   2.562   4.854
22794SOL    HW270280   1.002   2.553   5.002
22795SOL     OW70281   2.585  12.049   6.542
22795SOL    HW170282   2.538  11.979   6.587
22795SOL    HW270283   2.565  12.128   6.592
22796SOL     OW70284   3.257   3.904   2.419
22796SOL    HW170285   3.165   3.922   2.399
22796SOL    HW270286   3.305   3.942   2.345
22797SOL     OW70287   2.041  12.415   3.199
22797SOL    HW170288   2.020  12.323   3.186
22797SOL    HW270289   1.976  12.446   3.262
22798SOL     OW70290  13.011  13.783  10.001
22798SOL    HW170291  13.091  13.774   9.949
22798SOL    HW270292  13.012  13.708  10.060
22799SOL     OW70293   1.491  13.432  12.463
22799SOL    HW170294   1.421  13.498  12.455
22799SOL    HW270295   1.494  13.411  12.556
22800SOL     OW70296   4.798  12.971   4.821
22800SOL    HW170297   4.710  12.933   4.822
22800SOL    HW270298   4.839  12.938   4.901
22801SOL     OW70299  13.570   2.601   0.985
22801SOL    HW170300  13.579   2.651   1.066
22801SOL    HW270301  13.655   2.558   0.973
22802SOL     OW70302  13.469   7.068   5.554
22802SOL    HW170303  13.535   7.126   5.593
22802SOL    HW270304  13.443   7.112   5.473
22803SOL     OW70305   9.162  11.254   7.746
22803SOL    HW170306   9.100  11.182   7.740
22803SOL    HW270307   9.124  11.313   7.811
22804SOL     OW70308  10.136  13.208  10.523
22804SOL    HW170309  10.149  13.172  10.435
22804SOL    HW270310  10.115  13.131  10.577
22805SOL     OW70311  12.431   1.483   4.813
22805SOL    HW170312  12.493   1.425   4.769
22805SOL    HW270313  12.419   1.556   4.752
22806SOL     OW70314  11.504  13.092   4.144
22806SOL    HW170315  11.567  13.113   4.074
22806SOL    HW270316  11.535  13.141   4.220
22807SOL     OW70317   0.993   7.072  12.038
22807SOL    HW170318   0.950   7.137  12.093
22807SOL    HW270319   1.038   7.123  11.971
22808SOL     OW70320   2.790   5.982   3.849
22808SOL    HW170321   2.749   6.032   3.778
22808SOL    HW270322   2.755   5.893   3.839
22809SOL     OW70323   9.033   8.160   8.151
22809SOL    HW170324   9.095   8.230   8.169
22809SOL    HW270325   8.987   8.146   8.233
22810SOL     OW70326  11.497   9.030  13.987
22810SOL    HW170327  11.585   9.067  13.984
22810SOL    HW270328  11.462   9.044  13.899
22811SOL     OW70329   9.756  12.919   3.974
22811SOL    HW170330   9.707  12.955   4.048
22811SOL    HW270331   9.841  12.895   4.010
22812SOL     OW70332   7.461   3.144  11.193
22812SOL    HW170333   7.424   3.205  11.130
22812SOL    HW270334   7.546   3.120  11.157
22813SOL     OW70335   0.489  10.207   9.989
22813SOL    HW170336   0.525  10.294   9.973
22813SOL    HW270337   0.562  10.158  10.029
22814SOL     OW70338  13.625   0.102   3.269
22814SOL    HW170339  13.529   0.108   3.267
22814SOL    HW270340  13.654   0.194   3.266
22815SOL     OW70341   0.990   5.076   5.708
22815SOL    HW170342   1.013   5.024   5.785
22815SOL    HW270343   1.046   5.154   5.714
22816SOL     OW70344   9.325  10.783   0.509
22816SOL    HW170345   9.371  10.707   0.544
22816SOL    HW270346   9.386  10.856   0.523
22817SOL     OW70347   4.241  13.388  13.706
22817SOL    HW170348   4.205  13.387  13.794
22817SOL    HW270349   4.184  13.447  13.657
22818SOL     OW70350   8.868   5.404   4.045
22818SOL    HW170351   8.782   5.364   4.029
22818SOL    HW270352   8.866   5.486   3.996
22819SOL     OW70353   1.983  12.177  13.675
22819SOL    HW170354   1.935  12.244  13.626
22819SOL    HW270355   2.065  12.219  13.700
22820SOL     OW70356  13.360   7.914  14.791
22820SOL    HW170357  13.304   7.949  14.722
22820SOL    HW270358  13.435   7.974  14.794
22821SOL     OW70359   5.289   5.900   8.295
22821SOL    HW170360   5.369   5.944   8.323
22821SOL    HW270361   5.240   5.969   8.249
22822SOL     OW70362  11.579   7.546  12.194
22822SOL    HW170363  11.605   7.473  12.251
22822SOL    HW270364  11.622   7.528  12.111
22823SOL     OW70365   3.450   0.909   1.364
22823SOL    HW170366   3.426   0.867   1.281
22823SOL    HW270367   3.514   0.850   1.403
22824SOL     OW70368   7.439   5.765   7.316
22824SOL    HW170369   7.436   5.815   7.235
22824SOL    HW270370   7.516   5.708   7.306
22825SOL     OW70371   8.698   6.685   3.086
22825SOL    HW170372   8.781   6.639   3.100
22825SOL    HW270373   8.681   6.674   2.992
22826SOL     OW70374   0.519   5.465   4.520
22826SOL    HW170375   0.543   5.392   4.577
22826SOL    HW270376   0.589   5.470   4.455
22827SOL     OW70377  11.480   7.844   3.201
22827SOL    HW170378  11.430   7.891   3.269
22827SOL    HW270379  11.451   7.753   3.210
22828SOL     OW70380   4.003  13.821   2.110
22828SOL    HW170381   4.090  13.844   2.080
22828SOL    HW270382   3.961  13.781   2.033
22829SOL     OW70383  10.176   7.340   8.552
22829SOL    HW170384  10.212   7.343   8.640
22829SOL    HW270385  10.238   7.287   8.502
22830SOL     OW70386   2.937  11.982   8.341
22830SOL    HW170387   3.030  11.966   8.357
22830SOL    HW270388   2.929  11.986   8.246
22831SOL     OW70389  11.796   3.426  13.671
22831SOL    HW170390  11.777   3.344  13.625
22831SOL    HW270391  11.712   3.454  13.705
22832SOL     OW70392  10.894  12.632   9.521
22832SOL    HW170393  10.921  12.642   9.429
22832SOL    HW270394  10.800  12.610   9.516
22833SOL     OW70395   0.070  14.105   3.295
22833SOL    HW170396   0.120  14.052   3.232
22833SOL    HW270397   0.017  14.041   3.342
22834SOL     OW70398   2.773  12.592   2.827
22834SOL    HW170399   2.844  12.529   2.836
22834SOL    HW270400   2.754  12.620   2.917
22835SOL     OW70401   3.690   1.442   5.598
22835SOL    HW170402   3.685   1.432   5.503
22835SOL    HW270403   3.600   1.429   5.628
22836SOL     OW70404   1.703  14.677  10.243
22836SOL    HW170405   1.647  14.747  10.277
22836SOL    HW270406   1.785  14.686  10.292
22837SOL     OW70407  14.332   9.465   9.160
22837SOL    HW170408  14.390   9.403   9.202
22837SOL    HW270409  14.326   9.538   9.221
22838SOL     OW70410   8.607   4.086  10.613
22838SOL    HW170411   8.696   4.065  10.585
22838SOL    HW270412   8.611   4.178  10.639
22839SOL     OW70413  13.379  12.581   5.568
22839SOL    HW170414  13.455  12.577   5.510
22839SOL    HW270415  13.361  12.675   5.576
22840SOL     OW70416   4.700   1.017   3.975
22840SOL    HW170417   4.629   1.065   3.931
22840SOL    HW270418   4.746   1.083   4.025
22841SOL     OW70419   2.924   2.875   9.264
22841SOL    HW170420   2.997   2.916   9.309
22841SOL    HW270421   2.873   2.949   9.229
22842SOL     OW70422   4.966   0.807  12.457
22842SOL    HW170423   4.915   0.881  12.488
22842SOL    HW270424   5.008   0.772  12.536
22843SOL     OW70425  12.272   8.666   2.916
22843SOL    HW170426  12.180   8.685   2.896
22843SOL    HW270427  12.305   8.747   2.955
22844SOL     OW70428  10.459  13.122   3.477
22844SOL    HW170429  10.548  13.097   3.450
22844SOL    HW270430  10.473  13.191   3.543
22845SOL     OW70431   3.543   4.530  13.781
22845SOL    HW170432   3.636   4.549  13.777
22845SOL    HW270433   3.502   4.613  13.807
22846SOL     OW70434   9.680   1.591  13.726
22846SOL    HW170435   9.707   1.618  13.813
22846SOL    HW270436   9.590   1.622  13.717
22847SOL     OW70437   6.400  12.372   2.816
22847SOL    HW170438   6.476  12.314   2.817
22847SOL    HW270439   6.329  12.320   2.853
22848SOL     OW70440  14.612   6.068   7.667
22848SOL    HW170441  14.540   6.069   7.605
22848SOL    HW270442  14.573   6.095   7.750
22849SOL     OW70443   2.383   5.502  10.011
22849SOL    HW170444   2.335   5.496   9.928
22849SOL    HW270445   2.452   5.567   9.994
22850SOL     OW70446   4.371   6.543  11.042
22850SOL    HW170447   4.423   6.464  11.030
22850SOL    HW270448   4.430   6.614  11.020
22851SOL     OW70449   6.786  13.407  12.322
22851SOL    HW170450   6.830  13.480  12.365
22851SOL    HW270451   6.705  13.444  12.287
22852SOL     OW70452  14.467   8.527   0.960
22852SOL    HW170453  14.487   8.616   0.930
22852SOL    HW270454  14.371   8.526   0.968
22853SOL     OW70455  11.800   4.471   6.585
22853SOL    HW170456  11.768   4.397   6.534
22853SOL    HW270457  11.735   4.540   6.571
22854SOL     OW70458  14.420   6.950   7.250
22854SOL    HW170459  14.431   6.930   7.343
22854SOL    HW270460  14.475   7.027   7.235
22855SOL     OW70461   0.663  14.337   1.712
22855SOL    HW170462   0.754  14.341   1.684
22855SOL    HW270463   0.641  14.244   1.708
22856SOL     OW70464   0.950  11.253   5.764
22856SOL    HW170465   0.952  11.347   5.783
22856SOL    HW270466   0.954  11.248   5.668
22857SOL     OW70467   9.265   3.314  14.408
22857SOL    HW170468   9.271   3.272  14.323
22857SOL    HW270469   9.303   3.401  14.395
22858SOL     OW70470   9.424   7.253   7.083
22858SOL    HW170471   9.356   7.250   7.015
22858SOL    HW270472   9.503   7.280   7.037
22859SOL     OW70473  11.478  13.567   8.405
22859SOL    HW170474  11.411  13.519   8.357
22859SOL    HW270475  11.497  13.513   8.482
22860SOL     OW70476   6.136  14.434  12.867
22860SOL    HW170477   6.118  14.495  12.938
22860SOL    HW270478   6.230  14.443  12.851
22861SOL     OW70479   9.890  13.811  13.945
22861SOL    HW170480   9.832  13.754  13.995
22861SOL    HW270481   9.977  13.794  13.980
22862SOL     OW70482  11.975   5.235  14.803
22862SOL    HW170483  12.021   5.217  14.722
22862SOL    HW270484  12.043   5.263  14.864
22863SOL     OW70485  13.511   8.962  12.591
22863SOL    HW170486  13.509   9.057  12.576
22863SOL    HW270487  13.420   8.938  12.606
22864SOL     OW70488   2.018  12.270   3.617
22864SOL    HW170489   2.024  12.291   3.710
22864SOL    HW270490   1.930  12.298   3.591
22865SOL     OW70491   6.426   5.560  10.779
22865SOL    HW170492   6.520   5.572  10.768
22865SOL    HW270493   6.416   5.470  10.809
22866SOL     OW70494  13.543  11.850   9.369
22866SOL    HW170495  13.481  11.907   9.414
22866SOL    HW270496  13.490  11.800   9.307
22867SOL     OW70497  14.166   5.364   4.507
22867SOL    HW170498  14.102   5.304   4.467
22867SOL    HW270499  14.202   5.315   4.580
22868SOL     OW70500   4.155   5.692  11.658
22868SOL    HW170501   4.068   5.689  11.698
22868SOL    HW270502   4.151   5.766  11.598
22869SOL     OW70503   7.044   1.885   8.155
22869SOL    HW170504   6.966   1.928   8.120
22869SOL    HW270505   7.014   1.799   8.183
22870SOL     OW70506   2.045   7.766   1.981
22870SOL    HW170507   1.967   7.756   1.927
22870SOL    HW270508   2.015   7.819   2.056
22871SOL     OW70509   4.872  11.317   9.026
22871SOL    HW170510   4.864  11.223   9.043
22871SOL    HW270511   4.800  11.336   8.966
22872SOL     OW70512   7.466  12.105   8.526
22872SOL    HW170513   7.401  12.084   8.593
22872SOL    HW270514   7.490  12.196   8.543
22873SOL     OW70515   3.558   2.592  13.874
22873SOL    HW170516   3.590   2.656  13.810
22873SOL    HW270517   3.620   2.519  13.868
22874SOL     OW70518   5.531   7.145  13.610
22874SOL    HW170519   5.458   7.141  13.549
22874SOL    HW270520   5.499   7.102  13.689
22875SOL     OW70521   9.720  11.050   3.818
22875SOL    HW170522   9.740  11.055   3.724
22875SOL    HW270523   9.678  10.965   3.829
22876SOL     OW70524   9.040   1.669   2.753
22876SOL    HW170525   8.985   1.686   2.677
22876SOL    HW270526   9.092   1.592   2.728
22877SOL     OW70527   5.913   9.243  14.517
22877SOL    HW170528   5.884   9.225  14.607
22877SOL    HW270529   5.854   9.193  14.462
22878SOL     OW70530  13.892   1.760   0.365
22878SOL    HW170531  13.976   1.783   0.324
22878SOL    HW270532  13.862   1.684   0.315
22879SOL     OW70533   7.454  10.876   6.341
22879SOL    HW170534   7.401  10.796   6.335
22879SOL    HW270535   7.485  10.877   6.431
22880SOL     OW70536   6.682  11.483   8.788
22880SOL    HW170537   6.638  11.555   8.742
22880SOL    HW270538   6.670  11.408   8.730
22881SOL     OW70539   4.469   0.706   0.274
22881SOL    HW170540   4.539   0.771   0.267
22881SOL    HW270541   4.441   0.691   0.184
22882SOL     OW70542   9.440   6.910   8.326
22882SOL    HW170543   9.452   6.922   8.420
22882SOL    HW270544   9.512   6.853   8.300
22883SOL     OW70545  12.048  13.688   0.409
22883SOL    HW170546  11.987  13.649   0.472
22883SOL    HW270547  12.098  13.751   0.461
22884SOL     OW70548   9.683   3.374   2.358
22884SOL    HW170549   9.665   3.446   2.419
22884SOL    HW270550   9.702   3.299   2.415
22885SOL     OW70551  13.669   1.883   6.294
22885SOL    HW170552  13.639   1.842   6.375
22885SOL    HW270553  13.764   1.878   6.299
22886SOL     OW70554   8.326  11.747   7.163
22886SOL    HW170555   8.257  11.799   7.204
22886SOL    HW270556   8.287  11.718   7.080
22887SOL     OW70557  11.223   6.735   7.807
22887SOL    HW170558  11.271   6.817   7.819
22887SOL    HW270559  11.134   6.755   7.834
22888SOL     OW70560  10.379   5.767   0.270
22888SOL    HW170561  10.387   5.820   0.190
22888SOL    HW270562  10.412   5.681   0.246
22889SOL     OW70563  12.685   1.514  14.684
22889SOL    HW170564  12.698   1.565  14.765
22889SOL    HW270565  12.594   1.485  14.689
22890SOL     OW70566   3.410   6.437   6.281
22890SOL    HW170567   3.495   6.453   6.241
22890SOL    HW270568   3.421   6.356   6.331
22891SOL     OW70569   6.231  10.245   9.408
22891SOL    HW170570   6.185  10.293   9.340
22891SOL    HW270571   6.239  10.306   9.480
22892SOL     OW70572   1.968  10.756   6.410
22892SOL    HW170573   1.974  10.841   6.367
22892SOL    HW270574   1.947  10.695   6.339
22893SOL     OW70575  14.314   5.093   6.021
22893SOL    HW170576  14.351   5.056   5.942
22893SOL    HW270577  14.380   5.075   6.089
22894SOL     OW70578   4.858   2.595   3.544
22894SOL    HW170579   4.941   2.619   3.586
22894SOL    HW270580   4.871   2.506   3.513
22895SOL     OW70581   5.937   9.666   9.673
22895SOL    HW170582   5.948   9.654   9.767
22895SOL    HW270583   5.994   9.740   9.651
22896SOL     OW70584   9.129   2.180   1.102
22896SOL    HW170585   9.220   2.177   1.131
22896SOL    HW270586   9.090   2.251   1.154
22897SOL     OW70587  12.098   9.472  12.695
22897SOL    HW170588  12.046   9.462  12.616
22897SOL    HW270589  12.161   9.541  12.674
22898SOL     OW70590  10.264   6.842  11.077
22898SOL    HW170591  10.279   6.854  11.170
22898SOL    HW270592  10.234   6.752  11.068
22899SOL     OW70593   6.909  10.003   0.499
22899SOL    HW170594   6.900  10.006   0.404
22899SOL    HW270595   6.904  10.095   0.526
22900SOL     OW70596  10.106  11.601   3.503
22900SOL    HW170597  10.029  11.558   3.540
22900SOL    HW270598  10.072  11.655   3.432
22901SOL     OW70599   9.471   6.998   1.161
22901SOL    HW170600   9.507   6.909   1.162
22901SOL    HW270601   9.379   6.986   1.185
22902SOL     OW70602   3.088   0.615   7.486
22902SOL    HW170603   3.133   0.550   7.431
22902SOL    HW270604   3.155   0.644   7.548
22903SOL     OW70605  14.016  13.167   4.810
22903SOL    HW170606  14.034  13.228   4.882
22903SOL    HW270607  14.065  13.203   4.736
22904SOL     OW70608  10.315  10.532   5.658
22904SOL    HW170609  10.258  10.568   5.590
22904SOL    HW270610  10.312  10.437   5.644
22905SOL     OW70611   6.847  14.509   0.180
22905SOL    HW170612   6.786  14.517   0.107
22905SOL    HW270613   6.864  14.599   0.208
22906SOL     OW70614  11.890   3.357  14.811
22906SOL    HW170615  11.982   3.382  14.816
22906SOL    HW270616  11.846   3.413   0.006
22907SOL     OW70617   7.127  13.221   9.162
22907SOL    HW170618   7.104  13.296   9.217
22907SOL    HW270619   7.205  13.185   9.203
22908SOL     OW70620   4.948  14.439  10.106
22908SOL    HW170621   5.024  14.401  10.063
22908SOL    HW270622   4.904  14.365  10.147
22909SOL     OW70623   7.083   8.034   8.231
22909SOL    HW170624   7.011   8.060   8.174
22909SOL    HW270625   7.126   8.116   8.256
22910SOL     OW70626   3.093   5.910   1.625
22910SOL    HW170627   3.055   5.838   1.675
22910SOL    HW270628   3.027   5.979   1.628
22911SOL     OW70629   9.752  11.572   8.132
22911SOL    HW170630   9.682  11.633   8.152
22911SOL    HW270631   9.709  11.486   8.128
22912SOL     OW70632  13.356   5.544   6.906
22912SOL    HW170633  13.387   5.453   6.902
22912SOL    HW270634  13.264   5.538   6.879
22913SOL     OW70635   2.639  13.573   3.329
22913SOL    HW170636   2.718  13.621   3.305
22913SOL    HW270637   2.586  13.635   3.379
22914SOL     OW70638   2.585  11.084   6.298
22914SOL    HW170639   2.511  11.144   6.300
22914SOL    HW270640   2.589  11.048   6.387
22915SOL     OW70641  14.168  11.678  14.617
22915SOL    HW170642  14.162  11.695  14.523
22915SOL    HW270643  14.102  11.611  14.634
22916SOL     OW70644   5.180  12.450  12.494
22916SOL    HW170645   5.217  12.522  12.546
22916SOL    HW270646   5.086  12.467  12.494
22917SOL     OW70647   7.926   4.984  13.839
22917SOL    HW170648   7.926   4.889  13.852
22917SOL    HW270649   7.998   5.016  13.892
22918SOL     OW70650   8.834   6.946   0.475
22918SOL    HW170651   8.755   6.911   0.516
22918SOL    HW270652   8.893   6.964   0.548
22919SOL     OW70653  12.617   2.707   5.965
22919SOL    HW170654  12.549   2.770   5.942
22919SOL    HW270655  12.697   2.742   5.926
22920SOL     OW70656   2.141  10.273   1.424
22920SOL    HW170657   2.196  10.282   1.502
22920SOL    HW270658   2.099  10.359   1.414
22921SOL     OW70659  12.286  10.827   6.381
22921SOL    HW170660  12.296  10.838   6.287
22921SOL    HW270661  12.203  10.780   6.390
22922SOL     OW70662   3.569  14.358   8.745
22922SOL    HW170663   3.657  14.392   8.735
22922SOL    HW270664   3.555  14.303   8.668
22923SOL     OW70665   7.629   2.555   1.568
22923SOL    HW170666   7.576   2.592   1.638
22923SOL    HW270667   7.713   2.602   1.573
22924SOL     OW70668  11.906   2.431  11.622
22924SOL    HW170669  11.901   2.505  11.562
22924SOL    HW270670  11.981   2.380  11.591
22925SOL     OW70671  13.328   2.548   7.682
22925SOL    HW170672  13.378   2.534   7.602
22925SOL    HW270673  13.244   2.582   7.652
22926SOL     OW70674  13.545   5.389  13.964
22926SOL    HW170675  13.530   5.316  14.025
22926SOL    HW270676  13.568   5.346  13.881
22927SOL     OW70677   6.055  14.535   8.404
22927SOL    HW170678   5.990  14.537   8.474
22927SOL    HW270679   6.124  14.476   8.437
22928SOL     OW70680  10.567   7.975   4.097
22928SOL    HW170681  10.534   7.957   4.009
22928SOL    HW270682  10.662   7.971   4.089
22929SOL     OW70683   5.594   8.774  12.891
22929SOL    HW170684   5.562   8.861  12.914
22929SOL    HW270685   5.665   8.757  12.953
22930SOL     OW70686   5.472  10.377   5.071
22930SOL    HW170687   5.434  10.363   4.984
22930SOL    HW270688   5.459  10.470   5.089
22931SOL     OW70689   5.945   5.030   2.218
22931SOL    HW170690   5.902   4.973   2.283
22931SOL    HW270691   5.956   5.114   2.263
22932SOL     OW70692   4.704   1.252   0.154
22932SOL    HW170693   4.657   1.232   0.234
22932SOL    HW270694   4.637   1.285   0.094
22933SOL     OW70695   7.826   2.936   8.449
22933SOL    HW170696   7.903   2.952   8.394
22933SOL    HW270697   7.770   2.880   8.395
22934SOL     OW70698   1.190   0.591  12.748
22934SOL    HW170699   1.119   0.531  12.725
22934SOL    HW270700   1.146   0.672  12.775
22935SOL     OW70701   1.881   8.448   4.299
22935SOL    HW170702   1.786   8.461   4.295
22935SOL    HW270703   1.908   8.489   4.381
22936SOL     OW70704  11.280   9.612   5.417
22936SOL    HW170705  11.296   9.544   5.351
22936SOL    HW270706  11.230   9.567   5.486
22937SOL     OW70707   6.448   0.888  12.195
22937SOL    HW170708   6.393   0.811  12.205
22937SOL    HW270709   6.470   0.913  12.285
22938SOL     OW70710   6.041   6.588   8.478
22938SOL    HW170711   6.132   6.566   8.456
22938SOL    HW270712   6.001   6.505   8.503
22939SOL     OW70713   3.549   1.224   3.107
22939SOL    HW170714   3.568   1.195   3.018
22939SOL    HW270715   3.632   1.258   3.140
22940SOL     OW70716  10.334   6.881   7.910
22940SOL    HW170717  10.380   6.881   7.994
22940SOL    HW270718  10.275   6.806   7.914
22941SOL     OW70719   3.401   8.414   4.371
22941SOL    HW170720   3.372   8.386   4.458
22941SOL    HW270721   3.417   8.333   4.324
22942SOL     OW70722   2.513   6.209   4.551
22942SOL    HW170723   2.569   6.241   4.480
22942SOL    HW270724   2.499   6.116   4.531
22943SOL     OW70725   5.952  10.258   5.956
22943SOL    HW170726   5.993  10.290   6.037
22943SOL    HW270727   5.992  10.172   5.942
22944SOL     OW70728   8.789  11.206   4.496
22944SOL    HW170729   8.859  11.202   4.561
22944SOL    HW270730   8.723  11.144   4.530
22945SOL     OW70731   7.263   6.302  13.154
22945SOL    HW170732   7.340   6.353  13.178
22945SOL    HW270733   7.189   6.361  13.167
22946SOL     OW70734  10.712  11.654  11.690
22946SOL    HW170735  10.751  11.737  11.664
22946SOL    HW270736  10.632  11.647  11.637
22947SOL     OW70737   4.814   6.795  14.827
22947SOL    HW170738   4.832   6.711  14.869
22947SOL    HW270739   4.736   6.828   0.004
22948SOL     OW70740  10.972   3.073   9.357
22948SOL    HW170741  11.008   2.985   9.366
22948SOL    HW270742  10.986   3.096   9.265
22949SOL     OW70743   6.807  11.214   1.962
22949SOL    HW170744   6.744  11.276   1.928
22949SOL    HW270745   6.882  11.220   1.903
22950SOL     OW70746  12.385   5.982   4.394
22950SOL    HW170747  12.456   6.016   4.449
22950SOL    HW270748  12.412   5.893   4.373
22951SOL     OW70749  10.653   9.337  13.650
22951SOL    HW170750  10.569   9.359  13.609
22951SOL    HW270751  10.702   9.292  13.581
22952SOL     OW70752   2.952   1.765  10.341
22952SOL    HW170753   2.945   1.797  10.431
22952SOL    HW270754   2.916   1.836  10.287
22953SOL     OW70755  12.656   6.785   0.502
22953SOL    HW170756  12.640   6.740   0.419
22953SOL    HW270757  12.717   6.855   0.480
22954SOL     OW70758   2.375  14.289   2.153
22954SOL    HW170759   2.314  14.248   2.091
22954SOL    HW270760   2.380  14.226   2.225
22955SOL     OW70761   6.660   2.445  12.915
22955SOL    HW170762   6.659   2.430  12.820
22955SOL    HW270763   6.615   2.369  12.951
22956SOL     OW70764  11.895   2.927   6.673
22956SOL    HW170765  11.857   2.979   6.603
22956SOL    HW270766  11.863   2.838   6.657
22957SOL     OW70767   4.026   9.476   6.630
22957SOL    HW170768   3.950   9.419   6.645
22957SOL    HW270769   4.101   9.418   6.635
22958SOL     OW70770   0.195  13.794   5.992
22958SOL    HW170771   0.173  13.770   5.902
22958SOL    HW270772   0.149  13.730   6.046
22959SOL     OW70773  10.529   8.385   7.338
22959SOL    HW170774  10.486   8.442   7.274
22959SOL    HW270775  10.458   8.332   7.374
22960SOL     OW70776   7.829  11.996   6.908
22960SOL    HW170777   7.743  12.025   6.879
22960SOL    HW270778   7.834  12.022   7.000
22961SOL     OW70779  11.985   1.412  10.368
22961SOL    HW170780  12.010   1.326  10.334
22961SOL    HW270781  12.006   1.473  10.297
22962SOL     OW70782   3.840  11.576   2.752
22962SOL    HW170783   3.805  11.502   2.702
22962SOL    HW270784   3.935  11.572   2.735
22963SOL     OW70785  11.221  12.781   0.273
22963SOL    HW170786  11.239  12.706   0.215
22963SOL    HW270787  11.159  12.835   0.225
22964SOL     OW70788  11.413   5.901   5.463
22964SOL    HW170789  11.324   5.935   5.451
22964SOL    HW270790  11.410   5.814   5.423
22965SOL     OW70791  14.309  11.784  13.622
22965SOL    HW170792  14.261  11.702  13.637
22965SOL    HW270793  14.401  11.758  13.618
22966SOL     OW70794  14.123  10.049  10.138
22966SOL    HW170795  14.050  10.044  10.076
22966SOL    HW270796  14.116   9.970  10.191
22967SOL     OW70797   2.949   4.499   9.277
22967SOL    HW170798   2.980   4.464   9.194
22967SOL    HW270799   2.870   4.449   9.297
22968SOL     OW70800   5.231  10.011   7.244
22968SOL    HW170801   5.299  10.017   7.311
22968SOL    HW270802   5.173   9.942   7.276
22969SOL     OW70803   8.827   8.239   0.348
22969SOL    HW170804   8.783   8.179   0.288
22969SOL    HW270805   8.880   8.182   0.405
22970SOL     OW70806   9.436   6.325   6.908
22970SOL    HW170807   9.521   6.368   6.901
22970SOL    HW270808   9.437   6.284   6.995
22971SOL     OW70809   6.803   8.539   6.721
22971SOL    HW170810   6.743   8.613   6.730
22971SOL    HW270811   6.862   8.547   6.796
22972SOL     OW70812  13.451  11.056   9.954
22972SOL    HW170813  13.393  11.097   9.890
22972SOL    HW270814  13.489  10.981   9.908
22973SOL     OW70815   5.982  13.196   7.931
22973SOL    HW170816   5.933  13.116   7.915
22973SOL    HW270817   6.073  13.173   7.909
22974SOL     OW70818   0.727   5.930   8.574
22974SOL    HW170819   0.789   6.003   8.578
22974SOL    HW270820   0.775   5.861   8.528
22975SOL     OW70821   8.651   2.041   0.890
22975SOL    HW170822   8.574   1.984   0.884
22975SOL    HW270823   8.671   2.064   0.799
22976SOL     OW70824  14.651   9.650   1.836
22976SOL    HW170825  14.721   9.672   1.899
22976SOL    HW270826  14.582   9.611   1.890
22977SOL     OW70827   2.564   0.618  12.848
22977SOL    HW170828   2.619   0.647  12.921
22977SOL    HW270829   2.562   0.522  12.857
22978SOL     OW70830   1.089   3.294   0.817
22978SOL    HW170831   1.139   3.319   0.739
22978SOL    HW270832   1.027   3.366   0.829
22979SOL     OW70833   1.741  13.569   7.211
22979SOL    HW170834   1.687  13.494   7.237
22979SOL    HW270835   1.727  13.634   7.279
22980SOL     OW70836   0.468   3.321   3.712
22980SOL    HW170837   0.488   3.381   3.641
22980SOL    HW270838   0.510   3.239   3.687
22981SOL     OW70839  11.057   3.778  13.876
22981SOL    HW170840  11.090   3.866  13.860
22981SOL    HW270841  11.000   3.760  13.801
22982SOL     OW70842   3.523   1.175   1.431
22982SOL    HW170843   3.504   1.082   1.417
22982SOL    HW270844   3.446   1.221   1.397
22983SOL     OW70845   9.156   7.575   0.999
22983SOL    HW170846   9.069   7.551   0.968
22983SOL    HW270847   9.191   7.495   1.039
22984SOL     OW70848   4.588   3.706  13.740
22984SOL    HW170849   4.625   3.688  13.653
22984SOL    HW270850   4.657   3.753  13.786
22985SOL     OW70851   2.674   4.457   2.859
22985SOL    HW170852   2.684   4.401   2.782
22985SOL    HW270853   2.728   4.414   2.926
22986SOL     OW70854   8.609   4.816   8.903
22986SOL    HW170855   8.563   4.900   8.911
22986SOL    HW270856   8.686   4.836   8.850
22987SOL     OW70857   6.049   4.225   1.110
22987SOL    HW170858   6.020   4.316   1.100
22987SOL    HW270859   5.972   4.173   1.085
22988SOL     OW70860  14.589   8.456  11.942
22988SOL    HW170861  14.548   8.457  12.029
22988SOL    HW270862  14.599   8.364  11.921
22989SOL     OW70863   0.463   7.455   7.090
22989SOL    HW170864   0.427   7.472   7.003
22989SOL    HW270865   0.387   7.431   7.143
22990SOL     OW70866   2.106   8.095   4.905
22990SOL    HW170867   2.172   8.049   4.852
22990SOL    HW270868   2.022   8.060   4.875
22991SOL     OW70869   0.182   4.800   6.078
22991SOL    HW170870   0.186   4.827   6.170
22991SOL    HW270871   0.117   4.731   6.075
22992SOL     OW70872   8.281   0.374   5.110
22992SOL    HW170873   8.192   0.390   5.141
22992SOL    HW270874   8.331   0.357   5.190
22993SOL     OW70875   2.577   3.161  12.347
22993SOL    HW170876   2.632   3.116  12.412
22993SOL    HW270877   2.631   3.233  12.315
22994SOL     OW70878  14.018   5.792   6.603
22994SOL    HW170879  13.943   5.846   6.579
22994SOL    HW270880  13.980   5.711   6.636
22995SOL     OW70881   6.101   7.255   1.268
22995SOL    HW170882   6.166   7.302   1.321
22995SOL    HW270883   6.152   7.192   1.219
22996SOL     OW70884   9.756   9.319   6.056
22996SOL    HW170885   9.815   9.392   6.040
22996SOL    HW270886   9.809   9.255   6.104
22997SOL     OW70887  10.454   9.665   8.935
22997SOL    HW170888  10.493   9.610   9.002
22997SOL    HW270889  10.484   9.626   8.852
22998SOL     OW70890   8.325   2.767   2.825
22998SOL    HW170891   8.345   2.854   2.789
22998SOL    HW270892   8.229   2.761   2.821
22999SOL     OW70893   8.938   0.734  11.821
22999SOL    HW170894   8.885   0.803  11.862
22999SOL    HW270895   8.902   0.726  11.733
23000SOL     OW70896   9.726   9.596   3.798
23000SOL    HW170897   9.685   9.623   3.715
23000SOL    HW270898   9.653   9.567   3.852
23001SOL     OW70899   5.589   5.337   6.905
23001SOL    HW170900   5.676   5.296   6.901
23001SOL    HW270901   5.578   5.361   6.997
23002SOL     OW70902   6.090  13.143  11.481
23002SOL    HW170903   6.042  13.095  11.548
23002SOL    HW270904   6.095  13.083  11.407
23003SOL     OW70905  11.493   6.714  10.104
23003SOL    HW170906  11.474   6.622  10.125
23003SOL    HW270907  11.584   6.713  10.076
23004SOL     OW70908   4.774  11.463   4.326
23004SOL    HW170909   4.824  11.490   4.403
23004SOL    HW270910   4.689  11.436   4.361
23005SOL     OW70911   7.462   9.913   1.491
23005SOL    HW170912   7.498   9.830   1.522
23005SOL    HW270913   7.390   9.887   1.432
23006SOL     OW70914  13.987   0.901   2.583
23006SOL    HW170915  13.907   0.901   2.530
23006SOL    HW270916  13.976   0.974   2.644
23007SOL     OW70917   6.555   6.411   3.074
23007SOL    HW170918   6.556   6.403   2.978
23007SOL    HW270919   6.613   6.486   3.092
23008SOL     OW70920  10.883  11.783   5.379
23008SOL    HW170921  10.911  11.860   5.331
23008SOL    HW270922  10.851  11.723   5.311
23009SOL     OW70923   6.078  14.845   2.705
23009SOL    HW170924   6.171  14.840   2.725
23009SOL    HW270925   6.039   0.013   2.784
23010SOL     OW70926   7.724  10.083   6.643
23010SOL    HW170927   7.669  10.073   6.721
23010SOL    HW270928   7.688  10.158   6.597
23011SOL     OW70929  12.835   7.712  10.308
23011SOL    HW170930  12.822   7.652  10.382
23011SOL    HW270931  12.893   7.780  10.343
23012SOL     OW70932  13.091   5.603   5.819
23012SOL    HW170933  13.064   5.552   5.743
23012SOL    HW270934  13.117   5.538   5.884
23013SOL     OW70935   9.438   2.515   7.570
23013SOL    HW170936   9.529   2.532   7.548
23013SOL    HW270937   9.437   2.424   7.599
23014SOL     OW70938   4.959  11.474   3.162
23014SOL    HW170939   4.904  11.481   3.083
23014SOL    HW270940   4.976  11.564   3.188
23015SOL     OW70941   4.181   7.759   2.365
23015SOL    HW170942   4.193   7.666   2.384
23015SOL    HW270943   4.194   7.766   2.271
23016SOL     OW70944   8.435   6.911   3.923
23016SOL    HW170945   8.414   6.978   3.988
23016SOL    HW270946   8.477   6.959   3.851
23017SOL     OW70947   8.071   7.632   5.975
23017SOL    HW170948   7.991   7.671   6.009
23017SOL    HW270949   8.099   7.692   5.906
23018SOL     OW70950   5.839   6.085  13.157
23018SOL    HW170951   5.911   6.021  13.161
23018SOL    HW270952   5.866   6.154  13.217
23019SOL     OW70953  13.837   7.270   3.605
23019SOL    HW170954  13.767   7.245   3.544
23019SOL    HW270955  13.913   7.218   3.577
23020SOL     OW70956   8.520  10.823   6.337
23020SOL    HW170957   8.537  10.912   6.366
23020SOL    HW270958   8.580  10.769   6.389
23021SOL     OW70959  11.462   9.573   1.279
23021SOL    HW170960  11.398   9.641   1.302
23021SOL    HW270961  11.432   9.539   1.195
23022SOL     OW70962   3.866   1.100   5.244
23022SOL    HW170963   3.935   1.075   5.183
23022SOL    HW270964   3.907   1.097   5.330
23023SOL     OW70965   7.674   4.298   5.966
23023SOL    HW170966   7.625   4.377   5.941
23023SOL    HW270967   7.735   4.328   6.034
23024SOL     OW70968   8.628  13.342   5.140
23024SOL    HW170969   8.669  13.256   5.143
23024SOL    HW270970   8.676  13.389   5.072
23025SOL     OW70971   9.361   3.366  10.887
23025SOL    HW170972   9.407   3.373  10.971
23025SOL    HW270973   9.270   3.387  10.908
23026SOL     OW70974  14.126   3.825  10.206
23026SOL    HW170975  14.206   3.876  10.219
23026SOL    HW270976  14.056   3.890  10.205
23027SOL     OW70977   4.102   2.536  12.710
23027SOL    HW170978   4.083   2.471  12.778
23027SOL    HW270979   4.057   2.615  12.739
23028SOL     OW70980   8.246   1.222   7.316
23028SOL    HW170981   8.221   1.136   7.350
23028SOL    HW270982   8.274   1.205   7.226
23029SOL     OW70983  12.520  13.696   4.771
23029SOL    HW170984  12.545  13.618   4.819
23029SOL    HW270985  12.490  13.757   4.838
23030SOL     OW70986   2.461  11.591  10.002
23030SOL    HW170987   2.402  11.633   9.940
23030SOL    HW270988   2.407  11.574  10.079
23031SOL     OW70989   3.509  10.575   3.416
23031SOL    HW170990   3.583  10.515   3.406
23031SOL    HW270991   3.500  10.587   3.510
23032SOL     OW70992   9.655  10.797   8.045
23032SOL    HW170993   9.682  10.865   8.107
23032SOL    HW270994   9.738  10.755   8.019
23033SOL     OW70995   0.677  11.252   0.468
23033SOL    HW170996   0.713  11.192   0.533
23033SOL    HW270997   0.707  11.218   0.384
23034SOL     OW70998   6.819  12.091  10.866
23034SOL    HW170999   6.768  12.171  10.874
23034SOL    HW271000   6.838  12.085  10.772
23035SOL     OW71001   1.800  11.919   6.649
23035SOL    HW171002   1.843  11.834   6.659
23035SOL    HW271003   1.806  11.960   6.735
23036SOL     OW71004   8.909   1.377  10.182
23036SOL    HW171005   8.908   1.405  10.273
23036SOL    HW271006   8.997   1.399  10.151
23037SOL     OW71007   9.561  14.729  12.786
23037SOL    HW171008   9.491  14.770  12.735
23037SOL    HW271009   9.518  14.700  12.867
23038SOL     OW71010   4.076   8.164   2.586
23038SOL    HW171011   4.011   8.228   2.558
23038SOL    HW271012   4.092   8.185   2.678
23039SOL     OW71013   5.769   0.809  11.921
23039SOL    HW171014   5.681   0.845  11.911
23039SOL    HW271015   5.806   0.810  11.833
23040SOL     OW71016  11.358  12.055  14.205
23040SOL    HW171017  11.366  11.985  14.270
23040SOL    HW271018  11.283  12.107  14.235
23041SOL     OW71019   1.306   6.844  10.929
23041SOL    HW171020   1.265   6.915  10.881
23041SOL    HW271021   1.262   6.843  11.014
23042SOL     OW71022   9.689   5.005   2.212
23042SOL    HW171023   9.718   5.096   2.209
23042SOL    HW271024   9.689   4.977   2.121
23043SOL     OW71025   9.494   9.976   5.114
23043SOL    HW171026   9.435   9.904   5.092
23043SOL    HW271027   9.472  10.045   5.051
23044SOL     OW71028   1.199   6.836  11.181
23044SOL    HW171029   1.134   6.782  11.226
23044SOL    HW271030   1.211   6.912  11.237
23045SOL     OW71031  10.332   8.620   6.919
23045SOL    HW171032  10.310   8.552   6.856
23045SOL    HW271033  10.255   8.678   6.920
23046SOL     OW71034   1.238  10.860   3.244
23046SOL    HW171035   1.259  10.912   3.166
23046SOL    HW271036   1.172  10.912   3.290
23047SOL     OW71037  14.820   0.451  13.464
23047SOL    HW171038  14.839   0.544  13.479
23047SOL    HW271039  14.726   0.444  13.477
23048SOL     OW71040   5.624  13.102   4.486
23048SOL    HW171041   5.537  13.065   4.472
23048SOL    HW271042   5.608  13.183   4.534
23049SOL     OW71043   8.232  10.908   9.676
23049SOL    HW171044   8.181  10.856   9.614
23049SOL    HW271045   8.314  10.927   9.630
23050SOL     OW71046   1.197   2.098   7.767
23050SOL    HW171047   1.132   2.069   7.831
23050SOL    HW271048   1.176   2.050   7.687
23051SOL     OW71049   4.964  10.097  13.405
23051SOL    HW171050   4.906  10.172  13.398
23051SOL    HW271051   5.029  10.122  13.471
23052SOL     OW71052   9.851   0.758   4.101
23052SOL    HW171053   9.801   0.700   4.158
23052SOL    HW271054   9.928   0.707   4.077
23053SOL     OW71055  13.095   4.828  11.025
23053SOL    HW171056  13.139   4.760  11.076
23053SOL    HW271057  13.166   4.887  10.998
23054SOL     OW71058   6.853   3.376   3.400
23054SOL    HW171059   6.797   3.410   3.330
23054SOL    HW271060   6.887   3.453   3.444
23055SOL     OW71061   2.913   7.157   6.210
23055SOL    HW171062   2.997   7.139   6.252
23055SOL    HW271063   2.894   7.077   6.161
23056SOL     OW71064   6.684   9.403   4.462
23056SOL    HW171065   6.751   9.414   4.530
23056SOL    HW271066   6.627   9.480   4.471
23057SOL     OW71067  10.593   9.385   8.034
23057SOL    HW171068  10.671   9.437   8.052
23057SOL    HW271069  10.540   9.390   8.113
23058SOL     OW71070   2.711   3.104   4.740
23058SOL    HW171071   2.690   3.097   4.647
23058SOL    HW271072   2.805   3.121   4.742
23059SOL     OW71073  13.633   1.445  12.917
23059SOL    HW171074  13.640   1.413  13.007
23059SOL    HW271075  13.687   1.524  12.915
23060SOL     OW71076   8.451  14.005   5.481
23060SOL    HW171077   8.466  13.944   5.553
23060SOL    HW271078   8.539  14.035   5.457
23061SOL     OW71079  11.536   9.859   8.934
23061SOL    HW171080  11.597   9.902   8.874
23061SOL    HW271081  11.546   9.908   9.016
23062SOL     OW71082   6.234   4.255   9.229
23062SOL    HW171083   6.182   4.334   9.211
23062SOL    HW271084   6.302   4.285   9.290
23063SOL     OW71085   1.198   0.196   3.247
23063SOL    HW171086   1.170   0.255   3.177
23063SOL    HW271087   1.117   0.160   3.282
23064SOL     OW71088   6.902  12.897   9.891
23064SOL    HW171089   6.956  12.970   9.921
23064SOL    HW271090   6.929  12.882   9.801
23065SOL     OW71091  10.943  14.004   8.562
23065SOL    HW171092  10.895  14.084   8.540
23065SOL    HW271093  11.034  14.033   8.573
23066SOL     OW71094   0.004   7.713   5.960
23066SOL    HW171095  14.830   7.630   5.979
23066SOL    HW271096   0.091   7.704   6.000
23067SOL     OW71097  11.014  10.574   8.976
23067SOL    HW171098  11.055  10.657   9.002
23067SOL    HW271099  11.040  10.512   9.044
23068SOL     OW71100   2.150  13.162   0.229
23068SOL    HW171101   2.150  13.097   0.158
23068SOL    HW271102   2.060  13.195   0.231
23069SOL     OW71103  10.548   7.897  12.876
23069SOL    HW171104  10.508   7.903  12.789
23069SOL    HW271105  10.526   7.809  12.907
23070SOL     OW71106   6.955  11.327   6.313
23070SOL    HW171107   6.889  11.393   6.337
23070SOL    HW271108   6.907  11.265   6.258
23071SOL     OW71109   6.629  14.035  14.321
23071SOL    HW171110   6.722  14.055  14.338
23071SOL    HW271111   6.631  13.953  14.272
23072SOL     OW71112   0.891   8.750  10.401
23072SOL    HW171113   0.890   8.799  10.319
23072SOL    HW271114   0.799   8.744  10.427
23073SOL     OW71115  12.564  13.064   5.551
23073SOL    HW171116  12.513  13.030   5.478
23073SOL    HW271117  12.545  13.005   5.624
23074SOL     OW71118   1.157   1.160   1.379
23074SOL    HW171119   1.126   1.107   1.305
23074SOL    HW271120   1.116   1.245   1.367
23075SOL     OW71121   5.101   4.462  12.618
23075SOL    HW171122   5.043   4.418  12.556
23075SOL    HW271123   5.176   4.403  12.628
23076SOL     OW71124   9.481   7.381   9.292
23076SOL    HW171125   9.554   7.442   9.285
23076SOL    HW271126   9.521   7.299   9.320
23077SOL     OW71127  10.402   4.589   7.051
23077SOL    HW171128  10.354   4.663   7.011
23077SOL    HW271129  10.345   4.513   7.036
23078SOL     OW71130  13.634   5.882   3.175
23078SOL    HW171131  13.655   5.789   3.172
23078SOL    HW271132  13.677   5.914   3.254
23079SOL     OW71133   3.768  12.179  12.948
23079SOL    HW171134   3.761  12.144  12.859
23079SOL    HW271135   3.860  12.169  12.970
23080SOL     OW71136   8.822   1.447   2.737
23080SOL    HW171137   8.828   1.519   2.674
23080SOL    HW271138   8.821   1.368   2.683
23081SOL     OW71139   6.217   2.113   2.721
23081SOL    HW171140   6.162   2.048   2.765
23081SOL    HW271141   6.261   2.160   2.791
23082SOL     OW71142   5.155   4.263  12.382
23082SOL    HW171143   5.168   4.222  12.296
23082SOL    HW271144   5.109   4.197  12.434
23083SOL     OW71145   2.818   1.678  12.080
23083SOL    HW171146   2.852   1.713  11.997
23083SOL    HW271147   2.728   1.654  12.060
23084SOL     OW71148  14.578   4.400  13.855
23084SOL    HW171149  14.657   4.451  13.876
23084SOL    HW271150  14.551   4.432  13.769
23085SOL     OW71151   0.848   5.110   5.465
23085SOL    HW171152   0.888   5.046   5.406
23085SOL    HW271153   0.884   5.088   5.552
23086SOL     OW71154  11.523   9.383  11.517
23086SOL    HW171155  11.513   9.314  11.452
23086SOL    HW271156  11.578   9.449  11.475
23087SOL     OW71157   2.683  14.274  12.699
23087SOL    HW171158   2.757  14.310  12.649
23087SOL    HW271159   2.717  14.266  12.788
23088SOL     OW71160  10.338   4.544   9.744
23088SOL    HW171161  10.382   4.626   9.768
23088SOL    HW271162  10.407   4.491   9.703
23089SOL     OW71163  14.313  10.957  10.832
23089SOL    HW171164  14.340  11.045  10.804
23089SOL    HW271165  14.252  10.928  10.764
23090SOL     OW71166  13.986  13.759   7.266
23090SOL    HW171167  14.002  13.826   7.199
23090SOL    HW271168  13.940  13.690   7.219
23091SOL     OW71169   7.001   6.317  14.766
23091SOL    HW171170   6.934   6.314  14.834
23091SOL    HW271171   6.954   6.347  14.688
23092SOL     OW71172  13.989   6.723  13.372
23092SOL    HW171173  13.992   6.643  13.321
23092SOL    HW271174  14.025   6.790  13.314
23093SOL     OW71175   4.794   2.659   6.876
23093SOL    HW171176   4.851   2.643   6.952
23093SOL    HW271177   4.744   2.737   6.900
23094SOL     OW71178  11.285   0.017   6.462
23094SOL    HW171179  11.310  14.796   6.445
23094SOL    HW271180  11.365   0.067   6.449
23095SOL     OW71181   2.050  12.018   0.501
23095SOL    HW171182   2.073  12.052   0.588
23095SOL    HW271183   2.018  12.094   0.454
23096SOL     OW71184   4.845  13.812   9.347
23096SOL    HW171185   4.827  13.772   9.432
23096SOL    HW271186   4.784  13.769   9.286
23097SOL     OW71187  14.024  14.285   0.589
23097SOL    HW171188  14.097  14.248   0.540
23097SOL    HW271189  14.045  14.378   0.597
23098SOL     OW71190  12.648   3.980   8.951
23098SOL    HW171191  12.657   3.889   8.924
23098SOL    HW271192  12.730   3.999   8.997
23099SOL     OW71193   5.527  12.411   8.589
23099SOL    HW171194   5.532  12.332   8.536
23099SOL    HW271195   5.493  12.478   8.529
23100SOL     OW71196   2.856   9.284   7.209
23100SOL    HW171197   2.833   9.204   7.163
23100SOL    HW271198   2.952   9.282   7.214
23101SOL     OW71199   7.452  14.316  11.963
23101SOL    HW171200   7.453  14.240  11.905
23101SOL    HW271201   7.543  14.348  11.961
23102SOL     OW71202   9.555   8.420  10.296
23102SOL    HW171203   9.475   8.410  10.245
23102SOL    HW271204   9.578   8.513  10.284
23103SOL     OW71205   8.905   4.143   4.189
23103SOL    HW171206   8.922   4.237   4.187
23103SOL    HW271207   8.822   4.132   4.143
23104SOL     OW71208   2.485   6.013   1.477
23104SOL    HW171209   2.474   5.942   1.541
23104SOL    HW271210   2.455   6.091   1.523
23105SOL     OW71211   5.367   9.218   7.078
23105SOL    HW171212   5.453   9.174   7.077
23105SOL    HW271213   5.316   9.172   7.011
23106SOL     OW71214   3.995   4.757   2.315
23106SOL    HW171215   3.985   4.827   2.250
23106SOL    HW271216   4.079   4.776   2.358
23107SOL     OW71217   2.485   6.477   8.641
23107SOL    HW171218   2.435   6.395   8.640
23107SOL    HW271219   2.478   6.509   8.731
23108SOL     OW71220   4.682   8.617   9.156
23108SOL    HW171221   4.743   8.595   9.226
23108SOL    HW271222   4.618   8.676   9.196
23109SOL     OW71223  14.658   0.159   7.467
23109SOL    HW171224  14.680   0.067   7.453
23109SOL    HW271225  14.715   0.187   7.538
23110SOL     OW71226  14.275   4.714   2.818
23110SOL    HW171227  14.302   4.697   2.728
23110SOL    HW271228  14.211   4.784   2.811
23111SOL     OW71229  13.311  11.049  12.982
23111SOL    HW171230  13.341  10.973  13.032
23111SOL    HW271231  13.217  11.053  12.998
23112SOL     OW71232   0.286  11.694  11.365
23112SOL    HW171233   0.365  11.727  11.322
23112SOL    HW271234   0.264  11.614  11.316
23113SOL     OW71235  12.644   5.824   3.818
23113SOL    HW171236  12.598   5.899   3.781
23113SOL    HW271237  12.680   5.855   3.900
23114SOL     OW71238   5.197   9.958   5.430
23114SOL    HW171239   5.203   9.873   5.476
23114SOL    HW271240   5.113   9.953   5.384
23115SOL     OW71241   0.169   6.355  13.123
23115SOL    HW171242   0.197   6.291  13.058
23115SOL    HW271243   0.119   6.304  13.187
23116SOL     OW71244   9.151   4.697  11.015
23116SOL    HW171245   9.101   4.617  11.031
23116SOL    HW271246   9.226   4.669  10.963
23117SOL     OW71247  10.585   1.600   2.128
23117SOL    HW171248  10.609   1.524   2.074
23117SOL    HW271249  10.492   1.613   2.112
23118SOL     OW71250   8.605   8.970  13.586
23118SOL    HW171251   8.652   9.022  13.652
23118SOL    HW271252   8.669   8.905  13.558
23119SOL     OW71253   8.547  10.849  12.511
23119SOL    HW171254   8.475  10.854  12.575
23119SOL    HW271255   8.556  10.756  12.493
23120SOL     OW71256   2.708  11.666  14.531
23120SOL    HW171257   2.624  11.710  14.520
23120SOL    HW271258   2.727  11.672  14.625
23121SOL     OW71259  13.046   9.377  14.842
23121SOL    HW171260  13.039   9.282  14.851
23121SOL    HW271261  13.020   9.412   0.057
23122SOL     OW71262   2.018   3.099  11.214
23122SOL    HW171263   1.983   3.162  11.150
23122SOL    HW271264   2.113   3.106  11.205
23123SOL     OW71265   3.256   6.700   0.139
23123SOL    HW171266   3.187   6.635   0.124
23123SOL    HW271267   3.209   6.778   0.168
23124SOL     OW71268  10.819   7.443   9.847
23124SOL    HW171269  10.802   7.365   9.902
23124SOL    HW271270  10.824   7.408   9.758
23125SOL     OW71271  11.581  11.803   0.438
23125SOL    HW171272  11.649  11.813   0.371
23125SOL    HW271273  11.574  11.889   0.479
23126SOL     OW71274   6.305   3.777   0.911
23126SOL    HW171275   6.401   3.769   0.910
23126SOL    HW271276   6.277   3.727   0.988
23127SOL     OW71277  14.607   6.920   0.922
23127SOL    HW171278  14.635   6.904   0.833
23127SOL    HW271279  14.548   6.996   0.916
23128SOL     OW71280   2.917  14.839   4.423
23128SOL    HW171281   2.964  14.850   4.340
23128SOL    HW271282   2.931   0.052   4.469
23129SOL     OW71283   3.155   8.652   3.075
23129SOL    HW171284   3.130   8.735   3.117
23129SOL    HW271285   3.221   8.678   3.010
23130SOL     OW71286   7.464  14.244   7.234
23130SOL    HW171287   7.481  14.337   7.253
23130SOL    HW271288   7.541  14.216   7.184
23131SOL     OW71289   1.718   6.297  10.418
23131SOL    HW171290   1.760   6.364  10.363
23131SOL    HW271291   1.751   6.315  10.506
23132SOL     OW71292  11.443  10.204   5.616
23132SOL    HW171293  11.482  10.224   5.531
23132SOL    HW271294  11.362  10.256   5.618
23133SOL     OW71295   7.703   3.147   4.806
23133SOL    HW171296   7.628   3.186   4.852
23133SOL    HW271297   7.740   3.085   4.870
23134SOL     OW71298   7.141   9.804   3.209
23134SOL    HW171299   7.141   9.709   3.219
23134SOL    HW271300   7.164   9.819   3.117
23135SOL     OW71301   2.091   9.168   6.415
23135SOL    HW171302   2.029   9.233   6.448
23135SOL    HW271303   2.065   9.153   6.325
23136SOL     OW71304   6.109   4.332   2.706
23136SOL    HW171305   6.058   4.365   2.780
23136SOL    HW271306   6.117   4.407   2.647
23137SOL     OW71307  12.149  13.856   4.671
23137SOL    HW171308  12.221  13.910   4.640
23137SOL    HW271309  12.156  13.860   4.767
23138SOL     OW71310   2.649   6.282  11.836
23138SOL    HW171311   2.742   6.289  11.855
23138SOL    HW271312   2.644   6.250  11.746
23139SOL     OW71313   2.853   5.325   7.204
23139SOL    HW171314   2.860   5.230   7.201
23139SOL    HW271315   2.943   5.357   7.203
23140SOL     OW71316  11.261  13.111   2.928
23140SOL    HW171317  11.312  13.149   2.999
23140SOL    HW271318  11.171  13.137   2.945
23141SOL     OW71319   3.221   7.963   6.312
23141SOL    HW171320   3.276   7.913   6.251
23141SOL    HW271321   3.193   7.898   6.377
23142SOL     OW71322  12.114   9.706   0.141
23142SOL    HW171323  12.195   9.746   0.173
23142SOL    HW271324  12.110   9.731   0.048
23143SOL     OW71325  12.827   5.454  13.925
23143SOL    HW171326  12.918   5.427  13.941
23143SOL    HW271327  12.829   5.492  13.838
23144SOL     OW71328   8.773  11.145  13.823
23144SOL    HW171329   8.775  11.122  13.916
23144SOL    HW271330   8.784  11.062  13.778
23145SOL     OW71331  13.685  12.022   3.695
23145SOL    HW171332  13.603  12.007   3.743
23145SOL    HW271333  13.661  12.007   3.603
23146SOL     OW71334  12.284   9.998  13.282
23146SOL    HW171335  12.243  10.085  13.286
23146SOL    HW271336  12.351  10.006  13.214
23147SOL     OW71337   8.910   7.514   2.247
23147SOL    HW171338   8.981   7.482   2.192
23147SOL    HW271339   8.936   7.492   2.337
23148SOL     OW71340  12.677   9.698  11.485
23148SOL    HW171341  12.617   9.625  11.498
23148SOL    HW271342  12.634   9.773  11.528
23149SOL     OW71343  10.582  14.813   0.214
23149SOL    HW171344  10.630  14.802   0.132
23149SOL    HW271345  10.519   0.013   0.196
23150SOL     OW71346   8.301   0.308   8.061
23150SOL    HW171347   8.215   0.268   8.066
23150SOL    HW271348   8.357   0.252   8.116
23151SOL     OW71349   6.207   0.444   3.462
23151SOL    HW171350   6.300   0.468   3.457
23151SOL    HW271351   6.207   0.349   3.455
23152SOL     OW71352  11.295   8.798   9.453
23152SOL    HW171353  11.245   8.850   9.391
23152SOL    HW271354  11.296   8.850   9.533
23153SOL     OW71355   1.740   4.643  14.241
23153SOL    HW171356   1.742   4.553  14.273
23153SOL    HW271357   1.672   4.642  14.173
23154SOL     OW71358   1.594   9.418   6.844
23154SOL    HW171359   1.684   9.440   6.817
23154SOL    HW271360   1.542   9.428   6.764
23155SOL     OW71361   7.707   2.848  10.262
23155SOL    HW171362   7.792   2.804  10.256
23155SOL    HW271363   7.728   2.938  10.287
23156SOL     OW71364   7.891   2.542   1.999
23156SOL    HW171365   7.883   2.544   1.904
23156SOL    HW271366   7.934   2.458   2.018
23157SOL     OW71367   3.469   5.462   0.639
23157SOL    HW171368   3.498   5.507   0.718
23157SOL    HW271369   3.526   5.385   0.633
23158SOL     OW71370   9.802   4.707   1.885
23158SOL    HW171371   9.709   4.726   1.896
23158SOL    HW271372   9.805   4.614   1.861
23159SOL     OW71373  10.744  11.577   6.513
23159SOL    HW171374  10.662  11.538   6.544
23159SOL    HW271375  10.798  11.585   6.592
23160SOL     OW71376  14.055  12.867   9.647
23160SOL    HW171377  14.077  12.841   9.737
23160SOL    HW271378  14.140  12.877   9.604
23161SOL     OW71379   6.922   2.793   7.192
23161SOL    HW171380   6.918   2.887   7.212
23161SOL    HW271381   7.011   2.779   7.161
23162SOL     OW71382   3.313   6.175   7.861
23162SOL    HW171383   3.404   6.185   7.833
23162SOL    HW271384   3.265   6.239   7.808
23163SOL     OW71385  11.217   6.452  13.843
23163SOL    HW171386  11.299   6.452  13.893
23163SOL    HW271387  11.214   6.366  13.802
23164SOL     OW71388   7.218   7.299  10.554
23164SOL    HW171389   7.183   7.370  10.609
23164SOL    HW271390   7.311   7.318  10.547
23165SOL     OW71391  10.785  10.818  12.968
23165SOL    HW171392  10.848  10.797  12.899
23165SOL    HW271393  10.761  10.909  12.951
23166SOL     OW71394   5.994  10.583  13.189
23166SOL    HW171395   5.928  10.518  13.209
23166SOL    HW271396   6.064  10.534  13.145
23167SOL     OW71397  10.360  12.562   6.933
23167SOL    HW171398  10.393  12.576   6.844
23167SOL    HW271399  10.437  12.533   6.983
23168SOL     OW71400   2.804   6.886   6.684
23168SOL    HW171401   2.732   6.834   6.648
23168SOL    HW271402   2.808   6.861   6.776
23169SOL     OW71403   8.050   8.939   4.903
23169SOL    HW171404   8.111   8.996   4.949
23169SOL    HW271405   8.046   8.860   4.956
23170SOL     OW71406   8.268  10.395   3.268
23170SOL    HW171407   8.248  10.302   3.282
23170SOL    HW271408   8.351  10.409   3.314
23171SOL     OW71409   0.567   4.476  14.198
23171SOL    HW171410   0.529   4.449  14.114
23171SOL    HW271411   0.512   4.433  14.263
23172SOL     OW71412   1.875  13.087   4.513
23172SOL    HW171413   1.904  13.176   4.497
23172SOL    HW271414   1.919  13.062   4.595
23173SOL     OW71415   2.740   8.763   1.972
23173SOL    HW171416   2.727   8.825   1.900
23173SOL    HW271417   2.656   8.718   1.980
23174SOL     OW71418  14.572   6.516   6.642
23174SOL    HW171419  14.664   6.490   6.640
23174SOL    HW271420  14.560   6.571   6.565
23175SOL     OW71421   9.683  13.560  11.752
23175SOL    HW171422   9.606  13.572  11.808
23175SOL    HW271423   9.714  13.649  11.734
23176SOL     OW71424   4.086   7.913   3.530
23176SOL    HW171425   4.160   7.869   3.571
23176SOL    HW271426   4.010   7.885   3.581
23177SOL     OW71427   1.510   4.640   3.443
23177SOL    HW171428   1.602   4.634   3.419
23177SOL    HW271429   1.485   4.550   3.464
23178SOL     OW71430  14.713  11.496   4.787
23178SOL    HW171431  14.705  11.575   4.839
23178SOL    HW271432  14.791  11.452   4.822
23179SOL     OW71433   0.660   6.167   1.750
23179SOL    HW171434   0.623   6.244   1.794
23179SOL    HW271435   0.735   6.202   1.702
23180SOL     OW71436  11.248   6.158  11.164
23180SOL    HW171437  11.247   6.065  11.142
23180SOL    HW271438  11.303   6.198  11.096
23181SOL     OW71439   8.245   3.054   4.312
23181SOL    HW171440   8.204   2.971   4.334
23181SOL    HW271441   8.326   3.056   4.363
23182SOL     OW71442   4.939  14.615  10.354
23182SOL    HW171443   4.958  14.705  10.327
23182SOL    HW271444   4.943  14.565  10.272
23183SOL     OW71445  11.069  12.319   9.176
23183SOL    HW171446  11.101  12.334   9.265
23183SOL    HW271447  10.984  12.276   9.188
23184SOL     OW71448   0.779   6.648   1.290
23184SOL    HW171449   0.728   6.667   1.369
23184SOL    HW271450   0.732   6.575   1.249
23185SOL     OW71451  13.354  12.852   6.677
23185SOL    HW171452  13.288  12.795   6.637
23185SOL    HW271453  13.326  12.862   6.768
23186SOL     OW71454   6.528  13.659   7.541
23186SOL    HW171455   6.454  13.662   7.480
23186SOL    HW271456   6.569  13.745   7.534
23187SOL     OW71457  14.249  13.939  14.605
23187SOL    HW171458  14.168  13.966  14.649
23187SOL    HW271459  14.302  14.018  14.601
23188SOL     OW71460   5.309   3.544   2.090
23188SOL    HW171461   5.300   3.590   2.173
23188SOL    HW271462   5.344   3.458   2.113
23189SOL     OW71463  11.247   3.093   6.210
23189SOL    HW171464  11.336   3.077   6.242
23189SOL    HW271465  11.190   3.060   6.280
23190SOL     OW71466  11.231   3.060   2.711
23190SOL    HW171467  11.189   3.024   2.789
23190SOL    HW271468  11.180   3.025   2.638
23191SOL     OW71469   8.877   1.777   9.073
23191SOL    HW171470   8.961   1.768   9.118
23191SOL    HW271471   8.850   1.867   9.090
23192SOL     OW71472   0.280   8.424   2.058
23192SOL    HW171473   0.356   8.458   2.010
23192SOL    HW271474   0.315   8.351   2.109
23193SOL     OW71475   2.597   7.541  10.721
23193SOL    HW171476   2.575   7.613  10.663
23193SOL    HW271477   2.650   7.482  10.668
23194SOL     OW71478   8.516  13.823  12.433
23194SOL    HW171479   8.533  13.852  12.343
23194SOL    HW271480   8.595  13.775  12.458
23195SOL     OW71481   0.166   1.676   6.260
23195SOL    HW171482   0.233   1.733   6.297
23195SOL    HW271483   0.212   1.622   6.196
23196SOL     OW71484   9.930   1.788  11.307
23196SOL    HW171485   9.985   1.735  11.250
23196SOL    HW271486   9.991   1.843  11.356
23197SOL     OW71487   7.169   7.903   6.146
23197SOL    HW171488   7.140   7.987   6.182
23197SOL    HW271489   7.149   7.839   6.213
23198SOL     OW71490  14.836   0.135  11.447
23198SOL    HW171491   0.061   0.132  11.434
23198SOL    HW271492  14.825   0.158  11.539
23199SOL     OW71493   3.363   7.774   8.278
23199SOL    HW171494   3.271   7.751   8.268
23199SOL    HW271495   3.364   7.870   8.278
23200SOL     OW71496   8.786   0.436   7.096
23200SOL    HW171497   8.805   0.345   7.074
23200SOL    HW271498   8.693   0.447   7.074
23201SOL     OW71499  10.224   1.730   8.159
23201SOL    HW171500  10.317   1.743   8.179
23201SOL    HW271501  10.191   1.675   8.231
23202SOL     OW71502   8.424   1.113  10.628
23202SOL    HW171503   8.358   1.130  10.561
23202SOL    HW271504   8.400   1.170  10.701
23203SOL     OW71505   1.754  10.904   8.771
23203SOL    HW171506   1.763  10.999   8.779
23203SOL    HW271507   1.765  10.872   8.861
23204SOL     OW71508   1.654  10.712   1.550
23204SOL    HW171509   1.635  10.635   1.497
23204SOL    HW271510   1.673  10.677   1.637
23205SOL     OW71511  11.268  14.243   5.855
23205SOL    HW171512  11.214  14.321   5.871
23205SOL    HW271513  11.353  14.278   5.829
23206SOL     OW71514   1.830   0.889  11.464
23206SOL    HW171515   1.745   0.932  11.472
23206SOL    HW271516   1.844   0.884  11.369
23207SOL     OW71517   5.606   1.397  12.850
23207SOL    HW171518   5.656   1.469  12.889
23207SOL    HW271519   5.533   1.383  12.910
23208SOL     OW71520  13.704   0.508  13.218
23208SOL    HW171521  13.690   0.595  13.254
23208SOL    HW271522  13.780   0.474  13.266
23209SOL     OW71523  11.029  11.232   2.807
23209SOL    HW171524  10.975  11.185   2.870
23209SOL    HW271525  11.119  11.206   2.827
23210SOL     OW71526   2.455   9.940   6.357
23210SOL    HW171527   2.513   9.890   6.299
23210SOL    HW271528   2.402   9.993   6.297
23211SOL     OW71529  10.947   4.521   5.497
23211SOL    HW171530  10.858   4.521   5.461
23211SOL    HW271531  11.004   4.524   5.420
23212SOL     OW71532   0.437   7.685   8.207
23212SOL    HW171533   0.511   7.636   8.242
23212SOL    HW271534   0.422   7.755   8.270
23213SOL     OW71535   8.844   4.074   3.689
23213SOL    HW171536   8.880   4.069   3.777
23213SOL    HW271537   8.750   4.089   3.702
23214SOL     OW71538   2.500   5.154  12.942
23214SOL    HW171539   2.422   5.100  12.928
23214SOL    HW271540   2.468   5.234  12.981
23215SOL     OW71541  10.059  13.724   6.541
23215SOL    HW171542  10.107  13.805   6.558
23215SOL    HW271543  10.125  13.664   6.507
23216SOL     OW71544   3.937   1.749   0.558
23216SOL    HW171545   3.940   1.832   0.510
23216SOL    HW271546   3.893   1.689   0.497
23217SOL     OW71547   8.042  12.023   4.211
23217SOL    HW171548   8.084  12.109   4.198
23217SOL    HW271549   7.960  12.043   4.256
23218SOL     OW71550  10.066   6.913   7.006
23218SOL    HW171551  10.115   6.872   6.934
23218SOL    HW271552  10.132   6.936   7.070
23219SOL     OW71553   5.198   4.713  14.171
23219SOL    HW171554   5.267   4.647  14.174
23219SOL    HW271555   5.244   4.795  14.154
23220SOL     OW71556  12.907  11.085   8.430
23220SOL    HW171557  12.964  11.160   8.445
23220SOL    HW271558  12.918  11.030   8.508
23221SOL     OW71559   7.132   8.736   8.532
23221SOL    HW171560   7.057   8.696   8.490
23221SOL    HW271561   7.114   8.728   8.626
23222SOL     OW71562   2.422   8.858   7.310
23222SOL    HW171563   2.373   8.935   7.281
23222SOL    HW271564   2.468   8.887   7.389
23223SOL     OW71565   8.940   2.913   2.681
23223SOL    HW171566   9.016   2.856   2.666
23223SOL    HW271567   8.908   2.934   2.593
23224SOL     OW71568   8.289  14.785  13.368
23224SOL    HW171569   8.334  14.703  13.387
23224SOL    HW271570   8.345  14.829  13.304
23225SOL     OW71571   8.457  13.485   6.363
23225SOL    HW171572   8.437  13.411   6.305
23225SOL    HW271573   8.373  13.510   6.400
23226SOL     OW71574   2.195   4.031   8.637
23226SOL    HW171575   2.103   4.023   8.611
23226SOL    HW271576   2.221   4.118   8.608
23227SOL     OW71577   3.713  10.453   7.165
23227SOL    HW171578   3.775  10.512   7.209
23227SOL    HW271579   3.764  10.374   7.147
23228SOL     OW71580   5.030   1.068  10.328
23228SOL    HW171581   5.085   1.035  10.399
23228SOL    HW271582   5.014   1.159  10.351
23229SOL     OW71583  12.957   6.569  10.365
23229SOL    HW171584  12.868   6.581  10.398
23229SOL    HW271585  12.989   6.490  10.410
23230SOL     OW71586   6.810   8.842   7.263
23230SOL    HW171587   6.839   8.814   7.350
23230SOL    HW271588   6.716   8.821   7.262
23231SOL     OW71589  14.585  13.819   2.838
23231SOL    HW171590  14.532  13.821   2.759
23231SOL    HW271591  14.524  13.795   2.908
23232SOL     OW71592  11.371  13.677   6.550
23232SOL    HW171593  11.436  13.682   6.481
23232SOL    HW271594  11.296  13.633   6.509
23233SOL     OW71595   1.956   8.049   5.204
23233SOL    HW171596   1.939   7.965   5.162
23233SOL    HW271597   2.025   8.089   5.150
23234SOL     OW71598   1.160   3.526   3.828
23234SOL    HW171599   1.227   3.533   3.760
23234SOL    HW271600   1.177   3.441   3.869
23235SOL     OW71601   8.204   2.234  14.119
23235SOL    HW171602   8.236   2.213  14.206
23235SOL    HW271603   8.218   2.329  14.111
23236SOL     OW71604  12.257  14.562   3.118
23236SOL    HW171605  12.324  14.547   3.052
23236SOL    HW271606  12.240  14.657   3.114
23237SOL     OW71607   2.529   0.412  13.178
23237SOL    HW171608   2.624   0.405  13.192
23237SOL    HW271609   2.492   0.408  13.266
23238SOL     OW71610  10.574   7.776   5.116
23238SOL    HW171611  10.565   7.684   5.140
23238SOL    HW271612  10.505   7.791   5.052
23239SOL     OW71613   9.890   3.984  13.030
23239SOL    HW171614   9.903   4.040  12.954
23239SOL    HW271615   9.957   4.012  13.092
23240SOL     OW71616   6.779   4.486   1.808
23240SOL    HW171617   6.822   4.549   1.866
23240SOL    HW271618   6.831   4.486   1.728
23241SOL     OW71619  10.199   4.262   0.405
23241SOL    HW171620  10.216   4.199   0.335
23241SOL    HW271621  10.205   4.347   0.362
23242SOL     OW71622   7.571  13.697   9.239
23242SOL    HW171623   7.528  13.634   9.180
23242SOL    HW271624   7.540  13.782   9.209
23243SOL     OW71625  11.359  13.741   3.253
23243SOL    HW171626  11.366  13.833   3.228
23243SOL    HW271627  11.421  13.730   3.324
23244SOL     OW71628   3.207  12.625  10.133
23244SOL    HW171629   3.243  12.714  10.141
23244SOL    HW271630   3.116  12.634  10.161
23245SOL     OW71631  11.261   1.408   9.723
23245SOL    HW171632  11.337   1.424   9.779
23245SOL    HW271633  11.277   1.462   9.646
23246SOL     OW71634   6.415   5.258   1.362
23246SOL    HW171635   6.498   5.295   1.331
23246SOL    HW271636   6.420   5.261   1.457
23247SOL     OW71637   8.423  14.182   7.181
23247SOL    HW171638   8.430  14.125   7.258
23247SOL    HW271639   8.392  14.124   7.111
23248SOL     OW71640   0.751   7.133   4.598
23248SOL    HW171641   0.704   7.126   4.515
23248SOL    HW271642   0.754   7.043   4.631
23249SOL     OW71643   4.869   3.771  14.101
23249SOL    HW171644   4.925   3.759  14.178
23249SOL    HW271645   4.822   3.689  14.093
23250SOL     OW71646   5.647   3.486   6.212
23250SOL    HW171647   5.591   3.558   6.182
23250SOL    HW271648   5.656   3.429   6.135
23251SOL     OW71649  14.580  14.428  14.006
23251SOL    HW171650  14.662  14.406  14.049
23251SOL    HW271651  14.604  14.441  13.914
23252SOL     OW71652  14.742   4.552   1.359
23252SOL    HW171653  14.714   4.588   1.444
23252SOL    HW271654  14.838   4.556   1.362
23253SOL     OW71655   9.725   8.539   1.921
23253SOL    HW171656   9.714   8.589   1.840
23253SOL    HW271657   9.781   8.465   1.896
23254SOL     OW71658   0.424  14.120   5.712
23254SOL    HW171659   0.440  14.188   5.777
23254SOL    HW271660   0.433  14.038   5.760
23255SOL     OW71661   6.740  11.496  10.481
23255SOL    HW171662   6.817  11.532  10.525
23255SOL    HW271663   6.668  11.554  10.507
23256SOL     OW71664   6.107   5.017  12.232
23256SOL    HW171665   6.185   4.970  12.204
23256SOL    HW271666   6.132   5.057  12.315
23257SOL     OW71667  10.101   3.274  11.840
23257SOL    HW171668  10.054   3.275  11.756
23257SOL    HW271669  10.157   3.196  11.835
23258SOL     OW71670   7.020  11.948  12.177
23258SOL    HW171671   7.105  11.909  12.153
23258SOL    HW271672   6.964  11.930  12.102
23259SOL     OW71673  10.816  12.393   2.777
23259SOL    HW171674  10.883  12.461   2.784
23259SOL    HW271675  10.864  12.311   2.787
23260SOL     OW71676   0.544   6.033  13.693
23260SOL    HW171677   0.578   6.074  13.613
23260SOL    HW271678   0.622   6.015  13.746
23261SOL     OW71679   9.432   1.810   7.294
23261SOL    HW171680   9.486   1.732   7.284
23261SOL    HW271681   9.480   1.879   7.248
23262SOL     OW71682   7.765  11.364  11.837
23262SOL    HW171683   7.718  11.436  11.879
23262SOL    HW271684   7.849  11.359  11.883
23263SOL     OW71685  12.196   0.782   3.429
23263SOL    HW171686  12.245   0.718   3.481
23263SOL    HW271687  12.126   0.812   3.487
23264SOL     OW71688   1.623   0.077   0.277
23264SOL    HW171689   1.618   0.018   0.352
23264SOL    HW271690   1.547   0.053   0.223
23265SOL     OW71691  14.427   0.004   6.859
23265SOL    HW171692  14.424   0.099   6.847
23265SOL    HW271693  14.405  14.838   6.773
23266SOL     OW71694  10.159   6.714   6.812
23266SOL    HW171695  10.110   6.675   6.740
23266SOL    HW271696  10.235   6.755   6.770
23267SOL     OW71697  13.015   1.392  12.158
23267SOL    HW171698  13.052   1.321  12.209
23267SOL    HW271699  12.921   1.372  12.154
23268SOL     OW71700  14.340  11.031   6.281
23268SOL    HW171701  14.292  11.063   6.205
23268SOL    HW271702  14.287  11.059   6.356
23269SOL     OW71703  13.002  13.228   2.257
23269SOL    HW171704  13.088  13.186   2.254
23269SOL    HW271705  13.021  13.321   2.262
23270SOL     OW71706   6.762   8.992  13.631
23270SOL    HW171707   6.806   8.910  13.653
23270SOL    HW271708   6.832   9.048  13.598
23271SOL     OW71709   8.255   5.160   6.019
23271SOL    HW171710   8.188   5.226   5.999
23271SOL    HW271711   8.324   5.175   5.954
23272SOL     OW71712   2.727   4.758   5.220
23272SOL    HW171713   2.713   4.796   5.134
23272SOL    HW271714   2.650   4.702   5.234
23273SOL     OW71715   8.795   4.841   8.711
23273SOL    HW171716   8.732   4.873   8.646
23273SOL    HW271717   8.880   4.854   8.669
23274SOL     OW71718  11.103   1.854   6.009
23274SOL    HW171719  11.193   1.822   6.010
23274SOL    HW271720  11.111   1.949   6.017
23275SOL     OW71721   5.033  14.499   3.530
23275SOL    HW171722   5.075  14.585   3.538
23275SOL    HW271723   4.946  14.512   3.569
23276SOL     OW71724  12.834   8.790  14.647
23276SOL    HW171725  12.829   8.718  14.710
23276SOL    HW271726  12.779   8.858  14.686
23277SOL     OW71727  12.815   9.282   7.905
23277SOL    HW171728  12.907   9.295   7.882
23277SOL    HW271729  12.769   9.278   7.821
23278SOL     OW71730  11.731  12.143  11.242
23278SOL    HW171731  11.768  12.226  11.212
23278SOL    HW271732  11.785  12.119  11.318
23279SOL     OW71733  12.897  12.381  11.354
23279SOL    HW171734  12.835  12.451  11.375
23279SOL    HW271735  12.923  12.345  11.439
23280SOL     OW71736   4.114   8.608   9.261
23280SOL    HW171737   4.084   8.572   9.344
23280SOL    HW271738   4.047   8.673   9.238
23281SOL     OW71739  10.358   7.912   1.925
23281SOL    HW171740  10.425   7.905   1.857
23281SOL    HW271741  10.326   7.823   1.937
23282SOL     OW71742  10.504  14.463  13.752
23282SOL    HW171743  10.592  14.497  13.767
23282SOL    HW271744  10.470  14.442  13.839
23283SOL     OW71745   5.123   5.962   1.448
23283SOL    HW171746   5.151   6.048   1.478
23283SOL    HW271747   5.033   5.953   1.479
23284SOL     OW71748  14.828   4.498  11.347
23284SOL    HW171749  14.820   4.405  11.329
23284SOL    HW271750  14.752   4.520  11.400
23285SOL     OW71751   2.197   4.957  12.367
23285SOL    HW171752   2.169   5.005  12.289
23285SOL    HW271753   2.190   4.865  12.341
23286SOL     OW71754  10.744   1.635  10.252
23286SOL    HW171755  10.663   1.623  10.202
23286SOL    HW271756  10.759   1.550  10.293
23287SOL     OW71757  10.954   0.067   7.710
23287SOL    HW171758  10.881   0.121   7.741
23287SOL    HW271759  10.978   0.105   7.625
23288SOL     OW71760   9.552   1.785  11.728
23288SOL    HW171761   9.609   1.708  11.726
23288SOL    HW271762   9.610   1.859  11.743
23289SOL     OW71763  13.089  14.107   1.517
23289SOL    HW171764  13.014  14.049   1.507
23289SOL    HW271765  13.052  14.187   1.556
23290SOL     OW71766   9.706  13.108   4.187
23290SOL    HW171767   9.755  13.050   4.244
23290SOL    HW271768   9.726  13.196   4.218
23291SOL     OW71769  10.552   5.866   6.893
23291SOL    HW171770  10.605   5.915   6.956
23291SOL    HW271771  10.479   5.833   6.944
23292SOL     OW71772   5.981   3.490   6.802
23292SOL    HW171773   5.977   3.585   6.809
23292SOL    HW271774   5.988   3.460   6.892
23293SOL     OW71775  11.381   7.660   8.933
23293SOL    HW171776  11.469   7.647   8.897
23293SOL    HW271777  11.392   7.651   9.028
23294SOL     OW71778   5.697   7.504  12.793
23294SOL    HW171779   5.696   7.418  12.750
23294SOL    HW271780   5.607   7.536  12.785
23295SOL     OW71781  11.131  10.254  12.954
23295SOL    HW171782  11.192  10.204  12.900
23295SOL    HW271783  11.070  10.292  12.891
23296SOL     OW71784   5.659   7.200  13.999
23296SOL    HW171785   5.599   7.267  13.967
23296SOL    HW271786   5.745   7.230  13.969
23297SOL     OW71787  13.186  14.219  12.603
23297SOL    HW171788  13.220  14.306  12.622
23297SOL    HW271789  13.241  14.187  12.532
23298SOL     OW71790  14.137   7.506  13.463
23298SOL    HW171791  14.166   7.597  13.468
23298SOL    HW271792  14.056   7.509  13.412
23299SOL     OW71793   6.559   1.544   1.000
23299SOL    HW171794   6.630   1.480   0.997
23299SOL    HW271795   6.481   1.496   0.971
23300SOL     OW71796  13.036  10.519  13.531
23300SOL    HW171797  13.006  10.503  13.442
23300SOL    HW271798  13.010  10.609  13.551
23301SOL     OW71799   9.323   9.921  10.681
23301SOL    HW171800   9.357   9.988  10.740
23301SOL    HW271801   9.358   9.839  10.716
23302SOL     OW71802   1.385   0.178  14.717
23302SOL    HW171803   1.361   0.235  14.645
23302SOL    HW271804   1.302   0.150  14.755
23303SOL     OW71805   9.280  11.870   6.909
23303SOL    HW171806   9.278  11.950   6.856
23303SOL    HW271807   9.190  11.838   6.908
23304SOL     OW71808   2.762   6.366   3.137
23304SOL    HW171809   2.852   6.343   3.160
23304SOL    HW271810   2.739   6.437   3.197
23305SOL     OW71811  10.625   3.500  14.491
23305SOL    HW171812  10.565   3.477  14.420
23305SOL    HW271813  10.661   3.416  14.521
23306SOL     OW71814   5.015   9.501  13.394
23306SOL    HW171815   4.954   9.515  13.321
23306SOL    HW271816   4.959   9.473  13.466
23307SOL     OW71817   5.407   4.737   4.405
23307SOL    HW171818   5.455   4.671   4.354
23307SOL    HW271819   5.327   4.693   4.433
23308SOL     OW71820   6.204  10.203   6.457
23308SOL    HW171821   6.131  10.190   6.396
23308SOL    HW271822   6.176  10.157   6.536
23309SOL     OW71823   3.813   4.282   1.421
23309SOL    HW171824   3.726   4.277   1.461
23309SOL    HW271825   3.862   4.211   1.461
23310SOL     OW71826   9.503  12.145   1.775
23310SOL    HW171827   9.558  12.220   1.796
23310SOL    HW271828   9.414  12.173   1.796
23311SOL     OW71829   8.052  11.025   8.769
23311SOL    HW171830   7.959  11.049   8.771
23311SOL    HW271831   8.087  11.058   8.851
23312SOL     OW71832  11.386   8.375   2.514
23312SOL    HW171833  11.310   8.319   2.498
23312SOL    HW271834  11.374   8.449   2.454
23313SOL     OW71835  14.705   2.701   1.963
23313SOL    HW171836  14.791   2.742   1.968
23313SOL    HW271837  14.654   2.745   2.031
23314SOL     OW71838   5.253  12.472  11.829
23314SOL    HW171839   5.279  12.552  11.874
23314SOL    HW271840   5.173  12.444  11.874
23315SOL     OW71841   0.606   0.551  13.763
23315SOL    HW171842   0.575   0.638  13.788
23315SOL    HW271843   0.607   0.502  13.845
23316SOL     OW71844   5.457   7.968   4.112
23316SOL    HW171845   5.440   7.891   4.167
23316SOL    HW271846   5.549   7.961   4.089
23317SOL     OW71847   0.236  10.004  11.616
23317SOL    HW171848   0.301   9.959  11.670
23317SOL    HW271849   0.285  10.075  11.575
23318SOL     OW71850   6.178   5.406   2.228
23318SOL    HW171851   6.144   5.353   2.157
23318SOL    HW271852   6.244   5.350   2.270
23319SOL     OW71853  13.796   8.168  10.383
23319SOL    HW171854  13.862   8.201  10.444
23319SOL    HW271855  13.819   8.207  10.299
23320SOL     OW71856   2.263   7.871   4.285
23320SOL    HW171857   2.179   7.895   4.325
23320SOL    HW271858   2.328   7.889   4.352
23321SOL     OW71859   1.359   3.025   6.283
23321SOL    HW171860   1.339   2.945   6.235
23321SOL    HW271861   1.361   2.998   6.375
23322SOL     OW71862   3.701  10.665  14.183
23322SOL    HW171863   3.724  10.575  14.160
23322SOL    HW271864   3.611  10.675  14.150
23323SOL     OW71865   1.840   8.177  14.125
23323SOL    HW171866   1.763   8.167  14.069
23323SOL    HW271867   1.904   8.221  14.069
23324SOL     OW71868  10.637   5.624   7.080
23324SOL    HW171869  10.569   5.617   7.147
23324SOL    HW271870  10.589   5.640   6.999
23325SOL     OW71871   3.010  11.479   1.805
23325SOL    HW171872   3.034  11.467   1.897
23325SOL    HW271873   3.091  11.463   1.756
23326SOL     OW71874   7.009   7.499   2.879
23326SOL    HW171875   6.990   7.425   2.822
23326SOL    HW271876   7.085   7.470   2.931
23327SOL     OW71877   5.640   9.128   4.791
23327SOL    HW171878   5.671   9.165   4.874
23327SOL    HW271879   5.545   9.132   4.797
23328SOL     OW71880   6.549  13.307  10.573
23328SOL    HW171881   6.478  13.243  10.564
23328SOL    HW271882   6.534  13.347  10.659
23329SOL     OW71883   8.583   3.638   3.942
23329SOL    HW171884   8.608   3.709   4.001
23329SOL    HW271885   8.645   3.643   3.870
23330SOL     OW71886  11.517   9.804  11.338
23330SOL    HW171887  11.536   9.791  11.431
23330SOL    HW271888  11.603   9.799  11.296
23331SOL     OW71889  13.681  11.960   5.810
23331SOL    HW171890  13.751  11.896   5.820
23331SOL    HW271891  13.652  11.949   5.719
23332SOL     OW71892   8.142  10.894   8.189
23332SOL    HW171893   8.208  10.932   8.247
23332SOL    HW271894   8.165  10.801   8.184
23333SOL     OW71895  14.471   1.989  14.632
23333SOL    HW171896  14.379   1.977  14.607
23333SOL    HW271897  14.520   1.938  14.567
23334SOL     OW71898   8.497   1.990   3.082
23334SOL    HW171899   8.419   1.958   3.037
23334SOL    HW271900   8.468   2.008   3.172
23335SOL     OW71901   1.294   7.583   7.210
23335SOL    HW171902   1.284   7.674   7.183
23335SOL    HW271903   1.250   7.578   7.294
23336SOL     OW71904  13.926   5.363  13.235
23336SOL    HW171905  13.974   5.288  13.200
23336SOL    HW271906  13.923   5.426  13.162
23337SOL     OW71907   0.292   4.562   6.294
23337SOL    HW171908   0.357   4.632   6.288
23337SOL    HW271909   0.223   4.588   6.232
23338SOL     OW71910   0.571   6.497   7.022
23338SOL    HW171911   0.512   6.567   7.048
23338SOL    HW271912   0.513   6.423   7.003
23339SOL     OW71913   0.577  11.468   7.785
23339SOL    HW171914   0.652  11.412   7.805
23339SOL    HW271915   0.604  11.555   7.816
23340SOL     OW71916  10.526  13.144  11.586
23340SOL    HW171917  10.468  13.086  11.635
23340SOL    HW271918  10.614  13.118  11.613
23341SOL     OW71919   1.897   7.062  11.997
23341SOL    HW171920   1.804   7.083  11.985
23341SOL    HW271921   1.917   7.001  11.927
23342SOL     OW71922   8.628   6.332  10.603
23342SOL    HW171923   8.564   6.342  10.673
23342SOL    HW271924   8.577   6.300  10.528
23343SOL     OW71925   0.076   6.889   7.602
23343SOL    HW171926   0.122   6.971   7.617
23343SOL    HW271927  14.853   6.911   7.614
23344SOL     OW71928   8.809   5.034  14.547
23344SOL    HW171929   8.739   5.053  14.483
23344SOL    HW271930   8.836   5.120  14.579
23345SOL     OW71931  12.744   1.321   6.671
23345SOL    HW171932  12.813   1.304   6.608
23345SOL    HW271933  12.740   1.417   6.676
23346SOL     OW71934  10.345   6.451   0.522
23346SOL    HW171935  10.337   6.357   0.507
23346SOL    HW271936  10.318   6.491   0.439
23347SOL     OW71937   9.180   4.047   9.309
23347SOL    HW171938   9.209   4.089   9.228
23347SOL    HW271939   9.253   4.057   9.370
23348SOL     OW71940  14.262   9.890   0.397
23348SOL    HW171941  14.338   9.832   0.396
23348SOL    HW271942  14.282   9.955   0.465
23349SOL     OW71943   8.491   3.201   3.360
23349SOL    HW171944   8.445   3.281   3.387
23349SOL    HW271945   8.422   3.143   3.329
23350SOL     OW71946   9.470  12.513   0.920
23350SOL    HW171947   9.540  12.463   0.880
23350SOL    HW271948   9.390  12.476   0.883
23351SOL     OW71949   8.075   8.386   3.849
23351SOL    HW171950   8.087   8.435   3.767
23351SOL    HW271951   7.982   8.395   3.869
23352SOL     OW71952   8.192   0.124   2.201
23352SOL    HW171953   8.100   0.144   2.183
23352SOL    HW271954   8.237   0.208   2.194
23353SOL     OW71955   8.180   4.758  12.044
23353SOL    HW171956   8.089   4.788  12.043
23353SOL    HW271957   8.229   4.832  12.081
23354SOL     OW71958   0.781  12.843  13.881
23354SOL    HW171959   0.793  12.753  13.849
23354SOL    HW271960   0.791  12.835  13.976
23355SOL     OW71961   1.467  14.750  13.058
23355SOL    HW171962   1.377  14.728  13.079
23355SOL    HW271963   1.504  14.670  13.022
23356SOL     OW71964   0.967   1.900   9.657
23356SOL    HW171965   1.042   1.943   9.697
23356SOL    HW271966   1.000   1.816   9.626
23357SOL     OW71967   5.276  10.955  14.352
23357SOL    HW171968   5.295  10.923  14.263
23357SOL    HW271969   5.244  11.044  14.339
23358SOL     OW71970   3.041   1.057   2.105
23358SOL    HW171971   3.054   0.965   2.128
23358SOL    HW271972   3.130   1.091   2.089
23359SOL     OW71973   0.525   2.444   9.834
23359SOL    HW171974   0.584   2.506   9.877
23359SOL    HW271975   0.539   2.459   9.740
23360SOL     OW71976   7.539  10.607   2.074
23360SOL    HW171977   7.504  10.629   2.160
23360SOL    HW271978   7.503  10.673   2.015
23361SOL     OW71979  14.154   3.779   4.829
23361SOL    HW171980  14.162   3.744   4.740
23361SOL    HW271981  14.211   3.722   4.881
23362SOL     OW71982   4.200   6.601   9.656
23362SOL    HW171983   4.262   6.621   9.727
23362SOL    HW271984   4.252   6.551   9.593
23363SOL     OW71985  14.327  11.934   3.989
23363SOL    HW171986  14.388  11.982   4.046
23363SOL    HW271987  14.328  11.983   3.907
23364SOL     OW71988   7.431   5.857   3.772
23364SOL    HW171989   7.378   5.935   3.751
23364SOL    HW271990   7.410   5.795   3.703
23365SOL     OW71991   1.780  11.691   3.870
23365SOL    HW171992   1.782  11.597   3.885
23365SOL    HW271993   1.848  11.726   3.927
23366SOL     OW71994   0.006   3.050   7.469
23366SOL    HW171995  14.802   3.085   7.518
23366SOL    HW271996   0.073   3.033   7.536
23367SOL     OW71997   9.243  12.991   4.114
23367SOL    HW171998   9.192  12.985   4.195
23367SOL    HW271999   9.317  13.048   4.136
23368SOL     OW72000   1.485   6.884   8.383
23368SOL    HW172001   1.477   6.789   8.388
23368SOL    HW272002   1.512   6.911   8.470
23369SOL     OW72003  14.435   4.968   8.362
23369SOL    HW172004  14.451   5.007   8.448
23369SOL    HW272005  14.521   4.963   8.321
23370SOL     OW72006  10.063  10.122  12.662
23370SOL    HW172007  10.104  10.184  12.602
23370SOL    HW272008   9.975  10.155  12.675
23371SOL     OW72009   1.582  14.771   8.291
23371SOL    HW172010   1.663  14.801   8.331
23371SOL    HW272011   1.517  14.774   8.361
23372SOL     OW72012   1.992   3.764   7.046
23372SOL    HW172013   1.999   3.718   7.129
23372SOL    HW272014   2.067   3.733   6.995
23373SOL     OW72015  14.725  11.510  11.768
23373SOL    HW172016  14.777  11.443  11.813
23373SOL    HW272017  14.771  11.523  11.685
23374SOL     OW72018  10.928   5.141   6.679
23374SOL    HW172019  10.907   5.232   6.661
23374SOL    HW272020  10.916   5.096   6.596
23375SOL     OW72021   4.245  13.349  10.684
23375SOL    HW172022   4.221  13.360  10.592
23375SOL    HW272023   4.272  13.436  10.712
23376SOL     OW72024   7.405  13.674   3.515
23376SOL    HW172025   7.420  13.599   3.572
23376SOL    HW272026   7.470  13.739   3.543
23377SOL     OW72027   8.239   6.810   2.228
23377SOL    HW172028   8.153   6.823   2.266
23377SOL    HW272029   8.234   6.853   2.142
23378SOL     OW72030   4.966  10.178   6.352
23378SOL    HW172031   4.886  10.145   6.312
23378SOL    HW272032   5.034  10.116   6.326
23379SOL     OW72033   5.339  11.664   0.475
23379SOL    HW172034   5.249  11.633   0.482
23379SOL    HW272035   5.358  11.700   0.561
23380SOL     OW72036   7.998  10.525   1.117
23380SOL    HW172037   7.932  10.457   1.114
23380SOL    HW272038   8.075  10.486   1.076
23381SOL     OW72039   0.665   0.250   6.179
23381SOL    HW172040   0.679   0.208   6.094
23381SOL    HW272041   0.707   0.336   6.170
23382SOL     OW72042  10.314   4.781   5.041
23382SOL    HW172043  10.238   4.821   5.000
23382SOL    HW272044  10.308   4.688   5.019
23383SOL     OW72045   4.199   9.106   1.366
23383SOL    HW172046   4.201   9.198   1.393
23383SOL    HW272047   4.247   9.105   1.283
23384SOL     OW72048   7.334  13.863   8.189
23384SOL    HW172049   7.241  13.856   8.165
23384SOL    HW272050   7.333  13.886   8.282
23385SOL     OW72051   5.243  11.674   9.344
23385SOL    HW172052   5.174  11.642   9.286
23385SOL    HW272053   5.205  11.669   9.432
23386SOL     OW72054   2.876  14.364  10.137
23386SOL    HW172055   2.870  14.379  10.231
23386SOL    HW272056   2.939  14.429  10.106
23387SOL     OW72057   3.433   9.392  13.199
23387SOL    HW172058   3.458   9.458  13.263
23387SOL    HW272059   3.507   9.390  13.137
23388SOL     OW72060   3.897  10.895   4.753
23388SOL    HW172061   3.960  10.966   4.745
23388SOL    HW272062   3.812  10.935   4.734
23389SOL     OW72063  11.188  12.877  13.441
23389SOL    HW172064  11.208  12.790  13.476
23389SOL    HW272065  11.211  12.871  13.348
23390SOL     OW72066   3.026   8.772   9.012
23390SOL    HW172067   2.984   8.853   8.980
23390SOL    HW272068   3.002   8.769   9.105
23391SOL     OW72069  12.959  10.968   3.490
23391SOL    HW172070  12.908  10.924   3.422
23391SOL    HW272071  13.047  10.974   3.454
23392SOL     OW72072   2.833   4.115   2.502
23392SOL    HW172073   2.886   4.089   2.426
23392SOL    HW272074   2.849   4.047   2.567
23393SOL     OW72075  12.566   7.791  10.286
23393SOL    HW172076  12.578   7.836  10.369
23393SOL    HW272077  12.648   7.742  10.273
23394SOL     OW72078   3.781   5.066   3.485
23394SOL    HW172079   3.852   5.131   3.481
23394SOL    HW272080   3.813   5.000   3.547
23395SOL     OW72081  13.284  11.969   6.988
23395SOL    HW172082  13.212  11.908   6.973
23395SOL    HW272083  13.344  11.921   7.046
23396SOL     OW72084   5.138   1.519  14.706
23396SOL    HW172085   5.181   1.564  14.779
23396SOL    HW272086   5.209   1.495  14.647
23397SOL     OW72087  11.995   8.588   7.201
23397SOL    HW172088  12.005   8.565   7.108
23397SOL    HW272089  11.944   8.669   7.200
23398SOL     OW72090   4.332   1.638   9.749
23398SOL    HW172091   4.276   1.560   9.755
23398SOL    HW272092   4.337   1.656   9.655
23399SOL     OW72093   0.017   7.156   0.639
23399SOL    HW172094   0.003   7.074   0.687
23399SOL    HW272095   0.041   7.219   0.707
23400SOL     OW72096   0.469   8.691   0.176
23400SOL    HW172097   0.545   8.637   0.198
23400SOL    HW272098   0.399   8.629   0.157
23401SOL     OW72099  10.642   2.703   2.071
23401SOL    HW172100  10.735   2.708   2.046
23401SOL    HW272101  10.597   2.689   1.988
23402SOL     OW72102  13.814  12.822   5.127
23402SOL    HW172103  13.903  12.858   5.124
23402SOL    HW272104  13.824  12.731   5.100
23403SOL     OW72105   1.191   5.752   1.178
23403SOL    HW172106   1.234   5.691   1.237
23403SOL    HW272107   1.213   5.839   1.213
23404SOL     OW72108   6.238  13.201  13.114
23404SOL    HW172109   6.273  13.273  13.166
23404SOL    HW272110   6.151  13.229  13.089
23405SOL     OW72111  13.295  12.916   7.576
23405SOL    HW172112  13.209  12.925   7.617
23405SOL    HW272113  13.347  12.868   7.640
23406SOL     OW72114   1.035   2.493   3.775
23406SOL    HW172115   1.004   2.414   3.820
23406SOL    HW272116   1.044   2.465   3.683
23407SOL     OW72117   4.479   6.431  10.228
23407SOL    HW172118   4.394   6.474  10.235
23407SOL    HW272119   4.542   6.502  10.213
23408SOL     OW72120   6.759   9.404   6.669
23408SOL    HW172121   6.822   9.387   6.739
23408SOL    HW272122   6.742   9.318   6.630
23409SOL     OW72123   7.988   4.844   5.986
23409SOL    HW172124   7.939   4.801   5.916
23409SOL    HW272125   8.003   4.933   5.953
23410SOL     OW72126   1.945   5.674   7.592
23410SOL    HW172127   1.996   5.700   7.516
23410SOL    HW272128   2.010   5.640   7.654
23411SOL     OW72129   3.795   6.580   0.553
23411SOL    HW172130   3.732   6.522   0.511
23411SOL    HW272131   3.756   6.599   0.638
23412SOL     OW72132   7.728   9.260   2.925
23412SOL    HW172133   7.657   9.245   2.987
23412SOL    HW272134   7.738   9.355   2.923
23413SOL     OW72135   3.367   1.249   3.937
23413SOL    HW172136   3.275   1.274   3.940
23413SOL    HW272137   3.414   1.325   3.972
23414SOL     OW72138   3.847   5.440   2.011
23414SOL    HW172139   3.922   5.494   1.987
23414SOL    HW272140   3.850   5.435   2.107
23415SOL     OW72141   0.789  11.107  13.671
23415SOL    HW172142   0.723  11.056  13.625
23415SOL    HW272143   0.864  11.048  13.679
23416SOL     OW72144   3.238   9.403   2.309
23416SOL    HW172145   3.293   9.326   2.294
23416SOL    HW272146   3.156   9.383   2.264
23417SOL     OW72147   1.640  12.703   9.826
23417SOL    HW172148   1.708  12.769   9.816
23417SOL    HW272149   1.688  12.621   9.836
23418SOL     OW72150   2.185  12.694   5.000
23418SOL    HW172151   2.241  12.772   4.997
23418SOL    HW272152   2.147  12.695   5.087
23419SOL     OW72153  14.461   1.936  13.081
23419SOL    HW172154  14.377   1.919  13.039
23419SOL    HW272155  14.492   2.018  13.044
23420SOL     OW72156  12.534   3.169   9.806
23420SOL    HW172157  12.494   3.102   9.751
23420SOL    HW272158  12.500   3.252   9.771
23421SOL     OW72159  12.873   1.438   1.229
23421SOL    HW172160  12.931   1.449   1.305
23421SOL    HW272161  12.863   1.343   1.220
23422SOL     OW72162   2.045  14.327  10.425
23422SOL    HW172163   1.972  14.299  10.480
23422SOL    HW272164   2.015  14.310  10.335
23423SOL     OW72165  11.892   8.570   4.181
23423SOL    HW172166  11.849   8.488   4.205
23423SOL    HW272167  11.840   8.638   4.225
23424SOL     OW72168  12.358   5.834  11.931
23424SOL    HW172169  12.424   5.842  12.000
23424SOL    HW272170  12.335   5.741  11.930
23425SOL     OW72171  12.625  12.489  13.254
23425SOL    HW172172  12.642  12.485  13.160
23425SOL    HW272173  12.673  12.566  13.284
23426SOL     OW72174   2.787   2.558   8.369
23426SOL    HW172175   2.742   2.611   8.434
23426SOL    HW272176   2.732   2.563   8.291
23427SOL     OW72177   3.678  14.466  11.373
23427SOL    HW172178   3.689  14.384  11.323
23427SOL    HW272179   3.603  14.449  11.430
23428SOL     OW72180   9.327  11.867  11.536
23428SOL    HW172181   9.337  11.921  11.458
23428SOL    HW272182   9.266  11.797  11.509
23429SOL     OW72183  12.929  11.869   3.944
23429SOL    HW172184  13.019  11.857   3.914
23429SOL    HW272185  12.879  11.885   3.864
23430SOL     OW72186   7.078   8.655   0.815
23430SOL    HW172187   7.147   8.681   0.754
23430SOL    HW272188   7.085   8.717   0.887
23431SOL     OW72189  10.995  13.952   6.159
23431SOL    HW172190  11.017  14.030   6.209
23431SOL    HW272191  11.054  13.954   6.083
23432SOL     OW72192  13.466  14.233   3.406
23432SOL    HW172193  13.509  14.314   3.430
23432SOL    HW272194  13.488  14.220   3.314
23433SOL     OW72195   3.801   8.366   6.845
23433SOL    HW172196   3.717   8.398   6.878
23433SOL    HW272197   3.784   8.346   6.753
23434SOL     OW72198  10.581   6.772   1.423
23434SOL    HW172199  10.598   6.773   1.329
23434SOL    HW272200  10.550   6.683   1.440
23435SOL     OW72201   2.650   9.826  10.118
23435SOL    HW172202   2.608   9.839  10.203
23435SOL    HW272203   2.743   9.846  10.134
23436SOL     OW72204  14.745  12.849  11.421
23436SOL    HW172205  14.838  12.825  11.415
23436SOL    HW272206  14.743  12.942  11.399
23437SOL     OW72207   6.389  10.185  11.956
23437SOL    HW172208   6.351  10.197  12.043
23437SOL    HW272209   6.314  10.187  11.896
23438SOL     OW72210   8.126   7.316   1.322
23438SOL    HW172211   8.179   7.265   1.383
23438SOL    HW272212   8.078   7.378   1.377
23439SOL     OW72213   8.488   5.816   4.223
23439SOL    HW172214   8.459   5.863   4.145
23439SOL    HW272215   8.433   5.849   4.294
23440SOL     OW72216  14.565   9.403  10.849
23440SOL    HW172217  14.490   9.352  10.818
23440SOL    HW272218  14.639   9.342  10.843
23441SOL     OW72219   5.154   5.160  10.454
23441SOL    HW172220   5.211   5.211  10.397
23441SOL    HW272221   5.135   5.217  10.528
23442SOL     OW72222   8.467   0.475  11.307
23442SOL    HW172223   8.489   0.387  11.278
23442SOL    HW272224   8.479   0.473  11.402
23443SOL     OW72225   6.439   0.434  14.329
23443SOL    HW172226   6.488   0.459  14.250
23443SOL    HW272227   6.422   0.517  14.373
23444SOL     OW72228   6.472   9.482   5.106
23444SOL    HW172229   6.449   9.572   5.081
23444SOL    HW272230   6.407   9.459   5.172
23445SOL     OW72231   2.735  12.366   3.801
23445SOL    HW172232   2.673  12.301   3.770
23445SOL    HW272233   2.713  12.446   3.754
23446SOL     OW72234   7.168   6.082   9.676
23446SOL    HW172235   7.124   6.166   9.662
23446SOL    HW272236   7.106   6.029   9.726
23447SOL     OW72237   4.343  13.141   4.431
23447SOL    HW172238   4.279  13.117   4.498
23447SOL    HW272239   4.304  13.218   4.388
23448SOL     OW72240   7.619   2.939   7.545
23448SOL    HW172241   7.585   3.025   7.520
23448SOL    HW272242   7.713   2.946   7.534
23449SOL     OW72243  13.339  14.014  13.189
23449SOL    HW172244  13.250  13.989  13.167
23449SOL    HW272245  13.384  14.020  13.104
23450SOL     OW72246   8.510   6.164   5.818
23450SOL    HW172247   8.445   6.115   5.868
23450SOL    HW272248   8.589   6.163   5.872
23451SOL     OW72249  11.691   1.459  13.163
23451SOL    HW172250  11.722   1.550  13.166
23451SOL    HW272251  11.713   1.424  13.249
23452SOL     OW72252   5.961   2.310  10.421
23452SOL    HW172253   6.046   2.286  10.387
23452SOL    HW272254   5.950   2.256  10.499
23453SOL     OW72255   4.739  13.997   9.684
23453SOL    HW172256   4.730  13.970   9.776
23453SOL    HW272257   4.656  14.041   9.664
23454SOL     OW72258   0.381   0.401   0.463
23454SOL    HW172259   0.407   0.461   0.534
23454SOL    HW272260   0.313   0.449   0.416
23455SOL     OW72261   8.123   3.170   3.720
23455SOL    HW172262   8.121   3.264   3.700
23455SOL    HW272263   8.080   3.163   3.805
23456SOL     OW72264   6.106   3.852   9.851
23456SOL    HW172265   6.133   3.818   9.936
23456SOL    HW272266   6.109   3.947   9.861
23457SOL     OW72267  13.653  14.442  11.197
23457SOL    HW172268  13.558  14.443  11.199
23457SOL    HW272269  13.675  14.387  11.121
23458SOL     OW72270  12.281   8.496   3.618
23458SOL    HW172271  12.331   8.465   3.543
23458SOL    HW272272  12.214   8.429   3.632
23459SOL     OW72273   8.087   0.112  14.618
23459SOL    HW172274   8.122   0.162  14.545
23459SOL    HW272275   8.164   0.080  14.665
23460SOL     OW72276   7.673   5.688  13.713
23460SOL    HW172277   7.595   5.732  13.748
23460SOL    HW272278   7.715   5.649  13.790
23461SOL     OW72279   9.729   0.943   9.276
23461SOL    HW172280   9.698   0.856   9.251
23461SOL    HW272281   9.771   0.977   9.197
23462SOL     OW72282   5.830  14.389  10.613
23462SOL    HW172283   5.826  14.296  10.591
23462SOL    HW272284   5.741  14.422  10.596
23463SOL     OW72285   3.750   2.414  12.577
23463SOL    HW172286   3.702   2.331  12.581
23463SOL    HW272287   3.763   2.430  12.483
23464SOL     OW72288  10.735  13.419   4.353
23464SOL    HW172289  10.751  13.340   4.301
23464SOL    HW272290  10.682  13.474   4.295
23465SOL     OW72291   9.509  13.778   0.410
23465SOL    HW172292   9.415  13.774   0.389
23465SOL    HW272293   9.512  13.777   0.506
23466SOL     OW72294   7.769   5.074   4.461
23466SOL    HW172295   7.745   5.129   4.386
23466SOL    HW272296   7.805   4.994   4.422
23467SOL     OW72297   4.912   5.987  10.702
23467SOL    HW172298   4.949   5.927  10.767
23467SOL    HW272299   4.853   5.932  10.650
23468SOL     OW72300  10.362   8.070   4.257
23468SOL    HW172301  10.429   8.047   4.193
23468SOL    HW272302  10.329   7.986   4.289
23469SOL     OW72303   6.057   2.953   5.730
23469SOL    HW172304   6.060   2.925   5.822
23469SOL    HW272305   6.027   2.876   5.682
23470SOL     OW72306  10.750   4.286   9.282
23470SOL    HW172307  10.717   4.230   9.211
23470SOL    HW272308  10.715   4.246   9.362
23471SOL     OW72309   5.301   0.767   5.245
23471SOL    HW172310   5.377   0.718   5.276
23471SOL    HW272311   5.310   0.767   5.150
23472SOL     OW72312  12.048  12.291   7.703
23472SOL    HW172313  11.961  12.310   7.668
23472SOL    HW272314  12.108  12.315   7.632
23473SOL     OW72315   7.967   7.879   1.568
23473SOL    HW172316   7.917   7.890   1.649
23473SOL    HW272317   8.058   7.873   1.596
23474SOL     OW72318   5.766   3.785   5.227
23474SOL    HW172319   5.676   3.754   5.219
23474SOL    HW272320   5.787   3.819   5.140
23475SOL     OW72321   3.941   5.222   6.446
23475SOL    HW172322   3.910   5.149   6.500
23475SOL    HW272323   3.867   5.243   6.390
23476SOL     OW72324   1.499   9.327   9.270
23476SOL    HW172325   1.442   9.287   9.204
23476SOL    HW272326   1.441   9.383   9.321
23477SOL     OW72327   7.315   3.546   2.267
23477SOL    HW172328   7.377   3.610   2.302
23477SOL    HW272329   7.229   3.583   2.286
23478SOL     OW72330   3.626   5.010  12.960
23478SOL    HW172331   3.664   5.076  13.017
23478SOL    HW272332   3.584   4.948  13.020
23479SOL     OW72333   9.557   3.170  14.322
23479SOL    HW172334   9.492   3.122  14.270
23479SOL    HW272335   9.571   3.114  14.399
23480SOL     OW72336   3.867   3.908   7.958
23480SOL    HW172337   3.810   3.845   7.913
23480SOL    HW272338   3.926   3.940   7.890
23481SOL     OW72339  13.888   0.793  10.351
23481SOL    HW172340  13.947   0.760  10.418
23481SOL    HW272341  13.806   0.809  10.397
23482SOL     OW72342  14.199   0.078  13.657
23482SOL    HW172343  14.229   0.035  13.737
23482SOL    HW272344  14.146   0.012  13.612
23483SOL     OW72345   2.842   9.483   2.687
23483SOL    HW172346   2.923   9.471   2.637
23483SOL    HW272347   2.862   9.446   2.773
23484SOL     OW72348   9.119   3.294  12.453
23484SOL    HW172349   9.164   3.254  12.527
23484SOL    HW272350   9.176   3.367  12.427
23485SOL     OW72351   3.701  12.318   2.267
23485SOL    HW172352   3.659  12.359   2.342
23485SOL    HW272353   3.686  12.224   2.280
23486SOL     OW72354   3.328   3.009  14.663
23486SOL    HW172355   3.369   2.932  14.702
23486SOL    HW272356   3.400   3.072  14.655
23487SOL     OW72357  14.648  14.212   4.553
23487SOL    HW172358  14.669  14.224   4.461
23487SOL    HW272359  14.590  14.286   4.574
23488SOL     OW72360   3.568   7.588  13.860
23488SOL    HW172361   3.496   7.610  13.802
23488SOL    HW272362   3.554   7.641  13.938
23489SOL     OW72363   6.254   8.415   0.173
23489SOL    HW172364   6.268   8.493   0.226
23489SOL    HW272365   6.164   8.388   0.192
23490SOL     OW72366  11.583   8.279  10.744
23490SOL    HW172367  11.669   8.240  10.728
23490SOL    HW272368  11.602   8.360  10.791
23491SOL     OW72369  13.050  12.857   2.047
23491SOL    HW172370  13.135  12.895   2.027
23491SOL    HW272371  13.031  12.800   1.972
23492SOL     OW72372   8.565   6.907   0.993
23492SOL    HW172373   8.529   6.980   1.043
23492SOL    HW272374   8.636   6.873   1.048
23493SOL     OW72375   5.706   8.318  10.715
23493SOL    HW172376   5.795   8.326  10.749
23493SOL    HW272377   5.714   8.258  10.641
23494SOL     OW72378  11.326   5.762   4.269
23494SOL    HW172379  11.344   5.743   4.361
23494SOL    HW272380  11.317   5.676   4.228
23495SOL     OW72381   0.950  10.260  14.660
23495SOL    HW172382   0.909  10.185  14.617
23495SOL    HW272383   1.033  10.227  14.693
23496SOL     OW72384  14.532  11.481   0.374
23496SOL    HW172385  14.614  11.490   0.326
23496SOL    HW272386  14.469  11.451   0.309
23497SOL     OW72387  10.338   3.822   0.477
23497SOL    HW172388  10.264   3.869   0.516
23497SOL    HW272389  10.376   3.773   0.550
23498SOL     OW72390   0.293   1.711   7.807
23498SOL    HW172391   0.358   1.706   7.737
23498SOL    HW272392   0.339   1.753   7.880
23499SOL     OW72393  12.352   0.341   8.108
23499SOL    HW172394  12.271   0.303   8.140
23499SOL    HW272395  12.332   0.434   8.097
23500SOL     OW72396  10.535   1.248   0.543
23500SOL    HW172397  10.614   1.271   0.494
23500SOL    HW272398  10.552   1.279   0.632
23501SOL     OW72399   3.308   4.225   2.763
23501SOL    HW172400   3.235   4.277   2.730
23501SOL    HW272401   3.377   4.237   2.698
23502SOL     OW72402   6.767  11.080   4.062
23502SOL    HW172403   6.682  11.044   4.087
23502SOL    HW272404   6.754  11.114   3.974
23503SOL     OW72405  14.113   2.474  11.316
23503SOL    HW172406  14.129   2.526  11.394
23503SOL    HW272407  14.146   2.387  11.338
23504SOL     OW72408   2.880   3.274   9.349
23504SOL    HW172409   2.859   3.339   9.282
23504SOL    HW272410   2.968   3.245   9.327
23505SOL     OW72411  10.986  12.374  11.464
23505SOL    HW172412  10.989  12.327  11.381
23505SOL    HW272413  10.943  12.457  11.444
23506SOL     OW72414   1.097  12.558   2.569
23506SOL    HW172415   1.013  12.571   2.614
23506SOL    HW272416   1.162  12.594   2.629
23507SOL     OW72417  12.736   7.419  12.469
23507SOL    HW172418  12.819   7.400  12.513
23507SOL    HW272419  12.683   7.462  12.537
23508SOL     OW72420  11.346   4.074  12.812
23508SOL    HW172421  11.361   3.999  12.869
23508SOL    HW272422  11.412   4.138  12.839
23509SOL     OW72423  10.293   3.573   0.115
23509SOL    HW172424  10.272   3.661   0.149
23509SOL    HW272425  10.346   3.533   0.184
23510SOL     OW72426  10.510  10.267   4.498
23510SOL    HW172427  10.551  10.196   4.449
23510SOL    HW272428  10.539  10.253   4.588
23511SOL     OW72429   8.969   1.366  10.672
23511SOL    HW172430   8.907   1.363  10.744
23511SOL    HW272431   8.925   1.319  10.601
23512SOL     OW72432   4.410  11.874   1.781
23512SOL    HW172433   4.495  11.831   1.774
23512SOL    HW272434   4.350  11.816   1.735
23513SOL     OW72435  11.294  12.796   0.556
23513SOL    HW172436  11.246  12.775   0.475
23513SOL    HW272437  11.354  12.866   0.530
23514SOL     OW72438   5.979   1.688   3.551
23514SOL    HW172439   5.969   1.696   3.646
23514SOL    HW272440   5.937   1.766   3.516
23515SOL     OW72441  11.312  12.810   3.858
23515SOL    HW172442  11.269  12.810   3.772
23515SOL    HW272443  11.270  12.738   3.905
23516SOL     OW72444   8.133  12.507  11.691
23516SOL    HW172445   8.212  12.548  11.655
23516SOL    HW272446   8.124  12.544  11.779
23517SOL     OW72447  12.006   9.949  13.337
23517SOL    HW172448  12.092   9.945  13.296
23517SOL    HW272449  11.973  10.036  13.314
23518SOL     OW72450   1.987   3.321   8.695
23518SOL    HW172451   1.894   3.303   8.685
23518SOL    HW272452   2.017   3.342   8.607
23519SOL     OW72453  12.189  12.615   8.504
23519SOL    HW172454  12.197  12.593   8.597
23519SOL    HW272455  12.248  12.690   8.492
23520SOL     OW72456   9.329   8.139   7.677
23520SOL    HW172457   9.343   8.159   7.584
23520SOL    HW272458   9.274   8.061   7.677
23521SOL     OW72459   3.108  11.564   8.539
23521SOL    HW172460   3.104  11.575   8.444
23521SOL    HW272461   3.164  11.488   8.552
23522SOL     OW72462  13.464  10.888  13.704
23522SOL    HW172463  13.440  10.874  13.795
23522SOL    HW272464  13.514  10.970  13.704
23523SOL     OW72465   7.043  13.237   4.951
23523SOL    HW172466   6.978  13.167   4.952
23523SOL    HW272467   7.122  13.197   4.915
23524SOL     OW72468  14.341   3.807  10.910
23524SOL    HW172469  14.309   3.888  10.871
23524SOL    HW272470  14.261   3.760  10.936
23525SOL     OW72471   5.388  10.316   5.888
23525SOL    HW172472   5.330  10.320   5.965
23525SOL    HW272473   5.340  10.263   5.825
23526SOL     OW72474   4.087  14.548  12.319
23526SOL    HW172475   4.005  14.554  12.368
23526SOL    HW272476   4.156  14.556  12.385
23527SOL     OW72477  11.210   1.708  11.228
23527SOL    HW172478  11.284   1.744  11.178
23527SOL    HW272479  11.169   1.645  11.169
23528SOL     OW72480   9.992   5.708   5.845
23528SOL    HW172481   9.952   5.731   5.761
23528SOL    HW272482  10.051   5.781   5.864
23529SOL     OW72483   6.437   5.859   8.927
23529SOL    HW172484   6.401   5.799   8.862
23529SOL    HW272485   6.532   5.847   8.920
23530SOL     OW72486  14.740   2.791  11.174
23530SOL    HW172487  14.793   2.838  11.110
23530SOL    HW272488  14.701   2.719  11.124
23531SOL     OW72489   8.151  14.360   9.872
23531SOL    HW172490   8.066  14.320   9.889
23531SOL    HW272491   8.133  14.453   9.861
23532SOL     OW72492   9.396   5.243  14.568
23532SOL    HW172493   9.416   5.336  14.562
23532SOL    HW272494   9.355   5.221  14.484
23533SOL     OW72495   9.276  11.183   8.641
23533SOL    HW172496   9.205  11.120   8.656
23533SOL    HW272497   9.277  11.238   8.719
23534SOL     OW72498   8.854  13.849  10.853
23534SOL    HW172499   8.800  13.783  10.897
23534SOL    HW272500   8.819  13.853  10.764
23535SOL     OW72501  14.784   2.156   9.585
23535SOL    HW172502  14.724   2.187   9.518
23535SOL    HW272503  14.863   2.130   9.538
23536SOL     OW72504   7.604   6.653   2.183
23536SOL    HW172505   7.668   6.677   2.116
23536SOL    HW272506   7.519   6.667   2.140
23537SOL     OW72507  12.777   2.552   7.285
23537SOL    HW172508  12.843   2.483   7.276
23537SOL    HW272509  12.792   2.609   7.210
23538SOL     OW72510  10.931  13.388  10.527
23538SOL    HW172511  10.998  13.430  10.473
23538SOL    HW272512  10.929  13.297  10.496
23539SOL     OW72513  10.705   4.512   7.386
23539SOL    HW172514  10.728   4.422   7.409
23539SOL    HW272515  10.634   4.535   7.445
23540SOL     OW72516   2.330   5.256  14.489
23540SOL    HW172517   2.240   5.225  14.499
23540SOL    HW272518   2.373   5.231  14.571
23541SOL     OW72519   9.097  11.326   1.474
23541SOL    HW172520   9.143  11.330   1.390
23541SOL    HW272521   9.103  11.234   1.500
23542SOL     OW72522   2.860   9.141   7.572
23542SOL    HW172523   2.828   9.198   7.502
23542SOL    HW272524   2.903   9.200   7.634
23543SOL     OW72525   0.064   5.015  13.730
23543SOL    HW172526   0.157   5.039  13.723
23543SOL    HW272527   0.064   4.928  13.769
23544SOL     OW72528  13.407   9.482   7.624
23544SOL    HW172529  13.480   9.424   7.606
23544SOL    HW272530  13.435   9.534   7.699
23545SOL     OW72531   7.049   1.348   9.403
23545SOL    HW172532   7.072   1.440   9.393
23545SOL    HW272533   7.106   1.316   9.473
23546SOL     OW72534  12.239   9.198   5.908
23546SOL    HW172535  12.264   9.249   5.831
23546SOL    HW272536  12.306   9.130   5.915
23547SOL     OW72537   3.435   1.806   4.219
23547SOL    HW172538   3.479   1.887   4.244
23547SOL    HW272539   3.499   1.759   4.165
23548SOL     OW72540   5.370  14.574  14.344
23548SOL    HW172541   5.430  14.597  14.274
23548SOL    HW272542   5.294  14.631  14.330
23549SOL     OW72543   0.867   8.688  13.779
23549SOL    HW172544   0.844   8.662  13.868
23549SOL    HW272545   0.931   8.758  13.789
23550SOL     OW72546   8.525   2.961  11.531
23550SOL    HW172547   8.525   3.046  11.487
23550SOL    HW272548   8.611   2.924  11.513
23551SOL     OW72549   4.739   6.947   5.069
23551SOL    HW172550   4.673   6.919   5.005
23551SOL    HW272551   4.739   7.042   5.063
23552SOL     OW72552  14.324   7.629  14.483
23552SOL    HW172553  14.407   7.627  14.531
23552SOL    HW272554  14.262   7.585  14.541
23553SOL     OW72555   8.491  14.388  10.225
23553SOL    HW172556   8.436  14.333  10.168
23553SOL    HW272557   8.452  14.475  10.220
23554SOL     OW72558   3.807  13.877   7.552
23554SOL    HW172559   3.718  13.891   7.584
23554SOL    HW272560   3.798  13.862   7.458
23555SOL     OW72561  14.598  11.333  10.586
23555SOL    HW172562  14.592  11.415  10.537
23555SOL    HW272563  14.660  11.352  10.657
23556SOL     OW72564   7.411   4.946  10.147
23556SOL    HW172565   7.434   4.925  10.237
23556SOL    HW272566   7.334   5.002  10.154
23557SOL     OW72567   4.778   3.871  12.862
23557SOL    HW172568   4.781   3.863  12.957
23557SOL    HW272569   4.746   3.960  12.846
23558SOL     OW72570   3.644   3.611  13.490
23558SOL    HW172571   3.553   3.619  13.460
23558SOL    HW272572   3.661   3.695  13.534
23559SOL     OW72573   9.074   8.430  11.479
23559SOL    HW172574   9.134   8.475  11.538
23559SOL    HW272575   9.131   8.394  11.410
23560SOL     OW72576   7.525  14.644  10.045
23560SOL    HW172577   7.590  14.628  10.113
23560SOL    HW272578   7.575  14.686   9.974
23561SOL     OW72579   1.547  13.832  12.790
23561SOL    HW172580   1.558  13.920  12.826
23561SOL    HW272581   1.634  13.806  12.761
23562SOL     OW72582  14.006   0.447   9.932
23562SOL    HW172583  14.086   0.396   9.936
23562SOL    HW272584  14.033   0.537   9.948
23563SOL     OW72585   2.504   2.950   6.701
23563SOL    HW172586   2.488   3.014   6.770
23563SOL    HW272587   2.598   2.956   6.684
23564SOL     OW72588  14.737   7.713   2.560
23564SOL    HW172589  14.764   7.758   2.479
23564SOL    HW272590  14.782   7.760   2.630
23565SOL     OW72591   9.329   4.910   5.019
23565SOL    HW172592   9.321   4.935   4.927
23565SOL    HW272593   9.423   4.894   5.032
23566SOL     OW72594  14.236  10.684   6.256
23566SOL    HW172595  14.234  10.737   6.176
23566SOL    HW272596  14.192  10.739   6.322
23567SOL     OW72597  10.047   2.751   1.915
23567SOL    HW172598  10.083   2.775   2.000
23567SOL    HW272599  10.112   2.693   1.876
23568SOL     OW72600   8.350   3.814  13.481
23568SOL    HW172601   8.382   3.855  13.400
23568SOL    HW272602   8.287   3.748  13.451
23569SOL     OW72603   6.842   7.259   6.706
23569SOL    HW172604   6.767   7.252   6.646
23569SOL    HW272605   6.841   7.177   6.756
23570SOL     OW72606  11.221  10.573   6.149
23570SOL    HW172607  11.199  10.486   6.115
23570SOL    HW272608  11.278  10.611   6.082
23571SOL     OW72609   9.465   4.250  11.798
23571SOL    HW172610   9.523   4.236  11.724
23571SOL    HW272611   9.481   4.340  11.825
23572SOL     OW72612   3.159   7.991   3.207
23572SOL    HW172613   3.093   7.960   3.146
23572SOL    HW272614   3.149   7.936   3.285
23573SOL     OW72615   3.090   0.086   1.692
23573SOL    HW172616   2.999   0.071   1.665
23573SOL    HW272617   3.104   0.023   1.762
23574SOL     OW72618  12.013   4.083   1.218
23574SOL    HW172619  12.044   4.045   1.137
23574SOL    HW272620  11.962   4.159   1.191
23575SOL     OW72621   4.173   2.955   9.598
23575SOL    HW172622   4.080   2.934   9.598
23575SOL    HW272623   4.176   3.051   9.596
23576SOL     OW72624   2.057   4.852   5.954
23576SOL    HW172625   2.150   4.863   5.934
23576SOL    HW272626   2.023   4.941   5.966
23577SOL     OW72627   0.001  11.699   8.594
23577SOL    HW172628   0.090  11.692   8.559
23577SOL    HW272629  14.863  11.791   8.619
23578SOL     OW72630   3.164  14.370   8.525
23578SOL    HW172631   3.190  14.459   8.501
23578SOL    HW272632   3.104  14.343   8.456
23579SOL     OW72633  12.243   7.052  13.455
23579SOL    HW172634  12.287   7.125  13.412
23579SOL    HW272635  12.297   6.976  13.433
23580SOL     OW72636   7.832   3.808  12.272
23580SOL    HW172637   7.813   3.726  12.316
23580SOL    HW272638   7.928   3.813  12.271
23581SOL     OW72639   6.214   4.855   8.923
23581SOL    HW172640   6.220   4.949   8.908
23581SOL    HW272641   6.206   4.817   8.835
23582SOL     OW72642   2.960  13.816  10.153
23582SOL    HW172643   2.951  13.911  10.150
23582SOL    HW272644   3.004  13.799  10.236
23583SOL     OW72645   1.224   5.732   1.761
23583SOL    HW172646   1.165   5.658   1.772
23583SOL    HW272647   1.191   5.799   1.821
23584SOL     OW72648   0.571   3.854  14.677
23584SOL    HW172649   0.612   3.920  14.620
23584SOL    HW272650   0.494   3.898  14.713
23585SOL     OW72651   8.589   7.924  12.313
23585SOL    HW172652   8.504   7.886  12.293
23585SOL    HW272653   8.571   8.018  12.325
23586SOL     OW72654  14.422   2.910   3.890
23586SOL    HW172655  14.434   2.827   3.845
23586SOL    HW272656  14.503   2.923   3.938
23587SOL     OW72657  10.590   2.360   3.799
23587SOL    HW172658  10.607   2.309   3.720
23587SOL    HW272659  10.676   2.388   3.829
23588SOL     OW72660   4.069  12.205  13.589
23588SOL    HW172661   4.045  12.124  13.634
23588SOL    HW272662   4.120  12.254  13.653
23589SOL     OW72663   7.039  10.237   1.774
23589SOL    HW172664   6.954  10.199   1.796
23589SOL    HW272665   7.093  10.222   1.852
23590SOL     OW72666   2.275  11.340   1.753
23590SOL    HW172667   2.275  11.429   1.717
23590SOL    HW272668   2.365  11.326   1.784
23591SOL     OW72669   1.561  14.580   4.636
23591SOL    HW172670   1.497  14.631   4.687
23591SOL    HW272671   1.602  14.523   4.700
23592SOL     OW72672  12.132   8.251  11.411
23592SOL    HW172673  12.131   8.316  11.481
23592SOL    HW272674  12.043   8.216  11.410
23593SOL     OW72675   1.663   6.518   7.232
23593SOL    HW172676   1.651   6.425   7.212
23593SOL    HW272677   1.757   6.532   7.226
23594SOL     OW72678  10.219   2.534   1.791
23594SOL    HW172679  10.241   2.567   1.704
23594SOL    HW272680  10.303   2.520   1.834
23595SOL     OW72681  12.074   5.444   3.912
23595SOL    HW172682  12.018   5.452   3.835
23595SOL    HW272683  12.073   5.531   3.951
23596SOL     OW72684  14.665   5.669   2.441
23596SOL    HW172685  14.760   5.667   2.440
23596SOL    HW272686  14.643   5.756   2.476
23597SOL     OW72687   3.837   7.674   8.074
23597SOL    HW172688   3.872   7.749   8.123
23597SOL    HW272689   3.864   7.690   7.984
23598SOL     OW72690   1.871   9.380  14.563
23598SOL    HW172691   1.879   9.287  14.586
23598SOL    HW272692   1.777   9.396  14.561
23599SOL     OW72693  14.760   1.260   3.955
23599SOL    HW172694  14.712   1.301   4.028
23599SOL    HW272695  14.821   1.328   3.926
23600SOL     OW72696   2.693   1.126   9.041
23600SOL    HW172697   2.632   1.091   9.106
23600SOL    HW272698   2.749   1.052   9.019
23601SOL     OW72699   7.614   8.879   5.378
23601SOL    HW172700   7.589   8.793   5.412
23601SOL    HW272701   7.690   8.863   5.324
23602SOL     OW72702  13.941  14.287  14.713
23602SOL    HW172703  13.980  14.362  14.758
23602SOL    HW272704  13.848  14.292  14.735
23603SOL     OW72705   0.282   6.609   0.885
23603SOL    HW172706   0.272   6.526   0.838
23603SOL    HW272707   0.288   6.675   0.817
23604SOL     OW72708   8.664   0.268   9.559
23604SOL    HW172709   8.668   0.174   9.543
23604SOL    HW272710   8.743   0.287   9.609
23605SOL     OW72711   3.191   7.364   0.212
23605SOL    HW172712   3.218   7.272   0.213
23605SOL    HW272713   3.138   7.372   0.132
23606SOL     OW72714  11.412  13.044  12.322
23606SOL    HW172715  11.479  13.002  12.376
23606SOL    HW272716  11.458  13.115  12.277
23607SOL     OW72717   6.528  11.292   0.498
23607SOL    HW172718   6.553  11.211   0.544
23607SOL    HW272719   6.503  11.352   0.568
23608SOL     OW72720  11.130   0.773  13.967
23608SOL    HW172721  11.065   0.751  13.899
23608SOL    HW272722  11.204   0.716  13.948
23609SOL     OW72723  12.302  11.144   9.093
23609SOL    HW172724  12.359  11.078   9.054
23609SOL    HW272725  12.215  11.105   9.093
23610SOL     OW72726   3.274   3.350   7.491
23610SOL    HW172727   3.357   3.397   7.496
23610SOL    HW272728   3.299   3.257   7.497
23611SOL     OW72729   0.776  11.745  11.157
23611SOL    HW172730   0.827  11.664  11.160
23611SOL    HW272731   0.842  11.814  11.154
23612SOL     OW72732  14.603   1.981   0.239
23612SOL    HW172733  14.576   1.893   0.265
23612SOL    HW272734  14.699   1.981   0.248
23613SOL     OW72735   0.362   3.239   6.366
23613SOL    HW172736   0.334   3.155   6.402
23613SOL    HW272737   0.360   3.226   6.271
23614SOL     OW72738   5.190   9.809   6.825
23614SOL    HW172739   5.107   9.778   6.790
23614SOL    HW272740   5.237   9.845   6.750
23615SOL     OW72741   3.285  10.622  13.473
23615SOL    HW172742   3.267  10.529  13.489
23615SOL    HW272743   3.325  10.653  13.554
23616SOL     OW72744  14.504  13.005  10.089
23616SOL    HW172745  14.527  13.083  10.039
23616SOL    HW272746  14.498  13.036  10.180
23617SOL     OW72747   2.028   9.546   3.152
23617SOL    HW172748   2.099   9.561   3.090
23617SOL    HW272749   2.026   9.625   3.206
23618SOL     OW72750   2.395   0.340   2.808
23618SOL    HW172751   2.417   0.303   2.894
23618SOL    HW272752   2.424   0.431   2.814
23619SOL     OW72753   9.929  12.162   8.253
23619SOL    HW172754   9.944  12.208   8.335
23619SOL    HW272755   9.912  12.231   8.189
23620SOL     OW72756   9.276  12.318   3.622
23620SOL    HW172757   9.365  12.333   3.654
23620SOL    HW272758   9.283  12.242   3.565
23621SOL     OW72759  10.214   1.914   6.465
23621SOL    HW172760  10.251   1.993   6.427
23621SOL    HW272761  10.220   1.928   6.559
23622SOL     OW72762   9.190  14.642   7.514
23622SOL    HW172763   9.148  14.723   7.483
23622SOL    HW272764   9.282  14.651   7.488
23623SOL     OW72765  12.163  12.219  13.983
23623SOL    HW172766  12.223  12.289  14.010
23623SOL    HW272767  12.095  12.219  14.051
23624SOL     OW72768   4.671   3.495   6.364
23624SOL    HW172769   4.595   3.464   6.414
23624SOL    HW272770   4.711   3.561   6.421
23625SOL     OW72771  12.109  11.291   9.473
23625SOL    HW172772  12.053  11.315   9.400
23625SOL    HW272773  12.188  11.255   9.433
23626SOL     OW72774   1.748   6.565  11.149
23626SOL    HW172775   1.695   6.509  11.207
23626SOL    HW272776   1.689   6.589  11.078
23627SOL     OW72777   0.559   4.603  12.085
23627SOL    HW172778   0.575   4.592  12.178
23627SOL    HW272779   0.470   4.570  12.072
23628SOL     OW72780   3.959   4.281   9.601
23628SOL    HW172781   4.048   4.287   9.635
23628SOL    HW272782   3.904   4.315   9.672
23629SOL     OW72783   3.385  14.355   4.144
23629SOL    HW172784   3.429  14.375   4.227
23629SOL    HW272785   3.294  14.381   4.159
23630SOL     OW72786  11.920   4.060   6.674
23630SOL    HW172787  11.901   3.990   6.612
23630SOL    HW272788  11.915   4.018   6.760
23631SOL     OW72789  10.781  13.090  11.629
23631SOL    HW172790  10.868  13.106  11.665
23631SOL    HW272791  10.793  13.094  11.534
23632SOL     OW72792   0.886   2.260   2.232
23632SOL    HW172793   0.912   2.349   2.254
23632SOL    HW272794   0.791   2.265   2.219
23633SOL     OW72795   3.978  10.706   1.741
23633SOL    HW172796   3.900  10.651   1.750
23633SOL    HW272797   4.051  10.644   1.731
23634SOL     OW72798   0.852   1.072   0.773
23634SOL    HW172799   0.879   0.980   0.769
23634SOL    HW272800   0.814   1.090   0.687
23635SOL     OW72801   5.599   8.434   9.126
23635SOL    HW172802   5.512   8.398   9.145
23635SOL    HW272803   5.624   8.393   9.044
23636SOL     OW72804   2.550  11.698   9.464
23636SOL    HW172805   2.457  11.704   9.442
23636SOL    HW272806   2.557  11.737   9.551
23637SOL     OW72807   6.648  10.628   3.622
23637SOL    HW172808   6.627  10.555   3.564
23637SOL    HW272809   6.687  10.586   3.700
23638SOL     OW72810   9.391  10.588   4.879
23638SOL    HW172811   9.471  10.555   4.838
23638SOL    HW272812   9.382  10.535   4.959
23639SOL     OW72813   3.111   2.073   4.851
23639SOL    HW172814   3.033   2.024   4.823
23639SOL    HW272815   3.153   2.099   4.769
23640SOL     OW72816   9.312   5.402   7.829
23640SOL    HW172817   9.284   5.345   7.758
23640SOL    HW272818   9.364   5.346   7.887
23641SOL     OW72819   9.481   4.117   4.115
23641SOL    HW172820   9.476   4.126   4.210
23641SOL    HW272821   9.457   4.026   4.099
23642SOL     OW72822   7.234  14.781   4.616
23642SOL    HW172823   7.160  14.738   4.657
23642SOL    HW272824   7.299  14.790   4.685
23643SOL     OW72825   3.339  13.176   9.625
23643SOL    HW172826   3.412  13.132   9.669
23643SOL    HW272827   3.377  13.258   9.593
23644SOL     OW72828   7.221   3.033   4.820
23644SOL    HW172829   7.139   3.016   4.773
23644SOL    HW272830   7.289   2.994   4.765
23645SOL     OW72831   4.158   0.909   7.490
23645SOL    HW172832   4.109   0.989   7.508
23645SOL    HW272833   4.180   0.915   7.397
23646SOL     OW72834  11.917   7.676   7.125
23646SOL    HW172835  11.999   7.727   7.126
23646SOL    HW272836  11.942   7.591   7.162
23647SOL     OW72837   6.695   5.926   2.083
23647SOL    HW172838   6.631   5.992   2.055
23647SOL    HW272839   6.657   5.888   2.162
23648SOL     OW72840   7.005  13.141  10.328
23648SOL    HW172841   6.999  13.079  10.400
23648SOL    HW272842   7.077  13.200  10.352
23649SOL     OW72843  13.239  12.296   1.861
23649SOL    HW172844  13.317  12.332   1.905
23649SOL    HW272845  13.270  12.269   1.775
23650SOL     OW72846   5.154   1.203  12.997
23650SOL    HW172847   5.095   1.278  13.001
23650SOL    HW272848   5.124   1.145  13.067
23651SOL     OW72849  11.993   5.183   1.263
23651SOL    HW172850  12.070   5.127   1.276
23651SOL    HW272851  11.921   5.122   1.252
23652SOL     OW72852   2.177  14.846   7.596
23652SOL    HW172853   2.149  14.759   7.566
23652SOL    HW272854   2.119  14.865   7.669
23653SOL     OW72855   8.611   2.595   1.603
23653SOL    HW172856   8.537   2.589   1.663
23653SOL    HW272857   8.625   2.689   1.592
23654SOL     OW72858   1.712   1.461   3.894
23654SOL    HW172859   1.793   1.410   3.889
23654SOL    HW272860   1.734   1.533   3.954
23655SOL     OW72861   5.822   7.782   3.217
23655SOL    HW172862   5.842   7.688   3.212
23655SOL    HW272863   5.768   7.790   3.296
23656SOL     OW72864  13.799   7.173   2.374
23656SOL    HW172865  13.758   7.258   2.357
23656SOL    HW272866  13.828   7.143   2.287
23657SOL     OW72867   4.829   8.277   9.130
23657SOL    HW172868   4.806   8.209   9.066
23657SOL    HW272869   4.888   8.335   9.082
23658SOL     OW72870  13.579   5.015   3.380
23658SOL    HW172871  13.586   5.034   3.474
23658SOL    HW272872  13.662   5.046   3.343
23659SOL     OW72873   4.834   1.518   5.914
23659SOL    HW172874   4.774   1.444   5.913
23659SOL    HW272875   4.848   1.539   5.822
23660SOL     OW72876   5.882   9.427  12.377
23660SOL    HW172877   5.793   9.408  12.408
23660SOL    HW272878   5.884   9.523  12.369
23661SOL     OW72879  14.050   8.231   0.741
23661SOL    HW172880  14.098   8.185   0.810
23661SOL    HW272881  14.017   8.161   0.684
23662SOL     OW72882   2.688  11.243  13.903
23662SOL    HW172883   2.647  11.162  13.931
23662SOL    HW272884   2.759  11.215  13.845
23663SOL     OW72885   3.152  14.464   8.104
23663SOL    HW172886   3.157  14.368   8.095
23663SOL    HW272887   3.218  14.497   8.042
23664SOL     OW72888   7.519   3.874  11.608
23664SOL    HW172889   7.484   3.800  11.657
23664SOL    HW272890   7.488   3.951  11.657
23665SOL     OW72891   3.732   6.039   7.110
23665SOL    HW172892   3.771   6.103   7.170
23665SOL    HW272893   3.801   5.975   7.094
23666SOL     OW72894   9.170  14.409   5.878
23666SOL    HW172895   9.262  14.384   5.888
23666SOL    HW272896   9.127  14.329   5.846
23667SOL     OW72897   1.438  12.039   8.104
23667SOL    HW172898   1.363  12.009   8.052
23667SOL    HW272899   1.471  12.115   8.056
23668SOL     OW72900   2.588   2.677   2.338
23668SOL    HW172901   2.579   2.771   2.352
23668SOL    HW272902   2.550   2.637   2.416
23669SOL     OW72903   9.709   1.890   4.884
23669SOL    HW172904   9.659   1.918   4.808
23669SOL    HW272905   9.645   1.885   4.955
23670SOL     OW72906   6.262  10.677   6.058
23670SOL    HW172907   6.182  10.633   6.084
23670SOL    HW272908   6.236  10.733   5.985
23671SOL     OW72909   3.515   9.844   7.998
23671SOL    HW172910   3.437   9.797   8.027
23671SOL    HW272911   3.588   9.801   8.044
23672SOL     OW72912   9.703   1.848  13.535
23672SOL    HW172913   9.711   1.768  13.587
23672SOL    HW272914   9.610   1.870  13.539
23673SOL     OW72915   2.051  14.830  12.574
23673SOL    HW172916   2.025   0.036  12.627
23673SOL    HW272917   1.970  14.780  12.562
23674SOL     OW72918   1.992   0.938   2.942
23674SOL    HW172919   2.008   1.030   2.962
23674SOL    HW272920   1.990   0.934   2.846
23675SOL     OW72921   9.924  10.242   5.768
23675SOL    HW172922   9.905  10.214   5.678
23675SOL    HW272923   9.931  10.337   5.762
23676SOL     OW72924   9.240   8.186   5.914
23676SOL    HW172925   9.204   8.191   6.003
23676SOL    HW272926   9.191   8.115   5.873
23677SOL     OW72927   6.762   5.158   5.737
23677SOL    HW172928   6.728   5.242   5.709
23677SOL    HW272929   6.685   5.105   5.756
23678SOL     OW72930  11.991   9.054  12.815
23678SOL    HW172931  12.053   9.117  12.779
23678SOL    HW272932  12.006   9.057  12.909
23679SOL     OW72933   6.719  13.742  14.748
23679SOL    HW172934   6.627  13.721  14.733
23679SOL    HW272935   6.755  13.664  14.788
23680SOL     OW72936   4.113  14.390  14.399
23680SOL    HW172937   4.084  14.377  14.489
23680SOL    HW272938   4.191  14.334  14.391
23681SOL     OW72939   5.291   4.287  13.204
23681SOL    HW172940   5.345   4.328  13.271
23681SOL    HW272941   5.336   4.307  13.122
23682SOL     OW72942   5.091  12.201   8.366
23682SOL    HW172943   5.155  12.266   8.339
23682SOL    HW272944   5.118  12.175   8.454
23683SOL     OW72945   8.709   9.356  10.082
23683SOL    HW172946   8.677   9.419  10.146
23683SOL    HW272947   8.787   9.398  10.045
23684SOL     OW72948   2.654  10.337  10.864
23684SOL    HW172949   2.748  10.344  10.845
23684SOL    HW272950   2.611  10.347  10.779
23685SOL     OW72951   6.971   5.967  14.427
23685SOL    HW172952   6.930   5.896  14.378
23685SOL    HW272953   7.027   5.923  14.491
23686SOL     OW72954  12.206   4.872   5.011
23686SOL    HW172955  12.161   4.792   4.983
23686SOL    HW272956  12.260   4.896   4.935
23687SOL     OW72957  11.870  14.332   4.841
23687SOL    HW172958  11.785  14.367   4.868
23687SOL    HW272959  11.881  14.364   4.751
23688SOL     OW72960   3.178   9.508  13.429
23688SOL    HW172961   3.149   9.569  13.497
23688SOL    HW272962   3.264   9.541  13.403
23689SOL     OW72963   5.913   4.625   0.788
23689SOL    HW172964   5.939   4.711   0.819
23689SOL    HW272965   5.817   4.630   0.781
23690SOL     OW72966  11.676  12.187   5.168
23690SOL    HW172967  11.707  12.096   5.163
23690SOL    HW272968  11.717  12.230   5.093
23691SOL     OW72969   0.414   7.805   9.794
23691SOL    HW172970   0.336   7.780   9.744
23691SOL    HW272971   0.419   7.740   9.865
23692SOL     OW72972   1.491   3.476   3.933
23692SOL    HW172973   1.574   3.461   3.887
23692SOL    HW272974   1.473   3.393   3.977
23693SOL     OW72975   3.074  14.462   3.173
23693SOL    HW172976   3.108  14.438   3.087
23693SOL    HW272977   3.043  14.552   3.163
23694SOL     OW72978   7.341   8.644   3.984
23694SOL    HW172979   7.262   8.647   3.931
23694SOL    HW272980   7.314   8.601   4.065
23695SOL     OW72981   2.162  14.074   8.467
23695SOL    HW172982   2.175  13.993   8.417
23695SOL    HW272983   2.102  14.050   8.537
23696SOL     OW72984   2.913   4.077   5.006
23696SOL    HW172985   2.942   4.014   4.940
23696SOL    HW272986   2.981   4.074   5.073
23697SOL     OW72987   7.993  10.984   6.747
23697SOL    HW172988   7.960  10.898   6.721
23697SOL    HW272989   8.013  10.974   6.840
23698SOL     OW72990   9.050   5.990   1.245
23698SOL    HW172991   9.118   5.922   1.250
23698SOL    HW272992   9.099   6.072   1.242
23699SOL     OW72993   4.429  12.639  12.353
23699SOL    HW172994   4.515  12.619  12.315
23699SOL    HW272995   4.372  12.570  12.319
23700SOL     OW72996   5.137   5.834   0.103
23700SOL    HW172997   5.046   5.823   0.077
23700SOL    HW272998   5.181   5.860   0.022
23701SOL     OW72999  13.446  12.356   3.496
23701SOL    HW173000  13.528  12.399   3.520
23701SOL    HW273001  13.439  12.283   3.556
23702SOL     OW73002   4.389   2.075   2.570
23702SOL    HW173003   4.449   2.126   2.516
23702SOL    HW273004   4.380   2.124   2.651
23703SOL     OW73005  11.868  13.797   6.115
23703SOL    HW173006  11.956  13.776   6.147
23703SOL    HW273007  11.829  13.712   6.097
23704SOL     OW73008   0.412   0.610  14.590
23704SOL    HW173009   0.446   0.561  14.664
23704SOL    HW273010   0.467   0.582  14.516
23705SOL     OW73011  14.046   5.337   8.411
23705SOL    HW173012  14.128   5.302   8.444
23705SOL    HW273013  14.060   5.348   8.317
23706SOL     OW73014   5.421   6.258  14.522
23706SOL    HW173015   5.460   6.174  14.548
23706SOL    HW273016   5.496   6.313  14.500
23707SOL     OW73017  11.647   8.159  10.106
23707SOL    HW173018  11.611   8.085  10.058
23707SOL    HW273019  11.741   8.139  10.113
23708SOL     OW73020   8.872   1.500   9.220
23708SOL    HW173021   8.900   1.437   9.287
23708SOL    HW273022   8.931   1.575   9.231
23709SOL     OW73023   4.497   3.631  14.624
23709SOL    HW173024   4.589   3.633  14.598
23709SOL    HW273025   4.491   3.693  14.697
23710SOL     OW73026  12.543   2.291   6.594
23710SOL    HW173027  12.458   2.333   6.608
23710SOL    HW273028  12.606   2.362   6.592
23711SOL     OW73029  10.795  11.110  14.847
23711SOL    HW173030  10.708  11.077  14.828
23711SOL    HW273031  10.791  11.139   0.068
23712SOL     OW73032  12.874  13.111   2.470
23712SOL    HW173033  12.850  13.026   2.434
23712SOL    HW273034  12.918  13.156   2.398
23713SOL     OW73035  14.630   6.213  11.285
23713SOL    HW173036  14.652   6.181  11.373
23713SOL    HW273037  14.708   6.261  11.257
23714SOL     OW73038   5.543   3.224   8.231
23714SOL    HW173039   5.457   3.182   8.239
23714SOL    HW273040   5.534   3.285   8.158
23715SOL     OW73041  11.993  14.735   0.698
23715SOL    HW173042  11.900  14.717   0.684
23715SOL    HW273043  12.036  14.697   0.622
23716SOL     OW73044  10.345   8.526  11.169
23716SOL    HW173045  10.326   8.615  11.140
23716SOL    HW273046  10.418   8.534  11.229
23717SOL     OW73047   4.700   1.227   2.887
23717SOL    HW173048   4.643   1.284   2.938
23717SOL    HW273049   4.737   1.166   2.952
23718SOL     OW73050  12.763  14.127   9.519
23718SOL    HW173051  12.824  14.057   9.494
23718SOL    HW273052  12.683  14.081   9.543
23719SOL     OW73053  14.815   6.773  10.039
23719SOL    HW173054  14.838   6.726  10.119
23719SOL    HW273055  14.736   6.731  10.008
23720SOL     OW73056   9.250   5.260   7.347
23720SOL    HW173057   9.289   5.194   7.289
23720SOL    HW273058   9.288   5.343   7.316
23721SOL     OW73059   5.903  13.812   4.818
23721SOL    HW173060   5.934  13.825   4.729
23721SOL    HW273061   5.930  13.724   4.841
23722SOL     OW73062   6.031   0.316   5.515
23722SOL    HW173063   6.092   0.390   5.511
23722SOL    HW273064   6.039   0.274   5.429
23723SOL     OW73065   7.436   6.125   3.323
23723SOL    HW173066   7.498   6.087   3.386
23723SOL    HW273067   7.371   6.056   3.309
23724SOL     OW73068   0.368  13.363   4.451
23724SOL    HW173069   0.337  13.339   4.539
23724SOL    HW273070   0.442  13.305   4.435
23725SOL     OW73071   3.923  11.825   9.741
23725SOL    HW173072   3.879  11.750   9.781
23725SOL    HW273073   4.003  11.789   9.703
23726SOL     OW73074  12.357   5.941  12.437
23726SOL    HW173075  12.387   5.876  12.375
23726SOL    HW273076  12.433   5.960  12.491
23727SOL     OW73077  10.638   3.293   4.178
23727SOL    HW173078  10.550   3.255   4.177
23727SOL    HW273079  10.644   3.335   4.265
23728SOL     OW73080  13.232   5.142   7.656
23728SOL    HW173081  13.179   5.214   7.690
23728SOL    HW273082  13.170   5.087   7.608
23729SOL     OW73083  10.375   9.593  13.644
23729SOL    HW173084  10.291   9.581  13.688
23729SOL    HW273085  10.379   9.522  13.580
23730SOL     OW73086  13.411   3.896   4.115
23730SOL    HW173087  13.457   3.878   4.033
23730SOL    HW273088  13.448   3.979   4.145
23731SOL     OW73089   1.004   8.380   0.383
23731SOL    HW173090   1.054   8.461   0.370
23731SOL    HW273091   0.971   8.359   0.296
23732SOL     OW73092   5.327   9.684  12.401
23732SOL    HW173093   5.410   9.637  12.402
23732SOL    HW273094   5.270   9.632  12.459
23733SOL     OW73095  14.231   9.229  14.741
23733SOL    HW173096  14.200   9.280  14.666
23733SOL    HW273097  14.325   9.246  14.744
23734SOL     OW73098   7.633  11.110   4.825
23734SOL    HW173099   7.678  11.088   4.744
23734SOL    HW273100   7.656  11.201   4.841
23735SOL     OW73101   7.748   7.867   6.341
23735SOL    HW173102   7.706   7.941   6.298
23735SOL    HW273103   7.810   7.905   6.402
23736SOL     OW73104   7.538  10.531   5.579
23736SOL    HW173105   7.583  10.553   5.661
23736SOL    HW273106   7.599  10.558   5.511
23737SOL     OW73107   3.875   0.859  14.311
23737SOL    HW173108   3.805   0.897  14.364
23737SOL    HW273109   3.956   0.884  14.356
23738SOL     OW73110   6.052   3.444  10.886
23738SOL    HW173111   5.962   3.453  10.920
23738SOL    HW273112   6.040   3.415  10.796
23739SOL     OW73113  12.190   9.160   2.209
23739SOL    HW173114  12.191   9.075   2.252
23739SOL    HW273115  12.097   9.176   2.190
23740SOL     OW73116  10.201   5.557   6.937
23740SOL    HW173117  10.286   5.525   6.906
23740SOL    HW273118  10.159   5.479   6.975
23741SOL     OW73119  10.086  11.511  13.571
23741SOL    HW173120  10.076  11.554  13.486
23741SOL    HW273121  10.022  11.555  13.628
23742SOL     OW73122   2.090   3.725  14.525
23742SOL    HW173123   2.056   3.779  14.455
23742SOL    HW273124   2.113   3.642  14.482
23743SOL     OW73125   9.127  13.687  12.090
23743SOL    HW173126   9.084  13.602  12.089
23743SOL    HW273127   9.164  13.695  12.177
23744SOL     OW73128   5.583   9.948  10.763
23744SOL    HW173129   5.570   9.991  10.848
23744SOL    HW273130   5.654   9.997  10.722
23745SOL     OW73131  13.539  14.281   8.556
23745SOL    HW173132  13.510  14.356   8.608
23745SOL    HW273133  13.623  14.308   8.520
23746SOL     OW73134   8.538  11.809   4.385
23746SOL    HW173135   8.491  11.892   4.393
23746SOL    HW273136   8.490  11.761   4.318
23747SOL     OW73137  14.790   7.428   4.315
23747SOL    HW173138   0.013   7.432   4.288
23747SOL    HW273139  14.750   7.504   4.272
23748SOL     OW73140   6.588  11.742   9.787
23748SOL    HW173141   6.609  11.683   9.860
23748SOL    HW273142   6.567  11.825   9.829
23749SOL     OW73143   8.667  11.377  10.329
23749SOL    HW173144   8.719  11.321  10.270
23749SOL    HW273145   8.672  11.464  10.290
23750SOL     OW73146   6.500   9.465   2.186
23750SOL    HW173147   6.545   9.407   2.248
23750SOL    HW273148   6.414   9.426   2.175
23751SOL     OW73149   4.212   8.571   7.153
23751SOL    HW173150   4.237   8.535   7.068
23751SOL    HW273151   4.172   8.656   7.132
23752SOL     OW73152   3.794   7.558   5.326
23752SOL    HW173153   3.848   7.481   5.308
23752SOL    HW273154   3.718   7.548   5.269
23753SOL     OW73155  10.940  12.599  14.372
23753SOL    HW173156  10.932  12.655  14.294
23753SOL    HW273157  11.030  12.564  14.366
23754SOL     OW73158   4.235   6.695   7.767
23754SOL    HW173159   4.297   6.669   7.835
23754SOL    HW273160   4.290   6.724   7.694
23755SOL     OW73161  13.725  10.108  11.706
23755SOL    HW173162  13.707  10.036  11.646
23755SOL    HW273163  13.736  10.184  11.650
23756SOL     OW73164  10.276   1.638   7.574
23756SOL    HW173165  10.209   1.705   7.589
23756SOL    HW273166  10.346   1.685   7.529
23757SOL     OW73167   3.514   7.873  10.034
23757SOL    HW173168   3.522   7.939  10.103
23757SOL    HW273169   3.419   7.866  10.020
23758SOL     OW73170   2.635  10.493  13.093
23758SOL    HW173171   2.554  10.485  13.043
23758SOL    HW273172   2.624  10.433  13.166
23759SOL     OW73173  10.697   5.298   3.196
23759SOL    HW173174  10.602   5.286   3.199
23759SOL    HW273175  10.711   5.355   3.121
23760SOL     OW73176  14.716   2.424   2.496
23760SOL    HW173177  14.765   2.343   2.511
23760SOL    HW273178  14.784   2.492   2.491
23761SOL     OW73179   2.693   3.607   4.993
23761SOL    HW173180   2.778   3.607   5.036
23761SOL    HW273181   2.711   3.575   4.904
23762SOL     OW73182   0.092   0.234   2.863
23762SOL    HW173183   0.151   0.305   2.839
23762SOL    HW273184   0.055   0.260   2.947
23763SOL     OW73185   2.270  10.544  10.209
23763SOL    HW173186   2.364  10.544  10.190
23763SOL    HW273187   2.228  10.548  10.123
23764SOL     OW73188   2.660   2.870  11.704
23764SOL    HW173189   2.665   2.893  11.796
23764SOL    HW273190   2.623   2.781  11.703
23765SOL     OW73191   3.234   1.193  13.492
23765SOL    HW173192   3.170   1.256  13.527
23765SOL    HW273193   3.311   1.204  13.547
23766SOL     OW73194   7.782   7.401  14.102
23766SOL    HW173195   7.762   7.328  14.160
23766SOL    HW273196   7.878   7.407  14.102
23767SOL     OW73197   5.764   4.665   9.502
23767SOL    HW173198   5.813   4.746   9.488
23767SOL    HW273199   5.830   4.596   9.500
23768SOL     OW73200  13.326  12.854   1.498
23768SOL    HW173201  13.340  12.801   1.420
23768SOL    HW273202  13.337  12.792   1.571
23769SOL     OW73203   1.181   9.145  13.212
23769SOL    HW173204   1.125   9.223  13.202
23769SOL    HW273205   1.119   9.072  13.210
23770SOL     OW73206  11.601   2.204  10.081
23770SOL    HW173207  11.581   2.258  10.004
23770SOL    HW273208  11.622   2.267  10.150
23771SOL     OW73209  13.889   4.266   3.691
23771SOL    HW173210  13.834   4.287   3.767
23771SOL    HW273211  13.914   4.351   3.655
23772SOL     OW73212  12.613   4.789   3.091
23772SOL    HW173213  12.646   4.701   3.076
23772SOL    HW273214  12.518   4.782   3.078
23773SOL     OW73215   4.122  12.204   5.026
23773SOL    HW173216   4.183  12.155   5.081
23773SOL    HW273217   4.162  12.291   5.018
23774SOL     OW73218   8.114   5.528   0.121
23774SOL    HW173219   8.031   5.489   0.147
23774SOL    HW273220   8.118   5.516   0.026
23775SOL     OW73221   1.108   4.248  10.002
23775SOL    HW173222   1.076   4.245  10.092
23775SOL    HW273223   1.170   4.321  10.001
23776SOL     OW73224  13.446   1.084  12.968
23776SOL    HW173225  13.463   0.992  12.986
23776SOL    HW273226  13.512   1.131  13.018
23777SOL     OW73227   1.202  12.655  14.246
23777SOL    HW173228   1.205  12.745  14.279
23777SOL    HW273229   1.217  12.663  14.152
23778SOL     OW73230  13.587   6.546  11.332
23778SOL    HW173231  13.597   6.615  11.398
23778SOL    HW273232  13.525   6.484  11.371
23779SOL     OW73233   0.608   4.263  14.428
23779SOL    HW173234   0.666   4.216  14.369
23779SOL    HW273235   0.666   4.315  14.483
23780SOL     OW73236  11.640   8.076  11.545
23780SOL    HW173237  11.644   7.990  11.504
23780SOL    HW273238  11.557   8.113  11.515
23781SOL     OW73239   1.152  12.854   5.946
23781SOL    HW173240   1.120  12.852   6.036
23781SOL    HW273241   1.239  12.894   5.952
23782SOL     OW73242  13.270   6.819   7.652
23782SOL    HW173243  13.224   6.740   7.621
23782SOL    HW273244  13.291   6.867   7.572
23783SOL     OW73245  11.449   9.541  13.632
23783SOL    HW173246  11.370   9.520  13.582
23783SOL    HW273247  11.520   9.526  13.570
23784SOL     OW73248   3.480   4.772   6.974
23784SOL    HW173249   3.430   4.761   6.893
23784SOL    HW273250   3.571   4.758   6.948
23785SOL     OW73251  12.717  10.850   5.564
23785SOL    HW173252  12.736  10.905   5.640
23785SOL    HW273253  12.671  10.774   5.600
23786SOL     OW73254  12.237   2.699  14.401
23786SOL    HW173255  12.287   2.649  14.336
23786SOL    HW273256  12.217   2.636  14.470
23787SOL     OW73257   3.987   7.646   1.646
23787SOL    HW173258   3.921   7.577   1.658
23787SOL    HW273259   3.980   7.671   1.554
23788SOL     OW73260  12.859  12.597  13.533
23788SOL    HW173261  12.863  12.501  13.535
23788SOL    HW273262  12.843  12.618  13.441
23789SOL     OW73263  10.662   5.940   5.376
23789SOL    HW173264  10.671   6.034   5.384
23789SOL    HW273265  10.601   5.915   5.446
23790SOL     OW73266   9.219  11.968   5.403
23790SOL    HW173267   9.228  11.901   5.335
23790SOL    HW273268   9.132  11.954   5.439
23791SOL     OW73269   0.470   0.745   9.424
23791SOL    HW173270   0.450   0.652   9.421
23791SOL    HW273271   0.400   0.784   9.477
23792SOL     OW73272  13.179   0.988  14.057
23792SOL    HW173273  13.183   1.001  14.152
23792SOL    HW273274  13.113   1.051  14.027
23793SOL     OW73275   3.682   8.654   4.556
23793SOL    HW173276   3.712   8.676   4.644
23793SOL    HW273277   3.609   8.594   4.569
23794SOL     OW73278   5.465   0.333  13.741
23794SOL    HW173279   5.496   0.313  13.653
23794SOL    HW273280   5.532   0.390  13.779
23795SOL     OW73281   4.827   4.263   6.189
23795SOL    HW173282   4.773   4.256   6.268
23795SOL    HW273283   4.917   4.258   6.221
23796SOL     OW73284   0.765  11.434   8.218
23796SOL    HW173285   0.729  11.408   8.303
23796SOL    HW273286   0.691  11.427   8.157
23797SOL     OW73287  13.363  13.887   7.329
23797SOL    HW173288  13.340  13.956   7.390
23797SOL    HW273289  13.317  13.809   7.362
23798SOL     OW73290  11.137   9.031  14.030
23798SOL    HW173291  11.172   8.953  13.987
23798SOL    HW273292  11.192   9.103  13.998
23799SOL     OW73293   7.227   4.296   9.357
23799SOL    HW173294   7.136   4.324   9.364
23799SOL    HW273295   7.274   4.347   9.423
23800SOL     OW73296   9.166  10.858   8.735
23800SOL    HW173297   9.252  10.873   8.694
23800SOL    HW273298   9.106  10.913   8.685
23801SOL     OW73299   7.623  10.571  11.512
23801SOL    HW173300   7.568  10.576  11.435
23801SOL    HW273301   7.562  10.569  11.586
23802SOL     OW73302   3.352  10.548   8.093
23802SOL    HW173303   3.443  10.519   8.085
23802SOL    HW273304   3.355  10.643   8.080
23803SOL     OW73305   4.012   6.979   9.581
23803SOL    HW173306   4.062   6.935   9.512
23803SOL    HW273307   3.964   7.049   9.536
23804SOL     OW73308  13.344   2.728   5.297
23804SOL    HW173309  13.296   2.811   5.308
23804SOL    HW273310  13.424   2.753   5.252
23805SOL     OW73311  10.954   3.814   0.680
23805SOL    HW173312  10.914   3.820   0.593
23805SOL    HW273313  10.882   3.795   0.739
23806SOL     OW73314  11.216  12.906   3.282
23806SOL    HW173315  11.282  12.839   3.262
23806SOL    HW273316  11.266  12.978   3.321
23807SOL     OW73317  10.142  14.285   2.524
23807SOL    HW173318  10.070  14.222   2.518
23807SOL    HW273319  10.210  14.238   2.572
23808SOL     OW73320   0.685   1.017  10.262
23808SOL    HW173321   0.686   1.112  10.247
23808SOL    HW273322   0.610   0.986  10.212
23809SOL     OW73323  14.546   5.254   9.649
23809SOL    HW173324  14.581   5.221   9.731
23809SOL    HW273325  14.465   5.204   9.636
23810SOL     OW73326   6.408   0.659  14.472
23810SOL    HW173327   6.350   0.730  14.443
23810SOL    HW273328   6.419   0.674  14.566
23811SOL     OW73329  14.866   3.778  10.588
23811SOL    HW173330   0.027   3.866  10.564
23811SOL    HW273331  14.828   3.790  10.675
23812SOL     OW73332   8.656   0.021  13.957
23812SOL    HW173333   8.722   0.070  14.006
23812SOL    HW273334   8.699  14.810  13.931
23813SOL     OW73335  13.460   0.480   0.486
23813SOL    HW173336  13.549   0.506   0.463
23813SOL    HW273337  13.447   0.396   0.442
23814SOL     OW73338  10.770   3.816   1.955
23814SOL    HW173339  10.827   3.879   1.998
23814SOL    HW273340  10.829   3.750   1.918
23815SOL     OW73341   7.232  13.976  13.569
23815SOL    HW173342   7.149  13.963  13.524
23815SOL    HW273343   7.213  14.039  13.638
23816SOL     OW73344  12.217   0.759   4.055
23816SOL    HW173345  12.309   0.779   4.074
23816SOL    HW273346  12.209   0.665   4.072
23817SOL     OW73347  13.640   3.248   2.694
23817SOL    HW173348  13.588   3.211   2.764
23817SOL    HW273349  13.672   3.332   2.729
23818SOL     OW73350   0.534   3.833   2.034
23818SOL    HW173351   0.462   3.790   1.988
23818SOL    HW273352   0.536   3.922   1.999
23819SOL     OW73353  14.275  12.963   2.987
23819SOL    HW173354  14.366  12.981   2.966
23819SOL    HW273355  14.226  12.993   2.910
23820SOL     OW73356   3.952  12.299  10.478
23820SOL    HW173357   3.954  12.203  10.479
23820SOL    HW273358   3.887  12.323  10.544
23821SOL     OW73359   7.949   6.488  12.376
23821SOL    HW173360   8.029   6.456  12.335
23821SOL    HW273361   7.878   6.448  12.325
23822SOL     OW73362  14.172   5.766  14.388
23822SOL    HW173363  14.083   5.789  14.360
23822SOL    HW273364  14.203   5.845  14.433
23823SOL     OW73365   9.313   9.764  10.942
23823SOL    HW173366   9.329   9.749  11.035
23823SOL    HW273367   9.252   9.838  10.940
23824SOL     OW73368   1.999   3.234  13.639
23824SOL    HW173369   2.069   3.201  13.583
23824SOL    HW273370   1.999   3.329  13.622
23825SOL     OW73371   2.187   5.342  10.106
23825SOL    HW173372   2.113   5.383  10.150
23825SOL    HW273373   2.244   5.415  10.081
23826SOL     OW73374  10.081  10.274   2.205
23826SOL    HW173375  10.117  10.223   2.277
23826SOL    HW273376   9.995  10.236   2.189
23827SOL     OW73377   9.638  12.131  14.690
23827SOL    HW173378   9.565  12.174  14.645
23827SOL    HW273379   9.667  12.063  14.629
23828SOL     OW73380   0.543  10.251  14.609
23828SOL    HW173381   0.594  10.172  14.591
23828SOL    HW273382   0.593  10.321  14.566
23829SOL     OW73383   2.670   5.798   0.198
23829SOL    HW173384   2.612   5.723   0.215
23829SOL    HW273385   2.662   5.853   0.276
23830SOL     OW73386  14.027   1.703   8.447
23830SOL    HW173387  13.934   1.681   8.434
23830SOL    HW273388  14.052   1.749   8.367
23831SOL     OW73389  13.062   5.663   2.335
23831SOL    HW173390  13.037   5.716   2.410
23831SOL    HW273391  13.027   5.711   2.259
23832SOL     OW73392  14.010  12.659   5.436
23832SOL    HW173393  13.961  12.741   5.433
23832SOL    HW273394  13.943  12.591   5.423
23833SOL     OW73395   7.998   9.247   2.876
23833SOL    HW173396   7.909   9.270   2.901
23833SOL    HW273397   8.042   9.231   2.960
23834SOL     OW73398   6.309   0.618   4.583
23834SOL    HW173399   6.378   0.567   4.626
23834SOL    HW273400   6.276   0.560   4.515
23835SOL     OW73401   3.876  13.985   7.813
23835SOL    HW173402   3.886  13.925   7.739
23835SOL    HW273403   3.945  14.050   7.801
23836SOL     OW73404  12.581  14.716  11.852
23836SOL    HW173405  12.509  14.769  11.886
23836SOL    HW273406  12.603  14.756  11.768
23837SOL     OW73407   6.518  12.202  10.752
23837SOL    HW173408   6.529  12.111  10.727
23837SOL    HW273409   6.427  12.223  10.728
23838SOL     OW73410   1.587   2.298  12.407
23838SOL    HW173411   1.579   2.261  12.319
23838SOL    HW273412   1.502   2.281  12.448
23839SOL     OW73413   6.738  12.790  14.869
23839SOL    HW173414   6.741  12.871  14.818
23839SOL    HW273415   6.758  12.722  14.806
23840SOL     OW73416   3.458   2.287   8.690
23840SOL    HW173417   3.405   2.363   8.715
23840SOL    HW273418   3.417   2.254   8.610
23841SOL     OW73419   7.311   4.906   5.083
23841SOL    HW173420   7.269   4.845   5.144
23841SOL    HW273421   7.311   4.990   5.130
23842SOL     OW73422  14.442   5.778   2.828
23842SOL    HW173423  14.526   5.736   2.805
23842SOL    HW273424  14.423   5.835   2.754
23843SOL     OW73425   9.089  12.516  12.679
23843SOL    HW173426   9.112  12.441  12.733
23843SOL    HW273427   8.993  12.514  12.674
23844SOL     OW73428   0.906  11.428  12.502
23844SOL    HW173429   0.980  11.387  12.548
23844SOL    HW273430   0.936  11.516  12.481
23845SOL     OW73431   9.037   3.929   1.947
23845SOL    HW173432   9.018   3.993   2.016
23845SOL    HW273433   9.052   3.847   1.993
23846SOL     OW73434  10.124  11.163   0.837
23846SOL    HW173435  10.137  11.188   0.745
23846SOL    HW273436  10.165  11.077   0.844
23847SOL     OW73437  14.078   5.461  13.938
23847SOL    HW173438  14.032   5.482  14.020
23847SOL    HW273439  14.117   5.544  13.911
23848SOL     OW73440  13.980   6.824   1.710
23848SOL    HW173441  14.001   6.791   1.623
23848SOL    HW273442  14.042   6.781   1.768
23849SOL     OW73443  12.426   7.819   3.624
23849SOL    HW173444  12.342   7.866   3.620
23849SOL    HW273445  12.491   7.884   3.595
23850SOL     OW73446   5.225  10.885   0.286
23850SOL    HW173447   5.140  10.906   0.325
23850SOL    HW273448   5.249  10.963   0.237
23851SOL     OW73449  10.968   7.139   7.276
23851SOL    HW173450  11.062   7.127   7.261
23851SOL    HW273451  10.951   7.087   7.355
23852SOL     OW73452  10.900   6.234   9.464
23852SOL    HW173453  10.925   6.143   9.450
23852SOL    HW273454  10.906   6.247   9.559
23853SOL     OW73455   9.577  11.324   6.243
23853SOL    HW173456   9.659  11.308   6.291
23853SOL    HW273457   9.596  11.400   6.189
23854SOL     OW73458   6.373   1.402   4.093
23854SOL    HW173459   6.451   1.393   4.039
23854SOL    HW273460   6.394   1.356   4.174
23855SOL     OW73461   0.517   7.794  11.325
23855SOL    HW173462   0.519   7.736  11.401
23855SOL    HW273463   0.426   7.821  11.318
23856SOL     OW73464  14.249   6.412   7.869
23856SOL    HW173465  14.320   6.379   7.813
23856SOL    HW273466  14.289   6.482   7.919
23857SOL     OW73467  12.185   5.668   9.420
23857SOL    HW173468  12.268   5.627   9.395
23857SOL    HW273469  12.170   5.637   9.509
23858SOL     OW73470  12.204   2.416   6.333
23858SOL    HW173471  12.120   2.371   6.337
23858SOL    HW273472  12.254   2.380   6.406
23859SOL     OW73473   8.209   0.483   4.547
23859SOL    HW173474   8.140   0.417   4.541
23859SOL    HW273475   8.199   0.520   4.635
23860SOL     OW73476   9.306   2.962   9.789
23860SOL    HW173477   9.217   2.932   9.771
23860SOL    HW273478   9.337   2.906   9.859
23861SOL     OW73479   1.772   1.957  10.974
23861SOL    HW173480   1.704   1.940  11.039
23861SOL    HW273481   1.787   2.051  10.978
23862SOL     OW73482   6.868   5.553  11.744
23862SOL    HW173483   6.825   5.551  11.658
23862SOL    HW273484   6.956   5.588  11.726
23863SOL     OW73485   1.260   8.864  11.197
23863SOL    HW173486   1.346   8.872  11.238
23863SOL    HW273487   1.201   8.842  11.269
23864SOL     OW73488  10.925   7.150   4.229
23864SOL    HW173489  10.919   7.231   4.178
23864SOL    HW273490  10.854   7.095   4.196
23865SOL     OW73491   4.266   0.670   8.925
23865SOL    HW173492   4.320   0.662   9.003
23865SOL    HW273493   4.177   0.649   8.955
23866SOL     OW73494   9.745  11.438  13.254
23866SOL    HW173495   9.670  11.385  13.227
23866SOL    HW273496   9.802  11.377  13.301
23867SOL     OW73497   5.747  10.921  11.627
23867SOL    HW173498   5.758  10.941  11.720
23867SOL    HW273499   5.674  10.859  11.624
23868SOL     OW73500   2.151   2.965  13.692
23868SOL    HW173501   2.149   3.048  13.739
23868SOL    HW273502   2.243   2.940  13.690
23869SOL     OW73503   8.635  13.586   7.965
23869SOL    HW173504   8.625  13.522   7.895
23869SOL    HW273505   8.548  13.623   7.977
23870SOL     OW73506   7.386   3.395   9.993
23870SOL    HW173507   7.466   3.443   9.970
23870SOL    HW273508   7.410   3.303   9.986
23871SOL     OW73509   7.422  13.551   7.698
23871SOL    HW173510   7.369  13.475   7.720
23871SOL    HW273511   7.451  13.585   7.782
23872SOL     OW73512  12.327   8.615   3.289
23872SOL    HW173513  12.311   8.568   3.207
23872SOL    HW273514  12.259   8.683   3.291
23873SOL     OW73515   2.433   0.498  10.937
23873SOL    HW173516   2.529   0.498  10.936
23873SOL    HW273517   2.408   0.435  10.870
23874SOL     OW73518   2.008   2.908   5.647
23874SOL    HW173519   1.988   2.873   5.561
23874SOL    HW273520   1.923   2.919   5.690
23875SOL     OW73521  11.249   2.709   6.207
23875SOL    HW173522  11.334   2.749   6.224
23875SOL    HW273523  11.218   2.752   6.128
23876SOL     OW73524   9.547   8.373  13.837
23876SOL    HW173525   9.464   8.357  13.882
23876SOL    HW273526   9.534   8.338  13.749
23877SOL     OW73527   4.429   0.675  14.868
23877SOL    HW173528   4.498   0.635  14.815
23877SOL    HW273529   4.422   0.765  14.835
23878SOL     OW73530   5.412   1.861   5.358
23878SOL    HW173531   5.367   1.945   5.369
23878SOL    HW273532   5.348   1.804   5.317
23879SOL     OW73533  13.133  10.819   6.312
23879SOL    HW173534  13.161  10.881   6.379
23879SOL    HW273535  13.050  10.854   6.279
23880SOL     OW73536   0.823   3.388   8.742
23880SOL    HW173537   0.765   3.317   8.770
23880SOL    HW273538   0.909   3.346   8.735
23881SOL     OW73539   9.925   3.146   7.104
23881SOL    HW173540   9.956   3.235   7.087
23881SOL    HW273541   9.959   3.094   7.031
23882SOL     OW73542   2.827   0.879   0.784
23882SOL    HW173543   2.785   0.798   0.755
23882SOL    HW273544   2.785   0.900   0.867
23883SOL     OW73545  13.158  13.105  14.658
23883SOL    HW173546  13.106  13.161  14.602
23883SOL    HW273547  13.094  13.054  14.708
23884SOL     OW73548  13.790   0.702   2.216
23884SOL    HW173549  13.806   0.786   2.258
23884SOL    HW273550  13.698   0.705   2.189
23885SOL     OW73551   0.242  12.993   4.048
23885SOL    HW173552   0.177  12.924   4.035
23885SOL    HW273553   0.264  13.022   3.959
23886SOL     OW73554   3.391   6.577   9.089
23886SOL    HW173555   3.314   6.634   9.079
23886SOL    HW273556   3.462   6.636   9.114
23887SOL     OW73557   8.375   2.926  13.337
23887SOL    HW173558   8.375   2.992  13.407
23887SOL    HW273559   8.448   2.868  13.359
23888SOL     OW73560   6.725   5.688  10.584
23888SOL    HW173561   6.817   5.709  10.599
23888SOL    HW273562   6.695   5.650  10.667
23889SOL     OW73563   0.908   6.370   0.808
23889SOL    HW173564   0.988   6.422   0.808
23889SOL    HW273565   0.890   6.354   0.901
23890SOL     OW73566   9.144   5.777  14.291
23890SOL    HW173567   9.052   5.773  14.319
23890SOL    HW273568   9.156   5.868  14.264
23891SOL     OW73569   8.651   1.073   3.678
23891SOL    HW173570   8.740   1.043   3.697
23891SOL    HW273571   8.602   0.992   3.661
23892SOL     OW73572   8.122   3.351   9.223
23892SOL    HW173573   8.117   3.295   9.146
23892SOL    HW273574   8.107   3.440   9.189
23893SOL     OW73575  13.326  13.030  10.026
23893SOL    HW173576  13.345  13.073   9.943
23893SOL    HW273577  13.231  13.018  10.025
23894SOL     OW73578   2.002   1.278  12.920
23894SOL    HW173579   1.989   1.222  12.996
23894SOL    HW273580   1.946   1.354  12.936
23895SOL     OW73581   4.438  14.792  13.740
23895SOL    HW173582   4.504  14.729  13.713
23895SOL    HW273583   4.362  14.773  13.685
23896SOL     OW73584   6.140  10.387  13.346
23896SOL    HW173585   6.130  10.333  13.425
23896SOL    HW273586   6.067  10.449  13.350
23897SOL     OW73587   9.246   9.250   6.341
23897SOL    HW173588   9.315   9.201   6.297
23897SOL    HW273589   9.272   9.342   6.332
23898SOL     OW73590   8.030   6.323  14.320
23898SOL    HW173591   8.035   6.403  14.267
23898SOL    HW273592   7.936   6.306  14.329
23899SOL     OW73593   6.390  10.762  13.476
23899SOL    HW173594   6.317  10.803  13.431
23899SOL    HW273595   6.460  10.760  13.411
23900SOL     OW73596   1.732   0.327  10.854
23900SOL    HW173597   1.816   0.322  10.808
23900SOL    HW273598   1.756   0.351  10.944
23901SOL     OW73599  10.071   4.448  14.080
23901SOL    HW173600  10.030   4.402  14.153
23901SOL    HW273601  10.058   4.390  14.005
23902SOL     OW73602  10.370   1.044   4.634
23902SOL    HW173603  10.280   1.041   4.667
23902SOL    HW273604  10.364   1.094   4.552
23903SOL     OW73605  10.576  10.362   7.080
23903SOL    HW173606  10.582  10.334   7.171
23903SOL    HW273607  10.557  10.281   7.031
23904SOL     OW73608  11.810   0.118   4.408
23904SOL    HW173609  11.883   0.056   4.412
23904SOL    HW273610  11.732   0.063   4.405
23905SOL     OW73611   7.319   5.177   9.402
23905SOL    HW173612   7.284   5.142   9.484
23905SOL    HW273613   7.400   5.128   9.389
23906SOL     OW73614   4.402   7.356   7.375
23906SOL    HW173615   4.350   7.346   7.455
23906SOL    HW273616   4.493   7.345   7.405
23907SOL     OW73617  11.985  14.229   6.145
23907SOL    HW173618  11.989  14.142   6.103
23907SOL    HW273619  12.049  14.281   6.097
23908SOL     OW73620  14.488   5.711   5.103
23908SOL    HW173621  14.444   5.694   5.186
23908SOL    HW273622  14.572   5.665   5.109
23909SOL     OW73623   3.124  14.656   5.563
23909SOL    HW173624   3.192  14.600   5.599
23909SOL    HW273625   3.060  14.665   5.635
23910SOL     OW73626   9.039  12.552   9.839
23910SOL    HW173627   9.008  12.530   9.927
23910SOL    HW273628   8.966  12.601   9.799
23911SOL     OW73629   0.041   4.238   9.919
23911SOL    HW173630   0.096   4.312   9.945
23911SOL    HW273631  14.847   4.229   9.989
23912SOL     OW73632  12.200  11.780   9.970
23912SOL    HW173633  12.126  11.762   9.912
23912SOL    HW273634  12.161  11.817  10.049
23913SOL     OW73635   2.397   5.493   7.352
23913SOL    HW173636   2.312   5.451   7.364
23913SOL    HW273637   2.460   5.421   7.352
23914SOL     OW73638   9.861   3.361   8.667
23914SOL    HW173639   9.946   3.355   8.624
23914SOL    HW273640   9.807   3.295   8.623
23915SOL     OW73641  11.315   4.418   7.577
23915SOL    HW173642  11.319   4.492   7.517
23915SOL    HW273643  11.308   4.458   7.664
23916SOL     OW73644   5.183  14.343   2.219
23916SOL    HW173645   5.207  14.330   2.311
23916SOL    HW273646   5.162  14.436   2.212
23917SOL     OW73647   1.224   1.730  14.061
23917SOL    HW173648   1.154   1.700  14.004
23917SOL    HW273649   1.290   1.661  14.057
23918SOL     OW73650   1.447   9.331   8.905
23918SOL    HW173651   1.402   9.269   8.963
23918SOL    HW273652   1.513   9.373   8.959
23919SOL     OW73653  13.300   2.864   8.977
23919SOL    HW173654  13.246   2.842   9.053
23919SOL    HW273655  13.268   2.806   8.907
23920SOL     OW73656   0.972  13.741   9.767
23920SOL    HW173657   1.027  13.706   9.836
23920SOL    HW273658   0.974  13.836   9.781
23921SOL     OW73659   0.807   8.646   4.019
23921SOL    HW173660   0.721   8.683   4.002
23921SOL    HW273661   0.821   8.584   3.947
23922SOL     OW73662   1.855  14.542   2.002
23922SOL    HW173663   1.817  14.461   2.035
23922SOL    HW273664   1.782  14.604   2.002
23923SOL     OW73665   6.707   6.431   8.230
23923SOL    HW173666   6.784   6.392   8.272
23923SOL    HW273667   6.654   6.463   8.303
23924SOL     OW73668  10.711   4.360   4.714
23924SOL    HW173669  10.688   4.281   4.763
23924SOL    HW273670  10.633   4.379   4.661
23925SOL     OW73671  11.302   9.830   3.111
23925SOL    HW173672  11.218   9.866   3.140
23925SOL    HW273673  11.328   9.770   3.182
23926SOL     OW73674   9.467   1.661   6.145
23926SOL    HW173675   9.527   1.719   6.192
23926SOL    HW273676   9.481   1.575   6.185
23927SOL     OW73677   4.864   1.075   9.806
23927SOL    HW173678   4.918   1.042   9.877
23927SOL    HW273679   4.887   1.019   9.731
23928SOL     OW73680  10.576   5.551   3.138
23928SOL    HW173681  10.646   5.601   3.097
23928SOL    HW273682  10.498   5.605   3.127
23929SOL     OW73683  13.479   0.337   9.283
23929SOL    HW173684  13.474   0.431   9.268
23929SOL    HW273685  13.447   0.298   9.201
23930SOL     OW73686   9.162  12.082   4.261
23930SOL    HW173687   9.121  12.079   4.174
23930SOL    HW273688   9.256  12.076   4.243
23931SOL     OW73689   9.174   1.663   4.492
23931SOL    HW173690   9.153   1.638   4.582
23931SOL    HW273691   9.218   1.586   4.455
23932SOL     OW73692  11.517   8.598   3.405
23932SOL    HW173693  11.606   8.628   3.424
23932SOL    HW273694  11.468   8.677   3.384
23933SOL     OW73695   2.614   6.876  11.097
23933SOL    HW173696   2.550   6.805  11.091
23933SOL    HW273697   2.626   6.889  11.191
23934SOL     OW73698   3.965   0.918   3.965
23934SOL    HW173699   3.932   0.930   3.876
23934SOL    HW273700   3.914   0.979   4.018
23935SOL     OW73701   1.420  10.211   1.150
23935SOL    HW173702   1.484  10.161   1.201
23935SOL    HW273703   1.336  10.193   1.192
23936SOL     OW73704   4.096  11.068  12.654
23936SOL    HW173705   4.008  11.100  12.674
23936SOL    HW273706   4.153  11.143  12.668
23937SOL     OW73707  10.575   2.735  12.552
23937SOL    HW173708  10.602   2.735  12.460
23937SOL    HW273709  10.500   2.795  12.554
23938SOL     OW73710  14.536  11.563   5.419
23938SOL    HW173711  14.504  11.476   5.396
23938SOL    HW273712  14.545  11.560   5.514
23939SOL     OW73713   7.481   1.952   7.849
23939SOL    HW173714   7.392   1.916   7.846
23939SOL    HW273715   7.514   1.942   7.760
23940SOL     OW73716  11.202  13.829   2.763
23940SOL    HW173717  11.121  13.816   2.713
23940SOL    HW273718  11.195  13.767   2.835
23941SOL     OW73719  10.391   9.119   7.914
23941SOL    HW173720  10.309   9.135   7.960
23941SOL    HW273721  10.368   9.120   7.821
23942SOL     OW73722   8.291   7.840  12.881
23942SOL    HW173723   8.345   7.887  12.946
23942SOL    HW273724   8.345   7.765  12.856
23943SOL     OW73725   7.455   4.577  11.687
23943SOL    HW173726   7.522   4.642  11.668
23943SOL    HW273727   7.475   4.547  11.775
23944SOL     OW73728   4.492  12.290   7.814
23944SOL    HW173729   4.464  12.292   7.906
23944SOL    HW273730   4.527  12.201   7.802
23945SOL     OW73731   6.456   3.735   6.197
23945SOL    HW173732   6.439   3.821   6.159
23945SOL    HW273733   6.369   3.699   6.214
23946SOL     OW73734  12.054   4.676  14.067
23946SOL    HW173735  12.011   4.618  14.130
23946SOL    HW273736  12.142   4.689  14.101
23947SOL     OW73737   4.447   7.992   3.443
23947SOL    HW173738   4.536   7.970   3.416
23947SOL    HW273739   4.440   7.959   3.532
23948SOL     OW73740  10.792   7.263   6.776
23948SOL    HW173741  10.783   7.218   6.691
23948SOL    HW273742  10.849   7.337   6.758
23949SOL     OW73743   6.054   4.034   9.257
23949SOL    HW173744   6.103   3.968   9.207
23949SOL    HW273745   6.110   4.112   9.256
23950SOL     OW73746   3.775   2.777  14.838
23950SOL    HW173747   3.722   2.740  14.767
23950SOL    HW273748   3.850   2.717  14.846
23951SOL     OW73749   6.018   1.868   4.287
23951SOL    HW173750   6.028   1.788   4.339
23951SOL    HW273751   5.932   1.859   4.245
23952SOL     OW73752  10.016  10.520   2.345
23952SOL    HW173753   9.951  10.555   2.284
23952SOL    HW273754  10.033  10.431   2.313
23953SOL     OW73755  10.857   3.635   8.947
23953SOL    HW173756  10.793   3.600   9.009
23953SOL    HW273757  10.906   3.699   8.998
23954SOL     OW73758   5.633  10.204   9.395
23954SOL    HW173759   5.582  10.276   9.358
23954SOL    HW273760   5.568  10.145   9.433
23955SOL     OW73761  12.812  10.877   2.029
23955SOL    HW173762  12.728  10.923   2.032
23955SOL    HW273763  12.877  10.944   2.010
23956SOL     OW73764   9.626   3.520   0.220
23956SOL    HW173765   9.677   3.546   0.144
23956SOL    HW273766   9.657   3.432   0.241
23957SOL     OW73767   8.102  10.753   2.697
23957SOL    HW173768   8.158  10.828   2.719
23957SOL    HW273769   8.073  10.719   2.782
23958SOL     OW73770  12.782   8.351   1.877
23958SOL    HW173771  12.804   8.405   1.953
23958SOL    HW273772  12.809   8.263   1.902
23959SOL     OW73773  12.100   1.934   2.432
23959SOL    HW173774  12.090   1.852   2.480
23959SOL    HW273775  12.169   1.916   2.367
23960SOL     OW73776  12.584   5.425   9.154
23960SOL    HW173777  12.593   5.331   9.167
23960SOL    HW273778  12.629   5.464   9.229
23961SOL     OW73779   4.898   3.652   4.262
23961SOL    HW173780   4.834   3.720   4.284
23961SOL    HW273781   4.979   3.681   4.304
23962SOL     OW73782  13.347   1.489   8.008
23962SOL    HW173783  13.414   1.540   7.961
23962SOL    HW273784  13.302   1.553   8.063
23963SOL     OW73785  13.353   7.904   5.506
23963SOL    HW173786  13.384   7.862   5.426
23963SOL    HW273787  13.427   7.957   5.536
23964SOL     OW73788  13.743   6.369   0.891
23964SOL    HW173789  13.812   6.310   0.859
23964SOL    HW273790  13.734   6.434   0.821
23965SOL     OW73791   9.382   5.116   8.807
23965SOL    HW173792   9.310   5.103   8.868
23965SOL    HW273793   9.389   5.211   8.798
23966SOL     OW73794  14.477  12.116   7.931
23966SOL    HW173795  14.532  12.092   7.857
23966SOL    HW273796  14.442  12.202   7.909
23967SOL     OW73797   5.874  13.200   0.450
23967SOL    HW173798   5.896  13.279   0.400
23967SOL    HW273799   5.939  13.136   0.423
23968SOL     OW73800  12.268   8.986  14.067
23968SOL    HW173801  12.286   9.061  14.124
23968SOL    HW273802  12.347   8.932  14.073
23969SOL     OW73803   9.522   4.937  10.844
23969SOL    HW173804   9.609   4.900  10.832
23969SOL    HW273805   9.527   5.024  10.803
23970SOL     OW73806   8.419  10.136   7.799
23970SOL    HW173807   8.394  10.051   7.762
23970SOL    HW273808   8.337  10.184   7.807
23971SOL     OW73809   0.218   8.543   5.531
23971SOL    HW173810   0.151   8.610   5.543
23971SOL    HW273811   0.285   8.586   5.478
23972SOL     OW73812  13.603   3.950   2.535
23972SOL    HW173813  13.671   4.010   2.566
23972SOL    HW273814  13.640   3.911   2.456
23973SOL     OW73815   2.571   0.607   1.745
23973SOL    HW173816   2.495   0.556   1.774
23973SOL    HW273817   2.556   0.695   1.781
23974SOL     OW73818   1.711  11.132   0.724
23974SOL    HW173819   1.692  11.130   0.817
23974SOL    HW273820   1.803  11.158   0.718
23975SOL     OW73821   2.111   0.708   7.085
23975SOL    HW173822   2.203   0.680   7.083
23975SOL    HW273823   2.067   0.649   7.025
23976SOL     OW73824   4.139  11.673   9.631
23976SOL    HW173825   4.200  11.668   9.704
23976SOL    HW273826   4.124  11.583   9.605
23977SOL     OW73827  12.094   5.264  11.623
23977SOL    HW173828  12.006   5.289  11.597
23977SOL    HW273829  12.133   5.345  11.656
23978SOL     OW73830  12.136  14.519   1.417
23978SOL    HW173831  12.064  14.532   1.356
23978SOL    HW273832  12.112  14.441   1.467
23979SOL     OW73833  11.832   2.416   3.999
23979SOL    HW173834  11.897   2.487   3.996
23979SOL    HW273835  11.884   2.336   3.993
23980SOL     OW73836   1.553  11.186   3.547
23980SOL    HW173837   1.474  11.159   3.594
23980SOL    HW273838   1.607  11.108   3.544
23981SOL     OW73839   9.187   8.214   8.596
23981SOL    HW173840   9.253   8.274   8.563
23981SOL    HW273841   9.172   8.153   8.523
23982SOL     OW73842  12.798   8.307  14.673
23982SOL    HW173843  12.803   8.219  14.635
23982SOL    HW273844  12.828   8.296  14.763
23983SOL     OW73845   9.026  12.042   8.646
23983SOL    HW173846   9.066  11.983   8.710
23983SOL    HW273847   8.943  12.001   8.623
23984SOL     OW73848   8.053  11.483  10.718
23984SOL    HW173849   8.089  11.414  10.661
23984SOL    HW273850   8.114  11.488  10.791
23985SOL     OW73851  13.388   4.665   2.833
23985SOL    HW173852  13.423   4.750   2.808
23985SOL    HW273853  13.402   4.660   2.927
23986SOL     OW73854   1.867  10.853  10.477
23986SOL    HW173855   1.868  10.797  10.399
23986SOL    HW273856   1.959  10.874  10.493
23987SOL     OW73857  12.169   3.057  12.212
23987SOL    HW173858  12.200   3.022  12.296
23987SOL    HW273859  12.176   3.152  12.222
23988SOL     OW73860  12.025   9.628  10.549
23988SOL    HW173861  11.999   9.720  10.544
23988SOL    HW273862  12.048   9.614  10.641
23989SOL     OW73863  12.600   3.418   1.644
23989SOL    HW173864  12.632   3.492   1.696
23989SOL    HW273865  12.668   3.404   1.578
23990SOL     OW73866   2.212   7.484   5.715
23990SOL    HW173867   2.236   7.534   5.793
23990SOL    HW273868   2.117   7.479   5.718
23991SOL     OW73869  11.824   3.575  13.198
23991SOL    HW173870  11.820   3.564  13.293
23991SOL    HW273871  11.908   3.535  13.173
23992SOL     OW73872   9.569   3.014   0.857
23992SOL    HW173873   9.638   2.948   0.845
23992SOL    HW273874   9.603   3.073   0.923
23993SOL     OW73875   4.391   7.755  13.145
23993SOL    HW173876   4.381   7.671  13.190
23993SOL    HW273877   4.445   7.735  13.069
23994SOL     OW73878   2.597   8.528   3.866
23994SOL    HW173879   2.508   8.561   3.876
23994SOL    HW273880   2.610   8.472   3.943
23995SOL     OW73881   8.828   3.555   5.708
23995SOL    HW173882   8.839   3.491   5.778
23995SOL    HW273883   8.778   3.509   5.641
23996SOL     OW73884   3.887   4.933   5.280
23996SOL    HW173885   3.917   4.935   5.189
23996SOL    HW273886   3.805   4.982   5.279
23997SOL     OW73887  10.129   7.833   8.267
23997SOL    HW173888  10.201   7.792   8.315
23997SOL    HW273889  10.118   7.780   8.189
23998SOL     OW73890  12.434  13.056  12.838
23998SOL    HW173891  12.505  13.099  12.792
23998SOL    HW273892  12.477  12.997  12.901
23999SOL     OW73893   3.863   8.201   8.151
23999SOL    HW173894   3.874   8.122   8.203
23999SOL    HW273895   3.907   8.182   8.068
24000SOL     OW73896   3.178   7.173  13.115
24000SOL    HW173897   3.108   7.138  13.170
24000SOL    HW273898   3.239   7.100  13.105
24001SOL     OW73899  10.167   6.366   8.197
24001SOL    HW173900  10.137   6.304   8.131
24001SOL    HW273901  10.259   6.382   8.177
24002SOL     OW73902   8.945   8.284   2.296
24002SOL    HW173903   8.891   8.231   2.237
24002SOL    HW273904   9.031   8.285   2.256
24003SOL     OW73905  11.035   7.104   9.449
24003SOL    HW173906  11.107   7.097   9.387
24003SOL    HW273907  11.076   7.097   9.535
24004SOL     OW73908  11.912   6.990   0.194
24004SOL    HW173909  11.861   6.935   0.134
24004SOL    HW273910  11.869   7.076   0.190
24005SOL     OW73911   8.361   5.532   9.270
24005SOL    HW173912   8.308   5.583   9.331
24005SOL    HW273913   8.304   5.518   9.195
24006SOL     OW73914   0.974   5.527   3.952
24006SOL    HW173915   1.049   5.501   4.007
24006SOL    HW273916   0.947   5.446   3.909
24007SOL     OW73917  13.315   1.210   9.677
24007SOL    HW173918  13.313   1.247   9.766
24007SOL    HW273919  13.341   1.119   9.690
24008SOL     OW73920  13.126   0.812  11.014
24008SOL    HW173921  13.065   0.824  10.942
24008SOL    HW273922  13.141   0.900  11.048
24009SOL     OW73923   4.374   0.840   7.035
24009SOL    HW173924   4.440   0.791   7.084
24009SOL    HW273925   4.418   0.866   6.954
24010SOL     OW73926   8.175   0.075  13.885
24010SOL    HW173927   8.204  14.858  13.911
24010SOL    HW273928   8.231   0.098  13.810
24011SOL     OW73929   1.693   4.206   7.999
24011SOL    HW173930   1.623   4.234   7.940
24011SOL    HW273931   1.697   4.111   7.988
24012SOL     OW73932   1.041   0.477   8.269
24012SOL    HW173933   1.028   0.483   8.174
24012SOL    HW273934   0.988   0.548   8.305
24013SOL     OW73935  12.800   1.775   4.408
24013SOL    HW173936  12.709   1.767   4.381
24013SOL    HW273937  12.840   1.693   4.378
24014SOL     OW73938  13.816   2.912   8.743
24014SOL    HW173939  13.882   2.966   8.700
24014SOL    HW273940  13.797   2.842   8.681
24015SOL     OW73941  12.442   7.457   6.209
24015SOL    HW173942  12.396   7.390   6.158
24015SOL    HW273943  12.464   7.412   6.291
24016SOL     OW73944   3.340   3.712  14.618
24016SOL    HW173945   3.418   3.761  14.595
24016SOL    HW273946   3.267   3.771  14.597
24017SOL     OW73947   5.805   6.667   3.545
24017SOL    HW173948   5.756   6.685   3.625
24017SOL    HW273949   5.792   6.574   3.529
24018SOL     OW73950  11.289  10.796   2.961
24018SOL    HW173951  11.354  10.865   2.975
24018SOL    HW273952  11.327  10.718   3.003
24019SOL     OW73953   7.476  10.488   5.247
24019SOL    HW173954   7.561  10.481   5.289
24019SOL    HW273955   7.413  10.482   5.319
24020SOL     OW73956   8.671  12.614   8.373
24020SOL    HW173957   8.753  12.623   8.325
24020SOL    HW273958   8.695  12.633   8.464
24021SOL     OW73959  14.144   7.492  10.436
24021SOL    HW173960  14.074   7.441  10.476
24021SOL    HW273961  14.212   7.428  10.416
24022SOL     OW73962  13.292  12.090  12.137
24022SOL    HW173963  13.346  12.128  12.067
24022SOL    HW273964  13.309  12.147  12.213
24023SOL     OW73965   1.918   6.333   1.466
24023SOL    HW173966   1.879   6.292   1.544
24023SOL    HW273967   1.982   6.395   1.502
24024SOL     OW73968   1.318   8.866   3.735
24024SOL    HW173969   1.290   8.785   3.693
24024SOL    HW273970   1.322   8.845   3.828
24025SOL     OW73971   1.537   6.290   0.667
24025SOL    HW173972   1.487   6.316   0.745
24025SOL    HW273973   1.474   6.298   0.595
24026SOL     OW73974  12.139   2.461  13.884
24026SOL    HW173975  12.158   2.367  13.891
24026SOL    HW273976  12.206   2.494  13.823
24027SOL     OW73977   8.362   4.987   6.178
24027SOL    HW173978   8.312   4.906   6.184
24027SOL    HW273979   8.313   5.041   6.116
24028SOL     OW73980  10.505   1.655  13.737
24028SOL    HW173981  10.519   1.565  13.709
24028SOL    HW273982  10.410   1.665  13.742
24029SOL     OW73983   9.636   6.518   5.355
24029SOL    HW173984   9.564   6.456   5.359
24029SOL    HW273985   9.594   6.604   5.352
24030SOL     OW73986   7.543  12.023   2.190
24030SOL    HW173987   7.450  12.021   2.169
24030SOL    HW273988   7.579  12.091   2.132
24031SOL     OW73989   2.865   6.972   7.208
24031SOL    HW173990   2.943   7.021   7.181
24031SOL    HW273991   2.888   6.881   7.195
24032SOL     OW73992   3.019  12.145   6.059
24032SOL    HW173993   3.081  12.085   6.017
24032SOL    HW273994   3.074  12.208   6.105
24033SOL     OW73995  11.174   4.522  12.173
24033SOL    HW173996  11.084   4.512  12.201
24033SOL    HW273997  11.218   4.442  12.203
24034SOL     OW73998   7.673  13.961   5.113
24034SOL    HW173999   7.642  13.877   5.078
24034SOL    HW274000   7.717  13.938   5.195
24035SOL     OW74001   7.041   2.031  10.487
24035SOL    HW174002   7.010   1.977  10.415
24035SOL    HW274003   7.128   2.060  10.460
24036SOL     OW74004   2.122  11.902   6.582
24036SOL    HW174005   2.198  11.846   6.565
24036SOL    HW274006   2.054  11.842   6.614
24037SOL     OW74007   6.381   4.036  10.669
24037SOL    HW174008   6.417   4.124  10.675
24037SOL    HW274009   6.334   4.024  10.752
24038SOL     OW74010   4.583   0.677   1.711
24038SOL    HW174011   4.625   0.693   1.796
24038SOL    HW274012   4.637   0.724   1.648
24039SOL     OW74013   8.994   6.066  12.400
24039SOL    HW174014   9.025   6.113  12.323
24039SOL    HW274015   9.029   6.115  12.474
24040SOL     OW74016  12.652   1.974   2.821
24040SOL    HW174017  12.565   1.999   2.788
24040SOL    HW274018  12.660   2.021   2.904
24041SOL     OW74019   2.849   3.698   7.039
24041SOL    HW174020   2.822   3.771   6.984
24041SOL    HW274021   2.775   3.684   7.098
24042SOL     OW74022   1.912   9.134  14.751
24042SOL    HW174023   1.955   9.061  14.797
24042SOL    HW274024   1.842   9.162  14.811
24043SOL     OW74025  12.380  13.684  14.712
24043SOL    HW174026  12.317  13.708  14.779
24043SOL    HW274027  12.327  13.651  14.639
24044SOL     OW74028   8.474   1.306   4.048
24044SOL    HW174029   8.502   1.395   4.070
24044SOL    HW274030   8.556   1.256   4.041
24045SOL     OW74031   0.931   5.074   4.470
24045SOL    HW174032   0.890   5.049   4.553
24045SOL    HW274033   0.963   4.992   4.433
24046SOL     OW74034   2.859  10.398   1.960
24046SOL    HW174035   2.927  10.423   1.897
24046SOL    HW274036   2.779  10.393   1.908
24047SOL     OW74037   0.825   1.628   2.018
24047SOL    HW174038   0.797   1.679   2.093
24047SOL    HW274039   0.744   1.595   1.979
24048SOL     OW74040   4.178   7.142   6.672
24048SOL    HW174041   4.230   7.090   6.732
24048SOL    HW274042   4.092   7.150   6.714
24049SOL     OW74043   8.509   0.068   9.203
24049SOL    HW174044   8.501   0.144   9.259
24049SOL    HW274045   8.536  14.867   9.261
24050SOL     OW74046   0.438   1.719  14.091
24050SOL    HW174047   0.410   1.760  14.173
24050SOL    HW274048   0.527   1.688  14.110
24051SOL     OW74049  10.650   0.977   8.784
24051SOL    HW174050  10.578   0.976   8.847
24051SOL    HW274051  10.628   1.048   8.724
24052SOL     OW74052  11.500   9.825  11.031
24052SOL    HW174053  11.467   9.906  11.070
24052SOL    HW274054  11.435   9.802  10.965
24053SOL     OW74055   0.992   3.796   1.183
24053SOL    HW174056   0.969   3.705   1.201
24053SOL    HW274057   0.962   3.811   1.094
24054SOL     OW74058   3.550   7.622  12.071
24054SOL    HW174059   3.478   7.613  12.008
24054SOL    HW274060   3.568   7.716  12.073
24055SOL     OW74061   9.474   9.917   5.597
24055SOL    HW174062   9.526   9.922   5.516
24055SOL    HW274063   9.400   9.975   5.581
24056SOL     OW74064   1.566   2.921  11.910
24056SOL    HW174065   1.645   2.966  11.880
24056SOL    HW274066   1.537   2.970  11.987
24057SOL     OW74067  11.073  13.680   2.016
24057SOL    HW174068  11.005  13.716   2.072
24057SOL    HW274069  11.098  13.753   1.959
24058SOL     OW74070   8.969   8.177   0.846
24058SOL    HW174071   9.009   8.178   0.759
24058SOL    HW274072   9.042   8.194   0.905
24059SOL     OW74073   4.765  13.614   1.684
24059SOL    HW174074   4.842  13.579   1.640
24059SOL    HW274075   4.693  13.558   1.655
24060SOL     OW74076   5.263   3.919   8.540
24060SOL    HW174077   5.314   3.937   8.461
24060SOL    HW274078   5.318   3.953   8.611
24061SOL     OW74079   6.401   7.451  14.210
24061SOL    HW174080   6.410   7.399  14.131
24061SOL    HW274081   6.308   7.450  14.230
24062SOL     OW74082   7.905  10.204  14.062
24062SOL    HW174083   7.841  10.203  14.133
24062SOL    HW274084   7.885  10.126  14.010
24063SOL     OW74085   0.226   3.923   1.004
24063SOL    HW174086   0.279   3.999   0.982
24063SOL    HW274087   0.169   3.953   1.075
24064SOL     OW74088   5.366   3.174   3.373
24064SOL    HW174089   5.348   3.229   3.449
24064SOL    HW274090   5.305   3.205   3.306
24065SOL     OW74091   4.555   1.057   4.682
24065SOL    HW174092   4.511   1.033   4.601
24065SOL    HW274093   4.525   1.146   4.700
24066SOL     OW74094   7.029   7.418  10.124
24066SOL    HW174095   6.935   7.439  10.122
24066SOL    HW274096   7.072   7.503  10.114
24067SOL     OW74097  14.109  13.530  14.840
24067SOL    HW174098  14.060  13.602  14.800
24067SOL    HW274099  14.125  13.469  14.768
24068SOL     OW74100   4.678  13.160   7.000
24068SOL    HW174101   4.607  13.117   6.952
24068SOL    HW274102   4.755  13.149   6.945
24069SOL     OW74103   2.239   0.851   7.957
24069SOL    HW174104   2.292   0.857   8.036
24069SOL    HW274105   2.159   0.900   7.978
24070SOL     OW74106   5.459  12.885   5.764
24070SOL    HW174107   5.384  12.850   5.812
24070SOL    HW274108   5.457  12.839   5.679
24071SOL     OW74109   9.204   4.241   4.041
24071SOL    HW174110   9.285   4.272   4.002
24071SOL    HW274111   9.231   4.180   4.110
24072SOL     OW74112   8.026  10.350  11.001
24072SOL    HW174113   8.098  10.414  11.009
24072SOL    HW274114   7.975  10.381  10.926
24073SOL     OW74115   3.519   3.959   9.618
24073SOL    HW174116   3.529   4.031   9.679
24073SOL    HW274117   3.426   3.935   9.623
24074SOL     OW74118   3.375   6.518   2.650
24074SOL    HW174119   3.411   6.583   2.709
24074SOL    HW274120   3.287   6.550   2.630
24075SOL     OW74121   5.499   6.931   3.970
24075SOL    HW174122   5.457   6.875   4.035
24075SOL    HW274123   5.543   6.999   4.021
24076SOL     OW74124  13.876   6.151  12.378
24076SOL    HW174125  13.852   6.110  12.295
24076SOL    HW274126  13.964   6.185  12.364
24077SOL     OW74127   3.769   9.715   8.533
24077SOL    HW174128   3.785   9.760   8.616
24077SOL    HW274129   3.821   9.763   8.469
24078SOL     OW74130   5.211   4.798   5.581
24078SOL    HW174131   5.116   4.803   5.577
24078SOL    HW274132   5.241   4.886   5.560
24079SOL     OW74133   9.171   0.972  12.420
24079SOL    HW174134   9.227   0.947  12.347
24079SOL    HW274135   9.214   1.050  12.456
24080SOL     OW74136  11.594   2.172   6.401
24080SOL    HW174137  11.656   2.126   6.458
24080SOL    HW274138  11.594   2.121   6.320
24081SOL     OW74139   0.594  14.564  10.563
24081SOL    HW174140   0.675  14.514  10.564
24081SOL    HW274141   0.617  14.647  10.605
24082SOL     OW74142   4.408   3.457  13.695
24082SOL    HW174143   4.479   3.519  13.711
24082SOL    HW274144   4.452   3.372  13.685
24083SOL     OW74145   4.024   0.286  14.230
24083SOL    HW174146   4.029   0.261  14.322
24083SOL    HW274147   4.106   0.255  14.192
24084SOL     OW74148  11.040   6.825  14.160
24084SOL    HW174149  11.075   6.740  14.186
24084SOL    HW274150  11.009   6.863  14.242
24085SOL     OW74151   2.785  12.069   0.619
24085SOL    HW174152   2.789  12.044   0.527
24085SOL    HW274153   2.712  12.019   0.655
24086SOL     OW74154   8.921   0.261   8.535
24086SOL    HW174155   8.827   0.278   8.537
24086SOL    HW274156   8.945   0.269   8.443
24087SOL     OW74157   1.616   7.747   2.036
24087SOL    HW174158   1.695   7.742   1.982
24087SOL    HW274159   1.622   7.672   2.095
24088SOL     OW74160   3.371   7.697  13.697
24088SOL    HW174161   3.375   7.791  13.710
24088SOL    HW274162   3.282   7.681  13.666
24089SOL     OW74163  12.973   0.347   3.024
24089SOL    HW174164  13.028   0.327   2.948
24089SOL    HW274165  13.014   0.424   3.063
24090SOL     OW74166   4.807   6.858   1.950
24090SOL    HW174167   4.832   6.835   2.039
24090SOL    HW274168   4.715   6.885   1.957
24091SOL     OW74169   3.708  10.511   6.284
24091SOL    HW174170   3.650  10.492   6.357
24091SOL    HW274171   3.777  10.567   6.321
24092SOL     OW74172   0.008   1.621  13.108
24092SOL    HW174173   0.072   1.583  13.168
24092SOL    HW274174  14.837   1.545  13.065
24093SOL     OW74175  14.070   7.066  13.609
24093SOL    HW174176  14.067   7.133  13.542
24093SOL    HW274177  14.139   7.006  13.581
24094SOL     OW74178  14.061  12.784   4.103
24094SOL    HW174179  14.141  12.836   4.092
24094SOL    HW274180  14.091  12.704   4.146
24095SOL     OW74181   6.106  13.402   7.479
24095SOL    HW174182   6.071  13.319   7.447
24095SOL    HW274183   6.200  13.396   7.464
24096SOL     OW74184   5.980   5.877  13.943
24096SOL    HW174185   5.962   5.966  13.911
24096SOL    HW274186   6.015   5.831  13.866
24097SOL     OW74187   3.289   6.501  14.679
24097SOL    HW174188   3.222   6.496  14.611
24097SOL    HW274189   3.281   6.590  14.714
24098SOL     OW74190   3.984   5.440  12.449
24098SOL    HW174191   3.930   5.517  12.430
24098SOL    HW274192   3.994   5.442  12.545
24099SOL     OW74193   4.570  10.540  11.944
24099SOL    HW174194   4.615  10.464  11.908
24099SOL    HW274195   4.513  10.503  12.012
24100SOL     OW74196   6.039  10.849   7.801
24100SOL    HW174197   5.979  10.895   7.743
24100SOL    HW274198   6.035  10.758   7.774
24101SOL     OW74199  13.109   9.001  10.751
24101SOL    HW174200  13.084   8.944  10.824
24101SOL    HW274201  13.047   9.074  10.756
24102SOL     OW74202   6.081   3.244   5.124
24102SOL    HW174203   6.046   3.313   5.068
24102SOL    HW274204   6.004   3.210   5.170
24103SOL     OW74205   4.172   0.156   2.341
24103SOL    HW174206   4.115   0.182   2.269
24103SOL    HW274207   4.231   0.231   2.353
24104SOL     OW74208   0.154   4.979  11.213
24104SOL    HW174209   0.081   4.955  11.270
24104SOL    HW274210   0.131   5.066  11.180
24105SOL     OW74211   5.019  10.942   9.803
24105SOL    HW174212   5.081  11.009   9.832
24105SOL    HW274213   4.947  10.948   9.865
24106SOL     OW74214   0.536   5.544   4.121
24106SOL    HW174215   0.604   5.563   4.056
24106SOL    HW274216   0.585   5.514   4.198
24107SOL     OW74217   6.336   7.073   4.474
24107SOL    HW174218   6.286   7.089   4.394
24107SOL    HW274219   6.306   7.141   4.534
24108SOL     OW74220   0.927   4.817  11.767
24108SOL    HW174221   0.837   4.793  11.785
24108SOL    HW274222   0.975   4.790  11.845
24109SOL     OW74223   0.853  10.078   6.739
24109SOL    HW174224   0.837  10.032   6.822
24109SOL    HW274225   0.790  10.040   6.678
24110SOL     OW74226   5.566  12.916   1.933
24110SOL    HW174227   5.623  12.868   1.993
24110SOL    HW274228   5.477  12.892   1.961
24111SOL     OW74229   6.264  10.570  11.713
24111SOL    HW174230   6.307  10.510  11.654
24111SOL    HW274231   6.322  10.646  11.717
24112SOL     OW74232  14.276  14.752   9.021
24112SOL    HW174233  14.245  14.833   8.980
24112SOL    HW274234  14.232  14.751   9.106
24113SOL     OW74235  11.381   5.892   2.056
24113SOL    HW174236  11.422   5.806   2.046
24113SOL    HW274237  11.449   5.946   2.097
24114SOL     OW74238  10.175   7.454  11.450
24114SOL    HW174239  10.233   7.480  11.379
24114SOL    HW274240  10.183   7.524  11.515
24115SOL     OW74241  13.474  13.229   2.309
24115SOL    HW174242  13.539  13.296   2.330
24115SOL    HW274243  13.517  13.146   2.328
24116SOL     OW74244  14.105   6.344   4.675
24116SOL    HW174245  14.057   6.387   4.746
24116SOL    HW274246  14.197   6.354   4.699
24117SOL     OW74247  10.659   3.160   9.112
24117SOL    HW174248  10.576   3.200   9.087
24117SOL    HW274249  10.641   3.066   9.115
24118SOL     OW74250   4.212   6.627   6.549
24118SOL    HW174251   4.155   6.594   6.618
24118SOL    HW274252   4.265   6.552   6.522
24119SOL     OW74253  12.779   9.275   2.596
24119SOL    HW174254  12.831   9.267   2.676
24119SOL    HW274255  12.818   9.210   2.536
24120SOL     OW74256   7.815   5.105  10.180
24120SOL    HW174257   7.828   5.192  10.143
24120SOL    HW274258   7.736   5.073  10.137
24121SOL     OW74259  10.640   6.907   0.361
24121SOL    HW174260  10.667   6.816   0.356
24121SOL    HW274261  10.599   6.916   0.447
24122SOL     OW74262   4.538   1.425   7.963
24122SOL    HW174263   4.583   1.448   7.881
24122SOL    HW274264   4.453   1.468   7.956
24123SOL     OW74265   4.061   9.058   8.182
24123SOL    HW174266   4.081   9.013   8.264
24123SOL    HW274267   4.047   9.149   8.208
24124SOL     OW74268   2.385   7.508   4.839
24124SOL    HW174269   2.303   7.496   4.887
24124SOL    HW274270   2.443   7.440   4.873
24125SOL     OW74271   9.949   4.464   1.503
24125SOL    HW174272   9.944   4.492   1.412
24125SOL    HW274273  10.041   4.477   1.527
24126SOL     OW74274  14.480   8.723   3.247
24126SOL    HW174275  14.530   8.801   3.271
24126SOL    HW274276  14.398   8.758   3.211
24127SOL     OW74277  11.098   7.384   3.606
24127SOL    HW174278  11.147   7.349   3.531
24127SOL    HW274279  11.012   7.405   3.570
24128SOL     OW74280  12.383   3.761   6.183
24128SOL    HW174281  12.457   3.711   6.148
24128SOL    HW274282  12.406   3.853   6.165
24129SOL     OW74283  12.747   7.818   0.269
24129SOL    HW174284  12.677   7.770   0.312
24129SOL    HW274285  12.824   7.761   0.276
24130SOL     OW74286   2.391   5.067   5.563
24130SOL    HW174287   2.329   4.994   5.571
24130SOL    HW274288   2.454   5.052   5.633
24131SOL     OW74289  13.334   0.078   8.068
24131SOL    HW174290  13.286   0.161   8.070
24131SOL    HW274291  13.341   0.056   7.975
24132SOL     OW74292   7.321   9.950  13.114
24132SOL    HW174293   7.302   9.979  13.025
24132SOL    HW274294   7.279   9.863  13.120
24133SOL     OW74295  12.874   4.111   4.980
24133SOL    HW174296  12.859   4.040   4.918
24133SOL    HW274297  12.820   4.089   5.056
24134SOL     OW74298   8.512  12.299   4.654
24134SOL    HW174299   8.581  12.279   4.716
24134SOL    HW274300   8.463  12.218   4.644
24135SOL     OW74301   9.954   9.109   9.664
24135SOL    HW174302   9.876   9.134   9.615
24135SOL    HW274303   9.999   9.191   9.682
24136SOL     OW74304  13.575  12.937   7.341
24136SOL    HW174305  13.592  12.939   7.435
24136SOL    HW274306  13.555  13.028   7.318
24137SOL     OW74307  14.681   5.100  11.500
24137SOL    HW174308  14.592   5.121  11.526
24137SOL    HW274309  14.731   5.181  11.515
24138SOL     OW74310   4.728   1.567   9.322
24138SOL    HW174311   4.640   1.604   9.312
24138SOL    HW274312   4.775   1.633   9.373
24139SOL     OW74313   6.030   3.235   1.441
24139SOL    HW174314   6.105   3.186   1.475
24139SOL    HW274315   5.978   3.258   1.518
24140SOL     OW74316   7.636  10.822   4.071
24140SOL    HW174317   7.710  10.815   4.131
24140SOL    HW274318   7.671  10.799   3.985
24141SOL     OW74319   7.454   8.841  12.780
24141SOL    HW174320   7.400   8.767  12.805
24141SOL    HW274321   7.392   8.912  12.762
24142SOL     OW74322   9.607   8.921  13.134
24142SOL    HW174323   9.586   8.990  13.197
24142SOL    HW274324   9.619   8.843  13.187
24143SOL     OW74325   0.439  13.753   4.053
24143SOL    HW174326   0.353  13.796   4.056
24143SOL    HW274327   0.423  13.672   4.004
24144SOL     OW74328   3.794   7.360  12.434
24144SOL    HW174329   3.741   7.424  12.386
24144SOL    HW274330   3.845   7.412  12.496
24145SOL     OW74331   5.997  10.752  13.439
24145SOL    HW174332   6.072  10.810  13.446
24145SOL    HW274333   6.019  10.693  13.367
24146SOL     OW74334   6.093  12.538  13.332
24146SOL    HW174335   6.035  12.529  13.407
24146SOL    HW274336   6.122  12.449  13.312
24147SOL     OW74337   3.000   5.732   8.322
24147SOL    HW174338   2.933   5.735   8.390
24147SOL    HW274339   3.015   5.824   8.299
24148SOL     OW74340   5.184   7.339   9.218
24148SOL    HW174341   5.187   7.270   9.284
24148SOL    HW274342   5.101   7.326   9.173
24149SOL     OW74343   3.053   4.956   1.924
24149SOL    HW174344   3.132   5.010   1.928
24149SOL    HW274345   3.006   4.989   1.848
24150SOL     OW74346   2.899   0.734   5.092
24150SOL    HW174347   2.838   0.790   5.044
24150SOL    HW274348   2.854   0.650   5.099
24151SOL     OW74349   3.250   6.869   5.537
24151SOL    HW174350   3.298   6.794   5.504
24151SOL    HW274351   3.210   6.908   5.459
24152SOL     OW74352  12.607   1.741   8.427
24152SOL    HW174353  12.653   1.657   8.426
24152SOL    HW274354  12.603   1.765   8.519
24153SOL     OW74355  11.803   5.425   5.002
24153SOL    HW174356  11.843   5.342   4.978
24153SOL    HW274357  11.870   5.471   5.053
24154SOL     OW74358   9.215  11.136   5.027
24154SOL    HW174359   9.224  11.193   4.951
24154SOL    HW274360   9.193  11.050   4.990
24155SOL     OW74361   1.068  13.748   8.661
24155SOL    HW174362   1.009  13.726   8.734
24155SOL    HW274363   1.108  13.664   8.638
24156SOL     OW74364   9.726   3.095   1.814
24156SOL    HW174365   9.745   3.089   1.907
24156SOL    HW274366   9.797   3.149   1.778
24157SOL     OW74367   0.389   3.203   6.085
24157SOL    HW174368   0.298   3.184   6.104
24157SOL    HW274369   0.387   3.259   6.007
24158SOL     OW74370   1.340   3.793  14.164
24158SOL    HW174371   1.270   3.736  14.133
24158SOL    HW274372   1.420   3.741  14.152
24159SOL     OW74373  11.495   0.466   8.064
24159SOL    HW174374  11.566   0.452   8.001
24159SOL    HW274375  11.455   0.549   8.037
24160SOL     OW74376  14.698   5.159   4.760
24160SOL    HW174377  14.724   5.223   4.826
24160SOL    HW274378  14.733   5.076   4.792
24161SOL     OW74379   8.929  14.299  14.525
24161SOL    HW174380   8.937  14.391  14.502
24161SOL    HW274381   8.846  14.293  14.572
24162SOL     OW74382   7.949   2.094   0.711
24162SOL    HW174383   7.924   2.051   0.793
24162SOL    HW274384   7.869   2.136   0.680
24163SOL     OW74385   6.599  13.074   6.713
24163SOL    HW174386   6.516  13.047   6.673
24163SOL    HW274387   6.642  13.126   6.645
24164SOL     OW74388  14.367   9.971   3.160
24164SOL    HW174389  14.305  10.038   3.189
24164SOL    HW274390  14.452  10.003   3.191
24165SOL     OW74391  14.322   4.966   9.858
24165SOL    HW174392  14.408   5.006   9.865
24165SOL    HW274393  14.264   5.022   9.910
24166SOL     OW74394  10.197  10.682  11.569
24166SOL    HW174395  10.182  10.684  11.664
24166SOL    HW274396  10.291  10.697  11.559
24167SOL     OW74397  11.549   3.908  13.902
24167SOL    HW174398  11.616   3.949  13.847
24167SOL    HW274399  11.571   3.815  13.902
24168SOL     OW74400   3.112   2.755   3.053
24168SOL    HW174401   3.087   2.714   3.136
24168SOL    HW274402   3.183   2.700   3.020
24169SOL     OW74403   5.638   2.090   9.514
24169SOL    HW174404   5.700   2.055   9.449
24169SOL    HW274405   5.659   2.184   9.518
24170SOL     OW74406  12.552   7.916   7.120
24170SOL    HW174407  12.473   7.921   7.174
24170SOL    HW274408  12.557   8.002   7.078
24171SOL     OW74409  14.719   2.750   8.367
24171SOL    HW174410  14.802   2.769   8.324
24171SOL    HW274411  14.710   2.655   8.362
24172SOL     OW74412   6.138   3.904   6.227
24172SOL    HW174413   6.125   3.841   6.298
24172SOL    HW274414   6.192   3.973   6.266
24173SOL     OW74415   2.940   6.342  12.592
24173SOL    HW174416   2.871   6.373  12.532
24173SOL    HW274417   3.012   6.317  12.534
24174SOL     OW74418  13.197   6.483   5.301
24174SOL    HW174419  13.197   6.502   5.207
24174SOL    HW274420  13.107   6.455   5.319
24175SOL     OW74421   3.981   0.308  14.515
24175SOL    HW174422   4.054   0.249  14.535
24175SOL    HW274423   3.925   0.305  14.593
24176SOL     OW74424   3.800  13.337   2.453
24176SOL    HW174425   3.859  13.348   2.527
24176SOL    HW274426   3.856  13.347   2.376
24177SOL     OW74427   4.297   6.672   2.146
24177SOL    HW174428   4.392   6.661   2.147
24177SOL    HW274429   4.283   6.759   2.183
24178SOL     OW74430   6.311   8.191  10.053
24178SOL    HW174431   6.260   8.263  10.016
24178SOL    HW274432   6.291   8.116   9.998
24179SOL     OW74433  12.061  11.243  11.668
24179SOL    HW174434  12.019  11.162  11.640
24179SOL    HW274435  12.099  11.223  11.753
24180SOL     OW74436   9.135  13.509   5.029
24180SOL    HW174437   9.190  13.498   5.107
24180SOL    HW274438   9.097  13.596   5.039
24181SOL     OW74439  11.718   4.035  12.334
24181SOL    HW174440  11.630   4.062  12.308
24181SOL    HW274441  11.746   4.102  12.396
24182SOL     OW74442   1.638   5.710   6.455
24182SOL    HW174443   1.697   5.699   6.529
24182SOL    HW274444   1.557   5.745   6.493
24183SOL     OW74445   3.661   9.249  11.906
24183SOL    HW174446   3.651   9.197  11.985
24183SOL    HW274447   3.701   9.331  11.935
24184SOL     OW74448   2.700   3.624   0.946
24184SOL    HW174449   2.668   3.577   0.869
24184SOL    HW274450   2.726   3.555   1.008
24185SOL     OW74451   9.757  13.169   6.654
24185SOL    HW174452   9.711  13.218   6.723
24185SOL    HW274453   9.811  13.106   6.702
24186SOL     OW74454   6.374   5.251  11.436
24186SOL    HW174455   6.460   5.210  11.433
24186SOL    HW274456   6.340   5.241  11.347
24187SOL     OW74457  13.532  13.281  13.141
24187SOL    HW174458  13.521  13.195  13.101
24187SOL    HW274459  13.503  13.342  13.073
24188SOL     OW74460  13.367  12.069  12.421
24188SOL    HW174461  13.336  11.992  12.468
24188SOL    HW274462  13.445  12.039  12.374
24189SOL     OW74463   8.470   0.303   0.463
24189SOL    HW174464   8.555   0.344   0.449
24189SOL    HW274465   8.491   0.211   0.482
24190SOL     OW74466   8.777   0.210  13.399
24190SOL    HW174467   8.690   0.177  13.420
24190SOL    HW274468   8.775   0.303  13.423
24191SOL     OW74469   5.373  10.749   2.138
24191SOL    HW174470   5.426  10.766   2.060
24191SOL    HW274471   5.321  10.671   2.115
24192SOL     OW74472   1.079   4.481  14.019
24192SOL    HW174473   0.992   4.462  14.053
24192SOL    HW274474   1.065   4.503  13.927
24193SOL     OW74475   7.221   9.960   6.989
24193SOL    HW174476   7.160  10.011   7.043
24193SOL    HW274477   7.168   9.889   6.953
24194SOL     OW74478  11.303  10.672   2.532
24194SOL    HW174479  11.251  10.614   2.477
24194SOL    HW274480  11.259  10.671   2.617
24195SOL     OW74481  11.747   3.554   3.510
24195SOL    HW174482  11.707   3.534   3.595
24195SOL    HW274483  11.778   3.644   3.518
24196SOL     OW74484  11.364   4.850  13.365
24196SOL    HW174485  11.407   4.845  13.280
24196SOL    HW274486  11.370   4.943  13.390
24197SOL     OW74487   7.102  12.317   0.430
24197SOL    HW174488   7.197  12.312   0.422
24197SOL    HW274489   7.078  12.242   0.484
24198SOL     OW74490   4.313  11.059   8.741
24198SOL    HW174491   4.373  10.993   8.777
24198SOL    HW274492   4.274  11.016   8.665
24199SOL     OW74493   6.836  10.008  10.755
24199SOL    HW174494   6.757  10.061  10.766
24199SOL    HW274495   6.824   9.965  10.670
24200SOL     OW74496   6.188  13.443  14.286
24200SOL    HW174497   6.237  13.500  14.227
24200SOL    HW274498   6.100  13.440  14.250
24201SOL     OW74499  14.426   5.029   6.279
24201SOL    HW174500  14.417   4.938   6.305
24201SOL    HW274501  14.420   5.078   6.362
24202SOL     OW74502   8.378   2.213  10.843
24202SOL    HW174503   8.445   2.144  10.839
24202SOL    HW274504   8.418   2.281  10.897
24203SOL     OW74505  14.048  10.574  11.214
24203SOL    HW174506  14.081  10.528  11.291
24203SOL    HW274507  14.056  10.510  11.143
24204SOL     OW74508   0.847  10.066   9.547
24204SOL    HW174509   0.860  10.070   9.452
24204SOL    HW274510   0.933  10.044   9.583
24205SOL     OW74511   0.975   0.248  10.805
24205SOL    HW174512   0.932   0.323  10.763
24205SOL    HW274513   1.019   0.203  10.733
24206SOL     OW74514   5.090  14.004   1.679
24206SOL    HW174515   5.148  14.044   1.614
24206SOL    HW274516   5.015  13.973   1.628
24207SOL     OW74517  14.292   4.500   5.173
24207SOL    HW174518  14.205   4.481   5.138
24207SOL    HW274519  14.317   4.422   5.221
24208SOL     OW74520  14.073   1.888   8.197
24208SOL    HW174521  14.065   1.951   8.125
24208SOL    HW274522  14.093   1.942   8.274
24209SOL     OW74523  14.400   8.352   0.459
24209SOL    HW174524  14.341   8.365   0.534
24209SOL    HW274525  14.430   8.262   0.468
24210SOL     OW74526   7.789   1.479  10.821
24210SOL    HW174527   7.836   1.458  10.741
24210SOL    HW274528   7.773   1.574  10.816
24211SOL     OW74529  10.323  11.048   0.381
24211SOL    HW174530  10.391  10.983   0.364
24211SOL    HW274531  10.345  11.085   0.467
24212SOL     OW74532   4.242  13.021  10.206
24212SOL    HW174533   4.211  13.093  10.151
24212SOL    HW274534   4.278  12.957  10.145
24213SOL     OW74535   9.145   4.592   8.985
24213SOL    HW174536   9.214   4.656   8.968
24213SOL    HW274537   9.089   4.597   8.907
24214SOL     OW74538   3.244  12.671   0.952
24214SOL    HW174539   3.161  12.681   0.904
24214SOL    HW274540   3.255  12.577   0.962
24215SOL     OW74541   2.655   7.900   8.490
24215SOL    HW174542   2.579   7.873   8.440
24215SOL    HW274543   2.667   7.993   8.469
24216SOL     OW74544   6.441   6.896   8.691
24216SOL    HW174545   6.511   6.956   8.717
24216SOL    HW274546   6.365   6.925   8.741
24217SOL     OW74547   5.048   4.043   9.608
24217SOL    HW174548   4.969   4.041   9.662
24217SOL    HW274549   5.041   3.964   9.554
24218SOL     OW74550  14.174  10.730   6.718
24218SOL    HW174551  14.178  10.640   6.685
24218SOL    HW274552  14.257  10.742   6.764
24219SOL     OW74553   6.601   5.992  11.769
24219SOL    HW174554   6.506   6.006  11.766
24219SOL    HW274555   6.638   6.068  11.724
24220SOL     OW74556   5.766  10.059  11.698
24220SOL    HW174557   5.692  10.000  11.717
24220SOL    HW274558   5.826  10.005  11.647
24221SOL     OW74559  10.060   8.306  13.134
24221SOL    HW174560  10.106   8.276  13.212
24221SOL    HW274561  10.025   8.392  13.158
24222SOL     OW74562  11.055   6.787   7.341
24222SOL    HW174563  11.096   6.716   7.391
24222SOL    HW274564  11.044   6.858   7.404
24223SOL     OW74565   9.514   8.030   5.093
24223SOL    HW174566   9.604   8.053   5.068
24223SOL    HW274567   9.524   7.970   5.167
24224SOL     OW74568  10.406   6.201   6.772
24224SOL    HW174569  10.404   6.181   6.866
24224SOL    HW274570  10.437   6.120   6.731
24225SOL     OW74571   1.454   5.666   0.865
24225SOL    HW174572   1.389   5.736   0.872
24225SOL    HW274573   1.514   5.682   0.938
24226SOL     OW74574   2.368   9.583  10.747
24226SOL    HW174575   2.312   9.506  10.738
24226SOL    HW274576   2.444   9.552  10.796
24227SOL     OW74577   8.202   3.980   9.412
24227SOL    HW174578   8.131   4.044   9.418
24227SOL    HW274579   8.258   3.999   9.487
24228SOL     OW74580   5.833   9.180   3.950
24228SOL    HW174581   5.795   9.122   4.017
24228SOL    HW274582   5.806   9.268   3.978
24229SOL     OW74583   7.972   2.351  11.868
24229SOL    HW174584   7.949   2.326  11.958
24229SOL    HW274585   8.021   2.277  11.834
24230SOL     OW74586  14.756  13.078   0.013
24230SOL    HW174587  14.697  13.124   0.073
24230SOL    HW274588  14.825  13.141  14.863
24231SOL     OW74589   4.535  14.381   8.865
24231SOL    HW174590   4.616  14.333   8.881
24231SOL    HW274591   4.491  14.384   8.950
24232SOL     OW74592  14.261  12.407   0.025
24232SOL    HW174593  14.311  12.400   0.106
24232SOL    HW274594  14.172  12.382   0.048
24233SOL     OW74595   4.284  13.268  13.462
24233SOL    HW174596   4.266  13.294  13.553
24233SOL    HW274597   4.328  13.343  13.423
24234SOL     OW74598   3.462  14.083   4.126
24234SOL    HW174599   3.502  14.068   4.211
24234SOL    HW274600   3.432  14.174   4.129
24235SOL     OW74601   2.794   0.577   7.477
24235SOL    HW174602   2.757   0.589   7.390
24235SOL    HW274603   2.873   0.631   7.477
24236SOL     OW74604   0.354   1.318   2.147
24236SOL    HW174605   0.308   1.320   2.231
24236SOL    HW274606   0.287   1.293   2.084
24237SOL     OW74607  13.852   8.479  13.021
24237SOL    HW174608  13.870   8.527  12.941
24237SOL    HW274609  13.812   8.543  13.079
24238SOL     OW74610   5.475   8.485   7.283
24238SOL    HW174611   5.389   8.517   7.309
24238SOL    HW274612   5.500   8.424   7.352
24239SOL     OW74613   1.842   0.990  13.467
24239SOL    HW174614   1.845   1.085  13.478
24239SOL    HW274615   1.879   0.974  13.380
24240SOL     OW74616   0.442   1.053  14.378
24240SOL    HW174617   0.393   0.973  14.357
24240SOL    HW274618   0.481   1.035  14.463
24241SOL     OW74619   9.351   5.460   5.982
24241SOL    HW174620   9.446   5.471   5.979
24241SOL    HW274621   9.336   5.403   6.058
24242SOL     OW74622  12.322   1.268  13.591
24242SOL    HW174623  12.308   1.350  13.638
24242SOL    HW274624  12.370   1.293  13.512
24243SOL     OW74625   6.463   4.404   9.921
24243SOL    HW174626   6.527   4.381   9.988
24243SOL    HW274627   6.449   4.498   9.932
24244SOL     OW74628   2.146   0.346   9.519
24244SOL    HW174629   2.099   0.264   9.534
24244SOL    HW274630   2.208   0.353   9.591
24245SOL     OW74631   6.071  13.062  11.777
24245SOL    HW174632   6.146  13.004  11.767
24245SOL    HW274633   6.018  13.021  11.845
24246SOL     OW74634  13.473  11.527  12.402
24246SOL    HW174635  13.566  11.507  12.409
24246SOL    HW274636  13.440  11.523  12.492
24247SOL     OW74637   3.237   7.293  11.330
24247SOL    HW174638   3.208   7.345  11.255
24247SOL    HW274639   3.197   7.336  11.406
24248SOL     OW74640  13.824  11.428   9.314
24248SOL    HW174641  13.779  11.458   9.235
24248SOL    HW274642  13.902  11.483   9.319
24249SOL     OW74643   1.269   9.413   1.073
24249SOL    HW174644   1.280   9.399   0.979
24249SOL    HW274645   1.196   9.356   1.099
24250SOL     OW74646   0.591  10.696  12.833
24250SOL    HW174647   0.574  10.604  12.855
24250SOL    HW274648   0.535  10.713  12.757
24251SOL     OW74649   6.841   2.023   9.641
24251SOL    HW174650   6.833   1.941   9.689
24251SOL    HW274651   6.836   1.998   9.549
24252SOL     OW74652   4.405  13.747   9.015
24252SOL    HW174653   4.312  13.731   9.033
24252SOL    HW274654   4.432  13.671   8.963
24253SOL     OW74655   7.578  14.489   4.241
24253SOL    HW174656   7.664  14.522   4.217
24253SOL    HW274657   7.549  14.546   4.313
24254SOL     OW74658   1.458  11.923   9.126
24254SOL    HW174659   1.485  11.890   9.040
24254SOL    HW274660   1.410  11.851   9.165
24255SOL     OW74661   1.931   6.115   8.232
24255SOL    HW174662   1.971   6.170   8.165
24255SOL    HW274663   1.839   6.109   8.206
24256SOL     OW74664   1.778  10.147   3.001
24256SOL    HW174665   1.820  10.063   3.023
24256SOL    HW274666   1.716  10.162   3.072
24257SOL     OW74667   8.282   1.103   7.040
24257SOL    HW174668   8.287   1.112   6.945
24257SOL    HW274669   8.372   1.111   7.070
24258SOL     OW74670   8.367   3.346   2.127
24258SOL    HW174671   8.292   3.293   2.154
24258SOL    HW274672   8.329   3.429   2.099
24259SOL     OW74673  13.580   7.633  12.336
24259SOL    HW174674  13.673   7.654  12.335
24259SOL    HW274675  13.542   7.689  12.269
24260SOL     OW74676  11.545   1.995   7.826
24260SOL    HW174677  11.619   2.028   7.878
24260SOL    HW274678  11.585   1.964   7.745
24261SOL     OW74679   8.948   8.902   9.994
24261SOL    HW174680   8.940   8.979   9.938
24261SOL    HW274681   8.984   8.834   9.936
24262SOL     OW74682  12.678   2.030   1.161
24262SOL    HW174683  12.604   1.989   1.115
24262SOL    HW274684  12.687   2.116   1.119
24263SOL     OW74685   6.626   8.623   2.983
24263SOL    HW174686   6.673   8.553   3.030
24263SOL    HW274687   6.543   8.631   3.029
24264SOL     OW74688  14.366   1.678   5.777
24264SOL    HW174689  14.446   1.727   5.794
24264SOL    HW274690  14.377   1.643   5.688
24265SOL     OW74691   2.517   3.583   3.617
24265SOL    HW174692   2.588   3.523   3.595
24265SOL    HW274693   2.438   3.536   3.591
24266SOL     OW74694   9.448  10.097   1.285
24266SOL    HW174695   9.430  10.011   1.322
24266SOL    HW274696   9.373  10.114   1.227
24267SOL     OW74697  12.101   2.637   2.027
24267SOL    HW174698  12.125   2.569   2.090
24267SOL    HW274699  12.183   2.655   1.980
24268SOL     OW74700  13.283   1.974   1.230
24268SOL    HW174701  13.257   1.975   1.138
24268SOL    HW274702  13.205   2.003   1.277
24269SOL     OW74703   4.815   1.741   3.340
24269SOL    HW174704   4.863   1.804   3.287
24269SOL    HW274705   4.882   1.693   3.388
24270SOL     OW74706   4.945   1.606  11.298
24270SOL    HW174707   5.000   1.665  11.350
24270SOL    HW274708   4.940   1.649  11.212
24271SOL     OW74709   7.675  10.480   9.182
24271SOL    HW174710   7.745  10.433   9.228
24271SOL    HW274711   7.594  10.451   9.224
24272SOL     OW74712   7.289   1.175  13.959
24272SOL    HW174713   7.381   1.179  13.933
24272SOL    HW274714   7.263   1.084  13.941
24273SOL     OW74715   3.235  12.740  14.246
24273SOL    HW174716   3.228  12.790  14.328
24273SOL    HW274717   3.296  12.669  14.267
24274SOL     OW74718   9.247   5.905   8.624
24274SOL    HW174719   9.296   5.928   8.702
24274SOL    HW274720   9.186   5.836   8.652
24275SOL     OW74721   6.978   2.198   1.403
24275SOL    HW174722   6.916   2.239   1.343
24275SOL    HW274723   6.925   2.136   1.454
24276SOL     OW74724  12.671   0.655  12.677
24276SOL    HW174725  12.660   0.660  12.582
24276SOL    HW274726  12.641   0.568  12.701
24277SOL     OW74727  13.234  13.268  13.441
24277SOL    HW174728  13.254  13.260  13.534
24277SOL    HW274729  13.146  13.232  13.431
24278SOL     OW74730   5.961   4.312   1.860
24278SOL    HW174731   5.991   4.384   1.917
24278SOL    HW274732   6.040   4.260   1.846
24279SOL     OW74733   1.989   3.419   4.826
24279SOL    HW174734   2.020   3.333   4.855
24279SOL    HW274735   1.987   3.412   4.730
24280SOL     OW74736   7.229  14.427   8.415
24280SOL    HW174737   7.222  14.340   8.375
24280SOL    HW274738   7.308  14.465   8.377
24281SOL     OW74739   3.066  10.964  11.835
24281SOL    HW174740   3.072  10.917  11.752
24281SOL    HW274741   3.117  10.910  11.896
24282SOL     OW74742  11.110   9.712   7.808
24282SOL    HW174743  11.103   9.692   7.902
24282SOL    HW274744  11.025   9.749   7.785
24283SOL     OW74745   2.851   3.864   8.370
24283SOL    HW174746   2.896   3.948   8.372
24283SOL    HW274747   2.920   3.798   8.374
24284SOL     OW74748   9.349   5.094   6.481
24284SOL    HW174749   9.423   5.150   6.504
24284SOL    HW274750   9.388   5.018   6.439
24285SOL     OW74751   4.355  14.539   9.673
24285SOL    HW174752   4.319  14.606   9.730
24285SOL    HW274753   4.291  14.467   9.677
24286SOL     OW74754  12.074   3.186  10.992
24286SOL    HW174755  12.158   3.162  11.030
24286SOL    HW274756  12.094   3.261  10.935
24287SOL     OW74757   0.694   7.302   7.503
24287SOL    HW174758   0.637   7.271   7.432
24287SOL    HW274759   0.729   7.385   7.471
24288SOL     OW74760  13.050   0.308   6.448
24288SOL    HW174761  13.097   0.231   6.481
24288SOL    HW274762  13.026   0.356   6.527
24289SOL     OW74763   0.042   8.884   4.643
24289SOL    HW174764  14.856   8.829   4.588
24289SOL    HW274765   0.058   8.831   4.721
24290SOL     OW74766   3.728   2.369   0.952
24290SOL    HW174767   3.642   2.341   0.921
24290SOL    HW274768   3.784   2.361   0.875
24291SOL     OW74769  12.711   3.828   7.901
24291SOL    HW174770  12.689   3.762   7.835
24291SOL    HW274771  12.627   3.853   7.939
24292SOL     OW74772   8.815   3.111  14.671
24292SOL    HW174773   8.729   3.145  14.696
24292SOL    HW274774   8.863   3.103  14.754
24293SOL     OW74775   8.097   6.875   0.337
24293SOL    HW174776   8.013   6.830   0.339
24293SOL    HW274777   8.154   6.823   0.394
24294SOL     OW74778  11.021   2.926   2.567
24294SOL    HW174779  10.994   2.853   2.623
24294SOL    HW274780  10.953   2.992   2.578
24295SOL     OW74781   3.172   1.736   8.634
24295SOL    HW174782   3.112   1.782   8.576
24295SOL    HW274783   3.116   1.698   8.702
24296SOL     OW74784   5.361   3.312   3.614
24296SOL    HW174785   5.437   3.337   3.668
24296SOL    HW274786   5.285   3.339   3.666
24297SOL     OW74787   3.590   3.634   1.258
24297SOL    HW174788   3.531   3.709   1.260
24297SOL    HW274789   3.581   3.594   1.344
24298SOL     OW74790   7.678  11.434   4.452
24298SOL    HW174791   7.742  11.388   4.399
24298SOL    HW274792   7.699  11.407   4.542
24299SOL     OW74793   5.073   9.673   1.146
24299SOL    HW174794   5.089   9.623   1.226
24299SOL    HW274795   5.058   9.762   1.176
24300SOL     OW74796   3.847   5.195   1.430
24300SOL    HW174797   3.914   5.178   1.363
24300SOL    HW274798   3.880   5.272   1.477
24301SOL     OW74799   6.892   8.156  11.776
24301SOL    HW174800   6.858   8.079  11.731
24301SOL    HW274801   6.943   8.120  11.849
24302SOL     OW74802   2.178   4.055   8.933
24302SOL    HW174803   2.272   4.073   8.930
24302SOL    HW274804   2.155   4.035   8.842
24303SOL     OW74805   6.656   2.541   8.180
24303SOL    HW174806   6.624   2.604   8.116
24303SOL    HW274807   6.606   2.561   8.259
24304SOL     OW74808   9.473   7.788   0.487
24304SOL    HW174809   9.412   7.747   0.548
24304SOL    HW274810   9.551   7.732   0.489
24305SOL     OW74811  12.147   0.749   0.772
24305SOL    HW174812  12.068   0.708   0.805
24305SOL    HW274813  12.119   0.795   0.692
24306SOL     OW74814   6.797   0.271  10.354
24306SOL    HW174815   6.848   0.239  10.428
24306SOL    HW274816   6.746   0.344  10.390
24307SOL     OW74817   3.407   0.127   2.226
24307SOL    HW174818   3.379   0.068   2.156
24307SOL    HW274819   3.502   0.121   2.226
24308SOL     OW74820   7.130   5.886   1.543
24308SOL    HW174821   7.070   5.952   1.506
24308SOL    HW274822   7.185   5.860   1.470
24309SOL     OW74823   1.076   7.367  14.404
24309SOL    HW174824   1.170   7.363  14.422
24309SOL    HW274825   1.069   7.362  14.309
24310SOL     OW74826   5.845   5.231  12.521
24310SOL    HW174827   5.799   5.279  12.451
24310SOL    HW274828   5.938   5.238  12.497
24311SOL     OW74829   8.175   9.147   7.928
24311SOL    HW174830   8.148   9.055   7.935
24311SOL    HW274831   8.197   9.172   8.018
24312SOL     OW74832   3.779   6.188   4.717
24312SOL    HW174833   3.696   6.144   4.702
24312SOL    HW274834   3.785   6.198   4.812
24313SOL     OW74835  10.221  10.697   1.478
24313SOL    HW174836  10.268  10.720   1.398
24313SOL    HW274837  10.193  10.606   1.463
24314SOL     OW74838  11.260   8.550   1.236
24314SOL    HW174839  11.317   8.580   1.307
24314SOL    HW274840  11.319   8.514   1.171
24315SOL     OW74841  14.479   7.362  12.091
24315SOL    HW174842  14.424   7.439  12.094
24315SOL    HW274843  14.527   7.364  12.174
24316SOL     OW74844   9.404  11.634   7.810
24316SOL    HW174845   9.345  11.700   7.847
24316SOL    HW274846   9.469  11.685   7.761
24317SOL     OW74847  14.205   6.124  10.922
24317SOL    HW174848  14.168   6.188  10.983
24317SOL    HW274849  14.145   6.049  10.927
24318SOL     OW74850   5.970   1.952   0.272
24318SOL    HW174851   5.957   1.928   0.180
24318SOL    HW274852   5.947   1.874   0.321
24319SOL     OW74853   6.853   8.547   1.784
24319SOL    HW174854   6.866   8.458   1.752
24319SOL    HW274855   6.795   8.538   1.860
24320SOL     OW74856   7.668   5.788  11.263
24320SOL    HW174857   7.604   5.857  11.248
24320SOL    HW274858   7.736   5.829  11.316
24321SOL     OW74859   7.088  11.899  14.108
24321SOL    HW174860   7.088  11.933  14.198
24321SOL    HW274861   6.996  11.881  14.089
24322SOL     OW74862   6.773   3.677   5.298
24322SOL    HW174863   6.677   3.686   5.293
24322SOL    HW274864   6.805   3.768   5.298
24323SOL     OW74865   9.360  11.482   8.071
24323SOL    HW174866   9.327  11.547   8.134
24323SOL    HW274867   9.410  11.534   8.008
24324SOL     OW74868   5.631  11.819   9.300
24324SOL    HW174869   5.550  11.870   9.297
24324SOL    HW274870   5.694  11.872   9.251
24325SOL     OW74871   0.188   0.084   6.131
24325SOL    HW174872   0.259   0.100   6.069
24325SOL    HW274873   0.134   0.016   6.089
24326SOL     OW74874  11.205  10.088   7.599
24326SOL    HW174875  11.113  10.069   7.578
24326SOL    HW274876  11.221  10.173   7.559
24327SOL     OW74877   9.596   9.952   8.610
24327SOL    HW174878   9.535  10.007   8.660
24327SOL    HW274879   9.544   9.876   8.583
24328SOL     OW74880   7.378   3.176   6.586
24328SOL    HW174881   7.397   3.120   6.661
24328SOL    HW274882   7.417   3.130   6.512
24329SOL     OW74883   5.721  11.589   7.360
24329SOL    HW174884   5.713  11.549   7.273
24329SOL    HW274885   5.755  11.518   7.415
24330SOL     OW74886  10.894  11.832   9.921
24330SOL    HW174887  10.949  11.760   9.954
24330SOL    HW274888  10.804  11.801   9.933
24331SOL     OW74889   4.218  12.668  11.370
24331SOL    HW174890   4.123  12.675  11.355
24331SOL    HW274891   4.238  12.576  11.350
24332SOL     OW74892   5.985  11.961  10.657
24332SOL    HW174893   5.919  11.892  10.662
24332SOL    HW274894   6.056  11.923  10.606
24333SOL     OW74895   7.011   8.217   0.100
24333SOL    HW174896   6.926   8.222   0.057
24333SOL    HW274897   6.993   8.177   0.185
24334SOL     OW74898   9.867   2.737  10.279
24334SOL    HW174899   9.831   2.789  10.351
24334SOL    HW274900   9.851   2.789  10.201
24335SOL     OW74901   8.529   4.787   2.367
24335SOL    HW174902   8.495   4.717   2.311
24335SOL    HW274903   8.592   4.743   2.424
24336SOL     OW74904   3.435  10.468   5.802
24336SOL    HW174905   3.444  10.384   5.759
24336SOL    HW274906   3.505  10.469   5.867
24337SOL     OW74907   4.224   4.026  11.818
24337SOL    HW174908   4.187   4.056  11.901
24337SOL    HW274909   4.318   4.044  11.826
24338SOL     OW74910  11.928   5.386   3.706
24338SOL    HW174911  11.994   5.362   3.641
24338SOL    HW274912  11.883   5.304   3.727
24339SOL     OW74913   4.155   6.454  14.486
24339SOL    HW174914   4.158   6.414  14.399
24339SOL    HW274915   4.178   6.382  14.546
24340SOL     OW74916   0.704  14.718  11.062
24340SOL    HW174917   0.776  14.677  11.014
24340SOL    HW274918   0.702  14.808  11.030
24341SOL     OW74919   8.475   5.770   9.450
24341SOL    HW174920   8.547   5.742   9.506
24341SOL    HW274921   8.404   5.709   9.469
24342SOL     OW74922  10.896  12.162  12.919
24342SOL    HW174923  10.937  12.080  12.947
24342SOL    HW274924  10.943  12.230  12.968
24343SOL     OW74925   0.739   4.821   2.896
24343SOL    HW174926   0.673   4.765   2.939
24343SOL    HW274927   0.755   4.891   2.959
24344SOL     OW74928  13.038   7.375   9.777
24344SOL    HW174929  13.024   7.342   9.688
24344SOL    HW274930  12.950   7.380   9.815
24345SOL     OW74931   2.026   6.052   6.033
24345SOL    HW174932   2.033   6.138   5.992
24345SOL    HW274933   2.113   6.013   6.021
24346SOL     OW74934  14.066   3.554   0.729
24346SOL    HW174935  14.144   3.514   0.768
24346SOL    HW274936  13.999   3.486   0.732
24347SOL     OW74937  12.236   2.870  12.856
24347SOL    HW174938  12.233   2.827  12.942
24347SOL    HW274939  12.194   2.808  12.797
24348SOL     OW74940   6.220   7.037   1.513
24348SOL    HW174941   6.133   7.023   1.477
24348SOL    HW274942   6.237   6.958   1.566
24349SOL     OW74943   7.197   6.708   9.953
24349SOL    HW174944   7.193   6.635  10.015
24349SOL    HW274945   7.196   6.786  10.008
24350SOL     OW74946   4.624   1.930   1.619
24350SOL    HW174947   4.682   1.861   1.586
24350SOL    HW274948   4.648   2.007   1.568
24351SOL     OW74949  14.734   9.781  12.652
24351SOL    HW174950  14.733   9.694  12.693
24351SOL    HW274951  14.642   9.798  12.630
24352SOL     OW74952  11.563   9.820  11.966
24352SOL    HW174953  11.509   9.741  11.958
24352SOL    HW274954  11.585   9.825  12.059
24353SOL     OW74955  12.967  11.555   0.089
24353SOL    HW174956  13.021  11.599   0.155
24353SOL    HW274957  13.028  11.497   0.043
24354SOL     OW74958   4.457  10.467   7.037
24354SOL    HW174959   4.456  10.437   7.128
24354SOL    HW274960   4.427  10.390   6.987
24355SOL     OW74961   6.055   7.930   4.198
24355SOL    HW174962   6.089   7.855   4.248
24355SOL    HW274963   5.971   7.899   4.164
24356SOL     OW74964   5.838   6.149   9.371
24356SOL    HW174965   5.763   6.202   9.399
24356SOL    HW274966   5.873   6.196   9.295
24357SOL     OW74967   1.437  10.367  11.139
24357SOL    HW174968   1.345  10.393  11.144
24357SOL    HW274969   1.440  10.280  11.178
24358SOL     OW74970   6.084   4.496   3.899
24358SOL    HW174971   6.085   4.508   3.993
24358SOL    HW274972   6.071   4.401   3.887
24359SOL     OW74973   0.976   3.906   4.407
24359SOL    HW174974   0.950   3.818   4.382
24359SOL    HW274975   1.072   3.904   4.409
24360SOL     OW74976  12.818  11.018   5.053
24360SOL    HW174977  12.842  11.103   5.090
24360SOL    HW274978  12.734  10.997   5.094
24361SOL     OW74979   5.277   8.780   4.285
24361SOL    HW174980   5.187   8.799   4.258
24361SOL    HW274981   5.276   8.687   4.308
24362SOL     OW74982   8.859  10.090   8.695
24362SOL    HW174983   8.933  10.137   8.733
24362SOL    HW274984   8.789  10.156   8.690
24363SOL     OW74985  13.667  10.000   2.458
24363SOL    HW174986  13.708   9.920   2.489
24363SOL    HW274987  13.662   9.990   2.363
24364SOL     OW74988   8.653   3.449   8.722
24364SOL    HW174989   8.727   3.421   8.776
24364SOL    HW274990   8.623   3.530   8.762
24365SOL     OW74991   4.030   8.731   1.639
24365SOL    HW174992   3.987   8.780   1.708
24365SOL    HW274993   3.964   8.668   1.609
24366SOL     OW74994  12.409   5.338   2.087
24366SOL    HW174995  12.460   5.412   2.118
24366SOL    HW274996  12.388   5.288   2.166
24367SOL     OW74997   5.630   7.677  14.679
24367SOL    HW174998   5.600   7.595  14.640
24367SOL    HW274999   5.582   7.746  14.633
24368SOL     OW75000   0.505   8.881   7.298
24368SOL    HW175001   0.516   8.972   7.325
24368SOL    HW275002   0.589   8.839   7.317
24369SOL     OW75003   5.057  10.472   1.684
24369SOL    HW175004   5.035  10.430   1.767
24369SOL    HW275005   5.124  10.537   1.707
24370SOL     OW75006   9.869   9.321   4.886
24370SOL    HW175007   9.958   9.340   4.915
24370SOL    HW275008   9.847   9.393   4.827
24371SOL     OW75009   8.090   4.716   7.496
24371SOL    HW175010   8.102   4.757   7.411
24371SOL    HW275011   8.168   4.661   7.507
24372SOL     OW75012   2.716   5.637  10.189
24372SOL    HW175013   2.628   5.646  10.226
24372SOL    HW275014   2.749   5.726  10.185
24373SOL     OW75015   2.042   7.659   6.491
24373SOL    HW175016   2.057   7.741   6.539
24373SOL    HW275017   2.122   7.646   6.441
24374SOL     OW75018  14.448  10.252   1.507
24374SOL    HW175019  14.458  10.332   1.559
24374SOL    HW275020  14.532  10.242   1.462
24375SOL     OW75021   3.910   1.443   9.471
24375SOL    HW175022   3.922   1.355   9.435
24375SOL    HW275023   3.928   1.501   9.397
24376SOL     OW75024   0.303   2.195   2.380
24376SOL    HW175025   0.226   2.144   2.353
24376SOL    HW275026   0.272   2.285   2.383
24377SOL     OW75027  12.481   9.858  10.883
24377SOL    HW175028  12.444   9.946  10.884
24377SOL    HW275029  12.518   9.846  10.970
24378SOL     OW75030  12.286   0.951  13.963
24378SOL    HW175031  12.202   0.928  13.923
24378SOL    HW275032  12.322   1.020  13.906
24379SOL     OW75033   2.683   4.505   9.985
24379SOL    HW175034   2.705   4.524  10.077
24379SOL    HW275035   2.605   4.557   9.968
24380SOL     OW75036   3.076   6.473  11.726
24380SOL    HW175037   3.161   6.438  11.697
24380SOL    HW275038   3.054   6.539  11.661
24381SOL     OW75039   3.136   1.292  12.783
24381SOL    HW175040   3.127   1.282  12.878
24381SOL    HW275041   3.096   1.213  12.747
24382SOL     OW75042   5.437   2.773   3.498
24382SOL    HW175043   5.513   2.716   3.513
24382SOL    HW275044   5.474   2.853   3.460
24383SOL     OW75045   4.874   3.254   5.180
24383SOL    HW175046   4.916   3.290   5.102
24383SOL    HW275047   4.780   3.263   5.163
24384SOL     OW75048   6.495   8.612  13.312
24384SOL    HW175049   6.407   8.642  13.290
24384SOL    HW275050   6.549   8.691  13.311
24385SOL     OW75051  11.770   1.548   9.915
24385SOL    HW175052  11.846   1.492   9.930
24385SOL    HW275053  11.804   1.620   9.863
24386SOL     OW75054  12.538   6.271   3.161
24386SOL    HW175055  12.455   6.292   3.119
24386SOL    HW275056  12.541   6.175   3.161
24387SOL     OW75057   9.354   7.969  13.820
24387SOL    HW175058   9.370   8.052  13.865
24387SOL    HW275059   9.399   7.904  13.873
24388SOL     OW75060  10.875   3.561   2.538
24388SOL    HW175061  10.788   3.526   2.555
24388SOL    HW275062  10.881   3.638   2.594
24389SOL     OW75063   9.634  13.840   1.128
24389SOL    HW175064   9.573  13.899   1.171
24389SOL    HW275065   9.689  13.807   1.199
24390SOL     OW75066   6.722  12.219   5.543
24390SOL    HW175067   6.644  12.208   5.598
24390SOL    HW275068   6.701  12.174   5.461
24391SOL     OW75069  11.589   7.021  14.379
24391SOL    HW175070  11.627   7.109  14.380
24391SOL    HW275071  11.562   7.007  14.288
24392SOL     OW75072   8.798   7.951   6.826
24392SOL    HW175073   8.765   7.886   6.887
24392SOL    HW275074   8.720   7.982   6.779
24393SOL     OW75075   8.227   8.398   2.217
24393SOL    HW175076   8.177   8.436   2.144
24393SOL    HW275077   8.308   8.367   2.177
24394SOL     OW75078   2.389   5.436   0.529
24394SOL    HW175079   2.484   5.431   0.544
24394SOL    HW275080   2.358   5.346   0.540
24395SOL     OW75081   9.567  14.767   7.581
24395SOL    HW175082   9.514  14.689   7.597
24395SOL    HW275083   9.581  14.806   7.668
24396SOL     OW75084   0.763   7.017   7.992
24396SOL    HW175085   0.767   7.029   7.897
24396SOL    HW275086   0.753   6.923   8.004
24397SOL     OW75087  12.012   0.966   0.314
24397SOL    HW175088  12.076   0.994   0.249
24397SOL    HW275089  11.934   1.017   0.295
24398SOL     OW75090   3.611   2.067   9.498
24398SOL    HW175091   3.596   2.007   9.425
24398SOL    HW275092   3.655   2.013   9.564
24399SOL     OW75093  13.559   8.159   8.483
24399SOL    HW175094  13.527   8.237   8.437
24399SOL    HW275095  13.591   8.102   8.413
24400SOL     OW75096   7.653   9.300   3.995
24400SOL    HW175097   7.615   9.310   4.082
24400SOL    HW275098   7.747   9.294   4.010
24401SOL     OW75099   8.148  14.629  11.852
24401SOL    HW175100   8.133  14.548  11.804
24401SOL    HW275101   8.066  14.644  11.899
24402SOL     OW75102  13.218   4.879   5.818
24402SOL    HW175103  13.270   4.800   5.807
24402SOL    HW275104  13.260   4.944   5.761
24403SOL     OW75105   3.253  12.390   5.634
24403SOL    HW175106   3.199  12.311   5.636
24403SOL    HW275107   3.328  12.369   5.689
24404SOL     OW75108   5.810   2.638   3.187
24404SOL    HW175109   5.841   2.703   3.250
24404SOL    HW275110   5.755   2.579   3.239
24405SOL     OW75111   8.331   5.114   1.322
24405SOL    HW175112   8.396   5.182   1.342
24405SOL    HW275113   8.255   5.162   1.289
24406SOL     OW75114   5.021   0.549   2.707
24406SOL    HW175115   4.938   0.595   2.720
24406SOL    HW275116   4.999   0.473   2.653
24407SOL     OW75117   9.467   5.710  10.180
24407SOL    HW175118   9.458   5.742  10.091
24407SOL    HW275119   9.429   5.621  10.177
24408SOL     OW75120   5.431   7.943  13.365
24408SOL    HW175121   5.415   8.029  13.328
24408SOL    HW275122   5.395   7.948  13.454
24409SOL     OW75123   3.454   7.127  13.362
24409SOL    HW175124   3.403   7.206  13.343
24409SOL    HW275125   3.542   7.159  13.380
24410SOL     OW75126   6.646   2.803   8.744
24410SOL    HW175127   6.570   2.852   8.711
24410SOL    HW275128   6.645   2.722   8.693
24411SOL     OW75129   9.778  10.990   3.085
24411SOL    HW175130   9.724  10.912   3.102
24411SOL    HW275131   9.848  10.958   3.029
24412SOL     OW75132   6.804   1.770   5.261
24412SOL    HW175133   6.718   1.775   5.219
24412SOL    HW275134   6.861   1.825   5.208
24413SOL     OW75135   1.181  10.291   7.820
24413SOL    HW175136   1.227  10.357   7.873
24413SOL    HW275137   1.248  10.226   7.799
24414SOL     OW75138  10.286  12.310  13.849
24414SOL    HW175139  10.215  12.254  13.880
24414SOL    HW275140  10.250  12.352  13.771
24415SOL     OW75141   2.183   0.409  12.844
24415SOL    HW175142   2.237   0.479  12.882
24415SOL    HW275143   2.232   0.329  12.862
24416SOL     OW75144   9.277   5.054  14.726
24416SOL    HW175145   9.337   5.111  14.679
24416SOL    HW275146   9.331   4.982  14.758
24417SOL     OW75147   4.206  13.149   7.588
24417SOL    HW175148   4.172  13.059   7.586
24417SOL    HW275149   4.143  13.198   7.640
24418SOL     OW75150   0.710  14.733   0.213
24418SOL    HW175151   0.654  14.782   0.153
24418SOL    HW275152   0.649  14.677   0.261
24419SOL     OW75153   9.241   3.623   6.474
24419SOL    HW175154   9.198   3.663   6.399
24419SOL    HW275155   9.320   3.675   6.487
24420SOL     OW75156   7.901   7.685  11.061
24420SOL    HW175157   7.806   7.688  11.072
24420SOL    HW275158   7.917   7.601  11.016
24421SOL     OW75159   0.744  14.554  13.252
24421SOL    HW175160   0.792  14.549  13.169
24421SOL    HW275161   0.790  14.622  13.302
24422SOL     OW75162   3.729   3.284   3.126
24422SOL    HW175163   3.679   3.276   3.045
24422SOL    HW275164   3.821   3.286   3.097
24423SOL     OW75165   3.943   8.332   6.073
24423SOL    HW175166   3.986   8.338   6.159
24423SOL    HW275167   3.938   8.238   6.056
24424SOL     OW75168   9.867  14.092   7.331
24424SOL    HW175169   9.790  14.141   7.359
24424SOL    HW275170   9.938  14.125   7.387
24425SOL     OW75171  13.253   2.279   0.883
24425SOL    HW175172  13.343   2.274   0.916
24425SOL    HW275173  13.257   2.343   0.812
24426SOL     OW75174  11.130   8.021   2.228
24426SOL    HW175175  11.221   7.993   2.227
24426SOL    HW275176  11.093   7.987   2.147
24427SOL     OW75177   6.793   0.365   7.125
24427SOL    HW175178   6.736   0.409   7.061
24427SOL    HW275179   6.825   0.436   7.181
24428SOL     OW75180   1.956   9.472   6.922
24428SOL    HW175181   1.907   9.471   6.839
24428SOL    HW275182   1.897   9.431   6.985
24429SOL     OW75183   0.698   0.253  12.357
24429SOL    HW175184   0.755   0.328  12.339
24429SOL    HW275185   0.655   0.274  12.439
24430SOL     OW75186   6.718  11.769   9.539
24430SOL    HW175187   6.716  11.686   9.491
24430SOL    HW275188   6.663  11.754   9.616
24431SOL     OW75189   8.537   5.218  11.471
24431SOL    HW175190   8.531   5.287  11.405
24431SOL    HW275191   8.448   5.211  11.506
24432SOL     OW75192  11.154   4.324   0.834
24432SOL    HW175193  11.193   4.411   0.820
24432SOL    HW275194  11.069   4.329   0.789
24433SOL     OW75195   5.682  12.903   9.858
24433SOL    HW175196   5.655  12.820   9.897
24433SOL    HW275197   5.679  12.888   9.764
24434SOL     OW75198   6.755   4.454  11.841
24434SOL    HW175199   6.842   4.465  11.801
24434SOL    HW275200   6.769   4.471  11.934
24435SOL     OW75201   4.958  12.344   5.689
24435SOL    HW175202   5.028  12.299   5.641
24435SOL    HW275203   4.942  12.424   5.639
24436SOL     OW75204   1.954   9.313   0.886
24436SOL    HW175205   1.992   9.229   0.910
24436SOL    HW275206   1.859   9.298   0.887
24437SOL     OW75207  12.411  14.475   1.521
24437SOL    HW175208  12.405  14.438   1.433
24437SOL    HW275209  12.495  14.520   1.523
24438SOL     OW75210   6.417  12.761   2.626
24438SOL    HW175211   6.506  12.736   2.653
24438SOL    HW275212   6.418  12.752   2.530
24439SOL     OW75213   2.353   4.955  11.986
24439SOL    HW175214   2.344   4.906  11.904
24439SOL    HW275215   2.379   5.043  11.958
24440SOL     OW75216   2.734   1.861   7.734
24440SOL    HW175217   2.717   1.856   7.828
24440SOL    HW275218   2.685   1.938   7.706
24441SOL     OW75219  11.064  12.724   6.152
24441SOL    HW175220  11.101  12.796   6.204
24441SOL    HW275221  10.972  12.747   6.140
24442SOL     OW75222   5.890  12.533   4.853
24442SOL    HW175223   5.875  12.587   4.931
24442SOL    HW275224   5.803  12.524   4.813
24443SOL     OW75225  12.893  13.322   4.350
24443SOL    HW175226  12.902  13.412   4.318
24443SOL    HW275227  12.981  13.287   4.347
24444SOL     OW75228   2.933   3.312   1.599
24444SOL    HW175229   2.948   3.234   1.653
24444SOL    HW275230   2.894   3.376   1.660
24445SOL     OW75231   4.634   5.051  12.432
24445SOL    HW175232   4.729   5.052  12.444
24445SOL    HW275233   4.620   4.995  12.356
24446SOL     OW75234   0.437   9.276   6.186
24446SOL    HW175235   0.401   9.274   6.097
24446SOL    HW275236   0.488   9.195   6.192
24447SOL     OW75237   0.436   2.239   4.761
24447SOL    HW175238   0.367   2.175   4.781
24447SOL    HW275239   0.422   2.260   4.668
24448SOL     OW75240  13.695  10.484  13.319
24448SOL    HW175241  13.705  10.493  13.414
24448SOL    HW275242  13.612  10.528  13.300
24449SOL     OW75243  12.476   9.589  12.870
24449SOL    HW175244  12.563   9.609  12.905
24449SOL    HW275245  12.426   9.557  12.945
24450SOL     OW75246   4.808  13.264   3.534
24450SOL    HW175247   4.718  13.236   3.520
24450SOL    HW275248   4.805  13.317   3.613
24451SOL     OW75249   7.102   4.009  10.063
24451SOL    HW175250   7.143   3.957  10.131
24451SOL    HW275251   7.015   3.970  10.051
24452SOL     OW75252  14.737  13.563   9.464
24452SOL    HW175253  14.690  13.482   9.485
24452SOL    HW275254  14.803  13.571   9.533
24453SOL     OW75255  12.139   5.690   2.451
24453SOL    HW175256  12.051   5.724   2.464
24453SOL    HW275257  12.167   5.663   2.539
24454SOL     OW75258  13.276   4.674   1.527
24454SOL    HW175259  13.289   4.582   1.549
24454SOL    HW275260  13.294   4.722   1.608
24455SOL     OW75261  10.703   7.926   9.505
24455SOL    HW175262  10.681   7.934   9.597
24455SOL    HW275263  10.778   7.983   9.492
24456SOL     OW75264  10.072   3.149   6.512
24456SOL    HW175265   9.994   3.178   6.559
24456SOL    HW275266  10.067   3.054   6.513
24457SOL     OW75267   8.146   2.251   1.471
24457SOL    HW175268   8.220   2.204   1.510
24457SOL    HW275269   8.177   2.276   1.384
24458SOL     OW75270   4.528   7.308   9.873
24458SOL    HW175271   4.459   7.282   9.934
24458SOL    HW275272   4.481   7.344   9.797
24459SOL     OW75273   2.371   3.427   0.602
24459SOL    HW175274   2.323   3.510   0.605
24459SOL    HW275275   2.303   3.360   0.599
24460SOL     OW75276   4.748   1.752   1.254
24460SOL    HW175277   4.656   1.732   1.238
24460SOL    HW275278   4.784   1.772   1.167
24461SOL     OW75279   3.007   0.842   9.731
24461SOL    HW175280   3.034   0.882   9.814
24461SOL    HW275281   2.959   0.912   9.685
24462SOL     OW75282   9.181  10.142   3.694
24462SOL    HW175283   9.188  10.192   3.612
24462SOL    HW275284   9.098  10.170   3.732
24463SOL     OW75285  11.535   9.030  12.617
24463SOL    HW175286  11.601   9.030  12.687
24463SOL    HW275287  11.582   9.062  12.540
24464SOL     OW75288   8.445   1.689   0.342
24464SOL    HW175289   8.466   1.731   0.425
24464SOL    HW275290   8.434   1.763   0.281
24465SOL     OW75291   2.825   9.156   6.092
24465SOL    HW175292   2.832   9.175   5.999
24465SOL    HW275293   2.801   9.063   6.095
24466SOL     OW75294   0.775   7.812   5.438
24466SOL    HW175295   0.805   7.894   5.398
24466SOL    HW275296   0.734   7.840   5.521
24467SOL     OW75297   7.219   0.974   8.095
24467SOL    HW175298   7.225   0.880   8.080
24467SOL    HW275299   7.267   0.989   8.176
24468SOL     OW75300  13.245  14.640   6.245
24468SOL    HW175301  13.242  14.735   6.250
24468SOL    HW275302  13.226  14.611   6.334
24469SOL     OW75303   3.658  13.083   8.107
24469SOL    HW175304   3.745  13.110   8.137
24469SOL    HW275305   3.600  13.104   8.180
24470SOL     OW75306   2.861   4.177   1.781
24470SOL    HW175307   2.844   4.266   1.811
24470SOL    HW275308   2.913   4.189   1.701
24471SOL     OW75309   7.032  13.158  13.278
24471SOL    HW175310   6.983  13.137  13.199
24471SOL    HW275311   7.124  13.150  13.251
24472SOL     OW75312   7.026   3.311  10.750
24472SOL    HW175313   7.045   3.335  10.841
24472SOL    HW275314   7.092   3.246  10.728
24473SOL     OW75315  11.354   6.728  13.063
24473SOL    HW175316  11.288   6.713  12.995
24473SOL    HW275317  11.387   6.816  13.044
24474SOL     OW75318  13.587  12.801   1.263
24474SOL    HW175319  13.606  12.795   1.169
24474SOL    HW275320  13.563  12.712   1.288
24475SOL     OW75321   8.589  10.043   3.838
24475SOL    HW175322   8.644  10.120   3.834
24475SOL    HW275323   8.500  10.077   3.848
24476SOL     OW75324   0.981   9.120  13.978
24476SOL    HW175325   0.906   9.112  14.037
24476SOL    HW275326   1.049   9.067  14.021
24477SOL     OW75327   4.540   1.779  11.915
24477SOL    HW175328   4.467   1.817  11.867
24477SOL    HW275329   4.608   1.766  11.848
24478SOL     OW75330  11.212   1.713   3.401
24478SOL    HW175331  11.166   1.790   3.435
24478SOL    HW275332  11.304   1.733   3.412
24479SOL     OW75333   1.550   6.279   9.692
24479SOL    HW175334   1.625   6.332   9.720
24479SOL    HW275335   1.518   6.323   9.613
24480SOL     OW75336   8.041   9.551   4.315
24480SOL    HW175337   8.030   9.461   4.345
24480SOL    HW275338   8.017   9.549   4.222
24481SOL     OW75339  10.101  10.664   8.344
24481SOL    HW175340  10.158  10.716   8.287
24481SOL    HW275341  10.086  10.721   8.420
24482SOL     OW75342  12.229   8.463   6.687
24482SOL    HW175343  12.308   8.435   6.641
24482SOL    HW275344  12.181   8.515   6.622
24483SOL     OW75345   8.814   3.059   7.700
24483SOL    HW175346   8.856   3.139   7.732
24483SOL    HW275347   8.723   3.067   7.728
24484SOL     OW75348   1.690   2.087  11.947
24484SOL    HW175349   1.660   2.090  11.857
24484SOL    HW275350   1.778   2.050  11.942
24485SOL     OW75351  14.716   6.072  11.968
24485SOL    HW175352  14.736   6.157  12.007
24485SOL    HW275353  14.761   6.009  12.024
24486SOL     OW75354   6.329  14.491   9.374
24486SOL    HW175355   6.395  14.553   9.407
24486SOL    HW275356   6.372  14.406   9.379
24487SOL     OW75357   7.111  13.156  12.695
24487SOL    HW175358   7.089  13.249  12.690
24487SOL    HW275359   7.062  13.124  12.771
24488SOL     OW75360   1.559   9.297   6.424
24488SOL    HW175361   1.548   9.363   6.355
24488SOL    HW275362   1.525   9.339   6.502
24489SOL     OW75363  13.622  12.737   5.387
24489SOL    HW175364  13.696  12.794   5.411
24489SOL    HW275365  13.637  12.717   5.294
24490SOL     OW75366  13.808  11.619   7.377
24490SOL    HW175367  13.738  11.592   7.317
24490SOL    HW275368  13.850  11.694   7.333
24491SOL     OW75369   7.065   9.875  10.173
24491SOL    HW175370   7.027   9.901  10.257
24491SOL    HW275371   7.017   9.796  10.148
24492SOL     OW75372   4.075  10.080   4.474
24492SOL    HW175373   4.020  10.044   4.543
24492SOL    HW275374   4.161  10.092   4.516
24493SOL     OW75375  10.088   9.426   5.267
24493SOL    HW175376   9.992   9.428   5.262
24493SOL    HW275377  10.116   9.429   5.176
24494SOL     OW75378   0.505  10.251   2.122
24494SOL    HW175379   0.504  10.223   2.030
24494SOL    HW275380   0.564  10.189   2.165
24495SOL     OW75381  12.845   9.636  10.959
24495SOL    HW175382  12.784   9.601  10.894
24495SOL    HW275383  12.818   9.596  11.042
24496SOL     OW75384   1.215  13.491  11.490
24496SOL    HW175385   1.253  13.444  11.415
24496SOL    HW275386   1.154  13.554  11.450
24497SOL     OW75387   9.840   5.948   7.166
24497SOL    HW175388   9.912   5.961   7.105
24497SOL    HW275389   9.882   5.921   7.248
24498SOL     OW75390   4.224  13.029   4.647
24498SOL    HW175391   4.215  12.962   4.580
24498SOL    HW275392   4.147  13.018   4.703
24499SOL     OW75393  13.761   6.341  13.919
24499SOL    HW175394  13.687   6.356  13.860
24499SOL    HW275395  13.825   6.408  13.895
24500SOL     OW75396  12.114   4.786   4.008
24500SOL    HW175397  12.024   4.755   4.016
24500SOL    HW275398  12.165   4.725   4.061
24501SOL     OW75399   3.185  13.050  11.766
24501SOL    HW175400   3.160  13.077  11.678
24501SOL    HW275401   3.102  13.044  11.814
24502SOL     OW75402   5.439  14.562  12.361
24502SOL    HW175403   5.406  14.511  12.287
24502SOL    HW275404   5.489  14.500  12.413
24503SOL     OW75405   7.271  14.736  10.102
24503SOL    HW175406   7.226  14.689  10.172
24503SOL    HW275407   7.360  14.700  10.103
24504SOL     OW75408   5.227   4.406  10.138
24504SOL    HW175409   5.179   4.435  10.060
24504SOL    HW275410   5.164   4.352  10.186
24505SOL     OW75411   0.473   5.945  10.230
24505SOL    HW175412   0.499   5.917  10.142
24505SOL    HW275413   0.390   5.899  10.246
24506SOL     OW75414   6.138   3.480  14.742
24506SOL    HW175415   6.057   3.430  14.747
24506SOL    HW275416   6.113   3.563  14.701
24507SOL     OW75417  14.492   5.113  12.403
24507SOL    HW175418  14.543   5.037  12.432
24507SOL    HW275419  14.550   5.188  12.418
24508SOL     OW75420   7.187   2.333   9.313
24508SOL    HW175421   7.146   2.417   9.294
24508SOL    HW275422   7.143   2.302   9.392
24509SOL     OW75423   4.284   5.412   7.738
24509SOL    HW175424   4.251   5.330   7.774
24509SOL    HW275425   4.363   5.430   7.788
24510SOL     OW75426   6.642  12.795  11.384
24510SOL    HW175427   6.604  12.869  11.431
24510SOL    HW275428   6.707  12.758  11.445
24511SOL     OW75429  12.670  11.620   5.446
24511SOL    HW175430  12.706  11.699   5.489
24511SOL    HW275431  12.638  11.566   5.519
24512SOL     OW75432   8.484   4.704   0.646
24512SOL    HW175433   8.504   4.776   0.586
24512SOL    HW275434   8.451   4.634   0.590
24513SOL     OW75435  12.183   3.500   1.518
24513SOL    HW175436  12.267   3.544   1.507
24513SOL    HW275437  12.202   3.423   1.572
24514SOL     OW75438   3.723  10.000   3.053
24514SOL    HW175439   3.695  10.069   3.114
24514SOL    HW275440   3.643   9.974   3.008
24515SOL     OW75441   2.143  10.888   0.294
24515SOL    HW175442   2.089  10.858   0.221
24515SOL    HW275443   2.231  10.894   0.258
24516SOL     OW75444   7.898  11.723   2.458
24516SOL    HW175445   7.886  11.631   2.482
24516SOL    HW275446   7.885  11.726   2.363
24517SOL     OW75447  11.029   5.574   4.642
24517SOL    HW175448  10.944   5.532   4.637
24517SOL    HW275449  11.092   5.505   4.619
24518SOL     OW75450   7.302   5.259   0.181
24518SOL    HW175451   7.391   5.252   0.215
24518SOL    HW275452   7.288   5.178   0.133
24519SOL     OW75453   3.431  10.236   4.862
24519SOL    HW175454   3.438  10.290   4.783
24519SOL    HW275455   3.495  10.166   4.849
24520SOL     OW75456   5.330   1.223  10.620
24520SOL    HW175457   5.265   1.177  10.673
24520SOL    HW275458   5.413   1.207  10.665
24521SOL     OW75459  13.395   2.873   1.845
24521SOL    HW175460  13.408   2.843   1.755
24521SOL    HW275461  13.396   2.794   1.897
24522SOL     OW75462  10.372  12.239   1.173
24522SOL    HW175463  10.374  12.200   1.260
24522SOL    HW275464  10.424  12.319   1.181
24523SOL     OW75465   9.557   3.292   6.492
24523SOL    HW175466   9.569   3.363   6.555
24523SOL    HW275467   9.633   3.299   6.433
24524SOL     OW75468   0.740  14.835  13.557
24524SOL    HW175469   0.646  14.846  13.547
24524SOL    HW275470   0.764   0.023  13.629
24525SOL     OW75471   6.306   2.192  11.941
24525SOL    HW175472   6.245   2.265  11.930
24525SOL    HW275473   6.393   2.232  11.934
24526SOL     OW75474  13.106  14.222   5.404
24526SOL    HW175475  13.187  14.273   5.407
24526SOL    HW275476  13.053  14.266   5.337
24527SOL     OW75477   0.693   9.340  12.919
24527SOL    HW175478   0.768   9.303  12.872
24527SOL    HW275479   0.679   9.279  12.992
24528SOL     OW75480  10.214   4.432  10.646
24528SOL    HW175481  10.306   4.438  10.669
24528SOL    HW275482  10.195   4.513  10.599
24529SOL     OW75483  13.336  10.423   7.844
24529SOL    HW175484  13.394  10.358   7.806
24529SOL    HW275485  13.327  10.490   7.777
24530SOL     OW75486   2.871   9.280  10.003
24530SOL    HW175487   2.898   9.210  10.063
24530SOL    HW275488   2.936   9.277   9.932
24531SOL     OW75489   5.740  12.166  12.133
24531SOL    HW175490   5.667  12.181  12.072
24531SOL    HW275491   5.734  12.073  12.154
24532SOL     OW75492   1.375  12.754  10.518
24532SOL    HW175493   1.381  12.780  10.610
24532SOL    HW275494   1.308  12.686  10.516
24533SOL     OW75495   7.466  13.080   6.986
24533SOL    HW175496   7.420  13.021   6.926
24533SOL    HW275497   7.404  13.094   7.058
24534SOL     OW75498   9.566   0.936   2.396
24534SOL    HW175499   9.552   0.846   2.365
24534SOL    HW275500   9.478   0.974   2.398
24535SOL     OW75501   6.138   7.022   7.922
24535SOL    HW175502   6.171   7.093   7.867
24535SOL    HW275503   6.079   7.065   7.985
24536SOL     OW75504   4.026   8.514   4.703
24536SOL    HW175505   3.951   8.557   4.743
24536SOL    HW275506   4.028   8.427   4.743
24537SOL     OW75507   2.435   9.857  12.720
24537SOL    HW175508   2.403   9.772  12.689
24537SOL    HW275509   2.432   9.850  12.815
24538SOL     OW75510   5.028   6.473  13.908
24538SOL    HW175511   5.052   6.388  13.945
24538SOL    HW275512   5.108   6.504  13.866
24539SOL     OW75513  13.549   0.149  10.585
24539SOL    HW175514  13.528   0.071  10.534
24539SOL    HW275515  13.587   0.210  10.521
24540SOL     OW75516   1.330  10.313   5.641
24540SOL    HW175517   1.333  10.394   5.589
24540SOL    HW275518   1.255  10.266   5.605
24541SOL     OW75519  12.117  14.440   6.572
24541SOL    HW175520  12.054  14.506   6.544
24541SOL    HW275521  12.201  14.473   6.543
24542SOL     OW75522  11.496  12.124   7.225
24542SOL    HW175523  11.419  12.067   7.228
24542SOL    HW275524  11.544  12.095   7.148
24543SOL     OW75525   7.001   4.793   3.987
24543SOL    HW175526   7.071   4.747   3.941
24543SOL    HW275527   6.920   4.762   3.947
24544SOL     OW75528   1.138   3.327   9.756
24544SOL    HW175529   1.112   3.377   9.833
24544SOL    HW275530   1.169   3.243   9.791
24545SOL     OW75531  10.999   4.378   9.207
24545SOL    HW175532  10.983   4.396   9.115
24545SOL    HW275533  10.917   4.340   9.239
24546SOL     OW75534  11.899   4.411   6.307
24546SOL    HW175535  11.932   4.337   6.358
24546SOL    HW275536  11.923   4.488   6.359
24547SOL     OW75537   2.315  12.195  14.498
24547SOL    HW175538   2.296  12.162  14.586
24547SOL    HW275539   2.243  12.162  14.444
24548SOL     OW75540  10.340   4.160   2.541
24548SOL    HW175541  10.245   4.147   2.549
24548SOL    HW275542  10.349   4.221   2.468
24549SOL     OW75543   4.078   3.366   0.185
24549SOL    HW175544   4.078   3.333   0.275
24549SOL    HW275545   4.007   3.318   0.142
24550SOL     OW75546   0.161  11.133  10.028
24550SOL    HW175547   0.124  11.146  10.115
24550SOL    HW275548   0.255  11.150  10.039
24551SOL     OW75549   1.152   6.257  13.322
24551SOL    HW175550   1.246   6.275  13.321
24551SOL    HW275551   1.123   6.280  13.233
24552SOL     OW75552  13.053  14.324   4.853
24552SOL    HW175553  12.970  14.372   4.857
24552SOL    HW275554  13.048  14.275   4.771
24553SOL     OW75555   4.733   1.657  11.472
24553SOL    HW175556   4.739   1.571  11.430
24553SOL    HW275557   4.811   1.703  11.442
24554SOL     OW75558   4.908  10.923   6.482
24554SOL    HW175559   4.865  10.837   6.482
24554SOL    HW275560   5.000  10.905   6.497
24555SOL     OW75561  10.357   2.311   2.972
24555SOL    HW175562  10.282   2.304   2.913
24555SOL    HW275563  10.417   2.242   2.944
24556SOL     OW75564  10.623  12.936  10.301
24556SOL    HW175565  10.688  13.003  10.282
24556SOL    HW275566  10.666  12.854  10.277
24557SOL     OW75567   5.926   6.333  11.397
24557SOL    HW175568   5.957   6.256  11.350
24557SOL    HW275569   5.930   6.309  11.489
24558SOL     OW75570   9.971  11.269   7.430
24558SOL    HW175571  10.040  11.221   7.383
24558SOL    HW275572  10.019  11.327   7.490
24559SOL     OW75573   7.852   4.197   8.465
24559SOL    HW175574   7.892   4.184   8.551
24559SOL    HW275575   7.762   4.222   8.485
24560SOL     OW75576  12.959   0.177  13.421
24560SOL    HW175577  12.866   0.156  13.417
24560SOL    HW275578  12.985   0.190  13.330
24561SOL     OW75579   7.189   7.257   9.694
24561SOL    HW175580   7.163   7.169   9.721
24561SOL    HW275581   7.282   7.249   9.673
24562SOL     OW75582  13.287  14.501  13.332
24562SOL    HW175583  13.224  14.534  13.267
24562SOL    HW275584  13.287  14.568  13.400
24563SOL     OW75585   2.547   5.236   6.167
24563SOL    HW175586   2.583   5.320   6.194
24563SOL    HW275587   2.453   5.244   6.183
24564SOL     OW75588   1.295   6.951   1.697
24564SOL    HW175589   1.261   6.944   1.786
24564SOL    HW275590   1.218   6.947   1.641
24565SOL     OW75591   9.903   7.045  12.097
24565SOL    HW175592   9.874   7.096  12.173
24565SOL    HW275593   9.896   7.105  12.023
24566SOL     OW75594   6.898  10.828  12.047
24566SOL    HW175595   6.957  10.875  11.989
24566SOL    HW275596   6.812  10.867  12.031
24567SOL     OW75597  12.077   9.164  11.968
24567SOL    HW175598  12.024   9.200  11.898
24567SOL    HW275599  12.166   9.193  11.948
24568SOL     OW75600   3.254   1.490   9.276
24568SOL    HW175601   3.199   1.419   9.241
24568SOL    HW275602   3.269   1.547   9.201
24569SOL     OW75603   2.410   1.042   7.864
24569SOL    HW175604   2.326   1.088   7.862
24569SOL    HW275605   2.401   0.979   7.936
24570SOL     OW75606   0.324  14.410   2.832
24570SOL    HW175607   0.308  14.315   2.826
24570SOL    HW275608   0.320  14.429   2.925
24571SOL     OW75609   6.444   8.538  14.664
24571SOL    HW175610   6.479   8.460  14.621
24571SOL    HW275611   6.502   8.609  14.635
24572SOL     OW75612   4.718   0.678  11.484
24572SOL    HW175613   4.680   0.760  11.518
24572SOL    HW275614   4.800   0.668  11.532
24573SOL     OW75615   5.082   7.976   3.542
24573SOL    HW175616   5.174   7.985   3.567
24573SOL    HW275617   5.073   8.032   3.464
24574SOL     OW75618   9.219   9.825  12.023
24574SOL    HW175619   9.202   9.913  11.991
24574SOL    HW275620   9.230   9.771  11.944
24575SOL     OW75621  12.869   4.363   7.243
24575SOL    HW175622  12.931   4.347   7.172
24575SOL    HW275623  12.862   4.458   7.248
24576SOL     OW75624  14.660   7.875   9.689
24576SOL    HW175625  14.636   7.961   9.655
24576SOL    HW275626  14.581   7.822   9.678
24577SOL     OW75627   0.865   6.855  12.947
24577SOL    HW175628   0.890   6.947  12.936
24577SOL    HW275629   0.928   6.820  13.010
24578SOL     OW75630  10.834   6.536  14.410
24578SOL    HW175631  10.904   6.574  14.462
24578SOL    HW275632  10.813   6.454  14.454
24579SOL     OW75633   6.739  10.603   0.361
24579SOL    HW175634   6.824  10.577   0.395
24579SOL    HW275635   6.727  10.550   0.282
24580SOL     OW75636   3.457  11.898   5.641
24580SOL    HW175637   3.516  11.836   5.597
24580SOL    HW275638   3.386  11.843   5.675
24581SOL     OW75639  11.787   3.261   5.471
24581SOL    HW175640  11.781   3.255   5.566
24581SOL    HW275641  11.866   3.213   5.448
24582SOL     OW75642   8.764  13.658   3.070
24582SOL    HW175643   8.682  13.633   3.114
24582SOL    HW275644   8.814  13.576   3.065
24583SOL     OW75645  11.250   8.001   9.306
24583SOL    HW175646  11.263   8.081   9.356
24583SOL    HW275647  11.257   7.931   9.371
24584SOL     OW75648  13.437   7.094  12.680
24584SOL    HW175649  13.362   7.121  12.626
24584SOL    HW275650  13.505   7.159  12.661
24585SOL     OW75651  12.517   5.989   3.089
24585SOL    HW175652  12.527   5.926   3.017
24585SOL    HW275653  12.586   5.966   3.151
24586SOL     OW75654   5.835   0.994   0.483
24586SOL    HW175655   5.884   0.934   0.540
24586SOL    HW275656   5.847   1.080   0.523
24587SOL     OW75657   7.274  12.165  10.869
24587SOL    HW175658   7.186  12.169  10.907
24587SOL    HW275659   7.331  12.195  10.940
24588SOL     OW75660   0.917   8.830  10.146
24588SOL    HW175661   0.888   8.796  10.062
24588SOL    HW275662   1.006   8.863  10.130
24589SOL     OW75663   2.664   8.557   1.182
24589SOL    HW175664   2.651   8.479   1.128
24589SOL    HW275665   2.638   8.629   1.125
24590SOL     OW75666   2.436  10.627  11.084
24590SOL    HW175667   2.523  10.601  11.054
24590SOL    HW275668   2.408  10.693  11.020
24591SOL     OW75669   4.050   3.294   4.450
24591SOL    HW175670   4.014   3.383   4.450
24591SOL    HW275671   4.038   3.263   4.360
24592SOL     OW75672   2.264   7.592   8.840
24592SOL    HW175673   2.332   7.603   8.774
24592SOL    HW275674   2.201   7.662   8.822
24593SOL     OW75675   5.456   8.768  10.695
24593SOL    HW175676   5.373   8.808  10.670
24593SOL    HW275677   5.509   8.840  10.727
24594SOL     OW75678   3.623   3.974  10.704
24594SOL    HW175679   3.669   3.897  10.671
24594SOL    HW275680   3.588   3.947  10.788
24595SOL     OW75681   6.983   7.255  13.252
24595SOL    HW175682   6.935   7.329  13.215
24595SOL    HW275683   6.920   7.182  13.248
24596SOL     OW75684   5.174   7.889   2.009
24596SOL    HW175685   5.165   7.859   2.099
24596SOL    HW275686   5.095   7.940   1.993
24597SOL     OW75687   7.289   5.755  14.016
24597SOL    HW175688   7.203   5.788  13.989
24597SOL    HW275689   7.327   5.825  14.068
24598SOL     OW75690  13.040  12.701   1.838
24598SOL    HW175691  13.055  12.607   1.828
24598SOL    HW275692  12.999  12.728   1.756
24599SOL     OW75693   2.656   8.584   8.853
24599SOL    HW175694   2.750   8.571   8.862
24599SOL    HW275695   2.617   8.507   8.895
24600SOL     OW75696   6.951  10.240   5.726
24600SOL    HW175697   6.918  10.279   5.806
24600SOL    HW275698   6.941  10.308   5.659
24601SOL     OW75699  10.526   2.982  10.492
24601SOL    HW175700  10.617   2.985  10.464
24601SOL    HW275701  10.479   3.032  10.425
24602SOL     OW75702   2.336   0.866   9.824
24602SOL    HW175703   2.414   0.920   9.833
24602SOL    HW275704   2.282   0.911   9.759
24603SOL     OW75705   9.573   3.492   1.927
24603SOL    HW175706   9.520   3.553   1.875
24603SOL    HW275707   9.561   3.521   2.017
24604SOL     OW75708   9.962  13.225  11.700
24604SOL    HW175709   9.919  13.176  11.630
24604SOL    HW275710  10.052  13.235  11.670
24605SOL     OW75711  13.553   6.105   8.036
24605SOL    HW175712  13.557   6.103   8.131
24605SOL    HW275713  13.628   6.051   8.008
24606SOL     OW75714  10.277   8.984   1.975
24606SOL    HW175715  10.371   8.996   1.965
24606SOL    HW275716  10.238   9.063   1.939
24607SOL     OW75717  11.947  14.673   0.068
24607SOL    HW175718  12.027  14.717   0.098
24607SOL    HW275719  11.959  14.663  14.843
24608SOL     OW75720   2.343  10.332  13.084
24608SOL    HW175721   2.260  10.340  13.038
24608SOL    HW275722   2.330  10.380  13.165
24609SOL     OW75723   3.853  10.864  10.993
24609SOL    HW175724   3.917  10.814  10.942
24609SOL    HW275725   3.775  10.867  10.938
24610SOL     OW75726   0.308   1.875   1.741
24610SOL    HW175727   0.377   1.903   1.680
24610SOL    HW275728   0.280   1.955   1.784
24611SOL     OW75729   3.380   7.326  12.575
24611SOL    HW175730   3.420   7.410  12.551
24611SOL    HW275731   3.448   7.280  12.624
24612SOL     OW75732  12.753   6.904   7.316
24612SOL    HW175733  12.783   6.906   7.225
24612SOL    HW275734  12.810   6.966   7.361
24613SOL     OW75735   7.974   6.161   2.317
24613SOL    HW175736   8.002   6.204   2.397
24613SOL    HW275737   8.054   6.157   2.263
24614SOL     OW75738   0.335  13.682  12.406
24614SOL    HW175739   0.369  13.769  12.385
24614SOL    HW275740   0.407  13.622  12.385
24615SOL     OW75741   3.522   9.820  14.364
24615SOL    HW175742   3.542   9.793  14.454
24615SOL    HW275743   3.488   9.741  14.322
24616SOL     OW75744   0.162   5.759  11.018
24616SOL    HW175745   0.191   5.679  10.973
24616SOL    HW275746   0.196   5.830  10.963
24617SOL     OW75747   8.262   1.779   5.076
24617SOL    HW175748   8.187   1.817   5.031
24617SOL    HW275749   8.294   1.848   5.133
24618SOL     OW75750   9.411   3.667   1.770
24618SOL    HW175751   9.382   3.664   1.679
24618SOL    HW275752   9.410   3.761   1.792
24619SOL     OW75753   7.085   5.206   7.470
24619SOL    HW175754   6.996   5.199   7.435
24619SOL    HW275755   7.121   5.285   7.429
24620SOL     OW75756   5.338   1.646   9.906
24620SOL    HW175757   5.267   1.620   9.966
24620SOL    HW275758   5.330   1.741   9.900
24621SOL     OW75759  14.302  10.049   1.896
24621SOL    HW175760  14.339   9.970   1.857
24621SOL    HW275761  14.353  10.120   1.859
24622SOL     OW75762   0.151   8.632   1.908
24622SOL    HW175763   0.187   8.549   1.938
24622SOL    HW275764   0.060   8.611   1.883
24623SOL     OW75765  11.313   7.068  11.728
24623SOL    HW175766  11.254   6.993  11.724
24623SOL    HW275767  11.268   7.137  11.679
24624SOL     OW75768  13.776   7.779   3.130
24624SOL    HW175769  13.852   7.722   3.142
24624SOL    HW275770  13.747   7.800   3.219
24625SOL     OW75771   0.076  12.256   7.625
24625SOL    HW175772   0.065  12.171   7.668
24625SOL    HW275773   0.026  12.317   7.678
24626SOL     OW75774  11.902   2.499   7.508
24626SOL    HW175775  11.947   2.510   7.425
24626SOL    HW275776  11.874   2.407   7.508
24627SOL     OW75777  14.458   1.586  12.843
24627SOL    HW175778  14.528   1.644  12.874
24627SOL    HW275779  14.503   1.503  12.827
24628SOL     OW75780   4.734   1.845   3.964
24628SOL    HW175781   4.759   1.871   3.875
24628SOL    HW275782   4.685   1.919   3.999
24629SOL     OW75783   9.902  14.671  12.384
24629SOL    HW175784   9.946  14.592  12.351
24629SOL    HW275785   9.844  14.638  12.453
24630SOL     OW75786  14.373   0.028   7.548
24630SOL    HW175787  14.450   0.069   7.588
24630SOL    HW275788  14.364  14.814   7.593
24631SOL     OW75789   9.315   1.080   6.350
24631SOL    HW175790   9.324   1.143   6.278
24631SOL    HW275791   9.229   1.098   6.386
24632SOL     OW75792   5.966   6.980   0.175
24632SOL    HW175793   5.956   7.010   0.266
24632SOL    HW275794   5.881   7.000   0.134
24633SOL     OW75795  11.211   8.795   5.992
24633SOL    HW175796  11.263   8.864   5.951
24633SOL    HW275797  11.123   8.808   5.959
24634SOL     OW75798   7.044  11.030  13.266
24634SOL    HW175799   6.996  10.995  13.342
24634SOL    HW275800   6.976  11.059  13.206
24635SOL     OW75801  12.703   5.224  13.933
24635SOL    HW175802  12.741   5.311  13.944
24635SOL    HW275803  12.636   5.217  14.001
24636SOL     OW75804   4.407   5.814   4.873
24636SOL    HW175805   4.493   5.802   4.914
24636SOL    HW275806   4.427   5.839   4.783
24637SOL     OW75807  11.042   1.086   6.697
24637SOL    HW175808  11.036   1.174   6.660
24637SOL    HW275809  11.135   1.068   6.702
24638SOL     OW75810  13.871   2.240  12.452
24638SOL    HW175811  13.963   2.223  12.471
24638SOL    HW275812  13.865   2.334  12.436
24639SOL     OW75813   5.679  11.933   7.311
24639SOL    HW175814   5.751  11.872   7.295
24639SOL    HW275815   5.671  11.935   7.407
24640SOL     OW75816   5.094   7.731  11.180
24640SOL    HW175817   5.070   7.720  11.088
24640SOL    HW275818   5.190   7.732  11.180
24641SOL     OW75819  12.055  12.751   4.807
24641SOL    HW175820  11.989  12.695   4.767
24641SOL    HW275821  12.050  12.833   4.757
24642SOL     OW75822   7.976   4.132  14.473
24642SOL    HW175823   7.911   4.159  14.538
24642SOL    HW275824   8.057   4.174  14.501
24643SOL     OW75825  13.645  12.777   3.833
24643SOL    HW175826  13.670  12.768   3.741
24643SOL    HW275827  13.552  12.798   3.831
24644SOL     OW75828   3.045   6.452  10.833
24644SOL    HW175829   3.124   6.418  10.791
24644SOL    HW275830   3.062   6.545  10.844
24645SOL     OW75831   4.354  11.320   3.237
24645SOL    HW175832   4.372  11.408   3.205
24645SOL    HW275833   4.296  11.282   3.170
24646SOL     OW75834   3.161   8.579  14.415
24646SOL    HW175835   3.250   8.554  14.389
24646SOL    HW275836   3.135   8.513  14.479
24647SOL     OW75837  11.236   8.129  10.411
24647SOL    HW175838  11.148   8.155  10.384
24647SOL    HW275839  11.292   8.156  10.338
24648SOL     OW75840   4.439  12.110   4.840
24648SOL    HW175841   4.433  12.204   4.821
24648SOL    HW275842   4.427  12.104   4.934
24649SOL     OW75843   7.516   8.162   3.381
24649SOL    HW175844   7.610   8.140   3.383
24649SOL    HW275845   7.514   8.257   3.388
24650SOL     OW75846   6.083  10.050   9.849
24650SOL    HW175847   6.165  10.099   9.853
24650SOL    HW275848   6.025  10.095   9.910
24651SOL     OW75849   2.018   9.158  12.878
24651SOL    HW175850   1.960   9.146  12.953
24651SOL    HW275851   2.092   9.100  12.895
24652SOL     OW75852   9.486  11.256   6.840
24652SOL    HW175853   9.460  11.164   6.832
24652SOL    HW275854   9.553  11.268   6.772
24653SOL     OW75855   7.136   9.300   9.008
24653SOL    HW175856   7.069   9.364   8.985
24653SOL    HW275857   7.088   9.222   9.034
24654SOL     OW75858  10.974   3.355  11.972
24654SOL    HW175859  10.906   3.413  11.936
24654SOL    HW275860  11.045   3.359  11.908
24655SOL     OW75861   4.267  12.536   5.324
24655SOL    HW175862   4.331  12.565   5.390
24655SOL    HW275863   4.208  12.610   5.314
24656SOL     OW75864   6.755   7.106   9.385
24656SOL    HW175865   6.843   7.088   9.420
24656SOL    HW275866   6.700   7.039   9.426
24657SOL     OW75867  12.376   5.538   3.370
24657SOL    HW175868  12.420   5.581   3.296
24657SOL    HW275869  12.325   5.607   3.411
24658SOL     OW75870   1.811   8.841   9.721
24658SOL    HW175871   1.800   8.747   9.710
24658SOL    HW275872   1.739   8.867   9.778
24659SOL     OW75873   2.236   9.027   2.745
24659SOL    HW175874   2.198   9.013   2.658
24659SOL    HW275875   2.208   9.115   2.769
24660SOL     OW75876   5.832  12.120   8.528
24660SOL    HW175877   5.807  12.155   8.614
24660SOL    HW275878   5.892  12.185   8.492
24661SOL     OW75879   1.621  14.276  10.921
24661SOL    HW175880   1.610  14.324  10.838
24661SOL    HW275881   1.593  14.338  10.988
24662SOL     OW75882   7.926   7.435  11.002
24662SOL    HW175883   7.989   7.365  10.984
24662SOL    HW275884   7.905   7.425  11.095
24663SOL     OW75885   9.951   1.762   1.208
24663SOL    HW175886  10.016   1.769   1.139
24663SOL    HW275887   9.984   1.693   1.266
24664SOL     OW75888  13.947   1.837  13.086
24664SOL    HW175889  13.908   1.754  13.061
24664SOL    HW275890  14.023   1.848  13.029
24665SOL     OW75891   7.811   0.700  12.938
24665SOL    HW175892   7.851   0.673  12.856
24665SOL    HW275893   7.838   0.791  12.949
24666SOL     OW75894   4.943   2.007   0.019
24666SOL    HW175895   4.959   1.913   0.006
24666SOL    HW275896   5.026   2.048  14.866
24667SOL     OW75897   8.007  12.776   8.839
24667SOL    HW175898   8.054  12.755   8.758
24667SOL    HW275899   8.017  12.871   8.848
24668SOL     OW75900   6.696  10.472   7.620
24668SOL    HW175901   6.774  10.432   7.660
24668SOL    HW275902   6.687  10.556   7.665
24669SOL     OW75903  13.755   5.572  11.851
24669SOL    HW175904  13.711   5.536  11.774
24669SOL    HW275905  13.709   5.532  11.925
24670SOL     OW75906   5.604   8.692   6.820
24670SOL    HW175907   5.551   8.617   6.792
24670SOL    HW275908   5.548   8.768   6.808
24671SOL     OW75909  10.873  14.321   7.279
24671SOL    HW175910  10.947  14.369   7.242
24671SOL    HW275911  10.850  14.370   7.358
24672SOL     OW75912  11.039  12.962   8.591
24672SOL    HW175913  11.127  12.926   8.587
24672SOL    HW275914  11.044  13.032   8.656
24673SOL     OW75915   1.888  11.530   1.791
24673SOL    HW175916   1.922  11.443   1.809
24673SOL    HW275917   1.796  11.526   1.818
24674SOL     OW75918  13.375   3.898   8.595
24674SOL    HW175919  13.399   3.853   8.514
24674SOL    HW275920  13.293   3.943   8.574
24675SOL     OW75921  11.328   7.016   5.203
24675SOL    HW175922  11.416   6.988   5.176
24675SOL    HW275923  11.292   7.059   5.126
24676SOL     OW75924   2.480   4.926   9.411
24676SOL    HW175925   2.566   4.936   9.453
24676SOL    HW275926   2.418   4.959   9.476
24677SOL     OW75927  11.710   9.674   2.840
24677SOL    HW175928  11.676   9.679   2.929
24677SOL    HW275929  11.660   9.604   2.799
24678SOL     OW75930  14.042   5.532   0.546
24678SOL    HW175931  14.081   5.582   0.618
24678SOL    HW275932  13.981   5.472   0.589
24679SOL     OW75933   4.796   5.828  13.984
24679SOL    HW175934   4.851   5.813  14.060
24679SOL    HW275935   4.826   5.911  13.947
24680SOL     OW75936   5.110   3.684  10.728
24680SOL    HW175937   5.157   3.705  10.809
24680SOL    HW275938   5.036   3.631  10.757
24681SOL     OW75939  13.268   4.058   3.818
24681SOL    HW175940  13.290   4.007   3.740
24681SOL    HW275941  13.353   4.086   3.853
24682SOL     OW75942   9.149   0.589   3.692
24682SOL    HW175943   9.109   0.509   3.657
24682SOL    HW275944   9.156   0.647   3.616
24683SOL     OW75945  11.192  13.504   9.010
24683SOL    HW175946  11.149  13.446   8.948
24683SOL    HW275947  11.276  13.524   8.969
24684SOL     OW75948   9.924  13.037   3.748
24684SOL    HW175949  10.004  13.090   3.741
24684SOL    HW275950   9.854  13.100   3.765
24685SOL     OW75951   6.991   2.383   1.615
24685SOL    HW175952   7.020   2.337   1.536
24685SOL    HW275953   7.048   2.350   1.685
24686SOL     OW75954   5.394   9.003   3.550
24686SOL    HW175955   5.428   8.933   3.495
24686SOL    HW275956   5.337   9.054   3.492
24687SOL     OW75957  14.324  11.737   0.926
24687SOL    HW175958  14.316  11.706   1.016
24687SOL    HW275959  14.330  11.832   0.933
24688SOL     OW75960  13.438   8.809   4.580
24688SOL    HW175961  13.522   8.763   4.579
24688SOL    HW275962  13.383   8.760   4.520
24689SOL     OW75963  11.597   1.313  13.680
24689SOL    HW175964  11.562   1.238  13.632
24689SOL    HW275965  11.554   1.389  13.640
24690SOL     OW75966  11.708  11.205   2.579
24690SOL    HW175967  11.743  11.124   2.616
24690SOL    HW275968  11.706  11.267   2.652
24691SOL     OW75969   2.949   8.808   9.294
24691SOL    HW175970   2.864   8.764   9.289
24691SOL    HW275971   2.931   8.890   9.340
24692SOL     OW75972  10.695   7.965   1.370
24692SOL    HW175973  10.643   7.935   1.295
24692SOL    HW275974  10.782   7.926   1.356
24693SOL     OW75975   8.441   2.128   6.257
24693SOL    HW175976   8.435   2.038   6.289
24693SOL    HW275977   8.400   2.125   6.170
24694SOL     OW75978   5.298   6.636   9.118
24694SOL    HW175979   5.364   6.676   9.174
24694SOL    HW275980   5.308   6.542   9.131
24695SOL     OW75981   3.223   8.297  12.284
24695SOL    HW175982   3.156   8.252  12.233
24695SOL    HW275983   3.195   8.287  12.375
24696SOL     OW75984   2.461   1.927  10.181
24696SOL    HW175985   2.529   1.862  10.164
24696SOL    HW275986   2.437   1.959  10.094
24697SOL     OW75987   8.757   7.961   0.830
24697SOL    HW175988   8.827   8.026   0.830
24697SOL    HW275989   8.700   7.988   0.758
24698SOL     OW75990   5.796  13.408   7.948
24698SOL    HW175991   5.873  13.462   7.967
24698SOL    HW275992   5.831  13.320   7.934
24699SOL     OW75993   2.230  13.454   8.293
24699SOL    HW175994   2.287  13.520   8.252
24699SOL    HW275995   2.143  13.495   8.293
24700SOL     OW75996   8.944   0.056  12.642
24700SOL    HW175997   8.988  14.848  12.676
24700SOL    HW275998   8.916   0.030  12.554
24701SOL     OW75999   1.438   3.790   6.646
24701SOL    HW176000   1.431   3.769   6.739
24701SOL    HW276001   1.527   3.826   6.636
24702SOL     OW76002   8.633   1.117   5.285
24702SOL    HW176003   8.625   1.168   5.366
24702SOL    HW276004   8.569   1.156   5.226
24703SOL     OW76005  12.745  12.929   7.199
24703SOL    HW176006  12.699  12.849   7.171
24703SOL    HW276007  12.676  12.988   7.227
24704SOL     OW76008   4.071   0.052  12.643
24704SOL    HW176009   3.986   0.008  12.641
24704SOL    HW276010   4.127  14.864  12.695
24705SOL     OW76011   2.809   0.467   5.082
24705SOL    HW176012   2.884   0.413   5.060
24705SOL    HW276013   2.742   0.405   5.110
24706SOL     OW76014   7.772   0.640   4.829
24706SOL    HW176015   7.770   0.708   4.896
24706SOL    HW276016   7.720   0.675   4.757
24707SOL     OW76017  10.550  11.172   8.134
24707SOL    HW176018  10.588  11.212   8.212
24707SOL    HW276019  10.534  11.246   8.075
24708SOL     OW76020   2.097  11.878   2.112
24708SOL    HW176021   2.054  11.963   2.118
24708SOL    HW276022   2.056  11.835   2.037
24709SOL     OW76023   1.118   7.558   6.671
24709SOL    HW176024   1.035   7.511   6.679
24709SOL    HW276025   1.164   7.540   6.753
24710SOL     OW76026   0.321   7.497  14.369
24710SOL    HW176027   0.373   7.450  14.434
24710SOL    HW276028   0.367   7.580  14.358
24711SOL     OW76029  11.178  10.559  13.732
24711SOL    HW176030  11.242  10.489  13.740
24711SOL    HW276031  11.216  10.620  13.669
24712SOL     OW76032   1.029   6.118   6.993
24712SOL    HW176033   1.030   6.154   7.082
24712SOL    HW276034   1.005   6.192   6.937
24713SOL     OW76035   9.066   4.100   3.855
24713SOL    HW176036   9.097   4.122   3.943
24713SOL    HW276037   9.102   4.013   3.838
24714SOL     OW76038   9.201   5.035   9.230
24714SOL    HW176039   9.166   5.099   9.168
24714SOL    HW276040   9.148   5.046   9.309
24715SOL     OW76041   2.710   4.088  13.810
24715SOL    HW176042   2.777   4.156  13.809
24715SOL    HW276043   2.647   4.115  13.744
24716SOL     OW76044   6.908  12.952  13.435
24716SOL    HW176045   6.853  13.005  13.493
24716SOL    HW276046   6.969  13.015  13.397
24717SOL     OW76047   9.717   7.318   0.588
24717SOL    HW176048   9.659   7.343   0.660
24717SOL    HW276049   9.704   7.223   0.578
24718SOL     OW76050  12.718  10.283   3.670
24718SOL    HW176051  12.732  10.368   3.628
24718SOL    HW276052  12.627  10.261   3.649
24719SOL     OW76053   5.312   1.875  11.678
24719SOL    HW176054   5.224   1.856  11.709
24719SOL    HW276055   5.302   1.952  11.622
24720SOL     OW76056   6.123  13.697   1.285
24720SOL    HW176057   6.063  13.695   1.211
24720SOL    HW276058   6.108  13.781   1.327
24721SOL     OW76059  10.525   5.137   0.039
24721SOL    HW176060  10.455   5.174   0.093
24721SOL    HW276061  10.482   5.111  14.828
24722SOL     OW76062  12.422   5.656   0.819
24722SOL    HW176063  12.513   5.653   0.791
24722SOL    HW276064  12.427   5.662   0.915
24723SOL     OW76065   0.161  12.302  13.042
24723SOL    HW176066   0.182  12.286  13.134
24723SOL    HW276067   0.119  12.221  13.013
24724SOL     OW76068   6.445  14.468  14.123
24724SOL    HW176069   6.472  14.377  14.123
24724SOL    HW276070   6.350  14.465  14.118
24725SOL     OW76071   8.095   4.471  11.450
24725SOL    HW176072   8.168   4.521  11.413
24725SOL    HW276073   8.093   4.390  11.399
24726SOL     OW76074   3.508   2.533   5.663
24726SOL    HW176075   3.536   2.461   5.607
24726SOL    HW276076   3.471   2.491   5.741
24727SOL     OW76077   7.198  11.235   4.878
24727SOL    HW176078   7.118  11.214   4.926
24727SOL    HW276079   7.250  11.287   4.939
24728SOL     OW76080   7.868   8.980   7.665
24728SOL    HW176081   7.917   8.898   7.671
24728SOL    HW276082   7.932   9.048   7.687
24729SOL     OW76083  12.603  14.287   5.650
24729SOL    HW176084  12.614  14.193   5.668
24729SOL    HW276085  12.654  14.303   5.571
24730SOL     OW76086   4.302   6.186   5.647
24730SOL    HW176087   4.383   6.225   5.614
24730SOL    HW276088   4.272   6.247   5.715
24731SOL     OW76089   8.360   9.791   2.032
24731SOL    HW176090   8.379   9.833   2.116
24731SOL    HW276091   8.329   9.862   1.976
24732SOL     OW76092  12.621   5.106   4.141
24732SOL    HW176093  12.545   5.137   4.092
24732SOL    HW276094  12.675   5.061   4.075
24733SOL     OW76095   8.143   1.104  11.538
24733SOL    HW176096   8.093   1.022  11.544
24733SOL    HW276097   8.079   1.168  11.507
24734SOL     OW76098   9.529   7.342  11.182
24734SOL    HW176099   9.492   7.255  11.164
24734SOL    HW276100   9.453   7.400  11.184
24735SOL     OW76101   1.768   4.830   0.225
24735SOL    HW176102   1.708   4.882   0.277
24735SOL    HW276103   1.717   4.803   0.149
24736SOL     OW76104   0.709   0.443  10.545
24736SOL    HW176105   0.790   0.478  10.582
24736SOL    HW276106   0.647   0.516  10.549
24737SOL     OW76107   4.084  14.461   1.494
24737SOL    HW176108   4.029  14.521   1.445
24737SOL    HW276109   4.118  14.513   1.567
24738SOL     OW76110   4.834   2.490  13.007
24738SOL    HW176111   4.855   2.570  13.055
24738SOL    HW276112   4.914   2.470  12.958
24739SOL     OW76113   4.058   9.972  14.597
24739SOL    HW176114   3.993   9.919  14.549
24739SOL    HW276115   4.125   9.909  14.623
24740SOL     OW76116  13.389   4.566   3.516
24740SOL    HW176117  13.307   4.599   3.553
24740SOL    HW276118  13.432   4.643   3.481
24741SOL     OW76119   3.299   2.359   2.036
24741SOL    HW176120   3.328   2.424   1.973
24741SOL    HW276121   3.266   2.411   2.110
24742SOL     OW76122   9.733   1.928   1.773
24742SOL    HW176123   9.817   1.955   1.810
24742SOL    HW276124   9.669   1.948   1.841
24743SOL     OW76125   9.504   1.209   8.806
24743SOL    HW176126   9.562   1.209   8.882
24743SOL    HW276127   9.443   1.281   8.822
24744SOL     OW76128   6.849   5.233  14.248
24744SOL    HW176129   6.826   5.182  14.170
24744SOL    HW276130   6.942   5.214  14.263
24745SOL     OW76131   7.294  13.900  14.685
24745SOL    HW176132   7.275  13.807  14.695
24745SOL    HW276133   7.309  13.931  14.775
24746SOL     OW76134   1.316   4.044   7.194
24746SOL    HW176135   1.252   4.063   7.262
24746SOL    HW276136   1.279   3.969   7.147
24747SOL     OW76137   8.875   1.043  13.916
24747SOL    HW176138   8.932   0.983  13.868
24747SOL    HW276139   8.885   1.018  14.008
24748SOL     OW76140   0.209   6.846   3.423
24748SOL    HW176141   0.130   6.830   3.475
24748SOL    HW276142   0.228   6.761   3.382
24749SOL     OW76143   8.370  13.925  10.954
24749SOL    HW176144   8.417  13.984  11.013
24749SOL    HW276145   8.326  13.863  11.011
24750SOL     OW76146   0.868   3.754  11.778
24750SOL    HW176147   0.781   3.742  11.817
24750SOL    HW276148   0.875   3.848  11.764
24751SOL     OW76149   5.851   6.797  14.637
24751SOL    HW176150   5.906   6.813  14.714
24751SOL    HW276151   5.880   6.861  14.572
24752SOL     OW76152  13.781   4.859   5.241
24752SOL    HW176153  13.784   4.954   5.243
24752SOL    HW276154  13.687   4.838   5.239
24753SOL     OW76155   8.971  12.981   6.665
24753SOL    HW176156   8.889  13.022   6.694
24753SOL    HW276157   9.027  12.981   6.742
24754SOL     OW76158   2.101   8.976  13.921
24754SOL    HW176159   2.166   8.981  13.991
24754SOL    HW276160   2.043   8.904  13.946
24755SOL     OW76161  13.026   6.572  13.988
24755SOL    HW176162  12.950   6.613  14.030
24755SOL    HW276163  13.073   6.645  13.948
24756SOL     OW76164  11.835   2.085   5.711
24756SOL    HW176165  11.920   2.045   5.692
24756SOL    HW276166  11.847   2.126   5.797
24757SOL     OW76167  14.853  12.181   3.766
24757SOL    HW176168  14.864  12.232   3.686
24757SOL    HW276169  14.795  12.109   3.741
24758SOL     OW76170   8.276   5.630   5.127
24758SOL    HW176171   8.225   5.706   5.156
24758SOL    HW276172   8.355   5.668   5.089
24759SOL     OW76173   5.841   0.940   3.214
24759SOL    HW176174   5.842   1.018   3.269
24759SOL    HW276175   5.770   0.956   3.151
24760SOL     OW76176   1.515  11.105   2.071
24760SOL    HW176177   1.437  11.090   2.019
24760SOL    HW276178   1.484  11.150   2.150
24761SOL     OW76179   4.361   0.989   4.204
24761SOL    HW176180   4.333   0.946   4.123
24761SOL    HW276181   4.344   1.082   4.190
24762SOL     OW76182  14.051  10.723   0.600
24762SOL    HW176183  13.967  10.768   0.612
24762SOL    HW276184  14.117  10.787   0.625
24763SOL     OW76185  12.046  10.469  13.897
24763SOL    HW176186  12.078  10.407  13.963
24763SOL    HW276187  11.965  10.430  13.864
24764SOL     OW76188   5.911  12.217  11.733
24764SOL    HW176189   5.984  12.172  11.690
24764SOL    HW276190   5.914  12.186  11.824
24765SOL     OW76191  12.673  11.578  12.706
24765SOL    HW176192  12.684  11.589  12.611
24765SOL    HW276193  12.756  11.609  12.743
24766SOL     OW76194  13.828  12.135   4.495
24766SOL    HW176195  13.792  12.047   4.505
24766SOL    HW276196  13.760  12.185   4.452
24767SOL     OW76197  13.356   7.937   0.215
24767SOL    HW176198  13.337   7.876   0.286
24767SOL    HW276199  13.362   7.882   0.137
24768SOL     OW76200   8.623   9.415   3.888
24768SOL    HW176201   8.583   9.437   3.972
24768SOL    HW276202   8.671   9.334   3.905
24769SOL     OW76203   7.308  12.223   1.227
24769SOL    HW176204   7.390  12.205   1.273
24769SOL    HW276205   7.321  12.308   1.186
24770SOL     OW76206  11.763   5.401  13.935
24770SOL    HW176207  11.812   5.460  13.877
24770SOL    HW276208  11.770   5.315  13.894
24771SOL     OW76209  12.051  14.772  13.562
24771SOL    HW176210  12.134  14.724  13.557
24771SOL    HW276211  11.985  14.707  13.538
24772SOL     OW76212   7.948  10.584   0.258
24772SOL    HW176213   8.041  10.594   0.237
24772SOL    HW276214   7.922  10.504   0.213
24773SOL     OW76215  11.876  10.000   7.038
24773SOL    HW176216  11.856  10.023   7.128
24773SOL    HW276217  11.930   9.922   7.045
24774SOL     OW76218  12.307   4.539   4.839
24774SOL    HW176219  12.232   4.558   4.783
24774SOL    HW276220  12.371   4.606   4.817
24775SOL     OW76221  14.126  10.471  11.431
24775SOL    HW176222  14.193  10.403  11.442
24775SOL    HW276223  14.067  10.459  11.505
24776SOL     OW76224   3.693  11.927   6.815
24776SOL    HW176225   3.737  11.903   6.896
24776SOL    HW276226   3.704  12.022   6.808
24777SOL     OW76227  12.852   5.074   1.703
24777SOL    HW176228  12.842   5.156   1.752
24777SOL    HW276229  12.764   5.035   1.704
24778SOL     OW76230  11.137   8.367  10.678
24778SOL    HW176231  11.177   8.377  10.591
24778SOL    HW276232  11.044   8.352  10.661
24779SOL     OW76233  13.646  10.789  14.779
24779SOL    HW176234  13.704  10.854  14.817
24779SOL    HW276235  13.561  10.834  14.772
24780SOL     OW76236   7.491  12.933  13.801
24780SOL    HW176237   7.436  12.963  13.728
24780SOL    HW276238   7.569  12.988  13.796
24781SOL     OW76239   0.850   6.722  13.272
24781SOL    HW176240   0.824   6.675  13.351
24781SOL    HW276241   0.934   6.682  13.247
24782SOL     OW76242   9.390  14.248   0.463
24782SOL    HW176243   9.435  14.185   0.406
24782SOL    HW276244   9.373  14.198   0.544
24783SOL     OW76245   1.421   5.669  12.814
24783SOL    HW176246   1.475   5.726  12.758
24783SOL    HW276247   1.477   5.651  12.890
24784SOL     OW76248   6.661   1.013  13.379
24784SOL    HW176249   6.753   1.025  13.357
24784SOL    HW276250   6.641   0.924  13.352
24785SOL     OW76251  12.522  14.044  13.320
24785SOL    HW176252  12.510  13.986  13.244
24785SOL    HW276253  12.606  14.088  13.304
24786SOL     OW76254   5.778   7.822   1.835
24786SOL    HW176255   5.780   7.918   1.840
24786SOL    HW276256   5.856   7.799   1.786
24787SOL     OW76257  12.460  11.728   5.254
24787SOL    HW176258  12.485  11.673   5.328
24787SOL    HW276259  12.398  11.791   5.290
24788SOL     OW76260   8.224   1.149  10.465
24788SOL    HW176261   8.134   1.143  10.496
24788SOL    HW276262   8.220   1.212  10.393
24789SOL     OW76263  11.414  13.375   1.799
24789SOL    HW176264  11.467  13.319   1.743
24789SOL    HW276265  11.475  13.409   1.864
24790SOL     OW76266   3.248  11.449   1.668
24790SOL    HW176267   3.206  11.370   1.636
24790SOL    HW276268   3.341  11.428   1.670
24791SOL     OW76269   5.523   3.052  14.219
24791SOL    HW176270   5.509   3.143  14.244
24791SOL    HW276271   5.576   3.057  14.139
24792SOL     OW76272  12.347   1.694   4.139
24792SOL    HW176273  12.267   1.746   4.134
24792SOL    HW276274  12.316   1.605   4.155
24793SOL     OW76275   9.990   2.092   5.825
24793SOL    HW176276  10.074   2.115   5.865
24793SOL    HW276277   9.949   2.034   5.889
24794SOL     OW76278   5.152  11.378  11.949
24794SOL    HW176279   5.139  11.298  12.000
24794SOL    HW276280   5.064  11.407  11.927
24795SOL     OW76281   4.277  12.172   3.031
24795SOL    HW176282   4.349  12.116   3.060
24795SOL    HW276283   4.210  12.162   3.099
24796SOL     OW76284   9.018   0.898   9.689
24796SOL    HW176285   8.925   0.921   9.683
24796SOL    HW276286   9.038   0.903   9.782
24797SOL     OW76287  10.170   3.826   5.031
24797SOL    HW176288  10.146   3.752   4.974
24797SOL    HW276289  10.188   3.897   4.970
24798SOL     OW76290   2.091   3.116  10.073
24798SOL    HW176291   2.088   3.201  10.117
24798SOL    HW276292   2.007   3.109  10.028
24799SOL     OW76293   8.704   4.627  11.088
24799SOL    HW176294   8.616   4.626  11.125
24799SOL    HW276295   8.739   4.539  11.106
24800SOL     OW76296   5.603   5.949   6.917
24800SOL    HW176297   5.676   5.894   6.890
24800SOL    HW276298   5.576   5.913   7.002
24801SOL     OW76299   2.116   2.224  13.984
24801SOL    HW176300   2.100   2.308  14.026
24801SOL    HW276301   2.209   2.205  14.001
24802SOL     OW76302   7.095  14.111   4.536
24802SOL    HW176303   7.079  14.203   4.516
24802SOL    HW276304   7.047  14.063   4.468
24803SOL     OW76305   6.128   6.910  11.046
24803SOL    HW176306   6.215   6.879  11.069
24803SOL    HW276307   6.132   6.928  10.952
24804SOL     OW76308   7.619   3.117  14.730
24804SOL    HW176309   7.683   3.188  14.728
24804SOL    HW276310   7.541   3.155  14.690
24805SOL     OW76311   2.151   6.476  13.199
24805SOL    HW176312   2.172   6.387  13.229
24805SOL    HW276313   2.222   6.499  13.140
24806SOL     OW76314   1.143   4.883  12.397
24806SOL    HW176315   1.133   4.929  12.480
24806SOL    HW276316   1.180   4.948  12.337
24807SOL     OW76317  11.194   9.179   3.839
24807SOL    HW176318  11.213   9.202   3.930
24807SOL    HW276319  11.134   9.105   3.845
24808SOL     OW76320   8.063   8.875  14.782
24808SOL    HW176321   8.019   8.881  14.697
24808SOL    HW276322   8.122   8.799  14.773
24809SOL     OW76323  14.339  12.930   5.182
24809SOL    HW176324  14.406  12.865   5.203
24809SOL    HW276325  14.258  12.880   5.177
24810SOL     OW76326  10.333  10.022   9.249
24810SOL    HW176327  10.254  10.007   9.197
24810SOL    HW276328  10.314  10.100   9.300
24811SOL     OW76329   3.784   8.153  11.791
24811SOL    HW176330   3.824   8.194  11.867
24811SOL    HW276331   3.719   8.217  11.760
24812SOL     OW76332   7.670   0.765   1.004
24812SOL    HW176333   7.748   0.730   0.962
24812SOL    HW276334   7.607   0.777   0.933
24813SOL     OW76335   7.357  10.998   9.805
24813SOL    HW176336   7.275  11.009   9.757
24813SOL    HW276337   7.342  11.044   9.888
24814SOL     OW76338   9.569  14.599   3.103
24814SOL    HW176339   9.544  14.688   3.080
24814SOL    HW276340   9.508  14.573   3.172
24815SOL     OW76341  10.449   3.402  10.577
24815SOL    HW176342  10.509   3.359  10.516
24815SOL    HW276343  10.409   3.472  10.526
24816SOL     OW76344   1.709   9.086  11.722
24816SOL    HW176345   1.766   9.146  11.770
24816SOL    HW276346   1.672   9.139  11.652
24817SOL     OW76347  11.679   3.790   0.295
24817SOL    HW176348  11.725   3.707   0.304
24817SOL    HW276349  11.589   3.765   0.274
24818SOL     OW76350   6.207   1.300   2.974
24818SOL    HW176351   6.211   1.225   3.032
24818SOL    HW276352   6.290   1.345   2.986
24819SOL     OW76353   4.527   2.623   0.495
24819SOL    HW176354   4.469   2.699   0.498
24819SOL    HW276355   4.547   2.611   0.402
24820SOL     OW76356   0.918  10.384   9.661
24820SOL    HW176357   0.854  10.357   9.595
24820SOL    HW276358   0.998  10.338   9.638
24821SOL     OW76359   0.052   4.034  10.559
24821SOL    HW176360  14.861   4.108  10.553
24821SOL    HW276361   0.100   4.035  10.475
24822SOL     OW76362   5.827   9.040  13.999
24822SOL    HW176363   5.831   9.028  14.094
24822SOL    HW276364   5.742   9.006  13.974
24823SOL     OW76365  14.329   4.763   1.013
24823SOL    HW176366  14.252   4.808   0.978
24823SOL    HW276367  14.372   4.829   1.067
24824SOL     OW76368   0.868   8.313  10.758
24824SOL    HW176369   0.931   8.380  10.784
24824SOL    HW276370   0.835   8.344  10.673
24825SOL     OW76371  12.810   2.960  11.700
24825SOL    HW176372  12.718   2.967  11.725
24825SOL    HW276373  12.857   3.013  11.764
24826SOL     OW76374   6.844   1.554  13.431
24826SOL    HW176375   6.888   1.469  13.437
24826SOL    HW276376   6.863   1.584  13.342
24827SOL     OW76377  11.499   5.025   7.365
24827SOL    HW176378  11.505   5.118   7.385
24827SOL    HW276379  11.505   5.020   7.270
24828SOL     OW76380  10.531   9.475   1.237
24828SOL    HW176381  10.566   9.397   1.280
24828SOL    HW276382  10.455   9.444   1.188
24829SOL     OW76383   5.341   3.173  11.407
24829SOL    HW176384   5.292   3.253  11.428
24829SOL    HW276385   5.379   3.189  11.321
24830SOL     OW76386  12.492   8.872   7.558
24830SOL    HW176387  12.487   8.902   7.649
24830SOL    HW276388  12.579   8.833   7.550
24831SOL     OW76389  10.542   1.190   4.794
24831SOL    HW176390  10.473   1.155   4.738
24831SOL    HW276391  10.611   1.123   4.791
24832SOL     OW76392  12.715   8.308   1.007
24832SOL    HW176393  12.659   8.332   0.933
24832SOL    HW276394  12.796   8.356   0.993
24833SOL     OW76395   1.594   1.393  11.765
24833SOL    HW176396   1.581   1.487  11.778
24833SOL    HW276397   1.661   1.369  11.828
24834SOL     OW76398  12.418   3.573   2.540
24834SOL    HW176399  12.368   3.566   2.621
24834SOL    HW276400  12.484   3.505   2.546
24835SOL     OW76401  13.661  13.516  10.046
24835SOL    HW176402  13.576  13.509  10.002
24835SOL    HW276403  13.721  13.464   9.991
24836SOL     OW76404   5.936   8.553  11.417
24836SOL    HW176405   5.950   8.631  11.471
24836SOL    HW276406   5.990   8.486  11.458
24837SOL     OW76407  10.191   1.757  12.274
24837SOL    HW176408  10.205   1.662  12.280
24837SOL    HW276409  10.183   1.786  12.364
24838SOL     OW76410   7.500   7.258   1.296
24838SOL    HW176411   7.460   7.206   1.365
24838SOL    HW276412   7.473   7.348   1.316
24839SOL     OW76413   3.794  14.535  13.993
24839SOL    HW176414   3.833  14.475  13.929
24839SOL    HW276415   3.771  14.479  14.067
24840SOL     OW76416   6.569   0.560   6.405
24840SOL    HW176417   6.628   0.558   6.481
24840SOL    HW276418   6.589   0.480   6.357
24841SOL     OW76419   0.837  12.950   0.491
24841SOL    HW176420   0.803  13.035   0.519
24841SOL    HW276421   0.932  12.958   0.501
24842SOL     OW76422   7.704  11.914  14.314
24842SOL    HW176423   7.778  11.974  14.315
24842SOL    HW276424   7.668  11.920  14.226
24843SOL     OW76425   7.613  12.981   9.648
24843SOL    HW176426   7.601  13.064   9.603
24843SOL    HW276427   7.589  12.914   9.583
24844SOL     OW76428   1.372   2.965   3.950
24844SOL    HW176429   1.353   2.886   4.000
24844SOL    HW276430   1.288   3.008   3.939
24845SOL     OW76431   7.790   6.558   0.818
24845SOL    HW176432   7.860   6.601   0.868
24845SOL    HW276433   7.835   6.515   0.746
24846SOL     OW76434   1.476   2.978   5.775
24846SOL    HW176435   1.435   2.943   5.853
24846SOL    HW276436   1.441   3.067   5.767
24847SOL     OW76437   6.550   8.402   5.164
24847SOL    HW176438   6.479   8.389   5.227
24847SOL    HW276439   6.626   8.360   5.204
24848SOL     OW76440  14.010  11.206  12.850
24848SOL    HW176441  13.943  11.140  12.836
24848SOL    HW276442  14.078  11.161  12.902
24849SOL     OW76443   5.088  14.005   2.239
24849SOL    HW176444   5.113  14.021   2.149
24849SOL    HW276445   5.166  14.025   2.290
24850SOL     OW76446   5.337  14.098  12.459
24850SOL    HW176447   5.401  14.124  12.525
24850SOL    HW276448   5.255  14.090  12.508
24851SOL     OW76449  11.153   0.566   0.688
24851SOL    HW176450  11.220   0.627   0.720
24851SOL    HW276451  11.203   0.488   0.663
24852SOL     OW76452  12.037   3.220   5.032
24852SOL    HW176453  11.995   3.200   4.948
24852SOL    HW276454  12.131   3.206   5.016
24853SOL     OW76455  10.835   8.204  13.853
24853SOL    HW176456  10.779   8.141  13.806
24853SOL    HW276457  10.924   8.181  13.826
24854SOL     OW76458   8.413   0.897   8.438
24854SOL    HW176459   8.406   0.890   8.343
24854SOL    HW276460   8.353   0.832   8.472
24855SOL     OW76461   5.070  12.763   4.100
24855SOL    HW176462   5.108  12.847   4.075
24855SOL    HW276463   5.131  12.726   4.163
24856SOL     OW76464  12.436  12.335   6.239
24856SOL    HW176465  12.523  12.360   6.272
24856SOL    HW276466  12.436  12.239   6.240
24857SOL     OW76467   3.614   7.653  13.542
24857SOL    HW176468   3.604   7.705  13.462
24857SOL    HW276469   3.528   7.653  13.582
24858SOL     OW76470   1.587  12.702   0.415
24858SOL    HW176471   1.584  12.639   0.487
24858SOL    HW276472   1.548  12.782   0.451
24859SOL     OW76473   7.695   0.441   6.279
24859SOL    HW176474   7.771   0.498   6.262
24859SOL    HW276475   7.641   0.450   6.200
24860SOL     OW76476   0.536  10.010  14.268
24860SOL    HW176477   0.626   9.978  14.269
24860SOL    HW276478   0.523  10.043  14.179
24861SOL     OW76479   7.202   2.694   1.749
24861SOL    HW176480   7.210   2.601   1.771
24861SOL    HW276481   7.178   2.736   1.831
24862SOL     OW76482   0.418   7.361   7.996
24862SOL    HW176483   0.480   7.402   8.056
24862SOL    HW276484   0.337   7.410   8.008
24863SOL     OW76485  11.647   0.698  10.190
24863SOL    HW176486  11.708   0.630  10.161
24863SOL    HW276487  11.647   0.763  10.120
24864SOL     OW76488  10.812  14.490   8.639
24864SOL    HW176489  10.779  14.401   8.635
24864SOL    HW276490  10.797  14.526   8.551
24865SOL     OW76491  12.095   9.350  12.162
24865SOL    HW176492  12.101   9.266  12.116
24865SOL    HW276493  12.169   9.350  12.222
24866SOL     OW76494   9.699   2.677  14.755
24866SOL    HW176495   9.723   2.627  14.677
24866SOL    HW276496   9.766   2.656  14.819
24867SOL     OW76497  13.425   2.697  12.256
24867SOL    HW176498  13.348   2.652  12.292
24867SOL    HW276499  13.494   2.630  12.257
24868SOL     OW76500   6.543  12.100   3.605
24868SOL    HW176501   6.611  12.144   3.656
24868SOL    HW276502   6.546  12.009   3.634
24869SOL     OW76503   9.713   5.457   4.217
24869SOL    HW176504   9.802   5.423   4.217
24869SOL    HW276505   9.722   5.551   4.199
24870SOL     OW76506   4.885  13.828   1.534
24870SOL    HW176507   4.806  13.802   1.581
24870SOL    HW276508   4.854  13.865   1.452
24871SOL     OW76509   4.054   8.768   7.862
24871SOL    HW176510   3.988   8.747   7.797
24871SOL    HW276511   4.134   8.782   7.812
24872SOL     OW76512   0.468   7.222   0.934
24872SOL    HW176513   0.534   7.287   0.909
24872SOL    HW276514   0.508   7.138   0.913
24873SOL     OW76515   5.874  11.359   5.654
24873SOL    HW176516   5.900  11.430   5.595
24873SOL    HW276517   5.922  11.376   5.735
24874SOL     OW76518   6.851   7.910  11.973
24874SOL    HW176519   6.848   7.963  12.052
24874SOL    HW276520   6.938   7.870  11.974
24875SOL     OW76521   5.245   7.602   3.403
24875SOL    HW176522   5.233   7.510   3.426
24875SOL    HW276523   5.317   7.601   3.340
24876SOL     OW76524   2.778   6.992   2.684
24876SOL    HW176525   2.789   7.072   2.735
24876SOL    HW276526   2.834   6.928   2.728
24877SOL     OW76527   8.269   1.315  13.656
24877SOL    HW176528   8.232   1.247  13.600
24877SOL    HW276529   8.201   1.334  13.720
24878SOL     OW76530   1.262   8.240   2.131
24878SOL    HW176531   1.195   8.214   2.068
24878SOL    HW276532   1.312   8.309   2.087
24879SOL     OW76533  14.315  12.554  13.994
24879SOL    HW176534  14.333  12.578  13.903
24879SOL    HW276535  14.321  12.637  14.042
24880SOL     OW76536   5.339   5.004   2.978
24880SOL    HW176537   5.320   4.949   3.054
24880SOL    HW276538   5.432   4.989   2.960
24881SOL     OW76539   3.379  11.641  11.836
24881SOL    HW176540   3.353  11.664  11.926
24881SOL    HW276541   3.472  11.622  11.842
24882SOL     OW76542   6.785  12.988  12.231
24882SOL    HW176543   6.820  12.899  12.226
24882SOL    HW276544   6.855  13.043  12.198
24883SOL     OW76545   9.423   1.373   6.224
24883SOL    HW176546   9.484   1.317   6.176
24883SOL    HW276547   9.337   1.351   6.188
24884SOL     OW76548   1.433  10.282   1.456
24884SOL    HW176549   1.386  10.325   1.384
24884SOL    HW276550   1.510  10.337   1.470
24885SOL     OW76551   4.444   5.482   6.910
24885SOL    HW176552   4.494   5.547   6.958
24885SOL    HW276553   4.505   5.409   6.896
24886SOL     OW76554   9.939   2.201   2.221
24886SOL    HW176555   9.979   2.123   2.258
24886SOL    HW276556  10.008   2.243   2.169
24887SOL     OW76557  11.560  13.974  10.528
24887SOL    HW176558  11.553  14.018  10.612
24887SOL    HW276559  11.476  13.989  10.485
24888SOL     OW76560   6.830   2.248  11.554
24888SOL    HW176561   6.862   2.334  11.581
24888SOL    HW276562   6.804   2.205  11.636
24889SOL     OW76563   1.136  10.543   1.776
24889SOL    HW176564   1.071  10.610   1.799
24889SOL    HW276565   1.176  10.576   1.696
24890SOL     OW76566   6.162   9.339   6.890
24890SOL    HW176567   6.221   9.295   6.952
24890SOL    HW276568   6.076   9.299   6.905
24891SOL     OW76569   9.167   4.476   6.350
24891SOL    HW176570   9.188   4.553   6.403
24891SOL    HW276571   9.094   4.434   6.396
24892SOL     OW76572  10.083   1.099   9.243
24892SOL    HW176573  10.044   1.080   9.157
24892SOL    HW276574  10.088   1.195   9.246
24893SOL     OW76575   1.313   0.262   0.174
24893SOL    HW176576   1.253   0.210   0.228
24893SOL    HW276577   1.265   0.277   0.093
24894SOL     OW76578   9.857   7.533   4.842
24894SOL    HW176579   9.878   7.607   4.900
24894SOL    HW276580   9.935   7.478   4.844
24895SOL     OW76581   9.544   3.925  14.385
24895SOL    HW176582   9.449   3.914  14.375
24895SOL    HW276583   9.579   3.838  14.370
24896SOL     OW76584   9.355   8.100   6.363
24896SOL    HW176585   9.308   8.142   6.436
24896SOL    HW276586   9.443   8.083   6.398
24897SOL     OW76587  13.378   8.854   0.478
24897SOL    HW176588  13.296   8.868   0.526
24897SOL    HW276589  13.403   8.765   0.499
24898SOL     OW76590  14.241   2.515   6.665
24898SOL    HW176591  14.222   2.464   6.744
24898SOL    HW276592  14.295   2.587   6.696
24899SOL     OW76593  10.907   2.027  14.778
24899SOL    HW176594  10.949   2.060  14.858
24899SOL    HW276595  10.817   2.009  14.804
24900SOL     OW76596   7.727  13.438  10.618
24900SOL    HW176597   7.666  13.497  10.662
24900SOL    HW276598   7.761  13.488  10.544
24901SOL     OW76599   9.424   8.309   5.266
24901SOL    HW176600   9.347   8.364   5.277
24901SOL    HW276601   9.402   8.252   5.192
24902SOL     OW76602  14.005   8.999   9.737
24902SOL    HW176603  13.970   9.075   9.690
24902SOL    HW276604  13.927   8.953   9.768
24903SOL     OW76605  13.912   9.294   4.137
24903SOL    HW176606  13.884   9.226   4.076
24903SOL    HW276607  13.867   9.373   4.106
24904SOL     OW76608   5.836  10.958   4.333
24904SOL    HW176609   5.852  11.013   4.410
24904SOL    HW276610   5.767  11.003   4.285
24905SOL     OW76611   7.536   3.761  11.308
24905SOL    HW176612   7.557   3.829  11.371
24905SOL    HW276613   7.515   3.684  11.361
24906SOL     OW76614  14.461  12.703   7.689
24906SOL    HW176615  14.551  12.684   7.660
24906SOL    HW276616  14.459  12.798   7.697
24907SOL     OW76617   2.294  12.893   3.149
24907SOL    HW176618   2.316  12.866   3.061
24907SOL    HW276619   2.323  12.984   3.155
24908SOL     OW76620   7.736  11.434   3.072
24908SOL    HW176621   7.655  11.383   3.074
24908SOL    HW276622   7.707  11.525   3.077
24909SOL     OW76623  13.837   5.617  11.413
24909SOL    HW176624  13.748   5.644  11.393
24909SOL    HW276625  13.867   5.573  11.333
24910SOL     OW76626   0.681   5.991  10.573
24910SOL    HW176627   0.659   5.999  10.480
24910SOL    HW276628   0.645   6.070  10.613
24911SOL     OW76629   7.883  13.265  14.427
24911SOL    HW176630   7.905  13.227  14.512
24911SOL    HW276631   7.828  13.199  14.385
24912SOL     OW76632   9.481   0.299   7.040
24912SOL    HW176633   9.401   0.254   7.066
24912SOL    HW276634   9.464   0.391   7.061
24913SOL     OW76635   9.976   7.972   9.571
24913SOL    HW176636  10.069   7.986   9.552
24913SOL    HW276637   9.969   7.986   9.666
24914SOL     OW76638   5.019  13.232  12.118
24914SOL    HW176639   5.066  13.281  12.051
24914SOL    HW276640   5.083  13.167  12.149
24915SOL     OW76641  13.507  10.815  11.679
24915SOL    HW176642  13.521  10.864  11.599
24915SOL    HW276643  13.489  10.725  11.650
24916SOL     OW76644   2.945  12.980  13.842
24916SOL    HW176645   2.889  12.963  13.917
24916SOL    HW276646   2.949  12.896  13.795
24917SOL     OW76647  10.470   8.519   3.501
24917SOL    HW176648  10.498   8.582   3.568
24917SOL    HW276649  10.382   8.546   3.477
24918SOL     OW76650   7.432  11.178  10.494
24918SOL    HW176651   7.342  11.153  10.517
24918SOL    HW276652   7.478  11.094  10.487
24919SOL     OW76653   5.252   5.441   2.682
24919SOL    HW176654   5.269   5.364   2.737
24919SOL    HW276655   5.336   5.486   2.677
24920SOL     OW76656   0.872   5.017   6.301
24920SOL    HW176657   0.814   4.966   6.245
24920SOL    HW276658   0.837   5.106   6.298
24921SOL     OW76659  13.002   0.345  12.853
24921SOL    HW176660  13.087   0.316  12.818
24921SOL    HW276661  13.016   0.438  12.872
24922SOL     OW76662   4.855   1.588  13.939
24922SOL    HW176663   4.766   1.583  13.905
24922SOL    HW276664   4.881   1.497  13.953
24923SOL     OW76665  10.412  10.999   3.520
24923SOL    HW176666  10.344  11.034   3.462
24923SOL    HW276667  10.388  11.031   3.607
24924SOL     OW76668   3.815  10.717   6.655
24924SOL    HW176669   3.868  10.788   6.692
24924SOL    HW276670   3.732  10.722   6.703
24925SOL     OW76671  13.897   7.460   4.580
24925SOL    HW176672  13.961   7.391   4.562
24925SOL    HW276673  13.928   7.536   4.530
24926SOL     OW76674  14.862   9.427   9.117
24926SOL    HW176675   0.079   9.451   9.149
24926SOL    HW276676  14.847   9.339   9.152
24927SOL     OW76677  10.808   4.503   3.468
24927SOL    HW176678  10.865   4.435   3.504
24927SOL    HW276679  10.804   4.569   3.538
24928SOL     OW76680   3.205   0.869  12.458
24928SOL    HW176681   3.174   0.899  12.373
24928SOL    HW276682   3.282   0.815  12.439
24929SOL     OW76683   3.201   4.392   9.516
24929SOL    HW176684   3.235   4.411   9.429
24929SOL    HW276685   3.135   4.459   9.531
24930SOL     OW76686  10.103   2.638   8.406
24930SOL    HW176687  10.145   2.566   8.454
24930SOL    HW276688  10.152   2.643   8.324
24931SOL     OW76689   0.354   1.064   1.500
24931SOL    HW176690   0.299   1.101   1.431
24931SOL    HW276691   0.402   0.994   1.457
24932SOL     OW76692   4.124   5.516   1.421
24932SOL    HW176693   4.072   5.580   1.470
24932SOL    HW276694   4.170   5.466   1.489
24933SOL     OW76695   4.441  10.872  13.151
24933SOL    HW176696   4.413  10.955  13.113
24933SOL    HW276697   4.511  10.842  13.093
24934SOL     OW76698   8.805   2.815   9.529
24934SOL    HW176699   8.736   2.881   9.531
24934SOL    HW276700   8.758   2.731   9.530
24935SOL     OW76701  13.404  12.169  14.759
24935SOL    HW176702  13.424  12.261  14.738
24935SOL    HW276703  13.321  12.152  14.714
24936SOL     OW76704  10.900   6.646   2.612
24936SOL    HW176705  10.883   6.683   2.699
24936SOL    HW276706  10.985   6.602   2.621
24937SOL     OW76707   5.957   2.989   7.330
24937SOL    HW176708   6.031   3.025   7.281
24937SOL    HW276709   5.893   2.966   7.263
24938SOL     OW76710  13.626  11.084  10.162
24938SOL    HW176711  13.621  11.179  10.160
24938SOL    HW276712  13.577  11.055  10.085
24939SOL     OW76713   6.248   5.673  13.058
24939SOL    HW176714   6.199   5.752  13.033
24939SOL    HW276715   6.338   5.691  13.030
24940SOL     OW76716  13.870   1.877   1.200
24940SOL    HW176717  13.863   1.928   1.120
24940SOL    HW276718  13.786   1.890   1.244
24941SOL     OW76719   3.748   7.251  10.991
24941SOL    HW176720   3.699   7.317  10.942
24941SOL    HW276721   3.830   7.294  11.014
24942SOL     OW76722  10.058  12.313   4.523
24942SOL    HW176723  10.009  12.248   4.472
24942SOL    HW276724  10.148  12.279   4.524
24943SOL     OW76725  10.478  10.334   6.765
24943SOL    HW176726  10.493  10.346   6.671
24943SOL    HW276727  10.388  10.362   6.778
24944SOL     OW76728  11.285   5.307   2.607
24944SOL    HW176729  11.307   5.287   2.516
24944SOL    HW276730  11.206   5.257   2.625
24945SOL     OW76731  14.779   2.275   0.667
24945SOL    HW176732  14.706   2.213   0.671
24945SOL    HW276733  14.779   2.306   0.576
24946SOL     OW76734   0.148   3.549   1.925
24946SOL    HW176735   0.205   3.489   1.877
24946SOL    HW276736   0.135   3.622   1.865
24947SOL     OW76737   9.544  10.835   3.705
24947SOL    HW176738   9.575  10.796   3.624
24947SOL    HW276739   9.451  10.851   3.691
24948SOL     OW76740   3.733  14.002  14.236
24948SOL    HW176741   3.774  13.921  14.264
24948SOL    HW276742   3.759  14.067  14.302
24949SOL     OW76743   5.480   3.095   6.078
24949SOL    HW176744   5.406   3.043   6.048
24949SOL    HW276745   5.498   3.062   6.166
24950SOL     OW76746   1.480   9.864   2.097
24950SOL    HW176747   1.568   9.875   2.133
24950SOL    HW276748   1.439   9.950   2.106
24951SOL     OW76749   2.515   0.713  14.259
24951SOL    HW176750   2.454   0.649  14.295
24951SOL    HW276751   2.515   0.695  14.165
24952SOL     OW76752  12.843   2.207   8.588
24952SOL    HW176753  12.784   2.135   8.611
24952SOL    HW276754  12.864   2.191   8.495
24953SOL     OW76755   7.782   8.338  13.170
24953SOL    HW176756   7.876   8.348  13.187
24953SOL    HW276757   7.778   8.304  13.081
24954SOL     OW76758   6.409  10.554   4.728
24954SOL    HW176759   6.349  10.595   4.666
24954SOL    HW276760   6.457  10.626   4.767
24955SOL     OW76761   4.487   7.950   9.834
24955SOL    HW176762   4.540   8.018   9.791
24955SOL    HW276763   4.413   7.936   9.775
24956SOL     OW76764   0.575  10.955   6.588
24956SOL    HW176765   0.496  10.947   6.640
24956SOL    HW276766   0.646  10.967   6.651
24957SOL     OW76767  10.552  12.047   7.787
24957SOL    HW176768  10.545  12.015   7.877
24957SOL    HW276769  10.475  12.104   7.776
24958SOL     OW76770   1.619   1.569   2.429
24958SOL    HW176771   1.689   1.519   2.386
24958SOL    HW276772   1.638   1.560   2.523
24959SOL     OW76773  13.419  12.746  14.258
24959SOL    HW176774  13.411  12.727  14.164
24959SOL    HW276775  13.402  12.662  14.301
24960SOL     OW76776   2.832   3.773   3.032
24960SOL    HW176777   2.838   3.680   3.011
24960SOL    HW276778   2.866   3.780   3.121
24961SOL     OW76779   0.762  10.057  14.534
24961SOL    HW176780   0.774  10.022  14.446
24961SOL    HW276781   0.791   9.986  14.592
24962SOL     OW76782   8.290   9.875   9.095
24962SOL    HW176783   8.360   9.938   9.112
24962SOL    HW276784   8.290   9.865   8.999
24963SOL     OW76785   4.803  10.772  13.335
24963SOL    HW176786   4.811  10.862  13.367
24963SOL    HW276787   4.728  10.736  13.384
24964SOL     OW76788   4.519  13.285  10.761
24964SOL    HW176789   4.425  13.294  10.745
24964SOL    HW276790   4.526  13.274  10.856
24965SOL     OW76791  12.558   7.945   9.392
24965SOL    HW176792  12.640   7.994   9.401
24965SOL    HW276793  12.584   7.853   9.395
24966SOL     OW76794   9.709   5.943   4.022
24966SOL    HW176795   9.758   6.019   3.990
24966SOL    HW276796   9.617   5.969   4.015
24967SOL     OW76797   8.309  14.528  13.911
24967SOL    HW176798   8.367  14.489  13.977
24967SOL    HW276799   8.224  14.486  13.927
24968SOL     OW76800   9.729   7.577  11.350
24968SOL    HW176801   9.695   7.667  11.354
24968SOL    HW276802   9.652   7.524  11.329
24969SOL     OW76803   8.218   5.395   5.006
24969SOL    HW176804   8.184   5.430   4.924
24969SOL    HW276805   8.261   5.469   5.048
24970SOL     OW76806  12.898   4.409  14.836
24970SOL    HW176807  12.987   4.390  14.807
24970SOL    HW276808  12.906   4.492   0.014
24971SOL     OW76809   5.974   4.589   2.353
24971SOL    HW176810   6.033   4.616   2.423
24971SOL    HW276811   5.934   4.670   2.322
24972SOL     OW76812   2.426  12.121  14.193
24972SOL    HW176813   2.406  12.046  14.249
24972SOL    HW276814   2.518  12.111  14.171
24973SOL     OW76815  12.517   9.483  11.578
24973SOL    HW176816  12.542   9.413  11.639
24973SOL    HW276817  12.429   9.459  11.550
24974SOL     OW76818   1.045  14.480   5.428
24974SOL    HW176819   0.994  14.451   5.504
24974SOL    HW276820   1.129  14.508   5.465
24975SOL     OW76821   4.028   0.789  12.240
24975SOL    HW176822   4.038   0.842  12.161
24975SOL    HW276823   3.934   0.794  12.260
24976SOL     OW76824   6.445  11.690  13.020
24976SOL    HW176825   6.426  11.622  12.955
24976SOL    HW276826   6.492  11.645  13.089
24977SOL     OW76827   1.398   3.536   9.948
24977SOL    HW176828   1.336   3.474   9.986
24977SOL    HW276829   1.346   3.615   9.931
24978SOL     OW76830  12.711   1.389  12.953
24978SOL    HW176831  12.687   1.428  13.038
24978SOL    HW276832  12.627   1.364  12.914
24979SOL     OW76833  13.428   1.771  14.756
24979SOL    HW176834  13.359   1.758  14.691
24979SOL    HW276835  13.500   1.812  14.708
24980SOL     OW76836   8.566   3.561  10.663
24980SOL    HW176837   8.593   3.623  10.731
24980SOL    HW276838   8.613   3.590  10.585
24981SOL     OW76839   4.684   1.783  12.997
24981SOL    HW176840   4.602   1.747  12.962
24981SOL    HW276841   4.659   1.870  13.031
24982SOL     OW76842   2.769   2.576  12.077
24982SOL    HW176843   2.687   2.625  12.080
24982SOL    HW276844   2.821   2.621  12.011
24983SOL     OW76845   2.694   2.283   4.249
24983SOL    HW176846   2.743   2.229   4.311
24983SOL    HW276847   2.665   2.358   4.299
24984SOL     OW76848   3.509   6.108  13.180
24984SOL    HW176849   3.474   6.125  13.267
24984SOL    HW276850   3.479   6.182  13.127
24985SOL     OW76851   9.832   4.600  14.819
24985SOL    HW176852   9.860   4.529   0.006
24985SOL    HW276853   9.741   4.579  14.796
24986SOL     OW76854   7.655   6.649  11.413
24986SOL    HW176855   7.734   6.701  11.417
24986SOL    HW276856   7.620   6.666  11.325
24987SOL     OW76857   2.626   9.112   1.690
24987SOL    HW176858   2.585   9.026   1.694
24987SOL    HW276859   2.560   9.168   1.648
24988SOL     OW76860  12.908   7.962   3.705
24988SOL    HW176861  12.922   7.902   3.632
24988SOL    HW276862  12.987   7.950   3.759
24989SOL     OW76863   4.586   8.848  12.230
24989SOL    HW176864   4.506   8.817  12.188
24989SOL    HW276865   4.571   8.836  12.324
24990SOL     OW76866   5.963  14.856   8.187
24990SOL    HW176867   5.930  14.791   8.126
24990SOL    HW276868   6.057  14.839   8.192
24991SOL     OW76869   3.147   2.998   2.017
24991SOL    HW176870   3.078   2.941   1.983
24991SOL    HW276871   3.226   2.943   2.016
24992SOL     OW76872   3.055   3.672  12.335
24992SOL    HW176873   3.077   3.700  12.246
24992SOL    HW276874   3.100   3.735  12.392
24993SOL     OW76875   2.853  12.271   6.794
24993SOL    HW176876   2.830  12.198   6.852
24993SOL    HW276877   2.931  12.242   6.748
24994SOL     OW76878   6.367  13.129   4.240
24994SOL    HW176879   6.329  13.058   4.292
24994SOL    HW276880   6.381  13.200   4.302
24995SOL     OW76881  14.194   7.874   3.885
24995SOL    HW176882  14.151   7.797   3.921
24995SOL    HW276883  14.287   7.853   3.887
24996SOL     OW76884  10.057   1.486   1.192
24996SOL    HW176885   9.994   1.415   1.200
24996SOL    HW276886  10.063   1.504   1.098
24997SOL     OW76887  13.067  11.683  12.817
24997SOL    HW176888  13.082  11.740  12.742
24997SOL    HW276889  12.993  11.723  12.863
24998SOL     OW76890  11.330   4.666   9.228
24998SOL    HW176891  11.321   4.730   9.158
24998SOL    HW276892  11.391   4.601   9.193
24999SOL     OW76893  11.800  12.823  14.862
24999SOL    HW176894  11.814  12.814  14.768
24999SOL    HW276895  11.741  12.898   0.001
25000SOL     OW76896   7.900   6.762   2.699
25000SOL    HW176897   7.819   6.716   2.721
25000SOL    HW276898   7.881   6.854   2.717
25001SOL     OW76899   8.466  12.510   9.486
25001SOL    HW176900   8.392  12.568   9.468
25001SOL    HW276901   8.438  12.424   9.454
25002SOL     OW76902   5.515  11.324   6.696
25002SOL    HW176903   5.458  11.389   6.656
25002SOL    HW276904   5.571  11.294   6.624
25003SOL     OW76905   2.465   6.150  14.222
25003SOL    HW176906   2.499   6.172  14.309
25003SOL    HW276907   2.405   6.077  14.238
25004SOL     OW76908  12.073  11.992  11.767
25004SOL    HW176909  12.122  11.920  11.728
25004SOL    HW276910  12.065  11.969  11.859
25005SOL     OW76911   7.893   9.249   4.097
25005SOL    HW176912   7.906   9.295   4.180
25005SOL    HW276913   7.965   9.185   4.093
25006SOL     OW76914   1.751   2.198  11.608
25006SOL    HW176915   1.841   2.201  11.641
25006SOL    HW276916   1.716   2.115  11.643
25007SOL     OW76917  10.601  10.045   2.515
25007SOL    HW176918  10.583  10.094   2.435
25007SOL    HW276919  10.515  10.016   2.546
25008SOL     OW76920   4.676   5.243   1.058
25008SOL    HW176921   4.746   5.194   1.015
25008SOL    HW276922   4.699   5.241   1.151
25009SOL     OW76923   9.563  12.087  11.227
25009SOL    HW176924   9.536  12.143  11.153
25009SOL    HW276925   9.658  12.087  11.223
25010SOL     OW76926   3.274   0.154   6.660
25010SOL    HW176927   3.266   0.142   6.565
25010SOL    HW276928   3.362   0.190   6.672
25011SOL     OW76929   1.132  13.762   6.358
25011SOL    HW176930   1.089  13.683   6.326
25011SOL    HW276931   1.088  13.782   6.441
25012SOL     OW76932   2.776   6.645   1.444
25012SOL    HW176933   2.847   6.581   1.454
25012SOL    HW276934   2.788   6.681   1.356
25013SOL     OW76935   6.104   8.594   2.522
25013SOL    HW176936   6.185   8.596   2.574
25013SOL    HW276937   6.065   8.680   2.535
25014SOL     OW76938   6.090   3.991   4.738
25014SOL    HW176939   6.150   3.987   4.664
25014SOL    HW276940   6.102   4.079   4.774
25015SOL     OW76941   3.252   4.672  11.493
25015SOL    HW176942   3.331   4.693  11.444
25015SOL    HW276943   3.192   4.744  11.474
25016SOL     OW76944  11.209  10.417   6.921
25016SOL    HW176945  11.181  10.452   7.005
25016SOL    HW276946  11.134  10.367   6.889
25017SOL     OW76947   9.855   1.431  11.075
25017SOL    HW176948   9.855   1.337  11.093
25017SOL    HW276949   9.776   1.463  11.117
25018SOL     OW76950  10.719   5.131  14.326
25018SOL    HW176951  10.704   5.184  14.248
25018SOL    HW276952  10.640   5.077  14.334
25019SOL     OW76953   0.467   7.855   1.633
25019SOL    HW176954   0.450   7.863   1.727
25019SOL    HW276955   0.534   7.786   1.627
25020SOL     OW76956  14.863  14.065   4.870
25020SOL    HW176957  14.800  14.107   4.929
25020SOL    HW276958  14.857  13.972   4.892
25021SOL     OW76959  13.210   2.935   6.816
25021SOL    HW176960  13.289   2.954   6.765
25021SOL    HW276961  13.212   2.840   6.830
25022SOL     OW76962   2.371  10.560   8.952
25022SOL    HW176963   2.326  10.575   8.870
25022SOL    HW276964   2.427  10.637   8.964
25023SOL     OW76965   1.056   7.016   0.143
25023SOL    HW176966   1.121   7.084   0.127
25023SOL    HW276967   1.072   6.988   0.233
25024SOL     OW76968   5.205  12.410   4.471
25024SOL    HW176969   5.242  12.331   4.431
25024SOL    HW276970   5.119  12.383   4.504
25025SOL     OW76971   7.794  14.271  12.497
25025SOL    HW176972   7.829  14.182  12.510
25025SOL    HW276973   7.849  14.308  12.428
25026SOL     OW76974   0.045  14.431   2.905
25026SOL    HW176975   0.040  14.360   2.841
25026SOL    HW276976   0.082  14.391   2.984
25027SOL     OW76977   3.861   9.268   0.187
25027SOL    HW176978   3.875   9.286   0.094
25027SOL    HW276979   3.886   9.350   0.231
25028SOL     OW76980  10.438   6.912   7.392
25028SOL    HW176981  10.408   6.855   7.463
25028SOL    HW276982  10.495   6.856   7.339
25029SOL     OW76983   4.883   0.599  12.798
25029SOL    HW176984   4.968   0.610  12.757
25029SOL    HW276985   4.863   0.506  12.789
25030SOL     OW76986   5.962   9.330   3.219
25030SOL    HW176987   5.945   9.304   3.129
25030SOL    HW276988   5.881   9.310   3.266
25031SOL     OW76989   6.253  14.177  10.719
25031SOL    HW176990   6.204  14.254  10.692
25031SOL    HW276991   6.193  14.128  10.775
25032SOL     OW76992   4.616   7.041  11.699
25032SOL    HW176993   4.638   6.957  11.658
25032SOL    HW276994   4.530   7.027  11.738
25033SOL     OW76995   2.051  10.510   0.724
25033SOL    HW176996   1.992  10.534   0.653
25033SOL    HW276997   2.139  10.526   0.689
25034SOL     OW76998  12.211   6.347   1.741
25034SOL    HW176999  12.250   6.433   1.724
25034SOL    HW277000  12.198   6.310   1.654
25035SOL     OW77001   3.312   1.615   4.355
25035SOL    HW177002   3.350   1.537   4.316
25035SOL    HW277003   3.362   1.688   4.318
25036SOL     OW77004   4.934   5.385  11.372
25036SOL    HW177005   4.986   5.305  11.369
25036SOL    HW277006   4.991   5.448  11.418
25037SOL     OW77007   9.857   2.544   6.938
25037SOL    HW177008   9.811   2.608   6.883
25037SOL    HW277009   9.878   2.591   7.018
25038SOL     OW77010  14.140   5.036  10.954
25038SOL    HW177011  14.107   4.947  10.966
25038SOL    HW277012  14.234   5.030  10.973
25039SOL     OW77013  13.543   2.219   3.695
25039SOL    HW177014  13.481   2.273   3.743
25039SOL    HW277015  13.556   2.142   3.751
25040SOL     OW77016   6.070  10.964   4.673
25040SOL    HW177017   6.133  10.998   4.737
25040SOL    HW277018   6.077  10.869   4.680
25041SOL     OW77019   4.013   4.460   9.243
25041SOL    HW177020   4.063   4.537   9.267
25041SOL    HW277021   3.933   4.465   9.295
25042SOL     OW77022   1.353   0.637   5.014
25042SOL    HW177023   1.322   0.603   4.930
25042SOL    HW277024   1.436   0.592   5.028
25043SOL     OW77025   8.237   7.834   6.558
25043SOL    HW177026   8.201   7.864   6.474
25043SOL    HW277027   8.201   7.746   6.569
25044SOL     OW77028   0.565   9.304   4.475
25044SOL    HW177029   0.533   9.244   4.408
25044SOL    HW277030   0.640   9.258   4.514
25045SOL     OW77031   1.511  11.062   9.963
25045SOL    HW177032   1.543  11.150   9.940
25045SOL    HW277033   1.590  11.011   9.977
25046SOL     OW77034  10.204   9.657  12.374
25046SOL    HW177035  10.198   9.747  12.340
25046SOL    HW277036  10.113   9.628  12.381
25047SOL     OW77037   5.535   9.065  12.679
25047SOL    HW177038   5.533   9.038  12.771
25047SOL    HW277039   5.444   9.061  12.651
25048SOL     OW77040  10.912   9.539  13.416
25048SOL    HW177041  10.939   9.483  13.343
25048SOL    HW277042  10.951   9.499  13.493
25049SOL     OW77043  13.271   4.455   7.474
25049SOL    HW177044  13.297   4.415   7.557
25049SOL    HW277045  13.190   4.502   7.494
25050SOL     OW77046  10.874   1.604  12.803
25050SOL    HW177047  10.916   1.647  12.728
25050SOL    HW277048  10.781   1.602  12.779
25051SOL     OW77049   0.031   5.183  10.000
25051SOL    HW177050  14.850   5.221  10.071
25051SOL    HW277051   0.024   5.088  10.014
25052SOL     OW77052  11.619   4.124  10.651
25052SOL    HW177053  11.647   4.161  10.567
25052SOL    HW277054  11.676   4.166  10.715
25053SOL     OW77055  13.591   5.847   1.180
25053SOL    HW177056  13.664   5.807   1.132
25053SOL    HW277057  13.563   5.920   1.125
25054SOL     OW77058  12.641  11.061  12.234
25054SOL    HW177059  12.623  10.967  12.232
25054SOL    HW277060  12.574  11.097  12.292
25055SOL     OW77061   9.144   0.912   9.969
25055SOL    HW177062   9.142   0.906  10.065
25055SOL    HW277063   9.201   0.840   9.942
25056SOL     OW77064   2.374   9.165  10.559
25056SOL    HW177065   2.349   9.184  10.649
25056SOL    HW277066   2.395   9.251  10.521
25057SOL     OW77067   7.144   7.216   7.451
25057SOL    HW177068   7.142   7.289   7.514
25057SOL    HW277069   7.097   7.249   7.375
25058SOL     OW77070  10.645   5.522   0.611
25058SOL    HW177071  10.558   5.492   0.637
25058SOL    HW277072  10.635   5.616   0.596
25059SOL     OW77073   9.224   4.331  14.497
25059SOL    HW177074   9.133   4.333  14.466
25059SOL    HW277075   9.250   4.423  14.500
25060SOL     OW77076   3.360   1.014   8.303
25060SOL    HW177077   3.268   1.030   8.281
25060SOL    HW277078   3.400   1.101   8.298
25061SOL     OW77079   6.477   4.030   1.298
25061SOL    HW177080   6.413   4.097   1.274
25061SOL    HW277081   6.552   4.047   1.241
25062SOL     OW77082   0.871   7.137   6.784
25062SOL    HW177083   0.931   7.211   6.775
25062SOL    HW277084   0.784   7.174   6.771
25063SOL     OW77085   3.330   8.317   2.942
25063SOL    HW177086   3.281   8.348   2.865
25063SOL    HW277087   3.416   8.357   2.934
25064SOL     OW77088   1.363  12.482   9.404
25064SOL    HW177089   1.410  12.526   9.475
25064SOL    HW277090   1.332  12.552   9.347
25065SOL     OW77091  13.658   6.961  11.416
25065SOL    HW177092  13.615   7.028  11.363
25065SOL    HW277093  13.714   6.914  11.354
25066SOL     OW77094  13.687  11.104   1.248
25066SOL    HW177095  13.680  11.162   1.324
25066SOL    HW277096  13.778  11.114   1.218
25067SOL     OW77097   2.684   2.507   1.280
25067SOL    HW177098   2.706   2.458   1.360
25067SOL    HW277099   2.743   2.472   1.213
25068SOL     OW77100   5.127  10.831   1.309
25068SOL    HW177101   5.110  10.910   1.361
25068SOL    HW277102   5.074  10.763   1.351
25069SOL     OW77103   2.341   5.628  14.374
25069SOL    HW177104   2.347   5.702  14.434
25069SOL    HW277105   2.263   5.581  14.402
25070SOL     OW77106   4.335  10.101   6.252
25070SOL    HW177107   4.344  10.006   6.240
25070SOL    HW277108   4.275  10.127   6.182
25071SOL     OW77109   5.185   3.643   9.019
25071SOL    HW177110   5.165   3.625   9.111
25071SOL    HW277111   5.128   3.716   8.996
25072SOL     OW77112  10.509  14.505   2.771
25072SOL    HW177113  10.418  14.485   2.745
25072SOL    HW277114  10.502  14.537   2.861
25073SOL     OW77115  12.817   3.754   3.582
25073SOL    HW177116  12.820   3.736   3.676
25073SOL    HW277117  12.801   3.848   3.575
25074SOL     OW77118   4.810   0.642   0.308
25074SOL    HW177119   4.801   0.565   0.252
25074SOL    HW277120   4.873   0.616   0.375
25075SOL     OW77121   2.196  11.969  10.743
25075SOL    HW177122   2.254  11.893  10.753
25075SOL    HW277123   2.251  12.036  10.703
25076SOL     OW77124  14.571  10.747  14.044
25076SOL    HW177125  14.507  10.805  14.085
25076SOL    HW277126  14.525  10.710  13.968
25077SOL     OW77127   6.083   5.766   2.658
25077SOL    HW177128   6.040   5.721   2.584
25077SOL    HW277129   6.054   5.718   2.735
25078SOL     OW77130  13.058  11.904   2.318
25078SOL    HW177131  13.107  11.892   2.236
25078SOL    HW277132  12.976  11.945   2.291
25079SOL     OW77133   3.361  14.681  12.484
25079SOL    HW177134   3.332  14.755  12.538
25079SOL    HW277135   3.453  14.669  12.508
25080SOL     OW77136   2.802  12.855   2.758
25080SOL    HW177137   2.794  12.761   2.740
25080SOL    HW277138   2.822  12.893   2.673
25081SOL     OW77139  12.442  10.336   9.670
25081SOL    HW177140  12.449  10.302   9.581
25081SOL    HW277141  12.510  10.403   9.675
25082SOL     OW77142  10.660   8.300  11.087
25082SOL    HW177143  10.671   8.385  11.045
25082SOL    HW277144  10.585   8.311  11.145
25083SOL     OW77145   0.362  14.387   1.202
25083SOL    HW177146   0.278  14.429   1.187
25083SOL    HW277147   0.347  14.295   1.180
25084SOL     OW77148  14.396  11.665   2.943
25084SOL    HW177149  14.349  11.625   3.017
25084SOL    HW277150  14.331  11.669   2.873
25085SOL     OW77151  14.700  10.362   8.175
25085SOL    HW177152  14.670  10.426   8.239
25085SOL    HW277153  14.621  10.320   8.143
25086SOL     OW77154   8.458   8.462  13.415
25086SOL    HW177155   8.484   8.395  13.351
25086SOL    HW277156   8.377   8.499  13.379
25087SOL     OW77157   5.941  14.075  14.013
25087SOL    HW177158   6.014  14.020  14.042
25087SOL    HW277159   5.923  14.132  14.087
25088SOL     OW77160  14.008   3.037   7.809
25088SOL    HW177161  14.070   3.013   7.740
25088SOL    HW277162  13.994   2.955   7.858
25089SOL     OW77163   4.545   5.938   0.993
25089SOL    HW177164   4.450   5.927   1.000
25089SOL    HW277165   4.581   5.885   1.064
25090SOL     OW77166   2.369  10.673   1.536
25090SOL    HW177167   2.287  10.714   1.509
25090SOL    HW277168   2.435  10.710   1.476
25091SOL     OW77169  14.345   6.157  12.166
25091SOL    HW177170  14.431   6.187  12.195
25091SOL    HW277171  14.363   6.102  12.090
25092SOL     OW77172   9.589   9.636   6.730
25092SOL    HW177173   9.653   9.707   6.737
25092SOL    HW277174   9.504   9.678   6.742
25093SOL     OW77175   5.983   9.644   3.215
25093SOL    HW177176   5.937   9.673   3.136
25093SOL    HW277177   6.024   9.724   3.250
25094SOL     OW77178   3.017   2.598   1.270
25094SOL    HW177179   2.981   2.524   1.318
25094SOL    HW277180   3.075   2.642   1.333
25095SOL     OW77181   0.099  12.920   2.414
25095SOL    HW177182   0.011  12.931   2.379
25095SOL    HW277183   0.147  12.996   2.382
25096SOL     OW77184  13.800  14.767   0.851
25096SOL    HW177185  13.767  14.843   0.898
25096SOL    HW277186  13.822  14.800   0.764
25097SOL     OW77187   3.887   8.295   1.923
25097SOL    HW177188   3.803   8.265   1.886
25097SOL    HW277189   3.900   8.382   1.885
25098SOL     OW77190   5.407  11.307   1.292
25098SOL    HW177191   5.447  11.228   1.255
25098SOL    HW277192   5.316  11.303   1.263
25099SOL     OW77193   8.059  11.587   7.308
25099SOL    HW177194   8.032  11.527   7.238
25099SOL    HW277195   8.068  11.672   7.264
25100SOL     OW77196  10.414   3.275   4.965
25100SOL    HW177197  10.454   3.321   4.892
25100SOL    HW277198  10.487   3.243   5.017
25101SOL     OW77199   8.391   6.926   6.125
25101SOL    HW177200   8.317   6.868   6.139
25101SOL    HW277201   8.434   6.931   6.210
25102SOL     OW77202   1.619   7.616  13.494
25102SOL    HW177203   1.556   7.585  13.430
25102SOL    HW277204   1.687   7.549  13.495
25103SOL     OW77205   6.313  14.761  11.096
25103SOL    HW177206   6.250  14.833  11.102
25103SOL    HW277207   6.349  14.753  11.184
25104SOL     OW77208   7.807   0.181   8.839
25104SOL    HW177209   7.819   0.212   8.750
25104SOL    HW277210   7.748   0.105   8.831
25105SOL     OW77211  11.515  14.492   9.940
25105SOL    HW177212  11.444  14.550   9.914
25105SOL    HW277213  11.554  14.463   9.858
25106SOL     OW77214  12.406  14.564  11.574
25106SOL    HW177215  12.338  14.594  11.514
25106SOL    HW277216  12.458  14.642  11.593
25107SOL     OW77217   2.242  10.256   1.793
25107SOL    HW177218   2.277  10.301   1.716
25107SOL    HW277219   2.242  10.324   1.862
25108SOL     OW77220   3.394   4.020  13.074
25108SOL    HW177221   3.423   3.936  13.039
25108SOL    HW277222   3.474   4.073  13.078
25109SOL     OW77223   8.193   6.392   3.144
25109SOL    HW177224   8.236   6.308   3.164
25109SOL    HW277225   8.259   6.458   3.163
25110SOL     OW77226   0.505  14.249   8.808
25110SOL    HW177227   0.599  14.253   8.824
25110SOL    HW277228   0.495  14.271   8.715
25111SOL     OW77229   9.894   9.077   4.741
25111SOL    HW177230   9.857   9.156   4.781
25111SOL    HW277231   9.933   9.029   4.813
25112SOL     OW77232   2.659   3.714   3.965
25112SOL    HW177233   2.669   3.677   4.053
25112SOL    HW277234   2.575   3.759   3.967
25113SOL     OW77235   4.367   6.537   1.235
25113SOL    HW177236   4.369   6.632   1.247
25113SOL    HW277237   4.458   6.509   1.247
25114SOL     OW77238  12.242   2.504   7.194
25114SOL    HW177239  12.172   2.502   7.130
25114SOL    HW277240  12.208   2.455   7.269
25115SOL     OW77241  14.489   8.227   2.301
25115SOL    HW177242  14.504   8.232   2.207
25115SOL    HW277243  14.563   8.176   2.335
25116SOL     OW77244   7.570   1.799  12.461
25116SOL    HW177245   7.479   1.782  12.438
25116SOL    HW277246   7.618   1.723  12.426
25117SOL     OW77247   4.640   7.014   3.072
25117SOL    HW177248   4.655   6.936   3.126
25117SOL    HW277249   4.727   7.049   3.056
25118SOL     OW77250   8.255   6.156   6.568
25118SOL    HW177251   8.335   6.104   6.563
25118SOL    HW277252   8.267   6.211   6.645
25119SOL     OW77253   1.612  11.534   1.701
25119SOL    HW177254   1.547  11.582   1.752
25119SOL    HW277255   1.611  11.576   1.615
25120SOL     OW77256  10.091  14.106  10.627
25120SOL    HW177257  10.169  14.120  10.681
25120SOL    HW277258  10.018  14.121  10.687
25121SOL     OW77259   6.330   6.242   0.032
25121SOL    HW177260   6.309   6.315  14.845
25121SOL    HW277261   6.300   6.269   0.119
25122SOL     OW77262  14.759   1.542   4.559
25122SOL    HW177263  14.842   1.522   4.603
25122SOL    HW277264  14.772   1.628   4.521
25123SOL     OW77265   1.316   4.425  14.297
25123SOL    HW177266   1.392   4.401  14.351
25123SOL    HW277267   1.257   4.470  14.358
25124SOL     OW77268   5.886  12.556  11.199
25124SOL    HW177269   5.927  12.639  11.177
25124SOL    HW277270   5.839  12.530  11.120
25125SOL     OW77271   0.590   7.249   6.857
25125SOL    HW177272   0.496   7.239   6.872
25125SOL    HW277273   0.628   7.262   6.944
25126SOL     OW77274   2.586  12.011   6.273
25126SOL    HW177275   2.491  12.021   6.267
25126SOL    HW277276   2.606  12.031   6.364
25127SOL     OW77277   0.693   8.348   4.085
25127SOL    HW177278   0.650   8.344   4.000
25127SOL    HW277279   0.786   8.351   4.064
25128SOL     OW77280  14.591  12.084   6.265
25128SOL    HW177281  14.601  12.148   6.335
25128SOL    HW277282  14.548  12.132   6.194
25129SOL     OW77283   8.148   7.989   7.085
25129SOL    HW177284   8.195   8.036   7.154
25129SOL    HW277285   8.067   8.038   7.073
25130SOL     OW77286  14.644  14.034  14.666
25130SOL    HW177287  14.683  13.946  14.662
25130SOL    HW277288  14.693  14.085  14.601
25131SOL     OW77289   1.986   0.242   6.214
25131SOL    HW177290   2.042   0.271   6.142
25131SOL    HW277291   1.897   0.264   6.186
25132SOL     OW77292   4.134  10.986  13.304
25132SOL    HW177293   4.078  11.063  13.304
25132SOL    HW277294   4.135  10.957  13.396
25133SOL     OW77295   6.432   5.429   1.769
25133SOL    HW177296   6.389   5.345   1.758
25133SOL    HW277297   6.393   5.485   1.701
25134SOL     OW77298   8.116   3.085  12.853
25134SOL    HW177299   8.098   3.152  12.919
25134SOL    HW277300   8.181   3.028  12.893
25135SOL     OW77301  13.432  13.870   1.283
25135SOL    HW177302  13.360  13.825   1.237
25135SOL    HW277303  13.505  13.808   1.279
25136SOL     OW77304  11.993   2.496   0.958
25136SOL    HW177305  12.001   2.466   0.867
25136SOL    HW277306  12.003   2.591   0.954
25137SOL     OW77307   2.199   4.709   2.141
25137SOL    HW177308   2.265   4.778   2.134
25137SOL    HW277309   2.145   4.734   2.216
25138SOL     OW77310   5.160  13.984   7.851
25138SOL    HW177311   5.086  14.018   7.801
25138SOL    HW277312   5.217  13.945   7.785
25139SOL     OW77313   9.289   3.727   9.435
25139SOL    HW177314   9.375   3.712   9.474
25139SOL    HW277315   9.265   3.815   9.464
25140SOL     OW77316  11.461   0.033   8.578
25140SOL    HW177317  11.516  14.826   8.590
25140SOL    HW277318  11.453   0.043   8.483
25141SOL     OW77319   0.836   5.878  11.658
25141SOL    HW177320   0.766   5.891  11.722
25141SOL    HW277321   0.804   5.807  11.602
25142SOL     OW77322   5.736   3.170  12.626
25142SOL    HW177323   5.688   3.088  12.640
25142SOL    HW277324   5.728   3.216  12.709
25143SOL     OW77325  12.921  11.891  14.369
25143SOL    HW177326  12.987  11.949  14.332
25143SOL    HW277327  12.839  11.919  14.328
25144SOL     OW77328   9.163   2.324   9.208
25144SOL    HW177329   9.142   2.378   9.284
25144SOL    HW277330   9.202   2.245   9.244
25145SOL     OW77331   8.835   1.087  13.160
25145SOL    HW177332   8.861   1.176  13.134
25145SOL    HW277333   8.740   1.086  13.149
25146SOL     OW77334   9.548   1.645   2.088
25146SOL    HW177335   9.528   1.553   2.107
25146SOL    HW277336   9.474   1.675   2.035
25147SOL     OW77337  11.808   5.212  10.657
25147SOL    HW177338  11.718   5.242  10.645
25147SOL    HW277339  11.814   5.192  10.750
25148SOL     OW77340  12.236  12.222  13.434
25148SOL    HW177341  12.270  12.312  13.440
25148SOL    HW277342  12.267  12.180  13.514
25149SOL     OW77343   8.949   8.463   2.787
25149SOL    HW177344   8.933   8.382   2.740
25149SOL    HW277345   8.882   8.524   2.755
25150SOL     OW77346   7.792  13.374   8.985
25150SOL    HW177347   7.712  13.323   8.998
25150SOL    HW277348   7.777  13.422   8.904
25151SOL     OW77349  10.750   5.140   6.131
25151SOL    HW177350  10.736   5.120   6.224
25151SOL    HW277351  10.709   5.226   6.119
25152SOL     OW77352   0.679   0.230   2.584
25152SOL    HW177353   0.694   0.300   2.521
25152SOL    HW277354   0.671   0.151   2.530
25153SOL     OW77355   8.201   4.286  11.965
25153SOL    HW177356   8.268   4.340  12.008
25153SOL    HW277357   8.204   4.312  11.873
25154SOL     OW77358   5.641  11.500  12.531
25154SOL    HW177359   5.610  11.529  12.445
25154SOL    HW277360   5.609  11.567  12.592
25155SOL     OW77361   1.073   1.250  12.039
25155SOL    HW177362   1.124   1.292  11.970
25155SOL    HW277363   0.982   1.260  12.011
25156SOL     OW77364   3.892  14.048   2.804
25156SOL    HW177365   3.851  14.118   2.854
25156SOL    HW277366   3.867  14.065   2.713
25157SOL     OW77367   4.223  14.150  13.239
25157SOL    HW177368   4.221  14.170  13.333
25157SOL    HW277369   4.294  14.205  13.205
25158SOL     OW77370   5.976   4.438   3.183
25158SOL    HW177371   5.955   4.529   3.163
25158SOL    HW277372   6.021   4.441   3.267
25159SOL     OW77373   9.280   7.878   0.058
25159SOL    HW177374   9.299   7.961   0.014
25159SOL    HW277375   9.188   7.862   0.039
25160SOL     OW77376   5.252   2.928  11.169
25160SOL    HW177377   5.294   2.995  11.115
25160SOL    HW277378   5.260   2.848  11.118
25161SOL     OW77379   7.262  10.174   3.220
25161SOL    HW177380   7.315  10.215   3.288
25161SOL    HW277381   7.244  10.245   3.158
25162SOL     OW77382  10.303   8.468   6.124
25162SOL    HW177383  10.283   8.487   6.032
25162SOL    HW277384  10.305   8.553   6.166
25163SOL     OW77385   2.403  12.402  14.314
25163SOL    HW177386   2.320  12.430  14.275
25163SOL    HW277387   2.388  12.311  14.339
25164SOL     OW77388   2.161   8.760   8.541
25164SOL    HW177389   2.205   8.681   8.573
25164SOL    HW277390   2.220   8.831   8.564
25165SOL     OW77391   4.366   1.024  10.693
25165SOL    HW177392   4.398   1.111  10.667
25165SOL    HW277393   4.279   1.018  10.653
25166SOL     OW77394   5.781   0.412   6.486
25166SOL    HW177395   5.860   0.361   6.504
25166SOL    HW277396   5.737   0.364   6.416
25167SOL     OW77397   3.050   5.015   0.712
25167SOL    HW177398   3.025   5.043   0.624
25167SOL    HW277399   3.071   5.096   0.758
25168SOL     OW77400  12.374   6.800  13.009
25168SOL    HW177401  12.301   6.769  12.955
25168SOL    HW277402  12.416   6.719  13.040
25169SOL     OW77403  10.154   9.856  13.495
25169SOL    HW177404  10.144   9.767  13.528
25169SOL    HW277405  10.195   9.904  13.567
25170SOL     OW77406   1.486   6.118  11.257
25170SOL    HW177407   1.479   6.022  11.265
25170SOL    HW277408   1.451   6.137  11.171
25171SOL     OW77409  12.114   7.651   5.661
25171SOL    HW177410  12.182   7.587   5.640
25171SOL    HW277411  12.161   7.734   5.664
25172SOL     OW77412   7.135   1.385   5.056
25172SOL    HW177413   7.178   1.451   5.003
25172SOL    HW277414   7.125   1.310   4.998
25173SOL     OW77415   8.894   1.347  14.017
25173SOL    HW177416   8.830   1.414  14.040
25173SOL    HW277417   8.843   1.281  13.970
25174SOL     OW77418   9.754   3.325  13.606
25174SOL    HW177419   9.676   3.270  13.599
25174SOL    HW277420   9.802   3.308  13.525
25175SOL     OW77421  12.675   6.956   0.229
25175SOL    HW177422  12.753   6.941   0.283
25175SOL    HW277423  12.629   6.872   0.229
25176SOL     OW77424   4.348  13.872  14.489
25176SOL    HW177425   4.375  13.858  14.398
25176SOL    HW277426   4.390  13.800  14.538
25177SOL     OW77427   4.190   0.514  14.712
25177SOL    HW177428   4.264   0.567  14.742
25177SOL    HW277429   4.132   0.577  14.669
25178SOL     OW77430   2.770  12.725   7.594
25178SOL    HW177431   2.776  12.821   7.597
25178SOL    HW277432   2.677  12.709   7.574
25179SOL     OW77433   6.617  12.401   4.624
25179SOL    HW177434   6.693  12.358   4.585
25179SOL    HW277435   6.554  12.410   4.552
25180SOL     OW77436   3.963   2.728   0.850
25180SOL    HW177437   3.905   2.781   0.795
25180SOL    HW277438   4.003   2.792   0.910
25181SOL     OW77439   9.727   8.340   9.833
25181SOL    HW177440   9.744   8.421   9.786
25181SOL    HW277441   9.766   8.271   9.778
25182SOL     OW77442   2.325   7.590   7.684
25182SOL    HW177443   2.396   7.594   7.620
25182SOL    HW277444   2.354   7.646   7.756
25183SOL     OW77445  10.861   4.614  11.838
25183SOL    HW177446  10.892   4.539  11.788
25183SOL    HW277447  10.858   4.583  11.929
25184SOL     OW77448  10.099  12.453   7.318
25184SOL    HW177449  10.147  12.422   7.241
25184SOL    HW277450  10.053  12.531   7.287
25185SOL     OW77451   3.608  11.583  11.087
25185SOL    HW177452   3.675  11.532  11.133
25185SOL    HW277453   3.591  11.657  11.144
25186SOL     OW77454   6.258   6.222  13.341
25186SOL    HW177455   6.340   6.269  13.358
25186SOL    HW277456   6.276   6.132  13.367
25187SOL     OW77457   7.240  12.353   2.742
25187SOL    HW177458   7.152  12.389   2.736
25187SOL    HW277459   7.259  12.350   2.836
25188SOL     OW77460   2.188  13.609   4.313
25188SOL    HW177461   2.141  13.574   4.237
25188SOL    HW277462   2.228  13.532   4.353
25189SOL     OW77463   2.429   2.392   2.302
25189SOL    HW177464   2.500   2.329   2.285
25189SOL    HW277465   2.465   2.476   2.274
25190SOL     OW77466  10.465   5.679   9.567
25190SOL    HW177467  10.443   5.587   9.581
25190SOL    HW277468  10.558   5.685   9.587
25191SOL     OW77469   8.521   0.178  11.286
25191SOL    HW177470   8.542   0.086  11.301
25191SOL    HW277471   8.556   0.197  11.199
25192SOL     OW77472   7.005   4.807  11.287
25192SOL    HW177473   6.941   4.776  11.224
25192SOL    HW277474   6.979   4.767  11.370
25193SOL     OW77475   0.892  13.759  11.155
25193SOL    HW177476   0.944  13.742  11.077
25193SOL    HW277477   0.870  13.852  11.149
25194SOL     OW77478  13.652   8.428   6.250
25194SOL    HW177479  13.703   8.459   6.325
25194SOL    HW277480  13.601   8.504   6.223
25195SOL     OW77481   8.563  12.625  14.823
25195SOL    HW177482   8.537  12.666  14.740
25195SOL    HW277483   8.628  12.559  14.799
25196SOL     OW77484   3.070  10.597   0.839
25196SOL    HW177485   3.107  10.626   0.756
25196SOL    HW277486   2.979  10.625   0.836
25197SOL     OW77487   9.042   9.239  12.254
25197SOL    HW177488   8.953   9.223  12.286
25197SOL    HW277489   9.038   9.214  12.161
25198SOL     OW77490  14.608   3.872   1.730
25198SOL    HW177491  14.622   3.841   1.819
25198SOL    HW277492  14.524   3.916   1.732
25199SOL     OW77493  12.270   4.197   2.120
25199SOL    HW177494  12.181   4.197   2.156
25199SOL    HW277495  12.323   4.242   2.185
25200SOL     OW77496   9.712   4.802   7.192
25200SOL    HW177497   9.693   4.837   7.280
25200SOL    HW277498   9.708   4.707   7.203
25201SOL     OW77499  11.495  14.851   9.156
25201SOL    HW177500  11.479   0.075   9.161
25201SOL    HW277501  11.470  14.827   9.066
25202SOL     OW77502  12.747  10.770   6.021
25202SOL    HW177503  12.740  10.676   6.006
25202SOL    HW277504  12.675  10.808   5.971
25203SOL     OW77505   5.670   6.033   7.577
25203SOL    HW177506   5.719   5.958   7.543
25203SOL    HW277507   5.726   6.109   7.561
25204SOL     OW77508  10.821   8.453  13.808
25204SOL    HW177509  10.732   8.483  13.787
25204SOL    HW277510  10.811   8.359  13.822
25205SOL     OW77511   4.037  10.776   5.008
25205SOL    HW177512   4.012  10.684   5.022
25205SOL    HW277513   4.007  10.795   4.919
25206SOL     OW77514   8.156   5.183   5.337
25206SOL    HW177515   8.174   5.262   5.286
25206SOL    HW277516   8.061   5.171   5.329
25207SOL     OW77517   7.648   8.312  13.764
25207SOL    HW177518   7.566   8.362  13.765
25207SOL    HW277519   7.662   8.288  13.856
25208SOL     OW77520  11.753   8.753  14.711
25208SOL    HW177521  11.777   8.722  14.798
25208SOL    HW277522  11.660   8.731  14.703
25209SOL     OW77523  13.037  11.605   3.584
25209SOL    HW177524  13.027  11.545   3.658
25209SOL    HW277525  13.078  11.683   3.622
25210SOL     OW77526  14.283   8.517   3.404
25210SOL    HW177527  14.240   8.457   3.342
25210SOL    HW277528  14.257   8.486   3.490
25211SOL     OW77529  11.287  10.977   0.759
25211SOL    HW177530  11.253  10.932   0.682
25211SOL    HW277531  11.359  11.030   0.726
25212SOL     OW77532   2.432  12.814   2.523
25212SOL    HW177533   2.343  12.836   2.495
25212SOL    HW277534   2.427  12.721   2.545
25213SOL     OW77535  14.578   6.871   5.127
25213SOL    HW177536  14.579   6.875   5.031
25213SOL    HW277537  14.669   6.852   5.151
25214SOL     OW77538   0.799  14.424   2.509
25214SOL    HW177539   0.882  14.420   2.556
25214SOL    HW277540   0.787  14.337   2.473
25215SOL     OW77541   7.781   5.362  10.060
25215SOL    HW177542   7.873   5.352  10.083
25215SOL    HW277543   7.743   5.408  10.135
25216SOL     OW77544   5.918  13.514  14.508
25216SOL    HW177545   5.977  13.590  14.504
25216SOL    HW277546   5.926  13.474  14.421
25217SOL     OW77547   9.716   4.194   0.540
25217SOL    HW177548   9.746   4.264   0.482
25217SOL    HW277549   9.627   4.174   0.509
25218SOL     OW77550   9.782   1.907   0.428
25218SOL    HW177551   9.852   1.845   0.446
25218SOL    HW277552   9.762   1.895   0.335
25219SOL     OW77553   8.489  11.360   6.599
25219SOL    HW177554   8.518  11.444   6.563
25219SOL    HW277555   8.460  11.310   6.523
25220SOL     OW77556   9.786  14.741   3.429
25220SOL    HW177557   9.705  14.691   3.430
25220SOL    HW277558   9.850  14.683   3.469
25221SOL     OW77559   0.076   0.627   3.757
25221SOL    HW177560   0.097   0.657   3.669
25221SOL    HW277561   0.096   0.534   3.757
25222SOL     OW77562  11.647   2.617   9.220
25222SOL    HW177563  11.692   2.648   9.141
25222SOL    HW277564  11.559   2.653   9.213
25223SOL     OW77565   0.251   8.404   9.025
25223SOL    HW177566   0.177   8.457   9.057
25223SOL    HW277567   0.236   8.397   8.931
25224SOL     OW77568   3.948  14.799   4.586
25224SOL    HW177569   4.027  14.852   4.599
25224SOL    HW277570   3.905  14.800   4.672
25225SOL     OW77571   5.898  13.208  10.418
25225SOL    HW177572   5.978  13.239  10.376
25225SOL    HW277573   5.874  13.130  10.369
25226SOL     OW77574   3.651   7.946   5.580
25226SOL    HW177575   3.576   8.005   5.583
25226SOL    HW277576   3.616   7.863   5.548
25227SOL     OW77577   7.808   7.722   5.605
25227SOL    HW177578   7.798   7.653   5.670
25227SOL    HW277579   7.749   7.792   5.635
25228SOL     OW77580   1.842   3.543   8.036
25228SOL    HW177581   1.793   3.625   8.024
25228SOL    HW277582   1.912   3.565   8.097
25229SOL     OW77583  10.619   8.205   5.991
25229SOL    HW177584  10.676   8.234   5.920
25229SOL    HW277585  10.670   8.220   6.071
25230SOL     OW77586  10.641   1.886   9.518
25230SOL    HW177587  10.610   1.839   9.440
25230SOL    HW277588  10.729   1.915   9.494
25231SOL     OW77589   9.754   9.706   0.735
25231SOL    HW177590   9.764   9.628   0.679
25231SOL    HW277591   9.674   9.747   0.703
25232SOL     OW77592   8.428  11.439   4.946
25232SOL    HW177593   8.492  11.439   4.875
25232SOL    HW277594   8.401  11.531   4.954
25233SOL     OW77595   0.088   1.931  10.697
25233SOL    HW177596   0.182   1.947  10.699
25233SOL    HW277597   0.052   2.003  10.645
25234SOL     OW77598   2.932   6.191   2.363
25234SOL    HW177599   2.931   6.189   2.267
25234SOL    HW277600   2.978   6.111   2.388
25235SOL     OW77601  10.492   6.745  10.778
25235SOL    HW177602  10.427   6.675  10.775
25235SOL    HW277603  10.501   6.775  10.687
25236SOL     OW77604   8.268   9.776   3.201
25236SOL    HW177605   8.340   9.780   3.139
25236SOL    HW277606   8.217   9.700   3.173
25237SOL     OW77607   8.959  11.724   0.758
25237SOL    HW177608   8.926  11.682   0.679
25237SOL    HW277609   8.904  11.688   0.828
25238SOL     OW77610   4.927   5.705   0.573
25238SOL    HW177611   4.994   5.677   0.635
25238SOL    HW277612   4.970   5.702   0.488
25239SOL     OW77613   9.750   3.913   2.623
25239SOL    HW177614   9.748   3.991   2.566
25239SOL    HW277615   9.841   3.885   2.622
25240SOL     OW77616   4.356   2.523   0.017
25240SOL    HW177617   4.359   2.572  14.805
25240SOL    HW277618   4.426   2.459   0.009
25241SOL     OW77619  10.065   8.595   9.197
25241SOL    HW177620  10.160   8.593   9.203
25241SOL    HW277621  10.034   8.558   9.280
25242SOL     OW77622   7.769  12.681  11.549
25242SOL    HW177623   7.850  12.722  11.579
25242SOL    HW277624   7.792  12.589  11.536
25243SOL     OW77625   9.557   9.511  14.433
25243SOL    HW177626   9.588   9.486  14.346
25243SOL    HW277627   9.628   9.562  14.470
25244SOL     OW77628  13.537  12.497   8.180
25244SOL    HW177629  13.481  12.560   8.227
25244SOL    HW277630  13.590  12.456   8.249
25245SOL     OW77631   3.291   9.792   7.669
25245SOL    HW177632   3.284   9.699   7.687
25245SOL    HW277633   3.383   9.813   7.688
25246SOL     OW77634  12.286  11.007   5.802
25246SOL    HW177635  12.297  11.087   5.853
25246SOL    HW277636  12.212  10.962   5.843
25247SOL     OW77637   1.009   2.040  13.772
25247SOL    HW177638   0.959   2.073  13.697
25247SOL    HW277639   1.042   2.119  13.815
25248SOL     OW77640  10.627   3.272  13.505
25248SOL    HW177641  10.564   3.338  13.477
25248SOL    HW277642  10.707   3.291  13.455
25249SOL     OW77643   6.052  10.327  13.668
25249SOL    HW177644   6.134  10.279  13.681
25249SOL    HW277645   6.004  10.273  13.604
25250SOL     OW77646   6.115  10.038  11.872
25250SOL    HW177647   6.133  10.003  11.786
25250SOL    HW277648   6.051   9.977  11.910
25251SOL     OW77649  11.709   1.001  13.359
25251SOL    HW177650  11.786   1.036  13.405
25251SOL    HW277651  11.635   1.023  13.416
25252SOL     OW77652   9.034  11.212   4.613
25252SOL    HW177653   9.053  11.279   4.679
25252SOL    HW277654   9.115  11.162   4.605
25253SOL     OW77655   3.243   3.328   0.052
25253SOL    HW177656   3.301   3.302   0.124
25253SOL    HW277657   3.193   3.249   0.032
25254SOL     OW77658  11.615   3.671   3.997
25254SOL    HW177659  11.540   3.721   3.964
25254SOL    HW277660  11.689   3.730   3.986
25255SOL     OW77661   9.131  10.149   4.511
25255SOL    HW177662   9.204  10.099   4.473
25255SOL    HW277663   9.141  10.136   4.605
25256SOL     OW77664   6.448  14.480  11.457
25256SOL    HW177665   6.522  14.504  11.511
25256SOL    HW277666   6.487  14.451  11.374
25257SOL     OW77667   8.801   7.233  10.785
25257SOL    HW177668   8.873   7.270  10.836
25257SOL    HW277669   8.813   7.139  10.790
25258SOL     OW77670   4.600   9.668  10.551
25258SOL    HW177671   4.515   9.664  10.506
25258SOL    HW277672   4.633   9.578  10.548
25259SOL     OW77673   5.498   6.475  13.683
25259SOL    HW177674   5.418   6.506  13.724
25259SOL    HW277675   5.536   6.414  13.746
25260SOL     OW77676   5.215   1.602   9.173
25260SOL    HW177677   5.152   1.583   9.104
25260SOL    HW277678   5.262   1.680   9.143
25261SOL     OW77679   3.941   2.751  14.388
25261SOL    HW177680   3.933   2.672  14.442
25261SOL    HW277681   4.035   2.769  14.387
25262SOL     OW77682   0.187   9.958   1.952
25262SOL    HW177683   0.157  10.020   2.019
25262SOL    HW277684   0.115   9.957   1.888
25263SOL     OW77685   3.872  13.829  12.388
25263SOL    HW177686   3.787  13.870  12.371
25263SOL    HW277687   3.936  13.888  12.349
25264SOL     OW77688   4.500  14.681   6.617
25264SOL    HW177689   4.555  14.603   6.612
25264SOL    HW277690   4.436  14.670   6.546
25265SOL     OW77691   1.577  14.425  13.125
25265SOL    HW177692   1.653  14.462  13.170
25265SOL    HW277693   1.568  14.479  13.046
25266SOL     OW77694   5.167  12.462  10.458
25266SOL    HW177695   5.079  12.472  10.494
25266SOL    HW277696   5.153  12.439  10.366
25267SOL     OW77697   4.117   0.420   6.077
25267SOL    HW177698   4.165   0.341   6.103
25267SOL    HW277699   4.183   0.488   6.074
25268SOL     OW77700  14.722   3.926  11.261
25268SOL    HW177701  14.645   3.873  11.240
25268SOL    HW277702  14.797   3.872  11.237
25269SOL     OW77703   3.265   1.681   3.514
25269SOL    HW177704   3.232   1.603   3.471
25269SOL    HW277705   3.358   1.684   3.491
25270SOL     OW77706   3.932   0.756   1.499
25270SOL    HW177707   4.024   0.731   1.509
25270SOL    HW277708   3.914   0.742   1.406
25271SOL     OW77709  13.613   8.225  12.766
25271SOL    HW177710  13.623   8.288  12.838
25271SOL    HW277711  13.520   8.229  12.744
25272SOL     OW77712  11.185   4.841   0.423
25272SOL    HW177713  11.144   4.899   0.487
25272SOL    HW277714  11.114   4.816   0.365
25273SOL     OW77715  10.372   9.373   5.974
25273SOL    HW177716  10.296   9.327   5.938
25273SOL    HW277717  10.394   9.440   5.909
25274SOL     OW77718   3.783   1.253   0.709
25274SOL    HW177719   3.873   1.224   0.693
25274SOL    HW277720   3.735   1.173   0.731
25275SOL     OW77721   4.818   1.305   4.006
25275SOL    HW177722   4.779   1.377   3.957
25275SOL    HW277723   4.895   1.280   3.956
25276SOL     OW77724   2.684   6.554  14.247
25276SOL    HW177725   2.673   6.461  14.230
25276SOL    HW277726   2.779   6.565  14.256
25277SOL     OW77727   9.670   4.139   6.525
25277SOL    HW177728   9.733   4.149   6.454
25277SOL    HW277729   9.723   4.124   6.603
25278SOL     OW77730   1.031   8.663   8.173
25278SOL    HW177731   0.940   8.683   8.196
25278SOL    HW277732   1.081   8.737   8.207
25279SOL     OW77733   6.056  13.727   8.474
25279SOL    HW177734   6.026  13.788   8.406
25279SOL    HW277735   5.994  13.654   8.468
25280SOL     OW77736   7.172   7.793   0.551
25280SOL    HW177737   7.213   7.716   0.591
25280SOL    HW277738   7.079   7.769   0.542
25281SOL     OW77739   0.763  14.391  10.646
25281SOL    HW177740   0.785  14.305  10.680
25281SOL    HW277741   0.832  14.410  10.582
25282SOL     OW77742  10.341   3.836  12.254
25282SOL    HW177743  10.294   3.760  12.289
25282SOL    HW277744  10.359   3.813  12.163
25283SOL     OW77745  10.384   5.338   2.009
25283SOL    HW177746  10.403   5.244   2.010
25283SOL    HW277747  10.469   5.379   1.990
25284SOL     OW77748  14.769  10.444   0.664
25284SOL    HW177749  14.803  10.465   0.750
25284SOL    HW277750  14.723  10.523   0.636
25285SOL     OW77751   3.456   8.133  14.714
25285SOL    HW177752   3.491   8.103  14.630
25285SOL    HW277753   3.389   8.069  14.737
25286SOL     OW77754  13.801   4.562   7.556
25286SOL    HW177755  13.807   4.544   7.650
25286SOL    HW277756  13.816   4.477   7.514
25287SOL     OW77757   9.798  13.006  11.927
25287SOL    HW177758   9.832  12.975  11.843
25287SOL    HW277759   9.876  13.025  11.979
25288SOL     OW77760   8.745  10.240  10.176
25288SOL    HW177761   8.784  10.327  10.163
25288SOL    HW277762   8.673  10.254  10.237
25289SOL     OW77763   5.650   6.974  10.157
25289SOL    HW177764   5.560   6.941  10.164
25289SOL    HW277765   5.682   6.972  10.247
25290SOL     OW77766   9.880  10.876  12.333
25290SOL    HW177767   9.949  10.908  12.391
25290SOL    HW277768   9.832  10.813  12.386
25291SOL     OW77769  13.040   9.537   8.060
25291SOL    HW177770  13.088   9.456   8.071
25291SOL    HW277771  13.031   9.548   7.966
25292SOL     OW77772   6.728  10.461   8.412
25292SOL    HW177773   6.667  10.529   8.439
25292SOL    HW277774   6.711  10.388   8.472
25293SOL     OW77775   3.157  12.487   7.083
25293SOL    HW177776   3.179  12.552   7.149
25293SOL    HW277777   3.119  12.414   7.133
25294SOL     OW77778   0.113   0.636   8.367
25294SOL    HW177779   0.197   0.606   8.402
25294SOL    HW277780   0.055   0.636   8.443
25295SOL     OW77781   9.000   8.661   5.924
25295SOL    HW177782   9.027   8.746   5.890
25295SOL    HW277783   9.021   8.664   6.018
25296SOL     OW77784   2.333   8.880   1.984
25296SOL    HW177785   2.380   8.800   2.008
25296SOL    HW277786   2.327   8.875   1.888
25297SOL     OW77787   5.517   5.108   3.519
25297SOL    HW177788   5.448   5.053   3.481
25297SOL    HW277789   5.544   5.063   3.598
25298SOL     OW77790   2.833   9.476   9.578
25298SOL    HW177791   2.749   9.445   9.546
25298SOL    HW277792   2.870   9.525   9.505
25299SOL     OW77793   6.405   6.700  12.445
25299SOL    HW177794   6.449   6.752  12.513
25299SOL    HW277795   6.325   6.749  12.425
25300SOL     OW77796   7.003   3.714   5.868
25300SOL    HW177797   7.042   3.771   5.802
25300SOL    HW277798   6.915   3.695   5.834
25301SOL     OW77799   9.745   6.342   2.983
25301SOL    HW177800   9.793   6.420   3.010
25301SOL    HW277801   9.772   6.273   3.044
25302SOL     OW77802   9.361  10.253   6.444
25302SOL    HW177803   9.310  10.177   6.413
25302SOL    HW277804   9.438  10.255   6.388
25303SOL     OW77805  11.565   2.761  13.863
25303SOL    HW177806  11.588   2.728  13.950
25303SOL    HW277807  11.479   2.802  13.875
25304SOL     OW77808  13.768  12.594   2.187
25304SOL    HW177809  13.771  12.686   2.213
25304SOL    HW277810  13.860  12.570   2.176
25305SOL     OW77811   7.436  12.285  11.102
25305SOL    HW177812   7.508  12.222  11.107
25305SOL    HW277813   7.360  12.238  11.138
25306SOL     OW77814   9.747   1.493  11.926
25306SOL    HW177815   9.668   1.505  11.979
25306SOL    HW277816   9.819   1.491  11.990
25307SOL     OW77817  14.242   9.917   3.650
25307SOL    HW177818  14.228   9.922   3.745
25307SOL    HW277819  14.337   9.922   3.639
25308SOL     OW77820   2.871   9.474  13.737
25308SOL    HW177821   2.802   9.429  13.786
25308SOL    HW277822   2.902   9.542  13.797
25309SOL     OW77823   1.039   1.402   1.267
25309SOL    HW177824   0.994   1.381   1.185
25309SOL    HW277825   0.969   1.423   1.329
25310SOL     OW77826  12.126   8.150   5.579
25310SOL    HW177827  12.132   8.193   5.493
25310SOL    HW277828  12.032   8.139   5.593
25311SOL     OW77829   3.669   4.584   6.530
25311SOL    HW177830   3.708   4.524   6.466
25311SOL    HW277831   3.743   4.617   6.580
25312SOL     OW77832  12.523   6.290  10.928
25312SOL    HW177833  12.584   6.332  10.867
25312SOL    HW277834  12.436   6.308  10.891
25313SOL     OW77835  13.842   2.008  13.252
25313SOL    HW177836  13.790   1.966  13.321
25313SOL    HW277837  13.869   1.936  13.195
25314SOL     OW77838  13.907  13.744   6.390
25314SOL    HW177839  13.907  13.705   6.302
25314SOL    HW277840  14.000  13.747   6.415
25315SOL     OW77841   1.292  12.240  12.356
25315SOL    HW177842   1.334  12.266  12.437
25315SOL    HW277843   1.357  12.186  12.311
25316SOL     OW77844  12.695   9.795   7.042
25316SOL    HW177845  12.675   9.886   7.066
25316SOL    HW277846  12.682   9.791   6.948
25317SOL     OW77847   1.287   6.744   2.817
25317SOL    HW177848   1.332   6.795   2.884
25317SOL    HW277849   1.345   6.748   2.741
25318SOL     OW77850   8.760   4.510   9.162
25318SOL    HW177851   8.762   4.529   9.069
25318SOL    HW277852   8.770   4.415   9.168
25319SOL     OW77853   8.681   5.266   5.125
25319SOL    HW177854   8.647   5.323   5.194
25319SOL    HW277855   8.621   5.279   5.051
25320SOL     OW77856   7.794   7.009  14.632
25320SOL    HW177857   7.781   6.919  14.603
25320SOL    HW277858   7.790   7.004  14.728
25321SOL     OW77859  13.027  10.778   1.500
25321SOL    HW177860  13.106  10.778   1.445
25321SOL    HW277861  12.970  10.713   1.461
25322SOL     OW77862   8.372   2.489  14.545
25322SOL    HW177863   8.447   2.458  14.494
25322SOL    HW277864   8.357   2.579  14.513
25323SOL     OW77865  10.342   0.932   6.732
25323SOL    HW177866  10.264   0.945   6.785
25323SOL    HW277867  10.399   0.877   6.787
25324SOL     OW77868  11.246   4.717   4.507
25324SOL    HW177869  11.189   4.689   4.436
25324SOL    HW277870  11.195   4.784   4.554
25325SOL     OW77871   5.876   5.725  14.157
25325SOL    HW177872   5.901   5.791  14.092
25325SOL    HW277873   5.933   5.650  14.139
25326SOL     OW77874  11.822  13.586   8.303
25326SOL    HW177875  11.918  13.589   8.308
25326SOL    HW277876  11.803  13.501   8.263
25327SOL     OW77877   5.346   3.207  10.026
25327SOL    HW177878   5.391   3.291  10.019
25327SOL    HW277879   5.357   3.182  10.117
25328SOL     OW77880  14.732   4.985  12.407
25328SOL    HW177881  14.721   4.984  12.312
25328SOL    HW277882  14.777   4.903  12.427
25329SOL     OW77883   2.869   7.238   4.424
25329SOL    HW177884   2.808   7.166   4.408
25329SOL    HW277885   2.820   7.317   4.399
25330SOL     OW77886   0.864  14.178   0.218
25330SOL    HW177887   0.872  14.268   0.186
25330SOL    HW277888   0.778  14.174   0.259
25331SOL     OW77889  13.276  11.713   4.760
25331SOL    HW177890  13.318  11.791   4.798
25331SOL    HW277891  13.243  11.665   4.835
25332SOL     OW77892   8.550   5.376   0.401
25332SOL    HW177893   8.471   5.399   0.352
25332SOL    HW277894   8.549   5.436   0.476
25333SOL     OW77895  10.546   7.088   2.712
25333SOL    HW177896  10.495   7.024   2.761
25333SOL    HW277897  10.486   7.122   2.646
25334SOL     OW77898  10.814  14.692  14.322
25334SOL    HW177899  10.768  14.704  14.239
25334SOL    HW277900  10.761  14.739  14.386
25335SOL     OW77901   8.035   8.714   6.747
25335SOL    HW177902   8.015   8.701   6.840
25335SOL    HW277903   7.950   8.720   6.704
25336SOL     OW77904   7.821  13.041   8.796
25336SOL    HW177905   7.772  13.116   8.830
25336SOL    HW277906   7.758  12.994   8.742
25337SOL     OW77907  10.883   0.565   6.030
25337SOL    HW177908  10.965   0.517   6.019
25337SOL    HW277909  10.879   0.624   5.955
25338SOL     OW77910   1.119  12.180   7.369
25338SOL    HW177911   1.031  12.215   7.357
25338SOL    HW277912   1.134  12.126   7.292
25339SOL     OW77913   8.468   3.132  14.800
25339SOL    HW177914   8.445   3.115  14.708
25339SOL    HW277915   8.384   3.149  14.842
25340SOL     OW77916  11.282  10.127   8.481
25340SOL    HW177917  11.274  10.068   8.556
25340SOL    HW277918  11.243  10.209   8.511
25341SOL     OW77919   4.943   1.322   5.713
25341SOL    HW177920   4.952   1.252   5.778
25341SOL    HW277921   4.922   1.276   5.631
25342SOL     OW77922   3.676   4.544   1.049
25342SOL    HW177923   3.720   4.474   1.001
25342SOL    HW277924   3.738   4.569   1.118
25343SOL     OW77925   9.300   7.162   8.092
25343SOL    HW177926   9.303   7.230   8.158
25343SOL    HW277927   9.222   7.181   8.041
25344SOL     OW77928   2.244   0.612   0.853
25344SOL    HW177929   2.268   0.604   0.945
25344SOL    HW277930   2.307   0.674   0.817
25345SOL     OW77931   9.596   6.081  11.464
25345SOL    HW177932   9.644   6.160  11.487
25345SOL    HW277933   9.575   6.040  11.548
25346SOL     OW77934  14.493  13.621   9.979
25346SOL    HW177935  14.568  13.602  10.035
25346SOL    HW277936  14.471  13.712   9.997
25347SOL     OW77937   7.821   1.237   5.319
25347SOL    HW177938   7.731   1.209   5.338
25347SOL    HW277939   7.847   1.183   5.243
25348SOL     OW77940   2.745   7.140   1.319
25348SOL    HW177941   2.653   7.114   1.323
25348SOL    HW277942   2.746   7.230   1.352
25349SOL     OW77943  10.868   9.406   0.940
25349SOL    HW177944  10.909   9.351   1.007
25349SOL    HW277945  10.942   9.436   0.886
25350SOL     OW77946  14.531   7.484   6.495
25350SOL    HW177947  14.482   7.402   6.500
25350SOL    HW277948  14.556   7.502   6.586
25351SOL     OW77949  10.327   3.281  14.643
25351SOL    HW177950  10.353   3.348  14.707
25351SOL    HW277951  10.366   3.200  14.677
25352SOL     OW77952   3.930   1.610  12.143
25352SOL    HW177953   3.982   1.681  12.181
25352SOL    HW277954   3.972   1.591  12.059
25353SOL     OW77955  13.171  13.362   9.417
25353SOL    HW177956  13.185  13.318   9.501
25353SOL    HW277957  13.122  13.299   9.364
25354SOL     OW77958   9.975   0.076   4.311
25354SOL    HW177959   9.917   0.002   4.331
25354SOL    HW277960  10.045   0.069   4.375
25355SOL     OW77961   6.894  13.762   1.704
25355SOL    HW177962   6.944  13.839   1.733
25355SOL    HW277963   6.807  13.797   1.684
25356SOL     OW77964   3.607   6.136  13.930
25356SOL    HW177965   3.641   6.114  14.016
25356SOL    HW277966   3.683   6.131  13.872
25357SOL     OW77967  10.113   2.120  10.962
25357SOL    HW177968  10.095   2.069  10.884
25357SOL    HW277969  10.115   2.211  10.932
25358SOL     OW77970  14.311   6.773   3.104
25358SOL    HW177971  14.294   6.715   3.029
25358SOL    HW277972  14.371   6.839   3.069
25359SOL     OW77973   8.787   4.041   1.789
25359SOL    HW177974   8.780   4.044   1.694
25359SOL    HW277975   8.860   3.983   1.807
25360SOL     OW77976   7.694   8.739   6.020
25360SOL    HW177977   7.731   8.722   5.933
25360SOL    HW277978   7.612   8.689   6.021
25361SOL     OW77979   1.045   4.723   6.703
25361SOL    HW177980   1.112   4.717   6.635
25361SOL    HW277981   1.092   4.710   6.785
25362SOL     OW77982   2.254   4.113   6.900
25362SOL    HW177983   2.190   4.054   6.862
25362SOL    HW277984   2.270   4.178   6.831
25363SOL     OW77985   4.261  11.183   2.466
25363SOL    HW177986   4.342  11.209   2.509
25363SOL    HW277987   4.282  11.100   2.423
25364SOL     OW77988  13.624  12.987  13.279
25364SOL    HW177989  13.685  13.060  13.283
25364SOL    HW277990  13.580  12.996  13.194
25365SOL     OW77991  14.069   3.155   1.976
25365SOL    HW177992  14.057   3.222   1.909
25365SOL    HW277993  13.983   3.145   2.016
25366SOL     OW77994   8.042  13.269  13.519
25366SOL    HW177995   7.966  13.263  13.462
25366SOL    HW277996   8.108  13.313  13.466
25367SOL     OW77997  10.294  10.356   8.495
25367SOL    HW177998  10.266  10.311   8.415
25367SOL    HW277999  10.339  10.288   8.545
25368SOL     OW78000   9.759  12.297  13.537
25368SOL    HW178001   9.771  12.354  13.613
25368SOL    HW278002   9.764  12.357  13.462
25369SOL     OW78003   0.510   2.952  14.253
25369SOL    HW178004   0.463   2.983  14.176
25369SOL    HW278005   0.602   2.947  14.225
25370SOL     OW78006   2.979  11.042  12.752
25370SOL    HW178007   3.066  11.073  12.726
25370SOL    HW278008   2.919  11.110  12.722
25371SOL     OW78009   7.234   5.583   7.628
25371SOL    HW178010   7.172   5.512   7.648
25371SOL    HW278011   7.276   5.555   7.547
25372SOL     OW78012   6.287   2.699   3.976
25372SOL    HW178013   6.272   2.793   3.968
25372SOL    HW278014   6.366   2.692   4.030
25373SOL     OW78015   4.224   4.993   1.970
25373SOL    HW178016   4.207   5.045   2.049
25373SOL    HW278017   4.145   5.004   1.918
25374SOL     OW78018   5.887  13.886   2.577
25374SOL    HW178019   5.834  13.932   2.512
25374SOL    HW278020   5.970  13.868   2.533
25375SOL     OW78021  12.146   4.274  14.633
25375SOL    HW178022  12.160   4.306  14.722
25375SOL    HW278023  12.123   4.182  14.645
25376SOL     OW78024   5.855   3.428   3.666
25376SOL    HW178025   5.777   3.413   3.719
25376SOL    HW278026   5.852   3.521   3.645
25377SOL     OW78027   2.666   9.448   5.925
25377SOL    HW178028   2.582   9.404   5.916
25377SOL    HW278029   2.704   9.448   5.837
25378SOL     OW78030   5.894   1.737   0.427
25378SOL    HW178031   5.850   1.692   0.354
25378SOL    HW278032   5.941   1.667   0.472
25379SOL     OW78033   2.654  11.327   0.528
25379SOL    HW178034   2.724  11.284   0.578
25379SOL    HW278035   2.573  11.301   0.574
25380SOL     OW78036   4.724   9.207   3.798
25380SOL    HW178037   4.662   9.262   3.751
25380SOL    HW278038   4.753   9.260   3.872
25381SOL     OW78039   7.485   5.429   8.592
25381SOL    HW178040   7.564   5.468   8.629
25381SOL    HW278041   7.480   5.465   8.503
25382SOL     OW78042   0.070  11.824   4.401
25382SOL    HW178043   0.055  11.766   4.326
25382SOL    HW278044   0.062  11.912   4.365
25383SOL     OW78045  11.953   0.012   0.418
25383SOL    HW178046  11.909   0.007   0.333
25383SOL    HW278047  11.900   0.075   0.468
25384SOL     OW78048  13.297   9.313   9.147
25384SOL    HW178049  13.381   9.353   9.170
25384SOL    HW278050  13.294   9.318   9.051
25385SOL     OW78051   2.612   3.238   1.278
25385SOL    HW178052   2.545   3.195   1.225
25385SOL    HW278053   2.671   3.166   1.303
25386SOL     OW78054   3.439  12.761   2.499
25386SOL    HW178055   3.348  12.732   2.489
25386SOL    HW278056   3.487  12.681   2.522
25387SOL     OW78057  10.727   3.917  10.990
25387SOL    HW178058  10.753   4.009  10.983
25387SOL    HW278059  10.806   3.873  11.020
25388SOL     OW78060  10.605  10.114  10.445
25388SOL    HW178061  10.664  10.188  10.428
25388SOL    HW278062  10.560  10.137  10.526
25389SOL     OW78063   1.937  12.000   9.689
25389SOL    HW178064   1.891  11.920   9.714
25389SOL    HW278065   2.024  11.991   9.728
25390SOL     OW78066   6.056   0.515   0.593
25390SOL    HW178067   6.003   0.477   0.523
25390SOL    HW278068   6.062   0.608   0.570
25391SOL     OW78069   6.337  10.242  13.558
25391SOL    HW178070   6.383  10.219  13.638
25391SOL    HW278071   6.337  10.161  13.506
25392SOL     OW78072  14.208  13.615  12.793
25392SOL    HW178073  14.203  13.521  12.814
25392SOL    HW278074  14.294  13.641  12.825
25393SOL     OW78075   2.027  13.908  14.111
25393SOL    HW178076   2.048  13.828  14.062
25393SOL    HW278077   2.035  13.882  14.203
25394SOL     OW78078   5.723  14.164   5.562
25394SOL    HW178079   5.725  14.076   5.599
25394SOL    HW278080   5.781  14.215   5.617
25395SOL     OW78081   2.318  10.619  11.973
25395SOL    HW178082   2.352  10.703  11.942
25395SOL    HW278083   2.395  10.573  12.006
25396SOL     OW78084  14.375   2.147  13.884
25396SOL    HW178085  14.441   2.143  13.954
25396SOL    HW278086  14.325   2.226  13.902
25397SOL     OW78087   3.815  10.151   0.028
25397SOL    HW178088   3.826  10.074   0.084
25397SOL    HW278089   3.733  10.137  14.852
25398SOL     OW78090   7.439   6.641   3.927
25398SOL    HW178091   7.464   6.596   3.846
25398SOL    HW278092   7.522   6.662   3.970
25399SOL     OW78093   8.687  11.398   2.585
25399SOL    HW178094   8.768  11.376   2.539
25399SOL    HW278095   8.659  11.481   2.546
25400SOL     OW78096  13.380   3.880   5.015
25400SOL    HW178097  13.407   3.885   5.107
25400SOL    HW278098  13.331   3.798   5.009
25401SOL     OW78099   1.802  14.682   3.933
25401SOL    HW178100   1.819  14.606   3.878
25401SOL    HW278101   1.742  14.736   3.882
25402SOL     OW78102   1.066   9.787   4.766
25402SOL    HW178103   1.081   9.709   4.713
25402SOL    HW278104   1.146   9.839   4.755
25403SOL     OW78105  14.093   0.105   5.244
25403SOL    HW178106  14.011   0.150   5.224
25403SOL    HW278107  14.068   0.033   5.301
25404SOL     OW78108  10.539  13.595   8.808
25404SOL    HW178109  10.529  13.690   8.813
25404SOL    HW278110  10.558  13.568   8.898
25405SOL     OW78111   5.561   0.754   3.734
25405SOL    HW178112   5.585   0.719   3.648
25405SOL    HW278113   5.644   0.762   3.781
25406SOL     OW78114  10.517  14.597  14.199
25406SOL    HW178115  10.488  14.676  14.154
25406SOL    HW278116  10.478  14.603  14.286
25407SOL     OW78117   0.611   2.777   4.563
25407SOL    HW178118   0.626   2.867   4.593
25407SOL    HW278119   0.663   2.723   4.622
25408SOL     OW78120   8.666   0.410   8.173
25408SOL    HW178121   8.712   0.331   8.199
25408SOL    HW278122   8.627   0.444   8.253
25409SOL     OW78123   1.497   8.165   8.097
25409SOL    HW178124   1.554   8.120   8.036
25409SOL    HW278125   1.422   8.193   8.044
25410SOL     OW78126   6.348  14.838   8.990
25410SOL    HW178127   6.282  14.847   9.060
25410SOL    HW278128   6.297  14.824   8.911
25411SOL     OW78129   8.018   6.363  12.643
25411SOL    HW178130   7.970   6.282  12.658
25411SOL    HW278131   7.969   6.409  12.575
25412SOL     OW78132   0.607   1.038   2.923
25412SOL    HW178133   0.567   1.124   2.916
25412SOL    HW278134   0.684   1.051   2.979
25413SOL     OW78135   5.871  12.216   3.569
25413SOL    HW178136   5.803  12.268   3.612
25413SOL    HW278137   5.824  12.157   3.510
25414SOL     OW78138   3.886   3.262   8.321
25414SOL    HW178139   3.807   3.245   8.270
25414SOL    HW278140   3.864   3.234   8.409
25415SOL     OW78141   9.181   4.221   5.469
25415SOL    HW178142   9.197   4.141   5.519
25415SOL    HW278143   9.209   4.291   5.527
25416SOL     OW78144  10.231   5.116   0.639
25416SOL    HW178145  10.137   5.128   0.631
25416SOL    HW278146  10.263   5.110   0.549
25417SOL     OW78147  14.346  10.648   2.700
25417SOL    HW178148  14.387  10.635   2.786
25417SOL    HW278149  14.420  10.660   2.641
25418SOL     OW78150   6.564   8.388   3.401
25418SOL    HW178151   6.509   8.406   3.477
25418SOL    HW278152   6.502   8.383   3.327
25419SOL     OW78153   4.002  11.823  14.418
25419SOL    HW178154   4.041  11.767  14.484
25419SOL    HW278155   4.072  11.837  14.354
25420SOL     OW78156   9.331   6.753   8.738
25420SOL    HW178157   9.312   6.693   8.811
25420SOL    HW278158   9.255   6.745   8.680
25421SOL     OW78159   4.052   8.143   7.947
25421SOL    HW178160   4.056   8.233   7.915
25421SOL    HW278161   4.128   8.100   7.907
25422SOL     OW78162  13.981  10.045   7.870
25422SOL    HW178163  13.979  10.118   7.932
25422SOL    HW278164  13.992   9.968   7.925
25423SOL     OW78165   8.515  10.271   9.495
25423SOL    HW178166   8.476  10.200   9.444
25423SOL    HW278167   8.440  10.325   9.522
25424SOL     OW78168   0.111  12.630   7.867
25424SOL    HW178169   0.072  12.714   7.844
25424SOL    HW278170   0.174  12.613   7.797
25425SOL     OW78171   8.285   3.928  14.223
25425SOL    HW178172   8.322   4.014  14.240
25425SOL    HW278173   8.312   3.907  14.133
25426SOL     OW78174   0.003   7.524   8.409
25426SOL    HW178175   0.097   7.505   8.407
25426SOL    HW278176  14.841   7.475   8.485
25427SOL     OW78177   1.911   1.788   4.343
25427SOL    HW178178   2.007   1.787   4.345
25427SOL    HW278179   1.888   1.880   4.332
25428SOL     OW78180  11.865   7.909   8.086
25428SOL    HW178181  11.905   7.983   8.133
25428SOL    HW278182  11.843   7.945   8.000
25429SOL     OW78183  11.106   8.470   5.313
25429SOL    HW178184  11.129   8.415   5.238
25429SOL    HW278185  11.085   8.555   5.275
25430SOL     OW78186   9.648   4.557   1.302
25430SOL    HW178187   9.596   4.486   1.264
25430SOL    HW278188   9.609   4.572   1.388
25431SOL     OW78189   5.561   1.885   0.394
25431SOL    HW178190   5.621   1.815   0.420
25431SOL    HW278191   5.520   1.913   0.476
25432SOL     OW78192   2.292   5.175  13.758
25432SOL    HW178193   2.279   5.118  13.682
25432SOL    HW278194   2.206   5.178  13.800
25433SOL     OW78195   3.278   6.899  13.385
25433SOL    HW178196   3.302   6.859  13.301
25433SOL    HW278197   3.330   6.979  13.388
25434SOL     OW78198   5.399   1.466   5.977
25434SOL    HW178199   5.404   1.374   6.001
25434SOL    HW278200   5.312   1.475   5.937
25435SOL     OW78201   2.037  13.459   8.634
25435SOL    HW178202   2.117  13.510   8.628
25435SOL    HW278203   2.010  13.467   8.726
25436SOL     OW78204   4.741   7.309  14.179
25436SOL    HW178205   4.712   7.291  14.268
25436SOL    HW278206   4.662   7.299  14.125
25437SOL     OW78207  12.070   6.717   9.738
25437SOL    HW178208  12.045   6.736   9.647
25437SOL    HW278209  12.117   6.796   9.766
25438SOL     OW78210  13.986   9.901  13.480
25438SOL    HW178211  14.032   9.831  13.525
25438SOL    HW278212  13.995   9.879  13.387
25439SOL     OW78213   2.329   8.293   7.607
25439SOL    HW178214   2.323   8.328   7.696
25439SOL    HW278215   2.389   8.218   7.615
25440SOL     OW78216   2.322   4.539  10.251
25440SOL    HW178217   2.261   4.474  10.216
25440SOL    HW278218   2.377   4.563  10.175
25441SOL     OW78219   5.407  14.790   6.457
25441SOL    HW178220   5.474  14.758   6.517
25441SOL    HW278221   5.324  14.765   6.498
25442SOL     OW78222   3.770  10.897   3.126
25442SOL    HW178223   3.681  10.875   3.155
25442SOL    HW278224   3.768  10.883   3.031
25443SOL     OW78225   8.493   7.748   5.162
25443SOL    HW178226   8.420   7.687   5.151
25443SOL    HW278227   8.451   7.835   5.162
25444SOL     OW78228  11.685  13.411   5.927
25444SOL    HW178229  11.595  13.412   5.895
25444SOL    HW278230  11.704  13.318   5.943
25445SOL     OW78231  13.572  11.476  11.008
25445SOL    HW178232  13.478  11.487  11.022
25445SOL    HW278233  13.588  11.383  11.027
25446SOL     OW78234   5.177   3.876  12.159
25446SOL    HW178235   5.188   3.806  12.223
25446SOL    HW278236   5.083   3.893  12.157
25447SOL     OW78237   7.670  10.288  12.137
25447SOL    HW178238   7.681  10.254  12.225
25447SOL    HW278239   7.641  10.212  12.085
25448SOL     OW78240  14.174   3.050   3.873
25448SOL    HW178241  14.150   3.091   3.956
25448SOL    HW278242  14.252   2.998   3.894
25449SOL     OW78243  13.403   4.137  13.051
25449SOL    HW178244  13.367   4.120  13.138
25449SOL    HW278245  13.373   4.063  12.997
25450SOL     OW78246  11.397   3.475   0.401
25450SOL    HW178247  11.478   3.424   0.393
25450SOL    HW278248  11.401   3.512   0.490
25451SOL     OW78249  11.097   1.534   1.921
25451SOL    HW178250  11.070   1.481   1.995
25451SOL    HW278251  11.168   1.589   1.955
25452SOL     OW78252   4.946   7.414   8.752
25452SOL    HW178253   5.001   7.353   8.704
25452SOL    HW278254   4.881   7.444   8.688
25453SOL     OW78255   7.384  12.184   8.769
25453SOL    HW178256   7.353  12.272   8.747
25453SOL    HW278257   7.318  12.149   8.828
25454SOL     OW78258   9.148  10.382  10.408
25454SOL    HW178259   9.118  10.370  10.318
25454SOL    HW278260   9.211  10.455  10.403
25455SOL     OW78261   9.020   5.306   8.798
25455SOL    HW178262   9.101   5.315   8.848
25455SOL    HW278263   8.966   5.381   8.825
25456SOL     OW78264   1.046   0.544  14.741
25456SOL    HW178265   1.064   0.557  14.648
25456SOL    HW278266   1.023   0.631  14.773
25457SOL     OW78267   5.381   6.905  10.069
25457SOL    HW178268   5.324   6.893  10.146
25457SOL    HW278269   5.344   6.847  10.003
25458SOL     OW78270  14.811  12.399   1.013
25458SOL    HW178271  14.756  12.475   1.032
25458SOL    HW278272  14.848  12.417   0.927
25459SOL     OW78273  11.877  14.380  14.111
25459SOL    HW178274  11.932  14.340  14.043
25459SOL    HW278275  11.864  14.311  14.175
25460SOL     OW78276   9.942   8.440   8.286
25460SOL    HW178277   9.874   8.375   8.268
25460SOL    HW278278   9.908   8.492   8.358
25461SOL     OW78279   2.300   1.498   0.047
25461SOL    HW178280   2.360   1.560   0.088
25461SOL    HW278281   2.238   1.475   0.116
25462SOL     OW78282   9.060   8.482   6.153
25462SOL    HW178283   9.039   8.490   6.246
25462SOL    HW278284   9.080   8.389   6.141
25463SOL     OW78285   3.212  10.680  14.420
25463SOL    HW178286   3.151  10.706  14.489
25463SOL    HW278287   3.271  10.754  14.410
25464SOL     OW78288   6.412  10.182   0.526
25464SOL    HW178289   6.361  10.263   0.527
25464SOL    HW278290   6.347  10.113   0.518
25465SOL     OW78291  14.455   2.961   7.423
25465SOL    HW178292  14.462   3.040   7.369
25465SOL    HW278293  14.427   2.893   7.361
25466SOL     OW78294  10.486   3.541   3.427
25466SOL    HW178295  10.397   3.544   3.390
25466SOL    HW278296  10.543   3.561   3.353
25467SOL     OW78297  11.624  13.852  14.807
25467SOL    HW178298  11.633  13.901  14.725
25467SOL    HW278299  11.609  13.920   0.003
25468SOL     OW78300   4.595   8.501   6.455
25468SOL    HW178301   4.502   8.521   6.444
25468SOL    HW278302   4.613   8.521   6.547
25469SOL     OW78303   6.658  10.173   1.699
25469SOL    HW178304   6.579  10.224   1.680
25469SOL    HW278305   6.682  10.134   1.616
25470SOL     OW78306   3.170   8.263  12.564
25470SOL    HW178307   3.248   8.310  12.596
25470SOL    HW278308   3.160   8.191  12.625
25471SOL     OW78309   9.322   0.115   7.917
25471SOL    HW178310   9.258   0.183   7.896
25471SOL    HW278311   9.389   0.125   7.849
25472SOL     OW78312  13.043   4.268   7.056
25472SOL    HW178313  13.131   4.290   7.085
25472SOL    HW278314  13.034   4.175   7.076
25473SOL     OW78315  13.144   6.289   8.680
25473SOL    HW178316  13.137   6.202   8.721
25473SOL    HW278317  13.163   6.348   8.752
25474SOL     OW78318   5.643   1.264   0.110
25474SOL    HW178319   5.685   1.312   0.181
25474SOL    HW278320   5.617   1.180   0.150
25475SOL     OW78321   0.073  13.173   4.929
25475SOL    HW178322   0.010  13.106   4.901
25475SOL    HW278323   0.090  13.152   5.021
25476SOL     OW78324  12.337  14.290   8.558
25476SOL    HW178325  12.295  14.329   8.481
25476SOL    HW278326  12.339  14.360   8.623
25477SOL     OW78327  12.888   6.340   7.842
25477SOL    HW178328  12.876   6.435   7.852
25477SOL    HW278329  12.982   6.327   7.859
25478SOL     OW78330   2.596  13.253  14.319
25478SOL    HW178331   2.681  13.221  14.348
25478SOL    HW278332   2.552  13.176  14.282
25479SOL     OW78333  13.300  10.243  11.585
25479SOL    HW178334  13.333  10.228  11.674
25479SOL    HW278335  13.219  10.191  11.582
25480SOL     OW78336   8.209  12.810   6.858
25480SOL    HW178337   8.291  12.809   6.809
25480SOL    HW278338   8.143  12.784   6.793
25481SOL     OW78339   1.785   9.602  12.717
25481SOL    HW178340   1.715   9.655  12.756
25481SOL    HW278341   1.782   9.519  12.765
25482SOL     OW78342  13.353   8.271  10.614
25482SOL    HW178343  13.420   8.227  10.561
25482SOL    HW278344  13.378   8.251  10.704
25483SOL     OW78345   5.231  12.820  10.507
25483SOL    HW178346   5.248  12.830  10.601
25483SOL    HW278347   5.191  12.733  10.500
25484SOL     OW78348   7.979   3.720   5.864
25484SOL    HW178349   8.057   3.732   5.809
25484SOL    HW278350   7.938   3.806   5.867
25485SOL     OW78351  14.845   5.001   4.237
25485SOL    HW178352  14.761   4.977   4.197
25485SOL    HW278353  14.856   5.094   4.217
25486SOL     OW78354   6.564  13.449  10.066
25486SOL    HW178355   6.659  13.454  10.066
25486SOL    HW278356   6.538  13.478   9.979
25487SOL     OW78357  10.107  10.502   1.085
25487SOL    HW178358  10.108  10.439   1.157
25487SOL    HW278359  10.099  10.450   1.006
25488SOL     OW78360   3.312  10.335   9.780
25488SOL    HW178361   3.313  10.422   9.740
25488SOL    HW278362   3.387  10.290   9.741
25489SOL     OW78363   8.576  14.315   3.749
25489SOL    HW178364   8.554  14.301   3.841
25489SOL    HW278365   8.556  14.232   3.706
25490SOL     OW78366   0.285   8.990   0.122
25490SOL    HW178367   0.235   8.982   0.203
25490SOL    HW278368   0.371   9.020   0.149
25491SOL     OW78369   2.780  11.000  11.203
25491SOL    HW178370   2.808  11.013  11.113
25491SOL    HW278371   2.689  11.028  11.205
25492SOL     OW78372  14.044  12.273   4.183
25492SOL    HW178373  13.976  12.337   4.205
25492SOL    HW278374  13.996  12.197   4.151
25493SOL     OW78375   0.783  13.315  11.454
25493SOL    HW178376   0.755  13.401  11.484
25493SOL    HW278377   0.854  13.333  11.392
25494SOL     OW78378   4.994   2.613   7.099
25494SOL    HW178379   5.023   2.704   7.092
25494SOL    HW278380   5.007   2.591   7.191
25495SOL     OW78381   1.917   7.391   6.990
25495SOL    HW178382   1.928   7.395   6.895
25495SOL    HW278383   1.829   7.356   7.002
25496SOL     OW78384   4.485   5.974   3.440
25496SOL    HW178385   4.480   6.048   3.501
25496SOL    HW278386   4.408   5.921   3.461
25497SOL     OW78387   2.684  12.188  14.462
25497SOL    HW178388   2.692  12.119  14.529
25497SOL    HW278389   2.596  12.223  14.474
25498SOL     OW78390   7.704   0.903  12.591
25498SOL    HW178391   7.643   0.862  12.529
25498SOL    HW278392   7.728   0.833  12.652
25499SOL     OW78393   1.173  13.821   6.888
25499SOL    HW178394   1.166  13.886   6.958
25499SOL    HW278395   1.138  13.741   6.927
25500SOL     OW78396   9.869   3.123   6.270
25500SOL    HW178397   9.882   3.177   6.191
25500SOL    HW278398   9.871   3.033   6.237
25501SOL     OW78399  14.177   9.082   4.927
25501SOL    HW178400  14.238   9.072   4.854
25501SOL    HW278401  14.091   9.065   4.890
25502SOL     OW78402   8.442   5.763  12.844
25502SOL    HW178403   8.406   5.836  12.793
25502SOL    HW278404   8.370   5.700  12.850
25503SOL     OW78405   6.912   0.420  11.748
25503SOL    HW178406   6.878   0.443  11.835
25503SOL    HW278407   6.898   0.500  11.696
25504SOL     OW78408   5.009  14.252   2.976
25504SOL    HW178409   4.985  14.327   2.921
25504SOL    HW278410   5.053  14.291   3.052
25505SOL     OW78411  14.077   6.154   3.238
25505SOL    HW178412  14.008   6.151   3.171
25505SOL    HW278413  14.069   6.241   3.277
25506SOL     OW78414   7.782   7.573   7.152
25506SOL    HW178415   7.709   7.601   7.097
25506SOL    HW278416   7.850   7.639   7.137
25507SOL     OW78417   6.371   6.359   2.365
25507SOL    HW178418   6.412   6.437   2.327
25507SOL    HW278419   6.308   6.330   2.299
25508SOL     OW78420  13.491   8.367   8.291
25508SOL    HW178421  13.413   8.337   8.243
25508SOL    HW278422  13.563   8.354   8.229
25509SOL     OW78423  14.266   6.753   3.410
25509SOL    HW178424  14.281   6.696   3.334
25509SOL    HW278425  14.337   6.817   3.407
25510SOL     OW78426   3.464   1.032   4.103
25510SOL    HW178427   3.413   1.079   4.037
25510SOL    HW278428   3.496   0.955   4.057
25511SOL     OW78429  10.959   4.956  14.123
25511SOL    HW178430  10.871   4.993  14.115
25511SOL    HW278431  11.000   4.975  14.039
25512SOL     OW78432   4.894   5.419   3.748
25512SOL    HW178433   4.973   5.429   3.696
25512SOL    HW278434   4.873   5.326   3.743
25513SOL     OW78435  14.357   5.176  10.723
25513SOL    HW178436  14.386   5.150  10.811
25513SOL    HW278437  14.319   5.097  10.686
25514SOL     OW78438   5.513  11.750   7.456
25514SOL    HW178439   5.457  11.737   7.379
25514SOL    HW278440   5.590  11.696   7.439
25515SOL     OW78441   2.469   2.576   6.704
25515SOL    HW178442   2.548   2.582   6.649
25515SOL    HW278443   2.411   2.644   6.669
25516SOL     OW78444  10.641   7.948   8.342
25516SOL    HW178445  10.612   7.901   8.420
25516SOL    HW278446  10.711   8.005   8.372
25517SOL     OW78447   9.796  12.277   3.643
25517SOL    HW178448   9.872  12.242   3.689
25517SOL    HW278449   9.740  12.201   3.627
25518SOL     OW78450  11.168   9.341   2.879
25518SOL    HW178451  11.239   9.279   2.862
25518SOL    HW278452  11.089   9.293   2.856
25519SOL     OW78453   3.796   2.369   9.382
25519SOL    HW178454   3.846   2.287   9.375
25519SOL    HW278455   3.861   2.433   9.410
25520SOL     OW78456  11.748   2.394   1.134
25520SOL    HW178457  11.690   2.333   1.087
25520SOL    HW278458  11.818   2.412   1.072
25521SOL     OW78459   3.017   2.675  10.136
25521SOL    HW178460   2.934   2.636  10.106
25521SOL    HW278461   2.992   2.761  10.170
25522SOL     OW78462   1.442  14.495   8.277
25522SOL    HW178463   1.374  14.561   8.288
25522SOL    HW278464   1.428  14.433   8.349
25523SOL     OW78465   5.079   3.256   0.542
25523SOL    HW178466   5.006   3.244   0.602
25523SOL    HW278467   5.039   3.288   0.461
25524SOL     OW78468  13.901   8.063   1.290
25524SOL    HW178469  13.828   8.123   1.271
25524SOL    HW278470  13.979   8.117   1.279
25525SOL     OW78471   6.176  14.754  12.939
25525SOL    HW178472   6.245  14.785  12.880
25525SOL    HW278473   6.136  14.835  12.972
25526SOL     OW78474  13.177   9.088   2.173
25526SOL    HW178475  13.258   9.135   2.154
25526SOL    HW278476  13.191   9.049   2.259
25527SOL     OW78477   0.062  12.725   8.137
25527SOL    HW178478   0.154  12.746   8.153
25527SOL    HW278479   0.062  12.677   8.054
25528SOL     OW78480   5.328   2.280   4.516
25528SOL    HW178481   5.240   2.317   4.520
25528SOL    HW278482   5.321   2.206   4.456
25529SOL     OW78483   2.280   1.137   2.678
25529SOL    HW178484   2.275   1.231   2.698
25529SOL    HW278485   2.373   1.115   2.690
25530SOL     OW78486  11.821   0.489  14.562
25530SOL    HW178487  11.789   0.423  14.624
25530SOL    HW278488  11.875   0.547  14.615
25531SOL     OW78489   9.946   1.733  10.519
25531SOL    HW178490   9.903   1.792  10.458
25531SOL    HW278491   9.878   1.670  10.544
25532SOL     OW78492   2.018   5.341   0.246
25532SOL    HW178493   1.953   5.297   0.192
25532SOL    HW278494   2.048   5.275   0.308
25533SOL     OW78495  12.679   5.689  12.451
25533SOL    HW178496  12.732   5.640  12.388
25533SOL    HW278497  12.696   5.646  12.535
25534SOL     OW78498  11.641   0.753   4.578
25534SOL    HW178499  11.694   0.826   4.546
25534SOL    HW278500  11.694   0.713   4.646
25535SOL     OW78501   8.833   4.333   1.040
25535SOL    HW178502   8.867   4.422   1.049
25535SOL    HW278503   8.755   4.331   1.095
25536SOL     OW78504  10.280  11.679   0.854
25536SOL    HW178505  10.230  11.676   0.935
25536SOL    HW278506  10.316  11.768   0.851
25537SOL     OW78507   4.189  14.225  13.489
25537SOL    HW178508   4.133  14.198  13.562
25537SOL    HW278509   4.178  14.320  13.485
25538SOL     OW78510   9.101  13.538   5.782
25538SOL    HW178511   9.087  13.543   5.687
25538SOL    HW278512   9.193  13.561   5.793
25539SOL     OW78513   4.800   0.385   2.081
25539SOL    HW178514   4.803   0.313   2.144
25539SOL    HW278515   4.814   0.464   2.133
25540SOL     OW78516   3.549  12.235   4.387
25540SOL    HW178517   3.548  12.188   4.470
25540SOL    HW278518   3.582  12.172   4.323
25541SOL     OW78519  11.965   8.468  13.243
25541SOL    HW178520  11.967   8.405  13.315
25541SOL    HW278521  11.939   8.551  13.284
25542SOL     OW78522   2.301   8.609   4.540
25542SOL    HW178523   2.322   8.701   4.530
25542SOL    HW278524   2.370   8.575   4.598
25543SOL     OW78525  12.955   1.321   8.577
25543SOL    HW178526  12.920   1.244   8.622
25543SOL    HW278527  12.978   1.288   8.489
25544SOL     OW78528  11.577  12.744   8.712
25544SOL    HW178529  11.488  12.778   8.706
25544SOL    HW278530  11.618  12.770   8.630
25545SOL     OW78531  13.112   6.258   4.889
25545SOL    HW178532  13.132   6.344   4.927
25545SOL    HW278533  13.145   6.195   4.953
25546SOL     OW78534   6.377   1.744   6.445
25546SOL    HW178535   6.380   1.830   6.487
25546SOL    HW278536   6.295   1.706   6.476
25547SOL     OW78537   8.301   2.899   6.238
25547SOL    HW178538   8.358   2.871   6.309
25547SOL    HW278539   8.357   2.953   6.182
25548SOL     OW78540   1.251   9.511  13.062
25548SOL    HW178541   1.260   9.587  13.120
25548SOL    HW278542   1.167   9.525  13.018
25549SOL     OW78543   6.426  13.137   9.555
25549SOL    HW178544   6.491  13.202   9.583
25549SOL    HW278545   6.475  13.074   9.503
25550SOL     OW78546   3.233   5.159   6.411
25550SOL    HW178547   3.143   5.181   6.434
25550SOL    HW278548   3.243   5.190   6.321
25551SOL     OW78549   6.213   0.992   5.400
25551SOL    HW178550   6.269   1.039   5.462
25551SOL    HW278551   6.254   0.906   5.391
25552SOL     OW78552  12.492   1.270   4.641
25552SOL    HW178553  12.588   1.270   4.643
25552SOL    HW278554  12.468   1.181   4.667
25553SOL     OW78555  10.755   5.567   5.859
25553SOL    HW178556  10.690   5.636   5.853
25553SOL    HW278557  10.839   5.613   5.854
25554SOL     OW78558  13.464   2.377  10.983
25554SOL    HW178559  13.368   2.376  10.982
25554SOL    HW278560  13.487   2.470  10.978
25555SOL     OW78561   7.903   7.139   3.702
25555SOL    HW178562   7.956   7.147   3.622
25555SOL    HW278563   7.967   7.128   3.772
25556SOL     OW78564   6.801   9.430   3.747
25556SOL    HW178565   6.789   9.465   3.835
25556SOL    HW278566   6.822   9.338   3.759
25557SOL     OW78567  14.043   5.958   5.762
25557SOL    HW178568  14.059   5.864   5.763
25557SOL    HW278569  14.095   5.992   5.835
25558SOL     OW78570   8.389  10.550  14.813
25558SOL    HW178571   8.402  10.580  14.723
25558SOL    HW278572   8.453  10.600  14.864
25559SOL     OW78573   7.588   2.104  10.280
25559SOL    HW178574   7.648   2.079  10.210
25559SOL    HW278575   7.639   2.163  10.336
25560SOL     OW78576  13.660   9.510   1.360
25560SOL    HW178577  13.687   9.438   1.303
25560SOL    HW278578  13.610   9.468   1.430
25561SOL     OW78579  10.942   8.297  14.212
25561SOL    HW178580  11.029   8.335  14.216
25561SOL    HW278581  10.883   8.372  14.205
25562SOL     OW78582   0.042   1.200   4.311
25562SOL    HW178583   0.073   1.209   4.221
25562SOL    HW278584  14.820   1.223   4.308
25563SOL     OW78585   2.768   4.277   8.738
25563SOL    HW178586   2.705   4.209   8.761
25563SOL    HW278587   2.744   4.303   8.649
25564SOL     OW78588   6.019   0.438   9.879
25564SOL    HW178589   6.033   0.362   9.935
25564SOL    HW278590   6.089   0.499   9.902
25565SOL     OW78591  13.290   5.627   9.304
25565SOL    HW178592  13.303   5.683   9.228
25565SOL    HW278593  13.299   5.685   9.379
25566SOL     OW78594   5.827  13.064   0.717
25566SOL    HW178595   5.872  12.979   0.715
25566SOL    HW278596   5.879  13.119   0.658
25567SOL     OW78597   3.193   5.118   7.985
25567SOL    HW178598   3.114   5.065   7.994
25567SOL    HW278599   3.228   5.094   7.900
25568SOL     OW78600  12.001   5.557   4.499
25568SOL    HW178601  12.019   5.468   4.531
25568SOL    HW278602  12.082   5.605   4.515
25569SOL     OW78603   0.126  12.628   9.250
25569SOL    HW178604   0.121  12.648   9.157
25569SOL    HW278605   0.042  12.656   9.285
25570SOL     OW78606   6.463   0.930  10.805
25570SOL    HW178607   6.451   1.020  10.832
25570SOL    HW278608   6.520   0.892  10.871
25571SOL     OW78609   4.852   9.488   7.367
25571SOL    HW178610   4.841   9.487   7.462
25571SOL    HW278611   4.772   9.450   7.333
25572SOL     OW78612  11.021   2.124  14.239
25572SOL    HW178613  11.111   2.153  14.226
25572SOL    HW278614  11.016   2.101  14.332
25573SOL     OW78615   2.588  13.242  13.979
25573SOL    HW178616   2.655  13.293  14.024
25573SOL    HW278617   2.512  13.246  14.036
25574SOL     OW78618   5.824   8.541   5.955
25574SOL    HW178619   5.857   8.589   5.879
25574SOL    HW278620   5.902   8.514   6.002
25575SOL     OW78621   5.451  11.515  13.965
25575SOL    HW178622   5.497  11.452  13.910
25575SOL    HW278623   5.520  11.556  14.017
25576SOL     OW78624   0.076   6.119   6.849
25576SOL    HW178625   0.021   6.091   6.776
25576SOL    HW278626   0.130   6.189   6.813
25577SOL     OW78627   1.524  11.788   9.542
25577SOL    HW178628   1.588  11.726   9.577
25577SOL    HW278629   1.566  11.825   9.464
25578SOL     OW78630  12.355   1.137   3.552
25578SOL    HW178631  12.406   1.206   3.511
25578SOL    HW278632  12.314   1.178   3.628
25579SOL     OW78633   8.582   2.998   9.475
25579SOL    HW178634   8.535   2.932   9.422
25579SOL    HW278635   8.529   3.077   9.466
25580SOL     OW78636   9.968   4.857   2.093
25580SOL    HW178637   9.968   4.945   2.056
25580SOL    HW278638   9.940   4.801   2.020
25581SOL     OW78639   7.649   5.649  14.231
25581SOL    HW178640   7.587   5.576  14.226
25581SOL    HW278641   7.649   5.674  14.324
25582SOL     OW78642   0.113  14.692   0.457
25582SOL    HW178643   0.147  14.729   0.539
25582SOL    HW278644   0.021  14.720   0.455
25583SOL     OW78645   0.603   7.459   8.216
25583SOL    HW178646   0.669   7.471   8.284
25583SOL    HW278647   0.651   7.427   8.140
25584SOL     OW78648  10.870   2.404  12.912
25584SOL    HW178649  10.842   2.460  12.840
25584SOL    HW278650  10.935   2.345  12.874
25585SOL     OW78651   4.080  10.011   9.825
25585SOL    HW178652   4.060  10.071   9.897
25585SOL    HW278653   4.045  10.055   9.747
25586SOL     OW78654   5.969  14.813  11.691
25586SOL    HW178655   5.942  14.779  11.605
25586SOL    HW278656   5.954   0.037  11.685
25587SOL     OW78657   0.463   3.402   1.136
25587SOL    HW178658   0.400   3.431   1.202
25587SOL    HW278659   0.508   3.482   1.109
25588SOL     OW78660   1.607   0.800   4.154
25588SOL    HW178661   1.567   0.871   4.104
25588SOL    HW278662   1.701   0.813   4.144
25589SOL     OW78663  14.104  11.369   5.542
25589SOL    HW178664  14.025  11.373   5.488
25589SOL    HW278665  14.132  11.461   5.549
25590SOL     OW78666  13.479   2.728   3.120
25590SOL    HW178667  13.528   2.662   3.169
25590SOL    HW278668  13.498   2.811   3.165
25591SOL     OW78669   2.318  12.365  12.850
25591SOL    HW178670   2.237  12.387  12.895
25591SOL    HW278671   2.310  12.407  12.764
25592SOL     OW78672   7.268  13.865   6.337
25592SOL    HW178673   7.193  13.862   6.278
25592SOL    HW278674   7.344  13.853   6.280
25593SOL     OW78675  10.112   0.358  10.354
25593SOL    HW178676  10.120   0.290  10.420
25593SOL    HW278677  10.169   0.428  10.385
25594SOL     OW78678   1.682   3.795   9.941
25594SOL    HW178679   1.627   3.724   9.908
25594SOL    HW278680   1.724   3.832   9.863
25595SOL     OW78681   2.953  12.400   5.458
25595SOL    HW178682   2.922  12.490   5.455
25595SOL    HW278683   2.954  12.377   5.551
25596SOL     OW78684   4.691   0.567  14.770
25596SOL    HW178685   4.719   0.658  14.778
25596SOL    HW278686   4.725   0.525  14.849
25597SOL     OW78687   7.793  12.568   1.032
25597SOL    HW178688   7.854  12.565   0.958
25597SOL    HW278689   7.850  12.558   1.109
25598SOL     OW78690  14.837   3.380   1.752
25598SOL    HW178691  14.755   3.428   1.760
25598SOL    HW278692   0.020   3.410   1.825
25599SOL     OW78693   8.351  11.099   7.956
25599SOL    HW178694   8.261  11.109   7.984
25599SOL    HW278695   8.394  11.180   7.984
25600SOL     OW78696   8.339   5.521   1.563
25600SOL    HW178697   8.298   5.594   1.518
25600SOL    HW278698   8.266   5.471   1.599
25601SOL     OW78699  13.381   9.259   3.425
25601SOL    HW178700  13.293   9.279   3.395
25601SOL    HW278701  13.377   9.266   3.520
25602SOL     OW78702  10.620   4.970   1.197
25602SOL    HW178703  10.648   5.049   1.151
25602SOL    HW278704  10.699   4.918   1.205
25603SOL     OW78705   2.339   6.078  11.405
25603SOL    HW178706   2.430   6.064  11.429
25603SOL    HW278707   2.289   6.026  11.468
25604SOL     OW78708  10.811   3.528   6.644
25604SOL    HW178709  10.780   3.560   6.559
25604SOL    HW278710  10.907   3.527   6.636
25605SOL     OW78711   0.669   8.811  13.585
25605SOL    HW178712   0.712   8.760  13.653
25605SOL    HW278713   0.715   8.786  13.504
25606SOL     OW78714   2.821   3.615  14.074
25606SOL    HW178715   2.830   3.709  14.058
25606SOL    HW278716   2.731   3.605  14.105
25607SOL     OW78717   2.228   3.997  14.262
25607SOL    HW178718   2.192   3.937  14.196
25607SOL    HW278719   2.299   4.043  14.216
25608SOL     OW78720  14.169  13.917   2.535
25608SOL    HW178721  14.112  13.854   2.491
25608SOL    HW278722  14.220  13.956   2.464
25609SOL     OW78723   8.184   7.819   3.597
25609SOL    HW178724   8.239   7.897   3.604
25609SOL    HW278725   8.212   7.763   3.670
25610SOL     OW78726  14.494   0.511   0.477
25610SOL    HW178727  14.411   0.531   0.520
25610SOL    HW278728  14.556   0.502   0.549
25611SOL     OW78729  14.491   4.428   5.516
25611SOL    HW178730  14.438   4.394   5.444
25611SOL    HW278731  14.502   4.353   5.575
25612SOL     OW78732   7.747   5.614   8.454
25612SOL    HW178733   7.676   5.587   8.396
25612SOL    HW278734   7.827   5.583   8.411
25613SOL     OW78735   1.865   7.137   1.747
25613SOL    HW178736   1.873   7.225   1.710
25613SOL    HW278737   1.784   7.103   1.710
25614SOL     OW78738   4.159  11.856   5.789
25614SOL    HW178739   4.068  11.830   5.780
25614SOL    HW278740   4.181  11.839   5.881
25615SOL     OW78741   8.409   3.704   9.566
25615SOL    HW178742   8.442   3.626   9.610
25615SOL    HW278743   8.487   3.747   9.531
25616SOL     OW78744   7.964   5.401  10.495
25616SOL    HW178745   7.875   5.430  10.514
25616SOL    HW278746   8.011   5.481  10.471
25617SOL     OW78747  13.830   2.187   8.499
25617SOL    HW178748  13.886   2.261   8.522
25617SOL    HW278749  13.776   2.219   8.427
25618SOL     OW78750   0.405  13.830   8.050
25618SOL    HW178751   0.484  13.881   8.064
25618SOL    HW278752   0.415  13.795   7.961
25619SOL     OW78753   1.075   8.964  13.703
25619SOL    HW178754   1.016   8.953  13.628
25619SOL    HW278755   1.045   9.044  13.746
25620SOL     OW78756   2.239   1.431   1.928
25620SOL    HW178757   2.192   1.451   1.847
25620SOL    HW278758   2.304   1.366   1.903
25621SOL     OW78759  13.073   4.340   2.365
25621SOL    HW178760  13.114   4.394   2.297
25621SOL    HW278761  13.031   4.403   2.423
25622SOL     OW78762  10.744   4.791   3.242
25622SOL    HW178763  10.693   4.798   3.323
25622SOL    HW278764  10.713   4.864   3.188
25623SOL     OW78765   2.895   4.310  13.877
25623SOL    HW178766   2.853   4.333  13.960
25623SOL    HW278767   2.877   4.384  13.819
25624SOL     OW78768   2.398   2.519   5.917
25624SOL    HW178769   2.406   2.436   5.965
25624SOL    HW278770   2.393   2.586   5.986
25625SOL     OW78771  10.440   0.168   2.340
25625SOL    HW178772  10.472   0.148   2.428
25625SOL    HW278773  10.404   0.085   2.308
25626SOL     OW78774   1.546  13.215   4.366
25626SOL    HW178775   1.604  13.276   4.322
25626SOL    HW278776   1.596  13.134   4.373
25627SOL     OW78777   5.549   3.393  11.394
25627SOL    HW178778   5.458   3.420  11.405
25627SOL    HW278779   5.592   3.418  11.476
25628SOL     OW78780   3.470   4.822   1.849
25628SOL    HW178781   3.407   4.750   1.854
25628SOL    HW278782   3.424   4.892   1.803
25629SOL     OW78783   9.791  12.615   6.409
25629SOL    HW178784   9.870  12.562   6.393
25629SOL    HW278785   9.823  12.692   6.456
25630SOL     OW78786   7.084   8.016  10.973
25630SOL    HW178787   7.156   8.078  10.961
25630SOL    HW278788   7.024   8.060  11.033
25631SOL     OW78789  12.655   7.816   0.008
25631SOL    HW178790  12.638   7.906  14.850
25631SOL    HW278791  12.654   7.820   0.104
25632SOL     OW78792   6.623   4.796   7.855
25632SOL    HW178793   6.707   4.808   7.810
25632SOL    HW278794   6.634   4.715   7.906
25633SOL     OW78795  12.158   9.969   9.402
25633SOL    HW178796  12.124  10.053   9.434
25633SOL    HW278797  12.229   9.993   9.342
25634SOL     OW78798  14.081  13.967   5.568
25634SOL    HW178799  14.069  14.050   5.522
25634SOL    HW278800  14.029  13.976   5.648
25635SOL     OW78801   9.373   4.972   9.982
25635SOL    HW178802   9.420   5.031  10.041
25635SOL    HW278803   9.405   4.995   9.895
25636SOL     OW78804  13.682  12.263   5.683
25636SOL    HW178805  13.635  12.180   5.677
25636SOL    HW278806  13.770  12.239   5.712
25637SOL     OW78807   1.551  14.251   1.121
25637SOL    HW178808   1.564  14.318   1.189
25637SOL    HW278809   1.570  14.297   1.039
25638SOL     OW78810  12.805   0.067   4.343
25638SOL    HW178811  12.867   0.001   4.377
25638SOL    HW278812  12.773   0.029   4.261
25639SOL     OW78813  11.259   6.989   8.333
25639SOL    HW178814  11.294   6.913   8.288
25639SOL    HW278815  11.336   7.037   8.363
25640SOL     OW78816  11.036   3.069   0.657
25640SOL    HW178817  10.995   2.988   0.688
25640SOL    HW278818  10.968   3.135   0.668
25641SOL     OW78819   6.294   5.255  12.877
25641SOL    HW178820   6.229   5.318  12.908
25641SOL    HW278821   6.281   5.251  12.783
25642SOL     OW78822   3.055  11.958   2.883
25642SOL    HW178823   3.045  12.018   2.809
25642SOL    HW278824   3.064  12.015   2.959
25643SOL     OW78825   9.188   3.602  10.733
25643SOL    HW178826   9.094   3.581  10.740
25643SOL    HW278827   9.232   3.532  10.781
25644SOL     OW78828  14.657   4.121   5.623
25644SOL    HW178829  14.693   4.130   5.711
25644SOL    HW278830  14.572   4.166   5.627
25645SOL     OW78831   6.480  12.195   3.215
25645SOL    HW178832   6.448  12.269   3.265
25645SOL    HW278833   6.575  12.197   3.227
25646SOL     OW78834  14.086   8.582  12.788
25646SOL    HW178835  14.175   8.590  12.822
25646SOL    HW278836  14.032   8.632  12.850
25647SOL     OW78837   9.827   3.239   7.689
25647SOL    HW178838   9.912   3.272   7.718
25647SOL    HW278839   9.767   3.262   7.759
25648SOL     OW78840   7.904  11.333   4.342
25648SOL    HW178841   7.892  11.328   4.247
25648SOL    HW278842   7.893  11.243   4.372
25649SOL     OW78843   3.275   1.693  14.108
25649SOL    HW178844   3.191   1.738  14.108
25649SOL    HW278845   3.319   1.727  14.029
25650SOL     OW78846  12.048   6.571   9.046
25650SOL    HW178847  12.084   6.489   9.079
25650SOL    HW278848  12.107   6.639   9.081
25651SOL     OW78849   3.791  10.591  10.417
25651SOL    HW178850   3.793  10.499  10.392
25651SOL    HW278851   3.877  10.625  10.391
25652SOL     OW78852   4.003   7.022   8.146
25652SOL    HW178853   4.061   6.956   8.107
25652SOL    HW278854   3.929   7.027   8.086
25653SOL     OW78855   8.627  14.583   2.560
25653SOL    HW178856   8.538  14.583   2.525
25653SOL    HW278857   8.676  14.525   2.502
25654SOL     OW78858   6.796  14.069   5.267
25654SOL    HW178859   6.785  14.070   5.362
25654SOL    HW278860   6.812  13.978   5.245
25655SOL     OW78861  13.470  10.349   8.127
25655SOL    HW178862  13.448  10.265   8.086
25655SOL    HW278863  13.392  10.371   8.180
25656SOL     OW78864   4.255  12.488   8.960
25656SOL    HW178865   4.190  12.419   8.952
25656SOL    HW278866   4.300  12.490   8.875
25657SOL     OW78867   5.186   8.175   4.778
25657SOL    HW178868   5.096   8.141   4.774
25657SOL    HW278869   5.236   8.106   4.821
25658SOL     OW78870   3.691  10.616   7.482
25658SOL    HW178871   3.624  10.548   7.491
25658SOL    HW278872   3.713  10.641   7.572
25659SOL     OW78873   7.507   7.873   9.357
25659SOL    HW178874   7.444   7.944   9.343
25659SOL    HW278875   7.566   7.878   9.282
25660SOL     OW78876   6.985  10.347   7.752
25660SOL    HW178877   6.953  10.272   7.803
25660SOL    HW278878   6.979  10.421   7.812
25661SOL     OW78879   0.028  13.523   5.077
25661SOL    HW178880   0.031  13.618   5.074
25661SOL    HW278881   0.033  13.496   4.985
25662SOL     OW78882   6.227   1.982   5.865
25662SOL    HW178883   6.235   2.032   5.946
25662SOL    HW278884   6.133   1.982   5.845
25663SOL     OW78885   9.534   8.542  11.393
25663SOL    HW178886   9.495   8.513  11.476
25663SOL    HW278887   9.545   8.636  11.403
25664SOL     OW78888   1.435   9.657   1.216
25664SOL    HW178889   1.428   9.600   1.139
25664SOL    HW278890   1.473   9.601   1.284
25665SOL     OW78891   0.877   4.249  11.952
25665SOL    HW178892   0.872   4.324  12.011
25665SOL    HW278893   0.878   4.289  11.864
25666SOL     OW78894  11.519   8.048   6.498
25666SOL    HW178895  11.540   7.955   6.508
25666SOL    HW278896  11.595   8.094   6.533
25667SOL     OW78897   0.952   5.336   2.255
25667SOL    HW178898   0.987   5.293   2.333
25667SOL    HW278899   0.961   5.430   2.273
25668SOL     OW78900  11.042   9.719   4.382
25668SOL    HW178901  11.055   9.649   4.319
25668SOL    HW278902  11.115   9.780   4.365
25669SOL     OW78903   1.585   6.992  11.844
25669SOL    HW178904   1.518   6.943  11.892
25669SOL    HW278905   1.554   7.083  11.845
25670SOL     OW78906  12.042   3.432  12.789
25670SOL    HW178907  12.098   3.489  12.841
25670SOL    HW278908  12.067   3.450  12.699
25671SOL     OW78909   8.163   9.991   4.698
25671SOL    HW178910   8.216   9.915   4.722
25671SOL    HW278911   8.072   9.959   4.702
25672SOL     OW78912   5.323   8.415   5.458
25672SOL    HW178913   5.228   8.431   5.458
25672SOL    HW278914   5.344   8.395   5.367
25673SOL     OW78915  12.864  13.101  12.584
25673SOL    HW178916  12.826  13.109  12.497
25673SOL    HW278917  12.869  13.191  12.616
25674SOL     OW78918  13.902  14.089  14.106
25674SOL    HW178919  13.945  14.174  14.113
25674SOL    HW278920  13.827  14.104  14.049
25675SOL     OW78921  10.532  10.363  14.466
25675SOL    HW178922  10.500  10.450  14.490
25675SOL    HW278923  10.613  10.380  14.418
25676SOL     OW78924   6.335   1.495  12.429
25676SOL    HW178925   6.299   1.513  12.342
25676SOL    HW278926   6.260   1.500  12.488
25677SOL     OW78927   3.036   4.879  13.845
25677SOL    HW178928   3.084   4.863  13.926
25677SOL    HW278929   3.044   4.796  13.797
25678SOL     OW78930   7.161  10.380   2.860
25678SOL    HW178931   7.143  10.440   2.787
25678SOL    HW278932   7.075  10.353   2.890
25679SOL     OW78933   1.719  14.490   3.416
25679SOL    HW178934   1.668  14.500   3.497
25679SOL    HW278935   1.804  14.457   3.445
25680SOL     OW78936   1.456   8.659  11.982
25680SOL    HW178937   1.394   8.642  12.053
25680SOL    HW278938   1.412   8.627  11.903
25681SOL     OW78939   2.720   2.553  13.280
25681SOL    HW178940   2.640   2.513  13.244
25681SOL    HW278941   2.776   2.567  13.203
25682SOL     OW78942   2.164  13.030  10.635
25682SOL    HW178943   2.238  12.971  10.624
25682SOL    HW278944   2.202  13.110  10.673
25683SOL     OW78945   7.577  11.753   6.925
25683SOL    HW178946   7.564  11.843   6.957
25683SOL    HW278947   7.564  11.699   7.003
25684SOL     OW78948   6.344  11.146  13.621
25684SOL    HW178949   6.275  11.167  13.558
25684SOL    HW278950   6.298  11.128  13.702
25685SOL     OW78951   1.642   7.130  11.210
25685SOL    HW178952   1.732   7.144  11.180
25685SOL    HW278953   1.646   7.052  11.266
25686SOL     OW78954   0.876   3.376   1.736
25686SOL    HW178955   0.811   3.315   1.699
25686SOL    HW278956   0.960   3.344   1.704
25687SOL     OW78957   7.680   8.900   9.309
25687SOL    HW178958   7.619   8.971   9.290
25687SOL    HW278959   7.649   8.864   9.392
25688SOL     OW78960  10.919  13.062   1.092
25688SOL    HW178961  10.955  12.984   1.134
25688SOL    HW278962  10.879  13.112   1.163
25689SOL     OW78963   6.796  14.688  10.513
25689SOL    HW178964   6.801  14.769  10.564
25689SOL    HW278965   6.716  14.698  10.461
25690SOL     OW78966   3.893   1.410   9.746
25690SOL    HW178967   3.924   1.435   9.658
25690SOL    HW278968   3.842   1.331   9.733
25691SOL     OW78969   8.938  10.092   2.899
25691SOL    HW178970   8.969  10.166   2.951
25691SOL    HW278971   8.860  10.060   2.945
25692SOL     OW78972   7.954   3.303   5.974
25692SOL    HW178973   7.899   3.241   6.022
25692SOL    HW278974   7.905   3.385   5.974
25693SOL     OW78975  14.054  10.743  14.002
25693SOL    HW178976  13.982  10.680  14.001
25693SOL    HW278977  14.132  10.691  13.980
25694SOL     OW78978  12.019  14.759   3.966
25694SOL    HW178979  12.111  14.750   3.991
25694SOL    HW278980  11.998  14.676   3.923
25695SOL     OW78981   5.491   9.969   8.201
25695SOL    HW178982   5.480  10.043   8.261
25695SOL    HW278983   5.509   9.894   8.257
25696SOL     OW78984   4.625  10.016   5.955
25696SOL    HW178985   4.593  10.045   6.040
25696SOL    HW278986   4.597   9.925   5.948
25697SOL     OW78987   8.717  14.256   2.328
25697SOL    HW178988   8.783  14.283   2.264
25697SOL    HW278989   8.743  14.301   2.409
25698SOL     OW78990   2.800   4.404   3.140
25698SOL    HW178991   2.894   4.401   3.158
25698SOL    HW278992   2.765   4.467   3.202
25699SOL     OW78993   3.561  11.064  12.976
25699SOL    HW178994   3.584  10.985  12.927
25699SOL    HW278995   3.494  11.035  13.038
25700SOL     OW78996  14.192  11.982  11.999
25700SOL    HW178997  14.115  11.965  11.945
25700SOL    HW278998  14.207  11.900  12.046
25701SOL     OW78999  13.997   5.137   2.639
25701SOL    HW179000  14.005   5.172   2.551
25701SOL    HW279001  13.926   5.187   2.679
25702SOL     OW79002   3.888  10.515   5.707
25702SOL    HW179003   3.897  10.516   5.803
25702SOL    HW279004   3.809  10.567   5.690
25703SOL     OW79005   3.939   0.358   8.631
25703SOL    HW179006   3.923   0.451   8.646
25703SOL    HW279007   4.021   0.339   8.676
25704SOL     OW79008   7.129   5.812   7.471
25704SOL    HW179009   7.123   5.802   7.376
25704SOL    HW279010   7.180   5.736   7.499
25705SOL     OW79011   8.861   1.647   0.032
25705SOL    HW179012   8.917   1.634  14.825
25705SOL    HW279013   8.772   1.637  14.867
25706SOL     OW79014  10.250   6.172   0.632
25706SOL    HW179015  10.281   6.223   0.706
25706SOL    HW279016  10.281   6.083   0.650
25707SOL     OW79017  11.917  12.011  14.774
25707SOL    HW179018  11.938  11.918  14.778
25707SOL    HW279019  11.869  12.028  14.856
25708SOL     OW79020  10.411  13.142   8.560
25708SOL    HW179021  10.459  13.224   8.548
25708SOL    HW279022  10.348  13.161   8.630
25709SOL     OW79023   8.338  13.016  14.551
25709SOL    HW179024   8.309  13.082  14.614
25709SOL    HW279025   8.259  12.991  14.503
25710SOL     OW79026  13.330  13.640  10.046
25710SOL    HW179027  13.342  13.551  10.015
25710SOL    HW279028  13.269  13.631  10.120
25711SOL     OW79029  13.469   4.369  13.369
25711SOL    HW179030  13.510   4.320  13.298
25711SOL    HW279031  13.389   4.405  13.331
25712SOL     OW79032   4.402   5.395   7.366
25712SOL    HW179033   4.317   5.359   7.393
25712SOL    HW279034   4.415   5.360   7.278
25713SOL     OW79035   0.210   7.206   2.891
25713SOL    HW179036   0.182   7.176   2.977
25713SOL    HW279037   0.246   7.293   2.907
25714SOL     OW79038   5.094   6.061   6.974
25714SOL    HW179039   5.081   6.000   6.902
25714SOL    HW279040   5.120   6.143   6.933
25715SOL     OW79041  10.615   5.026   4.442
25715SOL    HW179042  10.689   5.070   4.400
25715SOL    HW279043  10.609   4.941   4.398
25716SOL     OW79044   0.958   6.818   3.480
25716SOL    HW179045   1.022   6.870   3.528
25716SOL    HW279046   0.956   6.855   3.392
25717SOL     OW79047   6.712   3.546  11.594
25717SOL    HW179048   6.620   3.524  11.579
25717SOL    HW279049   6.710   3.628  11.644
25718SOL     OW79050   2.511  13.634  12.946
25718SOL    HW179051   2.489  13.590  12.864
25718SOL    HW279052   2.487  13.572  13.015
25719SOL     OW79053   8.510  13.928   0.571
25719SOL    HW179054   8.476  14.015   0.553
25719SOL    HW279055   8.434  13.870   0.565
25720SOL     OW79056  10.663   5.460  11.829
25720SOL    HW179057  10.610   5.534  11.860
25720SOL    HW279058  10.719   5.497  11.762
25721SOL     OW79059  14.867   2.441   7.314
25721SOL    HW179060   0.040   2.492   7.246
25721SOL    HW279061   0.056   2.447   7.390
25722SOL     OW79062   7.382  11.135   1.843
25722SOL    HW179063   7.437  11.113   1.918
25722SOL    HW279064   7.295  11.152   1.880
25723SOL     OW79065   1.032   2.157   4.072
25723SOL    HW179066   1.113   2.206   4.082
25723SOL    HW279067   0.997   2.184   3.987
25724SOL     OW79068   2.938   8.884  10.834
25724SOL    HW179069   2.962   8.908  10.924
25724SOL    HW279070   2.962   8.960  10.782
25725SOL     OW79071  13.826   8.350  13.746
25725SOL    HW179072  13.891   8.287  13.778
25725SOL    HW279073  13.759   8.352  13.815
25726SOL     OW79074   9.430   8.172  11.396
25726SOL    HW179075   9.525   8.171  11.410
25726SOL    HW279076   9.396   8.227  11.467
25727SOL     OW79077  11.534  13.872   4.913
25727SOL    HW179078  11.574  13.955   4.886
25727SOL    HW279079  11.500  13.834   4.832
25728SOL     OW79080  13.594  10.470   3.890
25728SOL    HW179081  13.552  10.434   3.812
25728SOL    HW279082  13.523  10.477   3.955
25729SOL     OW79083  14.363  14.377   7.471
25729SOL    HW179084  14.382  14.286   7.450
25729SOL    HW279085  14.374  14.424   7.388
25730SOL     OW79086   2.342  12.184   1.972
25730SOL    HW179087   2.429  12.223   1.974
25730SOL    HW279088   2.357  12.094   1.943
25731SOL     OW79089   0.846   1.367  11.890
25731SOL    HW179090   0.807   1.395  11.807
25731SOL    HW279091   0.810   1.427  11.955
25732SOL     OW79092  11.759   7.270   7.018
25732SOL    HW179093  11.849   7.242   7.031
25732SOL    HW279094  11.735   7.237   6.932
25733SOL     OW79095   6.759   5.702   7.428
25733SOL    HW179096   6.762   5.790   7.389
25733SOL    HW279097   6.830   5.702   7.493
25734SOL     OW79098   4.619  11.689   3.540
25734SOL    HW179099   4.557  11.620   3.563
25734SOL    HW279100   4.704  11.646   3.537
25735SOL     OW79101   0.659   3.635   1.082
25735SOL    HW179102   0.666   3.647   0.987
25735SOL    HW279103   0.614   3.714   1.112
25736SOL     OW79104   6.801   8.259   0.681
25736SOL    HW179105   6.741   8.331   0.699
25736SOL    HW279106   6.888   8.300   0.680
25737SOL     OW79107  11.763   4.911   7.148
25737SOL    HW179108  11.843   4.873   7.113
25737SOL    HW279109  11.694   4.848   7.126
25738SOL     OW79110   9.088  12.857  14.306
25738SOL    HW179111   9.040  12.925  14.258
25738SOL    HW279112   9.050  12.858  14.394
25739SOL     OW79113   8.856  10.939   4.365
25739SOL    HW179114   8.851  11.029   4.399
25739SOL    HW279115   8.909  10.946   4.286
25740SOL     OW79116   9.451   3.793  12.459
25740SOL    HW179117   9.372   3.844  12.478
25740SOL    HW279118   9.496   3.787  12.544
25741SOL     OW79119   0.498  14.805   0.451
25741SOL    HW179120   0.443  14.807   0.529
25741SOL    HW279121   0.501  14.713   0.425
25742SOL     OW79122  12.003   6.683   0.525
25742SOL    HW179123  12.032   6.696   0.435
25742SOL    HW279124  12.000   6.588   0.536
25743SOL     OW79125   2.607   5.313   7.313
25743SOL    HW179126   2.693   5.334   7.276
25743SOL    HW279127   2.597   5.219   7.299
25744SOL     OW79128  10.277   8.970   9.102
25744SOL    HW179129  10.365   9.007   9.112
25744SOL    HW279130  10.262   8.920   9.182
25745SOL     OW79131   7.361   3.556  12.266
25745SOL    HW179132   7.401   3.596  12.343
25745SOL    HW279133   7.268   3.548  12.289
25746SOL     OW79134  10.141   5.189   2.857
25746SOL    HW179135  10.227   5.227   2.837
25746SOL    HW279136  10.105   5.163   2.772
25747SOL     OW79137   0.959   3.287   7.567
25747SOL    HW179138   0.924   3.215   7.516
25747SOL    HW279139   1.025   3.246   7.624
25748SOL     OW79140   7.618   1.738   6.551
25748SOL    HW179141   7.578   1.674   6.492
25748SOL    HW279142   7.552   1.753   6.619
25749SOL     OW79143  13.926   7.096   4.692
25749SOL    HW179144  13.962   7.112   4.605
25749SOL    HW279145  13.889   7.007   4.687
25750SOL     OW79146   1.542   5.657  12.223
25750SOL    HW179147   1.581   5.602  12.155
25750SOL    HW279148   1.511   5.594  12.289
25751SOL     OW79149   8.975  10.114   1.896
25751SOL    HW179150   8.932  10.173   1.959
25751SOL    HW279151   8.950  10.027   1.926
25752SOL     OW79152  11.704   7.235   7.306
25752SOL    HW179153  11.704   7.257   7.213
25752SOL    HW279154  11.611   7.236   7.330
25753SOL     OW79155   6.760   4.137   8.985
25753SOL    HW179156   6.759   4.041   8.986
25753SOL    HW279157   6.817   4.161   9.058
25754SOL     OW79158  14.807   1.984   7.827
25754SOL    HW179159  14.733   2.041   7.845
25754SOL    HW279160  14.783   1.900   7.867
25755SOL     OW79161  12.627  12.856   0.000
25755SOL    HW179162  12.651  12.803   0.076
25755SOL    HW279163  12.624  12.946   0.034
25756SOL     OW79164  11.748  10.540  10.053
25756SOL    HW179165  11.767  10.469   9.991
25756SOL    HW279166  11.811  10.608  10.029
25757SOL     OW79167  11.217  13.395   4.651
25757SOL    HW179168  11.251  13.317   4.608
25757SOL    HW279169  11.253  13.391   4.740
25758SOL     OW79170  10.085   0.580   1.586
25758SOL    HW179171  10.155   0.619   1.535
25758SOL    HW279172  10.091   0.486   1.570
25759SOL     OW79173   0.015  11.094   5.987
25759SOL    HW179174   0.005  11.016   5.932
25759SOL    HW279175   0.100  11.083   6.029
25760SOL     OW79176   5.065   5.998   3.595
25760SOL    HW179177   5.022   5.947   3.526
25760SOL    HW279178   5.156   5.968   3.594
25761SOL     OW79179   6.653  10.054   9.695
25761SOL    HW179180   6.697  10.079   9.776
25761SOL    HW279181   6.560  10.074   9.711
25762SOL     OW79182   3.229  12.959  10.633
25762SOL    HW179183   3.165  13.007  10.685
25762SOL    HW279184   3.313  12.978  10.674
25763SOL     OW79185  14.290   8.385  14.487
25763SOL    HW179186  14.210   8.373  14.538
25763SOL    HW279187  14.261   8.426  14.405
25764SOL     OW79188   9.622   7.916   8.544
25764SOL    HW179189   9.637   7.984   8.611
25764SOL    HW279190   9.710   7.891   8.516
25765SOL     OW79191   9.417   7.863  13.243
25765SOL    HW179192   9.386   7.825  13.160
25765SOL    HW279193   9.392   7.799  13.309
25766SOL     OW79194   0.072   1.982  13.679
25766SOL    HW179195   0.080   2.056  13.738
25766SOL    HW279196   0.097   1.906  13.732
25767SOL     OW79197   6.755   8.769   9.523
25767SOL    HW179198   6.683   8.792   9.582
25767SOL    HW279199   6.774   8.677   9.542
25768SOL     OW79200   5.175  14.647   4.207
25768SOL    HW179201   5.250  14.588   4.206
25768SOL    HW279202   5.163  14.673   4.115
25769SOL     OW79203   4.058   3.564   7.849
25769SOL    HW179204   4.130   3.503   7.831
25769SOL    HW279205   4.098   3.633   7.902
25770SOL     OW79206   2.996  12.910   8.582
25770SOL    HW179207   3.046  12.935   8.504
25770SOL    HW279208   2.906  12.904   8.551
25771SOL     OW79209   2.939   2.698   2.751
25771SOL    HW179210   2.903   2.711   2.838
25771SOL    HW279211   2.981   2.612   2.754
25772SOL     OW79212   1.727   9.383  13.896
25772SOL    HW179213   1.783   9.322  13.945
25772SOL    HW279214   1.693   9.442  13.963
25773SOL     OW79215   5.153  13.898  11.226
25773SOL    HW179216   5.122  13.829  11.167
25773SOL    HW279217   5.090  13.969  11.214
25774SOL     OW79218   9.613   3.797   7.484
25774SOL    HW179219   9.677   3.861   7.516
25774SOL    HW279220   9.628   3.794   7.390
25775SOL     OW79221   5.576  12.436  10.245
25775SOL    HW179222   5.520  12.446  10.322
25775SOL    HW279223   5.523  12.470  10.173
25776SOL     OW79224   3.683   1.027  12.511
25776SOL    HW179225   3.671   1.071  12.596
25776SOL    HW279226   3.777   1.013  12.505
25777SOL     OW79227  11.217   2.350   2.647
25777SOL    HW179228  11.230   2.259   2.673
25777SOL    HW279229  11.281   2.399   2.698
25778SOL     OW79230  14.575  10.402  12.101
25778SOL    HW179231  14.587  10.453  12.180
25778SOL    HW279232  14.574  10.466  12.030
25779SOL     OW79233   2.323   9.440   0.274
25779SOL    HW179234   2.375   9.404   0.202
25779SOL    HW279235   2.386   9.491   0.325
25780SOL     OW79236   4.558  11.231   0.988
25780SOL    HW179237   4.514  11.315   0.999
25780SOL    HW279238   4.594  11.211   1.074
25781SOL     OW79239   7.378   4.833   5.794
25781SOL    HW179240   7.361   4.872   5.880
25781SOL    HW279241   7.303   4.776   5.778
25782SOL     OW79242   1.934  14.139   3.340
25782SOL    HW179243   1.970  14.211   3.287
25782SOL    HW279244   1.943  14.170   3.430
25783SOL     OW79245   0.886   2.277   3.854
25783SOL    HW179246   0.869   2.197   3.804
25783SOL    HW279247   0.806   2.290   3.906
25784SOL     OW79248   9.186  10.037   4.794
25784SOL    HW179249   9.117   9.972   4.809
25784SOL    HW279250   9.185  10.092   4.872
25785SOL     OW79251   8.003   8.980   4.377
25785SOL    HW179252   8.082   9.027   4.353
25785SOL    HW279253   8.007   8.972   4.473
25786SOL     OW79254   7.756   1.196   7.802
25786SOL    HW179255   7.770   1.101   7.796
25786SOL    HW279256   7.840   1.234   7.777
25787SOL     OW79257   2.052   3.244  12.253
25787SOL    HW179258   2.043   3.339  12.254
25787SOL    HW279259   2.092   3.222  12.337
25788SOL     OW79260   5.638   4.369  12.839
25788SOL    HW179261   5.728   4.364  12.872
25788SOL    HW279262   5.595   4.431  12.898
25789SOL     OW79263   2.519   8.546  13.177
25789SOL    HW179264   2.507   8.640  13.164
25789SOL    HW279265   2.610   8.536  13.204
25790SOL     OW79266   9.322   4.229  12.069
25790SOL    HW179267   9.232   4.262  12.079
25790SOL    HW279268   9.359   4.282  11.999
25791SOL     OW79269  12.827   4.920   0.963
25791SOL    HW179270  12.898   4.857   0.968
25791SOL    HW279271  12.867   5.000   0.929
25792SOL     OW79272   0.373   9.515  10.638
25792SOL    HW179273   0.463   9.496  10.666
25792SOL    HW279274   0.378   9.513  10.542
25793SOL     OW79275   6.405   3.431  10.373
25793SOL    HW179276   6.411   3.363  10.306
25793SOL    HW279277   6.496   3.450  10.396
25794SOL     OW79278   7.081   2.396  12.362
25794SOL    HW179279   7.128   2.346  12.295
25794SOL    HW279280   7.150   2.439  12.412
25795SOL     OW79281  12.604   7.910   3.422
25795SOL    HW179282  12.601   7.822   3.382
25795SOL    HW279283  12.693   7.940   3.408
25796SOL     OW79284  13.196  10.873   6.589
25796SOL    HW179285  13.107  10.863   6.624
25796SOL    HW279286  13.237  10.788   6.605
25797SOL     OW79287  11.297  12.031   9.344
25797SOL    HW179288  11.227  11.987   9.391
25797SOL    HW279289  11.308  11.979   9.264
25798SOL     OW79290   7.673  13.525   9.451
25798SOL    HW179291   7.654  13.618   9.437
25798SOL    HW279292   7.733  13.502   9.380
25799SOL     OW79293   6.784   0.588   0.116
25799SOL    HW179294   6.827   0.622   0.038
25799SOL    HW279295   6.771   0.495   0.097
25800SOL     OW79296  12.427  13.046  14.080
25800SOL    HW179297  12.421  13.093  13.997
25800SOL    HW279298  12.517  13.061  14.109
25801SOL     OW79299   6.897   9.149  11.492
25801SOL    HW179300   6.882   9.110  11.578
25801SOL    HW279301   6.983   9.190  11.499
25802SOL     OW79302  12.501   9.200   4.228
25802SOL    HW179303  12.517   9.130   4.165
25802SOL    HW279304  12.586   9.240   4.243
25803SOL     OW79305   0.918  14.398   6.908
25803SOL    HW179306   0.915  14.478   6.960
25803SOL    HW279307   0.854  14.340   6.950
25804SOL     OW79308   2.221   3.087  13.985
25804SOL    HW179309   2.202   3.131  14.068
25804SOL    HW279310   2.197   2.995  14.000
25805SOL     OW79311  10.978   3.379   5.778
25805SOL    HW179312  10.939   3.354   5.862
25805SOL    HW279313  10.983   3.474   5.782
25806SOL     OW79314   7.004   7.298  12.741
25806SOL    HW179315   6.989   7.391  12.729
25806SOL    HW279316   6.917   7.261  12.759
25807SOL     OW79317   1.078  11.890   2.145
25807SOL    HW179318   1.100  11.936   2.226
25807SOL    HW279319   0.986  11.864   2.156
25808SOL     OW79320  13.705  10.943   2.142
25808SOL    HW179321  13.723  10.939   2.048
25808SOL    HW279322  13.767  11.008   2.176
25809SOL     OW79323   4.243  14.475  14.755
25809SOL    HW179324   4.169  14.428  14.718
25809SOL    HW279325   4.205  14.530  14.824
25810SOL     OW79326  10.695   8.165   1.180
25810SOL    HW179327  10.708   8.143   1.273
25810SOL    HW279328  10.603   8.192   1.175
25811SOL     OW79329   2.462  10.634   0.451
25811SOL    HW179330   2.453  10.705   0.387
25811SOL    HW279331   2.439  10.675   0.534
25812SOL     OW79332   0.613   4.421   6.736
25812SOL    HW179333   0.695   4.464   6.711
25812SOL    HW279334   0.550   4.446   6.669
25813SOL     OW79335   7.524  14.165   7.495
25813SOL    HW179336   7.483  14.169   7.408
25813SOL    HW279337   7.552  14.255   7.513
25814SOL     OW79338  11.252   8.973   1.927
25814SOL    HW179339  11.292   8.982   1.841
25814SOL    HW279340  11.307   9.026   1.985
25815SOL     OW79341   6.525   9.406   9.601
25815SOL    HW179342   6.520   9.430   9.509
25815SOL    HW279343   6.532   9.489   9.648
25816SOL     OW79344   0.765  10.765  13.647
25816SOL    HW179345   0.688  10.744  13.594
25816SOL    HW279346   0.816  10.683  13.647
25817SOL     OW79347   9.602   4.546   8.075
25817SOL    HW179348   9.507   4.547   8.064
25817SOL    HW279349   9.627   4.455   8.059
25818SOL     OW79350   4.511   2.900   1.600
25818SOL    HW179351   4.587   2.848   1.626
25818SOL    HW279352   4.446   2.884   1.668
25819SOL     OW79353   7.024   7.012  10.160
25819SOL    HW179354   7.063   7.074  10.098
25819SOL    HW279355   7.018   7.061  10.242
25820SOL     OW79356   5.919   2.670   5.979
25820SOL    HW179357   5.924   2.574   5.971
25820SOL    HW279358   5.858   2.685   6.051
25821SOL     OW79359  12.534   5.005   3.274
25821SOL    HW179360  12.486   4.936   3.229
25821SOL    HW279361  12.533   4.979   3.366
25822SOL     OW79362  14.072  11.920   4.320
25822SOL    HW179363  14.012  11.993   4.330
25822SOL    HW279364  14.022  11.843   4.346
25823SOL     OW79365  14.050   5.936  11.248
25823SOL    HW179366  14.024   5.956  11.338
25823SOL    HW279367  14.102   5.857  11.255
25824SOL     OW79368  14.106   5.479   3.999
25824SOL    HW179369  14.031   5.434   4.039
25824SOL    HW279370  14.082   5.489   3.907
25825SOL     OW79371  14.377   6.421   7.184
25825SOL    HW179372  14.388   6.327   7.201
25825SOL    HW279373  14.450   6.443   7.127
25826SOL     OW79374  10.223  13.822   2.836
25826SOL    HW179375  10.163  13.772   2.781
25826SOL    HW279376  10.275  13.873   2.774
25827SOL     OW79377  13.907   7.577   3.246
25827SOL    HW179378  13.938   7.611   3.331
25827SOL    HW279379  13.890   7.484   3.262
25828SOL     OW79380   5.223   6.427   5.024
25828SOL    HW179381   5.306   6.398   5.061
25828SOL    HW279382   5.184   6.483   5.092
25829SOL     OW79383  13.403  14.308  12.278
25829SOL    HW179384  13.487  14.350  12.261
25829SOL    HW279385  13.418  14.256  12.357
25830SOL     OW79386   8.094   5.382   6.026
25830SOL    HW179387   8.022   5.432   6.063
25830SOL    HW279388   8.128   5.438   5.956
25831SOL     OW79389  10.672  10.063   8.513
25831SOL    HW179390  10.630  10.147   8.532
25831SOL    HW279391  10.603   9.998   8.530
25832SOL     OW79392   1.363  13.343   0.178
25832SOL    HW179393   1.277  13.385   0.175
25832SOL    HW279394   1.344  13.249   0.174
25833SOL     OW79395   3.467  12.972   3.426
25833SOL    HW179396   3.411  12.926   3.489
25833SOL    HW279397   3.502  12.903   3.370
25834SOL     OW79398   7.144   1.040   4.482
25834SOL    HW179399   7.055   1.015   4.506
25834SOL    HW279400   7.153   1.131   4.512
25835SOL     OW79401  12.470  13.304   5.186
25835SOL    HW179402  12.451  13.268   5.099
25835SOL    HW279403  12.390  13.288   5.236
25836SOL     OW79404   2.451   1.154   3.289
25836SOL    HW179405   2.445   1.208   3.211
25836SOL    HW279406   2.517   1.197   3.344
25837SOL     OW79407  10.258   7.763  11.050
25837SOL    HW179408  10.225   7.675  11.064
25837SOL    HW279409  10.353   7.755  11.056
25838SOL     OW79410  12.165   8.094   1.373
25838SOL    HW179411  12.144   8.179   1.333
25838SOL    HW279412  12.195   8.116   1.461
25839SOL     OW79413   5.343  11.278   2.529
25839SOL    HW179414   5.265  11.232   2.559
25839SOL    HW279415   5.415  11.236   2.575
25840SOL     OW79416  11.355   6.536   3.432
25840SOL    HW179417  11.415   6.579   3.492
25840SOL    HW279418  11.274   6.588   3.438
25841SOL     OW79419   1.393  12.086   8.548
25841SOL    HW179420   1.426  12.132   8.470
25841SOL    HW279421   1.471  12.045   8.586
25842SOL     OW79422   3.014  13.612  13.548
25842SOL    HW179423   2.978  13.525  13.532
25842SOL    HW279424   3.018  13.652  13.461
25843SOL     OW79425  13.293  12.096  14.091
25843SOL    HW179426  13.359  12.111  14.022
25843SOL    HW279427  13.341  12.049  14.159
25844SOL     OW79428   3.253   4.457   5.147
25844SOL    HW179429   3.308   4.380   5.135
25844SOL    HW279430   3.297   4.507   5.216
25845SOL     OW79431   8.541  12.659   0.301
25845SOL    HW179432   8.537  12.589   0.366
25845SOL    HW279433   8.611  12.716   0.331
25846SOL     OW79434   8.620  10.362  10.959
25846SOL    HW179435   8.553  10.413  10.913
25846SOL    HW279436   8.683  10.428  10.988
25847SOL     OW79437  11.214  13.928   2.396
25847SOL    HW179438  11.195  14.014   2.434
25847SOL    HW279439  11.150  13.870   2.436
25848SOL     OW79440   2.964   5.828  13.480
25848SOL    HW179441   2.930   5.740  13.470
25848SOL    HW279442   2.918   5.863  13.557
25849SOL     OW79443  13.303  10.390   3.922
25849SOL    HW179444  13.311  10.437   4.005
25849SOL    HW279445  13.227  10.333   3.934
25850SOL     OW79446   2.555   5.915   1.869
25850SOL    HW179447   2.601   5.895   1.788
25850SOL    HW279448   2.614   5.973   1.916
25851SOL     OW79449   7.309   4.006   6.256
25851SOL    HW179450   7.236   4.036   6.203
25851SOL    HW279451   7.376   4.073   6.245
25852SOL     OW79452   6.310   7.077   1.858
25852SOL    HW179453   6.290   7.151   1.801
25852SOL    HW279454   6.356   7.115   1.932
25853SOL     OW79455  12.140   7.445   7.493
25853SOL    HW179456  12.078   7.374   7.476
25853SOL    HW279457  12.096   7.501   7.557
25854SOL     OW79458  11.140   2.619   1.547
25854SOL    HW179459  11.085   2.656   1.616
25854SOL    HW279460  11.229   2.644   1.572
25855SOL     OW79461  13.400  13.061   1.653
25855SOL    HW179462  13.428  13.094   1.568
25855SOL    HW279463  13.387  12.967   1.640
25856SOL     OW79464   2.188  14.630  10.655
25856SOL    HW179465   2.224  14.715  10.681
25856SOL    HW279466   2.095  14.637  10.675
25857SOL     OW79467   4.085   1.034   4.195
25857SOL    HW179468   4.024   0.977   4.243
25857SOL    HW279469   4.171   0.994   4.210
25858SOL     OW79470   2.124   4.322   4.986
25858SOL    HW179471   2.056   4.388   4.971
25858SOL    HW279472   2.090   4.269   5.058
25859SOL     OW79473  14.781   1.488   0.122
25859SOL    HW179474  14.859   1.535   0.151
25859SOL    HW279475  14.808   1.445   0.041
25860SOL     OW79476   2.671   9.108   5.734
25860SOL    HW179477   2.754   9.072   5.704
25860SOL    HW279478   2.607   9.081   5.668
25861SOL     OW79479  10.387   1.437  11.598
25861SOL    HW179480  10.437   1.512  11.567
25861SOL    HW279481  10.308   1.475  11.635
25862SOL     OW79482   7.309   3.465   2.620
25862SOL    HW179483   7.331   3.556   2.638
25862SOL    HW279484   7.361   3.443   2.542
25863SOL     OW79485  11.753  11.823   0.218
25863SOL    HW179486  11.846  11.810   0.204
25863SOL    HW279487  11.713  11.800   0.134
25864SOL     OW79488   2.175  13.009   8.225
25864SOL    HW179489   2.201  12.918   8.239
25864SOL    HW279490   2.233  13.060   8.281
25865SOL     OW79491   4.227  10.862  10.968
25865SOL    HW179492   4.263  10.778  10.942
25865SOL    HW279493   4.141  10.867  10.924
25866SOL     OW79494   6.928   4.410   6.786
25866SOL    HW179495   6.911   4.414   6.692
25866SOL    HW279496   6.846   4.377   6.823
25867SOL     OW79497  11.030   7.865   3.917
25867SOL    HW179498  10.990   7.800   3.860
25867SOL    HW279499  10.962   7.931   3.929
25868SOL     OW79500   1.254  13.625   2.981
25868SOL    HW179501   1.238  13.694   2.916
25868SOL    HW279502   1.348  13.633   3.001
25869SOL     OW79503   6.205   2.538  11.325
25869SOL    HW179504   6.265   2.612  11.327
25869SOL    HW279505   6.126   2.570  11.369
25870SOL     OW79506   8.804   9.139   1.772
25870SOL    HW179507   8.821   9.230   1.748
25870SOL    HW279508   8.759   9.144   1.856
25871SOL     OW79509   3.297  11.274  13.338
25871SOL    HW179510   3.233  11.205  13.351
25871SOL    HW279511   3.248  11.344  13.295
25872SOL     OW79512   0.530  13.667   6.087
25872SOL    HW179513   0.484  13.715   6.156
25872SOL    HW279514   0.462  13.613   6.047
25873SOL     OW79515   1.236  11.308  12.267
25873SOL    HW179516   1.196  11.225  12.241
25873SOL    HW279517   1.166  11.355  12.313
25874SOL     OW79518   7.253   6.448   2.959
25874SOL    HW179519   7.158   6.436   2.960
25874SOL    HW279520   7.266   6.530   2.911
25875SOL     OW79521   0.915   6.759  11.674
25875SOL    HW179522   0.904   6.734  11.766
25875SOL    HW279523   0.849   6.709  11.627
25876SOL     OW79524  11.170   9.270   8.099
25876SOL    HW179525  11.133   9.252   8.185
25876SOL    HW279526  11.217   9.353   8.111
25877SOL     OW79527  13.208   7.185  10.670
25877SOL    HW179528  13.132   7.192  10.611
25877SOL    HW279529  13.229   7.276  10.691
25878SOL     OW79530   9.648  14.419  11.307
25878SOL    HW179531   9.704  14.422  11.229
25878SOL    HW279532   9.676  14.494  11.359
25879SOL     OW79533   0.517  12.777   6.937
25879SOL    HW179534   0.528  12.761   7.031
25879SOL    HW279535   0.422  12.782   6.925
25880SOL     OW79536   8.359   4.671   8.820
25880SOL    HW179537   8.344   4.742   8.883
25880SOL    HW279538   8.424   4.615   8.861
25881SOL     OW79539   8.166  10.643  10.916
25881SOL    HW179540   8.253  10.634  10.878
25881SOL    HW279541   8.108  10.651  10.840
25882SOL     OW79542  12.574  10.529  11.061
25882SOL    HW179543  12.509  10.514  11.130
25882SOL    HW279544  12.537  10.598  11.007
25883SOL     OW79545   7.001   8.805  11.983
25883SOL    HW179546   6.983   8.751  12.060
25883SOL    HW279547   6.940   8.772  11.917
25884SOL     OW79548   6.624   7.288  12.225
25884SOL    HW179549   6.529   7.280  12.233
25884SOL    HW279550   6.637   7.360  12.164
25885SOL     OW79551   4.757  13.160   0.656
25885SOL    HW179552   4.823  13.221   0.625
25885SOL    HW279553   4.755  13.090   0.591
25886SOL     OW79554  11.431   9.646  12.337
25886SOL    HW179555  11.504   9.689  12.292
25886SOL    HW279556  11.359   9.710  12.332
25887SOL     OW79557   6.787   3.460   6.800
25887SOL    HW179558   6.797   3.444   6.706
25887SOL    HW279559   6.876   3.472   6.832
25888SOL     OW79560   3.008   4.448   6.807
25888SOL    HW179561   3.002   4.434   6.712
25888SOL    HW279562   2.971   4.535   6.820
25889SOL     OW79563   4.985   9.194  13.167
25889SOL    HW179564   5.013   9.156  13.250
25889SOL    HW279565   5.024   9.281  13.166
25890SOL     OW79566  14.438   7.443   9.249
25890SOL    HW179567  14.523   7.469   9.284
25890SOL    HW279568  14.413   7.367   9.301
25891SOL     OW79569   1.769   2.481  11.297
25891SOL    HW179570   1.721   2.506  11.218
25891SOL    HW279571   1.760   2.386  11.302
25892SOL     OW79572   2.267   6.969  11.804
25892SOL    HW179573   2.191   7.024  11.820
25892SOL    HW279574   2.238   6.880  11.825
25893SOL     OW79575   5.771   2.943  14.288
25893SOL    HW179576   5.681   2.956  14.259
25893SOL    HW279577   5.768   2.958  14.383
25894SOL     OW79578   2.158   4.093  13.234
25894SOL    HW179579   2.096   4.025  13.210
25894SOL    HW279580   2.186   4.070  13.322
25895SOL     OW79581   5.652  12.664  10.619
25895SOL    HW179582   5.617  12.590  10.568
25895SOL    HW279583   5.597  12.668  10.696
25896SOL     OW79584   9.850   8.805   5.174
25896SOL    HW179585   9.871   8.846   5.258
25896SOL    HW279586   9.790   8.868   5.132
25897SOL     OW79587   7.143   9.999   5.801
25897SOL    HW179588   7.174   9.979   5.713
25897SOL    HW279589   7.088  10.077   5.791
25898SOL     OW79590   7.940   1.120  11.928
25898SOL    HW179591   7.869   1.086  11.873
25898SOL    HW279592   7.940   1.064  12.006
25899SOL     OW79593  11.661   8.829   1.178
25899SOL    HW179594  11.619   8.773   1.243
25899SOL    HW279595  11.732   8.776   1.143
25900SOL     OW79596   2.855  13.931  14.267
25900SOL    HW179597   2.845  13.841  14.235
25900SOL    HW279598   2.908  13.923  14.345
25901SOL     OW79599   5.135  10.027   8.428
25901SOL    HW179600   5.164  10.033   8.520
25901SOL    HW279601   5.080   9.950   8.425
25902SOL     OW79602  10.452   8.906  11.235
25902SOL    HW179603  10.390   8.917  11.307
25902SOL    HW279604  10.537   8.928  11.273
25903SOL     OW79605   1.708  14.153   9.388
25903SOL    HW179606   1.641  14.147   9.456
25903SOL    HW279607   1.758  14.071   9.396
25904SOL     OW79608   6.945  10.451  10.534
25904SOL    HW179609   6.928  10.503  10.456
25904SOL    HW279610   6.887  10.375  10.526
25905SOL     OW79611  12.303   5.958  12.698
25905SOL    HW179612  12.362   6.029  12.721
25905SOL    HW279613  12.304   5.956  12.602
25906SOL     OW79614  13.182   0.831   4.829
25906SOL    HW179615  13.105   0.830   4.886
25906SOL    HW279616  13.162   0.898   4.764
25907SOL     OW79617   5.267   7.609   5.895
25907SOL    HW179618   5.272   7.542   5.827
25907SOL    HW279619   5.228   7.564   5.970
25908SOL     OW79620   7.068  12.211   1.764
25908SOL    HW179621   7.060  12.283   1.826
25908SOL    HW279622   7.162  12.204   1.747
25909SOL     OW79623  12.378   9.051  11.553
25909SOL    HW179624  12.399   9.007  11.471
25909SOL    HW279625  12.458   9.042  11.606
25910SOL     OW79626   5.571  11.761  13.379
25910SOL    HW179627   5.507  11.821  13.342
25910SOL    HW279628   5.520  11.702  13.435
25911SOL     OW79629   6.689  12.142  13.074
25911SOL    HW179630   6.616  12.123  13.015
25911SOL    HW279631   6.767  12.125  13.022
25912SOL     OW79632  10.842  10.002  14.517
25912SOL    HW179633  10.825   9.993  14.423
25912SOL    HW279634  10.771  10.056  14.550
25913SOL     OW79635   7.446   0.229   8.338
25913SOL    HW179636   7.459   0.138   8.366
25913SOL    HW279637   7.420   0.275   8.417
25914SOL     OW79638   9.056   5.058   7.983
25914SOL    HW179639   8.981   5.050   7.925
25914SOL    HW279640   9.082   5.150   7.977
25915SOL     OW79641   6.324  14.302   3.117
25915SOL    HW179642   6.277  14.321   3.035
25915SOL    HW279643   6.359  14.387   3.144
25916SOL     OW79644   2.943   8.759  11.797
25916SOL    HW179645   2.862   8.792  11.758
25916SOL    HW279646   2.973   8.692  11.735
25917SOL     OW79647   3.351   4.864  10.078
25917SOL    HW179648   3.380   4.955  10.069
25917SOL    HW279649   3.292   4.866  10.154
25918SOL     OW79650  13.711   6.925  11.031
25918SOL    HW179651  13.642   6.865  11.060
25918SOL    HW279652  13.666   7.006  11.009
25919SOL     OW79653  12.986  10.164  12.001
25919SOL    HW179654  13.041  10.132  11.930
25919SOL    HW279655  13.008  10.109  12.076
25920SOL     OW79656   1.014   6.591   3.739
25920SOL    HW179657   1.032   6.501   3.714
25920SOL    HW279658   1.100   6.626   3.765
25921SOL     OW79659  11.344   8.183   9.891
25921SOL    HW179660  11.345   8.270   9.933
25921SOL    HW279661  11.279   8.134   9.942
25922SOL     OW79662   4.835   1.789   8.351
25922SOL    HW179663   4.744   1.761   8.362
25922SOL    HW279664   4.830   1.864   8.292
25923SOL     OW79665   4.402   0.927   6.546
25923SOL    HW179666   4.371   0.994   6.485
25923SOL    HW279667   4.456   0.869   6.493
25924SOL     OW79668   8.014  12.049   8.361
25924SOL    HW179669   8.088  12.060   8.421
25924SOL    HW279670   7.936  12.058   8.416
25925SOL     OW79671  14.728  10.165   1.407
25925SOL    HW179672  14.797  10.182   1.470
25925SOL    HW279673  14.766  10.190   1.323
25926SOL     OW79674   1.587   6.698   0.082
25926SOL    HW179675   1.521   6.719   0.148
25926SOL    HW279676   1.670   6.696   0.131
25927SOL     OW79677   4.321   1.270   1.800
25927SOL    HW179678   4.363   1.261   1.715
25927SOL    HW279679   4.375   1.333   1.848
25928SOL     OW79680   8.541   5.542  10.245
25928SOL    HW179681   8.614   5.543  10.183
25928SOL    HW279682   8.517   5.450  10.253
25929SOL     OW79683   9.132   3.727   6.229
25929SOL    HW179684   9.123   3.665   6.156
25929SOL    HW279685   9.052   3.780   6.225
25930SOL     OW79686   1.481   0.602   2.129
25930SOL    HW179687   1.532   0.626   2.206
25930SOL    HW279688   1.391   0.592   2.161
25931SOL     OW79689   7.101  11.833   9.048
25931SOL    HW179690   7.095  11.888   9.126
25931SOL    HW279691   7.102  11.743   9.083
25932SOL     OW79692   6.514  10.885   1.269
25932SOL    HW179693   6.452  10.835   1.217
25932SOL    HW279694   6.516  10.971   1.227
25933SOL     OW79695   1.316  13.793   6.144
25933SOL    HW179696   1.261  13.778   6.221
25933SOL    HW279697   1.293  13.722   6.084
25934SOL     OW79698  14.354   5.768   7.805
25934SOL    HW179699  14.273   5.751   7.757
25934SOL    HW279700  14.353   5.863   7.821
25935SOL     OW79701   0.932  10.049   4.362
25935SOL    HW179702   0.974  10.021   4.280
25935SOL    HW279703   0.847  10.005   4.361
25936SOL     OW79704  10.797   1.163  13.627
25936SOL    HW179705  10.787   1.118  13.543
25936SOL    HW279706  10.715   1.144  13.674
25937SOL     OW79707   2.711  11.734   2.950
25937SOL    HW179708   2.650  11.673   2.907
25937SOL    HW279709   2.790  11.683   2.963
25938SOL     OW79710  13.141   6.076   0.734
25938SOL    HW179711  13.071   6.109   0.789
25938SOL    HW279712  13.176   6.001   0.782
25939SOL     OW79713   8.422   9.960  10.602
25939SOL    HW179714   8.477  10.000  10.534
25939SOL    HW279715   8.378  10.034  10.643
25940SOL     OW79716   4.674   3.387  11.133
25940SOL    HW179717   4.662   3.370  11.227
25940SOL    HW279718   4.728   3.466  11.129
25941SOL     OW79719   8.660   4.890   2.133
25941SOL    HW179720   8.695   4.973   2.164
25941SOL    HW279721   8.625   4.848   2.212
25942SOL     OW79722  14.540   2.266   6.162
25942SOL    HW179723  14.449   2.235   6.167
25942SOL    HW279724  14.534   2.359   6.181
25943SOL     OW79725  13.638   5.330   9.151
25943SOL    HW179726  13.638   5.237   9.130
25943SOL    HW279727  13.647   5.374   9.067
25944SOL     OW79728   6.444  11.892  11.405
25944SOL    HW179729   6.460  11.860  11.494
25944SOL    HW279730   6.386  11.827  11.366
25945SOL     OW79731   7.397  12.305   0.342
25945SOL    HW179732   7.415  12.218   0.377
25945SOL    HW279733   7.436  12.304   0.254
25946SOL     OW79734  12.055  14.798   5.942
25946SOL    HW179735  12.136  14.749   5.959
25946SOL    HW279736  12.062  14.823   5.849
25947SOL     OW79737   4.442   8.025  13.092
25947SOL    HW179738   4.440   7.972  13.171
25947SOL    HW279739   4.373   7.987  13.036
25948SOL     OW79740   4.915   2.058  13.469
25948SOL    HW179741   4.845   1.992  13.468
25948SOL    HW279742   4.985   2.018  13.521
25949SOL     OW79743   6.530  12.127   7.332
25949SOL    HW179744   6.615  12.119   7.376
25949SOL    HW279745   6.471  12.160   7.401
25950SOL     OW79746  11.596   0.748   3.074
25950SOL    HW179747  11.565   0.821   3.128
25950SOL    HW279748  11.561   0.766   2.987
25951SOL     OW79749  11.759  12.823  10.288
25951SOL    HW179750  11.760  12.750  10.226
25951SOL    HW279751  11.681  12.807  10.342
25952SOL     OW79752  10.581  14.499   6.203
25952SOL    HW179753  10.626  14.529   6.282
25952SOL    HW279754  10.490  14.527   6.216
25953SOL     OW79755  14.298  12.021   8.983
25953SOL    HW179756  14.260  11.934   8.997
25953SOL    HW279757  14.223  12.075   8.957
25954SOL     OW79758  12.441   2.520   1.442
25954SOL    HW179759  12.463   2.572   1.519
25954SOL    HW279760  12.355   2.553   1.414
25955SOL     OW79761  11.838  10.028  12.007
25955SOL    HW179762  11.764  10.055  12.061
25955SOL    HW279763  11.817  10.060  11.920
25956SOL     OW79764   8.069  14.536  10.804
25956SOL    HW179765   8.107  14.614  10.765
25956SOL    HW279766   8.029  14.566  10.886
25957SOL     OW79767   3.988  12.462   5.664
25957SOL    HW179768   3.986  12.391   5.599
25957SOL    HW279769   4.061  12.439   5.721
25958SOL     OW79770   1.267  14.533  10.077
25958SOL    HW179771   1.255  14.614  10.126
25958SOL    HW279772   1.326  14.556  10.006
25959SOL     OW79773  13.109  11.285   3.222
25959SOL    HW179774  13.131  11.370   3.259
25959SOL    HW279775  13.014  11.280   3.227
25960SOL     OW79776   1.046   9.568   2.300
25960SOL    HW179777   1.074   9.656   2.275
25960SOL    HW279778   0.952   9.576   2.316
25961SOL     OW79779   2.819  14.732  11.971
25961SOL    HW179780   2.913  14.713  11.975
25961SOL    HW279781   2.808  14.786  11.893
25962SOL     OW79782   4.746   5.112   5.779
25962SOL    HW179783   4.820   5.173   5.780
25962SOL    HW279784   4.669   5.169   5.771
25963SOL     OW79785   2.092   8.595   6.972
25963SOL    HW179786   2.029   8.534   6.932
25963SOL    HW279787   2.037   8.660   7.016
25964SOL     OW79788   4.840   6.209  11.758
25964SOL    HW179789   4.929   6.233  11.784
25964SOL    HW279790   4.787   6.286  11.779
25965SOL     OW79791  14.861  11.924   8.356
25965SOL    HW179792   0.030  11.843   8.323
25965SOL    HW279793  14.792  11.945   8.292
25966SOL     OW79794   3.293   4.879   5.355
25966SOL    HW179795   3.204   4.866   5.323
25966SOL    HW279796   3.282   4.933   5.434
25967SOL     OW79797   7.911   1.019   4.840
25967SOL    HW179798   7.976   0.970   4.791
25967SOL    HW279799   7.930   1.111   4.820
25968SOL     OW79800   8.113   0.706  14.580
25968SOL    HW179801   8.167   0.629  14.565
25968SOL    HW279802   8.173   0.772  14.615
25969SOL     OW79803   0.998  12.595   0.606
25969SOL    HW179804   0.935  12.547   0.660
25969SOL    HW279805   0.993  12.553   0.520
25970SOL     OW79806  11.735   6.918   2.732
25970SOL    HW179807  11.821   6.891   2.764
25970SOL    HW279808  11.735   7.013   2.740
25971SOL     OW79809   3.146  12.375   3.257
25971SOL    HW179810   3.100  12.317   3.196
25971SOL    HW279811   3.077  12.430   3.294
25972SOL     OW79812   0.434   9.124   3.629
25972SOL    HW179813   0.470   9.213   3.628
25972SOL    HW279814   0.382   9.120   3.709
25973SOL     OW79815  11.405   7.509   6.160
25973SOL    HW179816  11.445   7.445   6.219
25973SOL    HW279817  11.365   7.574   6.218
25974SOL     OW79818  13.134   7.412  13.543
25974SOL    HW179819  13.104   7.388  13.631
25974SOL    HW279820  13.160   7.330  13.503
25975SOL     OW79821   5.070   6.991   1.710
25975SOL    HW179822   5.011   7.043   1.656
25975SOL    HW279823   5.074   7.037   1.794
25976SOL     OW79824   7.820  12.589  12.142
25976SOL    HW179825   7.820  12.659  12.208
25976SOL    HW279826   7.729  12.582  12.115
25977SOL     OW79827   6.311  10.850   2.189
25977SOL    HW179828   6.267  10.881   2.110
25977SOL    HW279829   6.361  10.926   2.219
25978SOL     OW79830  14.438   9.162   3.001
25978SOL    HW179831  14.421   9.116   2.919
25978SOL    HW279832  14.356   9.152   3.050
25979SOL     OW79833   7.534   2.718   2.013
25979SOL    HW179834   7.532   2.711   1.917
25979SOL    HW279835   7.444   2.699   2.040
25980SOL     OW79836   0.751   5.345  14.793
25980SOL    HW179837   0.694   5.280  14.835
25980SOL    HW279838   0.755   5.417  14.855
25981SOL     OW79839   0.343  13.144   6.758
25981SOL    HW179840   0.255  13.169   6.730
25981SOL    HW279841   0.369  13.075   6.696
25982SOL     OW79842  10.275   0.963  10.808
25982SOL    HW179843  10.228   1.046  10.800
25982SOL    HW279844  10.207   0.896  10.804
25983SOL     OW79845   0.087  11.552   3.196
25983SOL    HW179846   0.037  11.472   3.211
25983SOL    HW279847   0.033  11.603   3.136
25984SOL     OW79848  12.945   1.144   7.507
25984SOL    HW179849  12.887   1.110   7.438
25984SOL    HW279850  12.886   1.190   7.566
25985SOL     OW79851  12.316  11.479   5.651
25985SOL    HW179852  12.402  11.485   5.609
25985SOL    HW279853  12.332  11.505   5.741
25986SOL     OW79854   1.411  10.357  10.212
25986SOL    HW179855   1.343  10.389  10.271
25986SOL    HW279856   1.384  10.269  10.188
25987SOL     OW79857   7.033  12.020  14.354
25987SOL    HW179858   6.952  12.052  14.394
25987SOL    HW279859   7.075  12.097  14.317
25988SOL     OW79860  13.148   1.863  13.184
25988SOL    HW179861  13.079   1.887  13.245
25988SOL    HW279862  13.123   1.776  13.152
25989SOL     OW79863  11.859   7.296   1.631
25989SOL    HW179864  11.901   7.278   1.715
25989SOL    HW279865  11.783   7.238   1.630
25990SOL     OW79866  10.766   0.959  13.390
25990SOL    HW179867  10.806   0.967  13.303
25990SOL    HW279868  10.681   0.918  13.373
25991SOL     OW79869  11.156   8.562   8.949
25991SOL    HW179870  11.150   8.482   9.002
25991SOL    HW279871  11.138   8.533   8.860
25992SOL     OW79872   3.326   7.924  14.818
25992SOL    HW179873   3.237   7.895  14.799
25992SOL    HW279874   3.361   7.858   0.008
25993SOL     OW79875  13.223   7.780   7.455
25993SOL    HW179876  13.258   7.693   7.471
25993SOL    HW279877  13.157   7.793   7.524
25994SOL     OW79878  13.077  11.740  11.745
25994SOL    HW179879  13.064  11.677  11.674
25994SOL    HW279880  13.106  11.686  11.819
25995SOL     OW79881  14.553   1.694   1.575
25995SOL    HW179882  14.637   1.703   1.619
25995SOL    HW279883  14.488   1.693   1.646
25996SOL     OW79884  12.059   9.557  11.252
25996SOL    HW179885  12.046   9.464  11.266
25996SOL    HW279886  11.978   9.587  11.211
25997SOL     OW79887  11.653   5.687   7.179
25997SOL    HW179888  11.712   5.639   7.238
25997SOL    HW279889  11.710   5.751   7.136
25998SOL     OW79890  10.884   7.364  14.620
25998SOL    HW179891  10.837   7.297  14.670
25998SOL    HW279892  10.824   7.438  14.615
25999SOL     OW79893   8.004   1.123  11.088
25999SOL    HW179894   8.066   1.113  11.015
25999SOL    HW279895   7.972   1.034  11.104
26000SOL     OW79896   1.232  13.067  10.418
26000SOL    HW179897   1.252  12.978  10.448
26000SOL    HW279898   1.228  13.060  10.323
26001SOL     OW79899   8.072   9.632   8.651
26001SOL    HW179900   8.160   9.648   8.617
26001SOL    HW279901   8.083   9.559   8.712
26002SOL     OW79902  14.457   0.527   8.474
26002SOL    HW179903  14.483   0.465   8.542
26002SOL    HW279904  14.488   0.611   8.505
26003SOL     OW79905   4.268   2.603  14.320
26003SOL    HW179906   4.256   2.680  14.376
26003SOL    HW279907   4.240   2.632  14.233
26004SOL     OW79908   7.310   6.150   1.843
26004SOL    HW179909   7.241   6.211   1.870
26004SOL    HW279910   7.391   6.191   1.873
26005SOL     OW79911   3.884   6.012   3.476
26005SOL    HW179912   3.812   6.049   3.527
26005SOL    HW279913   3.951   6.080   3.477
26006SOL     OW79914  14.286   2.014   6.557
26006SOL    HW179915  14.365   2.055   6.593
26006SOL    HW279916  14.274   2.055   6.471
26007SOL     OW79917   4.518   0.814  10.650
26007SOL    HW179918   4.592   0.828  10.591
26007SOL    HW279919   4.467   0.894  10.643
26008SOL     OW79920   2.042  12.367   0.024
26008SOL    HW179921   2.070  12.287   0.068
26008SOL    HW279922   2.123  12.417   0.011
26009SOL     OW79923   3.472   3.404  10.036
26009SOL    HW179924   3.429   3.413  10.120
26009SOL    HW279925   3.565   3.402  10.056
26010SOL     OW79926   1.484   3.641   2.394
26010SOL    HW179927   1.445   3.611   2.477
26010SOL    HW279928   1.511   3.561   2.350
26011SOL     OW79929   4.539   6.059   2.980
26011SOL    HW179930   4.540   5.969   2.946
26011SOL    HW279931   4.558   6.113   2.903
26012SOL     OW79932   0.172   6.380   4.103
26012SOL    HW179933   0.264   6.396   4.125
26012SOL    HW279934   0.138   6.333   4.179
26013SOL     OW79935   5.808  14.236   4.286
26013SOL    HW179936   5.725  14.233   4.334
26013SOL    HW279937   5.812  14.151   4.242
26014SOL     OW79938  10.653  11.437   2.050
26014SOL    HW179939  10.723  11.425   1.987
26014SOL    HW279940  10.624  11.527   2.038
26015SOL     OW79941   7.604  12.398  13.419
26015SOL    HW179942   7.630  12.445  13.499
26015SOL    HW279943   7.508  12.401  13.420
26016SOL     OW79944   3.268   7.750  12.536
26016SOL    HW179945   3.275   7.815  12.466
26016SOL    HW279946   3.245   7.668  12.491
26017SOL     OW79947  10.146  14.432   6.804
26017SOL    HW179948  10.165  14.489   6.879
26017SOL    HW279949  10.080  14.480   6.754
26018SOL     OW79950   3.096   6.543  12.702
26018SOL    HW179951   3.076   6.619  12.647
26018SOL    HW279952   3.065   6.468  12.651
26019SOL     OW79953   8.562   8.734  12.068
26019SOL    HW179954   8.594   8.807  12.121
26019SOL    HW279955   8.625   8.663  12.084
26020SOL     OW79956   3.248   5.535  13.074
26020SOL    HW179957   3.244   5.519  13.168
26020SOL    HW279958   3.192   5.612  13.060
26021SOL     OW79959   5.536   8.722   3.613
26021SOL    HW179960   5.499   8.805   3.643
26021SOL    HW279961   5.582   8.687   3.689
26022SOL     OW79962  10.271   7.390  14.179
26022SOL    HW179963  10.269   7.359  14.270
26022SOL    HW279964  10.343   7.341  14.139
26023SOL     OW79965   6.885   7.855   9.122
26023SOL    HW179966   6.834   7.933   9.145
26023SOL    HW279967   6.907   7.815   9.206
26024SOL     OW79968   0.072   1.038  10.632
26024SOL    HW179969   0.149   0.988  10.606
26024SOL    HW279970   0.092   1.071  10.719
26025SOL     OW79971   6.892   2.085  14.251
26025SOL    HW179972   6.829   2.013  14.251
26025SOL    HW279973   6.867   2.139  14.326
26026SOL     OW79974  13.771   9.218  11.928
26026SOL    HW179975  13.684   9.179  11.944
26026SOL    HW279976  13.825   9.182  11.998
26027SOL     OW79977   1.424   7.505   4.392
26027SOL    HW179978   1.410   7.599   4.388
26027SOL    HW279979   1.464   7.483   4.308
26028SOL     OW79980  12.813  14.346   0.784
26028SOL    HW179981  12.816  14.428   0.833
26028SOL    HW279982  12.745  14.360   0.718
26029SOL     OW79983   9.974   5.825   2.720
26029SOL    HW179984   9.891   5.871   2.728
26029SOL    HW279985   9.987   5.783   2.806
26030SOL     OW79986   1.811   4.744   4.494
26030SOL    HW179987   1.859   4.758   4.413
26030SOL    HW279988   1.846   4.662   4.529
26031SOL     OW79989   0.613   3.653  12.600
26031SOL    HW179990   0.694   3.654  12.550
26031SOL    HW279991   0.545   3.676  12.536
26032SOL     OW79992  12.701  10.259  13.442
26032SOL    HW179993  12.703  10.352  13.418
26032SOL    HW279994  12.688  10.213  13.360
26033SOL     OW79995   2.441   7.751  10.573
26033SOL    HW179996   2.405   7.794  10.495
26033SOL    HW279997   2.413   7.660  10.564
26034SOL     OW79998  11.623  14.031   7.377
26034SOL    HW179999  11.657  13.941   7.381
26034SOL    HW280000  11.702  14.086   7.378
26035SOL     OW80001   3.942  13.136   5.790
26035SOL    HW180002   4.019  13.182   5.820
26035SOL    HW280003   3.941  13.054   5.840
26036SOL     OW80004   0.458  14.519   5.610
26036SOL    HW180005   0.372  14.478   5.597
26036SOL    HW280006   0.497  14.519   5.522
26037SOL     OW80007   6.222   5.383   7.256
26037SOL    HW180008   6.245   5.290   7.246
26037SOL    HW280009   6.263   5.426   7.181
26038SOL     OW80010   5.391  11.682   9.634
26038SOL    HW180011   5.447  11.665   9.559
26038SOL    HW280012   5.381  11.597   9.676
26039SOL     OW80013   5.408   8.938   6.277
26039SOL    HW180014   5.414   8.879   6.353
26039SOL    HW280015   5.358   9.013   6.310
26040SOL     OW80016   7.662   6.882   9.745
26040SOL    HW180017   7.658   6.965   9.792
26040SOL    HW280018   7.752   6.877   9.712
26041SOL     OW80019   6.400   8.898   6.828
26041SOL    HW180020   6.355   8.837   6.769
26041SOL    HW280021   6.363   8.878   6.915
26042SOL     OW80022   0.399   4.433   2.299
26042SOL    HW180023   0.451   4.448   2.220
26042SOL    HW280024   0.402   4.338   2.312
26043SOL     OW80025   3.129   5.277   8.742
26043SOL    HW180026   3.152   5.306   8.654
26043SOL    HW280027   3.157   5.348   8.799
26044SOL     OW80028   8.843   9.196  10.733
26044SOL    HW180029   8.849   9.149  10.650
26044SOL    HW280030   8.834   9.127  10.799
26045SOL     OW80031   6.852  10.789   7.231
26045SOL    HW180032   6.840  10.870   7.281
26045SOL    HW280033   6.780  10.732   7.259
26046SOL     OW80034  10.911   3.446   7.984
26046SOL    HW180035  10.867   3.527   8.011
26046SOL    HW280036  10.995   3.476   7.948
26047SOL     OW80037   0.280   8.706   0.957
26047SOL    HW180038   0.316   8.621   0.933
26047SOL    HW280039   0.257   8.697   1.050
26048SOL     OW80040  12.359   8.128   1.566
26048SOL    HW180041  12.393   8.216   1.550
26048SOL    HW280042  12.434   8.070   1.547
26049SOL     OW80043   3.440   8.147   7.299
26049SOL    HW180044   3.506   8.177   7.236
26049SOL    HW280045   3.487   8.142   7.382
26050SOL     OW80046  11.210   7.375   1.375
26050SOL    HW180047  11.253   7.294   1.349
26050SOL    HW280048  11.197   7.367   1.469
26051SOL     OW80049   1.109   1.641   1.747
26051SOL    HW180050   1.123   1.587   1.670
26051SOL    HW280051   1.162   1.600   1.815
26052SOL     OW80052   5.069  13.384  13.705
26052SOL    HW180053   5.033  13.316  13.648
26052SOL    HW280054   5.026  13.465  13.675
26053SOL     OW80055   1.097  10.352  14.129
26053SOL    HW180056   1.011  10.348  14.087
26053SOL    HW280057   1.098  10.279  14.190
26054SOL     OW80058   9.289   0.242   3.884
26054SOL    HW180059   9.247   0.177   3.940
26054SOL    HW280060   9.279   0.208   3.795
26055SOL     OW80061  13.930  13.670   7.941
26055SOL    HW180062  14.023  13.658   7.960
26055SOL    HW280063  13.928  13.726   7.864
26056SOL     OW80064   0.189  12.625   1.253
26056SOL    HW180065   0.250  12.567   1.299
26056SOL    HW280066   0.223  12.632   1.164
26057SOL     OW80067  11.689   1.867   3.069
26057SOL    HW180068  11.710   1.874   2.976
26057SOL    HW280069  11.637   1.945   3.089
26058SOL     OW80070   3.027   2.225   6.464
26058SOL    HW180071   3.074   2.193   6.541
26058SOL    HW280072   3.087   2.210   6.391
26059SOL     OW80073  13.395  14.541  10.538
26059SOL    HW180074  13.461  14.472  10.540
26059SOL    HW280075  13.312  14.494  10.537
26060SOL     OW80076  10.435   7.695   3.368
26060SOL    HW180077  10.409   7.742   3.447
26060SOL    HW280078  10.428   7.760   3.298
26061SOL     OW80079   5.768  11.194  12.861
26061SOL    HW180080   5.750  11.223  12.772
26061SOL    HW280081   5.860  11.168  12.860
26062SOL     OW80082   6.918  12.057   8.130
26062SOL    HW180083   6.839  12.007   8.114
26062SOL    HW280084   6.936  12.046   8.223
26063SOL     OW80085   9.872   8.203   5.885
26063SOL    HW180086   9.812   8.166   5.950
26063SOL    HW280087   9.941   8.246   5.938
26064SOL     OW80088   9.562  10.314  13.058
26064SOL    HW180089   9.554  10.308  12.963
26064SOL    HW280090   9.491  10.259  13.092
26065SOL     OW80091   6.612  13.377   9.443
26065SOL    HW180092   6.656  13.380   9.358
26065SOL    HW280093   6.683  13.375   9.507
26066SOL     OW80094   4.273   8.105   9.660
26066SOL    HW180095   4.183   8.092   9.630
26066SOL    HW280096   4.315   8.020   9.646
26067SOL     OW80097   6.388  13.926   1.934
26067SOL    HW180098   6.431  14.011   1.935
26067SOL    HW280099   6.448  13.868   1.981
26068SOL     OW80100   9.352  12.398   8.111
26068SOL    HW180101   9.329  12.347   8.034
26068SOL    HW280102   9.267  12.429   8.145
26069SOL     OW80103   8.103   8.694   7.574
26069SOL    HW180104   8.153   8.617   7.603
26069SOL    HW280105   8.014   8.677   7.604
26070SOL     OW80106   7.824   3.522   6.912
26070SOL    HW180107   7.873   3.513   6.830
26070SOL    HW280108   7.784   3.609   6.906
26071SOL     OW80109  12.899  13.542   7.580
26071SOL    HW180110  12.843  13.579   7.647
26071SOL    HW280111  12.986  13.580   7.597
26072SOL     OW80112   1.793   8.559   0.630
26072SOL    HW180113   1.757   8.470   0.631
26072SOL    HW280114   1.867   8.555   0.691
26073SOL     OW80115   3.590   4.764  14.755
26073SOL    HW180116   3.505   4.725  14.738
26073SOL    HW280117   3.653   4.705  14.713
26074SOL     OW80118   0.783   8.244   0.494
26074SOL    HW180119   0.857   8.296   0.464
26074SOL    HW280120   0.784   8.166   0.439
26075SOL     OW80121  13.737   3.493   4.555
26075SOL    HW180122  13.652   3.534   4.541
26075SOL    HW280123  13.794   3.565   4.582
26076SOL     OW80124   7.874   7.504   9.608
26076SOL    HW180125   7.853   7.560   9.682
26076SOL    HW280126   7.843   7.552   9.532
26077SOL     OW80127   4.604  12.174   2.011
26077SOL    HW180128   4.602  12.122   2.092
26077SOL    HW280129   4.694  12.163   1.979
26078SOL     OW80130   5.354   9.688  11.749
26078SOL    HW180131   5.342   9.597  11.720
26078SOL    HW280132   5.301   9.694  11.829
26079SOL     OW80133   1.450  11.203   0.670
26079SOL    HW180134   1.434  11.113   0.700
26079SOL    HW280135   1.534  11.226   0.709
26080SOL     OW80136  13.040   6.167  14.516
26080SOL    HW180137  13.101   6.135  14.583
26080SOL    HW280138  13.047   6.105  14.444
26081SOL     OW80139   4.203   4.270   6.909
26081SOL    HW180140   4.219   4.179   6.883
26081SOL    HW280141   4.113   4.269   6.943
26082SOL     OW80142   6.006   9.885   4.755
26082SOL    HW180143   6.101   9.873   4.749
26082SOL    HW280144   5.986   9.869   4.847
26083SOL     OW80145   1.434   4.295   4.284
26083SOL    HW180146   1.428   4.199   4.283
26083SOL    HW280147   1.348   4.323   4.316
26084SOL     OW80148  11.953   1.956   3.223
26084SOL    HW180149  12.032   1.933   3.175
26084SOL    HW280150  11.959   2.050   3.236
26085SOL     OW80151   1.200   8.993   0.898
26085SOL    HW180152   1.111   9.028   0.903
26085SOL    HW280153   1.256   9.071   0.901
26086SOL     OW80154   4.264   2.126   3.111
26086SOL    HW180155   4.221   2.144   3.194
26086SOL    HW280156   4.346   2.176   3.115
26087SOL     OW80157  12.911   4.311   8.327
26087SOL    HW180158  12.991   4.353   8.360
26087SOL    HW280159  12.931   4.290   8.236
26088SOL     OW80160   5.878   5.055   5.325
26088SOL    HW180161   5.953   5.024   5.276
26088SOL    HW280162   5.891   5.150   5.332
26089SOL     OW80163   7.872  10.175   7.843
26089SOL    HW180164   7.884  10.237   7.771
26089SOL    HW280165   7.875  10.229   7.922
26090SOL     OW80166   5.690   5.594   0.284
26090SOL    HW180167   5.692   5.685   0.254
26090SOL    HW280168   5.781   5.564   0.277
26091SOL     OW80169  10.768   8.367   7.831
26091SOL    HW180170  10.846   8.419   7.850
26091SOL    HW280171  10.798   8.298   7.772
26092SOL     OW80172  13.132   2.688  12.875
26092SOL    HW180173  13.104   2.697  12.784
26092SOL    HW280174  13.078   2.616  12.909
26093SOL     OW80175   1.671  10.570  11.120
26093SOL    HW180176   1.606  10.505  11.146
26093SOL    HW280177   1.742  10.519  11.082
26094SOL     OW80178  10.169  14.416   7.714
26094SOL    HW180179  10.264  14.420   7.718
26094SOL    HW280180  10.147  14.332   7.754
26095SOL     OW80181   0.101   1.742   7.168
26095SOL    HW180182   0.025   1.796   7.190
26095SOL    HW280183   0.119   1.691   7.247
26096SOL     OW80184   8.257  12.885   1.208
26096SOL    HW180185   8.261  12.950   1.278
26096SOL    HW280186   8.172  12.900   1.166
26097SOL     OW80187  14.316   3.770   6.310
26097SOL    HW180188  14.239   3.778   6.367
26097SOL    HW280189  14.386   3.741   6.368
26098SOL     OW80190   5.135  14.483   4.524
26098SOL    HW180191   5.073  14.506   4.594
26098SOL    HW280192   5.181  14.565   4.505
26099SOL     OW80193   0.025  11.375   6.853
26099SOL    HW180194   0.017  11.425   6.934
26099SOL    HW280195  14.805  11.367   6.821
26100SOL     OW80196  13.359  13.498   4.739
26100SOL    HW180197  13.347  13.568   4.802
26100SOL    HW280198  13.277  13.448   4.742
26101SOL     OW80199   9.532   4.892   8.734
26101SOL    HW180200   9.486   4.963   8.778
26101SOL    HW280201   9.568   4.839   8.806
26102SOL     OW80202   5.174  14.692   8.851
26102SOL    HW180203   5.214  14.646   8.925
26102SOL    HW280204   5.188  14.785   8.870
26103SOL     OW80205   4.572   9.789   0.492
26103SOL    HW180206   4.514   9.721   0.524
26103SOL    HW280207   4.651   9.742   0.464
26104SOL     OW80208   2.290  11.795  12.470
26104SOL    HW180209   2.324  11.866  12.524
26104SOL    HW280210   2.360  11.729  12.470
26105SOL     OW80211   3.471  14.015   1.332
26105SOL    HW180212   3.473  14.098   1.380
26105SOL    HW280213   3.502  14.037   1.244
26106SOL     OW80214   8.597   1.073  14.685
26106SOL    HW180215   8.562   1.154  14.648
26106SOL    HW280216   8.520   1.027  14.720
26107SOL     OW80217   9.689   6.945  14.370
26107SOL    HW180218   9.670   7.025  14.322
26107SOL    HW280219   9.611   6.931  14.425
26108SOL     OW80220  10.753   3.612  10.363
26108SOL    HW180221  10.811   3.562  10.304
26108SOL    HW280222  10.670   3.617  10.316
26109SOL     OW80223   2.147  13.534   0.195
26109SOL    HW180224   2.113  13.621   0.176
26109SOL    HW280225   2.238  13.536   0.166
26110SOL     OW80226  12.181  14.577   0.498
26110SOL    HW180227  12.196  14.498   0.448
26110SOL    HW280228  12.245  14.640   0.464
26111SOL     OW80229  12.611   3.745   4.728
26111SOL    HW180230  12.654   3.771   4.809
26111SOL    HW280231  12.573   3.659   4.747
26112SOL     OW80232  12.504  10.030   2.889
26112SOL    HW180233  12.441   9.991   2.829
26112SOL    HW280234  12.517   9.963   2.957
26113SOL     OW80235  13.754  11.811   8.986
26113SOL    HW180236  13.780  11.876   9.050
26113SOL    HW280237  13.831  11.799   8.931
26114SOL     OW80238   9.300  12.600  13.159
26114SOL    HW180239   9.348  12.614  13.077
26114SOL    HW280240   9.209  12.592  13.132
26115SOL     OW80241   6.779   3.333  11.319
26115SOL    HW180242   6.794   3.250  11.365
26115SOL    HW280243   6.860   3.382  11.330
26116SOL     OW80244  13.801   8.808   9.115
26116SOL    HW180245  13.755   8.833   9.035
26116SOL    HW280246  13.753   8.731   9.146
26117SOL     OW80247   1.341   1.831   7.447
26117SOL    HW180248   1.305   1.772   7.513
26117SOL    HW280249   1.435   1.833   7.465
26118SOL     OW80250  14.757  10.442   5.194
26118SOL    HW180251  14.743  10.520   5.141
26118SOL    HW280252  14.720  10.371   5.142
26119SOL     OW80253   1.843   4.599   7.932
26119SOL    HW180254   1.753   4.585   7.902
26119SOL    HW280255   1.890   4.519   7.908
26120SOL     OW80256  11.470   9.422  13.043
26120SOL    HW180257  11.439   9.467  12.965
26120SOL    HW280258  11.471   9.329  13.019
26121SOL     OW80259   6.968  14.666   1.668
26121SOL    HW180260   6.976  14.753   1.707
26121SOL    HW280261   6.943  14.610   1.742
26122SOL     OW80262   3.345   4.889   2.273
26122SOL    HW180263   3.274   4.833   2.238
26122SOL    HW280264   3.413   4.884   2.206
26123SOL     OW80265  13.605  10.570  11.072
26123SOL    HW180266  13.647  10.596  11.153
26123SOL    HW280267  13.675  10.568  11.007
26124SOL     OW80268  12.041   1.874  11.106
26124SOL    HW180269  11.973   1.937  11.082
26124SOL    HW280270  12.105   1.880  11.036
26125SOL     OW80271  13.785   8.521  11.561
26125SOL    HW180272  13.857   8.560  11.610
26125SOL    HW280273  13.804   8.427  11.560
26126SOL     OW80274   5.627   9.281  13.563
26126SOL    HW180275   5.632   9.298  13.469
26126SOL    HW280276   5.712   9.241  13.585
26127SOL     OW80277  11.735  12.448   2.343
26127SOL    HW180278  11.647  12.410   2.347
26127SOL    HW280279  11.765  12.450   2.434
26128SOL     OW80280   9.434  10.711   8.163
26128SOL    HW180281   9.504  10.746   8.108
26128SOL    HW280282   9.479  10.657   8.227
26129SOL     OW80283   8.228   4.685  10.155
26129SOL    HW180284   8.191   4.746  10.219
26129SOL    HW280285   8.309   4.727  10.125
26130SOL     OW80286  11.827   5.939   4.540
26130SOL    HW180287  11.922   5.941   4.552
26130SOL    HW280288  11.799   5.857   4.581
26131SOL     OW80289  13.722   6.256  14.415
26131SOL    HW180290  13.734   6.350  14.431
26131SOL    HW280291  13.775   6.238  14.337
26132SOL     OW80292   1.716   0.745   3.561
26132SOL    HW180293   1.633   0.720   3.601
26132SOL    HW280294   1.772   0.771   3.634
26133SOL     OW80295   0.925   4.836   8.164
26133SOL    HW180296   0.908   4.785   8.084
26133SOL    HW280297   0.989   4.902   8.137
26134SOL     OW80298  10.219   1.616   9.917
26134SOL    HW180299  10.148   1.553   9.926
26134SOL    HW280300  10.273   1.581   9.846
26135SOL     OW80301  13.547   7.436   5.311
26135SOL    HW180302  13.625   7.420   5.259
26135SOL    HW280303  13.506   7.350   5.321
26136SOL     OW80304   7.556  11.544   7.521
26136SOL    HW180305   7.597  11.560   7.435
26136SOL    HW280306   7.523  11.629   7.548
26137SOL     OW80307   6.774  10.383  12.566
26137SOL    HW180308   6.695  10.430  12.593
26137SOL    HW280309   6.765  10.375  12.471
26138SOL     OW80310  13.236   6.491   2.655
26138SOL    HW180311  13.147   6.502   2.687
26138SOL    HW280312  13.261   6.577   2.622
26139SOL     OW80313  12.374   5.974   5.257
26139SOL    HW180314  12.312   5.908   5.286
26139SOL    HW280315  12.324   6.030   5.197
26140SOL     OW80316  13.681   9.584   4.648
26140SOL    HW180317  13.586   9.587   4.652
26140SOL    HW280318  13.701   9.568   4.556
26141SOL     OW80319   6.513  12.780   1.994
26141SOL    HW180320   6.430  12.806   2.035
26141SOL    HW280321   6.571  12.762   2.068
26142SOL     OW80322   7.086   3.013   6.565
26142SOL    HW180323   7.094   3.091   6.620
26142SOL    HW280324   6.992   2.995   6.562
26143SOL     OW80325  13.486   2.359   2.380
26143SOL    HW180326  13.416   2.409   2.423
26143SOL    HW280327  13.501   2.284   2.437
26144SOL     OW80328  14.656   8.272  10.431
26144SOL    HW180329  14.695   8.186  10.412
26144SOL    HW280330  14.562   8.256  10.429
26145SOL     OW80331   6.480   6.229   8.121
26145SOL    HW180332   6.565   6.245   8.080
26145SOL    HW280333   6.420   6.218   8.047
26146SOL     OW80334   7.409  12.933  10.217
26146SOL    HW180335   7.505  12.927  10.220
26146SOL    HW280336   7.379  12.857  10.266
26147SOL     OW80337   0.050   7.094   9.484
26147SOL    HW180338  14.850   7.053   9.534
26147SOL    HW280339   0.007   7.163   9.434
26148SOL     OW80340   6.003   2.325   1.579
26148SOL    HW180341   6.087   2.315   1.534
26148SOL    HW280342   6.004   2.414   1.614
26149SOL     OW80343   0.612   6.895   9.131
26149SOL    HW180344   0.588   6.914   9.040
26149SOL    HW280345   0.574   6.809   9.148
26150SOL     OW80346   7.051   0.600  13.448
26150SOL    HW180347   7.051   0.530  13.384
26150SOL    HW280348   7.045   0.681  13.397
26151SOL     OW80349   5.595  12.997   9.222
26151SOL    HW180350   5.500  12.992   9.205
26151SOL    HW280351   5.621  12.907   9.238
26152SOL     OW80352  10.274   5.567  12.406
26152SOL    HW180353  10.326   5.632  12.359
26152SOL    HW280354  10.297   5.484  12.365
26153SOL     OW80355   3.342   9.864   4.592
26153SOL    HW180356   3.318   9.885   4.683
26153SOL    HW280357   3.397   9.786   4.599
26154SOL     OW80358  12.331   1.242   7.412
26154SOL    HW180359  12.303   1.151   7.407
26154SOL    HW280360  12.269   1.283   7.473
26155SOL     OW80361   7.375  13.026  12.668
26155SOL    HW180362   7.297  13.080  12.683
26155SOL    HW280363   7.411  13.012  12.756
26156SOL     OW80364   6.258   0.554  10.336
26156SOL    HW180365   6.289   0.464  10.321
26156SOL    HW280366   6.323   0.592  10.395
26157SOL     OW80367   1.899  12.690  13.435
26157SOL    HW180368   1.806  12.676  13.415
26157SOL    HW280369   1.900  12.766  13.493
26158SOL     OW80370  12.465   5.115   3.514
26158SOL    HW180371  12.449   5.159   3.431
26158SOL    HW280372  12.406   5.157   3.576
26159SOL     OW80373   8.202   7.769   0.591
26159SOL    HW180374   8.245   7.698   0.637
26159SOL    HW280375   8.262   7.843   0.599
26160SOL     OW80376   3.692   1.355   6.807
26160SOL    HW180377   3.668   1.430   6.752
26160SOL    HW280378   3.785   1.367   6.825
26161SOL     OW80379   1.575   0.601   6.292
26161SOL    HW180380   1.599   0.523   6.242
26161SOL    HW280381   1.603   0.582   6.381
26162SOL     OW80382  13.719   8.555  10.795
26162SOL    HW180383  13.711   8.499  10.873
26162SOL    HW280384  13.773   8.504  10.735
26163SOL     OW80385   9.614   6.591  12.381
26163SOL    HW180386   9.667   6.619  12.455
26163SOL    HW280387   9.573   6.672  12.349
26164SOL     OW80388   7.589   4.159  14.432
26164SOL    HW180389   7.649   4.227  14.461
26164SOL    HW280390   7.502   4.191  14.456
26165SOL     OW80391  13.416  14.029  14.519
26165SOL    HW180392  13.358  13.955  14.539
26165SOL    HW280393  13.443  14.014  14.428
26166SOL     OW80394   7.096   3.840   7.094
26166SOL    HW180395   7.085   3.847   7.189
26166SOL    HW280396   7.012   3.806   7.063
26167SOL     OW80397   5.977   1.990   6.572
26167SOL    HW180398   6.035   1.914   6.579
26167SOL    HW280399   5.891   1.958   6.599
26168SOL     OW80400   0.526   1.785   0.442
26168SOL    HW180401   0.499   1.785   0.534
26168SOL    HW280402   0.500   1.871   0.409
26169SOL     OW80403  13.931  13.331   7.879
26169SOL    HW180404  13.981  13.403   7.840
26169SOL    HW280405  13.843  13.342   7.843
26170SOL     OW80406  11.142   7.739   1.374
26170SOL    HW180407  11.212   7.786   1.420
26170SOL    HW280408  11.147   7.650   1.406
26171SOL     OW80409   6.136   0.268   8.192
26171SOL    HW180410   6.058   0.323   8.185
26171SOL    HW280411   6.105   0.179   8.176
26172SOL     OW80412   7.529  11.930   3.408
26172SOL    HW180413   7.580  12.005   3.378
26172SOL    HW280414   7.452  11.929   3.352
26173SOL     OW80415   3.861   4.776   8.774
26173SOL    HW180416   3.835   4.860   8.736
26173SOL    HW280417   3.952   4.764   8.746
26174SOL     OW80418  10.540   8.492  13.679
26174SOL    HW180419  10.547   8.429  13.607
26174SOL    HW280420  10.471   8.456  13.735
26175SOL     OW80421   5.088  10.169   2.433
26175SOL    HW180422   5.119  10.080   2.415
26175SOL    HW280423   5.112  10.219   2.355
26176SOL     OW80424   4.705   2.357   3.609
26176SOL    HW180425   4.675   2.319   3.691
26176SOL    HW280426   4.642   2.427   3.590
26177SOL     OW80427   0.580   0.952   5.715
26177SOL    HW180428   0.599   0.861   5.739
26177SOL    HW280429   0.546   0.992   5.795
26178SOL     OW80430   9.815  10.608  14.426
26178SOL    HW180431   9.720  10.618  14.428
26178SOL    HW280432   9.846  10.689  14.386
26179SOL     OW80433   5.118  11.506  11.180
26179SOL    HW180434   5.051  11.452  11.139
26179SOL    HW280435   5.187  11.444  11.206
26180SOL     OW80436   7.066  13.479  11.590
26180SOL    HW180437   6.973  13.475  11.613
26180SOL    HW280438   7.070  13.547  11.522
26181SOL     OW80439  10.110  11.127   1.794
26181SOL    HW180440  10.183  11.141   1.855
26181SOL    HW280441  10.053  11.065   1.839
26182SOL     OW80442  13.945  11.849   0.374
26182SOL    HW180443  13.864  11.896   0.358
26182SOL    HW280444  13.990  11.847   0.290
26183SOL     OW80445  11.693   9.178   3.284
26183SOL    HW180446  11.726   9.129   3.359
26183SOL    HW280447  11.697   9.116   3.211
26184SOL     OW80448  14.046   2.096   8.025
26184SOL    HW180449  14.059   2.175   8.077
26184SOL    HW280450  13.956   2.103   7.993
26185SOL     OW80451  13.651  11.630  12.989
26185SOL    HW180452  13.586  11.691  13.024
26185SOL    HW280453  13.629  11.624  12.896
26186SOL     OW80454  13.063   5.696   7.681
26186SOL    HW180455  13.117   5.621   7.704
26186SOL    HW280456  12.976   5.673   7.715
26187SOL     OW80457  13.113   0.218   3.323
26187SOL    HW180458  13.204   0.232   3.298
26187SOL    HW280459  13.115   0.210   3.418
26188SOL     OW80460   7.545   9.771   1.122
26188SOL    HW180461   7.586   9.685   1.113
26188SOL    HW280462   7.452   9.755   1.109
26189SOL     OW80463  11.740   0.040   5.366
26189SOL    HW180464  11.794   0.094   5.425
26189SOL    HW280465  11.801   0.011   5.299
26190SOL     OW80466  14.785  11.687  12.598
26190SOL    HW180467   0.001  11.726  12.612
26190SOL    HW280468  14.769  11.698  12.504
26191SOL     OW80469   2.938   0.785  14.559
26191SOL    HW180470   2.950   0.858  14.499
26191SOL    HW280471   2.893   0.718  14.507
26192SOL     OW80472   0.012   0.523   1.747
26192SOL    HW180473   0.044   0.586   1.683
26192SOL    HW280474  14.826   0.464   1.696
26193SOL     OW80475   7.959   0.467   9.401
26193SOL    HW180476   7.874   0.474   9.444
26193SOL    HW280477   7.938   0.458   9.308
26194SOL     OW80478   5.272  12.284   6.168
26194SOL    HW180479   5.327  12.261   6.243
26194SOL    HW280480   5.240  12.200   6.136
26195SOL     OW80481   9.119  11.055  10.375
26195SOL    HW180482   9.032  11.083  10.404
26195SOL    HW280483   9.109  11.037  10.282
26196SOL     OW80484  14.248   2.023   1.916
26196SOL    HW180485  14.172   2.080   1.926
26196SOL    HW280486  14.224   1.961   1.847
26197SOL     OW80487   1.023   9.930   4.133
26197SOL    HW180488   1.052   9.983   4.058
26197SOL    HW280489   0.942   9.890   4.105
26198SOL     OW80490   3.018   5.722  10.645
26198SOL    HW180491   3.072   5.675  10.582
26198SOL    HW280492   3.017   5.812  10.613
26199SOL     OW80493  11.561   7.536   7.394
26199SOL    HW180494  11.518   7.484   7.462
26199SOL    HW280495  11.543   7.489   7.313
26200SOL     OW80496   4.754   5.172  13.690
26200SOL    HW180497   4.801   5.248  13.655
26200SOL    HW280498   4.822   5.110  13.713
26201SOL     OW80499  11.966  10.401   2.997
26201SOL    HW180500  11.892  10.374   2.943
26201SOL    HW280501  12.004  10.476   2.949
26202SOL     OW80502   1.861  11.625   5.663
26202SOL    HW180503   1.859  11.546   5.609
26202SOL    HW280504   1.795  11.610   5.731
26203SOL     OW80505  14.134   8.501   1.712
26203SOL    HW180506  14.165   8.554   1.639
26203SOL    HW280507  14.092   8.425   1.672
26204SOL     OW80508   2.490   2.791   1.867
26204SOL    HW180509   2.503   2.876   1.825
26204SOL    HW280510   2.395   2.782   1.873
26205SOL     OW80511   4.231   6.945   2.491
26205SOL    HW180512   4.240   6.995   2.572
26205SOL    HW280513   4.196   7.008   2.428
26206SOL     OW80514   1.060   4.955   7.771
26206SOL    HW180515   1.057   5.027   7.833
26206SOL    HW280516   1.096   4.994   7.691
26207SOL     OW80517  14.544   1.102  10.982
26207SOL    HW180518  14.633   1.106  11.018
26207SOL    HW280519  14.518   1.011  10.994
26208SOL     OW80520   5.282   0.195   9.372
26208SOL    HW180521   5.297   0.101   9.366
26208SOL    HW280522   5.333   0.223   9.448
26209SOL     OW80523  14.480  10.900  12.704
26209SOL    HW180524  14.413  10.832  12.694
26209SOL    HW280525  14.562  10.855  12.680
26210SOL     OW80526   0.757  11.400   8.794
26210SOL    HW180527   0.667  11.421   8.819
26210SOL    HW280528   0.767  11.438   8.707
26211SOL     OW80529  12.252  13.647   2.332
26211SOL    HW180530  12.311  13.663   2.258
26211SOL    HW280531  12.202  13.569   2.306
26212SOL     OW80532   7.107  11.164   7.199
26212SOL    HW180533   7.079  11.256   7.194
26212SOL    HW280534   7.137  11.144   7.110
26213SOL     OW80535  14.405   0.202  13.495
26213SOL    HW180536  14.341   0.238  13.434
26213SOL    HW280537  14.353   0.152  13.558
26214SOL     OW80538  12.667   3.370   8.110
26214SOL    HW180539  12.625   3.330   8.187
26214SOL    HW280540  12.707   3.296   8.064
26215SOL     OW80541  12.339   0.342   7.366
26215SOL    HW180542  12.269   0.409   7.370
26215SOL    HW280543  12.348   0.323   7.273
26216SOL     OW80544   3.540  11.277  13.252
26216SOL    HW180545   3.462  11.294  13.306
26216SOL    HW280546   3.523  11.193  13.210
26217SOL     OW80547   4.351   3.096   6.637
26217SOL    HW180548   4.273   3.120   6.586
26217SOL    HW280549   4.408   3.173   6.630
26218SOL     OW80550  14.051   4.772  13.432
26218SOL    HW180551  14.038   4.689  13.387
26218SOL    HW280552  14.143   4.795  13.414
26219SOL     OW80553   1.939   7.320   5.306
26219SOL    HW180554   1.906   7.241   5.349
26219SOL    HW280555   2.034   7.308   5.305
26220SOL     OW80556   0.541  14.863   0.044
26220SOL    HW180557   0.447  14.857   0.063
26220SOL    HW280558   0.559   0.087   0.040
26221SOL     OW80559  14.368   3.955  10.141
26221SOL    HW180560  14.337   3.993  10.059
26221SOL    HW280561  14.458   3.929  10.123
26222SOL     OW80562   6.337   7.345   5.399
26222SOL    HW180563   6.283   7.268   5.381
26222SOL    HW280564   6.334   7.355   5.494
26223SOL     OW80565  12.909   6.940   6.022
26223SOL    HW180566  12.985   6.882   6.031
26223SOL    HW280567  12.941   7.013   5.968
26224SOL     OW80568   9.533   0.293   3.755
26224SOL    HW180569   9.507   0.368   3.703
26224SOL    HW280570   9.465   0.285   3.822
26225SOL     OW80571   0.546  12.652   3.141
26225SOL    HW180572   0.497  12.648   3.224
26225SOL    HW280573   0.498  12.593   3.082
26226SOL     OW80574   0.315   5.592   2.404
26226SOL    HW180575   0.277   5.512   2.441
26226SOL    HW280576   0.408   5.585   2.423
26227SOL     OW80577  10.724   9.722   2.975
26227SOL    HW180578  10.654   9.667   2.941
26227SOL    HW280579  10.724   9.799   2.919
26228SOL     OW80580   4.131   5.640  10.483
26228SOL    HW180581   4.218   5.642  10.443
26228SOL    HW280582   4.146   5.603  10.571
26229SOL     OW80583   9.191  14.707   9.873
26229SOL    HW180584   9.237  14.636   9.920
26229SOL    HW280585   9.114  14.726   9.927
26230SOL     OW80586   7.355   5.620  14.819
26230SOL    HW180587   7.274   5.572  14.805
26230SOL    HW280588   7.339   5.706  14.779
26231SOL     OW80589   9.446   0.865  10.633
26231SOL    HW180590   9.359   0.861  10.672
26231SOL    HW280591   9.456   0.781  10.589
26232SOL     OW80592   4.925   7.729   0.193
26232SOL    HW180593   4.958   7.805   0.241
26232SOL    HW280594   4.851   7.762   0.143
26233SOL     OW80595   9.696   6.979   9.820
26233SOL    HW180596   9.629   7.010   9.759
26233SOL    HW280597   9.713   6.888   9.794
26234SOL     OW80598   8.869   6.328   5.597
26234SOL    HW180599   8.923   6.311   5.674
26234SOL    HW280600   8.884   6.420   5.576
26235SOL     OW80601   0.462   2.629   5.736
26235SOL    HW180602   0.494   2.587   5.656
26235SOL    HW280603   0.379   2.584   5.755
26236SOL     OW80604   5.256   6.157  14.826
26236SOL    HW180605   5.176   6.205  14.848
26236SOL    HW280606   5.296   6.138   0.041
26237SOL     OW80607  13.221   9.902   7.086
26237SOL    HW180608  13.154   9.835   7.074
26237SOL    HW280609  13.304   9.854   7.089
26238SOL     OW80610   3.299   9.664   1.906
26238SOL    HW180611   3.222   9.612   1.884
26238SOL    HW280612   3.290   9.682   2.000
26239SOL     OW80613   7.294   1.385   9.832
26239SOL    HW180614   7.230   1.440   9.787
26239SOL    HW280615   7.277   1.399   9.925
26240SOL     OW80616  13.636  12.453   3.884
26240SOL    HW180617  13.624  12.487   3.973
26240SOL    HW280618  13.645  12.531   3.829
26241SOL     OW80619   0.161   8.331   5.308
26241SOL    HW180620   0.236   8.295   5.356
26241SOL    HW280621   0.088   8.323   5.370
26242SOL     OW80622  11.089  14.657   4.217
26242SOL    HW180623  11.100  14.737   4.166
26242SOL    HW280624  11.147  14.668   4.292
26243SOL     OW80625   6.873   3.892  10.014
26243SOL    HW180626   6.795   3.917   9.965
26243SOL    HW280627   6.854   3.804  10.046
26244SOL     OW80628  11.710   6.261  13.491
26244SOL    HW180629  11.786   6.307  13.455
26244SOL    HW280630  11.731   6.248  13.583
26245SOL     OW80631   2.433  13.833  10.013
26245SOL    HW180632   2.458  13.792   9.930
26245SOL    HW280633   2.480  13.783  10.080
26246SOL     OW80634  12.768   1.787   3.425
26246SOL    HW180635  12.775   1.792   3.330
26246SOL    HW280636  12.717   1.708   3.441
26247SOL     OW80637  10.604   3.938  14.415
26247SOL    HW180638  10.652   4.000  14.360
26247SOL    HW280639  10.515   3.974  14.419
26248SOL     OW80640   0.662  10.366   3.035
26248SOL    HW180641   0.724  10.430   3.001
26248SOL    HW280642   0.679  10.287   2.984
26249SOL     OW80643  13.970  14.221   9.593
26249SOL    HW180644  13.982  14.200   9.685
26249SOL    HW280645  14.055  14.204   9.553
26250SOL     OW80646   3.262   4.244  10.264
26250SOL    HW180647   3.336   4.238  10.203
26250SOL    HW280648   3.227   4.155  10.269
26251SOL     OW80649  12.562  13.331   5.463
26251SOL    HW180650  12.515  13.355   5.383
26251SOL    HW280651  12.551  13.236   5.469
26252SOL     OW80652   1.765   5.388  14.397
26252SOL    HW180653   1.821   5.339  14.458
26252SOL    HW280654   1.815   5.389  14.315
26253SOL     OW80655  11.745  10.009   3.602
26253SOL    HW180656  11.665   9.968   3.571
26253SOL    HW280657  11.808   9.994   3.532
26254SOL     OW80658   9.386   2.739   2.795
26254SOL    HW180659   9.406   2.648   2.774
26254SOL    HW280660   9.423   2.753   2.882
26255SOL     OW80661   0.589   4.695  10.721
26255SOL    HW180662   0.533   4.664  10.649
26255SOL    HW280663   0.591   4.622  10.782
26256SOL     OW80664   5.724  11.469  13.453
26256SOL    HW180665   5.778  11.400  13.415
26256SOL    HW280666   5.641  11.427  13.474
26257SOL     OW80667   1.409   8.215   3.396
26257SOL    HW180668   1.380   8.129   3.366
26257SOL    HW280669   1.334   8.273   3.379
26258SOL     OW80670   6.607   4.008  12.438
26258SOL    HW180671   6.650   3.987  12.355
26258SOL    HW280672   6.592   4.103  12.433
26259SOL     OW80673   8.279  13.927   8.570
26259SOL    HW180674   8.349  13.863   8.574
26259SOL    HW280675   8.257  13.934   8.477
26260SOL     OW80676   9.655   7.458   7.504
26260SOL    HW180677   9.741   7.487   7.474
26260SOL    HW280678   9.631   7.387   7.443
26261SOL     OW80679   8.080  12.830   5.663
26261SOL    HW180680   8.176  12.829   5.662
26261SOL    HW280681   8.056  12.884   5.588
26262SOL     OW80682   5.491  13.101  10.234
26262SOL    HW180683   5.438  13.145  10.167
26262SOL    HW280684   5.554  13.166  10.263
26263SOL     OW80685   5.457   8.783   6.480
26263SOL    HW180686   5.546   8.757   6.457
26263SOL    HW280687   5.415   8.703   6.511
26264SOL     OW80688   3.419  14.161   0.067
26264SOL    HW180689   3.345  14.181   0.125
26264SOL    HW280690   3.482  14.232   0.083
26265SOL     OW80691   1.747  12.737  11.784
26265SOL    HW180692   1.816  12.671  11.772
26265SOL    HW280693   1.666  12.691  11.759
26266SOL     OW80694   7.158   0.155  12.363
26266SOL    HW180695   7.131   0.221  12.428
26266SOL    HW280696   7.153   0.072  12.410
26267SOL     OW80697  12.228   5.605  11.195
26267SOL    HW180698  12.222   5.590  11.290
26267SOL    HW280699  12.318   5.633  11.181
26268SOL     OW80700   5.040  12.846  11.415
26268SOL    HW180701   5.135  12.840  11.426
26268SOL    HW280702   5.028  12.917  11.351
26269SOL     OW80703   1.338   3.050   1.830
26269SOL    HW180704   1.296   2.964   1.826
26269SOL    HW280705   1.409   3.040   1.893
26270SOL     OW80706   9.601   3.496  11.366
26270SOL    HW180707   9.566   3.432  11.428
26270SOL    HW280708   9.685   3.458  11.338
26271SOL     OW80709   8.211  10.316   8.019
26271SOL    HW180710   8.305  10.297   8.025
26271SOL    HW280711   8.172  10.264   8.089
26272SOL     OW80712  10.520   0.921  12.858
26272SOL    HW180713  10.506   0.985  12.928
26272SOL    HW280714  10.613   0.927  12.838
26273SOL     OW80715  12.484  14.071   9.202
26273SOL    HW180716  12.514  14.155   9.169
26273SOL    HW280717  12.563  14.027   9.232
26274SOL     OW80718   8.649  14.447  10.550
26274SOL    HW180719   8.555  14.439  10.566
26274SOL    HW280720   8.665  14.394  10.472
26275SOL     OW80721   5.603  12.288   7.995
26275SOL    HW180722   5.616  12.194   7.979
26275SOL    HW280723   5.675  12.312   8.053
26276SOL     OW80724   7.903   6.932   1.041
26276SOL    HW180725   7.951   6.960   1.118
26276SOL    HW280726   7.811   6.932   1.069
26277SOL     OW80727  12.380   0.576  13.235
26277SOL    HW180728  12.431   0.580  13.155
26277SOL    HW280729  12.443   0.593  13.305
26278SOL     OW80730   1.893   5.153  10.067
26278SOL    HW180731   1.927   5.169  10.155
26278SOL    HW280732   1.847   5.070  10.074
26279SOL     OW80733  10.237   4.666   2.125
26279SOL    HW180734  10.322   4.709   2.121
26279SOL    HW280735  10.212   4.653   2.034
26280SOL     OW80736   6.261   9.362   1.090
26280SOL    HW180737   6.242   9.398   1.003
26280SOL    HW280738   6.279   9.270   1.074
26281SOL     OW80739  13.731   3.537  11.246
26281SOL    HW180740  13.793   3.528  11.318
26281SOL    HW280741  13.773   3.598  11.185
26282SOL     OW80742   1.316   0.909  12.645
26282SOL    HW180743   1.266   0.919  12.564
26282SOL    HW280744   1.360   0.993  12.657
26283SOL     OW80745  14.128   4.587  12.873
26283SOL    HW180746  14.124   4.531  12.796
26283SOL    HW280747  14.037   4.597  12.900
26284SOL     OW80748  11.192  12.142  13.515
26284SOL    HW180749  11.258  12.127  13.447
26284SOL    HW280750  11.181  12.057  13.557
26285SOL     OW80751   1.322  12.559   7.674
26285SOL    HW180752   1.331  12.654   7.677
26285SOL    HW280753   1.267  12.542   7.597
26286SOL     OW80754  13.981   6.546   2.808
26286SOL    HW180755  13.923   6.622   2.809
26286SOL    HW280756  14.002   6.532   2.716
26287SOL     OW80757   1.572  11.339   4.007
26287SOL    HW180758   1.619  11.380   4.079
26287SOL    HW280759   1.630  11.349   3.932
26288SOL     OW80760  13.136   0.150   9.075
26288SOL    HW180761  13.187   0.230   9.090
26288SOL    HW280762  13.087   0.137   9.156
26289SOL     OW80763  11.351   1.044  13.373
26289SOL    HW180764  11.349   0.967  13.317
26289SOL    HW280765  11.259   1.070  13.382
26290SOL     OW80766  10.091   6.202   7.218
26290SOL    HW180767  10.091   6.194   7.314
26290SOL    HW280768  10.034   6.277   7.201
26291SOL     OW80769  13.277  10.250   9.257
26291SOL    HW180770  13.298  10.343   9.266
26291SOL    HW280771  13.288  10.232   9.164
26292SOL     OW80772   1.432   7.837   1.269
26292SOL    HW180773   1.514   7.882   1.251
26292SOL    HW280774   1.423   7.774   1.197
26293SOL     OW80775  10.578   8.295   2.824
26293SOL    HW180776  10.531   8.258   2.898
26293SOL    HW280777  10.669   8.300   2.854
26294SOL     OW80778   7.606   9.306   1.035
26294SOL    HW180779   7.532   9.363   1.055
26294SOL    HW280780   7.572   9.218   1.042
26295SOL     OW80781  12.786   8.565   4.434
26295SOL    HW180782  12.831   8.482   4.452
26295SOL    HW280783  12.720   8.543   4.369
26296SOL     OW80784   1.643  14.474   6.591
26296SOL    HW180785   1.553  14.482   6.621
26296SOL    HW280786   1.677  14.564   6.593
26297SOL     OW80787   7.778  10.639   7.581
26297SOL    HW180788   7.723  10.707   7.542
26297SOL    HW280789   7.754  10.640   7.674
26298SOL     OW80790   2.430   7.519   5.958
26298SOL    HW180791   2.424   7.565   5.874
26298SOL    HW280792   2.523   7.525   5.981
26299SOL     OW80793   5.830  13.831   3.280
26299SOL    HW180794   5.923  13.852   3.281
26299SOL    HW280795   5.817  13.782   3.199
26300SOL     OW80796   0.027   3.440   9.794
26300SOL    HW180797   0.105   3.415   9.744
26300SOL    HW280798  14.866   3.519   9.751
26301SOL     OW80799   2.872  12.376   5.960
26301SOL    HW180800   2.898  12.293   5.999
26301SOL    HW280801   2.874  12.359   5.865
26302SOL     OW80802  12.158  12.459   5.895
26302SOL    HW180803  12.113  12.448   5.811
26302SOL    HW280804  12.096  12.506   5.950
26303SOL     OW80805   4.944   3.439   1.392
26303SOL    HW180806   4.963   3.532   1.387
26303SOL    HW280807   4.999   3.407   1.464
26304SOL     OW80808  11.280   1.057   4.262
26304SOL    HW180809  11.307   1.070   4.172
26304SOL    HW280810  11.360   1.065   4.313
26305SOL     OW80811  11.049   4.710   1.332
26305SOL    HW180812  11.086   4.658   1.261
26305SOL    HW280813  11.122   4.725   1.391
26306SOL     OW80814   2.609   9.825  13.932
26306SOL    HW180815   2.543   9.894  13.930
26306SOL    HW280816   2.606   9.791  14.021
26307SOL     OW80817   3.275  10.571  14.776
26307SOL    HW180818   3.310  10.570  14.687
26307SOL    HW280819   3.302  10.655  14.812
26308SOL     OW80820  10.469   1.323   3.772
26308SOL    HW180821  10.403   1.269   3.728
26308SOL    HW280822  10.496   1.270   3.847
26309SOL     OW80823   3.394   1.885   6.529
26309SOL    HW180824   3.386   1.975   6.497
26309SOL    HW280825   3.340   1.833   6.469
26310SOL     OW80826  12.852  12.933  10.451
26310SOL    HW180827  12.858  12.965  10.361
26310SOL    HW280828  12.857  13.012  10.505
26311SOL     OW80829   9.238   7.634   3.428
26311SOL    HW180830   9.224   7.704   3.491
26311SOL    HW280831   9.265   7.679   3.348
26312SOL     OW80832  14.023  14.753  10.399
26312SOL    HW180833  13.931  14.726  10.399
26312SOL    HW280834  14.072  14.670  10.399
26313SOL     OW80835   6.945   7.577   0.733
26313SOL    HW180836   6.983   7.522   0.801
26313SOL    HW280837   6.868   7.616   0.774
26314SOL     OW80838  12.986   2.339   6.150
26314SOL    HW180839  13.058   2.401   6.160
26314SOL    HW280840  13.002   2.273   6.217
26315SOL     OW80841   8.542   2.698   8.197
26315SOL    HW180842   8.520   2.605   8.196
26315SOL    HW280843   8.518   2.730   8.110
26316SOL     OW80844   4.850   9.074   0.910
26316SOL    HW180845   4.768   9.062   0.862
26316SOL    HW280846   4.878   9.163   0.887
26317SOL     OW80847   8.706   8.519   5.425
26317SOL    HW180848   8.759   8.447   5.391
26317SOL    HW280849   8.627   8.477   5.458
26318SOL     OW80850   6.936   8.900   1.849
26318SOL    HW180851   6.858   8.853   1.818
26318SOL    HW280852   7.008   8.860   1.801
26319SOL     OW80853   0.382  11.851   9.043
26319SOL    HW180854   0.328  11.900   8.981
26319SOL    HW280855   0.470  11.854   9.006
26320SOL     OW80856   8.873   8.024   5.654
26320SOL    HW180857   8.958   8.004   5.693
26320SOL    HW280858   8.875   7.979   5.569
26321SOL     OW80859   8.656   8.683   2.208
26321SOL    HW180860   8.614   8.650   2.129
26321SOL    HW280861   8.679   8.773   2.187
26322SOL     OW80862  14.410   5.205   6.521
26322SOL    HW180863  14.504   5.188   6.529
26322SOL    HW280864  14.402   5.300   6.528
26323SOL     OW80865  14.584   7.694   7.484
26323SOL    HW180866  14.675   7.696   7.455
26323SOL    HW280867  14.587   7.644   7.566
26324SOL     OW80868  12.028  11.587   9.388
26324SOL    HW180869  12.013  11.570   9.481
26324SOL    HW280870  11.977  11.519   9.343
26325SOL     OW80871   9.809  10.010  10.433
26325SOL    HW180872   9.782   9.937  10.377
26325SOL    HW280873   9.750  10.006  10.508
26326SOL     OW80874   2.750  12.642  14.551
26326SOL    HW180875   2.741  12.736  14.536
26326SOL    HW280876   2.660  12.609  14.547
26327SOL     OW80877  10.063  12.840  14.822
26327SOL    HW180878  10.042  12.794  14.741
26327SOL    HW280879  10.106  12.921  14.794
26328SOL     OW80880  11.149   1.188   0.128
26328SOL    HW180881  11.056   1.211   0.123
26328SOL    HW280882  11.168   1.146   0.043
26329SOL     OW80883  12.524   4.975  12.186
26329SOL    HW180884  12.436   4.959  12.222
26329SOL    HW280885  12.529   4.918  12.109
26330SOL     OW80886  14.107  14.433   8.118
26330SOL    HW180887  14.148  14.436   8.204
26330SOL    HW280888  14.016  14.410   8.135
26331SOL     OW80889  11.282   3.881   2.036
26331SOL    HW180890  11.298   3.791   2.066
26331SOL    HW280891  11.214   3.914   2.094
26332SOL     OW80892   9.307   7.881   2.723
26332SOL    HW180893   9.258   7.963   2.722
26332SOL    HW280894   9.278   7.834   2.644
26333SOL     OW80895   7.530   4.519   7.742
26333SOL    HW180896   7.443   4.553   7.721
26333SOL    HW280897   7.534   4.521   7.838
26334SOL     OW80898   8.373   8.436   3.946
26334SOL    HW180899   8.310   8.490   3.897
26334SOL    HW280900   8.459   8.470   3.920
26335SOL     OW80901  11.909   4.712   3.708
26335SOL    HW180902  11.915   4.804   3.682
26335SOL    HW280903  11.946   4.664   3.634
26336SOL     OW80904   3.036   7.568   7.916
26336SOL    HW180905   3.051   7.498   7.852
26336SOL    HW280906   2.942   7.566   7.932
26337SOL     OW80907  13.397  10.712   3.806
26337SOL    HW180908  13.407  10.732   3.899
26337SOL    HW280909  13.487  10.707   3.773
26338SOL     OW80910   1.387   5.953   3.802
26338SOL    HW180911   1.417   5.873   3.760
26338SOL    HW280912   1.397   5.936   3.896
26339SOL     OW80913   9.316   1.806   8.635
26339SOL    HW180914   9.272   1.890   8.624
26339SOL    HW280915   9.398   1.815   8.586
26340SOL     OW80916  12.695  12.420  10.184
26340SOL    HW180917  12.722  12.503  10.225
26340SOL    HW280918  12.658  12.446  10.100
26341SOL     OW80919   4.910   7.675   0.907
26341SOL    HW180920   4.862   7.604   0.865
26341SOL    HW280921   4.846   7.715   0.966
26342SOL     OW80922   7.311   7.142  13.532
26342SOL    HW180923   7.250   7.140  13.458
26342SOL    HW280924   7.336   7.234  13.541
26343SOL     OW80925   1.849   7.197  13.424
26343SOL    HW180926   1.793   7.138  13.375
26343SOL    HW280927   1.938   7.167  13.407
26344SOL     OW80928  11.277   6.330   1.272
26344SOL    HW180929  11.274   6.425   1.274
26344SOL    HW280930  11.190   6.302   1.299
26345SOL     OW80931   4.595  14.597   1.286
26345SOL    HW180932   4.691  14.601   1.284
26345SOL    HW280933   4.572  14.613   1.377
26346SOL     OW80934   4.850   9.349  13.616
26346SOL    HW180935   4.766   9.388  13.642
26346SOL    HW280936   4.857   9.270  13.670
26347SOL     OW80937   1.593   0.959  12.520
26347SOL    HW180938   1.525   1.026  12.516
26347SOL    HW280939   1.577   0.903  12.444
26348SOL     OW80940   1.465   1.834   1.608
26348SOL    HW180941   1.548   1.875   1.632
26348SOL    HW280942   1.398   1.884   1.655
26349SOL     OW80943   9.451   9.810   7.953
26349SOL    HW180944   9.501   9.866   7.893
26349SOL    HW280945   9.367   9.798   7.911
26350SOL     OW80946   4.942   4.388   3.536
26350SOL    HW180947   4.922   4.444   3.461
26350SOL    HW280948   4.923   4.299   3.505
26351SOL     OW80949   2.987   6.708   3.750
26351SOL    HW180950   2.894   6.706   3.774
26351SOL    HW280951   3.028   6.760   3.820
26352SOL     OW80952  10.179   1.429   2.283
26352SOL    HW180953  10.219   1.439   2.370
26352SOL    HW280954  10.149   1.338   2.282
26353SOL     OW80955   3.586   4.274   5.738
26353SOL    HW180956   3.665   4.328   5.744
26353SOL    HW280957   3.520   4.331   5.700
26354SOL     OW80958   7.636   5.267  14.165
26354SOL    HW180959   7.680   5.187  14.192
26354SOL    HW280960   7.650   5.329  14.237
26355SOL     OW80961   9.082   6.285  12.815
26355SOL    HW180962   8.994   6.266  12.848
26355SOL    HW280963   9.116   6.200  12.788
26356SOL     OW80964   3.437   2.309  13.697
26356SOL    HW180965   3.466   2.360  13.621
26356SOL    HW280966   3.357   2.353  13.726
26357SOL     OW80967   8.432   3.441  14.801
26357SOL    HW180968   8.387   3.356  14.800
26357SOL    HW280969   8.519   3.422  14.834
26358SOL     OW80970   5.401  13.544   6.758
26358SOL    HW180971   5.438  13.457   6.776
26358SOL    HW280972   5.467  13.588   6.706
26359SOL     OW80973   3.952   8.714  12.586
26359SOL    HW180974   3.965   8.635  12.532
26359SOL    HW280975   4.012   8.703  12.660
26360SOL     OW80976   6.854   3.135   8.804
26360SOL    HW180977   6.874   3.045   8.778
26360SOL    HW280978   6.841   3.130   8.899
26361SOL     OW80979   4.649   9.136   4.161
26361SOL    HW180980   4.685   9.224   4.172
26361SOL    HW280981   4.566   9.149   4.117
26362SOL     OW80982   5.233   1.573  10.345
26362SOL    HW180983   5.217   1.564  10.251
26362SOL    HW280984   5.298   1.506  10.364
26363SOL     OW80985   0.213   6.405  10.776
26363SOL    HW180986   0.148   6.455  10.826
26363SOL    HW280987   0.165   6.370  10.702
26364SOL     OW80988  10.601   0.172  10.863
26364SOL    HW180989  10.630   0.087  10.833
26364SOL    HW280990  10.591   0.162  10.958
26365SOL     OW80991   2.142   9.169  14.600
26365SOL    HW180992   2.111   9.142  14.514
26365SOL    HW280993   2.064   9.165  14.655
26366SOL     OW80994   3.008   3.184  11.500
26366SOL    HW180995   3.047   3.143  11.422
26366SOL    HW280996   2.968   3.111  11.547
26367SOL     OW80997   2.119   5.409  13.625
26367SOL    HW180998   2.096   5.391  13.533
26367SOL    HW280999   2.053   5.363  13.676
26368SOL     OW81000   7.373   0.924   2.009
26368SOL    HW181001   7.285   0.904   2.040
26368SOL    HW281002   7.362   1.002   1.954
26369SOL     OW81003   5.773   0.493   3.348
26369SOL    HW181004   5.833   0.516   3.276
26369SOL    HW281005   5.821   0.518   3.427
26370SOL     OW81006   3.454  13.706   5.453
26370SOL    HW181007   3.524  13.677   5.511
26370SOL    HW281008   3.438  13.631   5.395
26371SOL     OW81009   8.306  11.201   0.215
26371SOL    HW181010   8.218  11.190   0.177
26371SOL    HW281011   8.291  11.248   0.297
26372SOL     OW81012   2.914   4.328   8.057
26372SOL    HW181013   2.923   4.318   8.152
26372SOL    HW281014   2.975   4.263   8.021
26373SOL     OW81015  14.177   1.905  13.355
26373SOL    HW181016  14.172   1.959  13.276
26373SOL    HW281017  14.225   1.958  13.418
26374SOL     OW81018   5.661   7.232   8.274
26374SOL    HW181019   5.618   7.242   8.359
26374SOL    HW281020   5.751   7.207   8.296
26375SOL     OW81021  13.390  10.082   5.321
26375SOL    HW181022  13.305  10.081   5.363
26375SOL    HW281023  13.388  10.160   5.265
26376SOL     OW81024   0.745   1.694  11.044
26376SOL    HW181025   0.831   1.679  11.083
26376SOL    HW281026   0.722   1.609  11.004
26377SOL     OW81027   7.452  12.056   0.425
26377SOL    HW181028   7.452  12.007   0.507
26377SOL    HW281029   7.528  12.023   0.377
26378SOL     OW81030  13.602   5.265   1.474
26378SOL    HW181031  13.564   5.181   1.450
26378SOL    HW281032  13.589   5.272   1.569
26379SOL     OW81033   9.872   2.182  10.569
26379SOL    HW181034   9.878   2.259  10.626
26379SOL    HW281035   9.841   2.216  10.486
26380SOL     OW81036   2.143   2.264  13.145
26380SOL    HW181037   2.151   2.185  13.092
26380SOL    HW281038   2.207   2.254  13.215
26381SOL     OW81039   6.019  13.496   1.485
26381SOL    HW181040   6.057  13.490   1.398
26381SOL    HW281041   6.007  13.405   1.513
26382SOL     OW81042  11.443  13.381   6.803
26382SOL    HW181043  11.444  13.477   6.798
26382SOL    HW281044  11.500  13.352   6.732
26383SOL     OW81045   0.751   2.618  14.823
26383SOL    HW181046   0.830   2.653  14.781
26383SOL    HW281047   0.779   2.598   0.042
26384SOL     OW81048  12.259   9.644  10.287
26384SOL    HW181049  12.252   9.738  10.268
26384SOL    HW281050  12.248   9.638  10.382
26385SOL     OW81051  12.890   9.652  13.332
26385SOL    HW181052  12.815   9.704  13.303
26385SOL    HW281053  12.851   9.580  13.381
26386SOL     OW81054   1.032   5.338  14.351
26386SOL    HW181055   1.108   5.390  14.326
26386SOL    HW281056   1.031   5.265  14.289
26387SOL     OW81057   7.857  11.886  12.025
26387SOL    HW181058   7.913  11.891  11.947
26387SOL    HW281059   7.772  11.918  11.996
26388SOL     OW81060  14.385  10.339  11.472
26388SOL    HW181061  14.400  10.248  11.499
26388SOL    HW281062  14.440  10.391  11.531
26389SOL     OW81063   9.695   8.971   3.327
26389SOL    HW181064   9.671   8.922   3.406
26389SOL    HW281065   9.619   8.961   3.269
26390SOL     OW81066   9.620  10.419  14.111
26390SOL    HW181067   9.706  10.461  14.104
26390SOL    HW281068   9.626  10.364  14.189
26391SOL     OW81069   9.211   1.270   7.062
26391SOL    HW181070   9.286   1.329   7.074
26391SOL    HW281071   9.215   1.246   6.969
26392SOL     OW81072   7.970   8.888   2.161
26392SOL    HW181073   8.012   8.971   2.137
26392SOL    HW281074   7.956   8.843   2.078
26393SOL     OW81075   3.125  12.984   0.966
26393SOL    HW181076   3.205  12.974   1.017
26393SOL    HW281077   3.058  12.937   1.017
26394SOL     OW81078  13.710  14.077   1.759
26394SOL    HW181079  13.709  13.985   1.785
26394SOL    HW281080  13.711  14.126   1.842
26395SOL     OW81081   8.920   3.994  10.375
26395SOL    HW181082   8.892   4.010  10.465
26395SOL    HW281083   8.920   4.080  10.334
26396SOL     OW81084   7.740   4.153   7.677
26396SOL    HW181085   7.774   4.222   7.734
26396SOL    HW281086   7.667   4.194   7.631
26397SOL     OW81087   3.473  14.079  11.937
26397SOL    HW181088   3.557  14.099  11.897
26397SOL    HW281089   3.426  14.028  11.870
26398SOL     OW81090   0.592   9.331   3.117
26398SOL    HW181091   0.634   9.390   3.055
26398SOL    HW281092   0.656   9.260   3.129
26399SOL     OW81093   5.488   4.302   8.183
26399SOL    HW181094   5.516   4.290   8.273
26399SOL    HW281095   5.419   4.236   8.170
26400SOL     OW81096  11.494   2.826   6.197
26400SOL    HW181097  11.564   2.836   6.261
26400SOL    HW281098  11.505   2.901   6.138
26401SOL     OW81099  11.797  12.612  10.061
26401SOL    HW181100  11.879  12.638  10.019
26401SOL    HW281101  11.749  12.564   9.993
26402SOL     OW81102   1.473   1.434   4.964
26402SOL    HW181103   1.485   1.402   4.875
26402SOL    HW281104   1.414   1.370   5.005
26403SOL     OW81105  10.040   8.273   8.091
26403SOL    HW181106   9.995   8.210   8.147
26403SOL    HW281107  10.041   8.354   8.142
26404SOL     OW81108  14.776   7.416   2.498
26404SOL    HW181109  14.762   7.488   2.560
26404SOL    HW281110  14.857   7.375   2.527
26405SOL     OW81111  14.001   5.012   8.492
26405SOL    HW181112  14.092   4.993   8.518
26405SOL    HW281113  13.991   5.106   8.506
26406SOL     OW81114  13.567  10.920  11.442
26406SOL    HW181115  13.489  10.879  11.406
26406SOL    HW281116  13.628  10.924  11.369
26407SOL     OW81117   4.567   2.532  10.864
26407SOL    HW181118   4.474   2.517  10.849
26407SOL    HW281119   4.611   2.472  10.804
26408SOL     OW81120  13.084  14.680   7.726
26408SOL    HW181121  13.133  14.617   7.674
26408SOL    HW281122  13.059  14.632   7.805
26409SOL     OW81123   6.342  14.080   3.276
26409SOL    HW181124   6.358  14.175   3.275
26409SOL    HW281125   6.339  14.055   3.184
26410SOL     OW81126   4.037   3.150   3.113
26410SOL    HW181127   4.005   3.073   3.066
26410SOL    HW281128   4.029   3.221   3.050
26411SOL     OW81129   4.471   7.804   5.488
26411SOL    HW181130   4.557   7.763   5.485
26411SOL    HW281131   4.427   7.773   5.408
26412SOL     OW81132   7.372   1.911  13.552
26412SOL    HW181133   7.461   1.929  13.581
26412SOL    HW281134   7.336   1.996  13.527
26413SOL     OW81135  11.540  10.978   2.965
26413SOL    HW181136  11.555  10.923   2.888
26413SOL    HW281137  11.598  11.053   2.952
26414SOL     OW81138  12.796  12.145   0.921
26414SOL    HW181139  12.818  12.185   1.005
26414SOL    HW281140  12.806  12.216   0.858
26415SOL     OW81141   1.199   9.549  11.605
26415SOL    HW181142   1.128   9.489  11.629
26415SOL    HW281143   1.155   9.623  11.563
26416SOL     OW81144   6.615   3.837  12.706
26416SOL    HW181145   6.695   3.887  12.723
26416SOL    HW281146   6.559   3.854  12.781
26417SOL     OW81147   5.280  11.474  10.845
26417SOL    HW181148   5.274  11.431  10.760
26417SOL    HW281149   5.205  11.441  10.895
26418SOL     OW81150   4.524  13.522   1.030
26418SOL    HW181151   4.615  13.495   1.026
26418SOL    HW281152   4.522  13.606   0.983
26419SOL     OW81153   0.671   8.954   4.897
26419SOL    HW181154   0.674   8.977   4.990
26419SOL    HW281155   0.613   8.878   4.893
26420SOL     OW81156   6.846  13.035   1.305
26420SOL    HW181157   6.889  13.026   1.390
26420SOL    HW281158   6.818  13.126   1.301
26421SOL     OW81159  10.733   1.953   0.762
26421SOL    HW181160  10.793   1.994   0.824
26421SOL    HW281161  10.790   1.909   0.699
26422SOL     OW81162   1.425   5.907   2.407
26422SOL    HW181163   1.381   5.892   2.491
26422SOL    HW281164   1.383   5.847   2.346
26423SOL     OW81165  11.490   6.346   0.801
26423SOL    HW181166  11.436   6.373   0.876
26423SOL    HW281167  11.518   6.428   0.761
26424SOL     OW81168   8.723  14.764   2.078
26424SOL    HW181169   8.676  14.799   2.002
26424SOL    HW281170   8.779  14.695   2.042
26425SOL     OW81171   9.471  12.859  13.530
26425SOL    HW181172   9.518  12.939  13.506
26425SOL    HW281173   9.517  12.789  13.483
26426SOL     OW81174   3.779   9.822  10.005
26426SOL    HW181175   3.869   9.797   9.984
26426SOL    HW281176   3.787   9.877  10.083
26427SOL     OW81177  14.639  10.212   9.249
26427SOL    HW181178  14.569  10.254   9.298
26427SOL    HW281179  14.644  10.261   9.167
26428SOL     OW81180  13.864   7.527   4.972
26428SOL    HW181181  13.927   7.575   4.919
26428SOL    HW281182  13.794   7.504   4.910
26429SOL     OW81183   6.648  13.075  13.065
26429SOL    HW181184   6.687  13.008  13.121
26429SOL    HW281185   6.583  13.028  13.013
26430SOL     OW81186  14.774   9.118   0.406
26430SOL    HW181187  14.821   9.191   0.447
26430SOL    HW281188  14.687   9.122   0.444
26431SOL     OW81189   4.337   4.926  13.194
26431SOL    HW181190   4.334   4.959  13.284
26431SOL    HW281191   4.300   4.997  13.142
26432SOL     OW81192   5.980   6.232  10.182
26432SOL    HW181193   6.005   6.141  10.166
26432SOL    HW281194   5.952   6.264  10.096
26433SOL     OW81195  12.435   3.056   6.909
26433SOL    HW181196  12.357   3.045   6.854
26433SOL    HW281197  12.451   3.151   6.908
26434SOL     OW81198   1.171   6.513  11.986
26434SOL    HW181199   1.093   6.533  11.933
26434SOL    HW281200   1.164   6.419  12.004
26435SOL     OW81201   5.712  11.760  10.969
26435SOL    HW181202   5.686  11.851  10.955
26435SOL    HW281203   5.647  11.725  11.030
26436SOL     OW81204   0.903   8.945  13.194
26436SOL    HW181205   0.823   8.976  13.151
26436SOL    HW281206   0.943   8.885  13.131
26437SOL     OW81207   0.055  13.852  14.650
26437SOL    HW181208   0.128  13.791  14.653
26437SOL    HW281209   0.034  13.870  14.741
26438SOL     OW81210   1.668  11.906   1.229
26438SOL    HW181211   1.752  11.861   1.220
26438SOL    HW281212   1.651  11.943   1.142
26439SOL     OW81213   6.136   8.802  11.971
26439SOL    HW181214   6.129   8.896  11.986
26439SOL    HW281215   6.057   8.779  11.922
26440SOL     OW81216   5.963   3.522  11.811
26440SOL    HW181217   6.057   3.516  11.797
26440SOL    HW281218   5.938   3.604  11.768
26441SOL     OW81219   1.891  13.300   5.512
26441SOL    HW181220   1.864  13.290   5.604
26441SOL    HW281221   1.822  13.257   5.462
26442SOL     OW81222   9.390   5.824  12.074
26442SOL    HW181223   9.361   5.750  12.128
26442SOL    HW281224   9.417   5.784  11.992
26443SOL     OW81225   3.690   1.351   7.440
26443SOL    HW181226   3.624   1.330   7.506
26443SOL    HW281227   3.720   1.266   7.408
26444SOL     OW81228  12.852   0.029  13.100
26444SOL    HW181229  12.913   0.035  13.027
26444SOL    HW281230  12.907   0.041  13.178
26445SOL     OW81231  11.904   8.738  10.161
26445SOL    HW181232  11.998   8.719  10.158
26445SOL    HW281233  11.871   8.710  10.076
26446SOL     OW81234   1.180   0.269  11.901
26446SOL    HW181235   1.120   0.333  11.864
26446SOL    HW281236   1.267   0.301  11.876
26447SOL     OW81237   4.706   6.707  10.382
26447SOL    HW181238   4.747   6.781  10.336
26447SOL    HW281239   4.637   6.747  10.435
26448SOL     OW81240   6.585   1.696  10.549
26448SOL    HW181241   6.548   1.719  10.463
26448SOL    HW281242   6.628   1.777  10.579
26449SOL     OW81243   5.054   9.325   5.468
26449SOL    HW181244   4.974   9.319   5.521
26449SOL    HW281245   5.032   9.388   5.399
26450SOL     OW81246   5.446   5.587   8.715
26450SOL    HW181247   5.495   5.507   8.736
26450SOL    HW281248   5.445   5.636   8.797
26451SOL     OW81249   4.440   2.715   5.255
26451SOL    HW181250   4.396   2.737   5.337
26451SOL    HW281251   4.513   2.776   5.250
26452SOL     OW81252  11.988   4.953   8.146
26452SOL    HW181253  11.933   5.006   8.204
26452SOL    HW281254  11.939   4.948   8.064
26453SOL     OW81255   1.304   9.803  14.229
26453SOL    HW181256   1.313   9.853  14.310
26453SOL    HW281257   1.216   9.766  14.234
26454SOL     OW81258   5.271   5.258   8.935
26454SOL    HW181259   5.327   5.329   8.905
26454SOL    HW281260   5.183   5.283   8.908
26455SOL     OW81261   0.499   0.830   6.600
26455SOL    HW181262   0.530   0.905   6.650
26455SOL    HW281263   0.480   0.763   6.666
26456SOL     OW81264  10.191   0.911   1.232
26456SOL    HW181265  10.219   0.820   1.236
26456SOL    HW281266  10.257   0.959   1.283
26457SOL     OW81267  14.529   9.862   0.403
26457SOL    HW181268  14.523   9.824   0.316
26457SOL    HW281269  14.592   9.933   0.395
26458SOL     OW81270   9.069   4.966  10.479
26458SOL    HW181271   9.040   4.875  10.489
26458SOL    HW281272   9.142   4.974  10.541
26459SOL     OW81273   3.356   3.856  13.688
26459SOL    HW181274   3.305   3.779  13.663
26459SOL    HW281275   3.341   3.865  13.782
26460SOL     OW81276   6.978   9.516   2.445
26460SOL    HW181277   6.952   9.465   2.368
26460SOL    HW281278   7.013   9.597   2.409
26461SOL     OW81279   9.754  13.486   7.872
26461SOL    HW181280   9.759  13.525   7.960
26461SOL    HW281281   9.821  13.417   7.873
26462SOL     OW81282  12.529   8.186  11.915
26462SOL    HW181283  12.551   8.100  11.880
26462SOL    HW281284  12.549   8.247  11.844
26463SOL     OW81285   3.608   5.761   1.874
26463SOL    HW181286   3.681   5.776   1.934
26463SOL    HW281287   3.540   5.823   1.902
26464SOL     OW81288  11.815   0.742  11.397
26464SOL    HW181289  11.746   0.677  11.411
26464SOL    HW281290  11.774   0.808  11.341
26465SOL     OW81291   6.011   8.206   2.851
26465SOL    HW181292   5.923   8.171   2.855
26465SOL    HW281293   6.060   8.157   2.917
26466SOL     OW81294   1.960   5.665   2.850
26466SOL    HW181295   2.015   5.740   2.870
26466SOL    HW281296   1.890   5.700   2.796
26467SOL     OW81297  12.423   7.291   2.990
26467SOL    HW181298  12.334   7.263   3.011
26467SOL    HW281299  12.412   7.356   2.921
26468SOL     OW81300   0.932   4.189   6.941
26468SOL    HW181301   0.943   4.098   6.914
26468SOL    HW281302   0.837   4.201   6.947
26469SOL     OW81303   0.762  13.057  12.019
26469SOL    HW181304   0.681  13.007  12.024
26469SOL    HW281305   0.789  13.051  11.927
26470SOL     OW81306   9.386   0.776   7.805
26470SOL    HW181307   9.418   0.742   7.722
26470SOL    HW281308   9.381   0.699   7.862
26471SOL     OW81309  12.325   2.333   0.110
26471SOL    HW181310  12.254   2.273   0.085
26471SOL    HW281311  12.336   2.390   0.034
26472SOL     OW81312   8.209   5.789  12.467
26472SOL    HW181313   8.211   5.869  12.519
26472SOL    HW281314   8.122   5.753  12.482
26473SOL     OW81315  14.385   3.426  12.357
26473SOL    HW181316  14.459   3.484  12.336
26473SOL    HW281317  14.404   3.345  12.308
26474SOL     OW81318  10.202   3.684  14.289
26474SOL    HW181319  10.207   3.687  14.385
26474SOL    HW281320  10.270   3.745  14.260
26475SOL     OW81321   8.584   7.291   4.089
26475SOL    HW181322   8.592   7.196   4.088
26475SOL    HW281323   8.589   7.315   4.181
26476SOL     OW81324  11.623   6.810  13.355
26476SOL    HW181325  11.653   6.750  13.423
26476SOL    HW281326  11.539   6.842  13.387
26477SOL     OW81327  10.840  12.597   8.315
26477SOL    HW181328  10.763  12.644   8.286
26477SOL    HW281329  10.874  12.554   8.236
26478SOL     OW81330  10.246   4.521   3.576
26478SOL    HW181331  10.172   4.508   3.635
26478SOL    HW281332  10.282   4.433   3.563
26479SOL     OW81333   3.460  10.887   6.345
26479SOL    HW181334   3.434  10.798   6.321
26479SOL    HW281335   3.482  10.929   6.262
26480SOL     OW81336   2.937  10.289   8.950
26480SOL    HW181337   2.906  10.263   8.863
26480SOL    HW281338   2.944  10.207   8.999
26481SOL     OW81339   4.498  11.537  13.125
26481SOL    HW181340   4.559  11.472  13.160
26481SOL    HW281341   4.437  11.553  13.198
26482SOL     OW81342   2.632  10.180   5.232
26482SOL    HW181343   2.693  10.157   5.302
26482SOL    HW281344   2.638  10.108   5.170
26483SOL     OW81345   8.845  10.419  11.370
26483SOL    HW181346   8.803  10.365  11.304
26483SOL    HW281347   8.937  10.393  11.368
26484SOL     OW81348   6.078   6.356   6.968
26484SOL    HW181349   6.045   6.316   6.888
26484SOL    HW281350   6.112   6.441   6.941
26485SOL     OW81351   6.060   5.377   4.829
26485SOL    HW181352   6.119   5.441   4.788
26485SOL    HW281353   6.083   5.380   4.922
26486SOL     OW81354  13.332   6.094  11.135
26486SOL    HW181355  13.326   6.142  11.052
26486SOL    HW281356  13.423   6.105  11.162
26487SOL     OW81357   8.556  14.823   8.951
26487SOL    HW181358   8.541  14.852   9.041
26487SOL    HW281359   8.538  14.729   8.952
26488SOL     OW81360  13.264   8.597  11.410
26488SOL    HW181361  13.335   8.659  11.397
26488SOL    HW281362  13.223   8.588  11.324
26489SOL     OW81363   8.181  11.136   3.936
26489SOL    HW181364   8.192  11.115   3.843
26489SOL    HW281365   8.254  11.091   3.979
26490SOL     OW81366  14.528   3.872   5.174
26490SOL    HW181367  14.499   3.873   5.083
26490SOL    HW281368  14.583   3.794   5.182
26491SOL     OW81369   7.887   2.159   1.511
26491SOL    HW181370   7.977   2.190   1.499
26491SOL    HW281371   7.891   2.099   1.585
26492SOL     OW81372  12.978  12.154  11.217
26492SOL    HW181373  12.947  12.245  11.214
26492SOL    HW281374  12.915  12.109  11.273
26493SOL     OW81375  12.615   6.553   0.843
26493SOL    HW181376  12.613   6.473   0.790
26493SOL    HW281377  12.564   6.616   0.793
26494SOL     OW81378   8.153   8.379  12.850
26494SOL    HW181379   8.228   8.333  12.887
26494SOL    HW281380   8.081   8.316  12.854
26495SOL     OW81381  14.486   6.183   6.502
26495SOL    HW181382  14.409   6.180   6.558
26495SOL    HW281383  14.465   6.248   6.435
26496SOL     OW81384  13.044   5.286   3.641
26496SOL    HW181385  13.012   5.197   3.629
26496SOL    HW281386  12.999   5.318   3.719
26497SOL     OW81387   7.036  14.727  10.427
26497SOL    HW181388   7.078  14.643  10.409
26497SOL    HW281389   6.948  14.705  10.456
26498SOL     OW81390   9.687  10.525   7.812
26498SOL    HW181391   9.768  10.510   7.862
26498SOL    HW281392   9.617  10.520   7.878
26499SOL     OW81393  10.971  10.721   7.556
26499SOL    HW181394  11.041  10.682   7.608
26499SOL    HW281395  10.934  10.789   7.613
26500SOL     OW81396   5.296   1.922   5.863
26500SOL    HW181397   5.262   1.947   5.949
26500SOL    HW281398   5.265   1.991   5.804
26501SOL     OW81399  10.572  12.291   6.729
26501SOL    HW181400  10.502  12.244   6.775
26501SOL    HW281401  10.528  12.365   6.689
26502SOL     OW81402  13.538   9.606  14.441
26502SOL    HW181403  13.502   9.561  14.517
26502SOL    HW281404  13.630   9.580  14.439
26503SOL     OW81405  11.898   9.518   6.171
26503SOL    HW181406  11.913   9.438   6.222
26503SOL    HW281407  11.974   9.525   6.114
26504SOL     OW81408  12.660  12.573   9.055
26504SOL    HW181409  12.666  12.649   9.114
26504SOL    HW281410  12.750  12.544   9.045
26505SOL     OW81411   5.129   7.506   3.072
26505SOL    HW181412   5.038   7.488   3.047
26505SOL    HW281413   5.128   7.594   3.108
26506SOL     OW81414   2.617   4.152   6.910
26506SOL    HW181415   2.710   4.175   6.910
26506SOL    HW281416   2.572   4.233   6.933
26507SOL     OW81417   0.087   4.609   4.207
26507SOL    HW181418   0.045   4.628   4.123
26507SOL    HW281419   0.074   4.688   4.259
26508SOL     OW81420   0.023   3.977   3.367
26508SOL    HW181421  14.810   3.930   3.371
26508SOL    HW281422   0.080   3.931   3.428
26509SOL     OW81423   9.067   2.354   6.654
26509SOL    HW181424   8.981   2.340   6.615
26509SOL    HW281425   9.049   2.410   6.730
26510SOL     OW81426   2.069  13.576   2.143
26510SOL    HW181427   2.155  13.558   2.181
26510SOL    HW281428   2.076  13.547   2.052
26511SOL     OW81429   9.846  12.071   5.301
26511SOL    HW181430   9.783  12.005   5.272
26511SOL    HW281431   9.833  12.144   5.242
26512SOL     OW81432   4.364   2.081  13.211
26512SOL    HW181433   4.292   2.025  13.181
26512SOL    HW281434   4.351   2.163  13.164
26513SOL     OW81435   2.823  11.135   0.634
26513SOL    HW181436   2.834  11.203   0.701
26513SOL    HW281437   2.896  11.148   0.574
26514SOL     OW81438  10.792   9.236  13.429
26514SOL    HW181439  10.855   9.299  13.394
26514SOL    HW281440  10.835   9.151  13.419
26515SOL     OW81441   8.742  14.314  10.336
26515SOL    HW181442   8.722  14.222  10.350
26515SOL    HW281443   8.666  14.348  10.287
26516SOL     OW81444  12.440  12.832   1.527
26516SOL    HW181445  12.513  12.778   1.559
26516SOL    HW281446  12.467  12.922   1.547
26517SOL     OW81447   8.341  12.935  13.472
26517SOL    HW181448   8.432  12.906  13.480
26517SOL    HW281449   8.329  12.997  13.544
26518SOL     OW81450   0.659   4.575   8.315
26518SOL    HW181451   0.724   4.641   8.340
26518SOL    HW281452   0.665   4.509   8.385
26519SOL     OW81453  14.419   6.297   0.733
26519SOL    HW181454  14.376   6.212   0.750
26519SOL    HW281455  14.462   6.319   0.816
26520SOL     OW81456   1.199  11.484   8.371
26520SOL    HW181457   1.283  11.507   8.331
26520SOL    HW281458   1.136  11.491   8.300
26521SOL     OW81459  13.576   5.845  12.973
26521SOL    HW181460  13.524   5.906  12.920
26521SOL    HW281461  13.590   5.891  13.056
26522SOL     OW81462   3.733   8.712   3.545
26522SOL    HW181463   3.715   8.639   3.605
26522SOL    HW281464   3.717   8.790   3.598
26523SOL     OW81465   3.338   1.873  14.374
26523SOL    HW181466   3.271   1.855  14.308
26523SOL    HW281467   3.331   1.967  14.391
26524SOL     OW81468  12.120   2.181   4.850
26524SOL    HW181469  12.181   2.134   4.907
26524SOL    HW281470  12.168   2.193   4.768
26525SOL     OW81471   2.909   8.697   3.363
26525SOL    HW181472   2.945   8.768   3.309
26525SOL    HW281473   2.846   8.653   3.306
26526SOL     OW81474  13.348   0.313   7.780
26526SOL    HW181475  13.375   0.336   7.692
26526SOL    HW281476  13.327   0.220   7.776
26527SOL     OW81477   7.801   3.688   5.443
26527SOL    HW181478   7.710   3.693   5.471
26527SOL    HW281479   7.798   3.684   5.348
26528SOL     OW81480  10.391   0.364   7.318
26528SOL    HW181481  10.346   0.294   7.272
26528SOL    HW281482  10.321   0.416   7.358
26529SOL     OW81483  11.410  13.522  13.456
26529SOL    HW181484  11.340  13.473  13.500
26529SOL    HW281485  11.373  13.609  13.442
26530SOL     OW81486   2.121   4.225   6.060
26530SOL    HW181487   2.169   4.294   6.014
26530SOL    HW281488   2.121   4.151   6.000
26531SOL     OW81489   7.565   0.388   4.798
26531SOL    HW181490   7.569   0.453   4.729
26531SOL    HW281491   7.637   0.412   4.857
26532SOL     OW81492   3.335   0.669  10.344
26532SOL    HW181493   3.325   0.574  10.348
26532SOL    HW281494   3.425   0.685  10.375
26533SOL     OW81495   5.897   0.512   5.968
26533SOL    HW181496   5.977   0.551   5.932
26533SOL    HW281497   5.826   0.552   5.917
26534SOL     OW81498   8.373   5.118   9.790
26534SOL    HW181499   8.421   5.129   9.872
26534SOL    HW281500   8.437   5.080   9.730
26535SOL     OW81501  11.198  10.370   5.652
26535SOL    HW181502  11.210  10.456   5.612
26535SOL    HW281503  11.156  10.387   5.736
26536SOL     OW81504   5.383   7.345   5.462
26536SOL    HW181505   5.472   7.315   5.443
26536SOL    HW281506   5.382   7.436   5.431
26537SOL     OW81507  11.619   6.606   8.395
26537SOL    HW181508  11.530   6.572   8.386
26537SOL    HW281509  11.633   6.614   8.489
26538SOL     OW81510  12.701   5.478   0.518
26538SOL    HW181511  12.635   5.413   0.496
26538SOL    HW281512  12.731   5.512   0.434
26539SOL     OW81513   1.128   1.602  12.924
26539SOL    HW181514   1.128   1.668  12.855
26539SOL    HW281515   1.158   1.648  13.002
26540SOL     OW81516  12.815   8.511   6.366
26540SOL    HW181517  12.797   8.424   6.399
26540SOL    HW281518  12.792   8.570   6.438
26541SOL     OW81519   1.213   7.878  10.762
26541SOL    HW181520   1.154   7.803  10.771
26541SOL    HW281521   1.159   7.946  10.720
26542SOL     OW81522  11.160   2.575  11.427
26542SOL    HW181523  11.073   2.535  11.418
26542SOL    HW281524  11.160   2.646  11.363
26543SOL     OW81525   5.593   4.455   7.766
26543SOL    HW181526   5.673   4.476   7.814
26543SOL    HW281527   5.594   4.359   7.761
26544SOL     OW81528  12.781   4.848  13.958
26544SOL    HW181529  12.763   4.854  13.864
26544SOL    HW281530  12.870   4.882  13.967
26545SOL     OW81531   1.210   1.723  14.323
26545SOL    HW181532   1.247   1.803  14.360
26545SOL    HW281533   1.220   1.733  14.229
26546SOL     OW81534  13.730   6.023  11.263
26546SOL    HW181535  13.810   6.041  11.312
26546SOL    HW281536  13.660   6.033  11.328
26547SOL     OW81537   5.827   8.981   9.051
26547SOL    HW181538   5.878   9.028   8.986
26547SOL    HW281539   5.882   8.908   9.078
26548SOL     OW81540  11.026   2.284  10.980
26548SOL    HW181541  11.119   2.295  11.000
26548SOL    HW281542  10.990   2.239  11.057
26549SOL     OW81543   7.459   2.788  14.524
26549SOL    HW181544   7.470   2.787  14.619
26549SOL    HW281545   7.366   2.807  14.510
26550SOL     OW81546  14.228   8.340   4.052
26550SOL    HW181547  14.281   8.298   3.985
26550SOL    HW281548  14.139   8.337   4.018
26551SOL     OW81549  13.078   0.202  10.746
26551SOL    HW181550  13.063   0.118  10.702
26551SOL    HW281551  13.171   0.202  10.768
26552SOL     OW81552   1.325  11.106   1.884
26552SOL    HW181553   1.322  11.157   1.803
26552SOL    HW281554   1.292  11.020   1.860
26553SOL     OW81555   3.767   3.312  10.441
26553SOL    HW181556   3.685   3.265  10.425
26553SOL    HW281557   3.824   3.284  10.369
26554SOL     OW81558  14.770   2.835  13.658
26554SOL    HW181559  14.766   2.899  13.586
26554SOL    HW281560  14.694   2.778  13.644
26555SOL     OW81561  10.113  10.035   4.170
26555SOL    HW181562  10.154  10.118   4.144
26555SOL    HW281563  10.180   9.969   4.156
26556SOL     OW81564   2.723   5.420  12.381
26556SOL    HW181565   2.775   5.488  12.423
26556SOL    HW281566   2.647   5.466  12.345
26557SOL     OW81567   4.547   9.179   1.447
26557SOL    HW181568   4.565   9.207   1.537
26557SOL    HW281569   4.489   9.103   1.457
26558SOL     OW81570   5.890  14.510   6.537
26558SOL    HW181571   5.984  14.516   6.520
26558SOL    HW281572   5.852  14.582   6.487
26559SOL     OW81573  12.035   0.256   7.752
26559SOL    HW181574  12.018   0.184   7.812
26559SOL    HW281575  12.058   0.330   7.808
26560SOL     OW81576   3.737   2.277  12.183
26560SOL    HW181577   3.781   2.353  12.219
26560SOL    HW281578   3.648   2.307  12.165
26561SOL     OW81579  14.610  13.843  14.328
26561SOL    HW181580  14.606  13.934  14.298
26561SOL    HW281581  14.703  13.826  14.341
26562SOL     OW81582  12.149  13.694  12.302
26562SOL    HW181583  12.102  13.630  12.355
26562SOL    HW281584  12.104  13.695  12.218
26563SOL     OW81585  10.901   7.526   2.041
26563SOL    HW181586  10.909   7.609   2.089
26563SOL    HW281587  10.860   7.549   1.958
26564SOL     OW81588   8.289  14.148   3.085
26564SOL    HW181589   8.384  14.143   3.082
26564SOL    HW281590   8.259  14.099   3.009
26565SOL     OW81591  13.246   7.499   7.400
26565SOL    HW181592  13.318   7.548   7.360
26565SOL    HW281593  13.222   7.434   7.333
26566SOL     OW81594   1.766  12.281   9.065
26566SOL    HW181595   1.791  12.369   9.039
26566SOL    HW281596   1.849  12.235   9.078
26567SOL     OW81597  14.505  14.147   9.563
26567SOL    HW181598  14.564  14.191   9.625
26567SOL    HW281599  14.484  14.215   9.499
26568SOL     OW81600   2.383   8.050   8.966
26568SOL    HW181601   2.372   7.980   9.031
26568SOL    HW281602   2.443   8.014   8.901
26569SOL     OW81603   6.425   9.131  14.479
26569SOL    HW181604   6.419   9.085  14.395
26569SOL    HW281605   6.374   9.211  14.466
26570SOL     OW81606   3.827   7.358   5.975
26570SOL    HW181607   3.858   7.432   5.924
26570SOL    HW281608   3.889   7.352   6.048
26571SOL     OW81609  13.661  11.026   2.627
26571SOL    HW181610  13.584  11.026   2.685
26571SOL    HW281611  13.655  10.944   2.579
26572SOL     OW81612   3.373  10.774   3.623
26572SOL    HW181613   3.321  10.778   3.704
26572SOL    HW281614   3.455  10.818   3.645
26573SOL     OW81615   2.115   3.080  10.733
26573SOL    HW181616   2.109   2.991  10.768
26573SOL    HW281617   2.167   3.071  10.653
26574SOL     OW81618   6.654   7.120   0.307
26574SOL    HW181619   6.672   7.196   0.252
26574SOL    HW281620   6.619   7.156   0.388
26575SOL     OW81621   0.802  10.892  12.433
26575SOL    HW181622   0.848  10.833  12.493
26575SOL    HW281623   0.760  10.956  12.489
26576SOL     OW81624   9.085   4.783   0.668
26576SOL    HW181625   9.159   4.844   0.660
26576SOL    HW281626   9.043   4.786   0.583
26577SOL     OW81627  14.099   0.203   2.419
26577SOL    HW181628  14.174   0.187   2.362
26577SOL    HW281629  14.133   0.262   2.487
26578SOL     OW81630   4.643  11.246  11.337
26578SOL    HW181631   4.579  11.307  11.373
26578SOL    HW281632   4.633  11.166  11.389
26579SOL     OW81633   6.106  12.092   3.631
26579SOL    HW181634   6.179  12.154   3.625
26579SOL    HW281635   6.028  12.146   3.621
26580SOL     OW81636  10.028   3.451   6.588
26580SOL    HW181637   9.956   3.487   6.641
26580SOL    HW281638  10.036   3.360   6.616
26581SOL     OW81639   1.570  11.847   2.135
26581SOL    HW181640   1.623  11.821   2.210
26581SOL    HW281641   1.577  11.942   2.133
26582SOL     OW81642   8.124   5.828   0.876
26582SOL    HW181643   8.116   5.734   0.862
26582SOL    HW281644   8.107   5.866   0.790
26583SOL     OW81645  12.298   7.941   7.494
26583SOL    HW181646  12.307   7.846   7.503
26583SOL    HW281647  12.352   7.976   7.564
26584SOL     OW81648   2.239  10.935   0.889
26584SOL    HW181649   2.156  10.887   0.886
26584SOL    HW281650   2.246  10.965   0.980
26585SOL     OW81651   1.935  13.332   4.468
26585SOL    HW181652   1.881  13.406   4.441
26585SOL    HW281653   2.017  13.371   4.497
26586SOL     OW81654  10.153   2.647   5.520
26586SOL    HW181655  10.059   2.664   5.528
26586SOL    HW281656  10.158   2.570   5.463
26587SOL     OW81657   5.023   1.901   4.987
26587SOL    HW181658   5.015   1.932   4.897
26587SOL    HW281659   4.937   1.865   5.008
26588SOL     OW81660  10.024   3.586   3.003
26588SOL    HW181661   9.997   3.612   3.091
26588SOL    HW281662  10.071   3.504   3.015
26589SOL     OW81663   8.074   3.326  11.844
26589SOL    HW181664   8.150   3.278  11.876
26589SOL    HW281665   8.090   3.416  11.873
26590SOL     OW81666   3.367  11.573  14.762
26590SOL    HW181667   3.381  11.576  14.667
26590SOL    HW281668   3.450  11.541  14.797
26591SOL     OW81669  13.203  14.272   9.593
26591SOL    HW181670  13.117  14.312   9.581
26591SOL    HW281671  13.185  14.178   9.600
26592SOL     OW81672  10.051   8.864   1.592
26592SOL    HW181673   9.996   8.848   1.668
26592SOL    HW281674   9.999   8.922   1.536
26593SOL     OW81675  12.518  14.540   8.616
26593SOL    HW181676  12.445  14.595   8.643
26593SOL    HW281677  12.528  14.557   8.522
26594SOL     OW81678  12.146   0.862   6.124
26594SOL    HW181679  12.207   0.906   6.065
26594SOL    HW281680  12.173   0.770   6.123
26595SOL     OW81681   6.777  10.870  10.141
26595SOL    HW181682   6.693  10.917  10.139
26595SOL    HW281683   6.754  10.781  10.116
26596SOL     OW81684  14.391   9.409   7.316
26596SOL    HW181685  14.441   9.348   7.369
26596SOL    HW281686  14.381   9.366   7.231
26597SOL     OW81687   3.721   3.026  13.733
26597SOL    HW181688   3.705   3.071  13.816
26597SOL    HW281689   3.817   3.026  13.724
26598SOL     OW81690  10.827  10.440  10.662
26598SOL    HW181691  10.831  10.413  10.570
26598SOL    HW281692  10.798  10.531  10.659
26599SOL     OW81693   8.163   7.069  13.501
26599SOL    HW181694   8.101   7.030  13.439
26599SOL    HW281695   8.246   7.070  13.454
26600SOL     OW81696   0.739   6.628  13.531
26600SOL    HW181697   0.745   6.566  13.604
26600SOL    HW281698   0.754   6.714  13.571
26601SOL     OW81699   5.421  13.141   8.202
26601SOL    HW181700   5.368  13.159   8.125
26601SOL    HW281701   5.414  13.221   8.254
26602SOL     OW81702   3.582   6.650   7.016
26602SOL    HW181703   3.554   6.738   7.043
26602SOL    HW281704   3.654   6.666   6.955
26603SOL     OW81705   1.295  13.208   9.765
26603SOL    HW181706   1.280  13.122   9.804
26603SOL    HW281707   1.364  13.194   9.701
26604SOL     OW81708  10.622  11.796   9.385
26604SOL    HW181709  10.636  11.746   9.466
26604SOL    HW281710  10.687  11.760   9.325
26605SOL     OW81711   7.884   5.157   3.326
26605SOL    HW181712   7.863   5.071   3.290
26605SOL    HW281713   7.805   5.184   3.373
26606SOL     OW81714  10.695   6.563   0.981
26606SOL    HW181715  10.633   6.597   1.046
26606SOL    HW281716  10.654   6.582   0.897
26607SOL     OW81717   7.001   8.637   8.750
26607SOL    HW181718   6.908   8.632   8.728
26607SOL    HW281719   7.017   8.561   8.806
26608SOL     OW81720   6.358   5.510  13.835
26608SOL    HW181721   6.406   5.427  13.839
26608SOL    HW281722   6.418   5.570  13.791
26609SOL     OW81723   7.892  12.342  13.001
26609SOL    HW181724   7.983  12.345  12.970
26609SOL    HW281725   7.899  12.347  13.096
26610SOL     OW81726   1.912   8.249  12.240
26610SOL    HW181727   1.882   8.185  12.175
26610SOL    HW281728   1.965   8.311  12.190
26611SOL     OW81729   2.369  12.181   5.338
26611SOL    HW181730   2.428  12.194   5.412
26611SOL    HW281731   2.286  12.157   5.377
26612SOL     OW81732   8.367  13.476  12.883
26612SOL    HW181733   8.389  13.552  12.830
26612SOL    HW281734   8.308  13.424  12.828
26613SOL     OW81735  10.528   6.479   3.213
26613SOL    HW181736  10.543   6.573   3.224
26613SOL    HW281737  10.504   6.448   3.300
26614SOL     OW81738   0.608   4.371  11.417
26614SOL    HW181739   0.576   4.353  11.328
26614SOL    HW281740   0.637   4.462  11.414
26615SOL     OW81741  11.126  10.079  12.605
26615SOL    HW181742  11.069  10.136  12.657
26615SOL    HW281743  11.103  10.098  12.514
26616SOL     OW81744   0.962   1.625   2.681
26616SOL    HW181745   0.916   1.541   2.693
26616SOL    HW281746   0.915   1.686   2.738
26617SOL     OW81747   2.299  12.232  12.527
26617SOL    HW181748   2.312  12.307  12.469
26617SOL    HW281749   2.353  12.163  12.490
26618SOL     OW81750   1.758  14.247  13.838
26618SOL    HW181751   1.758  14.241  13.743
26618SOL    HW281752   1.841  14.207  13.865
26619SOL     OW81753  14.585   7.079  11.874
26619SOL    HW181754  14.562   7.170  11.856
26619SOL    HW281755  14.507   7.029  11.848
26620SOL     OW81756   0.726   5.304  11.402
26620SOL    HW181757   0.699   5.299  11.311
26620SOL    HW281758   0.772   5.222  11.419
26621SOL     OW81759  14.675   7.417   9.674
26621SOL    HW181760  14.581   7.424   9.691
26621SOL    HW281761  14.682   7.347   9.609
26622SOL     OW81762   4.418   2.672  12.462
26622SOL    HW181763   4.437   2.648  12.552
26622SOL    HW281764   4.485   2.629  12.410
26623SOL     OW81765  13.626   1.122   9.566
26623SOL    HW181766  13.597   1.213   9.552
26623SOL    HW281767  13.721   1.127   9.565
26624SOL     OW81768   2.328  12.505  12.593
26624SOL    HW181769   2.413  12.522  12.551
26624SOL    HW281770   2.264  12.529  12.526
26625SOL     OW81771  10.334   4.568   8.122
26625SOL    HW181772  10.402   4.619   8.077
26625SOL    HW281773  10.264   4.631   8.138
26626SOL     OW81774   5.459   6.171  11.173
26626SOL    HW181775   5.473   6.255  11.127
26626SOL    HW281776   5.510   6.108  11.122
26627SOL     OW81777   3.182   1.462   6.939
26627SOL    HW181778   3.095   1.449   6.977
26627SOL    HW281779   3.233   1.387   6.969
26628SOL     OW81780   3.777  12.509   0.415
26628SOL    HW181781   3.697  12.516   0.468
26628SOL    HW281782   3.795  12.416   0.411
26629SOL     OW81783  12.309   8.493   2.709
26629SOL    HW181784  12.226   8.519   2.669
26629SOL    HW281785  12.312   8.542   2.791
26630SOL     OW81786   3.235  14.520  14.821
26630SOL    HW181787   3.173  14.448  14.832
26630SOL    HW281788   3.224  14.548  14.730
26631SOL     OW81789  13.074   1.762   2.925
26631SOL    HW181790  12.983   1.739   2.902
26631SOL    HW281791  13.091   1.842   2.876
26632SOL     OW81792   7.653   3.170   1.190
26632SOL    HW181793   7.700   3.094   1.224
26632SOL    HW281794   7.576   3.178   1.246
26633SOL     OW81795   1.632   0.364   0.833
26633SOL    HW181796   1.544   0.401   0.842
26633SOL    HW281797   1.685   0.412   0.896
26634SOL     OW81798  13.353   1.406   5.200
26634SOL    HW181799  13.369   1.349   5.275
26634SOL    HW281800  13.331   1.491   5.239
26635SOL     OW81801   9.397   2.985   7.617
26635SOL    HW181802   9.484   3.021   7.599
26635SOL    HW281803   9.399   2.962   7.710
26636SOL     OW81804  14.600   7.386   1.998
26636SOL    HW181805  14.636   7.452   2.057
26636SOL    HW281806  14.527   7.347   2.047
26637SOL     OW81807  10.853   8.782  12.144
26637SOL    HW181808  10.807   8.808  12.225
26637SOL    HW281809  10.928   8.840  12.140
26638SOL     OW81810   9.409   6.607   4.183
26638SOL    HW181811   9.458   6.671   4.132
26638SOL    HW281812   9.460   6.595   4.263
26639SOL     OW81813   9.289   8.431   4.888
26639SOL    HW181814   9.336   8.491   4.945
26639SOL    HW281815   9.206   8.415   4.934
26640SOL     OW81816   4.803   8.959   3.154
26640SOL    HW181817   4.866   8.899   3.194
26640SOL    HW281818   4.768   8.910   3.079
26641SOL     OW81819   7.520   0.660  12.657
26641SOL    HW181820   7.534   0.581  12.604
26641SOL    HW281821   7.495   0.627  12.743
26642SOL     OW81822  12.105  11.633   1.112
26642SOL    HW181823  12.147  11.637   1.026
26642SOL    HW281824  12.110  11.541   1.137
26643SOL     OW81825   9.365  11.745  14.554
26643SOL    HW181826   9.420  11.670  14.534
26643SOL    HW281827   9.281  11.708  14.581
26644SOL     OW81828  13.093  12.409  10.248
26644SOL    HW181829  13.132  12.496  10.263
26644SOL    HW281830  13.013  12.410  10.300
26645SOL     OW81831  10.106  14.005   5.192
26645SOL    HW181832  10.167  13.933   5.178
26645SOL    HW281833  10.155  14.067   5.247
26646SOL     OW81834  12.392   2.863  13.897
26646SOL    HW181835  12.333   2.849  13.823
26646SOL    HW281836  12.420   2.955  13.888
26647SOL     OW81837   1.728   1.960  13.079
26647SOL    HW181838   1.703   2.028  13.142
26647SOL    HW281839   1.769   1.892  13.132
26648SOL     OW81840   1.164   6.381   0.992
26648SOL    HW181841   1.075   6.355   1.014
26648SOL    HW281842   1.196   6.312   0.935
26649SOL     OW81843   1.501   6.195   3.936
26649SOL    HW181844   1.566   6.170   4.002
26649SOL    HW281845   1.450   6.116   3.921
26650SOL     OW81846   2.766   0.315   7.542
26650SOL    HW181847   2.741   0.395   7.496
26650SOL    HW281848   2.847   0.336   7.588
26651SOL     OW81849   1.655  10.454   1.753
26651SOL    HW181850   1.706  10.442   1.834
26651SOL    HW281851   1.564  10.452   1.782
26652SOL     OW81852   0.391   2.879  10.296
26652SOL    HW181853   0.355   2.924  10.219
26652SOL    HW281854   0.436   2.803  10.260
26653SOL     OW81855   5.619  10.856   4.083
26653SOL    HW181856   5.547  10.916   4.065
26653SOL    HW281857   5.662  10.894   4.160
26654SOL     OW81858   5.827   1.913   3.466
26654SOL    HW181859   5.815   1.979   3.534
26654SOL    HW281860   5.792   1.954   3.386
26655SOL     OW81861  10.602  11.782  14.007
26655SOL    HW181862  10.693  11.752  14.009
26655SOL    HW281863  10.551  11.702  13.995
26656SOL     OW81864   1.839   6.564   1.895
26656SOL    HW181865   1.793   6.643   1.923
26656SOL    HW281866   1.773   6.513   1.848
26657SOL     OW81867   1.044   9.530   7.028
26657SOL    HW181868   1.115   9.541   7.091
26657SOL    HW281869   1.055   9.442   6.992
26658SOL     OW81870  11.310  14.345   2.620
26658SOL    HW181871  11.374  14.402   2.579
26658SOL    HW281872  11.253  14.405   2.670
26659SOL     OW81873   6.858  11.983  11.180
26659SOL    HW181874   6.840  12.075  11.158
26659SOL    HW281875   6.926  11.957  11.118
26660SOL     OW81876  14.109  11.011  11.685
26660SOL    HW181877  14.086  11.103  11.693
26660SOL    HW281878  14.081  10.972  11.768
26661SOL     OW81879  12.412   2.718   4.243
26661SOL    HW181880  12.445   2.673   4.321
26661SOL    HW281881  12.478   2.785   4.224
26662SOL     OW81882   0.837   2.640   7.471
26662SOL    HW181883   0.856   2.695   7.394
26662SOL    HW281884   0.899   2.567   7.464
26663SOL     OW81885   6.697   7.089  13.711
26663SOL    HW181886   6.722   7.175  13.745
26663SOL    HW281887   6.725   7.027  13.778
26664SOL     OW81888  13.876  12.402  11.173
26664SOL    HW181889  13.907  12.480  11.220
26664SOL    HW281890  13.855  12.433  11.085
26665SOL     OW81891   3.362   4.189   0.808
26665SOL    HW181892   3.409   4.147   0.735
26665SOL    HW281893   3.288   4.233   0.767
26666SOL     OW81894   0.162   5.650   2.047
26666SOL    HW181895   0.222   5.696   2.106
26666SOL    HW281896   0.181   5.686   1.960
26667SOL     OW81897   5.241  13.120   2.166
26667SOL    HW181898   5.214  13.091   2.254
26667SOL    HW281899   5.176  13.186   2.142
26668SOL     OW81900   5.221   0.595   4.828
26668SOL    HW181901   5.178   0.516   4.795
26668SOL    HW281902   5.205   0.661   4.760
26669SOL     OW81903   2.243   6.867   3.308
26669SOL    HW181904   2.205   6.910   3.232
26669SOL    HW281905   2.173   6.812   3.343
26670SOL     OW81906   3.538   8.924   4.082
26670SOL    HW181907   3.446   8.902   4.092
26670SOL    HW281908   3.583   8.840   4.082
26671SOL     OW81909   8.799   8.382  14.831
26671SOL    HW181910   8.867   8.388  14.764
26671SOL    HW281911   8.745   8.307  14.804
26672SOL     OW81912  12.217   7.359  11.424
26672SOL    HW181913  12.156   7.369  11.352
26672SOL    HW281914  12.293   7.413  11.400
26673SOL     OW81915  14.567   9.520   8.185
26673SOL    HW181916  14.598   9.611   8.182
26673SOL    HW281917  14.499   9.521   8.253
26674SOL     OW81918  13.285   1.332   5.543
26674SOL    HW181919  13.312   1.242   5.563
26674SOL    HW281920  13.248   1.365   5.625
26675SOL     OW81921   0.765   7.514   8.421
26675SOL    HW181922   0.832   7.583   8.429
26675SOL    HW281923   0.812   7.433   8.441
26676SOL     OW81924   3.793   6.082  12.249
26676SOL    HW181925   3.822   5.998  12.285
26676SOL    HW281926   3.807   6.075  12.155
26677SOL     OW81927  14.649   5.821   4.708
26677SOL    HW181928  14.682   5.744   4.661
26677SOL    HW281929  14.718   5.886   4.698
26678SOL     OW81930   1.534   2.128   9.067
26678SOL    HW181931   1.477   2.061   9.104
26678SOL    HW281932   1.564   2.179   9.142
26679SOL     OW81933   4.766   1.921  13.840
26679SOL    HW181934   4.820   1.998  13.853
26679SOL    HW281935   4.820   1.861  13.789
26680SOL     OW81936   3.415   0.398  13.319
26680SOL    HW181937   3.420   0.386  13.414
26680SOL    HW281938   3.408   0.492  13.307
26681SOL     OW81939   7.611   7.053   8.662
26681SOL    HW181940   7.597   7.127   8.603
26681SOL    HW281941   7.700   7.023   8.642
26682SOL     OW81942   4.847   3.420   9.894
26682SOL    HW181943   4.925   3.368   9.915
26682SOL    HW281944   4.779   3.354   9.874
26683SOL     OW81945  11.970   2.933  10.390
26683SOL    HW181946  11.987   2.982  10.309
26683SOL    HW281947  11.948   2.845  10.360
26684SOL     OW81948   2.541  12.236   9.548
26684SOL    HW181949   2.531  12.257   9.455
26684SOL    HW281950   2.618  12.178   9.551
26685SOL     OW81951   8.968   8.923   1.801
26685SOL    HW181952   8.906   8.996   1.796
26685SOL    HW281953   8.913   8.846   1.815
26686SOL     OW81954   4.124   0.045   8.820
26686SOL    HW181955   4.124  14.836   8.765
26686SOL    HW281956   4.100   0.013   8.907
26687SOL     OW81957  13.912   5.822   1.891
26687SOL    HW181958  13.860   5.829   1.971
26687SOL    HW281959  13.882   5.894   1.835
26688SOL     OW81960   3.988  10.412   3.542
26688SOL    HW181961   4.075  10.406   3.581
26688SOL    HW281962   3.988  10.346   3.473
26689SOL     OW81963   5.744  12.463   3.941
26689SOL    HW181964   5.761  12.534   4.003
26689SOL    HW281965   5.743  12.384   3.995
26690SOL     OW81966   3.340   2.141  14.390
26690SOL    HW181967   3.276   2.206  14.362
26690SOL    HW281968   3.397   2.129  14.313
26691SOL     OW81969   6.810  11.258   4.273
26691SOL    HW181970   6.833  11.324   4.208
26691SOL    HW281971   6.795  11.178   4.223
26692SOL     OW81972   6.622  10.282   2.233
26692SOL    HW181973   6.651  10.256   2.145
26692SOL    HW281974   6.546  10.337   2.218
26693SOL     OW81975   3.625   5.580  10.330
26693SOL    HW181976   3.719   5.569  10.342
26693SOL    HW281977   3.595   5.494  10.300
26694SOL     OW81978   6.492   5.421  12.082
26694SOL    HW181979   6.520   5.457  12.166
26694SOL    HW281980   6.402   5.392  12.097
26695SOL     OW81981   4.592   3.314  13.463
26695SOL    HW181982   4.676   3.338  13.425
26695SOL    HW281983   4.527   3.357  13.408
26696SOL     OW81984  14.498  11.236   8.335
26696SOL    HW181985  14.410  11.241   8.298
26696SOL    HW281986  14.531  11.325   8.329
26697SOL     OW81987   7.627  13.170   8.651
26697SOL    HW181988   7.552  13.211   8.608
26697SOL    HW281989   7.674  13.127   8.580
26698SOL     OW81990  13.028  12.728   1.209
26698SOL    HW181991  13.003  12.802   1.263
26698SOL    HW281992  13.111  12.698   1.245
26699SOL     OW81993  12.592   0.404   3.499
26699SOL    HW181994  12.585   0.499   3.505
26699SOL    HW281995  12.501   0.374   3.493
26700SOL     OW81996  11.689   2.575   3.625
26700SOL    HW181997  11.708   2.599   3.534
26700SOL    HW281998  11.775   2.573   3.667
26701SOL     OW81999  10.922  11.229   8.168
26701SOL    HW182000  10.845  11.275   8.135
26701SOL    HW282001  10.943  11.273   8.251
26702SOL     OW82002  11.069   3.005  11.144
26702SOL    HW182003  11.125   3.070  11.187
26702SOL    HW282004  11.023   3.054  11.076
26703SOL     OW82005   6.724   1.061   7.774
26703SOL    HW182006   6.761   1.149   7.783
26703SOL    HW282007   6.674   1.048   7.855
26704SOL     OW82008  10.178  12.102   2.765
26704SOL    HW182009  10.209  12.160   2.835
26704SOL    HW282010  10.142  12.161   2.699
26705SOL     OW82011  14.503  14.010  14.012
26705SOL    HW182012  14.487  13.921  14.044
26705SOL    HW282013  14.579  14.002  13.955
26706SOL     OW82014   1.820   9.474   6.692
26706SOL    HW182015   1.864   9.412   6.633
26706SOL    HW282016   1.821   9.557   6.644
26707SOL     OW82017  12.136  10.980  14.493
26707SOL    HW182018  12.164  10.895  14.527
26707SOL    HW282019  12.099  10.960  14.407
26708SOL     OW82020   3.834  14.587   6.649
26708SOL    HW182021   3.910  14.587   6.707
26708SOL    HW282022   3.852  14.518   6.585
26709SOL     OW82023  13.576   4.732   4.592
26709SOL    HW182024  13.507   4.706   4.531
26709SOL    HW282025  13.585   4.657   4.651
26710SOL     OW82026  13.854   4.001   7.452
26710SOL    HW182027  13.944   4.014   7.421
26710SOL    HW282028  13.852   3.911   7.483
26711SOL     OW82029   6.248   9.176  12.567
26711SOL    HW182030   6.185   9.247  12.558
26711SOL    HW282031   6.270   9.152  12.477
26712SOL     OW82032   0.320   2.320   7.615
26712SOL    HW182033   0.365   2.385   7.669
26712SOL    HW282034   0.285   2.371   7.541
26713SOL     OW82035  14.644   4.608   6.629
26713SOL    HW182036  14.626   4.525   6.674
26713SOL    HW282037  14.568   4.662   6.649
26714SOL     OW82038   3.744   2.382   1.585
26714SOL    HW182039   3.718   2.473   1.600
26714SOL    HW282040   3.831   2.388   1.546
26715SOL     OW82041   6.603   4.945  13.690
26715SOL    HW182042   6.631   5.035  13.672
26715SOL    HW282043   6.539   4.926  13.622
26716SOL     OW82044   1.564   6.792   4.158
26716SOL    HW182045   1.573   6.867   4.216
26716SOL    HW282046   1.558   6.716   4.217
26717SOL     OW82047   2.994   4.682   3.608
26717SOL    HW182048   2.937   4.606   3.618
26717SOL    HW282049   3.005   4.691   3.513
26718SOL     OW82050  11.788   9.860  12.437
26718SOL    HW182051  11.883   9.870  12.440
26718SOL    HW282052  11.757   9.946  12.407
26719SOL     OW82053   0.827   7.645   0.213
26719SOL    HW182054   0.747   7.605   0.247
26719SOL    HW282055   0.897   7.585   0.238
26720SOL     OW82056   9.859   9.292   6.520
26720SOL    HW182057   9.767   9.315   6.513
26720SOL    HW282058   9.904   9.376   6.532
26721SOL     OW82059  12.633   3.894   6.348
26721SOL    HW182060  12.622   3.908   6.254
26721SOL    HW282061  12.605   3.977   6.388
26722SOL     OW82062  14.337   7.760  10.895
26722SOL    HW182063  14.254   7.727  10.929
26722SOL    HW282064  14.348   7.714  10.811
26723SOL     OW82065   2.897   6.266  14.770
26723SOL    HW182066   2.810   6.228  14.755
26723SOL    HW282067   2.937   6.267  14.683
26724SOL     OW82068  10.014   8.411   7.274
26724SOL    HW182069   9.945   8.377   7.218
26724SOL    HW282070  10.093   8.407   7.220
26725SOL     OW82071   9.025   7.911   7.467
26725SOL    HW182072   9.107   7.882   7.507
26725SOL    HW282073   9.002   7.991   7.515
26726SOL     OW82074   9.997  13.074   9.006
26726SOL    HW182075   9.959  13.126   8.936
26726SOL    HW282076   9.927  13.015   9.033
26727SOL     OW82077   3.572   4.119   2.705
26727SOL    HW182078   3.633   4.180   2.745
26727SOL    HW282079   3.534   4.166   2.632
26728SOL     OW82080   0.313   9.429   7.725
26728SOL    HW182081   0.334   9.376   7.648
26728SOL    HW282082   0.224   9.402   7.749
26729SOL     OW82083  13.995   0.771   5.302
26729SOL    HW182084  14.090   0.770   5.304
26729SOL    HW282085  13.972   0.696   5.248
26730SOL     OW82086   0.319  11.830  10.725
26730SOL    HW182087   0.382  11.873  10.783
26730SOL    HW282088   0.234  11.844  10.768
26731SOL     OW82089  14.743  14.851   2.191
26731SOL    HW182090  14.738   0.077   2.198
26731SOL    HW282091  14.822  14.836   2.139
26732SOL     OW82092   6.058  11.276   9.369
26732SOL    HW182093   6.042  11.296   9.276
26732SOL    HW282094   6.115  11.346   9.399
26733SOL     OW82095  13.651  10.511  10.673
26733SOL    HW182096  13.603  10.443  10.720
26733SOL    HW282097  13.591  10.586  10.671
26734SOL     OW82098   5.369  12.186   4.879
26734SOL    HW182099   5.397  12.182   4.787
26734SOL    HW282100   5.437  12.236   4.923
26735SOL     OW82101   3.565   0.749  11.932
26735SOL    HW182102   3.516   0.738  12.013
26735SOL    HW282103   3.572   0.660  11.896
26736SOL     OW82104   9.516   8.567  11.698
26736SOL    HW182105   9.526   8.555  11.793
26736SOL    HW282106   9.525   8.661  11.685
26737SOL     OW82107  12.732  10.568   4.353
26737SOL    HW182108  12.812  10.593   4.306
26737SOL    HW282109  12.753  10.483   4.393
26738SOL     OW82110   0.392   6.389   7.893
26738SOL    HW182111   0.329   6.318   7.883
26738SOL    HW282112   0.418   6.412   7.803
26739SOL     OW82113  13.483   1.841  12.325
26739SOL    HW182114  13.476   1.821  12.419
26739SOL    HW282115  13.397   1.874  12.301
26740SOL     OW82116   7.151  13.154  14.841
26740SOL    HW182117   7.128  13.090  14.773
26740SOL    HW282118   7.231  13.194  14.809
26741SOL     OW82119  14.243  11.217   8.287
26741SOL    HW182120  14.210  11.228   8.376
26741SOL    HW282121  14.168  11.181   8.238
26742SOL     OW82122   1.708   3.861   1.617
26742SOL    HW182123   1.620   3.839   1.649
26742SOL    HW282124   1.695   3.937   1.562
26743SOL     OW82125   1.689  14.017   7.025
26743SOL    HW182126   1.715  14.099   6.982
26743SOL    HW282127   1.604  13.997   6.987
26744SOL     OW82128   4.672   6.329  11.990
26744SOL    HW182129   4.609   6.376  12.045
26744SOL    HW282130   4.757   6.364  12.016
26745SOL     OW82131   0.223   6.293  13.507
26745SOL    HW182132   0.227   6.375  13.458
26745SOL    HW282133   0.300   6.296  13.564
26746SOL     OW82134  11.782   0.956  12.541
26746SOL    HW182135  11.829   0.952  12.458
26746SOL    HW282136  11.705   0.901  12.527
26747SOL     OW82137   4.209   6.764  11.783
26747SOL    HW182138   4.160   6.733  11.859
26747SOL    HW282139   4.171   6.717  11.708
26748SOL     OW82140   2.231   5.883   0.481
26748SOL    HW182141   2.170   5.810   0.482
26748SOL    HW282142   2.181   5.957   0.517
26749SOL     OW82143   7.769   0.646   3.010
26749SOL    HW182144   7.683   0.641   3.051
26749SOL    HW282145   7.813   0.719   3.054
26750SOL     OW82146   0.899  14.354  12.403
26750SOL    HW182147   0.918  14.421  12.337
26750SOL    HW282148   0.805  14.362  12.418
26751SOL     OW82149   7.028   3.649   5.156
26751SOL    HW182150   6.943   3.664   5.197
26751SOL    HW282151   7.091   3.690   5.215
26752SOL     OW82152  12.817   3.596   5.632
26752SOL    HW182153  12.769   3.672   5.665
26752SOL    HW282154  12.909   3.623   5.635
26753SOL     OW82155   7.370   3.800   4.245
26753SOL    HW182156   7.386   3.873   4.305
26753SOL    HW282157   7.332   3.842   4.167
26754SOL     OW82158   0.588   0.347   0.278
26754SOL    HW182159   0.647   0.294   0.332
26754SOL    HW282160   0.516   0.370   0.337
26755SOL     OW82161   7.982  10.818  14.705
26755SOL    HW182162   7.903  10.781  14.745
26755SOL    HW282163   7.995  10.768  14.625
26756SOL     OW82164  13.189   8.055  12.404
26756SOL    HW182165  13.170   8.142  12.369
26756SOL    HW282166  13.113   8.002  12.382
26757SOL     OW82167   8.994  12.580   0.011
26757SOL    HW182168   8.956  12.634   0.080
26757SOL    HW282169   8.994  12.492   0.046
26758SOL     OW82170   9.931   7.018   0.540
26758SOL    HW182171   9.914   6.935   0.496
26758SOL    HW282172  10.019   7.043   0.510
26759SOL     OW82173   7.109   4.850   8.680
26759SOL    HW182174   7.166   4.830   8.753
26759SOL    HW282175   7.020   4.846   8.716
26760SOL     OW82176  13.538   5.189   9.878
26760SOL    HW182177  13.470   5.207   9.943
26760SOL    HW282178  13.501   5.120   9.823
26761SOL     OW82179   9.306  14.369   2.774
26761SOL    HW182180   9.298  14.296   2.836
26761SOL    HW282181   9.400  14.386   2.769
26762SOL     OW82182   1.588   6.568  12.807
26762SOL    HW182183   1.524   6.512  12.852
26762SOL    HW282184   1.559   6.657  12.826
26763SOL     OW82185   8.311   6.485   8.059
26763SOL    HW182186   8.378   6.542   8.097
26763SOL    HW282187   8.356   6.441   7.987
26764SOL     OW82188  11.592   0.427   0.303
26764SOL    HW182189  11.687   0.430   0.317
26764SOL    HW282190  11.558   0.499   0.356
26765SOL     OW82191   4.464   5.992  12.294
26765SOL    HW182192   4.551   6.023  12.321
26765SOL    HW282193   4.476   5.897  12.283
26766SOL     OW82194   0.426  12.873  11.007
26766SOL    HW182195   0.422  12.780  11.031
26766SOL    HW282196   0.517  12.887  10.981
26767SOL     OW82197  11.328   1.714   8.308
26767SOL    HW182198  11.322   1.648   8.376
26767SOL    HW282199  11.240   1.753   8.304
26768SOL     OW82200   4.225  13.869   1.954
26768SOL    HW182201   4.281  13.794   1.933
26768SOL    HW282202   4.228  13.924   1.876
26769SOL     OW82203  13.907   6.733  10.917
26769SOL    HW182204  13.863   6.650  10.934
26769SOL    HW282205  13.867   6.794  10.980
26770SOL     OW82206   2.357  10.000   5.839
26770SOL    HW182207   2.340  10.052   5.917
26770SOL    HW282208   2.417   9.931   5.869
26771SOL     OW82209  13.484  11.229   2.774
26771SOL    HW182210  13.404  11.178   2.792
26771SOL    HW282211  13.470  11.312   2.821
26772SOL     OW82212  14.230   8.005  11.536
26772SOL    HW182213  14.187   8.090  11.526
26772SOL    HW282214  14.191   7.950  11.468
26773SOL     OW82215  13.181   3.252  11.090
26773SOL    HW182216  13.139   3.207  11.016
26773SOL    HW282217  13.228   3.324  11.049
26774SOL     OW82218   2.852  14.109   7.656
26774SOL    HW182219   2.796  14.113   7.733
26774SOL    HW282220   2.854  14.199   7.623
26775SOL     OW82221  13.621   2.493   7.402
26775SOL    HW182222  13.695   2.539   7.364
26775SOL    HW282223  13.575   2.559   7.453
26776SOL     OW82224  14.422   7.242   9.416
26776SOL    HW182225  14.495   7.188   9.447
26776SOL    HW282226  14.351   7.224   9.478
26777SOL     OW82227   5.124   7.012  13.671
26777SOL    HW182228   5.130   7.088  13.729
26777SOL    HW282229   5.059   6.956  13.713
26778SOL     OW82230  11.016  10.242   5.068
26778SOL    HW182231  10.982  10.294   5.140
26778SOL    HW282232  10.942  10.236   5.007
26779SOL     OW82233   0.714   8.903   4.469
26779SOL    HW182234   0.654   8.952   4.412
26779SOL    HW282235   0.744   8.967   4.533
26780SOL     OW82236   8.706   2.504   9.956
26780SOL    HW182237   8.635   2.549   9.911
26780SOL    HW282238   8.785   2.551   9.928
26781SOL     OW82239   6.944   9.101   0.888
26781SOL    HW182240   6.894   9.102   0.806
26781SOL    HW282241   6.892   9.151   0.950
26782SOL     OW82242  14.498   5.397   4.897
26782SOL    HW182243  14.527   5.346   4.973
26782SOL    HW282244  14.419   5.442   4.926
26783SOL     OW82245   8.228  13.864  13.571
26783SOL    HW182246   8.229  13.911  13.654
26783SOL    HW282247   8.142  13.822  13.568
26784SOL     OW82248   8.902   4.368   8.707
26784SOL    HW182249   8.893   4.357   8.612
26784SOL    HW282250   8.904   4.278   8.741
26785SOL     OW82251  11.832   8.835   2.667
26785SOL    HW182252  11.781   8.914   2.683
26785SOL    HW282253  11.800   8.802   2.582
26786SOL     OW82254  13.417  14.207  11.830
26786SOL    HW182255  13.427  14.113  11.814
26786SOL    HW282256  13.501  14.245  11.804
26787SOL     OW82257  10.296   5.016   0.993
26787SOL    HW182258  10.244   4.944   1.028
26787SOL    HW282259  10.340   4.979   0.917
26788SOL     OW82260   6.151   0.161   3.472
26788SOL    HW182261   6.152   0.159   3.567
26788SOL    HW282262   6.169   0.070   3.446
26789SOL     OW82263   9.450   6.292   2.592
26789SOL    HW182264   9.485   6.318   2.678
26789SOL    HW282265   9.380   6.356   2.575
26790SOL     OW82266   4.727  12.849   7.242
26790SOL    HW182267   4.764  12.762   7.249
26790SOL    HW282268   4.632  12.835   7.241
26791SOL     OW82269   1.487   2.110   0.156
26791SOL    HW182270   1.559   2.128   0.217
26791SOL    HW282271   1.436   2.191   0.155
26792SOL     OW82272   0.064  11.813   6.809
26792SOL    HW182273   0.119  11.802   6.887
26792SOL    HW282274   0.070  11.906   6.788
26793SOL     OW82275   3.222  10.890   9.597
26793SOL    HW182276   3.281  10.860   9.667
26793SOL    HW282277   3.275  10.885   9.518
26794SOL     OW82278   7.877   1.383  14.630
26794SOL    HW182279   7.895   1.457  14.689
26794SOL    HW282280   7.869   1.423  14.544
26795SOL     OW82281  13.192   0.772   2.894
26795SOL    HW182282  13.140   0.834   2.843
26795SOL    HW282283  13.274   0.763   2.845
26796SOL     OW82284   2.399  13.850   0.482
26796SOL    HW182285   2.313  13.808   0.482
26796SOL    HW282286   2.393  13.917   0.414
26797SOL     OW82287  12.632  12.041   4.052
26797SOL    HW182288  12.632  12.134   4.027
26797SOL    HW282289  12.700  12.001   3.997
26798SOL     OW82290  13.338   1.641  11.991
26798SOL    HW182291  13.366   1.679  11.908
26798SOL    HW282292  13.249   1.675  12.005
26799SOL     OW82293  13.741   4.290  10.083
26799SOL    HW182294  13.662   4.344  10.088
26799SOL    HW282295  13.726   4.219  10.146
26800SOL     OW82296  10.436   0.487  14.004
26800SOL    HW182297  10.366   0.476  13.940
26800SOL    HW282298  10.396   0.537  14.075
26801SOL     OW82299   1.298   6.927   6.915
26801SOL    HW182300   1.229   6.972   6.964
26801SOL    HW282301   1.379   6.951   6.961
26802SOL     OW82302   1.043   6.510   7.495
26802SOL    HW182303   0.957   6.474   7.472
26802SOL    HW282304   1.082   6.445   7.552
26803SOL     OW82305   3.732   2.362  10.936
26803SOL    HW182306   3.789   2.395  11.006
26803SOL    HW282307   3.656   2.419  10.938
26804SOL     OW82308   1.622   1.989   2.937
26804SOL    HW182309   1.612   2.076   2.976
26804SOL    HW282310   1.575   1.931   2.996
26805SOL     OW82311  11.950  13.160  14.420
26805SOL    HW182312  11.923  13.103  14.348
26805SOL    HW282313  12.045  13.164  14.413
26806SOL     OW82314  13.481   0.352   3.313
26806SOL    HW182315  13.446   0.308   3.236
26806SOL    HW282316  13.442   0.305   3.387
26807SOL     OW82317  13.700   5.719   6.978
26807SOL    HW182318  13.776   5.661   6.986
26807SOL    HW282319  13.715   5.768   6.898
26808SOL     OW82320   4.956  12.909  11.841
26808SOL    HW182321   4.995  12.893  11.927
26808SOL    HW282322   5.031  12.917  11.781
26809SOL     OW82323   0.724   0.966  11.895
26809SOL    HW182324   0.737   0.921  11.811
26809SOL    HW282325   0.808   1.007  11.913
26810SOL     OW82326   8.754  12.875   6.996
26810SOL    HW182327   8.837  12.884   7.042
26810SOL    HW282328   8.711  12.960   7.005
26811SOL     OW82329   3.072   7.822   4.983
26811SOL    HW182330   3.043   7.756   4.921
26811SOL    HW282331   3.117   7.773   5.051
26812SOL     OW82332   1.121  11.756   7.042
26812SOL    HW182333   1.118  11.809   6.962
26812SOL    HW282334   1.191  11.797   7.095
26813SOL     OW82335   4.108  13.222  14.301
26813SOL    HW182336   4.086  13.202  14.392
26813SOL    HW282337   4.107  13.317  14.297
26814SOL     OW82338  10.391  10.941   5.875
26814SOL    HW182339  10.458  11.008   5.865
26814SOL    HW282340  10.320  10.969   5.817
26815SOL     OW82341  13.915   5.091   9.241
26815SOL    HW182342  13.966   5.014   9.215
26815SOL    HW282343  13.836   5.086   9.187
26816SOL     OW82344   4.217   0.346   4.104
26816SOL    HW182345   4.299   0.390   4.127
26816SOL    HW282346   4.181   0.318   4.188
26817SOL     OW82347   4.570   6.856  13.052
26817SOL    HW182348   4.597   6.792  12.985
26817SOL    HW282349   4.651   6.901  13.076
26818SOL     OW82350   2.758   9.685   2.076
26818SOL    HW182351   2.679   9.714   2.123
26818SOL    HW282352   2.766   9.592   2.097
26819SOL     OW82353  12.222   9.087  13.735
26819SOL    HW182354  12.291   9.083  13.801
26819SOL    HW282355  12.184   8.999  13.735
26820SOL     OW82356  10.969   0.982   3.004
26820SOL    HW182357  10.930   0.991   3.090
26820SOL    HW282358  11.049   1.035   3.008
26821SOL     OW82359   1.168   4.572  10.804
26821SOL    HW182360   1.159   4.646  10.864
26821SOL    HW282361   1.182   4.613  10.718
26822SOL     OW82362   7.308  10.242   3.670
26822SOL    HW182363   7.312  10.252   3.575
26822SOL    HW282364   7.323  10.149   3.685
26823SOL     OW82365  13.512  10.458   8.577
26823SOL    HW182366  13.578  10.393   8.603
26823SOL    HW282367  13.535  10.479   8.486
26824SOL     OW82368   1.642  11.608   2.020
26824SOL    HW182369   1.599  11.694   2.022
26824SOL    HW282370   1.578  11.548   2.058
26825SOL     OW82371  12.337  14.318  10.302
26825SOL    HW182372  12.400  14.310  10.230
26825SOL    HW282373  12.268  14.255  10.280
26826SOL     OW82374  11.570  13.988  11.241
26826SOL    HW182375  11.603  13.956  11.156
26826SOL    HW282376  11.568  13.910  11.296
26827SOL     OW82377   2.600   4.025   1.506
26827SOL    HW182378   2.682   3.992   1.469
26827SOL    HW282379   2.614   4.025   1.601
26828SOL     OW82380  11.387   6.069  10.051
26828SOL    HW182381  11.467   6.023  10.023
26828SOL    HW282382  11.410   6.108  10.135
26829SOL     OW82383   2.565   6.788   3.600
26829SOL    HW182384   2.515   6.749   3.528
26829SOL    HW282385   2.593   6.713   3.653
26830SOL     OW82386   9.809   4.440  11.409
26830SOL    HW182387   9.719   4.413  11.427
26830SOL    HW282388   9.809   4.463  11.316
26831SOL     OW82389   4.240   0.652  12.844
26831SOL    HW182390   4.253   0.563  12.874
26831SOL    HW282391   4.314   0.669  12.785
26832SOL     OW82392   4.815   1.567   3.869
26832SOL    HW182393   4.885   1.621   3.909
26832SOL    HW282394   4.734   1.613   3.892
26833SOL     OW82395   6.636  10.269  11.854
26833SOL    HW182396   6.612  10.315  11.773
26833SOL    HW282397   6.553  10.252  11.898
26834SOL     OW82398   7.690   2.440  10.687
26834SOL    HW182399   7.778   2.420  10.655
26834SOL    HW282400   7.637   2.365  10.660
26835SOL     OW82401  11.202   5.963   2.362
26835SOL    HW182402  11.140   6.025   2.322
26835SOL    HW282403  11.284   6.011   2.366
26836SOL     OW82404   8.884   0.932  14.189
26836SOL    HW182405   8.890   0.957  14.281
26836SOL    HW282406   8.937   0.853  14.182
26837SOL     OW82407   6.722   2.306   6.684
26837SOL    HW182408   6.714   2.220   6.642
26837SOL    HW282409   6.793   2.295   6.747
26838SOL     OW82410   3.930   2.174   9.040
26838SOL    HW182411   3.924   2.250   8.983
26838SOL    HW282412   3.974   2.207   9.119
26839SOL     OW82413   7.594  11.108  13.718
26839SOL    HW182414   7.515  11.120  13.771
26839SOL    HW282415   7.660  11.076  13.779
26840SOL     OW82416   7.630   5.855   8.537
26840SOL    HW182417   7.671   5.774   8.503
26840SOL    HW282418   7.550   5.826   8.579
26841SOL     OW82419   7.852  10.493  12.137
26841SOL    HW182420   7.838  10.527  12.048
26841SOL    HW282421   7.775  10.439  12.155
26842SOL     OW82422   4.574   5.026  11.856
26842SOL    HW182423   4.668   5.023  11.873
26842SOL    HW282424   4.567   5.067  11.770
26843SOL     OW82425   4.098  10.242   2.569
26843SOL    HW182426   4.117  10.162   2.618
26843SOL    HW282427   4.182  10.287   2.561
26844SOL     OW82428   7.702   3.093   5.758
26844SOL    HW182429   7.755   3.078   5.836
26844SOL    HW282430   7.619   3.128   5.790
26845SOL     OW82431  12.048  10.677  14.827
26845SOL    HW182432  12.087  10.709  14.746
26845SOL    HW282433  11.954  10.675  14.811
26846SOL     OW82434   6.220   2.024   8.328
26846SOL    HW182435   6.279   2.061   8.394
26846SOL    HW282436   6.138   2.073   8.339
26847SOL     OW82437   5.067  12.679   4.589
26847SOL    HW182438   5.031  12.620   4.656
26847SOL    HW282439   5.013  12.664   4.512
26848SOL     OW82440   5.738   3.599   3.956
26848SOL    HW182441   5.658   3.649   3.937
26848SOL    HW282442   5.740   3.594   4.052
26849SOL     OW82443   1.910  13.165  11.707
26849SOL    HW182444   1.959  13.117  11.774
26849SOL    HW282445   1.965  13.159  11.629
26850SOL     OW82446   2.167  13.618  13.406
26850SOL    HW182447   2.199  13.639  13.493
26850SOL    HW282448   2.090  13.673  13.394
26851SOL     OW82449   8.927   5.946  10.857
26851SOL    HW182450   8.867   6.020  10.843
26851SOL    HW282451   8.916   5.924  10.949
26852SOL     OW82452   7.944  13.821  12.089
26852SOL    HW182453   7.870  13.765  12.111
26852SOL    HW282454   7.936  13.837  11.995
26853SOL     OW82455   1.254   9.258   1.555
26853SOL    HW182456   1.218   9.182   1.510
26853SOL    HW282457   1.223   9.333   1.503
26854SOL     OW82458   5.927   6.492   8.940
26854SOL    HW182459   5.975   6.424   8.893
26854SOL    HW282460   5.840   6.455   8.954
26855SOL     OW82461   6.839   5.979   0.028
26855SOL    HW182462   6.766   5.927  14.866
26855SOL    HW282463   6.808   6.015   0.111
26856SOL     OW82464   8.975   8.057   1.245
26856SOL    HW182465   9.040   8.012   1.191
26856SOL    HW282466   9.026   8.118   1.298
26857SOL     OW82467   7.699   7.882  13.296
26857SOL    HW182468   7.746   7.909  13.374
26857SOL    HW282469   7.718   7.789  13.287
26858SOL     OW82470   6.846  11.776  13.071
26858SOL    HW182471   6.903  11.845  13.103
26858SOL    HW282472   6.836  11.716  13.144
26859SOL     OW82473   7.002   3.369   1.417
26859SOL    HW182474   6.969   3.280   1.420
26859SOL    HW282475   6.929   3.423   1.449
26860SOL     OW82476   7.912  13.159  11.099
26860SOL    HW182477   7.997  13.118  11.115
26860SOL    HW282478   7.848  13.091  11.120
26861SOL     OW82479  14.085   5.453   2.094
26861SOL    HW182480  14.087   5.485   2.004
26861SOL    HW282481  14.029   5.376   2.090
26862SOL     OW82482   2.035   5.605   1.147
26862SOL    HW182483   2.005   5.635   1.062
26862SOL    HW282484   2.102   5.539   1.127
26863SOL     OW82485   3.741   6.574   5.916
26863SOL    HW182486   3.829   6.606   5.937
26863SOL    HW282487   3.694   6.577   5.999
26864SOL     OW82488   3.492   8.413   1.349
26864SOL    HW182489   3.576   8.416   1.303
26864SOL    HW282490   3.484   8.322   1.378
26865SOL     OW82491  13.813  10.653   8.954
26865SOL    HW182492  13.812  10.737   8.909
26865SOL    HW282493  13.906  10.636   8.969
26866SOL     OW82494   6.362   4.291   8.483
26866SOL    HW182495   6.280   4.253   8.453
26866SOL    HW282496   6.416   4.216   8.508
26867SOL     OW82497  10.936   7.498  13.824
26867SOL    HW182498  10.975   7.439  13.759
26867SOL    HW282499  11.010   7.550  13.856
26868SOL     OW82500   0.505   6.607   8.413
26868SOL    HW182501   0.539   6.696   8.421
26868SOL    HW282502   0.429   6.615   8.356
26869SOL     OW82503   9.252  14.406   7.296
26869SOL    HW182504   9.277  14.391   7.388
26869SOL    HW282505   9.228  14.319   7.264
26870SOL     OW82506   3.451   0.574  13.746
26870SOL    HW182507   3.451   0.509  13.676
26870SOL    HW282508   3.469   0.523  13.825
26871SOL     OW82509  11.684   6.025   6.938
26871SOL    HW182510  11.690   6.119   6.919
26871SOL    HW282511  11.593   6.003   6.919
26872SOL     OW82512   3.984   8.963  14.155
26872SOL    HW182513   4.046   9.025  14.193
26872SOL    HW282514   4.038   8.887  14.131
26873SOL     OW82515   6.821   7.087  12.257
26873SOL    HW182516   6.743   7.141  12.240
26873SOL    HW282517   6.800   7.038  12.336
26874SOL     OW82518   0.916  10.450  10.458
26874SOL    HW182519   0.833  10.495  10.474
26874SOL    HW282520   0.968  10.465  10.537
26875SOL     OW82521  13.574   6.745   9.231
26875SOL    HW182522  13.582   6.714   9.141
26875SOL    HW282523  13.664   6.749   9.263
26876SOL     OW82524   3.077   7.312   7.799
26876SOL    HW182525   3.171   7.295   7.809
26876SOL    HW282526   3.041   7.230   7.766
26877SOL     OW82527  11.152   6.438   3.754
26877SOL    HW182528  11.208   6.367   3.723
26877SOL    HW282529  11.198   6.518   3.728
26878SOL     OW82530   9.408   2.508   6.263
26878SOL    HW182531   9.371   2.438   6.209
26878SOL    HW282532   9.501   2.507   6.243
26879SOL     OW82533  11.664  11.225   2.969
26879SOL    HW182534  11.752  11.196   2.945
26879SOL    HW282535  11.637  11.283   2.898
26880SOL     OW82536  12.140   2.234   3.374
26880SOL    HW182537  12.118   2.255   3.465
26880SOL    HW282538  12.222   2.185   3.380
26881SOL     OW82539   5.589   3.409  13.838
26881SOL    HW182540   5.673   3.420  13.883
26881SOL    HW282541   5.526   3.397  13.909
26882SOL     OW82542   2.717  12.835  11.717
26882SOL    HW182543   2.748  12.908  11.770
26882SOL    HW282544   2.622  12.841  11.719
26883SOL     OW82545   7.154   7.389  12.516
26883SOL    HW182546   7.073   7.363  12.561
26883SOL    HW282547   7.140   7.481  12.493
26884SOL     OW82548   1.156   2.752  10.429
26884SOL    HW182549   1.081   2.811  10.432
26884SOL    HW282550   1.228   2.804  10.392
26885SOL     OW82551  11.010   7.420   2.936
26885SOL    HW182552  10.988   7.512   2.947
26885SOL    HW282553  10.962   7.393   2.858
26886SOL     OW82554  11.735   0.378   6.320
26886SOL    HW182555  11.741   0.431   6.241
26886SOL    HW282556  11.793   0.421   6.383
26887SOL     OW82557   2.214   0.208  11.259
26887SOL    HW182558   2.221   0.113  11.263
26887SOL    HW282559   2.295   0.240  11.297
26888SOL     OW82560   4.296   3.248   9.176
26888SOL    HW182561   4.379   3.257   9.223
26888SOL    HW282562   4.238   3.311   9.217
26889SOL     OW82563  10.059  14.247   7.173
26889SOL    HW182564  10.136  14.215   7.219
26889SOL    HW282565  10.025  14.317   7.228
26890SOL     OW82566   6.189  12.411   3.763
26890SOL    HW182567   6.234  12.434   3.682
26890SOL    HW282568   6.259  12.398   3.827
26891SOL     OW82569  12.913   7.110   2.539
26891SOL    HW182570  12.929   7.204   2.551
26891SOL    HW282571  12.924   7.073   2.626
26892SOL     OW82572   0.272   0.305  12.028
26892SOL    HW182573   0.294   0.221  11.988
26892SOL    HW282574   0.349   0.328  12.080
26893SOL     OW82575   9.138   9.464  11.204
26893SOL    HW182576   9.125   9.541  11.260
26893SOL    HW282577   9.054   9.454  11.157
26894SOL     OW82578   6.189  11.627   2.548
26894SOL    HW182579   6.136  11.587   2.618
26894SOL    HW282580   6.134  11.696   2.513
26895SOL     OW82581   3.285   9.201   4.863
26895SOL    HW182582   3.274   9.278   4.918
26895SOL    HW282583   3.238   9.132   4.909
26896SOL     OW82584  12.190   3.839  11.252
26896SOL    HW182585  12.191   3.770  11.185
26896SOL    HW282586  12.177   3.920  11.203
26897SOL     OW82587   7.854  10.810   3.244
26897SOL    HW182588   7.854  10.862   3.164
26897SOL    HW282589   7.942  10.820   3.279
26898SOL     OW82590  13.361   1.178   6.433
26898SOL    HW182591  13.372   1.245   6.365
26898SOL    HW282592  13.398   1.218   6.512
26899SOL     OW82593   7.435   3.745  10.398
26899SOL    HW182594   7.515   3.793  10.374
26899SOL    HW282595   7.467   3.665  10.439
26900SOL     OW82596  12.827   8.892   8.685
26900SOL    HW182597  12.802   8.802   8.703
26900SOL    HW282598  12.744   8.939   8.675
26901SOL     OW82599  12.561  10.238   0.060
26901SOL    HW182600  12.651  10.253   0.031
26901SOL    HW282601  12.569  10.170   0.128
26902SOL     OW82602  10.731   3.150  11.923
26902SOL    HW182603  10.784   3.166  12.002
26902SOL    HW282604  10.665   3.220  11.924
26903SOL     OW82605   4.226   1.317   0.502
26903SOL    HW182606   4.246   1.305   0.595
26903SOL    HW282607   4.133   1.340   0.501
26904SOL     OW82608   5.379   5.182   2.299
26904SOL    HW182609   5.342   5.259   2.343
26904SOL    HW282610   5.440   5.145   2.363
26905SOL     OW82611   7.048   1.169   0.529
26905SOL    HW182612   7.074   1.079   0.508
26905SOL    HW282613   7.018   1.205   0.446
26906SOL     OW82614   1.150  13.857   4.083
26906SOL    HW182615   1.182  13.940   4.049
26906SOL    HW282616   1.227  13.799   4.083
26907SOL     OW82617   9.600   6.035   1.627
26907SOL    HW182618   9.592   6.122   1.665
26907SOL    HW282619   9.550   5.978   1.685
26908SOL     OW82620  10.601   8.172   8.219
26908SOL    HW182621  10.659   8.185   8.144
26908SOL    HW282622  10.587   8.078   8.224
26909SOL     OW82623   0.013   2.437  14.144
26909SOL    HW182624   0.058   2.354  14.158
26909SOL    HW282625  14.845   2.459  14.229
26910SOL     OW82626   9.760  12.349   9.107
26910SOL    HW182627   9.709  12.269   9.093
26910SOL    HW282628   9.736  12.407   9.036
26911SOL     OW82629   0.966  13.416   2.247
26911SOL    HW182630   0.981  13.330   2.286
26911SOL    HW282631   1.011  13.477   2.306
26912SOL     OW82632   6.546   5.105  12.939
26912SOL    HW182633   6.523   5.100  13.032
26912SOL    HW282634   6.577   5.017  12.918
26913SOL     OW82635   5.455  14.409   3.741
26913SOL    HW182636   5.526  14.344   3.734
26913SOL    HW282637   5.415  14.410   3.654
26914SOL     OW82638   9.428   5.169   4.920
26914SOL    HW182639   9.356   5.119   4.882
26914SOL    HW282640   9.386   5.238   4.972
26915SOL     OW82641  10.568   9.798  11.070
26915SOL    HW182642  10.548   9.748  10.991
26915SOL    HW282643  10.651   9.842  11.050
26916SOL     OW82644   3.909  10.498   1.213
26916SOL    HW182645   3.824  10.495   1.170
26916SOL    HW282646   3.968  10.452   1.153
26917SOL     OW82647  11.127   5.674   2.960
26917SOL    HW182648  11.166   5.686   2.873
26917SOL    HW282649  11.163   5.592   2.991
26918SOL     OW82650  12.820  13.081  13.196
26918SOL    HW182651  12.843  13.128  13.116
26918SOL    HW282652  12.865  12.996  13.188
26919SOL     OW82653  12.042  12.642   2.752
26919SOL    HW182654  12.048  12.695   2.672
26919SOL    HW282655  11.993  12.697   2.813
26920SOL     OW82656   3.068   1.076  10.450
26920SOL    HW182657   3.048   0.984  10.435
26920SOL    HW282658   3.064   1.086  10.545
26921SOL     OW82659   2.691   4.602   3.330
26921SOL    HW182660   2.614   4.589   3.386
26921SOL    HW282661   2.654   4.622   3.243
26922SOL     OW82662   3.974   9.077  13.558
26922SOL    HW182663   4.016   9.102  13.475
26922SOL    HW282664   4.020   8.998  13.585
26923SOL     OW82665   5.990   0.561  10.879
26923SOL    HW182666   5.926   0.502  10.841
26923SOL    HW282667   6.075   0.526  10.852
26924SOL     OW82668  12.919   8.109  12.858
26924SOL    HW182669  12.867   8.052  12.803
26924SOL    HW282670  12.970   8.050  12.913
26925SOL     OW82671   3.128   7.368  12.244
26925SOL    HW182672   3.050   7.369  12.190
26925SOL    HW282673   3.190   7.311  12.197
26926SOL     OW82674  14.306   1.569   1.308
26926SOL    HW182675  14.235   1.624   1.274
26926SOL    HW282676  14.343   1.528   1.230
26927SOL     OW82677   7.063   5.191   1.437
26927SOL    HW182678   6.977   5.156   1.458
26927SOL    HW282679   7.046   5.273   1.390
26928SOL     OW82680   7.810  13.751   4.348
26928SOL    HW182681   7.883  13.795   4.304
26928SOL    HW282682   7.737  13.813   4.342
26929SOL     OW82683   5.776   1.624   2.155
26929SOL    HW182684   5.714   1.681   2.199
26929SOL    HW282685   5.845   1.609   2.219
26930SOL     OW82686  10.559   6.887  14.844
26930SOL    HW182687  10.484   6.873  14.786
26930SOL    HW282688  10.555   6.815   0.036
26931SOL     OW82689  11.182   5.366   4.549
26931SOL    HW182690  11.231   5.284   4.554
26931SOL    HW282691  11.155   5.371   4.457
26932SOL     OW82692   9.785  14.495   0.619
26932SOL    HW182693   9.707  14.474   0.567
26932SOL    HW282694   9.799  14.588   0.606
26933SOL     OW82695  11.233  13.300   8.550
26933SOL    HW182696  11.176  13.236   8.593
26933SOL    HW282697  11.286  13.336   8.621
26934SOL     OW82698   4.963  11.823   7.846
26934SOL    HW182699   5.006  11.887   7.789
26934SOL    HW282700   4.871  11.824   7.817
26935SOL     OW82701   1.316   2.958  14.524
26935SOL    HW182702   1.266   3.032  14.489
26935SOL    HW282703   1.335   2.983  14.615
26936SOL     OW82704  11.681   3.672   1.342
26936SOL    HW182705  11.589   3.645   1.334
26936SOL    HW282706  11.678   3.759   1.380
26937SOL     OW82707  13.679   8.642   8.145
26937SOL    HW182708  13.675   8.652   8.050
26937SOL    HW282709  13.727   8.720   8.175
26938SOL     OW82710   9.598   2.043  14.207
26938SOL    HW182711   9.568   1.970  14.154
26938SOL    HW282712   9.532   2.052  14.276
26939SOL     OW82713   6.350  13.813   7.154
26939SOL    HW182714   6.358  13.908   7.158
26939SOL    HW282715   6.325  13.787   7.243
26940SOL     OW82716  14.429   1.190  11.856
26940SOL    HW182717  14.368   1.241  11.802
26940SOL    HW282718  14.440   1.244  11.935
26941SOL     OW82719   9.547   9.553   7.861
26941SOL    HW182720   9.506   9.637   7.881
26941SOL    HW282721   9.585   9.525   7.944
26942SOL     OW82722  11.187   6.799   6.543
26942SOL    HW182723  11.162   6.833   6.456
26942SOL    HW282724  11.282   6.810   6.547
26943SOL     OW82725   8.650  13.157  11.631
26943SOL    HW182726   8.741  13.141  11.604
26943SOL    HW282727   8.655  13.162  11.727
26944SOL     OW82728   2.758   5.764   6.542
26944SOL    HW182729   2.804   5.843   6.572
26944SOL    HW282730   2.693   5.797   6.479
26945SOL     OW82731   3.077  13.573   2.895
26945SOL    HW182732   3.057  13.625   2.817
26945SOL    HW282733   3.098  13.486   2.861
26946SOL     OW82734   2.017   2.367   6.763
26946SOL    HW182735   2.071   2.413   6.827
26946SOL    HW282736   2.041   2.275   6.772
26947SOL     OW82737   3.159   4.209   5.373
26947SOL    HW182738   3.249   4.217   5.343
26947SOL    HW282739   3.124   4.299   5.368
26948SOL     OW82740  11.885  14.866   4.738
26948SOL    HW182741  11.826  14.819   4.796
26948SOL    HW282742  11.972  14.837   4.764
26949SOL     OW82743  14.054   3.438  10.393
26949SOL    HW182744  13.985   3.499  10.366
26949SOL    HW282745  14.055   3.372  10.324
26950SOL     OW82746   1.717  11.779   7.077
26950SOL    HW182747   1.738  11.727   6.999
26950SOL    HW282748   1.801  11.809   7.110
26951SOL     OW82749  11.264   3.868   4.359
26951SOL    HW182750  11.294   3.819   4.435
26951SOL    HW282751  11.265   3.960   4.387
26952SOL     OW82752   2.872   0.349  11.481
26952SOL    HW182753   2.802   0.292  11.512
26952SOL    HW282754   2.937   0.290  11.445
26953SOL     OW82755  12.491  12.373  13.782
26953SOL    HW182756  12.441  12.443  13.741
26953SOL    HW282757  12.581  12.407  13.788
26954SOL     OW82758   0.558   8.837   2.734
26954SOL    HW182759   0.550   8.905   2.667
26954SOL    HW282760   0.595   8.762   2.687
26955SOL     OW82761  10.590  13.244   5.209
26955SOL    HW182762  10.598  13.233   5.115
26955SOL    HW282763  10.674  13.281   5.236
26956SOL     OW82764  11.735   9.068  14.090
26956SOL    HW182765  11.744   9.128  14.164
26956SOL    HW282766  11.823   9.031  14.080
26957SOL     OW82767   3.667   7.353  12.031
26957SOL    HW182768   3.581   7.346  11.990
26957SOL    HW282769   3.663   7.435  12.081
26958SOL     OW82770   1.244   1.577   8.500
26958SOL    HW182771   1.189   1.600   8.425
26958SOL    HW282772   1.195   1.607   8.576
26959SOL     OW82773   7.102   1.361  11.536
26959SOL    HW182774   7.053   1.392  11.460
26959SOL    HW282775   7.188   1.403  11.528
26960SOL     OW82776  11.991  11.197   8.514
26960SOL    HW182777  12.062  11.162   8.460
26960SOL    HW282778  12.035  11.250   8.581
26961SOL     OW82779  14.536   8.631  10.781
26961SOL    HW182780  14.553   8.537  10.783
26961SOL    HW282781  14.474   8.642  10.709
26962SOL     OW82782   0.555  14.408   7.991
26962SOL    HW182783   0.519  14.461   7.920
26962SOL    HW282784   0.574  14.323   7.950
26963SOL     OW82785   4.787   3.699   1.452
26963SOL    HW182786   4.721   3.633   1.431
26963SOL    HW282787   4.768   3.771   1.391
26964SOL     OW82788  11.645  12.903   9.526
26964SOL    HW182789  11.656  12.887   9.619
26964SOL    HW282790  11.570  12.850   9.500
26965SOL     OW82791   3.922   6.601   5.082
26965SOL    HW182792   3.978   6.672   5.053
26965SOL    HW282793   3.927   6.536   5.011
26966SOL     OW82794   8.449   6.740   6.456
26966SOL    HW182795   8.469   6.655   6.419
26966SOL    HW282796   8.355   6.750   6.444
26967SOL     OW82797  11.558   4.911  11.312
26967SOL    HW182798  11.650   4.936  11.305
26967SOL    HW282799  11.536   4.877  11.225
26968SOL     OW82800   0.380   0.011  11.779
26968SOL    HW182801   0.466   0.051  11.768
26968SOL    HW282802   0.355  14.853  11.691
26969SOL     OW82803   8.955   6.351   7.087
26969SOL    HW182804   8.941   6.407   7.010
26969SOL    HW282805   9.012   6.282   7.056
26970SOL     OW82806  13.202   7.793   8.913
26970SOL    HW182807  13.262   7.746   8.855
26970SOL    HW282808  13.252   7.807   8.994
26971SOL     OW82809   9.779   2.583  14.519
26971SOL    HW182810   9.863   2.542  14.498
26971SOL    HW282811   9.784   2.670  14.478
26972SOL     OW82812   1.886   4.784   1.183
26972SOL    HW182813   1.857   4.782   1.092
26972SOL    HW282814   1.814   4.826   1.231
26973SOL     OW82815  12.102  10.039   8.009
26973SOL    HW182816  12.068   9.949   8.014
26973SOL    HW282817  12.100  10.061   7.916
26974SOL     OW82818   0.360  10.645   0.571
26974SOL    HW182819   0.282  10.623   0.521
26974SOL    HW282820   0.426  10.669   0.506
26975SOL     OW82821  14.608   3.797   9.742
26975SOL    HW182822  14.590   3.710   9.780
26975SOL    HW282823  14.539   3.810   9.678
26976SOL     OW82824  10.758   7.629  13.063
26976SOL    HW182825  10.819   7.609  12.993
26976SOL    HW282826  10.786   7.573  13.136
26977SOL     OW82827   5.571   9.194   2.689
26977SOL    HW182828   5.633   9.258   2.653
26977SOL    HW282829   5.587   9.197   2.784
26978SOL     OW82830   3.764  11.902  11.340
26978SOL    HW182831   3.782  11.953  11.419
26978SOL    HW282832   3.791  11.958  11.268
26979SOL     OW82833   0.333   3.994   1.437
26979SOL    HW182834   0.330   4.077   1.390
26979SOL    HW282835   0.325   4.019   1.529
26980SOL     OW82836  10.053   9.197   2.095
26980SOL    HW182837  10.128   9.254   2.079
26980SOL    HW282838  10.013   9.233   2.175
26981SOL     OW82839   9.309   1.622   2.413
26981SOL    HW182840   9.377   1.556   2.428
26981SOL    HW282841   9.353   1.706   2.431
26982SOL     OW82842  14.865  10.115  11.229
26982SOL    HW182843  14.820  10.130  11.146
26982SOL    HW282844  14.805  10.062  11.280
26983SOL     OW82845  13.811   2.443   0.961
26983SOL    HW182846  13.776   2.376   0.902
26983SOL    HW282847  13.876   2.397   1.014
26984SOL     OW82848  13.962   5.837   2.889
26984SOL    HW182849  13.873   5.871   2.896
26984SOL    HW282850  13.950   5.746   2.859
26985SOL     OW82851   9.045   7.610  14.580
26985SOL    HW182852   9.056   7.520  14.551
26985SOL    HW282853   9.044   7.605  14.675
26986SOL     OW82854   3.295   5.643  10.917
26986SOL    HW182855   3.313   5.658  10.824
26986SOL    HW282856   3.224   5.579  10.918
26987SOL     OW82857   1.664   3.964  11.655
26987SOL    HW182858   1.697   3.875  11.668
26987SOL    HW282859   1.627   3.963  11.567
26988SOL     OW82860   9.159   3.347  12.054
26988SOL    HW182861   9.098   3.276  12.075
26988SOL    HW282862   9.112   3.400  11.990
26989SOL     OW82863   8.348   1.333  13.059
26989SOL    HW182864   8.319   1.248  13.026
26989SOL    HW282865   8.443   1.324  13.069
26990SOL     OW82866   8.589   5.805  10.267
26990SOL    HW182867   8.620   5.820  10.357
26990SOL    HW282868   8.565   5.712  10.264
26991SOL     OW82869   4.289   3.929   2.496
26991SOL    HW182870   4.226   3.937   2.425
26991SOL    HW282871   4.235   3.920   2.575
26992SOL     OW82872  10.406  12.938   1.177
26992SOL    HW182873  10.316  12.907   1.172
26992SOL    HW282874  10.421  12.983   1.094
26993SOL     OW82875   9.037   9.653  10.501
26993SOL    HW182876   8.942   9.643  10.495
26993SOL    HW282877   9.049   9.746  10.519
26994SOL     OW82878  10.198   0.433   9.071
26994SOL    HW182879  10.286   0.396   9.071
26994SOL    HW282880  10.140   0.356   9.069
26995SOL     OW82881  12.529   9.115   3.417
26995SOL    HW182882  12.504   9.028   3.447
26995SOL    HW282883  12.621   9.106   3.391
26996SOL     OW82884   0.568   0.252   6.422
26996SOL    HW182885   0.483   0.296   6.420
26996SOL    HW282886   0.592   0.244   6.330
26997SOL     OW82887   0.597  10.963  11.145
26997SOL    HW182888   0.671  10.923  11.100
26997SOL    HW282889   0.543  11.000  11.075
26998SOL     OW82890   3.289   0.574   6.274
26998SOL    HW182891   3.283   0.669   6.274
26998SOL    HW282892   3.305   0.551   6.365
26999SOL     OW82893  14.158   2.987   3.593
26999SOL    HW182894  14.171   2.997   3.687
26999SOL    HW282895  14.089   3.049   3.571
27000SOL     OW82896  14.329   1.825   9.347
27000SOL    HW182897  14.331   1.921   9.345
27000SOL    HW282898  14.239   1.802   9.326
27001SOL     OW82899   3.872   8.231  12.411
27001SOL    HW182900   3.947   8.206  12.465
27001SOL    HW282901   3.831   8.147  12.388
27002SOL     OW82902   1.178   9.959   1.116
27002SOL    HW182903   1.195   9.994   1.203
27002SOL    HW282904   1.255   9.984   1.065
27003SOL     OW82905  13.296   4.880   1.945
27003SOL    HW182906  13.336   4.872   1.858
27003SOL    HW282907  13.227   4.814   1.946
27004SOL     OW82908  11.830  14.672  13.437
27004SOL    HW182909  11.894  14.667  13.366
27004SOL    HW282910  11.751  14.708  13.397
27005SOL     OW82911   3.369   3.774   7.965
27005SOL    HW182912   3.278   3.746   7.975
27005SOL    HW282913   3.411   3.702   7.917
27006SOL     OW82914  10.299   3.118   1.414
27006SOL    HW182915  10.236   3.140   1.483
27006SOL    HW282916  10.318   3.201   1.371
27007SOL     OW82917   7.306   0.370  13.056
27007SOL    HW182918   7.229   0.409  13.016
27007SOL    HW282919   7.276   0.285  13.088
27008SOL     OW82920  11.047   4.131   1.924
27008SOL    HW182921  11.080   4.204   1.871
27008SOL    HW282922  11.056   4.055   1.867
27009SOL     OW82923   5.576   5.049   3.191
27009SOL    HW182924   5.583   5.047   3.286
27009SOL    HW282925   5.642   4.988   3.160
27010SOL     OW82926   6.740  13.417   3.293
27010SOL    HW182927   6.729  13.334   3.338
27010SOL    HW282928   6.801  13.397   3.222
27011SOL     OW82929   6.433   2.499   2.815
27011SOL    HW182930   6.494   2.567   2.788
27011SOL    HW282931   6.414   2.520   2.907
27012SOL     OW82932  12.644   3.548   3.147
27012SOL    HW182933  12.618   3.617   3.209
27012SOL    HW282934  12.732   3.522   3.176
27013SOL     OW82935   9.053   9.493   2.409
27013SOL    HW182936   9.019   9.513   2.497
27013SOL    HW282937   9.118   9.424   2.424
27014SOL     OW82938   3.928   8.508   8.426
27014SOL    HW182939   3.925   8.603   8.425
27014SOL    HW282940   4.018   8.486   8.447
27015SOL     OW82941   4.046   4.284   0.943
27015SOL    HW182942   4.102   4.337   1.000
27015SOL    HW282943   4.013   4.214   0.999
27016SOL     OW82944  11.098  10.405  14.409
27016SOL    HW182945  11.046  10.372  14.482
27016SOL    HW282946  11.155  10.332  14.384
27017SOL     OW82947   1.637  10.622   5.330
27017SOL    HW182948   1.714  10.581   5.369
27017SOL    HW282949   1.569  10.554   5.333
27018SOL     OW82950  11.208   1.381  13.819
27018SOL    HW182951  11.134   1.320  13.816
27018SOL    HW282952  11.275   1.334  13.867
27019SOL     OW82953   2.253   7.463   5.087
27019SOL    HW182954   2.259   7.375   5.124
27019SOL    HW282955   2.291   7.520   5.154
27020SOL     OW82956   7.331   3.281  12.165
27020SOL    HW182957   7.343   3.373  12.187
27020SOL    HW282958   7.419   3.247  12.152
27021SOL     OW82959   6.123   8.145   4.948
27021SOL    HW182960   6.173   8.219   4.915
27021SOL    HW282961   6.169   8.117   5.026
27022SOL     OW82962  13.771   4.254   4.272
27022SOL    HW182963  13.864   4.233   4.263
27022SOL    HW282964  13.769   4.336   4.321
27023SOL     OW82965   4.886  11.098   6.780
27023SOL    HW182966   4.902  11.116   6.872
27023SOL    HW282967   4.973  11.088   6.742
27024SOL     OW82968  10.251   9.356   9.126
27024SOL    HW182969  10.334   9.342   9.172
27024SOL    HW282970  10.263   9.439   9.080
27025SOL     OW82971   0.412   1.502   9.888
27025SOL    HW182972   0.369   1.587   9.899
27025SOL    HW282973   0.374   1.467   9.807
27026SOL     OW82974   7.532   7.629   6.211
27026SOL    HW182975   7.438   7.642   6.194
27026SOL    HW282976   7.554   7.698   6.274
27027SOL     OW82977   7.251  14.393   5.275
27027SOL    HW182978   7.304  14.351   5.207
27027SOL    HW282979   7.263  14.487   5.261
27028SOL     OW82980   3.406   1.416   5.584
27028SOL    HW182981   3.409   1.368   5.501
27028SOL    HW282982   3.358   1.358   5.643
27029SOL     OW82983   4.822   9.718   3.967
27029SOL    HW182984   4.840   9.805   3.930
27029SOL    HW282985   4.783   9.736   4.052
27030SOL     OW82986   7.183   2.406  11.252
27030SOL    HW182987   7.115   2.353  11.211
27030SOL    HW282988   7.261   2.390  11.199
27031SOL     OW82989   5.856  12.492  11.445
27031SOL    HW182990   5.944  12.453  11.447
27031SOL    HW282991   5.854  12.541  11.363
27032SOL     OW82992   7.856   7.370   4.978
27032SOL    HW182993   7.922   7.343   4.914
27032SOL    HW282994   7.830   7.289   5.022
27033SOL     OW82995   4.652   9.466   5.704
27033SOL    HW182996   4.628   9.374   5.706
27033SOL    HW282997   4.629   9.495   5.616
27034SOL     OW82998   2.522   9.658  14.699
27034SOL    HW182999   2.521   9.617  14.612
27034SOL    HW283000   2.615   9.678  14.714
27035SOL     OW83001   4.249  13.663  11.857
27035SOL    HW183002   4.283  13.752  11.865
27035SOL    HW283003   4.300  13.612  11.919
27036SOL     OW83004   2.269   3.996   9.964
27036SOL    HW183005   2.289   3.907   9.936
27036SOL    HW283006   2.343   4.048   9.930
27037SOL     OW83007  10.880  12.821   9.721
27037SOL    HW183008  10.795  12.813   9.764
27037SOL    HW283009  10.881  12.750   9.657
27038SOL     OW83010   8.475   3.210  11.804
27038SOL    HW183011   8.393   3.192  11.852
27038SOL    HW283012   8.537   3.146  11.839
27039SOL     OW83013   5.136   6.920  11.339
27039SOL    HW183014   5.207   6.945  11.280
27039SOL    HW283015   5.179   6.879  11.413
27040SOL     OW83016   3.750  14.436  14.494
27040SOL    HW183017   3.783  14.524  14.517
27040SOL    HW283018   3.701  14.408  14.572
27041SOL     OW83019   7.733  10.717  14.332
27041SOL    HW183020   7.756  10.635  14.288
27041SOL    HW283021   7.762  10.786  14.271
27042SOL     OW83022  12.868   8.292  10.488
27042SOL    HW183023  12.791   8.252  10.447
27042SOL    HW283024  12.853   8.280  10.582
27043SOL     OW83025   3.846   4.415   7.673
27043SOL    HW183026   3.868   4.412   7.766
27043SOL    HW283027   3.833   4.508   7.654
27044SOL     OW83028   6.578  11.431  14.094
27044SOL    HW183029   6.564  11.525  14.091
27044SOL    HW283030   6.490  11.394  14.108
27045SOL     OW83031   7.764   1.115  14.694
27045SOL    HW183032   7.770   1.051  14.764
27045SOL    HW283033   7.811   1.191  14.727
27046SOL     OW83034   4.335   4.743   6.038
27046SOL    HW183035   4.322   4.671   5.977
27046SOL    HW283036   4.387   4.807   5.989
27047SOL     OW83037  11.274  12.217   2.026
27047SOL    HW183038  11.234  12.247   2.108
27047SOL    HW283039  11.340  12.153   2.054
27048SOL     OW83040  11.767   1.675  10.976
27048SOL    HW183041  11.826   1.671  11.051
27048SOL    HW283042  11.803   1.744  10.920
27049SOL     OW83043   0.970   0.780  10.882
27049SOL    HW183044   0.913   0.853  10.858
27049SOL    HW283045   0.988   0.793  10.975
27050SOL     OW83046  13.192   0.966   3.641
27050SOL    HW183047  13.202   1.046   3.589
27050SOL    HW283048  13.255   0.905   3.604
27051SOL     OW83049   9.079   8.904  13.290
27051SOL    HW183050   9.109   8.994  13.274
27051SOL    HW283051   9.160   8.855  13.308
27052SOL     OW83052   3.964  12.892   5.936
27052SOL    HW183053   3.924  12.806   5.948
27052SOL    HW283054   4.058  12.875   5.928
27053SOL     OW83055  13.601  12.104  10.477
27053SOL    HW183056  13.595  12.019  10.433
27053SOL    HW283057  13.690  12.109  10.511
27054SOL     OW83058   7.285   0.709   5.310
27054SOL    HW183059   7.234   0.761   5.372
27054SOL    HW283060   7.222   0.681   5.244
27055SOL     OW83061  11.014   6.942   2.377
27055SOL    HW183062  11.001   6.977   2.289
27055SOL    HW283063  10.926   6.919   2.407
27056SOL     OW83064  12.085  14.777   9.627
27056SOL    HW183065  11.990  14.772   9.621
27056SOL    HW283066  12.116  14.727   9.551
27057SOL     OW83067  13.047  11.461  12.172
27057SOL    HW183068  12.977  11.395  12.182
27057SOL    HW283069  13.122  11.411  12.140
27058SOL     OW83070  14.241  13.807   2.892
27058SOL    HW183071  14.232  13.895   2.857
27058SOL    HW283072  14.183  13.753   2.839
27059SOL     OW83073   2.009  12.044   7.904
27059SOL    HW183074   2.006  12.098   7.825
27059SOL    HW283075   2.101  12.046   7.931
27060SOL     OW83076   9.828   6.768   8.436
27060SOL    HW183077   9.859   6.678   8.440
27060SOL    HW283078   9.797   6.787   8.525
27061SOL     OW83079   1.624  10.231   9.802
27061SOL    HW183080   1.658  10.159   9.855
27061SOL    HW283081   1.688  10.301   9.813
27062SOL     OW83082  11.431  12.712  11.661
27062SOL    HW183083  11.355  12.700  11.605
27062SOL    HW283084  11.396  12.706  11.750
27063SOL     OW83085   3.551   5.750   9.357
27063SOL    HW183086   3.559   5.775   9.449
27063SOL    HW283087   3.555   5.833   9.309
27064SOL     OW83088  14.860   0.692   0.208
27064SOL    HW183089  14.869   0.743   0.128
27064SOL    HW283090  14.773   0.715   0.242
27065SOL     OW83091  12.568   8.551   5.481
27065SOL    HW183092  12.483   8.594   5.481
27065SOL    HW283093  12.547   8.457   5.486
27066SOL     OW83094  14.191   7.699   5.311
27066SOL    HW183095  14.105   7.685   5.272
27066SOL    HW283096  14.189   7.648   5.393
27067SOL     OW83097   0.792   1.224  12.904
27067SOL    HW183098   0.803   1.138  12.945
27067SOL    HW283099   0.857   1.280  12.947
27068SOL     OW83100   0.756   0.254  13.415
27068SOL    HW183101   0.681   0.311  13.434
27068SOL    HW283102   0.722   0.165  13.423
27069SOL     OW83103   2.367  11.644  13.250
27069SOL    HW183104   2.401  11.555  13.260
27069SOL    HW283105   2.436  11.700  13.287
27070SOL     OW83106  10.255  10.991  11.488
27070SOL    HW183107  10.217  10.927  11.427
27070SOL    HW283108  10.215  10.971  11.572
27071SOL     OW83109   5.523   5.057   1.862
27071SOL    HW183110   5.587   5.045   1.792
27071SOL    HW283111   5.556   5.133   1.911
27072SOL     OW83112  10.329   8.726   8.216
27072SOL    HW183113  10.395   8.789   8.188
27072SOL    HW283114  10.334   8.656   8.152
27073SOL     OW83115   1.086   8.032  11.837
27073SOL    HW183116   1.098   8.049  11.743
27073SOL    HW283117   1.137   7.953  11.854
27074SOL     OW83118   8.468  11.665  13.626
27074SOL    HW183119   8.460  11.746  13.676
27074SOL    HW283120   8.471  11.692  13.535
27075SOL     OW83121  11.301   9.311   8.772
27075SOL    HW183122  11.340   9.293   8.686
27075SOL    HW283123  11.216   9.349   8.752
27076SOL     OW83124   1.763   1.760   0.337
27076SOL    HW183125   1.740   1.842   0.381
27076SOL    HW283126   1.679   1.718   0.320
27077SOL     OW83127   4.132  10.831   4.429
27077SOL    HW183128   4.102  10.847   4.340
27077SOL    HW283129   4.184  10.909   4.451
27078SOL     OW83130   0.039   5.561   3.033
27078SOL    HW183131  14.825   5.565   3.079
27078SOL    HW283132   0.086   5.488   3.074
27079SOL     OW83133   5.411   9.712   6.594
27079SOL    HW183134   5.487   9.677   6.548
27079SOL    HW283135   5.347   9.642   6.592
27080SOL     OW83136  10.988   5.565   7.678
27080SOL    HW183137  10.947   5.646   7.646
27080SOL    HW283138  10.942   5.545   7.759
27081SOL     OW83139   0.016  10.249  11.573
27081SOL    HW183140  14.824  10.180  11.547
27081SOL    HW283141  14.835  10.305  11.632
27082SOL     OW83142  12.235   3.376  10.765
27082SOL    HW183143  12.150   3.420  10.769
27082SOL    HW283144  12.299   3.446  10.779
27083SOL     OW83145  10.888  13.958   4.575
27083SOL    HW183146  10.875  14.018   4.649
27083SOL    HW283147  10.815  13.897   4.579
27084SOL     OW83148   7.822  12.386   6.803
27084SOL    HW183149   7.764  12.352   6.735
27084SOL    HW283150   7.901  12.413   6.756
27085SOL     OW83151  12.510  11.102   6.303
27085SOL    HW183152  12.568  11.054   6.244
27085SOL    HW283153  12.471  11.035   6.359
27086SOL     OW83154  10.350   1.167   5.343
27086SOL    HW183155  10.425   1.194   5.289
27086SOL    HW283156  10.305   1.102   5.289
27087SOL     OW83157   2.729  10.946   0.167
27087SOL    HW183158   2.778  11.028   0.176
27087SOL    HW283159   2.656  10.955   0.228
27088SOL     OW83160  14.025   6.326   9.069
27088SOL    HW183161  13.942   6.278   9.077
27088SOL    HW283162  14.092   6.262   9.094
27089SOL     OW83163   6.367   4.595   7.062
27089SOL    HW183164   6.352   4.572   6.970
27089SOL    HW283165   6.462   4.594   7.071
27090SOL     OW83166  13.193   5.403   2.062
27090SOL    HW183167  13.258   5.339   2.034
27090SOL    HW283168  13.109   5.366   2.034
27091SOL     OW83169  11.081   2.040  10.722
27091SOL    HW183170  11.140   2.115  10.728
27091SOL    HW283171  11.118   1.985  10.653
27092SOL     OW83172   7.151   6.882  11.318
27092SOL    HW183173   7.127   6.795  11.351
27092SOL    HW283174   7.082   6.902  11.255
27093SOL     OW83175  12.799  10.777  14.488
27093SOL    HW183176  12.857  10.820  14.550
27093SOL    HW283177  12.723  10.751  14.540
27094SOL     OW83178  10.831   3.703   8.068
27094SOL    HW183179  10.894   3.756   8.020
27094SOL    HW283180  10.822   3.748   8.152
27095SOL     OW83181   1.015   7.410   5.239
27095SOL    HW183182   0.947   7.343   5.232
27095SOL    HW283183   0.969   7.493   5.222
27096SOL     OW83184   0.234   5.517   5.229
27096SOL    HW183185   0.227   5.511   5.134
27096SOL    HW283186   0.194   5.437   5.262
27097SOL     OW83187  14.797   5.096   0.742
27097SOL    HW183188  14.760   5.008   0.745
27097SOL    HW283189  14.812   5.112   0.649
27098SOL     OW83190  11.801   2.365   8.634
27098SOL    HW183191  11.847   2.282   8.646
27098SOL    HW283192  11.866   2.424   8.596
27099SOL     OW83193   7.394   5.967   7.102
27099SOL    HW183194   7.300   5.978   7.120
27099SOL    HW283195   7.402   5.979   7.008
27100SOL     OW83196  13.744   9.358   3.085
27100SOL    HW183197  13.654   9.351   3.116
27100SOL    HW283198  13.763   9.272   3.045
27101SOL     OW83199   0.267   5.172   1.072
27101SOL    HW183200   0.255   5.263   1.098
27101SOL    HW283201   0.235   5.121   1.146
27102SOL     OW83202   3.549   4.411  13.264
27102SOL    HW183203   3.627   4.364  13.295
27102SOL    HW283204   3.545   4.490  13.319
27103SOL     OW83205   6.663   9.790  12.760
27103SOL    HW183206   6.727   9.746  12.705
27103SOL    HW283207   6.690   9.882  12.760
27104SOL     OW83208   8.771   4.272   3.033
27104SOL    HW183209   8.798   4.350   3.082
27104SOL    HW283210   8.823   4.275   2.953
27105SOL     OW83211   6.961   2.875   8.737
27105SOL    HW183212   7.026   2.812   8.705
27105SOL    HW283213   6.888   2.821   8.769
27106SOL     OW83214  13.549   7.564   9.470
27106SOL    HW183215  13.477   7.509   9.501
27106SOL    HW283216  13.557   7.542   9.377
27107SOL     OW83217  10.895   4.085   3.252
27107SOL    HW183218  10.890   4.172   3.212
27107SOL    HW283219  10.804   4.056   3.256
27108SOL     OW83220  10.080   9.437  10.476
27108SOL    HW183221  10.069   9.421  10.570
27108SOL    HW283222  10.053   9.528  10.464
27109SOL     OW83223   4.850  11.454   8.388
27109SOL    HW183224   4.930  11.403   8.383
27109SOL    HW283225   4.833  11.481   8.297
27110SOL     OW83226   2.678   3.718   0.598
27110SOL    HW183227   2.666   3.703   0.504
27110SOL    HW283228   2.665   3.632   0.638
27111SOL     OW83229   5.292   3.680   1.730
27111SOL    HW183230   5.205   3.717   1.714
27111SOL    HW283231   5.352   3.737   1.682
27112SOL     OW83232  11.607   0.834  11.613
27112SOL    HW183233  11.671   0.811  11.545
27112SOL    HW283234  11.620   0.768  11.681
27113SOL     OW83235   8.964   6.646   0.553
27113SOL    HW183236   8.992   6.601   0.473
27113SOL    HW283237   8.879   6.608   0.573
27114SOL     OW83238   4.844   5.683   1.976
27114SOL    HW183239   4.916   5.622   1.960
27114SOL    HW283240   4.776   5.628   2.015
27115SOL     OW83241   6.983   9.133   9.434
27115SOL    HW183242   7.038   9.124   9.512
27115SOL    HW283243   6.933   9.213   9.450
27116SOL     OW83244  10.704  14.765   2.673
27116SOL    HW183245  10.625  14.817   2.662
27116SOL    HW283246  10.685  14.705   2.745
27117SOL     OW83247   9.446   6.123   6.390
27117SOL    HW183248   9.401   6.164   6.316
27117SOL    HW283249   9.528   6.171   6.398
27118SOL     OW83250  11.056   9.083   4.148
27118SOL    HW183251  10.990   9.058   4.213
27118SOL    HW283252  11.071   9.003   4.098
27119SOL     OW83253   2.685   9.827  11.036
27119SOL    HW183254   2.660   9.890  10.969
27119SOL    HW283255   2.779   9.842  11.049
27120SOL     OW83256  13.175  12.296   4.933
27120SOL    HW183257  13.254  12.295   4.879
27120SOL    HW283258  13.208  12.284   5.023
27121SOL     OW83259   8.653  10.383   1.150
27121SOL    HW183260   8.654  10.410   1.242
27121SOL    HW283261   8.620  10.293   1.151
27122SOL     OW83262  14.061   1.739  10.515
27122SOL    HW183263  14.009   1.752  10.435
27122SOL    HW283264  14.148   1.770  10.493
27123SOL     OW83265   4.315   6.584  12.874
27123SOL    HW183266   4.346   6.596  12.784
27123SOL    HW283267   4.354   6.500  12.901
27124SOL     OW83268  10.696   0.511   1.859
27124SOL    HW183269  10.615   0.462   1.844
27124SOL    HW283270  10.707   0.562   1.779
27125SOL     OW83271   0.153  12.732   9.905
27125SOL    HW183272   0.097  12.692   9.838
27125SOL    HW283273   0.242  12.719   9.873
27126SOL     OW83274   3.103  13.862   3.916
27126SOL    HW183275   3.094  13.954   3.943
27126SOL    HW283276   3.180  13.831   3.963
27127SOL     OW83277  10.344   0.318   1.313
27127SOL    HW183278  10.374   0.320   1.404
27127SOL    HW283279  10.274   0.382   1.310
27128SOL     OW83280   4.893  10.401  13.929
27128SOL    HW183281   4.845  10.472  13.972
27128SOL    HW283282   4.881  10.417  13.836
27129SOL     OW83283   6.494   2.282  12.302
27129SOL    HW183284   6.480   2.333  12.223
27129SOL    HW283285   6.420   2.222  12.306
27130SOL     OW83286   2.955  11.972  14.458
27130SOL    HW183287   2.932  12.063  14.437
27130SOL    HW283288   3.019  11.979  14.529
27131SOL     OW83289  14.408   7.532   1.175
27131SOL    HW183290  14.416   7.450   1.222
27131SOL    HW283291  14.498   7.562   1.163
27132SOL     OW83292   4.694  13.914   8.018
27132SOL    HW183293   4.751  13.837   8.018
27132SOL    HW283294   4.612  13.883   8.056
27133SOL     OW83295   6.513   5.512  12.362
27133SOL    HW183296   6.529   5.588  12.419
27133SOL    HW283297   6.418   5.509  12.353
27134SOL     OW83298   7.340   2.336  11.043
27134SOL    HW183299   7.369   2.405  10.983
27134SOL    HW283300   7.400   2.263  11.026
27135SOL     OW83301  11.942  13.007  13.943
27135SOL    HW183302  11.967  13.086  13.895
27135SOL    HW283303  12.026  12.963  13.960
27136SOL     OW83304   3.814   7.075   4.009
27136SOL    HW183305   3.793   7.165   4.037
27136SOL    HW283306   3.788   7.072   3.917
27137SOL     OW83307   2.271   0.458   5.759
27137SOL    HW183308   2.305   0.414   5.681
27137SOL    HW283309   2.339   0.521   5.783
27138SOL     OW83310  14.579   6.611  12.875
27138SOL    HW183311  14.630   6.531  12.872
27138SOL    HW283312  14.606   6.660  12.798
27139SOL     OW83313  11.533   1.404  14.105
27139SOL    HW183314  11.456   1.350  14.123
27139SOL    HW283315  11.499   1.493  14.101
27140SOL     OW83316  13.159   0.324   0.819
27140SOL    HW183317  13.082   0.277   0.786
27140SOL    HW283318  13.143   0.333   0.913
27141SOL     OW83319   9.816   5.199   7.856
27141SOL    HW183320   9.734   5.246   7.839
27141SOL    HW283321   9.885   5.263   7.837
27142SOL     OW83322  14.613   8.832  14.002
27142SOL    HW183323  14.621   8.928  14.003
27142SOL    HW283324  14.656   8.805  13.921
27143SOL     OW83325   0.084  12.357  13.407
27143SOL    HW183326   0.098  12.265  13.430
27143SOL    HW283327   0.156  12.403  13.450
27144SOL     OW83328   8.331   8.003   0.576
27144SOL    HW183329   8.257   8.030   0.521
27144SOL    HW283330   8.329   8.064   0.650
27145SOL     OW83331   7.749   6.288   2.991
27145SOL    HW183332   7.693   6.211   2.994
27145SOL    HW283333   7.838   6.254   2.991
27146SOL     OW83334   9.041   8.994  12.070
27146SOL    HW183335   8.950   8.970  12.091
27146SOL    HW283336   9.092   8.957  12.142
27147SOL     OW83337   2.985   5.708  14.655
27147SOL    HW183338   3.027   5.737  14.574
27147SOL    HW283339   3.058   5.678  14.709
27148SOL     OW83340   6.437   3.758  10.335
27148SOL    HW183341   6.390   3.839  10.355
27148SOL    HW283342   6.494   3.743  10.411
27149SOL     OW83343   8.756   1.107  11.343
27149SOL    HW183344   8.786   1.176  11.284
27149SOL    HW283345   8.825   1.041  11.339
27150SOL     OW83346   0.578   0.945   6.882
27150SOL    HW183347   0.659   0.972   6.839
27150SOL    HW283348   0.532   1.028   6.899
27151SOL     OW83349   5.293   8.843   8.448
27151SOL    HW183350   5.350   8.854   8.372
27151SOL    HW283351   5.313   8.916   8.505
27152SOL     OW83352   7.356   1.117   0.205
27152SOL    HW183353   7.329   1.208   0.191
27152SOL    HW283354   7.315   1.092   0.287
27153SOL     OW83355  12.701  13.381  10.848
27153SOL    HW183356  12.639  13.319  10.807
27153SOL    HW283357  12.649  13.460  10.863
27154SOL     OW83358   3.045  12.383   0.524
27154SOL    HW183359   3.028  12.371   0.430
27154SOL    HW283360   2.958  12.384   0.564
27155SOL     OW83361   8.908  12.331   9.347
27155SOL    HW183362   8.819  12.361   9.326
27155SOL    HW283363   8.933  12.275   9.274
27156SOL     OW83364   9.543  13.015  12.045
27156SOL    HW183365   9.568  13.028  12.136
27156SOL    HW283366   9.625  13.024  11.996
27157SOL     OW83367  12.517   8.153   6.995
27157SOL    HW183368  12.465   8.225   7.030
27157SOL    HW283369  12.581   8.194   6.937
27158SOL     OW83370   3.802   1.458   8.556
27158SOL    HW183371   3.797   1.413   8.641
27158SOL    HW283372   3.894   1.483   8.548
27159SOL     OW83373  14.764  14.111   7.276
27159SOL    HW183374  14.743  14.018   7.287
27159SOL    HW283375  14.690  14.147   7.228
27160SOL     OW83376   4.475   3.789  13.174
27160SOL    HW183377   4.509   3.871  13.138
27160SOL    HW283378   4.394   3.813  13.218
27161SOL     OW83379  12.394   5.566  11.976
27161SOL    HW183380  12.487   5.543  11.965
27161SOL    HW283381  12.359   5.496  12.031
27162SOL     OW83382   7.496   2.622   1.273
27162SOL    HW183383   7.569   2.614   1.212
27162SOL    HW283384   7.526   2.578   1.353
27163SOL     OW83385   6.471   8.176  10.709
27163SOL    HW183386   6.535   8.118  10.750
27163SOL    HW283387   6.503   8.265  10.729
27164SOL     OW83388   3.646   5.184  10.823
27164SOL    HW183389   3.590   5.108  10.816
27164SOL    HW283390   3.731   5.149  10.850
27165SOL     OW83391  10.436   3.848   6.544
27165SOL    HW183392  10.427   3.876   6.453
27165SOL    HW283393  10.464   3.757   6.539
27166SOL     OW83394   3.573   7.732   7.061
27166SOL    HW183395   3.564   7.825   7.040
27166SOL    HW283396   3.513   7.719   7.135
27167SOL     OW83397  11.894   1.006   9.668
27167SOL    HW183398  11.890   0.918   9.630
27167SOL    HW283399  11.911   1.063   9.593
27168SOL     OW83400  10.476   1.881  10.937
27168SOL    HW183401  10.522   1.965  10.932
27168SOL    HW283402  10.537   1.818  10.900
27169SOL     OW83403   3.141   8.452   3.927
27169SOL    HW183404   3.191   8.531   3.949
27169SOL    HW283405   3.177   8.423   3.844
27170SOL     OW83406  14.439   9.832   9.535
27170SOL    HW183407  14.494   9.838   9.613
27170SOL    HW283408  14.438   9.921   9.499
27171SOL     OW83409   7.414  13.468   9.936
27171SOL    HW183410   7.398  13.373   9.936
27171SOL    HW283411   7.347  13.504   9.878
27172SOL     OW83412   7.372   2.472   6.032
27172SOL    HW183413   7.388   2.397   6.089
27172SOL    HW283414   7.398   2.442   5.945
27173SOL     OW83415  14.224  12.415   4.741
27173SOL    HW183416  14.284  12.485   4.715
27173SOL    HW283417  14.281  12.348   4.778
27174SOL     OW83418  10.452   5.953   7.464
27174SOL    HW183419  10.516   5.991   7.405
27174SOL    HW283420  10.398   6.026   7.492
27175SOL     OW83421  11.668   0.400   7.829
27175SOL    HW183422  11.656   0.467   7.763
27175SOL    HW283423  11.694   0.322   7.779
27176SOL     OW83424   2.800   5.708   0.513
27176SOL    HW183425   2.728   5.670   0.564
27176SOL    HW283426   2.772   5.799   0.497
27177SOL     OW83427   1.146  10.994   2.780
27177SOL    HW183428   1.106  10.907   2.783
27177SOL    HW283429   1.096  11.040   2.712
27178SOL     OW83430   8.268   2.454   7.161
27178SOL    HW183431   8.258   2.536   7.211
27178SOL    HW283432   8.179   2.423   7.147
27179SOL     OW83433   4.683   6.125   8.450
27179SOL    HW183434   4.747   6.099   8.384
27179SOL    HW283435   4.710   6.213   8.476
27180SOL     OW83436   2.405   2.988   3.474
27180SOL    HW183437   2.477   2.993   3.537
27180SOL    HW283438   2.331   2.955   3.526
27181SOL     OW83439   1.965   3.633   5.801
27181SOL    HW183440   1.911   3.679   5.737
27181SOL    HW283441   1.931   3.663   5.886
27182SOL     OW83442  11.526   2.209   7.486
27182SOL    HW183443  11.603   2.257   7.519
27182SOL    HW283444  11.546   2.117   7.505
27183SOL     OW83445  13.351  14.845  14.116
27183SOL    HW183446  13.267   0.018  14.128
27183SOL    HW283447  13.362  14.840  14.021
27184SOL     OW83448   0.112  13.012   9.476
27184SOL    HW183449   0.204  13.013   9.503
27184SOL    HW283450   0.065  13.050   9.551
27185SOL     OW83451   4.076  13.309   4.929
27185SOL    HW183452   4.141  13.335   4.864
27185SOL    HW283453   4.043  13.391   4.966
27186SOL     OW83454   0.311  11.772   4.558
27186SOL    HW183455   0.292  11.792   4.466
27186SOL    HW283456   0.226  11.748   4.595
27187SOL     OW83457  12.652  14.736   0.050
27187SOL    HW183458  12.724  14.768   0.104
27187SOL    HW283459  12.601  14.814   0.029
27188SOL     OW83460  10.417   4.017   2.198
27188SOL    HW183461  10.345   3.964   2.234
27188SOL    HW283462  10.388   4.107   2.210
27189SOL     OW83463   6.020  11.141  12.639
27189SOL    HW183464   5.927  11.139  12.614
27189SOL    HW283465   6.063  11.189  12.568
27190SOL     OW83466   2.866   2.284   6.129
27190SOL    HW183467   2.916   2.205   6.112
27190SOL    HW283468   2.787   2.254   6.175
27191SOL     OW83469  13.119  13.584  11.642
27191SOL    HW183470  13.152  13.580  11.553
27191SOL    HW283471  13.036  13.632  11.635
27192SOL     OW83472   3.235   6.061   6.163
27192SOL    HW183473   3.252   6.035   6.072
27192SOL    HW283474   3.307   6.021   6.212
27193SOL     OW83475   5.097   8.589   4.026
27193SOL    HW183476   5.054   8.512   4.065
27193SOL    HW283477   5.093   8.655   4.095
27194SOL     OW83478  13.211  10.586  14.868
27194SOL    HW183479  13.274  10.568   0.068
27194SOL    HW283480  13.151  10.511   0.001
27195SOL     OW83481   5.115   3.888   6.323
27195SOL    HW183482   5.030   3.870   6.282
27195SOL    HW283483   5.168   3.811   6.303
27196SOL     OW83484   5.148  13.406   0.722
27196SOL    HW183485   5.100  13.384   0.642
27196SOL    HW283486   5.149  13.323   0.771
27197SOL     OW83487  11.963  12.337   8.200
27197SOL    HW183488  12.039  12.393   8.217
27197SOL    HW283489  11.918  12.380   8.128
27198SOL     OW83490  14.603   5.606  11.544
27198SOL    HW183491  14.619   5.679  11.485
27198SOL    HW283492  14.599   5.646  11.631
27199SOL     OW83493  13.158   6.762   3.372
27199SOL    HW183494  13.188   6.738   3.459
27199SOL    HW283495  13.237   6.788   3.325
27200SOL     OW83496   5.652  11.391   9.435
27200SOL    HW183497   5.692  11.426   9.515
27200SOL    HW283498   5.587  11.457   9.410
27201SOL     OW83499  12.654   5.135  12.893
27201SOL    HW183500  12.626   5.153  12.804
27201SOL    HW283501  12.605   5.197  12.947
27202SOL     OW83502   9.362   4.785   2.377
27202SOL    HW183503   9.397   4.721   2.314
27202SOL    HW283504   9.398   4.869   2.348
27203SOL     OW83505  11.150   4.204   4.040
27203SOL    HW183506  11.134   4.267   4.111
27203SOL    HW283507  11.114   4.122   4.073
27204SOL     OW83508   4.255   2.197   8.857
27204SOL    HW183509   4.330   2.151   8.819
27204SOL    HW283510   4.226   2.256   8.788
27205SOL     OW83511   1.722   6.778   3.197
27205SOL    HW183512   1.725   6.801   3.104
27205SOL    HW283513   1.793   6.829   3.237
27206SOL     OW83514   1.075   7.661   8.407
27206SOL    HW183515   1.167   7.685   8.421
27206SOL    HW283516   1.077   7.599   8.335
27207SOL     OW83517   6.801   1.508  14.432
27207SOL    HW183518   6.719   1.470  14.402
27207SOL    HW283519   6.847   1.534  14.352
27208SOL     OW83520   2.652   3.476   7.966
27208SOL    HW183521   2.678   3.384   7.972
27208SOL    HW283522   2.632   3.488   7.873
27209SOL     OW83523   8.323   5.120  10.394
27209SOL    HW183524   8.318   5.132  10.489
27209SOL    HW283525   8.237   5.088  10.369
27210SOL     OW83526   6.484   0.651   8.280
27210SOL    HW183527   6.488   0.642   8.375
27210SOL    HW283528   6.446   0.568   8.250
27211SOL     OW83529  11.155  12.863  12.862
27211SOL    HW183530  11.207  12.786  12.884
27211SOL    HW283531  11.213  12.916  12.807
27212SOL     OW83532  11.188   2.519   3.207
27212SOL    HW183533  11.137   2.564   3.275
27212SOL    HW283534  11.259   2.580   3.186
27213SOL     OW83535  13.232   2.613   6.583
27213SOL    HW183536  13.216   2.538   6.525
27213SOL    HW283537  13.265   2.681   6.525
27214SOL     OW83538  10.429   4.922   8.359
27214SOL    HW183539  10.431   4.982   8.285
27214SOL    HW283540  10.516   4.930   8.399
27215SOL     OW83541   5.640   8.378   1.702
27215SOL    HW183542   5.580   8.329   1.645
27215SOL    HW283543   5.727   8.357   1.669
27216SOL     OW83544   7.458  11.759  14.752
27216SOL    HW183545   7.509  11.757  14.671
27216SOL    HW283546   7.481  11.843  14.793
27217SOL     OW83547  13.912   8.515   2.555
27217SOL    HW183548  13.936   8.448   2.491
27217SOL    HW283549  13.995   8.542   2.593
27218SOL     OW83550   4.414   5.060   6.319
27218SOL    HW183551   4.407   4.972   6.356
27218SOL    HW283552   4.481   5.052   6.251
27219SOL     OW83553   1.722  11.467   9.302
27219SOL    HW183554   1.797  11.414   9.276
27219SOL    HW283555   1.760  11.541   9.349
27220SOL     OW83556   0.930   3.314   7.256
27220SOL    HW183557   0.918   3.284   7.166
27220SOL    HW283558   1.024   3.327   7.265
27221SOL     OW83559   2.796  14.163   2.361
27221SOL    HW183560   2.802  14.071   2.388
27221SOL    HW283561   2.879  14.202   2.391
27222SOL     OW83562  12.221  11.478   5.938
27222SOL    HW183563  12.272  11.558   5.950
27222SOL    HW283564  12.131  11.503   5.956
27223SOL     OW83565   1.513   8.753   5.472
27223SOL    HW183566   1.516   8.808   5.394
27223SOL    HW283567   1.605   8.736   5.493
27224SOL     OW83568   3.626   4.055   5.069
27224SOL    HW183569   3.562   4.032   5.002
27224SOL    HW283570   3.652   4.145   5.048
27225SOL     OW83571   3.123   8.793   1.585
27225SOL    HW183572   3.086   8.724   1.641
27225SOL    HW283573   3.047   8.828   1.538
27226SOL     OW83574  14.048  10.386   3.958
27226SOL    HW183575  14.080  10.296   3.962
27226SOL    HW283576  14.006  10.401   4.043
27227SOL     OW83577   2.188   1.434   4.890
27227SOL    HW183578   2.219   1.380   4.963
27227SOL    HW283579   2.172   1.520   4.929
27228SOL     OW83580   3.197   2.046  11.842
27228SOL    HW183581   3.224   1.992  11.767
27228SOL    HW283582   3.241   2.006  11.917
27229SOL     OW83583  13.798   0.356   6.078
27229SOL    HW183584  13.879   0.386   6.036
27229SOL    HW283585  13.816   0.361   6.172
27230SOL     OW83586   2.724   3.434  12.600
27230SOL    HW183587   2.682   3.464  12.680
27230SOL    HW283588   2.773   3.510  12.568
27231SOL     OW83589   2.286  11.782   0.443
27231SOL    HW183590   2.216  11.788   0.377
27231SOL    HW283591   2.331  11.867   0.438
27232SOL     OW83592  14.485   7.448  13.829
27232SOL    HW183593  14.505   7.507  13.902
27232SOL    HW283594  14.570   7.413  13.803
27233SOL     OW83595   4.690   2.947   6.320
27233SOL    HW183596   4.659   2.887   6.388
27233SOL    HW283597   4.718   3.025   6.369
27234SOL     OW83598   8.158   4.698   3.503
27234SOL    HW183599   8.104   4.747   3.442
27234SOL    HW283600   8.097   4.659   3.565
27235SOL     OW83601  11.943  11.331   7.224
27235SOL    HW183602  11.901  11.259   7.177
27235SOL    HW283603  12.031  11.335   7.187
27236SOL     OW83604  10.720   5.636   9.679
27236SOL    HW183605  10.771   5.701   9.728
27236SOL    HW283606  10.783   5.599   9.616
27237SOL     OW83607   7.942   6.249   7.342
27237SOL    HW183608   7.899   6.307   7.279
27237SOL    HW283609   7.968   6.173   7.290
27238SOL     OW83610  14.854  13.362   3.714
27238SOL    HW183611  14.809  13.286   3.676
27238SOL    HW283612  14.857  13.343   3.808
27239SOL     OW83613   8.595   8.704   7.859
27239SOL    HW183614   8.565   8.666   7.776
27239SOL    HW283615   8.542   8.659   7.926
27240SOL     OW83616   7.634  14.788   3.081
27240SOL    HW183617   7.564  14.821   3.024
27240SOL    HW283618   7.599  14.707   3.117
27241SOL     OW83619  11.861  11.615  10.718
27241SOL    HW183620  11.936  11.636  10.773
27241SOL    HW283621  11.800  11.687  10.733
27242SOL     OW83622  11.150  10.312   7.425
27242SOL    HW183623  11.062  10.277   7.411
27242SOL    HW283624  11.141  10.406   7.409
27243SOL     OW83625   7.995   4.249   5.717
27243SOL    HW183626   8.063   4.310   5.745
27243SOL    HW283627   7.970   4.202   5.797
27244SOL     OW83628   4.869   9.363   4.746
27244SOL    HW183629   4.904   9.358   4.657
27244SOL    HW283630   4.897   9.449   4.778
27245SOL     OW83631   2.517   4.891   2.853
27245SOL    HW183632   2.521   4.904   2.948
27245SOL    HW283633   2.434   4.932   2.827
27246SOL     OW83634   5.113   8.172   5.199
27246SOL    HW183635   5.123   8.176   5.294
27246SOL    HW283636   5.072   8.087   5.183
27247SOL     OW83637   5.958   0.289   6.106
27247SOL    HW183638   5.940   0.201   6.073
27247SOL    HW283639   5.938   0.347   6.032
27248SOL     OW83640   4.720   7.939  12.241
27248SOL    HW183641   4.666   7.861  12.253
27248SOL    HW283642   4.716   7.957  12.147
27249SOL     OW83643  11.420   0.780   2.348
27249SOL    HW183644  11.498   0.724   2.345
27249SOL    HW283645  11.422   0.819   2.435
27250SOL     OW83646   7.677  13.223   4.647
27250SOL    HW183647   7.704  13.171   4.722
27250SOL    HW283648   7.590  13.257   4.671
27251SOL     OW83649   1.574   0.192   1.720
27251SOL    HW183650   1.550   0.250   1.792
27251SOL    HW283651   1.669   0.200   1.714
27252SOL     OW83652   1.994   9.201   8.647
27252SOL    HW183653   2.002   9.115   8.689
27252SOL    HW283654   2.015   9.263   8.717
27253SOL     OW83655   6.952   0.637   9.733
27253SOL    HW183656   6.976   0.687   9.655
27253SOL    HW283657   6.905   0.701   9.788
27254SOL     OW83658   9.436   9.133   4.948
27254SOL    HW183659   9.438   9.120   5.043
27254SOL    HW283660   9.418   9.226   4.938
27255SOL     OW83661   3.805   9.118   2.663
27255SOL    HW183662   3.734   9.132   2.600
27255SOL    HW283663   3.848   9.038   2.633
27256SOL     OW83664   0.274   2.147   9.536
27256SOL    HW183665   0.242   2.085   9.602
27256SOL    HW283666   0.289   2.228   9.585
27257SOL     OW83667  13.209   6.084   1.259
27257SOL    HW183668  13.243   6.073   1.348
27257SOL    HW283669  13.225   6.176   1.238
27258SOL     OW83670  14.707   3.429   3.108
27258SOL    HW183671  14.744   3.407   3.193
27258SOL    HW283672  14.760   3.503   3.078
27259SOL     OW83673   9.770  13.358   3.456
27259SOL    HW183674   9.764  13.288   3.522
27259SOL    HW283675   9.719  13.325   3.382
27260SOL     OW83676  14.780   1.776   9.380
27260SOL    HW183677  14.734   1.799   9.461
27260SOL    HW283678   0.003   1.783   9.402
27261SOL     OW83679  11.964   0.006  14.269
27261SOL    HW183680  11.915   0.088  14.275
27261SOL    HW283681  11.899  14.807  14.288
27262SOL     OW83682   3.718   2.549   5.071
27262SOL    HW183683   3.765   2.507   5.144
27262SOL    HW283684   3.626   2.526   5.086
27263SOL     OW83685   1.140   4.562  10.032
27263SOL    HW183686   1.105   4.633   9.977
27263SOL    HW283687   1.198   4.513   9.973
27264SOL     OW83688   4.255  12.864   3.063
27264SOL    HW183689   4.302  12.834   3.141
27264SOL    HW283690   4.186  12.799   3.050
27265SOL     OW83691  13.082   8.111   9.832
27265SOL    HW183692  13.138   8.057   9.777
27265SOL    HW283693  13.142   8.168   9.880
27266SOL     OW83694   1.547   4.479   7.594
27266SOL    HW183695   1.485   4.453   7.526
27266SOL    HW283696   1.633   4.458   7.558
27267SOL     OW83697  14.161   1.913   2.558
27267SOL    HW183698  14.201   1.920   2.645
27267SOL    HW283699  14.103   1.838   2.564
27268SOL     OW83700   8.423  13.376   8.088
27268SOL    HW183701   8.388  13.450   8.039
27268SOL    HW283702   8.481  13.415   8.153
27269SOL     OW83703   7.766   6.979   5.706
27269SOL    HW183704   7.677   6.980   5.742
27269SOL    HW283705   7.818   7.026   5.771
27270SOL     OW83706   1.128   0.655   2.442
27270SOL    HW183707   1.081   0.738   2.441
27270SOL    HW283708   1.210   0.675   2.488
27271SOL     OW83709   2.630   4.721   5.757
27271SOL    HW183710   2.644   4.670   5.677
27271SOL    HW283711   2.647   4.659   5.828
27272SOL     OW83712  13.949   1.852   6.735
27272SOL    HW183713  14.014   1.838   6.804
27272SOL    HW283714  13.865   1.843   6.780
27273SOL     OW83715  11.953  11.666   8.821
27273SOL    HW183716  11.924  11.723   8.892
27273SOL    HW283717  11.968  11.581   8.863
27274SOL     OW83718  10.060   4.273  10.924
27274SOL    HW183719  10.058   4.368  10.940
27274SOL    HW283720  10.021   4.235  11.002
27275SOL     OW83721   2.792   3.477   8.401
27275SOL    HW183722   2.879   3.516   8.396
27275SOL    HW283723   2.786   3.421   8.323
27276SOL     OW83724  10.054   4.953  12.136
27276SOL    HW183725   9.998   4.996  12.200
27276SOL    HW283726  10.115   4.902  12.188
27277SOL     OW83727  10.388   6.095   2.229
27277SOL    HW183728  10.295   6.095   2.250
27277SOL    HW283729  10.404   6.007   2.192
27278SOL     OW83730  12.442  10.920   8.980
27278SOL    HW183731  12.452  10.925   8.885
27278SOL    HW283732  12.458  10.828   9.001
27279SOL     OW83733   1.218  12.942   3.844
27279SOL    HW183734   1.279  12.869   3.849
27279SOL    HW283735   1.169  12.938   3.926
27280SOL     OW83736  11.455   6.523  12.770
27280SOL    HW183737  11.387   6.573  12.725
27280SOL    HW283738  11.502   6.588  12.823
27281SOL     OW83739   9.939   8.412   6.808
27281SOL    HW183740  10.017   8.357   6.816
27281SOL    HW283741   9.960   8.491   6.858
27282SOL     OW83742  13.082  13.628   4.006
27282SOL    HW183743  13.126  13.543   4.002
27282SOL    HW283744  13.148  13.687   4.043
27283SOL     OW83745   4.630   8.166  12.436
27283SOL    HW183746   4.617   8.079  12.473
27283SOL    HW283747   4.665   8.150  12.348
27284SOL     OW83748   6.688  12.281  10.131
27284SOL    HW183749   6.720  12.199  10.170
27284SOL    HW283750   6.684  12.263  10.037
27285SOL     OW83751   1.275   4.836   1.033
27285SOL    HW183752   1.190   4.850   1.075
27285SOL    HW283753   1.260   4.765   0.970
27286SOL     OW83754  12.361   1.477  12.962
27286SOL    HW183755  12.406   1.416  12.904
27286SOL    HW283756  12.365   1.561  12.917
27287SOL     OW83757  11.835   6.592   7.576
27287SOL    HW183758  11.797   6.644   7.505
27287SOL    HW283759  11.869   6.513   7.533
27288SOL     OW83760   0.285  14.032  14.039
27288SOL    HW183761   0.209  14.013  13.983
27288SOL    HW283762   0.311  14.121  14.015
27289SOL     OW83763  11.779  13.820  13.131
27289SOL    HW183764  11.725  13.859  13.062
27289SOL    HW283765  11.837  13.891  13.159
27290SOL     OW83766   8.944   2.402   7.748
27290SOL    HW183767   8.873   2.449   7.792
27290SOL    HW283768   9.023   2.448   7.775
27291SOL     OW83769   9.464   5.505   2.579
27291SOL    HW183770   9.454   5.580   2.520
27291SOL    HW283771   9.424   5.432   2.531
27292SOL     OW83772   3.749   2.755  12.510
27292SOL    HW183773   3.843   2.769  12.513
27292SOL    HW283774   3.729   2.702  12.587
27293SOL     OW83775   4.239   1.688   1.367
27293SOL    HW183776   4.204   1.765   1.412
27293SOL    HW283777   4.183   1.616   1.396
27294SOL     OW83778   7.617   3.602   5.778
27294SOL    HW183779   7.612   3.601   5.683
27294SOL    HW283780   7.526   3.598   5.807
27295SOL     OW83781   8.221   0.993   1.743
27295SOL    HW183782   8.189   1.018   1.656
27295SOL    HW283783   8.144   0.955   1.786
27296SOL     OW83784  12.794   4.048   1.982
27296SOL    HW183785  12.705   4.078   2.004
27296SOL    HW283786  12.822   3.999   2.059
27297SOL     OW83787   3.192   6.281   4.862
27297SOL    HW183788   3.198   6.377   4.855
27297SOL    HW283789   3.281   6.251   4.844
27298SOL     OW83790  14.766   0.726  10.381
27298SOL    HW183791  14.724   0.663  10.323
27298SOL    HW283792  14.754   0.690  10.469
27299SOL     OW83793  11.811   0.191   5.577
27299SOL    HW183794  11.869   0.266   5.575
27299SOL    HW283795  11.810   0.164   5.669
27300SOL     OW83796  14.133   1.264  11.941
27300SOL    HW183797  14.097   1.175  11.942
27300SOL    HW283798  14.148   1.285  12.034
27301SOL     OW83799  10.979   8.699   1.241
27301SOL    HW183800  11.044   8.640   1.204
27301SOL    HW283801  11.010   8.786   1.219
27302SOL     OW83802  12.153   6.205   4.830
27302SOL    HW183803  12.209   6.213   4.906
27302SOL    HW283804  12.213   6.204   4.755
27303SOL     OW83805  13.649  13.056   5.129
27303SOL    HW183806  13.660  13.091   5.217
27303SOL    HW283807  13.719  12.991   5.120
27304SOL     OW83808  14.485  11.223   5.670
27304SOL    HW183809  14.495  11.161   5.742
27304SOL    HW283810  14.560  11.282   5.678
27305SOL     OW83811   6.114   6.071   1.674
27305SOL    HW183812   6.056   6.146   1.668
27305SOL    HW283813   6.056   5.995   1.670
27306SOL     OW83814  11.828  10.682   2.514
27306SOL    HW183815  11.874  10.609   2.472
27306SOL    HW283816  11.742  10.646   2.537
27307SOL     OW83817  10.493   2.464  12.513
27307SOL    HW183818  10.532   2.550  12.528
27307SOL    HW283819  10.418   2.481  12.456
27308SOL     OW83820  13.438  10.014   7.740
27308SOL    HW183821  13.393   9.963   7.672
27308SOL    HW283822  13.416  10.105   7.719
27309SOL     OW83823   9.967   4.664   6.845
27309SOL    HW183824   9.888   4.691   6.892
27309SOL    HW283825   9.939   4.657   6.754
27310SOL     OW83826   4.340   6.456  11.497
27310SOL    HW183827   4.360   6.394  11.428
27310SOL    HW283828   4.244   6.455  11.505
27311SOL     OW83829   2.436   9.072   3.312
27311SOL    HW183830   2.526   9.104   3.312
27311SOL    HW283831   2.437   8.996   3.370
27312SOL     OW83832  13.279   9.083  14.346
27312SOL    HW183833  13.214   9.151  14.330
27312SOL    HW283834  13.227   9.004  14.361
27313SOL     OW83835  13.955   9.413  13.858
27313SOL    HW183836  13.873   9.380  13.820
27313SOL    HW283837  14.011   9.335  13.863
27314SOL     OW83838   8.710   3.337   4.589
27314SOL    HW183839   8.713   3.417   4.642
27314SOL    HW283840   8.620   3.332   4.558
27315SOL     OW83841   7.996   4.676   2.673
27315SOL    HW183842   8.001   4.739   2.601
27315SOL    HW283843   8.085   4.672   2.707
27316SOL     OW83844   8.978   9.509  11.937
27316SOL    HW183845   8.911   9.532  12.001
27316SOL    HW283846   8.941   9.534  11.853
27317SOL     OW83847  12.480   7.227   8.783
27317SOL    HW183848  12.470   7.318   8.756
27317SOL    HW283849  12.390   7.197   8.798
27318SOL     OW83850   4.811  12.436   8.573
27318SOL    HW183851   4.897  12.458   8.608
27318SOL    HW283852   4.804  12.342   8.584
27319SOL     OW83853  13.871   7.205   0.931
27319SOL    HW183854  13.907   7.128   0.886
27319SOL    HW283855  13.893   7.278   0.873
27320SOL     OW83856   8.912  10.627   0.517
27320SOL    HW183857   8.828  10.582   0.527
27320SOL    HW283858   8.898  10.713   0.555
27321SOL     OW83859  14.498   1.577  10.923
27321SOL    HW183860  14.486   1.619  10.838
27321SOL    HW283861  14.569   1.514  10.909
27322SOL     OW83862   0.633  14.808   5.418
27322SOL    HW183863   0.605   0.030   5.421
27322SOL    HW283864   0.552  14.758   5.407
27323SOL     OW83865   2.156  12.043   3.679
27323SOL    HW183866   2.136  11.975   3.614
27323SOL    HW283867   2.129  12.125   3.636
27324SOL     OW83868   1.654  10.635   8.828
27324SOL    HW183869   1.690  10.636   8.916
27324SOL    HW283870   1.673  10.721   8.792
27325SOL     OW83871   8.735   5.913   0.647
27325SOL    HW183872   8.811   5.864   0.614
27325SOL    HW283873   8.727   5.887   0.739
27326SOL     OW83874   3.182   1.439   1.036
27326SOL    HW183875   3.270   1.475   1.045
27326SOL    HW283876   3.165   1.439   0.941
27327SOL     OW83877  11.852  11.145   4.801
27327SOL    HW183878  11.918  11.188   4.854
27327SOL    HW283879  11.889  11.059   4.781
27328SOL     OW83880   7.832  12.088   3.974
27328SOL    HW183881   7.777  12.010   3.975
27328SOL    HW283882   7.834  12.117   4.066
27329SOL     OW83883   7.391   0.401   5.403
27329SOL    HW183884   7.327   0.335   5.428
27329SOL    HW283885   7.369   0.423   5.313
27330SOL     OW83886   2.435   2.262   8.722
27330SOL    HW183887   2.374   2.200   8.683
27330SOL    HW283888   2.450   2.327   8.653
27331SOL     OW83889  13.682   7.777   4.385
27331SOL    HW183890  13.609   7.833   4.359
27331SOL    HW283891  13.658   7.745   4.472
27332SOL     OW83892   9.511   8.437   4.278
27332SOL    HW183893   9.420   8.407   4.275
27332SOL    HW283894   9.563   8.358   4.265
27333SOL     OW83895   9.560   9.592   2.153
27333SOL    HW183896   9.605   9.516   2.115
27333SOL    HW283897   9.627   9.636   2.205
27334SOL     OW83898   4.548   8.361   8.349
27334SOL    HW183899   4.544   8.267   8.367
27334SOL    HW283900   4.631   8.373   8.304
27335SOL     OW83901   9.347   7.149   4.621
27335SOL    HW183902   9.285   7.118   4.555
27335SOL    HW283903   9.315   7.236   4.644
27336SOL     OW83904   6.851   2.602  11.335
27336SOL    HW183905   6.866   2.636  11.423
27336SOL    HW283906   6.765   2.559  11.341
27337SOL     OW83907   0.266   2.312  12.895
27337SOL    HW183908   0.231   2.223  12.892
27337SOL    HW283909   0.228   2.355  12.818
27338SOL     OW83910  12.409   4.685   3.457
27338SOL    HW183911  12.380   4.728   3.377
27338SOL    HW283912  12.451   4.604   3.427
27339SOL     OW83913   7.458   2.198   8.513
27339SOL    HW183914   7.373   2.159   8.496
27339SOL    HW283915   7.442   2.292   8.513
27340SOL     OW83916   9.082   9.912  13.366
27340SOL    HW183917   9.092   9.918  13.271
27340SOL    HW283918   8.991   9.937  13.382
27341SOL     OW83919   5.204   6.914   8.629
27341SOL    HW183920   5.222   6.963   8.549
27341SOL    HW283921   5.270   6.944   8.692
27342SOL     OW83922  13.592   5.565   8.622
27342SOL    HW183923  13.661   5.628   8.600
27342SOL    HW283924  13.606   5.492   8.562
27343SOL     OW83925   4.955  12.655   8.881
27343SOL    HW183926   4.989  12.681   8.967
27343SOL    HW283927   5.022  12.598   8.845
27344SOL     OW83928   4.325   8.968  11.845
27344SOL    HW183929   4.260   8.974  11.775
27344SOL    HW283930   4.407   8.997  11.805
27345SOL     OW83931   5.923   1.388   3.879
27345SOL    HW183932   5.892   1.466   3.924
27345SOL    HW283933   6.015   1.407   3.860
27346SOL     OW83934   0.051   1.033   2.297
27346SOL    HW183935   0.139   1.015   2.331
27346SOL    HW283936   0.038   1.126   2.313
27347SOL     OW83937  14.541   5.653   1.252
27347SOL    HW183938  14.567   5.574   1.206
27347SOL    HW283939  14.586   5.724   1.206
27348SOL     OW83940   5.504  13.403  13.092
27348SOL    HW183941   5.469  13.492  13.092
27348SOL    HW283942   5.445  13.354  13.034
27349SOL     OW83943  14.617  14.366   9.979
27349SOL    HW183944  14.691  14.381  10.038
27349SOL    HW283945  14.657  14.342   9.896
27350SOL     OW83946   3.031   4.908   1.368
27350SOL    HW183947   3.042   4.889   1.461
27350SOL    HW283948   3.103   4.862   1.326
27351SOL     OW83949   2.829   1.835   2.541
27351SOL    HW183950   2.821   1.741   2.527
27351SOL    HW283951   2.899   1.862   2.481
27352SOL     OW83952   5.739  10.379   8.002
27352SOL    HW183953   5.782  10.416   8.078
27352SOL    HW283954   5.668  10.440   7.983
27353SOL     OW83955  12.009  11.894   8.001
27353SOL    HW183956  12.063  11.947   8.060
27353SOL    HW283957  12.056  11.894   7.918
27354SOL     OW83958   7.588  10.998   8.744
27354SOL    HW183959   7.671  10.980   8.787
27354SOL    HW283960   7.613  11.026   8.655
27355SOL     OW83961  14.435   2.429  13.467
27355SOL    HW183962  14.489   2.438  13.546
27355SOL    HW283963  14.384   2.350  13.481
27356SOL     OW83964  11.852  11.331   2.120
27356SOL    HW183965  11.873  11.270   2.190
27356SOL    HW283966  11.880  11.416   2.153
27357SOL     OW83967   0.849   4.636   9.927
27357SOL    HW183968   0.871   4.567   9.991
27357SOL    HW283969   0.772   4.679   9.965
27358SOL     OW83970   5.690   8.160  12.312
27358SOL    HW183971   5.662   8.251  12.322
27358SOL    HW283972   5.783   8.166  12.293
27359SOL     OW83973   1.514   2.371   7.840
27359SOL    HW183974   1.594   2.422   7.856
27359SOL    HW283975   1.502   2.375   7.745
27360SOL     OW83976   9.507   5.966   2.091
27360SOL    HW183977   9.421   5.964   2.048
27360SOL    HW283978   9.521   6.059   2.110
27361SOL     OW83979  11.969  11.223   5.977
27361SOL    HW183980  12.013  11.293   5.929
27361SOL    HW283981  11.882  11.218   5.937
27362SOL     OW83982   8.896  11.906   1.963
27362SOL    HW183983   8.880  11.977   1.900
27362SOL    HW283984   8.826  11.843   1.945
27363SOL     OW83985  11.860   8.986   5.671
27363SOL    HW183986  11.931   9.013   5.613
27363SOL    HW283987  11.861   8.891   5.669
27364SOL     OW83988   3.401   9.805   3.351
27364SOL    HW183989   3.379   9.786   3.260
27364SOL    HW283990   3.451   9.886   3.347
27365SOL     OW83991  12.088   5.789   6.825
27365SOL    HW183992  12.122   5.877   6.843
27365SOL    HW283993  11.997   5.803   6.801
27366SOL     OW83994  10.263   4.891  12.868
27366SOL    HW183995  10.312   4.808  12.867
27366SOL    HW283996  10.214   4.890  12.786
27367SOL     OW83997  10.434   0.375  10.686
27367SOL    HW183998  10.486   0.325  10.749
27367SOL    HW283999  10.445   0.329  10.603
27368SOL     OW84000   2.782  11.743  11.961
27368SOL    HW184001   2.799  11.682  11.889
27368SOL    HW284002   2.692  11.723  11.989
27369SOL     OW84003  11.491  10.951  12.785
27369SOL    HW184004  11.555  11.001  12.837
27369SOL    HW284005  11.422  11.014  12.765
27370SOL     OW84006  11.575   2.442  13.942
27370SOL    HW184007  11.628   2.463  13.865
27370SOL    HW284008  11.624   2.373  13.987
27371SOL     OW84009   8.754  14.847   0.231
27371SOL    HW184010   8.787  14.796   0.305
27371SOL    HW284011   8.669  14.808   0.210
27372SOL     OW84012   0.839  12.882   2.285
27372SOL    HW184013   0.870  12.791   2.290
27372SOL    HW284014   0.785  12.884   2.205
27373SOL     OW84015   0.497  14.047   6.977
27373SOL    HW184016   0.508  14.128   6.927
27373SOL    HW284017   0.403  14.041   6.993
27374SOL     OW84018  13.273   4.748  14.557
27374SOL    HW184019  13.197   4.733  14.613
27374SOL    HW284020  13.311   4.661  14.546
27375SOL     OW84021   9.167  10.960   2.239
27375SOL    HW184022   9.084  10.928   2.204
27375SOL    HW284023   9.144  10.998   2.324
27376SOL     OW84024   6.150   6.060   8.598
27376SOL    HW184025   6.201   5.993   8.551
27376SOL    HW284026   6.217   6.115   8.640
27377SOL     OW84027  12.684  12.864  13.864
27377SOL    HW184028  12.752  12.856  13.797
27377SOL    HW284029  12.715  12.934  13.921
27378SOL     OW84030  14.206  11.407  14.418
27378SOL    HW184031  14.300  11.426  14.410
27378SOL    HW284032  14.202  11.315  14.444
27379SOL     OW84033  14.275  11.073   3.689
27379SOL    HW184034  14.261  11.040   3.777
27379SOL    HW284035  14.356  11.124   3.695
27380SOL     OW84036   8.569   1.826  10.424
27380SOL    HW184037   8.553   1.744  10.378
27380SOL    HW284038   8.520   1.891  10.373
27381SOL     OW84039   2.561   5.840   7.851
27381SOL    HW184040   2.525   5.835   7.762
27381SOL    HW284041   2.580   5.750   7.874
27382SOL     OW84042   2.502   8.172   2.133
27382SOL    HW184043   2.536   8.124   2.057
27382SOL    HW284044   2.530   8.119   2.208
27383SOL     OW84045   7.411   4.933   6.523
27383SOL    HW184046   7.398   4.864   6.588
27383SOL    HW284047   7.506   4.948   6.522
27384SOL     OW84048   9.233  13.812  11.001
27384SOL    HW184049   9.285  13.892  11.009
27384SOL    HW284050   9.146  13.836  11.033
27385SOL     OW84051  13.737   3.903  13.807
27385SOL    HW184052  13.822   3.936  13.838
27385SOL    HW284053  13.751   3.809  13.797
27386SOL     OW84054   0.395   3.883   8.125
27386SOL    HW184055   0.423   3.869   8.034
27386SOL    HW284056   0.300   3.870   8.124
27387SOL     OW84057  10.222   1.217   0.884
27387SOL    HW184058  10.134   1.186   0.861
27387SOL    HW284059  10.234   1.190   0.975
27388SOL     OW84060  12.801  14.231   3.229
27388SOL    HW184061  12.714  14.269   3.213
27388SOL    HW284062  12.783  14.146   3.269
27389SOL     OW84063  10.313  11.321   9.649
27389SOL    HW184064  10.222  11.341   9.625
27389SOL    HW284065  10.308  11.301   9.743
27390SOL     OW84066   4.056   7.908  12.095
27390SOL    HW184067   4.004   7.845  12.045
27390SOL    HW284068   4.080   7.860  12.175
27391SOL     OW84069   3.357   9.703   3.982
27391SOL    HW184070   3.416   9.634   4.011
27391SOL    HW284071   3.315   9.669   3.903
27392SOL     OW84072   2.100   1.402   1.457
27392SOL    HW184073   2.034   1.337   1.435
27392SOL    HW284074   2.058   1.486   1.439
27393SOL     OW84075   1.210   7.406   8.569
27393SOL    HW184076   1.232   7.452   8.650
27393SOL    HW284077   1.289   7.357   8.548
27394SOL     OW84078   3.441   0.449   6.790
27394SOL    HW184079   3.496   0.390   6.840
27394SOL    HW284080   3.356   0.445   6.834
27395SOL     OW84081   9.529   9.547   8.409
27395SOL    HW184082   9.505   9.628   8.453
27395SOL    HW284083   9.508   9.562   8.317
27396SOL     OW84084   2.294   8.019   9.297
27396SOL    HW184085   2.294   8.031   9.392
27396SOL    HW284086   2.230   8.083   9.265
27397SOL     OW84087   9.094   8.226   5.510
27397SOL    HW184088   9.168   8.172   5.538
27397SOL    HW284089   9.093   8.299   5.572
27398SOL     OW84090   6.991  11.914   7.441
27398SOL    HW184091   7.054  11.950   7.379
27398SOL    HW284092   6.953  11.839   7.396
27399SOL     OW84093   3.279   3.743   2.093
27399SOL    HW184094   3.303   3.651   2.101
27399SOL    HW284095   3.186   3.742   2.070
27400SOL     OW84096  10.436  14.416  10.271
27400SOL    HW184097  10.453  14.457  10.356
27400SOL    HW284098  10.386  14.337  10.293
27401SOL     OW84099  11.321   8.867  12.162
27401SOL    HW184100  11.346   8.878  12.254
27401SOL    HW284101  11.321   8.956  12.126
27402SOL     OW84102   6.967   5.461  11.989
27402SOL    HW184103   7.062   5.472  11.980
27402SOL    HW284104   6.930   5.510  11.916
27403SOL     OW84105   6.017   3.464  11.539
27403SOL    HW184106   5.994   3.549  11.576
27403SOL    HW284107   5.950   3.448  11.472
27404SOL     OW84108  11.728  10.694   8.741
27404SOL    HW184109  11.805  10.640   8.723
27404SOL    HW284110  11.747  10.778   8.699
27405SOL     OW84111  10.262   0.874  10.156
27405SOL    HW184112  10.253   0.783  10.185
27405SOL    HW284113  10.356   0.885  10.140
27406SOL     OW84114   1.595   8.837  13.897
27406SOL    HW184115   1.572   8.781  13.971
27406SOL    HW284116   1.690   8.832  13.891
27407SOL     OW84117   8.165   8.450   1.946
27407SOL    HW184118   8.168   8.376   1.885
27407SOL    HW284119   8.184   8.526   1.891
27408SOL     OW84120   3.223   0.141  12.080
27408SOL    HW184121   3.278   0.140  12.158
27408SOL    HW284122   3.134   0.155  12.114
27409SOL     OW84123   8.197   3.225   1.454
27409SOL    HW184124   8.159   3.253   1.537
27409SOL    HW284125   8.274   3.175   1.478
27410SOL     OW84126  14.760  13.520   8.496
27410SOL    HW184127  14.841  13.533   8.545
27410SOL    HW284128  14.696  13.573   8.541
27411SOL     OW84129  11.555   9.239  13.696
27411SOL    HW184130  11.465   9.272  13.693
27411SOL    HW284131  11.546   9.146  13.716
27412SOL     OW84132   9.232  10.880   1.319
27412SOL    HW184133   9.300  10.815   1.304
27412SOL    HW284134   9.162  10.857   1.258
27413SOL     OW84135  10.116  14.801   9.679
27413SOL    HW184136  10.209  14.822   9.685
27413SOL    HW284137  10.072   0.014   9.696
27414SOL     OW84138   9.227  12.308  12.093
27414SOL    HW184139   9.144  12.263  12.080
27414SOL    HW284140   9.288  12.239  12.119
27415SOL     OW84141   7.199  11.300   3.232
27415SOL    HW184142   7.212  11.216   3.188
27415SOL    HW284143   7.171  11.359   3.162
27416SOL     OW84144  10.087  14.531   4.639
27416SOL    HW184145  10.128  14.585   4.706
27416SOL    HW284146  10.113  14.571   4.556
27417SOL     OW84147   2.613   4.976   6.863
27417SOL    HW184148   2.574   5.056   6.826
27417SOL    HW284149   2.702   4.974   6.825
27418SOL     OW84150  11.561   2.690  12.644
27418SOL    HW184151  11.480   2.685  12.594
27418SOL    HW284152  11.593   2.779  12.628
27419SOL     OW84153   0.250   1.725   8.841
27419SOL    HW184154   0.211   1.758   8.760
27419SOL    HW284155   0.175   1.709   8.899
27420SOL     OW84156   1.659   7.629   1.408
27420SOL    HW184157   1.735   7.688   1.406
27420SOL    HW284158   1.679   7.568   1.479
27421SOL     OW84159   3.650   4.216   1.217
27421SOL    HW184160   3.657   4.132   1.261
27421SOL    HW284161   3.728   4.264   1.245
27422SOL     OW84162   8.675   6.714  13.897
27422SOL    HW184163   8.638   6.667  13.822
27422SOL    HW284164   8.619   6.791  13.908
27423SOL     OW84165   8.875  12.228  10.053
27423SOL    HW184166   8.920  12.304  10.089
27423SOL    HW284167   8.800  12.214  10.111
27424SOL     OW84168   4.419   3.672   4.804
27424SOL    HW184169   4.365   3.631   4.736
27424SOL    HW284170   4.442   3.599   4.863
27425SOL     OW84171   3.253  10.052   8.835
27425SOL    HW184172   3.267  10.039   8.741
27425SOL    HW284173   3.338  10.081   8.868
27426SOL     OW84174   7.161   8.777  10.881
27426SOL    HW184175   7.072   8.749  10.861
27426SOL    HW284176   7.169   8.764  10.975
27427SOL     OW84177   9.995   6.778   0.420
27427SOL    HW184178  10.029   6.736   0.498
27427SOL    HW284179   9.970   6.706   0.362
27428SOL     OW84180   1.502   1.340  14.488
27428SOL    HW184181   1.428   1.398  14.469
27428SOL    HW284182   1.462   1.263  14.528
27429SOL     OW84183  10.136  10.063   0.138
27429SOL    HW184184  10.223  10.049   0.101
27429SOL    HW284185  10.127  10.158   0.143
27430SOL     OW84186   6.039  10.144   5.099
27430SOL    HW184187   5.946  10.167   5.091
27430SOL    HW284188   6.072  10.203   5.167
27431SOL     OW84189   2.586   1.086  14.548
27431SOL    HW184190   2.572   1.031  14.471
27431SOL    HW284191   2.501   1.128  14.563
27432SOL     OW84192   3.614  10.016   4.317
27432SOL    HW184193   3.532   9.986   4.276
27432SOL    HW284194   3.620   9.965   4.398
27433SOL     OW84195  13.966  12.602  11.324
27433SOL    HW184196  13.909  12.565  11.392
27433SOL    HW284197  14.051  12.610  11.367
27434SOL     OW84198  11.131   2.782   1.309
27434SOL    HW184199  11.153   2.869   1.341
27434SOL    HW284200  11.102   2.734   1.386
27435SOL     OW84201   1.647  13.230   9.413
27435SOL    HW184202   1.703  13.305   9.434
27435SOL    HW284203   1.600  13.258   9.334
27436SOL     OW84204  12.701   8.149   6.663
27436SOL    HW184205  12.792   8.129   6.639
27436SOL    HW284206  12.656   8.161   6.579
27437SOL     OW84207   1.708   3.886  14.122
27437SOL    HW184208   1.720   3.961  14.065
27437SOL    HW284209   1.638   3.912  14.182
27438SOL     OW84210  11.377   1.126   4.006
27438SOL    HW184211  11.349   1.206   3.960
27438SOL    HW284212  11.464   1.147   4.039
27439SOL     OW84213  12.648   0.136   6.226
27439SOL    HW184214  12.639   0.105   6.136
27439SOL    HW284215  12.642   0.057   6.280
27440SOL     OW84216   6.974   2.040  12.264
27440SOL    HW184217   7.021   2.011  12.343
27440SOL    HW284218   6.902   2.094  12.298
27441SOL     OW84219   1.256  14.596   5.588
27441SOL    HW184220   1.341  14.558   5.607
27441SOL    HW284221   1.271  14.691   5.588
27442SOL     OW84222   6.703   0.686  13.580
27442SOL    HW184223   6.761   0.678  13.504
27442SOL    HW284224   6.650   0.607  13.578
27443SOL     OW84225  14.402  12.071  10.396
27443SOL    HW184226  14.334  12.138  10.395
27443SOL    HW284227  14.401  12.035  10.308
27444SOL     OW84228   1.844   4.814   8.899
27444SOL    HW184229   1.851   4.908   8.880
27444SOL    HW284230   1.817   4.775   8.816
27445SOL     OW84231   1.654  10.560  12.863
27445SOL    HW184232   1.682  10.644  12.899
27445SOL    HW284233   1.723  10.536  12.801
27446SOL     OW84234   2.430  11.231   0.652
27446SOL    HW184235   2.369  11.183   0.596
27446SOL    HW284236   2.482  11.164   0.694
27447SOL     OW84237  10.351   6.096   1.885
27447SOL    HW184238  10.443   6.118   1.898
27447SOL    HW284239  10.328   6.045   1.963
27448SOL     OW84240  12.958   7.399  12.649
27448SOL    HW184241  13.015   7.442  12.713
27448SOL    HW284242  12.884   7.366  12.702
27449SOL     OW84243  10.603   6.308   8.171
27449SOL    HW184244  10.675   6.371   8.183
27449SOL    HW284245  10.531   6.361   8.137
27450SOL     OW84246  14.864  14.843   3.430
27450SOL    HW184247  14.864  14.768   3.370
27450SOL    HW284248  14.863   0.050   3.373
27451SOL     OW84249   6.073  11.537   0.905
27451SOL    HW184250   5.980  11.534   0.928
27451SOL    HW284251   6.074  11.541   0.809
27452SOL     OW84252  12.899   9.440   3.322
27452SOL    HW184253  12.898   9.492   3.241
27452SOL    HW284254  12.838   9.486   3.380
27453SOL     OW84255   0.661  10.036   0.059
27453SOL    HW184256   0.617   9.982  14.862
27453SOL    HW284257   0.645  10.126   0.031
27454SOL     OW84258   2.817   0.702   3.594
27454SOL    HW184259   2.880   0.773   3.601
27454SOL    HW284260   2.747   0.725   3.654
27455SOL     OW84261  10.166  11.829  12.952
27455SOL    HW184262  10.082  11.865  12.923
27455SOL    HW284263  10.231  11.866  12.892
27456SOL     OW84264   0.791  13.519   1.690
27456SOL    HW184265   0.826  13.490   1.775
27456SOL    HW284266   0.869  13.531   1.636
27457SOL     OW84267   4.134   0.122   4.940
27457SOL    HW184268   4.220   0.085   4.956
27457SOL    HW284269   4.073   0.057   4.975
27458SOL     OW84270  12.987   0.184   1.247
27458SOL    HW184271  12.988   0.201   1.341
27458SOL    HW284272  12.895   0.181   1.224
27459SOL     OW84273   3.912  12.623   7.178
27459SOL    HW184274   3.962  12.642   7.099
27459SOL    HW284275   3.882  12.709   7.208
27460SOL     OW84276   2.896   9.197   1.633
27460SOL    HW184277   2.821   9.151   1.597
27460SOL    HW284278   2.927   9.254   1.562
27461SOL     OW84279   0.117  13.425  11.617
27461SOL    HW184280   0.142  13.410  11.708
27461SOL    HW284281   0.124  13.339  11.576
27462SOL     OW84282   7.824   0.442   1.048
27462SOL    HW184283   7.855   0.528   1.020
27462SOL    HW284284   7.737   0.459   1.084
27463SOL     OW84285  13.011   6.951   6.564
27463SOL    HW184286  12.987   6.936   6.473
27463SOL    HW284287  12.951   7.020   6.594
27464SOL     OW84288   1.307   9.044   7.682
27464SOL    HW184289   1.362   9.113   7.722
27464SOL    HW284290   1.238   9.029   7.747
27465SOL     OW84291   3.972  11.121   0.828
27465SOL    HW184292   3.887  11.165   0.836
27465SOL    HW284293   4.029  11.168   0.889
27466SOL     OW84294   9.004   5.583   6.158
27466SOL    HW184295   8.985   5.525   6.085
27466SOL    HW284296   9.099   5.575   6.172
27467SOL     OW84297   3.998   0.197   5.746
27467SOL    HW184298   4.085   0.187   5.785
27467SOL    HW284299   3.938   0.179   5.818
27468SOL     OW84300   1.009   6.288   2.245
27468SOL    HW184301   0.996   6.208   2.194
27468SOL    HW284302   0.920   6.319   2.263
27469SOL     OW84303   1.999   8.981  12.324
27469SOL    HW184304   2.082   8.944  12.354
27469SOL    HW284305   1.970   8.923  12.254
27470SOL     OW84306   7.355   8.202   5.072
27470SOL    HW184307   7.260   8.195   5.064
27470SOL    HW284308   7.374   8.173   5.161
27471SOL     OW84309  10.421   8.307   6.328
27471SOL    HW184310  10.394   8.357   6.251
27471SOL    HW284311  10.406   8.216   6.305
27472SOL     OW84312   8.489  11.156   3.675
27472SOL    HW184313   8.397  11.132   3.681
27472SOL    HW284314   8.490  11.251   3.686
27473SOL     OW84315  12.670   0.432   5.468
27473SOL    HW184316  12.694   0.523   5.453
27473SOL    HW284317  12.578   0.435   5.495
27474SOL     OW84318   8.333  14.110   7.818
27474SOL    HW184319   8.331  14.194   7.864
27474SOL    HW284320   8.381  14.128   7.737
27475SOL     OW84321   4.550   4.972  10.135
27475SOL    HW184322   4.619   5.033  10.112
27475SOL    HW284323   4.474   5.003  10.085
27476SOL     OW84324   8.393   5.834   1.270
27476SOL    HW184325   8.384   5.889   1.348
27476SOL    HW284326   8.347   5.883   1.201
27477SOL     OW84327   8.350   5.130   3.160
27477SOL    HW184328   8.384   5.078   3.233
27477SOL    HW284329   8.411   5.203   3.153
27478SOL     OW84330  11.304  11.820   4.491
27478SOL    HW184331  11.358  11.743   4.474
27478SOL    HW284332  11.254  11.796   4.570
27479SOL     OW84333   8.303   1.038  14.128
27479SOL    HW184334   8.285   0.968  14.064
27479SOL    HW284335   8.244   1.109  14.103
27480SOL     OW84336  12.158   7.232  12.340
27480SOL    HW184337  12.143   7.159  12.400
27480SOL    HW284338  12.070   7.252  12.306
27481SOL     OW84339   8.280   2.191   7.287
27481SOL    HW184340   8.237   2.117   7.244
27481SOL    HW284341   8.330   2.233   7.217
27482SOL     OW84342  11.646  13.625  11.895
27482SOL    HW184343  11.563  13.657  11.928
27482SOL    HW284344  11.628  13.598  11.805
27483SOL     OW84345   2.143  10.749   9.110
27483SOL    HW184346   2.206  10.687   9.073
27483SOL    HW284347   2.197  10.813   9.156
27484SOL     OW84348   3.899   8.819   9.768
27484SOL    HW184349   3.840   8.894   9.773
27484SOL    HW284350   3.977   8.853   9.723
27485SOL     OW84351   7.340   7.802   7.800
27485SOL    HW184352   7.312   7.710   7.805
27485SOL    HW284353   7.413   7.808   7.862
27486SOL     OW84354  10.337  10.527   2.794
27486SOL    HW184355  10.332  10.622   2.786
27486SOL    HW284356  10.274  10.505   2.863
27487SOL     OW84357   4.321   5.141   2.939
27487SOL    HW184358   4.286   5.062   2.898
27487SOL    HW284359   4.244   5.194   2.958
27488SOL     OW84360  13.564  11.936  11.751
27488SOL    HW184361  13.600  11.988  11.679
27488SOL    HW284362  13.481  11.903  11.716
27489SOL     OW84363  11.251  10.853  11.816
27489SOL    HW184364  11.204  10.774  11.840
27489SOL    HW284365  11.207  10.923  11.864
27490SOL     OW84366  13.842  13.276  10.692
27490SOL    HW184367  13.777  13.226  10.642
27490SOL    HW284368  13.808  13.366  10.689
27491SOL     OW84369   0.212  12.765   7.437
27491SOL    HW184370   0.127  12.763   7.393
27491SOL    HW284371   0.222  12.855   7.467
27492SOL     OW84372   5.782   0.785   2.862
27492SOL    HW184373   5.734   0.817   2.785
27492SOL    HW284374   5.860   0.841   2.865
27493SOL     OW84375   9.640   0.707   2.274
27493SOL    HW184376   9.713   0.713   2.212
27493SOL    HW284377   9.595   0.627   2.250
27494SOL     OW84378  10.545   3.441   4.787
27494SOL    HW184379  10.640   3.445   4.799
27494SOL    HW284380  10.510   3.504   4.850
27495SOL     OW84381   2.315   3.716   6.570
27495SOL    HW184382   2.358   3.706   6.485
27495SOL    HW284383   2.282   3.628   6.591
27496SOL     OW84384   7.201  11.964   4.301
27496SOL    HW184385   7.258  11.963   4.224
27496SOL    HW284386   7.123  11.916   4.274
27497SOL     OW84387   1.353   2.440  11.849
27497SOL    HW184388   1.276   2.486  11.816
27497SOL    HW284389   1.424   2.503  11.841
27498SOL     OW84390   9.926  14.446   3.936
27498SOL    HW184391   9.998  14.395   3.974
27498SOL    HW284392   9.960  14.476   3.852
27499SOL     OW84393  13.315   1.114   5.877
27499SOL    HW184394  13.240   1.080   5.925
27499SOL    HW284395  13.392   1.081   5.924
27500SOL     OW84396   5.538   8.849  12.037
27500SOL    HW184397   5.554   8.935  12.075
27500SOL    HW284398   5.544   8.863  11.942
27501SOL     OW84399   3.856   0.281   6.867
27501SOL    HW184400   3.825   0.354   6.921
27501SOL    HW284401   3.914   0.231   6.925
27502SOL     OW84402   4.017  14.746  13.552
27502SOL    HW184403   3.936  14.795  13.541
27502SOL    HW284404   4.070  14.770  13.476
27503SOL     OW84405  14.758   1.551   7.781
27503SOL    HW184406  14.770   1.567   7.687
27503SOL    HW284407  14.748   1.456   7.787
27504SOL     OW84408   0.799  10.238  14.162
27504SOL    HW184409   0.772  10.154  14.126
27504SOL    HW284410   0.718  10.287  14.175
27505SOL     OW84411  13.788   3.885   3.389
27505SOL    HW184412  13.707   3.936   3.394
27505SOL    HW284413  13.857   3.948   3.409
27506SOL     OW84414   4.897   9.238   7.613
27506SOL    HW184415   4.822   9.239   7.554
27506SOL    HW284416   4.909   9.329   7.638
27507SOL     OW84417  12.100  13.398   6.457
27507SOL    HW184418  12.137  13.310   6.451
27507SOL    HW284419  12.115  13.424   6.548
27508SOL     OW84420   5.506   3.320  14.319
27508SOL    HW184421   5.538   3.280  14.399
27508SOL    HW284422   5.584   3.329  14.264
27509SOL     OW84423   8.778   2.532  12.271
27509SOL    HW184424   8.869   2.513  12.292
27509SOL    HW284425   8.733   2.448  12.279
27510SOL     OW84426   8.681   2.026  12.005
27510SOL    HW184427   8.603   1.979  12.032
27510SOL    HW284428   8.750   1.959  12.003
27511SOL     OW84429   2.296   3.030  10.540
27511SOL    HW184430   2.350   3.053  10.465
27511SOL    HW284431   2.357   2.992  10.603
27512SOL     OW84432   1.707   2.653  12.305
27512SOL    HW184433   1.742   2.732  12.263
27512SOL    HW284434   1.733   2.661  12.397
27513SOL     OW84435   1.007   9.017   0.576
27513SOL    HW184436   1.022   8.930   0.541
27513SOL    HW284437   1.093   9.058   0.579
27514SOL     OW84438   0.021   5.543   8.002
27514SOL    HW184439   0.064   5.616   7.959
27514SOL    HW284440  14.840   5.500   7.933
27515SOL     OW84441  12.760   4.682  10.541
27515SOL    HW184442  12.828   4.618  10.562
27515SOL    HW284443  12.680   4.647  10.581
27516SOL     OW84444   1.693   3.247  12.682
27516SOL    HW184445   1.642   3.186  12.629
27516SOL    HW284446   1.699   3.326  12.628
27517SOL     OW84447  11.015   2.120   2.453
27517SOL    HW184448  10.959   2.194   2.476
27517SOL    HW284449  10.965   2.043   2.480
27518SOL     OW84450  14.057   6.902   3.094
27518SOL    HW184451  14.126   6.866   3.039
27518SOL    HW284452  13.980   6.906   3.038
27519SOL     OW84453   3.429   1.063   9.959
27519SOL    HW184454   3.447   1.027   9.872
27519SOL    HW284455   3.343   1.104   9.950
27520SOL     OW84456   2.043   7.524   7.184
27520SOL    HW184457   2.003   7.508   7.270
27520SOL    HW284458   1.988   7.477   7.122
27521SOL     OW84459   7.399  13.832   4.482
27521SOL    HW184460   7.342  13.865   4.552
27521SOL    HW284461   7.482  13.877   4.495
27522SOL     OW84462   2.258   0.767   4.741
27522SOL    HW184463   2.251   0.704   4.813
27522SOL    HW284464   2.231   0.717   4.663
27523SOL     OW84465   8.455  10.104  10.863
27523SOL    HW184466   8.432  10.195  10.879
27523SOL    HW284467   8.388  10.053  10.909
27524SOL     OW84468   4.079   0.945  13.982
27524SOL    HW184469   4.006   0.914  13.929
27524SOL    HW284470   4.045   0.948  14.071
27525SOL     OW84471   2.581  12.990  14.253
27525SOL    HW184472   2.545  12.920  14.198
27525SOL    HW284473   2.603  12.946  14.335
27526SOL     OW84474   7.950   9.345  10.630
27526SOL    HW184475   7.975   9.254  10.614
27526SOL    HW284476   7.863   9.340  10.669
27527SOL     OW84477   6.509   1.584   6.655
27527SOL    HW184478   6.468   1.622   6.733
27527SOL    HW284479   6.556   1.658   6.615
27528SOL     OW84480   3.383   7.480   1.079
27528SOL    HW184481   3.317   7.506   1.015
27528SOL    HW284482   3.443   7.554   1.084
27529SOL     OW84483  11.854   3.122   5.209
27529SOL    HW184484  11.767   3.159   5.190
27529SOL    HW284485  11.913   3.168   5.150
27530SOL     OW84486   0.686   7.434   4.398
27530SOL    HW184487   0.771   7.475   4.417
27530SOL    HW284488   0.708   7.354   4.350
27531SOL     OW84489   4.530   5.253  14.302
27531SOL    HW184490   4.537   5.306  14.382
27531SOL    HW284491   4.449   5.283  14.261
27532SOL     OW84492  13.686   5.749  10.015
27532SOL    HW184493  13.660   5.841  10.016
27532SOL    HW284494  13.617   5.704  10.065
27533SOL     OW84495  12.810  12.968   0.616
27533SOL    HW184496  12.779  13.010   0.696
27533SOL    HW284497  12.870  13.033   0.577
27534SOL     OW84498   4.275   3.634  11.934
27534SOL    HW184499   4.252   3.670  11.849
27534SOL    HW284500   4.364   3.665  11.951
27535SOL     OW84501   5.313   2.094   6.830
27535SOL    HW184502   5.346   2.044   6.756
27535SOL    HW284503   5.330   2.038   6.906
27536SOL     OW84504  10.585   9.720   9.707
27536SOL    HW184505  10.562   9.807   9.677
27536SOL    HW284506  10.538   9.709   9.790
27537SOL     OW84507   7.829  14.256   3.928
27537SOL    HW184508   7.828  14.261   4.024
27537SOL    HW284509   7.898  14.315   3.901
27538SOL     OW84510   3.747   7.133  11.656
27538SOL    HW184511   3.702   7.058  11.695
27538SOL    HW284512   3.781   7.183  11.730
27539SOL     OW84513   5.903  10.114   0.537
27539SOL    HW184514   5.930  10.022   0.544
27539SOL    HW284515   5.811  10.114   0.561
27540SOL     OW84516   0.333   9.889   2.724
27540SOL    HW184517   0.305   9.959   2.665
27540SOL    HW284518   0.252   9.850   2.756
27541SOL     OW84519   8.747  11.176  14.573
27541SOL    HW184520   8.699  11.097  14.550
27541SOL    HW284521   8.684  11.231  14.620
27542SOL     OW84522   9.994  10.873  13.058
27542SOL    HW184523   9.981  10.967  13.068
27542SOL    HW284524   9.954  10.835  13.136
27543SOL     OW84525   1.806  14.335  11.919
27543SOL    HW184526   1.788  14.265  11.857
27543SOL    HW284527   1.899  14.357  11.904
27544SOL     OW84528   3.883   4.143   3.031
27544SOL    HW184529   3.870   4.182   2.945
27544SOL    HW284530   3.911   4.054   3.013
27545SOL     OW84531   8.122   0.074   5.895
27545SOL    HW184532   8.193   0.126   5.933
27545SOL    HW284533   8.043   0.121   5.919
27546SOL     OW84534   2.491  12.728  14.142
27546SOL    HW184535   2.439  12.725  14.062
27546SOL    HW284536   2.570  12.677  14.122
27547SOL     OW84537  12.147   9.773   7.365
27547SOL    HW184538  12.080   9.800   7.428
27547SOL    HW284539  12.129   9.825   7.287
27548SOL     OW84540  12.361   1.750   7.560
27548SOL    HW184541  12.333   1.684   7.496
27548SOL    HW284542  12.362   1.832   7.512
27549SOL     OW84543   6.049   9.854   1.485
27549SOL    HW184544   6.065   9.816   1.572
27549SOL    HW284545   5.958   9.883   1.488
27550SOL     OW84546   2.945   1.061  13.284
27550SOL    HW184547   2.925   1.016  13.366
27550SOL    HW284548   2.911   1.149  13.297
27551SOL     OW84549   9.403   4.936   3.498
27551SOL    HW184550   9.388   5.022   3.458
27551SOL    HW284551   9.316   4.897   3.503
27552SOL     OW84552   9.433   0.987   2.697
27552SOL    HW184553   9.523   0.953   2.701
27552SOL    HW284554   9.378   0.910   2.683
27553SOL     OW84555   7.003   3.913  14.686
27553SOL    HW184556   6.939   3.984  14.679
27553SOL    HW284557   6.965   3.852  14.748
27554SOL     OW84558   9.239   1.181   7.647
27554SOL    HW184559   9.236   1.116   7.718
27554SOL    HW284560   9.230   1.265   7.691
27555SOL     OW84561  14.837   7.744   7.400
27555SOL    HW184562  14.856   7.825   7.448
27555SOL    HW284563   0.053   7.706   7.383
27556SOL     OW84564   7.714  10.579   3.209
27556SOL    HW184565   7.758  10.516   3.151
27556SOL    HW284566   7.780  10.647   3.225
27557SOL     OW84567   6.131   6.259   0.534
27557SOL    HW184568   6.169   6.184   0.579
27557SOL    HW284569   6.042   6.232   0.512
27558SOL     OW84570  12.052   6.331   6.460
27558SOL    HW184571  12.006   6.399   6.411
27558SOL    HW284572  12.129   6.375   6.496
27559SOL     OW84573   6.399   6.661   1.155
27559SOL    HW184574   6.333   6.699   1.212
27559SOL    HW284575   6.371   6.570   1.144
27560SOL     OW84576   6.599   7.285   6.578
27560SOL    HW184577   6.548   7.299   6.498
27560SOL    HW284578   6.548   7.327   6.647
27561SOL     OW84579  13.619   5.901  11.593
27561SOL    HW184580  13.576   5.871  11.673
27561SOL    HW284581  13.572   5.981  11.568
27562SOL     OW84582  10.483   6.555   4.769
27562SOL    HW184583  10.408   6.607   4.742
27562SOL    HW284584  10.455   6.513   4.851
27563SOL     OW84585   0.125   7.298   3.654
27563SOL    HW184586   0.121   7.387   3.620
27563SOL    HW284587   0.121   7.309   3.749
27564SOL     OW84588   7.837   6.015  11.932
27564SOL    HW184589   7.921   5.992  11.972
27564SOL    HW284590   7.860   6.072  11.858
27565SOL     OW84591  10.520  11.984   9.880
27565SOL    HW184592  10.545  11.907   9.931
27565SOL    HW284593  10.487  11.948   9.797
27566SOL     OW84594   6.854  11.795   5.908
27566SOL    HW184595   6.881  11.828   5.994
27566SOL    HW284596   6.850  11.700   5.919
27567SOL     OW84597   3.998   9.802   0.933
27567SOL    HW184598   3.968   9.888   0.963
27567SOL    HW284599   3.998   9.808   0.837
27568SOL     OW84600   6.169  11.440  14.502
27568SOL    HW184601   6.192  11.370  14.441
27568SOL    HW284602   6.218  11.420  14.581
27569SOL     OW84603   7.261  12.763   5.336
27569SOL    HW184604   7.337  12.748   5.392
27569SOL    HW284605   7.204  12.820   5.388
27570SOL     OW84606   2.371  10.748   9.828
27570SOL    HW184607   2.309  10.731   9.757
27570SOL    HW284608   2.457  10.729   9.791
27571SOL     OW84609   1.195   8.095   6.485
27571SOL    HW184610   1.193   8.040   6.407
27571SOL    HW284611   1.146   8.173   6.460
27572SOL     OW84612   1.910   7.319  12.886
27572SOL    HW184613   1.944   7.405  12.911
27572SOL    HW284614   1.972   7.288  12.820
27573SOL     OW84615   7.930   7.649  12.998
27573SOL    HW184616   7.993   7.720  12.995
27573SOL    HW284617   7.900   7.647  13.089
27574SOL     OW84618  14.818  10.103   8.116
27574SOL    HW184619   0.038  10.136   8.115
27574SOL    HW284620  14.768  10.169   8.165
27575SOL     OW84621   4.253   5.654  14.521
27575SOL    HW184622   4.192   5.580  14.517
27575SOL    HW284623   4.215   5.719  14.461
27576SOL     OW84624   2.295   6.113   2.816
27576SOL    HW184625   2.342   6.122   2.734
27576SOL    HW284626   2.360   6.133   2.884
27577SOL     OW84627  11.056  10.509  14.870
27577SOL    HW184628  11.127  10.512  14.805
27577SOL    HW284629  11.100  10.511   0.085
27578SOL     OW84630   3.261   9.404  13.773
27578SOL    HW184631   3.248   9.355  13.692
27578SOL    HW284632   3.174   9.410  13.812
27579SOL     OW84633  11.626   6.515   6.217
27579SOL    HW184634  11.691   6.525   6.147
27579SOL    HW284635  11.581   6.434   6.196
27580SOL     OW84636   8.968   4.090   2.178
27580SOL    HW184637   9.040   4.122   2.232
27580SOL    HW284638   8.939   4.166   2.128
27581SOL     OW84639  12.689   9.463   2.335
27581SOL    HW184640  12.743   9.500   2.265
27581SOL    HW284641  12.752   9.438   2.403
27582SOL     OW84642   5.651   0.699   8.657
27582SOL    HW184643   5.720   0.757   8.624
27582SOL    HW284644   5.687   0.662   8.738
27583SOL     OW84645   6.235   3.196   3.222
27583SOL    HW184646   6.152   3.245   3.220
27583SOL    HW284647   6.270   3.205   3.134
27584SOL     OW84648  10.012  13.349   4.581
27584SOL    HW184649  10.026  13.258   4.608
27584SOL    HW284650  10.020  13.400   4.661
27585SOL     OW84651   0.248   0.958  13.356
27585SOL    HW184652   0.292   1.029  13.310
27585SOL    HW284653   0.309   0.884  13.350
27586SOL     OW84654  14.275  10.608  14.283
27586SOL    HW184655  14.353  10.645  14.326
27586SOL    HW284656  14.232  10.683  14.244
27587SOL     OW84657  10.414   5.791   9.116
27587SOL    HW184658  10.394   5.817   9.206
27587SOL    HW284659  10.393   5.697   9.114
27588SOL     OW84660  14.139   6.865   4.653
27588SOL    HW184661  14.153   6.781   4.697
27588SOL    HW284662  14.044   6.877   4.652
27589SOL     OW84663   1.239  14.770   8.210
27589SOL    HW184664   1.300  14.808   8.146
27589SOL    HW284665   1.162  14.746   8.158
27590SOL     OW84666  10.405   6.529   6.810
27590SOL    HW184667  10.368   6.614   6.834
27590SOL    HW284668  10.436   6.492   6.893
27591SOL     OW84669  13.097   3.917   8.600
27591SOL    HW184670  13.038   3.916   8.525
27591SOL    HW284671  13.093   3.828   8.635
27592SOL     OW84672  10.776  10.667   1.111
27592SOL    HW184673  10.847  10.623   1.157
27592SOL    HW284674  10.755  10.609   1.037
27593SOL     OW84675   8.390   3.546   6.348
27593SOL    HW184676   8.385   3.539   6.443
27593SOL    HW284677   8.310   3.503   6.317
27594SOL     OW84678  10.978  11.329  14.139
27594SOL    HW184679  11.009  11.242  14.112
27594SOL    HW284680  11.050  11.365  14.190
27595SOL     OW84681   4.186   0.778   5.037
27595SOL    HW184682   4.275   0.783   5.003
27595SOL    HW284683   4.163   0.868   5.057
27596SOL     OW84684   6.110   3.191  13.372
27596SOL    HW184685   6.021   3.225  13.376
27596SOL    HW284686   6.111   3.132  13.297
27597SOL     OW84687  10.830  10.768  12.684
27597SOL    HW184688  10.776  10.847  12.688
27597SOL    HW284689  10.908  10.795  12.636
27598SOL     OW84690   8.733   6.696   6.135
27598SOL    HW184691   8.806   6.636   6.149
27598SOL    HW284692   8.740   6.760   6.206
27599SOL     OW84693  10.018  10.887   2.937
27599SOL    HW184694  10.108  10.889   2.969
27599SOL    HW284695  10.024  10.914   2.846
27600SOL     OW84696   1.652  13.462   6.802
27600SOL    HW184697   1.595  13.417   6.864
27600SOL    HW284698   1.660  13.551   6.837
27601SOL     OW84699  14.614   8.460   5.818
27601SOL    HW184700  14.555   8.519   5.864
27601SOL    HW284701  14.695   8.510   5.808
27602SOL     OW84702   2.020  13.915   6.477
27602SOL    HW184703   2.032  13.824   6.449
27602SOL    HW284704   1.966  13.954   6.408
27603SOL     OW84705   1.160   9.174  11.212
27603SOL    HW184706   1.109   9.175  11.131
27603SOL    HW284707   1.251   9.169  11.183
27604SOL     OW84708   5.179   2.605   5.633
27604SOL    HW184709   5.262   2.630   5.673
27604SOL    HW284710   5.193   2.617   5.539
27605SOL     OW84711  14.627  11.918   2.789
27605SOL    HW184712  14.609  11.887   2.878
27605SOL    HW284713  14.718  11.949   2.792
27606SOL     OW84714   8.257   2.719   4.152
27606SOL    HW184715   8.318   2.678   4.214
27606SOL    HW284716   8.301   2.712   4.067
27607SOL     OW84717   0.225   2.429   3.323
27607SOL    HW184718   0.225   2.374   3.244
27607SOL    HW284719   0.293   2.391   3.379
27608SOL     OW84720  10.304  12.899  14.188
27608SOL    HW184721  10.327  12.836  14.256
27608SOL    HW284722  10.221  12.937  14.218
27609SOL     OW84723  10.450   5.742  11.741
27609SOL    HW184724  10.443   5.690  11.661
27609SOL    HW284725  10.434   5.679  11.811
27610SOL     OW84726   1.148   1.555   0.345
27610SOL    HW184727   1.184   1.546   0.257
27610SOL    HW284728   1.223   1.540   0.403
27611SOL     OW84729   5.998  12.641   5.499
27611SOL    HW184730   6.031  12.629   5.588
27611SOL    HW284731   5.915  12.687   5.511
27612SOL     OW84732  12.740   1.649   5.833
27612SOL    HW184733  12.767   1.563   5.865
27612SOL    HW284734  12.796   1.711   5.880
27613SOL     OW84735   8.669  11.455   9.338
27613SOL    HW184736   8.631  11.367   9.336
27613SOL    HW284737   8.622  11.503   9.269
27614SOL     OW84738   5.082   5.130  11.372
27614SOL    HW184739   5.164   5.167  11.340
27614SOL    HW284740   5.094   5.035  11.364
27615SOL     OW84741   6.393   3.612   9.465
27615SOL    HW184742   6.329   3.623   9.535
27615SOL    HW284743   6.450   3.541   9.496
27616SOL     OW84744   1.548   3.249   6.615
27616SOL    HW184745   1.504   3.164   6.616
27616SOL    HW284746   1.486   3.308   6.659
27617SOL     OW84747   8.501   3.919  10.131
27617SOL    HW184748   8.418   3.962  10.153
27617SOL    HW284749   8.567   3.988  10.141
27618SOL     OW84750   6.022   0.725  13.340
27618SOL    HW184751   5.947   0.683  13.298
27618SOL    HW284752   6.001   0.726  13.433
27619SOL     OW84753   4.708  13.880  12.829
27619SOL    HW184754   4.701  13.896  12.735
27619SOL    HW284755   4.653  13.804  12.845
27620SOL     OW84756  11.249   1.169   2.824
27620SOL    HW184757  11.224   1.099   2.764
27620SOL    HW284758  11.291   1.234   2.768
27621SOL     OW84759   5.672   9.573   5.448
27621SOL    HW184760   5.668   9.532   5.362
27621SOL    HW284761   5.766   9.581   5.467
27622SOL     OW84762   3.249   1.990   3.881
27622SOL    HW184763   3.297   1.916   3.844
27622SOL    HW284764   3.157   1.973   3.859
27623SOL     OW84765   9.876   9.329   0.037
27623SOL    HW184766   9.826   9.354   0.115
27623SOL    HW284767   9.866   9.235   0.030
27624SOL     OW84768   5.399   9.083  13.779
27624SOL    HW184769   5.380   9.035  13.698
27624SOL    HW284770   5.363   9.170  13.764
27625SOL     OW84771   1.731   6.108   8.606
27625SOL    HW184772   1.709   6.201   8.615
27625SOL    HW284773   1.821   6.101   8.637
27626SOL     OW84774   2.700   2.307   3.721
27626SOL    HW184775   2.714   2.289   3.814
27626SOL    HW284776   2.787   2.301   3.682
27627SOL     OW84777  11.382   1.318   5.156
27627SOL    HW184778  11.318   1.270   5.208
27627SOL    HW284779  11.330   1.366   5.091
27628SOL     OW84780   0.255  13.106   5.697
27628SOL    HW184781   0.235  13.196   5.722
27628SOL    HW284782   0.283  13.113   5.605
27629SOL     OW84783   2.950   3.369   4.525
27629SOL    HW184784   2.956   3.294   4.584
27629SOL    HW284785   3.038   3.378   4.489
27630SOL     OW84786  13.934  13.792  13.688
27630SOL    HW184787  14.008  13.853  13.697
27630SOL    HW284788  13.889  13.821  13.609
27631SOL     OW84789  10.422   5.073   1.971
27631SOL    HW184790  10.495   5.065   1.909
27631SOL    HW284791  10.452   5.025   2.048
27632SOL     OW84792  11.609   8.748   6.247
27632SOL    HW184793  11.640   8.779   6.332
27632SOL    HW284794  11.529   8.699   6.267
27633SOL     OW84795   3.870  13.623   8.884
27633SOL    HW184796   3.867  13.718   8.877
27633SOL    HW284797   3.796  13.601   8.940
27634SOL     OW84798  11.036   1.838   7.135
27634SOL    HW184799  10.977   1.912   7.124
27634SOL    HW284800  11.087   1.859   7.213
27635SOL     OW84801   9.601  13.701   5.136
27635SOL    HW184802   9.647  13.723   5.217
27635SOL    HW284803   9.638  13.760   5.070
27636SOL     OW84804   1.226   9.417   0.116
27636SOL    HW184805   1.299   9.409   0.178
27636SOL    HW284806   1.155   9.454   0.168
27637SOL     OW84807  12.152  14.244   6.771
27637SOL    HW184808  12.166  14.312   6.706
27637SOL    HW284809  12.131  14.166   6.720
27638SOL     OW84810   6.744   3.164   1.414
27638SOL    HW184811   6.748   3.125   1.502
27638SOL    HW284812   6.667   3.220   1.416
27639SOL     OW84813   4.362   0.627   5.427
27639SOL    HW184814   4.350   0.719   5.451
27639SOL    HW284815   4.437   0.626   5.368
27640SOL     OW84816   5.666   5.460  12.380
27640SOL    HW184817   5.658   5.544  12.425
27640SOL    HW284818   5.732   5.476  12.312
27641SOL     OW84819   8.135  14.753   1.798
27641SOL    HW184820   8.041  14.774   1.794
27641SOL    HW284821   8.172  14.821   1.853
27642SOL     OW84822   1.974   6.598  13.356
27642SOL    HW184823   2.009   6.686  13.368
27642SOL    HW284824   2.038   6.555  13.299
27643SOL     OW84825   2.379  14.425   6.089
27643SOL    HW184826   2.464  14.398   6.054
27643SOL    HW284827   2.343  14.482   6.022
27644SOL     OW84828   1.866   7.769  10.048
27644SOL    HW184829   1.826   7.695  10.002
27644SOL    HW284830   1.804   7.841  10.037
27645SOL     OW84831  13.192   6.438   9.101
27645SOL    HW184832  13.103   6.471   9.103
27645SOL    HW284833  13.220   6.450   9.010
27646SOL     OW84834  12.601   2.969   4.571
27646SOL    HW184835  12.505   2.972   4.578
27646SOL    HW284836  12.625   2.886   4.613
27647SOL     OW84837   3.516   0.855   3.134
27647SOL    HW184838   3.559   0.917   3.192
27647SOL    HW284839   3.504   0.776   3.188
27648SOL     OW84840   5.872  12.380   0.149
27648SOL    HW184841   5.822  12.445   0.199
27648SOL    HW284842   5.816  12.359   0.075
27649SOL     OW84843   5.988   3.482   7.876
27649SOL    HW184844   5.972   3.408   7.818
27649SOL    HW284845   5.907   3.532   7.875
27650SOL     OW84846   9.481   1.981   5.462
27650SOL    HW184847   9.389   2.002   5.449
27650SOL    HW284848   9.481   1.890   5.492
27651SOL     OW84849   8.001   0.031   6.255
27651SOL    HW184850   7.979  14.813   6.226
27651SOL    HW284851   8.086   0.023   6.297
27652SOL     OW84852   8.423   9.083   5.904
27652SOL    HW184853   8.405   9.167   5.860
27652SOL    HW284854   8.416   9.103   5.997
27653SOL     OW84855   9.591  11.150  12.309
27653SOL    HW184856   9.571  11.115  12.396
27653SOL    HW284857   9.599  11.072  12.253
27654SOL     OW84858  14.527   5.782  12.019
27654SOL    HW184859  14.502   5.715  12.084
27654SOL    HW284860  14.452   5.842  12.017
27655SOL     OW84861   8.856   7.351   7.726
27655SOL    HW184862   8.770   7.350   7.683
27655SOL    HW284863   8.918   7.351   7.653
27656SOL     OW84864  13.973   6.238   5.601
27656SOL    HW184865  13.984   6.183   5.679
27656SOL    HW284866  14.046   6.215   5.544
27657SOL     OW84867  14.170   7.011   3.313
27657SOL    HW184868  14.145   6.944   3.249
27657SOL    HW284869  14.260   7.033   3.291
27658SOL     OW84870   7.390   7.268  10.158
27658SOL    HW184871   7.453   7.307  10.219
27658SOL    HW284872   7.392   7.325  10.081
27659SOL     OW84873   6.447   6.270  10.155
27659SOL    HW184874   6.437   6.182  10.192
27659SOL    HW284875   6.491   6.320  10.223
27660SOL     OW84876   9.462   7.449   2.655
27660SOL    HW184877   9.527   7.510   2.692
27660SOL    HW284878   9.476   7.453   2.561
27661SOL     OW84879   5.706  11.916  11.798
27661SOL    HW184880   5.797  11.903  11.821
27661SOL    HW284881   5.677  11.989  11.853
27662SOL     OW84882  13.401   5.051   7.009
27662SOL    HW184883  13.398   4.968   6.961
27662SOL    HW284884  13.309   5.072   7.025
27663SOL     OW84885   2.994  12.320   9.720
27663SOL    HW184886   2.969  12.384   9.653
27663SOL    HW284887   3.023  12.373   9.794
27664SOL     OW84888  13.712   7.381   9.715
27664SOL    HW184889  13.619   7.370   9.692
27664SOL    HW284890  13.727   7.476   9.709
27665SOL     OW84891   9.741   5.258  14.478
27665SOL    HW184892   9.746   5.170  14.440
27665SOL    HW284893   9.704   5.312  14.408
27666SOL     OW84894   7.939   2.945   5.107
27666SOL    HW184895   7.916   2.986   5.190
27666SOL    HW284896   8.009   3.000   5.071
27667SOL     OW84897  10.083   8.314   3.937
27667SOL    HW184898  10.155   8.377   3.947
27667SOL    HW284899  10.019   8.360   3.883
27668SOL     OW84900   2.959   4.542   7.655
27668SOL    HW184901   3.008   4.591   7.589
27668SOL    HW284902   3.027   4.499   7.708
27669SOL     OW84903  13.662   7.951  13.521
27669SOL    HW184904  13.633   8.036  13.553
27669SOL    HW284905  13.614   7.888  13.574
27670SOL     OW84906  10.875   1.667  13.747
27670SOL    HW184907  10.822   1.615  13.687
27670SOL    HW284908  10.820   1.679  13.824
27671SOL     OW84909   6.008   4.102  13.343
27671SOL    HW184910   6.036   4.024  13.294
27671SOL    HW284911   5.926   4.128  13.301
27672SOL     OW84912   1.091   2.384   8.338
27672SOL    HW184913   1.086   2.340   8.253
27672SOL    HW284914   1.173   2.432   8.336
27673SOL     OW84915  12.019   3.874  12.315
27673SOL    HW184916  12.050   3.881  12.405
27673SOL    HW284917  11.954   3.943  12.307
27674SOL     OW84918  11.441   7.426  11.368
27674SOL    HW184919  11.425   7.340  11.330
27674SOL    HW284920  11.459   7.482  11.292
27675SOL     OW84921  11.458   6.525   5.739
27675SOL    HW184922  11.461   6.605   5.790
27675SOL    HW284923  11.480   6.552   5.650
27676SOL     OW84924   1.844   0.379  11.825
27676SOL    HW184925   1.782   0.422  11.766
27676SOL    HW284926   1.877   0.305  11.774
27677SOL     OW84927   6.754   6.275   1.067
27677SOL    HW184928   6.701   6.211   1.113
27677SOL    HW284929   6.811   6.313   1.134
27678SOL     OW84930   1.439   5.822   6.609
27678SOL    HW184931   1.423   5.796   6.699
27678SOL    HW284932   1.408   5.913   6.605
27679SOL     OW84933  12.181   4.766  10.922
27679SOL    HW184934  12.171   4.826  10.848
27679SOL    HW284935  12.251   4.706  10.895
27680SOL     OW84936   6.327   6.796  13.798
27680SOL    HW184937   6.281   6.860  13.852
27680SOL    HW284938   6.279   6.794  13.716
27681SOL     OW84939  14.026   9.060   1.919
27681SOL    HW184940  14.114   9.066   1.883
27681SOL    HW284941  13.969   9.099   1.853
27682SOL     OW84942   9.253   9.926   6.115
27682SOL    HW184943   9.250   9.975   6.197
27682SOL    HW284944   9.218   9.987   6.049
27683SOL     OW84945  13.259   0.057  11.852
27683SOL    HW184946  13.287   0.139  11.811
27683SOL    HW284947  13.336  14.870  11.847
27684SOL     OW84948   6.014   3.202   2.709
27684SOL    HW184949   6.013   3.121   2.658
27684SOL    HW284950   5.935   3.196   2.763
27685SOL     OW84951   9.010   6.095   5.821
27685SOL    HW184952   9.008   6.061   5.731
27685SOL    HW284953   8.959   6.031   5.872
27686SOL     OW84954  12.204  12.482   8.232
27686SOL    HW184955  12.251  12.518   8.306
27686SOL    HW284956  12.219  12.545   8.161
27687SOL     OW84957   6.530   2.852   2.744
27687SOL    HW184958   6.571   2.937   2.761
27687SOL    HW284959   6.560   2.828   2.657
27688SOL     OW84960   5.257   6.595  10.630
27688SOL    HW184961   5.280   6.639  10.712
27688SOL    HW284962   5.213   6.515  10.656
27689SOL     OW84963   7.386  10.807   1.951
27689SOL    HW184964   7.331  10.791   1.875
27689SOL    HW284965   7.388  10.902   1.961
27690SOL     OW84966   9.224  10.867   0.242
27690SOL    HW184967   9.253  10.850   0.332
27690SOL    HW284968   9.256  10.955   0.223
27691SOL     OW84969   8.537   5.751   0.169
27691SOL    HW184970   8.581   5.713   0.094
27691SOL    HW284971   8.580   5.836   0.183
27692SOL     OW84972  10.225   4.638  14.864
27692SOL    HW184973  10.189   4.612  14.780
27692SOL    HW284974  10.263   4.724  14.849
27693SOL     OW84975   6.522  13.734   3.793
27693SOL    HW184976   6.475  13.807   3.833
27693SOL    HW284977   6.584  13.775   3.733
27694SOL     OW84978   9.615  10.739  13.307
27694SOL    HW184979   9.597  10.688  13.386
27694SOL    HW284980   9.548  10.712  13.244
27695SOL     OW84981  14.865   1.698   7.550
27695SOL    HW184982  14.824   1.761   7.610
27695SOL    HW284983   0.062   1.655   7.603
27696SOL     OW84984  11.285  14.808   0.891
27696SOL    HW184985  11.216  14.864   0.927
27696SOL    HW284986  11.251  14.778   0.807
27697SOL     OW84987  11.457   9.273   9.721
27697SOL    HW184988  11.506   9.329   9.659
27697SOL    HW284989  11.367   9.305   9.716
27698SOL     OW84990  10.639   3.203  14.590
27698SOL    HW184991  10.562   3.167  14.634
27698SOL    HW284992  10.703   3.132  14.589
27699SOL     OW84993   2.773   6.198   3.413
27699SOL    HW184994   2.766   6.227   3.323
27699SOL    HW284995   2.842   6.130   3.411
27700SOL     OW84996   1.898  13.826  11.118
27700SOL    HW184997   1.833  13.805  11.184
27700SOL    HW284998   1.885  13.918  11.098
27701SOL     OW84999   6.460   1.552   8.600
27701SOL    HW185000   6.414   1.495   8.662
27701SOL    HW285001   6.430   1.522   8.514
27702SOL     OW85002  10.531   5.371   7.213
27702SOL    HW185003  10.523   5.339   7.123
27702SOL    HW285004  10.617   5.339   7.242
27703SOL     OW85005  13.513   8.985   1.159
27703SOL    HW185006  13.607   9.002   1.170
27703SOL    HW285007  13.480   8.975   1.249
27704SOL     OW85008   3.157  13.481   5.096
27704SOL    HW185009   3.135  13.535   5.020
27704SOL    HW285010   3.104  13.402   5.085
27705SOL     OW85011   8.043  12.129   9.574
27705SOL    HW185012   8.020  12.123   9.666
27705SOL    HW285013   7.983  12.069   9.530
27706SOL     OW85014  14.723  13.651   9.784
27706SOL    HW185015  14.811  13.671   9.754
27706SOL    HW285016  14.735  13.615   9.872
27707SOL     OW85017   9.950  13.585   1.073
27707SOL    HW185018   9.991  13.585   0.986
27707SOL    HW285019  10.020  13.612   1.132
27708SOL     OW85020   2.475  12.083  10.731
27708SOL    HW185021   2.481  12.077  10.636
27708SOL    HW285022   2.562  12.113  10.758
27709SOL     OW85023   9.934  10.638   3.016
27709SOL    HW185024   9.860  10.664   2.961
27709SOL    HW285025   9.983  10.720   3.030
27710SOL     OW85026  13.281   9.752   6.079
27710SOL    HW185027  13.287   9.818   6.010
27710SOL    HW285028  13.371   9.740   6.108
27711SOL     OW85029   1.681   4.510   5.417
27711SOL    HW185030   1.721   4.590   5.452
27711SOL    HW285031   1.725   4.439   5.463
27712SOL     OW85032   7.998  14.752   1.538
27712SOL    HW185033   8.081  14.786   1.503
27712SOL    HW285034   8.001  14.658   1.520
27713SOL     OW85035   2.967   1.726   7.291
27713SOL    HW185036   2.962   1.714   7.196
27713SOL    HW285037   2.928   1.812   7.306
27714SOL     OW85038  14.233  13.291   8.063
27714SOL    HW185039  14.303  13.227   8.057
27714SOL    HW285040  14.156  13.246   8.028
27715SOL     OW85041  13.913  10.011   3.666
27715SOL    HW185042  13.981   9.949   3.639
27715SOL    HW285043  13.960  10.093   3.682
27716SOL     OW85044   8.805  11.676   8.372
27716SOL    HW185045   8.781  11.768   8.362
27716SOL    HW285046   8.843  11.651   8.288
27717SOL     OW85047   1.002   4.421   8.217
27717SOL    HW185048   1.010   4.403   8.310
27717SOL    HW285049   1.060   4.496   8.202
27718SOL     OW85050   4.109  13.616   5.610
27718SOL    HW185051   4.065  13.700   5.620
27718SOL    HW285052   4.135  13.614   5.518
27719SOL     OW85053   0.638   0.346   1.701
27719SOL    HW185054   0.566   0.362   1.762
27719SOL    HW285055   0.623   0.407   1.629
27720SOL     OW85056   2.149   0.016  10.207
27720SOL    HW185057   2.239   0.006  10.239
27720SOL    HW285058   2.155  14.867  10.113
27721SOL     OW85059   3.635  14.830   7.859
27721SOL    HW185060   3.704  14.869   7.805
27721SOL    HW285061   3.558   0.015   7.842
27722SOL     OW85062   7.737   9.035  10.413
27722SOL    HW185063   7.647   9.009  10.431
27722SOL    HW285064   7.731   9.092  10.337
27723SOL     OW85065   8.090   1.586   1.103
27723SOL    HW185066   8.154   1.637   1.152
27723SOL    HW285067   8.124   1.584   1.014
27724SOL     OW85068   2.280  14.706   8.221
27724SOL    HW185069   2.189  14.677   8.210
27724SOL    HW285070   2.273  14.801   8.229
27725SOL     OW85071   3.491  11.010  11.721
27725SOL    HW185072   3.560  11.024  11.656
27725SOL    HW285073   3.471  10.916  11.714
27726SOL     OW85074  13.120   7.955  11.843
27726SOL    HW185075  13.149   8.009  11.769
27726SOL    HW285076  13.171   7.988  11.917
27727SOL     OW85077  13.652   0.677   5.456
27727SOL    HW185078  13.678   0.588   5.433
27727SOL    HW285079  13.666   0.728   5.376
27728SOL     OW85080  12.555   4.307   6.882
27728SOL    HW185081  12.583   4.386   6.929
27728SOL    HW285082  12.605   4.237   6.923
27729SOL     OW85083  13.763   3.758  14.320
27729SOL    HW185084  13.705   3.710  14.380
27729SOL    HW285085  13.784   3.695  14.251
27730SOL     OW85086   7.133   7.406   2.123
27730SOL    HW185087   7.117   7.482   2.068
27730SOL    HW285088   7.082   7.336   2.082
27731SOL     OW85089   1.508   3.215  13.291
27731SOL    HW185090   1.433   3.155  13.292
27731SOL    HW285091   1.514   3.244  13.200
27732SOL     OW85092   5.387   0.490   6.357
27732SOL    HW185093   5.342   0.412   6.326
27732SOL    HW285094   5.434   0.523   6.281
27733SOL     OW85095   5.345   2.398  10.379
27733SOL    HW185096   5.406   2.342  10.426
27733SOL    HW285097   5.394   2.479  10.363
27734SOL     OW85098   8.980   3.710  11.479
27734SOL    HW185099   9.033   3.632  11.466
27734SOL    HW285100   8.950   3.704  11.570
27735SOL     OW85101  12.958   9.495   2.434
27735SOL    HW185102  13.009   9.547   2.372
27735SOL    HW285103  13.009   9.415   2.446
27736SOL     OW85104  13.014   2.964   7.035
27736SOL    HW185105  12.958   3.022   6.983
27736SOL    HW285106  13.080   2.933   6.974
27737SOL     OW85107  11.956  11.124  14.294
27737SOL    HW185108  11.866  11.142  14.321
27737SOL    HW285109  12.003  11.206  14.310
27738SOL     OW85110   5.103   4.932   7.827
27738SOL    HW185111   5.177   4.874   7.848
27738SOL    HW285112   5.110   4.947   7.733
27739SOL     OW85113   8.440   3.209  14.060
27739SOL    HW185114   8.356   3.177  14.091
27739SOL    HW285115   8.421   3.293  14.019
27740SOL     OW85116   4.920   2.358   3.422
27740SOL    HW185117   4.961   2.284   3.466
27740SOL    HW285118   4.827   2.350   3.444
27741SOL     OW85119  12.818   4.328   1.750
27741SOL    HW185120  12.767   4.371   1.818
27741SOL    HW285121  12.770   4.247   1.732
27742SOL     OW85122  10.620   3.916   0.123
27742SOL    HW185123  10.562   3.866   0.065
27742SOL    HW285124  10.708   3.890   0.097
27743SOL     OW85125   8.538  11.393   0.475
27743SOL    HW185126   8.605  11.328   0.499
27743SOL    HW285127   8.456  11.356   0.508
27744SOL     OW85128   9.492   3.952  12.903
27744SOL    HW185129   9.511   4.045  12.912
27744SOL    HW285130   9.398   3.947  12.884
27745SOL     OW85131  12.506  13.794  13.160
27745SOL    HW185132  12.599  13.772  13.160
27745SOL    HW285133  12.472  13.754  13.240
27746SOL     OW85134   9.448   2.125   6.860
27746SOL    HW185135   9.449   2.154   6.952
27746SOL    HW285136   9.506   2.187   6.816
27747SOL     OW85137   8.001   2.084   5.625
27747SOL    HW185138   7.952   2.003   5.610
27747SOL    HW285139   7.953   2.128   5.695
27748SOL     OW85140  14.108   4.486  14.631
27748SOL    HW185141  14.020   4.504  14.663
27748SOL    HW285142  14.148   4.572  14.618
27749SOL     OW85143   3.026   7.967   8.759
27749SOL    HW185144   2.958   7.906   8.787
27749SOL    HW285145   3.099   7.912   8.733
27750SOL     OW85146   1.839   5.904   1.089
27750SOL    HW185147   1.856   5.820   1.046
27750SOL    HW285148   1.808   5.881   1.176
27751SOL     OW85149   2.090  14.199   2.098
27751SOL    HW185150   2.102  14.289   2.131
27751SOL    HW285151   2.036  14.157   2.164
27752SOL     OW85152  14.013   0.506   2.616
27752SOL    HW185153  14.030   0.576   2.678
27752SOL    HW285154  13.938   0.537   2.565
27753SOL     OW85155   5.726   5.939   2.036
27753SOL    HW185156   5.778   5.958   2.114
27753SOL    HW285157   5.649   5.893   2.070
27754SOL     OW85158  10.761   3.578  13.025
27754SOL    HW185159  10.847   3.554  12.992
27754SOL    HW285160  10.703   3.568  12.950
27755SOL     OW85161  12.737   8.823   3.584
27755SOL    HW185162  12.672   8.845   3.651
27755SOL    HW285163  12.690   8.831   3.501
27756SOL     OW85164   5.950  14.862   2.450
27756SOL    HW185165   5.998  14.863   2.533
27756SOL    HW285166   5.911   0.079   2.444
27757SOL     OW85167  10.950   0.633   9.553
27757SOL    HW185168  10.903   0.608   9.632
27757SOL    HW285169  11.039   0.603   9.567
27758SOL     OW85170  10.297   3.980  14.467
27758SOL    HW185171  10.269   3.966  14.377
27758SOL    HW285172  10.292   3.894  14.508
27759SOL     OW85173   3.904   5.488  10.399
27759SOL    HW185174   3.991   5.512  10.433
27759SOL    HW285175   3.887   5.402  10.437
27760SOL     OW85176   7.813   4.042   5.211
27760SOL    HW185177   7.854   4.048   5.124
27760SOL    HW285178   7.772   4.127   5.224
27761SOL     OW85179   3.943   2.630   9.817
27761SOL    HW185180   3.909   2.683   9.889
27761SOL    HW285181   3.866   2.613   9.762
27762SOL     OW85182  10.582   3.020  10.753
27762SOL    HW185183  10.578   3.113  10.777
27762SOL    HW285184  10.567   3.019  10.659
27763SOL     OW85185   3.762   0.446  12.456
27763SOL    HW185186   3.818   0.391  12.401
27763SOL    HW285187   3.822   0.500  12.507
27764SOL     OW85188   4.303   6.206   6.361
27764SOL    HW185189   4.266   6.118   6.364
27764SOL    HW285190   4.233   6.260   6.324
27765SOL     OW85191   9.454   7.649  13.424
27765SOL    HW185192   9.436   7.674  13.515
27765SOL    HW285193   9.549   7.634  13.423
27766SOL     OW85194  13.419   1.161   1.220
27766SOL    HW185195  13.328   1.187   1.206
27766SOL    HW285196  13.468   1.243   1.216
27767SOL     OW85197   4.389   1.276   8.293
27767SOL    HW185198   4.392   1.200   8.234
27767SOL    HW285199   4.469   1.269   8.345
27768SOL     OW85200  11.432   7.130   9.674
27768SOL    HW185201  11.475   7.193   9.733
27768SOL    HW285202  11.369   7.183   9.625
27769SOL     OW85203   7.298   4.085   6.843
27769SOL    HW185204   7.211   4.046   6.834
27769SOL    HW285205   7.285   4.177   6.821
27770SOL     OW85206  14.744   7.623   5.145
27770SOL    HW185207  14.798   7.597   5.071
27770SOL    HW285208  14.785   7.702   5.178
27771SOL     OW85209   2.529  13.140   1.673
27771SOL    HW185210   2.464  13.070   1.668
27771SOL    HW285211   2.515  13.191   1.594
27772SOL     OW85212   9.352  12.185  14.604
27772SOL    HW185213   9.272  12.187  14.655
27772SOL    HW285214   9.338  12.115  14.540
27773SOL     OW85215   7.103   9.027  14.171
27773SOL    HW185216   7.131   9.116  14.192
27773SOL    HW285217   7.097   8.982  14.255
27774SOL     OW85218   8.729   5.538   4.754
27774SOL    HW185219   8.742   5.485   4.832
27774SOL    HW285220   8.817   5.566   4.729
27775SOL     OW85221   7.061  13.525   5.776
27775SOL    HW185222   6.981  13.554   5.819
27775SOL    HW285223   7.048  13.545   5.683
27776SOL     OW85224   5.482  11.704   5.971
27776SOL    HW185225   5.523  11.629   5.928
27776SOL    HW285226   5.484  11.683   6.064
27777SOL     OW85227   4.293   6.465   9.024
27777SOL    HW185228   4.250   6.539   9.067
27777SOL    HW285229   4.269   6.473   8.932
27778SOL     OW85230   7.989  13.536   6.287
27778SOL    HW185231   7.902  13.559   6.319
27778SOL    HW285232   8.027  13.483   6.358
27779SOL     OW85233   6.010   9.079  12.454
27779SOL    HW185234   6.067   9.076  12.530
27779SOL    HW285235   5.921   9.079  12.491
27780SOL     OW85236   6.606  12.583   9.643
27780SOL    HW185237   6.557  12.504   9.623
27780SOL    HW285238   6.590  12.641   9.569
27781SOL     OW85239  10.675   8.876   1.206
27781SOL    HW185240  10.660   8.786   1.176
27781SOL    HW285241  10.605   8.891   1.270
27782SOL     OW85242  12.987  12.717  13.966
27782SOL    HW185243  13.014  12.787  14.025
27782SOL    HW285244  12.984  12.758  13.880
27783SOL     OW85245  14.049  14.094   1.872
27783SOL    HW185246  14.137  14.078   1.905
27783SOL    HW285247  14.031  14.020   1.814
27784SOL     OW85248   1.742  12.470  13.071
27784SOL    HW185249   1.669  12.445  13.126
27784SOL    HW285250   1.798  12.524  13.127
27785SOL     OW85251  13.670   7.844   6.586
27785SOL    HW185252  13.709   7.910   6.528
27785SOL    HW285253  13.662   7.888   6.671
27786SOL     OW85254   8.525   3.577   9.263
27786SOL    HW185255   8.551   3.506   9.205
27786SOL    HW285256   8.465   3.536   9.326
27787SOL     OW85257   5.232   1.156   5.009
27787SOL    HW185258   5.152   1.155   5.062
27787SOL    HW285259   5.266   1.067   5.014
27788SOL     OW85260  13.682   1.971   2.610
27788SOL    HW185261  13.745   2.010   2.672
27788SOL    HW285262  13.629   2.045   2.581
27789SOL     OW85263   2.461   3.960   4.827
27789SOL    HW185264   2.426   3.984   4.741
27789SOL    HW285265   2.555   3.947   4.811
27790SOL     OW85266   4.848   4.695   8.913
27790SOL    HW185267   4.795   4.647   8.848
27790SOL    HW285268   4.870   4.777   8.869
27791SOL     OW85269  13.844   5.530   7.892
27791SOL    HW185270  13.896   5.453   7.866
27791SOL    HW285271  13.765   5.493   7.931
27792SOL     OW85272  13.365   0.079   8.742
27792SOL    HW185273  13.335   0.168   8.722
27792SOL    HW285274  13.461   0.087   8.746
27793SOL     OW85275   4.268  13.264   5.609
27793SOL    HW185276   4.287  13.174   5.636
27793SOL    HW285277   4.221  13.255   5.526
27794SOL     OW85278  12.573  11.566   2.697
27794SOL    HW185279  12.667  11.561   2.711
27794SOL    HW285280  12.550  11.482   2.657
27795SOL     OW85281   1.762   1.561   2.681
27795SOL    HW185282   1.824   1.490   2.669
27795SOL    HW285283   1.807   1.624   2.737
27796SOL     OW85284   3.104   0.054  14.775
27796SOL    HW185285   3.138   0.060  14.685
27796SOL    HW285286   3.127  14.836  14.803
27797SOL     OW85287  13.391   9.653   0.692
27797SOL    HW185288  13.424   9.646   0.781
27797SOL    HW285289  13.447   9.719   0.651
27798SOL     OW85290   6.481   8.879   3.656
27798SOL    HW185291   6.555   8.889   3.716
27798SOL    HW285292   6.418   8.945   3.686
27799SOL     OW85293   3.798   1.870  13.581
27799SOL    HW185294   3.834   1.782  13.595
27799SOL    HW285295   3.703   1.856  13.575
27800SOL     OW85296   1.470   5.163   1.979
27800SOL    HW185297   1.498   5.122   2.061
27800SOL    HW285298   1.447   5.253   2.004
27801SOL     OW85299  11.400   8.935   5.583
27801SOL    HW185300  11.477   8.987   5.560
27801SOL    HW285301  11.391   8.948   5.678
27802SOL     OW85302   2.449   8.256   6.614
27802SOL    HW185303   2.502   8.205   6.553
27802SOL    HW285304   2.379   8.195   6.640
27803SOL     OW85305   0.561   8.100  12.777
27803SOL    HW185306   0.653   8.124  12.767
27803SOL    HW285307   0.561   8.005  12.784
27804SOL     OW85308   8.921   5.614   4.327
27804SOL    HW185309   9.013   5.614   4.300
27804SOL    HW285310   8.879   5.677   4.268
27805SOL     OW85311   3.111  12.872   7.115
27805SOL    HW185312   3.053  12.843   7.185
27805SOL    HW285313   3.102  12.968   7.116
27806SOL     OW85314  14.743   0.781   8.386
27806SOL    HW185315  14.819   0.777   8.328
27806SOL    HW285316  14.780   0.781   8.475
27807SOL     OW85317  10.123   0.797  11.876
27807SOL    HW185318  10.194   0.839  11.924
27807SOL    HW285319  10.101   0.859  11.807
27808SOL     OW85320   4.431   0.145   2.815
27808SOL    HW185321   4.422   0.240   2.825
27808SOL    HW285322   4.358   0.109   2.864
27809SOL     OW85323  12.419   1.548   9.145
27809SOL    HW185324  12.411   1.548   9.241
27809SOL    HW285325  12.499   1.598   9.127
27810SOL     OW85326   7.445   5.271   1.880
27810SOL    HW185327   7.540   5.272   1.871
27810SOL    HW285328   7.430   5.276   1.975
27811SOL     OW85329  11.600   8.113   0.164
27811SOL    HW185330  11.515   8.096   0.202
27811SOL    HW285331  11.589   8.096   0.070
27812SOL     OW85332  13.385  11.323  12.882
27812SOL    HW185333  13.344  11.359  12.961
27812SOL    HW285334  13.368  11.229  12.887
27813SOL     OW85335   9.772   6.339   5.972
27813SOL    HW185336   9.719   6.323   5.894
27813SOL    HW285337   9.728   6.410   6.017
27814SOL     OW85338  11.146   4.959   1.044
27814SOL    HW185339  11.061   4.976   1.003
27814SOL    HW285340  11.200   4.923   0.974
27815SOL     OW85341   9.621   9.434  13.034
27815SOL    HW185342   9.618   9.530  13.031
27815SOL    HW285343   9.600   9.406  12.945
27816SOL     OW85344   1.603  13.652   0.155
27816SOL    HW185345   1.533  13.589   0.169
27816SOL    HW285346   1.591  13.682   0.065
27817SOL     OW85347   8.754   8.933   4.358
27817SOL    HW185348   8.684   8.875   4.388
27817SOL    HW285349   8.823   8.874   4.329
27818SOL     OW85350   7.180   9.569   8.797
27818SOL    HW185351   7.263   9.523   8.784
27818SOL    HW285352   7.206   9.661   8.805
27819SOL     OW85353  13.515   8.359   3.387
27819SOL    HW185354  13.439   8.375   3.443
27819SOL    HW285355  13.484   8.297   3.321
27820SOL     OW85356   2.571  12.216  12.099
27820SOL    HW185357   2.539  12.204  12.010
27820SOL    HW285358   2.666  12.226  12.089
27821SOL     OW85359  10.563  13.100   6.560
27821SOL    HW185360  10.609  13.049   6.627
27821SOL    HW285361  10.625  13.106   6.488
27822SOL     OW85362   3.455   9.188  14.348
27822SOL    HW185363   3.416   9.101  14.352
27822SOL    HW285364   3.385   9.244  14.316
27823SOL     OW85365  13.420   0.190   1.214
27823SOL    HW185366  13.427   0.272   1.164
27823SOL    HW285367  13.402   0.123   1.149
27824SOL     OW85368   7.958   4.138   9.436
27824SOL    HW185369   7.912   4.161   9.356
27824SOL    HW285370   7.894   4.089   9.487
27825SOL     OW85371   0.417   9.131  11.886
27825SOL    HW185372   0.471   9.172  11.954
27825SOL    HW285373   0.348   9.195  11.868
27826SOL     OW85374  12.391  14.662   4.569
27826SOL    HW185375  12.475  14.707   4.566
27826SOL    HW285376  12.405  14.581   4.520
27827SOL     OW85377   3.708  10.905   5.365
27827SOL    HW185378   3.691  10.824   5.317
27827SOL    HW285379   3.803  10.905   5.379
27828SOL     OW85380  14.001  13.126  13.792
27828SOL    HW185381  14.073  13.189  13.800
27828SOL    HW285382  13.966  13.141  13.705
27829SOL     OW85383   5.100   4.345   6.237
27829SOL    HW185384   5.189   4.313   6.220
27829SOL    HW285385   5.094   4.427   6.187
27830SOL     OW85386   4.018   2.626   0.037
27830SOL    HW185387   4.112   2.643   0.047
27830SOL    HW285388   4.012   2.533   0.018
27831SOL     OW85389   0.844   6.520  12.573
27831SOL    HW185390   0.808   6.572  12.645
27831SOL    HW285391   0.855   6.583  12.502
27832SOL     OW85392   7.975   0.283   7.648
27832SOL    HW185393   7.891   0.328   7.659
27832SOL    HW285394   7.952   0.199   7.608
27833SOL     OW85395  11.503  14.345  12.989
27833SOL    HW185396  11.470  14.395  13.064
27833SOL    HW285397  11.526  14.259  13.025
27834SOL     OW85398   7.691   2.186  12.910
27834SOL    HW185399   7.655   2.149  12.990
27834SOL    HW285400   7.783   2.203  12.930
27835SOL     OW85401   0.189   5.361  11.769
27835SOL    HW185402   0.275   5.321  11.783
27835SOL    HW285403   0.207   5.441  11.720
27836SOL     OW85404   7.189  10.741   1.750
27836SOL    HW185405   7.117  10.769   1.693
27836SOL    HW285406   7.223  10.662   1.708
27837SOL     OW85407   9.925  11.495   5.213
27837SOL    HW185408   9.853  11.558   5.211
27837SOL    HW285409   9.915  11.450   5.297
27838SOL     OW85410   5.630  12.373  11.515
27838SOL    HW185411   5.713  12.418  11.497
27838SOL    HW285412   5.579  12.384  11.434
27839SOL     OW85413   5.543  11.921   4.986
27839SOL    HW185414   5.572  11.994   5.040
27839SOL    HW285415   5.568  11.843   5.036
27840SOL     OW85416   6.122  10.410   9.208
27840SOL    HW185417   6.202  10.443   9.168
27840SOL    HW285418   6.078  10.361   9.139
27841SOL     OW85419   2.655   3.971   0.907
27841SOL    HW185420   2.638   4.019   0.988
27841SOL    HW285421   2.695   3.889   0.936
27842SOL     OW85422   9.359   5.283   1.208
27842SOL    HW185423   9.440   5.331   1.222
27842SOL    HW285424   9.382   5.192   1.227
27843SOL     OW85425   6.309   3.780  10.895
27843SOL    HW185426   6.336   3.688  10.899
27843SOL    HW285427   6.243   3.782  10.825
27844SOL     OW85428   3.482   6.406   9.786
27844SOL    HW185429   3.537   6.418   9.708
27844SOL    HW285430   3.393   6.427   9.756
27845SOL     OW85431  12.390   6.644  14.101
27845SOL    HW185432  12.449   6.635  14.026
27845SOL    HW285433  12.419   6.576  14.162
27846SOL     OW85434  10.165   4.019   4.139
27846SOL    HW185435  10.166   3.968   4.220
27846SOL    HW285436  10.199   4.105   4.165
27847SOL     OW85437   0.265   9.692   3.313
27847SOL    HW185438   0.246   9.612   3.362
27847SOL    HW285439   0.344   9.672   3.264
27848SOL     OW85440   4.569  13.921   7.287
27848SOL    HW185441   4.653  13.940   7.247
27848SOL    HW285442   4.511  13.899   7.214
27849SOL     OW85443   2.577  14.494   0.918
27849SOL    HW185444   2.545  14.485   1.008
27849SOL    HW285445   2.623  14.412   0.901
27850SOL     OW85446  10.446   4.291   6.134
27850SOL    HW185447  10.376   4.237   6.171
27850SOL    HW285448  10.477   4.242   6.058
27851SOL     OW85449   1.135   4.114   1.850
27851SOL    HW185450   1.108   4.129   1.940
27851SOL    HW285451   1.190   4.190   1.829
27852SOL     OW85452   1.770   1.839  10.600
27852SOL    HW185453   1.758   1.932  10.579
27852SOL    HW285454   1.865   1.829  10.608
27853SOL     OW85455  11.715  13.270  13.027
27853SOL    HW185456  11.749  13.276  12.938
27853SOL    HW285457  11.793  13.269  13.083
27854SOL     OW85458  11.253   0.310  10.523
27854SOL    HW185459  11.227   0.286  10.434
27854SOL    HW285460  11.250   0.405  10.524
27855SOL     OW85461   3.912   8.641   2.230
27855SOL    HW185462   3.868   8.704   2.287
27855SOL    HW285463   3.892   8.671   2.142
27856SOL     OW85464   2.259   2.496   9.394
27856SOL    HW185465   2.171   2.530   9.410
27856SOL    HW285466   2.311   2.526   9.470
27857SOL     OW85467   2.186   0.908   0.227
27857SOL    HW185468   2.212   0.913   0.319
27857SOL    HW285469   2.132   0.986   0.213
27858SOL     OW85470  12.966   4.883   0.659
27858SOL    HW185471  13.003   4.844   0.581
27858SOL    HW285472  12.893   4.825   0.683
27859SOL     OW85473  10.722   7.685  13.786
27859SOL    HW185474  10.715   7.714  13.695
27859SOL    HW285475  10.799   7.630  13.789
27860SOL     OW85476  14.172  11.213   2.580
27860SOL    HW185477  14.229  11.183   2.651
27860SOL    HW285478  14.087  11.227   2.622
27861SOL     OW85479   5.011  11.046  14.867
27861SOL    HW185480   5.028  10.952   0.004
27861SOL    HW285481   4.950  11.054  14.794
27862SOL     OW85482   7.987   4.900   0.536
27862SOL    HW185483   7.944   4.815   0.544
27862SOL    HW285484   8.030   4.898   0.451
27863SOL     OW85485  13.104   4.482   9.099
27863SOL    HW185486  13.098   4.517   9.010
27863SOL    HW285487  13.177   4.529   9.139
27864SOL     OW85488   5.901   0.729  11.402
27864SOL    HW185489   5.880   0.674  11.477
27864SOL    HW285490   5.996   0.719  11.391
27865SOL     OW85491   3.584   2.807   5.989
27865SOL    HW185492   3.617   2.766   5.908
27865SOL    HW285493   3.546   2.734   6.038
27866SOL     OW85494   4.391   2.934   2.571
27866SOL    HW185495   4.477   2.954   2.535
27866SOL    HW285496   4.341   3.015   2.561
27867SOL     OW85497   4.894   9.315   4.230
27867SOL    HW185498   4.972   9.369   4.232
27867SOL    HW285499   4.894   9.269   4.315
27868SOL     OW85500   7.426   9.330  11.733
27868SOL    HW185501   7.376   9.411  11.743
27868SOL    HW285502   7.401   9.277  11.809
27869SOL     OW85503   1.514   2.961   1.057
27869SOL    HW185504   1.455   3.017   1.007
27869SOL    HW285505   1.459   2.890   1.089
27870SOL     OW85506   8.881  12.592  13.374
27870SOL    HW185507   8.903  12.499  13.383
27870SOL    HW285508   8.804  12.593  13.317
27871SOL     OW85509   6.937   0.101   0.932
27871SOL    HW185510   6.891   0.033   0.882
27871SOL    HW285511   6.878   0.121   1.005
27872SOL     OW85512   3.237   9.784  11.673
27872SOL    HW185513   3.323   9.777  11.714
27872SOL    HW285514   3.178   9.805  11.745
27873SOL     OW85515   4.080   2.318   8.308
27873SOL    HW185516   4.063   2.257   8.380
27873SOL    HW285517   4.160   2.363   8.333
27874SOL     OW85518   6.537   3.103   9.198
27874SOL    HW185519   6.551   3.026   9.252
27874SOL    HW285520   6.588   3.172   9.241
27875SOL     OW85521   6.736   1.779   2.611
27875SOL    HW185522   6.650   1.770   2.651
27875SOL    HW285523   6.729   1.856   2.555
27876SOL     OW85524   7.518   7.167   5.955
27876SOL    HW185525   7.505   7.092   5.898
27876SOL    HW285526   7.432   7.210   5.958
27877SOL     OW85527   9.666   8.631   3.728
27877SOL    HW185528   9.603   8.700   3.746
27877SOL    HW285529   9.642   8.600   3.640
27878SOL     OW85530   5.734   0.961   8.866
27878SOL    HW185531   5.760   0.909   8.789
27878SOL    HW285532   5.815   0.976   8.913
27879SOL     OW85533  14.411   2.529  13.217
27879SOL    HW185534  14.486   2.585  13.196
27879SOL    HW285535  14.430   2.495  13.304
27880SOL     OW85536  12.714   3.514   4.552
27880SOL    HW185537  12.644   3.576   4.530
27880SOL    HW285538  12.784   3.569   4.587
27881SOL     OW85539  13.609   2.203  11.135
27881SOL    HW185540  13.528   2.247  11.107
27881SOL    HW285541  13.677   2.241  11.080
27882SOL     OW85542   4.066  10.824  12.552
27882SOL    HW185543   3.973  10.843  12.538
27882SOL    HW285544   4.097  10.895  12.608
27883SOL     OW85545   2.988   6.821   5.252
27883SOL    HW185546   2.923   6.763   5.292
27883SOL    HW285547   3.060   6.763   5.227
27884SOL     OW85548   0.932   8.729   3.069
27884SOL    HW185549   0.905   8.809   3.024
27884SOL    HW285550   0.914   8.659   3.006
27885SOL     OW85551   6.613   4.082   2.194
27885SOL    HW185552   6.674   4.042   2.256
27885SOL    HW285553   6.614   4.175   2.216
27886SOL     OW85554  11.395   8.650   8.999
27886SOL    HW185555  11.424   8.734   8.964
27886SOL    HW285556  11.303   8.643   8.972
27887SOL     OW85557  12.718   5.809   6.866
27887SOL    HW185558  12.798   5.861   6.854
27887SOL    HW285559  12.743   5.742   6.930
27888SOL     OW85560   8.759   8.979   0.174
27888SOL    HW185561   8.695   8.949   0.239
27888SOL    HW285562   8.710   9.040   0.119
27889SOL     OW85563  12.457  10.739  11.311
27889SOL    HW185564  12.487  10.713  11.398
27889SOL    HW285565  12.442  10.656  11.265
27890SOL     OW85566  10.766   1.054  14.239
27890SOL    HW185567  10.830   1.008  14.294
27890SOL    HW285568  10.721   1.113  14.299
27891SOL     OW85569  14.594   0.391   1.763
27891SOL    HW185570  14.576   0.450   1.837
27891SOL    HW285571  14.580   0.304   1.799
27892SOL     OW85572   0.172   8.608   6.129
27892SOL    HW185573   0.203   8.519   6.146
27892SOL    HW285574   0.123   8.632   6.207
27893SOL     OW85575  10.166   4.941   3.020
27893SOL    HW185576  10.098   4.892   2.973
27893SOL    HW285577  10.200   5.003   2.956
27894SOL     OW85578   2.783   4.213   6.078
27894SOL    HW185579   2.833   4.185   6.155
27894SOL    HW285580   2.800   4.145   6.013
27895SOL     OW85581  10.255   9.483  14.509
27895SOL    HW185582  10.309   9.455  14.435
27895SOL    HW285583  10.273   9.418  14.577
27896SOL     OW85584  12.654   6.353  11.777
27896SOL    HW185585  12.654   6.415  11.849
27896SOL    HW285586  12.570   6.308  11.783
27897SOL     OW85587  11.471   8.652   1.950
27897SOL    HW185588  11.501   8.739   1.977
27897SOL    HW285589  11.521   8.591   2.003
27898SOL     OW85590  11.017   2.294   8.812
27898SOL    HW185591  11.095   2.298   8.757
27898SOL    HW285592  11.022   2.371   8.868
27899SOL     OW85593  10.660   6.027   9.740
27899SOL    HW185594  10.742   6.005   9.783
27899SOL    HW285595  10.592   5.996   9.799
27900SOL     OW85596  11.254   3.495   6.973
27900SOL    HW185597  11.319   3.564   6.988
27900SOL    HW285598  11.272   3.465   6.884
27901SOL     OW85599   0.044   4.761   9.365
27901SOL    HW185600   0.009   4.809   9.291
27901SOL    HW285601   0.095   4.690   9.325
27902SOL     OW85602   7.493  10.098   6.957
27902SOL    HW185603   7.457  10.059   6.878
27902SOL    HW285604   7.428  10.079   7.025
27903SOL     OW85605   3.324   1.832   0.094
27903SOL    HW185606   3.351   1.907   0.145
27903SOL    HW285607   3.298   1.869   0.009
27904SOL     OW85608   4.863  12.534   9.760
27904SOL    HW185609   4.810  12.469   9.714
27904SOL    HW285610   4.921  12.570   9.692
27905SOL     OW85611   3.490   3.435   6.526
27905SOL    HW185612   3.442   3.517   6.533
27905SOL    HW285613   3.427   3.373   6.490
27906SOL     OW85614   1.800   7.996  13.778
27906SOL    HW185615   1.730   7.930  13.772
27906SOL    HW285616   1.836   7.985  13.866
27907SOL     OW85617   1.939  10.036  14.576
27907SOL    HW185618   1.975  10.113  14.620
27907SOL    HW285619   1.993  10.026  14.498
27908SOL     OW85620   9.296  14.467   4.708
27908SOL    HW185621   9.367  14.418   4.668
27908SOL    HW285622   9.220  14.410   4.701
27909SOL     OW85623   6.215   2.386   5.777
27909SOL    HW185624   6.230   2.399   5.870
27909SOL    HW285625   6.221   2.473   5.739
27910SOL     OW85626   1.645   9.817   9.986
27910SOL    HW185627   1.667   9.908   9.968
27910SOL    HW285628   1.561   9.820  10.032
27911SOL     OW85629   4.189   9.112   3.392
27911SOL    HW185630   4.109   9.060   3.388
27911SOL    HW285631   4.202   9.142   3.302
27912SOL     OW85632   5.351  10.951   4.936
27912SOL    HW185633   5.351  10.857   4.919
27912SOL    HW285634   5.260  10.977   4.923
27913SOL     OW85635  14.797  10.137   7.025
27913SOL    HW185636  14.788  10.159   6.933
27913SOL    HW285637  14.718  10.173   7.066
27914SOL     OW85638   3.938  13.477   6.122
27914SOL    HW185639   3.920  13.536   6.196
27914SOL    HW285640   3.879  13.507   6.053
27915SOL     OW85641   6.403   3.421   8.892
27915SOL    HW185642   6.440   3.333   8.891
27915SOL    HW285643   6.447   3.466   8.821
27916SOL     OW85644   8.987   4.832   0.413
27916SOL    HW185645   8.935   4.908   0.387
27916SOL    HW285646   8.951   4.759   0.362
27917SOL     OW85647   6.968   0.092  14.058
27917SOL    HW185648   6.993   0.008  14.097
27917SOL    HW285649   6.990   0.156  14.126
27918SOL     OW85650  10.104  12.449   9.071
27918SOL    HW185651  10.038  12.425   9.136
27918SOL    HW285652  10.098  12.381   9.004
27919SOL     OW85653   1.043   0.005   7.965
27919SOL    HW185654   1.104   0.031   7.896
27919SOL    HW285655   1.010   0.087   8.000
27920SOL     OW85656  10.679  13.931  11.085
27920SOL    HW185657  10.651  14.010  11.131
27920SOL    HW285658  10.772  13.923  11.105
27921SOL     OW85659  12.904   7.834   5.434
27921SOL    HW185660  12.842   7.906   5.435
27921SOL    HW285661  12.990   7.875   5.421
27922SOL     OW85662  12.763   1.618  12.594
27922SOL    HW185663  12.749   1.653  12.682
27922SOL    HW285664  12.685   1.642  12.546
27923SOL     OW85665   8.873   3.895  10.044
27923SOL    HW185666   8.887   3.888  10.138
27923SOL    HW285667   8.778   3.904  10.035
27924SOL     OW85668  11.418  13.465   0.509
27924SOL    HW185669  11.506  13.501   0.503
27924SOL    HW285670  11.420  13.386   0.455
27925SOL     OW85671   5.690   6.471   0.577
27925SOL    HW185672   5.767   6.508   0.620
27925SOL    HW285673   5.681   6.384   0.615
27926SOL     OW85674   4.096   3.798   3.184
27926SOL    HW185675   4.064   3.838   3.265
27926SOL    HW285676   4.190   3.786   3.198
27927SOL     OW85677  10.000  10.575   5.016
27927SOL    HW185678  10.017  10.567   4.922
27927SOL    HW285679   9.923  10.631   5.022
27928SOL     OW85680   3.602   7.423  10.848
27928SOL    HW185681   3.607   7.505  10.799
27928SOL    HW285682   3.516   7.425  10.890
27929SOL     OW85683   2.972   8.329   8.052
27929SOL    HW185684   3.061   8.304   8.026
27929SOL    HW285685   2.977   8.424   8.062
27930SOL     OW85686  14.536   1.302   2.179
27930SOL    HW185687  14.467   1.243   2.150
27930SOL    HW285688  14.501   1.390   2.164
27931SOL     OW85689   6.634   0.905   5.290
27931SOL    HW185690   6.687   0.949   5.224
27931SOL    HW285691   6.689   0.831   5.319
27932SOL     OW85692   7.434   5.347   0.589
27932SOL    HW185693   7.395   5.276   0.538
27932SOL    HW285694   7.364   5.411   0.601
27933SOL     OW85695  12.031  11.678  11.936
27933SOL    HW185696  12.051  11.761  11.979
27933SOL    HW285697  12.115  11.647  11.903
27934SOL     OW85698   0.482   6.192   5.095
27934SOL    HW185699   0.444   6.125   5.152
27934SOL    HW285700   0.438   6.180   5.011
27935SOL     OW85701   5.812   1.057   7.424
27935SOL    HW185702   5.793   1.030   7.514
27935SOL    HW285703   5.802   1.152   7.425
27936SOL     OW85704   8.252   6.013   7.493
27936SOL    HW185705   8.222   6.101   7.518
27936SOL    HW285706   8.341   6.007   7.529
27937SOL     OW85707  11.636  14.810   4.908
27937SOL    HW185708  11.665  14.742   4.968
27937SOL    HW285709  11.576  14.865   4.960
27938SOL     OW85710   7.014  12.377   5.990
27938SOL    HW185711   7.037  12.367   6.082
27938SOL    HW285712   7.012  12.288   5.956
27939SOL     OW85713   7.847   1.150  14.402
27939SOL    HW185714   7.833   1.164  14.496
27939SOL    HW285715   7.939   1.125  14.396
27940SOL     OW85716  11.519   1.660  14.218
27940SOL    HW185717  11.451   1.725  14.204
27940SOL    HW285718  11.600   1.703  14.189
27941SOL     OW85719   4.396  12.948  14.689
27941SOL    HW185720   4.457  12.919  14.757
27941SOL    HW285721   4.445  12.938  14.607
27942SOL     OW85722   6.418   3.480   6.778
27942SOL    HW185723   6.342   3.429   6.748
27942SOL    HW285724   6.441   3.536   6.704
27943SOL     OW85725   2.896   7.116  13.336
27943SOL    HW185726   2.922   7.119  13.243
27943SOL    HW285727   2.936   7.036  13.369
27944SOL     OW85728   0.159   7.287   3.176
27944SOL    HW185729   0.181   7.212   3.231
27944SOL    HW285730   0.197   7.363   3.221
27945SOL     OW85731  12.005   7.287   1.837
27945SOL    HW185732  11.982   7.346   1.909
27945SOL    HW285733  12.097   7.266   1.851
27946SOL     OW85734  11.896   5.898   8.249
27946SOL    HW185735  11.959   5.834   8.215
27946SOL    HW285736  11.816   5.881   8.199
27947SOL     OW85737   1.750   4.390   1.833
27947SOL    HW185738   1.699   4.319   1.872
27947SOL    HW285739   1.685   4.447   1.792
27948SOL     OW85740   1.003   4.467   1.072
27948SOL    HW185741   0.945   4.542   1.057
27948SOL    HW285742   1.090   4.505   1.083
27949SOL     OW85743   1.791   6.010  11.649
27949SOL    HW185744   1.793   5.920  11.617
27949SOL    HW285745   1.731   6.055  11.589
27950SOL     OW85746   6.363  10.435   3.808
27950SOL    HW185747   6.383  10.392   3.725
27950SOL    HW285748   6.385  10.527   3.793
27951SOL     OW85749   6.992  12.890   3.070
27951SOL    HW185750   7.007  12.817   3.011
27951SOL    HW285751   6.994  12.967   3.013
27952SOL     OW85752  13.163   2.667  10.785
27952SOL    HW185753  13.201   2.753  10.766
27952SOL    HW285754  13.080   2.667  10.738
27953SOL     OW85755   5.519  13.325  12.230
27953SOL    HW185756   5.565  13.241  12.225
27953SOL    HW285757   5.449  13.310  12.293
27954SOL     OW85758   6.364  10.017  11.189
27954SOL    HW185759   6.429  10.022  11.259
27954SOL    HW285760   6.410   9.973  11.117
27955SOL     OW85761  12.762   7.742   0.760
27955SOL    HW185762  12.760   7.832   0.730
27955SOL    HW285763  12.670   7.719   0.773
27956SOL     OW85764  14.314  14.763   5.572
27956SOL    HW185765  14.239  14.820   5.585
27956SOL    HW285766  14.387  14.822   5.552
27957SOL     OW85767   4.057   0.393  12.341
27957SOL    HW185768   4.070   0.309  12.296
27957SOL    HW285769   4.112   0.454  12.292
27958SOL     OW85770   4.914   1.467   3.616
27958SOL    HW185771   4.908   1.487   3.709
27958SOL    HW285772   4.898   1.373   3.610
27959SOL     OW85773   8.926   4.528   0.034
27959SOL    HW185774   8.926   4.472  14.826
27959SOL    HW285775   9.010   4.513   0.076
27960SOL     OW85776   1.045   7.151   5.784
27960SOL    HW185777   1.043   7.246   5.773
27960SOL    HW285778   1.137   7.128   5.783
27961SOL     OW85779   0.884   8.897   2.423
27961SOL    HW185780   0.849   8.986   2.427
27961SOL    HW285781   0.849   8.861   2.341
27962SOL     OW85782  13.730   6.817   0.934
27962SOL    HW185783  13.728   6.723   0.913
27962SOL    HW285784  13.805   6.850   0.885
27963SOL     OW85785  11.619   5.450   3.120
27963SOL    HW185786  11.708   5.424   3.101
27963SOL    HW285787  11.606   5.531   3.069
27964SOL     OW85788  13.701   5.989  13.855
27964SOL    HW185789  13.757   6.034  13.791
27964SOL    HW285790  13.720   5.896  13.842
27965SOL     OW85791   5.698   4.801   6.445
27965SOL    HW185792   5.749   4.778   6.523
27965SOL    HW285793   5.700   4.897   6.443
27966SOL     OW85794   6.074   5.800  12.879
27966SOL    HW185795   6.137   5.761  12.818
27966SOL    HW285796   5.990   5.759  12.857
27967SOL     OW85797   5.064  12.588  12.078
27967SOL    HW185798   5.027  12.650  12.141
27967SOL    HW285799   5.150  12.623  12.056
27968SOL     OW85800   0.288  13.229  10.166
27968SOL    HW185801   0.244  13.314  10.171
27968SOL    HW285802   0.354  13.231  10.235
27969SOL     OW85803  10.902   5.939  12.715
27969SOL    HW185804  10.839   5.866  12.715
27969SOL    HW285805  10.849   6.016  12.733
27970SOL     OW85806   7.728   5.981   4.270
27970SOL    HW185807   7.724   5.974   4.365
27970SOL    HW285808   7.652   6.034   4.247
27971SOL     OW85809   4.536   5.461  14.750
27971SOL    HW185810   4.490   5.533  14.793
27971SOL    HW285811   4.566   5.405  14.821
27972SOL     OW85812   6.328  13.119  10.620
27972SOL    HW185813   6.326  13.076  10.534
27972SOL    HW285814   6.241  13.159  10.629
27973SOL     OW85815   3.158   8.560   7.333
27973SOL    HW185816   3.250   8.587   7.335
27973SOL    HW285817   3.124   8.583   7.419
27974SOL     OW85818   5.336   4.932  14.082
27974SOL    HW185819   5.314   4.978  14.164
27974SOL    HW285820   5.432   4.935  14.078
27975SOL     OW85821   8.573  12.183   6.491
27975SOL    HW185822   8.506  12.115   6.482
27975SOL    HW285823   8.556  12.223   6.576
27976SOL     OW85824  10.602  12.963   4.458
27976SOL    HW185825  10.596  13.018   4.535
27976SOL    HW285826  10.613  13.024   4.385
27977SOL     OW85827   4.113  12.654   9.420
27977SOL    HW185828   4.103  12.612   9.505
27977SOL    HW285829   4.181  12.720   9.433
27978SOL     OW85830   0.799  13.755   1.241
27978SOL    HW185831   0.810  13.827   1.179
27978SOL    HW285832   0.849  13.683   1.202
27979SOL     OW85833   0.225   4.425   3.173
27979SOL    HW185834   0.268   4.386   3.097
27979SOL    HW285835   0.186   4.350   3.219
27980SOL     OW85836   0.338   3.014   0.731
27980SOL    HW185837   0.425   2.974   0.735
27980SOL    HW285838   0.351   3.102   0.769
27981SOL     OW85839  11.834   2.893   7.238
27981SOL    HW185840  11.787   2.812   7.257
27981SOL    HW285841  11.781   2.962   7.277
27982SOL     OW85842  12.204   7.664  10.685
27982SOL    HW185843  12.154   7.746  10.681
27982SOL    HW285844  12.151   7.601  10.636
27983SOL     OW85845  13.520  14.617   4.637
27983SOL    HW185846  13.488  14.689   4.691
27983SOL    HW285847  13.609  14.600   4.670
27984SOL     OW85848   0.498  13.420   8.023
27984SOL    HW185849   0.540  13.340   7.991
27984SOL    HW285850   0.570  13.472   8.060
27985SOL     OW85851   4.982  13.765   7.537
27985SOL    HW185852   4.979  13.670   7.548
27985SOL    HW285853   5.002  13.779   7.445
27986SOL     OW85854   9.869   2.840  10.962
27986SOL    HW185855   9.937   2.837  10.895
27986SOL    HW285856   9.787   2.830  10.913
27987SOL     OW85857   4.694   4.975   9.629
27987SOL    HW185858   4.682   5.054   9.577
27987SOL    HW285859   4.729   4.911   9.567
27988SOL     OW85860   1.131  14.567  13.436
27988SOL    HW185861   1.056  14.622  13.415
27988SOL    HW285862   1.195  14.587  13.367
27989SOL     OW85863  11.101   0.383  10.895
27989SOL    HW185864  11.013   0.391  10.858
27989SOL    HW285865  11.087   0.376  10.990
27990SOL     OW85866   6.712   5.882   9.196
27990SOL    HW185867   6.640   5.941   9.221
27990SOL    HW285868   6.739   5.841   9.278
27991SOL     OW85869   9.300   6.745  12.244
27991SOL    HW185870   9.346   6.811  12.297
27991SOL    HW285871   9.348   6.744  12.161
27992SOL     OW85872   1.134   2.162   5.218
27992SOL    HW185873   1.093   2.172   5.132
27992SOL    HW285874   1.061   2.170   5.280
27993SOL     OW85875  14.476   4.688  13.778
27993SOL    HW185876  14.429   4.770  13.796
27993SOL    HW285877  14.568   4.710  13.792
27994SOL     OW85878   2.055   5.343   6.469
27994SOL    HW185879   2.007   5.404   6.412
27994SOL    HW285880   2.003   5.263   6.468
27995SOL     OW85881  12.813   7.024   1.377
27995SOL    HW185882  12.763   6.943   1.389
27995SOL    HW285883  12.872   7.006   1.304
27996SOL     OW85884  14.805   4.908  13.096
27996SOL    HW185885  14.787   4.960  13.175
27996SOL    HW285886  14.736   4.935  13.035
27997SOL     OW85887  11.771  10.742   3.767
27997SOL    HW185888  11.799  10.795   3.841
27997SOL    HW285889  11.797  10.653   3.789
27998SOL     OW85890  12.157   7.204   0.057
27998SOL    HW185891  12.193   7.118   0.038
27998SOL    HW285892  12.103   7.192   0.135
27999SOL     OW85893  11.079  11.954   9.473
27999SOL    HW185894  10.993  11.984   9.443
27999SOL    HW285895  11.060  11.893   9.544
28000SOL     OW85896  14.344   7.635  10.640
28000SOL    HW185897  14.344   7.723  10.603
28000SOL    HW285898  14.262   7.596  10.611
28001SOL     OW85899   1.048  14.158  12.543
28001SOL    HW185900   0.984  14.207  12.491
28001SOL    HW285901   1.046  14.070  12.506
28002SOL     OW85902  11.706  11.873  11.393
28002SOL    HW185903  11.716  11.817  11.470
28002SOL    HW285904  11.789  11.921  11.388
28003SOL     OW85905   7.382   6.691   3.487
28003SOL    HW185906   7.336   6.651   3.413
28003SOL    HW285907   7.452   6.742   3.447
28004SOL     OW85908   2.243  14.377   7.081
28004SOL    HW185909   2.201  14.393   6.996
28004SOL    HW285910   2.180  14.323   7.129
28005SOL     OW85911   9.807   3.565  11.141
28005SOL    HW185912   9.827   3.620  11.217
28005SOL    HW285913   9.878   3.501  11.138
28006SOL     OW85914   2.040  11.470  10.439
28006SOL    HW185915   2.110  11.405  10.429
28006SOL    HW285916   2.085  11.548  10.470
28007SOL     OW85917  12.766  13.962   2.425
28007SOL    HW185918  12.708  13.889   2.404
28007SOL    HW285919  12.755  13.975   2.519
28008SOL     OW85920   5.660   0.073   2.052
28008SOL    HW185921   5.634   0.158   2.017
28008SOL    HW285922   5.601   0.058   2.126
28009SOL     OW85923   8.728  14.174   5.623
28009SOL    HW185924   8.698  14.237   5.689
28009SOL    HW285925   8.755  14.098   5.674
28010SOL     OW85926   5.731   9.691  14.330
28010SOL    HW185927   5.727   9.633  14.255
28010SOL    HW285928   5.759   9.635  14.403
28011SOL     OW85929   0.980   1.185   6.220
28011SOL    HW185930   0.984   1.094   6.191
28011SOL    HW285931   1.015   1.183   6.309
28012SOL     OW85932   0.084   7.916   4.032
28012SOL    HW185933   0.059   7.988   3.973
28012SOL    HW285934   0.089   7.957   4.118
28013SOL     OW85935  12.348  11.913   6.537
28013SOL    HW185936  12.276  11.959   6.581
28013SOL    HW285937  12.367  11.839   6.594
28014SOL     OW85938  10.736  10.330   8.341
28014SOL    HW185939  10.761  10.386   8.267
28014SOL    HW285940  10.765  10.242   8.316
28015SOL     OW85941   8.086   6.454  11.704
28015SOL    HW185942   8.010   6.508  11.725
28015SOL    HW285943   8.116   6.420  11.788
28016SOL     OW85944   6.923  14.609   9.791
28016SOL    HW185945   7.002  14.660   9.775
28016SOL    HW285946   6.913  14.554   9.713
28017SOL     OW85947   6.613   5.926  13.968
28017SOL    HW185948   6.591   5.905  14.059
28017SOL    HW285949   6.708   5.938  13.968
28018SOL     OW85950  11.237   1.157   1.404
28018SOL    HW185951  11.310   1.102   1.433
28018SOL    HW285952  11.191   1.181   1.485
28019SOL     OW85953   3.603   7.306   2.447
28019SOL    HW185954   3.670   7.296   2.515
28019SOL    HW285955   3.652   7.313   2.365
28020SOL     OW85956   0.470   5.634   5.341
28020SOL    HW185957   0.388   5.600   5.304
28020SOL    HW285958   0.493   5.571   5.410
28021SOL     OW85959   2.194   3.580   5.196
28021SOL    HW185960   2.289   3.588   5.202
28021SOL    HW285961   2.162   3.624   5.274
28022SOL     OW85962   0.110  10.118   9.001
28022SOL    HW185963   0.088  10.065   9.078
28022SOL    HW285964   0.030  10.119   8.949
28023SOL     OW85965   6.802   5.140  11.001
28023SOL    HW185966   6.858   5.189  11.061
28023SOL    HW285967   6.810   5.185  10.918
28024SOL     OW85968  14.041   5.015  13.855
28024SOL    HW185969  14.035   5.097  13.805
28024SOL    HW285970  13.985   5.029  13.931
28025SOL     OW85971   4.324   2.547  13.107
28025SOL    HW185972   4.318   2.491  13.184
28025SOL    HW285973   4.276   2.627  13.131
28026SOL     OW85974   2.756   3.211  11.159
28026SOL    HW185975   2.721   3.293  11.125
28026SOL    HW285976   2.768   3.157  11.081
28027SOL     OW85977  14.013   8.963   0.370
28027SOL    HW185978  13.976   8.883   0.408
28027SOL    HW285979  13.937   9.018   0.353
28028SOL     OW85980   7.758  11.831   0.033
28028SOL    HW185981   7.811  11.887   0.090
28028SOL    HW285982   7.667  11.853   0.055
28029SOL     OW85983   3.289   3.951   1.047
28029SOL    HW185984   3.275   3.934   0.954
28029SOL    HW285985   3.271   4.044   1.057
28030SOL     OW85986   3.939  11.949   7.883
28030SOL    HW185987   3.978  12.010   7.821
28030SOL    HW285988   4.003  11.877   7.888
28031SOL     OW85989  13.705  11.299  12.214
28031SOL    HW185990  13.747  11.221  12.179
28031SOL    HW285991  13.670  11.272  12.299
28032SOL     OW85992   1.196   9.466   1.362
28032SOL    HW185993   1.180   9.557   1.385
28032SOL    HW285994   1.189   9.464   1.266
28033SOL     OW85995   2.620   4.200  13.012
28033SOL    HW185996   2.541   4.189  13.065
28033SOL    HW285997   2.657   4.112  13.005
28034SOL     OW85998   8.436  12.162   3.998
28034SOL    HW185999   8.374  12.220   3.953
28034SOL    HW286000   8.521  12.183   3.959
28035SOL     OW86001   6.102   3.935   0.818
28035SOL    HW186002   6.163   3.872   0.854
28035SOL    HW286003   6.140   3.959   0.733
28036SOL     OW86004   6.871   0.949  13.166
28036SOL    HW186005   6.890   1.040  13.143
28036SOL    HW286006   6.784   0.933  13.131
28037SOL     OW86007   1.129   8.335  11.871
28037SOL    HW186008   1.105   8.243  11.880
28037SOL    HW286009   1.074   8.367  11.800
28038SOL     OW86010   6.912   8.005   1.736
28038SOL    HW186011   6.894   7.912   1.724
28038SOL    HW286012   7.002   8.008   1.769
28039SOL     OW86013   9.402   9.575   3.052
28039SOL    HW186014   9.409   9.533   3.137
28039SOL    HW286015   9.428   9.665   3.067
28040SOL     OW86016   2.150   1.447  10.178
28040SOL    HW186017   2.240   1.426  10.201
28040SOL    HW286018   2.124   1.514  10.241
28041SOL     OW86019   5.564   7.379   7.305
28041SOL    HW186020   5.534   7.469   7.320
28041SOL    HW286021   5.598   7.351   7.390
28042SOL     OW86022  11.549   4.181   3.858
28042SOL    HW186023  11.585   4.167   3.945
28042SOL    HW286024  11.466   4.227   3.873
28043SOL     OW86025   1.916  12.755   9.567
28043SOL    HW186026   2.006  12.767   9.538
28043SOL    HW286027   1.868  12.727   9.489
28044SOL     OW86028   1.716   7.058   9.289
28044SOL    HW186029   1.795   7.007   9.276
28044SOL    HW286030   1.665   7.044   9.210
28045SOL     OW86031   4.092   6.658  12.449
28045SOL    HW186032   4.159   6.611  12.399
28045SOL    HW286033   4.009   6.626  12.413
28046SOL     OW86034   2.260   4.263   4.743
28046SOL    HW186035   2.211   4.281   4.823
28046SOL    HW286036   2.289   4.348   4.713
28047SOL     OW86037   3.545   9.595   5.315
28047SOL    HW186038   3.487   9.647   5.371
28047SOL    HW286039   3.522   9.504   5.334
28048SOL     OW86040   6.761   6.671  11.027
28048SOL    HW186041   6.729   6.717  10.949
28048SOL    HW286042   6.741   6.579  11.010
28049SOL     OW86043  12.343   5.677  11.424
28049SOL    HW186044  12.401   5.657  11.497
28049SOL    HW286045  12.343   5.772  11.418
28050SOL     OW86046   9.541   6.868  12.269
28050SOL    HW186047   9.523   6.900  12.357
28050SOL    HW286048   9.523   6.943  12.212
28051SOL     OW86049   4.274  13.991   8.371
28051SOL    HW186050   4.204  14.010   8.433
28051SOL    HW286051   4.295  14.076   8.333
28052SOL     OW86052   1.834   0.550   8.284
28052SOL    HW186053   1.914   0.585   8.322
28052SOL    HW286054   1.798   0.493   8.352
28053SOL     OW86055   9.216   7.086   5.028
28053SOL    HW186056   9.171   7.169   5.046
28053SOL    HW286057   9.149   7.030   4.990
28054SOL     OW86058  12.286   8.571   5.396
28054SOL    HW186059  12.327   8.589   5.311
28054SOL    HW286060  12.235   8.650   5.415
28055SOL     OW86061  13.533   0.808   2.475
28055SOL    HW186062  13.570   0.724   2.448
28055SOL    HW286063  13.449   0.813   2.428
28056SOL     OW86064   3.196   5.071   9.165
28056SOL    HW186065   3.111   5.080   9.123
28056SOL    HW286066   3.226   4.983   9.141
28057SOL     OW86067   5.102   9.006   6.056
28057SOL    HW186068   5.109   9.023   5.962
28057SOL    HW286069   5.075   8.915   6.062
28058SOL     OW86070   1.566  12.509   6.019
28058SOL    HW186071   1.482  12.509   6.065
28058SOL    HW286072   1.627  12.465   6.079
28059SOL     OW86073   5.784  14.275   2.266
28059SOL    HW186074   5.871  14.292   2.302
28059SOL    HW286075   5.761  14.355   2.219
28060SOL     OW86076  10.967   6.162   3.152
28060SOL    HW186077  11.015   6.136   3.073
28060SOL    HW286078  10.903   6.092   3.165
28061SOL     OW86079  10.628   7.658   9.800
28061SOL    HW186080  10.558   7.639   9.738
28061SOL    HW286081  10.698   7.597   9.777
28062SOL     OW86082   4.515   4.418   0.098
28062SOL    HW186083   4.559   4.370   0.028
28062SOL    HW286084   4.429   4.439   0.062
28063SOL     OW86085  11.280   5.274   5.453
28063SOL    HW186086  11.281   5.272   5.357
28063SOL    HW286087  11.370   5.299   5.477
28064SOL     OW86088  14.353   4.215   7.839
28064SOL    HW186089  14.342   4.122   7.858
28064SOL    HW286090  14.435   4.220   7.789
28065SOL     OW86091  14.178  11.880   3.398
28065SOL    HW186092  14.185  11.961   3.347
28065SOL    HW286093  14.140  11.908   3.481
28066SOL     OW86094  12.798  11.266  11.437
28066SOL    HW186095  12.890  11.287  11.456
28066SOL    HW286096  12.793  11.171  11.447
28067SOL     OW86097   5.062  13.204   9.574
28067SOL    HW186098   5.149  13.243   9.574
28067SOL    HW286099   5.068  13.130   9.635
28068SOL     OW86100   8.866  12.576  14.102
28068SOL    HW186101   8.864  12.509  14.033
28068SOL    HW286102   8.954  12.612  14.098
28069SOL     OW86103   5.617   7.672   0.079
28069SOL    HW186104   5.588   7.708  14.865
28069SOL    HW286105   5.664   7.592   0.056
28070SOL     OW86106   1.090  11.271   8.490
28070SOL    HW186107   1.083  11.309   8.578
28070SOL    HW286108   1.132  11.338   8.438
28071SOL     OW86109   3.302   5.871   2.966
28071SOL    HW186110   3.277   5.779   2.960
28071SOL    HW286111   3.353   5.887   2.887
28072SOL     OW86112   1.946   6.136   1.029
28072SOL    HW186113   1.873   6.180   0.984
28072SOL    HW286114   1.904   6.068   1.081
28073SOL     OW86115  12.533   2.944  10.744
28073SOL    HW186116  12.560   3.034  10.728
28073SOL    HW286117  12.518   2.907  10.657
28074SOL     OW86118  10.029  10.719   9.434
28074SOL    HW186119   9.954  10.775   9.451
28074SOL    HW286120  10.040  10.720   9.339
28075SOL     OW86121   5.995   7.246   9.872
28075SOL    HW186122   6.017   7.155   9.853
28075SOL    HW286123   6.070   7.279   9.922
28076SOL     OW86124   0.732   2.462   5.667
28076SOL    HW186125   0.670   2.401   5.627
28076SOL    HW286126   0.685   2.545   5.672
28077SOL     OW86127   9.829   1.417   2.659
28077SOL    HW186128   9.885   1.472   2.605
28077SOL    HW286129   9.777   1.479   2.711
28078SOL     OW86130   3.931   4.408   6.841
28078SOL    HW186131   3.870   4.365   6.782
28078SOL    HW286132   3.916   4.366   6.926
28079SOL     OW86133  14.278   8.377   3.678
28079SOL    HW186134  14.231   8.316   3.735
28079SOL    HW286135  14.363   8.390   3.721
28080SOL     OW86136   1.290   5.637  13.604
28080SOL    HW186137   1.235   5.596  13.671
28080SOL    HW286138   1.292   5.573  13.533
28081SOL     OW86139   6.588   1.259  12.917
28081SOL    HW186140   6.658   1.290  12.974
28081SOL    HW286141   6.571   1.332  12.858
28082SOL     OW86142   8.365   6.689   2.909
28082SOL    HW186143   8.330   6.606   2.876
28082SOL    HW286144   8.395   6.669   2.997
28083SOL     OW86145   8.680   2.984   0.914
28083SOL    HW186146   8.649   2.961   1.002
28083SOL    HW286147   8.640   2.918   0.857
28084SOL     OW86148   8.684   0.088   7.630
28084SOL    HW186149   8.690   0.045   7.715
28084SOL    HW286150   8.747   0.160   7.636
28085SOL     OW86151   7.673   4.875  13.808
28085SOL    HW186152   7.713   4.788  13.814
28085SOL    HW286153   7.747   4.935  13.798
28086SOL     OW86154  10.753   2.605   4.154
28086SOL    HW186155  10.819   2.674   4.150
28086SOL    HW286156  10.671   2.651   4.171
28087SOL     OW86157  13.993   5.453  11.614
28087SOL    HW186158  13.914   5.487  11.573
28087SOL    HW286159  14.015   5.516  11.682
28088SOL     OW86160  10.670  11.672   9.617
28088SOL    HW186161  10.703  11.618   9.545
28088SOL    HW286162  10.721  11.645   9.693
28089SOL     OW86163  12.062  12.368   7.342
28089SOL    HW186164  12.133  12.309   7.318
28089SOL    HW286165  11.989  12.341   7.286
28090SOL     OW86166   3.765   2.810   8.320
28090SOL    HW186167   3.708   2.772   8.387
28090SOL    HW286168   3.756   2.752   8.245
28091SOL     OW86169  13.098   5.623   3.620
28091SOL    HW186170  13.138   5.537   3.635
28091SOL    HW286171  13.162   5.685   3.656
28092SOL     OW86172   2.757   7.291   9.079
28092SOL    HW186173   2.691   7.222   9.073
28092SOL    HW286174   2.834   7.255   9.035
28093SOL     OW86175  11.206   2.709  11.642
28093SOL    HW186176  11.273   2.658  11.688
28093SOL    HW286177  11.197   2.666  11.557
28094SOL     OW86178   6.841   4.315   9.927
28094SOL    HW186179   6.808   4.245   9.870
28094SOL    HW286180   6.776   4.320   9.998
28095SOL     OW86181   7.955   7.709   7.852
28095SOL    HW186182   7.991   7.773   7.913
28095SOL    HW286183   7.880   7.755   7.812
28096SOL     OW86184   0.074   3.878  14.731
28096SOL    HW186185   0.015   3.821  14.682
28096SOL    HW286186   0.115   3.933  14.663
28097SOL     OW86187   6.071   5.588  10.324
28097SOL    HW186188   6.150   5.534  10.331
28097SOL    HW286189   6.007   5.544  10.381
28098SOL     OW86190  11.999   4.594   6.771
28098SOL    HW186191  12.068   4.559   6.715
28098SOL    HW286192  11.918   4.576   6.724
28099SOL     OW86193  11.789   4.952   8.888
28099SOL    HW186194  11.714   4.988   8.936
28099SOL    HW286195  11.860   4.950   8.952
28100SOL     OW86196   8.832   3.764  12.129
28100SOL    HW186197   8.854   3.826  12.060
28100SOL    HW286198   8.914   3.719  12.148
28101SOL     OW86199   6.391   7.012  10.451
28101SOL    HW186200   6.337   6.941  10.487
28101SOL    HW286201   6.461   6.967  10.404
28102SOL     OW86202  11.641  13.162   8.654
28102SOL    HW186203  11.716  13.201   8.609
28102SOL    HW286204  11.610  13.093   8.594
28103SOL     OW86205   5.511  10.817   0.635
28103SOL    HW186206   5.421  10.790   0.652
28103SOL    HW286207   5.508  10.861   0.551
28104SOL     OW86208   5.572  13.278   0.854
28104SOL    HW186209   5.523  13.198   0.833
28104SOL    HW286210   5.506  13.347   0.856
28105SOL     OW86211   1.005   3.126   6.698
28105SOL    HW186212   1.090   3.133   6.655
28105SOL    HW286213   0.964   3.212   6.684
28106SOL     OW86214  10.230   8.949   5.783
28106SOL    HW186215  10.266   8.972   5.869
28106SOL    HW286216  10.288   8.881   5.750
28107SOL     OW86217   3.048   8.953   6.976
28107SOL    HW186218   3.056   9.002   6.894
28107SOL    HW286219   3.088   9.010   7.041
28108SOL     OW86220   5.266   2.733   4.069
28108SOL    HW186221   5.199   2.801   4.062
28108SOL    HW286222   5.233   2.672   4.135
28109SOL     OW86223   9.011   0.078  11.742
28109SOL    HW186224   8.975   0.166  11.754
28109SOL    HW286225   9.073   0.088  11.670
28110SOL     OW86226  12.959   7.127   7.971
28110SOL    HW186227  12.917   7.122   8.056
28110SOL    HW286228  12.887   7.131   7.908
28111SOL     OW86229   0.492  14.365   2.363
28111SOL    HW186230   0.559  14.413   2.412
28111SOL    HW286231   0.507  14.273   2.387
28112SOL     OW86232   0.789   6.425  13.693
28112SOL    HW186233   0.835   6.366  13.753
28112SOL    HW286234   0.832   6.411  13.608
28113SOL     OW86235   4.230   3.540   4.621
28113SOL    HW186236   4.275   3.458   4.644
28113SOL    HW286237   4.208   3.530   4.529
28114SOL     OW86238  12.385   4.811  13.960
28114SOL    HW186239  12.394   4.722  13.928
28114SOL    HW286240  12.329   4.804  14.037
28115SOL     OW86241   3.930  10.764  13.266
28115SOL    HW186242   3.869  10.808  13.326
28115SOL    HW286243   3.982  10.834  13.228
28116SOL     OW86244   4.943  10.819   7.526
28116SOL    HW186245   4.927  10.786   7.614
28116SOL    HW286246   4.962  10.741   7.474
28117SOL     OW86247   4.902   6.149  12.117
28117SOL    HW186248   4.877   6.062  12.086
28117SOL    HW286249   4.983   6.135  12.165
28118SOL     OW86250  12.849  13.443   5.773
28118SOL    HW186251  12.846  13.394   5.691
28118SOL    HW286252  12.770  13.415   5.820
28119SOL     OW86253   2.037   8.779   9.364
28119SOL    HW186254   2.038   8.815   9.452
28119SOL    HW286255   2.094   8.702   9.369
28120SOL     OW86256   5.511  11.669   5.229
28120SOL    HW186257   5.568  11.624   5.166
28120SOL    HW286258   5.564  11.674   5.309
28121SOL     OW86259  12.692   2.366   8.761
28121SOL    HW186260  12.740   2.326   8.688
28121SOL    HW286261  12.659   2.448   8.725
28122SOL     OW86262   2.622   0.821  11.947
28122SOL    HW186263   2.564   0.889  11.982
28122SOL    HW286264   2.599   0.816  11.854
28123SOL     OW86265   1.988   7.781   3.054
28123SOL    HW186266   1.969   7.771   2.961
28123SOL    HW286267   2.047   7.856   3.059
28124SOL     OW86268  11.173   4.519  13.234
28124SOL    HW186269  11.079   4.505  13.227
28124SOL    HW286270  11.195   4.579  13.163
28125SOL     OW86271   3.900   1.586  13.828
28125SOL    HW186272   3.937   1.509  13.872
28125SOL    HW286273   3.808   1.563  13.813
28126SOL     OW86274   1.651  11.392   4.672
28126SOL    HW186275   1.679  11.307   4.707
28126SOL    HW286276   1.722  11.452   4.695
28127SOL     OW86277   1.901   4.630   2.075
28127SOL    HW186278   1.991   4.661   2.080
28127SOL    HW286279   1.906   4.551   2.021
28128SOL     OW86280   5.759  12.510   1.288
28128SOL    HW186281   5.723  12.435   1.335
28128SOL    HW286282   5.736  12.585   1.342
28129SOL     OW86283   3.363  10.355   1.420
28129SOL    HW186284   3.404  10.400   1.494
28129SOL    HW286285   3.372  10.416   1.347
28130SOL     OW86286   2.977   6.882  10.813
28130SOL    HW186287   3.042   6.812  10.812
28130SOL    HW286288   2.971   6.910  10.722
28131SOL     OW86289  14.398   1.670  10.230
28131SOL    HW186290  14.374   1.724  10.155
28131SOL    HW286291  14.471   1.616  10.200
28132SOL     OW86292   8.502   5.218   5.849
28132SOL    HW186293   8.456   5.180   5.774
28132SOL    HW286294   8.582   5.166   5.857
28133SOL     OW86295  11.831   5.615   6.957
28133SOL    HW186296  11.814   5.698   6.913
28133SOL    HW286297  11.751   5.564   6.943
28134SOL     OW86298  13.495   9.597   8.333
28134SOL    HW186299  13.446   9.532   8.382
28134SOL    HW286300  13.546   9.644   8.399
28135SOL     OW86301   4.758   4.718  12.655
28135SOL    HW186302   4.754   4.784  12.724
28135SOL    HW286303   4.757   4.769  12.574
28136SOL     OW86304  12.241   3.890   2.482
28136SOL    HW186305  12.257   3.832   2.556
28136SOL    HW286306  12.169   3.946   2.511
28137SOL     OW86307   3.913   6.418   3.324
28137SOL    HW186308   4.001   6.385   3.341
28137SOL    HW286309   3.927   6.506   3.288
28138SOL     OW86310   1.117   7.661   0.567
28138SOL    HW186311   1.178   7.636   0.498
28138SOL    HW286312   1.110   7.756   0.560
28139SOL     OW86313   7.889   9.105  12.948
28139SOL    HW186314   7.875   9.159  12.870
28139SOL    HW286315   7.955   9.041  12.922
28140SOL     OW86316   7.141  11.484   4.233
28140SOL    HW186317   7.192  11.517   4.307
28140SOL    HW286318   7.201  11.423   4.189
28141SOL     OW86319  11.934   9.582   6.472
28141SOL    HW186320  11.861   9.609   6.417
28141SOL    HW286321  11.947   9.656   6.532
28142SOL     OW86322   5.207   6.336  14.374
28142SOL    HW186323   5.175   6.411  14.424
28142SOL    HW286324   5.274   6.297  14.430
28143SOL     OW86325   9.171   6.789  11.096
28143SOL    HW186326   9.085   6.749  11.083
28143SOL    HW286327   9.231   6.732  11.048
28144SOL     OW86328   6.926   1.237   2.146
28144SOL    HW186329   7.007   1.233   2.197
28144SOL    HW286330   6.862   1.274   2.206
28145SOL     OW86331   5.206  12.594   4.293
28145SOL    HW186332   5.209  12.527   4.360
28145SOL    HW286333   5.260  12.666   4.328
28146SOL     OW86334   0.091  11.619   2.291
28146SOL    HW186335   0.101  11.524   2.303
28146SOL    HW286336   0.082  11.630   2.196
28147SOL     OW86337   7.818  10.251  13.015
28147SOL    HW186338   7.891  10.308  13.038
28147SOL    HW286339   7.776  10.230  13.099
28148SOL     OW86340   4.440   5.400  13.619
28148SOL    HW186341   4.525   5.438  13.598
28148SOL    HW286342   4.404   5.460  13.685
28149SOL     OW86343   7.159   9.832   8.856
28149SOL    HW186344   7.088   9.789   8.809
28149SOL    HW286345   7.135   9.925   8.856
28150SOL     OW86346  14.210   8.120   9.517
28150SOL    HW186347  14.226   8.190   9.454
28150SOL    HW286348  14.215   8.040   9.465
28151SOL     OW86349   1.867   4.889   6.304
28151SOL    HW186350   1.816   4.936   6.238
28151SOL    HW286351   1.873   4.950   6.377
28152SOL     OW86352   5.548   2.580  10.338
28152SOL    HW186353   5.630   2.554  10.381
28152SOL    HW286354   5.571   2.660  10.291
28153SOL     OW86355   0.606   6.214   4.222
28153SOL    HW186356   0.586   6.174   4.137
28153SOL    HW286357   0.698   6.190   4.238
28154SOL     OW86358  11.058  10.644   1.798
28154SOL    HW186359  11.015  10.712   1.746
28154SOL    HW286360  11.148  10.643   1.766
28155SOL     OW86361  14.366  12.249   7.714
28155SOL    HW186362  14.445  12.291   7.679
28155SOL    HW286363  14.340  12.186   7.646
28156SOL     OW86364   0.963  14.382   1.876
28156SOL    HW186365   0.976  14.409   1.785
28156SOL    HW286366   0.977  14.461   1.927
28157SOL     OW86367   3.056   1.422  12.113
28157SOL    HW186368   3.095   1.350  12.163
28157SOL    HW286369   3.038   1.490  12.178
28158SOL     OW86370  10.130   8.753   2.381
28158SOL    HW186371  10.105   8.700   2.306
28158SOL    HW286372  10.115   8.696   2.457
28159SOL     OW86373  11.970  13.358  13.170
28159SOL    HW186374  11.917  13.437  13.173
28159SOL    HW286375  11.974  13.328  13.261
28160SOL     OW86376   4.165   4.599  14.040
28160SOL    HW186377   4.242   4.551  14.068
28160SOL    HW286378   4.182   4.621  13.948
28161SOL     OW86379   6.609   1.109   9.026
28161SOL    HW186380   6.546   1.131   9.095
28161SOL    HW286381   6.668   1.185   9.023
28162SOL     OW86382   9.274   6.689   3.374
28162SOL    HW186383   9.296   6.768   3.325
28162SOL    HW286384   9.194   6.657   3.333
28163SOL     OW86385   4.867  12.992  14.706
28163SOL    HW186386   4.790  12.965  14.757
28163SOL    HW286387   4.879  13.084  14.730
28164SOL     OW86388  10.324  14.230   3.513
28164SOL    HW186389  10.345  14.308   3.565
28164SOL    HW286390  10.342  14.256   3.422
28165SOL     OW86391   8.003   4.440  13.306
28165SOL    HW186392   8.009   4.371  13.240
28165SOL    HW286393   8.060   4.509  13.274
28166SOL     OW86394   2.893   2.339   0.431
28166SOL    HW186395   2.813   2.326   0.380
28166SOL    HW286396   2.954   2.380   0.369
28167SOL     OW86397   2.955   3.997  14.721
28167SOL    HW186398   2.874   3.946  14.722
28167SOL    HW286399   2.996   3.977  14.637
28168SOL     OW86400  12.171   1.325  11.078
28168SOL    HW186401  12.199   1.279  11.157
28168SOL    HW286402  12.230   1.399  11.071
28169SOL     OW86403   6.926   3.387   9.360
28169SOL    HW186404   6.940   3.441   9.283
28169SOL    HW286405   6.969   3.434   9.431
28170SOL     OW86406   4.735  13.659   2.827
28170SOL    HW186407   4.684  13.588   2.788
28170SOL    HW286408   4.672  13.710   2.878
28171SOL     OW86409   3.015   7.747   0.525
28171SOL    HW186410   3.061   7.663   0.523
28171SOL    HW286411   3.042   7.788   0.607
28172SOL     OW86412   6.710   9.909   7.696
28172SOL    HW186413   6.753   9.877   7.775
28172SOL    HW286414   6.774   9.969   7.657
28173SOL     OW86415  10.922   1.969   1.323
28173SOL    HW186416  10.992   1.962   1.258
28173SOL    HW286417  10.964   2.011   1.399
28174SOL     OW86418  13.574   8.523  13.244
28174SOL    HW186419  13.573   8.467  13.321
28174SOL    HW286420  13.491   8.504  13.199
28175SOL     OW86421  12.429  12.901   1.816
28175SOL    HW186422  12.469  12.963   1.877
28175SOL    HW286423  12.501  12.873   1.760
28176SOL     OW86424   7.569   2.294   4.578
28176SOL    HW186425   7.530   2.360   4.522
28176SOL    HW286426   7.495   2.243   4.612
28177SOL     OW86427  13.302   9.737  14.683
28177SOL    HW186428  13.280   9.660  14.734
28177SOL    HW286429  13.233   9.743  14.617
28178SOL     OW86430  14.777   9.874   8.540
28178SOL    HW186431  14.790   9.969   8.540
28178SOL    HW286432  14.861   9.838   8.569
28179SOL     OW86433  10.297   5.280   9.843
28179SOL    HW186434  10.202   5.277   9.830
28179SOL    HW286435  10.330   5.202   9.797
28180SOL     OW86436  13.677   0.797   6.201
28180SOL    HW186437  13.677   0.809   6.296
28180SOL    HW286438  13.769   0.790   6.177
28181SOL     OW86439   5.960   5.368  11.663
28181SOL    HW186440   5.880   5.336  11.704
28181SOL    HW286441   6.028   5.352  11.728
28182SOL     OW86442   8.139   3.939   1.163
28182SOL    HW186443   8.193   3.953   1.085
28182SOL    HW286444   8.158   3.849   1.189
28183SOL     OW86445   6.108   8.773  14.840
28183SOL    HW186446   6.027   8.739   0.009
28183SOL    HW286447   6.098   8.757  14.746
28184SOL     OW86448  10.912  11.035   4.571
28184SOL    HW186449  10.959  10.953   4.586
28184SOL    HW286450  10.950  11.096   4.633
28185SOL     OW86451  12.486   8.924   5.333
28185SOL    HW186452  12.569   8.887   5.362
28185SOL    HW286453  12.451   8.860   5.271
28186SOL     OW86454   8.860   5.984   3.772
28186SOL    HW186455   8.861   6.077   3.791
28186SOL    HW286456   8.844   5.942   3.857
28187SOL     OW86457   9.919   7.058   1.340
28187SOL    HW186458   9.920   6.962   1.338
28187SOL    HW286459   9.828   7.081   1.321
28188SOL     OW86460   1.577   5.762   8.404
28188SOL    HW186461   1.644   5.741   8.339
28188SOL    HW286462   1.538   5.677   8.427
28189SOL     OW86463  12.298   8.144   7.780
28189SOL    HW186464  12.204   8.133   7.766
28189SOL    HW286465  12.334   8.161   7.693
28190SOL     OW86466  10.527   6.701   5.993
28190SOL    HW186467  10.513   6.692   6.087
28190SOL    HW286468  10.564   6.788   5.982
28191SOL     OW86469   7.719   8.828   4.170
28191SOL    HW186470   7.650   8.766   4.192
28191SOL    HW286471   7.744   8.867   4.253
28192SOL     OW86472  10.287  14.851   2.248
28192SOL    HW186473  10.293  14.763   2.285
28192SOL    HW286474  10.229  14.842   2.173
28193SOL     OW86475  14.678  11.926  14.403
28193SOL    HW186476  14.586  11.934  14.430
28193SOL    HW286477  14.706  11.841  14.437
28194SOL     OW86478   4.126   4.753   1.421
28194SOL    HW186479   4.031   4.747   1.410
28194SOL    HW286480   4.140   4.834   1.470
28195SOL     OW86481  10.710  13.076   2.520
28195SOL    HW186482  10.655  13.151   2.544
28195SOL    HW286483  10.798  13.111   2.515
28196SOL     OW86484  13.412   2.105   2.040
28196SOL    HW186485  13.402   2.194   2.074
28196SOL    HW286486  13.500   2.105   2.001
28197SOL     OW86487  11.776  13.084  11.894
28197SOL    HW186488  11.739  13.116  11.813
28197SOL    HW286489  11.845  13.023  11.867
28198SOL     OW86490   2.507   3.972  10.404
28198SOL    HW186491   2.487   3.990  10.312
28198SOL    HW286492   2.583   3.914  10.401
28199SOL     OW86493  13.723   4.832   9.938
28199SOL    HW186494  13.715   4.853   9.845
28199SOL    HW286495  13.639   4.792   9.961
28200SOL     OW86496   8.509  14.732   0.293
28200SOL    HW186497   8.477  14.717   0.382
28200SOL    HW286498   8.507  14.645   0.252
28201SOL     OW86499   8.993   4.976   4.652
28201SOL    HW186500   8.930   4.940   4.589
28201SOL    HW286501   9.077   4.938   4.626
28202SOL     OW86502   1.218   4.833   6.082
28202SOL    HW186503   1.257   4.746   6.083
28202SOL    HW286504   1.291   4.893   6.098
28203SOL     OW86505   6.769  13.350   1.598
28203SOL    HW186506   6.743  13.315   1.683
28203SOL    HW286507   6.688  13.351   1.547
28204SOL     OW86508   7.809  12.897   7.214
28204SOL    HW186509   7.887  12.875   7.163
28204SOL    HW286510   7.786  12.985   7.185
28205SOL     OW86511   0.549  13.268   0.339
28205SOL    HW186512   0.480  13.297   0.399
28205SOL    HW286513   0.529  13.175   0.323
28206SOL     OW86514   3.383   2.968  10.471
28206SOL    HW186515   3.354   2.942  10.559
28206SOL    HW286516   3.351   3.058  10.462
28207SOL     OW86517   2.582   8.127   3.914
28207SOL    HW186518   2.599   8.213   3.953
28207SOL    HW286519   2.534   8.079   3.981
28208SOL     OW86520   3.077   1.419   4.708
28208SOL    HW186521   3.110   1.353   4.770
28208SOL    HW286522   2.982   1.412   4.716
28209SOL     OW86523   1.467   4.328   3.607
28209SOL    HW186524   1.377   4.300   3.624
28209SOL    HW286525   1.482   4.306   3.515
28210SOL     OW86526   9.447   1.123  11.816
28210SOL    HW186527   9.542   1.116  11.830
28210SOL    HW286528   9.411   1.042  11.852
28211SOL     OW86529   9.178  14.138   3.163
28211SOL    HW186530   9.148  14.226   3.187
28211SOL    HW286531   9.218  14.149   3.077
28212SOL     OW86532  13.881  10.535   5.803
28212SOL    HW186533  13.916  10.446   5.801
28212SOL    HW286534  13.958  10.592   5.804
28213SOL     OW86535   2.201   2.058   6.313
28213SOL    HW186536   2.152   2.070   6.394
28213SOL    HW286537   2.176   1.971   6.282
28214SOL     OW86538  10.027   3.666   3.882
28214SOL    HW186539   9.966   3.614   3.830
28214SOL    HW286540  10.026   3.625   3.968
28215SOL     OW86541   5.382   7.569  11.622
28215SOL    HW186542   5.304   7.534  11.665
28215SOL    HW286543   5.350   7.642  11.570
28216SOL     OW86544   2.742   9.745   0.337
28216SOL    HW186545   2.732   9.793   0.255
28216SOL    HW286546   2.813   9.683   0.321
28217SOL     OW86547  12.114  14.025   2.794
28217SOL    HW186548  12.053  14.029   2.867
28217SOL    HW286549  12.200  14.039   2.834
28218SOL     OW86550  10.870   3.298   5.217
28218SOL    HW186551  10.960   3.274   5.238
28218SOL    HW286552  10.825   3.298   5.301
28219SOL     OW86553   6.042   8.337  13.245
28219SOL    HW186554   6.098   8.355  13.169
28219SOL    HW286555   6.103   8.317  13.316
28220SOL     OW86556   7.745   2.515   6.720
28220SOL    HW186557   7.663   2.559   6.697
28220SOL    HW286558   7.796   2.514   6.639
28221SOL     OW86559  10.106   4.997  13.058
28221SOL    HW186560  10.095   4.928  13.123
28221SOL    HW286561  10.178   4.966  13.002
28222SOL     OW86562  12.361   5.971  10.179
28222SOL    HW186563  12.446   5.927  10.185
28222SOL    HW286564  12.320   5.955  10.263
28223SOL     OW86565   4.107   9.306   5.912
28223SOL    HW186566   4.135   9.214   5.915
28223SOL    HW286567   4.059   9.319   5.993
28224SOL     OW86568  11.224   2.478  12.517
28224SOL    HW186569  11.181   2.540  12.575
28224SOL    HW286570  11.251   2.530  12.441
28225SOL     OW86571   3.538   1.922   2.448
28225SOL    HW186572   3.518   1.830   2.466
28225SOL    HW286573   3.633   1.925   2.444
28226SOL     OW86574   6.734   8.185   3.726
28226SOL    HW186575   6.660   8.126   3.741
28226SOL    HW286576   6.795   8.134   3.672
28227SOL     OW86577  11.489   1.026  12.210
28227SOL    HW186578  11.417   1.055  12.153
28227SOL    HW286579  11.462   1.053  12.298
28228SOL     OW86580   3.492   5.193   7.562
28228SOL    HW186581   3.567   5.148   7.522
28228SOL    HW286582   3.528   5.275   7.595
28229SOL     OW86583   8.644   8.133  10.509
28229SOL    HW186584   8.647   8.046  10.470
28229SOL    HW286585   8.699   8.125  10.587
28230SOL     OW86586   2.567   0.642   1.091
28230SOL    HW186587   2.655   0.661   1.124
28230SOL    HW286588   2.510   0.655   1.166
28231SOL     OW86589   4.553  10.423   5.588
28231SOL    HW186590   4.494  10.487   5.629
28231SOL    HW286591   4.577  10.463   5.504
28232SOL     OW86592   9.512  13.585   6.263
28232SOL    HW186593   9.536  13.677   6.277
28232SOL    HW286594   9.417  13.584   6.268
28233SOL     OW86595   0.451  11.652   1.371
28233SOL    HW186596   0.490  11.613   1.293
28233SOL    HW286597   0.362  11.616   1.375
28234SOL     OW86598  14.388  11.857   7.010
28234SOL    HW186599  14.360  11.923   7.074
28234SOL    HW286600  14.430  11.908   6.941
28235SOL     OW86601   1.873   0.760   2.507
28235SOL    HW186602   1.905   0.724   2.589
28235SOL    HW286603   1.933   0.725   2.441
28236SOL     OW86604   4.991  14.683   5.271
28236SOL    HW186605   4.977  14.604   5.220
28236SOL    HW286606   4.938  14.750   5.227
28237SOL     OW86607  12.901   5.140   2.619
28237SOL    HW186608  12.956   5.130   2.541
28237SOL    HW286609  12.935   5.218   2.662
28238SOL     OW86610   9.437  11.130  14.007
28238SOL    HW186611   9.462  11.050  14.052
28238SOL    HW286612   9.358  11.160  14.053
28239SOL     OW86613  11.173   3.475   3.675
28239SOL    HW186614  11.091   3.470   3.724
28239SOL    HW286615  11.241   3.474   3.742
28240SOL     OW86616   6.768  14.773   6.140
28240SOL    HW186617   6.745  14.863   6.118
28240SOL    HW286618   6.817  14.779   6.222
28241SOL     OW86619   7.697   4.721   7.799
28241SOL    HW186620   7.642   4.670   7.739
28241SOL    HW286621   7.759   4.766   7.741
28242SOL     OW86622   8.114   5.697   3.318
28242SOL    HW186623   8.102   5.762   3.387
28242SOL    HW286624   8.144   5.619   3.363
28243SOL     OW86625  11.177   3.160   4.960
28243SOL    HW186626  11.234   3.228   4.997
28243SOL    HW286627  11.166   3.097   5.031
28244SOL     OW86628  10.143   5.321   1.856
28244SOL    HW186629  10.124   5.413   1.839
28244SOL    HW286630  10.225   5.322   1.904
28245SOL     OW86631   9.662   4.244   8.023
28245SOL    HW186632   9.582   4.191   8.027
28245SOL    HW286633   9.670   4.267   7.930
28246SOL     OW86634   2.964   1.155   8.398
28246SOL    HW186635   2.916   1.237   8.402
28246SOL    HW286636   2.897   1.087   8.393
28247SOL     OW86637  11.763   7.043  13.411
28247SOL    HW186638  11.819   7.067  13.337
28247SOL    HW286639  11.765   6.947  13.411
28248SOL     OW86640  11.030  12.481   3.119
28248SOL    HW186641  10.979  12.464   3.198
28248SOL    HW286642  11.055  12.394   3.088
28249SOL     OW86643  11.263   2.581  10.977
28249SOL    HW186644  11.353   2.603  10.950
28249SOL    HW286645  11.272   2.498  11.023
28250SOL     OW86646   8.847   5.179   9.958
28250SOL    HW186647   8.862   5.235   9.882
28250SOL    HW286648   8.928   5.185  10.008
28251SOL     OW86649   6.178   0.513   6.821
28251SOL    HW186650   6.247   0.509   6.887
28251SOL    HW286651   6.223   0.494   6.738
28252SOL     OW86652   2.458   4.690  10.017
28252SOL    HW186653   2.430   4.781  10.014
28252SOL    HW286654   2.412   4.649   9.944
28253SOL     OW86655   5.297   2.136   0.214
28253SOL    HW186656   5.251   2.158   0.295
28253SOL    HW286657   5.314   2.042   0.220
28254SOL     OW86658   0.031  11.531   7.055
28254SOL    HW186659   0.106  11.587   7.035
28254SOL    HW286660  14.826  11.576   7.017
28255SOL     OW86661   7.073  10.671   9.820
28255SOL    HW186662   7.010  10.606   9.849
28255SOL    HW286663   7.056  10.747   9.876
28256SOL     OW86664   0.860  11.103   4.732
28256SOL    HW186665   0.896  11.184   4.770
28256SOL    HW286666   0.933  11.064   4.686
28257SOL     OW86667  12.605  11.937  12.664
28257SOL    HW186668  12.605  12.025  12.703
28257SOL    HW286669  12.525  11.896  12.697
28258SOL     OW86670   8.255  12.355  10.243
28258SOL    HW186671   8.282  12.437  10.201
28258SOL    HW286672   8.330  12.330  10.298
28259SOL     OW86673   7.657  11.287   5.227
28259SOL    HW186674   7.748  11.259   5.230
28259SOL    HW286675   7.612  11.228   5.288
28260SOL     OW86676   3.316  14.733   0.681
28260SOL    HW186677   3.245  14.794   0.660
28260SOL    HW286678   3.279  14.647   0.660
28261SOL     OW86679   2.648   3.763   9.061
28261SOL    HW186680   2.635   3.834   8.999
28261SOL    HW286681   2.678   3.689   9.007
28262SOL     OW86682  13.905   7.488  14.226
28262SOL    HW186683  13.913   7.561  14.289
28262SOL    HW286684  13.825   7.442  14.254
28263SOL     OW86685   4.899   2.355  11.896
28263SOL    HW186686   4.872   2.437  11.936
28263SOL    HW286687   4.930   2.380  11.809
28264SOL     OW86688   0.112   6.546   9.827
28264SOL    HW186689   0.172   6.528   9.900
28264SOL    HW286690   0.165   6.594   9.764
28265SOL     OW86691  11.351  11.312   7.966
28265SOL    HW186692  11.397  11.334   8.048
28265SOL    HW286693  11.318  11.223   7.981
28266SOL     OW86694  11.283  10.354   4.648
28266SOL    HW186695  11.362  10.401   4.674
28266SOL    HW286696  11.268  10.291   4.719
28267SOL     OW86697   3.105  13.735   5.325
28267SOL    HW186698   3.024  13.760   5.370
28267SOL    HW286699   3.090  13.644   5.298
28268SOL     OW86700   4.907  12.125   5.388
28268SOL    HW186701   4.969  12.165   5.449
28268SOL    HW286702   4.950  12.045   5.358
28269SOL     OW86703   9.412   3.320   2.714
28269SOL    HW186704   9.328   3.345   2.753
28269SOL    HW286705   9.450   3.257   2.775
28270SOL     OW86706   8.466  11.004  12.869
28270SOL    HW186707   8.489  11.097  12.862
28270SOL    HW286708   8.549  10.961  12.890
28271SOL     OW86709   2.745   8.228   7.699
28271SOL    HW186710   2.826   8.182   7.720
28271SOL    HW286711   2.758   8.261   7.610
28272SOL     OW86712  13.226   7.937   9.367
28272SOL    HW186713  13.272   7.919   9.285
28272SOL    HW286714  13.134   7.938   9.344
28273SOL     OW86715  10.909   0.959   1.307
28273SOL    HW186716  10.909   0.865   1.320
28273SOL    HW286717  10.988   0.976   1.255
28274SOL     OW86718   2.752  10.044   1.516
28274SOL    HW186719   2.710   9.971   1.470
28274SOL    HW286720   2.707  10.047   1.600
28275SOL     OW86721   8.936  14.105  10.181
28275SOL    HW186722   8.915  14.046  10.108
28275SOL    HW286723   8.914  14.192  10.148
28276SOL     OW86724   6.323  10.744   1.562
28276SOL    HW186725   6.330  10.741   1.658
28276SOL    HW286726   6.413  10.755   1.532
28277SOL     OW86727   6.540  11.180   2.848
28277SOL    HW186728   6.462  11.124   2.855
28277SOL    HW286729   6.505  11.269   2.846
28278SOL     OW86730   2.507  11.648   5.533
28278SOL    HW186731   2.529  11.567   5.486
28278SOL    HW286732   2.444  11.692   5.476
28279SOL     OW86733   1.390  12.797   7.620
28279SOL    HW186734   1.474  12.759   7.596
28279SOL    HW286735   1.408  12.891   7.630
28280SOL     OW86736  11.025   1.413   2.160
28280SOL    HW186737  11.033   1.434   2.253
28280SOL    HW286738  11.034   1.318   2.156
28281SOL     OW86739   7.878   4.847  13.463
28281SOL    HW186740   7.940   4.894  13.407
28281SOL    HW286741   7.922   4.840  13.548
28282SOL     OW86742   8.155  14.550   0.831
28282SOL    HW186743   8.120  14.485   0.769
28282SOL    HW286744   8.089  14.555   0.900
28283SOL     OW86745   5.361  11.375   2.283
28283SOL    HW186746   5.359  11.342   2.373
28283SOL    HW286747   5.305  11.315   2.234
28284SOL     OW86748   1.411  13.448   2.457
28284SOL    HW186749   1.446  13.478   2.541
28284SOL    HW286750   1.381  13.359   2.475
28285SOL     OW86751   2.880   0.877   7.607
28285SOL    HW186752   2.806   0.927   7.643
28285SOL    HW286753   2.904   0.816   7.677
28286SOL     OW86754   4.424   4.753   9.689
28286SOL    HW186755   4.464   4.718   9.769
28286SOL    HW286756   4.464   4.701   9.619
28287SOL     OW86757  10.610   4.990   9.792
28287SOL    HW186758  10.643   5.080   9.791
28287SOL    HW286759  10.688   4.936   9.780
28288SOL     OW86760   8.508   2.001   1.399
28288SOL    HW186761   8.507   1.905   1.404
28288SOL    HW286762   8.573   2.020   1.331
28289SOL     OW86763   3.810  13.447   1.161
28289SOL    HW186764   3.767  13.388   1.099
28289SOL    HW286765   3.859  13.507   1.106
28290SOL     OW86766  13.053   8.728   7.911
28290SOL    HW186767  12.965   8.731   7.948
28290SOL    HW286768  13.078   8.820   7.900
28291SOL     OW86769  11.045  12.137   0.803
28291SOL    HW186770  10.969  12.079   0.800
28291SOL    HW286771  11.032  12.190   0.881
28292SOL     OW86772   2.219   9.176  12.072
28292SOL    HW186773   2.252   9.120  12.002
28292SOL    HW286774   2.231   9.124  12.151
28293SOL     OW86775   1.217   7.583   6.926
28293SOL    HW186776   1.222   7.656   6.987
28293SOL    HW286777   1.291   7.527   6.948
28294SOL     OW86778   1.452   2.403   1.730
28294SOL    HW186779   1.403   2.478   1.764
28294SOL    HW286780   1.396   2.327   1.748
28295SOL     OW86781   8.923   8.661  14.313
28295SOL    HW186782   8.869   8.694  14.385
28295SOL    HW286783   8.992   8.611  14.356
28296SOL     OW86784   3.538   0.167   7.026
28296SOL    HW186785   3.606   0.102   7.046
28296SOL    HW286786   3.521   0.156   6.932
28297SOL     OW86787   4.997   8.761  11.413
28297SOL    HW186788   5.028   8.814  11.340
28297SOL    HW286789   5.076   8.745  11.465
28298SOL     OW86790  10.091   5.095  14.839
28298SOL    HW186791  10.110   5.188  14.823
28298SOL    HW286792  10.055   5.064  14.757
28299SOL     OW86793  10.219  10.400   6.046
28299SOL    HW186794  10.137  10.357   6.069
28299SOL    HW286795  10.288  10.340   6.075
28300SOL     OW86796  14.579   8.435   8.547
28300SOL    HW186797  14.664   8.478   8.542
28300SOL    HW286798  14.556   8.437   8.640
28301SOL     OW86799   4.528   7.263   0.248
28301SOL    HW186800   4.532   7.231   0.338
28301SOL    HW286801   4.595   7.330   0.244
28302SOL     OW86802   0.224   8.227  13.074
28302SOL    HW186803   0.140   8.207  13.034
28302SOL    HW286804   0.280   8.253  13.000
28303SOL     OW86805   7.527  13.982   9.147
28303SOL    HW186806   7.499  14.044   9.080
28303SOL    HW286807   7.519  14.030   9.230
28304SOL     OW86808   0.830   3.145   1.530
28304SOL    HW186809   0.772   3.129   1.455
28304SOL    HW286810   0.773   3.140   1.606
28305SOL     OW86811   7.118   2.009   6.457
28305SOL    HW186812   7.030   2.025   6.425
28305SOL    HW286813   7.175   2.028   6.383
28306SOL     OW86814  11.991   4.137   6.147
28306SOL    HW186815  11.948   4.222   6.155
28306SOL    HW286816  11.952   4.098   6.069
28307SOL     OW86817  12.241   0.621  12.624
28307SOL    HW186818  12.231   0.716  12.614
28307SOL    HW286819  12.175   0.596  12.688
28308SOL     OW86820   4.752   5.244   7.264
28308SOL    HW186821   4.813   5.309   7.229
28308SOL    HW286822   4.671   5.259   7.216
28309SOL     OW86823   6.105   0.231   0.452
28309SOL    HW186824   6.081   0.221   0.544
28309SOL    HW286825   6.156   0.312   0.449
28310SOL     OW86826  12.770   5.338  12.151
28310SOL    HW186827  12.811   5.252  12.150
28310SOL    HW286828  12.676   5.320  12.144
28311SOL     OW86829  13.030   1.155  13.347
28311SOL    HW186830  13.077   1.199  13.418
28311SOL    HW286831  13.089   1.162  13.272
28312SOL     OW86832   0.141   2.366   4.739
28312SOL    HW186833   0.206   2.381   4.671
28312SOL    HW286834   0.079   2.304   4.700
28313SOL     OW86835  10.111  10.195   6.426
28313SOL    HW186836  10.154  10.136   6.488
28313SOL    HW286837  10.018  10.187   6.445
28314SOL     OW86838   0.574   1.684   1.893
28314SOL    HW186839   0.509   1.621   1.924
28314SOL    HW286840   0.547   1.767   1.932
28315SOL     OW86841  11.430  13.382   8.744
28315SOL    HW186842  11.514  13.341   8.768
28315SOL    HW286843  11.432  13.467   8.789
28316SOL     OW86844  10.794   5.513  14.331
28316SOL    HW186845  10.705   5.486  14.307
28316SOL    HW286846  10.827   5.443  14.387
28317SOL     OW86847   2.204   7.091  10.314
28317SOL    HW186848   2.210   7.003  10.353
28317SOL    HW286849   2.294   7.124  10.317
28318SOL     OW86850   6.485   6.498   2.555
28318SOL    HW186851   6.442   6.420   2.521
28318SOL    HW286852   6.529   6.536   2.480
28319SOL     OW86853   2.737   6.443  10.489
28319SOL    HW186854   2.717   6.494  10.568
28319SOL    HW286855   2.736   6.352  10.520
28320SOL     OW86856   1.610  11.111   5.127
28320SOL    HW186857   1.528  11.124   5.078
28320SOL    HW286858   1.618  11.016   5.136
28321SOL     OW86859   9.823  12.436  13.747
28321SOL    HW186860   9.908  12.479  13.739
28321SOL    HW286861   9.798  12.450  13.838
28322SOL     OW86862   8.007  12.403  12.291
28322SOL    HW186863   8.001  12.308  12.276
28322SOL    HW286864   7.930  12.439  12.247
28323SOL     OW86865   5.768  13.344   9.772
28323SOL    HW186866   5.833  13.276   9.755
28323SOL    HW286867   5.762  13.393   9.690
28324SOL     OW86868  12.891   8.954  10.486
28324SOL    HW186869  12.893   8.918  10.574
28324SOL    HW286870  12.827   8.900  10.439
28325SOL     OW86871   3.492  13.919   3.248
28325SOL    HW186872   3.551  13.885   3.315
28325SOL    HW286873   3.540  13.907   3.166
28326SOL     OW86874   0.232   1.129   7.737
28326SOL    HW186875   0.185   1.173   7.666
28326SOL    HW286876   0.321   1.118   7.703
28327SOL     OW86877  14.164   3.289   9.300
28327SOL    HW186878  14.101   3.274   9.230
28327SOL    HW286879  14.242   3.322   9.256
28328SOL     OW86880   7.014   5.118   3.939
28328SOL    HW186881   7.109   5.106   3.944
28328SOL    HW286882   7.003   5.198   3.887
28329SOL     OW86883   2.122   5.761  14.805
28329SOL    HW186884   2.169   5.730   0.012
28329SOL    HW286885   2.155   5.849  14.790
28330SOL     OW86886   8.547  13.001  10.079
28330SOL    HW186887   8.464  12.953  10.076
28330SOL    HW286888   8.553  13.044   9.993
28331SOL     OW86889   7.424   1.145   5.893
28331SOL    HW186890   7.487   1.099   5.950
28331SOL    HW286891   7.461   1.232   5.882
28332SOL     OW86892   6.847   4.397   7.775
28332SOL    HW186893   6.920   4.371   7.720
28332SOL    HW286894   6.863   4.354   7.859
28333SOL     OW86895  10.206  10.617  12.532
28333SOL    HW186896  10.289  10.569  12.529
28333SOL    HW286897  10.228  10.701  12.573
28334SOL     OW86898  13.193  12.230  13.472
28334SOL    HW186899  13.141  12.150  13.463
28334SOL    HW286900  13.154  12.291  13.409
28335SOL     OW86901   2.066   1.411   2.153
28335SOL    HW186902   2.039   1.502   2.162
28335SOL    HW286903   2.112   1.408   2.069
28336SOL     OW86904   1.133  11.998   2.417
28336SOL    HW186905   1.204  12.037   2.468
28336SOL    HW286906   1.087  12.073   2.379
28337SOL     OW86907   3.020  14.198   4.680
28337SOL    HW186908   2.948  14.259   4.660
28337SOL    HW286909   3.074  14.199   4.601
28338SOL     OW86910   9.747  12.405  10.147
28338SOL    HW186911   9.773  12.313  10.144
28338SOL    HW286912   9.654  12.404  10.129
28339SOL     OW86913  13.012  12.148  10.556
28339SOL    HW186914  12.929  12.159  10.602
28339SOL    HW286915  13.019  12.225  10.499
28340SOL     OW86916   1.928  12.935  14.659
28340SOL    HW186917   1.968  12.944  14.573
28340SOL    HW286918   1.995  12.891  14.712
28341SOL     OW86919   8.240  14.496   2.707
28341SOL    HW186920   8.201  14.441   2.775
28341SOL    HW286921   8.239  14.585   2.745
28342SOL     OW86922   3.368  11.712   5.089
28342SOL    HW186923   3.294  11.680   5.037
28342SOL    HW286924   3.355  11.807   5.093
28343SOL     OW86925   4.317   4.257   9.590
28343SOL    HW186926   4.341   4.164   9.586
28343SOL    HW286927   4.332   4.289   9.502
28344SOL     OW86928   0.388  10.609  10.226
28344SOL    HW186929   0.348  10.607  10.313
28344SOL    HW286930   0.464  10.552  10.233
28345SOL     OW86931   2.657  10.947   6.514
28345SOL    HW186932   2.608  10.900   6.581
28345SOL    HW286933   2.746  10.954   6.550
28346SOL     OW86934   7.489  14.651  14.204
28346SOL    HW186935   7.499  14.745  14.193
28346SOL    HW286936   7.541  14.613  14.132
28347SOL     OW86937   8.130  13.284  11.436
28347SOL    HW186938   8.036  13.268  11.431
28347SOL    HW286939   8.160  13.232  11.511
28348SOL     OW86940  10.659  10.196   3.945
28348SOL    HW186941  10.748  10.166   3.923
28348SOL    HW286942  10.604  10.159   3.877
28349SOL     OW86943   2.589   8.446   6.273
28349SOL    HW186944   2.616   8.536   6.258
28349SOL    HW286945   2.665   8.405   6.314
28350SOL     OW86946   9.100  14.501   1.708
28350SOL    HW186947   9.131  14.582   1.750
28350SOL    HW286948   9.005  14.508   1.711
28351SOL     OW86949  14.184   6.887   6.192
28351SOL    HW186950  14.190   6.972   6.148
28351SOL    HW286951  14.095   6.884   6.228
28352SOL     OW86952   1.919   5.983  12.899
28352SOL    HW186953   1.856   6.053  12.917
28352SOL    HW286954   1.990   5.998  12.960
28353SOL     OW86955   3.201   8.311   6.087
28353SOL    HW186956   3.236   8.382   6.034
28353SOL    HW286957   3.229   8.231   6.042
28354SOL     OW86958   6.424   5.424   7.456
28354SOL    HW186959   6.442   5.356   7.521
28354SOL    HW286960   6.360   5.384   7.397
28355SOL     OW86961  14.336   2.488   0.550
28355SOL    HW186962  14.386   2.470   0.470
28355SOL    HW286963  14.390   2.550   0.599
28356SOL     OW86964   3.392   1.972   1.610
28356SOL    HW186965   3.484   1.983   1.634
28356SOL    HW286966   3.355   1.920   1.681
28357SOL     OW86967   2.643  12.295   2.045
28357SOL    HW186968   2.704  12.362   2.015
28357SOL    HW286969   2.640  12.231   1.974
28358SOL     OW86970   6.007   0.964   3.878
28358SOL    HW186971   6.012   1.032   3.946
28358SOL    HW286972   6.004   1.012   3.796
28359SOL     OW86973   9.315  10.603   0.013
28359SOL    HW186974   9.332  10.691  14.849
28359SOL    HW286975   9.340  10.606   0.105
28360SOL     OW86976   2.702   6.392  12.111
28360SOL    HW186977   2.703   6.450  12.034
28360SOL    HW286978   2.630   6.425  12.165
28361SOL     OW86979   4.194   0.507   6.866
28361SOL    HW186980   4.133   0.457   6.813
28361SOL    HW286981   4.138   0.570   6.912
28362SOL     OW86982  10.930  12.968   1.357
28362SOL    HW186983  10.973  13.018   1.426
28362SOL    HW286984  10.844  12.947   1.393
28363SOL     OW86985  13.735  13.662  11.451
28363SOL    HW186986  13.810  13.639  11.506
28363SOL    HW286987  13.701  13.578  11.421
28364SOL     OW86988   5.808  14.034  10.763
28364SOL    HW186989   5.714  14.020  10.770
28364SOL    HW286990   5.847  13.959  10.809
28365SOL     OW86991   3.433  10.478  10.929
28365SOL    HW186992   3.421  10.383  10.929
28365SOL    HW286993   3.523  10.491  10.960
28366SOL     OW86994  10.522  11.317   1.123
28366SOL    HW186995  10.432  11.283   1.125
28366SOL    HW286996  10.515  11.402   1.079
28367SOL     OW86997  11.490  13.442   1.260
28367SOL    HW186998  11.423  13.499   1.224
28367SOL    HW286999  11.554  13.433   1.190
28368SOL     OW87000  13.401   5.159   2.861
28368SOL    HW187001  13.390   5.248   2.829
28368SOL    HW287002  13.409   5.167   2.956
28369SOL     OW87003   2.965   9.394  14.796
28369SOL    HW187004   2.969   9.363   0.017
28369SOL    HW287005   3.056   9.395  14.767
28370SOL     OW87006  11.340   6.925  13.793
28370SOL    HW187007  11.346   6.895  13.702
28370SOL    HW287008  11.249   6.953  13.803
28371SOL     OW87009   0.795   0.896  13.355
28371SOL    HW187010   0.755   0.975  13.392
28371SOL    HW287011   0.823   0.845  13.431
28372SOL     OW87012   2.073   7.166  11.767
28372SOL    HW187013   2.024   7.203  11.840
28372SOL    HW287014   2.107   7.243  11.720
28373SOL     OW87015   7.819  14.619   0.154
28373SOL    HW187016   7.824  14.525   0.139
28373SOL    HW287017   7.823  14.628   0.250
28374SOL     OW87018   1.831   4.081   0.756
28374SOL    HW187019   1.798   4.150   0.814
28374SOL    HW287020   1.871   4.127   0.683
28375SOL     OW87021  13.421  12.256   7.179
28375SOL    HW187022  13.448  12.286   7.266
28375SOL    HW287023  13.364  12.181   7.197
28376SOL     OW87024   2.183   2.972   2.969
28376SOL    HW187025   2.276   2.974   2.949
28376SOL    HW287026   2.174   2.907   3.038
28377SOL     OW87027   3.674  10.131   9.972
28377SOL    HW187028   3.605  10.118  10.037
28377SOL    HW287029   3.740  10.183  10.018
28378SOL     OW87030   0.964   5.943   0.966
28378SOL    HW187031   0.900   5.882   0.930
28378SOL    HW287032   0.980   6.005   0.895
28379SOL     OW87033   7.043   2.428   6.110
28379SOL    HW187034   7.087   2.461   6.189
28379SOL    HW287035   6.950   2.443   6.127
28380SOL     OW87036   7.112   2.634   5.733
28380SOL    HW187037   7.164   2.649   5.655
28380SOL    HW287038   7.022   2.625   5.701
28381SOL     OW87039  13.777   9.872   9.828
28381SOL    HW187040  13.768   9.788   9.782
28381SOL    HW287041  13.689   9.910   9.826
28382SOL     OW87042   2.113   2.530  12.639
28382SOL    HW187043   2.058   2.513  12.715
28382SOL    HW287044   2.177   2.458  12.639
28383SOL     OW87045   0.854  10.206   9.261
28383SOL    HW187046   0.866  10.301   9.270
28383SOL    HW287047   0.783  10.197   9.198
28384SOL     OW87048  13.256  14.123   2.801
28384SOL    HW187049  13.252  14.100   2.894
28384SOL    HW287050  13.322  14.064   2.765
28385SOL     OW87051   3.992   3.348  12.125
28385SOL    HW187052   3.975   3.266  12.078
28385SOL    HW287053   3.930   3.346  12.199
28386SOL     OW87054   6.651  14.431   3.168
28386SOL    HW187055   6.622  14.486   3.241
28386SOL    HW287056   6.570  14.398   3.129
28387SOL     OW87057   1.404   6.744   2.565
28387SOL    HW187058   1.471   6.676   2.560
28387SOL    HW287059   1.446   6.822   2.528
28388SOL     OW87060   0.442  10.801  12.369
28388SOL    HW187061   0.528  10.788  12.329
28388SOL    HW287062   0.431  10.896  12.374
28389SOL     OW87063  11.162   4.908   4.700
28389SOL    HW187064  11.170   4.940   4.790
28389SOL    HW287065  11.247   4.927   4.661
28390SOL     OW87066  10.525   5.678  14.093
28390SOL    HW187067  10.585   5.646  14.026
28390SOL    HW287068  10.439   5.651  14.063
28391SOL     OW87069   1.804   5.151   8.169
28391SOL    HW187070   1.808   5.095   8.092
28391SOL    HW287071   1.755   5.229   8.140
28392SOL     OW87072   2.097   5.403  10.685
28392SOL    HW187073   2.054   5.351  10.617
28392SOL    HW287074   2.185   5.419  10.652
28393SOL     OW87075   4.394   0.023  12.597
28393SOL    HW187076   4.462   0.086  12.572
28393SOL    HW287077   4.313   0.063  12.567
28394SOL     OW87078   8.395   9.241  10.326
28394SOL    HW187079   8.489   9.221  10.326
28394SOL    HW287080   8.356   9.168  10.374
28395SOL     OW87081   0.045   4.649   1.736
28395SOL    HW187082   0.063   4.670   1.645
28395SOL    HW287083  14.820   4.638   1.740
28396SOL     OW87084  10.271  11.394  12.716
28396SOL    HW187085  10.338  11.453  12.752
28396SOL    HW287086  10.235  11.442  12.641
28397SOL     OW87087   5.629  10.194  14.701
28397SOL    HW187088   5.691  10.245  14.649
28397SOL    HW287089   5.649  10.103  14.681
28398SOL     OW87090   4.628  11.306  13.297
28398SOL    HW187091   4.671  11.309  13.382
28398SOL    HW287092   4.697  11.332  13.235
28399SOL     OW87093   6.191  13.969   4.358
28399SOL    HW187094   6.133  14.028   4.407
28399SOL    HW287095   6.131  13.915   4.306
28400SOL     OW87096  12.200   4.814   9.948
28400SOL    HW187097  12.167   4.891   9.994
28400SOL    HW287098  12.138   4.799   9.877
28401SOL     OW87099   9.785   9.983   1.003
28401SOL    HW187100   9.783  10.037   1.083
28401SOL    HW287101   9.696   9.989   0.969
28402SOL     OW87102   7.873  12.012   1.483
28402SOL    HW187103   7.879  12.103   1.513
28402SOL    HW287104   7.789  11.981   1.516
28403SOL     OW87105  10.903   5.272   5.336
28403SOL    HW187106  10.976   5.274   5.398
28403SOL    HW287107  10.897   5.362   5.304
28404SOL     OW87108   7.230   7.073   2.671
28404SOL    HW187109   7.204   7.162   2.694
28404SOL    HW287110   7.160   7.018   2.706
28405SOL     OW87111   4.315   8.915  14.760
28405SOL    HW187112   4.281   8.927  14.671
28405SOL    HW287113   4.264   8.976  14.814
28406SOL     OW87114   6.309   6.342  11.466
28406SOL    HW187115   6.283   6.434  11.456
28406SOL    HW287116   6.271   6.298  11.389
28407SOL     OW87117   0.305  11.204   3.089
28407SOL    HW187118   0.293  11.295   3.060
28407SOL    HW287119   0.375  11.171   3.033
28408SOL     OW87120  11.297   9.312   7.498
28408SOL    HW187121  11.249   9.393   7.514
28408SOL    HW287122  11.376   9.319   7.553
28409SOL     OW87123  13.336  13.856   9.296
28409SOL    HW187124  13.401  13.831   9.361
28409SOL    HW287125  13.322  13.777   9.243
28410SOL     OW87126  13.247   5.290  10.421
28410SOL    HW187127  13.289   5.222  10.370
28410SOL    HW287128  13.308   5.306  10.494
28411SOL     OW87129   2.417   8.553   9.149
28411SOL    HW187130   2.362   8.584   9.078
28411SOL    HW287131   2.454   8.633   9.188
28412SOL     OW87132   7.792   1.371  12.806
28412SOL    HW187133   7.877   1.374  12.763
28412SOL    HW287134   7.800   1.433  12.879
28413SOL     OW87135   5.376   9.408   4.529
28413SOL    HW187136   5.464   9.371   4.531
28413SOL    HW287137   5.382   9.478   4.464
28414SOL     OW87138   4.404   6.904   4.271
28414SOL    HW187139   4.409   6.844   4.197
28414SOL    HW287140   4.325   6.877   4.318
28415SOL     OW87141  13.756  11.103  12.810
28415SOL    HW187142  13.693  11.046  12.765
28415SOL    HW287143  13.742  11.189  12.772
28416SOL     OW87144   3.868   3.280   4.877
28416SOL    HW187145   3.931   3.349   4.853
28416SOL    HW287146   3.825   3.314   4.956
28417SOL     OW87147   0.222  12.436   4.296
28417SOL    HW187148   0.279  12.362   4.273
28417SOL    HW287149   0.135  12.398   4.302
28418SOL     OW87150  12.107   6.924   0.372
28418SOL    HW187151  12.029   6.946   0.321
28418SOL    HW287152  12.162   6.873   0.313
28419SOL     OW87153   4.060   4.515   7.475
28419SOL    HW187154   4.046   4.467   7.556
28419SOL    HW287155   4.080   4.448   7.410
28420SOL     OW87156  13.553   8.266   6.011
28420SOL    HW187157  13.519   8.223   6.089
28420SOL    HW287158  13.532   8.359   6.023
28421SOL     OW87159  13.613   1.935   6.037
28421SOL    HW187160  13.524   1.905   6.020
28421SOL    HW287161  13.624   1.929   6.132
28422SOL     OW87162  12.691  13.756   4.102
28422SOL    HW187163  12.754  13.684   4.094
28422SOL    HW287164  12.606  13.715   4.091
28423SOL     OW87165   5.131  11.141  12.095
28423SOL    HW187166   5.161  11.074  12.035
28423SOL    HW287167   5.035  11.135  12.091
28424SOL     OW87168   9.335   9.762   2.184
28424SOL    HW187169   9.397   9.690   2.196
28424SOL    HW287170   9.257   9.721   2.145
28425SOL     OW87171   7.223   9.968  12.781
28425SOL    HW187172   7.306   9.964  12.733
28425SOL    HW287173   7.187  10.054  12.758
28426SOL     OW87174   0.541   8.790  14.185
28426SOL    HW187175   0.493   8.745  14.115
28426SOL    HW287176   0.498   8.876  14.192
28427SOL     OW87177  14.201   2.240   0.551
28427SOL    HW187178  14.201   2.239   0.455
28427SOL    HW287179  14.237   2.325   0.575
28428SOL     OW87180   7.808   8.926   0.150
28428SOL    HW187181   7.892   8.966   0.126
28428SOL    HW287182   7.745   8.963   0.087
28429SOL     OW87183  12.403  10.164  12.404
28429SOL    HW187184  12.449  10.246  12.387
28429SOL    HW287185  12.350  10.149  12.325
28430SOL     OW87186   4.687   7.248   2.837
28430SOL    HW187187   4.722   7.307   2.771
28430SOL    HW287188   4.736   7.167   2.824
28431SOL     OW87189  14.556   5.077  13.676
28431SOL    HW187190  14.490   5.008  13.678
28431SOL    HW287191  14.512   5.151  13.633
28432SOL     OW87192   0.037  13.834  11.396
28432SOL    HW187193  14.840  13.784  11.350
28432SOL    HW287194   0.111  13.774  11.405
28433SOL     OW87195   5.005   3.473  12.357
28433SOL    HW187196   4.992   3.390  12.310
28433SOL    HW287197   5.076   3.455  12.418
28434SOL     OW87198   8.140   5.874   4.681
28434SOL    HW187199   8.125   5.968   4.685
28434SOL    HW287200   8.058   5.838   4.646
28435SOL     OW87201   4.373   1.917  14.008
28435SOL    HW187202   4.314   1.952  14.074
28435SOL    HW287203   4.457   1.960  14.024
28436SOL     OW87204   6.836   4.181   4.064
28436SOL    HW187205   6.928   4.168   4.088
28436SOL    HW287206   6.794   4.210   4.144
28437SOL     OW87207  14.115   9.567   4.582
28437SOL    HW187208  14.098   9.483   4.539
28437SOL    HW287209  14.207   9.586   4.564
28438SOL     OW87210  14.783  13.756   6.071
28438SOL    HW187211  14.843  13.705   6.125
28438SOL    HW287212  14.840  13.805   6.011
28439SOL     OW87213   1.629   8.937   6.800
28439SOL    HW187214   1.567   8.868   6.825
28439SOL    HW287215   1.597   9.015   6.845
28440SOL     OW87216   6.575   3.863   0.865
28440SOL    HW187217   6.572   3.944   0.814
28440SOL    HW287218   6.643   3.878   0.930
28441SOL     OW87219   0.924  12.172  13.829
28441SOL    HW187220   0.989  12.138  13.890
28441SOL    HW287221   0.976  12.205  13.755
28442SOL     OW87222  11.376   4.153   1.173
28442SOL    HW187223  11.410   4.064   1.168
28442SOL    HW287224  11.396   4.191   1.087
28443SOL     OW87225  13.530   2.088   1.200
28443SOL    HW187226  13.532   2.093   1.105
28443SOL    HW287227  13.441   2.061   1.221
28444SOL     OW87228   0.538  14.732   6.037
28444SOL    HW187229   0.600  14.797   6.002
28444SOL    HW287230   0.496  14.694   5.960
28445SOL     OW87231   4.417  11.436   1.034
28445SOL    HW187232   4.323  11.422   1.024
28445SOL    HW287233   4.425  11.503   1.101
28446SOL     OW87234   6.838   6.862  10.599
28446SOL    HW187235   6.920   6.826  10.634
28446SOL    HW287236   6.864   6.905  10.518
28447SOL     OW87237   6.319  11.466   7.608
28447SOL    HW187238   6.285  11.383   7.576
28447SOL    HW287239   6.242  11.513   7.640
28448SOL     OW87240  12.075  10.817   8.152
28448SOL    HW187241  12.050  10.740   8.203
28448SOL    HW287242  12.156  10.791   8.109
28449SOL     OW87243   9.935   7.369   3.631
28449SOL    HW187244   9.947   7.277   3.654
28449SOL    HW287245   9.868   7.400   3.693
28450SOL     OW87246  11.248   5.487   8.983
28450SOL    HW187247  11.213   5.574   8.965
28450SOL    HW287248  11.233   5.438   8.902
28451SOL     OW87249  11.338   2.673  12.348
28451SOL    HW187250  11.431   2.671  12.330
28451SOL    HW287251  11.304   2.746  12.296
28452SOL     OW87252   6.669   5.563  13.021
28452SOL    HW187253   6.741   5.583  13.081
28452SOL    HW287254   6.626   5.486  13.060
28453SOL     OW87255   2.040  14.324   3.209
28453SOL    HW187256   2.041  14.415   3.239
28453SOL    HW287257   2.091  14.325   3.128
28454SOL     OW87258   5.458   0.022  14.438
28454SOL    HW187259   5.364   0.036  14.426
28454SOL    HW287260   5.475  14.806  14.400
28455SOL     OW87261  12.266   8.586  13.745
28455SOL    HW187262  12.243   8.507  13.696
28455SOL    HW287263  12.349   8.615  13.707
28456SOL     OW87264   5.716   3.431  10.914
28456SOL    HW187265   5.624   3.418  10.891
28456SOL    HW287266   5.714   3.460  11.005
28457SOL     OW87267   1.957   2.557  12.865
28457SOL    HW187268   2.010   2.560  12.945
28457SOL    HW287269   1.922   2.646  12.856
28458SOL     OW87270  11.641   7.650  10.004
28458SOL    HW187271  11.595   7.691  10.078
28458SOL    HW287272  11.654   7.559  10.032
28459SOL     OW87273   6.790   3.499   2.618
28459SOL    HW187274   6.791   3.406   2.595
28459SOL    HW287275   6.841   3.542   2.549
28460SOL     OW87276   5.484   2.498   4.547
28460SOL    HW187277   5.533   2.471   4.469
28460SOL    HW287278   5.433   2.421   4.571
28461SOL     OW87279   2.489   1.341   1.788
28461SOL    HW187280   2.497   1.396   1.710
28461SOL    HW287281   2.577   1.338   1.824
28462SOL     OW87282  11.234  14.360   4.037
28462SOL    HW187283  11.174  14.433   4.021
28462SOL    HW287284  11.322  14.399   4.032
28463SOL     OW87285   2.593   8.363   4.075
28463SOL    HW187286   2.658   8.341   4.141
28463SOL    HW287287   2.519   8.400   4.125
28464SOL     OW87288   4.780   1.591  10.561
28464SOL    HW187289   4.840   1.639  10.619
28464SOL    HW287290   4.707   1.651  10.549
28465SOL     OW87291   8.102  14.534   0.076
28465SOL    HW187292   8.024  14.588   0.088
28465SOL    HW287293   8.074  14.446   0.099
28466SOL     OW87294   6.597   1.351   1.463
28466SOL    HW187295   6.519   1.299   1.484
28466SOL    HW287296   6.574   1.440   1.488
28467SOL     OW87297   7.774   0.660  10.233
28467SOL    HW187298   7.805   0.750  10.243
28467SOL    HW287299   7.718   0.662  10.155
28468SOL     OW87300   6.905   3.445   2.041
28468SOL    HW187301   6.894   3.407   2.128
28468SOL    HW287302   6.976   3.509   2.052
28469SOL     OW87303   1.989   3.228   1.542
28469SOL    HW187304   1.926   3.174   1.494
28469SOL    HW287305   2.075   3.195   1.514
28470SOL     OW87306  13.426   2.690   1.227
28470SOL    HW187307  13.401   2.631   1.298
28470SOL    HW287308  13.522   2.697   1.234
28471SOL     OW87309  13.039   0.048   5.503
28471SOL    HW187310  12.979  14.843   5.495
28471SOL    HW287311  12.990   0.122   5.467
28472SOL     OW87312   8.298   4.044   2.905
28472SOL    HW187313   8.263   4.106   2.969
28472SOL    HW287314   8.292   4.090   2.822
28473SOL     OW87315  11.671  12.730   7.859
28473SOL    HW187316  11.650  12.799   7.923
28473SOL    HW287317  11.594  12.674   7.858
28474SOL     OW87318  10.924   5.901  14.569
28474SOL    HW187319  11.019   5.907  14.581
28474SOL    HW287320  10.888   5.911  14.657
28475SOL     OW87321  14.091   9.498  14.330
28475SOL    HW187322  14.045   9.425  14.289
28475SOL    HW287323  14.097   9.473  14.423
28476SOL     OW87324  13.329   5.734  11.434
28476SOL    HW187325  13.243   5.702  11.407
28476SOL    HW287326  13.331   5.824  11.404
28477SOL     OW87327   2.503   4.285   6.103
28477SOL    HW187328   2.447   4.207   6.097
28477SOL    HW287329   2.592   4.251   6.093
28478SOL     OW87330   0.054  11.013  14.127
28478SOL    HW187331   0.078  11.102  14.099
28478SOL    HW287332   0.119  10.991  14.194
28479SOL     OW87333   1.853  10.559   4.087
28479SOL    HW187334   1.815  10.610   4.016
28479SOL    HW287335   1.879  10.625   4.152
28480SOL     OW87336   9.316   8.160   6.782
28480SOL    HW187337   9.228   8.170   6.746
28480SOL    HW287338   9.371   8.214   6.725
28481SOL     OW87339  12.431   9.315   7.677
28481SOL    HW187340  12.379   9.354   7.607
28481SOL    HW287341  12.377   9.243   7.710
28482SOL     OW87342   7.409   2.135  12.638
28482SOL    HW187343   7.430   2.113  12.548
28482SOL    HW287344   7.494   2.135  12.683
28483SOL     OW87345   3.626   5.619  14.075
28483SOL    HW187346   3.580   5.567  14.141
28483SOL    HW287347   3.659   5.695  14.123
28484SOL     OW87348   3.105   8.539   6.396
28484SOL    HW187349   3.106   8.498   6.310
28484SOL    HW287350   3.118   8.632   6.379
28485SOL     OW87351  14.730   1.374   2.343
28485SOL    HW187352  14.691   1.454   2.379
28485SOL    HW287353  14.666   1.341   2.282
28486SOL     OW87354   3.188  14.349  14.104
28486SOL    HW187355   3.116  14.406  14.128
28486SOL    HW287356   3.207  14.299  14.184
28487SOL     OW87357   7.723  11.042  13.112
28487SOL    HW187358   7.696  10.973  13.173
28487SOL    HW287359   7.728  10.997  13.028
28488SOL     OW87360  14.805   8.287   0.968
28488SOL    HW187361  14.766   8.206   0.936
28488SOL    HW287362   0.002   8.259   1.030
28489SOL     OW87363  12.673   7.279   1.966
28489SOL    HW187364  12.660   7.312   2.055
28489SOL    HW287365  12.623   7.338   1.910
28490SOL     OW87366   2.310   2.743   5.513
28490SOL    HW187367   2.320   2.655   5.550
28490SOL    HW287368   2.364   2.799   5.569
28491SOL     OW87369   2.367   0.758   3.512
28491SOL    HW187370   2.292   0.737   3.566
28491SOL    HW287371   2.336   0.825   3.451
28492SOL     OW87372  11.277  14.234  12.443
28492SOL    HW187373  11.241  14.161  12.392
28492SOL    HW287374  11.301  14.195  12.527
28493SOL     OW87375   6.143   6.213   4.581
28493SOL    HW187376   6.110   6.172   4.501
28493SOL    HW287377   6.215   6.269   4.551
28494SOL     OW87378   2.908   3.111   7.135
28494SOL    HW187379   2.996   3.126   7.102
28494SOL    HW287380   2.878   3.197   7.166
28495SOL     OW87381  13.076   8.065   5.719
28495SOL    HW187382  13.047   8.156   5.718
28495SOL    HW287383  13.059   8.034   5.630
28496SOL     OW87384  12.929   0.436   4.712
28496SOL    HW187385  12.936   0.497   4.639
28496SOL    HW287386  12.910   0.351   4.671
28497SOL     OW87387  12.366   7.658   4.724
28497SOL    HW187388  12.390   7.726   4.661
28497SOL    HW287389  12.270   7.659   4.725
28498SOL     OW87390   9.079  12.230  14.681
28498SOL    HW187391   9.006  12.199  14.628
28498SOL    HW287392   9.083  12.324  14.663
28499SOL     OW87393   0.554   3.269   0.910
28499SOL    HW187394   0.560   3.295   1.002
28499SOL    HW287395   0.645   3.250   0.885
28500SOL     OW87396   4.330   4.250   1.359
28500SOL    HW187397   4.265   4.222   1.296
28500SOL    HW287398   4.317   4.344   1.367
28501SOL     OW87399   7.237  13.638  14.716
28501SOL    HW187400   7.150  13.624  14.677
28501SOL    HW287401   7.242  13.572  14.785
28502SOL     OW87402  11.000   4.954   8.474
28502SOL    HW187403  11.093   4.938   8.457
28502SOL    HW287404  10.995   4.972   8.567
28503SOL     OW87405  14.582   0.134   4.516
28503SOL    HW187406  14.601   0.041   4.504
28503SOL    HW287407  14.544   0.140   4.603
28504SOL     OW87408   5.650  12.877  13.010
28504SOL    HW187409   5.691  12.847  12.929
28504SOL    HW287410   5.706  12.949  13.040
28505SOL     OW87411  11.567   5.544  11.998
28505SOL    HW187412  11.654   5.538  11.959
28505SOL    HW287413  11.563   5.471  12.060
28506SOL     OW87414  13.275   9.930   8.342
28506SOL    HW187415  13.273  10.025   8.338
28506SOL    HW287416  13.255   9.909   8.433
28507SOL     OW87417   9.047  12.986   6.272
28507SOL    HW187418   9.014  13.067   6.310
28507SOL    HW287419   9.079  13.011   6.186
28508SOL     OW87420   4.142   1.019   2.163
28508SOL    HW187421   4.178   1.025   2.074
28508SOL    HW287422   4.215   1.047   2.220
28509SOL     OW87423  10.054  12.731  13.667
28509SOL    HW187424  10.103  12.813  13.672
28509SOL    HW287425  10.039  12.706  13.758
28510SOL     OW87426  14.575   7.641   3.076
28510SOL    HW187427  14.510   7.673   3.013
28510SOL    HW287428  14.639   7.594   3.023
28511SOL     OW87429   9.773   5.793  10.606
28511SOL    HW187430   9.814   5.861  10.553
28511SOL    HW287431   9.839   5.724  10.612
28512SOL     OW87432   9.470   9.539   2.563
28512SOL    HW187433   9.529   9.490   2.506
28512SOL    HW287434   9.382   9.511   2.536
28513SOL     OW87435  14.524   9.223  11.895
28513SOL    HW187436  14.511   9.305  11.846
28513SOL    HW287437  14.551   9.251  11.982
28514SOL     OW87438   0.028  11.406   6.001
28514SOL    HW187439  14.853  11.335   6.048
28514SOL    HW287440   0.046  11.370   5.914
28515SOL     OW87441   4.393  14.227   0.500
28515SOL    HW187442   4.320  14.169   0.476
28515SOL    HW287443   4.471  14.179   0.475
28516SOL     OW87444  13.598   1.422   4.489
28516SOL    HW187445  13.529   1.424   4.423
28516SOL    HW287446  13.679   1.437   4.440
28517SOL     OW87447   5.183   6.518  11.495
28517SOL    HW187448   5.176   6.613  11.488
28517SOL    HW287449   5.276   6.500  11.483
28518SOL     OW87450  10.767   6.618  12.432
28518SOL    HW187451  10.726   6.694  12.391
28518SOL    HW287452  10.705   6.589  12.498
28519SOL     OW87453  14.466  10.603   2.946
28519SOL    HW187454  14.452  10.665   3.017
28519SOL    HW287455  14.405  10.531   2.964
28520SOL     OW87456   3.354   2.936   6.697
28520SOL    HW187457   3.331   2.997   6.767
28520SOL    HW287458   3.285   2.948   6.631
28521SOL     OW87459  10.803   8.552  14.540
28521SOL    HW187460  10.709   8.555  14.524
28521SOL    HW287461  10.833   8.641  14.521
28522SOL     OW87462   8.075  10.869   5.458
28522SOL    HW187463   8.110  10.796   5.508
28522SOL    HW287464   8.151  10.920   5.432
28523SOL     OW87465   9.765  11.803   6.493
28523SOL    HW187466   9.790  11.715   6.521
28523SOL    HW287467   9.723  11.842   6.569
28524SOL     OW87468  14.154  13.261   0.998
28524SOL    HW187469  14.180  13.301   1.081
28524SOL    HW287470  14.172  13.329   0.932
28525SOL     OW87471   3.386   3.382  10.285
28525SOL    HW187472   3.441   3.305  10.299
28525SOL    HW287473   3.355   3.405  10.373
28526SOL     OW87474  12.830   4.894   6.163
28526SOL    HW187475  12.806   4.967   6.219
28526SOL    HW287476  12.925   4.901   6.153
28527SOL     OW87477  10.267   6.387   9.763
28527SOL    HW187478  10.354   6.358   9.737
28527SOL    HW287479  10.274   6.482   9.773
28528SOL     OW87480   4.851   0.726   7.903
28528SOL    HW187481   4.891   0.807   7.870
28528SOL    HW287482   4.918   0.688   7.960
28529SOL     OW87483  12.745  13.592  10.212
28529SOL    HW187484  12.779  13.648  10.282
28529SOL    HW287485  12.706  13.654  10.149
28530SOL     OW87486   8.560   2.297  13.156
28530SOL    HW187487   8.554   2.212  13.112
28530SOL    HW287488   8.616   2.280  13.232
28531SOL     OW87489   7.245   1.245  10.088
28531SOL    HW187490   7.326   1.196  10.080
28531SOL    HW287491   7.230   1.252  10.183
28532SOL     OW87492   3.053   7.136   8.688
28532SOL    HW187493   3.038   7.221   8.647
28532SOL    HW287494   3.144   7.114   8.665
28533SOL     OW87495  10.991   5.440   0.499
28533SOL    HW187496  11.082   5.410   0.506
28533SOL    HW287497  10.989   5.490   0.417
28534SOL     OW87498   3.008   1.544   8.832
28534SOL    HW187499   2.955   1.568   8.908
28534SOL    HW287500   2.947   1.500   8.773
28535SOL     OW87501   2.011   4.745   9.339
28535SOL    HW187502   2.040   4.776   9.425
28535SOL    HW287503   2.071   4.788   9.278
28536SOL     OW87504   7.190   4.062  10.588
28536SOL    HW187505   7.268   4.065  10.533
28536SOL    HW287506   7.190   3.974  10.626
28537SOL     OW87507   7.682   6.695   7.899
28537SOL    HW187508   7.636   6.774   7.928
28537SOL    HW287509   7.684   6.638   7.975
28538SOL     OW87510   5.527   0.259  13.457
28538SOL    HW187511   5.582   0.308  13.396
28538SOL    HW287512   5.445   0.308  13.460
28539SOL     OW87513   9.424   4.070   8.402
28539SOL    HW187514   9.357   4.138   8.394
28539SOL    HW287515   9.376   3.993   8.432
28540SOL     OW87516  12.455   2.678  12.770
28540SOL    HW187517  12.525   2.710  12.827
28540SOL    HW287518  12.377   2.724  12.800
28541SOL     OW87519   2.343  11.480   9.601
28541SOL    HW187520   2.431  11.510   9.578
28541SOL    HW287521   2.356  11.393   9.638
28542SOL     OW87522   4.670   0.809   6.129
28542SOL    HW187523   4.688   0.837   6.039
28542SOL    HW287524   4.752   0.824   6.176
28543SOL     OW87525  11.126   5.554  11.869
28543SOL    HW187526  11.210   5.597  11.852
28543SOL    HW287527  11.118   5.554  11.964
28544SOL     OW87528   8.943   8.290  13.611
28544SOL    HW187529   8.928   8.210  13.660
28544SOL    HW287530   9.026   8.275  13.565
28545SOL     OW87531   8.766   1.765   9.977
28545SOL    HW187532   8.806   1.767  10.064
28545SOL    HW287533   8.792   1.680   9.940
28546SOL     OW87534   1.559   5.268   2.866
28546SOL    HW187535   1.608   5.187   2.877
28546SOL    HW287536   1.624   5.337   2.878
28547SOL     OW87537  11.596  11.332   7.564
28547SOL    HW187538  11.537  11.398   7.600
28547SOL    HW287539  11.615  11.362   7.475
28548SOL     OW87540   4.245  13.994   9.750
28548SOL    HW187541   4.327  14.018   9.706
28548SOL    HW287542   4.273  13.942   9.825
28549SOL     OW87543   6.453   6.983  10.815
28549SOL    HW187544   6.385   6.940  10.867
28549SOL    HW287545   6.406   7.048  10.762
28550SOL     OW87546  12.212  13.129   2.754
28550SOL    HW187547  12.288  13.117   2.811
28550SOL    HW287548  12.147  13.174   2.808
28551SOL     OW87549   3.849  12.596  13.616
28551SOL    HW187550   3.764  12.557  13.599
28551SOL    HW287551   3.831  12.669  13.675
28552SOL     OW87552   4.665   2.768   8.825
28552SOL    HW187553   4.701   2.841   8.876
28552SOL    HW287554   4.736   2.743   8.766
28553SOL     OW87555  11.369   5.386   7.586
28553SOL    HW187556  11.415   5.307   7.614
28553SOL    HW287557  11.364   5.379   7.490
28554SOL     OW87558   1.560   7.301   1.680
28554SOL    HW187559   1.530   7.383   1.642
28554SOL    HW287560   1.487   7.271   1.734
28555SOL     OW87561   9.677   4.099   9.787
28555SOL    HW187562   9.602   4.148   9.755
28555SOL    HW287563   9.658   4.082   9.879
28556SOL     OW87564   3.512   0.989   9.192
28556SOL    HW187565   3.450   1.037   9.138
28556SOL    HW287566   3.458   0.932   9.246
28557SOL     OW87567   6.194   1.642  11.160
28557SOL    HW187568   6.108   1.607  11.138
28557SOL    HW287569   6.230   1.579  11.223
28558SOL     OW87570   8.313   9.919   2.286
28558SOL    HW187571   8.231   9.963   2.268
28558SOL    HW287572   8.379   9.989   2.286
28559SOL     OW87573  13.683  14.324  11.441
28559SOL    HW187574  13.682  14.404  11.389
28559SOL    HW287575  13.745  14.266  11.396
28560SOL     OW87576   4.507  10.948   8.482
28560SOL    HW187577   4.468  11.001   8.412
28560SOL    HW287578   4.433  10.898   8.518
28561SOL     OW87579   9.541  11.469   8.538
28561SOL    HW187580   9.468  11.493   8.595
28561SOL    HW287581   9.569  11.383   8.569
28562SOL     OW87582  10.775   3.738   2.301
28562SOL    HW187583  10.798   3.674   2.234
28562SOL    HW287584  10.813   3.703   2.382
28563SOL     OW87585   9.275   8.093   8.820
28563SOL    HW187586   9.215   8.104   8.894
28563SOL    HW287587   9.225   8.122   8.744
28564SOL     OW87588   7.022  10.298   2.333
28564SOL    HW187589   7.030  10.386   2.295
28564SOL    HW287590   6.946  10.304   2.390
28565SOL     OW87591  11.141   3.202  13.301
28565SOL    HW187592  11.226   3.247  13.306
28565SOL    HW287593  11.158   3.116  13.339
28566SOL     OW87594   6.219  13.669   3.753
28566SOL    HW187595   6.291  13.609   3.773
28566SOL    HW287596   6.143  13.612   3.740
28567SOL     OW87597  12.481   8.759  11.870
28567SOL    HW187598  12.555   8.747  11.929
28567SOL    HW287599  12.404   8.734  11.921
28568SOL     OW87600   9.487   7.621  12.239
28568SOL    HW187601   9.536   7.547  12.276
28568SOL    HW287602   9.416   7.580  12.189
28569SOL     OW87603   5.296   1.527  11.123
28569SOL    HW187604   5.291   1.608  11.073
28569SOL    HW287605   5.286   1.555  11.215
28570SOL     OW87606  13.078  14.400   3.427
28570SOL    HW187607  13.131  14.470   3.465
28570SOL    HW287608  13.105  14.396   3.335
28571SOL     OW87609  12.155  14.773   4.664
28571SOL    HW187610  12.232  14.745   4.614
28571SOL    HW287611  12.128  14.696   4.713
28572SOL     OW87612   5.712   2.735   2.941
28572SOL    HW187613   5.768   2.695   3.008
28572SOL    HW287614   5.706   2.669   2.872
28573SOL     OW87615  14.064   3.645  11.615
28573SOL    HW187616  14.061   3.609  11.526
28573SOL    HW287617  13.995   3.598  11.662
28574SOL     OW87618   1.734   9.580   4.962
28574SOL    HW187619   1.669   9.510   4.953
28574SOL    HW287620   1.777   9.563   5.046
28575SOL     OW87621   7.529  11.955   5.027
28575SOL    HW187622   7.497  11.909   4.949
28575SOL    HW287623   7.552  11.886   5.088
28576SOL     OW87624   8.159   8.005   4.700
28576SOL    HW187625   8.114   8.089   4.692
28576SOL    HW287626   8.096   7.941   4.667
28577SOL     OW87627   4.646   3.766   3.093
28577SOL    HW187628   4.632   3.860   3.097
28577SOL    HW287629   4.710   3.748   3.162
28578SOL     OW87630  12.665   6.490   8.266
28578SOL    HW187631  12.595   6.440   8.307
28578SOL    HW287632  12.709   6.427   8.208
28579SOL     OW87633  11.834  12.702  11.284
28579SOL    HW187634  11.800  12.614  11.272
28579SOL    HW287635  11.783  12.739  11.356
28580SOL     OW87636   3.912  13.241  12.188
28580SOL    HW187637   3.846  13.229  12.120
28580SOL    HW287638   3.868  13.220  12.270
28581SOL     OW87639   5.831  13.149   6.236
28581SOL    HW187640   5.887  13.114   6.167
28581SOL    HW287641   5.870  13.234   6.258
28582SOL     OW87642   1.156   3.566  13.993
28582SOL    HW187643   1.101   3.635  13.956
28582SOL    HW287644   1.193   3.522  13.916
28583SOL     OW87645   4.830  13.257  14.859
28583SOL    HW187646   4.820  13.286  14.769
28583SOL    HW287647   4.902  13.311   0.024
28584SOL     OW87648  12.130   3.706   3.108
28584SOL    HW187649  12.042   3.706   3.071
28584SOL    HW287650  12.166   3.621   3.083
28585SOL     OW87651   9.100  12.829   0.475
28585SOL    HW187652   9.016  12.784   0.474
28585SOL    HW287653   9.127  12.832   0.383
28586SOL     OW87654   9.173   1.429   9.104
28586SOL    HW187655   9.225   1.452   9.180
28586SOL    HW287656   9.148   1.512   9.065
28587SOL     OW87657   8.250  14.350  13.107
28587SOL    HW187658   8.182  14.378  13.168
28587SOL    HW287659   8.202  14.318  13.031
28588SOL     OW87660   8.231   6.221  12.705
28588SOL    HW187661   8.185   6.151  12.751
28588SOL    HW287662   8.162   6.279  12.674
28589SOL     OW87663   5.812  10.357   6.963
28589SOL    HW187664   5.736  10.367   6.906
28589SOL    HW287665   5.882  10.405   6.919
28590SOL     OW87666  13.021   8.471   9.903
28590SOL    HW187667  13.091   8.407   9.919
28590SOL    HW287668  13.050   8.518   9.824
28591SOL     OW87669   3.598   5.440  12.076
28591SOL    HW187670   3.622   5.351  12.048
28591SOL    HW287671   3.580   5.431  12.170
28592SOL     OW87672   4.389   8.000   0.928
28592SOL    HW187673   4.441   8.079   0.939
28592SOL    HW287674   4.442   7.931   0.969
28593SOL     OW87675   8.202   5.020   6.938
28593SOL    HW187676   8.245   4.960   6.999
28593SOL    HW287677   8.202   4.973   6.854
28594SOL     OW87678   7.961   2.069   4.781
28594SOL    HW187679   7.991   2.152   4.817
28594SOL    HW287680   7.919   2.092   4.698
28595SOL     OW87681   4.922   3.692   2.633
28595SOL    HW187682   4.839   3.663   2.594
28595SOL    HW287683   4.902   3.707   2.725
28596SOL     OW87684   0.802   5.601   2.672
28596SOL    HW187685   0.835   5.657   2.601
28596SOL    HW287686   0.782   5.662   2.743
28597SOL     OW87687  14.814   6.380   7.922
28597SOL    HW187688  14.867   6.300   7.916
28597SOL    HW287689  14.724   6.349   7.924
28598SOL     OW87690  13.968  11.520  14.413
28598SOL    HW187691  14.054  11.481  14.432
28598SOL    HW287692  13.906  11.467  14.463
28599SOL     OW87693   7.705  11.574   6.731
28599SOL    HW187694   7.718  11.494   6.781
28599SOL    HW287695   7.660  11.633   6.792
28600SOL     OW87696  10.166  12.879   4.937
28600SOL    HW187697  10.151  12.854   5.029
28600SOL    HW287698  10.101  12.946   4.920
28601SOL     OW87699   1.460  13.591  13.639
28601SOL    HW187700   1.434  13.596  13.730
28601SOL    HW287701   1.547  13.633  13.636
28602SOL     OW87702  10.126   3.406   0.018
28602SOL    HW187703  10.188   3.473   0.047
28602SOL    HW287704  10.140   3.333   0.079
28603SOL     OW87705   4.529  12.860  13.620
28603SOL    HW187706   4.441  12.896  13.604
28603SOL    HW287707   4.586  12.937  13.625
28604SOL     OW87708   7.200   0.424  14.442
28604SOL    HW187709   7.248   0.390  14.367
28604SOL    HW287710   7.112   0.387  14.434
28605SOL     OW87711  12.820   2.641   9.847
28605SOL    HW187712  12.766   2.681   9.915
28605SOL    HW287713  12.763   2.573   9.809
28606SOL     OW87714  10.399   1.343   4.998
28606SOL    HW187715  10.462   1.301   4.939
28606SOL    HW287716  10.324   1.283   4.999
28607SOL     OW87717  12.264   0.609  11.376
28607SOL    HW187718  12.178   0.629  11.340
28607SOL    HW287719  12.325   0.635  11.307
28608SOL     OW87720   4.144  14.429   6.544
28608SOL    HW187721   4.068  14.387   6.585
28608SOL    HW287722   4.205  14.357   6.529
28609SOL     OW87723   5.048  10.852  12.224
28609SOL    HW187724   5.098  10.899  12.291
28609SOL    HW287725   5.047  10.761  12.255
28610SOL     OW87726   1.008  12.910  13.650
28610SOL    HW187727   1.003  12.885  13.742
28610SOL    HW287728   0.992  13.004  13.649
28611SOL     OW87729   3.263   3.914  10.177
28611SOL    HW187730   3.334   3.880  10.232
28611SOL    HW287731   3.299   3.910  10.088
28612SOL     OW87732   4.486   0.681  12.705
28612SOL    HW187733   4.545   0.700  12.777
28612SOL    HW287734   4.542   0.648  12.635
28613SOL     OW87735  11.017  10.808   1.373
28613SOL    HW187736  11.085  10.867   1.339
28613SOL    HW287737  11.031  10.809   1.467
28614SOL     OW87738  13.194  13.054   6.569
28614SOL    HW187739  13.248  13.009   6.634
28614SOL    HW287740  13.230  13.026   6.484
28615SOL     OW87741   2.395   1.647   7.375
28615SOL    HW187742   2.364   1.597   7.451
28615SOL    HW287743   2.402   1.737   7.408
28616SOL     OW87744  10.570   3.462   3.152
28616SOL    HW187745  10.616   3.547   3.151
28616SOL    HW287746  10.628   3.404   3.104
28617SOL     OW87747   8.567   4.977   6.355
28617SOL    HW187748   8.507   4.984   6.281
28617SOL    HW287749   8.649   5.015   6.324
28618SOL     OW87750  10.984   7.161   3.743
28618SOL    HW187751  11.062   7.142   3.796
28618SOL    HW287752  11.006   7.243   3.698
28619SOL     OW87753   5.352  11.528   6.640
28619SOL    HW187754   5.363  11.597   6.706
28619SOL    HW287755   5.258  11.527   6.622
28620SOL     OW87756   9.972   4.461   9.599
28620SOL    HW187757  10.026   4.382   9.601
28620SOL    HW287758   9.900   4.442   9.659
28621SOL     OW87759   6.118   7.255   8.864
28621SOL    HW187760   6.116   7.320   8.935
28621SOL    HW287761   6.025   7.241   8.843
28622SOL     OW87762  12.651   2.049  11.844
28622SOL    HW187763  12.727   2.019  11.795
28622SOL    HW287764  12.578   1.997  11.810
28623SOL     OW87765   4.416   2.041  11.074
28623SOL    HW187766   4.374   1.973  11.022
28623SOL    HW287767   4.384   2.124  11.037
28624SOL     OW87768   1.222   3.478  12.724
28624SOL    HW187769   1.307   3.489  12.767
28624SOL    HW287770   1.235   3.404  12.665
28625SOL     OW87771   4.152  12.835  14.759
28625SOL    HW187772   4.231  12.880  14.730
28625SOL    HW287773   4.133  12.772  14.690
28626SOL     OW87774  13.193   9.006   0.936
28626SOL    HW187775  13.188   9.084   0.881
28626SOL    HW287776  13.118   8.954   0.910
28627SOL     OW87777   6.143  14.512   6.447
28627SOL    HW187778   6.178  14.456   6.516
28627SOL    HW287779   6.100  14.452   6.386
28628SOL     OW87780  11.000   6.818   1.133
28628SOL    HW187781  10.965   6.734   1.160
28628SOL    HW287782  10.924   6.868   1.103
28629SOL     OW87783   4.622   0.380  11.252
28629SOL    HW187784   4.666   0.464  11.246
28629SOL    HW287785   4.690   0.319  11.281
28630SOL     OW87786   2.609  13.941   1.465
28630SOL    HW187787   2.608  14.036   1.454
28630SOL    HW287788   2.669  13.927   1.539
28631SOL     OW87789   1.280   8.642   5.493
28631SOL    HW187790   1.215   8.710   5.511
28631SOL    HW287791   1.364   8.686   5.508
28632SOL     OW87792   0.556   1.861   3.099
28632SOL    HW187793   0.601   1.941   3.128
28632SOL    HW287794   0.496   1.890   3.031
28633SOL     OW87795  12.087  11.470   0.846
28633SOL    HW187796  12.006  11.512   0.873
28633SOL    HW287797  12.155  11.536   0.860
28634SOL     OW87798  12.433   7.564  11.863
28634SOL    HW187799  12.446   7.590  11.954
28634SOL    HW287800  12.518   7.530  11.836
28635SOL     OW87801  14.438   3.415   1.603
28635SOL    HW187802  14.482   3.420   1.688
28635SOL    HW287803  14.504   3.379   1.544
28636SOL     OW87804   2.450   6.601   2.752
28636SOL    HW187805   2.505   6.524   2.734
28636SOL    HW287806   2.511   6.669   2.777
28637SOL     OW87807   9.869   2.504  13.319
28637SOL    HW187808   9.910   2.558  13.251
28637SOL    HW287809   9.795   2.462  13.275
28638SOL     OW87810   9.906   5.272   6.275
28638SOL    HW187811   9.968   5.226   6.332
28638SOL    HW287812   9.853   5.325   6.334
28639SOL     OW87813   3.804   0.482   1.830
28639SOL    HW187814   3.879   0.532   1.797
28639SOL    HW287815   3.809   0.398   1.783
28640SOL     OW87816   1.262  11.272  10.372
28640SOL    HW187817   1.188  11.332  10.382
28640SOL    HW287818   1.293  11.258  10.462
28641SOL     OW87819   7.592   0.874   9.742
28641SOL    HW187820   7.672   0.911   9.705
28641SOL    HW287821   7.610   0.780   9.748
28642SOL     OW87822   6.924  13.845  11.327
28642SOL    HW187823   6.865  13.831  11.401
28642SOL    HW287824   6.991  13.777  11.337
28643SOL     OW87825   0.471   7.738   7.617
28643SOL    HW187826   0.566   7.745   7.627
28643SOL    HW287827   0.454   7.769   7.528
28644SOL     OW87828   2.966   7.729  11.507
28644SOL    HW187829   2.877   7.695  11.518
28644SOL    HW287830   2.995   7.752  11.595
28645SOL     OW87831  12.649   6.408   9.959
28645SOL    HW187832  12.645   6.454  10.043
28645SOL    HW287833  12.742   6.406   9.937
28646SOL     OW87834  13.997   1.790  11.107
28646SOL    HW187835  14.028   1.812  11.195
28646SOL    HW287836  14.075   1.760  11.060
28647SOL     OW87837  10.354  14.624  13.612
28647SOL    HW187838  10.398  14.647  13.530
28647SOL    HW287839  10.418  14.570  13.659
28648SOL     OW87840  13.481  12.153   9.524
28648SOL    HW187841  13.518  12.218   9.464
28648SOL    HW287842  13.442  12.204   9.594
28649SOL     OW87843  12.528   1.115  14.814
28649SOL    HW187844  12.440   1.099  14.782
28649SOL    HW287845  12.584   1.103  14.737
28650SOL     OW87846  12.684  14.200   3.631
28650SOL    HW187847  12.752  14.139   3.661
28650SOL    HW287848  12.621  14.145   3.585
28651SOL     OW87849   9.164   1.382  12.738
28651SOL    HW187850   9.134   1.366  12.828
28651SOL    HW287851   9.122   1.464  12.713
28652SOL     OW87852   4.018   9.549   3.910
28652SOL    HW187853   4.037   9.614   3.979
28652SOL    HW287854   4.041   9.465   3.950
28653SOL     OW87855   5.425   2.151   0.879
28653SOL    HW187856   5.456   2.102   0.955
28653SOL    HW287857   5.475   2.116   0.805
28654SOL     OW87858   0.990  14.727  13.976
28654SOL    HW187859   0.967  14.720  13.883
28654SOL    HW287860   0.993  14.821  13.993
28655SOL     OW87861  10.741   2.385   9.469
28655SOL    HW187862  10.783   2.311   9.513
28655SOL    HW287863  10.785   2.462   9.504
28656SOL     OW87864   5.331  10.026   1.070
28656SOL    HW187865   5.306  10.068   1.153
28656SOL    HW287866   5.251  10.029   1.018
28657SOL     OW87867   1.758  12.673  10.319
28657SOL    HW187868   1.821  12.667  10.390
28657SOL    HW287869   1.731  12.582  10.302
28658SOL     OW87870   6.312   2.894   4.600
28658SOL    HW187871   6.363   2.818   4.570
28658SOL    HW287872   6.221   2.868   4.587
28659SOL     OW87873   7.391  11.727   6.741
28659SOL    HW187874   7.467  11.741   6.796
28659SOL    HW287875   7.320  11.775   6.785
28660SOL     OW87876   1.778   9.182   5.852
28660SOL    HW187877   1.777   9.209   5.943
28660SOL    HW287878   1.861   9.135   5.842
28661SOL     OW87879   0.856   2.735  13.214
28661SOL    HW187880   0.825   2.656  13.169
28661SOL    HW287881   0.829   2.723  13.305
28662SOL     OW87882  10.436   5.033   5.315
28662SOL    HW187883  10.424   5.017   5.408
28662SOL    HW287884  10.484   5.116   5.310
28663SOL     OW87885  10.341   2.716   6.659
28663SOL    HW187886  10.293   2.646   6.702
28663SOL    HW287887  10.281   2.791   6.660
28664SOL     OW87888  12.049  10.844   7.675
28664SOL    HW187889  11.998  10.870   7.751
28664SOL    HW287890  12.137  10.878   7.693
28665SOL     OW87891  11.775   1.288   7.854
28665SOL    HW187892  11.810   1.371   7.821
28665SOL    HW287893  11.852   1.233   7.864
28666SOL     OW87894  13.017  10.043  14.592
28666SOL    HW187895  12.958   9.970  14.611
28666SOL    HW287896  13.085  10.005  14.536
28667SOL     OW87897  13.213   0.972   6.349
28667SOL    HW187898  13.273   1.039   6.380
28667SOL    HW287899  13.202   0.990   6.256
28668SOL     OW87900  13.611   5.564   2.730
28668SOL    HW187901  13.670   5.534   2.799
28668SOL    HW287902  13.545   5.616   2.775
28669SOL     OW87903  13.685   1.093  13.161
28669SOL    HW187904  13.703   1.024  13.224
28669SOL    HW287905  13.720   1.060  13.078
28670SOL     OW87906   0.412  14.317  10.181
28670SOL    HW187907   0.468  14.314  10.258
28670SOL    HW287908   0.338  14.371  10.207
28671SOL     OW87909   0.784   2.516   6.942
28671SOL    HW187910   0.880   2.516   6.945
28671SOL    HW287911   0.762   2.583   6.877
28672SOL     OW87912  11.746   5.886  12.703
28672SOL    HW187913  11.671   5.870  12.645
28672SOL    HW287914  11.746   5.981  12.715
28673SOL     OW87915  10.513   9.820  13.536
28673SOL    HW187916  10.598   9.781  13.553
28673SOL    HW287917  10.452   9.747  13.537
28674SOL     OW87918   6.150  12.932   8.787
28674SOL    HW187919   6.167  13.009   8.732
28674SOL    HW287920   6.146  12.967   8.876
28675SOL     OW87921  14.162   1.395   3.068
28675SOL    HW187922  14.198   1.476   3.105
28675SOL    HW287923  14.184   1.328   3.132
28676SOL     OW87924  12.850   0.336  11.122
28676SOL    HW187925  12.833   0.318  11.215
28676SOL    HW287926  12.933   0.383  11.122
28677SOL     OW87927  14.282  12.133  12.479
28677SOL    HW187928  14.358  12.110  12.424
28677SOL    HW287929  14.213  12.155  12.416
28678SOL     OW87930   9.200   6.524   6.973
28678SOL    HW187931   9.276   6.472   6.945
28678SOL    HW287932   9.182   6.582   6.899
28679SOL     OW87933  10.584   0.017  14.827
28679SOL    HW187934  10.544   0.088  14.776
28679SOL    HW287935  10.670   0.052  14.852
28680SOL     OW87936   2.885  12.614   4.241
28680SOL    HW187937   2.820  12.595   4.307
28680SOL    HW287938   2.851  12.574   4.161
28681SOL     OW87939   1.209   9.484  13.612
28681SOL    HW187940   1.297   9.521  13.601
28681SOL    HW287941   1.211   9.402  13.562
28682SOL     OW87942   1.873   0.243   7.725
28682SOL    HW187943   1.962   0.232   7.758
28682SOL    HW287944   1.816   0.217   7.797
28683SOL     OW87945  13.913   7.797   2.196
28683SOL    HW187946  13.843   7.737   2.171
28683SOL    HW287947  13.959   7.752   2.268
28684SOL     OW87948  14.351   2.556   7.035
28684SOL    HW187949  14.284   2.494   7.004
28684SOL    HW287950  14.387   2.514   7.113
28685SOL     OW87951   3.113   3.367   5.872
28685SOL    HW187952   3.161   3.430   5.817
28685SOL    HW287953   3.137   3.391   5.962
28686SOL     OW87954  12.129   5.621   1.572
28686SOL    HW187955  12.042   5.660   1.578
28686SOL    HW287956  12.175   5.652   1.650
28687SOL     OW87957   0.200   8.096   8.875
28687SOL    HW187958   0.262   8.127   8.809
28687SOL    HW287959   0.128   8.056   8.825
28688SOL     OW87960  10.780   7.066   3.934
28688SOL    HW187961  10.812   6.982   3.968
28688SOL    HW287962  10.851   7.098   3.878
28689SOL     OW87963   7.773  10.941   7.781
28689SOL    HW187964   7.685  10.911   7.756
28689SOL    HW287965   7.779  10.920   7.874
28690SOL     OW87966   4.132   9.675   4.651
28690SOL    HW187967   4.159   9.764   4.669
28690SOL    HW287968   4.214   9.625   4.647
28691SOL     OW87969   4.001  13.715   1.261
28691SOL    HW187970   4.009  13.625   1.292
28691SOL    HW287971   3.942  13.757   1.324
28692SOL     OW87972  13.779  13.954   5.968
28692SOL    HW187973  13.712  13.894   5.936
28692SOL    HW287974  13.731  14.022   6.015
28693SOL     OW87975  14.736   1.236  14.309
28693SOL    HW187976  14.797   1.234  14.236
28693SOL    HW287977  14.759   1.314  14.358
28694SOL     OW87978   6.462  10.930   2.531
28694SOL    HW187979   6.471  10.884   2.448
28694SOL    HW287980   6.545  10.976   2.543
28695SOL     OW87981  10.151   5.785   4.559
28695SOL    HW187982  10.192   5.872   4.553
28695SOL    HW287983  10.224   5.724   4.554
28696SOL     OW87984   8.008   6.537   7.945
28696SOL    HW187985   8.073   6.507   7.881
28696SOL    HW287986   7.953   6.598   7.896
28697SOL     OW87987  10.487  10.192   3.319
28697SOL    HW187988  10.440  10.109   3.311
28697SOL    HW287989  10.476  10.235   3.234
28698SOL     OW87990   3.986   0.109  13.081
28698SOL    HW187991   4.050   0.180  13.084
28698SOL    HW287992   4.038   0.031  13.058
28699SOL     OW87993  12.385  13.121   2.973
28699SOL    HW187994  12.474  13.153   2.987
28699SOL    HW287995  12.347  13.113   3.060
28700SOL     OW87996  11.744   1.642   8.998
28700SOL    HW187997  11.822   1.593   8.972
28700SOL    HW287998  11.746   1.643   9.093
28701SOL     OW87999  10.300   6.608   2.328
28701SOL    HW188000  10.345   6.609   2.412
28701SOL    HW288001  10.369   6.595   2.264
28702SOL     OW88002   8.463   8.814   9.881
28702SOL    HW188003   8.405   8.887   9.903
28702SOL    HW288004   8.449   8.801   9.787
28703SOL     OW88005  14.068  14.314  14.406
28703SOL    HW188006  14.053  14.225  14.376
28703SOL    HW288007  14.053  14.310  14.501
28704SOL     OW88008  10.158   9.686  10.315
28704SOL    HW188009  10.115   9.771  10.319
28704SOL    HW288010  10.241   9.699  10.360
28705SOL     OW88011   5.478   1.709  12.866
28705SOL    HW188012   5.536   1.663  12.927
28705SOL    HW288013   5.438   1.638  12.814
28706SOL     OW88014  14.735   2.467   8.360
28706SOL    HW188015  14.712   2.393   8.303
28706SOL    HW288016  14.783   2.426   8.432
28707SOL     OW88017   7.557   8.393   0.200
28707SOL    HW188018   7.516   8.343   0.271
28707SOL    HW288019   7.546   8.338   0.122
28708SOL     OW88020  12.535   8.886   9.739
28708SOL    HW188021  12.616   8.912   9.697
28708SOL    HW288022  12.563   8.831   9.813
28709SOL     OW88023   3.841  14.231   2.605
28709SOL    HW188024   3.866  14.314   2.645
28709SOL    HW288025   3.805  14.256   2.519
28710SOL     OW88026   7.772  11.002   1.965
28710SOL    HW188027   7.764  10.907   1.967
28710SOL    HW288028   7.843  11.022   2.027
28711SOL     OW88029   7.824  11.123  10.526
28711SOL    HW188030   7.804  11.215  10.545
28711SOL    HW288031   7.887  11.127  10.453
28712SOL     OW88032   7.056  13.467   5.493
28712SOL    HW188033   7.121  13.507   5.435
28712SOL    HW288034   7.094  13.382   5.516
28713SOL     OW88035   1.819  12.910  11.973
28713SOL    HW188036   1.802  12.840  11.909
28713SOL    HW288037   1.733  12.947  11.991
28714SOL     OW88038  12.201   4.115  11.165
28714SOL    HW188039  12.201   4.210  11.173
28714SOL    HW288040  12.273   4.096  11.105
28715SOL     OW88041   4.627  10.033   1.734
28715SOL    HW188042   4.578   9.984   1.800
28715SOL    HW288043   4.564  10.096   1.700
28716SOL     OW88044  10.518  10.622   6.616
28716SOL    HW188045  10.572  10.665   6.682
28716SOL    HW288046  10.445  10.681   6.602
28717SOL     OW88047   8.771   6.180  10.891
28717SOL    HW188048   8.728   6.224  10.817
28717SOL    HW288049   8.744   6.231  10.968
28718SOL     OW88050  14.322  11.717   5.355
28718SOL    HW188051  14.267  11.692   5.429
28718SOL    HW288052  14.406  11.674   5.372
28719SOL     OW88053  11.114   5.433  11.196
28719SOL    HW188054  11.206   5.444  11.169
28719SOL    HW288055  11.113   5.350  11.244
28720SOL     OW88056   6.086  10.449   4.788
28720SOL    HW188057   6.067  10.434   4.695
28720SOL    HW288058   6.004  10.427   4.833
28721SOL     OW88059   4.390   6.135   8.515
28721SOL    HW188060   4.352   6.218   8.486
28721SOL    HW288061   4.478   6.134   8.476
28722SOL     OW88062   5.596  13.976   1.731
28722SOL    HW188063   5.626  13.968   1.822
28722SOL    HW288064   5.534  13.903   1.720
28723SOL     OW88065   3.313   7.210   9.277
28723SOL    HW188066   3.283   7.131   9.322
28723SOL    HW288067   3.270   7.206   9.191
28724SOL     OW88068   2.645   1.282   8.561
28724SOL    HW188069   2.657   1.351   8.496
28724SOL    HW288070   2.685   1.204   8.522
28725SOL     OW88071   5.874   8.863   3.755
28725SOL    HW188072   5.960   8.883   3.791
28725SOL    HW288073   5.887   8.784   3.702
28726SOL     OW88074  10.438   4.146  10.952
28726SOL    HW188075  10.411   4.238  10.949
28726SOL    HW288076  10.502   4.142  11.023
28727SOL     OW88077   7.908   5.938   1.019
28727SOL    HW188078   7.945   5.868   0.965
28727SOL    HW288079   7.902   6.013   0.960
28728SOL     OW88080   5.749   1.775  11.063
28728SOL    HW188081   5.773   1.838  10.996
28728SOL    HW288082   5.655   1.785  11.073
28729SOL     OW88083   9.209  13.209   1.922
28729SOL    HW188084   9.177  13.144   1.860
28729SOL    HW288085   9.265  13.267   1.870
28730SOL     OW88086   5.976   8.902  13.782
28730SOL    HW188087   5.957   8.912  13.875
28730SOL    HW288088   5.964   8.989  13.745
28731SOL     OW88089   2.199   7.800   7.543
28731SOL    HW188090   2.191   7.713   7.582
28731SOL    HW288091   2.123   7.807   7.485
28732SOL     OW88092   4.886   1.441  13.229
28732SOL    HW188093   4.852   1.386  13.158
28732SOL    HW288094   4.917   1.379  13.295
28733SOL     OW88095  14.572   2.388  14.638
28733SOL    HW188096  14.567   2.373  14.544
28733SOL    HW288097  14.484   2.370  14.670
28734SOL     OW88098   9.652   1.696   3.267
28734SOL    HW188099   9.720   1.661   3.324
28734SOL    HW288100   9.592   1.742   3.326
28735SOL     OW88101   1.882  13.253  14.439
28735SOL    HW188102   1.817  13.216  14.379
28735SOL    HW288103   1.831  13.296  14.507
28736SOL     OW88104   0.009  12.206   6.119
28736SOL    HW188105  14.841  12.227   6.034
28736SOL    HW288106  14.827  12.132   6.151
28737SOL     OW88107   7.795   8.181   5.705
28737SOL    HW188108   7.872   8.237   5.712
28737SOL    HW288109   7.732   8.232   5.654
28738SOL     OW88110   3.221  14.615  10.138
28738SOL    HW188111   3.293  14.582  10.192
28738SOL    HW288112   3.154  14.643  10.201
28739SOL     OW88113   8.608   7.506  14.207
28739SOL    HW188114   8.539   7.566  14.236
28739SOL    HW288115   8.673   7.507  14.277
28740SOL     OW88116   4.906   6.867   8.456
28740SOL    HW188117   4.946   6.949   8.484
28740SOL    HW288118   4.823   6.893   8.416
28741SOL     OW88119   3.208  13.210   6.354
28741SOL    HW188120   3.211  13.147   6.282
28741SOL    HW288121   3.140  13.177   6.412
28742SOL     OW88122   0.600  11.589  13.257
28742SOL    HW188123   0.628  11.628  13.174
28742SOL    HW288124   0.522  11.539  13.234
28743SOL     OW88125   3.002   9.791   9.747
28743SOL    HW188126   2.942   9.749   9.809
28743SOL    HW288127   2.945   9.823   9.676
28744SOL     OW88128  11.496  13.091   9.918
28744SOL    HW188129  11.542  13.022   9.870
28744SOL    HW288130  11.450  13.141   9.850
28745SOL     OW88131  14.130  14.541  14.200
28745SOL    HW188132  14.161  14.509  14.285
28745SOL    HW288133  14.093  14.627  14.219
28746SOL     OW88134   4.735   8.590   4.659
28746SOL    HW188135   4.823   8.628   4.665
28746SOL    HW288136   4.727   8.561   4.568
28747SOL     OW88137  13.404   2.113   5.676
28747SOL    HW188138  13.367   2.027   5.697
28747SOL    HW288139  13.441   2.144   5.759
28748SOL     OW88140   5.805   8.594   5.378
28748SOL    HW188141   5.841   8.664   5.323
28748SOL    HW288142   5.736   8.554   5.325
28749SOL     OW88143  11.891  12.470   4.336
28749SOL    HW188144  11.868  12.545   4.390
28749SOL    HW288145  11.985  12.479   4.321
28750SOL     OW88146   2.473   6.473   7.885
28750SOL    HW188147   2.441   6.504   7.800
28750SOL    HW288148   2.459   6.378   7.882
28751SOL     OW88149  11.523   8.524  11.797
28751SOL    HW188150  11.481   8.592  11.850
28751SOL    HW288151  11.459   8.454  11.790
28752SOL     OW88152   5.453   6.430   8.346
28752SOL    HW188153   5.529   6.372   8.352
28752SOL    HW288154   5.489   6.514   8.317
28753SOL     OW88155   7.736   5.957   0.187
28753SOL    HW188156   7.811   5.902   0.163
28753SOL    HW288157   7.662   5.917   0.141
28754SOL     OW88158   9.151   4.732  12.570
28754SOL    HW188159   9.195   4.817  12.564
28754SOL    HW288160   9.119   4.715  12.482
28755SOL     OW88161  10.346  14.023  13.393
28755SOL    HW188162  10.320  14.082  13.322
28755SOL    HW288163  10.342  13.936  13.354
28756SOL     OW88164   2.657   2.713   7.888
28756SOL    HW188165   2.579   2.682   7.843
28756SOL    HW288166   2.715   2.637   7.890
28757SOL     OW88167   6.442   7.205  13.696
28757SOL    HW188168   6.516   7.147  13.678
28757SOL    HW288169   6.457   7.282  13.640
28758SOL     OW88170   9.834  11.358   0.581
28758SOL    HW188171   9.877  11.394   0.503
28758SOL    HW288172   9.898  11.368   0.651
28759SOL     OW88173  12.162  10.897  10.000
28759SOL    HW188174  12.181  10.939   9.916
28759SOL    HW288175  12.219  10.943  10.063
28760SOL     OW88176  10.033   9.606  13.273
28760SOL    HW188177   9.955   9.661  13.275
28760SOL    HW288178  10.092   9.649  13.211
28761SOL     OW88179   7.432  13.452  12.336
28761SOL    HW188180   7.434  13.447  12.431
28761SOL    HW288181   7.421  13.545  12.317
28762SOL     OW88182   6.669   7.864   2.839
28762SOL    HW188183   6.750   7.814   2.844
28762SOL    HW288184   6.674   7.911   2.756
28763SOL     OW88185   5.855   4.094  13.582
28763SOL    HW188186   5.871   4.081  13.489
28763SOL    HW288187   5.823   4.009  13.613
28764SOL     OW88188  13.348   2.124   8.749
28764SOL    HW188189  13.391   2.168   8.822
28764SOL    HW288190  13.386   2.164   8.671
28765SOL     OW88191  13.675   8.299   1.403
28765SOL    HW188192  13.608   8.328   1.465
28765SOL    HW288193  13.757   8.330   1.441
28766SOL     OW88194  12.736   4.008   3.528
28766SOL    HW188195  12.751   4.090   3.575
28766SOL    HW288196  12.642   3.991   3.537
28767SOL     OW88197  10.047   0.467   9.296
28767SOL    HW188198  10.029   0.561   9.290
28767SOL    HW288199  10.118   0.451   9.234
28768SOL     OW88200   1.001   7.871  12.664
28768SOL    HW188201   0.917   7.915  12.654
28768SOL    HW288202   1.064   7.941  12.681
28769SOL     OW88203   3.502  14.161   6.354
28769SOL    HW188204   3.590  14.174   6.318
28769SOL    HW288205   3.474  14.249   6.379
28770SOL     OW88206   7.486   4.204   1.944
28770SOL    HW188207   7.409   4.207   1.887
28770SOL    HW288208   7.520   4.115   1.933
28771SOL     OW88209  10.597  11.178   2.129
28771SOL    HW188210  10.543  11.124   2.070
28771SOL    HW288211  10.594  11.265   2.090
28772SOL     OW88212   5.468   0.370   1.136
28772SOL    HW188213   5.448   0.279   1.114
28772SOL    HW288214   5.400   0.396   1.197
28773SOL     OW88215   2.471   2.200   5.015
28773SOL    HW188216   2.494   2.224   5.104
28773SOL    HW288217   2.436   2.281   4.976
28774SOL     OW88218   5.079  14.340   7.869
28774SOL    HW188219   5.081  14.245   7.874
28774SOL    HW288220   5.171  14.367   7.878
28775SOL     OW88221   3.262  14.463   6.473
28775SOL    HW188222   3.188  14.462   6.533
28775SOL    HW288223   3.254  14.547   6.427
28776SOL     OW88224   9.304   3.831   9.755
28776SOL    HW188225   9.281   3.870   9.839
28776SOL    HW288226   9.368   3.891   9.716
28777SOL     OW88227  13.405   5.394  12.086
28777SOL    HW188228  13.488   5.362  12.049
28777SOL    HW288229  13.382   5.331  12.154
28778SOL     OW88230  12.727   5.920   3.244
28778SOL    HW188231  12.801   5.971   3.212
28778SOL    HW288232  12.766   5.841   3.282
28779SOL     OW88233   5.682   4.190   4.865
28779SOL    HW188234   5.707   4.100   4.888
28779SOL    HW288235   5.730   4.245   4.927
28780SOL     OW88236   4.793   5.353  12.506
28780SOL    HW188237   4.708   5.352  12.462
28780SOL    HW288238   4.771   5.359  12.599
28781SOL     OW88239   5.491   1.400   8.754
28781SOL    HW188240   5.476   1.316   8.797
28781SOL    HW288241   5.446   1.464   8.809
28782SOL     OW88242   4.861   0.707   2.397
28782SOL    HW188243   4.814   0.693   2.316
28782SOL    HW288244   4.941   0.754   2.371
28783SOL     OW88245   1.193   8.224   1.726
28783SOL    HW188246   1.183   8.299   1.667
28783SOL    HW288247   1.198   8.148   1.668
28784SOL     OW88248   2.446   7.220   4.678
28784SOL    HW188249   2.501   7.142   4.670
28784SOL    HW288250   2.422   7.242   4.588
28785SOL     OW88251  10.526   6.465   7.482
28785SOL    HW188252  10.567   6.548   7.509
28785SOL    HW288253  10.441   6.491   7.446
28786SOL     OW88254   8.203   3.721   3.319
28786SOL    HW188255   8.151   3.752   3.393
28786SOL    HW288256   8.177   3.777   3.246
28787SOL     OW88257   6.756   6.730   4.395
28787SOL    HW188258   6.799   6.815   4.396
28787SOL    HW288259   6.808   6.678   4.333
28788SOL     OW88260   1.396   4.723   9.203
28788SOL    HW188261   1.375   4.703   9.294
28788SOL    HW288262   1.486   4.690   9.192
28789SOL     OW88263  13.128  12.884   2.382
28789SOL    HW188264  13.051  12.862   2.329
28789SOL    HW288265  13.188  12.927   2.322
28790SOL     OW88266  10.229  11.507  14.546
28790SOL    HW188267  10.188  11.431  14.589
28790SOL    HW288268  10.317  11.511  14.584
28791SOL     OW88269   3.011   8.582   5.912
28791SOL    HW188270   2.970   8.647   5.855
28791SOL    HW288271   3.059   8.634   5.976
28792SOL     OW88272   2.261   5.613  12.985
28792SOL    HW188273   2.206   5.676  12.939
28792SOL    HW288274   2.322   5.667  13.036
28793SOL     OW88275   6.485   2.129   7.281
28793SOL    HW188276   6.545   2.106   7.209
28793SOL    HW288277   6.444   2.210   7.253
28794SOL     OW88278   5.533   1.542   6.377
28794SOL    HW188279   5.567   1.555   6.466
28794SOL    HW288280   5.601   1.576   6.320
28795SOL     OW88281  12.866  13.924  14.582
28795SOL    HW188282  12.823  14.010  14.582
28795SOL    HW288283  12.893  13.911  14.673
28796SOL     OW88284   2.597   0.982  10.400
28796SOL    HW188285   2.516   0.933  10.415
28796SOL    HW288286   2.578   1.070  10.432
28797SOL     OW88287   4.035   4.264   9.950
28797SOL    HW188288   4.105   4.286   9.887
28797SOL    HW288289   4.006   4.348   9.984
28798SOL     OW88290   0.063   5.028   2.815
28798SOL    HW188291   0.043   4.948   2.865
28798SOL    HW288292  14.848   5.071   2.804
28799SOL     OW88293   2.595  11.001  13.952
28799SOL    HW188294   2.505  10.974  13.936
28799SOL    HW288295   2.616  10.965  14.038
28800SOL     OW88296   2.348   5.182   0.578
28800SOL    HW188297   2.367   5.127   0.654
28800SOL    HW288298   2.314   5.122   0.513
28801SOL     OW88299  13.204  10.918  12.614
28801SOL    HW188300  13.182  10.903  12.522
28801SOL    HW288301  13.176  11.008  12.631
28802SOL     OW88302   4.975   6.405   2.843
28802SOL    HW188303   5.056   6.354   2.832
28802SOL    HW288304   4.933   6.401   2.757
28803SOL     OW88305   5.723   8.172   2.834
28803SOL    HW188306   5.718   8.175   2.738
28803SOL    HW288307   5.667   8.099   2.859
28804SOL     OW88308   0.931   7.980   4.143
28804SOL    HW188309   1.009   8.031   4.123
28804SOL    HW288310   0.926   7.979   4.238
28805SOL     OW88311   8.381   1.549   9.202
28805SOL    HW188312   8.317   1.478   9.209
28805SOL    HW288313   8.365   1.603   9.279
28806SOL     OW88314  12.815  14.441   4.920
28806SOL    HW188315  12.737  14.398   4.885
28806SOL    HW288316  12.799  14.535   4.906
28807SOL     OW88317  12.335   5.132   1.120
28807SOL    HW188318  12.320   5.099   1.208
28807SOL    HW288319  12.279   5.210   1.113
28808SOL     OW88320  13.426  11.053  14.520
28808SOL    HW188321  13.508  11.023  14.481
28808SOL    HW288322  13.432  11.148  14.519
28809SOL     OW88323  13.377   4.318   0.022
28809SOL    HW188324  13.293   4.335  14.850
28809SOL    HW288325  13.426   4.267  14.828
28810SOL     OW88326  12.112   0.658   4.398
28810SOL    HW188327  12.023   0.660   4.363
28810SOL    HW288328  12.104   0.694   4.486
28811SOL     OW88329  14.846   0.191  10.535
28811SOL    HW188330   0.003   0.110  10.492
28811SOL    HW288331   0.033   0.198  10.612
28812SOL     OW88332  10.251  13.356  11.304
28812SOL    HW188333  10.325  13.397  11.259
28812SOL    HW288334  10.219  13.423  11.364
28813SOL     OW88335   6.506   7.091   0.796
28813SOL    HW188336   6.542   7.020   0.744
28813SOL    HW288337   6.470   7.049   0.874
28814SOL     OW88338   6.405   2.700  11.283
28814SOL    HW188339   6.438   2.660  11.203
28814SOL    HW288340   6.464   2.773  11.300
28815SOL     OW88341   4.141   9.812   7.552
28815SOL    HW188342   4.150   9.744   7.619
28815SOL    HW288343   4.231   9.839   7.533
28816SOL     OW88344   4.726  13.097   5.353
28816SOL    HW188345   4.650  13.075   5.406
28816SOL    HW288346   4.727  13.193   5.350
28817SOL     OW88347   3.015  13.229   3.837
28817SOL    HW188348   2.979  13.174   3.767
28817SOL    HW288349   2.996  13.319   3.810
28818SOL     OW88350   7.046   5.099   7.738
28818SOL    HW188351   7.050   5.150   7.657
28818SOL    HW288352   7.120   5.131   7.790
28819SOL     OW88353   2.604   0.484   3.112
28819SOL    HW188354   2.579   0.550   3.047
28819SOL    HW288355   2.531   0.423   3.113
28820SOL     OW88356   3.346   6.061  13.974
28820SOL    HW188357   3.438   6.081  13.962
28820SOL    HW288358   3.341   5.966  13.973
28821SOL     OW88359  13.291   8.099  13.508
28821SOL    HW188360  13.256   8.051  13.583
28821SOL    HW288361  13.375   8.133  13.539
28822SOL     OW88362   9.903   5.978  10.924
28822SOL    HW188363   9.987   5.953  10.884
28822SOL    HW288364   9.840   5.971  10.852
28823SOL     OW88365  12.255  10.925   9.444
28823SOL    HW188366  12.332  10.873   9.465
28823SOL    HW288367  12.186  10.891   9.501
28824SOL     OW88368   0.543  10.235   1.799
28824SOL    HW188369   0.492  10.304   1.757
28824SOL    HW288370   0.632  10.271   1.802
28825SOL     OW88371   9.546   6.708   9.969
28825SOL    HW188372   9.600   6.724   9.891
28825SOL    HW288373   9.567   6.781  10.028
28826SOL     OW88374   6.266   2.749   2.530
28826SOL    HW188375   6.195   2.725   2.470
28826SOL    HW288376   6.221   2.777   2.609
28827SOL     OW88377   9.038   1.055   3.024
28827SOL    HW188378   9.046   1.025   3.114
28827SOL    HW288379   9.008   1.146   3.031
28828SOL     OW88380  11.256  13.280   9.263
28828SOL    HW188381  11.162  13.282   9.281
28828SOL    HW288382  11.263  13.242   9.176
28829SOL     OW88383  14.730   2.169  14.655
28829SOL    HW188384  14.707   2.262  14.661
28829SOL    HW288385  14.656   2.124  14.696
28830SOL     OW88386   0.744   6.309   2.576
28830SOL    HW188387   0.720   6.342   2.489
28830SOL    HW288388   0.774   6.386   2.623
28831SOL     OW88389  10.116  13.828   0.840
28831SOL    HW188390  10.043  13.800   0.785
28831SOL    HW288391  10.163  13.748   0.861
28832SOL     OW88392  11.415   9.994  13.108
28832SOL    HW188393  11.392   9.905  13.083
28832SOL    HW288394  11.347  10.020  13.170
28833SOL     OW88395   3.688   3.305   6.839
28833SOL    HW188396   3.714   3.393   6.810
28833SOL    HW288397   3.609   3.320   6.891
28834SOL     OW88398   5.196  11.216   6.634
28834SOL    HW188399   5.130  11.278   6.601
28834SOL    HW288400   5.257  11.271   6.684
28835SOL     OW88401   4.699   3.114   7.953
28835SOL    HW188402   4.776   3.130   7.898
28835SOL    HW288403   4.673   3.202   7.982
28836SOL     OW88404   7.826   8.253   0.880
28836SOL    HW188405   7.842   8.195   0.954
28836SOL    HW288406   7.879   8.216   0.809
28837SOL     OW88407   1.812  11.777   8.662
28837SOL    HW188408   1.843  11.844   8.601
28837SOL    HW288409   1.832  11.694   8.619
28838SOL     OW88410  10.707  12.066   6.226
28838SOL    HW188411  10.663  12.018   6.156
28838SOL    HW288412  10.800  12.050   6.212
28839SOL     OW88413  10.090   6.817   9.773
28839SOL    HW188414  10.018   6.818   9.836
28839SOL    HW288415  10.148   6.888   9.801
28840SOL     OW88416   9.677   9.261  10.031
28840SOL    HW188417   9.655   9.352  10.051
28840SOL    HW288418   9.600   9.211  10.058
28841SOL     OW88419  14.696  14.597  12.156
28841SOL    HW188420  14.783  14.595  12.115
28841SOL    HW288421  14.712  14.633  12.243
28842SOL     OW88422   0.658  12.076  11.727
28842SOL    HW188423   0.603  12.012  11.682
28842SOL    HW288424   0.670  12.040  11.815
28843SOL     OW88425   2.451   1.438  14.092
28843SOL    HW188426   2.376   1.423  14.150
28843SOL    HW288427   2.477   1.528  14.110
28844SOL     OW88428   2.109  12.683  11.951
28844SOL    HW188429   2.174  12.744  11.985
28844SOL    HW288430   2.127  12.678  11.857
28845SOL     OW88431   6.631   6.153   4.311
28845SOL    HW188432   6.681   6.092   4.366
28845SOL    HW288433   6.646   6.239   4.350
28846SOL     OW88434  10.644   3.470   8.544
28846SOL    HW188435  10.633   3.564   8.527
28846SOL    HW288436  10.591   3.453   8.621
28847SOL     OW88437  14.537   2.653   5.444
28847SOL    HW188438  14.561   2.712   5.373
28847SOL    HW288439  14.459   2.608   5.412
28848SOL     OW88440   5.019   2.433  11.295
28848SOL    HW188441   5.101   2.480  11.303
28848SOL    HW288442   4.953   2.501  11.280
28849SOL     OW88443   3.459  12.785   3.648
28849SOL    HW188444   3.535  12.827   3.689
28849SOL    HW288445   3.495  12.706   3.608
28850SOL     OW88446  12.576   2.422  14.725
28850SOL    HW188447  12.488   2.460  14.725
28850SOL    HW288448  12.630   2.487  14.769
28851SOL     OW88449   4.457  11.675   9.049
28851SOL    HW188450   4.471  11.648   9.140
28851SOL    HW288451   4.375  11.725   9.051
28852SOL     OW88452  14.424   0.504   9.662
28852SOL    HW188453  14.396   0.535   9.748
28852SOL    HW288454  14.378   0.560   9.599
28853SOL     OW88455   8.875   9.421   0.979
28853SOL    HW188456   8.939   9.438   1.048
28853SOL    HW288457   8.794   9.400   1.025
28854SOL     OW88458  12.702   9.103  12.342
28854SOL    HW188459  12.627   9.109  12.283
28854SOL    HW288460  12.676   9.039  12.408
28855SOL     OW88461   4.642   6.489   2.790
28855SOL    HW188462   4.689   6.445   2.720
28855SOL    HW288463   4.710   6.532   2.842
28856SOL     OW88464   1.131  11.974   6.855
28856SOL    HW188465   1.071  11.942   6.788
28856SOL    HW288466   1.152  12.063   6.828
28857SOL     OW88467   9.907  14.452   2.849
28857SOL    HW188468   9.991  14.446   2.895
28857SOL    HW288469   9.898  14.545   2.828
28858SOL     OW88470   2.482   5.932  10.003
28858SOL    HW188471   2.569   5.969   9.988
28858SOL    HW288472   2.426   6.008  10.018
28859SOL     OW88473   6.361   8.679  14.108
28859SOL    HW188474   6.394   8.708  14.023
28859SOL    HW288475   6.266   8.684  14.100
28860SOL     OW88476   8.834   1.173   2.414
28860SOL    HW188477   8.807   1.153   2.503
28860SOL    HW288478   8.927   1.195   2.421
28861SOL     OW88479   3.106   3.293   7.819
28861SOL    HW188480   3.168   3.244   7.873
28861SOL    HW288481   3.087   3.235   7.745
28862SOL     OW88482  12.655  11.803   6.767
28862SOL    HW188483  12.729  11.744   6.783
28862SOL    HW288484  12.578  11.747   6.772
28863SOL     OW88485   2.500  14.681  13.623
28863SOL    HW188486   2.422  14.714  13.668
28863SOL    HW288487   2.573  14.717  13.672
28864SOL     OW88488   7.794   3.713  14.675
28864SOL    HW188489   7.709   3.747  14.701
28864SOL    HW288490   7.822   3.660  14.750
28865SOL     OW88491  13.886   6.599  12.889
28865SOL    HW188492  13.802   6.644  12.887
28865SOL    HW288493  13.882   6.538  12.815
28866SOL     OW88494   2.744  12.839   9.337
28866SOL    HW188495   2.840  12.834   9.330
28866SOL    HW288496   2.720  12.917   9.286
28867SOL     OW88497   8.094   2.701  11.068
28867SOL    HW188498   8.059   2.772  11.014
28867SOL    HW288499   8.082   2.623  11.015
28868SOL     OW88500   9.459   7.257  14.553
28868SOL    HW188501   9.444   7.266  14.647
28868SOL    HW288502   9.543   7.299  14.537
28869SOL     OW88503   2.899   1.563   4.313
28869SOL    HW188504   2.948   1.606   4.243
28869SOL    HW288505   2.809   1.560   4.281
28870SOL     OW88506   3.493   0.134   3.570
28870SOL    HW188507   3.574   0.112   3.616
28870SOL    HW288508   3.482   0.064   3.506
28871SOL     OW88509   5.056  13.344   2.231
28871SOL    HW188510   4.986  13.314   2.173
28871SOL    HW288511   5.017  13.339   2.319
28872SOL     OW88512   2.205   1.659   3.975
28872SOL    HW188513   2.172   1.655   3.885
28872SOL    HW288514   2.175   1.744   4.008
28873SOL     OW88515   4.861   7.949   9.258
28873SOL    HW188516   4.770   7.930   9.239
28873SOL    HW288517   4.909   7.918   9.181
28874SOL     OW88518   8.374  11.153  11.253
28874SOL    HW188519   8.375  11.061  11.227
28874SOL    HW288520   8.465  11.171  11.277
28875SOL     OW88521   4.252  13.129  11.531
28875SOL    HW188522   4.162  13.132  11.565
28875SOL    HW288523   4.260  13.042  11.491
28876SOL     OW88524  10.700   0.169  12.084
28876SOL    HW188525  10.759   0.244  12.090
28876SOL    HW288526  10.618   0.205  12.050
28877SOL     OW88527  11.315  13.285   5.286
28877SOL    HW188528  11.359  13.230   5.221
28877SOL    HW288529  11.347  13.373   5.268
28878SOL     OW88530  12.035   6.923   6.270
28878SOL    HW188531  12.020   6.999   6.214
28878SOL    HW288532  12.116   6.884   6.237
28879SOL     OW88533   2.540   5.328   3.989
28879SOL    HW188534   2.586   5.402   3.950
28879SOL    HW288535   2.449   5.356   3.993
28880SOL     OW88536   7.504   1.921   3.985
28880SOL    HW188537   7.487   1.837   3.944
28880SOL    HW288538   7.524   1.980   3.913
28881SOL     OW88539  11.700   4.931   3.997
28881SOL    HW188540  11.724   4.878   4.073
28881SOL    HW288541  11.690   4.867   3.926
28882SOL     OW88542   0.974   4.993   3.942
28882SOL    HW188543   0.951   4.957   4.028
28882SOL    HW288544   1.060   4.954   3.922
28883SOL     OW88545  11.209   2.436   0.225
28883SOL    HW188546  11.240   2.435   0.134
28883SOL    HW288547  11.284   2.470   0.275
28884SOL     OW88548   5.330   7.203   0.495
28884SOL    HW188549   5.326   7.298   0.497
28884SOL    HW288550   5.338   7.177   0.586
28885SOL     OW88551  12.112   8.086   1.042
28885SOL    HW188552  12.059   8.125   0.972
28885SOL    HW288553  12.114   8.152   1.111
28886SOL     OW88554  10.377  12.542  11.708
28886SOL    HW188555  10.399  12.457  11.669
28886SOL    HW288556  10.312  12.579  11.649
28887SOL     OW88557  14.029   8.226  10.522
28887SOL    HW188558  14.085   8.242  10.446
28887SOL    HW288559  14.054   8.139  10.552
28888SOL     OW88560   3.056   4.622   9.933
28888SOL    HW188561   2.977   4.625   9.878
28888SOL    HW288562   3.041   4.688  10.001
28889SOL     OW88563  12.437   6.325   7.059
28889SOL    HW188564  12.351   6.351   7.090
28889SOL    HW288565  12.461   6.250   7.114
28890SOL     OW88566   9.831   1.345   0.077
28890SOL    HW188567   9.793   1.315  14.864
28890SOL    HW288568   9.772   1.414   0.107
28891SOL     OW88569   8.990   9.691   0.252
28891SOL    HW188570   9.019   9.615   0.201
28891SOL    HW288571   8.899   9.704   0.226
28892SOL     OW88572  14.630   3.219   0.245
28892SOL    HW188573  14.718   3.226   0.209
28892SOL    HW288574  14.573   3.258   0.179
28893SOL     OW88575   4.107   9.275  12.900
28893SOL    HW188576   4.072   9.209  12.841
28893SOL    HW288577   4.196   9.291  12.869
28894SOL     OW88578   1.089   7.275   0.859
28894SOL    HW188579   1.038   7.353   0.834
28894SOL    HW288580   1.106   7.287   0.952
28895SOL     OW88581   2.276   1.822  11.984
28895SOL    HW188582   2.216   1.892  12.012
28895SOL    HW288583   2.227   1.741  11.997
28896SOL     OW88584  11.022  14.446   7.981
28896SOL    HW188585  10.954  14.399   7.933
28896SOL    HW288586  11.035  14.527   7.932
28897SOL     OW88587  10.230   9.978   2.886
28897SOL    HW188588  10.322   9.993   2.907
28897SOL    HW288589  10.231   9.903   2.826
28898SOL     OW88590  14.657  11.754  11.221
28898SOL    HW188591  14.639  11.693  11.292
28898SOL    HW288592  14.744  11.730  11.189
28899SOL     OW88593   5.124   3.689   4.403
28899SOL    HW188594   5.169   3.613   4.441
28899SOL    HW288595   5.128   3.755   4.472
28900SOL     OW88596  12.010   1.707   4.368
28900SOL    HW188597  12.096   1.721   4.330
28900SOL    HW288598  11.983   1.620   4.338
28901SOL     OW88599   9.822   2.153   3.186
28901SOL    HW188600   9.790   2.063   3.171
28901SOL    HW288601   9.761   2.190   3.249
28902SOL     OW88602   5.784  13.005  10.297
28902SOL    HW188603   5.744  12.919  10.310
28902SOL    HW288604   5.749  13.035  10.214
28903SOL     OW88605   2.168   0.052   1.809
28903SOL    HW188606   2.081   0.079   1.780
28903SOL    HW288607   2.171   0.079   1.901
28904SOL     OW88608   1.255   8.016  10.005
28904SOL    HW188609   1.318   8.084  10.032
28904SOL    HW288610   1.169   8.054  10.026
28905SOL     OW88611   2.289  12.008  13.612
28905SOL    HW188612   2.223  11.940  13.611
28905SOL    HW288613   2.242  12.087  13.640
28906SOL     OW88614  10.894  12.589   1.294
28906SOL    HW188615  10.902  12.594   1.390
28906SOL    HW288616  10.932  12.505   1.271
28907SOL     OW88617  14.732  13.514  11.629
28907SOL    HW188618  14.741  13.574  11.703
28907SOL    HW288619  14.821  13.484  11.612
28908SOL     OW88620   3.962   7.995  12.980
28908SOL    HW188621   3.894   7.985  12.913
28908SOL    HW288622   4.044   7.995  12.930
28909SOL     OW88623  11.448   1.400   2.521
28909SOL    HW188624  11.505   1.472   2.495
28909SOL    HW288625  11.377   1.441   2.570
28910SOL     OW88626   1.109   8.522   7.937
28910SOL    HW188627   1.109   8.562   8.024
28910SOL    HW288628   1.197   8.541   7.903
28911SOL     OW88629  11.276   0.456   9.207
28911SOL    HW188630  11.282   0.520   9.137
28911SOL    HW288631  11.213   0.494   9.269
28912SOL     OW88632   2.836   6.270   6.164
28912SOL    HW188633   2.923   6.279   6.124
28912SOL    HW288634   2.776   6.301   6.096
28913SOL     OW88635  13.881  11.166   3.840
28913SOL    HW188636  13.853  11.142   3.929
28913SOL    HW288637  13.870  11.086   3.789
28914SOL     OW88638   4.632   3.309  12.065
28914SOL    HW188639   4.544   3.307  12.026
28914SOL    HW288640   4.666   3.396  12.043
28915SOL     OW88641   7.541   5.909   9.461
28915SOL    HW188642   7.525   5.878   9.372
28915SOL    HW288643   7.482   5.984   9.471
28916SOL     OW88644   1.730  10.087  12.100
28916SOL    HW188645   1.655  10.056  12.152
28916SOL    HW288646   1.690  10.138  12.030
28917SOL     OW88647   3.554  13.003   2.587
28917SOL    HW188648   3.488  13.009   2.655
28917SOL    HW288649   3.534  12.921   2.541
28918SOL     OW88650   3.578   7.029  12.694
28918SOL    HW188651   3.662   6.985  12.678
28918SOL    HW288652   3.518   6.958  12.718
28919SOL     OW88653   8.130   6.537   1.087
28919SOL    HW188654   8.078   6.554   1.165
28919SOL    HW288655   8.085   6.585   1.017
28920SOL     OW88656   9.798   7.848  13.167
28920SOL    HW188657   9.863   7.913  13.138
28920SOL    HW288658   9.715   7.882  13.134
28921SOL     OW88659   9.619   1.482   8.726
28921SOL    HW188660   9.525   1.500   8.722
28921SOL    HW288661   9.659   1.567   8.748
28922SOL     OW88662   9.318   0.079   9.369
28922SOL    HW188663   9.411   0.102   9.376
28922SOL    HW288664   9.299   0.086   9.275
28923SOL     OW88665  13.169  11.332   4.770
28923SOL    HW188666  13.257  11.349   4.804
28923SOL    HW288667  13.117  11.309   4.847
28924SOL     OW88668   8.021   7.697   8.696
28924SOL    HW188669   7.941   7.729   8.737
28924SOL    HW288670   7.998   7.687   8.603
28925SOL     OW88671   8.711   8.798   5.301
28925SOL    HW188672   8.684   8.725   5.356
28925SOL    HW288673   8.723   8.871   5.362
28926SOL     OW88674   7.054   7.196   7.771
28926SOL    HW188675   7.095   7.167   7.690
28926SOL    HW288676   6.981   7.136   7.784
28927SOL     OW88677  11.624   1.450   1.528
28927SOL    HW188678  11.685   1.498   1.472
28927SOL    HW288679  11.539   1.459   1.485
28928SOL     OW88680  11.864  14.793   2.920
28928SOL    HW188681  11.919  14.756   2.989
28928SOL    HW288682  11.792  14.732   2.911
28929SOL     OW88683  12.868  10.386   9.675
28929SOL    HW188684  12.889  10.294   9.661
28929SOL    HW288685  12.952  10.431   9.667
28930SOL     OW88686   2.774   9.300  10.672
28930SOL    HW188687   2.744   9.390  10.661
28930SOL    HW288688   2.870   9.307  10.671
28931SOL     OW88689  12.338   0.213   1.946
28931SOL    HW188690  12.412   0.239   2.001
28931SOL    HW288691  12.276   0.286   1.952
28932SOL     OW88692  14.151  11.550  11.158
28932SOL    HW188693  14.149  11.630  11.211
28932SOL    HW288694  14.059  11.536  11.133
28933SOL     OW88695   2.014   9.623  12.564
28933SOL    HW188696   2.013   9.710  12.523
28933SOL    HW288697   1.948   9.629  12.633
28934SOL     OW88698   4.091   6.017   9.383
28934SOL    HW188699   4.077   6.111   9.396
28934SOL    HW288700   4.080   6.005   9.289
28935SOL     OW88701  11.125  13.620   3.367
28935SOL    HW188702  11.202  13.670   3.342
28935SOL    HW288703  11.156  13.530   3.375
28936SOL     OW88704   0.652   5.316   0.585
28936SOL    HW188705   0.599   5.241   0.557
28936SOL    HW288706   0.616   5.389   0.535
28937SOL     OW88707   3.939   5.480  13.115
28937SOL    HW188708   3.932   5.502  13.208
28937SOL    HW288709   3.850   5.488  13.081
28938SOL     OW88710   5.776   7.020  14.150
28938SOL    HW188711   5.728   7.093  14.110
28938SOL    HW288712   5.737   6.942  14.110
28939SOL     OW88713   2.011   4.635   3.699
28939SOL    HW188714   2.005   4.542   3.719
28939SOL    HW288715   2.100   4.659   3.723
28940SOL     OW88716   6.004   3.362  10.598
28940SOL    HW188717   5.957   3.445  10.608
28940SOL    HW288718   5.951   3.312  10.536
28941SOL     OW88719   8.120   0.680  13.746
28941SOL    HW188720   8.082   0.594  13.765
28941SOL    HW288721   8.073   0.711  13.669
28942SOL     OW88722  12.627  13.768   9.040
28942SOL    HW188723  12.704  13.825   9.045
28942SOL    HW288724  12.558  13.824   9.006
28943SOL     OW88725  13.103   0.039  14.188
28943SOL    HW188726  13.027   0.089  14.219
28943SOL    HW288727  13.081   0.017  14.097
28944SOL     OW88728   6.067  12.359   3.389
28944SOL    HW188729   6.144  12.335   3.441
28944SOL    HW288730   5.995  12.313   3.431
28945SOL     OW88731   0.650   9.151   0.469
28945SOL    HW188732   0.577   9.120   0.523
28945SOL    HW288733   0.615   9.225   0.420
28946SOL     OW88734   5.711   5.173  10.172
28946SOL    HW188735   5.621   5.160  10.142
28946SOL    HW288736   5.764   5.156  10.094
28947SOL     OW88737   8.769   2.945   3.168
28947SOL    HW188738   8.832   2.901   3.110
28947SOL    HW288739   8.698   2.881   3.179
28948SOL     OW88740   4.988  14.380   3.298
28948SOL    HW188741   5.008  14.403   3.389
28948SOL    HW288742   4.951  14.460   3.261
28949SOL     OW88743  12.117  10.002   6.627
28949SOL    HW188744  12.031   9.960   6.625
28949SOL    HW288745  12.174   9.940   6.581
28950SOL     OW88746   6.839  14.357   8.570
28950SOL    HW188747   6.904  14.422   8.543
28950SOL    HW288748   6.887  14.299   8.629
28951SOL     OW88749   7.770   8.028   8.640
28951SOL    HW188750   7.770   7.939   8.675
28951SOL    HW288751   7.702   8.074   8.690
28952SOL     OW88752   0.537   7.506   3.821
28952SOL    HW188753   0.627   7.529   3.844
28952SOL    HW288754   0.526   7.538   3.732
28953SOL     OW88755   6.193   5.111  14.513
28953SOL    HW188756   6.226   5.044  14.454
28953SOL    HW288757   6.101   5.122  14.489
28954SOL     OW88758  11.180   0.016   8.769
28954SOL    HW188759  11.199   0.110   8.775
28954SOL    HW288760  11.265  14.846   8.747
28955SOL     OW88761  12.731  13.703  13.924
28955SOL    HW188762  12.763  13.635  13.865
28955SOL    HW288763  12.735  13.783  13.871
28956SOL     OW88764   3.238  14.470   3.836
28956SOL    HW188765   3.233  14.376   3.817
28956SOL    HW288766   3.191  14.481   3.918
28957SOL     OW88767   1.763  12.367  12.700
28957SOL    HW188768   1.827  12.403  12.762
28957SOL    HW288769   1.811  12.359  12.618
28958SOL     OW88770  11.423   4.575   0.997
28958SOL    HW188771  11.421   4.611   0.908
28958SOL    HW288772  11.331   4.556   1.016
28959SOL     OW88773   4.686   0.647   2.203
28959SOL    HW188774   4.694   0.706   2.128
28959SOL    HW288775   4.604   0.601   2.190
28960SOL     OW88776  10.091   9.249  14.342
28960SOL    HW188777  10.092   9.196  14.422
28960SOL    HW288778  10.046   9.330  14.367
28961SOL     OW88779   8.483   7.861  13.603
28961SOL    HW188780   8.400   7.814  13.605
28961SOL    HW288781   8.491   7.899  13.690
28962SOL     OW88782   5.709  10.235   1.053
28962SOL    HW188783   5.672  10.170   0.993
28962SOL    HW288784   5.695  10.198   1.141
28963SOL     OW88785   5.963  11.970   5.894
28963SOL    HW188786   6.008  12.051   5.919
28963SOL    HW288787   5.971  11.914   5.971
28964SOL     OW88788  10.286   2.246   5.174
28964SOL    HW188789  10.326   2.159   5.170
28964SOL    HW288790  10.196   2.232   5.143
28965SOL     OW88791   4.167   5.713  12.627
28965SOL    HW188792   4.154   5.774  12.700
28965SOL    HW288793   4.215   5.764  12.562
28966SOL     OW88794  12.918  11.205   3.601
28966SOL    HW188795  13.007  11.217   3.633
28966SOL    HW288796  12.910  11.110   3.588
28967SOL     OW88797   9.385   4.017   9.514
28967SOL    HW188798   9.461   3.993   9.461
28967SOL    HW288799   9.413   4.095   9.562
28968SOL     OW88800   0.315   5.166   5.560
28968SOL    HW188801   0.270   5.100   5.613
28968SOL    HW288802   0.311   5.246   5.613
28969SOL     OW88803   0.179   4.512   1.171
28969SOL    HW188804   0.188   4.605   1.153
28969SOL    HW288805   0.254   4.472   1.127
28970SOL     OW88806   8.717   3.378  14.668
28970SOL    HW188807   8.705   3.465  14.706
28970SOL    HW288808   8.779   3.391  14.596
28971SOL     OW88809   1.683  14.020   7.465
28971SOL    HW188810   1.761  14.028   7.410
28971SOL    HW288811   1.654  14.110   7.478
28972SOL     OW88812  13.490  13.258  11.295
28972SOL    HW188813  13.566  13.227  11.246
28972SOL    HW288814  13.516  13.251  11.387
28973SOL     OW88815   0.597   9.647   8.335
28973SOL    HW188816   0.672   9.589   8.319
28973SOL    HW288817   0.634   9.720   8.384
28974SOL     OW88818   8.033   6.413   4.505
28974SOL    HW188819   7.976   6.399   4.580
28974SOL    HW288820   8.020   6.336   4.449
28975SOL     OW88821   6.359   2.684   0.136
28975SOL    HW188822   6.332   2.695   0.045
28975SOL    HW288823   6.434   2.743   0.145
28976SOL     OW88824  13.781   5.913   8.170
28976SOL    HW188825  13.853   5.919   8.106
28976SOL    HW288826  13.748   5.824   8.161
28977SOL     OW88827   4.139   1.339   6.956
28977SOL    HW188828   4.209   1.404   6.969
28977SOL    HW288829   4.186   1.257   6.941
28978SOL     OW88830  14.775  11.690   3.039
28978SOL    HW188831  14.811  11.769   2.999
28978SOL    HW288832  14.773  11.626   2.968
28979SOL     OW88833   3.431   9.974   6.346
28979SOL    HW188834   3.424  10.039   6.415
28979SOL    HW288835   3.525   9.972   6.325
28980SOL     OW88836   2.181  12.457  11.802
28980SOL    HW188837   2.184  12.371  11.761
28980SOL    HW288838   2.261  12.461  11.855
28981SOL     OW88839   8.780  11.471  11.789
28981SOL    HW188840   8.865  11.496  11.752
28981SOL    HW288841   8.801  11.427  11.871
28982SOL     OW88842  10.521   2.627   3.615
28982SOL    HW188843  10.512   2.672   3.531
28982SOL    HW288844  10.583   2.556   3.598
28983SOL     OW88845   2.767   2.321   2.835
28983SOL    HW188846   2.730   2.363   2.757
28983SOL    HW288847   2.735   2.231   2.830
28984SOL     OW88848   0.467  11.446   7.543
28984SOL    HW188849   0.522  11.380   7.500
28984SOL    HW288850   0.500  11.450   7.632
28985SOL     OW88851   3.323  13.752   5.922
28985SOL    HW188852   3.287  13.784   5.839
28985SOL    HW288853   3.309  13.824   5.983
28986SOL     OW88854  10.018   7.013   2.573
28986SOL    HW188855   9.936   7.000   2.621
28986SOL    HW288856   9.991   7.026   2.482
28987SOL     OW88857   7.533   1.461   6.826
28987SOL    HW188858   7.609   1.446   6.771
28987SOL    HW288859   7.568   1.502   6.905
28988SOL     OW88860  14.615   2.264   1.802
28988SOL    HW188861  14.594   2.216   1.721
28988SOL    HW288862  14.531   2.275   1.846
28989SOL     OW88863   2.860  11.780   3.565
28989SOL    HW188864   2.920  11.740   3.628
28989SOL    HW288865   2.815  11.849   3.615
28990SOL     OW88866   8.043   7.921   5.619
28990SOL    HW188867   8.123   7.874   5.643
28990SOL    HW288868   7.975   7.882   5.673
28991SOL     OW88869   9.103   1.856   1.626
28991SOL    HW188870   9.025   1.825   1.581
28991SOL    HW288871   9.100   1.951   1.618
28992SOL     OW88872   0.635   1.285   5.894
28992SOL    HW188873   0.611   1.363   5.844
28992SOL    HW288874   0.555   1.232   5.896
28993SOL     OW88875  13.773   3.794   6.913
28993SOL    HW188876  13.734   3.881   6.918
28993SOL    HW288877  13.736   3.756   6.833
28994SOL     OW88878   7.082  11.265   9.866
28994SOL    HW188879   7.026  11.316   9.807
28994SOL    HW288880   7.091  11.180   9.823
28995SOL     OW88881   8.344  13.365   6.957
28995SOL    HW188882   8.327  13.366   6.863
28995SOL    HW288883   8.282  13.301   6.993
28996SOL     OW88884   3.405   2.479   8.263
28996SOL    HW188885   3.438   2.528   8.188
28996SOL    HW288886   3.425   2.387   8.243
28997SOL     OW88887   3.699   3.464   2.112
28997SOL    HW188888   3.684   3.491   2.021
28997SOL    HW288889   3.794   3.456   2.120
28998SOL     OW88890  10.878   5.149   3.324
28998SOL    HW188891  10.817   5.203   3.273
28998SOL    HW288892  10.898   5.203   3.401
28999SOL     OW88893  10.550   6.238   6.405
28999SOL    HW188894  10.638   6.274   6.397
28999SOL    HW288895  10.527   6.252   6.497
29000SOL     OW88896  14.105   1.818   0.227
29000SOL    HW188897  14.116   1.868   0.146
29000SOL    HW288898  14.156   1.867   0.292
29001SOL     OW88899  13.392   7.562   5.629
29001SOL    HW188900  13.457   7.595   5.568
29001SOL    HW288901  13.351   7.641   5.665
29002SOL     OW88902   8.667   9.386   8.557
29002SOL    HW188903   8.648   9.351   8.471
29002SOL    HW288904   8.582   9.418   8.589
29003SOL     OW88905   5.332  13.867  13.964
29003SOL    HW188906   5.337  13.774  13.989
29003SOL    HW288907   5.293  13.866  13.877
29004SOL     OW88908  13.434   8.310  13.834
29004SOL    HW188909  13.472   8.397  13.850
29004SOL    HW288910  13.347   8.315  13.874
29005SOL     OW88911   0.549   5.820   9.980
29005SOL    HW188912   0.505   5.876   9.916
29005SOL    HW288913   0.519   5.732   9.960
29006SOL     OW88914  14.222   7.793   5.716
29006SOL    HW188915  14.301   7.769   5.763
29006SOL    HW288916  14.243   7.875   5.672
29007SOL     OW88917  14.826  10.664  12.838
29007SOL    HW188918   0.047  10.636  12.826
29007SOL    HW288919  14.809  10.722  12.764
29008SOL     OW88920  14.685   0.100   7.845
29008SOL    HW188921  14.747   0.034   7.878
29008SOL    HW288922  14.714   0.182   7.885
29009SOL     OW88923   3.391   0.106   7.887
29009SOL    HW188924   3.408   0.181   7.829
29009SOL    HW288925   3.339   0.046   7.834
29010SOL     OW88926  10.215   2.302  14.007
29010SOL    HW188927  10.138   2.335  13.961
29010SOL    HW288928  10.236   2.221  13.962
29011SOL     OW88929   4.633   6.396   3.149
29011SOL    HW188930   4.718   6.352   3.144
29011SOL    HW288931   4.570   6.331   3.119
29012SOL     OW88932   0.472  10.968   5.273
29012SOL    HW188933   0.468  10.952   5.179
29012SOL    HW288934   0.545  11.029   5.284
29013SOL     OW88935  13.265  11.159   5.004
29013SOL    HW188936  13.238  11.102   4.932
29013SOL    HW288937  13.331  11.216   4.965
29014SOL     OW88938   5.072   1.750   6.385
29014SOL    HW188939   5.022   1.782   6.309
29014SOL    HW288940   5.030   1.667   6.408
29015SOL     OW88941   0.156   7.849   4.749
29015SOL    HW188942   0.061   7.837   4.750
29015SOL    HW288943   0.178   7.874   4.838
29016SOL     OW88944   0.411   4.157   8.253
29016SOL    HW188945   0.390   4.066   8.270
29016SOL    HW288946   0.443   4.158   8.163
29017SOL     OW88947   0.595   2.553   7.761
29017SOL    HW188948   0.503   2.546   7.785
29017SOL    HW288949   0.595   2.550   7.665
29018SOL     OW88950  11.361   0.705   9.541
29018SOL    HW188951  11.315   0.620   9.539
29018SOL    HW288952  11.305   0.761   9.595
29019SOL     OW88953  13.025   2.380   6.514
29019SOL    HW188954  12.941   2.345   6.484
29019SOL    HW288955  13.004   2.469   6.542
29020SOL     OW88956  12.963   1.466   0.049
29020SOL    HW188957  12.884   1.521   0.047
29020SOL    HW288958  12.967   1.427  14.831
29021SOL     OW88959   2.267  10.910   1.857
29021SOL    HW188960   2.357  10.942   1.865
29021SOL    HW288961   2.213  10.987   1.871
29022SOL     OW88962  12.868   7.019   3.358
29022SOL    HW188963  12.860   7.088   3.424
29022SOL    HW288964  12.901   6.943   3.406
29023SOL     OW88965   9.650   0.343   6.839
29023SOL    HW188966   9.639   0.270   6.778
29023SOL    HW288967   9.604   0.316   6.918
29024SOL     OW88968   5.766   9.807   2.560
29024SOL    HW188969   5.843   9.851   2.524
29024SOL    HW288970   5.774   9.716   2.532
29025SOL     OW88971   1.180   3.147   2.073
29025SOL    HW188972   1.188   3.235   2.112
29025SOL    HW288973   1.259   3.137   2.019
29026SOL     OW88974  14.195   3.341  13.370
29026SOL    HW188975  14.286   3.370  13.361
29026SOL    HW288976  14.173   3.360  13.461
29027SOL     OW88977  12.557   2.259   3.610
29027SOL    HW188978  12.577   2.206   3.532
29027SOL    HW288979  12.628   2.238   3.671
29028SOL     OW88980   9.713   1.874   2.684
29028SOL    HW188981   9.625   1.908   2.666
29028SOL    HW288982   9.765   1.952   2.704
29029SOL     OW88983  13.448  10.540   3.274
29029SOL    HW188984  13.461  10.497   3.358
29029SOL    HW288985  13.366  10.504   3.240
29030SOL     OW88986  14.087   9.196   2.847
29030SOL    HW188987  14.128   9.262   2.902
29030SOL    HW288988  14.001   9.181   2.887
29031SOL     OW88989   1.077   1.339   9.891
29031SOL    HW188990   1.133   1.371   9.962
29031SOL    HW288991   1.009   1.289   9.936
29032SOL     OW88992   7.338   9.455   4.909
29032SOL    HW188993   7.366   9.528   4.964
29032SOL    HW288994   7.420   9.412   4.885
29033SOL     OW88995   8.264  12.252   3.391
29033SOL    HW188996   8.176  12.289   3.397
29033SOL    HW288997   8.289  12.235   3.481
29034SOL     OW88998   6.829  10.265  14.057
29034SOL    HW188999   6.910  10.248  14.106
29034SOL    HW289000   6.838  10.214  13.977
29035SOL     OW89001   2.359   8.592   1.170
29035SOL    HW189002   2.424   8.543   1.120
29035SOL    HW289003   2.376   8.684   1.148
29036SOL     OW89004   2.970   3.671   2.724
29036SOL    HW189005   2.898   3.612   2.744
29036SOL    HW289006   3.047   3.631   2.765
29037SOL     OW89007   2.500   0.214  13.859
29037SOL    HW189008   2.451   0.182  13.784
29037SOL    HW289009   2.485   0.309  13.859
29038SOL     OW89010  12.786   9.703  10.284
29038SOL    HW189011  12.706   9.673  10.328
29038SOL    HW289012  12.789   9.652  10.203
29039SOL     OW89013   1.707  13.755   7.903
29039SOL    HW189014   1.781  13.791   7.952
29039SOL    HW289015   1.675  13.682   7.957
29040SOL     OW89016  13.712  14.514  14.048
29040SOL    HW189017  13.799  14.483  14.073
29040SOL    HW289018  13.693  14.583  14.112
29041SOL     OW89019  13.879   1.275  10.193
29041SOL    HW189020  13.937   1.306  10.263
29041SOL    HW289021  13.911   1.187  10.173
29042SOL     OW89022   3.481   2.414   4.136
29042SOL    HW189023   3.390   2.386   4.142
29042SOL    HW289024   3.476   2.509   4.123
29043SOL     OW89025   1.478  12.429  13.766
29043SOL    HW189026   1.406  12.485  13.735
29043SOL    HW289027   1.495  12.370  13.692
29044SOL     OW89028  10.328  13.166  13.032
29044SOL    HW189029  10.366  13.225  12.966
29044SOL    HW289030  10.236  13.159  13.007
29045SOL     OW89031  11.474   9.371   4.598
29045SOL    HW189032  11.488   9.287   4.641
29045SOL    HW289033  11.492   9.436   4.667
29046SOL     OW89034   7.277   3.215  13.045
29046SOL    HW189035   7.370   3.194  13.031
29046SOL    HW289036   7.276   3.264  13.127
29047SOL     OW89037  13.939   4.536   1.798
29047SOL    HW189038  13.957   4.583   1.879
29047SOL    HW289039  13.947   4.444   1.821
29048SOL     OW89040   8.617  13.209   7.450
29048SOL    HW189041   8.678  13.247   7.388
29048SOL    HW289042   8.656  13.225   7.536
29049SOL     OW89043   4.655   7.519   3.334
29049SOL    HW189044   4.739   7.478   3.311
29049SOL    HW289045   4.590   7.450   3.320
29050SOL     OW89046   6.210  11.856  14.751
29050SOL    HW189047   6.183  11.853  14.843
29050SOL    HW289048   6.152  11.794  14.707
29051SOL     OW89049   1.069   0.853  11.435
29051SOL    HW189050   1.082   0.888  11.523
29051SOL    HW289051   1.087   0.760  11.443
29052SOL     OW89052   9.793   1.226  13.697
29052SOL    HW189053   9.760   1.248  13.785
29052SOL    HW289054   9.888   1.221  13.708
29053SOL     OW89055  11.717   4.699  10.360
29053SOL    HW189056  11.630   4.725  10.329
29053SOL    HW289057  11.755   4.779  10.397
29054SOL     OW89058  13.857  10.298   1.850
29054SOL    HW189059  13.776  10.329   1.890
29054SOL    HW289060  13.927  10.345   1.898
29055SOL     OW89061  12.623   8.454   1.271
29055SOL    HW189062  12.614   8.375   1.217
29055SOL    HW289063  12.687   8.507   1.225
29056SOL     OW89064   6.913  12.603   9.555
29056SOL    HW189065   6.832  12.552   9.556
29056SOL    HW289066   6.954  12.585   9.640
29057SOL     OW89067   6.487  11.781  12.610
29057SOL    HW189068   6.512  11.827  12.690
29057SOL    HW289069   6.525  11.694  12.620
29058SOL     OW89070   0.596  14.384  14.546
29058SOL    HW189071   0.567  14.429  14.467
29058SOL    HW289072   0.579  14.446  14.617
29059SOL     OW89073   4.459   7.775  13.613
29059SOL    HW189074   4.441   7.858  13.657
29059SOL    HW289075   4.474   7.799  13.522
29060SOL     OW89076  13.782   8.777   4.313
29060SOL    HW189077  13.744   8.762   4.226
29060SOL    HW289078  13.876   8.779   4.297
29061SOL     OW89079  13.059   9.052   8.464
29061SOL    HW189080  12.992   9.097   8.412
29061SOL    HW289081  13.131   9.037   8.402
29062SOL     OW89082  10.338   4.613  13.537
29062SOL    HW189083  10.330   4.565  13.620
29062SOL    HW289084  10.334   4.705  13.562
29063SOL     OW89085  13.484   9.730   7.060
29063SOL    HW189086  13.571   9.760   7.032
29063SOL    HW289087  13.466   9.654   7.004
29064SOL     OW89088   9.904   0.184   2.178
29064SOL    HW189089   9.941   0.110   2.131
29064SOL    HW289090   9.842   0.224   2.116
29065SOL     OW89091   6.446   3.523  11.612
29065SOL    HW189092   6.417   3.545  11.701
29065SOL    HW289093   6.380   3.461  11.580
29066SOL     OW89094   6.064   7.106  13.797
29066SOL    HW189095   5.982   7.060  13.815
29066SOL    HW289096   6.037   7.187  13.755
29067SOL     OW89097   3.533  12.140   5.023
29067SOL    HW189098   3.494  12.189   5.096
29067SOL    HW289099   3.622  12.120   5.052
29068SOL     OW89100   6.013   7.513   8.647
29068SOL    HW189101   5.923   7.533   8.673
29068SOL    HW289102   6.044   7.453   8.715
29069SOL     OW89103   7.522  12.802   2.465
29069SOL    HW189104   7.475  12.766   2.390
29069SOL    HW289105   7.535  12.894   2.444
29070SOL     OW89106   5.853   0.828  12.579
29070SOL    HW189107   5.923   0.783  12.532
29070SOL    HW289108   5.858   0.919  12.549
29071SOL     OW89109   1.859   5.589   8.342
29071SOL    HW189110   1.857   5.685   8.348
29071SOL    HW289111   1.934   5.571   8.285
29072SOL     OW89112   8.948   5.890   0.954
29072SOL    HW189113   8.860   5.883   0.992
29072SOL    HW289114   9.006   5.857   1.022
29073SOL     OW89115   3.204  10.249  10.366
29073SOL    HW189116   3.212  10.157  10.339
29073SOL    HW289117   3.258  10.297  10.303
29074SOL     OW89118  11.292   3.995   8.406
29074SOL    HW189119  11.282   3.902   8.388
29074SOL    HW289120  11.336   3.998   8.491
29075SOL     OW89121  12.737   4.650   3.371
29075SOL    HW189122  12.756   4.620   3.282
29075SOL    HW289123  12.662   4.597   3.398
29076SOL     OW89124   3.957   7.656  12.085
29076SOL    HW189125   4.032   7.609  12.049
29076SOL    HW289126   3.896   7.588  12.113
29077SOL     OW89127  12.784   1.730  10.912
29077SOL    HW189128  12.727   1.718  10.988
29077SOL    HW289129  12.764   1.819  10.882
29078SOL     OW89130   7.771   0.473   8.359
29078SOL    HW189131   7.755   0.463   8.265
29078SOL    HW289132   7.700   0.531   8.388
29079SOL     OW89133   6.890   2.844   1.421
29079SOL    HW189134   6.974   2.852   1.466
29079SOL    HW289135   6.850   2.765   1.457
29080SOL     OW89136   5.726   1.812   8.547
29080SOL    HW189137   5.639   1.851   8.534
29080SOL    HW289138   5.775   1.837   8.468
29081SOL     OW89139  11.908   6.563  13.300
29081SOL    HW189140  11.928   6.481  13.345
29081SOL    HW289141  11.820   6.550  13.266
29082SOL     OW89142   9.521  11.442   3.734
29082SOL    HW189143   9.608  11.478   3.753
29082SOL    HW289144   9.495  11.398   3.815
29083SOL     OW89145   1.920  14.521  12.277
29083SOL    HW189146   1.960  14.461  12.339
29083SOL    HW289147   1.994  14.566  12.235
29084SOL     OW89148   5.257  14.783   7.183
29084SOL    HW189149   5.183  14.728   7.205
29084SOL    HW289150   5.228   0.002   7.202
29085SOL     OW89151  13.507   4.719   2.048
29085SOL    HW189152  13.524   4.672   1.967
29085SOL    HW289153  13.430   4.773   2.028
29086SOL     OW89154   4.447  10.586   6.297
29086SOL    HW189155   4.502  10.611   6.223
29086SOL    HW289156   4.495  10.617   6.374
29087SOL     OW89157  12.246   3.996   6.476
29087SOL    HW189158  12.234   4.006   6.570
29087SOL    HW289159  12.336   4.026   6.460
29088SOL     OW89160   0.394   6.694   7.066
29088SOL    HW189161   0.470   6.745   7.036
29088SOL    HW289162   0.318   6.745   7.038
29089SOL     OW89163  10.885   3.813  12.417
29089SOL    HW189164  10.832   3.887  12.388
29089SOL    HW289165  10.833   3.736  12.394
29090SOL     OW89166   2.469  10.690  13.810
29090SOL    HW189167   2.413  10.613  13.820
29090SOL    HW289168   2.557  10.659  13.831
29091SOL     OW89169   8.316  10.732   1.827
29091SOL    HW189170   8.269  10.655   1.860
29091SOL    HW289171   8.277  10.748   1.741
29092SOL     OW89172   3.921  11.726  14.806
29092SOL    HW189173   3.926  11.631  14.806
29092SOL    HW289174   3.998  11.755  14.757
29093SOL     OW89175   5.340  10.081  10.417
29093SOL    HW189176   5.251  10.089  10.452
29093SOL    HW289177   5.329  10.085  10.322
29094SOL     OW89178   5.539   4.636   3.140
29094SOL    HW189179   5.544   4.728   3.111
29094SOL    HW289180   5.627   4.616   3.171
29095SOL     OW89181   3.140  14.581   5.307
29095SOL    HW189182   3.137  14.607   5.399
29095SOL    HW289183   3.120  14.487   5.308
29096SOL     OW89184  13.758   3.980   9.262
29096SOL    HW189185  13.674   3.970   9.216
29096SOL    HW289186  13.734   4.014   9.348
29097SOL     OW89187   9.867   4.625   7.468
29097SOL    HW189188   9.890   4.567   7.541
29097SOL    HW289189   9.789   4.672   7.498
29098SOL     OW89190   1.411   8.272  14.547
29098SOL    HW189191   1.382   8.321  14.624
29098SOL    HW289192   1.339   8.212  14.528
29099SOL     OW89193  10.248  10.309   4.133
29099SOL    HW189194  10.291  10.394   4.137
29099SOL    HW289195  10.319  10.245   4.131
29100SOL     OW89196   6.393   8.052   2.778
29100SOL    HW189197   6.325   7.986   2.768
29100SOL    HW289198   6.474   8.006   2.756
29101SOL     OW89199   8.679   8.084   0.193
29101SOL    HW189200   8.655   8.107   0.103
29101SOL    HW289201   8.596   8.078   0.239
29102SOL     OW89202   5.428   9.644  14.414
29102SOL    HW189203   5.450   9.711  14.479
29102SOL    HW289204   5.398   9.694  14.338
29103SOL     OW89205  12.291  10.773   1.357
29103SOL    HW189206  12.280  10.829   1.434
29103SOL    HW289207  12.251  10.823   1.285
29104SOL     OW89208   2.641   6.243  10.793
29104SOL    HW189209   2.565   6.266  10.739
29104SOL    HW289210   2.694   6.323  10.796
29105SOL     OW89211   6.759   0.349   3.191
29105SOL    HW189212   6.695   0.415   3.163
29105SOL    HW289213   6.830   0.355   3.127
29106SOL     OW89214  14.605   6.985  13.479
29106SOL    HW189215  14.626   7.001  13.571
29106SOL    HW289216  14.572   6.895  13.477
29107SOL     OW89217  14.639   3.833   0.107
29107SOL    HW189218  14.574   3.903   0.101
29107SOL    HW289219  14.705   3.867   0.168
29108SOL     OW89220  11.168   4.374   9.514
29108SOL    HW189221  11.100   4.312   9.541
29108SOL    HW289222  11.242   4.320   9.487
29109SOL     OW89223   8.539  11.696  12.115
29109SOL    HW189224   8.465  11.756  12.122
29109SOL    HW289225   8.538  11.667  12.024
29110SOL     OW89226   4.664  11.557   9.622
29110SOL    HW189227   4.610  11.478   9.622
29110SOL    HW289228   4.685  11.571   9.715
29111SOL     OW89229   4.282  13.175   9.152
29111SOL    HW189230   4.276  13.085   9.122
29111SOL    HW289231   4.376  13.189   9.168
29112SOL     OW89232  14.154   9.761   1.736
29112SOL    HW189233  14.214   9.692   1.708
29112SOL    HW289234  14.175   9.836   1.680
29113SOL     OW89235  12.897   6.256   7.201
29113SOL    HW189236  12.822   6.209   7.164
29113SOL    HW289237  12.877   6.262   7.295
29114SOL     OW89238  14.571   3.194  13.252
29114SOL    HW189239  14.556   3.195  13.157
29114SOL    HW289240  14.660   3.228  13.262
29115SOL     OW89241  11.927   6.668   3.159
29115SOL    HW189242  11.837   6.697   3.172
29115SOL    HW289243  11.980   6.737   3.198
29116SOL     OW89244   7.386   8.261  12.105
29116SOL    HW189245   7.328   8.319  12.056
29116SOL    HW289246   7.362   8.275  12.197
29117SOL     OW89247  14.488   7.057   1.289
29117SOL    HW189248  14.533   6.981   1.253
29117SOL    HW289249  14.505   7.052   1.383
29118SOL     OW89250   3.634   1.106   6.742
29118SOL    HW189251   3.679   1.055   6.809
29118SOL    HW289252   3.639   1.196   6.773
29119SOL     OW89253  14.749   9.140   4.439
29119SOL    HW189254  14.811   9.090   4.386
29119SOL    HW289255  14.739   9.223   4.392
29120SOL     OW89256   1.576   5.318   1.123
29120SOL    HW189257   1.659   5.363   1.136
29120SOL    HW289258   1.542   5.302   1.211
29121SOL     OW89259   3.033   0.240  10.220
29121SOL    HW189260   3.110   0.196  10.183
29121SOL    HW289261   3.070   0.306  10.279
29122SOL     OW89262   0.239   3.516  11.802
29122SOL    HW189263   0.334   3.505  11.796
29122SOL    HW289264   0.210   3.443  11.857
29123SOL     OW89265  10.539   4.314   7.941
29123SOL    HW189266  10.623   4.272   7.962
29123SOL    HW289267  10.473   4.254   7.975
29124SOL     OW89268  10.394   6.641   8.357
29124SOL    HW189269  10.298   6.640   8.350
29124SOL    HW289270  10.413   6.601   8.441
29125SOL     OW89271  14.480   2.791   4.928
29125SOL    HW189272  14.417   2.729   4.966
29125SOL    HW289273  14.454   2.798   4.837
29126SOL     OW89274   5.910  12.467   0.726
29126SOL    HW189275   5.849  12.488   0.797
29126SOL    HW289276   5.989  12.439   0.771
29127SOL     OW89277   7.700   4.487  13.025
29127SOL    HW189278   7.705   4.544  13.102
29127SOL    HW289279   7.726   4.401  13.057
29128SOL     OW89280  10.334   8.880  11.906
29128SOL    HW189281  10.321   8.849  11.816
29128SOL    HW289282  10.249   8.870  11.948
29129SOL     OW89283   0.354   9.640   9.563
29129SOL    HW189284   0.312   9.702   9.622
29129SOL    HW289285   0.385   9.694   9.490
29130SOL     OW89286  12.632  11.344  13.488
29130SOL    HW189287  12.690  11.272  13.516
29130SOL    HW289288  12.558  11.339  13.548
29131SOL     OW89289   0.822   7.901   3.172
29131SOL    HW189290   0.738   7.905   3.126
29131SOL    HW289291   0.846   7.809   3.172
29132SOL     OW89292   5.277   1.349  13.494
29132SOL    HW189293   5.249   1.272  13.445
29132SOL    HW289294   5.234   1.423  13.451
29133SOL     OW89295  10.462  11.172  11.062
29133SOL    HW189296  10.496  11.089  11.095
29133SOL    HW289297  10.414  11.210  11.135
29134SOL     OW89298  14.148   8.576  14.656
29134SOL    HW189299  14.108   8.662  14.670
29134SOL    HW289300  14.234   8.595  14.619
29135SOL     OW89301  12.837   4.569   4.537
29135SOL    HW189302  12.776   4.504   4.503
29135SOL    HW289303  12.781   4.641   4.566
29136SOL     OW89304  14.819  12.302   5.847
29136SOL    HW189305  14.755  12.296   5.776
29136SOL    HW289306  14.805  12.389   5.885
29137SOL     OW89307   2.642  10.579   5.224
29137SOL    HW189308   2.626  10.638   5.150
29137SOL    HW289309   2.703  10.514   5.189
29138SOL     OW89310   3.128   3.973   9.832
29138SOL    HW189311   3.174   3.907   9.885
29138SOL    HW289312   3.153   3.952   9.742
29139SOL     OW89313  14.110   7.307   7.664
29139SOL    HW189314  14.094   7.296   7.571
29139SOL    HW289315  14.099   7.219   7.701
29140SOL     OW89316  11.876   5.794   2.101
29140SOL    HW189317  11.950   5.773   2.160
29140SOL    HW289318  11.915   5.845   2.031
29141SOL     OW89319   1.697   3.060  14.276
29141SOL    HW189320   1.675   3.084  14.366
29141SOL    HW289321   1.616   3.023  14.240
29142SOL     OW89322  14.063  14.061   8.281
29142SOL    HW189323  14.098  13.972   8.292
29142SOL    HW289324  14.020  14.059   8.195
29143SOL     OW89325   5.062  13.316   0.472
29143SOL    HW189326   5.148  13.283   0.449
29143SOL    HW289327   5.001  13.265   0.419
29144SOL     OW89328   6.218   2.369   7.827
29144SOL    HW189329   6.296   2.394   7.777
29144SOL    HW289330   6.251   2.312   7.896
29145SOL     OW89331   7.388   0.015   8.752
29145SOL    HW189332   7.343  14.815   8.800
29145SOL    HW289333   7.392   0.088   8.814
29146SOL     OW89334   1.215   3.240   8.363
29146SOL    HW189335   1.181   3.206   8.280
29146SOL    HW289336   1.285   3.299   8.337
29147SOL     OW89337   6.426   3.277   6.564
29147SOL    HW189338   6.422   3.196   6.614
29147SOL    HW289339   6.437   3.249   6.473
29148SOL     OW89340   6.197  10.561   7.036
29148SOL    HW189341   6.197  10.517   7.121
29148SOL    HW289342   6.229  10.496   6.975
29149SOL     OW89343  10.861  11.126  12.819
29149SOL    HW189344  10.899  11.100  12.903
29149SOL    HW289345  10.928  11.180  12.778
29150SOL     OW89346   1.170   4.925  13.142
29150SOL    HW189347   1.161   4.847  13.088
29150SOL    HW289348   1.108   4.911  13.214
29151SOL     OW89349   7.370  11.314  10.228
29151SOL    HW189350   7.431  11.260  10.279
29151SOL    HW289351   7.386  11.403  10.258
29152SOL     OW89352   4.687   8.506   6.072
29152SOL    HW189353   4.687   8.562   6.149
29152SOL    HW289354   4.732   8.558   6.005
29153SOL     OW89355   8.729  11.161  10.117
29153SOL    HW189356   8.660  11.160  10.052
29153SOL    HW289357   8.810  11.163  10.066
29154SOL     OW89358   7.177   3.153  13.456
29154SOL    HW189359   7.116   3.087  13.424
29154SOL    HW289360   7.158   3.159  13.550
29155SOL     OW89361   1.533   3.621   5.188
29155SOL    HW189362   1.445   3.586   5.173
29155SOL    HW289363   1.521   3.685   5.259
29156SOL     OW89364   2.765   4.167   5.416
29156SOL    HW189365   2.771   4.081   5.375
29156SOL    HW289366   2.764   4.229   5.343
29157SOL     OW89367   5.480   0.794  13.861
29157SOL    HW189368   5.441   0.829  13.941
29157SOL    HW289369   5.501   0.871  13.809
29158SOL     OW89370   9.574   0.316   9.923
29158SOL    HW189371   9.484   0.329   9.892
29158SOL    HW289372   9.568   0.239   9.979
29159SOL     OW89373  12.972   3.579  11.733
29159SOL    HW189374  12.896   3.522  11.727
29159SOL    HW289375  13.018   3.568  11.650
29160SOL     OW89376  14.483   5.174   9.112
29160SOL    HW189377  14.528   5.259   9.110
29160SOL    HW289378  14.488   5.147   9.204
29161SOL     OW89379   4.203  11.191   7.037
29161SOL    HW189380   4.242  11.111   7.072
29161SOL    HW289381   4.113  11.190   7.069
29162SOL     OW89382   8.163   9.827   5.058
29162SOL    HW189383   8.073   9.802   5.079
29162SOL    HW289384   8.181   9.785   4.974
29163SOL     OW89385   3.547   9.368   9.820
29163SOL    HW189386   3.614   9.301   9.832
29163SOL    HW289387   3.587   9.449   9.853
29164SOL     OW89388   4.929   3.792   7.110
29164SOL    HW189389   4.885   3.851   7.049
29164SOL    HW289390   4.863   3.773   7.177
29165SOL     OW89391  12.990   4.405   6.826
29165SOL    HW189392  12.988   4.352   6.906
29165SOL    HW289393  12.946   4.486   6.851
29166SOL     OW89394  14.588   6.512   2.815
29166SOL    HW189395  14.635   6.468   2.745
29166SOL    HW289396  14.533   6.576   2.771
29167SOL     OW89397   1.272   9.286   8.703
29167SOL    HW189398   1.348   9.294   8.761
29167SOL    HW289399   1.218   9.219   8.745
29168SOL     OW89400   6.228  12.185  11.640
29168SOL    HW189401   6.200  12.094  11.643
29168SOL    HW289402   6.322  12.180  11.624
29169SOL     OW89403   2.647   1.019  11.499
29169SOL    HW189404   2.625   1.112  11.502
29169SOL    HW289405   2.698   1.009  11.418
29170SOL     OW89406   0.691   2.276   6.856
29170SOL    HW189407   0.701   2.354   6.911
29170SOL    HW289408   0.776   2.232   6.861
29171SOL     OW89409   6.072   2.303   8.746
29171SOL    HW189410   6.001   2.357   8.783
29171SOL    HW289411   6.150   2.358   8.753
29172SOL     OW89412   8.841  10.355  11.912
29172SOL    HW189413   8.851  10.265  11.882
29172SOL    HW289414   8.807  10.403  11.836
29173SOL     OW89415  12.569   1.709  10.526
29173SOL    HW189416  12.652   1.705  10.478
29173SOL    HW289417  12.562   1.800  10.555
29174SOL     OW89418   4.777   5.501  11.661
29174SOL    HW189419   4.765   5.529  11.751
29174SOL    HW289420   4.868   5.525  11.641
29175SOL     OW89421  12.905   0.412  10.755
29175SOL    HW189422  12.904   0.432  10.661
29175SOL    HW289423  12.975   0.347  10.764
29176SOL     OW89424   9.939   9.569   8.580
29176SOL    HW189425   9.974   9.524   8.657
29176SOL    HW289426   9.884   9.638   8.617
29177SOL     OW89427   9.765   1.350   2.971
29177SOL    HW189428   9.818   1.362   2.893
29177SOL    HW289429   9.769   1.434   3.016
29178SOL     OW89430   3.491   0.353   9.373
29178SOL    HW189431   3.423   0.354   9.440
29178SOL    HW289432   3.555   0.417   9.404
29179SOL     OW89433  14.551  11.773  12.955
29179SOL    HW189434  14.551  11.815  13.040
29179SOL    HW289435  14.551  11.845  12.892
29180SOL     OW89436   3.940  12.102   0.565
29180SOL    HW189437   3.982  12.065   0.487
29180SOL    HW289438   3.983  12.186   0.578
29181SOL     OW89439   9.744   9.786   2.257
29181SOL    HW189440   9.690   9.850   2.301
29181SOL    HW289441   9.823   9.834   2.231
29182SOL     OW89442   9.501  13.599   1.706
29182SOL    HW189443   9.564  13.534   1.674
29182SOL    HW289444   9.476  13.648   1.628
29183SOL     OW89445  10.396   1.729  11.831
29183SOL    HW189446  10.330   1.675  11.875
29183SOL    HW289447  10.350   1.769  11.757
29184SOL     OW89448  10.153   1.450   6.232
29184SOL    HW189449  10.073   1.401   6.211
29184SOL    HW289450  10.128   1.508   6.303
29185SOL     OW89451  10.053   5.688   0.657
29185SOL    HW189452  10.092   5.633   0.589
29185SOL    HW289453  10.103   5.668   0.736
29186SOL     OW89454   7.937  14.625   8.913
29186SOL    HW189455   8.007  14.586   8.966
29186SOL    HW289456   7.920  14.561   8.845
29187SOL     OW89457   5.771  13.991   7.601
29187SOL    HW189458   5.696  13.989   7.660
29187SOL    HW289459   5.731  13.988   7.513
29188SOL     OW89460   5.233  14.511   1.577
29188SOL    HW189461   5.232  14.422   1.612
29188SOL    HW289462   5.226  14.499   1.482
29189SOL     OW89463  13.425   2.042   4.258
29189SOL    HW189464  13.343   2.036   4.210
29189SOL    HW289465  13.440   1.954   4.292
29190SOL     OW89466   7.182   3.804   8.914
29190SOL    HW189467   7.150   3.836   8.998
29190SOL    HW289468   7.263   3.757   8.935
29191SOL     OW89469  12.349  14.787   4.238
29191SOL    HW189470  12.320  14.828   4.156
29191SOL    HW289471  12.350  14.859   4.301
29192SOL     OW89472   0.096   2.112   8.329
29192SOL    HW189473   0.107   2.017   8.320
29192SOL    HW289474   0.177   2.142   8.370
29193SOL     OW89475   5.916   8.872   1.630
29193SOL    HW189476   5.833   8.849   1.672
29193SOL    HW289477   5.900   8.856   1.537
29194SOL     OW89478   3.820   5.409  11.298
29194SOL    HW189479   3.803   5.502  11.309
29194SOL    HW289480   3.790   5.370  11.380
29195SOL     OW89481  12.614   7.187   9.030
29195SOL    HW189482  12.570   7.189   8.944
29195SOL    HW289483  12.692   7.135   9.015
29196SOL     OW89484  13.031   8.538   5.900
29196SOL    HW189485  12.997   8.492   5.976
29196SOL    HW289486  13.049   8.627   5.932
29197SOL     OW89487  12.064  13.911  12.628
29197SOL    HW189488  11.982  13.898  12.677
29197SOL    HW289489  12.131  13.917  12.695
29198SOL     OW89490   8.907   4.096  10.628
29198SOL    HW189491   8.946   4.184  10.624
29198SOL    HW289492   8.949   4.055  10.704
29199SOL     OW89493   1.827   8.938   3.968
29199SOL    HW189494   1.745   8.894   3.992
29199SOL    HW289495   1.821   8.949   3.873
29200SOL     OW89496  11.598   7.329   9.342
29200SOL    HW189497  11.521   7.274   9.352
29200SOL    HW289498  11.651   7.310   9.419
29201SOL     OW89499   8.055   3.991   5.637
29201SOL    HW189500   7.994   4.021   5.570
29201SOL    HW289501   8.050   4.056   5.706
29202SOL     OW89502  11.482   4.376  14.518
29202SOL    HW189503  11.403   4.428  14.529
29202SOL    HW289504  11.450   4.289  14.491
29203SOL     OW89505  14.448  12.116  12.237
29203SOL    HW189506  14.381  12.095  12.172
29203SOL    HW289507  14.477  12.031  12.271
29204SOL     OW89508   8.201   7.061   4.626
29204SOL    HW189509   8.195   6.992   4.692
29204SOL    HW289510   8.238   7.136   4.673
29205SOL     OW89511   7.561   0.511   6.659
29205SOL    HW189512   7.592   0.434   6.612
29205SOL    HW289513   7.629   0.577   6.643
29206SOL     OW89514   1.937   8.427   1.046
29206SOL    HW189515   1.896   8.347   1.079
29206SOL    HW289516   2.022   8.431   1.091
29207SOL     OW89517   5.050   8.939   7.395
29207SOL    HW189518   5.035   8.933   7.489
29207SOL    HW289519   5.018   8.856   7.360
29208SOL     OW89520  10.925   1.111   0.951
29208SOL    HW189521  10.938   1.059   0.872
29208SOL    HW289522  11.004   1.096   1.003
29209SOL     OW89523   8.776   3.449  10.916
29209SOL    HW189524   8.705   3.509  10.893
29209SOL    HW289525   8.798   3.470  11.007
29210SOL     OW89526   4.996   8.048   0.214
29210SOL    HW189527   5.002   8.143   0.208
29210SOL    HW289528   4.904   8.028   0.197
29211SOL     OW89529   6.294   2.870  10.681
29211SOL    HW189530   6.389   2.873  10.675
29211SOL    HW289531   6.273   2.914  10.763
29212SOL     OW89532   4.028   3.796   1.417
29212SOL    HW189533   4.042   3.883   1.454
29212SOL    HW289534   3.963   3.810   1.348
29213SOL     OW89535   7.110   7.284   7.113
29213SOL    HW189536   7.094   7.290   7.019
29213SOL    HW289537   7.132   7.373   7.139
29214SOL     OW89538  13.025   2.851  13.986
29214SOL    HW189539  13.047   2.856  13.893
29214SOL    HW289540  13.047   2.937  14.020
29215SOL     OW89541  12.696   7.226  12.005
29215SOL    HW189542  12.763   7.159  11.995
29215SOL    HW289543  12.704   7.280  11.926
29216SOL     OW89544  13.835   5.397  10.357
29216SOL    HW189545  13.854   5.461  10.288
29216SOL    HW289546  13.762   5.435  10.406
29217SOL     OW89547   5.040   6.772   4.712
29217SOL    HW189548   5.054   6.701   4.649
29217SOL    HW289549   5.095   6.843   4.680
29218SOL     OW89550  10.294   1.517   4.693
29218SOL    HW189551  10.284   1.603   4.734
29218SOL    HW289552  10.389   1.507   4.683
29219SOL     OW89553   4.855  13.592   9.814
29219SOL    HW189554   4.948  13.611   9.819
29219SOL    HW289555   4.849  13.497   9.827
29220SOL     OW89556  13.961  13.590   3.382
29220SOL    HW189557  13.910  13.637   3.448
29220SOL    HW289558  13.963  13.500   3.414
29221SOL     OW89559   9.897   3.817   3.484
29221SOL    HW189560   9.883   3.895   3.430
29221SOL    HW289561   9.896   3.850   3.574
29222SOL     OW89562   2.788  11.644  10.397
29222SOL    HW189563   2.747  11.730  10.404
29222SOL    HW289564   2.722  11.583  10.431
29223SOL     OW89565  12.987   4.920   6.590
29223SOL    HW189566  13.054   4.939   6.524
29223SOL    HW289567  12.966   5.005   6.629
29224SOL     OW89568   1.247  14.110   6.490
29224SOL    HW189569   1.220  14.031   6.538
29224SOL    HW289570   1.304  14.077   6.420
29225SOL     OW89571  10.785  10.422   5.174
29225SOL    HW189572  10.798  10.501   5.122
29225SOL    HW289573  10.764  10.453   5.262
29226SOL     OW89574   0.418   6.788  12.416
29226SOL    HW189575   0.400   6.694  12.409
29226SOL    HW289576   0.367   6.827  12.346
29227SOL     OW89577   9.550  11.684  10.425
29227SOL    HW189578   9.485  11.721  10.484
29227SOL    HW289579   9.566  11.596  10.458
29228SOL     OW89580  12.458  14.039   6.723
29228SOL    HW189581  12.532  14.002   6.676
29228SOL    HW289582  12.452  13.987   6.803
29229SOL     OW89583   7.659   9.190   4.589
29229SOL    HW189584   7.625   9.163   4.675
29229SOL    HW289585   7.597   9.256   4.559
29230SOL     OW89586   7.808  13.238   4.032
29230SOL    HW189587   7.760  13.257   4.113
29230SOL    HW289588   7.741  13.235   3.964
29231SOL     OW89589   6.249   0.337   6.133
29231SOL    HW189590   6.163   0.370   6.107
29231SOL    HW289591   6.234   0.292   6.216
29232SOL     OW89592   1.683  13.578   1.665
29232SOL    HW189593   1.692  13.672   1.647
29232SOL    HW289594   1.749  13.537   1.609
29233SOL     OW89595  10.263   4.281   5.146
29233SOL    HW189596  10.177   4.251   5.177
29233SOL    HW289597  10.243   4.333   5.069
29234SOL     OW89598   1.101   2.028   0.942
29234SOL    HW189599   1.045   2.065   0.874
29234SOL    HW289600   1.183   2.008   0.898
29235SOL     OW89601   5.234   0.413   7.256
29235SOL    HW189602   5.257   0.334   7.305
29235SOL    HW289603   5.254   0.392   7.165
29236SOL     OW89604  11.369   3.407   5.459
29236SOL    HW189605  11.423   3.330   5.441
29236SOL    HW289606  11.430   3.481   5.457
29237SOL     OW89607  12.853   3.420  12.804
29237SOL    HW189608  12.940   3.429  12.764
29237SOL    HW289609  12.828   3.510  12.827
29238SOL     OW89610   7.600  11.479  10.792
29238SOL    HW189611   7.636  11.450  10.708
29238SOL    HW289612   7.585  11.573  10.781
29239SOL     OW89613  10.527  11.901  14.409
29239SOL    HW189614  10.441  11.911  14.368
29239SOL    HW289615  10.544  11.807  14.404
29240SOL     OW89616   8.667   1.241   0.466
29240SOL    HW189617   8.667   1.326   0.423
29240SOL    HW289618   8.698   1.259   0.555
29241SOL     OW89619   3.623   8.870   2.625
29241SOL    HW189620   3.596   8.806   2.690
29241SOL    HW289621   3.579   8.951   2.651
29242SOL     OW89622   2.507  13.961   9.617
29242SOL    HW189623   2.566  14.021   9.572
29242SOL    HW289624   2.461  14.015   9.681
29243SOL     OW89625   8.659  10.763   5.995
29243SOL    HW189626   8.710  10.811   6.061
29243SOL    HW289627   8.587  10.724   6.045
29244SOL     OW89628   8.454   7.492   0.014
29244SOL    HW189629   8.449   7.404   0.050
29244SOL    HW289630   8.547   7.514   0.018
29245SOL     OW89631   7.032   7.937   6.575
29245SOL    HW189632   7.115   7.938   6.623
29245SOL    HW289633   7.012   8.029   6.559
29246SOL     OW89634   8.694   7.587   5.206
29246SOL    HW189635   8.617   7.638   5.181
29246SOL    HW289636   8.686   7.574   5.300
29247SOL     OW89637   6.761  13.406   4.832
29247SOL    HW189638   6.730  13.316   4.819
29247SOL    HW289639   6.713  13.437   4.909
29248SOL     OW89640   2.043   8.283  10.571
29248SOL    HW189641   2.129   8.297  10.532
29248SOL    HW289642   2.014   8.199  10.536
29249SOL     OW89643   1.729   2.644   8.265
29249SOL    HW189644   1.678   2.683   8.337
29249SOL    HW289645   1.769   2.719   8.221
29250SOL     OW89646  11.518  12.089   1.532
29250SOL    HW189647  11.505  12.130   1.618
29250SOL    HW289648  11.447  12.124   1.478
29251SOL     OW89649  10.167   7.652   3.278
29251SOL    HW189650  10.242   7.613   3.323
29251SOL    HW289651  10.091   7.606   3.314
29252SOL     OW89652   6.892  14.552   2.774
29252SOL    HW189653   6.899  14.582   2.864
29252SOL    HW289654   6.800  14.564   2.751
29253SOL     OW89655  13.679   9.634  11.370
29253SOL    HW189656  13.685   9.560  11.310
29253SOL    HW289657  13.608   9.688  11.335
29254SOL     OW89658  10.524   4.884   0.848
29254SOL    HW189659  10.587   4.815   0.868
29254SOL    HW289660  10.575   4.965   0.857
29255SOL     OW89661  13.445   7.028   6.004
29255SOL    HW189662  13.420   7.028   6.096
29255SOL    HW289663  13.464   6.936   5.984
29256SOL     OW89664  10.298   2.501   9.612
29256SOL    HW189665  10.304   2.584   9.565
29256SOL    HW289666  10.380   2.456   9.592
29257SOL     OW89667   2.152   7.566  14.659
29257SOL    HW189668   2.215   7.525  14.718
29257SOL    HW289669   2.169   7.525  14.574
29258SOL     OW89670   5.980   2.673   8.886
29258SOL    HW189671   5.977   2.679   8.981
29258SOL    HW289672   5.931   2.594   8.865
29259SOL     OW89673   1.630   1.749   7.397
29259SOL    HW189674   1.582   1.727   7.317
29259SOL    HW289675   1.619   1.673   7.453
29260SOL     OW89676   7.248   7.899  10.258
29260SOL    HW189677   7.344   7.897  10.262
29260SOL    HW289678   7.220   7.897  10.350
29261SOL     OW89679   3.304   5.117   1.940
29261SOL    HW189680   3.351   5.174   1.879
29261SOL    HW289681   3.281   5.175   2.013
29262SOL     OW89682   0.914   3.331  10.551
29262SOL    HW189683   0.965   3.385  10.490
29262SOL    HW289684   0.823   3.356  10.535
29263SOL     OW89685   6.794   2.735  12.476
29263SOL    HW189686   6.881   2.705  12.501
29263SOL    HW289687   6.809   2.808  12.416
29264SOL     OW89688   9.454   6.629  14.472
29264SOL    HW189689   9.460   6.725  14.475
29264SOL    HW289690   9.542   6.600  14.449
29265SOL     OW89691  12.107   6.016  10.399
29265SOL    HW189692  12.141   6.011  10.488
29265SOL    HW289693  12.058   6.098  10.397
29266SOL     OW89694  14.511  12.542   7.944
29266SOL    HW189695  14.500  12.553   7.849
29266SOL    HW289696  14.425  12.563   7.980
29267SOL     OW89697   6.351   4.400   7.579
29267SOL    HW189698   6.434   4.432   7.611
29267SOL    HW289699   6.346   4.430   7.488
29268SOL     OW89700  10.079  10.230   7.474
29268SOL    HW189701  10.060  10.187   7.391
29268SOL    HW289702  10.173  10.220   7.485
29269SOL     OW89703   3.895  12.649  10.848
29269SOL    HW189704   3.985  12.634  10.821
29269SOL    HW289705   3.863  12.718  10.790
29270SOL     OW89706   3.546  12.109  11.549
29270SOL    HW189707   3.617  12.046  11.558
29270SOL    HW289708   3.535  12.145  11.638
29271SOL     OW89709   9.667  13.973   1.599
29271SOL    HW189710   9.577  13.944   1.588
29271SOL    HW289711   9.720  13.893   1.592
29272SOL     OW89712   5.717  10.518   2.195
29272SOL    HW189713   5.684  10.555   2.113
29272SOL    HW289714   5.745  10.430   2.173
29273SOL     OW89715  10.858  10.706  14.678
29273SOL    HW189716  10.918  10.780  14.680
29273SOL    HW289717  10.898  10.640  14.734
29274SOL     OW89718   2.936   8.181   8.893
29274SOL    HW189719   3.007   8.239   8.865
29274SOL    HW289720   2.955   8.098   8.849
29275SOL     OW89721   6.626  14.744  13.425
29275SOL    HW189722   6.632  14.721  13.332
29275SOL    HW289723   6.637  14.661  13.471
29276SOL     OW89724   3.702  14.528   3.811
29276SOL    HW189725   3.610  14.510   3.795
29276SOL    HW289726   3.702  14.590   3.884
29277SOL     OW89727   5.965   0.904   2.045
29277SOL    HW189728   5.933   0.953   2.121
29277SOL    HW289729   5.948   0.812   2.068
29278SOL     OW89730  14.614   2.091   5.686
29278SOL    HW189731  14.668   2.131   5.617
29278SOL    HW289732  14.535   2.146   5.689
29279SOL     OW89733   4.437   7.519   3.792
29279SOL    HW189734   4.393   7.458   3.852
29279SOL    HW289735   4.523   7.533   3.831
29280SOL     OW89736   5.202   2.234   8.232
29280SOL    HW189737   5.168   2.208   8.317
29280SOL    HW289738   5.297   2.238   8.245
29281SOL     OW89739  10.314  10.480   4.615
29281SOL    HW189740  10.302  10.411   4.550
29281SOL    HW289741  10.264  10.554   4.581
29282SOL     OW89742  13.186   3.086   6.395
29282SOL    HW189743  13.125   3.148   6.354
29282SOL    HW289744  13.130   3.023   6.439
29283SOL     OW89745   5.385   2.936  14.439
29283SOL    HW189746   5.437   2.959  14.362
29283SOL    HW289747   5.297   2.919  14.404
29284SOL     OW89748   2.301   1.445   8.775
29284SOL    HW189749   2.328   1.356   8.755
29284SOL    HW289750   2.216   1.435   8.818
29285SOL     OW89751   0.095   6.929   8.862
29285SOL    HW189752   0.025   6.966   8.917
29285SOL    HW289753   0.101   6.837   8.890
29286SOL     OW89754   9.171   2.547   4.454
29286SOL    HW189755   9.261   2.546   4.489
29286SOL    HW289756   9.121   2.494   4.516
29287SOL     OW89757  14.045   4.121   6.976
29287SOL    HW189758  14.041   4.075   7.060
29287SOL    HW289759  13.953   4.138   6.954
29288SOL     OW89760   8.040  10.998  12.929
29288SOL    HW189761   8.046  10.961  12.841
29288SOL    HW289762   8.055  11.092  12.917
29289SOL     OW89763   1.511   9.196   7.805
29289SOL    HW189764   1.518   9.113   7.852
29289SOL    HW289765   1.515   9.263   7.874
29290SOL     OW89766   7.430  12.839  14.526
29290SOL    HW189767   7.348  12.790  14.512
29290SOL    HW289768   7.430  12.860  14.619
29291SOL     OW89769   1.173   7.416  11.203
29291SOL    HW189770   1.136   7.331  11.223
29291SOL    HW289771   1.267   7.401  11.197
29292SOL     OW89772   9.846   0.990   2.410
29292SOL    HW189773   9.839   1.057   2.478
29292SOL    HW289774   9.758   0.953   2.403
29293SOL     OW89775   1.512   2.583   3.938
29293SOL    HW189776   1.518   2.549   3.849
29293SOL    HW289777   1.426   2.556   3.969
29294SOL     OW89778   0.055   5.339  12.012
29294SOL    HW189779   0.084   5.341  11.921
29294SOL    HW289780   0.033   5.247  12.028
29295SOL     OW89781  10.006   0.635   5.697
29295SOL    HW189782   9.972   0.724   5.705
29295SOL    HW289783  10.024   0.608   5.787
29296SOL     OW89784   8.873  13.585   1.566
29296SOL    HW189785   8.916  13.659   1.522
29296SOL    HW289786   8.816  13.626   1.631
29297SOL     OW89787   4.633   1.529  14.330
29297SOL    HW189788   4.717   1.571  14.311
29297SOL    HW289789   4.587   1.528  14.247
29298SOL     OW89790  14.747   6.529   9.313
29298SOL    HW189791  14.772   6.553   9.403
29298SOL    HW289792  14.830   6.526   9.266
29299SOL     OW89793  13.874   7.084   5.069
29299SOL    HW189794  13.798   7.027   5.072
29299SOL    HW289795  13.849   7.155   5.010
29300SOL     OW89796  12.031   4.506  14.516
29300SOL    HW189797  11.938   4.495  14.497
29300SOL    HW289798  12.057   4.425  14.560
29301SOL     OW89799  11.729   7.055   8.220
29301SOL    HW189800  11.718   7.144   8.253
29301SOL    HW289801  11.661   7.004   8.265
29302SOL     OW89802   8.848   5.162  12.676
29302SOL    HW189803   8.833   5.180  12.583
29302SOL    HW289804   8.943   5.169  12.688
29303SOL     OW89805   3.893   0.279   0.857
29303SOL    HW189806   3.930   0.285   0.945
29303SOL    HW289807   3.857   0.367   0.840
29304SOL     OW89808   0.078   0.491   1.242
29304SOL    HW189809   0.170   0.516   1.254
29304SOL    HW289810   0.031   0.575   1.241
29305SOL     OW89811  10.680   5.958   1.252
29305SOL    HW189812  10.656   5.904   1.327
29305SOL    HW289813  10.663   6.048   1.281
29306SOL     OW89814   8.372  11.113  10.062
29306SOL    HW189815   8.429  11.155   9.997
29306SOL    HW289816   8.293  11.167  10.064
29307SOL     OW89817   8.413   7.875   7.298
29307SOL    HW189818   8.354   7.946   7.274
29307SOL    HW289819   8.438   7.836   7.214
29308SOL     OW89820   7.742  12.857  14.733
29308SOL    HW189821   7.652  12.826  14.745
29308SOL    HW289822   7.771  12.883  14.821
29309SOL     OW89823  12.853   5.955   1.619
29309SOL    HW189824  12.822   6.012   1.549
29309SOL    HW289825  12.791   5.882   1.620
29310SOL     OW89826   4.055  13.488  13.265
29310SOL    HW189827   4.068  13.422  13.198
29310SOL    HW289828   3.969  13.525  13.247
29311SOL     OW89829   8.957  12.036   6.571
29311SOL    HW189830   8.910  12.091   6.509
29311SOL    HW289831   9.049  12.045   6.546
29312SOL     OW89832   9.469  11.144   7.967
29312SOL    HW189833   9.408  11.155   7.894
29312SOL    HW289834   9.463  11.051   7.989
29313SOL     OW89835   6.322  12.886   4.413
29313SOL    HW189836   6.306  12.798   4.380
29313SOL    HW289837   6.264  12.894   4.489
29314SOL     OW89838   5.742   2.639  10.050
29314SOL    HW189839   5.714   2.699  10.119
29314SOL    HW289840   5.830   2.613  10.076
29315SOL     OW89841   7.994   5.977   5.920
29315SOL    HW189842   7.940   5.969   5.842
29315SOL    HW289843   7.950   6.043   5.973
29316SOL     OW89844  13.993   3.442   5.497
29316SOL    HW189845  14.074   3.396   5.519
29316SOL    HW289846  14.022   3.531   5.474
29317SOL     OW89847   1.861   3.394   5.683
29317SOL    HW189848   1.799   3.432   5.621
29317SOL    HW289849   1.928   3.462   5.694
29318SOL     OW89850   4.752   6.582   1.871
29318SOL    HW189851   4.793   6.546   1.793
29318SOL    HW289852   4.776   6.674   1.872
29319SOL     OW89853   4.786   1.872  12.014
29319SOL    HW189854   4.692   1.853  12.007
29319SOL    HW289855   4.802   1.937  11.945
29320SOL     OW89856  11.103   1.991   0.372
29320SOL    HW189857  11.186   2.030   0.345
29320SOL    HW289858  11.098   2.008   0.466
29321SOL     OW89859  14.001  14.101  11.071
29321SOL    HW189860  14.036  14.039  11.134
29321SOL    HW289861  14.055  14.090  10.993
29322SOL     OW89862   0.294   0.850   5.071
29322SOL    HW189863   0.344   0.801   5.135
29322SOL    HW289864   0.204   0.848   5.103
29323SOL     OW89865  11.856  13.042  10.128
29323SOL    HW189866  11.804  12.966  10.152
29323SOL    HW289867  11.890  13.022  10.041
29324SOL     OW89868   6.277   4.661  12.366
29324SOL    HW189869   6.305   4.607  12.440
29324SOL    HW289870   6.181   4.664  12.373
29325SOL     OW89871   8.238  11.010  14.548
29325SOL    HW189872   8.162  11.013  14.607
29325SOL    HW289873   8.207  10.962  14.472
29326SOL     OW89874   1.619  11.106   9.065
29326SOL    HW189875   1.562  11.136   8.994
29326SOL    HW289876   1.583  11.147   9.143
29327SOL     OW89877   2.841   3.759   2.190
29327SOL    HW189878   2.876   3.725   2.108
29327SOL    HW289879   2.894   3.717   2.258
29328SOL     OW89880  13.139   9.232   0.823
29328SOL    HW189881  13.096   9.216   0.739
29328SOL    HW289882  13.160   9.325   0.822
29329SOL     OW89883   1.179   6.629   4.355
29329SOL    HW189884   1.119   6.647   4.282
29329SOL    HW289885   1.266   6.630   4.315
29330SOL     OW89886   2.572   7.408  10.274
29330SOL    HW189887   2.617   7.387  10.193
29330SOL    HW289888   2.559   7.503  10.271
29331SOL     OW89889   6.314  12.275   3.536
29331SOL    HW189890   6.335  12.334   3.463
29331SOL    HW289891   6.399  12.257   3.576
29332SOL     OW89892  10.699   6.523   4.630
29332SOL    HW189893  10.687   6.551   4.539
29332SOL    HW289894  10.617   6.544   4.673
29333SOL     OW89895   3.430   3.596   6.861
29333SOL    HW189896   3.410   3.669   6.920
29333SOL    HW289897   3.525   3.591   6.860
29334SOL     OW89898   9.794  12.737   6.155
29334SOL    HW189899   9.817  12.695   6.237
29334SOL    HW289900   9.837  12.822   6.158
29335SOL     OW89901   5.791   1.392   5.985
29335SOL    HW189902   5.840   1.373   5.905
29335SOL    HW289903   5.735   1.315   5.998
29336SOL     OW89904   6.899  12.347   9.854
29336SOL    HW189905   6.955  12.294   9.796
29336SOL    HW289906   6.814  12.304   9.852
29337SOL     OW89907   6.115   0.589   7.224
29337SOL    HW189908   6.043   0.533   7.194
29337SOL    HW289909   6.106   0.668   7.172
29338SOL     OW89910   9.589  10.927   2.092
29338SOL    HW189911   9.597  11.012   2.134
29338SOL    HW289912   9.533  10.875   2.150
29339SOL     OW89913   7.749   7.777   5.211
29339SOL    HW189914   7.806   7.730   5.272
29339SOL    HW289915   7.706   7.843   5.265
29340SOL     OW89916   4.686   1.185  10.694
29340SOL    HW189917   4.737   1.238  10.634
29340SOL    HW289918   4.596   1.218  10.685
29341SOL     OW89919   6.758   2.460   4.227
29341SOL    HW189920   6.737   2.406   4.303
29341SOL    HW289921   6.682   2.449   4.169
29342SOL     OW89922  12.914   6.652   5.174
29342SOL    HW189923  12.871   6.713   5.114
29342SOL    HW289924  12.845   6.591   5.200
29343SOL     OW89925   4.958  10.775   9.032
29343SOL    HW189926   5.028  10.730   9.079
29343SOL    HW289927   4.885  10.713   9.034
29344SOL     OW89928   5.998  12.106  11.974
29344SOL    HW189929   5.935  12.074  12.039
29344SOL    HW289930   6.045  12.176  12.018
29345SOL     OW89931   9.707  10.169   7.209
29345SOL    HW189932   9.617  10.177   7.241
29345SOL    HW289933   9.737  10.259   7.198
29346SOL     OW89934   1.819  13.877  12.616
29346SOL    HW189935   1.765  13.860  12.539
29346SOL    HW289936   1.804  13.969  12.635
29347SOL     OW89937   2.326   3.371  14.801
29347SOL    HW189938   2.355   3.282  14.784
29347SOL    HW289939   2.366   3.395   0.015
29348SOL     OW89940  10.214   7.393  13.301
29348SOL    HW189941  10.130   7.392  13.256
29348SOL    HW289942  10.216   7.312  13.353
29349SOL     OW89943   8.648   7.974   7.483
29349SOL    HW189944   8.695   8.040   7.432
29349SOL    HW289945   8.596   7.926   7.419
29350SOL     OW89946  14.398   9.521   0.109
29350SOL    HW189947  14.422   9.437   0.148
29350SOL    HW289948  14.322   9.551   0.160
29351SOL     OW89949   3.947   0.734  10.815
29351SOL    HW189950   4.030   0.714  10.772
29351SOL    HW289951   3.924   0.654  10.861
29352SOL     OW89952  10.397   9.165   5.602
29352SOL    HW189953  10.321   9.210   5.640
29352SOL    HW289954  10.365   9.077   5.582
29353SOL     OW89955  12.610   7.617   8.121
29353SOL    HW189956  12.668   7.675   8.071
29353SOL    HW289957  12.649   7.530   8.111
29354SOL     OW89958   8.553  13.035  12.818
29354SOL    HW189959   8.621  12.970  12.838
29354SOL    HW289960   8.547  13.034  12.722
29355SOL     OW89961   8.410   6.341   3.954
29355SOL    HW189962   8.366   6.349   3.869
29355SOL    HW289963   8.446   6.429   3.971
29356SOL     OW89964  11.110   3.777  14.407
29356SOL    HW189965  11.062   3.844  14.357
29356SOL    HW289966  11.198   3.777  14.369
29357SOL     OW89967   9.830   0.201   4.116
29357SOL    HW189968   9.867   0.141   4.181
29357SOL    HW289969   9.766   0.252   4.165
29358SOL     OW89970   3.427   8.343   8.352
29358SOL    HW189971   3.515   8.375   8.329
29358SOL    HW289972   3.371   8.375   8.281
29359SOL     OW89973   9.587  12.723   9.317
29359SOL    HW189974   9.661  12.681   9.360
29359SOL    HW289975   9.510  12.673   9.345
29360SOL     OW89976   2.565   4.325   4.511
29360SOL    HW189977   2.537   4.244   4.467
29360SOL    HW289978   2.650   4.305   4.548
29361SOL     OW89979  13.698   1.602   6.038
29361SOL    HW189980  13.736   1.690   6.038
29361SOL    HW289981  13.739   1.558   6.112
29362SOL     OW89982   6.538   4.806   5.478
29362SOL    HW189983   6.455   4.795   5.432
29362SOL    HW289984   6.599   4.839   5.412
29363SOL     OW89985   8.588   8.404  10.765
29363SOL    HW189986   8.604   8.482  10.712
29363SOL    HW289987   8.667   8.351  10.754
29364SOL     OW89988  11.653   5.747   4.670
29364SOL    HW189989  11.636   5.813   4.738
29364SOL    HW289990  11.706   5.681   4.714
29365SOL     OW89991   5.240   2.572  11.651
29365SOL    HW189992   5.288   2.540  11.728
29365SOL    HW289993   5.231   2.666  11.666
29366SOL     OW89994   1.293   8.537  11.791
29366SOL    HW189995   1.259   8.463  11.842
29366SOL    HW289996   1.218   8.568  11.741
29367SOL     OW89997  11.181  14.432  12.595
29367SOL    HW189998  11.225  14.374  12.533
29367SOL    HW289999  11.170  14.379  12.674
29368SOL     OW90000   6.225  14.844   8.226
29368SOL    HW190001   6.243  14.869   8.317
29368SOL    HW290002   6.310  14.818   8.191
29369SOL     OW90003   2.831   8.597   1.406
29369SOL    HW190004   2.838   8.511   1.447
29369SOL    HW290005   2.796   8.579   1.319
29370SOL     OW90006  13.132  14.120  10.646
29370SOL    HW190007  13.175  14.079  10.571
29370SOL    HW290008  13.064  14.175  10.607
29371SOL     OW90009   2.099   7.902   6.590
29371SOL    HW190010   2.150   7.944   6.659
29371SOL    HW290011   2.068   7.975   6.535
29372SOL     OW90012   1.397   4.812   3.073
29372SOL    HW190013   1.301   4.805   3.075
29372SOL    HW290014   1.419   4.852   3.157
29373SOL     OW90015   5.039   7.330   6.502
29373SOL    HW190016   5.030   7.346   6.408
29373SOL    HW290017   5.111   7.386   6.529
29374SOL     OW90018   4.912   0.760   3.283
29374SOL    HW190019   4.845   0.798   3.227
29374SOL    HW290020   4.885   0.783   3.372
29375SOL     OW90021   1.317   3.323  10.921
29375SOL    HW190022   1.265   3.351  10.997
29375SOL    HW290023   1.309   3.228  10.920
29376SOL     OW90024   6.753   7.319   0.132
29376SOL    HW190025   6.821   7.383   0.111
29376SOL    HW290026   6.671   7.369   0.129
29377SOL     OW90027   8.547  11.422   5.200
29377SOL    HW190028   8.497  11.482   5.255
29377SOL    HW290029   8.509  11.431   5.113
29378SOL     OW90030   4.264   9.958  13.209
29378SOL    HW190031   4.236   9.868  13.226
29378SOL    HW290032   4.316   9.982  13.286
29379SOL     OW90033   7.810   2.072   0.950
29379SOL    HW190034   7.783   2.011   1.019
29379SOL    HW290035   7.804   2.158   0.991
29380SOL     OW90036   8.471   2.205  12.563
29380SOL    HW190037   8.379   2.195  12.540
29380SOL    HW290038   8.470   2.254  12.646
29381SOL     OW90039  11.845  10.737   0.847
29381SOL    HW190040  11.794  10.757   0.768
29381SOL    HW290041  11.936  10.747   0.819
29382SOL     OW90042  13.135   8.762   4.888
29382SOL    HW190043  13.064   8.697   4.893
29382SOL    HW290044  13.092   8.846   4.904
29383SOL     OW90045  12.248   7.762  14.670
29383SOL    HW190046  12.154   7.759  14.686
29383SOL    HW290047  12.286   7.715  14.744
29384SOL     OW90048   0.982  13.849   3.372
29384SOL    HW190049   0.892  13.858   3.340
29384SOL    HW290050   1.013  13.939   3.381
29385SOL     OW90051   6.990  11.735   2.660
29385SOL    HW190052   6.942  11.696   2.587
29385SOL    HW290053   7.078  11.698   2.654
29386SOL     OW90054  12.147   4.491   1.798
29386SOL    HW190055  12.087   4.511   1.870
29386SOL    HW290056  12.153   4.396   1.796
29387SOL     OW90057   3.083   5.848  11.648
29387SOL    HW190058   3.113   5.937  11.668
29387SOL    HW290059   3.164   5.800  11.630
29388SOL     OW90060  12.456   8.828  10.522
29388SOL    HW190061  12.513   8.905  10.516
29388SOL    HW290062  12.399   8.835  10.446
29389SOL     OW90063  14.525   1.183   3.651
29389SOL    HW190064  14.476   1.180   3.733
29389SOL    HW290065  14.520   1.094   3.616
29390SOL     OW90066   9.076   9.881   0.428
29390SOL    HW190067   9.038   9.813   0.371
29390SOL    HW290068   9.130   9.933   0.370
29391SOL     OW90069   3.300   0.453   5.105
29391SOL    HW190070   3.251   0.527   5.139
29391SOL    HW290071   3.391   0.473   5.126
29392SOL     OW90072  14.538   5.060  10.510
29392SOL    HW190073  14.473   5.076  10.578
29392SOL    HW290074  14.519   5.125  10.442
29393SOL     OW90075  13.178   3.111  14.723
29393SOL    HW190076  13.181   3.206  14.729
29393SOL    HW290077  13.086   3.090  14.708
29394SOL     OW90078  10.120   8.171   8.976
29394SOL    HW190079  10.066   8.160   9.054
29394SOL    HW290080  10.060   8.156   8.903
29395SOL     OW90081   8.983  12.664   5.994
29395SOL    HW190082   8.923  12.734   5.969
29395SOL    HW290083   8.931  12.584   5.985
29396SOL     OW90084   2.325   5.662  11.156
29396SOL    HW190085   2.397   5.600  11.145
29396SOL    HW290086   2.358   5.726  11.220
29397SOL     OW90087  10.394   3.577   4.329
29397SOL    HW190088  10.478   3.623   4.331
29397SOL    HW290089  10.395   3.521   4.407
29398SOL     OW90090   8.824   6.145   7.645
29398SOL    HW190091   8.872   6.217   7.604
29398SOL    HW290092   8.889   6.075   7.654
29399SOL     OW90093   6.981   5.797   9.717
29399SOL    HW190094   6.986   5.858   9.790
29399SOL    HW290095   6.996   5.711   9.756
29400SOL     OW90096  14.534   4.705   3.532
29400SOL    HW190097  14.532   4.776   3.596
29400SOL    HW290098  14.619   4.663   3.546
29401SOL     OW90099   9.370   9.632   1.174
29401SOL    HW190100   9.366   9.706   1.113
29401SOL    HW290101   9.279   9.601   1.180
29402SOL     OW90102   0.670   0.825   6.368
29402SOL    HW190103   0.730   0.826   6.443
29402SOL    HW290104   0.583   0.818   6.407
29403SOL     OW90105  14.111   7.906  12.050
29403SOL    HW190106  14.116   7.966  11.976
29403SOL    HW290107  14.046   7.841  12.024
29404SOL     OW90108   0.223  12.989   6.540
29404SOL    HW190109   0.247  12.991   6.447
29404SOL    HW290110   0.128  13.002   6.540
29405SOL     OW90111   7.644  11.477   9.962
29405SOL    HW190112   7.561  11.457   9.919
29405SOL    HW290113   7.684  11.391   9.976
29406SOL     OW90114  10.390   9.397  14.756
29406SOL    HW190115  10.441   9.403  14.837
29406SOL    HW290116  10.310   9.351  14.781
29407SOL     OW90117  12.309   1.605  11.267
29407SOL    HW190118  12.266   1.691  11.263
29407SOL    HW290119  12.307   1.574  11.176
29408SOL     OW90120   3.835  12.238   0.303
29408SOL    HW190121   3.787  12.253   0.222
29408SOL    HW290122   3.927  12.249   0.278
29409SOL     OW90123  10.012  14.057   9.160
29409SOL    HW190124   9.952  14.098   9.222
29409SOL    HW290125   9.979  13.967   9.151
29410SOL     OW90126   3.672   6.721   8.048
29410SOL    HW190127   3.727   6.676   8.112
29410SOL    HW290128   3.594   6.747   8.098
29411SOL     OW90129   0.575   2.428   9.536
29411SOL    HW190130   0.481   2.445   9.533
29411SOL    HW290131   0.582   2.336   9.561
29412SOL     OW90132  11.247   8.592  13.223
29412SOL    HW190133  11.177   8.532  13.198
29412SOL    HW290134  11.262   8.646  13.145
29413SOL     OW90135   7.871  11.354   7.294
29413SOL    HW190136   7.892  11.278   7.347
29413SOL    HW290137   7.935  11.353   7.222
29414SOL     OW90138  11.193   3.163   1.016
29414SOL    HW190139  11.191   3.069   1.034
29414SOL    HW290140  11.272   3.176   0.964
29415SOL     OW90141   8.233  12.978   7.203
29415SOL    HW190142   8.210  13.061   7.245
29415SOL    HW290143   8.153  12.926   7.208
29416SOL     OW90144  12.155  11.674  12.580
29416SOL    HW190145  12.111  11.599  12.619
29416SOL    HW290146  12.093  11.746  12.589
29417SOL     OW90147  10.480   2.716   9.373
29417SOL    HW190148  10.427   2.753   9.302
29417SOL    HW290149  10.567   2.704   9.335
29418SOL     OW90150   9.085   6.056   8.428
29418SOL    HW190151   8.995   6.036   8.452
29418SOL    HW290152   9.137   6.029   8.504
29419SOL     OW90153  13.718  11.516   3.044
29419SOL    HW190154  13.683  11.532   3.132
29419SOL    HW290155  13.812  11.504   3.058
29420SOL     OW90156  11.942   6.763  10.061
29420SOL    HW190157  11.963   6.790   9.972
29420SOL    HW290158  11.948   6.667  10.060
29421SOL     OW90159   0.308   1.702   0.071
29421SOL    HW190160   0.322   1.609   0.055
29421SOL    HW290161   0.237   1.726   0.011
29422SOL     OW90162   8.987  12.717  12.154
29422SOL    HW190163   8.895  12.708  12.176
29422SOL    HW290164   9.004  12.811  12.156
29423SOL     OW90165   6.661   9.167   9.604
29423SOL    HW190166   6.752   9.161   9.633
29423SOL    HW290167   6.630   9.252   9.637
29424SOL     OW90168   1.597   4.691   3.839
29424SOL    HW190169   1.518   4.656   3.799
29424SOL    HW290170   1.614   4.633   3.913
29425SOL     OW90171  10.941   8.965  11.442
29425SOL    HW190172  10.966   9.056  11.430
29425SOL    HW290173  10.962   8.946  11.534
29426SOL     OW90174  13.684   0.554  11.414
29426SOL    HW190175  13.695   0.469  11.373
29426SOL    HW290176  13.597   0.583  11.386
29427SOL     OW90177   4.767   2.329   4.898
29427SOL    HW190178   4.807   2.318   4.984
29427SOL    HW290179   4.723   2.246   4.881
29428SOL     OW90180   7.560  12.735  12.311
29428SOL    HW190181   7.603  12.703  12.232
29428SOL    HW290182   7.606  12.817  12.331
29429SOL     OW90183  13.440   7.405  12.448
29429SOL    HW190184  13.486   7.479  12.409
29429SOL    HW290185  13.506   7.360  12.501
29430SOL     OW90186  10.428   8.296  13.155
29430SOL    HW190187  10.518   8.325  13.139
29430SOL    HW290188  10.431   8.255  13.241
29431SOL     OW90189   6.612   2.101   0.506
29431SOL    HW190190   6.523   2.126   0.480
29431SOL    HW290191   6.605   2.081   0.599
29432SOL     OW90192   0.478   6.725   4.536
29432SOL    HW190193   0.441   6.764   4.615
29432SOL    HW290194   0.449   6.783   4.465
29433SOL     OW90195   0.497   9.433  13.368
29433SOL    HW190196   0.581   9.392  13.389
29433SOL    HW290197   0.437   9.399  13.434
29434SOL     OW90198   6.862   8.217  14.658
29434SOL    HW190199   6.844   8.123  14.651
29434SOL    HW290200   6.797   8.250  14.720
29435SOL     OW90201   0.444   6.545  10.841
29435SOL    HW190202   0.387   6.471  10.820
29435SOL    HW290203   0.456   6.591  10.758
29436SOL     OW90204   4.211   0.899  10.296
29436SOL    HW190205   4.173   0.927  10.213
29436SOL    HW290206   4.305   0.894  10.279
29437SOL     OW90207  11.876   6.146   6.654
29437SOL    HW190208  11.852   6.054   6.643
29437SOL    HW290209  11.966   6.152   6.620
29438SOL     OW90210   9.379   1.688  12.753
29438SOL    HW190211   9.284   1.677  12.751
29438SOL    HW290212   9.412   1.623  12.690
29439SOL     OW90213   8.771   1.823  14.626
29439SOL    HW190214   8.706   1.762  14.661
29439SOL    HW290215   8.754   1.905  14.672
29440SOL     OW90216   7.513   6.729   8.815
29440SOL    HW190217   7.497   6.769   8.730
29440SOL    HW290218   7.600   6.691   8.808
29441SOL     OW90219   0.796   5.285  12.709
29441SOL    HW190220   0.741   5.353  12.749
29441SOL    HW290221   0.878   5.330  12.688
29442SOL     OW90222   4.343  10.968   7.149
29442SOL    HW190223   4.390  10.897   7.104
29442SOL    HW290224   4.330  10.935   7.238
29443SOL     OW90225  10.203  12.480   8.534
29443SOL    HW190226  10.289  12.519   8.519
29443SOL    HW290227  10.196  12.472   8.629
29444SOL     OW90228   7.564  10.175   0.996
29444SOL    HW190229   7.575  10.108   1.064
29444SOL    HW290230   7.473  10.166   0.968
29445SOL     OW90231   2.951  12.715  12.970
29445SOL    HW190232   2.889  12.701  13.041
29445SOL    HW290233   3.035  12.725  13.013
29446SOL     OW90234   8.518   9.487   4.120
29446SOL    HW190235   8.555   9.429   4.186
29446SOL    HW290236   8.512   9.572   4.163
29447SOL     OW90237   5.195  11.850   1.848
29447SOL    HW190238   5.155  11.764   1.864
29447SOL    HW290239   5.178  11.899   1.928
29448SOL     OW90240   5.558   0.273   0.424
29448SOL    HW190241   5.626   0.214   0.391
29448SOL    HW290242   5.583   0.359   0.392
29449SOL     OW90243  13.608   5.702   6.600
29449SOL    HW190244  13.555   5.652   6.538
29449SOL    HW290245  13.545   5.730   6.667
29450SOL     OW90246   5.655  10.974   7.846
29450SOL    HW190247   5.665  10.887   7.805
29450SOL    HW290248   5.611  10.956   7.929
29451SOL     OW90249  11.068   7.645   2.648
29451SOL    HW190250  11.128   7.571   2.659
29451SOL    HW290251  11.085   7.701   2.723
29452SOL     OW90252   7.418   5.386  12.403
29452SOL    HW190253   7.436   5.294  12.384
29452SOL    HW290254   7.486   5.434  12.356
29453SOL     OW90255  13.023   1.638   2.168
29453SOL    HW190256  12.930   1.649   2.192
29453SOL    HW290257  13.063   1.722   2.191
29454SOL     OW90258  13.725  11.946   2.514
29454SOL    HW190259  13.699  11.878   2.575
29454SOL    HW290260  13.771  11.900   2.444
29455SOL     OW90261   9.801   5.841   4.475
29455SOL    HW190262   9.740   5.905   4.511
29455SOL    HW290263   9.863   5.825   4.545
29456SOL     OW90264  14.136   0.757   2.730
29456SOL    HW190265  14.096   0.809   2.660
29456SOL    HW290266  14.138   0.816   2.805
29457SOL     OW90267   7.661   9.381   8.155
29457SOL    HW190268   7.590   9.318   8.169
29457SOL    HW290269   7.721   9.336   8.095
29458SOL     OW90270   7.807   0.265   3.041
29458SOL    HW190271   7.740   0.270   2.972
29458SOL    HW290272   7.870   0.202   3.008
29459SOL     OW90273   8.477  13.520  11.005
29459SOL    HW190274   8.469  13.577  11.081
29459SOL    HW290275   8.455  13.433  11.038
29460SOL     OW90276  10.279   6.417   6.013
29460SOL    HW190277  10.252   6.496   5.967
29460SOL    HW290278  10.198   6.382   6.050
29461SOL     OW90279  10.117  12.673  10.935
29461SOL    HW190280  10.157  12.593  10.970
29461SOL    HW290281  10.125  12.664  10.840
29462SOL     OW90282  13.191   8.638  10.609
29462SOL    HW190283  13.236   8.618  10.690
29462SOL    HW290284  13.098   8.624  10.629
29463SOL     OW90285   9.123  13.033   1.090
29463SOL    HW190286   9.157  12.964   1.033
29463SOL    HW290287   9.171  13.022   1.172
29464SOL     OW90288   1.578   8.713   3.469
29464SOL    HW190289   1.521   8.789   3.465
29464SOL    HW290290   1.593   8.698   3.562
29465SOL     OW90291  10.931   9.518   9.176
29465SOL    HW190292  10.872   9.479   9.240
29465SOL    HW290293  10.878   9.585   9.132
29466SOL     OW90294   0.748   8.794  11.542
29466SOL    HW190295   0.740   8.706  11.579
29466SOL    HW290296   0.775   8.781  11.451
29467SOL     OW90297   7.131   4.305   0.941
29467SOL    HW190298   7.211   4.252   0.943
29467SOL    HW290299   7.086   4.278   0.861
29468SOL     OW90300  10.769   2.085   0.287
29468SOL    HW190301  10.805   2.133   0.212
29468SOL    HW290302  10.748   2.153   0.351
29469SOL     OW90303   4.097   0.872   6.404
29469SOL    HW190304   4.143   0.945   6.363
29469SOL    HW290305   4.160   0.800   6.405
29470SOL     OW90306   1.205  14.718   6.309
29470SOL    HW190307   1.117  14.755   6.303
29470SOL    HW290308   1.195  14.627   6.281
29471SOL     OW90309   5.684   2.186   4.524
29471SOL    HW190310   5.630   2.107   4.522
29471SOL    HW290311   5.659   2.235   4.446
29472SOL     OW90312  11.774   1.242  14.037
29472SOL    HW190313  11.712   1.315  14.036
29472SOL    HW290314  11.719   1.164  14.027
29473SOL     OW90315   4.121   7.233  10.562
29473SOL    HW190316   4.163   7.149  10.546
29473SOL    HW290317   4.075   7.222  10.645
29474SOL     OW90318  11.017   5.196   9.762
29474SOL    HW190319  10.947   5.154   9.712
29474SOL    HW290320  11.073   5.124   9.790
29475SOL     OW90321  14.368  12.850   7.044
29475SOL    HW190322  14.355  12.768   7.090
29475SOL    HW290323  14.366  12.827   6.952
29476SOL     OW90324   1.463  10.221   1.867
29476SOL    HW190325   1.558  10.214   1.854
29476SOL    HW290326   1.426  10.180   1.789
29477SOL     OW90327   2.898  13.878   0.653
29477SOL    HW190328   2.985  13.906   0.627
29477SOL    HW290329   2.886  13.914   0.741
29478SOL     OW90330  10.101   5.579   1.819
29478SOL    HW190331  10.085   5.643   1.888
29478SOL    HW290332  10.157   5.625   1.756
29479SOL     OW90333   5.628   0.747   5.064
29479SOL    HW190334   5.595   0.660   5.041
29479SOL    HW290335   5.666   0.737   5.151
29480SOL     OW90336  13.657   5.473  10.089
29480SOL    HW190337  13.691   5.551  10.132
29480SOL    HW290338  13.735   5.426  10.059
29481SOL     OW90339   2.723  14.561  13.404
29481SOL    HW190340   2.807  14.594  13.434
29481SOL    HW290341   2.683  14.522  13.482
29482SOL     OW90342   9.568   9.169   0.641
29482SOL    HW190343   9.590   9.245   0.695
29482SOL    HW290344   9.482   9.140   0.673
29483SOL     OW90345   9.752   5.286   5.754
29483SOL    HW190346   9.743   5.226   5.680
29483SOL    HW290347   9.694   5.251   5.820
29484SOL     OW90348   6.519   3.951   4.003
29484SOL    HW190349   6.505   4.044   4.019
29484SOL    HW290350   6.593   3.927   4.058
29485SOL     OW90351   9.775   9.268   3.116
29485SOL    HW190352   9.682   9.252   3.097
29485SOL    HW290353   9.784   9.252   3.209
29486SOL     OW90354  14.856   3.023   9.858
29486SOL    HW190355  14.829   3.079   9.786
29486SOL    HW290356  14.793   2.951   9.859
29487SOL     OW90357   6.789  11.190   7.372
29487SOL    HW190358   6.716  11.140   7.407
29487SOL    HW290359   6.862  11.128   7.370
29488SOL     OW90360  10.488  14.179   6.084
29488SOL    HW190361  10.512  14.123   6.010
29488SOL    HW290362  10.572  14.203   6.124
29489SOL     OW90363  12.484  10.349   7.093
29489SOL    HW190364  12.459  10.433   7.055
29489SOL    HW290365  12.538  10.373   7.169
29490SOL     OW90366  14.067   7.300   7.386
29490SOL    HW190367  13.996   7.311   7.322
29490SOL    HW290368  14.091   7.207   7.379
29491SOL     OW90369   9.454   1.771   6.552
29491SOL    HW190370   9.392   1.701   6.531
29491SOL    HW290371   9.528   1.756   6.493
29492SOL     OW90372  11.514   4.610   8.498
29492SOL    HW190373  11.578   4.557   8.545
29492SOL    HW290374  11.552   4.698   8.497
29493SOL     OW90375   2.344   2.955  12.852
29493SOL    HW190376   2.311   3.019  12.789
29493SOL    HW290377   2.404   2.900  12.801
29494SOL     OW90378   5.813  11.504  12.805
29494SOL    HW190379   5.848  11.456  12.730
29494SOL    HW290380   5.798  11.593  12.772
29495SOL     OW90381  14.650  11.133   6.367
29495SOL    HW190382  14.569  11.083   6.369
29495SOL    HW290383  14.718  11.070   6.392
29496SOL     OW90384   7.376   1.623  11.848
29496SOL    HW190385   7.430   1.606  11.925
29496SOL    HW290386   7.385   1.544  11.795
29497SOL     OW90387   9.000   1.680  11.686
29497SOL    HW190388   8.975   1.589  11.703
29497SOL    HW290389   8.917   1.726  11.673
29498SOL     OW90390  13.673  13.121   0.598
29498SOL    HW190391  13.578  13.133   0.589
29498SOL    HW290392  13.710  13.164   0.521
29499SOL     OW90393  13.679   3.973   0.112
29499SOL    HW190394  13.764   3.971   0.157
29499SOL    HW290395  13.669   4.064   0.086
29500SOL     OW90396   4.065   8.148   3.976
29500SOL    HW190397   4.058   8.197   3.894
29500SOL    HW290398   4.037   8.059   3.954
29501SOL     OW90399  14.723   5.172  14.543
29501SOL    HW190400  14.802   5.128  14.573
29501SOL    HW290401  14.653   5.107  14.553
29502SOL     OW90402   0.524  12.030  12.612
29502SOL    HW190403   0.583  12.066  12.679
29502SOL    HW290404   0.573  12.039  12.530
29503SOL     OW90405   8.272   9.050   6.828
29503SOL    HW190406   8.213   9.064   6.902
29503SOL    HW290407   8.329   9.128   6.828
29504SOL     OW90408   6.387  11.618   2.352
29504SOL    HW190409   6.308  11.627   2.298
29504SOL    HW290410   6.360  11.565   2.427
29505SOL     OW90411   0.839   9.106  10.169
29505SOL    HW190412   0.872   9.128  10.257
29505SOL    HW290413   0.847   9.011  10.164
29506SOL     OW90414   9.516   5.857   8.377
29506SOL    HW190415   9.516   5.763   8.394
29506SOL    HW290416   9.513   5.898   8.463
29507SOL     OW90417   2.151   9.306   4.951
29507SOL    HW190418   2.131   9.254   5.029
29507SOL    HW290419   2.112   9.392   4.969
29508SOL     OW90420   0.445  13.920  12.379
29508SOL    HW190421   0.387  13.995  12.368
29508SOL    HW290422   0.521  13.955  12.426
29509SOL     OW90423   3.751   1.334   4.026
29509SOL    HW190424   3.772   1.398   4.093
29509SOL    HW290425   3.703   1.384   3.959
29510SOL     OW90426  10.882   0.385   9.364
29510SOL    HW190427  10.816   0.454   9.368
29510SOL    HW290428  10.921   0.384   9.451
29511SOL     OW90429   6.894  10.240  11.911
29511SOL    HW190430   6.800  10.256  11.901
29511SOL    HW290431   6.909  10.157  11.867
29512SOL     OW90432   6.894   5.334   0.247
29512SOL    HW190433   6.977   5.383   0.244
29512SOL    HW290434   6.907   5.271   0.318
29513SOL     OW90435  10.769   1.199   9.378
29513SOL    HW190436  10.845   1.242   9.416
29513SOL    HW290437  10.760   1.118   9.429
29514SOL     OW90438   2.951   4.235  14.848
29514SOL    HW190439   2.958   4.159  14.790
29514SOL    HW290440   2.989   4.307  14.798
29515SOL     OW90441   8.251   4.757   8.397
29515SOL    HW190442   8.209   4.827   8.447
29515SOL    HW290443   8.185   4.731   8.332
29516SOL     OW90444   7.360  13.428   5.598
29516SOL    HW190445   7.417  13.416   5.674
29516SOL    HW290446   7.305  13.350   5.597
29517SOL     OW90447   1.352   9.012  14.442
29517SOL    HW190448   1.329   9.067  14.516
29517SOL    HW290449   1.349   9.071  14.366
29518SOL     OW90450   4.769   7.810   7.561
29518SOL    HW190451   4.841   7.820   7.623
29518SOL    HW290452   4.745   7.899   7.537
29519SOL     OW90453   3.641   6.585   6.192
29519SOL    HW190454   3.693   6.538   6.257
29519SOL    HW290455   3.679   6.672   6.187
29520SOL     OW90456   1.992   2.498   5.569
29520SOL    HW190457   1.936   2.552   5.625
29520SOL    HW290458   2.079   2.508   5.607
29521SOL     OW90459  10.641   2.663   1.704
29521SOL    HW190460  10.701   2.589   1.706
29521SOL    HW290461  10.686   2.730   1.652
29522SOL     OW90462   7.407   0.790   3.350
29522SOL    HW190463   7.384   0.783   3.443
29522SOL    HW290464   7.328   0.825   3.309
29523SOL     OW90465   1.154   6.682   9.227
29523SOL    HW190466   1.164   6.592   9.198
29523SOL    HW290467   1.243   6.713   9.243
29524SOL     OW90468   4.631   9.142   3.273
29524SOL    HW190469   4.699   9.076   3.256
29524SOL    HW290470   4.665   9.193   3.346
29525SOL     OW90471   7.405   2.097   3.165
29525SOL    HW190472   7.331   2.118   3.222
29525SOL    HW290473   7.442   2.182   3.141
29526SOL     OW90474   3.253  14.544   2.019
29526SOL    HW190475   3.308  14.469   1.998
29526SOL    HW290476   3.241  14.538   2.114
29527SOL     OW90477  11.453   0.643  12.850
29527SOL    HW190478  11.449   0.612  12.941
29527SOL    HW290479  11.518   0.713  12.851
29528SOL     OW90480   9.588   8.664  13.241
29528SOL    HW190481   9.631   8.619  13.314
29528SOL    HW290482   9.590   8.600  13.169
29529SOL     OW90483  10.177  10.360  11.546
29529SOL    HW190484  10.134  10.445  11.553
29529SOL    HW290485  10.161  10.332  11.455
29530SOL     OW90486  13.417  13.870  12.444
29530SOL    HW190487  13.485  13.868  12.378
29530SOL    HW290488  13.344  13.916  12.402
29531SOL     OW90489   3.942   5.487  12.105
29531SOL    HW190490   3.887   5.441  12.042
29531SOL    HW290491   3.919   5.448  12.189
29532SOL     OW90492   4.048  14.629   9.396
29532SOL    HW190493   4.129  14.679   9.388
29532SOL    HW290494   3.980  14.690   9.366
29533SOL     OW90495   2.737   4.748   9.235
29533SOL    HW190496   2.749   4.773   9.143
29533SOL    HW290497   2.826   4.741   9.269
29534SOL     OW90498   2.359  13.326   9.267
29534SOL    HW190499   2.333  13.416   9.284
29534SOL    HW290500   2.444  13.317   9.312
29535SOL     OW90501   8.141   5.605  13.413
29535SOL    HW190502   8.077   5.540  13.442
29535SOL    HW290503   8.090   5.670  13.366
29536SOL     OW90504   0.135   6.770   1.678
29536SOL    HW190505   0.064   6.825   1.645
29536SOL    HW290506   0.092   6.696   1.720
29537SOL     OW90507  13.396   8.466  11.738
29537SOL    HW190508  13.364   8.455  11.828
29537SOL    HW290509  13.483   8.505  11.748
29538SOL     OW90510   4.015   8.964  11.318
29538SOL    HW190511   4.021   8.881  11.365
29538SOL    HW290512   4.028   8.940  11.226
29539SOL     OW90513  12.839   9.453  12.036
29539SOL    HW190514  12.858   9.506  12.114
29539SOL    HW290515  12.824   9.365  12.070
29540SOL     OW90516   8.968  14.186   7.092
29540SOL    HW190517   8.960  14.277   7.064
29540SOL    HW290518   8.941  14.135   7.017
29541SOL     OW90519   6.062   9.393  12.148
29541SOL    HW190520   6.138   9.416  12.200
29541SOL    HW290521   5.996   9.366  12.212
29542SOL     OW90522   6.805  13.510   2.331
29542SOL    HW190523   6.797  13.416   2.348
29542SOL    HW290524   6.883  13.536   2.380
29543SOL     OW90525   2.288   6.743   4.182
29543SOL    HW190526   2.272   6.807   4.113
29543SOL    HW290527   2.202   6.707   4.202
29544SOL     OW90528  14.054   4.450   5.048
29544SOL    HW190529  14.012   4.458   5.134
29544SOL    HW290530  14.024   4.365   5.015
29545SOL     OW90531  12.438  10.823  12.725
29545SOL    HW190532  12.493  10.830  12.647
29545SOL    HW290533  12.349  10.834  12.692
29546SOL     OW90534   4.939   1.747  14.838
29546SOL    HW190535   4.846   1.771  14.830
29546SOL    HW290536   4.938   1.653  14.854
29547SOL     OW90537   8.875  14.855  13.529
29547SOL    HW190538   8.839   0.040  13.459
29547SOL    HW290539   8.842   0.026  13.609
29548SOL     OW90540  12.091   4.963  12.731
29548SOL    HW190541  12.160   5.028  12.742
29548SOL    HW290542  12.040   4.994  12.656
29549SOL     OW90543   9.119   7.855   0.775
29549SOL    HW190544   9.170   7.936   0.782
29549SOL    HW290545   9.095   7.833   0.865
29550SOL     OW90546  12.534   4.800   3.951
29550SOL    HW190547  12.564   4.798   4.041
29550SOL    HW290548  12.490   4.716   3.938
29551SOL     OW90549  11.319   4.173   3.091
29551SOL    HW190550  11.242   4.187   3.036
29551SOL    HW290551  11.389   4.221   3.046
29552SOL     OW90552   7.291   9.117   5.855
29552SOL    HW190553   7.282   9.102   5.761
29552SOL    HW290554   7.269   9.032   5.895
29553SOL     OW90555  14.138   3.530   3.649
29553SOL    HW190556  14.067   3.552   3.589
29553SOL    HW290557  14.119   3.580   3.729
29554SOL     OW90558   5.934   7.940  12.236
29554SOL    HW190559   5.961   8.030  12.218
29554SOL    HW290560   6.000   7.886  12.192
29555SOL     OW90561  14.441   1.769  14.458
29555SOL    HW190562  14.381   1.718  14.511
29555SOL    HW290563  14.391   1.790  14.379
29556SOL     OW90564   9.541   7.377   1.136
29556SOL    HW190565   9.586   7.358   1.053
29556SOL    HW290566   9.553   7.471   1.149
29557SOL     OW90567   6.765  12.311   2.381
29557SOL    HW190568   6.800  12.313   2.293
29557SOL    HW290569   6.813  12.380   2.428
29558SOL     OW90570   6.857  14.513  11.202
29558SOL    HW190571   6.874  14.606  11.221
29558SOL    HW290572   6.889  14.467  11.280
29559SOL     OW90573   1.725   6.832  12.756
29559SOL    HW190574   1.730   6.854  12.663
29559SOL    HW290575   1.783   6.757  12.767
29560SOL     OW90576   1.779   7.595  12.107
29560SOL    HW190577   1.751   7.660  12.171
29560SOL    HW290578   1.723   7.519  12.124
29561SOL     OW90579   2.946   2.468  10.472
29561SOL    HW190580   3.008   2.517  10.417
29561SOL    HW290581   2.995   2.446  10.550
29562SOL     OW90582   4.817   3.841  10.616
29562SOL    HW190583   4.872   3.762  10.617
29562SOL    HW290584   4.807   3.864  10.708
29563SOL     OW90585  12.618   5.124  14.670
29563SOL    HW190586  12.669   5.070  14.730
29563SOL    HW290587  12.604   5.069  14.593
29564SOL     OW90588  11.849  10.546  10.713
29564SOL    HW190589  11.937  10.524  10.744
29564SOL    HW290590  11.833  10.634  10.748
29565SOL     OW90591  10.530   4.379   3.624
29565SOL    HW190592  10.518   4.314   3.694
29565SOL    HW290593  10.475   4.347   3.552
29566SOL     OW90594   5.023   2.190   4.139
29566SOL    HW190595   4.960   2.122   4.164
29566SOL    HW290596   4.980   2.272   4.161
29567SOL     OW90597   4.549   6.761  10.056
29567SOL    HW190598   4.471   6.778  10.108
29567SOL    HW290599   4.573   6.846  10.020
29568SOL     OW90600   4.661  10.701   5.777
29568SOL    HW190601   4.721  10.667   5.711
29568SOL    HW290602   4.575  10.671   5.750
29569SOL     OW90603  10.881   2.692   9.392
29569SOL    HW190604  10.953   2.754   9.405
29569SOL    HW290605  10.924   2.608   9.374
29570SOL     OW90606   6.477  14.229   0.117
29570SOL    HW190607   6.555  14.278   0.141
29570SOL    HW290608   6.496  14.195   0.029
29571SOL     OW90609   6.838   4.730   1.135
29571SOL    HW190610   6.884   4.687   1.063
29571SOL    HW290611   6.896   4.801   1.161
29572SOL     OW90612   6.855   3.324  12.606
29572SOL    HW190613   6.931   3.380  12.588
29572SOL    HW290614   6.787   3.384  12.636
29573SOL     OW90615   8.870   3.894   4.710
29573SOL    HW190616   8.963   3.913   4.704
29573SOL    HW290617   8.845   3.921   4.798
29574SOL     OW90618   3.128  12.111   0.508
29574SOL    HW190619   3.139  12.079   0.598
29574SOL    HW290620   3.114  12.206   0.519
29575SOL     OW90621   9.254  11.741   6.050
29575SOL    HW190622   9.158  11.745   6.047
29575SOL    HW290623   9.273  11.691   6.129
29576SOL     OW90624   0.414  13.223   7.273
29576SOL    HW190625   0.440  13.136   7.243
29576SOL    HW290626   0.386  13.269   7.193
29577SOL     OW90627   0.521  13.651  11.773
29577SOL    HW190628   0.554  13.652  11.863
29577SOL    HW290629   0.433  13.689  11.779
29578SOL     OW90630  13.351   1.253   9.982
29578SOL    HW190631  13.402   1.333   9.967
29578SOL    HW290632  13.417   1.183   9.986
29579SOL     OW90633   5.492   7.346   1.933
29579SOL    HW190634   5.416   7.308   1.889
29579SOL    HW290635   5.479   7.441   1.925
29580SOL     OW90636  10.704   5.697   4.452
29580SOL    HW190637  10.766   5.687   4.379
29580SOL    HW290638  10.710   5.790   4.475
29581SOL     OW90639  14.608   6.180   0.554
29581SOL    HW190640  14.600   6.099   0.503
29581SOL    HW290641  14.524   6.224   0.543
29582SOL     OW90642  12.073   2.231   9.652
29582SOL    HW190643  12.119   2.175   9.713
29582SOL    HW290644  12.107   2.207   9.566
29583SOL     OW90645   4.370  12.716  10.974
29583SOL    HW190646   4.396  12.647  11.035
29583SOL    HW290647   4.311  12.672  10.913
29584SOL     OW90648   0.474  12.600   3.705
29584SOL    HW190649   0.417  12.535   3.664
29584SOL    HW290650   0.497  12.562   3.790
29585SOL     OW90651   5.958   2.592   7.492
29585SOL    HW190652   5.935   2.652   7.564
29585SOL    HW290653   5.875   2.551   7.468
29586SOL     OW90654  13.093   3.979   6.643
29586SOL    HW190655  13.109   3.928   6.564
29586SOL    HW290656  13.012   4.028   6.624
29587SOL     OW90657   9.984   0.143   0.239
29587SOL    HW190658   9.902   0.128   0.288
29587SOL    HW290659   9.957   0.146   0.148
29588SOL     OW90660   4.382  14.858   8.148
29588SOL    HW190661   4.318  14.793   8.179
29588SOL    HW290662   4.437  14.810   8.086
29589SOL     OW90663   1.656   9.541   0.215
29589SOL    HW190664   1.690   9.495   0.138
29589SOL    HW290665   1.644   9.631   0.186
29590SOL     OW90666   9.018   1.737   8.379
29590SOL    HW190667   9.073   1.797   8.328
29590SOL    HW290668   8.985   1.674   8.315
29591SOL     OW90669   1.151  10.256   6.324
29591SOL    HW190670   1.197  10.206   6.257
29591SOL    HW290671   1.176  10.347   6.307
29592SOL     OW90672   9.714   1.793  11.466
29592SOL    HW190673   9.678   1.710  11.498
29592SOL    HW290674   9.766   1.768  11.390
29593SOL     OW90675   7.783   0.847   4.407
29593SOL    HW190676   7.811   0.767   4.452
29593SOL    HW290677   7.844   0.856   4.334
29594SOL     OW90678   1.486   1.677  14.164
29594SOL    HW190679   1.497   1.587  14.133
29594SOL    HW290680   1.507   1.731  14.088
29595SOL     OW90681   3.795  13.929  14.612
29595SOL    HW190682   3.884  13.904  14.589
29595SOL    HW290683   3.806  13.996  14.680
29596SOL     OW90684   3.049   1.204   2.340
29596SOL    HW190685   3.065   1.134   2.276
29596SOL    HW290686   3.043   1.158   2.423
29597SOL     OW90687   3.272   1.802   2.599
29597SOL    HW190688   3.355   1.757   2.581
29597SOL    HW290689   3.247   1.771   2.686
29598SOL     OW90690   7.987  13.127   0.515
29598SOL    HW190691   8.007  13.118   0.609
29598SOL    HW290692   7.896  13.100   0.508
29599SOL     OW90693   8.937  12.603   4.070
29599SOL    HW190694   8.941  12.508   4.061
29599SOL    HW290695   8.885  12.632   3.995
29600SOL     OW90696   6.611   2.919  13.489
29600SOL    HW190697   6.616   2.890  13.398
29600SOL    HW290698   6.557   2.853  13.532
29601SOL     OW90699   2.954  11.762   7.479
29601SOL    HW190700   3.017  11.778   7.550
29601SOL    HW290701   3.007  11.721   7.410
29602SOL     OW90702   5.530   9.602   2.466
29602SOL    HW190703   5.450   9.551   2.480
29602SOL    HW290704   5.512   9.686   2.510
29603SOL     OW90705   9.421   4.994   2.223
29603SOL    HW190706   9.516   4.986   2.229
29603SOL    HW290707   9.406   5.088   2.215
29604SOL     OW90708   1.778  14.550  13.281
29604SOL    HW190709   1.822  14.530  13.364
29604SOL    HW290710   1.834  14.615  13.239
29605SOL     OW90711   0.847  14.302   4.881
29605SOL    HW190712   0.930  14.287   4.925
29605SOL    HW290713   0.839  14.229   4.820
29606SOL     OW90714   9.654   8.141   1.621
29606SOL    HW190715   9.650   8.215   1.561
29606SOL    HW290716   9.666   8.065   1.564
29607SOL     OW90717   8.255  11.552   6.427
29607SOL    HW190718   8.296  11.577   6.343
29607SOL    HW290719   8.178  11.501   6.401
29608SOL     OW90720   4.647   6.506   1.322
29608SOL    HW190721   4.693   6.563   1.261
29608SOL    HW290722   4.687   6.420   1.308
29609SOL     OW90723  12.549   8.654  12.963
29609SOL    HW190724  12.564   8.646  12.868
29609SOL    HW290725  12.577   8.569  12.998
29610SOL     OW90726  14.358   5.780   8.665
29610SOL    HW190727  14.278   5.734   8.639
29610SOL    HW290728  14.426   5.743   8.609
29611SOL     OW90729   4.814  13.587  10.958
29611SOL    HW190730   4.797  13.529  11.032
29611SOL    HW290731   4.744  13.652  10.962
29612SOL     OW90732   3.852  14.485  12.431
29612SOL    HW190733   3.763  14.516  12.448
29612SOL    HW290734   3.850  14.455  12.340
29613SOL     OW90735   6.162   3.089   7.991
29613SOL    HW190736   6.143   3.163   8.049
29613SOL    HW290737   6.077   3.066   7.953
29614SOL     OW90738  13.645   5.111   6.699
29614SOL    HW190739  13.645   5.130   6.605
29614SOL    HW290740  13.557   5.134   6.729
29615SOL     OW90741   4.103   7.851   9.027
29615SOL    HW190742   4.122   7.938   9.062
29615SOL    HW290743   4.045   7.868   8.952
29616SOL     OW90744  13.093   1.609  13.754
29616SOL    HW190745  13.100   1.665  13.677
29616SOL    HW290746  13.183   1.589  13.779
29617SOL     OW90747  13.668  10.898   7.133
29617SOL    HW190748  13.657  10.815   7.179
29617SOL    HW290749  13.746  10.885   7.079
29618SOL     OW90750   1.599   5.721   7.318
29618SOL    HW190751   1.578   5.718   7.225
29618SOL    HW290752   1.660   5.794   7.327
29619SOL     OW90753   3.835  13.996  13.041
29619SOL    HW190754   3.928  14.012  13.023
29619SOL    HW290755   3.805  13.944  12.966
29620SOL     OW90756   8.036  10.688   2.177
29620SOL    HW190757   8.117  10.638   2.187
29620SOL    HW290758   7.999  10.692   2.266
29621SOL     OW90759   5.045  10.769  13.103
29621SOL    HW190760   4.997  10.756  13.185
29621SOL    HW290761   5.048  10.682  13.064
29622SOL     OW90762  13.870   9.706  10.366
29622SOL    HW190763  13.867   9.707  10.270
29622SOL    HW290764  13.863   9.613  10.389
29623SOL     OW90765   7.528  11.022   2.952
29623SOL    HW190766   7.474  11.017   2.874
29623SOL    HW290767   7.566  10.934   2.961
29624SOL     OW90768   8.904  12.423   9.041
29624SOL    HW190769   8.932  12.332   9.026
29624SOL    HW290770   8.932  12.470   8.963
29625SOL     OW90771   6.603   0.851   9.090
29625SOL    HW190772   6.591   0.944   9.075
29625SOL    HW290773   6.514   0.815   9.089
29626SOL     OW90774  13.801   6.017   1.727
29626SOL    HW190775  13.724   6.064   1.760
29626SOL    HW290776  13.786   6.012   1.632
29627SOL     OW90777   5.964   3.802  13.904
29627SOL    HW190778   5.908   3.879  13.894
29627SOL    HW290779   6.052   3.834  13.887
29628SOL     OW90780  12.430   0.943   2.435
29628SOL    HW190781  12.415   0.892   2.514
29628SOL    HW290782  12.522   0.927   2.413
29629SOL     OW90783  14.242   1.344  14.490
29629SOL    HW190784  14.304   1.281  14.527
29629SOL    HW290785  14.166   1.290  14.465
29630SOL     OW90786  12.480   0.602  10.764
29630SOL    HW190787  12.545   0.591  10.694
29630SOL    HW290788  12.443   0.515  10.777
29631SOL     OW90789   2.818  10.663   2.017
29631SOL    HW190790   2.863  10.579   2.026
29631SOL    HW290791   2.795  10.686   2.107
29632SOL     OW90792   6.981  10.084  14.302
29632SOL    HW190793   7.018   9.999  14.327
29632SOL    HW290794   6.942  10.118  14.383
29633SOL     OW90795   3.440  13.665   2.861
29633SOL    HW190796   3.430  13.573   2.836
29633SOL    HW290797   3.531  13.686   2.840
29634SOL     OW90798  14.703   4.981  14.043
29634SOL    HW190799  14.713   5.050  13.977
29634SOL    HW290800  14.733   5.021  14.124
29635SOL     OW90801   0.437   8.188   5.718
29635SOL    HW190802   0.429   8.144   5.633
29635SOL    HW290803   0.483   8.270   5.698
29636SOL     OW90804   8.234  10.881  11.072
29636SOL    HW190805   8.194  10.806  11.030
29636SOL    HW290806   8.177  10.955  11.050
29637SOL     OW90807   0.594   8.885   8.216
29637SOL    HW190808   0.654   8.811   8.228
29637SOL    HW290809   0.567   8.880   8.124
29638SOL     OW90810   6.044  10.910   3.734
29638SOL    HW190811   6.024  11.003   3.725
29638SOL    HW290812   5.970  10.874   3.782
29639SOL     OW90813   2.453   7.144   9.860
29639SOL    HW190814   2.532   7.160   9.809
29639SOL    HW290815   2.432   7.052   9.845
29640SOL     OW90816   8.694   2.127   7.684
29640SOL    HW190817   8.761   2.060   7.680
29640SOL    HW290818   8.738   2.203   7.721
29641SOL     OW90819  12.936  11.661  13.256
29641SOL    HW190820  12.937  11.595  13.325
29641SOL    HW290821  12.886  11.734  13.294
29642SOL     OW90822   9.710  11.851  11.780
29642SOL    HW190823   9.730  11.866  11.872
29642SOL    HW290824   9.749  11.926  11.734
29643SOL     OW90825   8.338   6.253   6.826
29643SOL    HW190826   8.390   6.329   6.851
29643SOL    HW290827   8.363   6.184   6.887
29644SOL     OW90828   4.461   1.694  13.238
29644SOL    HW190829   4.383   1.722  13.286
29644SOL    HW290830   4.431   1.621  13.184
29645SOL     OW90831  10.664   2.976  11.719
29645SOL    HW190832  10.607   3.044  11.684
29645SOL    HW290833  10.726   3.022  11.774
29646SOL     OW90834   3.735  10.275  13.178
29646SOL    HW190835   3.826  10.303  13.167
29646SOL    HW290836   3.701  10.332  13.247
29647SOL     OW90837  11.304  12.969   8.054
29647SOL    HW190838  11.242  12.904   8.020
29647SOL    HW290839  11.266  12.995   8.138
29648SOL     OW90840  13.316  12.600   0.519
29648SOL    HW190841  13.271  12.646   0.448
29648SOL    HW290842  13.330  12.512   0.486
29649SOL     OW90843  12.785   6.467  11.054
29649SOL    HW190844  12.736   6.544  11.026
29649SOL    HW290845  12.769   6.462  11.148
29650SOL     OW90846  11.985   4.366  12.610
29650SOL    HW190847  11.912   4.310  12.584
29650SOL    HW290848  12.016   4.405  12.529
29651SOL     OW90849   4.561  13.468   2.708
29651SOL    HW190850   4.520  13.443   2.790
29651SOL    HW290851   4.583  13.386   2.665
29652SOL     OW90852   3.000  13.242   5.505
29652SOL    HW190853   2.970  13.200   5.586
29652SOL    HW290854   2.954  13.325   5.503
29653SOL     OW90855   4.335  14.426   7.101
29653SOL    HW190856   4.269  14.367   7.137
29653SOL    HW290857   4.358  14.388   7.016
29654SOL     OW90858  13.925  10.510   2.926
29654SOL    HW190859  13.989  10.569   2.886
29654SOL    HW290860  13.930  10.530   3.020
29655SOL     OW90861  14.617   0.806   2.585
29655SOL    HW190862  14.705   0.795   2.548
29655SOL    HW290863  14.560   0.757   2.526
29656SOL     OW90864  12.160   7.819   9.878
29656SOL    HW190865  12.243   7.860   9.851
29656SOL    HW290866  12.178   7.786   9.966
29657SOL     OW90867  10.037   1.650   1.988
29657SOL    HW190868   9.958   1.651   2.042
29657SOL    HW290869  10.028   1.571   1.934
29658SOL     OW90870   5.764   1.622   5.141
29658SOL    HW190871   5.763   1.716   5.159
29658SOL    HW290872   5.834   1.588   5.197
29659SOL     OW90873  10.736  10.958   6.574
29659SOL    HW190874  10.692  10.988   6.494
29659SOL    HW290875  10.684  10.995   6.645
29660SOL     OW90876   6.772   7.213  14.528
29660SOL    HW190877   6.719   7.245  14.456
29660SOL    HW290878   6.791   7.122  14.505
29661SOL     OW90879  11.641   5.814   5.609
29661SOL    HW190880  11.596   5.739   5.648
29661SOL    HW290881  11.572   5.879   5.595
29662SOL     OW90882   1.877   4.368   8.154
29662SOL    HW190883   1.830   4.323   8.084
29662SOL    HW290884   1.854   4.319   8.234
29663SOL     OW90885   6.397  13.756   3.309
29663SOL    HW190886   6.435  13.842   3.292
29663SOL    HW290887   6.459  13.713   3.368
29664SOL     OW90888   3.054   9.388  13.981
29664SOL    HW190889   2.982   9.371  14.041
29664SOL    HW290890   3.065   9.307  13.932
29665SOL     OW90891  11.588   7.809   6.633
29665SOL    HW190892  11.558   7.728   6.591
29665SOL    HW290893  11.649   7.780   6.700
29666SOL     OW90894   7.553  13.986   7.680
29666SOL    HW190895   7.604  13.909   7.653
29666SOL    HW290896   7.535  14.032   7.599
29667SOL     OW90897   2.833   4.334   2.302
29667SOL    HW190898   2.796   4.273   2.365
29667SOL    HW290899   2.825   4.420   2.344
29668SOL     OW90900  13.020   7.188   3.206
29668SOL    HW190901  12.989   7.107   3.245
29668SOL    HW290902  13.088   7.219   3.266
29669SOL     OW90903  10.026  13.652   7.147
29669SOL    HW190904   9.982  13.734   7.169
29669SOL    HW290905   9.960  13.585   7.161
29670SOL     OW90906  11.458  12.383  11.559
29670SOL    HW190907  11.370  12.409  11.586
29670SOL    HW290908  11.444  12.308  11.501
29671SOL     OW90909   3.486   9.796   3.619
29671SOL    HW190910   3.499   9.776   3.526
29671SOL    HW290911   3.441   9.719   3.654
29672SOL     OW90912   8.904  14.867   8.486
29672SOL    HW190913   8.907   0.089   8.513
29672SOL    HW290914   8.966  14.823   8.545
29673SOL     OW90915  10.526   9.650  13.846
29673SOL    HW190916  10.608   9.601  13.855
29673SOL    HW290917  10.491   9.624  13.760
29674SOL     OW90918   2.690  14.591  10.078
29674SOL    HW190919   2.643  14.527  10.025
29674SOL    HW290920   2.697  14.668  10.022
29675SOL     OW90921   5.260  11.290   3.676
29675SOL    HW190922   5.189  11.238   3.712
29675SOL    HW290923   5.263  11.267   3.583
29676SOL     OW90924   5.508  14.294  13.462
29676SOL    HW190925   5.462  14.356  13.405
29676SOL    HW290926   5.480  14.208  13.430
29677SOL     OW90927  11.918   0.580   2.233
29677SOL    HW190928  11.967   0.591   2.314
29677SOL    HW290929  11.932   0.489   2.208
29678SOL     OW90930   1.023   9.025   1.997
29678SOL    HW190931   0.963   9.039   1.924
29678SOL    HW290932   1.110   9.023   1.957
29679SOL     OW90933  10.268   8.982   8.603
29679SOL    HW190934  10.363   8.982   8.591
29679SOL    HW290935  10.232   8.973   8.515
29680SOL     OW90936   0.000   0.554  11.288
29680SOL    HW190937  14.825   0.511  11.361
29680SOL    HW290938  14.803   0.610  11.248
29681SOL     OW90939  12.676  11.480   0.684
29681SOL    HW190940  12.604  11.420   0.665
29681SOL    HW290941  12.711  11.503   0.598
29682SOL     OW90942   2.750   9.384   5.633
29682SOL    HW190943   2.785   9.383   5.544
29682SOL    HW290944   2.803   9.321   5.681
29683SOL     OW90945  13.922  10.249  11.282
29683SOL    HW190946  13.905  10.173  11.227
29683SOL    HW290947  13.912  10.324  11.223
29684SOL     OW90948  14.310   1.825  10.467
29684SOL    HW190949  14.384   1.886  10.461
29684SOL    HW290950  14.340   1.747  10.422
29685SOL     OW90951   9.953   1.601   5.750
29685SOL    HW190952  10.042   1.610   5.784
29685SOL    HW290953   9.953   1.650   5.668
29686SOL     OW90954  10.795   7.233  13.519
29686SOL    HW190955  10.749   7.257  13.600
29686SOL    HW290956  10.825   7.317  13.484
29687SOL     OW90957   0.900   3.149  10.330
29687SOL    HW190958   0.812   3.151  10.367
29687SOL    HW290959   0.892   3.195  10.246
29688SOL     OW90960   3.802   2.779   1.859
29688SOL    HW190961   3.778   2.744   1.944
29688SOL    HW290962   3.842   2.864   1.878
29689SOL     OW90963   3.975   9.628  11.982
29689SOL    HW190964   4.008   9.570  11.913
29689SOL    HW290965   3.919   9.691  11.937
29690SOL     OW90966   3.785  13.296   9.812
29690SOL    HW190967   3.750  13.222   9.762
29690SOL    HW290968   3.842  13.342   9.750
29691SOL     OW90969   7.422  13.737  11.360
29691SOL    HW190970   7.412  13.820  11.407
29691SOL    HW290971   7.513  13.712  11.375
29692SOL     OW90972  12.090   2.226   5.232
29692SOL    HW190973  12.064   2.317   5.226
29692SOL    HW290974  12.009   2.177   5.216
29693SOL     OW90975  13.513   5.222  14.509
29693SOL    HW190976  13.588   5.172  14.476
29693SOL    HW290977  13.469   5.162  14.569
29694SOL     OW90978  10.927   9.708   7.449
29694SOL    HW190979  10.860   9.649   7.482
29694SOL    HW290980  10.994   9.650   7.411
29695SOL     OW90981   8.357   0.470   9.722
29695SOL    HW190982   8.284   0.409   9.724
29695SOL    HW290983   8.408   0.444   9.645
29696SOL     OW90984   0.690  13.067   3.654
29696SOL    HW190985   0.697  13.159   3.628
29696SOL    HW290986   0.601  13.058   3.687
29697SOL     OW90987   8.278  12.438   1.239
29697SOL    HW190988   8.237  12.442   1.153
29697SOL    HW290989   8.244  12.515   1.285
29698SOL     OW90990  11.276   4.115   4.874
29698SOL    HW190991  11.277   4.062   4.953
29698SOL    HW290992  11.252   4.203   4.904
29699SOL     OW90993  13.949   7.681   8.368
29699SOL    HW190994  14.034   7.701   8.329
29699SOL    HW290995  13.903   7.629   8.302
29700SOL     OW90996   3.896   6.761   7.348
29700SOL    HW190997   3.874   6.669   7.353
29700SOL    HW290998   3.951   6.777   7.425
29701SOL     OW90999  13.656   6.922   5.070
29701SOL    HW191000  13.620   6.888   5.152
29701SOL    HW291001  13.579   6.950   5.020
29702SOL     OW91002   8.683   7.971   4.877
29702SOL    HW191003   8.602   8.021   4.882
29702SOL    HW291004   8.664   7.901   4.814
29703SOL     OW91005   6.136   0.205   9.994
29703SOL    HW191006   6.134   0.128  10.051
29703SOL    HW291007   6.160   0.170   9.908
29704SOL     OW91008   0.259   2.896  10.671
29704SOL    HW191009   0.307   2.950  10.608
29704SOL    HW291010   0.200   2.957  10.714
29705SOL     OW91011   7.202   2.617  14.096
29705SOL    HW191012   7.289   2.617  14.056
29705SOL    HW291013   7.171   2.527  14.088
29706SOL     OW91014  10.074   0.610   7.186
29706SOL    HW191015   9.995   0.639   7.142
29706SOL    HW291016  10.139   0.678   7.168
29707SOL     OW91017   7.556  10.109   8.280
29707SOL    HW191018   7.550  10.191   8.329
29707SOL    HW291019   7.628  10.061   8.321
29708SOL     OW91020   0.291   6.496   2.980
29708SOL    HW191021   0.299   6.564   2.913
29708SOL    HW291022   0.351   6.427   2.951
29709SOL     OW91023   5.917   9.462  13.508
29709SOL    HW191024   5.996   9.440  13.459
29709SOL    HW291025   5.941   9.449  13.600
29710SOL     OW91026   1.111   6.574   5.833
29710SOL    HW191027   1.170   6.594   5.760
29710SOL    HW291028   1.157   6.606   5.910
29711SOL     OW91029   2.636  14.059   5.532
29711SOL    HW191030   2.605  14.109   5.608
29711SOL    HW291031   2.723  14.094   5.514
29712SOL     OW91032  13.194   4.026  13.545
29712SOL    HW191033  13.227   3.936  13.541
29712SOL    HW291034  13.272   4.080  13.558
29713SOL     OW91035   6.507   9.137   7.724
29713SOL    HW191036   6.472   9.192   7.794
29713SOL    HW291037   6.522   9.197   7.651
29714SOL     OW91038  13.562  10.194   9.308
29714SOL    HW191039  13.657  10.195   9.316
29714SOL    HW291040  13.539  10.280   9.274
29715SOL     OW91041   7.753   4.385  10.273
29715SOL    HW191042   7.834   4.384  10.323
29715SOL    HW291043   7.767   4.451  10.205
29716SOL     OW91044  10.703   1.250   5.904
29716SOL    HW191045  10.725   1.187   5.973
29716SOL    HW291046  10.609   1.239   5.891
29717SOL     OW91047   1.916   6.033   9.643
29717SOL    HW191048   1.946   6.060   9.556
29717SOL    HW291049   1.971   5.958   9.665
29718SOL     OW91050   7.541  10.484   5.921
29718SOL    HW191051   7.521  10.535   5.999
29718SOL    HW291052   7.459  10.440   5.899
29719SOL     OW91053   1.752   6.446  13.333
29719SOL    HW191054   1.696   6.501  13.279
29719SOL    HW291055   1.829   6.499  13.350
29720SOL     OW91056  11.624   6.662   8.659
29720SOL    HW191057  11.690   6.683   8.725
29720SOL    HW291058  11.561   6.733   8.664
29721SOL     OW91059   8.385  13.738  10.226
29721SOL    HW191060   8.470  13.696  10.235
29721SOL    HW291061   8.364  13.731  10.133
29722SOL     OW91062  14.262   7.760   3.146
29722SOL    HW191063  14.193   7.807   3.191
29722SOL    HW291064  14.263   7.797   3.058
29723SOL     OW91065   2.337  11.954   8.660
29723SOL    HW191066   2.426  11.981   8.636
29723SOL    HW291067   2.281  12.023   8.627
29724SOL     OW91068   8.490   5.277  10.224
29724SOL    HW191069   8.575   5.246  10.255
29724SOL    HW291070   8.426   5.224  10.272
29725SOL     OW91071   0.692   8.292   8.497
29725SOL    HW191072   0.657   8.229   8.560
29725SOL    HW291073   0.769   8.329   8.540
29726SOL     OW91074   9.937  10.859  12.789
29726SOL    HW191075   9.912  10.951  12.775
29726SOL    HW291076   9.954  10.853  12.883
29727SOL     OW91077   4.111   3.697   2.040
29727SOL    HW191078   4.160   3.686   1.959
29727SOL    HW291079   4.158   3.644   2.105
29728SOL     OW91080   8.759   4.702   6.725
29728SOL    HW191081   8.806   4.727   6.804
29728SOL    HW291082   8.743   4.785   6.679
29729SOL     OW91083  14.076   6.557   0.595
29729SOL    HW191084  14.169   6.553   0.576
29729SOL    HW291085  14.045   6.467   0.587
29730SOL     OW91086  12.948   3.102   8.822
29730SOL    HW191087  12.904   3.187   8.814
29730SOL    HW291088  12.941   3.064   8.735
29731SOL     OW91089  13.852   2.311  13.921
29731SOL    HW191090  13.812   2.393  13.892
29731SOL    HW291091  13.889   2.331  14.007
29732SOL     OW91092   3.249   2.846   3.781
29732SOL    HW191093   3.182   2.810   3.723
29732SOL    HW291094   3.219   2.825   3.869
29733SOL     OW91095   4.165   5.309   4.375
29733SOL    HW191096   4.191   5.362   4.451
29733SOL    HW291097   4.218   5.344   4.303
29734SOL     OW91098  13.743  10.369   5.562
29734SOL    HW191099  13.803  10.326   5.501
29734SOL    HW291100  13.794  10.382   5.642
29735SOL     OW91101   6.811  13.351   9.619
29735SOL    HW191102   6.899  13.319   9.603
29735SOL    HW291103   6.821  13.419   9.685
29736SOL     OW91104   7.399   7.308   4.858
29736SOL    HW191105   7.425   7.300   4.950
29736SOL    HW291106   7.459   7.249   4.811
29737SOL     OW91107   6.397   7.820   3.100
29737SOL    HW191108   6.317   7.781   3.135
29737SOL    HW291109   6.412   7.775   3.017
29738SOL     OW91110   6.868   9.672  13.028
29738SOL    HW191111   6.906   9.754  12.997
29738SOL    HW291112   6.824   9.636  12.951
29739SOL     OW91113  12.334  12.846  14.357
29739SOL    HW191114  12.244  12.825  14.379
29739SOL    HW291115  12.385  12.813  14.431
29740SOL     OW91116   0.199  12.865  11.316
29740SOL    HW191117   0.203  12.859  11.411
29740SOL    HW291118   0.289  12.886  11.289
29741SOL     OW91119  11.701   1.841   1.119
29741SOL    HW191120  11.784   1.871   1.155
29741SOL    HW291121  11.723   1.807   1.033
29742SOL     OW91122   0.855   7.555   1.031
29742SOL    HW191123   0.911   7.562   0.954
29742SOL    HW291124   0.776   7.604   1.008
29743SOL     OW91125   1.916   8.774  10.989
29743SOL    HW191126   1.866   8.835  11.044
29743SOL    HW291127   1.850   8.715  10.953
29744SOL     OW91128  11.265   4.831  11.289
29744SOL    HW191129  11.260   4.766  11.219
29744SOL    HW291130  11.357   4.829  11.316
29745SOL     OW91131   2.845   2.486  11.370
29745SOL    HW191132   2.879   2.566  11.410
29745SOL    HW291133   2.903   2.417  11.402
29746SOL     OW91134  10.877   9.533   5.620
29746SOL    HW191135  10.840   9.545   5.532
29746SOL    HW291136  10.959   9.487   5.605
29747SOL     OW91137   8.487   6.888   9.076
29747SOL    HW191138   8.514   6.978   9.098
29747SOL    HW291139   8.569   6.840   9.066
29748SOL     OW91140   3.882  11.288   9.928
29748SOL    HW191141   3.850  11.293  10.018
29748SOL    HW291142   3.921  11.200   9.921
29749SOL     OW91143   7.005  11.702   5.668
29749SOL    HW191144   7.092  11.706   5.710
29749SOL    HW291145   6.966  11.788   5.684
29750SOL     OW91146  12.855  10.285   2.347
29750SOL    HW191147  12.871  10.289   2.442
29750SOL    HW291148  12.833  10.375   2.323
29751SOL     OW91149   1.698   0.510   0.192
29751SOL    HW191150   1.678   0.493   0.100
29751SOL    HW291151   1.615   0.537   0.231
29752SOL     OW91152   3.534   6.286  12.114
29752SOL    HW191153   3.463   6.290  12.179
29752SOL    HW291154   3.590   6.215  12.145
29753SOL     OW91155  11.652  12.821  12.169
29753SOL    HW191156  11.596  12.802  12.244
29753SOL    HW291157  11.592  12.835  12.096
29754SOL     OW91158   4.109   5.862   4.590
29754SOL    HW191159   4.043   5.931   4.589
29754SOL    HW291160   4.071   5.793   4.643
29755SOL     OW91161  11.924   2.421   8.945
29755SOL    HW191162  11.978   2.376   9.010
29755SOL    HW291163  11.981   2.428   8.868
29756SOL     OW91164  12.496   9.168   1.401
29756SOL    HW191165  12.510   9.241   1.461
29756SOL    HW291166  12.414   9.129   1.429
29757SOL     OW91167   1.262   7.278   9.735
29757SOL    HW191168   1.238   7.358   9.781
29757SOL    HW291169   1.182   7.225   9.736
29758SOL     OW91170   7.806   5.430   0.688
29758SOL    HW191171   7.774   5.400   0.774
29758SOL    HW291172   7.750   5.505   0.667
29759SOL     OW91173   4.988  14.113   7.592
29759SOL    HW191174   5.011  14.029   7.553
29759SOL    HW291175   5.031  14.178   7.536
29760SOL     OW91176  14.137  12.911   2.050
29760SOL    HW191177  14.197  12.837   2.055
29760SOL    HW291178  14.106  12.922   2.140
29761SOL     OW91179   9.027  14.262   0.916
29761SOL    HW191180   9.022  14.167   0.903
29761SOL    HW291181   8.936  14.289   0.931
29762SOL     OW91182   1.584   9.168   6.973
29762SOL    HW191183   1.579   9.251   6.925
29762SOL    HW291184   1.568   9.192   7.064
29763SOL     OW91185  10.698  12.446  12.531
29763SOL    HW191186  10.716  12.431  12.438
29763SOL    HW291187  10.657  12.532  12.534
29764SOL     OW91188   8.137   8.352   8.327
29764SOL    HW191189   8.053   8.307   8.328
29764SOL    HW291190   8.135   8.404   8.246
29765SOL     OW91191   1.196   9.347   2.283
29765SOL    HW191192   1.143   9.427   2.278
29765SOL    HW291193   1.133   9.276   2.269
29766SOL     OW91194   7.865   9.294   1.124
29766SOL    HW191195   7.862   9.246   1.207
29766SOL    HW291196   7.774   9.298   1.095
29767SOL     OW91197   3.561   6.025   9.300
29767SOL    HW191198   3.534   6.078   9.375
29767SOL    HW291199   3.498   6.045   9.231
29768SOL     OW91200  14.600   0.689   6.151
29768SOL    HW191201  14.628   0.691   6.243
29768SOL    HW291202  14.650   0.760   6.110
29769SOL     OW91203   1.547   4.534   8.322
29769SOL    HW191204   1.611   4.587   8.275
29769SOL    HW291205   1.569   4.545   8.414
29770SOL     OW91206   8.602   3.784   1.112
29770SOL    HW191207   8.641   3.703   1.081
29770SOL    HW291208   8.607   3.778   1.208
29771SOL     OW91209   7.860  10.974   3.020
29771SOL    HW191210   7.815  11.053   3.051
29771SOL    HW291211   7.805  10.942   2.949
29772SOL     OW91212   5.997  11.642  10.451
29772SOL    HW191213   5.991  11.680  10.539
29772SOL    HW291214   6.068  11.579  10.456
29773SOL     OW91215   4.174   8.257  13.169
29773SOL    HW191216   4.158   8.163  13.175
29773SOL    HW291217   4.265   8.265  13.142
29774SOL     OW91218   0.551   9.186   4.032
29774SOL    HW191219   0.606   9.252   3.988
29774SOL    HW291220   0.480   9.169   3.970
29775SOL     OW91221   3.067   5.024  10.897
29775SOL    HW191222   3.114   4.983  10.824
29775SOL    HW291223   3.105   5.111  10.904
29776SOL     OW91224   4.144  12.892  10.596
29776SOL    HW191225   4.157  12.798  10.588
29776SOL    HW291226   4.121  12.922  10.508
29777SOL     OW91227   1.533  11.025  13.812
29777SOL    HW191228   1.560  11.083  13.741
29777SOL    HW291229   1.615  10.986  13.844
29778SOL     OW91230   3.796  13.816   0.034
29778SOL    HW191231   3.728  13.868  14.862
29778SOL    HW291232   3.825  13.755  14.835
29779SOL     OW91233   6.615   1.470  10.160
29779SOL    HW191234   6.545   1.422  10.116
29779SOL    HW291235   6.696   1.437  10.121
29780SOL     OW91236   5.567  10.840  10.869
29780SOL    HW191237   5.518  10.913  10.906
29780SOL    HW291238   5.612  10.877  10.793
29781SOL     OW91239   2.921  13.490   6.192
29781SOL    HW191240   2.990  13.528   6.246
29781SOL    HW291241   2.860  13.450   6.255
29782SOL     OW91242   2.057   9.127   6.129
29782SOL    HW191243   2.098   9.047   6.096
29782SOL    HW291244   2.011   9.164   6.054
29783SOL     OW91245   6.569   8.578   7.101
29783SOL    HW191246   6.507   8.542   7.039
29783SOL    HW291247   6.528   8.658   7.133
29784SOL     OW91248   6.482   3.747   9.811
29784SOL    HW191249   6.430   3.711   9.882
29784SOL    HW291250   6.417   3.787   9.752
29785SOL     OW91251  14.803   2.176   2.555
29785SOL    HW191252  14.723   2.126   2.544
29785SOL    HW291253  14.868   2.131   2.500
29786SOL     OW91254   8.953  11.347   0.107
29786SOL    HW191255   9.010  11.358   0.031
29786SOL    HW291256   8.919  11.435   0.124
29787SOL     OW91257  13.706   4.567  10.534
29787SOL    HW191258  13.782   4.531  10.489
29787SOL    HW291259  13.720   4.544  10.626
29788SOL     OW91260   3.291  13.519  12.320
29788SOL    HW191261   3.329  13.580  12.383
29788SOL    HW291262   3.311  13.556  12.234
29789SOL     OW91263   2.591   3.875  12.678
29789SOL    HW191264   2.592   3.922  12.594
29789SOL    HW291265   2.502   3.839  12.683
29790SOL     OW91266   0.137   5.240   4.508
29790SOL    HW191267   0.201   5.214   4.441
29790SOL    HW291268   0.089   5.159   4.527
29791SOL     OW91269   9.300   2.803  13.093
29791SOL    HW191270   9.316   2.892  13.125
29791SOL    HW291271   9.387   2.762  13.093
29792SOL     OW91272   9.575  10.712  10.736
29792SOL    HW191273   9.491  10.667  10.724
29792SOL    HW291274   9.614  10.715  10.648
29793SOL     OW91275  12.611   3.241   9.091
29793SOL    HW191276  12.586   3.330   9.067
29793SOL    HW291277  12.595   3.189   9.012
29794SOL     OW91278  11.182   4.666   8.378
29794SOL    HW191279  11.189   4.593   8.317
29794SOL    HW291280  11.220   4.740   8.330
29795SOL     OW91281   3.662  13.632  14.253
29795SOL    HW191282   3.645  13.694  14.324
29795SOL    HW291283   3.629  13.675  14.174
29796SOL     OW91284   1.851   4.276   1.593
29796SOL    HW191285   1.940   4.242   1.586
29796SOL    HW291286   1.834   4.279   1.688
29797SOL     OW91287   0.251   1.045   3.731
29797SOL    HW191288   0.187   1.024   3.799
29797SOL    HW291289   0.209   1.115   3.680
29798SOL     OW91290   5.111  10.863  13.893
29798SOL    HW191291   5.091  10.770  13.900
29798SOL    HW291292   5.033  10.907  13.927
29799SOL     OW91293   2.610  10.328   2.684
29799SOL    HW191294   2.577  10.240   2.668
29799SOL    HW291295   2.589  10.344   2.776
29800SOL     OW91296   7.521   0.227   3.891
29800SOL    HW191297   7.462   0.285   3.939
29800SOL    HW291298   7.581   0.285   3.844
29801SOL     OW91299   4.602   8.504  12.471
29801SOL    HW191300   4.678   8.553  12.438
29801SOL    HW291301   4.637   8.418  12.493
29802SOL     OW91302   5.652   2.600   4.192
29802SOL    HW191303   5.677   2.670   4.252
29802SOL    HW291304   5.719   2.602   4.123
29803SOL     OW91305  10.338   7.277   1.167
29803SOL    HW191306  10.340   7.365   1.203
29803SOL    HW291307  10.245   7.255   1.162
29804SOL     OW91308  14.460   1.549   7.004
29804SOL    HW191309  14.526   1.495   6.960
29804SOL    HW291310  14.484   1.545   7.096
29805SOL     OW91311   8.327   1.570   4.731
29805SOL    HW191312   8.321   1.581   4.636
29805SOL    HW291313   8.237   1.552   4.758
29806SOL     OW91314   6.541  13.987  12.654
29806SOL    HW191315   6.624  14.015  12.693
29806SOL    HW291316   6.517  14.058  12.595
29807SOL     OW91317   1.401   8.170  10.438
29807SOL    HW191318   1.424   8.180  10.531
29807SOL    HW291319   1.306   8.167  10.438
29808SOL     OW91320   5.441  11.608   4.124
29808SOL    HW191321   5.447  11.579   4.215
29808SOL    HW291322   5.401  11.534   4.079
29809SOL     OW91323   1.150   8.549   4.938
29809SOL    HW191324   1.117   8.539   4.849
29809SOL    HW291325   1.236   8.507   4.936
29810SOL     OW91326   8.800  11.725   9.357
29810SOL    HW191327   8.730  11.787   9.379
29810SOL    HW291328   8.760  11.639   9.372
29811SOL     OW91329   9.917   0.157   3.021
29811SOL    HW191330   9.999   0.144   3.068
29811SOL    HW291331   9.944   0.190   2.935
29812SOL     OW91332   8.341  10.783   1.061
29812SOL    HW191333   8.403  10.777   1.134
29812SOL    HW291334   8.391  10.752   0.985
29813SOL     OW91335   3.223   4.032  14.165
29813SOL    HW191336   3.200   4.091  14.237
29813SOL    HW291337   3.154   4.044  14.101
29814SOL     OW91338   6.769   3.792   1.091
29814SOL    HW191339   6.738   3.754   1.173
29814SOL    HW291340   6.784   3.716   1.034
29815SOL     OW91341  13.816  13.270  13.144
29815SOL    HW191342  13.724  13.294  13.144
29815SOL    HW291343  13.861  13.345  13.104
29816SOL     OW91344  10.535  12.139   3.808
29816SOL    HW191345  10.474  12.068   3.828
29816SOL    HW291346  10.590  12.145   3.886
29817SOL     OW91347  10.337  10.863   2.499
29817SOL    HW191348  10.337  10.910   2.416
29817SOL    HW291349  10.333  10.770   2.474
29818SOL     OW91350  14.507   5.020   2.579
29818SOL    HW191351  14.493   5.113   2.558
29818SOL    HW291352  14.562   5.021   2.657
29819SOL     OW91353  14.790   2.890  13.045
29819SOL    HW191354  14.762   2.970  13.000
29819SOL    HW291355  14.859   2.919  13.105
29820SOL     OW91356  10.776  11.824   3.608
29820SOL    HW191357  10.708  11.848   3.546
29820SOL    HW291358  10.792  11.903   3.658
29821SOL     OW91359   4.926   0.146  13.766
29821SOL    HW191360   4.975   0.064  13.756
29821SOL    HW291361   4.839   0.118  13.794
29822SOL     OW91362   5.495   4.900   8.139
29822SOL    HW191363   5.458   4.817   8.170
29822SOL    HW291364   5.512   4.950   8.219
29823SOL     OW91365  11.135   9.842   0.465
29823SOL    HW191366  11.129   9.807   0.376
29823SOL    HW291367  11.046   9.838   0.498
29824SOL     OW91368   2.848   5.562   2.257
29824SOL    HW191369   2.943   5.577   2.258
29824SOL    HW291370   2.810   5.649   2.265
29825SOL     OW91371   6.263   1.764   9.903
29825SOL    HW191372   6.271   1.722   9.989
29825SOL    HW291373   6.336   1.728   9.852
29826SOL     OW91374  11.125   8.858  14.643
29826SOL    HW191375  11.207   8.903  14.621
29826SOL    HW291376  11.137   8.828  14.733
29827SOL     OW91377   5.596  11.164  13.567
29827SOL    HW191378   5.582  11.189  13.475
29827SOL    HW291379   5.616  11.070  13.563
29828SOL     OW91380   1.893   7.796  11.598
29828SOL    HW191381   1.823   7.853  11.566
29828SOL    HW291382   1.881   7.795  11.693
29829SOL     OW91383  11.422   1.133  12.463
29829SOL    HW191384  11.512   1.164  12.460
29829SOL    HW291385  11.410   1.103  12.553
29830SOL     OW91386   9.365  13.113  10.796
29830SOL    HW191387   9.456  13.112  10.825
29830SOL    HW291388   9.315  13.138  10.873
29831SOL     OW91389   3.925  10.544   4.270
29831SOL    HW191390   3.959  10.460   4.238
29831SOL    HW291391   3.989  10.609   4.242
29832SOL     OW91392   4.753   5.900  12.367
29832SOL    HW191393   4.810   5.924  12.295
29832SOL    HW291394   4.770   5.807  12.383
29833SOL     OW91395   3.430   7.497   0.675
29833SOL    HW191396   3.456   7.588   0.688
29833SOL    HW291397   3.369   7.499   0.601
29834SOL     OW91398   7.077  11.864  10.913
29834SOL    HW191399   7.004  11.830  10.861
29834SOL    HW291400   7.134  11.907  10.850
29835SOL     OW91401   3.535   7.246  13.814
29835SOL    HW191402   3.592   7.185  13.767
29835SOL    HW291403   3.524   7.320  13.754
29836SOL     OW91404   4.651   2.197   2.633
29836SOL    HW191405   4.725   2.136   2.633
29836SOL    HW291406   4.668   2.256   2.706
29837SOL     OW91407   1.713   9.475   3.083
29837SOL    HW191408   1.791   9.502   3.035
29837SOL    HW291409   1.673   9.407   3.028
29838SOL     OW91410   4.705  13.352  14.362
29838SOL    HW191411   4.612  13.332  14.355
29838SOL    HW291412   4.724  13.404  14.283
29839SOL     OW91413   4.252   0.582  13.735
29839SOL    HW191414   4.294   0.521  13.796
29839SOL    HW291415   4.320   0.645  13.712
29840SOL     OW91416   7.892   8.565   8.770
29840SOL    HW191417   7.819   8.624   8.789
29840SOL    HW291418   7.906   8.574   8.675
29841SOL     OW91419   7.717   1.100   5.665
29841SOL    HW191420   7.735   1.017   5.621
29841SOL    HW291421   7.631   1.088   5.706
29842SOL     OW91422  12.793  13.978   2.682
29842SOL    HW191423  12.747  13.918   2.740
29842SOL    HW291424  12.850  14.028   2.740
29843SOL     OW91425   7.765  10.717   2.894
29843SOL    HW191426   7.723  10.653   2.952
29843SOL    HW291427   7.858  10.696   2.900
29844SOL     OW91428   8.648   5.988   0.257
29844SOL    HW191429   8.580   6.049   0.228
29844SOL    HW291430   8.729   6.038   0.249
29845SOL     OW91431  13.138  11.201   4.267
29845SOL    HW191432  13.098  11.285   4.245
29845SOL    HW291433  13.146  11.202   4.363
29846SOL     OW91434   2.980  10.007  12.472
29846SOL    HW191435   2.914  10.068  12.505
29846SOL    HW291436   2.942   9.973  12.391
29847SOL     OW91437   3.954   3.848  12.052
29847SOL    HW191438   3.983   3.931  12.090
29847SOL    HW291439   4.019   3.784  12.082
29848SOL     OW91440   9.568   1.593  12.379
29848SOL    HW191441   9.576   1.688  12.376
29848SOL    HW291442   9.525   1.575  12.463
29849SOL     OW91443   8.634   1.319   6.176
29849SOL    HW191444   8.720   1.328   6.136
29849SOL    HW291445   8.610   1.227   6.161
29850SOL     OW91446   9.482   7.709   8.729
29850SOL    HW191447   9.548   7.743   8.669
29850SOL    HW291448   9.464   7.782   8.789
29851SOL     OW91449   1.161  14.467   6.196
29851SOL    HW191450   1.126  14.491   6.111
29851SOL    HW291451   1.108  14.392   6.224
29852SOL     OW91452   5.010   2.425  11.646
29852SOL    HW191453   4.969   2.478  11.578
29852SOL    HW291454   5.093   2.468  11.665
29853SOL     OW91455   7.091  12.077   1.183
29853SOL    HW191456   7.061  12.071   1.274
29853SOL    HW291457   7.177  12.118   1.189
29854SOL     OW91458   4.529   0.576   9.518
29854SOL    HW191459   4.470   0.613   9.584
29854SOL    HW291460   4.471   0.552   9.446
29855SOL     OW91461  10.551   8.922   8.849
29855SOL    HW191462  10.486   8.859   8.817
29855SOL    HW291463  10.611   8.870   8.902
29856SOL     OW91464   6.210  12.602   5.952
29856SOL    HW191465   6.201  12.677   5.892
29856SOL    HW291466   6.138  12.613   6.014
29857SOL     OW91467   6.211  10.897   7.596
29857SOL    HW191468   6.225  10.992   7.596
29857SOL    HW291469   6.159  10.880   7.675
29858SOL     OW91470  12.339   7.745   4.329
29858SOL    HW191471  12.294   7.666   4.360
29858SOL    HW291472  12.314   7.751   4.237
29859SOL     OW91473   1.151   8.639  10.459
29859SOL    HW191474   1.059   8.657  10.438
29859SOL    HW291475   1.170   8.557  10.413
29860SOL     OW91476  14.204   4.857   2.362
29860SOL    HW191477  14.119   4.812   2.366
29860SOL    HW291478  14.181   4.947   2.338
29861SOL     OW91479   0.167  13.459   9.188
29861SOL    HW191480   0.115  13.540   9.188
29861SOL    HW291481   0.212  13.461   9.103
29862SOL     OW91482   0.256   4.688   7.947
29862SOL    HW191483   0.302   4.631   7.885
29862SOL    HW291484   0.196   4.738   7.892
29863SOL     OW91485  13.333  10.911   8.037
29863SOL    HW191486  13.422  10.891   8.007
29863SOL    HW291487  13.277  10.879   7.967
29864SOL     OW91488  14.833   8.677   2.954
29864SOL    HW191489   0.046   8.685   3.000
29864SOL    HW291490  14.796   8.766   2.955
29865SOL     OW91491   8.521   0.106  13.440
29865SOL    HW191492   8.492   0.061  13.519
29865SOL    HW291493   8.491   0.050  13.368
29866SOL     OW91494   6.038  12.196   8.133
29866SOL    HW191495   5.985  12.261   8.088
29866SOL    HW291496   5.975  12.133   8.168
29867SOL     OW91497   8.660   2.983  12.295
29867SOL    HW191498   8.662   2.899  12.249
29867SOL    HW291499   8.682   2.961  12.386
29868SOL     OW91500   8.022   5.592   7.331
29868SOL    HW191501   7.945   5.648   7.326
29868SOL    HW291502   8.084   5.631   7.270
29869SOL     OW91503   3.430   5.956  11.378
29869SOL    HW191504   3.426   6.042  11.336
29869SOL    HW291505   3.382   5.966  11.460
29870SOL     OW91506   8.749   0.580   1.513
29870SOL    HW191507   8.837   0.582   1.550
29870SOL    HW291508   8.757   0.622   1.427
29871SOL     OW91509   5.943  14.702   1.306
29871SOL    HW191510   6.012  14.763   1.283
29871SOL    HW291511   5.983  14.615   1.298
29872SOL     OW91512   3.355   1.840   9.976
29872SOL    HW191513   3.351   1.772   9.909
29872SOL    HW291514   3.394   1.796  10.052
29873SOL     OW91515   6.342   8.331   3.263
29873SOL    HW191516   6.274   8.343   3.197
29873SOL    HW291517   6.356   8.236   3.266
29874SOL     OW91518   7.339   9.002   7.390
29874SOL    HW191519   7.433   8.988   7.402
29874SOL    HW291520   7.330   9.098   7.388
29875SOL     OW91521   1.082   7.469   2.786
29875SOL    HW191522   1.048   7.516   2.862
29875SOL    HW291523   1.004   7.452   2.732
29876SOL     OW91524  13.412  10.905   0.951
29876SOL    HW191525  13.394  10.817   0.920
29876SOL    HW291526  13.446  10.893   1.040
29877SOL     OW91527   3.901   3.771  10.929
29877SOL    HW191528   3.932   3.692  10.973
29877SOL    HW291529   3.913   3.841  10.992
29878SOL     OW91530   4.486  11.554  11.066
29878SOL    HW191531   4.495  11.461  11.083
29878SOL    HW291532   4.404  11.579  11.109
29879SOL     OW91533   0.578  13.739   9.063
29879SOL    HW191534   0.589  13.644   9.059
29879SOL    HW291535   0.666  13.774   9.053
29880SOL     OW91536   0.085  12.662   7.147
29880SOL    HW191537   0.175  12.640   7.170
29880SOL    HW291538   0.032  12.597   7.193
29881SOL     OW91539   9.312  11.924   7.350
29881SOL    HW191540   9.337  11.835   7.328
29881SOL    HW291541   9.217  11.927   7.336
29882SOL     OW91542   7.564   3.572  14.105
29882SOL    HW191543   7.494   3.637  14.110
29882SOL    HW291544   7.626   3.599  14.173
29883SOL     OW91545   4.262   4.198  14.716
29883SOL    HW191546   4.212   4.150  14.782
29883SOL    HW291547   4.331   4.137  14.690
29884SOL     OW91548  11.681   3.030  12.307
29884SOL    HW191549  11.725   3.078  12.377
29884SOL    HW291550  11.734   3.046  12.229
29885SOL     OW91551  13.097   0.799   9.479
29885SOL    HW191552  13.094   0.799   9.575
29885SOL    HW291553  13.183   0.836   9.458
29886SOL     OW91554   5.273  11.764   9.940
29886SOL    HW191555   5.242  11.674   9.954
29886SOL    HW291556   5.345  11.754   9.877
29887SOL     OW91557   4.639   3.550  14.192
29887SOL    HW191558   4.553   3.589  14.211
29887SOL    HW291559   4.650   3.560  14.098
29888SOL     OW91560   2.088   0.994  14.707
29888SOL    HW191561   2.155   0.944  14.661
29888SOL    HW291562   2.083   1.077  14.660
29889SOL     OW91563   1.972  13.710  12.286
29889SOL    HW191564   1.919  13.632  12.276
29889SOL    HW291565   1.912  13.783  12.268
29890SOL     OW91566   3.433   6.726   4.974
29890SOL    HW191567   3.527   6.707   4.966
29890SOL    HW291568   3.429   6.802   5.032
29891SOL     OW91569   9.166   2.862   6.055
29891SOL    HW191570   9.202   2.815   6.130
29891SOL    HW291571   9.146   2.949   6.088
29892SOL     OW91572   1.069   2.099   3.375
29892SOL    HW191573   1.012   2.098   3.298
29892SOL    HW291574   1.102   2.010   3.381
29893SOL     OW91575   7.676  12.268  11.478
29893SOL    HW191576   7.747  12.321  11.515
29893SOL    HW291577   7.625  12.329  11.425
29894SOL     OW91578  14.842  13.047  10.236
29894SOL    HW191579  14.801  12.964  10.261
29894SOL    HW291580  14.833  13.050  10.141
29895SOL     OW91581   8.443   9.784   2.992
29895SOL    HW191582   8.398   9.818   2.915
29895SOL    HW291583   8.534   9.772   2.964
29896SOL     OW91584   1.574   0.035   6.241
29896SOL    HW191585   1.637  14.860   6.185
29896SOL    HW291586   1.499  14.845   6.246
29897SOL     OW91587  12.645  10.952   9.491
29897SOL    HW191588  12.610  10.955   9.402
29897SOL    HW291589  12.724  11.006   9.487
29898SOL     OW91590   1.149   9.637   8.422
29898SOL    HW191591   1.118   9.548   8.440
29898SOL    HW291592   1.096   9.692   8.481
29899SOL     OW91593   7.262   3.814   2.961
29899SOL    HW191594   7.170   3.832   2.980
29899SOL    HW291595   7.264   3.722   2.936
29900SOL     OW91596  10.635   2.157   7.724
29900SOL    HW191597  10.633   2.250   7.750
29900SOL    HW291598  10.628   2.158   7.629
29901SOL     OW91599   4.904   1.647   1.724
29901SOL    HW191600   4.977   1.707   1.743
29901SOL    HW291601   4.831   1.704   1.703
29902SOL     OW91602  13.071   9.005   8.739
29902SOL    HW191603  13.088   9.046   8.654
29902SOL    HW291604  12.981   8.972   8.731
29903SOL     OW91605   6.940   5.046  12.332
29903SOL    HW191606   6.963   5.066  12.423
29903SOL    HW291607   6.934   5.131  12.290
29904SOL     OW91608   4.176   6.875   0.669
29904SOL    HW191609   4.249   6.936   0.679
29904SOL    HW291610   4.216   6.788   0.680
29905SOL     OW91611   5.232  10.958   3.522
29905SOL    HW191612   5.184  10.905   3.586
29905SOL    HW291613   5.311  10.907   3.503
29906SOL     OW91614   3.044   6.976  10.240
29906SOL    HW191615   3.118   7.038  10.243
29906SOL    HW291616   2.968   7.031  10.222
29907SOL     OW91617  10.195  11.689   4.992
29907SOL    HW191618  10.131  11.733   5.049
29907SOL    HW291619  10.185  11.596   5.011
29908SOL     OW91620  14.387   6.191   5.462
29908SOL    HW191621  14.394   6.230   5.375
29908SOL    HW291622  14.306   6.139   5.459
29909SOL     OW91623   1.367   1.946   7.113
29909SOL    HW191624   1.308   1.986   7.049
29909SOL    HW291625   1.309   1.905   7.178
29910SOL     OW91626   8.443  11.489   1.530
29910SOL    HW191627   8.486  11.404   1.543
29910SOL    HW291628   8.354  11.475   1.563
29911SOL     OW91629   3.311  13.888   2.953
29911SOL    HW191630   3.356  13.809   2.922
29911SOL    HW291631   3.234  13.855   2.999
29912SOL     OW91632   6.770   7.309  13.844
29912SOL    HW191633   6.767   7.339  13.935
29912SOL    HW291634   6.859   7.277  13.832
29913SOL     OW91635   9.164   7.146   2.634
29913SOL    HW191636   9.095   7.081   2.627
29913SOL    HW291637   9.205   7.148   2.547
29914SOL     OW91638   6.969  10.014   0.891
29914SOL    HW191639   7.037  10.017   0.959
29914SOL    HW291640   6.980   9.928   0.850
29915SOL     OW91641   8.571  10.752   4.820
29915SOL    HW191642   8.591  10.660   4.804
29915SOL    HW291643   8.515  10.778   4.747
29916SOL     OW91644  12.683   6.059   7.453
29916SOL    HW191645  12.737   5.980   7.455
29916SOL    HW291646  12.605   6.033   7.404
29917SOL     OW91647   1.402  10.060  10.346
29917SOL    HW191648   1.364  10.052  10.433
29917SOL    HW291649   1.327  10.066  10.287
29918SOL     OW91650   3.614   3.050  11.914
29918SOL    HW191651   3.695   3.010  11.881
29918SOL    HW291652   3.568   3.078  11.835
29919SOL     OW91653   1.350  13.498   0.703
29919SOL    HW191654   1.356  13.449   0.621
29919SOL    HW291655   1.275  13.459   0.749
29920SOL     OW91656  11.479   5.696   3.291
29920SOL    HW191657  11.539   5.656   3.227
29920SOL    HW291658  11.537   5.748   3.348
29921SOL     OW91659   5.868   6.120   6.812
29921SOL    HW191660   5.824   6.053   6.761
29921SOL    HW291661   5.845   6.203   6.769
29922SOL     OW91662  10.882  13.517   0.303
29922SOL    HW191663  10.861  13.609   0.316
29922SOL    HW291664  10.977  13.512   0.310
29923SOL     OW91665   2.562   3.445   8.799
29923SOL    HW191666   2.486   3.393   8.824
29923SOL    HW291667   2.527   3.509   8.736
29924SOL     OW91668   7.346  10.770  11.843
29924SOL    HW191669   7.373  10.855  11.878
29924SOL    HW291670   7.368  10.708  11.912
29925SOL     OW91671  11.371  14.612   5.096
29925SOL    HW191672  11.351  14.690   5.149
29925SOL    HW291673  11.348  14.638   5.007
29926SOL     OW91674  10.153  10.367   0.127
29926SOL    HW191675  10.232  10.409   0.162
29926SOL    HW291676  10.181  10.330   0.043
29927SOL     OW91677   3.865   8.888   7.040
29927SOL    HW191678   3.785   8.937   7.060
29927SOL    HW291679   3.844   8.797   7.060
29928SOL     OW91680  14.274  14.830  10.815
29928SOL    HW191681  14.333  14.848  10.741
29928SOL    HW291682  14.225  14.753  10.788
29929SOL     OW91683   0.776  12.431  11.212
29929SOL    HW191684   0.803  12.362  11.271
29929SOL    HW291685   0.804  12.512  11.254
29930SOL     OW91686   7.888  14.251   0.923
29930SOL    HW191687   7.927  14.287   0.843
29930SOL    HW291688   7.794  14.268   0.914
29931SOL     OW91689  12.491  10.148  14.076
29931SOL    HW191690  12.573  10.114  14.111
29931SOL    HW291691  12.493  10.126  13.983
29932SOL     OW91692  11.435   9.947  13.804
29932SOL    HW191693  11.355   9.930  13.755
29932SOL    HW291694  11.437   9.877  13.870
29933SOL     OW91695   7.004   7.790   1.408
29933SOL    HW191696   6.918   7.832   1.403
29933SOL    HW291697   7.024   7.765   1.318
29934SOL     OW91698  14.335  11.478  14.134
29934SOL    HW191699  14.414  11.473  14.188
29934SOL    HW291700  14.263  11.460  14.194
29935SOL     OW91701  11.876   7.918  11.405
29935SOL    HW191702  11.796   7.868  11.422
29935SOL    HW291703  11.932   7.902  11.481
29936SOL     OW91704   2.573   5.141   9.074
29936SOL    HW191705   2.592   5.084   8.999
29936SOL    HW291706   2.491   5.108   9.110
29937SOL     OW91707   1.648   2.528   9.373
29937SOL    HW191708   1.585   2.600   9.382
29937SOL    HW291709   1.660   2.496   9.463
29938SOL     OW91710  14.099   1.441   8.221
29938SOL    HW191711  14.165   1.420   8.155
29938SOL    HW291712  14.150   1.467   8.298
29939SOL     OW91713   1.738   4.208   4.711
29939SOL    HW191714   1.734   4.113   4.703
29939SOL    HW291715   1.720   4.240   4.623
29940SOL     OW91716   3.795  13.438   8.560
29940SOL    HW191717   3.859  13.424   8.490
29940SOL    HW291718   3.763  13.527   8.546
29941SOL     OW91719   5.763   1.159   3.384
29941SOL    HW191720   5.733   1.102   3.455
29941SOL    HW291721   5.700   1.230   3.381
29942SOL     OW91722  11.621  11.584  14.250
29942SOL    HW191723  11.630  11.508  14.308
29942SOL    HW291724  11.654  11.553  14.166
29943SOL     OW91725   3.025   0.762   6.006
29943SOL    HW191726   3.002   0.670   5.991
29943SOL    HW291727   3.010   0.775   6.099
29944SOL     OW91728  13.744   1.675   2.002
29944SOL    HW191729  13.784   1.591   1.977
29944SOL    HW291730  13.651   1.655   2.012
29945SOL     OW91731  13.311   7.680   0.025
29945SOL    HW191732  13.375   7.649   0.090
29945SOL    HW291733  13.349   7.761  14.861
29946SOL     OW91734   6.664  11.125  12.337
29946SOL    HW191735   6.640  11.101  12.248
29946SOL    HW291736   6.649  11.046  12.388
29947SOL     OW91737   7.073   5.725  12.146
29947SOL    HW191738   7.159   5.760  12.126
29947SOL    HW291739   7.082   5.630  12.135
29948SOL     OW91740   7.058   3.679  11.647
29948SOL    HW191741   7.077   3.671  11.553
29948SOL    HW291742   7.008   3.761  11.654
29949SOL     OW91743  13.924   2.979  10.916
29949SOL    HW191744  13.930   3.074  10.925
29949SOL    HW291745  13.842   2.956  10.960
29950SOL     OW91746  13.602   2.923   1.666
29950SOL    HW191747  13.616   3.017   1.672
29950SOL    HW291748  13.617   2.891   1.755
29951SOL     OW91749   5.317   3.355  11.187
29951SOL    HW191750   5.333   3.431  11.131
29951SOL    HW291751   5.359   3.282  11.141
29952SOL     OW91752   4.711   0.929   3.169
29952SOL    HW191753   4.636   0.902   3.221
29952SOL    HW291754   4.683   0.914   3.078
29953SOL     OW91755   0.229   8.538   8.320
29953SOL    HW191756   0.256   8.446   8.323
29953SOL    HW291757   0.164   8.542   8.251
29954SOL     OW91758   0.936   1.375   8.629
29954SOL    HW191759   0.880   1.358   8.553
29954SOL    HW291760   0.985   1.293   8.640
29955SOL     OW91761  11.145  13.525   1.140
29955SOL    HW191762  11.145  13.509   1.235
29955SOL    HW291763  11.206  13.599   1.129
29956SOL     OW91764  13.766  10.081   3.041
29956SOL    HW191765  13.683  10.039   3.015
29956SOL    HW291766  13.741  10.140   3.111
29957SOL     OW91767   7.106   0.526   2.304
29957SOL    HW191768   7.175   0.592   2.310
29957SOL    HW291769   7.090   0.498   2.394
29958SOL     OW91770   8.476  12.768   6.721
29958SOL    HW191771   8.553  12.777   6.778
29958SOL    HW291772   8.487  12.683   6.680
29959SOL     OW91773   9.634  14.235   8.345
29959SOL    HW191774   9.555  14.288   8.337
29959SOL    HW291775   9.676  14.266   8.425
29960SOL     OW91776   3.751   2.434   6.466
29960SOL    HW191777   3.837   2.398   6.442
29960SOL    HW291778   3.723   2.483   6.389
29961SOL     OW91779   0.094   7.143   0.368
29961SOL    HW191780   0.146   7.218   0.341
29961SOL    HW291781   0.057   7.168   0.452
29962SOL     OW91782   0.857  11.919  12.529
29962SOL    HW191783   0.879  11.905  12.621
29962SOL    HW291784   0.918  11.986  12.499
29963SOL     OW91785   1.838   6.516   7.548
29963SOL    HW191786   1.820   6.424   7.529
29963SOL    HW291787   1.773   6.565   7.498
29964SOL     OW91788   8.480   8.759  12.402
29964SOL    HW191789   8.435   8.776  12.485
29964SOL    HW291790   8.483   8.663  12.395
29965SOL     OW91791   0.416   1.538  12.683
29965SOL    HW191792   0.332   1.514  12.724
29965SOL    HW291793   0.437   1.623  12.721
29966SOL     OW91794   3.709   9.283  10.504
29966SOL    HW191795   3.700   9.198  10.462
29966SOL    HW291796   3.622   9.321  10.500
29967SOL     OW91797  10.568   4.078  13.816
29967SOL    HW191798  10.567   4.172  13.833
29967SOL    HW291799  10.476   4.056  13.800
29968SOL     OW91800   0.027   5.572  10.063
29968SOL    HW191801   0.061   5.660  10.080
29968SOL    HW291802   0.094   5.513  10.098
29969SOL     OW91803   6.068   4.713  11.123
29969SOL    HW191804   5.978   4.746  11.132
29969SOL    HW291805   6.069   4.668  11.039
29970SOL     OW91806  11.111   4.948   4.996
29970SOL    HW191807  11.022   4.916   4.977
29970SOL    HW291808  11.116   5.032   4.952
29971SOL     OW91809   2.348   9.349   7.019
29971SOL    HW191810   2.346   9.259   7.052
29971SOL    HW291811   2.349   9.339   6.924
29972SOL     OW91812  12.457   5.924   8.566
29972SOL    HW191813  12.470   5.925   8.661
29972SOL    HW291814  12.430   6.014   8.545
29973SOL     OW91815   6.769  12.710  13.674
29973SOL    HW191816   6.847  12.658  13.691
29973SOL    HW291817   6.722  12.662  13.606
29974SOL     OW91818  13.881  12.188  12.534
29974SOL    HW191819  13.900  12.099  12.504
29974SOL    HW291820  13.888  12.184  12.629
29975SOL     OW91821  11.386  10.952  14.298
29975SOL    HW191822  11.351  11.039  14.277
29975SOL    HW291823  11.366  10.899  14.220
29976SOL     OW91824  12.031   5.355   1.499
29976SOL    HW191825  12.061   5.427   1.554
29976SOL    HW291826  12.054   5.380   1.410
29977SOL     OW91827  11.595   8.847   2.117
29977SOL    HW191828  11.604   8.939   2.092
29977SOL    HW291829  11.542   8.849   2.197
29978SOL     OW91830  13.060   0.523   8.476
29978SOL    HW191831  13.126   0.568   8.530
29978SOL    HW291832  13.078   0.430   8.489
29979SOL     OW91833   2.766  11.473  13.075
29979SOL    HW191834   2.742  11.540  13.139
29979SOL    HW291835   2.703  11.402  13.091
29980SOL     OW91836   7.837  10.562   5.714
29980SOL    HW191837   7.814  10.472   5.737
29980SOL    HW291838   7.863  10.602   5.797
29981SOL     OW91839   9.015  11.042   9.259
29981SOL    HW191840   9.081  11.046   9.190
29981SOL    HW291841   8.936  11.013   9.214
29982SOL     OW91842  11.155   8.080   7.289
29982SOL    HW191843  11.192   8.012   7.233
29982SOL    HW291844  11.215   8.154   7.279
29983SOL     OW91845   5.455   5.218   5.796
29983SOL    HW191846   5.528   5.267   5.835
29983SOL    HW291847   5.417   5.279   5.732
29984SOL     OW91848   3.209  12.812   8.193
29984SOL    HW191849   3.290  12.760   8.194
29984SOL    HW291850   3.139  12.748   8.187
29985SOL     OW91851   2.016   8.985   9.909
29985SOL    HW191852   2.087   8.927   9.936
29985SOL    HW291853   1.944   8.925   9.888
29986SOL     OW91854  14.069  14.582   3.352
29986SOL    HW191855  14.073  14.568   3.258
29986SOL    HW291856  14.079  14.676   3.364
29987SOL     OW91857   5.407  13.769   5.043
29987SOL    HW191858   5.337  13.717   5.082
29987SOL    HW291859   5.473  13.776   5.112
29988SOL     OW91860   2.428   8.277   4.324
29988SOL    HW191861   2.461   8.187   4.322
29988SOL    HW291862   2.480   8.320   4.392
29989SOL     OW91863   8.393   2.265   3.716
29989SOL    HW191864   8.305   2.231   3.703
29989SOL    HW291865   8.395   2.295   3.807
29990SOL     OW91866  11.846  10.680   5.013
29990SOL    HW191867  11.844  10.699   5.107
29990SOL    HW291868  11.906  10.606   5.005
29991SOL     OW91869   9.811   8.187   2.343
29991SOL    HW191870   9.741   8.232   2.390
29991SOL    HW291871   9.769   8.152   2.264
29992SOL     OW91872   7.428  13.257   0.698
29992SOL    HW191873   7.435  13.225   0.609
29992SOL    HW291874   7.400  13.181   0.749
29993SOL     OW91875   4.727   6.927  10.988
29993SOL    HW191876   4.782   6.948  11.064
29993SOL    HW291877   4.757   6.986  10.919
29994SOL     OW91878  14.294   8.911   6.742
29994SOL    HW191879  14.385   8.937   6.729
29994SOL    HW291880  14.248   8.993   6.762
29995SOL     OW91881   9.956   1.258   5.029
29995SOL    HW191882   9.999   1.271   5.114
29995SOL    HW291883   9.983   1.332   4.976
29996SOL     OW91884   3.516   4.750   8.826
29996SOL    HW191885   3.598   4.795   8.804
29996SOL    HW291886   3.457   4.771   8.753
29997SOL     OW91887   9.983   1.876   4.348
29997SOL    HW191888  10.041   1.941   4.387
29997SOL    HW291889  10.030   1.793   4.356
29998SOL     OW91890   9.008   3.617   8.212
29998SOL    HW191891   9.036   3.697   8.256
29998SOL    HW291892   9.021   3.635   8.119
29999SOL     OW91893   0.326  10.393   6.251
29999SOL    HW191894   0.421  10.398   6.263
29999SOL    HW291895   0.312  10.425   6.162
30000SOL     OW91896   6.356   0.812  10.425
30000SOL    HW191897   6.351   0.907  10.413
30000SOL    HW291898   6.308   0.795  10.506
30001SOL     OW91899   1.931  11.269   8.081
30001SOL    HW191900   1.868  11.208   8.043
30001SOL    HW291901   1.957  11.325   8.008
30002SOL     OW91902   7.018  14.731  14.192
30002SOL    HW191903   7.085  14.737  14.260
30002SOL    HW291904   6.990  14.640  14.192
30003SOL     OW91905   4.511   9.841  11.894
30003SOL    HW191906   4.483   9.750  11.908
30003SOL    HW291907   4.561   9.839  11.813
30004SOL     OW91908   6.757  10.238  10.505
30004SOL    HW191909   6.705  10.207  10.580
30004SOL    HW291910   6.756  10.164  10.443
30005SOL     OW91911  13.944   6.567   9.078
30005SOL    HW191912  13.972   6.477   9.063
30005SOL    HW291913  14.002   6.620   9.024
30006SOL     OW91914   7.045  14.178   1.641
30006SOL    HW191915   7.069  14.122   1.567
30006SOL    HW291916   6.980  14.126   1.689
30007SOL     OW91917   2.832  14.059  13.787
30007SOL    HW191918   2.787  14.098  13.711
30007SOL    HW291919   2.834  13.965  13.768
30008SOL     OW91920   7.344  14.783   0.455
30008SOL    HW191921   7.416  14.770   0.517
30008SOL    HW291922   7.272  14.732   0.491
30009SOL     OW91923   7.048  13.953   2.634
30009SOL    HW191924   7.133  13.909   2.635
30009SOL    HW291925   7.062  14.031   2.581
30010SOL     OW91926   2.758  11.087   3.805
30010SOL    HW191927   2.734  11.177   3.784
30010SOL    HW291928   2.677  11.048   3.838
30011SOL     OW91929   5.143  10.642   4.559
30011SOL    HW191930   5.192  10.566   4.527
30011SOL    HW291931   5.204  10.715   4.549
30012SOL     OW91932  11.655  11.873  13.282
30012SOL    HW191933  11.619  11.793  13.246
30012SOL    HW291934  11.733  11.891  13.230
30013SOL     OW91935   7.479   2.877   9.720
30013SOL    HW191936   7.433   2.961   9.729
30013SOL    HW291937   7.434   2.819   9.782
30014SOL     OW91938   9.277   9.263   3.628
30014SOL    HW191939   9.315   9.310   3.702
30014SOL    HW291940   9.185   9.288   3.628
30015SOL     OW91941  13.581   2.994   1.143
30015SOL    HW191942  13.611   3.084   1.138
30015SOL    HW291943  13.636   2.954   1.211
30016SOL     OW91944  10.738  14.482   1.720
30016SOL    HW191945  10.767  14.406   1.670
30016SOL    HW291946  10.661  14.514   1.672
30017SOL     OW91947   2.259   8.177   9.864
30017SOL    HW191948   2.204   8.100   9.881
30017SOL    HW291949   2.197   8.247   9.845
30018SOL     OW91950   5.704   4.079  14.435
30018SOL    HW191951   5.757   4.030  14.373
30018SOL    HW291952   5.619   4.089  14.391
30019SOL     OW91953   4.872   7.638   9.185
30019SOL    HW191954   4.913   7.668   9.266
30019SOL    HW291955   4.829   7.556   9.210
30020SOL     OW91956   7.120   7.649  11.877
30020SOL    HW191957   7.105   7.705  11.953
30020SOL    HW291958   7.116   7.560  11.911
30021SOL     OW91959  12.145  10.262   8.507
30021SOL    HW191960  12.091  10.277   8.584
30021SOL    HW291961  12.116  10.329   8.444
30022SOL     OW91962  11.674   7.752  13.147
30022SOL    HW191963  11.750   7.808  13.164
30022SOL    HW291964  11.676   7.688  13.219
30023SOL     OW91965   1.128   0.129  13.954
30023SOL    HW191966   1.207   0.183  13.964
30023SOL    HW291967   1.156   0.056  13.898
30024SOL     OW91968   7.149  10.888   5.495
30024SOL    HW191969   7.186  10.818   5.440
30024SOL    HW291970   7.114  10.951   5.433
30025SOL     OW91971  12.287  14.681  12.522
30025SOL    HW191972  12.281  14.774  12.499
30025SOL    HW291973  12.203  14.645  12.495
30026SOL     OW91974  11.026   3.092   9.720
30026SOL    HW191975  11.022   3.155   9.792
30026SOL    HW291976  10.983   3.138   9.647
30027SOL     OW91977   5.120   5.312   3.077
30027SOL    HW191978   5.191   5.319   3.140
30027SOL    HW291979   5.161   5.279   2.997
30028SOL     OW91980   4.850   4.390   4.495
30028SOL    HW191981   4.770   4.427   4.532
30028SOL    HW291982   4.920   4.444   4.532
30029SOL     OW91983  10.620   5.150   0.667
30029SOL    HW191984  10.714   5.170   0.669
30029SOL    HW291985  10.586   5.182   0.750
30030SOL     OW91986   0.708   2.274   7.236
30030SOL    HW191987   0.760   2.212   7.185
30030SOL    HW291988   0.737   2.261   7.327
30031SOL     OW91989  10.474  14.113   0.164
30031SOL    HW191990  10.496  14.066   0.244
30031SOL    HW291991  10.503  14.203   0.179
30032SOL     OW91992   7.422   5.986   1.387
30032SOL    HW191993   7.350   6.049   1.392
30032SOL    HW291994   7.447   5.971   1.478
30033SOL     OW91995  10.839   6.049   6.663
30033SOL    HW191996  10.754   6.039   6.704
30033SOL    HW291997  10.861   6.141   6.674
30034SOL     OW91998   3.470   8.035  11.833
30034SOL    HW191999   3.440   8.102  11.895
30034SOL    HW292000   3.480   8.081  11.750
30035SOL     OW92001  10.930  13.560  11.366
30035SOL    HW192002  10.978  13.634  11.401
30035SOL    HW292003  10.841  13.571  11.398
30036SOL     OW92004  10.251   7.837  13.086
30036SOL    HW192005  10.202   7.857  13.166
30036SOL    HW292006  10.250   7.918  13.036
30037SOL     OW92007   4.361  14.327   3.046
30037SOL    HW192008   4.443  14.284   3.067
30037SOL    HW292009   4.295  14.258   3.054
30038SOL     OW92010  13.272   6.563   0.743
30038SOL    HW192011  13.316   6.644   0.716
30038SOL    HW292012  13.298   6.552   0.834
30039SOL     OW92013  13.174   2.043   4.169
30039SOL    HW192014  13.125   2.017   4.091
30039SOL    HW292015  13.107   2.058   4.235
30040SOL     OW92016   3.427   3.822  12.232
30040SOL    HW192017   3.522   3.826  12.220
30040SOL    HW292018   3.397   3.757  12.170
30041SOL     OW92019  11.748  10.311   5.164
30041SOL    HW192020  11.738  10.350   5.251
30041SOL    HW292021  11.842  10.297   5.155
30042SOL     OW92022   7.214   5.643   5.657
30042SOL    HW192023   7.160   5.683   5.589
30042SOL    HW292024   7.292   5.698   5.662
30043SOL     OW92025   2.044  10.153  11.733
30043SOL    HW192026   1.990  10.217  11.686
30043SOL    HW292027   2.120  10.204  11.762
30044SOL     OW92028   6.225  13.599   1.684
30044SOL    HW192029   6.199  13.687   1.711
30044SOL    HW292030   6.162  13.575   1.616
30045SOL     OW92031   3.286   2.485   1.546
30045SOL    HW192032   3.215   2.481   1.609
30045SOL    HW292033   3.352   2.424   1.579
30046SOL     OW92034   8.266   3.479   4.314
30046SOL    HW192035   8.224   3.393   4.310
30046SOL    HW292036   8.344   3.470   4.258
30047SOL     OW92037   4.933   7.356  14.000
30047SOL    HW192038   5.012   7.353  14.054
30047SOL    HW292039   4.861   7.349  14.063
30048SOL     OW92040   4.103   0.222   3.883
30048SOL    HW192041   4.141   0.227   3.971
30048SOL    HW292042   4.036   0.291   3.882
30049SOL     OW92043  10.455   3.058  14.756
30049SOL    HW192044  10.399   2.994  14.712
30049SOL    HW292045  10.435   3.047  14.849
30050SOL     OW92046   0.475   5.276  14.252
30050SOL    HW192047   0.462   5.363  14.291
30050SOL    HW292048   0.567   5.275  14.226
30051SOL     OW92049   2.647   4.955   3.563
30051SOL    HW192050   2.680   4.924   3.478
30051SOL    HW292051   2.644   4.877   3.617
30052SOL     OW92052   4.299  14.604   7.596
30052SOL    HW192053   4.384  14.579   7.631
30052SOL    HW292054   4.294  14.699   7.612
30053SOL     OW92055   0.291   1.812  11.231
30053SOL    HW192056   0.299   1.866  11.309
30053SOL    HW292057   0.197   1.795  11.222
30054SOL     OW92058   7.284   8.330   9.565
30054SOL    HW192059   7.284   8.235   9.571
30054SOL    HW292060   7.245   8.360   9.647
30055SOL     OW92061  13.801  14.440   4.282
30055SOL    HW192062  13.786  14.353   4.321
30055SOL    HW292063  13.889  14.435   4.246
30056SOL     OW92064   4.405   3.331   0.563
30056SOL    HW192065   4.346   3.346   0.490
30056SOL    HW292066   4.486   3.374   0.538
30057SOL     OW92067   0.451  10.163   0.704
30057SOL    HW192068   0.462  10.230   0.637
30057SOL    HW292069   0.356  10.147   0.707
30058SOL     OW92070   8.177  14.225  14.828
30058SOL    HW192071   8.128  14.287  14.773
30058SOL    HW292072   8.129  14.143  14.819
30059SOL     OW92073  13.215   2.495   5.398
30059SOL    HW192074  13.212   2.574   5.451
30059SOL    HW292075  13.252   2.523   5.314
30060SOL     OW92076   8.950   5.447  12.442
30060SOL    HW192077   9.003   5.422  12.517
30060SOL    HW292078   8.878   5.499  12.479
30061SOL     OW92079   1.749  14.325   0.506
30061SOL    HW192080   1.662  14.312   0.469
30061SOL    HW292081   1.809  14.308   0.434
30062SOL     OW92082   8.120   5.365  13.813
30062SOL    HW192083   8.114   5.344  13.720
30062SOL    HW292084   8.075   5.449  13.822
30063SOL     OW92085   1.975   1.627   8.171
30063SOL    HW192086   2.010   1.712   8.143
30063SOL    HW292087   1.880   1.641   8.176
30064SOL     OW92088   5.667  11.923   6.093
30064SOL    HW192089   5.622  11.874   6.162
30064SOL    HW292090   5.749  11.952   6.134
30065SOL     OW92091  13.994  14.172   5.367
30065SOL    HW192092  13.944  14.244   5.330
30065SOL    HW292093  13.929  14.103   5.382
30066SOL     OW92094  12.856   5.456   1.576
30066SOL    HW192095  12.925   5.521   1.564
30066SOL    HW292096  12.867   5.395   1.503
30067SOL     OW92097  13.213   2.295  14.455
30067SOL    HW192098  13.123   2.325  14.443
30067SOL    HW292099  13.267   2.363  14.412
30068SOL     OW92100   8.325  12.344  12.976
30068SOL    HW192101   8.287  12.422  13.017
30068SOL    HW292102   8.254  12.280  12.978
30069SOL     OW92103   7.899   0.665  12.680
30069SOL    HW192104   7.927   0.574  12.671
30069SOL    HW292105   7.870   0.690  12.592
30070SOL     OW92106   3.154  12.802  13.578
30070SOL    HW192107   3.126  12.817  13.488
30070SOL    HW292108   3.133  12.711  13.596
30071SOL     OW92109   4.761  10.230  14.393
30071SOL    HW192110   4.851  10.259  14.379
30071SOL    HW292111   4.766  10.173  14.471
30072SOL     OW92112  10.225   1.727   2.317
30072SOL    HW192113  10.264   1.798   2.369
30072SOL    HW292114  10.293   1.661   2.312
30073SOL     OW92115   3.679   8.003   6.117
30073SOL    HW192116   3.772   8.021   6.108
30073SOL    HW292117   3.654   8.048   6.198
30074SOL     OW92118   6.162  14.450   3.373
30074SOL    HW192119   6.201  14.485   3.293
30074SOL    HW292120   6.109  14.376   3.343
30075SOL     OW92121  10.009   5.258   8.930
30075SOL    HW192122  10.001   5.208   8.848
30075SOL    HW292123  10.078   5.213   8.979
30076SOL     OW92124   4.657   3.484   0.534
30076SOL    HW192125   4.665   3.575   0.560
30076SOL    HW292126   4.723   3.471   0.467
30077SOL     OW92127  12.169   0.991   5.201
30077SOL    HW192128  12.116   1.004   5.281
30077SOL    HW292129  12.256   1.023   5.225
30078SOL     OW92130   4.414   1.485  13.054
30078SOL    HW192131   4.505   1.455  13.062
30078SOL    HW292132   4.395   1.480  12.960
30079SOL     OW92133   7.376   1.142  14.780
30079SOL    HW192134   7.394   1.127   0.003
30079SOL    HW292135   7.434   1.215  14.757
30080SOL     OW92136   8.901   6.355  11.089
30080SOL    HW192137   8.922   6.317  11.174
30080SOL    HW292138   8.974   6.414  11.071
30081SOL     OW92139  12.199   5.722   3.700
30081SOL    HW192140  12.294   5.711   3.701
30081SOL    HW292141  12.172   5.703   3.790
30082SOL     OW92142  12.747  12.492   6.647
30082SOL    HW192143  12.821  12.514   6.590
30082SOL    HW292144  12.787  12.447   6.721
30083SOL     OW92145  14.608   1.177   6.330
30083SOL    HW192146  14.568   1.241   6.388
30083SOL    HW292147  14.644   1.229   6.258
30084SOL     OW92148  14.472   8.191  14.566
30084SOL    HW192149  14.402   8.246  14.531
30084SOL    HW292150  14.496   8.234  14.649
30085SOL     OW92151  13.451  10.561  13.296
30085SOL    HW192152  13.423  10.611  13.219
30085SOL    HW292153  13.409  10.607  13.370
30086SOL     OW92154   2.653  12.994   4.605
30086SOL    HW192155   2.719  12.925   4.593
30086SOL    HW292156   2.624  12.983   4.696
30087SOL     OW92157   0.427   8.721   8.035
30087SOL    HW192158   0.445   8.628   8.048
30087SOL    HW292159   0.464   8.742   7.949
30088SOL     OW92160   0.555   2.716   2.187
30088SOL    HW192161   0.573   2.635   2.139
30088SOL    HW292162   0.462   2.734   2.172
30089SOL     OW92163  14.670   2.122   3.662
30089SOL    HW192164  14.578   2.142   3.647
30089SOL    HW292165  14.702   2.196   3.714
30090SOL     OW92166  11.435  12.901   9.156
30090SOL    HW192167  11.530  12.898   9.161
30090SOL    HW292168  11.408  12.809   9.160
30091SOL     OW92169  10.066   3.794   9.009
30091SOL    HW192170  10.110   3.726   9.061
30091SOL    HW292171  10.049   3.752   8.925
30092SOL     OW92172  12.278   9.421   9.938
30092SOL    HW192173  12.370   9.441   9.957
30092SOL    HW292174  12.269   9.435   9.844
30093SOL     OW92175   4.958   2.071   4.518
30093SOL    HW192176   4.974   2.037   4.430
30093SOL    HW292177   4.994   2.004   4.576
30094SOL     OW92178  14.346  14.740   7.159
30094SOL    HW192179  14.423  14.699   7.120
30094SOL    HW292180  14.272  14.693   7.120
30095SOL     OW92181   9.559   3.140   9.245
30095SOL    HW192182   9.523   3.152   9.158
30095SOL    HW292183   9.491   3.172   9.304
30096SOL     OW92184   9.122   9.449   5.915
30096SOL    HW192185   9.051   9.434   5.977
30096SOL    HW292186   9.131   9.544   5.910
30097SOL     OW92187  11.830  13.690  13.793
30097SOL    HW192188  11.835  13.769  13.847
30097SOL    HW292189  11.747  13.649  13.817
30098SOL     OW92190   0.402   7.047  10.179
30098SOL    HW192191   0.343   7.123  10.183
30098SOL    HW292192   0.490   7.084  10.191
30099SOL     OW92193  13.300  10.332  12.167
30099SOL    HW192194  13.265  10.253  12.207
30099SOL    HW292195  13.356  10.301  12.096
30100SOL     OW92196  14.804   3.115   9.068
30100SOL    HW192197   0.026   3.101   9.042
30100SOL    HW292198  14.759   3.140   8.988
30101SOL     OW92199   3.940  13.523   4.530
30101SOL    HW192200   3.908  13.495   4.445
30101SOL    HW292201   3.991  13.602   4.512
30102SOL     OW92202   9.677   6.700   9.441
30102SOL    HW192203   9.746   6.645   9.403
30102SOL    HW292204   9.622   6.725   9.367
30103SOL     OW92205   7.744   4.683  11.421
30103SOL    HW192206   7.704   4.700  11.506
30103SOL    HW292207   7.705   4.600  11.393
30104SOL     OW92208   9.383   1.606   7.007
30104SOL    HW192209   9.409   1.688   6.967
30104SOL    HW292210   9.309   1.576   6.954
30105SOL     OW92211   2.837  11.634   7.174
30105SOL    HW192212   2.887  11.689   7.114
30105SOL    HW292213   2.898  11.613   7.245
30106SOL     OW92214   7.730   7.290   7.092
30106SOL    HW192215   7.759   7.378   7.117
30106SOL    HW292216   7.702   7.299   7.001
30107SOL     OW92217   5.822  13.320  14.862
30107SOL    HW192218   5.840  13.329   0.086
30107SOL    HW292219   5.736  13.361  14.851
30108SOL     OW92220   5.439   7.634  12.741
30108SOL    HW192221   5.408   7.558  12.692
30108SOL    HW292222   5.451   7.702  12.674
30109SOL     OW92223  11.912   1.929   4.695
30109SOL    HW192224  11.848   1.892   4.635
30109SOL    HW292225  11.908   1.872   4.772
30110SOL     OW92226   8.823   7.021   9.807
30110SOL    HW192227   8.812   7.067   9.724
30110SOL    HW292228   8.891   6.956   9.790
30111SOL     OW92229   4.699   4.193   1.605
30111SOL    HW192230   4.724   4.262   1.667
30111SOL    HW292231   4.775   4.184   1.547
30112SOL     OW92232   2.195   3.301   5.858
30112SOL    HW192233   2.266   3.272   5.915
30112SOL    HW292234   2.193   3.396   5.870
30113SOL     OW92235   8.912  10.955  10.010
30113SOL    HW192236   8.821  10.954   9.979
30113SOL    HW292237   8.947  10.869   9.985
30114SOL     OW92238   7.147   0.115  13.084
30114SOL    HW192239   7.072   0.061  13.111
30114SOL    HW292240   7.200   0.057  13.029
30115SOL     OW92241   0.629  11.866   3.120
30115SOL    HW192242   0.673  11.928   3.178
30115SOL    HW292243   0.596  11.920   3.048
30116SOL     OW92244   5.048   5.277  10.980
30116SOL    HW192245   4.952   5.272  10.975
30116SOL    HW292246   5.065   5.359  11.025
30117SOL     OW92247   3.786   2.825   2.942
30117SOL    HW192248   3.821   2.848   3.029
30117SOL    HW292249   3.691   2.815   2.956
30118SOL     OW92250   2.697  12.082   5.634
30118SOL    HW192251   2.624  12.035   5.594
30118SOL    HW292252   2.665  12.104   5.722
30119SOL     OW92253   7.502  10.538   6.719
30119SOL    HW192254   7.591  10.538   6.753
30119SOL    HW292255   7.447  10.514   6.794
30120SOL     OW92256   5.540   2.104  10.042
30120SOL    HW192257   5.606   2.047  10.002
30120SOL    HW292258   5.582   2.190  10.046
30121SOL     OW92259   8.107   0.219   5.371
30121SOL    HW192260   8.033   0.191   5.316
30121SOL    HW292261   8.164   0.142   5.374
30122SOL     OW92262   7.567  12.746   8.961
30122SOL    HW192263   7.634  12.702   8.908
30122SOL    HW292264   7.540  12.821   8.907
30123SOL     OW92265  12.271  13.919  12.784
30123SOL    HW192266  12.290  14.009  12.758
30123SOL    HW292267  12.289  13.916  12.877
30124SOL     OW92268  13.660  11.247  12.476
30124SOL    HW192269  13.739  11.299  12.489
30124SOL    HW292270  13.602  11.274  12.547
30125SOL     OW92271   1.262   7.222  11.557
30125SOL    HW192272   1.281   7.315  11.551
30125SOL    HW292273   1.262   7.203  11.651
30126SOL     OW92274   3.483   1.749   6.769
30126SOL    HW192275   3.544   1.690   6.724
30126SOL    HW292276   3.459   1.814   6.702
30127SOL     OW92277   4.547   0.024   8.913
30127SOL    HW192278   4.475   0.054   8.858
30127SOL    HW292279   4.516  14.811   8.951
30128SOL     OW92280  12.432   6.306   1.006
30128SOL    HW192281  12.440   6.401   0.998
30128SOL    HW292282  12.480   6.271   0.931
30129SOL     OW92283  11.652   4.149   6.058
30129SOL    HW192284  11.617   4.212   5.996
30129SOL    HW292285  11.674   4.072   6.005
30130SOL     OW92286   7.802   2.696   1.218
30130SOL    HW192287   7.829   2.639   1.146
30130SOL    HW292288   7.825   2.784   1.188
30131SOL     OW92289  11.344  11.850   6.968
30131SOL    HW192290  11.358  11.943   6.954
30131SOL    HW292291  11.295  11.821   6.891
30132SOL     OW92292  11.813  12.240   7.180
30132SOL    HW192293  11.726  12.219   7.213
30132SOL    HW292294  11.807  12.225   7.085
30133SOL     OW92295   1.155   3.233  10.234
30133SOL    HW192296   1.077   3.185  10.261
30133SOL    HW292297   1.139   3.323  10.264
30134SOL     OW92298  10.551  11.481   0.593
30134SOL    HW192299  10.568  11.575   0.602
30134SOL    HW292300  10.457  11.472   0.608
30135SOL     OW92301   1.886  12.638  10.011
30135SOL    HW192302   1.896  12.726  10.047
30135SOL    HW292303   1.829  12.593  10.074
30136SOL     OW92304  14.859   9.340  10.160
30136SOL    HW192305  14.825   9.428  10.141
30136SOL    HW292306   0.019   9.346  10.251
30137SOL     OW92307   5.192  12.279  13.326
30137SOL    HW192308   5.283  12.251  13.329
30137SOL    HW292309   5.183  12.341  13.398
30138SOL     OW92310  12.784   7.780   4.143
30138SOL    HW192311  12.828   7.775   4.228
30138SOL    HW292312  12.806   7.867   4.110
30139SOL     OW92313   1.305   4.393  12.905
30139SOL    HW192314   1.284   4.301  12.924
30139SOL    HW292315   1.248   4.415  12.832
30140SOL     OW92316  14.703   7.774   0.009
30140SOL    HW192317  14.766   7.826   0.058
30140SOL    HW292318  14.751   7.696  14.852
30141SOL     OW92319   0.908   4.013  11.725
30141SOL    HW192320   0.978   4.060  11.770
30141SOL    HW292321   0.882   4.071  11.653
30142SOL     OW92322   9.467   2.170   1.647
30142SOL    HW192323   9.459   2.221   1.566
30142SOL    HW292324   9.539   2.212   1.694
30143SOL     OW92325   3.646   4.862  10.917
30143SOL    HW192326   3.719   4.817  10.875
30143SOL    HW292327   3.569   4.836  10.867
30144SOL     OW92328  11.117  10.043   7.253
30144SOL    HW192329  11.093  10.018   7.343
30144SOL    HW292330  11.039  10.088   7.220
30145SOL     OW92331   6.803   4.334   7.162
30145SOL    HW192332   6.777   4.311   7.073
30145SOL    HW292333   6.898   4.321   7.163
30146SOL     OW92334  12.464  11.763   2.192
30146SOL    HW192335  12.495  11.674   2.176
30146SOL    HW292336  12.472  11.774   2.287
30147SOL     OW92337   2.475   4.335   8.303
30147SOL    HW192338   2.481   4.425   8.271
30147SOL    HW292339   2.381   4.321   8.317
30148SOL     OW92340  10.882  14.241   1.587
30148SOL    HW192341  10.968  14.247   1.628
30148SOL    HW292342  10.869  14.147   1.573
30149SOL     OW92343   6.790  12.597   4.732
30149SOL    HW192344   6.788  12.668   4.668
30149SOL    HW292345   6.716  12.541   4.708
30150SOL     OW92346   4.111   4.885   6.130
30150SOL    HW192347   4.109   4.843   6.044
30150SOL    HW292348   4.192   4.854   6.169
30151SOL     OW92349  12.712   5.439   3.023
30151SOL    HW192350  12.622   5.471   3.027
30151SOL    HW292351  12.713   5.363   3.082
30152SOL     OW92352   6.627   8.907   2.363
30152SOL    HW192353   6.642   8.855   2.284
30152SOL    HW292354   6.713   8.912   2.405
30153SOL     OW92355   3.769   6.018   1.479
30153SOL    HW192356   3.810   5.973   1.405
30153SOL    HW292357   3.842   6.048   1.532
30154SOL     OW92358   4.078   3.158   5.694
30154SOL    HW192359   4.157   3.112   5.723
30154SOL    HW292360   4.110   3.228   5.636
30155SOL     OW92361   6.535   5.101   8.546
30155SOL    HW192362   6.587   5.112   8.626
30155SOL    HW292363   6.446   5.123   8.573
30156SOL     OW92364   9.179  12.786   6.403
30156SOL    HW192365   9.146  12.873   6.382
30156SOL    HW292366   9.187  12.742   6.319
30157SOL     OW92367  11.968   4.642   9.047
30157SOL    HW192368  12.055   4.623   9.081
30157SOL    HW292369  11.982   4.711   8.982
30158SOL     OW92370  10.120   1.384   4.864
30158SOL    HW192371  10.183   1.434   4.812
30158SOL    HW292372  10.152   1.392   4.954
30159SOL     OW92373   0.335   0.509   8.758
30159SOL    HW192374   0.364   0.451   8.686
30159SOL    HW292375   0.352   0.597   8.726
30160SOL     OW92376  10.225  12.406  10.942
30160SOL    HW192377  10.318  12.430  10.943
30160SOL    HW292378  10.201  12.400  11.035
30161SOL     OW92379  10.034   2.195   5.100
30161SOL    HW192380  10.006   2.260   5.165
30161SOL    HW292381   9.981   2.118   5.119
30162SOL     OW92382   0.088   6.982   8.001
30162SOL    HW192383   0.082   7.067   7.958
30162SOL    HW292384   0.182   6.965   8.008
30163SOL     OW92385   5.067   8.958  11.201
30163SOL    HW192386   5.135   8.973  11.135
30163SOL    HW292387   4.989   9.001  11.167
30164SOL     OW92388   4.796   7.165  12.058
30164SOL    HW192389   4.744   7.105  12.111
30164SOL    HW292390   4.736   7.235  12.034
30165SOL     OW92391   5.752  14.546  12.408
30165SOL    HW192392   5.787  14.490  12.339
30165SOL    HW292393   5.713  14.620  12.361
30166SOL     OW92394  12.474  12.432   2.451
30166SOL    HW192395  12.535  12.448   2.523
30166SOL    HW292396  12.389  12.458   2.486
30167SOL     OW92397   9.714   0.439   8.191
30167SOL    HW192398   9.676   0.526   8.204
30167SOL    HW292399   9.807   0.451   8.207
30168SOL     OW92400  11.437  12.511  14.618
30168SOL    HW192401  11.398  12.426  14.639
30168SOL    HW292402  11.528  12.503  14.645
30169SOL     OW92403  14.359   5.249   1.891
30169SOL    HW192404  14.370   5.280   1.981
30169SOL    HW292405  14.304   5.315   1.849
30170SOL     OW92406  12.380   0.821   0.348
30170SOL    HW192407  12.359   0.875   0.424
30170SOL    HW292408  12.469   0.790   0.364
30171SOL     OW92409  10.789   4.208  11.597
30171SOL    HW192410  10.694   4.224  11.602
30171SOL    HW292411  10.797   4.113  11.594
30172SOL     OW92412   5.570   5.280  11.871
30172SOL    HW192413   5.588   5.190  11.843
30172SOL    HW292414   5.566   5.331  11.790
30173SOL     OW92415   7.555  12.753   8.538
30173SOL    HW192416   7.632  12.726   8.589
30173SOL    HW292417   7.480  12.730   8.594
30174SOL     OW92418  12.564   5.371   4.238
30174SOL    HW192419  12.561   5.430   4.162
30174SOL    HW292420  12.597   5.289   4.204
30175SOL     OW92421  12.458  11.327   2.249
30175SOL    HW192422  12.499  11.320   2.336
30175SOL    HW292423  12.519  11.282   2.190
30176SOL     OW92424   6.202   8.343   1.694
30176SOL    HW192425   6.268   8.353   1.762
30176SOL    HW292426   6.243   8.285   1.630
30177SOL     OW92427   0.915   6.699   0.887
30177SOL    HW192428   0.887   6.776   0.838
30177SOL    HW292429   0.987   6.662   0.835
30178SOL     OW92430  11.871   7.221   0.936
30178SOL    HW192431  11.913   7.144   0.975
30178SOL    HW292432  11.779   7.195   0.927
30179SOL     OW92433   4.857  10.958   1.506
30179SOL    HW192434   4.870  10.863   1.498
30179SOL    HW292435   4.804  10.981   1.430
30180SOL     OW92436  13.855  12.719   6.761
30180SOL    HW192437  13.896  12.796   6.722
30180SOL    HW292438  13.761  12.731   6.746
30181SOL     OW92439   6.243  14.430  14.445
30181SOL    HW192440   6.154  14.433  14.480
30181SOL    HW292441   6.235  14.378  14.365
30182SOL     OW92442   8.327  13.444   1.873
30182SOL    HW192443   8.330  13.364   1.926
30182SOL    HW292444   8.372  13.421   1.792
30183SOL     OW92445  10.865  13.648   6.018
30183SOL    HW192446  10.872  13.743   6.034
30183SOL    HW292447  10.955  13.622   5.998
30184SOL     OW92448  11.946   4.680   6.397
30184SOL    HW192449  12.002   4.737   6.345
30184SOL    HW292450  11.943   4.721   6.483
30185SOL     OW92451   3.970   2.408   1.373
30185SOL    HW192452   3.908   2.338   1.354
30185SOL    HW292453   3.953   2.474   1.306
30186SOL     OW92454  12.320  13.589   8.558
30186SOL    HW192455  12.330  13.660   8.621
30186SOL    HW292456  12.354  13.625   8.476
30187SOL     OW92457   9.928   3.999   1.759
30187SOL    HW192458   9.959   4.086   1.732
30187SOL    HW292459   9.973   3.983   1.842
30188SOL     OW92460  11.931   8.961   3.717
30188SOL    HW192461  12.019   8.987   3.742
30188SOL    HW292462  11.893   8.926   3.798
30189SOL     OW92463   2.995   6.649  12.926
30189SOL    HW192464   3.018   6.630  12.835
30189SOL    HW292465   2.935   6.724  12.920
30190SOL     OW92466   8.307   9.090  14.197
30190SOL    HW192467   8.337   9.013  14.244
30190SOL    HW292468   8.289   9.155  14.266
30191SOL     OW92469   1.446  13.634  13.916
30191SOL    HW192470   1.529  13.595  13.941
30191SOL    HW292471   1.382  13.593  13.974
30192SOL     OW92472   5.561   0.416   2.446
30192SOL    HW192473   5.487   0.376   2.399
30192SOL    HW292474   5.589   0.488   2.390
30193SOL     OW92475  12.777   9.271   9.266
30193SOL    HW192476  12.861   9.247   9.304
30193SOL    HW292477  12.786   9.250   9.173
30194SOL     OW92478  13.585   8.635  12.060
30194SOL    HW192479  13.545   8.569  12.116
30194SOL    HW292480  13.627   8.585  11.989
30195SOL     OW92481   2.481  13.254   1.101
30195SOL    HW192482   2.574  13.232   1.094
30195SOL    HW292483   2.477  13.348   1.086
30196SOL     OW92484   2.902   9.707  11.713
30196SOL    HW192485   2.911   9.789  11.665
30196SOL    HW292486   2.892   9.641  11.645
30197SOL     OW92487   1.834  13.588   0.281
30197SOL    HW192488   1.896  13.660   0.274
30197SOL    HW292489   1.757  13.617   0.233
30198SOL     OW92490  11.140   5.305  11.763
30198SOL    HW192491  11.130   5.396  11.792
30198SOL    HW292492  11.182   5.261  11.837
30199SOL     OW92493   1.203   3.936   8.196
30199SOL    HW192494   1.169   4.020   8.226
30199SOL    HW292495   1.298   3.944   8.203
30200SOL     OW92496   0.352   9.175  11.535
30200SOL    HW192497   0.397   9.237  11.591
30200SOL    HW292498   0.330   9.224  11.456
30201SOL     OW92499   3.380   6.361   6.801
30201SOL    HW192500   3.422   6.444   6.827
30201SOL    HW292501   3.448   6.314   6.753
30202SOL     OW92502  14.426   1.335   7.298
30202SOL    HW192503  14.374   1.376   7.367
30202SOL    HW292504  14.367   1.271   7.258
30203SOL     OW92505  12.589  13.978   9.659
30203SOL    HW192506  12.534  13.906   9.691
30203SOL    HW292507  12.674  13.963   9.700
30204SOL     OW92508   7.885   6.834   4.928
30204SOL    HW192509   7.969   6.881   4.924
30204SOL    HW292510   7.849   6.857   5.014
30205SOL     OW92511   2.743   1.816   8.980
30205SOL    HW192512   2.772   1.730   9.011
30205SOL    HW292513   2.818   1.874   8.993
30206SOL     OW92514   4.999   7.049   8.150
30206SOL    HW192515   4.936   7.055   8.078
30206SOL    HW292516   5.064   7.117   8.131
30207SOL     OW92517   9.157   3.340   6.376
30207SOL    HW192518   9.063   3.324   6.368
30207SOL    HW292519   9.164   3.431   6.405
30208SOL     OW92520  11.078   7.825  14.239
30208SOL    HW192521  11.173   7.816  14.231
30208SOL    HW292522  11.056   7.904  14.190
30209SOL     OW92523   7.167   1.547  12.074
30209SOL    HW192524   7.106   1.620  12.073
30209SOL    HW292525   7.235   1.572  12.012
30210SOL     OW92526  13.362   7.008   8.667
30210SOL    HW192527  13.300   6.939   8.691
30210SOL    HW292528  13.401   6.977   8.585
30211SOL     OW92529   8.741   3.200   2.138
30211SOL    HW192530   8.804   3.256   2.094
30211SOL    HW292531   8.750   3.115   2.095
30212SOL     OW92532   9.308   4.439  11.599
30212SOL    HW192533   9.266   4.362  11.636
30212SOL    HW292534   9.246   4.510  11.614
30213SOL     OW92535   9.315   8.451  14.047
30213SOL    HW192536   9.367   8.532  14.045
30213SOL    HW292537   9.252   8.465  14.118
30214SOL     OW92538  10.661   4.093   7.727
30214SOL    HW192539  10.741   4.067   7.773
30214SOL    HW292540  10.590   4.063   7.785
30215SOL     OW92541  10.306   0.965   2.274
30215SOL    HW192542  10.264   0.935   2.354
30215SOL    HW292543  10.328   0.884   2.227
30216SOL     OW92544  12.531   5.732   9.268
30216SOL    HW192545  12.485   5.651   9.291
30216SOL    HW292546  12.568   5.762   9.351
30217SOL     OW92547   3.202   2.757  12.738
30217SOL    HW192548   3.286   2.720  12.711
30217SOL    HW292549   3.205   2.756  12.833
30218SOL     OW92550  11.799   9.313  10.047
30218SOL    HW192551  11.798   9.254  10.123
30218SOL    HW292552  11.891   9.339  10.038
30219SOL     OW92553   9.785   2.259   4.289
30219SOL    HW192554   9.719   2.256   4.358
30219SOL    HW292555   9.737   2.286   4.211
30220SOL     OW92556   0.753   7.578   6.114
30220SOL    HW192557   0.805   7.538   6.184
30220SOL    HW292558   0.673   7.607   6.157
30221SOL     OW92559   0.675  10.316   1.519
30221SOL    HW192560   0.718  10.238   1.484
30221SOL    HW292561   0.609  10.283   1.579
30222SOL     OW92562   0.873   1.800   6.328
30222SOL    HW192563   0.838   1.804   6.239
30222SOL    HW292564   0.933   1.725   6.326
30223SOL     OW92565  12.985   2.542  13.369
30223SOL    HW192566  12.997   2.485  13.444
30223SOL    HW292567  13.037   2.502  13.299
30224SOL     OW92568  10.415   9.860  12.370
30224SOL    HW192569  10.501   9.818  12.371
30224SOL    HW292570  10.370   9.826  12.448
30225SOL     OW92571   0.297  10.782  14.607
30225SOL    HW192572   0.319  10.773  14.514
30225SOL    HW292573   0.305  10.876  14.625
30226SOL     OW92574  13.766   0.950   2.444
30226SOL    HW192575  13.753   1.013   2.373
30226SOL    HW292576  13.678   0.931   2.476
30227SOL     OW92577   7.729   5.926   5.044
30227SOL    HW192578   7.634   5.919   5.036
30227SOL    HW292579   7.744   6.014   5.079
30228SOL     OW92580   8.848   5.888   1.856
30228SOL    HW192581   8.754   5.896   1.867
30228SOL    HW292582   8.884   5.904   1.943
30229SOL     OW92583  12.448   8.195  10.727
30229SOL    HW192584  12.435   8.179  10.821
30229SOL    HW292585  12.443   8.290  10.718
30230SOL     OW92586   3.201   5.845  11.938
30230SOL    HW192587   3.227   5.769  11.990
30230SOL    HW292588   3.115   5.821  11.902
30231SOL     OW92589   1.842   5.109   7.310
30231SOL    HW192590   1.852   5.167   7.385
30231SOL    HW292591   1.749   5.086   7.310
30232SOL     OW92592   8.695   4.912  10.521
30232SOL    HW192593   8.728   4.852  10.588
30232SOL    HW292594   8.702   4.863  10.439
30233SOL     OW92595   3.561   8.220   9.783
30233SOL    HW192596   3.616   8.298   9.774
30233SOL    HW292597   3.524   8.227   9.871
30234SOL     OW92598   9.659   2.188  13.268
30234SOL    HW192599   9.589   2.125  13.284
30234SOL    HW292600   9.730   2.160  13.326
30235SOL     OW92601  12.762   7.829   5.925
30235SOL    HW192602  12.793   7.753   5.875
30235SOL    HW292603  12.760   7.900   5.861
30236SOL     OW92604   9.185  10.418   1.327
30236SOL    HW192605   9.101  10.458   1.352
30236SOL    HW292606   9.165  10.324   1.321
30237SOL     OW92607   8.473   0.302  11.052
30237SOL    HW192608   8.557   0.346  11.041
30237SOL    HW292609   8.408   0.371  11.043
30238SOL     OW92610  12.120   1.298   3.392
30238SOL    HW192611  12.168   1.347   3.325
30238SOL    HW292612  12.137   1.345   3.473
30239SOL     OW92613  10.465   7.042  11.907
30239SOL    HW192614  10.466   6.948  11.886
30239SOL    HW292615  10.373   7.067  11.900
30240SOL     OW92616   3.083   7.874  14.763
30240SOL    HW192617   3.039   7.914  14.838
30240SOL    HW292618   3.013   7.827  14.717
30241SOL     OW92619  12.275   5.196   1.589
30241SOL    HW192620  12.189   5.233   1.612
30241SOL    HW292621  12.283   5.118   1.644
30242SOL     OW92622  13.394   6.818   0.673
30242SOL    HW192623  13.475   6.868   0.675
30242SOL    HW292624  13.364   6.823   0.582
30243SOL     OW92625   3.043   3.147   5.240
30243SOL    HW192626   3.037   3.073   5.301
30243SOL    HW292627   3.137   3.163   5.232
30244SOL     OW92628   9.788   4.415   3.573
30244SOL    HW192629   9.870   4.457   3.597
30244SOL    HW292630   9.790   4.412   3.477
30245SOL     OW92631   4.343  10.218   1.232
30245SOL    HW192632   4.344  10.195   1.139
30245SOL    HW292633   4.336  10.133   1.277
30246SOL     OW92634   1.141   0.734   3.968
30246SOL    HW192635   1.087   0.680   4.026
30246SOL    HW292636   1.164   0.675   3.896
30247SOL     OW92637  10.336  10.507   9.520
30247SOL    HW192638  10.381  10.475   9.442
30247SOL    HW292639  10.244  10.508   9.495
30248SOL     OW92640  12.572   6.782   7.492
30248SOL    HW192641  12.540   6.863   7.532
30248SOL    HW292642  12.622   6.812   7.416
30249SOL     OW92643   2.020  10.872   3.083
30249SOL    HW192644   1.926  10.879   3.065
30249SOL    HW292645   2.062  10.911   3.007
30250SOL     OW92646   4.491   0.556  10.732
30250SOL    HW192647   4.549   0.548  10.807
30250SOL    HW292648   4.491   0.650  10.712
30251SOL     OW92649   7.762  11.608   8.126
30251SOL    HW192650   7.769  11.568   8.040
30251SOL    HW292651   7.670  11.634   8.134
30252SOL     OW92652   0.832   6.762  13.856
30252SOL    HW192653   0.857   6.818  13.930
30252SOL    HW292654   0.878   6.680  13.871
30253SOL     OW92655   4.690  12.878   5.148
30253SOL    HW192656   4.666  12.950   5.207
30253SOL    HW292657   4.606  12.844   5.117
30254SOL     OW92658   5.317   1.320   7.098
30254SOL    HW192659   5.229   1.354   7.082
30254SOL    HW292660   5.304   1.230   7.127
30255SOL     OW92661   5.238   0.579   7.957
30255SOL    HW192662   5.296   0.627   8.017
30255SOL    HW292663   5.221   0.496   8.001
30256SOL     OW92664   9.242  11.975  13.541
30256SOL    HW192665   9.290  12.055  13.520
30256SOL    HW292666   9.270  11.912  13.474
30257SOL     OW92667   5.318   7.404   7.135
30257SOL    HW192668   5.236   7.411   7.183
30257SOL    HW292669   5.292   7.392   7.044
30258SOL     OW92670   6.028   0.877  10.469
30258SOL    HW192671   6.081   0.949  10.502
30258SOL    HW292672   6.044   0.877  10.375
30259SOL     OW92673   1.983   1.630   6.221
30259SOL    HW192674   2.057   1.690   6.218
30259SOL    HW292675   1.955   1.621   6.129
30260SOL     OW92676  13.914   0.583   0.121
30260SOL    HW192677  13.986   0.617   0.173
30260SOL    HW292678  13.938   0.492   0.103
30261SOL     OW92679   5.396   2.023  12.419
30261SOL    HW192680   5.360   2.086  12.358
30261SOL    HW292681   5.320   1.970  12.446
30262SOL     OW92682  10.273   9.925   7.462
30262SOL    HW192683  10.245   9.840   7.496
30262SOL    HW292684  10.208   9.987   7.496
30263SOL     OW92685   3.983  12.784   8.741
30263SOL    HW192686   4.037  12.781   8.662
30263SOL    HW292687   3.954  12.694   8.754
30264SOL     OW92688  13.031   9.581   6.687
30264SOL    HW192689  13.036   9.556   6.595
30264SOL    HW292690  12.939   9.607   6.699
30265SOL     OW92691   5.953  14.187   3.929
30265SOL    HW192692   5.917  14.135   4.000
30265SOL    HW292693   5.938  14.134   3.850
30266SOL     OW92694  12.582   8.565  13.787
30266SOL    HW192695  12.551   8.478  13.811
30266SOL    HW292696  12.583   8.565  13.692
30267SOL     OW92697   0.509  13.403  11.302
30267SOL    HW192698   0.523  13.373  11.392
30267SOL    HW292699   0.516  13.498  11.307
30268SOL     OW92700  11.057  12.315   4.618
30268SOL    HW192701  11.013  12.329   4.702
30268SOL    HW292702  11.050  12.220   4.603
30269SOL     OW92703   2.556  10.881   8.353
30269SOL    HW192704   2.471  10.921   8.369
30269SOL    HW292705   2.584  10.918   8.269
30270SOL     OW92706   8.806   9.894   9.743
30270SOL    HW192707   8.862   9.970   9.728
30270SOL    HW292708   8.718   9.932   9.754
30271SOL     OW92709   6.148   9.005  14.353
30271SOL    HW192710   6.161   8.911  14.368
30271SOL    HW292711   6.218   9.030  14.294
30272SOL     OW92712   5.109   6.855   1.398
30272SOL    HW192713   5.140   6.919   1.335
30272SOL    HW292714   5.071   6.785   1.345
30273SOL     OW92715  11.604  10.831   4.076
30273SOL    HW192716  11.667  10.872   4.016
30273SOL    HW292717  11.524  10.822   4.024
30274SOL     OW92718   3.791  11.843   8.939
30274SOL    HW192719   3.867  11.901   8.949
30274SOL    HW292720   3.758  11.832   9.028
30275SOL     OW92721   5.514   5.294   8.688
30275SOL    HW192722   5.585   5.298   8.753
30275SOL    HW292723   5.545   5.231   8.623
30276SOL     OW92724  13.686   4.661  11.332
30276SOL    HW192725  13.781   4.650  11.327
30276SOL    HW292726  13.672   4.722  11.404
30277SOL     OW92727  12.181  11.165   6.646
30277SOL    HW192728  12.174  11.196   6.736
30277SOL    HW292729  12.275  11.165   6.627
30278SOL     OW92730   2.567  12.538  12.885
30278SOL    HW192731   2.552  12.461  12.941
30278SOL    HW292732   2.614  12.599  12.940
30279SOL     OW92733  13.032   4.068   2.565
30279SOL    HW192734  13.120   4.049   2.533
30279SOL    HW292735  13.037   4.158   2.598
30280SOL     OW92736   4.486   6.122  14.135
30280SOL    HW192737   4.459   6.052  14.076
30280SOL    HW292738   4.560   6.085  14.183
30281SOL     OW92739   8.877   2.859  13.412
30281SOL    HW192740   8.911   2.812  13.489
30281SOL    HW292741   8.955   2.893  13.369
30282SOL     OW92742  13.164   9.483   6.020
30282SOL    HW192743  13.217   9.562   6.030
30282SOL    HW292744  13.220   9.412   6.051
30283SOL     OW92745   9.334   3.250   9.359
30283SOL    HW192746   9.336   3.218   9.449
30283SOL    HW292747   9.253   3.302   9.354
30284SOL     OW92748   0.995   4.461   0.650
30284SOL    HW192749   0.971   4.451   0.557
30284SOL    HW292750   1.047   4.383   0.669
30285SOL     OW92751   1.669   1.987   4.015
30285SOL    HW192752   1.721   1.996   4.095
30285SOL    HW292753   1.594   1.933   4.040
30286SOL     OW92754   3.011  11.270   2.824
30286SOL    HW192755   2.955  11.337   2.786
30286SOL    HW292756   2.951  11.200   2.851
30287SOL     OW92757  11.941   6.912  14.393
30287SOL    HW192758  11.974   6.829  14.359
30287SOL    HW292759  11.855   6.922  14.352
30288SOL     OW92760  10.709   7.476   9.357
30288SOL    HW192761  10.787   7.460   9.411
30288SOL    HW292762  10.722   7.565   9.324
30289SOL     OW92763   3.684  14.069   8.711
30289SOL    HW192764   3.620  14.039   8.646
30289SOL    HW292765   3.735  14.135   8.665
30290SOL     OW92766   7.325   6.509  12.928
30290SOL    HW192767   7.325   6.478  13.018
30290SOL    HW292768   7.251   6.465  12.887
30291SOL     OW92769   8.387  12.560  11.591
30291SOL    HW192770   8.386  12.650  11.556
30291SOL    HW292771   8.470  12.552  11.636
30292SOL     OW92772   1.394   4.012   4.265
30292SOL    HW192773   1.428   3.924   4.249
30292SOL    HW292774   1.320   4.020   4.204
30293SOL     OW92775   9.145  11.147  14.150
30293SOL    HW192776   9.164  11.193  14.232
30293SOL    HW292777   9.125  11.058  14.176
30294SOL     OW92778   3.214   1.676   5.966
30294SOL    HW192779   3.286   1.614   5.967
30294SOL    HW292780   3.150   1.642   6.028
30295SOL     OW92781   0.992  12.160   8.926
30295SOL    HW192782   1.048  12.195   8.995
30295SOL    HW292783   1.051  12.150   8.851
30296SOL     OW92784   2.069  12.090   2.358
30296SOL    HW192785   1.973  12.085   2.362
30296SOL    HW292786   2.099  12.003   2.384
30297SOL     OW92787   8.952   2.846  12.292
30297SOL    HW192788   8.886   2.839  12.223
30297SOL    HW292789   8.902   2.841  12.373
30298SOL     OW92790  11.076   0.927   7.563
30298SOL    HW192791  11.096   0.934   7.657
30298SOL    HW292792  11.135   0.989   7.521
30299SOL     OW92793  13.893   8.767   0.529
30299SOL    HW192794  13.813   8.720   0.504
30299SOL    HW292795  13.864   8.827   0.597
30300SOL     OW92796  13.617   1.315   7.241
30300SOL    HW192797  13.548   1.379   7.221
30300SOL    HW292798  13.622   1.316   7.337
30301SOL     OW92799   2.549  13.422   4.946
30301SOL    HW192800   2.537  13.332   4.977
30301SOL    HW292801   2.557  13.474   5.026
30302SOL     OW92802   6.533  11.928  13.879
30302SOL    HW192803   6.626  11.909  13.868
30302SOL    HW292804   6.516  11.999  13.817
30303SOL     OW92805   1.409  13.228   3.092
30303SOL    HW192806   1.470  13.194   3.156
30303SOL    HW292807   1.369  13.151   3.052
30304SOL     OW92808   1.633   2.658   8.815
30304SOL    HW192809   1.566   2.670   8.882
30304SOL    HW292810   1.673   2.744   8.805
30305SOL     OW92811   2.963   0.200   4.576
30305SOL    HW192812   2.907   0.253   4.634
30305SOL    HW292813   3.014   0.265   4.528
30306SOL     OW92814  14.281   1.899   0.431
30306SOL    HW192815  14.309   1.855   0.511
30306SOL    HW292816  14.354   1.956   0.408
30307SOL     OW92817  11.673   7.029   9.531
30307SOL    HW192818  11.751   7.052   9.582
30307SOL    HW292819  11.600   7.065   9.581
30308SOL     OW92820   3.614   3.709  14.809
30308SOL    HW192821   3.581   3.626  14.842
30308SOL    HW292822   3.635   3.759   0.018
30309SOL     OW92823   8.324  12.884   3.932
30309SOL    HW192824   8.278  12.879   4.015
30309SOL    HW292825   8.273  12.830   3.872
30310SOL     OW92826  14.864   3.436  10.700
30310SOL    HW192827  14.829   3.440  10.611
30310SOL    HW292828  14.797   3.478  10.754
30311SOL     OW92829   9.369  14.612   6.638
30311SOL    HW192830   9.337  14.524   6.659
30311SOL    HW292831   9.328  14.633   6.555
30312SOL     OW92832  10.399   8.827  13.257
30312SOL    HW192833  10.356   8.844  13.341
30312SOL    HW292834  10.353   8.883  13.195
30313SOL     OW92835   8.151   1.601   7.603
30313SOL    HW192836   8.079   1.640   7.554
30313SOL    HW292837   8.185   1.672   7.657
30314SOL     OW92838   6.699  11.651   4.835
30314SOL    HW192839   6.704  11.676   4.927
30314SOL    HW292840   6.733  11.726   4.787
30315SOL     OW92841   9.704  14.625   4.009
30315SOL    HW192842   9.779  14.593   3.959
30315SOL    HW292843   9.742  14.684   4.074
30316SOL     OW92844  11.017   1.730   8.250
30316SOL    HW192845  10.959   1.766   8.317
30316SOL    HW292846  11.032   1.640   8.277
30317SOL     OW92847   0.020   8.077   9.690
30317SOL    HW192848  14.857   8.167   9.679
30317SOL    HW292849  14.822   8.033   9.741
30318SOL     OW92850  11.111  11.578   6.374
30318SOL    HW192851  11.031  11.531   6.350
30318SOL    HW292852  11.084  11.670   6.378
30319SOL     OW92853  13.445   2.023   4.609
30319SOL    HW192854  13.485   1.959   4.669
30319SOL    HW292855  13.375   1.974   4.566
30320SOL     OW92856   4.783  13.742   5.406
30320SOL    HW192857   4.713  13.799   5.374
30320SOL    HW292858   4.761  13.726   5.498
30321SOL     OW92859  12.656   8.530  10.974
30321SOL    HW192860  12.615   8.591  11.035
30321SOL    HW292861  12.727   8.490  11.025
30322SOL     OW92862   1.464   7.283  14.181
30322SOL    HW192863   1.489   7.245  14.097
30322SOL    HW292864   1.388   7.232  14.209
30323SOL     OW92865   2.631   1.076   5.786
30323SOL    HW192866   2.644   1.131   5.709
30323SOL    HW292867   2.559   1.118   5.833
30324SOL     OW92868   9.378   3.439   4.298
30324SOL    HW192869   9.306   3.442   4.362
30324SOL    HW292870   9.342   3.388   4.225
30325SOL     OW92871   7.459   2.711   4.872
30325SOL    HW192872   7.478   2.626   4.912
30325SOL    HW292873   7.496   2.775   4.933
30326SOL     OW92874   7.716  12.551  13.603
30326SOL    HW192875   7.759  12.636  13.595
30326SOL    HW292876   7.732  12.525  13.694
30327SOL     OW92877  13.067  10.441  10.480
30327SOL    HW192878  12.999  10.380  10.449
30327SOL    HW292879  13.074  10.507  10.412
30328SOL     OW92880   9.868  11.080   0.807
30328SOL    HW192881   9.824  11.158   0.839
30328SOL    HW292882   9.960  11.106   0.799
30329SOL     OW92883   4.116  11.365   2.360
30329SOL    HW192884   4.149  11.418   2.432
30329SOL    HW292885   4.151  11.277   2.376
30330SOL     OW92886   6.099   0.858   7.141
30330SOL    HW192887   6.041   0.897   7.075
30330SOL    HW292888   6.137   0.932   7.188
30331SOL     OW92889  14.557   9.210   0.567
30331SOL    HW192890  14.581   9.220   0.660
30331SOL    HW292891  14.493   9.279   0.551
30332SOL     OW92892   9.238   6.508   1.541
30332SOL    HW192893   9.333   6.501   1.546
30332SOL    HW292894   9.206   6.438   1.597
30333SOL     OW92895   7.520   4.605   4.753
30333SOL    HW192896   7.454   4.619   4.684
30333SOL    HW292897   7.574   4.684   4.751
30334SOL     OW92898   6.499   1.724  14.339
30334SOL    HW192899   6.488   1.650  14.398
30334SOL    HW292900   6.439   1.791  14.373
30335SOL     OW92901  10.369   5.813  14.865
30335SOL    HW192902  10.442   5.769  14.821
30335SOL    HW292903  10.331   5.869  14.797
30336SOL     OW92904  10.203   8.545   3.447
30336SOL    HW192905  10.167   8.616   3.394
30336SOL    HW292906  10.177   8.465   3.401
30337SOL     OW92907   0.926   0.647   9.739
30337SOL    HW192908   0.988   0.710   9.702
30337SOL    HW292909   0.908   0.681   9.827
30338SOL     OW92910   2.628  11.502  11.863
30338SOL    HW192911   2.556  11.441  11.844
30338SOL    HW292912   2.606  11.581  11.813
30339SOL     OW92913   8.133   1.908   0.038
30339SOL    HW192914   8.109   1.818   0.058
30339SOL    HW292915   8.060   1.960   0.072
30340SOL     OW92916   8.323   4.715   4.214
30340SOL    HW192917   8.266   4.690   4.142
30340SOL    HW292918   8.336   4.634   4.264
30341SOL     OW92919   3.281  13.915  11.789
30341SOL    HW192920   3.223  13.872  11.852
30341SOL    HW292921   3.234  13.995  11.764
30342SOL     OW92922   4.328   8.740   3.419
30342SOL    HW192923   4.347   8.681   3.346
30342SOL    HW292924   4.362   8.825   3.391
30343SOL     OW92925   1.521  10.149   9.473
30343SOL    HW192926   1.616  10.160   9.466
30343SOL    HW292927   1.509  10.077   9.535
30344SOL     OW92928   0.243   0.688   3.037
30344SOL    HW192929   0.313   0.697   2.972
30344SOL    HW292930   0.167   0.659   2.987
30345SOL     OW92931  10.215  12.739   1.982
30345SOL    HW192932  10.229  12.670   1.918
30345SOL    HW292933  10.122  12.733   2.004
30346SOL     OW92934   7.697  13.069   2.647
30346SOL    HW192935   7.724  13.128   2.717
30346SOL    HW292936   7.648  12.999   2.691
30347SOL     OW92937  10.852  14.608   5.255
30347SOL    HW192938  10.857  14.620   5.160
30347SOL    HW292939  10.943  14.614   5.285
30348SOL     OW92940   2.258   5.639   7.016
30348SOL    HW192941   2.272   5.553   7.056
30348SOL    HW292942   2.163   5.653   7.024
30349SOL     OW92943   8.259   8.791  13.173
30349SOL    HW192944   8.199   8.788  13.098
30349SOL    HW292945   8.345   8.774  13.136
30350SOL     OW92946  10.481   3.918  11.391
30350SOL    HW192947  10.446   3.944  11.306
30350SOL    HW292948  10.461   3.825  11.398
30351SOL     OW92949   1.565  13.368   6.047
30351SOL    HW192950   1.559  13.424   5.969
30351SOL    HW292951   1.485  13.385   6.095
30352SOL     OW92952   0.489   1.561  11.505
30352SOL    HW192953   0.437   1.527  11.432
30352SOL    HW292954   0.523   1.645  11.473
30353SOL     OW92955   9.849   7.952   8.750
30353SOL    HW192956   9.803   7.982   8.828
30353SOL    HW292957   9.890   7.870   8.777
30354SOL     OW92958  11.010  14.529   5.635
30354SOL    HW192959  10.938  14.585   5.664
30354SOL    HW292960  11.032  14.561   5.547
30355SOL     OW92961   2.704   5.730   3.843
30355SOL    HW192962   2.653   5.711   3.764
30355SOL    HW292963   2.761   5.654   3.855
30356SOL     OW92964   4.614   2.605   7.151
30356SOL    HW192965   4.659   2.535   7.198
30356SOL    HW292966   4.677   2.676   7.148
30357SOL     OW92967  13.992   9.245   3.452
30357SOL    HW192968  13.916   9.299   3.472
30357SOL    HW292969  14.039   9.294   3.384
30358SOL     OW92970  12.459   6.212  12.724
30358SOL    HW192971  12.433   6.300  12.696
30358SOL    HW292972  12.489   6.169  12.644
30359SOL     OW92973   0.989   9.382  12.525
30359SOL    HW192974   1.047   9.349  12.593
30359SOL    HW292975   1.047   9.426  12.463
30360SOL     OW92976   5.148   3.332   3.293
30360SOL    HW192977   5.148   3.392   3.368
30360SOL    HW292978   5.152   3.389   3.216
30361SOL     OW92979  11.755  14.283   8.099
30361SOL    HW192980  11.761  14.275   8.004
30361SOL    HW292981  11.663  14.267   8.119
30362SOL     OW92982   1.605   5.251   4.097
30362SOL    HW192983   1.522   5.204   4.110
30362SOL    HW292984   1.654   5.195   4.036
30363SOL     OW92985   9.963  10.774   8.942
30363SOL    HW192986  10.029  10.810   8.883
30363SOL    HW292987   9.934  10.693   8.899
30364SOL     OW92988   2.255   0.967   9.378
30364SOL    HW192989   2.167   0.993   9.349
30364SOL    HW292990   2.275   0.890   9.326
30365SOL     OW92991   5.790  14.337   7.849
30365SOL    HW192992   5.759  14.427   7.860
30365SOL    HW292993   5.867  14.331   7.905
30366SOL     OW92994   1.511   0.288   2.276
30366SOL    HW192995   1.557   0.207   2.254
30366SOL    HW292996   1.574   0.357   2.255
30367SOL     OW92997   6.838  11.046  13.079
30367SOL    HW192998   6.814  11.124  13.129
30367SOL    HW292999   6.757  10.997  13.071
30368SOL     OW93000   1.616  13.288   1.585
30368SOL    HW193001   1.579  13.270   1.671
30368SOL    HW293002   1.624  13.383   1.581
30369SOL     OW93003   6.084   3.744   6.923
30369SOL    HW193004   6.129   3.820   6.959
30369SOL    HW293005   6.029   3.780   6.853
30370SOL     OW93006  14.561   8.506   3.477
30370SOL    HW193007  14.475   8.497   3.437
30370SOL    HW293008  14.597   8.418   3.477
30371SOL     OW93009   7.752  12.525  14.119
30371SOL    HW193010   7.730  12.480  14.200
30371SOL    HW293011   7.831  12.575  14.140
30372SOL     OW93012   7.971   7.060   1.261
30372SOL    HW193013   8.013   7.141   1.231
30372SOL    HW293014   7.896   7.090   1.312
30373SOL     OW93015   8.057   0.243   9.140
30373SOL    HW193016   8.064   0.227   9.046
30373SOL    HW293017   7.985   0.306   9.148
30374SOL     OW93018   5.518   0.216   5.412
30374SOL    HW193019   5.551   0.128   5.425
30374SOL    HW293020   5.462   0.232   5.488
30375SOL     OW93021   3.034  10.597   0.053
30375SOL    HW193022   3.025  10.691   0.042
30375SOL    HW293023   3.100  10.571  14.857
30376SOL     OW93024  10.929   0.488   7.739
30376SOL    HW193025  10.978   0.512   7.817
30376SOL    HW293026  10.942   0.561   7.679
30377SOL     OW93027   7.838  14.586   4.170
30377SOL    HW193028   7.926  14.601   4.133
30377SOL    HW293029   7.792  14.668   4.156
30378SOL     OW93030   2.253   0.426   9.773
30378SOL    HW193031   2.333   0.374   9.785
30378SOL    HW293032   2.223   0.443   9.862
30379SOL     OW93033  12.341  12.877   9.490
30379SOL    HW193034  12.423  12.918   9.461
30379SOL    HW293035  12.367  12.791   9.522
30380SOL     OW93036  14.529   6.856   4.554
30380SOL    HW193037  14.456   6.887   4.608
30380SOL    HW293038  14.488   6.829   4.472
30381SOL     OW93039   0.954  11.453   6.460
30381SOL    HW193040   1.036  11.409   6.484
30381SOL    HW293041   0.893  11.432   6.531
30382SOL     OW93042   8.986  12.189  10.300
30382SOL    HW193043   8.988  12.175  10.205
30382SOL    HW293044   9.076  12.175  10.329
30383SOL     OW93045  12.866   6.251   7.461
30383SOL    HW193046  12.834   6.314   7.525
30383SOL    HW293047  12.810   6.174   7.473
30384SOL     OW93048   9.767  14.070  13.365
30384SOL    HW193049   9.843  14.098  13.313
30384SOL    HW293050   9.784  13.977  13.384
30385SOL     OW93051   0.054   8.365  12.647
30385SOL    HW193052   0.148   8.362  12.632
30385SOL    HW293053   0.017   8.396  12.564
30386SOL     OW93054  13.310   7.782   2.919
30386SOL    HW193055  13.219   7.809   2.912
30386SOL    HW293056  13.306   7.694   2.958
30387SOL     OW93057  13.176   5.248   4.261
30387SOL    HW193058  13.154   5.306   4.188
30387SOL    HW293059  13.175   5.160   4.223
30388SOL     OW93060   4.668  12.332   4.515
30388SOL    HW193061   4.694  12.241   4.528
30388SOL    HW293062   4.592  12.344   4.573
30389SOL     OW93063  10.185  13.994   4.582
30389SOL    HW193064  10.209  13.963   4.669
30389SOL    HW293065  10.198  14.089   4.586
30390SOL     OW93066  13.242   5.687  13.874
30390SOL    HW193067  13.287   5.705  13.956
30390SOL    HW293068  13.257   5.594  13.858
30391SOL     OW93069   5.216   3.953   5.753
30391SOL    HW193070   5.187   3.970   5.663
30391SOL    HW293071   5.237   3.860   5.755
30392SOL     OW93072  13.476   3.769  13.833
30392SOL    HW193073  13.402   3.718  13.864
30392SOL    HW293074  13.438   3.832  13.772
30393SOL     OW93075  11.307   2.948   3.222
30393SOL    HW193076  11.298   3.010   3.150
30393SOL    HW293077  11.241   2.977   3.286
30394SOL     OW93078  13.458   0.735   4.838
30394SOL    HW193079  13.495   0.812   4.880
30394SOL    HW293080  13.363   0.751   4.839
30395SOL     OW93081   2.556   6.698   9.474
30395SOL    HW193082   2.474   6.659   9.444
30395SOL    HW293083   2.623   6.662   9.416
30396SOL     OW93084  14.020   9.788   4.794
30396SOL    HW193085  13.968   9.789   4.713
30396SOL    HW293086  13.995   9.706   4.837
30397SOL     OW93087  11.666   8.425   6.734
30397SOL    HW193088  11.602   8.495   6.726
30397SOL    HW293089  11.703   8.435   6.822
30398SOL     OW93090  10.011   7.281   4.180
30398SOL    HW193091   9.946   7.347   4.204
30398SOL    HW293092   9.966   7.198   4.190
30399SOL     OW93093   4.092   6.795   7.531
30399SOL    HW193094   4.130   6.714   7.498
30399SOL    HW293095   4.166   6.855   7.539
30400SOL     OW93096   8.318  13.287   0.972
30400SOL    HW193097   8.339  13.358   0.911
30400SOL    HW293098   8.274  13.222   0.917
30401SOL     OW93099  10.473  11.061   9.651
30401SOL    HW193100  10.454  11.049   9.558
30401SOL    HW293101  10.387  11.079   9.690
30402SOL     OW93102   5.741   1.653   9.998
30402SOL    HW193103   5.736   1.693  10.085
30402SOL    HW293104   5.815   1.696   9.957
30403SOL     OW93105   9.127   5.994   3.221
30403SOL    HW193106   9.111   6.023   3.310
30403SOL    HW293107   9.222   5.988   3.214
30404SOL     OW93108   1.533   7.606  14.372
30404SOL    HW193109   1.568   7.670  14.310
30404SOL    HW293110   1.603   7.597  14.438
30405SOL     OW93111   3.935   4.549   3.654
30405SOL    HW193112   3.934   4.540   3.749
30405SOL    HW293113   3.901   4.466   3.621
30406SOL     OW93114   6.417   2.294   4.322
30406SOL    HW193115   6.391   2.244   4.399
30406SOL    HW293116   6.513   2.296   4.326
30407SOL     OW93117   7.668   9.920   6.326
30407SOL    HW193118   7.610   9.996   6.333
30407SOL    HW293119   7.711   9.931   6.241
30408SOL     OW93120   8.724  13.239  12.276
30408SOL    HW193121   8.674  13.170  12.234
30408SOL    HW293122   8.669  13.316  12.270
30409SOL     OW93123   1.919   2.864   0.513
30409SOL    HW193124   2.000   2.898   0.549
30409SOL    HW293125   1.871   2.941   0.483
30410SOL     OW93126  11.068  13.695   0.027
30410SOL    HW193127  10.992  13.734   0.070
30410SOL    HW293128  11.032  13.654  14.818
30411SOL     OW93129  13.962   4.430   2.066
30411SOL    HW193130  13.874   4.396   2.047
30411SOL    HW293131  13.959   4.452   2.160
30412SOL     OW93132   5.738   2.231   1.689
30412SOL    HW193133   5.787   2.192   1.762
30412SOL    HW293134   5.801   2.234   1.617
30413SOL     OW93135   4.988  13.414  12.355
30413SOL    HW193136   4.954  13.499  12.325
30413SOL    HW293137   5.017  13.370  12.275
30414SOL     OW93138   6.924   9.892   1.325
30414SOL    HW193139   6.876   9.950   1.383
30414SOL    HW293140   6.880   9.900   1.240
30415SOL     OW93141   6.871   1.065  10.941
30415SOL    HW193142   6.954   1.034  10.978
30415SOL    HW293143   6.888   1.069  10.847
30416SOL     OW93144  10.903   8.915   7.891
30416SOL    HW193145  10.908   9.005   7.859
30416SOL    HW293146  10.969   8.910   7.960
30417SOL     OW93147   4.093   5.958  11.957
30417SOL    HW193148   4.186   5.964  11.978
30417SOL    HW293149   4.073   5.865  11.964
30418SOL     OW93150   9.707  10.602  13.812
30418SOL    HW193151   9.790  10.569  13.778
30418SOL    HW293152   9.731  10.650  13.891
30419SOL     OW93153   6.996   1.750   3.782
30419SOL    HW193154   7.056   1.768   3.854
30419SOL    HW293155   7.026   1.667   3.745
30420SOL     OW93156   1.517   0.709  11.202
30420SOL    HW193157   1.422   0.714  11.189
30420SOL    HW293158   1.546   0.640  11.142
30421SOL     OW93159   8.973  14.837   2.184
30421SOL    HW193160   9.021  14.755   2.184
30421SOL    HW293161   8.881  14.811   2.189
30422SOL     OW93162  11.338   1.405   3.973
30422SOL    HW193163  11.317   1.402   3.880
30422SOL    HW293164  11.305   1.490   4.002
30423SOL     OW93165  10.868   8.878   2.553
30423SOL    HW193166  10.822   8.842   2.628
30423SOL    HW293167  10.799   8.901   2.490
30424SOL     OW93168   3.898   8.930  14.845
30424SOL    HW193169   3.870   8.839  14.840
30424SOL    HW293170   3.934   8.949  14.758
30425SOL     OW93171  11.499   1.471  11.647
30425SOL    HW193172  11.474   1.554  11.687
30425SOL    HW293173  11.476   1.481  11.555
30426SOL     OW93174  14.680  13.472   7.074
30426SOL    HW193175  14.771  13.446   7.091
30426SOL    HW293176  14.632  13.442   7.151
30427SOL     OW93177  10.619   0.913   7.818
30427SOL    HW193178  10.550   0.977   7.801
30427SOL    HW293179  10.660   0.943   7.900
30428SOL     OW93180   5.018   2.540   1.952
30428SOL    HW193181   4.993   2.619   1.999
30428SOL    HW293182   5.021   2.566   1.860
30429SOL     OW93183  10.791   8.775  12.469
30429SOL    HW193184  10.865   8.828  12.439
30429SOL    HW293185  10.714   8.818  12.431
30430SOL     OW93186  14.221   3.944   9.648
30430SOL    HW193187  14.289   3.919   9.585
30430SOL    HW293188  14.193   3.861   9.686
30431SOL     OW93189  13.072   6.124   9.493
30431SOL    HW193190  13.060   6.126   9.588
30431SOL    HW293191  13.015   6.052   9.464
30432SOL     OW93192  11.214  14.025   5.441
30432SOL    HW193193  11.128  14.063   5.455
30432SOL    HW293194  11.258  14.030   5.526
30433SOL     OW93195   1.758  13.228   3.290
30433SOL    HW193196   1.728  13.308   3.334
30433SOL    HW293197   1.680  13.174   3.281
30434SOL     OW93198  12.597   4.191  12.909
30434SOL    HW193199  12.524   4.146  12.951
30434SOL    HW293200  12.557   4.242  12.838
30435SOL     OW93201   7.565   1.049  13.407
30435SOL    HW193202   7.628   0.977  13.397
30435SOL    HW293203   7.609   1.125  13.370
30436SOL     OW93204  10.972   9.980  11.881
30436SOL    HW193205  11.044   9.958  11.940
30436SOL    HW293206  10.976  10.075  11.872
30437SOL     OW93207   6.434   0.896   4.284
30437SOL    HW193208   6.348   0.854   4.275
30437SOL    HW293209   6.470   0.860   4.365
30438SOL     OW93210  14.129   7.764  10.321
30438SOL    HW193211  14.133   7.670  10.336
30438SOL    HW293212  14.051   7.793  10.370
30439SOL     OW93213  10.867  12.674   1.571
30439SOL    HW193214  10.788  12.727   1.582
30439SOL    HW293215  10.938  12.730   1.603
30440SOL     OW93216   4.799  10.673   3.479
30440SOL    HW193217   4.795  10.589   3.524
30440SOL    HW293218   4.712  10.683   3.439
30441SOL     OW93219   2.749   8.679   2.587
30441SOL    HW193220   2.790   8.712   2.508
30441SOL    HW293221   2.709   8.597   2.561
30442SOL     OW93222  10.381   2.837  11.042
30442SOL    HW193223  10.406   2.874  11.127
30442SOL    HW293224  10.421   2.750  11.041
30443SOL     OW93225   8.462  10.175   8.611
30443SOL    HW193226   8.469  10.147   8.520
30443SOL    HW293227   8.485  10.097   8.662
30444SOL     OW93228   1.082  11.371   3.655
30444SOL    HW193229   1.017  11.369   3.725
30444SOL    HW293230   1.146  11.436   3.684
30445SOL     OW93231   1.970  13.388  10.759
30445SOL    HW193232   2.055  13.417  10.792
30445SOL    HW293233   1.989  13.350  10.674
30446SOL     OW93234   3.218  10.511   5.162
30446SOL    HW193235   3.144  10.569   5.177
30446SOL    HW293236   3.181  10.423   5.165
30447SOL     OW93237   0.018  13.666  12.922
30447SOL    HW193238   0.089  13.658  12.985
30447SOL    HW293239   0.034  13.749  12.877
30448SOL     OW93240   3.506   2.820   3.389
30448SOL    HW193241   3.526   2.914   3.393
30448SOL    HW293242   3.496   2.801   3.296
30449SOL     OW93243   2.334   5.681   3.864
30449SOL    HW193244   2.401   5.664   3.930
30449SOL    HW293245   2.264   5.726   3.911
30450SOL     OW93246   6.593   1.183   9.879
30450SOL    HW193247   6.624   1.131   9.954
30450SOL    HW293248   6.502   1.204   9.901
30451SOL     OW93249   2.867   4.270   7.047
30451SOL    HW193250   2.843   4.260   7.139
30451SOL    HW293251   2.955   4.233   7.041
30452SOL     OW93252   1.567   4.200   2.626
30452SOL    HW193253   1.592   4.237   2.541
30452SOL    HW293254   1.579   4.106   2.615
30453SOL     OW93255   8.721   2.674   3.525
30453SOL    HW193256   8.813   2.687   3.547
30453SOL    HW293257   8.682   2.761   3.531
30454SOL     OW93258   3.103  14.355   9.103
30454SOL    HW193259   3.085  14.276   9.053
30454SOL    HW293260   3.094  14.328   9.195
30455SOL     OW93261  11.500  11.325   9.374
30455SOL    HW193262  11.487  11.416   9.401
30455SOL    HW293263  11.579  11.297   9.421
30456SOL     OW93264   8.347   4.488   1.687
30456SOL    HW193265   8.416   4.535   1.641
30456SOL    HW293266   8.340   4.405   1.640
30457SOL     OW93267   8.261   6.062   7.875
30457SOL    HW193268   8.339   6.115   7.859
30457SOL    HW293269   8.188   6.123   7.865
30458SOL     OW93270   4.108   3.355   9.847
30458SOL    HW193271   4.075   3.445   9.850
30458SOL    HW293272   4.203   3.365   9.849
30459SOL     OW93273  12.397   1.478  14.659
30459SOL    HW193274  12.362   1.390  14.647
30459SOL    HW293275  12.374   1.524  14.579
30460SOL     OW93276  12.714   7.854   7.367
30460SOL    HW193277  12.756   7.860   7.282
30460SOL    HW293278  12.620   7.847   7.347
30461SOL     OW93279  11.205   1.078  10.580
30461SOL    HW193280  11.264   1.017  10.535
30461SOL    HW293281  11.194   1.040  10.667
30462SOL     OW93282   8.842   0.511  14.217
30462SOL    HW193283   8.907   0.536  14.283
30462SOL    HW293284   8.865   0.563  14.140
30463SOL     OW93285  14.068   0.084   3.897
30463SOL    HW193286  14.061   0.155   3.960
30463SOL    HW293287  14.148   0.038   3.922
30464SOL     OW93288   7.830  10.698   8.282
30464SOL    HW193289   7.749  10.651   8.302
30464SOL    HW293290   7.892  10.630   8.258
30465SOL     OW93291   1.028  10.882   6.534
30465SOL    HW193292   1.034  10.976   6.550
30465SOL    HW293293   1.007  10.844   6.620
30466SOL     OW93294  12.023   6.646  14.352
30466SOL    HW193295  11.939   6.624  14.312
30466SOL    HW293296  12.071   6.691  14.282
30467SOL     OW93297  14.403   2.394   4.852
30467SOL    HW193298  14.412   2.405   4.757
30467SOL    HW293299  14.311   2.373   4.865
30468SOL     OW93300   9.105  13.901  14.457
30468SOL    HW193301   9.187  13.853  14.464
30468SOL    HW293302   9.087  13.905  14.363
30469SOL     OW93303  13.730   8.016   6.411
30469SOL    HW193304  13.736   8.102   6.452
30469SOL    HW293305  13.742   8.033   6.317
30470SOL     OW93306   0.148  14.206   1.185
30470SOL    HW193307   0.079  14.141   1.172
30470SOL    HW293308   0.180  14.224   1.097
30471SOL     OW93309   3.226   5.462   8.083
30471SOL    HW193310   3.166   5.393   8.114
30471SOL    HW293311   3.231   5.524   8.155
30472SOL     OW93312   8.826   1.486   5.513
30472SOL    HW193313   8.760   1.437   5.463
30472SOL    HW293314   8.843   1.564   5.459
30473SOL     OW93315  11.457   1.009   8.249
30473SOL    HW193316  11.429   1.084   8.197
30473SOL    HW293317  11.549   1.026   8.268
30474SOL     OW93318   5.438   7.888  12.387
30474SOL    HW193319   5.499   7.915  12.318
30474SOL    HW293320   5.466   7.799  12.410
30475SOL     OW93321   0.658   7.665   1.572
30475SOL    HW193322   0.741   7.621   1.593
30475SOL    HW293323   0.669   7.693   1.481
30476SOL     OW93324  12.435  13.451   9.423
30476SOL    HW193325  12.399  13.418   9.505
30476SOL    HW293326  12.511  13.503   9.450
30477SOL     OW93327   3.196  12.938  13.250
30477SOL    HW193328   3.227  13.010  13.195
30477SOL    HW293329   3.104  12.959  13.266
30478SOL     OW93330  12.072   1.400   5.090
30478SOL    HW193331  12.053   1.350   5.169
30478SOL    HW293332  11.999   1.382   5.032
30479SOL     OW93333   6.824   5.815   8.265
30479SOL    HW193334   6.779   5.899   8.272
30479SOL    HW293335   6.802   5.784   8.177
30480SOL     OW93336   0.060   8.496   1.097
30480SOL    HW193337   0.141   8.450   1.120
30480SOL    HW293338  14.868   8.427   1.076
30481SOL     OW93339   8.437   4.300   5.133
30481SOL    HW193340   8.460   4.303   5.226
30481SOL    HW293341   8.435   4.392   5.106
30482SOL     OW93342  12.980   6.490   3.068
30482SOL    HW193343  13.024   6.406   3.079
30482SOL    HW293344  12.933   6.504   3.150
30483SOL     OW93345  12.519   4.682   4.757
30483SOL    HW193346  12.546   4.627   4.683
30483SOL    HW293347  12.579   4.757   4.754
30484SOL     OW93348   6.877   2.621  11.929
30484SOL    HW193349   6.970   2.611  11.950
30484SOL    HW293350   6.874   2.700  11.875
30485SOL     OW93351  11.083   4.709  10.623
30485SOL    HW193352  11.083   4.635  10.563
30485SOL    HW293353  11.159   4.762  10.598
30486SOL     OW93354   4.913   5.150   7.792
30486SOL    HW193355   4.912   5.223   7.854
30486SOL    HW293356   4.972   5.086   7.832
30487SOL     OW93357  13.805   0.173   7.307
30487SOL    HW193358  13.784   0.230   7.234
30487SOL    HW293359  13.831   0.090   7.266
30488SOL     OW93360   3.631  13.645   3.150
30488SOL    HW193361   3.685  13.582   3.198
30488SOL    HW293362   3.544  13.636   3.188
30489SOL     OW93363   7.843   0.733  11.891
30489SOL    HW193364   7.801   0.756  11.973
30489SOL    HW293365   7.929   0.775  11.895
30490SOL     OW93366  10.519   9.040   9.311
30490SOL    HW193367  10.580   8.995   9.252
30490SOL    HW293368  10.570   9.113   9.346
30491SOL     OW93369   1.908   5.305   2.093
30491SOL    HW193370   1.893   5.376   2.031
30491SOL    HW293371   1.928   5.229   2.038
30492SOL     OW93372  10.078  12.921   8.721
30492SOL    HW193373  10.050  12.982   8.652
30492SOL    HW293374  10.023  12.943   8.796
30493SOL     OW93375   3.968   1.853   0.819
30493SOL    HW193376   3.961   1.836   0.725
30493SOL    HW293377   4.054   1.818   0.844
30494SOL     OW93378  14.345   4.980   1.181
30494SOL    HW193379  14.276   4.992   1.246
30494SOL    HW293380  14.396   5.062   1.185
30495SOL     OW93381   0.943   2.528   1.916
30495SOL    HW193382   0.948   2.491   1.828
30495SOL    HW293383   0.905   2.615   1.904
30496SOL     OW93384   9.100  10.670   1.477
30496SOL    HW193385   9.008  10.687   1.498
30496SOL    HW293386   9.123  10.737   1.412
30497SOL     OW93387   8.027   8.810   7.335
30497SOL    HW193388   8.078   8.854   7.268
30497SOL    HW293389   8.088   8.798   7.408
30498SOL     OW93390   5.019   4.828   3.042
30498SOL    HW193391   5.087   4.879   2.997
30498SOL    HW293392   5.033   4.738   3.013
30499SOL     OW93393  14.283   2.123   9.325
30499SOL    HW193394  14.200   2.126   9.278
30499SOL    HW293395  14.335   2.194   9.286
30500SOL     OW93396   0.738  14.791   2.841
30500SOL    HW193397   0.690  14.717   2.803
30500SOL    HW293398   0.815  14.751   2.882
30501SOL     OW93399  11.669   8.804   8.720
30501SOL    HW193400  11.730   8.803   8.646
30501SOL    HW293401  11.629   8.717   8.721
30502SOL     OW93402   6.291   9.875  12.729
30502SOL    HW193403   6.319   9.784  12.722
30502SOL    HW293404   6.233   9.888  12.654
30503SOL     OW93405   1.004  11.937  10.435
30503SOL    HW193406   0.915  11.938  10.398
30503SOL    HW293407   1.057  11.895  10.368
30504SOL     OW93408  12.822   0.282  14.409
30504SOL    HW193409  12.868   0.342  14.467
30504SOL    HW293410  12.805   0.205  14.463
30505SOL     OW93411   8.485   3.353   0.416
30505SOL    HW193412   8.506   3.359   0.509
30505SOL    HW293413   8.536   3.279   0.385
30506SOL     OW93414   6.673   5.512   1.101
30506SOL    HW193415   6.619   5.503   1.179
30506SOL    HW293416   6.636   5.448   1.040
30507SOL     OW93417   3.927   8.692   1.189
30507SOL    HW193418   3.888   8.766   1.144
30507SOL    HW293419   3.962   8.729   1.270
30508SOL     OW93420  10.354  14.299  14.782
30508SOL    HW193421  10.287  14.351  14.737
30508SOL    HW293422  10.351  14.330   0.003
30509SOL     OW93423   9.293   0.420   6.776
30509SOL    HW193424   9.273   0.508   6.743
30509SOL    HW293425   9.325   0.434   6.865
30510SOL     OW93426   0.404  11.766   1.733
30510SOL    HW193427   0.316  11.792   1.704
30510SOL    HW293428   0.420  11.682   1.688
30511SOL     OW93429   4.441   7.976   6.760
30511SOL    HW193430   4.432   7.978   6.664
30511SOL    HW293431   4.519   7.922   6.775
30512SOL     OW93432  12.544   9.878  10.620
30512SOL    HW193433  12.513   9.870  10.711
30512SOL    HW293434  12.514   9.798  10.578
30513SOL     OW93435   4.081   8.344   6.315
30513SOL    HW193436   4.077   8.416   6.378
30513SOL    HW293437   4.174   8.323   6.309
30514SOL     OW93438   4.972  12.662  12.565
30514SOL    HW193439   4.923  12.736  12.602
30514SOL    HW293440   4.958  12.668  12.471
30515SOL     OW93441   1.266  11.371   2.667
30515SOL    HW193442   1.175  11.393   2.648
30515SOL    HW293443   1.317  11.428   2.609
30516SOL     OW93444  11.690  14.382   3.255
30516SOL    HW193445  11.635  14.427   3.191
30516SOL    HW293446  11.680  14.289   3.234
30517SOL     OW93447   8.786  10.207  12.219
30517SOL    HW193448   8.842  10.136  12.185
30517SOL    HW293449   8.801  10.280  12.160
30518SOL     OW93450   4.027   2.087   9.959
30518SOL    HW193451   3.970   2.151   9.916
30518SOL    HW293452   4.095   2.141  10.001
30519SOL     OW93453   8.422  12.153   3.610
30519SOL    HW193454   8.331  12.127   3.626
30519SOL    HW293455   8.471  12.116   3.684
30520SOL     OW93456  12.998   5.675   8.787
30520SOL    HW193457  13.089   5.672   8.818
30520SOL    HW293458  12.946   5.646   8.862
30521SOL     OW93459  10.079   9.212  11.860
30521SOL    HW193460  10.082   9.137  11.918
30521SOL    HW293461  10.170   9.226  11.834
30522SOL     OW93462   2.742   6.526  10.785
30522SOL    HW193463   2.723   6.620  10.791
30522SOL    HW293464   2.830   6.518  10.824
30523SOL     OW93465  13.118  11.769   4.557
30523SOL    HW193466  13.110  11.674   4.564
30523SOL    HW293467  13.174  11.794   4.631
30524SOL     OW93468   5.534   3.465   8.979
30524SOL    HW193469   5.486   3.513   8.912
30524SOL    HW293470   5.542   3.376   8.943
30525SOL     OW93471   4.667   4.528   5.596
30525SOL    HW193472   4.709   4.463   5.540
30525SOL    HW293473   4.728   4.539   5.669
30526SOL     OW93474   0.451   8.609  11.648
30526SOL    HW193475   0.413   8.673  11.588
30526SOL    HW293476   0.443   8.649  11.734
30527SOL     OW93477   7.153   3.321   8.058
30527SOL    HW193478   7.163   3.349   8.149
30527SOL    HW293479   7.064   3.284   8.055
30528SOL     OW93480   1.455  11.499   9.934
30528SOL    HW193481   1.495  11.585   9.919
30528SOL    HW293482   1.513  11.456   9.997
30529SOL     OW93483   0.708   4.695   1.884
30529SOL    HW193484   0.661   4.734   1.810
30529SOL    HW293485   0.639   4.651   1.935
30530SOL     OW93486   5.218   6.256   2.818
30530SOL    HW193487   5.291   6.293   2.869
30530SOL    HW293488   5.242   6.271   2.727
30531SOL     OW93489  12.530   8.575   0.154
30531SOL    HW193490  12.552   8.482   0.167
30531SOL    HW293491  12.615   8.620   0.156
30532SOL     OW93492   2.987   7.710  13.387
30532SOL    HW193493   2.959   7.801  13.398
30532SOL    HW293494   3.071   7.716  13.341
30533SOL     OW93495   8.497  10.714   4.129
30533SOL    HW193496   8.559  10.685   4.063
30533SOL    HW293497   8.543  10.783   4.177
30534SOL     OW93498  13.978   9.492   7.883
30534SOL    HW193499  13.940   9.425   7.940
30534SOL    HW293500  13.961   9.460   7.794
30535SOL     OW93501  10.861  10.974  10.135
30535SOL    HW193502  10.789  10.942  10.079
30535SOL    HW293503  10.932  10.991  10.074
30536SOL     OW93504  10.879  13.285   7.132
30536SOL    HW193505  10.818  13.287   7.205
30536SOL    HW293506  10.915  13.197   7.133
30537SOL     OW93507   8.537   6.156   2.890
30537SOL    HW193508   8.603   6.102   2.934
30537SOL    HW293509   8.524   6.114   2.805
30538SOL     OW93510   2.372   5.775  12.398
30538SOL    HW193511   2.382   5.806  12.308
30538SOL    HW293512   2.459   5.746  12.424
30539SOL     OW93513   2.467   9.226   4.540
30539SOL    HW193514   2.484   9.250   4.631
30539SOL    HW293515   2.373   9.207   4.538
30540SOL     OW93516  13.584   9.733  10.347
30540SOL    HW193517  13.679   9.724  10.351
30540SOL    HW293518  13.550   9.651  10.383
30541SOL     OW93519   7.817  12.230   8.846
30541SOL    HW193520   7.783  12.319   8.843
30541SOL    HW293521   7.912  12.241   8.844
30542SOL     OW93522   2.073   8.442   2.092
30542SOL    HW193523   2.164   8.437   2.121
30542SOL    HW293524   2.033   8.360   2.122
30543SOL     OW93525  11.969   0.371  13.441
30543SOL    HW193526  12.052   0.324  13.434
30543SOL    HW293527  11.903   0.303  13.442
30544SOL     OW93528   6.267  10.114  13.798
30544SOL    HW193529   6.187  10.073  13.831
30544SOL    HW293530   6.287  10.183  13.861
30545SOL     OW93531   8.455  12.985   9.096
30545SOL    HW193532   8.387  13.002   9.161
30545SOL    HW293533   8.535  13.020   9.136
30546SOL     OW93534   7.921  13.818   8.541
30546SOL    HW193535   8.012  13.793   8.555
30546SOL    HW293536   7.871  13.740   8.568
30547SOL     OW93537  11.633   2.971   6.758
30547SOL    HW193538  11.613   2.938   6.670
30547SOL    HW293539  11.612   3.064   6.754
30548SOL     OW93540   3.855   1.994   4.855
30548SOL    HW193541   3.898   1.971   4.773
30548SOL    HW293542   3.827   1.911   4.893
30549SOL     OW93543   5.009   9.669   6.669
30549SOL    HW193544   4.945   9.629   6.728
30549SOL    HW293545   5.066   9.597   6.642
30550SOL     OW93546  12.543  10.685   0.544
30550SOL    HW193547  12.501  10.697   0.630
30550SOL    HW293548  12.471  10.659   0.486
30551SOL     OW93549   9.530   7.576   8.464
30551SOL    HW193550   9.603   7.613   8.414
30551SOL    HW293551   9.468   7.648   8.472
30552SOL     OW93552  12.209   6.212   1.496
30552SOL    HW193553  12.257   6.239   1.418
30552SOL    HW293554  12.124   6.183   1.463
30553SOL     OW93555   7.768   9.494   2.232
30553SOL    HW193556   7.754   9.556   2.304
30553SOL    HW293557   7.681   9.462   2.211
30554SOL     OW93558  11.248   5.264   3.311
30554SOL    HW193559  11.261   5.329   3.241
30554SOL    HW293560  11.336   5.247   3.345
30555SOL     OW93561  10.688   5.063   6.406
30555SOL    HW193562  10.650   5.141   6.447
30555SOL    HW293563  10.613   5.008   6.383
30556SOL     OW93564   1.708   9.753  12.961
30556SOL    HW193565   1.693   9.756  13.055
30556SOL    HW293566   1.796   9.716  12.952
30557SOL     OW93567  12.723  10.723   6.786
30557SOL    HW193568  12.641  10.771   6.782
30557SOL    HW293569  12.712  10.652   6.722
30558SOL     OW93570   1.242   5.167  12.910
30558SOL    HW193571   1.259   5.202  12.997
30558SOL    HW293572   1.244   5.072  12.922
30559SOL     OW93573   8.439   0.638  13.734
30559SOL    HW193574   8.375   0.594  13.789
30559SOL    HW293575   8.508   0.666  13.795
30560SOL     OW93576   8.401  12.783  10.580
30560SOL    HW193577   8.349  12.767  10.659
30560SOL    HW293578   8.411  12.878  10.576
30561SOL     OW93579   4.834   2.417   0.055
30561SOL    HW193580   4.836   2.506   0.090
30561SOL    HW293581   4.822   2.361   0.132
30562SOL     OW93582  10.234   7.485   0.185
30562SOL    HW193583  10.326   7.502   0.205
30562SOL    HW293584  10.211   7.549   0.118
30563SOL     OW93585  13.557   6.798  12.161
30563SOL    HW193586  13.638   6.774  12.205
30563SOL    HW293587  13.585   6.827  12.074
30564SOL     OW93588  14.397   5.036  14.688
30564SOL    HW193589  14.371   4.951  14.724
30564SOL    HW293590  14.410   5.019  14.594
30565SOL     OW93591   6.489  14.400   2.162
30565SOL    HW193592   6.525  14.459   2.229
30565SOL    HW293593   6.461  14.458   2.092
30566SOL     OW93594  11.831  11.414  13.746
30566SOL    HW193595  11.791  11.332  13.718
30566SOL    HW293596  11.890  11.438  13.674
30567SOL     OW93597  12.937   3.064   0.966
30567SOL    HW193598  12.874   3.014   1.019
30567SOL    HW293599  13.014   3.072   1.022
30568SOL     OW93600  14.305   6.994  13.449
30568SOL    HW193601  14.347   6.938  13.515
30568SOL    HW293602  14.327   6.954  13.365
30569SOL     OW93603  12.228  14.714  11.447
30569SOL    HW193604  12.149  14.685  11.402
30569SOL    HW293605  12.263  14.784  11.391
30570SOL     OW93606  11.047   0.387  11.731
30570SOL    HW193607  11.038   0.293  11.716
30570SOL    HW293608  11.110   0.416  11.665
30571SOL     OW93609   5.062   9.924   1.246
30571SOL    HW193610   5.084   9.961   1.160
30571SOL    HW293611   5.079   9.995   1.308
30572SOL     OW93612   5.542  12.223   1.714
30572SOL    HW193613   5.461  12.198   1.759
30572SOL    HW293614   5.588  12.280   1.776
30573SOL     OW93615  11.505  13.576   0.803
30573SOL    HW193616  11.471  13.596   0.716
30573SOL    HW293617  11.551  13.656   0.830
30574SOL     OW93618   8.200  13.126   6.710
30574SOL    HW193619   8.290  13.097   6.724
30574SOL    HW293620   8.178  13.095   6.622
30575SOL     OW93621   7.617  14.226   0.922
30575SOL    HW193622   7.606  14.320   0.906
30575SOL    HW293623   7.563  14.208   0.999
30576SOL     OW93624   2.643  14.708   7.821
30576SOL    HW193625   2.584  14.735   7.751
30576SOL    HW293626   2.696  14.786   7.838
30577SOL     OW93627  11.531  14.800   9.406
30577SOL    HW193628  11.543  14.833   9.317
30577SOL    HW293629  11.577  14.716   9.407
30578SOL     OW93630  14.838  11.034   6.585
30578SOL    HW193631  14.833  11.030   6.681
30578SOL    HW293632  14.813  11.124   6.564
30579SOL     OW93633   8.141   3.132   7.584
30579SOL    HW193634   8.192   3.128   7.665
30579SOL    HW293635   8.202   3.167   7.519
30580SOL     OW93636   6.600   0.263   4.389
30580SOL    HW193637   6.549   0.187   4.361
30580SOL    HW293638   6.682   0.257   4.342
30581SOL     OW93639  13.618   9.120   3.620
30581SOL    HW193640  13.713   9.111   3.613
30581SOL    HW293641  13.602   9.133   3.714
30582SOL     OW93642  13.572  13.336   5.116
30582SOL    HW193643  13.593  13.243   5.118
30582SOL    HW293644  13.489  13.342   5.164
30583SOL     OW93645  10.676  11.035  11.426
30583SOL    HW193646  10.637  10.990  11.501
30583SOL    HW293647  10.603  11.083  11.386
30584SOL     OW93648   6.494  10.878   7.593
30584SOL    HW193649   6.533  10.857   7.508
30584SOL    HW293650   6.402  10.855   7.583
30585SOL     OW93651  11.262   3.140  11.937
30585SOL    HW193652  11.242   3.153  12.030
30585SOL    HW293653  11.253   3.046  11.923
30586SOL     OW93654   3.551   5.358   2.149
30586SOL    HW193655   3.549   5.277   2.200
30586SOL    HW293656   3.599   5.334   2.069
30587SOL     OW93657  12.832  11.581   2.684
30587SOL    HW193658  12.893  11.613   2.750
30587SOL    HW293659  12.872  11.608   2.601
30588SOL     OW93660  11.948   9.731  14.484
30588SOL    HW193661  12.035   9.753  14.449
30588SOL    HW293662  11.890   9.795  14.443
30589SOL     OW93663  12.239   2.302   2.384
30589SOL    HW193664  12.160   2.296   2.439
30589SOL    HW293665  12.288   2.376   2.420
30590SOL     OW93666  11.742  10.171   9.463
30590SOL    HW193667  11.831  10.181   9.428
30590SOL    HW293668  11.721  10.079   9.451
30591SOL     OW93669  13.533   3.573   8.516
30591SOL    HW193670  13.466   3.602   8.578
30591SOL    HW293671  13.518   3.626   8.438
30592SOL     OW93672  11.294   8.364   6.031
30592SOL    HW193673  11.348   8.331   6.103
30592SOL    HW293674  11.349   8.355   5.953
30593SOL     OW93675   4.238   2.425   7.908
30593SOL    HW193676   4.320   2.471   7.927
30593SOL    HW293677   4.246   2.341   7.953
30594SOL     OW93678   6.450   8.226   0.378
30594SOL    HW193679   6.503   8.163   0.427
30594SOL    HW293680   6.514   8.276   0.327
30595SOL     OW93681   4.559   3.273   2.526
30595SOL    HW193682   4.645   3.235   2.536
30595SOL    HW293683   4.526   3.237   2.443
30596SOL     OW93684   6.092   6.199   1.082
30596SOL    HW193685   6.028   6.152   1.028
30596SOL    HW293686   6.041   6.264   1.129
30597SOL     OW93687   9.705  11.212   4.217
30597SOL    HW193688   9.729  11.188   4.307
30597SOL    HW293689   9.646  11.286   4.228
30598SOL     OW93690  13.865   5.327   3.529
30598SOL    HW193691  13.817   5.332   3.447
30598SOL    HW293692  13.942   5.274   3.509
30599SOL     OW93693   2.146  13.798   4.867
30599SOL    HW193694   2.168  13.751   4.948
30599SOL    HW293695   2.226  13.792   4.814
30600SOL     OW93696  14.732   6.153   6.637
30600SOL    HW193697  14.803   6.189   6.583
30600SOL    HW293698  14.652   6.174   6.589
30601SOL     OW93699  12.010   4.305   0.602
30601SOL    HW193700  12.092   4.313   0.650
30601SOL    HW293701  12.036   4.312   0.510
30602SOL     OW93702  12.207  12.686   9.008
30602SOL    HW193703  12.221  12.776   9.036
30602SOL    HW293704  12.112  12.679   8.995
30603SOL     OW93705  12.972   4.447   1.981
30603SOL    HW193706  12.947   4.372   1.927
30603SOL    HW293707  12.905   4.453   2.048
30604SOL     OW93708  10.972  14.094   5.523
30604SOL    HW193709  10.920  14.173   5.539
30604SOL    HW293710  10.913  14.035   5.477
30605SOL     OW93711   7.785   7.073  14.151
30605SOL    HW193712   7.740   7.124  14.219
30605SOL    HW293713   7.812   6.992  14.194
30606SOL     OW93714   5.738  14.494   9.886
30606SOL    HW193715   5.772  14.512   9.974
30606SOL    HW293716   5.767  14.405   9.867
30607SOL     OW93717   8.360  13.339   7.479
30607SOL    HW193718   8.371  13.414   7.421
30607SOL    HW293719   8.423  13.274   7.447
30608SOL     OW93720   7.793  12.244   8.090
30608SOL    HW193721   7.786  12.155   8.054
30608SOL    HW293722   7.702  12.270   8.106
30609SOL     OW93723  12.284   5.610   6.820
30609SOL    HW193724  12.210   5.670   6.812
30609SOL    HW293725  12.290   5.566   6.736
30610SOL     OW93726   7.246   8.709   9.327
30610SOL    HW193727   7.173   8.727   9.386
30610SOL    HW293728   7.261   8.791   9.281
30611SOL     OW93729  11.835   9.029  11.389
30611SOL    HW193730  11.740   9.030  11.388
30611SOL    HW293731  11.860   9.106  11.441
30612SOL     OW93732   0.219   2.566   0.269
30612SOL    HW193733   0.168   2.644   0.247
30612SOL    HW293734   0.185   2.499   0.210
30613SOL     OW93735   6.058   5.156   4.350
30613SOL    HW193736   6.131   5.108   4.312
30613SOL    HW293737   6.094   5.243   4.368
30614SOL     OW93738   6.088   7.808  12.037
30614SOL    HW193739   6.175   7.791  12.002
30614SOL    HW293740   6.029   7.787  11.965
30615SOL     OW93741   5.506   1.166  14.603
30615SOL    HW193742   5.517   1.261  14.605
30615SOL    HW293743   5.470   1.148  14.516
30616SOL     OW93744  13.281   6.991   0.996
30616SOL    HW193745  13.286   6.925   1.066
30616SOL    HW293746  13.348   7.055   1.020
30617SOL     OW93747  12.106   5.449   3.100
30617SOL    HW193748  12.110   5.460   3.005
30617SOL    HW293749  12.173   5.384   3.120
30618SOL     OW93750  12.859   2.738   4.045
30618SOL    HW193751  12.805   2.747   3.967
30618SOL    HW293752  12.892   2.648   4.041
30619SOL     OW93753   7.988   7.224   0.623
30619SOL    HW193754   7.943   7.172   0.690
30619SOL    HW293755   7.967   7.181   0.541
30620SOL     OW93756  10.146  10.532   7.068
30620SOL    HW193757  10.134  10.438   7.062
30620SOL    HW293758  10.070  10.569   7.022
30621SOL     OW93759   1.523  10.971   5.491
30621SOL    HW193760   1.475  10.973   5.573
30621SOL    HW293761   1.483  11.040   5.437
30622SOL     OW93762   1.738  11.649   9.628
30622SOL    HW193763   1.782  11.575   9.669
30622SOL    HW293764   1.803  11.684   9.567
30623SOL     OW93765  12.789  12.133   1.696
30623SOL    HW193766  12.716  12.108   1.752
30623SOL    HW293767  12.797  12.061   1.633
30624SOL     OW93768   7.683   5.310  11.232
30624SOL    HW193769   7.595   5.346  11.230
30624SOL    HW293770   7.740   5.384  11.208
30625SOL     OW93771  11.338   3.605   2.102
30625SOL    HW193772  11.408   3.559   2.150
30625SOL    HW293773  11.292   3.536   2.055
30626SOL     OW93774   7.444   4.517   0.693
30626SOL    HW193775   7.362   4.555   0.727
30626SOL    HW293776   7.423   4.426   0.676
30627SOL     OW93777   4.088  11.022   8.268
30627SOL    HW193778   4.098  10.937   8.225
30627SOL    HW293779   4.145  11.081   8.219
30628SOL     OW93780   2.749  10.753  11.310
30628SOL    HW193781   2.703  10.790  11.385
30628SOL    HW293782   2.775  10.829  11.258
30629SOL     OW93783  10.545   7.006   1.617
30629SOL    HW193784  10.615   7.068   1.595
30629SOL    HW293785  10.528   6.958   1.536
30630SOL     OW93786   1.404  13.115  13.899
30630SOL    HW193787   1.389  13.164  13.819
30630SOL    HW293788   1.485  13.066  13.883
30631SOL     OW93789   6.643   0.258   3.526
30631SOL    HW193790   6.652   0.178   3.576
30631SOL    HW293791   6.730   0.272   3.487
30632SOL     OW93792  14.454  13.235   7.671
30632SOL    HW193793  14.404  13.315   7.685
30632SOL    HW293794  14.508  13.253   7.594
30633SOL     OW93795   7.464   4.897   7.057
30633SOL    HW193796   7.407   4.851   6.996
30633SOL    HW293797   7.423   4.983   7.067
30634SOL     OW93798  12.626   1.270  11.513
30634SOL    HW193799  12.659   1.215  11.584
30634SOL    HW293800  12.675   1.242  11.436
30635SOL     OW93801   4.454  12.851   0.207
30635SOL    HW193802   4.496  12.883   0.287
30635SOL    HW293803   4.384  12.793   0.238
30636SOL     OW93804  12.698  13.624   6.113
30636SOL    HW193805  12.695  13.535   6.148
30636SOL    HW293806  12.621  13.667   6.150
30637SOL     OW93807   3.078   4.509   3.203
30637SOL    HW193808   3.112   4.527   3.115
30637SOL    HW293809   3.156   4.507   3.259
30638SOL     OW93810   0.163   5.794  12.761
30638SOL    HW193811   0.179   5.830  12.673
30638SOL    HW293812   0.227   5.838  12.817
30639SOL     OW93813   5.502   1.774  11.844
30639SOL    HW193814   5.431   1.812  11.793
30639SOL    HW293815   5.469   1.775  11.934
30640SOL     OW93816  10.425   4.616   9.178
30640SOL    HW193817  10.504   4.565   9.160
30640SOL    HW293818  10.362   4.587   9.111
30641SOL     OW93819   6.691   1.922   5.840
30641SOL    HW193820   6.668   2.012   5.863
30641SOL    HW293821   6.749   1.893   5.911
30642SOL     OW93822   3.148   8.613   4.335
30642SOL    HW193823   3.233   8.582   4.368
30642SOL    HW293824   3.137   8.699   4.374
30643SOL     OW93825  10.232   6.891   0.391
30643SOL    HW193826  10.260   6.903   0.300
30643SOL    HW293827  10.143   6.855   0.383
30644SOL     OW93828   7.168   5.900   1.828
30644SOL    HW193829   7.155   5.885   1.734
30644SOL    HW293830   7.219   5.981   1.832
30645SOL     OW93831   8.224  10.813  10.466
30645SOL    HW193832   8.180  10.858  10.395
30645SOL    HW293833   8.309  10.787  10.429
30646SOL     OW93834   5.265   7.316  13.107
30646SOL    HW193835   5.177   7.348  13.087
30646SOL    HW293836   5.308   7.391  13.149
30647SOL     OW93837  13.016  13.670   4.620
30647SOL    HW193838  12.923  13.692   4.608
30647SOL    HW293839  13.049  13.658   4.531
30648SOL     OW93840   5.884   4.905   4.992
30648SOL    HW193841   5.797   4.866   4.985
30648SOL    HW293842   5.890   4.965   4.917
30649SOL     OW93843   9.064   0.557   7.036
30649SOL    HW193844   9.039   0.650   7.033
30649SOL    HW293845   8.983   0.511   7.014
30650SOL     OW93846  12.806  14.163  10.873
30650SOL    HW193847  12.835  14.200  10.956
30650SOL    HW293848  12.784  14.072  10.893
30651SOL     OW93849  13.306   5.499   7.811
30651SOL    HW193850  13.353   5.565   7.760
30651SOL    HW293851  13.261   5.549   7.880
30652SOL     OW93852   1.693   2.995   6.431
30652SOL    HW193853   1.703   3.004   6.336
30652SOL    HW293854   1.599   3.006   6.447
30653SOL     OW93855   2.186   8.783   6.368
30653SOL    HW193856   2.132   8.827   6.434
30653SOL    HW293857   2.275   8.788   6.403
30654SOL     OW93858   7.696  11.440   0.048
30654SOL    HW193859   7.648  11.439   0.131
30654SOL    HW293860   7.674  11.525   0.009
30655SOL     OW93861  10.412  10.636   8.599
30655SOL    HW193862  10.468  10.563   8.573
30655SOL    HW293863  10.362  10.602   8.673
30656SOL     OW93864   0.600   3.704  13.558
30656SOL    HW193865   0.677   3.699  13.502
30656SOL    HW293866   0.628   3.665  13.641
30657SOL     OW93867  12.670  13.644  10.717
30657SOL    HW193868  12.601  13.622  10.655
30657SOL    HW293869  12.698  13.732  10.693
30658SOL     OW93870   8.780   1.157   2.673
30658SOL    HW193871   8.713   1.166   2.741
30658SOL    HW293872   8.798   1.063   2.670
30659SOL     OW93873   6.969  10.651   7.010
30659SOL    HW193874   6.992  10.639   7.102
30659SOL    HW293875   6.904  10.721   7.010
30660SOL     OW93876  12.594   2.324   2.415
30660SOL    HW193877  12.652   2.328   2.491
30660SOL    HW293878  12.556   2.412   2.410
30661SOL     OW93879  11.393   7.081  12.827
30661SOL    HW193880  11.376   7.175  12.835
30661SOL    HW293881  11.413   7.053  12.917
30662SOL     OW93882   7.333  13.650   2.459
30662SOL    HW193883   7.297  13.739   2.453
30662SOL    HW293884   7.358  13.629   2.369
30663SOL     OW93885  12.278   4.790   7.002
30663SOL    HW193886  12.195   4.784   6.954
30663SOL    HW293887  12.254   4.779   7.094
30664SOL     OW93888   9.851  13.792   9.878
30664SOL    HW193889   9.859  13.697   9.890
30664SOL    HW293890   9.904  13.811   9.801
30665SOL     OW93891   2.028   1.118   5.666
30665SOL    HW193892   1.951   1.065   5.686
30665SOL    HW293893   2.085   1.061   5.615
30666SOL     OW93894   2.750   8.567   9.999
30666SOL    HW193895   2.812   8.614  10.056
30666SOL    HW293896   2.800   8.493   9.964
30667SOL     OW93897  12.254  10.814   4.618
30667SOL    HW193898  12.164  10.814   4.650
30667SOL    HW293899  12.291  10.896   4.650
30668SOL     OW93900   5.078   2.412   4.779
30668SOL    HW193901   5.067   2.361   4.699
30668SOL    HW293902   5.001   2.469   4.782
30669SOL     OW93903   1.215   9.145   9.956
30669SOL    HW193904   1.162   9.199   9.898
30669SOL    HW293905   1.261   9.207  10.012
30670SOL     OW93906  13.996   5.106  13.474
30670SOL    HW193907  14.054   5.039  13.439
30670SOL    HW293908  14.047   5.148  13.544
30671SOL     OW93909  10.097  13.592  10.375
30671SOL    HW193910  10.122  13.680  10.348
30671SOL    HW293911  10.173  13.538  10.355
30672SOL     OW93912   4.671  12.814   3.171
30672SOL    HW193913   4.691  12.903   3.141
30672SOL    HW293914   4.680  12.818   3.266
30673SOL     OW93915   7.005  14.713   4.779
30673SOL    HW193916   6.970  14.632   4.742
30673SOL    HW293917   6.951  14.730   4.856
30674SOL     OW93918   6.201   0.513   4.318
30674SOL    HW193919   6.236   0.528   4.229
30674SOL    HW293920   6.137   0.443   4.307
30675SOL     OW93921  12.936   6.946  12.806
30675SOL    HW193922  12.943   6.883  12.878
30675SOL    HW293923  12.889   7.020  12.844
30676SOL     OW93924   2.405  11.090   2.418
30676SOL    HW193925   2.380  11.005   2.454
30676SOL    HW293926   2.432  11.072   2.328
30677SOL     OW93927   6.019  12.592   6.398
30677SOL    HW193928   6.071  12.581   6.319
30677SOL    HW293929   6.019  12.505   6.439
30678SOL     OW93930   8.263  12.040   7.650
30678SOL    HW193931   8.320  11.971   7.615
30678SOL    HW293932   8.233  12.005   7.734
30679SOL     OW93933   4.231   6.934   7.970
30679SOL    HW193934   4.172   6.993   7.922
30679SOL    HW293935   4.306   6.924   7.913
30680SOL     OW93936   0.589  14.724   1.505
30680SOL    HW193937   0.558  14.790   1.567
30680SOL    HW293938   0.514  14.705   1.449
30681SOL     OW93939  10.928   0.940  12.366
30681SOL    HW193940  10.983   1.008  12.405
30681SOL    HW293941  10.839   0.974  12.372
30682SOL     OW93942   6.731  13.359   7.721
30682SOL    HW193943   6.642  13.383   7.694
30682SOL    HW293944   6.787  13.393   7.651
30683SOL     OW93945   9.598  11.830  13.092
30683SOL    HW193946   9.596  11.743  13.133
30683SOL    HW293947   9.619  11.813  13.000
30684SOL     OW93948   9.830  12.401   2.649
30684SOL    HW193949   9.813  12.311   2.623
30684SOL    HW293950   9.743  12.440   2.658
30685SOL     OW93951   0.514  13.837   1.196
30685SOL    HW193952   0.549  13.759   1.240
30685SOL    HW293953   0.559  13.910   1.238
30686SOL     OW93954  11.935   6.478   9.752
30686SOL    HW193955  11.900   6.475   9.841
30686SOL    HW293956  11.969   6.567   9.742
30687SOL     OW93957   8.451   3.967   3.159
30687SOL    HW193958   8.535   3.977   3.205
30687SOL    HW293959   8.471   3.990   3.069
30688SOL     OW93960   3.622   9.270  11.437
30688SOL    HW193961   3.538   9.261  11.482
30688SOL    HW293962   3.599   9.275  11.344
30689SOL     OW93963  11.511   2.107   5.907
30689SOL    HW193964  11.499   2.123   6.001
30689SOL    HW293965  11.490   2.191   5.866
30690SOL     OW93966  11.296  12.185  10.347
30690SOL    HW193967  11.363  12.175  10.415
30690SOL    HW293968  11.220  12.220  10.393
30691SOL     OW93969   9.384  13.717   4.550
30691SOL    HW193970   9.368  13.797   4.501
30691SOL    HW293971   9.426  13.658   4.487
30692SOL     OW93972  11.353   9.624  12.023
30692SOL    HW193973  11.296   9.597  11.951
30692SOL    HW293974  11.373   9.542  12.069
30693SOL     OW93975   4.522   5.058  13.603
30693SOL    HW193976   4.604   5.103  13.626
30693SOL    HW293977   4.544   4.965  13.606
30694SOL     OW93978  10.499   0.192   4.990
30694SOL    HW193979  10.526   0.111   4.948
30694SOL    HW293980  10.542   0.191   5.075
30695SOL     OW93981   2.591   4.230  10.182
30695SOL    HW193982   2.594   4.141  10.147
30695SOL    HW293983   2.680   4.250  10.209
30696SOL     OW93984   2.820   8.302  12.116
30696SOL    HW193985   2.729   8.280  12.138
30696SOL    HW293986   2.823   8.397  12.117
30697SOL     OW93987  10.728   9.728  11.385
30697SOL    HW193988  10.715   9.679  11.303
30697SOL    HW293989  10.746   9.817  11.357
30698SOL     OW93990   4.629   6.372   9.165
30698SOL    HW193991   4.717   6.360   9.129
30698SOL    HW293992   4.576   6.304   9.123
30699SOL     OW93993   4.101  14.782  11.564
30699SOL    HW193994   4.036  14.718  11.535
30699SOL    HW293995   4.124  14.831  11.485
30700SOL     OW93996  10.503   7.290   1.932
30700SOL    HW193997  10.530   7.368   1.884
30700SOL    HW293998  10.457   7.324   2.009
30701SOL     OW93999   4.205  12.497   0.780
30701SOL    HW194000   4.133  12.514   0.840
30701SOL    HW294001   4.237  12.584   0.756
30702SOL     OW94002  14.264   6.286  10.704
30702SOL    HW194003  14.234   6.217  10.764
30702SOL    HW294004  14.358   6.271  10.696
30703SOL     OW94005  13.061   7.212   1.427
30703SOL    HW194006  13.140   7.227   1.376
30703SOL    HW294007  13.028   7.128   1.395
30704SOL     OW94008   5.836   5.979   9.881
30704SOL    HW194009   5.856   6.070   9.903
30704SOL    HW294010   5.822   5.980   9.786
30705SOL     OW94011   9.353   1.071  10.454
30705SOL    HW194012   9.274   1.093  10.503
30705SOL    HW294013   9.412   1.033  10.518
30706SOL     OW94014   1.342  10.799   5.331
30706SOL    HW194015   1.418  10.830   5.382
30706SOL    HW294016   1.272  10.859   5.355
30707SOL     OW94017   6.472   2.686  14.254
30707SOL    HW194018   6.561   2.677  14.288
30707SOL    HW294019   6.417   2.639  14.317
30708SOL     OW94020   7.980  14.222   8.318
30708SOL    HW194021   7.931  14.296   8.353
30708SOL    HW294022   7.919  14.149   8.322
30709SOL     OW94023  13.696  13.509   9.668
30709SOL    HW194024  13.679  13.417   9.648
30709SOL    HW294025  13.613  13.553   9.648
30710SOL     OW94026   1.700   6.243   7.202
30710SOL    HW194027   1.785   6.208   7.229
30710SOL    HW294028   1.704   6.245   7.106
30711SOL     OW94029   8.408  12.628   8.223
30711SOL    HW194030   8.492  12.641   8.266
30711SOL    HW294031   8.391  12.711   8.178
30712SOL     OW94032   7.844  10.543   0.523
30712SOL    HW194033   7.837  10.449   0.537
30712SOL    HW294034   7.901  10.552   0.447
30713SOL     OW94035   3.697   2.978   5.539
30713SOL    HW194036   3.759   2.983   5.613
30713SOL    HW294037   3.619   2.936   5.577
30714SOL     OW94038  11.035   9.466  13.633
30714SOL    HW194039  11.006   9.386  13.678
30714SOL    HW294040  11.110   9.496  13.683
30715SOL     OW94041   4.763  14.673  11.788
30715SOL    HW194042   4.701  14.724  11.840
30715SOL    HW294043   4.787  14.599  11.844
30716SOL     OW94044   4.540   6.799   0.626
30716SOL    HW194045   4.597   6.744   0.571
30716SOL    HW294046   4.504   6.864   0.566
30717SOL     OW94047   2.822   3.419   3.347
30717SOL    HW194048   2.758   3.424   3.276
30717SOL    HW294049   2.902   3.385   3.305
30718SOL     OW94050   7.855   9.385  12.738
30718SOL    HW194051   7.945   9.376  12.770
30718SOL    HW294052   7.863   9.436  12.658
30719SOL     OW94053   7.788   6.012   2.655
30719SOL    HW194054   7.718   6.062   2.613
30719SOL    HW294055   7.748   5.980   2.737
30720SOL     OW94056   0.433  10.834   4.157
30720SOL    HW194057   0.399  10.901   4.097
30720SOL    HW294058   0.527  10.831   4.138
30721SOL     OW94059   7.324   3.168   3.781
30721SOL    HW194060   7.242   3.154   3.830
30721SOL    HW294061   7.317   3.110   3.706
30722SOL     OW94062  13.707  10.399  12.285
30722SOL    HW194063  13.731  10.492  12.286
30722SOL    HW294064  13.760  10.361  12.355
30723SOL     OW94065   0.359  13.413   9.449
30723SOL    HW194066   0.354  13.465   9.369
30723SOL    HW294067   0.451  13.416   9.474
30724SOL     OW94068   3.235   3.176   1.817
30724SOL    HW194069   3.228   3.120   1.894
30724SOL    HW294070   3.174   3.139   1.754
30725SOL     OW94071   8.405   3.974  12.860
30725SOL    HW194072   8.335   3.992  12.798
30725SOL    HW294073   8.444   3.891  12.830
30726SOL     OW94074  13.701   9.253   4.512
30726SOL    HW194075  13.729   9.340   4.487
30726SOL    HW294076  13.710   9.200   4.433
30727SOL     OW94077  13.061  13.275   5.546
30727SOL    HW194078  13.051  13.304   5.455
30727SOL    HW294079  12.973  13.250   5.573
30728SOL     OW94080   1.799   0.839   0.570
30728SOL    HW194081   1.830   0.752   0.595
30728SOL    HW294082   1.733   0.823   0.503
30729SOL     OW94083  14.453   1.334   0.419
30729SOL    HW194084  14.386   1.401   0.432
30729SOL    HW294085  14.520   1.354   0.485
30730SOL     OW94086   3.126   9.055  13.013
30730SOL    HW194087   3.105   9.070  12.920
30730SOL    HW294088   3.046   9.081  13.059
30731SOL     OW94089  11.708  14.728  14.297
30731SOL    HW194090  11.647  14.668  14.341
30731SOL    HW294091  11.672  14.739  14.209
30732SOL     OW94092   7.951   7.454   6.982
30732SOL    HW194093   7.989   7.398   7.049
30732SOL    HW294094   7.882   7.504   7.027
30733SOL     OW94095   7.509   0.659   3.686
30733SOL    HW194096   7.538   0.592   3.748
30733SOL    HW294097   7.590   0.704   3.660
30734SOL     OW94098   9.961   3.966   5.308
30734SOL    HW194099   9.956   4.005   5.396
30734SOL    HW294100  10.010   3.885   5.321
30735SOL     OW94101   4.695  12.898   9.326
30735SOL    HW194102   4.725  12.976   9.280
30735SOL    HW294103   4.653  12.845   9.258
30736SOL     OW94104   1.394   3.348   4.147
30736SOL    HW194105   1.380   3.442   4.159
30736SOL    HW294106   1.482   3.332   4.181
30737SOL     OW94107  10.890   3.169  12.164
30737SOL    HW194108  10.866   3.243  12.221
30737SOL    HW294109  10.959   3.204  12.108
30738SOL     OW94110   3.823  13.730  13.597
30738SOL    HW194111   3.784  13.793  13.658
30738SOL    HW294112   3.825  13.648  13.645
30739SOL     OW94113  12.157   2.276  10.806
30739SOL    HW194114  12.131   2.363  10.836
30739SOL    HW294115  12.085   2.219  10.832
30740SOL     OW94116  13.251   1.224   2.107
30740SOL    HW194117  13.264   1.143   2.155
30740SOL    HW294118  13.264   1.293   2.173
30741SOL     OW94119   9.559   6.470  13.501
30741SOL    HW194120   9.552   6.426  13.416
30741SOL    HW294121   9.469   6.486  13.527
30742SOL     OW94122  13.563  14.382   5.642
30742SOL    HW194123  13.472  14.355   5.649
30742SOL    HW294124  13.603  14.318   5.583
30743SOL     OW94125   6.276  12.496  12.268
30743SOL    HW194126   6.323  12.427  12.315
30743SOL    HW294127   6.274  12.570  12.328
30744SOL     OW94128  11.519   1.506  12.055
30744SOL    HW194129  11.455   1.475  11.990
30744SOL    HW294130  11.545   1.427  12.102
30745SOL     OW94131   4.883   7.449   3.006
30745SOL    HW194132   4.795   7.482   2.991
30745SOL    HW294133   4.899   7.389   2.933
30746SOL     OW94134  10.163   5.484  13.501
30746SOL    HW194135  10.072   5.479  13.474
30746SOL    HW294136  10.192   5.570  13.471
30747SOL     OW94137   4.548   4.584   8.921
30747SOL    HW194138   4.551   4.495   8.887
30747SOL    HW294139   4.502   4.634   8.854
30748SOL     OW94140   8.812   5.716   0.290
30748SOL    HW194141   8.724   5.725   0.253
30748SOL    HW294142   8.798   5.680   0.378
30749SOL     OW94143   7.976   1.359   2.753
30749SOL    HW194144   8.060   1.401   2.767
30749SOL    HW294145   7.996   1.281   2.700
30750SOL     OW94146   4.232   2.882   7.190
30750SOL    HW194147   4.287   2.810   7.223
30750SOL    HW294148   4.228   2.944   7.262
30751SOL     OW94149   8.942   5.774  13.254
30751SOL    HW194150   8.913   5.849  13.202
30751SOL    HW294151   8.943   5.701  13.193
30752SOL     OW94152  12.721   8.781  12.383
30752SOL    HW194153  12.801   8.820  12.418
30752SOL    HW294154  12.650   8.833  12.422
30753SOL     OW94155   0.561   3.217  12.515
30753SOL    HW194156   0.592   3.223  12.605
30753SOL    HW294157   0.599   3.294  12.472
30754SOL     OW94158   3.015  14.703  14.439
30754SOL    HW194159   3.009  14.762  14.364
30754SOL    HW294160   2.958  14.743  14.505
30755SOL     OW94161   7.617   6.119  14.721
30755SOL    HW194162   7.643   6.204  14.684
30755SOL    HW294163   7.586   6.140  14.809
30756SOL     OW94164   3.457   6.903   1.808
30756SOL    HW194165   3.499   6.819   1.825
30756SOL    HW294166   3.424   6.932   1.893
30757SOL     OW94167   7.335   5.372  12.987
30757SOL    HW194168   7.265   5.361  13.052
30757SOL    HW294169   7.292   5.409  12.911
30758SOL     OW94170   6.750   8.508  10.765
30758SOL    HW194171   6.666   8.467  10.785
30758SOL    HW294172   6.749   8.520  10.670
30759SOL     OW94173  11.282   8.121   5.378
30759SOL    HW194174  11.348   8.190   5.382
30759SOL    HW294175  11.332   8.040   5.375
30760SOL     OW94176  13.127   0.154   5.872
30760SOL    HW194177  13.077   0.097   5.812
30760SOL    HW294178  13.167   0.093   5.934
30761SOL     OW94179   2.188   5.112   0.365
30761SOL    HW194180   2.163   5.034   0.315
30761SOL    HW294181   2.237   5.165   0.303
30762SOL     OW94182   6.041   6.902  10.363
30762SOL    HW194183   6.082   6.932  10.282
30762SOL    HW294184   6.114   6.878  10.419
30763SOL     OW94185   7.467   3.750   3.434
30763SOL    HW194186   7.376   3.740   3.404
30763SOL    HW294187   7.505   3.814   3.375
30764SOL     OW94188   6.114  12.661  14.822
30764SOL    HW194189   6.052  12.705   0.009
30764SOL    HW294190   6.159  12.732  14.776
30765SOL     OW94191   6.301   5.273  13.374
30765SOL    HW194192   6.237   5.224  13.323
30765SOL    HW294193   6.283   5.365  13.354
30766SOL     OW94194   7.050  11.113   5.345
30766SOL    HW194195   7.032  11.160   5.264
30766SOL    HW294196   6.979  11.138   5.404
30767SOL     OW94197   8.680  13.039  14.013
30767SOL    HW194198   8.672  12.944  14.026
30767SOL    HW294199   8.594  13.074  14.039
30768SOL     OW94200  12.357   0.696   5.730
30768SOL    HW194201  12.265   0.670   5.731
30768SOL    HW294202  12.392   0.662   5.813
30769SOL     OW94203   5.476   3.506  13.631
30769SOL    HW194204   5.528   3.457  13.695
30769SOL    HW294205   5.501   3.597  13.644
30770SOL     OW94206   4.792  13.019  14.450
30770SOL    HW194207   4.818  13.006  14.542
30770SOL    HW294208   4.874  13.016  14.402
30771SOL     OW94209   2.466   3.539   0.147
30771SOL    HW194210   2.410   3.599   0.197
30771SOL    HW294211   2.475   3.462   0.203
30772SOL     OW94212   9.559   6.005   4.415
30772SOL    HW194213   9.590   6.067   4.481
30772SOL    HW294214   9.566   6.054   4.332
30773SOL     OW94215   6.841  11.784   2.903
30773SOL    HW194216   6.890  11.765   2.823
30773SOL    HW294217   6.908  11.791   2.971
30774SOL     OW94218   9.284  13.029   0.566
30774SOL    HW194219   9.318  13.048   0.653
30774SOL    HW294220   9.218  12.961   0.579
30775SOL     OW94221   4.104   7.023   4.169
30775SOL    HW194222   4.019   6.980   4.161
30775SOL    HW294223   4.106   7.058   4.258
30776SOL     OW94224  11.915   9.217   5.994
30776SOL    HW194225  11.913   9.209   6.089
30776SOL    HW294226  11.981   9.284   5.977
30777SOL     OW94227   9.680   8.407   9.052
30777SOL    HW194228   9.682   8.480   8.989
30777SOL    HW294229   9.723   8.442   9.130
30778SOL     OW94230  11.689  11.566   3.990
30778SOL    HW194231  11.639  11.490   4.022
30778SOL    HW294232  11.682  11.630   4.060
30779SOL     OW94233   6.117   6.595   6.784
30779SOL    HW194234   6.045   6.600   6.721
30779SOL    HW294235   6.115   6.679   6.830
30780SOL     OW94236   2.065  12.957   8.878
30780SOL    HW194237   2.075  13.005   8.796
30780SOL    HW294238   2.155  12.945   8.910
30781SOL     OW94239  14.328   7.047   4.674
30781SOL    HW194240  14.334   7.060   4.769
30781SOL    HW294241  14.245   7.001   4.661
30782SOL     OW94242  11.446  10.533   7.546
30782SOL    HW194243  11.532  10.558   7.510
30782SOL    HW294244  11.385  10.550   7.474
30783SOL     OW94245  13.335  13.640  13.000
30783SOL    HW194246  13.287  13.619  12.920
30783SOL    HW294247  13.425  13.613  12.983
30784SOL     OW94248   8.411  12.879   8.082
30784SOL    HW194249   8.492  12.904   8.037
30784SOL    HW294250   8.344  12.878   8.014
30785SOL     OW94251   3.730   2.499   4.778
30785SOL    HW194252   3.773   2.415   4.792
30785SOL    HW294253   3.714   2.532   4.866
30786SOL     OW94254   5.288  14.440  10.255
30786SOL    HW194255   5.294  14.373  10.323
30786SOL    HW294256   5.239  14.397  10.184
30787SOL     OW94257  13.646   8.207   4.717
30787SOL    HW194258  13.645   8.258   4.798
30787SOL    HW294259  13.739   8.195   4.697
30788SOL     OW94260   6.993  13.545   4.823
30788SOL    HW194261   6.920  13.484   4.815
30788SOL    HW294262   6.953  13.628   4.850
30789SOL     OW94263  11.305   6.068   9.770
30789SOL    HW194264  11.333   6.068   9.861
30789SOL    HW294265  11.354   6.140   9.730
30790SOL     OW94266  11.714  11.250   1.162
30790SOL    HW194267  11.640  11.272   1.219
30790SOL    HW294268  11.683  11.175   1.112
30791SOL     OW94269  12.762   3.272   9.314
30791SOL    HW194270  12.727   3.241   9.397
30791SOL    HW294271  12.690   3.264   9.252
30792SOL     OW94272   3.606  12.925   4.076
30792SOL    HW194273   3.555  12.848   4.101
30792SOL    HW294274   3.670  12.893   4.014
30793SOL     OW94275  13.040   8.119   8.849
30793SOL    HW194276  12.977   8.056   8.814
30793SOL    HW294277  13.125   8.086   8.822
30794SOL     OW94278   4.313   2.788  11.140
30794SOL    HW194279   4.323   2.730  11.064
30794SOL    HW294280   4.401   2.821  11.156
30795SOL     OW94281   6.841   6.418   4.572
30795SOL    HW194282   6.830   6.333   4.615
30795SOL    HW294283   6.934   6.422   4.550
30796SOL     OW94284   1.978   3.583   6.558
30796SOL    HW194285   1.949   3.523   6.626
30796SOL    HW294286   2.067   3.555   6.538
30797SOL     OW94287   0.159   5.940  13.200
30797SOL    HW194288   0.205   5.880  13.258
30797SOL    HW294289   0.073   5.900  13.188
30798SOL     OW94290   1.612   4.753   0.818
30798SOL    HW194291   1.606   4.699   0.739
30798SOL    HW294292   1.573   4.836   0.793
30799SOL     OW94293   5.753  10.960   4.652
30799SOL    HW194294   5.844  10.987   4.646
30799SOL    HW294295   5.750  10.875   4.608
30800SOL     OW94296  10.726   9.047   8.175
30800SOL    HW194297  10.739   8.996   8.255
30800SOL    HW294298  10.798   9.021   8.118
30801SOL     OW94299   0.310   7.412  14.696
30801SOL    HW194300   0.313   7.330  14.746
30801SOL    HW294301   0.361   7.393  14.617
30802SOL     OW94302  10.431   1.533   5.646
30802SOL    HW194303  10.382   1.584   5.709
30802SOL    HW294304  10.522   1.561   5.657
30803SOL     OW94305  11.098   5.011  13.883
30803SOL    HW194306  11.155   4.966  13.821
30803SOL    HW294307  11.049   5.074  13.829
30804SOL     OW94308   3.582  11.061  10.712
30804SOL    HW194309   3.528  11.003  10.658
30804SOL    HW294310   3.588  11.142  10.661
30805SOL     OW94311   9.611   8.213  10.976
30805SOL    HW194312   9.575   8.158  10.907
30805SOL    HW294313   9.595   8.165  11.057
30806SOL     OW94314   4.620   3.531  10.896
30806SOL    HW194315   4.567   3.604  10.929
30806SOL    HW294316   4.602   3.459  10.957
30807SOL     OW94317   6.157   3.811   1.947
30807SOL    HW194318   6.164   3.772   1.859
30807SOL    HW294319   6.127   3.900   1.931
30808SOL     OW94320   9.657   4.740  10.508
30808SOL    HW194321   9.707   4.800  10.453
30808SOL    HW294322   9.723   4.692  10.557
30809SOL     OW94323   2.483  14.002   0.715
30809SOL    HW194324   2.424  14.069   0.681
30809SOL    HW294325   2.464  13.924   0.663
30810SOL     OW94326   1.606  12.414   7.324
30810SOL    HW194327   1.520  12.405   7.283
30810SOL    HW294328   1.587  12.423   7.417
30811SOL     OW94329   8.778   5.496  10.683
30811SOL    HW194330   8.782   5.512  10.777
30811SOL    HW294331   8.830   5.567  10.645
30812SOL     OW94332   2.601   6.956   6.382
30812SOL    HW194333   2.536   6.928   6.447
30812SOL    HW294334   2.579   6.906   6.303
30813SOL     OW94335  13.020   0.665  12.872
30813SOL    HW194336  13.042   0.699  12.958
30813SOL    HW294337  12.981   0.740  12.826
30814SOL     OW94338   0.390   2.796  11.787
30814SOL    HW194339   0.388   2.701  11.795
30814SOL    HW294340   0.301   2.823  11.811
30815SOL     OW94341   8.274   2.103   4.886
30815SOL    HW194342   8.361   2.091   4.925
30815SOL    HW294343   8.288   2.092   4.792
30816SOL     OW94344   5.137   5.483   4.021
30816SOL    HW194345   5.147   5.548   3.952
30816SOL    HW294346   5.223   5.479   4.062
30817SOL     OW94347  10.966   2.093   8.983
30817SOL    HW194348  11.004   2.157   8.923
30817SOL    HW294349  11.031   2.022   8.986
30818SOL     OW94350  11.515   5.170  14.112
30818SOL    HW194351  11.527   5.164  14.017
30818SOL    HW294352  11.427   5.134  14.127
30819SOL     OW94353   0.439   5.653   8.512
30819SOL    HW194354   0.392   5.624   8.590
30819SOL    HW294355   0.437   5.748   8.517
30820SOL     OW94356   2.590   9.109   2.281
30820SOL    HW194357   2.630   9.085   2.365
30820SOL    HW294358   2.656   9.088   2.216
30821SOL     OW94359   6.463   5.282   6.500
30821SOL    HW194360   6.535   5.345   6.508
30821SOL    HW294361   6.444   5.280   6.406
30822SOL     OW94362   5.262   1.077   5.613
30822SOL    HW194363   5.265   1.132   5.535
30822SOL    HW294364   5.291   1.133   5.684
30823SOL     OW94365   3.597   6.534  13.528
30823SOL    HW194366   3.593   6.629  13.541
30823SOL    HW294367   3.585   6.523  13.434
30824SOL     OW94368  13.275   3.048   7.083
30824SOL    HW194369  13.258   3.089   6.998
30824SOL    HW294370  13.223   3.099   7.145
30825SOL     OW94371  13.302  11.794   8.106
30825SOL    HW194372  13.278  11.877   8.066
30825SOL    HW294373  13.389  11.809   8.144
30826SOL     OW94374   6.097   9.970  12.506
30826SOL    HW194375   6.075  10.046  12.452
30826SOL    HW294376   6.156   9.919  12.451
30827SOL     OW94377   7.573   4.822  11.620
30827SOL    HW194378   7.653   4.869  11.643
30827SOL    HW294379   7.504   4.889  11.622
30828SOL     OW94380  10.576  13.106   3.059
30828SOL    HW194381  10.618  13.099   2.973
30828SOL    HW294382  10.556  13.199   3.069
30829SOL     OW94383   3.717   3.587   6.891
30829SOL    HW194384   3.767   3.580   6.972
30829SOL    HW294385   3.745   3.670   6.852
30830SOL     OW94386  11.922   0.797   7.899
30830SOL    HW194387  11.858   0.810   7.829
30830SOL    HW294388  11.871   0.802   7.979
30831SOL     OW94389  11.979  12.323   5.044
30831SOL    HW194390  12.000  12.414   5.063
30831SOL    HW294391  12.048  12.272   5.087
30832SOL     OW94392  12.019   9.688   4.134
30832SOL    HW194393  12.037   9.623   4.065
30832SOL    HW294394  12.101   9.694   4.183
30833SOL     OW94395  13.954   7.669   5.195
30833SOL    HW194396  13.934   7.610   5.123
30833SOL    HW294397  13.930   7.756   5.163
30834SOL     OW94398   8.186   8.705  11.502
30834SOL    HW194399   8.189   8.742  11.414
30834SOL    HW294400   8.168   8.780  11.559
30835SOL     OW94401   2.753  13.462  14.079
30835SOL    HW194402   2.798  13.541  14.049
30835SOL    HW294403   2.796  13.440  14.162
30836SOL     OW94404  13.620  14.148   9.321
30836SOL    HW194405  13.702  14.196   9.304
30836SOL    HW294406  13.557  14.216   9.344
30837SOL     OW94407   7.334  10.174   4.220
30837SOL    HW194408   7.392  10.205   4.290
30837SOL    HW294409   7.316  10.083   4.243
30838SOL     OW94410   2.920  11.988   0.360
30838SOL    HW194411   2.945  11.958   0.273
30838SOL    HW294412   2.999  12.026   0.397
30839SOL     OW94413   9.671  14.669   1.924
30839SOL    HW194414   9.580  14.654   1.949
30839SOL    HW294415   9.705  14.581   1.906
30840SOL     OW94416   0.125   4.520   7.324
30840SOL    HW194417   0.099   4.481   7.407
30840SOL    HW294418   0.048   4.514   7.268
30841SOL     OW94419   4.993   2.874  12.332
30841SOL    HW194420   5.032   2.812  12.393
30841SOL    HW294421   5.061   2.942  12.322
30842SOL     OW94422  14.737  13.333  12.630
30842SOL    HW194423  14.780  13.373  12.706
30842SOL    HW294424  14.780  13.248  12.621
30843SOL     OW94425   7.711  12.915  12.113
30843SOL    HW194426   7.707  12.835  12.060
30843SOL    HW294427   7.790  12.904  12.165
30844SOL     OW94428   6.175   2.536   8.712
30844SOL    HW194429   6.124   2.550   8.792
30844SOL    HW294430   6.170   2.619   8.665
30845SOL     OW94431   6.827   3.527   4.407
30845SOL    HW194432   6.800   3.619   4.403
30845SOL    HW294433   6.922   3.531   4.415
30846SOL     OW94434   8.696  11.319   6.151
30846SOL    HW194435   8.790  11.310   6.168
30846SOL    HW294436   8.662  11.229   6.159
30847SOL     OW94437   5.837  10.357  13.215
30847SOL    HW194438   5.746  10.370  13.242
30847SOL    HW294439   5.834  10.278  13.161
30848SOL     OW94440   8.105   8.447   0.774
30848SOL    HW194441   8.033   8.511   0.775
30848SOL    HW294442   8.148   8.460   0.858
30849SOL     OW94443   3.173   7.697  10.202
30849SOL    HW194444   3.081   7.678  10.188
30849SOL    HW294445   3.196   7.646  10.279
30850SOL     OW94446  13.211   2.156   3.667
30850SOL    HW194447  13.138   2.109   3.627
30850SOL    HW294448  13.269   2.088   3.701
30851SOL     OW94449   6.324   0.347   2.719
30851SOL    HW194450   6.257   0.336   2.786
30851SOL    HW294451   6.405   0.358   2.768
30852SOL     OW94452   4.171   9.473   8.336
30852SOL    HW194453   4.210   9.485   8.423
30852SOL    HW294454   4.245   9.481   8.275
30853SOL     OW94455   6.144   8.196   4.136
30853SOL    HW194456   6.238   8.204   4.151
30853SOL    HW294457   6.126   8.103   4.148
30854SOL     OW94458  12.937  12.644  11.946
30854SOL    HW194459  13.004  12.578  11.965
30854SOL    HW294460  12.987  12.724  11.926
30855SOL     OW94461  13.733   0.086  13.484
30855SOL    HW194462  13.756   0.137  13.561
30855SOL    HW294463  13.740  14.864  13.513
30856SOL     OW94464  10.514   9.087   6.362
30856SOL    HW194465  10.591   9.084   6.419
30856SOL    HW294466  10.531   9.160   6.302
30857SOL     OW94467   4.178   5.759   9.792
30857SOL    HW194468   4.193   5.779   9.885
30857SOL    HW294469   4.172   5.845   9.750
30858SOL     OW94470  13.262   9.252   1.863
30858SOL    HW194471  13.171   9.237   1.887
30858SOL    HW294472  13.307   9.172   1.889
30859SOL     OW94473   2.821  11.910   2.729
30859SOL    HW194474   2.914  11.888   2.736
30859SOL    HW294475   2.781  11.870   2.806
30860SOL     OW94476   8.384  11.068   7.684
30860SOL    HW194477   8.332  11.055   7.763
30860SOL    HW294478   8.442  10.992   7.681
30861SOL     OW94479   0.255   7.624  10.496
30861SOL    HW194480   0.327   7.643  10.436
30861SOL    HW294481   0.297   7.595  10.576
30862SOL     OW94482   6.554   9.889   0.371
30862SOL    HW194483   6.555   9.886   0.467
30862SOL    HW294484   6.587   9.976   0.349
30863SOL     OW94485   9.697   9.027  10.184
30863SOL    HW194486   9.605   9.045  10.203
30863SOL    HW294487   9.739   9.113  10.186
30864SOL     OW94488   2.435   2.532   1.677
30864SOL    HW194489   2.416   2.585   1.754
30864SOL    HW294490   2.426   2.594   1.604
30865SOL     OW94491   3.059  14.773  11.063
30865SOL    HW194492   2.967  14.755  11.042
30865SOL    HW294493   3.069  14.867  11.044
30866SOL     OW94494  12.472  13.792  12.019
30866SOL    HW194495  12.450  13.874  12.063
30866SOL    HW294496  12.422  13.796  11.937
30867SOL     OW94497  12.792  12.104   6.599
30867SOL    HW194498  12.796  12.009   6.589
30867SOL    HW294499  12.883  12.132   6.606
30868SOL     OW94500   8.057   9.369  14.002
30868SOL    HW194501   8.102   9.285  14.004
30868SOL    HW294502   8.120   9.429  13.961
30869SOL     OW94503  13.056   9.895   3.880
30869SOL    HW194504  13.140   9.931   3.908
30869SOL    HW294505  13.026   9.845   3.956
30870SOL     OW94506  13.483  14.268   4.790
30870SOL    HW194507  13.405  14.323   4.802
30870SOL    HW294508  13.542  14.295   4.859
30871SOL     OW94509   8.250  13.075   1.392
30871SOL    HW194510   8.342  13.095   1.375
30871SOL    HW294511   8.228  13.127   1.469
30872SOL     OW94512  14.768   2.244   7.118
30872SOL    HW194513  14.799   2.312   7.178
30872SOL    HW294514  14.786   2.161   7.164
30873SOL     OW94515  11.529   7.900  11.037
30873SOL    HW194516  11.482   7.873  10.958
30873SOL    HW294517  11.615   7.858  11.030
30874SOL     OW94518   5.503   4.798   1.929
30874SOL    HW194519   5.504   4.891   1.907
30874SOL    HW294520   5.443   4.792   2.003
30875SOL     OW94521  11.815  12.258  10.714
30875SOL    HW194522  11.895  12.242  10.663
30875SOL    HW294523  11.773  12.172  10.719
30876SOL     OW94524  12.653   7.578   8.632
30876SOL    HW194525  12.642   7.673   8.631
30876SOL    HW294526  12.581   7.546   8.686
30877SOL     OW94527   4.226   8.370   4.039
30877SOL    HW194528   4.179   8.287   4.027
30877SOL    HW294529   4.220   8.413   3.953
30878SOL     OW94530   4.167   7.558  11.186
30878SOL    HW194531   4.261   7.542  11.176
30878SOL    HW294532   4.152   7.640  11.140
30879SOL     OW94533  13.845   3.261   8.089
30879SOL    HW194534  13.781   3.200   8.126
30879SOL    HW294535  13.924   3.207   8.076
30880SOL     OW94536   6.483  13.733  13.225
30880SOL    HW194537   6.420  13.773  13.166
30880SOL    HW294538   6.543  13.804  13.247
30881SOL     OW94539   4.650   3.508   9.614
30881SOL    HW194540   4.653   3.578   9.549
30881SOL    HW294541   4.662   3.553   9.698
30882SOL     OW94542   2.124  14.219  11.685
30882SOL    HW194543   2.132  14.260  11.599
30882SOL    HW294544   2.214  14.202  11.713
30883SOL     OW94545  13.691   8.498  11.838
30883SOL    HW194546  13.653   8.477  11.752
30883SOL    HW294547  13.785   8.507  11.822
30884SOL     OW94548   5.014   5.457   4.631
30884SOL    HW194549   5.107   5.442   4.648
30884SOL    HW294550   5.001   5.424   4.542
30885SOL     OW94551   3.215   5.525   0.155
30885SOL    HW194552   3.263   5.526   0.238
30885SOL    HW294553   3.245   5.604   0.109
30886SOL     OW94554   1.479   9.092   8.217
30886SOL    HW194555   1.400   9.146   8.213
30886SOL    HW294556   1.457   9.022   8.279
30887SOL     OW94557  11.428  10.859   7.338
30887SOL    HW194558  11.332  10.863   7.341
30887SOL    HW294559  11.457  10.931   7.393
30888SOL     OW94560   6.643  14.167  12.281
30888SOL    HW194561   6.641  14.099  12.214
30888SOL    HW294562   6.613  14.246  12.236
30889SOL     OW94563   5.263   5.238  10.820
30889SOL    HW194564   5.246   5.322  10.776
30889SOL    HW294565   5.193   5.231  10.885
30890SOL     OW94566   4.628   8.521   8.564
30890SOL    HW194567   4.669   8.458   8.623
30890SOL    HW294568   4.582   8.467   8.500
30891SOL     OW94569   1.039   0.130  12.263
30891SOL    HW194570   0.993   0.118  12.180
30891SOL    HW294571   1.126   0.162  12.238
30892SOL     OW94572  11.045  11.689   0.835
30892SOL    HW194573  11.136  11.674   0.857
30892SOL    HW294574  11.019  11.613   0.783
30893SOL     OW94575   0.401  10.153   4.052
30893SOL    HW194576   0.328  10.214   4.041
30893SOL    HW294577   0.362  10.066   4.040
30894SOL     OW94578   4.877  14.066   0.450
30894SOL    HW194579   4.886  14.032   0.539
30894SOL    HW294580   4.934  14.010   0.397
30895SOL     OW94581   6.023   1.331   0.121
30895SOL    HW194582   6.067   1.412   0.147
30895SOL    HW294583   6.040   1.270   0.192
30896SOL     OW94584   9.427   0.685   0.660
30896SOL    HW194585   9.471   0.650   0.583
30896SOL    HW294586   9.475   0.649   0.734
30897SOL     OW94587   1.189   5.015   1.382
30897SOL    HW194588   1.239   5.094   1.361
30897SOL    HW294589   1.137   4.998   1.303
30898SOL     OW94590   8.819  14.013  14.758
30898SOL    HW194591   8.872  13.949  14.806
30898SOL    HW294592   8.793  14.076  14.825
30899SOL     OW94593  14.194  11.666  11.635
30899SOL    HW194594  14.243  11.684  11.716
30899SOL    HW294595  14.262  11.649  11.569
30900SOL     OW94596   8.227   0.188   9.436
30900SOL    HW194597   8.189   0.219   9.353
30900SOL    HW294598   8.235   0.267   9.490
30901SOL     OW94599   8.682   4.284   0.050
30901SOL    HW194600   8.657   4.303  14.829
30901SOL    HW294601   8.611   4.229   0.083
30902SOL     OW94602   8.527   6.503   6.838
30902SOL    HW194603   8.564   6.517   6.925
30902SOL    HW294604   8.560   6.417   6.811
30903SOL     OW94605   8.955  10.615   0.944
30903SOL    HW194606   8.859  10.622   0.941
30903SOL    HW294607   8.985  10.683   0.884
30904SOL     OW94608   1.758   4.817  14.493
30904SOL    HW194609   1.804   4.749  14.542
30904SOL    HW294610   1.742   4.777  14.407
30905SOL     OW94611   4.893   0.206   7.085
30905SOL    HW194612   4.890   0.262   7.163
30905SOL    HW294613   4.985   0.181   7.076
30906SOL     OW94614  12.003   9.134   5.481
30906SOL    HW194615  11.965   9.220   5.499
30906SOL    HW294616  12.097   9.150   5.479
30907SOL     OW94617   2.916   6.106  11.161
30907SOL    HW194618   2.980   6.078  11.096
30907SOL    HW294619   2.836   6.057  11.139
30908SOL     OW94620   4.271   0.034  10.960
30908SOL    HW194621   4.228   0.096  10.901
30908SOL    HW294622   4.331   0.088  11.012
30909SOL     OW94623  11.332   4.892   5.154
30909SOL    HW194624  11.271   4.906   5.081
30909SOL    HW294625  11.283   4.841   5.217
30910SOL     OW94626   2.930   3.689  11.681
30910SOL    HW194627   2.911   3.771  11.636
30910SOL    HW294628   2.927   3.622  11.613
30911SOL     OW94629   8.468   7.299   2.362
30911SOL    HW194630   8.538   7.310   2.427
30911SOL    HW294631   8.388   7.293   2.414
30912SOL     OW94632   1.489   2.884   4.504
30912SOL    HW194633   1.529   2.824   4.568
30912SOL    HW294634   1.529   2.861   4.421
30913SOL     OW94635   1.794   3.445  13.789
30913SOL    HW194636   1.805   3.524  13.843
30913SOL    HW294637   1.855   3.457  13.716
30914SOL     OW94638  10.157   4.951   1.765
30914SOL    HW194639  10.144   5.023   1.703
30914SOL    HW294640  10.161   4.993   1.850
30915SOL     OW94641   4.538  14.536   7.715
30915SOL    HW194642   4.573  14.601   7.654
30915SOL    HW294643   4.615  14.487   7.745
30916SOL     OW94644  10.153  13.565   7.946
30916SOL    HW194645  10.070  13.548   7.991
30916SOL    HW294646  10.181  13.480   7.915
30917SOL     OW94647   9.266   3.215   1.163
30917SOL    HW194648   9.226   3.252   1.085
30917SOL    HW294649   9.295   3.290   1.214
30918SOL     OW94650   3.475   4.288  10.075
30918SOL    HW194651   3.419   4.356  10.039
30918SOL    HW294652   3.544   4.276  10.009
30919SOL     OW94653  14.255   8.663   1.503
30919SOL    HW194654  14.350   8.650   1.502
30919SOL    HW294655  14.227   8.640   1.415
30920SOL     OW94656   8.163   3.868   6.673
30920SOL    HW194657   8.131   3.922   6.746
30920SOL    HW294658   8.098   3.881   6.604
30921SOL     OW94659   8.257   1.991   1.268
30921SOL    HW194660   8.316   1.937   1.215
30921SOL    HW294661   8.312   2.024   1.339
30922SOL     OW94662   9.704  13.844  12.546
30922SOL    HW194663   9.697  13.852  12.451
30922SOL    HW294664   9.786  13.797  12.560
30923SOL     OW94665   1.304  11.859   6.522
30923SOL    HW194666   1.314  11.922   6.451
30923SOL    HW294667   1.219  11.818   6.507
30924SOL     OW94668  12.745   6.462   9.326
30924SOL    HW194669  12.790   6.541   9.356
30924SOL    HW294670  12.663   6.495   9.287
30925SOL     OW94671  11.148  10.465  14.098
30925SOL    HW194672  11.079  10.403  14.122
30925SOL    HW294673  11.216  10.410  14.058
30926SOL     OW94674   8.522   1.874   9.915
30926SOL    HW194675   8.604   1.839   9.948
30926SOL    HW294676   8.462   1.870   9.990
30927SOL     OW94677  11.564   3.610   3.266
30927SOL    HW194678  11.605   3.585   3.349
30927SOL    HW294679  11.490   3.666   3.291
30928SOL     OW94680   6.351   9.445  12.285
30928SOL    HW194681   6.396   9.380  12.231
30928SOL    HW294682   6.403   9.451  12.365
30929SOL     OW94683   0.291  11.969   8.801
30929SOL    HW194684   0.349  11.913   8.750
30929SOL    HW294685   0.287  12.051   8.752
30930SOL     OW94686  14.558   8.994   9.269
30930SOL    HW194687  14.639   8.954   9.301
30930SOL    HW294688  14.531   8.938   9.196
30931SOL     OW94689  14.420  11.304   4.271
30931SOL    HW194690  14.425  11.236   4.204
30931SOL    HW294691  14.471  11.377   4.236
30932SOL     OW94692   1.068  14.809   4.763
30932SOL    HW194693   1.152  14.834   4.801
30932SOL    HW294694   1.052   0.005   4.695
30933SOL     OW94695   8.361   5.944   2.059
30933SOL    HW194696   8.327   5.895   2.134
30933SOL    HW294697   8.297   6.013   2.043
30934SOL     OW94698   5.780  10.015  13.970
30934SOL    HW194699   5.762   9.962  13.893
30934SOL    HW294700   5.730   9.973  14.040
30935SOL     OW94701   3.710   7.893   0.110
30935SOL    HW194702   3.795   7.935   0.127
30935SOL    HW294703   3.724   7.842   0.031
30936SOL     OW94704  10.578   6.486   9.842
30936SOL    HW194705  10.553   6.513   9.753
30936SOL    HW294706  10.494   6.474   9.887
30937SOL     OW94707  10.859  12.934   6.477
30937SOL    HW194708  10.810  12.872   6.423
30937SOL    HW294709  10.947  12.934   6.440
30938SOL     OW94710   8.433  10.477  14.170
30938SOL    HW194711   8.482  10.526  14.236
30938SOL    HW294712   8.345  10.468  14.208
30939SOL     OW94713  11.095  10.475  12.392
30939SOL    HW194714  11.040  10.404  12.359
30939SOL    HW294715  11.049  10.506  12.470
30940SOL     OW94716   4.421   6.356  14.536
30940SOL    HW194717   4.381   6.329  14.454
30940SOL    HW294718   4.493   6.414  14.510
30941SOL     OW94719   1.840   1.653   9.517
30941SOL    HW194720   1.776   1.597   9.561
30941SOL    HW294721   1.804   1.663   9.428
30942SOL     OW94722  12.653   6.249   2.498
30942SOL    HW194723  12.685   6.166   2.462
30942SOL    HW294724  12.638   6.304   2.421
30943SOL     OW94725  10.553  11.203  13.820
30943SOL    HW194726  10.643  11.189  13.850
30943SOL    HW294727  10.521  11.116  13.798
30944SOL     OW94728  14.319  11.035   7.312
30944SOL    HW194729  14.350  11.125   7.319
30944SOL    HW294730  14.313  11.005   7.403
30945SOL     OW94731   2.956   6.998  11.662
30945SOL    HW194732   3.040   7.044  11.663
30945SOL    HW294733   2.966   6.929  11.727
30946SOL     OW94734   5.501  10.876   1.214
30946SOL    HW194735   5.475  10.855   1.304
30946SOL    HW294736   5.489  10.970   1.206
30947SOL     OW94737   8.003   3.879   5.032
30947SOL    HW194738   7.998   3.964   4.989
30947SOL    HW294739   8.096   3.857   5.028
30948SOL     OW94740   3.839   6.107   9.204
30948SOL    HW194741   3.754   6.084   9.240
30948SOL    HW294742   3.882   6.157   9.273
30949SOL     OW94743  12.954   6.379   6.446
30949SOL    HW194744  12.879   6.321   6.458
30949SOL    HW294745  12.944   6.445   6.515
30950SOL     OW94746   4.681  14.222  13.297
30950SOL    HW194747   4.614  14.229  13.365
30950SOL    HW294748   4.640  14.169  13.229
30951SOL     OW94749   8.789  12.597   6.663
30951SOL    HW194750   8.788  12.555   6.749
30951SOL    HW294751   8.839  12.678   6.677
30952SOL     OW94752  11.066  13.681  13.695
30952SOL    HW194753  10.990  13.707  13.642
30952SOL    HW294754  11.038  13.695  13.785
30953SOL     OW94755   1.131   5.052  13.631
30953SOL    HW194756   1.109   4.959  13.625
30953SOL    HW294757   1.079   5.085  13.704
30954SOL     OW94758   8.776  13.675  12.926
30954SOL    HW194759   8.779  13.712  13.014
30954SOL    HW294760   8.722  13.597  12.934
30955SOL     OW94761   5.338   6.901   1.648
30955SOL    HW194762   5.383   6.981   1.621
30955SOL    HW294763   5.246   6.918   1.629
30956SOL     OW94764   1.031   9.511   3.058
30956SOL    HW194765   0.980   9.445   3.104
30956SOL    HW294766   1.121   9.497   3.087
30957SOL     OW94767   4.946   3.072   9.595
30957SOL    HW194768   5.015   3.132   9.623
30957SOL    HW294769   4.984   3.025   9.521
30958SOL     OW94770  11.682   5.921  13.733
30958SOL    HW194771  11.668   5.895  13.825
30958SOL    HW294772  11.714   6.011  13.739
30959SOL     OW94773   8.836   6.982  10.850
30959SOL    HW194774   8.743   6.960  10.839
30959SOL    HW294775   8.883   6.906  10.816
30960SOL     OW94776   3.366  13.090  13.017
30960SOL    HW194777   3.298  13.119  12.956
30960SOL    HW294778   3.430  13.045  12.961
30961SOL     OW94779   3.555   8.164   1.420
30961SOL    HW194780   3.643   8.144   1.452
30961SOL    HW294781   3.524   8.082   1.382
30962SOL     OW94782   4.617   4.439   7.613
30962SOL    HW194783   4.584   4.528   7.601
30962SOL    HW294784   4.550   4.396   7.666
30963SOL     OW94785   5.722   3.882   6.073
30963SOL    HW194786   5.801   3.829   6.085
30963SOL    HW294787   5.748   3.950   6.011
30964SOL     OW94788  11.535  12.488   4.366
30964SOL    HW194789  11.491  12.447   4.440
30964SOL    HW294790  11.624  12.452   4.368
30965SOL     OW94791   4.911   1.162   0.013
30965SOL    HW194792   4.978   1.229  14.868
30965SOL    HW294793   4.850   1.203   0.074
30966SOL     OW94794  11.274   4.924   8.344
30966SOL    HW194795  11.254   5.008   8.303
30966SOL    HW294796  11.367   4.928   8.364
30967SOL     OW94797   6.700   0.805  11.638
30967SOL    HW194798   6.727   0.886  11.595
30967SOL    HW294799   6.619   0.827  11.683
30968SOL     OW94800   2.533   9.534   0.089
30968SOL    HW194801   2.550   9.549  14.866
30968SOL    HW294802   2.468   9.600   0.113
30969SOL     OW94803  12.821  10.487   3.260
30969SOL    HW194804  12.757  10.549   3.224
30969SOL    HW294805  12.885  10.475   3.190
30970SOL     OW94806   1.260   5.118   2.299
30970SOL    HW194807   1.207   5.079   2.229
30970SOL    HW294808   1.351   5.105   2.270
30971SOL     OW94809   5.514   9.836   1.337
30971SOL    HW194810   5.443   9.847   1.401
30971SOL    HW294811   5.500   9.748   1.302
30972SOL     OW94812   8.111   6.235   3.890
30972SOL    HW194813   8.057   6.312   3.903
30972SOL    HW294814   8.171   6.259   3.819
30973SOL     OW94815   1.643   7.141   8.365
30973SOL    HW194816   1.726   7.127   8.319
30973SOL    HW294817   1.582   7.079   8.323
30974SOL     OW94818   2.436   7.678  10.182
30974SOL    HW194819   2.352   7.679  10.228
30974SOL    HW294820   2.414   7.709  10.094
30975SOL     OW94821   9.523   7.067  12.039
30975SOL    HW194822   9.511   7.049  11.945
30975SOL    HW294823   9.458   7.133  12.060
30976SOL     OW94824  10.733   9.074   2.755
30976SOL    HW194825  10.660   9.101   2.812
30976SOL    HW294826  10.725   8.978   2.751
30977SOL     OW94827   6.287   8.890   4.537
30977SOL    HW194828   6.280   8.985   4.533
30977SOL    HW294829   6.218   8.863   4.598
30978SOL     OW94830   7.346  13.567  14.166
30978SOL    HW194831   7.389  13.481  14.169
30978SOL    HW294832   7.340  13.594  14.258
30979SOL     OW94833   0.530   8.533   2.684
30979SOL    HW194834   0.599   8.545   2.619
30979SOL    HW294835   0.476   8.461   2.649
30980SOL     OW94836   1.808   0.318   3.383
30980SOL    HW194837   1.893   0.328   3.427
30980SOL    HW294838   1.783   0.407   3.358
30981SOL     OW94839   9.201   2.622  12.141
30981SOL    HW194840   9.168   2.542  12.098
30981SOL    HW294841   9.269   2.654  12.081
30982SOL     OW94842  14.678   2.510   2.943
30982SOL    HW194843  14.668   2.426   2.899
30982SOL    HW294844  14.768   2.537   2.924
30983SOL     OW94845   7.160   6.048  11.619
30983SOL    HW194846   7.225   6.054  11.549
30983SOL    HW294847   7.086   6.004  11.578
30984SOL     OW94848   3.568   7.505   5.183
30984SOL    HW194849   3.514   7.491   5.105
30984SOL    HW294850   3.535   7.441   5.246
30985SOL     OW94851   4.573   2.458   5.807
30985SOL    HW194852   4.538   2.375   5.840
30985SOL    HW294853   4.668   2.448   5.812
30986SOL     OW94854   4.051  12.756  12.904
30986SOL    HW194855   4.039  12.661  12.911
30986SOL    HW294856   4.111  12.768  12.830
30987SOL     OW94857   9.499   0.591  13.957
30987SOL    HW194858   9.577   0.570  13.906
30987SOL    HW294859   9.443   0.639  13.895
30988SOL     OW94860  14.647   7.943  11.869
30988SOL    HW194861  14.584   8.014  11.860
30988SOL    HW294862  14.719   7.967  11.811
30989SOL     OW94863   1.417   3.131   3.095
30989SOL    HW194864   1.327   3.129   3.127
30989SOL    HW294865   1.454   3.210   3.134
30990SOL     OW94866   4.049  14.365  10.054
30990SOL    HW194867   3.969  14.313  10.064
30990SOL    HW294868   4.025  14.434   9.992
30991SOL     OW94869   0.933  10.084  12.766
30991SOL    HW194870   0.889  10.050  12.689
30991SOL    HW294871   0.902  10.174  12.775
30992SOL     OW94872   9.997   2.808  12.883
30992SOL    HW194873   9.926   2.872  12.874
30992SOL    HW294874  10.073   2.850  12.844
30993SOL     OW94875  14.794   3.983   6.476
30993SOL    HW194876  14.833   3.906   6.435
30993SOL    HW294877  14.865   4.023   6.526
30994SOL     OW94878   7.465   8.143   7.153
30994SOL    HW194879   7.422   8.106   7.229
30994SOL    HW294880   7.430   8.232   7.147
30995SOL     OW94881   4.358  10.409  13.314
30995SOL    HW194882   4.342  10.487  13.260
30995SOL    HW294883   4.432  10.366  13.272
30996SOL     OW94884  12.950   4.433   8.557
30996SOL    HW194885  12.890   4.456   8.629
30996SOL    HW294886  12.974   4.342   8.575
30997SOL     OW94887   4.166   1.345  13.576
30997SOL    HW194888   4.122   1.419  13.535
30997SOL    HW294889   4.258   1.358  13.557
30998SOL     OW94890   8.334   2.937  11.740
30998SOL    HW194891   8.392   2.959  11.668
30998SOL    HW294892   8.250   2.919  11.698
30999SOL     OW94893   5.362   0.519  12.004
30999SOL    HW194894   5.297   0.502  12.073
30999SOL    HW294895   5.445   0.526  12.051
31000SOL     OW94896  14.256  11.480  12.528
31000SOL    HW194897  14.351  11.484  12.542
31000SOL    HW294898  14.219  11.485  12.616
31001SOL     OW94899  12.563   1.525   8.802
31001SOL    HW194900  12.471   1.517   8.775
31001SOL    HW294901  12.611   1.532   8.720
31002SOL     OW94902   5.108   6.826   7.218
31002SOL    HW194903   5.124   6.787   7.132
31002SOL    HW294904   5.189   6.809   7.267
31003SOL     OW94905   4.982   7.832  12.690
31003SOL    HW194906   4.949   7.821  12.779
31003SOL    HW294907   5.063   7.882  12.700
31004SOL     OW94908   8.111   9.548   3.117
31004SOL    HW194909   8.171   9.473   3.122
31004SOL    HW294910   8.056   9.529   3.041
31005SOL     OW94911  14.573   7.751  13.755
31005SOL    HW194912  14.558   7.720  13.845
31005SOL    HW294913  14.559   7.674  13.701
31006SOL     OW94914   5.306   0.430   9.752
31006SOL    HW194915   5.279   0.495   9.688
31006SOL    HW294916   5.373   0.378   9.706
31007SOL     OW94917   4.363  14.654   1.883
31007SOL    HW194918   4.359  14.649   1.978
31007SOL    HW294919   4.450  14.621   1.860
31008SOL     OW94920   6.422   1.334   6.650
31008SOL    HW194921   6.444   1.423   6.620
31008SOL    HW294922   6.356   1.348   6.718
31009SOL     OW94923   8.688   7.417   0.424
31009SOL    HW194924   8.674   7.383   0.336
31009SOL    HW294925   8.653   7.506   0.421
31010SOL     OW94926   9.606   8.647   3.996
31010SOL    HW194927   9.669   8.656   3.924
31010SOL    HW294928   9.648   8.692   4.070
31011SOL     OW94929   9.123  12.179   2.806
31011SOL    HW194930   9.099  12.231   2.729
31011SOL    HW294931   9.105  12.236   2.880
31012SOL     OW94932   8.549   7.905   2.824
31012SOL    HW194933   8.628   7.957   2.838
31012SOL    HW294934   8.497   7.956   2.762
31013SOL     OW94935   3.694   2.882  10.934
31013SOL    HW194936   3.674   2.975  10.950
31013SOL    HW294937   3.745   2.882  10.853
31014SOL     OW94938  13.056  11.464  13.716
31014SOL    HW194939  13.068  11.422  13.802
31014SOL    HW294940  13.035  11.555  13.736
31015SOL     OW94941  10.359   8.307   5.532
31015SOL    HW194942  10.273   8.275   5.558
31015SOL    HW294943  10.411   8.302   5.612
31016SOL     OW94944   9.534   9.324   1.418
31016SOL    HW194945   9.579   9.287   1.494
31016SOL    HW294946   9.496   9.248   1.373
31017SOL     OW94947  14.826   8.581  10.719
31017SOL    HW194948  14.843   8.632  10.641
31017SOL    HW294949  14.731   8.569  10.719
31018SOL     OW94950  11.619  13.412  13.588
31018SOL    HW194951  11.548  13.439  13.530
31018SOL    HW294952  11.591  13.328  13.624
31019SOL     OW94953   1.617   8.661   8.369
31019SOL    HW194954   1.679   8.614   8.424
31019SOL    HW294955   1.665   8.679   8.288
31020SOL     OW94956   3.475  14.692  13.691
31020SOL    HW194957   3.416  14.625  13.657
31020SOL    HW294958   3.435  14.720  13.774
31021SOL     OW94959   6.249   6.945  14.117
31021SOL    HW194960   6.269   7.013  14.053
31021SOL    HW294961   6.288   6.976  14.199
31022SOL     OW94962   7.652   1.307  11.859
31022SOL    HW194963   7.741   1.342  11.863
31022SOL    HW294964   7.663   1.213  11.843
31023SOL     OW94965   0.089   5.227   8.660
31023SOL    HW194966   0.068   5.320   8.650
31023SOL    HW294967   0.184   5.224   8.669
31024SOL     OW94968   8.991   4.413   5.764
31024SOL    HW194969   8.940   4.364   5.828
31024SOL    HW294970   8.925   4.463   5.715
31025SOL     OW94971   8.809   0.056  10.917
31025SOL    HW194972   8.783   0.011  10.998
31025SOL    HW294973   8.734   0.043  10.858
31026SOL     OW94974  13.288   7.131   4.127
31026SOL    HW194975  13.305   7.169   4.041
31026SOL    HW294976  13.276   7.037   4.110
31027SOL     OW94977   1.302   3.660  10.595
31027SOL    HW194978   1.340   3.711  10.667
31027SOL    HW294979   1.235   3.606  10.637
31028SOL     OW94980   9.434   9.287   7.862
31028SOL    HW194981   9.476   9.371   7.877
31028SOL    HW294982   9.464   9.232   7.934
31029SOL     OW94983   8.033  10.933   0.847
31029SOL    HW194984   8.023  10.881   0.927
31029SOL    HW294985   8.030  10.869   0.776
31030SOL     OW94986  12.008  10.608   0.492
31030SOL    HW194987  11.955  10.642   0.419
31030SOL    HW294988  11.949  10.550   0.539
31031SOL     OW94989   4.240   1.590   8.824
31031SOL    HW194990   4.251   1.500   8.854
31031SOL    HW294991   4.330   1.624   8.817
31032SOL     OW94992   1.101   0.029   9.236
31032SOL    HW194993   1.075  14.811   9.206
31032SOL    HW294994   1.090   0.026   9.331
31033SOL     OW94995  11.580   3.132   3.188
31033SOL    HW194996  11.613   3.185   3.115
31033SOL    HW294997  11.513   3.187   3.229
31034SOL     OW94998   3.459  10.437   5.036
31034SOL    HW194999   3.435  10.353   4.999
31034SOL    HW295000   3.382  10.463   5.088
31035SOL     OW95001   6.641   4.212   5.039
31035SOL    HW195002   6.730   4.177   5.041
31035SOL    HW295003   6.647   4.297   5.082
31036SOL     OW95004   4.707   5.449   0.735
31036SOL    HW195005   4.679   5.467   0.825
31036SOL    HW295006   4.796   5.414   0.744
31037SOL     OW95007   8.436   7.450   6.106
31037SOL    HW195008   8.445   7.401   6.024
31037SOL    HW295009   8.444   7.384   6.175
31038SOL     OW95010   1.920   1.455  14.727
31038SOL    HW195011   1.861   1.470  14.653
31038SOL    HW295012   2.007   1.478  14.693
31039SOL     OW95013   2.456   1.523   2.768
31039SOL    HW195014   2.487   1.522   2.677
31039SOL    HW295015   2.535   1.540   2.819
31040SOL     OW95016   1.503   5.601   4.643
31040SOL    HW195017   1.456   5.537   4.696
31040SOL    HW295018   1.454   5.683   4.656
31041SOL     OW95019   7.983   7.733   7.141
31041SOL    HW195020   8.062   7.700   7.183
31041SOL    HW295021   8.013   7.808   7.089
31042SOL     OW95022  10.569   2.798   4.301
31042SOL    HW195023  10.621   2.796   4.382
31042SOL    HW295024  10.494   2.742   4.320
31043SOL     OW95025  10.743  11.296   4.864
31043SOL    HW195026  10.741  11.295   4.960
31043SOL    HW295027  10.751  11.204   4.840
31044SOL     OW95028   0.899  13.093  13.918
31044SOL    HW195029   0.829  13.030  13.901
31044SOL    HW295030   0.929  13.120  13.832
31045SOL     OW95031  10.396   3.617   8.951
31045SOL    HW195032  10.323   3.555   8.946
31045SOL    HW295033  10.468   3.571   8.909
31046SOL     OW95034   0.307   4.193  12.503
31046SOL    HW195035   0.334   4.233  12.586
31046SOL    HW295036   0.253   4.118  12.530
31047SOL     OW95037  10.602   3.296   3.504
31047SOL    HW195038  10.538   3.367   3.497
31047SOL    HW295039  10.684   3.340   3.525
31048SOL     OW95040  10.005   5.938   4.000
31048SOL    HW195041   9.969   5.991   3.929
31048SOL    HW295042  10.020   6.000   4.071
31049SOL     OW95043   6.913   3.088   5.572
31049SOL    HW195044   6.959   3.030   5.633
31049SOL    HW295045   6.832   3.041   5.550
31050SOL     OW95046   5.326  13.069   9.955
31050SOL    HW195047   5.311  13.161   9.978
31050SOL    HW295048   5.421  13.061   9.949
31051SOL     OW95049   3.992   7.486   2.355
31051SOL    HW195050   3.981   7.430   2.432
31051SOL    HW295051   3.904   7.519   2.337
31052SOL     OW95052   2.802  12.635   1.602
31052SOL    HW195053   2.867  12.607   1.666
31052SOL    HW295054   2.839  12.714   1.564
31053SOL     OW95055  11.268   2.223   0.846
31053SOL    HW195056  11.199   2.272   0.890
31053SOL    HW295057  11.300   2.281   0.777
31054SOL     OW95058   6.960   0.491  10.923
31054SOL    HW195059   6.999   0.579  10.928
31054SOL    HW295060   6.959   0.460  11.014
31055SOL     OW95061  14.541  11.049   5.878
31055SOL    HW195062  14.622  11.004   5.903
31055SOL    HW295063  14.494  11.061   5.960
31056SOL     OW95064  13.142   6.275   3.013
31056SOL    HW195065  13.209   6.266   2.945
31056SOL    HW295066  13.079   6.206   2.994
31057SOL     OW95067   7.267  13.076   9.709
31057SOL    HW195068   7.301  13.133   9.641
31057SOL    HW295069   7.309  13.106   9.789
31058SOL     OW95070  12.724   1.752  12.865
31058SOL    HW195071  12.713   1.822  12.799
31058SOL    HW295072  12.666   1.777  12.937
31059SOL     OW95073   9.268  10.156   6.858
31059SOL    HW195074   9.362  10.140   6.852
31059SOL    HW295075   9.255  10.188   6.948
31060SOL     OW95076  13.363  12.422   0.725
31060SOL    HW195077  13.349  12.484   0.654
31060SOL    HW295078  13.282  12.426   0.776
31061SOL     OW95079   6.942  10.400   4.616
31061SOL    HW195080   6.900  10.485   4.631
31061SOL    HW295081   6.930  10.353   4.699
31062SOL     OW95082   9.930  12.943   7.058
31062SOL    HW195083   9.869  12.927   6.987
31062SOL    HW295084   9.976  13.024   7.033
31063SOL     OW95085  10.493   5.780   4.033
31063SOL    HW195086  10.534   5.821   3.957
31063SOL    HW295087  10.431   5.717   3.996
31064SOL     OW95088  11.948  11.542   3.450
31064SOL    HW195089  11.893  11.476   3.492
31064SOL    HW295090  11.966  11.606   3.518
31065SOL     OW95091   3.744   3.907  11.492
31065SOL    HW195092   3.828   3.911  11.445
31065SOL    HW295093   3.755   3.833  11.552
31066SOL     OW95094   0.656   1.681   5.989
31066SOL    HW195095   0.733   1.642   6.030
31066SOL    HW295096   0.663   1.657   5.897
31067SOL     OW95097  13.285   8.480   5.704
31067SOL    HW195098  13.284   8.575   5.706
31067SOL    HW295099  13.239   8.457   5.623
31068SOL     OW95100   7.088   8.070   4.990
31068SOL    HW195101   7.057   8.059   4.900
31068SOL    HW295102   7.126   7.986   5.013
31069SOL     OW95103  13.351   6.049   9.719
31069SOL    HW195104  13.443   6.033   9.698
31069SOL    HW295105  13.351   6.065   9.813
31070SOL     OW95106   5.869   2.790  11.721
31070SOL    HW195107   5.869   2.884  11.735
31070SOL    HW295108   5.898   2.753  11.804
31071SOL     OW95109  11.267   3.279   8.567
31071SOL    HW195110  11.295   3.196   8.529
31071SOL    HW295111  11.269   3.264   8.662
31072SOL     OW95112  14.806   4.040  14.487
31072SOL    HW195113  14.772   4.070  14.571
31072SOL    HW295114  14.734   3.991  14.447
31073SOL     OW95115   8.936   0.611  12.704
31073SOL    HW195116   8.925   0.696  12.746
31073SOL    HW295117   8.990   0.630  12.627
31074SOL     OW95118   0.893  14.156  10.736
31074SOL    HW195119   0.948  14.081  10.757
31074SOL    HW295120   0.922  14.225  10.796
31075SOL     OW95121   4.347   3.037   0.164
31075SOL    HW195122   4.310   2.990   0.090
31075SOL    HW295123   4.278   3.037   0.230
31076SOL     OW95124   4.843   2.730   1.282
31076SOL    HW195125   4.914   2.740   1.345
31076SOL    HW295126   4.886   2.729   1.197
31077SOL     OW95127   1.763   1.011  12.726
31077SOL    HW195128   1.705   0.983  12.655
31077SOL    HW295129   1.746   0.948  12.797
31078SOL     OW95130   1.609  10.242  11.354
31078SOL    HW195131   1.675  10.308  11.333
31078SOL    HW295132   1.562  10.279  11.429
31079SOL     OW95133   6.586   9.486   0.718
31079SOL    HW195134   6.503   9.524   0.745
31079SOL    HW295135   6.585   9.492   0.622
31080SOL     OW95136  13.133   6.882   7.389
31080SOL    HW195137  13.090   6.875   7.303
31080SOL    HW295138  13.100   6.807   7.438
31081SOL     OW95139   3.806   3.094   6.942
31081SOL    HW195140   3.870   3.130   7.004
31081SOL    HW295141   3.771   3.171   6.897
31082SOL     OW95142   5.236   1.296   9.672
31082SOL    HW195143   5.187   1.224   9.634
31082SOL    HW295144   5.270   1.262   9.754
31083SOL     OW95145  14.110   7.925   8.588
31083SOL    HW195146  14.097   7.852   8.648
31083SOL    HW295147  14.159   7.990   8.638
31084SOL     OW95148   9.073  11.006   8.304
31084SOL    HW195149   9.149  10.992   8.247
31084SOL    HW295150   9.023  10.925   8.298
31085SOL     OW95151   7.093  12.411   6.902
31085SOL    HW195152   6.998  12.415   6.912
31085SOL    HW295153   7.125  12.372   6.984
31086SOL     OW95154  12.872   2.360  10.984
31086SOL    HW195155  12.795   2.310  11.011
31086SOL    HW295156  12.858   2.448  11.020
31087SOL     OW95157   3.087   4.579   2.448
31087SOL    HW195158   3.084   4.664   2.493
31087SOL    HW295159   2.996   4.550   2.447
31088SOL     OW95160  10.149   5.678  10.165
31088SOL    HW195161  10.177   5.621  10.237
31088SOL    HW295162  10.066   5.715  10.195
31089SOL     OW95163  13.244   0.008   6.074
31089SOL    HW195164  13.262   0.068   6.146
31089SOL    HW295165  13.329  14.841   6.051
31090SOL     OW95166   7.732   4.998  14.464
31090SOL    HW195167   7.734   4.911  14.503
31090SOL    HW295168   7.714   5.057  14.537
31091SOL     OW95169   3.690   3.286   4.503
31091SOL    HW195170   3.726   3.295   4.415
31091SOL    HW295171   3.732   3.207   4.538
31092SOL     OW95172   6.591  12.877   0.476
31092SOL    HW195173   6.572  12.942   0.544
31092SOL    HW295174   6.585  12.793   0.521
31093SOL     OW95175   8.975  14.571  14.388
31093SOL    HW195176   9.062  14.612  14.393
31093SOL    HW295177   8.926  14.628  14.328
31094SOL     OW95178   8.761   8.494   5.924
31094SOL    HW195179   8.783   8.428   5.857
31094SOL    HW295180   8.834   8.555   5.921
31095SOL     OW95181   4.097  10.741   9.775
31095SOL    HW195182   4.086  10.779   9.688
31095SOL    HW295183   4.158  10.668   9.763
31096SOL     OW95184   8.860   3.579  10.160
31096SOL    HW195185   8.777   3.605  10.201
31096SOL    HW295186   8.846   3.592  10.067
31097SOL     OW95187   1.273  13.610   7.856
31097SOL    HW195188   1.245  13.543   7.794
31097SOL    HW295189   1.225  13.689   7.830
31098SOL     OW95190   9.208  14.078  13.673
31098SOL    HW195191   9.191  14.080  13.579
31098SOL    HW295192   9.297  14.110  13.682
31099SOL     OW95193  12.824   5.620   2.747
31099SOL    HW195194  12.884   5.654   2.814
31099SOL    HW295195  12.818   5.526   2.765
31100SOL     OW95196   4.819   0.751  14.559
31100SOL    HW195197   4.725   0.749  14.575
31100SOL    HW295198   4.829   0.788  14.472
31101SOL     OW95199   0.569   2.532   7.493
31101SOL    HW195200   0.647   2.572   7.453
31101SOL    HW295201   0.496   2.584   7.459
31102SOL     OW95202   9.960   0.045   5.660
31102SOL    HW195203  10.026   0.055   5.728
31102SOL    HW295204   9.905   0.123   5.670
31103SOL     OW95205   1.875   8.188   0.422
31103SOL    HW195206   1.855   8.164   0.331
31103SOL    HW295207   1.970   8.179   0.429
31104SOL     OW95208  12.673  12.376  12.460
31104SOL    HW195209  12.646  12.389  12.552
31104SOL    HW295210  12.640  12.290  12.437
31105SOL     OW95211   6.524  14.536   9.975
31105SOL    HW195212   6.469  14.490  10.038
31105SOL    HW295213   6.598  14.477   9.961
31106SOL     OW95214  12.971   5.799   3.468
31106SOL    HW195215  13.035   5.871   3.473
31106SOL    HW295216  13.014   5.726   3.513
31107SOL     OW95217  14.763   1.566   3.867
31107SOL    HW195218  14.852   1.589   3.893
31107SOL    HW295219  14.709   1.595   3.941
31108SOL     OW95220  10.122  12.757   7.218
31108SOL    HW195221  10.085  12.840   7.248
31108SOL    HW295222  10.109  12.759   7.123
31109SOL     OW95223   8.786  11.413   3.521
31109SOL    HW195224   8.713  11.357   3.547
31109SOL    HW295225   8.752  11.502   3.527
31110SOL     OW95226   4.762  13.241   8.035
31110SOL    HW195227   4.676  13.257   8.074
31110SOL    HW295228   4.822  13.239   8.110
31111SOL     OW95229  10.750  11.704  14.658
31111SOL    HW195230  10.733  11.620  14.699
31111SOL    HW295231  10.668  11.752  14.666
31112SOL     OW95232  10.411  13.371   4.296
31112SOL    HW195233  10.316  13.358   4.288
31112SOL    HW295234  10.420  13.451   4.347
31113SOL     OW95235   4.929   3.541  11.197
31113SOL    HW195236   4.980   3.583  11.128
31113SOL    HW295237   4.995   3.506  11.257
31114SOL     OW95238  12.852  12.332   5.580
31114SOL    HW195239  12.779  12.311   5.523
31114SOL    HW295240  12.813  12.340   5.667
31115SOL     OW95241   3.852   2.303   9.910
31115SOL    HW195242   3.867   2.386   9.955
31115SOL    HW295243   3.759   2.285   9.923
31116SOL     OW95244   5.694   0.017   6.114
31116SOL    HW195245   5.687  14.842   6.030
31116SOL    HW295246   5.785   0.005   6.140
31117SOL     OW95247   5.979  14.304  13.684
31117SOL    HW195248   5.926  14.383  13.677
31117SOL    HW295249   5.953  14.251  13.608
31118SOL     OW95250  13.607   1.951   9.818
31118SOL    HW195251  13.571   1.977   9.902
31118SOL    HW295252  13.598   2.029   9.763
31119SOL     OW95253   0.967   7.831   5.808
31119SOL    HW195254   0.995   7.780   5.884
31119SOL    HW295255   0.876   7.805   5.794
31120SOL     OW95256   8.207   4.679   6.459
31120SOL    HW195257   8.193   4.670   6.365
31120SOL    HW295258   8.189   4.592   6.494
31121SOL     OW95259   1.600   4.646   0.564
31121SOL    HW195260   1.652   4.609   0.492
31121SOL    HW295261   1.512   4.610   0.551
31122SOL     OW95262   8.705  13.708   9.062
31122SOL    HW195263   8.731  13.677   8.975
31122SOL    HW295264   8.610  13.720   9.055
31123SOL     OW95265  12.383  10.178   5.269
31123SOL    HW195266  12.314  10.146   5.211
31123SOL    HW295267  12.458  10.193   5.211
31124SOL     OW95268   1.553  10.581   9.481
31124SOL    HW195269   1.559  10.537   9.397
31124SOL    HW295270   1.582  10.671   9.463
31125SOL     OW95271   8.199  11.678   5.156
31125SOL    HW195272   8.136  11.733   5.203
31125SOL    HW295273   8.192  11.706   5.065
31126SOL     OW95274   2.068   5.508   3.560
31126SOL    HW195275   1.973   5.512   3.568
31126SOL    HW295276   2.092   5.591   3.519
31127SOL     OW95277   4.555   4.804  11.503
31127SOL    HW195278   4.547   4.749  11.581
31127SOL    HW295279   4.592   4.746  11.436
31128SOL     OW95280   2.895  11.771   9.494
31128SOL    HW195281   2.982  11.791   9.527
31128SOL    HW295282   2.910  11.712   9.420
31129SOL     OW95283   6.276  12.929  12.610
31129SOL    HW195284   6.323  12.903  12.531
31129SOL    HW295285   6.301  13.021  12.624
31130SOL     OW95286   2.451   3.466   5.829
31130SOL    HW195287   2.459   3.392   5.889
31130SOL    HW295288   2.367   3.506   5.852
31131SOL     OW95289   3.323   3.891   3.983
31131SOL    HW195290   3.400   3.850   4.022
31131SOL    HW295291   3.332   3.984   4.004
31132SOL     OW95292  10.805   0.576   8.893
31132SOL    HW195293  10.877   0.531   8.849
31132SOL    HW295294  10.742   0.506   8.914
31133SOL     OW95295  12.920   5.730  11.072
31133SOL    HW195296  13.008   5.766  11.084
31133SOL    HW295297  12.862   5.795  11.112
31134SOL     OW95298   4.560   4.045   6.556
31134SOL    HW195299   4.587   3.962   6.596
31134SOL    HW295300   4.554   4.106   6.630
31135SOL     OW95301   0.886   6.155   2.826
31135SOL    HW195302   0.903   6.182   2.735
31135SOL    HW295303   0.836   6.226   2.864
31136SOL     OW95304  12.866   9.376   7.060
31136SOL    HW195305  12.906   9.396   6.976
31136SOL    HW295306  12.848   9.282   7.056
31137SOL     OW95307   6.632   7.758   1.564
31137SOL    HW195308   6.626   7.849   1.535
31137SOL    HW295309   6.617   7.707   1.484
31138SOL     OW95310  11.659  13.461   1.033
31138SOL    HW195311  11.639  13.512   0.955
31138SOL    HW295312  11.692  13.377   0.999
31139SOL     OW95313  12.965   2.457   9.366
31139SOL    HW195314  13.042   2.512   9.378
31139SOL    HW295315  12.996   2.367   9.379
31140SOL     OW95316   5.394   5.092  12.761
31140SOL    HW195317   5.359   5.004  12.748
31140SOL    HW295318   5.355   5.144  12.691
31141SOL     OW95319  11.787   7.218  12.555
31141SOL    HW195320  11.863   7.227  12.613
31141SOL    HW295321  11.764   7.125  12.560
31142SOL     OW95322   1.062  14.656  11.857
31142SOL    HW195323   1.000  14.584  11.845
31142SOL    HW295324   1.125  14.623  11.922
31143SOL     OW95325  10.739   9.975  12.429
31143SOL    HW195326  10.819  10.025  12.448
31143SOL    HW295327  10.676  10.007  12.494
31144SOL     OW95328   1.950  11.349   9.195
31144SOL    HW195329   2.044  11.355   9.179
31144SOL    HW295330   1.910  11.380   9.114
31145SOL     OW95331   1.476  11.519  13.858
31145SOL    HW195332   1.499  11.508  13.950
31145SOL    HW295333   1.411  11.450  13.841
31146SOL     OW95334   7.096  10.546   2.220
31146SOL    HW195335   7.134  10.527   2.134
31146SOL    HW295336   7.042  10.624   2.205
31147SOL     OW95337  13.350   1.585  12.960
31147SOL    HW195338  13.388   1.565  13.046
31147SOL    HW295339  13.426   1.599  12.904
31148SOL     OW95340   8.340  12.683  11.976
31148SOL    HW195341   8.332  12.667  12.070
31148SOL    HW295342   8.428  12.650  11.953
31149SOL     OW95343   4.245  10.105  11.592
31149SOL    HW195344   4.256  10.029  11.535
31149SOL    HW295345   4.315  10.096  11.657
31150SOL     OW95346  10.725   3.827   8.745
31150SOL    HW195347  10.709   3.779   8.826
31150SOL    HW295348  10.651   3.805   8.689
31151SOL     OW95349   5.969   0.139   4.997
31151SOL    HW195350   6.016   0.206   4.947
31151SOL    HW295351   5.943   0.074   4.933
31152SOL     OW95352   7.112   2.110  13.996
31152SOL    HW195353   7.157   2.060  14.064
31152SOL    HW295354   7.025   2.071  13.993
31153SOL     OW95355   3.103   4.475   5.414
31153SOL    HW195356   3.077   4.524   5.336
31153SOL    HW295357   3.069   4.526   5.487
31154SOL     OW95358  10.350   2.809   6.975
31154SOL    HW195359  10.375   2.744   6.910
31154SOL    HW295360  10.418   2.876   6.970
31155SOL     OW95361   1.952   2.388   3.861
31155SOL    HW195362   1.884   2.454   3.847
31155SOL    HW295363   2.026   2.418   3.807
31156SOL     OW95364   9.185   9.006   7.268
31156SOL    HW195365   9.228   8.962   7.341
31156SOL    HW295366   9.151   9.087   7.305
31157SOL     OW95367   7.938   7.670   8.406
31157SOL    HW195368   7.912   7.583   8.435
31157SOL    HW295369   8.024   7.657   8.365
31158SOL     OW95370  11.363   0.617  13.388
31158SOL    HW195371  11.439   0.662  13.352
31158SOL    HW295372  11.288   0.670  13.361
31159SOL     OW95373   0.044   8.212   6.526
31159SOL    HW195374  14.855   8.279   6.491
31159SOL    HW295375   0.007   8.129   6.497
31160SOL     OW95376  11.324   0.268  12.495
31160SOL    HW195377  11.339   0.227  12.580
31160SOL    HW295378  11.404   0.249  12.445
31161SOL     OW95379   8.400  12.246   3.149
31161SOL    HW195380   8.360  12.225   3.233
31161SOL    HW295381   8.327  12.266   3.091
31162SOL     OW95382   0.253   9.746  10.751
31162SOL    HW195383   0.315   9.674  10.740
31162SOL    HW295384   0.281   9.812  10.688
31163SOL     OW95385  11.373   7.975  14.596
31163SOL    HW195386  11.382   8.012  14.508
31163SOL    HW295387  11.320   8.039  14.643
31164SOL     OW95388   1.497   8.901  11.384
31164SOL    HW195389   1.470   8.843  11.455
31164SOL    HW295390   1.593   8.899  11.386
31165SOL     OW95391   6.135   7.361   0.451
31165SOL    HW195392   6.061   7.311   0.484
31165SOL    HW295393   6.195   7.367   0.525
31166SOL     OW95394   8.737   7.864   0.401
31166SOL    HW195395   8.811   7.878   0.342
31166SOL    HW295396   8.660   7.866   0.345
31167SOL     OW95397   7.335   9.769  14.596
31167SOL    HW195398   7.283   9.696  14.630
31167SOL    HW295399   7.418   9.763  14.643
31168SOL     OW95400   7.265   8.575   4.430
31168SOL    HW195401   7.193   8.555   4.490
31168SOL    HW295402   7.249   8.518   4.354
31169SOL     OW95403   4.354   8.378   7.475
31169SOL    HW195404   4.352   8.424   7.559
31169SOL    HW295405   4.440   8.400   7.438
31170SOL     OW95406   8.604   3.394   1.630
31170SOL    HW195407   8.573   3.473   1.588
31170SOL    HW295408   8.628   3.422   1.719
31171SOL     OW95409  11.059   5.563  12.121
31171SOL    HW195410  11.087   5.627  12.187
31171SOL    HW295411  11.086   5.478  12.158
31172SOL     OW95412   1.727  10.319   4.562
31172SOL    HW195413   1.762  10.265   4.491
31172SOL    HW295414   1.671  10.260   4.612
31173SOL     OW95415   7.376   6.120   9.472
31173SOL    HW195416   7.309   6.121   9.540
31173SOL    HW295417   7.431   6.196   9.492
31174SOL     OW95418  11.359   3.560  12.860
31174SOL    HW195419  11.361   3.484  12.918
31174SOL    HW295420  11.400   3.630  12.912
31175SOL     OW95421   4.338  10.155   5.527
31175SOL    HW195422   4.369  10.206   5.452
31175SOL    HW295423   4.244  10.149   5.514
31176SOL     OW95424   7.514   7.003  12.459
31176SOL    HW195425   7.431   7.051  12.460
31176SOL    HW295426   7.494   6.921  12.415
31177SOL     OW95427   0.498   7.727   9.509
31177SOL    HW195428   0.479   7.810   9.467
31177SOL    HW295429   0.484   7.743   9.602
31178SOL     OW95430  12.675   4.364   4.278
31178SOL    HW195431  12.764   4.360   4.313
31178SOL    HW295432  12.652   4.272   4.263
31179SOL     OW95433   1.923   1.535   5.679
31179SOL    HW195434   1.958   1.449   5.697
31179SOL    HW295435   1.862   1.552   5.751
31180SOL     OW95436   7.115   5.901  11.095
31180SOL    HW195437   7.064   5.822  11.113
31180SOL    HW295438   7.135   5.897  11.002
31181SOL     OW95439  10.774  13.743   8.603
31181SOL    HW195440  10.792  13.711   8.692
31181SOL    HW295441  10.822  13.825   8.596
31182SOL     OW95442   4.007   5.353   9.683
31182SOL    HW195443   4.096   5.386   9.690
31182SOL    HW295444   4.016   5.258   9.679
31183SOL     OW95445   8.338   0.967  13.278
31183SOL    HW195446   8.301   1.055  13.283
31183SOL    HW295447   8.382   0.954  13.362
31184SOL     OW95448  12.699  13.399   6.254
31184SOL    HW195449  12.730  13.415   6.343
31184SOL    HW295450  12.614  13.358   6.265
31185SOL     OW95451  13.020   7.339  14.118
31185SOL    HW195452  13.080   7.290  14.175
31185SOL    HW295453  12.933   7.319  14.152
31186SOL     OW95454   8.245   0.947  10.245
31186SOL    HW195455   8.292   0.993  10.175
31186SOL    HW295456   8.239   1.012  10.316
31187SOL     OW95457   0.831   6.629   9.031
31187SOL    HW195458   0.876   6.713   9.023
31187SOL    HW295459   0.870   6.574   8.963
31188SOL     OW95460   0.367  11.180   2.734
31188SOL    HW195461   0.282  11.197   2.775
31188SOL    HW295462   0.404  11.108   2.784
31189SOL     OW95463   8.760   5.482   3.660
31189SOL    HW195464   8.665   5.476   3.675
31189SOL    HW295465   8.787   5.393   3.638
31190SOL     OW95466   7.268   3.374   6.008
31190SOL    HW195467   7.278   3.461   5.971
31190SOL    HW295468   7.340   3.366   6.071
31191SOL     OW95469   3.073   2.317  12.376
31191SOL    HW195470   3.131   2.255  12.330
31191SOL    HW295471   3.045   2.270  12.454
31192SOL     OW95472  14.625  12.182   6.624
31192SOL    HW195473  14.691  12.123   6.588
31192SOL    HW295474  14.667  12.220   6.702
31193SOL     OW95475  10.363   0.084   6.110
31193SOL    HW195476  10.270   0.102   6.122
31193SOL    HW295477  10.390   0.042   6.191
31194SOL     OW95478  13.055  10.093  11.568
31194SOL    HW195479  13.035  10.067  11.478
31194SOL    HW295480  13.018  10.181  11.576
31195SOL     OW95481  12.362  13.345   3.274
31195SOL    HW195482  12.338  13.255   3.254
31195SOL    HW295483  12.279  13.389   3.291
31196SOL     OW95484   1.328   4.398   9.885
31196SOL    HW195485   1.384   4.338   9.934
31196SOL    HW295486   1.382   4.426   9.811
31197SOL     OW95487   6.926  11.498  13.868
31197SOL    HW195488   6.952  11.547  13.946
31197SOL    HW295489   7.004  11.448  13.845
31198SOL     OW95490   5.111  13.889   7.137
31198SOL    HW195491   5.207  13.889   7.131
31198SOL    HW295492   5.090  13.804   7.177
31199SOL     OW95493   9.425  14.396   8.359
31199SOL    HW195494   9.455  14.486   8.354
31199SOL    HW295495   9.348  14.393   8.301
31200SOL     OW95496   2.257   9.444   8.802
31200SOL    HW195497   2.169   9.479   8.821
31200SOL    HW295498   2.247   9.397   8.720
31201SOL     OW95499   0.699   4.123   4.797
31201SOL    HW195500   0.784   4.121   4.839
31201SOL    HW295501   0.667   4.033   4.803
31202SOL     OW95502  13.766  13.280   7.483
31202SOL    HW195503  13.683  13.306   7.442
31202SOL    HW295504  13.783  13.348   7.548
31203SOL     OW95505   0.320   7.346   7.721
31203SOL    HW195506   0.351   7.344   7.811
31203SOL    HW295507   0.316   7.439   7.699
31204SOL     OW95508   4.938   5.063  13.379
31204SOL    HW195509   5.022   5.103  13.399
31204SOL    HW295510   4.874   5.133  13.390
31205SOL     OW95511   3.815   4.739   3.499
31205SOL    HW195512   3.756   4.797   3.547
31205SOL    HW295513   3.843   4.674   3.563
31206SOL     OW95514  12.301  14.605   1.943
31206SOL    HW195515  12.271  14.690   1.976
31206SOL    HW295516  12.231  14.544   1.964
31207SOL     OW95517   6.591   2.160   5.159
31207SOL    HW195518   6.503   2.124   5.156
31207SOL    HW295519   6.642   2.103   5.101
31208SOL     OW95520  10.605   9.059   0.607
31208SOL    HW195521  10.630   9.076   0.516
31208SOL    HW295522  10.674   9.098   0.659
31209SOL     OW95523   7.332  10.557   9.637
31209SOL    HW195524   7.262  10.591   9.693
31209SOL    HW295525   7.352  10.471   9.673
31210SOL     OW95526   4.414  10.701   4.570
31210SOL    HW195527   4.339  10.653   4.535
31210SOL    HW295528   4.435  10.766   4.503
31211SOL     OW95529  14.148  13.480   1.458
31211SOL    HW195530  14.184  13.461   1.372
31211SOL    HW295531  14.180  13.568   1.478
31212SOL     OW95532   7.790   8.923   6.731
31212SOL    HW195533   7.832   8.984   6.791
31212SOL    HW295534   7.716   8.887   6.781
31213SOL     OW95535  13.479  11.707  11.201
31213SOL    HW195536  13.409  11.713  11.266
31213SOL    HW295537  13.560  11.710  11.252
31214SOL     OW95538   4.619   7.255   3.945
31214SOL    HW195539   4.708   7.262   3.908
31214SOL    HW295540   4.625   7.187   4.011
31215SOL     OW95541   9.680   3.212   6.908
31215SOL    HW195542   9.694   3.173   6.995
31215SOL    HW295543   9.597   3.174   6.878
31216SOL     OW95544   2.697  13.170   9.862
31216SOL    HW195545   2.690  13.169   9.957
31216SOL    HW295546   2.731  13.258   9.841
31217SOL     OW95547   4.617  10.382   1.655
31217SOL    HW195548   4.569  10.435   1.592
31217SOL    HW295549   4.558  10.310   1.676
31218SOL     OW95550   3.645   4.490   3.878
31218SOL    HW195551   3.740   4.504   3.881
31218SOL    HW295552   3.631   4.411   3.929
31219SOL     OW95553   8.283  10.134  10.347
31219SOL    HW195554   8.192  10.151  10.324
31219SOL    HW295555   8.301  10.048  10.308
31220SOL     OW95556  12.807  13.373   8.396
31220SOL    HW195557  12.751  13.309   8.351
31220SOL    HW295558  12.750  13.411   8.463
31221SOL     OW95559  10.403   6.039   7.917
31221SOL    HW195560  10.431   5.992   7.839
31221SOL    HW295561  10.426   5.981   7.990
31222SOL     OW95562  10.640   5.063   1.809
31222SOL    HW195563  10.734   5.066   1.828
31222SOL    HW295564  10.634   5.085   1.716
31223SOL     OW95565   0.950   9.513   9.007
31223SOL    HW195566   0.985   9.462   8.934
31223SOL    HW295567   0.855   9.500   9.003
31224SOL     OW95568  14.429   9.470  13.096
31224SOL    HW195569  14.352   9.417  13.077
31224SOL    HW295570  14.429   9.477  13.192
31225SOL     OW95571  12.811   3.765   6.546
31225SOL    HW195572  12.757   3.813   6.483
31225SOL    HW295573  12.899   3.800   6.533
31226SOL     OW95574  11.501   1.678  12.271
31226SOL    HW195575  11.486   1.633  12.187
31226SOL    HW295576  11.530   1.765  12.246
31227SOL     OW95577   4.896   8.148   2.375
31227SOL    HW195578   4.800   8.143   2.381
31227SOL    HW295579   4.912   8.219   2.312
31228SOL     OW95580   8.817  10.009   4.978
31228SOL    HW195581   8.783  10.095   5.001
31228SOL    HW295582   8.909  10.011   5.005
31229SOL     OW95583   3.511   7.770   7.362
31229SOL    HW195584   3.525   7.691   7.415
31229SOL    HW295585   3.437   7.814   7.404
31230SOL     OW95586  14.537   3.809   7.913
31230SOL    HW195587  14.546   3.718   7.885
31230SOL    HW295588  14.563   3.860   7.837
31231SOL     OW95589  11.438   2.249  11.567
31231SOL    HW195590  11.499   2.315  11.600
31231SOL    HW295591  11.424   2.189  11.641
31232SOL     OW95592  11.145  12.159  14.324
31232SOL    HW195593  11.089  12.139  14.249
31232SOL    HW295594  11.116  12.245  14.353
31233SOL     OW95595   7.144   8.665   3.827
31233SOL    HW195596   7.072   8.711   3.870
31233SOL    HW295597   7.104   8.588   3.788
31234SOL     OW95598   8.457  13.040   6.731
31234SOL    HW195599   8.470  13.042   6.826
31234SOL    HW295600   8.437  12.948   6.712
31235SOL     OW95601   4.202  10.173   6.742
31235SOL    HW195602   4.211  10.090   6.695
31235SOL    HW295603   4.251  10.236   6.689
31236SOL     OW95604  11.403   0.070   6.896
31236SOL    HW195605  11.451   0.091   6.977
31236SOL    HW295606  11.350  14.864   6.920
31237SOL     OW95607   8.061   2.873   4.388
31237SOL    HW195608   8.056   2.777   4.382
31237SOL    HW295609   7.971   2.902   4.375
31238SOL     OW95610   8.366  12.013  14.824
31238SOL    HW195611   8.323  11.982  14.744
31238SOL    HW295612   8.305  12.076  14.861
31239SOL     OW95613   5.569  14.144  14.642
31239SOL    HW195614   5.505  14.075  14.627
31239SOL    HW295615   5.546  14.213  14.579
31240SOL     OW95616   8.410  13.273   0.278
31240SOL    HW195617   8.454  13.188   0.276
31240SOL    HW295618   8.436  13.316   0.197
31241SOL     OW95619   7.489  10.912   5.045
31241SOL    HW195620   7.538  10.994   5.051
31241SOL    HW295621   7.420  10.930   4.982
31242SOL     OW95622  13.904   9.350  10.980
31242SOL    HW195623  13.863   9.345  10.893
31242SOL    HW295624  13.955   9.270  10.986
31243SOL     OW95625  10.141  10.291  14.413
31243SOL    HW195626  10.055  10.258  14.388
31243SOL    HW295627  10.204  10.232  14.370
31244SOL     OW95628   6.544   7.943   4.785
31244SOL    HW195629   6.543   7.900   4.871
31244SOL    HW295630   6.575   7.875   4.725
31245SOL     OW95631  11.360  12.195   6.288
31245SOL    HW195632  11.339  12.147   6.368
31245SOL    HW295633  11.304  12.155   6.220
31246SOL     OW95634  13.756  12.275   6.788
31246SOL    HW195635  13.752  12.223   6.707
31246SOL    HW295636  13.823  12.341   6.770
31247SOL     OW95637  11.922   8.547   6.657
31247SOL    HW195638  11.841   8.499   6.642
31247SOL    HW295639  11.913   8.582   6.745
31248SOL     OW95640  12.733  13.470  13.470
31248SOL    HW195641  12.818  13.447  13.434
31248SOL    HW295642  12.677  13.483  13.393
31249SOL     OW95643   0.389   9.805   0.063
31249SOL    HW195644   0.381   9.873   0.130
31249SOL    HW295645   0.433   9.849  14.859
31250SOL     OW95646   8.265   1.596   1.987
31250SOL    HW195647   8.208   1.539   1.935
31250SOL    HW295648   8.334   1.622   1.927
31251SOL     OW95649   0.699   7.165   4.307
31251SOL    HW195650   0.685   7.073   4.284
31251SOL    HW295651   0.767   7.195   4.245
31252SOL     OW95652   5.236  12.468  14.726
31252SOL    HW195653   5.212  12.554  14.760
31252SOL    HW295654   5.291  12.487  14.650
31253SOL     OW95655   8.769  13.526   3.581
31253SOL    HW195656   8.816  13.572   3.511
31253SOL    HW295657   8.783  13.433   3.561
31254SOL     OW95658  13.762   4.493  10.814
31254SOL    HW195659  13.806   4.552  10.875
31254SOL    HW295660  13.669   4.499  10.838
31255SOL     OW95661   2.444   9.985   1.447
31255SOL    HW195662   2.362   9.938   1.464
31255SOL    HW295663   2.510   9.916   1.436
31256SOL     OW95664   9.946   9.953   2.158
31256SOL    HW195665   9.928   9.932   2.067
31256SOL    HW295666   9.913  10.042   2.170
31257SOL     OW95667   1.334   9.095  13.633
31257SOL    HW195668   1.361   9.103  13.724
31257SOL    HW295669   1.276   9.019  13.631
31258SOL     OW95670  12.612   4.614   8.314
31258SOL    HW195671  12.521   4.605   8.286
31258SOL    HW295672  12.647   4.682   8.257
31259SOL     OW95673   7.878   8.743   9.405
31259SOL    HW195674   7.828   8.805   9.352
31259SOL    HW295675   7.821   8.666   9.411
31260SOL     OW95676  12.374   6.322   4.045
31260SOL    HW195677  12.412   6.251   4.097
31260SOL    HW295678  12.313   6.366   4.104
31261SOL     OW95679   3.199   2.080   1.037
31261SOL    HW195680   3.205   1.986   1.052
31261SOL    HW295681   3.136   2.112   1.102
31262SOL     OW95682  14.397   9.960   1.201
31262SOL    HW195683  14.482   9.937   1.163
31262SOL    HW295684  14.390   9.904   1.279
31263SOL     OW95685   0.041   3.758  11.144
31263SOL    HW195686   0.023   3.760  11.050
31263SOL    HW295687   0.136   3.760  11.150
31264SOL     OW95688   4.884   3.057   3.219
31264SOL    HW195689   4.932   2.984   3.181
31264SOL    HW295690   4.946   3.098   3.280
31265SOL     OW95691   8.170   2.740   3.435
31265SOL    HW195692   8.176   2.764   3.343
31265SOL    HW295693   8.120   2.812   3.476
31266SOL     OW95694   2.753   6.097   7.833
31266SOL    HW195695   2.803   6.017   7.820
31266SOL    HW295696   2.663   6.068   7.846
31267SOL     OW95697   9.873   8.774   7.297
31267SOL    HW195698   9.898   8.784   7.205
31267SOL    HW295699   9.791   8.725   7.294
31268SOL     OW95700   0.051  11.995   7.708
31268SOL    HW195701   0.062  11.933   7.780
31268SOL    HW295702   0.072  11.945   7.630
31269SOL     OW95703  13.068  12.449   5.351
31269SOL    HW195704  12.986  12.405   5.330
31269SOL    HW295705  13.042  12.530   5.394
31270SOL     OW95706   1.568   6.337   6.252
31270SOL    HW195707   1.527   6.256   6.281
31270SOL    HW295708   1.494   6.397   6.238
31271SOL     OW95709  14.336  13.236   6.164
31271SOL    HW195710  14.340  13.329   6.141
31271SOL    HW295711  14.427  13.212   6.183
31272SOL     OW95712  13.545   9.357   8.637
31272SOL    HW195713  13.590   9.438   8.659
31272SOL    HW295714  13.612   9.303   8.594
31273SOL     OW95715   7.720   0.636   1.473
31273SOL    HW195716   7.676   0.599   1.396
31273SOL    HW295717   7.801   0.674   1.439
31274SOL     OW95718   6.755   6.228   9.411
31274SOL    HW195719   6.836   6.191   9.445
31274SOL    HW295720   6.749   6.314   9.454
31275SOL     OW95721   3.986  14.613  14.311
31275SOL    HW195722   4.015  14.525  14.336
31275SOL    HW295723   3.997  14.665  14.391
31276SOL     OW95724  12.842  11.618   8.950
31276SOL    HW195725  12.803  11.605   9.037
31276SOL    HW295726  12.927  11.575   8.956
31277SOL     OW95727  13.181   1.618   5.681
31277SOL    HW195728  13.086   1.626   5.673
31277SOL    HW295729  13.195   1.532   5.720
31278SOL     OW95730   0.686  13.608   9.303
31278SOL    HW195731   0.721  13.696   9.286
31278SOL    HW295732   0.635  13.618   9.384
31279SOL     OW95733   4.226   4.357   1.872
31279SOL    HW195734   4.270   4.289   1.822
31279SOL    HW295735   4.186   4.413   1.806
31280SOL     OW95736   1.506   5.507   0.658
31280SOL    HW195737   1.573   5.448   0.692
31280SOL    HW295738   1.499   5.576   0.724
31281SOL     OW95739   7.130  14.624   2.684
31281SOL    HW195740   7.039  14.604   2.707
31281SOL    HW295741   7.182  14.560   2.734
31282SOL     OW95742  13.024   0.880   2.494
31282SOL    HW195743  12.981   0.959   2.461
31282SOL    HW295744  13.073   0.910   2.570
31283SOL     OW95745  14.055   3.743  12.559
31283SOL    HW195746  14.117   3.814  12.574
31283SOL    HW295747  14.042   3.742  12.464
31284SOL     OW95748   5.698   4.680  14.189
31284SOL    HW195749   5.746   4.762  14.204
31284SOL    HW295750   5.760   4.611  14.211
31285SOL     OW95751  11.859  12.963   5.836
31285SOL    HW195752  11.853  12.965   5.741
31285SOL    HW295753  11.800  12.892   5.862
31286SOL     OW95754  14.595   3.610   3.902
31286SOL    HW195755  14.533   3.619   3.830
31286SOL    HW295756  14.680   3.598   3.859
31287SOL     OW95757   0.465  13.952  12.028
31287SOL    HW195758   0.471  14.044  12.056
31287SOL    HW295759   0.554  13.929  12.003
31288SOL     OW95760   6.564   1.944   4.163
31288SOL    HW195761   6.545   1.993   4.083
31288SOL    HW295762   6.528   1.857   4.147
31289SOL     OW95763  14.479   0.522   0.750
31289SOL    HW195764  14.554   0.550   0.803
31289SOL    HW295765  14.421   0.479   0.812
31290SOL     OW95766   9.411  14.465  14.837
31290SOL    HW195767   9.330  14.422  14.810
31290SOL    HW295768   9.411  14.548  14.789
31291SOL     OW95769   3.550  11.879   3.640
31291SOL    HW195770   3.553  11.946   3.709
31291SOL    HW295771   3.469  11.897   3.593
31292SOL     OW95772   4.775   2.342   1.103
31292SOL    HW195773   4.860   2.369   1.068
31292SOL    HW295774   4.761   2.400   1.179
31293SOL     OW95775   7.564   5.450  11.833
31293SOL    HW195776   7.552   5.369  11.882
31293SOL    HW295777   7.591   5.421  11.746
31294SOL     OW95778  13.399   1.095   9.156
31294SOL    HW195779  13.402   1.191   9.147
31294SOL    HW295780  13.390   1.063   9.067
31295SOL     OW95781   3.435  12.457   5.004
31295SOL    HW195782   3.462  12.433   4.915
31295SOL    HW295783   3.340  12.466   4.999
31296SOL     OW95784   8.046  10.674   9.878
31296SOL    HW195785   7.991  10.750   9.858
31296SOL    HW295786   8.134  10.708   9.885
31297SOL     OW95787   0.805   3.251  12.763
31297SOL    HW195788   0.799   3.334  12.717
31297SOL    HW295789   0.890   3.255  12.807
31298SOL     OW95790  11.050  12.253  12.256
31298SOL    HW195791  11.076  12.290  12.172
31298SOL    HW295792  11.068  12.159  12.248
31299SOL     OW95793   9.849   6.862   6.557
31299SOL    HW195794   9.930   6.890   6.600
31299SOL    HW295795   9.877   6.822   6.475
31300SOL     OW95796   3.786  14.841   5.624
31300SOL    HW195797   3.805   0.012   5.539
31300SOL    HW295798   3.788   0.043   5.686
31301SOL     OW95799   1.854   4.659   6.702
31301SOL    HW195800   1.817   4.576   6.730
31301SOL    HW295801   1.885   4.701   6.782
31302SOL     OW95802  14.226   6.088   1.943
31302SOL    HW195803  14.300   6.133   1.982
31302SOL    HW295804  14.177   6.156   1.897
31303SOL     OW95805   0.533   6.883   8.718
31303SOL    HW195806   0.494   6.944   8.656
31303SOL    HW295807   0.616   6.923   8.743
31304SOL     OW95808   8.952   6.842   7.102
31304SOL    HW195809   8.890   6.848   7.029
31304SOL    HW295810   8.919   6.905   7.166
31305SOL     OW95811   5.536   2.370  13.381
31305SOL    HW195812   5.561   2.299  13.441
31305SOL    HW295813   5.597   2.361  13.308
31306SOL     OW95814  10.039   8.410   9.625
31306SOL    HW195815  10.036   8.330   9.678
31306SOL    HW295816  10.132   8.431   9.617
31307SOL     OW95817   7.960   4.118   7.353
31307SOL    HW195818   8.028   4.074   7.303
31307SOL    HW295819   7.993   4.206   7.368
31308SOL     OW95820  12.842   3.826   5.988
31308SOL    HW195821  12.928   3.804   5.953
31308SOL    HW295822  12.784   3.825   5.912
31309SOL     OW95823   1.476   0.331   8.545
31309SOL    HW195824   1.475   0.382   8.626
31309SOL    HW295825   1.430   0.387   8.482
31310SOL     OW95826  11.530   5.031   1.241
31310SOL    HW195827  11.532   4.991   1.328
31310SOL    HW295828  11.538   4.958   1.180
31311SOL     OW95829  13.921  12.143   5.785
31311SOL    HW195830  13.929  12.078   5.855
31311SOL    HW295831  13.997  12.127   5.729
31312SOL     OW95832  10.136  14.133   8.232
31312SOL    HW195833  10.208  14.108   8.291
31312SOL    HW295834  10.159  14.221   8.204
31313SOL     OW95835   2.324   3.913   1.736
31313SOL    HW195836   2.335   3.887   1.645
31313SOL    HW295837   2.402   3.965   1.756
31314SOL     OW95838   3.343  10.861   3.355
31314SOL    HW195839   3.359  10.847   3.448
31314SOL    HW295840   3.257  10.822   3.339
31315SOL     OW95841   7.547   3.092   8.255
31315SOL    HW195842   7.470   3.123   8.302
31315SOL    HW295843   7.554   3.149   8.179
31316SOL     OW95844  12.855  12.306   6.820
31316SOL    HW195845  12.921  12.285   6.754
31316SOL    HW295846  12.811  12.223   6.838
31317SOL     OW95847   1.207  11.954   3.098
31317SOL    HW195848   1.210  11.913   3.184
31317SOL    HW295849   1.291  11.935   3.059
31318SOL     OW95850  11.108  10.780   8.291
31318SOL    HW195851  11.185  10.821   8.332
31318SOL    HW295852  11.049  10.853   8.273
31319SOL     OW95853   8.257  12.877   8.363
31319SOL    HW195854   8.267  12.967   8.330
31319SOL    HW295855   8.250  12.824   8.284
31320SOL     OW95856  11.284   3.318   6.495
31320SOL    HW195857  11.197   3.280   6.503
31320SOL    HW295858  11.326   3.267   6.426
31321SOL     OW95859   6.289   7.351  12.914
31321SOL    HW195860   6.378   7.332  12.884
31321SOL    HW295861   6.237   7.355  12.833
31322SOL     OW95862   7.428   0.439   9.097
31322SOL    HW195863   7.373   0.514   9.120
31322SOL    HW295864   7.511   0.478   9.067
31323SOL     OW95865   2.606   2.057   0.928
31323SOL    HW195866   2.676   2.038   0.991
31323SOL    HW295867   2.527   2.020   0.968
31324SOL     OW95868   6.918   7.798  12.298
31324SOL    HW195869   6.868   7.803  12.380
31324SOL    HW295870   6.892   7.714  12.260
31325SOL     OW95871  10.592   6.292   2.696
31325SOL    HW195872  10.578   6.265   2.605
31325SOL    HW295873  10.567   6.215   2.748
31326SOL     OW95874  14.079   3.500   6.894
31326SOL    HW195875  14.102   3.407   6.902
31326SOL    HW295876  13.993   3.507   6.937
31327SOL     OW95877   2.857   1.573   2.489
31327SOL    HW195878   2.888   1.518   2.417
31327SOL    HW295879   2.861   1.516   2.566
31328SOL     OW95880   0.711   1.300   7.513
31328SOL    HW195881   0.617   1.312   7.505
31328SOL    HW295882   0.723   1.205   7.518
31329SOL     OW95883   8.549   9.916   8.722
31329SOL    HW195884   8.628   9.909   8.776
31329SOL    HW295885   8.575   9.884   8.636
31330SOL     OW95886   1.238   0.514  14.480
31330SOL    HW195887   1.199   0.534  14.395
31330SOL    HW295888   1.220   0.421  14.493
31331SOL     OW95889   2.688   7.051   3.370
31331SOL    HW195890   2.624   7.041   3.299
31331SOL    HW295891   2.711   6.962   3.394
31332SOL     OW95892  12.256  11.165   9.961
31332SOL    HW195893  12.161  11.171   9.968
31332SOL    HW295894  12.279  11.231   9.895
31333SOL     OW95895  14.806   8.978  13.526
31333SOL    HW195896  14.792   9.021  13.441
31333SOL    HW295897  14.855   9.042  13.577
31334SOL     OW95898  11.183   9.889   3.571
31334SOL    HW195899  11.212   9.963   3.517
31334SOL    HW295900  11.235   9.897   3.651
31335SOL     OW95901  13.026   9.146  12.942
31335SOL    HW195902  12.951   9.189  12.983
31335SOL    HW295903  13.001   9.053  12.940
31336SOL     OW95904   6.488   2.575  11.056
31336SOL    HW195905   6.570   2.589  11.010
31336SOL    HW295906   6.482   2.480  11.066
31337SOL     OW95907   6.954   2.237  14.533
31337SOL    HW195908   6.972   2.160  14.588
31337SOL    HW295909   7.038   2.259  14.493
31338SOL     OW95910   5.519   4.037  11.774
31338SOL    HW195911   5.529   3.960  11.830
31338SOL    HW295912   5.599   4.088  11.789
31339SOL     OW95913   0.531  13.159   9.201
31339SOL    HW195914   0.570  13.115   9.277
31339SOL    HW295915   0.440  13.175   9.227
31340SOL     OW95916   4.488  11.326   1.551
31340SOL    HW195917   4.521  11.366   1.632
31340SOL    HW295918   4.458  11.239   1.578
31341SOL     OW95919   6.955  10.826  14.525
31341SOL    HW195920   6.971  10.880  14.447
31341SOL    HW295921   6.957  10.888  14.597
31342SOL     OW95922   4.538   8.547   0.618
31342SOL    HW195923   4.546   8.456   0.646
31342SOL    HW295924   4.623   8.569   0.581
31343SOL     OW95925   4.737   9.479   2.345
31343SOL    HW195926   4.661   9.481   2.286
31343SOL    HW295927   4.703   9.444   2.427
31344SOL     OW95928   4.480   3.512  10.326
31344SOL    HW195929   4.424   3.563  10.386
31344SOL    HW295930   4.495   3.570  10.252
31345SOL     OW95931   7.820   3.594   9.140
31345SOL    HW195932   7.914   3.581   9.127
31345SOL    HW295933   7.813   3.636   9.226
31346SOL     OW95934   0.090   7.738  12.941
31346SOL    HW195935   0.085   7.767  12.850
31346SOL    HW295936   0.056   7.812  12.992
31347SOL     OW95937   4.397  12.692  11.569
31347SOL    HW195938   4.338  12.689  11.494
31347SOL    HW295939   4.399  12.785  11.594
31348SOL     OW95940  11.074   1.016   8.772
31348SOL    HW195941  10.993   1.052   8.737
31348SOL    HW295942  11.045   0.949   8.835
31349SOL     OW95943  10.355   0.684   2.586
31349SOL    HW195944  10.325   0.641   2.506
31349SOL    HW295945  10.428   0.740   2.558
31350SOL     OW95946  11.744   3.969  13.167
31350SOL    HW195947  11.740   3.886  13.119
31350SOL    HW295948  11.669   3.966  13.227
31351SOL     OW95949   2.232   1.207   8.579
31351SOL    HW195950   2.301   1.159   8.532
31351SOL    HW295951   2.223   1.289   8.531
31352SOL     OW95952   9.813   4.948  10.430
31352SOL    HW195953   9.902   4.985  10.429
31352SOL    HW295954   9.756   5.024  10.443
31353SOL     OW95955  13.340  12.302   9.686
31353SOL    HW195956  13.267  12.245   9.711
31353SOL    HW295957  13.367  12.343   9.768
31354SOL     OW95958   6.119  14.107   2.649
31354SOL    HW195959   6.074  14.180   2.607
31354SOL    HW295960   6.061  14.080   2.720
31355SOL     OW95961   3.135   0.097   9.406
31355SOL    HW195962   3.175   0.034   9.466
31355SOL    HW295963   3.157   0.183   9.442
31356SOL     OW95964  11.774   9.382   8.008
31356SOL    HW195965  11.844   9.347   7.953
31356SOL    HW295966  11.695   9.336   7.979
31357SOL     OW95967   8.568   8.892   1.180
31357SOL    HW195968   8.567   8.950   1.104
31357SOL    HW295969   8.591   8.806   1.145
31358SOL     OW95970   1.373   3.486   7.921
31358SOL    HW195971   1.278   3.492   7.912
31358SOL    HW295972   1.408   3.549   7.858
31359SOL     OW95973   1.941   3.257   1.803
31359SOL    HW195974   1.961   3.237   1.711
31359SOL    HW295975   2.025   3.279   1.842
31360SOL     OW95976   6.352   1.203  13.771
31360SOL    HW195977   6.274   1.180  13.822
31360SOL    HW295978   6.378   1.289  13.805
31361SOL     OW95979  12.699  14.746   7.701
31361SOL    HW195980  12.676  14.691   7.626
31361SOL    HW295981  12.645  14.713   7.773
31362SOL     OW95982   9.612  10.780   5.201
31362SOL    HW195983   9.537  10.720   5.197
31362SOL    HW295984   9.574  10.863   5.230
31363SOL     OW95985   9.150  13.118   2.805
31363SOL    HW195986   9.064  13.105   2.845
31363SOL    HW295987   9.211  13.116   2.878
31364SOL     OW95988   9.915  12.310   8.494
31364SOL    HW195989   9.904  12.273   8.581
31364SOL    HW295990  10.008  12.333   8.489
31365SOL     OW95991   2.073  12.933   5.299
31365SOL    HW195992   2.126  12.854   5.299
31365SOL    HW295993   2.114  12.990   5.234
31366SOL     OW95994   0.863   3.562  10.137
31366SOL    HW195995   0.851   3.654  10.160
31366SOL    HW295996   0.775   3.524  10.143
31367SOL     OW95997  11.463  13.163   5.041
31367SOL    HW195998  11.549  13.201   5.025
31367SOL    HW295999  11.477  13.069   5.033
31368SOL     OW96000   1.500  11.892  13.977
31368SOL    HW196001   1.563  11.840  13.926
31368SOL    HW296002   1.437  11.923  13.912
31369SOL     OW96003  11.280  13.381   8.287
31369SOL    HW196004  11.277  13.331   8.369
31369SOL    HW296005  11.204  13.439   8.291
31370SOL     OW96006  14.068   3.683   3.892
31370SOL    HW196007  14.117   3.748   3.943
31370SOL    HW296008  13.977   3.701   3.913
31371SOL     OW96009   8.631   6.004   9.712
31371SOL    HW196010   8.699   6.009   9.779
31371SOL    HW296011   8.672   5.957   9.640
31372SOL     OW96012   0.696  13.216  13.120
31372SOL    HW196013   0.638  13.211  13.044
31372SOL    HW296014   0.636  13.221  13.195
31373SOL     OW96015   3.905   5.644   1.682
31373SOL    HW196016   3.851   5.668   1.758
31373SOL    HW296017   3.976   5.708   1.683
31374SOL     OW96018   9.349  10.835   2.836
31374SOL    HW196019   9.423  10.875   2.791
31374SOL    HW296020   9.348  10.877   2.922
31375SOL     OW96021  11.298   6.224   0.310
31375SOL    HW196022  11.293   6.274   0.392
31375SOL    HW296023  11.234   6.154   0.322
31376SOL     OW96024  13.230   3.086   1.984
31376SOL    HW196025  13.268   3.007   1.946
31376SOL    HW296026  13.176   3.122   1.913
31377SOL     OW96027  10.304   5.678   3.671
31377SOL    HW196028  10.329   5.649   3.759
31377SOL    HW296029  10.337   5.610   3.613
31378SOL     OW96030   3.605   6.176   5.255
31378SOL    HW196031   3.608   6.126   5.338
31378SOL    HW296032   3.692   6.163   5.218
31379SOL     OW96033  10.401  11.883  12.131
31379SOL    HW196034  10.386  11.875  12.037
31379SOL    HW296035  10.392  11.976  12.149
31380SOL     OW96036  13.727  10.985  10.400
31380SOL    HW196037  13.683  11.018  10.322
31380SOL    HW296038  13.726  10.890  10.390
31381SOL     OW96039   6.396  10.012  13.376
31381SOL    HW196040   6.449   9.935  13.398
31381SOL    HW296041   6.319   9.977  13.332
31382SOL     OW96042   1.127   1.285  12.598
31382SOL    HW196043   1.210   1.255  12.564
31382SOL    HW296044   1.137   1.380  12.606
31383SOL     OW96045   9.138   0.282  13.056
31383SOL    HW196046   9.141   0.342  12.981
31383SOL    HW296047   9.053   0.297  13.096
31384SOL     OW96048   1.464   0.845   6.629
31384SOL    HW196049   1.424   0.914   6.682
31384SOL    HW296050   1.457   0.766   6.683
31385SOL     OW96051   2.658   0.816   7.970
31385SOL    HW196052   2.568   0.787   7.955
31385SOL    HW296053   2.679   0.870   7.894
31386SOL     OW96054   4.318  11.984  13.481
31386SOL    HW196055   4.334  11.982  13.386
31386SOL    HW296056   4.354  12.068  13.509
31387SOL     OW96057   8.222  10.123   3.293
31387SOL    HW196058   8.308  10.088   3.316
31387SOL    HW296059   8.204  10.086   3.207
31388SOL     OW96060   6.022  13.035   9.991
31388SOL    HW196061   6.104  13.072   9.958
31388SOL    HW296062   6.039  12.941   9.998
31389SOL     OW96063   3.508   4.963   5.235
31389SOL    HW196064   3.546   4.879   5.210
31389SOL    HW296065   3.428   4.941   5.283
31390SOL     OW96066   5.926   1.340  11.203
31390SOL    HW196067   5.846   1.290  11.186
31390SOL    HW296068   5.924   1.411  11.139
31391SOL     OW96069   8.014   6.680  13.665
31391SOL    HW196070   8.048   6.739  13.733
31391SOL    HW296071   7.942   6.728  13.625
31392SOL     OW96072   0.663   0.692   2.070
31392SOL    HW196073   0.592   0.628   2.064
31392SOL    HW296074   0.622   0.775   2.049
31393SOL     OW96075   6.066   5.685  13.738
31393SOL    HW196076   6.011   5.623  13.785
31393SOL    HW296077   6.126   5.631  13.686
31394SOL     OW96078  11.167  10.652   7.902
31394SOL    HW196079  11.154  10.618   7.814
31394SOL    HW296080  11.257  10.687   7.901
31395SOL     OW96081   8.998  11.955  10.028
31395SOL    HW196082   8.966  12.040   9.999
31395SOL    HW296083   9.089  11.971  10.054
31396SOL     OW96084  11.145   2.311   1.936
31396SOL    HW196085  11.085   2.247   1.974
31396SOL    HW296086  11.185   2.266   1.862
31397SOL     OW96087   8.017   3.963   4.152
31397SOL    HW196088   7.923   3.946   4.162
31397SOL    HW296089   8.039   3.927   4.067
31398SOL     OW96090   6.815   3.883   3.719
31398SOL    HW196091   6.794   3.882   3.626
31398SOL    HW296092   6.792   3.796   3.750
31399SOL     OW96093   4.771   2.568   5.228
31399SOL    HW196094   4.726   2.554   5.311
31399SOL    HW296095   4.776   2.664   5.220
31400SOL     OW96096   4.085   7.702   9.739
31400SOL    HW196097   4.076   7.685   9.645
31400SOL    HW296098   4.177   7.725   9.750
31401SOL     OW96099  11.719  12.461   0.833
31401SOL    HW196100  11.666  12.480   0.910
31401SOL    HW296101  11.780  12.534   0.827
31402SOL     OW96102   4.362   5.394  10.914
31402SOL    HW196103   4.439   5.408  10.859
31402SOL    HW296104   4.395   5.400  11.003
31403SOL     OW96105  14.646   5.915  12.954
31403SOL    HW196106  14.679   6.005  12.952
31403SOL    HW296107  14.662   5.886  13.044
31404SOL     OW96108  12.476   8.130   6.170
31404SOL    HW196109  12.534   8.054   6.177
31404SOL    HW296110  12.437   8.121   6.083
31405SOL     OW96111   3.088   6.166  13.434
31405SOL    HW196112   3.088   6.171  13.530
31405SOL    HW296113   3.122   6.078  13.415
31406SOL     OW96114  12.066   0.570   3.786
31406SOL    HW196115  11.989   0.594   3.734
31406SOL    HW296116  12.100   0.653   3.819
31407SOL     OW96117  12.204   7.253   7.850
31407SOL    HW196118  12.140   7.324   7.847
31407SOL    HW296119  12.156   7.176   7.819
31408SOL     OW96120   4.997   0.582   5.073
31408SOL    HW196121   5.071   0.562   5.016
31408SOL    HW296122   4.946   0.646   5.024
31409SOL     OW96123  10.312   8.560   4.956
31409SOL    HW196124  10.258   8.601   4.888
31409SOL    HW296125  10.387   8.523   4.908
31410SOL     OW96126  14.172  10.393   3.109
31410SOL    HW196127  14.235  10.427   3.172
31410SOL    HW296128  14.094  10.447   3.121
31411SOL     OW96129   6.518   9.217   7.199
31411SOL    HW196130   6.461   9.196   7.125
31411SOL    HW296131   6.540   9.132   7.238
31412SOL     OW96132  10.819   9.681  13.152
31412SOL    HW196133  10.837   9.589  13.133
31412SOL    HW296134  10.808   9.684  13.247
31413SOL     OW96135   7.185  10.329  10.344
31413SOL    HW196136   7.109  10.356  10.396
31413SOL    HW296137   7.233  10.269  10.401
31414SOL     OW96138   8.690   7.486  14.496
31414SOL    HW196139   8.722   7.404  14.534
31414SOL    HW296140   8.595   7.479  14.500
31415SOL     OW96141  13.322   4.833   0.110
31415SOL    HW196142  13.378   4.800   0.040
31415SOL    HW296143  13.271   4.756   0.138
31416SOL     OW96144   1.177   5.809   2.059
31416SOL    HW196145   1.200   5.868   2.131
31416SOL    HW296146   1.260   5.794   2.013
31417SOL     OW96147  12.440  12.991   6.617
31417SOL    HW196148  12.476  12.913   6.575
31417SOL    HW296149  12.517  13.041   6.645
31418SOL     OW96150   2.499   3.254  13.432
31418SOL    HW196151   2.517   3.242  13.339
31418SOL    HW296152   2.576   3.218  13.476
31419SOL     OW96153   9.240  12.546   0.427
31419SOL    HW196154   9.193  12.510   0.502
31419SOL    HW296155   9.196  12.508   0.351
31420SOL     OW96156   3.186  14.688   4.462
31420SOL    HW196157   3.203  14.606   4.415
31420SOL    HW296158   3.101  14.717   4.430
31421SOL     OW96159  13.670   0.907   8.039
31421SOL    HW196160  13.606   0.859   8.091
31421SOL    HW296161  13.743   0.924   8.099
31422SOL     OW96162   7.110  10.202   0.425
31422SOL    HW196163   7.131  10.182   0.516
31422SOL    HW296164   7.067  10.288   0.430
31423SOL     OW96165  13.870  10.761   1.661
31423SOL    HW196166  13.918  10.696   1.608
31423SOL    HW296167  13.888  10.844   1.617
31424SOL     OW96168   6.646   3.075  12.068
31424SOL    HW196169   6.713   3.040  12.010
31424SOL    HW296170   6.673   3.047  12.156
31425SOL     OW96171   2.199   4.920   9.749
31425SOL    HW196172   2.141   4.993   9.770
31425SOL    HW296173   2.273   4.959   9.703
31426SOL     OW96174  11.821   9.748   9.367
31426SOL    HW196175  11.909   9.723   9.394
31426SOL    HW296176  11.822   9.742   9.271
31427SOL     OW96177   0.047   7.735   7.807
31427SOL    HW196178   0.142   7.741   7.819
31427SOL    HW296179   0.028   7.794   7.734
31428SOL     OW96180   1.112   6.963   8.249
31428SOL    HW196181   1.158   6.907   8.186
31428SOL    HW296182   1.182   7.009   8.295
31429SOL     OW96183  10.913  12.586   3.492
31429SOL    HW196184  10.828  12.575   3.534
31429SOL    HW296185  10.893  12.614   3.403
31430SOL     OW96186  11.839   1.719   5.900
31430SOL    HW196187  11.877   1.698   5.814
31430SOL    HW296188  11.881   1.657   5.960
31431SOL     OW96189   9.364   8.631   7.350
31431SOL    HW196190   9.355   8.590   7.436
31431SOL    HW296191   9.340   8.722   7.364
31432SOL     OW96192  11.998  11.887   3.007
31432SOL    HW196193  11.992  11.924   2.919
31432SOL    HW296194  11.909  11.859   3.027
31433SOL     OW96195   6.182   1.705   8.716
31433SOL    HW196196   6.218   1.666   8.636
31433SOL    HW296197   6.174   1.798   8.695
31434SOL     OW96198   6.957   5.486  14.586
31434SOL    HW196199   6.886   5.520  14.640
31434SOL    HW296200   7.007   5.430  14.644
31435SOL     OW96201  12.842   1.381   6.970
31435SOL    HW196202  12.747   1.394   6.974
31435SOL    HW296203  12.877   1.469   6.954
31436SOL     OW96204   6.582   8.870   8.849
31436SOL    HW196205   6.656   8.901   8.902
31436SOL    HW296206   6.623   8.821   8.778
31437SOL     OW96207   3.925  13.004  11.808
31437SOL    HW196208   3.907  13.003  11.902
31437SOL    HW296209   3.906  13.094  11.781
31438SOL     OW96210   4.174  13.970  14.743
31438SOL    HW196211   4.228  13.938  14.816
31438SOL    HW296212   4.198  13.915  14.669
31439SOL     OW96213  14.682   8.921  12.726
31439SOL    HW196214  14.685   9.016  12.714
31439SOL    HW296215  14.605   8.907  12.783
31440SOL     OW96216  14.853   2.604  13.335
31440SOL    HW196217  14.825   2.554  13.412
31440SOL    HW296218  14.772   2.632  13.293
31441SOL     OW96219   0.383   1.251   0.224
31441SOL    HW196220   0.303   1.203   0.203
31441SOL    HW296221   0.352   1.336   0.257
31442SOL     OW96222   1.914  12.298  12.485
31442SOL    HW196223   1.968  12.349  12.425
31442SOL    HW296224   1.976  12.261  12.547
31443SOL     OW96225  10.562   3.615  10.167
31443SOL    HW196226  10.504   3.679  10.126
31443SOL    HW296227  10.523   3.530  10.147
31444SOL     OW96228   4.518  11.781   6.920
31444SOL    HW196229   4.588  11.819   6.973
31444SOL    HW296230   4.530  11.687   6.928
31445SOL     OW96231  11.579   7.445  14.693
31445SOL    HW196232  11.596   7.518  14.753
31445SOL    HW296233  11.666   7.407  14.678
31446SOL     OW96234   0.107  13.723   7.871
31446SOL    HW196235   0.203  13.729   7.872
31446SOL    HW296236   0.081  13.788   7.805
31447SOL     OW96237  14.645   5.963   9.952
31447SOL    HW196238  14.701   5.966   9.874
31447SOL    HW296239  14.607   6.050   9.957
31448SOL     OW96240   5.006   6.240   4.037
31448SOL    HW196241   4.921   6.282   4.024
31448SOL    HW296242   5.032   6.266   4.125
31449SOL     OW96243   0.203  11.174  12.631
31449SOL    HW196244   0.164  11.250  12.588
31449SOL    HW296245   0.190  11.102  12.570
31450SOL     OW96246   3.541   1.768   0.277
31450SOL    HW196247   3.486   1.763   0.199
31450SOL    HW296248   3.631   1.771   0.243
31451SOL     OW96249   8.445  11.268   9.275
31451SOL    HW196250   8.386  11.193   9.270
31451SOL    HW296251   8.448  11.302   9.185
31452SOL     OW96252   2.155  12.980  11.644
31452SOL    HW196253   2.190  13.065  11.618
31452SOL    HW296254   2.135  12.990  11.737
31453SOL     OW96255   9.534   7.669   5.073
31453SOL    HW196256   9.588   7.592   5.094
31453SOL    HW296257   9.566   7.698   4.988
31454SOL     OW96258   2.778  14.108   4.249
31454SOL    HW196259   2.770  14.097   4.343
31454SOL    HW296260   2.731  14.034   4.212
31455SOL     OW96261   9.686   8.764   1.748
31455SOL    HW196262   9.637   8.804   1.819
31455SOL    HW296263   9.649   8.801   1.668
31456SOL     OW96264   8.789  13.032   1.976
31456SOL    HW196265   8.767  13.061   1.888
31456SOL    HW296266   8.879  13.062   1.989
31457SOL     OW96267   9.151   6.093   7.399
31457SOL    HW196268   9.172   6.069   7.489
31457SOL    HW296269   9.155   6.189   7.398
31458SOL     OW96270   4.684  11.836  10.560
31458SOL    HW196271   4.687  11.781  10.482
31458SOL    HW296272   4.714  11.780  10.631
31459SOL     OW96273  14.634   3.560   1.760
31459SOL    HW196274  14.601   3.601   1.680
31459SOL    HW296275  14.615   3.623   1.830
31460SOL     OW96276   6.837   8.213  10.972
31460SOL    HW196277   6.800   8.280  11.029
31460SOL    HW296278   6.897   8.261  10.914
31461SOL     OW96279   1.648   7.767  13.721
31461SOL    HW196280   1.656   7.707  13.647
31461SOL    HW296281   1.570   7.738  13.768
31462SOL     OW96282  13.241   8.771   3.390
31462SOL    HW196283  13.217   8.736   3.475
31462SOL    HW296284  13.297   8.846   3.410
31463SOL     OW96285   4.063   6.549   6.963
31463SOL    HW196286   4.095   6.478   6.907
31463SOL    HW296287   4.063   6.626   6.906
31464SOL     OW96288   6.292   2.486   1.294
31464SOL    HW196289   6.219   2.538   1.325
31464SOL    HW296290   6.336   2.542   1.230
31465SOL     OW96291  13.061  14.791   8.168
31465SOL    HW196292  13.114  14.861   8.129
31465SOL    HW296293  12.972  14.827   8.170
31466SOL     OW96294  13.887   4.715   3.755
31466SOL    HW196295  13.925   4.800   3.733
31466SOL    HW296296  13.861   4.678   3.671
31467SOL     OW96297  12.312   6.848  11.270
31467SOL    HW196298  12.405   6.830  11.287
31467SOL    HW296299  12.304   6.943  11.280
31468SOL     OW96300  10.391   4.834  14.802
31468SOL    HW196301  10.483   4.810  14.817
31468SOL    HW296302  10.394   4.894  14.728
31469SOL     OW96303   7.554   5.308  11.572
31469SOL    HW196304   7.591   5.293  11.485
31469SOL    HW296305   7.460   5.316  11.556
31470SOL     OW96306   1.334   5.751  12.014
31470SOL    HW196307   1.261   5.690  12.011
31470SOL    HW296308   1.377   5.733  12.098
31471SOL     OW96309   6.644   1.034   4.821
31471SOL    HW196310   6.656   1.094   4.748
31471SOL    HW296311   6.732   1.005   4.844
31472SOL     OW96312   3.617  11.711   6.632
31472SOL    HW196313   3.621  11.687   6.725
31472SOL    HW296314   3.682  11.781   6.622
31473SOL     OW96315   4.357   9.997   8.754
31473SOL    HW196316   4.343  10.020   8.662
31473SOL    HW296317   4.440   9.950   8.754
31474SOL     OW96318   0.326   1.588   2.663
31474SOL    HW196319   0.418   1.598   2.640
31474SOL    HW296320   0.281   1.578   2.579
31475SOL     OW96321  11.593   3.071   5.116
31475SOL    HW196322  11.572   2.979   5.102
31475SOL    HW296323  11.577   3.113   5.031
31476SOL     OW96324  12.324   9.552   1.602
31476SOL    HW196325  12.332   9.597   1.518
31476SOL    HW296326  12.293   9.619   1.663
31477SOL     OW96327  12.913  10.734   5.168
31477SOL    HW196328  12.879  10.657   5.124
31477SOL    HW296329  12.985  10.765   5.112
31478SOL     OW96330  13.780   6.177  12.103
31478SOL    HW196331  13.765   6.152  12.012
31478SOL    HW296332  13.693   6.203  12.135
31479SOL     OW96333   9.682   1.336  12.694
31479SOL    HW196334   9.754   1.385  12.657
31479SOL    HW296335   9.657   1.274  12.626
31480SOL     OW96336   9.786  11.482   3.804
31480SOL    HW196337   9.806  11.552   3.866
31480SOL    HW296338   9.851  11.415   3.821
31481SOL     OW96339   4.111   4.525   1.715
31481SOL    HW196340   4.199   4.545   1.685
31481SOL    HW296341   4.085   4.601   1.767
31482SOL     OW96342   5.997   4.774   0.112
31482SOL    HW196343   5.994   4.727   0.028
31482SOL    HW296344   5.906   4.793   0.131
31483SOL     OW96345  10.055   7.543   0.376
31483SOL    HW196346   9.986   7.480   0.354
31483SOL    HW296347  10.127   7.521   0.317
31484SOL     OW96348   0.976   0.866   8.431
31484SOL    HW196349   0.992   0.918   8.353
31484SOL    HW296350   1.031   0.788   8.420
31485SOL     OW96351   9.019   1.120  12.756
31485SOL    HW196352   8.965   1.068  12.696
31485SOL    HW296353   9.088   1.155  12.701
31486SOL     OW96354  12.597   3.599  10.106
31486SOL    HW196355  12.649   3.660  10.054
31486SOL    HW296356  12.615   3.623  10.197
31487SOL     OW96357  14.441   0.236   3.905
31487SOL    HW196358  14.501   0.218   3.977
31487SOL    HW296359  14.392   0.155   3.894
31488SOL     OW96360   3.447  10.269  11.404
31488SOL    HW196361   3.516  10.234  11.460
31488SOL    HW296362   3.469  10.239  11.316
31489SOL     OW96363   0.380   2.253  13.306
31489SOL    HW196364   0.398   2.209  13.389
31489SOL    HW296365   0.337   2.186  13.252
31490SOL     OW96366  10.508   8.121   6.663
31490SOL    HW196367  10.548   8.034   6.666
31490SOL    HW296368  10.414   8.104   6.667
31491SOL     OW96369   1.284   6.304   2.888
31491SOL    HW196370   1.231   6.384   2.881
31491SOL    HW296371   1.343   6.320   2.961
31492SOL     OW96372   4.012   2.948   6.808
31492SOL    HW196373   3.927   2.957   6.850
31492SOL    HW296374   3.992   2.914   6.721
31493SOL     OW96375   9.728   0.524   6.642
31493SOL    HW196376   9.692   0.452   6.694
31493SOL    HW296377   9.679   0.522   6.560
31494SOL     OW96378   9.989  12.945  10.652
31494SOL    HW196379   9.942  12.903  10.580
31494SOL    HW296380   9.924  13.000  10.695
31495SOL     OW96381  13.137   0.362   1.096
31495SOL    HW196382  13.124   0.443   1.147
31495SOL    HW296383  13.108   0.292   1.155
31496SOL     OW96384   4.512  14.107  13.086
31496SOL    HW196385   4.532  14.013  13.087
31496SOL    HW296386   4.488  14.125  12.995
31497SOL     OW96387  13.047  12.325   3.216
31497SOL    HW196388  13.046  12.241   3.263
31497SOL    HW296389  13.116  12.376   3.259
31498SOL     OW96390  14.273   4.738   0.127
31498SOL    HW196391  14.342   4.768   0.066
31498SOL    HW296392  14.192   4.746   0.077
31499SOL     OW96393   9.349   5.187  10.487
31499SOL    HW196394   9.403   5.115  10.521
31499SOL    HW296395   9.410   5.243  10.440
31500SOL     OW96396   7.128   0.206   0.381
31500SOL    HW196397   7.158   0.218   0.471
31500SOL    HW296398   7.033   0.210   0.387
31501SOL     OW96399   6.197   0.714  11.399
31501SOL    HW196400   6.214   0.806  11.420
31501SOL    HW296401   6.212   0.667  11.481
31502SOL     OW96402  14.445  14.188   4.178
31502SOL    HW196403  14.393  14.149   4.249
31502SOL    HW296404  14.399  14.161   4.098
31503SOL     OW96405   5.861  10.439  11.213
31503SOL    HW196406   5.830  10.397  11.132
31503SOL    HW296407   5.903  10.368  11.262
31504SOL     OW96408   5.268   0.259   5.537
31504SOL    HW196409   5.229   0.288   5.454
31504SOL    HW296410   5.268   0.163   5.530
31505SOL     OW96411  12.046   3.700   9.381
31505SOL    HW196412  12.048   3.625   9.322
31505SOL    HW296413  12.050   3.776   9.322
31506SOL     OW96414   2.044   7.134   9.335
31506SOL    HW196415   2.009   7.051   9.303
31506SOL    HW296416   2.113   7.157   9.273
31507SOL     OW96417   9.993  11.875   7.910
31507SOL    HW196418   9.917  11.818   7.908
31507SOL    HW296419  10.018  11.879   8.002
31508SOL     OW96420   1.786  14.600   0.445
31508SOL    HW196421   1.880  14.583   0.458
31508SOL    HW296422   1.742  14.540   0.504
31509SOL     OW96423   1.959   2.342   4.823
31509SOL    HW196424   2.040   2.375   4.863
31509SOL    HW296425   1.987   2.264   4.775
31510SOL     OW96426  14.363  10.759   6.936
31510SOL    HW196427  14.415  10.767   7.016
31510SOL    HW296428  14.303  10.834   6.939
31511SOL     OW96429  11.436   3.824  13.004
31511SOL    HW196430  11.524   3.792  12.982
31511SOL    HW296431  11.436   3.828  13.100
31512SOL     OW96432   0.950   7.244  14.829
31512SOL    HW196433   0.967   7.206  14.743
31512SOL    HW296434   1.026   7.299  14.847
31513SOL     OW96435   9.813   2.046  12.324
31513SOL    HW196436   9.908   2.035  12.321
31513SOL    HW296437   9.799   2.136  12.294
31514SOL     OW96438   5.168   5.657   5.807
31514SOL    HW196439   5.178   5.626   5.897
31514SOL    HW296440   5.077   5.635   5.784
31515SOL     OW96441   0.169   4.879   5.095
31515SOL    HW196442   0.263   4.881   5.114
31515SOL    HW296443   0.139   4.796   5.131
31516SOL     OW96444   0.931   7.531   1.915
31516SOL    HW196445   0.854   7.488   1.953
31516SOL    HW296446   0.929   7.506   1.822
31517SOL     OW96447   0.211   0.261   9.510
31517SOL    HW196448   0.150   0.199   9.472
31517SOL    HW296449   0.244   0.218   9.588
31518SOL     OW96450   5.808  13.246   7.041
31518SOL    HW196451   5.882  13.296   7.006
31518SOL    HW296452   5.769  13.305   7.106
31519SOL     OW96453   2.645  13.473   7.990
31519SOL    HW196454   2.598  13.428   8.061
31519SOL    HW296455   2.580  13.533   7.952
31520SOL     OW96456   9.009   3.049   0.326
31520SOL    HW196457   9.016   3.015   0.415
31520SOL    HW296458   8.946   3.120   0.332
31521SOL     OW96459   2.797   3.097   2.651
31521SOL    HW196460   2.864   3.163   2.634
31521SOL    HW296461   2.738   3.103   2.576
31522SOL     OW96462   8.738   8.243   9.417
31522SOL    HW196463   8.664   8.303   9.405
31522SOL    HW296464   8.813   8.300   9.435
31523SOL     OW96465  14.219   4.634  10.405
31523SOL    HW196466  14.149   4.651  10.469
31523SOL    HW296467  14.175   4.641  10.321
31524SOL     OW96468   6.889   0.780  14.257
31524SOL    HW196469   6.983   0.789  14.272
31524SOL    HW296470   6.852   0.864  14.284
31525SOL     OW96471   6.948   9.913  10.986
31525SOL    HW196472   6.893   9.836  10.997
31525SOL    HW296473   6.901   9.969  10.925
31526SOL     OW96474   6.623   1.576   4.385
31526SOL    HW196475   6.567   1.499   4.390
31526SOL    HW296476   6.712   1.540   4.376
31527SOL     OW96477   2.372  13.834   0.958
31527SOL    HW196478   2.319  13.876   1.026
31527SOL    HW296479   2.456  13.880   0.960
31528SOL     OW96480   2.388   5.454   0.982
31528SOL    HW196481   2.298   5.422   0.969
31528SOL    HW296482   2.378   5.531   1.037
31529SOL     OW96483   5.057   6.547  14.454
31529SOL    HW196484   5.012   6.559  14.370
31529SOL    HW296485   4.987   6.553  14.520
31530SOL     OW96486   7.207  10.740  14.588
31530SOL    HW196487   7.280  10.732  14.526
31530SOL    HW296488   7.132  10.763  14.535
31531SOL     OW96489   4.354  13.082  12.285
31531SOL    HW196490   4.390  13.067  12.198
31531SOL    HW296491   4.332  12.995  12.317
31532SOL     OW96492   3.222   2.427  13.067
31532SOL    HW196493   3.207   2.521  13.052
31532SOL    HW296494   3.151   2.384  13.020
31533SOL     OW96495   2.557   3.903  11.582
31533SOL    HW196496   2.551   3.866  11.670
31533SOL    HW296497   2.467   3.905  11.551
31534SOL     OW96498   0.630  13.390  11.771
31534SOL    HW196499   0.598  13.479  11.756
31534SOL    HW296500   0.603  13.370  11.861
31535SOL     OW96501   8.238   2.448   6.011
31535SOL    HW196502   8.218   2.539   6.030
31535SOL    HW296503   8.223   2.403   6.094
31536SOL     OW96504  14.488  14.524   3.739
31536SOL    HW196505  14.583  14.536   3.729
31536SOL    HW296506  14.450  14.589   3.680
31537SOL     OW96507  12.785   1.107   3.583
31537SOL    HW196508  12.724   1.040   3.550
31537SOL    HW296509  12.813   1.154   3.504
31538SOL     OW96510   6.913  13.116   1.006
31538SOL    HW196511   6.906  13.036   0.954
31538SOL    HW296512   6.889  13.089   1.095
31539SOL     OW96513   0.198   4.417  10.586
31539SOL    HW196514   0.106   4.426  10.614
31539SOL    HW296515   0.195   4.348  10.520
31540SOL     OW96516   0.255   4.771  10.032
31540SOL    HW196517   0.295   4.717  10.100
31540SOL    HW296518   0.326   4.787   9.970
31541SOL     OW96519  11.438   1.593  10.057
31541SOL    HW196520  11.499   1.648  10.007
31541SOL    HW296521  11.471   1.597  10.147
31542SOL     OW96522   1.907   5.117   2.632
31542SOL    HW196523   1.884   5.026   2.652
31542SOL    HW296524   1.929   5.155   2.718
31543SOL     OW96525   6.946   9.646  14.448
31543SOL    HW196526   6.917   9.587  14.378
31543SOL    HW296527   6.876   9.643  14.513
31544SOL     OW96528   2.562   2.116  12.516
31544SOL    HW196529   2.486   2.090  12.464
31544SOL    HW296530   2.582   2.039  12.570
31545SOL     OW96531   5.660   8.627  12.671
31545SOL    HW196532   5.622   8.678  12.743
31545SOL    HW296533   5.755   8.634  12.685
31546SOL     OW96534  12.751  14.513   6.916
31546SOL    HW196535  12.816  14.578   6.890
31546SOL    HW296536  12.794  14.429   6.901
31547SOL     OW96537  12.049   9.390   4.779
31547SOL    HW196538  12.012   9.449   4.845
31547SOL    HW296539  11.999   9.408   4.699
31548SOL     OW96540  12.096   8.720   8.637
31548SOL    HW196541  12.144   8.696   8.716
31548SOL    HW296542  12.164   8.735   8.571
31549SOL     OW96543  12.137   6.897   3.642
31549SOL    HW196544  12.101   6.979   3.675
31549SOL    HW296545  12.224   6.891   3.681
31550SOL     OW96546   3.725   4.136  11.639
31550SOL    HW196547   3.637   4.173  11.648
31550SOL    HW296548   3.717   4.073  11.567
31551SOL     OW96549   0.723   5.766   2.905
31551SOL    HW196550   0.804   5.816   2.891
31551SOL    HW296551   0.719   5.754   3.000
31552SOL     OW96552   1.874   9.184   1.500
31552SOL    HW196553   1.855   9.247   1.432
31552SOL    HW296554   1.963   9.205   1.529
31553SOL     OW96555   9.781   4.911  10.757
31553SOL    HW196556   9.843   4.844  10.726
31553SOL    HW296557   9.770   4.969  10.681
31554SOL     OW96558  11.628   3.593   2.533
31554SOL    HW196559  11.675   3.581   2.450
31554SOL    HW296560  11.623   3.506   2.571
31555SOL     OW96561   3.549  13.335   7.264
31555SOL    HW196562   3.616  13.403   7.261
31555SOL    HW296563   3.468  13.382   7.284
31556SOL     OW96564   7.913   7.633   5.393
31556SOL    HW196565   7.858   7.559   5.365
31556SOL    HW296566   7.875   7.662   5.476
31557SOL     OW96567  12.062  10.471  10.421
31557SOL    HW196568  12.051  10.390  10.372
31557SOL    HW296569  12.156  10.477  10.438
31558SOL     OW96570   8.766  12.797   0.809
31558SOL    HW196571   8.689  12.815   0.754
31558SOL    HW296572   8.837  12.785   0.746
31559SOL     OW96573   1.236  13.039   1.974
31559SOL    HW196574   1.240  13.076   2.063
31559SOL    HW296575   1.163  13.085   1.933
31560SOL     OW96576   7.728  13.637   8.403
31560SOL    HW196577   7.647  13.600   8.437
31560SOL    HW296578   7.702  13.683   8.323
31561SOL     OW96579   6.522   8.922  14.618
31561SOL    HW196580   6.508   9.001  14.567
31561SOL    HW296581   6.473   8.937  14.699
31562SOL     OW96582  11.955   3.718   5.868
31562SOL    HW196583  11.982   3.767   5.791
31562SOL    HW296584  12.015   3.747   5.937
31563SOL     OW96585   1.535   3.295   9.106
31563SOL    HW196586   1.491   3.295   9.191
31563SOL    HW296587   1.605   3.359   9.115
31564SOL     OW96588  10.247  13.997   4.854
31564SOL    HW196589  10.219  13.968   4.941
31564SOL    HW296590  10.342  13.982   4.853
31565SOL     OW96591   1.382   4.207  12.610
31565SOL    HW196592   1.383   4.147  12.685
31565SOL    HW296593   1.459   4.262  12.622
31566SOL     OW96594   8.618   2.525   2.221
31566SOL    HW196595   8.694   2.481   2.184
31566SOL    HW296596   8.652   2.569   2.300
31567SOL     OW96597   5.018  14.714   0.183
31567SOL    HW196598   5.103  14.724   0.226
31567SOL    HW296599   5.031  14.641   0.122
31568SOL     OW96600   6.499   3.347   0.470
31568SOL    HW196601   6.410   3.325   0.441
31568SOL    HW296602   6.538   3.389   0.393
31569SOL     OW96603   6.332   7.097   7.273
31569SOL    HW196604   6.306   7.125   7.360
31569SOL    HW296605   6.307   7.004   7.269
31570SOL     OW96606  12.241  10.457   1.960
31570SOL    HW196607  12.149  10.448   1.986
31570SOL    HW296608  12.241  10.529   1.897
31571SOL     OW96609   7.056  10.899  10.003
31571SOL    HW196610   7.116  10.973  10.018
31571SOL    HW296611   7.006  10.893  10.085
31572SOL     OW96612   0.557  10.266  10.868
31572SOL    HW196613   0.595  10.238  10.785
31572SOL    HW296614   0.632  10.274  10.927
31573SOL     OW96615   6.456   6.566   4.873
31573SOL    HW196616   6.476   6.491   4.816
31573SOL    HW296617   6.507   6.549   4.952
31574SOL     OW96618   1.883  11.690   9.379
31574SOL    HW196619   1.945  11.750   9.421
31574SOL    HW296620   1.927  11.664   9.298
31575SOL     OW96621   9.241   6.477   8.318
31575SOL    HW196622   9.239   6.382   8.306
31575SOL    HW296623   9.212   6.491   8.408
31576SOL     OW96624   0.431  13.034  14.569
31576SOL    HW196625   0.423  13.003  14.659
31576SOL    HW296626   0.500  13.099  14.572
31577SOL     OW96627  13.965  11.422  10.748
31577SOL    HW196628  13.984  11.516  10.745
31577SOL    HW296629  14.045  11.383  10.784
31578SOL     OW96630   1.879   8.692   7.144
31578SOL    HW196631   1.805   8.722   7.196
31578SOL    HW296632   1.877   8.747   7.065
31579SOL     OW96633  10.957  13.498   4.496
31579SOL    HW196634  10.895  13.439   4.453
31579SOL    HW296635  11.020  13.440   4.538
31580SOL     OW96636   1.468  14.623   6.136
31580SOL    HW196637   1.437  14.608   6.047
31580SOL    HW296638   1.390  14.617   6.190
31581SOL     OW96639  14.295   4.897  13.367
31581SOL    HW196640  14.366   4.838  13.342
31581SOL    HW296641  14.322   4.932  13.452
31582SOL     OW96642   8.167  11.528  11.374
31582SOL    HW196643   8.257  11.536  11.402
31582SOL    HW296644   8.116  11.579  11.437
31583SOL     OW96645   5.178   9.869   8.187
31583SOL    HW196646   5.186   9.774   8.189
31583SOL    HW296647   5.261   9.900   8.152
31584SOL     OW96648   6.084   3.227   2.355
31584SOL    HW196649   6.174   3.204   2.381
31584SOL    HW296650   6.058   3.295   2.418
31585SOL     OW96651  13.074   7.083   8.869
31585SOL    HW196652  13.069   7.086   8.773
31585SOL    HW296653  13.166   7.067   8.888
31586SOL     OW96654  12.276   7.221   1.528
31586SOL    HW196655  12.349   7.244   1.471
31586SOL    HW296656  12.317   7.187   1.607
31587SOL     OW96657  11.479  11.619   4.419
31587SOL    HW196658  11.428  11.550   4.461
31587SOL    HW296659  11.563  11.619   4.464
31588SOL     OW96660   8.271  13.904   0.141
31588SOL    HW196661   8.199  13.856   0.184
31588SOL    HW296662   8.279  13.985   0.192
31589SOL     OW96663  13.817  10.447   9.466
31589SOL    HW196664  13.883  10.414   9.404
31589SOL    HW296665  13.756  10.498   9.412
31590SOL     OW96666   9.936  13.111   4.943
31590SOL    HW196667   9.900  13.046   5.003
31590SOL    HW296668   9.963  13.184   4.999
31591SOL     OW96669  10.989  11.691  13.632
31591SOL    HW196670  11.036  11.632  13.691
31591SOL    HW296671  10.993  11.776  13.675
31592SOL     OW96672   4.833   2.166   5.485
31592SOL    HW196673   4.738   2.177   5.481
31592SOL    HW296674   4.867   2.255   5.494
31593SOL     OW96675   8.696  14.710  14.366
31593SOL    HW196676   8.680  14.802  14.345
31593SOL    HW296677   8.722  14.711  14.458
31594SOL     OW96678  11.274   3.962   7.806
31594SOL    HW196679  11.261   4.050   7.841
31594SOL    HW296680  11.335   3.974   7.733
31595SOL     OW96681  11.758   2.945   8.342
31595SOL    HW196682  11.668   2.923   8.369
31595SOL    HW296683  11.750   2.970   8.250
31596SOL     OW96684   9.210  11.191  11.252
31596SOL    HW196685   9.144  11.198  11.183
31596SOL    HW296686   9.211  11.097  11.274
31597SOL     OW96687   9.244  14.377  12.321
31597SOL    HW196688   9.235  14.472  12.331
31597SOL    HW296689   9.306  14.367  12.248
31598SOL     OW96690  13.859   1.381  10.695
31598SOL    HW196691  13.944   1.413  10.666
31598SOL    HW296692  13.834   1.438  10.767
31599SOL     OW96693   6.562   1.332  13.185
31599SOL    HW196694   6.528   1.277  13.116
31599SOL    HW296695   6.488   1.388  13.210
31600SOL     OW96696  10.815   8.138   7.687
31600SOL    HW196697  10.898   8.150   7.641
31600SOL    HW296698  10.813   8.045   7.709
31601SOL     OW96699   5.086   7.414   6.976
31601SOL    HW196700   5.027   7.487   6.961
31601SOL    HW296701   5.091   7.369   6.891
31602SOL     OW96702  14.465  11.428  14.832
31602SOL    HW196703  14.396  11.494  14.837
31602SOL    HW296704  14.450  11.372   0.039
31603SOL     OW96705   3.581   1.955   6.943
31603SOL    HW196706   3.676   1.942   6.941
31603SOL    HW296707   3.549   1.910   6.865
31604SOL     OW96708  14.326   1.684   1.770
31604SOL    HW196709  14.346   1.598   1.809
31604SOL    HW296710  14.270   1.664   1.695
31605SOL     OW96711   6.962  13.456   7.467
31605SOL    HW196712   6.867  13.446   7.469
31605SOL    HW296713   6.982  13.508   7.545
31606SOL     OW96714   9.960   2.336   5.320
31606SOL    HW196715  10.042   2.362   5.362
31606SOL    HW296716   9.922   2.272   5.380
31607SOL     OW96717  11.848  11.162   6.727
31607SOL    HW196718  11.833  11.074   6.691
31607SOL    HW296719  11.845  11.220   6.651
31608SOL     OW96720   3.781   6.977   7.940
31608SOL    HW196721   3.736   6.897   7.969
31608SOL    HW296722   3.850   6.946   7.882
31609SOL     OW96723   5.837   7.074  11.819
31609SOL    HW196724   5.807   7.095  11.730
31609SOL    HW296725   5.932   7.063  11.810
31610SOL     OW96726   3.064   3.089  12.830
31610SOL    HW196727   3.002   3.159  12.809
31610SOL    HW296728   3.105   3.068  12.747
31611SOL     OW96729  13.223   6.806   1.222
31611SOL    HW196730  13.134   6.770   1.225
31611SOL    HW296731  13.247   6.819   1.314
31612SOL     OW96732  14.493   7.994   1.822
31612SOL    HW196733  14.499   7.917   1.879
31612SOL    HW296734  14.537   7.968   1.742
31613SOL     OW96735  11.237   2.987  12.689
31613SOL    HW196736  11.273   3.036  12.763
31613SOL    HW296737  11.192   2.913  12.728
31614SOL     OW96738   3.971  11.848   7.453
31614SOL    HW196739   3.883  11.827   7.486
31614SOL    HW296740   3.955  11.908   7.380
31615SOL     OW96741  10.048   8.343  11.894
31615SOL    HW196742   9.968   8.378  11.855
31615SOL    HW296743  10.049   8.379  11.983
31616SOL     OW96744   5.154  10.192  14.586
31616SOL    HW196745   5.148  10.097  14.585
31616SOL    HW296746   5.233  10.212  14.635
31617SOL     OW96747   6.149  14.272  11.091
31617SOL    HW196748   6.074  14.237  11.044
31617SOL    HW296749   6.222  14.216  11.063
31618SOL     OW96750   2.688  10.536   7.244
31618SOL    HW196751   2.755  10.469   7.258
31618SOL    HW296752   2.735  10.608   7.202
31619SOL     OW96753   2.912   5.325  13.886
31619SOL    HW196754   2.817   5.333  13.897
31619SOL    HW296755   2.940   5.412  13.856
31620SOL     OW96756   7.022  14.770   6.280
31620SOL    HW196757   7.041  14.853   6.325
31620SOL    HW296758   7.108  14.741   6.248
31621SOL     OW96759   9.785   0.172   0.431
31621SOL    HW196760   9.848   0.187   0.502
31621SOL    HW296761   9.704   0.150   0.476
31622SOL     OW96762   0.575   0.497   3.368
31622SOL    HW196763   0.617   0.574   3.407
31622SOL    HW296764   0.496   0.532   3.326
31623SOL     OW96765  10.459   7.421   0.547
31623SOL    HW196766  10.384   7.376   0.508
31623SOL    HW296767  10.535   7.371   0.518
31624SOL     OW96768  11.595  14.616   1.326
31624SOL    HW196769  11.573  14.683   1.261
31624SOL    HW296770  11.525  14.552   1.319
31625SOL     OW96771   8.074  13.717  12.713
31625SOL    HW196772   8.133  13.643  12.697
31625SOL    HW296773   8.012  13.685  12.778
31626SOL     OW96774   2.693   2.104  10.499
31626SOL    HW196775   2.669   2.013  10.482
31626SOL    HW296776   2.656   2.122  10.585
31627SOL     OW96777   0.437   7.337   8.715
31627SOL    HW196778   0.478   7.395   8.651
31627SOL    HW296779   0.472   7.250   8.695
31628SOL     OW96780   0.597  13.000  14.813
31628SOL    HW196781   0.677  13.013  14.761
31628SOL    HW296782   0.618  12.928   0.002
31629SOL     OW96783   4.079   8.860   9.075
31629SOL    HW196784   4.153   8.814   9.035
31629SOL    HW296785   4.116   8.901   9.153
31630SOL     OW96786   8.535  14.080   2.980
31630SOL    HW196787   8.615  14.030   2.998
31630SOL    HW296788   8.527  14.079   2.885
31631SOL     OW96789  14.518   3.181  12.995
31631SOL    HW196790  14.443   3.138  12.954
31631SOL    HW296791  14.594   3.151  12.945
31632SOL     OW96792   7.297  11.030   8.372
31632SOL    HW196793   7.363  10.973   8.410
31632SOL    HW296794   7.304  11.015   8.277
31633SOL     OW96795   5.809   8.547   2.492
31633SOL    HW196796   5.827   8.602   2.416
31633SOL    HW296797   5.894   8.533   2.532
31634SOL     OW96798   4.761   1.840   0.786
31634SOL    HW196799   4.674   1.857   0.823
31634SOL    HW296800   4.758   1.748   0.760
31635SOL     OW96801   6.146   2.384   3.044
31635SOL    HW196802   6.207   2.456   3.061
31635SOL    HW296803   6.201   2.313   3.011
31636SOL     OW96804  11.298   8.190   3.354
31636SOL    HW196805  11.304   8.252   3.428
31636SOL    HW296806  11.316   8.105   3.393
31637SOL     OW96807   0.735   4.870  12.598
31637SOL    HW196808   0.801   4.899  12.535
31637SOL    HW296809   0.731   4.940  12.663
31638SOL     OW96810   5.928   4.070   8.482
31638SOL    HW196811   5.943   3.997   8.543
31638SOL    HW296812   5.833   4.078   8.477
31639SOL     OW96813   4.124   9.650  12.209
31639SOL    HW196814   4.112   9.738  12.245
31639SOL    HW296815   4.066   9.647  12.133
31640SOL     OW96816  10.321  11.722   9.928
31640SOL    HW196817  10.366  11.638   9.912
31640SOL    HW296818  10.305  11.758   9.841
31641SOL     OW96819   4.713   6.560  10.155
31641SOL    HW196820   4.675   6.630  10.101
31641SOL    HW296821   4.727   6.600  10.240
31642SOL     OW96822  13.539   8.294   8.782
31642SOL    HW196823  13.601   8.233   8.740
31642SOL    HW296824  13.591   8.373   8.799
31643SOL     OW96825  14.173  13.241   6.970
31643SOL    HW196826  14.079  13.254   6.975
31643SOL    HW296827  14.210  13.316   7.016
31644SOL     OW96828   3.363   2.401   9.817
31644SOL    HW196829   3.268   2.413   9.824
31644SOL    HW296830   3.377   2.374   9.727
31645SOL     OW96831  13.243   0.775   2.353
31645SOL    HW196832  13.201   0.702   2.307
31645SOL    HW296833  13.179   0.800   2.420
31646SOL     OW96834   0.345   5.089   0.830
31646SOL    HW196835   0.322   5.119   0.918
31646SOL    HW296836   0.308   5.001   0.824
31647SOL     OW96837   6.680  13.787   0.848
31647SOL    HW196838   6.705  13.879   0.857
31647SOL    HW296839   6.722  13.743   0.922
31648SOL     OW96840   1.459   8.272   1.740
31648SOL    HW196841   1.514   8.279   1.819
31648SOL    HW296842   1.372   8.252   1.774
31649SOL     OW96843   6.903   2.716  12.817
31649SOL    HW196844   6.950   2.718  12.733
31649SOL    HW296845   6.946   2.646  12.867
31650SOL     OW96846  14.423  12.786   9.174
31650SOL    HW196847  14.518  12.792   9.164
31650SOL    HW296848  14.400  12.865   9.223
31651SOL     OW96849   9.779   5.337   2.032
31651SOL    HW196850   9.798   5.430   2.048
31651SOL    HW296851   9.795   5.294   2.115
31652SOL     OW96852   7.112   4.731   4.801
31652SOL    HW196853   7.190   4.785   4.814
31652SOL    HW296854   7.074   4.763   4.719
31653SOL     OW96855   0.410   8.107   0.046
31653SOL    HW196856   0.342   8.097  14.849
31653SOL    HW296857   0.369   8.080   0.128
31654SOL     OW96858   8.920  14.064   6.853
31654SOL    HW196859   8.967  13.993   6.810
31654SOL    HW296860   8.890  14.120   6.781
31655SOL     OW96861   3.243   5.438   3.412
31655SOL    HW196862   3.231   5.383   3.490
31655SOL    HW296863   3.297   5.511   3.441
31656SOL     OW96864  13.629   2.949  14.781
31656SOL    HW196865  13.534   2.940  14.779
31656SOL    HW296866  13.658   2.902  14.859
31657SOL     OW96867  13.007   7.171   0.258
31657SOL    HW196868  13.063   7.125   0.321
31657SOL    HW296869  12.942   7.106   0.233
31658SOL     OW96870  13.900   3.426   7.392
31658SOL    HW196871  13.871   3.370   7.465
31658SOL    HW296872  13.978   3.470   7.424
31659SOL     OW96873  12.499  12.371   0.178
31659SOL    HW196874  12.476  12.431   0.248
31659SOL    HW296875  12.416  12.333   0.150
31660SOL     OW96876  12.275  13.436   4.124
31660SOL    HW196877  12.191  13.462   4.161
31660SOL    HW296878  12.260  13.429   4.030
31661SOL     OW96879   7.227   3.363   1.825
31661SOL    HW196880   7.207   3.272   1.804
31661SOL    HW296881   7.210   3.411   1.745
31662SOL     OW96882   5.374   0.658   1.205
31662SOL    HW196883   5.388   0.607   1.284
31662SOL    HW296884   5.311   0.725   1.230
31663SOL     OW96885   9.185   8.258   2.873
31663SOL    HW196886   9.102   8.300   2.895
31663SOL    HW296887   9.235   8.326   2.828
31664SOL     OW96888   2.125   3.273   0.549
31664SOL    HW196889   2.037   3.276   0.511
31664SOL    HW296890   2.118   3.209   0.620
31665SOL     OW96891   5.911   7.582   0.990
31665SOL    HW196892   5.860   7.599   0.910
31665SOL    HW296893   5.996   7.623   0.973
31666SOL     OW96894   8.528  12.178   2.914
31666SOL    HW196895   8.485  12.195   2.997
31666SOL    HW296896   8.622  12.190   2.932
31667SOL     OW96897  10.479   3.828  10.449
31667SOL    HW196898  10.571   3.852  10.458
31667SOL    HW296899  10.480   3.753  10.390
31668SOL     OW96900   1.140   2.737  13.104
31668SOL    HW196901   1.058   2.735  13.153
31668SOL    HW296902   1.123   2.682  13.027
31669SOL     OW96903  14.596   5.210  12.054
31669SOL    HW196904  14.602   5.193  11.960
31669SOL    HW296905  14.638   5.134  12.095
31670SOL     OW96906   7.190   0.410  12.007
31670SOL    HW196907   7.237   0.425  12.088
31670SOL    HW296908   7.202   0.491  11.957
31671SOL     OW96909   8.544  14.231   5.184
31671SOL    HW196910   8.484  14.176   5.134
31671SOL    HW296911   8.596  14.169   5.235
31672SOL     OW96912   8.611   3.947  11.894
31672SOL    HW196913   8.595   3.868  11.946
31672SOL    HW296914   8.585   4.019  11.951
31673SOL     OW96915  11.363   4.696   4.845
31673SOL    HW196916  11.267   4.702   4.844
31673SOL    HW296917  11.384   4.623   4.787
31674SOL     OW96918  11.800  10.047  10.003
31674SOL    HW196919  11.894  10.027  10.000
31674SOL    HW296920  11.784  10.101   9.925
31675SOL     OW96921   1.456   4.977   4.631
31675SOL    HW196922   1.534   4.978   4.687
31675SOL    HW296923   1.401   4.908   4.667
31676SOL     OW96924  13.044   3.238   1.841
31676SOL    HW196925  13.010   3.200   1.760
31676SOL    HW296926  12.992   3.317   1.855
31677SOL     OW96927  14.697  11.306   7.089
31677SOL    HW196928  14.781  11.341   7.059
31677SOL    HW296929  14.701  11.213   7.066
31678SOL     OW96930   6.394   8.054   6.450
31678SOL    HW196931   6.385   8.004   6.531
31678SOL    HW296932   6.311   8.101   6.441
31679SOL     OW96933  12.632   8.191  10.396
31679SOL    HW196934  12.575   8.123  10.430
31679SOL    HW296935  12.574   8.266  10.383
31680SOL     OW96936   5.346  13.475   3.273
31680SOL    HW196937   5.351  13.404   3.209
31680SOL    HW296938   5.261  13.515   3.258
31681SOL     OW96939   3.278   6.221   5.644
31681SOL    HW196940   3.291   6.312   5.669
31681SOL    HW296941   3.355   6.175   5.678
31682SOL     OW96942  12.043   5.644  11.559
31682SOL    HW196943  12.027   5.676  11.648
31682SOL    HW296944  12.139   5.638  11.552
31683SOL     OW96945   6.448   4.518   5.460
31683SOL    HW196946   6.388   4.488   5.528
31683SOL    HW296947   6.390   4.548   5.390
31684SOL     OW96948   2.679   5.660  11.718
31684SOL    HW196949   2.740   5.595  11.683
31684SOL    HW296950   2.618   5.610  11.772
31685SOL     OW96951   9.773  10.460   5.493
31685SOL    HW196952   9.725  10.502   5.565
31685SOL    HW296953   9.809  10.532   5.442
31686SOL     OW96954  14.272   3.041   4.313
31686SOL    HW196955  14.303   3.130   4.329
31686SOL    HW296956  14.243   3.042   4.222
31687SOL     OW96957   8.193   2.320   2.970
31687SOL    HW196958   8.224   2.391   3.026
31687SOL    HW296959   8.171   2.249   3.031
31688SOL     OW96960   3.463  11.631   4.270
31688SOL    HW196961   3.389  11.583   4.309
31688SOL    HW296962   3.454  11.720   4.304
31689SOL     OW96963   0.849   4.456  12.103
31689SOL    HW196964   0.898   4.534  12.074
31689SOL    HW296965   0.868   4.451  12.197
31690SOL     OW96966   1.883   4.510   1.268
31690SOL    HW196967   1.917   4.516   1.357
31690SOL    HW296968   1.904   4.594   1.229
31691SOL     OW96969   4.739   1.302  10.119
31691SOL    HW196970   4.817   1.325  10.169
31691SOL    HW296971   4.706   1.386  10.086
31692SOL     OW96972   9.189   0.102   3.667
31692SOL    HW196973   9.190   0.072   3.576
31692SOL    HW296974   9.155   0.027   3.715
31693SOL     OW96975   2.100  11.832   0.250
31693SOL    HW196976   2.149  11.803   0.173
31693SOL    HW296977   2.009  11.813   0.230
31694SOL     OW96978   9.435   8.814  12.366
31694SOL    HW196979   9.528   8.814  12.385
31694SOL    HW296980   9.427   8.763  12.285
31695SOL     OW96981   8.845   5.144  10.581
31695SOL    HW196982   8.786   5.074  10.554
31695SOL    HW296983   8.932   5.111  10.559
31696SOL     OW96984  10.123  12.714   6.936
31696SOL    HW196985  10.207  12.667   6.929
31696SOL    HW296986  10.058  12.651   6.907
31697SOL     OW96987   3.319   6.904   9.077
31697SOL    HW196988   3.271   6.848   9.016
31697SOL    HW296989   3.275   6.891   9.161
31698SOL     OW96990   7.043   0.484   9.400
31698SOL    HW196991   6.948   0.492   9.410
31698SOL    HW296992   7.078   0.501   9.487
31699SOL     OW96993  12.382   0.056  13.649
31699SOL    HW196994  12.416   0.101  13.726
31699SOL    HW296995  12.290   0.084  13.643
31700SOL     OW96996  14.061  11.458  12.743
31700SOL    HW196997  14.024  11.511  12.814
31700SOL    HW296998  14.055  11.368  12.775
31701SOL     OW96999   9.913   9.107   6.158
31701SOL    HW197000   9.940   9.021   6.192
31701SOL    HW297001   9.992   9.161   6.165
31702SOL     OW97002   3.590  12.875   8.685
31702SOL    HW197003   3.528  12.891   8.757
31702SOL    HW297004   3.667  12.927   8.708
31703SOL     OW97005   9.495   4.244   9.628
31703SOL    HW197006   9.505   4.311   9.695
31703SOL    HW297007   9.443   4.285   9.559
31704SOL     OW97008  13.555   3.149   6.500
31704SOL    HW197009  13.486   3.214   6.509
31704SOL    HW297010  13.549   3.118   6.410
31705SOL     OW97011   8.808   6.198  14.346
31705SOL    HW197012   8.792   6.292  14.336
31705SOL    HW297013   8.772   6.159  14.266
31706SOL     OW97014   5.242   8.128  13.901
31706SOL    HW197015   5.245   8.210  13.949
31706SOL    HW297016   5.171   8.079  13.942
31707SOL     OW97017   9.637   4.127   4.493
31707SOL    HW197018   9.563   4.187   4.487
31707SOL    HW297019   9.707   4.179   4.532
31708SOL     OW97020  14.313   3.049  10.051
31708SOL    HW197021  14.262   3.130  10.062
31708SOL    HW297022  14.361   3.062   9.969
31709SOL     OW97023  11.682   0.025   3.214
31709SOL    HW197024  11.720   0.063   3.135
31709SOL    HW297025  11.603  14.848   3.183
31710SOL     OW97026  14.445  10.014   5.343
31710SOL    HW197027  14.430  10.104   5.314
31710SOL    HW297028  14.472   9.967   5.264
31711SOL     OW97029  13.997   6.442   8.730
31711SOL    HW197030  14.038   6.459   8.814
31711SOL    HW297031  13.941   6.366   8.745
31712SOL     OW97032   2.454   0.712   5.470
31712SOL    HW197033   2.496   0.679   5.390
31712SOL    HW297034   2.523   0.759   5.516
31713SOL     OW97035  11.940  14.161   7.088
31713SOL    HW197036  11.910  14.088   7.035
31713SOL    HW297037  12.019  14.128   7.131
31714SOL     OW97038  14.615   4.135   4.946
31714SOL    HW197039  14.606   4.074   5.020
31714SOL    HW297040  14.710   4.144   4.934
31715SOL     OW97041   2.042   7.609  12.072
31715SOL    HW197042   2.084   7.533  12.112
31715SOL    HW297043   1.949   7.585  12.067
31716SOL     OW97044   7.972   2.818   7.900
31716SOL    HW197045   7.922   2.896   7.876
31716SOL    HW297046   8.042   2.813   7.835
31717SOL     OW97047   6.012  12.170   4.153
31717SOL    HW197048   5.932  12.221   4.166
31717SOL    HW297049   6.029  12.177   4.059
31718SOL     OW97050   8.748  12.818  10.007
31718SOL    HW197051   8.743  12.749  10.073
31718SOL    HW297052   8.670  12.872  10.022
31719SOL     OW97053  11.978   0.102   7.971
31719SOL    HW197054  12.048   0.041   7.947
31719SOL    HW297055  11.898   0.056   7.946
31720SOL     OW97056  13.036   4.740  14.681
31720SOL    HW197057  12.947   4.764  14.655
31720SOL    HW297058  13.028   4.714  14.773
31721SOL     OW97059  14.278   9.713   2.877
31721SOL    HW197060  14.283   9.798   2.833
31721SOL    HW297061  14.202   9.670   2.838
31722SOL     OW97062   9.929  13.759   7.369
31722SOL    HW197063   9.890  13.799   7.446
31722SOL    HW297064   9.995  13.823   7.340
31723SOL     OW97065   8.913   8.620  12.265
31723SOL    HW197066   8.967   8.697  12.280
31723SOL    HW297067   8.869   8.605  12.348
31724SOL     OW97068  13.915   2.303   1.289
31724SOL    HW197069  13.927   2.216   1.252
31724SOL    HW297070  13.823   2.325   1.271
31725SOL     OW97071   5.488   4.559   1.134
31725SOL    HW197072   5.425   4.613   1.087
31725SOL    HW297073   5.471   4.578   1.226
31726SOL     OW97074   1.228  11.147   2.224
31726SOL    HW197075   1.216  11.240   2.241
31726SOL    HW297076   1.309  11.124   2.269
31727SOL     OW97077  10.707   3.945   6.441
31727SOL    HW197078  10.711   3.939   6.536
31727SOL    HW297079  10.735   4.034   6.421
31728SOL     OW97080   9.917   5.490  12.884
31728SOL    HW197081   9.878   5.567  12.925
31728SOL    HW297082   9.941   5.433  12.956
31729SOL     OW97083   9.875  14.629  11.082
31729SOL    HW197084   9.954  14.603  11.129
31729SOL    HW297085   9.907  14.676  11.004
31730SOL     OW97086   8.745   6.174   0.545
31730SOL    HW197087   8.728   6.081   0.563
31730SOL    HW297088   8.795   6.174   0.463
31731SOL     OW97089   9.278   7.652  13.082
31731SOL    HW197090   9.280   7.582  13.017
31731SOL    HW297091   9.238   7.612  13.159
31732SOL     OW97092   7.704   2.254  13.598
31732SOL    HW197093   7.725   2.329  13.542
31732SOL    HW297094   7.672   2.293  13.679
31733SOL     OW97095   3.208   2.599  10.480
31733SOL    HW197096   3.256   2.550  10.413
31733SOL    HW297097   3.189   2.683  10.439
31734SOL     OW97098  14.714   8.197   3.072
31734SOL    HW197099  14.650   8.127   3.066
31734SOL    HW297100  14.761   8.179   3.154
31735SOL     OW97101   6.733   8.505  10.007
31735SOL    HW197102   6.763   8.491  10.097
31735SOL    HW297103   6.647   8.462  10.003
31736SOL     OW97104   4.075  11.855   4.541
31736SOL    HW197105   4.093  11.851   4.635
31736SOL    HW297106   4.116  11.937   4.513
31737SOL     OW97107  12.700   3.326  10.467
31737SOL    HW197108  12.756   3.398  10.496
31737SOL    HW297109  12.762   3.262  10.431
31738SOL     OW97110   4.626   7.431   7.057
31738SOL    HW197111   4.692   7.373   7.019
31738SOL    HW297112   4.676   7.505   7.092
31739SOL     OW97113   8.742  13.254   2.359
31739SOL    HW197114   8.819  13.299   2.326
31739SOL    HW297115   8.724  13.185   2.295
31740SOL     OW97116   3.488   2.220   8.169
31740SOL    HW197117   3.462   2.132   8.195
31740SOL    HW297118   3.564   2.206   8.112
31741SOL     OW97119  14.033  11.084   3.545
31741SOL    HW197120  13.966  11.025   3.580
31741SOL    HW297121  14.107  11.073   3.604
31742SOL     OW97122  10.342  11.077   3.778
31742SOL    HW197123  10.402  11.149   3.799
31742SOL    HW297124  10.353  11.015   3.850
31743SOL     OW97125   0.717   9.682  13.341
31743SOL    HW197126   0.758   9.622  13.279
31743SOL    HW297127   0.761   9.665  13.424
31744SOL     OW97128   3.638   8.002  12.570
31744SOL    HW197129   3.543   8.000  12.587
31744SOL    HW297130   3.653   7.925  12.515
31745SOL     OW97131   2.765   6.425   3.623
31745SOL    HW197132   2.860   6.424   3.629
31745SOL    HW297133   2.743   6.347   3.573
31746SOL     OW97134  12.241   8.601  10.372
31746SOL    HW197135  12.289   8.564  10.447
31746SOL    HW297136  12.176   8.659  10.412
31747SOL     OW97137   9.954  10.093   4.423
31747SOL    HW197138   9.954  10.010   4.471
31747SOL    HW297139  10.000  10.073   4.341
31748SOL     OW97140   4.000   5.732   5.977
31748SOL    HW197141   4.058   5.679   5.922
31748SOL    HW297142   4.027   5.822   5.962
31749SOL     OW97143   2.764   1.421   4.585
31749SOL    HW197144   2.712   1.446   4.509
31749SOL    HW297145   2.770   1.502   4.637
31750SOL     OW97146   7.702   3.261  10.056
31750SOL    HW197147   7.794   3.247  10.033
31750SOL    HW297148   7.659   3.277   9.972
31751SOL     OW97149   0.179  14.635  14.618
31751SOL    HW197150   0.237  14.708  14.594
31751SOL    HW297151   0.212  14.605  14.703
31752SOL     OW97152   1.656   6.352   9.414
31752SOL    HW197153   1.597   6.422   9.439
31752SOL    HW297154   1.744   6.391   9.419
31753SOL     OW97155  12.325   3.626   0.268
31753SOL    HW197156  12.286   3.649   0.183
31753SOL    HW297157  12.251   3.618   0.327
31754SOL     OW97158  11.431   6.115  11.554
31754SOL    HW197159  11.395   6.061  11.624
31754SOL    HW297160  11.441   6.054  11.480
31755SOL     OW97161   5.394   0.613  12.614
31755SOL    HW197162   5.433   0.686  12.662
31755SOL    HW297163   5.425   0.535  12.660
31756SOL     OW97164   2.420  12.032   7.270
31756SOL    HW197165   2.507  12.004   7.242
31756SOL    HW297166   2.363  12.005   7.198
31757SOL     OW97167   2.310   2.820   6.955
31757SOL    HW197168   2.343   2.793   7.041
31757SOL    HW297169   2.363   2.896   6.932
31758SOL     OW97170   3.563   4.604  14.147
31758SOL    HW197171   3.655   4.582  14.161
31758SOL    HW297172   3.555   4.614  14.052
31759SOL     OW97173  10.521   5.493   7.528
31759SOL    HW197174  10.470   5.416   7.504
31759SOL    HW297175  10.533   5.485   7.623
31760SOL     OW97176  11.488   7.107   8.417
31760SOL    HW197177  11.434   7.129   8.493
31760SOL    HW297178  11.560   7.055   8.453
31761SOL     OW97179  10.177   7.408   9.217
31761SOL    HW197180  10.130   7.466   9.157
31761SOL    HW297181  10.254   7.459   9.243
31762SOL     OW97182  11.057   9.878   5.993
31762SOL    HW197183  10.983   9.834   6.034
31762SOL    HW297184  11.128   9.814   5.996
31763SOL     OW97185   3.016   1.412  10.432
31763SOL    HW197186   3.015   1.482  10.366
31763SOL    HW297187   3.068   1.342  10.392
31764SOL     OW97188   2.178   5.617   3.227
31764SOL    HW197189   2.219   5.611   3.314
31764SOL    HW297190   2.252   5.621   3.166
31765SOL     OW97191  14.519   6.690   6.440
31765SOL    HW197192  14.529   6.761   6.376
31765SOL    HW297193  14.425   6.670   6.437
31766SOL     OW97194  12.418  14.281   8.115
31766SOL    HW197195  12.396  14.188   8.128
31766SOL    HW297196  12.415  14.293   8.021
31767SOL     OW97197   5.706   6.059   6.183
31767SOL    HW197198   5.789   6.032   6.223
31767SOL    HW297199   5.705   6.016   6.098
31768SOL     OW97200   4.352   1.835  10.903
31768SOL    HW197201   4.320   1.759  10.951
31768SOL    HW297202   4.399   1.799  10.828
31769SOL     OW97203   7.497   8.782  10.623
31769SOL    HW197204   7.451   8.835  10.687
31769SOL    HW297205   7.429   8.731  10.579
31770SOL     OW97206   5.984  14.458   0.753
31770SOL    HW197207   5.912  14.500   0.800
31770SOL    HW297208   6.055  14.522   0.755
31771SOL     OW97209   4.239   9.784   5.022
31771SOL    HW197210   4.301   9.712   5.009
31771SOL    HW297211   4.163   9.742   5.063
31772SOL     OW97212   5.024  11.885   8.131
31772SOL    HW197213   5.021  11.859   8.039
31772SOL    HW297214   5.082  11.962   8.132
31773SOL     OW97215   8.480   2.557  13.179
31773SOL    HW197216   8.496   2.463  13.186
31773SOL    HW297217   8.565   2.597  13.199
31774SOL     OW97218   6.796   6.028   7.052
31774SOL    HW197219   6.751   6.109   7.074
31774SOL    HW297220   6.794   6.025   6.956
31775SOL     OW97221   9.425   7.144   0.931
31775SOL    HW197222   9.430   7.113   1.022
31775SOL    HW297223   9.393   7.068   0.882
31776SOL     OW97224  13.168  12.649   4.033
31776SOL    HW197225  13.190  12.559   4.013
31776SOL    HW297226  13.127  12.683   3.953
31777SOL     OW97227   8.890  13.042   2.926
31777SOL    HW197228   8.927  12.979   2.988
31777SOL    HW297229   8.810  13.072   2.969
31778SOL     OW97230   3.218   6.985   1.249
31778SOL    HW197231   3.139   6.991   1.303
31778SOL    HW297232   3.187   6.960   1.162
31779SOL     OW97233   9.618   7.977  12.969
31779SOL    HW197234   9.545   7.917  12.950
31779SOL    HW297235   9.686   7.952  12.906
31780SOL     OW97236  14.438  13.657  10.846
31780SOL    HW197237  14.354  13.693  10.873
31780SOL    HW297238  14.452  13.582  10.904
31781SOL     OW97239   5.875   0.776  14.375
31781SOL    HW197240   5.884   0.857  14.327
31781SOL    HW297241   5.836   0.802  14.459
31782SOL     OW97242   0.407  12.930  13.475
31782SOL    HW197243   0.317  12.898  13.484
31782SOL    HW297244   0.453  12.896  13.552
31783SOL     OW97245  10.751  10.604   9.110
31783SOL    HW197246  10.833  10.589   9.063
31783SOL    HW297247  10.766  10.687   9.157
31784SOL     OW97248   9.716   0.641   2.646
31784SOL    HW197249   9.645   0.647   2.583
31784SOL    HW297250   9.692   0.702   2.715
31785SOL     OW97251   5.040   9.483  13.773
31785SOL    HW197252   4.972   9.443  13.720
31785SOL    HW297253   5.014   9.465  13.863
31786SOL     OW97254   0.330  10.910   7.272
31786SOL    HW197255   0.322  10.993   7.318
31786SOL    HW297256   0.301  10.844   7.335
31787SOL     OW97257  12.863  13.879   0.691
31787SOL    HW197258  12.873  13.914   0.779
31787SOL    HW297259  12.922  13.931   0.637
31788SOL     OW97260   8.449   9.269  10.771
31788SOL    HW197261   8.383   9.329  10.739
31788SOL    HW297262   8.428   9.257  10.864
31789SOL     OW97263   2.041   9.994   8.786
31789SOL    HW197264   2.067   9.998   8.694
31789SOL    HW297265   1.946   9.985   8.784
31790SOL     OW97266  10.822   3.198   9.554
31790SOL    HW197267  10.741   3.152   9.577
31790SOL    HW297268  10.863   3.142   9.488
31791SOL     OW97269   0.132   9.401  14.812
31791SOL    HW197270   0.165   9.486  14.782
31791SOL    HW297271   0.056   9.424  14.866
31792SOL     OW97272  13.648  11.637   2.114
31792SOL    HW197273  13.572  11.587   2.144
31792SOL    HW297274  13.628  11.727   2.138
31793SOL     OW97275   2.798   4.756  14.167
31793SOL    HW197276   2.759   4.841  14.149
31793SOL    HW297277   2.724   4.697  14.182
31794SOL     OW97278   4.541   6.642  11.474
31794SOL    HW197279   4.473   6.586  11.512
31794SOL    HW297280   4.619   6.587  11.470
31795SOL     OW97281   0.827   3.636   5.912
31795SOL    HW197282   0.742   3.677   5.929
31795SOL    HW297283   0.891   3.703   5.939
31796SOL     OW97284   2.830   4.421  11.828
31796SOL    HW197285   2.788   4.442  11.744
31796SOL    HW297286   2.816   4.500  11.881
31797SOL     OW97287   6.320   9.395   0.252
31797SOL    HW197288   6.263   9.470   0.235
31797SOL    HW297289   6.293   9.330   0.187
31798SOL     OW97290   2.396  14.495   1.205
31798SOL    HW197291   2.453  14.422   1.229
31798SOL    HW297292   2.358  14.525   1.287
31799SOL     OW97293   3.579  11.240  11.852
31799SOL    HW197294   3.610  11.296  11.781
31799SOL    HW297295   3.544  11.163  11.808
31800SOL     OW97296   8.273   5.069  11.425
31800SOL    HW197297   8.238   5.081  11.337
31800SOL    HW297298   8.347   5.010  11.414
31801SOL     OW97299   5.942  12.151  14.041
31801SOL    HW197300   6.011  12.087  14.057
31801SOL    HW297301   5.957  12.181  13.951
31802SOL     OW97302   2.221   8.586  12.205
31802SOL    HW197303   2.294   8.629  12.159
31802SOL    HW297304   2.195   8.649  12.272
31803SOL     OW97305   2.469   5.607   5.733
31803SOL    HW197306   2.510   5.657   5.803
31803SOL    HW297307   2.537   5.547   5.702
31804SOL     OW97308   2.463   5.719   0.439
31804SOL    HW197309   2.457   5.644   0.498
31804SOL    HW297310   2.386   5.772   0.460
31805SOL     OW97311   4.102   3.539   7.366
31805SOL    HW197312   4.088   3.450   7.400
31805SOL    HW297313   4.066   3.538   7.278
31806SOL     OW97314  10.894   5.768   1.866
31806SOL    HW197315  10.938   5.821   1.932
31806SOL    HW297316  10.964   5.721   1.822
31807SOL     OW97317   1.313   0.584   3.467
31807SOL    HW197318   1.360   0.583   3.383
31807SOL    HW297319   1.222   0.604   3.443
31808SOL     OW97320   3.655  14.696   4.024
31808SOL    HW197321   3.643  14.784   3.988
31808SOL    HW297322   3.572  14.675   4.066
31809SOL     OW97323  10.603  12.041   6.510
31809SOL    HW197324  10.652  12.043   6.428
31809SOL    HW297325  10.668  12.018   6.576
31810SOL     OW97326  10.413  10.369   2.399
31810SOL    HW197327  10.459  10.302   2.348
31810SOL    HW297328  10.410  10.335   2.488
31811SOL     OW97329   0.866   3.042   7.459
31811SOL    HW197330   0.783   3.036   7.506
31811SOL    HW297331   0.914   2.962   7.484
31812SOL     OW97332   1.294   4.919   6.749
31812SOL    HW197333   1.263   4.867   6.823
31812SOL    HW297334   1.338   4.856   6.692
31813SOL     OW97335  14.232   2.100   2.334
31813SOL    HW197336  14.284   2.158   2.390
31813SOL    HW297337  14.191   2.038   2.394
31814SOL     OW97338   1.440  14.616   2.113
31814SOL    HW197339   1.472  14.532   2.080
31814SOL    HW297340   1.351  14.598   2.144
31815SOL     OW97341  12.923  12.249   8.939
31815SOL    HW197342  12.970  12.232   8.858
31815SOL    HW297343  12.958  12.185   9.001
31816SOL     OW97344  10.486  13.919   8.744
31816SOL    HW197345  10.512  13.988   8.682
31816SOL    HW297346  10.427  13.863   8.693
31817SOL     OW97347   5.369   2.652  14.817
31817SOL    HW197348   5.435   2.623   0.010
31817SOL    HW297349   5.286   2.636  14.860
31818SOL     OW97350  14.408  12.412   7.378
31818SOL    HW197351  14.401  12.406   7.283
31818SOL    HW297352  14.387  12.503   7.398
31819SOL     OW97353   7.239  11.951  11.165
31819SOL    HW197354   7.208  11.929  11.077
31819SOL    HW297355   7.322  11.904  11.173
31820SOL     OW97356  13.576   8.693  12.456
31820SOL    HW197357  13.579   8.775  12.506
31820SOL    HW297358  13.654   8.645  12.482
31821SOL     OW97359   0.198   4.455   0.868
31821SOL    HW197360   0.285   4.467   0.830
31821SOL    HW297361   0.152   4.536   0.848
31822SOL     OW97362   1.416  11.313  12.685
31822SOL    HW197363   1.505  11.344  12.701
31822SOL    HW297364   1.415  11.224  12.722
31823SOL     OW97365  10.961   3.400  10.927
31823SOL    HW197366  10.999   3.463  10.865
31823SOL    HW297367  10.872   3.433  10.943
31824SOL     OW97368   2.319  12.201   0.788
31824SOL    HW197369   2.247  12.243   0.836
31824SOL    HW297370   2.371  12.274   0.755
31825SOL     OW97371   8.609  12.001   9.041
31825SOL    HW197372   8.703  12.013   9.027
31825SOL    HW297373   8.570  12.022   8.956
31826SOL     OW97374   6.127  14.602   4.029
31826SOL    HW197375   6.190  14.670   4.006
31826SOL    HW297376   6.097  14.625   4.117
31827SOL     OW97377   1.506  12.596  11.359
31827SOL    HW197378   1.587  12.646  11.351
31827SOL    HW297379   1.464  12.630  11.438
31828SOL     OW97380   6.412   7.727   6.940
31828SOL    HW197381   6.357   7.651   6.958
31828SOL    HW297382   6.386   7.791   7.007
31829SOL     OW97383   4.591   0.232   6.515
31829SOL    HW197384   4.593   0.241   6.611
31829SOL    HW297385   4.579   0.321   6.483
31830SOL     OW97386   9.663  11.855   4.756
31830SOL    HW197387   9.724  11.794   4.798
31830SOL    HW297388   9.634  11.810   4.677
31831SOL     OW97389   0.795  10.547   8.682
31831SOL    HW197390   0.816  10.629   8.726
31831SOL    HW297391   0.856  10.543   8.608
31832SOL     OW97392  12.842   6.692  13.158
31832SOL    HW197393  12.916   6.740  13.121
31832SOL    HW297394  12.831   6.616  13.101
31833SOL     OW97395   8.561   1.146   8.656
31833SOL    HW197396   8.641   1.102   8.627
31833SOL    HW297397   8.578   1.168   8.747
31834SOL     OW97398   2.145   4.880   9.143
31834SOL    HW197399   2.081   4.952   9.137
31834SOL    HW297400   2.123   4.822   9.070
31835SOL     OW97401  11.874   8.909  12.426
31835SOL    HW197402  11.868   8.892  12.520
31835SOL    HW297403  11.922   8.834  12.391
31836SOL     OW97404  14.406  14.775   4.660
31836SOL    HW197405  14.367  14.861   4.644
31836SOL    HW297406  14.495  14.794   4.691
31837SOL     OW97407   1.490  11.650   7.108
31837SOL    HW197408   1.567  11.704   7.096
31837SOL    HW297409   1.461  11.629   7.019
31838SOL     OW97410   8.456  14.014  13.880
31838SOL    HW197411   8.513  14.028  13.804
31838SOL    HW297412   8.490  14.074  13.947
31839SOL     OW97413   6.512  12.186   2.310
31839SOL    HW197414   6.595  12.224   2.339
31839SOL    HW297415   6.500  12.221   2.221
31840SOL     OW97416   9.249   9.019  11.227
31840SOL    HW197417   9.194   8.973  11.291
31840SOL    HW297418   9.189   9.050  11.160
31841SOL     OW97419  10.607   1.275   9.905
31841SOL    HW197420  10.561   1.250   9.985
31841SOL    HW297421  10.579   1.211   9.840
31842SOL     OW97422   0.582  12.367  10.520
31842SOL    HW197423   0.541  12.368  10.607
31842SOL    HW297424   0.665  12.412  10.532
31843SOL     OW97425   9.950   9.596   7.629
31843SOL    HW197426   9.946   9.569   7.721
31843SOL    HW297427   9.896   9.531   7.583
31844SOL     OW97428   2.691   3.225   0.614
31844SOL    HW197429   2.734   3.185   0.690
31844SOL    HW297430   2.652   3.151   0.568
31845SOL     OW97431   2.219   6.924   0.886
31845SOL    HW197432   2.232   6.872   0.965
31845SOL    HW297433   2.192   7.011   0.918
31846SOL     OW97434   0.982  13.166   5.850
31846SOL    HW197435   1.006  13.112   5.775
31846SOL    HW297436   0.896  13.133   5.877
31847SOL     OW97437  13.735  10.972   8.852
31847SOL    HW197438  13.757  11.015   8.935
31847SOL    HW297439  13.639  10.966   8.854
31848SOL     OW97440  14.299   8.434   2.809
31848SOL    HW197441  14.354   8.452   2.884
31848SOL    HW297442  14.318   8.343   2.787
31849SOL     OW97443  14.790   6.184   8.825
31849SOL    HW197444   0.003   6.231   8.813
31849SOL    HW297445  14.738   6.207   8.748
31850SOL     OW97446   3.041   5.385   5.030
31850SOL    HW197447   2.948   5.378   5.049
31850SOL    HW297448   3.084   5.366   5.114
31851SOL     OW97449   2.155   7.020   7.544
31851SOL    HW197450   2.211   7.034   7.467
31851SOL    HW297451   2.214   7.029   7.619
31852SOL     OW97452   8.934   7.588   7.842
31852SOL    HW197453   8.903   7.662   7.789
31852SOL    HW297454   8.892   7.511   7.803
31853SOL     OW97455  11.207   2.932  13.354
31853SOL    HW197456  11.281   2.915  13.412
31853SOL    HW297457  11.132   2.891  13.397
31854SOL     OW97458  10.970   5.163   8.884
31854SOL    HW197459  10.998   5.248   8.918
31854SOL    HW297460  10.891   5.142   8.933
31855SOL     OW97461   9.580   0.988  10.834
31855SOL    HW197462   9.576   0.914  10.773
31855SOL    HW297463   9.500   1.038  10.815
31856SOL     OW97464   0.564   6.562  10.314
31856SOL    HW197465   0.644   6.568  10.367
31856SOL    HW297466   0.554   6.649  10.276
31857SOL     OW97467  11.438  10.765   6.277
31857SOL    HW197468  11.488  10.690   6.244
31857SOL    HW297469  11.435  10.827   6.204
31858SOL     OW97470  12.718   3.979   2.929
31858SOL    HW197471  12.783   3.921   2.969
31858SOL    HW297472  12.745   3.986   2.838
31859SOL     OW97473  10.737  14.301   3.398
31859SOL    HW197474  10.746  14.381   3.346
31859SOL    HW297475  10.693  14.240   3.340
31860SOL     OW97476   1.750   2.485   6.832
31860SOL    HW197477   1.836   2.453   6.806
31860SOL    HW297478   1.718   2.532   6.755
31861SOL     OW97479   6.629  10.520  14.398
31861SOL    HW197480   6.573  10.462  14.448
31861SOL    HW297481   6.570  10.585  14.361
31862SOL     OW97482  14.838  10.560   0.911
31862SOL    HW197483  14.764  10.621   0.922
31862SOL    HW297484   0.045  10.616   0.909
31863SOL     OW97485  10.267   0.137  10.895
31863SOL    HW197486  10.254   0.209  10.957
31863SOL    HW297487  10.283   0.180  10.811
31864SOL     OW97488   3.131   7.927   2.038
31864SOL    HW197489   3.041   7.901   2.060
31864SOL    HW297490   3.144   7.895   1.949
31865SOL     OW97491   4.112  13.794   7.430
31865SOL    HW197492   4.184  13.773   7.371
31865SOL    HW297493   4.086  13.710   7.468
31866SOL     OW97494   3.952  11.465   3.597
31866SOL    HW197495   3.882  11.506   3.546
31866SOL    HW297496   4.019  11.441   3.533
31867SOL     OW97497   4.794   9.188  11.745
31867SOL    HW197498   4.776   9.238  11.666
31867SOL    HW297499   4.817   9.100  11.714
31868SOL     OW97500   3.174   0.822   3.182
31868SOL    HW197501   3.114   0.797   3.112
31868SOL    HW297502   3.129   0.797   3.263
31869SOL     OW97503   3.758   3.596  10.361
31869SOL    HW197504   3.847   3.632  10.358
31869SOL    HW297505   3.767   3.516  10.413
31870SOL     OW97506  11.874   8.633   6.162
31870SOL    HW197507  11.790   8.665   6.196
31870SOL    HW297508  11.937   8.699   6.190
31871SOL     OW97509   5.131   9.084   1.483
31871SOL    HW197510   5.188   9.122   1.416
31871SOL    HW297511   5.170   8.999   1.503
31872SOL     OW97512   4.571   8.618   6.715
31872SOL    HW197513   4.636   8.686   6.698
31872SOL    HW297514   4.516   8.653   6.785
31873SOL     OW97515   8.774  10.474   6.044
31873SOL    HW197516   8.735  10.559   6.065
31873SOL    HW297517   8.706  10.411   6.063
31874SOL     OW97518   9.801  10.134   2.924
31874SOL    HW197519   9.718  10.125   2.878
31874SOL    HW297520   9.865  10.156   2.856
31875SOL     OW97521   5.725  10.788   1.074
31875SOL    HW197522   5.777  10.784   1.155
31875SOL    HW297523   5.638  10.815   1.103
31876SOL     OW97524   8.596   0.889   1.494
31876SOL    HW197525   8.560   0.889   1.583
31876SOL    HW297526   8.584   0.799   1.463
31877SOL     OW97527   4.004   5.394   6.969
31877SOL    HW197528   3.933   5.347   7.013
31877SOL    HW297529   4.071   5.405   7.036
31878SOL     OW97530  12.432   6.694  10.001
31878SOL    HW197531  12.519   6.725   9.976
31878SOL    HW297532  12.406   6.635   9.930
31879SOL     OW97533   9.981  12.689   2.114
31879SOL    HW197534   9.924  12.764   2.132
31879SOL    HW297535  10.022  12.670   2.199
31880SOL     OW97536   9.652   7.124   8.305
31880SOL    HW197537   9.577   7.073   8.274
31880SOL    HW297538   9.664   7.097   8.396
31881SOL     OW97539   2.887   2.465   6.374
31881SOL    HW197540   2.947   2.412   6.425
31881SOL    HW297541   2.894   2.430   6.285
31882SOL     OW97542  10.826   3.209   2.147
31882SOL    HW197543  10.734   3.220   2.121
31882SOL    HW297544  10.835   3.263   2.226
31883SOL     OW97545   2.765   1.413   9.338
31883SOL    HW197546   2.670   1.412   9.328
31883SOL    HW297547   2.796   1.351   9.271
31884SOL     OW97548   2.090  12.567   9.852
31884SOL    HW197549   2.027  12.597   9.918
31884SOL    HW297550   2.107  12.645   9.799
31885SOL     OW97551  13.083   9.298  12.509
31885SOL    HW197552  13.034   9.358  12.564
31885SOL    HW297553  13.173   9.330  12.513
31886SOL     OW97554  11.604  13.138   9.358
31886SOL    HW197555  11.651  13.203   9.410
31886SOL    HW297556  11.613  13.057   9.408
31887SOL     OW97557   9.166  13.680  13.996
31887SOL    HW197558   9.225  13.654  13.926
31887SOL    HW297559   9.103  13.739  13.954
31888SOL     OW97560   1.407   4.631  14.532
31888SOL    HW197561   1.400   4.714  14.486
31888SOL    HW297562   1.370   4.647  14.618
31889SOL     OW97563  11.510  12.738  13.457
31889SOL    HW197564  11.527  12.776  13.371
31889SOL    HW297565  11.419  12.707  13.452
31890SOL     OW97566   6.901   6.539   9.922
31890SOL    HW197567   6.993   6.517   9.937
31890SOL    HW297568   6.887   6.620   9.971
31891SOL     OW97569  13.640   4.277  12.166
31891SOL    HW197570  13.560   4.270  12.114
31891SOL    HW297571  13.681   4.358  12.135
31892SOL     OW97572  10.117   2.496   3.978
31892SOL    HW197573  10.120   2.502   3.882
31892SOL    HW297574  10.196   2.541   4.007
31893SOL     OW97575   3.672   3.143  11.244
31893SOL    HW197576   3.750   3.161  11.191
31893SOL    HW297577   3.692   3.180  11.330
31894SOL     OW97578  14.332   7.704   0.188
31894SOL    HW197579  14.323   7.786   0.236
31894SOL    HW297580  14.394   7.724   0.118
31895SOL     OW97581  12.994   9.248  13.277
31895SOL    HW197582  12.936   9.199  13.219
31895SOL    HW297583  13.014   9.328  13.229
31896SOL     OW97584  12.722  14.458  10.967
31896SOL    HW197585  12.793  14.481  11.027
31896SOL    HW297586  12.655  14.524  10.985
31897SOL     OW97587   6.053  12.272  10.288
31897SOL    HW197588   6.116  12.334  10.250
31897SOL    HW297589   6.081  12.262  10.379
31898SOL     OW97590  13.037   7.483   6.965
31898SOL    HW197591  13.125   7.520   6.966
31898SOL    HW297592  13.013   7.474   7.057
31899SOL     OW97593  13.672  12.322   9.813
31899SOL    HW197594  13.716  12.401   9.783
31899SOL    HW297595  13.712  12.251   9.763
31900SOL     OW97596   4.550  12.777   8.133
31900SOL    HW197597   4.596  12.700   8.099
31900SOL    HW297598   4.619  12.830   8.173
31901SOL     OW97599   9.905  12.370   8.082
31901SOL    HW197600   9.909  12.458   8.120
31901SOL    HW297601   9.859  12.382   7.999
31902SOL     OW97602   7.288   8.450   6.092
31902SOL    HW197603   7.269   8.507   6.166
31902SOL    HW297604   7.218   8.385   6.092
31903SOL     OW97605   0.023   1.629   8.443
31903SOL    HW197606  14.868   1.679   8.366
31903SOL    HW297607   0.106   1.587   8.419
31904SOL     OW97608  12.209   8.848   7.761
31904SOL    HW197609  12.208   8.813   7.672
31904SOL    HW297610  12.199   8.772   7.818
31905SOL     OW97611   7.608   4.202  13.970
31905SOL    HW197612   7.690   4.248  13.989
31905SOL    HW297613   7.593   4.147  14.046
31906SOL     OW97614   1.493   1.477   2.738
31906SOL    HW197615   1.476   1.570   2.746
31906SOL    HW297616   1.577   1.471   2.692
31907SOL     OW97617  11.985   6.461   4.074
31907SOL    HW197618  12.009   6.383   4.025
31907SOL    HW297619  11.892   6.450   4.093
31908SOL     OW97620  14.016   2.042  14.163
31908SOL    HW197621  14.063   2.123  14.179
31908SOL    HW297622  13.937   2.049  14.216
31909SOL     OW97623   4.152  11.095   3.064
31909SOL    HW197624   4.134  11.189   3.057
31909SOL    HW297625   4.121  11.058   2.981
31910SOL     OW97626  14.011   1.200   1.710
31910SOL    HW197627  14.074   1.199   1.638
31910SOL    HW297628  13.932   1.239   1.673
31911SOL     OW97629   2.479   2.970   7.520
31911SOL    HW197630   2.451   2.879   7.507
31911SOL    HW297631   2.568   2.972   7.483
31912SOL     OW97632   3.838   3.881   1.237
31912SOL    HW197633   3.813   3.828   1.162
31912SOL    HW297634   3.757   3.894   1.286
31913SOL     OW97635   3.025   3.577   8.361
31913SOL    HW197636   3.047   3.485   8.345
31913SOL    HW297637   3.109   3.619   8.377
31914SOL     OW97638  13.985   1.369   1.254
31914SOL    HW197639  13.913   1.322   1.213
31914SOL    HW297640  14.003   1.442   1.194
31915SOL     OW97641  11.150  11.014   9.207
31915SOL    HW197642  11.192  11.092   9.243
31915SOL    HW297643  11.067  11.007   9.255
31916SOL     OW97644  12.064  14.137   7.576
31916SOL    HW197645  11.990  14.185   7.538
31916SOL    HW297646  12.137  14.154   7.516
31917SOL     OW97647  10.588   5.255   2.257
31917SOL    HW197648  10.530   5.310   2.310
31917SOL    HW297649  10.548   5.168   2.259
31918SOL     OW97650   5.542   4.366  14.354
31918SOL    HW197651   5.528   4.392  14.445
31918SOL    HW297652   5.636   4.347  14.349
31919SOL     OW97653   3.898   8.432   3.597
31919SOL    HW197654   3.948   8.507   3.565
31919SOL    HW297655   3.962   8.361   3.601
31920SOL     OW97656   3.788   6.797  14.076
31920SOL    HW197657   3.799   6.808  14.171
31920SOL    HW297658   3.875   6.814  14.040
31921SOL     OW97659   4.424   8.184   9.421
31921SOL    HW197660   4.470   8.135   9.489
31921SOL    HW297661   4.460   8.272   9.427
31922SOL     OW97662   0.945   1.899   9.289
31922SOL    HW197663   0.943   1.851   9.372
31922SOL    HW297664   1.018   1.960   9.299
31923SOL     OW97665   6.568  11.746  10.308
31923SOL    HW197666   6.484  11.745  10.262
31923SOL    HW297667   6.547  11.713  10.396
31924SOL     OW97668   6.040   1.040   8.276
31924SOL    HW197669   5.969   1.079   8.225
31924SOL    HW297670   6.114   1.099   8.264
31925SOL     OW97671   8.239  10.714  13.203
31925SOL    HW197672   8.153  10.746  13.178
31925SOL    HW297673   8.272  10.780  13.265
31926SOL     OW97674  11.646   7.524   0.357
31926SOL    HW197675  11.672   7.448   0.408
31926SOL    HW297676  11.725   7.577   0.349
31927SOL     OW97677   7.781   3.950   6.664
31927SOL    HW197678   7.734   4.028   6.633
31927SOL    HW297679   7.753   3.939   6.754
31928SOL     OW97680   4.340   4.205   5.892
31928SOL    HW197681   4.303   4.232   5.808
31928SOL    HW297682   4.379   4.285   5.927
31929SOL     OW97683   1.612   1.732  14.396
31929SOL    HW197684   1.538   1.727  14.334
31929SOL    HW297685   1.633   1.825  14.401
31930SOL     OW97686  13.560   0.971   5.010
31930SOL    HW197687  13.506   1.050   4.997
31930SOL    HW297688  13.646   1.004   5.033
31931SOL     OW97689   5.731   8.946  11.432
31931SOL    HW197690   5.670   8.874  11.447
31931SOL    HW297691   5.736   8.992  11.516
31932SOL     OW97692   3.879   9.998  10.210
31932SOL    HW197693   3.892  10.091  10.193
31932SOL    HW297694   3.966   9.959  10.199
31933SOL     OW97695   7.504   0.422   0.392
31933SOL    HW197696   7.505   0.415   0.297
31933SOL    HW297697   7.496   0.515   0.409
31934SOL     OW97698   1.688  11.363   7.078
31934SOL    HW197699   1.686  11.426   7.150
31934SOL    HW297700   1.597  11.360   7.046
31935SOL     OW97701   4.358   8.059   5.136
31935SOL    HW197702   4.356   8.148   5.101
31935SOL    HW297703   4.302   8.063   5.214
31936SOL     OW97704   9.428   0.032   5.233
31936SOL    HW197705   9.413   0.126   5.244
31936SOL    HW297706   9.383  14.861   5.307
31937SOL     OW97707  11.275   0.669   6.050
31937SOL    HW197708  11.270   0.692   5.957
31937SOL    HW297709  11.309   0.580   6.052
31938SOL     OW97710   0.486   2.425   8.185
31938SOL    HW197711   0.570   2.437   8.228
31938SOL    HW297712   0.434   2.374   8.247
31939SOL     OW97713   2.530   3.936   0.048
31939SOL    HW197714   2.487   3.906   0.128
31939SOL    HW297715   2.595   3.999   0.078
31940SOL     OW97716   8.705  14.743   8.343
31940SOL    HW197717   8.670  14.666   8.390
31940SOL    HW297718   8.748  14.794   8.411
31941SOL     OW97719  14.632   3.063   8.220
31941SOL    HW197720  14.598   3.085   8.133
31941SOL    HW297721  14.727   3.063   8.210
31942SOL     OW97722  13.610  12.171  10.038
31942SOL    HW197723  13.629  12.230   9.965
31942SOL    HW297724  13.568  12.227  10.103
31943SOL     OW97725  10.790  10.335  10.409
31943SOL    HW197726  10.861  10.272  10.401
31943SOL    HW297727  10.778  10.370  10.321
31944SOL     OW97728   3.984   7.504   0.028
31944SOL    HW197729   3.983   7.456   0.111
31944SOL    HW297730   3.905   7.474  14.852
31945SOL     OW97731   8.163   6.380   1.396
31945SOL    HW197732   8.124   6.460   1.361
31945SOL    HW297733   8.257   6.390   1.379
31946SOL     OW97734   8.205  10.369  14.313
31946SOL    HW197735   8.202  10.276  14.292
31946SOL    HW297736   8.175  10.375  14.403
31947SOL     OW97737   0.689   6.253   5.300
31947SOL    HW197738   0.600   6.234   5.270
31947SOL    HW297739   0.740   6.176   5.277
31948SOL     OW97740  12.127  13.791   6.149
31948SOL    HW197741  12.156  13.711   6.193
31948SOL    HW297742  12.137  13.772   6.056
31949SOL     OW97743   2.024   9.042  13.383
31949SOL    HW197744   2.041   8.995  13.465
31949SOL    HW297745   2.032   9.134  13.405
31950SOL     OW97746  10.208  14.221  10.365
31950SOL    HW197747  10.176  14.169  10.438
31950SOL    HW297748  10.143  14.291  10.355
31951SOL     OW97749   8.141   0.876   7.815
31951SOL    HW197750   8.233   0.853   7.802
31951SOL    HW297751   8.120   0.840   7.901
31952SOL     OW97752   9.685  14.310   1.321
31952SOL    HW197753   9.736  14.235   1.353
31952SOL    HW297754   9.610  14.315   1.380
31953SOL     OW97755   0.632   6.666   2.694
31953SOL    HW197756   0.678   6.747   2.673
31953SOL    HW297757   0.649   6.609   2.619
31954SOL     OW97758   6.472   1.166  11.418
31954SOL    HW197759   6.455   1.219  11.341
31954SOL    HW297760   6.568   1.155  11.419
31955SOL     OW97761  12.256   4.761   8.004
31955SOL    HW197762  12.231   4.851   8.026
31955SOL    HW297763  12.351   4.758   8.014
31956SOL     OW97764  13.779   4.937  13.343
31956SOL    HW197765  13.847   4.884  13.301
31956SOL    HW297766  13.812   4.951  13.432
31957SOL     OW97767   1.614  13.822   0.376
31957SOL    HW197768   1.676  13.789   0.441
31957SOL    HW297769   1.609  13.752   0.310
31958SOL     OW97770  12.357   9.728   9.085
31958SOL    HW197771  12.379   9.814   9.120
31958SOL    HW297772  12.263   9.719   9.102
31959SOL     OW97773   8.764   1.573  11.901
31959SOL    HW197774   8.671   1.584  11.920
31959SOL    HW297775   8.801   1.661  11.911
31960SOL     OW97776   6.457   1.459  10.682
31960SOL    HW197777   6.478   1.550  10.703
31960SOL    HW297778   6.444   1.459  10.587
31961SOL     OW97779  13.962   6.257   6.746
31961SOL    HW197780  14.013   6.187   6.706
31961SOL    HW297781  13.875   6.249   6.706
31962SOL     OW97782   2.283   9.738   0.455
31962SOL    HW197783   2.286   9.756   0.361
31962SOL    HW297784   2.335   9.808   0.495
31963SOL     OW97785   5.780   6.421   4.112
31963SOL    HW197786   5.799   6.386   4.199
31963SOL    HW297787   5.781   6.344   4.055
31964SOL     OW97788   6.510   0.496   4.746
31964SOL    HW197789   6.510   0.484   4.841
31964SOL    HW297790   6.554   0.581   4.733
31965SOL     OW97791  14.746   7.200   1.808
31965SOL    HW197792  14.759   7.270   1.744
31965SOL    HW297793  14.722   7.246   1.889
31966SOL     OW97794   5.084   7.709   9.773
31966SOL    HW197795   5.061   7.783   9.718
31966SOL    HW297796   5.112   7.641   9.712
31967SOL     OW97797   1.640  11.615   3.435
31967SOL    HW197798   1.548  11.623   3.410
31967SOL    HW297799   1.661  11.523   3.420
31968SOL     OW97800  10.487   2.591  13.422
31968SOL    HW197801  10.504   2.580  13.328
31968SOL    HW297802  10.392   2.587  13.430
31969SOL     OW97803  14.076  13.376  10.383
31969SOL    HW197804  14.127  13.416  10.453
31969SOL    HW297805  13.989  13.415  10.391
31970SOL     OW97806  14.718   5.639   1.855
31970SOL    HW197807  14.622   5.637   1.847
31970SOL    HW297808  14.740   5.554   1.894
31971SOL     OW97809   8.828   9.793  12.471
31971SOL    HW197810   8.923   9.797  12.466
31971SOL    HW297811   8.809   9.699  12.469
31972SOL     OW97812   3.608   5.747   0.723
31972SOL    HW197813   3.685   5.700   0.752
31972SOL    HW297814   3.642   5.820   0.671
31973SOL     OW97815  14.405  14.125  10.974
31973SOL    HW197816  14.357  14.053  11.016
31973SOL    HW297817  14.481  14.083  10.935
31974SOL     OW97818   4.276   0.801   7.726
31974SOL    HW197819   4.241   0.808   7.637
31974SOL    HW297820   4.343   0.733   7.720
31975SOL     OW97821   9.062  13.299   8.183
31975SOL    HW197822   8.975  13.340   8.189
31975SOL    HW297823   9.116  13.363   8.138
31976SOL     OW97824  12.389   0.380   0.619
31976SOL    HW197825  12.410   0.296   0.659
31976SOL    HW297826  12.407   0.445   0.687
31977SOL     OW97827   0.692   8.117  11.910
31977SOL    HW197828   0.785   8.127  11.889
31977SOL    HW297829   0.655   8.205  11.901
31978SOL     OW97830   8.181  12.744  10.373
31978SOL    HW197831   8.253  12.738  10.436
31978SOL    HW297832   8.113  12.688  10.409
31979SOL     OW97833   8.446  11.692  13.949
31979SOL    HW197834   8.448  11.778  13.905
31979SOL    HW297835   8.533  11.656  13.935
31980SOL     OW97836  13.255  11.921   2.103
31980SOL    HW197837  13.255  11.900   2.010
31980SOL    HW297838  13.348  11.923   2.127
31981SOL     OW97839   2.547   2.272   7.238
31981SOL    HW197840   2.606   2.289   7.311
31981SOL    HW297841   2.600   2.291   7.160
31982SOL     OW97842   1.078  10.341   8.674
31982SOL    HW197843   1.147  10.389   8.627
31982SOL    HW297844   0.999  10.393   8.660
31983SOL     OW97845   1.661   3.162   1.186
31983SOL    HW197846   1.595   3.232   1.183
31983SOL    HW297847   1.621   3.090   1.137
31984SOL     OW97848   6.770   3.175   2.599
31984SOL    HW197849   6.829   3.154   2.670
31984SOL    HW297850   6.816   3.146   2.520
31985SOL     OW97851   7.316   1.295   1.228
31985SOL    HW197852   7.391   1.247   1.193
31985SOL    HW297853   7.307   1.371   1.171
31986SOL     OW97854   9.946  13.376   5.043
31986SOL    HW197855   9.927  13.433   4.969
31986SOL    HW297856   9.873  13.392   5.104
31987SOL     OW97857   3.200   6.666  13.800
31987SOL    HW197858   3.289   6.630  13.799
31987SOL    HW297859   3.179   6.679  13.707
31988SOL     OW97860  10.109   5.284  12.745
31988SOL    HW197861  10.048   5.215  12.771
31988SOL    HW297862  10.121   5.272  12.651
31989SOL     OW97863   9.914   4.528  10.590
31989SOL    HW197864   9.875   4.516  10.504
31989SOL    HW297865   9.987   4.588  10.576
31990SOL     OW97866   8.804  14.389   8.498
31990SOL    HW197867   8.857  14.310   8.503
31990SOL    HW297868   8.826  14.428   8.414
31991SOL     OW97869   5.425   2.174  13.000
31991SOL    HW197870   5.407   2.141  13.088
31991SOL    HW297871   5.384   2.111  12.941
31992SOL     OW97872   1.445   2.823   6.000
31992SOL    HW197873   1.386   2.798   6.071
31992SOL    HW297874   1.532   2.798   6.032
31993SOL     OW97875   6.086   1.414   1.331
31993SOL    HW197876   6.092   1.506   1.305
31993SOL    HW297877   6.073   1.367   1.249
31994SOL     OW97878   9.611   9.310   0.892
31994SOL    HW197879   9.529   9.339   0.933
31994SOL    HW297880   9.679   9.336   0.955
31995SOL     OW97881   1.734   6.350  10.100
31995SOL    HW197882   1.774   6.408  10.165
31995SOL    HW297883   1.659   6.399  10.066
31996SOL     OW97884  12.816  11.004  11.546
31996SOL    HW197885  12.797  10.910  11.543
31996SOL    HW297886  12.809  11.027  11.638
31997SOL     OW97887   8.489   5.324   1.393
31997SOL    HW197888   8.569   5.304   1.442
31997SOL    HW297889   8.447   5.394   1.443
31998SOL     OW97890  13.929   8.510   7.572
31998SOL    HW197891  13.974   8.577   7.521
31998SOL    HW297892  13.992   8.483   7.638
31999SOL     OW97893   9.211   1.946   8.384
31999SOL    HW197894   9.272   1.983   8.320
31999SOL    HW297895   9.185   2.020   8.439
32000SOL     OW97896   5.423  13.015   3.904
32000SOL    HW197897   5.441  13.021   3.810
32000SOL    HW297898   5.382  12.929   3.915
32001SOL     OW97899   2.275  13.752   4.026
32001SOL    HW197900   2.235  13.833   4.057
32001SOL    HW297901   2.242  13.684   4.084
32002SOL     OW97902  13.413  11.160  13.289
32002SOL    HW197903  13.509  11.154  13.289
32002SOL    HW297904  13.394  11.233  13.229
32003SOL     OW97905  14.661   8.427   7.229
32003SOL    HW197906  14.609   8.507   7.238
32003SOL    HW297907  14.738   8.441   7.284
32004SOL     OW97908  10.824   5.277   5.851
32004SOL    HW197909  10.830   5.373   5.858
32004SOL    HW297910  10.912   5.246   5.870
32005SOL     OW97911   6.056  11.995   1.364
32005SOL    HW197912   6.020  12.044   1.438
32005SOL    HW297913   6.090  12.063   1.305
32006SOL     OW97914   0.444  12.846   2.166
32006SOL    HW197915   0.512  12.909   2.141
32006SOL    HW297916   0.377  12.899   2.208
32007SOL     OW97917   1.820   2.109   8.303
32007SOL    HW197918   1.793   2.171   8.372
32007SOL    HW297919   1.759   2.126   8.231
32008SOL     OW97920   3.042   5.301   0.783
32008SOL    HW197921   3.113   5.364   0.769
32008SOL    HW297922   3.008   5.322   0.870
32009SOL     OW97923   2.806  14.061   8.862
32009SOL    HW197924   2.785  14.005   8.788
32009SOL    HW297925   2.813  14.149   8.825
32010SOL     OW97926   0.572  10.205  11.549
32010SOL    HW197927   0.534  10.291  11.532
32010SOL    HW297928   0.665  10.223  11.561
32011SOL     OW97929   9.455   9.564  11.570
32011SOL    HW197930   9.508   9.552  11.491
32011SOL    HW297931   9.452   9.659  11.582
32012SOL     OW97932  13.195   5.922   6.661
32012SOL    HW197933  13.232   6.004   6.693
32012SOL    HW297934  13.237   5.854   6.714
32013SOL     OW97935   7.129   4.984  13.239
32013SOL    HW197936   7.216   5.022  13.246
32013SOL    HW297937   7.142   4.890  13.252
32014SOL     OW97938   2.661  13.453   3.027
32014SOL    HW197939   2.631  13.475   3.115
32014SOL    HW297940   2.700  13.534   2.993
32015SOL     OW97941   3.669  12.456   4.532
32015SOL    HW197942   3.643  12.364   4.525
32015SOL    HW297943   3.667  12.474   4.626
32016SOL     OW97944  10.880   3.329  10.634
32016SOL    HW197945  10.863   3.422  10.620
32016SOL    HW297946  10.801   3.296  10.676
32017SOL     OW97947   0.522   6.297   2.860
32017SOL    HW197948   0.491   6.315   2.771
32017SOL    HW297949   0.502   6.204   2.874
32018SOL     OW97950  14.623   1.088   9.794
32018SOL    HW197951  14.705   1.062   9.754
32018SOL    HW297952  14.644   1.167   9.844
32019SOL     OW97953   3.611   3.231   2.608
32019SOL    HW197954   3.577   3.212   2.520
32019SOL    HW297955   3.590   3.323   2.622
32020SOL     OW97956  10.444   5.975   1.041
32020SOL    HW197957  10.499   5.973   1.119
32020SOL    HW297958  10.359   5.944   1.070
32021SOL     OW97959  13.911   9.210   7.955
32021SOL    HW197960  13.957   9.151   7.894
32021SOL    HW297961  13.821   9.210   7.924
32022SOL     OW97962   2.616  13.648  11.073
32022SOL    HW197963   2.703  13.686  11.063
32022SOL    HW297964   2.573  13.704  11.138
32023SOL     OW97965   5.279  10.373   4.879
32023SOL    HW197966   5.282  10.325   4.796
32023SOL    HW297967   5.187  10.371   4.905
32024SOL     OW97968   0.606   6.344   8.653
32024SOL    HW197969   0.528   6.319   8.602
32024SOL    HW297970   0.640   6.422   8.609
32025SOL     OW97971   3.027   1.970   5.115
32025SOL    HW197972   3.053   1.967   5.023
32025SOL    HW297973   2.971   2.047   5.123
32026SOL     OW97974   7.808   2.031   1.293
32026SOL    HW197975   7.816   2.092   1.367
32026SOL    HW297976   7.860   1.955   1.319
32027SOL     OW97977  11.387   9.152   1.633
32027SOL    HW197978  11.362   9.235   1.674
32027SOL    HW297979  11.408   9.175   1.543
32028SOL     OW97980   5.263   6.768   9.882
32028SOL    HW197981   5.171   6.745   9.876
32028SOL    HW297982   5.309   6.687   9.859
32029SOL     OW97983   0.689  13.871   0.946
32029SOL    HW197984   0.604  13.893   0.983
32029SOL    HW297985   0.713  13.947   0.894
32030SOL     OW97986   7.748   6.945   7.650
32030SOL    HW197987   7.770   7.034   7.623
32030SOL    HW297988   7.689   6.914   7.581
32031SOL     OW97989  12.927   3.651   7.160
32031SOL    HW197990  12.832   3.643   7.156
32031SOL    HW297991  12.952   3.607   7.241
32032SOL     OW97992   5.093   8.423   2.931
32032SOL    HW197993   5.177   8.457   2.963
32032SOL    HW297994   5.060   8.370   3.004
32033SOL     OW97995   6.596  11.306   3.495
32033SOL    HW197996   6.565  11.227   3.449
32033SOL    HW297997   6.637  11.272   3.575
32034SOL     OW97998  11.508   2.117   2.436
32034SOL    HW197999  11.422   2.121   2.396
32034SOL    HW298000  11.494   2.143   2.527
32035SOL     OW98001  12.422   2.184  13.540
32035SOL    HW198002  12.402   2.103  13.493
32035SOL    HW298003  12.402   2.254  13.478
32036SOL     OW98004   4.700   7.142   4.635
32036SOL    HW198005   4.664   7.128   4.547
32036SOL    HW298006   4.759   7.068   4.648
32037SOL     OW98007   9.349   4.113   8.036
32037SOL    HW198008   9.260   4.121   8.069
32037SOL    HW298009   9.359   4.020   8.015
32038SOL     OW98010   3.391  14.231   2.724
32038SOL    HW198011   3.470  14.202   2.679
32038SOL    HW298012   3.319  14.209   2.664
32039SOL     OW98013   4.948  11.205   8.760
32039SOL    HW198014   4.982  11.212   8.849
32039SOL    HW298015   4.862  11.164   8.769
32040SOL     OW98016   3.977   2.223  12.032
32040SOL    HW198017   3.944   2.229  11.943
32040SOL    HW298018   3.898   2.223  12.087
32041SOL     OW98019  14.121   7.689   9.169
32041SOL    HW198020  14.061   7.634   9.221
32041SOL    HW298021  14.082   7.776   9.171
32042SOL     OW98022   1.369   6.482   8.584
32042SOL    HW198023   1.345   6.530   8.505
32042SOL    HW298024   1.433   6.538   8.628
32043SOL     OW98025   0.576   7.146   4.980
32043SOL    HW198026   0.484   7.143   4.955
32043SOL    HW298027   0.609   7.227   4.940
32044SOL     OW98028  11.082   2.554   8.847
32044SOL    HW198029  10.993   2.574   8.876
32044SOL    HW298030  11.081   2.574   8.753
32045SOL     OW98031   3.577   7.168   1.973
32045SOL    HW198032   3.501   7.225   1.984
32045SOL    HW298033   3.566   7.100   2.039
32046SOL     OW98034  14.179   9.131   8.159
32046SOL    HW198035  14.229   9.192   8.212
32046SOL    HW298036  14.205   9.151   8.069
32047SOL     OW98037   3.394  11.716   7.244
32047SOL    HW198038   3.354  11.684   7.326
32047SOL    HW298039   3.428  11.637   7.202
32048SOL     OW98040  11.473   9.843  10.375
32048SOL    HW198041  11.389   9.823  10.334
32048SOL    HW298042  11.523   9.888  10.307
32049SOL     OW98043   3.325  13.743   9.631
32049SOL    HW198044   3.261  13.672   9.625
32049SOL    HW298045   3.280  13.819   9.594
32050SOL     OW98046   1.546   8.800   3.992
32050SOL    HW198047   1.450   8.795   3.997
32050SOL    HW298048   1.576   8.764   4.076
32051SOL     OW98049   4.621  11.245  12.936
32051SOL    HW198050   4.670  11.167  12.907
32051SOL    HW298051   4.686  11.297  12.984
32052SOL     OW98052   8.032  10.210   3.027
32052SOL    HW198053   8.079  10.128   3.015
32052SOL    HW298054   8.101  10.276   3.037
32053SOL     OW98055   9.976  12.054   2.290
32053SOL    HW198056  10.027  11.990   2.241
32053SOL    HW298057  10.041  12.111   2.330
32054SOL     OW98058   7.694  12.657   4.710
32054SOL    HW198059   7.694  12.693   4.799
32054SOL    HW298060   7.638  12.717   4.660
32055SOL     OW98061  13.928   4.015   4.727
32055SOL    HW198062  13.866   3.992   4.658
32055SOL    HW298063  13.929   3.940   4.786
32056SOL     OW98064   1.013   1.633   2.360
32056SOL    HW198065   1.103   1.599   2.358
32056SOL    HW298066   0.990   1.631   2.453
32057SOL     OW98067   9.500  12.519  13.878
32057SOL    HW198068   9.482  12.465  13.800
32057SOL    HW298069   9.443  12.595  13.867
32058SOL     OW98070  14.766  13.096  11.301
32058SOL    HW198071  14.807  13.090  11.215
32058SOL    HW298072  14.696  13.160  11.290
32059SOL     OW98073   7.354  11.631   0.139
32059SOL    HW198074   7.403  11.703   0.100
32059SOL    HW298075   7.264  11.662   0.145
32060SOL     OW98076  12.763   7.934  12.706
32060SOL    HW198077  12.713   7.991  12.648
32060SOL    HW298078  12.765   7.850  12.661
32061SOL     OW98079  14.387   1.881  13.663
32061SOL    HW198080  14.468   1.931  13.658
32061SOL    HW298081  14.408   1.796  13.626
32062SOL     OW98082  14.354   3.571   4.564
32062SOL    HW198083  14.391   3.649   4.606
32062SOL    HW298084  14.419   3.544   4.500
32063SOL     OW98085   2.528  10.544  10.360
32063SOL    HW198086   2.589  10.540  10.433
32063SOL    HW298087   2.527  10.635  10.333
32064SOL     OW98088  11.918   5.388   8.073
32064SOL    HW198089  11.883   5.300   8.076
32064SOL    HW298090  11.848   5.444   8.107
32065SOL     OW98091  11.780   7.660   0.953
32065SOL    HW198092  11.841   7.732   0.971
32065SOL    HW298093  11.771   7.615   1.038
32066SOL     OW98094   3.523   9.934   5.289
32066SOL    HW198095   3.458   9.982   5.237
32066SOL    HW298096   3.471   9.877   5.345
32067SOL     OW98097   6.242   3.600   4.338
32067SOL    HW198098   6.317   3.571   4.285
32067SOL    HW298099   6.191   3.655   4.279
32068SOL     OW98100  11.667   0.964   5.178
32068SOL    HW198101  11.691   1.032   5.116
32068SOL    HW298102  11.574   0.950   5.165
32069SOL     OW98103  10.765   2.679   1.207
32069SOL    HW198104  10.812   2.733   1.271
32069SOL    HW298105  10.829   2.613   1.181
32070SOL     OW98106  11.839   8.352   7.327
32070SOL    HW198107  11.866   8.261   7.337
32070SOL    HW298108  11.914   8.403   7.356
32071SOL     OW98109  10.420   3.851   8.349
32071SOL    HW198110  10.363   3.880   8.420
32071SOL    HW298111  10.439   3.930   8.299
32072SOL     OW98112   4.133   5.270  13.301
32072SOL    HW198113   4.118   5.301  13.391
32072SOL    HW298114   4.045   5.266  13.263
32073SOL     OW98115   3.464  10.395  12.158
32073SOL    HW198116   3.421  10.477  12.184
32073SOL    HW298117   3.413  10.364  12.084
32074SOL     OW98118   2.678   4.020   6.323
32074SOL    HW198119   2.594   4.040   6.365
32074SOL    HW298120   2.659   3.949   6.262
32075SOL     OW98121   4.978   1.922  14.265
32075SOL    HW198122   5.006   1.891  14.351
32075SOL    HW298123   5.059   1.941  14.218
32076SOL     OW98124  12.286  14.536  10.017
32076SOL    HW198125  12.314  14.546   9.926
32076SOL    HW298126  12.258  14.445  10.023
32077SOL     OW98127   2.788   4.660   2.080
32077SOL    HW198128   2.870   4.665   2.030
32077SOL    HW298129   2.812   4.690   2.167
32078SOL     OW98130   2.582   9.663  13.701
32078SOL    HW198131   2.554   9.701  13.784
32078SOL    HW298132   2.678   9.664  13.705
32079SOL     OW98133  13.912   7.924   6.008
32079SOL    HW198134  13.925   7.859   5.939
32079SOL    HW298135  13.888   8.004   5.961
32080SOL     OW98136   6.520   5.579  14.428
32080SOL    HW198137   6.552   5.650  14.484
32080SOL    HW298138   6.425   5.592  14.426
32081SOL     OW98139  12.484   1.846  14.347
32081SOL    HW198140  12.419   1.916  14.345
32081SOL    HW298141  12.533   1.861  14.428
32082SOL     OW98142   9.122  10.981   2.734
32082SOL    HW198143   9.196  10.939   2.779
32082SOL    HW298144   9.045  10.938   2.772
32083SOL     OW98145  12.249   0.037   6.319
32083SOL    HW198146  12.256   0.107   6.254
32083SOL    HW298147  12.247  14.826   6.268
32084SOL     OW98148   2.870   0.451   3.058
32084SOL    HW198149   2.895   0.532   3.014
32084SOL    HW298150   2.781   0.469   3.090
32085SOL     OW98151   7.416   4.986   2.361
32085SOL    HW198152   7.485   4.995   2.295
32085SOL    HW298153   7.347   5.045   2.332
32086SOL     OW98154   1.063   2.840   7.480
32086SOL    HW198155   1.079   2.840   7.575
32086SOL    HW298156   1.104   2.760   7.448
32087SOL     OW98157  10.129  14.825  12.445
32087SOL    HW198158  10.054  14.769  12.426
32087SOL    HW298159  10.090   0.037  12.476
32088SOL     OW98160   6.949   0.299  14.528
32088SOL    HW198161   6.858   0.330  14.529
32088SOL    HW298162   6.943   0.207  14.554
32089SOL     OW98163  12.973   9.231   1.826
32089SOL    HW198164  12.982   9.162   1.760
32089SOL    HW298165  12.939   9.185   1.903
32090SOL     OW98166   0.191   4.787   8.926
32090SOL    HW198167   0.100   4.762   8.937
32090SOL    HW298168   0.188   4.878   8.897
32091SOL     OW98169   1.856  11.182   2.629
32091SOL    HW198170   1.800  11.113   2.595
32091SOL    HW298171   1.803  11.261   2.625
32092SOL     OW98172   1.843   6.078   4.647
32092SOL    HW198173   1.899   6.000   4.650
32092SOL    HW298174   1.805   6.083   4.735
32093SOL     OW98175  11.664   1.238   1.859
32093SOL    HW198176  11.734   1.173   1.858
32093SOL    HW298177  11.673   1.284   1.776
32094SOL     OW98178   9.567   7.138   6.365
32094SOL    HW198179   9.589   7.077   6.436
32094SOL    HW298180   9.648   7.145   6.314
32095SOL     OW98181   4.001   8.596   9.562
32095SOL    HW198182   3.990   8.685   9.595
32095SOL    HW298183   4.040   8.548   9.635
32096SOL     OW98184   4.093   2.376   5.108
32096SOL    HW198185   4.020   2.314   5.112
32096SOL    HW298186   4.065   2.441   5.043
32097SOL     OW98187   1.068   6.938   9.109
32097SOL    HW198188   1.095   7.008   9.169
32097SOL    HW298189   1.055   6.862   9.166
32098SOL     OW98190   1.092   6.486   9.480
32098SOL    HW198191   1.155   6.523   9.419
32098SOL    HW298192   1.049   6.561   9.520
32099SOL     OW98193  13.961   8.358   1.062
32099SOL    HW198194  13.885   8.300   1.069
32099SOL    HW298195  14.014   8.337   1.139
32100SOL     OW98196  10.125   9.627   4.953
32100SOL    HW198197  10.218   9.644   4.968
32100SOL    HW298198  10.081   9.669   5.026
32101SOL     OW98199   3.275  11.818   4.044
32101SOL    HW198200   3.183  11.832   4.067
32101SOL    HW298201   3.320  11.897   4.075
32102SOL     OW98202  10.019  11.145  10.773
32102SOL    HW198203   9.944  11.095  10.741
32102SOL    HW298204   9.995  11.168  10.863
32103SOL     OW98205   3.944  12.801  12.300
32103SOL    HW198206   3.859  12.794  12.258
32103SOL    HW298207   3.989  12.871  12.253
32104SOL     OW98208  11.148   5.228   0.343
32104SOL    HW198209  11.096   5.151   0.367
32104SOL    HW298210  11.143   5.230   0.248
32105SOL     OW98211  10.945   4.527   9.653
32105SOL    HW198212  10.894   4.520   9.572
32105SOL    HW298213  10.895   4.476   9.717
32106SOL     OW98214   6.920  11.230   1.097
32106SOL    HW198215   7.006  11.196   1.119
32106SOL    HW298216   6.891  11.276   1.176
32107SOL     OW98217   8.180   2.039   7.904
32107SOL    HW198218   8.155   2.056   7.995
32107SOL    HW298219   8.124   2.096   7.852
32108SOL     OW98220   1.710  11.321  12.325
32108SOL    HW198221   1.632  11.375  12.316
32108SOL    HW298222   1.783  11.381  12.309
32109SOL     OW98223   3.224  13.078  10.035
32109SOL    HW198224   3.260  12.996  10.069
32109SOL    HW298225   3.187  13.054   9.950
32110SOL     OW98226  14.027  13.331  14.133
32110SOL    HW198227  14.112  13.299  14.163
32110SOL    HW298228  13.964  13.272  14.174
32111SOL     OW98229  14.650   6.046  10.586
32111SOL    HW198230  14.572   6.061  10.639
32111SOL    HW298231  14.720   6.092  10.633
32112SOL     OW98232   2.450   4.771   5.489
32112SOL    HW198233   2.438   4.722   5.571
32112SOL    HW298234   2.447   4.704   5.421
32113SOL     OW98235   8.713  11.086  12.215
32113SOL    HW198236   8.618  11.087  12.230
32113SOL    HW298237   8.726  11.142  12.138
32114SOL     OW98238   5.672  12.440   4.691
32114SOL    HW198239   5.628  12.490   4.622
32114SOL    HW298240   5.739  12.390   4.645
32115SOL     OW98241   2.172  12.376  13.083
32115SOL    HW198242   2.080  12.386  13.062
32115SOL    HW298243   2.173  12.347  13.174
32116SOL     OW98244  14.679   1.092  13.604
32116SOL    HW198245  14.680   1.176  13.651
32116SOL    HW298246  14.772   1.069  13.597
32117SOL     OW98247   3.002   6.679  11.576
32117SOL    HW198248   2.930   6.642  11.525
32117SOL    HW298249   3.026   6.759  11.529
32118SOL     OW98250   8.586  10.896   4.327
32118SOL    HW198251   8.672  10.935   4.344
32118SOL    HW298252   8.574  10.833   4.398
32119SOL     OW98253  14.046   8.206   2.000
32119SOL    HW198254  14.101   8.131   1.981
32119SOL    HW298255  13.998   8.182   2.080
32120SOL     OW98256  11.521  11.697   2.391
32120SOL    HW198257  11.523  11.727   2.300
32120SOL    HW298258  11.573  11.617   2.391
32121SOL     OW98259  10.864   2.117   2.796
32121SOL    HW198260  10.942   2.100   2.848
32121SOL    HW298261  10.848   2.211   2.807
32122SOL     OW98262   6.012  14.476   9.672
32122SOL    HW198263   5.958  14.521   9.736
32122SOL    HW298264   6.101  14.482   9.707
32123SOL     OW98265  11.764   7.056   2.990
32123SOL    HW198266  11.830   7.082   2.925
32123SOL    HW298267  11.685   7.038   2.938
32124SOL     OW98268   6.995  12.325   3.729
32124SOL    HW198269   7.071  12.267   3.736
32124SOL    HW298270   6.994  12.373   3.812
32125SOL     OW98271   9.579   2.618   9.422
32125SOL    HW198272   9.502   2.605   9.367
32125SOL    HW298273   9.545   2.661   9.501
32126SOL     OW98274   1.283  14.262   5.431
32126SOL    HW198275   1.207  14.270   5.373
32126SOL    HW298276   1.358  14.267   5.372
32127SOL     OW98277   1.555   2.672   8.503
32127SOL    HW198278   1.627   2.673   8.566
32127SOL    HW298279   1.477   2.690   8.555
32128SOL     OW98280   0.899   8.056   9.207
32128SOL    HW198281   0.903   8.152   9.200
32128SOL    HW298282   0.834   8.040   9.275
32129SOL     OW98283   9.432   7.741  13.954
32129SOL    HW198284   9.462   7.650  13.947
32129SOL    HW298285   9.498   7.784  14.008
32130SOL     OW98286   0.179   8.699   6.536
32130SOL    HW198287   0.167   8.690   6.631
32130SOL    HW298288   0.262   8.746   6.527
32131SOL     OW98289  10.794   3.631   1.126
32131SOL    HW198290  10.757   3.553   1.167
32131SOL    HW298291  10.835   3.680   1.197
32132SOL     OW98292  13.550  10.870   1.223
32132SOL    HW198293  13.587  10.957   1.238
32132SOL    HW298294  13.568  10.822   1.304
32133SOL     OW98295   7.221   2.359   6.924
32133SOL    HW198296   7.134   2.367   6.961
32133SOL    HW298297   7.214   2.286   6.862
32134SOL     OW98298   0.887  13.871  14.142
32134SOL    HW198299   0.953  13.859  14.210
32134SOL    HW298300   0.933  13.853  14.060
32135SOL     OW98301   6.625  12.268   9.858
32135SOL    HW198302   6.553  12.317   9.898
32135SOL    HW298303   6.616  12.287   9.764
32136SOL     OW98304   4.699  10.479   7.510
32136SOL    HW198305   4.746  10.413   7.460
32136SOL    HW298306   4.739  10.477   7.597
32137SOL     OW98307   6.652  10.933   0.039
32137SOL    HW198308   6.670  11.021   0.071
32137SOL    HW298309   6.564  10.913   0.070
32138SOL     OW98310   3.709   8.147   9.558
32138SOL    HW198311   3.769   8.220   9.542
32138SOL    HW298312   3.654   8.177   9.630
32139SOL     OW98313   9.544   7.902   5.368
32139SOL    HW198314   9.576   7.966   5.432
32139SOL    HW298315   9.621   7.849   5.347
32140SOL     OW98316  11.617  10.826   8.397
32140SOL    HW198317  11.674  10.753   8.421
32140SOL    HW298318  11.630  10.890   8.466
32141SOL     OW98319   9.224   2.203  11.558
32141SOL    HW198320   9.160   2.202  11.487
32141SOL    HW298321   9.267   2.117  11.552
32142SOL     OW98322   1.218   5.498   4.042
32142SOL    HW198323   1.311   5.504   4.064
32142SOL    HW298324   1.214   5.510   3.947
32143SOL     OW98325   4.791   2.373   6.812
32143SOL    HW198326   4.863   2.383   6.874
32143SOL    HW298327   4.787   2.457   6.767
32144SOL     OW98328  11.870  11.000   4.254
32144SOL    HW198329  11.919  10.999   4.336
32144SOL    HW298330  11.890  11.085   4.214
32145SOL     OW98331   4.671   2.729   2.538
32145SOL    HW198332   4.675   2.767   2.625
32145SOL    HW298333   4.626   2.645   2.550
32146SOL     OW98334   6.001   3.471  13.289
32146SOL    HW198335   6.019   3.521  13.368
32146SOL    HW298336   5.939   3.404  13.316
32147SOL     OW98337   0.816   1.884  12.324
32147SOL    HW198338   0.813   1.822  12.397
32147SOL    HW298339   0.863   1.837  12.255
32148SOL     OW98340   4.135  14.640  14.101
32148SOL    HW198341   4.068  14.647  14.169
32148SOL    HW298342   4.126  14.720  14.050
32149SOL     OW98343   2.728   6.145  10.226
32149SOL    HW198344   2.637   6.162  10.249
32149SOL    HW298345   2.724   6.106  10.138
32150SOL     OW98346  12.303  13.233   7.127
32150SOL    HW198347  12.227  13.189   7.167
32150SOL    HW298348  12.324  13.180   7.050
32151SOL     OW98349   5.070   9.035   5.109
32151SOL    HW198350   5.086   9.051   5.203
32151SOL    HW298351   5.157   9.019   5.073
32152SOL     OW98352   9.032   7.860  14.847
32152SOL    HW198353   9.024   7.950   0.010
32152SOL    HW298354   9.006   7.865  14.755
32153SOL     OW98355   5.246  14.458   1.327
32153SOL    HW198356   5.254  14.486   1.236
32153SOL    HW298357   5.308  14.385   1.335
32154SOL     OW98358   7.679   5.537   6.031
32154SOL    HW198359   7.646   5.454   5.996
32154SOL    HW298360   7.616   5.602   5.999
32155SOL     OW98361   5.585   7.291  12.951
32155SOL    HW198362   5.599   7.263  13.041
32155SOL    HW298363   5.543   7.377  12.959
32156SOL     OW98364   9.619   0.929   6.733
32156SOL    HW198365   9.581   0.914   6.646
32156SOL    HW298366   9.703   0.884   6.731
32157SOL     OW98367   0.210  11.297  13.750
32157SOL    HW198368   0.185  11.230  13.686
32157SOL    HW298369   0.304  11.305  13.741
32158SOL     OW98370   8.683   7.086  13.143
32158SOL    HW198371   8.775   7.066  13.163
32158SOL    HW298372   8.638   7.002  13.148
32159SOL     OW98373   9.754   7.937  12.462
32159SOL    HW198374   9.764   7.913  12.369
32159SOL    HW298375   9.665   7.907  12.484
32160SOL     OW98376   9.926  12.128   4.371
32160SOL    HW198377   9.949  12.036   4.359
32160SOL    HW298378   9.944  12.169   4.286
32161SOL     OW98379   5.905  11.706  10.199
32161SOL    HW198380   5.950  11.703  10.284
32161SOL    HW298381   5.821  11.747  10.218
32162SOL     OW98382   9.208   1.850  14.773
32162SOL    HW198383   9.172   1.934  14.800
32162SOL    HW298384   9.242   1.866  14.686
32163SOL     OW98385   3.675  12.622   2.582
32163SOL    HW198386   3.721  12.690   2.632
32163SOL    HW298387   3.744  12.577   2.535
32164SOL     OW98388   0.401  13.967   0.328
32164SOL    HW198389   0.408  13.980   0.233
32164SOL    HW298390   0.320  14.011   0.352
32165SOL     OW98391   1.687  11.553   8.812
32165SOL    HW198392   1.697  11.581   8.721
32165SOL    HW298393   1.594  11.530   8.820
32166SOL     OW98394  11.024  11.385  11.075
32166SOL    HW198395  10.974  11.315  11.033
32166SOL    HW298396  10.986  11.465  11.038
32167SOL     OW98397   0.436   4.853  10.948
32167SOL    HW198398   0.471   4.797  10.878
32167SOL    HW298399   0.357   4.891  10.911
32168SOL     OW98400  11.592   7.050  11.713
32168SOL    HW198401  11.502   7.052  11.680
32168SOL    HW298402  11.591   6.984  11.782
32169SOL     OW98403   0.842  12.258  11.965
32169SOL    HW198404   0.874  12.259  11.875
32169SOL    HW298405   0.883  12.181  12.005
32170SOL     OW98406   7.309   5.282   7.665
32170SOL    HW198407   7.222   5.310   7.690
32170SOL    HW298408   7.322   5.317   7.576
32171SOL     OW98409  13.879   3.717   1.948
32171SOL    HW198410  13.947   3.737   2.013
32171SOL    HW298411  13.854   3.803   1.912
32172SOL     OW98412   9.423   1.230  13.837
32172SOL    HW198413   9.419   1.149  13.888
32172SOL    HW298414   9.503   1.273  13.866
32173SOL     OW98415  11.466   4.955   4.817
32173SOL    HW198416  11.425   4.869   4.809
32173SOL    HW298417  11.520   4.948   4.896
32174SOL     OW98418  14.314   3.456   0.811
32174SOL    HW198419  14.273   3.465   0.897
32174SOL    HW298420  14.408   3.465   0.829
32175SOL     OW98421   5.821  11.388   7.532
32175SOL    HW198422   5.859  11.336   7.603
32175SOL    HW298423   5.896  11.418   7.481
32176SOL     OW98424   1.689   0.267   7.297
32176SOL    HW198425   1.717   0.208   7.367
32176SOL    HW298426   1.710   0.354   7.330
32177SOL     OW98427   5.164   4.501   8.347
32177SOL    HW198428   5.216   4.535   8.420
32177SOL    HW298429   5.128   4.578   8.305
32178SOL     OW98430  11.292   4.696   5.534
32178SOL    HW198431  11.298   4.650   5.450
32178SOL    HW298432  11.230   4.768   5.517
32179SOL     OW98433  13.618  14.743   3.086
32179SOL    HW198434  13.685  14.678   3.107
32179SOL    HW298435  13.628  14.810   3.154
32180SOL     OW98436   0.157  11.044  11.601
32180SOL    HW198437   0.122  10.999  11.524
32180SOL    HW298438   0.212  11.114  11.565
32181SOL     OW98439   2.306  10.191  10.206
32181SOL    HW198440   2.223  10.205  10.251
32181SOL    HW298441   2.289  10.120  10.145
32182SOL     OW98442   5.119   4.097  14.119
32182SOL    HW198443   5.206   4.127  14.144
32182SOL    HW298444   5.076   4.174  14.081
32183SOL     OW98445   3.396   6.273  11.863
32183SOL    HW198446   3.316   6.250  11.910
32183SOL    HW298447   3.467   6.248  11.923
32184SOL     OW98448  10.503   2.957   4.809
32184SOL    HW198449  10.488   3.023   4.877
32184SOL    HW298450  10.510   2.874   4.857
32185SOL     OW98451   0.723   4.351   0.708
32185SOL    HW198452   0.774   4.399   0.643
32185SOL    HW298453   0.789   4.310   0.764
32186SOL     OW98454   0.433   1.245   5.649
32186SOL    HW198455   0.520   1.269   5.615
32186SOL    HW298456   0.409   1.167   5.599
32187SOL     OW98457   1.150  11.711  12.985
32187SOL    HW198458   1.114  11.745  12.903
32187SOL    HW298459   1.244  11.729  12.980
32188SOL     OW98460  12.581  12.204   9.407
32188SOL    HW198461  12.676  12.200   9.412
32188SOL    HW298462  12.562  12.298   9.400
32189SOL     OW98463  10.180  10.584   7.347
32189SOL    HW198464  10.226  10.509   7.385
32189SOL    HW298465  10.167  10.560   7.256
32190SOL     OW98466  14.696   4.450   4.391
32190SOL    HW198467  14.782   4.420   4.421
32190SOL    HW298468  14.685   4.535   4.433
32191SOL     OW98469   7.094  13.843   8.077
32191SOL    HW198470   7.067  13.917   8.023
32191SOL    HW298471   7.013  13.799   8.101
32192SOL     OW98472  10.782   5.713  12.962
32192SOL    HW198473  10.690   5.697  12.942
32192SOL    HW298474  10.780   5.775  13.035
32193SOL     OW98475   1.085  12.280   0.596
32193SOL    HW198476   1.050  12.236   0.519
32193SOL    HW298477   1.008  12.317   0.639
32194SOL     OW98478  14.685  14.735  11.673
32194SOL    HW198479  14.636  14.795  11.729
32194SOL    HW298480  14.693  14.655  11.724
32195SOL     OW98481   5.069   2.224   2.715
32195SOL    HW198482   5.005   2.159   2.685
32195SOL    HW298483   5.022   2.276   2.780
32196SOL     OW98484  12.719  13.519   3.921
32196SOL    HW198485  12.783  13.553   3.858
32196SOL    HW298486  12.757  13.437   3.952
32197SOL     OW98487  10.414   1.780   3.147
32197SOL    HW198488  10.477   1.748   3.083
32197SOL    HW298489  10.451   1.863   3.178
32198SOL     OW98490   0.572   7.235  12.671
32198SOL    HW198491   0.479   7.257  12.667
32198SOL    HW298492   0.576   7.143  12.642
32199SOL     OW98493   1.114   7.543   3.825
32199SOL    HW198494   1.193   7.595   3.812
32199SOL    HW298495   1.145   7.454   3.843
32200SOL     OW98496   0.165   1.931   1.487
32200SOL    HW198497   0.104   1.966   1.552
32200SOL    HW298498   0.238   1.898   1.539
32201SOL     OW98499  11.076   8.912  12.034
32201SOL    HW198500  11.152   8.891  12.087
32201SOL    HW298501  11.045   8.996  12.067
32202SOL     OW98502   9.568   6.589   3.347
32202SOL    HW198503   9.499   6.656   3.352
32202SOL    HW298504   9.642   6.635   3.307
32203SOL     OW98505   7.034   9.994   4.450
32203SOL    HW198506   7.056  10.073   4.500
32203SOL    HW298507   7.071   9.922   4.502
32204SOL     OW98508   3.409   5.890   7.168
32204SOL    HW198509   3.499   5.864   7.151
32204SOL    HW298510   3.417   5.970   7.220
32205SOL     OW98511   0.405  13.450   0.068
32205SOL    HW198512   0.440  13.375   0.021
32205SOL    HW298513   0.312  13.429   0.083
32206SOL     OW98514   7.775   8.837   8.043
32206SOL    HW198515   7.786   8.759   8.097
32206SOL    HW298516   7.731   8.806   7.964
32207SOL     OW98517  12.244   7.782   0.787
32207SOL    HW198518  12.312   7.848   0.800
32207SOL    HW298519  12.257   7.720   0.859
32208SOL     OW98520   9.048   0.882   8.606
32208SOL    HW198521   9.067   0.871   8.513
32208SOL    HW298522   9.131   0.867   8.650
32209SOL     OW98523  13.725   8.485   6.980
32209SOL    HW198524  13.654   8.431   7.013
32209SOL    HW298525  13.796   8.473   7.043
32210SOL     OW98526  14.518  14.056   3.349
32210SOL    HW198527  14.437  14.104   3.334
32210SOL    HW298528  14.584  14.105   3.299
32211SOL     OW98529  14.234  12.571   1.435
32211SOL    HW198530  14.169  12.640   1.440
32211SOL    HW298531  14.251  12.547   1.526
32212SOL     OW98532  11.285   8.054   0.598
32212SOL    HW198533  11.298   8.141   0.637
32212SOL    HW298534  11.282   8.071   0.504
32213SOL     OW98535   4.535   4.603   7.878
32213SOL    HW198536   4.627   4.621   7.900
32213SOL    HW298537   4.529   4.620   7.784
32214SOL     OW98538   1.673  10.125  10.416
32214SOL    HW198539   1.601  10.088  10.366
32214SOL    HW298540   1.750  10.075  10.390
32215SOL     OW98541   4.694   5.862   3.319
32215SOL    HW198542   4.609   5.899   3.341
32215SOL    HW298543   4.684   5.830   3.229
32216SOL     OW98544   0.190   3.078   2.938
32216SOL    HW198545   0.240   3.092   2.857
32216SOL    HW298546   0.240   3.125   3.005
32217SOL     OW98547   3.488   4.487   6.031
32217SOL    HW198548   3.398   4.476   6.001
32217SOL    HW298549   3.525   4.553   5.972
32218SOL     OW98550  14.295   9.682  11.767
32218SOL    HW198551  14.361   9.683  11.836
32218SOL    HW298552  14.211   9.676  11.814
32219SOL     OW98553  12.495   7.044   0.758
32219SOL    HW198554  12.570   7.080   0.711
32219SOL    HW298555  12.523   6.956   0.785
32220SOL     OW98556   7.478   3.878   7.398
32220SOL    HW198557   7.416   3.948   7.379
32220SOL    HW298558   7.464   3.813   7.329
32221SOL     OW98559   5.602   4.896   7.129
32221SOL    HW198560   5.529   4.947   7.164
32221SOL    HW298561   5.626   4.941   7.048
32222SOL     OW98562   3.053   3.407  11.234
32222SOL    HW198563   3.127   3.369  11.283
32222SOL    HW298564   2.984   3.419  11.299
32223SOL     OW98565   0.197   3.316  11.986
32223SOL    HW198566   0.272   3.260  11.967
32223SOL    HW298567   0.203   3.335  12.079
32224SOL     OW98568   6.344  11.645  14.344
32224SOL    HW198569   6.315  11.736  14.343
32224SOL    HW298570   6.283  11.601  14.404
32225SOL     OW98571   6.426   3.149   4.386
32225SOL    HW198572   6.407   3.198   4.466
32225SOL    HW298573   6.522   3.146   4.382
32226SOL     OW98574  10.823  14.634  12.391
32226SOL    HW198575  10.771  14.595  12.321
32226SOL    HW298576  10.791  14.724  12.398
32227SOL     OW98577   6.821   6.639  14.300
32227SOL    HW198578   6.791   6.590  14.376
32227SOL    HW298579   6.742   6.678  14.263
32228SOL     OW98580   7.196   5.398   9.484
32228SOL    HW198581   7.148   5.459   9.429
32228SOL    HW298582   7.256   5.352   9.425
32229SOL     OW98583   7.453   8.035  12.322
32229SOL    HW198584   7.528   7.990  12.360
32229SOL    HW298585   7.446   8.001  12.233
32230SOL     OW98586  13.067   4.099   2.196
32230SOL    HW198587  13.055   4.166   2.264
32230SOL    HW298588  13.162   4.097   2.181
32231SOL     OW98589   2.132   3.468   1.230
32231SOL    HW198590   2.183   3.417   1.167
32231SOL    HW298591   2.047   3.424   1.232
32232SOL     OW98592   3.627   5.933  10.127
32232SOL    HW198593   3.647   6.015  10.082
32232SOL    HW298594   3.589   5.959  10.211
32233SOL     OW98595   2.957   4.714   8.797
32233SOL    HW198596   3.006   4.788   8.762
32233SOL    HW298597   3.025   4.651   8.822
32234SOL     OW98598  14.408   3.931   4.933
32234SOL    HW198599  14.403   3.878   4.853
32234SOL    HW298600  14.450   4.012   4.904
32235SOL     OW98601  13.508   7.475   4.626
32235SOL    HW198602  13.573   7.544   4.636
32235SOL    HW298603  13.529   7.434   4.542
32236SOL     OW98604   8.236   2.591  13.291
32236SOL    HW198605   8.253   2.617  13.382
32236SOL    HW298606   8.323   2.592  13.249
32237SOL     OW98607   3.912   9.327   5.020
32237SOL    HW198608   3.838   9.327   4.960
32237SOL    HW298609   3.977   9.385   4.979
32238SOL     OW98610  14.336  13.139   3.836
32238SOL    HW198611  14.381  13.140   3.921
32238SOL    HW298612  14.386  13.076   3.783
32239SOL     OW98613  12.817   5.195  10.766
32239SOL    HW198614  12.824   5.100  10.754
32239SOL    HW298615  12.753   5.222  10.701
32240SOL     OW98616  14.035   8.486   3.587
32240SOL    HW198617  13.976   8.416   3.559
32240SOL    HW298618  14.112   8.440   3.621
32241SOL     OW98619   2.376  11.548   7.283
32241SOL    HW198620   2.354  11.620   7.223
32241SOL    HW298621   2.368  11.587   7.370
32242SOL     OW98622   6.411  11.715   8.358
32242SOL    HW198623   6.407  11.728   8.263
32242SOL    HW298624   6.326  11.677   8.381
32243SOL     OW98625   9.875   2.721   5.563
32243SOL    HW198626   9.832   2.745   5.481
32243SOL    HW298627   9.857   2.794   5.622
32244SOL     OW98628   6.798  14.610   8.055
32244SOL    HW198629   6.884  14.627   8.093
32244SOL    HW298630   6.811  14.535   7.997
32245SOL     OW98631   7.387   2.944  13.347
32245SOL    HW198632   7.346   2.957  13.432
32245SOL    HW298633   7.315   2.947  13.285
32246SOL     OW98634   0.968  12.626   2.328
32246SOL    HW198635   1.041  12.631   2.390
32246SOL    HW298636   0.922  12.546   2.351
32247SOL     OW98637  13.245   5.434  13.773
32247SOL    HW198638  13.232   5.340  13.788
32247SOL    HW298639  13.240   5.444  13.678
32248SOL     OW98640   2.366   2.884   6.292
32248SOL    HW198641   2.406   2.931   6.219
32248SOL    HW298642   2.309   2.819   6.252
32249SOL     OW98643   9.688  12.986  12.625
32249SOL    HW198644   9.641  12.910  12.589
32249SOL    HW298645   9.631  13.020  12.694
32250SOL     OW98646  11.515  11.653   6.906
32250SOL    HW198647  11.462  11.713   6.961
32250SOL    HW298648  11.474  11.568   6.918
32251SOL     OW98649   2.463  12.957   7.508
32251SOL    HW198650   2.415  13.031   7.547
32251SOL    HW298651   2.555  12.983   7.514
32252SOL     OW98652   9.334   0.340  10.157
32252SOL    HW198653   9.317   0.246  10.155
32252SOL    HW298654   9.312   0.366  10.246
32253SOL     OW98655   4.591  10.465   5.310
32253SOL    HW198656   4.649  10.390   5.316
32253SOL    HW298657   4.617  10.510   5.230
32254SOL     OW98658   2.893   7.446  14.835
32254SOL    HW198659   2.956   7.375  14.838
32254SOL    HW298660   2.898   7.479  14.745
32255SOL     OW98661   4.562   5.516   9.739
32255SOL    HW198662   4.468   5.501   9.726
32255SOL    HW298663   4.591   5.560   9.659
32256SOL     OW98664   6.910   0.627   2.831
32256SOL    HW198665   6.998   0.595   2.811
32256SOL    HW298666   6.924   0.715   2.865
32257SOL     OW98667   0.904   9.236  12.808
32257SOL    HW198668   0.957   9.163  12.841
32257SOL    HW298669   0.969   9.299  12.776
32258SOL     OW98670  11.729   3.650  14.652
32258SOL    HW198671  11.738   3.584  14.721
32258SOL    HW298672  11.657   3.706  14.682
32259SOL     OW98673   5.571   3.434   5.864
32259SOL    HW198674   5.611   3.350   5.841
32259SOL    HW298675   5.490   3.410   5.910
32260SOL     OW98676  10.535  13.217   2.677
32260SOL    HW198677  10.486  13.294   2.647
32260SOL    HW298678  10.469  13.161   2.718
32261SOL     OW98679   2.609   9.035   1.055
32261SOL    HW198680   2.611   9.034   0.959
32261SOL    HW298681   2.535   9.093   1.076
32262SOL     OW98682   0.523   3.294  10.872
32262SOL    HW198683   0.431   3.319  10.862
32262SOL    HW298684   0.536   3.222  10.810
32263SOL     OW98685   7.416   5.386  13.720
32263SOL    HW198686   7.473   5.362  13.793
32263SOL    HW298687   7.414   5.481  13.721
32264SOL     OW98688   1.575  12.115   2.103
32264SOL    HW198689   1.505  12.165   2.061
32264SOL    HW298690   1.587  12.156   2.188
32265SOL     OW98691  11.693  11.557   1.234
32265SOL    HW198692  11.760  11.610   1.192
32265SOL    HW298693  11.713  11.467   1.207
32266SOL     OW98694  11.978   4.759  14.708
32266SOL    HW198695  12.015   4.680  14.669
32266SOL    HW298696  11.901   4.778  14.654
32267SOL     OW98697   5.456   1.464   2.437
32267SOL    HW198698   5.426   1.552   2.458
32267SOL    HW298699   5.449   1.416   2.520
32268SOL     OW98700  11.149   2.123   3.639
32268SOL    HW198701  11.075   2.172   3.676
32268SOL    HW298702  11.113   2.037   3.618
32269SOL     OW98703  13.827   7.173   0.594
32269SOL    HW198704  13.836   7.130   0.509
32269SOL    HW298705  13.788   7.258   0.573
32270SOL     OW98706   4.522   5.224   2.361
32270SOL    HW198707   4.592   5.165   2.390
32270SOL    HW298708   4.482   5.179   2.287
32271SOL     OW98709   8.552   9.112   1.580
32271SOL    HW198710   8.569   9.159   1.498
32271SOL    HW298711   8.621   9.144   1.639
32272SOL     OW98712  13.183   1.090   0.259
32272SOL    HW198713  13.135   1.105   0.341
32272SOL    HW298714  13.178   0.996   0.245
32273SOL     OW98715  10.152   8.746   3.078
32273SOL    HW198716  10.138   8.759   3.172
32273SOL    HW298717  10.142   8.652   3.065
32274SOL     OW98718   3.493   2.404   0.586
32274SOL    HW198719   3.421   2.459   0.553
32274SOL    HW298720   3.557   2.404   0.515
32275SOL     OW98721   8.944   2.994   1.124
32275SOL    HW198722   8.885   3.003   1.050
32275SOL    HW298723   9.017   3.052   1.105
32276SOL     OW98724   1.035  10.923   5.382
32276SOL    HW198725   0.944  10.917   5.410
32276SOL    HW298726   1.070  10.835   5.394
32277SOL     OW98727  14.088   1.061   9.549
32277SOL    HW198728  14.102   1.115   9.627
32277SOL    HW298729  14.012   1.100   9.507
32278SOL     OW98730   5.627  11.908  10.246
32278SOL    HW198731   5.631  11.932  10.153
32278SOL    HW298732   5.580  11.825  10.247
32279SOL     OW98733   1.463  10.042   6.445
32279SOL    HW198734   1.465   9.951   6.417
32279SOL    HW298735   1.472  10.093   6.364
32280SOL     OW98736  10.892   9.991   4.368
32280SOL    HW198737  10.939   9.974   4.287
32280SOL    HW298738  10.959   9.991   4.436
32281SOL     OW98739  13.758   6.687   5.836
32281SOL    HW198740  13.835   6.708   5.888
32281SOL    HW298741  13.688   6.742   5.872
32282SOL     OW98742   7.683   6.637  14.701
32282SOL    HW198743   7.661   6.692  14.626
32282SOL    HW298744   7.599   6.619  14.744
32283SOL     OW98745   0.649   2.951   3.931
32283SOL    HW198746   0.563   2.917   3.956
32283SOL    HW298747   0.671   3.014   4.000
32284SOL     OW98748  14.387   6.076  14.319
32284SOL    HW198749  14.336   6.028  14.254
32284SOL    HW298750  14.451   6.013  14.351
32285SOL     OW98751   2.778  10.640   0.753
32285SOL    HW198752   2.780  10.732   0.780
32285SOL    HW298753   2.733  10.595   0.824
32286SOL     OW98754  12.747  13.015  14.130
32286SOL    HW198755  12.837  12.989  14.152
32286SOL    HW298756  12.757  13.087  14.068
32287SOL     OW98757  13.899   0.346   0.908
32287SOL    HW198758  13.901   0.282   0.979
32287SOL    HW298759  13.914   0.430   0.951
32288SOL     OW98760   8.050  14.043  13.980
32288SOL    HW198761   8.018  13.972  14.036
32288SOL    HW298762   7.993  14.117  13.999
32289SOL     OW98763  11.817  11.490   9.025
32289SOL    HW198764  11.796  11.405   8.987
32289SOL    HW298765  11.735  11.539   9.021
32290SOL     OW98766   5.510  12.040   2.718
32290SOL    HW198767   5.563  11.982   2.773
32290SOL    HW298768   5.572  12.103   2.682
32291SOL     OW98769  13.408   9.208   5.188
32291SOL    HW198770  13.493   9.244   5.212
32291SOL    HW298771  13.360   9.282   5.150
32292SOL     OW98772  13.987  14.118   3.725
32292SOL    HW198773  14.049  14.076   3.785
32292SOL    HW298774  13.991  14.065   3.646
32293SOL     OW98775   5.962   3.780   0.161
32293SOL    HW198776   5.925   3.820   0.082
32293SOL    HW298777   6.036   3.729   0.129
32294SOL     OW98778  10.283   5.890   9.673
32294SOL    HW198779  10.283   5.897   9.768
32294SOL    HW298780  10.325   5.805   9.655
32295SOL     OW98781   7.371   4.616   8.653
32295SOL    HW198782   7.432   4.621   8.726
32295SOL    HW298783   7.284   4.627   8.693
32296SOL     OW98784   6.258   4.158  12.361
32296SOL    HW198785   6.331   4.217  12.346
32296SOL    HW298786   6.180   4.211  12.346
32297SOL     OW98787   8.023   9.286  13.256
32297SOL    HW198788   7.988   9.235  13.329
32297SOL    HW298789   7.950   9.293  13.195
32298SOL     OW98790  11.864  13.711  14.778
32298SOL    HW198791  11.774  13.742  14.784
32298SOL    HW298792  11.903  13.731  14.863
32299SOL     OW98793   8.744  12.804   2.252
32299SOL    HW198794   8.839  12.816   2.263
32299SOL    HW298795   8.736  12.718   2.210
32300SOL     OW98796   0.078   7.496   6.494
32300SOL    HW198797   0.128   7.575   6.514
32300SOL    HW298798   0.088   7.485   6.399
32301SOL     OW98799   0.205  13.118   1.417
32301SOL    HW198800   0.228  13.209   1.435
32301SOL    HW298801   0.118  13.107   1.456
32302SOL     OW98802   7.250  11.634  13.667
32302SOL    HW198803   7.346  11.639  13.658
32302SOL    HW298804   7.234  11.543  13.694
32303SOL     OW98805  11.884  14.790   2.206
32303SOL    HW198806  11.945  14.722   2.236
32303SOL    HW298807  11.871  14.771   2.114
32304SOL     OW98808  13.904  14.474  11.826
32304SOL    HW198809  13.911  14.540  11.757
32304SOL    HW298810  13.963  14.404  11.798
32305SOL     OW98811   4.950  14.521   5.889
32305SOL    HW198812   4.958  14.617   5.884
32305SOL    HW298813   4.856  14.505   5.877
32306SOL     OW98814  12.791   7.333   4.464
32306SOL    HW198815  12.788   7.351   4.370
32306SOL    HW298816  12.704   7.356   4.496
32307SOL     OW98817   7.937   5.650   4.676
32307SOL    HW198818   7.893   5.716   4.730
32307SOL    HW298819   7.892   5.568   4.697
32308SOL     OW98820   2.426   9.854  13.155
32308SOL    HW198821   2.406   9.849  13.248
32308SOL    HW298822   2.483   9.779  13.138
32309SOL     OW98823   9.194   8.285   1.920
32309SOL    HW198824   9.136   8.235   1.977
32309SOL    HW298825   9.215   8.364   1.971
32310SOL     OW98826   2.131  12.545   4.140
32310SOL    HW198827   2.132  12.492   4.059
32310SOL    HW298828   2.068  12.615   4.122
32311SOL     OW98829   2.447   3.689  10.231
32311SOL    HW198830   2.510   3.757  10.253
32311SOL    HW298831   2.361   3.731  10.240
32312SOL     OW98832   7.167   5.096  14.590
32312SOL    HW198833   7.110   5.164  14.554
32312SOL    HW298834   7.255   5.128  14.573
32313SOL     OW98835   9.261   5.323   8.957
32313SOL    HW198836   9.223   5.318   9.045
32313SOL    HW298837   9.352   5.296   8.968
32314SOL     OW98838   3.772   8.773   8.975
32314SOL    HW198839   3.865   8.762   8.993
32314SOL    HW298840   3.756   8.722   8.895
32315SOL     OW98841   2.982   0.285   0.029
32315SOL    HW198842   2.992   0.236  14.817
32315SOL    HW298843   2.949   0.221   0.092
32316SOL     OW98844   7.593   7.421   4.284
32316SOL    HW198845   7.577   7.338   4.238
32316SOL    HW298846   7.688   7.421   4.301
32317SOL     OW98847   7.881   2.983   9.946
32317SOL    HW198848   7.853   2.891   9.945
32317SOL    HW298849   7.883   3.006  10.039
32318SOL     OW98850   6.264  13.888  13.420
32318SOL    HW198851   6.284  13.897  13.327
32318SOL    HW298852   6.341  13.923  13.465
32319SOL     OW98853   0.173   1.704  10.408
32319SOL    HW198854   0.212   1.658  10.483
32319SOL    HW298855   0.131   1.635  10.357
32320SOL     OW98856   5.691  14.552   1.507
32320SOL    HW198857   5.778  14.590   1.517
32320SOL    HW298858   5.644  14.580   1.586
32321SOL     OW98859  10.290   9.000  11.439
32321SOL    HW198860  10.215   8.952  11.404
32321SOL    HW298861  10.279   8.995  11.534
32322SOL     OW98862  13.881  10.496   4.959
32322SOL    HW198863  13.949  10.445   5.003
32322SOL    HW298864  13.810  10.434   4.944
32323SOL     OW98865  11.095  13.203   8.133
32323SOL    HW198866  11.166  13.255   8.171
32323SOL    HW298867  11.049  13.265   8.076
32324SOL     OW98868   8.746  10.268  13.438
32324SOL    HW198869   8.787  10.308  13.362
32324SOL    HW298870   8.758  10.332  13.509
32325SOL     OW98871   7.361   2.300   6.502
32325SOL    HW198872   7.295   2.286   6.569
32325SOL    HW298873   7.440   2.326   6.551
32326SOL     OW98874   6.657   8.185   4.878
32326SOL    HW198875   6.594   8.163   4.947
32326SOL    HW298876   6.632   8.130   4.804
32327SOL     OW98877   5.141   3.169  10.948
32327SOL    HW198878   5.059   3.207  10.979
32327SOL    HW298879   5.197   3.167  11.025
32328SOL     OW98880   4.583   3.259   1.775
32328SOL    HW198881   4.617   3.180   1.817
32328SOL    HW298882   4.630   3.330   1.817
32329SOL     OW98883   1.577   9.719   6.369
32329SOL    HW198884   1.574   9.730   6.464
32329SOL    HW298885   1.663   9.753   6.343
32330SOL     OW98886  13.494   7.065   3.201
32330SOL    HW198887  13.493   6.970   3.211
32330SOL    HW298888  13.546   7.080   3.121
32331SOL     OW98889  14.808   6.615   2.291
32331SOL    HW198890   0.033   6.627   2.303
32331SOL    HW298891  14.789   6.655   2.206
32332SOL     OW98892   7.769  13.177   5.971
32332SOL    HW198893   7.831  13.128   5.917
32332SOL    HW298894   7.774  13.267   5.937
32333SOL     OW98895   6.496   0.323   9.792
32333SOL    HW198896   6.561   0.390   9.814
32333SOL    HW298897   6.412   0.364   9.812
32334SOL     OW98898   6.937   0.804  11.335
32334SOL    HW198899   6.926   0.747  11.411
32334SOL    HW298900   7.007   0.762  11.284
32335SOL     OW98901  11.311   0.189   1.972
32335SOL    HW198902  11.320   0.196   1.877
32335SOL    HW298903  11.309   0.280   2.002
32336SOL     OW98904   1.295   0.388  12.970
32336SOL    HW198905   1.322   0.338  12.893
32336SOL    HW298906   1.262   0.470  12.935
32337SOL     OW98907   1.943   0.878  14.421
32337SOL    HW198908   1.870   0.825  14.453
32337SOL    HW298909   2.012   0.815  14.402
32338SOL     OW98910   6.772   7.897  11.717
32338SOL    HW198911   6.823   7.820  11.691
32338SOL    HW298912   6.794   7.912  11.808
32339SOL     OW98913   4.073  13.090  13.286
32339SOL    HW198914   4.155  13.042  13.295
32339SOL    HW298915   4.030  13.082  13.371
32340SOL     OW98916   0.757   4.108   1.477
32340SOL    HW198917   0.821   4.178   1.463
32340SOL    HW298918   0.709   4.102   1.394
32341SOL     OW98919   2.483   2.231   9.689
32341SOL    HW198920   2.574   2.250   9.668
32341SOL    HW298921   2.437   2.236   9.605
32342SOL     OW98922  13.843   7.886  10.393
32342SOL    HW198923  13.791   7.821  10.347
32342SOL    HW298924  13.823   7.969  10.349
32343SOL     OW98925   0.646   8.831  13.151
32343SOL    HW198926   0.661   8.769  13.080
32343SOL    HW298927   0.551   8.837  13.158
32344SOL     OW98928   0.125   6.055   9.941
32344SOL    HW198929   0.220   6.047   9.938
32344SOL    HW298930   0.110   6.144   9.974
32345SOL     OW98931   5.817   6.154  12.298
32345SOL    HW198932   5.866   6.086  12.345
32345SOL    HW298933   5.791   6.111  12.216
32346SOL     OW98934   8.807   2.588   0.735
32346SOL    HW198935   8.733   2.559   0.682
32346SOL    HW298936   8.814   2.682   0.717
32347SOL     OW98937  12.056   9.505   2.598
32347SOL    HW198938  12.131   9.447   2.610
32347SOL    HW298939  12.082   9.565   2.528
32348SOL     OW98940   3.308  14.261   2.447
32348SOL    HW198941   3.384  14.247   2.503
32348SOL    HW298942   3.321  14.200   2.374
32349SOL     OW98943   8.073  11.138   4.902
32349SOL    HW198944   8.124  11.058   4.898
32349SOL    HW298945   7.984  11.108   4.924
32350SOL     OW98946  14.363  13.031   0.011
32350SOL    HW198947  14.404  12.957  14.835
32350SOL    HW298948  14.270  13.020  14.865
32351SOL     OW98949   4.092   4.046   1.520
32351SOL    HW198950   4.092   4.017   1.611
32351SOL    HW298951   4.143   4.127   1.520
32352SOL     OW98952   2.957  13.080  13.187
32352SOL    HW198953   3.001  13.164  13.182
32352SOL    HW298954   2.907  13.074  13.106
32353SOL     OW98955   6.189  14.385   6.166
32353SOL    HW198956   6.104  14.342   6.177
32353SOL    HW298957   6.216  14.364   6.077
32354SOL     OW98958  11.454   8.419   1.092
32354SOL    HW198959  11.401   8.339   1.089
32354SOL    HW298960  11.542   8.388   1.113
32355SOL     OW98961   5.347   8.876   4.668
32355SOL    HW198962   5.350   8.785   4.638
32355SOL    HW298963   5.370   8.928   4.591
32356SOL     OW98964   2.378  11.395  12.901
32356SOL    HW198965   2.391  11.342  12.979
32356SOL    HW298966   2.300  11.358  12.860
32357SOL     OW98967   8.369   0.705   1.386
32357SOL    HW198968   8.417   0.657   1.319
32357SOL    HW298969   8.309   0.761   1.336
32358SOL     OW98970  12.588   5.362  14.362
32358SOL    HW198971  12.682   5.377  14.370
32358SOL    HW298972  12.574   5.341  14.270
32359SOL     OW98973  13.526   4.271   2.672
32359SOL    HW198974  13.452   4.229   2.629
32359SOL    HW298975  13.491   4.304   2.754
32360SOL     OW98976   1.945  12.427  12.890
32360SOL    HW198977   1.886  12.440  12.964
32360SOL    HW298978   1.986  12.513  12.877
32361SOL     OW98979   8.310   8.977   2.438
32361SOL    HW198980   8.402   8.958   2.453
32361SOL    HW298981   8.287   8.929   2.359
32362SOL     OW98982   8.402  13.840   3.918
32362SOL    HW198983   8.464  13.814   3.986
32362SOL    HW298984   8.316  13.823   3.957
32363SOL     OW98985  13.094   3.460  12.319
32363SOL    HW198986  13.147   3.517  12.264
32363SOL    HW298987  13.086   3.379  12.268
32364SOL     OW98988   6.162   0.566   8.213
32364SOL    HW198989   6.143   0.633   8.278
32364SOL    HW298990   6.178   0.487   8.264
32365SOL     OW98991   4.340  13.825   9.947
32365SOL    HW198992   4.299  13.758  10.002
32365SOL    HW298993   4.434  13.805   9.951
32366SOL     OW98994   0.415   9.347   1.857
32366SOL    HW198995   0.363   9.300   1.793
32366SOL    HW298996   0.356   9.414   1.892
32367SOL     OW98997   3.840   4.893  11.452
32367SOL    HW198998   3.820   4.820  11.393
32367SOL    HW298999   3.766   4.953  11.441
32368SOL     OW99000  13.963   3.632   0.092
32368SOL    HW199001  13.934   3.648   0.002
32368SOL    HW299002  14.031   3.565   0.084
32369SOL     OW99003   5.700  10.317  11.033
32369SOL    HW199004   5.684  10.240  10.979
32369SOL    HW299005   5.667  10.390  10.981
32370SOL     OW99006   6.237  10.369   7.247
32370SOL    HW199007   6.177  10.300   7.220
32370SOL    HW299008   6.210  10.392   7.335
32371SOL     OW99009  13.337   6.041   7.775
32371SOL    HW199010  13.420   6.079   7.748
32371SOL    HW299011  13.282   6.042   7.697
32372SOL     OW99012   4.015  14.055   6.209
32372SOL    HW199013   4.018  13.966   6.175
32372SOL    HW299014   4.106  14.078   6.225
32373SOL     OW99015   3.853   7.972  12.282
32373SOL    HW199016   3.808   7.892  12.308
32373SOL    HW299017   3.899   7.949  12.201
32374SOL     OW99018   5.523  12.938   2.560
32374SOL    HW199019   5.444  12.886   2.549
32374SOL    HW299020   5.516  12.975   2.649
32375SOL     OW99021   6.848   4.063   5.828
32375SOL    HW199022   6.768   4.038   5.781
32375SOL    HW299023   6.858   4.156   5.810
32376SOL     OW99024   1.009  13.847   1.660
32376SOL    HW199025   1.005  13.756   1.634
32376SOL    HW299026   1.008  13.896   1.578
32377SOL     OW99027  10.669   3.596  14.088
32377SOL    HW199028  10.627   3.672  14.048
32377SOL    HW299029  10.659   3.609  14.182
32378SOL     OW99030   5.386   1.417  14.557
32378SOL    HW199031   5.463   1.439  14.504
32378SOL    HW299032   5.417   1.420  14.648
32379SOL     OW99033   5.201  14.368   9.997
32379SOL    HW199034   5.297  14.370  10.005
32379SOL    HW299035   5.186  14.329   9.911
32380SOL     OW99036   1.855  14.835  10.910
32380SOL    HW199037   1.784  14.841  10.974
32380SOL    HW299038   1.935  14.848  10.962
32381SOL     OW99039   5.826   0.245   2.380
32381SOL    HW199040   5.917   0.273   2.391
32381SOL    HW299041   5.786   0.316   2.329
32382SOL     OW99042   3.208   1.138   2.907
32382SOL    HW199043   3.134   1.085   2.937
32382SOL    HW299044   3.279   1.076   2.894
32383SOL     OW99045  13.704   6.734   0.280
32383SOL    HW199046  13.731   6.648   0.248
32383SOL    HW299047  13.660   6.716   0.363
32384SOL     OW99048   0.472  11.841   8.534
32384SOL    HW199049   0.556  11.883   8.515
32384SOL    HW299050   0.409  11.892   8.484
32385SOL     OW99051  13.647  13.312   1.190
32385SOL    HW199052  13.730  13.266   1.204
32385SOL    HW299053  13.671  13.393   1.145
32386SOL     OW99054   5.587  12.223  10.787
32386SOL    HW199055   5.667  12.273  10.798
32386SOL    HW299056   5.567  12.230  10.694
32387SOL     OW99057  12.734   4.339   1.439
32387SOL    HW199058  12.786   4.416   1.462
32387SOL    HW299059  12.794   4.265   1.451
32388SOL     OW99060   3.896  14.690   2.832
32388SOL    HW199061   3.963  14.622   2.837
32388SOL    HW299062   3.840  14.664   2.758
32389SOL     OW99063  10.823  10.326   8.765
32389SOL    HW199064  10.869  10.404   8.735
32389SOL    HW299065  10.870  10.253   8.725
32390SOL     OW99066   5.795   9.829   8.062
32390SOL    HW199067   5.794   9.863   8.151
32390SOL    HW299068   5.780   9.735   8.072
32391SOL     OW99069   9.767  10.984  12.120
32391SOL    HW199070   9.801  10.929  12.190
32391SOL    HW299071   9.784  11.074  12.150
32392SOL     OW99072   6.746  10.393  13.174
32392SOL    HW199073   6.842  10.392  13.177
32392SOL    HW299074   6.722  10.300  13.172
32393SOL     OW99075   7.281   2.545  12.446
32393SOL    HW199076   7.302   2.620  12.391
32393SOL    HW299077   7.365   2.516  12.480
32394SOL     OW99078   6.415   6.500   7.965
32394SOL    HW199079   6.412   6.407   7.987
32394SOL    HW299080   6.501   6.529   7.995
32395SOL     OW99081  13.072   9.283   5.018
32395SOL    HW199082  13.150   9.334   5.042
32395SOL    HW299083  12.998   9.341   5.034
32396SOL     OW99084   0.921   6.758   7.792
32396SOL    HW199085   0.861   6.691   7.760
32396SOL    HW299086   0.880   6.841   7.767
32397SOL     OW99087   3.953   8.794  10.113
32397SOL    HW199088   3.964   8.716  10.169
32397SOL    HW299089   4.019   8.784  10.045
32398SOL     OW99090   8.423  14.647   1.304
32398SOL    HW199091   8.450  14.736   1.283
32398SOL    HW299092   8.348  14.658   1.362
32399SOL     OW99093   9.172  11.946   5.047
32399SOL    HW199094   9.142  11.857   5.065
32399SOL    HW299095   9.173  11.951   4.951
32400SOL     OW99096   5.478   4.726   5.770
32400SOL    HW199097   5.565   4.737   5.732
32400SOL    HW299098   5.426   4.798   5.735
32401SOL     OW99099   9.523   8.154  12.718
32401SOL    HW199100   9.562   8.077  12.759
32401SOL    HW299101   9.428   8.140  12.727
32402SOL     OW99102  10.534   2.367   9.277
32402SOL    HW199103  10.473   2.389   9.348
32402SOL    HW299104  10.620   2.368   9.318
32403SOL     OW99105   2.907  13.298  10.533
32403SOL    HW199106   2.990  13.334  10.502
32403SOL    HW299107   2.906  13.208  10.501
32404SOL     OW99108   5.077   8.660   0.155
32404SOL    HW199109   5.173   8.664   0.157
32404SOL    HW299110   5.058   8.592   0.091
32405SOL     OW99111  11.880   6.349  10.585
32405SOL    HW199112  11.893   6.393  10.669
32405SOL    HW299113  11.794   6.379  10.556
32406SOL     OW99114   9.036   6.359   7.626
32406SOL    HW199115   9.130   6.376   7.632
32406SOL    HW299116   9.016   6.364   7.533
32407SOL     OW99117  14.430  11.982  14.509
32407SOL    HW199118  14.372  12.025  14.445
32407SOL    HW299119  14.415  12.031  14.590
32408SOL     OW99120   1.190   5.060   4.297
32408SOL    HW199121   1.171   5.129   4.361
32408SOL    HW299122   1.216   4.984   4.350
32409SOL     OW99123   3.977   8.615   6.856
32409SOL    HW199124   4.059   8.598   6.903
32409SOL    HW299125   3.926   8.535   6.866
32410SOL     OW99126  10.341   9.242  11.132
32410SOL    HW199127  10.429   9.222  11.100
32410SOL    HW299128  10.294   9.272  11.055
32411SOL     OW99129   4.271   2.665   1.395
32411SOL    HW199130   4.197   2.707   1.440
32411SOL    HW299131   4.315   2.615   1.464
32412SOL     OW99132   5.565   4.090   6.194
32412SOL    HW199133   5.583   4.008   6.148
32412SOL    HW299134   5.649   4.116   6.232
32413SOL     OW99135  11.806  13.793   3.304
32413SOL    HW199136  11.718  13.829   3.291
32413SOL    HW299137  11.857  13.829   3.232
32414SOL     OW99138  10.169   8.254   6.822
32414SOL    HW199139  10.220   8.240   6.901
32414SOL    HW299140  10.227   8.304   6.764
32415SOL     OW99141   2.976   7.927   3.003
32415SOL    HW199142   3.012   8.004   2.959
32415SOL    HW299143   2.954   7.866   2.933
32416SOL     OW99144  13.621   2.580   9.134
32416SOL    HW199145  13.614   2.613   9.223
32416SOL    HW299146  13.712   2.554   9.124
32417SOL     OW99147   6.234   6.823  12.746
32417SOL    HW199148   6.217   6.731  12.723
32417SOL    HW299149   6.168   6.843  12.813
32418SOL     OW99150   3.841  14.818   9.700
32418SOL    HW199151   3.907  14.750   9.715
32418SOL    HW299152   3.774  14.775   9.647
32419SOL     OW99153  12.333  10.092  10.991
32419SOL    HW199154  12.282  10.169  11.016
32419SOL    HW299155  12.355  10.050  11.074
32420SOL     OW99156  13.441  10.001   1.770
32420SOL    HW199157  13.437   9.914   1.730
32420SOL    HW299158  13.535  10.017   1.782
32421SOL     OW99159  10.833   8.624   6.415
32421SOL    HW199160  10.900   8.568   6.376
32421SOL    HW299161  10.853   8.711   6.381
32422SOL     OW99162   4.014   1.084   1.269
32422SOL    HW199163   4.068   1.076   1.347
32422SOL    HW299164   4.004   0.994   1.237
32423SOL     OW99165  14.240   2.683  12.196
32423SOL    HW199166  14.162   2.628  12.200
32423SOL    HW299167  14.305   2.635  12.247
32424SOL     OW99168   4.196  12.277  14.621
32424SOL    HW199169   4.271  12.223  14.648
32424SOL    HW299170   4.120  12.232  14.658
32425SOL     OW99171   3.229  11.480   0.723
32425SOL    HW199172   3.168  11.517   0.787
32425SOL    HW299173   3.273  11.410   0.771
32426SOL     OW99174   9.266  13.442   4.763
32426SOL    HW199175   9.260  13.430   4.858
32426SOL    HW299176   9.182  13.480   4.738
32427SOL     OW99177   2.526   3.082  11.396
32427SOL    HW199178   2.464   3.011  11.408
32427SOL    HW299179   2.606   3.040  11.364
32428SOL     OW99180  11.026  10.779   2.372
32428SOL    HW199181  11.020  10.834   2.294
32428SOL    HW299182  11.117  10.787   2.401
32429SOL     OW99183   6.584   5.851  10.952
32429SOL    HW199184   6.558   5.930  11.000
32429SOL    HW299185   6.518   5.786  10.974
32430SOL     OW99186   2.962   4.305  14.261
32430SOL    HW199187   2.960   4.210  14.271
32430SOL    HW299188   3.049   4.331  14.291
32431SOL     OW99189   7.186   0.504   6.726
32431SOL    HW199190   7.121   0.471   6.788
32431SOL    HW299191   7.266   0.511   6.777
32432SOL     OW99192  12.235   2.850   7.579
32432SOL    HW199193  12.270   2.935   7.552
32432SOL    HW299194  12.270   2.788   7.514
32433SOL     OW99195  10.270   0.607  10.464
32433SOL    HW199196  10.363   0.588  10.448
32433SOL    HW299197  10.270   0.696  10.501
32434SOL     OW99198  12.872   4.405   5.113
32434SOL    HW199199  12.787   4.429   5.074
32434SOL    HW299200  12.893   4.321   5.072
32435SOL     OW99201   6.386  12.613  11.021
32435SOL    HW199202   6.478  12.621  10.999
32435SOL    HW299203   6.376  12.522  11.050
32436SOL     OW99204   2.704   6.136  12.971
32436SOL    HW199205   2.793   6.137  12.936
32436SOL    HW299206   2.702   6.206  13.036
32437SOL     OW99207  12.927   2.184   5.815
32437SOL    HW199208  12.835   2.189   5.789
32437SOL    HW299209  12.967   2.264   5.781
32438SOL     OW99210   4.210   7.384   0.474
32438SOL    HW199211   4.136   7.442   0.491
32438SOL    HW299212   4.192   7.348   0.387
32439SOL     OW99213   1.624   8.765   0.505
32439SOL    HW199214   1.685   8.708   0.552
32439SOL    HW299215   1.680   8.827   0.459
32440SOL     OW99216   7.943  11.667   6.899
32440SOL    HW199217   7.946  11.638   6.808
32440SOL    HW299218   7.879  11.738   6.900
32441SOL     OW99219   5.906   4.299   4.510
32441SOL    HW199220   5.980   4.312   4.450
32441SOL    HW299221   5.942   4.319   4.596
32442SOL     OW99222   9.027   7.903   8.704
32442SOL    HW199223   9.009   7.878   8.613
32442SOL    HW299224   9.114   7.942   8.701
32443SOL     OW99225  10.766   7.678   7.418
32443SOL    HW199226  10.725   7.749   7.469
32443SOL    HW299227  10.699   7.651   7.356
32444SOL     OW99228   5.833  12.858  10.692
32444SOL    HW199229   5.783  12.919  10.747
32444SOL    HW299230   5.767  12.812  10.641
32445SOL     OW99231   1.095   6.871   1.502
32445SOL    HW199232   1.041   6.949   1.515
32445SOL    HW299233   1.126   6.879   1.412
32446SOL     OW99234   7.767   8.957  13.136
32446SOL    HW199235   7.784   9.035  13.082
32446SOL    HW299236   7.721   8.991  13.213
32447SOL     OW99237   3.633   0.047   8.799
32447SOL    HW199238   3.554   0.009   8.839
32447SOL    HW299239   3.673  14.844   8.752
32448SOL     OW99240   4.391   0.022   6.023
32448SOL    HW199241   4.344   0.048   6.102
32448SOL    HW299242   4.386   0.098   5.965
32449SOL     OW99243   1.223   6.944  10.359
32449SOL    HW199244   1.169   6.886  10.306
32449SOL    HW299245   1.234   7.023  10.305
32450SOL     OW99246   9.841   8.379  10.976
32450SOL    HW199247   9.765   8.348  10.926
32450SOL    HW299248   9.886   8.300  11.004
32451SOL     OW99249   8.657   2.053   2.845
32451SOL    HW199250   8.633   2.143   2.825
32451SOL    HW299251   8.620   2.038   2.932
32452SOL     OW99252   9.794   2.689   3.558
32452SOL    HW199253   9.817   2.671   3.650
32452SOL    HW299254   9.830   2.776   3.541
32453SOL     OW99255  10.635   1.311   9.005
32453SOL    HW199256  10.556   1.272   8.968
32453SOL    HW299257  10.605   1.364   9.078
32454SOL     OW99258   6.199   0.596   9.980
32454SOL    HW199259   6.173   0.674   9.931
32454SOL    HW299260   6.235   0.630  10.062
32455SOL     OW99261  10.238  12.473  14.587
32455SOL    HW199262  10.242  12.395  14.643
32455SOL    HW299263  10.260  12.441  14.500
32456SOL     OW99264   9.933  14.237   6.595
32456SOL    HW199265   9.877  14.250   6.518
32456SOL    HW299266   9.941  14.325   6.633
32457SOL     OW99267   1.756   1.083   4.408
32457SOL    HW199268   1.838   1.079   4.457
32457SOL    HW299269   1.769   1.025   4.334
32458SOL     OW99270  14.563  14.160   2.316
32458SOL    HW199271  14.583  14.233   2.257
32458SOL    HW299272  14.613  14.086   2.280
32459SOL     OW99273   3.595  10.221   9.412
32459SOL    HW199274   3.577  10.182   9.498
32459SOL    HW299275   3.616  10.312   9.432
32460SOL     OW99276   5.755   8.841   9.349
32460SOL    HW199277   5.818   8.886   9.294
32460SOL    HW299278   5.691   8.803   9.288
32461SOL     OW99279   6.383  14.791  11.375
32461SOL    HW199280   6.302  14.809  11.423
32461SOL    HW299281   6.433  14.734  11.433
32462SOL     OW99282   9.980  12.534  12.239
32462SOL    HW199283   9.919  12.475  12.194
32462SOL    HW299284   9.927  12.609  12.263
32463SOL     OW99285   8.440   7.889   8.845
32463SOL    HW199286   8.446   7.982   8.826
32463SOL    HW299287   8.391   7.853   8.772
32464SOL     OW99288  13.256   9.839  13.313
32464SOL    HW199289  13.260   9.920  13.363
32464SOL    HW299290  13.173   9.844  13.265
32465SOL     OW99291  13.109  11.248   8.500
32465SOL    HW199292  13.099  11.310   8.428
32465SOL    HW299293  13.091  11.299   8.579
32466SOL     OW99294   1.479  14.698   4.394
32466SOL    HW199295   1.503  14.636   4.463
32466SOL    HW299296   1.409  14.751   4.432
32467SOL     OW99297   4.077   7.987   7.260
32467SOL    HW199298   4.124   8.060   7.220
32467SOL    HW299299   3.999   7.976   7.206
32468SOL     OW99300   8.608  11.445  13.086
32468SOL    HW199301   8.618  11.533  13.050
32468SOL    HW299302   8.532  11.451  13.144
32469SOL     OW99303   8.881  11.897   1.345
32469SOL    HW199304   8.947  11.955   1.308
32469SOL    HW299305   8.807  11.903   1.285
32470SOL     OW99306   5.643   8.832   1.144
32470SOL    HW199307   5.622   8.778   1.219
32470SOL    HW299308   5.618   8.921   1.170
32471SOL     OW99309  10.968   8.927  13.770
32471SOL    HW199310  10.893   8.890  13.817
32471SOL    HW299311  11.044   8.902  13.822
32472SOL     OW99312  13.604  10.087  12.818
32472SOL    HW199313  13.671  10.103  12.751
32472SOL    HW299314  13.620   9.998  12.847
32473SOL     OW99315   2.186  13.599   5.365
32473SOL    HW199316   2.203  13.578   5.273
32473SOL    HW299317   2.094  13.576   5.378
32474SOL     OW99318   6.165   2.363  14.165
32474SOL    HW199319   6.079   2.395  14.194
32474SOL    HW299320   6.197   2.312  14.239
32475SOL     OW99321  12.384  12.786   8.532
32475SOL    HW199322  12.438  12.716   8.496
32475SOL    HW299323  12.442  12.862   8.535
32476SOL     OW99324   0.652   5.885   1.519
32476SOL    HW199325   0.611   5.870   1.604
32476SOL    HW299326   0.713   5.812   1.508
32477SOL     OW99327   8.565  14.712  12.964
32477SOL    HW199328   8.516  14.630  12.972
32477SOL    HW299329   8.655  14.684  12.951
32478SOL     OW99330   4.483  10.345   0.215
32478SOL    HW199331   4.495  10.438   0.234
32478SOL    HW299332   4.570  10.307   0.226
32479SOL     OW99333  12.968   0.048   9.702
32479SOL    HW199334  12.895   0.097   9.741
32479SOL    HW299335  13.012   0.007   9.777
32480SOL     OW99336  14.396  11.006   9.581
32480SOL    HW199337  14.455  11.074   9.611
32480SOL    HW299338  14.360  11.040   9.499
32481SOL     OW99339   9.618   8.449   7.990
32481SOL    HW199340   9.541   8.408   8.030
32481SOL    HW299341   9.617   8.418   7.900
32482SOL     OW99342   3.730   0.342   6.636
32482SOL    HW199343   3.688   0.425   6.660
32482SOL    HW299344   3.776   0.315   6.715
32483SOL     OW99345   4.186   5.423   6.779
32483SOL    HW199346   4.114   5.414   6.841
32483SOL    HW299347   4.263   5.437   6.833
32484SOL     OW99348   5.570   9.782  12.489
32484SOL    HW199349   5.565   9.827  12.405
32484SOL    HW299350   5.651   9.814  12.529
32485SOL     OW99351   6.037  11.022   1.655
32485SOL    HW199352   6.111  11.068   1.696
32485SOL    HW299353   6.009  10.960   1.722
32486SOL     OW99354   5.894   6.444   4.577
32486SOL    HW199355   5.865   6.389   4.650
32486SOL    HW299356   5.904   6.383   4.504
32487SOL     OW99357  13.810   5.963   6.540
32487SOL    HW199358  13.837   5.984   6.450
32487SOL    HW299359  13.793   6.049   6.580
32488SOL     OW99360   6.612  13.727   6.880
32488SOL    HW199361   6.569  13.752   6.799
32488SOL    HW299362   6.543  13.690   6.935
32489SOL     OW99363   9.774   4.328   3.287
32489SOL    HW199364   9.693   4.278   3.283
32489SOL    HW299365   9.786   4.363   3.199
32490SOL     OW99366   5.176  10.838   6.445
32490SOL    HW199367   5.223  10.754   6.444
32490SOL    HW299368   5.234  10.897   6.493
32491SOL     OW99369  11.002  10.109   1.402
32491SOL    HW199370  10.912  10.131   1.425
32491SOL    HW299371  11.005  10.116   1.307
32492SOL     OW99372   6.899   2.654  10.864
32492SOL    HW199373   6.895   2.598  10.941
32492SOL    HW299374   6.808   2.661  10.835
32493SOL     OW99375   5.991   4.306   5.863
32493SOL    HW199376   5.933   4.308   5.787
32493SOL    HW299377   5.972   4.387   5.910
32494SOL     OW99378   6.169   5.502   1.301
32494SOL    HW199379   6.121   5.427   1.337
32494SOL    HW299380   6.143   5.576   1.356
32495SOL     OW99381   3.328   4.139  12.728
32495SOL    HW199382   3.260   4.183  12.779
32495SOL    HW299383   3.354   4.064  12.782
32496SOL     OW99384  12.540   3.475   2.113
32496SOL    HW199385  12.489   3.534   2.169
32496SOL    HW299386  12.630   3.486   2.143
32497SOL     OW99387   2.117   0.765  10.206
32497SOL    HW199388   2.046   0.720  10.161
32497SOL    HW299389   2.196   0.717  10.180
32498SOL     OW99390   0.499  13.439   3.591
32498SOL    HW199391   0.594  13.431   3.583
32498SOL    HW299392   0.464  13.381   3.523
32499SOL     OW99393   7.526   6.254  10.283
32499SOL    HW199394   7.522   6.219  10.194
32499SOL    HW299395   7.517   6.348  10.272
32500SOL     OW99396  12.097   1.105   4.934
32500SOL    HW199397  12.107   1.081   5.026
32500SOL    HW299398  12.157   1.178   4.922
32501SOL     OW99399   8.925  11.556   8.107
32501SOL    HW199400   8.885  11.473   8.132
32501SOL    HW299401   8.892  11.573   8.019
32502SOL     OW99402  12.960  12.126   4.089
32502SOL    HW199403  12.894  12.078   4.039
32502SOL    HW299404  13.044  12.099   4.050
32503SOL     OW99405   7.830  11.236   8.786
32503SOL    HW199406   7.762  11.282   8.735
32503SOL    HW299407   7.841  11.289   8.864
32504SOL     OW99408  11.429   5.582  14.039
32504SOL    HW199409  11.491   5.509  14.046
32504SOL    HW299410  11.436   5.627  14.123
32505SOL     OW99411   9.033   5.848   4.003
32505SOL    HW199412   8.939   5.831   4.006
32505SOL    HW299413   9.042   5.935   4.044
32506SOL     OW99414  14.653   5.141   7.458
32506SOL    HW199415  14.627   5.102   7.374
32506SOL    HW299416  14.687   5.228   7.434
32507SOL     OW99417  12.689   7.417   3.525
32507SOL    HW199418  12.656   7.384   3.609
32507SOL    HW299419  12.775   7.376   3.516
32508SOL     OW99420  13.056   5.940  14.319
32508SOL    HW199421  13.085   5.998  14.248
32508SOL    HW299422  13.032   5.859  14.275
32509SOL     OW99423   3.656   6.594   5.658
32509SOL    HW199424   3.577   6.542   5.646
32509SOL    HW299425   3.677   6.587   5.751
32510SOL     OW99426   8.028   8.397   4.367
32510SOL    HW199427   7.986   8.465   4.314
32510SOL    HW299428   7.967   8.381   4.438
32511SOL     OW99429   7.859  14.144  13.153
32511SOL    HW199430   7.925  14.121  13.218
32511SOL    HW299431   7.778  14.154  13.203
32512SOL     OW99432  11.248   3.785   2.712
32512SOL    HW199433  11.289   3.735   2.783
32512SOL    HW299434  11.318   3.795   2.647
32513SOL     OW99435   6.914  11.312   6.851
32513SOL    HW199436   6.893  11.265   6.932
32513SOL    HW299437   6.990  11.366   6.874
32514SOL     OW99438  12.073  14.678  10.680
32514SOL    HW199439  12.109  14.608  10.625
32514SOL    HW299440  12.085  14.758  10.628
32515SOL     OW99441   5.367   4.669   8.227
32515SOL    HW199442   5.424   4.638   8.297
32515SOL    HW299443   5.366   4.597   8.164
32516SOL     OW99444  12.974  11.292  10.675
32516SOL    HW199445  13.054  11.266  10.628
32516SOL    HW299446  12.990  11.264  10.766
32517SOL     OW99447   1.282  10.847  13.539
32517SOL    HW199448   1.230  10.838  13.459
32517SOL    HW299449   1.359  10.897  13.512
32518SOL     OW99450   6.821  11.897   2.204
32518SOL    HW199451   6.736  11.917   2.165
32518SOL    HW299452   6.868  11.980   2.205
32519SOL     OW99453  11.078   3.335  11.159
32519SOL    HW199454  11.164   3.376  11.147
32519SOL    HW299455  11.029   3.357  11.080
32520SOL     OW99456   9.238   8.801   8.388
32520SOL    HW199457   9.316   8.827   8.340
32520SOL    HW299458   9.262   8.812   8.481
32521SOL     OW99459   0.110  12.799   0.010
32521SOL    HW199460   0.073  12.850  14.808
32521SOL    HW299461   0.076  12.710  14.866
32522SOL     OW99462   3.595   4.187  13.083
32522SOL    HW199463   3.677   4.212  13.040
32522SOL    HW299464   3.559   4.270  13.116
32523SOL     OW99465  12.048   4.331  10.495
32523SOL    HW199466  12.102   4.333  10.575
32523SOL    HW299467  12.025   4.423  10.480
32524SOL     OW99468   5.271   5.978   4.087
32524SOL    HW199469   5.268   6.016   3.999
32524SOL    HW299470   5.279   5.884   4.072
32525SOL     OW99471  10.444   4.106   1.556
32525SOL    HW199472  10.531   4.086   1.521
32525SOL    HW299473  10.383   4.073   1.490
32526SOL     OW99474   1.510   3.498  12.789
32526SOL    HW199475   1.491   3.507  12.882
32526SOL    HW299476   1.566   3.420  12.784
32527SOL     OW99477   8.251   2.801   0.946
32527SOL    HW199478   8.250   2.711   0.914
32527SOL    HW299479   8.336   2.836   0.919
32528SOL     OW99480   9.024  13.354  13.213
32528SOL    HW199481   9.114  13.365  13.182
32528SOL    HW299482   9.032  13.303  13.294
32529SOL     OW99483   9.392   8.389  10.995
32529SOL    HW199484   9.405   8.467  11.049
32529SOL    HW299485   9.480   8.359  10.974
32530SOL     OW99486  12.784   4.312   2.292
32530SOL    HW199487  12.767   4.369   2.217
32530SOL    HW299488  12.874   4.332   2.318
32531SOL     OW99489   7.840   9.622   4.650
32531SOL    HW199490   7.873   9.548   4.700
32531SOL    HW299491   7.802   9.582   4.571
32532SOL     OW99492  10.232  11.435  10.328
32532SOL    HW199493  10.325  11.446  10.347
32532SOL    HW299494  10.198  11.383  10.401
32533SOL     OW99495   2.553  10.892  13.290
32533SOL    HW199496   2.561  10.858  13.201
32533SOL    HW299497   2.644  10.901  13.320
32534SOL     OW99498   7.866   3.728   0.839
32534SOL    HW199499   7.861   3.776   0.756
32534SOL    HW299500   7.897   3.641   0.815
32535SOL     OW99501   1.962   0.742   5.054
32535SOL    HW199502   1.974   0.825   5.100
32535SOL    HW299503   1.893   0.759   4.990
32536SOL     OW99504  13.128  10.323   7.041
32536SOL    HW199505  13.055  10.281   6.995
32536SOL    HW299506  13.086  10.381   7.104
32537SOL     OW99507   6.486   2.071   1.114
32537SOL    HW199508   6.428   2.057   1.189
32537SOL    HW299509   6.460   2.156   1.078
32538SOL     OW99510   4.462   1.431   5.020
32538SOL    HW199511   4.450   1.368   5.091
32538SOL    HW299512   4.401   1.502   5.041
32539SOL     OW99513   6.818  13.572   1.200
32539SOL    HW199514   6.783  13.619   1.275
32539SOL    HW299515   6.878  13.634   1.158
32540SOL     OW99516  12.772  10.650  11.180
32540SOL    HW199517  12.707  10.608  11.124
32540SOL    HW299518  12.856  10.627  11.140
32541SOL     OW99519  11.944   4.071  11.263
32541SOL    HW199520  11.928   4.165  11.248
32541SOL    HW299521  12.037   4.060  11.244
32542SOL     OW99522  10.749   9.522  13.806
32542SOL    HW199523  10.814   9.498  13.871
32542SOL    HW299524  10.734   9.442  13.756
32543SOL     OW99525   3.402  13.822   6.685
32543SOL    HW199526   3.356  13.740   6.702
32543SOL    HW299527   3.452  13.806   6.606
32544SOL     OW99528   0.241   3.886   3.823
32544SOL    HW199529   0.203   3.954   3.878
32544SOL    HW299530   0.248   3.810   3.880
32545SOL     OW99531   9.402   9.406   3.851
32545SOL    HW199532   9.462   9.386   3.923
32545SOL    HW299533   9.460   9.436   3.780
32546SOL     OW99534   4.374   0.373   5.510
32546SOL    HW199535   4.404   0.315   5.440
32546SOL    HW299536   4.353   0.455   5.466
32547SOL     OW99537  13.999  10.785  13.248
32547SOL    HW199538  14.026  10.859  13.303
32547SOL    HW299539  13.904  10.793  13.241
32548SOL     OW99540  11.282  11.120  12.688
32548SOL    HW199541  11.245  11.173  12.759
32548SOL    HW299542  11.217  11.127  12.617
32549SOL     OW99543   1.885   1.248   3.886
32549SOL    HW199544   1.978   1.231   3.870
32549SOL    HW299545   1.854   1.170   3.932
32550SOL     OW99546  11.263  13.327  14.458
32550SOL    HW199547  11.246  13.279  14.539
32550SOL    HW299548  11.209  13.284  14.392
32551SOL     OW99549   9.001   3.424   9.684
32551SOL    HW199550   8.954   3.381   9.755
32551SOL    HW299551   9.078   3.369   9.669
32552SOL     OW99552  10.006  11.987  12.787
32552SOL    HW199553   9.951  12.062  12.810
32552SOL    HW299554  10.012  11.991  12.691
32553SOL     OW99555   3.927   7.722  10.184
32553SOL    HW199556   3.966   7.754  10.103
32553SOL    HW299557   3.834   7.714  10.163
32554SOL     OW99558   5.122   5.766  12.061
32554SOL    HW199559   5.194   5.730  12.009
32554SOL    HW299560   5.151   5.758  12.152
32555SOL     OW99561   9.476   2.498  14.151
32555SOL    HW199562   9.527   2.579  14.152
32555SOL    HW299563   9.411   2.510  14.220
32556SOL     OW99564  10.981   4.322   3.591
32556SOL    HW199565  10.985   4.275   3.674
32556SOL    HW299566  11.049   4.281   3.537
32557SOL     OW99567   8.556  11.368   8.633
32557SOL    HW199568   8.557  11.452   8.588
32557SOL    HW299569   8.531  11.389   8.723
32558SOL     OW99570  10.820   0.599  14.175
32558SOL    HW199571  10.830   0.690  14.148
32558SOL    HW299572  10.737   0.571  14.135
32559SOL     OW99573  13.106   4.574   8.808
32559SOL    HW199574  13.102   4.540   8.719
32559SOL    HW299575  13.186   4.627   8.811
32560SOL     OW99576   3.872   0.372   9.557
32560SOL    HW199577   3.813   0.313   9.604
32560SOL    HW299578   3.959   0.332   9.565
32561SOL     OW99579   2.323   5.675   1.138
32561SOL    HW199580   2.269   5.752   1.118
32561SOL    HW299581   2.375   5.702   1.214
32562SOL     OW99582   3.803   0.632   2.412
32562SOL    HW199583   3.839   0.715   2.381
32562SOL    HW299584   3.779   0.649   2.503
32563SOL     OW99585   5.095   7.127   2.340
32563SOL    HW199586   5.144   7.106   2.261
32563SOL    HW299587   5.127   7.064   2.405
32564SOL     OW99588   2.099   2.073  10.562
32564SOL    HW199589   2.081   2.114  10.647
32564SOL    HW299590   2.068   2.138  10.498
32565SOL     OW99591  13.017  13.759   3.763
32565SOL    HW199592  13.009  13.699   3.837
32565SOL    HW299593  13.110  13.782   3.760
32566SOL     OW99594  11.635   2.123   9.146
32566SOL    HW199595  11.625   2.204   9.197
32566SOL    HW299596  11.625   2.150   9.055
32567SOL     OW99597   8.811  14.815   6.084
32567SOL    HW199598   8.826   0.027   6.037
32567SOL    HW299599   8.786  14.842   6.173
32568SOL     OW99600  13.102  14.435  11.362
32568SOL    HW199601  13.044  14.434  11.439
32568SOL    HW299602  13.190  14.441  11.399
32569SOL     OW99603   2.867   3.098  13.109
32569SOL    HW199604   2.875   3.194  13.105
32569SOL    HW299605   2.880   3.070  13.018
32570SOL     OW99606  11.705  14.481   8.281
32570SOL    HW199607  11.726  14.408   8.223
32570SOL    HW299608  11.745  14.457   8.365
32571SOL     OW99609   5.598  14.376  13.021
32571SOL    HW199610   5.606  14.434  12.946
32571SOL    HW299611   5.519  14.406  13.067
32572SOL     OW99612  14.249  13.415   2.048
32572SOL    HW199613  14.298  13.344   2.089
32572SOL    HW299614  14.290  13.427   1.962
32573SOL     OW99615  14.378   4.409   8.073
32573SOL    HW199616  14.469   4.428   8.095
32573SOL    HW299617  14.381   4.373   7.985
32574SOL     OW99618   3.104   6.433   9.369
32574SOL    HW199619   3.123   6.339   9.369
32574SOL    HW299620   3.172   6.470   9.425
32575SOL     OW99621   0.457   6.826  13.187
32575SOL    HW199622   0.375   6.780  13.173
32575SOL    HW299623   0.514   6.795  13.116
32576SOL     OW99624  14.367  12.664   4.696
32576SOL    HW199625  14.459  12.691   4.697
32576SOL    HW299626  14.355  12.624   4.611
32577SOL     OW99627   2.278   5.678   0.134
32577SOL    HW199628   2.369   5.647   0.136
32577SOL    HW299629   2.233   5.625   0.199
32578SOL     OW99630   2.084   7.713   0.709
32578SOL    HW199631   2.143   7.729   0.783
32578SOL    HW299632   2.091   7.792   0.655
32579SOL     OW99633   5.188   8.083   3.246
32579SOL    HW199634   5.144   8.128   3.174
32579SOL    HW299635   5.270   8.132   3.257
32580SOL     OW99636  11.255   0.539   4.507
32580SOL    HW199637  11.325   0.541   4.442
32580SOL    HW299638  11.302   0.541   4.591
32581SOL     OW99639   0.095  12.350   2.850
32581SOL    HW199640  14.870  12.348   2.860
32581SOL    HW299641   0.110  12.330   2.758
32582SOL     OW99642   8.338  14.771  14.073
32582SOL    HW199643   8.402  14.716  14.029
32582SOL    HW299644   8.257  14.720  14.072
32583SOL     OW99645   3.618   6.446  13.256
32583SOL    HW199646   3.594   6.483  13.171
32583SOL    HW299647   3.713   6.447  13.257
32584SOL     OW99648   5.080  12.032  14.800
32584SOL    HW199649   5.096  12.107  14.857
32584SOL    HW299650   5.119  11.957  14.846
32585SOL     OW99651   4.545   5.410   0.518
32585SOL    HW199652   4.511   5.328   0.552
32585SOL    HW299653   4.618   5.432   0.575
32586SOL     OW99654   2.392  13.957   6.314
32586SOL    HW199655   2.409  14.001   6.397
32586SOL    HW299656   2.354  14.025   6.258
32587SOL     OW99657   7.421   1.298   2.758
32587SOL    HW199658   7.406   1.386   2.724
32587SOL    HW299659   7.482   1.310   2.831
32588SOL     OW99660   4.180   3.943  14.480
32588SOL    HW199661   4.099   3.932  14.430
32588SOL    HW299662   4.157   3.914  14.568
32589SOL     OW99663   9.307  13.275  11.396
32589SOL    HW199664   9.386  13.223  11.383
32589SOL    HW299665   9.311  13.343  11.329
32590SOL     OW99666   0.265   8.564   1.644
32590SOL    HW199667   0.223   8.545   1.728
32590SOL    HW299668   0.233   8.651   1.621
32591SOL     OW99669   1.989   0.338  14.248
32591SOL    HW199670   1.895   0.340  14.268
32591SOL    HW299671   2.028   0.291  14.322
32592SOL     OW99672  13.184   3.936   9.690
32592SOL    HW199673  13.186   3.845   9.660
32592SOL    HW299674  13.117   3.978   9.636
32593SOL     OW99675   2.878  12.797   2.216
32593SOL    HW199676   2.791  12.795   2.255
32593SOL    HW299677   2.899  12.890   2.207
32594SOL     OW99678   9.349  13.697   2.699
32594SOL    HW199679   9.325  13.734   2.614
32594SOL    HW299680   9.287  13.737   2.761
32595SOL     OW99681   2.322   4.885   6.004
32595SOL    HW199682   2.369   4.809   6.038
32595SOL    HW299683   2.308   4.942   6.080
32596SOL     OW99684   9.443   0.178   1.797
32596SOL    HW199685   9.516   0.132   1.838
32596SOL    HW299686   9.484   0.231   1.728
32597SOL     OW99687   8.894   2.431   2.139
32597SOL    HW199688   8.966   2.418   2.201
32597SOL    HW299689   8.902   2.522   2.111
32598SOL     OW99690   5.609  14.306   4.996
32598SOL    HW199691   5.608  14.268   5.084
32598SOL    HW299692   5.692  14.353   4.991
32599SOL     OW99693  12.325   2.729   9.349
32599SOL    HW199694  12.271   2.773   9.415
32599SOL    HW299695  12.408   2.712   9.393
32600SOL     OW99696   8.562   1.785   8.468
32600SOL    HW199697   8.483   1.735   8.487
32600SOL    HW299698   8.619   1.724   8.422
32601SOL     OW99699   3.306   1.097   2.118
32601SOL    HW199700   3.351   1.013   2.115
32601SOL    HW299701   3.345   1.149   2.048
32602SOL     OW99702   0.885   6.647   2.095
32602SOL    HW199703   0.954   6.712   2.108
32602SOL    HW299704   0.932   6.569   2.065
32603SOL     OW99705   6.013   5.859  11.702
32603SOL    HW199706   6.107   5.844  11.713
32603SOL    HW299707   5.986   5.795  11.637
32604SOL     OW99708   7.350  13.203   9.941
32604SOL    HW199709   7.294  13.158  10.004
32604SOL    HW299710   7.439  13.189   9.973
32605SOL     OW99711  12.739  12.713  10.208
32605SOL    HW199712  12.810  12.724  10.272
32605SOL    HW299713  12.664  12.755  10.248
32606SOL     OW99714   8.727   2.531   8.803
32606SOL    HW199715   8.695   2.482   8.879
32606SOL    HW299716   8.752   2.616   8.837
32607SOL     OW99717  11.796   9.260  14.300
32607SOL    HW199718  11.726   9.300  14.351
32607SOL    HW299719  11.836   9.333  14.253
32608SOL     OW99720   1.000   8.280  14.143
32608SOL    HW199721   0.912   8.306  14.113
32608SOL    HW299722   1.045   8.252  14.064
32609SOL     OW99723  13.225  12.058   1.678
32609SOL    HW199724  13.188  12.013   1.602
32609SOL    HW299725  13.156  12.051   1.745
32610SOL     OW99726  11.212   5.409   6.772
32610SOL    HW199727  11.125   5.442   6.751
32610SOL    HW299728  11.251   5.477   6.827
32611SOL     OW99729   9.390   8.318   4.666
32611SOL    HW199730   9.482   8.342   4.654
32611SOL    HW299731   9.363   8.365   4.744
32612SOL     OW99732  14.346   2.774   9.032
32612SOL    HW199733  14.354   2.755   9.126
32612SOL    HW299734  14.432   2.750   8.996
32613SOL     OW99735   2.387   7.541  11.970
32613SOL    HW199736   2.479   7.525  11.992
32613SOL    HW299737   2.338   7.508  12.045
32614SOL     OW99738  11.339   6.736   4.401
32614SOL    HW199739  11.314   6.760   4.311
32614SOL    HW299740  11.356   6.820   4.443
32615SOL     OW99741   3.627  12.666   6.263
32615SOL    HW199742   3.693  12.599   6.277
32615SOL    HW299743   3.597  12.690   6.351
32616SOL     OW99744   6.881   6.583   1.168
32616SOL    HW199745   6.797   6.583   1.123
32616SOL    HW299746   6.889   6.495   1.203
32617SOL     OW99747   5.515  12.056   0.331
32617SOL    HW199748   5.564  12.021   0.256
32617SOL    HW299749   5.458  12.123   0.293
32618SOL     OW99750   7.611   8.943   7.526
32618SOL    HW199751   7.648   8.991   7.601
32618SOL    HW299752   7.667   8.865   7.518
32619SOL     OW99753  14.724   6.693   1.582
32619SOL    HW199754  14.677   6.611   1.567
32619SOL    HW299755  14.749   6.723   1.494
32620SOL     OW99756  14.856   6.101  14.406
32620SOL    HW199757  14.786   6.159  14.436
32620SOL    HW299758  14.844   6.021  14.456
32621SOL     OW99759  12.772   3.532   4.942
32621SOL    HW199760  12.739   3.483   5.018
32621SOL    HW299761  12.852   3.486   4.917
32622SOL     OW99762   7.309  10.468   2.409
32622SOL    HW199763   7.220  10.490   2.381
32622SOL    HW299764   7.361  10.546   2.389
32623SOL     OW99765   4.745   6.851   5.730
32623SOL    HW199766   4.669   6.881   5.680
32623SOL    HW299767   4.793   6.795   5.669
32624SOL     OW99768  11.241   0.071  13.781
32624SOL    HW199769  11.295   0.140  13.743
32624SOL    HW299770  11.235   0.094  13.874
32625SOL     OW99771   0.266   5.043  12.384
32625SOL    HW199772   0.260   5.055  12.479
32625SOL    HW299773   0.344   5.092  12.359
32626SOL     OW99774   5.600   3.764   3.766
32626SOL    HW199775   5.562   3.741   3.681
32626SOL    HW299776   5.657   3.839   3.747
32627SOL     OW99777   6.096  13.900   1.525
32627SOL    HW199778   6.001  13.896   1.538
32627SOL    HW299779   6.133  13.880   1.610
32628SOL     OW99780   3.842  12.132   4.009
32628SOL    HW199781   3.910  12.128   4.076
32628SOL    HW299782   3.760  12.130   4.059
32629SOL     OW99783   6.194   0.499   0.995
32629SOL    HW199784   6.108   0.501   0.952
32629SOL    HW299785   6.251   0.550   0.937
32630SOL     OW99786   0.159   4.135   2.840
32630SOL    HW199787   0.171   4.095   2.754
32630SOL    HW299788   0.238   4.188   2.853
32631SOL     OW99789   5.413  13.818  12.714
32631SOL    HW199790   5.363  13.899  12.706
32631SOL    HW299791   5.474  13.834  12.786
32632SOL     OW99792  11.931   0.622   4.818
32632SOL    HW199793  11.915   0.684   4.889
32632SOL    HW299794  11.953   0.678   4.743
32633SOL     OW99795   1.557   5.766  12.593
32633SOL    HW199796   1.485   5.735  12.539
32633SOL    HW299797   1.603   5.828  12.537
32634SOL     OW99798  14.162   0.982   4.930
32634SOL    HW199799  14.150   0.952   4.840
32634SOL    HW299800  14.077   1.016   4.956
32635SOL     OW99801   3.582   6.006   4.641
32635SOL    HW199802   3.500   6.050   4.622
32635SOL    HW299803   3.605   5.960   4.560
32636SOL     OW99804   6.160  11.973   8.376
32636SOL    HW199805   6.126  11.916   8.445
32636SOL    HW299806   6.093  12.041   8.367
32637SOL     OW99807  11.847   5.271   9.336
32637SOL    HW199808  11.756   5.293   9.321
32637SOL    HW299809  11.850   5.243   9.428
32638SOL     OW99810   3.328   7.890   0.446
32638SOL    HW199811   3.384   7.944   0.390
32638SOL    HW299812   3.268   7.953   0.487
32639SOL     OW99813   9.093  13.495   2.746
32639SOL    HW199814   9.072  13.482   2.839
32639SOL    HW299815   9.077  13.589   2.731
32640SOL     OW99816  10.655   1.150   4.010
32640SOL    HW199817  10.581   1.098   4.041
32640SOL    HW299818  10.680   1.203   4.085
32641SOL     OW99819   9.900  14.461  12.837
32641SOL    HW199820   9.824  14.403  12.844
32641SOL    HW299821   9.864  14.549  12.847
32642SOL     OW99822   5.320   2.571  13.438
32642SOL    HW199823   5.244   2.552  13.384
32642SOL    HW299824   5.381   2.500  13.420
32643SOL     OW99825   1.880  11.435   0.600
32643SOL    HW199826   1.954  11.383   0.569
32643SOL    HW299827   1.896  11.522   0.564
32644SOL     OW99828  10.640  14.535  10.143
32644SOL    HW199829  10.582  14.467  10.177
32644SOL    HW299830  10.715  14.488  10.107
32645SOL     OW99831   4.502   3.754   1.388
32645SOL    HW199832   4.416   3.720   1.411
32645SOL    HW299833   4.498   3.847   1.410
32646SOL     OW99834   5.839   1.204  10.539
32646SOL    HW199835   5.794   1.144  10.479
32646SOL    HW299836   5.873   1.147  10.608
32647SOL     OW99837   0.828   7.911   0.136
32647SOL    HW199838   0.768   7.928   0.064
32647SOL    HW299839   0.816   7.818   0.156
32648SOL     OW99840  10.865  11.620  14.070
32648SOL    HW199841  10.850  11.543  14.125
32648SOL    HW299842  10.907  11.585  13.991
32649SOL     OW99843   8.977  13.124  10.563
32649SOL    HW199844   8.953  13.037  10.595
32649SOL    HW299845   9.072  13.119  10.551
32650SOL     OW99846  14.288   3.582   0.548
32650SOL    HW199847  14.218   3.540   0.497
32650SOL    HW299848  14.287   3.536   0.632
32651SOL     OW99849  12.811   7.131   5.755
32651SOL    HW199850  12.812   7.169   5.843
32651SOL    HW299851  12.731   7.077   5.753
32652SOL     OW99852  14.845   6.293   3.453
32652SOL    HW199853  14.826   6.202   3.432
32652SOL    HW299854   0.068   6.293   3.478
32653SOL     OW99855  14.836   9.536   5.744
32653SOL    HW199856  14.757   9.579   5.776
32653SOL    HW299857   0.038   9.586   5.782
32654SOL     OW99858   2.769  10.056  13.419
32654SOL    HW199859   2.676  10.054  13.398
32654SOL    HW299860   2.798  10.142  13.392
32655SOL     OW99861   5.148   3.595   7.004
32655SOL    HW199862   5.119   3.608   6.914
32655SOL    HW299863   5.080   3.637   7.057
32656SOL     OW99864   6.451   8.723  13.838
32656SOL    HW199865   6.519   8.777  13.878
32656SOL    HW299866   6.498   8.666  13.777
32657SOL     OW99867   2.624   6.877  10.115
32657SOL    HW199868   2.642   6.807  10.053
32657SOL    HW299869   2.531   6.898  10.101
32658SOL     OW99870  10.278   0.193   9.640
32658SOL    HW199871  10.271   0.256   9.712
32658SOL    HW299872  10.230   0.233   9.568
32659SOL     OW99873  11.623   1.816  10.530
32659SOL    HW199874  11.641   1.868  10.451
32659SOL    HW299875  11.684   1.743  10.525
32660SOL     OW99876   6.669   8.329  13.901
32660SOL    HW199877   6.630   8.398  13.956
32660SOL    HW299878   6.658   8.249  13.952
32661SOL     OW99879  11.128  12.362   6.550
32661SOL    HW199880  11.100  12.428   6.487
32661SOL    HW299881  11.093  12.280   6.515
32662SOL     OW99882   7.048   9.367   2.885
32662SOL    HW199883   7.085   9.447   2.921
32662SOL    HW299884   7.041   9.383   2.791
32663SOL     OW99885   6.071   6.262   6.337
32663SOL    HW199886   6.052   6.264   6.243
32663SOL    HW299887   6.086   6.354   6.360
32664SOL     OW99888   6.243   9.028  12.295
32664SOL    HW199889   6.243   9.071  12.209
32664SOL    HW299890   6.151   9.014  12.315
32665SOL     OW99891  13.407   7.562   8.788
32665SOL    HW199892  13.366   7.519   8.863
32665SOL    HW299893  13.501   7.557   8.806
32666SOL     OW99894   3.658  14.770   6.798
32666SOL    HW199895   3.593  14.713   6.841
32666SOL    HW299896   3.730  14.711   6.777
32667SOL     OW99897   6.173  11.214  14.344
32667SOL    HW199898   6.105  11.169  14.294
32667SOL    HW299899   6.211  11.146  14.399
32668SOL     OW99900   8.037   1.770   4.860
32668SOL    HW199901   8.016   1.862   4.879
32668SOL    HW299902   8.021   1.760   4.767
32669SOL     OW99903  13.817   3.406   9.616
32669SOL    HW199904  13.838   3.400   9.709
32669SOL    HW299905  13.903   3.407   9.572
32670SOL     OW99906  14.779   8.182   5.055
32670SOL    HW199907  14.705   8.121   5.058
32670SOL    HW299908  14.738   8.268   5.044
32671SOL     OW99909   1.918   4.981   9.771
32671SOL    HW199910   1.992   4.989   9.831
32671SOL    HW299911   1.873   5.065   9.776
32672SOL     OW99912   6.334   7.136   3.840
32672SOL    HW199913   6.338   7.105   3.930
32672SOL    HW299914   6.331   7.057   3.787
32673SOL     OW99915  13.528  14.121  10.229
32673SOL    HW199916  13.595  14.115  10.298
32673SOL    HW299917  13.576  14.150  10.152
32674SOL     OW99918  13.720   0.485  12.913
32674SOL    HW199919  13.715   0.520  13.002
32674SOL    HW299920  13.805   0.443  12.908
32675SOL     OW99921   0.731   8.348   1.313
32675SOL    HW199922   0.747   8.329   1.405
32675SOL    HW299923   0.658   8.409   1.313
32676SOL     OW99924   6.830  11.419   9.165
32676SOL    HW199925   6.738  11.412   9.189
32676SOL    HW299926   6.834  11.494   9.106
32677SOL     OW99927   8.420   1.713   3.631
32677SOL    HW199928   8.438   1.755   3.547
32677SOL    HW299929   8.490   1.650   3.643
32678SOL     OW99930   6.842   1.402  14.671
32678SOL    HW199931   6.831   1.428  14.579
32678SOL    HW299932   6.756   1.419  14.710
32679SOL     OW99933  13.927   6.863   6.215
32679SOL    HW199934  13.877   6.921   6.158
32679SOL    HW299935  13.862   6.806   6.255
32680SOL     OW99936   1.619   1.523   0.808
32680SOL    HW199937   1.583   1.578   0.878
32680SOL    HW299938   1.709   1.505   0.837
32681SOL     OW99939   2.453   5.241   7.936
32681SOL    HW199940   2.534   5.293   7.936
32681SOL    HW299941   2.406   5.271   8.014
32682SOL     OW99942  10.589   4.579   3.017
32682SOL    HW199943  10.567   4.506   2.959
32682SOL    HW299944  10.587   4.541   3.105
32683SOL     OW99945  13.495   9.256   4.677
32683SOL    HW199946  13.426   9.201   4.640
32683SOL    HW299947  13.567   9.250   4.614
32684SOL     OW99948   8.576   7.658   0.488
32684SOL    HW199949   8.499   7.715   0.483
32684SOL    HW299950   8.649   7.715   0.460
32685SOL     OW99951   5.138   7.215   2.799
32685SOL    HW199952   5.220   7.228   2.845
32685SOL    HW299953   5.093   7.299   2.804
32686SOL     OW99954   4.608   8.957   6.893
32686SOL    HW199955   4.696   8.922   6.910
32686SOL    HW299956   4.549   8.890   6.926
32687SOL     OW99957   8.754  12.996   0.149
32687SOL    HW199958   8.782  13.078   0.189
32687SOL    HW299959   8.702  13.024   0.073
32688SOL     OW99960  11.261   0.292   0.696
32688SOL    HW199961  11.282   0.282   0.604
32688SOL    HW299962  11.337   0.256   0.742
32689SOL     OW99963  13.737   5.140   8.613
32689SOL    HW199964  13.728   5.213   8.552
32689SOL    HW299965  13.652   5.135   8.657
32690SOL     OW99966   0.267   5.336   1.657
32690SOL    HW199967   0.348   5.385   1.668
32690SOL    HW299968   0.277   5.291   1.573
32691SOL     OW99969   4.860   0.461   5.652
32691SOL    HW199970   4.938   0.414   5.682
32691SOL    HW299971   4.797   0.392   5.629
32692SOL     OW99972   8.487   0.041  10.226
32692SOL    HW199973   8.552   0.075  10.165
32692SOL    HW299974   8.537  14.858  10.288
32693SOL     OW99975  14.399   9.856   8.202
32693SOL    HW199976  14.355   9.852   8.287
32693SOL    HW299977  14.349   9.795   8.147
32694SOL     OW99978  11.633  14.291  13.466
32694SOL    HW199979  11.620  14.380  13.497
32694SOL    HW299980  11.713  14.295  13.414
32695SOL     OW99981  11.216   6.245  14.744
32695SOL    HW199982  11.286   6.283  14.797
32695SOL    HW299983  11.144   6.308  14.752
32696SOL     OW99984  14.274  13.599   6.252
32696SOL    HW199985  14.270  13.625   6.160
32696SOL    HW299986  14.199  13.643   6.293
32697SOL     OW99987  13.186   0.027   1.854
32697SOL    HW199988  13.195  14.802   1.840
32697SOL    HW299989  13.100   0.036   1.895
32698SOL     OW99990  12.575  11.801  12.963
32698SOL    HW199991  12.513  11.826  13.031
32698SOL    HW299992  12.519  11.770  12.891
32699SOL     OW99993   2.469   4.092   9.837
32699SOL    HW199994   2.502   4.036   9.767
32699SOL    HW299995   2.547   4.140   9.868
32700SOL     OW99996  12.330   6.450  12.241
32700SOL    HW199997  12.333   6.355  12.239
32700SOL    HW299998  12.239   6.472  12.220
32701SOL     OW99999  12.217   5.137  13.093
32701SOL    HW1    0  12.216   5.098  13.180
32701SOL    HW2    1  12.161   5.214  13.100
32702SOL     OW    2   4.678  10.592   5.063
32702SOL    HW1    3   4.697  10.516   5.007
32702SOL    HW2    4   4.622  10.648   5.009
32703SOL     OW    5  10.140   0.818   9.653
32703SOL    HW1    6  10.209   0.875   9.620
32703SOL    HW2    7  10.059   0.855   9.618
32704SOL     OW    8   1.903   6.360   2.083
32704SOL    HW1    9   1.940   6.448   2.082
32704SOL    HW2   10   1.835   6.362   2.016
32705SOL     OW   11   7.618  12.346   8.526
32705SOL    HW1   12   7.601  12.404   8.601
32705SOL    HW2   13   7.593  12.398   8.449
32706SOL     OW   14  11.458  14.093   3.816
32706SOL    HW1   15  11.552  14.106   3.801
32706SOL    HW2   16  11.415  14.150   3.752
32707SOL     OW   17  12.133   3.736  13.820
32707SOL    HW1   18  12.090   3.655  13.843
32707SOL    HW2   19  12.174   3.719  13.735
32708SOL     OW   20  13.154   3.885  11.553
32708SOL    HW1   21  13.108   3.804  11.535
32708SOL    HW2   22  13.207   3.866  11.630
32709SOL     OW   23  13.932   4.585   0.450
32709SOL    HW1   24  13.920   4.508   0.394
32709SOL    HW2   25  14.001   4.636   0.407
32710SOL     OW   26  10.904   8.433   6.575
32710SOL    HW1   27  10.879   8.511   6.524
32710SOL    HW2   28  10.826   8.377   6.573
32711SOL     OW   29   0.802  14.516   6.667
32711SOL    HW1   30   0.830  14.468   6.745
32711SOL    HW2   31   0.852  14.597   6.669
32712SOL     OW   32  14.497   6.979   3.032
32712SOL    HW1   33  14.474   7.021   3.116
32712SOL    HW2   34  14.590   6.995   3.022
32713SOL     OW   35   5.944   2.912  12.222
32713SOL    HW1   36   5.859   2.956  12.231
32713SOL    HW2   37   5.949   2.856  12.299
32714SOL     OW   38   0.813  14.240  11.319
32714SOL    HW1   39   0.814  14.294  11.398
32714SOL    HW2   40   0.741  14.275  11.267
32715SOL     OW   41   8.515   4.883   1.904
32715SOL    HW1   42   8.555   4.916   1.984
32715SOL    HW2   43   8.516   4.958   1.844
32716SOL     OW   44   0.323  10.592   4.719
32716SOL    HW1   45   0.290  10.680   4.703
32716SOL    HW2   46   0.283  10.538   4.651
32717SOL     OW   47   7.218   9.717   2.633
32717SOL    HW1   48   7.204   9.811   2.649
32717SOL    HW2   49   7.265   9.713   2.550
32718SOL     OW   50   6.054   6.067   6.516
32718SOL    HW1   51   6.027   6.149   6.476
32718SOL    HW2   52   6.144   6.083   6.544
32719SOL     OW   53   4.690   4.380  11.683
32719SOL    HW1   54   4.692   4.292  11.644
32719SOL    HW2   55   4.781   4.409  11.682
32720SOL     OW   56   9.592  12.568  10.795
32720SOL    HW1   57   9.517  12.567  10.854
32720SOL    HW2   58   9.606  12.476  10.772
32721SOL     OW   59   9.019  10.423   0.692
32721SOL    HW1   60   9.005  10.488   0.624
32721SOL    HW2   61   8.939  10.427   0.745
32722SOL     OW   62  11.666   5.567   1.477
32722SOL    HW1   63  11.589   5.562   1.419
32722SOL    HW2   64  11.661   5.487   1.529
32723SOL     OW   65   1.833   2.721   9.836
32723SOL    HW1   66   1.876   2.786   9.780
32723SOL    HW2   67   1.771   2.677   9.778
32724SOL     OW   68   7.432   4.958   8.924
32724SOL    HW1   69   7.382   5.038   8.942
32724SOL    HW2   70   7.366   4.889   8.925
32725SOL     OW   71   7.994   8.198   0.149
32725SOL    HW1   72   8.057   8.270   0.155
32725SOL    HW2   73   8.047   8.119   0.162
32726SOL     OW   74  10.000  10.670  13.936
32726SOL    HW1   75  10.063  10.735  13.906
32726SOL    HW2   76   9.932  10.720  13.980
32727SOL     OW   77   1.368   3.676   6.911
32727SOL    HW1   78   1.392   3.769   6.918
32727SOL    HW2   79   1.444   3.629   6.944
32728SOL     OW   80   5.746  12.321   9.056
32728SOL    HW1   81   5.836  12.353   9.053
32728SOL    HW2   82   5.708  12.363   9.133
32729SOL     OW   83  12.170  11.335   2.293
32729SOL    HW1   84  12.147  11.307   2.382
32729SOL    HW2   85  12.266  11.336   2.294
32730SOL     OW   86   1.431  13.256   4.612
32730SOL    HW1   87   1.447  13.348   4.633
32730SOL    HW2   88   1.465  13.245   4.524
32731SOL     OW   89   1.834   2.796   0.754
32731SOL    HW1   90   1.930   2.789   0.763
32731SOL    HW2   91   1.816   2.761   0.667
32732SOL     OW   92   3.885  11.195   8.660
32732SOL    HW1   93   3.963  11.163   8.613
32732SOL    HW2   94   3.814  11.139   8.628
32733SOL     OW   95  11.246   8.665  11.178
32733SOL    HW1   96  11.196   8.589  11.208
32733SOL    HW2   97  11.211   8.684  11.091
32734SOL     OW   98  10.320   4.083  11.704
32734SOL    HW1   99  10.237   4.125  11.726
32734SOL    HW2  100  10.373   4.091  11.783
32735SOL     OW  101  12.054  14.379   3.130
32735SOL    HW1  102  12.116  14.449   3.109
32735SOL    HW2  103  11.969  14.423   3.137
32736SOL     OW  104  12.246  10.582   6.982
32736SOL    HW1  105  12.325  10.627   7.014
32736SOL    HW2  106  12.262  10.572   6.888
32737SOL     OW  107  12.126   8.916   3.145
32737SOL    HW1  108  12.072   8.870   3.210
32737SOL    HW2  109  12.090   8.889   3.061
32738SOL     OW  110   9.771   6.611   0.654
32738SOL    HW1  111   9.774   6.636   0.561
32738SOL    HW2  112   9.684   6.640   0.683
32739SOL     OW  113  12.155   8.762  12.433
32739SOL    HW1  114  12.194   8.712  12.505
32739SOL    HW2  115  12.229   8.791  12.381
32740SOL     OW  116  10.711   6.259   9.935
32740SOL    HW1  117  10.656   6.333   9.909
32740SOL    HW2  118  10.648   6.189   9.953
32741SOL     OW  119   3.303  12.001   9.933
32741SOL    HW1  120   3.222  11.994   9.882
32741SOL    HW2  121   3.294  11.934  10.001
32742SOL     OW  122  13.976  10.493  13.682
32742SOL    HW1  123  14.040  10.528  13.620
32742SOL    HW2  124  13.892  10.528  13.652
32743SOL     OW  125  10.456   0.420   2.209
32743SOL    HW1  126  10.456   0.332   2.246
32743SOL    HW2  127  10.508   0.413   2.129
32744SOL     OW  128   3.646   1.657   2.744
32744SOL    HW1  129   3.713   1.724   2.755
32744SOL    HW2  130   3.685   1.578   2.782
32745SOL     OW  131   6.317  11.370  12.386
32745SOL    HW1  132   6.374  11.332  12.452
32745SOL    HW2  133   6.234  11.324  12.395
32746SOL     OW  134   1.954   0.785   9.129
32746SOL    HW1  135   1.998   0.867   9.106
32746SOL    HW2  136   2.023   0.730   9.164
32747SOL     OW  137  14.043  13.198   9.131
32747SOL    HW1  138  13.977  13.267   9.143
32747SOL    HW2  139  14.112  13.240   9.080
32748SOL     OW  140   6.723  12.919   9.056
32748SOL    HW1  141   6.802  12.906   9.108
32748SOL    HW2  142   6.705  13.013   9.063
32749SOL     OW  143  10.502  13.756  14.321
32749SOL    HW1  144  10.542  13.806  14.249
32749SOL    HW2  145  10.408  13.764  14.306
32750SOL     OW  146   1.141  12.622   8.272
32750SOL    HW1  147   1.108  12.629   8.362
32750SOL    HW2  148   1.235  12.610   8.282
32751SOL     OW  149  13.725  11.784  12.518
32751SOL    HW1  150  13.775  11.732  12.455
32751SOL    HW2  151  13.782  11.858  12.540
32752SOL     OW  152   0.502  10.858   8.157
32752SOL    HW1  153   0.417  10.902   8.152
32752SOL    HW2  154   0.493  10.783   8.098
32753SOL     OW  155   1.971  11.091  10.739
32753SOL    HW1  156   1.986  11.059  10.828
32753SOL    HW2  157   1.999  11.019  10.682
32754SOL     OW  158   9.566   8.509  11.981
32754SOL    HW1  159   9.525   8.442  12.035
32754SOL    HW2  160   9.639   8.542  12.034
32755SOL     OW  161   0.381   8.098  13.604
32755SOL    HW1  162   0.416   8.169  13.658
32755SOL    HW2  163   0.335   8.142  13.533
32756SOL     OW  164   1.428   3.523   2.866
32756SOL    HW1  165   1.516   3.499   2.838
32756SOL    HW2  166   1.438   3.607   2.910
32757SOL     OW  167   7.308   8.975  10.776
32757SOL    HW1  168   7.247   8.908  10.806
32757SOL    HW2  169   7.254   9.040  10.731
32758SOL     OW  170   5.477   7.515   0.899
32758SOL    HW1  171   5.490   7.609   0.910
32758SOL    HW2  172   5.383   7.505   0.885
32759SOL     OW  173   7.949   7.504   2.690
32759SOL    HW1  174   7.917   7.443   2.756
32759SOL    HW2  175   7.920   7.590   2.721
32760SOL     OW  176  13.992   2.624   8.816
32760SOL    HW1  177  14.023   2.714   8.825
32760SOL    HW2  178  13.938   2.625   8.737
32761SOL     OW  179   1.779  12.329   8.210
32761SOL    HW1  180   1.758  12.281   8.130
32761SOL    HW2  181   1.791  12.261   8.276
32762SOL     OW  182   0.868   3.410   2.577
32762SOL    HW1  183   0.905   3.472   2.640
32762SOL    HW2  184   0.894   3.443   2.492
32763SOL     OW  185  14.616  14.260   2.052
32763SOL    HW1  186  14.702  14.261   2.010
32763SOL    HW2  187  14.561  14.211   1.992
32764SOL     OW  188  13.606   8.945  10.812
32764SOL    HW1  189  13.556   9.020  10.844
32764SOL    HW2  190  13.582   8.874  10.871
32765SOL     OW  191  12.850   1.741   3.160
32765SOL    HW1  192  12.828   1.650   3.143
32765SOL    HW2  193  12.845   1.784   3.075
32766SOL     OW  194   8.155   3.322   1.769
32766SOL    HW1  195   8.154   3.391   1.703
32766SOL    HW2  196   8.101   3.356   1.841
32767SOL     OW  197   0.244  11.011   3.315
32767SOL    HW1  198   0.227  10.931   3.266
32767SOL    HW2  199   0.241  11.081   3.250
32768SOL     OW  200   1.458   3.835   0.263
32768SOL    HW1  201   1.483   3.805   0.350
32768SOL    HW2  202   1.540   3.834   0.213
32769SOL     OW  203  11.210   3.567  10.840
32769SOL    HW1  204  11.267   3.514  10.784
32769SOL    HW2  205  11.158   3.619  10.779
32770SOL     OW  206   0.586   2.184   9.628
32770SOL    HW1  207   0.667   2.150   9.589
32770SOL    HW2  208   0.583   2.144   9.715
32771SOL     OW  209   3.940  10.099  13.859
32771SOL    HW1  210   3.944  10.103  13.955
32771SOL    HW2  211   3.849  10.077  13.839
32772SOL     OW  212   5.487   9.052   1.217
32772SOL    HW1  213   5.548   9.121   1.242
32772SOL    HW2  214   5.446   9.025   1.299
32773SOL     OW  215   6.637   9.088   0.052
32773SOL    HW1  216   6.590   9.147  14.863
32773SOL    HW2  217   6.658   9.141   0.129
32774SOL     OW  218   4.594  12.568  13.585
32774SOL    HW1  219   4.631  12.654  13.567
32774SOL    HW2  220   4.516  12.563  13.529
32775SOL     OW  221   8.292  11.967   9.751
32775SOL    HW1  222   8.203  11.965   9.786
32775SOL    HW2  223   8.308  12.060   9.732
32776SOL     OW  224  12.131  12.204  13.183
32776SOL    HW1  225  12.165  12.189  13.271
32776SOL    HW2  226  12.201  12.176  13.124
32777SOL     OW  227   6.107  14.838   0.393
32777SOL    HW1  228   6.043  14.830   0.464
32777SOL    HW2  229   6.133   0.061   0.395
32778SOL     OW  230  10.888   2.964   8.389
32778SOL    HW1  231  10.977   2.944   8.419
32778SOL    HW2  232  10.852   3.020   8.458
32779SOL     OW  233  12.036   9.981  12.452
32779SOL    HW1  234  12.084  10.026  12.522
32779SOL    HW2  235  12.104   9.953  12.391
32780SOL     OW  236  11.202  14.010   6.539
32780SOL    HW1  237  11.173  13.928   6.499
32780SOL    HW2  238  11.123  14.049   6.575
32781SOL     OW  239  10.359   5.925   0.709
32781SOL    HW1  240  10.351   5.848   0.653
32781SOL    HW2  241  10.452   5.930   0.731
32782SOL     OW  242   3.492   1.157  12.143
32782SOL    HW1  243   3.527   1.112  12.220
32782SOL    HW2  244   3.526   1.246  12.150
32783SOL     OW  245   6.298   4.956  11.854
32783SOL    HW1  246   6.280   4.863  11.871
32783SOL    HW2  247   6.282   4.966  11.761
32784SOL     OW  248  10.562   2.306   7.236
32784SOL    HW1  249  10.616   2.372   7.192
32784SOL    HW2  250  10.548   2.239   7.170
32785SOL     OW  251   7.770   9.511  10.128
32785SOL    HW1  252   7.793   9.545  10.042
32785SOL    HW2  253   7.679   9.481  10.118
32786SOL     OW  254  13.198   9.873  10.687
32786SOL    HW1  255  13.173   9.782  10.702
32786SOL    HW2  256  13.170   9.919  10.767
32787SOL     OW  257   8.635  10.663   0.010
32787SOL    HW1  258   8.701  10.669   0.078
32787SOL    HW2  259   8.616  10.754  14.856
32788SOL     OW  260  14.830  14.076   5.497
32788SOL    HW1  261   0.037  14.054   5.550
32788SOL    HW2  262  14.756  14.052   5.552
32789SOL     OW  263   2.965   7.621   0.278
32789SOL    HW1  264   2.992   7.671   0.355
32789SOL    HW2  265   3.045   7.610   0.227
32790SOL     OW  266   7.737  14.508  13.640
32790SOL    HW1  267   7.677  14.477  13.707
32790SOL    HW2  268   7.733  14.604  13.647
32791SOL     OW  269  13.564   8.880  14.609
32791SOL    HW1  270  13.531   8.839  14.689
32791SOL    HW2  271  13.657   8.893  14.626
32792SOL     OW  272  13.262  14.458  12.466
32792SOL    HW1  273  13.309  14.432  12.387
32792SOL    HW2  274  13.178  14.413  12.460
32793SOL     OW  275   8.456   9.657  12.534
32793SOL    HW1  276   8.450   9.684  12.443
32793SOL    HW2  277   8.384   9.702  12.578
32794SOL     OW  278   8.279   1.492   2.938
32794SOL    HW1  279   8.276   1.501   2.842
32794SOL    HW2  280   8.370   1.512   2.960
32795SOL     OW  281  12.109  14.752   5.650
32795SOL    HW1  282  12.130  14.728   5.560
32795SOL    HW2  283  12.140  14.678   5.702
32796SOL     OW  284   7.374  14.421  13.604
32796SOL    HW1  285   7.400  14.479  13.533
32796SOL    HW2  286   7.433  14.443  13.676
32797SOL     OW  287  12.484   5.334  13.003
32797SOL    HW1  288  12.501   5.352  13.095
32797SOL    HW2  289  12.399   5.374  12.986
32798SOL     OW  290   5.767   3.933   3.644
32798SOL    HW1  291   5.724   3.974   3.569
32798SOL    HW2  292   5.819   4.004   3.683
32799SOL     OW  293   3.323   0.699   1.197
32799SOL    HW1  294   3.341   0.631   1.262
32799SOL    HW2  295   3.344   0.657   1.113
32800SOL     OW  296   8.708  10.376   3.625
32800SOL    HW1  297   8.637  10.317   3.598
32800SOL    HW2  298   8.750  10.330   3.698
32801SOL     OW  299   7.634  13.620   5.692
32801SOL    HW1  300   7.543  13.630   5.663
32801SOL    HW2  301   7.685  13.655   5.620
32802SOL     OW  302   7.786   8.560  14.496
32802SOL    HW1  303   7.739   8.521  14.422
32802SOL    HW2  304   7.720   8.613  14.541
32803SOL     OW  305   4.927  11.363   2.737
32803SOL    HW1  306   4.875  11.417   2.796
32803SOL    HW2  307   4.865  11.333   2.670
32804SOL     OW  308  14.853   7.742   3.824
32804SOL    HW1  309  14.819   7.830   3.808
32804SOL    HW2  310   0.011   7.743   3.915
32805SOL     OW  311  14.584   5.867  14.320
32805SOL    HW1  312  14.626   5.805  14.379
32805SOL    HW2  313  14.558   5.815  14.245
32806SOL     OW  314  11.741   9.551   8.246
32806SOL    HW1  315  11.727   9.488   8.176
32806SOL    HW2  316  11.809   9.513   8.300
32807SOL     OW  317   2.413  10.419  13.486
32807SOL    HW1  318   2.340  10.426  13.426
32807SOL    HW2  319   2.445  10.509  13.497
32808SOL     OW  320   5.413  12.101   9.025
32808SOL    HW1  321   5.346  12.100   8.957
32808SOL    HW2  322   5.426  12.194   9.044
32809SOL     OW  323   0.570   6.883   8.317
32809SOL    HW1  324   0.564   6.966   8.364
32809SOL    HW2  325   0.657   6.850   8.337
32810SOL     OW  326   4.789   5.972   5.093
32810SOL    HW1  327   4.820   6.044   5.037
32810SOL    HW2  328   4.736   5.918   5.035
32811SOL     OW  329   4.493  13.541  13.056
32811SOL    HW1  330   4.448  13.542  13.141
32811SOL    HW2  331   4.519  13.450  13.044
32812SOL     OW  332   7.365   8.983   4.093
32812SOL    HW1  333   7.348   8.927   4.169
32812SOL    HW2  334   7.278   9.010   4.064
32813SOL     OW  335   3.272   9.386   3.305
32813SOL    HW1  336   3.340   9.324   3.332
32813SOL    HW2  337   3.290   9.403   3.213
32814SOL     OW  338  11.772  10.704  14.789
32814SOL    HW1  339  11.764  10.785  14.839
32814SOL    HW2  340  11.731  10.638  14.845
32815SOL     OW  341   2.228  11.624   3.130
32815SOL    HW1  342   2.262  11.644   3.218
32815SOL    HW2  343   2.200  11.533   3.136
32816SOL     OW  344   6.036   1.293   9.323
32816SOL    HW1  345   6.022   1.387   9.318
32816SOL    HW2  346   5.964   1.261   9.377
32817SOL     OW  347   8.179  11.617   3.946
32817SOL    HW1  348   8.109  11.592   4.007
32817SOL    HW2  349   8.195  11.709   3.965
32818SOL     OW  350   4.053   2.613   3.023
32818SOL    HW1  351   4.066   2.556   3.099
32818SOL    HW2  352   3.970   2.584   2.985
32819SOL     OW  353  12.931   6.419   6.163
32819SOL    HW1  354  12.970   6.415   6.250
32819SOL    HW2  355  12.839   6.442   6.179
32820SOL     OW  356  14.347   8.270   1.692
32820SOL    HW1  357  14.294   8.310   1.622
32820SOL    HW2  358  14.321   8.317   1.771
32821SOL     OW  359   0.536   3.834  10.989
32821SOL    HW1  360   0.519   3.745  10.958
32821SOL    HW2  361   0.619   3.858  10.948
32822SOL     OW  362   2.389   7.772  11.847
32822SOL    HW1  363   2.328   7.760  11.774
32822SOL    HW2  364   2.390   7.687  11.891
32823SOL     OW  365   8.978   4.115  14.483
32823SOL    HW1  366   8.913   4.090  14.548
32823SOL    HW2  367   8.929   4.121  14.401
32824SOL     OW  368   8.199  13.084  14.788
32824SOL    HW1  369   8.164  13.128  14.865
32824SOL    HW2  370   8.176  12.991  14.801
32825SOL     OW  371  10.478   9.117   2.492
32825SOL    HW1  372  10.400   9.167   2.468
32825SOL    HW2  373  10.445   9.030   2.515
32826SOL     OW  374   0.534  14.791  10.195
32826SOL    HW1  375   0.472  14.818  10.127
32826SOL    HW2  376   0.567   0.003  10.232
32827SOL     OW  377   1.252   0.935  14.658
32827SOL    HW1  378   1.284   0.845  14.656
32827SOL    HW2  379   1.331   0.989  14.658
32828SOL     OW  380  12.590   2.186  12.675
32828SOL    HW1  381  12.598   2.253  12.743
32828SOL    HW2  382  12.604   2.234  12.593
32829SOL     OW  383   0.804   1.320  10.720
32829SOL    HW1  384   0.759   1.246  10.680
32829SOL    HW2  385   0.771   1.397  10.673
32830SOL     OW  386  11.825   5.031   2.991
32830SOL    HW1  387  11.803   5.048   2.900
32830SOL    HW2  388  11.741   5.027   3.036
32831SOL     OW  389   6.304  14.161   9.085
32831SOL    HW1  390   6.359  14.090   9.049
32831SOL    HW2  391   6.366  14.229   9.110
32832SOL     OW  392  11.815   0.464   3.497
32832SOL    HW1  393  11.799   0.517   3.419
32832SOL    HW2  394  11.773   0.380   3.479
32833SOL     OW  395   6.551  10.043   4.837
32833SOL    HW1  396   6.546  10.137   4.820
32833SOL    HW2  397   6.587  10.006   4.756
32834SOL     OW  398   5.828   2.720   0.880
32834SOL    HW1  399   5.755   2.692   0.824
32834SOL    HW2  400   5.905   2.680   0.841
32835SOL     OW  401   2.180   8.577   2.742
32835SOL    HW1  402   2.186   8.627   2.824
32835SOL    HW2  403   2.254   8.517   2.746
32836SOL     OW  404   2.133   0.362   3.781
32836SOL    HW1  405   2.072   0.358   3.707
32836SOL    HW2  406   2.213   0.320   3.749
32837SOL     OW  407   9.596  10.902  13.625
32837SOL    HW1  408   9.679  10.896  13.578
32837SOL    HW2  409   9.542  10.832  13.587
32838SOL     OW  410   2.802  13.003  11.455
32838SOL    HW1  411   2.874  12.955  11.414
32838SOL    HW2  412   2.828  13.010  11.547
32839SOL     OW  413  10.559  11.151   5.898
32839SOL    HW1  414  10.644  11.151   5.943
32839SOL    HW2  415  10.521  11.236   5.918
32840SOL     OW  416  14.480   1.696   0.508
32840SOL    HW1  417  14.463   1.612   0.550
32840SOL    HW2  418  14.573   1.694   0.484
32841SOL     OW  419   7.622  13.179  14.675
32841SOL    HW1  420   7.607  13.232  14.596
32841SOL    HW2  421   7.688  13.115  14.648
32842SOL     OW  422   5.303  12.314   8.200
32842SOL    HW1  423   5.398  12.306   8.208
32842SOL    HW2  424   5.290  12.395   8.151
32843SOL     OW  425  10.369   7.358  12.629
32843SOL    HW1  426  10.413   7.439  12.604
32843SOL    HW2  427  10.433   7.312  12.683
32844SOL     OW  428   0.226   3.647   6.739
32844SOL    HW1  429   0.299   3.607   6.786
32844SOL    HW2  430   0.267   3.692   6.665
32845SOL     OW  431  10.490  11.298   9.439
32845SOL    HW1  432  10.435  11.343   9.375
32845SOL    HW2  433  10.456  11.326   9.524
32846SOL     OW  434   8.575   7.814   4.329
32846SOL    HW1  435   8.566   7.901   4.367
32846SOL    HW2  436   8.569   7.829   4.234
32847SOL     OW  437  14.348  14.001   1.503
32847SOL    HW1  438  14.443  13.991   1.507
32847SOL    HW2  439  14.334  14.081   1.451
32848SOL     OW  440   8.618   1.835   9.249
32848SOL    HW1  441   8.599   1.928   9.237
32848SOL    HW2  442   8.651   1.806   9.164
32849SOL     OW  443   1.792   9.044   0.185
32849SOL    HW1  444   1.795   8.988   0.106
32849SOL    HW2  445   1.878   9.034   0.224
32850SOL     OW  446  13.665  10.268   6.531
32850SOL    HW1  447  13.711  10.218   6.598
32850SOL    HW2  448  13.613  10.204   6.483
32851SOL     OW  449   1.256  12.785  14.619
32851SOL    HW1  450   1.238  12.858  14.559
32851SOL    HW2  451   1.321  12.732  14.573
32852SOL     OW  452   0.798   7.658  12.813
32852SOL    HW1  453   0.772   7.573  12.849
32852SOL    HW2  454   0.870   7.687  12.870
32853SOL     OW  455   1.235   7.548  13.521
32853SOL    HW1  456   1.301   7.489  13.557
32853SOL    HW2  457   1.280   7.631  13.511
32854SOL     OW  458   1.994  11.974   5.236
32854SOL    HW1  459   2.078  11.937   5.211
32854SOL    HW2  460   1.944  11.978   5.155
32855SOL     OW  461   6.795   7.849   7.350
32855SOL    HW1  462   6.761   7.828   7.436
32855SOL    HW2  463   6.767   7.776   7.295
32856SOL     OW  464   3.678  13.421   6.711
32856SOL    HW1  465   3.592  13.417   6.669
32856SOL    HW2  466   3.715  13.333   6.699
32857SOL     OW  467  14.719   7.900   4.228
32857SOL    HW1  468  14.647   7.881   4.287
32857SOL    HW2  469  14.785   7.943   4.283
32858SOL     OW  470   7.431  13.494   4.034
32858SOL    HW1  471   7.486  13.445   4.095
32858SOL    HW2  472   7.492  13.550   3.986
32859SOL     OW  473   3.114  12.239   6.631
32859SOL    HW1  474   3.132  12.332   6.617
32859SOL    HW2  475   3.136  12.224   6.723
32860SOL     OW  476   6.379   8.296  11.986
32860SOL    HW1  477   6.451   8.246  12.024
32860SOL    HW2  478   6.351   8.244  11.911
32861SOL     OW  479  12.657  14.308   7.428
32861SOL    HW1  480  12.718  14.316   7.354
32861SOL    HW2  481  12.633  14.215   7.429
32862SOL     OW  482  12.913  10.408  10.866
32862SOL    HW1  483  12.837  10.358  10.894
32862SOL    HW2  484  12.986  10.347  10.873
32863SOL     OW  485   2.415   7.623   3.325
32863SOL    HW1  486   2.477   7.628   3.397
32863SOL    HW2  487   2.470   7.607   3.248
32864SOL     OW  488   0.793   5.488  13.343
32864SOL    HW1  489   0.823   5.568  13.300
32864SOL    HW2  490   0.701   5.479  13.316
32865SOL     OW  491   1.059   1.012  14.852
32865SOL    HW1  492   1.073   1.100   0.018
32865SOL    HW2  493   1.143   0.986  14.816
32866SOL     OW  494   6.723  11.226   3.736
32866SOL    HW1  495   6.761  11.141   3.713
32866SOL    HW2  496   6.798  11.280   3.760
32867SOL     OW  497   3.193   7.595   8.652
32867SOL    HW1  498   3.210   7.689   8.649
32867SOL    HW2  499   3.201   7.572   8.744
32868SOL     OW  500   2.975   0.476   7.214
32868SOL    HW1  501   2.889   0.508   7.243
32868SOL    HW2  502   3.020   0.554   7.182
32869SOL     OW  503  14.455  13.408  12.254
32869SOL    HW1  504  14.401  13.472  12.301
32869SOL    HW2  505  14.542  13.416  12.294
32870SOL     OW  506  10.424   1.077   7.773
32870SOL    HW1  507  10.390   1.073   7.684
32870SOL    HW2  508  10.353   1.117   7.824
32871SOL     OW  509   5.283   1.466   1.595
32871SOL    HW1  510   5.347   1.482   1.665
32871SOL    HW2  511   5.336   1.441   1.519
32872SOL     OW  512  10.137   6.335   3.806
32872SOL    HW1  513  10.127   6.253   3.759
32872SOL    HW2  514  10.217   6.324   3.857
32873SOL     OW  515   3.856  14.087   1.813
32873SOL    HW1  516   3.939  14.113   1.773
32873SOL    HW2  517   3.868  14.104   1.906
32874SOL     OW  518   2.456  12.550   6.349
32874SOL    HW1  519   2.451  12.456   6.332
32874SOL    HW2  520   2.471  12.589   6.263
32875SOL     OW  521  13.672   3.054   8.159
32875SOL    HW1  522  13.599   2.992   8.168
32875SOL    HW2  523  13.677   3.098   8.244
32876SOL     OW  524   9.525   3.193  13.588
32876SOL    HW1  525   9.454   3.145  13.631
32876SOL    HW2  526   9.560   3.132  13.523
32877SOL     OW  527   6.615   6.603   8.446
32877SOL    HW1  528   6.631   6.572   8.535
32877SOL    HW2  529   6.552   6.674   8.457
32878SOL     OW  530   7.828   2.111   9.663
32878SOL    HW1  531   7.758   2.048   9.681
32878SOL    HW2  532   7.880   2.112   9.743
32879SOL     OW  533   2.215  11.968  10.294
32879SOL    HW1  534   2.146  11.976  10.360
32879SOL    HW2  535   2.176  12.005  10.215
32880SOL     OW  536  13.728   6.377  10.634
32880SOL    HW1  537  13.817   6.400  10.661
32880SOL    HW2  538  13.724   6.282  10.639
32881SOL     OW  539   6.611   1.038   2.632
32881SOL    HW1  540   6.644   0.977   2.698
32881SOL    HW2  541   6.688   1.063   2.581
32882SOL     OW  542   7.829   0.369   8.076
32882SOL    HW1  543   7.750   0.323   8.050
32882SOL    HW2  544   7.899   0.304   8.069
32883SOL     OW  545  13.556   0.770   9.962
32883SOL    HW1  546  13.469   0.737   9.942
32883SOL    HW2  547  13.600   0.776   9.877
32884SOL     OW  548   3.571  14.639   7.453
32884SOL    HW1  549   3.593  14.594   7.534
32884SOL    HW2  550   3.480  14.668   7.466
32885SOL     OW  551   2.858   0.241   5.689
32885SOL    HW1  552   2.765   0.240   5.711
32885SOL    HW2  553   2.903   0.250   5.773
32886SOL     OW  554   6.461   2.199   1.585
32886SOL    HW1  555   6.525   2.223   1.651
32886SOL    HW2  556   6.434   2.110   1.608
32887SOL     OW  557   7.651   4.928   6.256
32887SOL    HW1  558   7.635   4.966   6.343
32887SOL    HW2  559   7.672   4.837   6.274
32888SOL     OW  560   3.404   9.908   6.653
32888SOL    HW1  561   3.479   9.867   6.610
32888SOL    HW2  562   3.404   9.998   6.620
32889SOL     OW  563  10.164   7.837  13.862
32889SOL    HW1  564  10.195   7.809  13.776
32889SOL    HW2  565  10.074   7.805  13.867
32890SOL     OW  566   3.704   5.207   3.739
32890SOL    HW1  567   3.753   5.128   3.718
32890SOL    HW2  568   3.703   5.258   3.657
32891SOL     OW  569  14.813   5.061  10.430
32891SOL    HW1  570  14.724   5.044  10.461
32891SOL    HW2  571  14.859   5.094  10.507
32892SOL     OW  572  13.324   4.864   9.030
32892SOL    HW1  573  13.326   4.933   8.964
32892SOL    HW2  574  13.348   4.785   8.982
32893SOL     OW  575  12.823  14.551   2.770
32893SOL    HW1  576  12.878  14.496   2.826
32893SOL    HW2  577  12.743  14.501   2.758
32894SOL     OW  578   5.372  12.721   3.987
32894SOL    HW1  579   5.398  12.638   4.025
32894SOL    HW2  580   5.304  12.698   3.924
32895SOL     OW  581   3.883   5.852   7.486
32895SOL    HW1  582   3.974   5.829   7.469
32895SOL    HW2  583   3.836   5.823   7.408
32896SOL     OW  584   3.854   0.207  10.063
32896SOL    HW1  585   3.945   0.175  10.065
32896SOL    HW2  586   3.809   0.146  10.005
32897SOL     OW  587  13.951   2.602  12.148
32897SOL    HW1  588  13.917   2.635  12.232
32897SOL    HW2  589  13.900   2.648  12.082
32898SOL     OW  590   7.996   9.295   2.297
32898SOL    HW1  591   7.930   9.337   2.240
32898SOL    HW2  592   8.037   9.230   2.241
32899SOL     OW  593   3.637   1.552   6.613
32899SOL    HW1  594   3.578   1.482   6.585
32899SOL    HW2  595   3.717   1.538   6.563
32900SOL     OW  596  10.511  13.942  11.579
32900SOL    HW1  597  10.422  13.914  11.561
32900SOL    HW2  598  10.502  14.008  11.648
32901SOL     OW  599   3.245  13.944  11.069
32901SOL    HW1  600   3.163  13.988  11.045
32901SOL    HW2  601   3.223  13.850  11.068
32902SOL     OW  602  11.939  11.620   5.224
32902SOL    HW1  603  12.028  11.646   5.246
32902SOL    HW2  604  11.943  11.599   5.130
32903SOL     OW  605  10.916  14.090  14.512
32903SOL    HW1  606  10.836  14.042  14.532
32903SOL    HW2  607  10.983  14.048  14.566
32904SOL     OW  608   8.447   6.850   5.048
32904SOL    HW1  609   8.519   6.859   5.110
32904SOL    HW2  610   8.455   6.761   5.014
32905SOL     OW  611   9.243   5.563  11.727
32905SOL    HW1  612   9.226   5.511  11.648
32905SOL    HW2  613   9.167   5.547  11.782
32906SOL     OW  614   6.821  12.556   6.075
32906SOL    HW1  615   6.742  12.527   6.028
32906SOL    HW2  616   6.893  12.513   6.028
32907SOL     OW  617   0.594   7.902   6.675
32907SOL    HW1  618   0.515   7.956   6.674
32907SOL    HW2  619   0.583   7.845   6.752
32908SOL     OW  620   9.537   0.184   4.306
32908SOL    HW1  621   9.451   0.166   4.344
32908SOL    HW2  622   9.581   0.238   4.372
32909SOL     OW  623   6.913   2.740   2.722
32909SOL    HW1  624   7.003   2.709   2.719
32909SOL    HW2  625   6.868   2.692   2.652
32910SOL     OW  626   9.091  13.708  10.097
32910SOL    HW1  627   9.186  13.719  10.109
32910SOL    HW2  628   9.082  13.619  10.062
32911SOL     OW  629   9.169   2.455  10.020
32911SOL    HW1  630   9.260   2.476  10.038
32911SOL    HW2  631   9.152   2.491   9.933
32912SOL     OW  632  11.701   7.025  12.964
32912SOL    HW1  633  11.754   6.974  13.026
32912SOL    HW2  634  11.655   6.959  12.912
32913SOL     OW  635  14.138   1.872   4.866
32913SOL    HW1  636  14.070   1.912   4.813
32913SOL    HW2  637  14.148   1.930   4.941
32914SOL     OW  638  10.726   9.827  13.811
32914SOL    HW1  639  10.634   9.848  13.827
32914SOL    HW2  640  10.725   9.735  13.784
32915SOL     OW  641   2.862   7.553   2.890
32915SOL    HW1  642   2.789   7.514   2.842
32915SOL    HW2  643   2.926   7.482   2.898
32916SOL     OW  644   8.803   3.990  11.432
32916SOL    HW1  645   8.723   3.997  11.484
32916SOL    HW2  646   8.874   3.992  11.497
32917SOL     OW  647   9.089   0.064  12.295
32917SOL    HW1  648   9.061   0.154  12.312
32917SOL    HW2  649   9.008   0.017  12.277
32918SOL     OW  650   1.830   5.652   4.097
32918SOL    HW1  651   1.759   5.663   4.160
32918SOL    HW2  652   1.786   5.621   4.017
32919SOL     OW  653   2.881  10.913  13.015
32919SOL    HW1  654   2.875  10.966  13.094
32919SOL    HW2  655   2.895  10.976  12.944
32920SOL     OW  656   6.395   3.435   5.448
32920SOL    HW1  657   6.422   3.505   5.388
32920SOL    HW2  658   6.300   3.447   5.457
32921SOL     OW  659   7.110   0.167   3.794
32921SOL    HW1  660   7.104   0.226   3.719
32921SOL    HW2  661   7.085   0.221   3.869
32922SOL     OW  662   8.610   9.404  14.811
32922SOL    HW1  663   8.603   9.417  14.716
32922SOL    HW2  664   8.693   9.446  14.835
32923SOL     OW  665   0.515   2.479   7.149
32923SOL    HW1  666   0.586   2.414   7.150
32923SOL    HW2  667   0.445   2.438   7.201
32924SOL     OW  668   7.444   3.716   7.032
32924SOL    HW1  669   7.398   3.799   7.046
32924SOL    HW2  670   7.442   3.673   7.117
32925SOL     OW  671  12.143   9.450   3.670
32925SOL    HW1  672  12.151   9.372   3.615
32925SOL    HW2  673  12.107   9.517   3.613
32926SOL     OW  674   0.930   0.317  14.378
32926SOL    HW1  675   0.910   0.318  14.472
32926SOL    HW2  676   0.888   0.396  14.344
32927SOL     OW  677   3.154  12.786   2.637
32927SOL    HW1  678   3.174  12.693   2.651
32927SOL    HW2  679   3.059  12.788   2.624
32928SOL     OW  680  12.581  13.015   6.264
32928SOL    HW1  681  12.656  13.051   6.217
32928SOL    HW2  682  12.619  12.947   6.321
32929SOL     OW  683   1.590   7.311  11.430
32929SOL    HW1  684   1.603   7.276  11.342
32929SOL    HW2  685   1.586   7.233  11.486
32930SOL     OW  686  10.265  14.816   9.300
32930SOL    HW1  687  10.196  14.848   9.358
32930SOL    HW2  688  10.230  14.734   9.265
32931SOL     OW  689   1.665  10.194  14.395
32931SOL    HW1  690   1.748  10.147  14.387
32931SOL    HW2  691   1.668  10.234  14.482
32932SOL     OW  692  11.660   6.559  10.944
32932SOL    HW1  693  11.634   6.582  11.034
32932SOL    HW2  694  11.577   6.542  10.899
32933SOL     OW  695   1.625  14.183   1.767
32933SOL    HW1  696   1.659  14.133   1.693
32933SOL    HW2  697   1.608  14.271   1.731
32934SOL     OW  698   9.423   6.709   2.171
32934SOL    HW1  699   9.414   6.738   2.081
32934SOL    HW2  700   9.399   6.617   2.170
32935SOL     OW  701   4.161   3.700   0.615
32935SOL    HW1  702   4.212   3.685   0.535
32935SOL    HW2  703   4.159   3.795   0.624
32936SOL     OW  704   7.885   3.372   3.205
32936SOL    HW1  705   7.884   3.290   3.255
32936SOL    HW2  706   7.955   3.360   3.141
32937SOL     OW  707  10.226   8.023   9.372
32937SOL    HW1  708  10.255   8.113   9.355
32937SOL    HW2  709  10.306   7.971   9.375
32938SOL     OW  710   9.925  11.443   4.180
32938SOL    HW1  711   9.993  11.509   4.187
32938SOL    HW2  712   9.845  11.488   4.206
32939SOL     OW  713  13.599  14.076  13.031
32939SOL    HW1  714  13.592  14.018  12.954
32939SOL    HW2  715  13.625  14.160  12.995
32940SOL     OW  716   3.515   9.050  10.068
32940SOL    HW1  717   3.470   8.969  10.095
32940SOL    HW2  718   3.595   9.020  10.026
32941SOL     OW  719   3.338   4.954  11.292
32941SOL    HW1  720   3.396   4.884  11.324
32941SOL    HW2  721   3.366   4.969  11.202
32942SOL     OW  722   3.641  11.974   2.544
32942SOL    HW1  723   3.727  11.933   2.536
32942SOL    HW2  724   3.619  12.002   2.455
32943SOL     OW  725   0.077   1.084  10.236
32943SOL    HW1  726  14.866   1.069  10.186
32943SOL    HW2  727   0.103   0.996  10.265
32944SOL     OW  728   6.035   8.127  13.026
32944SOL    HW1  729   6.033   8.033  13.010
32944SOL    HW2  730   5.944   8.151  13.042
32945SOL     OW  731   7.460  12.780   5.492
32945SOL    HW1  732   7.542  12.828   5.492
32945SOL    HW2  733   7.462  12.727   5.572
32946SOL     OW  734   2.156   2.765   5.806
32946SOL    HW1  735   2.073   2.722   5.785
32946SOL    HW2  736   2.181   2.809   5.724
32947SOL     OW  737   6.800  13.246   2.035
32947SOL    HW1  738   6.769  13.189   1.965
32947SOL    HW2  739   6.742  13.227   2.109
32948SOL     OW  740   4.311  12.903   9.106
32948SOL    HW1  741   4.350  12.841   9.044
32948SOL    HW2  742   4.248  12.851   9.155
32949SOL     OW  743  12.805  11.871   4.823
32949SOL    HW1  744  12.797  11.901   4.732
32949SOL    HW2  745  12.745  11.927   4.872
32950SOL     OW  746   5.473   3.707   0.879
32950SOL    HW1  747   5.394   3.673   0.838
32950SOL    HW2  748   5.465   3.802   0.871
32951SOL     OW  749   0.299  10.732   7.480
32951SOL    HW1  750   0.301  10.724   7.576
32951SOL    HW2  751   0.216  10.691   7.455
32952SOL     OW  752  11.661  14.015   8.236
32952SOL    HW1  753  11.634  13.928   8.266
32952SOL    HW2  754  11.610  14.076   8.289
32953SOL     OW  755   6.658  10.828  14.327
32953SOL    HW1  756   6.651  10.816  14.421
32953SOL    HW2  757   6.674  10.922  14.315
32954SOL     OW  758   2.620   0.463   5.946
32954SOL    HW1  759   2.563   0.520   5.894
32954SOL    HW2  760   2.709   0.486   5.920
32955SOL     OW  761   4.924  12.391   2.964
32955SOL    HW1  762   4.924  12.464   3.027
32955SOL    HW2  763   4.868  12.324   3.005
32956SOL     OW  764   7.081  10.356  13.767
32956SOL    HW1  765   7.162  10.404  13.786
32956SOL    HW2  766   7.011  10.414  13.799
32957SOL     OW  767   8.091   4.464   8.494
32957SOL    HW1  768   8.078   4.389   8.436
32957SOL    HW2  769   8.036   4.533   8.457
32958SOL     OW  770   3.840   4.060   9.974
32958SOL    HW1  771   3.892   4.135  10.003
32958SOL    HW2  772   3.756   4.098   9.949
32959SOL     OW  773   4.652   5.339   7.521
32959SOL    HW1  774   4.711   5.349   7.446
32959SOL    HW2  775   4.565   5.334   7.482
32960SOL     OW  776  14.662   7.006   3.895
32960SOL    HW1  777  14.748   6.979   3.864
32960SOL    HW2  778  14.604   6.990   3.821
32961SOL     OW  779   8.070  14.765   0.619
32961SOL    HW1  780   8.095  14.696   0.680
32961SOL    HW2  781   8.039  14.836   0.675
32962SOL     OW  782   6.925   6.567   3.091
32962SOL    HW1  783   6.835   6.549   3.119
32962SOL    HW2  784   6.943   6.655   3.125
32963SOL     OW  785   7.765   5.296   6.782
32963SOL    HW1  786   7.775   5.303   6.877
32963SOL    HW2  787   7.723   5.211   6.769
32964SOL     OW  788   6.310   4.407  14.086
32964SOL    HW1  789   6.233   4.413  14.030
32964SOL    HW2  790   6.292   4.333  14.144
32965SOL     OW  791   1.773   8.744  14.645
32965SOL    HW1  792   1.710   8.813  14.624
32965SOL    HW2  793   1.737   8.665  14.604
32966SOL     OW  794   9.245   7.707   6.308
32966SOL    HW1  795   9.271   7.616   6.293
32966SOL    HW2  796   9.165   7.718   6.256
32967SOL     OW  797   0.732   1.200   0.567
32967SOL    HW1  798   0.734   1.154   0.483
32967SOL    HW2  799   0.643   1.235   0.573
32968SOL     OW  800  11.760   7.006   3.554
32968SOL    HW1  801  11.829   7.028   3.492
32968SOL    HW2  802  11.801   7.016   3.640
32969SOL     OW  803   0.512   6.486  14.541
32969SOL    HW1  804   0.502   6.571  14.585
32969SOL    HW2  805   0.467   6.497  14.457
32970SOL     OW  806   5.168  11.856  11.410
32970SOL    HW1  807   5.095  11.797  11.429
32970SOL    HW2  808   5.139  11.941  11.443
32971SOL     OW  809   7.938  11.470  12.899
32971SOL    HW1  810   7.908  11.379  12.891
32971SOL    HW2  811   7.965  11.494  12.811
32972SOL     OW  812   6.786   3.638   3.121
32972SOL    HW1  813   6.810   3.730   3.124
32972SOL    HW2  814   6.763   3.622   3.029
32973SOL     OW  815   3.478   0.504   1.626
32973SOL    HW1  816   3.450   0.413   1.624
32973SOL    HW2  817   3.553   0.505   1.684
32974SOL     OW  818  13.174   5.850  11.054
32974SOL    HW1  819  13.124   5.909  10.997
32974SOL    HW2  820  13.255   5.897  11.073
32975SOL     OW  821  13.753  11.384  14.494
32975SOL    HW1  822  13.688  11.447  14.526
32975SOL    HW2  823  13.712  11.345  14.417
32976SOL     OW  824  12.674  10.830  12.887
32976SOL    HW1  825  12.727  10.903  12.855
32976SOL    HW2  826  12.589  10.841  12.845
32977SOL     OW  827   8.818  12.249   2.994
32977SOL    HW1  828   8.797  12.221   3.084
32977SOL    HW2  829   8.904  12.291   3.001
32978SOL     OW  830  11.187  13.057  12.481
32978SOL    HW1  831  11.150  12.992  12.422
32978SOL    HW2  832  11.282  13.052  12.466
32979SOL     OW  833   2.284   4.593  12.641
32979SOL    HW1  834   2.254   4.576  12.730
32979SOL    HW2  835   2.222   4.657  12.606
32980SOL     OW  836   1.844   7.302   5.756
32980SOL    HW1  837   1.850   7.379   5.700
32980SOL    HW2  838   1.929   7.299   5.801
32981SOL     OW  839  10.418   8.379  10.097
32981SOL    HW1  840  10.366   8.369  10.018
32981SOL    HW2  841  10.354   8.396  10.166
32982SOL     OW  842   5.974   7.540  14.623
32982SOL    HW1  843   6.002   7.506  14.538
32982SOL    HW2  844   5.895   7.491  14.644
32983SOL     OW  845   5.999  13.657   6.108
32983SOL    HW1  846   6.004  13.701   6.192
32983SOL    HW2  847   5.998  13.727   6.043
32984SOL     OW  848   6.000   9.809   4.219
32984SOL    HW1  849   6.033   9.738   4.164
32984SOL    HW2  850   6.057   9.809   4.295
32985SOL     OW  851  11.305   4.867  10.538
32985SOL    HW1  852  11.376   4.910  10.586
32985SOL    HW2  853  11.296   4.918  10.457
32986SOL     OW  854   1.939   7.759   2.790
32986SOL    HW1  855   1.939   7.834   2.731
32986SOL    HW2  856   1.870   7.702   2.757
32987SOL     OW  857   1.687   9.328  12.305
32987SOL    HW1  858   1.695   9.402  12.245
32987SOL    HW2  859   1.777   9.300  12.321
32988SOL     OW  860  14.580   5.667  14.709
32988SOL    HW1  861  14.562   5.761  14.706
32988SOL    HW2  862  14.660   5.658  14.760
32989SOL     OW  863   9.065  10.917   6.669
32989SOL    HW1  864   8.995  10.964   6.624
32989SOL    HW2  865   9.134  10.982   6.681
32990SOL     OW  866   0.963   9.186   9.762
32990SOL    HW1  867   0.889   9.220   9.813
32990SOL    HW2  868   0.996   9.262   9.714
32991SOL     OW  869  14.076   7.619   6.343
32991SOL    HW1  870  14.041   7.599   6.430
32991SOL    HW2  871  14.021   7.691   6.311
32992SOL     OW  872   0.727   2.572   3.709
32992SOL    HW1  873   0.805   2.518   3.727
32992SOL    HW2  874   0.720   2.629   3.785
32993SOL     OW  875  11.949  13.897  11.452
32993SOL    HW1  876  11.942  13.923  11.360
32993SOL    HW2  877  11.947  13.979  11.501
32994SOL     OW  878   0.621  12.033   7.971
32994SOL    HW1  879   0.598  12.124   7.987
32994SOL    HW2  880   0.660  12.003   8.053
32995SOL     OW  881  11.971  12.416   9.131
32995SOL    HW1  882  11.949  12.339   9.184
32995SOL    HW2  883  12.001  12.380   9.048
32996SOL     OW  884   9.167   4.989   6.071
32996SOL    HW1  885   9.135   5.077   6.091
32996SOL    HW2  886   9.090   4.933   6.082
32997SOL     OW  887   2.182   7.135  12.222
32997SOL    HW1  888   2.104   7.123  12.168
32997SOL    HW2  889   2.245   7.073  12.186
32998SOL     OW  890   3.044   3.731   1.973
32998SOL    HW1  891   3.043   3.638   1.997
32998SOL    HW2  892   3.014   3.733   1.883
32999SOL     OW  893  13.748   4.319   9.012
32999SOL    HW1  894  13.713   4.378   8.945
32999SOL    HW2  895  13.758   4.235   8.967
33000SOL     OW  896   7.426  14.674  13.472
33000SOL    HW1  897   7.385  14.705  13.391
33000SOL    HW2  898   7.431  14.751  13.528
33001SOL     OW  899   7.699   8.592  13.268
33001SOL    HW1  900   7.721   8.509  13.226
33001SOL    HW2  901   7.776   8.648  13.255
33002SOL     OW  902   5.806   0.553   4.876
33002SOL    HW1  903   5.880   0.513   4.921
33002SOL    HW2  904   5.746   0.481   4.858
33003SOL     OW  905  10.408  12.641   7.873
33003SOL    HW1  906  10.471  12.709   7.898
33003SOL    HW2  907  10.326  12.668   7.915
33004SOL     OW  908   4.340   0.008   3.925
33004SOL    HW1  909   4.431  14.854   3.939
33004SOL    HW2  910   4.338   0.047   3.838
33005SOL     OW  911   0.931   2.910  10.501
33005SOL    HW1  912   0.848   2.931  10.544
33005SOL    HW2  913   0.953   2.988  10.451
33006SOL     OW  914   0.239   4.375   2.633
33006SOL    HW1  915   0.269   4.440   2.569
33006SOL    HW2  916   0.251   4.291   2.588
33007SOL     OW  917  10.186   4.327   5.505
33007SOL    HW1  918  10.188   4.412   5.461
33007SOL    HW2  919  10.098   4.293   5.487
33008SOL     OW  920  14.748   4.830   9.571
33008SOL    HW1  921  14.813   4.862   9.634
33008SOL    HW2  922  14.798   4.817   9.490
33009SOL     OW  923   5.269  13.096  13.091
33009SOL    HW1  924   5.309  13.158  13.030
33009SOL    HW2  925   5.340  13.072  13.151
33010SOL     OW  926  12.394   0.952   8.352
33010SOL    HW1  927  12.365   0.963   8.261
33010SOL    HW2  928  12.412   1.042   8.381
33011SOL     OW  929   5.952   1.867  11.695
33011SOL    HW1  930   6.032   1.863  11.644
33011SOL    HW2  931   5.901   1.791  11.666
33012SOL     OW  932  14.602   1.942   8.131
33012SOL    HW1  933  14.612   1.848   8.115
33012SOL    HW2  934  14.527   1.947   8.191
33013SOL     OW  935   0.988   1.636   7.124
33013SOL    HW1  936   0.948   1.585   7.194
33013SOL    HW2  937   1.080   1.611   7.124
33014SOL     OW  938   7.655   6.634   2.713
33014SOL    HW1  939   7.624   6.658   2.626
33014SOL    HW2  940   7.608   6.554   2.734
33015SOL     OW  941   8.509   8.186  12.505
33015SOL    HW1  942   8.414   8.179  12.494
33015SOL    HW2  943   8.521   8.267  12.554
33016SOL     OW  944   7.892  12.444  11.573
33016SOL    HW1  945   7.956  12.479  11.635
33016SOL    HW2  946   7.945  12.407  11.502
33017SOL     OW  947   1.833   8.764   3.086
33017SOL    HW1  948   1.856   8.842   3.036
33017SOL    HW2  949   1.802   8.701   3.020
33018SOL     OW  950   1.896  10.404   6.993
33018SOL    HW1  951   1.827  10.368   6.938
33018SOL    HW2  952   1.869  10.495   7.009
33019SOL     OW  953  10.185   4.044  11.452
33019SOL    HW1  954  10.232   4.030  11.370
33019SOL    HW2  955  10.254   4.048  11.518
33020SOL     OW  956   1.650   9.883   9.589
33020SOL    HW1  957   1.740   9.912   9.600
33020SOL    HW2  958   1.647   9.844   9.502
33021SOL     OW  959   5.951   3.619  10.230
33021SOL    HW1  960   5.955   3.545  10.169
33021SOL    HW2  961   6.015   3.597  10.298
33022SOL     OW  962   7.964  10.711   6.714
33022SOL    HW1  963   7.926  10.670   6.636
33022SOL    HW2  964   7.997  10.638   6.766
33023SOL     OW  965   5.128   8.188  13.152
33023SOL    HW1  966   5.211   8.233  13.167
33023SOL    HW2  967   5.115   8.192  13.058
33024SOL     OW  968   6.600   5.338  10.297
33024SOL    HW1  969   6.522   5.283  10.298
33024SOL    HW2  970   6.641   5.324  10.382
33025SOL     OW  971   1.064   6.640  10.852
33025SOL    HW1  972   1.132   6.592  10.900
33025SOL    HW2  973   1.089   6.732  10.861
33026SOL     OW  974  10.020  10.019  10.047
33026SOL    HW1  975  10.078  10.015   9.971
33026SOL    HW2  976   9.985  10.108  10.046
33027SOL     OW  977  10.829   3.900   8.282
33027SOL    HW1  978  10.831   3.892   8.378
33027SOL    HW2  979  10.750   3.951   8.264
33028SOL     OW  980   0.415  10.372   0.524
33028SOL    HW1  981   0.351  10.350   0.455
33028SOL    HW2  982   0.379  10.451   0.565
33029SOL     OW  983   1.226   6.772   8.694
33029SOL    HW1  984   1.293   6.836   8.717
33029SOL    HW2  985   1.227   6.770   8.598
33030SOL     OW  986   9.957  13.291   7.878
33030SOL    HW1  987   9.900  13.219   7.904
33030SOL    HW2  988  10.032  13.248   7.837
33031SOL     OW  989   4.255  11.231  12.373
33031SOL    HW1  990   4.341  11.268  12.390
33031SOL    HW2  991   4.196  11.279  12.432
33032SOL     OW  992   8.995  14.256  13.706
33032SOL    HW1  993   9.068  14.198  13.725
33032SOL    HW2  994   8.922  14.197  13.687
33033SOL     OW  995   2.942   2.321   3.593
33033SOL    HW1  996   2.950   2.225   3.596
33033SOL    HW2  997   3.014   2.349   3.537
33034SOL     OW  998   0.330   2.982  11.208
33034SOL    HW1  999   0.290   2.970  11.121
33034SOL    HW2 1000   0.396   3.050  11.194
33035SOL     OW 1001  12.790  10.941  10.303
33035SOL    HW1 1002  12.808  10.896  10.386
33035SOL    HW2 1003  12.713  10.897  10.268
33036SOL     OW 1004   4.337  13.166   2.703
33036SOL    HW1 1005   4.389  13.222   2.645
33036SOL    HW2 1006   4.267  13.223   2.735
33037SOL     OW 1007   5.196   7.575   0.872
33037SOL    HW1 1008   5.134   7.643   0.898
33037SOL    HW2 1009   5.187   7.570   0.777
33038SOL     OW 1010  14.052  14.860   6.274
33038SOL    HW1 1011  14.058   0.031   6.188
33038SOL    HW2 1012  14.020   0.060   6.331
33039SOL     OW 1013   0.864   6.437   5.154
33039SOL    HW1 1014   0.860   6.516   5.209
33039SOL    HW2 1015   0.811   6.373   5.202
33040SOL     OW 1016  10.128   5.159   8.195
33040SOL    HW1 1017  10.157   5.154   8.287
33040SOL    HW2 1018  10.153   5.246   8.167
33041SOL     OW 1019   3.467   9.690  10.594
33041SOL    HW1 1020   3.536   9.680  10.528
33041SOL    HW2 1021   3.439   9.601  10.614
33042SOL     OW 1022   2.510  11.509  10.563
33042SOL    HW1 1023   2.536  11.470  10.646
33042SOL    HW2 1024   2.446  11.447  10.527
33043SOL     OW 1025   1.700   1.934   2.465
33043SOL    HW1 1026   1.756   1.908   2.538
33043SOL    HW2 1027   1.628   1.983   2.506
33044SOL     OW 1028   3.934  14.613  11.410
33044SOL    HW1 1029   3.975  14.602  11.325
33044SOL    HW2 1030   3.858  14.556  11.409
33045SOL     OW 1031   8.931  12.325  13.325
33045SOL    HW1 1032   8.934  12.233  13.351
33045SOL    HW2 1033   8.880  12.326  13.244
33046SOL     OW 1034   7.016   8.972  13.785
33046SOL    HW1 1035   7.019   8.905  13.717
33046SOL    HW2 1036   7.094   9.025  13.770
33047SOL     OW 1037  12.727   3.140   7.974
33047SOL    HW1 1038  12.752   3.112   7.886
33047SOL    HW2 1039  12.647   3.091   7.993
33048SOL     OW 1040   8.921  13.959   4.829
33048SOL    HW1 1041   8.905  14.053   4.830
33048SOL    HW2 1042   8.877  13.928   4.750
33049SOL     OW 1043   2.399   4.021  12.130
33049SOL    HW1 1044   2.389   3.976  12.214
33049SOL    HW2 1045   2.443   4.104  12.151
33050SOL     OW 1046  10.174   6.518   4.712
33050SOL    HW1 1047  10.161   6.612   4.726
33050SOL    HW2 1048  10.134   6.477   4.789
33051SOL     OW 1049  14.693   4.889  14.464
33051SOL    HW1 1050  14.758   4.896  14.535
33051SOL    HW2 1051  14.737   4.836  14.398
33052SOL     OW 1052  12.846   3.209   7.343
33052SOL    HW1 1053  12.798   3.127   7.334
33052SOL    HW2 1054  12.819   3.262   7.268
33053SOL     OW 1055   6.700  14.484   9.375
33053SOL    HW1 1056   6.781  14.479   9.426
33053SOL    HW2 1057   6.647  14.550   9.420
33054SOL     OW 1058   7.398   0.504   9.468
33054SOL    HW1 1059   7.353   0.426   9.435
33054SOL    HW2 1060   7.345   0.577   9.436
33055SOL     OW 1061  11.729  12.108   6.015
33055SOL    HW1 1062  11.787  12.047   5.970
33055SOL    HW2 1063  11.657  12.123   5.954
33056SOL     OW 1064   3.858  13.662  10.277
33056SOL    HW1 1065   3.832  13.570  10.276
33056SOL    HW2 1066   3.812  13.701  10.202
33057SOL     OW 1067  10.390  11.595  14.867
33057SOL    HW1 1068  10.359  11.505  14.857
33057SOL    HW2 1069  10.424  11.619  14.781
33058SOL     OW 1070   3.351  12.096  10.344
33058SOL    HW1 1071   3.308  12.157  10.283
33058SOL    HW2 1072   3.417  12.150  10.388
33059SOL     OW 1073   4.926  13.140   5.667
33059SOL    HW1 1074   4.945  13.095   5.585
33059SOL    HW2 1075   4.859  13.204   5.645
33060SOL     OW 1076  13.485   9.574   7.858
33060SOL    HW1 1077  13.443   9.598   7.941
33060SOL    HW2 1078  13.573   9.612   7.865
33061SOL     OW 1079   1.059   6.022  11.942
33061SOL    HW1 1080   1.137   5.978  11.908
33061SOL    HW2 1081   1.020   5.958  12.002
33062SOL     OW 1082   8.326  10.245   7.093
33062SOL    HW1 1083   8.414  10.277   7.115
33062SOL    HW2 1084   8.280  10.242   7.177
33063SOL     OW 1085   5.654   6.160   7.220
33063SOL    HW1 1086   5.748   6.181   7.221
33063SOL    HW2 1087   5.637   6.131   7.130
33064SOL     OW 1088   7.239   5.866   2.121
33064SOL    HW1 1089   7.195   5.909   2.194
33064SOL    HW2 1090   7.178   5.874   2.048
33065SOL     OW 1091   0.486  13.650   0.606
33065SOL    HW1 1092   0.524  13.698   0.532
33065SOL    HW2 1093   0.518  13.696   0.683
33066SOL     OW 1094  12.212   0.107   3.009
33066SOL    HW1 1095  12.167   0.065   3.082
33066SOL    HW2 1096  12.189   0.200   3.017
33067SOL     OW 1097   5.407   9.596   4.036
33067SOL    HW1 1098   5.385   9.688   4.052
33067SOL    HW2 1099   5.482   9.600   3.977
33068SOL     OW 1100   2.482  10.098  12.982
33068SOL    HW1 1101   2.457  10.165  13.045
33068SOL    HW2 1102   2.503  10.021  13.035
33069SOL     OW 1103   0.536   3.532  11.169
33069SOL    HW1 1104   0.500   3.558  11.084
33069SOL    HW2 1105   0.529   3.611  11.223
33070SOL     OW 1106   8.158   7.939   9.566
33070SOL    HW1 1107   8.187   7.921   9.656
33070SOL    HW2 1108   8.229   7.905   9.511
33071SOL     OW 1109   8.459   9.872   7.139
33071SOL    HW1 1110   8.412   9.878   7.222
33071SOL    HW2 1111   8.548   9.846   7.164
33072SOL     OW 1112  14.427   9.477   2.822
33072SOL    HW1 1113  14.452   9.452   2.733
33072SOL    HW2 1114  14.401   9.568   2.815
33073SOL     OW 1115   8.196   7.388   0.632
33073SOL    HW1 1116   8.226   7.379   0.541
33073SOL    HW2 1117   8.113   7.340   0.634
33074SOL     OW 1118   9.425  12.333   6.680
33074SOL    HW1 1119   9.502  12.372   6.637
33074SOL    HW2 1120   9.462  12.267   6.738
33075SOL     OW 1121   6.358   5.692   1.642
33075SOL    HW1 1122   6.281   5.676   1.696
33075SOL    HW2 1123   6.419   5.738   1.700
33076SOL     OW 1124  11.048   2.094   0.123
33076SOL    HW1 1125  11.022   2.184   0.142
33076SOL    HW2 1126  11.048   2.051   0.209
33077SOL     OW 1127   4.884   4.598   1.341
33077SOL    HW1 1128   4.870   4.510   1.305
33077SOL    HW2 1129   4.950   4.586   1.409
33078SOL     OW 1130  13.908   8.141   7.113
33078SOL    HW1 1131  13.876   8.193   7.186
33078SOL    HW2 1132  14.003   8.146   7.120
33079SOL     OW 1133  14.592   0.844   2.851
33079SOL    HW1 1134  14.668   0.886   2.891
33079SOL    HW2 1135  14.624   0.811   2.767
33080SOL     OW 1136  10.679   9.416  12.222
33080SOL    HW1 1137  10.736   9.481  12.180
33080SOL    HW2 1138  10.602   9.465  12.250
33081SOL     OW 1139  12.125   7.965   7.194
33081SOL    HW1 1140  12.183   7.890   7.211
33081SOL    HW2 1141  12.178   8.041   7.215
33082SOL     OW 1142   5.240   3.770  14.008
33082SOL    HW1 1143   5.223   3.702  13.942
33082SOL    HW2 1144   5.195   3.740  14.086
33083SOL     OW 1145   5.163   3.835  12.563
33083SOL    HW1 1146   5.086   3.795  12.604
33083SOL    HW2 1147   5.166   3.796  12.475
33084SOL     OW 1148   0.529  13.438   6.324
33084SOL    HW1 1149   0.491  13.494   6.391
33084SOL    HW2 1150   0.623  13.443   6.337
33085SOL     OW 1151   0.176   4.947  10.312
33085SOL    HW1 1152   0.081   4.962  10.317
33085SOL    HW2 1153   0.201   4.985  10.228
33086SOL     OW 1154   1.453  13.595   1.097
33086SOL    HW1 1155   1.404  13.625   1.020
33086SOL    HW2 1156   1.496  13.515   1.067
33087SOL     OW 1157   4.729  13.313  11.845
33087SOL    HW1 1158   4.804  13.363  11.812
33087SOL    HW2 1159   4.654  13.349  11.800
33088SOL     OW 1160  14.610   0.176   8.403
33088SOL    HW1 1161  14.515   0.191   8.402
33088SOL    HW2 1162  14.626   0.124   8.325
33089SOL     OW 1163   2.579   1.888   3.346
33089SOL    HW1 1164   2.525   1.960   3.379
33089SOL    HW2 1165   2.545   1.872   3.258
33090SOL     OW 1166  12.597  11.467   4.927
33090SOL    HW1 1167  12.633  11.455   5.016
33090SOL    HW2 1168  12.561  11.556   4.929
33091SOL     OW 1169   1.793   9.391   8.158
33091SOL    HW1 1170   1.831   9.402   8.071
33091SOL    HW2 1171   1.769   9.479   8.186
33092SOL     OW 1172   6.690   2.902  13.187
33092SOL    HW1 1173   6.681   2.825  13.131
33092SOL    HW2 1174   6.650   2.973  13.136
33093SOL     OW 1175  14.460   6.705   3.657
33093SOL    HW1 1176  14.472   6.684   3.564
33093SOL    HW2 1177  14.482   6.624   3.703
33094SOL     OW 1178  13.297   4.154   0.758
33094SOL    HW1 1179  13.387   4.140   0.730
33094SOL    HW2 1180  13.296   4.243   0.792
33095SOL     OW 1181  14.692   2.516   5.616
33095SOL    HW1 1182  14.639   2.445   5.653
33095SOL    HW2 1183  14.639   2.549   5.544
33096SOL     OW 1184   1.237   6.051  12.402
33096SOL    HW1 1185   1.197   5.988  12.461
33096SOL    HW2 1186   1.313   6.006  12.366
33097SOL     OW 1187   1.169  10.894   1.786
33097SOL    HW1 1188   1.096  10.833   1.797
33097SOL    HW2 1189   1.160  10.927   1.696
33098SOL     OW 1190  14.111  10.031   9.787
33098SOL    HW1 1191  14.038  10.085   9.818
33098SOL    HW2 1192  14.179  10.094   9.763
33099SOL     OW 1193  13.394   2.766   9.249
33099SOL    HW1 1194  13.471   2.760   9.305
33099SOL    HW2 1195  13.384   2.859   9.232
33100SOL     OW 1196   5.338  10.750   7.540
33100SOL    HW1 1197   5.432  10.734   7.532
33100SOL    HW2 1198   5.305  10.675   7.589
33101SOL     OW 1199   7.013   5.220   9.932
33101SOL    HW1 1200   6.996   5.246  10.023
33101SOL    HW2 1201   6.956   5.277   9.880
33102SOL     OW 1202   3.103   2.631   8.205
33102SOL    HW1 1203   3.086   2.548   8.162
33102SOL    HW2 1204   3.139   2.607   8.290
33103SOL     OW 1205   5.323  14.816   0.766
33103SOL    HW1 1206   5.265   0.022   0.764
33103SOL    HW2 1207   5.404  14.847   0.725
33104SOL     OW 1208   4.727   4.205   3.339
33104SOL    HW1 1209   4.737   4.141   3.410
33104SOL    HW2 1210   4.639   4.240   3.352
33105SOL     OW 1211  13.797   8.943  10.622
33105SOL    HW1 1212  13.881   8.961  10.663
33105SOL    HW2 1213  13.734   8.947  10.695
33106SOL     OW 1214  14.036   3.103   9.594
33106SOL    HW1 1215  14.121   3.074   9.560
33106SOL    HW2 1216  14.047   3.197   9.608
33107SOL     OW 1217   8.155   3.525   1.599
33107SOL    HW1 1218   8.099   3.603   1.598
33107SOL    HW2 1219   8.176   3.510   1.507
33108SOL     OW 1220  11.128   8.759   1.516
33108SOL    HW1 1221  11.221   8.737   1.512
33108SOL    HW2 1222  11.103   8.779   1.426
33109SOL     OW 1223  12.204   0.892   1.424
33109SOL    HW1 1224  12.195   0.805   1.386
33109SOL    HW2 1225  12.199   0.952   1.349
33110SOL     OW 1226  11.659   6.213   4.310
33110SOL    HW1 1227  11.616   6.154   4.371
33110SOL    HW2 1228  11.741   6.237   4.354
33111SOL     OW 1229  13.347   1.369   2.868
33111SOL    HW1 1230  13.350   1.284   2.913
33111SOL    HW2 1231  13.286   1.422   2.920
33112SOL     OW 1232  10.877   8.380  12.899
33112SOL    HW1 1233  10.884   8.304  12.842
33112SOL    HW2 1234  10.916   8.452  12.849
33113SOL     OW 1235  12.466   1.525   1.389
33113SOL    HW1 1236  12.538   1.566   1.436
33113SOL    HW2 1237  12.388   1.543   1.442
33114SOL     OW 1238   6.628   7.275   3.954
33114SOL    HW1 1239   6.629   7.180   3.953
33114SOL    HW2 1240   6.574   7.298   4.029
33115SOL     OW 1241   2.850  13.933   0.945
33115SOL    HW1 1242   2.932  13.922   0.994
33115SOL    HW2 1243   2.782  13.934   1.012
33116SOL     OW 1244   5.865  12.366   6.026
33116SOL    HW1 1245   5.836  12.449   5.989
33116SOL    HW2 1246   5.791  12.337   6.080
33117SOL     OW 1247   1.893  10.565   8.304
33117SOL    HW1 1248   1.802  10.542   8.287
33117SOL    HW2 1249   1.892  10.613   8.386
33118SOL     OW 1250   3.770   9.013   7.630
33118SOL    HW1 1251   3.758   8.921   7.653
33118SOL    HW2 1252   3.865   9.026   7.632
33119SOL     OW 1253   2.686  13.024   7.866
33119SOL    HW1 1254   2.641  13.018   7.951
33119SOL    HW2 1255   2.685  13.118   7.846
33120SOL     OW 1256   2.157  10.034   9.177
33120SOL    HW1 1257   2.213   9.977   9.124
33120SOL    HW2 1258   2.182  10.015   9.268
33121SOL     OW 1259  11.198   7.925  11.703
33121SOL    HW1 1260  11.140   7.985  11.656
33121SOL    HW2 1261  11.277   7.976  11.718
33122SOL     OW 1262   3.027  12.566  14.568
33122SOL    HW1 1263   3.035  12.576  14.663
33122SOL    HW2 1264   2.937  12.592  14.548
33123SOL     OW 1265  11.682  12.325   1.552
33123SOL    HW1 1266  11.643  12.368   1.628
33123SOL    HW2 1267  11.616  12.264   1.522
33124SOL     OW 1268   5.572   2.554   3.805
33124SOL    HW1 1269   5.502   2.488   3.808
33124SOL    HW2 1270   5.555   2.611   3.879
33125SOL     OW 1271  13.431   2.324   5.500
33125SOL    HW1 1272  13.412   2.248   5.555
33125SOL    HW2 1273  13.345   2.360   5.478
33126SOL     OW 1274   8.956   4.359  11.481
33126SOL    HW1 1275   9.043   4.349  11.519
33126SOL    HW2 1276   8.956   4.303  11.404
33127SOL     OW 1277   9.183   7.933   1.129
33127SOL    HW1 1278   9.247   7.874   1.088
33127SOL    HW2 1279   9.230   7.973   1.201
33128SOL     OW 1280   4.190   8.033  10.339
33128SOL    HW1 1281   4.132   7.965  10.375
33128SOL    HW2 1282   4.206   8.005  10.249
33129SOL     OW 1283  12.118  11.067   1.013
33129SOL    HW1 1284  12.168  11.149   1.014
33129SOL    HW2 1285  12.171  11.007   0.960
33130SOL     OW 1286   5.700   0.579   5.790
33130SOL    HW1 1287   5.651   0.659   5.772
33130SOL    HW2 1288   5.646   0.509   5.753
33131SOL     OW 1289   7.858   9.935   0.483
33131SOL    HW1 1290   7.886   9.859   0.433
33131SOL    HW2 1291   7.938   9.987   0.494
33132SOL     OW 1292   6.946   6.757   4.709
33132SOL    HW1 1293   6.930   6.714   4.625
33132SOL    HW2 1294   7.036   6.789   4.703
33133SOL     OW 1295   9.742   3.594   4.696
33133SOL    HW1 1296   9.673   3.611   4.761
33133SOL    HW2 1297   9.705   3.625   4.613
33134SOL     OW 1298  12.067  11.533   4.211
33134SOL    HW1 1299  12.052  11.443   4.182
33134SOL    HW2 1300  12.116  11.573   4.139
33135SOL     OW 1301   9.857  11.432  10.551
33135SOL    HW1 1302   9.906  11.460  10.474
33135SOL    HW2 1303   9.765  11.439  10.526
33136SOL     OW 1304   3.690   0.068   9.890
33136SOL    HW1 1305   3.759   0.011   9.854
33136SOL    HW2 1306   3.623   0.007   9.921
33137SOL     OW 1307  11.707  11.612   2.892
33137SOL    HW1 1308  11.724  11.658   2.809
33137SOL    HW2 1309  11.692  11.682   2.956
33138SOL     OW 1310  11.540   5.554  10.546
33138SOL    HW1 1311  11.487   5.551  10.467
33138SOL    HW2 1312  11.630   5.558  10.515
33139SOL     OW 1313  13.458   2.897   7.913
33139SOL    HW1 1314  13.468   2.992   7.909
33139SOL    HW2 1315  13.366   2.884   7.937
33140SOL     OW 1316   9.951   5.433  14.632
33140SOL    HW1 1317   9.917   5.480  14.708
33140SOL    HW2 1318   9.880   5.373  14.608
33141SOL     OW 1319  10.060   2.421  13.022
33141SOL    HW1 1320  10.128   2.382  13.076
33141SOL    HW2 1321   9.979   2.378  13.050
33142SOL     OW 1322   7.147   6.809  12.044
33142SOL    HW1 1323   7.219   6.824  11.982
33142SOL    HW2 1324   7.171   6.859  12.122
33143SOL     OW 1325  11.806  10.941   8.622
33143SOL    HW1 1326  11.823  11.017   8.678
33143SOL    HW2 1327  11.883  10.936   8.565
33144SOL     OW 1328   5.005   5.586   1.635
33144SOL    HW1 1329   4.980   5.505   1.590
33144SOL    HW2 1330   5.071   5.626   1.578
33145SOL     OW 1331  14.477  14.316   5.253
33145SOL    HW1 1332  14.449  14.361   5.173
33145SOL    HW2 1333  14.498  14.386   5.314
33146SOL     OW 1334   6.273   2.685   7.492
33146SOL    HW1 1335   6.218   2.757   7.521
33146SOL    HW2 1336   6.213   2.626   7.446
33147SOL     OW 1337   6.845  12.763   8.252
33147SOL    HW1 1338   6.938  12.767   8.271
33147SOL    HW2 1339   6.834  12.816   8.173
33148SOL     OW 1340  14.654   1.704   8.285
33148SOL    HW1 1341  14.656   1.620   8.331
33148SOL    HW2 1342  14.647   1.681   8.193
33149SOL     OW 1343   2.291   3.513  10.024
33149SOL    HW1 1344   2.378   3.493  10.059
33149SOL    HW2 1345   2.232   3.498  10.098
33150SOL     OW 1346  10.648   4.755   6.900
33150SOL    HW1 1347  10.736   4.773   6.867
33150SOL    HW2 1348  10.661   4.732   6.992
33151SOL     OW 1349   7.499   8.923   7.953
33151SOL    HW1 1350   7.415   8.967   7.946
33151SOL    HW2 1351   7.510   8.906   8.047
33152SOL     OW 1352   3.684   0.719  10.164
33152SOL    HW1 1353   3.735   0.639  10.154
33152SOL    HW2 1354   3.651   0.738  10.076
33153SOL     OW 1355   9.947  11.345   4.591
33153SOL    HW1 1356   9.953  11.366   4.684
33153SOL    HW2 1357  10.019  11.393   4.551
33154SOL     OW 1358   2.182  14.407  11.122
33154SOL    HW1 1359   2.097  14.370  11.100
33154SOL    HW2 1360   2.170  14.444  11.209
33155SOL     OW 1361   4.200   6.724   1.588
33155SOL    HW1 1362   4.203   6.668   1.666
33155SOL    HW2 1363   4.149   6.673   1.524
33156SOL     OW 1364  11.362   7.282   0.605
33156SOL    HW1 1365  11.334   7.244   0.688
33156SOL    HW2 1366  11.356   7.210   0.543
33157SOL     OW 1367   4.882   4.361   1.201
33157SOL    HW1 1368   4.884   4.344   1.107
33157SOL    HW2 1369   4.971   4.342   1.230
33158SOL     OW 1370   1.503   4.555  14.108
33158SOL    HW1 1371   1.536   4.482  14.055
33158SOL    HW2 1372   1.450   4.514  14.175
33159SOL     OW 1373   1.702   1.630   5.339
33159SOL    HW1 1374   1.658   1.674   5.267
33159SOL    HW2 1375   1.632   1.588   5.389
33160SOL     OW 1376   7.089   6.624  11.366
33160SOL    HW1 1377   7.178   6.602  11.337
33160SOL    HW2 1378   7.038   6.544  11.349
33161SOL     OW 1379   6.741   5.342  12.554
33161SOL    HW1 1380   6.813   5.377  12.605
33161SOL    HW2 1381   6.668   5.337  12.615
33162SOL     OW 1382   8.910   9.904   3.668
33162SOL    HW1 1383   8.937   9.946   3.750
33162SOL    HW2 1384   8.963   9.824   3.663
33163SOL     OW 1385   2.570   7.948   6.639
33163SOL    HW1 1386   2.614   8.008   6.579
33163SOL    HW2 1387   2.513   7.896   6.583
33164SOL     OW 1388   6.758   1.800   7.240
33164SOL    HW1 1389   6.824   1.786   7.308
33164SOL    HW2 1390   6.804   1.783   7.158
33165SOL     OW 1391   1.993   1.434   4.404
33165SOL    HW1 1392   2.039   1.510   4.368
33165SOL    HW2 1393   2.015   1.434   4.497
33166SOL     OW 1394  11.665  10.061   2.751
33166SOL    HW1 1395  11.736  10.125   2.756
33166SOL    HW2 1396  11.602  10.089   2.817
33167SOL     OW 1397   5.585   5.011  12.215
33167SOL    HW1 1398   5.553   4.981  12.300
33167SOL    HW2 1399   5.510   5.002  12.156
33168SOL     OW 1400  14.118   3.475   8.985
33168SOL    HW1 1401  14.075   3.515   9.060
33168SOL    HW2 1402  14.050   3.472   8.917
33169SOL     OW 1403   1.342   9.838   9.580
33169SOL    HW1 1404   1.409   9.834   9.512
33169SOL    HW2 1405   1.386   9.876   9.656
33170SOL     OW 1406   4.162  10.971   2.806
33170SOL    HW1 1407   4.123  11.047   2.764
33170SOL    HW2 1408   4.102  10.899   2.786
33171SOL     OW 1409   9.271   4.408   8.724
33171SOL    HW1 1410   9.191   4.461   8.728
33171SOL    HW2 1411   9.239   4.317   8.721
33172SOL     OW 1412   3.588  10.354   6.809
33172SOL    HW1 1413   3.678  10.375   6.832
33172SOL    HW2 1414   3.594  10.278   6.752
33173SOL     OW 1415   1.269   5.853  10.280
33173SOL    HW1 1416   1.249   5.930  10.334
33173SOL    HW2 1417   1.203   5.788  10.306
33174SOL     OW 1418  12.051   1.084   3.106
33174SOL    HW1 1419  11.980   1.147   3.113
33174SOL    HW2 1420  12.065   1.053   3.196
33175SOL     OW 1421  11.469   6.742  10.372
33175SOL    HW1 1422  11.558   6.759  10.401
33175SOL    HW2 1423  11.474   6.740  10.276
33176SOL     OW 1424   7.818   0.198  10.345
33176SOL    HW1 1425   7.811   0.244  10.428
33176SOL    HW2 1426   7.758   0.124  10.353
33177SOL     OW 1427   5.598  11.860   2.901
33177SOL    HW1 1428   5.517  11.821   2.934
33177SOL    HW2 1429   5.665  11.831   2.963
33178SOL     OW 1430  10.252   7.263  10.762
33178SOL    HW1 1431  10.275   7.183  10.808
33178SOL    HW2 1432  10.298   7.256  10.678
33179SOL     OW 1433  11.594   9.298  14.491
33179SOL    HW1 1434  11.634   9.354  14.557
33179SOL    HW2 1435  11.507   9.335  14.477
33180SOL     OW 1436  10.851  11.478   1.663
33180SOL    HW1 1437  10.809  11.536   1.599
33180SOL    HW2 1438  10.788  11.407   1.676
33181SOL     OW 1439  12.804  10.599  14.278
33181SOL    HW1 1440  12.883  10.575  14.327
33181SOL    HW2 1441  12.744  10.634  14.343
33182SOL     OW 1442  13.184   3.963   9.035
33182SOL    HW1 1443  13.159   4.044   8.990
33182SOL    HW2 1444  13.256   3.928   8.982
33183SOL     OW 1445   4.490   3.430  12.777
33183SOL    HW1 1446   4.484   3.469  12.864
33183SOL    HW2 1447   4.491   3.504  12.717
33184SOL     OW 1448  11.584  10.614   2.946
33184SOL    HW1 1449  11.638  10.632   3.023
33184SOL    HW2 1450  11.589  10.695   2.894
33185SOL     OW 1451   6.319   2.440   2.345
33185SOL    HW1 1452   6.362   2.437   2.430
33185SOL    HW2 1453   6.301   2.349   2.324
33186SOL     OW 1454   9.225  12.896  11.393
33186SOL    HW1 1455   9.300  12.843  11.420
33186SOL    HW2 1456   9.152  12.834  11.392
33187SOL     OW 1457   1.059   9.965  14.813
33187SOL    HW1 1458   1.039   9.928   0.029
33187SOL    HW2 1459   1.123  10.034  14.831
33188SOL     OW 1460  12.139  11.815  10.265
33188SOL    HW1 1461  12.083  11.883  10.228
33188SOL    HW2 1462  12.228  11.846  10.248
33189SOL     OW 1463  10.735   3.681  12.202
33189SOL    HW1 1464  10.687   3.607  12.241
33189SOL    HW2 1465  10.818   3.643  12.174
33190SOL     OW 1466  10.473   3.189   2.305
33190SOL    HW1 1467  10.383   3.215   2.283
33190SOL    HW2 1468  10.519   3.191   2.221
33191SOL     OW 1469   9.410  10.150   8.759
33191SOL    HW1 1470   9.439  10.137   8.849
33191SOL    HW2 1471   9.400  10.245   8.751
33192SOL     OW 1472   1.696   0.739  11.661
33192SOL    HW1 1473   1.616   0.763  11.615
33192SOL    HW2 1474   1.766   0.777  11.608
33193SOL     OW 1475   8.910   0.149   6.519
33193SOL    HW1 1476   8.855   0.084   6.564
33193SOL    HW2 1477   8.936   0.210   6.588
33194SOL     OW 1478  10.396  10.848   0.007
33194SOL    HW1 1479  10.451  10.812  14.807
33194SOL    HW2 1480  10.308  10.852  14.838
33195SOL     OW 1481   2.071   0.112   6.819
33195SOL    HW1 1482   2.150   0.140   6.773
33195SOL    HW2 1483   2.009   0.093   6.748
33196SOL     OW 1484   7.336   5.012  11.654
33196SOL    HW1 1485   7.291   5.016  11.570
33196SOL    HW2 1486   7.295   5.082  11.706
33197SOL     OW 1487   8.650   0.374   6.806
33197SOL    HW1 1488   8.622   0.418   6.886
33197SOL    HW2 1489   8.569   0.346   6.764
33198SOL     OW 1490   4.916  12.171   0.620
33198SOL    HW1 1491   4.991  12.148   0.566
33198SOL    HW2 1492   4.953  12.221   0.693
33199SOL     OW 1493   0.706   8.813  11.844
33199SOL    HW1 1494   0.702   8.831  11.750
33199SOL    HW2 1495   0.630   8.757  11.861
33200SOL     OW 1496  13.294   6.249  12.572
33200SOL    HW1 1497  13.389   6.245  12.563
33200SOL    HW2 1498  13.265   6.158  12.563
33201SOL     OW 1499   7.112   8.520   5.144
33201SOL    HW1 1500   7.169   8.517   5.067
33201SOL    HW2 1501   7.038   8.574   5.117
33202SOL     OW 1502  12.301   8.374  13.379
33202SOL    HW1 1503  12.300   8.336  13.467
33202SOL    HW2 1504  12.261   8.307  13.323
33203SOL     OW 1505   4.130  13.429   5.341
33203SOL    HW1 1506   4.039  13.439   5.371
33203SOL    HW2 1507   4.128  13.353   5.283
33204SOL     OW 1508  10.964   6.239   7.030
33204SOL    HW1 1509  11.015   6.319   7.018
33204SOL    HW2 1510  10.927   6.246   7.118
33205SOL     OW 1511   3.429   9.354  10.503
33205SOL    HW1 1512   3.424   9.284  10.437
33205SOL    HW2 1513   3.356   9.412  10.482
33206SOL     OW 1514   3.665   8.138   0.489
33206SOL    HW1 1515   3.755   8.167   0.475
33206SOL    HW2 1516   3.671   8.066   0.551
33207SOL     OW 1517   4.128  12.264  10.953
33207SOL    HW1 1518   4.146  12.213  11.031
33207SOL    HW2 1519   4.198  12.239  10.892
33208SOL     OW 1520   8.736   7.373   6.242
33208SOL    HW1 1521   8.694   7.366   6.327
33208SOL    HW2 1522   8.685   7.314   6.186
33209SOL     OW 1523  11.485   8.597   6.508
33209SOL    HW1 1524  11.495   8.655   6.584
33209SOL    HW2 1525  11.398   8.618   6.473
33210SOL     OW 1526  12.065  10.805   0.663
33210SOL    HW1 1527  12.051  10.868   0.593
33210SOL    HW2 1528  12.023  10.725   0.631
33211SOL     OW 1529  12.495  14.637  11.250
33211SOL    HW1 1530  12.577  14.639  11.300
33211SOL    HW2 1531  12.441  14.703  11.293
33212SOL     OW 1532   7.659  14.427  10.499
33212SOL    HW1 1533   7.589  14.366  10.524
33212SOL    HW2 1534   7.732  14.405  10.557
33213SOL     OW 1535  13.575   6.869   2.890
33213SOL    HW1 1536  13.549   6.795   2.944
33213SOL    HW2 1537  13.537   6.851   2.804
33214SOL     OW 1538   4.501   5.500  14.473
33214SOL    HW1 1539   4.425   5.558  14.479
33214SOL    HW2 1540   4.532   5.491  14.563
33215SOL     OW 1541   5.065   0.726   7.308
33215SOL    HW1 1542   5.051   0.729   7.403
33215SOL    HW2 1543   5.159   0.713   7.298
33216SOL     OW 1544   6.333   4.134   4.610
33216SOL    HW1 1545   6.335   4.228   4.628
33216SOL    HW2 1546   6.380   4.094   4.683
33217SOL     OW 1547   1.709   8.698  13.281
33217SOL    HW1 1548   1.668   8.784  13.276
33217SOL    HW2 1549   1.651   8.640  13.233
33218SOL     OW 1550  14.426   5.566   8.457
33218SOL    HW1 1551  14.490   5.525   8.399
33218SOL    HW2 1552  14.353   5.590   8.400
33219SOL     OW 1553   0.984   3.615   3.278
33219SOL    HW1 1554   0.992   3.532   3.325
33219SOL    HW2 1555   0.927   3.595   3.204
33220SOL     OW 1556   7.958   6.413   0.432
33220SOL    HW1 1557   8.011   6.389   0.508
33220SOL    HW2 1558   7.885   6.464   0.469
33221SOL     OW 1559  13.522   1.713   7.921
33221SOL    HW1 1560  13.602   1.721   7.972
33221SOL    HW2 1561  13.468   1.787   7.948
33222SOL     OW 1562   4.520   0.620   7.035
33222SOL    HW1 1563   4.609   0.585   7.025
33222SOL    HW2 1564   4.487   0.625   6.945
33223SOL     OW 1565   9.441   0.474   3.569
33223SOL    HW1 1566   9.459   0.431   3.485
33223SOL    HW2 1567   9.388   0.551   3.545
33224SOL     OW 1568   8.338   7.037   4.401
33224SOL    HW1 1569   8.285   7.033   4.481
33224SOL    HW2 1570   8.372   6.948   4.391
33225SOL     OW 1571  11.020  12.118   3.563
33225SOL    HW1 1572  10.939  12.132   3.513
33225SOL    HW2 1573  10.993  12.126   3.654
33226SOL     OW 1574   4.951   4.700  13.920
33226SOL    HW1 1575   4.950   4.688  14.015
33226SOL    HW2 1576   4.934   4.613  13.884
33227SOL     OW 1577   7.080  13.775  14.271
33227SOL    HW1 1578   7.104  13.694  14.318
33227SOL    HW2 1579   7.010  13.748  14.212
33228SOL     OW 1580   8.348   5.302   7.335
33228SOL    HW1 1581   8.323   5.220   7.378
33228SOL    HW2 1582   8.331   5.287   7.242
33229SOL     OW 1583   5.630   6.230   7.943
33229SOL    HW1 1584   5.715   6.251   7.981
33229SOL    HW2 1585   5.616   6.298   7.876
33230SOL     OW 1586  12.534   4.542  10.620
33230SOL    HW1 1587  12.455   4.532  10.567
33230SOL    HW2 1588  12.503   4.541  10.711
33231SOL     OW 1589   8.989   4.114   8.423
33231SOL    HW1 1590   9.061   4.176   8.411
33231SOL    HW2 1591   8.910   4.169   8.417
33232SOL     OW 1592  13.303   6.954   6.343
33232SOL    HW1 1593  13.256   7.036   6.327
33232SOL    HW2 1594  13.235   6.892   6.370
33233SOL     OW 1595   3.387  12.291   0.529
33233SOL    HW1 1596   3.339  12.308   0.448
33233SOL    HW2 1597   3.444  12.217   0.509
33234SOL     OW 1598  14.094   4.994   6.817
33234SOL    HW1 1599  14.071   5.074   6.864
33234SOL    HW2 1600  14.137   4.939   6.883
33235SOL     OW 1601   7.716   2.160   8.886
33235SOL    HW1 1602   7.750   2.230   8.831
33235SOL    HW2 1603   7.641   2.125   8.837
33236SOL     OW 1604  13.337   4.840  10.352
33236SOL    HW1 1605  13.387   4.759  10.361
33236SOL    HW2 1606  13.259   4.814  10.302
33237SOL     OW 1607   7.632  12.075  11.943
33237SOL    HW1 1608   7.691  12.151  11.938
33237SOL    HW2 1609   7.579  12.081  11.864
33238SOL     OW 1610  13.276   4.923  12.330
33238SOL    HW1 1611  13.367   4.903  12.308
33238SOL    HW2 1612  13.277   5.016  12.352
33239SOL     OW 1613   1.147   7.772   1.308
33239SOL    HW1 1614   1.132   7.862   1.280
33239SOL    HW2 1615   1.236   7.772   1.343
33240SOL     OW 1616   7.572  12.783   4.936
33240SOL    HW1 1617   7.508  12.836   4.983
33240SOL    HW2 1618   7.550  12.693   4.960
33241SOL     OW 1619  11.239  11.897  13.635
33241SOL    HW1 1620  11.302  11.895  13.563
33241SOL    HW2 1621  11.233  11.806  13.663
33242SOL     OW 1622   5.194   9.399   3.490
33242SOL    HW1 1623   5.133   9.439   3.552
33242SOL    HW2 1624   5.278   9.440   3.510
33243SOL     OW 1625   0.189  13.426  14.247
33243SOL    HW1 1626   0.260  13.365  14.265
33243SOL    HW2 1627   0.233  13.506  14.216
33244SOL     OW 1628  13.153   3.810   0.069
33244SOL    HW1 1629  13.212   3.878   0.103
33244SOL    HW2 1630  13.195   3.779  14.859
33245SOL     OW 1631   3.119   1.997  13.006
33245SOL    HW1 1632   3.087   1.933  12.942
33245SOL    HW2 1633   3.045   2.054  13.022
33246SOL     OW 1634   9.807   4.166   4.191
33246SOL    HW1 1635   9.762   4.085   4.211
33246SOL    HW2 1636   9.757   4.234   4.237
33247SOL     OW 1637  11.757   5.600  10.378
33247SOL    HW1 1638  11.783   5.525  10.325
33247SOL    HW2 1639  11.727   5.665  10.315
33248SOL     OW 1640   1.385   8.175  10.716
33248SOL    HW1 1641   1.333   8.176  10.797
33248SOL    HW2 1642   1.457   8.116  10.735
33249SOL     OW 1643  10.427  14.401   5.446
33249SOL    HW1 1644  10.419  14.389   5.540
33249SOL    HW2 1645  10.517  14.431   5.433
33250SOL     OW 1646   6.196  14.798  11.892
33250SOL    HW1 1647   6.208  14.716  11.843
33250SOL    HW2 1648   6.109  14.828  11.867
33251SOL     OW 1649  12.942   3.830   8.872
33251SOL    HW1 1650  12.905   3.830   8.784
33251SOL    HW2 1651  12.979   3.743   8.882
33252SOL     OW 1652   4.644   9.709  12.899
33252SOL    HW1 1653   4.735   9.686  12.919
33252SOL    HW2 1654   4.644   9.804  12.891
33253SOL     OW 1655  11.285  11.830   0.644
33253SOL    HW1 1656  11.217  11.862   0.703
33253SOL    HW2 1657  11.289  11.895   0.574
33254SOL     OW 1658   5.836   3.014   4.909
33254SOL    HW1 1659   5.843   2.919   4.896
33254SOL    HW2 1660   5.854   3.027   5.002
33255SOL     OW 1661   3.326   1.003   8.594
33255SOL    HW1 1662   3.420   0.996   8.611
33255SOL    HW2 1663   3.311   0.947   8.518
33256SOL     OW 1664   1.953   3.261   3.858
33256SOL    HW1 1665   2.004   3.254   3.938
33256SOL    HW2 1666   2.018   3.264   3.788
33257SOL     OW 1667   7.404  10.330   9.801
33257SOL    HW1 1668   7.432  10.395   9.866
33257SOL    HW2 1669   7.434  10.247   9.837
33258SOL     OW 1670  13.868   8.724   9.828
33258SOL    HW1 1671  13.792   8.667   9.837
33258SOL    HW2 1672  13.849   8.799   9.884
33259SOL     OW 1673   2.425  11.938  12.694
33259SOL    HW1 1674   2.465  11.999  12.631
33259SOL    HW2 1675   2.497  11.880  12.720
33260SOL     OW 1676   1.892   9.981   9.596
33260SOL    HW1 1677   1.931   9.999   9.681
33260SOL    HW2 1678   1.923  10.051   9.539
33261SOL     OW 1679  12.256   5.449  10.548
33261SOL    HW1 1680  12.162   5.450  10.568
33261SOL    HW2 1681  12.274   5.358  10.524
33262SOL     OW 1682   5.708   6.641   2.358
33262SOL    HW1 1683   5.748   6.663   2.442
33262SOL    HW2 1684   5.682   6.725   2.321
33263SOL     OW 1685   1.636  14.271   6.807
33263SOL    HW1 1686   1.707  14.207   6.801
33263SOL    HW2 1687   1.636  14.315   6.723
33264SOL     OW 1688   9.191  12.541   1.873
33264SOL    HW1 1689   9.198  12.632   1.844
33264SOL    HW2 1690   9.275  12.501   1.850
33265SOL     OW 1691   5.774   8.655   0.357
33265SOL    HW1 1692   5.799   8.632   0.268
33265SOL    HW2 1693   5.819   8.591   0.412
33266SOL     OW 1694   7.250   0.218   2.225
33266SOL    HW1 1695   7.204   0.203   2.308
33266SOL    HW2 1696   7.237   0.311   2.207
33267SOL     OW 1697   1.820   8.474   8.441
33267SOL    HW1 1698   1.895   8.515   8.398
33267SOL    HW2 1699   1.782   8.418   8.374
33268SOL     OW 1700   3.536   9.621   9.039
33268SOL    HW1 1701   3.604   9.587   8.980
33268SOL    HW2 1702   3.558   9.714   9.050
33269SOL     OW 1703   5.278   6.277   6.324
33269SOL    HW1 1704   5.333   6.208   6.361
33269SOL    HW2 1705   5.264   6.338   6.396
33270SOL     OW 1706  14.034   0.575  11.810
33270SOL    HW1 1707  14.017   0.482  11.793
33270SOL    HW2 1708  14.018   0.585  11.904
33271SOL     OW 1709   2.943  12.994   9.617
33271SOL    HW1 1710   2.929  12.902   9.638
33271SOL    HW2 1711   3.034  12.999   9.589
33272SOL     OW 1712  14.503   8.523   1.775
33272SOL    HW1 1713  14.568   8.546   1.841
33272SOL    HW2 1714  14.532   8.439   1.739
33273SOL     OW 1715  12.546   6.458  12.024
33273SOL    HW1 1716  12.526   6.366  12.040
33273SOL    HW2 1717  12.468   6.506  12.052
33274SOL     OW 1718   7.264   4.758   1.702
33274SOL    HW1 1719   7.269   4.732   1.610
33274SOL    HW2 1720   7.218   4.842   1.700
33275SOL     OW 1721  10.515  10.131  14.026
33275SOL    HW1 1722  10.473  10.216  14.013
33275SOL    HW2 1723  10.514  10.090  13.940
33276SOL     OW 1724  10.094   1.949   8.077
33276SOL    HW1 1725  10.021   1.918   8.023
33276SOL    HW2 1726  10.140   1.869   8.103
33277SOL     OW 1727  14.796   7.777   2.068
33277SOL    HW1 1728  14.819   7.719   1.995
33277SOL    HW2 1729  14.713   7.742   2.100
33278SOL     OW 1730   5.072  12.816   7.821
33278SOL    HW1 1731   5.129  12.818   7.898
33278SOL    HW2 1732   5.009  12.746   7.840
33279SOL     OW 1733  14.088   2.664   7.747
33279SOL    HW1 1734  14.056   2.713   7.823
33279SOL    HW2 1735  14.054   2.576   7.759
33280SOL     OW 1736   1.127   6.322   8.587
33280SOL    HW1 1737   1.180   6.242   8.582
33280SOL    HW2 1738   1.190   6.393   8.573
33281SOL     OW 1739   6.670   4.496  13.610
33281SOL    HW1 1740   6.665   4.405  13.582
33281SOL    HW2 1741   6.757   4.505  13.648
33282SOL     OW 1742   9.208   3.501   9.992
33282SOL    HW1 1743   9.132   3.477   9.939
33282SOL    HW2 1744   9.179   3.577  10.042
33283SOL     OW 1745   8.749  10.694  11.401
33283SOL    HW1 1746   8.653  10.689  11.395
33283SOL    HW2 1747   8.778  10.604  11.391
33284SOL     OW 1748   6.369  11.385   5.541
33284SOL    HW1 1749   6.351  11.316   5.477
33284SOL    HW2 1750   6.312  11.364   5.615
33285SOL     OW 1751  14.641   8.347   6.831
33285SOL    HW1 1752  14.577   8.354   6.761
33285SOL    HW2 1753  14.595   8.302   6.902
33286SOL     OW 1754  10.864   6.252   7.300
33286SOL    HW1 1755  10.795   6.259   7.366
33286SOL    HW2 1756  10.936   6.304   7.335
33287SOL     OW 1757   6.340   2.727   5.205
33287SOL    HW1 1758   6.358   2.656   5.267
33287SOL    HW2 1759   6.277   2.783   5.250
33288SOL     OW 1760   1.520   7.451   4.672
33288SOL    HW1 1761   1.465   7.522   4.705
33288SOL    HW2 1762   1.504   7.449   4.577
33289SOL     OW 1763   5.313  10.134   1.356
33289SOL    HW1 1764   5.289  10.057   1.407
33289SOL    HW2 1765   5.290  10.208   1.413
33290SOL     OW 1766  14.324   6.960   8.187
33290SOL    HW1 1767  14.247   6.904   8.182
33290SOL    HW2 1768  14.306   7.020   8.260
33291SOL     OW 1769   1.241   9.141   3.813
33291SOL    HW1 1770   1.269   9.050   3.803
33291SOL    HW2 1771   1.247   9.177   3.724
33292SOL     OW 1772  13.677   3.597  13.880
33292SOL    HW1 1773  13.682   3.591  13.975
33292SOL    HW2 1774  13.610   3.663  13.863
33293SOL     OW 1775   4.747  12.548  12.845
33293SOL    HW1 1776   4.726  12.550  12.751
33293SOL    HW2 1777   4.687  12.482  12.881
33294SOL     OW 1778   2.100   6.799   0.146
33294SOL    HW1 1779   2.179   6.815   0.094
33294SOL    HW2 1780   2.127   6.815   0.236
33295SOL     OW 1781  11.206   0.469   0.112
33295SOL    HW1 1782  11.252   0.385   0.122
33295SOL    HW2 1783  11.275   0.532   0.094
33296SOL     OW 1784   1.055   1.745  12.428
33296SOL    HW1 1785   1.098   1.706  12.352
33296SOL    HW2 1786   1.013   1.671  12.472
33297SOL     OW 1787  12.388   7.723  13.278
33297SOL    HW1 1788  12.374   7.809  13.239
33297SOL    HW2 1789  12.442   7.676  13.215
33298SOL     OW 1790   4.626  14.293  10.776
33298SOL    HW1 1791   4.660  14.275  10.864
33298SOL    HW2 1792   4.553  14.353  10.790
33299SOL     OW 1793   5.084   4.834   4.156
33299SOL    HW1 1794   5.047   4.755   4.117
33299SOL    HW2 1795   5.173   4.838   4.121
33300SOL     OW 1796   0.674  11.249  13.146
33300SOL    HW1 1797   0.628  11.221  13.225
33300SOL    HW2 1798   0.764  11.266  13.176
33301SOL     OW 1799   2.026   9.837  11.174
33301SOL    HW1 1800   2.086   9.860  11.245
33301SOL    HW2 1801   2.075   9.771  11.123
33302SOL     OW 1802  11.682   1.517  14.384
33302SOL    HW1 1803  11.615   1.563  14.334
33302SOL    HW2 1804  11.679   1.427  14.351
33303SOL     OW 1805   5.081   2.388   7.484
33303SOL    HW1 1806   5.173   2.390   7.513
33303SOL    HW2 1807   5.072   2.466   7.429
33304SOL     OW 1808   9.071   0.793   5.112
33304SOL    HW1 1809   9.115   0.757   5.035
33304SOL    HW2 1810   9.137   0.846   5.156
33305SOL     OW 1811   3.661   3.011   4.904
33305SOL    HW1 1812   3.648   3.092   4.954
33305SOL    HW2 1813   3.703   3.039   4.823
33306SOL     OW 1814   2.014   1.934   3.716
33306SOL    HW1 1815   2.000   1.842   3.697
33306SOL    HW2 1816   1.932   1.977   3.690
33307SOL     OW 1817   4.112  11.081   0.341
33307SOL    HW1 1818   4.098  11.019   0.269
33307SOL    HW2 1819   4.052  11.052   0.410
33308SOL     OW 1820  10.584   6.300   2.161
33308SOL    HW1 1821  10.520   6.229   2.172
33308SOL    HW2 1822  10.537   6.378   2.189
33309SOL     OW 1823  14.406  14.587   6.192
33309SOL    HW1 1824  14.341  14.529   6.232
33309SOL    HW2 1825  14.490  14.548   6.215
33310SOL     OW 1826   9.332   2.580   8.346
33310SOL    HW1 1827   9.265   2.611   8.407
33310SOL    HW2 1828   9.409   2.634   8.365
33311SOL     OW 1829  13.064   0.983   6.874
33311SOL    HW1 1830  13.057   0.996   6.780
33311SOL    HW2 1831  12.980   0.945   6.899
33312SOL     OW 1832   6.476  14.497  10.765
33312SOL    HW1 1833   6.522  14.572  10.803
33312SOL    HW2 1834   6.384  14.522  10.767
33313SOL     OW 1835   2.253   3.730   9.854
33313SOL    HW1 1836   2.323   3.729   9.789
33313SOL    HW2 1837   2.281   3.668   9.921
33314SOL     OW 1838   0.381   6.027  13.439
33314SOL    HW1 1839   0.385   5.945  13.488
33314SOL    HW2 1840   0.369   6.095  13.506
33315SOL     OW 1841   6.229  10.415   3.174
33315SOL    HW1 1842   6.177  10.489   3.145
33315SOL    HW2 1843   6.282  10.449   3.246
33316SOL     OW 1844   2.964   4.371  13.543
33316SOL    HW1 1845   2.868   4.372  13.540
33316SOL    HW2 1846   2.991   4.415  13.462
33317SOL     OW 1847   6.203  14.567  11.719
33317SOL    HW1 1848   6.219  14.589  11.628
33317SOL    HW2 1849   6.242  14.481  11.731
33318SOL     OW 1850   8.549   1.872   9.510
33318SOL    HW1 1851   8.589   1.865   9.423
33318SOL    HW2 1852   8.613   1.919   9.562
33319SOL     OW 1853   8.023   4.830   5.253
33319SOL    HW1 1854   8.115   4.844   5.230
33319SOL    HW2 1855   7.987   4.782   5.179
33320SOL     OW 1856   0.501   6.789   7.409
33320SOL    HW1 1857   0.569   6.723   7.397
33320SOL    HW2 1858   0.468   6.774   7.497
33321SOL     OW 1859   8.463  14.694   7.472
33321SOL    HW1 1860   8.502  14.712   7.386
33321SOL    HW2 1861   8.445  14.781   7.508
33322SOL     OW 1862   8.671  14.292   3.085
33322SOL    HW1 1863   8.619  14.228   3.037
33322SOL    HW2 1864   8.607  14.345   3.132
33323SOL     OW 1865   4.138   8.148   9.011
33323SOL    HW1 1866   4.223   8.120   9.044
33323SOL    HW2 1867   4.151   8.239   8.983
33324SOL     OW 1868   2.717  11.096   6.840
33324SOL    HW1 1869   2.650  11.059   6.782
33324SOL    HW2 1870   2.670  11.160   6.894
33325SOL     OW 1871   5.655   9.869   2.777
33325SOL    HW1 1872   5.686   9.850   2.688
33325SOL    HW2 1873   5.732   9.903   2.823
33326SOL     OW 1874  13.289   6.807  12.753
33326SOL    HW1 1875  13.328   6.887  12.717
33326SOL    HW2 1876  13.195   6.820  12.743
33327SOL     OW 1877   5.544  10.034   0.078
33327SOL    HW1 1878   5.583  10.112   0.038
33327SOL    HW2 1879   5.607  10.008   0.146
33328SOL     OW 1880   9.165   3.248   5.384
33328SOL    HW1 1881   9.120   3.314   5.437
33328SOL    HW2 1882   9.148   3.274   5.294
33329SOL     OW 1883  12.792  11.845   2.016
33329SOL    HW1 1884  12.777  11.910   2.085
33329SOL    HW2 1885  12.859  11.787   2.052
33330SOL     OW 1886  11.959   1.735   9.290
33330SOL    HW1 1887  12.023   1.771   9.351
33330SOL    HW2 1888  11.891   1.801   9.284
33331SOL     OW 1889   9.066  10.169  13.496
33331SOL    HW1 1890   8.995  10.128  13.447
33331SOL    HW2 1891   9.069  10.121  13.579
33332SOL     OW 1892   6.001   7.247   3.014
33332SOL    HW1 1893   6.010   7.288   3.101
33332SOL    HW2 1894   5.961   7.162   3.031
33333SOL     OW 1895   8.445   9.920   3.370
33333SOL    HW1 1896   8.385   9.847   3.354
33333SOL    HW2 1897   8.496   9.893   3.446
33334SOL     OW 1898   3.554  12.254  10.431
33334SOL    HW1 1899   3.641  12.238  10.393
33334SOL    HW2 1900   3.518  12.325  10.377
33335SOL     OW 1901   0.953   2.028  13.223
33335SOL    HW1 1902   1.032   2.048  13.173
33335SOL    HW2 1903   0.968   2.069  13.308
33336SOL     OW 1904  13.715   1.855   6.869
33336SOL    HW1 1905  13.646   1.841   6.934
33336SOL    HW2 1906  13.674   1.908   6.801
33337SOL     OW 1907  13.960   0.101   7.903
33337SOL    HW1 1908  13.982   0.014   7.938
33337SOL    HW2 1909  13.865   0.100   7.896
33338SOL     OW 1910  10.744   7.167   9.938
33338SOL    HW1 1911  10.785   7.121  10.011
33338SOL    HW2 1912  10.766   7.113   9.861
33339SOL     OW 1913   6.273  12.544   0.331
33339SOL    HW1 1914   6.363  12.542   0.299
33339SOL    HW2 1915   6.220  12.521   0.255
33340SOL     OW 1916  12.630  12.114  13.917
33340SOL    HW1 1917  12.590  12.081  13.997
33340SOL    HW2 1918  12.669  12.198  13.942
33341SOL     OW 1919   9.192  11.380   3.885
33341SOL    HW1 1920   9.256  11.439   3.925
33341SOL    HW2 1921   9.229  11.293   3.898
33342SOL     OW 1922   3.617   3.188   3.772
33342SOL    HW1 1923   3.698   3.139   3.784
33342SOL    HW2 1924   3.577   3.190   3.859
33343SOL     OW 1925   6.434   4.071  14.469
33343SOL    HW1 1926   6.483   4.051  14.389
33343SOL    HW2 1927   6.501   4.084  14.536
33344SOL     OW 1928   3.021  14.640   7.483
33344SOL    HW1 1929   3.115  14.633   7.503
33344SOL    HW2 1930   3.001  14.732   7.495
33345SOL     OW 1931   0.867  11.689  11.470
33345SOL    HW1 1932   0.884  11.687  11.376
33345SOL    HW2 1933   0.771  11.690  11.476
33346SOL     OW 1934  14.176   5.691   3.420
33346SOL    HW1 1935  14.136   5.611   3.386
33346SOL    HW2 1936  14.164   5.755   3.350
33347SOL     OW 1937   5.669  10.471  14.103
33347SOL    HW1 1938   5.581  10.439  14.127
33347SOL    HW2 1939   5.711  10.396  14.061
33348SOL     OW 1940  14.219  11.584   9.613
33348SOL    HW1 1941  14.186  11.671   9.634
33348SOL    HW2 1942  14.234  11.544   9.699
33349SOL     OW 1943   7.327   1.107   1.824
33349SOL    HW1 1944   7.409   1.136   1.783
33349SOL    HW2 1945   7.259   1.156   1.779
33350SOL     OW 1946   4.024   1.168   7.999
33350SOL    HW1 1947   4.080   1.102   7.957
33350SOL    HW2 1948   4.084   1.220   8.053
33351SOL     OW 1949   9.681   0.328  14.673
33351SOL    HW1 1950   9.599   0.376  14.665
33351SOL    HW2 1951   9.674   0.283  14.758
33352SOL     OW 1952   5.236   1.791  12.338
33352SOL    HW1 1953   5.141   1.798  12.325
33352SOL    HW2 1954   5.244   1.750  12.425
33353SOL     OW 1955  10.761   6.833   6.586
33353SOL    HW1 1956  10.742   6.854   6.678
33353SOL    HW2 1957  10.747   6.739   6.580
33354SOL     OW 1958  12.938  11.347   9.568
33354SOL    HW1 1959  12.973  11.435   9.575
33354SOL    HW2 1960  12.952  11.308   9.655
33355SOL     OW 1961   2.646  10.733   2.538
33355SOL    HW1 1962   2.737  10.712   2.558
33355SOL    HW2 1963   2.637  10.826   2.561
33356SOL     OW 1964   3.985  12.596   5.998
33356SOL    HW1 1965   4.042  12.560   5.930
33356SOL    HW2 1966   3.898  12.564   5.975
33357SOL     OW 1967   1.092  11.671   2.419
33357SOL    HW1 1968   1.100  11.758   2.459
33357SOL    HW2 1969   1.024  11.682   2.352
33358SOL     OW 1970  14.389   0.400   1.205
33358SOL    HW1 1971  14.397   0.305   1.196
33358SOL    HW2 1972  14.373   0.414   1.298
33359SOL     OW 1973   3.897   4.760  10.816
33359SOL    HW1 1974   3.991   4.769  10.795
33359SOL    HW2 1975   3.859   4.721  10.738
33360SOL     OW 1976   5.162   0.730  13.892
33360SOL    HW1 1977   5.221   0.711  13.965
33360SOL    HW2 1978   5.179   0.660  13.829
33361SOL     OW 1979  12.985  11.744   1.703
33361SOL    HW1 1980  12.895  11.730   1.674
33361SOL    HW2 1981  12.999  11.838   1.691
33362SOL     OW 1982  14.766  13.387   3.026
33362SOL    HW1 1983  14.845  13.340   3.050
33362SOL    HW2 1984  14.704  13.368   3.096
33363SOL     OW 1985  12.028   9.387  13.516
33363SOL    HW1 1986  12.027   9.435  13.433
33363SOL    HW2 1987  11.940   9.351  13.525
33364SOL     OW 1988   0.193  14.586   2.672
33364SOL    HW1 1989   0.098  14.584   2.689
33364SOL    HW2 1990   0.229  14.520   2.731
33365SOL     OW 1991  14.711   9.172   6.188
33365SOL    HW1 1992  14.710   9.260   6.150
33365SOL    HW2 1993  14.650   9.177   6.261
33366SOL     OW 1994   7.351   7.348   3.353
33366SOL    HW1 1995   7.439   7.379   3.374
33366SOL    HW2 1996   7.326   7.396   3.274
33367SOL     OW 1997  12.659   5.981   5.243
33367SOL    HW1 1998  12.564   5.989   5.247
33367SOL    HW2 1999  12.679   5.975   5.150
33368SOL     OW 2000   8.387   3.821  12.222
33368SOL    HW1 2001   8.450   3.769  12.171
33368SOL    HW2 2002   8.410   3.805  12.313
33369SOL     OW 2003  11.240   6.957   4.660
33369SOL    HW1 2004  11.149   6.930   4.654
33369SOL    HW2 2005  11.266   6.976   4.570
33370SOL     OW 2006  14.448   2.296   9.210
33370SOL    HW1 2007  14.443   2.389   9.188
33370SOL    HW2 2008  14.509   2.260   9.146
33371SOL     OW 2009   8.496  12.310   7.061
33371SOL    HW1 2010   8.473  12.328   6.970
33371SOL    HW2 2011   8.441  12.369   7.112
33372SOL     OW 2012  13.188   3.514   9.278
33372SOL    HW1 2013  13.236   3.455   9.336
33372SOL    HW2 2014  13.237   3.596   9.282
33373SOL     OW 2015   9.880   8.793   3.233
33373SOL    HW1 2016   9.822   8.864   3.259
33373SOL    HW2 2017   9.897   8.808   3.140
33374SOL     OW 2018   7.959   1.114  10.623
33374SOL    HW1 2019   7.963   1.198  10.668
33374SOL    HW2 2020   7.868   1.105  10.596
33375SOL     OW 2021  12.725   9.994  11.100
33375SOL    HW1 2022  12.805   9.952  11.071
33375SOL    HW2 2023  12.722  10.077  11.051
33376SOL     OW 2024   1.925  13.471  11.615
33376SOL    HW1 2025   1.882  13.411  11.554
33376SOL    HW2 2026   1.858  13.536  11.637
33377SOL     OW 2027   3.742   9.993  14.342
33377SOL    HW1 2028   3.662   9.942  14.349
33377SOL    HW2 2029   3.812   9.931  14.363
33378SOL     OW 2030  14.623  12.019  10.566
33378SOL    HW1 2031  14.537  12.037  10.527
33378SOL    HW2 2032  14.632  11.924  10.563
33379SOL     OW 2033   0.174   9.659  14.797
33379SOL    HW1 2034   0.233   9.659  14.722
33379SOL    HW2 2035   0.227   9.697  14.868
33380SOL     OW 2036   0.036   2.769  11.388
33380SOL    HW1 2037   0.031   2.852  11.435
33380SOL    HW2 2038  14.840   2.776  11.319
33381SOL     OW 2039  14.367   7.246   3.651
33381SOL    HW1 2040  14.382   7.161   3.693
33381SOL    HW2 2041  14.335   7.302   3.721
33382SOL     OW 2042   0.821   9.560  11.032
33382SOL    HW1 2043   0.869   9.518  10.960
33382SOL    HW2 2044   0.889   9.604  11.083
33383SOL     OW 2045  13.443   2.675   2.024
33383SOL    HW1 2046  13.443   2.740   2.093
33383SOL    HW2 2047  13.456   2.592   2.069
33384SOL     OW 2048  14.453  11.077  11.867
33384SOL    HW1 2049  14.428  10.994  11.826
33384SOL    HW2 2050  14.405  11.143  11.818
33385SOL     OW 2051   0.533  11.544   3.787
33385SOL    HW1 2052   0.461  11.546   3.851
33385SOL    HW2 2053   0.591  11.614   3.815
33386SOL     OW 2054  12.003  13.860   3.099
33386SOL    HW1 2055  11.981  13.943   3.057
33386SOL    HW2 2056  12.083  13.878   3.148
33387SOL     OW 2057   3.354   1.016   9.688
33387SOL    HW1 2058   3.324   1.102   9.657
33387SOL    HW2 2059   3.275   0.963   9.694
33388SOL     OW 2060  12.337  12.982   5.407
33388SOL    HW1 2061  12.318  12.979   5.314
33388SOL    HW2 2062  12.254  12.962   5.450
33389SOL     OW 2063  11.875  11.282  12.573
33389SOL    HW1 2064  11.911  11.246  12.492
33389SOL    HW2 2065  11.841  11.206  12.620
33390SOL     OW 2066   9.964   8.123  12.452
33390SOL    HW1 2067   9.894   8.157  12.398
33390SOL    HW2 2068   9.923   8.055  12.506
33391SOL     OW 2069   0.314   7.008   1.763
33391SOL    HW1 2070   0.308   6.913   1.760
33391SOL    HW2 2071   0.407   7.026   1.779
33392SOL     OW 2072   4.754   3.727  14.597
33392SOL    HW1 2073   4.823   3.735  14.663
33392SOL    HW2 2074   4.801   3.722  14.514
33393SOL     OW 2075   1.119   8.824  12.326
33393SOL    HW1 2076   1.028   8.853  12.322
33393SOL    HW2 2077   1.143   8.832  12.418
33394SOL     OW 2078   2.141   9.051   8.891
33394SOL    HW1 2079   2.198   9.120   8.923
33394SOL    HW2 2080   2.117   9.001   8.969
33395SOL     OW 2081   6.800   2.252   8.875
33395SOL    HW1 2082   6.768   2.314   8.810
33395SOL    HW2 2083   6.760   2.168   8.851
33396SOL     OW 2084  14.322   6.702   7.692
33396SOL    HW1 2085  14.344   6.638   7.759
33396SOL    HW2 2086  14.261   6.656   7.634
33397SOL     OW 2087   4.281   5.935   1.024
33397SOL    HW1 2088   4.214   6.003   1.014
33397SOL    HW2 2089   4.232   5.853   1.031
33398SOL     OW 2090  12.791   6.710   8.144
33398SOL    HW1 2091  12.751   6.645   8.202
33398SOL    HW2 2092  12.871   6.737   8.189
33399SOL     OW 2093   2.320   7.930  13.506
33399SOL    HW1 2094   2.378   7.999  13.473
33399SOL    HW2 2095   2.323   7.940  13.601
33400SOL     OW 2096   1.723  13.962   1.181
33400SOL    HW1 2097   1.740  14.055   1.191
33400SOL    HW2 2098   1.655  13.942   1.245
33401SOL     OW 2099   5.866   5.886   1.332
33401SOL    HW1 2100   5.825   5.862   1.415
33401SOL    HW2 2101   5.873   5.982   1.336
33402SOL     OW 2102  10.947  14.490  11.923
33402SOL    HW1 2103  10.973  14.505  12.015
33402SOL    HW2 2104  10.859  14.453  11.929
33403SOL     OW 2105   1.510   3.194  13.885
33403SOL    HW1 2106   1.513   3.111  13.932
33403SOL    HW2 2107   1.472   3.172  13.800
33404SOL     OW 2108   2.717   2.334   9.429
33404SOL    HW1 2109   2.760   2.268   9.375
33404SOL    HW2 2110   2.739   2.417   9.388
33405SOL     OW 2111   1.347   4.327  14.852
33405SOL    HW1 2112   1.254   4.341  14.865
33405SOL    HW2 2113   1.378   4.294   0.066
33406SOL     OW 2114   5.145   4.940  12.721
33406SOL    HW1 2115   5.079   4.926  12.789
33406SOL    HW2 2116   5.104   4.999  12.659
33407SOL     OW 2117  12.260   3.635   7.197
33407SOL    HW1 2118  12.304   3.661   7.116
33407SOL    HW2 2119  12.186   3.582   7.168
33408SOL     OW 2120   3.531   8.694   8.763
33408SOL    HW1 2121   3.443   8.731   8.762
33408SOL    HW2 2122   3.550   8.681   8.856
33409SOL     OW 2123   8.500   9.935   6.036
33409SOL    HW1 2124   8.477  10.027   6.021
33409SOL    HW2 2125   8.589   9.927   6.000
33410SOL     OW 2126  13.209   2.859   0.157
33410SOL    HW1 2127  13.126   2.814   0.173
33410SOL    HW2 2128  13.216   2.922   0.229
33411SOL     OW 2129   9.396  14.497   0.719
33411SOL    HW1 2130   9.437  14.416   0.687
33411SOL    HW2 2131   9.426  14.504   0.809
33412SOL     OW 2132   7.644  11.688   6.495
33412SOL    HW1 2133   7.598  11.617   6.450
33412SOL    HW2 2134   7.679  11.648   6.574
33413SOL     OW 2135   0.059   7.406  11.595
33413SOL    HW1 2136  14.852   7.450  11.559
33413SOL    HW2 2137   0.027   7.320  11.623
33414SOL     OW 2138  12.830   6.980   2.315
33414SOL    HW1 2139  12.854   7.005   2.404
33414SOL    HW2 2140  12.838   6.884   2.314
33415SOL     OW 2141   1.986   5.695   5.731
33415SOL    HW1 2142   1.898   5.679   5.697
33415SOL    HW2 2143   2.035   5.616   5.711
33416SOL     OW 2144   9.708   8.997   5.017
33416SOL    HW1 2145   9.629   8.981   4.965
33416SOL    HW2 2146   9.780   8.984   4.956
33417SOL     OW 2147   7.402  10.298   6.350
33417SOL    HW1 2148   7.352  10.301   6.432
33417SOL    HW2 2149   7.493  10.300   6.377
33418SOL     OW 2150   9.388   2.391   5.165
33418SOL    HW1 2151   9.479   2.403   5.194
33418SOL    HW2 2152   9.337   2.445   5.225
33419SOL     OW 2153  11.138  12.247   9.421
33419SOL    HW1 2154  11.197  12.180   9.387
33419SOL    HW2 2155  11.065  12.197   9.459
33420SOL     OW 2156  10.185  14.384  10.977
33420SOL    HW1 2157  10.190  14.291  10.954
33420SOL    HW2 2158  10.172  14.429  10.894
33421SOL     OW 2159   4.947  14.317   4.392
33421SOL    HW1 2160   4.925  14.306   4.300
33421SOL    HW2 2161   4.993  14.401   4.396
33422SOL     OW 2162   2.386  13.105  10.394
33422SOL    HW1 2163   2.391  13.075  10.485
33422SOL    HW2 2164   2.477  13.122  10.370
33423SOL     OW 2165   1.437   3.324  10.245
33423SOL    HW1 2166   1.495   3.292  10.176
33423SOL    HW2 2167   1.356   3.273  10.234
33424SOL     OW 2168   4.420   1.759   6.517
33424SOL    HW1 2169   4.448   1.814   6.443
33424SOL    HW2 2170   4.451   1.805   6.594
33425SOL     OW 2171   2.321   5.943   0.209
33425SOL    HW1 2172   2.318   5.848   0.218
33425SOL    HW2 2173   2.303   5.977   0.297
33426SOL     OW 2174   1.545  10.490   7.777
33426SOL    HW1 2175   1.596  10.427   7.829
33426SOL    HW2 2176   1.456  10.481   7.810
33427SOL     OW 2177   8.395  10.059   8.316
33427SOL    HW1 2178   8.463  10.025   8.258
33427SOL    HW2 2179   8.313  10.042   8.270
33428SOL     OW 2180   4.867   3.211  11.904
33428SOL    HW1 2181   4.927   3.145  11.939
33428SOL    HW2 2182   4.781   3.186  11.938
33429SOL     OW 2183   3.662  10.492   9.513
33429SOL    HW1 2184   3.652  10.483   9.608
33429SOL    HW2 2185   3.709  10.574   9.502
33430SOL     OW 2186  11.657   3.291  12.710
33430SOL    HW1 2187  11.582   3.250  12.754
33430SOL    HW2 2188  11.733   3.247  12.748
33431SOL     OW 2189   4.039   8.053   6.491
33431SOL    HW1 2190   4.044   8.147   6.476
33431SOL    HW2 2191   3.954   8.027   6.455
33432SOL     OW 2192   0.360   3.575  13.894
33432SOL    HW1 2193   0.441   3.533  13.864
33432SOL    HW2 2194   0.390   3.655  13.938
33433SOL     OW 2195  10.579   4.577   8.750
33433SOL    HW1 2196  10.626   4.530   8.681
33433SOL    HW2 2197  10.595   4.526   8.829
33434SOL     OW 2198   9.658   7.268   5.055
33434SOL    HW1 2199   9.717   7.193   5.054
33434SOL    HW2 2200   9.593   7.250   4.987
33435SOL     OW 2201   5.511  12.305   9.444
33435SOL    HW1 2202   5.593  12.279   9.487
33435SOL    HW2 2203   5.448  12.239   9.471
33436SOL     OW 2204  10.235   5.372  12.974
33436SOL    HW1 2205  10.262   5.281  12.985
33436SOL    HW2 2206  10.179   5.371  12.896
33437SOL     OW 2207  10.558   1.282   5.209
33437SOL    HW1 2208  10.546   1.350   5.275
33437SOL    HW2 2209  10.515   1.316   5.131
33438SOL     OW 2210   7.206   5.870  13.214
33438SOL    HW1 2211   7.208   5.934  13.286
33438SOL    HW2 2212   7.246   5.916  13.140
33439SOL     OW 2213   4.479   8.062   7.963
33439SOL    HW1 2214   4.501   7.991   8.023
33439SOL    HW2 2215   4.540   8.052   7.890
33440SOL     OW 2216  13.687   4.970   4.582
33440SOL    HW1 2217  13.644   4.885   4.583
33440SOL    HW2 2218  13.638   5.022   4.518
33441SOL     OW 2219  12.449   4.941  10.885
33441SOL    HW1 2220  12.393   4.925  10.809
33441SOL    HW2 2221  12.434   5.032  10.907
33442SOL     OW 2222   8.865   4.606   2.716
33442SOL    HW1 2223   8.922   4.622   2.791
33442SOL    HW2 2224   8.846   4.513   2.719
33443SOL     OW 2225   8.049   2.913   5.446
33443SOL    HW1 2226   8.019   2.822   5.439
33443SOL    HW2 2227   7.969   2.965   5.438
33444SOL     OW 2228   5.078   5.289   4.392
33444SOL    HW1 2229   5.055   5.309   4.301
33444SOL    HW2 2230   5.168   5.318   4.401
33445SOL     OW 2231   8.034   2.934   6.695
33445SOL    HW1 2232   8.058   2.978   6.613
33445SOL    HW2 2233   8.060   2.843   6.682
33446SOL     OW 2234   9.840   1.016   9.833
33446SOL    HW1 2235   9.901   1.005   9.760
33446SOL    HW2 2236   9.755   0.993   9.798
33447SOL     OW 2237   6.045   2.435   6.236
33447SOL    HW1 2238   5.980   2.403   6.174
33447SOL    HW2 2239   6.055   2.364   6.299
33448SOL     OW 2240  12.281   1.549   7.398
33448SOL    HW1 2241  12.188   1.563   7.375
33448SOL    HW2 2242  12.289   1.454   7.405
33449SOL     OW 2243   9.148  12.215   2.262
33449SOL    HW1 2244   9.173  12.150   2.328
33449SOL    HW2 2245   9.230  12.238   2.219
33450SOL     OW 2246  14.252   9.875   8.429
33450SOL    HW1 2247  14.289   9.886   8.517
33450SOL    HW2 2248  14.227   9.964   8.402
33451SOL     OW 2249   7.612  10.204   4.625
33451SOL    HW1 2250   7.589  10.134   4.564
33451SOL    HW2 2251   7.543  10.199   4.692
33452SOL     OW 2252  10.268   5.528   9.956
33452SOL    HW1 2253  10.183   5.561   9.985
33452SOL    HW2 2254  10.252   5.437   9.933
33453SOL     OW 2255  14.660   8.510   9.976
33453SOL    HW1 2256  14.660   8.505  10.072
33453SOL    HW2 2257  14.647   8.603   9.957
33454SOL     OW 2258   9.086   0.078   4.860
33454SOL    HW1 2259   9.076   0.064   4.766
33454SOL    HW2 2260   9.001   0.111   4.889
33455SOL     OW 2261   4.786   8.907   1.982
33455SOL    HW1 2262   4.839   8.885   2.059
33455SOL    HW2 2263   4.697   8.913   2.015
33456SOL     OW 2264   4.135  11.232  11.891
33456SOL    HW1 2265   4.130  11.220  11.985
33456SOL    HW2 2266   4.217  11.189  11.865
33457SOL     OW 2267   2.165   7.640   3.418
33457SOL    HW1 2268   2.164   7.689   3.500
33457SOL    HW2 2269   2.251   7.656   3.381
33458SOL     OW 2270  11.632  13.217   2.970
33458SOL    HW1 2271  11.570  13.258   3.031
33458SOL    HW2 2272  11.687  13.162   3.025
33459SOL     OW 2273   0.726   7.161  11.883
33459SOL    HW1 2274   0.668   7.228  11.846
33459SOL    HW2 2275   0.737   7.187  11.975
33460SOL     OW 2276   3.045   1.784  14.844
33460SOL    HW1 2277   2.973   1.748  14.793
33460SOL    HW2 2278   3.067   1.715   0.037
33461SOL     OW 2279   3.004  10.386   5.513
33461SOL    HW1 2280   3.076  10.323   5.516
33461SOL    HW2 2281   3.042  10.468   5.543
33462SOL     OW 2282   7.801   6.157   7.105
33462SOL    HW1 2283   7.760   6.230   7.060
33462SOL    HW2 2284   7.731   6.119   7.158
33463SOL     OW 2285   8.897   1.271   7.705
33463SOL    HW1 2286   8.934   1.185   7.729
33463SOL    HW2 2287   8.866   1.258   7.615
33464SOL     OW 2288   8.775   3.087   4.067
33464SOL    HW1 2289   8.738   3.144   4.135
33464SOL    HW2 2290   8.816   3.147   4.005
33465SOL     OW 2291   0.727  11.813  12.807
33465SOL    HW1 2292   0.684  11.887  12.764
33465SOL    HW2 2293   0.664  11.741  12.799
33466SOL     OW 2294   9.119   0.870  14.788
33466SOL    HW1 2295   9.177   0.923  14.733
33466SOL    HW2 2296   9.117   0.785  14.745
33467SOL     OW 2297  10.134   0.694   2.745
33467SOL    HW1 2298  10.069   0.714   2.677
33467SOL    HW2 2299  10.213   0.670   2.696
33468SOL     OW 2300   8.647   7.606   6.783
33468SOL    HW1 2301   8.599   7.616   6.700
33468SOL    HW2 2302   8.629   7.516   6.810
33469SOL     OW 2303   3.847   9.320   8.753
33469SOL    HW1 2304   3.871   9.233   8.719
33469SOL    HW2 2305   3.931   9.359   8.779
33470SOL     OW 2306   2.408   1.320  11.641
33470SOL    HW1 2307   2.498   1.291  11.631
33470SOL    HW2 2308   2.408   1.369  11.723
33471SOL     OW 2309   4.099  14.491   0.535
33471SOL    HW1 2310   4.124  14.426   0.469
33471SOL    HW2 2311   4.147  14.465   0.613
33472SOL     OW 2312   8.789   0.864   4.779
33472SOL    HW1 2313   8.696   0.844   4.770
33472SOL    HW2 2314   8.817   0.889   4.690
33473SOL     OW 2315   9.149   0.818  13.434
33473SOL    HW1 2316   9.129   0.907  13.404
33473SOL    HW2 2317   9.244   0.819  13.448
33474SOL     OW 2318  11.175   1.129   9.211
33474SOL    HW1 2319  11.194   1.037   9.192
33474SOL    HW2 2320  11.102   1.150   9.153
33475SOL     OW 2321  13.943  11.983  14.139
33475SOL    HW1 2322  13.965  11.904  14.189
33475SOL    HW2 2323  13.847  11.980  14.132
33476SOL     OW 2324  10.107   1.241  11.000
33476SOL    HW1 2325  10.152   1.312  10.955
33476SOL    HW2 2326  10.026   1.229  10.952
33477SOL     OW 2327   9.055   1.846   7.272
33477SOL    HW1 2328   9.000   1.819   7.346
33477SOL    HW2 2329   9.081   1.936   7.292
33478SOL     OW 2330   3.648   0.233  10.610
33478SOL    HW1 2331   3.696   0.280  10.542
33478SOL    HW2 2332   3.709   0.233  10.685
33479SOL     OW 2333  10.951  12.310   9.791
33479SOL    HW1 2334  11.028  12.344   9.745
33479SOL    HW2 2335  10.934  12.374   9.860
33480SOL     OW 2336   2.752   2.031   6.790
33480SOL    HW1 2337   2.780   2.082   6.714
33480SOL    HW2 2338   2.812   2.059   6.860
33481SOL     OW 2339   4.374   5.000   0.408
33481SOL    HW1 2340   4.291   4.956   0.389
33481SOL    HW2 2341   4.427   4.985   0.330
33482SOL     OW 2342   6.094   7.991  12.549
33482SOL    HW1 2343   6.009   8.034  12.556
33482SOL    HW2 2344   6.074   7.901  12.524
33483SOL     OW 2345  13.463   1.146   0.270
33483SOL    HW1 2346  13.502   1.196   0.342
33483SOL    HW2 2347  13.369   1.150   0.285
33484SOL     OW 2348   8.849   5.428   4.968
33484SOL    HW1 2349   8.813   5.375   5.040
33484SOL    HW2 2350   8.944   5.428   4.984
33485SOL     OW 2351  12.912   5.913  13.407
33485SOL    HW1 2352  12.821   5.940  13.417
33485SOL    HW2 2353  12.936   5.876  13.492
33486SOL     OW 2354  14.791   7.517   8.690
33486SOL    HW1 2355  14.773   7.589   8.751
33486SOL    HW2 2356  14.728   7.449   8.715
33487SOL     OW 2357  13.921  14.003   1.209
33487SOL    HW1 2358  13.831  14.033   1.223
33487SOL    HW2 2359  13.963  14.016   1.294
33488SOL     OW 2360  10.821  14.292  12.315
33488SOL    HW1 2361  10.758  14.360  12.294
33488SOL    HW2 2362  10.867  14.324  12.393
33489SOL     OW 2363  11.111  12.397   7.909
33489SOL    HW1 2364  11.096  12.452   7.832
33489SOL    HW2 2365  11.138  12.312   7.874
33490SOL     OW 2366   3.752   8.907   5.408
33490SOL    HW1 2367   3.660   8.881   5.405
33490SOL    HW2 2368   3.800   8.831   5.376
33491SOL     OW 2369  13.945   3.182   1.262
33491SOL    HW1 2370  13.930   3.276   1.276
33491SOL    HW2 2371  13.892   3.139   1.329
33492SOL     OW 2372   7.747   0.113   2.609
33492SOL    HW1 2373   7.834   0.153   2.613
33492SOL    HW2 2374   7.762   0.026   2.572
33493SOL     OW 2375   4.751   4.640   8.638
33493SOL    HW1 2376   4.731   4.601   8.553
33493SOL    HW2 2377   4.839   4.678   8.627
33494SOL     OW 2378  12.868   5.301  14.463
33494SOL    HW1 2379  12.836   5.240  14.396
33494SOL    HW2 2380  12.880   5.384  14.416
33495SOL     OW 2381   4.837   3.763   3.335
33495SOL    HW1 2382   4.823   3.681   3.382
33495SOL    HW2 2383   4.814   3.831   3.398
33496SOL     OW 2384  13.724   2.656   3.441
33496SOL    HW1 2385  13.668   2.674   3.516
33496SOL    HW2 2386  13.751   2.565   3.452
33497SOL     OW 2387   3.312  13.836  10.790
33497SOL    HW1 2388   3.260  13.762  10.822
33497SOL    HW2 2389   3.359  13.801  10.715
33498SOL     OW 2390   7.355  14.378   6.634
33498SOL    HW1 2391   7.343  14.285   6.618
33498SOL    HW2 2392   7.450  14.388   6.645
33499SOL     OW 2393   1.176   5.104   8.643
33499SOL    HW1 2394   1.159   5.154   8.723
33499SOL    HW2 2395   1.089   5.082   8.610
33500SOL     OW 2396   7.629   6.610  13.630
33500SOL    HW1 2397   7.635   6.567  13.715
33500SOL    HW2 2398   7.650   6.702  13.648
33501SOL     OW 2399  13.460   8.190   7.392
33501SOL    HW1 2400  13.380   8.244   7.397
33501SOL    HW2 2401  13.515   8.223   7.463
33502SOL     OW 2402  10.532   9.258   2.799
33502SOL    HW1 2403  10.544   9.312   2.721
33502SOL    HW2 2404  10.464   9.195   2.774
33503SOL     OW 2405  12.631  10.286  11.331
33503SOL    HW1 2406  12.548  10.274  11.285
33503SOL    HW2 2407  12.669  10.366  11.294
33504SOL     OW 2408   7.222   0.648  10.593
33504SOL    HW1 2409   7.232   0.597  10.673
33504SOL    HW2 2410   7.144   0.703  10.608
33505SOL     OW 2411  11.428   9.669  10.808
33505SOL    HW1 2412  11.513   9.704  10.833
33505SOL    HW2 2413  11.390   9.736  10.751
33506SOL     OW 2414   2.229  12.316  12.259
33506SOL    HW1 2415   2.156  12.292  12.201
33506SOL    HW2 2416   2.247  12.408  12.237
33507SOL     OW 2417   8.416   8.634   6.527
33507SOL    HW1 2418   8.351   8.692   6.566
33507SOL    HW2 2419   8.493   8.690   6.512
33508SOL     OW 2420   4.091  12.762   2.517
33508SOL    HW1 2421   4.106  12.776   2.611
33508SOL    HW2 2422   4.051  12.844   2.487
33509SOL     OW 2423   3.293   2.405   0.095
33509SOL    HW1 2424   3.270   2.491   0.059
33509SOL    HW2 2425   3.385   2.415   0.123
33510SOL     OW 2426   4.136   2.607   5.557
33510SOL    HW1 2427   4.210   2.547   5.545
33510SOL    HW2 2428   4.106   2.591   5.647
33511SOL     OW 2429   7.447  14.167   2.153
33511SOL    HW1 2430   7.499  14.186   2.232
33511SOL    HW2 2431   7.429  14.073   2.159
33512SOL     OW 2432   9.571   2.753   7.055
33512SOL    HW1 2433   9.626   2.823   7.092
33512SOL    HW2 2434   9.549   2.784   6.967
33513SOL     OW 2435   2.021   1.142   8.776
33513SOL    HW1 2436   1.992   1.175   8.691
33513SOL    HW2 2437   2.116   1.139   8.770
33514SOL     OW 2438  11.954   8.706   9.557
33514SOL    HW1 2439  11.955   8.619   9.517
33514SOL    HW2 2440  12.047   8.729   9.564
33515SOL     OW 2441   2.299  11.783   5.802
33515SOL    HW1 2442   2.355  11.706   5.805
33515SOL    HW2 2443   2.263  11.791   5.890
33516SOL     OW 2444  13.471  12.175   0.205
33516SOL    HW1 2445  13.464  12.205   0.114
33516SOL    HW2 2446  13.563  12.150   0.216
33517SOL     OW 2447  14.145   1.268   1.037
33517SOL    HW1 2448  14.184   1.270   1.125
33517SOL    HW2 2449  14.114   1.178   1.027
33518SOL     OW 2450  13.145   3.975   1.479
33518SOL    HW1 2451  13.219   3.932   1.436
33518SOL    HW2 2452  13.118   3.914   1.547
33519SOL     OW 2453   6.813  14.020   0.908
33519SOL    HW1 2454   6.907  14.013   0.926
33519SOL    HW2 2455   6.800  14.113   0.890
33520SOL     OW 2456  11.208   5.300  13.725
33520SOL    HW1 2457  11.214   5.239  13.651
33520SOL    HW2 2458  11.270   5.266  13.789
33521SOL     OW 2459  10.517   5.498   8.543
33521SOL    HW1 2460  10.610   5.512   8.528
33521SOL    HW2 2461  10.496   5.556   8.616
33522SOL     OW 2462  13.832   5.912   9.259
33522SOL    HW1 2463  13.819   5.916   9.354
33522SOL    HW2 2464  13.916   5.866   9.249
33523SOL     OW 2465   1.962   2.217   0.297
33523SOL    HW1 2466   2.010   2.275   0.356
33523SOL    HW2 2467   1.950   2.136   0.347
33524SOL     OW 2468  11.985   9.955   1.852
33524SOL    HW1 2469  12.004  10.009   1.929
33524SOL    HW2 2470  11.959   9.871   1.887
33525SOL     OW 2471   3.438   9.155  10.329
33525SOL    HW1 2472   3.429   9.122  10.240
33525SOL    HW2 2473   3.507   9.102  10.368
33526SOL     OW 2474   3.094   8.421   2.132
33526SOL    HW1 2475   3.066   8.510   2.108
33526SOL    HW2 2476   3.017   8.367   2.119
33527SOL     OW 2477   6.624   8.067  14.008
33527SOL    HW1 2478   6.719   8.054  14.013
33527SOL    HW2 2479   6.591   7.987  13.968
33528SOL     OW 2480  10.067   5.199   9.270
33528SOL    HW1 2481  10.037   5.113   9.297
33528SOL    HW2 2482  10.022   5.260   9.328
33529SOL     OW 2483   7.451   5.289   1.512
33529SOL    HW1 2484   7.414   5.225   1.451
33529SOL    HW2 2485   7.508   5.238   1.569
33530SOL     OW 2486  12.595  13.255   4.005
33530SOL    HW1 2487  12.591  13.279   4.098
33530SOL    HW2 2488  12.583  13.160   4.005
33531SOL     OW 2489   9.998  11.411   5.618
33531SOL    HW1 2490   9.914  11.383   5.580
33531SOL    HW2 2491   9.980  11.497   5.654
33532SOL     OW 2492  13.350  13.577   9.199
33532SOL    HW1 2493  13.415  13.563   9.130
33532SOL    HW2 2494  13.402  13.586   9.279
33533SOL     OW 2495   3.444   3.079  10.987
33533SOL    HW1 2496   3.429   3.055  11.078
33533SOL    HW2 2497   3.361   3.058  10.943
33534SOL     OW 2498  14.471   1.725   9.563
33534SOL    HW1 2499  14.423   1.731   9.480
33534SOL    HW2 2500  14.523   1.805   9.566
33535SOL     OW 2501   9.284   4.007  12.530
33535SOL    HW1 2502   9.276   4.091  12.575
33535SOL    HW2 2503   9.282   4.029  12.437
33536SOL     OW 2504  12.469  14.398  14.641
33536SOL    HW1 2505  12.414  14.414  14.718
33536SOL    HW2 2506  12.547  14.451  14.657
33537SOL     OW 2507   0.309   2.234  10.985
33537SOL    HW1 2508   0.320   2.140  10.973
33537SOL    HW2 2509   0.398   2.269  10.989
33538SOL     OW 2510  10.838   1.953   2.578
33538SOL    HW1 2511  10.858   2.004   2.656
33538SOL    HW2 2512  10.816   1.866   2.611
33539SOL     OW 2513  14.431  10.442   6.086
33539SOL    HW1 2514  14.348  10.423   6.131
33539SOL    HW2 2515  14.498  10.428   6.152
33540SOL     OW 2516   8.148   1.334  14.256
33540SOL    HW1 2517   8.105   1.250  14.239
33540SOL    HW2 2518   8.085   1.399  14.224
33541SOL     OW 2519  11.935   2.834   0.145
33541SOL    HW1 2520  11.951   2.897   0.075
33541SOL    HW2 2521  11.841   2.839   0.160
33542SOL     OW 2522   7.152   9.398  13.809
33542SOL    HW1 2523   7.231   9.428  13.855
33542SOL    HW2 2524   7.082   9.405  13.875
33543SOL     OW 2525   0.238   7.244  10.636
33543SOL    HW1 2526   0.161   7.201  10.597
33543SOL    HW2 2527   0.221   7.338  10.626
33544SOL     OW 2528   0.115  14.560   7.791
33544SOL    HW1 2529   0.060  14.620   7.741
33544SOL    HW2 2530   0.203  14.570   7.755
33545SOL     OW 2531   1.013  14.121   7.218
33545SOL    HW1 2532   1.001  14.124   7.313
33545SOL    HW2 2533   1.090  14.066   7.205
33546SOL     OW 2534  13.493   2.152   5.240
33546SOL    HW1 2535  13.461   2.197   5.162
33546SOL    HW2 2536  13.446   2.192   5.313
33547SOL     OW 2537  12.531   3.339   4.108
33547SOL    HW1 2538  12.494   3.360   4.022
33547SOL    HW2 2539  12.536   3.243   4.109
33548SOL     OW 2540   4.280   9.458   1.540
33548SOL    HW1 2541   4.232   9.533   1.505
33548SOL    HW2 2542   4.352   9.497   1.591
33549SOL     OW 2543  11.760  13.486   1.484
33549SOL    HW1 2544  11.712  13.568   1.489
33549SOL    HW2 2545  11.698  13.420   1.512
33550SOL     OW 2546   5.524   4.124   7.173
33550SOL    HW1 2547   5.492   4.166   7.093
33550SOL    HW2 2548   5.514   4.190   7.241
33551SOL     OW 2549  11.541  12.473   3.935
33551SOL    HW1 2550  11.458  12.431   3.912
33551SOL    HW2 2551  11.516  12.546   3.992
33552SOL     OW 2552   9.049  14.619   9.652
33552SOL    HW1 2553   9.083  14.651   9.736
33552SOL    HW2 2554   9.045  14.697   9.597
33553SOL     OW 2555   9.845   4.013   8.525
33553SOL    HW1 2556   9.775   4.061   8.571
33553SOL    HW2 2557   9.883   3.956   8.591
33554SOL     OW 2558   3.188  12.733  12.546
33554SOL    HW1 2559   3.251  12.668  12.578
33554SOL    HW2 2560   3.113  12.725  12.604
33555SOL     OW 2561   4.924  14.818   5.854
33555SOL    HW1 2562   4.979  14.824   5.932
33555SOL    HW2 2563   4.965   0.006   5.790
33556SOL     OW 2564  14.162   1.352   5.530
33556SOL    HW1 2565  14.181   1.304   5.449
33556SOL    HW2 2566  14.127   1.286   5.590
33557SOL     OW 2567  11.401   1.691   7.751
33557SOL    HW1 2568  11.327   1.722   7.804
33557SOL    HW2 2569  11.360   1.647   7.677
33558SOL     OW 2570   5.706   5.935   0.946
33558SOL    HW1 2571   5.646   5.910   0.876
33558SOL    HW2 2572   5.693   5.869   1.013
33559SOL     OW 2573   3.549   6.744   8.473
33559SOL    HW1 2574   3.523   6.728   8.564
33559SOL    HW2 2575   3.540   6.838   8.462
33560SOL     OW 2576   8.776   7.426   9.547
33560SOL    HW1 2577   8.866   7.402   9.529
33560SOL    HW2 2578   8.724   7.368   9.492
33561SOL     OW 2579  11.042   5.911   1.119
33561SOL    HW1 2580  11.042   6.003   1.146
33561SOL    HW2 2581  11.127   5.877   1.147
33562SOL     OW 2582   3.452   9.330   9.081
33562SOL    HW1 2583   3.446   9.424   9.062
33562SOL    HW2 2584   3.520   9.298   9.022
33563SOL     OW 2585   9.581   4.953   4.958
33563SOL    HW1 2586   9.673   4.973   4.942
33563SOL    HW2 2587   9.537   5.038   4.955
33564SOL     OW 2588  11.529  11.633   9.472
33564SOL    HW1 2589  11.598  11.698   9.458
33564SOL    HW2 2590  11.450  11.675   9.439
33565SOL     OW 2591  13.729   4.643  12.694
33565SOL    HW1 2592  13.668   4.590  12.641
33565SOL    HW2 2593  13.700   4.733  12.680
33566SOL     OW 2594  11.155  10.155   8.228
33566SOL    HW1 2595  11.180  10.151   8.321
33566SOL    HW2 2596  11.175  10.245   8.202
33567SOL     OW 2597   3.309   7.208  12.102
33567SOL    HW1 2598   3.404   7.220  12.105
33567SOL    HW2 2599   3.296   7.119  12.069
33568SOL     OW 2600  12.945  12.954   5.506
33568SOL    HW1 2601  12.867  13.003   5.531
33568SOL    HW2 2602  12.915  12.893   5.438
33569SOL     OW 2603   1.073   5.294  12.458
33569SOL    HW1 2604   1.155   5.295  12.409
33569SOL    HW2 2605   1.004   5.288  12.391
33570SOL     OW 2606  10.727   2.453  13.769
33570SOL    HW1 2607  10.793   2.462  13.700
33570SOL    HW2 2608  10.650   2.419  13.725
33571SOL     OW 2609   0.924  11.513   5.875
33571SOL    HW1 2610   1.015  11.541   5.866
33571SOL    HW2 2611   0.919  11.475   5.963
33572SOL     OW 2612   7.983   0.407  12.633
33572SOL    HW1 2613   7.937   0.351  12.695
33572SOL    HW2 2614   8.069   0.420  12.672
33573SOL     OW 2615  13.580   0.197  13.275
33573SOL    HW1 2616  13.634   0.157  13.343
33573SOL    HW2 2617  13.601   0.291  13.281
33574SOL     OW 2618   7.655   0.652   3.364
33574SOL    HW1 2619   7.584   0.709   3.393
33574SOL    HW2 2620   7.734   0.704   3.376
33575SOL     OW 2621   2.326   9.472   4.515
33575SOL    HW1 2622   2.387   9.399   4.529
33575SOL    HW2 2623   2.288   9.489   4.601
33576SOL     OW 2624   3.549  14.092   1.050
33576SOL    HW1 2625   3.540  14.094   0.955
33576SOL    HW2 2626   3.641  14.113   1.066
33577SOL     OW 2627   9.532   2.124  10.320
33577SOL    HW1 2628   9.512   2.165  10.404
33577SOL    HW2 2629   9.495   2.036  10.326
33578SOL     OW 2630  13.806   9.522   1.664
33578SOL    HW1 2631  13.870   9.515   1.593
33578SOL    HW2 2632  13.859   9.534   1.742
33579SOL     OW 2633  11.739  12.952   6.403
33579SOL    HW1 2634  11.659  12.919   6.445
33579SOL    HW2 2635  11.810  12.908   6.448
33580SOL     OW 2636   4.154   7.820   6.598
33580SOL    HW1 2637   4.191   7.811   6.511
33580SOL    HW2 2638   4.121   7.910   6.601
33581SOL     OW 2639   2.892   4.803   7.526
33581SOL    HW1 2640   2.868   4.722   7.481
33581SOL    HW2 2641   2.841   4.800   7.608
33582SOL     OW 2642   5.989   0.688   0.821
33582SOL    HW1 2643   5.942   0.772   0.818
33582SOL    HW2 2644   5.995   0.661   0.729
33583SOL     OW 2645  13.775   0.158  11.384
33583SOL    HW1 2646  13.767   0.213  11.306
33583SOL    HW2 2647  13.740   0.073  11.357
33584SOL     OW 2648   3.249   2.128   9.514
33584SOL    HW1 2649   3.301   2.128   9.434
33584SOL    HW2 2650   3.310   2.099   9.582
33585SOL     OW 2651   2.405  11.758   6.150
33585SOL    HW1 2652   2.366  11.705   6.219
33585SOL    HW2 2653   2.330  11.800   6.107
33586SOL     OW 2654   3.981  10.183   0.492
33586SOL    HW1 2655   4.076  10.180   0.503
33586SOL    HW2 2656   3.947  10.131   0.565
33587SOL     OW 2657  11.298   8.961   8.378
33587SOL    HW1 2658  11.292   8.892   8.444
33587SOL    HW2 2659  11.341   8.919   8.304
33588SOL     OW 2660   5.488   7.761  11.366
33588SOL    HW1 2661   5.440   7.724  11.292
33588SOL    HW2 2662   5.548   7.824  11.326
33589SOL     OW 2663   3.974   7.391   7.750
33589SOL    HW1 2664   3.891   7.439   7.759
33589SOL    HW2 2665   4.040   7.460   7.740
33590SOL     OW 2666  12.489   2.249   3.141
33590SOL    HW1 2667  12.476   2.320   3.204
33590SOL    HW2 2668  12.538   2.290   3.070
33591SOL     OW 2669  11.144  14.600   3.138
33591SOL    HW1 2670  11.113  14.673   3.084
33591SOL    HW2 2671  11.066  14.567   3.181
33592SOL     OW 2672   5.733   9.861   4.172
33592SOL    HW1 2673   5.816   9.813   4.165
33592SOL    HW2 2674   5.682   9.812   4.235
33593SOL     OW 2675  10.091   6.478   5.005
33593SOL    HW1 2676  10.018   6.467   5.066
33593SOL    HW2 2677  10.151   6.538   5.050
33594SOL     OW 2678  11.952  10.260  12.348
33594SOL    HW1 2679  11.897  10.312  12.291
33594SOL    HW2 2680  12.019  10.223  12.290
33595SOL     OW 2681  10.320   4.963   2.685
33595SOL    HW1 2682  10.336   4.872   2.709
33595SOL    HW2 2683  10.359   5.014   2.756
33596SOL     OW 2684  13.690   4.845  11.870
33596SOL    HW1 2685  13.640   4.879  11.944
33596SOL    HW2 2686  13.689   4.915  11.806
33597SOL     OW 2687   7.286   2.711  12.925
33597SOL    HW1 2688   7.282   2.804  12.901
33597SOL    HW2 2689   7.212   2.672  12.878
33598SOL     OW 2690   7.231  12.813  12.674
33598SOL    HW1 2691   7.293  12.768  12.616
33598SOL    HW2 2692   7.266  12.902  12.681
33599SOL     OW 2693   4.188  13.152  12.827
33599SOL    HW1 2694   4.271  13.118  12.860
33599SOL    HW2 2695   4.185  13.124  12.736
33600SOL     OW 2696   4.686   8.885   4.538
33600SOL    HW1 2697   4.594   8.897   4.514
33600SOL    HW2 2698   4.691   8.916   4.629
33601SOL     OW 2699   3.569   0.023  12.808
33601SOL    HW1 2700   3.598  14.808  12.840
33601SOL    HW2 2701   3.600   0.086  12.873
33602SOL     OW 2702  10.171   3.537   9.571
33602SOL    HW1 2703  10.240   3.507   9.512
33602SOL    HW2 2704  10.218   3.582   9.642
33603SOL     OW 2705   6.646   2.044   2.096
33603SOL    HW1 2706   6.651   2.000   2.011
33603SOL    HW2 2707   6.721   2.103   2.096
33604SOL     OW 2708   6.661   4.151   2.549
33604SOL    HW1 2709   6.583   4.204   2.565
33604SOL    HW2 2710   6.694   4.183   2.464
33605SOL     OW 2711   7.883   0.596  10.767
33605SOL    HW1 2712   7.848   0.537  10.700
33605SOL    HW2 2713   7.955   0.547  10.806
33606SOL     OW 2714   5.574  14.118   7.357
33606SOL    HW1 2715   5.508  14.137   7.291
33606SOL    HW2 2716   5.530  14.060   7.419
33607SOL     OW 2717   9.130   5.542   1.716
33607SOL    HW1 2718   9.120   5.637   1.724
33607SOL    HW2 2719   9.069   5.517   1.646
33608SOL     OW 2720  14.605   1.785   9.965
33608SOL    HW1 2721  14.692   1.818   9.940
33608SOL    HW2 2722  14.576   1.845  10.034
33609SOL     OW 2723   7.375   2.166   8.005
33609SOL    HW1 2724   7.372   2.103   7.933
33609SOL    HW2 2725   7.302   2.140   8.061
33610SOL     OW 2726   1.025  10.886   8.783
33610SOL    HW1 2727   1.022  10.940   8.861
33610SOL    HW2 2728   0.937  10.849   8.775
33611SOL     OW 2729   1.104   6.583   0.730
33611SOL    HW1 2730   1.187   6.630   0.725
33611SOL    HW2 2731   1.124   6.496   0.695
33612SOL     OW 2732   4.626  12.638  11.709
33612SOL    HW1 2733   4.669  12.711  11.666
33612SOL    HW2 2734   4.535  12.642  11.680
33613SOL     OW 2735  13.959   0.504   5.635
33613SOL    HW1 2736  13.900   0.438   5.598
33613SOL    HW2 2737  14.047   0.473   5.612
33614SOL     OW 2738   7.960   6.962  10.259
33614SOL    HW1 2739   7.904   6.995  10.188
33614SOL    HW2 2740   7.979   7.040  10.312
33615SOL     OW 2741  12.183   1.319   9.786
33615SOL    HW1 2742  12.100   1.331   9.741
33615SOL    HW2 2743  12.165   1.256   9.855
33616SOL     OW 2744  13.669  12.173   5.990
33616SOL    HW1 2745  13.705  12.245   5.937
33616SOL    HW2 2746  13.649  12.104   5.926
33617SOL     OW 2747   4.855  13.857  12.100
33617SOL    HW1 2748   4.872  13.948  12.125
33617SOL    HW2 2749   4.892  13.849  12.012
33618SOL     OW 2750  13.385   0.306  14.121
33618SOL    HW1 2751  13.418   0.268  14.039
33618SOL    HW2 2752  13.320   0.370  14.093
33619SOL     OW 2753   0.199  12.728   4.304
33619SOL    HW1 2754   0.181  12.637   4.326
33619SOL    HW2 2755   0.152  12.742   4.221
33620SOL     OW 2756  12.261   8.513   0.291
33620SOL    HW1 2757  12.200   8.585   0.274
33620SOL    HW2 2758  12.309   8.503   0.209
33621SOL     OW 2759   0.114  14.574   6.316
33621SOL    HW1 2760   0.187  14.630   6.289
33621SOL    HW2 2761   0.079  14.617   6.395
33622SOL     OW 2762   3.204   4.359   0.530
33622SOL    HW1 2763   3.171   4.362   0.619
33622SOL    HW2 2764   3.221   4.450   0.507
33623SOL     OW 2765   2.315   5.028   2.737
33623SOL    HW1 2766   2.266   5.063   2.663
33623SOL    HW2 2767   2.333   5.104   2.792
33624SOL     OW 2768  13.995   3.377  11.148
33624SOL    HW1 2769  13.964   3.354  11.060
33624SOL    HW2 2770  14.048   3.302  11.175
33625SOL     OW 2771  13.408  12.073   3.267
33625SOL    HW1 2772  13.338  12.010   3.283
33625SOL    HW2 2773  13.383  12.151   3.317
33626SOL     OW 2774  11.482  12.669   7.498
33626SOL    HW1 2775  11.546  12.720   7.546
33626SOL    HW2 2776  11.398  12.691   7.537
33627SOL     OW 2777   3.196  14.260   6.110
33627SOL    HW1 2778   3.261  14.212   6.060
33627SOL    HW2 2779   3.246  14.324   6.160
33628SOL     OW 2780  12.088   3.488  13.108
33628SOL    HW1 2781  12.124   3.407  13.073
33628SOL    HW2 2782  12.115   3.489  13.200
33629SOL     OW 2783   4.812   4.309  13.502
33629SOL    HW1 2784   4.864   4.389  13.509
33629SOL    HW2 2785   4.782   4.292  13.591
33630SOL     OW 2786   6.611   9.610   4.723
33630SOL    HW1 2787   6.638   9.546   4.788
33630SOL    HW2 2788   6.517   9.620   4.736
33631SOL     OW 2789   1.534   4.119  11.183
33631SOL    HW1 2790   1.521   4.033  11.143
33631SOL    HW2 2791   1.621   4.114  11.224
33632SOL     OW 2792   7.201   1.449   0.573
33632SOL    HW1 2793   7.223   1.482   0.660
33632SOL    HW2 2794   7.209   1.354   0.579
33633SOL     OW 2795   3.482   2.040   0.443
33633SOL    HW1 2796   3.506   2.034   0.351
33633SOL    HW2 2797   3.419   1.969   0.457
33634SOL     OW 2798   3.486   4.352  13.611
33634SOL    HW1 2799   3.501   4.426  13.671
33634SOL    HW2 2800   3.503   4.274  13.664
33635SOL     OW 2801   4.197  13.601  11.514
33635SOL    HW1 2802   4.184  13.679  11.567
33635SOL    HW2 2803   4.110  13.561  11.508
33636SOL     OW 2804   9.664  12.082   3.441
33636SOL    HW1 2805   9.650  12.126   3.357
33636SOL    HW2 2806   9.652  11.989   3.421
33637SOL     OW 2807   0.709   1.861   9.146
33637SOL    HW1 2808   0.797   1.853   9.181
33637SOL    HW2 2809   0.652   1.826   9.214
33638SOL     OW 2810   4.559  13.043   2.376
33638SOL    HW1 2811   4.539  13.107   2.307
33638SOL    HW2 2812   4.474  13.023   2.416
33639SOL     OW 2813   8.006   4.490   7.677
33639SOL    HW1 2814   7.943   4.537   7.623
33639SOL    HW2 2815   8.062   4.559   7.713
33640SOL     OW 2816  12.573  12.973   7.514
33640SOL    HW1 2817  12.544  13.005   7.428
33640SOL    HW2 2818  12.588  12.879   7.500
33641SOL     OW 2819   3.908   2.637  11.886
33641SOL    HW1 2820   3.853   2.626  11.964
33641SOL    HW2 2821   3.993   2.600  11.911
33642SOL     OW 2822   1.507   4.745   6.643
33642SOL    HW1 2823   1.475   4.730   6.554
33642SOL    HW2 2824   1.593   4.703   6.644
33643SOL     OW 2825  10.306   1.619  10.889
33643SOL    HW1 2826  10.376   1.568  10.849
33643SOL    HW2 2827  10.319   1.708  10.856
33644SOL     OW 2828   8.763   5.166   2.304
33644SOL    HW1 2829   8.675   5.203   2.306
33644SOL    HW2 2830   8.784   5.149   2.396
33645SOL     OW 2831   3.283   1.048  14.512
33645SOL    HW1 2832   3.262   1.095  14.593
33645SOL    HW2 2833   3.309   0.961  14.541
33646SOL     OW 2834   2.476   5.681  13.848
33646SOL    HW1 2835   2.534   5.605  13.847
33646SOL    HW2 2836   2.418   5.667  13.773
33647SOL     OW 2837  13.426   2.516  13.417
33647SOL    HW1 2838  13.468   2.530  13.332
33647SOL    HW2 2839  13.497   2.488  13.475
33648SOL     OW 2840   9.920   9.040   0.397
33648SOL    HW1 2841  10.003   9.074   0.364
33648SOL    HW2 2842   9.944   8.962   0.447
33649SOL     OW 2843   9.907   3.603   8.843
33649SOL    HW1 2844   9.877   3.568   8.927
33649SOL    HW2 2845   9.918   3.526   8.788
33650SOL     OW 2846  10.110   2.035  14.175
33650SOL    HW1 2847  10.093   2.025  14.081
33650SOL    HW2 2848  10.193   1.990  14.189
33651SOL     OW 2849   4.622   1.855   8.571
33651SOL    HW1 2850   4.560   1.808   8.515
33651SOL    HW2 2851   4.699   1.798   8.574
33652SOL     OW 2852   5.790   9.393  10.384
33652SOL    HW1 2853   5.763   9.485  10.386
33652SOL    HW2 2854   5.816   9.377  10.293
33653SOL     OW 2855   8.477  10.890   0.036
33653SOL    HW1 2856   8.483  10.919   0.127
33653SOL    HW2 2857   8.384  10.870   0.024
33654SOL     OW 2858  11.403  11.616  12.350
33654SOL    HW1 2859  11.327  11.672  12.334
33654SOL    HW2 2860  11.366  11.530  12.370
33655SOL     OW 2861  14.101   6.089   6.576
33655SOL    HW1 2862  14.129   5.998   6.584
33655SOL    HW2 2863  14.142   6.119   6.494
33656SOL     OW 2864  12.628   3.374   2.641
33656SOL    HW1 2865  12.569   3.340   2.708
33656SOL    HW2 2866  12.676   3.444   2.684
33657SOL     OW 2867   3.702  10.772   7.258
33657SOL    HW1 2868   3.702  10.720   7.338
33657SOL    HW2 2869   3.790  10.809   7.252
33658SOL     OW 2870   2.656   5.688   8.750
33658SOL    HW1 2871   2.675   5.775   8.713
33658SOL    HW2 2872   2.741   5.646   8.758
33659SOL     OW 2873   9.746   3.614   5.383
33659SOL    HW1 2874   9.811   3.546   5.368
33659SOL    HW2 2875   9.784   3.670   5.450
33660SOL     OW 2876  12.814   2.884  12.416
33660SOL    HW1 2877  12.723   2.901  12.437
33660SOL    HW2 2878  12.833   2.943  12.343
33661SOL     OW 2879  10.591   9.806   4.876
33661SOL    HW1 2880  10.681   9.829   4.898
33661SOL    HW2 2881  10.561   9.878   4.819
33662SOL     OW 2882  12.260  14.431   8.809
33662SOL    HW1 2883  12.249  14.473   8.895
33662SOL    HW2 2884  12.177  14.447   8.764
33663SOL     OW 2885   9.513   4.357   1.193
33663SOL    HW1 2886   9.423   4.328   1.210
33663SOL    HW2 2887   9.547   4.291   1.132
33664SOL     OW 2888   2.891  12.666  11.020
33664SOL    HW1 2889   2.979  12.684  11.054
33664SOL    HW2 2890   2.861  12.591  11.071
33665SOL     OW 2891  14.491   3.219  11.660
33665SOL    HW1 2892  14.542   3.177  11.729
33665SOL    HW2 2893  14.405   3.179  11.667
33666SOL     OW 2894  11.927  12.391   2.777
33666SOL    HW1 2895  11.848  12.404   2.723
33666SOL    HW2 2896  11.973  12.474   2.771
33667SOL     OW 2897  14.228  12.139   2.150
33667SOL    HW1 2898  14.158  12.152   2.213
33667SOL    HW2 2899  14.305  12.116   2.203
33668SOL     OW 2900   8.514  11.982  14.287
33668SOL    HW1 2901   8.583  11.950  14.229
33668SOL    HW2 2902   8.560  12.028  14.357
33669SOL     OW 2903   9.195   2.848   1.079
33669SOL    HW1 2904   9.248   2.839   1.158
33669SOL    HW2 2905   9.136   2.772   1.081
33670SOL     OW 2906   8.530   8.125   9.547
33670SOL    HW1 2907   8.530   8.029   9.537
33670SOL    HW2 2908   8.617   8.152   9.518
33671SOL     OW 2909  11.512  14.855   7.568
33671SOL    HW1 2910  11.601  14.831   7.543
33671SOL    HW2 2911  11.494   0.064   7.517
33672SOL     OW 2912   8.021  14.350  13.268
33672SOL    HW1 2913   8.045  14.257  13.277
33672SOL    HW2 2914   7.944  14.360  13.323
33673SOL     OW 2915   6.606   6.655   4.609
33673SOL    HW1 2916   6.590   6.576   4.558
33673SOL    HW2 2917   6.661   6.709   4.552
33674SOL     OW 2918   5.295   1.338  13.946
33674SOL    HW1 2919   5.252   1.272  14.001
33674SOL    HW2 2920   5.267   1.422  13.984
33675SOL     OW 2921   5.120  12.252  14.148
33675SOL    HW1 2922   5.198  12.292  14.109
33675SOL    HW2 2923   5.138  12.158  14.146
33676SOL     OW 2924  14.275   0.679   9.541
33676SOL    HW1 2925  14.249   0.677   9.449
33676SOL    HW2 2926  14.257   0.768   9.569
33677SOL     OW 2927  11.049  10.587   2.085
33677SOL    HW1 2928  11.071  10.589   1.992
33677SOL    HW2 2929  11.123  10.630   2.128
33678SOL     OW 2930   1.723   1.246  14.790
33678SOL    HW1 2931   1.776   1.320  14.762
33678SOL    HW2 2932   1.783   1.171  14.786
33679SOL     OW 2933   7.335   1.940   5.087
33679SOL    HW1 2934   7.325   2.018   5.142
33679SOL    HW2 2935   7.256   1.889   5.103
33680SOL     OW 2936   2.240   9.261   9.216
33680SOL    HW1 2937   2.155   9.224   9.242
33680SOL    HW2 2938   2.298   9.241   9.290
33681SOL     OW 2939   0.268   1.966   5.142
33681SOL    HW1 2940   0.244   2.057   5.125
33681SOL    HW2 2941   0.266   1.959   5.238
33682SOL     OW 2942   8.340   2.355   2.748
33682SOL    HW1 2943   8.341   2.266   2.712
33682SOL    HW2 2944   8.283   2.349   2.825
33683SOL     OW 2945   4.226   1.138   8.499
33683SOL    HW1 2946   4.160   1.199   8.533
33683SOL    HW2 2947   4.275   1.190   8.435
33684SOL     OW 2948   2.130   9.082  11.456
33684SOL    HW1 2949   2.167   9.015  11.514
33684SOL    HW2 2950   2.203   9.141  11.437
33685SOL     OW 2951   9.124   4.981   4.278
33685SOL    HW1 2952   9.100   5.036   4.204
33685SOL    HW2 2953   9.051   4.988   4.339
33686SOL     OW 2954   4.485   1.542   0.322
33686SOL    HW1 2955   4.432   1.476   0.278
33686SOL    HW2 2956   4.458   1.538   0.414
33687SOL     OW 2957  14.842   1.457   8.124
33687SOL    HW1 2958   0.001   1.537   8.078
33687SOL    HW2 2959  14.857   1.387   8.060
33688SOL     OW 2960   5.024   0.877   9.907
33688SOL    HW1 2961   5.048   0.785   9.893
33688SOL    HW2 2962   4.983   0.877   9.994
33689SOL     OW 2963   8.197  10.227  12.931
33689SOL    HW1 2964   8.268  10.172  12.964
33689SOL    HW2 2965   8.241  10.291  12.875
33690SOL     OW 2966   2.128   1.482   6.600
33690SOL    HW1 2967   2.156   1.573   6.609
33690SOL    HW2 2968   2.113   1.471   6.506
33691SOL     OW 2969  12.894   7.265   4.186
33691SOL    HW1 2970  12.955   7.276   4.114
33691SOL    HW2 2971  12.819   7.220   4.147
33692SOL     OW 2972   5.729   2.674  11.271
33692SOL    HW1 2973   5.732   2.769  11.285
33692SOL    HW2 2974   5.741   2.664  11.177
33693SOL     OW 2975   5.672  12.766   0.149
33693SOL    HW1 2976   5.763  12.763   0.119
33693SOL    HW2 2977   5.649  12.859   0.146
33694SOL     OW 2978  10.338   5.936   8.895
33694SOL    HW1 2979  10.418   5.895   8.928
33694SOL    HW2 2980  10.269   5.872   8.912
33695SOL     OW 2981   6.100   7.374   4.905
33695SOL    HW1 2982   6.135   7.462   4.894
33695SOL    HW2 2983   6.109   7.356   4.999
33696SOL     OW 2984   2.906   3.690   9.747
33696SOL    HW1 2985   2.966   3.630   9.701
33696SOL    HW2 2986   2.914   3.773   9.699
33697SOL     OW 2987   0.640  11.698   4.447
33697SOL    HW1 2988   0.585  11.620   4.460
33697SOL    HW2 2989   0.667  11.693   4.356
33698SOL     OW 2990   5.238   4.587  10.755
33698SOL    HW1 2991   5.250   4.643  10.831
33698SOL    HW2 2992   5.219   4.647  10.683
33699SOL     OW 2993  14.041   1.785  14.836
33699SOL    HW1 2994  13.956   1.754  14.867
33699SOL    HW2 2995  14.024   1.814  14.746
33700SOL     OW 2996  13.075   4.183  13.009
33700SOL    HW1 2997  13.150   4.149  13.059
33700SOL    HW2 2998  13.003   4.181  13.071
33701SOL     OW 2999   9.105   1.655   8.854
33701SOL    HW1 3000   9.071   1.720   8.792
33701SOL    HW2 3001   9.032   1.594   8.867
33702SOL     OW 3002  14.229   9.642  10.557
33702SOL    HW1 3003  14.194   9.730  10.575
33702SOL    HW2 3004  14.191   9.587  10.625
33703SOL     OW 3005   8.853  13.221  14.477
33703SOL    HW1 3006   8.938  13.226  14.520
33703SOL    HW2 3007   8.826  13.312  14.467
33704SOL     OW 3008   8.487  10.731   4.559
33704SOL    HW1 3009   8.393  10.736   4.540
33704SOL    HW2 3010   8.513  10.644   4.528
33705SOL     OW 3011   2.500   8.606   7.914
33705SOL    HW1 3012   2.512   8.514   7.937
33705SOL    HW2 3013   2.418   8.608   7.864
33706SOL     OW 3014  13.134  10.066   0.587
33706SOL    HW1 3015  13.092   9.990   0.546
33706SOL    HW2 3016  13.199  10.028   0.647
33707SOL     OW 3017  12.908   1.646   9.496
33707SOL    HW1 3018  12.868   1.580   9.439
33707SOL    HW2 3019  12.880   1.729   9.459
33708SOL     OW 3020   7.857   7.352  11.733
33708SOL    HW1 3021   7.918   7.295  11.780
33708SOL    HW2 3022   7.913   7.412  11.685
33709SOL     OW 3023   2.740   5.903   4.764
33709SOL    HW1 3024   2.774   5.877   4.849
33709SOL    HW2 3025   2.664   5.957   4.783
33710SOL     OW 3026   6.040  14.278   7.964
33710SOL    HW1 3027   6.092  14.274   8.044
33710SOL    HW2 3028   6.052  14.367   7.932
33711SOL     OW 3029   0.096   8.126   2.564
33711SOL    HW1 3030   0.062   8.142   2.652
33711SOL    HW2 3031   0.163   8.059   2.576
33712SOL     OW 3032   4.059   3.039   9.195
33712SOL    HW1 3033   4.011   3.003   9.120
33712SOL    HW2 3034   4.113   3.108   9.157
33713SOL     OW 3035  12.188   9.581  12.304
33713SOL    HW1 3036  12.142   9.576  12.221
33713SOL    HW2 3037  12.281   9.578  12.281
33714SOL     OW 3038   1.380  13.674   4.047
33714SOL    HW1 3039   1.400  13.724   3.968
33714SOL    HW2 3040   1.315  13.611   4.020
33715SOL     OW 3041   7.052   6.727   5.720
33715SOL    HW1 3042   7.110   6.703   5.647
33715SOL    HW2 3043   7.112   6.750   5.791
33716SOL     OW 3044   6.143   4.271   1.610
33716SOL    HW1 3045   6.131   4.364   1.630
33716SOL    HW2 3046   6.056   4.241   1.581
33717SOL     OW 3047  11.965   7.214   9.204
33717SOL    HW1 3048  11.938   7.273   9.274
33717SOL    HW2 3049  12.015   7.145   9.248
33718SOL     OW 3050   6.276  11.834   5.468
33718SOL    HW1 3051   6.316  11.761   5.515
33718SOL    HW2 3052   6.218  11.875   5.533
33719SOL     OW 3053   5.387   1.375   2.678
33719SOL    HW1 3054   5.297   1.360   2.707
33719SOL    HW2 3055   5.438   1.381   2.759
33720SOL     OW 3056   8.222   9.361   7.607
33720SOL    HW1 3057   8.261   9.434   7.655
33720SOL    HW2 3058   8.233   9.286   7.664
33721SOL     OW 3059  10.490  11.499  10.435
33721SOL    HW1 3060  10.563  11.437  10.435
33721SOL    HW2 3061  10.507  11.556  10.510
33722SOL     OW 3062   7.747   9.560   3.180
33722SOL    HW1 3063   7.733   9.528   3.091
33722SOL    HW2 3064   7.781   9.649   3.168
33723SOL     OW 3065   5.563   6.142  13.433
33723SOL    HW1 3066   5.552   6.101  13.347
33723SOL    HW2 3067   5.657   6.134  13.451
33724SOL     OW 3068   0.996  14.072   4.541
33724SOL    HW1 3069   0.912  14.060   4.584
33724SOL    HW2 3070   1.014  14.165   4.547
33725SOL     OW 3071   0.305   0.440  11.743
33725SOL    HW1 3072   0.315   0.375  11.813
33725SOL    HW2 3073   0.372   0.506  11.761
33726SOL     OW 3074  12.103  12.790   2.242
33726SOL    HW1 3075  12.150  12.851   2.184
33726SOL    HW2 3076  12.049  12.847   2.297
33727SOL     OW 3077   0.219  13.158  11.739
33727SOL    HW1 3078   0.166  13.108  11.677
33727SOL    HW2 3079   0.188  13.132  11.825
33728SOL     OW 3080  13.982   6.199   7.341
33728SOL    HW1 3081  14.001   6.293   7.346
33728SOL    HW2 3082  13.970   6.181   7.248
33729SOL     OW 3083   2.581   0.239   4.151
33729SOL    HW1 3084   2.576   0.238   4.246
33729SOL    HW2 3085   2.532   0.161   4.124
33730SOL     OW 3086  13.996   0.379   0.623
33730SOL    HW1 3087  13.951   0.343   0.699
33730SOL    HW2 3088  13.956   0.465   0.609
33731SOL     OW 3089   6.171   3.072   4.766
33731SOL    HW1 3090   6.217   3.005   4.715
33731SOL    HW2 3091   6.078   3.058   4.748
33732SOL     OW 3092  11.800  10.998  10.997
33732SOL    HW1 3093  11.754  10.932  10.946
33732SOL    HW2 3094  11.739  11.072  11.000
33733SOL     OW 3095   1.805   9.588   0.684
33733SOL    HW1 3096   1.786   9.651   0.614
33733SOL    HW2 3097   1.781   9.635   0.764
33734SOL     OW 3098   7.296   4.191   8.917
33734SOL    HW1 3099   7.270   4.282   8.932
33734SOL    HW2 3100   7.329   4.161   9.001
33735SOL     OW 3101   0.930  14.122   9.046
33735SOL    HW1 3102   0.859  14.185   9.063
33735SOL    HW2 3103   0.993  14.138   9.116
33736SOL     OW 3104  10.154   2.507   7.878
33736SOL    HW1 3105  10.163   2.429   7.823
33736SOL    HW2 3106  10.152   2.580   7.816
33737SOL     OW 3107  13.693   6.548   0.697
33737SOL    HW1 3108  13.722   6.485   0.630
33737SOL    HW2 3109  13.604   6.571   0.671
33738SOL     OW 3110   1.064  12.178   8.250
33738SOL    HW1 3111   0.987  12.139   8.208
33738SOL    HW2 3112   1.111  12.219   8.177
33739SOL     OW 3113   4.637  12.345  11.737
33739SOL    HW1 3114   4.599  12.429  11.715
33739SOL    HW2 3115   4.731  12.356  11.722
33740SOL     OW 3116   7.172  14.297   4.132
33740SOL    HW1 3117   7.255  14.299   4.180
33740SOL    HW2 3118   7.191  14.244   4.055
33741SOL     OW 3119  10.907   3.333   9.796
33741SOL    HW1 3120  10.834   3.308   9.739
33741SOL    HW2 3121  10.870   3.401   9.853
33742SOL     OW 3122  10.370   2.632   1.600
33742SOL    HW1 3123  10.381   2.654   1.507
33742SOL    HW2 3124  10.444   2.674   1.643
33743SOL     OW 3125  13.456   9.239   3.849
33743SOL    HW1 3126  13.360   9.247   3.850
33743SOL    HW2 3127  13.480   9.225   3.941
33744SOL     OW 3128  12.219  12.232   7.080
33744SOL    HW1 3129  12.248  12.323   7.086
33744SOL    HW2 3130  12.294  12.185   7.043
33745SOL     OW 3131  12.534   2.874   3.640
33745SOL    HW1 3132  12.440   2.873   3.621
33745SOL    HW2 3133  12.576   2.858   3.556
33746SOL     OW 3134   2.019  10.089   3.378
33746SOL    HW1 3135   2.079  10.021   3.406
33746SOL    HW2 3136   2.063  10.132   3.304
33747SOL     OW 3137   7.495   4.055   0.103
33747SOL    HW1 3138   7.424   4.031   0.043
33747SOL    HW2 3139   7.563   3.990   0.087
33748SOL     OW 3140   7.913   8.202  12.013
33748SOL    HW1 3141   7.950   8.277  12.059
33748SOL    HW2 3142   7.826   8.191  12.049
33749SOL     OW 3143   0.461  14.834   6.823
33749SOL    HW1 3144   0.449   0.058   6.840
33749SOL    HW2 3145   0.482  14.796   6.908
33750SOL     OW 3146   6.009  12.920  13.060
33750SOL    HW1 3147   6.035  13.011  13.047
33750SOL    HW2 3148   6.037  12.875  12.980
33751SOL     OW 3149   1.045  10.775  13.308
33751SOL    HW1 3150   1.021  10.854  13.356
33751SOL    HW2 3151   1.099  10.807  13.235
33752SOL     OW 3152   1.441   1.070   5.002
33752SOL    HW1 3153   1.487   0.990   5.026
33752SOL    HW2 3154   1.505   1.120   4.951
33753SOL     OW 3155   9.094   1.582   4.747
33753SOL    HW1 3156   9.051   1.651   4.799
33753SOL    HW2 3157   9.131   1.523   4.813
33754SOL     OW 3158   8.230   4.863  13.673
33754SOL    HW1 3159   8.166   4.859  13.744
33754SOL    HW2 3160   8.187   4.820  13.599
33755SOL     OW 3161   3.384  12.944   8.494
33755SOL    HW1 3162   3.301  12.991   8.481
33755SOL    HW2 3163   3.372  12.897   8.577
33756SOL     OW 3164  12.403   3.872  14.103
33756SOL    HW1 3165  12.379   3.959  14.071
33756SOL    HW2 3166  12.497   3.865  14.088
33757SOL     OW 3167  10.260  14.308   5.990
33757SOL    HW1 3168  10.192  14.246   6.019
33757SOL    HW2 3169  10.342  14.259   5.999
33758SOL     OW 3170  14.416   1.409   5.178
33758SOL    HW1 3171  14.384   1.319   5.188
33758SOL    HW2 3172  14.507   1.405   5.206
33759SOL     OW 3173   3.078   3.856   0.556
33759SOL    HW1 3174   3.147   3.833   0.493
33759SOL    HW2 3175   3.042   3.938   0.523
33760SOL     OW 3176   4.830   0.027   5.063
33760SOL    HW1 3177   4.812   0.096   5.000
33760SOL    HW2 3178   4.816  14.815   5.015
33761SOL     OW 3179  11.368   1.562   8.585
33761SOL    HW1 3180  11.375   1.602   8.672
33761SOL    HW2 3181  11.325   1.478   8.602
33762SOL     OW 3182   7.667  13.051   4.881
33762SOL    HW1 3183   7.626  12.966   4.864
33762SOL    HW2 3184   7.754  13.030   4.913
33763SOL     OW 3185   7.950   9.078  11.932
33763SOL    HW1 3186   8.012   9.066  12.004
33763SOL    HW2 3187   7.865   9.088  11.976
33764SOL     OW 3188  11.862   0.426   8.026
33764SOL    HW1 3189  11.925   0.483   7.982
33764SOL    HW2 3190  11.789   0.419   7.964
33765SOL     OW 3191   0.063   9.399   3.885
33765SOL    HW1 3192   0.019   9.318   3.911
33765SOL    HW2 3193  14.862   9.457   3.858
33766SOL     OW 3194   6.287   0.191   3.714
33766SOL    HW1 3195   6.377   0.162   3.728
33766SOL    HW2 3196   6.291   0.286   3.725
33767SOL     OW 3197   4.792  11.667  13.475
33767SOL    HW1 3198   4.714  11.612  13.481
33767SOL    HW2 3199   4.763  11.752  13.509
33768SOL     OW 3200   4.629  11.441   2.421
33768SOL    HW1 3201   4.707  11.438   2.366
33768SOL    HW2 3202   4.567  11.383   2.377
33769SOL     OW 3203  14.466  13.188  12.669
33769SOL    HW1 3204  14.546  13.227  12.633
33769SOL    HW2 3205  14.497  13.126  12.736
33770SOL     OW 3206   8.586   4.874   7.233
33770SOL    HW1 3207   8.665   4.832   7.198
33770SOL    HW2 3208   8.619   4.942   7.292
33771SOL     OW 3209   2.951   9.931  11.075
33771SOL    HW1 3210   2.983   9.947  11.164
33771SOL    HW2 3211   2.990  10.000  11.022
33772SOL     OW 3212   7.037  10.498   4.377
33772SOL    HW1 3213   6.994  10.451   4.448
33772SOL    HW2 3214   7.080  10.572   4.419
33773SOL     OW 3215   9.199   9.837   7.557
33773SOL    HW1 3216   9.190   9.758   7.503
33773SOL    HW2 3217   9.177   9.909   7.498
33774SOL     OW 3218   0.948   2.054  11.997
33774SOL    HW1 3219   1.000   1.975  11.984
33774SOL    HW2 3220   0.996   2.104  12.064
33775SOL     OW 3221   7.118   1.107   4.179
33775SOL    HW1 3222   7.178   1.070   4.244
33775SOL    HW2 3223   7.167   1.104   4.097
33776SOL     OW 3224   1.793   8.455   5.983
33776SOL    HW1 3225   1.888   8.470   5.975
33776SOL    HW2 3226   1.754   8.538   5.955
33777SOL     OW 3227  14.418  14.451   5.013
33777SOL    HW1 3228  14.358  14.524   5.024
33777SOL    HW2 3229  14.468  14.472   4.934
33778SOL     OW 3230  10.461  14.699   9.689
33778SOL    HW1 3231  10.468  14.746   9.606
33778SOL    HW2 3232  10.544  14.653   9.698
33779SOL     OW 3233   1.118  10.693   5.214
33779SOL    HW1 3234   1.102  10.599   5.226
33779SOL    HW2 3235   1.210  10.705   5.237
33780SOL     OW 3236   9.596  11.266   1.255
33780SOL    HW1 3237   9.657  11.202   1.291
33780SOL    HW2 3238   9.648  11.347   1.249
33781SOL     OW 3239   0.063  13.404   4.414
33781SOL    HW1 3240   0.147  13.384   4.454
33781SOL    HW2 3241   0.085  13.431   4.325
33782SOL     OW 3242  11.153   4.919  13.155
33782SOL    HW1 3243  11.143   5.011  13.128
33782SOL    HW2 3244  11.155   4.923  13.251
33783SOL     OW 3245  14.808   0.139   1.715
33783SOL    HW1 3246  14.831   0.213   1.660
33783SOL    HW2 3247  14.805   0.064   1.655
33784SOL     OW 3248   2.412   6.326  10.679
33784SOL    HW1 3249   2.366   6.252  10.640
33784SOL    HW2 3250   2.345   6.370  10.732
33785SOL     OW 3251  11.468   5.178  12.629
33785SOL    HW1 3252  11.539   5.242  12.632
33785SOL    HW2 3253  11.478   5.135  12.544
33786SOL     OW 3254  13.371   1.881  14.445
33786SOL    HW1 3255  13.294   1.921  14.485
33786SOL    HW2 3256  13.346   1.866  14.354
33787SOL     OW 3257   7.564   3.603  13.354
33787SOL    HW1 3258   7.522   3.628  13.272
33787SOL    HW2 3259   7.492   3.592  13.416
33788SOL     OW 3260   2.099  13.281   9.574
33788SOL    HW1 3261   2.183  13.257   9.611
33788SOL    HW2 3262   2.087  13.373   9.598
33789SOL     OW 3263   0.718   4.051   0.428
33789SOL    HW1 3264   0.681   3.980   0.376
33789SOL    HW2 3265   0.658   4.124   0.416
33790SOL     OW 3266   8.545   9.281  13.782
33790SOL    HW1 3267   8.580   9.201  13.821
33790SOL    HW2 3268   8.451   9.265  13.775
33791SOL     OW 3269  11.240  12.454   8.610
33791SOL    HW1 3270  11.325  12.447   8.566
33791SOL    HW2 3271  11.183  12.496   8.545
33792SOL     OW 3272   8.986   2.477   2.666
33792SOL    HW1 3273   8.903   2.492   2.709
33792SOL    HW2 3274   8.985   2.385   2.642
33793SOL     OW 3275  12.727   8.975  14.861
33793SOL    HW1 3276  12.649   8.997   0.042
33793SOL    HW2 3277  12.798   8.978   0.056
33794SOL     OW 3278   9.150   0.332   0.910
33794SOL    HW1 3279   9.132   0.426   0.922
33794SOL    HW2 3280   9.107   0.310   0.828
33795SOL     OW 3281   4.846   7.059   7.936
33795SOL    HW1 3282   4.861   6.998   7.864
33795SOL    HW2 3283   4.834   7.144   7.893
33796SOL     OW 3284   6.554   4.987   8.932
33796SOL    HW1 3285   6.470   5.017   8.899
33796SOL    HW2 3286   6.619   5.037   8.881
33797SOL     OW 3287   2.591  11.425   5.370
33797SOL    HW1 3288   2.518  11.428   5.308
33797SOL    HW2 3289   2.668  11.446   5.318
33798SOL     OW 3290  10.553  11.557   2.945
33798SOL    HW1 3291  10.533  11.649   2.925
33798SOL    HW2 3292  10.625  11.535   2.886
33799SOL     OW 3293   8.432   0.121   3.724
33799SOL    HW1 3294   8.516   0.134   3.768
33799SOL    HW2 3295   8.421   0.199   3.670
33800SOL     OW 3296   9.562   9.327   0.395
33800SOL    HW1 3297   9.504   9.402   0.415
33800SOL    HW2 3298   9.599   9.303   0.480
33801SOL     OW 3299  13.215  12.109   0.245
33801SOL    HW1 3300  13.168  12.160   0.311
33801SOL    HW2 3301  13.303  12.146   0.243
33802SOL     OW 3302  11.136  12.861   2.776
33802SOL    HW1 3303  11.216  12.902   2.744
33802SOL    HW2 3304  11.072  12.932   2.779
33803SOL     OW 3305   2.815  11.567   5.481
33803SOL    HW1 3306   2.798  11.645   5.428
33803SOL    HW2 3307   2.729  11.525   5.491
33804SOL     OW 3308   7.172   8.598   1.458
33804SOL    HW1 3309   7.130   8.542   1.392
33804SOL    HW2 3310   7.100   8.650   1.494
33805SOL     OW 3311  13.699   3.665  12.254
33805SOL    HW1 3312  13.726   3.644  12.343
33805SOL    HW2 3313  13.633   3.599  12.233
33806SOL     OW 3314   0.885  13.916   3.715
33806SOL    HW1 3315   0.815  13.868   3.671
33806SOL    HW2 3316   0.931  13.849   3.767
33807SOL     OW 3317   8.278   9.652   4.298
33807SOL    HW1 3318   8.256   9.735   4.255
33807SOL    HW2 3319   8.196   9.604   4.302
33808SOL     OW 3320  12.694  12.084   2.605
33808SOL    HW1 3321  12.705  11.993   2.579
33808SOL    HW2 3322  12.715  12.086   2.698
33809SOL     OW 3323  10.189   7.345   5.892
33809SOL    HW1 3324  10.147   7.279   5.947
33809SOL    HW2 3325  10.123   7.367   5.826
33810SOL     OW 3326  13.705   5.252  13.754
33810SOL    HW1 3327  13.691   5.299  13.672
33810SOL    HW2 3328  13.800   5.247  13.763
33811SOL     OW 3329  14.005   6.665   7.000
33811SOL    HW1 3330  14.012   6.584   6.949
33811SOL    HW2 3331  14.070   6.723   6.961
33812SOL     OW 3332   1.684  10.541  14.468
33812SOL    HW1 3333   1.688  10.455  14.509
33812SOL    HW2 3334   1.615  10.587  14.516
33813SOL     OW 3335   2.405   5.409  14.032
33813SOL    HW1 3336   2.442   5.417  14.120
33813SOL    HW2 3337   2.336   5.474  14.028
33814SOL     OW 3338   9.702   1.260   6.585
33814SOL    HW1 3339   9.667   1.226   6.503
33814SOL    HW2 3340   9.791   1.225   6.589
33815SOL     OW 3341  13.404  13.887   5.046
33815SOL    HW1 3342  13.373  13.801   5.074
33815SOL    HW2 3343  13.447  13.870   4.962
33816SOL     OW 3344  10.647   2.347  10.770
33816SOL    HW1 3345  10.697   2.346  10.689
33816SOL    HW2 3346  10.630   2.440  10.787
33817SOL     OW 3347   9.934   7.500  14.720
33817SOL    HW1 3348   9.853   7.552  14.719
33817SOL    HW2 3349   9.933   7.456  14.804
33818SOL     OW 3350  10.788  10.686  10.086
33818SOL    HW1 3351  10.700  10.687  10.049
33818SOL    HW2 3352  10.846  10.695  10.011
33819SOL     OW 3353  11.429   5.730   2.564
33819SOL    HW1 3354  11.387   5.798   2.617
33819SOL    HW2 3355  11.520   5.758   2.555
33820SOL     OW 3356  13.700  14.073   4.310
33820SOL    HW1 3357  13.666  14.117   4.389
33820SOL    HW2 3358  13.627  14.075   4.248
33821SOL     OW 3359   1.355   5.023  11.081
33821SOL    HW1 3360   1.365   5.052  10.991
33821SOL    HW2 3361   1.274   5.064  11.111
33822SOL     OW 3362  14.475  14.135  10.480
33822SOL    HW1 3363  14.539  14.079  10.437
33822SOL    HW2 3364  14.432  14.078  10.544
33823SOL     OW 3365  14.754   1.234   0.471
33823SOL    HW1 3366  14.720   1.205   0.387
33823SOL    HW2 3367  14.764   1.153   0.522
33824SOL     OW 3368   7.468  11.515   8.095
33824SOL    HW1 3369   7.468  11.456   8.170
33824SOL    HW2 3370   7.477  11.457   8.019
33825SOL     OW 3371  13.845   3.544  13.197
33825SOL    HW1 3372  13.879   3.472  13.143
33825SOL    HW2 3373  13.777   3.584  13.144
33826SOL     OW 3374   2.221   7.827  10.340
33826SOL    HW1 3375   2.158   7.762  10.309
33826SOL    HW2 3376   2.193   7.909  10.299
33827SOL     OW 3377   4.956   2.537  14.459
33827SOL    HW1 3378   5.028   2.556  14.399
33827SOL    HW2 3379   4.978   2.585  14.539
33828SOL     OW 3380   9.008  11.044   0.761
33828SOL    HW1 3381   9.029  11.034   0.668
33828SOL    HW2 3382   8.979  10.957   0.788
33829SOL     OW 3383  10.185  10.684   6.037
33829SOL    HW1 3384  10.112  10.644   5.990
33829SOL    HW2 3385  10.246  10.611   6.053
33830SOL     OW 3386  11.915  12.842   6.582
33830SOL    HW1 3387  11.921  12.798   6.667
33830SOL    HW2 3388  12.006  12.855   6.555
33831SOL     OW 3389   2.220   4.249   9.773
33831SOL    HW1 3390   2.304   4.219   9.806
33831SOL    HW2 3391   2.174   4.280   9.851
33832SOL     OW 3392  11.299   1.109  12.031
33832SOL    HW1 3393  11.325   1.195  11.997
33832SOL    HW2 3394  11.207   1.119  12.053
33833SOL     OW 3395  11.792   4.323  10.209
33833SOL    HW1 3396  11.702   4.356  10.210
33833SOL    HW2 3397  11.844   4.395  10.174
33834SOL     OW 3398   4.818   6.248  10.461
33834SOL    HW1 3399   4.833   6.342  10.449
33834SOL    HW2 3400   4.767   6.242  10.542
33835SOL     OW 3401   5.012   3.076   7.259
33835SOL    HW1 3402   5.100   3.086   7.295
33835SOL    HW2 3403   4.982   3.166   7.245
33836SOL     OW 3404   9.337  10.629  11.190
33836SOL    HW1 3405   9.358  10.536  11.200
33836SOL    HW2 3406   9.385  10.672  11.261
33837SOL     OW 3407  13.628   3.337   1.370
33837SOL    HW1 3408  13.603   3.425   1.398
33837SOL    HW2 3409  13.714   3.348   1.329
33838SOL     OW 3410   4.703   4.422  10.513
33838SOL    HW1 3411   4.707   4.424  10.417
33838SOL    HW2 3412   4.695   4.329  10.534
33839SOL     OW 3413  11.588   9.681   4.592
33839SOL    HW1 3414  11.669   9.633   4.577
33839SOL    HW2 3415  11.592   9.755   4.532
33840SOL     OW 3416   6.253   4.165   1.299
33840SOL    HW1 3417   6.233   4.159   1.393
33840SOL    HW2 3418   6.171   4.193   1.259
33841SOL     OW 3419  13.766   7.660   9.680
33841SOL    HW1 3420  13.698   7.642   9.746
33841SOL    HW2 3421  13.740   7.743   9.641
33842SOL     OW 3422   8.316   4.804   4.469
33842SOL    HW1 3423   8.332   4.765   4.383
33842SOL    HW2 3424   8.227   4.777   4.492
33843SOL     OW 3425   8.279   9.865   5.431
33843SOL    HW1 3426   8.344   9.926   5.396
33843SOL    HW2 3427   8.280   9.791   5.370
33844SOL     OW 3428  12.802   3.938   2.679
33844SOL    HW1 3429  12.885   3.940   2.632
33844SOL    HW2 3430  12.736   3.941   2.610
33845SOL     OW 3431  11.882  12.598   7.746
33845SOL    HW1 3432  11.806  12.654   7.763
33845SOL    HW2 3433  11.855  12.541   7.674
33846SOL     OW 3434   3.111   5.136  13.918
33846SOL    HW1 3435   3.056   5.214  13.929
33846SOL    HW2 3436   3.057   5.075  13.868
33847SOL     OW 3437   4.685   0.163   4.394
33847SOL    HW1 3438   4.705   0.226   4.463
33847SOL    HW2 3439   4.596   0.184   4.367
33848SOL     OW 3440   1.845   7.397  14.036
33848SOL    HW1 3441   1.825   7.431  13.948
33848SOL    HW2 3442   1.935   7.366  14.030
33849SOL     OW 3443  10.641   0.783   2.468
33849SOL    HW1 3444  10.644   0.838   2.546
33849SOL    HW2 3445  10.621   0.843   2.396
33850SOL     OW 3446   3.126  12.163  10.662
33850SOL    HW1 3447   3.202  12.106  10.673
33850SOL    HW2 3448   3.163  12.248  10.639
33851SOL     OW 3449   4.399   7.547   0.385
33851SOL    HW1 3450   4.365   7.540   0.295
33851SOL    HW2 3451   4.348   7.484   0.435
33852SOL     OW 3452   6.822  10.615   1.177
33852SOL    HW1 3453   6.834  10.707   1.153
33852SOL    HW2 3454   6.911  10.582   1.192
33853SOL     OW 3455  10.162   0.339  13.561
33853SOL    HW1 3456  10.105   0.383  13.498
33853SOL    HW2 3457  10.101   0.296  13.622
33854SOL     OW 3458   0.077   7.632   6.844
33854SOL    HW1 3459   0.014   7.704   6.835
33854SOL    HW2 3460   0.056   7.593   6.929
33855SOL     OW 3461   8.669   2.629  14.525
33855SOL    HW1 3462   8.664   2.568  14.599
33855SOL    HW2 3463   8.640   2.713  14.562
33856SOL     OW 3464   6.011   5.662   6.553
33856SOL    HW1 3465   6.096   5.698   6.530
33856SOL    HW2 3466   5.963   5.736   6.591
33857SOL     OW 3467  11.339  13.971  11.751
33857SOL    HW1 3468  11.264  14.021  11.785
33857SOL    HW2 3469  11.326  13.970  11.657
33858SOL     OW 3470   5.062   0.003   4.721
33858SOL    HW1 3471   5.104  14.824   4.650
33858SOL    HW2 3472   4.991   0.051   4.680
33859SOL     OW 3473   7.870   5.042   1.559
33859SOL    HW1 3474   7.876   5.103   1.485
33859SOL    HW2 3475   7.912   4.962   1.528
33860SOL     OW 3476   9.316   2.702   7.733
33860SOL    HW1 3477   9.362   2.638   7.678
33860SOL    HW2 3478   9.240   2.727   7.681
33861SOL     OW 3479   0.498  12.748   6.564
33861SOL    HW1 3480   0.517  12.824   6.509
33861SOL    HW2 3481   0.556  12.757   6.640
33862SOL     OW 3482  14.523   2.204   0.393
33862SOL    HW1 3483  14.483   2.263   0.329
33862SOL    HW2 3484  14.549   2.128   0.342
33863SOL     OW 3485   1.242   5.774  10.984
33863SOL    HW1 3486   1.239   5.809  10.895
33863SOL    HW2 3487   1.308   5.826  11.029
33864SOL     OW 3488  11.320  14.406   3.034
33864SOL    HW1 3489  11.412  14.429   3.048
33864SOL    HW2 3490  11.271  14.476   3.078
33865SOL     OW 3491   5.407   9.877   1.871
33865SOL    HW1 3492   5.376   9.792   1.841
33865SOL    HW2 3493   5.473   9.903   1.807
33866SOL     OW 3494   3.733   6.942  11.390
33866SOL    HW1 3495   3.806   6.996  11.361
33866SOL    HW2 3496   3.770   6.886  11.458
33867SOL     OW 3497   0.974  12.434   4.640
33867SOL    HW1 3498   1.021  12.486   4.575
33867SOL    HW2 3499   0.956  12.351   4.596
33868SOL     OW 3500   5.620  12.944   0.578
33868SOL    HW1 3501   5.670  13.006   0.631
33868SOL    HW2 3502   5.567  12.895   0.642
33869SOL     OW 3503   3.109   0.879  12.188
33869SOL    HW1 3504   3.143   0.925  12.110
33869SOL    HW2 3505   3.018   0.859  12.166
33870SOL     OW 3506   6.088   9.447   9.328
33870SOL    HW1 3507   5.993   9.443   9.336
33870SOL    HW2 3508   6.120   9.386   9.394
33871SOL     OW 3509   8.049   1.135  14.074
33871SOL    HW1 3510   8.011   1.102  13.993
33871SOL    HW2 3511   8.047   1.060  14.134
33872SOL     OW 3512   9.389  10.669   2.621
33872SOL    HW1 3513   9.304  10.645   2.584
33872SOL    HW2 3514   9.368  10.723   2.697
33873SOL     OW 3515   8.825   4.684   4.795
33873SOL    HW1 3516   8.907   4.688   4.745
33873SOL    HW2 3517   8.853   4.669   4.886
33874SOL     OW 3518   7.629   1.214  10.191
33874SOL    HW1 3519   7.658   1.124  10.209
33874SOL    HW2 3520   7.646   1.225  10.097
33875SOL     OW 3521   7.325   4.110   7.329
33875SOL    HW1 3522   7.314   4.084   7.237
33875SOL    HW2 3523   7.404   4.163   7.330
33876SOL     OW 3524   0.769  13.594   0.254
33876SOL    HW1 3525   0.768  13.530   0.325
33876SOL    HW2 3526   0.707  13.662   0.283
33877SOL     OW 3527   6.285   9.912   9.448
33877SOL    HW1 3528   6.277   9.921   9.353
33877SOL    HW2 3529   6.208   9.861   9.474
33878SOL     OW 3530   6.644   9.689  10.004
33878SOL    HW1 3531   6.677   9.655  10.088
33878SOL    HW2 3532   6.594   9.766  10.028
33879SOL     OW 3533  14.439   6.044  10.757
33879SOL    HW1 3534  14.372   6.012  10.696
33879SOL    HW2 3535  14.399   6.036  10.843
33880SOL     OW 3536   3.773  14.218  12.251
33880SOL    HW1 3537   3.754  14.143  12.307
33880SOL    HW2 3538   3.687  14.255  12.229
33881SOL     OW 3539   5.429   9.091   5.120
33881SOL    HW1 3540   5.417   9.092   5.025
33881SOL    HW2 3541   5.472   9.007   5.138
33882SOL     OW 3542  11.561   8.630   3.828
33882SOL    HW1 3543  11.571   8.658   3.919
33882SOL    HW2 3544  11.553   8.535   3.833
33883SOL     OW 3545   6.661   2.531  10.582
33883SOL    HW1 3546   6.643   2.547  10.489
33883SOL    HW2 3547   6.611   2.452  10.603
33884SOL     OW 3548   8.539  13.743   5.135
33884SOL    HW1 3549   8.630  13.719   5.115
33884SOL    HW2 3550   8.498  13.753   5.049
33885SOL     OW 3551  13.099   5.344   7.760
33885SOL    HW1 3552  13.156   5.407   7.804
33885SOL    HW2 3553  13.027   5.330   7.822
33886SOL     OW 3554  10.218  10.020   6.232
33886SOL    HW1 3555  10.175  10.077   6.296
33886SOL    HW2 3556  10.145   9.977   6.186
33887SOL     OW 3557   2.283   2.448  11.423
33887SOL    HW1 3558   2.232   2.367  11.420
33887SOL    HW2 3559   2.235   2.504  11.485
33888SOL     OW 3560  11.308  13.108   6.046
33888SOL    HW1 3561  11.351  13.141   5.968
33888SOL    HW2 3562  11.266  13.027   6.019
33889SOL     OW 3563   3.760   8.982  14.313
33889SOL    HW1 3564   3.838   8.993  14.259
33889SOL    HW2 3565   3.792   8.986  14.403
33890SOL     OW 3566   5.664   5.182   3.866
33890SOL    HW1 3567   5.643   5.095   3.834
33890SOL    HW2 3568   5.760   5.182   3.874
33891SOL     OW 3569   1.130   8.980   8.521
33891SOL    HW1 3570   1.148   9.001   8.429
33891SOL    HW2 3571   1.065   9.046   8.547
33892SOL     OW 3572  12.978   4.122   0.707
33892SOL    HW1 3573  12.978   4.131   0.612
33892SOL    HW2 3574  13.064   4.156   0.734
33893SOL     OW 3575   7.975   3.143  10.771
33893SOL    HW1 3576   7.997   3.152  10.864
33893SOL    HW2 3577   7.890   3.098  10.771
33894SOL     OW 3578  12.056   9.231   4.454
33894SOL    HW1 3579  12.001   9.164   4.495
33894SOL    HW2 3580  12.088   9.283   4.527
33895SOL     OW 3581  11.056  11.696  10.574
33895SOL    HW1 3582  11.059  11.718  10.481
33895SOL    HW2 3583  11.055  11.601  10.577
33896SOL     OW 3584  10.917   2.898   4.965
33896SOL    HW1 3585  10.825   2.881   4.944
33896SOL    HW2 3586  10.913   2.961   5.037
33897SOL     OW 3587   3.221   0.667   1.851
33897SOL    HW1 3588   3.216   0.722   1.929
33897SOL    HW2 3589   3.283   0.713   1.793
33898SOL     OW 3590  11.519   6.520   6.823
33898SOL    HW1 3591  11.447   6.577   6.797
33898SOL    HW2 3592  11.567   6.570   6.889
33899SOL     OW 3593  11.494   7.336   4.936
33899SOL    HW1 3594  11.434   7.272   4.897
33899SOL    HW2 3595  11.581   7.300   4.920
33900SOL     OW 3596  13.624   2.906   8.946
33900SOL    HW1 3597  13.558   2.854   8.901
33900SOL    HW2 3598  13.695   2.916   8.882
33901SOL     OW 3599   3.226  13.344   2.224
33901SOL    HW1 3600   3.312  13.302   2.225
33901SOL    HW2 3601   3.184  13.311   2.145
33902SOL     OW 3602  13.847  12.948  10.671
33902SOL    HW1 3603  13.758  12.919  10.692
33902SOL    HW2 3604  13.896  12.938  10.752
33903SOL     OW 3605  11.736  10.924   9.856
33903SOL    HW1 3606  11.770  10.923   9.946
33903SOL    HW2 3607  11.764  10.840   9.819
33904SOL     OW 3608  10.027   1.603   5.415
33904SOL    HW1 3609   9.968   1.549   5.362
33904SOL    HW2 3610  10.108   1.552   5.418
33905SOL     OW 3611  13.933  10.396   9.919
33905SOL    HW1 3612  13.880  10.407   9.999
33905SOL    HW2 3613  14.023  10.388   9.951
33906SOL     OW 3614   5.524   5.438   7.181
33906SOL    HW1 3615   5.457   5.486   7.132
33906SOL    HW2 3616   5.549   5.496   7.252
33907SOL     OW 3617   8.800   6.151  14.649
33907SOL    HW1 3618   8.835   6.151  14.560
33907SOL    HW2 3619   8.841   6.076  14.692
33908SOL     OW 3620  14.083   9.044   4.563
33908SOL    HW1 3621  14.075   9.135   4.535
33908SOL    HW2 3622  14.040   9.041   4.648
33909SOL     OW 3623   3.303   5.543   5.963
33909SOL    HW1 3624   3.230   5.593   6.001
33909SOL    HW2 3625   3.299   5.564   5.870
33910SOL     OW 3626  12.280   9.799   4.595
33910SOL    HW1 3627  12.265   9.820   4.687
33910SOL    HW2 3628  12.349   9.860   4.568
33911SOL     OW 3629   8.171   4.388   6.277
33911SOL    HW1 3630   8.258   4.390   6.238
33911SOL    HW2 3631   8.136   4.301   6.254
33912SOL     OW 3632  13.622  12.638  12.813
33912SOL    HW1 3633  13.631  12.599  12.726
33912SOL    HW2 3634  13.569  12.575  12.862
33913SOL     OW 3635   3.369  12.882   1.707
33913SOL    HW1 3636   3.284  12.926   1.711
33913SOL    HW2 3637   3.348  12.789   1.720
33914SOL     OW 3638   8.004   2.453   2.623
33914SOL    HW1 3639   7.921   2.471   2.578
33914SOL    HW2 3640   8.032   2.539   2.654
33915SOL     OW 3641   6.156  10.485   2.787
33915SOL    HW1 3642   6.160  10.497   2.693
33915SOL    HW2 3643   6.083  10.424   2.801
33916SOL     OW 3644   0.114   7.120  14.310
33916SOL    HW1 3645   0.027   7.083  14.295
33916SOL    HW2 3646   0.120   7.128  14.405
33917SOL     OW 3647  12.174   6.089  10.032
33917SOL    HW1 3648  12.239   6.045  10.086
33917SOL    HW2 3649  12.208   6.080   9.943
33918SOL     OW 3650   0.485   0.919  11.710
33918SOL    HW1 3651   0.503   0.942  11.619
33918SOL    HW2 3652   0.542   0.977  11.761
33919SOL     OW 3653   5.934   7.776   2.386
33919SOL    HW1 3654   5.940   7.850   2.447
33919SOL    HW2 3655   5.870   7.717   2.426
33920SOL     OW 3656   1.662   9.543   3.816
33920SOL    HW1 3657   1.754   9.518   3.810
33920SOL    HW2 3658   1.619   9.468   3.856
33921SOL     OW 3659   7.085   6.548   9.006
33921SOL    HW1 3660   7.121   6.624   8.960
33921SOL    HW2 3661   7.143   6.536   9.081
33922SOL     OW 3662   0.924   1.296   7.070
33922SOL    HW1 3663   1.013   1.318   7.097
33922SOL    HW2 3664   0.869   1.361   7.113
33923SOL     OW 3665   3.909  10.697  12.169
33923SOL    HW1 3666   3.839  10.651  12.122
33923SOL    HW2 3667   3.875  10.707  12.258
33924SOL     OW 3668  11.078   5.497   0.243
33924SOL    HW1 3669  11.116   5.412   0.225
33924SOL    HW2 3670  11.060   5.534   0.157
33925SOL     OW 3671  11.444   7.405   1.717
33925SOL    HW1 3672  11.453   7.321   1.762
33925SOL    HW2 3673  11.474   7.470   1.781
33926SOL     OW 3674  10.291  14.404   0.169
33926SOL    HW1 3675  10.246  14.360   0.241
33926SOL    HW2 3676  10.382  14.413   0.199
33927SOL     OW 3677   9.955   4.685   7.880
33927SOL    HW1 3678   9.896   4.760   7.890
33927SOL    HW2 3679  10.043   4.723   7.892
33928SOL     OW 3680   9.778   8.205   5.633
33928SOL    HW1 3681   9.788   8.298   5.611
33928SOL    HW2 3682   9.808   8.199   5.724
33929SOL     OW 3683  12.475   3.869   8.045
33929SOL    HW1 3684  12.436   3.830   8.123
33929SOL    HW2 3685  12.401   3.911   8.000
33930SOL     OW 3686   8.080  14.239  12.804
33930SOL    HW1 3687   7.990  14.243  12.837
33930SOL    HW2 3688   8.084  14.308  12.738
33931SOL     OW 3689   3.642   0.228  11.056
33931SOL    HW1 3690   3.672   0.161  10.996
33931SOL    HW2 3691   3.577   0.278  11.006
33932SOL     OW 3692   1.357  12.953  11.383
33932SOL    HW1 3693   1.357  12.939  11.288
33932SOL    HW2 3694   1.444  12.925  11.412
33933SOL     OW 3695   4.281  12.711   8.081
33933SOL    HW1 3696   4.298  12.619   8.061
33933SOL    HW2 3697   4.361  12.741   8.123
33934SOL     OW 3698  10.529   9.227  13.892
33934SOL    HW1 3699  10.450   9.271  13.860
33934SOL    HW2 3700  10.552   9.166  13.822
33935SOL     OW 3701  13.882  14.541   3.787
33935SOL    HW1 3702  13.860  14.528   3.879
33935SOL    HW2 3703  13.840  14.623   3.763
33936SOL     OW 3704   5.899   3.072   7.812
33936SOL    HW1 3705   5.854   3.020   7.745
33936SOL    HW2 3706   5.878   3.029   7.894
33937SOL     OW 3707   5.457   3.032   0.522
33937SOL    HW1 3708   5.479   3.029   0.615
33937SOL    HW2 3709   5.401   3.109   0.512
33938SOL     OW 3710   6.715   3.817   6.670
33938SOL    HW1 3711   6.794   3.817   6.616
33938SOL    HW2 3712   6.651   3.767   6.620
33939SOL     OW 3713   5.218   5.634  12.344
33939SOL    HW1 3714   5.313   5.622  12.351
33939SOL    HW2 3715   5.191   5.656  12.433
33940SOL     OW 3716   0.342  10.943   6.819
33940SOL    HW1 3717   0.297  11.015   6.774
33940SOL    HW2 3718   0.358  10.976   6.907
33941SOL     OW 3719   5.690   1.268   4.525
33941SOL    HW1 3720   5.728   1.343   4.571
33941SOL    HW2 3721   5.623   1.235   4.584
33942SOL     OW 3722   3.802   1.848  11.800
33942SOL    HW1 3723   3.708   1.849  11.822
33942SOL    HW2 3724   3.807   1.791  11.724
33943SOL     OW 3725   3.424   0.827  11.509
33943SOL    HW1 3726   3.425   0.857  11.599
33943SOL    HW2 3727   3.509   0.786  11.496
33944SOL     OW 3728  11.596  13.785   1.832
33944SOL    HW1 3729  11.543  13.731   1.773
33944SOL    HW2 3730  11.634  13.723   1.894
33945SOL     OW 3731  14.620   6.863   9.217
33945SOL    HW1 3732  14.608   6.796   9.150
33945SOL    HW2 3733  14.702   6.906   9.194
33946SOL     OW 3734  10.446  13.984   7.435
33946SOL    HW1 3735  10.504  14.056   7.459
33946SOL    HW2 3736  10.482  13.949   7.354
33947SOL     OW 3737  14.755  11.235  11.234
33947SOL    HW1 3738  14.685  11.238  11.169
33947SOL    HW2 3739  14.802  11.154  11.215
33948SOL     OW 3740   7.749  10.033   2.606
33948SOL    HW1 3741   7.740  10.128   2.597
33948SOL    HW2 3742   7.666  10.004   2.645
33949SOL     OW 3743   5.198  12.688  13.964
33949SOL    HW1 3744   5.148  12.650  14.036
33949SOL    HW2 3745   5.184  12.782  13.972
33950SOL     OW 3746  11.602   9.857   9.926
33950SOL    HW1 3747  11.623   9.764   9.917
33950SOL    HW2 3748  11.686   9.898   9.950
33951SOL     OW 3749   3.403  13.693  12.135
33951SOL    HW1 3750   3.496  13.687  12.155
33951SOL    HW2 3751   3.379  13.784  12.156
33952SOL     OW 3752  14.249   7.019  12.348
33952SOL    HW1 3753  14.230   7.087  12.413
33952SOL    HW2 3754  14.308   7.061  12.285
33953SOL     OW 3755  13.009   4.008  10.277
33953SOL    HW1 3756  13.041   3.923  10.306
33953SOL    HW2 3757  13.088   4.057  10.253
33954SOL     OW 3758   5.235   6.260   6.734
33954SOL    HW1 3759   5.184   6.223   6.662
33954SOL    HW2 3760   5.286   6.330   6.693
33955SOL     OW 3761  10.309   6.658   9.807
33955SOL    HW1 3762  10.297   6.657   9.902
33955SOL    HW2 3763  10.251   6.728   9.776
33956SOL     OW 3764   2.658  12.354  14.146
33956SOL    HW1 3765   2.564  12.360  14.162
33956SOL    HW2 3766   2.684  12.269  14.183
33957SOL     OW 3767   9.056   6.084  10.513
33957SOL    HW1 3768   9.032   6.095  10.421
33957SOL    HW2 3769   9.098   6.167  10.537
33958SOL     OW 3770  10.513  12.615  14.124
33958SOL    HW1 3771  10.557  12.537  14.158
33958SOL    HW2 3772  10.482  12.661  14.202
33959SOL     OW 3773   2.362   5.111   8.476
33959SOL    HW1 3774   2.384   5.153   8.560
33959SOL    HW2 3775   2.446   5.082   8.441
33960SOL     OW 3776   4.586   6.048   0.744
33960SOL    HW1 3777   4.585   6.025   0.837
33960SOL    HW2 3778   4.607   5.967   0.699
33961SOL     OW 3779  13.260   0.790   2.015
33961SOL    HW1 3780  13.279   0.713   1.961
33961SOL    HW2 3781  13.192   0.762   2.075
33962SOL     OW 3782  13.050  14.259   0.706
33962SOL    HW1 3783  12.961  14.288   0.728
33962SOL    HW2 3784  13.038  14.208   0.625
33963SOL     OW 3785  10.148  10.339  12.400
33963SOL    HW1 3786  10.116  10.287  12.327
33963SOL    HW2 3787  10.134  10.430  12.373
33964SOL     OW 3788   5.764  14.070   6.003
33964SOL    HW1 3789   5.705  14.007   5.961
33964SOL    HW2 3790   5.705  14.138   6.038
33965SOL     OW 3791   9.376  10.543   6.155
33965SOL    HW1 3792   9.302  10.596   6.186
33965SOL    HW2 3793   9.440  10.607   6.124
33966SOL     OW 3794   2.813  11.867   1.783
33966SOL    HW1 3795   2.742  11.861   1.719
33966SOL    HW2 3796   2.778  11.826   1.862
33967SOL     OW 3797   6.394   1.406   4.399
33967SOL    HW1 3798   6.435   1.332   4.445
33967SOL    HW2 3799   6.311   1.370   4.366
33968SOL     OW 3800  13.482  13.610   5.829
33968SOL    HW1 3801  13.431  13.587   5.907
33968SOL    HW2 3802  13.544  13.538   5.819
33969SOL     OW 3803   6.746   5.173   6.044
33969SOL    HW1 3804   6.734   5.267   6.058
33969SOL    HW2 3805   6.698   5.154   5.964
33970SOL     OW 3806   9.321  10.834   4.941
33970SOL    HW1 3807   9.322  10.742   4.915
33970SOL    HW2 3808   9.290  10.833   5.031
33971SOL     OW 3809   9.075  11.380  12.230
33971SOL    HW1 3810   9.063  11.383  12.135
33971SOL    HW2 3811   9.154  11.432  12.246
33972SOL     OW 3812   9.066   1.903   7.878
33972SOL    HW1 3813   9.066   1.999   7.878
33972SOL    HW2 3814   9.152   1.879   7.844
33973SOL     OW 3815  13.608   0.150   1.440
33973SOL    HW1 3816  13.605   0.117   1.351
33973SOL    HW2 3817  13.531   0.113   1.483
33974SOL     OW 3818   5.456   6.373   1.770
33974SOL    HW1 3819   5.436   6.370   1.863
33974SOL    HW2 3820   5.404   6.446   1.736
33975SOL     OW 3821   6.598  12.818   3.305
33975SOL    HW1 3822   6.506  12.837   3.288
33975SOL    HW2 3823   6.599  12.725   3.329
33976SOL     OW 3824   5.019  13.659   3.925
33976SOL    HW1 3825   4.998  13.575   3.966
33976SOL    HW2 3826   4.970  13.723   3.976
33977SOL     OW 3827   8.736  12.417  11.747
33977SOL    HW1 3828   8.731  12.431  11.652
33977SOL    HW2 3829   8.799  12.345  11.757
33978SOL     OW 3830   6.134   6.816   6.937
33978SOL    HW1 3831   6.100   6.802   7.026
33978SOL    HW2 3832   6.081   6.888   6.902
33979SOL     OW 3833  10.362   3.648   6.116
33979SOL    HW1 3834  10.391   3.650   6.025
33979SOL    HW2 3835  10.422   3.706   6.162
33980SOL     OW 3836  10.468  11.407   5.933
33980SOL    HW1 3837  10.381  11.374   5.910
33980SOL    HW2 3838  10.490  11.467   5.863
33981SOL     OW 3839   9.814  14.146   7.825
33981SOL    HW1 3840   9.908  14.160   7.825
33981SOL    HW2 3841   9.783  14.188   7.905
33982SOL     OW 3842  13.869   3.716   1.445
33982SOL    HW1 3843  13.923   3.738   1.369
33982SOL    HW2 3844  13.915   3.644   1.487
33983SOL     OW 3845   0.844   2.342   8.422
33983SOL    HW1 3846   0.822   2.251   8.407
33983SOL    HW2 3847   0.935   2.350   8.394
33984SOL     OW 3848  10.979   9.413  10.777
33984SOL    HW1 3849  10.949   9.469  10.706
33984SOL    HW2 3850  11.065   9.383  10.749
33985SOL     OW 3851  14.667  12.710   4.749
33985SOL    HW1 3852  14.664  12.721   4.844
33985SOL    HW2 3853  14.738  12.647   4.735
33986SOL     OW 3854   5.582   0.574   8.281
33986SOL    HW1 3855   5.546   0.597   8.367
33986SOL    HW2 3856   5.617   0.485   8.293
33987SOL     OW 3857   7.538  13.697   0.311
33987SOL    HW1 3858   7.539  13.697   0.406
33987SOL    HW2 3859   7.456  13.653   0.288
33988SOL     OW 3860   9.710   9.642  10.445
33988SOL    HW1 3861   9.782   9.666  10.503
33988SOL    HW2 3862   9.733   9.681  10.360
33989SOL     OW 3863   0.164   4.831   1.023
33989SOL    HW1 3864   0.085   4.830   1.078
33989SOL    HW2 3865   0.234   4.859   1.082
33990SOL     OW 3866   2.339  13.526   4.797
33990SOL    HW1 3867   2.417  13.477   4.825
33990SOL    HW2 3868   2.370  13.617   4.789
33991SOL     OW 3869   8.934   7.068   2.036
33991SOL    HW1 3870   8.866   7.088   2.100
33991SOL    HW2 3871   8.897   7.099   1.952
33992SOL     OW 3872   2.500   2.872   5.664
33992SOL    HW1 3873   2.539   2.936   5.723
33992SOL    HW2 3874   2.539   2.789   5.690
33993SOL     OW 3875   3.733   3.180   4.259
33993SOL    HW1 3876   3.691   3.212   4.179
33993SOL    HW2 3877   3.670   3.118   4.296
33994SOL     OW 3878  13.178   5.633  13.449
33994SOL    HW1 3879  13.110   5.667  13.507
33994SOL    HW2 3880  13.227   5.711  13.422
33995SOL     OW 3881   1.973   3.248   7.702
33995SOL    HW1 3882   2.067   3.252   7.722
33995SOL    HW2 3883   1.930   3.246   7.787
33996SOL     OW 3884   1.505   7.077   3.515
33996SOL    HW1 3885   1.600   7.069   3.500
33996SOL    HW2 3886   1.486   7.007   3.578
33997SOL     OW 3887   3.798   3.139  14.301
33997SOL    HW1 3888   3.784   3.098  14.386
33997SOL    HW2 3889   3.781   3.070  14.237
33998SOL     OW 3890   5.843   0.712  11.073
33998SOL    HW1 3891   5.780   0.651  11.110
33998SOL    HW2 3892   5.888   0.662  11.004
33999SOL     OW 3893  11.463  14.787   3.063
33999SOL    HW1 3894  11.396  14.842   3.104
33999SOL    HW2 3895  11.438  14.783   2.971
34000SOL     OW 3896   6.988   2.256  11.129
34000SOL    HW1 3897   7.053   2.251  11.059
34000SOL    HW2 3898   7.011   2.182  11.187
34001SOL     OW 3899   8.434   1.866  13.008
34001SOL    HW1 3900   8.444   1.772  13.024
34001SOL    HW2 3901   8.448   1.876  12.914
34002SOL     OW 3902   5.601  14.503   8.139
34002SOL    HW1 3903   5.692  14.474   8.136
34002SOL    HW2 3904   5.576  14.495   8.231
34003SOL     OW 3905  10.361   6.895   6.228
34003SOL    HW1 3906  10.405   6.814   6.252
34003SOL    HW2 3907  10.301   6.912   6.300
34004SOL     OW 3908  11.706  13.310   9.585
34004SOL    HW1 3909  11.785  13.257   9.571
34004SOL    HW2 3910  11.711  13.334   9.678
34005SOL     OW 3911   6.365  12.204   2.591
34005SOL    HW1 3912   6.425  12.236   2.659
34005SOL    HW2 3913   6.422  12.187   2.515
34006SOL     OW 3914  11.789   6.554  14.625
34006SOL    HW1 3915  11.794   6.464  14.591
34006SOL    HW2 3916  11.714   6.592  14.581
34007SOL     OW 3917   7.875  14.718   3.784
34007SOL    HW1 3918   7.864  14.796   3.730
34007SOL    HW2 3919   7.787  14.681   3.792
34008SOL     OW 3920  10.928  13.126  12.301
34008SOL    HW1 3921  11.012  13.087  12.326
34008SOL    HW2 3922  10.879  13.132  12.383
34009SOL     OW 3923  12.420   4.447   0.033
34009SOL    HW1 3924  12.436   4.517   0.097
34009SOL    HW2 3925  12.495   4.389   0.042
34010SOL     OW 3926   2.390   9.204   1.049
34010SOL    HW1 3927   2.353   9.146   0.983
34010SOL    HW2 3928   2.406   9.286   1.002
34011SOL     OW 3929  10.116  11.600   9.697
34011SOL    HW1 3930  10.080  11.639   9.618
34011SOL    HW2 3931  10.078  11.512   9.701
34012SOL     OW 3932   1.027  13.796   2.236
34012SOL    HW1 3933   1.006  13.870   2.179
34012SOL    HW2 3934   0.942  13.754   2.253
34013SOL     OW 3935  11.345   0.448   2.032
34013SOL    HW1 3936  11.414   0.477   2.091
34013SOL    HW2 3937  11.366   0.488   1.948
34014SOL     OW 3938   3.265   5.155  12.711
34014SOL    HW1 3939   3.170   5.150  12.724
34014SOL    HW2 3940   3.290   5.238  12.752
34015SOL     OW 3941   5.392   7.187   9.928
34015SOL    HW1 3942   5.323   7.138   9.973
34015SOL    HW2 3943   5.433   7.240   9.997
34016SOL     OW 3944   1.266   1.928   5.156
34016SOL    HW1 3945   1.296   1.899   5.242
34016SOL    HW2 3946   1.208   2.002   5.175
34017SOL     OW 3947   0.719  14.630  10.046
34017SOL    HW1 3948   0.748  14.621  10.136
34017SOL    HW2 3949   0.800  14.630   9.994
34018SOL     OW 3950   6.661   8.218   8.185
34018SOL    HW1 3951   6.569   8.221   8.210
34018SOL    HW2 3952   6.684   8.310   8.167
34019SOL     OW 3953   8.178  13.153  10.948
34019SOL    HW1 3954   8.138  13.185  10.867
34019SOL    HW2 3955   8.183  13.058  10.936
34020SOL     OW 3956   6.353   2.013  13.850
34020SOL    HW1 3957   6.287   1.958  13.892
34020SOL    HW2 3958   6.410   1.952  13.803
34021SOL     OW 3959   3.122   0.100  13.651
34021SOL    HW1 3960   3.108   0.011  13.685
34021SOL    HW2 3961   3.086   0.157  13.719
34022SOL     OW 3962  12.790   1.903   8.732
34022SOL    HW1 3963  12.862   1.898   8.795
34022SOL    HW2 3964  12.726   1.839   8.763
34023SOL     OW 3965   5.007  14.207   2.027
34023SOL    HW1 3966   5.053  14.134   1.986
34023SOL    HW2 3967   5.073  14.252   2.080
34024SOL     OW 3968   3.151   0.770   2.109
34024SOL    HW1 3969   3.067   0.725   2.099
34024SOL    HW2 3970   3.154   0.796   2.201
34025SOL     OW 3971   0.137   8.940  11.903
34025SOL    HW1 3972   0.102   8.934  11.992
34025SOL    HW2 3973   0.114   9.029  11.875
34026SOL     OW 3974  10.129   4.570   3.963
34026SOL    HW1 3975  10.160   4.632   4.029
34026SOL    HW2 3976  10.107   4.492   4.013
34027SOL     OW 3977   3.409   7.462   9.780
34027SOL    HW1 3978   3.438   7.392   9.722
34027SOL    HW2 3979   3.370   7.527   9.721
34028SOL     OW 3980   4.689   0.298   7.898
34028SOL    HW1 3981   4.725   0.355   7.830
34028SOL    HW2 3982   4.681   0.354   7.974
34029SOL     OW 3983   5.194   6.340   6.998
34029SOL    HW1 3984   5.192   6.327   6.903
34029SOL    HW2 3985   5.277   6.385   7.015
34030SOL     OW 3986   4.008  10.885  14.638
34030SOL    HW1 3987   3.992  10.791  14.646
34030SOL    HW2 3988   3.925  10.925  14.666
34031SOL     OW 3989   0.797   5.441   0.277
34031SOL    HW1 3990   0.820   5.509   0.341
34031SOL    HW2 3991   0.769   5.489   0.200
34032SOL     OW 3992  12.258  13.177  11.762
34032SOL    HW1 3993  12.320  13.176  11.834
34032SOL    HW2 3994  12.183  13.225  11.795
34033SOL     OW 3995   4.603   8.240   3.254
34033SOL    HW1 3996   4.655   8.263   3.331
34033SOL    HW2 3997   4.628   8.149   3.235
34034SOL     OW 3998  12.725   1.504   9.333
34034SOL    HW1 3999  12.760   1.437   9.391
34034SOL    HW2 4000  12.741   1.470   9.245
34035SOL     OW 4001   1.146   6.963   7.880
34035SOL    HW1 4002   1.158   6.872   7.852
34035SOL    HW2 4003   1.052   6.974   7.888
34036SOL     OW 4004   3.452   1.574   1.584
34036SOL    HW1 4005   3.484   1.509   1.646
34036SOL    HW2 4006   3.386   1.624   1.634
34037SOL     OW 4007   1.228   6.942   6.624
34037SOL    HW1 4008   1.273   6.891   6.692
34037SOL    HW2 4009   1.194   7.019   6.671
34038SOL     OW 4010   5.651   2.459   6.942
34038SOL    HW1 4011   5.657   2.393   6.873
34038SOL    HW2 4012   5.682   2.413   7.021
34039SOL     OW 4013   6.506   4.547   2.095
34039SOL    HW1 4014   6.587   4.558   2.146
34039SOL    HW2 4015   6.454   4.624   2.117
34040SOL     OW 4016   4.870  14.275   4.128
34040SOL    HW1 4017   4.904  14.294   4.041
34040SOL    HW2 4018   4.775  14.269   4.116
34041SOL     OW 4019  14.339   0.332   0.290
34041SOL    HW1 4020  14.348   0.386   0.212
34041SOL    HW2 4021  14.418   0.351   0.341
34042SOL     OW 4022  13.496   2.931   7.210
34042SOL    HW1 4023  13.523   2.999   7.273
34042SOL    HW2 4024  13.429   2.973   7.156
34043SOL     OW 4025   9.549  14.492   2.829
34043SOL    HW1 4026   9.603  14.415   2.848
34043SOL    HW2 4027   9.557  14.547   2.908
34044SOL     OW 4028   0.990  13.354   8.858
34044SOL    HW1 4029   0.934  13.399   8.796
34044SOL    HW2 4030   0.981  13.404   8.939
34045SOL     OW 4031   0.157   3.227   3.592
34045SOL    HW1 4032   0.172   3.165   3.664
34045SOL    HW2 4033   0.163   3.173   3.513
34046SOL     OW 4034   3.682   4.211  11.263
34046SOL    HW1 4035   3.709   4.207  11.355
34046SOL    HW2 4036   3.590   4.236  11.267
34047SOL     OW 4037  11.053   3.800  13.241
34047SOL    HW1 4038  11.075   3.723  13.188
34047SOL    HW2 4039  10.964   3.781  13.273
34048SOL     OW 4040  12.268  10.435  12.284
34048SOL    HW1 4041  12.325  10.463  12.212
34048SOL    HW2 4042  12.245  10.344  12.262
34049SOL     OW 4043   2.600  10.436   0.173
34049SOL    HW1 4044   2.521  10.489   0.171
34049SOL    HW2 4045   2.618  10.423   0.266
34050SOL     OW 4046  10.325   3.522  11.517
34050SOL    HW1 4047  10.304   3.595  11.458
34050SOL    HW2 4048  10.408   3.547  11.558
34051SOL     OW 4049   9.600   8.956   8.862
34051SOL    HW1 4050   9.641   8.975   8.778
34051SOL    HW2 4051   9.644   9.015   8.924
34052SOL     OW 4052   5.680   3.759   2.253
34052SOL    HW1 4053   5.654   3.668   2.242
34052SOL    HW2 4054   5.769   3.755   2.289
34053SOL     OW 4055   9.734   5.985  14.588
34053SOL    HW1 4056   9.669   5.934  14.637
34053SOL    HW2 4057   9.686   6.059  14.553
34054SOL     OW 4058   3.499  11.811   1.052
34054SOL    HW1 4059   3.572  11.862   1.089
34054SOL    HW2 4060   3.493  11.841   0.961
34055SOL     OW 4061  13.705  10.124   7.359
34055SOL    HW1 4062  13.675  10.080   7.439
34055SOL    HW2 4063  13.798  10.138   7.373
34056SOL     OW 4064   2.929   6.326   7.010
34056SOL    HW1 4065   2.984   6.342   6.933
34056SOL    HW2 4066   2.918   6.413   7.049
34057SOL     OW 4067   5.084   2.865  14.028
34057SOL    HW1 4068   5.094   2.905  13.941
34057SOL    HW2 4069   5.006   2.811  14.021
34058SOL     OW 4070   7.564   0.414   6.030
34058SOL    HW1 4071   7.608   0.384   5.950
34058SOL    HW2 4072   7.491   0.353   6.041
34059SOL     OW 4073   9.727   1.679   6.813
34059SOL    HW1 4074   9.654   1.740   6.804
34059SOL    HW2 4075   9.731   1.633   6.730
34060SOL     OW 4076   6.421   7.989   1.742
34060SOL    HW1 4077   6.442   7.911   1.792
34060SOL    HW2 4078   6.365   8.040   1.800
34061SOL     OW 4079  13.092   8.309  12.345
34061SOL    HW1 4080  13.010   8.317  12.296
34061SOL    HW2 4081  13.117   8.399  12.366
34062SOL     OW 4082  10.682   5.085  12.760
34062SOL    HW1 4083  10.758   5.060  12.811
34062SOL    HW2 4084  10.717   5.113  12.676
34063SOL     OW 4085   1.202   1.965   0.345
34063SOL    HW1 4086   1.277   1.906   0.339
34063SOL    HW2 4087   1.177   1.980   0.253
34064SOL     OW 4088  12.899  13.873   9.446
34064SOL    HW1 4089  12.926  13.811   9.378
34064SOL    HW2 4090  12.952  13.849   9.522
34065SOL     OW 4091  10.226   1.685   7.276
34065SOL    HW1 4092  10.214   1.638   7.358
34065SOL    HW2 4093  10.242   1.776   7.303
34066SOL     OW 4094  12.954   4.961   4.265
34066SOL    HW1 4095  12.965   5.026   4.334
34066SOL    HW2 4096  13.033   4.968   4.212
34067SOL     OW 4097   1.777  11.585   6.901
34067SOL    HW1 4098   1.737  11.568   6.816
34067SOL    HW2 4099   1.782  11.499   6.943
34068SOL     OW 4100   8.545   6.009   4.828
34068SOL    HW1 4101   8.498   5.930   4.856
34068SOL    HW2 4102   8.638   5.987   4.840
34069SOL     OW 4103  12.191  13.450   0.839
34069SOL    HW1 4104  12.242  13.464   0.759
34069SOL    HW2 4105  12.258  13.440   0.907
34070SOL     OW 4106   6.453   1.502  14.486
34070SOL    HW1 4107   6.464   1.472  14.577
34070SOL    HW2 4108   6.503   1.440  14.434
34071SOL     OW 4109  14.541   5.225   7.702
34071SOL    HW1 4110  14.488   5.146   7.710
34071SOL    HW2 4111  14.568   5.226   7.610
34072SOL     OW 4112   1.976   0.192  12.741
34072SOL    HW1 4113   1.882   0.183  12.727
34072SOL    HW2 4114   1.986   0.199  12.836
34073SOL     OW 4115   8.194  13.644   6.973
34073SOL    HW1 4116   8.232  13.620   6.888
34073SOL    HW2 4117   8.140  13.569   6.998
34074SOL     OW 4118   1.334  10.628  13.326
34074SOL    HW1 4119   1.239  10.635  13.330
34074SOL    HW2 4120   1.351  10.585  13.242
34075SOL     OW 4121   0.709   9.907  11.040
34075SOL    HW1 4122   0.722   9.903  11.135
34075SOL    HW2 4123   0.793   9.936  11.006
34076SOL     OW 4124   7.335  13.726   4.214
34076SOL    HW1 4125   7.408  13.678   4.176
34076SOL    HW2 4126   7.375  13.787   4.277
34077SOL     OW 4127   5.229  14.340  10.735
34077SOL    HW1 4128   5.251  14.287  10.812
34077SOL    HW2 4129   5.249  14.430  10.761
34078SOL     OW 4130   5.232  12.551   8.089
34078SOL    HW1 4131   5.159  12.570   8.148
34078SOL    HW2 4132   5.272  12.636   8.071
34079SOL     OW 4133  14.865   7.461  10.675
34079SOL    HW1 4134  14.785   7.492  10.718
34079SOL    HW2 4135   0.066   7.502  10.724
34080SOL     OW 4136   2.377  14.451  10.758
34080SOL    HW1 4137   2.337  14.509  10.693
34080SOL    HW2 4138   2.305  14.396  10.789
34081SOL     OW 4139   7.717   2.397   6.270
34081SOL    HW1 4140   7.705   2.304   6.288
34081SOL    HW2 4141   7.756   2.401   6.183
34082SOL     OW 4142   5.195   5.870   5.588
34082SOL    HW1 4143   5.213   5.833   5.674
34082SOL    HW2 4144   5.193   5.794   5.529
34083SOL     OW 4145   7.689   0.247   7.492
34083SOL    HW1 4146   7.682   0.291   7.407
34083SOL    HW2 4147   7.600   0.223   7.514
34084SOL     OW 4148  12.320  13.482   1.867
34084SOL    HW1 4149  12.303  13.390   1.886
34084SOL    HW2 4150  12.340  13.484   1.774
34085SOL     OW 4151  12.448  12.471   7.329
34085SOL    HW1 4152  12.427  12.484   7.237
34085SOL    HW2 4153  12.518  12.407   7.329
34086SOL     OW 4154   5.653   2.532   5.701
34086SOL    HW1 4155   5.679   2.615   5.661
34086SOL    HW2 4156   5.732   2.501   5.744
34087SOL     OW 4157   8.324   3.031  14.561
34087SOL    HW1 4158   8.331   3.106  14.502
34087SOL    HW2 4159   8.230   3.022  14.577
34088SOL     OW 4160   2.992   2.964   3.172
34088SOL    HW1 4161   2.961   2.932   3.257
34088SOL    HW2 4162   3.038   2.890   3.133
34089SOL     OW 4163   2.019   8.574   4.498
34089SOL    HW1 4164   1.994   8.497   4.549
34089SOL    HW2 4165   2.112   8.587   4.518
34090SOL     OW 4166  14.196   4.194   1.037
34090SOL    HW1 4167  14.256   4.162   1.105
34090SOL    HW2 4168  14.146   4.264   1.080
34091SOL     OW 4169  11.491   6.586   0.597
34091SOL    HW1 4170  11.480   6.678   0.574
34091SOL    HW2 4171  11.403   6.549   0.592
34092SOL     OW 4172   2.838   5.716   9.171
34092SOL    HW1 4173   2.875   5.634   9.137
34092SOL    HW2 4174   2.898   5.783   9.140
34093SOL     OW 4175   1.572  13.200  12.303
34093SOL    HW1 4176   1.655  13.205  12.257
34093SOL    HW2 4177   1.553  13.290  12.329
34094SOL     OW 4178   3.596  13.537   5.601
34094SOL    HW1 4179   3.666  13.475   5.623
34094SOL    HW2 4180   3.538  13.536   5.678
34095SOL     OW 4181   7.141   3.529   1.055
34095SOL    HW1 4182   7.214   3.548   0.995
34095SOL    HW2 4183   7.063   3.535   1.000
34096SOL     OW 4184  11.364   6.327   2.852
34096SOL    HW1 4185  11.403   6.350   2.936
34096SOL    HW2 4186  11.431   6.350   2.787
34097SOL     OW 4187   8.459  13.156  14.107
34097SOL    HW1 4188   8.435  13.236  14.062
34097SOL    HW2 4189   8.487  13.185  14.194
34098SOL     OW 4190  12.328   9.437  14.184
34098SOL    HW1 4191  12.394   9.474  14.243
34098SOL    HW2 4192  12.378   9.407  14.108
34099SOL     OW 4193  10.247   0.122   0.070
34099SOL    HW1 4194  10.226   0.051   0.130
34099SOL    HW2 4195  10.332   0.154   0.099
34100SOL     OW 4196  12.770   8.049  11.844
34100SOL    HW1 4197  12.826   8.068  11.919
34100SOL    HW2 4198  12.723   7.970  11.869
34101SOL     OW 4199   1.196  13.156   2.763
34101SOL    HW1 4200   1.232  13.100   2.832
34101SOL    HW2 4201   1.272  13.202   2.726
34102SOL     OW 4202   6.901   6.427   5.744
34102SOL    HW1 4203   6.980   6.433   5.689
34102SOL    HW2 4204   6.880   6.333   5.746
34103SOL     OW 4205   8.414  14.799   3.049
34103SOL    HW1 4206   8.389   0.010   3.093
34103SOL    HW2 4207   8.510  14.804   3.040
34104SOL     OW 4208   0.262   7.982   4.975
34104SOL    HW1 4209   0.279   7.945   5.061
34104SOL    HW2 4210   0.226   8.069   4.992
34105SOL     OW 4211   9.580   8.131  13.319
34105SOL    HW1 4212   9.584   8.188  13.243
34105SOL    HW2 4213   9.528   8.056  13.291
34106SOL     OW 4214   7.721   6.504   6.223
34106SOL    HW1 4215   7.795   6.449   6.246
34106SOL    HW2 4216   7.651   6.443   6.202
34107SOL     OW 4217   5.507   2.790  12.450
34107SOL    HW1 4218   5.416   2.815  12.463
34107SOL    HW2 4219   5.511   2.698  12.478
34108SOL     OW 4220   7.621  13.447   0.613
34108SOL    HW1 4221   7.609  13.371   0.670
34108SOL    HW2 4222   7.655  13.409   0.531
34109SOL     OW 4223   4.348   4.021   0.405
34109SOL    HW1 4224   4.405   3.967   0.351
34109SOL    HW2 4225   4.260   3.984   0.392
34110SOL     OW 4226  10.448  13.862   0.815
34110SOL    HW1 4227  10.489  13.919   0.749
34110SOL    HW2 4228  10.370  13.911   0.844
34111SOL     OW 4229   8.795   6.528  14.490
34111SOL    HW1 4230   8.766   6.619  14.480
34111SOL    HW2 4231   8.794   6.492  14.401
34112SOL     OW 4232   1.836   1.631  10.334
34112SOL    HW1 4233   1.780   1.700  10.369
34112SOL    HW2 4234   1.874   1.668  10.255
34113SOL     OW 4235  11.612   1.682   7.896
34113SOL    HW1 4236  11.617   1.771   7.929
34113SOL    HW2 4237  11.530   1.679   7.847
34114SOL     OW 4238  14.141   9.567  13.968
34114SOL    HW1 4239  14.064   9.516  13.944
34114SOL    HW2 4240  14.126   9.653  13.929
34115SOL     OW 4241   3.055   3.907  12.154
34115SOL    HW1 4242   3.115   3.891  12.081
34115SOL    HW2 4243   2.968   3.910  12.112
34116SOL     OW 4244   7.144  11.574   9.127
34116SOL    HW1 4245   7.147  11.483   9.098
34116SOL    HW2 4246   7.074  11.576   9.193
34117SOL     OW 4247   4.830   9.726   3.669
34117SOL    HW1 4248   4.779   9.707   3.747
34117SOL    HW2 4249   4.916   9.753   3.702
34118SOL     OW 4250   2.841   1.089   1.643
34118SOL    HW1 4251   2.912   1.132   1.596
34118SOL    HW2 4252   2.883   1.048   1.719
34119SOL     OW 4253   3.341   3.994   2.177
34119SOL    HW1 4254   3.334   3.906   2.142
34119SOL    HW2 4255   3.412   4.035   2.126
34120SOL     OW 4256   3.525  13.266   2.435
34120SOL    HW1 4257   3.621  13.272   2.436
34120SOL    HW2 4258   3.504  13.218   2.514
34121SOL     OW 4259   8.314  12.171  10.008
34121SOL    HW1 4260   8.278  12.188  10.095
34121SOL    HW2 4261   8.344  12.256   9.977
34122SOL     OW 4262   3.790   7.943   4.015
34122SOL    HW1 4263   3.784   7.994   4.096
34122SOL    HW2 4264   3.783   7.852   4.044
34123SOL     OW 4265   2.747   4.747   4.703
34123SOL    HW1 4266   2.694   4.706   4.635
34123SOL    HW2 4267   2.799   4.813   4.657
34124SOL     OW 4268  14.786   5.427  13.995
34124SOL    HW1 4269  14.781   5.404  14.087
34124SOL    HW2 4270  14.781   5.344  13.948
34125SOL     OW 4271   1.910   2.977  14.036
34125SOL    HW1 4272   1.984   2.921  14.011
34125SOL    HW2 4273   1.913   3.051  13.976
34126SOL     OW 4274  13.802   7.421   5.206
34126SOL    HW1 4275  13.884   7.426   5.254
34126SOL    HW2 4276  13.825   7.448   5.117
34127SOL     OW 4277   4.048  12.019  10.447
34127SOL    HW1 4278   4.068  12.028  10.354
34127SOL    HW2 4279   4.133  12.020  10.490
34128SOL     OW 4280   8.629   4.531  13.099
34128SOL    HW1 4281   8.684   4.572  13.165
34128SOL    HW2 4282   8.567   4.477  13.149
34129SOL     OW 4283  12.350  11.846   7.610
34129SOL    HW1 4284  12.431  11.894   7.629
34129SOL    HW2 4285  12.331  11.800   7.692
34130SOL     OW 4286  12.379   1.481  11.024
34130SOL    HW1 4287  12.468   1.481  11.060
34130SOL    HW2 4288  12.389   1.513  10.935
34131SOL     OW 4289   9.981  13.823   4.433
34131SOL    HW1 4290  10.021  13.906   4.408
34131SOL    HW2 4291  10.054  13.761   4.435
34132SOL     OW 4292  12.763  10.199  14.681
34132SOL    HW1 4293  12.786  10.291  14.693
34132SOL    HW2 4294  12.837  10.161  14.633
34133SOL     OW 4295  13.041   4.753   0.984
34133SOL    HW1 4296  13.036   4.688   0.913
34133SOL    HW2 4297  13.133   4.756   1.008
34134SOL     OW 4298  14.421   7.850   4.359
34134SOL    HW1 4299  14.462   7.918   4.412
34134SOL    HW2 4300  14.332   7.883   4.342
34135SOL     OW 4301   8.029   4.269   1.056
34135SOL    HW1 4302   7.964   4.339   1.058
34135SOL    HW2 4303   8.009   4.216   1.133
34136SOL     OW 4304  10.213  14.100   0.862
34136SOL    HW1 4305  10.202  14.126   0.770
34136SOL    HW2 4306  10.195  14.006   0.863
34137SOL     OW 4307  14.503   9.802   0.110
34137SOL    HW1 4308  14.479   9.714   0.080
34137SOL    HW2 4309  14.497   9.856   0.032
34138SOL     OW 4310   5.851  12.438   5.734
34138SOL    HW1 4311   5.767  12.392   5.737
34138SOL    HW2 4312   5.892  12.408   5.653
34139SOL     OW 4313   5.647   9.836   5.486
34139SOL    HW1 4314   5.675   9.876   5.403
34139SOL    HW2 4315   5.647   9.742   5.468
34140SOL     OW 4316  11.349   8.309   7.292
34140SOL    HW1 4317  11.413   8.263   7.238
34140SOL    HW2 4318  11.387   8.310   7.379
34141SOL     OW 4319  10.763   4.361   5.669
34141SOL    HW1 4320  10.851   4.395   5.682
34141SOL    HW2 4321  10.723   4.419   5.604
34142SOL     OW 4322  11.256   6.605  10.640
34142SOL    HW1 4323  11.228   6.688  10.678
34142SOL    HW2 4324  11.278   6.550  10.716
34143SOL     OW 4325   5.714  13.307   1.371
34143SOL    HW1 4326   5.752  13.231   1.416
34143SOL    HW2 4327   5.717  13.378   1.436
34144SOL     OW 4328   7.203   1.663  11.007
34144SOL    HW1 4329   7.132   1.719  11.037
34144SOL    HW2 4330   7.277   1.722  10.992
34145SOL     OW 4331  11.414   4.114   2.811
34145SOL    HW1 4332  11.491   4.152   2.853
34145SOL    HW2 4333  11.443   4.026   2.784
34146SOL     OW 4334  12.547   4.252  10.147
34146SOL    HW1 4335  12.633   4.211  10.157
34146SOL    HW2 4336  12.521   4.230  10.058
34147SOL     OW 4337   3.281  10.813  13.011
34147SOL    HW1 4338   3.224  10.755  13.062
34147SOL    HW2 4339   3.275  10.780  12.921
34148SOL     OW 4340   7.557   0.581   4.619
34148SOL    HW1 4341   7.528   0.648   4.557
34148SOL    HW2 4342   7.520   0.499   4.586
34149SOL     OW 4343   4.381   5.549   2.708
34149SOL    HW1 4344   4.453   5.502   2.664
34149SOL    HW2 4345   4.382   5.515   2.797
34150SOL     OW 4346   0.005   9.243   6.576
34150SOL    HW1 4347   0.057   9.171   6.542
34150SOL    HW2 4348   0.013   9.235   6.671
34151SOL     OW 4349   9.754   2.474   9.583
34151SOL    HW1 4350   9.718   2.513   9.503
34151SOL    HW2 4351   9.706   2.391   9.592
34152SOL     OW 4352   7.737   5.264  13.113
34152SOL    HW1 4353   7.816   5.228  13.071
34152SOL    HW2 4354   7.685   5.187  13.135
34153SOL     OW 4355   3.236   3.555  14.190
34153SOL    HW1 4356   3.284   3.506  14.256
34153SOL    HW2 4357   3.147   3.520  14.193
34154SOL     OW 4358   9.626   6.854  13.112
34154SOL    HW1 4359   9.713   6.821  13.089
34154SOL    HW2 4360   9.585   6.872  13.027
34155SOL     OW 4361   4.756  10.701   3.182
34155SOL    HW1 4362   4.782  10.660   3.099
34155SOL    HW2 4363   4.817  10.664   3.246
34156SOL     OW 4364   2.911  13.063  10.410
34156SOL    HW1 4365   2.937  12.983  10.455
34156SOL    HW2 4366   2.944  13.052  10.320
34157SOL     OW 4367   1.948  13.735   3.827
34157SOL    HW1 4368   1.856  13.729   3.801
34157SOL    HW2 4369   1.956  13.819   3.872
34158SOL     OW 4370  11.837  11.715  12.440
34158SOL    HW1 4371  11.835  11.710  12.344
34158SOL    HW2 4372  11.775  11.648  12.469
34159SOL     OW 4373   9.350  10.631  10.319
34159SOL    HW1 4374   9.392  10.716  10.332
34159SOL    HW2 4375   9.423  10.571  10.300
34160SOL     OW 4376   3.444   0.923   7.268
34160SOL    HW1 4377   3.363   0.974   7.263
34160SOL    HW2 4378   3.494   0.963   7.339
34161SOL     OW 4379   3.593   2.078   7.752
34161SOL    HW1 4380   3.684   2.051   7.759
34161SOL    HW2 4381   3.547   2.024   7.817
34162SOL     OW 4382  10.005   7.086   8.578
34162SOL    HW1 4383   9.914   7.116   8.573
34162SOL    HW2 4384  10.056   7.166   8.571
34163SOL     OW 4385   6.664  10.253  10.162
34163SOL    HW1 4386   6.570  10.242  10.145
34163SOL    HW2 4387   6.692  10.170  10.200
34164SOL     OW 4388  10.403  11.206  11.416
34164SOL    HW1 4389  10.352  11.131  11.447
34164SOL    HW2 4390  10.474  11.215  11.479
34165SOL     OW 4391  10.789  13.449   6.619
34165SOL    HW1 4392  10.840  13.383   6.666
34165SOL    HW2 4393  10.700  13.437   6.651
34166SOL     OW 4394   4.115  14.341   8.695
34166SOL    HW1 4395   4.124  14.400   8.620
34166SOL    HW2 4396   4.191  14.283   8.689
34167SOL     OW 4397   7.672   5.698  12.518
34167SOL    HW1 4398   7.695   5.627  12.579
34167SOL    HW2 4399   7.680   5.778  12.570
34168SOL     OW 4400  13.834   1.508   3.587
34168SOL    HW1 4401  13.748   1.541   3.614
34168SOL    HW2 4402  13.815   1.440   3.523
34169SOL     OW 4403   4.871  12.874   4.555
34169SOL    HW1 4404   4.810  12.808   4.523
34169SOL    HW2 4405   4.852  12.881   4.649
34170SOL     OW 4406   8.362   6.327  10.089
34170SOL    HW1 4407   8.355   6.361  10.178
34170SOL    HW2 4408   8.436   6.267  10.091
34171SOL     OW 4409  11.852   8.304  14.647
34171SOL    HW1 4410  11.790   8.269  14.582
34171SOL    HW2 4411  11.797   8.356  14.706
34172SOL     OW 4412   3.942  11.448   0.925
34172SOL    HW1 4413   3.886  11.521   0.954
34172SOL    HW2 4414   3.881  11.380   0.899
34173SOL     OW 4415  11.682  10.335  11.333
34173SOL    HW1 4416  11.680  10.299  11.244
34173SOL    HW2 4417  11.608  10.396  11.336
34174SOL     OW 4418  12.790   9.092  14.611
34174SOL    HW1 4419  12.756   9.038  14.683
34174SOL    HW2 4420  12.744   9.175  14.619
34175SOL     OW 4421  11.165  13.403   5.692
34175SOL    HW1 4422  11.109  13.480   5.681
34175SOL    HW2 4423  11.246  13.426   5.646
34176SOL     OW 4424  13.398  14.774  10.848
34176SOL    HW1 4425  13.434  14.807  10.930
34176SOL    HW2 4426  13.430  14.684  10.843
34177SOL     OW 4427   5.318   4.223   0.082
34177SOL    HW1 4428   5.380   4.151   0.065
34177SOL    HW2 4429   5.358   4.299   0.041
34178SOL     OW 4430  12.543   4.110  12.535
34178SOL    HW1 4431  12.577   4.183  12.587
34178SOL    HW2 4432  12.453   4.135  12.514
34179SOL     OW 4433  11.501  10.152   1.410
34179SOL    HW1 4434  11.435  10.123   1.347
34179SOL    HW2 4435  11.565  10.080   1.411
34180SOL     OW 4436  14.542   7.671   4.564
34180SOL    HW1 4437  14.495   7.711   4.491
34180SOL    HW2 4438  14.542   7.577   4.545
34181SOL     OW 4439  11.348   1.693  11.739
34181SOL    HW1 4440  11.303   1.672  11.657
34181SOL    HW2 4441  11.277   1.709  11.801
34182SOL     OW 4442   4.694  10.004  11.239
34182SOL    HW1 4443   4.755  10.044  11.300
34182SOL    HW2 4444   4.608  10.037  11.264
34183SOL     OW 4445   4.785   4.058   7.320
34183SOL    HW1 4446   4.799   4.128   7.257
34183SOL    HW2 4447   4.857   4.067   7.383
34184SOL     OW 4448  10.842   4.596   2.936
34184SOL    HW1 4449  10.747   4.598   2.951
34184SOL    HW2 4450  10.880   4.589   3.024
34185SOL     OW 4451   5.239   5.254   3.819
34185SOL    HW1 4452   5.193   5.319   3.872
34185SOL    HW2 4453   5.296   5.209   3.881
34186SOL     OW 4454   1.382  13.922  13.058
34186SOL    HW1 4455   1.434  14.000  13.077
34186SOL    HW2 4456   1.302  13.956  13.018
34187SOL     OW 4457  14.028   3.022  12.312
34187SOL    HW1 4458  14.097   3.046  12.249
34187SOL    HW2 4459  13.987   3.106  12.336
34188SOL     OW 4460   0.033   0.225  13.602
34188SOL    HW1 4461   0.015   0.309  13.560
34188SOL    HW2 4462  14.827   0.171  13.581
34189SOL     OW 4463  11.272   7.362  12.191
34189SOL    HW1 4464  11.201   7.299  12.189
34189SOL    HW2 4465  11.350   7.310  12.171
34190SOL     OW 4466   6.328   0.925   2.675
34190SOL    HW1 4467   6.421   0.905   2.689
34190SOL    HW2 4468   6.318   1.014   2.708
34191SOL     OW 4469  13.091   6.779   0.204
34191SOL    HW1 4470  13.178   6.759   0.168
34191SOL    HW2 4471  13.048   6.830   0.136
34192SOL     OW 4472   0.080  13.397   8.274
34192SOL    HW1 4473   0.076  13.325   8.210
34192SOL    HW2 4474   0.151  13.453   8.243
34193SOL     OW 4475   2.361  13.670   6.792
34193SOL    HW1 4476   2.291  13.653   6.730
34193SOL    HW2 4477   2.419  13.731   6.747
34194SOL     OW 4478  13.224   6.632  12.131
34194SOL    HW1 4479  13.236   6.576  12.208
34194SOL    HW2 4480  13.238   6.721  12.164
34195SOL     OW 4481  11.502   9.181  12.897
34195SOL    HW1 4482  11.579   9.172  12.841
34195SOL    HW2 4483  11.493   9.095  12.938
34196SOL     OW 4484   0.614   6.685   1.770
34196SOL    HW1 4485   0.549   6.724   1.827
34196SOL    HW2 4486   0.631   6.599   1.809
34197SOL     OW 4487  11.837  13.212   2.656
34197SOL    HW1 4488  11.884  13.198   2.738
34197SOL    HW2 4489  11.815  13.305   2.656
34198SOL     OW 4490  12.715  12.366   0.780
34198SOL    HW1 4491  12.766  12.447   0.783
34198SOL    HW2 4492  12.624  12.396   0.781
34199SOL     OW 4493  11.969   1.761  12.593
34199SOL    HW1 4494  12.003   1.845  12.624
34199SOL    HW2 4495  11.979   1.766  12.498
34200SOL     OW 4496   9.110   7.197   9.409
34200SOL    HW1 4497   9.174   7.245   9.461
34200SOL    HW2 4498   9.141   7.206   9.319
34201SOL     OW 4499   5.403   1.773   2.031
34201SOL    HW1 4500   5.433   1.829   1.959
34201SOL    HW2 4501   5.462   1.698   2.029
34202SOL     OW 4502   1.181   2.765   4.147
34202SOL    HW1 4503   1.138   2.850   4.139
34202SOL    HW2 4504   1.188   2.750   4.241
34203SOL     OW 4505  10.005   9.969   2.698
34203SOL    HW1 4506  10.083   9.913   2.693
34203SOL    HW2 4507  10.034  10.047   2.744
34204SOL     OW 4508  13.555  14.354   8.138
34204SOL    HW1 4509  13.507  14.415   8.194
34204SOL    HW2 4510  13.486  14.302   8.095
34205SOL     OW 4511   0.524   7.299   0.172
34205SOL    HW1 4512   0.565   7.362   0.232
34205SOL    HW2 4513   0.592   7.280   0.108
34206SOL     OW 4514  14.133  14.210  11.389
34206SOL    HW1 4515  14.165  14.256  11.312
34206SOL    HW2 4516  14.050  14.172  11.363
34207SOL     OW 4517   4.477   4.381  11.962
34207SOL    HW1 4518   4.452   4.375  11.870
34207SOL    HW2 4519   4.438   4.463  11.992
34208SOL     OW 4520   4.444  13.135   7.744
34208SOL    HW1 4521   4.456  13.051   7.789
34208SOL    HW2 4522   4.398  13.113   7.663
34209SOL     OW 4523   9.720   0.389  11.256
34209SOL    HW1 4524   9.660   0.361  11.325
34209SOL    HW2 4525   9.685   0.350  11.176
34210SOL     OW 4526  14.685   7.496   0.879
34210SOL    HW1 4527  14.673   7.524   0.970
34210SOL    HW2 4528  14.743   7.420   0.885
34211SOL     OW 4529   2.873  11.889   5.753
34211SOL    HW1 4530   2.781  11.906   5.735
34211SOL    HW2 4531   2.883  11.909   5.846
34212SOL     OW 4532  10.634   6.830  12.302
34212SOL    HW1 4533  10.548   6.871  12.298
34212SOL    HW2 4534  10.675   6.851  12.219
34213SOL     OW 4535  10.963   5.531  12.601
34213SOL    HW1 4536  11.049   5.496  12.580
34213SOL    HW2 4537  10.961   5.535  12.696
34214SOL     OW 4538  11.121   3.341  12.431
34214SOL    HW1 4539  11.050   3.394  12.394
34214SOL    HW2 4540  11.076   3.272  12.480
34215SOL     OW 4541   6.862   1.941   0.897
34215SOL    HW1 4542   6.830   1.928   0.987
34215SOL    HW2 4543   6.795   1.995   0.856
34216SOL     OW 4544   8.569  13.932   6.528
34216SOL    HW1 4545   8.503  13.904   6.465
34216SOL    HW2 4546   8.633  13.861   6.529
34217SOL     OW 4547  10.702  14.547   6.712
34217SOL    HW1 4548  10.769  14.500   6.763
34217SOL    HW2 4549  10.619  14.518   6.751
34218SOL     OW 4550   5.311   3.039   3.785
34218SOL    HW1 4551   5.313   3.110   3.721
34218SOL    HW2 4552   5.283   3.081   3.866
34219SOL     OW 4553   5.180  11.527   4.354
34219SOL    HW1 4554   5.222  11.463   4.411
34219SOL    HW2 4555   5.187  11.489   4.266
34220SOL     OW 4556   5.670   6.343  11.994
34220SOL    HW1 4557   5.649   6.320  11.903
34220SOL    HW2 4558   5.615   6.419  12.012
34221SOL     OW 4559   8.989  12.755   7.555
34221SOL    HW1 4560   9.055  12.823   7.542
34221SOL    HW2 4561   8.905  12.800   7.541
34222SOL     OW 4562   4.898  11.429  11.827
34222SOL    HW1 4563   4.872  11.364  11.762
34222SOL    HW2 4564   4.888  11.513  11.782
34223SOL     OW 4565   0.095   3.984   1.647
34223SOL    HW1 4566   0.027   4.040   1.609
34223SOL    HW2 4567   0.165   4.044   1.671
34224SOL     OW 4568   7.949   2.749  13.509
34224SOL    HW1 4569   7.893   2.821  13.538
34224SOL    HW2 4570   7.996   2.722  13.588
34225SOL     OW 4571  12.285  11.770   2.581
34225SOL    HW1 4572  12.341  11.734   2.512
34225SOL    HW2 4573  12.320  11.858   2.596
34226SOL     OW 4574   9.739   0.903  12.688
34226SOL    HW1 4575   9.815   0.959  12.705
34226SOL    HW2 4576   9.773   0.833  12.633
34227SOL     OW 4577  14.368   3.348   1.966
34227SOL    HW1 4578  14.337   3.435   1.943
34227SOL    HW2 4579  14.431   3.362   2.036
34228SOL     OW 4580   5.055   4.668   7.189
34228SOL    HW1 4581   5.138   4.716   7.188
34228SOL    HW2 4582   5.030   4.666   7.282
34229SOL     OW 4583   4.524   6.652   5.014
34229SOL    HW1 4584   4.600   6.595   5.003
34229SOL    HW2 4585   4.544   6.729   4.961
34230SOL     OW 4586   5.672  13.581   6.155
34230SOL    HW1 4587   5.633  13.661   6.121
34230SOL    HW2 4588   5.757  13.608   6.191
34231SOL     OW 4589   2.821   8.031  10.101
34231SOL    HW1 4590   2.896   8.058  10.154
34231SOL    HW2 4591   2.745   8.053  10.155
34232SOL     OW 4592   9.177   1.278   0.397
34232SOL    HW1 4593   9.137   1.362   0.374
34232SOL    HW2 4594   9.115   1.236   0.456
34233SOL     OW 4595   4.921  12.473  10.972
34233SOL    HW1 4596   4.860  12.538  10.939
34233SOL    HW2 4597   4.888  12.389  10.939
34234SOL     OW 4598   1.553  14.282  10.233
34234SOL    HW1 4599   1.624  14.318  10.180
34234SOL    HW2 4600   1.542  14.192  10.201
34235SOL     OW 4601   4.587   4.442  14.520
34235SOL    HW1 4602   4.640   4.486  14.586
34235SOL    HW2 4603   4.547   4.513  14.470
34236SOL     OW 4604   0.444  11.344   4.879
34236SOL    HW1 4605   0.481  11.377   4.961
34236SOL    HW2 4606   0.365  11.397   4.865
34237SOL     OW 4607  10.595   0.309   3.457
34237SOL    HW1 4608  10.631   0.379   3.511
34237SOL    HW2 4609  10.533   0.265   3.515
34238SOL     OW 4610   7.047   8.928   1.202
34238SOL    HW1 4611   6.978   8.904   1.265
34238SOL    HW2 4612   7.114   8.971   1.254
34239SOL     OW 4613  11.789   8.025  11.946
34239SOL    HW1 4614  11.830   8.111  11.938
34239SOL    HW2 4615  11.779   7.994  11.856
34240SOL     OW 4616   5.769   7.842   0.392
34240SOL    HW1 4617   5.743   7.756   0.423
34240SOL    HW2 4618   5.859   7.832   0.363
34241SOL     OW 4619   1.996  11.749   7.369
34241SOL    HW1 4620   2.088  11.773   7.385
34241SOL    HW2 4621   1.984  11.668   7.417
34242SOL     OW 4622  12.636   3.584   7.176
34242SOL    HW1 4623  12.612   3.492   7.187
34242SOL    HW2 4624  12.617   3.624   7.261
34243SOL     OW 4625  13.980  10.267   5.759
34243SOL    HW1 4626  14.069  10.247   5.787
34243SOL    HW2 4627  13.981  10.251   5.664
34244SOL     OW 4628  11.873   6.549   4.950
34244SOL    HW1 4629  11.797   6.555   5.007
34244SOL    HW2 4630  11.857   6.472   4.895
34245SOL     OW 4631  13.382   5.668   5.563
34245SOL    HW1 4632  13.399   5.762   5.569
34245SOL    HW2 4633  13.386   5.637   5.654
34246SOL     OW 4634   1.275   0.984   3.489
34246SOL    HW1 4635   1.324   1.057   3.529
34246SOL    HW2 4636   1.216   0.954   3.559
34247SOL     OW 4637   3.304   5.887  11.064
34247SOL    HW1 4638   3.349   5.957  11.016
34247SOL    HW2 4639   3.340   5.806  11.028
34248SOL     OW 4640   4.560   2.146  14.399
34248SOL    HW1 4641   4.654   2.162  14.409
34248SOL    HW2 4642   4.555   2.057  14.365
34249SOL     OW 4643   4.503   2.242  10.136
34249SOL    HW1 4644   4.572   2.258  10.200
34249SOL    HW2 4645   4.503   2.320  10.081
34250SOL     OW 4646   0.859  14.466   0.362
34250SOL    HW1 4647   0.788  14.466   0.426
34250SOL    HW2 4648   0.814  14.466   0.277
34251SOL     OW 4649   9.665  10.850   9.917
34251SOL    HW1 4650   9.615  10.779   9.958
34251SOL    HW2 4651   9.750  10.811   9.897
34252SOL     OW 4652  10.647  14.797  10.195
34252SOL    HW1 4653  10.707  14.806  10.270
34252SOL    HW2 4654  10.647  14.703  10.177
34253SOL     OW 4655   0.749   4.682   6.389
34253SOL    HW1 4656   0.791   4.768   6.391
34253SOL    HW2 4657   0.656   4.700   6.374
34254SOL     OW 4658   7.410   9.976  12.625
34254SOL    HW1 4659   7.497   9.985  12.662
34254SOL    HW2 4660   7.424   9.942  12.537
34255SOL     OW 4661  13.920  11.956   0.942
34255SOL    HW1 4662  13.893  12.034   0.990
34255SOL    HW2 4663  13.950  11.989   0.858
34256SOL     OW 4664  10.032  10.982   1.387
34256SOL    HW1 4665  10.081  10.928   1.449
34256SOL    HW2 4666  10.006  10.921   1.318
34257SOL     OW 4667  12.757  11.523  13.734
34257SOL    HW1 4668  12.796  11.530  13.821
34257SOL    HW2 4669  12.696  11.449  13.741
34258SOL     OW 4670   3.327  11.375  14.047
34258SOL    HW1 4671   3.238  11.401  14.023
34258SOL    HW2 4672   3.368  11.348  13.965
34259SOL     OW 4673  11.253   8.203  13.643
34259SOL    HW1 4674  11.326   8.245  13.688
34259SOL    HW2 4675  11.205   8.274  13.601
34260SOL     OW 4676   2.230   5.607  11.653
34260SOL    HW1 4677   2.291   5.549  11.699
34260SOL    HW2 4678   2.286   5.672  11.610
34261SOL     OW 4679   8.865   2.799   7.791
34261SOL    HW1 4680   8.952   2.773   7.761
34261SOL    HW2 4681   8.862   2.894   7.775
34262SOL     OW 4682  12.975   2.131   7.078
34262SOL    HW1 4683  12.902   2.076   7.049
34262SOL    HW2 4684  12.939   2.219   7.079
34263SOL     OW 4685   9.130   6.128  11.277
34263SOL    HW1 4686   9.108   6.170  11.360
34263SOL    HW2 4687   9.177   6.195  11.228
34264SOL     OW 4688   0.558  14.342   5.801
34264SOL    HW1 4689   0.527  14.405   5.736
34264SOL    HW2 4690   0.619  14.392   5.855
34265SOL     OW 4691   1.451  10.201   6.867
34265SOL    HW1 4692   1.477  10.118   6.828
34265SOL    HW2 4693   1.454  10.185   6.961
34266SOL     OW 4694   6.294   6.441   9.295
34266SOL    HW1 4695   6.219   6.479   9.250
34266SOL    HW2 4696   6.346   6.401   9.225
34267SOL     OW 4697  10.864   4.862   4.930
34267SOL    HW1 4698  10.780   4.891   4.896
34267SOL    HW2 4699  10.842   4.806   5.005
34268SOL     OW 4700   5.267   7.018  12.242
34268SOL    HW1 4701   5.212   7.097  12.243
34268SOL    HW2 4702   5.345   7.043  12.290
34269SOL     OW 4703  14.024  13.977   3.517
34269SOL    HW1 4704  14.075  14.002   3.440
34269SOL    HW2 4705  13.955  13.920   3.483
34270SOL     OW 4706   9.678   3.498   8.334
34270SOL    HW1 4707   9.617   3.569   8.352
34270SOL    HW2 4708   9.763   3.530   8.365
34271SOL     OW 4709  11.354   9.325  14.830
34271SOL    HW1 4710  11.423   9.280   0.010
34271SOL    HW2 4711  11.355   9.414  14.864
34272SOL     OW 4712  13.480   4.910  13.362
34272SOL    HW1 4713  13.486   4.816  13.380
34272SOL    HW2 4714  13.565   4.945  13.388
34273SOL     OW 4715   8.856   7.410  12.759
34273SOL    HW1 4716   8.774   7.455  12.778
34273SOL    HW2 4717   8.914   7.478  12.725
34274SOL     OW 4718  11.145  12.580  13.258
34274SOL    HW1 4719  11.194  12.564  13.177
34274SOL    HW2 4720  11.127  12.674  13.256
34275SOL     OW 4721  10.024   9.318   2.380
34275SOL    HW1 4722   9.937   9.359   2.376
34275SOL    HW2 4723  10.084   9.392   2.388
34276SOL     OW 4724  14.152   6.040   7.019
34276SOL    HW1 4725  14.083   6.008   6.961
34276SOL    HW2 4726  14.169   5.968   7.078
34277SOL     OW 4727   1.289   3.076   1.212
34277SOL    HW1 4728   1.341   3.002   1.243
34277SOL    HW2 4729   1.220   3.037   1.160
34278SOL     OW 4730   2.461   1.869   4.950
34278SOL    HW1 4731   2.528   1.912   5.002
34278SOL    HW2 4732   2.379   1.911   4.978
34279SOL     OW 4733  13.005   4.595   3.407
34279SOL    HW1 4734  13.061   4.669   3.385
34279SOL    HW2 4735  12.916   4.629   3.399
34280SOL     OW 4736   0.272   8.153   6.970
34280SOL    HW1 4737   0.186   8.194   6.980
34280SOL    HW2 4738   0.253   8.066   6.937
34281SOL     OW 4739  11.871   7.317   3.606
34281SOL    HW1 4740  11.857   7.385   3.672
34281SOL    HW2 4741  11.803   7.333   3.540
34282SOL     OW 4742   2.667  14.059   7.120
34282SOL    HW1 4743   2.675  14.088   7.029
34282SOL    HW2 4744   2.668  13.964   7.115
34283SOL     OW 4745  12.143  12.381  10.818
34283SOL    HW1 4746  12.203  12.326  10.767
34283SOL    HW2 4747  12.127  12.331  10.898
34284SOL     OW 4748   3.789   1.877   9.955
34284SOL    HW1 4749   3.854   1.944   9.972
34284SOL    HW2 4750   3.720   1.893  10.020
34285SOL     OW 4751  10.021   8.658   6.938
34285SOL    HW1 4752  10.014   8.739   6.988
34285SOL    HW2 4753  10.048   8.686   6.850
34286SOL     OW 4754  12.256   9.735   4.257
34286SOL    HW1 4755  12.210   9.804   4.304
34286SOL    HW2 4756  12.333   9.778   4.220
34287SOL     OW 4757   1.276  13.556  12.088
34287SOL    HW1 4758   1.222  13.587  12.161
34287SOL    HW2 4759   1.290  13.463  12.105
34288SOL     OW 4760   0.961  13.372  12.165
34288SOL    HW1 4761   0.931  13.320  12.090
34288SOL    HW2 4762   1.047  13.335  12.187
34289SOL     OW 4763   5.899   3.821   4.791
34289SOL    HW1 4764   5.864   3.799   4.705
34289SOL    HW2 4765   5.971   3.882   4.773
34290SOL     OW 4766   6.927   9.681  10.005
34290SOL    HW1 4767   6.844   9.691   9.958
34290SOL    HW2 4768   6.933   9.587  10.022
34291SOL     OW 4769   2.081   5.076  13.264
34291SOL    HW1 4770   1.995   5.064  13.304
34291SOL    HW2 4771   2.064   5.075  13.170
34292SOL     OW 4772  14.446  14.266   2.579
34292SOL    HW1 4773  14.462  14.226   2.493
34292SOL    HW2 4774  14.402  14.198   2.630
34293SOL     OW 4775   4.522  13.480  14.124
34293SOL    HW1 4776   4.499  13.469  14.216
34293SOL    HW2 4777   4.556  13.395  14.097
34294SOL     OW 4778  14.037  13.779   5.366
34294SOL    HW1 4779  14.048  13.859   5.417
34294SOL    HW2 4780  13.952  13.745   5.391
34295SOL     OW 4781   3.144   0.644   5.191
34295SOL    HW1 4782   3.194   0.723   5.208
34295SOL    HW2 4783   3.073   0.672   5.133
34296SOL     OW 4784   8.051   4.431   3.251
34296SOL    HW1 4785   7.982   4.493   3.276
34296SOL    HW2 4786   8.044   4.361   3.315
34297SOL     OW 4787   4.484   4.687   1.711
34297SOL    HW1 4788   4.451   4.609   1.758
34297SOL    HW2 4789   4.523   4.652   1.631
34298SOL     OW 4790   4.908   7.038   3.060
34298SOL    HW1 4791   4.993   7.039   3.016
34298SOL    HW2 4792   4.926   7.001   3.147
34299SOL     OW 4793   3.314  14.538   7.184
34299SOL    HW1 4794   3.277  14.521   7.271
34299SOL    HW2 4795   3.239  14.568   7.132
34300SOL     OW 4796   9.579   7.038   5.251
34300SOL    HW1 4797   9.495   7.074   5.224
34300SOL    HW2 4798   9.602   6.977   5.181
34301SOL     OW 4799   0.124   9.417  13.802
34301SOL    HW1 4800   0.082   9.437  13.886
34301SOL    HW2 4801   0.215   9.443  13.815
34302SOL     OW 4802   9.787   4.378   4.921
34302SOL    HW1 4803   9.754   4.290   4.940
34302SOL    HW2 4804   9.801   4.418   5.007
34303SOL     OW 4805   0.170   8.619  12.661
34303SOL    HW1 4806   0.189   8.711  12.679
34303SOL    HW2 4807   0.256   8.577  12.661
34304SOL     OW 4808   7.686   7.940  13.875
34304SOL    HW1 4809   7.611   7.981  13.831
34304SOL    HW2 4810   7.679   7.847  13.852
34305SOL     OW 4811   2.127   1.794   4.772
34305SOL    HW1 4812   2.114   1.857   4.843
34305SOL    HW2 4813   2.144   1.711   4.817
34306SOL     OW 4814   8.771   4.652  13.759
34306SOL    HW1 4815   8.774   4.729  13.702
34306SOL    HW2 4816   8.678   4.636  13.774
34307SOL     OW 4817  12.960   4.048  12.351
34307SOL    HW1 4818  12.965   4.143  12.346
34307SOL    HW2 4819  12.926   4.030  12.439
34308SOL     OW 4820   5.655   5.160   2.459
34308SOL    HW1 4821   5.685   5.069   2.457
34308SOL    HW2 4822   5.735   5.211   2.470
34309SOL     OW 4823   6.640   0.260   0.729
34309SOL    HW1 4824   6.605   0.266   0.641
34309SOL    HW2 4825   6.573   0.214   0.779
34310SOL     OW 4826   6.797   2.405   0.483
34310SOL    HW1 4827   6.783   2.415   0.577
34310SOL    HW2 4828   6.712   2.422   0.444
34311SOL     OW 4829   8.498  10.852   2.788
34311SOL    HW1 4830   8.467  10.761   2.791
34311SOL    HW2 4831   8.437  10.897   2.730
34312SOL     OW 4832   6.931  12.691   9.192
34312SOL    HW1 4833   6.999  12.723   9.251
34312SOL    HW2 4834   6.881  12.629   9.245
34313SOL     OW 4835   7.858   5.678   6.177
34313SOL    HW1 4836   7.846   5.619   6.251
34313SOL    HW2 4837   7.807   5.640   6.106
34314SOL     OW 4838  12.974   0.029   2.622
34314SOL    HW1 4839  12.919   0.007   2.697
34314SOL    HW2 4840  13.003  14.814   2.588
34315SOL     OW 4841   1.055  13.313  10.988
34315SOL    HW1 4842   1.150  13.320  10.989
34315SOL    HW2 4843   1.028  13.351  10.904
34316SOL     OW 4844   1.950   9.536  14.354
34316SOL    HW1 4845   1.945   9.466  14.418
34316SOL    HW2 4846   1.865   9.536  14.311
34317SOL     OW 4847   4.793   7.677  12.097
34317SOL    HW1 4848   4.859   7.637  12.154
34317SOL    HW2 4849   4.719   7.616  12.100
34318SOL     OW 4850   4.819   0.639  12.211
34318SOL    HW1 4851   4.884   0.636  12.280
34318SOL    HW2 4852   4.770   0.720  12.227
34319SOL     OW 4853   5.240   4.050   9.817
34319SOL    HW1 4854   5.198   4.045   9.903
34319SOL    HW2 4855   5.173   4.022   9.756
34320SOL     OW 4856  13.522   9.792  11.706
34320SOL    HW1 4857  13.591   9.727  11.721
34320SOL    HW2 4858  13.492   9.816  11.794
34321SOL     OW 4859   8.895  12.745  10.358
34321SOL    HW1 4860   8.915  12.832  10.325
34321SOL    HW2 4861   8.951  12.736  10.435
34322SOL     OW 4862   4.549   0.997   7.833
34322SOL    HW1 4863   4.555   0.903   7.851
34322SOL    HW2 4864   4.559   1.037   7.919
34323SOL     OW 4865   8.977  13.761   5.877
34323SOL    HW1 4866   9.045  13.696   5.858
34323SOL    HW2 4867   9.016  13.818   5.943
34324SOL     OW 4868  12.831   3.427   9.815
34324SOL    HW1 4869  12.845   3.522   9.821
34324SOL    HW2 4870  12.776   3.406   9.890
34325SOL     OW 4871  12.901  10.747  13.589
34325SOL    HW1 4872  12.947  10.800  13.655
34325SOL    HW2 4873  12.825  10.713  13.635
34326SOL     OW 4874   1.719   6.862   8.874
34326SOL    HW1 4875   1.799   6.857   8.822
34326SOL    HW2 4876   1.699   6.955   8.879
34327SOL     OW 4877   1.901   6.747   5.060
34327SOL    HW1 4878   1.908   6.827   5.008
34327SOL    HW2 4879   1.926   6.677   4.999
34328SOL     OW 4880   9.510   0.678   7.556
34328SOL    HW1 4881   9.573   0.742   7.522
34328SOL    HW2 4882   9.529   0.598   7.508
34329SOL     OW 4883   4.790  11.510  13.754
34329SOL    HW1 4884   4.721  11.560  13.797
34329SOL    HW2 4885   4.784  11.423  13.793
34330SOL     OW 4886   8.928   2.711   5.930
34330SOL    HW1 4887   8.977   2.791   5.951
34330SOL    HW2 4888   8.911   2.671   6.015
34331SOL     OW 4889   2.409   0.732   7.797
34331SOL    HW1 4890   2.358   0.667   7.749
34331SOL    HW2 4891   2.344   0.789   7.837
34332SOL     OW 4892  10.355   0.753   4.489
34332SOL    HW1 4893  10.282   0.815   4.488
34332SOL    HW2 4894  10.342   0.699   4.411
34333SOL     OW 4895  11.130   9.220   2.575
34333SOL    HW1 4896  11.148   9.313   2.561
34333SOL    HW2 4897  11.056   9.219   2.636
34334SOL     OW 4898   7.274   9.461   1.800
34334SOL    HW1 4899   7.326   9.382   1.812
34334SOL    HW2 4900   7.309   9.523   1.864
34335SOL     OW 4901  13.332   9.987  14.840
34335SOL    HW1 4902  13.333   9.892  14.831
34335SOL    HW2 4903  13.360  10.002   0.061
34336SOL     OW 4904   0.852   8.635   2.007
34336SOL    HW1 4905   0.926   8.645   1.948
34336SOL    HW2 4906   0.821   8.546   1.994
34337SOL     OW 4907   8.977  12.785   8.592
34337SOL    HW1 4908   8.904  12.723   8.587
34337SOL    HW2 4909   8.945  12.856   8.647
34338SOL     OW 4910   3.470   4.444  11.757
34338SOL    HW1 4911   3.380   4.448  11.789
34338SOL    HW2 4912   3.523   4.456  11.836
34339SOL     OW 4913   5.136   2.901  13.485
34339SOL    HW1 4914   5.162   2.967  13.421
34339SOL    HW2 4915   5.218   2.858  13.509
34340SOL     OW 4916   5.451  11.725  11.515
34340SOL    HW1 4917   5.412  11.811  11.499
34340SOL    HW2 4918   5.542  11.735  11.486
34341SOL     OW 4919   2.883   7.376   5.968
34341SOL    HW1 4920   2.875   7.342   6.057
34341SOL    HW2 4921   2.941   7.314   5.924
34342SOL     OW 4922   4.410   3.056   1.398
34342SOL    HW1 4923   4.325   3.019   1.374
34342SOL    HW2 4924   4.443   2.996   1.466
34343SOL     OW 4925   4.941  11.643   8.559
34343SOL    HW1 4926   4.990  11.710   8.511
34343SOL    HW2 4927   4.896  11.593   8.491
34344SOL     OW 4928   2.838  11.059   8.006
34344SOL    HW1 4929   2.909  10.999   8.027
34344SOL    HW2 4930   2.758  11.011   8.028
34345SOL     OW 4931  12.391   4.000   7.152
34345SOL    HW1 4932  12.328   4.023   7.084
34345SOL    HW2 4933  12.473   4.040   7.123
34346SOL     OW 4934  12.117   4.925   0.645
34346SOL    HW1 4935  12.050   4.967   0.698
34346SOL    HW2 4936  12.080   4.921   0.557
34347SOL     OW 4937  12.818  13.774  11.868
34347SOL    HW1 4938  12.786  13.754  11.956
34347SOL    HW2 4939  12.848  13.865  11.873
34348SOL     OW 4940   8.369   5.963   4.015
34348SOL    HW1 4941   8.282   5.951   3.977
34348SOL    HW2 4942   8.410   6.028   3.958
34349SOL     OW 4943  13.768   8.418   4.481
34349SOL    HW1 4944  13.824   8.423   4.404
34349SOL    HW2 4945  13.708   8.346   4.463
34350SOL     OW 4946  11.611   9.113   1.225
34350SOL    HW1 4947  11.693   9.139   1.182
34350SOL    HW2 4948  11.609   9.018   1.217
34351SOL     OW 4949  13.938   0.984  12.260
34351SOL    HW1 4950  13.845   0.988  12.236
34351SOL    HW2 4951  13.949   0.897  12.298
34352SOL     OW 4952   8.718   3.663   7.439
34352SOL    HW1 4953   8.703   3.743   7.489
34352SOL    HW2 4954   8.766   3.691   7.361
34353SOL     OW 4955  13.394   5.124  13.113
34353SOL    HW1 4956  13.387   5.219  13.121
34353SOL    HW2 4957  13.436   5.096  13.194
34354SOL     OW 4958   2.826  13.005   6.754
34354SOL    HW1 4959   2.919  13.016   6.737
34354SOL    HW2 4960   2.822  12.940   6.825
34355SOL     OW 4961   4.655  12.613  10.415
34355SOL    HW1 4962   4.743  12.619  10.453
34355SOL    HW2 4963   4.629  12.704  10.402
34356SOL     OW 4964   5.676   5.328   3.593
34356SOL    HW1 4965   5.707   5.288   3.674
34356SOL    HW2 4966   5.591   5.288   3.578
34357SOL     OW 4967   0.029   7.234   8.943
34357SOL    HW1 4968  14.867   7.209   8.857
34357SOL    HW2 4969   0.100   7.296   8.926
34358SOL     OW 4970   8.488   2.370   6.988
34358SOL    HW1 4971   8.574   2.360   7.029
34358SOL    HW2 4972   8.436   2.416   7.054
34359SOL     OW 4973   0.720   8.564   2.505
34359SOL    HW1 4974   0.721   8.528   2.416
34359SOL    HW2 4975   0.792   8.627   2.505
34360SOL     OW 4976  13.791   8.279   4.036
34360SOL    HW1 4977  13.732   8.337   3.987
34360SOL    HW2 4978  13.736   8.205   4.062
34361SOL     OW 4979  10.847   7.716   0.270
34361SOL    HW1 4980  10.928   7.666   0.275
34361SOL    HW2 4981  10.863   7.792   0.326
34362SOL     OW 4982  12.351   2.416  11.514
34362SOL    HW1 4983  12.370   2.328  11.548
34362SOL    HW2 4984  12.297   2.401  11.437
34363SOL     OW 4985  11.095   5.616   1.742
34363SOL    HW1 4986  11.179   5.662   1.740
34363SOL    HW2 4987  11.114   5.531   1.701
34364SOL     OW 4988   2.601   2.161  10.747
34364SOL    HW1 4989   2.645   2.139  10.829
34364SOL    HW2 4990   2.517   2.197  10.773
34365SOL     OW 4991   4.152   5.758   7.478
34365SOL    HW1 4992   4.222   5.811   7.515
34365SOL    HW2 4993   4.127   5.698   7.548
34366SOL     OW 4994  10.689   8.156   7.332
34366SOL    HW1 4995  10.629   8.229   7.346
34366SOL    HW2 4996  10.720   8.133   7.420
34367SOL     OW 4997  10.351   3.374   3.878
34367SOL    HW1 4998  10.360   3.356   3.972
34367SOL    HW2 4999  10.409   3.448   3.862
34368SOL     OW 5000  12.812   7.146  13.261
34368SOL    HW1 5001  12.882   7.085  13.284
34368SOL    HW2 5002  12.746   7.092  13.218
34369SOL     OW 5003   2.868   4.060  13.234
34369SOL    HW1 5004   2.917   3.987  13.271
34369SOL    HW2 5005   2.788   4.020  13.199
34370SOL     OW 5006   6.973  14.436   6.728
34370SOL    HW1 5007   6.972  14.522   6.688
34370SOL    HW2 5008   6.926  14.448   6.811
34371SOL     OW 5009   6.262  10.009   0.235
34371SOL    HW1 5010   6.199  10.072   0.272
34371SOL    HW2 5011   6.279  10.041   0.146
34372SOL     OW 5012  14.552   3.169  11.065
34372SOL    HW1 5013  14.614   3.116  11.014
34372SOL    HW2 5014  14.474   3.174  11.010
34373SOL     OW 5015   7.678   7.702   1.648
34373SOL    HW1 5016   7.604   7.660   1.604
34373SOL    HW2 5017   7.753   7.679   1.593
34374SOL     OW 5018   5.306   0.517   4.094
34374SOL    HW1 5019   5.221   0.539   4.133
34374SOL    HW2 5020   5.317   0.580   4.023
34375SOL     OW 5021   1.683   5.934   6.253
34375SOL    HW1 5022   1.646   5.880   6.183
34375SOL    HW2 5023   1.652   5.893   6.334
34376SOL     OW 5024   0.339   9.603   5.416
34376SOL    HW1 5025   0.328   9.608   5.321
34376SOL    HW2 5026   0.352   9.694   5.443
34377SOL     OW 5027   1.727  12.968   2.940
34377SOL    HW1 5028   1.652  12.944   2.886
34377SOL    HW2 5029   1.801  12.922   2.901
34378SOL     OW 5030   0.317   9.511   3.744
34378SOL    HW1 5031   0.390   9.451   3.756
34378SOL    HW2 5032   0.259   9.493   3.818
34379SOL     OW 5033   1.476   0.198  10.776
34379SOL    HW1 5034   1.551   0.205  10.835
34379SOL    HW2 5035   1.459   0.288  10.748
34380SOL     OW 5036   0.926   7.796   9.201
34380SOL    HW1 5037   0.928   7.892   9.193
34380SOL    HW2 5038   0.871   7.767   9.128
34381SOL     OW 5039  13.437   1.058  13.437
34381SOL    HW1 5040  13.520   1.011  13.447
34381SOL    HW2 5041  13.455   1.145  13.471
34382SOL     OW 5042  14.259  11.628   0.314
34382SOL    HW1 5043  14.325  11.621   0.245
34382SOL    HW2 5044  14.184  11.669   0.272
34383SOL     OW 5045   2.679   0.647   0.828
34383SOL    HW1 5046   2.621   0.651   0.904
34383SOL    HW2 5047   2.707   0.555   0.824
34384SOL     OW 5048  11.510   8.659   9.305
34384SOL    HW1 5049  11.478   8.696   9.223
34384SOL    HW2 5050  11.469   8.712   9.373
34385SOL     OW 5051   8.239   9.618   1.839
34385SOL    HW1 5052   8.226   9.683   1.770
34385SOL    HW2 5053   8.258   9.669   1.918
34386SOL     OW 5054   2.978  10.478   7.392
34386SOL    HW1 5055   3.021  10.415   7.449
34386SOL    HW2 5056   3.049  10.520   7.344
34387SOL     OW 5057   6.134  12.927  11.309
34387SOL    HW1 5058   6.216  12.899  11.352
34387SOL    HW2 5059   6.125  12.868  11.235
34388SOL     OW 5060   0.037  11.216  10.263
34388SOL    HW1 5061  14.815  11.218  10.238
34388SOL    HW2 5062   0.036  11.220  10.359
34389SOL     OW 5063   6.313  12.411   1.884
34389SOL    HW1 5064   6.226  12.450   1.890
34389SOL    HW2 5065   6.347  12.441   1.800
34390SOL     OW 5066   3.760  11.094  14.427
34390SOL    HW1 5067   3.713  11.067  14.349
34390SOL    HW2 5068   3.832  11.148  14.394
34391SOL     OW 5069   8.544   2.755   3.164
34391SOL    HW1 5070   8.508   2.702   3.235
34391SOL    HW2 5071   8.546   2.695   3.089
34392SOL     OW 5072   4.147   3.665   7.059
34392SOL    HW1 5073   4.242   3.675   7.062
34392SOL    HW2 5074   4.124   3.686   6.968
34393SOL     OW 5075   1.629   0.470  11.681
34393SOL    HW1 5076   1.671   0.555  11.668
34393SOL    HW2 5077   1.605   0.442  11.592
34394SOL     OW 5078  12.538   7.252  10.553
34394SOL    HW1 5079  12.528   7.346  10.536
34394SOL    HW2 5080  12.501   7.210  10.476
34395SOL     OW 5081   8.153   2.394  14.663
34395SOL    HW1 5082   8.236   2.435  14.639
34395SOL    HW2 5083   8.159   2.305  14.629
34396SOL     OW 5084   6.627  14.558   5.026
34396SOL    HW1 5085   6.714  14.532   5.056
34396SOL    HW2 5086   6.625  14.653   5.038
34397SOL     OW 5087  10.350  12.883   6.388
34397SOL    HW1 5088  10.290  12.944   6.345
34397SOL    HW2 5089  10.294  12.828   6.443
34398SOL     OW 5090   1.353   1.356   2.290
34398SOL    HW1 5091   1.319   1.437   2.327
34398SOL    HW2 5092   1.312   1.350   2.204
34399SOL     OW 5093   6.794   0.246   0.395
34399SOL    HW1 5094   6.714   0.258   0.446
34399SOL    HW2 5095   6.772   0.278   0.307
34400SOL     OW 5096   7.197   0.825   5.968
34400SOL    HW1 5097   7.104   0.835   5.947
34400SOL    HW2 5098   7.204   0.843   6.061
34401SOL     OW 5099   4.734   9.787  14.105
34401SOL    HW1 5100   4.673   9.855  14.132
34401SOL    HW2 5101   4.818   9.832  14.096
34402SOL     OW 5102  12.291   8.437  12.501
34402SOL    HW1 5103  12.371   8.481  12.472
34402SOL    HW2 5104  12.272   8.476  12.586
34403SOL     OW 5105   3.733  14.704  13.708
34403SOL    HW1 5106   3.639  14.698  13.691
34403SOL    HW2 5107   3.773  14.702  13.621
34404SOL     OW 5108  13.710   1.344   1.866
34404SOL    HW1 5109  13.786   1.365   1.921
34404SOL    HW2 5110  13.637   1.337   1.927
34405SOL     OW 5111  13.757   1.530   9.891
34405SOL    HW1 5112  13.782   1.589   9.820
34405SOL    HW2 5113  13.809   1.559   9.965
34406SOL     OW 5114   9.176   1.388  10.431
34406SOL    HW1 5115   9.270   1.370  10.419
34406SOL    HW2 5116   9.155   1.453  10.365
34407SOL     OW 5117   9.016  14.539   0.923
34407SOL    HW1 5118   8.967  14.521   1.003
34407SOL    HW2 5119   9.052  14.455   0.896
34408SOL     OW 5120   9.459   2.163  12.421
34408SOL    HW1 5121   9.403   2.189  12.347
34408SOL    HW2 5122   9.487   2.074  12.400
34409SOL     OW 5123   3.610  14.786   8.450
34409SOL    HW1 5124   3.633  14.786   8.543
34409SOL    HW2 5125   3.694  14.789   8.404
34410SOL     OW 5126   0.427  12.084  13.022
34410SOL    HW1 5127   0.449  12.072  13.114
34410SOL    HW2 5128   0.433  12.178  13.008
34411SOL     OW 5129  13.312   9.344   7.906
34411SOL    HW1 5130  13.361   9.295   7.972
34411SOL    HW2 5131  13.351   9.432   7.906
34412SOL     OW 5132  11.848   6.176   7.917
34412SOL    HW1 5133  11.830   6.269   7.904
34412SOL    HW2 5134  11.872   6.145   7.830
34413SOL     OW 5135  11.910  13.189   0.252
34413SOL    HW1 5136  11.944  13.278   0.242
34413SOL    HW2 5137  11.824  13.199   0.291
34414SOL     OW 5138   6.026   9.250  10.075
34414SOL    HW1 5139   5.968   9.186  10.117
34414SOL    HW2 5140   5.977   9.332  10.078
34415SOL     OW 5141   5.779   3.454   9.261
34415SOL    HW1 5142   5.730   3.469   9.180
34415SOL    HW2 5143   5.838   3.529   9.267
34416SOL     OW 5144  14.459  13.569   9.720
34416SOL    HW1 5145  14.430  13.559   9.811
34416SOL    HW2 5146  14.551  13.594   9.727
34417SOL     OW 5147   4.953  13.449   4.075
34417SOL    HW1 5148   4.997  13.365   4.066
34417SOL    HW2 5149   4.939  13.458   4.170
34418SOL     OW 5150  10.752  14.621   5.667
34418SOL    HW1 5151  10.698  14.631   5.589
34418SOL    HW2 5152  10.690  14.615   5.739
34419SOL     OW 5153   2.454   5.146   3.582
34419SOL    HW1 5154   2.383   5.082   3.570
34419SOL    HW2 5155   2.534   5.096   3.565
34420SOL     OW 5156  10.725  10.118   1.955
34420SOL    HW1 5157  10.695  10.138   1.867
34420SOL    HW2 5158  10.723  10.202   2.001
34421SOL     OW 5159   0.230  12.093   3.867
34421SOL    HW1 5160   0.234  12.178   3.911
34421SOL    HW2 5161   0.152  12.098   3.811
34422SOL     OW 5162  13.121   8.311   8.401
34422SOL    HW1 5163  13.168   8.360   8.332
34422SOL    HW2 5164  13.125   8.368   8.477
34423SOL     OW 5165   6.590   4.974   6.294
34423SOL    HW1 5166   6.522   4.972   6.226
34423SOL    HW2 5167   6.667   5.008   6.249
34424SOL     OW 5168   1.592   5.822  11.353
34424SOL    HW1 5169   1.600   5.814  11.448
34424SOL    HW2 5170   1.508   5.780  11.333
34425SOL     OW 5171  12.665  11.275   1.727
34425SOL    HW1 5172  12.655  11.262   1.633
34425SOL    HW2 5173  12.629  11.362   1.744
34426SOL     OW 5174   2.908   0.899   5.534
34426SOL    HW1 5175   2.955   0.952   5.598
34426SOL    HW2 5176   2.968   0.827   5.513
34427SOL     OW 5177  10.634  14.161  14.275
34427SOL    HW1 5178  10.636  14.067  14.260
34427SOL    HW2 5179  10.720  14.191  14.248
34428SOL     OW 5180  12.374   6.188   2.935
34428SOL    HW1 5181  12.297   6.161   2.885
34428SOL    HW2 5182  12.421   6.106   2.951
34429SOL     OW 5183   1.694   4.899   7.170
34429SOL    HW1 5184   1.678   4.817   7.217
34429SOL    HW2 5185   1.611   4.947   7.176
34430SOL     OW 5186   1.328   5.437   2.002
34430SOL    HW1 5187   1.403   5.467   1.951
34430SOL    HW2 5188   1.361   5.429   2.092
34431SOL     OW 5189  13.893  10.262   2.815
34431SOL    HW1 5190  13.879  10.204   2.891
34431SOL    HW2 5191  13.908  10.348   2.854
34432SOL     OW 5192  10.046   4.843  13.296
34432SOL    HW1 5193  10.053   4.758  13.253
34432SOL    HW2 5194   9.956   4.847  13.326
34433SOL     OW 5195   7.751   0.882   2.469
34433SOL    HW1 5196   7.691   0.879   2.544
34433SOL    HW2 5197   7.704   0.835   2.400
34434SOL     OW 5198   8.795  10.997   9.122
34434SOL    HW1 5199   8.822  10.950   9.044
34434SOL    HW2 5200   8.747  11.073   9.090
34435SOL     OW 5201  13.303   3.315   1.004
34435SOL    HW1 5202  13.281   3.368   0.928
34435SOL    HW2 5203  13.396   3.332   1.020
34436SOL     OW 5204  14.412   1.553   6.601
34436SOL    HW1 5205  14.329   1.586   6.636
34436SOL    HW2 5206  14.473   1.627   6.611
34437SOL     OW 5207   0.144   3.255  11.048
34437SOL    HW1 5208   0.098   3.191  11.101
34437SOL    HW2 5209   0.195   3.306  11.111
34438SOL     OW 5210   1.319  10.309   3.524
34438SOL    HW1 5211   1.414  10.301   3.521
34438SOL    HW2 5212   1.300  10.348   3.609
34439SOL     OW 5213   7.679  12.913  14.159
34439SOL    HW1 5214   7.683  12.996  14.112
34439SOL    HW2 5215   7.594  12.876  14.134
34440SOL     OW 5216   2.626  13.542   6.762
34440SOL    HW1 5217   2.543  13.534   6.808
34440SOL    HW2 5218   2.625  13.630   6.726
34441SOL     OW 5219  13.018   6.022  10.411
34441SOL    HW1 5220  12.997   5.997  10.501
34441SOL    HW2 5221  12.961   5.967  10.357
34442SOL     OW 5222   0.891   7.004  11.075
34442SOL    HW1 5223   0.798   6.984  11.074
34442SOL    HW2 5224   0.923   6.967  11.157
34443SOL     OW 5225  14.263   1.527  13.555
34443SOL    HW1 5226  14.300   1.498  13.638
34443SOL    HW2 5227  14.337   1.564  13.507
34444SOL     OW 5228   4.125   5.602   6.202
34444SOL    HW1 5229   4.046   5.632   6.157
34444SOL    HW2 5230   4.192   5.667   6.179
34445SOL     OW 5231  11.170   1.211  11.564
34445SOL    HW1 5232  11.093   1.247  11.521
34445SOL    HW2 5233  11.231   1.194  11.492
34446SOL     OW 5234   6.146  11.854  10.090
34446SOL    HW1 5235   6.123  11.902  10.010
34446SOL    HW2 5236   6.066  11.808  10.114
34447SOL     OW 5237  12.008   4.127   4.677
34447SOL    HW1 5238  12.012   4.115   4.582
34447SOL    HW2 5239  12.090   4.172   4.699
34448SOL     OW 5240  11.189   1.770   7.940
34448SOL    HW1 5241  11.184   1.814   8.025
34448SOL    HW2 5242  11.149   1.684   7.955
34449SOL     OW 5243  13.480  12.196   6.519
34449SOL    HW1 5244  13.462  12.148   6.438
34449SOL    HW2 5245  13.457  12.134   6.589
34450SOL     OW 5246   7.760   2.074  10.070
34450SOL    HW1 5247   7.855   2.070  10.059
34450SOL    HW2 5248   7.728   2.113   9.988
34451SOL     OW 5249   4.837  12.800  11.610
34451SOL    HW1 5250   4.898  12.796  11.536
34451SOL    HW2 5251   4.892  12.823  11.685
34452SOL     OW 5252   3.753  13.686   9.459
34452SOL    HW1 5253   3.702  13.766   9.469
34452SOL    HW2 5254   3.841  13.710   9.487
34453SOL     OW 5255   4.713   4.854   7.258
34453SOL    HW1 5256   4.674   4.929   7.215
34453SOL    HW2 5257   4.801   4.847   7.221
34454SOL     OW 5258  12.486   7.479   1.835
34454SOL    HW1 5259  12.512   7.493   1.744
34454SOL    HW2 5260  12.400   7.437   1.829
34455SOL     OW 5261  10.862  10.331   0.504
34455SOL    HW1 5262  10.927  10.389   0.544
34455SOL    HW2 5263  10.912  10.255   0.475
34456SOL     OW 5264  13.190   1.845   7.900
34456SOL    HW1 5265  13.262   1.906   7.918
34456SOL    HW2 5266  13.183   1.844   7.804
34457SOL     OW 5267  11.861   3.024   9.897
34457SOL    HW1 5268  11.848   2.933   9.870
34457SOL    HW2 5269  11.880   3.071   9.815
34458SOL     OW 5270   1.439  10.385  14.819
34458SOL    HW1 5271   1.415  10.478  14.819
34458SOL    HW2 5272   1.453  10.364   0.041
34459SOL     OW 5273  13.948   5.064  11.193
34459SOL    HW1 5274  14.009   5.137  11.189
34459SOL    HW2 5275  13.959   5.019  11.109
34460SOL     OW 5276   1.403   7.077   2.151
34460SOL    HW1 5277   1.432   7.115   2.234
34460SOL    HW2 5278   1.395   7.152   2.091
34461SOL     OW 5279  11.602   0.084   1.689
34461SOL    HW1 5280  11.555   0.020   1.635
34461SOL    HW2 5281  11.647   0.032   1.755
34462SOL     OW 5282   1.365   6.359  14.598
34462SOL    HW1 5283   1.375   6.266  14.616
34462SOL    HW2 5284   1.273   6.378  14.616
34463SOL     OW 5285  10.049  13.317   3.661
34463SOL    HW1 5286  10.123  13.284   3.712
34463SOL    HW2 5287  10.076  13.406   3.636
34464SOL     OW 5288  10.893   6.833  12.689
34464SOL    HW1 5289  10.833   6.868  12.623
34464SOL    HW2 5290  10.946   6.908  12.715
34465SOL     OW 5291  13.546   2.626   7.857
34465SOL    HW1 5292  13.546   2.716   7.888
34465SOL    HW2 5293  13.463   2.615   7.812
34466SOL     OW 5294  11.328   6.415  10.444
34466SOL    HW1 5295  11.339   6.484  10.509
34466SOL    HW2 5296  11.234   6.415  10.425
34467SOL     OW 5297   8.331   6.090  14.758
34467SOL    HW1 5298   8.423   6.109  14.778
34467SOL    HW2 5299   8.305   6.158  14.696
34468SOL     OW 5300  13.266   7.492  11.181
34468SOL    HW1 5301  13.183   7.528  11.209
34468SOL    HW2 5302  13.299   7.554  11.115
34469SOL     OW 5303  14.784   7.190   6.023
34469SOL    HW1 5304  14.843   7.140   5.966
34469SOL    HW2 5305  14.841   7.227   6.090
34470SOL     OW 5306   8.213  11.462   2.619
34470SOL    HW1 5307   8.286  11.524   2.613
34470SOL    HW2 5308   8.213  11.434   2.711
34471SOL     OW 5309   3.255  14.238  13.497
34471SOL    HW1 5310   3.294  14.273  13.416
34471SOL    HW2 5311   3.227  14.149  13.473
34472SOL     OW 5312   5.581   5.984   5.657
34472SOL    HW1 5313   5.614   5.934   5.583
34472SOL    HW2 5314   5.510   6.037   5.621
34473SOL     OW 5315   3.928  13.784   3.422
34473SOL    HW1 5316   3.965  13.803   3.509
34473SOL    HW2 5317   4.003  13.777   3.364
34474SOL     OW 5318  10.582  12.213  10.038
34474SOL    HW1 5319  10.599  12.136   9.983
34474SOL    HW2 5320  10.605  12.288   9.982
34475SOL     OW 5321  10.319  11.343  13.914
34475SOL    HW1 5322  10.295  11.430  13.881
34475SOL    HW2 5323  10.408  11.329  13.882
34476SOL     OW 5324   9.401   9.743   4.250
34476SOL    HW1 5325   9.378   9.836   4.254
34476SOL    HW2 5326   9.390   9.719   4.158
34477SOL     OW 5327  14.450  14.442   4.583
34477SOL    HW1 5328  14.466  14.486   4.499
34477SOL    HW2 5329  14.365  14.399   4.572
34478SOL     OW 5330   1.867  13.958   2.629
34478SOL    HW1 5331   1.878  13.889   2.565
34478SOL    HW2 5332   1.853  13.912   2.712
34479SOL     OW 5333   5.834   2.151   4.223
34479SOL    HW1 5334   5.771   2.219   4.245
34479SOL    HW2 5335   5.884   2.137   4.304
34480SOL     OW 5336   2.474   1.984   1.620
34480SOL    HW1 5337   2.487   2.066   1.668
34480SOL    HW2 5338   2.426   1.928   1.680
34481SOL     OW 5339  10.995   0.932  14.388
34481SOL    HW1 5340  11.069   0.919  14.447
34481SOL    HW2 5341  11.016   0.878  14.311
34482SOL     OW 5342   4.045  12.699   6.961
34482SOL    HW1 5343   4.125  12.741   6.929
34482SOL    HW2 5344   4.008  12.657   6.884
34483SOL     OW 5345  12.357   3.852   8.790
34483SOL    HW1 5346  12.321   3.938   8.811
34483SOL    HW2 5347  12.430   3.841   8.850
34484SOL     OW 5348  13.057  14.536   7.307
34484SOL    HW1 5349  13.110  14.610   7.277
34484SOL    HW2 5350  12.979  14.538   7.251
34485SOL     OW 5351   6.381   4.890   1.673
34485SOL    HW1 5352   6.367   4.810   1.724
34485SOL    HW2 5353   6.347   4.869   1.586
34486SOL     OW 5354   5.285   9.027  14.530
34486SOL    HW1 5355   5.362   9.048  14.478
34486SOL    HW2 5356   5.214   9.077  14.490
34487SOL     OW 5357   2.655   4.290  11.097
34487SOL    HW1 5358   2.667   4.297  11.002
34487SOL    HW2 5359   2.737   4.323  11.135
34488SOL     OW 5360   7.450  14.691  10.956
34488SOL    HW1 5361   7.401  14.670  11.035
34488SOL    HW2 5362   7.495  14.610  10.933
34489SOL     OW 5363   3.916   3.733   4.105
34489SOL    HW1 5364   3.971   3.803   4.140
34489SOL    HW2 5365   3.950   3.719   4.016
34490SOL     OW 5366   6.558   3.747   8.259
34490SOL    HW1 5367   6.592   3.743   8.170
34490SOL    HW2 5368   6.635   3.766   8.313
34491SOL     OW 5369   8.570  10.903   7.431
34491SOL    HW1 5370   8.649  10.893   7.378
34491SOL    HW2 5371   8.602  10.908   7.521
34492SOL     OW 5372   0.914   0.208  11.986
34492SOL    HW1 5373   0.889   0.286  11.936
34492SOL    HW2 5374   1.008   0.201  11.973
34493SOL     OW 5375   2.348   1.241  14.535
34493SOL    HW1 5376   2.253   1.231  14.546
34493SOL    HW2 5377   2.357   1.296  14.457
34494SOL     OW 5378   5.367  14.203   1.302
34494SOL    HW1 5379   5.444  14.187   1.355
34494SOL    HW2 5380   5.399  14.200   1.211
34495SOL     OW 5381  12.904   8.285   3.023
34495SOL    HW1 5382  12.957   8.230   2.966
34495SOL    HW2 5383  12.841   8.327   2.965
34496SOL     OW 5384   8.645   9.576   1.767
34496SOL    HW1 5385   8.628   9.564   1.673
34496SOL    HW2 5386   8.620   9.493   1.807
34497SOL     OW 5387  14.678  14.232  11.296
34497SOL    HW1 5388  14.684  14.291  11.372
34497SOL    HW2 5389  14.628  14.282  11.231
34498SOL     OW 5390   6.973   6.181   3.355
34498SOL    HW1 5391   7.034   6.207   3.285
34498SOL    HW2 5392   6.890   6.166   3.310
34499SOL     OW 5393  10.944  13.043   2.300
34499SOL    HW1 5394  10.999  13.058   2.377
34499SOL    HW2 5395  10.966  13.115   2.240
34500SOL     OW 5396   4.263   3.249   1.080
34500SOL    HW1 5397   4.296   3.189   1.013
34500SOL    HW2 5398   4.234   3.326   1.031
34501SOL     OW 5399   5.674   0.138   4.527
34501SOL    HW1 5400   5.703   0.055   4.488
34501SOL    HW2 5401   5.748   0.165   4.582
34502SOL     OW 5402   6.094  13.072   6.534
34502SOL    HW1 5403   6.110  13.112   6.449
34502SOL    HW2 5404   6.062  13.145   6.589
34503SOL     OW 5405   6.879  11.924   4.434
34503SOL    HW1 5406   6.911  11.844   4.392
34503SOL    HW2 5407   6.830  11.969   4.365
34504SOL     OW 5408   7.070   3.727  12.019
34504SOL    HW1 5409   7.149   3.686  11.985
34504SOL    HW2 5410   7.056   3.685  12.104
34505SOL     OW 5411   1.984   2.682  11.260
34505SOL    HW1 5412   1.936   2.603  11.285
34505SOL    HW2 5413   1.951   2.703  11.173
34506SOL     OW 5414  12.734   6.116   8.337
34506SOL    HW1 5415  12.767   6.163   8.260
34506SOL    HW2 5416  12.644   6.147   8.347
34507SOL     OW 5417   7.637   0.464   5.543
34507SOL    HW1 5418   7.557   0.430   5.501
34507SOL    HW2 5419   7.618   0.556   5.558
34508SOL     OW 5420   2.951  13.475   3.758
34508SOL    HW1 5421   2.922  13.562   3.784
34508SOL    HW2 5422   2.944  13.474   3.663
34509SOL     OW 5423   8.700  13.946   0.745
34509SOL    HW1 5424   8.627  13.929   0.685
34509SOL    HW2 5425   8.673  13.905   0.827
34510SOL     OW 5426   1.952   9.576  13.018
34510SOL    HW1 5427   1.972   9.513  12.949
34510SOL    HW2 5428   2.023   9.640  13.014
34511SOL     OW 5429   4.376  12.084   3.868
34511SOL    HW1 5430   4.295  12.131   3.890
34511SOL    HW2 5431   4.361  11.995   3.900
34512SOL     OW 5432  10.501   1.280  11.382
34512SOL    HW1 5433  10.470   1.325  11.461
34512SOL    HW2 5434  10.473   1.336  11.310
34513SOL     OW 5435   8.178  14.861   8.283
34513SOL    HW1 5436   8.180  14.767   8.268
34513SOL    HW2 5437   8.268   0.015   8.304
34514SOL     OW 5438   9.288   3.456   7.912
34514SOL    HW1 5439   9.324   3.485   7.996
34514SOL    HW2 5440   9.366   3.435   7.860
34515SOL     OW 5441   0.336   9.249   2.930
34515SOL    HW1 5442   0.380   9.278   3.010
34515SOL    HW2 5443   0.397   9.271   2.860
34516SOL     OW 5444   7.801   4.914   0.923
34516SOL    HW1 5445   7.866   4.951   0.863
34516SOL    HW2 5446   7.829   4.942   1.010
34517SOL     OW 5447   8.355   2.528  10.334
34517SOL    HW1 5448   8.372   2.563  10.246
34517SOL    HW2 5449   8.433   2.550  10.384
34518SOL     OW 5450  11.473   8.285   8.772
34518SOL    HW1 5451  11.478   8.282   8.868
34518SOL    HW2 5452  11.381   8.267   8.752
34519SOL     OW 5453   7.632  14.011   2.373
34519SOL    HW1 5454   7.597  13.932   2.414
34519SOL    HW2 5455   7.673  14.059   2.445
34520SOL     OW 5456   7.450   4.368   5.281
34520SOL    HW1 5457   7.536   4.363   5.239
34520SOL    HW2 5458   7.456   4.447   5.336
34521SOL     OW 5459  14.346   4.749   4.033
34521SOL    HW1 5460  14.283   4.776   3.967
34521SOL    HW2 5461  14.346   4.653   4.028
34522SOL     OW 5462   4.230   3.127   2.066
34522SOL    HW1 5463   4.307   3.074   2.086
34522SOL    HW2 5464   4.224   3.189   2.138
34523SOL     OW 5465   9.396   1.585  14.098
34523SOL    HW1 5466   9.357   1.546  14.020
34523SOL    HW2 5467   9.460   1.648  14.065
34524SOL     OW 5468  14.422   3.075   3.496
34524SOL    HW1 5469  14.437   3.147   3.558
34524SOL    HW2 5470  14.332   3.048   3.512
34525SOL     OW 5471  10.872   1.692  12.325
34525SOL    HW1 5472  10.780   1.667  12.338
34525SOL    HW2 5473  10.881   1.775  12.371
34526SOL     OW 5474   5.931   6.503   0.188
34526SOL    HW1 5475   5.846   6.508   0.232
34526SOL    HW2 5476   5.916   6.446   0.112
34527SOL     OW 5477   5.403   1.357  10.379
34527SOL    HW1 5478   5.408   1.306  10.460
34527SOL    HW2 5479   5.484   1.335  10.333
34528SOL     OW 5480   2.870   4.828   2.306
34528SOL    HW1 5481   2.929   4.809   2.379
34528SOL    HW2 5482   2.782   4.812   2.341
34529SOL     OW 5483   6.787   7.944  10.413
34529SOL    HW1 5484   6.839   7.974  10.488
34529SOL    HW2 5485   6.836   7.975  10.337
34530SOL     OW 5486   8.031   2.640  13.764
34530SOL    HW1 5487   8.041   2.734  13.776
34530SOL    HW2 5488   8.117   2.603  13.782
34531SOL     OW 5489   7.700   5.082  10.757
34531SOL    HW1 5490   7.725   4.996  10.722
34531SOL    HW2 5491   7.778   5.136  10.745
34532SOL     OW 5492   6.541   8.710   2.607
34532SOL    HW1 5493   6.606   8.760   2.657
34532SOL    HW2 5494   6.566   8.725   2.515
34533SOL     OW 5495   8.341  10.828  12.258
34533SOL    HW1 5496   8.414  10.888  12.268
34533SOL    HW2 5497   8.330  10.789  12.345
34534SOL     OW 5498   9.760   5.010   0.952
34534SOL    HW1 5499   9.735   5.060   0.875
34534SOL    HW2 5500   9.700   5.040   1.020
34535SOL     OW 5501   4.119  11.179  12.147
34535SOL    HW1 5502   4.173  11.209  12.220
34535SOL    HW2 5503   4.121  11.084  12.153
34536SOL     OW 5504  13.286   3.123   8.683
34536SOL    HW1 5505  13.313   3.099   8.594
34536SOL    HW2 5506  13.199   3.084   8.693
34537SOL     OW 5507   8.206   3.902  10.750
34537SOL    HW1 5508   8.288   3.948  10.729
34537SOL    HW2 5509   8.182   3.934  10.837
34538SOL     OW 5510  11.904   9.233   2.962
34538SOL    HW1 5511  11.862   9.297   3.020
34538SOL    HW2 5512  11.872   9.148   2.993
34539SOL     OW 5513   7.820   4.833   4.358
34539SOL    HW1 5514   7.752   4.768   4.372
34539SOL    HW2 5515   7.837   4.830   4.264
34540SOL     OW 5516   3.441   4.622   5.325
34540SOL    HW1 5517   3.511   4.626   5.260
34540SOL    HW2 5518   3.415   4.713   5.338
34541SOL     OW 5519  13.009  12.765   3.830
34541SOL    HW1 5520  13.011  12.796   3.740
34541SOL    HW2 5521  12.929  12.803   3.867
34542SOL     OW 5522  10.418   2.617   8.226
34542SOL    HW1 5523  10.336   2.653   8.192
34542SOL    HW2 5524  10.393   2.534   8.265
34543SOL     OW 5525  12.510   1.701   7.808
34543SOL    HW1 5526  12.458   1.717   7.730
34543SOL    HW2 5527  12.563   1.780   7.818
34544SOL     OW 5528  13.286   3.889  11.798
34544SOL    HW1 5529  13.338   3.969  11.806
34544SOL    HW2 5530  13.318   3.832  11.868
34545SOL     OW 5531  12.862   1.185   9.113
34545SOL    HW1 5532  12.906   1.157   9.193
34545SOL    HW2 5533  12.933   1.203   9.051
34546SOL     OW 5534  10.070  14.545   0.356
34546SOL    HW1 5535  10.079  14.588   0.441
34546SOL    HW2 5536  10.074  14.451   0.376
34547SOL     OW 5537  13.811   3.514   8.218
34547SOL    HW1 5538  13.764   3.559   8.148
34547SOL    HW2 5539  13.820   3.424   8.187
34548SOL     OW 5540   2.577  11.978   1.595
34548SOL    HW1 5541   2.578  11.988   1.500
34548SOL    HW2 5542   2.522  11.902   1.610
34549SOL     OW 5543   0.221   6.573   2.011
34549SOL    HW1 5544   0.171   6.553   1.932
34549SOL    HW2 5545   0.175   6.647   2.051
34550SOL     OW 5546   5.270  13.697  10.915
34550SOL    HW1 5547   5.197  13.660  10.964
34550SOL    HW2 5548   5.341  13.633  10.924
34551SOL     OW 5549   6.664   2.769   4.490
34551SOL    HW1 5550   6.583   2.720   4.493
34551SOL    HW2 5551   6.690   2.779   4.582
34552SOL     OW 5552   5.279   9.714   5.558
34552SOL    HW1 5553   5.315   9.626   5.549
34552SOL    HW2 5554   5.348   9.764   5.601
34553SOL     OW 5555   1.182   6.852  10.611
34553SOL    HW1 5556   1.095   6.873  10.646
34553SOL    HW2 5557   1.191   6.909  10.534
34554SOL     OW 5558   1.968   6.058   8.734
34554SOL    HW1 5559   2.041   6.100   8.779
34554SOL    HW2 5560   2.007   5.983   8.690
34555SOL     OW 5561  11.505  12.884  14.869
34555SOL    HW1 5562  11.494  12.896  14.775
34555SOL    HW2 5563  11.418  12.859   0.031
34556SOL     OW 5564   4.911  13.543   5.657
34556SOL    HW1 5565   4.876  13.627   5.687
34556SOL    HW2 5566   4.863  13.478   5.707
34557SOL     OW 5567   7.599   7.134   0.883
34557SOL    HW1 5568   7.608   7.087   0.966
34557SOL    HW2 5569   7.569   7.069   0.821
34558SOL     OW 5570   2.395  12.896   5.057
34558SOL    HW1 5571   2.415  12.989   5.068
34558SOL    HW2 5572   2.480  12.854   5.044
34559SOL     OW 5573   1.657   1.174   3.191
34559SOL    HW1 5574   1.637   1.126   3.110
34559SOL    HW2 5575   1.575   1.176   3.239
34560SOL     OW 5576   1.039   1.881   4.133
34560SOL    HW1 5577   1.024   1.972   4.109
34560SOL    HW2 5578   1.121   1.883   4.183
34561SOL     OW 5579   0.077   1.065   6.520
34561SOL    HW1 5580   0.148   1.023   6.472
34561SOL    HW2 5581   0.083   1.158   6.497
34562SOL     OW 5582   1.797   9.310   6.084
34562SOL    HW1 5583   1.772   9.399   6.060
34562SOL    HW2 5584   1.850   9.320   6.163
34563SOL     OW 5585   0.315   3.282   7.315
34563SOL    HW1 5586   0.294   3.203   7.364
34563SOL    HW2 5587   0.405   3.269   7.285
34564SOL     OW 5588   6.964  12.396  13.293
34564SOL    HW1 5589   6.909  12.458  13.340
34564SOL    HW2 5590   7.033  12.373  13.355
34565SOL     OW 5591   8.746  13.247   7.690
34565SOL    HW1 5592   8.665  13.249   7.741
34565SOL    HW2 5593   8.773  13.339   7.685
34566SOL     OW 5594   3.269   1.944   7.731
34566SOL    HW1 5595   3.289   1.986   7.647
34566SOL    HW2 5596   3.348   1.894   7.751
34567SOL     OW 5597   7.340   9.691   2.385
34567SOL    HW1 5598   7.349   9.625   2.317
34567SOL    HW2 5599   7.426   9.732   2.391
34568SOL     OW 5600   4.147  11.208   0.041
34568SOL    HW1 5601   4.187  11.160   0.113
34568SOL    HW2 5602   4.126  11.141  14.845
34569SOL     OW 5603   9.396   8.829   2.184
34569SOL    HW1 5604   9.469   8.793   2.133
34569SOL    HW2 5605   9.324   8.768   2.170
34570SOL     OW 5606   0.808   8.590   7.709
34570SOL    HW1 5607   0.789   8.682   7.687
34570SOL    HW2 5608   0.894   8.574   7.670
34571SOL     OW 5609   1.898   0.051   5.866
34571SOL    HW1 5610   1.903   0.144   5.887
34571SOL    HW2 5611   1.855   0.048   5.780
34572SOL     OW 5612   1.694   8.716   8.854
34572SOL    HW1 5613   1.620   8.689   8.800
34572SOL    HW2 5614   1.729   8.793   8.809
34573SOL     OW 5615   4.767  14.579   6.108
34573SOL    HW1 5616   4.789  14.502   6.160
34573SOL    HW2 5617   4.846  14.599   6.059
34574SOL     OW 5618   5.788  14.720   9.694
34574SOL    HW1 5619   5.881  14.729   9.715
34574SOL    HW2 5620   5.755  14.656   9.756
34575SOL     OW 5621   8.766   4.725   4.371
34575SOL    HW1 5622   8.721   4.679   4.441
34575SOL    HW2 5623   8.831   4.662   4.338
34576SOL     OW 5624   8.792   5.815   7.060
34576SOL    HW1 5625   8.733   5.881   7.023
34576SOL    HW2 5626   8.860   5.866   7.105
34577SOL     OW 5627   7.236   5.303   2.800
34577SOL    HW1 5628   7.319   5.263   2.776
34577SOL    HW2 5629   7.243   5.394   2.771
34578SOL     OW 5630  12.060  11.081   6.177
34578SOL    HW1 5631  12.117  11.147   6.217
34578SOL    HW2 5632  12.029  11.121   6.096
34579SOL     OW 5633   2.619   6.069  11.359
34579SOL    HW1 5634   2.704   6.026  11.367
34579SOL    HW2 5635   2.593   6.052  11.268
34580SOL     OW 5636   8.642   0.857  14.071
34580SOL    HW1 5637   8.583   0.932  14.075
34580SOL    HW2 5638   8.720   0.886  14.118
34581SOL     OW 5639   7.341  12.719  11.691
34581SOL    HW1 5640   7.430  12.710  11.725
34581SOL    HW2 5641   7.312  12.629  11.676
34582SOL     OW 5642   2.630   8.382   5.316
34582SOL    HW1 5643   2.605   8.466   5.279
34582SOL    HW2 5644   2.652   8.328   5.240
34583SOL     OW 5645   9.986   0.446   8.261
34583SOL    HW1 5646  10.044   0.473   8.189
34583SOL    HW2 5647   9.961   0.528   8.304
34584SOL     OW 5648  12.272  11.389  14.307
34584SOL    HW1 5649  12.289  11.404  14.400
34584SOL    HW2 5650  12.183  11.421  14.293
34585SOL     OW 5651  12.913   8.784  13.277
34585SOL    HW1 5652  12.823   8.768  13.305
34585SOL    HW2 5653  12.960   8.803  13.359
34586SOL     OW 5654   4.915   5.069  10.349
34586SOL    HW1 5655   4.927   5.031  10.262
34586SOL    HW2 5656   5.001   5.062  10.390
34587SOL     OW 5657   6.306  13.276   3.569
34587SOL    HW1 5658   6.223  13.228   3.568
34587SOL    HW2 5659   6.295  13.343   3.501
34588SOL     OW 5660   0.162  13.374   8.519
34588SOL    HW1 5661   0.138  13.394   8.428
34588SOL    HW2 5662   0.232  13.437   8.539
34589SOL     OW 5663  14.789   6.324   2.022
34589SOL    HW1 5664  14.737   6.311   1.943
34589SOL    HW2 5665  14.776   6.244   2.073
34590SOL     OW 5666   5.299   5.459   4.485
34590SOL    HW1 5667   5.370   5.492   4.428
34590SOL    HW2 5668   5.340   5.451   4.571
34591SOL     OW 5669  10.169  11.570  12.545
34591SOL    HW1 5670  10.215  11.645  12.508
34591SOL    HW2 5671  10.085  11.607  12.574
34592SOL     OW 5672   5.622   3.888  11.573
34592SOL    HW1 5673   5.568   3.949  11.623
34592SOL    HW2 5674   5.574   3.805  11.576
34593SOL     OW 5675   1.061   5.260  12.057
34593SOL    HW1 5676   1.095   5.186  12.006
34593SOL    HW2 5677   1.016   5.219  12.131
34594SOL     OW 5678   5.761   8.500   9.829
34594SOL    HW1 5679   5.685   8.449   9.803
34594SOL    HW2 5680   5.812   8.510   9.749
34595SOL     OW 5681   1.700   5.776   3.554
34595SOL    HW1 5682   1.771   5.832   3.523
34595SOL    HW2 5683   1.632   5.784   3.487
34596SOL     OW 5684   6.873   6.785  10.056
34596SOL    HW1 5685   6.911   6.861  10.100
34596SOL    HW2 5686   6.833   6.821   9.977
34597SOL     OW 5687   2.650   0.591   6.919
34597SOL    HW1 5688   2.722   0.555   6.867
34597SOL    HW2 5689   2.671   0.685   6.927
34598SOL     OW 5690   5.781   2.475   7.220
34598SOL    HW1 5691   5.706   2.484   7.280
34598SOL    HW2 5692   5.793   2.563   7.184
34599SOL     OW 5693  13.059  12.418  14.318
34599SOL    HW1 5694  12.988  12.428  14.255
34599SOL    HW2 5695  13.049  12.491  14.378
34600SOL     OW 5696   1.376   5.418   8.355
34600SOL    HW1 5697   1.317   5.449   8.424
34600SOL    HW2 5698   1.460   5.406   8.400
34601SOL     OW 5699   9.338   4.025   0.756
34601SOL    HW1 5700   9.248   4.038   0.788
34601SOL    HW2 5701   9.337   3.939   0.716
34602SOL     OW 5702  11.297  12.348   1.211
34602SOL    HW1 5703  11.257  12.349   1.125
34602SOL    HW2 5704  11.390  12.367   1.196
34603SOL     OW 5705   4.260   4.872   2.830
34603SOL    HW1 5706   4.339   4.821   2.843
34603SOL    HW2 5707   4.254   4.883   2.735
34604SOL     OW 5708   1.018   8.284   7.864
34604SOL    HW1 5709   0.947   8.265   7.926
34604SOL    HW2 5710   1.034   8.378   7.874
34605SOL     OW 5711   9.297   6.575  13.175
34605SOL    HW1 5712   9.381   6.570  13.131
34605SOL    HW2 5713   9.271   6.483  13.188
34606SOL     OW 5714   4.035  13.969   8.213
34606SOL    HW1 5715   4.077  13.895   8.170
34606SOL    HW2 5716   4.071  13.970   8.302
34607SOL     OW 5717   5.776  10.687   7.848
34607SOL    HW1 5718   5.705  10.625   7.865
34607SOL    HW2 5719   5.819  10.699   7.933
34608SOL     OW 5720  10.003   9.883   8.573
34608SOL    HW1 5721   9.998   9.978   8.584
34608SOL    HW2 5722   9.989   9.869   8.480
34609SOL     OW 5723   2.133   3.523   9.273
34609SOL    HW1 5724   2.189   3.465   9.222
34609SOL    HW2 5725   2.048   3.479   9.276
34610SOL     OW 5726   1.813   2.871   4.270
34610SOL    HW1 5727   1.801   2.850   4.363
34610SOL    HW2 5728   1.907   2.863   4.256
34611SOL     OW 5729   7.389  11.008  10.783
34611SOL    HW1 5730   7.399  11.058  10.702
34611SOL    HW2 5731   7.455  10.939  10.777
34612SOL     OW 5732   9.212   1.548   4.163
34612SOL    HW1 5733   9.222   1.461   4.123
34612SOL    HW2 5734   9.288   1.558   4.219
34613SOL     OW 5735  11.423   7.470   0.205
34613SOL    HW1 5736  11.352   7.461   0.268
34613SOL    HW2 5737  11.501   7.487   0.259
34614SOL     OW 5738  11.887  10.248   0.006
34614SOL    HW1 5739  11.894  10.157   0.035
34614SOL    HW2 5740  11.795  10.270   0.020
34615SOL     OW 5741   3.066  13.716   8.741
34615SOL    HW1 5742   3.051  13.624   8.763
34615SOL    HW2 5743   3.000  13.736   8.675
34616SOL     OW 5744  11.204  11.980  10.185
34616SOL    HW1 5745  11.141  12.036  10.140
34616SOL    HW2 5746  11.236  12.033  10.258
34617SOL     OW 5747   9.931   0.659   2.165
34617SOL    HW1 5748   9.929   0.697   2.077
34617SOL    HW2 5749   9.990   0.716   2.214
34618SOL     OW 5750   4.468   8.882   9.101
34618SOL    HW1 5751   4.474   8.855   9.009
34618SOL    HW2 5752   4.425   8.967   9.099
34619SOL     OW 5753   1.736  10.824  12.936
34619SOL    HW1 5754   1.759  10.873  12.857
34619SOL    HW2 5755   1.808  10.841  12.997
34620SOL     OW 5756  12.452   4.914  13.548
34620SOL    HW1 5757  12.369   4.865  13.545
34620SOL    HW2 5758  12.520   4.847  13.546
34621SOL     OW 5759   3.241   3.701   8.608
34621SOL    HW1 5760   3.228   3.751   8.528
34621SOL    HW2 5761   3.152   3.689   8.643
34622SOL     OW 5762  13.900   6.569   0.065
34622SOL    HW1 5763  13.843   6.514   0.120
34622SOL    HW2 5764  13.974   6.590   0.122
34623SOL     OW 5765   1.653   7.146   0.221
34623SOL    HW1 5766   1.594   7.074   0.244
34623SOL    HW2 5767   1.639   7.159   0.127
34624SOL     OW 5768   8.056   7.490  11.583
34624SOL    HW1 5769   8.085   7.434  11.511
34624SOL    HW2 5770   8.132   7.495  11.642
34625SOL     OW 5771   5.673   9.564   3.250
34625SOL    HW1 5772   5.734   9.538   3.319
34625SOL    HW2 5773   5.699   9.653   3.227
34626SOL     OW 5774  11.958   6.337   5.206
34626SOL    HW1 5775  11.954   6.413   5.263
34626SOL    HW2 5776  11.878   6.288   5.226
34627SOL     OW 5777   4.835   2.769  14.738
34627SOL    HW1 5778   4.814   2.863  14.744
34627SOL    HW2 5779   4.927   2.767  14.712
34628SOL     OW 5780   0.519   7.913  12.057
34628SOL    HW1 5781   0.548   7.878  12.141
34628SOL    HW2 5782   0.598   7.952  12.019
34629SOL     OW 5783  10.979   9.141   3.137
34629SOL    HW1 5784  10.971   9.132   3.043
34629SOL    HW2 5785  11.071   9.124   3.156
34630SOL     OW 5786   5.865  13.022   3.126
34630SOL    HW1 5787   5.830  12.984   3.046
34630SOL    HW2 5788   5.788  13.040   3.180
34631SOL     OW 5789  11.450   3.422   2.290
34631SOL    HW1 5790  11.521   3.385   2.239
34631SOL    HW2 5791  11.437   3.360   2.362
34632SOL     OW 5792   8.970  14.181   8.540
34632SOL    HW1 5793   9.065  14.189   8.549
34632SOL    HW2 5794   8.953  14.089   8.560
34633SOL     OW 5795   7.371   6.054  10.994
34633SOL    HW1 5796   7.323   6.114  11.051
34633SOL    HW2 5797   7.424   6.110  10.938
34634SOL     OW 5798   9.683   5.030   3.108
34634SOL    HW1 5799   9.624   5.029   3.184
34634SOL    HW2 5800   9.627   5.059   3.035
34635SOL     OW 5801   4.208   0.239   5.192
34635SOL    HW1 5802   4.205   0.327   5.156
34635SOL    HW2 5803   4.151   0.188   5.134
34636SOL     OW 5804   9.354  11.102  10.511
34636SOL    HW1 5805   9.277  11.094  10.454
34636SOL    HW2 5806   9.322  11.080  10.598
34637SOL     OW 5807   1.793   1.780   8.876
34637SOL    HW1 5808   1.818   1.743   8.961
34637SOL    HW2 5809   1.842   1.729   8.812
34638SOL     OW 5810   4.414  14.183  14.753
34638SOL    HW1 5811   4.345  14.116  14.752
34638SOL    HW2 5812   4.433  14.195  14.846
34639SOL     OW 5813   3.110  10.073   4.039
34639SOL    HW1 5814   3.173  10.135   4.076
34639SOL    HW2 5815   3.156  10.033   3.965
34640SOL     OW 5816  11.722   7.281   2.489
34640SOL    HW1 5817  11.800   7.226   2.492
34640SOL    HW2 5818  11.680   7.268   2.575
34641SOL     OW 5819   2.016   6.875   6.897
34641SOL    HW1 5820   1.961   6.894   6.822
34641SOL    HW2 5821   1.975   6.920   6.970
34642SOL     OW 5822  13.201  10.913   1.706
34642SOL    HW1 5823  13.169  10.840   1.653
34642SOL    HW2 5824  13.154  10.989   1.672
34643SOL     OW 5825   9.721   1.671   3.918
34643SOL    HW1 5826   9.777   1.662   3.841
34643SOL    HW2 5827   9.724   1.764   3.939
34644SOL     OW 5828  10.701   3.200   1.385
34644SOL    HW1 5829  10.618   3.222   1.427
34644SOL    HW2 5830  10.766   3.212   1.454
34645SOL     OW 5831   7.364   0.948   0.865
34645SOL    HW1 5832   7.422   0.921   0.795
34645SOL    HW2 5833   7.366   0.876   0.928
34646SOL     OW 5834   7.208   9.793   5.977
34646SOL    HW1 5835   7.299   9.802   6.005
34646SOL    HW2 5836   7.198   9.856   5.906
34647SOL     OW 5837   7.271   6.668   8.202
34647SOL    HW1 5838   7.257   6.574   8.193
34647SOL    HW2 5839   7.267   6.701   8.112
34648SOL     OW 5840   7.139   6.718   4.437
34648SOL    HW1 5841   7.143   6.802   4.483
34648SOL    HW2 5842   7.118   6.741   4.347
34649SOL     OW 5843   3.894  14.576   5.351
34649SOL    HW1 5844   3.919  14.582   5.259
34649SOL    HW2 5845   3.875  14.666   5.377
34650SOL     OW 5846   3.071   7.979  13.993
34650SOL    HW1 5847   3.152   7.943  14.029
34650SOL    HW2 5848   3.024   8.013  14.070
34651SOL     OW 5849   2.291  12.530   0.074
34651SOL    HW1 5850   2.318  12.622   0.064
34651SOL    HW2 5851   2.353  12.481   0.021
34652SOL     OW 5852  12.654   6.311   1.206
34652SOL    HW1 5853  12.700   6.363   1.140
34652SOL    HW2 5854  12.721   6.251   1.240
34653SOL     OW 5855   4.870   1.489  14.638
34653SOL    HW1 5856   4.960   1.517  14.650
34653SOL    HW2 5857   4.876   1.409  14.585
34654SOL     OW 5858   8.978   8.620   0.882
34654SOL    HW1 5859   8.937   8.540   0.850
34654SOL    HW2 5860   9.067   8.617   0.846
34655SOL     OW 5861   7.244   5.504   7.924
34655SOL    HW1 5862   7.281   5.568   7.863
34655SOL    HW2 5863   7.224   5.555   8.003
34656SOL     OW 5864  10.085   9.533   1.072
34656SOL    HW1 5865  10.048   9.611   1.031
34656SOL    HW2 5866  10.048   9.460   1.022
34657SOL     OW 5867   3.800   8.998   0.666
34657SOL    HW1 5868   3.797   8.905   0.688
34657SOL    HW2 5869   3.818   9.000   0.572
34658SOL     OW 5870   2.280   9.870   4.725
34658SOL    HW1 5871   2.197   9.834   4.758
34658SOL    HW2 5872   2.292   9.829   4.640
34659SOL     OW 5873   5.882   4.983   0.350
34659SOL    HW1 5874   5.905   4.908   0.406
34659SOL    HW2 5875   5.933   4.970   0.270
34660SOL     OW 5876   5.135   1.101  11.458
34660SOL    HW1 5877   5.101   1.147  11.382
34660SOL    HW2 5878   5.091   1.140  11.533
34661SOL     OW 5879   8.643   5.621   6.187
34661SOL    HW1 5880   8.644   5.607   6.092
34661SOL    HW2 5881   8.563   5.670   6.204
34662SOL     OW 5882  10.805  13.733  12.993
34662SOL    HW1 5883  10.807  13.644  13.029
34662SOL    HW2 5884  10.888  13.772  13.022
34663SOL     OW 5885   5.896  14.397   8.801
34663SOL    HW1 5886   5.811  14.374   8.837
34663SOL    HW2 5887   5.952  14.408   8.878
34664SOL     OW 5888   9.881  12.068  13.637
34664SOL    HW1 5889   9.845  12.143  13.589
34664SOL    HW2 5890   9.899  12.003  13.569
34665SOL     OW 5891  13.105   3.189   7.252
34665SOL    HW1 5892  13.021   3.170   7.294
34665SOL    HW2 5893  13.083   3.241   7.175
34666SOL     OW 5894   0.394  13.169  14.854
34666SOL    HW1 5895   0.351  13.118   0.052
34666SOL    HW2 5896   0.485  13.141  14.856
34667SOL     OW 5897   2.343   2.215  10.471
34667SOL    HW1 5898   2.258   2.193  10.433
34667SOL    HW2 5899   2.383   2.131  10.492
34668SOL     OW 5900  12.241   0.792   8.685
34668SOL    HW1 5901  12.237   0.887   8.693
34668SOL    HW2 5902  12.254   0.761   8.775
34669SOL     OW 5903   4.739   4.141  10.557
34669SOL    HW1 5904   4.770   4.159  10.468
34669SOL    HW2 5905   4.750   4.046  10.567
34670SOL     OW 5906   0.301   8.810   7.462
34670SOL    HW1 5907   0.236   8.775   7.402
34670SOL    HW2 5908   0.378   8.826   7.408
34671SOL     OW 5909   3.066  14.145   8.357
34671SOL    HW1 5910   3.021  14.132   8.440
34671SOL    HW2 5911   3.056  14.062   8.311
34672SOL     OW 5912   8.851   9.587  10.223
34672SOL    HW1 5913   8.832   9.553  10.311
34672SOL    HW2 5914   8.826   9.679  10.227
34673SOL     OW 5915  10.530  12.117   5.117
34673SOL    HW1 5916  10.535  12.086   5.027
34673SOL    HW2 5917  10.438  12.105   5.141
34674SOL     OW 5918  11.637  13.270   8.260
34674SOL    HW1 5919  11.575  13.226   8.318
34674SOL    HW2 5920  11.583  13.312   8.194
34675SOL     OW 5921  11.501  12.512   7.936
34675SOL    HW1 5922  11.546  12.431   7.912
34675SOL    HW2 5923  11.468  12.496   8.024
34676SOL     OW 5924  12.056   1.041   3.491
34676SOL    HW1 5925  12.033   0.991   3.413
34676SOL    HW2 5926  12.087   1.125   3.458
34677SOL     OW 5927   3.151   8.904  11.915
34677SOL    HW1 5928   3.084   8.846  11.879
34677SOL    HW2 5929   3.156   8.881  12.008
34678SOL     OW 5930   4.792  12.107  14.835
34678SOL    HW1 5931   4.782  12.043   0.037
34678SOL    HW2 5932   4.840  12.060  14.767
34679SOL     OW 5933   6.687   3.010   7.436
34679SOL    HW1 5934   6.655   2.922   7.414
34679SOL    HW2 5935   6.777   2.996   7.463
34680SOL     OW 5936  13.316   8.961   5.064
34680SOL    HW1 5937  13.344   9.041   5.109
34680SOL    HW2 5938  13.251   8.991   5.000
34681SOL     OW 5939   3.568   8.457   6.954
34681SOL    HW1 5940   3.568   8.533   6.895
34681SOL    HW2 5941   3.485   8.414   6.938
34682SOL     OW 5942  14.698  10.014  14.664
34682SOL    HW1 5943  14.638  10.055  14.602
34682SOL    HW2 5944  14.785  10.028  14.626
34683SOL     OW 5945   1.686   2.897   7.549
34683SOL    HW1 5946   1.623   2.829   7.573
34683SOL    HW2 5947   1.732   2.917   7.631
34684SOL     OW 5948   4.352   3.689   3.628
34684SOL    HW1 5949   4.367   3.637   3.707
34684SOL    HW2 5950   4.410   3.651   3.562
34685SOL     OW 5951  14.627   1.536   7.238
34685SOL    HW1 5952  14.570   1.478   7.289
34685SOL    HW2 5953  14.697   1.478   7.207
34686SOL     OW 5954   5.612   5.624  14.276
34686SOL    HW1 5955   5.528   5.613  14.232
34686SOL    HW2 5956   5.677   5.616  14.206
34687SOL     OW 5957   6.977   6.882   7.499
34687SOL    HW1 5958   6.901   6.839   7.461
34687SOL    HW2 5959   6.995   6.955   7.440
34688SOL     OW 5960   5.239   3.719   3.315
34688SOL    HW1 5961   5.253   3.804   3.358
34688SOL    HW2 5962   5.307   3.715   3.248
34689SOL     OW 5963  10.382   2.746   8.922
34689SOL    HW1 5964  10.298   2.773   8.960
34689SOL    HW2 5965  10.395   2.657   8.953
34690SOL     OW 5966   2.926  12.764   3.858
34690SOL    HW1 5967   2.997  12.827   3.857
34690SOL    HW2 5968   2.932  12.721   3.943
34691SOL     OW 5969   9.110   0.158   2.322
34691SOL    HW1 5970   9.034   0.121   2.276
34691SOL    HW2 5971   9.161   0.082   2.350
34692SOL     OW 5972   7.747  11.445   3.483
34692SOL    HW1 5973   7.720  11.378   3.420
34692SOL    HW2 5974   7.770  11.396   3.562
34693SOL     OW 5975   5.120   3.452   8.148
34693SOL    HW1 5976   5.195   3.498   8.186
34693SOL    HW2 5977   5.159   3.390   8.086
34694SOL     OW 5978  12.539   8.537  14.238
34694SOL    HW1 5979  12.581   8.492  14.312
34694SOL    HW2 5980  12.479   8.472  14.202
34695SOL     OW 5981  13.650   9.930   4.428
34695SOL    HW1 5982  13.615   9.925   4.517
34695SOL    HW2 5983  13.732   9.979   4.437
34696SOL     OW 5984  12.668   3.763   5.756
34696SOL    HW1 5985  12.596   3.824   5.739
34696SOL    HW2 5986  12.626   3.688   5.799
34697SOL     OW 5987   6.634   0.233   1.499
34697SOL    HW1 5988   6.618   0.327   1.511
34697SOL    HW2 5989   6.550   0.199   1.465
34698SOL     OW 5990  14.503  12.921   3.733
34698SOL    HW1 5991  14.564  12.897   3.664
34698SOL    HW2 5992  14.450  12.843   3.747
34699SOL     OW 5993  11.565  10.595   2.612
34699SOL    HW1 5994  11.551  10.505   2.640
34699SOL    HW2 5995  11.478  10.628   2.592
34700SOL     OW 5996   6.339  11.891   9.496
34700SOL    HW1 5997   6.245  11.896   9.480
34700SOL    HW2 5998   6.355  11.960   9.561
34701SOL     OW 5999   3.616   1.817  14.354
34701SOL    HW1 6000   3.630   1.726  14.328
34701SOL    HW2 6001   3.520   1.828  14.353
34702SOL     OW 6002   7.980   9.984   6.744
34702SOL    HW1 6003   7.900  10.034   6.730
34702SOL    HW2 6004   7.976   9.913   6.680
34703SOL     OW 6005  14.299   3.887  11.733
34703SOL    HW1 6006  14.208   3.862  11.747
34703SOL    HW2 6007  14.336   3.815  11.683
34704SOL     OW 6008   5.374   4.951   5.169
34704SOL    HW1 6009   5.459   4.981   5.202
34704SOL    HW2 6010   5.353   4.876   5.226
34705SOL     OW 6011   1.270   1.279   8.097
34705SOL    HW1 6012   1.365   1.284   8.087
34705SOL    HW2 6013   1.240   1.222   8.026
34706SOL     OW 6014   2.754   8.613   7.788
34706SOL    HW1 6015   2.726   8.593   7.698
34706SOL    HW2 6016   2.675   8.601   7.841
34707SOL     OW 6017  13.795   7.263   9.975
34707SOL    HW1 6018  13.708   7.236  10.003
34707SOL    HW2 6019  13.779   7.326   9.904
34708SOL     OW 6020   0.039   0.776  12.328
34708SOL    HW1 6021   0.114   0.834  12.331
34708SOL    HW2 6022   0.004   0.776  12.417
34709SOL     OW 6023  13.776   4.192  13.737
34709SOL    HW1 6024  13.737   4.106  13.753
34709SOL    HW2 6025  13.769   4.237  13.821
34710SOL     OW 6026   2.710  11.011   9.498
34710SOL    HW1 6027   2.756  10.941   9.545
34710SOL    HW2 6028   2.722  11.088   9.553
34711SOL     OW 6029  14.734  13.979   4.611
34711SOL    HW1 6030  14.698  13.992   4.698
34711SOL    HW2 6031  14.696  14.049   4.558
34712SOL     OW 6032   9.520   3.090   7.226
34712SOL    HW1 6033   9.462   3.040   7.283
34712SOL    HW2 6034   9.518   3.179   7.260
34713SOL     OW 6035   8.000  12.508  10.040
34713SOL    HW1 6036   7.980  12.560  10.117
34713SOL    HW2 6037   8.011  12.572   9.970
34714SOL     OW 6038   4.157   9.997   2.675
34714SOL    HW1 6039   4.208   9.971   2.752
34714SOL    HW2 6040   4.066   9.977   2.700
34715SOL     OW 6041  12.384  12.565  10.192
34715SOL    HW1 6042  12.303  12.604  10.159
34715SOL    HW2 6043  12.369  12.470  10.184
34716SOL     OW 6044   3.499   7.086   9.019
34716SOL    HW1 6045   3.424   7.033   9.043
34716SOL    HW2 6046   3.490   7.100   8.925
34717SOL     OW 6047   0.115   0.020   9.627
34717SOL    HW1 6048   0.104  14.829   9.701
34717SOL    HW2 6049   0.054  14.858   9.561
34718SOL     OW 6050   4.706   6.473  12.611
34718SOL    HW1 6051   4.677   6.429  12.531
34718SOL    HW2 6052   4.734   6.560  12.583
34719SOL     OW 6053   8.396   7.547  13.101
34719SOL    HW1 6054   8.329   7.487  13.134
34719SOL    HW2 6055   8.474   7.529  13.155
34720SOL     OW 6056   5.811   2.373   4.881
34720SOL    HW1 6057   5.836   2.339   4.795
34720SOL    HW2 6058   5.727   2.330   4.900
34721SOL     OW 6059   3.950   1.222   2.632
34721SOL    HW1 6060   3.939   1.136   2.591
34721SOL    HW2 6061   3.938   1.284   2.561
34722SOL     OW 6062  12.593   4.117  10.747
34722SOL    HW1 6063  12.552   4.068  10.677
34722SOL    HW2 6064  12.674   4.152  10.708
34723SOL     OW 6065  11.941   5.080   1.909
34723SOL    HW1 6066  12.027   5.121   1.898
34723SOL    HW2 6067  11.883   5.151   1.935
34724SOL     OW 6068   2.747   7.631  13.513
34724SOL    HW1 6069   2.760   7.589  13.598
34724SOL    HW2 6070   2.835   7.645  13.479
34725SOL     OW 6071   9.884   6.430   1.353
34725SOL    HW1 6072   9.845   6.479   1.425
34725SOL    HW2 6073   9.823   6.441   1.281
34726SOL     OW 6074   0.902   2.016   0.401
34726SOL    HW1 6075   0.935   2.009   0.311
34726SOL    HW2 6076   0.928   1.934   0.443
34727SOL     OW 6077  13.922   0.022   2.139
34727SOL    HW1 6078  13.918   0.116   2.155
34727SOL    HW2 6079  13.895  14.852   2.222
34728SOL     OW 6080   2.009   4.176   5.206
34728SOL    HW1 6081   2.067   4.124   5.262
34728SOL    HW2 6082   1.921   4.146   5.229
34729SOL     OW 6083   0.560  11.544   2.363
34729SOL    HW1 6084   0.538  11.474   2.301
34729SOL    HW2 6085   0.533  11.510   2.448
34730SOL     OW 6086   9.071  14.733  12.780
34730SOL    HW1 6087   9.002  14.754  12.843
34730SOL    HW2 6088   9.090  14.641  12.795
34731SOL     OW 6089  14.354   3.976   1.742
34731SOL    HW1 6090  14.331   4.028   1.819
34731SOL    HW2 6091  14.298   3.899   1.747
34732SOL     OW 6092  13.505  10.429  10.148
34732SOL    HW1 6093  13.430  10.404  10.202
34732SOL    HW2 6094  13.537  10.510  10.188
34733SOL     OW 6095   3.239   3.549   5.717
34733SOL    HW1 6096   3.182   3.592   5.654
34733SOL    HW2 6097   3.321   3.536   5.670
34734SOL     OW 6098   7.366   3.461   4.223
34734SOL    HW1 6099   7.368   3.555   4.242
34734SOL    HW2 6100   7.317   3.455   4.141
34735SOL     OW 6101  14.667   7.045   8.098
34735SOL    HW1 6102  14.737   7.071   8.038
34735SOL    HW2 6103  14.609   6.990   8.045
34736SOL     OW 6104   0.233   5.683  12.292
34736SOL    HW1 6105   0.314   5.643  12.261
34736SOL    HW2 6106   0.168   5.613  12.287
34737SOL     OW 6107  11.271  12.534   3.904
34737SOL    HW1 6108  11.180  12.524   3.934
34737SOL    HW2 6109  11.274  12.487   3.821
34738SOL     OW 6110   8.295  14.453  14.349
34738SOL    HW1 6111   8.204  14.429  14.364
34738SOL    HW2 6112   8.323  14.396  14.277
34739SOL     OW 6113   2.851   7.494   0.989
34739SOL    HW1 6114   2.833   7.561   1.054
34739SOL    HW2 6115   2.822   7.412   1.030
34740SOL     OW 6116   0.355   6.619   2.506
34740SOL    HW1 6117   0.349   6.603   2.601
34740SOL    HW2 6118   0.422   6.686   2.498
34741SOL     OW 6119  14.443  10.425   9.310
34741SOL    HW1 6120  14.377  10.358   9.329
34741SOL    HW2 6121  14.392  10.506   9.304
34742SOL     OW 6122   4.089   1.070   1.537
34742SOL    HW1 6123   4.169   1.053   1.586
34742SOL    HW2 6124   4.056   1.152   1.572
34743SOL     OW 6125   8.665   2.319  12.430
34743SOL    HW1 6126   8.615   2.246  12.467
34743SOL    HW2 6127   8.703   2.363  12.505
34744SOL     OW 6128   6.144  13.904   3.438
34744SOL    HW1 6129   6.216  13.931   3.495
34744SOL    HW2 6130   6.179  13.911   3.350
34745SOL     OW 6131   9.356  11.219   8.238
34745SOL    HW1 6132   9.363  11.140   8.184
34745SOL    HW2 6133   9.386  11.290   8.182
34746SOL     OW 6134  10.974   3.883  14.198
34746SOL    HW1 6135  10.915   3.813  14.222
34746SOL    HW2 6136  10.941   3.915  14.114
34747SOL     OW 6137   9.733  10.337   6.809
34747SOL    HW1 6138   9.652  10.303   6.771
34747SOL    HW2 6139   9.742  10.290   6.892
34748SOL     OW 6140  13.265  10.154   8.505
34748SOL    HW1 6141  13.187  10.122   8.552
34748SOL    HW2 6142  13.246  10.246   8.487
34749SOL     OW 6143  10.061   5.069   4.244
34749SOL    HW1 6144  10.079   5.051   4.151
34749SOL    HW2 6145   9.965   5.072   4.249
34750SOL     OW 6146  10.965   6.319  12.861
34750SOL    HW1 6147  10.900   6.260  12.823
34750SOL    HW2 6148  10.937   6.407  12.835
34751SOL     OW 6149  13.226  11.717  10.007
34751SOL    HW1 6150  13.151  11.759  10.050
34751SOL    HW2 6151  13.204  11.624  10.005
34752SOL     OW 6152   0.600  12.456   4.403
34752SOL    HW1 6153   0.600  12.366   4.373
34752SOL    HW2 6154   0.595  12.450   4.499
34753SOL     OW 6155   0.436   3.770   2.413
34753SOL    HW1 6156   0.390   3.688   2.434
34753SOL    HW2 6157   0.371   3.822   2.366
34754SOL     OW 6158   2.290   5.649  10.880
34754SOL    HW1 6159   2.380   5.623  10.860
34754SOL    HW2 6160   2.294   5.679  10.971
34755SOL     OW 6161   6.133  11.382   9.746
34755SOL    HW1 6162   6.039  11.376   9.730
34755SOL    HW2 6163   6.156  11.472   9.724
34756SOL     OW 6164  12.787   3.105   4.882
34756SOL    HW1 6165  12.766   3.171   4.948
34756SOL    HW2 6166  12.706   3.057   4.869
34757SOL     OW 6167   1.209  12.991   9.899
34757SOL    HW1 6168   1.236  13.025   9.984
34757SOL    HW2 6169   1.262  12.912   9.887
34758SOL     OW 6170   4.223   1.506  11.601
34758SOL    HW1 6171   4.215   1.591  11.557
34758SOL    HW2 6172   4.198   1.442  11.535
34759SOL     OW 6173  12.360  14.413   4.419
34759SOL    HW1 6174  12.306  14.437   4.343
34759SOL    HW2 6175  12.379  14.320   4.406
34760SOL     OW 6176  10.485   2.586  12.868
34760SOL    HW1 6177  10.543   2.517  12.837
34760SOL    HW2 6178  10.525   2.617  12.949
34761SOL     OW 6179   8.797   5.927   9.215
34761SOL    HW1 6180   8.803   5.988   9.141
34761SOL    HW2 6181   8.704   5.903   9.218
34762SOL     OW 6182   9.501  13.469  10.346
34762SOL    HW1 6183   9.596  13.474  10.353
34762SOL    HW2 6184   9.470  13.509  10.428
34763SOL     OW 6185   0.963  11.110  11.219
34763SOL    HW1 6186   1.026  11.065  11.275
34763SOL    HW2 6187   0.993  11.093  11.130
34764SOL     OW 6188   2.552   5.715  14.564
34764SOL    HW1 6189   2.605   5.765  14.502
34764SOL    HW2 6190   2.594   5.729  14.649
34765SOL     OW 6191   7.577  12.565  12.905
34765SOL    HW1 6192   7.654  12.598  12.859
34765SOL    HW2 6193   7.587  12.470  12.902
34766SOL     OW 6194   8.520   2.472   9.033
34766SOL    HW1 6195   8.468   2.396   9.056
34766SOL    HW2 6196   8.492   2.495   8.945
34767SOL     OW 6197  11.100   3.136   5.557
34767SOL    HW1 6198  11.111   3.129   5.462
34767SOL    HW2 6199  11.161   3.205   5.582
34768SOL     OW 6200   1.155   5.968   8.838
34768SOL    HW1 6201   1.160   5.875   8.862
34768SOL    HW2 6202   1.173   6.015   8.919
34769SOL     OW 6203  11.641   4.508   1.304
34769SOL    HW1 6204  11.552   4.541   1.318
34769SOL    HW2 6205  11.629   4.415   1.285
34770SOL     OW 6206   3.806   7.485   8.825
34770SOL    HW1 6207   3.849   7.399   8.825
34770SOL    HW2 6208   3.845   7.531   8.751
34771SOL     OW 6209   1.828   6.037  10.308
34771SOL    HW1 6210   1.796   6.125  10.287
34771SOL    HW2 6211   1.889   6.017  10.237
34772SOL     OW 6212  10.113   3.225   7.987
34772SOL    HW1 6213  10.057   3.275   7.928
34772SOL    HW2 6214  10.142   3.149   7.936
34773SOL     OW 6215  13.664  14.192  13.308
34773SOL    HW1 6216  13.617  14.145  13.377
34773SOL    HW2 6217  13.621  14.164  13.227
34774SOL     OW 6218   4.074   6.159  12.187
34774SOL    HW1 6219   4.014   6.104  12.239
34774SOL    HW2 6220   4.107   6.099  12.120
34775SOL     OW 6221  12.140  14.266  13.286
34775SOL    HW1 6222  12.155  14.358  13.308
34775SOL    HW2 6223  12.209  14.219  13.333
34776SOL     OW 6224  10.823   9.582   0.134
34776SOL    HW1 6225  10.855   9.547   0.217
34776SOL    HW2 6226  10.886   9.553   0.069
34777SOL     OW 6227  12.450   7.516  10.486
34777SOL    HW1 6228  12.359   7.487  10.487
34777SOL    HW2 6229  12.453   7.591  10.545
34778SOL     OW 6230  13.551  10.406   6.734
34778SOL    HW1 6231  13.579  10.368   6.650
34778SOL    HW2 6232  13.611  10.478   6.749
34779SOL     OW 6233   7.290   9.573  14.090
34779SOL    HW1 6234   7.362   9.513  14.113
34779SOL    HW2 6235   7.292   9.639  14.159
34780SOL     OW 6236   9.948   6.094   4.388
34780SOL    HW1 6237   9.905   6.009   4.397
34780SOL    HW2 6238   9.929   6.140   4.470
34781SOL     OW 6239   5.289   9.417   2.467
34781SOL    HW1 6240   5.276   9.473   2.544
34781SOL    HW2 6241   5.206   9.423   2.420
34782SOL     OW 6242   7.840  13.530   7.469
34782SOL    HW1 6243   7.861  13.541   7.561
34782SOL    HW2 6244   7.747  13.553   7.462
34783SOL     OW 6245  13.484   5.300   9.402
34783SOL    HW1 6246  13.542   5.303   9.325
34783SOL    HW2 6247  13.473   5.392   9.426
34784SOL     OW 6248   9.491   9.003  10.736
34784SOL    HW1 6249   9.487   8.908  10.745
34784SOL    HW2 6250   9.544   9.017  10.658
34785SOL     OW 6251   1.294  14.099  11.263
34785SOL    HW1 6252   1.318  14.052  11.343
34785SOL    HW2 6253   1.345  14.057  11.194
34786SOL     OW 6254  14.402   0.474   2.199
34786SOL    HW1 6255  14.388   0.499   2.290
34786SOL    HW2 6256  14.361   0.388   2.191
34787SOL     OW 6257   0.047   9.670   8.234
34787SOL    HW1 6258  14.834   9.718   8.231
34787SOL    HW2 6259   0.056   9.641   8.324
34788SOL     OW 6260  10.660   7.363   7.011
34788SOL    HW1 6261  10.709   7.337   6.933
34788SOL    HW2 6262  10.724   7.358   7.082
34789SOL     OW 6263  11.474   0.845   0.210
34789SOL    HW1 6264  11.452   0.771   0.267
34789SOL    HW2 6265  11.459   0.813   0.121
34790SOL     OW 6266  13.122   1.367   6.812
34790SOL    HW1 6267  13.098   1.321   6.731
34790SOL    HW2 6268  13.054   1.342   6.874
34791SOL     OW 6269   5.897   2.838   9.402
34791SOL    HW1 6270   5.814   2.839   9.354
34791SOL    HW2 6271   5.913   2.930   9.423
34792SOL     OW 6272   4.459   5.556  13.169
34792SOL    HW1 6273   4.370   5.552  13.132
34792SOL    HW2 6274   4.445   5.564  13.264
34793SOL     OW 6275  14.067  14.588  11.078
34793SOL    HW1 6276  14.082  14.620  10.989
34793SOL    HW2 6277  14.140  14.527  11.094
34794SOL     OW 6278  10.739  12.229  11.665
34794SOL    HW1 6279  10.782  12.216  11.580
34794SOL    HW2 6280  10.766  12.154  11.717
34795SOL     OW 6281   3.024  13.090   4.086
34795SOL    HW1 6282   3.106  13.082   4.135
34795SOL    HW2 6283   3.042  13.158   4.021
34796SOL     OW 6284  12.622  12.684  11.859
34796SOL    HW1 6285  12.572  12.636  11.924
34796SOL    HW2 6286  12.656  12.617  11.799
34797SOL     OW 6287   4.405  13.676   1.832
34797SOL    HW1 6288   4.480  13.733   1.853
34797SOL    HW2 6289   4.423  13.644   1.744
34798SOL     OW 6290   4.099   2.918   3.936
34798SOL    HW1 6291   4.127   2.989   3.993
34798SOL    HW2 6292   4.177   2.864   3.925
34799SOL     OW 6293  14.236   6.608   2.887
34799SOL    HW1 6294  14.298   6.542   2.855
34799SOL    HW2 6295  14.151   6.576   2.857
34800SOL     OW 6296  12.675   6.479  14.312
34800SOL    HW1 6297  12.713   6.392  14.301
34800SOL    HW2 6298  12.585   6.471  14.279
34801SOL     OW 6299   7.477   1.396   5.888
34801SOL    HW1 6300   7.401   1.431   5.841
34801SOL    HW2 6301   7.552   1.416   5.831
34802SOL     OW 6302  10.381   2.426   6.347
34802SOL    HW1 6303  10.339   2.457   6.266
34802SOL    HW2 6304  10.474   2.441   6.332
34803SOL     OW 6305  11.060   3.193   3.651
34803SOL    HW1 6306  11.111   3.126   3.696
34803SOL    HW2 6307  11.112   3.216   3.574
34804SOL     OW 6308   7.649   3.396   0.345
34804SOL    HW1 6309   7.556   3.382   0.364
34804SOL    HW2 6310   7.691   3.313   0.366
34805SOL     OW 6311  13.667   2.037   1.905
34805SOL    HW1 6312  13.692   1.979   1.977
34805SOL    HW2 6313  13.749   2.081   1.881
34806SOL     OW 6314  12.600   0.613   7.559
34806SOL    HW1 6315  12.531   0.588   7.620
34806SOL    HW2 6316  12.663   0.541   7.563
34807SOL     OW 6317   9.920   5.830  13.190
34807SOL    HW1 6318   9.959   5.869  13.268
34807SOL    HW2 6319   9.866   5.758  13.224
34808SOL     OW 6320   3.370  10.064   5.089
34808SOL    HW1 6321   3.279  10.076   5.113
34808SOL    HW2 6322   3.388  10.134   5.026
34809SOL     OW 6323   3.322  10.581   4.295
34809SOL    HW1 6324   3.324  10.634   4.375
34809SOL    HW2 6325   3.411  10.589   4.260
34810SOL     OW 6326   9.821  10.374   9.628
34810SOL    HW1 6327   9.858  10.314   9.692
34810SOL    HW2 6328   9.771  10.437   9.680
34811SOL     OW 6329   9.624   0.563   6.185
34811SOL    HW1 6330   9.574   0.644   6.192
34811SOL    HW2 6331   9.701   0.576   6.239
34812SOL     OW 6332  11.479   2.383   9.011
34812SOL    HW1 6333  11.533   2.425   8.944
34812SOL    HW2 6334  11.507   2.424   9.093
34813SOL     OW 6335   5.699  12.350  12.328
34813SOL    HW1 6336   5.761  12.422  12.320
34813SOL    HW2 6337   5.725  12.289  12.259
34814SOL     OW 6338   9.493   5.232   4.118
34814SOL    HW1 6339   9.471   5.213   4.210
34814SOL    HW2 6340   9.581   5.269   4.122
34815SOL     OW 6341  11.058   9.457  14.748
34815SOL    HW1 6342  11.081   9.461  14.840
34815SOL    HW2 6343  11.096   9.537  14.711
34816SOL     OW 6344   6.213   6.066   9.286
34816SOL    HW1 6345   6.184   6.132   9.223
34816SOL    HW2 6346   6.214   5.985   9.236
34817SOL     OW 6347  13.605  12.384  11.869
34817SOL    HW1 6348  13.669  12.316  11.888
34817SOL    HW2 6349  13.643  12.465  11.903
34818SOL     OW 6350   8.582  10.970   0.323
34818SOL    HW1 6351   8.619  10.976   0.411
34818SOL    HW2 6352   8.646  11.015   0.267
34819SOL     OW 6353   1.516   8.145  12.997
34819SOL    HW1 6354   1.546   8.140  12.906
34819SOL    HW2 6355   1.580   8.200  13.041
34820SOL     OW 6356   0.942   0.360   9.722
34820SOL    HW1 6357   0.882   0.302   9.769
34820SOL    HW2 6358   0.898   0.445   9.722
34821SOL     OW 6359   7.745   8.688   2.920
34821SOL    HW1 6360   7.836   8.705   2.897
34821SOL    HW2 6361   7.708   8.774   2.939
34822SOL     OW 6362   3.795   5.627   4.233
34822SOL    HW1 6363   3.840   5.702   4.194
34822SOL    HW2 6364   3.813   5.555   4.173
34823SOL     OW 6365  13.197   9.022   1.679
34823SOL    HW1 6366  13.280   9.070   1.687
34823SOL    HW2 6367  13.161   9.050   1.595
34824SOL     OW 6368  10.485   0.268   6.634
34824SOL    HW1 6369  10.510   0.315   6.713
34824SOL    HW2 6370  10.401   0.306   6.608
34825SOL     OW 6371   0.643   0.231   0.026
34825SOL    HW1 6372   0.726   0.193   0.057
34825SOL    HW2 6373   0.609   0.278   0.102
34826SOL     OW 6374   8.810   2.458  10.542
34826SOL    HW1 6375   8.813   2.483  10.449
34826SOL    HW2 6376   8.881   2.395  10.552
34827SOL     OW 6377   1.233   1.497  10.360
34827SOL    HW1 6378   1.283   1.575  10.385
34827SOL    HW2 6379   1.181   1.476  10.438
34828SOL     OW 6380  14.677  11.376   3.884
34828SOL    HW1 6381  14.600  11.319   3.889
34828SOL    HW2 6382  14.642  11.465   3.889
34829SOL     OW 6383   3.102   4.552  10.448
34829SOL    HW1 6384   3.076   4.518  10.363
34829SOL    HW2 6385   3.022   4.550  10.500
34830SOL     OW 6386  13.025   9.869   7.910
34830SOL    HW1 6387  13.034   9.884   8.004
34830SOL    HW2 6388  13.000   9.777   7.903
34831SOL     OW 6389   9.408  12.395   8.376
34831SOL    HW1 6390   9.381  12.389   8.284
34831SOL    HW2 6391   9.503  12.396   8.372
34832SOL     OW 6392  12.809  13.849  13.680
34832SOL    HW1 6393  12.883  13.788  13.678
34832SOL    HW2 6394  12.841  13.927  13.635
34833SOL     OW 6395  13.400  14.529  11.994
34833SOL    HW1 6396  13.453  14.608  11.991
34833SOL    HW2 6397  13.435  14.474  11.924
34834SOL     OW 6398   6.953   5.339   4.338
34834SOL    HW1 6399   7.034   5.391   4.339
34834SOL    HW2 6400   6.929   5.334   4.245
34835SOL     OW 6401   5.425   2.665   2.118
34835SOL    HW1 6402   5.407   2.616   2.198
34835SOL    HW2 6403   5.367   2.741   2.123
34836SOL     OW 6404   3.231   7.372   6.900
34836SOL    HW1 6405   3.263   7.403   6.984
34836SOL    HW2 6406   3.265   7.435   6.836
34837SOL     OW 6407   1.998   2.910  13.439
34837SOL    HW1 6408   2.028   2.945  13.523
34837SOL    HW2 6409   1.974   2.819  13.458
34838SOL     OW 6410   3.872  14.606  10.240
34838SOL    HW1 6411   3.941  14.672  10.238
34838SOL    HW2 6412   3.853  14.588  10.148
34839SOL     OW 6413  14.475  13.168  10.791
34839SOL    HW1 6414  14.517  13.082  10.787
34839SOL    HW2 6415  14.542  13.227  10.825
34840SOL     OW 6416   8.260  14.791   9.191
34840SOL    HW1 6417   8.300  14.723   9.137
34840SOL    HW2 6418   8.331  14.852   9.209
34841SOL     OW 6419   5.160   7.163  14.689
34841SOL    HW1 6420   5.124   7.078  14.661
34841SOL    HW2 6421   5.237   7.140  14.741
34842SOL     OW 6422   4.915   3.248  14.220
34842SOL    HW1 6423   4.895   3.155  14.223
34842SOL    HW2 6424   4.930   3.272  14.312
34843SOL     OW 6425   2.570   2.016   5.373
34843SOL    HW1 6426   2.577   1.936   5.320
34843SOL    HW2 6427   2.477   2.036   5.374
34844SOL     OW 6428  10.415   2.944  13.040
34844SOL    HW1 6429  10.507   2.932  13.017
34844SOL    HW2 6430  10.414   3.020  13.099
34845SOL     OW 6431   0.463   7.575   3.138
34845SOL    HW1 6432   0.445   7.530   3.056
34845SOL    HW2 6433   0.377   7.596   3.174
34846SOL     OW 6434   6.970  11.374   9.394
34846SOL    HW1 6435   6.948  11.285   9.422
34846SOL    HW2 6436   6.936  11.380   9.304
34847SOL     OW 6437   0.786   1.298   9.758
34847SOL    HW1 6438   0.842   1.259   9.825
34847SOL    HW2 6439   0.768   1.386   9.789
34848SOL     OW 6440   2.008   9.359   3.359
34848SOL    HW1 6441   2.005   9.414   3.280
34848SOL    HW2 6442   2.062   9.284   3.334
34849SOL     OW 6443   7.821  13.855  11.619
34849SOL    HW1 6444   7.908  13.815  11.619
34849SOL    HW2 6445   7.813  13.894  11.532
34850SOL     OW 6446  12.331   2.438   2.665
34850SOL    HW1 6447  12.412   2.489   2.667
34850SOL    HW2 6448  12.293   2.451   2.752
34851SOL     OW 6449  11.066  14.606   8.690
34851SOL    HW1 6450  11.053  14.694   8.724
34851SOL    HW2 6451  10.981  14.581   8.653
34852SOL     OW 6452  13.995   8.698   7.414
34852SOL    HW1 6453  14.007   8.791   7.435
34852SOL    HW2 6454  14.079   8.672   7.376
34853SOL     OW 6455   3.605  11.486   0.019
34853SOL    HW1 6456   3.659  11.434  14.829
34853SOL    HW2 6457   3.564  11.421   0.076
34854SOL     OW 6458  12.228   3.038   8.428
34854SOL    HW1 6459  12.185   3.119   8.403
34854SOL    HW2 6460  12.203   2.975   8.360
34855SOL     OW 6461   5.905   2.270   4.636
34855SOL    HW1 6462   5.970   2.207   4.606
34855SOL    HW2 6463   5.824   2.244   4.592
34856SOL     OW 6464  11.114   3.241  10.523
34856SOL    HW1 6465  11.046   3.287  10.572
34856SOL    HW2 6466  11.192   3.245  10.579
34857SOL     OW 6467  14.758  13.397   0.390
34857SOL    HW1 6468  14.702  13.346   0.332
34857SOL    HW2 6469  14.709  13.477   0.408
34858SOL     OW 6470  11.190   1.517  12.794
34858SOL    HW1 6471  11.240   1.598  12.791
34858SOL    HW2 6472  11.099   1.545  12.801
34859SOL     OW 6473   7.108   3.182  12.003
34859SOL    HW1 6474   7.174   3.251  12.003
34859SOL    HW2 6475   7.051   3.203  12.076
34860SOL     OW 6476   3.897   4.990   3.040
34860SOL    HW1 6477   3.849   5.044   3.102
34860SOL    HW2 6478   3.934   5.052   2.977
34861SOL     OW 6479  14.416   3.855   5.428
34861SOL    HW1 6480  14.480   3.910   5.383
34861SOL    HW2 6481  14.429   3.768   5.391
34862SOL     OW 6482   4.925   3.181   2.805
34862SOL    HW1 6483   4.984   3.233   2.860
34862SOL    HW2 6484   4.951   3.091   2.822
34863SOL     OW 6485   4.326  10.683  12.239
34863SOL    HW1 6486   4.387  10.610  12.226
34863SOL    HW2 6487   4.286  10.665  12.325
34864SOL     OW 6488  12.423   6.595  13.744
34864SOL    HW1 6489  12.508   6.590  13.790
34864SOL    HW2 6490  12.445   6.581  13.652
34865SOL     OW 6491   0.963   4.274   7.335
34865SOL    HW1 6492   0.879   4.230   7.348
34865SOL    HW2 6493   1.024   4.224   7.389
34866SOL     OW 6494   9.265   3.533  12.634
34866SOL    HW1 6495   9.355   3.560  12.652
34866SOL    HW2 6496   9.221   3.613  12.607
34867SOL     OW 6497   3.825  11.566   9.788
34867SOL    HW1 6498   3.790  11.489   9.742
34867SOL    HW2 6499   3.765  11.578   9.862
34868SOL     OW 6500   1.459   3.763   4.198
34868SOL    HW1 6501   1.504   3.680   4.213
34868SOL    HW2 6502   1.479   3.785   4.107
34869SOL     OW 6503  12.500   3.276  12.796
34869SOL    HW1 6504  12.412   3.245  12.819
34869SOL    HW2 6505  12.559   3.211  12.834
34870SOL     OW 6506   2.181   5.213   5.704
34870SOL    HW1 6507   2.257   5.178   5.657
34870SOL    HW2 6508   2.109   5.155   5.679
34871SOL     OW 6509   2.453   0.609  13.521
34871SOL    HW1 6510   2.426   0.700  13.537
34871SOL    HW2 6511   2.549   0.613  13.517
34872SOL     OW 6512   0.548   5.042   1.480
34872SOL    HW1 6513   0.501   4.979   1.533
34872SOL    HW2 6514   0.604   5.089   1.542
34873SOL     OW 6515   9.830   1.347   3.521
34873SOL    HW1 6516   9.819   1.276   3.458
34873SOL    HW2 6517   9.756   1.337   3.581
34874SOL     OW 6518  12.578   1.878  13.064
34874SOL    HW1 6519  12.563   1.961  13.110
34874SOL    HW2 6520  12.579   1.812  13.134
34875SOL     OW 6521   1.469  11.675   4.419
34875SOL    HW1 6522   1.468  11.770   4.436
34875SOL    HW2 6523   1.441  11.636   4.502
34876SOL     OW 6524  10.994  10.229   1.645
34876SOL    HW1 6525  10.900  10.240   1.660
34876SOL    HW2 6526  11.001  10.190   1.558
34877SOL     OW 6527   6.908   3.488   4.800
34877SOL    HW1 6528   6.988   3.472   4.852
34877SOL    HW2 6529   6.940   3.502   4.711
34878SOL     OW 6530  11.789  14.244   9.663
34878SOL    HW1 6531  11.712  14.253   9.718
34878SOL    HW2 6532  11.755  14.242   9.573
34879SOL     OW 6533  13.868   6.235   7.008
34879SOL    HW1 6534  13.890   6.234   6.914
34879SOL    HW2 6535  13.953   6.236   7.052
34880SOL     OW 6536   0.730  14.831   3.446
34880SOL    HW1 6537   0.691   0.048   3.456
34880SOL    HW2 6538   0.790  14.840   3.372
34881SOL     OW 6539   7.362   0.358   1.931
34881SOL    HW1 6540   7.337   0.293   1.865
34881SOL    HW2 6541   7.291   0.423   1.928
34882SOL     OW 6542  10.895   9.068   9.601
34882SOL    HW1 6543  10.964   9.101   9.544
34882SOL    HW2 6544  10.926   9.086   9.690
34883SOL     OW 6545   1.655   6.151   6.615
34883SOL    HW1 6546   1.746   6.157   6.584
34883SOL    HW2 6547   1.631   6.060   6.601
34884SOL     OW 6548   5.060   1.866   9.124
34884SOL    HW1 6549   4.985   1.824   9.082
34884SOL    HW2 6550   5.082   1.939   9.067
34885SOL     OW 6551   2.015   3.508  13.627
34885SOL    HW1 6552   1.975   3.582  13.581
34885SOL    HW2 6553   2.100   3.541  13.654
34886SOL     OW 6554  14.075   1.022  10.599
34886SOL    HW1 6555  14.064   0.967  10.676
34886SOL    HW2 6556  13.998   1.079  10.598
34887SOL     OW 6557   9.087  11.845  10.722
34887SOL    HW1 6558   9.023  11.900  10.769
34887SOL    HW2 6559   9.042  11.818  10.643
34888SOL     OW 6560   4.251   7.586  12.025
34888SOL    HW1 6561   4.254   7.527  12.100
34888SOL    HW2 6562   4.264   7.529  11.949
34889SOL     OW 6563   0.604  13.195   6.963
34889SOL    HW1 6564   0.633  13.154   6.881
34889SOL    HW2 6565   0.579  13.122   7.019
34890SOL     OW 6566  13.131  11.868  14.016
34890SOL    HW1 6567  13.200  11.934  14.018
34890SOL    HW2 6568  13.052  11.917  13.994
34891SOL     OW 6569   9.741   0.299  10.808
34891SOL    HW1 6570   9.805   0.281  10.739
34891SOL    HW2 6571   9.669   0.342  10.763
34892SOL     OW 6572   2.971   9.577   9.321
34892SOL    HW1 6573   2.942   9.653   9.270
34892SOL    HW2 6574   2.953   9.502   9.265
34893SOL     OW 6575   6.449   3.138   3.041
34893SOL    HW1 6576   6.532   3.125   2.995
34893SOL    HW2 6577   6.462   3.097   3.126
34894SOL     OW 6578   6.615  13.122   7.719
34894SOL    HW1 6579   6.665  13.085   7.646
34894SOL    HW2 6580   6.649  13.211   7.730
34895SOL     OW 6581  12.081   9.192   3.841
34895SOL    HW1 6582  12.123   9.278   3.845
34895SOL    HW2 6583  11.997   9.203   3.884
34896SOL     OW 6584   2.981   0.463   4.808
34896SOL    HW1 6585   3.003   0.416   4.888
34896SOL    HW2 6586   3.062   0.509   4.784
34897SOL     OW 6587   9.546   6.607   6.569
34897SOL    HW1 6588   9.613   6.665   6.534
34897SOL    HW2 6589   9.591   6.524   6.584
34898SOL     OW 6590  11.896   4.777  13.764
34898SOL    HW1 6591  11.944   4.857  13.740
34898SOL    HW2 6592  11.964   4.714  13.787
34899SOL     OW 6593  14.456   2.715  11.602
34899SOL    HW1 6594  14.516   2.660  11.550
34899SOL    HW2 6595  14.498   2.721  11.688
34900SOL     OW 6596   6.873  11.474   4.104
34900SOL    HW1 6597   6.883  11.558   4.059
34900SOL    HW2 6598   6.949  11.468   4.161
34901SOL     OW 6599   8.997   2.879   5.232
34901SOL    HW1 6600   8.982   2.856   5.323
34901SOL    HW2 6601   8.946   2.815   5.182
34902SOL     OW 6602   7.157   0.169   2.904
34902SOL    HW1 6603   7.196   0.156   2.818
34902SOL    HW2 6604   7.081   0.110   2.905
34903SOL     OW 6605   4.505   1.429   2.054
34903SOL    HW1 6606   4.415   1.462   2.048
34903SOL    HW2 6607   4.554   1.500   2.095
34904SOL     OW 6608  14.159   4.468   2.796
34904SOL    HW1 6609  14.187   4.557   2.819
34904SOL    HW2 6610  14.109   4.439   2.873
34905SOL     OW 6611   3.980   9.048   3.575
34905SOL    HW1 6612   3.983   8.952   3.576
34905SOL    HW2 6613   4.017   9.074   3.660
34906SOL     OW 6614   8.670  10.493   4.762
34906SOL    HW1 6615   8.734  10.528   4.700
34906SOL    HW2 6616   8.621  10.428   4.712
34907SOL     OW 6617   4.864   2.736  13.775
34907SOL    HW1 6618   4.881   2.661  13.717
34907SOL    HW2 6619   4.891   2.706  13.861
34908SOL     OW 6620   1.339   6.186  13.029
34908SOL    HW1 6621   1.405   6.145  12.973
34908SOL    HW2 6622   1.273   6.220  12.968
34909SOL     OW 6623   2.502   7.978   7.213
34909SOL    HW1 6624   2.584   8.023   7.230
34909SOL    HW2 6625   2.478   7.937   7.296
34910SOL     OW 6626   9.258   2.087  12.102
34910SOL    HW1 6627   9.279   2.133  12.021
34910SOL    HW2 6628   9.199   2.145  12.149
34911SOL     OW 6629  10.710   3.867  13.068
34911SOL    HW1 6630  10.766   3.791  13.049
34911SOL    HW2 6631  10.621   3.833  13.062
34912SOL     OW 6632  11.778   5.918  14.805
34912SOL    HW1 6633  11.774   5.861  14.728
34912SOL    HW2 6634  11.832   5.870  14.868
34913SOL     OW 6635   4.165   2.649   0.677
34913SOL    HW1 6636   4.211   2.591   0.738
34913SOL    HW2 6637   4.091   2.683   0.727
34914SOL     OW 6638   0.609   7.037  13.541
34914SOL    HW1 6639   0.660   7.028  13.460
34914SOL    HW2 6640   0.528   6.987  13.524
34915SOL     OW 6641   7.106   9.745   4.115
34915SOL    HW1 6642   7.096   9.690   4.038
34915SOL    HW2 6643   7.034   9.718   4.173
34916SOL     OW 6644   7.915   7.054   0.116
34916SOL    HW1 6645   8.010   7.068   0.114
34916SOL    HW2 6646   7.879   7.129   0.068
34917SOL     OW 6647   8.428   5.766  13.507
34917SOL    HW1 6648   8.349   5.712  13.516
34917SOL    HW2 6649   8.494   5.721  13.559
34918SOL     OW 6650  12.963  14.635   6.574
34918SOL    HW1 6651  13.040  14.579   6.582
34918SOL    HW2 6652  12.894  14.577   6.542
34919SOL     OW 6653   5.895  12.666  11.760
34919SOL    HW1 6654   5.834  12.602  11.796
34919SOL    HW2 6655   5.971  12.615  11.733
34920SOL     OW 6656   6.049   0.726   5.573
34920SOL    HW1 6657   6.038   0.820   5.554
34920SOL    HW2 6658   5.970   0.685   5.536
34921SOL     OW 6659  11.650   9.603   3.672
34921SOL    HW1 6660  11.693   9.624   3.590
34921SOL    HW2 6661  11.598   9.525   3.653
34922SOL     OW 6662   0.295  10.852   2.167
34922SOL    HW1 6663   0.241  10.780   2.134
34922SOL    HW2 6664   0.353  10.875   2.094
34923SOL     OW 6665   0.768  14.436   8.854
34923SOL    HW1 6666   0.755  14.365   8.916
34923SOL    HW2 6667   0.725  14.512   8.894
34924SOL     OW 6668  13.701   3.130  13.297
34924SOL    HW1 6669  13.731   3.204  13.351
34924SOL    HW2 6670  13.624   3.165  13.251
34925SOL     OW 6671   7.128   8.370   8.683
34925SOL    HW1 6672   7.071   8.377   8.606
34925SOL    HW2 6673   7.092   8.297   8.733
34926SOL     OW 6674   6.211   3.269   9.013
34926SOL    HW1 6675   6.217   3.247   9.106
34926SOL    HW2 6676   6.256   3.353   9.006
34927SOL     OW 6677  13.040  12.571  12.661
34927SOL    HW1 6678  12.994  12.551  12.579
34927SOL    HW2 6679  13.132  12.550  12.643
34928SOL     OW 6680   1.928  11.246   5.848
34928SOL    HW1 6681   1.939  11.329   5.894
34928SOL    HW2 6682   1.870  11.268   5.774
34929SOL     OW 6683   7.946   2.700   8.267
34929SOL    HW1 6684   7.857   2.682   8.297
34929SOL    HW2 6685   7.966   2.628   8.208
34930SOL     OW 6686  13.724   8.549   2.849
34930SOL    HW1 6687  13.635   8.577   2.872
34930SOL    HW2 6688  13.732   8.569   2.756
34931SOL     OW 6689   5.004   0.460  11.878
34931SOL    HW1 6690   4.924   0.511  11.866
34931SOL    HW2 6691   5.019   0.460  11.972
34932SOL     OW 6692   4.651   0.899  12.120
34932SOL    HW1 6693   4.557   0.916  12.126
34932SOL    HW2 6694   4.664   0.864  12.032
34933SOL     OW 6695   6.919   2.798   9.296
34933SOL    HW1 6696   6.997   2.851   9.281
34933SOL    HW2 6697   6.891   2.819   9.385
34934SOL     OW 6698   0.670  12.030   3.453
34934SOL    HW1 6699   0.728  11.958   3.481
34934SOL    HW2 6700   0.584  12.006   3.488
34935SOL     OW 6701   1.469  11.708  13.416
34935SOL    HW1 6702   1.468  11.638  13.350
34935SOL    HW2 6703   1.418  11.674  13.488
34936SOL     OW 6704  13.251  13.309  11.227
34936SOL    HW1 6705  13.208  13.240  11.279
34936SOL    HW2 6706  13.343  13.303  11.251
34937SOL     OW 6707   8.775  11.564   9.969
34937SOL    HW1 6708   8.837  11.617  10.017
34937SOL    HW2 6709   8.810  11.475   9.974
34938SOL     OW 6710   7.064   5.432  13.702
34938SOL    HW1 6711   7.049   5.344  13.667
34938SOL    HW2 6712   7.083   5.418  13.795
34939SOL     OW 6713   0.240   2.019   5.732
34939SOL    HW1 6714   0.240   1.940   5.786
34939SOL    HW2 6715   0.327   2.018   5.690
34940SOL     OW 6716   3.045   6.415   5.825
34940SOL    HW1 6717   3.064   6.374   5.909
34940SOL    HW2 6718   2.966   6.467   5.841
34941SOL     OW 6719   2.018   3.543  11.747
34941SOL    HW1 6720   2.025   3.635  11.725
34941SOL    HW2 6721   2.079   3.498  11.688
34942SOL     OW 6722   6.062   5.918   1.096
34942SOL    HW1 6723   6.016   5.836   1.112
34942SOL    HW2 6724   6.061   5.963   1.180
34943SOL     OW 6725  11.066  11.889   2.915
34943SOL    HW1 6726  11.139  11.876   2.975
34943SOL    HW2 6727  11.040  11.801   2.888
34944SOL     OW 6728  12.696   9.613  11.862
34944SOL    HW1 6729  12.746   9.582  11.938
34944SOL    HW2 6730  12.605   9.594  11.884
34945SOL     OW 6731  10.271   8.509   2.692
34945SOL    HW1 6732  10.337   8.546   2.633
34945SOL    HW2 6733  10.188   8.544   2.661
34946SOL     OW 6734  11.369  11.509   2.026
34946SOL    HW1 6735  11.314  11.471   1.957
34946SOL    HW2 6736  11.446  11.453   2.028
34947SOL     OW 6737   9.297   1.917   5.910
34947SOL    HW1 6738   9.234   1.970   5.959
34947SOL    HW2 6739   9.267   1.922   5.819
34948SOL     OW 6740  12.201  11.665  10.713
34948SOL    HW1 6741  12.178  11.646  10.622
34948SOL    HW2 6742  12.261  11.740  10.707
34949SOL     OW 6743  14.500   2.718   3.690
34949SOL    HW1 6744  14.508   2.727   3.595
34949SOL    HW2 6745  14.588   2.695   3.719
34950SOL     OW 6746  13.940   4.013  10.312
34950SOL    HW1 6747  13.998   4.065  10.368
34950SOL    HW2 6748  13.852   4.029  10.345
34951SOL     OW 6749   9.396  10.291   8.451
34951SOL    HW1 6750   9.306  10.261   8.460
34951SOL    HW2 6751   9.421  10.322   8.538
34952SOL     OW 6752  12.757   7.212  10.725
34952SOL    HW1 6753  12.727   7.127  10.759
34952SOL    HW2 6754  12.682   7.246  10.676
34953SOL     OW 6755   8.336   9.475   2.566
34953SOL    HW1 6756   8.282   9.398   2.549
34953SOL    HW2 6757   8.291   9.547   2.521
34954SOL     OW 6758   8.598  11.227  11.385
34954SOL    HW1 6759   8.664  11.176  11.431
34954SOL    HW2 6760   8.569  11.292  11.449
34955SOL     OW 6761   8.919   2.308   3.486
34955SOL    HW1 6762   8.992   2.251   3.508
34955SOL    HW2 6763   8.886   2.339   3.571
34956SOL     OW 6764   4.402   7.258  13.315
34956SOL    HW1 6765   4.467   7.291  13.377
34956SOL    HW2 6766   4.377   7.172  13.349
34957SOL     OW 6767   4.307   5.635   3.382
34957SOL    HW1 6768   4.283   5.589   3.462
34957SOL    HW2 6769   4.224   5.649   3.337
34958SOL     OW 6770  14.686   1.227   1.931
34958SOL    HW1 6771  14.623   1.263   1.994
34958SOL    HW2 6772  14.639   1.226   1.848
34959SOL     OW 6773   4.128   6.487   1.462
34959SOL    HW1 6774   4.067   6.431   1.510
34959SOL    HW2 6775   4.202   6.430   1.442
34960SOL     OW 6776  12.969   2.146  12.113
34960SOL    HW1 6777  12.895   2.204  12.130
34960SOL    HW2 6778  12.931   2.059  12.104
34961SOL     OW 6779  11.734   7.509   4.582
34961SOL    HW1 6780  11.742   7.567   4.506
34961SOL    HW2 6781  11.775   7.427   4.555
34962SOL     OW 6782  10.741   7.319   8.064
34962SOL    HW1 6783  10.652   7.296   8.038
34962SOL    HW2 6784  10.797   7.272   8.002
34963SOL     OW 6785   0.896   4.518  12.389
34963SOL    HW1 6786   0.974   4.484  12.433
34963SOL    HW2 6787   0.837   4.545  12.460
34964SOL     OW 6788   5.004   6.057  13.967
34964SOL    HW1 6789   5.082   6.001  13.963
34964SOL    HW2 6790   5.024   6.120  14.036
34965SOL     OW 6791  10.368  10.542   1.685
34965SOL    HW1 6792  10.401  10.529   1.774
34965SOL    HW2 6793  10.276  10.515   1.689
34966SOL     OW 6794   8.802  14.296   4.395
34966SOL    HW1 6795   8.734  14.348   4.353
34966SOL    HW2 6796   8.884  14.336   4.366
34967SOL     OW 6797   8.126   8.214   7.908
34967SOL    HW1 6798   8.098   8.305   7.906
34967SOL    HW2 6799   8.060   8.167   7.857
34968SOL     OW 6800   7.602   4.759  14.708
34968SOL    HW1 6801   7.514   4.784  14.679
34968SOL    HW2 6802   7.597   4.665  14.724
34969SOL     OW 6803  11.564   9.381  10.847
34969SOL    HW1 6804  11.549   9.447  10.914
34969SOL    HW2 6805  11.508   9.409  10.774
34970SOL     OW 6806   2.787  10.049   6.118
34970SOL    HW1 6807   2.854   9.997   6.162
34970SOL    HW2 6808   2.749   9.989   6.053
34971SOL     OW 6809   5.698  14.516   2.182
34971SOL    HW1 6810   5.763  14.584   2.164
34971SOL    HW2 6811   5.646  14.510   2.101
34972SOL     OW 6812   1.264   4.652  10.552
34972SOL    HW1 6813   1.205   4.627  10.481
34972SOL    HW2 6814   1.324   4.578  10.561
34973SOL     OW 6815   0.517   9.301  14.819
34973SOL    HW1 6816   0.504   9.389  14.854
34973SOL    HW2 6817   0.529   9.313  14.725
34974SOL     OW 6818   0.177  14.495  10.884
34974SOL    HW1 6819   0.109  14.518  10.821
34974SOL    HW2 6820   0.259  14.502  10.836
34975SOL     OW 6821  10.384  11.395   3.455
34975SOL    HW1 6822  10.385  11.487   3.480
34975SOL    HW2 6823  10.395  11.348   3.538
34976SOL     OW 6824  11.318  11.553  11.511
34976SOL    HW1 6825  11.410  11.562  11.486
34976SOL    HW2 6826  11.287  11.643  11.521
34977SOL     OW 6827   0.506   3.165   8.157
34977SOL    HW1 6828   0.580   3.159   8.218
34977SOL    HW2 6829   0.494   3.259   8.144
34978SOL     OW 6830   5.775  11.243  14.413
34978SOL    HW1 6831   5.752  11.255  14.321
34978SOL    HW2 6832   5.708  11.290  14.462
34979SOL     OW 6833  12.583   8.188   9.913
34979SOL    HW1 6834  12.650   8.121   9.920
34979SOL    HW2 6835  12.631   8.270   9.907
34980SOL     OW 6836   7.460   9.299   1.972
34980SOL    HW1 6837   7.402   9.236   1.930
34980SOL    HW2 6838   7.506   9.248   2.039
34981SOL     OW 6839   4.010   4.773   7.477
34981SOL    HW1 6840   3.990   4.814   7.393
34981SOL    HW2 6841   4.014   4.679   7.457
34982SOL     OW 6842  10.618   1.246   2.853
34982SOL    HW1 6843  10.624   1.312   2.922
34982SOL    HW2 6844  10.708   1.214   2.843
34983SOL     OW 6845  10.268   3.889  10.628
34983SOL    HW1 6846  10.303   3.977  10.619
34983SOL    HW2 6847  10.339   3.831  10.600
34984SOL     OW 6848   9.721   8.431   4.918
34984SOL    HW1 6849   9.684   8.349   4.951
34984SOL    HW2 6850   9.815   8.423   4.933
34985SOL     OW 6851   6.467   4.318   0.916
34985SOL    HW1 6852   6.545   4.294   0.866
34985SOL    HW2 6853   6.415   4.238   0.919
34986SOL     OW 6854   9.092   1.936  11.902
34986SOL    HW1 6855   9.148   1.913  11.828
34986SOL    HW2 6856   9.152   1.974  11.966
34987SOL     OW 6857  14.021  11.453  10.392
34987SOL    HW1 6858  14.104  11.484  10.428
34987SOL    HW2 6859  13.965  11.440  10.469
34988SOL     OW 6860  14.436   1.922   0.788
34988SOL    HW1 6861  14.507   1.957   0.735
34988SOL    HW2 6862  14.357   1.961   0.751
34989SOL     OW 6863  10.993   4.900   3.273
34989SOL    HW1 6864  10.924   4.846   3.235
34989SOL    HW2 6865  10.957   4.989   3.275
34990SOL     OW 6866   4.269  12.738   6.804
34990SOL    HW1 6867   4.311  12.666   6.850
34990SOL    HW2 6868   4.341  12.788   6.766
34991SOL     OW 6869  12.918   9.201  10.807
34991SOL    HW1 6870  12.891   9.232  10.894
34991SOL    HW2 6871  12.836   9.179  10.764
34992SOL     OW 6872   3.673  13.216   9.194
34992SOL    HW1 6873   3.630  13.131   9.196
34992SOL    HW2 6874   3.766  13.195   9.188
34993SOL     OW 6875   1.668   7.912   1.180
34993SOL    HW1 6876   1.753   7.910   1.224
34993SOL    HW2 6877   1.689   7.920   1.087
34994SOL     OW 6878   1.480   9.622  13.605
34994SOL    HW1 6879   1.520   9.535  13.610
34994SOL    HW2 6880   1.536   9.671  13.545
34995SOL     OW 6881   0.760  11.081   0.646
34995SOL    HW1 6882   0.852  11.091   0.669
34995SOL    HW2 6883   0.713  11.088   0.730
34996SOL     OW 6884   6.189   1.684   9.443
34996SOL    HW1 6885   6.152   1.661   9.527
34996SOL    HW2 6886   6.118   1.670   9.380
34997SOL     OW 6887  12.416  14.063   1.654
34997SOL    HW1 6888  12.510  14.080   1.656
34997SOL    HW2 6889  12.402  14.017   1.571
34998SOL     OW 6890   7.491   9.335  14.636
34998SOL    HW1 6891   7.498   9.430  14.637
34998SOL    HW2 6892   7.443   9.313  14.715
34999SOL     OW 6893   0.774   2.730  12.400
34999SOL    HW1 6894   0.761   2.636  12.410
34999SOL    HW2 6895   0.859   2.747  12.441
35000SOL     OW 6896  13.608  12.146  12.572
35000SOL    HW1 6897  13.566  12.133  12.487
35000SOL    HW2 6898  13.697  12.175  12.550
35001SOL     OW 6899  11.478  12.913   3.596
35001SOL    HW1 6900  11.468  12.975   3.668
35001SOL    HW2 6901  11.393  12.868   3.592
35002SOL     OW 6902   4.008   2.633   6.149
35002SOL    HW1 6903   3.946   2.699   6.119
35002SOL    HW2 6904   3.959   2.551   6.150
35003SOL     OW 6905  11.637   3.289   7.538
35003SOL    HW1 6906  11.659   3.373   7.578
35003SOL    HW2 6907  11.700   3.228   7.576
35004SOL     OW 6908   9.122  12.857  13.194
35004SOL    HW1 6909   9.167  12.903  13.265
35004SOL    HW2 6910   9.188  12.796  13.160
35005SOL     OW 6911  11.321   5.254   0.545
35005SOL    HW1 6912  11.360   5.166   0.548
35005SOL    HW2 6913  11.269   5.254   0.465
35006SOL     OW 6914  10.255   9.101  13.295
35006SOL    HW1 6915  10.238   9.183  13.342
35006SOL    HW2 6916  10.193   9.102  13.222
35007SOL     OW 6917   1.631  12.356   6.238
35007SOL    HW1 6918   1.722  12.371   6.262
35007SOL    HW2 6919   1.589  12.329   6.319
35008SOL     OW 6920   4.227  10.234  12.967
35008SOL    HW1 6921   4.154  10.208  12.912
35008SOL    HW2 6922   4.251  10.322  12.936
35009SOL     OW 6923  10.728   2.816   9.895
35009SOL    HW1 6924  10.691   2.765   9.823
35009SOL    HW2 6925  10.692   2.904   9.881
35010SOL     OW 6926   0.238   1.577   2.405
35010SOL    HW1 6927   0.316   1.599   2.356
35010SOL    HW2 6928   0.174   1.644   2.381
35011SOL     OW 6929  11.123   4.778   7.930
35011SOL    HW1 6930  11.216   4.793   7.949
35011SOL    HW2 6931  11.076   4.827   7.997
35012SOL     OW 6932   2.955   5.388  14.548
35012SOL    HW1 6933   3.017   5.423  14.613
35012SOL    HW2 6934   2.974   5.437  14.468
35013SOL     OW 6935   1.211   3.296   2.689
35013SOL    HW1 6936   1.208   3.266   2.598
35013SOL    HW2 6937   1.295   3.265   2.722
35014SOL     OW 6938   0.348   2.510  11.761
35014SOL    HW1 6939   0.399   2.481  11.685
35014SOL    HW2 6940   0.294   2.435  11.785
35015SOL     OW 6941   9.796  10.176   7.971
35015SOL    HW1 6942   9.833  10.239   7.909
35015SOL    HW2 6943   9.783  10.097   7.919
35016SOL     OW 6944   0.481   3.494  14.227
35016SOL    HW1 6945   0.431   3.420  14.261
35016SOL    HW2 6946   0.549   3.453  14.173
35017SOL     OW 6947   6.034   7.532  12.143
35017SOL    HW1 6948   6.074   7.542  12.057
35017SOL    HW2 6949   5.964   7.598  12.145
35018SOL     OW 6950  14.135  13.204  11.262
35018SOL    HW1 6951  14.165  13.214  11.172
35018SOL    HW2 6952  14.108  13.112  11.268
35019SOL     OW 6953   1.330  12.398  12.834
35019SOL    HW1 6954   1.359  12.307  12.844
35019SOL    HW2 6955   1.409  12.446  12.810
35020SOL     OW 6956   2.601  12.892  14.549
35020SOL    HW1 6957   2.507  12.876  14.536
35020SOL    HW2 6958   2.613  12.884  14.644
35021SOL     OW 6959   1.863   6.438  14.225
35021SOL    HW1 6960   1.776   6.400  14.211
35021SOL    HW2 6961   1.922   6.384  14.173
35022SOL     OW 6962  11.559   1.660  12.718
35022SOL    HW1 6963  11.587   1.573  12.687
35022SOL    HW2 6964  11.493   1.687  12.655
35023SOL     OW 6965  12.348   8.939  13.452
35023SOL    HW1 6966  12.437   8.973  13.454
35023SOL    HW2 6967  12.295   9.009  13.489
35024SOL     OW 6968   6.861  10.804   4.269
35024SOL    HW1 6969   6.839  10.848   4.352
35024SOL    HW2 6970   6.957  10.811   4.263
35025SOL     OW 6971   7.764   6.687   9.315
35025SOL    HW1 6972   7.845   6.723   9.279
35025SOL    HW2 6973   7.726   6.636   9.244
35026SOL     OW 6974   0.402  12.002   0.923
35026SOL    HW1 6975   0.414  12.054   0.844
35026SOL    HW2 6976   0.427  11.914   0.898
35027SOL     OW 6977   9.449   3.222  12.907
35027SOL    HW1 6978   9.477   3.140  12.947
35027SOL    HW2 6979   9.480   3.290  12.967
35028SOL     OW 6980  11.917  13.627   0.640
35028SOL    HW1 6981  11.860  13.673   0.701
35028SOL    HW2 6982  11.898  13.535   0.654
35029SOL     OW 6983   1.323  14.620   5.234
35029SOL    HW1 6984   1.306  14.531   5.263
35029SOL    HW2 6985   1.240  14.666   5.248
35030SOL     OW 6986  13.589   8.093   4.082
35030SOL    HW1 6987  13.657   8.031   4.056
35030SOL    HW2 6988  13.547   8.118   3.999
35031SOL     OW 6989  14.020   6.419  10.729
35031SOL    HW1 6990  14.036   6.505  10.689
35031SOL    HW2 6991  14.101   6.371  10.712
35032SOL     OW 6992  11.988   8.646  11.426
35032SOL    HW1 6993  12.064   8.599  11.393
35032SOL    HW2 6994  11.913   8.592  11.400
35033SOL     OW 6995   3.827  12.383   0.706
35033SOL    HW1 6996   3.811  12.474   0.680
35033SOL    HW2 6997   3.915  12.364   0.672
35034SOL     OW 6998  14.402  12.290   7.111
35034SOL    HW1 6999  14.366  12.205   7.136
35034SOL    HW2 7000  14.330  12.334   7.066
35035SOL     OW 7001   2.524   9.834   5.163
35035SOL    HW1 7002   2.552   9.812   5.074
35035SOL    HW2 7003   2.530   9.751   5.211
35036SOL     OW 7004   3.265  10.577   2.780
35036SOL    HW1 7005   3.215  10.562   2.859
35036SOL    HW2 7006   3.314  10.496   2.767
35037SOL     OW 7007   8.359   7.979   3.330
35037SOL    HW1 7008   8.435   7.983   3.272
35037SOL    HW2 7009   8.395   7.992   3.418
35038SOL     OW 7010  10.500   3.768  11.102
35038SOL    HW1 7011  10.448   3.771  11.022
35038SOL    HW2 7012  10.587   3.797  11.075
35039SOL     OW 7013   1.204   1.403   4.776
35039SOL    HW1 7014   1.189   1.314   4.743
35039SOL    HW2 7015   1.279   1.395   4.834
35040SOL     OW 7016  12.273   4.582  12.429
35040SOL    HW1 7017  12.296   4.655  12.372
35040SOL    HW2 7018  12.331   4.511  12.402
35041SOL     OW 7019   5.585  12.433   3.372
35041SOL    HW1 7020   5.667  12.466   3.334
35041SOL    HW2 7021   5.530  12.510   3.380
35042SOL     OW 7022  12.262  12.718  11.917
35042SOL    HW1 7023  12.331  12.775  11.882
35042SOL    HW2 7024  12.230  12.671  11.840
35043SOL     OW 7025  10.207   9.129   2.485
35043SOL    HW1 7026  10.199   9.179   2.566
35043SOL    HW2 7027  10.150   9.174   2.423
35044SOL     OW 7028   2.356   5.120   1.131
35044SOL    HW1 7029   2.331   5.157   1.046
35044SOL    HW2 7030   2.441   5.080   1.115
35045SOL     OW 7031  10.277   4.922  12.541
35045SOL    HW1 7032  10.297   5.014  12.557
35045SOL    HW2 7033  10.185   4.913  12.565
35046SOL     OW 7034  13.623   3.195   6.085
35046SOL    HW1 7035  13.695   3.197   6.148
35046SOL    HW2 7036  13.548   3.231   6.133
35047SOL     OW 7037  11.097  12.585   1.792
35047SOL    HW1 7038  11.056  12.530   1.858
35047SOL    HW2 7039  11.191  12.572   1.805
35048SOL     OW 7040   4.122  11.695   3.376
35048SOL    HW1 7041   4.065  11.655   3.441
35048SOL    HW2 7042   4.211  11.679   3.408
35049SOL     OW 7043   8.909  10.597   7.574
35049SOL    HW1 7044   8.941  10.590   7.664
35049SOL    HW2 7045   8.814  10.606   7.582
35050SOL     OW 7046   4.162   7.208  12.348
35050SOL    HW1 7047   4.083   7.154  12.341
35050SOL    HW2 7048   4.210   7.171  12.422
35051SOL     OW 7049   1.847   5.869   8.378
35051SOL    HW1 7050   1.869   5.948   8.329
35051SOL    HW2 7051   1.810   5.900   8.460
35052SOL     OW 7052  10.586  13.155  14.724
35052SOL    HW1 7053  10.508  13.148  14.780
35052SOL    HW2 7054  10.659  13.134  14.782
35053SOL     OW 7055   4.021  12.800   8.431
35053SOL    HW1 7056   4.009  12.768   8.342
35053SOL    HW2 7057   4.107  12.843   8.430
35054SOL     OW 7058  10.971  10.529  12.090
35054SOL    HW1 7059  10.879  10.504  12.098
35054SOL    HW2 7060  11.016  10.448  12.066
35055SOL     OW 7061   8.563   0.390  13.917
35055SOL    HW1 7062   8.470   0.408  13.931
35055SOL    HW2 7063   8.600   0.473  13.887
35056SOL     OW 7064   2.723   5.949  14.461
35056SOL    HW1 7065   2.708   5.876  14.402
35056SOL    HW2 7066   2.793   5.919  14.519
35057SOL     OW 7067  12.549   9.657   4.742
35057SOL    HW1 7068  12.472   9.712   4.755
35057SOL    HW2 7069  12.521   9.569   4.769
35058SOL     OW 7070  13.884   3.330   3.923
35058SOL    HW1 7071  13.799   3.360   3.957
35058SOL    HW2 7072  13.865   3.244   3.885
35059SOL     OW 7073   1.358   2.754   0.753
35059SOL    HW1 7074   1.448   2.787   0.751
35059SOL    HW2 7075   1.342   2.737   0.846
35060SOL     OW 7076   3.876  10.732   9.085
35060SOL    HW1 7077   3.835  10.770   9.008
35060SOL    HW2 7078   3.819  10.660   9.111
35061SOL     OW 7079  12.024   1.265   5.804
35061SOL    HW1 7080  11.937   1.303   5.790
35061SOL    HW2 7081  12.085   1.337   5.784
35062SOL     OW 7082   6.699   8.005   0.780
35062SOL    HW1 7083   6.741   8.080   0.737
35062SOL    HW2 7084   6.607   8.030   0.786
35063SOL     OW 7085   9.927   1.462  14.371
35063SOL    HW1 7086   9.916   1.377  14.412
35063SOL    HW2 7087   9.998   1.504  14.419
35064SOL     OW 7088   3.941  14.111  11.593
35064SOL    HW1 7089   3.878  14.087  11.524
35064SOL    HW2 7090   3.983  14.190  11.559
35065SOL     OW 7091   0.268   2.690  11.059
35065SOL    HW1 7092   0.207   2.665  11.128
35065SOL    HW2 7093   0.343   2.727  11.106
35066SOL     OW 7094  14.772   7.117   8.681
35066SOL    HW1 7095  14.842   7.141   8.619
35066SOL    HW2 7096  14.729   7.042   8.641
35067SOL     OW 7097   5.381   2.451  11.849
35067SOL    HW1 7098   5.388   2.357  11.832
35067SOL    HW2 7099   5.463   2.487  11.814
35068SOL     OW 7100  14.440   3.458  14.710
35068SOL    HW1 7101  14.457   3.427  14.621
35068SOL    HW2 7102  14.460   3.551  14.708
35069SOL     OW 7103   5.470  12.597   8.411
35069SOL    HW1 7104   5.543  12.647   8.449
35069SOL    HW2 7105   5.487  12.598   8.317
35070SOL     OW 7106   1.890   9.203   4.738
35070SOL    HW1 7107   1.860   9.155   4.815
35070SOL    HW2 7108   1.926   9.136   4.681
35071SOL     OW 7109  10.931  11.330   4.169
35071SOL    HW1 7110  10.865  11.263   4.154
35071SOL    HW2 7111  10.886  11.396   4.223
35072SOL     OW 7112   8.797   3.394   5.296
35072SOL    HW1 7113   8.802   3.472   5.241
35072SOL    HW2 7114   8.728   3.414   5.359
35073SOL     OW 7115   2.712  13.483  10.661
35073SOL    HW1 7116   2.631  13.440  10.636
35073SOL    HW2 7117   2.782  13.425  10.630
35074SOL     OW 7118   9.192   7.955  10.092
35074SOL    HW1 7119   9.170   7.912  10.174
35074SOL    HW2 7120   9.110   7.952  10.042
35075SOL     OW 7121  11.575  11.686   8.132
35075SOL    HW1 7122  11.527  11.604   8.128
35075SOL    HW2 7123  11.525  11.747   8.078
35076SOL     OW 7124  11.939   7.564   4.043
35076SOL    HW1 7125  11.879   7.539   4.113
35076SOL    HW2 7126  11.961   7.655   4.061
35077SOL     OW 7127   6.360   9.694   0.718
35077SOL    HW1 7128   6.320   9.656   0.640
35077SOL    HW2 7129   6.410   9.768   0.685
35078SOL     OW 7130   7.182  10.818   0.753
35078SOL    HW1 7131   7.271  10.788   0.771
35078SOL    HW2 7132   7.163  10.789   0.664
35079SOL     OW 7133   4.505   4.552   9.510
35079SOL    HW1 7134   4.444   4.486   9.476
35079SOL    HW2 7135   4.592   4.517   9.489
35080SOL     OW 7136  12.728  10.705  14.037
35080SOL    HW1 7137  12.744  10.663  14.122
35080SOL    HW2 7138  12.725  10.799  14.057
35081SOL     OW 7139   1.116  10.104   8.524
35081SOL    HW1 7140   1.072  10.178   8.566
35081SOL    HW2 7141   1.053  10.072   8.459
35082SOL     OW 7142   3.545   2.085   4.737
35082SOL    HW1 7143   3.527   1.992   4.726
35082SOL    HW2 7144   3.542   2.120   4.648
35083SOL     OW 7145   7.727   6.039  11.623
35083SOL    HW1 7146   7.735   5.958  11.673
35083SOL    HW2 7147   7.754   6.015  11.534
35084SOL     OW 7148   2.475   8.822  13.505
35084SOL    HW1 7149   2.423   8.900  13.486
35084SOL    HW2 7150   2.553   8.831  13.451
35085SOL     OW 7151  14.679   4.828   2.028
35085SOL    HW1 7152  14.613   4.870   1.973
35085SOL    HW2 7153  14.629   4.778   2.092
35086SOL     OW 7154   5.475  12.205   3.427
35086SOL    HW1 7155   5.432  12.221   3.511
35086SOL    HW2 7156   5.508  12.291   3.401
35087SOL     OW 7157  12.018   0.070  12.651
35087SOL    HW1 7158  11.939   0.122  12.638
35087SOL    HW2 7159  11.996   0.012  12.724
35088SOL     OW 7160   6.051   9.601  11.051
35088SOL    HW1 7161   5.956   9.599  11.066
35088SOL    HW2 7162   6.086   9.648  11.126
35089SOL     OW 7163   1.915  12.422  10.466
35089SOL    HW1 7164   1.913  12.443  10.559
35089SOL    HW2 7165   1.866  12.340  10.459
35090SOL     OW 7166   1.445   6.224   2.084
35090SOL    HW1 7167   1.386   6.299   2.079
35090SOL    HW2 7168   1.491   6.235   2.168
35091SOL     OW 7169   9.919   4.076  10.566
35091SOL    HW1 7170   9.966   4.017  10.626
35091SOL    HW2 7171   9.904   4.155  10.618
35092SOL     OW 7172   5.206  13.408   9.707
35092SOL    HW1 7173   5.210  13.398   9.802
35092SOL    HW2 7174   5.297  13.396   9.677
35093SOL     OW 7175  10.158   9.006   3.558
35093SOL    HW1 7176  10.096   8.990   3.629
35093SOL    HW2 7177  10.225   9.062   3.597
35094SOL     OW 7178  10.339   7.122   2.295
35094SOL    HW1 7179  10.377   7.199   2.253
35094SOL    HW2 7180  10.244   7.136   2.289
35095SOL     OW 7181  11.933   4.522   8.729
35095SOL    HW1 7182  11.984   4.591   8.771
35095SOL    HW2 7183  11.910   4.558   8.643
35096SOL     OW 7184  14.290   6.234   6.028
35096SOL    HW1 7185  14.262   6.314   6.071
35096SOL    HW2 7186  14.328   6.262   5.945
35097SOL     OW 7187   5.953   0.983   2.527
35097SOL    HW1 7188   5.990   1.037   2.596
35097SOL    HW2 7189   6.018   0.916   2.511
35098SOL     OW 7190   2.863   3.551   3.884
35098SOL    HW1 7191   2.797   3.620   3.893
35098SOL    HW2 7192   2.860   3.527   3.791
35099SOL     OW 7193  14.865   7.841   5.266
35099SOL    HW1 7194   0.053   7.916   5.254
35099SOL    HW2 7195  14.850   7.838   5.361
35100SOL     OW 7196  14.207   0.833  10.798
35100SOL    HW1 7197  14.171   0.838  10.886
35100SOL    HW2 7198  14.164   0.756  10.759
35101SOL     OW 7199   2.019  12.088   1.402
35101SOL    HW1 7200   2.020  12.073   1.308
35101SOL    HW2 7201   2.108  12.117   1.423
35102SOL     OW 7202  13.839  12.851   7.289
35102SOL    HW1 7203  13.748  12.879   7.303
35102SOL    HW2 7204  13.891  12.928   7.312
35103SOL     OW 7205   3.618  14.327   5.419
35103SOL    HW1 7206   3.613  14.423   5.415
35103SOL    HW2 7207   3.640  14.308   5.510
35104SOL     OW 7208   7.924  11.537  14.092
35104SOL    HW1 7209   7.832  11.563  14.104
35104SOL    HW2 7210   7.942  11.555  14.000
35105SOL     OW 7211  10.754  13.277  14.184
35105SOL    HW1 7212  10.701  13.322  14.250
35105SOL    HW2 7213  10.713  13.191  14.175
35106SOL     OW 7214   2.501   5.918   0.726
35106SOL    HW1 7215   2.450   5.851   0.682
35106SOL    HW2 7216   2.512   5.988   0.661
35107SOL     OW 7217   2.814  11.512  12.430
35107SOL    HW1 7218   2.883  11.578  12.428
35107SOL    HW2 7219   2.815  11.480  12.521
35108SOL     OW 7220  11.839  13.464   3.665
35108SOL    HW1 7221  11.802  13.496   3.583
35108SOL    HW2 7222  11.931  13.445   3.644
35109SOL     OW 7223   2.195   3.615   0.662
35109SOL    HW1 7224   2.222   3.680   0.727
35109SOL    HW2 7225   2.118   3.653   0.620
35110SOL     OW 7226  11.731   6.617   5.281
35110SOL    HW1 7227  11.697   6.593   5.195
35110SOL    HW2 7228  11.820   6.649   5.264
35111SOL     OW 7229   7.037   3.307   5.458
35111SOL    HW1 7230   6.987   3.247   5.514
35111SOL    HW2 7231   6.988   3.389   5.462
35112SOL     OW 7232  10.552   0.023   8.788
35112SOL    HW1 7233  10.577   0.113   8.766
35112SOL    HW2 7234  10.595   0.006   8.871
35113SOL     OW 7235   5.796   7.623  11.050
35113SOL    HW1 7236   5.798   7.715  11.077
35113SOL    HW2 7237   5.710   7.612  11.008
35114SOL     OW 7238  10.103  14.310  12.957
35114SOL    HW1 7239  10.055  14.384  12.919
35114SOL    HW2 7240  10.179  14.351  12.998
35115SOL     OW 7241  11.023   3.775   5.671
35115SOL    HW1 7242  11.083   3.705   5.647
35115SOL    HW2 7243  11.071   3.856   5.652
35116SOL     OW 7244   4.476  10.377   8.323
35116SOL    HW1 7245   4.535  10.407   8.253
35116SOL    HW2 7246   4.392  10.418   8.302
35117SOL     OW 7247  12.398   1.212   2.424
35117SOL    HW1 7248  12.390   1.119   2.444
35117SOL    HW2 7249  12.440   1.215   2.338
35118SOL     OW 7250   4.611   6.428  10.695
35118SOL    HW1 7251   4.520   6.401  10.711
35118SOL    HW2 7252   4.663   6.357  10.734
35119SOL     OW 7253   5.549   2.483  11.346
35119SOL    HW1 7254   5.603   2.544  11.297
35119SOL    HW2 7255   5.540   2.523  11.433
35120SOL     OW 7256   3.512   4.026   9.126
35120SOL    HW1 7257   3.590   4.078   9.107
35120SOL    HW2 7258   3.482   4.057   9.211
35121SOL     OW 7259   8.954  14.252   2.199
35121SOL    HW1 7260   8.931  14.258   2.107
35121SOL    HW2 7261   8.963  14.159   2.216
35122SOL     OW 7262   7.545   4.151   1.321
35122SOL    HW1 7263   7.453   4.147   1.293
35122SOL    HW2 7264   7.541   4.193   1.407
35123SOL     OW 7265  10.107  12.083   1.262
35123SOL    HW1 7266  10.104  12.109   1.354
35123SOL    HW2 7267  10.162  12.004   1.261
35124SOL     OW 7268   8.955   9.417  11.025
35124SOL    HW1 7269   8.861   9.405  11.037
35124SOL    HW2 7270   8.964   9.447  10.935
35125SOL     OW 7271  12.030  13.506   9.462
35125SOL    HW1 7272  12.036  13.599   9.483
35125SOL    HW2 7273  12.093  13.464   9.521
35126SOL     OW 7274   5.934   9.377   8.794
35126SOL    HW1 7275   5.931   9.285   8.820
35126SOL    HW2 7276   5.902   9.378   8.704
35127SOL     OW 7277   6.588   9.963   6.907
35127SOL    HW1 7278   6.628   9.988   6.824
35127SOL    HW2 7279   6.629   9.878   6.927
35128SOL     OW 7280   6.916  14.352   9.118
35128SOL    HW1 7281   6.883  14.384   9.034
35128SOL    HW2 7282   6.929  14.432   9.170
35129SOL     OW 7283  13.752   9.386  13.675
35129SOL    HW1 7284  13.766   9.453  13.608
35129SOL    HW2 7285  13.670   9.411  13.717
35130SOL     OW 7286   8.477  11.231  11.802
35130SOL    HW1 7287   8.441  11.151  11.839
35130SOL    HW2 7288   8.415  11.299  11.827
35131SOL     OW 7289  14.121   3.516   3.019
35131SOL    HW1 7290  14.044   3.479   3.062
35131SOL    HW2 7291  14.114   3.610   3.034
35132SOL     OW 7292   6.862  10.983  13.453
35132SOL    HW1 7293   6.786  11.027  13.493
35132SOL    HW2 7294   6.887  10.917  13.517
35133SOL     OW 7295   6.333  11.927   6.994
35133SOL    HW1 7296   6.332  11.935   6.898
35133SOL    HW2 7297   6.404  11.984   7.022
35134SOL     OW 7298  11.379  10.613  12.539
35134SOL    HW1 7299  11.475  10.617  12.537
35134SOL    HW2 7300  11.353  10.624  12.448
35135SOL     OW 7301   0.823   1.927  11.368
35135SOL    HW1 7302   0.850   1.836  11.381
35135SOL    HW2 7303   0.731   1.929  11.395
35136SOL     OW 7304   8.171   7.136  14.408
35136SOL    HW1 7305   8.218   7.066  14.362
35136SOL    HW2 7306   8.235   7.174  14.468
35137SOL     OW 7307   8.258   7.963   6.812
35137SOL    HW1 7308   8.211   7.921   6.741
35137SOL    HW2 7309   8.195   7.967   6.884
35138SOL     OW 7310  13.019   6.319   8.211
35138SOL    HW1 7311  13.075   6.242   8.207
35138SOL    HW2 7312  13.060   6.381   8.150
35139SOL     OW 7313  11.728   9.666   9.071
35139SOL    HW1 7314  11.648   9.716   9.086
35139SOL    HW2 7315  11.781   9.721   9.013
35140SOL     OW 7316   6.688   7.009   7.239
35140SOL    HW1 7317   6.781   7.025   7.226
35140SOL    HW2 7318   6.685   6.939   7.305
35141SOL     OW 7319   4.776  11.192   5.611
35141SOL    HW1 7320   4.749  11.101   5.598
35141SOL    HW2 7321   4.697  11.237   5.640
35142SOL     OW 7322   0.983   2.170   4.964
35142SOL    HW1 7323   0.961   2.202   4.876
35142SOL    HW2 7324   0.939   2.085   4.970
35143SOL     OW 7325  10.231   8.616  12.884
35143SOL    HW1 7326  10.241   8.572  12.969
35143SOL    HW2 7327  10.151   8.668  12.894
35144SOL     OW 7328  14.326  10.910   9.280
35144SOL    HW1 7329  14.255  10.902   9.343
35144SOL    HW2 7330  14.337  11.004   9.267
35145SOL     OW 7331  11.619   1.839  13.906
35145SOL    HW1 7332  11.528   1.831  13.880
35145SOL    HW2 7333  11.651   1.749  13.912
35146SOL     OW 7334  13.060   2.089   1.310
35146SOL    HW1 7335  13.085   2.165   1.258
35146SOL    HW2 7336  13.050   2.123   1.399
35147SOL     OW 7337   3.627  14.241   4.831
35147SOL    HW1 7338   3.642  14.267   4.922
35147SOL    HW2 7339   3.600  14.150   4.837
35148SOL     OW 7340   6.076  13.047   4.241
35148SOL    HW1 7341   6.121  13.077   4.162
35148SOL    HW2 7342   6.080  13.121   4.301
35149SOL     OW 7343  10.364   2.246   6.898
35149SOL    HW1 7344  10.269   2.249   6.889
35149SOL    HW2 7345  10.381   2.171   6.955
35150SOL     OW 7346   8.155   9.185   0.534
35150SOL    HW1 7347   8.117   9.202   0.448
35150SOL    HW2 7348   8.201   9.101   0.523
35151SOL     OW 7349  13.815  12.444   6.016
35151SOL    HW1 7350  13.797  12.534   6.043
35151SOL    HW2 7351  13.864  12.452   5.934
35152SOL     OW 7352   6.651   1.519   7.356
35152SOL    HW1 7353   6.631   1.613   7.356
35152SOL    HW2 7354   6.696   1.504   7.439
35153SOL     OW 7355   9.925   1.522   0.919
35153SOL    HW1 7356   9.872   1.600   0.906
35153SOL    HW2 7357   9.888   1.482   0.998
35154SOL     OW 7358  14.292   5.455   5.251
35154SOL    HW1 7359  14.300   5.549   5.271
35154SOL    HW2 7360  14.379   5.419   5.267
35155SOL     OW 7361   8.279   0.541   6.766
35155SOL    HW1 7362   8.289   0.598   6.690
35155SOL    HW2 7363   8.341   0.470   6.751
35156SOL     OW 7364  13.784   6.203   8.292
35156SOL    HW1 7365  13.785   6.126   8.235
35156SOL    HW2 7366  13.697   6.202   8.332
35157SOL     OW 7367  12.725  11.877   7.605
35157SOL    HW1 7368  12.665  11.943   7.641
35157SOL    HW2 7369  12.807  11.893   7.651
35158SOL     OW 7370   7.853  13.793   9.235
35158SOL    HW1 7371   7.865  13.862   9.170
35158SOL    HW2 7372   7.759  13.774   9.233
35159SOL     OW 7373  14.665  13.095  13.142
35159SOL    HW1 7374  14.621  13.049  13.213
35159SOL    HW2 7375  14.632  13.185  13.148
35160SOL     OW 7376   9.719   6.656   4.152
35160SOL    HW1 7377   9.725   6.669   4.057
35160SOL    HW2 7378   9.678   6.736   4.185
35161SOL     OW 7379   0.630   2.530   3.196
35161SOL    HW1 7380   0.582   2.613   3.209
35161SOL    HW2 7381   0.587   2.490   3.121
35162SOL     OW 7382   7.979  13.808   4.988
35162SOL    HW1 7383   8.017  13.724   5.012
35162SOL    HW2 7384   7.975  13.857   5.070
35163SOL     OW 7385  12.954   1.488   0.731
35163SOL    HW1 7386  12.920   1.539   0.805
35163SOL    HW2 7387  12.880   1.436   0.701
35164SOL     OW 7388  13.364   7.961  10.370
35164SOL    HW1 7389  13.395   8.042  10.409
35164SOL    HW2 7390  13.353   7.981  10.277
35165SOL     OW 7391   2.159   0.036   0.600
35165SOL    HW1 7392   2.123   0.124   0.614
35165SOL    HW2 7393   2.231   0.049   0.539
35166SOL     OW 7394  11.260   4.656   1.503
35166SOL    HW1 7395  11.335   4.701   1.542
35166SOL    HW2 7396  11.186   4.682   1.557
35167SOL     OW 7397   4.048   5.426   9.985
35167SOL    HW1 7398   4.051   5.490  10.055
35167SOL    HW2 7399   3.967   5.446   9.937
35168SOL     OW 7400   2.015  13.950   9.434
35168SOL    HW1 7401   2.078  14.010   9.393
35168SOL    HW2 7402   2.047  13.937   9.523
35169SOL     OW 7403  13.232   9.502   0.832
35169SOL    HW1 7404  13.275   9.542   0.757
35169SOL    HW2 7405  13.191   9.575   0.879
35170SOL     OW 7406  14.675   9.863   7.583
35170SOL    HW1 7407  14.766   9.849   7.610
35170SOL    HW2 7408  14.679   9.936   7.521
35171SOL     OW 7409   2.561   5.974   7.233
35171SOL    HW1 7410   2.629   6.029   7.273
35171SOL    HW2 7411   2.606   5.892   7.211
35172SOL     OW 7412   5.737   3.810   9.503
35172SOL    HW1 7413   5.688   3.739   9.460
35172SOL    HW2 7414   5.828   3.781   9.499
35173SOL     OW 7415   2.026   8.135  14.449
35173SOL    HW1 7416   1.940   8.109  14.415
35173SOL    HW2 7417   2.089   8.095  14.390
35174SOL     OW 7418   2.985   4.047  11.324
35174SOL    HW1 7419   2.915   4.010  11.270
35174SOL    HW2 7420   3.066   4.007  11.289
35175SOL     OW 7421   0.751   5.056   1.028
35175SOL    HW1 7422   0.736   5.035   0.936
35175SOL    HW2 7423   0.669   5.034   1.072
35176SOL     OW 7424   2.007   8.979   3.173
35176SOL    HW1 7425   2.070   9.030   3.224
35176SOL    HW2 7426   1.935   8.961   3.234
35177SOL     OW 7427   3.314  13.129   7.454
35177SOL    HW1 7428   3.354  13.141   7.368
35177SOL    HW2 7429   3.268  13.045   7.448
35178SOL     OW 7430  13.659   9.318   7.613
35178SOL    HW1 7431  13.752   9.340   7.622
35178SOL    HW2 7432  13.648   9.299   7.520
35179SOL     OW 7433  13.472  13.096   8.266
35179SOL    HW1 7434  13.424  13.148   8.201
35179SOL    HW2 7435  13.404  13.068   8.328
35180SOL     OW 7436   3.712   7.510   4.726
35180SOL    HW1 7437   3.679   7.594   4.696
35180SOL    HW2 7438   3.772   7.531   4.798
35181SOL     OW 7439   4.531   1.000   7.421
35181SOL    HW1 7440   4.512   1.061   7.492
35181SOL    HW2 7441   4.454   0.944   7.416
35182SOL     OW 7442  10.389   4.096   0.180
35182SOL    HW1 7443  10.470   4.126   0.220
35182SOL    HW2 7444  10.404   4.105   0.086
35183SOL     OW 7445  14.205   2.874   8.398
35183SOL    HW1 7446  14.190   2.944   8.462
35183SOL    HW2 7447  14.299   2.879   8.379
35184SOL     OW 7448   8.369  11.167  13.701
35184SOL    HW1 7449   8.359  11.252  13.743
35184SOL    HW2 7450   8.394  11.108  13.771
35185SOL     OW 7451   1.488  10.106   5.522
35185SOL    HW1 7452   1.436  10.170   5.571
35185SOL    HW2 7453   1.484  10.136   5.431
35186SOL     OW 7454  13.104   6.828  11.981
35186SOL    HW1 7455  13.146   6.744  11.996
35186SOL    HW2 7456  13.087   6.863  12.068
35187SOL     OW 7457   2.406  11.476   5.107
35187SOL    HW1 7458   2.477  11.435   5.058
35187SOL    HW2 7459   2.391  11.560   5.063
35188SOL     OW 7460  12.143   8.615   5.688
35188SOL    HW1 7461  12.179   8.598   5.601
35188SOL    HW2 7462  12.211   8.664   5.733
35189SOL     OW 7463  12.004   8.928  14.046
35189SOL    HW1 7464  12.015   8.897  13.956
35189SOL    HW2 7465  12.087   8.969  14.067
35190SOL     OW 7466   0.573  14.058   5.101
35190SOL    HW1 7467   0.658  14.045   5.058
35190SOL    HW2 7468   0.508  14.039   5.033
35191SOL     OW 7469  10.052   0.807  11.157
35191SOL    HW1 7470  10.008   0.725  11.180
35191SOL    HW2 7471  10.105   0.828  11.233
35192SOL     OW 7472  10.043   1.989  10.726
35192SOL    HW1 7473   9.985   2.042  10.672
35192SOL    HW2 7474  10.006   1.901  10.722
35193SOL     OW 7475  11.836  12.224   9.284
35193SOL    HW1 7476  11.781  12.167   9.231
35193SOL    HW2 7477  11.775  12.276   9.336
35194SOL     OW 7478  13.115   4.526   7.887
35194SOL    HW1 7479  13.039   4.487   7.844
35194SOL    HW2 7480  13.079   4.571   7.963
35195SOL     OW 7481   5.864  13.679  10.488
35195SOL    HW1 7482   5.925  13.742  10.450
35195SOL    HW2 7483   5.904  13.594  10.471
35196SOL     OW 7484   5.447   5.271   0.483
35196SOL    HW1 7485   5.427   5.350   0.433
35196SOL    HW2 7486   5.374   5.262   0.544
35197SOL     OW 7487   5.095   1.463  13.654
35197SOL    HW1 7488   5.175   1.414  13.636
35197SOL    HW2 7489   5.122   1.555  13.654
35198SOL     OW 7490   0.205  14.420   5.631
35198SOL    HW1 7491   0.229  14.363   5.558
35198SOL    HW2 7492   0.127  14.466   5.601
35199SOL     OW 7493  10.875   2.159  11.818
35199SOL    HW1 7494  10.858   2.249  11.847
35199SOL    HW2 7495  10.792   2.130  11.780
35200SOL     OW 7496   7.944  13.024   1.495
35200SOL    HW1 7497   8.026  13.000   1.538
35200SOL    HW2 7498   7.880  13.028   1.566
35201SOL     OW 7499   7.480  13.659  12.681
35201SOL    HW1 7500   7.394  13.620  12.696
35201SOL    HW2 7501   7.462  13.736  12.627
35202SOL     OW 7502  12.348   6.705   4.147
35202SOL    HW1 7503  12.265   6.719   4.193
35202SOL    HW2 7504  12.323   6.684   4.057
35203SOL     OW 7505   0.724   4.905   6.095
35203SOL    HW1 7506   0.731   4.834   6.031
35203SOL    HW2 7507   0.650   4.957   6.064
35204SOL     OW 7508   1.047   1.130   8.572
35204SOL    HW1 7509   0.995   1.071   8.518
35204SOL    HW2 7510   1.131   1.086   8.583
35205SOL     OW 7511  10.309   7.651  14.130
35205SOL    HW1 7512  10.304   7.556  14.127
35205SOL    HW2 7513  10.334   7.677  14.041
35206SOL     OW 7514   6.584   1.704   8.825
35206SOL    HW1 7515   6.524   1.711   8.899
35206SOL    HW2 7516   6.533   1.661   8.756
35207SOL     OW 7517   0.098   3.059  14.097
35207SOL    HW1 7518   0.053   3.001  14.158
35207SOL    HW2 7519   0.107   3.008  14.017
35208SOL     OW 7520   1.021   2.331   8.061
35208SOL    HW1 7521   1.115   2.313   8.052
35208SOL    HW2 7522   1.010   2.421   8.029
35209SOL     OW 7523   1.781  12.457   9.745
35209SOL    HW1 7524   1.784  12.368   9.710
35209SOL    HW2 7525   1.825  12.451   9.830
35210SOL     OW 7526   5.904   7.666   5.252
35210SOL    HW1 7527   5.854   7.747   5.260
35210SOL    HW2 7528   5.838   7.597   5.255
35211SOL     OW 7529  12.128   7.708   5.040
35211SOL    HW1 7530  12.177   7.781   5.003
35211SOL    HW2 7531  12.038   7.721   5.010
35212SOL     OW 7532   1.483   7.084   9.095
35212SOL    HW1 7533   1.455   7.011   9.040
35212SOL    HW2 7534   1.477   7.161   9.039
35213SOL     OW 7535   9.527   8.451   1.559
35213SOL    HW1 7536   9.523   8.434   1.653
35213SOL    HW2 7537   9.614   8.486   1.544
35214SOL     OW 7538   9.164   1.636   1.362
35214SOL    HW1 7539   9.096   1.586   1.408
35214SOL    HW2 7540   9.166   1.598   1.274
35215SOL     OW 7541  12.194  11.682  14.404
35215SOL    HW1 7542  12.237  11.686  14.489
35215SOL    HW2 7543  12.115  11.630  14.419
35216SOL     OW 7544   7.332   7.231  12.020
35216SOL    HW1 7545   7.417   7.275  12.030
35216SOL    HW2 7546   7.272   7.301  11.993
35217SOL     OW 7547   9.380   9.096   2.164
35217SOL    HW1 7548   9.474   9.092   2.146
35217SOL    HW2 7549   9.356   9.005   2.183
35218SOL     OW 7550  10.148   3.608   0.377
35218SOL    HW1 7551  10.209   3.680   0.392
35218SOL    HW2 7552  10.097   3.635   0.301
35219SOL     OW 7553   9.810   6.209  14.306
35219SOL    HW1 7554   9.730   6.213  14.359
35219SOL    HW2 7555   9.879   6.237  14.366
35220SOL     OW 7556  14.268   1.963   7.436
35220SOL    HW1 7557  14.200   1.942   7.372
35220SOL    HW2 7558  14.348   1.927   7.397
35221SOL     OW 7559   7.047   3.142   7.426
35221SOL    HW1 7560   7.027   3.052   7.451
35221SOL    HW2 7561   7.092   3.178   7.503
35222SOL     OW 7562  10.127   0.370  10.689
35222SOL    HW1 7563  10.197   0.425  10.654
35222SOL    HW2 7564  10.093   0.420  10.763
35223SOL     OW 7565   6.083   4.419   6.216
35223SOL    HW1 7566   6.177   4.425   6.230
35223SOL    HW2 7567   6.069   4.451   6.127
35224SOL     OW 7568   0.763   9.888   0.267
35224SOL    HW1 7569   0.698   9.934   0.213
35224SOL    HW2 7570   0.757   9.929   0.353
35225SOL     OW 7571   9.803  11.879   2.424
35225SOL    HW1 7572   9.822  11.871   2.518
35225SOL    HW2 7573   9.845  11.960   2.397
35226SOL     OW 7574  11.809   2.134  10.648
35226SOL    HW1 7575  11.882   2.184  10.612
35226SOL    HW2 7576  11.749   2.123  10.573
35227SOL     OW 7577   1.393   3.806  12.436
35227SOL    HW1 7578   1.460   3.779  12.499
35227SOL    HW2 7579   1.412   3.898  12.419
35228SOL     OW 7580   6.304  13.320  11.561
35228SOL    HW1 7581   6.365  13.317  11.487
35228SOL    HW2 7582   6.232  13.262  11.536
35229SOL     OW 7583   0.921  11.738   0.113
35229SOL    HW1 7584   0.885  11.703   0.194
35229SOL    HW2 7585   0.970  11.665   0.075
35230SOL     OW 7586   9.343  13.516  14.713
35230SOL    HW1 7587   9.259  13.513  14.759
35230SOL    HW2 7588   9.400  13.566  14.772
35231SOL     OW 7589   9.639  11.646  13.968
35231SOL    HW1 7590   9.631  11.694  13.885
35231SOL    HW2 7591   9.552  11.651  14.007
35232SOL     OW 7592   6.925   3.247  12.216
35232SOL    HW1 7593   6.923   3.195  12.296
35232SOL    HW2 7594   6.848   3.304  12.222
35233SOL     OW 7595   9.624  13.411   4.445
35233SOL    HW1 7596   9.556  13.454   4.392
35233SOL    HW2 7597   9.579  13.386   4.525
35234SOL     OW 7598   1.497   8.638   8.696
35234SOL    HW1 7599   1.419   8.693   8.689
35234SOL    HW2 7600   1.518   8.615   8.606
35235SOL     OW 7601   5.394   9.599   1.284
35235SOL    HW1 7602   5.478   9.554   1.273
35235SOL    HW2 7603   5.343   9.540   1.339
35236SOL     OW 7604  13.278  10.487  10.712
35236SOL    HW1 7605  13.211  10.480  10.644
35236SOL    HW2 7606  13.340  10.417  10.692
35237SOL     OW 7607  11.956   4.809  11.071
35237SOL    HW1 7608  11.915   4.732  11.109
35237SOL    HW2 7609  12.045   4.780  11.048
35238SOL     OW 7610  14.291   3.491   9.833
35238SOL    HW1 7611  14.328   3.505   9.746
35238SOL    HW2 7612  14.367   3.486   9.892
35239SOL     OW 7613   7.502   7.060   2.724
35239SOL    HW1 7614   7.501   7.042   2.818
35239SOL    HW2 7615   7.426   7.116   2.709
35240SOL     OW 7616   9.910  10.718   6.348
35240SOL    HW1 7617  10.004  10.736   6.350
35240SOL    HW2 7618   9.869  10.801   6.372
35241SOL     OW 7619  11.166   3.728   7.742
35241SOL    HW1 7620  11.223   3.801   7.764
35241SOL    HW2 7621  11.094   3.768   7.693
35242SOL     OW 7622   5.780  12.203   7.348
35242SOL    HW1 7623   5.724  12.235   7.277
35242SOL    HW2 7624   5.768  12.108   7.348
35243SOL     OW 7625  13.126   8.362  13.225
35243SOL    HW1 7626  13.136   8.289  13.164
35243SOL    HW2 7627  13.031   8.375  13.231
35244SOL     OW 7628  14.438  11.613   5.674
35244SOL    HW1 7629  14.477  11.699   5.690
35244SOL    HW2 7630  14.407  11.585   5.760
35245SOL     OW 7631   8.231  13.873  13.868
35245SOL    HW1 7632   8.311  13.924  13.871
35245SOL    HW2 7633   8.162  13.935  13.893
35246SOL     OW 7634  11.376  13.688   2.463
35246SOL    HW1 7635  11.319  13.765   2.469
35246SOL    HW2 7636  11.417  13.694   2.377
35247SOL     OW 7637   9.212  11.851   0.414
35247SOL    HW1 7638   9.206  11.765   0.371
35247SOL    HW2 7639   9.281  11.840   0.479
35248SOL     OW 7640   8.366   8.180   9.807
35248SOL    HW1 7641   8.436   8.153   9.747
35248SOL    HW2 7642   8.402   8.165   9.894
35249SOL     OW 7643   3.236  13.539   5.682
35249SOL    HW1 7644   3.239  13.512   5.774
35249SOL    HW2 7645   3.241  13.634   5.684
35250SOL     OW 7646  14.118   2.190  12.119
35250SOL    HW1 7647  14.061   2.255  12.078
35250SOL    HW2 7648  14.167   2.239  12.185
35251SOL     OW 7649   4.691  12.250   9.994
35251SOL    HW1 7650   4.646  12.177   9.951
35251SOL    HW2 7651   4.648  12.329   9.960
35252SOL     OW 7652  13.300   3.348   9.449
35252SOL    HW1 7653  13.336   3.400   9.520
35252SOL    HW2 7654  13.375   3.300   9.414
35253SOL     OW 7655   0.044   6.933   2.720
35253SOL    HW1 7656   0.137   6.925   2.698
35253SOL    HW2 7657   0.025   6.854   2.770
35254SOL     OW 7658   1.163  11.083   6.957
35254SOL    HW1 7659   1.093  11.141   6.987
35254SOL    HW2 7660   1.129  10.995   6.970
35255SOL     OW 7661   0.380   8.057   6.608
35255SOL    HW1 7662   0.352   8.142   6.576
35255SOL    HW2 7663   0.374   7.999   6.532
35256SOL     OW 7664   0.450   4.057   4.608
35256SOL    HW1 7665   0.541   4.037   4.630
35256SOL    HW2 7666   0.411   3.972   4.586
35257SOL     OW 7667   0.721  12.854  11.004
35257SOL    HW1 7668   0.765  12.938  10.992
35257SOL    HW2 7669   0.729  12.835  11.098
35258SOL     OW 7670   1.975   4.625   7.162
35258SOL    HW1 7671   1.950   4.693   7.100
35258SOL    HW2 7672   1.968   4.666   7.248
35259SOL     OW 7673   6.886   7.605  14.470
35259SOL    HW1 7674   6.881   7.647  14.556
35259SOL    HW2 7675   6.805   7.556  14.462
35260SOL     OW 7676   4.117   9.768   2.314
35260SOL    HW1 7677   4.023   9.783   2.325
35260SOL    HW2 7678   4.124   9.674   2.298
35261SOL     OW 7679  10.869  10.154   2.278
35261SOL    HW1 7680  10.961  10.180   2.281
35261SOL    HW2 7681  10.872  10.059   2.271
35262SOL     OW 7682   3.618   9.309  10.133
35262SOL    HW1 7683   3.591   9.361  10.057
35262SOL    HW2 7684   3.556   9.236  10.135
35263SOL     OW 7685   7.976   5.833   0.173
35263SOL    HW1 7686   7.995   5.890   0.098
35263SOL    HW2 7687   7.981   5.744   0.138
35264SOL     OW 7688   6.823   4.761  13.377
35264SOL    HW1 7689   6.780   4.678  13.356
35264SOL    HW2 7690   6.916   4.743  13.362
35265SOL     OW 7691   5.847   1.882  10.850
35265SOL    HW1 7692   5.936   1.918  10.852
35265SOL    HW2 7693   5.832   1.863  10.757
35266SOL     OW 7694   3.151  13.105   0.486
35266SOL    HW1 7695   3.193  13.045   0.547
35266SOL    HW2 7696   3.222  13.134   0.428
35267SOL     OW 7697  13.442  12.821   0.164
35267SOL    HW1 7698  13.422  12.800   0.073
35267SOL    HW2 7699  13.526  12.779   0.180
35268SOL     OW 7700  11.593   2.819  11.086
35268SOL    HW1 7701  11.590   2.823  10.991
35268SOL    HW2 7702  11.583   2.910  11.114
35269SOL     OW 7703   4.757   2.188  14.783
35269SOL    HW1 7704   4.833   2.134  14.806
35269SOL    HW2 7705   4.780   2.276  14.814
35270SOL     OW 7706   8.961  12.190   8.880
35270SOL    HW1 7707   9.025  12.210   8.812
35270SOL    HW2 7708   8.880  12.173   8.833
35271SOL     OW 7709   6.402   7.879   6.683
35271SOL    HW1 7710   6.420   7.801   6.735
35271SOL    HW2 7711   6.454   7.948   6.724
35272SOL     OW 7712   6.388  14.071  11.905
35272SOL    HW1 7713   6.316  14.021  11.945
35272SOL    HW2 7714   6.467  14.023  11.930
35273SOL     OW 7715   0.001   7.013   1.614
35273SOL    HW1 7716  14.797   7.050   1.663
35273SOL    HW2 7717  14.835   6.996   1.527
35274SOL     OW 7718  13.526   3.034   4.005
35274SOL    HW1 7719  13.552   3.099   4.070
35274SOL    HW2 7720  13.516   2.953   4.054
35275SOL     OW 7721   4.449   2.506   0.910
35275SOL    HW1 7722   4.494   2.495   0.994
35275SOL    HW2 7723   4.452   2.600   0.893
35276SOL     OW 7724   8.528  11.358   0.080
35276SOL    HW1 7725   8.519  11.291   0.148
35276SOL    HW2 7726   8.509  11.440   0.124
35277SOL     OW 7727   4.299   5.401  14.145
35277SOL    HW1 7728   4.282   5.486  14.187
35277SOL    HW2 7729   4.359   5.422  14.073
35278SOL     OW 7730   3.570   9.728  10.842
35278SOL    HW1 7731   3.573   9.761  10.753
35278SOL    HW2 7732   3.588   9.634  10.833
35279SOL     OW 7733   6.854  11.146   9.455
35279SOL    HW1 7734   6.782  11.152   9.392
35279SOL    HW2 7735   6.849  11.056   9.488
35280SOL     OW 7736   0.662   9.169   1.219
35280SOL    HW1 7737   0.679   9.128   1.304
35280SOL    HW2 7738   0.615   9.103   1.169
35281SOL     OW 7739   0.236  10.859   4.719
35281SOL    HW1 7740   0.281  10.919   4.778
35281SOL    HW2 7741   0.253  10.893   4.632
35282SOL     OW 7742   9.286  14.808   1.875
35282SOL    HW1 7743   9.225  14.846   1.938
35282SOL    HW2 7744   9.327   0.015   1.833
35283SOL     OW 7745  12.148   6.039   6.882
35283SOL    HW1 7746  12.089   6.113   6.896
35283SOL    HW2 7747  12.185   6.055   6.795
35284SOL     OW 7748   1.759   2.792  13.819
35284SOL    HW1 7749   1.722   2.829  13.899
35284SOL    HW2 7750   1.685   2.790  13.757
35285SOL     OW 7751   5.911  12.475   2.387
35285SOL    HW1 7752   5.878  12.431   2.308
35285SOL    HW2 7753   5.865  12.432   2.459
35286SOL     OW 7754  11.021   8.142   0.493
35286SOL    HW1 7755  11.030   8.049   0.471
35286SOL    HW2 7756  10.978   8.142   0.579
35287SOL     OW 7757   8.119   8.091   0.428
35287SOL    HW1 7758   8.070   8.026   0.479
35287SOL    HW2 7759   8.064   8.169   0.428
35288SOL     OW 7760   0.491   3.788   9.011
35288SOL    HW1 7761   0.487   3.715   8.949
35288SOL    HW2 7762   0.431   3.763   9.082
35289SOL     OW 7763   2.297   5.650  10.447
35289SOL    HW1 7764   2.284   5.721  10.510
35289SOL    HW2 7765   2.364   5.683  10.387
35290SOL     OW 7766   7.290   6.742   9.350
35290SOL    HW1 7767   7.252   6.830   9.352
35290SOL    HW2 7768   7.348   6.740   9.426
35291SOL     OW 7769   5.868   0.351  14.115
35291SOL    HW1 7770   5.951   0.329  14.074
35291SOL    HW2 7771   5.853   0.281  14.179
35292SOL     OW 7772  10.433   2.580   6.083
35292SOL    HW1 7773  10.384   2.647   6.036
35292SOL    HW2 7774  10.518   2.621   6.102
35293SOL     OW 7775   3.993  14.645   7.518
35293SOL    HW1 7776   4.019  14.702   7.590
35293SOL    HW2 7777   4.075  14.605   7.488
35294SOL     OW 7778  10.486  14.453  12.779
35294SOL    HW1 7779  10.525  14.485  12.861
35294SOL    HW2 7780  10.558  14.412  12.732
35295SOL     OW 7781  10.130   6.145   9.715
35295SOL    HW1 7782  10.180   6.227   9.724
35295SOL    HW2 7783  10.193   6.082   9.680
35296SOL     OW 7784   4.547   8.967  10.738
35296SOL    HW1 7785   4.636   8.945  10.768
35296SOL    HW2 7786   4.561   9.014  10.656
35297SOL     OW 7787   0.508   4.297   9.585
35297SOL    HW1 7788   0.426   4.343   9.571
35297SOL    HW2 7789   0.482   4.207   9.605
35298SOL     OW 7790  13.590   1.318  10.588
35298SOL    HW1 7791  13.597   1.268  10.507
35298SOL    HW2 7792  13.673   1.365  10.596
35299SOL     OW 7793  11.598   1.960   6.208
35299SOL    HW1 7794  11.510   1.997   6.217
35299SOL    HW2 7795  11.585   1.866   6.217
35300SOL     OW 7796   4.717   8.297   6.359
35300SOL    HW1 7797   4.678   8.377   6.396
35300SOL    HW2 7798   4.805   8.294   6.397
35301SOL     OW 7799   9.608   1.228   0.844
35301SOL    HW1 7800   9.640   1.237   0.755
35301SOL    HW2 7801   9.516   1.256   0.840
35302SOL     OW 7802   9.452   2.755   4.702
35302SOL    HW1 7803   9.413   2.727   4.785
35302SOL    HW2 7804   9.432   2.848   4.696
35303SOL     OW 7805   6.546  11.849   3.715
35303SOL    HW1 7806   6.570  11.793   3.788
35303SOL    HW2 7807   6.453  11.831   3.700
35304SOL     OW 7808   7.342   7.065   3.391
35304SOL    HW1 7809   7.341   7.042   3.485
35304SOL    HW2 7810   7.360   7.159   3.389
35305SOL     OW 7811  13.325   0.938  13.221
35305SOL    HW1 7812  13.378   0.976  13.290
35305SOL    HW2 7813  13.257   1.002  13.204
35306SOL     OW 7814   5.301  11.346  11.317
35306SOL    HW1 7815   5.378  11.299  11.284
35306SOL    HW2 7816   5.238  11.277  11.340
35307SOL     OW 7817   2.274  13.332  13.480
35307SOL    HW1 7818   2.354  13.373  13.512
35307SOL    HW2 7819   2.285  13.327  13.385
35308SOL     OW 7820   2.613  12.739   7.998
35308SOL    HW1 7821   2.596  12.645   8.000
35308SOL    HW2 7822   2.556  12.773   7.928
35309SOL     OW 7823   5.915   3.789   6.697
35309SOL    HW1 7824   5.867   3.871   6.703
35309SOL    HW2 7825   5.895   3.756   6.609
35310SOL     OW 7826  11.187   5.413  14.454
35310SOL    HW1 7827  11.279   5.433  14.468
35310SOL    HW2 7828  11.162   5.466  14.378
35311SOL     OW 7829  14.026   7.795   6.810
35311SOL    HW1 7830  14.111   7.825   6.842
35311SOL    HW2 7831  13.965   7.818   6.880
35312SOL     OW 7832  12.960   8.299   5.744
35312SOL    HW1 7833  13.004   8.378   5.775
35312SOL    HW2 7834  12.874   8.302   5.786
35313SOL     OW 7835   3.411   9.727  12.212
35313SOL    HW1 7836   3.353   9.704  12.284
35313SOL    HW2 7837   3.472   9.653  12.205
35314SOL     OW 7838  10.103  11.720  11.513
35314SOL    HW1 7839  10.069  11.697  11.600
35314SOL    HW2 7840  10.187  11.762  11.530
35315SOL     OW 7841   1.778   0.463  12.084
35315SOL    HW1 7842   1.812   0.440  11.998
35315SOL    HW2 7843   1.854   0.462  12.142
35316SOL     OW 7844  12.718   8.097  11.004
35316SOL    HW1 7845  12.710   8.099  11.100
35316SOL    HW2 7846  12.794   8.041  10.988
35317SOL     OW 7847   2.089   2.723   4.927
35317SOL    HW1 7848   2.150   2.744   4.857
35317SOL    HW2 7849   2.088   2.801   4.982
35318SOL     OW 7850  12.848  11.273   0.354
35318SOL    HW1 7851  12.756  11.270   0.329
35318SOL    HW2 7852  12.853  11.219   0.433
35319SOL     OW 7853   1.676  11.893  12.109
35319SOL    HW1 7854   1.598  11.862  12.156
35319SOL    HW2 7855   1.648  11.899  12.018
35320SOL     OW 7856  13.478  12.745   1.914
35320SOL    HW1 7857  13.430  12.802   1.974
35320SOL    HW2 7858  13.554  12.796   1.887
35321SOL     OW 7859   7.341   9.075   9.964
35321SOL    HW1 7860   7.429   9.067   9.926
35321SOL    HW2 7861   7.318   9.167   9.952
35322SOL     OW 7862   1.316   6.598   8.211
35322SOL    HW1 7863   1.297   6.516   8.166
35322SOL    HW2 7864   1.375   6.645   8.152
35323SOL     OW 7865  11.816   2.779  10.688
35323SOL    HW1 7866  11.909   2.800  10.684
35323SOL    HW2 7867  11.809   2.691  10.650
35324SOL     OW 7868   3.773  10.552   2.411
35324SOL    HW1 7869   3.850  10.566   2.356
35324SOL    HW2 7870   3.808  10.524   2.495
35325SOL     OW 7871   9.836   1.287   7.112
35325SOL    HW1 7872   9.768   1.325   7.057
35325SOL    HW2 7873   9.915   1.292   7.058
35326SOL     OW 7874   9.126   9.644   7.360
35326SOL    HW1 7875   9.143   9.560   7.318
35326SOL    HW2 7876   9.032   9.657   7.352
35327SOL     OW 7877   4.440   1.063   5.309
35327SOL    HW1 7878   4.472   1.129   5.372
35327SOL    HW2 7879   4.368   1.020   5.353
35328SOL     OW 7880  10.098   3.296  10.157
35328SOL    HW1 7881  10.072   3.210  10.191
35328SOL    HW2 7882  10.070   3.358  10.224
35329SOL     OW 7883   5.483   1.865   4.776
35329SOL    HW1 7884   5.459   1.957   4.774
35329SOL    HW2 7885   5.481   1.842   4.869
35330SOL     OW 7886   5.380   4.527  14.046
35330SOL    HW1 7887   5.435   4.451  14.059
35330SOL    HW2 7888   5.428   4.580  13.982
35331SOL     OW 7889   6.487   1.024   1.245
35331SOL    HW1 7890   6.496   1.114   1.213
35331SOL    HW2 7891   6.574   0.985   1.231
35332SOL     OW 7892   0.002  11.730  10.133
35332SOL    HW1 7893  14.849  11.754  10.223
35332SOL    HW2 7894  14.817  11.654  10.114
35333SOL     OW 7895  13.493  13.000   3.041
35333SOL    HW1 7896  13.420  12.943   3.016
35333SOL    HW2 7897  13.524  12.964   3.124
35334SOL     OW 7898  12.981   8.828  13.520
35334SOL    HW1 7899  13.049   8.786  13.573
35334SOL    HW2 7900  12.899   8.807  13.565
35335SOL     OW 7901   7.294   8.851  11.409
35335SOL    HW1 7902   7.359   8.780  11.405
35335SOL    HW2 7903   7.212   8.809  11.385
35336SOL     OW 7904   5.715  11.349   0.144
35336SOL    HW1 7905   5.781  11.401   0.099
35336SOL    HW2 7906   5.747  11.259   0.136
35337SOL     OW 7907   6.314   9.134   3.666
35337SOL    HW1 7908   6.394   9.155   3.617
35337SOL    HW2 7909   6.257   9.209   3.652
35338SOL     OW 7910   8.772   9.457   7.877
35338SOL    HW1 7911   8.781   9.548   7.905
35338SOL    HW2 7912   8.851   9.414   7.911
35339SOL     OW 7913   5.119   0.661   2.197
35339SOL    HW1 7914   5.195   0.677   2.140
35339SOL    HW2 7915   5.153   0.608   2.268
35340SOL     OW 7916   3.161   7.264   2.298
35340SOL    HW1 7917   3.139   7.327   2.230
35340SOL    HW2 7918   3.198   7.316   2.369
35341SOL     OW 7919   7.972   7.865   9.352
35341SOL    HW1 7920   8.031   7.908   9.414
35341SOL    HW2 7921   8.028   7.804   9.304
35342SOL     OW 7922   7.811   3.147   6.701
35342SOL    HW1 7923   7.731   3.096   6.692
35342SOL    HW2 7924   7.882   3.082   6.695
35343SOL     OW 7925  13.690   9.961  11.494
35343SOL    HW1 7926  13.626   9.891  11.509
35343SOL    HW2 7927  13.682   9.981  11.400
35344SOL     OW 7928  12.132  14.311   9.997
35344SOL    HW1 7929  12.170  14.241   9.943
35344SOL    HW2 7930  12.068  14.353   9.940
35345SOL     OW 7931   0.970   1.658  11.425
35345SOL    HW1 7932   0.899   1.601  11.453
35345SOL    HW2 7933   1.026   1.603  11.371
35346SOL     OW 7934   4.058   4.155  10.848
35346SOL    HW1 7935   3.998   4.205  10.903
35346SOL    HW2 7936   4.013   4.071  10.833
35347SOL     OW 7937   3.605  14.589  11.087
35347SOL    HW1 7938   3.658  14.519  11.049
35347SOL    HW2 7939   3.623  14.584  11.181
35348SOL     OW 7940  10.331   0.938  11.670
35348SOL    HW1 7941  10.393   1.009  11.655
35348SOL    HW2 7942  10.246   0.974  11.644
35349SOL     OW 7943  13.886  14.834   9.376
35349SOL    HW1 7944  13.801  14.836   9.420
35349SOL    HW2 7945  13.949  14.852   9.446
35350SOL     OW 7946  11.665   1.322  14.629
35350SOL    HW1 7947  11.686   1.335  14.536
35350SOL    HW2 7948  11.592   1.381  14.645
35351SOL     OW 7949   4.347   8.588   3.168
35351SOL    HW1 7950   4.432   8.632   3.173
35351SOL    HW2 7951   4.368   8.495   3.182
35352SOL     OW 7952  10.877   0.962  12.006
35352SOL    HW1 7953  10.934   0.973  11.930
35352SOL    HW2 7954  10.836   0.876  11.993
35353SOL     OW 7955   8.834  14.748   7.976
35353SOL    HW1 7956   8.897  14.815   8.003
35353SOL    HW2 7957   8.880  14.665   7.990
35354SOL     OW 7958   4.197   4.716  11.155
35354SOL    HW1 7959   4.217   4.805  11.125
35354SOL    HW2 7960   4.243   4.708  11.239
35355SOL     OW 7961  10.043   2.165   3.382
35355SOL    HW1 7962  10.032   2.240   3.440
35355SOL    HW2 7963  10.003   2.192   3.299
35356SOL     OW 7964   6.314   6.230  12.209
35356SOL    HW1 7965   6.382   6.296  12.222
35356SOL    HW2 7966   6.345   6.179  12.133
35357SOL     OW 7967   0.247  12.124   7.308
35357SOL    HW1 7968   0.302  12.199   7.282
35357SOL    HW2 7969   0.170  12.164   7.348
35358SOL     OW 7970   0.744  11.120   5.586
35358SOL    HW1 7971   0.695  11.069   5.521
35358SOL    HW2 7972   0.829  11.136   5.545
35359SOL     OW 7973   3.154  12.287   2.025
35359SOL    HW1 7974   3.063  12.263   2.040
35359SOL    HW2 7975   3.194  12.209   1.989
35360SOL     OW 7976   9.214   6.907   7.050
35360SOL    HW1 7977   9.218   7.001   7.067
35360SOL    HW2 7978   9.128   6.880   7.084
35361SOL     OW 7979   9.525   7.673  10.585
35361SOL    HW1 7980   9.518   7.612  10.658
35361SOL    HW2 7981   9.583   7.742  10.616
35362SOL     OW 7982  14.073  10.413  10.994
35362SOL    HW1 7983  14.144  10.467  10.958
35362SOL    HW2 7984  14.031  10.374  10.918
35363SOL     OW 7985   4.197   9.167  11.329
35363SOL    HW1 7986   4.121   9.109  11.316
35363SOL    HW2 7987   4.262   9.112  11.372
35364SOL     OW 7988  11.180  13.507   6.400
35364SOL    HW1 7989  11.122  13.439   6.367
35364SOL    HW2 7990  11.128  13.587   6.394
35365SOL     OW 7991   2.246  10.307  11.833
35365SOL    HW1 7992   2.319  10.365  11.810
35365SOL    HW2 7993   2.182  10.364  11.875
35366SOL     OW 7994   2.002  14.037   4.863
35366SOL    HW1 7995   2.033  13.946   4.863
35366SOL    HW2 7996   2.048  14.078   4.790
35367SOL     OW 7997   8.127  11.519   5.548
35367SOL    HW1 7998   8.033  11.513   5.564
35367SOL    HW2 7999   8.167  11.486   5.628
35368SOL     OW 8000   0.240   0.381   4.226
35368SOL    HW1 8001   0.318   0.347   4.183
35368SOL    HW2 8002   0.217   0.460   4.177
35369SOL     OW 8003   1.028   4.608   3.432
35369SOL    HW1 8004   0.959   4.635   3.372
35369SOL    HW2 8005   1.101   4.583   3.375
35370SOL     OW 8006   7.059   7.288   8.025
35370SOL    HW1 8007   7.142   7.246   8.049
35370SOL    HW2 8008   7.046   7.263   7.933
35371SOL     OW 8009   2.207   6.380   5.714
35371SOL    HW1 8010   2.241   6.469   5.704
35371SOL    HW2 8011   2.195   6.349   5.624
35372SOL     OW 8012  12.696   8.454   6.670
35372SOL    HW1 8013  12.619   8.470   6.614
35372SOL    HW2 8014  12.708   8.359   6.667
35373SOL     OW 8015   9.158  13.392   3.740
35373SOL    HW1 8016   9.070  13.417   3.769
35373SOL    HW2 8017   9.215  13.416   3.812
35374SOL     OW 8018   9.054   2.799   4.478
35374SOL    HW1 8019   9.075   2.706   4.472
35374SOL    HW2 8020   9.055   2.830   4.388
35375SOL     OW 8021   6.329  13.566   1.167
35375SOL    HW1 8022   6.264  13.605   1.225
35375SOL    HW2 8023   6.334  13.625   1.092
35376SOL     OW 8024   8.670   0.108   5.364
35376SOL    HW1 8025   8.723   0.065   5.431
35376SOL    HW2 8026   8.635   0.036   5.312
35377SOL     OW 8027   5.703  14.062   0.304
35377SOL    HW1 8028   5.695  14.058   0.209
35377SOL    HW2 8029   5.795  14.045   0.321
35378SOL     OW 8030   9.072  13.490   5.493
35378SOL    HW1 8031   9.160  13.503   5.459
35378SOL    HW2 8032   9.023  13.452   5.420
35379SOL     OW 8033   4.147  12.991   8.678
35379SOL    HW1 8034   4.076  12.949   8.726
35379SOL    HW2 8035   4.120  13.082   8.669
35380SOL     OW 8036   6.218   2.973  10.100
35380SOL    HW1 8037   6.289   2.918  10.133
35380SOL    HW2 8038   6.178   3.011  10.178
35381SOL     OW 8039   9.887  10.134   8.572
35381SOL    HW1 8040   9.820  10.186   8.617
35381SOL    HW2 8041   9.930  10.196   8.513
35382SOL     OW 8042   7.458  10.808   8.438
35382SOL    HW1 8043   7.366  10.784   8.428
35382SOL    HW2 8044   7.506  10.732   8.406
35383SOL     OW 8045   0.042   0.510   9.958
35383SOL    HW1 8046   0.046   0.499   9.863
35383SOL    HW2 8047   0.061   0.602   9.973
35384SOL     OW 8048   5.296   8.046  11.816
35384SOL    HW1 8049   5.248   8.122  11.848
35384SOL    HW2 8050   5.325   8.001  11.895
35385SOL     OW 8051   7.537   0.489  10.901
35385SOL    HW1 8052   7.539   0.425  10.972
35385SOL    HW2 8053   7.462   0.545  10.920
35386SOL     OW 8054  11.239   3.273   5.762
35386SOL    HW1 8055  11.251   3.316   5.847
35386SOL    HW2 8056  11.144   3.274   5.748
35387SOL     OW 8057  11.699  14.416   1.757
35387SOL    HW1 8058  11.783  14.446   1.723
35387SOL    HW2 8059  11.717  14.391   1.848
35388SOL     OW 8060  12.016   8.014  14.405
35388SOL    HW1 8061  12.045   8.055  14.487
35388SOL    HW2 8062  12.046   7.923  14.411
35389SOL     OW 8063   6.547   3.425   5.791
35389SOL    HW1 8064   6.557   3.491   5.723
35389SOL    HW2 8065   6.616   3.361   5.773
35390SOL     OW 8066  13.425   8.028   2.955
35390SOL    HW1 8067  13.369   7.955   2.931
35390SOL    HW2 8068  13.438   8.075   2.872
35391SOL     OW 8069   6.818   1.054  14.265
35391SOL    HW1 8070   6.782   1.088  14.346
35391SOL    HW2 8071   6.905   1.094  14.258
35392SOL     OW 8072   0.846  12.215   7.645
35392SOL    HW1 8073   0.883  12.206   7.557
35392SOL    HW2 8074   0.781  12.145   7.651
35393SOL     OW 8075   4.653  12.202   4.219
35393SOL    HW1 8076   4.696  12.130   4.264
35393SOL    HW2 8077   4.699  12.209   4.135
35394SOL     OW 8078   4.808  14.589   7.308
35394SOL    HW1 8079   4.739  14.643   7.268
35394SOL    HW2 8080   4.761  14.533   7.370
35395SOL     OW 8081   8.566  14.218   1.417
35395SOL    HW1 8082   8.519  14.186   1.340
35395SOL    HW2 8083   8.535  14.162   1.489
35396SOL     OW 8084  10.637   7.911  12.410
35396SOL    HW1 8085  10.580   7.834  12.401
35396SOL    HW2 8086  10.590   7.981  12.362
35397SOL     OW 8087   3.547  11.341  14.490
35397SOL    HW1 8088   3.639  11.365  14.500
35397SOL    HW2 8089   3.525  11.368  14.400
35398SOL     OW 8090   7.945   6.664  11.872
35398SOL    HW1 8091   7.850   6.669  11.860
35398SOL    HW2 8092   7.960   6.697  11.960
35399SOL     OW 8093   2.384   0.807  10.396
35399SOL    HW1 8094   2.402   0.784  10.487
35399SOL    HW2 8095   2.320   0.743  10.366
35400SOL     OW 8096   8.117   4.531   9.921
35400SOL    HW1 8097   8.100   4.606   9.864
35400SOL    HW2 8098   8.159   4.568   9.998
35401SOL     OW 8099   7.358   4.806   7.304
35401SOL    HW1 8100   7.375   4.867   7.232
35401SOL    HW2 8101   7.325   4.861   7.375
35402SOL     OW 8102   8.990   7.475   4.241
35402SOL    HW1 8103   9.071   7.517   4.211
35402SOL    HW2 8104   8.930   7.484   4.167
35403SOL     OW 8105   3.084  11.944   7.306
35403SOL    HW1 8106   3.079  11.923   7.399
35403SOL    HW2 8107   3.126  12.030   7.303
35404SOL     OW 8108   1.910  10.609  13.800
35404SOL    HW1 8109   1.827  10.587  13.841
35404SOL    HW2 8110   1.962  10.529  13.807
35405SOL     OW 8111   7.459  11.568   7.130
35405SOL    HW1 8112   7.534  11.573   7.189
35405SOL    HW2 8113   7.472  11.487   7.081
35406SOL     OW 8114  14.519   9.807   5.534
35406SOL    HW1 8115  14.602   9.847   5.561
35406SOL    HW2 8116  14.492   9.858   5.458
35407SOL     OW 8117   2.855  12.489   7.414
35407SOL    HW1 8118   2.834  12.563   7.471
35407SOL    HW2 8119   2.858  12.527   7.326
35408SOL     OW 8120  10.393   2.129   1.391
35408SOL    HW1 8121  10.388   2.048   1.441
35408SOL    HW2 8122  10.365   2.198   1.452
35409SOL     OW 8123   1.924   4.382   6.184
35409SOL    HW1 8124   1.865   4.327   6.236
35409SOL    HW2 8125   2.000   4.326   6.167
35410SOL     OW 8126  14.159  11.217   1.993
35410SOL    HW1 8127  14.209  11.211   2.074
35410SOL    HW2 8128  14.107  11.296   2.003
35411SOL     OW 8129   7.433  10.978  10.265
35411SOL    HW1 8130   7.496  10.959  10.334
35411SOL    HW2 8131   7.354  11.007  10.311
35412SOL     OW 8132  12.739   4.841   0.154
35412SOL    HW1 8133  12.736   4.905   0.226
35412SOL    HW2 8134  12.654   4.850   0.110
35413SOL     OW 8135  13.112   1.341  13.531
35413SOL    HW1 8136  13.197   1.373  13.500
35413SOL    HW2 8137  13.049   1.405  13.497
35414SOL     OW 8138  13.054  13.681   0.592
35414SOL    HW1 8139  12.962  13.656   0.600
35414SOL    HW2 8140  13.073  13.729   0.672
35415SOL     OW 8141   4.470   3.419   0.799
35415SOL    HW1 8142   4.444   3.376   0.718
35415SOL    HW2 8143   4.500   3.348   0.856
35416SOL     OW 8144   4.879   9.726   1.370
35416SOL    HW1 8145   4.937   9.793   1.335
35416SOL    HW2 8146   4.834   9.769   1.443
35417SOL     OW 8147   5.988  12.434   8.732
35417SOL    HW1 8148   6.034  12.517   8.738
35417SOL    HW2 8149   6.053  12.372   8.701
35418SOL     OW 8150   9.678   5.483  10.759
35418SOL    HW1 8151   9.652   5.531  10.680
35418SOL    HW2 8152   9.610   5.418  10.771
35419SOL     OW 8153  10.733   4.830   5.591
35419SOL    HW1 8154  10.717   4.910   5.641
35419SOL    HW2 8155  10.708   4.853   5.501
35420SOL     OW 8156  10.198  14.648   8.700
35420SOL    HW1 8157  10.160  14.576   8.650
35420SOL    HW2 8158  10.292  14.642   8.682
35421SOL     OW 8159   7.827   4.790  10.098
35421SOL    HW1 8160   7.756   4.851  10.119
35421SOL    HW2 8161   7.879   4.836  10.032
35422SOL     OW 8162   9.254  11.930   1.842
35422SOL    HW1 8163   9.197  11.939   1.765
35422SOL    HW2 8164   9.281  12.019   1.863
35423SOL     OW 8165   9.058  14.800  11.991
35423SOL    HW1 8166   8.984  14.805  12.050
35423SOL    HW2 8167   9.036  14.859  11.919
35424SOL     OW 8168   6.485   6.815   0.934
35424SOL    HW1 8169   6.436   6.770   1.004
35424SOL    HW2 8170   6.433   6.802   0.855
35425SOL     OW 8171   9.872   5.056   4.881
35425SOL    HW1 8172   9.861   5.069   4.787
35425SOL    HW2 8173   9.879   5.145   4.916
35426SOL     OW 8174   7.112   0.766  10.939
35426SOL    HW1 8175   7.070   0.769  10.853
35426SOL    HW2 8176   7.110   0.857  10.970
35427SOL     OW 8177  12.329  14.618   4.915
35427SOL    HW1 8178  12.261  14.570   4.868
35427SOL    HW2 8179  12.370  14.673   4.849
35428SOL     OW 8180  10.259   0.811  12.303
35428SOL    HW1 8181  10.308   0.833  12.224
35428SOL    HW2 8182  10.293   0.870  12.370
35429SOL     OW 8183   7.236  12.101   9.207
35429SOL    HW1 8184   7.234  12.080   9.300
35429SOL    HW2 8185   7.320  12.067   9.177
35430SOL     OW 8186  11.598   2.455   6.429
35430SOL    HW1 8187  11.629   2.366   6.448
35430SOL    HW2 8188  11.654   2.484   6.357
35431SOL     OW 8189   4.511   7.790   1.078
35431SOL    HW1 8190   4.570   7.716   1.067
35431SOL    HW2 8191   4.433   7.753   1.119
35432SOL     OW 8192   6.411   1.266   7.250
35432SOL    HW1 8193   6.340   1.315   7.291
35432SOL    HW2 8194   6.489   1.320   7.263
35433SOL     OW 8195  10.866   2.327   1.520
35433SOL    HW1 8196  10.837   2.393   1.583
35433SOL    HW2 8197  10.785   2.285   1.492
35434SOL     OW 8198   0.077   3.964   8.653
35434SOL    HW1 8199   0.033   4.015   8.585
35434SOL    HW2 8200   0.009   3.946   8.718
35435SOL     OW 8201   7.559  12.946   0.768
35435SOL    HW1 8202   7.567  12.853   0.793
35435SOL    HW2 8203   7.466  12.965   0.777
35436SOL     OW 8204  11.972   5.872   0.691
35436SOL    HW1 8205  11.997   5.832   0.774
35436SOL    HW2 8206  11.948   5.962   0.715
35437SOL     OW 8207   3.328  12.869   7.636
35437SOL    HW1 8208   3.358  12.798   7.693
35437SOL    HW2 8209   3.272  12.923   7.691
35438SOL     OW 8210   9.203   0.881   5.928
35438SOL    HW1 8211   9.237   0.855   5.842
35438SOL    HW2 8212   9.240   0.967   5.944
35439SOL     OW 8213   9.946  13.289   7.260
35439SOL    HW1 8214   9.911  13.223   7.320
35439SOL    HW2 8215  10.004  13.343   7.315
35440SOL     OW 8216  12.880   3.519   0.314
35440SOL    HW1 8217  12.799   3.500   0.361
35440SOL    HW2 8218  12.941   3.451   0.343
35441SOL     OW 8219   7.104   5.755  14.599
35441SOL    HW1 8220   7.112   5.769  14.693
35441SOL    HW2 8221   7.074   5.665  14.590
35442SOL     OW 8222   0.315   1.073   9.089
35442SOL    HW1 8223   0.297   1.152   9.139
35442SOL    HW2 8224   0.385   1.029   9.137
35443SOL     OW 8225  10.157   5.924   1.804
35443SOL    HW1 8226  10.224   5.989   1.823
35443SOL    HW2 8227  10.075   5.963   1.834
35444SOL     OW 8228   9.195  10.460   6.578
35444SOL    HW1 8229   9.232  10.388   6.526
35444SOL    HW2 8230   9.255  10.533   6.563
35445SOL     OW 8231  13.509  11.001   5.892
35445SOL    HW1 8232  13.476  11.038   5.973
35445SOL    HW2 8233  13.492  10.907   5.899
35446SOL     OW 8234  12.634   5.921   4.080
35446SOL    HW1 8235  12.640   5.898   4.173
35446SOL    HW2 8236  12.572   5.994   4.077
35447SOL     OW 8237   7.659   7.443   5.169
35447SOL    HW1 8238   7.696   7.462   5.083
35447SOL    HW2 8239   7.732   7.411   5.221
35448SOL     OW 8240  10.748  11.488  10.737
35448SOL    HW1 8241  10.707  11.431  10.802
35448SOL    HW2 8242  10.677  11.509  10.676
35449SOL     OW 8243   5.042   8.145  10.695
35449SOL    HW1 8244   5.007   8.229  10.725
35449SOL    HW2 8245   4.989   8.123  10.619
35450SOL     OW 8246  12.516  12.986   4.001
35450SOL    HW1 8247  12.564  12.943   4.072
35450SOL    HW2 8248  12.546  12.941   3.922
35451SOL     OW 8249   5.700   3.128   1.126
35451SOL    HW1 8250   5.759   3.084   1.187
35451SOL    HW2 8251   5.667   3.057   1.071
35452SOL     OW 8252   2.811   5.619  12.946
35452SOL    HW1 8253   2.847   5.599  12.860
35452SOL    HW2 8254   2.833   5.711  12.960
35453SOL     OW 8255  10.226  13.900  11.625
35453SOL    HW1 8256  10.180  13.871  11.546
35453SOL    HW2 8257  10.164  13.959  11.669
35454SOL     OW 8258  12.126   3.526  14.608
35454SOL    HW1 8259  12.161   3.500  14.693
35454SOL    HW2 8260  12.194   3.582  14.571
35455SOL     OW 8261   0.241  11.546   1.152
35455SOL    HW1 8262   0.271  11.512   1.237
35455SOL    HW2 8263   0.149  11.518   1.147
35456SOL     OW 8264  14.227  12.619   6.063
35456SOL    HW1 8265  14.198  12.560   5.993
35456SOL    HW2 8266  14.286  12.681   6.020
35457SOL     OW 8267   6.769   2.732   9.697
35457SOL    HW1 8268   6.862   2.727   9.718
35457SOL    HW2 8269   6.759   2.817   9.653
35458SOL     OW 8270   5.067   2.398   5.996
35458SOL    HW1 8271   5.066   2.327   6.060
35458SOL    HW2 8272   4.990   2.383   5.942
35459SOL     OW 8273   7.234   7.133  13.228
35459SOL    HW1 8274   7.158   7.189  13.241
35459SOL    HW2 8275   7.242   7.124  13.133
35460SOL     OW 8276   5.194   1.070  10.878
35460SOL    HW1 8277   5.136   1.031  10.945
35460SOL    HW2 8278   5.224   1.151  10.918
35461SOL     OW 8279   1.522   8.511  13.096
35461SOL    HW1 8280   1.450   8.462  13.135
35461SOL    HW2 8281   1.595   8.449  13.096
35462SOL     OW 8282  14.586  12.294   2.025
35462SOL    HW1 8283  14.527  12.341   2.084
35462SOL    HW2 8284  14.533  12.276   1.948
35463SOL     OW 8285  10.430   2.273  13.013
35463SOL    HW1 8286  10.436   2.204  12.947
35463SOL    HW2 8287  10.342   2.308  13.004
35464SOL     OW 8288  13.070   5.874  12.955
35464SOL    HW1 8289  13.103   5.914  13.035
35464SOL    HW2 8290  12.994   5.823  12.983
35465SOL     OW 8291   3.837   5.933   9.609
35465SOL    HW1 8292   3.775   5.865   9.585
35465SOL    HW2 8293   3.901   5.889   9.665
35466SOL     OW 8294   5.857   1.636  14.671
35466SOL    HW1 8295   5.811   1.703  14.621
35466SOL    HW2 8296   5.869   1.674  14.758
35467SOL     OW 8297  10.906   6.901  14.402
35467SOL    HW1 8298  10.936   6.980  14.448
35467SOL    HW2 8299  10.930   6.829  14.460
35468SOL     OW 8300   5.688   4.233   8.959
35468SOL    HW1 8301   5.748   4.275   9.021
35468SOL    HW2 8302   5.699   4.282   8.877
35469SOL     OW 8303   7.585  10.821   9.663
35469SOL    HW1 8304   7.520  10.860   9.722
35469SOL    HW2 8305   7.584  10.877   9.586
35470SOL     OW 8306   0.546  11.475   6.178
35470SOL    HW1 8307   0.456  11.447   6.164
35470SOL    HW2 8308   0.568  11.525   6.099
35471SOL     OW 8309  14.154   5.341   6.495
35471SOL    HW1 8310  14.174   5.308   6.407
35471SOL    HW2 8311  14.116   5.266   6.540
35472SOL     OW 8312  10.195   9.261  10.305
35472SOL    HW1 8313  10.151   9.325  10.360
35472SOL    HW2 8314  10.131   9.190  10.294
35473SOL     OW 8315   9.256   8.989   3.588
35473SOL    HW1 8316   9.284   9.080   3.602
35473SOL    HW2 8317   9.179   8.997   3.532
35474SOL     OW 8318  11.626   2.588   4.096
35474SOL    HW1 8319  11.663   2.526   4.033
35474SOL    HW2 8320  11.569   2.534   4.151
35475SOL     OW 8321   0.768   6.907   0.470
35475SOL    HW1 8322   0.681   6.879   0.441
35475SOL    HW2 8323   0.767   7.002   0.459
35476SOL     OW 8324  10.991  12.773   5.069
35476SOL    HW1 8325  10.905  12.816   5.067
35476SOL    HW2 8326  11.054  12.846   5.075
35477SOL     OW 8327   1.573   9.833   5.361
35477SOL    HW1 8328   1.555   9.920   5.326
35477SOL    HW2 8329   1.494   9.782   5.340
35478SOL     OW 8330   6.072   8.118  11.218
35478SOL    HW1 8331   6.057   8.204  11.178
35478SOL    HW2 8332   6.007   8.061  11.176
35479SOL     OW 8333   8.250  10.822   6.361
35479SOL    HW1 8334   8.345  10.824   6.373
35479SOL    HW2 8335   8.236  10.864   6.276
35480SOL     OW 8336   9.133   0.621  14.681
35480SOL    HW1 8337   9.083   0.575  14.614
35480SOL    HW2 8338   9.118   0.571  14.761
35481SOL     OW 8339   0.803   1.787   7.638
35481SOL    HW1 8340   0.865   1.750   7.575
35481SOL    HW2 8341   0.793   1.878   7.611
35482SOL     OW 8342  10.079  12.761   2.542
35482SOL    HW1 8343  10.037  12.839   2.506
35482SOL    HW2 8344  10.013  12.722   2.600
35483SOL     OW 8345  10.007  11.321   2.525
35483SOL    HW1 8346   9.918  11.354   2.525
35483SOL    HW2 8347  10.016  11.272   2.606
35484SOL     OW 8348   5.135   2.874   5.156
35484SOL    HW1 8349   5.148   2.967   5.176
35484SOL    HW2 8350   5.042   2.867   5.135
35485SOL     OW 8351  13.401   2.727  10.166
35485SOL    HW1 8352  13.314   2.697  10.139
35485SOL    HW2 8353  13.385   2.797  10.229
35486SOL     OW 8354   9.240   1.451  13.882
35486SOL    HW1 8355   9.304   1.435  13.812
35486SOL    HW2 8356   9.242   1.371  13.934
35487SOL     OW 8357   0.526   9.855   5.947
35487SOL    HW1 8358   0.501   9.918   6.015
35487SOL    HW2 8359   0.512   9.770   5.988
35488SOL     OW 8360   3.015   0.351   7.639
35488SOL    HW1 8361   3.071   0.334   7.714
35488SOL    HW2 8362   3.075   0.370   7.568
35489SOL     OW 8363   0.948   8.282   9.775
35489SOL    HW1 8364   0.867   8.248   9.813
35489SOL    HW2 8365   0.990   8.206   9.734
35490SOL     OW 8366  12.988   2.526   7.734
35490SOL    HW1 8367  12.894   2.544   7.736
35490SOL    HW2 8368  13.018   2.566   7.653
35491SOL     OW 8369   9.921   9.130   7.157
35491SOL    HW1 8370   9.881   9.119   7.243
35491SOL    HW2 8371   9.847   9.141   7.097
35492SOL     OW 8372   9.715  14.005  11.782
35492SOL    HW1 8373   9.764  14.042  11.709
35492SOL    HW2 8374   9.779  13.952  11.829
35493SOL     OW 8375   6.915   8.998   0.064
35493SOL    HW1 8376   6.909   9.037   0.152
35493SOL    HW2 8377   6.828   9.009   0.027
35494SOL     OW 8378   5.747   9.128   0.229
35494SOL    HW1 8379   5.760   9.154   0.321
35494SOL    HW2 8380   5.684   9.056   0.233
35495SOL     OW 8381   8.963  12.001  14.341
35495SOL    HW1 8382   8.925  11.999  14.429
35495SOL    HW2 8383   8.979  12.094  14.325
35496SOL     OW 8384  10.579   1.286  12.840
35496SOL    HW1 8385  10.657   1.316  12.794
35496SOL    HW2 8386  10.580   1.335  12.922
35497SOL     OW 8387   6.438   3.088   6.062
35497SOL    HW1 8388   6.464   3.062   5.973
35497SOL    HW2 8389   6.349   3.053   6.072
35498SOL     OW 8390   7.798  13.766   6.020
35498SOL    HW1 8391   7.746  13.687   6.026
35498SOL    HW2 8392   7.760  13.826   6.084
35499SOL     OW 8393  13.296   2.474  13.875
35499SOL    HW1 8394  13.365   2.443  13.934
35499SOL    HW2 8395  13.227   2.407  13.881
35500SOL     OW 8396  10.930   6.603   1.273
35500SOL    HW1 8397  10.859   6.579   1.332
35500SOL    HW2 8398  11.001   6.541   1.295
35501SOL     OW 8399  14.137   7.476  12.258
35501SOL    HW1 8400  14.166   7.560  12.223
35501SOL    HW2 8401  14.184   7.467  12.342
35502SOL     OW 8402   4.521   9.284  12.413
35502SOL    HW1 8403   4.611   9.254  12.421
35502SOL    HW2 8404   4.474   9.209  12.377
35503SOL     OW 8405  13.239   4.422  13.725
35503SOL    HW1 8406  13.143   4.418  13.716
35503SOL    HW2 8407  13.272   4.361  13.659
35504SOL     OW 8408   7.591   7.843  11.902
35504SOL    HW1 8409   7.629   7.796  11.976
35504SOL    HW2 8410   7.613   7.790  11.826
35505SOL     OW 8411   9.032  12.161   3.333
35505SOL    HW1 8412   9.117  12.138   3.371
35505SOL    HW2 8413   9.045  12.250   3.298
35506SOL     OW 8414  10.400   9.649  10.468
35506SOL    HW1 8415  10.477   9.702  10.449
35506SOL    HW2 8416  10.422   9.562  10.434
35507SOL     OW 8417   1.563  10.851  10.254
35507SOL    HW1 8418   1.495  10.859  10.186
35507SOL    HW2 8419   1.598  10.763  10.242
35508SOL     OW 8420  14.360   7.862   2.537
35508SOL    HW1 8421  14.298   7.802   2.578
35508SOL    HW2 8422  14.334   7.865   2.446
35509SOL     OW 8423   5.935  10.094   4.255
35509SOL    HW1 8424   5.923   9.999   4.248
35509SOL    HW2 8425   5.846  10.129   4.244
35510SOL     OW 8426   7.798   2.957   4.452
35510SOL    HW1 8427   7.705   2.953   4.427
35510SOL    HW2 8428   7.802   2.910   4.536
35511SOL     OW 8429  11.631  11.897  12.023
35511SOL    HW1 8430  11.621  11.830  12.091
35511SOL    HW2 8431  11.675  11.853  11.951
35512SOL     OW 8432   6.086  11.119  10.305
35512SOL    HW1 8433   6.009  11.065  10.291
35512SOL    HW2 8434   6.053  11.209  10.312
35513SOL     OW 8435   9.089   3.682   7.954
35513SOL    HW1 8436   9.167   3.739   7.955
35513SOL    HW2 8437   9.105   3.622   7.882
35514SOL     OW 8438   3.199  14.400   0.307
35514SOL    HW1 8439   3.188  14.486   0.266
35514SOL    HW2 8440   3.188  14.416   0.400
35515SOL     OW 8441  13.139   8.218   4.031
35515SOL    HW1 8442  13.169   8.292   4.084
35515SOL    HW2 8443  13.086   8.165   4.091
35516SOL     OW 8444   1.548   5.785   7.588
35516SOL    HW1 8445   1.573   5.745   7.504
35516SOL    HW2 8446   1.467   5.832   7.569
35517SOL     OW 8447  11.545   3.059   1.413
35517SOL    HW1 8448  11.502   3.110   1.482
35517SOL    HW2 8449  11.572   3.124   1.349
35518SOL     OW 8450   1.757   2.855   3.103
35518SOL    HW1 8451   1.823   2.920   3.078
35518SOL    HW2 8452   1.713   2.833   3.020
35519SOL     OW 8453   6.794   3.186   3.678
35519SOL    HW1 8454   6.709   3.143   3.684
35519SOL    HW2 8455   6.781   3.255   3.612
35520SOL     OW 8456   1.985  13.585   8.343
35520SOL    HW1 8457   1.957  13.597   8.434
35520SOL    HW2 8458   1.920  13.633   8.292
35521SOL     OW 8459   6.972   8.645  12.191
35521SOL    HW1 8460   7.065   8.656  12.212
35521SOL    HW2 8461   6.972   8.583  12.118
35522SOL     OW 8462   4.017  10.490   4.962
35522SOL    HW1 8463   4.030  10.416   5.022
35522SOL    HW2 8464   4.067  10.466   4.884
35523SOL     OW 8465   6.352  12.291   9.288
35523SOL    HW1 8466   6.434  12.266   9.331
35523SOL    HW2 8467   6.337  12.221   9.224
35524SOL     OW 8468   5.934   8.432   5.142
35524SOL    HW1 8469   5.860   8.382   5.177
35524SOL    HW2 8470   5.981   8.462   5.220
35525SOL     OW 8471   6.263   8.685   0.423
35525SOL    HW1 8472   6.221   8.638   0.495
35525SOL    HW2 8473   6.350   8.708   0.456
35526SOL     OW 8474   4.714  11.822   8.494
35526SOL    HW1 8475   4.803  11.810   8.462
35526SOL    HW2 8476   4.723  11.830   8.589
35527SOL     OW 8477  11.897   6.962  13.978
35527SOL    HW1 8478  11.951   6.905  13.924
35527SOL    HW2 8479  11.813   6.967  13.932
35528SOL     OW 8480   4.967   4.610   6.513
35528SOL    HW1 8481   4.960   4.567   6.599
35528SOL    HW2 8482   4.876   4.623   6.486
35529SOL     OW 8483   3.762   9.514   0.910
35529SOL    HW1 8484   3.830   9.577   0.932
35529SOL    HW2 8485   3.685   9.568   0.891
35530SOL     OW 8486  10.964   5.015   1.349
35530SOL    HW1 8487  10.917   4.974   1.276
35530SOL    HW2 8488  11.055   5.017   1.321
35531SOL     OW 8489  12.466   0.339   2.134
35531SOL    HW1 8490  12.457   0.425   2.093
35531SOL    HW2 8491  12.405   0.342   2.208
35532SOL     OW 8492   3.695  14.226  13.066
35532SOL    HW1 8493   3.653  14.222  13.153
35532SOL    HW2 8494   3.745  14.144  13.060
35533SOL     OW 8495   3.514   3.219   7.729
35533SOL    HW1 8496   3.450   3.149   7.741
35533SOL    HW2 8497   3.583   3.198   7.792
35534SOL     OW 8498  14.666   1.755  12.975
35534SOL    HW1 8499  14.719   1.743  13.054
35534SOL    HW2 8500  14.608   1.828  12.996
35535SOL     OW 8501   8.481   6.373   3.234
35535SOL    HW1 8502   8.452   6.298   3.183
35535SOL    HW2 8503   8.559   6.343   3.279
35536SOL     OW 8504   4.962   5.308   1.575
35536SOL    HW1 8505   5.049   5.279   1.603
35536SOL    HW2 8506   4.903   5.237   1.599
35537SOL     OW 8507  14.850   8.232  14.798
35537SOL    HW1 8508  14.782   8.166  14.810
35537SOL    HW2 8509  14.817   8.310  14.843
35538SOL     OW 8510  11.450   3.673   7.608
35538SOL    HW1 8511  11.515   3.606   7.588
35538SOL    HW2 8512  11.365   3.630   7.596
35539SOL     OW 8513   9.277   5.635   0.667
35539SOL    HW1 8514   9.243   5.721   0.693
35539SOL    HW2 8515   9.216   5.572   0.704
35540SOL     OW 8516   8.191   7.353   5.417
35540SOL    HW1 8517   8.217   7.351   5.325
35540SOL    HW2 8518   8.136   7.275   5.427
35541SOL     OW 8519   8.349   6.992   3.158
35541SOL    HW1 8520   8.334   6.901   3.186
35541SOL    HW2 8521   8.436   7.013   3.194
35542SOL     OW 8522   2.040   6.475   3.607
35542SOL    HW1 8523   2.124   6.518   3.591
35542SOL    HW2 8524   2.060   6.382   3.608
35543SOL     OW 8525   4.415   6.167  13.372
35543SOL    HW1 8526   4.358   6.130  13.440
35543SOL    HW2 8527   4.486   6.209  13.421
35544SOL     OW 8528   9.134   1.875   0.412
35544SOL    HW1 8529   9.160   1.861   0.321
35544SOL    HW2 8530   9.134   1.970   0.423
35545SOL     OW 8531   9.856   8.178   7.167
35545SOL    HW1 8532   9.795   8.145   7.101
35545SOL    HW2 8533   9.806   8.242   7.217
35546SOL     OW 8534   4.846   8.771   3.746
35546SOL    HW1 8535   4.940   8.766   3.766
35546SOL    HW2 8536   4.809   8.693   3.789
35547SOL     OW 8537   2.329  12.819   2.890
35547SOL    HW1 8538   2.396  12.881   2.861
35547SOL    HW2 8539   2.265  12.819   2.819
35548SOL     OW 8540  14.058   5.795  13.154
35548SOL    HW1 8541  13.996   5.806  13.082
35548SOL    HW2 8542  14.004   5.766  13.228
35549SOL     OW 8543  12.584  11.938  13.728
35549SOL    HW1 8544  12.626  12.005  13.782
35549SOL    HW2 8545  12.645  11.924  13.655
35550SOL     OW 8546  11.861  11.331   7.572
35550SOL    HW1 8547  11.769  11.305   7.579
35550SOL    HW2 8548  11.897  11.273   7.506
35551SOL     OW 8549   6.587  12.236   1.104
35551SOL    HW1 8550   6.676  12.206   1.125
35551SOL    HW2 8551   6.581  12.227   1.009
35552SOL     OW 8552   7.807  10.250   0.884
35552SOL    HW1 8553   7.724  10.257   0.932
35552SOL    HW2 8554   7.832  10.341   0.866
35553SOL     OW 8555  12.768  10.498   8.085
35553SOL    HW1 8556  12.851  10.485   8.129
35553SOL    HW2 8557  12.753  10.416   8.038
35554SOL     OW 8558   3.997   6.897   3.709
35554SOL    HW1 8559   4.015   6.862   3.621
35554SOL    HW2 8560   3.981   6.990   3.694
35555SOL     OW 8561   6.396   7.524   4.611
35555SOL    HW1 8562   6.329   7.551   4.674
35555SOL    HW2 8563   6.479   7.538   4.657
35556SOL     OW 8564   7.056   2.204  12.063
35556SOL    HW1 8565   6.992   2.275  12.057
35556SOL    HW2 8566   7.012   2.135  12.113
35557SOL     OW 8567   3.496  13.162   5.465
35557SOL    HW1 8568   3.549  13.227   5.418
35557SOL    HW2 8569   3.407  13.195   5.458
35558SOL     OW 8570  10.411  10.587   7.027
35558SOL    HW1 8571  10.326  10.549   7.048
35558SOL    HW2 8572  10.474  10.515   7.040
35559SOL     OW 8573  13.071  10.418  11.309
35559SOL    HW1 8574  13.166  10.433  11.310
35559SOL    HW2 8575  13.037  10.484  11.248
35560SOL     OW 8576  13.749   8.213  10.815
35560SOL    HW1 8577  13.790   8.128  10.795
35560SOL    HW2 8578  13.786   8.273  10.750
35561SOL     OW 8579   1.351   7.974   4.538
35561SOL    HW1 8580   1.409   8.043   4.507
35561SOL    HW2 8581   1.342   7.991   4.632
35562SOL     OW 8582   3.777   6.071   2.297
35562SOL    HW1 8583   3.763   6.110   2.383
35562SOL    HW2 8584   3.827   6.137   2.249
35563SOL     OW 8585   7.097   3.736  13.665
35563SOL    HW1 8586   7.006   3.739  13.693
35563SOL    HW2 8587   7.109   3.647  13.632
35564SOL     OW 8588   7.208  10.357   5.028
35564SOL    HW1 8589   7.137  10.325   4.973
35564SOL    HW2 8590   7.164  10.388   5.107
35565SOL     OW 8591   0.985   3.769   3.544
35565SOL    HW1 8592   1.025   3.709   3.481
35565SOL    HW2 8593   0.983   3.719   3.626
35566SOL     OW 8594  14.473  13.532   2.311
35566SOL    HW1 8595  14.453  13.444   2.280
35566SOL    HW2 8596  14.480  13.523   2.406
35567SOL     OW 8597  11.710  13.737   7.040
35567SOL    HW1 8598  11.716  13.721   6.945
35567SOL    HW2 8599  11.763  13.667   7.079
35568SOL     OW 8600   5.612   1.721   9.760
35568SOL    HW1 8601   5.522   1.706   9.788
35568SOL    HW2 8602   5.665   1.701   9.837
35569SOL     OW 8603   6.878  14.580   5.651
35569SOL    HW1 8604   6.842  14.593   5.738
35569SOL    HW2 8605   6.911  14.490   5.651
35570SOL     OW 8606  13.436   5.220   5.185
35570SOL    HW1 8607  13.530   5.233   5.169
35570SOL    HW2 8608  13.405   5.171   5.110
35571SOL     OW 8609  11.621   4.523   1.734
35571SOL    HW1 8610  11.668   4.480   1.806
35571SOL    HW2 8611  11.638   4.468   1.658
35572SOL     OW 8612   3.127   8.956   5.310
35572SOL    HW1 8613   3.123   8.861   5.322
35572SOL    HW2 8614   3.214   8.980   5.340
35573SOL     OW 8615   5.687   8.658   4.234
35573SOL    HW1 8616   5.766   8.710   4.248
35573SOL    HW2 8617   5.618   8.723   4.222
35574SOL     OW 8618  13.178   2.450  14.731
35574SOL    HW1 8619  13.148   2.368  14.770
35574SOL    HW2 8620  13.205   2.427  14.642
35575SOL     OW 8621  12.446   2.449  13.889
35575SOL    HW1 8622  12.413   2.482  13.806
35575SOL    HW2 8623  12.481   2.527  13.933
35576SOL     OW 8624  10.980  14.097   7.830
35576SOL    HW1 8625  10.991  14.162   7.761
35576SOL    HW2 8626  11.045  14.029   7.809
35577SOL     OW 8627  13.155   3.360  14.777
35577SOL    HW1 8628  13.161   3.397  14.688
35577SOL    HW2 8629  13.112   3.428  14.828
35578SOL     OW 8630   4.463  10.439  12.191
35578SOL    HW1 8631   4.552  10.427  12.223
35578SOL    HW2 8632   4.428  10.350  12.182
35579SOL     OW 8633   5.051   5.531  11.580
35579SOL    HW1 8634   5.048   5.586  11.658
35579SOL    HW2 8635   5.100   5.453  11.607
35580SOL     OW 8636   3.869   9.917   7.841
35580SOL    HW1 8637   3.841   9.890   7.754
35580SOL    HW2 8638   3.879   9.835   7.890
35581SOL     OW 8639   7.436   8.033   4.223
35581SOL    HW1 8640   7.455   7.993   4.138
35581SOL    HW2 8641   7.396   7.963   4.274
35582SOL     OW 8642   4.053   7.227   3.906
35582SOL    HW1 8643   3.975   7.172   3.915
35582SOL    HW2 8644   4.125   7.170   3.934
35583SOL     OW 8645   2.569  12.786   1.880
35583SOL    HW1 8646   2.497  12.798   1.817
35583SOL    HW2 8647   2.615  12.870   1.881
35584SOL     OW 8648   0.525  10.479   8.427
35584SOL    HW1 8649   0.537  10.384   8.416
35584SOL    HW2 8650   0.434  10.488   8.456
35585SOL     OW 8651   7.399  10.778  11.385
35585SOL    HW1 8652   7.430  10.868  11.376
35585SOL    HW2 8653   7.361  10.774  11.473
35586SOL     OW 8654   6.231   2.957   2.184
35586SOL    HW1 8655   6.306   2.954   2.244
35586SOL    HW2 8656   6.270   2.962   2.097
35587SOL     OW 8657  11.444  13.485   4.161
35587SOL    HW1 8658  11.386  13.551   4.124
35587SOL    HW2 8659  11.437  13.497   4.256
35588SOL     OW 8660  10.046   3.935  10.761
35588SOL    HW1 8661  10.126   3.911  10.714
35588SOL    HW2 8662  10.072   4.009  10.815
35589SOL     OW 8663   4.540  11.010   0.816
35589SOL    HW1 8664   4.524  11.075   0.884
35589SOL    HW2 8665   4.472  11.027   0.750
35590SOL     OW 8666   7.893  10.264  13.591
35590SOL    HW1 8667   7.906  10.245  13.498
35590SOL    HW2 8668   7.975  10.238  13.633
35591SOL     OW 8669   6.646   8.397   0.234
35591SOL    HW1 8670   6.695   8.468   0.277
35591SOL    HW2 8671   6.597   8.441   0.164
35592SOL     OW 8672  10.814   5.624  10.693
35592SOL    HW1 8673  10.786   5.533  10.701
35592SOL    HW2 8674  10.881   5.623  10.624
35593SOL     OW 8675  12.403   7.240   5.669
35593SOL    HW1 8676  12.449   7.306   5.721
35593SOL    HW2 8677  12.314   7.273   5.661
35594SOL     OW 8678   0.128  13.145   8.982
35594SOL    HW1 8679   0.169  13.139   9.069
35594SOL    HW2 8680   0.200  13.163   8.923
35595SOL     OW 8681   7.560   3.175   2.833
35595SOL    HW1 8682   7.644   3.176   2.878
35595SOL    HW2 8683   7.566   3.246   2.768
35596SOL     OW 8684   7.054   4.681  12.023
35596SOL    HW1 8685   7.009   4.710  12.102
35596SOL    HW2 8686   7.049   4.756  11.963
35597SOL     OW 8687   7.233  10.520   1.992
35597SOL    HW1 8688   7.253  10.479   1.908
35597SOL    HW2 8689   7.296  10.591   2.000
35598SOL     OW 8690  14.393   3.244   7.582
35598SOL    HW1 8691  14.432   3.201   7.506
35598SOL    HW2 8692  14.467   3.262   7.640
35599SOL     OW 8693   0.552   3.953   7.592
35599SOL    HW1 8694   0.555   4.049   7.591
35599SOL    HW2 8695   0.477   3.931   7.536
35600SOL     OW 8696   4.319  11.238  14.613
35600SOL    HW1 8697   4.389  11.202  14.668
35600SOL    HW2 8698   4.269  11.161  14.585
35601SOL     OW 8699   2.116   6.507  10.274
35601SOL    HW1 8700   2.156   6.552  10.200
35601SOL    HW2 8701   2.186   6.496  10.337
35602SOL     OW 8702   7.834  12.066  13.238
35602SOL    HW1 8703   7.849  12.160  13.247
35602SOL    HW2 8704   7.908  12.035  13.185
35603SOL     OW 8705  14.848   4.891  11.399
35603SOL    HW1 8706  14.803   4.970  11.428
35603SOL    HW2 8707   0.060   4.889  11.449
35604SOL     OW 8708   0.023   1.985   6.899
35604SOL    HW1 8709  14.819   1.957   6.952
35604SOL    HW2 8710   0.037   2.077   6.924
35605SOL     OW 8711  11.798   1.011   1.201
35605SOL    HW1 8712  11.893   1.000   1.209
35605SOL    HW2 8713  11.764   0.922   1.195
35606SOL     OW 8714   1.777  11.113  13.133
35606SOL    HW1 8715   1.755  11.020  13.126
35606SOL    HW2 8716   1.860  11.114  13.180
35607SOL     OW 8717   2.011  10.528  14.156
35607SOL    HW1 8718   2.037  10.588  14.086
35607SOL    HW2 8719   2.092  10.513  14.205
35608SOL     OW 8720   9.331  13.618  14.217
35608SOL    HW1 8721   9.253  13.640  14.166
35608SOL    HW2 8722   9.378  13.701  14.225
35609SOL     OW 8723   1.290   1.729   7.893
35609SOL    HW1 8724   1.314   1.697   7.980
35609SOL    HW2 8725   1.195   1.738   7.896
35610SOL     OW 8726   5.450   9.900   5.705
35610SOL    HW1 8727   5.505   9.907   5.627
35610SOL    HW2 8728   5.444   9.990   5.738
35611SOL     OW 8729  11.781   2.452   6.709
35611SOL    HW1 8730  11.798   2.519   6.643
35611SOL    HW2 8731  11.754   2.501   6.787
35612SOL     OW 8732   5.645   3.377   6.650
35612SOL    HW1 8733   5.728   3.329   6.648
35612SOL    HW2 8734   5.644   3.420   6.735
35613SOL     OW 8735   0.926   3.157   6.959
35613SOL    HW1 8736   0.919   3.118   6.872
35613SOL    HW2 8737   0.857   3.115   7.010
35614SOL     OW 8738   3.700   7.728   0.354
35614SOL    HW1 8739   3.629   7.665   0.340
35614SOL    HW2 8740   3.709   7.772   0.269
35615SOL     OW 8741   7.000   6.867   5.475
35615SOL    HW1 8742   6.922   6.839   5.522
35615SOL    HW2 8743   6.969   6.891   5.388
35616SOL     OW 8744  10.020   8.190  10.828
35616SOL    HW1 8745  10.036   8.100  10.856
35616SOL    HW2 8746   9.957   8.182  10.757
35617SOL     OW 8747  13.108   2.000   2.781
35617SOL    HW1 8748  13.131   1.986   2.689
35617SOL    HW2 8749  13.158   2.078   2.806
35618SOL     OW 8750  12.863  10.026   1.528
35618SOL    HW1 8751  12.870   9.931   1.533
35618SOL    HW2 8752  12.939  10.058   1.577
35619SOL     OW 8753   7.042  12.052   4.611
35619SOL    HW1 8754   7.047  12.144   4.586
35619SOL    HW2 8755   6.986  12.011   4.544
35620SOL     OW 8756   1.652   7.049   0.970
35620SOL    HW1 8757   1.742   7.015   0.968
35620SOL    HW2 8758   1.661   7.139   1.000
35621SOL     OW 8759  12.306  14.690  14.754
35621SOL    HW1 8760  12.349  14.623  14.807
35621SOL    HW2 8761  12.377  14.740  14.716
35622SOL     OW 8762   6.082   8.975  13.367
35622SOL    HW1 8763   6.173   8.978  13.397
35622SOL    HW2 8764   6.088   8.963  13.272
35623SOL     OW 8765  12.473  10.141   2.468
35623SOL    HW1 8766  12.408  10.075   2.493
35623SOL    HW2 8767  12.557  10.094   2.472
35624SOL     OW 8768   2.684   2.934   1.472
35624SOL    HW1 8769   2.724   3.006   1.422
35624SOL    HW2 8770   2.617   2.899   1.414
35625SOL     OW 8771  10.433   4.242  14.527
35625SOL    HW1 8772  10.368   4.174  14.511
35625SOL    HW2 8773  10.458   4.272  14.439
35626SOL     OW 8774   4.585   2.237   0.341
35626SOL    HW1 8775   4.586   2.143   0.357
35626SOL    HW2 8776   4.637   2.274   0.412
35627SOL     OW 8777   8.526   1.189   5.769
35627SOL    HW1 8778   8.518   1.137   5.849
35627SOL    HW2 8779   8.488   1.274   5.792
35628SOL     OW 8780  13.364  12.064  14.419
35628SOL    HW1 8781  13.316  12.113  14.487
35628SOL    HW2 8782  13.456  12.076  14.442
35629SOL     OW 8783   4.610  13.707   0.499
35629SOL    HW1 8784   4.653  13.724   0.583
35629SOL    HW2 8785   4.524  13.748   0.506
35630SOL     OW 8786   9.727   8.428   8.504
35630SOL    HW1 8787   9.731   8.398   8.595
35630SOL    HW2 8788   9.666   8.503   8.507
35631SOL     OW 8789   1.135   4.956   8.913
35631SOL    HW1 8790   1.223   4.963   8.949
35631SOL    HW2 8791   1.126   4.864   8.889
35632SOL     OW 8792   7.989   4.340  10.393
35632SOL    HW1 8793   8.071   4.389  10.386
35632SOL    HW2 8794   8.003   4.261  10.341
35633SOL     OW 8795   3.179   8.414   0.085
35633SOL    HW1 8796   3.216   8.336   0.127
35633SOL    HW2 8797   3.250   8.449   0.032
35634SOL     OW 8798  12.148  12.539  10.333
35634SOL    HW1 8799  12.124  12.598  10.404
35634SOL    HW2 8800  12.065  12.509  10.296
35635SOL     OW 8801   0.636   6.654   2.209
35635SOL    HW1 8802   0.703   6.644   2.141
35635SOL    HW2 8803   0.685   6.666   2.290
35636SOL     OW 8804   9.239  14.760   5.951
35636SOL    HW1 8805   9.312  14.820   5.964
35636SOL    HW2 8806   9.281  14.675   5.936
35637SOL     OW 8807   9.319   2.219  11.859
35637SOL    HW1 8808   9.328   2.206  11.764
35637SOL    HW2 8809   9.265   2.298  11.867
35638SOL     OW 8810   5.135  11.980  10.016
35638SOL    HW1 8811   5.181  11.896  10.009
35638SOL    HW2 8812   5.044  11.956  10.034
35639SOL     OW 8813  13.369   1.050   3.333
35639SOL    HW1 8814  13.303   1.098   3.383
35639SOL    HW2 8815  13.322   1.015   3.258
35640SOL     OW 8816   5.252   1.336   8.110
35640SOL    HW1 8817   5.218   1.279   8.179
35640SOL    HW2 8818   5.329   1.290   8.076
35641SOL     OW 8819  13.384   9.672   8.078
35641SOL    HW1 8820  13.291   9.661   8.100
35641SOL    HW2 8821  13.429   9.664   8.162
35642SOL     OW 8822   2.550  14.031   6.082
35642SOL    HW1 8823   2.539  14.002   6.173
35642SOL    HW2 8824   2.639  14.066   6.079
35643SOL     OW 8825  14.778  13.697   8.260
35643SOL    HW1 8826  14.782  13.634   8.332
35643SOL    HW2 8827  14.844  13.763   8.281
35644SOL     OW 8828  10.122   3.118   8.897
35644SOL    HW1 8829  10.159   3.093   8.981
35644SOL    HW2 8830  10.174   3.071   8.832
35645SOL     OW 8831   4.383   9.308   3.524
35645SOL    HW1 8832   4.346   9.238   3.469
35645SOL    HW2 8833   4.313   9.373   3.531
35646SOL     OW 8834   4.570   7.661   8.526
35646SOL    HW1 8835   4.477   7.682   8.529
35646SOL    HW2 8836   4.601   7.701   8.445
35647SOL     OW 8837   5.936   7.834   4.603
35647SOL    HW1 8838   5.905   7.750   4.569
35647SOL    HW2 8839   5.950   7.887   4.525
35648SOL     OW 8840   8.291   2.925  13.930
35648SOL    HW1 8841   8.205   2.886  13.911
35648SOL    HW2 8842   8.346   2.899  13.856
35649SOL     OW 8843   5.911   4.572   4.661
35649SOL    HW1 8844   5.877   4.655   4.628
35649SOL    HW2 8845   5.834   4.524   4.690
35650SOL     OW 8846   3.781   9.740  12.677
35650SOL    HW1 8847   3.780   9.816  12.735
35650SOL    HW2 8848   3.866   9.744  12.633
35651SOL     OW 8849  11.925  12.915  12.838
35651SOL    HW1 8850  11.929  12.988  12.777
35651SOL    HW2 8851  12.005  12.866  12.822
35652SOL     OW 8852   3.265  12.229   6.869
35652SOL    HW1 8853   3.352  12.250   6.902
35652SOL    HW2 8854   3.220  12.189   6.944
35653SOL     OW 8855  11.558   0.120   5.139
35653SOL    HW1 8856  11.607   0.202   5.148
35653SOL    HW2 8857  11.606   0.058   5.194
35654SOL     OW 8858   5.959  12.787   8.592
35654SOL    HW1 8859   6.015  12.762   8.666
35654SOL    HW2 8860   5.936  12.878   8.609
35655SOL     OW 8861   8.596   1.386   4.711
35655SOL    HW1 8862   8.664   1.428   4.658
35655SOL    HW2 8863   8.518   1.440   4.699
35656SOL     OW 8864   2.489   7.763   9.024
35656SOL    HW1 8865   2.583   7.747   9.033
35656SOL    HW2 8866   2.462   7.708   8.951
35657SOL     OW 8867   1.349   2.200  10.303
35657SOL    HW1 8868   1.365   2.272  10.242
35657SOL    HW2 8869   1.254   2.198  10.314
35658SOL     OW 8870   6.491  10.120   4.136
35658SOL    HW1 8871   6.470  10.213   4.135
35658SOL    HW2 8872   6.424  10.081   4.192
35659SOL     OW 8873  11.145   6.539   2.004
35659SOL    HW1 8874  11.121   6.583   1.923
35659SOL    HW2 8875  11.238   6.557   2.015
35660SOL     OW 8876   6.022  14.075   7.634
35660SOL    HW1 8877   5.936  14.048   7.603
35660SOL    HW2 8878   6.034  14.162   7.597
35661SOL     OW 8879  11.048  13.350   5.113
35661SOL    HW1 8880  11.128  13.330   5.162
35661SOL    HW2 8881  11.004  13.266   5.103
35662SOL     OW 8882  12.012  10.885   1.566
35662SOL    HW1 8883  12.106  10.884   1.552
35662SOL    HW2 8884  11.995  10.806   1.619
35663SOL     OW 8885   5.091  13.860   8.722
35663SOL    HW1 8886   5.061  13.950   8.712
35663SOL    HW2 8887   5.044  13.827   8.798
35664SOL     OW 8888   1.872   6.133   6.254
35664SOL    HW1 8889   1.944   6.094   6.204
35664SOL    HW2 8890   1.805   6.064   6.256
35665SOL     OW 8891   2.397   8.440   7.355
35665SOL    HW1 8892   2.423   8.404   7.271
35665SOL    HW2 8893   2.366   8.364   7.405
35666SOL     OW 8894   5.988  10.424   6.708
35666SOL    HW1 8895   6.081  10.448   6.710
35666SOL    HW2 8896   5.987  10.338   6.666
35667SOL     OW 8897  12.150  12.669   7.713
35667SOL    HW1 8898  12.141  12.654   7.618
35667SOL    HW2 8899  12.070  12.631   7.751
35668SOL     OW 8900   9.040   9.118   2.522
35668SOL    HW1 8901   9.031   9.106   2.616
35668SOL    HW2 8902   8.950   9.113   2.489
35669SOL     OW 8903   7.257  12.373  13.089
35669SOL    HW1 8904   7.285  12.397  13.001
35669SOL    HW2 8905   7.178  12.424  13.104
35670SOL     OW 8906  12.836   8.584   8.244
35670SOL    HW1 8907  12.812   8.653   8.183
35670SOL    HW2 8908  12.792   8.607   8.326
35671SOL     OW 8909   8.411   0.235   4.711
35671SOL    HW1 8910   8.428   0.329   4.710
35671SOL    HW2 8911   8.498   0.195   4.719
35672SOL     OW 8912   7.000   4.587   0.962
35672SOL    HW1 8913   7.046   4.643   0.900
35672SOL    HW2 8914   7.047   4.503   0.958
35673SOL     OW 8915   6.651  13.591   3.060
35673SOL    HW1 8916   6.599  13.515   3.086
35673SOL    HW2 8917   6.667  13.638   3.141
35674SOL     OW 8918   9.408   5.762   5.582
35674SOL    HW1 8919   9.487   5.753   5.635
35674SOL    HW2 8920   9.339   5.779   5.646
35675SOL     OW 8921   4.437   5.288   8.386
35675SOL    HW1 8922   4.358   5.340   8.368
35675SOL    HW2 8923   4.471   5.266   8.299
35676SOL     OW 8924   4.496   6.787  11.010
35676SOL    HW1 8925   4.484   6.767  11.102
35676SOL    HW2 8926   4.576   6.840  11.007
35677SOL     OW 8927  10.306  14.603  14.426
35677SOL    HW1 8928  10.247  14.530  14.409
35677SOL    HW2 8929  10.380  14.564  14.472
35678SOL     OW 8930  11.191   8.783  13.875
35678SOL    HW1 8931  11.283   8.756  13.868
35678SOL    HW2 8932  11.143   8.710  13.835
35679SOL     OW 8933  11.820   1.387   3.798
35679SOL    HW1 8934  11.761   1.463   3.804
35679SOL    HW2 8935  11.903   1.419   3.832
35680SOL     OW 8936  10.585   0.553   3.643
35680SOL    HW1 8937  10.665   0.588   3.681
35680SOL    HW2 8938  10.537   0.517   3.717
35681SOL     OW 8939   3.497   6.735   5.421
35681SOL    HW1 8940   3.539   6.809   5.377
35681SOL    HW2 8941   3.556   6.713   5.493
35682SOL     OW 8942   8.568  10.027   8.100
35682SOL    HW1 8943   8.577  10.021   8.005
35682SOL    HW2 8944   8.653  10.001   8.134
35683SOL     OW 8945  13.058   6.268  10.761
35683SOL    HW1 8946  13.004   6.194  10.789
35683SOL    HW2 8947  13.095   6.302  10.842
35684SOL     OW 8948  10.849  12.627   7.400
35684SOL    HW1 8949  10.761  12.603   7.429
35684SOL    HW2 8950  10.835  12.672   7.317
35685SOL     OW 8951  10.327   7.893   0.572
35685SOL    HW1 8952  10.354   7.862   0.485
35685SOL    HW2 8953  10.393   7.857   0.632
35686SOL     OW 8954   6.472   5.523   3.328
35686SOL    HW1 8955   6.519   5.499   3.408
35686SOL    HW2 8956   6.395   5.466   3.327
35687SOL     OW 8957   8.069  10.711  10.223
35687SOL    HW1 8958   8.138  10.659  10.182
35687SOL    HW2 8959   8.077  10.798  10.183
35688SOL     OW 8960   6.232   9.948   2.482
35688SOL    HW1 8961   6.295   9.892   2.528
35688SOL    HW2 8962   6.239  10.033   2.525
35689SOL     OW 8963   1.582   2.860   7.994
35689SOL    HW1 8964   1.637   2.869   7.917
35689SOL    HW2 8965   1.542   2.773   7.985
35690SOL     OW 8966   1.877  12.561  11.235
35690SOL    HW1 8967   1.828  12.636  11.270
35690SOL    HW2 8968   1.908  12.515  11.313
35691SOL     OW 8969  12.880   2.680  10.732
35691SOL    HW1 8970  12.850   2.609  10.675
35691SOL    HW2 8971  12.810   2.691  10.796
35692SOL     OW 8972   3.146   5.408   9.202
35692SOL    HW1 8973   3.132   5.503   9.196
35692SOL    HW2 8974   3.175   5.383   9.114
35693SOL     OW 8975  13.766   6.331  11.516
35693SOL    HW1 8976  13.842   6.372  11.558
35693SOL    HW2 8977  13.690   6.369  11.559
35694SOL     OW 8978  14.720  13.181   6.855
35694SOL    HW1 8979  14.681  13.102   6.817
35694SOL    HW2 8980  14.686  13.253   6.803
35695SOL     OW 8981   6.944   1.560  14.162
35695SOL    HW1 8982   6.893   1.587  14.086
35695SOL    HW2 8983   7.028   1.531  14.126
35696SOL     OW 8984   6.478   0.653   0.542
35696SOL    HW1 8985   6.521   0.660   0.456
35696SOL    HW2 8986   6.550   0.658   0.605
35697SOL     OW 8987   0.624  10.443   4.958
35697SOL    HW1 8988   0.569  10.510   5.000
35697SOL    HW2 8989   0.618  10.463   4.864
35698SOL     OW 8990   8.436   9.755  12.275
35698SOL    HW1 8991   8.460   9.843  12.246
35698SOL    HW2 8992   8.436   9.703  12.195
35699SOL     OW 8993   0.961   9.987  10.934
35699SOL    HW1 8994   1.023   9.984  11.007
35699SOL    HW2 8995   0.973  10.074  10.896
35700SOL     OW 8996   7.757   6.138   9.664
35700SOL    HW1 8997   7.804   6.164   9.743
35700SOL    HW2 8998   7.748   6.219   9.613
35701SOL     OW 8999  11.530   3.682   4.841
35701SOL    HW1 9000  11.499   3.594   4.819
35701SOL    HW2 9001  11.556   3.719   4.756
35702SOL     OW 9002  13.404   2.775   8.552
35702SOL    HW1 9003  13.415   2.735   8.638
35702SOL    HW2 9004  13.310   2.785   8.541
35703SOL     OW 9005   4.085   3.369  13.556
35703SOL    HW1 9006   4.111   3.361  13.647
35703SOL    HW2 9007   4.076   3.463  13.542
35704SOL     OW 9008   3.472  11.649   1.925
35704SOL    HW1 9009   3.493  11.679   2.014
35704SOL    HW2 9010   3.453  11.555   1.935
35705SOL     OW 9011  12.928   9.009   8.974
35705SOL    HW1 9012  12.977   9.036   8.897
35705SOL    HW2 9013  12.969   9.055   9.047
35706SOL     OW 9014   3.831   0.017   8.283
35706SOL    HW1 9015   3.875  14.817   8.235
35706SOL    HW2 9016   3.755   0.038   8.229
35707SOL     OW 9017  10.782  14.727  11.468
35707SOL    HW1 9018  10.698  14.717  11.511
35707SOL    HW2 9019  10.761  14.732  11.375
35708SOL     OW 9020  10.631   6.317   9.395
35708SOL    HW1 9021  10.720   6.300   9.424
35708SOL    HW2 9022  10.603   6.236   9.352
35709SOL     OW 9023  12.221  12.414   6.397
35709SOL    HW1 9024  12.266  12.460   6.467
35709SOL    HW2 9025  12.290  12.373   6.346
35710SOL     OW 9026  13.197  14.483  11.786
35710SOL    HW1 9027  13.112  14.524  11.797
35710SOL    HW2 9028  13.207  14.426  11.862
35711SOL     OW 9029   2.332   3.714   1.223
35711SOL    HW1 9030   2.256   3.663   1.251
35711SOL    HW2 9031   2.295   3.791   1.179
35712SOL     OW 9032  11.209  10.519   8.285
35712SOL    HW1 9033  11.155  10.476   8.218
35712SOL    HW2 9034  11.189  10.612   8.276
35713SOL     OW 9035  11.194   6.967  12.671
35713SOL    HW1 9036  11.254   7.007  12.734
35713SOL    HW2 9037  11.171   7.039  12.611
35714SOL     OW 9038   8.787   5.169   9.185
35714SOL    HW1 9039   8.769   5.130   9.099
35714SOL    HW2 9040   8.701   5.175   9.227
35715SOL     OW 9041   4.543   7.729   7.855
35715SOL    HW1 9042   4.520   7.679   7.934
35715SOL    HW2 9043   4.633   7.758   7.871
35716SOL     OW 9044   0.994   3.044   5.541
35716SOL    HW1 9045   1.056   2.995   5.596
35716SOL    HW2 9046   1.011   3.013   5.452
35717SOL     OW 9047   0.876  14.738   1.582
35717SOL    HW1 9048   0.940  14.802   1.551
35717SOL    HW2 9049   0.792  14.771   1.550
35718SOL     OW 9050   5.854   7.769  14.446
35718SOL    HW1 9051   5.789   7.831  14.411
35718SOL    HW2 9052   5.879   7.806  14.530
35719SOL     OW 9053   3.728   3.275  13.241
35719SOL    HW1 9054   3.786   3.339  13.282
35719SOL    HW2 9055   3.764   3.190  13.266
35720SOL     OW 9056   5.645   9.614   1.924
35720SOL    HW1 9057   5.647   9.642   2.016
35720SOL    HW2 9058   5.708   9.671   1.880
35721SOL     OW 9059  12.251   7.222   1.913
35721SOL    HW1 9060  12.275   7.216   2.006
35721SOL    HW2 9061  12.328   7.191   1.866
35722SOL     OW 9062   3.234   9.141   8.505
35722SOL    HW1 9063   3.313   9.114   8.551
35722SOL    HW2 9064   3.172   9.070   8.518
35723SOL     OW 9065  12.010   5.691  10.521
35723SOL    HW1 9066  11.991   5.758  10.587
35723SOL    HW2 9067  11.924   5.662  10.491
35724SOL     OW 9068   3.421  14.122   4.606
35724SOL    HW1 9069   3.428  14.039   4.653
35724SOL    HW2 9070   3.412  14.188   4.675
35725SOL     OW 9071   7.988   8.823  10.438
35725SOL    HW1 9072   7.897   8.802  10.416
35725SOL    HW2 9073   8.021   8.872  10.362
35726SOL     OW 9074   6.317  10.353   7.691
35726SOL    HW1 9075   6.355  10.306   7.765
35726SOL    HW2 9076   6.327  10.446   7.714
35727SOL     OW 9077   5.149   2.484  14.115
35727SOL    HW1 9078   5.155   2.529  14.200
35727SOL    HW2 9079   5.197   2.542  14.055
35728SOL     OW 9080   4.574   5.555   5.200
35728SOL    HW1 9081   4.503   5.580   5.259
35728SOL    HW2 9082   4.649   5.541   5.258
35729SOL     OW 9083   5.096   1.908  13.839
35729SOL    HW1 9084   5.188   1.933  13.839
35729SOL    HW2 9085   5.049   1.989  13.855
35730SOL     OW 9086   5.860   4.987   1.389
35730SOL    HW1 9087   5.785   4.929   1.376
35730SOL    HW2 9088   5.879   5.022   1.302
35731SOL     OW 9089   3.581   8.243  11.286
35731SOL    HW1 9090   3.528   8.198  11.221
35731SOL    HW2 9091   3.518   8.289  11.342
35732SOL     OW 9092   4.791   3.012   4.317
35732SOL    HW1 9093   4.735   3.087   4.297
35732SOL    HW2 9094   4.751   2.972   4.395
35733SOL     OW 9095  10.251  13.614   0.935
35733SOL    HW1 9096  10.261  13.520   0.922
35733SOL    HW2 9097  10.252  13.626   1.030
35734SOL     OW 9098   7.428   1.858   1.349
35734SOL    HW1 9099   7.485   1.781   1.351
35734SOL    HW2 9100   7.342   1.825   1.376
35735SOL     OW 9101   4.905   3.567   8.254
35735SOL    HW1 9102   4.992   3.534   8.235
35735SOL    HW2 9103   4.911   3.661   8.237
35736SOL     OW 9104   5.525   9.079  14.864
35736SOL    HW1 9105   5.445   9.029   0.005
35736SOL    HW2 9106   5.595   9.015   0.007
35737SOL     OW 9107   4.693  10.937   4.212
35737SOL    HW1 9108   4.706  11.015   4.265
35737SOL    HW2 9109   4.642  10.967   4.137
35738SOL     OW 9110   5.529  12.089   2.086
35738SOL    HW1 9111   5.523  12.173   2.040
35738SOL    HW2 9112   5.594  12.040   2.036
35739SOL     OW 9113  13.556  10.452   1.592
35739SOL    HW1 9114  13.513  10.528   1.554
35739SOL    HW2 9115  13.644  10.452   1.552
35740SOL     OW 9116   1.992  13.201   8.180
35740SOL    HW1 9117   2.015  13.235   8.266
35740SOL    HW2 9118   2.030  13.113   8.178
35741SOL     OW 9119  12.882  13.409   8.713
35741SOL    HW1 9120  12.788  13.403   8.692
35741SOL    HW2 9121  12.886  13.466   8.790
35742SOL     OW 9122   6.872   5.904  12.171
35742SOL    HW1 9123   6.907   5.992  12.185
35742SOL    HW2 9124   6.949   5.846  12.177
35743SOL     OW 9125  13.137  12.116  13.766
35743SOL    HW1 9126  13.106  12.181  13.703
35743SOL    HW2 9127  13.207  12.070  13.721
35744SOL     OW 9128  11.698   5.988   4.828
35744SOL    HW1 9129  11.668   6.045   4.757
35744SOL    HW2 9130  11.779   6.030   4.859
35745SOL     OW 9131   8.695  11.263  11.999
35745SOL    HW1 9132   8.659  11.229  11.917
35745SOL    HW2 9133   8.625  11.316  12.037
35746SOL     OW 9134   5.710   8.623  11.946
35746SOL    HW1 9135   5.666   8.678  12.011
35746SOL    HW2 9136   5.765   8.685  11.897
35747SOL     OW 9137   9.328  13.296   0.892
35747SOL    HW1 9138   9.377  13.233   0.838
35747SOL    HW2 9139   9.251  13.318   0.840
35748SOL     OW 9140   7.452   5.099  12.916
35748SOL    HW1 9141   7.418   5.178  12.958
35748SOL    HW2 9142   7.532   5.080  12.965
35749SOL     OW 9143   9.497   8.802  12.891
35749SOL    HW1 9144   9.519   8.859  12.964
35749SOL    HW2 9145   9.529   8.848  12.814
35750SOL     OW 9146   8.659   8.542   4.730
35750SOL    HW1 9147   8.605   8.526   4.807
35750SOL    HW2 9148   8.627   8.480   4.664
35751SOL     OW 9149  11.898   3.238   1.670
35751SOL    HW1 9150  11.892   3.232   1.575
35751SOL    HW2 9151  11.944   3.159   1.696
35752SOL     OW 9152  13.287   8.720   1.561
35752SOL    HW1 9153  13.269   8.627   1.561
35752SOL    HW2 9154  13.271   8.749   1.651
35753SOL     OW 9155   0.891   8.125   6.209
35753SOL    HW1 9156   0.882   8.168   6.294
35753SOL    HW2 9157   0.862   8.191   6.146
35754SOL     OW 9158   1.871   7.820  10.345
35754SOL    HW1 9159   1.782   7.795  10.370
35754SOL    HW2 9160   1.880   7.791  10.255
35755SOL     OW 9161   0.408  11.145   2.070
35755SOL    HW1 9162   0.424  11.055   2.098
35755SOL    HW2 9163   0.436  11.148   1.979
35756SOL     OW 9164   5.605   2.223  14.499
35756SOL    HW1 9165   5.694   2.188  14.498
35756SOL    HW2 9166   5.609   2.298  14.558
35757SOL     OW 9167   6.161  12.865   4.623
35757SOL    HW1 9168   6.158  12.782   4.671
35757SOL    HW2 9169   6.069  12.888   4.611
35758SOL     OW 9170  12.017   3.380  11.654
35758SOL    HW1 9171  12.093   3.334  11.619
35758SOL    HW2 9172  11.950   3.312  11.661
35759SOL     OW 9173   0.312   1.473   3.186
35759SOL    HW1 9174   0.368   1.416   3.239
35759SOL    HW2 9175   0.365   1.496   3.110
35760SOL     OW 9176   3.551  14.207  13.305
35760SOL    HW1 9177   3.539  14.118  13.339
35760SOL    HW2 9178   3.598  14.252  13.375
35761SOL     OW 9179   8.405   1.726   2.208
35761SOL    HW1 9180   8.495   1.695   2.217
35761SOL    HW2 9181   8.372   1.682   2.130
35762SOL     OW 9182  11.656   1.156   3.880
35762SOL    HW1 9183  11.587   1.174   3.816
35762SOL    HW2 9184  11.727   1.214   3.855
35763SOL     OW 9185   6.834  10.047  13.136
35763SOL    HW1 9186   6.849  10.026  13.044
35763SOL    HW2 9187   6.746  10.085  13.138
35764SOL     OW 9188   3.754   0.391   7.704
35764SOL    HW1 9189   3.771   0.318   7.764
35764SOL    HW2 9190   3.701   0.352   7.634
35765SOL     OW 9191   5.628   5.138   8.476
35765SOL    HW1 9192   5.556   5.114   8.417
35765SOL    HW2 9193   5.665   5.217   8.436
35766SOL     OW 9194   6.745   9.177   1.128
35766SOL    HW1 9195   6.704   9.235   1.064
35766SOL    HW2 9196   6.754   9.230   1.207
35767SOL     OW 9197  13.429  10.619   8.773
35767SOL    HW1 9198  13.337  10.641   8.767
35767SOL    HW2 9199  13.446  10.563   8.697
35768SOL     OW 9200  11.770  10.599   3.136
35768SOL    HW1 9201  11.800  10.603   3.227
35768SOL    HW2 9202  11.850  10.592   3.085
35769SOL     OW 9203  12.012  12.415   8.488
35769SOL    HW1 9204  11.968  12.410   8.404
35769SOL    HW2 9205  12.077  12.485   8.476
35770SOL     OW 9206   3.673  13.857   3.449
35770SOL    HW1 9207   3.680  13.951   3.464
35770SOL    HW2 9208   3.761  13.830   3.421
35771SOL     OW 9209   5.512   3.494   7.582
35771SOL    HW1 9210   5.566   3.562   7.623
35771SOL    HW2 9211   5.466   3.540   7.512
35772SOL     OW 9212  12.490  14.865   1.123
35772SOL    HW1 9213  12.489  14.839   1.215
35772SOL    HW2 9214  12.474  14.784   1.074
35773SOL     OW 9215   2.811   4.246   9.346
35773SOL    HW1 9216   2.816   4.245   9.442
35773SOL    HW2 9217   2.720   4.223   9.327
35774SOL     OW 9218   5.198  13.957  14.710
35774SOL    HW1 9219   5.204  14.043  14.752
35774SOL    HW2 9220   5.287  13.921  14.718
35775SOL     OW 9221  12.595   2.551   7.490
35775SOL    HW1 9222  12.614   2.478   7.549
35775SOL    HW2 9223  12.651   2.535   7.413
35776SOL     OW 9224   0.255   7.622  10.777
35776SOL    HW1 9225   0.347   7.622  10.801
35776SOL    HW2 9226   0.233   7.714  10.763
35777SOL     OW 9227   6.925   4.102   4.914
35777SOL    HW1 9228   6.857   4.136   4.856
35777SOL    HW2 9229   6.980   4.178   4.934
35778SOL     OW 9230  10.414   5.741   4.292
35778SOL    HW1 9231  10.428   5.768   4.201
35778SOL    HW2 9232  10.485   5.782   4.341
35779SOL     OW 9233   9.597   8.947   2.923
35779SOL    HW1 9234   9.548   9.027   2.941
35779SOL    HW2 9235   9.555   8.910   2.845
35780SOL     OW 9236   5.019   7.422   1.589
35780SOL    HW1 9237   5.029   7.383   1.502
35780SOL    HW2 9238   5.104   7.463   1.607
35781SOL     OW 9239   5.502  13.231   2.162
35781SOL    HW1 9240   5.411  13.203   2.158
35781SOL    HW2 9241   5.546  13.164   2.214
35782SOL     OW 9242  10.388   1.931   4.393
35782SOL    HW1 9243  10.424   2.015   4.363
35782SOL    HW2 9244  10.408   1.929   4.487
35783SOL     OW 9245   4.419  14.466  10.819
35783SOL    HW1 9246   4.334  14.440  10.854
35783SOL    HW2 9247   4.420  14.562  10.828
35784SOL     OW 9248   7.216  14.031  13.094
35784SOL    HW1 9249   7.259  14.115  13.109
35784SOL    HW2 9250   7.153  14.048  13.024
35785SOL     OW 9251   7.119  13.072   0.534
35785SOL    HW1 9252   7.038  13.044   0.492
35785SOL    HW2 9253   7.098  13.156   0.575
35786SOL     OW 9254   8.207   2.103   0.639
35786SOL    HW1 9255   8.240   2.016   0.657
35786SOL    HW2 9256   8.117   2.102   0.673
35787SOL     OW 9257  10.261  13.911  11.241
35787SOL    HW1 9258  10.193  13.979  11.241
35787SOL    HW2 9259  10.306  13.923  11.157
35788SOL     OW 9260   7.223   8.125   8.940
35788SOL    HW1 9261   7.127   8.119   8.947
35788SOL    HW2 9262   7.242   8.218   8.943
35789SOL     OW 9263   4.301   3.810   7.825
35789SOL    HW1 9264   4.263   3.801   7.737
35789SOL    HW2 9265   4.391   3.839   7.810
35790SOL     OW 9266  14.386   1.427  14.280
35790SOL    HW1 9267  14.374   1.339  14.243
35790SOL    HW2 9268  14.339   1.424  14.363
35791SOL     OW 9269   8.392  13.137  13.694
35791SOL    HW1 9270   8.480  13.102  13.710
35791SOL    HW2 9271   8.405  13.231  13.683
35792SOL     OW 9272   1.570  13.707  14.494
35792SOL    HW1 9273   1.656  13.750  14.495
35792SOL    HW2 9274   1.514  13.768  14.447
35793SOL     OW 9275   4.421  14.347  11.911
35793SOL    HW1 9276   4.353  14.380  11.853
35793SOL    HW2 9277   4.471  14.285  11.857
35794SOL     OW 9278  11.413  12.622   9.156
35794SOL    HW1 9279  11.464  12.554   9.112
35794SOL    HW2 9280  11.322  12.593   9.147
35795SOL     OW 9281   2.680   7.752   0.707
35795SOL    HW1 9282   2.755   7.800   0.670
35795SOL    HW2 9283   2.620   7.742   0.633
35796SOL     OW 9284  11.032  14.865   7.306
35796SOL    HW1 9285  10.941  14.838   7.316
35796SOL    HW2 9286  11.036   0.035   7.219
35797SOL     OW 9287   2.796   1.411  14.275
35797SOL    HW1 9288   2.836   1.397  14.190
35797SOL    HW2 9289   2.822   1.335  14.327
35798SOL     OW 9290  10.209  14.582   9.112
35798SOL    HW1 9291  10.174  14.516   9.052
35798SOL    HW2 9292  10.303  14.584   9.094
35799SOL     OW 9293   6.914   1.317   5.242
35799SOL    HW1 9294   6.988   1.332   5.183
35799SOL    HW2 9295   6.837   1.336   5.189
35800SOL     OW 9296  11.652   5.176  14.627
35800SOL    HW1 9297  11.561   5.162  14.650
35800SOL    HW2 9298  11.661   5.271  14.620
35801SOL     OW 9299   9.745  12.378   6.205
35801SOL    HW1 9300   9.662  12.347   6.169
35801SOL    HW2 9301   9.720  12.434   6.278
35802SOL     OW 9302  10.472  13.011   6.975
35802SOL    HW1 9303  10.566  13.013   6.958
35802SOL    HW2 9304  10.464  13.037   7.067
35803SOL     OW 9305  13.004   4.062   3.789
35803SOL    HW1 9306  13.098   4.070   3.780
35803SOL    HW2 9307  12.990   3.973   3.822
35804SOL     OW 9308  14.800  13.797   2.430
35804SOL    HW1 9309  14.831  13.760   2.513
35804SOL    HW2 9310  14.723  13.848   2.455
35805SOL     OW 9311   8.010   1.453  12.619
35805SOL    HW1 9312   7.989   1.470  12.527
35805SOL    HW2 9313   8.067   1.525  12.644
35806SOL     OW 9314   3.060  14.838   0.243
35806SOL    HW1 9315   3.111   0.049   0.237
35806SOL    HW2 9316   3.065  14.813   0.335
35807SOL     OW 9317  12.199  14.107   5.797
35807SOL    HW1 9318  12.126  14.114   5.857
35807SOL    HW2 9319  12.213  14.013   5.785
35808SOL     OW 9320   1.467  13.286   3.653
35808SOL    HW1 9321   1.383  13.288   3.699
35808SOL    HW2 9322   1.446  13.252   3.566
35809SOL     OW 9323  13.966  10.878  14.218
35809SOL    HW1 9324  13.893  10.913  14.166
35809SOL    HW2 9325  14.015  10.823  14.157
35810SOL     OW 9326   3.497  13.701   3.587
35810SOL    HW1 9327   3.559  13.756   3.538
35810SOL    HW2 9328   3.468  13.635   3.524
35811SOL     OW 9329   4.793  11.476   2.933
35811SOL    HW1 9330   4.705  11.438   2.937
35811SOL    HW2 9331   4.778  11.570   2.922
35812SOL     OW 9332   6.986   0.572   5.147
35812SOL    HW1 9333   6.984   0.511   5.074
35812SOL    HW2 9334   7.015   0.521   5.222
35813SOL     OW 9335   5.574   7.661  12.427
35813SOL    HW1 9336   5.633   7.605  12.476
35813SOL    HW2 9337   5.596   7.645  12.335
35814SOL     OW 9338   9.061   4.684  10.484
35814SOL    HW1 9339   9.141   4.641  10.513
35814SOL    HW2 9340   9.029   4.632  10.411
35815SOL     OW 9341  10.385   6.049   1.322
35815SOL    HW1 9342  10.307   6.057   1.268
35815SOL    HW2 9343  10.393   6.134   1.365
35816SOL     OW 9344   9.549  12.574   6.992
35816SOL    HW1 9345   9.542  12.641   7.060
35816SOL    HW2 9346   9.488  12.602   6.924
35817SOL     OW 9347   0.890  12.789  11.854
35817SOL    HW1 9348   0.858  12.759  11.940
35817SOL    HW2 9349   0.973  12.743  11.842
35818SOL     OW 9350  12.746   9.572  11.221
35818SOL    HW1 9351  12.741   9.608  11.310
35818SOL    HW2 9352  12.737   9.477  11.234
35819SOL     OW 9353   8.152  14.398   6.181
35819SOL    HW1 9354   8.215  14.436   6.241
35819SOL    HW2 9355   8.114  14.473   6.135
35820SOL     OW 9356   5.278   3.557   0.000
35820SOL    HW1 9357   5.253   3.635  14.821
35820SOL    HW2 9358   5.364   3.577   0.036
35821SOL     OW 9359   7.240  14.173   8.270
35821SOL    HW1 9360   7.238  14.105   8.337
35821SOL    HW2 9361   7.314  14.150   8.214
35822SOL     OW 9362  10.669   7.060   8.674
35822SOL    HW1 9363  10.659   6.979   8.623
35822SOL    HW2 9364  10.746   7.102   8.636
35823SOL     OW 9365  14.087  12.132   3.566
35823SOL    HW1 9366  14.092  12.156   3.659
35823SOL    HW2 9367  14.145  12.194   3.522
35824SOL     OW 9368   8.384   6.423   7.458
35824SOL    HW1 9369   8.428   6.491   7.511
35824SOL    HW2 9370   8.453   6.392   7.400
35825SOL     OW 9371  10.624   3.744   4.241
35825SOL    HW1 9372  10.609   3.697   4.159
35825SOL    HW2 9373  10.556   3.811   4.243
35826SOL     OW 9374   2.505   9.181   5.950
35826SOL    HW1 9375   2.596   9.160   5.932
35826SOL    HW2 9376   2.461   9.170   5.866
35827SOL     OW 9377   0.249   8.519   0.184
35827SOL    HW1 9378   0.212   8.497   0.099
35827SOL    HW2 9379   0.173   8.540   0.239
35828SOL     OW 9380   8.731   4.440   5.251
35828SOL    HW1 9381   8.658   4.416   5.309
35828SOL    HW2 9382   8.807   4.398   5.290
35829SOL     OW 9383   3.244   2.078   1.410
35829SOL    HW1 9384   3.295   2.050   1.486
35829SOL    HW2 9385   3.305   2.127   1.356
35830SOL     OW 9386  13.259  12.229  12.635
35830SOL    HW1 9387  13.299  12.175  12.567
35830SOL    HW2 9388  13.299  12.315  12.624
35831SOL     OW 9389  13.814   5.307   6.195
35831SOL    HW1 9390  13.805   5.387   6.247
35831SOL    HW2 9391  13.907   5.303   6.173
35832SOL     OW 9392   6.967  11.361   8.406
35832SOL    HW1 9393   6.954  11.301   8.479
35832SOL    HW2 9394   6.936  11.312   8.329
35833SOL     OW 9395   5.413   3.890   1.951
35833SOL    HW1 9396   5.351   3.885   2.024
35833SOL    HW2 9397   5.439   3.799   1.935
35834SOL     OW 9398  10.302   2.153  10.031
35834SOL    HW1 9399  10.220   2.174   9.987
35834SOL    HW2 9400  10.371   2.184   9.971
35835SOL     OW 9401  12.445   4.680   8.843
35835SOL    HW1 9402  12.521   4.730   8.814
35835SOL    HW2 9403  12.424   4.623   8.768
35836SOL     OW 9404   2.848   9.587   1.839
35836SOL    HW1 9405   2.795   9.508   1.851
35836SOL    HW2 9406   2.809   9.651   1.899
35837SOL     OW 9407  14.377  12.832  10.743
35837SOL    HW1 9408  14.461  12.847  10.786
35837SOL    HW2 9409  14.388  12.868  10.655
35838SOL     OW 9410   2.009  14.155   4.359
35838SOL    HW1 9411   2.087  14.195   4.397
35838SOL    HW2 9412   1.937  14.191   4.410
35839SOL     OW 9413  10.298   6.438   1.040
35839SOL    HW1 9414  10.259   6.445   1.128
35839SOL    HW2 9415  10.248   6.499   0.987
35840SOL     OW 9416  10.474   9.604  13.250
35840SOL    HW1 9417  10.550   9.650  13.287
35840SOL    HW2 9418  10.510   9.522  13.217
35841SOL     OW 9419   9.062   7.475   8.981
35841SOL    HW1 9420   9.094   7.563   8.963
35841SOL    HW2 9421   9.037   7.440   8.896
35842SOL     OW 9422   8.943  13.109   8.547
35842SOL    HW1 9423   8.984  13.150   8.623
35842SOL    HW2 9424   8.892  13.037   8.583
35843SOL     OW 9425   6.495  12.294   2.033
35843SOL    HW1 9426   6.569  12.354   2.019
35843SOL    HW2 9427   6.423  12.334   1.983
35844SOL     OW 9428  12.720  13.142   4.889
35844SOL    HW1 9429  12.757  13.054   4.892
35844SOL    HW2 9430  12.690  13.158   4.978
35845SOL     OW 9431  10.942   1.564  11.673
35845SOL    HW1 9432  10.850   1.564  11.700
35845SOL    HW2 9433  10.951   1.487  11.617
35846SOL     OW 9434  12.915   1.920   2.389
35846SOL    HW1 9435  12.939   2.003   2.430
35846SOL    HW2 9436  12.985   1.903   2.326
35847SOL     OW 9437  12.983   6.240  13.360
35847SOL    HW1 9438  12.956   6.214  13.448
35847SOL    HW2 9439  12.906   6.224  13.306
35848SOL     OW 9440   2.292   1.844   7.603
35848SOL    HW1 9441   2.274   1.814   7.692
35848SOL    HW2 9442   2.280   1.939   7.606
35849SOL     OW 9443   1.516  11.943  11.856
35849SOL    HW1 9444   1.545  11.896  11.778
35849SOL    HW2 9445   1.421  11.936  11.855
35850SOL     OW 9446   3.540   7.200  13.007
35850SOL    HW1 9447   3.508   7.287  13.030
35850SOL    HW2 9448   3.479   7.169  12.941
35851SOL     OW 9449   4.415  10.422   2.166
35851SOL    HW1 9450   4.380  10.489   2.106
35851SOL    HW2 9451   4.417  10.342   2.113
35852SOL     OW 9452  13.164  12.441   6.209
35852SOL    HW1 9453  13.245  12.473   6.168
35852SOL    HW2 9454  13.191  12.408   6.294
35853SOL     OW 9455  13.131   1.726  12.719
35853SOL    HW1 9456  13.116   1.690  12.806
35853SOL    HW2 9457  13.053   1.779  12.701
35854SOL     OW 9458   6.910   0.787   5.943
35854SOL    HW1 9459   6.903   0.857   6.008
35854SOL    HW2 9460   6.850   0.813   5.873
35855SOL     OW 9461   2.426   6.159  10.219
35855SOL    HW1 9462   2.340   6.190  10.248
35855SOL    HW2 9463   2.440   6.204  10.136
35856SOL     OW 9464   1.842  14.107  11.733
35856SOL    HW1 9465   1.863  14.013  11.733
35856SOL    HW2 9466   1.927  14.150  11.736
35857SOL     OW 9467  12.986  13.156  13.400
35857SOL    HW1 9468  12.903  13.141  13.356
35857SOL    HW2 9469  12.989  13.091  13.470
35858SOL     OW 9470  12.688   9.633   9.585
35858SOL    HW1 9471  12.718   9.715   9.624
35858SOL    HW2 9472  12.645   9.659   9.504
35859SOL     OW 9473   1.414   4.014   1.145
35859SOL    HW1 9474   1.342   3.967   1.188
35859SOL    HW2 9475   1.442   4.079   1.209
35860SOL     OW 9476  13.933  14.102   6.642
35860SOL    HW1 9477  14.026  14.090   6.620
35860SOL    HW2 9478  13.888  14.101   6.558
35861SOL     OW 9479  10.724  12.780   8.510
35861SOL    HW1 9480  10.686  12.791   8.422
35861SOL    HW2 9481  10.733  12.686   8.520
35862SOL     OW 9482  13.484   5.331   0.198
35862SOL    HW1 9483  13.457   5.256   0.144
35862SOL    HW2 9484  13.559   5.368   0.150
35863SOL     OW 9485   6.204  10.045   7.672
35863SOL    HW1 9486   6.298  10.032   7.659
35863SOL    HW2 9487   6.196  10.134   7.704
35864SOL     OW 9488  12.590   5.998  12.571
35864SOL    HW1 9489  12.594   5.922  12.629
35864SOL    HW2 9490  12.653   5.979  12.502
35865SOL     OW 9491   6.882  14.296   0.430
35865SOL    HW1 9492   6.849  14.363   0.370
35865SOL    HW2 9493   6.834  14.217   0.408
35866SOL     OW 9494  13.419   2.317   3.084
35866SOL    HW1 9495  13.506   2.282   3.101
35866SOL    HW2 9496  13.426   2.410   3.104
35867SOL     OW 9497   3.593  13.059   6.488
35867SOL    HW1 9498   3.614  12.976   6.529
35867SOL    HW2 9499   3.679  13.099   6.469
35868SOL     OW 9500   4.963  11.698  14.543
35868SOL    HW1 9501   4.920  11.783  14.547
35868SOL    HW2 9502   4.900  11.641  14.499
35869SOL     OW 9503   6.868  11.231  10.091
35869SOL    HW1 9504   6.818  11.278  10.158
35869SOL    HW2 9505   6.901  11.300  10.033
35870SOL     OW 9506   4.143   7.709   5.482
35870SOL    HW1 9507   4.184   7.750   5.407
35870SOL    HW2 9508   4.191   7.627   5.494
35871SOL     OW 9509   4.655   6.604   4.506
35871SOL    HW1 9510   4.626   6.592   4.597
35871SOL    HW2 9511   4.584   6.568   4.453
35872SOL     OW 9512   6.668   9.141   6.631
35872SOL    HW1 9513   6.730   9.073   6.607
35872SOL    HW2 9514   6.591   9.124   6.577
35873SOL     OW 9515   4.465   3.367  14.491
35873SOL    HW1 9516   4.441   3.293  14.547
35873SOL    HW2 9517   4.467   3.442  14.550
35874SOL     OW 9518  12.506   0.048   9.292
35874SOL    HW1 9519  12.554   0.127   9.316
35874SOL    HW2 9520  12.566   0.000   9.235
35875SOL     OW 9521  12.942  11.587  12.458
35875SOL    HW1 9522  12.875  11.646  12.423
35875SOL    HW2 9523  13.023  11.615  12.416
35876SOL     OW 9524  12.227  10.038   4.001
35876SOL    HW1 9525  12.175  10.103   4.048
35876SOL    HW2 9526  12.295  10.011   4.063
35877SOL     OW 9527   1.044  11.602   3.990
35877SOL    HW1 9528   1.039  11.693   3.963
35877SOL    HW2 9529   1.009  11.601   4.080
35878SOL     OW 9530   8.006  11.515   3.124
35878SOL    HW1 9531   7.993  11.546   3.035
35878SOL    HW2 9532   7.918  11.495   3.156
35879SOL     OW 9533  11.742   0.744   3.584
35879SOL    HW1 9534  11.825   0.750   3.631
35879SOL    HW2 9535  11.740   0.824   3.530
35880SOL     OW 9536   3.206   4.016  10.999
35880SOL    HW1 9537   3.271   4.006  10.929
35880SOL    HW2 9538   3.253   3.992  11.079
35881SOL     OW 9539  11.066  14.408  14.063
35881SOL    HW1 9540  11.019  14.492  14.061
35881SOL    HW2 9541  11.158  14.432  14.063
35882SOL     OW 9542   3.432   1.553   1.020
35882SOL    HW1 9543   3.443   1.546   1.115
35882SOL    HW2 9544   3.512   1.594   0.989
35883SOL     OW 9545  14.377   1.533  13.146
35883SOL    HW1 9546  14.396   1.462  13.085
35883SOL    HW2 9547  14.302   1.501  13.197
35884SOL     OW 9548   2.552  10.377   9.747
35884SOL    HW1 9549   2.629  10.395   9.693
35884SOL    HW2 9550   2.479  10.410   9.695
35885SOL     OW 9551   8.362   4.460  10.821
35885SOL    HW1 9552   8.401   4.487  10.737
35885SOL    HW2 9553   8.333   4.542  10.861
35886SOL     OW 9554  10.668   4.928   9.188
35886SOL    HW1 9555  10.646   4.977   9.109
35886SOL    HW2 9556  10.723   4.856   9.157
35887SOL     OW 9557   6.642   2.128  10.002
35887SOL    HW1 9558   6.634   2.190   9.929
35887SOL    HW2 9559   6.706   2.168  10.060
35888SOL     OW 9560   7.890   5.050   6.979
35888SOL    HW1 9561   7.909   5.067   6.887
35888SOL    HW2 9562   7.820   4.985   6.977
35889SOL     OW 9563   3.463   6.083   0.561
35889SOL    HW1 9564   3.450   6.142   0.635
35889SOL    HW2 9565   3.556   6.060   0.565
35890SOL     OW 9566   5.058  10.586   7.952
35890SOL    HW1 9567   5.000  10.537   8.010
35890SOL    HW2 9568   5.099  10.652   8.008
35891SOL     OW 9569  12.306   2.238   3.726
35891SOL    HW1 9570  12.321   2.252   3.819
35891SOL    HW2 9571  12.393   2.237   3.687
35892SOL     OW 9572  11.873   3.598  11.188
35892SOL    HW1 9573  11.883   3.667  11.254
35892SOL    HW2 9574  11.844   3.645  11.109
35893SOL     OW 9575   9.054  13.368  14.077
35893SOL    HW1 9576   9.084  13.432  14.012
35893SOL    HW2 9577   8.977  13.328  14.038
35894SOL     OW 9578  11.603   0.788  12.442
35894SOL    HW1 9579  11.601   0.744  12.357
35894SOL    HW2 9580  11.513   0.781  12.475
35895SOL     OW 9581   6.326   6.161  14.289
35895SOL    HW1 9582   6.306   6.067  14.288
35895SOL    HW2 9583   6.418   6.165  14.315
35896SOL     OW 9584   8.199   5.196   0.363
35896SOL    HW1 9585   8.109   5.227   0.357
35896SOL    HW2 9586   8.222   5.206   0.455
35897SOL     OW 9587   3.028  11.000  11.292
35897SOL    HW1 9588   3.046  11.087  11.329
35897SOL    HW2 9589   2.934  11.000  11.275
35898SOL     OW 9590  11.101   1.844   7.635
35898SOL    HW1 9591  11.080   1.932   7.667
35898SOL    HW2 9592  11.090   1.787   7.711
35899SOL     OW 9593  13.144  13.805   0.809
35899SOL    HW1 9594  13.098  13.886   0.826
35899SOL    HW2 9595  13.236  13.831   0.799
35900SOL     OW 9596   4.247   2.144  12.073
35900SOL    HW1 9597   4.161   2.166  12.038
35900SOL    HW2 9598   4.233   2.136  12.167
35901SOL     OW 9599   0.734   2.097   1.098
35901SOL    HW1 9600   0.720   2.088   1.003
35901SOL    HW2 9601   0.760   2.010   1.126
35902SOL     OW 9602   5.657   0.857   4.478
35902SOL    HW1 9603   5.726   0.923   4.485
35902SOL    HW2 9604   5.638   0.832   4.568
35903SOL     OW 9605   4.176   9.938   2.108
35903SOL    HW1 9606   4.179  10.030   2.135
35903SOL    HW2 9607   4.154   9.890   2.187
35904SOL     OW 9608   8.004   3.035   1.801
35904SOL    HW1 9609   7.968   3.017   1.714
35904SOL    HW2 9610   8.017   3.129   1.803
35905SOL     OW 9611   6.244   5.734  11.696
35905SOL    HW1 9612   6.327   5.763  11.657
35905SOL    HW2 9613   6.206   5.676  11.630
35906SOL     OW 9614   7.171   0.277   0.660
35906SOL    HW1 9615   7.075   0.273   0.664
35906SOL    HW2 9616   7.196   0.308   0.748
35907SOL     OW 9617   0.271   0.307  10.189
35907SOL    HW1 9618   0.189   0.295  10.140
35907SOL    HW2 9619   0.249   0.284  10.279
35908SOL     OW 9620   1.143  12.527  12.049
35908SOL    HW1 9621   1.196  12.569  12.116
35908SOL    HW2 9622   1.054  12.554  12.068
35909SOL     OW 9623   0.350  10.620  13.876
35909SOL    HW1 9624   0.285  10.586  13.815
35909SOL    HW2 9625   0.340  10.565  13.954
35910SOL     OW 9626  12.590   8.776   2.970
35910SOL    HW1 9627  12.602   8.689   3.007
35910SOL    HW2 9628  12.586   8.762   2.875
35911SOL     OW 9629   5.639   0.409  13.264
35911SOL    HW1 9630   5.559   0.460  13.249
35911SOL    HW2 9631   5.710   0.469  13.240
35912SOL     OW 9632  10.374   7.739   2.885
35912SOL    HW1 9633  10.311   7.775   2.948
35912SOL    HW2 9634  10.415   7.666   2.932
35913SOL     OW 9635  13.692   0.137  11.076
35913SOL    HW1 9636  13.738   0.054  11.062
35913SOL    HW2 9637  13.760   0.199  11.100
35914SOL     OW 9638   4.213   4.621   2.061
35914SOL    HW1 9639   4.202   4.527   2.047
35914SOL    HW2 9640   4.126   4.658   2.046
35915SOL     OW 9641   0.964   0.394  12.960
35915SOL    HW1 9642   0.986   0.445  12.882
35915SOL    HW2 9643   0.944   0.459  13.026
35916SOL     OW 9644   3.552   3.581   1.528
35916SOL    HW1 9645   3.470   3.605   1.571
35916SOL    HW2 9646   3.574   3.494   1.563
35917SOL     OW 9647   1.099   6.807  14.789
35917SOL    HW1 9648   1.064   6.871  14.851
35917SOL    HW2 9649   1.189   6.835  14.774
35918SOL     OW 9650   3.021  12.532   0.834
35918SOL    HW1 9651   3.001  12.458   0.778
35918SOL    HW2 9652   2.955  12.598   0.811
35919SOL     OW 9653   4.893  14.433   1.913
35919SOL    HW1 9654   4.944  14.502   1.872
35919SOL    HW2 9655   4.952  14.358   1.918
35920SOL     OW 9656   3.091   8.380   4.205
35920SOL    HW1 9657   3.094   8.417   4.117
35920SOL    HW2 9658   3.130   8.447   4.261
35921SOL     OW 9659   8.744   1.445  14.508
35921SOL    HW1 9660   8.677   1.385  14.538
35921SOL    HW2 9661   8.827   1.401  14.527
35922SOL     OW 9662   7.101   4.449   6.011
35922SOL    HW1 9663   7.172   4.421   5.953
35922SOL    HW2 9664   7.108   4.545   6.012
35923SOL     OW 9665  13.261  13.127  11.812
35923SOL    HW1 9666  13.347  13.168  11.824
35923SOL    HW2 9667  13.206  13.168  11.878
35924SOL     OW 9668  14.837  13.842   3.652
35924SOL    HW1 9669  14.855  13.807   3.564
35924SOL    HW2 9670   0.045  13.818   3.703
35925SOL     OW 9671   2.276   1.993   9.595
35925SOL    HW1 9672   2.353   2.017   9.544
35925SOL    HW2 9673   2.205   1.984   9.531
35926SOL     OW 9674   4.620   0.683  11.221
35926SOL    HW1 9675   4.653   0.676  11.310
35926SOL    HW2 9676   4.549   0.747  11.227
35927SOL     OW 9677   5.735  11.010  14.603
35927SOL    HW1 9678   5.755  11.103  14.594
35927SOL    HW2 9679   5.819  10.968  14.618
35928SOL     OW 9680   7.789   8.451  11.541
35928SOL    HW1 9681   7.716   8.418  11.593
35928SOL    HW2 9682   7.865   8.445  11.599
35929SOL     OW 9683   1.912  14.501  13.498
35929SOL    HW1 9684   1.872  14.551  13.569
35929SOL    HW2 9685   1.987  14.458  13.539
35930SOL     OW 9686   0.951  11.941  11.288
35930SOL    HW1 9687   1.042  11.918  11.307
35930SOL    HW2 9688   0.957  12.022  11.237
35931SOL     OW 9689   2.199   6.936   2.241
35931SOL    HW1 9690   2.186   6.841   2.244
35931SOL    HW2 9691   2.294   6.947   2.234
35932SOL     OW 9692   3.816   0.264   4.197
35932SOL    HW1 9693   3.902   0.227   4.218
35932SOL    HW2 9694   3.754   0.203   4.237
35933SOL     OW 9695   9.530  11.798  13.748
35933SOL    HW1 9696   9.563  11.846  13.673
35933SOL    HW2 9697   9.460  11.853  13.783
35934SOL     OW 9698   4.802  11.704   4.034
35934SOL    HW1 9699   4.840  11.739   3.954
35934SOL    HW2 9700   4.869  11.717   4.101
35935SOL     OW 9701   7.259   7.298  13.817
35935SOL    HW1 9702   7.341   7.264  13.783
35935SOL    HW2 9703   7.279   7.387  13.845
35936SOL     OW 9704   9.422  10.420  11.429
35936SOL    HW1 9705   9.406  10.389  11.340
35936SOL    HW2 9706   9.400  10.346  11.484
35937SOL     OW 9707   9.445  13.499   3.750
35937SOL    HW1 9708   9.421  13.449   3.829
35937SOL    HW2 9709   9.520  13.552   3.777
35938SOL     OW 9710   2.035   7.150   4.583
35938SOL    HW1 9711   2.061   7.101   4.505
35938SOL    HW2 9712   1.941   7.165   4.571
35939SOL     OW 9713   2.759   2.492   3.319
35939SOL    HW1 9714   2.725   2.474   3.232
35939SOL    HW2 9715   2.849   2.521   3.305
35940SOL     OW 9716   9.399   3.291   4.884
35940SOL    HW1 9717   9.490   3.307   4.909
35940SOL    HW2 9718   9.372   3.217   4.938
35941SOL     OW 9719   9.179  12.547  14.241
35941SOL    HW1 9720   9.105  12.579  14.293
35941SOL    HW2 9721   9.252  12.542  14.304
35942SOL     OW 9722  10.233   1.475   9.305
35942SOL    HW1 9723  10.269   1.458   9.218
35942SOL    HW2 9724  10.305   1.455   9.365
35943SOL     OW 9725  13.607   3.782   6.278
35943SOL    HW1 9726  13.590   3.808   6.188
35943SOL    HW2 9727  13.525   3.796   6.324
35944SOL     OW 9728  10.115   8.983   4.585
35944SOL    HW1 9729  10.131   9.074   4.557
35944SOL    HW2 9730  10.029   8.985   4.626
35945SOL     OW 9731   0.790  14.220   7.089
35945SOL    HW1 9732   0.714  14.162   7.082
35945SOL    HW2 9733   0.855  14.170   7.139
35946SOL     OW 9734   6.692   7.298   1.545
35946SOL    HW1 9735   6.636   7.310   1.469
35946SOL    HW2 9736   6.722   7.208   1.540
35947SOL     OW 9737   0.326  10.882   2.705
35947SOL    HW1 9738   0.358  10.893   2.615
35947SOL    HW2 9739   0.389  10.823   2.746
35948SOL     OW 9740   5.561  11.334  12.992
35948SOL    HW1 9741   5.588  11.418  13.028
35948SOL    HW2 9742   5.641  11.297  12.954
35949SOL     OW 9743  13.838   5.591   6.697
35949SOL    HW1 9744  13.766   5.632   6.650
35949SOL    HW2 9745  13.797   5.548   6.772
35950SOL     OW 9746   7.638   0.658   7.596
35950SOL    HW1 9747   7.716   0.683   7.546
35950SOL    HW2 9748   7.661   0.677   7.687
35951SOL     OW 9749   3.132  10.954   0.633
35951SOL    HW1 9750   3.114  10.974   0.725
35951SOL    HW2 9751   3.080  11.018   0.584
35952SOL     OW 9752  11.108   3.002   4.032
35952SOL    HW1 9753  11.184   2.966   4.078
35952SOL    HW2 9754  11.055   3.042   4.101
35953SOL     OW 9755   7.864   8.796   7.107
35953SOL    HW1 9756   7.908   8.784   7.192
35953SOL    HW2 9757   7.790   8.736   7.110
35954SOL     OW 9758  14.648   3.745   1.986
35954SOL    HW1 9759  14.666   3.833   2.019
35954SOL    HW2 9760  14.635   3.692   2.065
35955SOL     OW 9761   7.647   8.855   4.893
35955SOL    HW1 9762   7.711   8.795   4.931
35955SOL    HW2 9763   7.562   8.816   4.914
35956SOL     OW 9764   9.509   7.858  12.433
35956SOL    HW1 9765   9.492   7.799  12.360
35956SOL    HW2 9766   9.456   7.936  12.413
35957SOL     OW 9767   0.160   7.584   0.985
35957SOL    HW1 9768   0.125   7.562   1.071
35957SOL    HW2 9769   0.132   7.675   0.971
35958SOL     OW 9770   5.936   9.922   5.828
35958SOL    HW1 9771   5.948   9.990   5.762
35958SOL    HW2 9772   5.876   9.859   5.786
35959SOL     OW 9773  13.291   8.857  10.150
35959SOL    HW1 9774  13.214   8.858  10.206
35959SOL    HW2 9775  13.351   8.795  10.193
35960SOL     OW 9776   9.638   4.981   3.963
35960SOL    HW1 9777   9.560   4.996   3.910
35960SOL    HW2 9778   9.692   5.059   3.949
35961SOL     OW 9779   2.754   1.115  13.864
35961SOL    HW1 9780   2.696   1.042  13.887
35961SOL    HW2 9781   2.839   1.073  13.845
35962SOL     OW 9782   8.270   8.716  10.046
35962SOL    HW1 9783   8.238   8.644   9.991
35962SOL    HW2 9784   8.346   8.750   9.999
35963SOL     OW 9785   0.903  12.871   5.807
35963SOL    HW1 9786   0.991  12.886   5.840
35963SOL    HW2 9787   0.911  12.878   5.712
35964SOL     OW 9788   1.529   0.994  11.264
35964SOL    HW1 9789   1.528   0.908  11.223
35964SOL    HW2 9790   1.440   1.007  11.296
35965SOL     OW 9791  13.320  14.150   1.895
35965SOL    HW1 9792  13.411  14.166   1.919
35965SOL    HW2 9793  13.304  14.208   1.821
35966SOL     OW 9794  11.944   0.629  12.455
35966SOL    HW1 9795  11.919   0.720  12.436
35966SOL    HW2 9796  12.007   0.637  12.526
35967SOL     OW 9797   2.807   9.844   2.301
35967SOL    HW1 9798   2.772   9.766   2.342
35967SOL    HW2 9799   2.828   9.817   2.212
35968SOL     OW 9800   1.228   3.768   9.905
35968SOL    HW1 9801   1.165   3.791   9.837
35968SOL    HW2 9802   1.264   3.851   9.935
35969SOL     OW 9803  10.612  12.559  13.608
35969SOL    HW1 9804  10.563  12.550  13.690
35969SOL    HW2 9805  10.599  12.650  13.582
35970SOL     OW 9806  14.446   0.383  13.788
35970SOL    HW1 9807  14.505   0.309  13.800
35970SOL    HW2 9808  14.412   0.400  13.876
35971SOL     OW 9809   0.989   7.057   8.528
35971SOL    HW1 9810   0.988   7.002   8.450
35971SOL    HW2 9811   1.079   7.089   8.535
35972SOL     OW 9812  11.492   2.301   8.051
35972SOL    HW1 9813  11.573   2.317   8.099
35972SOL    HW2 9814  11.464   2.388   8.022
35973SOL     OW 9815  13.039  14.860  14.628
35973SOL    HW1 9816  13.012  14.769  14.616
35973SOL    HW2 9817  13.132  14.860  14.609
35974SOL     OW 9818  10.303   0.461   2.935
35974SOL    HW1 9819  10.295   0.534   2.996
35974SOL    HW2 9820  10.397   0.443   2.931
35975SOL     OW 9821  10.811   5.756   1.122
35975SOL    HW1 9822  10.901   5.787   1.129
35975SOL    HW2 9823  10.757   5.834   1.135
35976SOL     OW 9824   8.349   4.122   3.377
35976SOL    HW1 9825   8.338   4.045   3.433
35976SOL    HW2 9826   8.397   4.089   3.301
35977SOL     OW 9827   1.620   1.978  14.783
35977SOL    HW1 9828   1.536   1.990  14.738
35977SOL    HW2 9829   1.604   2.010   0.002
35978SOL     OW 9830  12.335   4.303   2.390
35978SOL    HW1 9831  12.420   4.270   2.420
35978SOL    HW2 9832  12.320   4.381   2.443
35979SOL     OW 9833   1.867  14.777   4.190
35979SOL    HW1 9834   1.850   0.001   4.184
35979SOL    HW2 9835   1.864  14.746   4.100
35980SOL     OW 9836   4.207   1.214  12.095
35980SOL    HW1 9837   4.121   1.177  12.114
35980SOL    HW2 9838   4.203   1.303  12.129
35981SOL     OW 9839   4.564   1.717  13.927
35981SOL    HW1 9840   4.604   1.764  13.854
35981SOL    HW2 9841   4.498   1.778  13.961
35982SOL     OW 9842   9.332   3.854   7.468
35982SOL    HW1 9843   9.425   3.875   7.465
35982SOL    HW2 9844   9.288   3.940   7.465
35983SOL     OW 9845  13.373   4.283  10.501
35983SOL    HW1 9846  13.396   4.193  10.482
35983SOL    HW2 9847  13.318   4.278  10.579
35984SOL     OW 9848   4.998   6.574  10.920
35984SOL    HW1 9849   4.943   6.644  10.886
35984SOL    HW2 9850   5.033   6.531  10.841
35985SOL     OW 9851   7.363   1.844   6.431
35985SOL    HW1 9852   7.270   1.823   6.442
35985SOL    HW2 9853   7.406   1.759   6.425
35986SOL     OW 9854   4.391   9.534  10.384
35986SOL    HW1 9855   4.466   9.476  10.374
35986SOL    HW2 9856   4.328   9.502  10.319
35987SOL     OW 9857  12.326   5.375  12.177
35987SOL    HW1 9858  12.396   5.340  12.122
35987SOL    HW2 9859  12.245   5.339  12.140
35988SOL     OW 9860   5.235   1.711   9.553
35988SOL    HW1 9861   5.284   1.645   9.505
35988SOL    HW2 9862   5.302   1.774   9.582
35989SOL     OW 9863   5.506   9.165  14.434
35989SOL    HW1 9864   5.490   9.254  14.466
35989SOL    HW2 9865   5.582   9.173  14.377
35990SOL     OW 9866  14.348   4.282   5.331
35990SOL    HW1 9867  14.430   4.259   5.288
35990SOL    HW2 9868  14.315   4.199   5.366
35991SOL     OW 9869  11.305  13.403   9.515
35991SOL    HW1 9870  11.355  13.323   9.527
35991SOL    HW2 9871  11.308  13.420   9.421
35992SOL     OW 9872   2.253  14.598   7.910
35992SOL    HW1 9873   2.298  14.610   7.993
35992SOL    HW2 9874   2.265  14.505   7.888
35993SOL     OW 9875   0.800  14.092  12.807
35993SOL    HW1 9876   0.872  14.029  12.801
35993SOL    HW2 9877   0.843  14.175  12.827
35994SOL     OW 9878   3.452  11.795   9.336
35994SOL    HW1 9879   3.405  11.712   9.326
35994SOL    HW2 9880   3.409  11.837   9.411
35995SOL     OW 9881  11.932  13.626  14.518
35995SOL    HW1 9882  11.925  13.632  14.614
35995SOL    HW2 9883  12.026  13.614  14.502
35996SOL     OW 9884   2.058  10.108   4.616
35996SOL    HW1 9885   2.053  10.069   4.704
35996SOL    HW2 9886   2.065  10.202   4.633
35997SOL     OW 9887  10.689  14.553   9.785
35997SOL    HW1 9888  10.687  14.588   9.874
35997SOL    HW2 9889  10.766  14.594   9.745
35998SOL     OW 9890   4.950  10.207  11.948
35998SOL    HW1 9891   4.867  10.250  11.969
35998SOL    HW2 9892   4.946  10.123  11.993
35999SOL     OW 9893   1.339   0.972   6.040
35999SOL    HW1 9894   1.314   0.956   5.949
35999SOL    HW2 9895   1.369   0.887   6.071
36000SOL     OW 9896   8.944  11.856   2.241
36000SOL    HW1 9897   8.882  11.912   2.286
36000SOL    HW2 9898   8.940  11.884   2.149
36001SOL     OW 9899   1.430   3.373   5.496
36001SOL    HW1 9900   1.481   3.306   5.449
36001SOL    HW2 9901   1.340   3.358   5.468
36002SOL     OW 9902   0.413   2.160   3.253
36002SOL    HW1 9903   0.416   2.185   3.345
36002SOL    HW2 9904   0.361   2.079   3.252
36003SOL     OW 9905   0.017  13.688   9.136
36003SOL    HW1 9906   0.043  13.762   9.080
36003SOL    HW2 9907  14.791  13.689   9.133
36004SOL     OW 9908   0.391  10.695   2.416
36004SOL    HW1 9909   0.348  10.740   2.344
36004SOL    HW2 9910   0.474  10.664   2.379
36005SOL     OW 9911   2.972  10.096  11.902
36005SOL    HW1 9912   2.892  10.111  11.953
36005SOL    HW2 9913   2.942  10.087  11.812
36006SOL     OW 9914  10.972   8.989   0.440
36006SOL    HW1 9915  10.991   9.051   0.370
36006SOL    HW2 9916  10.993   9.035   0.520
36007SOL     OW 9917   4.492  10.809   1.529
36007SOL    HW1 9918   4.536  10.812   1.444
36007SOL    HW2 9919   4.412  10.858   1.516
36008SOL     OW 9920   0.415  11.792   0.174
36008SOL    HW1 9921   0.327  11.779   0.208
36008SOL    HW2 9922   0.402  11.827   0.086
36009SOL     OW 9923  12.780   2.980  11.261
36009SOL    HW1 9924  12.865   2.965  11.303
36009SOL    HW2 9925  12.719   2.928  11.313
36010SOL     OW 9926   7.943   6.227  12.248
36010SOL    HW1 9927   7.916   6.137  12.266
36010SOL    HW2 9928   7.907   6.245  12.161
36011SOL     OW 9929  12.687   8.108   7.469
36011SOL    HW1 9930  12.773   8.138   7.498
36011SOL    HW2 9931  12.698   8.014   7.455
36012SOL     OW 9932   8.275  11.109   8.376
36012SOL    HW1 9933   8.254  11.191   8.332
36012SOL    HW2 9934   8.195  11.085   8.422
36013SOL     OW 9935   6.257   9.334  14.440
36013SOL    HW1 9936   6.162   9.332  14.456
36013SOL    HW2 9937   6.279   9.427  14.439
36014SOL     OW 9938  13.474   7.394   4.016
36014SOL    HW1 9939  13.565   7.364   4.020
36014SOL    HW2 9940  13.442   7.385   4.106
36015SOL     OW 9941   1.167   0.590   9.517
36015SOL    HW1 9942   1.197   0.651   9.449
36015SOL    HW2 9943   1.075   0.611   9.528
36016SOL     OW 9944  14.055  12.436   7.453
36016SOL    HW1 9945  14.006  12.495   7.395
36016SOL    HW2 9946  14.129  12.489   7.483
36017SOL     OW 9947   2.146   6.510  12.054
36017SOL    HW1 9948   2.138   6.483  12.146
36017SOL    HW2 9949   2.130   6.429  12.005
36018SOL     OW 9950  13.573  10.887  11.917
36018SOL    HW1 9951  13.550  10.850  11.832
36018SOL    HW2 9952  13.595  10.978  11.898
36019SOL     OW 9953   9.142  10.347   8.122
36019SOL    HW1 9954   9.101  10.433   8.112
36019SOL    HW2 9955   9.233  10.367   8.143
36020SOL     OW 9956  11.234  11.892   7.789
36020SOL    HW1 9957  11.211  11.981   7.815
36020SOL    HW2 9958  11.254  11.899   7.696
36021SOL     OW 9959   1.739   1.495   5.912
36021SOL    HW1 9960   1.742   1.449   5.996
36021SOL    HW2 9961   1.669   1.453   5.863
36022SOL     OW 9962  12.097   3.827   0.012
36022SOL    HW1 9963  12.096   3.732   0.002
36022SOL    HW2 9964  12.008   3.850   0.037
36023SOL     OW 9965   2.868  14.466   5.973
36023SOL    HW1 9966   2.925  14.494   6.045
36023SOL    HW2 9967   2.924  14.409   5.920
36024SOL     OW 9968  11.567   7.104   6.505
36024SOL    HW1 9969  11.502   7.135   6.568
36024SOL    HW2 9970  11.550   7.010   6.498
36025SOL     OW 9971  11.126   5.771  13.298
36025SOL    HW1 9972  11.108   5.799  13.208
36025SOL    HW2 9973  11.072   5.828  13.352
36026SOL     OW 9974  11.761   3.749   0.825
36026SOL    HW1 9975  11.809   3.790   0.897
36026SOL    HW2 9976  11.672   3.783   0.834
36027SOL     OW 9977   2.763  13.544   0.027
36027SOL    HW1 9978   2.745  13.458  14.860
36027SOL    HW2 9979   2.859  13.551   0.026
36028SOL     OW 9980   5.702   7.806  12.672
36028SOL    HW1 9981   5.772   7.745  12.699
36028SOL    HW2 9982   5.745   7.864  12.609
36029SOL     OW 9983   9.528  12.784   7.198
36029SOL    HW1 9984   9.612  12.823   7.220
36029SOL    HW2 9985   9.488  12.762   7.282
36030SOL     OW 9986  12.422   4.739  11.122
36030SOL    HW1 9987  12.347   4.684  11.145
36030SOL    HW2 9988  12.384   4.812  11.073
36031SOL     OW 9989   7.922  13.665   2.988
36031SOL    HW1 9990   7.912  13.703   3.076
36031SOL    HW2 9991   7.950  13.575   3.005
36032SOL     OW 9992   0.801  12.930   0.202
36032SOL    HW1 9993   0.796  12.949   0.296
36032SOL    HW2 9994   0.798  13.016   0.161
36033SOL     OW 9995   8.879  12.686   3.808
36033SOL    HW1 9996   8.845  12.613   3.756
36033SOL    HW2 9997   8.815  12.755   3.798
36034SOL     OW 9998   9.068   7.493   8.167
36034SOL    HW1 9999   8.977   7.466   8.155
36034SOL    HW210000   9.067   7.547   8.247
36035SOL     OW10001   9.146   8.385   8.245
36035SOL    HW110002   9.223   8.383   8.302
36035SOL    HW210003   9.165   8.452   8.180
36036SOL     OW10004  14.867  12.034   3.482
36036SOL    HW110005  14.827  11.993   3.405
36036SOL    HW210006   0.055  11.967   3.518
36037SOL     OW10007   9.274   0.709   1.313
36037SOL    HW110008   9.190   0.756   1.315
36037SOL    HW210009   9.249   0.618   1.298
36038SOL     OW10010   5.253   6.933   2.681
36038SOL    HW110011   5.281   7.000   2.619
36038SOL    HW210012   5.319   6.935   2.751
36039SOL     OW10013  12.289  11.693  14.169
36039SOL    HW110014  12.262  11.657  14.254
36039SOL    HW210015  12.235  11.772  14.159
36040SOL     OW10016   6.836   5.342   5.444
36040SOL    HW110017   6.812   5.424   5.487
36040SOL    HW210018   6.839   5.363   5.351
36041SOL     OW10019   0.822  11.837   2.186
36041SOL    HW110020   0.749  11.819   2.128
36041SOL    HW210021   0.816  11.931   2.203
36042SOL     OW10022  10.510  11.526   9.863
36042SOL    HW110023  10.488  11.447   9.815
36042SOL    HW210024  10.605  11.526   9.867
36043SOL     OW10025   0.711  10.187  10.672
36043SOL    HW110026   0.694  10.093  10.679
36043SOL    HW210027   0.798  10.192  10.631
36044SOL     OW10028   3.562   5.299   0.065
36044SOL    HW110029   3.470   5.324   0.073
36044SOL    HW210030   3.560   5.212   0.025
36045SOL     OW10031  11.476   1.878  10.759
36045SOL    HW110032  11.506   1.864  10.669
36045SOL    HW210033  11.470   1.973  10.767
36046SOL     OW10034  13.637   0.562   7.730
36046SOL    HW110035  13.707   0.627   7.735
36046SOL    HW210036  13.576   0.587   7.799
36047SOL     OW10037   9.225  11.867   7.632
36047SOL    HW110038   9.185  11.954   7.624
36047SOL    HW210039   9.197  11.820   7.554
36048SOL     OW10040   1.631   7.326   1.024
36048SOL    HW110041   1.648   7.410   1.066
36048SOL    HW210042   1.631   7.346   0.931
36049SOL     OW10043   6.489   8.809   0.491
36049SOL    HW110044   6.428   8.879   0.467
36049SOL    HW210045   6.573   8.836   0.453
36050SOL     OW10046   2.765  10.777  12.459
36050SOL    HW110047   2.695  10.804  12.400
36050SOL    HW210048   2.774  10.683  12.445
36051SOL     OW10049   8.939   2.107  14.408
36051SOL    HW110050   8.866   2.094  14.468
36051SOL    HW210051   8.915   2.185  14.357
36052SOL     OW10052   2.729  13.258   7.270
36052SOL    HW110053   2.750  13.195   7.202
36052SOL    HW210054   2.633  13.252   7.280
36053SOL     OW10055   7.114  10.147  12.045
36053SOL    HW110056   7.162  10.227  12.063
36053SOL    HW210057   7.026  10.177  12.020
36054SOL     OW10058   6.394   9.169   4.277
36054SOL    HW110059   6.407   9.091   4.224
36054SOL    HW210060   6.321   9.214   4.236
36055SOL     OW10061  11.593   4.090   6.307
36055SOL    HW110062  11.527   4.027   6.276
36055SOL    HW210063  11.648   4.106   6.230
36056SOL     OW10064   2.519   2.003   0.451
36056SOL    HW110065   2.552   1.991   0.362
36056SOL    HW210066   2.494   1.915   0.479
36057SOL     OW10067  10.418   8.827   3.085
36057SOL    HW110068  10.469   8.784   3.017
36057SOL    HW210069  10.329   8.792   3.073
36058SOL     OW10070   8.153  13.409   3.483
36058SOL    HW110071   8.113  13.475   3.538
36058SOL    HW210072   8.242  13.441   3.467
36059SOL     OW10073   8.592  14.435   1.641
36059SOL    HW110074   8.660  14.368   1.645
36059SOL    HW210075   8.510  14.386   1.651
36060SOL     OW10076   9.290  12.496   4.556
36060SOL    HW110077   9.246  12.414   4.578
36060SOL    HW210078   9.282  12.549   4.636
36061SOL     OW10079   2.454  11.049   3.108
36061SOL    HW110080   2.384  10.989   3.133
36061SOL    HW210081   2.471  11.101   3.186
36062SOL     OW10082   4.330  12.184   6.350
36062SOL    HW110083   4.365  12.223   6.270
36062SOL    HW210084   4.278  12.110   6.319
36063SOL     OW10085  12.325   4.015   5.503
36063SOL    HW110086  12.359   3.963   5.575
36063SOL    HW210087  12.316   4.103   5.539
36064SOL     OW10088   2.169  10.989   5.479
36064SOL    HW110089   2.199  11.046   5.550
36064SOL    HW210090   2.247  10.945   5.448
36065SOL     OW10091  13.382   8.996   6.037
36065SOL    HW110092  13.400   9.081   5.996
36065SOL    HW210093  13.322   8.952   5.976
36066SOL     OW10094   6.992   7.540   5.166
36066SOL    HW110095   6.977   7.599   5.093
36066SOL    HW210096   6.914   7.484   5.168
36067SOL     OW10097   4.426   1.185  11.341
36067SOL    HW110098   4.339   1.185  11.381
36067SOL    HW210099   4.413   1.150  11.253
36068SOL     OW10100  14.710   7.601  12.993
36068SOL    HW110101  14.732   7.606  13.086
36068SOL    HW210102  14.792   7.617  12.947
36069SOL     OW10103  12.626  11.528   1.688
36069SOL    HW110104  12.584  11.608   1.721
36069SOL    HW210105  12.653  11.550   1.599
36070SOL     OW10106   5.520   7.985   5.553
36070SOL    HW110107   5.440   8.011   5.597
36070SOL    HW210108   5.539   7.897   5.587
36071SOL     OW10109  14.601   0.131   4.103
36071SOL    HW110110  14.630   0.044   4.128
36071SOL    HW210111  14.629   0.188   4.175
36072SOL     OW10112   8.618   0.038  10.741
36072SOL    HW110113   8.575   0.123  10.734
36072SOL    HW210114   8.546  14.845  10.752
36073SOL     OW10115  13.908  11.319  10.183
36073SOL    HW110116  13.957  11.349  10.107
36073SOL    HW210117  13.953  11.360  10.258
36074SOL     OW10118   0.095   0.431   4.922
36074SOL    HW110119   0.023   0.494   4.924
36074SOL    HW210120   0.174   0.486   4.917
36075SOL     OW10121  14.498  10.196   9.785
36075SOL    HW110122  14.584  10.231   9.763
36075SOL    HW210123  14.506  10.171   9.877
36076SOL     OW10124  11.839   6.419   7.781
36076SOL    HW110125  11.813   6.489   7.721
36076SOL    HW210126  11.894   6.362   7.729
36077SOL     OW10127   1.261   8.191   3.992
36077SOL    HW110128   1.248   8.130   4.064
36077SOL    HW210129   1.188   8.173   3.932
36078SOL     OW10130   9.978   6.224   5.417
36078SOL    HW110131   9.902   6.252   5.468
36078SOL    HW210132  10.052   6.269   5.458
36079SOL     OW10133   2.651   9.815   1.397
36079SOL    HW110134   2.630   9.766   1.317
36079SOL    HW210135   2.718   9.762   1.441
36080SOL     OW10136   7.910   4.873   2.879
36080SOL    HW110137   7.960   4.808   2.830
36080SOL    HW210138   7.901   4.835   2.967
36081SOL     OW10139  10.181  14.680   4.835
36081SOL    HW110140  10.144  14.658   4.921
36081SOL    HW210141  10.152  14.770   4.819
36082SOL     OW10142   4.333   1.967  11.862
36082SOL    HW110143   4.317   2.028  11.934
36082SOL    HW210144   4.251   1.919  11.853
36083SOL     OW10145   5.056   8.424  10.986
36083SOL    HW110146   4.964   8.426  10.960
36083SOL    HW210147   5.073   8.513  11.016
36084SOL     OW10148   2.615   8.183   3.471
36084SOL    HW110149   2.673   8.173   3.395
36084SOL    HW210150   2.540   8.127   3.451
36085SOL     OW10151   1.720  13.268  10.847
36085SOL    HW110152   1.762  13.342  10.803
36085SOL    HW210153   1.790  13.204  10.860
36086SOL     OW10154   7.588   0.192   9.027
36086SOL    HW110155   7.673   0.202   8.985
36086SOL    HW210156   7.539   0.271   9.001
36087SOL     OW10157   2.848  13.601  10.313
36087SOL    HW110158   2.854  13.682  10.261
36087SOL    HW210159   2.789  13.623  10.384
36088SOL     OW10160   9.697   0.602   7.242
36088SOL    HW110161   9.659   0.690   7.230
36088SOL    HW210162   9.767   0.597   7.178
36089SOL     OW10163  10.473   6.389   2.405
36089SOL    HW110164  10.483   6.308   2.355
36089SOL    HW210165  10.378   6.399   2.414
36090SOL     OW10166  13.516   0.417   2.045
36090SOL    HW110167  13.583   0.353   2.068
36090SOL    HW210168  13.437   0.365   2.029
36091SOL     OW10169  14.449  14.713  12.686
36091SOL    HW110170  14.464  14.631  12.639
36091SOL    HW210171  14.448  14.688  12.778
36092SOL     OW10172   9.214  13.969   6.967
36092SOL    HW110173   9.127  14.003   6.988
36092SOL    HW210174   9.199  13.877   6.943
36093SOL     OW10175  13.385   5.649  12.592
36093SOL    HW110176  13.422   5.726  12.549
36093SOL    HW210177  13.343   5.684  12.671
36094SOL     OW10178   1.316   9.249  14.614
36094SOL    HW110179   1.339   9.342  14.614
36094SOL    HW210180   1.276   9.235  14.700
36095SOL     OW10181   4.991  13.810  12.840
36095SOL    HW110182   4.971  13.727  12.795
36095SOL    HW210183   4.908  13.856  12.842
36096SOL     OW10184   2.516  10.215  11.565
36096SOL    HW110185   2.535  10.302  11.528
36096SOL    HW210186   2.501  10.231  11.658
36097SOL     OW10187   0.827   3.971  12.047
36097SOL    HW110188   0.896   4.017  11.998
36097SOL    HW210189   0.837   4.002  12.136
36098SOL     OW10190   3.040   9.021   9.700
36098SOL    HW110191   3.012   8.971   9.777
36098SOL    HW210192   3.024   9.112   9.725
36099SOL     OW10193   0.301   5.241   0.104
36099SOL    HW110194   0.286   5.186   0.181
36099SOL    HW210195   0.291   5.331   0.137
36100SOL     OW10196  10.677   8.852   5.034
36100SOL    HW110197  10.734   8.824   4.962
36100SOL    HW210198  10.729   8.916   5.082
36101SOL     OW10199   0.262  13.486   5.226
36101SOL    HW110200   0.253  13.581   5.213
36101SOL    HW210201   0.205  13.447   5.160
36102SOL     OW10202   2.110  13.491   1.881
36102SOL    HW110203   2.093  13.405   1.843
36102SOL    HW210204   2.105  13.551   1.808
36103SOL     OW10205   5.978  12.219  12.453
36103SOL    HW110206   6.006  12.281  12.385
36103SOL    HW210207   5.998  12.133  12.416
36104SOL     OW10208   3.414  11.402   9.856
36104SOL    HW110209   3.370  11.433   9.935
36104SOL    HW210210   3.503  11.435   9.863
36105SOL     OW10211   6.510  11.472  11.779
36105SOL    HW110212   6.549  11.456  11.693
36105SOL    HW210213   6.579  11.451  11.841
36106SOL     OW10214   4.058   9.623   1.411
36106SOL    HW110215   4.035   9.672   1.332
36106SOL    HW210216   3.987   9.561   1.422
36107SOL     OW10217   4.660  12.733  14.152
36107SOL    HW110218   4.663  12.733  14.247
36107SOL    HW210219   4.701  12.651  14.126
36108SOL     OW10220   1.802  14.535   8.889
36108SOL    HW110221   1.710  14.561   8.887
36108SOL    HW210222   1.802  14.446   8.923
36109SOL     OW10223   3.104   4.934  12.864
36109SOL    HW110224   3.079   4.856  12.912
36109SOL    HW210225   3.088   4.911  12.772
36110SOL     OW10226  10.280  13.361   0.891
36110SOL    HW110227  10.354  13.301   0.904
36110SOL    HW210228  10.203  13.305   0.902
36111SOL     OW10229   4.870   3.314   3.764
36111SOL    HW110230   4.913   3.250   3.707
36111SOL    HW210231   4.777   3.296   3.754
36112SOL     OW10232   6.475   8.931   3.254
36112SOL    HW110233   6.403   8.950   3.314
36112SOL    HW210234   6.517   9.015   3.240
36113SOL     OW10235   7.591   3.605  12.705
36113SOL    HW110236   7.628   3.652  12.780
36113SOL    HW210237   7.541   3.533  12.744
36114SOL     OW10238  10.105   5.009  11.291
36114SOL    HW110239  10.117   5.065  11.214
36114SOL    HW210240  10.107   4.920  11.255
36115SOL     OW10241   4.614   2.866   2.769
36115SOL    HW110242   4.611   2.959   2.792
36115SOL    HW210243   4.523   2.838   2.774
36116SOL     OW10244   3.752   7.892  11.652
36116SOL    HW110245   3.736   7.977  11.692
36116SOL    HW210246   3.695   7.832  11.699
36117SOL     OW10247   3.429   8.235  10.024
36117SOL    HW110248   3.354   8.271  10.072
36117SOL    HW210249   3.461   8.164  10.080
36118SOL     OW10250  12.476  14.366  12.163
36118SOL    HW110251  12.536  14.425  12.118
36118SOL    HW210252  12.426  14.325  12.092
36119SOL     OW10253   0.429  10.350   5.213
36119SOL    HW110254   0.484  10.292   5.159
36119SOL    HW210255   0.419  10.304   5.295
36120SOL     OW10256   0.140  14.026   4.658
36120SOL    HW110257   0.102  14.059   4.739
36120SOL    HW210258   0.067  13.985   4.611
36121SOL     OW10259  10.234  11.808   1.304
36121SOL    HW110260  10.296  11.849   1.244
36121SOL    HW210261  10.195  11.737   1.253
36122SOL     OW10262  12.397   1.450   4.449
36122SOL    HW110263  12.475   1.429   4.397
36122SOL    HW210264  12.402   1.392   4.524
36123SOL     OW10265  14.082  11.486   6.286
36123SOL    HW110266  14.157  11.541   6.310
36123SOL    HW210267  14.078  11.420   6.355
36124SOL     OW10268  14.815   5.519  11.383
36124SOL    HW110269  14.837   5.603  11.342
36124SOL    HW210270  14.749   5.540  11.448
36125SOL     OW10271   7.949   1.045   5.496
36125SOL    HW110272   7.916   1.135   5.489
36125SOL    HW210273   7.873   0.994   5.525
36126SOL     OW10274  11.817  10.134   7.689
36126SOL    HW110275  11.791  10.124   7.781
36126SOL    HW210276  11.736  10.124   7.640
36127SOL     OW10277   9.477   6.192   4.987
36127SOL    HW110278   9.440   6.142   4.914
36127SOL    HW210279   9.560   6.226   4.953
36128SOL     OW10280   7.782   4.202   0.148
36128SOL    HW110281   7.850   4.174   0.209
36128SOL    HW210282   7.739   4.121   0.121
36129SOL     OW10283   7.767  13.984  12.762
36129SOL    HW110284   7.752  13.907  12.817
36129SOL    HW210285   7.680  14.020  12.747
36130SOL     OW10286   6.465  14.363  13.675
36130SOL    HW110287   6.478  14.274  13.642
36130SOL    HW210288   6.456  14.352  13.770
36131SOL     OW10289  14.081   1.561  11.772
36131SOL    HW110290  14.084   1.474  11.731
36131SOL    HW210291  14.014   1.608  11.723
36132SOL     OW10292   8.724   1.176   3.969
36132SOL    HW110293   8.755   1.132   3.890
36132SOL    HW210294   8.716   1.268   3.944
36133SOL     OW10295   5.846   3.884  10.012
36133SOL    HW110296   5.869   3.851   9.925
36133SOL    HW210297   5.866   3.978  10.008
36134SOL     OW10298   2.046  10.239   5.538
36134SOL    HW110299   2.097  10.304   5.489
36134SOL    HW210300   2.098  10.159   5.533
36135SOL     OW10301   8.532   2.121   4.510
36135SOL    HW110302   8.467   2.188   4.490
36135SOL    HW210303   8.480   2.044   4.534
36136SOL     OW10304   5.679  13.808   7.052
36136SOL    HW110305   5.649  13.852   6.973
36136SOL    HW210306   5.713  13.879   7.107
36137SOL     OW10307  13.031  14.848   1.052
36137SOL    HW110308  12.993   0.034   1.120
36137SOL    HW210309  12.956  14.812   1.006
36138SOL     OW10310   5.431  10.114   5.407
36138SOL    HW110311   5.396  10.202   5.422
36138SOL    HW210312   5.354  10.057   5.407
36139SOL     OW10313  12.690   6.111   4.334
36139SOL    HW110314  12.718   6.120   4.425
36139SOL    HW210315  12.767   6.133   4.283
36140SOL     OW10316  10.122  11.839   1.554
36140SOL    HW110317  10.158  11.912   1.605
36140SOL    HW210318  10.174  11.838   1.473
36141SOL     OW10319   2.742   1.303   9.995
36141SOL    HW110320   2.806   1.305   9.925
36141SOL    HW210321   2.745   1.391  10.033
36142SOL     OW10322  13.146   6.632   2.213
36142SOL    HW110323  13.054   6.625   2.240
36142SOL    HW210324  13.148   6.705   2.152
36143SOL     OW10325  10.314  13.021  10.097
36143SOL    HW110326  10.354  13.100  10.061
36143SOL    HW210327  10.228  13.016  10.056
36144SOL     OW10328   7.480   2.863   5.772
36144SOL    HW110329   7.504   2.952   5.745
36144SOL    HW210330   7.387   2.868   5.791
36145SOL     OW10331   1.448  11.670  10.933
36145SOL    HW110332   1.407  11.703  10.853
36145SOL    HW210333   1.501  11.596  10.905
36146SOL     OW10334  13.759   5.051   3.041
36146SOL    HW110335  13.772   5.112   2.969
36146SOL    HW210336  13.770   4.964   3.003
36147SOL     OW10337   0.157  14.842  10.168
36147SOL    HW110338   0.098   0.037  10.128
36147SOL    HW210339   0.222  14.824  10.101
36148SOL     OW10340   0.061   3.791  12.309
36148SOL    HW110341   0.005   3.868  12.307
36148SOL    HW210342   0.107   3.792  12.225
36149SOL     OW10343   4.689   8.800  13.903
36149SOL    HW110344   4.696   8.715  13.859
36149SOL    HW210345   4.604   8.835  13.874
36150SOL     OW10346  14.802   2.463  13.562
36150SOL    HW110347  14.858   2.406  13.615
36150SOL    HW210348  14.715   2.454  13.602
36151SOL     OW10349   7.539   0.837  11.753
36151SOL    HW110350   7.536   0.898  11.680
36151SOL    HW210351   7.538   0.750  11.713
36152SOL     OW10352   1.797   8.257   5.632
36152SOL    HW110353   1.783   8.166   5.659
36152SOL    HW210354   1.717   8.302   5.658
36153SOL     OW10355  14.703   7.631  11.557
36153SOL    HW110356  14.710   7.636  11.652
36153SOL    HW210357  14.610   7.616  11.540
36154SOL     OW10358   1.354   3.636   5.427
36154SOL    HW110359   1.426   3.573   5.434
36154SOL    HW210360   1.308   3.611   5.347
36155SOL     OW10361   5.125  13.950   5.388
36155SOL    HW110362   5.112  13.973   5.296
36155SOL    HW210363   5.039  13.917   5.416
36156SOL     OW10364   7.826   1.128   4.453
36156SOL    HW110365   7.781   1.044   4.451
36156SOL    HW210366   7.815   1.163   4.365
36157SOL     OW10367   6.860  12.284   2.126
36157SOL    HW110368   6.933  12.222   2.134
36157SOL    HW210369   6.872  12.324   2.040
36158SOL     OW10370   2.131   8.266   4.588
36158SOL    HW110371   2.037   8.259   4.608
36158SOL    HW210372   2.168   8.308   4.666
36159SOL     OW10373   6.495   4.517   9.154
36159SOL    HW110374   6.540   4.473   9.082
36159SOL    HW210375   6.452   4.592   9.112
36160SOL     OW10376   2.755  13.260   6.025
36160SOL    HW110377   2.711  13.336   6.063
36160SOL    HW210378   2.837  13.253   6.074
36161SOL     OW10379   3.901   8.861  12.216
36161SOL    HW110380   3.844   8.815  12.154
36161SOL    HW210381   3.986   8.820  12.206
36162SOL     OW10382   4.216   5.402  10.688
36162SOL    HW110383   4.128   5.367  10.699
36162SOL    HW210384   4.255   5.396  10.775
36163SOL     OW10385   0.275   8.461  14.014
36163SOL    HW110386   0.366   8.488  14.026
36163SOL    HW210387   0.233   8.534  13.968
36164SOL     OW10388   4.537  13.782   0.886
36164SOL    HW110389   4.453  13.807   0.924
36164SOL    HW210390   4.562  13.856   0.831
36165SOL     OW10391  10.393  10.167  14.321
36165SOL    HW110392  10.443  10.239  14.360
36165SOL    HW210393  10.425  10.161  14.231
36166SOL     OW10394  12.445  12.004   2.446
36166SOL    HW110395  12.529  12.023   2.488
36166SOL    HW210396  12.437  12.069   2.376
36167SOL     OW10397   6.485  11.663  12.002
36167SOL    HW110398   6.469  11.740  11.947
36167SOL    HW210399   6.503  11.593  11.940
36168SOL     OW10400   0.602   9.157   9.597
36168SOL    HW110401   0.581   9.075   9.641
36168SOL    HW210402   0.569   9.225   9.656
36169SOL     OW10403  13.761  12.358   0.139
36169SOL    HW110404  13.735  12.265   0.137
36169SOL    HW210405  13.704  12.399   0.074
36170SOL     OW10406   5.933   9.031   7.001
36170SOL    HW110407   5.946   9.057   6.909
36170SOL    HW210408   5.962   9.107   7.051
36171SOL     OW10409  11.801  10.795  14.065
36171SOL    HW110410  11.773  10.756  14.148
36171SOL    HW210411  11.761  10.881  14.065
36172SOL     OW10412   0.381   9.511  10.001
36172SOL    HW110413   0.477   9.510  10.007
36172SOL    HW210414   0.354   9.569  10.072
36173SOL     OW10415  12.999  12.043  13.474
36173SOL    HW110416  12.931  12.014  13.412
36173SOL    HW210417  13.052  11.965  13.488
36174SOL     OW10418   0.960   3.238   9.341
36174SOL    HW110419   0.942   3.193   9.258
36174SOL    HW210420   0.885   3.218   9.396
36175SOL     OW10421   0.026   2.312   1.783
36175SOL    HW110422   0.007   2.363   1.704
36175SOL    HW210423  14.810   2.281   1.812
36176SOL     OW10424  14.279   7.754  13.510
36176SOL    HW110425  14.336   7.686  13.473
36176SOL    HW210426  14.318   7.836  13.480
36177SOL     OW10427   8.254  10.561   5.359
36177SOL    HW110428   8.171  10.551   5.405
36177SOL    HW210429   8.307  10.487   5.388
36178SOL     OW10430   6.710   7.722   0.710
36178SOL    HW110431   6.698   7.803   0.758
36178SOL    HW210432   6.622   7.684   0.703
36179SOL     OW10433   5.917   5.123   4.805
36179SOL    HW110434   5.939   5.216   4.797
36179SOL    HW210435   5.994   5.077   4.772
36180SOL     OW10436  13.874   6.487  11.272
36180SOL    HW110437  13.781   6.484  11.291
36180SOL    HW210438  13.890   6.408  11.219
36181SOL     OW10439   6.810  10.641   4.669
36181SOL    HW110440   6.752  10.691   4.611
36181SOL    HW210441   6.826  10.700   4.743
36182SOL     OW10442   2.756  13.855  12.664
36182SOL    HW110443   2.728  13.771  12.628
36182SOL    HW210444   2.731  13.851  12.756
36183SOL     OW10445   4.550   8.637  11.194
36183SOL    HW110446   4.532   8.652  11.102
36183SOL    HW210447   4.475   8.677  11.239
36184SOL     OW10448  10.152  13.473   8.573
36184SOL    HW110449  10.160  13.443   8.663
36184SOL    HW210450  10.084  13.541   8.577
36185SOL     OW10451   5.080   8.559   2.685
36185SOL    HW110452   5.107   8.494   2.749
36185SOL    HW210453   5.133   8.541   2.608
36186SOL     OW10454   4.749  11.921   3.596
36186SOL    HW110455   4.695  11.976   3.654
36186SOL    HW210456   4.694  11.844   3.579
36187SOL     OW10457   3.893   4.825  11.971
36187SOL    HW110458   3.840   4.823  11.891
36187SOL    HW210459   3.836   4.791  12.039
36188SOL     OW10460   6.442   2.153   5.740
36188SOL    HW110461   6.364   2.208   5.735
36188SOL    HW210462   6.457   2.140   5.833
36189SOL     OW10463  14.167   2.275  14.240
36189SOL    HW110464  14.131   2.356  14.277
36189SOL    HW210465  14.188   2.298  14.149
36190SOL     OW10466   5.041  13.444   0.034
36190SOL    HW110467   5.071  13.515  14.847
36190SOL    HW210468   5.059  13.473   0.123
36191SOL     OW10469  12.919   1.512  11.133
36191SOL    HW110470  13.014   1.514  11.137
36191SOL    HW210471  12.893   1.604  11.130
36192SOL     OW10472  13.698   6.806   5.495
36192SOL    HW110473  13.671   6.891   5.461
36192SOL    HW210474  13.791   6.800   5.473
36193SOL     OW10475   3.377   6.592  14.148
36193SOL    HW110476   3.384   6.622  14.058
36193SOL    HW210477   3.418   6.661  14.200
36194SOL     OW10478   8.260   5.685  13.754
36194SOL    HW110479   8.167   5.665  13.766
36194SOL    HW210480   8.268   5.777  13.776
36195SOL     OW10481   7.615  10.313   8.650
36195SOL    HW110482   7.612  10.221   8.674
36195SOL    HW210483   7.603  10.360   8.733
36196SOL     OW10484   5.382  10.302  14.712
36196SOL    HW110485   5.401  10.323  14.804
36196SOL    HW210486   5.462  10.260  14.680
36197SOL     OW10487  13.185  11.254   5.264
36197SOL    HW110488  13.219  11.340   5.239
36197SOL    HW210489  13.220  11.195   5.198
36198SOL     OW10490   8.870   2.722   9.943
36198SOL    HW110491   8.952   2.749   9.983
36198SOL    HW210492   8.818   2.802   9.940
36199SOL     OW10493  10.648   5.329   8.800
36199SOL    HW110494  10.709   5.362   8.734
36199SOL    HW210495  10.562   5.356   8.769
36200SOL     OW10496   1.993   9.848  12.415
36200SOL    HW110497   2.084   9.863  12.389
36200SOL    HW210498   1.949   9.823  12.334
36201SOL     OW10499   2.109  11.209   4.190
36201SOL    HW110500   2.019  11.183   4.168
36201SOL    HW210501   2.156  11.202   4.107
36202SOL     OW10502   3.623   0.643   6.741
36202SOL    HW110503   3.542   0.597   6.763
36202SOL    HW210504   3.599   0.701   6.669
36203SOL     OW10505   6.576   3.170   9.459
36203SOL    HW110506   6.502   3.112   9.476
36203SOL    HW210507   6.652   3.120   9.487
36204SOL     OW10508   7.989   2.729   8.631
36204SOL    HW110509   7.942   2.756   8.552
36204SOL    HW210510   7.990   2.633   8.626
36205SOL     OW10511   6.998  13.084   2.831
36205SOL    HW110512   6.906  13.112   2.826
36205SOL    HW210513   7.048  13.161   2.804
36206SOL     OW10514   5.744   3.457   9.811
36206SOL    HW110515   5.700   3.538   9.837
36206SOL    HW210516   5.681   3.388   9.831
36207SOL     OW10517   8.641   4.767   6.065
36207SOL    HW110518   8.638   4.811   5.980
36207SOL    HW210519   8.552   4.735   6.079
36208SOL     OW10520   6.868   9.613  13.454
36208SOL    HW110521   6.934   9.680  13.437
36208SOL    HW210522   6.810   9.653  13.519
36209SOL     OW10523   4.013  13.584   3.752
36209SOL    HW110524   3.933  13.564   3.703
36209SOL    HW210525   4.022  13.679   3.747
36210SOL     OW10526   3.301  13.816   4.134
36210SOL    HW110527   3.357  13.739   4.140
36210SOL    HW210528   3.351  13.885   4.179
36211SOL     OW10529   3.309   4.719  10.564
36211SOL    HW110530   3.268   4.644  10.520
36211SOL    HW210531   3.401   4.715  10.537
36212SOL     OW10532   9.064   7.357   3.096
36212SOL    HW110533   9.153   7.391   3.099
36212SOL    HW210534   9.022   7.404   3.024
36213SOL     OW10535   5.994  11.531   7.359
36213SOL    HW110536   6.071  11.570   7.402
36213SOL    HW210537   6.030  11.473   7.293
36214SOL     OW10538  13.035   1.230  14.061
36214SOL    HW110539  12.979   1.274  13.997
36214SOL    HW210540  13.084   1.302  14.102
36215SOL     OW10541   6.426   2.081   2.481
36215SOL    HW110542   6.391   2.153   2.533
36215SOL    HW210543   6.353   2.054   2.426
36216SOL     OW10544   4.603   6.425   0.156
36216SOL    HW110545   4.580   6.341   0.197
36216SOL    HW210546   4.578   6.414   0.064
36217SOL     OW10547  13.306   7.449   0.361
36217SOL    HW110548  13.292   7.484   0.449
36217SOL    HW210549  13.359   7.516   0.317
36218SOL     OW10550  13.470  14.178   4.143
36218SOL    HW110551  13.377  14.166   4.123
36218SOL    HW210552  13.472  14.219   4.229
36219SOL     OW10553   7.511   3.275  11.733
36219SOL    HW110554   7.543   3.241  11.650
36219SOL    HW210555   7.587   3.318  11.772
36220SOL     OW10556  12.526  13.254  14.737
36220SOL    HW110557  12.547  13.301  14.817
36220SOL    HW210558  12.433  13.269  14.723
36221SOL     OW10559   8.873   2.448   6.470
36221SOL    HW110560   8.856   2.539   6.493
36221SOL    HW210561   8.826   2.434   6.388
36222SOL     OW10562   5.653   3.091   3.971
36222SOL    HW110563   5.704   3.097   3.890
36222SOL    HW210564   5.603   3.010   3.961
36223SOL     OW10565   5.053   3.457   4.859
36223SOL    HW110566   4.977   3.512   4.876
36223SOL    HW210567   5.059   3.454   4.763
36224SOL     OW10568  13.782   4.399   3.345
36224SOL    HW110569  13.717   4.372   3.280
36224SOL    HW210570  13.735   4.401   3.428
36225SOL     OW10571   9.875  11.176  12.606
36225SOL    HW110572   9.793  11.177  12.654
36225SOL    HW210573   9.939  11.213  12.667
36226SOL     OW10574   6.028  10.692  12.434
36226SOL    HW110575   6.101  10.737  12.475
36226SOL    HW210576   5.970  10.762  12.405
36227SOL     OW10577   4.976  14.598  14.250
36227SOL    HW110578   5.014  14.519  14.290
36227SOL    HW210579   4.882  14.586  14.257
36228SOL     OW10580   5.548   8.388  11.979
36228SOL    HW110581   5.618   8.445  12.012
36228SOL    HW210582   5.505   8.440  11.912
36229SOL     OW10583   9.129   7.622  10.519
36229SOL    HW110584   9.116   7.711  10.484
36229SOL    HW210585   9.056   7.611  10.581
36230SOL     OW10586   0.346   6.075   1.553
36230SOL    HW110587   0.429   6.039   1.522
36230SOL    HW210588   0.281   6.007   1.535
36231SOL     OW10589   6.399   7.123   9.683
36231SOL    HW110590   6.344   7.190   9.643
36231SOL    HW210591   6.391   7.048   9.624
36232SOL     OW10592   0.346   3.595   0.627
36232SOL    HW110593   0.307   3.618   0.543
36232SOL    HW210594   0.280   3.620   0.692
36233SOL     OW10595  14.629  14.092   6.169
36233SOL    HW110596  14.605  14.179   6.136
36233SOL    HW210597  14.721  14.081   6.145
36234SOL     OW10598  13.745  11.447   3.319
36234SOL    HW110599  13.649  11.449   3.315
36234SOL    HW210600  13.768  11.514   3.383
36235SOL     OW10601   8.282   2.288   7.817
36235SOL    HW110602   8.325   2.209   7.851
36235SOL    HW210603   8.300   2.286   7.723
36236SOL     OW10604  11.438   0.072   0.368
36236SOL    HW110605  11.478   0.101   0.450
36236SOL    HW210606  11.344   0.086   0.382
36237SOL     OW10607   2.221   1.737   0.304
36237SOL    HW110608   2.287   1.765   0.241
36237SOL    HW210609   2.137   1.755   0.262
36238SOL     OW10610   2.665   6.198   5.423
36238SOL    HW110611   2.630   6.166   5.506
36238SOL    HW210612   2.759   6.210   5.440
36239SOL     OW10613   0.372  13.630   6.456
36239SOL    HW110614   0.282  13.655   6.478
36239SOL    HW210615   0.406  13.704   6.405
36240SOL     OW10616   7.123  10.271   0.069
36240SOL    HW110617   7.125  10.363   0.093
36240SOL    HW210618   7.031  10.245   0.078
36241SOL     OW10619   0.714   1.465   0.828
36241SOL    HW110620   0.740   1.547   0.871
36241SOL    HW210621   0.746   1.473   0.739
36242SOL     OW10622   3.167   9.048   7.813
36242SOL    HW110623   3.145   8.955   7.804
36242SOL    HW210624   3.251   9.048   7.859
36243SOL     OW10625   9.151  11.630   5.611
36243SOL    HW110626   9.086  11.673   5.666
36243SOL    HW210627   9.173  11.695   5.544
36244SOL     OW10628   4.642   7.447   8.894
36244SOL    HW110629   4.597   7.388   8.954
36244SOL    HW210630   4.686   7.390   8.832
36245SOL     OW10631  12.667   6.169   6.239
36245SOL    HW110632  12.572   6.159   6.246
36245SOL    HW210633  12.693   6.211   6.321
36246SOL     OW10634   1.607   2.151   8.121
36246SOL    HW110635   1.564   2.232   8.150
36246SOL    HW210636   1.535   2.096   8.090
36247SOL     OW10637   5.649   1.224   9.304
36247SOL    HW110638   5.628   1.308   9.263
36247SOL    HW210639   5.566   1.191   9.336
36248SOL     OW10640   9.231  13.149   5.928
36248SOL    HW110641   9.137  13.166   5.928
36248SOL    HW210642   9.239  13.054   5.939
36249SOL     OW10643   6.847   1.434   4.826
36249SOL    HW110644   6.798   1.516   4.829
36249SOL    HW210645   6.817   1.385   4.903
36250SOL     OW10646   9.923  12.236   6.518
36250SOL    HW110647   9.921  12.180   6.595
36250SOL    HW210648   9.837  12.227   6.478
36251SOL     OW10649   3.865  11.828   7.001
36251SOL    HW110650   3.793  11.789   7.050
36251SOL    HW210651   3.940  11.822   7.060
36252SOL     OW10652   6.588   1.547   0.079
36252SOL    HW110653   6.683   1.557   0.076
36252SOL    HW210654   6.566   1.549   0.172
36253SOL     OW10655  10.664   7.630  10.064
36253SOL    HW110656  10.596   7.567  10.088
36253SOL    HW210657  10.666   7.627   9.969
36254SOL     OW10658   0.239   2.285   1.370
36254SOL    HW110659   0.220   2.378   1.381
36254SOL    HW210660   0.237   2.271   1.275
36255SOL     OW10661   9.919   8.953   3.677
36255SOL    HW110662   9.882   9.027   3.726
36255SOL    HW210663   9.849   8.889   3.674
36256SOL     OW10664   5.535  11.121   9.298
36256SOL    HW110665   5.455  11.075   9.324
36256SOL    HW210666   5.529  11.127   9.203
36257SOL     OW10667  10.498   6.161   9.079
36257SOL    HW110668  10.415   6.135   9.039
36257SOL    HW210669  10.492   6.131   9.169
36258SOL     OW10670  10.750   0.227   6.148
36258SOL    HW110671  10.735   0.322   6.144
36258SOL    HW210672  10.724   0.203   6.237
36259SOL     OW10673   7.209   6.971   9.704
36259SOL    HW110674   7.130   6.919   9.693
36259SOL    HW210675   7.253   6.967   9.619
36260SOL     OW10676  11.302  10.086   1.259
36260SOL    HW110677  11.276   9.997   1.236
36260SOL    HW210678  11.266  10.141   1.189
36261SOL     OW10679   5.410   9.272   6.399
36261SOL    HW110680   5.376   9.235   6.317
36261SOL    HW210681   5.411   9.366   6.385
36262SOL     OW10682   9.314   9.412  14.624
36262SOL    HW110683   9.383   9.440  14.564
36262SOL    HW210684   9.241   9.389  14.566
36263SOL     OW10685   9.573  14.155   2.202
36263SOL    HW110686   9.537  14.191   2.121
36263SOL    HW210687   9.496  14.141   2.258
36264SOL     OW10688   1.892   5.082   8.887
36264SOL    HW110689   1.841   5.111   8.811
36264SOL    HW210690   1.973   5.134   8.882
36265SOL     OW10691  12.293  12.966  13.737
36265SOL    HW110692  12.374  12.934  13.696
36265SOL    HW210693  12.315  13.054  13.769
36266SOL     OW10694   2.668  10.131  11.831
36266SOL    HW110695   2.711  10.126  11.745
36266SOL    HW210696   2.625  10.046  11.842
36267SOL     OW10697   5.045   0.562  14.620
36267SOL    HW110698   5.075   0.594  14.705
36267SOL    HW210699   4.951   0.577  14.621
36268SOL     OW10700   1.983   3.330   0.261
36268SOL    HW110701   2.074   3.339   0.291
36268SOL    HW210702   1.991   3.302   0.170
36269SOL     OW10703  10.626   4.842  12.332
36269SOL    HW110704  10.699   4.796  12.291
36269SOL    HW210705  10.579   4.773  12.380
36270SOL     OW10706  12.276  11.550   6.543
36270SOL    HW110707  12.189  11.536   6.579
36270SOL    HW210708  12.335  11.507   6.606
36271SOL     OW10709   9.843   3.618   2.113
36271SOL    HW110710   9.889   3.583   2.189
36271SOL    HW210711   9.907   3.611   2.042
36272SOL     OW10712   9.882   7.382  11.936
36272SOL    HW110713   9.954   7.414  11.880
36272SOL    HW210714   9.851   7.303  11.892
36273SOL     OW10715   7.486  14.349  10.226
36273SOL    HW110716   7.415  14.357  10.289
36273SOL    HW210717   7.515  14.439  10.211
36274SOL     OW10718   2.515   7.968  11.129
36274SOL    HW110719   2.421   7.988  11.135
36274SOL    HW210720   2.558   8.049  11.156
36275SOL     OW10721  14.685   0.848   6.754
36275SOL    HW110722  14.660   0.906   6.826
36275SOL    HW210723  14.699   0.907   6.680
36276SOL     OW10724  10.844   9.736   7.161
36276SOL    HW110725  10.928   9.730   7.208
36276SOL    HW210726  10.801   9.652   7.179
36277SOL     OW10727   2.946   8.255   1.176
36277SOL    HW110728   2.989   8.331   1.139
36277SOL    HW210729   2.860   8.287   1.203
36278SOL     OW10730   7.281   1.604   5.838
36278SOL    HW110731   7.186   1.620   5.834
36278SOL    HW210732   7.317   1.686   5.870
36279SOL     OW10733   5.919   9.068  10.737
36279SOL    HW110734   5.985   9.101  10.798
36279SOL    HW210735   5.891   9.144  10.688
36280SOL     OW10736   6.974   7.397   0.519
36280SOL    HW110737   6.948   7.451   0.594
36280SOL    HW210738   6.963   7.307   0.550
36281SOL     OW10739  11.462  12.152   0.909
36281SOL    HW110740  11.486  12.067   0.872
36281SOL    HW210741  11.394  12.185   0.850
36282SOL     OW10742  10.235  13.191   3.882
36282SOL    HW110743  10.158  13.232   3.921
36282SOL    HW210744  10.265  13.129   3.948
36283SOL     OW10745  10.674   7.373  12.518
36283SOL    HW110746  10.765   7.401  12.531
36283SOL    HW210747  10.642   7.355  12.606
36284SOL     OW10748   4.805   5.612   5.709
36284SOL    HW110749   4.741   5.682   5.691
36284SOL    HW210750   4.804   5.558   5.631
36285SOL     OW10751   5.831   1.197   4.313
36285SOL    HW110752   5.767   1.217   4.381
36285SOL    HW210753   5.876   1.119   4.345
36286SOL     OW10754   1.074  11.356   7.321
36286SOL    HW110755   1.150  11.363   7.263
36286SOL    HW210756   1.094  11.282   7.379
36287SOL     OW10757   6.414   0.854   1.907
36287SOL    HW110758   6.344   0.899   1.954
36287SOL    HW210759   6.380   0.846   1.818
36288SOL     OW10760   0.295  14.111  13.582
36288SOL    HW110761   0.298  14.059  13.502
36288SOL    HW210762   0.362  14.072  13.639
36289SOL     OW10763  13.915   7.920  13.593
36289SOL    HW110764  13.895   7.840  13.641
36289SOL    HW210765  13.832   7.947  13.555
36290SOL     OW10766  10.801  10.608   1.979
36290SOL    HW110767  10.777  10.699   1.991
36290SOL    HW210768  10.880  10.597   2.031
36291SOL     OW10769  12.883   9.508   2.908
36291SOL    HW110770  12.856   9.552   2.827
36291SOL    HW210771  12.886   9.415   2.885
36292SOL     OW10772  11.222   9.451   4.763
36292SOL    HW110773  11.148   9.476   4.708
36292SOL    HW210774  11.268   9.384   4.712
36293SOL     OW10775  13.577  12.260   8.981
36293SOL    HW110776  13.571  12.274   9.075
36293SOL    HW210777  13.488  12.234   8.955
36294SOL     OW10778   4.023  11.987   9.419
36294SOL    HW110779   3.944  11.938   9.441
36294SOL    HW210780   4.006  12.075   9.451
36295SOL     OW10781  10.378   6.936  12.653
36295SOL    HW110782  10.307   6.974  12.704
36295SOL    HW210783  10.441   6.905  12.719
36296SOL     OW10784  10.956   2.163   3.996
36296SOL    HW110785  11.043   2.123   3.997
36296SOL    HW210786  10.972   2.255   4.017
36297SOL     OW10787  13.927   8.819  14.266
36297SOL    HW110788  14.020   8.799  14.258
36297SOL    HW210789  13.924   8.901  14.316
36298SOL     OW10790   0.256   7.919   6.802
36298SOL    HW110791   0.309   7.974   6.744
36298SOL    HW210792   0.171   7.915   6.760
36299SOL     OW10793   3.307   8.820   7.046
36299SOL    HW110794   3.297   8.899   6.993
36299SOL    HW210795   3.261   8.840   7.128
36300SOL     OW10796  11.972  10.342   7.437
36300SOL    HW110797  11.886  10.334   7.395
36300SOL    HW210798  12.002  10.429   7.414
36301SOL     OW10799   5.847  10.413   3.862
36301SOL    HW110800   5.925  10.462   3.889
36301SOL    HW210801   5.774  10.458   3.904
36302SOL     OW10802   2.033   5.824   1.633
36302SOL    HW110803   1.977   5.764   1.682
36302SOL    HW210804   2.052   5.778   1.551
36303SOL     OW10805  10.897   3.399  11.383
36303SOL    HW110806  10.969   3.394  11.446
36303SOL    HW210807  10.939   3.417  11.299
36304SOL     OW10808   0.486  11.428  11.472
36304SOL    HW110809   0.581  11.429  11.464
36304SOL    HW210810   0.455  11.478  11.396
36305SOL     OW10811   4.960  11.747   3.184
36305SOL    HW110812   5.012  11.795   3.120
36305SOL    HW210813   4.919  11.814   3.238
36306SOL     OW10814  13.469   5.704   2.954
36306SOL    HW110815  13.386   5.747   2.932
36306SOL    HW210816  13.444   5.615   2.979
36307SOL     OW10817   7.070  11.441   2.986
36307SOL    HW110818   6.987  11.394   2.977
36307SOL    HW210819   7.045  11.533   2.991
36308SOL     OW10820   3.219   7.572  14.827
36308SOL    HW110821   3.307   7.536  14.818
36308SOL    HW210822   3.210   7.590   0.051
36309SOL     OW10823  14.025   9.166   0.754
36309SOL    HW110824  14.079   9.151   0.832
36309SOL    HW210825  13.997   9.257   0.761
36310SOL     OW10826   0.827   9.263   1.869
36310SOL    HW110827   0.832   9.325   1.943
36310SOL    HW210828   0.868   9.310   1.796
36311SOL     OW10829   1.510   7.358   8.194
36311SOL    HW110830   1.539   7.286   8.250
36311SOL    HW210831   1.449   7.317   8.133
36312SOL     OW10832   5.501   6.072   8.922
36312SOL    HW110833   5.525   6.047   8.832
36312SOL    HW210834   5.407   6.089   8.918
36313SOL     OW10835   3.074   7.264   2.645
36313SOL    HW110836   3.131   7.339   2.630
36313SOL    HW210837   3.047   7.272   2.737
36314SOL     OW10838   5.944   0.616   4.479
36314SOL    HW110839   6.004   0.575   4.417
36314SOL    HW210840   5.873   0.553   4.490
36315SOL     OW10841   1.081   1.193   7.674
36315SOL    HW110842   1.131   1.161   7.600
36315SOL    HW210843   1.043   1.275   7.645
36316SOL     OW10844   0.742   5.318  14.316
36316SOL    HW110845   0.705   5.299  14.402
36316SOL    HW210846   0.837   5.310  14.328
36317SOL     OW10847  12.321   4.773  10.443
36317SOL    HW110848  12.373   4.761  10.364
36317SOL    HW210849  12.320   4.686  10.484
36318SOL     OW10850   2.874   4.942   9.810
36318SOL    HW110851   2.885   4.943   9.905
36318SOL    HW210852   2.928   5.015   9.779
36319SOL     OW10853  11.923  13.530  12.800
36319SOL    HW110854  11.881  13.579  12.871
36319SOL    HW210855  12.015  13.523  12.827
36320SOL     OW10856   7.629   9.074   8.819
36320SOL    HW110857   7.587   9.040   8.898
36320SOL    HW210858   7.558   9.083   8.755
36321SOL     OW10859   3.007   2.140   2.556
36321SOL    HW110860   2.983   2.177   2.471
36321SOL    HW210861   3.046   2.055   2.534
36322SOL     OW10862  10.072   7.820  13.314
36322SOL    HW110863  10.036   7.821  13.402
36322SOL    HW210864  10.007   7.865  13.260
36323SOL     OW10865   6.220   6.182  10.531
36323SOL    HW110866   6.177   6.110  10.578
36323SOL    HW210867   6.148   6.226  10.485
36324SOL     OW10868   5.513   8.990  10.128
36324SOL    HW110869   5.482   9.038  10.051
36324SOL    HW210870   5.435   8.945  10.160
36325SOL     OW10871   9.670   9.490  10.187
36325SOL    HW110872   9.596   9.526  10.235
36325SOL    HW210873   9.733   9.465  10.254
36326SOL     OW10874  13.633   5.130   6.093
36326SOL    HW110875  13.705   5.178   6.134
36326SOL    HW210876  13.633   5.159   6.002
36327SOL     OW10877   1.892   5.490   6.305
36327SOL    HW110878   1.912   5.548   6.233
36327SOL    HW210879   1.802   5.514   6.331
36328SOL     OW10880  11.923   7.429   9.011
36328SOL    HW110881  11.873   7.481   9.073
36328SOL    HW210882  11.928   7.342   9.051
36329SOL     OW10883  10.110  12.003   6.686
36329SOL    HW110884  10.027  12.040   6.716
36329SOL    HW210885  10.086  11.924   6.639
36330SOL     OW10886  10.599   0.473   5.077
36330SOL    HW110887  10.522   0.529   5.065
36330SOL    HW210888  10.565   0.393   5.118
36331SOL     OW10889   8.763  14.053   6.273
36331SOL    HW110890   8.746  14.147   6.269
36331SOL    HW210891   8.843  14.045   6.325
36332SOL     OW10892   4.615   5.283   8.608
36332SOL    HW110893   4.707   5.261   8.593
36332SOL    HW210894   4.577   5.289   8.520
36333SOL     OW10895   9.351  13.091  14.309
36333SOL    HW110896   9.279  13.153  14.318
36333SOL    HW210897   9.342  13.057  14.220
36334SOL     OW10898   4.864   8.655   1.118
36334SOL    HW110899   4.892   8.706   1.042
36334SOL    HW210900   4.876   8.715   1.192
36335SOL     OW10901   5.832   6.855   3.350
36335SOL    HW110902   5.819   6.924   3.415
36335SOL    HW210903   5.835   6.774   3.401
36336SOL     OW10904   8.159   6.366  11.457
36336SOL    HW110905   8.081   6.316  11.433
36336SOL    HW210906   8.137   6.404  11.542
36337SOL     OW10907   9.496   7.393   1.769
36337SOL    HW110908   9.586   7.363   1.780
36337SOL    HW210909   9.493   7.479   1.811
36338SOL     OW10910  11.893  13.833  10.895
36338SOL    HW110911  11.889  13.737  10.901
36338SOL    HW210912  11.898  13.851  10.802
36339SOL     OW10913   8.320  13.324   0.523
36339SOL    HW110914   8.400  13.370   0.550
36339SOL    HW210915   8.329  13.315   0.428
36340SOL     OW10916   2.635  10.772  13.052
36340SOL    HW110917   2.649  10.681  13.076
36340SOL    HW210918   2.723  10.808  13.040
36341SOL     OW10919  10.811   6.339  13.090
36341SOL    HW110920  10.827   6.430  13.116
36341SOL    HW210921  10.873   6.323  13.018
36342SOL     OW10922   7.117  10.868  10.651
36342SOL    HW110923   7.121  10.894  10.743
36342SOL    HW210924   7.035  10.906  10.619
36343SOL     OW10925  12.944   8.381   8.828
36343SOL    HW110926  12.986   8.295   8.823
36343SOL    HW210927  12.983   8.422   8.905
36344SOL     OW10928   0.798   8.961   7.855
36344SOL    HW110929   0.873   8.906   7.879
36344SOL    HW210930   0.756   8.914   7.783
36345SOL     OW10931  14.216  12.683  14.617
36345SOL    HW110932  14.124  12.686  14.645
36345SOL    HW210933  14.214  12.640  14.531
36346SOL     OW10934   4.835   5.692   5.315
36346SOL    HW110935   4.838   5.652   5.227
36346SOL    HW210936   4.836   5.786   5.299
36347SOL     OW10937   1.253   3.463  11.153
36347SOL    HW110938   1.203   3.431  11.228
36347SOL    HW210939   1.309   3.531  11.189
36348SOL     OW10940   3.750   2.665  10.284
36348SOL    HW110941   3.747   2.570  10.286
36348SOL    HW210942   3.665   2.692  10.321
36349SOL     OW10943   4.970  12.510   9.501
36349SOL    HW110944   5.051  12.536   9.458
36349SOL    HW210945   4.978  12.415   9.510
36350SOL     OW10946  14.802  11.663   3.451
36350SOL    HW110947  14.824  11.571   3.465
36350SOL    HW210948   0.016  11.709   3.457
36351SOL     OW10949  13.837   4.066  12.105
36351SOL    HW110950  13.766   4.042  12.165
36351SOL    HW210951  13.812   4.151  12.071
36352SOL     OW10952  11.644   7.589   7.919
36352SOL    HW110953  11.682   7.527   7.857
36352SOL    HW210954  11.561   7.550   7.945
36353SOL     OW10955   8.897   5.334   6.326
36353SOL    HW110956   8.803   5.341   6.313
36353SOL    HW210957   8.916   5.396   6.397
36354SOL     OW10958   4.319   6.980   9.825
36354SOL    HW110959   4.405   7.008   9.856
36354SOL    HW210960   4.278   7.060   9.793
36355SOL     OW10961   4.888   2.821   4.182
36355SOL    HW110962   4.869   2.827   4.089
36355SOL    HW210963   4.856   2.904   4.218
36356SOL     OW10964  13.744  11.868  14.606
36356SOL    HW110965  13.678  11.884  14.672
36356SOL    HW210966  13.701  11.888  14.523
36357SOL     OW10967   6.611   2.459  10.195
36357SOL    HW110968   6.584   2.420  10.112
36357SOL    HW210969   6.652   2.387  10.243
36358SOL     OW10970   6.116   2.511  13.563
36358SOL    HW110971   6.175   2.474  13.630
36358SOL    HW210972   6.174   2.536  13.491
36359SOL     OW10973  14.506   0.750  10.779
36359SOL    HW110974  14.422   0.707  10.763
36359SOL    HW210975  14.485   0.843  10.788
36360SOL     OW10976   7.710   6.105   2.281
36360SOL    HW110977   7.800   6.137   2.294
36360SOL    HW210978   7.713   6.015   2.311
36361SOL     OW10979   5.328  13.451  12.029
36361SOL    HW110980   5.378  13.524  11.991
36361SOL    HW210981   5.378  13.425  12.106
36362SOL     OW10982   5.689   6.830   1.607
36362SOL    HW110983   5.741   6.884   1.667
36362SOL    HW210984   5.665   6.753   1.660
36363SOL     OW10985   3.391   2.130   2.537
36363SOL    HW110986   3.430   2.145   2.623
36363SOL    HW210987   3.445   2.062   2.497
36364SOL     OW10988   0.347  14.018  10.442
36364SOL    HW110989   0.417  14.083  10.435
36364SOL    HW210990   0.380  13.954  10.505
36365SOL     OW10991   5.726   2.697  11.017
36365SOL    HW110992   5.701   2.749  10.942
36365SOL    HW210993   5.819   2.678  11.004
36366SOL     OW10994  12.354  10.633  12.012
36366SOL    HW110995  12.364  10.678  11.928
36366SOL    HW210996  12.369  10.541  11.992
36367SOL     OW10997  13.525   1.444   1.168
36367SOL    HW110998  13.612   1.465   1.201
36367SOL    HW210999  13.468   1.511   1.205
36368SOL     OW11000   8.252   2.473   5.246
36368SOL    HW111001   8.205   2.468   5.329
36368SOL    HW211002   8.194   2.522   5.188
36369SOL     OW11003   5.863   2.921  13.826
36369SOL    HW111004   5.789   2.918  13.765
36369SOL    HW211005   5.888   2.829  13.838
36370SOL     OW11006   4.816   8.503  11.668
36370SOL    HW111007   4.869   8.524  11.591
36370SOL    HW211008   4.874   8.515  11.742
36371SOL     OW11009   4.845  14.299  13.502
36371SOL    HW111010   4.906  14.226  13.496
36371SOL    HW211011   4.793  14.294  13.422
36372SOL     OW11012   5.093   1.750  12.815
36372SOL    HW111013   5.056   1.693  12.882
36372SOL    HW211014   5.063   1.838  12.839
36373SOL     OW11015   3.432  11.369   1.983
36373SOL    HW111016   3.412  11.306   1.914
36373SOL    HW211017   3.527  11.368   1.991
36374SOL     OW11018   5.068   4.688  10.055
36374SOL    HW111019   5.077   4.621   9.987
36374SOL    HW211020   5.158   4.706  10.083
36375SOL     OW11021   6.906  12.551   2.220
36375SOL    HW111022   6.864  12.478   2.174
36375SOL    HW211023   6.889  12.627   2.165
36376SOL     OW11024  11.660   7.545  11.443
36376SOL    HW111025  11.706   7.498  11.512
36376SOL    HW211026  11.581   7.494  11.427
36377SOL     OW11027   9.406  14.108  11.658
36377SOL    HW111028   9.407  14.154  11.742
36377SOL    HW211029   9.436  14.020  11.679
36378SOL     OW11030   1.209  11.927  11.825
36378SOL    HW111031   1.183  11.972  11.744
36378SOL    HW211032   1.226  11.998  11.887
36379SOL     OW11033  12.300  10.776   2.805
36379SOL    HW111034  12.309  10.821   2.721
36379SOL    HW211035  12.381  10.727   2.814
36380SOL     OW11036  11.262   2.278   8.664
36380SOL    HW111037  11.292   2.234   8.744
36380SOL    HW211038  11.342   2.313   8.625
36381SOL     OW11039  12.778   9.328  12.540
36381SOL    HW111040  12.720   9.401  12.520
36381SOL    HW211041  12.747   9.256  12.485
36382SOL     OW11042  13.573   8.865   2.129
36382SOL    HW111043  13.662   8.894   2.145
36382SOL    HW211044  13.561   8.790   2.188
36383SOL     OW11045  13.162  14.503   1.093
36383SOL    HW111046  13.210  14.434   1.138
36383SOL    HW211047  13.198  14.503   1.004
36384SOL     OW11048  10.064  10.159   9.100
36384SOL    HW111049  10.043  10.095   9.168
36384SOL    HW211050  10.073  10.108   9.020
36385SOL     OW11051  14.262   3.003   2.295
36385SOL    HW111052  14.286   2.948   2.370
36385SOL    HW211053  14.221   2.943   2.233
36386SOL     OW11054  14.520   2.184   0.659
36386SOL    HW111055  14.506   2.177   0.564
36386SOL    HW211056  14.449   2.240   0.690
36387SOL     OW11057   8.096  11.002   4.610
36387SOL    HW111058   8.184  11.027   4.638
36387SOL    HW211059   8.059  10.957   4.685
36388SOL     OW11060   8.875   8.889   0.845
36388SOL    HW111061   8.903   8.801   0.868
36388SOL    HW211062   8.933   8.915   0.773
36389SOL     OW11063   0.072   1.081   2.749
36389SOL    HW111064   0.022   1.095   2.668
36389SOL    HW211065   0.019   1.022   2.801
36390SOL     OW11066  11.451  13.924   0.461
36390SOL    HW111067  11.361  13.955   0.453
36390SOL    HW211068  11.499  13.972   0.393
36391SOL     OW11069   8.152  10.009  14.517
36391SOL    HW111070   8.092  10.053  14.457
36391SOL    HW211071   8.192   9.940  14.465
36392SOL     OW11072  10.972   9.098   9.851
36392SOL    HW111073  10.922   9.130   9.926
36392SOL    HW211074  11.015   9.019   9.883
36393SOL     OW11075   1.825   5.759   4.989
36393SOL    HW111076   1.812   5.848   5.023
36393SOL    HW211077   1.823   5.770   4.894
36394SOL     OW11078  12.929   0.888   4.005
36394SOL    HW111079  12.839   0.869   4.030
36394SOL    HW211080  12.982   0.850   4.076
36395SOL     OW11081  13.714  10.065   1.812
36395SOL    HW111082  13.775   9.993   1.828
36395SOL    HW211083  13.767  10.144   1.819
36396SOL     OW11084   0.692  13.270  10.598
36396SOL    HW111085   0.784  13.271  10.573
36396SOL    HW211086   0.687  13.329  10.673
36397SOL     OW11087  12.082  10.515  11.871
36397SOL    HW111088  12.133  10.434  11.871
36397SOL    HW211089  12.143  10.581  11.838
36398SOL     OW11090  14.646  14.467   7.496
36398SOL    HW111091  14.646  14.374   7.517
36398SOL    HW211092  14.651  14.511   7.581
36399SOL     OW11093  12.728  12.425  11.757
36399SOL    HW111094  12.808  12.442  11.707
36399SOL    HW211095  12.704  12.335  11.734
36400SOL     OW11096   4.721   9.575   1.205
36400SOL    HW111097   4.776   9.525   1.145
36400SOL    HW211098   4.778   9.595   1.279
36401SOL     OW11099   6.916  13.337  10.634
36401SOL    HW111100   6.878  13.423  10.623
36401SOL    HW211101   6.906  13.317  10.727
36402SOL     OW11102   9.132  12.892   0.207
36402SOL    HW111103   9.200  12.853   0.152
36402SOL    HW211104   9.167  12.978   0.231
36403SOL     OW11105   1.030   7.373  14.097
36403SOL    HW111106   1.008   7.338  14.011
36403SOL    HW211107   0.947   7.399  14.135
36404SOL     OW11108   1.192   0.581   0.189
36404SOL    HW111109   1.192   0.625   0.274
36404SOL    HW211110   1.159   0.493   0.209
36405SOL     OW11111   2.753   3.884   6.861
36405SOL    HW111112   2.745   3.963   6.808
36405SOL    HW211113   2.706   3.817   6.811
36406SOL     OW11114   9.383   3.948   5.950
36406SOL    HW111115   9.394   3.865   5.997
36406SOL    HW211116   9.313   3.932   5.888
36407SOL     OW11117  13.652   8.471  10.451
36407SOL    HW111118  13.560   8.493  10.467
36407SOL    HW211119  13.659   8.463  10.356
36408SOL     OW11120   5.299  11.364   5.271
36408SOL    HW111121   5.325  11.285   5.318
36408SOL    HW211122   5.341  11.436   5.319
36409SOL     OW11123  14.620   0.386   2.491
36409SOL    HW111124  14.622   0.293   2.467
36409SOL    HW211125  14.674   0.429   2.425
36410SOL     OW11126  14.160   2.148   6.360
36410SOL    HW111127  14.116   2.228   6.385
36410SOL    HW211128  14.217   2.174   6.287
36411SOL     OW11129  14.791   2.377   3.825
36411SOL    HW111130  14.862   2.314   3.815
36411SOL    HW211131  14.833   2.463   3.820
36412SOL     OW11132  13.627   4.396   6.364
36412SOL    HW111133  13.718   4.373   6.382
36412SOL    HW211134  13.600   4.448   6.440
36413SOL     OW11135   7.226  12.348   3.501
36413SOL    HW111136   7.313  12.328   3.467
36413SOL    HW211137   7.209  12.278   3.564
36414SOL     OW11138  11.307  10.683   1.691
36414SOL    HW111139  11.351  10.644   1.616
36414SOL    HW211140  11.318  10.777   1.679
36415SOL     OW11141   6.260  10.448   4.402
36415SOL    HW111142   6.292  10.530   4.365
36415SOL    HW211143   6.336  10.390   4.401
36416SOL     OW11144   6.842  13.181   4.545
36416SOL    HW111145   6.768  13.236   4.571
36416SOL    HW211146   6.838  13.179   4.449
36417SOL     OW11147   8.795   9.151   5.435
36417SOL    HW111148   8.824   9.191   5.353
36417SOL    HW211149   8.705   9.182   5.446
36418SOL     OW11150   5.659  11.266   6.056
36418SOL    HW111151   5.577  11.242   6.100
36418SOL    HW211152   5.647  11.234   5.966
36419SOL     OW11153   8.715   0.724   9.190
36419SOL    HW111154   8.672   0.776   9.122
36419SOL    HW211155   8.673   0.638   9.185
36420SOL     OW11156  12.779  13.452   6.512
36420SOL    HW111157  12.858  13.504   6.498
36420SOL    HW211158  12.715  13.513   6.549
36421SOL     OW11159   4.562   9.048  14.842
36421SOL    HW111160   4.620   8.990   0.021
36421SOL    HW211161   4.522   8.991  14.776
36422SOL     OW11162  10.062   6.657   7.515
36422SOL    HW111163  10.014   6.688   7.438
36422SOL    HW211164   9.997   6.609   7.566
36423SOL     OW11165  14.043   9.672  13.643
36423SOL    HW111166  13.956   9.657  13.608
36423SOL    HW211167  14.029   9.688  13.736
36424SOL     OW11168   6.834   2.159   5.685
36424SOL    HW111169   6.873   2.071   5.691
36424SOL    HW211170   6.762   2.149   5.623
36425SOL     OW11171  10.500   2.984  13.895
36425SOL    HW111172  10.590   3.003  13.924
36425SOL    HW211173  10.481   2.897  13.931
36426SOL     OW11174   1.649  12.689   7.530
36426SOL    HW111175   1.739  12.658   7.527
36426SOL    HW211176   1.619  12.682   7.439
36427SOL     OW11177   9.283   4.831  14.471
36427SOL    HW111178   9.250   4.829  14.381
36427SOL    HW211179   9.241   4.907  14.511
36428SOL     OW11180   0.953   9.014   1.295
36428SOL    HW111181   0.895   9.009   1.371
36428SOL    HW211182   0.900   8.977   1.223
36429SOL     OW11183  11.147  13.054   4.728
36429SOL    HW111184  11.146  12.960   4.713
36429SOL    HW211185  11.067  13.072   4.778
36430SOL     OW11186   7.354   7.969   4.670
36430SOL    HW111187   7.309   7.897   4.713
36430SOL    HW211188   7.365   7.939   4.579
36431SOL     OW11189   3.726  11.275   9.707
36431SOL    HW111190   3.788  11.283   9.779
36431SOL    HW211191   3.670  11.202   9.732
36432SOL     OW11192   4.032   4.457  11.529
36432SOL    HW111193   4.020   4.483  11.620
36432SOL    HW211194   4.124   4.472  11.511
36433SOL     OW11195   1.150  12.126   8.705
36433SOL    HW111196   1.168  12.216   8.731
36433SOL    HW211197   1.234  12.092   8.674
36434SOL     OW11198   6.137   9.507  11.713
36434SOL    HW111199   6.104   9.586  11.755
36434SOL    HW211200   6.229   9.501  11.740
36435SOL     OW11201   5.736   5.274   7.229
36435SOL    HW111202   5.652   5.321   7.224
36435SOL    HW211203   5.798   5.332   7.185
36436SOL     OW11204   1.323   2.175   3.244
36436SOL    HW111205   1.230   2.182   3.267
36436SOL    HW211206   1.369   2.223   3.313
36437SOL     OW11207   6.574   1.389   9.293
36437SOL    HW111208   6.482   1.414   9.291
36437SOL    HW211209   6.583   1.339   9.375
36438SOL     OW11210   7.793   0.324   0.809
36438SOL    HW111211   7.855   0.372   0.755
36438SOL    HW211212   7.811   0.353   0.898
36439SOL     OW11213   1.279   8.514   7.726
36439SOL    HW111214   1.292   8.444   7.661
36439SOL    HW211215   1.363   8.521   7.771
36440SOL     OW11216   8.814  12.754   9.763
36440SOL    HW111217   8.759  12.677   9.748
36440SOL    HW211218   8.791  12.783   9.851
36441SOL     OW11219   0.507   8.659   2.974
36441SOL    HW111220   0.493   8.705   2.891
36441SOL    HW211221   0.508   8.566   2.950
36442SOL     OW11222   7.477   8.596   3.041
36442SOL    HW111223   7.546   8.663   3.041
36442SOL    HW211224   7.398   8.644   3.063
36443SOL     OW11225   1.262   1.295   2.026
36443SOL    HW111226   1.309   1.321   1.947
36443SOL    HW211227   1.207   1.371   2.047
36444SOL     OW11228   0.469  14.262  12.297
36444SOL    HW111229   0.383  14.280  12.335
36444SOL    HW211230   0.525  14.333  12.328
36445SOL     OW11231   0.239   4.776  11.971
36445SOL    HW111232   0.198   4.692  11.949
36445SOL    HW211233   0.269   4.765  12.061
36446SOL     OW11234   7.953   3.332   7.597
36446SOL    HW111235   7.879   3.304   7.542
36446SOL    HW211236   8.016   3.260   7.591
36447SOL     OW11237   9.064   5.726  10.378
36447SOL    HW111238   8.988   5.752  10.326
36447SOL    HW211239   9.096   5.647  10.335
36448SOL     OW11240   2.081   1.613  12.699
36448SOL    HW111241   2.011   1.549  12.682
36448SOL    HW211242   2.049   1.694  12.659
36449SOL     OW11243   9.213   5.584   9.635
36449SOL    HW111244   9.195   5.660   9.579
36449SOL    HW211245   9.308   5.577   9.635
36450SOL     OW11246   1.659   3.691   2.612
36450SOL    HW111247   1.609   3.653   2.540
36450SOL    HW211248   1.701   3.615   2.655
36451SOL     OW11249   5.839   6.696   4.066
36451SOL    HW111250   5.793   6.759   4.121
36451SOL    HW211251   5.847   6.618   4.122
36452SOL     OW11252   8.085   3.983   5.314
36452SOL    HW111253   8.074   4.077   5.307
36452SOL    HW211254   8.001   3.947   5.285
36453SOL     OW11255  10.715   2.367   2.974
36453SOL    HW111256  10.741   2.300   3.038
36453SOL    HW211257  10.792   2.379   2.919
36454SOL     OW11258   7.210   6.084  12.208
36454SOL    HW111259   7.238   6.012  12.152
36454SOL    HW211260   7.148   6.134  12.156
36455SOL     OW11261  12.930  14.580   1.505
36455SOL    HW111262  12.986  14.525   1.450
36455SOL    HW211263  12.958  14.669   1.486
36456SOL     OW11264   2.173   5.137  11.080
36456SOL    HW111265   2.191   5.205  11.015
36456SOL    HW211266   2.121   5.072  11.032
36457SOL     OW11267   4.382   9.126   2.145
36457SOL    HW111268   4.415   9.061   2.207
36457SOL    HW211269   4.299   9.089   2.114
36458SOL     OW11270   8.322   7.018   8.637
36458SOL    HW111271   8.294   7.102   8.600
36458SOL    HW211272   8.398   7.039   8.692
36459SOL     OW11273   5.891  11.509   4.176
36459SOL    HW111274   5.829  11.577   4.149
36459SOL    HW211275   5.889  11.444   4.106
36460SOL     OW11276   8.726   0.471   0.279
36460SOL    HW111277   8.717   0.486   0.185
36460SOL    HW211278   8.758   0.554   0.314
36461SOL     OW11279  14.583   2.978   1.111
36461SOL    HW111280  14.488   2.965   1.113
36461SOL    HW211281  14.609   2.978   1.204
36462SOL     OW11282   0.539   9.219  14.142
36462SOL    HW111283   0.596   9.192  14.215
36462SOL    HW211284   0.452   9.227  14.182
36463SOL     OW11285   1.421   1.909  11.930
36463SOL    HW111286   1.344   1.954  11.966
36463SOL    HW211287   1.449   1.964  11.857
36464SOL     OW11288  12.534   2.092   1.821
36464SOL    HW111289  12.459   2.095   1.762
36464SOL    HW211290  12.580   2.175   1.806
36465SOL     OW11291   6.938   5.743  13.775
36465SOL    HW111292   7.011   5.786  13.731
36465SOL    HW211293   6.966   5.733  13.866
36466SOL     OW11294   9.785  11.737   1.527
36466SOL    HW111295   9.693  11.712   1.537
36466SOL    HW211296   9.830  11.690   1.598
36467SOL     OW11297   6.857   4.830  13.653
36467SOL    HW111298   6.851   4.809  13.560
36467SOL    HW211299   6.766   4.837  13.682
36468SOL     OW11300  11.214   3.400  11.834
36468SOL    HW111301  11.218   3.313  11.873
36468SOL    HW211302  11.298   3.411  11.790
36469SOL     OW11303   6.120   6.475   7.256
36469SOL    HW111304   6.214   6.492   7.257
36469SOL    HW211305   6.080   6.562   7.248
36470SOL     OW11306   1.717   6.792   0.745
36470SOL    HW111307   1.645   6.798   0.808
36470SOL    HW211308   1.698   6.712   0.695
36471SOL     OW11309  10.254  13.791   3.133
36471SOL    HW111310  10.171  13.758   3.098
36471SOL    HW211311  10.297  13.833   3.059
36472SOL     OW11312  11.200   8.702   1.907
36472SOL    HW111313  11.294   8.683   1.902
36472SOL    HW211314  11.195   8.791   1.943
36473SOL     OW11315   5.749   7.938   3.713
36473SOL    HW111316   5.724   8.027   3.736
36473SOL    HW211317   5.689   7.882   3.763
36474SOL     OW11318   1.035   2.352   3.500
36474SOL    HW111319   1.065   2.268   3.464
36474SOL    HW211320   0.940   2.346   3.499
36475SOL     OW11321   2.777   1.810  10.854
36475SOL    HW111322   2.806   1.728  10.893
36475SOL    HW211323   2.681   1.804  10.856
36476SOL     OW11324  11.919   3.149   1.401
36476SOL    HW111325  11.916   3.093   1.323
36476SOL    HW211326  11.959   3.230   1.370
36477SOL     OW11327   7.092  11.080   8.547
36477SOL    HW111328   7.035  11.013   8.510
36477SOL    HW211329   7.173  11.074   8.496
36478SOL     OW11330   4.339   0.371   7.122
36478SOL    HW111331   4.350   0.466   7.124
36478SOL    HW211332   4.358   0.347   7.031
36479SOL     OW11333  12.284  10.812  12.229
36479SOL    HW111334  12.214  10.855  12.181
36479SOL    HW211335  12.316  10.744  12.168
36480SOL     OW11336  14.039  10.631  10.453
36480SOL    HW111337  14.067  10.540  10.461
36480SOL    HW211338  14.072  10.658  10.367
36481SOL     OW11339   8.907  14.571   9.284
36481SOL    HW111340   8.991  14.590   9.242
36481SOL    HW211341   8.930  14.517   9.360
36482SOL     OW11342  10.165   0.078   5.432
36482SOL    HW111343  10.090   0.094   5.375
36482SOL    HW211344  10.129   0.035   5.509
36483SOL     OW11345   0.816  11.394  14.734
36483SOL    HW111346   0.771  11.399  14.650
36483SOL    HW211347   0.746  11.376  14.798
36484SOL     OW11348   6.998   5.326   2.962
36484SOL    HW111349   7.066   5.300   2.901
36484SOL    HW211350   7.036   5.311   3.049
36485SOL     OW11351   0.611  14.720  12.005
36485SOL    HW111352   0.687  14.734  11.949
36485SOL    HW211353   0.643  14.666  12.076
36486SOL     OW11354  10.902   6.603   6.715
36486SOL    HW111355  10.919   6.510   6.699
36486SOL    HW211356  10.988   6.644   6.714
36487SOL     OW11357   5.992   7.723  14.817
36487SOL    HW111358   5.981   7.639  14.771
36487SOL    HW211359   5.926   7.780  14.778
36488SOL     OW11360  10.649  12.523   8.582
36488SOL    HW111361  10.598  12.546   8.660
36488SOL    HW211362  10.732  12.490   8.616
36489SOL     OW11363   6.148   3.007  12.424
36489SOL    HW111364   6.138   2.912  12.428
36489SOL    HW211365   6.059   3.040  12.413
36490SOL     OW11366  11.806  12.206   4.233
36490SOL    HW111367  11.846  12.288   4.263
36490SOL    HW211368  11.733  12.234   4.178
36491SOL     OW11369  12.070   5.573   9.184
36491SOL    HW111370  12.082   5.479   9.195
36491SOL    HW211371  12.097   5.611   9.268
36492SOL     OW11372   7.778  14.245  14.357
36492SOL    HW111373   7.707  14.242  14.421
36492SOL    HW211374   7.805  14.337  14.356
36493SOL     OW11375   0.815   0.558  14.278
36493SOL    HW111376   0.880   0.574  14.209
36493SOL    HW211377   0.776   0.645  14.295
36494SOL     OW11378   3.892   0.677   6.732
36494SOL    HW111379   3.893   0.642   6.643
36494SOL    HW211380   3.799   0.678   6.756
36495SOL     OW11381  11.021   9.494   0.753
36495SOL    HW111382  11.009   9.586   0.728
36495SOL    HW211383  11.067   9.455   0.678
36496SOL     OW11384  10.227  13.263  11.632
36496SOL    HW111385  10.310  13.231  11.670
36496SOL    HW211386  10.249  13.347  11.593
36497SOL     OW11387   6.904   3.851   4.754
36497SOL    HW111388   6.995   3.831   4.734
36497SOL    HW211389   6.907   3.940   4.790
36498SOL     OW11390   4.955   9.334  14.417
36498SOL    HW111391   5.023   9.386  14.459
36498SOL    HW211392   4.999   9.252  14.393
36499SOL     OW11393   1.122   3.831  10.837
36499SOL    HW111394   1.058   3.887  10.880
36499SOL    HW211395   1.101   3.742  10.868
36500SOL     OW11396   0.434  10.504   7.319
36500SOL    HW111397   0.349  10.547   7.315
36500SOL    HW211398   0.414  10.410   7.313
36501SOL     OW11399   0.370   9.445   6.391
36501SOL    HW111400   0.400   9.380   6.327
36501SOL    HW211401   0.336   9.517   6.338
36502SOL     OW11402   0.168   3.295  10.285
36502SOL    HW111403   0.142   3.275  10.195
36502SOL    HW211404   0.108   3.244  10.339
36503SOL     OW11405  11.069  11.583   5.058
36503SOL    HW111406  11.088  11.616   5.146
36503SOL    HW211407  11.054  11.662   5.006
36504SOL     OW11408   5.828   7.702  10.328
36504SOL    HW111409   5.755   7.761  10.347
36504SOL    HW211410   5.794   7.615  10.348
36505SOL     OW11411   6.666   4.916  11.094
36505SOL    HW111412   6.710   4.993  11.058
36505SOL    HW211413   6.730   4.845  11.086
36506SOL     OW11414   7.935   2.761   2.148
36506SOL    HW111415   7.937   2.681   2.096
36506SOL    HW211416   8.025   2.791   2.150
36507SOL     OW11417  11.842  12.426   6.621
36507SOL    HW111418  11.837  12.340   6.580
36507SOL    HW211419  11.750  12.452   6.634
36508SOL     OW11420  12.249   8.677   8.417
36508SOL    HW111421  12.221   8.744   8.354
36508SOL    HW211422  12.325   8.637   8.375
36509SOL     OW11423   9.008  12.214   5.004
36509SOL    HW111424   9.041  12.206   5.093
36509SOL    HW211425   9.050  12.142   4.956
36510SOL     OW11426  12.080   5.699  10.957
36510SOL    HW111427  12.135   5.654  11.021
36510SOL    HW211428  12.142   5.747  10.902
36511SOL     OW11429   6.727  10.246  11.267
36511SOL    HW111430   6.796  10.188  11.235
36511SOL    HW211431   6.731  10.322  11.209
36512SOL     OW11432  14.715   3.118   2.073
36512SOL    HW111433  14.654   3.141   2.144
36512SOL    HW211434  14.663   3.068   2.011
36513SOL     OW11435   2.350   4.476   5.029
36513SOL    HW111436   2.283   4.413   5.005
36513SOL    HW211437   2.352   4.538   4.957
36514SOL     OW11438   1.832  14.484  14.231
36514SOL    HW111439   1.825  14.492  14.135
36514SOL    HW211440   1.850  14.391  14.246
36515SOL     OW11441   1.476   3.332   4.651
36515SOL    HW111442   1.424   3.260   4.616
36515SOL    HW211443   1.562   3.323   4.610
36516SOL     OW11444   8.441   3.943   4.961
36516SOL    HW111445   8.456   3.918   5.052
36516SOL    HW211446   8.363   3.998   4.964
36517SOL     OW11447   3.158   4.150   8.146
36517SOL    HW111448   3.205   4.162   8.064
36517SOL    HW211449   3.132   4.058   8.146
36518SOL     OW11450   9.916   2.478   6.495
36518SOL    HW111451   9.976   2.466   6.569
36518SOL    HW211452   9.973   2.500   6.421
36519SOL     OW11453   0.940   2.294   7.699
36519SOL    HW111454   1.023   2.317   7.656
36519SOL    HW211455   0.966   2.240   7.773
36520SOL     OW11456   7.836   0.068   9.895
36520SOL    HW111457   7.800  14.868   9.840
36520SOL    HW211458   7.760   0.121   9.919
36521SOL     OW11459  11.451   5.603  11.587
36521SOL    HW111460  11.407   5.565  11.512
36521SOL    HW211461  11.544   5.588  11.571
36522SOL     OW11462   2.665   6.658   7.265
36522SOL    HW111463   2.657   6.736   7.210
36522SOL    HW211464   2.601   6.671   7.335
36523SOL     OW11465   2.816   9.017  13.999
36523SOL    HW111466   2.761   9.047  13.927
36523SOL    HW211467   2.764   8.950  14.043
36524SOL     OW11468  12.786  10.598   6.543
36524SOL    HW111469  12.746  10.567   6.461
36524SOL    HW211470  12.879  10.575   6.534
36525SOL     OW11471  10.156   4.514   6.497
36525SOL    HW111472  10.200   4.565   6.429
36525SOL    HW211473  10.198   4.543   6.579
36526SOL     OW11474   5.625  13.503   5.162
36526SOL    HW111475   5.546  13.467   5.203
36526SOL    HW211476   5.682  13.427   5.148
36527SOL     OW11477  14.593   5.911   6.627
36527SOL    HW111478  14.652   5.983   6.651
36527SOL    HW211479  14.580   5.921   6.533
36528SOL     OW11480   8.486   3.859   0.694
36528SOL    HW111481   8.479   3.764   0.695
36528SOL    HW211482   8.533   3.881   0.774
36529SOL     OW11483   1.598   9.001   7.993
36529SOL    HW111484   1.585   9.033   8.083
36529SOL    HW211485   1.693   8.989   7.986
36530SOL     OW11486   7.327   8.918  14.506
36530SOL    HW111487   7.327   8.901  14.600
36530SOL    HW211488   7.239   8.897  14.477
36531SOL     OW11489   7.017   7.954   9.398
36531SOL    HW111490   7.080   7.989   9.462
36531SOL    HW211491   6.983   7.874   9.440
36532SOL     OW11492  12.083   8.603   7.929
36532SOL    HW111493  12.000   8.575   7.968
36532SOL    HW211494  12.150   8.557   7.980
36533SOL     OW11495  12.735   2.913   9.101
36533SOL    HW111496  12.693   2.971   9.037
36533SOL    HW211497  12.720   2.955   9.185
36534SOL     OW11498  14.321   8.972   7.160
36534SOL    HW111499  14.265   9.044   7.131
36534SOL    HW211500  14.322   8.911   7.087
36535SOL     OW11501   0.837   6.624   8.647
36535SOL    HW111502   0.808   6.546   8.693
36535SOL    HW211503   0.846   6.691   8.715
36536SOL     OW11504   5.951  12.973  14.528
36536SOL    HW111505   6.025  12.921  14.561
36536SOL    HW211506   5.966  13.060  14.564
36537SOL     OW11507   9.251  11.705   7.160
36537SOL    HW111508   9.292  11.731   7.078
36537SOL    HW211509   9.267  11.611   7.166
36538SOL     OW11510  10.251  13.881  14.495
36538SOL    HW111511  10.169  13.904  14.538
36538SOL    HW211512  10.308  13.851  14.565
36539SOL     OW11513  14.247   2.595  14.130
36539SOL    HW111514  14.341   2.581  14.118
36539SOL    HW211515  14.240   2.642  14.213
36540SOL     OW11516   0.721   1.088   1.613
36540SOL    HW111517   0.668   1.008   1.607
36540SOL    HW211518   0.704   1.134   1.531
36541SOL     OW11519  12.550   6.018   4.611
36541SOL    HW111520  12.560   6.000   4.704
36541SOL    HW211521  12.608   5.955   4.568
36542SOL     OW11522  10.371   2.119   9.748
36542SOL    HW111523  10.394   2.164   9.666
36542SOL    HW211524  10.294   2.067   9.726
36543SOL     OW11525  10.661   3.422   1.235
36543SOL    HW111526  10.694   3.338   1.265
36543SOL    HW211527  10.584   3.439   1.288
36544SOL     OW11528   3.077   4.974  13.572
36544SOL    HW111529   3.054   5.027  13.496
36544SOL    HW211530   2.994   4.956  13.616
36545SOL     OW11531   7.981   6.290  14.740
36545SOL    HW111532   7.994   6.317  14.831
36545SOL    HW211533   8.011   6.199  14.737
36546SOL     OW11534   4.433   8.697   9.351
36546SOL    HW111535   4.435   8.781   9.304
36546SOL    HW211536   4.365   8.646   9.307
36547SOL     OW11537   2.856   3.997  14.253
36547SOL    HW111538   2.916   3.923  14.250
36547SOL    HW211539   2.811   3.995  14.168
36548SOL     OW11540  14.116   7.069  13.889
36548SOL    HW111541  14.208   7.093  13.875
36548SOL    HW211542  14.078   7.069  13.801
36549SOL     OW11543  11.764  11.712  12.869
36549SOL    HW111544  11.717  11.789  12.903
36549SOL    HW211545  11.698  11.662  12.823
36550SOL     OW11546   0.355   5.523   7.906
36550SOL    HW111547   0.440   5.545   7.945
36550SOL    HW211548   0.344   5.588   7.836
36551SOL     OW11549   0.995  13.100   0.765
36551SOL    HW111550   1.001  13.005   0.756
36551SOL    HW211551   1.009  13.116   0.859
36552SOL     OW11552   4.586  12.980   9.609
36552SOL    HW111553   4.640  12.925   9.552
36552SOL    HW211554   4.625  13.067   9.603
36553SOL     OW11555  12.908   8.423  11.080
36553SOL    HW111556  12.955   8.362  11.137
36553SOL    HW211557  12.956   8.419  10.997
36554SOL     OW11558   1.410   7.867  10.563
36554SOL    HW111559   1.324   7.880  10.604
36554SOL    HW211560   1.467   7.930  10.606
36555SOL     OW11561   2.191   1.885   2.320
36555SOL    HW111562   2.282   1.877   2.293
36555SOL    HW211563   2.188   1.967   2.369
36556SOL     OW11564  12.671   9.105  14.084
36556SOL    HW111565  12.666   9.167  14.156
36556SOL    HW211566  12.736   9.040  14.112
36557SOL     OW11567  14.226   8.870   7.771
36557SOL    HW111568  14.220   8.852   7.865
36557SOL    HW211569  14.216   8.785   7.729
36558SOL     OW11570   7.744  13.038  14.394
36558SOL    HW111571   7.727  13.004  14.306
36558SOL    HW211572   7.720  12.967  14.453
36559SOL     OW11573   4.644   5.902  10.319
36559SOL    HW111574   4.558   5.909  10.362
36559SOL    HW211575   4.669   5.992  10.300
36560SOL     OW11576   5.726   7.344  13.506
36560SOL    HW111577   5.662   7.274  13.516
36560SOL    HW211578   5.681   7.411  13.455
36561SOL     OW11579   6.670   7.617   7.260
36561SOL    HW111580   6.713   7.574   7.334
36561SOL    HW211581   6.677   7.554   7.188
36562SOL     OW11582  13.474   5.842  12.415
36562SOL    HW111583  13.460   5.835  12.321
36562SOL    HW211584  13.490   5.936  12.430
36563SOL     OW11585   6.272   8.059   1.025
36563SOL    HW111586   6.210   7.994   1.057
36563SOL    HW211587   6.232   8.093   0.945
36564SOL     OW11588   4.004  14.055   7.325
36564SOL    HW111589   4.055  13.978   7.351
36564SOL    HW211590   3.938  14.064   7.394
36565SOL     OW11591   4.889  14.824   5.471
36565SOL    HW111592   4.946  14.806   5.397
36565SOL    HW211593   4.874   0.049   5.469
36566SOL     OW11594  10.085   0.326  12.029
36566SOL    HW111595  10.036   0.259  11.981
36566SOL    HW211596  10.019   0.393  12.050
36567SOL     OW11597   0.649  13.922  14.586
36567SOL    HW111598   0.640  13.994  14.524
36567SOL    HW211599   0.560  13.901  14.613
36568SOL     OW11600   8.555  14.099   3.572
36568SOL    HW111601   8.597  14.048   3.503
36568SOL    HW211602   8.499  14.161   3.525
36569SOL     OW11603  11.673   3.528   6.637
36569SOL    HW111604  11.647   3.563   6.552
36569SOL    HW211605  11.758   3.569   6.654
36570SOL     OW11606   5.563   4.606   7.141
36570SOL    HW111607   5.632   4.669   7.118
36570SOL    HW211608   5.606   4.520   7.130
36571SOL     OW11609   4.387  12.480   6.867
36571SOL    HW111610   4.389  12.408   6.803
36571SOL    HW211611   4.346  12.441   6.945
36572SOL     OW11612   6.376   6.712   0.705
36572SOL    HW111613   6.282   6.719   0.692
36572SOL    HW211614   6.398   6.625   0.674
36573SOL     OW11615   1.098   3.876   9.309
36573SOL    HW111616   1.188   3.859   9.338
36573SOL    HW211617   1.095   3.971   9.297
36574SOL     OW11618   5.883   2.607   0.125
36574SOL    HW111619   5.968   2.577   0.158
36574SOL    HW211620   5.904   2.676   0.062
36575SOL     OW11621   7.865  10.494   8.993
36575SOL    HW111622   7.906  10.408   8.997
36575SOL    HW211623   7.796  10.491   9.059
36576SOL     OW11624   4.260   1.002   1.924
36576SOL    HW111625   4.285   1.089   1.893
36576SOL    HW211626   4.232   0.956   1.845
36577SOL     OW11627  13.017   1.112  10.853
36577SOL    HW111628  12.923   1.098  10.860
36577SOL    HW211629  13.033   1.195  10.897
36578SOL     OW11630   6.152   4.445  12.063
36578SOL    HW111631   6.121   4.405  11.982
36578SOL    HW211632   6.175   4.535  12.038
36579SOL     OW11633  12.718   7.667   1.696
36579SOL    HW111634  12.644   7.613   1.667
36579SOL    HW211635  12.784   7.603   1.724
36580SOL     OW11636  10.040   2.088   9.679
36580SOL    HW111637  10.040   2.166   9.623
36580SOL    HW211638  10.054   2.015   9.618
36581SOL     OW11639   8.098   1.050   2.996
36581SOL    HW111640   8.038   1.034   2.922
36581SOL    HW211641   8.182   1.067   2.955
36582SOL     OW11642   4.660  10.506   4.636
36582SOL    HW111643   4.588  10.535   4.580
36582SOL    HW211644   4.722  10.579   4.635
36583SOL     OW11645  12.916  14.033   1.790
36583SOL    HW111646  12.869  14.101   1.838
36583SOL    HW211647  12.987  14.006   1.848
36584SOL     OW11648   2.981   1.930  13.384
36584SOL    HW111649   2.995   1.871  13.457
36584SOL    HW211650   3.063   1.925  13.333
36585SOL     OW11651   7.955   6.375   0.133
36585SOL    HW111652   7.859   6.370   0.128
36585SOL    HW211653   7.974   6.371   0.227
36586SOL     OW11654   7.914   3.833   8.576
36586SOL    HW111655   7.907   3.808   8.668
36586SOL    HW211656   7.997   3.881   8.570
36587SOL     OW11657   6.417  10.244   1.565
36587SOL    HW111658   6.323  10.265   1.571
36587SOL    HW211659   6.458  10.325   1.535
36588SOL     OW11660   0.745   8.244   3.257
36588SOL    HW111661   0.651   8.231   3.251
36588SOL    HW211662   0.760   8.330   3.217
36589SOL     OW11663   0.634   4.434  13.608
36589SOL    HW111664   0.724   4.456  13.583
36589SOL    HW211665   0.642   4.351  13.655
36590SOL     OW11666   0.080  10.085  12.053
36590SOL    HW111667   0.065  10.023  11.981
36590SOL    HW211668   0.080  10.030  12.132
36591SOL     OW11669   7.142   7.424   5.608
36591SOL    HW111670   7.097   7.426   5.692
36591SOL    HW211671   7.105   7.498   5.560
36592SOL     OW11672   4.402   4.684  13.573
36592SOL    HW111673   4.494   4.703  13.594
36592SOL    HW211674   4.398   4.686  13.478
36593SOL     OW11675   6.279   7.858   9.541
36593SOL    HW111676   6.323   7.936   9.507
36593SOL    HW211677   6.298   7.860   9.635
36594SOL     OW11678   7.227   4.240  10.103
36594SOL    HW111679   7.259   4.280  10.022
36594SOL    HW211680   7.167   4.171  10.074
36595SOL     OW11681   5.828   8.803   6.683
36595SOL    HW111682   5.737   8.775   6.692
36595SOL    HW211683   5.879   8.734   6.724
36596SOL     OW11684   3.286   9.789   3.118
36596SOL    HW111685   3.216   9.726   3.100
36596SOL    HW211686   3.243   9.874   3.115
36597SOL     OW11687   1.662  11.454  10.881
36597SOL    HW111688   1.732  11.405  10.837
36597SOL    HW211689   1.695  11.471  10.969
36598SOL     OW11690  10.838   5.538   7.896
36598SOL    HW111691  10.883   5.463   7.935
36598SOL    HW211692  10.799   5.584   7.970
36599SOL     OW11693   6.345   7.235  10.296
36599SOL    HW111694   6.402   7.198  10.228
36599SOL    HW211695   6.328   7.162  10.355
36600SOL     OW11696   2.087   2.972   0.261
36600SOL    HW111697   2.020   2.906   0.243
36600SOL    HW211698   2.037   3.048   0.291
36601SOL     OW11699   8.072   8.772   9.109
36601SOL    HW111700   8.028   8.803   9.030
36601SOL    HW211701   8.110   8.850   9.148
36602SOL     OW11702   3.368   8.486   3.445
36602SOL    HW111703   3.419   8.564   3.425
36602SOL    HW211704   3.304   8.481   3.374
36603SOL     OW11705  14.244   5.320   9.387
36603SOL    HW111706  14.277   5.234   9.413
36603SOL    HW211707  14.198   5.303   9.304
36604SOL     OW11708   1.502  11.090   2.362
36604SOL    HW111709   1.455  11.113   2.442
36604SOL    HW211710   1.486  10.996   2.351
36605SOL     OW11711   5.835   0.223  10.487
36605SOL    HW111712   5.871   0.182  10.408
36605SOL    HW211713   5.755   0.174  10.505
36606SOL     OW11714   7.262   0.090  11.392
36606SOL    HW111715   7.320   0.159  11.361
36606SOL    HW211716   7.274   0.089  11.487
36607SOL     OW11717  12.050   0.613   2.467
36607SOL    HW111718  12.002   0.545   2.514
36607SOL    HW211719  12.143   0.592   2.483
36608SOL     OW11720   5.868   5.430  10.472
36608SOL    HW111721   5.885   5.485  10.549
36608SOL    HW211722   5.828   5.351  10.507
36609SOL     OW11723  12.577  14.604   5.326
36609SOL    HW111724  12.500  14.604   5.269
36609SOL    HW211725  12.562  14.676   5.387
36610SOL     OW11726   8.851   2.129  13.196
36610SOL    HW111727   8.902   2.049  13.200
36610SOL    HW211728   8.761   2.100  13.185
36611SOL     OW11729  11.650   1.015  13.095
36611SOL    HW111730  11.654   1.108  13.073
36611SOL    HW211731  11.664   1.012  13.190
36612SOL     OW11732   9.399  10.125  10.860
36612SOL    HW111733   9.381  10.095  10.949
36612SOL    HW211734   9.353  10.209  10.853
36613SOL     OW11735   8.881  13.294   6.339
36613SOL    HW111736   8.816  13.296   6.409
36613SOL    HW211737   8.846  13.231   6.276
36614SOL     OW11738   4.866   1.317   2.705
36614SOL    HW111739   4.810   1.286   2.633
36614SOL    HW211740   4.838   1.266   2.781
36615SOL     OW11741   7.584   9.947  13.787
36615SOL    HW111742   7.658   9.953  13.728
36615SOL    HW211743   7.538  10.031  13.775
36616SOL     OW11744   7.158   4.199  12.022
36616SOL    HW111745   7.074   4.181  12.065
36616SOL    HW211746   7.136   4.206  11.929
36617SOL     OW11747   3.193   2.544   6.990
36617SOL    HW111748   3.152   2.487   6.924
36617SOL    HW211749   3.282   2.510   6.998
36618SOL     OW11750  12.141   4.387   0.029
36618SOL    HW111751  12.102   4.467   0.064
36618SOL    HW211752  12.235   4.406   0.024
36619SOL     OW11753   5.573  10.648   3.278
36619SOL    HW111754   5.611  10.561   3.289
36619SOL    HW211755   5.588  10.670   3.186
36620SOL     OW11756   8.570   5.411   2.197
36620SOL    HW111757   8.664   5.417   2.209
36620SOL    HW211758   8.558   5.387   2.106
36621SOL     OW11759  10.012  14.629   5.466
36621SOL    HW111760  10.024  14.632   5.560
36621SOL    HW211761  10.096  14.597   5.431
36622SOL     OW11762   0.425   1.933   7.468
36622SOL    HW111763   0.494   1.970   7.523
36622SOL    HW211764   0.449   1.958   7.379
36623SOL     OW11765   6.130  14.417   4.700
36623SOL    HW111766   6.053  14.414   4.643
36623SOL    HW211767   6.180  14.339   4.676
36624SOL     OW11768   0.715  14.843  12.408
36624SOL    HW111769   0.808  14.822  12.402
36624SOL    HW211770   0.710   0.066  12.381
36625SOL     OW11771   6.748   9.672  10.761
36625SOL    HW111772   6.755   9.670  10.857
36625SOL    HW211773   6.667   9.626  10.742
36626SOL     OW11774  14.774   7.381   7.344
36626SOL    HW111775  14.748   7.394   7.253
36626SOL    HW211776  14.797   7.288   7.350
36627SOL     OW11777   2.545   4.226   9.423
36627SOL    HW111778   2.463   4.183   9.449
36627SOL    HW211779   2.549   4.304   9.479
36628SOL     OW11780   1.630   0.072  14.659
36628SOL    HW111781   1.681   0.146  14.627
36628SOL    HW211782   1.543   0.107  14.675
36629SOL     OW11783  12.854   7.685   7.518
36629SOL    HW111784  12.817   7.597   7.509
36629SOL    HW211785  12.814   7.735   7.446
36630SOL     OW11786   8.160  13.845   4.430
36630SOL    HW111787   8.102  13.854   4.354
36630SOL    HW211788   8.203  13.761   4.417
36631SOL     OW11789   5.190   5.148  13.449
36631SOL    HW111790   5.222   5.192  13.528
36631SOL    HW211791   5.229   5.198  13.377
36632SOL     OW11792   3.669   8.586  12.637
36632SOL    HW111793   3.610   8.578  12.712
36632SOL    HW211794   3.756   8.593  12.675
36633SOL     OW11795   3.386  14.549   3.634
36633SOL    HW111796   3.419  14.461   3.615
36633SOL    HW211797   3.331  14.538   3.711
36634SOL     OW11798  11.296  11.163   9.413
36634SOL    HW111799  11.356  11.225   9.373
36634SOL    HW211800  11.345  11.124   9.485
36635SOL     OW11801   0.475   4.224  11.602
36635SOL    HW111802   0.497   4.131  11.606
36635SOL    HW211803   0.540   4.262  11.543
36636SOL     OW11804   8.083  11.377   6.350
36636SOL    HW111805   8.011  11.405   6.293
36636SOL    HW211806   8.126  11.307   6.300
36637SOL     OW11807  13.315   9.446   1.708
36637SOL    HW111808  13.292   9.369   1.761
36637SOL    HW211809  13.357   9.506   1.768
36638SOL     OW11810   7.982   7.174   7.783
36638SOL    HW111811   7.900   7.219   7.803
36638SOL    HW211812   7.984   7.172   7.687
36639SOL     OW11813  12.386   8.922   3.155
36639SOL    HW111814  12.414   8.930   3.063
36639SOL    HW211815  12.290   8.921   3.151
36640SOL     OW11816   3.889   4.463  10.847
36640SOL    HW111817   3.924   4.549  10.870
36640SOL    HW211818   3.878   4.419  10.931
36641SOL     OW11819  14.600   4.197   7.222
36641SOL    HW111820  14.562   4.242   7.297
36641SOL    HW211821  14.685   4.165   7.254
36642SOL     OW11822   2.018  12.828   2.962
36642SOL    HW111823   1.992  12.736   2.958
36642SOL    HW211824   2.055  12.846   2.875
36643SOL     OW11825  11.065  11.854   1.577
36643SOL    HW111826  11.054  11.932   1.632
36643SOL    HW211827  11.082  11.783   1.639
36644SOL     OW11828   8.186   1.771  13.191
36644SOL    HW111829   8.161   1.863  13.186
36644SOL    HW211830   8.264   1.771  13.247
36645SOL     OW11831   9.528   5.811  11.482
36645SOL    HW111832   9.447   5.790  11.435
36645SOL    HW211833   9.544   5.903  11.461
36646SOL     OW11834   7.650   4.791   3.774
36646SOL    HW111835   7.712   4.722   3.796
36646SOL    HW211836   7.656   4.853   3.846
36647SOL     OW11837  11.200  13.972   8.365
36647SOL    HW111838  11.165  13.982   8.276
36647SOL    HW211839  11.176  14.053   8.409
36648SOL     OW11840  14.726   1.415   4.191
36648SOL    HW111841  14.809   1.461   4.184
36648SOL    HW211842  14.661   1.476   4.156
36649SOL     OW11843  11.949  10.765   4.103
36649SOL    HW111844  11.891  10.819   4.157
36649SOL    HW211845  12.036  10.802   4.116
36650SOL     OW11846   7.125   6.355   1.866
36650SOL    HW111847   7.078   6.439   1.868
36650SOL    HW211848   7.064   6.295   1.823
36651SOL     OW11849   1.204   1.521   6.781
36651SOL    HW111850   1.233   1.565   6.861
36651SOL    HW211851   1.283   1.481   6.745
36652SOL     OW11852   7.520  10.344   8.404
36652SOL    HW111853   7.429  10.352   8.433
36652SOL    HW211854   7.570  10.332   8.484
36653SOL     OW11855   0.048   2.104  12.869
36653SOL    HW111856  14.831   2.083  12.836
36653SOL    HW211857   0.107   2.083  12.796
36654SOL     OW11858   2.343  14.529   9.204
36654SOL    HW111859   2.261  14.560   9.242
36654SOL    HW211860   2.361  14.447   9.251
36655SOL     OW11861   9.758  14.177   1.794
36655SOL    HW111862   9.686  14.124   1.760
36655SOL    HW211863   9.834  14.118   1.792
36656SOL     OW11864   3.592   1.820  13.318
36656SOL    HW111865   3.630   1.733  13.314
36656SOL    HW211866   3.554   1.826  13.406
36657SOL     OW11867   9.504  10.485   3.991
36657SOL    HW111868   9.548  10.569   3.974
36657SOL    HW211869   9.463  10.462   3.907
36658SOL     OW11870   4.592   2.502  12.334
36658SOL    HW111871   4.682   2.506  12.302
36658SOL    HW211872   4.568   2.410  12.327
36659SOL     OW11873   0.630  13.600   1.021
36659SOL    HW111874   0.656  13.590   1.112
36659SOL    HW211875   0.670  13.683   0.994
36660SOL     OW11876  10.168  10.707  14.628
36660SOL    HW111877  10.189  10.623  14.587
36660SOL    HW211878  10.092  10.688  14.683
36661SOL     OW11879  12.986  12.768   1.576
36661SOL    HW111880  12.988  12.694   1.515
36661SOL    HW211881  13.078  12.797   1.581
36662SOL     OW11882   2.601   1.914   9.274
36662SOL    HW111883   2.617   1.829   9.315
36662SOL    HW211884   2.506   1.918   9.263
36663SOL     OW11885   3.162  12.127   2.651
36663SOL    HW111886   3.243  12.172   2.628
36663SOL    HW211887   3.150  12.062   2.582
36664SOL     OW11888   2.445  12.846  11.737
36664SOL    HW111889   2.413  12.835  11.827
36664SOL    HW211890   2.395  12.783  11.686
36665SOL     OW11891   0.888  14.185  14.577
36665SOL    HW111892   0.896  14.128  14.654
36665SOL    HW211893   0.811  14.152  14.531
36666SOL     OW11894   9.818   6.204  11.621
36666SOL    HW111895   9.846   6.115  11.600
36666SOL    HW211896   9.839   6.215  11.714
36667SOL     OW11897   9.268   4.549   7.343
36667SOL    HW111898   9.290   4.563   7.251
36667SOL    HW211899   9.341   4.496   7.377
36668SOL     OW11900   7.683   7.386   8.183
36668SOL    HW111901   7.773   7.410   8.165
36668SOL    HW211902   7.635   7.469   8.184
36669SOL     OW11903   1.670   8.195   3.398
36669SOL    HW111904   1.577   8.217   3.387
36669SOL    HW211905   1.691   8.221   3.487
36670SOL     OW11906   8.858  10.622   9.562
36670SOL    HW111907   8.944  10.662   9.575
36670SOL    HW211908   8.838  10.579   9.645
36671SOL     OW11909   6.090  13.105   3.223
36671SOL    HW111910   6.009  13.089   3.174
36671SOL    HW211911   6.139  13.166   3.168
36672SOL     OW11912   8.011  10.106  11.569
36672SOL    HW111913   8.020  10.169  11.497
36672SOL    HW211914   8.041  10.155  11.646
36673SOL     OW11915  10.927   4.209   8.256
36673SOL    HW111916  10.853   4.203   8.316
36673SOL    HW211917  11.004   4.194   8.311
36674SOL     OW11918   4.523   3.838   0.294
36674SOL    HW111919   4.551   3.764   0.240
36674SOL    HW211920   4.601   3.893   0.302
36675SOL     OW11921   4.438   6.840  13.475
36675SOL    HW111922   4.527   6.841  13.509
36675SOL    HW211923   4.386   6.797  13.543
36676SOL     OW11924  12.863   3.083   4.621
36676SOL    HW111925  12.842   3.111   4.710
36676SOL    HW211926  12.781   3.046   4.588
36677SOL     OW11927   4.204   5.174   6.641
36677SOL    HW111928   4.235   5.245   6.698
36677SOL    HW211929   4.133   5.133   6.692
36678SOL     OW11930  12.387  11.889   7.081
36678SOL    HW111931  12.409  11.945   7.155
36678SOL    HW211932  12.339  11.816   7.120
36679SOL     OW11933   6.552   6.315   6.808
36679SOL    HW111934   6.646   6.330   6.812
36679SOL    HW211935   6.513   6.403   6.807
36680SOL     OW11936  10.577   2.212   3.576
36680SOL    HW111937  10.486   2.200   3.601
36680SOL    HW211938  10.573   2.239   3.484
36681SOL     OW11939   3.937  10.669   7.103
36681SOL    HW111940   3.960  10.762   7.098
36681SOL    HW211941   3.870  10.657   7.036
36682SOL     OW11942   1.343   6.004  14.673
36682SOL    HW111943   1.405   5.959  14.616
36682SOL    HW211944   1.314   5.938  14.735
36683SOL     OW11945   5.431   0.591   8.567
36683SOL    HW111946   5.430   0.532   8.642
36683SOL    HW211947   5.513   0.640   8.575
36684SOL     OW11948   5.611  14.354  13.716
36684SOL    HW111949   5.596  14.355  13.622
36684SOL    HW211950   5.536  14.401  13.753
36685SOL     OW11951   6.656   9.830   6.355
36685SOL    HW111952   6.749   9.848   6.373
36685SOL    HW211953   6.639   9.748   6.400
36686SOL     OW11954   7.933   3.492  10.144
36686SOL    HW111955   7.934   3.397  10.136
36686SOL    HW211956   7.953   3.523  10.055
36687SOL     OW11957   6.354   7.457  10.928
36687SOL    HW111958   6.273   7.453  10.979
36687SOL    HW211959   6.325   7.461  10.837
36688SOL     OW11960   2.332   4.886  11.210
36688SOL    HW111961   2.332   4.840  11.126
36688SOL    HW211962   2.339   4.979  11.187
36689SOL     OW11963   3.507   4.324  14.174
36689SOL    HW111964   3.420   4.335  14.137
36689SOL    HW211965   3.534   4.413  14.198
36690SOL     OW11966   6.114   6.842   8.955
36690SOL    HW111967   6.164   6.908   8.907
36690SOL    HW211968   6.119   6.764   8.900
36691SOL     OW11969   1.112   3.472  10.013
36691SOL    HW111970   1.139   3.564  10.016
36691SOL    HW211971   1.032   3.469  10.066
36692SOL     OW11972   2.977   2.449   1.494
36692SOL    HW111973   3.000   2.409   1.577
36692SOL    HW211974   2.931   2.529   1.517
36693SOL     OW11975   4.769   1.282  14.281
36693SOL    HW111976   4.702   1.349  14.296
36693SOL    HW211977   4.818   1.278  14.363
36694SOL     OW11978   0.868  13.485  13.117
36694SOL    HW111979   0.898  13.575  13.111
36694SOL    HW211980   0.774  13.489  13.100
36695SOL     OW11981   0.401   4.748   1.487
36695SOL    HW111982   0.479   4.706   1.452
36695SOL    HW211983   0.434   4.808   1.554
36696SOL     OW11984  12.581   3.130   8.813
36696SOL    HW111985  12.592   3.045   8.771
36696SOL    HW211986  12.487   3.137   8.827
36697SOL     OW11987  13.607   8.245   4.366
36697SOL    HW111988  13.547   8.186   4.411
36697SOL    HW211989  13.628   8.200   4.284
36698SOL     OW11990   3.213   3.270  11.700
36698SOL    HW111991   3.164   3.256  11.781
36698SOL    HW211992   3.155   3.239  11.631
36699SOL     OW11993  12.398   8.308   2.186
36699SOL    HW111994  12.393   8.228   2.134
36699SOL    HW211995  12.488   8.310   2.218
36700SOL     OW11996   4.059  13.417   0.818
36700SOL    HW111997   4.154  13.414   0.818
36700SOL    HW211998   4.034  13.423   0.910
36701SOL     OW11999   3.865   7.408  11.769
36701SOL    HW112000   3.828   7.386  11.855
36701SOL    HW212001   3.958   7.391  11.778
36702SOL     OW12002   2.704  13.569   2.339
36702SOL    HW112003   2.685  13.645   2.284
36702SOL    HW212004   2.638  13.571   2.408
36703SOL     OW12005   6.686  14.086  13.855
36703SOL    HW112006   6.759  14.104  13.913
36703SOL    HW212007   6.714  14.119  13.770
36704SOL     OW12008   2.724   4.518   5.922
36704SOL    HW112009   2.778   4.439   5.927
36704SOL    HW212010   2.636   4.487   5.902
36705SOL     OW12011  13.609  10.686   1.034
36705SOL    HW112012  13.587  10.752   1.100
36705SOL    HW212013  13.571  10.605   1.068
36706SOL     OW12014   8.442   3.939  11.486
36706SOL    HW112015   8.362   3.955  11.437
36706SOL    HW212016   8.477   3.857  11.450
36707SOL     OW12017   3.385   9.993  11.365
36707SOL    HW112018   3.411  10.003  11.274
36707SOL    HW212019   3.400  10.079  11.404
36708SOL     OW12020   2.081   0.586   8.420
36708SOL    HW112021   2.176   0.591   8.427
36708SOL    HW212022   2.056   0.512   8.476
36709SOL     OW12023  11.432  13.929  13.666
36709SOL    HW112024  11.498  13.998  13.654
36709SOL    HW212025  11.483  13.848  13.673
36710SOL     OW12026   5.506   8.939  11.781
36710SOL    HW112027   5.423   8.985  11.785
36710SOL    HW212028   5.503   8.891  11.698
36711SOL     OW12029   9.596   1.890  12.402
36711SOL    HW112030   9.679   1.924  12.367
36711SOL    HW212031   9.596   1.917  12.494
36712SOL     OW12032   5.585  10.495  13.650
36712SOL    HW112033   5.603  10.533  13.735
36712SOL    HW212034   5.607  10.564  13.587
36713SOL     OW12035   5.320   1.791  12.615
36713SOL    HW112036   5.345   1.699  12.610
36713SOL    HW212037   5.282   1.801  12.702
36714SOL     OW12038   3.091   8.070   9.815
36714SOL    HW112039   3.057   7.999   9.871
36714SOL    HW212040   3.032   8.072   9.740
36715SOL     OW12041   1.891  11.018   4.634
36715SOL    HW112042   1.827  11.072   4.680
36715SOL    HW212043   1.976  11.055   4.659
36716SOL     OW12044  12.233   3.669  11.750
36716SOL    HW112045  12.210   3.662  11.657
36716SOL    HW212046  12.271   3.757  11.758
36717SOL     OW12047   5.649   0.920   9.534
36717SOL    HW112048   5.598   0.839   9.548
36717SOL    HW212049   5.583   0.990   9.536
36718SOL     OW12050  13.355  13.445   6.297
36718SOL    HW112051  13.405  13.374   6.338
36718SOL    HW212052  13.416  13.519   6.297
36719SOL     OW12053   1.435   4.894  11.319
36719SOL    HW112054   1.430   4.967  11.258
36719SOL    HW212055   1.490   4.829  11.274
36720SOL     OW12056  12.742  10.666   1.223
36720SOL    HW112057  12.676  10.690   1.289
36720SOL    HW212058  12.737  10.737   1.158
36721SOL     OW12059   9.565  10.491   6.365
36721SOL    HW112060   9.652  10.478   6.327
36721SOL    HW212061   9.510  10.514   6.290
36722SOL     OW12062  13.839   2.483  14.187
36722SOL    HW112063  13.775   2.417  14.215
36722SOL    HW212064  13.788   2.564  14.181
36723SOL     OW12065   3.368   1.125   6.661
36723SOL    HW112066   3.304   1.099   6.727
36723SOL    HW212067   3.451   1.091   6.692
36724SOL     OW12068   4.605   2.327   5.509
36724SOL    HW112069   4.574   2.363   5.592
36724SOL    HW212070   4.534   2.270   5.480
36725SOL     OW12071   6.634   1.297   4.687
36725SOL    HW112072   6.701   1.353   4.726
36725SOL    HW212073   6.553   1.346   4.698
36726SOL     OW12074  11.980   4.031   3.775
36726SOL    HW112075  12.059   4.011   3.824
36726SOL    HW212076  11.915   4.054   3.842
36727SOL     OW12077  10.533  10.086   2.835
36727SOL    HW112078  10.560  10.143   2.907
36727SOL    HW212079  10.507  10.147   2.765
36728SOL     OW12080   2.881   8.032  14.545
36728SOL    HW112081   2.859   7.943  14.572
36728SOL    HW212082   2.951   8.059  14.605
36729SOL     OW12083   6.754  10.593  11.945
36729SOL    HW112084   6.689  10.529  11.974
36729SOL    HW212085   6.742  10.667  12.005
36730SOL     OW12086   0.927   0.314   6.952
36730SOL    HW112087   0.835   0.308   6.978
36730SOL    HW212088   0.971   0.249   7.007
36731SOL     OW12089   9.812   1.884   0.153
36731SOL    HW112090   9.903   1.852   0.149
36731SOL    HW212091   9.801   1.934   0.073
36732SOL     OW12092  11.001   0.624   2.768
36732SOL    HW112093  10.943   0.548   2.759
36732SOL    HW212094  10.943   0.697   2.788
36733SOL     OW12095   1.622   8.149   4.177
36733SOL    HW112096   1.620   8.244   4.173
36733SOL    HW212097   1.680   8.124   4.105
36734SOL     OW12098   1.155   5.903  10.763
36734SOL    HW112099   1.214   5.924  10.691
36734SOL    HW212100   1.074   5.874  10.719
36735SOL     OW12101   9.749   9.994  10.904
36735SOL    HW112102   9.711  10.045  10.832
36735SOL    HW212103   9.767  10.059  10.972
36736SOL     OW12104   3.672   3.183   7.491
36736SOL    HW112105   3.619   3.215   7.564
36736SOL    HW212106   3.633   3.098   7.469
36737SOL     OW12107   9.361   8.423   2.741
36737SOL    HW112108   9.329   8.462   2.659
36737SOL    HW212109   9.451   8.455   2.750
36738SOL     OW12110   1.139  13.856   7.350
36738SOL    HW112111   1.204  13.836   7.418
36738SOL    HW212112   1.191  13.876   7.273
36739SOL     OW12113   1.592   8.573   4.532
36739SOL    HW112114   1.509   8.620   4.532
36739SOL    HW212115   1.578   8.500   4.592
36740SOL     OW12116   6.366  14.745  12.720
36740SOL    HW112117   6.350  14.651  12.725
36740SOL    HW212118   6.338  14.770  12.632
36741SOL     OW12119  13.080  10.561   6.241
36741SOL    HW112120  13.107  10.647   6.210
36741SOL    HW212121  13.050  10.575   6.331
36742SOL     OW12122   0.463   7.458   9.148
36742SOL    HW112123   0.432   7.545   9.124
36742SOL    HW212124   0.492   7.468   9.239
36743SOL     OW12125   6.077   0.357   3.845
36743SOL    HW112126   6.080   0.335   3.938
36743SOL    HW212127   6.086   0.273   3.800
36744SOL     OW12128   6.472   7.066   8.422
36744SOL    HW112129   6.453   6.979   8.386
36744SOL    HW212130   6.389   7.113   8.417
36745SOL     OW12131   3.763  10.358   2.081
36745SOL    HW112132   3.751  10.325   2.170
36745SOL    HW212133   3.857  10.373   2.072
36746SOL     OW12134  14.746   5.371  14.820
36746SOL    HW112135  14.742   5.433   0.023
36746SOL    HW212136  14.658   5.373  14.782
36747SOL     OW12137  14.172   3.405   1.065
36747SOL    HW112138  14.209   3.383   1.150
36747SOL    HW212139  14.113   3.333   1.044
36748SOL     OW12140  14.610  12.307   1.477
36748SOL    HW112141  14.604  12.403   1.474
36748SOL    HW212142  14.554  12.282   1.550
36749SOL     OW12143   9.155   3.179   7.636
36749SOL    HW112144   9.185   3.150   7.722
36749SOL    HW212145   9.189   3.113   7.575
36750SOL     OW12146   4.295   7.642   8.394
36750SOL    HW112147   4.333   7.556   8.373
36750SOL    HW212148   4.202   7.631   8.378
36751SOL     OW12149   1.321   1.009   4.301
36751SOL    HW112150   1.392   0.955   4.335
36751SOL    HW212151   1.307   0.978   4.212
36752SOL     OW12152  11.700   8.794  13.723
36752SOL    HW112153  11.728   8.756  13.640
36752SOL    HW212154  11.781   8.822  13.765
36753SOL     OW12155   4.275   3.909   9.285
36753SOL    HW112156   4.247   4.000   9.273
36753SOL    HW212157   4.208   3.870   9.341
36754SOL     OW12158   0.595   8.449   5.128
36754SOL    HW112159   0.611   8.389   5.056
36754SOL    HW212160   0.516   8.497   5.102
36755SOL     OW12161  14.540   8.983   6.706
36755SOL    HW112162  14.621   8.935   6.727
36755SOL    HW212163  14.548   9.066   6.753
36756SOL     OW12164  12.903  10.816   0.814
36756SOL    HW112165  12.976  10.806   0.875
36756SOL    HW212166  12.940  10.859   0.738
36757SOL     OW12167   2.504   2.091   8.433
36757SOL    HW112168   2.507   1.998   8.453
36757SOL    HW212169   2.421   2.121   8.470
36758SOL     OW12170   0.864   5.553  11.408
36758SOL    HW112171   0.839   5.605  11.332
36758SOL    HW212172   0.795   5.488  11.417
36759SOL     OW12173   3.555  13.409  12.439
36759SOL    HW112174   3.495  13.444  12.372
36759SOL    HW212175   3.635  13.459  12.428
36760SOL     OW12176   2.972   6.348   0.677
36760SOL    HW112177   3.033   6.371   0.606
36760SOL    HW212178   3.018   6.282   0.727
36761SOL     OW12179   5.602  11.974   8.184
36761SOL    HW112180   5.544  11.899   8.187
36761SOL    HW212181   5.641  11.971   8.096
36762SOL     OW12182  11.953   9.215   1.528
36762SOL    HW112183  11.948   9.132   1.481
36762SOL    HW212184  12.007   9.271   1.472
36763SOL     OW12185   8.156   4.383  11.711
36763SOL    HW112186   8.177   4.468  11.751
36763SOL    HW212187   8.155   4.401  11.617
36764SOL     OW12188   5.572   9.140  13.174
36764SOL    HW112189   5.657   9.179  13.197
36764SOL    HW212190   5.511   9.213  13.177
36765SOL     OW12191  10.771   0.669   4.973
36765SOL    HW112192  10.704   0.602   4.986
36765SOL    HW212193  10.781   0.675   4.878
36766SOL     OW12194   9.721   7.032   7.185
36766SOL    HW112195   9.671   6.980   7.247
36766SOL    HW212196   9.804   7.049   7.229
36767SOL     OW12197   7.091  13.386   3.757
36767SOL    HW112198   7.138  13.454   3.805
36767SOL    HW212199   7.097  13.308   3.813
36768SOL     OW12200  11.466   7.291   6.863
36768SOL    HW112201  11.374   7.308   6.841
36768SOL    HW212202  11.508   7.376   6.856
36769SOL     OW12203  11.480  13.116  13.040
36769SOL    HW112204  11.412  13.180  13.060
36769SOL    HW212205  11.561  13.167  13.038
36770SOL     OW12206  10.811   5.833   7.219
36770SOL    HW112207  10.748   5.897   7.252
36770SOL    HW212208  10.758   5.757   7.195
36771SOL     OW12209   6.513  13.458  14.312
36771SOL    HW112210   6.437  13.514  14.297
36771SOL    HW212211   6.572  13.512  14.364
36772SOL     OW12212   7.010   1.733   2.802
36772SOL    HW112213   7.089   1.758   2.753
36772SOL    HW212214   6.938   1.776   2.756
36773SOL     OW12215   3.127  11.740   2.281
36773SOL    HW112216   3.063  11.693   2.334
36773SOL    HW212217   3.160  11.674   2.219
36774SOL     OW12218   0.310  14.124   7.939
36774SOL    HW112219   0.289  14.033   7.918
36774SOL    HW212220   0.348  14.159   7.858
36775SOL     OW12221   9.055   4.024   4.395
36775SOL    HW112222   9.007   3.945   4.418
36775SOL    HW212223   9.014   4.053   4.313
36776SOL     OW12224   6.192   3.975  13.898
36776SOL    HW112225   6.206   3.993  13.991
36776SOL    HW212226   6.194   4.061  13.856
36777SOL     OW12227   3.676   4.682   4.867
36777SOL    HW112228   3.684   4.778   4.861
36777SOL    HW212229   3.713   4.650   4.784
36778SOL     OW12230  11.135   0.057   3.394
36778SOL    HW112231  11.065   0.097   3.342
36778SOL    HW212232  11.100  14.842   3.420
36779SOL     OW12233   1.650  11.892   6.425
36779SOL    HW112234   1.696  11.927   6.501
36779SOL    HW212235   1.712  11.829   6.387
36780SOL     OW12236  12.807   8.764  10.849
36780SOL    HW112237  12.818   8.809  10.933
36780SOL    HW212238  12.746   8.693  10.868
36781SOL     OW12239  11.928   8.946   5.235
36781SOL    HW112240  11.976   8.955   5.317
36781SOL    HW212241  11.843   8.986   5.252
36782SOL     OW12242   4.631   3.976  12.145
36782SOL    HW112243   4.642   4.041  12.076
36782SOL    HW212244   4.587   4.023  12.216
36783SOL     OW12245   9.874   4.460   6.248
36783SOL    HW112246   9.935   4.531   6.267
36783SOL    HW212247   9.790   4.503   6.237
36784SOL     OW12248  10.819   0.261  14.710
36784SOL    HW112249  10.794   0.286  14.621
36784SOL    HW212250  10.911   0.289  14.717
36785SOL     OW12251   7.969  14.782  12.594
36785SOL    HW112252   7.925  14.698  12.580
36785SOL    HW212253   8.033  14.764  12.663
36786SOL     OW12254   1.533  13.947   7.792
36786SOL    HW112255   1.597  14.017   7.780
36786SOL    HW212256   1.579  13.881   7.843
36787SOL     OW12257   2.912   0.216  13.251
36787SOL    HW112258   3.004   0.227  13.272
36787SOL    HW212259   2.893   0.124  13.272
36788SOL     OW12260   3.153   8.013   4.766
36788SOL    HW112261   3.136   8.106   4.778
36788SOL    HW212262   3.137   7.974   4.852
36789SOL     OW12263  13.449  14.133   5.392
36789SOL    HW112264  13.474  14.107   5.303
36789SOL    HW212265  13.401  14.215   5.381
36790SOL     OW12266   7.672   3.046  12.817
36790SOL    HW112267   7.652   2.956  12.845
36790SOL    HW212268   7.590   3.078  12.780
36791SOL     OW12269   6.306   6.000  10.129
36791SOL    HW112270   6.321   6.068  10.063
36791SOL    HW212271   6.212   5.983  10.125
36792SOL     OW12272  12.248   5.276   4.851
36792SOL    HW112273  12.343   5.269   4.842
36792SOL    HW212274  12.225   5.214   4.920
36793SOL     OW12275   0.402   3.034   1.336
36793SOL    HW112276   0.308   3.043   1.354
36793SOL    HW212277   0.406   2.981   1.256
36794SOL     OW12278   3.639   4.060   8.748
36794SOL    HW112279   3.722   4.021   8.722
36794SOL    HW212280   3.575   3.991   8.735
36795SOL     OW12281   6.363   7.618   9.005
36795SOL    HW112282   6.284   7.634   8.953
36795SOL    HW212283   6.415   7.557   8.953
36796SOL     OW12284  13.841  11.180   2.256
36796SOL    HW112285  13.809  11.270   2.263
36796SOL    HW212286  13.933  11.186   2.281
36797SOL     OW12287  10.519   7.124   3.886
36797SOL    HW112288  10.600   7.073   3.896
36797SOL    HW212289  10.481   7.094   3.804
36798SOL     OW12290   3.365   1.776   3.271
36798SOL    HW112291   3.334   1.856   3.312
36798SOL    HW212292   3.285   1.726   3.252
36799SOL     OW12293   9.425   8.681  14.436
36799SOL    HW112294   9.410   8.743  14.507
36799SOL    HW212295   9.473   8.730  14.370
36800SOL     OW12296   9.727   8.308   8.755
36800SOL    HW112297   9.662   8.269   8.813
36800SOL    HW212298   9.789   8.351   8.814
36801SOL     OW12299   6.279   8.360   5.234
36801SOL    HW112300   6.251   8.447   5.263
36801SOL    HW212301   6.280   8.307   5.314
36802SOL     OW12302   6.616  10.201   5.394
36802SOL    HW112303   6.533  10.216   5.440
36802SOL    HW212304   6.596  10.219   5.302
36803SOL     OW12305  11.587   3.593   5.451
36803SOL    HW112306  11.677   3.574   5.475
36803SOL    HW212307  11.579   3.688   5.458
36804SOL     OW12308   1.119   5.707   3.621
36804SOL    HW112309   1.178   5.768   3.578
36804SOL    HW212310   1.175   5.657   3.681
36805SOL     OW12311   6.961   7.071   0.946
36805SOL    HW112312   6.944   7.011   0.874
36805SOL    HW212313   6.911   7.036   1.019
36806SOL     OW12314  10.652   4.708  13.866
36806SOL    HW112315  10.684   4.709  13.956
36806SOL    HW212316  10.725   4.741  13.813
36807SOL     OW12317   3.149   4.298   8.350
36807SOL    HW112318   3.162   4.231   8.283
36807SOL    HW212319   3.232   4.345   8.354
36808SOL     OW12320   4.479  14.562   5.712
36808SOL    HW112321   4.531  14.600   5.782
36808SOL    HW212322   4.490  14.622   5.638
36809SOL     OW12323   6.276   6.228   1.929
36809SOL    HW112324   6.253   6.228   2.022
36809SOL    HW212325   6.199   6.263   1.885
36810SOL     OW12326   1.820   8.571   9.684
36810SOL    HW112327   1.732   8.579   9.646
36810SOL    HW212328   1.864   8.506   9.630
36811SOL     OW12329   0.672   7.375   4.673
36811SOL    HW112330   0.671   7.388   4.579
36811SOL    HW212331   0.708   7.287   4.685
36812SOL     OW12332  14.016  14.612   8.521
36812SOL    HW112333  14.019  14.609   8.617
36812SOL    HW212334  13.949  14.677   8.501
36813SOL     OW12335   2.265  12.046   9.516
36813SOL    HW112336   2.327  12.024   9.447
36813SOL    HW212337   2.320  12.075   9.589
36814SOL     OW12338   0.502   8.350  10.483
36814SOL    HW112339   0.541   8.288  10.421
36814SOL    HW212340   0.411   8.320  10.493
36815SOL     OW12341   0.738   3.829  14.344
36815SOL    HW112342   0.643   3.824  14.334
36815SOL    HW212343   0.764   3.740  14.369
36816SOL     OW12344  12.060   7.957  13.075
36816SOL    HW112345  12.020   7.956  12.988
36816SOL    HW212346  12.128   7.890  13.071
36817SOL     OW12347   0.569   2.357   0.373
36817SOL    HW112348   0.657   2.388   0.393
36817SOL    HW212349   0.549   2.295   0.444
36818SOL     OW12350   4.888  10.415   3.301
36818SOL    HW112351   4.798  10.403   3.331
36818SOL    HW212352   4.941  10.412   3.381
36819SOL     OW12353   8.943  10.007   5.640
36819SOL    HW112354   9.019   9.962   5.605
36819SOL    HW212355   8.885  10.019   5.565
36820SOL     OW12356   8.420   9.365  11.141
36820SOL    HW112357   8.346   9.362  11.081
36820SOL    HW212358   8.394   9.427  11.210
36821SOL     OW12359   2.713   2.088  12.881
36821SOL    HW112360   2.645   2.044  12.932
36821SOL    HW212361   2.785   2.101  12.942
36822SOL     OW12362   8.231   2.675  14.807
36822SOL    HW112363   8.325   2.658  14.812
36822SOL    HW212364   8.195   2.597  14.764
36823SOL     OW12365   6.641   9.135   5.798
36823SOL    HW112366   6.658   9.193   5.872
36823SOL    HW212367   6.678   9.051   5.825
36824SOL     OW12368   1.971  13.371   0.885
36824SOL    HW112369   1.943  13.462   0.881
36824SOL    HW212370   2.000  13.350   0.796
36825SOL     OW12371   2.416   3.272   3.402
36825SOL    HW112372   2.429   3.188   3.444
36825SOL    HW212373   2.501   3.315   3.407
36826SOL     OW12374   9.511   7.558   3.603
36826SOL    HW112375   9.511   7.621   3.675
36826SOL    HW212376   9.426   7.570   3.560
36827SOL     OW12377   1.450   3.903   2.375
36827SOL    HW112378   1.469   3.810   2.384
36827SOL    HW212379   1.467   3.940   2.462
36828SOL     OW12380   7.605  13.828  13.319
36828SOL    HW112381   7.673  13.895  13.328
36828SOL    HW212382   7.559  13.829  13.403
36829SOL     OW12383  10.448  10.172  10.031
36829SOL    HW112384  10.399  10.102   9.989
36829SOL    HW212385  10.537  10.163   9.996
36830SOL     OW12386   2.926   9.040   8.973
36830SOL    HW112387   2.960   9.060   9.061
36830SOL    HW212388   2.988   9.083   8.914
36831SOL     OW12389   0.582  12.439  14.792
36831SOL    HW112390   0.661  12.396  14.825
36831SOL    HW212391   0.553  12.382  14.720
36832SOL     OW12392   8.053   8.007  14.620
36832SOL    HW112393   8.136   8.020  14.666
36832SOL    HW212394   7.990   8.061  14.667
36833SOL     OW12395  14.655   3.724   3.287
36833SOL    HW112396  14.730   3.688   3.335
36833SOL    HW212397  14.579   3.700   3.341
36834SOL     OW12398   9.952   7.328   5.114
36834SOL    HW112399   9.951   7.289   5.026
36834SOL    HW212400   9.863   7.315   5.146
36835SOL     OW12401   2.908   8.121  12.895
36835SOL    HW112402   2.825   8.130  12.849
36835SOL    HW212403   2.926   8.209  12.929
36836SOL     OW12404   2.223   1.633   3.525
36836SOL    HW112405   2.222   1.716   3.572
36836SOL    HW212406   2.244   1.568   3.592
36837SOL     OW12407   5.401   0.561  11.397
36837SOL    HW112408   5.360   0.556  11.311
36837SOL    HW212409   5.347   0.623  11.446
36838SOL     OW12410   0.021   3.714   9.667
36838SOL    HW112411   0.099   3.767   9.683
36838SOL    HW212412  14.817   3.772   9.686
36839SOL     OW12413   1.182   8.959  14.163
36839SOL    HW112414   1.248   9.028  14.149
36839SOL    HW212415   1.233   8.879  14.170
36840SOL     OW12416   1.058   9.398   5.234
36840SOL    HW112417   1.051   9.307   5.205
36840SOL    HW212418   1.125   9.397   5.301
36841SOL     OW12419   0.006  10.654  10.658
36841SOL    HW112420  14.834  10.738  10.641
36841SOL    HW212421   0.017  10.615  10.571
36842SOL     OW12422   5.030   9.445   2.337
36842SOL    HW112423   4.996   9.384   2.272
36842SOL    HW212424   4.953   9.471   2.388
36843SOL     OW12425   6.489   2.669   7.056
36843SOL    HW112426   6.522   2.661   6.967
36843SOL    HW212427   6.455   2.758   7.062
36844SOL     OW12428   2.018   1.865  12.622
36844SOL    HW112429   2.027   1.894  12.531
36844SOL    HW212430   1.946   1.918  12.656
36845SOL     OW12431  13.538  12.806  13.601
36845SOL    HW112432  13.603  12.870  13.631
36845SOL    HW212433  13.454  12.850  13.614
36846SOL     OW12434  10.583   4.798   3.483
36846SOL    HW112435  10.610   4.738   3.553
36846SOL    HW212436  10.554   4.876   3.530
36847SOL     OW12437   4.239  14.298   1.350
36847SOL    HW112438   4.288  14.338   1.278
36847SOL    HW212439   4.172  14.362   1.372
36848SOL     OW12440   1.134  13.545   1.792
36848SOL    HW112441   1.226  13.571   1.791
36848SOL    HW212442   1.101  13.579   1.875
36849SOL     OW12443   9.337   2.396  13.918
36849SOL    HW112444   9.328   2.311  13.961
36849SOL    HW212445   9.382   2.450  13.983
36850SOL     OW12446  10.913   2.627  11.009
36850SOL    HW112447  10.911   2.531  11.011
36850SOL    HW212448  10.880   2.654  11.094
36851SOL     OW12449   6.867   7.256   3.759
36851SOL    HW112450   6.774   7.275   3.773
36851SOL    HW212451   6.882   7.271   3.666
36852SOL     OW12452   3.718  12.092   1.825
36852SOL    HW112453   3.741  12.117   1.736
36852SOL    HW212454   3.623  12.102   1.830
36853SOL     OW12455   6.146   7.721   0.932
36853SOL    HW112456   6.216   7.655   0.935
36853SOL    HW212457   6.147   7.760   1.020
36854SOL     OW12458   6.606   5.308  10.029
36854SOL    HW112459   6.656   5.385  10.001
36854SOL    HW212460   6.618   5.306  10.124
36855SOL     OW12461   7.179   3.097  12.325
36855SOL    HW112462   7.208   3.178  12.284
36855SOL    HW212463   7.166   3.036  12.253
36856SOL     OW12464   4.237  14.085  10.163
36856SOL    HW112465   4.278  14.133  10.092
36856SOL    HW212466   4.302  14.020  10.190
36857SOL     OW12467  10.954   8.401   0.874
36857SOL    HW112468  10.952   8.485   0.828
36857SOL    HW212469  11.009   8.416   0.951
36858SOL     OW12470  11.027   2.730  12.933
36858SOL    HW112471  10.949   2.786  12.929
36858SOL    HW212472  11.015   2.678  13.012
36859SOL     OW12473   0.248   2.555   8.075
36859SOL    HW112474   0.331   2.512   8.096
36859SOL    HW212475   0.180   2.492   8.101
36860SOL     OW12476   1.188  11.280  13.829
36860SOL    HW112477   1.240  11.312  13.755
36860SOL    HW212478   1.156  11.195  13.800
36861SOL     OW12479   2.841   6.093  11.660
36861SOL    HW112480   2.927   6.104  11.618
36861SOL    HW212481   2.797   6.026  11.608
36862SOL     OW12482   3.244   0.413   7.005
36862SOL    HW112483   3.298   0.434   7.081
36862SOL    HW212484   3.163   0.463   7.019
36863SOL     OW12485   1.345  14.688  11.320
36863SOL    HW112486   1.292  14.703  11.398
36863SOL    HW212487   1.420  14.637  11.351
36864SOL     OW12488   3.666   5.925  10.755
36864SOL    HW112489   3.735   5.906  10.819
36864SOL    HW212490   3.688   5.871  10.679
36865SOL     OW12491   1.026  10.576  11.492
36865SOL    HW112492   0.965  10.615  11.555
36865SOL    HW212493   1.020  10.633  11.415
36866SOL     OW12494  10.016   8.035   7.772
36866SOL    HW112495  10.084   8.080   7.723
36866SOL    HW212496   9.957   8.105   7.801
36867SOL     OW12497   4.223  12.901   4.012
36867SOL    HW112498   4.310  12.884   3.974
36867SOL    HW212499   4.240  12.961   4.085
36868SOL     OW12500  12.664  14.535   4.371
36868SOL    HW112501  12.592  14.482   4.337
36868SOL    HW212502  12.665  14.613   4.315
36869SOL     OW12503  12.934  10.173   6.461
36869SOL    HW112504  12.962  10.228   6.535
36869SOL    HW212505  12.843  10.196   6.447
36870SOL     OW12506   9.547   9.669   6.468
36870SOL    HW112507   9.565   9.677   6.562
36870SOL    HW212508   9.559   9.757   6.433
36871SOL     OW12509   8.798  11.644   1.010
36871SOL    HW112510   8.730  11.588   1.047
36871SOL    HW212511   8.757  11.730   1.002
36872SOL     OW12512  12.530   2.749   6.717
36872SOL    HW112513  12.490   2.662   6.729
36872SOL    HW212514  12.559   2.774   6.805
36873SOL     OW12515  11.299   4.852  12.518
36873SOL    HW112516  11.383   4.808  12.530
36873SOL    HW212517  11.265   4.864  12.607
36874SOL     OW12518   8.816  10.757  12.257
36874SOL    HW112519   8.753  10.808  12.206
36874SOL    HW212520   8.837  10.682  12.201
36875SOL     OW12521   6.252   5.551   0.338
36875SOL    HW112522   6.334   5.600   0.324
36875SOL    HW212523   6.225   5.523   0.251
36876SOL     OW12524   4.033  13.764   9.377
36876SOL    HW112525   4.116  13.726   9.407
36876SOL    HW212526   4.002  13.705   9.308
36877SOL     OW12527  11.605  12.856   9.797
36877SOL    HW112528  11.625  12.792   9.866
36877SOL    HW212529  11.517  12.833   9.768
36878SOL     OW12530   6.701   2.401   2.995
36878SOL    HW112531   6.648   2.463   3.045
36878SOL    HW212532   6.778   2.387   3.051
36879SOL     OW12533   3.135   3.881  13.285
36879SOL    HW112534   3.218   3.927  13.272
36879SOL    HW212535   3.120   3.886  13.380
36880SOL     OW12536   8.185   3.792  11.370
36880SOL    HW112537   8.208   3.710  11.415
36880SOL    HW212538   8.144   3.845  11.438
36881SOL     OW12539   8.959   8.386   9.145
36881SOL    HW112540   8.874   8.428   9.158
36881SOL    HW212541   9.008   8.449   9.092
36882SOL     OW12542   3.574   4.485  11.459
36882SOL    HW112543   3.544   4.478  11.549
36882SOL    HW212544   3.514   4.429  11.409
36883SOL     OW12545  13.620  11.303   7.510
36883SOL    HW112546  13.548  11.337   7.564
36883SOL    HW212547  13.618  11.358   7.431
36884SOL     OW12548   8.904   6.843   1.775
36884SOL    HW112549   8.898   6.865   1.682
36884SOL    HW212550   8.998   6.843   1.794
36885SOL     OW12551  11.426   5.801  14.663
36885SOL    HW112552  11.515   5.770  14.645
36885SOL    HW212553  11.404   5.855  14.587
36886SOL     OW12554   9.547   1.162  13.592
36886SOL    HW112555   9.627   1.161  13.644
36886SOL    HW212556   9.478   1.185  13.655
36887SOL     OW12557   4.833  14.054   2.462
36887SOL    HW112558   4.783  13.978   2.493
36887SOL    HW212559   4.916  14.048   2.508
36888SOL     OW12560   4.212   3.411  12.373
36888SOL    HW112561   4.176   3.323  12.358
36888SOL    HW212562   4.302   3.405  12.342
36889SOL     OW12563   9.545  10.178   4.612
36889SOL    HW112564   9.476  10.227   4.567
36889SOL    HW212565   9.626  10.223   4.586
36890SOL     OW12566   3.106   5.230   1.286
36890SOL    HW112567   3.144   5.146   1.313
36890SOL    HW212568   3.145   5.295   1.345
36891SOL     OW12569  14.522   1.544  13.462
36891SOL    HW112570  14.607   1.547  13.506
36891SOL    HW212571  14.519   1.624  13.410
36892SOL     OW12572   8.647   4.497   3.416
36892SOL    HW112573   8.618   4.406   3.414
36892SOL    HW212574   8.741   4.493   3.398
36893SOL     OW12575   2.050  12.595   1.728
36893SOL    HW112576   2.127  12.627   1.680
36893SOL    HW212577   2.084  12.522   1.780
36894SOL     OW12578  12.009   4.232   6.494
36894SOL    HW112579  12.008   4.154   6.549
36894SOL    HW212580  12.069   4.292   6.537
36895SOL     OW12581   2.112   0.926  14.005
36895SOL    HW112582   2.038   0.883  14.049
36895SOL    HW212583   2.150   0.984  14.071
36896SOL     OW12584  11.010   4.787   7.629
36896SOL    HW112585  11.038   4.875   7.602
36896SOL    HW212586  11.054   4.772   7.713
36897SOL     OW12587   9.704   0.057   8.650
36897SOL    HW112588   9.730   0.037   8.740
36897SOL    HW212589   9.733   0.147   8.636
36898SOL     OW12590   2.187  14.328   8.325
36898SOL    HW112591   2.156  14.262   8.387
36898SOL    HW212592   2.252  14.378   8.374
36899SOL     OW12593  10.795  13.064   5.498
36899SOL    HW112594  10.850  13.082   5.574
36899SOL    HW212595  10.855  13.064   5.424
36900SOL     OW12596  14.255   7.102   6.041
36900SOL    HW112597  14.324   7.104   5.974
36900SOL    HW212598  14.231   7.194   6.053
36901SOL     OW12599  12.137   1.735  10.726
36901SOL    HW112600  12.219   1.685  10.729
36901SOL    HW212601  12.069   1.670  10.740
36902SOL     OW12602   6.457  12.343  11.021
36902SOL    HW112603   6.377  12.295  11.042
36902SOL    HW212604   6.480  12.314  10.932
36903SOL     OW12605  10.682  14.312   0.365
36903SOL    HW112606  10.655  14.352   0.282
36903SOL    HW212607  10.643  14.368   0.432
36904SOL     OW12608   3.826   8.987   1.702
36904SOL    HW112609   3.847   9.026   1.617
36904SOL    HW212610   3.863   9.047   1.766
36905SOL     OW12611   9.050  14.622  13.173
36905SOL    HW112612   9.058  14.604  13.080
36905SOL    HW212613   9.099  14.703  13.187
36906SOL     OW12614   8.961  13.378   2.245
36906SOL    HW112615   8.924  13.365   2.158
36906SOL    HW212616   9.052  13.402   2.230
36907SOL     OW12617   1.788   3.482   3.528
36907SOL    HW112618   1.853   3.549   3.546
36907SOL    HW212619   1.814   3.445   3.444
36908SOL     OW12620   6.493   9.236   8.863
36908SOL    HW112621   6.399   9.225   8.880
36908SOL    HW212622   6.500   9.320   8.818
36909SOL     OW12623   0.434   1.698   2.260
36909SOL    HW112624   0.425   1.793   2.251
36909SOL    HW212625   0.527   1.682   2.247
36910SOL     OW12626   7.139   3.436  14.346
36910SOL    HW112627   7.154   3.341  14.348
36910SOL    HW212628   7.046   3.446  14.366
36911SOL     OW12629   4.467  13.662   2.542
36911SOL    HW112630   4.378  13.637   2.516
36911SOL    HW212631   4.491  13.598   2.609
36912SOL     OW12632   1.209   2.629   1.674
36912SOL    HW112633   1.147   2.569   1.634
36912SOL    HW212634   1.189   2.714   1.635
36913SOL     OW12635   8.430  11.989   7.064
36913SOL    HW112636   8.413  11.903   7.104
36913SOL    HW212637   8.419  12.051   7.136
36914SOL     OW12638  10.502   4.739   2.008
36914SOL    HW112639  10.594   4.763   2.015
36914SOL    HW212640  10.489   4.717   1.916
36915SOL     OW12641  10.881   9.054   6.851
36915SOL    HW112642  10.832   9.128   6.815
36915SOL    HW212643  10.946   9.033   6.783
36916SOL     OW12644   7.589   0.361  12.236
36916SOL    HW112645   7.504   0.405  12.225
36916SOL    HW212646   7.567   0.268  12.241
36917SOL     OW12647   8.716   6.746   3.902
36917SOL    HW112648   8.790   6.724   3.959
36917SOL    HW212649   8.747   6.725   3.814
36918SOL     OW12650   3.376   8.469  13.287
36918SOL    HW112651   3.461   8.472  13.243
36918SOL    HW212652   3.377   8.544  13.347
36919SOL     OW12653   0.735   3.341   9.091
36919SOL    HW112654   0.822   3.321   9.125
36919SOL    HW212655   0.710   3.422   9.135
36920SOL     OW12656  11.946   6.795   5.237
36920SOL    HW112657  12.012   6.862   5.253
36920SOL    HW212658  11.933   6.798   5.142
36921SOL     OW12659  10.792  14.337   1.950
36921SOL    HW112660  10.755  14.382   2.026
36921SOL    HW212661  10.784  14.400   1.878
36922SOL     OW12662  10.244   1.191   3.690
36922SOL    HW112663  10.179   1.162   3.626
36922SOL    HW212664  10.195   1.244   3.753
36923SOL     OW12665  14.230  11.373   1.341
36923SOL    HW112666  14.236  11.465   1.366
36923SOL    HW212667  14.169  11.334   1.404
36924SOL     OW12668  13.730   5.268  10.853
36924SOL    HW112669  13.819   5.235  10.838
36924SOL    HW212670  13.742   5.363  10.863
36925SOL     OW12671   6.783  11.465   9.720
36925SOL    HW112672   6.847  11.442   9.652
36925SOL    HW212673   6.704  11.417   9.696
36926SOL     OW12674  13.673   3.242   7.623
36926SOL    HW112675  13.691   3.150   7.642
36926SOL    HW212676  13.753   3.288   7.650
36927SOL     OW12677   3.534  11.101   9.789
36927SOL    HW112678   3.461  11.120   9.729
36927SOL    HW212679   3.492  11.093   9.875
36928SOL     OW12680   9.850  10.282   9.363
36928SOL    HW112681   9.845  10.359   9.306
36928SOL    HW212682   9.810  10.310   9.445
36929SOL     OW12683   1.572   5.243   4.950
36929SOL    HW112684   1.598   5.168   4.897
36929SOL    HW212685   1.550   5.206   5.036
36930SOL     OW12686   0.239   1.983   9.733
36930SOL    HW112687   0.331   1.956   9.738
36930SOL    HW212688   0.223   2.031   9.814
36931SOL     OW12689  11.842  11.738   4.403
36931SOL    HW112690  11.930  11.706   4.383
36931SOL    HW212691  11.819  11.794   4.329
36932SOL     OW12692   8.650   4.051  14.468
36932SOL    HW112693   8.571   4.022  14.514
36932SOL    HW212694   8.691   3.970  14.438
36933SOL     OW12695  14.779  11.334   9.987
36933SOL    HW112696  14.844  11.393  10.025
36933SOL    HW212697  14.816  11.246   9.999
36934SOL     OW12698   1.261   9.551   7.879
36934SOL    HW112699   1.319   9.609   7.928
36934SOL    HW212700   1.227   9.490   7.944
36935SOL     OW12701  12.437  13.731   8.354
36935SOL    HW112702  12.407  13.774   8.273
36935SOL    HW212703  12.489  13.798   8.398
36936SOL     OW12704   5.453  12.221   0.594
36936SOL    HW112705   5.505  12.262   0.664
36936SOL    HW212706   5.506  12.232   0.515
36937SOL     OW12707   6.408   3.424  13.048
36937SOL    HW112708   6.342   3.482  13.010
36937SOL    HW212709   6.403   3.439  13.142
36938SOL     OW12710  10.955  10.044   8.484
36938SOL    HW112711  11.004  10.060   8.565
36938SOL    HW212712  10.867  10.019   8.513
36939SOL     OW12713   4.277  11.376   4.901
36939SOL    HW112714   4.350  11.321   4.929
36939SOL    HW212715   4.201  11.341   4.947
36940SOL     OW12716   0.989   5.897  12.215
36940SOL    HW112717   1.007   5.988  12.241
36940SOL    HW212718   0.997   5.847  12.296
36941SOL     OW12719   0.800   7.416  10.438
36941SOL    HW112720   0.845   7.471  10.503
36941SOL    HW212721   0.722   7.385  10.483
36942SOL     OW12722   9.228  14.751  10.911
36942SOL    HW112723   9.145  14.759  10.863
36942SOL    HW212724   9.284  14.701  10.852
36943SOL     OW12725   3.491   5.106   7.121
36943SOL    HW112726   3.522   5.132   7.034
36943SOL    HW212727   3.476   5.189   7.167
36944SOL     OW12728  13.303   5.208   9.597
36944SOL    HW112729  13.386   5.222   9.552
36944SOL    HW212730  13.281   5.294   9.633
36945SOL     OW12731   3.520   3.746   0.817
36945SOL    HW112732   3.515   3.651   0.826
36945SOL    HW212733   3.460   3.766   0.746
36946SOL     OW12734   8.853   8.103   4.536
36946SOL    HW112735   8.868   8.181   4.590
36946SOL    HW212736   8.758   8.104   4.520
36947SOL     OW12737   6.635   7.557  14.555
36947SOL    HW112738   6.543   7.580  14.541
36947SOL    HW212739   6.636   7.510  14.638
36948SOL     OW12740   8.298  11.740   0.914
36948SOL    HW112741   8.239  11.668   0.935
36948SOL    HW212742   8.260  11.815   0.961
36949SOL     OW12743  12.640   1.049   5.492
36949SOL    HW112744  12.554   1.009   5.504
36949SOL    HW212745  12.635   1.091   5.406
36950SOL     OW12746   6.646   4.368   8.318
36950SOL    HW112747   6.552   4.386   8.320
36950SOL    HW212748   6.653   4.274   8.335
36951SOL     OW12749   5.975   2.846  10.017
36951SOL    HW112750   6.067   2.823  10.006
36951SOL    HW212751   5.977   2.928  10.067
36952SOL     OW12752   8.140  13.829   2.454
36952SOL    HW112753   8.109  13.803   2.540
36952SOL    HW212754   8.166  13.920   2.463
36953SOL     OW12755  11.040  11.470   1.405
36953SOL    HW112756  11.018  11.564   1.402
36953SOL    HW212757  11.116  11.465   1.462
36954SOL     OW12758   2.857   3.363   6.644
36954SOL    HW112759   2.847   3.400   6.732
36954SOL    HW212760   2.938   3.311   6.649
36955SOL     OW12761   6.370  11.534  12.825
36955SOL    HW112762   6.413  11.452  12.847
36955SOL    HW212763   6.396  11.553  12.735
36956SOL     OW12764   7.474   8.792  10.951
36956SOL    HW112765   7.474   8.819  11.043
36956SOL    HW212766   7.382   8.787  10.928
36957SOL     OW12767  14.259   1.915   5.969
36957SOL    HW112768  14.165   1.922   5.957
36957SOL    HW212769  14.292   1.888   5.883
36958SOL     OW12770   6.649   3.065   7.115
36958SOL    HW112771   6.739   3.033   7.108
36958SOL    HW212772   6.618   3.031   7.198
36959SOL     OW12773  12.215  10.849  11.405
36959SOL    HW112774  12.162  10.769  11.399
36959SOL    HW212775  12.301  10.822  11.373
36960SOL     OW12776   6.361   9.300   6.485
36960SOL    HW112777   6.317   9.373   6.440
36960SOL    HW212778   6.430   9.273   6.424
36961SOL     OW12779   6.448   5.731   0.226
36961SOL    HW112780   6.528   5.734   0.174
36961SOL    HW212781   6.447   5.814   0.273
36962SOL     OW12782   0.763   2.860   9.302
36962SOL    HW112783   0.705   2.784   9.302
36962SOL    HW212784   0.707   2.932   9.332
36963SOL     OW12785   0.248  13.567   7.562
36963SOL    HW112786   0.332  13.526   7.579
36963SOL    HW212787   0.189  13.532   7.629
36964SOL     OW12788   3.729  10.313   1.800
36964SOL    HW112789   3.740  10.321   1.895
36964SOL    HW212790   3.800  10.254   1.773
36965SOL     OW12791  13.138   9.717   4.711
36965SOL    HW112792  13.199   9.741   4.781
36965SOL    HW212793  13.063   9.680   4.757
36966SOL     OW12794  10.882  11.270  12.511
36966SOL    HW112795  10.898  11.306  12.423
36966SOL    HW212796  10.890  11.175  12.500
36967SOL     OW12797   2.753   1.684   1.128
36967SOL    HW112798   2.734   1.615   1.064
36967SOL    HW212799   2.826   1.648   1.180
36968SOL     OW12800   8.120   4.847   6.715
36968SOL    HW112801   8.136   4.755   6.736
36968SOL    HW212802   8.182   4.867   6.645
36969SOL     OW12803  14.281  13.487   7.483
36969SOL    HW112804  14.248  13.398   7.465
36969SOL    HW212805  14.331  13.510   7.405
36970SOL     OW12806  13.765   9.626   0.890
36970SOL    HW112807  13.746   9.675   0.809
36970SOL    HW212808  13.782   9.694   0.955
36971SOL     OW12809  11.730  11.961   2.521
36971SOL    HW112810  11.652  12.003   2.558
36971SOL    HW212811  11.732  11.991   2.430
36972SOL     OW12812  10.302   8.916  14.025
36972SOL    HW112813  10.262   8.933  14.110
36972SOL    HW212814  10.297   8.821  14.015
36973SOL     OW12815   2.240   9.480   4.754
36973SOL    HW112816   2.204   9.557   4.799
36973SOL    HW212817   2.202   9.405   4.800
36974SOL     OW12818  11.961   6.536   6.702
36974SOL    HW112819  11.893   6.599   6.728
36974SOL    HW212820  11.942   6.518   6.610
36975SOL     OW12821   2.399  13.867  12.833
36975SOL    HW112822   2.374  13.817  12.755
36975SOL    HW212823   2.444  13.803  12.888
36976SOL     OW12824   1.606   6.961  10.396
36976SOL    HW112825   1.583   7.005  10.314
36976SOL    HW212826   1.700   6.977  10.406
36977SOL     OW12827   7.494  11.025   0.552
36977SOL    HW112828   7.434  11.048   0.481
36977SOL    HW212829   7.516  10.933   0.536
36978SOL     OW12830  10.210   3.018   5.870
36978SOL    HW112831  10.195   3.049   5.780
36978SOL    HW212832  10.280   3.074   5.903
36979SOL     OW12833  10.269  13.265  14.159
36979SOL    HW112834  10.352  13.252  14.114
36979SOL    HW212835  10.276  13.212  14.239
36980SOL     OW12836   5.364   6.069   3.091
36980SOL    HW112837   5.397   6.029   3.172
36980SOL    HW212838   5.428   6.137   3.071
36981SOL     OW12839   0.018   5.791  14.243
36981SOL    HW112840  14.842   5.776  14.160
36981SOL    HW212841  14.838   5.739  14.307
36982SOL     OW12842  11.488  14.226   8.108
36982SOL    HW112843  11.403  14.268   8.101
36982SOL    HW212844  11.469  14.132   8.114
36983SOL     OW12845  12.396   0.554   1.715
36983SOL    HW112846  12.331   0.527   1.650
36983SOL    HW212847  12.480   0.527   1.677
36984SOL     OW12848   0.121   9.639   4.699
36984SOL    HW112849   0.059   9.692   4.750
36984SOL    HW212850   0.131   9.559   4.750
36985SOL     OW12851   6.246   9.682  13.401
36985SOL    HW112852   6.208   9.741  13.336
36985SOL    HW212853   6.220   9.720  13.485
36986SOL     OW12854   8.231   0.238  14.102
36986SOL    HW112855   8.207   0.171  14.037
36986SOL    HW212856   8.327   0.231  14.109
36987SOL     OW12857  14.658  12.263  14.548
36987SOL    HW112858  14.600  12.275  14.472
36987SOL    HW212859  14.740  12.231  14.510
36988SOL     OW12860   6.053   0.609   0.202
36988SOL    HW112861   6.113   0.666   0.154
36988SOL    HW212862   5.996   0.670   0.250
36989SOL     OW12863   9.773   0.118   5.925
36989SOL    HW112864   9.701   0.055   5.924
36989SOL    HW212865   9.778   0.149   6.015
36990SOL     OW12866   4.207   5.845   1.453
36990SOL    HW112867   4.255   5.792   1.389
36990SOL    HW212868   4.164   5.912   1.400
36991SOL     OW12869   1.683   0.090   0.720
36991SOL    HW112870   1.749   0.065   0.785
36991SOL    HW212871   1.676   0.185   0.729
36992SOL     OW12872  12.152   1.978  10.875
36992SOL    HW112873  12.223   2.028  10.834
36992SOL    HW212874  12.160   1.890  10.837
36993SOL     OW12875   2.346   6.241   1.555
36993SOL    HW112876   2.282   6.195   1.609
36993SOL    HW212877   2.313   6.230   1.465
36994SOL     OW12878   8.131  10.632   3.197
36994SOL    HW112879   8.115  10.676   3.281
36994SOL    HW212880   8.160  10.544   3.222
36995SOL     OW12881   9.851   7.286   9.722
36995SOL    HW112882   9.909   7.210   9.728
36995SOL    HW212883   9.848   7.305   9.628
36996SOL     OW12884   3.568  13.969   5.209
36996SOL    HW112885   3.547  14.062   5.217
36996SOL    HW212886   3.485  13.924   5.223
36997SOL     OW12887   3.789   1.378  10.439
36997SOL    HW112888   3.769   1.419  10.355
36997SOL    HW212889   3.814   1.289  10.416
36998SOL     OW12890  13.925   4.443  11.376
36998SOL    HW112891  13.949   4.359  11.415
36998SOL    HW212892  13.898   4.497  11.451
36999SOL     OW12893  14.299  13.563   5.081
36999SOL    HW112894  14.312  13.634   5.144
36999SOL    HW212895  14.211  13.576   5.047
37000SOL     OW12896   3.195   6.664   5.140
37000SOL    HW112897   3.255   6.618   5.198
37000SOL    HW212898   3.249   6.694   5.067
37001SOL     OW12899   4.757  13.607   7.333
37001SOL    HW112900   4.729  13.566   7.415
37001SOL    HW212901   4.694  13.576   7.268
37002SOL     OW12902   0.226  13.398   8.031
37002SOL    HW112903   0.211  13.404   7.936
37002SOL    HW212904   0.320  13.411   8.042
37003SOL     OW12905  11.717   9.644   4.176
37003SOL    HW112906  11.638   9.593   4.195
37003SOL    HW212907  11.737   9.623   4.085
37004SOL     OW12908   5.317   9.282  14.696
37004SOL    HW112909   5.395   9.321  14.657
37004SOL    HW212910   5.327   9.188  14.680
37005SOL     OW12911   6.071  10.299   0.672
37005SOL    HW112912   6.022  10.312   0.753
37005SOL    HW212913   6.030  10.223   0.631
37006SOL     OW12914   1.177   3.986   4.888
37006SOL    HW112915   1.253   4.034   4.857
37006SOL    HW212916   1.201   3.955   4.975
37007SOL     OW12917  10.915   7.076  10.913
37007SOL    HW112918  10.869   6.992  10.922
37007SOL    HW212919  10.980   7.076  10.983
37008SOL     OW12920   3.645  12.606   9.335
37008SOL    HW112921   3.677  12.640   9.251
37008SOL    HW212922   3.710  12.636   9.399
37009SOL     OW12923   6.545  12.672   5.042
37009SOL    HW112924   6.497  12.714   4.971
37009SOL    HW212925   6.599  12.607   4.999
37010SOL     OW12926  13.079   7.735   7.681
37010SOL    HW112927  12.996   7.728   7.635
37010SOL    HW212928  13.086   7.828   7.703
37011SOL     OW12929   2.201   9.029  13.144
37011SOL    HW112930   2.178   9.035  13.237
37011SOL    HW212931   2.117   9.011  13.101
37012SOL     OW12932   2.424   3.105   4.776
37012SOL    HW112933   2.520   3.099   4.776
37012SOL    HW212934   2.405   3.183   4.827
37013SOL     OW12935   6.624   3.107   5.431
37013SOL    HW112936   6.569   3.106   5.353
37013SOL    HW212937   6.562   3.112   5.504
37014SOL     OW12938  10.338   4.721   8.852
37014SOL    HW112939  10.302   4.761   8.774
37014SOL    HW212940  10.427   4.695   8.828
37015SOL     OW12941   5.081   7.076  13.395
37015SOL    HW112942   5.054   7.164  13.421
37015SOL    HW212943   5.099   7.031  13.478
37016SOL     OW12944   6.056  13.801   4.203
37016SOL    HW112945   6.082  13.720   4.246
37016SOL    HW212946   6.043  13.776   4.111
37017SOL     OW12947   5.587  13.935  13.607
37017SOL    HW112948   5.662  13.894  13.565
37017SOL    HW212949   5.625  13.990  13.675
37018SOL     OW12950  10.872   1.607  14.763
37018SOL    HW112951  10.939   1.539  14.765
37018SOL    HW212952  10.917   1.686  14.734
37019SOL     OW12953   5.691   5.140   7.462
37019SOL    HW112954   5.781   5.107   7.460
37019SOL    HW212955   5.687   5.201   7.388
37020SOL     OW12956   1.631   3.434   0.470
37020SOL    HW112957   1.697   3.416   0.537
37020SOL    HW212958   1.677   3.418   0.387
37021SOL     OW12959   1.603   8.390   3.092
37021SOL    HW112960   1.551   8.311   3.078
37021SOL    HW212961   1.545   8.448   3.143
37022SOL     OW12962   5.921   7.250  10.872
37022SOL    HW112963   5.865   7.262  10.795
37022SOL    HW212964   5.862   7.213  10.938
37023SOL     OW12965   3.638   7.470   7.072
37023SOL    HW112966   3.727   7.488   7.042
37023SOL    HW212967   3.595   7.555   7.068
37024SOL     OW12968   9.486  10.012  11.167
37024SOL    HW112969   9.558   9.956  11.138
37024SOL    HW212970   9.524  10.100  11.170
37025SOL     OW12971  12.559  12.072   1.848
37025SOL    HW112972  12.554  11.990   1.899
37025SOL    HW212973  12.476  12.076   1.801
37026SOL     OW12974   0.940   1.460  13.340
37026SOL    HW112975   1.029   1.465  13.306
37026SOL    HW212976   0.896   1.538  13.304
37027SOL     OW12977   9.180  11.172  13.180
37027SOL    HW112978   9.198  11.208  13.267
37027SOL    HW212979   9.259  11.123  13.158
37028SOL     OW12980  13.556   3.982   7.669
37028SOL    HW112981  13.623   3.948   7.728
37028SOL    HW212982  13.555   3.920   7.596
37029SOL     OW12983   4.608   2.180   6.532
37029SOL    HW112984   4.639   2.160   6.444
37029SOL    HW212985   4.654   2.261   6.555
37030SOL     OW12986  11.051   7.267  14.168
37030SOL    HW112987  10.981   7.332  14.164
37030SOL    HW212988  11.049   7.224  14.082
37031SOL     OW12989  14.443  12.367  13.431
37031SOL    HW112990  14.515  12.423  13.403
37031SOL    HW212991  14.414  12.324  13.350
37032SOL     OW12992   2.193   7.244  13.062
37032SOL    HW112993   2.268   7.217  13.115
37032SOL    HW212994   2.123   7.185  13.089
37033SOL     OW12995  10.482   8.404  14.082
37033SOL    HW112996  10.541   8.328  14.075
37033SOL    HW212997  10.540   8.477  14.103
37034SOL     OW12998  12.933   3.793   2.914
37034SOL    HW112999  12.950   3.729   2.983
37034SOL    HW213000  12.962   3.750   2.834
37035SOL     OW13001   4.644   8.960  11.113
37035SOL    HW113002   4.672   8.902  11.183
37035SOL    HW213003   4.605   8.902  11.047
37036SOL     OW13004   1.221   3.102   9.184
37036SOL    HW113005   1.309   3.074   9.211
37036SOL    HW213006   1.210   3.066   9.096
37037SOL     OW13007   7.523  11.996   4.328
37037SOL    HW113008   7.618  12.003   4.329
37037SOL    HW213009   7.498  11.998   4.420
37038SOL     OW13010   4.141   5.799   4.309
37038SOL    HW113011   4.129   5.814   4.403
37038SOL    HW213012   4.112   5.881   4.268
37039SOL     OW13013   8.877   1.458   8.912
37039SOL    HW113014   8.799   1.510   8.933
37039SOL    HW213015   8.907   1.423   8.995
37040SOL     OW13016  10.696  10.042   7.601
37040SOL    HW113017  10.647   9.960   7.605
37040SOL    HW213018  10.691  10.079   7.689
37041SOL     OW13019   6.954  13.636   9.533
37041SOL    HW113020   6.938  13.642   9.627
37041SOL    HW213021   6.988  13.721   9.508
37042SOL     OW13022   0.091   1.844   8.631
37042SOL    HW113023   0.051   1.793   8.561
37042SOL    HW213024   0.031   1.917   8.645
37043SOL     OW13025  12.890  11.918   7.852
37043SOL    HW113026  12.897  11.860   7.928
37043SOL    HW213027  12.970  11.901   7.802
37044SOL     OW13028   2.978   2.974   8.682
37044SOL    HW113029   2.887   2.944   8.671
37044SOL    HW213030   3.006   2.935   8.765
37045SOL     OW13031   7.554  12.512   6.812
37045SOL    HW113032   7.566  12.465   6.729
37045SOL    HW213033   7.643  12.530   6.842
37046SOL     OW13034   1.453   9.641   1.632
37046SOL    HW113035   1.494   9.675   1.711
37046SOL    HW213036   1.423   9.553   1.656
37047SOL     OW13037   6.029  12.914   7.422
37047SOL    HW113038   6.007  12.826   7.454
37047SOL    HW213039   6.125  12.915   7.419
37048SOL     OW13040   7.758  10.039  14.541
37048SOL    HW113041   7.834  10.018  14.595
37048SOL    HW213042   7.734  10.128  14.566
37049SOL     OW13043   5.358  10.611   5.192
37049SOL    HW113044   5.390  10.661   5.118
37049SOL    HW213045   5.262  10.619   5.186
37050SOL     OW13046   2.497   9.610   5.397
37050SOL    HW113047   2.492   9.524   5.357
37050SOL    HW213048   2.419   9.616   5.453
37051SOL     OW13049  12.569  13.047   0.181
37051SOL    HW113050  12.584  13.121   0.239
37051SOL    HW213051  12.479  13.019   0.200
37052SOL     OW13052   5.328  12.133  10.755
37052SOL    HW113053   5.322  12.053  10.806
37052SOL    HW213054   5.414  12.169  10.778
37053SOL     OW13055   0.716  10.149   0.799
37053SOL    HW113056   0.650  10.153   0.730
37053SOL    HW213057   0.684  10.081   0.859
37054SOL     OW13058   5.541   2.971  11.502
37054SOL    HW113059   5.598   2.966  11.426
37054SOL    HW213060   5.465   3.021  11.471
37055SOL     OW13061   8.539   7.850   9.559
37055SOL    HW113062   8.556   7.759   9.532
37055SOL    HW213063   8.486   7.842   9.639
37056SOL     OW13064   8.236   4.799  10.498
37056SOL    HW113065   8.198   4.720  10.535
37056SOL    HW213066   8.178   4.823  10.426
37057SOL     OW13067   5.380   1.848   7.003
37057SOL    HW113068   5.418   1.760   6.997
37057SOL    HW213069   5.297   1.841   6.956
37058SOL     OW13070  10.301   7.534   1.287
37058SOL    HW113071  10.334   7.596   1.352
37058SOL    HW213072  10.207   7.530   1.303
37059SOL     OW13073  11.312   6.136   1.867
37059SOL    HW113074  11.264   6.183   1.799
37059SOL    HW213075  11.313   6.045   1.837
37060SOL     OW13076   6.614   0.984   2.214
37060SOL    HW113077   6.627   1.009   2.122
37060SOL    HW213078   6.696   0.941   2.238
37061SOL     OW13079   5.296   9.182   6.190
37061SOL    HW113080   5.255   9.106   6.148
37061SOL    HW213081   5.340   9.227   6.118
37062SOL     OW13082   7.519   9.593  12.414
37062SOL    HW113083   7.462   9.608  12.489
37062SOL    HW213084   7.599   9.557  12.451
37063SOL     OW13085   6.671   6.644   0.002
37063SOL    HW113086   6.615   6.701   0.055
37063SOL    HW213087   6.617   6.620  14.797
37064SOL     OW13088  11.172   6.063   6.941
37064SOL    HW113089  11.247   6.078   6.999
37064SOL    HW213090  11.112   6.135   6.960
37065SOL     OW13091   2.635  14.031   3.505
37065SOL    HW113092   2.561  13.972   3.520
37065SOL    HW213093   2.711  13.979   3.530
37066SOL     OW13094   2.065   4.475   2.638
37066SOL    HW113095   1.995   4.416   2.610
37066SOL    HW213096   2.143   4.419   2.641
37067SOL     OW13097  10.466  13.698   3.731
37067SOL    HW113098  10.511  13.730   3.809
37067SOL    HW213099  10.537  13.670   3.673
37068SOL     OW13100  12.215   3.678   2.072
37068SOL    HW113101  12.290   3.728   2.040
37068SOL    HW213102  12.163   3.741   2.121
37069SOL     OW13103   0.848   9.523   1.399
37069SOL    HW113104   0.769   9.577   1.398
37069SOL    HW213105   0.903   9.560   1.329
37070SOL     OW13106   1.699  12.819   7.755
37070SOL    HW113107   1.687  12.782   7.667
37070SOL    HW213108   1.628  12.781   7.807
37071SOL     OW13109   2.012  12.734   9.166
37071SOL    HW113110   1.981  12.751   9.076
37071SOL    HW213111   1.937  12.694   9.210
37072SOL     OW13112  12.416   1.519   3.716
37072SOL    HW113113  12.339   1.574   3.698
37072SOL    HW213114  12.466   1.569   3.781
37073SOL     OW13115   2.566  11.581   4.596
37073SOL    HW113116   2.575  11.628   4.679
37073SOL    HW213117   2.630  11.510   4.601
37074SOL     OW13118  10.809   6.415  13.973
37074SOL    HW113119  10.840   6.347  14.032
37074SOL    HW213120  10.852   6.495  14.003
37075SOL     OW13121   9.718   5.277  13.214
37075SOL    HW113122   9.755   5.257  13.300
37075SOL    HW213123   9.795   5.296  13.159
37076SOL     OW13124  10.691  11.940   4.209
37076SOL    HW113125  10.604  11.979   4.211
37076SOL    HW213126  10.745  12.005   4.163
37077SOL     OW13127   1.298   4.491   2.287
37077SOL    HW113128   1.255   4.524   2.207
37077SOL    HW213129   1.351   4.565   2.317
37078SOL     OW13130   0.308  11.092  10.584
37078SOL    HW113131   0.377  11.098  10.518
37078SOL    HW213132   0.338  11.149  10.655
37079SOL     OW13133   7.565   4.514   9.911
37079SOL    HW113134   7.594   4.580   9.848
37079SOL    HW213135   7.544   4.565   9.990
37080SOL     OW13136   5.440   6.052   4.324
37080SOL    HW113137   5.465   5.960   4.337
37080SOL    HW213138   5.375   6.048   4.254
37081SOL     OW13139   5.865   6.806   7.976
37081SOL    HW113140   5.893   6.864   8.046
37081SOL    HW213141   5.808   6.859   7.921
37082SOL     OW13142  12.971   5.048   3.536
37082SOL    HW113143  12.908   4.982   3.505
37082SOL    HW213144  13.053   5.024   3.494
37083SOL     OW13145   0.907  13.886   5.339
37083SOL    HW113146   0.901  13.964   5.394
37083SOL    HW213147   0.817  13.867   5.315
37084SOL     OW13148   2.608   6.548   1.633
37084SOL    HW113149   2.654   6.597   1.565
37084SOL    HW213150   2.536   6.505   1.586
37085SOL     OW13151   4.518   8.720   4.103
37085SOL    HW113152   4.489   8.635   4.135
37085SOL    HW213153   4.538   8.705   4.010
37086SOL     OW13154   7.990   3.304   9.948
37086SOL    HW113155   8.012   3.390   9.912
37086SOL    HW213156   7.974   3.249   9.872
37087SOL     OW13157  11.038  11.197   6.661
37087SOL    HW113158  11.046  11.103   6.671
37087SOL    HW213159  11.128  11.229   6.658
37088SOL     OW13160   9.435   0.776   8.521
37088SOL    HW113161   9.443   0.769   8.616
37088SOL    HW213162   9.392   0.861   8.507
37089SOL     OW13163   2.154  11.466   5.590
37089SOL    HW113164   2.111  11.392   5.548
37089SOL    HW213165   2.234  11.430   5.627
37090SOL     OW13166  14.457   5.578  12.870
37090SOL    HW113167  14.385   5.608  12.925
37090SOL    HW213168  14.479   5.654  12.815
37091SOL     OW13169   7.701  12.322   0.696
37091SOL    HW113170   7.710  12.298   0.788
37091SOL    HW213171   7.607  12.330   0.683
37092SOL     OW13172  12.964   5.529   4.130
37092SOL    HW113173  13.052   5.534   4.168
37092SOL    HW213174  12.913   5.480   4.194
37093SOL     OW13175   3.690   9.455   4.646
37093SOL    HW113176   3.612   9.404   4.665
37093SOL    HW213177   3.751   9.393   4.607
37094SOL     OW13178   1.417  13.790   4.617
37094SOL    HW113179   1.379  13.757   4.699
37094SOL    HW213180   1.493  13.841   4.645
37095SOL     OW13181  11.385  14.065   9.934
37095SOL    HW113182  11.364  13.971   9.936
37095SOL    HW213183  11.312  14.106   9.981
37096SOL     OW13184   8.171   0.627   4.793
37096SOL    HW113185   8.257   0.601   4.826
37096SOL    HW213186   8.113   0.554   4.815
37097SOL     OW13187  12.689   9.865   8.787
37097SOL    HW113188  12.760   9.847   8.726
37097SOL    HW213189  12.658   9.953   8.763
37098SOL     OW13190  11.562   4.510  13.992
37098SOL    HW113191  11.574   4.544  13.903
37098SOL    HW213192  11.469   4.487  13.996
37099SOL     OW13193  11.655   9.915   9.483
37099SOL    HW113194  11.720   9.855   9.446
37099SOL    HW213195  11.571   9.871   9.471
37100SOL     OW13196   1.282   4.930  11.537
37100SOL    HW113197   1.321   4.897  11.457
37100SOL    HW213198   1.346   4.909  11.606
37101SOL     OW13199   6.793  11.024   2.169
37101SOL    HW113200   6.811  11.099   2.113
37101SOL    HW213201   6.789  11.060   2.258
37102SOL     OW13202   4.409   3.184  10.468
37102SOL    HW113203   4.325   3.188  10.422
37102SOL    HW213204   4.475   3.196  10.399
37103SOL     OW13205   6.407   0.377   0.161
37103SOL    HW113206   6.365   0.399   0.078
37103SOL    HW213207   6.372   0.292   0.185
37104SOL     OW13208   2.805  14.697  11.032
37104SOL    HW113209   2.764  14.647  11.104
37104SOL    HW213210   2.766  14.660  10.953
37105SOL     OW13211  12.537   9.515   4.246
37105SOL    HW113212  12.556   9.595   4.296
37105SOL    HW213213  12.545   9.542   4.154
37106SOL     OW13214   6.936   5.113   1.811
37106SOL    HW113215   6.923   5.083   1.901
37106SOL    HW213216   7.014   5.066   1.781
37107SOL     OW13217  13.649   4.211   4.993
37107SOL    HW113218  13.564   4.180   4.962
37107SOL    HW213219  13.633   4.302   5.018
37108SOL     OW13220  13.238   0.211  12.744
37108SOL    HW113221  13.303   0.253  12.800
37108SOL    HW213222  13.288   0.153  12.688
37109SOL     OW13223  12.968   4.800   2.148
37109SOL    HW113224  13.033   4.827   2.083
37109SOL    HW213225  12.888   4.845   2.122
37110SOL     OW13226   9.324  13.677   1.054
37110SOL    HW113227   9.375  13.597   1.063
37110SOL    HW213228   9.379  13.746   1.093
37111SOL     OW13229   7.536   4.276   7.256
37111SOL    HW113230   7.607   4.278   7.193
37111SOL    HW213231   7.460   4.308   7.207
37112SOL     OW13232  11.409  10.179   6.418
37112SOL    HW113233  11.324  10.162   6.377
37112SOL    HW213234  11.388  10.217   6.503
37113SOL     OW13235   3.940  12.049   2.839
37113SOL    HW113236   3.957  11.960   2.807
37113SOL    HW213237   3.872  12.038   2.905
37114SOL     OW13238   9.187  12.424  10.837
37114SOL    HW113239   9.134  12.346  10.822
37114SOL    HW213240   9.124  12.497  10.834
37115SOL     OW13241  11.093  13.349  11.435
37115SOL    HW113242  11.165  13.378  11.379
37115SOL    HW213243  11.021  13.409  11.414
37116SOL     OW13244  14.830  10.853   4.763
37116SOL    HW113245  14.791  10.936   4.739
37116SOL    HW213246   0.047  10.854   4.721
37117SOL     OW13247   4.298   7.715   4.117
37117SOL    HW113248   4.256   7.798   4.094
37117SOL    HW213249   4.234   7.669   4.171
37118SOL     OW13250   6.100   9.320  13.044
37118SOL    HW113251   6.195   9.309  13.043
37118SOL    HW213252   6.074   9.317  12.952
37119SOL     OW13253  11.563   9.135   2.014
37119SOL    HW113254  11.629   9.156   2.081
37119SOL    HW213255  11.488   9.189   2.036
37120SOL     OW13256  12.468  10.559   7.695
37120SOL    HW113257  12.492  10.466   7.700
37120SOL    HW213258  12.377  10.559   7.665
37121SOL     OW13259   3.341  14.352   6.975
37121SOL    HW113260   3.343  14.413   7.049
37121SOL    HW213261   3.402  14.388   6.912
37122SOL     OW13262   0.715   1.603   2.271
37122SOL    HW113263   0.685   1.529   2.219
37122SOL    HW213264   0.795   1.573   2.313
37123SOL     OW13265  13.139  11.858  12.578
37123SOL    HW113266  13.154  11.805  12.500
37123SOL    HW213267  13.227  11.884  12.606
37124SOL     OW13268   9.068   0.290  10.045
37124SOL    HW113269   9.063   0.257  10.135
37124SOL    HW213270   9.107   0.377  10.053
37125SOL     OW13271   9.760  14.640   5.831
37125SOL    HW113272   9.836  14.686   5.865
37125SOL    HW213273   9.750  14.674   5.742
37126SOL     OW13274   6.361   1.972   3.830
37126SOL    HW113275   6.282   2.011   3.867
37126SOL    HW213276   6.427   2.041   3.836
37127SOL     OW13277  11.682   8.793  12.135
37127SOL    HW113278  11.643   8.739  12.066
37127SOL    HW213279  11.664   8.745  12.216
37128SOL     OW13280   4.349   1.730   3.565
37128SOL    HW113281   4.344   1.655   3.505
37128SOL    HW213282   4.440   1.759   3.559
37129SOL     OW13283   2.103   7.971   0.594
37129SOL    HW113284   2.026   7.923   0.564
37129SOL    HW213285   2.143   8.004   0.513
37130SOL     OW13286   8.277   5.269   6.294
37130SOL    HW113287   8.321   5.199   6.247
37130SOL    HW213288   8.184   5.244   6.292
37131SOL     OW13289   5.692   1.985   9.824
37131SOL    HW113290   5.701   1.908   9.768
37131SOL    HW213291   5.629   2.041   9.779
37132SOL     OW13292   4.883   0.794   4.924
37132SOL    HW113293   4.933   0.874   4.910
37132SOL    HW213294   4.800   0.809   4.878
37133SOL     OW13295  14.319   7.948   0.336
37133SOL    HW113296  14.233   7.983   0.314
37133SOL    HW213297  14.362   8.017   0.385
37134SOL     OW13298   4.769   4.433   9.750
37134SOL    HW113299   4.773   4.420   9.656
37134SOL    HW213300   4.796   4.524   9.763
37135SOL     OW13301   2.532  10.872   6.123
37135SOL    HW113302   2.442  10.904   6.114
37135SOL    HW213303   2.571  10.930   6.188
37136SOL     OW13304   2.847   0.910   2.758
37136SOL    HW113305   2.890   0.898   2.674
37136SOL    HW213306   2.818   1.002   2.756
37137SOL     OW13307   6.483  11.470   4.061
37137SOL    HW113308   6.396  11.463   4.022
37137SOL    HW213309   6.491  11.393   4.116
37138SOL     OW13310   0.981  13.672   5.844
37138SOL    HW113311   1.071  13.668   5.878
37138SOL    HW213312   0.962  13.582   5.817
37139SOL     OW13313  13.512   9.225  12.711
37139SOL    HW113314  13.419   9.221  12.734
37139SOL    HW213315  13.558   9.218  12.795
37140SOL     OW13316   8.194   0.215  12.950
37140SOL    HW113317   8.214   0.294  12.899
37140SOL    HW213318   8.276   0.167  12.952
37141SOL     OW13319  13.291  14.181   6.189
37141SOL    HW113320  13.252  14.105   6.147
37141SOL    HW213321  13.240  14.255   6.158
37142SOL     OW13322   3.436  12.589   0.301
37142SOL    HW113323   3.374  12.662   0.297
37142SOL    HW213324   3.438  12.564   0.394
37143SOL     OW13325  12.942  14.154   5.044
37143SOL    HW113326  12.994  14.209   4.985
37143SOL    HW213327  13.003  14.087   5.075
37144SOL     OW13328   6.534   3.307   1.189
37144SOL    HW113329   6.538   3.372   1.259
37144SOL    HW213330   6.513   3.225   1.234
37145SOL     OW13331   9.987   2.233   9.309
37145SOL    HW113332  10.064   2.240   9.365
37145SOL    HW213333   9.945   2.151   9.335
37146SOL     OW13334   6.595   1.060   6.041
37146SOL    HW113335   6.510   1.050   6.083
37146SOL    HW213336   6.653   1.002   6.091
37147SOL     OW13337   0.311  12.779   6.205
37147SOL    HW113338   0.296  12.693   6.244
37147SOL    HW213339   0.404  12.796   6.221
37148SOL     OW13340  11.187   2.471  14.293
37148SOL    HW113341  11.222   2.559  14.304
37148SOL    HW213342  11.246   2.430  14.230
37149SOL     OW13343  13.195   7.239   0.803
37149SOL    HW113344  13.102   7.258   0.789
37149SOL    HW213345  13.195   7.159   0.856
37150SOL     OW13346   1.178   8.054   5.738
37150SOL    HW113347   1.142   7.988   5.680
37150SOL    HW213348   1.112   8.065   5.806
37151SOL     OW13349   1.013   0.273  10.203
37151SOL    HW113350   1.053   0.323  10.131
37151SOL    HW213351   0.920   0.292  10.197
37152SOL     OW13352   1.801   9.325   9.174
37152SOL    HW113353   1.722   9.351   9.127
37152SOL    HW213354   1.865   9.306   9.106
37153SOL     OW13355  14.586  10.690   0.240
37153SOL    HW113356  14.515  10.626   0.245
37153SOL    HW213357  14.542  10.772   0.216
37154SOL     OW13358  13.648  13.896  13.805
37154SOL    HW113359  13.619  13.807  13.784
37154SOL    HW213360  13.710  13.918  13.736
37155SOL     OW13361  13.632   5.993   4.365
37155SOL    HW113362  13.721   6.014   4.338
37155SOL    HW213363  13.586   6.077   4.363
37156SOL     OW13364   1.424   5.377   4.788
37156SOL    HW113365   1.495   5.345   4.844
37156SOL    HW213366   1.381   5.297   4.757
37157SOL     OW13367   5.148   9.924  14.501
37157SOL    HW113368   5.070   9.869  14.495
37157SOL    HW213369   5.197   9.906  14.421
37158SOL     OW13370  10.492  11.597   2.330
37158SOL    HW113371  10.578  11.626   2.300
37158SOL    HW213372  10.443  11.679   2.345
37159SOL     OW13373   1.242   0.912  12.086
37159SOL    HW113374   1.314   0.940  12.029
37159SOL    HW213375   1.223   0.822  12.058
37160SOL     OW13376  12.022   1.425   3.035
37160SOL    HW113377  11.972   1.384   3.106
37160SOL    HW213378  12.109   1.386   3.040
37161SOL     OW13379   8.554   0.646  14.220
37161SOL    HW113380   8.555   0.731  14.175
37161SOL    HW213381   8.614   0.591  14.169
37162SOL     OW13382   8.927   1.581  12.171
37162SOL    HW113383   8.838   1.552  12.192
37162SOL    HW213384   8.971   1.587  12.256
37163SOL     OW13385   5.123   8.801  12.330
37163SOL    HW113386   5.165   8.760  12.255
37163SOL    HW213387   5.036   8.827  12.298
37164SOL     OW13388   9.091   6.985  12.415
37164SOL    HW113389   9.074   7.076  12.440
37164SOL    HW213390   9.186   6.978  12.409
37165SOL     OW13391   9.514  12.392  11.683
37165SOL    HW113392   9.429  12.426  11.656
37165SOL    HW213393   9.547  12.456  11.746
37166SOL     OW13394  10.463   7.627   0.188
37166SOL    HW113395  10.419   7.709   0.208
37166SOL    HW213396  10.540   7.626   0.245
37167SOL     OW13397   0.287   2.459  13.140
37167SOL    HW113398   0.321   2.402  13.209
37167SOL    HW213399   0.278   2.402  13.063
37168SOL     OW13400   4.197  14.662   8.072
37168SOL    HW113401   4.261  14.594   8.051
37168SOL    HW213402   4.164  14.690   7.986
37169SOL     OW13403   5.896   5.056   9.991
37169SOL    HW113404   5.961   5.099   9.936
37169SOL    HW213405   5.905   4.963   9.971
37170SOL     OW13406   5.313   3.469   4.784
37170SOL    HW113407   5.224   3.448   4.814
37170SOL    HW213408   5.313   3.564   4.776
37171SOL     OW13409   5.812  10.886  14.334
37171SOL    HW113410   5.869  10.811  14.313
37171SOL    HW213411   5.784  10.870  14.424
37172SOL     OW13412  11.206   9.545   5.002
37172SOL    HW113413  11.252   9.627   4.986
37172SOL    HW213414  11.199   9.504   4.915
37173SOL     OW13415  12.944  11.231   2.654
37173SOL    HW113416  12.864  11.188   2.686
37173SOL    HW213417  12.982  11.168   2.593
37174SOL     OW13418  11.932  11.366   6.259
37174SOL    HW113419  11.947  11.300   6.327
37174SOL    HW213420  11.912  11.316   6.181
37175SOL     OW13421  13.598  11.326   8.889
37175SOL    HW113422  13.535  11.362   8.950
37175SOL    HW213423  13.547  11.266   8.834
37176SOL     OW13424  12.859  13.026   4.418
37176SOL    HW113425  12.796  13.074   4.472
37176SOL    HW213426  12.930  13.088   4.402
37177SOL     OW13427   9.092   2.173   7.860
37177SOL    HW113428   9.180   2.204   7.839
37177SOL    HW213429   9.034   2.230   7.809
37178SOL     OW13430   3.343  11.639  12.833
37178SOL    HW113431   3.426  11.592  12.834
37178SOL    HW213432   3.283  11.583  12.882
37179SOL     OW13433  12.283   4.698   9.068
37179SOL    HW113434  12.330   4.676   8.987
37179SOL    HW213435  12.260   4.613   9.106
37180SOL     OW13436  10.364  10.165   6.060
37180SOL    HW113437  10.307  10.114   6.117
37180SOL    HW213438  10.352  10.127   5.973
37181SOL     OW13439   9.272   7.522   3.025
37181SOL    HW113440   9.280   7.617   3.035
37181SOL    HW213441   9.260   7.509   2.931
37182SOL     OW13442  14.730   7.524   3.371
37182SOL    HW113443  14.773   7.453   3.324
37182SOL    HW213444  14.663   7.481   3.424
37183SOL     OW13445  10.091  14.158   7.499
37183SOL    HW113446  10.146  14.126   7.571
37183SOL    HW213447  10.101  14.253   7.502
37184SOL     OW13448   9.715  14.216   8.767
37184SOL    HW113449   9.691  14.305   8.741
37184SOL    HW213450   9.763  14.227   8.849
37185SOL     OW13451  10.151   6.390   2.558
37185SOL    HW113452  10.190   6.455   2.616
37185SOL    HW213453  10.136   6.313   2.614
37186SOL     OW13454   3.056   4.897   4.131
37186SOL    HW113455   3.118   4.891   4.059
37186SOL    HW213456   3.108   4.928   4.205
37187SOL     OW13457  11.858   9.064  10.597
37187SOL    HW113458  11.928   9.057  10.532
37187SOL    HW213459  11.862   9.155  10.627
37188SOL     OW13460   2.781  13.433   4.522
37188SOL    HW113461   2.737  13.466   4.443
37188SOL    HW213462   2.819  13.511   4.562
37189SOL     OW13463   6.553   1.307  12.487
37189SOL    HW113464   6.596   1.362  12.553
37189SOL    HW213465   6.463   1.342  12.482
37190SOL     OW13466   3.619   0.743   1.476
37190SOL    HW113467   3.705   0.756   1.516
37190SOL    HW213468   3.584   0.666   1.520
37191SOL     OW13469  11.981   1.797   8.775
37191SOL    HW113470  11.948   1.866   8.833
37191SOL    HW213471  11.903   1.760   8.734
37192SOL     OW13472   7.522  13.368  12.083
37192SOL    HW113473   7.617  13.373  12.069
37192SOL    HW213474   7.512  13.373  12.178
37193SOL     OW13475   0.276   3.244   3.910
37193SOL    HW113476   0.233   3.168   3.872
37193SOL    HW213477   0.342   3.269   3.846
37194SOL     OW13478   0.608  13.447  12.737
37194SOL    HW113479   0.629  13.405  12.820
37194SOL    HW213480   0.514  13.461  12.740
37195SOL     OW13481   1.933  14.686  14.634
37195SOL    HW113482   1.914  14.716  14.545
37195SOL    HW213483   1.935  14.765  14.687
37196SOL     OW13484   0.165   8.666  11.779
37196SOL    HW113485   0.121   8.647  11.862
37196SOL    HW213486   0.143   8.757  11.760
37197SOL     OW13487   4.018  14.197  14.163
37197SOL    HW113488   3.970  14.226  14.241
37197SOL    HW213489   4.070  14.274  14.137
37198SOL     OW13490  12.745   1.069   7.802
37198SOL    HW113491  12.702   1.080   7.886
37198SOL    HW213492  12.825   1.019   7.821
37199SOL     OW13493   0.681  12.099   5.222
37199SOL    HW113494   0.713  12.027   5.276
37199SOL    HW213495   0.632  12.057   5.152
37200SOL     OW13496  10.338   0.360   4.408
37200SOL    HW113497  10.312   0.268   4.407
37200SOL    HW213498  10.348   0.381   4.501
37201SOL     OW13499  11.846   5.366   4.121
37201SOL    HW113500  11.934   5.335   4.097
37201SOL    HW213501  11.825   5.432   4.054
37202SOL     OW13502   1.911  14.360   9.397
37202SOL    HW113503   1.918  14.406   9.314
37202SOL    HW213504   1.837  14.300   9.386
37203SOL     OW13505   4.951   5.523   0.868
37203SOL    HW113506   5.028   5.553   0.917
37203SOL    HW213507   4.977   5.438   0.833
37204SOL     OW13508   4.495   4.563   3.796
37204SOL    HW113509   4.498   4.528   3.707
37204SOL    HW213510   4.418   4.620   3.798
37205SOL     OW13511  13.053   1.235   5.350
37205SOL    HW113512  13.020   1.154   5.389
37205SOL    HW213513  13.128   1.258   5.404
37206SOL     OW13514   1.220   1.073  10.112
37206SOL    HW113515   1.163   1.093  10.186
37206SOL    HW213516   1.166   1.019  10.054
37207SOL     OW13517   0.555   5.434  13.227
37207SOL    HW113518   0.486   5.433  13.160
37207SOL    HW213519   0.599   5.350  13.218
37208SOL     OW13520  13.375  12.020  10.864
37208SOL    HW113521  13.387  11.929  10.889
37208SOL    HW213522  13.423  12.070  10.930
37209SOL     OW13523   9.328  14.669   8.789
37209SOL    HW113524   9.334  14.749   8.841
37209SOL    HW213525   9.381  14.687   8.711
37210SOL     OW13526   3.802   8.732   0.702
37210SOL    HW113527   3.747   8.701   0.775
37210SOL    HW213528   3.768   8.686   0.625
37211SOL     OW13529   8.657   8.727  13.388
37211SOL    HW113530   8.590   8.664  13.414
37211SOL    HW213531   8.739   8.689  13.421
37212SOL     OW13532  10.070  12.783  14.320
37212SOL    HW113533  10.045  12.874  14.331
37212SOL    HW213534   9.988  12.737  14.304
37213SOL     OW13535   6.395  13.298  14.680
37213SOL    HW113536   6.455  13.229  14.708
37213SOL    HW213537   6.376  13.277  14.588
37214SOL     OW13538   9.871  10.573   7.333
37214SOL    HW113539   9.851  10.525   7.252
37214SOL    HW213540   9.800  10.549   7.393
37215SOL     OW13541   4.586   0.019  13.439
37215SOL    HW113542   4.595  14.837  13.518
37215SOL    HW213543   4.527   0.091  13.464
37216SOL     OW13544   0.519  14.033  12.978
37216SOL    HW113545   0.590  14.042  12.915
37216SOL    HW213546   0.490  14.122  12.995
37217SOL     OW13547  12.413   9.668   3.729
37217SOL    HW113548  12.447   9.664   3.640
37217SOL    HW213549  12.363   9.750   3.731
37218SOL     OW13550   0.890   9.514  11.560
37218SOL    HW113551   0.797   9.512  11.581
37218SOL    HW213552   0.933   9.494  11.644
37219SOL     OW13553   6.964   2.681   5.153
37219SOL    HW113554   6.969   2.776   5.140
37219SOL    HW213555   6.898   2.652   5.090
37220SOL     OW13556  11.682   4.807   8.579
37220SOL    HW113557  11.678   4.899   8.605
37220SOL    HW213558  11.684   4.759   8.661
37221SOL     OW13559   3.546  14.106   0.774
37221SOL    HW113560   3.625  14.158   0.755
37221SOL    HW213561   3.574  14.015   0.759
37222SOL     OW13562   5.360   8.450   8.937
37222SOL    HW113563   5.299   8.471   8.866
37222SOL    HW213564   5.375   8.356   8.929
37223SOL     OW13565  11.280   7.996   7.035
37223SOL    HW113566  11.300   7.957   6.949
37223SOL    HW213567  11.361   8.040   7.061
37224SOL     OW13568   3.383  14.161  10.267
37224SOL    HW113569   3.336  14.128  10.344
37224SOL    HW213570   3.465  14.195  10.303
37225SOL     OW13571  14.759   4.164   1.203
37225SOL    HW113572  14.804   4.176   1.120
37225SOL    HW213573  14.678   4.117   1.180
37226SOL     OW13574  10.851  14.861  12.556
37226SOL    HW113575  10.942   0.002  12.526
37226SOL    HW213576  10.859  14.830  12.646
37227SOL     OW13577   2.192   5.854   2.612
37227SOL    HW113578   2.111   5.904   2.606
37227SOL    HW213579   2.168   5.773   2.657
37228SOL     OW13580  14.091  13.465   3.820
37228SOL    HW113581  14.097  13.378   3.779
37228SOL    HW213582  14.176  13.478   3.863
37229SOL     OW13583  14.642  10.310   8.992
37229SOL    HW113584  14.564  10.272   8.950
37229SOL    HW213585  14.617  10.400   9.012
37230SOL     OW13586   2.098   1.860  14.164
37230SOL    HW113587   2.082   1.890  14.074
37230SOL    HW213588   2.063   1.929  14.219
37231SOL     OW13589  13.761   2.432   9.703
37231SOL    HW113590  13.821   2.496   9.664
37231SOL    HW213591  13.692   2.485   9.743
37232SOL     OW13592  11.884   9.912   9.719
37232SOL    HW113593  11.874   9.837   9.662
37232SOL    HW213594  11.936   9.879   9.793
37233SOL     OW13595   4.727  11.132   8.547
37233SOL    HW113596   4.668  11.057   8.543
37233SOL    HW213597   4.808  11.102   8.505
37234SOL     OW13598  12.928   6.135   4.225
37234SOL    HW113599  12.982   6.206   4.190
37234SOL    HW213600  12.982   6.095   4.294
37235SOL     OW13601   2.137   8.742   0.939
37235SOL    HW113602   2.097   8.813   0.889
37235SOL    HW213603   2.184   8.786   1.010
37236SOL     OW13604  12.230   8.678   4.625
37236SOL    HW113605  12.219   8.732   4.547
37236SOL    HW213606  12.317   8.700   4.658
37237SOL     OW13607  11.931   0.440   6.954
37237SOL    HW113608  11.850   0.389   6.947
37237SOL    HW213609  11.949   0.468   6.864
37238SOL     OW13610   3.456  14.508   9.867
37238SOL    HW113611   3.473  14.422   9.830
37238SOL    HW213612   3.365  14.505   9.896
37239SOL     OW13613   4.591   7.891   9.221
37239SOL    HW113614   4.573   7.917   9.131
37239SOL    HW213615   4.572   7.797   9.223
37240SOL     OW13616   4.107   9.995  13.697
37240SOL    HW113617   4.061   9.912  13.681
37240SOL    HW213618   4.046  10.046  13.750
37241SOL     OW13619   5.661   3.454  11.177
37241SOL    HW113620   5.727   3.515  11.211
37241SOL    HW213621   5.608   3.431  11.254
37242SOL     OW13622   8.471   8.735   0.183
37242SOL    HW113623   8.491   8.654   0.230
37242SOL    HW213624   8.450   8.707   0.094
37243SOL     OW13625   4.289  13.002   9.600
37243SOL    HW113626   4.382  13.021   9.586
37243SOL    HW213627   4.280  12.909   9.579
37244SOL     OW13628   2.579  11.289   2.523
37244SOL    HW113629   2.659  11.239   2.538
37244SOL    HW213630   2.520  11.227   2.481
37245SOL     OW13631  14.581   7.488   6.244
37245SOL    HW113632  14.491   7.514   6.223
37245SOL    HW213633  14.587   7.497   6.340
37246SOL     OW13634   2.146   0.106   8.830
37246SOL    HW113635   2.207   0.159   8.778
37246SOL    HW213636   2.060   0.131   8.796
37247SOL     OW13637  10.587   3.870   1.193
37247SOL    HW113638  10.539   3.911   1.120
37247SOL    HW213639  10.677   3.862   1.161
37248SOL     OW13640   9.525  11.733  11.179
37248SOL    HW113641   9.453  11.789  11.209
37248SOL    HW213642   9.565  11.700  11.259
37249SOL     OW13643   7.503   4.206  12.256
37249SOL    HW113644   7.535   4.240  12.340
37249SOL    HW213645   7.528   4.114  12.257
37250SOL     OW13646   6.522   9.367   4.855
37250SOL    HW113647   6.446   9.402   4.809
37250SOL    HW213648   6.515   9.402   4.944
37251SOL     OW13649   4.018  12.253   9.489
37251SOL    HW113650   4.000  12.336   9.533
37251SOL    HW213651   4.095  12.218   9.535
37252SOL     OW13652   4.291   3.937   6.270
37252SOL    HW113653   4.386   3.938   6.279
37252SOL    HW213654   4.274   3.965   6.180
37253SOL     OW13655   5.479   5.043   6.038
37253SOL    HW113656   5.406   5.075   6.091
37253SOL    HW213657   5.457   5.068   5.949
37254SOL     OW13658   3.024  13.996   9.751
37254SOL    HW113659   2.931  13.988   9.771
37254SOL    HW213660   3.068  13.987   9.835
37255SOL     OW13661  12.786   6.037   2.409
37255SOL    HW113662  12.879   6.049   2.392
37255SOL    HW213663  12.754   5.984   2.336
37256SOL     OW13664   5.856   1.593  11.670
37256SOL    HW113665   5.768   1.563  11.691
37256SOL    HW213666   5.878   1.545  11.589
37257SOL     OW13667   9.112   5.362   1.298
37257SOL    HW113668   9.189   5.331   1.251
37257SOL    HW213669   9.040   5.354   1.235
37258SOL     OW13670   0.737   9.919   5.338
37258SOL    HW113671   0.662   9.968   5.304
37258SOL    HW213672   0.732   9.834   5.294
37259SOL     OW13673   9.183   1.567  10.215
37259SOL    HW113674   9.257   1.622  10.191
37259SOL    HW213675   9.144   1.541  10.132
37260SOL     OW13676  13.250   2.278   8.299
37260SOL    HW113677  13.226   2.350   8.358
37260SOL    HW213678  13.166   2.248   8.263
37261SOL     OW13679   0.480   2.669   5.021
37261SOL    HW113680   0.570   2.656   5.049
37261SOL    HW213681   0.437   2.585   5.040
37262SOL     OW13682  12.860  12.608   5.988
37262SOL    HW113683  12.860  12.518   6.021
37262SOL    HW213684  12.919  12.606   5.913
37263SOL     OW13685   0.669   9.454   9.027
37263SOL    HW113686   0.592   9.410   8.991
37263SOL    HW213687   0.635   9.513   9.094
37264SOL     OW13688   9.246   2.771   0.470
37264SOL    HW113689   9.281   2.727   0.547
37264SOL    HW213690   9.213   2.855   0.503
37265SOL     OW13691   8.333   3.512  11.076
37265SOL    HW113692   8.414   3.561  11.088
37265SOL    HW213693   8.263   3.573  11.098
37266SOL     OW13694  11.731   3.849  10.700
37266SOL    HW113695  11.751   3.835  10.608
37266SOL    HW213696  11.713   3.943  10.707
37267SOL     OW13697  11.338   5.316  10.812
37267SOL    HW113698  11.261   5.278  10.768
37267SOL    HW213699  11.343   5.270  10.895
37268SOL     OW13700   9.178   2.846   0.095
37268SOL    HW113701   9.246   2.852   0.163
37268SOL    HW213702   9.148   2.756   0.099
37269SOL     OW13703  12.499   7.653   4.961
37269SOL    HW113704  12.419   7.639   5.011
37269SOL    HW213705  12.470   7.663   4.870
37270SOL     OW13706   7.532   7.534   5.457
37270SOL    HW113707   7.611   7.537   5.509
37270SOL    HW213708   7.554   7.476   5.384
37271SOL     OW13709   7.071   2.739   6.498
37271SOL    HW113710   7.130   2.716   6.570
37271SOL    HW213711   7.062   2.834   6.504
37272SOL     OW13712  11.153  12.703   8.077
37272SOL    HW113713  11.198  12.628   8.116
37272SOL    HW213714  11.066  12.669   8.055
37273SOL     OW13715   5.201  11.662  10.235
37273SOL    HW113716   5.111  11.677  10.207
37273SOL    HW213717   5.227  11.581  10.191
37274SOL     OW13718   1.502   0.378  14.559
37274SOL    HW113719   1.458   0.460  14.585
37274SOL    HW213720   1.503   0.381  14.464
37275SOL     OW13721   5.647   4.917   5.223
37275SOL    HW113722   5.613   4.881   5.305
37275SOL    HW213723   5.725   4.966   5.250
37276SOL     OW13724   0.930  10.189   0.070
37276SOL    HW113725   0.989  10.203  14.866
37276SOL    HW213726   0.882  10.109   0.049
37277SOL     OW13727  12.011   7.697   7.974
37277SOL    HW113728  12.093   7.747   7.980
37277SOL    HW213729  11.944   7.757   8.008
37278SOL     OW13730   3.310  12.646   5.200
37278SOL    HW113731   3.322  12.551   5.206
37278SOL    HW213732   3.285  12.672   5.289
37279SOL     OW13733   8.232  14.679   6.292
37279SOL    HW113734   8.296  14.623   6.336
37279SOL    HW213735   8.191  14.729   6.362
37280SOL     OW13736   4.200   2.234   3.604
37280SOL    HW113737   4.146   2.158   3.627
37280SOL    HW213738   4.160   2.307   3.652
37281SOL     OW13739   0.622   6.597   0.836
37281SOL    HW113740   0.711   6.632   0.835
37281SOL    HW213741   0.586   6.626   0.920
37282SOL     OW13742  13.485  10.016   3.080
37282SOL    HW113743  13.425  10.006   3.155
37282SOL    HW213744  13.500   9.926   3.050
37283SOL     OW13745   0.558   2.038  11.411
37283SOL    HW113746   0.475   2.061  11.368
37283SOL    HW213747   0.535   1.965  11.469
37284SOL     OW13748   4.374   4.515   2.283
37284SOL    HW113749   4.462   4.483   2.266
37284SOL    HW213750   4.340   4.539   2.196
37285SOL     OW13751  14.388   4.538   6.897
37285SOL    HW113752  14.297   4.545   6.869
37285SOL    HW213753  14.386   4.482   6.974
37286SOL     OW13754   8.499   1.997   1.786
37286SOL    HW113755   8.591   1.987   1.811
37286SOL    HW213756   8.455   2.026   1.866
37287SOL     OW13757   0.996   9.940  14.127
37287SOL    HW113758   1.083   9.940  14.086
37287SOL    HW213759   0.984  10.031  14.156
37288SOL     OW13760  10.817   1.321   3.799
37288SOL    HW113761  10.784   1.289   3.883
37288SOL    HW213762  10.901   1.275   3.788
37289SOL     OW13763   8.441  13.068   7.744
37289SOL    HW113764   8.394  13.084   7.825
37289SOL    HW213765   8.473  13.154   7.716
37290SOL     OW13766   4.095  11.089   8.521
37290SOL    HW113767   4.079  11.069   8.429
37290SOL    HW213768   4.164  11.156   8.520
37291SOL     OW13769  14.773   2.247   3.187
37291SOL    HW113770  14.770   2.183   3.258
37291SOL    HW213771  14.805   2.327   3.228
37292SOL     OW13772   0.268   3.507   1.662
37292SOL    HW113773   0.255   3.602   1.658
37292SOL    HW213774   0.359   3.496   1.690
37293SOL     OW13775   9.755  12.714   1.110
37293SOL    HW113776   9.781  12.649   1.044
37293SOL    HW213777   9.667  12.742   1.082
37294SOL     OW13778   4.359   6.068  12.061
37294SOL    HW113779   4.436   6.051  12.007
37294SOL    HW213780   4.386   6.047  12.150
37295SOL     OW13781  11.532   8.469  14.329
37295SOL    HW113782  11.437   8.472  14.338
37295SOL    HW213783  11.565   8.497  14.414
37296SOL     OW13784  13.812   2.144   2.131
37296SOL    HW113785  13.772   2.068   2.174
37296SOL    HW213786  13.906   2.125   2.133
37297SOL     OW13787  11.393  10.650   3.209
37297SOL    HW113788  11.431  10.567   3.181
37297SOL    HW213789  11.329  10.625   3.276
37298SOL     OW13790   8.479   2.660   3.890
37298SOL    HW113791   8.551   2.716   3.917
37298SOL    HW213792   8.452   2.694   3.804
37299SOL     OW13793  12.971   9.694   4.955
37299SOL    HW113794  12.959   9.617   5.011
37299SOL    HW213795  13.048   9.738   4.991
37300SOL     OW13796  10.509   1.904   0.907
37300SOL    HW113797  10.442   1.866   0.849
37300SOL    HW213798  10.582   1.924   0.850
37301SOL     OW13799  14.378   9.683  14.056
37301SOL    HW113800  14.349   9.692  14.147
37301SOL    HW213801  14.305   9.640  14.012
37302SOL     OW13802  11.598  14.734   8.168
37302SOL    HW113803  11.569  14.650   8.202
37302SOL    HW213804  11.559  14.739   8.080
37303SOL     OW13805   2.197  10.486  14.446
37303SOL    HW113806   2.134  10.417  14.424
37303SOL    HW213807   2.275  10.465  14.396
37304SOL     OW13808  14.770   4.302  12.165
37304SOL    HW113809  14.804   4.390  12.177
37304SOL    HW213810  14.795   4.278  12.076
37305SOL     OW13811  13.200   6.518   3.977
37305SOL    HW113812  13.159   6.587   3.924
37305SOL    HW213813  13.273   6.487   3.923
37306SOL     OW13814  14.189  11.535   3.987
37306SOL    HW113815  14.143  11.614   4.014
37306SOL    HW213816  14.211  11.550   3.895
37307SOL     OW13817   9.660  13.171   2.321
37307SOL    HW113818   9.596  13.209   2.261
37307SOL    HW213819   9.646  13.077   2.315
37308SOL     OW13820   1.622   0.772   7.106
37308SOL    HW113821   1.645   0.743   7.018
37308SOL    HW213822   1.641   0.866   7.106
37309SOL     OW13823   3.064   2.983   7.393
37309SOL    HW113824   3.094   2.987   7.303
37309SOL    HW213825   3.132   2.934   7.439
37310SOL     OW13826   3.012  13.989  12.167
37310SOL    HW113827   3.065  14.067  12.178
37310SOL    HW213828   3.010  13.949  12.254
37311SOL     OW13829   9.079   9.434   1.147
37311SOL    HW113830   9.088   9.355   1.095
37311SOL    HW213831   9.074   9.404   1.237
37312SOL     OW13832   1.695   4.366  10.921
37312SOL    HW113833   1.727   4.279  10.944
37312SOL    HW213834   1.757   4.426  10.963
37313SOL     OW13835  11.112  11.481   6.850
37313SOL    HW113836  11.151  11.489   6.937
37313SOL    HW213837  11.149  11.401   6.813
37314SOL     OW13838  14.187   4.738   5.680
37314SOL    HW113839  14.189   4.714   5.772
37314SOL    HW213840  14.264   4.696   5.642
37315SOL     OW13841   0.310   8.530  12.337
37315SOL    HW113842   0.368   8.472  12.287
37315SOL    HW213843   0.358   8.551  12.416
37316SOL     OW13844   6.689  12.085   4.575
37316SOL    HW113845   6.746  12.066   4.500
37316SOL    HW213846   6.611  12.123   4.536
37317SOL     OW13847   4.381   4.520   0.477
37317SOL    HW113848   4.351   4.496   0.565
37317SOL    HW213849   4.453   4.581   0.493
37318SOL     OW13850  11.378  13.484  10.106
37318SOL    HW113851  11.350  13.399  10.142
37318SOL    HW213852  11.405  13.535  10.183
37319SOL     OW13853   7.155   3.340   4.764
37319SOL    HW113854   7.154   3.374   4.854
37319SOL    HW213855   7.156   3.245   4.774
37320SOL     OW13856   9.082   2.770   6.662
37320SOL    HW113857   9.142   2.843   6.646
37320SOL    HW213858   9.107   2.736   6.747
37321SOL     OW13859  12.193   1.845   0.144
37321SOL    HW113860  12.225   1.756   0.157
37321SOL    HW213861  12.190   1.883   0.232
37322SOL     OW13862   7.293  10.149   5.357
37322SOL    HW113863   7.336  10.104   5.284
37322SOL    HW213864   7.364  10.196   5.401
37323SOL     OW13865   5.907  14.596  13.075
37323SOL    HW113866   5.866  14.667  13.125
37323SOL    HW213867   5.910  14.629  12.985
37324SOL     OW13868   4.530   6.326   1.937
37324SOL    HW113869   4.613   6.367   1.912
37324SOL    HW213870   4.544   6.295   2.026
37325SOL     OW13871  13.255  13.819  14.653
37325SOL    HW113872  13.229  13.760  14.582
37325SOL    HW213873  13.179  13.821  14.710
37326SOL     OW13874   8.009  13.773   0.214
37326SOL    HW113875   7.967  13.798   0.132
37326SOL    HW213876   7.945  13.715   0.257
37327SOL     OW13877  14.723   5.952   7.068
37327SOL    HW113878  14.657   5.986   7.007
37327SOL    HW213879  14.805   5.956   7.019
37328SOL     OW13880   4.774   1.171  11.202
37328SOL    HW113881   4.830   1.093  11.196
37328SOL    HW213882   4.745   1.186  11.112
37329SOL     OW13883   6.148   8.659   0.952
37329SOL    HW113884   6.108   8.720   1.014
37329SOL    HW213885   6.113   8.574   0.978
37330SOL     OW13886  14.478  14.177   7.999
37330SOL    HW113887  14.396  14.185   7.949
37330SOL    HW213888  14.449  14.153   8.087
37331SOL     OW13889   4.917  11.726   9.124
37331SOL    HW113890   4.895  11.700   9.035
37331SOL    HW213891   4.865  11.805   9.140
37332SOL     OW13892   7.175   6.639  11.637
37332SOL    HW113893   7.129   6.643  11.553
37332SOL    HW213894   7.158   6.723  11.678
37333SOL     OW13895  10.606  13.453   0.030
37333SOL    HW113896  10.658  13.382   0.067
37333SOL    HW213897  10.544  13.476   0.099
37334SOL     OW13898  12.287  13.230   1.727
37334SOL    HW113899  12.358  13.166   1.720
37334SOL    HW213900  12.237  13.202   1.803
37335SOL     OW13901  11.363   1.217   4.713
37335SOL    HW113902  11.456   1.201   4.730
37335SOL    HW213903  11.357   1.313   4.707
37336SOL     OW13904  10.163  13.780   7.642
37336SOL    HW113905  10.173  13.827   7.559
37336SOL    HW213906  10.101  13.710   7.622
37337SOL     OW13907   2.734  13.737  11.392
37337SOL    HW113908   2.656  13.770  11.347
37337SOL    HW213909   2.802  13.735  11.325
37338SOL     OW13910   4.892   8.855   1.729
37338SOL    HW113911   4.857   8.858   1.818
37338SOL    HW213912   4.847   8.926   1.684
37339SOL     OW13913   9.675  14.626   1.526
37339SOL    HW113914   9.589  14.600   1.561
37339SOL    HW213915   9.728  14.546   1.532
37340SOL     OW13916   8.927   0.601  13.618
37340SOL    HW113917   8.933   0.539  13.691
37340SOL    HW213918   8.918   0.545  13.540
37341SOL     OW13919   6.695   2.720  10.101
37341SOL    HW113920   6.719   2.701  10.011
37341SOL    HW213921   6.661   2.637  10.135
37342SOL     OW13922  13.058  11.589   9.624
37342SOL    HW113923  12.976  11.629   9.654
37342SOL    HW213924  13.101  11.656   9.572
37343SOL     OW13925   7.752  10.679  10.147
37343SOL    HW113926   7.846  10.690  10.160
37343SOL    HW213927   7.744  10.599  10.096
37344SOL     OW13928   4.806   7.629   8.112
37344SOL    HW113929   4.870   7.560   8.092
37344SOL    HW213930   4.822   7.696   8.045
37345SOL     OW13931   3.018   6.069   9.018
37345SOL    HW113932   3.094   6.107   8.973
37345SOL    HW213933   2.955   6.052   8.949
37346SOL     OW13934   3.377  14.294   3.534
37346SOL    HW113935   3.439  14.222   3.524
37346SOL    HW213936   3.291  14.251   3.536
37347SOL     OW13937   3.296   2.748  13.296
37347SOL    HW113938   3.231   2.736  13.366
37347SOL    HW213939   3.313   2.842  13.294
37348SOL     OW13940   2.734   3.213   7.950
37348SOL    HW113941   2.762   3.198   8.040
37348SOL    HW213942   2.746   3.128   7.907
37349SOL     OW13943   6.232   6.779   4.188
37349SOL    HW113944   6.287   6.721   4.241
37349SOL    HW213945   6.295   6.829   4.136
37350SOL     OW13946  10.388   4.685   2.685
37350SOL    HW113947  10.360   4.666   2.774
37350SOL    HW213948  10.451   4.616   2.664
37351SOL     OW13949  13.624   9.874   4.681
37351SOL    HW113950  13.668   9.799   4.720
37351SOL    HW213951  13.673   9.950   4.711
37352SOL     OW13952   2.442  10.345  14.547
37352SOL    HW113953   2.420  10.326  14.456
37352SOL    HW213954   2.397  10.276  14.597
37353SOL     OW13955   6.613   5.626   9.881
37353SOL    HW113956   6.596   5.651   9.972
37353SOL    HW213957   6.584   5.702   9.830
37354SOL     OW13958  12.693   5.416   4.808
37354SOL    HW113959  12.683   5.464   4.890
37354SOL    HW213960  12.787   5.405   4.798
37355SOL     OW13961  12.183  14.397   8.368
37355SOL    HW113962  12.136  14.480   8.366
37355SOL    HW213963  12.118  14.331   8.346
37356SOL     OW13964   1.063   2.637   2.444
37356SOL    HW113965   1.051   2.560   2.388
37356SOL    HW213966   0.990   2.694   2.421
37357SOL     OW13967  12.143   7.680   7.682
37357SOL    HW113968  12.108   7.639   7.761
37357SOL    HW213969  12.238   7.667   7.688
37358SOL     OW13970   0.421  13.298   1.991
37358SOL    HW113971   0.477  13.318   2.066
37358SOL    HW213972   0.447  13.211   1.964
37359SOL     OW13973  10.725   4.048  11.953
37359SOL    HW113974  10.717   4.096  12.035
37359SOL    HW213975  10.695   3.960  11.973
37360SOL     OW13976  14.679   9.540   3.735
37360SOL    HW113977  14.740   9.506   3.670
37360SOL    HW213978  14.628   9.606   3.688
37361SOL     OW13979  12.254   0.243   8.535
37361SOL    HW113980  12.269   0.338   8.537
37361SOL    HW213981  12.269   0.214   8.625
37362SOL     OW13982   4.588   1.705   9.071
37362SOL    HW113983   4.533   1.751   9.135
37362SOL    HW213984   4.561   1.614   9.077
37363SOL     OW13985   8.278   5.373   5.559
37363SOL    HW113986   8.228   5.409   5.486
37363SOL    HW213987   8.215   5.371   5.632
37364SOL     OW13988   5.347  10.983  11.031
37364SOL    HW113989   5.326  10.920  11.099
37364SOL    HW213990   5.263  11.000  10.987
37365SOL     OW13991   9.266   8.656  12.717
37365SOL    HW113992   9.308   8.734  12.753
37365SOL    HW213993   9.326   8.624  12.650
37366SOL     OW13994   4.876   5.885  12.101
37366SOL    HW113995   4.838   5.803  12.071
37366SOL    HW213996   4.969   5.879  12.078
37367SOL     OW13997   4.006  14.323  11.462
37367SOL    HW113998   4.055  14.402  11.440
37367SOL    HW213999   3.982  14.285  11.378
37368SOL     OW14000   4.763  10.042  13.717
37368SOL    HW114001   4.691  10.095  13.750
37368SOL    HW214002   4.839  10.100  13.719
37369SOL     OW14003   3.053  13.516   3.171
37369SOL    HW114004   3.036  13.523   3.077
37369SOL    HW214005   3.025  13.428   3.194
37370SOL     OW14006  13.326   2.145  12.382
37370SOL    HW114007  13.377   2.158  12.302
37370SOL    HW214008  13.264   2.075  12.360
37371SOL     OW14009   3.004   7.887   9.299
37371SOL    HW114010   3.050   7.832   9.235
37371SOL    HW214011   2.968   7.826   9.363
37372SOL     OW14012   2.205  10.377   4.684
37372SOL    HW114013   2.187  10.405   4.774
37372SOL    HW214014   2.197  10.456   4.632
37373SOL     OW14015  12.866   6.472   4.133
37373SOL    HW114016  12.861   6.475   4.038
37373SOL    HW214017  12.774   6.467   4.162
37374SOL     OW14018   5.827   0.626   7.820
37374SOL    HW114019   5.792   0.656   7.904
37374SOL    HW214020   5.830   0.531   7.828
37375SOL     OW14021  12.305   0.682  10.088
37375SOL    HW114022  12.226   0.720  10.050
37375SOL    HW214023  12.323   0.605  10.033
37376SOL     OW14024  11.531   9.555   3.299
37376SOL    HW114025  11.449   9.604   3.299
37376SOL    HW214026  11.569   9.571   3.213
37377SOL     OW14027   9.422   7.572  11.562
37377SOL    HW114028   9.427   7.664  11.586
37377SOL    HW214029   9.511   7.538  11.577
37378SOL     OW14030   4.140   3.256  14.603
37378SOL    HW114031   4.092   3.338  14.612
37378SOL    HW214032   4.122   3.209  14.684
37379SOL     OW14033   2.877   2.277   1.322
37379SOL    HW114034   2.790   2.248   1.351
37379SOL    HW214035   2.917   2.316   1.400
37380SOL     OW14036  10.506  14.209  10.975
37380SOL    HW114037  10.577  14.210  11.040
37380SOL    HW214038  10.546  14.174  10.896
37381SOL     OW14039  14.056  11.708   8.504
37381SOL    HW114040  14.064  11.664   8.589
37381SOL    HW214041  14.066  11.638   8.440
37382SOL     OW14042   4.941   3.083  12.801
37382SOL    HW114043   4.904   3.078  12.713
37382SOL    HW214044   4.901   3.010  12.848
37383SOL     OW14045  13.495   8.759   1.015
37383SOL    HW114046  13.492   8.839   1.068
37383SOL    HW214047  13.583   8.756   0.980
37384SOL     OW14048   9.297   0.884   6.894
37384SOL    HW114049   9.390   0.888   6.873
37384SOL    HW214050   9.262   0.816   6.836
37385SOL     OW14051   8.629   0.082  12.506
37385SOL    HW114052   8.590   0.120  12.585
37385SOL    HW214053   8.664   0.157  12.458
37386SOL     OW14054  13.914  14.564   5.930
37386SOL    HW114055  13.924  14.614   6.011
37386SOL    HW214056  14.000  14.571   5.887
37387SOL     OW14057  12.150  11.617  13.284
37387SOL    HW114058  12.217  11.549  13.281
37387SOL    HW214059  12.089  11.594  13.213
37388SOL     OW14060   2.996  14.106   6.245
37388SOL    HW114061   3.030  14.066   6.325
37388SOL    HW214062   3.072  14.147   6.204
37389SOL     OW14063  12.814   7.145  14.559
37389SOL    HW114064  12.883   7.078  14.559
37389SOL    HW214065  12.833   7.199  14.635
37390SOL     OW14066   9.058   0.393   6.676
37390SOL    HW114067   9.086   0.386   6.585
37390SOL    HW214068   9.139   0.400   6.726
37391SOL     OW14069   0.486   1.927   2.023
37391SOL    HW114070   0.446   1.959   2.104
37391SOL    HW214071   0.443   1.977   1.954
37392SOL     OW14072   9.586   9.989  13.257
37392SOL    HW114073   9.500   9.948  13.263
37392SOL    HW214074   9.579  10.067  13.311
37393SOL     OW14075   0.650   4.640   1.411
37393SOL    HW114076   0.735   4.647   1.453
37393SOL    HW214077   0.650   4.552   1.372
37394SOL     OW14078   0.150  11.850   1.403
37394SOL    HW114079   0.202  11.861   1.323
37394SOL    HW214080   0.067  11.813   1.372
37395SOL     OW14081   1.083  12.682   3.214
37395SOL    HW114082   1.165  12.729   3.229
37395SOL    HW214083   1.069  12.686   3.120
37396SOL     OW14084   6.746   3.737   1.370
37396SOL    HW114085   6.756   3.670   1.437
37396SOL    HW214086   6.716   3.814   1.417
37397SOL     OW14087  12.871   4.772   5.478
37397SOL    HW114088  12.794   4.829   5.484
37397SOL    HW214089  12.857   4.707   5.547
37398SOL     OW14090   8.711  13.050   0.906
37398SOL    HW114091   8.746  12.971   0.865
37398SOL    HW214092   8.623  13.025   0.935
37399SOL     OW14093   0.191   3.044   2.047
37399SOL    HW114094   0.113   3.094   2.071
37399SOL    HW214095   0.233   3.025   2.131
37400SOL     OW14096   5.964  11.753   8.247
37400SOL    HW114097   5.896  11.702   8.291
37400SOL    HW214098   5.934  11.844   8.256
37401SOL     OW14099   5.458   0.338  12.350
37401SOL    HW114100   5.448   0.433  12.350
37401SOL    HW214101   5.373   0.304  12.377
37402SOL     OW14102   1.076  10.491   3.664
37402SOL    HW114103   1.089  10.424   3.732
37402SOL    HW214104   1.037  10.442   3.591
37403SOL     OW14105   2.741   1.427  12.736
37403SOL    HW114106   2.822   1.466  12.703
37403SOL    HW214107   2.755   1.333  12.730
37404SOL     OW14108   6.209   5.549  13.522
37404SOL    HW114109   6.295   5.581  13.550
37404SOL    HW214110   6.216   5.542  13.427
37405SOL     OW14111   0.051   9.281   5.343
37405SOL    HW114112  14.852   9.333   5.302
37405SOL    HW214113   0.086   9.337   5.412
37406SOL     OW14114   5.525   5.325   7.824
37406SOL    HW114115   5.600   5.357   7.874
37406SOL    HW214116   5.452   5.326   7.886
37407SOL     OW14117   6.672   0.121   9.904
37407SOL    HW114118   6.739   0.106   9.971
37407SOL    HW214119   6.642   0.211   9.920
37408SOL     OW14120   9.865   6.371  14.793
37408SOL    HW114121   9.896   6.280  14.791
37408SOL    HW214122   9.941   6.423  14.766
37409SOL     OW14123  11.918   0.821   1.490
37409SOL    HW114124  11.921   0.754   1.559
37409SOL    HW214125  11.987   0.882   1.514
37410SOL     OW14126   9.279   0.176   1.306
37410SOL    HW114127   9.193   0.146   1.336
37410SOL    HW214128   9.264   0.210   1.218
37411SOL     OW14129  10.421   2.693   5.672
37411SOL    HW114130  10.422   2.695   5.576
37411SOL    HW214131  10.328   2.686   5.695
37412SOL     OW14132  14.620  13.978  10.861
37412SOL    HW114133  14.615  13.921  10.784
37412SOL    HW214134  14.662  13.924  10.928
37413SOL     OW14135   6.554  13.142   0.000
37413SOL    HW114136   6.636  13.148  14.822
37413SOL    HW214137   6.579  13.116   0.089
37414SOL     OW14138  13.062   0.759   5.949
37414SOL    HW114139  12.995   0.705   5.907
37414SOL    HW214140  13.123   0.781   5.878
37415SOL     OW14141  11.997   1.502  13.791
37415SOL    HW114142  12.044   1.496  13.708
37415SOL    HW214143  11.953   1.418  13.800
37416SOL     OW14144   3.555   7.222   9.589
37416SOL    HW114145   3.462   7.227   9.567
37416SOL    HW214146   3.600   7.228   9.504
37417SOL     OW14147   8.717  14.038   9.022
37417SOL    HW114148   8.702  14.025   9.116
37417SOL    HW214149   8.630  14.057   8.987
37418SOL     OW14150  12.512   0.791   7.191
37418SOL    HW114151  12.497   0.796   7.285
37418SOL    HW214152  12.483   0.876   7.158
37419SOL     OW14153  13.663   5.318   8.425
37419SOL    HW114154  13.727   5.350   8.361
37419SOL    HW214155  13.579   5.324   8.380
37420SOL     OW14156   2.867   8.740   5.753
37420SOL    HW114157   2.881   8.804   5.684
37420SOL    HW214158   2.773   8.723   5.752
37421SOL     OW14159   3.156   2.550   5.248
37421SOL    HW114160   3.144   2.474   5.305
37421SOL    HW214161   3.166   2.623   5.308
37422SOL     OW14162  13.186   6.459   8.067
37422SOL    HW114163  13.268   6.417   8.043
37422SOL    HW214164  13.193   6.548   8.032
37423SOL     OW14165  13.535   7.974  12.612
37423SOL    HW114166  13.521   8.040  12.680
37423SOL    HW214167  13.627   7.983  12.589
37424SOL     OW14168   0.624   0.675   2.393
37424SOL    HW114169   0.538   0.704   2.363
37424SOL    HW214170   0.636   0.716   2.478
37425SOL     OW14171   7.735   4.524   1.487
37425SOL    HW114172   7.752   4.529   1.393
37425SOL    HW214173   7.640   4.520   1.493
37426SOL     OW14174   9.003   8.006   3.531
37426SOL    HW114175   9.020   8.098   3.514
37426SOL    HW214176   8.911   7.993   3.509
37427SOL     OW14177   9.989   1.010  12.738
37427SOL    HW114178  10.048   1.024  12.664
37427SOL    HW214179   9.970   1.098  12.770
37428SOL     OW14180  11.309   1.564   1.021
37428SOL    HW114181  11.261   1.510   0.957
37428SOL    HW214182  11.241   1.595   1.081
37429SOL     OW14183  13.068   7.874   2.935
37429SOL    HW114184  13.019   7.858   3.016
37429SOL    HW214185  13.001   7.893   2.870
37430SOL     OW14186   0.135  10.136   2.186
37430SOL    HW114187   0.149  10.095   2.272
37430SOL    HW214188   0.075  10.209   2.204
37431SOL     OW14189   0.110   3.520   0.807
37431SOL    HW114190   0.091   3.552   0.895
37431SOL    HW214191   0.057   3.442   0.797
37432SOL     OW14192   8.009   8.382   5.208
37432SOL    HW114193   8.102   8.405   5.209
37432SOL    HW214194   8.004   8.305   5.152
37433SOL     OW14195   7.921  11.827  13.595
37433SOL    HW114196   7.904  11.834  13.689
37433SOL    HW214197   7.965  11.743  13.584
37434SOL     OW14198   3.919   1.720   6.668
37434SOL    HW114199   3.926   1.648   6.730
37434SOL    HW214200   4.008   1.729   6.632
37435SOL     OW14201   6.593   6.991   4.530
37435SOL    HW114202   6.499   7.001   4.515
37435SOL    HW214203   6.621   7.076   4.564
37436SOL     OW14204   5.255  13.786   4.015
37436SOL    HW114205   5.224  13.842   4.087
37436SOL    HW214206   5.178  13.735   3.989
37437SOL     OW14207   4.378  12.548   8.695
37437SOL    HW114208   4.299  12.546   8.641
37437SOL    HW214209   4.450  12.547   8.632
37438SOL     OW14210   6.885   8.696   9.915
37438SOL    HW114211   6.979   8.676   9.921
37438SOL    HW214212   6.842   8.612   9.933
37439SOL     OW14213   2.675   6.180  10.506
37439SOL    HW114214   2.616   6.217  10.572
37439SOL    HW214215   2.641   6.092  10.490
37440SOL     OW14216   1.139   5.842  11.364
37440SOL    HW114217   1.175   5.909  11.423
37440SOL    HW214218   1.165   5.759  11.403
37441SOL     OW14219   4.287  12.416   8.058
37441SOL    HW114220   4.206  12.366   8.053
37441SOL    HW214221   4.353  12.354   8.089
37442SOL     OW14222   7.971   3.306   6.520
37442SOL    HW114223   7.903   3.269   6.577
37442SOL    HW214224   7.928   3.319   6.436
37443SOL     OW14225  10.744   3.263   8.129
37443SOL    HW114226  10.769   3.315   8.053
37443SOL    HW214227  10.651   3.245   8.116
37444SOL     OW14228   6.761   8.728   8.677
37444SOL    HW114229   6.815   8.798   8.642
37444SOL    HW214230   6.694   8.713   8.610
37445SOL     OW14231   5.769   6.219  12.907
37445SOL    HW114232   5.759   6.181  12.994
37445SOL    HW214233   5.687   6.266  12.891
37446SOL     OW14234   7.902   8.473  11.313
37446SOL    HW114235   7.866   8.551  11.271
37446SOL    HW214236   7.852   8.463  11.394
37447SOL     OW14237   7.096   2.898   9.806
37447SOL    HW114238   7.039   2.883   9.881
37447SOL    HW214239   7.060   2.974   9.762
37448SOL     OW14240   6.438   1.799   5.827
37448SOL    HW114241   6.519   1.849   5.823
37448SOL    HW214242   6.371   1.863   5.850
37449SOL     OW14243   8.453   6.833   2.004
37449SOL    HW114244   8.362   6.859   2.013
37449SOL    HW214245   8.481   6.812   2.094
37450SOL     OW14246   2.710  11.988   9.466
37450SOL    HW114247   2.750  11.906   9.494
37450SOL    HW214248   2.732  12.050   9.535
37451SOL     OW14249  13.932   2.603  13.414
37451SOL    HW114250  14.017   2.599  13.458
37451SOL    HW214251  13.953   2.623  13.323
37452SOL     OW14252   0.153   2.117  10.221
37452SOL    HW114253   0.166   2.041  10.277
37452SOL    HW214254   0.125   2.187  10.280
37453SOL     OW14255   1.222  11.209   9.718
37453SOL    HW114256   1.306  11.171   9.693
37453SOL    HW214257   1.169  11.205   9.638
37454SOL     OW14258  10.676  13.578   3.608
37454SOL    HW114259  10.765  13.567   3.575
37454SOL    HW214260  10.667  13.514   3.678
37455SOL     OW14261  11.929  10.888   4.735
37455SOL    HW114262  11.871  10.812   4.744
37455SOL    HW214263  11.973  10.896   4.820
37456SOL     OW14264   8.183   3.739   9.690
37456SOL    HW114265   8.235   3.774   9.762
37456SOL    HW214266   8.243   3.737   9.615
37457SOL     OW14267  11.441   7.570   6.581
37457SOL    HW114268  11.362   7.536   6.623
37457SOL    HW214269  11.509   7.506   6.603
37458SOL     OW14270  13.475   2.427   2.120
37458SOL    HW114271  13.564   2.413   2.087
37458SOL    HW214272  13.483   2.412   2.215
37459SOL     OW14273   6.333   8.966  13.538
37459SOL    HW114274   6.275   8.893  13.560
37459SOL    HW214275   6.415   8.924  13.514
37460SOL     OW14276   2.729   3.471   2.737
37460SOL    HW114277   2.689   3.520   2.665
37460SOL    HW214278   2.662   3.406   2.761
37461SOL     OW14279  12.291   8.450   7.723
37461SOL    HW114280  12.254   8.366   7.751
37461SOL    HW214281  12.263   8.512   7.790
37462SOL     OW14282   0.942   5.777   1.246
37462SOL    HW114283   0.882   5.753   1.175
37462SOL    HW214284   1.028   5.781   1.205
37463SOL     OW14285   9.212   0.006  14.832
37463SOL    HW114286   9.147   0.038   0.024
37463SOL    HW214287   9.167  14.807  14.784
37464SOL     OW14288   2.689   3.787  10.358
37464SOL    HW114289   2.691   3.692  10.366
37464SOL    HW214290   2.773   3.816  10.392
37465SOL     OW14291   6.978  12.439   6.378
37465SOL    HW114292   6.929  12.471   6.302
37465SOL    HW214293   7.066  12.424   6.345
37466SOL     OW14294   2.418   4.351   9.989
37466SOL    HW114295   2.348   4.318  10.046
37466SOL    HW214296   2.499   4.326  10.034
37467SOL     OW14297  12.051   2.781   5.932
37467SOL    HW114298  11.985   2.790   5.863
37467SOL    HW214299  12.076   2.689   5.930
37468SOL     OW14300   7.273   7.576   8.808
37468SOL    HW114301   7.221   7.497   8.796
37468SOL    HW214302   7.211   7.648   8.795
37469SOL     OW14303   6.372   1.359   3.740
37469SOL    HW114304   6.288   1.394   3.769
37469SOL    HW214305   6.437   1.403   3.795
37470SOL     OW14306   6.777  12.851   5.056
37470SOL    HW114307   6.695  12.818   5.095
37470SOL    HW214308   6.761  12.944   5.041
37471SOL     OW14309   5.831   6.252   9.965
37471SOL    HW114310   5.784   6.332   9.992
37471SOL    HW214311   5.852   6.266   9.873
37472SOL     OW14312   4.087  14.202   1.581
37472SOL    HW114313   4.061  14.294   1.587
37472SOL    HW214314   4.156  14.201   1.515
37473SOL     OW14315   5.238   6.523   1.187
37473SOL    HW114316   5.182   6.563   1.120
37473SOL    HW214317   5.323   6.566   1.177
37474SOL     OW14318   2.564   1.145  13.007
37474SOL    HW114319   2.645   1.106  13.039
37474SOL    HW214320   2.515   1.071  12.970
37475SOL     OW14321   0.035   3.956   0.564
37475SOL    HW114322   0.093   3.890   0.602
37475SOL    HW214323   0.037   4.029   0.625
37476SOL     OW14324   3.412  13.501  11.605
37476SOL    HW114325   3.345  13.458  11.551
37476SOL    HW214326   3.409  13.593  11.578
37477SOL     OW14327   6.456  12.160  13.422
37477SOL    HW114328   6.538  12.198  13.392
37477SOL    HW214329   6.395  12.234  13.429
37478SOL     OW14330   3.456  10.782   1.284
37478SOL    HW114331   3.460  10.877   1.284
37478SOL    HW214332   3.395  10.760   1.354
37479SOL     OW14333   0.054   2.785   0.190
37479SOL    HW114334   0.069   2.833   0.109
37479SOL    HW214335   0.007   2.847   0.246
37480SOL     OW14336   8.837   5.064   7.835
37480SOL    HW114337   8.864   4.983   7.791
37480SOL    HW214338   8.742   5.065   7.826
37481SOL     OW14339   8.855  12.386  14.320
37481SOL    HW114340   8.824  12.418  14.235
37481SOL    HW214341   8.897  12.462  14.360
37482SOL     OW14342  11.986   8.805  13.102
37482SOL    HW114343  11.984   8.897  13.078
37482SOL    HW214344  11.940   8.801  13.186
37483SOL     OW14345   3.063   3.340   8.192
37483SOL    HW114346   3.051   3.246   8.174
37483SOL    HW214347   2.992   3.383   8.144
37484SOL     OW14348  11.274   4.135   4.428
37484SOL    HW114349  11.356   4.184   4.432
37484SOL    HW214350  11.217   4.178   4.491
37485SOL     OW14351  14.751   1.903   3.846
37485SOL    HW114352  14.811   1.950   3.904
37485SOL    HW214353  14.726   1.967   3.779
37486SOL     OW14354   4.220   3.774   8.455
37486SOL    HW114355   4.227   3.865   8.427
37486SOL    HW214356   4.271   3.725   8.390
37487SOL     OW14357  13.920   6.864   3.947
37487SOL    HW114358  13.873   6.819   3.877
37487SOL    HW214359  13.879   6.950   3.952
37488SOL     OW14360   0.869   4.482   5.062
37488SOL    HW114361   0.912   4.509   5.143
37488SOL    HW214362   0.790   4.437   5.091
37489SOL     OW14363  14.751   6.870  10.957
37489SOL    HW114364  14.725   6.921  11.034
37489SOL    HW214365  14.727   6.780  10.978
37490SOL     OW14366   7.161   5.258   7.958
37490SOL    HW114367   7.214   5.336   7.945
37490SOL    HW214368   7.224   5.186   7.963
37491SOL     OW14369   8.443   1.852   4.346
37491SOL    HW114370   8.499   1.894   4.281
37491SOL    HW214371   8.382   1.799   4.294
37492SOL     OW14372   6.230   1.018   2.001
37492SOL    HW114373   6.152   0.963   1.993
37492SOL    HW214374   6.229   1.049   2.092
37493SOL     OW14375  11.746  10.170   5.674
37493SOL    HW114376  11.684  10.217   5.730
37493SOL    HW214377  11.810  10.133   5.735
37494SOL     OW14378   6.387   4.153   1.590
37494SOL    HW114379   6.432   4.232   1.622
37494SOL    HW214380   6.297   4.180   1.577
37495SOL     OW14381   2.414   3.681   3.266
37495SOL    HW114382   2.427   3.599   3.217
37495SOL    HW214383   2.445   3.749   3.206
37496SOL     OW14384   9.442   9.251   8.675
37496SOL    HW114385   9.449   9.224   8.766
37496SOL    HW214386   9.416   9.343   8.679
37497SOL     OW14387  11.374  10.696   5.941
37497SOL    HW114388  11.342  10.785   5.927
37497SOL    HW214389  11.411  10.669   5.857
37498SOL     OW14390  12.435   6.299  11.335
37498SOL    HW114391  12.484   6.285  11.417
37498SOL    HW214392  12.349   6.259  11.352
37499SOL     OW14393  13.408   4.974   3.959
37499SOL    HW114394  13.479   5.016   4.007
37499SOL    HW214395  13.440   4.885   3.943
37500SOL     OW14396   4.146   9.145  14.253
37500SOL    HW114397   4.090   9.222  14.255
37500SOL    HW214398   4.234   9.179  14.243
37501SOL     OW14399  11.110   5.798  14.365
37501SOL    HW114400  11.094   5.780  14.458
37501SOL    HW214401  11.024   5.787  14.324
37502SOL     OW14402   4.443   3.503   3.214
37502SOL    HW114403   4.398   3.588   3.210
37502SOL    HW214404   4.478   3.491   3.126
37503SOL     OW14405   5.182   2.238  14.275
37503SOL    HW114406   5.266   2.264  14.312
37503SOL    HW214407   5.147   2.319  14.236
37504SOL     OW14408   1.434  13.390  10.404
37504SOL    HW114409   1.350  13.435  10.414
37504SOL    HW214410   1.411  13.297  10.407
37505SOL     OW14411   0.482   4.386   5.556
37505SOL    HW114412   0.543   4.314   5.568
37505SOL    HW214413   0.436   4.366   5.475
37506SOL     OW14414  10.683  10.316   9.326
37506SOL    HW114415  10.640  10.253   9.383
37506SOL    HW214416  10.698  10.269   9.244
37507SOL     OW14417   2.586  11.790   9.735
37507SOL    HW114418   2.635  11.857   9.783
37507SOL    HW214419   2.509  11.773   9.790
37508SOL     OW14420   4.878  10.053   2.640
37508SOL    HW114421   4.972  10.064   2.625
37508SOL    HW214422   4.871  10.030   2.733
37509SOL     OW14423   5.302   7.499  13.330
37509SOL    HW114424   5.267   7.588  13.323
37509SOL    HW214425   5.310   7.484  13.425
37510SOL     OW14426   5.288   6.337   7.648
37510SOL    HW114427   5.288   6.427   7.616
37510SOL    HW214428   5.328   6.286   7.577
37511SOL     OW14429   4.271  10.922   1.450
37511SOL    HW114430   4.178  10.903   1.462
37511SOL    HW214431   4.281  10.935   1.356
37512SOL     OW14432   9.271   9.257   2.721
37512SOL    HW114433   9.339   9.190   2.722
37512SOL    HW214434   9.231   9.251   2.634
37513SOL     OW14435  13.660  13.518   4.764
37513SOL    HW114436  13.717  13.571   4.709
37513SOL    HW214437  13.574  13.522   4.721
37514SOL     OW14438   4.737  13.053  11.144
37514SOL    HW114439   4.705  12.993  11.077
37514SOL    HW214440   4.696  13.023  11.225
37515SOL     OW14441   7.996  10.286  13.299
37515SOL    HW114442   8.012  10.318  13.210
37515SOL    HW214443   8.054  10.339  13.354
37516SOL     OW14444   8.584  11.012   4.917
37516SOL    HW114445   8.644  11.078   4.880
37516SOL    HW214446   8.597  10.935   4.863
37517SOL     OW14447   3.043   9.916   7.941
37517SOL    HW114448   3.125   9.892   7.983
37517SOL    HW214449   3.014   9.995   7.987
37518SOL     OW14450   0.905  14.747  13.380
37518SOL    HW114451   0.944  14.830  13.352
37518SOL    HW214452   0.834  14.773  13.439
37519SOL     OW14453   8.985   7.878  12.914
37519SOL    HW114454   8.980   7.972  12.894
37519SOL    HW214455   9.031   7.840  12.839
37520SOL     OW14456   8.503  11.769   2.257
37520SOL    HW114457   8.496  11.692   2.200
37520SOL    HW214458   8.413  11.789   2.282
37521SOL     OW14459   3.898   0.210  10.353
37521SOL    HW114460   3.857   0.185  10.271
37521SOL    HW214461   3.869   0.300  10.368
37522SOL     OW14462  12.364   0.149  10.554
37522SOL    HW114463  12.271   0.129  10.545
37522SOL    HW214464  12.386   0.196  10.473
37523SOL     OW14465  12.654   2.213  11.044
37523SOL    HW114466  12.589   2.232  11.112
37523SOL    HW214467  12.660   2.117  11.043
37524SOL     OW14468  14.465   5.656  13.244
37524SOL    HW114469  14.477   5.563  13.229
37524SOL    HW214470  14.545   5.684  13.289
37525SOL     OW14471   4.879  13.288  11.036
37525SOL    HW114472   4.906  13.244  10.955
37525SOL    HW214473   4.858  13.216  11.096
37526SOL     OW14474  14.431   3.368  12.726
37526SOL    HW114475  14.401   3.286  12.763
37526SOL    HW214476  14.351   3.417  12.706
37527SOL     OW14477   1.663  13.966   8.743
37527SOL    HW114478   1.591  14.015   8.783
37527SOL    HW214479   1.626  13.929   8.663
37528SOL     OW14480  12.066   8.148   3.506
37528SOL    HW114481  12.094   8.177   3.593
37528SOL    HW214482  12.044   8.229   3.459
37529SOL     OW14483  10.973  11.361   7.102
37529SOL    HW114484  10.986  11.420   7.027
37529SOL    HW214485  10.913  11.294   7.070
37530SOL     OW14486  14.633  14.436   1.166
37530SOL    HW114487  14.685  14.406   1.091
37530SOL    HW214488  14.595  14.519   1.137
37531SOL     OW14489   5.159   2.918   4.399
37531SOL    HW114490   5.254   2.923   4.401
37531SOL    HW214491   5.132   2.992   4.345
37532SOL     OW14492   4.311   6.039  12.848
37532SOL    HW114493   4.331   6.082  12.931
37532SOL    HW214494   4.346   6.098  12.781
37533SOL     OW14495   4.800   6.311   8.094
37533SOL    HW114496   4.874   6.317   8.155
37533SOL    HW214497   4.739   6.251   8.136
37534SOL     OW14498   3.031  13.009   5.361
37534SOL    HW114499   3.109  12.964   5.392
37534SOL    HW214500   3.021  13.084   5.419
37535SOL     OW14501   9.749   3.779  12.933
37535SOL    HW114502   9.656   3.802  12.925
37535SOL    HW214503   9.790   3.860  12.964
37536SOL     OW14504   1.056   8.169   4.966
37536SOL    HW114505   1.143   8.142   4.995
37536SOL    HW214506   1.020   8.217   5.040
37537SOL     OW14507  12.143  11.650   8.398
37537SOL    HW114508  12.173  11.741   8.399
37537SOL    HW214509  12.147  11.624   8.306
37538SOL     OW14510  10.513   6.924  12.891
37538SOL    HW114511  10.496   6.970  12.974
37538SOL    HW214512  10.604   6.943  12.871
37539SOL     OW14513  12.510  10.827   7.362
37539SOL    HW114514  12.454  10.891   7.405
37539SOL    HW214515  12.579  10.878   7.321
37540SOL     OW14516   5.298   1.931   2.615
37540SOL    HW114517   5.338   2.013   2.587
37540SOL    HW214518   5.316   1.925   2.708
37541SOL     OW14519   3.681   0.804  11.094
37541SOL    HW114520   3.692   0.854  11.013
37541SOL    HW214521   3.637   0.723  11.067
37542SOL     OW14522   0.729  13.896  11.993
37542SOL    HW114523   0.788  13.957  12.038
37542SOL    HW214524   0.782  13.857  11.924
37543SOL     OW14525   2.457   0.860  12.392
37543SOL    HW114526   2.497   0.805  12.458
37543SOL    HW214527   2.363   0.851  12.406
37544SOL     OW14528  13.914   6.985   0.766
37544SOL    HW114529  13.928   7.052   0.699
37544SOL    HW214530  13.934   6.903   0.722
37545SOL     OW14531  11.796   4.389  10.781
37545SOL    HW114532  11.795   4.484  10.767
37545SOL    HW214533  11.779   4.378  10.875
37546SOL     OW14534   5.032   2.448   5.249
37546SOL    HW114535   5.087   2.432   5.171
37546SOL    HW214536   4.942   2.443   5.216
37547SOL     OW14537   9.132   3.775  10.019
37547SOL    HW114538   9.123   3.818  10.104
37547SOL    HW214539   9.052   3.799   9.972
37548SOL     OW14540  10.324   1.608   1.625
37548SOL    HW114541  10.384   1.538   1.647
37548SOL    HW214542  10.278   1.577   1.547
37549SOL     OW14543   3.716   2.619   7.510
37549SOL    HW114544   3.741   2.540   7.463
37549SOL    HW214545   3.798   2.668   7.520
37550SOL     OW14546   7.414  10.501   0.951
37550SOL    HW114547   7.440  10.522   0.861
37550SOL    HW214548   7.395  10.585   0.992
37551SOL     OW14549  13.028   8.273   8.052
37551SOL    HW114550  12.957   8.299   8.110
37551SOL    HW214551  13.019   8.179   8.043
37552SOL     OW14552   0.923   4.367   1.333
37552SOL    HW114553   1.002   4.390   1.381
37552SOL    HW214554   0.946   4.381   1.241
37553SOL     OW14555   7.613   3.704  14.353
37553SOL    HW114556   7.570   3.779  14.396
37553SOL    HW214557   7.549   3.633  14.360
37554SOL     OW14558   9.667  14.596   2.443
37554SOL    HW114559   9.655  14.509   2.405
37554SOL    HW214560   9.594  14.606   2.504
37555SOL     OW14561   5.910  11.202  11.730
37555SOL    HW114562   5.824  11.198  11.689
37555SOL    HW214563   5.906  11.278  11.787
37556SOL     OW14564   9.701  12.790   1.589
37556SOL    HW114565   9.652  12.814   1.511
37556SOL    HW214566   9.692  12.694   1.594
37557SOL     OW14567  13.721  12.765   3.558
37557SOL    HW114568  13.716  12.861   3.557
37557SOL    HW214569  13.678  12.738   3.477
37558SOL     OW14570   5.201   8.923   0.336
37558SOL    HW114571   5.280   8.970   0.361
37558SOL    HW214572   5.180   8.868   0.413
37559SOL     OW14573   4.912   0.657   6.815
37559SOL    HW114574   4.967   0.630   6.888
37559SOL    HW214575   4.952   0.738   6.784
37560SOL     OW14576   2.949  12.986   4.880
37560SOL    HW114577   2.996  13.041   4.942
37560SOL    HW214578   2.899  13.047   4.825
37561SOL     OW14579   0.726   3.804   9.541
37561SOL    HW114580   0.776   3.764   9.469
37561SOL    HW214581   0.668   3.734   9.572
37562SOL     OW14582   6.125   6.639  11.147
37562SOL    HW114583   6.210   6.642  11.103
37562SOL    HW214584   6.071   6.701  11.099
37563SOL     OW14585   8.909  10.844   5.010
37563SOL    HW114586   8.905  10.933   4.974
37563SOL    HW214587   8.898  10.787   4.933
37564SOL     OW14588   0.658   4.939   4.872
37564SOL    HW114589   0.575   4.987   4.864
37564SOL    HW214590   0.634   4.847   4.857
37565SOL     OW14591   0.794   2.047   9.518
37565SOL    HW114592   0.855   1.993   9.569
37565SOL    HW214593   0.847   2.079   9.445
37566SOL     OW14594   3.617   4.412  10.786
37566SOL    HW114595   3.617   4.356  10.708
37566SOL    HW214596   3.709   4.416  10.812
37567SOL     OW14597   7.234  14.730   9.811
37567SOL    HW114598   7.289  14.786   9.756
37567SOL    HW214599   7.252  14.758   9.900
37568SOL     OW14600   5.216   1.210  14.742
37568SOL    HW114601   5.177   1.146  14.682
37568SOL    HW214602   5.309   1.186  14.746
37569SOL     OW14603   2.169   8.187   8.108
37569SOL    HW114604   2.206   8.223   8.189
37569SOL    HW214605   2.074   8.190   8.122
37570SOL     OW14606   9.628   5.296   4.505
37570SOL    HW114607   9.617   5.318   4.597
37570SOL    HW214608   9.700   5.350   4.475
37571SOL     OW14609  12.219   1.225   0.224
37571SOL    HW114610  12.232   1.142   0.179
37571SOL    HW214611  12.297   1.235   0.279
37572SOL     OW14612   2.240   3.847   7.209
37572SOL    HW114613   2.281   3.780   7.156
37572SOL    HW214614   2.293   3.926   7.195
37573SOL     OW14615  11.949  13.574   7.134
37573SOL    HW114616  11.920  13.483   7.124
37573SOL    HW214617  12.040  13.567   7.164
37574SOL     OW14618   7.026   9.344   6.155
37574SOL    HW114619   7.066   9.384   6.078
37574SOL    HW214620   6.990   9.417   6.205
37575SOL     OW14621  14.212   0.780   6.312
37575SOL    HW114622  14.266   0.857   6.293
37575SOL    HW214623  14.252   0.709   6.261
37576SOL     OW14624   7.732   6.323  10.051
37576SOL    HW114625   7.710   6.408  10.013
37576SOL    HW214626   7.811   6.296  10.004
37577SOL     OW14627  12.290  13.293   7.541
37577SOL    HW114628  12.261  13.232   7.473
37577SOL    HW214629  12.213  13.304   7.597
37578SOL     OW14630  14.185   6.660   2.328
37578SOL    HW114631  14.269   6.704   2.320
37578SOL    HW214632  14.174   6.613   2.245
37579SOL     OW14633   8.734   5.516  14.769
37579SOL    HW114634   8.737   5.482  14.858
37579SOL    HW214635   8.698   5.604  14.778
37580SOL     OW14636   2.488  13.635  12.370
37580SOL    HW114637   2.563  13.670  12.322
37580SOL    HW214638   2.420  13.623  12.304
37581SOL     OW14639   6.900   0.647   6.882
37581SOL    HW114640   6.858   0.655   6.968
37581SOL    HW214641   6.889   0.555   6.859
37582SOL     OW14642  11.205   2.395   9.187
37582SOL    HW114643  11.270   2.349   9.134
37582SOL    HW214644  11.256   2.447   9.249
37583SOL     OW14645   5.460   6.492  14.164
37583SOL    HW114646   5.509   6.412  14.177
37583SOL    HW214647   5.378   6.478  14.213
37584SOL     OW14648   9.920   9.297   0.647
37584SOL    HW114649  10.006   9.317   0.685
37584SOL    HW214650   9.937   9.219   0.592
37585SOL     OW14651   6.537   8.508   4.694
37585SOL    HW114652   6.457   8.460   4.716
37585SOL    HW214653   6.519   8.547   4.608
37586SOL     OW14654   6.384   0.133  13.000
37586SOL    HW114655   6.301   0.103  13.037
37586SOL    HW214656   6.399   0.219  13.041
37587SOL     OW14657   6.733  12.726  14.441
37587SOL    HW114658   6.758  12.729  14.348
37587SOL    HW214659   6.653  12.674  14.443
37588SOL     OW14660   6.693   5.485   9.439
37588SOL    HW114661   6.674   5.445   9.524
37588SOL    HW214662   6.716   5.576   9.460
37589SOL     OW14663   5.335   1.108   3.094
37589SOL    HW114664   5.348   1.175   3.161
37589SOL    HW214665   5.423   1.090   3.062
37590SOL     OW14666  11.947   5.096  12.512
37590SOL    HW114667  11.991   5.162  12.566
37590SOL    HW214668  11.942   5.136  12.425
37591SOL     OW14669  11.253  10.156   3.531
37591SOL    HW114670  11.346  10.169   3.513
37591SOL    HW214671  11.210  10.232   3.492
37592SOL     OW14672  10.099   0.509  10.963
37592SOL    HW114673  10.015   0.544  10.994
37592SOL    HW214674  10.125   0.447  11.031
37593SOL     OW14675  12.854   0.372   3.556
37593SOL    HW114676  12.778   0.414   3.516
37593SOL    HW214677  12.821   0.287   3.587
37594SOL     OW14678   6.601   1.541   5.304
37594SOL    HW114679   6.682   1.584   5.277
37594SOL    HW214680   6.603   1.542   5.400
37595SOL     OW14681  10.772  12.006   7.084
37595SOL    HW114682  10.713  12.005   7.159
37595SOL    HW214683  10.858  12.028   7.121
37596SOL     OW14684   0.856   5.211   7.625
37596SOL    HW114685   0.920   5.172   7.685
37596SOL    HW214686   0.811   5.136   7.586
37597SOL     OW14687  14.425   9.290   0.251
37597SOL    HW114688  14.424   9.327   0.339
37597SOL    HW214689  14.386   9.203   0.261
37598SOL     OW14690  14.309   8.662   6.088
37598SOL    HW114691  14.304   8.590   6.151
37598SOL    HW214692  14.298   8.741   6.140
37599SOL     OW14693  12.908   2.515   3.516
37599SOL    HW114694  12.853   2.489   3.443
37599SOL    HW214695  12.992   2.473   3.499
37600SOL     OW14696  12.626   3.825   8.375
37600SOL    HW114697  12.545   3.816   8.424
37600SOL    HW214698  12.625   3.914   8.342
37601SOL     OW14699   0.595   3.067  10.692
37601SOL    HW114700   0.688   3.092  10.690
37601SOL    HW214701   0.573   3.053  10.600
37602SOL     OW14702  12.880  11.060   4.225
37602SOL    HW114703  12.957  11.116   4.218
37602SOL    HW214704  12.872  11.019   4.139
37603SOL     OW14705   5.503   5.387   6.635
37603SOL    HW114706   5.541   5.357   6.718
37603SOL    HW214707   5.553   5.466   6.613
37604SOL     OW14708  13.779   9.417   3.361
37604SOL    HW114709  13.820   9.501   3.340
37604SOL    HW214710  13.742   9.386   3.278
37605SOL     OW14711   7.376   6.857  11.921
37605SOL    HW114712   7.359   6.889  11.832
37605SOL    HW214713   7.455   6.904  11.949
37606SOL     OW14714   6.871  12.110   5.957
37606SOL    HW114715   6.830  12.194   5.935
37606SOL    HW214716   6.855  12.099   6.051
37607SOL     OW14717   3.083  10.024  10.666
37607SOL    HW114718   3.160   9.975  10.636
37607SOL    HW214719   3.069  10.090  10.599
37608SOL     OW14720  12.149  14.117   1.383
37608SOL    HW114721  12.120  14.188   1.439
37608SOL    HW214722  12.068  14.073   1.356
37609SOL     OW14723  14.313   5.521  14.322
37609SOL    HW114724  14.227   5.484  14.305
37609SOL    HW214725  14.295   5.607  14.360
37610SOL     OW14726  10.062  14.667   7.713
37610SOL    HW114727  10.094  14.581   7.741
37610SOL    HW214728   9.987  14.648   7.657
37611SOL     OW14729  14.317  13.637   8.434
37611SOL    HW114730  14.379  13.661   8.366
37611SOL    HW214731  14.301  13.544   8.420
37612SOL     OW14732   5.159  14.147  13.076
37612SOL    HW114733   5.100  14.139  13.001
37612SOL    HW214734   5.165  14.242  13.091
37613SOL     OW14735   6.939  13.620  10.287
37613SOL    HW114736   6.894  13.535  10.291
37613SOL    HW214737   6.961  13.639  10.378
37614SOL     OW14738   3.345  14.588   9.625
37614SOL    HW114739   3.355  14.567   9.717
37614SOL    HW214740   3.314  14.678   9.624
37615SOL     OW14741   3.891   9.159   6.431
37615SOL    HW114742   3.823   9.096   6.408
37615SOL    HW214743   3.956   9.152   6.361
37616SOL     OW14744  12.177   6.977   9.729
37616SOL    HW114745  12.175   7.010   9.819
37616SOL    HW214746  12.231   7.040   9.682
37617SOL     OW14747   1.050   8.908  11.924
37617SOL    HW114748   1.125   8.925  11.980
37617SOL    HW214749   1.040   8.813  11.925
37618SOL     OW14750   7.837  13.089   9.782
37618SOL    HW114751   7.767  13.054   9.727
37618SOL    HW214752   7.915  13.039   9.757
37619SOL     OW14753   2.540   1.918   9.823
37619SOL    HW114754   2.582   2.001   9.846
37619SOL    HW214755   2.563   1.903   9.732
37620SOL     OW14756   6.609   3.201   4.715
37620SOL    HW114757   6.631   3.244   4.632
37620SOL    HW214758   6.514   3.206   4.721
37621SOL     OW14759   0.983   5.251   1.032
37621SOL    HW114760   0.917   5.183   1.047
37621SOL    HW214761   0.944   5.307   0.965
37622SOL     OW14762  12.610  11.487   0.298
37622SOL    HW114763  12.562  11.486   0.215
37622SOL    HW214764  12.589  11.402   0.339
37623SOL     OW14765   4.114   4.867   9.971
37623SOL    HW114766   4.148   4.925  10.039
37623SOL    HW214767   4.063   4.924   9.914
37624SOL     OW14768  10.107  11.050   2.410
37624SOL    HW114769  10.192  11.068   2.369
37624SOL    HW214770  10.086  11.130   2.458
37625SOL     OW14771   8.441   0.111  11.930
37625SOL    HW114772   8.361   0.086  11.885
37625SOL    HW214773   8.477   0.182  11.877
37626SOL     OW14774  13.779   7.336   4.102
37626SOL    HW114775  13.773   7.376   4.015
37626SOL    HW214776  13.785   7.242   4.084
37627SOL     OW14777  12.534  14.227  10.979
37627SOL    HW114778  12.585  14.292  10.930
37627SOL    HW214779  12.591  14.203  11.053
37628SOL     OW14780   9.364   2.560   9.264
37628SOL    HW114781   9.357   2.647   9.223
37628SOL    HW214782   9.313   2.503   9.207
37629SOL     OW14783  13.151   9.231   0.476
37629SOL    HW114784  13.068   9.216   0.523
37629SOL    HW214785  13.124   9.260   0.389
37630SOL     OW14786  12.707   1.012   5.761
37630SOL    HW114787  12.683   1.030   5.670
37630SOL    HW214788  12.712   0.916   5.766
37631SOL     OW14789   2.235   0.803   5.229
37631SOL    HW114790   2.201   0.745   5.160
37631SOL    HW214791   2.273   0.743   5.293
37632SOL     OW14792  10.976   1.533   7.291
37632SOL    HW114793  11.031   1.465   7.330
37632SOL    HW214794  11.018   1.554   7.209
37633SOL     OW14795   8.131   5.089  12.333
37633SOL    HW114796   8.084   5.158  12.380
37633SOL    HW214797   8.073   5.013  12.338
37634SOL     OW14798   2.903  14.360   3.961
37634SOL    HW114799   2.898  14.393   3.871
37634SOL    HW214800   2.812  14.354   3.989
37635SOL     OW14801   4.389  13.102  14.262
37635SOL    HW114802   4.295  13.116  14.272
37635SOL    HW214803   4.410  13.033  14.325
37636SOL     OW14804  11.502   3.992   9.987
37636SOL    HW114805  11.436   3.923   9.983
37636SOL    HW214806  11.453   4.073   9.975
37637SOL     OW14807   5.120  14.812  11.048
37637SOL    HW114808   5.157  14.723  11.049
37637SOL    HW214809   5.071  14.816  10.965
37638SOL     OW14810  13.146   9.064  13.450
37638SOL    HW114811  13.096   9.124  13.396
37638SOL    HW214812  13.096   8.983  13.449
37639SOL     OW14813   3.980   1.804  10.847
37639SOL    HW114814   4.063   1.822  10.892
37639SOL    HW214815   3.913   1.821  10.913
37640SOL     OW14816   9.311   9.771   8.213
37640SOL    HW114817   9.325   9.837   8.281
37640SOL    HW214818   9.371   9.796   8.143
37641SOL     OW14819  12.276   4.437  11.447
37641SOL    HW114820  12.367   4.426  11.420
37641SOL    HW214821  12.242   4.348  11.452
37642SOL     OW14822   9.216  14.802  13.074
37642SOL    HW114823   9.285  14.750  13.033
37642SOL    HW214824   9.226   0.020  13.036
37643SOL     OW14825   1.466   2.215   0.585
37643SOL    HW114826   1.376   2.229   0.556
37643SOL    HW214827   1.520   2.253   0.515
37644SOL     OW14828   8.343  12.332   0.568
37644SOL    HW114829   8.384  12.285   0.495
37644SOL    HW214830   8.295  12.404   0.527
37645SOL     OW14831   2.091   7.925  12.364
37645SOL    HW114832   2.133   7.885  12.289
37645SOL    HW214833   2.072   8.015  12.336
37646SOL     OW14834   4.956   6.849   3.275
37646SOL    HW114835   5.018   6.779   3.255
37646SOL    HW214836   4.993   6.893   3.351
37647SOL     OW14837  11.006   2.923   0.024
37647SOL    HW114838  10.924   2.967  14.869
37647SOL    HW214839  11.026   2.957   0.111
37648SOL     OW14840   6.303  11.349   2.575
37648SOL    HW114841   6.278  11.318   2.662
37648SOL    HW214842   6.224  11.338   2.522
37649SOL     OW14843   8.265  11.800   8.445
37649SOL    HW114844   8.269  11.884   8.491
37649SOL    HW214845   8.178  11.765   8.468
37650SOL     OW14846   8.588   8.772   1.618
37650SOL    HW114847   8.530   8.716   1.566
37650SOL    HW214848   8.535   8.850   1.636
37651SOL     OW14849   3.676   0.476   1.241
37651SOL    HW114850   3.729   0.424   1.302
37651SOL    HW214851   3.641   0.547   1.294
37652SOL     OW14852   4.269   7.936   2.532
37652SOL    HW114853   4.176   7.950   2.553
37652SOL    HW214854   4.268   7.869   2.464
37653SOL     OW14855  10.507   4.809   4.817
37653SOL    HW114856  10.538   4.722   4.842
37653SOL    HW214857  10.423   4.819   4.861
37654SOL     OW14858   0.970  14.862   0.246
37654SOL    HW114859   1.043  14.809   0.213
37654SOL    HW214860   0.893  14.807   0.230
37655SOL     OW14861   8.889   6.940   1.030
37655SOL    HW114862   8.891   7.018   0.975
37655SOL    HW214863   8.925   6.871   0.974
37656SOL     OW14864   0.838  13.273   7.110
37656SOL    HW114865   0.818  13.365   7.127
37656SOL    HW214866   0.759  13.239   7.067
37657SOL     OW14867   2.471   7.917  12.962
37657SOL    HW114868   2.434   7.843  13.011
37657SOL    HW214869   2.399   7.979  12.956
37658SOL     OW14870   5.131   2.340   5.028
37658SOL    HW114871   5.129   2.352   4.934
37658SOL    HW214872   5.100   2.250   5.042
37659SOL     OW14873   3.505  14.543   2.385
37659SOL    HW114874   3.491  14.526   2.478
37659SOL    HW214875   3.417  14.538   2.347
37660SOL     OW14876   6.804   0.796   2.254
37660SOL    HW114877   6.753   0.777   2.333
37660SOL    HW214878   6.813   0.712   2.210
37661SOL     OW14879   8.600   6.977  12.747
37661SOL    HW114880   8.596   6.881  12.752
37661SOL    HW214881   8.509   7.005  12.753
37662SOL     OW14882   3.585   0.299  14.320
37662SOL    HW114883   3.680   0.303  14.321
37662SOL    HW214884   3.564   0.206  14.333
37663SOL     OW14885   3.357  11.612   0.542
37663SOL    HW114886   3.376  11.686   0.600
37663SOL    HW214887   3.322  11.544   0.599
37664SOL     OW14888  13.487   1.539  13.203
37664SOL    HW114889  13.535   1.621  13.209
37664SOL    HW214890  13.554   1.471  13.214
37665SOL     OW14891  10.131  14.607   9.461
37665SOL    HW114892  10.124  14.514   9.484
37665SOL    HW214893  10.124  14.653   9.545
37666SOL     OW14894   0.726   5.196  13.145
37666SOL    HW114895   0.812   5.181  13.106
37666SOL    HW214896   0.675   5.118  13.123
37667SOL     OW14897  14.178   0.408   9.194
37667SOL    HW114898  14.211   0.402   9.104
37667SOL    HW214899  14.216   0.331   9.238
37668SOL     OW14900   8.652   1.973  13.778
37668SOL    HW114901   8.623   1.884  13.797
37668SOL    HW214902   8.747   1.969  13.785
37669SOL     OW14903  10.997   3.797   8.670
37669SOL    HW114904  10.908   3.818   8.697
37669SOL    HW214905  10.997   3.702   8.657
37670SOL     OW14906   3.940   8.568  10.714
37670SOL    HW114907   3.892   8.565  10.631
37670SOL    HW214908   3.976   8.657  10.718
37671SOL     OW14909  12.832  13.958   5.748
37671SOL    HW114910  12.823  13.867   5.775
37671SOL    HW214911  12.760  13.972   5.687
37672SOL     OW14912   7.964   8.850   6.358
37672SOL    HW114913   7.952   8.771   6.412
37672SOL    HW214914   8.030   8.825   6.294
37673SOL     OW14915  10.199   2.257  12.402
37673SOL    HW114916  10.190   2.212  12.318
37673SOL    HW214917  10.202   2.350  12.380
37674SOL     OW14918   3.046   2.463   0.908
37674SOL    HW114919   3.034   2.544   0.957
37674SOL    HW214920   3.035   2.488   0.816
37675SOL     OW14921  14.106  14.265  12.657
37675SOL    HW114922  14.097  14.326  12.584
37675SOL    HW214923  14.029  14.209  12.652
37676SOL     OW14924   2.465   2.166   0.687
37676SOL    HW114925   2.482   2.105   0.616
37676SOL    HW214926   2.511   2.130   0.762
37677SOL     OW14927   7.544  14.308   5.387
37677SOL    HW114928   7.580  14.397   5.394
37677SOL    HW214929   7.509  14.304   5.297
37678SOL     OW14930   5.708   4.952   8.666
37678SOL    HW114931   5.681   5.004   8.591
37678SOL    HW214932   5.638   4.964   8.731
37679SOL     OW14933   4.341   4.281   6.419
37679SOL    HW114934   4.422   4.282   6.368
37679SOL    HW214935   4.370   4.267   6.509
37680SOL     OW14936   6.787   6.901   0.177
37680SOL    HW114937   6.800   6.840   0.250
37680SOL    HW214938   6.718   6.960   0.207
37681SOL     OW14939   4.661   7.757   2.373
37681SOL    HW114940   4.594   7.690   2.359
37681SOL    HW214941   4.741   7.720   2.336
37682SOL     OW14942   8.649   3.310   4.197
37682SOL    HW114943   8.588   3.363   4.145
37682SOL    HW214944   8.609   3.307   4.284
37683SOL     OW14945  10.947   8.002  10.601
37683SOL    HW114946  10.875   8.032  10.657
37683SOL    HW214947  10.950   8.066  10.530
37684SOL     OW14948   6.234  10.661  10.765
37684SOL    HW114949   6.152  10.613  10.762
37684SOL    HW214950   6.248  10.691  10.675
37685SOL     OW14951   6.269   2.576  14.402
37685SOL    HW114952   6.194   2.624  14.438
37685SOL    HW214953   6.238   2.485  14.398
37686SOL     OW14954   8.350  14.442   5.709
37686SOL    HW114955   8.264  14.477   5.734
37686SOL    HW214956   8.331  14.379   5.640
37687SOL     OW14957  12.741   1.059   2.083
37687SOL    HW114958  12.803   1.128   2.061
37687SOL    HW214959  12.656   1.102   2.084
37688SOL     OW14960   9.230   8.415  12.854
37688SOL    HW114961   9.269   8.501  12.835
37688SOL    HW214962   9.237   8.367  12.772
37689SOL     OW14963   9.822   6.489   6.311
37689SOL    HW114964   9.833   6.583   6.323
37689SOL    HW214965   9.753   6.482   6.244
37690SOL     OW14966  10.450   0.296   7.032
37690SOL    HW114967  10.426   0.203   7.027
37690SOL    HW214968  10.369   0.342   7.008
37691SOL     OW14969  13.321   4.650   5.643
37691SOL    HW114970  13.282   4.722   5.593
37691SOL    HW214971  13.379   4.606   5.582
37692SOL     OW14972   6.266  11.309  10.581
37692SOL    HW114973   6.185  11.288  10.628
37692SOL    HW214974   6.320  11.230  10.589
37693SOL     OW14975  11.985   6.403   0.026
37693SOL    HW114976  12.002   6.322  14.848
37693SOL    HW214977  12.044   6.400   0.101
37694SOL     OW14978   3.247   1.944  13.256
37694SOL    HW114979   3.217   1.955  13.166
37694SOL    HW214980   3.272   2.032  13.284
37695SOL     OW14981   4.449   0.641   7.346
37695SOL    HW114982   4.506   0.646   7.268
37695SOL    HW214983   4.364   0.670   7.315
37696SOL     OW14984  13.347   6.233  14.421
37696SOL    HW114985  13.338   6.162  14.357
37696SOL    HW214986  13.352   6.188  14.505
37697SOL     OW14987  11.175  12.440   6.946
37697SOL    HW114988  11.268  12.422   6.930
37697SOL    HW214989  11.129  12.367   6.905
37698SOL     OW14990   2.773  14.080   0.445
37698SOL    HW114991   2.824  14.007   0.480
37698SOL    HW214992   2.696  14.085   0.502
37699SOL     OW14993  11.142   4.191  10.814
37699SOL    HW114994  11.126   4.124  10.881
37699SOL    HW214995  11.219   4.159  10.766
37700SOL     OW14996   0.986  14.143   4.087
37700SOL    HW114997   1.007  14.236   4.093
37700SOL    HW214998   1.029  14.104   4.163
37701SOL     OW14999  14.584  11.070   9.228
37701SOL    HW115000  14.587  11.024   9.143
37701SOL    HW215001  14.556  11.159   9.206
37702SOL     OW15002  11.084   5.652  14.614
37702SOL    HW115003  11.166   5.629  14.658
37702SOL    HW215004  11.036   5.569  14.609
37703SOL     OW15005   0.458   1.051  13.593
37703SOL    HW115006   0.470   1.068  13.687
37703SOL    HW215007   0.449   0.956  13.588
37704SOL     OW15008   5.878   0.192  13.263
37704SOL    HW115009   5.902   0.162  13.351
37704SOL    HW215010   5.801   0.247  13.277
37705SOL     OW15011   9.722   6.119   0.501
37705SOL    HW115012   9.688   6.051   0.559
37705SOL    HW215013   9.724   6.078   0.414
37706SOL     OW15014  11.189   6.564  12.243
37706SOL    HW115015  11.159   6.503  12.310
37706SOL    HW215016  11.123   6.633  12.242
37707SOL     OW15017  13.316   0.181  12.312
37707SOL    HW115018  13.240   0.235  12.332
37707SOL    HW215019  13.387   0.244  12.298
37708SOL     OW15020   6.808   5.802  13.170
37708SOL    HW115021   6.748   5.874  13.189
37708SOL    HW215022   6.857   5.790  13.251
37709SOL     OW15023   4.793   8.397  10.616
37709SOL    HW115024   4.763   8.487  10.632
37709SOL    HW215025   4.767   8.348  10.694
37710SOL     OW15026   1.559   6.710   8.637
37710SOL    HW115027   1.617   6.683   8.709
37710SOL    HW215028   1.568   6.806   8.634
37711SOL     OW15029   9.089   8.223   9.305
37711SOL    HW115030   9.024   8.155   9.318
37711SOL    HW215031   9.043   8.291   9.256
37712SOL     OW15032   7.894  10.171  11.177
37712SOL    HW115033   7.809  10.211  11.191
37712SOL    HW215034   7.927  10.212  11.097
37713SOL     OW15035  12.413   8.500   8.780
37713SOL    HW115036  12.416   8.411   8.815
37713SOL    HW215037  12.345   8.543   8.830
37714SOL     OW15038   7.529   5.514  13.423
37714SOL    HW115039   7.445   5.558  13.411
37714SOL    HW215040   7.509   5.421  13.413
37715SOL     OW15041   9.939  10.254  11.988
37715SOL    HW115042   9.861  10.303  12.016
37715SOL    HW215043   9.905  10.189  11.926
37716SOL     OW15044   7.965  12.087   2.303
37716SOL    HW115045   7.966  12.132   2.218
37716SOL    HW215046   7.882  12.111   2.342
37717SOL     OW15047   1.037   3.636   0.271
37717SOL    HW115048   1.041   3.561   0.330
37717SOL    HW215049   0.992   3.704   0.321
37718SOL     OW15050   8.085   7.357   1.913
37718SOL    HW115051   8.083   7.447   1.882
37718SOL    HW215052   8.177   7.341   1.934
37719SOL     OW15053   7.332   1.429  12.929
37719SOL    HW115054   7.309   1.514  12.889
37719SOL    HW215055   7.256   1.374  12.911
37720SOL     OW15056   5.414   2.260   2.871
37720SOL    HW115057   5.465   2.319   2.926
37720SOL    HW215058   5.324   2.269   2.902
37721SOL     OW15059   5.723   2.536  13.947
37721SOL    HW115060   5.699   2.459  13.999
37721SOL    HW215061   5.669   2.529  13.868
37722SOL     OW15062   9.001  11.928   4.429
37722SOL    HW115063   8.945  11.867   4.382
37722SOL    HW215064   9.042  11.980   4.360
37723SOL     OW15065  11.842   2.875   5.113
37723SOL    HW115066  11.805   2.871   5.025
37723SOL    HW215067  11.827   2.965   5.141
37724SOL     OW15068   0.229  12.402   4.560
37724SOL    HW115069   0.322  12.421   4.576
37724SOL    HW215070   0.211  12.442   4.475
37725SOL     OW15071  11.773   8.382   9.936
37725SOL    HW115072  11.757   8.473   9.911
37725SOL    HW215073  11.689   8.352   9.971
37726SOL     OW15074  12.451  13.407   5.703
37726SOL    HW115075  12.423  13.326   5.745
37726SOL    HW215076  12.476  13.381   5.614
37727SOL     OW15077   2.228   3.924   6.322
37727SOL    HW115078   2.305   3.874   6.350
37727SOL    HW215079   2.265   4.004   6.282
37728SOL     OW15080   3.734   2.770   4.221
37728SOL    HW115081   3.712   2.861   4.240
37728SOL    HW215082   3.652   2.732   4.188
37729SOL     OW15083  11.899   9.849   2.627
37729SOL    HW115084  11.821   9.800   2.598
37729SOL    HW215085  11.949   9.785   2.678
37730SOL     OW15086   9.226   8.891   8.680
37730SOL    HW115087   9.272   8.962   8.724
37730SOL    HW215088   9.135   8.920   8.676
37731SOL     OW15089  10.064   2.333   9.922
37731SOL    HW115090   9.984   2.364   9.964
37731SOL    HW215091  10.041   2.328   9.829
37732SOL     OW15092   3.463  14.331   8.256
37732SOL    HW115093   3.379  14.303   8.220
37732SOL    HW215094   3.461  14.427   8.252
37733SOL     OW15095   5.077  13.954  13.671
37733SOL    HW115096   5.057  13.973  13.580
37733SOL    HW215097   5.169  13.926  13.670
37734SOL     OW15098  12.276   2.046   5.297
37734SOL    HW115099  12.216   2.111   5.262
37734SOL    HW215100  12.363   2.086   5.287
37735SOL     OW15101  13.017   5.439   0.267
37735SOL    HW115102  13.035   5.484   0.350
37735SOL    HW215103  13.101   5.401   0.243
37736SOL     OW15104   8.302   9.753   4.729
37736SOL    HW115105   8.344   9.670   4.752
37736SOL    HW215106   8.260   9.736   4.644
37737SOL     OW15107   6.050   5.926  14.544
37737SOL    HW115108   5.959   5.952  14.527
37737SOL    HW215109   6.050   5.831  14.535
37738SOL     OW15110   8.513  14.422   0.589
37738SOL    HW115111   8.459  14.347   0.618
37738SOL    HW215112   8.547  14.460   0.670
37739SOL     OW15113   0.394  11.919   7.847
37739SOL    HW115114   0.472  11.958   7.888
37739SOL    HW215115   0.326  11.986   7.859
37740SOL     OW15116   4.958   4.903   8.042
37740SOL    HW115117   4.911   4.820   8.041
37740SOL    HW215118   4.996   4.910   7.955
37741SOL     OW15119   9.698   1.418   1.388
37741SOL    HW115120   9.775   1.409   1.331
37741SOL    HW215121   9.716   1.359   1.462
37742SOL     OW15122  11.235  11.938   5.689
37742SOL    HW115123  11.174  11.982   5.748
37742SOL    HW215124  11.276  12.010   5.640
37743SOL     OW15125   7.039   0.376   3.636
37743SOL    HW115126   7.104   0.441   3.610
37743SOL    HW215127   6.992   0.355   3.556
37744SOL     OW15128   3.622   4.670   9.825
37744SOL    HW115129   3.542   4.721   9.807
37744SOL    HW215130   3.672   4.724   9.886
37745SOL     OW15131  14.017   8.208   7.467
37745SOL    HW115132  13.965   8.279   7.505
37745SOL    HW215133  13.978   8.128   7.502
37746SOL     OW15134  14.410   2.846   5.614
37746SOL    HW115135  14.352   2.828   5.540
37746SOL    HW215136  14.477   2.778   5.609
37747SOL     OW15137   4.864  11.708   2.361
37747SOL    HW115138   4.828  11.721   2.449
37747SOL    HW215139   4.932  11.774   2.352
37748SOL     OW15140  11.588   3.818   3.554
37748SOL    HW115141  11.552   3.732   3.578
37748SOL    HW215142  11.511   3.874   3.547
37749SOL     OW15143   0.354   9.964   4.543
37749SOL    HW115144   0.334  10.045   4.495
37749SOL    HW215145   0.445   9.945   4.522
37750SOL     OW15146   7.779   9.660  11.813
37750SOL    HW115147   7.694   9.692  11.785
37750SOL    HW215148   7.785   9.571  11.777
37751SOL     OW15149   0.534   3.008   5.288
37751SOL    HW115150   0.538   3.015   5.383
37751SOL    HW215151   0.620   2.975   5.262
37752SOL     OW15152   1.824  10.435   7.398
37752SOL    HW115153   1.744  10.463   7.353
37752SOL    HW215154   1.828  10.491   7.476
37753SOL     OW15155  14.735  14.044   9.002
37753SOL    HW115156  14.760  14.104   8.932
37753SOL    HW215157  14.721  13.960   8.958
37754SOL     OW15158   3.200   0.018   3.787
37754SOL    HW115159   3.268  14.835   3.744
37754SOL    HW215160   3.140   0.041   3.717
37755SOL     OW15161   9.248  10.991  12.880
37755SOL    HW115162   9.307  10.995  12.804
37755SOL    HW215163   9.162  11.014  12.845
37756SOL     OW15164  13.955  12.361  11.695
37756SOL    HW115165  13.923  12.446  11.725
37756SOL    HW215166  14.049  12.364  11.710
37757SOL     OW15167   4.708  14.704   2.145
37757SOL    HW115168   4.799  14.723   2.125
37757SOL    HW215169   4.689  14.623   2.096
37758SOL     OW15170   0.026   0.369  12.142
37758SOL    HW115171   0.055   0.460  12.145
37758SOL    HW215172   0.093   0.324  12.090
37759SOL     OW15173  11.096   1.653  14.252
37759SOL    HW115174  11.130   1.709  14.182
37759SOL    HW215175  11.054   1.714  14.313
37760SOL     OW15176  12.512   4.288   8.666
37760SOL    HW115177  12.417   4.302   8.662
37760SOL    HW215178  12.547   4.341   8.595
37761SOL     OW15179   3.136   1.677  10.808
37761SOL    HW115180   3.149   1.586  10.782
37761SOL    HW215181   3.203   1.692  10.875
37762SOL     OW15182   1.353   1.945   9.140
37762SOL    HW115183   1.284   1.910   9.197
37762SOL    HW215184   1.357   1.884   9.067
37763SOL     OW15185   1.472   3.459  10.473
37763SOL    HW115186   1.413   3.534  10.467
37763SOL    HW215187   1.450   3.406  10.396
37764SOL     OW15188  11.233   8.922   7.247
37764SOL    HW115189  11.229   9.015   7.225
37764SOL    HW215190  11.295   8.885   7.184
37765SOL     OW15191   8.044   5.687   5.599
37765SOL    HW115192   8.088   5.766   5.630
37765SOL    HW215193   8.036   5.699   5.504
37766SOL     OW15194  11.135   4.952   2.313
37766SOL    HW115195  11.191   4.980   2.385
37766SOL    HW215196  11.195   4.917   2.248
37767SOL     OW15197   1.933   5.219   0.911
37767SOL    HW115198   1.994   5.150   0.883
37767SOL    HW215199   1.865   5.173   0.959
37768SOL     OW15200   4.394  14.498   6.128
37768SOL    HW115201   4.397  14.421   6.071
37768SOL    HW215202   4.362  14.568   6.072
37769SOL     OW15203   8.745   1.171  10.993
37769SOL    HW115204   8.698   1.253  10.978
37769SOL    HW215205   8.836   1.197  11.002
37770SOL     OW15206  11.747   6.443   9.185
37770SOL    HW115207  11.763   6.385   9.110
37770SOL    HW215208  11.781   6.395   9.260
37771SOL     OW15209  13.111   3.613  11.464
37771SOL    HW115210  13.100   3.550  11.392
37771SOL    HW215211  13.157   3.563  11.532
37772SOL     OW15212   6.395   9.777   0.194
37772SOL    HW115213   6.457   9.824   0.250
37772SOL    HW215214   6.316   9.831   0.195
37773SOL     OW15215   8.518   1.675   2.989
37773SOL    HW115216   8.608   1.705   2.977
37773SOL    HW215217   8.464   1.747   2.956
37774SOL     OW15218   2.332   2.967   5.970
37774SOL    HW115219   2.302   2.988   5.882
37774SOL    HW215220   2.348   2.873   5.969
37775SOL     OW15221   4.464  11.025   0.329
37775SOL    HW115222   4.456  10.960   0.259
37775SOL    HW215223   4.451  11.110   0.285
37776SOL     OW15224   8.108   4.948   0.280
37776SOL    HW115225   8.156   5.030   0.292
37776SOL    HW215226   8.169   4.891   0.234
37777SOL     OW15227   8.233  11.818   0.091
37777SOL    HW115228   8.269  11.877   0.025
37777SOL    HW215229   8.235  11.731   0.050
37778SOL     OW15230   4.017   0.302   1.132
37778SOL    HW115231   4.102   0.323   1.169
37778SOL    HW215232   3.955   0.354   1.183
37779SOL     OW15233  13.186  11.201  12.686
37779SOL    HW115234  13.226  11.184  12.771
37779SOL    HW215235  13.110  11.256  12.706
37780SOL     OW15236   1.641   9.076   4.264
37780SOL    HW115237   1.609   9.156   4.305
37780SOL    HW215238   1.709   9.044   4.323
37781SOL     OW15239  10.973   8.769  10.245
37781SOL    HW115240  10.906   8.784  10.177
37781SOL    HW215241  10.935   8.702  10.301
37782SOL     OW15242  11.976   0.720   1.174
37782SOL    HW115243  12.064   0.740   1.143
37782SOL    HW215244  11.987   0.643   1.230
37783SOL     OW15245   1.863   7.607  13.109
37783SOL    HW115246   1.935   7.580  13.053
37783SOL    HW215247   1.886   7.573  13.196
37784SOL     OW15248  14.738   4.473   7.804
37784SOL    HW115249  14.724   4.566   7.784
37784SOL    HW215250  14.790   4.473   7.884
37785SOL     OW15251   1.889   3.303  13.076
37785SOL    HW115252   1.910   3.290  13.169
37785SOL    HW215253   1.870   3.215  13.044
37786SOL     OW15254   4.184   5.766  14.789
37786SOL    HW115255   4.183   5.722  14.704
37786SOL    HW215256   4.147   5.852  14.771
37787SOL     OW15257   7.848   4.924  14.763
37787SOL    HW115258   7.819   4.905  14.853
37787SOL    HW215259   7.805   4.858  14.710
37788SOL     OW15260   0.323   0.362   6.441
37788SOL    HW115261   0.317   0.427   6.512
37788SOL    HW215262   0.263   0.395   6.374
37789SOL     OW15263   3.314  10.334  11.918
37789SOL    HW115264   3.405  10.345  11.890
37789SOL    HW215265   3.279  10.267  11.859
37790SOL     OW15266  10.864  14.087   9.842
37790SOL    HW115267  10.861  14.137   9.761
37790SOL    HW215268  10.840  13.998   9.816
37791SOL     OW15269   2.704   9.596  14.175
37791SOL    HW115270   2.672   9.677  14.213
37791SOL    HW215271   2.633   9.565  14.119
37792SOL     OW15272  10.640  14.025  13.267
37792SOL    HW115273  10.581  14.043  13.340
37792SOL    HW215274  10.669  14.112  13.238
37793SOL     OW15275   0.131  12.216   8.699
37793SOL    HW115276   0.093  12.303   8.712
37793SOL    HW215277   0.223  12.225   8.726
37794SOL     OW15278   1.378  11.214  14.335
37794SOL    HW115279   1.356  11.198  14.243
37794SOL    HW215280   1.378  11.128  14.375
37795SOL     OW15281   0.190   2.902   3.208
37795SOL    HW115282   0.214   2.978   3.261
37795SOL    HW215283   0.095   2.906   3.203
37796SOL     OW15284  10.800  11.169  10.576
37796SOL    HW115285  10.755  11.132  10.499
37796SOL    HW215286  10.766  11.119  10.650
37797SOL     OW15287   8.694   1.668   5.014
37797SOL    HW115288   8.604   1.694   4.993
37797SOL    HW215289   8.684   1.593   5.072
37798SOL     OW15290   5.471   3.726   7.896
37798SOL    HW115291   5.375   3.734   7.903
37798SOL    HW215292   5.503   3.815   7.914
37799SOL     OW15293   9.340  10.192  12.814
37799SOL    HW115294   9.404  10.262  12.804
37799SOL    HW215295   9.259  10.237  12.836
37800SOL     OW15296  14.210  10.414  13.360
37800SOL    HW115297  14.201  10.476  13.432
37800SOL    HW215298  14.120  10.401  13.329
37801SOL     OW15299   0.861  12.465   1.024
37801SOL    HW115300   0.928  12.533   1.032
37801SOL    HW215301   0.908  12.383   1.041
37802SOL     OW15302   1.823  11.060   6.019
37802SOL    HW115303   1.738  11.084   5.980
37802SOL    HW215304   1.884  11.125   5.984
37803SOL     OW15305   5.263   2.830   8.819
37803SOL    HW115306   5.170   2.850   8.827
37803SOL    HW215307   5.306   2.891   8.879
37804SOL     OW15308   9.561   3.873  13.172
37804SOL    HW115309   9.541   3.875  13.078
37804SOL    HW215310   9.588   3.962  13.192
37805SOL     OW15311  11.468   3.799  14.735
37805SOL    HW115312  11.402   3.790  14.804
37805SOL    HW215313  11.446   3.730  14.672
37806SOL     OW15314   5.605   4.826  12.951
37806SOL    HW115315   5.549   4.834  13.029
37806SOL    HW215316   5.575   4.746  12.908
37807SOL     OW15317   8.113   9.669   2.688
37807SOL    HW115318   8.174   9.662   2.614
37807SOL    HW215319   8.051   9.737   2.660
37808SOL     OW15320   1.485   4.122   7.617
37808SOL    HW115321   1.569   4.078   7.606
37808SOL    HW215322   1.433   4.062   7.671
37809SOL     OW15323   3.028   6.605   7.781
37809SOL    HW115324   3.015   6.682   7.726
37809SOL    HW215325   2.946   6.595   7.829
37810SOL     OW15326   9.740   8.006   2.860
37810SOL    HW115327   9.756   8.039   2.949
37810SOL    HW215328   9.699   7.920   2.873
37811SOL     OW15329   9.354   1.524   6.478
37811SOL    HW115330   9.379   1.475   6.400
37811SOL    HW215331   9.276   1.477   6.511
37812SOL     OW15332   4.009  13.986   9.584
37812SOL    HW115333   4.088  13.980   9.639
37812SOL    HW215334   4.023  13.921   9.515
37813SOL     OW15335   6.791   5.094   2.532
37813SOL    HW115336   6.827   5.068   2.617
37813SOL    HW215337   6.739   5.172   2.550
37814SOL     OW15338   6.135   7.734   4.374
37814SOL    HW115339   6.143   7.740   4.469
37814SOL    HW215340   6.099   7.647   4.358
37815SOL     OW15341   9.319   9.744   9.245
37815SOL    HW115342   9.377   9.690   9.299
37815SOL    HW215343   9.356   9.832   9.252
37816SOL     OW15344  13.292  11.916  10.323
37816SOL    HW115345  13.239  11.995  10.331
37816SOL    HW215346  13.232  11.844  10.341
37817SOL     OW15347   4.267   5.806  11.174
37817SOL    HW115348   4.223   5.753  11.107
37817SOL    HW215349   4.313   5.742  11.228
37818SOL     OW15350  12.188   3.924   1.040
37818SOL    HW115351  12.218   3.975   0.964
37818SOL    HW215352  12.269   3.896   1.082
37819SOL     OW15353  12.766   2.322   2.614
37819SOL    HW115354  12.772   2.228   2.635
37819SOL    HW215355  12.850   2.358   2.640
37820SOL     OW15356   7.810   5.183   7.533
37820SOL    HW115357   7.881   5.150   7.588
37820SOL    HW215358   7.854   5.240   7.470
37821SOL     OW15359  14.760   6.505  11.603
37821SOL    HW115360  14.694   6.555  11.651
37821SOL    HW215361  14.826   6.569  11.579
37822SOL     OW15362  11.288   6.295   3.533
37822SOL    HW115363  11.344   6.349   3.477
37822SOL    HW215364  11.200   6.304   3.494
37823SOL     OW15365   8.470   9.460   3.110
37823SOL    HW115366   8.438   9.549   3.094
37823SOL    HW215367   8.404   9.403   3.070
37824SOL     OW15368   8.191  13.746   4.040
37824SOL    HW115369   8.195  13.697   4.122
37824SOL    HW215370   8.127  13.699   3.987
37825SOL     OW15371   6.136   3.109  14.858
37825SOL    HW115372   6.070   3.173   0.013
37825SOL    HW215373   6.149   3.056   0.067
37826SOL     OW15374   8.225  10.196   1.338
37826SOL    HW115375   8.152  10.203   1.277
37826SOL    HW215376   8.255  10.105   1.330
37827SOL     OW15377   6.610   6.180   4.040
37827SOL    HW115378   6.524   6.155   4.006
37827SOL    HW215379   6.603   6.165   4.135
37828SOL     OW15380  10.166   3.889  12.985
37828SOL    HW115381  10.168   3.950  13.058
37828SOL    HW215382  10.256   3.885  12.953
37829SOL     OW15383   7.373   2.524  10.826
37829SOL    HW115384   7.317   2.516  10.749
37829SOL    HW215385   7.344   2.604  10.869
37830SOL     OW15386   3.674   5.197   9.365
37830SOL    HW115387   3.578   5.198   9.361
37830SOL    HW215388   3.701   5.200   9.273
37831SOL     OW15389   5.724   6.567   5.606
37831SOL    HW115390   5.646   6.622   5.608
37831SOL    HW215391   5.733   6.540   5.515
37832SOL     OW15392   3.888  10.086  12.703
37832SOL    HW115393   3.823  10.087  12.773
37832SOL    HW215394   3.839  10.101  12.623
37833SOL     OW15395   3.612  13.693  14.000
37833SOL    HW115396   3.530  13.742  14.001
37833SOL    HW215397   3.590  13.609  13.960
37834SOL     OW15398   1.470   1.738   4.819
37834SOL    HW115399   1.531   1.796   4.865
37834SOL    HW215400   1.386   1.783   4.824
37835SOL     OW15401   8.921   2.256  10.118
37835SOL    HW115402   8.861   2.328  10.137
37835SOL    HW215403   8.988   2.262  10.186
37836SOL     OW15404  14.356  14.275   3.673
37836SOL    HW115405  14.399  14.359   3.684
37836SOL    HW215406  14.317  14.279   3.585
37837SOL     OW15407   7.571   0.867   2.685
37837SOL    HW115408   7.516   0.943   2.665
37837SOL    HW215409   7.576   0.865   2.780
37838SOL     OW15410   5.630   1.550  11.779
37838SOL    HW115411   5.568   1.622  11.794
37838SOL    HW215412   5.648   1.516  11.867
37839SOL     OW15413   5.354   2.660   6.284
37839SOL    HW115414   5.381   2.575   6.319
37839SOL    HW215415   5.321   2.640   6.196
37840SOL     OW15416  14.238   0.475  11.292
37840SOL    HW115417  14.185   0.426  11.229
37840SOL    HW215418  14.179   0.488  11.367
37841SOL     OW15419  10.453   9.767   9.942
37841SOL    HW115420  10.519   9.793  10.006
37841SOL    HW215421  10.407   9.693   9.982
37842SOL     OW15422  10.301   4.150   1.783
37842SOL    HW115423  10.311   4.067   1.831
37842SOL    HW215424  10.346   4.135   1.700
37843SOL     OW15425  10.850   8.358   2.525
37843SOL    HW115426  10.886   8.280   2.567
37843SOL    HW215427  10.881   8.353   2.434
37844SOL     OW15428  14.088   2.369   1.489
37844SOL    HW115429  14.069   2.462   1.475
37844SOL    HW215430  14.019   2.324   1.441
37845SOL     OW15431   5.797  11.252  10.065
37845SOL    HW115432   5.781  11.253   9.971
37845SOL    HW215433   5.751  11.174  10.097
37846SOL     OW15434   2.594  12.830  12.320
37846SOL    HW115435   2.681  12.802  12.349
37846SOL    HW215436   2.544  12.842  12.400
37847SOL     OW15437  13.535  13.800   4.700
37847SOL    HW115438  13.530  13.758   4.614
37847SOL    HW215439  13.487  13.883   4.688
37848SOL     OW15440   3.696  11.124   6.076
37848SOL    HW115441   3.762  11.180   6.117
37848SOL    HW215442   3.747  11.056   6.032
37849SOL     OW15443   5.404   4.520   0.786
37849SOL    HW115444   5.360   4.584   0.842
37849SOL    HW215445   5.356   4.523   0.704
37850SOL     OW15446   8.165   5.588   8.879
37850SOL    HW115447   8.089   5.555   8.831
37850SOL    HW215448   8.156   5.684   8.876
37851SOL     OW15449  10.619   7.509  12.144
37851SOL    HW115450  10.700   7.542  12.105
37851SOL    HW215451  10.638   7.418  12.165
37852SOL     OW15452   2.632   5.490   1.206
37852SOL    HW115453   2.654   5.572   1.250
37852SOL    HW215454   2.607   5.517   1.117
37853SOL     OW15455  11.366  10.534   0.054
37853SOL    HW115456  11.458  10.508   0.051
37853SOL    HW215457  11.329  10.501  14.842
37854SOL     OW15458   7.763   8.670   1.460
37854SOL    HW115459   7.699   8.739   1.480
37854SOL    HW215460   7.816   8.706   1.389
37855SOL     OW15461   9.578  11.484   0.333
37855SOL    HW115462   9.667  11.451   0.319
37855SOL    HW215463   9.523  11.406   0.335
37856SOL     OW15464   4.467  13.628   9.703
37856SOL    HW115465   4.495  13.596   9.789
37856SOL    HW215466   4.408  13.700   9.721
37857SOL     OW15467  11.281   8.867  14.370
37857SOL    HW115468  11.211   8.900  14.313
37857SOL    HW215469  11.339   8.941  14.383
37858SOL     OW15470  12.526  12.804   5.157
37858SOL    HW115471  12.584  12.738   5.196
37858SOL    HW215472  12.537  12.882   5.211
37859SOL     OW15473  10.764   0.751  13.120
37859SOL    HW115474  10.789   0.842  13.108
37859SOL    HW215475  10.733   0.722  13.034
37860SOL     OW15476   7.547   0.760  11.231
37860SOL    HW115477   7.628   0.722  11.195
37860SOL    HW215478   7.563   0.854  11.232
37861SOL     OW15479   3.935   5.337   9.139
37861SOL    HW115480   4.024   5.332   9.174
37861SOL    HW215481   3.922   5.429   9.117
37862SOL     OW15482  13.558   0.279   5.126
37862SOL    HW115483  13.525   0.311   5.042
37862SOL    HW215484  13.553   0.184   5.119
37863SOL     OW15485  12.837   4.419  11.201
37863SOL    HW115486  12.832   4.505  11.159
37863SOL    HW215487  12.850   4.358  11.128
37864SOL     OW15488   5.667   3.523   0.700
37864SOL    HW115489   5.582   3.563   0.718
37864SOL    HW215490   5.707   3.581   0.635
37865SOL     OW15491   4.890   3.667   7.883
37865SOL    HW115492   4.869   3.719   7.960
37865SOL    HW215493   4.852   3.716   7.810
37866SOL     OW15494  14.598   8.247   3.425
37866SOL    HW115495  14.505   8.224   3.420
37866SOL    HW215496  14.641   8.188   3.363
37867SOL     OW15497  14.550  14.426   0.271
37867SOL    HW115498  14.553  14.372   0.193
37867SOL    HW215499  14.622  14.395   0.326
37868SOL     OW15500   8.141   5.292   3.257
37868SOL    HW115501   8.208   5.234   3.221
37868SOL    HW215502   8.064   5.235   3.269
37869SOL     OW15503  13.848   6.268   4.856
37869SOL    HW115504  13.828   6.306   4.941
37869SOL    HW215505  13.914   6.202   4.874
37870SOL     OW15506  12.641  14.066   9.936
37870SOL    HW115507  12.688  13.983   9.926
37870SOL    HW215508  12.555  14.050   9.897
37871SOL     OW15509  14.864   3.273   0.603
37871SOL    HW115510  14.855   3.183   0.572
37871SOL    HW215511   0.063   3.310   0.548
37872SOL     OW15512  12.127   7.002   5.266
37872SOL    HW115513  12.194   7.042   5.321
37872SOL    HW215514  12.125   7.056   5.188
37873SOL     OW15515  12.664  10.005  13.297
37873SOL    HW115516  12.646   9.973  13.209
37873SOL    HW215517  12.756   9.982  13.312
37874SOL     OW15518   4.910  14.093   5.283
37874SOL    HW115519   4.902  14.123   5.193
37874SOL    HW215520   4.969  14.156   5.324
37875SOL     OW15521  14.826   5.424   5.919
37875SOL    HW115522  14.789   5.376   5.844
37875SOL    HW215523  14.792   5.513   5.909
37876SOL     OW15524   5.039   8.040  14.088
37876SOL    HW115525   5.072   8.071  14.172
37876SOL    HW215526   4.944   8.041  14.097
37877SOL     OW15527   0.469   7.715  10.343
37877SOL    HW115528   0.548   7.753  10.382
37877SOL    HW215529   0.430   7.786  10.292
37878SOL     OW15530   5.150  12.546   2.498
37878SOL    HW115531   5.139  12.471   2.557
37878SOL    HW215532   5.240  12.538   2.467
37879SOL     OW15533  13.976   1.388   2.123
37879SOL    HW115534  14.063   1.409   2.158
37879SOL    HW215535  13.916   1.424   2.189
37880SOL     OW15536   3.884   1.985   1.802
37880SOL    HW115537   3.924   1.985   1.889
37880SOL    HW215538   3.928   2.057   1.756
37881SOL     OW15539   3.601  14.769   2.500
37881SOL    HW115540   3.566  14.699   2.445
37881SOL    HW215541   3.627  14.838   2.439
37882SOL     OW15542   1.701   8.072  12.785
37882SOL    HW115543   1.768   8.003  12.786
37882SOL    HW215544   1.701   8.104  12.695
37883SOL     OW15545   7.750   0.414   2.365
37883SOL    HW115546   7.679   0.372   2.414
37883SOL    HW215547   7.713   0.430   2.278
37884SOL     OW15548  10.397   9.029   1.206
37884SOL    HW115549  10.317   8.976   1.201
37884SOL    HW215550  10.441   8.998   1.284
37885SOL     OW15551   3.660   3.665   5.545
37885SOL    HW115552   3.695   3.754   5.542
37885SOL    HW215553   3.689   3.631   5.630
37886SOL     OW15554   8.109  12.062   3.000
37886SOL    HW115555   8.126  11.985   2.946
37886SOL    HW215556   8.134  12.035   3.089
37887SOL     OW15557   2.918   2.073   5.725
37887SOL    HW115558   2.884   2.063   5.814
37887SOL    HW215559   2.842   2.101   5.673
37888SOL     OW15560  13.616   1.841  14.552
37888SOL    HW115561  13.530   1.848  14.512
37888SOL    HW215562  13.666   1.786  14.492
37889SOL     OW15563   6.979   8.003   2.918
37889SOL    HW115564   6.968   7.908   2.913
37889SOL    HW215565   7.073   8.016   2.928
37890SOL     OW15566  13.572  12.970   2.327
37890SOL    HW115567  13.608  12.953   2.413
37890SOL    HW215568  13.634  12.929   2.266
37891SOL     OW15569   4.911   6.264   5.736
37891SOL    HW115570   4.816   6.272   5.731
37891SOL    HW215571   4.941   6.351   5.764
37892SOL     OW15572   1.061   2.159  10.000
37892SOL    HW115573   1.081   2.190   9.912
37892SOL    HW215574   1.084   2.066   9.998
37893SOL     OW15575   4.840   2.080  11.807
37893SOL    HW115576   4.857   2.167  11.843
37893SOL    HW215577   4.791   2.097  11.726
37894SOL     OW15578  13.412   4.723  11.026
37894SOL    HW115579  13.436   4.791  11.089
37894SOL    HW215580  13.486   4.662  11.026
37895SOL     OW15581   4.475   7.271   9.384
37895SOL    HW115582   4.532   7.335   9.342
37895SOL    HW215583   4.397   7.269   9.329
37896SOL     OW15584  14.226   1.051  10.035
37896SOL    HW115585  14.285   0.976  10.049
37896SOL    HW215586  14.148   1.029  10.085
37897SOL     OW15587   4.458   2.185   5.282
37897SOL    HW115588   4.419   2.268   5.254
37897SOL    HW215589   4.440   2.125   5.210
37898SOL     OW15590  12.174   1.366   0.699
37898SOL    HW115591  12.113   1.341   0.630
37898SOL    HW215592  12.189   1.459   0.685
37899SOL     OW15593   8.533  12.758   5.443
37899SOL    HW115594   8.601  12.771   5.378
37899SOL    HW215595   8.474  12.833   5.432
37900SOL     OW15596   8.220  10.785   7.555
37900SOL    HW115597   8.175  10.702   7.538
37900SOL    HW215598   8.206  10.837   7.476
37901SOL     OW15599   5.616   5.167   0.657
37901SOL    HW115600   5.554   5.190   0.588
37901SOL    HW215601   5.702   5.182   0.618
37902SOL     OW15602   0.757   6.650   4.776
37902SOL    HW115603   0.772   6.721   4.714
37902SOL    HW215604   0.811   6.578   4.743
37903SOL     OW15605   7.809  10.748   5.491
37903SOL    HW115606   7.818  10.690   5.567
37903SOL    HW215607   7.886  10.805   5.495
37904SOL     OW15608   5.148   8.098  14.334
37904SOL    HW115609   5.150   8.082  14.428
37904SOL    HW215610   5.200   8.177  14.322
37905SOL     OW15611  12.862   1.105  11.444
37905SOL    HW115612  12.778   1.086  11.486
37905SOL    HW215613  12.875   1.033  11.382
37906SOL     OW15614  10.844  13.478   1.129
37906SOL    HW115615  10.934  13.472   1.162
37906SOL    HW215616  10.832  13.571   1.109
37907SOL     OW15617   3.515   1.263   8.319
37907SOL    HW115618   3.540   1.346   8.277
37907SOL    HW215619   3.597   1.213   8.324
37908SOL     OW15620   7.606  12.859   1.540
37908SOL    HW115621   7.552  12.899   1.609
37908SOL    HW215622   7.644  12.781   1.581
37909SOL     OW15623   6.931  12.630  14.048
37909SOL    HW115624   7.014  12.592  14.074
37909SOL    HW215625   6.873  12.555  14.036
37910SOL     OW15626   6.423   7.747  13.466
37910SOL    HW115627   6.432   7.820  13.528
37910SOL    HW215628   6.405   7.788  13.382
37911SOL     OW15629   2.758  13.914   1.693
37911SOL    HW115630   2.720  13.988   1.740
37911SOL    HW215631   2.758  13.842   1.757
37912SOL     OW15632  13.431   8.654  13.605
37912SOL    HW115633  13.434   8.727  13.544
37912SOL    HW215634  13.523   8.632  13.621
37913SOL     OW15635  13.141   6.912   0.775
37913SOL    HW115636  13.209   6.891   0.711
37913SOL    HW215637  13.187   6.918   0.859
37914SOL     OW15638   5.573  14.696   3.062
37914SOL    HW115639   5.639  14.650   3.010
37914SOL    HW215640   5.591  14.788   3.047
37915SOL     OW15641   9.744   3.432   5.661
37915SOL    HW115642   9.719   3.474   5.743
37915SOL    HW215643   9.835   3.405   5.674
37916SOL     OW15644   3.374  13.061  11.305
37916SOL    HW115645   3.286  13.088  11.332
37916SOL    HW215646   3.401  12.998  11.372
37917SOL     OW15647   6.151  10.420   8.631
37917SOL    HW115648   6.175  10.328   8.620
37917SOL    HW215649   6.085  10.419   8.700
37918SOL     OW15650   1.536  14.049  10.101
37918SOL    HW115651   1.501  13.988  10.036
37918SOL    HW215652   1.526  14.003  10.185
37919SOL     OW15653   3.476  14.067  14.524
37919SOL    HW115654   3.512  13.990  14.479
37919SOL    HW215655   3.403  14.094  14.468
37920SOL     OW15656  12.610   0.623   4.666
37920SOL    HW115657  12.626   0.546   4.611
37920SOL    HW215658  12.558   0.590   4.739
37921SOL     OW15659   0.674  11.337   8.481
37921SOL    HW115660   0.718  11.254   8.464
37921SOL    HW215661   0.581  11.319   8.466
37922SOL     OW15662   4.986   6.849   4.976
37922SOL    HW115663   5.004   6.832   4.883
37922SOL    HW215664   4.896   6.880   4.977
37923SOL     OW15665  13.358   5.409   2.784
37923SOL    HW115666  13.448   5.438   2.769
37923SOL    HW215667  13.305   5.486   2.765
37924SOL     OW15668   3.220  14.803   3.278
37924SOL    HW115669   3.127  14.803   3.256
37924SOL    HW215670   3.225  14.846   3.363
37925SOL     OW15671   8.296   9.977   0.614
37925SOL    HW115672   8.214   9.999   0.659
37925SOL    HW215673   8.286   9.886   0.590
37926SOL     OW15674   1.953  12.405   5.451
37926SOL    HW115675   1.985  12.461   5.522
37926SOL    HW215676   2.007  12.327   5.457
37927SOL     OW15677   3.984   5.876  12.309
37927SOL    HW115678   4.042   5.905  12.379
37927SOL    HW215679   4.043   5.838  12.244
37928SOL     OW15680   6.764   1.435   8.655
37928SOL    HW115681   6.677   1.465   8.629
37928SOL    HW215682   6.748   1.351   8.699
37929SOL     OW15683   2.019   3.519  12.653
37929SOL    HW115684   1.976   3.487  12.733
37929SOL    HW215685   2.103   3.474  12.652
37930SOL     OW15686   4.542  10.220  14.233
37930SOL    HW115687   4.615  10.227  14.296
37930SOL    HW215688   4.472  10.271  14.272
37931SOL     OW15689   3.077   0.356   9.004
37931SOL    HW115690   3.035   0.297   9.066
37931SOL    HW215691   3.143   0.402   9.056
37932SOL     OW15692  13.498  11.565   5.932
37932SOL    HW115693  13.571  11.575   5.872
37932SOL    HW215694  13.534  11.591   6.018
37933SOL     OW15695  14.682  14.211   7.563
37933SOL    HW115696  14.617  14.160   7.611
37933SOL    HW215697  14.691  14.166   7.479
37934SOL     OW15698   8.877  13.048   3.902
37934SOL    HW115699   8.810  13.065   3.836
37934SOL    HW215700   8.958  13.081   3.863
37935SOL     OW15701   1.974   2.798  10.424
37935SOL    HW115702   1.903   2.859  10.403
37935SOL    HW215703   1.980   2.800  10.519
37936SOL     OW15704   3.474   9.246  13.813
37936SOL    HW115705   3.421   9.187  13.866
37936SOL    HW215706   3.418   9.322  13.798
37937SOL     OW15707   0.625   4.176   5.951
37937SOL    HW115708   0.575   4.254   5.972
37937SOL    HW215709   0.702   4.208   5.904
37938SOL     OW15710   5.772   4.253   9.707
37938SOL    HW115711   5.700   4.316   9.711
37938SOL    HW215712   5.730   4.171   9.682
37939SOL     OW15713   0.711   3.785   8.031
37939SOL    HW115714   0.724   3.720   8.100
37939SOL    HW215715   0.751   3.746   7.954
37940SOL     OW15716  12.030   0.883   3.928
37940SOL    HW115717  12.025   0.978   3.933
37940SOL    HW215718  12.102   0.860   3.988
37941SOL     OW15719   1.561   2.810  10.465
37941SOL    HW115720   1.629   2.874  10.444
37941SOL    HW215721   1.519   2.843  10.544
37942SOL     OW15722   9.893   3.475  13.121
37942SOL    HW115723   9.915   3.568  13.118
37942SOL    HW215724   9.954   3.434  13.060
37943SOL     OW15725   8.055   4.888   2.053
37943SOL    HW115726   7.976   4.867   2.003
37943SOL    HW215727   8.102   4.805   2.061
37944SOL     OW15728   4.862   7.877  14.533
37944SOL    HW115729   4.782   7.926  14.550
37944SOL    HW215730   4.932   7.933  14.566
37945SOL     OW15731   5.390  13.473   7.724
37945SOL    HW115732   5.301  13.471   7.758
37945SOL    HW215733   5.440  13.417   7.783
37946SOL     OW15734   7.506   2.984  12.485
37946SOL    HW115735   7.555   3.040  12.425
37946SOL    HW215736   7.568   2.915  12.509
37947SOL     OW15737   6.707   5.562   5.559
37947SOL    HW115738   6.616   5.580   5.537
37947SOL    HW215739   6.702   5.501   5.633
37948SOL     OW15740   9.058   8.392   9.802
37948SOL    HW115741   9.138   8.431   9.766
37948SOL    HW215742   9.074   8.386   9.896
37949SOL     OW15743   9.717   3.556   8.072
37949SOL    HW115744   9.690   3.530   8.160
37949SOL    HW215745   9.653   3.621   8.045
37950SOL     OW15746  10.704   8.897   9.545
37950SOL    HW115747  10.791   8.927   9.571
37950SOL    HW215748  10.712   8.874   9.453
37951SOL     OW15749   8.790   5.979   4.911
37951SOL    HW115750   8.797   5.915   4.981
37951SOL    HW215751   8.851   5.949   4.844
37952SOL     OW15752   0.179   3.810   0.774
37952SOL    HW115753   0.150   3.722   0.797
37952SOL    HW215754   0.172   3.859   0.857
37953SOL     OW15755   8.978   9.989   0.024
37953SOL    HW115756   8.945   9.972  14.805
37953SOL    HW215757   8.950  10.078   0.043
37954SOL     OW15758   2.250   7.176   3.169
37954SOL    HW115759   2.273   7.229   3.245
37954SOL    HW215760   2.156   7.187   3.159
37955SOL     OW15761  13.833  13.211   6.234
37955SOL    HW115762  13.789  13.132   6.202
37955SOL    HW215763  13.860  13.189   6.323
37956SOL     OW15764   1.365  13.633   2.281
37956SOL    HW115765   1.397  13.563   2.339
37956SOL    HW215766   1.314  13.690   2.338
37957SOL     OW15767   6.812   8.451   7.188
37957SOL    HW115768   6.730   8.499   7.178
37957SOL    HW215769   6.801   8.401   7.268
37958SOL     OW15770   5.877   1.976  12.507
37958SOL    HW115771   5.787   2.003  12.492
37958SOL    HW215772   5.891   1.905  12.444
37959SOL     OW15773  13.120   5.973   7.607
37959SOL    HW115774  13.126   5.887   7.649
37959SOL    HW215775  13.085   5.955   7.520
37960SOL     OW15776   9.927   9.480   3.923
37960SOL    HW115777   9.875   9.549   3.883
37960SOL    HW215778  10.018   9.505   3.907
37961SOL     OW15779   7.337   4.274   2.787
37961SOL    HW115780   7.399   4.258   2.859
37961SOL    HW215781   7.253   4.287   2.830
37962SOL     OW15782   7.880   8.464   2.362
37962SOL    HW115783   7.841   8.377   2.366
37962SOL    HW215784   7.902   8.476   2.269
37963SOL     OW15785  13.061   0.516  11.634
37963SOL    HW115786  12.974   0.539  11.601
37963SOL    HW215787  13.100   0.600  11.659
37964SOL     OW15788  12.889   2.768   5.935
37964SOL    HW115789  12.961   2.808   5.985
37964SOL    HW215790  12.911   2.675   5.932
37965SOL     OW15791  10.011  11.547   3.154
37965SOL    HW115792   9.994  11.453   3.155
37965SOL    HW215793  10.106  11.554   3.153
37966SOL     OW15794   3.586  12.989   5.756
37966SOL    HW115795   3.609  13.063   5.700
37966SOL    HW215796   3.638  13.002   5.835
37967SOL     OW15797   9.407   1.569   4.323
37967SOL    HW115798   9.435   1.499   4.382
37967SOL    HW215799   9.425   1.650   4.371
37968SOL     OW15800   6.883   9.306  10.900
37968SOL    HW115801   6.817   9.302  10.831
37968SOL    HW215802   6.963   9.334  10.855
37969SOL     OW15803   6.541   8.784   6.384
37969SOL    HW115804   6.619   8.813   6.431
37969SOL    HW215805   6.473   8.847   6.409
37970SOL     OW15806  12.066  12.893   1.000
37970SOL    HW115807  12.087  12.829   1.068
37970SOL    HW215808  12.097  12.976   1.035
37971SOL     OW15809   1.410   8.465   9.010
37971SOL    HW115810   1.325   8.495   9.041
37971SOL    HW215811   1.472   8.532   9.041
37972SOL     OW15812   4.476  11.232   5.277
37972SOL    HW115813   4.388  11.220   5.242
37972SOL    HW215814   4.475  11.185   5.360
37973SOL     OW15815   5.392   4.993   5.649
37973SOL    HW115816   5.346   4.999   5.733
37973SOL    HW215817   5.406   5.084   5.623
37974SOL     OW15818   6.274  13.401   9.746
37974SOL    HW115819   6.347  13.459   9.769
37974SOL    HW215820   6.234  13.442   9.670
37975SOL     OW15821  13.433   8.801   9.050
37975SOL    HW115822  13.418   8.785   8.957
37975SOL    HW215823  13.449   8.896   9.055
37976SOL     OW15824  13.417  12.465   1.993
37976SOL    HW115825  13.354  12.477   2.064
37976SOL    HW215826  13.457  12.551   1.981
37977SOL     OW15827   1.772   2.899   8.742
37977SOL    HW115828   1.839   2.948   8.790
37977SOL    HW215829   1.772   2.938   8.655
37978SOL     OW15830   2.865   4.896  10.486
37978SOL    HW115831   2.863   4.947  10.405
37978SOL    HW215832   2.831   4.810  10.461
37979SOL     OW15833  12.125  12.513   2.152
37979SOL    HW115834  12.113  12.608   2.149
37979SOL    HW215835  12.137  12.493   2.245
37980SOL     OW15836   1.182  13.402   7.461
37980SOL    HW115837   1.113  13.423   7.399
37980SOL    HW215838   1.243  13.476   7.454
37981SOL     OW15839   3.715   2.444   1.860
37981SOL    HW115840   3.745   2.422   1.772
37981SOL    HW215841   3.722   2.363   1.909
37982SOL     OW15842   4.254   9.316   8.053
37982SOL    HW115843   4.296   9.329   8.138
37982SOL    HW215844   4.326   9.312   7.991
37983SOL     OW15845  10.532   6.286   3.965
37983SOL    HW115846  10.580   6.278   4.047
37983SOL    HW215847  10.442   6.303   3.992
37984SOL     OW15848   4.773  13.233   4.638
37984SOL    HW115849   4.775  13.142   4.668
37984SOL    HW215850   4.863  13.264   4.652
37985SOL     OW15851  11.574   4.061   8.728
37985SOL    HW115852  11.633   4.031   8.797
37985SOL    HW215853  11.536   4.141   8.764
37986SOL     OW15854   5.027  12.002   1.698
37986SOL    HW115855   5.016  11.964   1.611
37986SOL    HW215856   5.058  11.929   1.752
37987SOL     OW15857   0.987   7.818   8.755
37987SOL    HW115858   0.957   7.816   8.665
37987SOL    HW215859   1.042   7.740   8.765
37988SOL     OW15860   6.959  12.018   1.430
37988SOL    HW115861   7.030  12.011   1.494
37988SOL    HW215862   6.894  11.954   1.458
37989SOL     OW15863   2.331  11.522   2.510
37989SOL    HW115864   2.357  11.430   2.506
37989SOL    HW215865   2.321  11.547   2.418
37990SOL     OW15866   2.032   2.799  10.709
37990SOL    HW115867   2.035   2.763  10.798
37990SOL    HW215868   2.123   2.795  10.679
37991SOL     OW15869  10.557   8.615   8.742
37991SOL    HW115870  10.495   8.586   8.809
37991SOL    HW215871  10.511   8.603   8.659
37992SOL     OW15872   2.727  14.660   2.236
37992SOL    HW115873   2.688  14.584   2.278
37992SOL    HW215874   2.674  14.734   2.264
37993SOL     OW15875   5.399   5.548   3.520
37993SOL    HW115876   5.326   5.487   3.534
37993SOL    HW215877   5.427   5.532   3.429
37994SOL     OW15878   8.965   1.667   8.037
37994SOL    HW115879   8.982   1.759   8.018
37994SOL    HW215880   8.970   1.623   7.953
37995SOL     OW15881   9.173   5.961   6.830
37995SOL    HW115882   9.103   5.950   6.766
37995SOL    HW215883   9.204   5.873   6.849
37996SOL     OW15884  10.320   3.213   8.342
37996SOL    HW115885  10.261   3.151   8.385
37996SOL    HW215886  10.270   3.294   8.337
37997SOL     OW15887  10.825   7.063   1.556
37997SOL    HW115888  10.822   7.156   1.580
37997SOL    HW215889  10.827   7.063   1.461
37998SOL     OW15890   6.368   2.401  14.011
37998SOL    HW115891   6.455   2.397  14.050
37998SOL    HW215892   6.308   2.392  14.086
37999SOL     OW15893   9.551   9.236  11.361
37999SOL    HW115894   9.573   9.168  11.297
37999SOL    HW215895   9.520   9.309  11.309
38000SOL     OW15896   7.541   9.681  11.686
38000SOL    HW115897   7.595   9.703  11.610
38000SOL    HW215898   7.476   9.619  11.652
38001SOL     OW15899   6.557  10.665  14.837
38001SOL    HW115900   6.610  10.595  14.798
38001SOL    HW215901   6.616  10.707   0.030
38002SOL     OW15902   6.527   2.974   1.520
38002SOL    HW115903   6.593   3.000   1.584
38002SOL    HW215904   6.522   2.878   1.529
38003SOL     OW15905   9.530  13.646  11.458
38003SOL    HW115906   9.490  13.686  11.536
38003SOL    HW215907   9.477  13.677  11.385
38004SOL     OW15908   1.951   2.373   0.600
38004SOL    HW115909   2.012   2.315   0.645
38004SOL    HW215910   1.876   2.381   0.660
38005SOL     OW15911   8.363   0.393  14.352
38005SOL    HW115912   8.371   0.477  14.307
38005SOL    HW215913   8.405   0.330  14.293
38006SOL     OW15914   0.924  12.388  13.562
38006SOL    HW115915   0.886  12.456  13.618
38006SOL    HW215916   0.968  12.438  13.492
38007SOL     OW15917   5.511   6.872   2.513
38007SOL    HW115918   5.488   6.821   2.436
38007SOL    HW215919   5.462   6.954   2.504
38008SOL     OW15920  12.692  10.761  13.354
38008SOL    HW115921  12.760  10.764  13.422
38008SOL    HW215922  12.720  10.825  13.290
38009SOL     OW15923   6.705   7.073  12.965
38009SOL    HW115924   6.782   7.029  13.002
38009SOL    HW215925   6.631   7.032  13.010
38010SOL     OW15926   3.062   9.917   2.703
38010SOL    HW115927   2.973   9.911   2.666
38010SOL    HW215928   3.066   9.844   2.766
38011SOL     OW15929   0.615  12.293   2.400
38011SOL    HW115930   0.701  12.285   2.441
38011SOL    HW215931   0.603  12.387   2.387
38012SOL     OW15932   9.446   2.623   2.427
38012SOL    HW115933   9.447   2.551   2.364
38012SOL    HW215934   9.364   2.669   2.409
38013SOL     OW15935   2.396  11.299   9.235
38013SOL    HW115936   2.449  11.239   9.286
38013SOL    HW215937   2.457  11.366   9.205
38014SOL     OW15938   3.128  14.855   4.687
38014SOL    HW115939   3.156  14.785   4.628
38014SOL    HW215940   3.059   0.031   4.639
38015SOL     OW15941   7.561   7.261  11.222
38015SOL    HW115942   7.623   7.234  11.289
38015SOL    HW215943   7.505   7.326  11.266
38016SOL     OW15944   7.296   8.472   4.955
38016SOL    HW115945   7.311   8.410   4.883
38016SOL    HW215946   7.358   8.446   5.023
38017SOL     OW15947  12.399   3.002   9.587
38017SOL    HW115948  12.311   3.032   9.614
38017SOL    HW215949  12.397   2.908   9.601
38018SOL     OW15950   0.719   4.065   1.999
38018SOL    HW115951   0.758   3.982   1.974
38018SOL    HW215952   0.715   4.116   1.918
38019SOL     OW15953  13.743  12.459   2.847
38019SOL    HW115954  13.781  12.424   2.766
38019SOL    HW215955  13.716  12.381   2.896
38020SOL     OW15956  11.573   2.340   0.477
38020SOL    HW115957  11.665   2.336   0.451
38020SOL    HW215958  11.533   2.402   0.416
38021SOL     OW15959   7.017   0.380  10.095
38021SOL    HW115960   6.998   0.384  10.189
38021SOL    HW215961   7.069   0.301  10.084
38022SOL     OW15962  13.496   3.101   2.898
38022SOL    HW115963  13.443   3.147   2.962
38022SOL    HW215964  13.444   3.025   2.874
38023SOL     OW15965   4.272   8.473  11.276
38023SOL    HW115966   4.286   8.479  11.371
38023SOL    HW215967   4.234   8.387  11.262
38024SOL     OW15968   2.660   9.344   8.584
38024SOL    HW115969   2.681   9.289   8.659
38024SOL    HW215970   2.608   9.416   8.621
38025SOL     OW15971   1.568   9.434  10.051
38025SOL    HW115972   1.660   9.458  10.059
38025SOL    HW215973   1.531   9.498   9.990
38026SOL     OW15974   7.085   6.518  13.164
38026SOL    HW115975   6.996   6.522  13.201
38026SOL    HW215976   7.142   6.524  13.240
38027SOL     OW15977   4.243   4.379   9.818
38027SOL    HW115978   4.225   4.467   9.783
38027SOL    HW215979   4.278   4.331   9.743
38028SOL     OW15980  11.737  11.040   0.383
38028SOL    HW115981  11.679  10.976   0.343
38028SOL    HW215982  11.687  11.122   0.379
38029SOL     OW15983  14.605   7.232   4.229
38029SOL    HW115984  14.670   7.171   4.195
38029SOL    HW215985  14.656   7.304   4.266
38030SOL     OW15986   8.847   9.266  10.432
38030SOL    HW115987   8.936   9.283  10.462
38030SOL    HW215988   8.791   9.304  10.500
38031SOL     OW15989  11.144   1.325   8.904
38031SOL    HW115990  11.073   1.261   8.901
38031SOL    HW215991  11.102   1.407   8.929
38032SOL     OW15992   3.647   5.756   8.615
38032SOL    HW115993   3.706   5.739   8.688
38032SOL    HW215994   3.704   5.782   8.543
38033SOL     OW15995   0.950   9.453  13.284
38033SOL    HW115996   0.908   9.454  13.198
38033SOL    HW215997   0.975   9.544  13.299
38034SOL     OW15998   5.279   5.001   2.614
38034SOL    HW115999   5.265   4.910   2.588
38034SOL    HW216000   5.364   5.001   2.657
38035SOL     OW16001   5.242   5.713   4.350
38035SOL    HW116002   5.306   5.752   4.291
38035SOL    HW216003   5.291   5.645   4.397
38036SOL     OW16004   9.680   3.127  12.043
38036SOL    HW116005   9.597   3.129  11.995
38036SOL    HW216006   9.725   3.208  12.017
38037SOL     OW16007  14.804  12.502   1.680
38037SOL    HW116008  14.865  12.428   1.669
38037SOL    HW216009  14.855  12.567   1.728
38038SOL     OW16010   2.827   1.302  11.990
38038SOL    HW116011   2.862   1.218  11.961
38038SOL    HW216012   2.904   1.352  12.018
38039SOL     OW16013  13.901   5.485  11.169
38039SOL    HW116014  13.958   5.410  11.152
38039SOL    HW216015  13.925   5.549  11.102
38040SOL     OW16016  14.635  10.660   2.137
38040SOL    HW116017  14.705  10.618   2.087
38040SOL    HW216018  14.558  10.654   2.080
38041SOL     OW16019  10.267   6.356   9.280
38041SOL    HW116020  10.342   6.397   9.237
38041SOL    HW216021  10.226   6.303   9.212
38042SOL     OW16022  12.304   0.866  12.825
38042SOL    HW116023  12.365   0.803  12.862
38042SOL    HW216024  12.333   0.876  12.734
38043SOL     OW16025   9.959  10.104  13.306
38043SOL    HW116026   9.895  10.086  13.375
38043SOL    HW216027   9.907  10.114  13.227
38044SOL     OW16028   3.853   3.904   8.670
38044SOL    HW116029   3.867   3.911   8.576
38044SOL    HW216030   3.921   3.843   8.700
38045SOL     OW16031   3.745   9.109   7.982
38045SOL    HW116032   3.763   9.048   8.053
38045SOL    HW216033   3.765   9.059   7.902
38046SOL     OW16034  11.377  14.057   9.507
38046SOL    HW116035  11.343  13.979   9.551
38046SOL    HW216036  11.337  14.055   9.421
38047SOL     OW16037   5.818  10.361   4.840
38047SOL    HW116038   5.815  10.268   4.823
38047SOL    HW216039   5.792  10.369   4.932
38048SOL     OW16040   2.636  13.275  13.478
38048SOL    HW116041   2.717  13.275  13.428
38048SOL    HW216042   2.664  13.279  13.569
38049SOL     OW16043   8.854   0.496   2.389
38049SOL    HW116044   8.856   0.591   2.399
38049SOL    HW216045   8.776   0.469   2.437
38050SOL     OW16046   7.304   6.985   9.979
38050SOL    HW116047   7.253   7.066   9.987
38050SOL    HW216048   7.281   6.950   9.893
38051SOL     OW16049   9.389   9.882   2.419
38051SOL    HW116050   9.340   9.962   2.439
38051SOL    HW216051   9.364   9.861   2.329
38052SOL     OW16052  11.110   5.913  13.926
38052SOL    HW116053  11.178   5.959  13.877
38052SOL    HW216054  11.147   5.827  13.943
38053SOL     OW16055  13.018  12.272   6.068
38053SOL    HW116056  13.073  12.262   5.990
38053SOL    HW216057  13.072  12.323   6.129
38054SOL     OW16058   9.554  11.324   5.731
38054SOL    HW116059   9.463  11.328   5.702
38054SOL    HW216060   9.579  11.415   5.745
38055SOL     OW16061   6.628  12.400  14.305
38055SOL    HW116062   6.701  12.344  14.331
38055SOL    HW216063   6.622  12.389  14.210
38056SOL     OW16064  11.509  10.087   7.951
38056SOL    HW116065  11.488   9.999   7.982
38056SOL    HW216066  11.430  10.117   7.907
38057SOL     OW16067   8.381  11.674   3.195
38057SOL    HW116068   8.468  11.710   3.214
38057SOL    HW216069   8.360  11.706   3.107
38058SOL     OW16070   5.051   8.918   2.979
38058SOL    HW116071   5.011   8.987   3.033
38058SOL    HW216072   5.008   8.928   2.894
38059SOL     OW16073  13.037   7.623   2.341
38059SOL    HW116074  13.102   7.585   2.282
38059SOL    HW216075  12.962   7.564   2.336
38060SOL     OW16076  10.053  10.023   9.552
38060SOL    HW116077  10.085   9.944   9.595
38060SOL    HW216078   9.979  10.052   9.606
38061SOL     OW16079   8.935   3.653  12.783
38061SOL    HW116080   8.901   3.689  12.864
38061SOL    HW216081   9.016   3.608  12.808
38062SOL     OW16082  14.419  13.422  13.891
38062SOL    HW116083  14.336  13.449  13.931
38062SOL    HW216084  14.467  13.379  13.962
38063SOL     OW16085   9.610   4.799  12.148
38063SOL    HW116086   9.562   4.723  12.180
38063SOL    HW216087   9.700   4.768  12.137
38064SOL     OW16088   2.279   1.626   5.686
38064SOL    HW116089   2.216   1.570   5.733
38064SOL    HW216090   2.281   1.590   5.598
38065SOL     OW16091  11.301   5.602   1.093
38065SOL    HW116092  11.314   5.663   1.021
38065SOL    HW216093  11.324   5.516   1.056
38066SOL     OW16094   1.550   3.661   6.190
38066SOL    HW116095   1.493   3.731   6.159
38066SOL    HW216096   1.604   3.702   6.258
38067SOL     OW16097   7.180   2.192  13.740
38067SOL    HW116098   7.174   2.173  13.834
38067SOL    HW216099   7.272   2.214  13.727
38068SOL     OW16100   1.435   5.906   4.081
38068SOL    HW116101   1.403   5.824   4.119
38068SOL    HW216102   1.442   5.966   4.155
38069SOL     OW16103   1.649   9.567  14.541
38069SOL    HW116104   1.604   9.563  14.626
38069SOL    HW216105   1.698   9.650  14.544
38070SOL     OW16106   4.916  13.573   6.969
38070SOL    HW116107   5.010  13.560   6.955
38070SOL    HW216108   4.888  13.497   7.021
38071SOL     OW16109  10.318   4.471  12.401
38071SOL    HW116110  10.390   4.518  12.444
38071SOL    HW216111  10.335   4.484  12.307
38072SOL     OW16112  14.691   4.964  12.139
38072SOL    HW116113  14.783   4.972  12.161
38072SOL    HW216114  14.683   4.880  12.095
38073SOL     OW16115  10.271  10.673  14.318
38073SOL    HW116116  10.189  10.623  14.313
38073SOL    HW216117  10.264  10.738  14.249
38074SOL     OW16118   0.601   6.925  10.902
38074SOL    HW116119   0.575   6.951  10.990
38074SOL    HW216120   0.529   6.870  10.871
38075SOL     OW16121   8.349   4.839   2.976
38075SOL    HW116122   8.277   4.782   3.002
38075SOL    HW216123   8.332   4.922   3.021
38076SOL     OW16124  10.222   5.292   4.350
38076SOL    HW116125  10.258   5.274   4.436
38076SOL    HW216126  10.221   5.207   4.306
38077SOL     OW16127   2.763   5.332   1.365
38077SOL    HW116128   2.838   5.374   1.406
38077SOL    HW216129   2.721   5.402   1.315
38078SOL     OW16130  12.991   4.210   1.102
38078SOL    HW116131  12.982   4.120   1.071
38078SOL    HW216132  13.077   4.213   1.142
38079SOL     OW16133   9.402   3.909   9.128
38079SOL    HW116134   9.446   3.840   9.178
38079SOL    HW216135   9.362   3.863   9.054
38080SOL     OW16136  11.677  13.626   4.091
38080SOL    HW116137  11.702  13.627   3.998
38080SOL    HW216138  11.604  13.565   4.096
38081SOL     OW16139  12.592   3.928   4.516
38081SOL    HW116140  12.678   3.956   4.486
38081SOL    HW216141  12.610   3.869   4.589
38082SOL     OW16142   9.186  13.482   6.233
38082SOL    HW116143   9.204  13.480   6.327
38082SOL    HW216144   9.108  13.537   6.224
38083SOL     OW16145   0.687   8.838   8.835
38083SOL    HW116146   0.751   8.774   8.804
38083SOL    HW216147   0.613   8.828   8.776
38084SOL     OW16148   6.173   8.663   9.831
38084SOL    HW116149   6.109   8.706   9.774
38084SOL    HW216150   6.212   8.735   9.881
38085SOL     OW16151   0.760  13.584  11.535
38085SOL    HW116152   0.746  13.618  11.447
38085SOL    HW216153   0.700  13.634  11.590
38086SOL     OW16154  13.113   0.330   2.038
38086SOL    HW116155  13.037   0.282   2.072
38086SOL    HW216156  13.096   0.339   1.945
38087SOL     OW16157  13.227  12.373   1.443
38087SOL    HW116158  13.177  12.449   1.471
38087SOL    HW216159  13.283  12.352   1.518
38088SOL     OW16160   8.494  12.264   5.018
38088SOL    HW116161   8.590  12.258   5.013
38088SOL    HW216162   8.462  12.212   4.945
38089SOL     OW16163  12.946   4.153   8.626
38089SOL    HW116164  12.864   4.115   8.658
38089SOL    HW216165  13.010   4.082   8.631
38090SOL     OW16166   4.969  12.849   6.047
38090SOL    HW116167   5.025  12.924   6.063
38090SOL    HW216168   4.893  12.885   6.001
38091SOL     OW16169  14.096   9.965  14.400
38091SOL    HW116170  14.029   9.992  14.462
38091SOL    HW216171  14.176  10.007  14.431
38092SOL     OW16172   3.032  14.230  14.794
38092SOL    HW116173   2.950  14.253  14.752
38092SOL    HW216174   3.067  14.157  14.743
38093SOL     OW16175  12.965   8.477   4.115
38093SOL    HW116176  13.028   8.517   4.056
38093SOL    HW216177  12.887   8.461   4.061
38094SOL     OW16178   3.463  10.375  13.593
38094SOL    HW116179   3.494  10.288  13.621
38094SOL    HW216180   3.368  10.369  13.597
38095SOL     OW16181   4.938  13.978   5.649
38095SOL    HW116182   4.940  13.963   5.744
38095SOL    HW216183   4.957  14.071   5.639
38096SOL     OW16184   4.239   6.973   1.502
38096SOL    HW116185   4.181   7.032   1.551
38096SOL    HW216186   4.237   6.892   1.553
38097SOL     OW16187   6.889   2.593   7.408
38097SOL    HW116188   6.894   2.681   7.370
38097SOL    HW216189   6.918   2.604   7.498
38098SOL     OW16190   6.348   5.737   8.122
38098SOL    HW116191   6.387   5.650   8.112
38098SOL    HW216192   6.341   5.771   8.032
38099SOL     OW16193  10.756  14.477   7.469
38099SOL    HW116194  10.799  14.546   7.518
38099SOL    HW216195  10.681  14.521   7.427
38100SOL     OW16196  12.191  10.233   6.768
38100SOL    HW116197  12.172  10.188   6.851
38100SOL    HW216198  12.159  10.173   6.701
38101SOL     OW16199   7.507  12.526   5.060
38101SOL    HW116200   7.575  12.506   5.125
38101SOL    HW216201   7.479  12.441   5.027
38102SOL     OW16202   5.019   0.991  13.123
38102SOL    HW116203   5.075   0.940  13.065
38102SOL    HW216204   4.932   0.952  13.113
38103SOL     OW16205   9.263  10.457   0.795
38103SOL    HW116206   9.171  10.455   0.768
38103SOL    HW216207   9.301  10.378   0.757
38104SOL     OW16208  14.400   5.704   0.381
38104SOL    HW116209  14.431   5.643   0.448
38104SOL    HW216210  14.348   5.649   0.321
38105SOL     OW16211   7.727  12.417  14.383
38105SOL    HW116212   7.647  12.440  14.430
38105SOL    HW216213   7.774  12.359  14.443
38106SOL     OW16214   7.965   7.477   1.600
38106SOL    HW116215   7.985   7.533   1.675
38106SOL    HW216216   7.961   7.537   1.526
38107SOL     OW16217  10.037  11.666  14.424
38107SOL    HW116218  10.099  11.620  14.480
38107SOL    HW216219  10.011  11.601  14.359
38108SOL     OW16220   4.495   4.049   7.559
38108SOL    HW116221   4.472   3.974   7.505
38108SOL    HW216222   4.460   4.125   7.511
38109SOL     OW16223   7.563   2.828  12.151
38109SOL    HW116224   7.606   2.884  12.217
38109SOL    HW216225   7.608   2.850  12.069
38110SOL     OW16226   8.420  13.658   8.618
38110SOL    HW116227   8.409  13.631   8.709
38110SOL    HW216228   8.504  13.620   8.591
38111SOL     OW16229  10.986   8.714   0.476
38111SOL    HW116230  10.967   8.808   0.474
38111SOL    HW216231  10.901   8.672   0.478
38112SOL     OW16232   4.652   1.455  13.784
38112SOL    HW116233   4.578   1.470  13.843
38112SOL    HW216234   4.611   1.433  13.700
38113SOL     OW16235   6.956   9.614   5.300
38113SOL    HW116236   6.885   9.679   5.301
38113SOL    HW216237   6.957   9.581   5.210
38114SOL     OW16238  12.369   0.622  11.133
38114SOL    HW116239  12.350   0.683  11.062
38114SOL    HW216240  12.461   0.598  11.121
38115SOL     OW16241   9.925   5.931   9.682
38115SOL    HW116242   9.984   6.005   9.670
38115SOL    HW216243   9.938   5.905   9.773
38116SOL     OW16244   9.712   6.236  12.072
38116SOL    HW116245   9.756   6.306  12.120
38116SOL    HW216246   9.658   6.192  12.138
38117SOL     OW16247  12.054   7.609   2.318
38117SOL    HW116248  12.071   7.528   2.367
38117SOL    HW216249  11.974   7.591   2.269
38118SOL     OW16250   4.226   3.603  14.722
38118SOL    HW116251   4.290   3.591  14.652
38118SOL    HW216252   4.265   3.562  14.798
38119SOL     OW16253  14.299   4.953   5.556
38119SOL    HW116254  14.226   4.904   5.594
38119SOL    HW216255  14.263   4.990   5.475
38120SOL     OW16256  10.138   5.189  12.493
38120SOL    HW116257  10.220   5.228  12.461
38120SOL    HW216258  10.076   5.201  12.421
38121SOL     OW16259  10.574   6.006  10.522
38121SOL    HW116260  10.656   5.985  10.567
38121SOL    HW216261  10.534   6.074  10.576
38122SOL     OW16262   9.609   2.357   1.091
38122SOL    HW116263   9.539   2.422   1.094
38122SOL    HW216264   9.564   2.276   1.067
38123SOL     OW16265   9.371   2.489  12.316
38123SOL    HW116266   9.297   2.536  12.278
38123SOL    HW216267   9.448   2.536  12.284
38124SOL     OW16268   6.408   6.550   4.247
38124SOL    HW116269   6.380   6.509   4.165
38124SOL    HW216270   6.448   6.479   4.297
38125SOL     OW16271   9.271  10.051   7.179
38125SOL    HW116272   9.329  10.066   7.254
38125SOL    HW216273   9.289   9.960   7.153
38126SOL     OW16274  10.480   2.759  10.671
38126SOL    HW116275  10.559   2.778  10.722
38126SOL    HW216276  10.481   2.824  10.601
38127SOL     OW16277   7.786  13.946   1.539
38127SOL    HW116278   7.835  13.866   1.558
38127SOL    HW216279   7.782  13.992   1.622
38128SOL     OW16280  10.571   9.440  12.654
38128SOL    HW116281  10.640   9.507  12.650
38128SOL    HW216282  10.490   9.490  12.668
38129SOL     OW16283   4.285   4.797  11.416
38129SOL    HW116284   4.374   4.821  11.444
38129SOL    HW216285   4.239   4.880  11.408
38130SOL     OW16286   2.473  11.856   2.412
38130SOL    HW116287   2.403  11.850   2.478
38130SOL    HW216288   2.543  11.905   2.455
38131SOL     OW16289   5.906  12.569  12.424
38131SOL    HW116290   5.817  12.605  12.416
38131SOL    HW216291   5.931  12.587  12.515
38132SOL     OW16292   6.638  10.381   3.510
38132SOL    HW116293   6.682  10.301   3.538
38132SOL    HW216294   6.628  10.371   3.415
38133SOL     OW16295  12.304  12.424  10.502
38133SOL    HW116296  12.277  12.471  10.423
38133SOL    HW216297  12.277  12.480  10.574
38134SOL     OW16298  11.628  12.861  13.679
38134SOL    HW116299  11.718  12.828  13.669
38134SOL    HW216300  11.580  12.824  13.606
38135SOL     OW16301   7.150   4.135   6.043
38135SOL    HW116302   7.087   4.203   6.018
38135SOL    HW216303   7.142   4.068   5.975
38136SOL     OW16304  10.760   8.222   9.715
38136SOL    HW116305  10.818   8.215   9.792
38136SOL    HW216306  10.816   8.201   9.641
38137SOL     OW16307  11.256   4.699   3.201
38137SOL    HW116308  11.165   4.672   3.200
38137SOL    HW216309  11.254   4.794   3.187
38138SOL     OW16310   3.247  14.829   2.867
38138SOL    HW116311   3.331  14.827   2.821
38138SOL    HW216312   3.259  14.770   2.941
38139SOL     OW16313   7.879   3.053   4.096
38139SOL    HW116314   7.860   3.094   4.012
38139SOL    HW216315   7.837   2.967   4.090
38140SOL     OW16316   7.759  14.549   1.265
38140SOL    HW116317   7.818  14.494   1.214
38140SOL    HW216318   7.672  14.530   1.230
38141SOL     OW16319   3.592   7.024   4.802
38141SOL    HW116320   3.560   7.081   4.872
38141SOL    HW216321   3.515   7.008   4.748
38142SOL     OW16322   3.459   9.652   0.502
38142SOL    HW116323   3.474   9.597   0.579
38142SOL    HW216324   3.447   9.740   0.538
38143SOL     OW16325   3.001  10.240  10.076
38143SOL    HW116326   2.987  10.170  10.139
38143SOL    HW216327   2.968  10.319  10.119
38144SOL     OW16328   8.737   7.657   3.024
38144SOL    HW116329   8.675   7.665   3.097
38144SOL    HW216330   8.809   7.716   3.047
38145SOL     OW16331   2.029   3.431   0.816
38145SOL    HW116332   2.083   3.497   0.772
38145SOL    HW216333   1.946   3.432   0.768
38146SOL     OW16334   9.293   3.602   2.917
38146SOL    HW116335   9.244   3.538   2.969
38146SOL    HW216336   9.381   3.602   2.955
38147SOL     OW16337   8.817   7.269   3.803
38147SOL    HW116338   8.875   7.195   3.821
38147SOL    HW216339   8.732   7.229   3.785
38148SOL     OW16340   6.359  10.499  13.572
38148SOL    HW116341   6.398  10.531  13.490
38148SOL    HW216342   6.344  10.406  13.556
38149SOL     OW16343   4.704   0.641   6.508
38149SOL    HW116344   4.784   0.668   6.463
38149SOL    HW216345   4.728   0.639   6.600
38150SOL     OW16346   1.152   3.185   2.440
38150SOL    HW116347   1.068   3.182   2.395
38150SOL    HW216348   1.197   3.261   2.402
38151SOL     OW16349   5.415  10.328  14.096
38151SOL    HW116350   5.396  10.235  14.111
38151SOL    HW216351   5.419  10.366  14.184
38152SOL     OW16352   5.776   4.540   7.915
38152SOL    HW116353   5.835   4.616   7.911
38152SOL    HW216354   5.781   4.511   8.006
38153SOL     OW16355   6.295  13.989   8.429
38153SOL    HW116356   6.200  13.987   8.416
38153SOL    HW216357   6.307  14.035   8.512
38154SOL     OW16358   2.479   9.357   3.985
38154SOL    HW116359   2.520   9.278   4.021
38154SOL    HW216360   2.543   9.392   3.924
38155SOL     OW16361   3.989  11.131  13.979
38155SOL    HW116362   4.045  11.079  13.920
38155SOL    HW216363   4.028  11.118  14.065
38156SOL     OW16364   8.113  14.184   4.190
38156SOL    HW116365   8.143  14.262   4.145
38156SOL    HW216366   8.024  14.206   4.219
38157SOL     OW16367   8.423   8.024   3.607
38157SOL    HW116368   8.417   8.023   3.702
38157SOL    HW216369   8.504   7.977   3.588
38158SOL     OW16370  10.979   4.650   0.560
38158SOL    HW116371  10.971   4.568   0.512
38158SOL    HW216372  10.941   4.716   0.502
38159SOL     OW16373   4.114   0.005   4.119
38159SOL    HW116374   4.174   0.006   4.194
38159SOL    HW216375   4.172   0.002   4.042
38160SOL     OW16376  14.013   5.212   4.898
38160SOL    HW116377  13.951   5.143   4.919
38160SOL    HW216378  14.005   5.275   4.970
38161SOL     OW16379  14.374  12.697  13.751
38161SOL    HW116380  14.453  12.666  13.706
38161SOL    HW216381  14.350  12.777  13.705
38162SOL     OW16382   4.082   4.826  13.842
38162SOL    HW116383   4.085   4.910  13.797
38162SOL    HW216384   4.007   4.833  13.902
38163SOL     OW16385   5.585   6.622  12.016
38163SOL    HW116386   5.550   6.656  11.934
38163SOL    HW216387   5.663   6.675  12.033
38164SOL     OW16388   6.613   4.834  13.104
38164SOL    HW116389   6.568   4.874  13.179
38164SOL    HW216390   6.700   4.874  13.104
38165SOL     OW16391  13.228  10.995   7.211
38165SOL    HW116392  13.313  11.016   7.248
38165SOL    HW216393  13.225  10.899   7.211
38166SOL     OW16394   9.784   8.155   9.634
38166SOL    HW116395   9.842   8.085   9.602
38166SOL    HW216396   9.753   8.198   9.554
38167SOL     OW16397   8.749   4.769   8.171
38167SOL    HW116398   8.655   4.752   8.177
38167SOL    HW216399   8.755   4.861   8.148
38168SOL     OW16400   4.760   0.793  10.876
38168SOL    HW116401   4.726   0.707  10.902
38168SOL    HW216402   4.682   0.848  10.869
38169SOL     OW16403   9.683  14.626  12.540
38169SOL    HW116404   9.650  14.652  12.626
38169SOL    HW216405   9.681  14.706  12.488
38170SOL     OW16406   0.088  11.286   5.684
38170SOL    HW116407   0.054  11.197   5.683
38170SOL    HW216408   0.160  11.284   5.747
38171SOL     OW16409   0.964  10.620   8.472
38171SOL    HW116410   1.041  10.563   8.468
38171SOL    HW216411   0.910  10.593   8.398
38172SOL     OW16412   3.460   7.822   8.898
38172SOL    HW116413   3.509   7.841   8.978
38172SOL    HW216414   3.506   7.873   8.830
38173SOL     OW16415   8.358   8.549  13.961
38173SOL    HW116416   8.275   8.502  13.960
38173SOL    HW216417   8.389   8.546  13.871
38174SOL     OW16418   8.999   7.572   2.892
38174SOL    HW116419   9.064   7.532   2.836
38174SOL    HW216420   9.039   7.654   2.921
38175SOL     OW16421  14.079   0.626   3.371
38175SOL    HW116422  14.102   0.627   3.464
38175SOL    HW216423  13.993   0.668   3.367
38176SOL     OW16424   1.319  13.708  12.697
38176SOL    HW116425   1.403  13.750  12.713
38176SOL    HW216426   1.272  13.715  12.781
38177SOL     OW16427  12.007   2.469   0.173
38177SOL    HW116428  12.045   2.533   0.114
38177SOL    HW216429  12.071   2.460   0.243
38178SOL     OW16430   1.373  14.743   9.159
38178SOL    HW116431   1.322  14.822   9.140
38178SOL    HW216432   1.431  14.769   9.231
38179SOL     OW16433   9.106   5.216   2.733
38179SOL    HW116434   9.096   5.195   2.826
38179SOL    HW216435   9.167   5.150   2.700
38180SOL     OW16436  10.746   8.647   1.401
38180SOL    HW116437  10.671   8.616   1.350
38180SOL    HW216438  10.816   8.660   1.337
38181SOL     OW16439  13.541  11.275  11.478
38181SOL    HW116440  13.488  11.292  11.400
38181SOL    HW216441  13.611  11.218  11.448
38182SOL     OW16442  14.194   2.128  13.199
38182SOL    HW116443  14.123   2.180  13.238
38182SOL    HW216444  14.262   2.129  13.266
38183SOL     OW16445   4.783   5.705   0.942
38183SOL    HW116446   4.834   5.785   0.931
38183SOL    HW216447   4.839   5.635   0.908
38184SOL     OW16448  11.339  13.764   8.790
38184SOL    HW116449  11.264  13.715   8.756
38184SOL    HW216450  11.358  13.829   8.722
38185SOL     OW16451   4.925  10.938   8.488
38185SOL    HW116452   5.015  10.967   8.473
38185SOL    HW216453   4.920  10.924   8.582
38186SOL     OW16454   6.600   9.847   8.520
38186SOL    HW116455   6.570   9.802   8.599
38186SOL    HW216456   6.688   9.812   8.504
38187SOL     OW16457   4.343  11.529   6.445
38187SOL    HW116458   4.273  11.487   6.496
38187SOL    HW216459   4.405  11.458   6.428
38188SOL     OW16460   8.834   2.699  12.742
38188SOL    HW116461   8.753   2.735  12.779
38188SOL    HW216462   8.903   2.736  12.796
38189SOL     OW16463   4.124   8.814   7.084
38189SOL    HW116464   4.162   8.896   7.054
38189SOL    HW216465   4.029   8.825   7.072
38190SOL     OW16466  11.042   0.707   1.721
38190SOL    HW116467  11.016   0.616   1.734
38190SOL    HW216468  11.033   0.748   1.807
38191SOL     OW16469  14.740  13.965  10.440
38191SOL    HW116470  14.776  14.015  10.513
38191SOL    HW216471  14.716  13.881  10.478
38192SOL     OW16472   4.203   1.699   2.481
38192SOL    HW116473   4.247   1.758   2.419
38192SOL    HW216474   4.261   1.698   2.557
38193SOL     OW16475  11.571  11.715   1.007
38193SOL    HW116476  11.612  11.782   1.061
38193SOL    HW216477  11.622  11.636   1.025
38194SOL     OW16478   6.129   1.986   7.952
38194SOL    HW116479   6.100   1.973   7.862
38194SOL    HW216480   6.224   1.979   7.948
38195SOL     OW16481  11.272   1.636   5.356
38195SOL    HW116482  11.259   1.724   5.321
38195SOL    HW216483  11.235   1.577   5.291
38196SOL     OW16484   7.991   5.360   6.618
38196SOL    HW116485   8.008   5.287   6.558
38196SOL    HW216486   7.909   5.336   6.661
38197SOL     OW16487   6.167   0.761   3.618
38197SOL    HW116488   6.082   0.802   3.631
38197SOL    HW216489   6.226   0.834   3.598
38198SOL     OW16490  12.760   5.162   7.338
38198SOL    HW116491  12.777   5.178   7.431
38198SOL    HW216492  12.710   5.239   7.310
38199SOL     OW16493  10.626  14.867   7.996
38199SOL    HW116494  10.719  14.852   8.009
38199SOL    HW216495  10.619   0.089   7.971
38200SOL     OW16496   7.834   8.949   3.961
38200SOL    HW116497   7.825   8.910   4.048
38200SOL    HW216498   7.912   9.004   3.968
38201SOL     OW16499   4.667  13.805   4.732
38201SOL    HW116500   4.573  13.821   4.741
38201SOL    HW216501   4.701  13.884   4.689
38202SOL     OW16502  12.002   4.615  10.486
38202SOL    HW116503  11.944   4.600  10.561
38202SOL    HW216504  11.978   4.702  10.454
38203SOL     OW16505   3.326   8.544   9.127
38203SOL    HW116506   3.345   8.638   9.138
38203SOL    HW216507   3.232   8.541   9.111
38204SOL     OW16508   1.322  13.861   6.650
38204SOL    HW116509   1.334  13.793   6.584
38204SOL    HW216510   1.248  13.831   6.703
38205SOL     OW16511  14.239   7.522   0.936
38205SOL    HW116512  14.290   7.467   0.876
38205SOL    HW216513  14.290   7.524   1.017
38206SOL     OW16514   3.960  13.951   0.192
38206SOL    HW116515   3.875  13.925   0.156
38206SOL    HW216516   4.012  13.871   0.192
38207SOL     OW16517   4.262   1.603  11.041
38207SOL    HW116518   4.310   1.564  11.114
38207SOL    HW216519   4.170   1.591  11.064
38208SOL     OW16520  11.416   1.427  11.109
38208SOL    HW116521  11.441   1.501  11.054
38208SOL    HW216522  11.413   1.352  11.049
38209SOL     OW16523   6.271  13.775   2.273
38209SOL    HW116524   6.293  13.833   2.200
38209SOL    HW216525   6.340  13.790   2.337
38210SOL     OW16526  10.577   7.477   1.693
38210SOL    HW116527  10.617   7.539   1.632
38210SOL    HW216528  10.483   7.490   1.680
38211SOL     OW16529   8.424   9.913  11.525
38211SOL    HW116530   8.342   9.903  11.573
38211SOL    HW216531   8.458   9.998  11.553
38212SOL     OW16532   7.647   6.460   5.856
38212SOL    HW116533   7.653   6.465   5.761
38212SOL    HW216534   7.725   6.410   5.882
38213SOL     OW16535   6.366  10.796  14.680
38213SOL    HW116536   6.440  10.758  14.729
38213SOL    HW216537   6.404  10.871  14.635
38214SOL     OW16538   4.056   9.082   9.730
38214SOL    HW116539   4.147   9.108   9.742
38214SOL    HW216540   4.008   9.126   9.800
38215SOL     OW16541   8.743   0.554   7.701
38215SOL    HW116542   8.703   0.591   7.779
38215SOL    HW216543   8.737   0.623   7.636
38216SOL     OW16544  10.745  10.914   9.528
38216SOL    HW116545  10.760  10.860   9.605
38216SOL    HW216546  10.677  10.868   9.479
38217SOL     OW16547   1.598  14.852   5.926
38217SOL    HW116548   1.632  14.864   5.837
38217SOL    HW216549   1.667  14.804   5.972
38218SOL     OW16550  14.342   6.307   8.156
38218SOL    HW116551  14.324   6.260   8.237
38218SOL    HW216552  14.312   6.397   8.173
38219SOL     OW16553   5.322  11.165  12.701
38219SOL    HW116554   5.286  11.220  12.771
38219SOL    HW216555   5.315  11.218  12.622
38220SOL     OW16556   0.185   2.275   0.136
38220SOL    HW116557   0.266   2.226   0.129
38220SOL    HW216558   0.118   2.210   0.158
38221SOL     OW16559   7.821   7.245  14.806
38221SOL    HW116560   7.809   7.332  14.845
38221SOL    HW216561   7.756   7.241  14.736
38222SOL     OW16562   7.777   6.296   2.081
38222SOL    HW116563   7.708   6.265   2.023
38222SOL    HW216564   7.752   6.262   2.167
38223SOL     OW16565  13.122   0.011  12.106
38223SOL    HW116566  13.176   0.023  12.028
38223SOL    HW216567  13.184   0.014  12.179
38224SOL     OW16568   8.606   2.834   0.388
38224SOL    HW116569   8.579   2.783   0.312
38224SOL    HW216570   8.693   2.866   0.366
38225SOL     OW16571  11.652   7.578   8.869
38225SOL    HW116572  11.660   7.522   8.946
38225SOL    HW216573  11.684   7.525   8.797
38226SOL     OW16574  14.695  12.083  14.111
38226SOL    HW116575  14.680  12.174  14.133
38226SOL    HW216576  14.613  12.039  14.130
38227SOL     OW16577   5.763   4.363   0.172
38227SOL    HW116578   5.785   4.271   0.188
38227SOL    HW216579   5.847   4.404   0.151
38228SOL     OW16580   5.777   3.655   7.890
38228SOL    HW116581   5.686   3.685   7.885
38228SOL    HW216582   5.829   3.732   7.869
38229SOL     OW16583   2.569   8.643   7.217
38229SOL    HW116584   2.565   8.550   7.238
38229SOL    HW216585   2.478   8.673   7.218
38230SOL     OW16586   1.933   5.117   6.754
38230SOL    HW116587   1.995   5.055   6.794
38230SOL    HW216588   1.862   5.124   6.817
38231SOL     OW16589   8.254  12.845   7.856
38231SOL    HW116590   8.236  12.894   7.776
38231SOL    HW216591   8.296  12.764   7.826
38232SOL     OW16592  12.492  13.074   4.385
38232SOL    HW116593  12.551  13.122   4.443
38232SOL    HW216594  12.516  12.982   4.396
38233SOL     OW16595   1.159   5.940   6.471
38233SOL    HW116596   1.065   5.941   6.450
38233SOL    HW216597   1.171   5.860   6.523
38234SOL     OW16598   6.763  14.264  12.700
38234SOL    HW116599   6.834  14.272  12.637
38234SOL    HW216600   6.683  14.281  12.650
38235SOL     OW16601   8.447   7.454  14.597
38235SOL    HW116602   8.408   7.413  14.674
38235SOL    HW216603   8.373   7.481  14.544
38236SOL     OW16604   8.421  14.504   3.085
38236SOL    HW116605   8.368  14.491   3.164
38236SOL    HW216606   8.420  14.599   3.071
38237SOL     OW16607  13.360   3.138   8.943
38237SOL    HW116608  13.347   3.045   8.961
38237SOL    HW216609  13.330   3.150   8.853
38238SOL     OW16610   2.971   6.474   2.824
38238SOL    HW116611   3.055   6.434   2.848
38238SOL    HW216612   2.961   6.455   2.731
38239SOL     OW16613  12.279   1.890   5.522
38239SOL    HW116614  12.271   1.941   5.441
38239SOL    HW216615  12.345   1.936   5.573
38240SOL     OW16616  10.953  14.745   1.793
38240SOL    HW116617  10.908  14.669   1.758
38240SOL    HW216618  11.046  14.722   1.791
38241SOL     OW16619   1.183   7.530   3.500
38241SOL    HW116620   1.130   7.529   3.420
38241SOL    HW216621   1.197   7.623   3.518
38242SOL     OW16622   3.009  14.647   2.215
38242SOL    HW116623   2.914  14.634   2.219
38242SOL    HW216624   3.028  14.653   2.121
38243SOL     OW16625   0.220   2.176   1.120
38243SOL    HW116626   0.311   2.177   1.091
38243SOL    HW216627   0.170   2.151   1.043
38244SOL     OW16628  10.642  11.363   8.739
38244SOL    HW116629  10.656  11.299   8.669
38244SOL    HW216630  10.722  11.416   8.740
38245SOL     OW16631   2.306   1.153   6.481
38245SOL    HW116632   2.262   1.159   6.566
38245SOL    HW216633   2.260   1.082   6.435
38246SOL     OW16634   9.190   3.147   2.571
38246SOL    HW116635   9.211   3.199   2.648
38246SOL    HW216636   9.102   3.177   2.546
38247SOL     OW16637  14.513  10.577  11.905
38247SOL    HW116638  14.485  10.588  11.815
38247SOL    HW216639  14.598  10.621  11.910
38248SOL     OW16640  11.069   9.709   5.218
38248SOL    HW116641  11.131   9.722   5.289
38248SOL    HW216642  11.065   9.614   5.206
38249SOL     OW16643  10.738   6.386  10.694
38249SOL    HW116644  10.728   6.366  10.600
38249SOL    HW216645  10.741   6.300  10.736
38250SOL     OW16646   9.864   1.312  11.746
38250SOL    HW116647   9.858   1.381  11.813
38250SOL    HW216648   9.957   1.296  11.737
38251SOL     OW16649  14.021   7.678   3.964
38251SOL    HW116650  14.040   7.591   3.929
38251SOL    HW216651  13.944   7.666   4.020
38252SOL     OW16652   1.857  12.951   1.013
38252SOL    HW116653   1.847  13.041   0.983
38252SOL    HW216654   1.785  12.939   1.076
38253SOL     OW16655   4.420   5.797  12.810
38253SOL    HW116656   4.372   5.881  12.815
38253SOL    HW216657   4.468   5.802  12.728
38254SOL     OW16658   1.923   6.734   8.232
38254SOL    HW116659   1.854   6.701   8.290
38254SOL    HW216660   1.921   6.674   8.157
38255SOL     OW16661   0.559   6.430   3.903
38255SOL    HW116662   0.568   6.505   3.844
38255SOL    HW216663   0.619   6.448   3.975
38256SOL     OW16664   9.461   2.854  10.637
38256SOL    HW116665   9.442   2.778  10.581
38256SOL    HW216666   9.398   2.920  10.610
38257SOL     OW16667   3.255   8.178   4.008
38257SOL    HW116668   3.213   8.259   3.981
38257SOL    HW216669   3.196   8.109   3.979
38258SOL     OW16670   0.181   2.068   7.503
38258SOL    HW116671   0.210   2.156   7.528
38258SOL    HW216672   0.261   2.016   7.502
38259SOL     OW16673   4.441   5.127   9.931
38259SOL    HW116674   4.360   5.163   9.968
38259SOL    HW216675   4.425   5.125   9.837
38260SOL     OW16676   1.282   0.243  14.474
38260SOL    HW116677   1.231   0.162  14.470
38260SOL    HW216678   1.336   0.240  14.394
38261SOL     OW16679   6.256   0.227   7.531
38261SOL    HW116680   6.330   0.186   7.575
38261SOL    HW216681   6.295   0.295   7.476
38262SOL     OW16682   6.060   1.295  10.186
38262SOL    HW116683   6.075   1.317  10.278
38262SOL    HW216684   5.968   1.316  10.171
38263SOL     OW16685   6.998  11.503   4.688
38263SOL    HW116686   7.022  11.504   4.780
38263SOL    HW216687   6.951  11.586   4.674
38264SOL     OW16688   2.925   6.449   1.546
38264SOL    HW116689   3.011   6.474   1.579
38264SOL    HW216690   2.883   6.407   1.621
38265SOL     OW16691  10.895   4.506  14.733
38265SOL    HW116692  10.932   4.418  14.742
38265SOL    HW216693  10.961   4.564  14.770
38266SOL     OW16694   2.410   6.143   4.086
38266SOL    HW116695   2.497   6.181   4.086
38266SOL    HW216696   2.407   6.088   4.164
38267SOL     OW16697   1.566   8.671   0.861
38267SOL    HW116698   1.548   8.585   0.824
38267SOL    HW216699   1.489   8.723   0.841
38268SOL     OW16700  11.802  14.703  10.233
38268SOL    HW116701  11.777  14.660  10.315
38268SOL    HW216702  11.886  14.665  10.210
38269SOL     OW16703  12.717  12.565  12.998
38269SOL    HW116704  12.812  12.564  12.984
38269SOL    HW216705  12.682  12.611  12.921
38270SOL     OW16706   0.900   9.333   3.204
38270SOL    HW116707   0.871   9.242   3.207
38270SOL    HW216708   0.868   9.371   3.286
38271SOL     OW16709   2.609  12.672  10.821
38271SOL    HW116710   2.545  12.603  10.838
38271SOL    HW216711   2.560  12.754  10.832
38272SOL     OW16712   5.115  13.392   3.016
38272SOL    HW116713   5.186  13.342   3.056
38272SOL    HW216714   5.090  13.456   3.082
38273SOL     OW16715   7.857   1.010   7.511
38273SOL    HW116716   7.797   1.083   7.500
38273SOL    HW216717   7.869   1.002   7.605
38274SOL     OW16718  10.158   2.657   4.662
38274SOL    HW116719  10.186   2.749   4.667
38274SOL    HW216720  10.063   2.661   4.661
38275SOL     OW16721  12.434  14.206   0.545
38275SOL    HW116722  12.471  14.151   0.613
38275SOL    HW216723  12.394  14.145   0.483
38276SOL     OW16724  13.863   3.341   2.242
38276SOL    HW116725  13.879   3.335   2.148
38276SOL    HW216726  13.790   3.280   2.257
38277SOL     OW16727   3.102   6.934  12.362
38277SOL    HW116728   3.162   6.986  12.415
38277SOL    HW216729   3.040   6.998  12.326
38278SOL     OW16730   1.409  12.513   1.699
38278SOL    HW116731   1.479  12.545   1.642
38278SOL    HW216732   1.332  12.512   1.642
38279SOL     OW16733   4.916   7.587  13.427
38279SOL    HW116734   4.881   7.621  13.344
38279SOL    HW216735   4.848   7.608  13.492
38280SOL     OW16736   5.208   3.639   2.718
38280SOL    HW116737   5.115   3.649   2.695
38280SOL    HW216738   5.236   3.727   2.745
38281SOL     OW16739   0.833  13.078  14.690
38281SOL    HW116740   0.888  13.081  14.768
38281SOL    HW216741   0.893  13.056  14.619
38282SOL     OW16742  10.815   3.847  13.474
38282SOL    HW116743  10.744   3.816  13.417
38282SOL    HW216744  10.779   3.924  13.518
38283SOL     OW16745   1.212  13.686   3.276
38283SOL    HW116746   1.118  13.693   3.293
38283SOL    HW216747   1.218  13.662   3.184
38284SOL     OW16748   4.703  13.230   7.714
38284SOL    HW116749   4.666  13.156   7.665
38284SOL    HW216750   4.661  13.225   7.800
38285SOL     OW16751   8.881  10.596   8.157
38285SOL    HW116752   8.869  10.678   8.109
38285SOL    HW216753   8.975  10.593   8.177
38286SOL     OW16754   7.579   2.300   3.139
38286SOL    HW116755   7.626   2.317   3.220
38286SOL    HW216756   7.640   2.247   3.087
38287SOL     OW16757  10.166  13.154   7.785
38287SOL    HW116758  10.130  13.067   7.804
38287SOL    HW216759  10.177  13.155   7.690
38288SOL     OW16760   5.158   0.437   8.583
38288SOL    HW116761   5.107   0.514   8.561
38288SOL    HW216762   5.098   0.384   8.637
38289SOL     OW16763   1.939   8.522   9.148
38289SOL    HW116764   1.990   8.547   9.224
38289SOL    HW216765   1.921   8.605   9.103
38290SOL     OW16766   0.495  13.056   4.818
38290SOL    HW116767   0.479  13.031   4.727
38290SOL    HW216768   0.583  13.091   4.819
38291SOL     OW16769   8.411   9.573   4.526
38291SOL    HW116770   8.478   9.635   4.498
38291SOL    HW216771   8.352   9.566   4.452
38292SOL     OW16772   8.020  11.026   0.175
38292SOL    HW116773   8.049  11.013   0.084
38292SOL    HW216774   7.936  11.070   0.167
38293SOL     OW16775  13.840   1.509   7.682
38293SOL    HW116776  13.854   1.503   7.776
38293SOL    HW216777  13.753   1.547   7.672
38294SOL     OW16778  13.717  14.481   7.591
38294SOL    HW116779  13.737  14.439   7.507
38294SOL    HW216780  13.631  14.447   7.615
38295SOL     OW16781   4.374   2.052   6.501
38295SOL    HW116782   4.311   2.115   6.536
38295SOL    HW216783   4.453   2.103   6.483
38296SOL     OW16784  12.904   8.625   4.770
38296SOL    HW116785  12.895   8.697   4.833
38296SOL    HW216786  12.906   8.668   4.685
38297SOL     OW16787   0.390   0.215   1.131
38297SOL    HW116788   0.463   0.276   1.144
38297SOL    HW216789   0.322   0.269   1.091
38298SOL     OW16790   8.437  12.180   8.869
38298SOL    HW116791   8.369  12.197   8.804
38298SOL    HW216792   8.407  12.224   8.948
38299SOL     OW16793   6.959   2.743  10.381
38299SOL    HW116794   6.960   2.704  10.468
38299SOL    HW216795   7.050   2.771  10.366
38300SOL     OW16796   2.577  12.361   2.296
38300SOL    HW116797   2.672  12.361   2.307
38300SOL    HW216798   2.562  12.321   2.210
38301SOL     OW16799   9.740   4.091  14.488
38301SOL    HW116800   9.744   4.078  14.583
38301SOL    HW216801   9.661   4.043  14.461
38302SOL     OW16802   8.454   6.371   4.513
38302SOL    HW116803   8.413   6.456   4.500
38302SOL    HW216804   8.403   6.330   4.583
38303SOL     OW16805   7.319  11.987   7.283
38303SOL    HW116806   7.322  11.912   7.342
38303SOL    HW216807   7.242  11.971   7.228
38304SOL     OW16808   1.473   0.075   9.350
38304SOL    HW116809   1.396   0.070   9.406
38304SOL    HW216810   1.528   0.142   9.391
38305SOL     OW16811  14.376  13.810   9.327
38305SOL    HW116812  14.303  13.821   9.266
38305SOL    HW216813  14.338  13.823   9.413
38306SOL     OW16814   0.128   3.417   0.198
38306SOL    HW116815   0.078   3.490   0.237
38306SOL    HW216816   0.097   3.413   0.108
38307SOL     OW16817   0.250   2.994   7.113
38307SOL    HW116818   0.318   3.061   7.122
38307SOL    HW216819   0.256   2.968   7.021
38308SOL     OW16820   3.841   5.109   2.301
38308SOL    HW116821   3.756   5.138   2.334
38308SOL    HW216822   3.821   5.067   2.217
38309SOL     OW16823   5.427  13.895   0.059
38309SOL    HW116824   5.498  13.919   0.118
38309SOL    HW216825   5.384  13.977   0.037
38310SOL     OW16826   7.929  12.627   6.310
38310SOL    HW116827   7.989  12.637   6.236
38310SOL    HW216828   7.843  12.648   6.275
38311SOL     OW16829  12.143   7.520   8.822
38311SOL    HW116830  12.076   7.487   8.882
38311SOL    HW216831  12.094   7.553   8.746
38312SOL     OW16832   9.724   0.691   9.673
38312SOL    HW116833   9.721   0.787   9.678
38312SOL    HW216834   9.635   0.666   9.649
38313SOL     OW16835   8.837  14.546  12.674
38313SOL    HW116836   8.852  14.467  12.727
38313SOL    HW216837   8.775  14.597  12.725
38314SOL     OW16838   9.500   8.319   5.927
38314SOL    HW116839   9.463   8.398   5.966
38314SOL    HW216840   9.425   8.261   5.914
38315SOL     OW16841  13.525   9.529  13.219
38315SOL    HW116842  13.611   9.494  13.240
38315SOL    HW216843  13.542   9.618  13.189
38316SOL     OW16844  12.792   0.762  10.066
38316SOL    HW116845  12.820   0.793  10.152
38316SOL    HW216846  12.699   0.743  10.076
38317SOL     OW16847   4.137   5.292   3.133
38317SOL    HW116848   4.203   5.260   3.195
38317SOL    HW216849   4.066   5.325   3.189
38318SOL     OW16850  10.249   5.806   8.517
38318SOL    HW116851  10.310   5.847   8.579
38318SOL    HW216852  10.273   5.844   8.432
38319SOL     OW16853   3.011   1.028   6.647
38319SOL    HW116854   2.973   1.111   6.616
38319SOL    HW216855   2.937   0.967   6.646
38320SOL     OW16856   2.934  10.188   9.810
38320SOL    HW116857   2.847  10.147   9.810
38320SOL    HW216858   2.946  10.219   9.899
38321SOL     OW16859   6.816  14.851   7.047
38321SOL    HW116860   6.846   0.049   6.986
38321SOL    HW216861   6.761  14.793   6.995
38322SOL     OW16862  14.642  10.542   8.404
38322SOL    HW116863  14.629  10.484   8.478
38322SOL    HW216864  14.665  10.626   8.443
38323SOL     OW16865  10.559  14.199   8.013
38323SOL    HW116866  10.505  14.130   7.975
38323SOL    HW216867  10.600  14.158   8.089
38324SOL     OW16868   7.117  11.444  10.339
38324SOL    HW116869   7.078  11.437  10.252
38324SOL    HW216870   7.195  11.390  10.335
38325SOL     OW16871   9.844  10.588   3.802
38325SOL    HW116872   9.790  10.666   3.789
38325SOL    HW216873   9.784  10.523   3.838
38326SOL     OW16874   8.340   0.803   8.192
38326SOL    HW116875   8.373   0.716   8.170
38326SOL    HW216876   8.255   0.809   8.147
38327SOL     OW16877   8.582   9.261  11.632
38327SOL    HW116878   8.570   9.346  11.588
38327SOL    HW216879   8.585   9.197  11.561
38328SOL     OW16880   3.337   9.759  14.721
38328SOL    HW116881   3.310   9.726  14.806
38328SOL    HW216882   3.282   9.836  14.707
38329SOL     OW16883   8.694  14.183  13.663
38329SOL    HW116884   8.684  14.167  13.569
38329SOL    HW216885   8.662  14.272  13.676
38330SOL     OW16886   0.549  12.287   5.387
38330SOL    HW116887   0.511  12.352   5.328
38330SOL    HW216888   0.580  12.218   5.329
38331SOL     OW16889  13.682   0.781   1.610
38331SOL    HW116890  13.693   0.835   1.531
38331SOL    HW216891  13.691   0.691   1.578
38332SOL     OW16892   9.293  13.821   3.799
38332SOL    HW116893   9.354  13.767   3.749
38332SOL    HW216894   9.220  13.836   3.739
38333SOL     OW16895   6.555   3.147  13.810
38333SOL    HW116896   6.509   3.095  13.875
38333SOL    HW216897   6.531   3.107  13.726
38334SOL     OW16898   5.874   4.266   3.414
38334SOL    HW116899   5.953   4.252   3.362
38334SOL    HW216900   5.854   4.359   3.402
38335SOL     OW16901   7.419   7.613  10.258
38335SOL    HW116902   7.338   7.565  10.237
38335SOL    HW216903   7.445   7.653  10.175
38336SOL     OW16904   6.310   9.710   2.235
38336SOL    HW116905   6.285   9.803   2.235
38336SOL    HW216906   6.317   9.688   2.142
38337SOL     OW16907   1.903   6.571  13.627
38337SOL    HW116908   1.974   6.606  13.682
38337SOL    HW216909   1.923   6.603  13.539
38338SOL     OW16910  11.681   3.702  14.364
38338SOL    HW116911  11.675   3.626  14.422
38338SOL    HW216912  11.763   3.744  14.389
38339SOL     OW16913   4.047  13.047   2.968
38339SOL    HW116914   3.991  13.009   3.035
38339SOL    HW216915   4.104  12.976   2.941
38340SOL     OW16916  12.017  14.567  11.319
38340SOL    HW116917  11.922  14.576  11.315
38340SOL    HW216918  12.046  14.579  11.229
38341SOL     OW16919   9.095   8.038   2.350
38341SOL    HW116920   9.058   8.124   2.373
38341SOL    HW216921   9.138   8.052   2.266
38342SOL     OW16922   2.871   0.441   9.326
38342SOL    HW116923   2.855   0.368   9.387
38342SOL    HW216924   2.818   0.513   9.361
38343SOL     OW16925  14.260   8.965   8.569
38343SOL    HW116926  14.253   9.052   8.609
38343SOL    HW216927  14.172   8.944   8.539
38344SOL     OW16928   9.313   4.573   9.343
38344SOL    HW116929   9.330   4.609   9.431
38344SOL    HW216930   9.225   4.604   9.322
38345SOL     OW16931   0.519   2.959   0.380
38345SOL    HW116932   0.588   3.026   0.380
38345SOL    HW216933   0.443   3.003   0.342
38346SOL     OW16934  13.855   0.967  11.542
38346SOL    HW116935  13.942   1.004  11.554
38346SOL    HW216936  13.797   1.025  11.592
38347SOL     OW16937   1.063   2.404  10.582
38347SOL    HW116938   0.986   2.460  10.570
38347SOL    HW216939   1.062   2.346  10.506
38348SOL     OW16940   5.827   3.838  12.366
38348SOL    HW116941   5.844   3.929  12.388
38348SOL    HW216942   5.855   3.789  12.443
38349SOL     OW16943   2.810   4.592   8.180
38349SOL    HW116944   2.883   4.539   8.150
38349SOL    HW216945   2.822   4.677   8.137
38350SOL     OW16946  10.261  10.119   1.336
38350SOL    HW116947  10.234  10.104   1.427
38350SOL    HW216948  10.286  10.032   1.304
38351SOL     OW16949   4.225   4.172   3.357
38351SOL    HW116950   4.197   4.127   3.436
38351SOL    HW216951   4.145   4.211   3.322
38352SOL     OW16952   5.130   7.561   3.885
38352SOL    HW116953   5.221   7.559   3.915
38352SOL    HW216954   5.115   7.652   3.861
38353SOL     OW16955   9.322  13.587   5.380
38353SOL    HW116956   9.392  13.614   5.440
38353SOL    HW216957   9.291  13.668   5.340
38354SOL     OW16958   7.301   0.213   4.359
38354SOL    HW116959   7.225   0.254   4.400
38354SOL    HW216960   7.376   0.250   4.404
38355SOL     OW16961  14.843   4.958   1.669
38355SOL    HW116962   0.004   5.043   1.700
38355SOL    HW216963  14.824   4.908   1.748
38356SOL     OW16964   0.371   7.983   7.312
38356SOL    HW116965   0.430   8.040   7.361
38356SOL    HW216966   0.290   8.034   7.303
38357SOL     OW16967  14.184   6.624   9.865
38357SOL    HW116968  14.125   6.698   9.873
38357SOL    HW216969  14.127   6.548   9.855
38358SOL     OW16970   1.577   8.214  13.953
38358SOL    HW116971   1.565   8.163  13.873
38358SOL    HW216972   1.548   8.302  13.930
38359SOL     OW16973   3.519  13.650   4.208
38359SOL    HW116974   3.583  13.644   4.278
38359SOL    HW216975   3.554  13.594   4.138
38360SOL     OW16976  12.738   6.315  10.352
38360SOL    HW116977  12.799   6.245  10.376
38360SOL    HW216978  12.715   6.296  10.261
38361SOL     OW16979   8.802   0.546   3.146
38361SOL    HW116980   8.809   0.450   3.147
38361SOL    HW216981   8.847   0.573   3.066
38362SOL     OW16982  12.077  10.605  11.386
38362SOL    HW116983  12.113  10.520  11.410
38362SOL    HW216984  12.007  10.620  11.451
38363SOL     OW16985   8.128   3.188  14.154
38363SOL    HW116986   8.159   3.270  14.192
38363SOL    HW216987   8.078   3.215  14.077
38364SOL     OW16988  10.129   2.855   4.046
38364SOL    HW116989  10.186   2.932   4.049
38364SOL    HW216990  10.176   2.794   3.989
38365SOL     OW16991   3.517   7.099   8.053
38365SOL    HW116992   3.530   7.194   8.046
38365SOL    HW216993   3.604   7.064   8.069
38366SOL     OW16994  14.346   8.781   6.973
38366SOL    HW116995  14.393   8.709   6.933
38366SOL    HW216996  14.294   8.818   6.902
38367SOL     OW16997  13.222   3.143   5.548
38367SOL    HW116998  13.310   3.176   5.566
38367SOL    HW216999  13.226   3.113   5.457
38368SOL     OW17000  10.897   2.157  10.274
38368SOL    HW117001  10.865   2.070  10.250
38368SOL    HW217002  10.900   2.155  10.370
38369SOL     OW17003   3.270   0.622  11.814
38369SOL    HW117004   3.315   0.542  11.787
38369SOL    HW217005   3.240   0.604  11.902
38370SOL     OW17006   1.046   0.277   3.776
38370SOL    HW117007   1.016   0.254   3.864
38370SOL    HW217008   1.032   0.198   3.724
38371SOL     OW17009  10.920   3.772  12.728
38371SOL    HW117010  10.865   3.783  12.650
38371SOL    HW217011  10.994   3.720  12.697
38372SOL     OW17012   3.848   8.175   6.364
38372SOL    HW117013   3.914   8.185   6.295
38372SOL    HW217014   3.767   8.208   6.325
38373SOL     OW17015  10.118  10.414   8.689
38373SOL    HW117016  10.158  10.483   8.743
38373SOL    HW217017  10.169  10.415   8.607
38374SOL     OW17018  11.819  11.844  14.516
38374SOL    HW117019  11.745  11.863  14.458
38374SOL    HW217020  11.838  11.928  14.558
38375SOL     OW17021   9.294  14.473  11.723
38375SOL    HW117022   9.370  14.531  11.724
38375SOL    HW217023   9.232  14.514  11.783
38376SOL     OW17024   1.423  10.974   0.824
38376SOL    HW117025   1.346  10.922   0.800
38376SOL    HW217026   1.498  10.918   0.803
38377SOL     OW17027   1.987  14.724   5.535
38377SOL    HW117028   1.904  14.766   5.559
38377SOL    HW217029   2.003  14.753   5.445
38378SOL     OW17030   4.013   7.817   7.029
38378SOL    HW117031   4.103   7.793   7.052
38378SOL    HW217032   4.022   7.869   6.950
38379SOL     OW17033  12.685  11.990  14.246
38379SOL    HW117034  12.647  12.076  14.268
38379SOL    HW217035  12.617  11.928  14.272
38380SOL     OW17036   2.526   7.963   3.219
38380SOL    HW117037   2.535   8.023   3.145
38380SOL    HW217038   2.615   7.930   3.234
38381SOL     OW17039  12.417   5.977   7.015
38381SOL    HW117040  12.466   5.913   6.962
38381SOL    HW217041  12.333   5.985   6.970
38382SOL     OW17042   4.286   7.344   1.937
38382SOL    HW117043   4.331   7.421   1.971
38382SOL    HW217044   4.344   7.271   1.958
38383SOL     OW17045   9.103   2.724   9.535
38383SOL    HW117046   9.131   2.813   9.512
38383SOL    HW217047   9.009   2.724   9.517
38384SOL     OW17048   3.399   0.836   4.356
38384SOL    HW117049   3.390   0.815   4.449
38384SOL    HW217050   3.493   0.832   4.339
38385SOL     OW17051   2.599   5.012   5.720
38385SOL    HW117052   2.662   4.942   5.740
38385SOL    HW217053   2.609   5.074   5.793
38386SOL     OW17054   6.421   8.344  13.313
38386SOL    HW117055   6.332   8.348  13.279
38386SOL    HW217056   6.449   8.435  13.321
38387SOL     OW17057   6.891   9.958   4.224
38387SOL    HW117058   6.938   9.966   4.307
38387SOL    HW217059   6.945  10.006   4.161
38388SOL     OW17060  10.982   1.122  14.077
38388SOL    HW117061  10.979   1.168  13.993
38388SOL    HW217062  10.896   1.138  14.116
38389SOL     OW17063   6.998  11.173  12.819
38389SOL    HW117064   6.961  11.152  12.905
38389SOL    HW217065   6.933  11.141  12.756
38390SOL     OW17066   0.840   0.387   5.203
38390SOL    HW117067   0.856   0.373   5.110
38390SOL    HW217068   0.901   0.457   5.228
38391SOL     OW17069  13.620   8.504   9.441
38391SOL    HW117070  13.661   8.590   9.447
38391SOL    HW217071  13.630   8.479   9.349
38392SOL     OW17072  11.369   3.087  12.491
38392SOL    HW117073  11.300   3.041  12.539
38392SOL    HW217074  11.369   3.047  12.404
38393SOL     OW17075  14.190   9.113  11.584
38393SOL    HW117076  14.229   9.089  11.668
38393SOL    HW217077  14.124   9.046  11.568
38394SOL     OW17078  12.976   6.045  12.236
38394SOL    HW117079  12.941   6.103  12.304
38394SOL    HW217080  13.011   5.970  12.285
38395SOL     OW17081  11.198  12.474  11.203
38395SOL    HW117082  11.149  12.555  11.213
38395SOL    HW217083  11.132  12.405  11.205
38396SOL     OW17084  10.895  14.719  10.688
38396SOL    HW117085  10.986  14.747  10.679
38396SOL    HW217086  10.900  14.631  10.725
38397SOL     OW17087   6.559   7.309   1.802
38397SOL    HW117088   6.612   7.257   1.742
38397SOL    HW217089   6.518   7.376   1.747
38398SOL     OW17090   7.062   1.789   3.208
38398SOL    HW117091   7.041   1.792   3.301
38398SOL    HW217092   7.158   1.789   3.206
38399SOL     OW17093   8.618   8.086  11.895
38399SOL    HW117094   8.699   8.034  11.895
38399SOL    HW217095   8.633   8.151  11.964
38400SOL     OW17096   7.511   3.379  12.869
38400SOL    HW117097   7.497   3.302  12.815
38400SOL    HW217098   7.569   3.350  12.939
38401SOL     OW17099   4.473  11.257  14.333
38401SOL    HW117100   4.480  11.162  14.348
38401SOL    HW217101   4.441  11.292  14.416
38402SOL     OW17102   9.772  12.315  11.012
38402SOL    HW117103   9.788  12.405  10.981
38402SOL    HW217104   9.742  12.326  11.102
38403SOL     OW17105  14.226   1.576   0.151
38403SOL    HW117106  14.179   1.655   0.126
38403SOL    HW217107  14.229   1.579   0.247
38404SOL     OW17108   0.906   5.034   7.247
38404SOL    HW117109   0.989   5.062   7.209
38404SOL    HW217110   0.840   5.062   7.183
38405SOL     OW17111  12.811   5.320   7.582
38405SOL    HW117112  12.854   5.382   7.641
38405SOL    HW217113  12.717   5.329   7.602
38406SOL     OW17114   7.387   5.823   6.399
38406SOL    HW117115   7.405   5.808   6.492
38406SOL    HW217116   7.328   5.751   6.375
38407SOL     OW17117   6.797   1.473   6.673
38407SOL    HW117118   6.760   1.553   6.709
38407SOL    HW217119   6.765   1.403   6.731
38408SOL     OW17120   6.163  10.369   2.302
38408SOL    HW117121   6.130  10.360   2.212
38408SOL    HW217122   6.248  10.325   2.300
38409SOL     OW17123  12.134   5.124   9.776
38409SOL    HW117124  12.171   5.053   9.722
38409SOL    HW217125  12.197   5.133   9.848
38410SOL     OW17126   0.242   4.298   7.917
38410SOL    HW117127   0.251   4.226   7.855
38410SOL    HW217128   0.324   4.297   7.967
38411SOL     OW17129  14.739   8.137  14.481
38411SOL    HW117130  14.655   8.164  14.517
38411SOL    HW217131  14.796   8.214  14.491
38412SOL     OW17132   5.202   4.143   0.994
38412SOL    HW117133   5.152   4.095   0.929
38412SOL    HW217134   5.150   4.221   1.012
38413SOL     OW17135   1.135   3.500   7.582
38413SOL    HW117136   1.220   3.458   7.565
38413SOL    HW217137   1.072   3.428   7.583
38414SOL     OW17138  13.708   9.518   4.158
38414SOL    HW117139  13.695   9.613   4.162
38414SOL    HW217140  13.663   9.491   4.078
38415SOL     OW17141   1.060   7.202  10.525
38415SOL    HW117142   1.043   7.108  10.536
38415SOL    HW217143   0.994   7.245  10.579
38416SOL     OW17144   9.989   0.213   5.278
38416SOL    HW117145   9.954   0.267   5.349
38416SOL    HW217146   9.918   0.208   5.214
38417SOL     OW17147   4.343   2.173   4.516
38417SOL    HW117148   4.251   2.186   4.496
38417SOL    HW217149   4.390   2.226   4.451
38418SOL     OW17150   4.260  13.376  12.558
38418SOL    HW117151   4.186  13.375  12.619
38418SOL    HW217152   4.266  13.286  12.527
38419SOL     OW17153  10.133   9.404  12.494
38419SOL    HW117154  10.056   9.460  12.508
38419SOL    HW217155  10.205   9.466  12.478
38420SOL     OW17156   2.003   2.191   1.717
38420SOL    HW117157   2.034   2.150   1.637
38420SOL    HW217158   1.914   2.219   1.697
38421SOL     OW17159   4.372   7.040  12.108
38421SOL    HW117160   4.283   7.059  12.078
38421SOL    HW217161   4.423   7.115  12.077
38422SOL     OW17162  10.847   1.894  14.275
38422SOL    HW117163  10.872   1.956  14.343
38422SOL    HW217164  10.858   1.943  14.193
38423SOL     OW17165   1.251   3.298   1.773
38423SOL    HW117166   1.300   3.216   1.768
38423SOL    HW217167   1.185   3.291   1.704
38424SOL     OW17168  10.093   6.229  12.860
38424SOL    HW117169  10.053   6.272  12.784
38424SOL    HW217170  10.187   6.233  12.844
38425SOL     OW17171   0.193   9.134   4.575
38425SOL    HW117172   0.184   9.082   4.496
38425SOL    HW217173   0.209   9.070   4.644
38426SOL     OW17174  14.671  13.106   3.317
38426SOL    HW117175  14.591  13.053   3.318
38426SOL    HW217176  14.642  13.192   3.289
38427SOL     OW17177  12.281   3.740  10.103
38427SOL    HW117178  12.351   3.764  10.043
38427SOL    HW217179  12.254   3.823  10.143
38428SOL     OW17180  13.750   2.662  10.530
38428SOL    HW117181  13.676   2.664  10.591
38428SOL    HW217182  13.714   2.622  10.451
38429SOL     OW17183   8.852   5.511   6.869
38429SOL    HW117184   8.789   5.559   6.924
38429SOL    HW217185   8.904   5.460   6.931
38430SOL     OW17186  11.142   6.008  12.623
38430SOL    HW117187  11.127   6.098  12.593
38430SOL    HW217188  11.058   5.980  12.659
38431SOL     OW17189  12.987   3.927  14.198
38431SOL    HW117190  13.005   3.856  14.136
38431SOL    HW217191  12.999   3.888  14.284
38432SOL     OW17192   8.685   9.549  14.533
38432SOL    HW117193   8.765   9.507  14.502
38432SOL    HW217194   8.615   9.490  14.507
38433SOL     OW17195   3.637   6.965  10.768
38433SOL    HW117196   3.594   6.973  10.853
38433SOL    HW217197   3.724   7.002  10.781
38434SOL     OW17198  13.487   7.380   3.183
38434SOL    HW117199  13.550   7.316   3.149
38434SOL    HW217200  13.537   7.431   3.246
38435SOL     OW17201   5.686   3.110   8.461
38435SOL    HW117202   5.669   3.183   8.520
38435SOL    HW217203   5.667   3.144   8.374
38436SOL     OW17204   4.984  14.821   1.188
38436SOL    HW117205   4.922  14.774   1.132
38436SOL    HW217206   5.070  14.803   1.150
38437SOL     OW17207   9.792   2.776   3.115
38437SOL    HW117208   9.866   2.833   3.094
38437SOL    HW217209   9.801   2.703   3.055
38438SOL     OW17210  13.926   2.796   4.351
38438SOL    HW117211  13.918   2.739   4.428
38438SOL    HW217212  13.971   2.742   4.286
38439SOL     OW17213   4.596   6.681   3.116
38439SOL    HW117214   4.617   6.591   3.091
38439SOL    HW217215   4.672   6.732   3.087
38440SOL     OW17216  11.666  13.574   0.463
38440SOL    HW117217  11.652  13.627   0.541
38440SOL    HW217218  11.713  13.632   0.402
38441SOL     OW17219  11.762   0.730   3.986
38441SOL    HW117220  11.754   0.643   4.023
38441SOL    HW217221  11.857   0.742   3.974
38442SOL     OW17222   8.623  11.826   3.793
38442SOL    HW117223   8.550  11.800   3.738
38442SOL    HW217224   8.591  11.815   3.883
38443SOL     OW17225   9.979  10.918   5.504
38443SOL    HW117226   9.960  10.891   5.414
38443SOL    HW217227   9.893  10.918   5.547
38444SOL     OW17228  14.512   9.180   7.483
38444SOL    HW117229  14.600   9.148   7.462
38444SOL    HW217230  14.526   9.260   7.533
38445SOL     OW17231   0.576   1.768   9.379
38445SOL    HW117232   0.620   1.760   9.463
38445SOL    HW217233   0.540   1.681   9.361
38446SOL     OW17234   0.925  10.725   1.836
38446SOL    HW117235   0.871  10.685   1.904
38446SOL    HW217236   0.863  10.761   1.773
38447SOL     OW17237   1.221   2.785   9.097
38447SOL    HW117238   1.231   2.866   9.047
38447SOL    HW217239   1.129   2.786   9.125
38448SOL     OW17240   2.016   9.022   2.013
38448SOL    HW117241   2.005   9.047   2.105
38448SOL    HW217242   1.936   9.053   1.970
38449SOL     OW17243   3.722   7.078   3.755
38449SOL    HW117244   3.795   7.123   3.712
38449SOL    HW217245   3.673   7.038   3.683
38450SOL     OW17246   1.002   3.268   9.042
38450SOL    HW117247   0.994   3.173   9.055
38450SOL    HW217248   1.073   3.294   9.100
38451SOL     OW17249  10.902   3.416   2.849
38451SOL    HW117250  10.846   3.490   2.872
38451SOL    HW217251  10.871   3.388   2.762
38452SOL     OW17252   5.345   6.419   0.528
38452SOL    HW117253   5.305   6.470   0.457
38452SOL    HW217254   5.438   6.442   0.524
38453SOL     OW17255   2.013  13.450   8.052
38453SOL    HW117256   2.037  13.369   8.097
38453SOL    HW217257   2.079  13.460   7.983
38454SOL     OW17258   1.057   3.018   9.676
38454SOL    HW117259   0.965   3.013   9.702
38454SOL    HW217260   1.101   2.950   9.727
38455SOL     OW17261   7.554   5.613   0.642
38455SOL    HW117262   7.545   5.654   0.728
38455SOL    HW217263   7.523   5.523   0.654
38456SOL     OW17264  13.998   2.164   9.516
38456SOL    HW117265  13.919   2.111   9.512
38456SOL    HW217266  14.043   2.146   9.433
38457SOL     OW17267   5.499   2.037   4.047
38457SOL    HW117268   5.445   1.986   4.108
38457SOL    HW217269   5.437   2.074   3.985
38458SOL     OW17270   2.909  13.716  11.036
38458SOL    HW117271   2.864  13.702  10.953
38458SOL    HW217272   3.002  13.708  11.016
38459SOL     OW17273  13.426   3.223   2.446
38459SOL    HW117274  13.503   3.186   2.489
38459SOL    HW217275  13.433   3.318   2.462
38460SOL     OW17276  10.578  11.666   7.670
38460SOL    HW117277  10.491  11.671   7.631
38460SOL    HW217278  10.623  11.745   7.640
38461SOL     OW17279   0.436   0.694   4.170
38461SOL    HW117280   0.504   0.751   4.135
38461SOL    HW217281   0.396   0.653   4.093
38462SOL     OW17282   6.207   0.135   0.734
38462SOL    HW117283   6.219   0.230   0.734
38462SOL    HW217284   6.291   0.101   0.702
38463SOL     OW17285   3.858  14.222   8.542
38463SOL    HW117286   3.926  14.280   8.508
38463SOL    HW217287   3.814  14.189   8.463
38464SOL     OW17288   4.909   2.285  10.643
38464SOL    HW117289   4.968   2.276  10.718
38464SOL    HW217290   4.885   2.378  10.643
38465SOL     OW17291   6.308  10.301  13.996
38465SOL    HW117292   6.392  10.338  13.968
38465SOL    HW217293   6.259  10.375  14.030
38466SOL     OW17294   9.332   3.845  10.776
38466SOL    HW117295   9.341   3.859  10.682
38466SOL    HW217296   9.327   3.750  10.786
38467SOL     OW17297  13.479  10.632   6.455
38467SOL    HW117298  13.563  10.655   6.495
38467SOL    HW217299  13.503  10.571   6.384
38468SOL     OW17300   5.944  10.460  12.289
38468SOL    HW117301   5.862  10.503  12.265
38468SOL    HW217302   6.004  10.532  12.307
38469SOL     OW17303   8.143   6.915  10.953
38469SOL    HW117304   8.172   6.882  11.039
38469SOL    HW217305   8.148   7.010  10.961
38470SOL     OW17306  11.191   4.718   2.505
38470SOL    HW117307  11.183   4.784   2.573
38470SOL    HW217308  11.133   4.747   2.435
38471SOL     OW17309  11.971   9.950   5.498
38471SOL    HW117310  11.912   9.963   5.573
38471SOL    HW217311  11.914   9.956   5.422
38472SOL     OW17312  11.248  14.111  14.189
38472SOL    HW117313  11.169  14.062  14.212
38472SOL    HW217314  11.230  14.145  14.101
38473SOL     OW17315  11.304   6.829   7.143
38473SOL    HW117316  11.332   6.896   7.205
38473SOL    HW217317  11.215   6.807   7.169
38474SOL     OW17318  13.637   4.443  14.720
38474SOL    HW117319  13.619   4.507  14.651
38474SOL    HW217320  13.599   4.362  14.688
38475SOL     OW17321   9.976  11.340   8.212
38475SOL    HW117322   9.907  11.302   8.268
38475SOL    HW217323  10.042  11.371   8.274
38476SOL     OW17324   8.105   6.829   3.247
38476SOL    HW117325   8.071   6.743   3.272
38476SOL    HW217326   8.131   6.818   3.156
38477SOL     OW17327   4.708   8.513  14.203
38477SOL    HW117328   4.677   8.592  14.159
38477SOL    HW217329   4.751   8.463  14.134
38478SOL     OW17330  10.967   9.676  11.951
38478SOL    HW117331  10.947   9.736  11.879
38478SOL    HW217332  11.056   9.645  11.933
38479SOL     OW17333  10.694   2.464   5.261
38479SOL    HW117334  10.714   2.382   5.307
38479SOL    HW217335  10.629   2.439   5.196
38480SOL     OW17336  12.085   8.110   1.996
38480SOL    HW117337  12.093   8.111   2.091
38480SOL    HW217338  12.014   8.048   1.979
38481SOL     OW17339   3.990   2.159  14.283
38481SOL    HW117340   4.009   2.218  14.356
38481SOL    HW217341   3.908   2.117  14.306
38482SOL     OW17342  11.723   2.530   5.910
38482SOL    HW117343  11.751   2.597   5.847
38482SOL    HW217344  11.804   2.495   5.945
38483SOL     OW17345   4.627   8.236   7.658
38483SOL    HW117346   4.711   8.241   7.613
38483SOL    HW217347   4.605   8.143   7.658
38484SOL     OW17348   6.093   1.329  12.533
38484SOL    HW117349   6.006   1.291  12.541
38484SOL    HW217350   6.105   1.380  12.612
38485SOL     OW17351   2.216   2.576  11.193
38485SOL    HW117352   2.246   2.522  11.266
38485SOL    HW217353   2.142   2.625  11.228
38486SOL     OW17354   9.045  13.866   7.715
38486SOL    HW117355   8.986  13.817   7.772
38486SOL    HW217356   9.079  13.936   7.771
38487SOL     OW17357   9.786   1.174   1.545
38487SOL    HW117358   9.790   1.201   1.637
38487SOL    HW217359   9.853   1.106   1.537
38488SOL     OW17360  11.244   3.442   9.402
38488SOL    HW117361  11.187   3.457   9.477
38488SOL    HW217362  11.229   3.518   9.345
38489SOL     OW17363   0.990   1.790   5.519
38489SOL    HW117364   1.024   1.844   5.447
38489SOL    HW217365   1.064   1.779   5.578
38490SOL     OW17366   1.698  12.208  13.826
38490SOL    HW117367   1.629  12.200  13.759
38490SOL    HW217368   1.756  12.134  13.808
38491SOL     OW17369   5.740  12.419   0.981
38491SOL    HW117370   5.701  12.429   1.068
38491SOL    HW217371   5.814  12.360   0.994
38492SOL     OW17372   9.251   0.813   5.427
38492SOL    HW117373   9.332   0.826   5.379
38492SOL    HW217374   9.207   0.898   5.423
38493SOL     OW17375  13.182   2.410   5.857
38493SOL    HW117376  13.178   2.499   5.822
38493SOL    HW217377  13.226   2.420   5.941
38494SOL     OW17378  12.282  12.906  11.685
38494SOL    HW117379  12.237  12.990  11.694
38494SOL    HW217380  12.374  12.926  11.701
38495SOL     OW17381  11.699   9.088   2.694
38495SOL    HW117382  11.750   9.168   2.679
38495SOL    HW217383  11.611   9.119   2.713
38496SOL     OW17384   5.496   2.907  10.622
38496SOL    HW117385   5.521   2.978  10.562
38496SOL    HW217386   5.445   2.847  10.568
38497SOL     OW17387   5.378   5.226  11.502
38497SOL    HW117388   5.353   5.134  11.500
38497SOL    HW217389   5.380   5.252  11.410
38498SOL     OW17390   2.180  12.893  12.644
38498SOL    HW117391   2.180  12.807  12.687
38498SOL    HW217392   2.089  12.906  12.617
38499SOL     OW17393  13.929   1.064   6.161
38499SOL    HW117394  13.874   1.129   6.117
38499SOL    HW217395  13.970   1.016   6.090
38500SOL     OW17396  12.524   9.587   3.951
38500SOL    HW117397  12.523   9.493   3.933
38500SOL    HW217398  12.505   9.628   3.866
38501SOL     OW17399  13.859   7.801  14.749
38501SOL    HW117400  13.807   7.795  14.669
38501SOL    HW217401  13.950   7.806  14.719
38502SOL     OW17402  14.706   4.438   1.089
38502SOL    HW117403  14.697   4.441   1.185
38502SOL    HW217404  14.618   4.459   1.057
38503SOL     OW17405   2.717   1.009  12.531
38503SOL    HW117406   2.745   1.100  12.541
38503SOL    HW217407   2.626   1.009  12.560
38504SOL     OW17408  14.840   0.021   5.378
38504SOL    HW117409  14.765   0.035   5.320
38504SOL    HW217410  14.807   0.043   5.465
38505SOL     OW17411   2.757   1.748   1.775
38505SOL    HW117412   2.741   1.731   1.682
38505SOL    HW217413   2.674   1.784   1.807
38506SOL     OW17414  11.458   4.849   6.375
38506SOL    HW117415  11.528   4.910   6.397
38506SOL    HW217416  11.492   4.797   6.302
38507SOL     OW17417   3.384  10.798   9.791
38507SOL    HW117418   3.405  10.884   9.826
38507SOL    HW217419   3.354  10.747   9.867
38508SOL     OW17420   2.239   6.494  10.805
38508SOL    HW117421   2.161   6.500  10.751
38508SOL    HW217422   2.277   6.582  10.802
38509SOL     OW17423  10.019  11.848   3.790
38509SOL    HW117424  10.093  11.810   3.743
38509SOL    HW217425   9.942  11.822   3.740
38510SOL     OW17426   5.745   8.106  14.076
38510SOL    HW117427   5.739   8.114  13.981
38510SOL    HW217428   5.839   8.105  14.095
38511SOL     OW17429   5.378   4.174   3.040
38511SOL    HW117430   5.341   4.122   3.111
38511SOL    HW217431   5.363   4.265   3.067
38512SOL     OW17432   1.288   3.892  12.147
38512SOL    HW117433   1.274   3.804  12.182
38512SOL    HW217434   1.302   3.946  12.225
38513SOL     OW17435   3.877  12.562  13.313
38513SOL    HW117436   3.810  12.621  13.348
38513SOL    HW217437   3.947  12.621  13.283
38514SOL     OW17438   3.785  13.375  10.290
38514SOL    HW117439   3.840  13.353  10.214
38514SOL    HW217440   3.847  13.384  10.362
38515SOL     OW17441  12.028   1.479   1.506
38515SOL    HW117442  12.053   1.445   1.420
38515SOL    HW217443  11.992   1.403   1.553
38516SOL     OW17444   8.514   1.744  10.995
38516SOL    HW117445   8.421   1.746  11.020
38516SOL    HW217446   8.554   1.685  11.059
38517SOL     OW17447  13.493   0.847   8.420
38517SOL    HW117448  13.586   0.841   8.442
38517SOL    HW217449  13.464   0.928   8.463
38518SOL     OW17450  13.380   9.331   4.180
38518SOL    HW117451  13.401   9.423   4.199
38518SOL    HW217452  13.465   9.289   4.168
38519SOL     OW17453   2.571   3.761  11.183
38519SOL    HW117454   2.521   3.781  11.103
38519SOL    HW217455   2.510   3.782  11.254
38520SOL     OW17456   3.776   9.347  13.292
38520SOL    HW117457   3.838   9.356  13.365
38520SOL    HW217458   3.702   9.298  13.329
38521SOL     OW17459   5.340   3.771   6.676
38521SOL    HW117460   5.325   3.690   6.628
38521SOL    HW217461   5.419   3.754   6.727
38522SOL     OW17462   6.305   3.913  14.780
38522SOL    HW117463   6.339   3.999  14.801
38522SOL    HW217464   6.378   3.869  14.735
38523SOL     OW17465   9.595   7.966   0.979
38523SOL    HW117466   9.551   7.891   1.019
38523SOL    HW217467   9.605   7.941   0.887
38524SOL     OW17468   5.560   5.525  12.873
38524SOL    HW117469   5.637   5.482  12.837
38524SOL    HW217470   5.520   5.460  12.931
38525SOL     OW17471   5.127   2.399   3.772
38525SOL    HW117472   5.077   2.321   3.797
38525SOL    HW217473   5.157   2.381   3.683
38526SOL     OW17474   7.721   4.733   2.050
38526SOL    HW117475   7.695   4.647   2.017
38526SOL    HW217476   7.741   4.718   2.142
38527SOL     OW17477  13.700   9.256   6.056
38527SOL    HW117478  13.647   9.221   5.984
38527SOL    HW217479  13.756   9.322   6.015
38528SOL     OW17480   0.675   2.771   8.207
38528SOL    HW117481   0.647   2.700   8.265
38528SOL    HW217482   0.770   2.771   8.213
38529SOL     OW17483  12.805   4.143  14.191
38529SOL    HW117484  12.786   4.155  14.098
38529SOL    HW217485  12.857   4.063  14.195
38530SOL     OW17486   6.545  13.663   4.740
38530SOL    HW117487   6.492  13.735   4.774
38530SOL    HW217488   6.505  13.584   4.776
38531SOL     OW17489   9.544  13.993  10.750
38531SOL    HW117490   9.512  13.947  10.673
38531SOL    HW217491   9.477  13.977  10.817
38532SOL     OW17492   8.888  13.807   9.243
38532SOL    HW117493   8.821  13.781   9.180
38532SOL    HW217494   8.971  13.781   9.203
38533SOL     OW17495   4.632   1.476   1.636
38533SOL    HW117496   4.643   1.407   1.702
38533SOL    HW217497   4.554   1.450   1.587
38534SOL     OW17498   3.034   5.163   9.983
38534SOL    HW117499   3.020   5.229   9.915
38534SOL    HW217500   3.115   5.191  10.025
38535SOL     OW17501   2.856   2.274  14.439
38535SOL    HW117502   2.792   2.230  14.495
38535SOL    HW217503   2.842   2.238  14.352
38536SOL     OW17504  11.838   0.473   4.026
38536SOL    HW117505  11.798   0.458   3.940
38536SOL    HW217506  11.926   0.437   4.018
38537SOL     OW17507   4.847  12.212   9.216
38537SOL    HW117508   4.847  12.275   9.144
38537SOL    HW217509   4.926  12.233   9.266
38538SOL     OW17510   7.941   8.984  13.396
38538SOL    HW117511   7.846   8.993  13.396
38538SOL    HW217512   7.959   8.915  13.332
38539SOL     OW17513   0.379  12.659  10.707
38539SOL    HW117514   0.456  12.633  10.758
38539SOL    HW217515   0.386  12.610  10.626
38540SOL     OW17516   9.033   5.206   6.609
38540SOL    HW117517   8.948   5.246   6.628
38540SOL    HW217518   9.064   5.174   6.694
38541SOL     OW17519  11.536   4.559  12.240
38541SOL    HW117520  11.535   4.488  12.176
38541SOL    HW217521  11.615   4.609  12.221
38542SOL     OW17522  13.682  10.203   7.960
38542SOL    HW117523  13.630  10.272   8.003
38542SOL    HW217524  13.759  10.249   7.928
38543SOL     OW17525   4.368   5.780   2.334
38543SOL    HW117526   4.391   5.869   2.306
38543SOL    HW217527   4.363   5.786   2.429
38544SOL     OW17528  11.522   4.339  14.819
38544SOL    HW117529  11.539   4.281  14.745
38544SOL    HW217530  11.540   4.427  14.786
38545SOL     OW17531   2.785   5.496   0.174
38545SOL    HW117532   2.794   5.486   0.080
38545SOL    HW217533   2.859   5.551   0.200
38546SOL     OW17534  11.430   7.896   5.379
38546SOL    HW117535  11.403   7.810   5.347
38546SOL    HW217536  11.523   7.888   5.398
38547SOL     OW17537   9.980   7.756   0.232
38547SOL    HW117538  10.007   7.675   0.276
38547SOL    HW217539   9.999   7.825   0.295
38548SOL     OW17540  14.336  10.416   7.195
38548SOL    HW117541  14.265  10.479   7.197
38548SOL    HW217542  14.295  10.334   7.169
38549SOL     OW17543  14.434  12.174   4.519
38549SOL    HW117544  14.359  12.158   4.463
38549SOL    HW217545  14.415  12.258   4.562
38550SOL     OW17546  10.599   3.772  11.983
38550SOL    HW117547  10.618   3.762  12.077
38550SOL    HW217548  10.512   3.736  11.972
38551SOL     OW17549   6.813   6.501   1.854
38551SOL    HW117550   6.850   6.496   1.942
38551SOL    HW217551   6.753   6.426   1.848
38552SOL     OW17552   1.268   0.247  12.181
38552SOL    HW117553   1.358   0.266  12.157
38552SOL    HW217554   1.216   0.282  12.109
38553SOL     OW17555   2.260   2.514   0.241
38553SOL    HW117556   2.192   2.493   0.305
38553SOL    HW217557   2.258   2.609   0.234
38554SOL     OW17558   3.509   6.805   0.115
38554SOL    HW117559   3.436   6.742   0.116
38554SOL    HW217560   3.491   6.862   0.189
38555SOL     OW17561  14.761  14.803   1.539
38555SOL    HW117562  14.842  14.766   1.505
38555SOL    HW217563  14.697  14.732   1.531
38556SOL     OW17564   5.374   6.527   6.994
38556SOL    HW117565   5.409   6.573   6.918
38556SOL    HW217566   5.431   6.553   7.067
38557SOL     OW17567  12.501  13.053   8.479
38557SOL    HW117568  12.474  13.093   8.396
38557SOL    HW217569  12.523  13.128   8.535
38558SOL     OW17570   4.459  11.992   4.597
38558SOL    HW117571   4.386  12.025   4.544
38558SOL    HW217572   4.453  12.042   4.679
38559SOL     OW17573   9.281   7.647  10.068
38559SOL    HW117574   9.238   7.616  10.147
38559SOL    HW217575   9.365   7.682  10.098
38560SOL     OW17576  12.777  13.474   0.909
38560SOL    HW117577  12.827  13.556   0.910
38560SOL    HW217578  12.704  13.492   0.849
38561SOL     OW17579  13.952   4.945   7.559
38561SOL    HW117580  13.900   4.939   7.639
38561SOL    HW217581  14.019   5.011   7.578
38562SOL     OW17582   4.022  10.971   0.566
38562SOL    HW117583   4.038  11.033   0.637
38562SOL    HW217584   4.056  10.887   0.598
38563SOL     OW17585   4.787   4.043  14.026
38563SOL    HW117586   4.769   3.984  13.953
38563SOL    HW217587   4.875   4.019  14.055
38564SOL     OW17588  14.150  11.585  13.731
38564SOL    HW117589  14.113  11.542  13.653
38564SOL    HW217590  14.154  11.516  13.797
38565SOL     OW17591   7.300   6.734   3.185
38565SOL    HW117592   7.251   6.654   3.204
38565SOL    HW217593   7.312   6.733   3.090
38566SOL     OW17594  11.476   7.785   4.099
38566SOL    HW117595  11.532   7.721   4.144
38566SOL    HW217596  11.531   7.863   4.094
38567SOL     OW17597   0.733  11.704  14.658
38567SOL    HW117598   0.779  11.759  14.595
38567SOL    HW217599   0.691  11.636  14.605
38568SOL     OW17600   4.769   9.579   6.774
38568SOL    HW117601   4.759   9.607   6.683
38568SOL    HW217602   4.718   9.642   6.824
38569SOL     OW17603  10.482  12.514   5.594
38569SOL    HW117604  10.453  12.426   5.570
38569SOL    HW217605  10.483  12.562   5.511
38570SOL     OW17606  13.136   8.039   8.372
38570SOL    HW117607  13.160   8.131   8.365
38570SOL    HW217608  13.052   8.040   8.419
38571SOL     OW17609   5.605   6.791   1.362
38571SOL    HW117610   5.621   6.764   1.452
38571SOL    HW217611   5.575   6.881   1.368
38572SOL     OW17612   3.324   6.820   1.573
38572SOL    HW117613   3.382   6.754   1.535
38572SOL    HW217614   3.381   6.874   1.628
38573SOL     OW17615  12.507  11.209  13.218
38573SOL    HW117616  12.456  11.149  13.164
38573SOL    HW217617  12.579  11.238  13.161
38574SOL     OW17618  10.992   7.787   0.726
38574SOL    HW117619  11.080   7.780   0.688
38574SOL    HW217620  11.003   7.758   0.817
38575SOL     OW17621   9.433  12.420   4.931
38575SOL    HW117622   9.430  12.344   4.873
38575SOL    HW217623   9.346  12.423   4.971
38576SOL     OW17624  13.764  11.237  10.785
38576SOL    HW117625  13.837  11.294  10.758
38576SOL    HW217626  13.806  11.156  10.812
38577SOL     OW17627   2.085   8.444  13.359
38577SOL    HW117628   2.151   8.508  13.384
38577SOL    HW217629   2.016   8.454  13.424
38578SOL     OW17630   0.098   0.028   8.648
38578SOL    HW117631   0.112   0.095   8.581
38578SOL    HW217632   0.008   0.041   8.677
38579SOL     OW17633   3.490   8.654   6.775
38579SOL    HW117634   3.562   8.717   6.780
38579SOL    HW217635   3.482   8.632   6.682
38580SOL     OW17636   3.801  10.473   1.576
38580SOL    HW117637   3.765  10.417   1.645
38580SOL    HW217638   3.862  10.418   1.529
38581SOL     OW17639  12.163   5.746   5.920
38581SOL    HW117640  12.216   5.826   5.918
38581SOL    HW217641  12.077   5.776   5.951
38582SOL     OW17642   0.425   1.900   4.422
38582SOL    HW117643   0.441   1.991   4.398
38582SOL    HW217644   0.473   1.848   4.357
38583SOL     OW17645   4.897   1.318  14.011
38583SOL    HW117646   4.831   1.297  14.077
38583SOL    HW217647   4.970   1.260  14.031
38584SOL     OW17648   5.270  13.892   2.536
38584SOL    HW117649   5.352  13.868   2.580
38584SOL    HW217650   5.274  13.845   2.452
38585SOL     OW17651   8.003   6.691   0.908
38585SOL    HW117652   7.994   6.730   0.821
38585SOL    HW217653   7.974   6.760   0.968
38586SOL     OW17654   2.484   3.865   9.397
38586SOL    HW117655   2.472   3.928   9.326
38586SOL    HW217656   2.398   3.823   9.406
38587SOL     OW17657  10.385   8.720   3.702
38587SOL    HW117658  10.308   8.759   3.745
38587SOL    HW217659  10.396   8.771   3.621
38588SOL     OW17660  13.844   5.488   8.225
38588SOL    HW117661  13.921   5.464   8.174
38588SOL    HW217662  13.875   5.558   8.283
38589SOL     OW17663   3.111   3.291  10.952
38589SOL    HW117664   3.194   3.278  10.906
38589SOL    HW217665   3.134   3.345  11.027
38590SOL     OW17666  13.640  12.176   0.913
38590SOL    HW117667  13.567  12.118   0.935
38590SOL    HW217668  13.627  12.197   0.821
38591SOL     OW17669  11.445   2.757  10.505
38591SOL    HW117670  11.381   2.727  10.441
38591SOL    HW217671  11.476   2.841  10.470
38592SOL     OW17672   6.435   5.837  11.527
38592SOL    HW117673   6.525   5.856  11.503
38592SOL    HW217674   6.396   5.800  11.448
38593SOL     OW17675  12.841   8.021   9.949
38593SOL    HW117676  12.923   8.048   9.908
38593SOL    HW217677  12.861   7.937   9.990
38594SOL     OW17678  14.416   8.273   9.783
38594SOL    HW117679  14.508   8.264   9.806
38594SOL    HW217680  14.401   8.368   9.778
38595SOL     OW17681   4.509   0.410   4.872
38595SOL    HW117682   4.495   0.322   4.907
38595SOL    HW217683   4.432   0.428   4.819
38596SOL     OW17684  13.431  13.502  11.868
38596SOL    HW117685  13.410  13.453  11.947
38596SOL    HW217686  13.386  13.586  11.879
38597SOL     OW17687   0.426   4.980   5.134
38597SOL    HW117688   0.491   4.911   5.146
38597SOL    HW217689   0.437   5.037   5.210
38598SOL     OW17690   4.701   0.364   2.808
38598SOL    HW117691   4.695   0.448   2.852
38598SOL    HW217692   4.715   0.387   2.716
38599SOL     OW17693  10.186  10.253  13.387
38599SOL    HW117694  10.093  10.232  13.393
38599SOL    HW217695  10.218  10.198  13.315
38600SOL     OW17696  12.604   2.548   6.341
38600SOL    HW117697  12.572   2.494   6.269
38600SOL    HW217698  12.547   2.624   6.342
38601SOL     OW17699   2.976   7.531   3.797
38601SOL    HW117700   3.046   7.481   3.838
38601SOL    HW217701   3.011   7.620   3.790
38602SOL     OW17702   2.121  11.402   0.963
38602SOL    HW117703   2.084  11.315   0.977
38602SOL    HW217704   2.053  11.450   0.917
38603SOL     OW17705   1.826  10.634  12.035
38603SOL    HW117706   1.733  10.644  12.017
38603SOL    HW217707   1.843  10.695  12.107
38604SOL     OW17708  13.898  13.643  14.595
38604SOL    HW117709  13.918  13.698  14.670
38604SOL    HW217710  13.818  13.681  14.558
38605SOL     OW17711  14.655  13.692  13.990
38605SOL    HW117712  14.649  13.606  14.031
38605SOL    HW217713  14.564  13.714  13.967
38606SOL     OW17714   5.527   5.085   2.721
38606SOL    HW117715   5.487   5.158   2.768
38606SOL    HW217716   5.551   5.122   2.636
38607SOL     OW17717   6.329   6.539  10.447
38607SOL    HW117718   6.418   6.548  10.414
38607SOL    HW217719   6.287   6.479  10.386
38608SOL     OW17720   4.356   3.532   2.413
38608SOL    HW117721   4.424   3.470   2.386
38608SOL    HW217722   4.404   3.606   2.450
38609SOL     OW17723   8.215  13.963   2.896
38609SOL    HW117724   8.264  13.968   2.814
38609SOL    HW217725   8.243  13.881   2.936
38610SOL     OW17726  10.539  14.706   5.499
38610SOL    HW117727  10.514  14.721   5.590
38610SOL    HW217728  10.458  14.679   5.455
38611SOL     OW17729  14.757   5.684  14.441
38611SOL    HW117730  14.792   5.598  14.419
38611SOL    HW217731  14.699   5.669  14.516
38612SOL     OW17732  14.306   8.495   8.949
38612SOL    HW117733  14.267   8.409   8.960
38612SOL    HW217734  14.262   8.532   8.872
38613SOL     OW17735  11.896   8.231   0.566
38613SOL    HW117736  11.813   8.216   0.611
38613SOL    HW217737  11.896   8.169   0.493
38614SOL     OW17738  12.889  14.180   2.019
38614SOL    HW117739  12.842  14.181   2.102
38614SOL    HW217740  12.981  14.195   2.044
38615SOL     OW17741   1.869  10.100   6.307
38615SOL    HW117742   1.805  10.167   6.330
38615SOL    HW217743   1.946  10.149   6.278
38616SOL     OW17744   5.556   3.935   3.990
38616SOL    HW117745   5.586   4.016   3.949
38616SOL    HW217746   5.560   3.870   3.921
38617SOL     OW17747   5.496   4.496   0.421
38617SOL    HW117748   5.548   4.433   0.470
38617SOL    HW217749   5.536   4.581   0.441
38618SOL     OW17750   3.493   8.989   0.400
38618SOL    HW117751   3.504   8.957   0.490
38618SOL    HW217752   3.582   9.003   0.368
38619SOL     OW17753  10.681  10.105   3.635
38619SOL    HW117754  10.589  10.080   3.642
38619SOL    HW217755  10.713  10.060   3.557
38620SOL     OW17756   4.389   0.004  10.474
38620SOL    HW117757   4.332   0.079  10.458
38620SOL    HW217758   4.329  14.800  10.485
38621SOL     OW17759   1.165   7.554   1.495
38621SOL    HW117760   1.138   7.565   1.403
38621SOL    HW217761   1.128   7.630   1.540
38622SOL     OW17762   5.519   4.753  10.553
38622SOL    HW117763   5.599   4.802  10.570
38622SOL    HW217764   5.449   4.819  10.554
38623SOL     OW17765  12.854   0.891  10.304
38623SOL    HW117766  12.766   0.912  10.335
38623SOL    HW217767  12.901   0.975  10.308
38624SOL     OW17768   8.868  10.065   2.358
38624SOL    HW117769   8.869   9.977   2.319
38624SOL    HW217770   8.880  10.124   2.283
38625SOL     OW17771  14.522   2.799   7.898
38625SOL    HW117772  14.477   2.781   7.981
38625SOL    HW217773  14.514   2.894   7.887
38626SOL     OW17774   1.685   3.414  12.465
38626SOL    HW117775   1.622   3.476  12.427
38626SOL    HW217776   1.767   3.434  12.420
38627SOL     OW17777   1.928  12.869   1.387
38627SOL    HW117778   1.924  12.868   1.482
38627SOL    HW217779   1.994  12.935   1.367
38628SOL     OW17780   7.797   1.595   6.394
38628SOL    HW117781   7.753   1.671   6.433
38628SOL    HW217782   7.869   1.633   6.344
38629SOL     OW17783   9.817   0.930   4.918
38629SOL    HW117784   9.852   0.992   4.982
38629SOL    HW217785   9.888   0.918   4.855
38630SOL     OW17786  11.311   5.885   1.176
38630SOL    HW117787  11.286   5.926   1.259
38630SOL    HW217788  11.333   5.795   1.201
38631SOL     OW17789  10.876   7.600  12.036
38631SOL    HW117790  10.841   7.667  11.978
38631SOL    HW217791  10.969   7.620  12.042
38632SOL     OW17792   9.627   6.765   4.771
38632SOL    HW117793   9.561   6.806   4.828
38632SOL    HW217794   9.582   6.690   4.733
38633SOL     OW17795   8.514   2.736  14.806
38633SOL    HW117796   8.488   2.784  14.727
38633SOL    HW217797   8.585   2.788  14.844
38634SOL     OW17798   2.582  14.335  13.635
38634SOL    HW117799   2.508  14.364  13.582
38634SOL    HW217800   2.587  14.398  13.706
38635SOL     OW17801   9.987   3.853   8.730
38635SOL    HW117802   9.976   3.922   8.796
38635SOL    HW217803   9.938   3.778   8.765
38636SOL     OW17804   3.547   0.802   7.877
38636SOL    HW117805   3.600   0.723   7.879
38636SOL    HW217806   3.536   0.827   7.969
38637SOL     OW17807  12.878   4.066   6.162
38637SOL    HW117808  12.892   3.992   6.103
38637SOL    HW217809  12.964   4.106   6.171
38638SOL     OW17810   3.702  11.935  13.089
38638SOL    HW117811   3.730  12.017  13.048
38638SOL    HW217812   3.621  11.912  13.043
38639SOL     OW17813  13.607   1.921   5.101
38639SOL    HW117814  13.567   1.998   5.139
38639SOL    HW217815  13.601   1.854   5.169
38640SOL     OW17816  10.650   9.647   2.019
38640SOL    HW117817  10.711   9.699   1.966
38640SOL    HW217818  10.642   9.564   1.972
38641SOL     OW17819  12.104   3.037   1.720
38641SOL    HW117820  12.100   2.941   1.726
38641SOL    HW217821  12.194   3.059   1.742
38642SOL     OW17822   4.535   5.904   8.249
38642SOL    HW117823   4.537   5.991   8.209
38642SOL    HW217824   4.458   5.907   8.306
38643SOL     OW17825   7.950   3.070  12.079
38643SOL    HW117826   7.870   3.045  12.125
38643SOL    HW217827   7.965   3.161  12.104
38644SOL     OW17828   7.134  14.546  13.630
38644SOL    HW117829   7.209  14.495  13.599
38644SOL    HW217830   7.164  14.587  13.711
38645SOL     OW17831  14.481   4.570   2.406
38645SOL    HW117832  14.432   4.625   2.467
38645SOL    HW217833  14.572   4.591   2.424
38646SOL     OW17834  11.491  11.797  10.859
38646SOL    HW117835  11.396  11.803  10.844
38646SOL    HW217836  11.524  11.754  10.780
38647SOL     OW17837  12.785  12.672   9.948
38647SOL    HW117838  12.774  12.678  10.043
38647SOL    HW217839  12.878  12.652   9.936
38648SOL     OW17840  12.834   3.339   8.529
38648SOL    HW117841  12.925   3.315   8.544
38648SOL    HW217842  12.829   3.431   8.556
38649SOL     OW17843   4.352   9.150   8.442
38649SOL    HW117844   4.435   9.117   8.474
38649SOL    HW217845   4.375   9.203   8.365
38650SOL     OW17846  11.987   7.644   8.612
38650SOL    HW117847  12.005   7.738   8.607
38650SOL    HW217848  11.915   7.629   8.552
38651SOL     OW17849   2.977  13.073   1.463
38651SOL    HW117850   2.914  13.003   1.477
38651SOL    HW217851   2.931  13.152   1.491
38652SOL     OW17852   7.060  14.600  14.607
38652SOL    HW117853   7.022  14.514  14.623
38652SOL    HW217854   6.992  14.649  14.560
38653SOL     OW17855   6.853   2.160  10.782
38653SOL    HW117856   6.899   2.217  10.720
38653SOL    HW217857   6.761   2.163  10.755
38654SOL     OW17858  11.752  13.212   0.956
38654SOL    HW117859  11.707  13.190   0.875
38654SOL    HW217860  11.845  13.212   0.933
38655SOL     OW17861  11.880   9.220  11.784
38655SOL    HW117862  11.794   9.223  11.824
38655SOL    HW217863  11.865   9.241  11.692
38656SOL     OW17864   7.098  14.347   1.861
38656SOL    HW117865   7.173  14.354   1.921
38656SOL    HW217866   7.120  14.273   1.804
38657SOL     OW17867   4.044   1.723   2.906
38657SOL    HW117868   4.040   1.629   2.919
38657SOL    HW217869   4.127   1.750   2.945
38658SOL     OW17870  14.729  14.211  10.871
38658SOL    HW117871  14.783  14.213  10.950
38658SOL    HW217872  14.674  14.134  10.881
38659SOL     OW17873   8.329   9.586  11.336
38659SOL    HW117874   8.356   9.672  11.305
38659SOL    HW217875   8.270   9.604  11.409
38660SOL     OW17876  12.537  14.439  13.731
38660SOL    HW117877  12.626  14.410  13.710
38660SOL    HW217878  12.484  14.359  13.727
38661SOL     OW17879  10.094   4.874  10.094
38661SOL    HW117880  10.113   4.865  10.001
38661SOL    HW217881  10.075   4.785  10.123
38662SOL     OW17882   1.039   0.244   0.692
38662SOL    HW117883   1.010   0.158   0.664
38662SOL    HW217884   1.024   0.300   0.616
38663SOL     OW17885  11.434   0.893   3.690
38663SOL    HW117886  11.503   0.911   3.754
38663SOL    HW217887  11.473   0.830   3.630
38664SOL     OW17888  10.162   7.348   3.089
38664SOL    HW117889  10.085   7.291   3.087
38664SOL    HW217890  10.129   7.435   3.066
38665SOL     OW17891   7.918   8.719  13.512
38665SOL    HW117892   7.924   8.813  13.496
38665SOL    HW217893   7.990   8.701  13.573
38666SOL     OW17894   2.949   9.503  10.454
38666SOL    HW117895   2.923   9.435  10.392
38666SOL    HW217896   3.044   9.507  10.447
38667SOL     OW17897   8.578   5.279   8.753
38667SOL    HW117898   8.639   5.233   8.696
38667SOL    HW217899   8.552   5.356   8.703
38668SOL     OW17900   0.923  13.701   3.893
38668SOL    HW117901   0.907  13.737   3.981
38668SOL    HW217902   0.836  13.682   3.859
38669SOL     OW17903  11.742   7.798  10.921
38669SOL    HW117904  11.809   7.733  10.899
38669SOL    HW217905  11.679   7.791  10.850
38670SOL     OW17906   0.952   4.668   1.498
38670SOL    HW117907   0.962   4.658   1.593
38670SOL    HW217908   1.021   4.730   1.473
38671SOL     OW17909   7.583  13.617   7.486
38671SOL    HW117910   7.505  13.593   7.536
38671SOL    HW217911   7.553  13.685   7.427
38672SOL     OW17912   9.752  12.302   1.861
38672SOL    HW117913   9.828  12.252   1.830
38672SOL    HW217914   9.787  12.390   1.877
38673SOL     OW17915   4.659   3.736   8.970
38673SOL    HW117916   4.737   3.769   9.015
38673SOL    HW217917   4.586   3.774   9.018
38674SOL     OW17918   0.802  13.058  10.153
38674SOL    HW117919   0.714  13.024  10.137
38674SOL    HW217920   0.859  13.000  10.103
38675SOL     OW17921  12.397  14.329   7.588
38675SOL    HW117922  12.324  14.321   7.525
38675SOL    HW217923  12.475  14.329   7.533
38676SOL     OW17924   6.677   3.532  12.657
38676SOL    HW117925   6.738   3.593  12.615
38676SOL    HW217926   6.590   3.566  12.634
38677SOL     OW17927   2.501   9.769   7.100
38677SOL    HW117928   2.485   9.728   7.015
38677SOL    HW217929   2.417   9.764   7.146
38678SOL     OW17930   5.810   0.228   0.606
38678SOL    HW117931   5.805   0.298   0.541
38678SOL    HW217932   5.832   0.150   0.556
38679SOL     OW17933   4.844   0.600   8.389
38679SOL    HW117934   4.798   0.517   8.404
38679SOL    HW217935   4.889   0.617   8.472
38680SOL     OW17936   5.414  13.643   8.391
38680SOL    HW117937   5.411  13.737   8.407
38680SOL    HW217938   5.387  13.633   8.300
38681SOL     OW17939  11.576   3.371  14.641
38681SOL    HW117940  11.669   3.388  14.624
38681SOL    HW217941  11.572   3.358  14.736
38682SOL     OW17942   0.011   6.911   0.240
38682SOL    HW117943   0.053   6.980   0.291
38682SOL    HW217944  14.787   6.923   0.256
38683SOL     OW17945   7.027   4.374   8.990
38683SOL    HW117946   7.019   4.360   8.896
38683SOL    HW217947   7.102   4.432   9.000
38684SOL     OW17948   3.765  13.912   2.578
38684SOL    HW117949   3.709  13.843   2.544
38684SOL    HW217950   3.761  13.902   2.673
38685SOL     OW17951   7.926   7.380  10.609
38685SOL    HW117952   8.008   7.429  10.621
38685SOL    HW217953   7.942   7.296  10.652
38686SOL     OW17954  11.965   7.880  12.798
38686SOL    HW117955  12.032   7.822  12.761
38686SOL    HW217956  11.905   7.896  12.725
38687SOL     OW17957   5.970   1.894   7.701
38687SOL    HW117958   5.921   1.850   7.771
38687SOL    HW217959   5.907   1.907   7.631
38688SOL     OW17960   0.816   9.316   3.476
38688SOL    HW117961   0.766   9.245   3.515
38688SOL    HW217962   0.769   9.396   3.501
38689SOL     OW17963  12.625   0.530  10.546
38689SOL    HW117964  12.649   0.438  10.562
38689SOL    HW217965  12.628   0.538  10.451
38690SOL     OW17966   6.854  13.465   6.558
38690SOL    HW117967   6.849  13.560   6.548
38690SOL    HW217968   6.838  13.449   6.652
38691SOL     OW17969   2.492  14.608   1.741
38691SOL    HW117970   2.544  14.653   1.808
38691SOL    HW217971   2.401  14.625   1.766
38692SOL     OW17972   9.093   4.638   5.336
38692SOL    HW117973   9.093   4.699   5.261
38692SOL    HW217974   9.013   4.588   5.326
38693SOL     OW17975   2.221   4.242   6.306
38693SOL    HW117976   2.289   4.307   6.325
38693SOL    HW217977   2.195   4.260   6.216
38694SOL     OW17978   8.766   9.047   8.094
38694SOL    HW117979   8.799   8.989   8.026
38694SOL    HW217980   8.701   9.102   8.050
38695SOL     OW17981   3.799   7.490  13.808
38695SOL    HW117982   3.708   7.486  13.836
38695SOL    HW217983   3.794   7.495  13.712
38696SOL     OW17984   9.641   5.591  13.674
38696SOL    HW117985   9.548   5.579  13.692
38696SOL    HW217986   9.652   5.686  13.667
38697SOL     OW17987   9.172   9.049   6.573
38697SOL    HW117988   9.114   9.100   6.517
38697SOL    HW217989   9.233   9.007   6.513
38698SOL     OW17990   5.820  11.016   4.902
38698SOL    HW117991   5.756  11.013   4.831
38698SOL    HW217992   5.852  10.926   4.910
38699SOL     OW17993   3.476  12.366   6.080
38699SOL    HW117994   3.530  12.295   6.115
38699SOL    HW217995   3.460  12.342   5.989
38700SOL     OW17996   1.192   9.772  10.968
38700SOL    HW117997   1.200   9.687  11.011
38700SOL    HW217998   1.136   9.823  11.026
38701SOL     OW17999   1.431   3.367  11.655
38701SOL    HW118000   1.440   3.275  11.677
38701SOL    HW218001   1.515   3.406  11.679
38702SOL     OW18002  13.583   4.115   0.700
38702SOL    HW118003  13.654   4.179   0.691
38702SOL    HW218004  13.595   4.056   0.626
38703SOL     OW18005   3.130   5.336  13.637
38703SOL    HW118006   3.184   5.300  13.566
38703SOL    HW218007   3.051   5.282  13.636
38704SOL     OW18008   1.840   9.266   8.903
38704SOL    HW118009   1.796   9.256   8.819
38704SOL    HW218010   1.904   9.336   8.888
38705SOL     OW18011   9.672   1.083  13.016
38705SOL    HW118012   9.663   1.039  12.932
38705SOL    HW218013   9.727   1.024  13.068
38706SOL     OW18014  11.611   6.214   2.988
38706SOL    HW118015  11.603   6.305   3.015
38706SOL    HW218016  11.683   6.180   3.041
38707SOL     OW18017   6.965   6.161  13.376
38707SOL    HW118018   6.936   6.100  13.444
38707SOL    HW218019   7.060   6.152  13.375
38708SOL     OW18020   6.123   1.354   5.124
38708SOL    HW118021   6.140   1.261   5.136
38708SOL    HW218022   6.209   1.396   5.135
38709SOL     OW18023   9.224   1.655   7.380
38709SOL    HW118024   9.158   1.715   7.344
38709SOL    HW218025   9.306   1.703   7.372
38710SOL     OW18026   4.085  10.456   7.036
38710SOL    HW118027   4.071  10.396   7.110
38710SOL    HW218028   4.048  10.539   7.065
38711SOL     OW18029   5.029  11.779   0.612
38711SOL    HW118030   5.054  11.814   0.526
38711SOL    HW218031   5.044  11.685   0.605
38712SOL     OW18032   3.711   6.616  11.320
38712SOL    HW118033   3.643   6.682  11.306
38712SOL    HW218034   3.720   6.572  11.236
38713SOL     OW18035  12.486   4.592   2.252
38713SOL    HW118036  12.417   4.555   2.196
38713SOL    HW218037  12.491   4.684   2.224
38714SOL     OW18038   7.287   1.065  14.542
38714SOL    HW118039   7.314   1.076  14.634
38714SOL    HW218040   7.351   1.005  14.505
38715SOL     OW18041   1.617   0.025  11.970
38715SOL    HW118042   1.706  14.867  11.948
38715SOL    HW218043   1.628   0.110  12.011
38716SOL     OW18044   5.994   6.267   9.145
38716SOL    HW118045   5.909   6.246   9.108
38716SOL    HW218046   6.004   6.361   9.132
38717SOL     OW18047  14.818   1.083  12.294
38717SOL    HW118048   0.004   1.022  12.246
38717SOL    HW218049  14.730   1.049  12.284
38718SOL     OW18050   6.083   7.013  10.792
38718SOL    HW118051   6.068   7.047  10.704
38718SOL    HW218052   6.048   7.082  10.850
38719SOL     OW18053   1.109   0.081   2.725
38719SOL    HW118054   1.167   0.085   2.800
38719SOL    HW218055   1.152   0.135   2.658
38720SOL     OW18056   4.957   2.360   7.036
38720SOL    HW118057   4.919   2.324   7.116
38720SOL    HW218058   4.983   2.449   7.060
38721SOL     OW18059   7.431  12.341   9.025
38721SOL    HW118060   7.415  12.250   9.000
38721SOL    HW218061   7.438  12.339   9.120
38722SOL     OW18062   6.783   4.034   6.842
38722SOL    HW118063   6.737   3.996   6.767
38722SOL    HW218064   6.770   3.971   6.913
38723SOL     OW18065   0.023  12.209  11.869
38723SOL    HW118066   0.063  12.141  11.815
38723SOL    HW218067   0.096  12.263  11.899
38724SOL     OW18068   6.423   0.314   9.197
38724SOL    HW118069   6.490   0.352   9.254
38724SOL    HW218070   6.451   0.223   9.183
38725SOL     OW18071  12.613   6.658   1.605
38725SOL    HW118072  12.562   6.631   1.681
38725SOL    HW218073  12.691   6.699   1.643
38726SOL     OW18074   0.425   4.226  12.759
38726SOL    HW118075   0.439   4.305  12.811
38726SOL    HW218076   0.491   4.165  12.791
38727SOL     OW18077  12.398  13.213  13.437
38727SOL    HW118078  12.354  13.168  13.365
38727SOL    HW218079  12.328  13.256  13.486
38728SOL     OW18080  12.891   5.994   7.914
38728SOL    HW118081  12.842   6.001   7.832
38728SOL    HW218082  12.943   6.074   7.917
38729SOL     OW18083   9.296   3.760  13.244
38729SOL    HW118084   9.358   3.802  13.303
38729SOL    HW218085   9.229   3.827  13.228
38730SOL     OW18086  14.288   3.901  12.305
38730SOL    HW118087  14.209   3.863  12.266
38730SOL    HW218088  14.324   3.957  12.236
38731SOL     OW18089   2.133  11.716   4.335
38731SOL    HW118090   2.063  11.719   4.270
38731SOL    HW218091   2.171  11.629   4.326
38732SOL     OW18092  10.878   4.771  13.738
38732SOL    HW118093  10.944   4.824  13.693
38732SOL    HW218094  10.924   4.693  13.766
38733SOL     OW18095   8.603   3.359   6.611
38733SOL    HW118096   8.667   3.410   6.562
38733SOL    HW218097   8.519   3.402   6.594
38734SOL     OW18098   5.497   2.387  11.074
38734SOL    HW118099   5.537   2.308  11.037
38734SOL    HW218100   5.523   2.387  11.166
38735SOL     OW18101   8.422  14.587   9.036
38735SOL    HW118102   8.377  14.557   8.957
38735SOL    HW218103   8.403  14.519   9.101
38736SOL     OW18104  10.672  11.185   7.791
38736SOL    HW118105  10.674  11.122   7.862
38736SOL    HW218106  10.723  11.259   7.824
38737SOL     OW18107   1.671   2.422   8.965
38737SOL    HW118108   1.588   2.391   9.001
38737SOL    HW218109   1.669   2.517   8.977
38738SOL     OW18110   0.066   0.757   5.207
38738SOL    HW118111   0.015   0.785   5.283
38738SOL    HW218112   0.088   0.666   5.224
38739SOL     OW18113  14.122   5.301  14.705
38739SOL    HW118114  14.204   5.282  14.659
38739SOL    HW218115  14.103   5.222  14.755
38740SOL     OW18116   7.643   8.666   7.019
38740SOL    HW118117   7.604   8.700   6.938
38740SOL    HW218118   7.667   8.576   6.998
38741SOL     OW18119   0.754   4.672   9.156
38741SOL    HW118120   0.746   4.632   9.070
38741SOL    HW218121   0.787   4.760   9.139
38742SOL     OW18122  13.804   3.015   1.426
38742SOL    HW118123  13.779   2.925   1.444
38742SOL    HW218124  13.783   3.062   1.506
38743SOL     OW18125   1.547   9.815   8.213
38743SOL    HW118126   1.485   9.798   8.283
38743SOL    HW218127   1.585   9.900   8.234
38744SOL     OW18128   9.950   3.704   9.721
38744SOL    HW118129   9.862   3.685   9.754
38744SOL    HW218130   9.971   3.629   9.665
38745SOL     OW18131  11.824   2.682   9.003
38745SOL    HW118132  11.891   2.743   9.036
38745SOL    HW218133  11.872   2.602   8.984
38746SOL     OW18134   3.045  11.320   9.695
38746SOL    HW118135   3.050  11.414   9.678
38746SOL    HW218136   3.130  11.286   9.666
38747SOL     OW18137   1.779  14.078  11.102
38747SOL    HW118138   1.715  14.042  11.040
38747SOL    HW218139   1.725  14.113  11.173
38748SOL     OW18140   8.598  11.701   0.001
38748SOL    HW118141   8.550  11.712  14.788
38748SOL    HW218142   8.541  11.646   0.054
38749SOL     OW18143   3.836   8.510  12.948
38749SOL    HW118144   3.830   8.581  13.012
38749SOL    HW218145   3.878   8.438  12.996
38750SOL     OW18146   1.400  12.655  10.121
38750SOL    HW118147   1.447  12.671  10.039
38750SOL    HW218148   1.417  12.733  10.173
38751SOL     OW18149   3.483   0.976  11.759
38751SOL    HW118150   3.545   1.038  11.796
38751SOL    HW218151   3.500   0.894  11.806
38752SOL     OW18152   1.071   0.866   2.187
38752SOL    HW118153   1.149   0.921   2.184
38752SOL    HW218154   1.041   0.860   2.096
38753SOL     OW18155   9.030   8.563   2.376
38753SOL    HW118156   8.995   8.486   2.331
38753SOL    HW218157   8.955   8.601   2.421
38754SOL     OW18158  11.913   1.149  13.468
38754SOL    HW118159  12.005   1.122  13.473
38754SOL    HW218160  11.911   1.215  13.399
38755SOL     OW18161   8.472  10.855   2.392
38755SOL    HW118162   8.564  10.827   2.393
38755SOL    HW218163   8.443  10.837   2.303
38756SOL     OW18164   1.195   6.819   1.227
38756SOL    HW118165   1.141   6.882   1.181
38756SOL    HW218166   1.283   6.858   1.227
38757SOL     OW18167  11.388   3.874  11.197
38757SOL    HW118168  11.335   3.825  11.134
38757SOL    HW218169  11.433   3.807  11.248
38758SOL     OW18170   6.128   3.195   6.010
38758SOL    HW118171   6.160   3.223   5.925
38758SOL    HW218172   6.176   3.248   6.074
38759SOL     OW18173   6.328   3.630  10.096
38759SOL    HW118174   6.352   3.662  10.183
38759SOL    HW218175   6.261   3.691  10.065
38760SOL     OW18176  10.414   6.575   7.837
38760SOL    HW118177  10.331   6.570   7.885
38760SOL    HW218178  10.429   6.486   7.806
38761SOL     OW18179  11.223   8.110   1.446
38761SOL    HW118180  11.319   8.114   1.437
38761SOL    HW218181  11.205   8.159   1.526
38762SOL     OW18182   5.136  10.132   7.968
38762SOL    HW118183   5.144  10.166   8.056
38762SOL    HW218184   5.042  10.126   7.952
38763SOL     OW18185   2.684   4.911   1.474
38763SOL    HW118186   2.771   4.947   1.492
38763SOL    HW218187   2.670   4.847   1.544
38764SOL     OW18188   2.349   2.481   4.124
38764SOL    HW118189   2.272   2.470   4.180
38764SOL    HW218190   2.345   2.408   4.063
38765SOL     OW18191  11.857   8.455   2.804
38765SOL    HW118192  11.913   8.507   2.746
38765SOL    HW218193  11.779   8.436   2.751
38766SOL     OW18194  13.714  12.327   6.497
38766SOL    HW118195  13.768  12.254   6.467
38766SOL    HW218196  13.633  12.286   6.527
38767SOL     OW18197   8.630  10.973   2.115
38767SOL    HW118198   8.590  11.034   2.054
38767SOL    HW218199   8.638  10.891   2.066
38768SOL     OW18200   7.642  14.216  13.337
38768SOL    HW118201   7.704  14.251  13.401
38768SOL    HW218202   7.563  14.198  13.388
38769SOL     OW18203   8.858  14.472   7.445
38769SOL    HW118204   8.802  14.536   7.489
38769SOL    HW218205   8.930  14.457   7.506
38770SOL     OW18206  13.096  10.859  13.320
38770SOL    HW118207  13.186  10.866  13.351
38770SOL    HW218208  13.083  10.766  13.302
38771SOL     OW18209   4.748  14.740   0.751
38771SOL    HW118210   4.793  14.665   0.713
38771SOL    HW218211   4.673  14.755   0.694
38772SOL     OW18212  11.097   5.362   6.120
38772SOL    HW118213  11.108   5.268   6.104
38772SOL    HW218214  11.147   5.379   6.200
38773SOL     OW18215   0.065   4.266   5.847
38773SOL    HW118216  14.854   4.218   5.858
38773SOL    HW218217   0.037   4.356   5.829
38774SOL     OW18218  13.960  13.668  12.697
38774SOL    HW118219  13.922  13.592  12.653
38774SOL    HW218220  14.040  13.635  12.737
38775SOL     OW18221  13.573   1.541   7.701
38775SOL    HW118222  13.538   1.585   7.779
38775SOL    HW218223  13.501   1.485   7.671
38776SOL     OW18224   2.213   9.924  11.751
38776SOL    HW118225   2.145   9.991  11.756
38776SOL    HW218226   2.205   9.875  11.833
38777SOL     OW18227   1.523   8.158   8.677
38777SOL    HW118228   1.614   8.156   8.648
38777SOL    HW218229   1.526   8.201   8.763
38778SOL     OW18230  10.183   1.695   5.821
38778SOL    HW118231  10.198   1.728   5.910
38778SOL    HW218232  10.205   1.769   5.764
38779SOL     OW18233   6.852   5.808   8.552
38779SOL    HW118234   6.867   5.878   8.488
38779SOL    HW218235   6.836   5.730   8.499
38780SOL     OW18236   0.179  11.894  14.481
38780SOL    HW118237   0.275  11.898  14.477
38780SOL    HW218238   0.151  11.980  14.450
38781SOL     OW18239   7.978   4.367  13.714
38781SOL    HW118240   8.044   4.302  13.740
38781SOL    HW218241   7.922   4.377  13.792
38782SOL     OW18242   5.452   6.701   1.150
38782SOL    HW118243   5.459   6.787   1.108
38782SOL    HW218244   5.503   6.710   1.230
38783SOL     OW18245  12.821   2.228  13.409
38783SOL    HW118246  12.859   2.263  13.490
38783SOL    HW218247  12.833   2.297  13.344
38784SOL     OW18248  12.455  11.876  14.319
38784SOL    HW118249  12.460  11.782  14.303
38784SOL    HW218250  12.383  11.906  14.263
38785SOL     OW18251   7.373  11.378   0.551
38785SOL    HW118252   7.441  11.313   0.530
38785SOL    HW218253   7.418  11.444   0.603
38786SOL     OW18254  11.342   9.875   5.443
38786SOL    HW118255  11.335   9.781   5.430
38786SOL    HW218256  11.435   9.891   5.461
38787SOL     OW18257   4.389  12.622   5.554
38787SOL    HW118258   4.372  12.571   5.633
38787SOL    HW218259   4.471  12.587   5.520
38788SOL     OW18260   2.934   3.132   4.304
38788SOL    HW118261   2.941   3.102   4.213
38788SOL    HW218262   3.004   3.087   4.350
38789SOL     OW18263   7.054  13.856   6.541
38789SOL    HW118264   7.091  13.925   6.487
38789SOL    HW218265   7.086  13.875   6.629
38790SOL     OW18266   5.035  13.432  11.517
38790SOL    HW118267   5.066  13.513  11.558
38790SOL    HW218268   5.004  13.379  11.591
38791SOL     OW18269  10.752   8.844   8.405
38791SOL    HW118270  10.807   8.780   8.359
38791SOL    HW218271  10.758   8.819   8.497
38792SOL     OW18272   0.774   6.779   3.660
38792SOL    HW118273   0.811   6.818   3.582
38792SOL    HW218274   0.849   6.755   3.714
38793SOL     OW18275   2.906   1.749   0.514
38793SOL    HW118276   2.937   1.840   0.519
38793SOL    HW218277   2.869   1.732   0.601
38794SOL     OW18278   2.254   9.878   7.263
38794SOL    HW118279   2.286   9.968   7.272
38794SOL    HW218280   2.162   9.887   7.237
38795SOL     OW18281   8.777   4.630   0.982
38795SOL    HW118282   8.845   4.633   1.050
38795SOL    HW218283   8.723   4.708   0.999
38796SOL     OW18284  10.030   8.244  11.619
38796SOL    HW118285   9.978   8.320  11.592
38796SOL    HW218286  10.085   8.277  11.690
38797SOL     OW18287   3.153   2.618   0.303
38797SOL    HW118288   3.100   2.696   0.283
38797SOL    HW218289   3.117   2.550   0.245
38798SOL     OW18290   1.973  12.668   8.098
38798SOL    HW118291   2.007  12.578   8.100
38798SOL    HW218292   2.031  12.717   8.156
38799SOL     OW18293  11.059  10.816  12.232
38799SOL    HW118294  11.042  10.848  12.144
38799SOL    HW218295  11.024  10.727  12.233
38800SOL     OW18296   8.376   8.513  14.560
38800SOL    HW118297   8.289   8.501  14.597
38800SOL    HW218298   8.421   8.431  14.577
38801SOL     OW18299  10.009   6.056   3.357
38801SOL    HW118300  10.047   6.080   3.441
38801SOL    HW218301   9.956   5.978   3.376
38802SOL     OW18302  11.800   3.170  11.399
38802SOL    HW118303  11.753   3.234  11.346
38802SOL    HW218304  11.791   3.201  11.489
38803SOL     OW18305   7.748   8.364   8.548
38803SOL    HW118306   7.715   8.363   8.638
38803SOL    HW218307   7.692   8.301   8.502
38804SOL     OW18308   4.366   6.388   2.414
38804SOL    HW118309   4.448   6.358   2.376
38804SOL    HW218310   4.389   6.468   2.461
38805SOL     OW18311   8.764   4.570  12.003
38805SOL    HW118312   8.804   4.488  12.034
38805SOL    HW218313   8.697   4.591  12.068
38806SOL     OW18314   3.626   1.193   6.369
38806SOL    HW118315   3.670   1.108   6.371
38806SOL    HW218316   3.562   1.185   6.298
38807SOL     OW18317  11.668   7.827  14.515
38807SOL    HW118318  11.590   7.787  14.477
38807SOL    HW218319  11.640   7.857  14.602
38808SOL     OW18320   4.499   2.136   2.268
38808SOL    HW118321   4.534   2.173   2.187
38808SOL    HW218322   4.423   2.190   2.288
38809SOL     OW18323   5.422   2.260  13.933
38809SOL    HW118324   5.428   2.306  14.017
38809SOL    HW218325   5.484   2.304  13.876
38810SOL     OW18326   4.363   2.591  12.731
38810SOL    HW118327   4.408   2.507  12.721
38810SOL    HW218328   4.272   2.573  12.705
38811SOL     OW18329   2.858   0.751   0.088
38811SOL    HW118330   2.792   0.815   0.116
38811SOL    HW218331   2.942   0.793   0.107
38812SOL     OW18332  11.820   1.134   0.261
38812SOL    HW118333  11.798   1.160   0.171
38812SOL    HW218334  11.736   1.107   0.299
38813SOL     OW18335  12.918  12.744   4.437
38813SOL    HW118336  12.998  12.726   4.486
38813SOL    HW218337  12.905  12.838   4.446
38814SOL     OW18338   9.047   0.334   6.078
38814SOL    HW118339   9.117   0.286   6.124
38814SOL    HW218340   9.082   0.348   5.990
38815SOL     OW18341   9.582   4.766   8.985
38815SOL    HW118342   9.529   4.691   8.958
38815SOL    HW218343   9.532   4.808   9.054
38816SOL     OW18344   4.045  12.511  11.112
38816SOL    HW118345   4.049  12.451  11.037
38816SOL    HW218346   4.107  12.474  11.175
38817SOL     OW18347   6.827  11.970  14.761
38817SOL    HW118348   6.867  11.893  14.721
38817SOL    HW218349   6.766  11.935  14.826
38818SOL     OW18350   1.485   0.692   8.763
38818SOL    HW118351   1.557   0.755   8.769
38818SOL    HW218352   1.435   0.719   8.686
38819SOL     OW18353   3.624  11.857  11.766
38819SOL    HW118354   3.631  11.763  11.784
38819SOL    HW218355   3.709  11.893  11.794
38820SOL     OW18356   4.135   8.377   7.816
38820SOL    HW118357   4.126   8.459   7.768
38820SOL    HW218358   4.200   8.395   7.884
38821SOL     OW18359   2.354  12.726  13.917
38821SOL    HW118360   2.376  12.640  13.881
38821SOL    HW218361   2.331  12.779  13.841
38822SOL     OW18362  13.431   3.375   7.632
38822SOL    HW118363  13.522   3.356   7.607
38822SOL    HW218364  13.437   3.456   7.682
38823SOL     OW18365   0.754   6.043  12.379
38823SOL    HW118366   0.733   6.136  12.376
38823SOL    HW218367   0.835   6.038  12.429
38824SOL     OW18368  12.902   6.062   6.135
38824SOL    HW118369  12.913   6.112   6.054
38824SOL    HW218370  12.816   6.088   6.168
38825SOL     OW18371  11.935   1.090  11.211
38825SOL    HW118372  12.009   1.148  11.197
38825SOL    HW218373  11.949   1.055  11.299
38826SOL     OW18374   9.954   6.485  11.192
38826SOL    HW118375   9.940   6.409  11.249
38826SOL    HW218376   9.981   6.555  11.252
38827SOL     OW18377   7.767  11.766  10.441
38827SOL    HW118378   7.837  11.706  10.466
38827SOL    HW218379   7.808  11.853  10.443
38828SOL     OW18380  14.752   4.655   0.366
38828SOL    HW118381  14.788   4.723   0.310
38828SOL    HW218382  14.659   4.651   0.343
38829SOL     OW18383  12.798   2.309  14.557
38829SOL    HW118384  12.834   2.381  14.505
38829SOL    HW218385  12.719   2.345  14.597
38830SOL     OW18386   1.603   1.722  12.411
38830SOL    HW118387   1.653   1.804  12.404
38830SOL    HW218388   1.525   1.746  12.461
38831SOL     OW18389   6.735   8.557  12.570
38831SOL    HW118390   6.715   8.645  12.601
38831SOL    HW218391   6.830   8.551  12.575
38832SOL     OW18392  13.030  12.424   4.707
38832SOL    HW118393  13.105  12.443   4.651
38832SOL    HW218394  13.068  12.409   4.793
38833SOL     OW18395  12.636   9.988   4.349
38833SOL    HW118396  12.671   9.899   4.355
38833SOL    HW218397  12.708  10.040   4.313
38834SOL     OW18398   9.617   2.755   9.050
38834SOL    HW118399   9.643   2.664   9.058
38834SOL    HW218400   9.556   2.756   8.976
38835SOL     OW18401   8.960  14.205   7.815
38835SOL    HW118402   8.867  14.180   7.821
38835SOL    HW218403   8.976  14.217   7.722
38836SOL     OW18404   5.143   3.154   2.997
38836SOL    HW118405   5.231   3.139   2.961
38836SOL    HW218406   5.117   3.069   3.034
38837SOL     OW18407  11.219  11.393   9.990
38837SOL    HW118408  11.145  11.356   9.942
38837SOL    HW218409  11.257  11.320  10.038
38838SOL     OW18410   1.810   5.587   8.617
38838SOL    HW118411   1.875   5.622   8.678
38838SOL    HW218412   1.850   5.596   8.530
38839SOL     OW18413   0.539   2.045   5.030
38839SOL    HW118414   0.546   2.136   5.058
38839SOL    HW218415   0.449   2.021   5.048
38840SOL     OW18416   1.874   9.977   8.200
38840SOL    HW118417   1.855  10.002   8.109
38840SOL    HW218418   1.968   9.958   8.200
38841SOL     OW18419  12.243   9.050   1.501
38841SOL    HW118420  12.162   9.089   1.468
38841SOL    HW218421  12.249   9.081   1.591
38842SOL     OW18422   0.354   7.288   3.533
38842SOL    HW118423   0.277   7.286   3.589
38842SOL    HW218424   0.340   7.218   3.470
38843SOL     OW18425   6.966   8.368   5.578
38843SOL    HW118426   6.997   8.292   5.530
38843SOL    HW218427   6.989   8.443   5.523
38844SOL     OW18428  14.464   5.491   9.272
38844SOL    HW118429  14.496   5.524   9.356
38844SOL    HW218430  14.396   5.428   9.295
38845SOL     OW18431   5.462   0.982   0.969
38845SOL    HW118432   5.464   1.060   1.025
38845SOL    HW218433   5.371   0.977   0.939
38846SOL     OW18434   9.350   3.507   0.323
38846SOL    HW118435   9.445   3.503   0.313
38846SOL    HW218436   9.331   3.600   0.334
38847SOL     OW18437   4.923   6.162   2.474
38847SOL    HW118438   4.897   6.097   2.540
38847SOL    HW218439   4.860   6.151   2.403
38848SOL     OW18440   1.213   1.500   6.009
38848SOL    HW118441   1.277   1.570   5.997
38848SOL    HW218442   1.265   1.422   6.027
38849SOL     OW18443  12.819   9.506   4.741
38849SOL    HW118444  12.764   9.541   4.671
38849SOL    HW218445  12.842   9.583   4.794
38850SOL     OW18446  13.954   0.383  13.326
38850SOL    HW118447  14.009   0.375  13.404
38850SOL    HW218448  13.953   0.296  13.287
38851SOL     OW18449  11.767  12.054   3.116
38851SOL    HW118450  11.846  12.031   3.164
38851SOL    HW218451  11.717  11.973   3.112
38852SOL     OW18452   5.244   6.189   0.610
38852SOL    HW118453   5.279   6.259   0.554
38852SOL    HW218454   5.303   6.187   0.685
38853SOL     OW18455   4.565  10.006   3.949
38853SOL    HW118456   4.500  10.062   3.990
38853SOL    HW218457   4.536   9.996   3.858
38854SOL     OW18458  13.858   5.991  11.687
38854SOL    HW118459  13.778   5.947  11.658
38854SOL    HW218460  13.828   6.053  11.753
38855SOL     OW18461   3.336   8.755  11.082
38855SOL    HW118462   3.343   8.661  11.068
38855SOL    HW218463   3.425   8.788  11.071
38856SOL     OW18464   3.809  13.815   8.014
38856SOL    HW118465   3.832  13.889   7.957
38856SOL    HW218466   3.874  13.748   7.993
38857SOL     OW18467  14.853   4.223  11.886
38857SOL    HW118468  14.826   4.281  11.814
38857SOL    HW218469   0.078   4.217  11.876
38858SOL     OW18470   5.623  11.782   1.879
38858SOL    HW118471   5.657  11.697   1.852
38858SOL    HW218472   5.580  11.817   1.801
38859SOL     OW18473  12.921   7.413   3.799
38859SOL    HW118474  12.934   7.447   3.710
38859SOL    HW218475  12.854   7.469   3.837
38860SOL     OW18476   4.746   9.780   5.416
38860SOL    HW118477   4.767   9.834   5.493
38860SOL    HW218478   4.669   9.822   5.378
38861SOL     OW18479  12.211   7.048   7.515
38861SOL    HW118480  12.282   7.012   7.568
38861SOL    HW218481  12.138   7.058   7.576
38862SOL     OW18482   3.997   4.919   4.145
38862SOL    HW118483   3.994   5.007   4.182
38862SOL    HW218484   4.024   4.863   4.218
38863SOL     OW18485  12.591   8.479   3.031
38863SOL    HW118486  12.535   8.422   3.083
38863SOL    HW218487  12.587   8.442   2.943
38864SOL     OW18488  11.267   7.498  10.119
38864SOL    HW118489  11.178   7.527  10.097
38864SOL    HW218490  11.323   7.569  10.087
38865SOL     OW18491  10.622   2.816   5.832
38865SOL    HW118492  10.567   2.763   5.774
38865SOL    HW218493  10.673   2.752   5.882
38866SOL     OW18494   3.593   6.703   6.597
38866SOL    HW118495   3.642   6.779   6.565
38866SOL    HW218496   3.641   6.676   6.675
38867SOL     OW18497   7.431   8.674   1.459
38867SOL    HW118498   7.442   8.690   1.552
38867SOL    HW218499   7.343   8.637   1.451
38868SOL     OW18500   1.542  13.643   8.272
38868SOL    HW118501   1.571  13.552   8.276
38868SOL    HW218502   1.510  13.654   8.182
38869SOL     OW18503  10.555  11.766   7.163
38869SOL    HW118504  10.563  11.671   7.177
38869SOL    HW218505  10.609  11.805   7.232
38870SOL     OW18506  11.711   0.962  11.894
38870SOL    HW118507  11.684   1.053  11.906
38870SOL    HW218508  11.630   0.912  11.894
38871SOL     OW18509   0.592   6.144   7.242
38871SOL    HW118510   0.558   6.154   7.153
38871SOL    HW218511   0.539   6.075   7.280
38872SOL     OW18512  11.809  10.161   9.737
38872SOL    HW118513  11.848  10.075   9.723
38872SOL    HW218514  11.769  10.183   9.653
38873SOL     OW18515   3.551  11.419   6.263
38873SOL    HW118516   3.525  11.445   6.174
38873SOL    HW218517   3.507  11.482   6.320
38874SOL     OW18518   9.063   5.289   1.819
38874SOL    HW118519   9.150   5.250   1.818
38874SOL    HW218520   9.078   5.383   1.809
38875SOL     OW18521   4.202   4.508  10.586
38875SOL    HW118522   4.285   4.489  10.542
38875SOL    HW218523   4.184   4.430  10.638
38876SOL     OW18524   6.812  11.165  11.402
38876SOL    HW118525   6.828  11.206  11.317
38876SOL    HW218526   6.740  11.104  11.386
38877SOL     OW18527   1.659   5.709   7.029
38877SOL    HW118528   1.706   5.792   7.035
38877SOL    HW218529   1.615   5.713   6.945
38878SOL     OW18530  10.728   6.021   8.751
38878SOL    HW118531  10.693   5.972   8.825
38878SOL    HW218532  10.821   5.997   8.747
38879SOL     OW18533   8.225   8.045  11.176
38879SOL    HW118534   8.129   8.046  11.181
38879SOL    HW218535   8.254   8.063  11.265
38880SOL     OW18536   5.907  11.255   3.373
38880SOL    HW118537   5.887  11.346   3.350
38880SOL    HW218538   5.965  11.225   3.304
38881SOL     OW18539  14.072   4.003   7.262
38881SOL    HW118540  14.032   3.916   7.257
38881SOL    HW218541  14.166   3.987   7.262
38882SOL     OW18542   1.351  13.353  13.992
38882SOL    HW118543   1.379  13.267  13.960
38882SOL    HW218544   1.363  13.348  14.087
38883SOL     OW18545  12.424   8.079   4.824
38883SOL    HW118546  12.387   8.164   4.799
38883SOL    HW218547  12.455   8.041   4.742
38884SOL     OW18548   1.573   6.939   9.938
38884SOL    HW118549   1.648   6.926   9.879
38884SOL    HW218550   1.581   6.868  10.002
38885SOL     OW18551  11.839  11.888  13.658
38885SOL    HW118552  11.935  11.879  13.661
38885SOL    HW218553  11.824  11.981  13.641
38886SOL     OW18554  11.888   0.650   3.094
38886SOL    HW118555  11.852   0.590   3.159
38886SOL    HW218556  11.811   0.698   3.061
38887SOL     OW18557   9.023   7.727   1.335
38887SOL    HW118558   8.934   7.694   1.329
38887SOL    HW218559   9.038   7.771   1.251
38888SOL     OW18560   7.525   5.546   2.536
38888SOL    HW118561   7.587   5.479   2.509
38888SOL    HW218562   7.544   5.562   2.628
38889SOL     OW18563   0.931   6.271  13.871
38889SOL    HW118564   0.873   6.196  13.884
38889SOL    HW218565   1.005   6.255  13.930
38890SOL     OW18566   8.567   9.144   0.050
38890SOL    HW118567   8.584   9.222  14.867
38890SOL    HW218568   8.480   9.159   0.087
38891SOL     OW18569   8.367   1.086   0.816
38891SOL    HW118570   8.286   1.038   0.836
38891SOL    HW218571   8.426   1.064   0.888
38892SOL     OW18572   5.165   1.184   0.492
38892SOL    HW118573   5.161   1.119   0.563
38892SOL    HW218574   5.200   1.263   0.534
38893SOL     OW18575   5.849   2.453  13.605
38893SOL    HW118576   5.942   2.466  13.622
38893SOL    HW218577   5.837   2.483  13.515
38894SOL     OW18578   9.626   0.647   3.354
38894SOL    HW118579   9.619   0.551   3.358
38894SOL    HW218580   9.710   0.666   3.397
38895SOL     OW18581  13.819  10.198   3.363
38895SOL    HW118582  13.859  10.280   3.393
38895SOL    HW218583  13.750  10.225   3.303
38896SOL     OW18584   7.312   6.139   2.877
38896SOL    HW118585   7.272   6.066   2.924
38896SOL    HW218586   7.242   6.175   2.823
38897SOL     OW18587   3.174   6.248   3.792
38897SOL    HW118588   3.134   6.328   3.757
38897SOL    HW218589   3.103   6.183   3.787
38898SOL     OW18590   9.423   3.704   2.649
38898SOL    HW118591   9.397   3.658   2.570
38898SOL    HW218592   9.365   3.671   2.717
38899SOL     OW18593   2.535   5.108  10.712
38899SOL    HW118594   2.445   5.125  10.684
38899SOL    HW218595   2.588   5.118  10.633
38900SOL     OW18596  12.231   0.123   0.934
38900SOL    HW118597  12.286   0.051   0.902
38900SOL    HW218598  12.285   0.167   0.999
38901SOL     OW18599   0.807   2.487   0.391
38901SOL    HW118600   0.808   2.542   0.313
38901SOL    HW218601   0.782   2.547   0.462
38902SOL     OW18602   3.666  10.578  12.627
38902SOL    HW118603   3.690  10.606  12.715
38902SOL    HW218604   3.640  10.487  12.637
38903SOL     OW18605  14.689   6.586  14.707
38903SOL    HW118606  14.618   6.524  14.692
38903SOL    HW218607  14.755   6.564  14.641
38904SOL     OW18608   8.308   7.925  11.804
38904SOL    HW118609   8.369   7.905  11.875
38904SOL    HW218610   8.352   7.992  11.752
38905SOL     OW18611   0.835   5.399   4.571
38905SOL    HW118612   0.909   5.405   4.632
38905SOL    HW218613   0.856   5.462   4.502
38906SOL     OW18614   5.666  10.194  11.320
38906SOL    HW118615   5.571  10.183  11.326
38906SOL    HW218616   5.679  10.245  11.241
38907SOL     OW18617  12.900   3.659  10.868
38907SOL    HW118618  12.854   3.575  10.870
38907SOL    HW218619  12.993   3.635  10.861
38908SOL     OW18620   3.059  11.914   2.502
38908SOL    HW118621   2.994  11.845   2.516
38908SOL    HW218622   3.097  11.895   2.417
38909SOL     OW18623   8.617   3.493   6.168
38909SOL    HW118624   8.565   3.535   6.236
38909SOL    HW218625   8.626   3.402   6.196
38910SOL     OW18626   2.092   5.377  12.988
38910SOL    HW118627   2.146   5.439  13.039
38910SOL    HW218628   2.111   5.292  13.027
38911SOL     OW18629   2.048   0.110   1.522
38911SOL    HW118630   1.988   0.085   1.592
38911SOL    HW218631   2.089   0.027   1.496
38912SOL     OW18632   2.929   3.680   7.818
38912SOL    HW118633   2.995   3.748   7.802
38912SOL    HW218634   2.900   3.654   7.730
38913SOL     OW18635   6.212   4.233  10.155
38913SOL    HW118636   6.277   4.233  10.225
38913SOL    HW218637   6.171   4.146  10.160
38914SOL     OW18638  12.980   1.769   4.067
38914SOL    HW118639  12.986   1.714   4.145
38914SOL    HW218640  12.907   1.733   4.017
38915SOL     OW18641  11.187  12.901   7.324
38915SOL    HW118642  11.112  12.874   7.377
38915SOL    HW218643  11.249  12.829   7.330
38916SOL     OW18644   1.529   9.454   0.505
38916SOL    HW118645   1.606   9.494   0.465
38916SOL    HW218646   1.456   9.505   0.471
38917SOL     OW18647   7.401   6.297   9.156
38917SOL    HW118648   7.346   6.355   9.209
38917SOL    HW218649   7.488   6.335   9.161
38918SOL     OW18650   8.696   7.778  11.338
38918SOL    HW118651   8.625   7.841  11.329
38918SOL    HW218652   8.763   7.807  11.276
38919SOL     OW18653   5.089  10.465   1.278
38919SOL    HW118654   5.070  10.372   1.269
38919SOL    HW218655   5.008  10.509   1.252
38920SOL     OW18656   4.490   9.813  11.475
38920SOL    HW118657   4.508   9.874  11.547
38920SOL    HW218658   4.409   9.845  11.436
38921SOL     OW18659   4.239   0.269  13.125
38921SOL    HW118660   4.238   0.319  13.043
38921SOL    HW218661   4.184   0.319  13.185
38922SOL     OW18662   8.125   5.609   4.147
38922SOL    HW118663   8.050   5.553   4.168
38922SOL    HW218664   8.153   5.645   4.231
38923SOL     OW18665  13.722   5.097   1.910
38923SOL    HW118666  13.752   5.026   1.853
38923SOL    HW218667  13.655   5.056   1.965
38924SOL     OW18668  11.290   7.156  13.976
38924SOL    HW118669  11.231   7.081  13.984
38924SOL    HW218670  11.317   7.175  14.066
38925SOL     OW18671   8.072  12.014  11.391
38925SOL    HW118672   8.029  11.977  11.468
38925SOL    HW218673   8.149  11.959  11.378
38926SOL     OW18674  12.641   3.670  10.377
38926SOL    HW118675  12.720   3.697  10.424
38926SOL    HW218676  12.595   3.614  10.440
38927SOL     OW18677   0.296  11.013   8.119
38927SOL    HW118678   0.328  11.022   8.029
38927SOL    HW218679   0.213  10.966   8.110
38928SOL     OW18680   8.522   5.313   1.951
38928SOL    HW118681   8.465   5.249   1.908
38928SOL    HW218682   8.608   5.300   1.910
38929SOL     OW18683   9.101  14.853   9.534
38929SOL    HW118684   9.129   0.049   9.598
38929SOL    HW218685   9.145   0.009   9.453
38930SOL     OW18686   0.018   4.133   2.446
38930SOL    HW118687  14.800   4.101   2.466
38930SOL    HW218688   0.015   4.152   2.352
38931SOL     OW18689   5.554  13.466   6.373
38931SOL    HW118690   5.462  13.468   6.348
38931SOL    HW218691   5.597  13.524   6.309
38932SOL     OW18692   6.362   0.046  10.283
38932SOL    HW118693   6.351   0.006  10.197
38932SOL    HW218694   6.358  14.842  10.344
38933SOL     OW18695   0.993  12.205  11.725
38933SOL    HW118696   0.975  12.120  11.685
38933SOL    HW218697   1.070  12.238  11.678
38934SOL     OW18698   3.946   0.906  12.554
38934SOL    HW118699   4.019   0.859  12.514
38934SOL    HW218700   3.942   0.872  12.644
38935SOL     OW18701   9.738   9.757   4.982
38935SOL    HW118702   9.678   9.830   4.999
38935SOL    HW218703   9.824   9.793   5.004
38936SOL     OW18704   8.434  12.770   9.287
38936SOL    HW118705   8.511  12.713   9.296
38936SOL    HW218706   8.442  12.807   9.199
38937SOL     OW18707   3.115   4.335  11.033
38937SOL    HW118708   3.126   4.342  11.128
38937SOL    HW218709   3.144   4.246  11.011
38938SOL     OW18710   6.533  10.985   7.315
38938SOL    HW118711   6.540  11.034   7.233
38938SOL    HW218712   6.515  10.895   7.287
38939SOL     OW18713   5.095   6.027  13.374
38939SOL    HW118714   5.098   6.111  13.329
38939SOL    HW218715   5.164   6.034  13.441
38940SOL     OW18716   0.579  14.292  14.151
38940SOL    HW118717   0.517  14.305  14.080
38940SOL    HW218718   0.646  14.235  14.114
38941SOL     OW18719  13.597   9.626  10.928
38941SOL    HW118720  13.667   9.674  10.972
38941SOL    HW218721  13.640   9.583  10.854
38942SOL     OW18722   3.604  11.772   8.098
38942SOL    HW118723   3.687  11.762   8.145
38942SOL    HW218724   3.627  11.751   8.007
38943SOL     OW18725   0.405   1.462   7.053
38943SOL    HW118726   0.335   1.428   6.998
38943SOL    HW218727   0.423   1.550   7.019
38944SOL     OW18728   4.942   7.183  12.868
38944SOL    HW118729   4.978   7.269  12.843
38944SOL    HW218730   5.006   7.148  12.931
38945SOL     OW18731   8.887   0.952  10.250
38945SOL    HW118732   8.802   0.968  10.209
38945SOL    HW218733   8.894   1.019  10.318
38946SOL     OW18734   6.733  13.130   4.201
38946SOL    HW118735   6.790  13.190   4.153
38946SOL    HW218736   6.657  13.118   4.144
38947SOL     OW18737   3.266   7.674   7.809
38947SOL    HW118738   3.232   7.616   7.741
38947SOL    HW218739   3.191   7.688   7.867
38948SOL     OW18740  11.316   7.916   3.420
38948SOL    HW118741  11.359   7.912   3.505
38948SOL    HW218742  11.238   7.860   3.431
38949SOL     OW18743   5.173   7.920   9.954
38949SOL    HW118744   5.132   7.841   9.920
38949SOL    HW218745   5.128   7.937  10.037
38950SOL     OW18746   3.451  13.072   0.743
38950SOL    HW118747   3.431  13.030   0.826
38950SOL    HW218748   3.435  13.005   0.677
38951SOL     OW18749  12.466   3.393   4.415
38951SOL    HW118750  12.479   3.471   4.469
38951SOL    HW218751  12.504   3.415   4.331
38952SOL     OW18752  13.263  13.642   7.880
38952SOL    HW118753  13.227  13.727   7.853
38952SOL    HW218754  13.189  13.596   7.920
38953SOL     OW18755  12.213  11.923   0.747
38953SOL    HW118756  12.274  11.947   0.677
38953SOL    HW218757  12.167  12.005   0.768
38954SOL     OW18758  11.918  14.599   1.965
38954SOL    HW118759  11.953  14.589   1.877
38954SOL    HW218760  11.889  14.511   1.990
38955SOL     OW18761  12.471   0.668  11.536
38955SOL    HW118762  12.415   0.658  11.460
38955SOL    HW218763  12.466   0.761  11.558
38956SOL     OW18764   7.407   6.638   5.695
38956SOL    HW118765   7.472   6.697   5.658
38956SOL    HW218766   7.338   6.633   5.628
38957SOL     OW18767   2.342   2.949   9.839
38957SOL    HW118768   2.318   2.952   9.746
38957SOL    HW218769   2.332   3.040   9.869
38958SOL     OW18770  12.422   8.111   3.404
38958SOL    HW118771  12.465   8.026   3.401
38958SOL    HW218772  12.475   8.162   3.466
38959SOL     OW18773  12.112  14.116   9.054
38959SOL    HW118774  12.145  14.045   9.110
38959SOL    HW218775  12.191  14.151   9.011
38960SOL     OW18776   2.126  10.020   6.936
38960SOL    HW118777   2.170  10.058   7.012
38960SOL    HW218778   2.145  10.080   6.865
38961SOL     OW18779   0.510  14.820   7.109
38961SOL    HW118780   0.424  14.861   7.110
38961SOL    HW218781   0.498  14.737   7.156
38962SOL     OW18782   3.968   7.803   7.647
38962SOL    HW118783   3.897   7.800   7.583
38962SOL    HW218784   4.040   7.846   7.601
38963SOL     OW18785   3.364   5.718   0.044
38963SOL    HW118786   3.325   5.801   0.071
38963SOL    HW218787   3.444   5.712   0.096
38964SOL     OW18788  12.777  14.822   7.402
38964SOL    HW118789  12.753  14.730   7.419
38964SOL    HW218790  12.705  14.856   7.349
38965SOL     OW18791  10.783   3.624   1.554
38965SOL    HW118792  10.777   3.713   1.591
38965SOL    HW218793  10.800   3.639   1.461
38966SOL     OW18794  13.572   7.880   8.969
38966SOL    HW118795  13.517   7.954   8.947
38966SOL    HW218796  13.610   7.852   8.886
38967SOL     OW18797  11.011   7.492   9.094
38967SOL    HW118798  11.062   7.436   9.036
38967SOL    HW218799  10.945   7.434   9.131
38968SOL     OW18800   2.852   1.435   7.284
38968SOL    HW118801   2.761   1.458   7.301
38968SOL    HW218802   2.851   1.340   7.274
38969SOL     OW18803  12.837   6.198  11.651
38969SOL    HW118804  12.919   6.187  11.698
38969SOL    HW218805  12.780   6.244  11.713
38970SOL     OW18806   2.763  14.545   3.780
38970SOL    HW118807   2.780  14.513   3.692
38970SOL    HW218808   2.689  14.492   3.811
38971SOL     OW18809   9.501   6.506  14.157
38971SOL    HW118810   9.510   6.599  14.137
38971SOL    HW218811   9.406   6.493  14.164
38972SOL     OW18812   1.995   0.970   9.344
38972SOL    HW118813   1.912   0.991   9.387
38972SOL    HW218814   1.987   0.877   9.323
38973SOL     OW18815   5.942   4.694   5.221
38973SOL    HW118816   5.897   4.774   5.246
38973SOL    HW218817   5.966   4.707   5.129
38974SOL     OW18818   2.215  11.707  10.212
38974SOL    HW118819   2.245  11.785  10.259
38974SOL    HW218820   2.283  11.642  10.229
38975SOL     OW18821  13.288   0.572  12.661
38975SOL    HW118822  13.350   0.590  12.590
38975SOL    HW218823  13.275   0.478  12.658
38976SOL     OW18824   9.604   9.906  12.611
38976SOL    HW118825   9.552   9.977  12.574
38976SOL    HW218826   9.627   9.852  12.536
38977SOL     OW18827  12.195   1.406   9.075
38977SOL    HW118828  12.267   1.466   9.097
38977SOL    HW218829  12.153   1.387   9.159
38978SOL     OW18830   0.169   4.476  11.490
38978SOL    HW118831   0.247   4.484  11.436
38978SOL    HW218832   0.097   4.504  11.433
38979SOL     OW18833   8.045   4.295   0.764
38979SOL    HW118834   7.987   4.233   0.720
38979SOL    HW218835   8.023   4.286   0.857
38980SOL     OW18836   2.311  10.767   7.548
38980SOL    HW118837   2.287  10.769   7.456
38980SOL    HW218838   2.344  10.678   7.562
38981SOL     OW18839   2.332  12.038   0.150
38981SOL    HW118840   2.324  12.038   0.246
38981SOL    HW218841   2.426  12.047   0.135
38982SOL     OW18842  10.185  10.543  11.318
38982SOL    HW118843  10.223  10.588  11.394
38982SOL    HW218844  10.127  10.608  11.278
38983SOL     OW18845   1.942   3.323   9.322
38983SOL    HW118846   1.925   3.232   9.298
38983SOL    HW218847   1.898   3.334   9.406
38984SOL     OW18848   9.048   4.309  10.549
38984SOL    HW118849   9.080   4.380  10.605
38984SOL    HW218850   9.049   4.345  10.461
38985SOL     OW18851  11.732  11.299   9.508
38985SOL    HW118852  11.754  11.207   9.518
38985SOL    HW218853  11.735  11.335   9.597
38986SOL     OW18854   4.834  13.210   0.370
38986SOL    HW118855   4.815  13.132   0.318
38986SOL    HW218856   4.775  13.277   0.334
38987SOL     OW18857   9.637   4.356   7.763
38987SOL    HW118858   9.557   4.405   7.746
38987SOL    HW218859   9.706   4.407   7.719
38988SOL     OW18860   7.701   5.208   5.229
38988SOL    HW118861   7.673   5.299   5.218
38988SOL    HW218862   7.619   5.159   5.237
38989SOL     OW18863   4.028   1.107  13.489
38989SOL    HW118864   3.942   1.146  13.503
38989SOL    HW218865   4.089   1.179  13.502
38990SOL     OW18866   1.428  12.188   4.341
38990SOL    HW118867   1.430  12.262   4.402
38990SOL    HW218868   1.495  12.210   4.275
38991SOL     OW18869   9.729  12.222   7.488
38991SOL    HW118870   9.738  12.144   7.544
38991SOL    HW218871   9.657  12.200   7.429
38992SOL     OW18872   2.361  12.337   3.623
38992SOL    HW118873   2.381  12.351   3.530
38992SOL    HW218874   2.361  12.424   3.661
38993SOL     OW18875   4.420   8.480   0.955
38993SOL    HW118876   4.485   8.548   0.975
38993SOL    HW218877   4.369   8.516   0.882
38994SOL     OW18878   0.758   0.833  12.371
38994SOL    HW118879   0.844   0.845  12.411
38994SOL    HW218880   0.751   0.739  12.355
38995SOL     OW18881  11.628   6.800  13.645
38995SOL    HW118882  11.533   6.794  13.636
38995SOL    HW218883  11.657   6.710  13.663
38996SOL     OW18884  14.195   7.861   2.884
38996SOL    HW118885  14.138   7.819   2.820
38996SOL    HW218886  14.145   7.936   2.916
38997SOL     OW18887  12.255   3.378   3.320
38997SOL    HW118888  12.208   3.296   3.331
38997SOL    HW218889  12.206   3.441   3.374
38998SOL     OW18890   4.022   0.848   4.735
38998SOL    HW118891   4.077   0.876   4.808
38998SOL    HW218892   4.008   0.755   4.750
38999SOL     OW18893   8.433   1.439   5.882
38999SOL    HW118894   8.421   1.482   5.967
38999SOL    HW218895   8.526   1.450   5.863
39000SOL     OW18896  12.430  12.676   8.256
39000SOL    HW118897  12.487  12.753   8.261
39000SOL    HW218898  12.358  12.703   8.200
39001SOL     OW18899  11.942   8.391   0.290
39001SOL    HW118900  11.923   8.396   0.383
39001SOL    HW218901  12.000   8.315   0.281
39002SOL     OW18902   2.515   5.577   2.164
39002SOL    HW118903   2.518   5.620   2.249
39002SOL    HW218904   2.507   5.484   2.185
39003SOL     OW18905   8.266   2.223   2.006
39003SOL    HW118906   8.345   2.180   2.038
39003SOL    HW218907   8.222   2.255   2.085
39004SOL     OW18908   6.429  13.512   3.925
39004SOL    HW118909   6.473  13.590   3.892
39004SOL    HW218910   6.451  13.444   3.861
39005SOL     OW18911   5.258   9.020  12.484
39005SOL    HW118912   5.291   8.931  12.498
39005SOL    HW218913   5.227   9.020  12.393
39006SOL     OW18914  13.018  14.232   4.592
39006SOL    HW118915  13.011  14.139   4.572
39006SOL    HW218916  12.988  14.276   4.512
39007SOL     OW18917   6.215  13.280   3.040
39007SOL    HW118918   6.197  13.248   2.952
39007SOL    HW218919   6.301  13.321   3.034
39008SOL     OW18920   0.135   9.715   6.515
39008SOL    HW118921   0.225   9.704   6.546
39008SOL    HW218922   0.114   9.632   6.473
39009SOL     OW18923  14.369  11.673  11.871
39009SOL    HW118924  14.354  11.581  11.891
39009SOL    HW218925  14.462  11.687  11.892
39010SOL     OW18926   6.219   2.925   2.753
39010SOL    HW118927   6.225   3.014   2.718
39010SOL    HW218928   6.309   2.895   2.760
39011SOL     OW18929   5.098   8.901   9.976
39011SOL    HW118930   5.170   8.956   9.945
39011SOL    HW218931   5.025   8.961   9.989
39012SOL     OW18932  12.496   2.493   7.073
39012SOL    HW118933  12.571   2.481   7.131
39012SOL    HW218934  12.420   2.489   7.131
39013SOL     OW18935  14.869  11.792   2.501
39013SOL    HW118936   0.054  11.757   2.431
39013SOL    HW218937  14.811  11.720   2.526
39014SOL     OW18938   7.506   1.720  14.530
39014SOL    HW118939   7.492   1.697  14.622
39014SOL    HW218940   7.447   1.662  14.481
39015SOL     OW18941  13.490  12.481   6.693
39015SOL    HW118942  13.545  12.405   6.710
39015SOL    HW218943  13.471  12.517   6.780
39016SOL     OW18944  11.587   2.040   0.444
39016SOL    HW118945  11.578   2.133   0.465
39016SOL    HW218946  11.654   2.037   0.375
39017SOL     OW18947  11.983   0.679  10.987
39017SOL    HW118948  11.926   0.754  10.971
39017SOL    HW218949  12.025   0.662  10.903
39018SOL     OW18950   7.884  11.968   0.688
39018SOL    HW118951   7.950  11.903   0.667
39018SOL    HW218952   7.829  11.973   0.610
39019SOL     OW18953   9.151   3.083   4.842
39019SOL    HW118954   9.168   2.989   4.840
39019SOL    HW218955   9.119   3.100   4.931
39020SOL     OW18956   0.213  10.144   9.761
39020SOL    HW118957   0.266  10.222   9.775
39020SOL    HW218958   0.167  10.161   9.679
39021SOL     OW18959   9.680  13.722  13.197
39021SOL    HW118960   9.756  13.712  13.141
39021SOL    HW218961   9.716  13.749  13.282
39022SOL     OW18962   2.210   4.517  11.867
39022SOL    HW118963   2.127   4.543  11.907
39022SOL    HW218964   2.239   4.595  11.820
39023SOL     OW18965  12.078  11.983  12.392
39023SOL    HW118966  12.017  11.993  12.319
39023SOL    HW218967  12.065  12.062  12.445
39024SOL     OW18968  11.497  12.263   9.278
39024SOL    HW118969  11.525  12.239   9.367
39024SOL    HW218970  11.423  12.205   9.260
39025SOL     OW18971  12.358  11.952  10.263
39025SOL    HW118972  12.441  11.916  10.294
39025SOL    HW218973  12.383  12.031  10.214
39026SOL     OW18974  10.843   3.085   1.748
39026SOL    HW118975  10.891   3.109   1.669
39026SOL    HW218976  10.755   3.065   1.717
39027SOL     OW18977  14.694  14.866   3.685
39027SOL    HW118978  14.736  14.816   3.616
39027SOL    HW218979  14.688   0.085   3.650
39028SOL     OW18980   0.078   3.742  11.874
39028SOL    HW118981   0.137   3.811  11.845
39028SOL    HW218982   0.120   3.661  11.846
39029SOL     OW18983  11.431   7.900   6.205
39029SOL    HW118984  11.367   7.844   6.248
39029SOL    HW218985  11.516   7.869   6.236
39030SOL     OW18986  12.207   1.538   0.957
39030SOL    HW118987  12.130   1.522   1.012
39030SOL    HW218988  12.244   1.451   0.943
39031SOL     OW18989   8.064   6.480   6.566
39031SOL    HW118990   8.059   6.542   6.493
39031SOL    HW218991   8.152   6.493   6.602
39032SOL     OW18992   8.980   8.798  14.048
39032SOL    HW118993   8.970   8.715  14.002
39032SOL    HW218994   8.935   8.785  14.131
39033SOL     OW18995   1.831   4.444   3.978
39033SOL    HW118996   1.794   4.523   4.017
39033SOL    HW218997   1.760   4.407   3.926
39034SOL     OW18998   5.681   9.393  13.311
39034SOL    HW118999   5.697   9.464  13.249
39034SOL    HW219000   5.767   9.370  13.344
39035SOL     OW19001   5.188  12.109  12.020
39035SOL    HW119002   5.114  12.169  12.027
39035SOL    HW219003   5.198  12.096  11.926
39036SOL     OW19004   6.097   4.078   2.608
39036SOL    HW119005   6.041   4.044   2.678
39036SOL    HW219006   6.119   4.167   2.637
39037SOL     OW19007   2.648   9.162   4.101
39037SOL    HW119008   2.645   9.067   4.085
39037SOL    HW219009   2.741   9.184   4.097
39038SOL     OW19010   3.747   9.482  11.989
39038SOL    HW119011   3.814   9.550  11.998
39038SOL    HW219012   3.674   9.526  11.947
39039SOL     OW19013   8.758  10.449   5.085
39039SOL    HW119014   8.740  10.489   5.000
39039SOL    HW219015   8.697  10.492   5.145
39040SOL     OW19016   3.247   4.595   1.994
39040SOL    HW119017   3.295   4.613   2.075
39040SOL    HW219018   3.224   4.502   2.000
39041SOL     OW19019  13.346  12.364   0.432
39041SOL    HW119020  13.425  12.321   0.398
39041SOL    HW219021  13.289  12.291   0.457
39042SOL     OW19022   9.084  13.477  11.019
39042SOL    HW119023   9.057  13.507  10.932
39042SOL    HW219024   9.168  13.433  11.003
39043SOL     OW19025   1.006   6.243   3.194
39043SOL    HW119026   1.030   6.332   3.167
39043SOL    HW219027   1.047   6.187   3.128
39044SOL     OW19028  11.305   5.572   2.761
39044SOL    HW119029  11.352   5.578   2.678
39044SOL    HW219030  11.249   5.495   2.752
39045SOL     OW19031   7.784  13.737   8.906
39045SOL    HW119032   7.763  13.823   8.869
39045SOL    HW219033   7.701  13.689   8.902
39046SOL     OW19034   6.628  13.897   3.237
39046SOL    HW119035   6.660  13.956   3.168
39046SOL    HW219036   6.704  13.845   3.261
39047SOL     OW19037   5.849  11.932   0.266
39047SOL    HW119038   5.765  11.888   0.255
39047SOL    HW219039   5.844  11.972   0.353
39048SOL     OW19040   0.853   0.070   6.449
39048SOL    HW119041   0.843   0.002   6.515
39048SOL    HW219042   0.766   0.109   6.440
39049SOL     OW19043   4.340  11.671   7.996
39049SOL    HW119044   4.290  11.703   8.072
39049SOL    HW219045   4.408  11.615   8.035
39050SOL     OW19046   7.570   0.542  10.411
39050SOL    HW119047   7.497   0.501  10.365
39050SOL    HW219048   7.638   0.553  10.344
39051SOL     OW19049  12.302   7.718   4.065
39051SOL    HW119050  12.250   7.690   3.989
39051SOL    HW219051  12.391   7.723   4.032
39052SOL     OW19052  12.905   6.386   2.161
39052SOL    HW119053  12.859   6.458   2.118
39052SOL    HW219054  12.922   6.323   2.091
39053SOL     OW19055  12.963   6.848  10.001
39053SOL    HW119056  13.026   6.874   9.933
39053SOL    HW219057  12.895   6.915   9.998
39054SOL     OW19058   2.104   0.929   5.421
39054SOL    HW119059   2.117   0.882   5.504
39054SOL    HW219060   2.180   0.905   5.368
39055SOL     OW19061   5.096   0.967   0.657
39055SOL    HW119062   5.138   0.900   0.711
39055SOL    HW219063   5.038   1.014   0.717
39056SOL     OW19064  10.690   9.781   5.555
39056SOL    HW119065  10.608   9.733   5.563
39056SOL    HW219066  10.745   9.728   5.498
39057SOL     OW19067   8.528   0.079   1.249
39057SOL    HW119068   8.549   0.063   1.157
39057SOL    HW219069   8.611   0.102   1.290
39058SOL     OW19070   4.309   4.588  11.994
39058SOL    HW119071   4.297   4.657  11.929
39058SOL    HW219072   4.239   4.525  11.976
39059SOL     OW19073   2.878  13.962   7.991
39059SOL    HW119074   2.866  13.907   7.914
39059SOL    HW219075   2.791  13.996   8.011
39060SOL     OW19076   2.699   2.940   0.889
39060SOL    HW119077   2.714   2.855   0.931
39060SOL    HW219078   2.703   2.921   0.795
39061SOL     OW19079   2.926   8.855  12.416
39061SOL    HW119080   2.942   8.938  12.371
39061SOL    HW219081   2.923   8.879  12.509
39062SOL     OW19082  14.814   4.481   6.896
39062SOL    HW119083  14.857   4.403   6.930
39062SOL    HW219084  14.739   4.446   6.847
39063SOL     OW19085   5.094  14.666   0.519
39063SOL    HW119086   5.163  14.673   0.453
39063SOL    HW219087   5.059  14.755   0.526
39064SOL     OW19088   5.674  12.838   3.890
39064SOL    HW119089   5.629  12.910   3.935
39064SOL    HW219090   5.608  12.804   3.829
39065SOL     OW19091   7.394   1.017   8.480
39065SOL    HW119092   7.378   1.110   8.498
39065SOL    HW219093   7.310   0.974   8.501
39066SOL     OW19094   6.629  10.797   5.474
39066SOL    HW119095   6.616  10.733   5.544
39066SOL    HW219096   6.597  10.753   5.395
39067SOL     OW19097   0.885   5.074  11.443
39067SOL    HW119098   0.956   5.135  11.459
39067SOL    HW219099   0.924   4.987  11.459
39068SOL     OW19100   8.643   7.273  13.388
39068SOL    HW119101   8.721   7.318  13.419
39068SOL    HW219102   8.674   7.214  13.319
39069SOL     OW19103  10.559  10.620   3.438
39069SOL    HW119104  10.545  10.551   3.503
39069SOL    HW219105  10.600  10.575   3.364
39070SOL     OW19106   4.365   0.806  11.239
39070SOL    HW119107   4.295   0.870  11.252
39070SOL    HW219108   4.318   0.725  11.217
39071SOL     OW19109  13.558   9.620   0.053
39071SOL    HW119110  13.462   9.621   0.058
39071SOL    HW219111  13.579   9.531   0.024
39072SOL     OW19112   8.147   7.726   4.081
39072SOL    HW119113   8.116   7.728   3.991
39072SOL    HW219114   8.189   7.640   4.090
39073SOL     OW19115   3.384   1.042   7.827
39073SOL    HW119116   3.303   1.084   7.798
39073SOL    HW219117   3.372   0.949   7.806
39074SOL     OW19118   7.261  11.901  10.649
39074SOL    HW119119   7.336  11.890  10.709
39074SOL    HW219120   7.285  11.976  10.595
39075SOL     OW19121  10.771  10.891   7.738
39075SOL    HW119122  10.736  10.917   7.823
39075SOL    HW219123  10.699  10.907   7.676
39076SOL     OW19124   0.672   9.068  12.653
39076SOL    HW119125   0.679   9.136  12.720
39076SOL    HW219126   0.697   9.112  12.572
39077SOL     OW19127   5.847   1.621   7.366
39077SOL    HW119128   5.902   1.697   7.348
39077SOL    HW219129   5.793   1.647   7.441
39078SOL     OW19130  10.086  10.276  10.845
39078SOL    HW119131  10.037  10.194  10.838
39078SOL    HW219132  10.177  10.250  10.835
39079SOL     OW19133  10.269   1.827   9.401
39079SOL    HW119134  10.236   1.892   9.340
39079SOL    HW219135  10.301   1.756   9.345
39080SOL     OW19136   7.286  13.635   2.939
39080SOL    HW119137   7.275  13.545   2.971
39080SOL    HW219138   7.209  13.682   2.973
39081SOL     OW19139  11.251   8.490   7.130
39081SOL    HW119140  11.288   8.469   7.044
39081SOL    HW219141  11.289   8.425   7.189
39082SOL     OW19142   9.465   5.241  10.783
39082SOL    HW119143   9.408   5.317  10.794
39082SOL    HW219144   9.448   5.187  10.860
39083SOL     OW19145  10.511   7.955   2.169
39083SOL    HW119146  10.591   7.958   2.117
39083SOL    HW219147  10.442   7.938   2.105
39084SOL     OW19148   0.223   2.234  14.194
39084SOL    HW119149   0.256   2.211  14.107
39084SOL    HW219150   0.244   2.158  14.249
39085SOL     OW19151   9.106   5.735   2.159
39085SOL    HW119152   9.123   5.724   2.253
39085SOL    HW219153   9.108   5.645   2.125
39086SOL     OW19154  10.042   9.668   6.848
39086SOL    HW119155  10.103   9.633   6.913
39086SOL    HW219156  10.056   9.763   6.851
39087SOL     OW19157   7.647   2.345   1.371
39087SOL    HW119158   7.585   2.286   1.414
39087SOL    HW219159   7.661   2.415   1.435
39088SOL     OW19160  10.767  11.002   5.576
39088SOL    HW119161  10.748  10.911   5.599
39088SOL    HW219162  10.822  11.034   5.647
39089SOL     OW19163   0.167   1.006   5.577
39089SOL    HW119164   0.209   1.004   5.491
39089SOL    HW219165   0.084   1.051   5.562
39090SOL     OW19166   9.888   4.977   9.802
39090SOL    HW119167   9.860   5.028   9.727
39090SOL    HW219168   9.811   4.974   9.859
39091SOL     OW19169  11.521   9.851   3.514
39091SOL    HW119170  11.460   9.885   3.578
39091SOL    HW219171  11.511   9.756   3.519
39092SOL     OW19172  13.914  11.207   6.246
39092SOL    HW119173  13.900  11.136   6.309
39092SOL    HW219174  13.885  11.171   6.162
39093SOL     OW19175   1.603   6.702  14.573
39093SOL    HW119176   1.653   6.753  14.509
39093SOL    HW219177   1.643   6.615  14.572
39094SOL     OW19178   5.280   3.520   1.438
39094SOL    HW119179   5.236   3.463   1.501
39094SOL    HW219180   5.371   3.522   1.466
39095SOL     OW19181   4.729   6.589   6.740
39095SOL    HW119182   4.794   6.631   6.796
39095SOL    HW219183   4.670   6.660   6.714
39096SOL     OW19184  12.853   1.112  13.051
39096SOL    HW119185  12.906   1.034  13.070
39096SOL    HW219186  12.907   1.164  12.992
39097SOL     OW19187   9.525  14.803   4.482
39097SOL    HW119188   9.540  14.729   4.541
39097SOL    HW219189   9.445  14.843   4.514
39098SOL     OW19190   9.028  11.377   9.941
39098SOL    HW119191   9.064  11.291   9.963
39098SOL    HW219192   9.100  11.424   9.899
39099SOL     OW19193  14.849  11.763  12.318
39099SOL    HW119194  14.854  11.855  12.291
39099SOL    HW219195   0.070  11.733  12.318
39100SOL     OW19196   3.004   6.517  10.463
39100SOL    HW119197   2.912   6.492  10.452
39100SOL    HW219198   3.044   6.443  10.510
39101SOL     OW19199   8.104   7.665   2.955
39101SOL    HW119200   8.193   7.701   2.961
39101SOL    HW219201   8.117   7.575   2.925
39102SOL     OW19202   0.188  11.942  13.695
39102SOL    HW119203   0.155  11.907  13.777
39102SOL    HW219204   0.282  11.953  13.709
39103SOL     OW19205   0.521  11.815  11.131
39103SOL    HW119206   0.515  11.904  11.168
39103SOL    HW219207   0.605  11.782  11.162
39104SOL     OW19208   6.374  13.499   0.778
39104SOL    HW119209   6.401  13.407   0.776
39104SOL    HW219210   6.292  13.501   0.728
39105SOL     OW19211   0.154   8.487   3.306
39105SOL    HW119212   0.062   8.501   3.330
39105SOL    HW219213   0.164   8.392   3.307
39106SOL     OW19214   0.040  11.391   8.011
39106SOL    HW119215   0.040  11.461   7.945
39106SOL    HW219216   0.091  11.321   7.972
39107SOL     OW19217   8.743   7.281  12.077
39107SOL    HW119218   8.772   7.334  12.152
39107SOL    HW219219   8.790   7.198  12.088
39108SOL     OW19220   3.014  13.945   8.215
39108SOL    HW119221   2.962  13.950   8.134
39108SOL    HW219222   3.079  13.877   8.198
39109SOL     OW19223  14.733   1.417   8.859
39109SOL    HW119224  14.703   1.362   8.787
39109SOL    HW219225  14.692   1.381   8.937
39110SOL     OW19226   3.185  12.421  14.427
39110SOL    HW119227   3.268  12.425  14.474
39110SOL    HW219228   3.131  12.489  14.468
39111SOL     OW19229   8.773  13.282  12.777
39111SOL    HW119230   8.682  13.254  12.780
39111SOL    HW219231   8.804  13.273  12.867
39112SOL     OW19232  14.720  12.481   8.475
39112SOL    HW119233  14.737  12.387   8.479
39112SOL    HW219234  14.730  12.512   8.565
39113SOL     OW19235   3.273   7.785  12.937
39113SOL    HW119236   3.254   7.702  12.892
39113SOL    HW219237   3.202   7.795  13.000
39114SOL     OW19238   7.974   8.433  13.344
39114SOL    HW119239   8.049   8.492  13.354
39114SOL    HW219240   7.929   8.437  13.428
39115SOL     OW19241  11.144   6.986   3.169
39115SOL    HW119242  11.092   6.976   3.089
39115SOL    HW219243  11.091   7.042   3.225
39116SOL     OW19244   7.434   6.922  14.410
39116SOL    HW119245   7.379   6.893  14.337
39116SOL    HW219246   7.374   6.930  14.484
39117SOL     OW19247  13.970   5.624   3.182
39117SOL    HW119248  13.995   5.534   3.202
39117SOL    HW219249  13.885   5.635   3.224
39118SOL     OW19250  11.831  13.492   4.399
39118SOL    HW119251  11.819  13.587   4.401
39118SOL    HW219252  11.745  13.457   4.375
39119SOL     OW19253   8.180  14.299   7.437
39119SOL    HW119254   8.247  14.316   7.503
39119SOL    HW219255   8.207  14.352   7.362
39120SOL     OW19256   8.983  11.755   6.047
39120SOL    HW119257   8.908  11.815   6.044
39120SOL    HW219258   8.949  11.673   6.012
39121SOL     OW19259  12.953   6.193   1.967
39121SOL    HW119260  12.972   6.104   1.938
39121SOL    HW219261  12.918   6.237   1.890
39122SOL     OW19262   6.309   2.414  14.654
39122SOL    HW119263   6.241   2.457  14.707
39122SOL    HW219264   6.318   2.470  14.577
39123SOL     OW19265  11.652   2.873   3.144
39123SOL    HW119266  11.597   2.948   3.168
39123SOL    HW219267  11.594   2.817   3.094
39124SOL     OW19268   2.785  12.624   5.426
39124SOL    HW119269   2.757  12.714   5.411
39124SOL    HW219270   2.712  12.570   5.396
39125SOL     OW19271   4.286   6.869   3.588
39125SOL    HW119272   4.250   6.951   3.555
39125SOL    HW219273   4.358   6.896   3.645
39126SOL     OW19274   1.848  14.783   4.730
39126SOL    HW119275   1.762  14.742   4.736
39126SOL    HW219276   1.890  14.764   4.814
39127SOL     OW19277   7.863   4.398   2.217
39127SOL    HW119278   7.828   4.476   2.261
39127SOL    HW219279   7.941   4.375   2.268
39128SOL     OW19280   0.569  12.809   1.822
39128SOL    HW119281   0.576  12.846   1.734
39128SOL    HW219282   0.537  12.720   1.808
39129SOL     OW19283   1.832   2.571   3.041
39129SOL    HW119284   1.800   2.644   3.095
39129SOL    HW219285   1.850   2.611   2.956
39130SOL     OW19286   3.918   2.396   8.879
39130SOL    HW119287   3.836   2.374   8.834
39130SOL    HW219288   3.919   2.492   8.881
39131SOL     OW19289   9.526   3.762  11.314
39131SOL    HW119290   9.527   3.670  11.288
39131SOL    HW219291   9.607   3.798  11.277
39132SOL     OW19292   3.585  10.147  12.141
39132SOL    HW119293   3.495  10.114  12.151
39132SOL    HW219294   3.578  10.241  12.160
39133SOL     OW19295  10.474   8.195   9.630
39133SOL    HW119296  10.561   8.157   9.637
39133SOL    HW219297  10.416   8.133   9.674
39134SOL     OW19298   2.455  12.289   9.246
39134SOL    HW119299   2.479  12.381   9.254
39134SOL    HW219300   2.360  12.289   9.236
39135SOL     OW19301   9.350   8.693   1.678
39135SOL    HW119302   9.412   8.759   1.647
39135SOL    HW219303   9.321   8.648   1.599
39136SOL     OW19304   8.741   3.731  12.616
39136SOL    HW119305   8.756   3.683  12.535
39136SOL    HW219306   8.829   3.755  12.646
39137SOL     OW19307  13.905   2.140   6.785
39137SOL    HW119308  13.958   2.062   6.768
39137SOL    HW219309  13.943   2.179   6.863
39138SOL     OW19310  11.880   7.913   8.588
39138SOL    HW119311  11.893   8.006   8.570
39138SOL    HW219312  11.797   7.892   8.547
39139SOL     OW19313   8.433   8.363   2.025
39139SOL    HW119314   8.502   8.381   1.961
39139SOL    HW219315   8.364   8.425   2.003
39140SOL     OW19316  14.546  10.745   9.216
39140SOL    HW119317  14.594  10.770   9.295
39140SOL    HW219318  14.485  10.817   9.202
39141SOL     OW19319   5.568   3.957   5.658
39141SOL    HW119320   5.491   3.980   5.710
39141SOL    HW219321   5.535   3.895   5.593
39142SOL     OW19322   5.331   5.027   7.170
39142SOL    HW119323   5.307   5.078   7.247
39142SOL    HW219324   5.360   5.092   7.106
39143SOL     OW19325  12.252   3.214   9.939
39143SOL    HW119326  12.303   3.258  10.007
39143SOL    HW219327  12.173   3.268   9.930
39144SOL     OW19328   1.235   3.691  14.510
39144SOL    HW119329   1.267   3.610  14.471
39144SOL    HW219330   1.206   3.744  14.436
39145SOL     OW19331  11.390   7.542   1.226
39145SOL    HW119332  11.482   7.521   1.241
39145SOL    HW219333  11.346   7.513   1.306
39146SOL     OW19334   1.367  11.913  13.241
39146SOL    HW119335   1.375  11.989  13.299
39146SOL    HW219336   1.432  11.850  13.274
39147SOL     OW19337   3.864   6.042   8.056
39147SOL    HW119338   3.883   6.101   7.983
39147SOL    HW219339   3.832   5.962   8.014
39148SOL     OW19340  13.271   9.981   3.998
39148SOL    HW119341  13.274   9.948   4.088
39148SOL    HW219342  13.355  10.023   3.984
39149SOL     OW19343   8.373  11.111   7.097
39149SOL    HW119344   8.404  11.074   7.015
39149SOL    HW219345   8.397  11.203   7.093
39150SOL     OW19346   7.671  14.563   5.632
39150SOL    HW119347   7.712  14.535   5.550
39150SOL    HW219348   7.716  14.645   5.654
39151SOL     OW19349   1.212  11.981   4.840
39151SOL    HW119350   1.140  11.930   4.803
39151SOL    HW219351   1.211  11.961   4.933
39152SOL     OW19352   7.841   5.534  11.984
39152SOL    HW119353   7.770   5.499  11.929
39152SOL    HW219354   7.912   5.550  11.923
39153SOL     OW19355  10.250  11.486   1.797
39153SOL    HW119356  10.159  11.468   1.821
39153SOL    HW219357  10.281  11.548   1.864
39154SOL     OW19358   9.449   7.074   3.801
39154SOL    HW119359   9.529   7.057   3.750
39154SOL    HW219360   9.380   7.030   3.752
39155SOL     OW19361   0.586   9.613   4.013
39155SOL    HW119362   0.576   9.665   3.933
39155SOL    HW219363   0.503   9.567   4.023
39156SOL     OW19364   5.357  11.874  12.457
39156SOL    HW119365   5.296  11.800  12.458
39156SOL    HW219366   5.354  11.907  12.368
39157SOL     OW19367  13.328   4.799   1.278
39157SOL    HW119368  13.263   4.868   1.290
39157SOL    HW219369  13.328   4.751   1.361
39158SOL     OW19370  13.675  14.109   1.269
39158SOL    HW119371  13.619  14.069   1.336
39158SOL    HW219372  13.616  14.124   1.195
39159SOL     OW19373  13.538   6.516  12.065
39159SOL    HW119374  13.616   6.557  12.026
39159SOL    HW219375  13.501   6.584  12.121
39160SOL     OW19376  13.571   8.960  11.607
39160SOL    HW119377  13.584   8.928  11.518
39160SOL    HW219378  13.486   8.923  11.633
39161SOL     OW19379   1.191   3.431   2.991
39161SOL    HW119380   1.262   3.449   2.930
39161SOL    HW219381   1.232   3.385   3.064
39162SOL     OW19382   1.134  12.150  12.935
39162SOL    HW119383   1.062  12.116  12.988
39162SOL    HW219384   1.206  12.160  12.998
39163SOL     OW19385   9.305   1.594  10.828
39163SOL    HW119386   9.334   1.548  10.907
39163SOL    HW219387   9.346   1.547  10.756
39164SOL     OW19388   1.292  10.674   4.416
39164SOL    HW119389   1.340  10.730   4.477
39164SOL    HW219390   1.322  10.586   4.434
39165SOL     OW19391  13.547   1.343   1.467
39165SOL    HW119392  13.506   1.424   1.437
39165SOL    HW219393  13.473   1.287   1.491
39166SOL     OW19394  11.358  12.933  11.057
39166SOL    HW119395  11.282  12.954  11.110
39166SOL    HW219396  11.392  13.017  11.028
39167SOL     OW19397   5.852  14.614  10.134
39167SOL    HW119398   5.849  14.538  10.192
39167SOL    HW219399   5.941  14.648  10.145
39168SOL     OW19400   8.871  11.500   5.919
39168SOL    HW119401   8.894  11.439   5.989
39168SOL    HW219402   8.784  11.471   5.890
39169SOL     OW19403  14.152  13.462   7.160
39169SOL    HW119404  14.183  13.521   7.091
39169SOL    HW219405  14.057  13.477   7.162
39170SOL     OW19406   2.845   8.847   4.644
39170SOL    HW119407   2.867   8.861   4.552
39170SOL    HW219408   2.779   8.777   4.642
39171SOL     OW19409   4.590   6.038   1.384
39171SOL    HW119410   4.515   5.999   1.428
39171SOL    HW219411   4.552   6.104   1.326
39172SOL     OW19412   3.786   1.038   9.338
39172SOL    HW119413   3.718   1.050   9.272
39172SOL    HW219414   3.865   1.071   9.298
39173SOL     OW19415   2.699   5.061   7.583
39173SOL    HW119416   2.676   5.081   7.673
39173SOL    HW219417   2.713   4.966   7.581
39174SOL     OW19418   2.378  13.277   8.123
39174SOL    HW119419   2.348  13.291   8.213
39174SOL    HW219420   2.299  13.281   8.070
39175SOL     OW19421   5.495   5.438  11.650
39175SOL    HW119422   5.422   5.499  11.658
39175SOL    HW219423   5.463   5.369  11.592
39176SOL     OW19424  10.560   4.323   2.900
39176SOL    HW119425  10.562   4.277   2.984
39176SOL    HW219426  10.506   4.268   2.844
39177SOL     OW19427  14.451   8.131  10.685
39177SOL    HW119428  14.411   8.179  10.613
39177SOL    HW219429  14.377   8.087  10.729
39178SOL     OW19430  13.520   1.476   5.542
39178SOL    HW119431  13.457   1.409   5.519
39178SOL    HW219432  13.551   1.451   5.629
39179SOL     OW19433   4.168  11.368  13.939
39179SOL    HW119434   4.117  11.294  13.906
39179SOL    HW219435   4.229  11.389  13.869
39180SOL     OW19436   0.596   7.931   0.371
39180SOL    HW119437   0.518   7.984   0.356
39180SOL    HW219438   0.609   7.884   0.288
39181SOL     OW19439   9.674   0.359  13.648
39181SOL    HW119440   9.723   0.415  13.709
39181SOL    HW219441   9.625   0.420  13.593
39182SOL     OW19442  14.542   4.028   4.173
39182SOL    HW119443  14.620   3.976   4.193
39182SOL    HW219444  14.475   3.994   4.231
39183SOL     OW19445  13.030  13.689  13.639
39183SOL    HW119446  13.113  13.692  13.687
39183SOL    HW219447  13.053  13.653  13.553
39184SOL     OW19448  14.519   8.028   3.024
39184SOL    HW119449  14.517   7.961   2.955
39184SOL    HW219450  14.429   8.061   3.028
39185SOL     OW19451   7.971   5.651   9.605
39185SOL    HW119452   7.955   5.724   9.545
39185SOL    HW219453   7.886   5.634   9.645
39186SOL     OW19454   3.862   1.468  10.677
39186SOL    HW119455   3.940   1.522  10.664
39186SOL    HW219456   3.848   1.426  10.592
39187SOL     OW19457  10.533   3.773   2.125
39187SOL    HW119458  10.505   3.862   2.105
39187SOL    HW219459  10.624   3.781   2.151
39188SOL     OW19460  11.217   7.755   0.571
39188SOL    HW119461  11.241   7.839   0.611
39188SOL    HW219462  11.295   7.700   0.583
39189SOL     OW19463   1.906   3.918  14.697
39189SOL    HW119464   1.964   3.851  14.662
39189SOL    HW219465   1.826   3.910  14.645
39190SOL     OW19466   3.672   6.643   2.976
39190SOL    HW119467   3.618   6.646   2.898
39190SOL    HW219468   3.623   6.588   3.037
39191SOL     OW19469   5.631   1.054   7.231
39191SOL    HW119470   5.693   1.056   7.304
39191SOL    HW219471   5.548   1.027   7.271
39192SOL     OW19472   9.722   4.532   5.926
39192SOL    HW119473   9.808   4.521   5.886
39192SOL    HW219474   9.660   4.500   5.860
39193SOL     OW19475   3.379   2.819   4.533
39193SOL    HW119476   3.334   2.803   4.616
39193SOL    HW219477   3.379   2.734   4.489
39194SOL     OW19478   9.525   1.842   0.102
39194SOL    HW119479   9.488   1.918   0.146
39194SOL    HW219480   9.617   1.842   0.128
39195SOL     OW19481  12.120   0.960   8.008
39195SOL    HW119482  12.175   0.912   7.946
39195SOL    HW219483  12.042   0.906   8.018
39196SOL     OW19484   3.329  13.620  10.327
39196SOL    HW119485   3.360  13.543  10.376
39196SOL    HW219486   3.275  13.583  10.257
39197SOL     OW19487   9.293  12.827   2.991
39197SOL    HW119488   9.198  12.831   2.975
39197SOL    HW219489   9.301  12.780   3.074
39198SOL     OW19490   3.691  11.045   8.214
39198SOL    HW119491   3.663  11.042   8.306
39198SOL    HW219492   3.694  11.138   8.193
39199SOL     OW19493   5.255   4.307  10.752
39199SOL    HW119494   5.268   4.399  10.775
39199SOL    HW219495   5.164   4.289  10.776
39200SOL     OW19496  10.894   5.481   9.539
39200SOL    HW119497  10.982   5.443   9.537
39200SOL    HW219498  10.848   5.439   9.467
39201SOL     OW19499  13.173  11.290   8.144
39201SOL    HW119500  13.160  11.352   8.217
39201SOL    HW219501  13.205  11.210   8.186
39202SOL     OW19502   8.030   6.221   7.872
39202SOL    HW119503   7.939   6.251   7.881
39202SOL    HW219504   8.078   6.298   7.843
39203SOL     OW19505  13.482   6.285   4.724
39203SOL    HW119506  13.501   6.353   4.659
39203SOL    HW219507  13.559   6.229   4.723
39204SOL     OW19508   4.494   9.268   6.036
39204SOL    HW119509   4.519   9.333   6.101
39204SOL    HW219510   4.428   9.312   5.982
39205SOL     OW19511   4.213   0.026   7.244
39205SOL    HW119512   4.223  14.801   7.249
39205SOL    HW219513   4.274   0.053   7.175
39206SOL     OW19514  12.275   1.494   5.996
39206SOL    HW119515  12.272   1.480   5.901
39206SOL    HW219516  12.308   1.411   6.031
39207SOL     OW19517   2.534  14.263   7.545
39207SOL    HW119518   2.481  14.294   7.472
39207SOL    HW219519   2.613  14.227   7.505
39208SOL     OW19520   4.124   7.495  10.583
39208SOL    HW119521   4.127   7.399  10.584
39208SOL    HW219522   4.058   7.518  10.649
39209SOL     OW19523   8.801   6.872  14.718
39209SOL    HW119524   8.767   6.915  14.796
39209SOL    HW219525   8.752   6.790  14.713
39210SOL     OW19526   3.629   0.894  12.976
39210SOL    HW119527   3.562   0.842  13.020
39210SOL    HW219528   3.604   0.894  12.884
39211SOL     OW19529   6.625  11.247   9.681
39211SOL    HW119530   6.555  11.187   9.705
39211SOL    HW219531   6.699  11.190   9.660
39212SOL     OW19532  11.854   3.226  13.423
39212SOL    HW119533  11.880   3.141  13.459
39212SOL    HW219534  11.829   3.207  13.333
39213SOL     OW19535   9.068   2.073   3.191
39213SOL    HW119536   9.025   2.008   3.136
39213SOL    HW219537   9.111   2.132   3.129
39214SOL     OW19538   1.930  14.018  13.194
39214SOL    HW119539   1.906  14.102  13.232
39214SOL    HW219540   1.873  14.009  13.117
39215SOL     OW19541   1.705   3.389   3.779
39215SOL    HW119542   1.737   3.406   3.690
39215SOL    HW219543   1.782   3.359   3.827
39216SOL     OW19544   0.301   4.913   1.297
39216SOL    HW119545   0.348   4.837   1.330
39216SOL    HW219546   0.234   4.931   1.363
39217SOL     OW19547  14.224  10.348   7.691
39217SOL    HW119548  14.223  10.261   7.731
39217SOL    HW219549  14.307  10.353   7.644
39218SOL     OW19550   8.108   4.551   0.530
39218SOL    HW119551   8.149   4.465   0.538
39218SOL    HW219552   8.175   4.606   0.491
39219SOL     OW19553   9.762   8.405   0.891
39219SOL    HW119554   9.689   8.347   0.867
39219SOL    HW219555   9.784   8.452   0.811
39220SOL     OW19556   4.809   0.904  14.838
39220SOL    HW119557   4.857   0.853  14.774
39220SOL    HW219558   4.843   0.993  14.828
39221SOL     OW19559   6.925  10.343  14.672
39221SOL    HW119560   6.836  10.326  14.704
39221SOL    HW219561   6.916  10.421  14.616
39222SOL     OW19562   4.460  11.758  12.667
39222SOL    HW119563   4.447  11.702  12.590
39222SOL    HW219564   4.396  11.828  12.656
39223SOL     OW19565  13.351   5.867   5.982
39223SOL    HW119566  13.383   5.785   6.019
39223SOL    HW219567  13.302   5.908   6.053
39224SOL     OW19568  13.642   5.269  12.921
39224SOL    HW119569  13.721   5.293  12.872
39224SOL    HW219570  13.649   5.320  13.002
39225SOL     OW19571  10.458   7.176  14.859
39225SOL    HW119572  10.514   7.103   0.017
39225SOL    HW219573  10.481   7.248   0.048
39226SOL     OW19574   9.085   5.107   3.609
39226SOL    HW119575   9.100   5.063   3.693
39226SOL    HW219576   9.107   5.199   3.627
39227SOL     OW19577  14.102   4.865   1.293
39227SOL    HW119578  14.050   4.905   1.362
39227SOL    HW219579  14.077   4.913   1.214
39228SOL     OW19580  13.348   4.795   4.994
39228SOL    HW119581  13.330   4.811   4.902
39228SOL    HW219582  13.305   4.712   5.013
39229SOL     OW19583   4.852   1.809   7.086
39229SOL    HW119584   4.916   1.853   7.031
39229SOL    HW219585   4.830   1.729   7.038
39230SOL     OW19586   1.854   8.902   6.056
39230SOL    HW119587   1.793   8.876   5.987
39230SOL    HW219588   1.798   8.938   6.126
39231SOL     OW19589   7.116  13.466   3.294
39231SOL    HW119590   7.131  13.549   3.339
39231SOL    HW219591   7.059  13.416   3.352
39232SOL     OW19592   7.420   3.606   7.311
39232SOL    HW119593   7.351   3.548   7.278
39232SOL    HW219594   7.448   3.565   7.392
39233SOL     OW19595  12.907   1.079   9.811
39233SOL    HW119596  12.979   1.138   9.787
39233SOL    HW219597  12.834   1.136   9.832
39234SOL     OW19598  12.103  13.759   9.528
39234SOL    HW119599  12.072  13.840   9.486
39234SOL    HW219600  12.070  13.765   9.617
39235SOL     OW19601   0.597  14.494   5.384
39235SOL    HW119602   0.570  14.403   5.371
39235SOL    HW219603   0.673  14.489   5.441
39236SOL     OW19604  10.475  11.452   4.930
39236SOL    HW119605  10.416  11.435   5.003
39236SOL    HW219606  10.525  11.370   4.920
39237SOL     OW19607   3.786   0.969  13.849
39237SOL    HW119608   3.743   0.981  13.765
39237SOL    HW219609   3.724   0.920  13.902
39238SOL     OW19610   7.694   0.363   6.990
39238SOL    HW119611   7.719   0.338   6.901
39238SOL    HW219612   7.684   0.458   6.986
39239SOL     OW19613  14.771   6.651   1.882
39239SOL    HW119614  14.769   6.717   1.812
39239SOL    HW219615  14.811   6.574   1.841
39240SOL     OW19616   5.128   9.128   3.446
39240SOL    HW119617   5.167   9.213   3.465
39240SOL    HW219618   5.035   9.139   3.465
39241SOL     OW19619   4.442   3.453   8.810
39241SOL    HW119620   4.502   3.395   8.858
39241SOL    HW219621   4.499   3.508   8.756
39242SOL     OW19622  13.292  11.820  14.299
39242SOL    HW119623  13.197  11.827  14.310
39242SOL    HW219624  13.327  11.895  14.346
39243SOL     OW19625   4.199   4.163   9.245
39243SOL    HW119626   4.131   4.211   9.199
39243SOL    HW219627   4.258   4.231   9.278
39244SOL     OW19628  13.431  12.789  12.964
39244SOL    HW119629  13.477  12.721  13.014
39244SOL    HW219630  13.414  12.749  12.879
39245SOL     OW19631  11.338   8.694   8.562
39245SOL    HW119632  11.425   8.691   8.603
39245SOL    HW219633  11.344   8.633   8.489
39246SOL     OW19634   2.217  10.513   6.411
39246SOL    HW119635   2.216  10.574   6.337
39246SOL    HW219636   2.267  10.438   6.380
39247SOL     OW19637   3.706  10.187   1.219
39247SOL    HW119638   3.675  10.181   1.309
39247SOL    HW219639   3.627  10.190   1.166
39248SOL     OW19640  10.617  12.410  10.932
39248SOL    HW119641  10.555  12.450  10.992
39248SOL    HW219642  10.702  12.443  10.959
39249SOL     OW19643  11.965   9.207   9.725
39249SOL    HW119644  11.967   9.301   9.738
39249SOL    HW219645  12.053   9.177   9.749
39250SOL     OW19646  13.292   3.586   1.878
39250SOL    HW119647  13.302   3.507   1.825
39250SOL    HW219648  13.344   3.652   1.834
39251SOL     OW19649   3.370   7.434   7.131
39251SOL    HW119650   3.465   7.446   7.130
39251SOL    HW219651   3.346   7.435   7.224
39252SOL     OW19652  13.815  13.349  11.738
39252SOL    HW119653  13.818  13.327  11.645
39252SOL    HW219654  13.885  13.296  11.777
39253SOL     OW19655  10.781  10.055  11.622
39253SOL    HW119656  10.860  10.005  11.605
39253SOL    HW219657  10.753  10.086  11.535
39254SOL     OW19658   5.137   1.676   7.671
39254SOL    HW119659   5.048   1.709   7.681
39254SOL    HW219660   5.186   1.714   7.743
39255SOL     OW19661  13.491   2.064   3.465
39255SOL    HW119662  13.574   2.017   3.463
39255SOL    HW219663  13.481   2.092   3.556
39256SOL     OW19664   3.512   5.263   8.877
39256SOL    HW119665   3.535   5.216   8.957
39256SOL    HW219666   3.596   5.286   8.837
39257SOL     OW19667  12.296   2.119  12.876
39257SOL    HW119668  12.331   2.141  12.790
39257SOL    HW219669  12.352   2.167  12.937
39258SOL     OW19670   2.021   8.990  13.641
39258SOL    HW119671   2.067   8.941  13.710
39258SOL    HW219672   1.944   9.025  13.684
39259SOL     OW19673   3.156  14.057   5.499
39259SOL    HW119674   3.126  14.021   5.415
39259SOL    HW219675   3.243  14.093   5.479
39260SOL     OW19676   7.198   9.303   3.936
39260SOL    HW119677   7.276   9.266   3.894
39260SOL    HW219678   7.201   9.271   4.025
39261SOL     OW19679  14.223   8.947   5.583
39261SOL    HW119680  14.230   8.943   5.679
39261SOL    HW219681  14.175   9.028   5.566
39262SOL     OW19682   8.817   5.497   2.147
39262SOL    HW119683   8.912   5.482   2.147
39262SOL    HW219684   8.795   5.506   2.054
39263SOL     OW19685   0.754   5.681  12.789
39263SOL    HW119686   0.758   5.606  12.849
39263SOL    HW219687   0.661   5.701  12.781
39264SOL     OW19688  14.058   4.687   7.493
39264SOL    HW119689  14.043   4.781   7.483
39264SOL    HW219690  13.984   4.657   7.545
39265SOL     OW19691  14.351   6.260   2.137
39265SOL    HW119692  14.384   6.175   2.164
39265SOL    HW219693  14.427   6.318   2.144
39266SOL     OW19694   5.195  11.069   7.899
39266SOL    HW119695   5.181  11.134   7.968
39266SOL    HW219696   5.289  11.075   7.879
39267SOL     OW19697   5.716   5.049   9.628
39267SOL    HW119698   5.681   5.057   9.717
39267SOL    HW219699   5.650   4.997   9.582
39268SOL     OW19700   3.467  10.515   9.336
39268SOL    HW119701   3.414  10.471   9.402
39268SOL    HW219702   3.556  10.510   9.368
39269SOL     OW19703   6.320  14.045   0.270
39269SOL    HW119704   6.348  14.119   0.217
39269SOL    HW219705   6.401  14.003   0.297
39270SOL     OW19706   5.561  10.031   7.102
39270SOL    HW119707   5.503  10.011   7.029
39270SOL    HW219708   5.556   9.954   7.159
39271SOL     OW19709  11.883   2.119   1.068
39271SOL    HW119710  11.818   2.128   1.137
39271SOL    HW219711  11.957   2.173   1.097
39272SOL     OW19712  12.228   2.885  13.685
39272SOL    HW119713  12.288   2.901  13.612
39272SOL    HW219714  12.180   2.967  13.695
39273SOL     OW19715   3.545  13.745   9.783
39273SOL    HW119716   3.487  13.733   9.707
39273SOL    HW219717   3.488  13.778   9.852
39274SOL     OW19718   2.192   0.425   9.253
39274SOL    HW119719   2.169   0.402   9.343
39274SOL    HW219720   2.195   0.341   9.207
39275SOL     OW19721   8.416   8.218  10.399
39275SOL    HW119722   8.487   8.178  10.451
39275SOL    HW219723   8.457   8.295  10.360
39276SOL     OW19724  11.837  10.716   2.030
39276SOL    HW119725  11.787  10.701   1.950
39276SOL    HW219726  11.798  10.657   2.094
39277SOL     OW19727  13.608   9.302   6.302
39277SOL    HW119728  13.637   9.273   6.215
39277SOL    HW219729  13.651   9.241   6.362
39278SOL     OW19730   1.279   9.664  14.731
39278SOL    HW119731   1.276   9.749  14.688
39278SOL    HW219732   1.234   9.605  14.671
39279SOL     OW19733   5.442   8.882   3.280
39279SOL    HW119734   5.514   8.819   3.277
39279SOL    HW219735   5.384   8.857   3.208
39280SOL     OW19736  12.681   1.682   1.449
39280SOL    HW119737  12.770   1.649   1.459
39280SOL    HW219738  12.675   1.707   1.357
39281SOL     OW19739   0.167   5.160   5.322
39281SOL    HW119740   0.190   5.089   5.263
39281SOL    HW219741   0.226   5.150   5.396
39282SOL     OW19742   0.318   9.614  14.551
39282SOL    HW119743   0.382   9.553  14.516
39282SOL    HW219744   0.323   9.691  14.495
39283SOL     OW19745   2.048  12.152   8.583
39283SOL    HW119746   2.071  12.241   8.556
39283SOL    HW219747   1.985  12.122   8.518
39284SOL     OW19748   3.331   0.703   3.731
39284SOL    HW119749   3.260   0.660   3.684
39284SOL    HW219750   3.410   0.683   3.680
39285SOL     OW19751  10.575  12.435   9.330
39285SOL    HW119752  10.524  12.355   9.321
39285SOL    HW219753  10.553  12.469   9.416
39286SOL     OW19754   7.983   4.639   0.072
39286SOL    HW119755   7.948   4.705   0.131
39286SOL    HW219756   8.048   4.685   0.018
39287SOL     OW19757   8.403   2.467   0.034
39287SOL    HW119758   8.370   2.379   0.014
39287SOL    HW219759   8.474   2.453   0.097
39288SOL     OW19760   6.095   6.415  10.796
39288SOL    HW119761   6.173   6.367  10.769
39288SOL    HW219762   6.063   6.455  10.715
39289SOL     OW19763   7.092   8.763  10.114
39289SOL    HW119764   7.068   8.795  10.201
39289SOL    HW219765   7.154   8.692  10.131
39290SOL     OW19766   8.458   4.081   4.506
39290SOL    HW119767   8.552   4.093   4.495
39290SOL    HW219768   8.444   3.987   4.494
39291SOL     OW19769  13.427  10.241  13.733
39291SOL    HW119770  13.484  10.174  13.695
39291SOL    HW219771  13.394  10.290  13.657
39292SOL     OW19772  10.812   1.492  10.791
39292SOL    HW119773  10.901   1.507  10.821
39292SOL    HW219774  10.819   1.421  10.727
39293SOL     OW19775  12.047  10.001  10.014
39293SOL    HW119776  12.124   9.999   9.957
39293SOL    HW219777  12.080   9.970  10.099
39294SOL     OW19778  12.653  12.206  12.798
39294SOL    HW119779  12.629  12.221  12.889
39294SOL    HW219780  12.630  12.288  12.753
39295SOL     OW19781   6.332   3.292  11.217
39295SOL    HW119782   6.272   3.328  11.283
39295SOL    HW219783   6.395   3.361  11.201
39296SOL     OW19784  13.082   9.921   9.545
39296SOL    HW119785  13.165   9.875   9.530
39296SOL    HW219786  13.075   9.981   9.471
39297SOL     OW19787   9.514  12.961   9.202
39297SOL    HW119788   9.537  12.878   9.245
39297SOL    HW219789   9.594  13.013   9.208
39298SOL     OW19790   6.410  14.491   1.892
39298SOL    HW119791   6.487  14.484   1.836
39298SOL    HW219792   6.337  14.502   1.830
39299SOL     OW19793  13.864   8.069   1.689
39299SOL    HW119794  13.843   8.024   1.771
39299SOL    HW219795  13.814   8.022   1.623
39300SOL     OW19796  14.405   5.721   4.645
39300SOL    HW119797  14.498   5.734   4.666
39300SOL    HW219798  14.393   5.627   4.648
39301SOL     OW19799   4.756   9.363   6.210
39301SOL    HW119800   4.804   9.438   6.174
39301SOL    HW219801   4.812   9.287   6.190
39302SOL     OW19802   3.682  10.308   3.451
39302SOL    HW119803   3.727  10.364   3.513
39302SOL    HW219804   3.668  10.226   3.498
39303SOL     OW19805  13.057  13.189   7.215
39303SOL    HW119806  12.993  13.209   7.284
39303SOL    HW219807  13.113  13.266   7.213
39304SOL     OW19808  14.397   8.985   5.864
39304SOL    HW119809  14.460   8.942   5.922
39304SOL    HW219810  14.313   8.946   5.887
39305SOL     OW19811   7.405  10.041   6.194
39305SOL    HW119812   7.385  10.135   6.195
39305SOL    HW219813   7.365  10.007   6.274
39306SOL     OW19814  11.411   3.865  12.530
39306SOL    HW119815  11.318   3.873  12.510
39306SOL    HW219816  11.420   3.778  12.570
39307SOL     OW19817  10.234  10.626   6.371
39307SOL    HW119818  10.197  10.573   6.301
39307SOL    HW219819  10.286  10.564   6.423
39308SOL     OW19820   7.643   5.763  10.265
39308SOL    HW119821   7.696   5.839  10.289
39308SOL    HW219822   7.692   5.688  10.300
39309SOL     OW19823   4.876  11.233  12.557
39309SOL    HW119824   4.952  11.280  12.522
39309SOL    HW219825   4.816  11.302  12.587
39310SOL     OW19826  10.045   5.863   8.721
39310SOL    HW119827   9.981   5.909   8.667
39310SOL    HW219828  10.128   5.877   8.676
39311SOL     OW19829   9.086   2.195   8.573
39311SOL    HW119830   9.137   2.245   8.509
39311SOL    HW219831   9.051   2.261   8.632
39312SOL     OW19832   2.499   3.094   9.003
39312SOL    HW119833   2.455   3.033   8.944
39312SOL    HW219834   2.475   3.064   9.091
39313SOL     OW19835  13.464   2.366   8.923
39313SOL    HW119836  13.550   2.396   8.895
39313SOL    HW219837  13.478   2.333   9.012
39314SOL     OW19838   4.918   7.608   6.883
39314SOL    HW119839   4.952   7.622   6.794
39314SOL    HW219840   4.915   7.696   6.921
39315SOL     OW19841  10.779   6.056  11.925
39315SOL    HW119842  10.762   5.993  11.995
39315SOL    HW219843  10.770   6.142  11.968
39316SOL     OW19844  14.358   3.208   2.948
39316SOL    HW119845  14.383   3.292   2.910
39316SOL    HW219846  14.318   3.230   3.032
39317SOL     OW19847   5.843   3.298   8.942
39317SOL    HW119848   5.792   3.248   9.006
39317SOL    HW219849   5.933   3.266   8.953
39318SOL     OW19850  13.075   1.425   4.731
39318SOL    HW119851  12.992   1.426   4.684
39318SOL    HW219852  13.064   1.491   4.800
39319SOL     OW19853   1.240   8.969   4.593
39319SOL    HW119854   1.233   9.058   4.560
39319SOL    HW219855   1.332   8.958   4.614
39320SOL     OW19856   4.658  10.759   7.816
39320SOL    HW119857   4.668  10.854   7.815
39320SOL    HW219858   4.739  10.726   7.777
39321SOL     OW19859   4.259  12.428  10.115
39321SOL    HW119860   4.173  12.407  10.151
39321SOL    HW219861   4.267  12.374  10.037
39322SOL     OW19862   1.805   6.818   3.760
39322SOL    HW119863   1.865   6.869   3.815
39322SOL    HW219864   1.797   6.868   3.679
39323SOL     OW19865  14.682   0.284   0.115
39323SOL    HW119866  14.654   0.273   0.024
39323SOL    HW219867  14.614   0.241   0.166
39324SOL     OW19868  13.331  12.062   1.372
39324SOL    HW119869  13.300  12.148   1.400
39324SOL    HW219870  13.276  12.040   1.297
39325SOL     OW19871   9.052   4.436  10.971
39325SOL    HW119872   8.959   4.426  10.988
39325SOL    HW219873   9.086   4.347  10.970
39326SOL     OW19874  14.276   9.585  12.554
39326SOL    HW119875  14.185   9.609  12.535
39326SOL    HW219876  14.283   9.594  12.649
39327SOL     OW19877   8.753  12.170   7.484
39327SOL    HW119878   8.838  12.151   7.444
39327SOL    HW219879   8.768  12.249   7.536
39328SOL     OW19880  10.511   1.258   0.186
39328SOL    HW119881  10.547   1.172   0.207
39328SOL    HW219882  10.419   1.242   0.167
39329SOL     OW19883  10.312  11.730   0.432
39329SOL    HW119884  10.227  11.776   0.437
39329SOL    HW219885  10.359  11.775   0.362
39330SOL     OW19886  13.336   0.723  14.274
39330SOL    HW119887  13.391   0.649  14.301
39330SOL    HW219888  13.252   0.707  14.317
39331SOL     OW19889   5.552   6.219  11.440
39331SOL    HW119890   5.516   6.302  11.471
39331SOL    HW219891   5.512   6.206  11.354
39332SOL     OW19892  10.399   3.760  13.111
39332SOL    HW119893  10.304   3.747  13.107
39332SOL    HW219894  10.425   3.718  13.193
39333SOL     OW19895   6.665   1.717  11.895
39333SOL    HW119896   6.633   1.734  11.984
39333SOL    HW219897   6.724   1.789  11.875
39334SOL     OW19898   2.062  11.857  14.171
39334SOL    HW119899   2.020  11.773  14.157
39334SOL    HW219900   2.034  11.911  14.097
39335SOL     OW19901  11.524   6.774   3.713
39335SOL    HW119902  11.581   6.763   3.636
39335SOL    HW219903  11.584   6.768   3.787
39336SOL     OW19904   8.264   2.876   2.426
39336SOL    HW119905   8.220   2.792   2.439
39336SOL    HW219906   8.316   2.888   2.505
39337SOL     OW19907   4.530   7.736  12.224
39337SOL    HW119908   4.442   7.740  12.185
39337SOL    HW219909   4.535   7.649  12.264
39338SOL     OW19910   6.326  14.271   5.391
39338SOL    HW119911   6.346  14.178   5.393
39338SOL    HW219912   6.390  14.308   5.331
39339SOL     OW19913  11.096   0.871  11.604
39339SOL    HW119914  11.118   0.891  11.512
39339SOL    HW219915  11.144   0.937  11.654
39340SOL     OW19916   3.183   1.494   1.432
39340SOL    HW119917   3.123   1.547   1.379
39340SOL    HW219918   3.255   1.554   1.454
39341SOL     OW19919   6.866  13.743   3.228
39341SOL    HW119920   6.869  13.681   3.301
39341SOL    HW219921   6.948  13.793   3.236
39342SOL     OW19922   5.004   1.942   9.899
39342SOL    HW119923   4.967   1.925   9.812
39342SOL    HW219924   5.016   2.037   9.902
39343SOL     OW19925   0.105   2.636  11.779
39343SOL    HW119926   0.083   2.657  11.688
39343SOL    HW219927   0.195   2.604  11.775
39344SOL     OW19928  12.331   0.591   3.577
39344SOL    HW119929  12.370   0.588   3.665
39344SOL    HW219930  12.294   0.504   3.564
39345SOL     OW19931   4.011  13.511  11.882
39345SOL    HW119932   4.096  13.552  11.894
39345SOL    HW219933   4.029  13.428  11.838
39346SOL     OW19934   1.027   6.988   3.882
39346SOL    HW119935   0.932   6.983   3.886
39346SOL    HW219936   1.047   6.989   3.789
39347SOL     OW19937   6.478  11.882  11.835
39347SOL    HW119938   6.564  11.918  11.854
39347SOL    HW219939   6.490  11.829  11.757
39348SOL     OW19940   4.971   6.689   1.212
39348SOL    HW119941   4.894   6.646   1.176
39348SOL    HW219942   5.023   6.713   1.135
39349SOL     OW19943  13.875   9.334  12.263
39349SOL    HW119944  13.868   9.250  12.220
39349SOL    HW219945  13.941   9.382  12.213
39350SOL     OW19946  14.360   0.973   9.714
39350SOL    HW119947  14.438   1.023   9.736
39350SOL    HW219948  14.288   1.035   9.724
39351SOL     OW19949   6.521   3.742  12.151
39351SOL    HW119950   6.445   3.795  12.128
39351SOL    HW219951   6.577   3.800  12.203
39352SOL     OW19952   9.088   2.101  13.437
39352SOL    HW119953   9.153   2.066  13.499
39352SOL    HW219954   9.140   2.152  13.375
39353SOL     OW19955  10.731   7.407  13.996
39353SOL    HW119956  10.759   7.414  14.088
39353SOL    HW219957  10.798   7.455  13.948
39354SOL     OW19958   0.308   4.859   7.123
39354SOL    HW119959   0.251   4.862   7.200
39354SOL    HW219960   0.296   4.944   7.081
39355SOL     OW19961   4.654   3.889   2.640
39355SOL    HW119962   4.610   3.950   2.700
39355SOL    HW219963   4.742   3.879   2.677
39356SOL     OW19964   7.181   9.691   9.840
39356SOL    HW119965   7.144   9.658   9.758
39356SOL    HW219966   7.105   9.699   9.898
39357SOL     OW19967   1.720   7.726  11.336
39357SOL    HW119968   1.740   7.683  11.419
39357SOL    HW219969   1.650   7.673  11.297
39358SOL     OW19970  12.440   7.194  12.061
39358SOL    HW119971  12.442   7.220  12.152
39358SOL    HW219972  12.526   7.220  12.027
39359SOL     OW19973   7.018   1.096   6.537
39359SOL    HW119974   7.113   1.087   6.540
39359SOL    HW219975   6.993   1.117   6.626
39360SOL     OW19976   2.113   6.643   3.067
39360SOL    HW119977   2.076   6.573   3.121
39360SOL    HW219978   2.192   6.604   3.028
39361SOL     OW19979   7.939   2.074   2.335
39361SOL    HW119980   8.004   2.119   2.390
39361SOL    HW219981   7.917   1.995   2.384
39362SOL     OW19982   1.037   0.843  12.790
39362SOL    HW119983   1.017   0.820  12.699
39362SOL    HW219984   1.063   0.935  12.785
39363SOL     OW19985  12.819   0.836   6.130
39363SOL    HW119986  12.772   0.825   6.213
39363SOL    HW219987  12.832   0.930   6.122
39364SOL     OW19988   2.538   3.588  14.184
39364SOL    HW119989   2.501   3.526  14.121
39364SOL    HW219990   2.502   3.673  14.157
39365SOL     OW19991   4.636   4.040   3.089
39365SOL    HW119992   4.560   4.068   3.139
39365SOL    HW219993   4.709   4.088   3.127
39366SOL     OW19994  13.436  10.516   0.149
39366SOL    HW119995  13.431  10.531   0.243
39366SOL    HW219996  13.526  10.539   0.126
39367SOL     OW19997   8.512  12.295   1.193
39367SOL    HW119998   8.468  12.368   1.238
39367SOL    HW219999   8.445  12.227   1.186
39368SOL     OW20000   8.588  11.990  12.317
39368SOL    HW120001   8.501  11.957  12.298
39368SOL    HW220002   8.611  11.951  12.401
39369SOL     OW20003   4.143   3.059  14.386
39369SOL    HW120004   4.127   3.073  14.292
39369SOL    HW220005   4.151   3.147  14.422
39370SOL     OW20006   7.125   3.635   8.549
39370SOL    HW120007   7.125   3.589   8.633
39370SOL    HW220008   7.218   3.640   8.525
39371SOL     OW20009   9.743   6.308   3.368
39371SOL    HW120010   9.650   6.329   3.360
39371SOL    HW220011   9.766   6.270   3.283
39372SOL     OW20012   7.925   7.807   0.010
39372SOL    HW120013   7.987   7.860   0.060
39372SOL    HW220014   7.974   7.780  14.802
39373SOL     OW20015   9.833   2.394   5.857
39373SOL    HW120016   9.850   2.403   5.763
39373SOL    HW220017   9.836   2.299   5.873
39374SOL     OW20018   1.799   0.871   1.835
39374SOL    HW120019   1.710   0.902   1.818
39374SOL    HW220020   1.839   0.942   1.885
39375SOL     OW20021   1.520  14.149  13.144
39375SOL    HW120022   1.576  14.112  13.212
39375SOL    HW220023   1.537  14.243  13.147
39376SOL     OW20024   4.728   3.830   5.335
39376SOL    HW120025   4.644   3.840   5.379
39376SOL    HW220026   4.738   3.910   5.284
39377SOL     OW20027   6.334   8.386   4.971
39377SOL    HW120028   6.422   8.423   4.968
39377SOL    HW220029   6.317   8.372   5.064
39378SOL     OW20030  11.176   3.071  13.767
39378SOL    HW120031  11.100   3.113  13.727
39378SOL    HW220032  11.250   3.098  13.713
39379SOL     OW20033  12.795  11.565   6.790
39379SOL    HW120034  12.829  11.544   6.877
39379SOL    HW220035  12.872  11.572   6.735
39380SOL     OW20036   6.898   4.400   2.087
39380SOL    HW120037   6.957   4.473   2.106
39380SOL    HW220038   6.821   4.416   2.141
39381SOL     OW20039   4.144   4.777   7.723
39381SOL    HW120040   4.075   4.757   7.786
39381SOL    HW220041   4.098   4.789   7.639
39382SOL     OW20042  13.944  13.733  13.965
39382SOL    HW120043  13.977  13.740  13.875
39382SOL    HW220044  13.898  13.649  13.967
39383SOL     OW20045   1.458  13.161   1.185
39383SOL    HW120046   1.434  13.175   1.276
39383SOL    HW220047   1.546  13.197   1.177
39384SOL     OW20048  12.249   6.643  10.689
39384SOL    HW120049  12.155   6.658  10.698
39384SOL    HW220050  12.275   6.598  10.769
39385SOL     OW20051  12.528   9.072   4.836
39385SOL    HW120052  12.483   9.136   4.891
39385SOL    HW220053  12.602   9.119   4.798
39386SOL     OW20054  13.062   5.968   2.324
39386SOL    HW120055  13.030   5.993   2.237
39386SOL    HW220056  13.156   5.955   2.313
39387SOL     OW20057   4.597   8.646   0.336
39387SOL    HW120058   4.656   8.587   0.383
39387SOL    HW220059   4.522   8.655   0.394
39388SOL     OW20060  13.317   3.701   5.425
39388SOL    HW120061  13.408   3.728   5.419
39388SOL    HW220062  13.310   3.625   5.366
39389SOL     OW20063   4.994  14.746  10.829
39389SOL    HW120064   5.034  14.743  10.742
39389SOL    HW220065   4.976  14.655  10.851
39390SOL     OW20066   4.932   2.171  12.652
39390SOL    HW120067   5.024   2.157  12.627
39390SOL    HW220068   4.884   2.101  12.608
39391SOL     OW20069   5.977   6.143  13.838
39391SOL    HW120070   6.067   6.175  13.826
39391SOL    HW220071   5.928   6.180  13.765
39392SOL     OW20072  11.603   7.799   8.126
39392SOL    HW120073  11.687   7.842   8.115
39392SOL    HW220074  11.603   7.728   8.062
39393SOL     OW20075   0.182  11.792   9.873
39393SOL    HW120076   0.190  11.846   9.952
39393SOL    HW220077   0.265  11.806   9.827
39394SOL     OW20078   2.586  13.685   0.785
39394SOL    HW120079   2.653  13.710   0.721
39394SOL    HW220080   2.566  13.767   0.831
39395SOL     OW20081   7.632   5.297   8.047
39395SOL    HW120082   7.658   5.345   7.968
39395SOL    HW220083   7.544   5.266   8.029
39396SOL     OW20084   6.151   1.755   0.118
39396SOL    HW120085   6.212   1.822   0.090
39396SOL    HW220086   6.067   1.781   0.080
39397SOL     OW20087  12.494   3.095  13.386
39397SOL    HW120088  12.576   3.086  13.434
39397SOL    HW220089  12.501   3.033  13.314
39398SOL     OW20090   9.859   4.260  10.753
39398SOL    HW120091   9.943   4.251  10.798
39398SOL    HW220092   9.854   4.352  10.728
39399SOL     OW20093  13.082  12.655   8.796
39399SOL    HW120094  13.073  12.742   8.834
39399SOL    HW220095  13.175  12.633   8.808
39400SOL     OW20096   5.917   2.762   3.958
39400SOL    HW120097   5.947   2.824   4.024
39400SOL    HW220098   5.953   2.678   3.986
39401SOL     OW20099   1.710   4.596  14.809
39401SOL    HW120100   1.748   4.551   0.014
39401SOL    HW220101   1.771   4.580  14.737
39402SOL     OW20102   2.152   7.505   7.866
39402SOL    HW120103   2.189   7.536   7.783
39402SOL    HW220104   2.084   7.442   7.839
39403SOL     OW20105   7.314   1.472  12.583
39403SOL    HW120106   7.398   1.437  12.611
39403SOL    HW220107   7.272   1.400  12.537
39404SOL     OW20108   8.807   3.081   8.495
39404SOL    HW120109   8.772   3.170   8.496
39404SOL    HW220110   8.741   3.029   8.541
39405SOL     OW20111   1.192  14.246  10.613
39405SOL    HW120112   1.277  14.254  10.569
39405SOL    HW220113   1.214  14.235  10.705
39406SOL     OW20114   5.048   1.897   2.518
39406SOL    HW120115   5.136   1.923   2.546
39406SOL    HW220116   5.063   1.827   2.455
39407SOL     OW20117   3.524   6.564  13.017
39407SOL    HW120118   3.596   6.628  13.017
39407SOL    HW220119   3.445   6.618  13.005
39408SOL     OW20120   1.907  12.449   4.947
39408SOL    HW120121   1.975  12.515   4.960
39408SOL    HW220122   1.868  12.436   5.033
39409SOL     OW20123   5.146   3.545   3.475
39409SOL    HW120124   5.126   3.596   3.554
39409SOL    HW220125   5.182   3.608   3.413
39410SOL     OW20126   1.487  10.846   6.274
39410SOL    HW120127   1.415  10.821   6.332
39410SOL    HW220128   1.545  10.769   6.274
39411SOL     OW20129  12.209   9.127  12.400
39411SOL    HW120130  12.229   9.057  12.338
39411SOL    HW220131  12.114   9.123  12.411
39412SOL     OW20132   1.538   4.590   1.036
39412SOL    HW120133   1.558   4.653   1.105
39412SOL    HW220134   1.566   4.634   0.955
39413SOL     OW20135   8.610   5.454   9.037
39413SOL    HW120136   8.536   5.409   8.998
39413SOL    HW220137   8.587   5.463   9.129
39414SOL     OW20138   4.745   0.442   7.680
39414SOL    HW120139   4.673   0.436   7.617
39414SOL    HW220140   4.755   0.536   7.695
39415SOL     OW20141   7.898   9.405   3.334
39415SOL    HW120142   7.851   9.472   3.285
39415SOL    HW220143   7.942   9.353   3.266
39416SOL     OW20144   2.093   6.252   5.050
39416SOL    HW120145   2.152   6.177   5.048
39416SOL    HW220146   2.148   6.324   5.081
39417SOL     OW20147   1.272   8.791   8.658
39417SOL    HW120148   1.230   8.867   8.616
39417SOL    HW220149   1.249   8.800   8.751
39418SOL     OW20150   2.335   6.438   2.482
39418SOL    HW120151   2.377   6.514   2.442
39418SOL    HW220152   2.334   6.459   2.576
39419SOL     OW20153   9.942  12.557  11.313
39419SOL    HW120154   9.895  12.556  11.230
39419SOL    HW220155   9.996  12.636  11.310
39420SOL     OW20156   2.622  13.311   0.681
39420SOL    HW120157   2.678  13.234   0.671
39420SOL    HW220158   2.680  13.385   0.662
39421SOL     OW20159   7.969   8.382   5.757
39421SOL    HW120160   8.061   8.411   5.757
39421SOL    HW220161   7.947   8.374   5.850
39422SOL     OW20162   1.126   7.454  10.943
39422SOL    HW120163   1.145   7.413  11.027
39422SOL    HW220164   1.210   7.457  10.898
39423SOL     OW20165  10.826   9.682   7.787
39423SOL    HW120166  10.797   9.623   7.718
39423SOL    HW220167  10.749   9.694   7.843
39424SOL     OW20168  10.760   8.131  14.602
39424SOL    HW120169  10.764   8.081  14.683
39424SOL    HW220170  10.787   8.069  14.534
39425SOL     OW20171   2.906   3.453   0.533
39425SOL    HW120172   2.848   3.382   0.560
39425SOL    HW220173   2.946   3.423   0.452
39426SOL     OW20174   3.061   4.942   0.431
39426SOL    HW120175   3.091   5.012   0.372
39426SOL    HW220176   2.994   4.896   0.380
39427SOL     OW20177   4.721   5.417   4.260
39427SOL    HW120178   4.632   5.449   4.276
39427SOL    HW220179   4.774   5.496   4.252
39428SOL     OW20180   9.853   9.979   0.235
39428SOL    HW120181   9.851   9.904   0.294
39428SOL    HW220182   9.938   9.973   0.191
39429SOL     OW20183   5.791  11.628   2.818
39429SOL    HW120184   5.720  11.680   2.781
39429SOL    HW220185   5.860  11.632   2.752
39430SOL     OW20186  12.541   4.801   0.490
39430SOL    HW120187  12.554   4.867   0.423
39430SOL    HW220188  12.629   4.785   0.526
39431SOL     OW20189   6.907   1.517   6.400
39431SOL    HW120190   6.875   1.517   6.490
39431SOL    HW220191   6.909   1.425   6.376
39432SOL     OW20192   6.069  13.251  11.079
39432SOL    HW120193   6.108  13.288  11.158
39432SOL    HW220194   6.144  13.222  11.027
39433SOL     OW20195   2.630   5.495   6.230
39433SOL    HW120196   2.661   5.542   6.153
39433SOL    HW220197   2.625   5.562   6.298
39434SOL     OW20198   2.725   1.440   1.555
39434SOL    HW120199   2.637   1.462   1.526
39434SOL    HW220200   2.746   1.360   1.507
39435SOL     OW20201   3.648  11.103   7.720
39435SOL    HW120202   3.719  11.039   7.719
39435SOL    HW220203   3.605  11.092   7.635
39436SOL     OW20204   0.322  11.093  14.628
39436SOL    HW120205   0.238  11.137  14.628
39436SOL    HW220206   0.339  11.073  14.720
39437SOL     OW20207  13.107  14.223   3.844
39437SOL    HW120208  13.022  14.268   3.845
39437SOL    HW220209  13.163  14.279   3.791
39438SOL     OW20210   6.503  14.280   7.470
39438SOL    HW120211   6.509  14.372   7.495
39438SOL    HW220212   6.590  14.244   7.487
39439SOL     OW20213  10.354   3.489   4.576
39439SOL    HW120214  10.278   3.477   4.632
39439SOL    HW220215  10.425   3.444   4.622
39440SOL     OW20216   9.966  12.089  14.234
39440SOL    HW120217   9.927  12.171  14.202
39440SOL    HW220218  10.055  12.090  14.197
39441SOL     OW20219  12.252  10.495   3.887
39441SOL    HW120220  12.190  10.422   3.881
39441SOL    HW220221  12.294  10.484   3.972
39442SOL     OW20222  10.521   7.289   8.772
39442SOL    HW120223  10.475   7.256   8.849
39442SOL    HW220224  10.560   7.211   8.732
39443SOL     OW20225   2.118  13.866   0.548
39443SOL    HW120226   2.031  13.897   0.572
39443SOL    HW220227   2.132  13.789   0.602
39444SOL     OW20228   8.449  12.689   1.132
39444SOL    HW120229   8.405  12.646   1.059
39444SOL    HW220230   8.382  12.745   1.171
39445SOL     OW20231   2.407  10.552   8.636
39445SOL    HW120232   2.427  10.567   8.544
39445SOL    HW220233   2.490  10.528   8.676
39446SOL     OW20234   5.490   1.507   7.573
39446SOL    HW120235   5.448   1.493   7.488
39446SOL    HW220236   5.424   1.553   7.625
39447SOL     OW20237  11.810   1.266   5.233
39447SOL    HW120238  11.803   1.327   5.307
39447SOL    HW220239  11.810   1.179   5.273
39448SOL     OW20240  13.727   6.715  13.175
39448SOL    HW120241  13.815   6.713  13.138
39448SOL    HW220242  13.740   6.722  13.269
39449SOL     OW20243   7.751   8.284   4.152
39449SOL    HW120244   7.687   8.348   4.121
39449SOL    HW220245   7.748   8.293   4.248
39450SOL     OW20246   9.332   0.900  11.219
39450SOL    HW120247   9.427   0.893  11.212
39450SOL    HW220248   9.304   0.817  11.257
39451SOL     OW20249   8.823  11.476   6.670
39451SOL    HW120250   8.901  11.488   6.617
39451SOL    HW220251   8.827  11.384   6.698
39452SOL     OW20252   5.337  12.791   0.179
39452SOL    HW120253   5.310  12.881   0.198
39452SOL    HW220254   5.431  12.790   0.196
39453SOL     OW20255  11.798   6.176   2.549
39453SOL    HW120256  11.717   6.143   2.509
39453SOL    HW220257  11.867   6.125   2.507
39454SOL     OW20258  11.759   1.567   4.786
39454SOL    HW120259  11.784   1.646   4.833
39454SOL    HW220260  11.785   1.495   4.844
39455SOL     OW20261  14.289  14.118  14.389
39455SOL    HW120262  14.320  14.073  14.310
39455SOL    HW220263  14.205  14.076  14.409
39456SOL     OW20264  13.651   0.815   4.395
39456SOL    HW120265  13.724   0.822   4.335
39456SOL    HW220266  13.678   0.866   4.472
39457SOL     OW20267  14.666   0.566  13.728
39457SOL    HW120268  14.581   0.534  13.757
39457SOL    HW220269  14.719   0.572  13.807
39458SOL     OW20270   3.829  12.161   2.054
39458SOL    HW120271   3.801  12.150   1.963
39458SOL    HW220272   3.795  12.247   2.080
39459SOL     OW20273   3.821   0.774   9.435
39459SOL    HW120274   3.814   0.828   9.357
39459SOL    HW220275   3.760   0.813   9.498
39460SOL     OW20276   3.137   0.439   5.577
39460SOL    HW120277   3.218   0.400   5.543
39460SOL    HW220278   3.078   0.365   5.590
39461SOL     OW20279   3.860   6.908   3.395
39461SOL    HW120280   3.882   6.861   3.315
39461SOL    HW220281   3.834   6.996   3.366
39462SOL     OW20282   5.912  12.065   6.185
39462SOL    HW120283   5.876  12.148   6.217
39462SOL    HW220284   5.999  12.061   6.223
39463SOL     OW20285  10.395   9.286   4.848
39463SOL    HW120286  10.438   9.324   4.771
39463SOL    HW220287  10.462   9.286   4.916
39464SOL     OW20288   1.929   1.352   9.615
39464SOL    HW120289   1.851   1.398   9.645
39464SOL    HW220290   1.934   1.370   9.521
39465SOL     OW20291   1.643   6.706   4.647
39465SOL    HW120292   1.634   6.615   4.675
39465SOL    HW220293   1.733   6.730   4.669
39466SOL     OW20294   7.146   9.921  11.307
39466SOL    HW120295   7.081   9.852  11.321
39466SOL    HW220296   7.143   9.973  11.388
39467SOL     OW20297  14.861   4.637  13.155
39467SOL    HW120298   0.003   4.648  13.250
39467SOL    HW220299  14.835   4.724  13.124
39468SOL     OW20300   4.734   2.015  10.901
39468SOL    HW120301   4.679   1.940  10.924
39468SOL    HW220302   4.676   2.091  10.906
39469SOL     OW20303   2.762   7.457  11.408
39469SOL    HW120304   2.738   7.520  11.476
39469SOL    HW220305   2.767   7.509  11.328
39470SOL     OW20306   1.471  13.649   6.956
39470SOL    HW120307   1.403  13.594   6.917
39470SOL    HW220308   1.450  13.650   7.050
39471SOL     OW20309   7.444  12.725   2.137
39471SOL    HW120310   7.377  12.794   2.131
39471SOL    HW220311   7.399  12.646   2.109
39472SOL     OW20312  13.215   0.862  10.632
39472SOL    HW120313  13.176   0.780  10.603
39472SOL    HW220314  13.243   0.905  10.551
39473SOL     OW20315   5.541   3.344   5.480
39473SOL    HW120316   5.497   3.376   5.402
39473SOL    HW220317   5.617   3.401   5.491
39474SOL     OW20318  11.299   3.610   2.475
39474SOL    HW120319  11.329   3.699   2.458
39474SOL    HW220320  11.354   3.555   2.419
39475SOL     OW20321  12.297   0.276   7.639
39475SOL    HW120322  12.215   0.228   7.632
39475SOL    HW220323  12.317   0.302   7.549
39476SOL     OW20324   1.923   1.909   4.628
39476SOL    HW120325   1.989   1.859   4.676
39476SOL    HW220326   1.856   1.845   4.606
39477SOL     OW20327  10.852   8.079   9.227
39477SOL    HW120328  10.831   8.170   9.206
39477SOL    HW220329  10.933   8.062   9.181
39478SOL     OW20330   8.450   3.993   8.770
39478SOL    HW120331   8.425   4.084   8.787
39478SOL    HW220332   8.386   3.941   8.820
39479SOL     OW20333   2.668   0.891  13.628
39479SOL    HW120334   2.629   0.877  13.715
39479SOL    HW220335   2.622   0.967  13.594
39480SOL     OW20336   4.546   1.237  12.170
39480SOL    HW120337   4.554   1.310  12.108
39480SOL    HW220338   4.636   1.207  12.184
39481SOL     OW20339  11.545  11.156   6.746
39481SOL    HW120340  11.590  11.119   6.671
39481SOL    HW220341  11.599  11.230   6.773
39482SOL     OW20342  13.733  14.741   4.380
39482SOL    HW120343  13.710  14.673   4.317
39482SOL    HW220344  13.786  14.696   4.445
39483SOL     OW20345  13.493  10.872  13.144
39483SOL    HW120346  13.582  10.878  13.179
39483SOL    HW220347  13.436  10.883  13.220
39484SOL     OW20348   0.199  12.954  13.013
39484SOL    HW120349   0.266  12.918  12.954
39484SOL    HW220350   0.189  13.045  12.986
39485SOL     OW20351  11.106   3.801   6.112
39485SOL    HW120352  11.070   3.859   6.045
39485SOL    HW220353  11.190   3.840   6.136
39486SOL     OW20354   6.957  10.216   6.334
39486SOL    HW120355   6.928  10.130   6.366
39486SOL    HW220356   6.875  10.259   6.307
39487SOL     OW20357   8.652   9.160   0.719
39487SOL    HW120358   8.747   9.175   0.717
39487SOL    HW220359   8.621   9.196   0.637
39488SOL     OW20360   0.778  13.293   1.175
39488SOL    HW120361   0.730  13.229   1.122
39488SOL    HW220362   0.866  13.295   1.136
39489SOL     OW20363   3.212   4.437  13.012
39489SOL    HW120364   3.168   4.383  12.947
39489SOL    HW220365   3.247   4.375  13.076
39490SOL     OW20366  14.164  11.257   5.184
39490SOL    HW120367  14.247  11.239   5.227
39490SOL    HW220368  14.163  11.352   5.173
39491SOL     OW20369   6.076  11.311   5.121
39491SOL    HW120370   6.090  11.311   5.026
39491SOL    HW220371   6.073  11.219   5.145
39492SOL     OW20372   9.272   9.480   7.556
39492SOL    HW120373   9.197   9.455   7.503
39492SOL    HW220374   9.235   9.505   7.641
39493SOL     OW20375   8.009  14.121   7.531
39493SOL    HW120376   8.065  14.179   7.480
39493SOL    HW220377   7.928  14.115   7.481
39494SOL     OW20378   9.186   4.679   6.858
39494SOL    HW120379   9.129   4.626   6.802
39494SOL    HW220380   9.245   4.723   6.798
39495SOL     OW20381   2.065  13.196  10.227
39495SOL    HW120382   1.998  13.220  10.164
39495SOL    HW220383   2.020  13.137  10.288
39496SOL     OW20384  12.986   9.610  14.239
39496SOL    HW120385  12.970   9.550  14.166
39496SOL    HW220386  13.078   9.633  14.232
39497SOL     OW20387   4.890   4.400   7.618
39497SOL    HW120388   4.799   4.428   7.611
39497SOL    HW220389   4.918   4.429   7.704
39498SOL     OW20390   4.947  14.256  10.774
39498SOL    HW120391   5.029  14.289  10.737
39498SOL    HW220392   4.889  14.245  10.698
39499SOL     OW20393  12.433   6.788  11.672
39499SOL    HW120394  12.510   6.817  11.721
39499SOL    HW220395  12.366   6.774  11.738
39500SOL     OW20396   3.646   5.223   0.691
39500SOL    HW120397   3.693   5.152   0.735
39500SOL    HW220398   3.557   5.189   0.680
39501SOL     OW20399  12.277   0.425   5.167
39501SOL    HW120400  12.357   0.374   5.181
39501SOL    HW220401  12.206   0.361   5.174
39502SOL     OW20402   2.702   8.711   6.268
39502SOL    HW120403   2.758   8.669   6.334
39502SOL    HW220404   2.656   8.780   6.316
39503SOL     OW20405   1.834   1.016  12.355
39503SOL    HW120406   1.883   0.940  12.324
39503SOL    HW220407   1.763   0.979  12.408
39504SOL     OW20408  10.136  14.722   6.592
39504SOL    HW120409  10.154  14.785   6.662
39504SOL    HW220410  10.223  14.691   6.565
39505SOL     OW20411   0.131   3.187   6.100
39505SOL    HW120412   0.091   3.209   6.184
39505SOL    HW220413   0.086   3.107   6.073
39506SOL     OW20414   4.948   1.077   2.213
39506SOL    HW120415   4.950   1.162   2.171
39506SOL    HW220416   4.924   1.016   2.144
39507SOL     OW20417   2.384   7.974  13.788
39507SOL    HW120418   2.403   8.067  13.774
39507SOL    HW220419   2.469   7.934  13.804
39508SOL     OW20420   2.667   0.920  14.238
39508SOL    HW120421   2.690   0.879  14.155
39508SOL    HW220422   2.604   0.861  14.278
39509SOL     OW20423   2.722  12.365   6.323
39509SOL    HW120424   2.757  12.452   6.343
39509SOL    HW220425   2.724  12.319   6.407
39510SOL     OW20426   6.350  14.795  10.034
39510SOL    HW120427   6.388  14.709  10.051
39510SOL    HW220428   6.402  14.830   9.962
39511SOL     OW20429   1.627   0.913  14.331
39511SOL    HW120430   1.641   0.866  14.248
39511SOL    HW220431   1.683   0.868  14.394
39512SOL     OW20432  10.511   1.149   6.773
39512SOL    HW120433  10.453   1.073   6.776
39512SOL    HW220434  10.575   1.127   6.705
39513SOL     OW20435   3.894   9.425  12.716
39513SOL    HW120436   3.977   9.426  12.667
39513SOL    HW220437   3.904   9.493  12.782
39514SOL     OW20438   9.089   4.980   8.272
39514SOL    HW120439   9.177   5.009   8.295
39514SOL    HW220440   9.076   5.010   8.182
39515SOL     OW20441   9.192   3.998   5.720
39515SOL    HW120442   9.173   4.039   5.804
39515SOL    HW220443   9.128   3.928   5.712
39516SOL     OW20444   7.617   5.251   2.539
39516SOL    HW120445   7.655   5.170   2.505
39516SOL    HW220446   7.525   5.247   2.514
39517SOL     OW20447  13.410  10.485   0.417
39517SOL    HW120448  13.337  10.543   0.435
39517SOL    HW220449  13.375  10.397   0.431
39518SOL     OW20450   9.425   6.811   1.487
39518SOL    HW120451   9.355   6.876   1.490
39518SOL    HW220452   9.481   6.833   1.562
39519SOL     OW20453   3.924  10.709   6.020
39519SOL    HW120454   3.843  10.725   6.069
39519SOL    HW220455   3.925  10.614   6.005
39520SOL     OW20456  12.039   7.324  12.642
39520SOL    HW120457  12.015   7.372  12.563
39520SOL    HW220458  12.123   7.283  12.620
39521SOL     OW20459   4.518   2.558  10.491
39521SOL    HW120460   4.459   2.603  10.430
39521SOL    HW220461   4.590   2.619  10.505
39522SOL     OW20462   5.727   3.240   2.565
39522SOL    HW120463   5.783   3.232   2.488
39522SOL    HW220464   5.655   3.296   2.536
39523SOL     OW20465   0.104   8.375  10.561
39523SOL    HW120466   0.077   8.413  10.644
39523SOL    HW220467   0.084   8.442  10.496
39524SOL     OW20468   0.473   1.245   9.434
39524SOL    HW120469   0.513   1.222   9.518
39524SOL    HW220470   0.470   1.163   9.385
39525SOL     OW20471   7.534  14.076  10.332
39525SOL    HW120472   7.578  14.098  10.414
39525SOL    HW220473   7.530  14.158  10.283
39526SOL     OW20474   0.250   6.608   5.204
39526SOL    HW120475   0.326   6.559   5.235
39526SOL    HW220476   0.175   6.551   5.225
39527SOL     OW20477   0.228   9.351   1.375
39527SOL    HW120478   0.172   9.417   1.335
39527SOL    HW220479   0.288   9.326   1.305
39528SOL     OW20480   9.531  14.681   1.021
39528SOL    HW120481   9.546  14.590   1.048
39528SOL    HW220482   9.440  14.683   0.991
39529SOL     OW20483   1.285   2.786   0.461
39529SOL    HW120484   1.265   2.719   0.526
39529SOL    HW220485   1.277   2.869   0.508
39530SOL     OW20486  13.949  11.119   5.122
39530SOL    HW120487  13.957  11.041   5.177
39530SOL    HW220488  14.019  11.177   5.152
39531SOL     OW20489  14.335   1.244   0.725
39531SOL    HW120490  14.256   1.289   0.755
39531SOL    HW220491  14.304   1.157   0.699
39532SOL     OW20492   2.528   8.450  11.338
39532SOL    HW120493   2.477   8.475  11.261
39532SOL    HW220494   2.502   8.512  11.406
39533SOL     OW20495   9.528  10.992   5.344
39533SOL    HW120496   9.531  10.977   5.438
39533SOL    HW220497   9.439  11.023   5.328
39534SOL     OW20498   2.897   0.406   6.922
39534SOL    HW120499   2.911   0.500   6.910
39534SOL    HW220500   2.901   0.393   7.017
39535SOL     OW20501   8.011   3.108   8.327
39535SOL    HW120502   7.991   3.133   8.236
39535SOL    HW220503   8.038   3.190   8.368
39536SOL     OW20504   2.679   0.636   2.035
39536SOL    HW120505   2.773   0.640   2.055
39536SOL    HW220506   2.661   0.715   1.985
39537SOL     OW20507   4.475  12.204   8.102
39537SOL    HW120508   4.491  12.236   8.191
39537SOL    HW220509   4.562  12.184   8.068
39538SOL     OW20510  13.553  13.644   9.392
39538SOL    HW120511  13.638  13.616   9.360
39538SOL    HW220512  13.571  13.683   9.478
39539SOL     OW20513   1.898  13.455   5.868
39539SOL    HW120514   1.852  13.374   5.846
39539SOL    HW220515   1.831  13.522   5.867
39540SOL     OW20516   4.767   5.152   4.314
39540SOL    HW120517   4.759   5.238   4.273
39540SOL    HW220518   4.861   5.135   4.317
39541SOL     OW20519   3.887   5.656  14.545
39541SOL    HW120520   3.895   5.638  14.638
39541SOL    HW220521   3.936   5.737  14.532
39542SOL     OW20522   6.892   0.684  14.776
39542SOL    HW120523   6.918   0.667  14.685
39542SOL    HW220524   6.975   0.693  14.822
39543SOL     OW20525   0.605  11.203  13.402
39543SOL    HW120526   0.637  11.267  13.465
39543SOL    HW220527   0.642  11.119  13.431
39544SOL     OW20528   5.932  14.746  10.738
39544SOL    HW120529   5.945  14.841  10.745
39544SOL    HW220530   6.001  14.717  10.679
39545SOL     OW20531  12.262   4.971   3.871
39545SOL    HW120532  12.219   4.908   3.929
39545SOL    HW220533  12.330   5.011   3.925
39546SOL     OW20534  11.461   6.728   9.042
39546SOL    HW120535  11.517   6.667   9.091
39546SOL    HW220536  11.383   6.678   9.021
39547SOL     OW20537   1.895   3.498  14.829
39547SOL    HW120538   1.848   3.563  14.777
39547SOL    HW220539   1.961   3.548   0.007
39548SOL     OW20540   5.927  10.169  10.846
39548SOL    HW120541   5.933  10.141  10.937
39548SOL    HW220542   6.006  10.222  10.832
39549SOL     OW20543  13.818   7.895   1.067
39549SOL    HW120544  13.864   7.899   1.151
39549SOL    HW220545  13.762   7.817   1.075
39550SOL     OW20546   9.093   4.263   8.091
39550SOL    HW120547   9.069   4.175   8.117
39550SOL    HW220548   9.137   4.300   8.167
39551SOL     OW20549   5.443  13.536   1.221
39551SOL    HW120550   5.534  13.526   1.248
39551SOL    HW220551   5.448  13.568   1.131
39552SOL     OW20552   8.402   0.588   2.981
39552SOL    HW120553   8.318   0.542   2.988
39552SOL    HW220554   8.424   0.610   3.072
39553SOL     OW20555   6.499   6.349   7.094
39553SOL    HW120556   6.576   6.404   7.081
39553SOL    HW220557   6.489   6.302   7.011
39554SOL     OW20558   4.881   9.978   5.551
39554SOL    HW120559   4.845  10.043   5.611
39554SOL    HW220560   4.939   9.925   5.606
39555SOL     OW20561   7.009  11.698   3.100
39555SOL    HW120562   6.943  11.642   3.140
39555SOL    HW220563   7.069  11.719   3.172
39556SOL     OW20564   2.734  12.079  13.098
39556SOL    HW120565   2.649  12.038  13.084
39556SOL    HW220566   2.794  12.029  13.042
39557SOL     OW20567  12.167   3.446   0.047
39557SOL    HW120568  12.114   3.437   0.126
39557SOL    HW220569  12.252   3.408   0.069
39558SOL     OW20570  14.242  10.696   1.584
39558SOL    HW120571  14.167  10.667   1.532
39558SOL    HW220572  14.288  10.757   1.527
39559SOL     OW20573  14.171   8.062  12.973
39559SOL    HW120574  14.236   8.021  13.029
39559SOL    HW220575  14.123   8.122  13.030
39560SOL     OW20576  10.510   6.585  10.489
39560SOL    HW120577  10.460   6.667  10.481
39560SOL    HW220578  10.453   6.519  10.450
39561SOL     OW20579   9.269  13.280   0.475
39561SOL    HW120580   9.323  13.326   0.539
39561SOL    HW220581   9.270  13.188   0.504
39562SOL     OW20582  13.087   1.216  12.541
39562SOL    HW120583  13.161   1.239  12.598
39562SOL    HW220584  13.033   1.295  12.539
39563SOL     OW20585  12.343   2.487   9.256
39563SOL    HW120586  12.404   2.448   9.318
39563SOL    HW220587  12.328   2.576   9.289
39564SOL     OW20588   3.752   7.383   9.675
39564SOL    HW120589   3.670   7.349   9.638
39564SOL    HW220590   3.730   7.473   9.702
39565SOL     OW20591  11.834  14.617  12.531
39565SOL    HW120592  11.767  14.681  12.508
39565SOL    HW220593  11.809  14.538  12.483
39566SOL     OW20594   7.560   7.231   4.034
39566SOL    HW120595   7.555   7.251   3.941
39566SOL    HW220596   7.578   7.137   4.037
39567SOL     OW20597   6.509  10.447  12.053
39567SOL    HW120598   6.434  10.507  12.056
39567SOL    HW220599   6.498  10.391  12.130
39568SOL     OW20600  14.218  11.684   4.691
39568SOL    HW120601  14.233  11.608   4.635
39568SOL    HW220602  14.276  11.669   4.766
39569SOL     OW20603   5.314  13.025   9.239
39569SOL    HW120604   5.264  13.106   9.248
39569SOL    HW220605   5.272  12.980   9.166
39570SOL     OW20606  10.686   2.270   6.377
39570SOL    HW120607  10.687   2.246   6.469
39570SOL    HW220608  10.718   2.360   6.375
39571SOL     OW20609   4.870   5.187   6.760
39571SOL    HW120610   4.942   5.153   6.813
39571SOL    HW220611   4.855   5.118   6.695
39572SOL     OW20612   2.246   6.622   9.613
39572SOL    HW120613   2.288   6.613   9.527
39572SOL    HW220614   2.205   6.538   9.629
39573SOL     OW20615   5.399   3.471  11.970
39573SOL    HW120616   5.453   3.392  11.962
39573SOL    HW220617   5.448   3.538  11.921
39574SOL     OW20618   3.948   0.801   1.233
39574SOL    HW120619   3.858   0.824   1.212
39574SOL    HW220620   3.987   0.778   1.149
39575SOL     OW20621  12.497  12.847   7.059
39575SOL    HW120622  12.477  12.755   7.038
39575SOL    HW220623  12.539  12.881   6.980
39576SOL     OW20624   5.848   6.433   7.139
39576SOL    HW120625   5.817   6.508   7.190
39576SOL    HW220626   5.850   6.466   7.049
39577SOL     OW20627   2.208   1.815   4.503
39577SOL    HW120628   2.182   1.834   4.593
39577SOL    HW220629   2.235   1.723   4.504
39578SOL     OW20630   9.700   6.068   4.627
39578SOL    HW120631   9.657   6.091   4.709
39578SOL    HW220632   9.783   6.116   4.629
39579SOL     OW20633  10.216   6.795   0.104
39579SOL    HW120634  10.205   6.889   0.120
39579SOL    HW220635  10.243   6.789   0.012
39580SOL     OW20636   6.548   7.051   1.714
39580SOL    HW120637   6.462   7.029   1.748
39580SOL    HW220638   6.563   6.988   1.643
39581SOL     OW20639  10.888   2.685   6.090
39581SOL    HW120640  10.897   2.594   6.120
39581SOL    HW220641  10.977   2.719   6.089
39582SOL     OW20642   3.429   4.340  11.272
39582SOL    HW120643   3.336   4.328  11.255
39582SOL    HW220644   3.465   4.367  11.187
39583SOL     OW20645  11.105  13.802   6.366
39583SOL    HW120646  11.020  13.796   6.410
39583SOL    HW220647  11.085  13.836   6.279
39584SOL     OW20648   2.153   6.750  12.813
39584SOL    HW120649   2.204   6.670  12.796
39584SOL    HW220650   2.201   6.795  12.882
39585SOL     OW20651   1.971  12.579  13.170
39585SOL    HW120652   1.939  12.533  13.248
39585SOL    HW220653   2.019  12.654  13.204
39586SOL     OW20654   5.779   6.545   4.913
39586SOL    HW120655   5.690   6.569   4.936
39586SOL    HW220656   5.769   6.472   4.851
39587SOL     OW20657  12.299  11.064  11.535
39587SOL    HW120658  12.245  11.136  11.503
39587SOL    HW220659  12.278  10.991  11.476
39588SOL     OW20660   9.383   4.538   3.730
39588SOL    HW120661   9.411   4.463   3.781
39588SOL    HW220662   9.362   4.503   3.643
39589SOL     OW20663  11.059   4.235   7.641
39589SOL    HW120664  11.064   4.327   7.617
39589SOL    HW220665  11.149   4.204   7.636
39590SOL     OW20666   3.673  11.785   2.776
39590SOL    HW120667   3.706  11.696   2.764
39590SOL    HW220668   3.726  11.839   2.717
39591SOL     OW20669   7.271   0.949   3.095
39591SOL    HW120670   7.192   0.912   3.135
39591SOL    HW220671   7.238   0.997   3.019
39592SOL     OW20672   5.076   8.572   3.570
39592SOL    HW120673   5.167   8.545   3.576
39592SOL    HW220674   5.077   8.666   3.586
39593SOL     OW20675   9.664  13.069  11.646
39593SOL    HW120676   9.669  13.109  11.733
39593SOL    HW220677   9.666  12.975  11.663
39594SOL     OW20678   7.226  14.005  12.321
39594SOL    HW120679   7.254  14.091  12.288
39594SOL    HW220680   7.297  13.946  12.296
39595SOL     OW20681   3.884   6.066  11.399
39595SOL    HW120682   3.836   6.032  11.324
39595SOL    HW220683   3.826   6.132  11.437
39596SOL     OW20684  13.070   6.232   4.601
39596SOL    HW120685  13.084   6.149   4.556
39596SOL    HW220686  13.079   6.210   4.694
39597SOL     OW20687   4.827   9.056   4.371
39597SOL    HW120688   4.799   9.031   4.283
39597SOL    HW220689   4.791   8.989   4.428
39598SOL     OW20690   8.192  14.122  10.846
39598SOL    HW120691   8.261  14.059  10.825
39598SOL    HW220692   8.208  14.147  10.937
39599SOL     OW20693   1.068   7.532  10.503
39599SOL    HW120694   1.146   7.504  10.553
39599SOL    HW220695   1.099   7.537  10.413
39600SOL     OW20696   9.925   6.786   1.155
39600SOL    HW120697   9.972   6.751   1.231
39600SOL    HW220698   9.985   6.772   1.082
39601SOL     OW20699   3.016   3.982  10.231
39601SOL    HW120700   3.099   3.939  10.209
39601SOL    HW220701   2.984   3.934  10.307
39602SOL     OW20702   8.342  13.602   1.079
39602SOL    HW120703   8.424  13.562   1.107
39602SOL    HW220704   8.331  13.573   0.988
39603SOL     OW20705   1.361   3.454  14.374
39603SOL    HW120706   1.272   3.422  14.388
39603SOL    HW220707   1.385   3.420  14.287
39604SOL     OW20708  14.121  13.556   0.947
39604SOL    HW120709  14.180  13.622   0.910
39604SOL    HW220710  14.062  13.605   1.004
39605SOL     OW20711   5.557   1.572   6.657
39605SOL    HW120712   5.472   1.616   6.662
39605SOL    HW220713   5.549   1.498   6.717
39606SOL     OW20714  10.547  12.871   6.064
39606SOL    HW120715  10.480  12.807   6.039
39606SOL    HW220716  10.505  12.956   6.053
39607SOL     OW20717   5.367   8.669   0.149
39607SOL    HW120718   5.416   8.751   0.155
39607SOL    HW220719   5.372   8.631   0.236
39608SOL     OW20720  10.486   0.623  10.710
39608SOL    HW120721  10.454   0.533  10.713
39608SOL    HW220722  10.493   0.643  10.617
39609SOL     OW20723   3.988   5.277   5.248
39609SOL    HW120724   3.909   5.309   5.294
39609SOL    HW220725   4.058   5.333   5.281
39610SOL     OW20726   5.559   6.379   8.870
39610SOL    HW120727   5.591   6.442   8.934
39610SOL    HW220728   5.631   6.369   8.808
39611SOL     OW20729  14.731  10.846   0.399
39611SOL    HW120730  14.671  10.795   0.344
39611SOL    HW220731  14.736  10.931   0.356
39612SOL     OW20732   8.646   3.378   8.258
39612SOL    HW120733   8.641   3.285   8.234
39612SOL    HW220734   8.669   3.377   8.351
39613SOL     OW20735   4.359  12.793   9.371
39613SOL    HW120736   4.382  12.853   9.299
39613SOL    HW220737   4.434  12.734   9.377
39614SOL     OW20738   5.909  13.258   8.215
39614SOL    HW120739   5.837  13.200   8.239
39614SOL    HW220740   5.942  13.223   8.132
39615SOL     OW20741  13.668   8.762   4.078
39615SOL    HW120742  13.636   8.708   4.006
39615SOL    HW220743  13.609   8.838   4.079
39616SOL     OW20744   2.185   6.333   0.711
39616SOL    HW120745   2.270   6.327   0.668
39616SOL    HW220746   2.186   6.263   0.776
39617SOL     OW20747  10.712   4.183   1.729
39617SOL    HW120748  10.634   4.132   1.748
39617SOL    HW220749  10.726   4.235   1.808
39618SOL     OW20750   3.606   1.893   3.848
39618SOL    HW120751   3.538   1.855   3.793
39618SOL    HW220752   3.597   1.988   3.836
39619SOL     OW20753   6.635   9.424  14.249
39619SOL    HW120754   6.639   9.510  14.207
39619SOL    HW220755   6.547   9.419  14.285
39620SOL     OW20756   6.273   7.415   0.961
39620SOL    HW120757   6.339   7.471   1.002
39620SOL    HW220758   6.261   7.342   1.022
39621SOL     OW20759   2.030   1.911   5.921
39621SOL    HW120760   2.120   1.880   5.927
39621SOL    HW220761   2.031   1.975   5.850
39622SOL     OW20762  12.088   1.795   4.046
39622SOL    HW120763  12.020   1.729   4.065
39622SOL    HW220764  12.043   1.861   3.994
39623SOL     OW20765   2.957  13.751   4.312
39623SOL    HW120766   2.943  13.737   4.219
39623SOL    HW220767   2.869  13.756   4.349
39624SOL     OW20768  11.833   3.816   0.087
39624SOL    HW120769  11.824   3.857   0.172
39624SOL    HW220770  11.790   3.731   0.096
39625SOL     OW20771   8.575   7.593   1.596
39625SOL    HW120772   8.638   7.543   1.649
39625SOL    HW220773   8.527   7.645   1.660
39626SOL     OW20774   8.076  11.093  11.678
39626SOL    HW120775   8.148  11.141  11.638
39626SOL    HW220776   8.016  11.160  11.711
39627SOL     OW20777  11.670  10.100  12.435
39627SOL    HW120778  11.723  10.171  12.398
39627SOL    HW220779  11.688  10.104  12.529
39628SOL     OW20780   3.735  12.768   9.116
39628SOL    HW120781   3.824  12.790   9.087
39628SOL    HW220782   3.703  12.707   9.050
39629SOL     OW20783   3.223   7.060   6.078
39629SOL    HW120784   3.241   6.966   6.066
39629SOL    HW220785   3.203   7.069   6.171
39630SOL     OW20786   4.795   5.028  11.997
39630SOL    HW120787   4.846   5.108  11.984
39630SOL    HW220788   4.847   4.976  12.057
39631SOL     OW20789   7.495   3.786   8.969
39631SOL    HW120790   7.534   3.700   8.989
39631SOL    HW220791   7.472   3.822   9.055
39632SOL     OW20792  11.501   9.094   4.076
39632SOL    HW120793  11.583   9.129   4.110
39632SOL    HW220794  11.511   9.097   3.981
39633SOL     OW20795  13.558  14.393   0.707
39633SOL    HW120796  13.593  14.432   0.627
39633SOL    HW220797  13.466  14.419   0.709
39634SOL     OW20798   1.555   6.939   0.393
39634SOL    HW120799   1.558   6.961   0.486
39634SOL    HW220800   1.644   6.911   0.372
39635SOL     OW20801   8.807   3.604   1.282
39635SOL    HW120802   8.784   3.579   1.192
39635SOL    HW220803   8.725   3.636   1.320
39636SOL     OW20804  11.498   0.931   1.846
39636SOL    HW120805  11.439   1.006   1.844
39636SOL    HW220806  11.536   0.933   1.934
39637SOL     OW20807   5.121   7.633  11.938
39637SOL    HW120808   5.062   7.572  11.893
39637SOL    HW220809   5.149   7.693  11.869
39638SOL     OW20810   1.308   5.143  13.448
39638SOL    HW120811   1.243   5.115  13.513
39638SOL    HW220812   1.387   5.093  13.471
39639SOL     OW20813   1.620   6.360  13.739
39639SOL    HW120814   1.573   6.295  13.790
39639SOL    HW220815   1.706   6.322  13.723
39640SOL     OW20816   3.971   7.931  14.357
39640SOL    HW120817   4.033   7.864  14.328
39640SOL    HW220818   3.973   7.997  14.288
39641SOL     OW20819   0.403  14.413   1.515
39641SOL    HW120820   0.496  14.434   1.519
39641SOL    HW220821   0.374  14.448   1.431
39642SOL     OW20822   5.949   8.486   7.127
39642SOL    HW120823   5.978   8.395   7.119
39642SOL    HW220824   6.016   8.527   7.181
39643SOL     OW20825  14.503   7.904  11.534
39643SOL    HW120826  14.429   7.944  11.579
39643SOL    HW220827  14.559   7.978  11.510
39644SOL     OW20828   1.619  12.180   9.857
39644SOL    HW120829   1.680  12.173   9.931
39644SOL    HW220830   1.673  12.169   9.779
39645SOL     OW20831   7.395   7.446   2.141
39645SOL    HW120832   7.424   7.362   2.105
39645SOL    HW220833   7.300   7.445   2.133
39646SOL     OW20834   2.166  12.983  13.161
39646SOL    HW120835   2.178  12.950  13.250
39646SOL    HW220836   2.072  12.971  13.143
39647SOL     OW20837   6.173   2.696   6.237
39647SOL    HW120838   6.135   2.755   6.303
39647SOL    HW220839   6.113   2.622   6.233
39648SOL     OW20840   6.993  13.842   4.121
39648SOL    HW120841   7.059  13.774   4.134
39648SOL    HW220842   6.951  13.820   4.038
39649SOL     OW20843   2.962   8.409  12.939
39649SOL    HW120844   2.904   8.456  12.999
39649SOL    HW220845   3.048   8.412  12.981
39650SOL     OW20846   3.991   7.251  10.295
39650SOL    HW120847   4.022   7.324  10.242
39650SOL    HW220848   4.038   7.258  10.377
39651SOL     OW20849  12.328   1.318   6.908
39651SOL    HW120850  12.248   1.353   6.947
39651SOL    HW220851  12.316   1.223   6.911
39652SOL     OW20852  12.573  10.677   7.916
39652SOL    HW120853  12.632  10.617   7.962
39652SOL    HW220854  12.556  10.634   7.832
39653SOL     OW20855   0.069   9.798   3.060
39653SOL    HW120856   0.122   9.785   3.138
39653SOL    HW220857  14.848   9.794   3.091
39654SOL     OW20858  10.673   0.843   9.918
39654SOL    HW120859  10.644   0.882  10.000
39654SOL    HW220860  10.768   0.855   9.918
39655SOL     OW20861  14.854  14.044   1.915
39655SOL    HW120862   0.003  13.957   1.951
39655SOL    HW220863   0.010  14.037   1.823
39656SOL     OW20864  11.518   0.656  10.424
39656SOL    HW120865  11.592   0.644  10.484
39656SOL    HW220866  11.560   0.675  10.340
39657SOL     OW20867   4.584   7.614   7.499
39657SOL    HW120868   4.656   7.677   7.496
39657SOL    HW220869   4.526   7.647   7.568
39658SOL     OW20870   4.924  11.138   5.073
39658SOL    HW120871   4.849  11.195   5.058
39658SOL    HW220872   4.993  11.196   5.106
39659SOL     OW20873  12.497   8.597   5.860
39659SOL    HW120874  12.469   8.657   5.791
39659SOL    HW220875  12.440   8.617   5.934
39660SOL     OW20876  10.489   3.192  11.629
39660SOL    HW120877  10.425   3.163  11.564
39660SOL    HW220878  10.539   3.260  11.583
39661SOL     OW20879   4.012  11.209   9.305
39661SOL    HW120880   4.062  11.127   9.294
39661SOL    HW220881   3.971  11.223   9.219
39662SOL     OW20882  12.454   9.132   6.479
39662SOL    HW120883  12.411   9.175   6.552
39662SOL    HW220884  12.467   9.201   6.414
39663SOL     OW20885   0.278   2.503   9.159
39663SOL    HW120886   0.195   2.549   9.170
39663SOL    HW220887   0.283   2.485   9.065
39664SOL     OW20888   8.250  12.545  12.192
39664SOL    HW120889   8.172  12.518  12.240
39664SOL    HW220890   8.281  12.464  12.150
39665SOL     OW20891   8.856   7.439  12.260
39665SOL    HW120892   8.818   7.479  12.339
39665SOL    HW220893   8.876   7.513  12.203
39666SOL     OW20894   7.183  10.150  13.254
39666SOL    HW120895   7.246  10.095  13.205
39666SOL    HW220896   7.142  10.089  13.316
39667SOL     OW20897   8.424   7.724   1.796
39667SOL    HW120898   8.463   7.810   1.788
39667SOL    HW220899   8.345   7.727   1.741
39668SOL     OW20900   5.475  11.238  14.745
39668SOL    HW120901   5.526  11.299  14.693
39668SOL    HW220902   5.434  11.292  14.813
39669SOL     OW20903   1.057   2.671   5.579
39669SOL    HW120904   1.057   2.611   5.654
39669SOL    HW220905   1.149   2.680   5.555
39670SOL     OW20906   6.308   9.681   0.462
39670SOL    HW120907   6.217   9.699   0.440
39670SOL    HW220908   6.346   9.645   0.382
39671SOL     OW20909  11.778   9.254   0.418
39671SOL    HW120910  11.720   9.198   0.366
39671SOL    HW220911  11.724   9.285   0.490
39672SOL     OW20912   4.438   8.949   3.266
39672SOL    HW120913   4.357   8.999   3.271
39672SOL    HW220914   4.507   9.016   3.266
39673SOL     OW20915   8.701   4.423   5.991
39673SOL    HW120916   8.650   4.355   6.034
39673SOL    HW220917   8.729   4.481   6.062
39674SOL     OW20918   3.385   6.476   3.416
39674SOL    HW120919   3.307   6.522   3.447
39674SOL    HW220920   3.356   6.386   3.403
39675SOL     OW20921   8.757   9.918  13.115
39675SOL    HW120922   8.793   9.884  13.033
39675SOL    HW220923   8.664   9.931  13.097
39676SOL     OW20924  11.341  10.543   4.095
39676SOL    HW120925  11.297  10.479   4.040
39676SOL    HW220926  11.288  10.549   4.175
39677SOL     OW20927   6.549   2.080  13.219
39677SOL    HW120928   6.559   2.022  13.294
39677SOL    HW220929   6.492   2.151  13.250
39678SOL     OW20930   9.241   4.047   5.115
39678SOL    HW120931   9.183   4.070   5.043
39678SOL    HW220932   9.237   4.122   5.174
39679SOL     OW20933  10.545  13.921   2.058
39679SOL    HW120934  10.569  13.903   2.149
39679SOL    HW220935  10.626  13.912   2.009
39680SOL     OW20936  13.266   2.189   4.433
39680SOL    HW120937  13.322   2.120   4.397
39680SOL    HW220938  13.178   2.152   4.431
39681SOL     OW20939   1.191  10.206  14.823
39681SOL    HW120940   1.265  10.260  14.796
39681SOL    HW220941   1.188  10.215   0.048
39682SOL     OW20942   1.109   2.774   3.613
39682SOL    HW120943   1.157   2.697   3.642
39682SOL    HW220944   1.172   2.846   3.621
39683SOL     OW20945  10.346   7.387   7.311
39683SOL    HW120946  10.413   7.333   7.351
39683SOL    HW220947  10.331   7.459   7.373
39684SOL     OW20948   6.435   5.727   2.531
39684SOL    HW120949   6.388   5.658   2.484
39684SOL    HW220950   6.455   5.688   2.616
39685SOL     OW20951   1.069   3.897  12.721
39685SOL    HW120952   1.028   3.912  12.635
39685SOL    HW220953   0.995   3.892  12.782
39686SOL     OW20954  14.177   9.900   7.298
39686SOL    HW120955  14.165   9.825   7.240
39686SOL    HW220956  14.220   9.864   7.375
39687SOL     OW20957   7.860  13.495   9.248
39687SOL    HW120958   7.829  13.455   9.167
39687SOL    HW220959   7.875  13.587   9.225
39688SOL     OW20960   2.970  13.402  12.632
39688SOL    HW120961   2.966  13.422  12.538
39688SOL    HW220962   2.972  13.488  12.674
39689SOL     OW20963   6.901   7.702   9.844
39689SOL    HW120964   6.842   7.748   9.785
39689SOL    HW220965   6.857   7.619   9.863
39690SOL     OW20966  13.599   2.783   6.916
39690SOL    HW120967  13.515   2.737   6.911
39690SOL    HW220968  13.644   2.744   6.991
39691SOL     OW20969  11.697   9.103   5.849
39691SOL    HW120970  11.766   9.137   5.907
39691SOL    HW220971  11.743   9.051   5.784
39692SOL     OW20972   4.377   0.066   6.386
39692SOL    HW120973   4.458   0.108   6.415
39692SOL    HW220974   4.324   0.059   6.465
39693SOL     OW20975  12.271   3.981   6.730
39693SOL    HW120976  12.360   3.950   6.747
39693SOL    HW220977  12.233   3.995   6.817
39694SOL     OW20978   9.407   4.118   6.464
39694SOL    HW120979   9.407   4.147   6.372
39694SOL    HW220980   9.499   4.116   6.488
39695SOL     OW20981  14.163  14.051   4.181
39695SOL    HW120982  14.214  14.009   4.250
39695SOL    HW220983  14.097  14.103   4.228
39696SOL     OW20984  13.438  12.965   0.739
39696SOL    HW120985  13.346  12.985   0.722
39696SOL    HW220986  13.457  12.889   0.683
39697SOL     OW20987  10.300   8.960  14.605
39697SOL    HW120988  10.267   8.945  14.694
39697SOL    HW220989  10.377   8.903  14.597
39698SOL     OW20990  11.495   8.051  12.046
39698SOL    HW120991  11.531   8.112  12.111
39698SOL    HW220992  11.508   7.964  12.084
39699SOL     OW20993   6.858  14.615   1.428
39699SOL    HW120994   6.873  14.523   1.403
39699SOL    HW220995   6.902  14.624   1.513
39700SOL     OW20996   7.929  14.253   1.972
39700SOL    HW120997   7.853  14.297   2.010
39700SOL    HW220998   7.965  14.202   2.044
39701SOL     OW20999   1.494   2.954  14.026
39701SOL    HW121000   1.571   2.898  14.027
39701SOL    HW221001   1.454   2.941  14.113
39702SOL     OW21002   0.949   2.489  12.966
39702SOL    HW121003   0.890   2.465  13.037
39702SOL    HW221004   0.927   2.429  12.895
39703SOL     OW21005  10.749   2.931   2.628
39703SOL    HW121006  10.685   2.930   2.557
39703SOL    HW221007  10.717   2.997   2.689
39704SOL     OW21008   0.830  13.205   3.296
39704SOL    HW121009   0.813  13.119   3.258
39704SOL    HW221010   0.761  13.261   3.259
39705SOL     OW21011   6.652   1.515   3.786
39705SOL    HW121012   6.656   1.608   3.810
39705SOL    HW221013   6.661   1.515   3.691
39706SOL     OW21014   1.589   3.578  11.451
39706SOL    HW121015   1.663   3.530  11.413
39706SOL    HW221016   1.532   3.510  11.488
39707SOL     OW21017   9.779   1.392  10.786
39707SOL    HW121018   9.774   1.447  10.864
39707SOL    HW221019   9.817   1.310  10.817
39708SOL     OW21020   1.902  10.328   8.463
39708SOL    HW121021   1.827  10.363   8.511
39708SOL    HW221022   1.928  10.400   8.405
39709SOL     OW21023  13.236   0.352   9.527
39709SOL    HW121024  13.224   0.357   9.432
39709SOL    HW221025  13.148   0.340   9.562
39710SOL     OW21026  13.538   6.269   1.124
39710SOL    HW121027  13.606   6.206   1.149
39710SOL    HW221028  13.542   6.271   1.028
39711SOL     OW21029   9.233   4.839  11.233
39711SOL    HW121030   9.207   4.777  11.165
39711SOL    HW221031   9.151   4.870  11.270
39712SOL     OW21032   2.813   2.008  13.677
39712SOL    HW121033   2.816   2.076  13.611
39712SOL    HW221034   2.753   1.942  13.641
39713SOL     OW21035  10.662   5.769   1.722
39713SOL    HW121036  10.744   5.779   1.769
39713SOL    HW221037  10.643   5.675   1.725
39714SOL     OW21038  13.423   4.832   1.693
39714SOL    HW121039  13.440   4.921   1.660
39714SOL    HW221040  13.507   4.787   1.682
39715SOL     OW21041   7.000   2.573  14.518
39715SOL    HW121042   7.091   2.543  14.517
39715SOL    HW221043   6.989   2.619  14.435
39716SOL     OW21044  12.630   3.073   0.959
39716SOL    HW121045  12.542   3.090   0.994
39716SOL    HW221046  12.629   2.981   0.936
39717SOL     OW21047  10.285  12.890  13.641
39717SOL    HW121048  10.312  12.870  13.731
39717SOL    HW221049  10.359  12.863  13.587
39718SOL     OW21050   2.959  11.879  13.094
39718SOL    HW121051   3.007  11.945  13.044
39718SOL    HW221052   2.950  11.805  13.034
39719SOL     OW21053  11.635   4.530   4.414
39719SOL    HW121054  11.728   4.551   4.427
39719SOL    HW221055  11.589   4.603   4.456
39720SOL     OW21056  10.223   1.860  11.663
39720SOL    HW121057  10.139   1.856  11.618
39720SOL    HW221058  10.231   1.952  11.689
39721SOL     OW21059   4.604   6.838  13.757
39721SOL    HW121060   4.527   6.845  13.812
39721SOL    HW221061   4.591   6.759  13.706
39722SOL     OW21062   2.794   1.317  11.325
39722SOL    HW121063   2.810   1.411  11.332
39722SOL    HW221064   2.838   1.291  11.244
39723SOL     OW21065   3.053   0.155   5.962
39723SOL    HW121066   3.069   0.060   5.960
39723SOL    HW221067   3.121   0.191   5.905
39724SOL     OW21068   1.662  13.828   1.535
39724SOL    HW121069   1.640  13.909   1.488
39724SOL    HW221070   1.673  13.763   1.466
39725SOL     OW21071   3.099   8.353   7.712
39725SOL    HW121072   3.088   8.429   7.655
39725SOL    HW221073   3.133   8.390   7.794
39726SOL     OW21074   0.686   0.830   8.251
39726SOL    HW121075   0.719   0.919   8.261
39726SOL    HW221076   0.727   0.781   8.323
39727SOL     OW21077   6.386  10.009   9.680
39727SOL    HW121078   6.351  10.092   9.712
39727SOL    HW221079   6.334   9.991   9.601
39728SOL     OW21080   5.318   0.101   2.438
39728SOL    HW121081   5.309   0.185   2.482
39728SOL    HW221082   5.404   0.069   2.464
39729SOL     OW21083   7.725  11.148   4.165
39729SOL    HW121084   7.766  11.117   4.246
39729SOL    HW221085   7.781  11.112   4.096
39730SOL     OW21086   0.678   4.015   5.671
39730SOL    HW121087   0.645   3.995   5.758
39730SOL    HW221088   0.715   3.932   5.640
39731SOL     OW21089   5.611   4.635  11.220
39731SOL    HW121090   5.596   4.541  11.216
39731SOL    HW221091   5.683   4.646  11.282
39732SOL     OW21092   2.004   6.092   9.395
39732SOL    HW121093   2.040   6.110   9.308
39732SOL    HW221094   1.910   6.082   9.380
39733SOL     OW21095   0.019   4.357  13.136
39733SOL    HW121096   0.107   4.336  13.168
39733SOL    HW221097   0.011   4.452  13.149
39734SOL     OW21098   0.952   9.753   3.158
39734SOL    HW121099   0.948   9.771   3.064
39734SOL    HW221100   0.982   9.662   3.164
39735SOL     OW21101   0.232   3.223   7.982
39735SOL    HW121102   0.242   3.317   7.967
39735SOL    HW221103   0.227   3.215   8.078
39736SOL     OW21104   1.007   7.004   7.525
39736SOL    HW121105   0.954   7.009   7.446
39736SOL    HW221106   1.073   6.937   7.505
39737SOL     OW21107   2.082   2.082  14.314
39737SOL    HW121108   2.150   2.073  14.380
39737SOL    HW221109   2.034   2.161  14.340
39738SOL     OW21110   3.288  13.110   3.770
39738SOL    HW121111   3.364  13.112   3.829
39738SOL    HW221112   3.288  13.197   3.728
39739SOL     OW21113  13.453  13.278   2.682
39739SOL    HW121114  13.416  13.199   2.642
39739SOL    HW221115  13.418  13.278   2.771
39740SOL     OW21116   2.276  13.149   6.043
39740SOL    HW121117   2.197  13.104   6.072
39740SOL    HW221118   2.331  13.081   6.005
39741SOL     OW21119   1.970  11.779   0.596
39741SOL    HW121120   2.057  11.743   0.617
39741SOL    HW221121   1.989  11.855   0.541
39742SOL     OW21122   9.047  10.485  12.918
39742SOL    HW121123   8.990  10.526  12.853
39742SOL    HW221124   9.098  10.557  12.955
39743SOL     OW21125   5.960  11.821   5.335
39743SOL    HW121126   6.028  11.796   5.273
39743SOL    HW221127   6.004  11.878   5.398
39744SOL     OW21128  10.464   2.066  13.617
39744SOL    HW121129  10.491   1.974  13.620
39744SOL    HW221130  10.545   2.115  13.632
39745SOL     OW21131  10.784   5.256   0.313
39745SOL    HW121132  10.860   5.220   0.267
39745SOL    HW221133  10.715   5.191   0.300
39746SOL     OW21134   7.594  12.294   6.178
39746SOL    HW121135   7.522  12.302   6.241
39746SOL    HW221136   7.671  12.324   6.226
39747SOL     OW21137  12.871  10.272  13.043
39747SOL    HW121138  12.780  10.252  13.068
39747SOL    HW221139  12.865  10.297  12.951
39748SOL     OW21140  11.306   7.079  13.540
39748SOL    HW121141  11.257   7.149  13.498
39748SOL    HW221142  11.253   7.001  13.527
39749SOL     OW21143   8.054   2.165  10.266
39749SOL    HW121144   8.030   2.255  10.246
39749SOL    HW221145   8.148   2.161  10.246
39750SOL     OW21146   2.256  14.791  14.566
39750SOL    HW121147   2.200  14.834  14.631
39750SOL    HW221148   2.345  14.808  14.596
39751SOL     OW21149   7.223   0.022   1.186
39751SOL    HW121150   7.256   0.064   1.265
39751SOL    HW221151   7.174   0.091   1.141
39752SOL     OW21152  11.313  12.007   6.037
39752SOL    HW121153  11.374  12.056   5.982
39752SOL    HW221154  11.354  11.921   6.049
39753SOL     OW21155   7.665   0.230   4.236
39753SOL    HW121156   7.674   0.254   4.144
39753SOL    HW221157   7.627   0.142   4.234
39754SOL     OW21158  10.001   9.854   5.111
39754SOL    HW121159  10.070   9.921   5.113
39754SOL    HW221160   9.991   9.827   5.203
39755SOL     OW21161   5.689   9.670   2.188
39755SOL    HW121162   5.686   9.763   2.207
39755SOL    HW221163   5.647   9.629   2.264
39756SOL     OW21164  10.998   4.734  14.248
39756SOL    HW121165  10.977   4.809  14.192
39756SOL    HW221166  11.075   4.762  14.298
39757SOL     OW21167   3.477   2.350  12.180
39757SOL    HW121168   3.458   2.415  12.248
39757SOL    HW221169   3.429   2.272  12.208
39758SOL     OW21170   8.674  14.175   6.965
39758SOL    HW121171   8.728  14.152   6.889
39758SOL    HW221172   8.695  14.109   7.031
39759SOL     OW21173   9.433  12.388  13.289
39759SOL    HW121174   9.382  12.461  13.253
39759SOL    HW221175   9.368  12.331  13.329
39760SOL     OW21176   3.938   7.285   4.378
39760SOL    HW121177   3.897   7.361   4.419
39760SOL    HW221178   4.015   7.321   4.334
39761SOL     OW21179   5.776  11.942   3.709
39761SOL    HW121180   5.856  11.914   3.666
39761SOL    HW221181   5.716  11.867   3.698
39762SOL     OW21182   3.056  11.875  11.047
39762SOL    HW121183   3.145  11.845  11.067
39762SOL    HW221184   3.031  11.824  10.969
39763SOL     OW21185   0.494   1.807  14.749
39763SOL    HW121186   0.580   1.766  14.750
39763SOL    HW221187   0.451   1.776  14.829
39764SOL     OW21188   6.903  14.263   4.786
39764SOL    HW121189   6.930  14.182   4.743
39764SOL    HW221190   6.820  14.285   4.745
39765SOL     OW21191   9.648   4.907   7.454
39765SOL    HW121192   9.611   4.995   7.451
39765SOL    HW221193   9.617   4.870   7.536
39766SOL     OW21194  10.679  12.853  11.700
39766SOL    HW121195  10.647  12.787  11.638
39766SOL    HW221196  10.717  12.921  11.646
39767SOL     OW21197   8.606   6.447   8.038
39767SOL    HW121198   8.630   6.360   8.008
39767SOL    HW221199   8.616   6.442   8.134
39768SOL     OW21200  10.680   6.873   4.754
39768SOL    HW121201  10.705   6.781   4.745
39768SOL    HW221202  10.738   6.920   4.694
39769SOL     OW21203   8.748   0.964  13.487
39769SOL    HW121204   8.657   0.934  13.496
39769SOL    HW221205   8.792   0.890  13.444
39770SOL     OW21206   4.070   1.813  12.496
39770SOL    HW121207   4.107   1.820  12.408
39770SOL    HW221208   4.007   1.742  12.490
39771SOL     OW21209   2.314   3.260  13.135
39771SOL    HW121210   2.402   3.271  13.169
39771SOL    HW221211   2.313   3.308  13.053
39772SOL     OW21212   0.361   6.410  10.510
39772SOL    HW121213   0.358   6.470  10.435
39772SOL    HW221214   0.326   6.461  10.583
39773SOL     OW21215   6.860   4.961   9.482
39773SOL    HW121216   6.875   4.965   9.577
39773SOL    HW221217   6.788   4.899   9.472
39774SOL     OW21218   4.064  12.921   7.567
39774SOL    HW121219   3.974  12.934   7.535
39774SOL    HW221220   4.072  12.827   7.578
39775SOL     OW21221   2.565   3.015   1.706
39775SOL    HW121222   2.485   3.026   1.655
39775SOL    HW221223   2.631   2.988   1.641
39776SOL     OW21224  13.133  11.648   0.293
39776SOL    HW121225  13.162  11.728   0.336
39776SOL    HW221226  13.213  11.599   0.275
39777SOL     OW21227   8.402   5.959   1.542
39777SOL    HW121228   8.372   5.906   1.616
39777SOL    HW221229   8.471   6.015   1.579
39778SOL     OW21230   3.974   4.000  10.349
39778SOL    HW121231   4.044   4.065  10.339
39778SOL    HW221232   3.901   4.036  10.298
39779SOL     OW21233  14.692   9.955   5.819
39779SOL    HW121234  14.635  10.030   5.802
39779SOL    HW221235  14.644   9.900   5.880
39780SOL     OW21236  11.824   3.241  13.151
39780SOL    HW121237  11.804   3.289  13.071
39780SOL    HW221238  11.920   3.243  13.157
39781SOL     OW21239  13.135   1.713   0.069
39781SOL    HW121240  13.152   1.749  14.852
39781SOL    HW221241  13.123   1.619   0.053
39782SOL     OW21242   0.549  10.742  11.753
39782SOL    HW121243   0.514  10.828  11.777
39782SOL    HW221244   0.485  10.680  11.787
39783SOL     OW21245   3.039   5.906   3.164
39783SOL    HW121246   3.080   5.906   3.078
39783SOL    HW221247   3.059   5.820   3.201
39784SOL     OW21248   2.647   0.073   4.761
39784SOL    HW121249   2.678   0.163   4.751
39784SOL    HW221250   2.605   0.071   4.847
39785SOL     OW21251   9.269  13.860   9.539
39785SOL    HW121252   9.276  13.798   9.467
39785SOL    HW221253   9.265  13.946   9.496
39786SOL     OW21254  11.277  13.666   4.038
39786SOL    HW121255  11.185  13.654   4.058
39786SOL    HW221256  11.279  13.737   3.974
39787SOL     OW21257   9.486   8.737   6.209
39787SOL    HW121258   9.438   8.766   6.132
39787SOL    HW221259   9.496   8.643   6.197
39788SOL     OW21260   4.813   4.692   7.992
39788SOL    HW121261   4.837   4.614   7.942
39788SOL    HW221262   4.786   4.755   7.925
39789SOL     OW21263   9.465   2.336   7.998
39789SOL    HW121264   9.385   2.357   8.047
39789SOL    HW221265   9.487   2.418   7.953
39790SOL     OW21266   0.529   4.419   6.032
39790SOL    HW121267   0.464   4.424   6.102
39790SOL    HW221268   0.490   4.466   5.959
39791SOL     OW21269   7.831  10.763   4.243
39791SOL    HW121270   7.818  10.668   4.252
39791SOL    HW221271   7.926  10.773   4.238
39792SOL     OW21272   0.989   1.721  13.487
39792SOL    HW121273   1.042   1.768  13.553
39792SOL    HW221274   1.054   1.680  13.430
39793SOL     OW21275   0.270  12.884   7.089
39793SOL    HW121276   0.224  12.963   7.060
39793SOL    HW221277   0.201  12.818   7.097
39794SOL     OW21278   5.312  13.552  12.794
39794SOL    HW121279   5.375  13.612  12.754
39794SOL    HW221280   5.231  13.602  12.798
39795SOL     OW21281   6.019   0.691  12.415
39795SOL    HW121282   5.959   0.722  12.346
39795SOL    HW221283   6.105   0.692  12.374
39796SOL     OW21284   7.378  11.269  14.774
39796SOL    HW121285   7.331  11.216  14.710
39796SOL    HW221286   7.403  11.348  14.726
39797SOL     OW21287   3.527   3.197  14.651
39797SOL    HW121288   3.604   3.200  14.708
39797SOL    HW221289   3.518   3.287  14.620
39798SOL     OW21290   9.979   0.003   0.986
39798SOL    HW121291   9.888   0.033   0.995
39798SOL    HW221292  10.031   0.079   1.010
39799SOL     OW21293  11.034  13.154  11.700
39799SOL    HW121294  11.092  13.110  11.638
39799SOL    HW221295  11.088  13.221  11.740
39800SOL     OW21296   4.237  12.199   7.335
39800SOL    HW121297   4.291  12.133   7.290
39800SOL    HW221298   4.291  12.227   7.410
39801SOL     OW21299   0.208   9.676  10.184
39801SOL    HW121300   0.184   9.768  10.176
39801SOL    HW221301   0.131   9.634  10.222
39802SOL     OW21302   0.864   9.798   9.797
39802SOL    HW121303   0.872   9.704   9.787
39802SOL    HW221304   0.773   9.817   9.773
39803SOL     OW21305   7.547  12.274   5.694
39803SOL    HW121306   7.494  12.341   5.738
39803SOL    HW221307   7.550  12.202   5.756
39804SOL     OW21308   0.368   6.312   0.401
39804SOL    HW121309   0.452   6.270   0.421
39804SOL    HW221310   0.376   6.335   0.308
39805SOL     OW21311   6.263  13.252   4.851
39805SOL    HW121312   6.225  13.263   4.763
39805SOL    HW221313   6.281  13.159   4.859
39806SOL     OW21314   0.296  12.711  14.473
39806SOL    HW121315   0.225  12.669  14.522
39806SOL    HW221316   0.362  12.730  14.539
39807SOL     OW21317   4.619   5.723   6.744
39807SOL    HW121318   4.644   5.652   6.803
39807SOL    HW221319   4.627   5.685   6.657
39808SOL     OW21320   0.536   8.898   3.557
39808SOL    HW121321   0.486   8.980   3.562
39808SOL    HW221322   0.475   8.831   3.586
39809SOL     OW21323  12.066  11.238   4.943
39809SOL    HW121324  12.079  11.242   5.038
39809SOL    HW221325  12.154  11.245   4.906
39810SOL     OW21326   7.836   2.030   3.110
39810SOL    HW121327   7.810   1.938   3.106
39810SOL    HW221328   7.852   2.046   3.203
39811SOL     OW21329   9.758   6.801  13.371
39811SOL    HW121330   9.730   6.892  13.365
39811SOL    HW221331   9.837   6.796  13.317
39812SOL     OW21332  10.171   6.316   4.551
39812SOL    HW121333  10.140   6.372   4.480
39812SOL    HW221334  10.197   6.378   4.620
39813SOL     OW21335   2.510   4.360   2.412
39813SOL    HW121336   2.482   4.416   2.484
39813SOL    HW221337   2.448   4.379   2.341
39814SOL     OW21338   3.908   0.600   0.053
39814SOL    HW121339   3.857   0.522   0.034
39814SOL    HW221340   3.975   0.570   0.115
39815SOL     OW21341   1.101  12.607  11.052
39815SOL    HW121342   1.190  12.639  11.035
39815SOL    HW221343   1.113  12.538  11.118
39816SOL     OW21344   7.093   5.979   3.504
39816SOL    HW121345   7.049   6.043   3.449
39816SOL    HW221346   7.155   5.935   3.446
39817SOL     OW21347   9.399   7.638   3.880
39817SOL    HW121348   9.325   7.606   3.828
39817SOL    HW221349   9.366   7.638   3.970
39818SOL     OW21350   7.798  11.978   4.386
39818SOL    HW121351   7.858  11.999   4.457
39818SOL    HW221352   7.805  11.883   4.376
39819SOL     OW21353   8.787  10.147  13.787
39819SOL    HW121354   8.859  10.083  13.788
39819SOL    HW221355   8.725  10.111  13.724
39820SOL     OW21356  13.199   6.764   8.733
39820SOL    HW121357  13.136   6.695   8.755
39820SOL    HW221358  13.278   6.717   8.707
39821SOL     OW21359  10.387  12.424   6.387
39821SOL    HW121360  10.479  12.429   6.362
39821SOL    HW221361  10.340  12.471   6.318
39822SOL     OW21362   1.610  12.506   0.192
39822SOL    HW121363   1.624  12.572   0.260
39822SOL    HW221364   1.674  12.526   0.124
39823SOL     OW21365   1.250   0.917   8.641
39823SOL    HW121366   1.214   0.884   8.723
39823SOL    HW221367   1.259   0.839   8.586
39824SOL     OW21368  14.486   2.766  14.797
39824SOL    HW121369  14.570   2.789  14.835
39824SOL    HW221370  14.474   2.674  14.821
39825SOL     OW21371  14.011   0.496   5.192
39825SOL    HW121372  14.079   0.435   5.222
39825SOL    HW221373  14.015   0.490   5.096
39826SOL     OW21374   0.653   6.697  13.022
39826SOL    HW121375   0.680   6.677  13.112
39826SOL    HW221376   0.726   6.747  12.986
39827SOL     OW21377  10.359   5.667  13.215
39827SOL    HW121378  10.419   5.654  13.142
39827SOL    HW221379  10.405   5.631  13.291
39828SOL     OW21380   5.605   5.193   4.549
39828SOL    HW121381   5.558   5.111   4.565
39828SOL    HW221382   5.580   5.250   4.621
39829SOL     OW21383   3.774   8.821   5.941
39829SOL    HW121384   3.841   8.787   6.001
39829SOL    HW221385   3.794   8.914   5.934
39830SOL     OW21386  12.934   1.397  13.840
39830SOL    HW121387  12.998   1.460  13.806
39830SOL    HW221388  12.849   1.439  13.825
39831SOL     OW21389   9.773   2.130   0.584
39831SOL    HW121390   9.826   2.189   0.530
39831SOL    HW221391   9.790   2.043   0.549
39832SOL     OW21392   5.453   8.294  14.764
39832SOL    HW121393   5.454   8.389  14.763
39832SOL    HW221394   5.526   8.268  14.708
39833SOL     OW21395  14.662   6.532   5.403
39833SOL    HW121396  14.616   6.452   5.378
39833SOL    HW221397  14.740   6.533   5.347
39834SOL     OW21398  14.569  11.995  11.079
39834SOL    HW121399  14.619  11.993  10.997
39834SOL    HW221400  14.600  11.918  11.127
39835SOL     OW21401   7.541   6.188   5.308
39835SOL    HW121402   7.494   6.108   5.287
39835SOL    HW221403   7.630   6.160   5.327
39836SOL     OW21404   7.370  14.122   9.765
39836SOL    HW121405   7.360  14.165   9.850
39836SOL    HW221406   7.462  14.097   9.761
39837SOL     OW21407  10.669   1.502   8.150
39837SOL    HW121408  10.756   1.480   8.117
39837SOL    HW221409  10.613   1.497   8.072
39838SOL     OW21410   7.572  13.727   0.568
39838SOL    HW121411   7.561  13.803   0.626
39838SOL    HW221412   7.560  13.651   0.625
39839SOL     OW21413   7.517  14.646   0.035
39839SOL    HW121414   7.450  14.612   0.093
39839SOL    HW221415   7.599  14.634   0.083
39840SOL     OW21416  12.932   4.104  13.534
39840SOL    HW121417  12.929   4.111  13.439
39840SOL    HW221418  13.024   4.087  13.554
39841SOL     OW21419   0.528   9.022   8.448
39841SOL    HW121420   0.445   9.057   8.416
39841SOL    HW221421   0.558   8.963   8.379
39842SOL     OW21422   2.049   8.326   5.528
39842SOL    HW121423   1.961   8.304   5.559
39842SOL    HW221424   2.082   8.389   5.592
39843SOL     OW21425  13.017   4.177  11.264
39843SOL    HW121426  12.956   4.120  11.310
39843SOL    HW221427  12.976   4.263  11.265
39844SOL     OW21428   7.848   3.486   1.522
39844SOL    HW121429   7.773   3.428   1.508
39844SOL    HW221430   7.888   3.497   1.436
39845SOL     OW21431   3.360   8.084   8.283
39845SOL    HW121432   3.394   8.152   8.341
39845SOL    HW221433   3.417   8.085   8.207
39846SOL     OW21434   4.277  12.540   2.768
39846SOL    HW121435   4.220  12.490   2.826
39846SOL    HW221436   4.327  12.474   2.720
39847SOL     OW21437   2.381   5.326   9.781
39847SOL    HW121438   2.468   5.297   9.751
39847SOL    HW221439   2.352   5.388   9.715
39848SOL     OW21440   9.918   0.502   3.821
39848SOL    HW121441   9.919   0.538   3.733
39848SOL    HW221442   9.843   0.544   3.864
39849SOL     OW21443   4.094   9.177  12.162
39849SOL    HW121444   4.098   9.230  12.082
39849SOL    HW221445   4.086   9.242  12.232
39850SOL     OW21446  10.009   3.945   9.535
39850SOL    HW121447   9.994   3.870   9.593
39850SOL    HW221448  10.078   3.917   9.476
39851SOL     OW21449  14.839  13.694  13.257
39851SOL    HW121450   0.063  13.672  13.254
39851SOL    HW221451  14.799  13.637  13.191
39852SOL     OW21452   7.100   3.216   8.543
39852SOL    HW121453   7.100   3.187   8.451
39852SOL    HW221454   7.107   3.135   8.593
39853SOL     OW21455  12.340   4.137   4.124
39853SOL    HW121456  12.335   4.092   4.209
39853SOL    HW221457  12.309   4.226   4.142
39854SOL     OW21458  11.467  11.821  12.512
39854SOL    HW121459  11.378  11.856  12.504
39854SOL    HW221460  11.464  11.736  12.467
39855SOL     OW21461   8.876  10.390   6.826
39855SOL    HW121462   8.918  10.448   6.763
39855SOL    HW221463   8.927  10.309   6.822
39856SOL     OW21464  11.895   1.289   6.097
39856SOL    HW121465  11.942   1.291   6.180
39856SOL    HW221466  11.831   1.359   6.103
39857SOL     OW21467   0.966  13.164  13.680
39857SOL    HW121468   0.902  13.210  13.626
39857SOL    HW221469   1.041  13.223  13.685
39858SOL     OW21470   4.542   3.382   8.366
39858SOL    HW121471   4.535   3.413   8.456
39858SOL    HW221472   4.632   3.352   8.358
39859SOL     OW21473   8.078   6.927   6.965
39859SOL    HW121474   8.055   6.904   6.875
39859SOL    HW221475   8.053   6.850   7.017
39860SOL     OW21476  10.110   2.996  11.079
39860SOL    HW121477  10.109   3.009  10.985
39860SOL    HW221478  10.175   2.927  11.093
39861SOL     OW21479  14.080  11.276   0.130
39861SOL    HW121480  14.042  11.229   0.204
39861SOL    HW221481  14.005  11.296   0.074
39862SOL     OW21482   3.379  12.133  13.121
39862SOL    HW121483   3.428  12.198  13.070
39862SOL    HW221484   3.381  12.054  13.068
39863SOL     OW21485   4.254   8.872   5.293
39863SOL    HW121486   4.227   8.828   5.373
39863SOL    HW221487   4.233   8.965   5.308
39864SOL     OW21488  12.319   3.182  13.873
39864SOL    HW121489  12.402   3.162  13.915
39864SOL    HW221490  12.272   3.236  13.937
39865SOL     OW21491  11.229  14.090   0.395
39865SOL    HW121492  11.164  14.160   0.403
39865SOL    HW221493  11.199  14.038   0.320
39866SOL     OW21494  10.086   7.994   4.889
39866SOL    HW121495  10.036   7.934   4.834
39866SOL    HW221496  10.120   8.060   4.828
39867SOL     OW21497   1.609  14.576  11.318
39867SOL    HW121498   1.624  14.643  11.385
39867SOL    HW221499   1.695  14.559  11.281
39868SOL     OW21500   9.342  10.035   0.872
39868SOL    HW121501   9.399  10.091   0.818
39868SOL    HW221502   9.253  10.056   0.843
39869SOL     OW21503   2.460   7.314   4.148
39869SOL    HW121504   2.429   7.371   4.078
39869SOL    HW221505   2.524   7.257   4.105
39870SOL     OW21506  13.837   4.955   0.572
39870SOL    HW121507  13.792   4.871   0.564
39870SOL    HW221508  13.786   5.015   0.517
39871SOL     OW21509  11.221  10.152   3.840
39871SOL    HW121510  11.249  10.086   3.903
39871SOL    HW221511  11.212  10.104   3.757
39872SOL     OW21512   7.714   8.928   6.469
39872SOL    HW121513   7.743   8.910   6.558
39872SOL    HW221514   7.795   8.947   6.420
39873SOL     OW21515  14.151   5.050   3.888
39873SOL    HW121516  14.187   5.120   3.834
39873SOL    HW221517  14.171   4.970   3.840
39874SOL     OW21518   7.387   2.456   8.567
39874SOL    HW121519   7.363   2.430   8.657
39874SOL    HW221520   7.392   2.551   8.570
39875SOL     OW21521   0.035  12.229  11.112
39875SOL    HW121522  14.864  12.198  11.193
39875SOL    HW221523   0.111  12.172  11.100
39876SOL     OW21524   9.911  12.506  10.366
39876SOL    HW121525   9.870  12.472  10.286
39876SOL    HW221526   9.880  12.448  10.436
39877SOL     OW21527   2.797   8.154   5.924
39877SOL    HW121528   2.853   8.111   5.990
39877SOL    HW221529   2.818   8.247   5.932
39878SOL     OW21530   1.042  10.968   4.550
39878SOL    HW121531   1.107  11.034   4.525
39878SOL    HW221532   1.089  10.885   4.542
39879SOL     OW21533   2.897   3.810   0.104
39879SOL    HW121534   2.895   3.847   0.015
39879SOL    HW221535   2.835   3.738   0.101
39880SOL     OW21536   8.385   6.650  10.163
39880SOL    HW121537   8.328   6.618  10.093
39880SOL    HW221538   8.377   6.583  10.231
39881SOL     OW21539   8.787  13.380  11.227
39881SOL    HW121540   8.748  13.378  11.315
39881SOL    HW221541   8.826  13.467  11.221
39882SOL     OW21542   1.499   3.221  13.010
39882SOL    HW121543   1.573   3.162  12.993
39882SOL    HW221544   1.437   3.202  12.939
39883SOL     OW21545   0.489   8.748   7.772
39883SOL    HW121546   0.557   8.775   7.709
39883SOL    HW221547   0.433   8.689   7.722
39884SOL     OW21548  10.411   1.772  11.208
39884SOL    HW121549  10.376   1.848  11.161
39884SOL    HW221550  10.480   1.738  11.150
39885SOL     OW21551   3.675   3.034   0.009
39885SOL    HW121552   3.712   2.949  14.858
39885SOL    HW221553   3.584   3.016   0.034
39886SOL     OW21554  13.656   5.686  13.801
39886SOL    HW121555  13.561   5.678  13.812
39886SOL    HW221556  13.676   5.628  13.728
39887SOL     OW21557   1.133  14.712   9.710
39887SOL    HW121558   1.164  14.796   9.743
39887SOL    HW221559   1.083  14.734   9.632
39888SOL     OW21560  11.442  11.461  12.978
39888SOL    HW121561  11.383  11.516  12.928
39888SOL    HW221562  11.529  11.477  12.941
39889SOL     OW21563   7.171  14.081   0.272
39889SOL    HW121564   7.186  14.147   0.203
39889SOL    HW221565   7.166  14.132   0.353
39890SOL     OW21566   5.942  14.021   3.107
39890SOL    HW121567   5.894  14.029   3.025
39890SOL    HW221568   5.971  14.109   3.128
39891SOL     OW21569   0.367   9.869   4.000
39891SOL    HW121570   0.453   9.839   3.969
39891SOL    HW221571   0.360   9.834   4.088
39892SOL     OW21572   4.626   2.825  14.237
39892SOL    HW121573   4.568   2.895  14.266
39892SOL    HW221574   4.635   2.767  14.313
39893SOL     OW21575  11.296   1.835   0.768
39893SOL    HW121576  11.332   1.841   0.680
39893SOL    HW221577  11.214   1.787   0.757
39894SOL     OW21578   3.722  14.105  11.816
39894SOL    HW121579   3.736  14.089  11.722
39894SOL    HW221580   3.809  14.129  11.849
39895SOL     OW21581  13.814   7.503  13.441
39895SOL    HW121582  13.818   7.563  13.515
39895SOL    HW221583  13.741   7.444  13.462
39896SOL     OW21584   9.344  11.503  12.958
39896SOL    HW121585   9.259  11.481  12.996
39896SOL    HW221586   9.349  11.598  12.964
39897SOL     OW21587   7.356   0.994   9.335
39897SOL    HW121588   7.273   1.031   9.305
39897SOL    HW221589   7.378   1.045   9.413
39898SOL     OW21590   5.407   7.070   9.298
39898SOL    HW121591   5.392   7.085   9.391
39898SOL    HW221592   5.484   7.123   9.277
39899SOL     OW21593  10.094   9.586   9.873
39899SOL    HW121594  10.003   9.605   9.897
39899SOL    HW221595  10.145   9.610   9.950
39900SOL     OW21596  13.219   6.063   8.377
39900SOL    HW121597  13.200   6.104   8.461
39900SOL    HW221598  13.161   5.987   8.373
39901SOL     OW21599   9.174   3.665   5.304
39901SOL    HW121600   9.269   3.656   5.312
39901SOL    HW221601   9.139   3.590   5.351
39902SOL     OW21602  13.974  12.973   2.307
39902SOL    HW121603  13.921  12.899   2.338
39902SOL    HW221604  13.912  13.044   2.293
39903SOL     OW21605   6.073   1.786   6.225
39903SOL    HW121606   6.163   1.816   6.225
39903SOL    HW221607   6.078   1.696   6.192
39904SOL     OW21608   5.132  13.867  12.385
39904SOL    HW121609   5.206  13.916  12.422
39904SOL    HW221610   5.058  13.926  12.397
39905SOL     OW21611   8.236   2.490  13.734
39905SOL    HW121612   8.255   2.520  13.645
39905SOL    HW221613   8.182   2.412  13.723
39906SOL     OW21614   5.603  11.953   0.548
39906SOL    HW121615   5.542  11.918   0.613
39906SOL    HW221616   5.547  11.992   0.481
39907SOL     OW21617  10.244  12.592   2.949
39907SOL    HW121618  10.264  12.634   2.865
39907SOL    HW221619  10.309  12.627   3.010
39908SOL     OW21620   4.605   6.196  10.284
39908SOL    HW121621   4.566   6.284  10.279
39908SOL    HW221622   4.692   6.211  10.319
39909SOL     OW21623   1.805   3.183   4.907
39909SOL    HW121624   1.755   3.236   4.969
39909SOL    HW221625   1.772   3.094   4.919
39910SOL     OW21626   5.707   8.577   5.633
39910SOL    HW121627   5.742   8.527   5.559
39910SOL    HW221628   5.778   8.637   5.656
39911SOL     OW21629   5.092  12.491   8.676
39911SOL    HW121630   5.156  12.556   8.647
39911SOL    HW221631   5.141  12.433   8.734
39912SOL     OW21632  13.598   3.791   9.796
39912SOL    HW121633  13.690   3.807   9.817
39912SOL    HW221634  13.587   3.825   9.708
39913SOL     OW21635   7.794   1.027  12.804
39913SOL    HW121636   7.745   0.985  12.733
39913SOL    HW221637   7.761   1.116  12.807
39914SOL     OW21638  13.455   3.310  11.523
39914SOL    HW121639  13.486   3.220  11.516
39914SOL    HW221640  13.455   3.342  11.433
39915SOL     OW21641   0.586  10.268   7.612
39915SOL    HW121642   0.581  10.363   7.627
39915SOL    HW221643   0.578  10.230   7.700
39916SOL     OW21644  12.771   6.554   1.099
39916SOL    HW121645  12.854   6.575   1.056
39916SOL    HW221646  12.710   6.540   1.026
39917SOL     OW21647   2.662  14.690  11.704
39917SOL    HW121648   2.573  14.671  11.734
39917SOL    HW221649   2.693  14.760  11.762
39918SOL     OW21650   3.718  11.802   1.253
39918SOL    HW121651   3.808  11.768   1.257
39918SOL    HW221652   3.717  11.877   1.313
39919SOL     OW21653  11.642   6.295   5.555
39919SOL    HW121654  11.617   6.214   5.510
39919SOL    HW221655  11.585   6.361   5.516
39920SOL     OW21656   2.600   7.572   4.195
39920SOL    HW121657   2.607   7.524   4.277
39920SOL    HW221658   2.506   7.577   4.178
39921SOL     OW21659   1.180   3.346   5.378
39921SOL    HW121660   1.204   3.253   5.378
39921SOL    HW221661   1.110   3.353   5.313
39922SOL     OW21662  12.052   9.658   4.636
39922SOL    HW121663  12.112   9.585   4.651
39922SOL    HW221664  12.104   9.722   4.587
39923SOL     OW21665  13.843   7.591   9.273
39923SOL    HW121666  13.810   7.681   9.277
39923SOL    HW221667  13.784   7.545   9.214
39924SOL     OW21668  11.320  10.915   0.307
39924SOL    HW121669  11.342  11.007   0.292
39924SOL    HW221670  11.284  10.885   0.224
39925SOL     OW21671   9.977   5.376   3.194
39925SOL    HW121672   9.938   5.308   3.139
39925SOL    HW221673  10.059   5.336   3.226
39926SOL     OW21674  13.821   4.878   4.073
39926SOL    HW121675  13.864   4.914   4.150
39926SOL    HW221676  13.892   4.853   4.015
39927SOL     OW21677  11.302  10.497  13.307
39927SOL    HW121678  11.307  10.460  13.220
39927SOL    HW221679  11.265  10.428  13.361
39928SOL     OW21680  13.415  12.274   6.068
39928SOL    HW121681  13.368  12.248   5.989
39928SOL    HW221682  13.508  12.270   6.042
39929SOL     OW21683   7.152   5.711   8.617
39929SOL    HW121684   7.102   5.741   8.693
39929SOL    HW221685   7.140   5.616   8.616
39930SOL     OW21686  12.660   5.676  11.308
39930SOL    HW121687  12.603   5.749  11.284
39930SOL    HW221688  12.680   5.633  11.225
39931SOL     OW21689   4.076  11.723   8.638
39931SOL    HW121690   4.042  11.776   8.566
39931SOL    HW221691   4.014  11.651   8.646
39932SOL     OW21692  12.421   6.872  13.288
39932SOL    HW121693  12.503   6.917  13.268
39932SOL    HW221694  12.408   6.812  13.214
39933SOL     OW21695   2.502   2.184   1.837
39933SOL    HW121696   2.524   2.123   1.907
39933SOL    HW221697   2.425   2.231   1.869
39934SOL     OW21698  13.425   6.661   8.617
39934SOL    HW121699  13.497   6.691   8.562
39934SOL    HW221700  13.438   6.566   8.624
39935SOL     OW21701   4.344  11.242   7.464
39935SOL    HW121702   4.272  11.183   7.443
39935SOL    HW221703   4.370  11.220   7.553
39936SOL     OW21704   7.255   5.263  10.076
39936SOL    HW121705   7.197   5.238  10.004
39936SOL    HW221706   7.343   5.257  10.039
39937SOL     OW21707   2.456   4.860   3.988
39937SOL    HW121708   2.499   4.843   4.071
39937SOL    HW221709   2.485   4.948   3.963
39938SOL     OW21710  12.631   0.850  14.199
39938SOL    HW121711  12.627   0.941  14.169
39938SOL    HW221712  12.541   0.819  14.191
39939SOL     OW21713   7.401   4.825   0.974
39939SOL    HW121714   7.372   4.916   0.973
39939SOL    HW221715   7.462   4.818   0.901
39940SOL     OW21716   8.859   2.461  13.035
39940SOL    HW121717   8.914   2.483  12.959
39940SOL    HW221718   8.795   2.399  13.000
39941SOL     OW21719  13.292  14.262   8.953
39941SOL    HW121720  13.334  14.348   8.944
39941SOL    HW221721  13.359  14.206   8.992
39942SOL     OW21722   2.871   4.479  10.605
39942SOL    HW121723   2.914   4.479  10.691
39942SOL    HW221724   2.781   4.453  10.622
39943SOL     OW21725   2.217   3.563   5.899
39943SOL    HW121726   2.165   3.569   5.980
39943SOL    HW221727   2.159   3.597   5.831
39944SOL     OW21728   8.317  11.245   9.739
39944SOL    HW121729   8.319  11.309   9.667
39944SOL    HW221730   8.382  11.180   9.714
39945SOL     OW21731  14.697  12.680   8.293
39945SOL    HW121732  14.680  12.621   8.367
39945SOL    HW221733  14.793  12.687   8.290
39946SOL     OW21734   5.051   4.183  13.818
39946SOL    HW121735   5.031   4.095  13.786
39946SOL    HW221736   5.055   4.238  13.740
39947SOL     OW21737   0.711   8.908  12.099
39947SOL    HW121738   0.691   8.818  12.123
39947SOL    HW221739   0.729   8.904  12.005
39948SOL     OW21740  13.268   4.237   8.535
39948SOL    HW121741  13.347   4.265   8.581
39948SOL    HW221742  13.213   4.198   8.603
39949SOL     OW21743  14.804   3.596   1.477
39949SOL    HW121744   0.010   3.591   1.535
39949SOL    HW221745  14.789   3.689   1.465
39950SOL     OW21746   3.032   3.266   4.997
39950SOL    HW121747   3.095   3.319   5.046
39950SOL    HW221748   2.990   3.210   5.063
39951SOL     OW21749   6.126   2.883   7.587
39951SOL    HW121750   6.044   2.844   7.619
39951SOL    HW221751   6.098   2.942   7.517
39952SOL     OW21752   3.618   1.059  10.543
39952SOL    HW121753   3.591   1.030  10.456
39952SOL    HW221754   3.688   0.999  10.568
39953SOL     OW21755  10.405   6.260   1.518
39953SOL    HW121756  10.348   6.231   1.589
39953SOL    HW221757  10.394   6.355   1.516
39954SOL     OW21758   9.384   8.233   2.422
39954SOL    HW121759   9.362   8.147   2.456
39954SOL    HW221760   9.466   8.257   2.466
39955SOL     OW21761   8.738   6.167   6.011
39955SOL    HW121762   8.766   6.080   6.043
39955SOL    HW221763   8.785   6.229   6.067
39956SOL     OW21764   3.708   2.066   3.533
39956SOL    HW121765   3.696   2.009   3.457
39956SOL    HW221766   3.619   2.081   3.566
39957SOL     OW21767   3.843   4.992   6.157
39957SOL    HW121768   3.760   4.946   6.144
39957SOL    HW221769   3.909   4.923   6.149
39958SOL     OW21770  13.814  11.728   0.838
39958SOL    HW121771  13.860  11.801   0.879
39958SOL    HW221772  13.860  11.715   0.755
39959SOL     OW21773   2.907  13.111  11.703
39959SOL    HW121774   2.922  13.206  11.698
39959SOL    HW221775   2.850  13.100  11.780
39960SOL     OW21776  13.274   3.695  13.148
39960SOL    HW121777  13.277   3.624  13.212
39960SOL    HW221778  13.182   3.722  13.146
39961SOL     OW21779   2.113   9.832   4.264
39961SOL    HW121780   2.039   9.865   4.212
39961SOL    HW221781   2.158   9.911   4.294
39962SOL     OW21782   8.495   1.812   0.594
39962SOL    HW121783   8.515   1.903   0.617
39962SOL    HW221784   8.406   1.799   0.627
39963SOL     OW21785  11.317   0.499   6.939
39963SOL    HW121786  11.325   0.586   6.901
39963SOL    HW221787  11.387   0.494   7.005
39964SOL     OW21788   8.525   1.332   0.040
39964SOL    HW121789   8.501   1.261   0.098
39964SOL    HW221790   8.457   1.334  14.843
39965SOL     OW21791   5.996   5.779   0.301
39965SOL    HW121792   6.062   5.731   0.250
39965SOL    HW221793   6.027   5.772   0.391
39966SOL     OW21794   1.553   5.795  10.256
39966SOL    HW121795   1.573   5.884  10.228
39966SOL    HW221796   1.457   5.791  10.257
39967SOL     OW21797   0.464   0.734   1.808
39967SOL    HW121798   0.487   0.769   1.894
39967SOL    HW221799   0.389   0.786   1.780
39968SOL     OW21800  14.563   9.240   8.522
39968SOL    HW121801  14.593   9.326   8.554
39968SOL    HW221802  14.644   9.192   8.504
39969SOL     OW21803   3.411  11.059   9.247
39969SOL    HW121804   3.325  11.098   9.259
39969SOL    HW221805   3.464  11.095   9.318
39970SOL     OW21806   7.095   7.557   7.175
39970SOL    HW121807   7.037   7.625   7.141
39970SOL    HW221808   7.150   7.602   7.240
39971SOL     OW21809   6.174  12.203  10.524
39971SOL    HW121810   6.171  12.136  10.592
39971SOL    HW221811   6.201  12.283  10.570
39972SOL     OW21812   8.393  10.979   4.020
39972SOL    HW121813   8.435  11.047   4.072
39972SOL    HW221814   8.388  10.903   4.077
39973SOL     OW21815   6.662   3.312   4.943
39973SOL    HW121816   6.698   3.396   4.916
39973SOL    HW221817   6.650   3.263   4.861
39974SOL     OW21818   7.357  10.241   5.947
39974SOL    HW121819   7.299  10.244   6.022
39974SOL    HW221820   7.318  10.301   5.884
39975SOL     OW21821   1.345  11.891  10.349
39975SOL    HW121822   1.270  11.837  10.324
39975SOL    HW221823   1.394  11.903  10.267
39976SOL     OW21824   6.074   6.032  11.940
39976SOL    HW121825   6.040   6.025  11.850
39976SOL    HW221826   6.043   6.117  11.970
39977SOL     OW21827   9.116   0.541  10.944
39977SOL    HW121828   9.075   0.608  11.000
39977SOL    HW221829   9.042   0.502  10.897
39978SOL     OW21830   9.114   8.493  11.937
39978SOL    HW121831   9.111   8.587  11.955
39978SOL    HW221832   9.042   8.479  11.876
39979SOL     OW21833   2.710  13.403   0.267
39979SOL    HW121834   2.631  13.433   0.312
39979SOL    HW221835   2.725  13.468   0.198
39980SOL     OW21836  12.565  13.807   1.933
39980SOL    HW121837  12.546  13.749   1.859
39980SOL    HW221838  12.660  13.799   1.945
39981SOL     OW21839   8.691  10.881  13.321
39981SOL    HW121840   8.639  10.954  13.357
39981SOL    HW221841   8.781  10.910  13.331
39982SOL     OW21842   2.054   6.153   7.572
39982SOL    HW121843   1.976   6.169   7.625
39982SOL    HW221844   2.020   6.118   7.490
39983SOL     OW21845   5.001   8.290   1.714
39983SOL    HW121846   4.952   8.303   1.796
39983SOL    HW221847   4.946   8.329   1.647
39984SOL     OW21848   5.412   1.590   0.751
39984SOL    HW121849   5.402   1.683   0.773
39984SOL    HW221850   5.501   1.584   0.716
39985SOL     OW21851  12.973  11.294  13.235
39985SOL    HW121852  12.937  11.361  13.293
39985SOL    HW221853  13.004  11.225  13.293
39986SOL     OW21854  12.522   6.707   3.746
39986SOL    HW121855  12.504   6.796   3.716
39986SOL    HW221856  12.531   6.656   3.666
39987SOL     OW21857   0.951   7.829   1.870
39987SOL    HW121858   0.888   7.862   1.934
39987SOL    HW221859   0.952   7.734   1.883
39988SOL     OW21860   8.282   0.554  11.132
39988SOL    HW121861   8.240   0.632  11.169
39988SOL    HW221862   8.354   0.535  11.192
39989SOL     OW21863   4.305   2.310   2.334
39989SOL    HW121864   4.335   2.401   2.328
39989SOL    HW221865   4.210   2.317   2.346
39990SOL     OW21866   5.538   5.341   1.530
39990SOL    HW121867   5.476   5.388   1.474
39990SOL    HW221868   5.509   5.361   1.619
39991SOL     OW21869   8.275   9.462   7.033
39991SOL    HW121870   8.196   9.413   7.009
39991SOL    HW221871   8.244   9.528   7.095
39992SOL     OW21872   5.425   3.609  12.862
39992SOL    HW121873   5.494   3.566  12.913
39992SOL    HW221874   5.416   3.554  12.783
39993SOL     OW21875   2.714   0.658   5.378
39993SOL    HW121876   2.674   0.612   5.452
39993SOL    HW221877   2.799   0.687   5.412
39994SOL     OW21878  10.843   0.877  11.677
39994SOL    HW121879  10.840   0.782  11.688
39994SOL    HW221880  10.935   0.896  11.657
39995SOL     OW21881   5.570   0.095   4.913
39995SOL    HW121882   5.609   0.155   4.849
39995SOL    HW221883   5.477   0.115   4.911
39996SOL     OW21884   1.821   3.496   7.253
39996SOL    HW121885   1.847   3.466   7.340
39996SOL    HW221886   1.782   3.420   7.212
39997SOL     OW21887   4.984   3.293   2.371
39997SOL    HW121888   5.056   3.314   2.432
39997SOL    HW221889   4.922   3.243   2.424
39998SOL     OW21890  11.906  14.262   9.106
39998SOL    HW121891  11.905  14.307   9.022
39998SOL    HW221892  11.989  14.216   9.108
39999SOL     OW21893   1.049  11.729   3.046
39999SOL    HW121894   1.068  11.817   3.078
39999SOL    HW221895   0.958  11.713   3.072
40000SOL     OW21896   6.854   6.833   2.460
40000SOL    HW121897   6.888   6.846   2.549
40000SOL    HW221898   6.915   6.772   2.419
40001SOL     OW21899  10.836  13.461   5.499
40001SOL    HW121900  10.925  13.494   5.506
40001SOL    HW221901  10.805  13.492   5.413
40002SOL     OW21902  14.041   6.260   2.379
40002SOL    HW121903  14.013   6.196   2.313
40002SOL    HW221904  13.994   6.236   2.458
40003SOL     OW21905   7.141  10.742   0.497
40003SOL    HW121906   7.196  10.664   0.493
40003SOL    HW221907   7.111  10.754   0.407
40004SOL     OW21908  11.066   8.510  12.580
40004SOL    HW121909  11.027   8.571  12.642
40004SOL    HW221910  11.089   8.564  12.504
40005SOL     OW21911   8.507   9.300   2.674
40005SOL    HW121912   8.542   9.373   2.724
40005SOL    HW221913   8.434   9.338   2.624
40006SOL     OW21914   8.023   1.410   6.870
40006SOL    HW121915   8.001   1.482   6.811
40006SOL    HW221916   7.963   1.420   6.944
40007SOL     OW21917   4.765  10.397  14.766
40007SOL    HW121918   4.746  10.475  14.713
40007SOL    HW221919   4.860  10.384  14.756
40008SOL     OW21920   8.489   2.310   5.662
40008SOL    HW121921   8.431   2.247   5.705
40008SOL    HW221922   8.430   2.377   5.628
40009SOL     OW21923   5.792  12.195  14.269
40009SOL    HW121924   5.838  12.193  14.186
40009SOL    HW221925   5.707  12.233  14.249
40010SOL     OW21926   2.177  10.389   2.033
40010SOL    HW121927   2.093  10.349   2.056
40010SOL    HW221928   2.230  10.380   2.112
40011SOL     OW21929   3.184   7.269   1.172
40011SOL    HW121930   3.167   7.180   1.140
40011SOL    HW221931   3.248   7.304   1.109
40012SOL     OW21932   6.954   2.237   9.439
40012SOL    HW121933   6.868   2.240   9.480
40012SOL    HW221934   6.937   2.211   9.349
40013SOL     OW21935  14.193   7.725   8.210
40013SOL    HW121936  14.176   7.733   8.117
40013SOL    HW221937  14.234   7.808   8.235
40014SOL     OW21938   1.545  10.830   8.624
40014SOL    HW121939   1.620  10.858   8.677
40014SOL    HW221940   1.498  10.911   8.605
40015SOL     OW21941  13.172   8.197   6.330
40015SOL    HW121942  13.154   8.117   6.279
40015SOL    HW221943  13.237   8.169   6.395
40016SOL     OW21944   7.425   8.078   9.988
40016SOL    HW121945   7.444   8.059   9.897
40016SOL    HW221946   7.510   8.103  10.026
40017SOL     OW21947   1.058  11.240   1.932
40017SOL    HW121948   1.013  11.282   2.006
40017SOL    HW221949   1.125  11.185   1.973
40018SOL     OW21950  11.650   1.368   4.311
40018SOL    HW121951  11.650   1.388   4.405
40018SOL    HW221952  11.559   1.382   4.283
40019SOL     OW21953   7.541   1.395  14.649
40019SOL    HW121954   7.497   1.339  14.584
40019SOL    HW221955   7.628   1.357  14.658
40020SOL     OW21956  12.829   8.038   4.537
40020SOL    HW121957  12.904   8.058   4.593
40020SOL    HW221958  12.803   8.123   4.502
40021SOL     OW21959  12.574   4.543   0.287
40021SOL    HW121960  12.616   4.507   0.365
40021SOL    HW221961  12.485   4.564   0.314
40022SOL     OW21962   5.193   8.625   7.650
40022SOL    HW121963   5.138   8.683   7.702
40022SOL    HW221964   5.266   8.603   7.708
40023SOL     OW21965  14.388   7.318   5.562
40023SOL    HW121966  14.375   7.276   5.477
40023SOL    HW221967  14.456   7.266   5.604
40024SOL     OW21968   1.606   9.635  12.481
40024SOL    HW121969   1.661   9.619  12.557
40024SOL    HW221970   1.551   9.710  12.506
40025SOL     OW21971  10.091   1.619   3.793
40025SOL    HW121972  10.171   1.643   3.746
40025SOL    HW221973  10.062   1.701   3.833
40026SOL     OW21974   7.080   3.810   9.829
40026SOL    HW121975   6.994   3.825   9.869
40026SOL    HW221976   7.132   3.886   9.855
40027SOL     OW21977   6.349  10.097  12.237
40027SOL    HW121978   6.323  10.010  12.267
40027SOL    HW221979   6.297  10.157  12.290
40028SOL     OW21980  14.594   9.477   2.193
40028SOL    HW121981  14.633   9.510   2.274
40028SOL    HW221982  14.664   9.427   2.151
40029SOL     OW21983   0.098  10.319  10.620
40029SOL    HW121984   0.182  10.363  10.604
40029SOL    HW221985   0.052  10.322  10.537
40030SOL     OW21986   0.819   0.871   2.788
40030SOL    HW121987   0.902   0.882   2.835
40030SOL    HW221988   0.762   0.939   2.823
40031SOL     OW21989   9.407   4.244  14.704
40031SOL    HW121990   9.333   4.273  14.651
40031SOL    HW221991   9.380   4.158  14.737
40032SOL     OW21992   5.140  14.743   6.006
40032SOL    HW121993   5.154  14.673   6.069
40032SOL    HW221994   5.179  14.710   5.925
40033SOL     OW21995  10.567  14.129   6.834
40033SOL    HW121996  10.660  14.119   6.855
40033SOL    HW221997  10.526  14.155   6.916
40034SOL     OW21998  12.099   3.535  12.264
40034SOL    HW121999  12.157   3.584  12.322
40034SOL    HW222000  12.113   3.573  12.178
40035SOL     OW22001  14.639  12.700   0.497
40035SOL    HW122002  14.660  12.681   0.589
40035SOL    HW222003  14.705  12.653   0.447
40036SOL     OW22004   9.238   9.849   4.589
40036SOL    HW122005   9.274   9.772   4.633
40036SOL    HW222006   9.210   9.907   4.659
40037SOL     OW22007   1.113   0.560   9.172
40037SOL    HW122008   1.112   0.613   9.093
40037SOL    HW222009   1.194   0.585   9.217
40038SOL     OW22010   9.223   6.761   9.223
40038SOL    HW122011   9.187   6.782   9.309
40038SOL    HW222012   9.169   6.689   9.191
40039SOL     OW22013  13.334   5.442   3.597
40039SOL    HW122014  13.346   5.400   3.683
40039SOL    HW222015  13.298   5.373   3.541
40040SOL     OW22016   7.776   3.421   7.262
40040SOL    HW122017   7.792   3.510   7.232
40040SOL    HW222018   7.684   3.405   7.242
40041SOL     OW22019   1.435   3.891  11.039
40041SOL    HW122020   1.499   3.821  11.052
40041SOL    HW222021   1.451   3.922  10.950
40042SOL     OW22022  10.662   4.432  13.254
40042SOL    HW122023  10.691   4.416  13.344
40042SOL    HW222024  10.568   4.449  13.263
40043SOL     OW22025   9.461  10.122  12.567
40043SOL    HW122026   9.437  10.202  12.521
40043SOL    HW222027   9.429  10.135  12.657
40044SOL     OW22028  14.848   3.274   6.871
40044SOL    HW122029   0.065   3.242   6.845
40044SOL    HW222030  14.787   3.223   6.818
40045SOL     OW22031   5.723   5.911   0.284
40045SOL    HW122032   5.792   5.892   0.347
40045SOL    HW222033   5.712   6.006   0.289
40046SOL     OW22034  14.525   0.386   8.747
40046SOL    HW122035  14.458   0.319   8.735
40046SOL    HW222036  14.491   0.441   8.818
40047SOL     OW22037   4.689  11.319  14.184
40047SOL    HW122038   4.610  11.290  14.230
40047SOL    HW222039   4.759  11.268  14.223
40048SOL     OW22040  13.492   0.460   3.041
40048SOL    HW122041  13.557   0.526   3.018
40048SOL    HW222042  13.507   0.388   2.980
40049SOL     OW22043   7.669  11.301   5.682
40049SOL    HW122044   7.589  11.249   5.678
40049SOL    HW222045   7.731  11.253   5.628
40050SOL     OW22046   0.859   1.711  13.223
40050SOL    HW122047   0.777   1.690  13.268
40050SOL    HW222048   0.906   1.767  13.285
40051SOL     OW22049   9.496   6.149   9.060
40051SOL    HW122050   9.537   6.123   8.977
40051SOL    HW222051   9.558   6.119   9.127
40052SOL     OW22052   4.390   9.297  13.110
40052SOL    HW122053   4.378   9.220  13.054
40052SOL    HW222054   4.301   9.322  13.134
40053SOL     OW22055   1.538   2.388   3.731
40053SOL    HW122056   1.621   2.376   3.685
40053SOL    HW222057   1.550   2.342   3.815
40054SOL     OW22058   5.150   7.407  13.748
40054SOL    HW122059   5.197   7.392  13.830
40054SOL    HW222060   5.058   7.391  13.770
40055SOL     OW22061  10.890   1.744   7.448
40055SOL    HW122062  10.907   1.657   7.414
40055SOL    HW222063  10.968   1.766   7.500
40056SOL     OW22064   5.964   0.168   9.368
40056SOL    HW122065   5.912   0.165   9.448
40056SOL    HW222066   6.040   0.221   9.391
40057SOL     OW22067  10.356   9.563  11.706
40057SOL    HW122068  10.319   9.625  11.768
40057SOL    HW222069  10.401   9.618  11.642
40058SOL     OW22070   7.145  10.125   6.770
40058SOL    HW122071   7.137  10.062   6.841
40058SOL    HW222072   7.150  10.210   6.813
40059SOL     OW22073   7.389  12.583   5.688
40059SOL    HW122074   7.322  12.560   5.624
40059SOL    HW222075   7.380  12.517   5.757
40060SOL     OW22076   3.665   8.741   9.593
40060SOL    HW122077   3.608   8.815   9.613
40060SOL    HW222078   3.738   8.750   9.653
40061SOL     OW22079   9.580   5.955   8.629
40061SOL    HW122080   9.644   5.966   8.699
40061SOL    HW222081   9.539   5.871   8.647
40062SOL     OW22082   3.416  10.329   4.601
40062SOL    HW122083   3.403  10.393   4.532
40062SOL    HW222084   3.497  10.283   4.577
40063SOL     OW22085   2.912   4.099   3.508
40063SOL    HW122086   2.979   4.162   3.535
40063SOL    HW222087   2.831   4.150   3.507
40064SOL     OW22088  11.772   8.641   2.967
40064SOL    HW122089  11.815   8.573   2.915
40064SOL    HW222090  11.709   8.680   2.907
40065SOL     OW22091  12.751   4.788   4.179
40065SOL    HW122092  12.808   4.761   4.106
40065SOL    HW222093  12.796   4.863   4.218
40066SOL     OW22094  13.119   4.942  11.308
40066SOL    HW122095  13.053   5.006  11.281
40066SOL    HW222096  13.176   4.933  11.231
40067SOL     OW22097  14.771   2.948  11.575
40067SOL    HW122098  14.725   2.943  11.491
40067SOL    HW222099  14.705   2.982  11.636
40068SOL     OW22100   8.123   4.010   2.633
40068SOL    HW122101   8.076   4.064   2.570
40068SOL    HW222102   8.114   4.057   2.716
40069SOL     OW22103   6.683  13.891   3.599
40069SOL    HW122104   6.676  13.829   3.526
40069SOL    HW222105   6.675  13.977   3.558
40070SOL     OW22106   7.149   0.044   9.384
40070SOL    HW122107   7.168  14.820   9.381
40070SOL    HW222108   7.082   0.057   9.316
40071SOL     OW22109   7.910  13.708   3.919
40071SOL    HW122110   7.824  13.666   3.921
40071SOL    HW222111   7.892  13.800   3.902
40072SOL     OW22112   2.617   3.694   6.706
40072SOL    HW122113   2.541   3.739   6.669
40072SOL    HW222114   2.688   3.712   6.644
40073SOL     OW22115   2.970   1.869  11.401
40073SOL    HW122116   2.944   1.961  11.405
40073SOL    HW222117   2.888   1.822  11.385
40074SOL     OW22118   8.566  13.453  11.891
40074SOL    HW122119   8.645  13.498  11.920
40074SOL    HW222120   8.524  13.514  11.831
40075SOL     OW22121   4.816   4.625  13.539
40075SOL    HW122122   4.909   4.638  13.560
40075SOL    HW222123   4.807   4.656  13.449
40076SOL     OW22124   8.413   9.073  12.508
40076SOL    HW122125   8.368   8.988  12.503
40076SOL    HW222126   8.396   9.103  12.597
40077SOL     OW22127   5.546   1.407  14.780
40077SOL    HW122128   5.552   1.500  14.801
40077SOL    HW222129   5.572   1.362  14.860
40078SOL     OW22130   2.806  12.820   8.177
40078SOL    HW122131   2.764  12.793   8.095
40078SOL    HW222132   2.736  12.863   8.227
40079SOL     OW22133   6.656   1.618   1.443
40079SOL    HW122134   6.594   1.627   1.370
40079SOL    HW222135   6.625   1.680   1.508
40080SOL     OW22136   6.510  10.422   7.307
40080SOL    HW122137   6.525  10.346   7.363
40080SOL    HW222138   6.418  10.417   7.282
40081SOL     OW22139  10.208   0.671   1.972
40081SOL    HW122140  10.201   0.576   1.975
40081SOL    HW222141  10.134   0.700   1.919
40082SOL     OW22142  12.185   0.196   3.807
40082SOL    HW122143  12.173   0.117   3.755
40082SOL    HW222144  12.161   0.267   3.747
40083SOL     OW22145  13.358  14.712   3.954
40083SOL    HW122146  13.444  14.743   3.981
40083SOL    HW222147  13.351  14.623   3.989
40084SOL     OW22148   2.427   4.096  13.193
40084SOL    HW122149   2.460   4.007  13.206
40084SOL    HW222150   2.332   4.089  13.206
40085SOL     OW22151  13.584   2.120   9.044
40085SOL    HW122152  13.631   2.147   8.965
40085SOL    HW222153  13.631   2.043   9.075
40086SOL     OW22154  10.131   2.754   5.203
40086SOL    HW122155  10.104   2.682   5.145
40086SOL    HW222156  10.222   2.771   5.179
40087SOL     OW22157   5.616   7.270   9.690
40087SOL    HW122158   5.580   7.209   9.625
40087SOL    HW222159   5.613   7.221   9.772
40088SOL     OW22160   8.424   2.077   2.354
40088SOL    HW122161   8.356   2.037   2.299
40088SOL    HW222162   8.503   2.027   2.333
40089SOL     OW22163   1.347   5.375  10.159
40089SOL    HW122164   1.335   5.458  10.112
40089SOL    HW222165   1.334   5.397  10.251
40090SOL     OW22166   1.404   5.771   5.751
40090SOL    HW122167   1.445   5.788   5.666
40090SOL    HW222168   1.427   5.846   5.805
40091SOL     OW22169   6.579   0.599   6.677
40091SOL    HW122170   6.552   0.538   6.746
40091SOL    HW222171   6.503   0.655   6.664
40092SOL     OW22172  13.221  11.885   0.122
40092SOL    HW122173  13.246  11.977   0.133
40092SOL    HW222174  13.277  11.837   0.183
40093SOL     OW22175   3.174  14.462   0.586
40093SOL    HW122176   3.098  14.404   0.593
40093SOL    HW222177   3.232  14.435   0.657
40094SOL     OW22178   2.584   0.054   5.544
40094SOL    HW122179   2.571   0.041   5.638
40094SOL    HW222180   2.566  14.838   5.505
40095SOL     OW22181   5.646  11.834  12.691
40095SOL    HW122182   5.570  11.776  12.687
40095SOL    HW222183   5.610  11.922  12.687
40096SOL     OW22184   1.214   9.248   4.482
40096SOL    HW122185   1.300   9.211   4.460
40096SOL    HW222186   1.190   9.299   4.404
40097SOL     OW22187   8.047  11.454   1.336
40097SOL    HW122188   8.118  11.398   1.368
40097SOL    HW222189   8.016  11.499   1.414
40098SOL     OW22190  10.208   8.138  11.883
40098SOL    HW122191  10.284   8.157  11.936
40098SOL    HW222192  10.144   8.206  11.905
40099SOL     OW22193  10.015   4.096  11.138
40099SOL    HW122194  10.101   4.070  11.169
40099SOL    HW222195   9.955   4.032  11.177
40100SOL     OW22196   1.803  10.370   9.076
40100SOL    HW122197   1.766  10.327   8.999
40100SOL    HW222198   1.870  10.428   9.041
40101SOL     OW22199  12.109  11.254   3.025
40101SOL    HW122200  12.069  11.334   3.057
40101SOL    HW222201  12.125  11.271   2.932
40102SOL     OW22202  11.168   6.833  10.149
40102SOL    HW122203  11.213   6.861  10.069
40102SOL    HW222204  11.201   6.745  10.166
40103SOL     OW22205   6.115   5.445  11.288
40103SOL    HW122206   6.187   5.463  11.228
40103SOL    HW222207   6.036   5.455  11.235
40104SOL     OW22208  13.699   0.584  14.486
40104SOL    HW122209  13.713   0.647  14.556
40104SOL    HW222210  13.783   0.537  14.479
40105SOL     OW22211   9.008   4.586   9.892
40105SOL    HW122212   8.973   4.499   9.872
40105SOL    HW222213   9.075   4.602   9.826
40106SOL     OW22214   9.291  13.297   5.696
40106SOL    HW122215   9.261  13.368   5.753
40106SOL    HW222216   9.267  13.217   5.743
40107SOL     OW22217   4.279   3.154   8.399
40107SOL    HW122218   4.265   3.135   8.306
40107SOL    HW222219   4.367   3.123   8.418
40108SOL     OW22220  13.911  11.112   9.289
40108SOL    HW122221  13.959  11.036   9.321
40108SOL    HW222222  13.925  11.179   9.356
40109SOL     OW22223   9.890   4.592   9.383
40109SOL    HW122224   9.797   4.601   9.360
40109SOL    HW222225   9.891   4.529   9.455
40110SOL     OW22226  12.981  10.611   0.469
40110SOL    HW122227  12.958  10.703   0.473
40110SOL    HW222228  12.975  10.580   0.560
40111SOL     OW22229  14.685   6.151   1.355
40111SOL    HW122230  14.753   6.118   1.296
40111SOL    HW222231  14.623   6.078   1.365
40112SOL     OW22232   9.065   1.714   9.291
40112SOL    HW122233   9.002   1.734   9.360
40112SOL    HW222234   9.123   1.791   9.289
40113SOL     OW22235  11.666   4.226   0.177
40113SOL    HW122236  11.615   4.270   0.108
40113SOL    HW222237  11.751   4.209   0.136
40114SOL     OW22238   3.861   8.285  12.021
40114SOL    HW122239   3.937   8.298  12.078
40114SOL    HW222240   3.786   8.298  12.078
40115SOL     OW22241  13.227   6.645   6.389
40115SOL    HW122242  13.213   6.653   6.295
40115SOL    HW222243  13.214   6.552   6.407
40116SOL     OW22244   5.588  12.597  13.489
40116SOL    HW122245   5.660  12.566  13.433
40116SOL    HW222246   5.625  12.599  13.577
40117SOL     OW22247  13.667   4.808   5.531
40117SOL    HW122248  13.638   4.743   5.468
40117SOL    HW222249  13.762   4.797   5.537
40118SOL     OW22250   3.483  11.397  12.073
40118SOL    HW122251   3.514  11.345  11.998
40118SOL    HW222252   3.509  11.487  12.052
40119SOL     OW22253   2.439   4.026   6.112
40119SOL    HW122254   2.527   3.989   6.102
40119SOL    HW222255   2.381   3.963   6.069
40120SOL     OW22256   6.275   5.355   3.359
40120SOL    HW122257   6.327   5.275   3.370
40120SOL    HW222258   6.210   5.352   3.429
40121SOL     OW22259   1.475  12.152  12.840
40121SOL    HW122260   1.469  12.163  12.745
40121SOL    HW222261   1.472  12.057  12.853
40122SOL     OW22262   3.242   7.260  10.115
40122SOL    HW122263   3.289   7.343  10.126
40122SOL    HW222264   3.225   7.255  10.021
40123SOL     OW22265   2.292   8.891  14.432
40123SOL    HW122266   2.355   8.933  14.490
40123SOL    HW222267   2.283   8.802  14.467
40124SOL     OW22268  13.401  10.301   5.173
40124SOL    HW122269  13.427  10.369   5.111
40124SOL    HW222270  13.308  10.318   5.190
40125SOL     OW22271   0.918   4.913  10.241
40125SOL    HW122272   0.974   4.959  10.303
40125SOL    HW222273   0.875   4.983  10.191
40126SOL     OW22274   9.863  12.208   0.642
40126SOL    HW122275   9.794  12.168   0.694
40126SOL    HW222276   9.887  12.141   0.578
40127SOL     OW22277   4.759   1.315   4.296
40127SOL    HW122278   4.768   1.308   4.201
40127SOL    HW222279   4.822   1.252   4.331
40128SOL     OW22280   0.449   2.713   3.148
40128SOL    HW122281   0.403   2.786   3.190
40128SOL    HW222282   0.520   2.754   3.099
40129SOL     OW22283   2.924  10.010  10.210
40129SOL    HW122284   3.000  10.031  10.263
40129SOL    HW222285   2.922   9.914  10.207
40130SOL     OW22286   6.239   1.277   8.177
40130SOL    HW122287   6.268   1.334   8.106
40130SOL    HW222288   6.310   1.213   8.186
40131SOL     OW22289  12.871  14.414   6.069
40131SOL    HW122290  12.885  14.430   5.976
40131SOL    HW222291  12.815  14.337   6.072
40132SOL     OW22292   3.774  11.993  10.884
40132SOL    HW122293   3.761  11.976  10.977
40132SOL    HW222294   3.810  12.081  10.880
40133SOL     OW22295  10.697   7.676   6.526
40133SOL    HW122296  10.628   7.720   6.478
40133SOL    HW222297  10.685   7.704   6.617
40134SOL     OW22298   7.505   9.853   8.641
40134SOL    HW122299   7.507   9.773   8.693
40134SOL    HW222300   7.556   9.916   8.692
40135SOL     OW22301   1.676   0.576   4.421
40135SOL    HW122302   1.753   0.565   4.364
40135SOL    HW222303   1.630   0.652   4.385
40136SOL     OW22304   6.235   4.507   8.166
40136SOL    HW122305   6.277   4.450   8.230
40136SOL    HW222306   6.300   4.517   8.096
40137SOL     OW22307  14.151  11.095  13.921
40137SOL    HW122308  14.061  11.063  13.924
40137SOL    HW222309  14.153  11.166  13.985
40138SOL     OW22310   2.001  11.794  13.894
40138SOL    HW122311   1.942  11.722  13.917
40138SOL    HW222312   1.975  11.819  13.806
40139SOL     OW22313   7.959  11.795   1.974
40139SOL    HW122314   8.034  11.850   1.950
40139SOL    HW222315   7.883  11.839   1.937
40140SOL     OW22316   8.511   7.370   3.829
40140SOL    HW122317   8.563   7.363   3.908
40140SOL    HW222318   8.443   7.303   3.838
40141SOL     OW22319   1.489   6.638   1.766
40141SOL    HW122320   1.567   6.589   1.738
40141SOL    HW222321   1.428   6.630   1.693
40142SOL     OW22322   3.070   3.426   5.244
40142SOL    HW122323   3.040   3.336   5.256
40142SOL    HW222324   3.138   3.438   5.311
40143SOL     OW22325  11.933   7.597   6.013
40143SOL    HW122326  11.854   7.628   5.969
40143SOL    HW222327  12.001   7.659   5.985
40144SOL     OW22328  14.483  14.478   0.695
40144SOL    HW122329  14.431  14.488   0.775
40144SOL    HW222330  14.434  14.529   0.630
40145SOL     OW22331   9.460   9.361  12.781
40145SOL    HW122332   9.370   9.394  12.769
40145SOL    HW222333   9.510   9.401  12.710
40146SOL     OW22334   5.983   4.831  10.709
40146SOL    HW122335   5.932   4.815  10.629
40146SOL    HW222336   5.975   4.749  10.758
40147SOL     OW22337  12.981   0.464   1.446
40147SOL    HW122338  12.915   0.530   1.467
40147SOL    HW222339  13.052   0.513   1.406
40148SOL     OW22340   9.153  10.083  12.347
40148SOL    HW122341   9.107  10.146  12.403
40148SOL    HW222342   9.163  10.005  12.402
40149SOL     OW22343  14.185  10.285   9.711
40149SOL    HW122344  14.266  10.281   9.763
40149SOL    HW222345  14.195  10.365   9.659
40150SOL     OW22346  13.224   2.908  12.533
40150SOL    HW122347  13.293   2.842  12.543
40150SOL    HW222348  13.170   2.876  12.461
40151SOL     OW22349   3.651  14.130  12.733
40151SOL    HW122350   3.573  14.155  12.782
40151SOL    HW222351   3.673  14.043  12.767
40152SOL     OW22352   7.315  14.770  13.229
40152SOL    HW122353   7.392  14.808  13.187
40152SOL    HW222354   7.286  14.701  13.168
40153SOL     OW22355   5.331   0.108   0.477
40153SOL    HW122356   5.397   0.057   0.524
40153SOL    HW222357   5.363   0.198   0.481
40154SOL     OW22358   2.275   1.189   4.113
40154SOL    HW122359   2.185   1.199   4.145
40154SOL    HW222360   2.290   1.267   4.059
40155SOL     OW22361  10.082  11.726   5.957
40155SOL    HW122362  10.051  11.814   5.976
40155SOL    HW222363  10.173  11.726   5.986
40156SOL     OW22364   1.269   4.234  12.168
40156SOL    HW122365   1.275   4.226  12.073
40156SOL    HW222366   1.263   4.328  12.183
40157SOL     OW22367  14.311   2.292  14.714
40157SOL    HW122368  14.326   2.203  14.746
40157SOL    HW222369  14.240   2.283  14.650
40158SOL     OW22370  14.006   1.666   8.081
40158SOL    HW122371  14.035   1.596   8.140
40158SOL    HW222372  14.034   1.746   8.125
40159SOL     OW22373   7.882   0.899   0.149
40159SOL    HW122374   7.806   0.875   0.202
40159SOL    HW222375   7.894   0.825   0.090
40160SOL     OW22376   3.273   8.810   3.656
40160SOL    HW122377   3.334   8.754   3.705
40160SOL    HW222378   3.189   8.763   3.661
40161SOL     OW22379   0.848   1.637   6.895
40161SOL    HW122380   0.901   1.631   6.974
40161SOL    HW222381   0.896   1.583   6.831
40162SOL     OW22382   1.527   9.631   4.562
40162SOL    HW122383   1.439   9.595   4.577
40162SOL    HW222384   1.577   9.558   4.527
40163SOL     OW22385   8.875  14.326  12.847
40163SOL    HW122386   8.908  14.255  12.792
40163SOL    HW222387   8.810  14.285  12.904
40164SOL     OW22388   9.314   5.313   3.944
40164SOL    HW122389   9.352   5.399   3.964
40164SOL    HW222390   9.374   5.251   3.985
40165SOL     OW22391   4.211   9.806  10.901
40165SOL    HW122392   4.124   9.773  10.924
40165SOL    HW222393   4.271   9.739  10.933
40166SOL     OW22394  10.213  11.707   2.284
40166SOL    HW122395  10.191  11.673   2.371
40166SOL    HW222396  10.252  11.792   2.301
40167SOL     OW22397  13.933  11.939  10.880
40167SOL    HW122398  14.015  11.986  10.900
40167SOL    HW222399  13.864  11.999  10.909
40168SOL     OW22400   9.457  12.814  12.583
40168SOL    HW122401   9.380  12.803  12.639
40168SOL    HW222402   9.445  12.748  12.514
40169SOL     OW22403   5.270   9.865   0.399
40169SOL    HW122404   5.304   9.952   0.379
40169SOL    HW222405   5.268   9.820   0.315
40170SOL     OW22406   6.871   8.973   8.527
40170SOL    HW122407   6.867   8.980   8.432
40170SOL    HW222408   6.791   9.016   8.557
40171SOL     OW22409   6.900   8.627   8.404
40171SOL    HW122410   6.926   8.643   8.313
40171SOL    HW222411   6.823   8.682   8.417
40172SOL     OW22412   7.710  12.600   0.661
40172SOL    HW122413   7.664  12.572   0.582
40172SOL    HW222414   7.738  12.519   0.703
40173SOL     OW22415   4.838  10.000   7.207
40173SOL    HW122416   4.896   9.943   7.258
40173SOL    HW222417   4.777  10.036   7.272
40174SOL     OW22418   5.717   0.112  11.737
40174SOL    HW122419   5.712   0.117  11.641
40174SOL    HW222420   5.631   0.081  11.764
40175SOL     OW22421   1.070   8.524   5.664
40175SOL    HW122422   1.014   8.462   5.616
40175SOL    HW222423   1.150   8.530   5.611
40176SOL     OW22424   4.536   5.363   2.605
40176SOL    HW122425   4.526   5.357   2.510
40176SOL    HW222426   4.593   5.289   2.628
40177SOL     OW22427   4.335  13.777   0.522
40177SOL    HW122428   4.252  13.813   0.555
40177SOL    HW222429   4.319  13.766   0.428
40178SOL     OW22430   0.567  13.013   8.163
40178SOL    HW122431   0.638  13.040   8.221
40178SOL    HW222432   0.570  13.075   8.090
40179SOL     OW22433   0.412  13.124   5.486
40179SOL    HW122434   0.499  13.083   5.488
40179SOL    HW222435   0.427  13.208   5.442
40180SOL     OW22436   5.668  10.710   8.322
40180SOL    HW122437   5.632  10.621   8.319
40180SOL    HW222438   5.712  10.715   8.407
40181SOL     OW22439  12.739   8.441  10.034
40181SOL    HW122440  12.810   8.490   9.992
40181SOL    HW222441  12.770   8.425  10.123
40182SOL     OW22442   2.520   4.476   0.746
40182SOL    HW122443   2.483   4.399   0.702
40182SOL    HW222444   2.554   4.443   0.829
40183SOL     OW22445   2.380  13.787   1.416
40183SOL    HW122446   2.475  13.800   1.414
40183SOL    HW222447   2.365  13.735   1.495
40184SOL     OW22448   9.485   8.589  12.568
40184SOL    HW122449   9.548   8.553  12.630
40184SOL    HW222450   9.537   8.606  12.489
40185SOL     OW22451  11.715  10.626  12.932
40185SOL    HW122452  11.794  10.575  12.919
40185SOL    HW222453  11.687  10.604  13.021
40186SOL     OW22454   2.890   7.941  12.351
40186SOL    HW122455   2.806   7.985  12.343
40186SOL    HW222456   2.896   7.916  12.443
40187SOL     OW22457   5.193   8.610  13.993
40187SOL    HW122458   5.234   8.683  13.947
40187SOL    HW222459   5.139   8.651  14.060
40188SOL     OW22460   7.366   7.557   5.679
40188SOL    HW122461   7.418   7.584   5.603
40188SOL    HW222462   7.296   7.503   5.643
40189SOL     OW22463   1.403   8.832   5.759
40189SOL    HW122464   1.388   8.927   5.764
40189SOL    HW222465   1.402   8.813   5.665
40190SOL     OW22466  12.932   2.628   5.624
40190SOL    HW122467  12.897   2.606   5.710
40190SOL    HW222468  12.876   2.698   5.592
40191SOL     OW22469   2.275  13.218   3.861
40191SOL    HW122470   2.286  13.312   3.876
40191SOL    HW222471   2.226  13.213   3.779
40192SOL     OW22472   4.649  11.995  13.118
40192SOL    HW122473   4.625  12.068  13.062
40192SOL    HW222474   4.687  12.036  13.196
40193SOL     OW22475  11.557   0.060   8.891
40193SOL    HW122476  11.486   0.113   8.856
40193SOL    HW222477  11.615   0.122   8.935
40194SOL     OW22478  11.143   4.117  14.184
40194SOL    HW122479  11.095   4.038  14.208
40194SOL    HW222480  11.221   4.115  14.239
40195SOL     OW22481   5.908  11.783  12.824
40195SOL    HW122482   5.829  11.823  12.787
40195SOL    HW222483   5.884  11.760  12.914
40196SOL     OW22484   6.387   0.905   1.015
40196SOL    HW122485   6.308   0.892   1.067
40196SOL    HW222486   6.443   0.960   1.069
40197SOL     OW22487  11.108  13.314  12.552
40197SOL    HW122488  11.186  13.349  12.595
40197SOL    HW222489  11.135  13.228  12.520
40198SOL     OW22490   0.200  11.922   0.603
40198SOL    HW122491   0.237  12.001   0.643
40198SOL    HW222492   0.122  11.954   0.556
40199SOL     OW22493   7.562   4.259   2.976
40199SOL    HW122494   7.584   4.343   3.017
40199SOL    HW222495   7.609   4.195   3.028
40200SOL     OW22496   6.526  10.315   5.917
40200SOL    HW122497   6.469  10.248   5.879
40200SOL    HW222498   6.523  10.299   6.011
40201SOL     OW22499   0.042   0.539   5.992
40201SOL    HW122500  14.863   0.619   5.972
40201SOL    HW222501   0.122   0.547   5.940
40202SOL     OW22502   3.135  10.545  13.069
40202SOL    HW122503   3.123  10.450  13.065
40202SOL    HW222504   3.091  10.578  12.991
40203SOL     OW22505   1.954  11.571   0.101
40203SOL    HW122506   1.938  11.609   0.187
40203SOL    HW222507   1.867  11.554   0.065
40204SOL     OW22508  10.386   9.709  14.667
40204SOL    HW122509  10.363   9.633  14.613
40204SOL    HW222510  10.482   9.712  14.664
40205SOL     OW22511   9.901  11.991   9.090
40205SOL    HW122512   9.966  12.004   9.021
40205SOL    HW222513   9.926  12.053   9.158
40206SOL     OW22514   3.320   4.290  10.776
40206SOL    HW122515   3.335   4.338  10.694
40206SOL    HW222516   3.233   4.318  10.805
40207SOL     OW22517  12.422   3.936   2.299
40207SOL    HW122518  12.378   3.910   2.219
40207SOL    HW222519  12.351   3.960   2.358
40208SOL     OW22520  11.097  13.766  12.552
40208SOL    HW122521  11.084  13.672  12.568
40208SOL    HW222522  11.089  13.806  12.639
40209SOL     OW22523   4.951   2.187   3.860
40209SOL    HW122524   4.962   2.201   3.954
40209SOL    HW222525   4.943   2.092   3.850
40210SOL     OW22526   0.015   3.253  12.672
40210SOL    HW122527   0.033   3.277  12.581
40210SOL    HW222528   0.102   3.237  12.710
40211SOL     OW22529   1.572   3.014   7.090
40211SOL    HW122530   1.641   2.993   7.027
40211SOL    HW222531   1.616   3.009   7.175
40212SOL     OW22532   9.208   9.237   1.834
40212SOL    HW122533   9.214   9.281   1.749
40212SOL    HW222534   9.189   9.307   1.896
40213SOL     OW22535   6.071   7.263   3.798
40213SOL    HW122536   6.053   7.300   3.884
40213SOL    HW222537   6.148   7.208   3.810
40214SOL     OW22538   1.572   4.462  10.232
40214SOL    HW122539   1.558   4.526  10.163
40214SOL    HW222540   1.619   4.509  10.300
40215SOL     OW22541  10.078  11.242  14.643
40215SOL    HW122542  10.023  11.164  14.649
40215SOL    HW222543  10.137  11.224  14.570
40216SOL     OW22544   6.534  13.524  12.210
40216SOL    HW122545   6.496  13.593  12.265
40216SOL    HW222546   6.459  13.480  12.171
40217SOL     OW22547   0.167   4.184  11.426
40217SOL    HW122548   0.239   4.216  11.371
40217SOL    HW222549   0.161   4.248  11.497
40218SOL     OW22550   3.375   4.439   8.313
40218SOL    HW122551   3.417   4.354   8.298
40218SOL    HW222552   3.419   4.499   8.252
40219SOL     OW22553  14.045  12.483  10.725
40219SOL    HW122554  14.128  12.526  10.742
40219SOL    HW222555  13.980  12.537  10.768
40220SOL     OW22556  10.317   7.459  11.199
40220SOL    HW122557  10.387   7.432  11.139
40220SOL    HW222558  10.243   7.402  11.175
40221SOL     OW22559   9.218   1.504   0.579
40221SOL    HW122560   9.156   1.574   0.598
40221SOL    HW222561   9.253   1.526   0.493
40222SOL     OW22562   8.185   3.711   1.912
40222SOL    HW122563   8.273   3.747   1.902
40222SOL    HW222564   8.146   3.717   1.825
40223SOL     OW22565   4.455  14.631  13.369
40223SOL    HW122566   4.496  14.716  13.350
40223SOL    HW222567   4.525  14.578  13.406
40224SOL     OW22568   0.380  12.106   6.251
40224SOL    HW122569   0.340  12.129   6.167
40224SOL    HW222570   0.327  12.033   6.284
40225SOL     OW22571  14.770  13.444  14.265
40225SOL    HW122572  14.857  13.414  14.239
40225SOL    HW222573  14.786  13.510  14.332
40226SOL     OW22574   9.278   6.192   9.464
40226SOL    HW122575   9.323   6.262   9.418
40226SOL    HW222576   9.336   6.167   9.535
40227SOL     OW22577  14.291   1.169  13.771
40227SOL    HW122578  14.283   1.171  13.675
40227SOL    HW222579  14.219   1.113  13.800
40228SOL     OW22580   2.352   9.049   6.682
40228SOL    HW122581   2.296   9.011   6.750
40228SOL    HW222582   2.439   9.014   6.701
40229SOL     OW22583   5.864   5.507   2.853
40229SOL    HW122584   5.917   5.428   2.865
40229SOL    HW222585   5.773   5.477   2.859
40230SOL     OW22586   4.863   1.499   0.051
40230SOL    HW122587   4.861   1.481  14.827
40230SOL    HW222588   4.771   1.513   0.074
40231SOL     OW22589   1.204   3.806  11.181
40231SOL    HW122590   1.259   3.764  11.246
40231SOL    HW222591   1.264   3.862  11.132
40232SOL     OW22592   8.837  10.217   0.123
40232SOL    HW122593   8.866  10.308   0.119
40232SOL    HW222594   8.863  10.187   0.210
40233SOL     OW22595   3.433   5.995  11.953
40233SOL    HW122596   3.378   6.066  11.986
40233SOL    HW222597   3.371   5.926  11.930
40234SOL     OW22598   2.086   6.958   9.897
40234SOL    HW122599   2.161   6.981   9.843
40234SOL    HW222600   2.056   6.874   9.863
40235SOL     OW22601   1.750   1.357  12.407
40235SOL    HW122602   1.774   1.434  12.459
40235SOL    HW222603   1.821   1.295  12.423
40236SOL     OW22604  14.345   1.023  12.418
40236SOL    HW122605  14.395   1.023  12.499
40236SOL    HW222606  14.342   0.931  12.391
40237SOL     OW22607   1.275  11.891   3.362
40237SOL    HW122608   1.236  11.923   3.443
40237SOL    HW222609   1.360  11.935   3.357
40238SOL     OW22610   3.064   9.981   7.224
40238SOL    HW122611   2.987  10.023   7.263
40238SOL    HW222612   3.126   9.973   7.296
40239SOL     OW22613  14.781  11.593  12.930
40239SOL    HW122614  14.754  11.521  12.872
40239SOL    HW222615  14.704  11.651  12.933
40240SOL     OW22616   4.992   1.530   6.539
40240SOL    HW122617   5.085   1.506   6.541
40240SOL    HW222618   4.947   1.455   6.578
40241SOL     OW22619  13.622  11.514   0.336
40241SOL    HW122620  13.690  11.554   0.282
40241SOL    HW222621  13.649  11.532   0.426
40242SOL     OW22622   2.115  14.715   6.874
40242SOL    HW122623   2.142  14.713   6.966
40242SOL    HW222624   2.121  14.808   6.850
40243SOL     OW22625   8.170  11.322   0.478
40243SOL    HW122626   8.120  11.245   0.506
40243SOL    HW222627   8.186  11.371   0.559
40244SOL     OW22628   8.225   3.286   6.033
40244SOL    HW122629   8.130   3.281   6.021
40244SOL    HW222630   8.259   3.304   5.946
40245SOL     OW22631  10.667  10.314   3.460
40245SOL    HW122632  10.663  10.266   3.543
40245SOL    HW222633  10.590  10.284   3.412
40246SOL     OW22634   2.461  11.938  12.112
40246SOL    HW122635   2.535  11.986  12.149
40246SOL    HW222636   2.386  11.995  12.128
40247SOL     OW22637   2.893   8.653  11.525
40247SOL    HW122638   2.934   8.576  11.485
40247SOL    HW222639   2.803   8.625  11.542
40248SOL     OW22640   0.304  12.765  12.848
40248SOL    HW122641   0.307  12.759  12.752
40248SOL    HW222642   0.236  12.704  12.873
40249SOL     OW22643  12.998  10.190   8.127
40249SOL    HW122644  13.048  10.197   8.045
40249SOL    HW222645  13.014  10.100   8.157
40250SOL     OW22646  12.238   6.659   3.525
40250SOL    HW122647  12.282   6.690   3.446
40250SOL    HW222648  12.176   6.728   3.547
40251SOL     OW22649   1.544   3.925   2.644
40251SOL    HW122650   1.593   3.844   2.628
40251SOL    HW222651   1.470   3.897   2.698
40252SOL     OW22652   0.374   4.686  13.244
40252SOL    HW122653   0.433   4.640  13.304
40252SOL    HW222654   0.295   4.703  13.295
40253SOL     OW22655   0.097   9.787  12.501
40253SOL    HW122656   0.148   9.749  12.573
40253SOL    HW222657   0.006   9.779  12.529
40254SOL     OW22658  13.084   4.826   3.282
40254SOL    HW122659  13.016   4.890   3.257
40254SOL    HW222660  13.157   4.880   3.313
40255SOL     OW22661   1.600  14.272   5.494
40255SOL    HW122662   1.553  14.189   5.503
40255SOL    HW222663   1.692  14.249   5.507
40256SOL     OW22664  11.272   9.881   4.349
40256SOL    HW122665  11.305   9.797   4.380
40256SOL    HW222666  11.316   9.946   4.404
40257SOL     OW22667   8.264   8.778   2.273
40257SOL    HW122668   8.172   8.756   2.290
40257SOL    HW222669   8.314   8.712   2.322
40258SOL     OW22670   9.138   4.797   0.988
40258SOL    HW122671   9.228   4.768   0.971
40258SOL    HW222672   9.095   4.792   0.903
40259SOL     OW22673   9.798   4.138   9.275
40259SOL    HW122674   9.814   4.131   9.369
40259SOL    HW222675   9.803   4.232   9.256
40260SOL     OW22676   3.084   8.507  11.388
40260SOL    HW122677   3.078   8.440  11.456
40260SOL    HW222678   3.009   8.490  11.331
40261SOL     OW22679   9.930   9.913   5.642
40261SOL    HW122680   9.868   9.868   5.699
40261SOL    HW222681   9.886   9.994   5.618
40262SOL     OW22682  13.278   2.698   7.292
40262SOL    HW122683  13.306   2.648   7.215
40262SOL    HW222684  13.353   2.753   7.313
40263SOL     OW22685   6.331   4.942  13.563
40263SOL    HW122686   6.309   5.032  13.586
40263SOL    HW222687   6.246   4.897  13.559
40264SOL     OW22688  14.271  13.371  10.061
40264SOL    HW122689  14.281  13.334   9.973
40264SOL    HW222690  14.179  13.355  10.083
40265SOL     OW22691   2.610   2.911  10.469
40265SOL    HW122692   2.555   2.952  10.402
40265SOL    HW222693   2.574   2.822  10.479
40266SOL     OW22694  13.477   0.893  14.022
40266SOL    HW122695  13.515   0.838  14.089
40266SOL    HW222696  13.389   0.857  14.008
40267SOL     OW22697  13.778  14.791   3.731
40267SOL    HW122698  13.766  14.794   3.636
40267SOL    HW222699  13.752   0.008   3.762
40268SOL     OW22700   0.689   1.287  14.647
40268SOL    HW122701   0.776   1.301  14.685
40268SOL    HW222702   0.632   1.269  14.722
40269SOL     OW22703   3.492   4.928  14.447
40269SOL    HW122704   3.573   4.893  14.485
40269SOL    HW222705   3.427   4.918  14.516
40270SOL     OW22706   1.972   7.571   8.447
40270SOL    HW122707   1.946   7.591   8.537
40270SOL    HW222708   1.889   7.564   8.400
40271SOL     OW22709   5.036  10.702  14.859
40271SOL    HW122710   5.053  10.668  14.771
40271SOL    HW222711   5.114  10.679   0.040
40272SOL     OW22712   9.273   0.351   4.865
40272SOL    HW122713   9.220   0.306   4.930
40272SOL    HW222714   9.243   0.316   4.781
40273SOL     OW22715  14.015   9.931  14.142
40273SOL    HW122716  14.077   9.974  14.082
40273SOL    HW222717  14.063   9.925  14.225
40274SOL     OW22718  13.128  10.359   3.300
40274SOL    HW122719  13.128  10.445   3.342
40274SOL    HW222720  13.180  10.304   3.359
40275SOL     OW22721   8.519   0.789   4.730
40275SOL    HW122722   8.446   0.788   4.669
40275SOL    HW222723   8.484   0.828   4.810
40276SOL     OW22724  13.065   8.140   4.682
40276SOL    HW122725  13.133   8.100   4.627
40276SOL    HW222726  13.103   8.142   4.769
40277SOL     OW22727  14.437   3.108  12.613
40277SOL    HW122728  14.500   3.172  12.579
40277SOL    HW222729  14.351   3.147  12.594
40278SOL     OW22730  11.003   9.994   4.094
40278SOL    HW122731  10.942   9.989   4.021
40278SOL    HW222732  11.090   9.982   4.054
40279SOL     OW22733   3.642   1.650   5.833
40279SOL    HW122734   3.562   1.606   5.863
40279SOL    HW222735   3.661   1.609   5.748
40280SOL     OW22736   8.882   2.675   7.334
40280SOL    HW122737   8.843   2.664   7.421
40280SOL    HW222738   8.915   2.588   7.311
40281SOL     OW22739   4.474  11.950   2.418
40281SOL    HW122740   4.416  11.900   2.361
40281SOL    HW222741   4.442  11.934   2.506
40282SOL     OW22742   5.644   6.209   1.361
40282SOL    HW122743   5.621   6.126   1.403
40282SOL    HW222744   5.589   6.274   1.404
40283SOL     OW22745   3.518   4.658  12.348
40283SOL    HW122746   3.525   4.725  12.280
40283SOL    HW222747   3.466   4.699  12.418
40284SOL     OW22748   4.391   2.556   9.700
40284SOL    HW122749   4.330   2.564   9.627
40284SOL    HW222750   4.438   2.474   9.683
40285SOL     OW22751   3.784  14.755   4.381
40285SOL    HW122752   3.822  14.696   4.316
40285SOL    HW222753   3.843  14.750   4.456
40286SOL     OW22754   4.661   8.274   4.092
40286SOL    HW122755   4.718   8.297   4.166
40286SOL    HW222756   4.625   8.189   4.115
40287SOL     OW22757   1.487   5.504   4.072
40287SOL    HW122758   1.527   5.544   4.149
40287SOL    HW222759   1.523   5.415   4.070
40288SOL     OW22760   0.642  10.160  13.208
40288SOL    HW122761   0.689  10.230  13.254
40288SOL    HW222762   0.573  10.205  13.160
40289SOL     OW22763   3.958  10.374  13.495
40289SOL    HW122764   3.950  10.375  13.400
40289SOL    HW222765   4.051  10.359  13.511
40290SOL     OW22766   7.962   8.038   0.737
40290SOL    HW122767   8.048   8.013   0.771
40290SOL    HW222768   7.935   7.963   0.683
40291SOL     OW22769   6.188  13.982   5.999
40291SOL    HW122770   6.225  13.900   6.031
40291SOL    HW222771   6.262  14.043   6.001
40292SOL     OW22772  12.113  14.070   0.764
40292SOL    HW122773  12.099  14.164   0.750
40292SOL    HW222774  12.124  14.062   0.859
40293SOL     OW22775   8.478   1.840   3.872
40293SOL    HW122776   8.473   1.804   3.784
40293SOL    HW222777   8.387   1.856   3.898
40294SOL     OW22778   7.724   7.537   6.752
40294SOL    HW122779   7.719   7.594   6.829
40294SOL    HW222780   7.652   7.475   6.764
40295SOL     OW22781   4.644  13.678   9.199
40295SOL    HW122782   4.614  13.626   9.274
40295SOL    HW222783   4.570  13.735   9.178
40296SOL     OW22784   0.275   9.791  14.084
40296SOL    HW122785   0.248   9.740  14.008
40296SOL    HW222786   0.330   9.861  14.049
40297SOL     OW22787  14.364  11.204  10.688
40297SOL    HW122788  14.454  11.220  10.661
40297SOL    HW222789  14.332  11.288  10.720
40298SOL     OW22790   6.450   0.627  13.253
40298SOL    HW122791   6.422   0.675  13.331
40298SOL    HW222792   6.380   0.643  13.189
40299SOL     OW22793  10.570   3.024   1.653
40299SOL    HW122794  10.529   3.103   1.617
40299SOL    HW222795  10.528   3.013   1.738
40300SOL     OW22796  14.756   9.881   5.216
40300SOL    HW122797  14.813   9.935   5.162
40300SOL    HW222798  14.685   9.854   5.158
40301SOL     OW22799   9.419   0.417  14.700
40301SOL    HW122800   9.367   0.486  14.660
40301SOL    HW222801   9.357   0.347  14.718
40302SOL     OW22802  14.730  12.499   3.381
40302SOL    HW122803  14.669  12.443   3.332
40302SOL    HW222804  14.813  12.451   3.379
40303SOL     OW22805   6.236   6.345  14.098
40303SOL    HW122806   6.300   6.300  14.153
40303SOL    HW222807   6.153   6.336  14.145
40304SOL     OW22808  10.146  13.351   4.243
40304SOL    HW122809  10.137  13.305   4.160
40304SOL    HW222810  10.115  13.440   4.224
40305SOL     OW22811   1.661   7.180   7.006
40305SOL    HW122812   1.621   7.094   7.003
40305SOL    HW222813   1.638   7.220   6.922
40306SOL     OW22814   4.667  11.496   0.288
40306SOL    HW122815   4.708  11.567   0.336
40306SOL    HW222816   4.680  11.419   0.344
40307SOL     OW22817   4.823   1.246  10.947
40307SOL    HW122818   4.871   1.328  10.946
40307SOL    HW222819   4.790   1.236  10.857
40308SOL     OW22820  13.784   9.033   1.097
40308SOL    HW122821  13.769   8.958   1.039
40308SOL    HW222822  13.870   9.017   1.135
40309SOL     OW22823  11.433  14.604   6.465
40309SOL    HW122824  11.521  14.566   6.460
40309SOL    HW222825  11.374  14.529   6.459
40310SOL     OW22826  13.045   2.835   4.236
40310SOL    HW122827  12.977   2.779   4.199
40310SOL    HW222828  13.002   2.917   4.256
40311SOL     OW22829   8.990   6.364   0.082
40311SOL    HW122830   8.934   6.439   0.066
40311SOL    HW222831   8.947   6.291   0.038
40312SOL     OW22832  13.258   5.701   8.864
40312SOL    HW122833  13.294   5.789   8.855
40312SOL    HW222834  13.277   5.675   8.954
40313SOL     OW22835   3.704   5.604   8.104
40313SOL    HW122836   3.649   5.606   8.182
40313SOL    HW222837   3.678   5.525   8.058
40314SOL     OW22838  10.927   2.506  10.487
40314SOL    HW122839  10.881   2.468  10.412
40314SOL    HW222840  10.995   2.443  10.508
40315SOL     OW22841   1.425  12.880   0.578
40315SOL    HW122842   1.356  12.823   0.612
40315SOL    HW222843   1.454  12.930   0.655
40316SOL     OW22844   1.810   2.981   2.685
40316SOL    HW122845   1.759   2.911   2.726
40316SOL    HW222846   1.770   2.993   2.599
40317SOL     OW22847  12.451   7.848   2.767
40317SOL    HW122848  12.364   7.838   2.804
40317SOL    HW222849  12.508   7.797   2.826
40318SOL     OW22850   5.076   2.164   7.843
40318SOL    HW122851   5.076   2.090   7.903
40318SOL    HW222852   5.139   2.140   7.775
40319SOL     OW22853  14.322   3.487   2.835
40319SOL    HW122854  14.241   3.485   2.885
40319SOL    HW222855  14.388   3.520   2.896
40320SOL     OW22856   3.831   6.250   3.713
40320SOL    HW122857   3.869   6.181   3.767
40320SOL    HW222858   3.905   6.307   3.692
40321SOL     OW22859  12.101   1.845   9.522
40321SOL    HW122860  12.139   1.933   9.517
40321SOL    HW222861  12.017   1.857   9.567
40322SOL     OW22862  10.398   3.254   6.017
40322SOL    HW122863  10.350   3.304   5.950
40322SOL    HW222864  10.353   3.274   6.099
40323SOL     OW22865   3.199   5.671   4.633
40323SOL    HW122866   3.118   5.637   4.671
40323SOL    HW222867   3.234   5.729   4.701
40324SOL     OW22868   9.607   4.299   0.916
40324SOL    HW122869   9.690   4.285   0.961
40324SOL    HW222870   9.572   4.211   0.901
40325SOL     OW22871   8.605  12.113   0.778
40325SOL    HW122872   8.664  12.179   0.742
40325SOL    HW222873   8.534  12.107   0.714
40326SOL     OW22874   8.006   3.131  14.552
40326SOL    HW122875   7.928   3.133  14.496
40326SOL    HW222876   7.976   3.091  14.633
40327SOL     OW22877   8.507   8.891  11.811
40327SOL    HW122878   8.525   8.839  11.889
40327SOL    HW222879   8.444   8.957  11.841
40328SOL     OW22880   3.759   0.786  12.281
40328SOL    HW122881   3.747   0.794  12.375
40328SOL    HW222882   3.675   0.811  12.243
40329SOL     OW22883   7.057   2.361   4.829
40329SOL    HW122884   7.145   2.397   4.828
40329SOL    HW222885   7.000   2.436   4.811
40330SOL     OW22886   3.847   4.622  10.583
40330SOL    HW122887   3.858   4.530  10.606
40330SOL    HW222888   3.915   4.639  10.518
40331SOL     OW22889   4.278  12.634   4.286
40331SOL    HW122890   4.251  12.611   4.197
40331SOL    HW222891   4.343  12.567   4.308
40332SOL     OW22892  12.662   9.377  10.391
40332SOL    HW122893  12.725   9.343  10.328
40332SOL    HW222894  12.601   9.304  10.406
40333SOL     OW22895  12.438   4.204   3.564
40333SOL    HW122896  12.343   4.196   3.573
40333SOL    HW222897  12.467   4.117   3.537
40334SOL     OW22898  11.184   5.326   7.792
40334SOL    HW122899  11.220   5.385   7.858
40334SOL    HW222900  11.233   5.347   7.712
40335SOL     OW22901   9.475   5.473  11.844
40335SOL    HW122902   9.511   5.414  11.777
40335SOL    HW222903   9.409   5.524  11.798
40336SOL     OW22904  11.458   4.698   2.402
40336SOL    HW122905  11.387   4.653   2.448
40336SOL    HW222906  11.512   4.628   2.366
40337SOL     OW22907   7.415   3.634   8.493
40337SOL    HW122908   7.500   3.601   8.461
40337SOL    HW222909   7.438   3.689   8.569
40338SOL     OW22910  12.994   4.698   6.021
40338SOL    HW122911  12.931   4.669   6.087
40338SOL    HW222912  13.036   4.617   5.991
40339SOL     OW22913   8.033  14.646   4.616
40339SOL    HW122914   7.972  14.611   4.552
40339SOL    HW222915   8.048  14.573   4.676
40340SOL     OW22916  14.197  12.426   7.811
40340SOL    HW122917  14.134  12.375   7.862
40340SOL    HW222918  14.260  12.361   7.780
40341SOL     OW22919   5.081  14.438   0.025
40341SOL    HW122920   5.121  14.468  14.813
40341SOL    HW222921   5.153  14.437   0.088
40342SOL     OW22922   7.014   2.102   0.103
40342SOL    HW122923   6.983   2.143   0.184
40342SOL    HW222924   7.103   2.135   0.092
40343SOL     OW22925  14.013   8.383   3.896
40343SOL    HW122926  13.925   8.354   3.919
40343SOL    HW222927  14.004   8.476   3.878
40344SOL     OW22928   4.330   7.079   0.787
40344SOL    HW122929   4.314   7.044   0.874
40344SOL    HW222930   4.425   7.084   0.779
40345SOL     OW22931   8.248   8.085   4.981
40345SOL    HW122932   8.166   8.129   4.959
40345SOL    HW222933   8.311   8.120   4.918
40346SOL     OW22934   2.022  14.529   6.443
40346SOL    HW122935   2.068  14.492   6.368
40346SOL    HW222936   1.937  14.555   6.409
40347SOL     OW22937  11.121   4.043   5.693
40347SOL    HW122938  11.101   4.137   5.684
40347SOL    HW222939  11.204   4.042   5.742
40348SOL     OW22940  10.314  11.988  14.724
40348SOL    HW122941  10.257  11.917  14.752
40348SOL    HW222942  10.254  12.062  14.709
40349SOL     OW22943   2.759   7.212  10.979
40349SOL    HW122944   2.702   7.284  11.007
40349SOL    HW222945   2.700   7.149  10.939
40350SOL     OW22946  13.584   7.495  12.862
40350SOL    HW122947  13.663   7.526  12.906
40350SOL    HW222948  13.580   7.544  12.780
40351SOL     OW22949   2.160  13.113   5.112
40351SOL    HW122950   2.177  13.199   5.152
40351SOL    HW222951   2.169  13.128   5.018
40352SOL     OW22952   2.430   0.810   1.238
40352SOL    HW122953   2.383   0.894   1.242
40352SOL    HW222954   2.517   0.828   1.273
40353SOL     OW22955  14.198   4.052   5.440
40353SOL    HW122956  14.242   3.966   5.436
40353SOL    HW222957  14.148   4.057   5.359
40354SOL     OW22958   2.858  12.633  13.513
40354SOL    HW122959   2.873  12.717  13.470
40354SOL    HW222960   2.892  12.645  13.602
40355SOL     OW22961   9.817   2.662   0.338
40355SOL    HW122962   9.832   2.721   0.413
40355SOL    HW222963   9.844   2.713   0.262
40356SOL     OW22964   0.104   8.010   0.260
40356SOL    HW122965   0.011   8.033   0.254
40356SOL    HW222966   0.116   7.941   0.195
40357SOL     OW22967  12.431  12.907   8.871
40357SOL    HW122968  12.393  12.987   8.907
40357SOL    HW222969  12.357  12.860   8.832
40358SOL     OW22970  14.816   3.947   5.501
40358SOL    HW122971   0.026   3.931   5.551
40358SOL    HW222972  14.759   3.996   5.561
40359SOL     OW22973   3.762   2.706   8.059
40359SOL    HW122974   3.807   2.635   8.105
40359SOL    HW222975   3.762   2.678   7.967
40360SOL     OW22976  14.300  14.248   1.373
40360SOL    HW122977  14.225  14.274   1.318
40360SOL    HW222978  14.322  14.326   1.423
40361SOL     OW22979   8.101  10.847  14.087
40361SOL    HW122980   8.139  10.933  14.105
40361SOL    HW222981   8.160  10.808  14.022
40362SOL     OW22982   7.495   5.774   9.686
40362SOL    HW122983   7.542   5.822   9.618
40362SOL    HW222984   7.431   5.721   9.639
40363SOL     OW22985   7.680   5.875  12.744
40363SOL    HW122986   7.629   5.955  12.758
40363SOL    HW222987   7.748   5.878  12.811
40364SOL     OW22988   1.703   9.126  13.053
40364SOL    HW122989   1.611   9.129  13.026
40364SOL    HW222990   1.724   9.216  13.076
40365SOL     OW22991   0.751   8.094   9.890
40365SOL    HW122992   0.677   8.085   9.830
40365SOL    HW222993   0.752   8.012   9.940
40366SOL     OW22994   0.075   2.865  12.783
40366SOL    HW122995   0.028   2.832  12.859
40366SOL    HW222996   0.122   2.942  12.815
40367SOL     OW22997   0.292   1.794   1.116
40367SOL    HW122998   0.298   1.771   1.024
40367SOL    HW222999   0.200   1.818   1.129
40368SOL     OW23000   7.427  11.786   8.568
40368SOL    HW123001   7.368  11.750   8.502
40368SOL    HW223002   7.371  11.803   8.644
40369SOL     OW23003   7.830   9.757   8.999
40369SOL    HW123004   7.834   9.666   9.027
40369SOL    HW223005   7.909   9.797   9.034
40370SOL     OW23006   3.571   5.831   4.433
40370SOL    HW123007   3.512   5.859   4.363
40370SOL    HW223008   3.537   5.746   4.460
40371SOL     OW23009   6.169   4.840   9.373
40371SOL    HW123010   6.172   4.770   9.438
40371SOL    HW223011   6.229   4.907   9.407
40372SOL     OW23012   7.695   1.525   9.714
40372SOL    HW123013   7.663   1.594   9.772
40372SOL    HW223014   7.646   1.538   9.633
40373SOL     OW23015   8.044  13.227   8.118
40373SOL    HW123016   8.126  13.227   8.168
40373SOL    HW223017   7.975  13.230   8.185
40374SOL     OW23018  10.500   1.627   1.310
40374SOL    HW123019  10.544   1.551   1.348
40374SOL    HW223020  10.564   1.698   1.315
40375SOL     OW23021  12.802   8.886   1.039
40375SOL    HW123022  12.791   8.958   0.978
40375SOL    HW223023  12.771   8.920   1.123
40376SOL     OW23024  10.018   3.065   9.473
40376SOL    HW123025  10.000   3.040   9.563
40376SOL    HW223026   9.953   3.133   9.453
40377SOL     OW23027   9.628  13.637  11.114
40377SOL    HW123028   9.587  13.717  11.147
40377SOL    HW223029   9.659  13.592  11.193
40378SOL     OW23030   0.377  12.232   7.629
40378SOL    HW123031   0.287  12.262   7.624
40378SOL    HW223032   0.391  12.214   7.722
40379SOL     OW23033   7.819   4.548  10.573
40379SOL    HW123034   7.814   4.478  10.507
40379SOL    HW223035   7.795   4.505  10.655
40380SOL     OW23036   3.127  11.417   5.115
40380SOL    HW123037   3.120  11.352   5.045
40380SOL    HW223038   3.202  11.388   5.167
40381SOL     OW23039   1.492   3.627   7.704
40381SOL    HW123040   1.458   3.688   7.639
40381SOL    HW223041   1.582   3.609   7.676
40382SOL     OW23042  14.556  12.341  12.085
40382SOL    HW123043  14.540  12.253  12.120
40382SOL    HW223044  14.590  12.326  11.997
40383SOL     OW23045   5.938   8.852   8.762
40383SOL    HW123046   5.881   8.816   8.829
40383SOL    HW223047   6.008   8.786   8.753
40384SOL     OW23048   2.423   0.266   1.785
40384SOL    HW123049   2.400   0.279   1.877
40384SOL    HW223050   2.513   0.298   1.778
40385SOL     OW23051  14.417  12.935  10.467
40385SOL    HW123052  14.498  12.886  10.479
40385SOL    HW223053  14.444  13.019  10.431
40386SOL     OW23054   6.862   9.670   7.929
40386SOL    HW123055   6.849   9.587   7.883
40386SOL    HW223056   6.947   9.702   7.897
40387SOL     OW23057   2.271   2.132   8.551
40387SOL    HW123058   2.190   2.175   8.522
40387SOL    HW223059   2.242   2.052   8.593
40388SOL     OW23060   6.781   8.581   7.853
40388SOL    HW123061   6.706   8.590   7.912
40388SOL    HW223062   6.764   8.500   7.805
40389SOL     OW23063   6.558   4.960  11.697
40389SOL    HW123064   6.477   5.007  11.676
40389SOL    HW223065   6.566   4.967  11.792
40390SOL     OW23066   9.986  14.049   2.457
40390SOL    HW123067  10.051  14.012   2.398
40390SOL    HW223068   9.902  14.029   2.415
40391SOL     OW23069   1.076  10.262   4.646
40391SOL    HW123070   1.124  10.192   4.602
40391SOL    HW223071   1.017  10.216   4.707
40392SOL     OW23072   7.260   8.871   5.964
40392SOL    HW123073   7.200   8.835   6.030
40392SOL    HW223074   7.307   8.794   5.931
40393SOL     OW23075  14.059   0.096   8.852
40393SOL    HW123076  14.036   0.011   8.889
40393SOL    HW223077  13.996   0.157   8.890
40394SOL     OW23078   5.365   3.974  13.834
40394SOL    HW123079   5.327   3.923  13.906
40394SOL    HW223080   5.290   4.009  13.787
40395SOL     OW23081   4.397  12.470  14.700
40395SOL    HW123082   4.356  12.470  14.786
40395SOL    HW223083   4.348  12.403  14.651
40396SOL     OW23084  12.981   1.927  13.388
40396SOL    HW123085  12.889   1.900  13.398
40396SOL    HW223086  12.985   2.012  13.432
40397SOL     OW23087  13.285   9.782   6.452
40397SOL    HW123088  13.294   9.713   6.386
40397SOL    HW223089  13.210   9.833   6.422
40398SOL     OW23090   2.952  12.748   9.858
40398SOL    HW123091   2.870  12.698   9.862
40398SOL    HW223092   2.927  12.836   9.888
40399SOL     OW23093   0.742   5.270   8.851
40399SOL    HW123094   0.822   5.309   8.814
40399SOL    HW223095   0.763   5.257   8.944
40400SOL     OW23096   0.547  12.948  12.900
40400SOL    HW123097   0.474  12.892  12.876
40400SOL    HW223098   0.586  12.904  12.976
40401SOL     OW23099   9.386   5.489   1.792
40401SOL    HW123100   9.405   5.528   1.877
40401SOL    HW223101   9.301   5.526   1.767
40402SOL     OW23102   8.120   8.489   2.676
40402SOL    HW123103   8.069   8.421   2.632
40402SOL    HW223104   8.149   8.447   2.757
40403SOL     OW23105   4.138  12.373   2.900
40403SOL    HW123106   4.151  12.314   2.975
40403SOL    HW223107   4.104  12.316   2.831
40404SOL     OW23108   1.164   6.615  11.422
40404SOL    HW123109   1.191   6.580  11.337
40404SOL    HW223110   1.089   6.560  11.447
40405SOL     OW23111   1.206   8.791   1.162
40405SOL    HW123112   1.217   8.869   1.107
40405SOL    HW223113   1.287   8.742   1.150
40406SOL     OW23114   8.869   3.259   3.866
40406SOL    HW123115   8.922   3.199   3.815
40406SOL    HW223116   8.792   3.276   3.811
40407SOL     OW23117  10.990  12.582   0.492
40407SOL    HW123118  11.064  12.529   0.462
40407SOL    HW223119  10.920  12.519   0.507
40408SOL     OW23120   8.683   4.235  14.250
40408SOL    HW123121   8.699   4.327  14.229
40408SOL    HW223122   8.695   4.230  14.345
40409SOL     OW23123  13.523   7.491   0.591
40409SOL    HW123124  13.506   7.420   0.653
40409SOL    HW223125  13.581   7.452   0.526
40410SOL     OW23126   9.553   3.970   3.418
40410SOL    HW123127   9.486   3.977   3.486
40410SOL    HW223128   9.528   4.034   3.352
40411SOL     OW23129  12.432   5.677   7.318
40411SOL    HW123130  12.383   5.642   7.243
40411SOL    HW223131  12.396   5.631   7.394
40412SOL     OW23132   3.308   0.135  10.727
40412SOL    HW123133   3.372   0.064  10.720
40412SOL    HW223134   3.226   0.096  10.697
40413SOL     OW23135  14.805   3.906  13.552
40413SOL    HW123136  14.868   3.891  13.482
40413SOL    HW223137  14.734   3.844  13.533
40414SOL     OW23138  11.597   7.409  13.669
40414SOL    HW123139  11.543   7.354  13.726
40414SOL    HW223140  11.672   7.355  13.647
40415SOL     OW23141  10.432   5.518  12.114
40415SOL    HW123142  10.454   5.603  12.152
40415SOL    HW223143  10.512   5.466  12.124
40416SOL     OW23144   1.514  14.515   5.605
40416SOL    HW123145   1.557  14.574   5.544
40416SOL    HW223146   1.546  14.428   5.581
40417SOL     OW23147  10.719  13.866   3.060
40417SOL    HW123148  10.695  13.783   3.018
40417SOL    HW223149  10.644  13.888   3.115
40418SOL     OW23150   5.552  13.924   1.298
40418SOL    HW123151   5.622  13.887   1.243
40418SOL    HW223152   5.471  13.899   1.253
40419SOL     OW23153   0.693   2.949   9.722
40419SOL    HW123154   0.701   3.037   9.685
40419SOL    HW223155   0.769   2.940   9.779
40420SOL     OW23156  13.530   4.116   4.196
40420SOL    HW123157  13.560   4.187   4.252
40420SOL    HW223158  13.584   4.124   4.117
40421SOL     OW23159   2.421   7.886  12.595
40421SOL    HW123160   2.359   7.877  12.667
40421SOL    HW223161   2.506   7.894  12.637
40422SOL     OW23162   1.137  10.479   2.575
40422SOL    HW123163   1.042  10.494   2.569
40422SOL    HW223164   1.156  10.481   2.668
40423SOL     OW23165   4.430   0.307   8.590
40423SOL    HW123166   4.522   0.332   8.602
40423SOL    HW223167   4.433   0.244   8.517
40424SOL     OW23168   5.039   1.527   5.534
40424SOL    HW123169   5.065   1.588   5.602
40424SOL    HW223170   5.001   1.452   5.580
40425SOL     OW23171   6.007  13.621   0.330
40425SOL    HW123172   6.096  13.657   0.330
40425SOL    HW223173   5.954  13.689   0.372
40426SOL     OW23174   9.310   3.077  13.122
40426SOL    HW123175   9.251   3.089  13.047
40426SOL    HW223176   9.348   3.163  13.136
40427SOL     OW23177   2.073   6.572  10.601
40427SOL    HW123178   2.137   6.577  10.530
40427SOL    HW223179   2.050   6.663  10.620
40428SOL     OW23180   2.113  12.347   1.865
40428SOL    HW123181   2.199  12.304   1.872
40428SOL    HW223182   2.053  12.277   1.839
40429SOL     OW23183   6.683   6.200  11.647
40429SOL    HW123184   6.688   6.290  11.680
40429SOL    HW223185   6.769   6.185  11.606
40430SOL     OW23186   2.502  13.538  11.975
40430SOL    HW123187   2.568  13.476  11.944
40430SOL    HW223188   2.510  13.613  11.915
40431SOL     OW23189   0.199   8.468   8.736
40431SOL    HW123190   0.289   8.447   8.709
40431SOL    HW223191   0.152   8.482   8.653
40432SOL     OW23192   9.026   5.732  13.922
40432SOL    HW123193   9.090   5.802  13.911
40432SOL    HW223194   9.053   5.686  14.001
40433SOL     OW23195   5.561  12.628  11.840
40433SOL    HW123196   5.640  12.581  11.869
40433SOL    HW223197   5.488  12.578  11.876
40434SOL     OW23198   8.017  12.739   6.682
40434SOL    HW123199   7.924  12.759   6.672
40434SOL    HW223200   8.025  12.647   6.657
40435SOL     OW23201  10.150  11.726   6.596
40435SOL    HW123202  10.203  11.786   6.544
40435SOL    HW223203  10.210  11.654   6.618
40436SOL     OW23204  13.788  12.521   7.613
40436SOL    HW123205  13.847  12.557   7.546
40436SOL    HW223206  13.713  12.487   7.564
40437SOL     OW23207   9.725  11.946  12.707
40437SOL    HW123208   9.694  12.023  12.755
40437SOL    HW223209   9.698  11.871  12.760
40438SOL     OW23210  14.751  13.690   0.446
40438SOL    HW123211  14.731  13.659   0.534
40438SOL    HW223212  14.753  13.785   0.454
40439SOL     OW23213   1.125  11.962  14.804
40439SOL    HW123214   1.204  12.016  14.799
40439SOL    HW223215   1.121  11.918  14.719
40440SOL     OW23216   5.710   3.551  12.639
40440SOL    HW123217   5.747   3.485  12.698
40440SOL    HW223218   5.762   3.630  12.656
40441SOL     OW23219   1.495  12.679  11.681
40441SOL    HW123220   1.413  12.652  11.639
40441SOL    HW223221   1.497  12.628  11.762
40442SOL     OW23222   7.865  14.804   1.787
40442SOL    HW123223   7.833   0.015   1.827
40442SOL    HW223224   7.895  14.832   1.700
40443SOL     OW23225  13.267   0.833   5.803
40443SOL    HW123226  13.310   0.793   5.727
40443SOL    HW223227  13.339   0.852   5.863
40444SOL     OW23228   1.302   0.211   8.308
40444SOL    HW123229   1.208   0.204   8.326
40444SOL    HW223230   1.330   0.121   8.293
40445SOL     OW23231   7.559  14.601   5.307
40445SOL    HW123232   7.475  14.620   5.264
40445SOL    HW223233   7.625  14.638   5.248
40446SOL     OW23234   2.857   8.338   4.999
40446SOL    HW123235   2.784   8.285   5.030
40446SOL    HW223236   2.817   8.421   4.973
40447SOL     OW23237   7.478   0.254   0.592
40447SOL    HW123238   7.383   0.264   0.583
40447SOL    HW223239   7.515   0.294   0.514
40448SOL     OW23240   8.687   1.724   7.756
40448SOL    HW123241   8.679   1.778   7.835
40448SOL    HW223242   8.619   1.756   7.698
40449SOL     OW23243  13.209   7.464   7.939
40449SOL    HW123244  13.196   7.451   8.033
40449SOL    HW223245  13.123   7.494   7.907
40450SOL     OW23246   5.184   8.401   5.839
40450SOL    HW123247   5.210   8.341   5.769
40450SOL    HW223248   5.092   8.379   5.856
40451SOL     OW23249   1.410  10.109   4.286
40451SOL    HW123250   1.401  10.014   4.298
40451SOL    HW223251   1.365  10.147   4.362
40452SOL     OW23252   1.090   6.276   7.648
40452SOL    HW123253   1.096   6.275   7.744
40452SOL    HW223254   1.138   6.198   7.620
40453SOL     OW23255   9.783   9.170   2.722
40453SOL    HW123256   9.712   9.142   2.781
40453SOL    HW223257   9.800   9.260   2.748
40454SOL     OW23258   2.826  13.230   3.052
40454SOL    HW123259   2.798  13.183   2.973
40454SOL    HW223260   2.762  13.300   3.062
40455SOL     OW23261   2.409   8.564  10.195
40455SOL    HW123262   2.476   8.520  10.246
40455SOL    HW223263   2.421   8.531  10.106
40456SOL     OW23264   6.377   4.428   2.428
40456SOL    HW123265   6.342   4.514   2.449
40456SOL    HW223266   6.305   4.382   2.385
40457SOL     OW23267   5.029   8.438  14.224
40457SOL    HW123268   5.089   8.402  14.159
40457SOL    HW223269   4.979   8.362  14.254
40458SOL     OW23270   4.663   8.940   9.287
40458SOL    HW123271   4.605   8.948   9.211
40458SOL    HW223272   4.749   8.968   9.255
40459SOL     OW23273   2.945   8.513   2.718
40459SOL    HW123274   2.897   8.511   2.801
40459SOL    HW223275   2.903   8.583   2.668
40460SOL     OW23276   9.719   7.891   0.718
40460SOL    HW123277   9.810   7.908   0.694
40460SOL    HW223278   9.668   7.933   0.648
40461SOL     OW23279   5.441   3.691   4.177
40461SOL    HW123280   5.532   3.720   4.181
40461SOL    HW223281   5.428   3.666   4.086
40462SOL     OW23282   3.260  11.334   6.966
40462SOL    HW123283   3.258  11.427   6.942
40462SOL    HW223284   3.210  11.290   6.898
40463SOL     OW23285   6.905   0.375   6.619
40463SOL    HW123286   6.928   0.391   6.711
40463SOL    HW223287   6.909   0.462   6.578
40464SOL     OW23288   1.129   0.328   9.490
40464SOL    HW123289   1.169   0.415   9.500
40464SOL    HW223290   1.082   0.314   9.573
40465SOL     OW23291   2.111   2.731   4.216
40465SOL    HW123292   2.118   2.670   4.289
40465SOL    HW223293   2.098   2.676   4.139
40466SOL     OW23294   6.134   0.317  12.497
40466SOL    HW123295   6.212   0.367  12.518
40466SOL    HW223296   6.061   0.372  12.526
40467SOL     OW23297  11.219  10.777   0.089
40467SOL    HW123298  11.287  10.711   0.072
40467SOL    HW223299  11.198  10.812   0.003
40468SOL     OW23300   2.866  12.799   0.827
40468SOL    HW123301   2.770  12.805   0.828
40468SOL    HW223302   2.891  12.815   0.918
40469SOL     OW23303   0.360  13.575   0.942
40469SOL    HW123304   0.444  13.582   0.988
40469SOL    HW223305   0.357  13.654   0.887
40470SOL     OW23306   4.044   1.777   3.795
40470SOL    HW123307   4.132   1.785   3.757
40470SOL    HW223308   4.026   1.682   3.794
40471SOL     OW23309  10.687   2.448   7.763
40471SOL    HW123310  10.744   2.419   7.691
40471SOL    HW223311  10.685   2.544   7.755
40472SOL     OW23312  14.778   0.390  11.461
40472SOL    HW123313  14.825   0.402  11.543
40472SOL    HW223314  14.799   0.300  11.435
40473SOL     OW23315   0.723   5.139   8.233
40473SOL    HW123316   0.716   5.095   8.148
40473SOL    HW223317   0.650   5.201   8.234
40474SOL     OW23318   1.488   0.237   7.691
40474SOL    HW123319   1.479   0.230   7.596
40474SOL    HW223320   1.562   0.296   7.704
40475SOL     OW23321  11.000   7.013   2.929
40475SOL    HW123322  10.932   6.999   2.864
40475SOL    HW223323  10.959   7.069   2.995
40476SOL     OW23324   4.039   5.427   0.216
40476SOL    HW123325   4.067   5.350   0.265
40476SOL    HW223326   4.103   5.435   0.146
40477SOL     OW23327   2.338   4.799   5.030
40477SOL    HW123328   2.386   4.856   4.970
40477SOL    HW223329   2.284   4.744   4.974
40478SOL     OW23330  12.967  10.411   7.430
40478SOL    HW123331  12.959  10.378   7.520
40478SOL    HW223332  13.045  10.467   7.432
40479SOL     OW23333  14.005  11.876   2.780
40479SOL    HW123334  14.063  11.947   2.809
40479SOL    HW223335  13.942  11.867   2.851
40480SOL     OW23336  10.009  12.329   6.136
40480SOL    HW123337   9.916  12.350   6.130
40480SOL    HW223338  10.054  12.412   6.120
40481SOL     OW23339  13.117  13.724  12.814
40481SOL    HW123340  13.192  13.724  12.755
40481SOL    HW223341  13.052  13.779  12.770
40482SOL     OW23342  12.050  13.301  11.241
40482SOL    HW123343  12.090  13.381  11.207
40482SOL    HW223344  12.086  13.293  11.329
40483SOL     OW23345  13.576  10.524   8.980
40483SOL    HW123346  13.657  10.575   8.980
40483SOL    HW223347  13.528  10.555   8.904
40484SOL     OW23348   7.231  11.398  11.143
40484SOL    HW123349   7.326  11.406  11.137
40484SOL    HW223350   7.214  11.379  11.235
40485SOL     OW23351   2.526   3.899   2.177
40485SOL    HW123352   2.570   3.958   2.237
40485SOL    HW223353   2.433   3.920   2.187
40486SOL     OW23354   4.033  10.282   3.940
40486SOL    HW123355   3.985  10.277   4.023
40486SOL    HW223356   3.983  10.225   3.881
40487SOL     OW23357   7.525   5.577   6.876
40487SOL    HW123358   7.535   5.558   6.783
40487SOL    HW223359   7.602   5.629   6.899
40488SOL     OW23360  12.667  10.138  13.663
40488SOL    HW123361  12.602  10.188  13.711
40488SOL    HW223362  12.688  10.192  13.587
40489SOL     OW23363  12.530   3.484   3.539
40489SOL    HW123364  12.537   3.543   3.465
40489SOL    HW223365  12.547   3.539   3.616
40490SOL     OW23366   5.944   3.068   8.650
40490SOL    HW123367   5.852   3.094   8.648
40490SOL    HW223368   5.984   3.130   8.712
40491SOL     OW23369  12.093   6.514   7.420
40491SOL    HW123370  12.116   6.601   7.389
40491SOL    HW223371  12.155   6.496   7.490
40492SOL     OW23372   8.381   9.262   1.812
40492SOL    HW123373   8.303   9.206   1.807
40492SOL    HW223374   8.408   9.273   1.720
40493SOL     OW23375  10.904   1.042   9.873
40493SOL    HW123376  10.932   1.010   9.959
40493SOL    HW223377  10.941   1.130   9.867
40494SOL     OW23378  10.403   7.216  12.220
40494SOL    HW123379  10.399   7.132  12.266
40494SOL    HW223380  10.483   7.257  12.252
40495SOL     OW23381  10.582  10.073   8.831
40495SOL    HW123382  10.633  10.154   8.839
40495SOL    HW223383  10.501  10.091   8.879
40496SOL     OW23384   6.435   9.259   2.787
40496SOL    HW123385   6.407   9.340   2.744
40496SOL    HW223386   6.455   9.285   2.877
40497SOL     OW23387   3.691  13.217   7.469
40497SOL    HW123388   3.628  13.231   7.540
40497SOL    HW223389   3.642  13.238   7.389
40498SOL     OW23390   9.264  10.730  12.086
40498SOL    HW123391   9.205  10.759  12.155
40498SOL    HW223392   9.211  10.668  12.035
40499SOL     OW23393   0.024   8.365  14.580
40499SOL    HW123394   0.108   8.406  14.601
40499SOL    HW223395   0.014   8.296  14.645
40500SOL     OW23396   0.324   5.461   8.352
40500SOL    HW123397   0.336   5.511   8.433
40500SOL    HW223398   0.293   5.525   8.289
40501SOL     OW23399   4.259   4.481   0.716
40501SOL    HW123400   4.172   4.516   0.694
40501SOL    HW223401   4.257   4.468   0.810
40502SOL     OW23402  12.105  13.580   5.524
40502SOL    HW123403  12.088  13.578   5.430
40502SOL    HW223404  12.076  13.495   5.556
40503SOL     OW23405   5.823  12.650   8.195
40503SOL    HW123406   5.890  12.688   8.139
40503SOL    HW223407   5.872  12.613   8.268
40504SOL     OW23408  14.544  13.385   5.555
40504SOL    HW123409  14.485  13.327   5.604
40504SOL    HW223410  14.503  13.392   5.468
40505SOL     OW23411   0.763   7.584   3.164
40505SOL    HW123412   0.778   7.536   3.246
40505SOL    HW223413   0.668   7.581   3.151
40506SOL     OW23414   5.825  10.954   5.865
40506SOL    HW123415   5.761  10.924   5.930
40506SOL    HW223416   5.785  10.933   5.781
40507SOL     OW23417  11.932   2.476  14.345
40507SOL    HW123418  11.929   2.501  14.253
40507SOL    HW223419  11.867   2.406  14.352
40508SOL     OW23420  10.381  10.804   1.291
40508SOL    HW123421  10.380  10.899   1.276
40508SOL    HW223422  10.468  10.786   1.326
40509SOL     OW23423   1.661  14.408   4.801
40509SOL    HW123424   1.741  14.454   4.827
40509SOL    HW223425   1.688  14.317   4.789
40510SOL     OW23426  10.932  14.658   4.987
40510SOL    HW123427  10.937  14.672   4.893
40510SOL    HW223428  10.957  14.742   5.026
40511SOL     OW23429  11.457   2.063   3.932
40511SOL    HW123430  11.504   2.008   3.994
40511SOL    HW223431  11.373   2.080   3.974
40512SOL     OW23432   1.363   7.491  10.766
40512SOL    HW123433   1.381   7.409  10.811
40512SOL    HW223434   1.377   7.471  10.673
40513SOL     OW23435   0.503   7.309  11.058
40513SOL    HW123436   0.475   7.400  11.062
40513SOL    HW223437   0.456   7.272  10.984
40514SOL     OW23438   1.097   5.123   6.165
40514SOL    HW123439   1.067   5.208   6.132
40514SOL    HW223440   1.016   5.073   6.180
40515SOL     OW23441  11.016   5.956   6.002
40515SOL    HW123442  10.936   5.970   6.053
40515SOL    HW223443  11.078   6.019   6.038
40516SOL     OW23444   5.328   6.124   1.257
40516SOL    HW123445   5.405   6.141   1.202
40516SOL    HW223446   5.299   6.037   1.232
40517SOL     OW23447  10.066  14.659  12.094
40517SOL    HW123448  10.028  14.743  12.120
40517SOL    HW223449   9.991  14.608  12.063
40518SOL     OW23450   8.695   7.805   8.642
40518SOL    HW123451   8.711   7.713   8.620
40518SOL    HW223452   8.705   7.809   8.738
40519SOL     OW23453  13.507  10.921   6.592
40519SOL    HW123454  13.560  10.868   6.651
40519SOL    HW223455  13.418  10.886   6.602
40520SOL     OW23456  12.382   9.410  12.119
40520SOL    HW123457  12.328   9.361  12.057
40520SOL    HW223458  12.416   9.484  12.067
40521SOL     OW23459   5.823   0.208   9.108
40521SOL    HW123460   5.853   0.161   9.186
40521SOL    HW223461   5.836   0.145   9.036
40522SOL     OW23462  12.551   4.053   2.086
40522SOL    HW123463  12.466   4.087   2.058
40522SOL    HW223464  12.536   4.022   2.175
40523SOL     OW23465   9.045   7.144   1.384
40523SOL    HW123466   8.968   7.190   1.353
40523SOL    HW223467   9.086   7.108   1.305
40524SOL     OW23468   1.853   1.157  11.171
40524SOL    HW123469   1.932   1.184  11.218
40524SOL    HW223470   1.854   1.209  11.091
40525SOL     OW23471  14.846   4.360   7.562
40525SOL    HW123472   0.014   4.292   7.618
40525SOL    HW223473  14.790   4.411   7.621
40526SOL     OW23474  13.366  11.607   0.014
40526SOL    HW123475  13.343  11.514   0.022
40526SOL    HW223476  13.292  11.646  14.838
40527SOL     OW23477   0.776   3.164   2.488
40527SOL    HW123478   0.795   3.251   2.525
40527SOL    HW223479   0.830   3.160   2.409
40528SOL     OW23480   5.297   9.955  13.647
40528SOL    HW123481   5.203   9.941  13.636
40528SOL    HW223482   5.330   9.966  13.558
40529SOL     OW23483  13.810  13.388   5.808
40529SOL    HW123484  13.720  13.373   5.837
40529SOL    HW223485  13.855  13.305   5.825
40530SOL     OW23486  10.918  13.034   0.317
40530SOL    HW123487  10.837  13.035   0.368
40530SOL    HW223488  10.966  13.111   0.348
40531SOL     OW23489  10.143   2.862   2.416
40531SOL    HW123490  10.224   2.831   2.457
40531SOL    HW223491  10.095   2.906   2.486
40532SOL     OW23492   0.869   9.155   7.400
40532SOL    HW123493   0.956   9.131   7.431
40532SOL    HW223494   0.851   9.092   7.329
40533SOL     OW23495   2.443   6.653  14.723
40533SOL    HW123496   2.535   6.647  14.749
40533SOL    HW223497   2.444   6.633  14.629
40534SOL     OW23498  13.365  10.692   2.367
40534SOL    HW123499  13.445  10.657   2.328
40534SOL    HW223500  13.306  10.705   2.292
40535SOL     OW23501  13.525   1.244   4.666
40535SOL    HW123502  13.564   1.297   4.597
40535SOL    HW223503  13.584   1.170   4.677
40536SOL     OW23504   2.519  11.109   4.511
40536SOL    HW123505   2.503  11.087   4.603
40536SOL    HW223506   2.435  11.093   4.467
40537SOL     OW23507  13.980   8.633   3.867
40537SOL    HW123508  13.890   8.620   3.838
40537SOL    HW223509  14.025   8.672   3.792
40538SOL     OW23510  14.538  10.535   1.362
40538SOL    HW123511  14.568  10.526   1.452
40538SOL    HW223512  14.566  10.623   1.335
40539SOL     OW23513  13.610   6.477   3.410
40539SOL    HW123514  13.694   6.474   3.366
40539SOL    HW223515  13.611   6.559   3.459
40540SOL     OW23516  12.098   8.705   2.242
40540SOL    HW123517  12.181   8.670   2.210
40540SOL    HW223518  12.032   8.644   2.208
40541SOL     OW23519  14.214   2.753  14.365
40541SOL    HW123520  14.119   2.753  14.375
40541SOL    HW223521  14.239   2.845  14.370
40542SOL     OW23522  10.382  10.077   8.641
40542SOL    HW123523  10.449  10.078   8.709
40542SOL    HW223524  10.299  10.082   8.689
40543SOL     OW23525   6.530   4.727   6.736
40543SOL    HW123526   6.472   4.692   6.803
40543SOL    HW223527   6.471   4.755   6.666
40544SOL     OW23528  10.521  11.550  13.786
40544SOL    HW123529  10.435  11.591  13.776
40544SOL    HW223530  10.534  11.502  13.704
40545SOL     OW23531   5.972  10.318   7.882
40545SOL    HW123532   5.921  10.293   7.805
40545SOL    HW223533   5.907  10.349   7.945
40546SOL     OW23534   3.843   0.470  14.092
40546SOL    HW123535   3.880   0.393  14.137
40546SOL    HW223536   3.914   0.501  14.036
40547SOL     OW23537  12.035   8.352   6.864
40547SOL    HW123538  12.005   8.441   6.880
40547SOL    HW223539  12.107   8.361   6.801
40548SOL     OW23540   0.913   0.803   0.854
40548SOL    HW123541   0.962   0.735   0.899
40548SOL    HW223542   0.821   0.781   0.869
40549SOL     OW23543   1.316   2.744   1.065
40549SOL    HW123544   1.301   2.694   1.146
40549SOL    HW223545   1.245   2.808   1.063
40550SOL     OW23546  13.148  13.935   1.885
40550SOL    HW123547  13.202  13.858   1.871
40550SOL    HW223548  13.209  14.009   1.883
40551SOL     OW23549   0.688   9.290  11.755
40551SOL    HW123550   0.740   9.221  11.796
40551SOL    HW223551   0.689   9.269  11.662
40552SOL     OW23552   9.671  13.080   2.939
40552SOL    HW123553   9.625  13.008   2.982
40552SOL    HW223554   9.735  13.037   2.883
40553SOL     OW23555  14.539   0.107  11.436
40553SOL    HW123556  14.623   0.149  11.453
40553SOL    HW223557  14.493   0.169  11.378
40554SOL     OW23558   2.935  14.333  10.405
40554SOL    HW123559   2.882  14.299  10.477
40554SOL    HW223560   3.024  14.336  10.439
40555SOL     OW23561   7.039   3.673   7.711
40555SOL    HW123562   7.095   3.623   7.770
40555SOL    HW223563   7.082   3.666   7.626
40556SOL     OW23564   9.041   7.576  14.850
40556SOL    HW123565   9.023   7.667   0.004
40556SOL    HW223566   9.050   7.531   0.065
40557SOL     OW23567  13.711  11.332   3.630
40557SOL    HW123568  13.771  11.329   3.556
40557SOL    HW223569  13.767  11.333   3.707
40558SOL     OW23570   0.766   1.517  12.103
40558SOL    HW123571   0.788   1.602  12.066
40558SOL    HW223572   0.834   1.501  12.168
40559SOL     OW23573   7.605   8.289   8.804
40559SOL    HW123574   7.587   8.322   8.892
40559SOL    HW223575   7.579   8.197   8.807
40560SOL     OW23576   0.586   3.868   0.253
40560SOL    HW123577   0.498   3.856   0.218
40560SOL    HW223578   0.592   3.805   0.325
40561SOL     OW23579  14.454   8.293  12.867
40561SOL    HW123580  14.417   8.345  12.938
40561SOL    HW223581  14.482   8.357  12.801
40562SOL     OW23582  10.424  14.543   9.373
40562SOL    HW123583  10.485  14.522   9.443
40562SOL    HW223584  10.346  14.575   9.419
40563SOL     OW23585   8.402   8.336  12.068
40563SOL    HW123586   8.496   8.324  12.084
40563SOL    HW223587   8.399   8.404  12.000
40564SOL     OW23588   0.896   0.857   1.683
40564SOL    HW123589   0.945   0.826   1.607
40564SOL    HW223590   0.847   0.933   1.651
40565SOL     OW23591   5.618  10.614   6.219
40565SOL    HW123592   5.601  10.557   6.144
40565SOL    HW223593   5.551  10.591   6.283
40566SOL     OW23594   0.599   4.038  13.770
40566SOL    HW123595   0.684   3.996  13.753
40566SOL    HW223596   0.584   4.026  13.864
40567SOL     OW23597   9.996  11.761   2.119
40567SOL    HW123598   9.986  11.684   2.062
40567SOL    HW223599  10.070  11.740   2.176
40568SOL     OW23600   9.250   6.887   3.193
40568SOL    HW123601   9.338   6.924   3.184
40568SOL    HW223602   9.214   6.887   3.105
40569SOL     OW23603   7.388   6.270   3.586
40569SOL    HW123604   7.469   6.265   3.535
40569SOL    HW223605   7.388   6.359   3.622
40570SOL     OW23606   5.714  12.814  10.955
40570SOL    HW123607   5.732  12.840  11.045
40570SOL    HW223608   5.798  12.778  10.923
40571SOL     OW23609  11.430   2.552   7.965
40571SOL    HW123610  11.345   2.592   7.984
40571SOL    HW223611  11.490   2.626   7.957
40572SOL     OW23612   8.754   4.103   9.375
40572SOL    HW123613   8.830   4.129   9.426
40572SOL    HW223614   8.775   4.130   9.286
40573SOL     OW23615   0.061   4.164   8.201
40573SOL    HW123616   0.157   4.169   8.204
40573SOL    HW223617   0.038   4.195   8.114
40574SOL     OW23618  11.846  10.147  14.199
40574SOL    HW123619  11.798  10.226  14.173
40574SOL    HW223620  11.873  10.107  14.116
40575SOL     OW23621   1.089   8.043  11.567
40575SOL    HW123622   1.022   8.058  11.500
40575SOL    HW223623   1.145   7.975  11.530
40576SOL     OW23624   2.584   5.216   2.396
40576SOL    HW123625   2.650   5.180   2.456
40576SOL    HW223626   2.590   5.311   2.409
40577SOL     OW23627  12.674   4.510  12.019
40577SOL    HW123628  12.681   4.447  12.091
40577SOL    HW223629  12.641   4.459  11.945
40578SOL     OW23630   0.592  10.950   0.154
40578SOL    HW123631   0.615  11.020   0.216
40578SOL    HW223632   0.664  10.887   0.161
40579SOL     OW23633  10.584  12.078   4.863
40579SOL    HW123634  10.652  12.011   4.856
40579SOL    HW223635  10.545  12.083   4.776
40580SOL     OW23636   3.796   7.703   8.998
40580SOL    HW123637   3.790   7.615   8.960
40580SOL    HW223638   3.839   7.755   8.931
40581SOL     OW23639   7.437   5.511   1.087
40581SOL    HW123640   7.503   5.510   1.156
40581SOL    HW223641   7.362   5.465   1.126
40582SOL     OW23642  14.322   2.467  11.088
40582SOL    HW123643  14.249   2.493  11.145
40582SOL    HW223644  14.282   2.451  11.003
40583SOL     OW23645   7.699   0.483   9.491
40583SOL    HW123646   7.689   0.415   9.558
40583SOL    HW223647   7.610   0.504   9.464
40584SOL     OW23648   7.853  11.685   2.196
40584SOL    HW123649   7.884  11.738   2.122
40584SOL    HW223650   7.758  11.694   2.193
40585SOL     OW23651  14.080   3.217   5.270
40585SOL    HW123652  14.068   3.186   5.359
40585SOL    HW223653  14.008   3.279   5.256
40586SOL     OW23654  11.218   1.325   8.606
40586SOL    HW123655  11.175   1.344   8.689
40586SOL    HW223656  11.257   1.238   8.618
40587SOL     OW23657   3.881   2.746   0.557
40587SOL    HW123658   3.824   2.684   0.602
40587SOL    HW223659   3.862   2.734   0.464
40588SOL     OW23660   0.339   0.761   0.545
40588SOL    HW123661   0.390   0.702   0.601
40588SOL    HW223662   0.306   0.828   0.604
40589SOL     OW23663  14.120   5.925   3.559
40589SOL    HW123664  14.141   5.832   3.554
40589SOL    HW223665  14.051   5.938   3.494
40590SOL     OW23666  10.365   3.955   5.255
40590SOL    HW123667  10.293   3.978   5.196
40590SOL    HW223668  10.380   4.034   5.306
40591SOL     OW23669  14.428  12.054   3.763
40591SOL    HW123670  14.411  11.963   3.738
40591SOL    HW223671  14.422  12.103   3.680
40592SOL     OW23672  12.657  14.647   1.536
40592SOL    HW123673  12.739  14.600   1.525
40592SOL    HW223674  12.659  14.678   1.626
40593SOL     OW23675  10.889   2.541   0.636
40593SOL    HW123676  10.944   2.472   0.600
40593SOL    HW223677  10.883   2.606   0.566
40594SOL     OW23678   6.192  12.201   5.528
40594SOL    HW123679   6.171  12.258   5.454
40594SOL    HW223680   6.187  12.259   5.605
40595SOL     OW23681   2.641   5.301  13.948
40595SOL    HW123682   2.548   5.315  13.968
40595SOL    HW223683   2.676   5.260  14.027
40596SOL     OW23684   9.038  12.323   6.238
40596SOL    HW123685   9.045  12.368   6.323
40596SOL    HW223686   8.949  12.289   6.236
40597SOL     OW23687   1.277   2.244   8.023
40597SOL    HW123688   1.299   2.226   7.932
40597SOL    HW223689   1.279   2.159   8.066
40598SOL     OW23690   0.397   8.466   4.044
40598SOL    HW123691   0.391   8.557   4.016
40598SOL    HW223692   0.470   8.464   4.106
40599SOL     OW23693   4.261   7.566   6.697
40599SOL    HW123694   4.329   7.592   6.759
40599SOL    HW223695   4.237   7.647   6.652
40600SOL     OW23696  12.217  13.134   8.165
40600SOL    HW123697  12.304  13.173   8.163
40600SOL    HW223698  12.162  13.201   8.207
40601SOL     OW23699   0.831  11.101   1.496
40601SOL    HW123700   0.868  11.107   1.584
40601SOL    HW223701   0.885  11.159   1.443
40602SOL     OW23702  12.317  10.439   1.301
40602SOL    HW123703  12.385  10.404   1.244
40602SOL    HW223704  12.331  10.534   1.300
40603SOL     OW23705   6.929   5.761  13.404
40603SOL    HW123706   7.011   5.751  13.453
40603SOL    HW223707   6.887   5.839  13.443
40604SOL     OW23708  13.384   6.831  10.873
40604SOL    HW123709  13.388   6.768  10.945
40604SOL    HW223710  13.290   6.839  10.853
40605SOL     OW23711   3.986   0.184   9.773
40605SOL    HW123712   4.041   0.215   9.702
40605SOL    HW223713   3.932   0.115   9.734
40606SOL     OW23714   4.052  10.317   5.175
40606SOL    HW123715   4.044  10.389   5.237
40606SOL    HW223716   3.965  10.275   5.175
40607SOL     OW23717   4.935   4.873  10.821
40607SOL    HW123718   4.920   4.779  10.812
40607SOL    HW223719   5.030   4.881  10.834
40608SOL     OW23720  13.802   2.776   5.176
40608SOL    HW123721  13.828   2.766   5.267
40608SOL    HW223722  13.855   2.848   5.143
40609SOL     OW23723   2.009  13.090  11.134
40609SOL    HW123724   1.976  13.170  11.175
40609SOL    HW223725   1.948  13.022  11.162
40610SOL     OW23726   4.412   9.529   0.510
40610SOL    HW123727   4.365   9.485   0.581
40610SOL    HW223728   4.343   9.560   0.451
40611SOL     OW23729  14.259   2.226  11.438
40611SOL    HW123730  14.317   2.214  11.362
40611SOL    HW223731  14.179   2.180  11.414
40612SOL     OW23732  11.787   2.035   0.264
40612SOL    HW123733  11.883   2.039   0.269
40612SOL    HW223734  11.769   1.948   0.228
40613SOL     OW23735   9.115   2.991   0.585
40613SOL    HW123736   9.115   3.084   0.607
40613SOL    HW223737   9.151   2.948   0.663
40614SOL     OW23738  10.352   5.361   0.710
40614SOL    HW123739  10.311   5.275   0.706
40614SOL    HW223740  10.284   5.421   0.682
40615SOL     OW23741   8.335   8.778   8.340
40615SOL    HW123742   8.254   8.754   8.385
40615SOL    HW223743   8.401   8.780   8.410
40616SOL     OW23744   3.560   8.806   4.870
40616SOL    HW123745   3.548   8.711   4.875
40616SOL    HW223746   3.650   8.819   4.900
40617SOL     OW23747  14.514   7.643   8.308
40617SOL    HW123748  14.565   7.571   8.346
40617SOL    HW223749  14.491   7.612   8.221
40618SOL     OW23750   4.145  14.678  11.030
40618SOL    HW123751   4.087  14.722  11.092
40618SOL    HW223752   4.193  14.749  10.987
40619SOL     OW23753   9.098   8.318   1.040
40619SOL    HW123754   9.173   8.377   1.039
40619SOL    HW223755   9.051   8.340   1.120
40620SOL     OW23756   6.190   1.692   5.595
40620SOL    HW123757   6.103   1.655   5.585
40620SOL    HW223758   6.176   1.786   5.594
40621SOL     OW23759   6.123  13.915  14.275
40621SOL    HW123760   6.067  13.991  14.293
40621SOL    HW223761   6.212  13.951  14.277
40622SOL     OW23762   3.685  11.650   3.647
40622SOL    HW123763   3.771  11.657   3.688
40622SOL    HW223764   3.650  11.739   3.650
40623SOL     OW23765   0.024   1.691  11.212
40623SOL    HW123766   0.020   1.648  11.127
40623SOL    HW223767   0.015   1.620  11.276
40624SOL     OW23768  13.841   8.904   2.811
40624SOL    HW123769  13.824   8.907   2.716
40624SOL    HW223770  13.897   8.827   2.823
40625SOL     OW23771   5.216  13.012   5.628
40625SOL    HW123772   5.242  12.920   5.620
40625SOL    HW223773   5.143  13.011   5.689
40626SOL     OW23774   9.564   6.614  11.195
40626SOL    HW123775   9.516   6.674  11.137
40626SOL    HW223776   9.563   6.530  11.149
40627SOL     OW23777   8.319   1.295   1.100
40627SOL    HW123778   8.300   1.358   1.168
40627SOL    HW223779   8.302   1.342   1.018
40628SOL     OW23780   0.968   1.426  11.124
40628SOL    HW123781   1.000   1.516  11.125
40628SOL    HW223782   0.972   1.398  11.216
40629SOL     OW23783   4.682   2.609  10.028
40629SOL    HW123784   4.659   2.645  10.114
40629SOL    HW223785   4.771   2.640  10.012
40630SOL     OW23786   0.375   8.698   1.227
40630SOL    HW123787   0.422   8.648   1.161
40630SOL    HW223788   0.388   8.649   1.309
40631SOL     OW23789  11.579  12.912  13.267
40631SOL    HW123790  11.662  12.894  13.310
40631SOL    HW223791  11.591  12.997  13.225
40632SOL     OW23792   0.974  10.121   7.876
40632SOL    HW123793   0.941  10.117   7.787
40632SOL    HW223794   1.047  10.182   7.872
40633SOL     OW23795   9.148   6.053   6.368
40633SOL    HW123796   9.243   6.059   6.377
40633SOL    HW223797   9.133   5.972   6.320
40634SOL     OW23798   4.997   5.134   8.362
40634SOL    HW123799   5.057   5.119   8.289
40634SOL    HW223800   4.914   5.096   8.334
40635SOL     OW23801   4.870   4.683   9.751
40635SOL    HW123802   4.852   4.756   9.810
40635SOL    HW223803   4.963   4.691   9.731
40636SOL     OW23804   0.239  13.785  10.306
40636SOL    HW123805   0.275  13.854  10.362
40636SOL    HW223806   0.204  13.721  10.367
40637SOL     OW23807  13.972   4.005   3.168
40637SOL    HW123808  14.042   4.055   3.126
40637SOL    HW223809  13.892   4.052   3.145
40638SOL     OW23810   7.451  12.715   3.428
40638SOL    HW123811   7.430  12.678   3.514
40638SOL    HW223812   7.366  12.736   3.390
40639SOL     OW23813   4.019   8.500   6.551
40639SOL    HW123814   4.076   8.447   6.607
40639SOL    HW223815   3.932   8.490   6.588
40640SOL     OW23816   0.586   7.054  12.301
40640SOL    HW123817   0.600   7.147  12.283
40640SOL    HW223818   0.650   7.035  12.370
40641SOL     OW23819   6.485  11.311   6.860
40641SOL    HW123820   6.390  11.317   6.848
40641SOL    HW223821   6.511  11.399   6.887
40642SOL     OW23822   2.382   5.396  13.357
40642SOL    HW123823   2.371   5.344  13.437
40642SOL    HW223824   2.392   5.486  13.389
40643SOL     OW23825  14.604  13.715   6.986
40643SOL    HW123826  14.620  13.623   7.005
40643SOL    HW223827  14.690  13.756   6.992
40644SOL     OW23828  10.680   8.289  12.111
40644SOL    HW123829  10.682   8.209  12.059
40644SOL    HW223830  10.740   8.348  12.065
40645SOL     OW23831   5.427   3.137  11.087
40645SOL    HW123832   5.514   3.143  11.127
40645SOL    HW223833   5.444   3.121  10.995
40646SOL     OW23834  14.433   5.409  13.136
40646SOL    HW123835  14.486   5.362  13.071
40646SOL    HW223836  14.343   5.402  13.104
40647SOL     OW23837   5.290  12.082   7.880
40647SOL    HW123838   5.217  12.033   7.841
40647SOL    HW223839   5.362  12.019   7.883
40648SOL     OW23840   8.614  12.430   8.696
40648SOL    HW123841   8.542  12.400   8.641
40648SOL    HW223842   8.678  12.358   8.692
40649SOL     OW23843   0.647  12.100  12.855
40649SOL    HW123844   0.583  12.092  12.925
40649SOL    HW223845   0.674  12.192  12.857
40650SOL     OW23846   7.918  10.047   3.244
40650SOL    HW123847   8.006  10.083   3.232
40650SOL    HW223848   7.859  10.119   3.224
40651SOL     OW23849   3.869   2.495  12.314
40651SOL    HW123850   3.838   2.583  12.296
40651SOL    HW223851   3.964   2.501  12.310
40652SOL     OW23852   9.601  14.775   6.031
40652SOL    HW123853   9.638  14.713   5.968
40652SOL    HW223854   9.648  14.758   6.112
40653SOL     OW23855  13.386   3.573  12.385
40653SOL    HW123856  13.344   3.500  12.339
40653SOL    HW223857  13.317   3.639  12.394
40654SOL     OW23858   3.087   2.364  12.785
40654SOL    HW123859   3.055   2.365  12.695
40654SOL    HW223860   3.046   2.441  12.825
40655SOL     OW23861  10.162  13.840  10.662
40655SOL    HW123862  10.113  13.762  10.635
40655SOL    HW223863  10.120  13.912  10.615
40656SOL     OW23864   8.964   7.531   3.683
40656SOL    HW123865   8.897   7.599   3.688
40656SOL    HW223866   8.916   7.449   3.698
40657SOL     OW23867   8.793   6.690   5.765
40657SOL    HW123868   8.834   6.606   5.744
40657SOL    HW223869   8.748   6.715   5.685
40658SOL     OW23870   5.515   7.523   1.556
40658SOL    HW123871   5.597   7.548   1.599
40658SOL    HW223872   5.532   7.539   1.463
40659SOL     OW23873  10.453  12.069   8.977
40659SOL    HW123874  10.443  12.152   9.023
40659SOL    HW223875  10.467  12.005   9.046
40660SOL     OW23876   9.539  13.295  12.033
40660SOL    HW123877   9.582  13.324  11.953
40660SOL    HW223878   9.584  13.213  12.056
40661SOL     OW23879   3.490   1.622  11.894
40661SOL    HW123880   3.445   1.540  11.913
40661SOL    HW223881   3.546   1.638  11.970
40662SOL     OW23882   3.645  14.679   5.034
40662SOL    HW123883   3.596  14.747   5.079
40662SOL    HW223884   3.587  14.603   5.034
40663SOL     OW23885   0.204   9.598   0.628
40663SOL    HW123886   0.151   9.612   0.706
40663SOL    HW223887   0.245   9.512   0.642
40664SOL     OW23888   5.369  14.739   9.612
40664SOL    HW123889   5.360  14.657   9.659
40664SOL    HW223890   5.359  14.715   9.520
40665SOL     OW23891   5.979   6.227   6.045
40665SOL    HW123892   6.026   6.145   6.055
40665SOL    HW223893   5.908   6.207   5.985
40666SOL     OW23894   9.254   4.603   3.413
40666SOL    HW123895   9.306   4.587   3.334
40666SOL    HW223896   9.260   4.698   3.427
40667SOL     OW23897  11.957  11.449  14.654
40667SOL    HW123898  11.901  11.371  14.652
40667SOL    HW223899  11.977  11.460  14.747
40668SOL     OW23900   7.109   3.682  14.557
40668SOL    HW123901   7.108   3.762  14.610
40668SOL    HW223902   7.017   3.654  14.554
40669SOL     OW23903   1.133  12.752  12.985
40669SOL    HW123904   1.039  12.746  12.969
40669SOL    HW223905   1.149  12.846  12.996
40670SOL     OW23906   7.240  11.591   1.475
40670SOL    HW123907   7.274  11.538   1.404
40670SOL    HW223908   7.299  11.573   1.548
40671SOL     OW23909  13.634  11.691   3.675
40671SOL    HW123910  13.685  11.668   3.753
40671SOL    HW223911  13.686  11.659   3.601
40672SOL     OW23912   7.011   6.250  10.817
40672SOL    HW123913   7.036   6.342  10.820
40672SOL    HW223914   6.958   6.243  10.738
40673SOL     OW23915  13.905   5.480  12.987
40673SOL    HW123916  13.862   5.443  12.910
40673SOL    HW223917  13.994   5.499  12.958
40674SOL     OW23918  10.563   5.752   3.536
40674SOL    HW123919  10.542   5.768   3.443
40674SOL    HW223920  10.479   5.734   3.577
40675SOL     OW23921  11.864   5.428  11.587
40675SOL    HW123922  11.917   5.484  11.530
40675SOL    HW223923  11.787   5.407  11.534
40676SOL     OW23924   8.784   5.510  10.089
40676SOL    HW123925   8.826   5.446  10.032
40676SOL    HW223926   8.716   5.550  10.034
40677SOL     OW23927  14.746   7.977  13.371
40677SOL    HW123928  14.785   7.911  13.429
40677SOL    HW223929  14.811   8.048  13.369
40678SOL     OW23930   7.255   9.755   1.099
40678SOL    HW123931   7.171   9.715   1.123
40678SOL    HW223932   7.242   9.785   1.009
40679SOL     OW23933   0.994   5.292   0.404
40679SOL    HW123934   1.039   5.355   0.348
40679SOL    HW223935   0.902   5.298   0.378
40680SOL     OW23936  14.421  13.355   4.941
40680SOL    HW123937  14.388  13.437   4.980
40680SOL    HW223938  14.417  13.371   4.847
40681SOL     OW23939  12.802   0.035  11.703
40681SOL    HW123940  12.873   0.022  11.640
40681SOL    HW223941  12.790   0.129  11.707
40682SOL     OW23942   5.837   8.585  10.604
40682SOL    HW123943   5.866   8.498  10.630
40682SOL    HW223944   5.915   8.640  10.612
40683SOL     OW23945  13.109   7.660  14.736
40683SOL    HW123946  13.180   7.652  14.799
40683SOL    HW223947  13.030   7.665  14.790
40684SOL     OW23948   8.581   2.770   2.042
40684SOL    HW123949   8.587   2.737   1.953
40684SOL    HW223950   8.593   2.693   2.098
40685SOL     OW23951   0.320   3.185   5.093
40685SOL    HW123952   0.379   3.164   5.020
40685SOL    HW223953   0.314   3.104   5.143
40686SOL     OW23954   5.369  12.096   1.071
40686SOL    HW123955   5.335  12.008   1.089
40686SOL    HW223956   5.292  12.146   1.042
40687SOL     OW23957   2.712   5.794  14.765
40687SOL    HW123958   2.803   5.798  14.735
40687SOL    HW223959   2.718   5.772  14.858
40688SOL     OW23960   3.965  11.543  13.986
40688SOL    HW123961   4.017  11.622  13.971
40688SOL    HW223962   4.029  11.472  13.982
40689SOL     OW23963   0.414  12.910   3.475
40689SOL    HW123964   0.362  12.830   3.479
40689SOL    HW223965   0.500  12.885   3.509
40690SOL     OW23966   4.157   8.903  12.911
40690SOL    HW123967   4.091   8.962  12.874
40690SOL    HW223968   4.241   8.940  12.883
40691SOL     OW23969  10.438   8.728  14.259
40691SOL    HW123970  10.443   8.647  14.310
40691SOL    HW223971  10.373   8.710  14.192
40692SOL     OW23972   1.512   8.905   5.256
40692SOL    HW123973   1.429   8.954   5.259
40692SOL    HW223974   1.579   8.973   5.258
40693SOL     OW23975   9.609   6.854  12.566
40693SOL    HW123976   9.638   6.854  12.657
40693SOL    HW223977   9.526   6.807  12.567
40694SOL     OW23978   0.788   8.907   0.413
40694SOL    HW123979   0.750   8.995   0.423
40694SOL    HW223980   0.833   8.911   0.328
40695SOL     OW23981   8.668   6.342   9.798
40695SOL    HW123982   8.753   6.379   9.773
40695SOL    HW223983   8.624   6.325   9.715
40696SOL     OW23984  14.167   2.610   8.448
40696SOL    HW123985  14.167   2.705   8.439
40696SOL    HW223986  14.255   2.583   8.422
40697SOL     OW23987   9.238   6.463   2.512
40697SOL    HW123988   9.292   6.534   2.478
40697SOL    HW223989   9.177   6.442   2.441
40698SOL     OW23990   2.230   9.531  13.274
40698SOL    HW123991   2.255   9.530  13.181
40698SOL    HW223992   2.200   9.441  13.290
40699SOL     OW23993  14.786   7.696  10.060
40699SOL    HW123994  14.800   7.697  10.154
40699SOL    HW223995  14.727   7.770  10.044
40700SOL     OW23996   5.969   3.662   5.362
40700SOL    HW123997   5.907   3.668   5.289
40700SOL    HW223998   6.013   3.578   5.349
40701SOL     OW23999   5.245   0.959   8.027
40701SOL    HW124000   5.288   0.900   8.090
40701SOL    HW224001   5.308   1.030   8.013
40702SOL     OW24002  13.843  13.549   7.124
40702SOL    HW124003  13.772  13.538   7.187
40702SOL    HW224004  13.799  13.554   7.039
40703SOL     OW24005  10.675   3.623   7.065
40703SOL    HW124006  10.759   3.655   7.033
40703SOL    HW224007  10.684   3.624   7.160
40704SOL     OW24008   8.876   7.635  13.865
40704SOL    HW124009   8.804   7.651  13.805
40704SOL    HW224010   8.927   7.565  13.823
40705SOL     OW24011   3.641   7.314   6.684
40705SOL    HW124012   3.658   7.406   6.663
40705SOL    HW224013   3.598   7.279   6.606
40706SOL     OW24014  10.759   4.310   0.105
40706SOL    HW124015  10.750   4.280   0.015
40706SOL    HW224016  10.697   4.382   0.112
40707SOL     OW24017   6.849   6.729   9.180
40707SOL    HW124018   6.934   6.772   9.173
40707SOL    HW224019   6.786   6.800   9.189
40708SOL     OW24020   8.129   0.572  12.398
40708SOL    HW124021   8.110   0.493  12.450
40708SOL    HW224022   8.224   0.576  12.395
40709SOL     OW24023   5.997   6.866   8.342
40709SOL    HW124024   5.903   6.883   8.347
40709SOL    HW224025   6.008   6.781   8.386
40710SOL     OW24026   4.435   4.612   4.430
40710SOL    HW124027   4.489   4.534   4.420
40710SOL    HW224028   4.496   4.679   4.464
40711SOL     OW24029  11.389  10.852   3.484
40711SOL    HW124030  11.379  10.757   3.482
40711SOL    HW224031  11.308  10.886   3.447
40712SOL     OW24032   7.888   2.248   6.572
40712SOL    HW124033   7.942   2.207   6.505
40712SOL    HW224034   7.914   2.204   6.654
40713SOL     OW24035   5.982   4.562   5.959
40713SOL    HW124036   5.891   4.593   5.952
40713SOL    HW224037   6.027   4.631   6.008
40714SOL     OW24038  14.091   0.092  10.546
40714SOL    HW124039  14.184   0.112  10.552
40714SOL    HW224040  14.082   0.041  10.466
40715SOL     OW24041   5.221  14.784   8.022
40715SOL    HW124042   5.266  14.849   7.967
40715SOL    HW224043   5.186  14.720   7.960
40716SOL     OW24044  13.916   3.186   6.868
40716SOL    HW124045  13.825   3.199   6.843
40716SOL    HW224046  13.913   3.113   6.931
40717SOL     OW24047  12.928   6.159   0.907
40717SOL    HW124048  12.909   6.096   0.976
40717SOL    HW224049  12.962   6.236   0.954
40718SOL     OW24050   3.007   2.413   0.187
40718SOL    HW124051   3.086   2.401   0.134
40718SOL    HW224052   2.937   2.372   0.136
40719SOL     OW24053   8.986  11.362  10.222
40719SOL    HW124054   9.016  11.290  10.167
40719SOL    HW224055   8.987  11.438  10.164
40720SOL     OW24056   7.075   3.338   6.429
40720SOL    HW124057   7.118   3.269   6.379
40720SOL    HW224058   7.055   3.406   6.365
40721SOL     OW24059   9.892  13.342   9.114
40721SOL    HW124060   9.985  13.365   9.113
40721SOL    HW224061   9.858  13.376   9.031
40722SOL     OW24062   6.612   4.490  10.820
40722SOL    HW124063   6.652   4.539  10.748
40722SOL    HW224064   6.551   4.552  10.860
40723SOL     OW24065   6.165  12.737  12.876
40723SOL    HW124066   6.186  12.710  12.965
40723SOL    HW224067   6.240  12.710  12.824
40724SOL     OW24068   1.247   6.560  12.487
40724SOL    HW124069   1.233   6.601  12.402
40724SOL    HW224070   1.341   6.572  12.503
40725SOL     OW24071  10.241   7.414   8.843
40725SOL    HW124072  10.201   7.461   8.916
40725SOL    HW224073  10.278   7.335   8.883
40726SOL     OW24074   3.539   4.724   0.308
40726SOL    HW124075   3.496   4.809   0.307
40726SOL    HW224076   3.626   4.740   0.274
40727SOL     OW24077   0.202   0.438   7.658
40727SOL    HW124078   0.294   0.464   7.654
40727SOL    HW224079   0.157   0.502   7.604
40728SOL     OW24080  11.565   8.183   4.198
40728SOL    HW124081  11.501   8.180   4.269
40728SOL    HW224082  11.537   8.257   4.144
40729SOL     OW24083   8.298  14.720   7.058
40729SOL    HW124084   8.326  14.803   7.096
40729SOL    HW224085   8.376  14.683   7.017
40730SOL     OW24086   8.003  11.090  10.315
40730SOL    HW124087   7.961  11.156  10.261
40730SOL    HW224088   8.045  11.031  10.252
40731SOL     OW24089   3.179   9.990  10.345
40731SOL    HW124090   3.243   9.979  10.275
40731SOL    HW224091   3.210   9.931  10.414
40732SOL     OW24092   2.226   8.009  11.171
40732SOL    HW124093   2.238   8.035  11.080
40732SOL    HW224094   2.135   7.979  11.176
40733SOL     OW24095   6.525   6.388  12.812
40733SOL    HW124096   6.466   6.422  12.745
40733SOL    HW224097   6.595   6.344  12.763
40734SOL     OW24098   7.573   1.122   3.888
40734SOL    HW124099   7.610   1.159   3.807
40734SOL    HW224100   7.622   1.040   3.901
40735SOL     OW24101   5.946   1.460  12.072
40735SOL    HW124102   5.998   1.478  12.150
40735SOL    HW224103   5.967   1.532  12.013
40736SOL     OW24104   8.523   6.668   5.581
40736SOL    HW124105   8.537   6.669   5.486
40736SOL    HW224106   8.515   6.575   5.603
40737SOL     OW24107   1.828   5.246   9.813
40737SOL    HW124108   1.740   5.261   9.849
40737SOL    HW224109   1.884   5.236   9.889
40738SOL     OW24110  14.719  10.835   8.483
40738SOL    HW124111  14.774  10.913   8.475
40738SOL    HW224112  14.633  10.863   8.453
40739SOL     OW24113   9.590   5.602   8.035
40739SOL    HW124114   9.569   5.542   8.106
40739SOL    HW224115   9.505   5.633   8.003
40740SOL     OW24116  14.268  10.269  14.262
40740SOL    HW124117  14.234  10.215  14.190
40740SOL    HW224118  14.275  10.210  14.336
40741SOL     OW24119   2.824   4.520   8.445
40741SOL    HW124120   2.838   4.539   8.353
40741SOL    HW224121   2.810   4.606   8.486
40742SOL     OW24122   6.302  14.013  14.658
40742SOL    HW124123   6.287  14.018  14.563
40742SOL    HW224124   6.220  14.046  14.696
40743SOL     OW24125   3.601   9.620   9.877
40743SOL    HW124126   3.621   9.691   9.816
40743SOL    HW224127   3.678   9.613   9.933
40744SOL     OW24128   4.055   2.211   2.737
40744SOL    HW124129   3.973   2.239   2.697
40744SOL    HW224130   4.089   2.290   2.780
40745SOL     OW24131   3.668  11.677   6.350
40745SOL    HW124132   3.619  11.703   6.428
40745SOL    HW224133   3.613  11.704   6.277
40746SOL     OW24134   1.663  13.350  13.704
40746SOL    HW124135   1.648  13.436  13.664
40746SOL    HW224136   1.737  13.363  13.763
40747SOL     OW24137   4.285  14.048   8.737
40747SOL    HW124138   4.345  14.120   8.714
40747SOL    HW224139   4.335  13.995   8.798
40748SOL     OW24140  10.925  10.072   7.793
40748SOL    HW124141  10.884  10.022   7.863
40748SOL    HW224142  10.933  10.010   7.720
40749SOL     OW24143  14.333   9.998   9.984
40749SOL    HW124144  14.248  10.018  10.023
40749SOL    HW224145  14.313   9.942   9.909
40750SOL     OW24146   2.465   3.454   6.710
40750SOL    HW124147   2.512   3.532   6.678
40750SOL    HW224148   2.435   3.477   6.797
40751SOL     OW24149   8.898   5.889  14.746
40751SOL    HW124150   8.958   5.840  14.803
40751SOL    HW224151   8.937   5.881  14.659
40752SOL     OW24152  13.481   0.910   1.125
40752SOL    HW124153  13.444   0.998   1.133
40752SOL    HW224154  13.428   0.856   1.184
40753SOL     OW24155   6.353   3.488   7.978
40753SOL    HW124156   6.283   3.544   8.011
40753SOL    HW224157   6.402   3.462   8.056
40754SOL     OW24158   4.235   6.393   3.392
40754SOL    HW124159   4.265   6.484   3.385
40754SOL    HW224160   4.300   6.350   3.448
40755SOL     OW24161  13.708   7.608   8.759
40755SOL    HW124162  13.731   7.700   8.744
40755SOL    HW224163  13.788   7.559   8.741
40756SOL     OW24164   7.106  10.597   1.251
40756SOL    HW124165   7.147  10.510   1.256
40756SOL    HW224166   7.163  10.653   1.303
40757SOL     OW24167   3.027  12.355   7.929
40757SOL    HW124168   2.965  12.399   7.871
40757SOL    HW224169   3.113  12.371   7.889
40758SOL     OW24170  10.226   9.043   0.300
40758SOL    HW124171  10.281   8.987   0.245
40758SOL    HW224172  10.248   9.132   0.273
40759SOL     OW24173   1.110   4.429   9.151
40759SOL    HW124174   1.088   4.521   9.136
40759SOL    HW224175   1.196   4.432   9.193
40760SOL     OW24176   9.445  13.415  14.481
40760SOL    HW124177   9.365  13.423  14.428
40760SOL    HW224178   9.417  13.434  14.570
40761SOL     OW24179   0.927   7.728  12.401
40761SOL    HW124180   1.014   7.694  12.423
40761SOL    HW224181   0.902   7.781  12.477
40762SOL     OW24182   6.915   1.743   9.608
40762SOL    HW124183   6.885   1.656   9.634
40762SOL    HW224184   6.859   1.767   9.534
40763SOL     OW24185  13.977   9.017   8.550
40763SOL    HW124186  13.968   8.945   8.612
40763SOL    HW224187  13.981   9.095   8.605
40764SOL     OW24188  13.888   9.126   7.141
40764SOL    HW124189  13.864   9.033   7.150
40764SOL    HW224190  13.853   9.151   7.055
40765SOL     OW24191  12.415   7.495   8.704
40765SOL    HW124192  12.347   7.520   8.765
40765SOL    HW224193  12.381   7.520   8.618
40766SOL     OW24194   5.155   3.322   7.466
40766SOL    HW124195   5.225   3.349   7.526
40766SOL    HW224196   5.124   3.404   7.427
40767SOL     OW24197  14.524   9.623  11.017
40767SOL    HW124198  14.540   9.571  11.096
40767SOL    HW224199  14.505   9.558  10.949
40768SOL     OW24200   1.015   3.970   5.277
40768SOL    HW124201   1.100   3.941   5.243
40768SOL    HW224202   0.962   3.985   5.199
40769SOL     OW24203  11.735   0.627   0.519
40769SOL    HW124204  11.811   0.570   0.512
40769SOL    HW224205  11.694   0.601   0.602
40770SOL     OW24206  11.681   9.477  14.744
40770SOL    HW124207  11.765   9.498  14.784
40770SOL    HW224208  11.665   9.385  14.765
40771SOL     OW24209   3.222  11.984   5.903
40771SOL    HW124210   3.308  11.963   5.940
40771SOL    HW224211   3.188  11.901   5.871
40772SOL     OW24212   3.548  11.993  11.137
40772SOL    HW124213   3.549  11.911  11.186
40772SOL    HW224214   3.638  12.026  11.145
40773SOL     OW24215   9.762   5.811   5.982
40773SOL    HW124216   9.765   5.899   6.019
40773SOL    HW224217   9.852   5.793   5.954
40774SOL     OW24218  11.349   8.203   8.171
40774SOL    HW124219  11.325   8.197   8.263
40774SOL    HW224220  11.266   8.209   8.124
40775SOL     OW24221   0.394  10.496   1.941
40775SOL    HW124222   0.423  10.520   1.853
40775SOL    HW224223   0.469  10.515   1.998
40776SOL     OW24224   0.432  10.984   7.870
40776SOL    HW124225   0.520  11.019   7.856
40776SOL    HW224226   0.381  11.016   7.795
40777SOL     OW24227   4.259   7.462   2.639
40777SOL    HW124228   4.321   7.517   2.687
40777SOL    HW224229   4.306   7.380   2.625
40778SOL     OW24230   3.761  12.062   8.320
40778SOL    HW124231   3.692  12.002   8.290
40778SOL    HW224232   3.725  12.101   8.400
40779SOL     OW24233   4.126  10.916   7.799
40779SOL    HW124234   4.171  10.924   7.883
40779SOL    HW224235   4.150  10.829   7.766
40780SOL     OW24236   4.859  12.396   8.991
40780SOL    HW124237   4.785  12.454   8.977
40780SOL    HW224238   4.894  12.381   8.903
40781SOL     OW24239  14.752   6.164  10.977
40781SOL    HW124240  14.825   6.187  11.036
40781SOL    HW224241  14.700   6.244  10.972
40782SOL     OW24242  12.825   9.103   1.599
40782SOL    HW124243  12.820   9.179   1.542
40782SOL    HW224244  12.826   9.028   1.539
40783SOL     OW24245   3.139   1.575   3.086
40783SOL    HW124246   3.091   1.523   3.022
40783SOL    HW224247   3.224   1.532   3.092
40784SOL     OW24248   9.700  11.190   5.039
40784SOL    HW124249   9.791  11.214   5.020
40784SOL    HW224250   9.684  11.224   5.127
40785SOL     OW24251  14.855  10.528   7.723
40785SOL    HW124252  14.781  10.482   7.765
40785SOL    HW224253   0.052  10.460   7.713
40786SOL     OW24254   5.829  14.557   6.887
40786SOL    HW124255   5.918  14.552   6.920
40786SOL    HW224256   5.831  14.624   6.820
40787SOL     OW24257   9.540  12.929   2.021
40787SOL    HW124258   9.613  12.948   1.962
40787SOL    HW224259   9.516  12.839   2.001
40788SOL     OW24260   0.459   0.310  12.974
40788SOL    HW124261   0.409   0.387  12.947
40788SOL    HW224262   0.549   0.343  12.983
40789SOL     OW24263   8.125   8.283   1.424
40789SOL    HW124264   8.115   8.188   1.438
40789SOL    HW224265   8.037   8.315   1.408
40790SOL     OW24266  12.927   3.183   8.270
40790SOL    HW124267  12.900   3.091   8.273
40790SOL    HW224268  12.846   3.233   8.270
40791SOL     OW24269   9.110   9.027   3.272
40791SOL    HW124270   9.196   8.985   3.281
40791SOL    HW224271   9.063   9.003   3.353
40792SOL     OW24272   2.916   0.681   2.187
40792SOL    HW124273   2.870   0.709   2.267
40792SOL    HW224274   2.953   0.596   2.209
40793SOL     OW24275   1.398   9.439   3.382
40793SOL    HW124276   1.488   9.469   3.394
40793SOL    HW224277   1.393   9.359   3.435
40794SOL     OW24278   9.294   1.939  14.166
40794SOL    HW124279   9.224   1.876  14.180
40794SOL    HW224280   9.369   1.886  14.137
40795SOL     OW24281  14.037   0.013   0.106
40795SOL    HW124282  13.947   0.042   0.121
40795SOL    HW224283  14.046  14.803   0.158
40796SOL     OW24284   6.464   9.868  14.441
40796SOL    HW124285   6.469   9.926  14.365
40796SOL    HW224286   6.555   9.861  14.471
40797SOL     OW24287   5.456   1.888   7.640
40797SOL    HW124288   5.361   1.898   7.644
40797SOL    HW224289   5.472   1.848   7.554
40798SOL     OW24290  13.029   5.982   0.112
40798SOL    HW124291  12.973   5.980   0.190
40798SOL    HW224292  13.080   6.063   0.122
40799SOL     OW24293   3.320  11.646   7.514
40799SOL    HW124294   3.375  11.698   7.573
40799SOL    HW224295   3.367  11.564   7.503
40800SOL     OW24296   1.515   0.205   1.095
40800SOL    HW124297   1.523   0.141   1.165
40800SOL    HW224298   1.605   0.218   1.064
40801SOL     OW24299   7.968  11.854  12.803
40801SOL    HW124300   7.965  11.777  12.747
40801SOL    HW224301   7.876  11.880  12.813
40802SOL     OW24302  11.332   3.418   4.567
40802SOL    HW124303  11.271   3.357   4.608
40802SOL    HW224304  11.346   3.382   4.479
40803SOL     OW24305  12.373  13.614   0.428
40803SOL    HW124306  12.287  13.620   0.386
40803SOL    HW224307  12.384  13.520   0.445
40804SOL     OW24308   0.853   6.843  12.126
40804SOL    HW124309   0.886   6.931  12.110
40804SOL    HW224310   0.894   6.788  12.059
40805SOL     OW24311   2.958   9.403   3.285
40805SOL    HW124312   3.013   9.410   3.363
40805SOL    HW224313   2.876   9.365   3.316
40806SOL     OW24314   1.166  12.156   4.436
40806SOL    HW124315   1.257  12.138   4.412
40806SOL    HW224316   1.172  12.213   4.513
40807SOL     OW24317   4.766   1.288   4.601
40807SOL    HW124318   4.751   1.367   4.548
40807SOL    HW224319   4.689   1.283   4.657
40808SOL     OW24320   4.184   9.717   8.785
40808SOL    HW124321   4.253   9.737   8.848
40808SOL    HW224322   4.138   9.641   8.822
40809SOL     OW24323   4.769   7.460   8.559
40809SOL    HW124324   4.716   7.539   8.548
40809SOL    HW224325   4.732   7.397   8.497
40810SOL     OW24326   0.686   4.722  14.164
40810SOL    HW124327   0.637   4.640  14.166
40810SOL    HW224328   0.655   4.768  14.086
40811SOL     OW24329   5.647  11.482   0.594
40811SOL    HW124330   5.706  11.461   0.666
40811SOL    HW224331   5.695  11.455   0.516
40812SOL     OW24332   9.717  14.762  13.192
40812SOL    HW124333   9.701  14.734  13.282
40812SOL    HW224334   9.642  14.728  13.143
40813SOL     OW24335   6.021   4.612   3.636
40813SOL    HW124336   6.048   4.567   3.716
40813SOL    HW224337   5.945   4.664   3.662
40814SOL     OW24338   9.232  14.037   7.837
40814SOL    HW124339   9.270  14.066   7.920
40814SOL    HW224340   9.289  14.076   7.770
40815SOL     OW24341   8.888  10.738  11.842
40815SOL    HW124342   8.819  10.759  11.779
40815SOL    HW224343   8.905  10.821  11.888
40816SOL     OW24344   0.546   3.457   4.614
40816SOL    HW124345   0.544   3.414   4.529
40816SOL    HW224346   0.458   3.447   4.649
40817SOL     OW24347  13.276  11.449  10.955
40817SOL    HW124348  13.213  11.502  10.906
40817SOL    HW224349  13.250  11.359  10.939
40818SOL     OW24350   0.101   6.393   6.247
40818SOL    HW124351   0.051   6.328   6.199
40818SOL    HW224352   0.167   6.424   6.185
40819SOL     OW24353  14.231   6.915  10.316
40819SOL    HW124354  14.258   6.948  10.402
40819SOL    HW224355  14.135   6.922  10.317
40820SOL     OW24356   0.095   1.473  13.771
40820SOL    HW124357   0.163   1.419  13.812
40820SOL    HW224358   0.093   1.445  13.680
40821SOL     OW24359   6.338   4.414  11.458
40821SOL    HW124360   6.388   4.333  11.448
40821SOL    HW224361   6.359   4.464  11.379
40822SOL     OW24362  11.142  11.911  11.002
40822SOL    HW124363  11.232  11.942  11.012
40822SOL    HW224364  11.144  11.855  10.925
40823SOL     OW24365   0.680  13.181   9.902
40823SOL    HW124366   0.721  13.125   9.968
40823SOL    HW224367   0.647  13.256   9.951
40824SOL     OW24368   4.217   3.101  12.099
40824SOL    HW124369   4.262   3.024  12.131
40824SOL    HW224370   4.155   3.124  12.168
40825SOL     OW24371  10.886   9.736   0.850
40825SOL    HW124372  10.794   9.710   0.842
40825SOL    HW224373  10.919   9.685   0.924
40826SOL     OW24374   5.940   2.680   2.101
40826SOL    HW124375   5.941   2.739   2.176
40826SOL    HW224376   5.853   2.692   2.062
40827SOL     OW24377  14.787   1.675  11.852
40827SOL    HW124378  14.752   1.724  11.777
40827SOL    HW224379  14.753   1.586  11.839
40828SOL     OW24380   4.239   8.341   6.629
40828SOL    HW124381   4.298   8.303   6.695
40828SOL    HW224382   4.280   8.319   6.545
40829SOL     OW24383  13.836  12.714  10.530
40829SOL    HW124384  13.756  12.701  10.582
40829SOL    HW224385  13.876  12.793  10.567
40830SOL     OW24386   9.053   1.262   9.511
40830SOL    HW124387   9.094   1.188   9.556
40830SOL    HW224388   9.049   1.235   9.419
40831SOL     OW24389   1.908  13.286   0.204
40831SOL    HW124390   1.889  13.375   0.231
40831SOL    HW224391   1.909  13.289   0.108
40832SOL     OW24392  13.337   4.465   3.271
40832SOL    HW124393  13.251   4.433   3.244
40832SOL    HW224394  13.333   4.468   3.367
40833SOL     OW24395   3.489   4.997   0.327
40833SOL    HW124396   3.434   5.066   0.362
40833SOL    HW224397   3.579   5.027   0.342
40834SOL     OW24398   6.352   4.463   7.318
40834SOL    HW124399   6.369   4.510   7.237
40834SOL    HW224400   6.434   4.419   7.339
40835SOL     OW24401   2.219  13.381   2.740
40835SOL    HW124402   2.147  13.443   2.748
40835SOL    HW224403   2.183  13.299   2.774
40836SOL     OW24404   9.137  14.405  10.205
40836SOL    HW124405   9.086  14.376  10.281
40836SOL    HW224406   9.071  14.437  10.144
40837SOL     OW24407  13.186   5.048   3.802
40837SOL    HW124408  13.268   5.034   3.849
40837SOL    HW224409  13.169   5.142   3.811
40838SOL     OW24410   1.190  14.529  10.360
40838SOL    HW124411   1.179  14.552  10.268
40838SOL    HW224412   1.285  14.520  10.372
40839SOL     OW24413  10.218   6.572  11.043
40839SOL    HW124414  10.152   6.516  11.084
40839SOL    HW224415  10.301   6.533  11.069
40840SOL     OW24416   3.589   7.554  14.463
40840SOL    HW124417   3.651   7.500  14.513
40840SOL    HW224418   3.583   7.636  14.513
40841SOL     OW24419   2.318   2.514  13.845
40841SOL    HW124420   2.269   2.511  13.927
40841SOL    HW224421   2.251   2.521  13.777
40842SOL     OW24422   6.376   1.507  11.539
40842SOL    HW124423   6.426   1.577  11.581
40842SOL    HW224424   6.423   1.427  11.561
40843SOL     OW24425   7.669   5.896   6.059
40843SOL    HW124426   7.755   5.897   6.102
40843SOL    HW224427   7.653   5.988   6.036
40844SOL     OW24428   2.313  12.845  14.519
40844SOL    HW124429   2.278  12.788  14.588
40844SOL    HW224430   2.278  12.808  14.438
40845SOL     OW24431   7.864   1.883   6.565
40845SOL    HW124432   7.796   1.820   6.587
40845SOL    HW224433   7.818   1.956   6.523
40846SOL     OW24434   5.643   0.163  12.230
40846SOL    HW124435   5.588   0.088  12.252
40846SOL    HW224436   5.594   0.239  12.263
40847SOL     OW24437  10.933   9.118  10.675
40847SOL    HW124438  10.856   9.062  10.661
40847SOL    HW224439  10.896   9.201  10.706
40848SOL     OW24440   9.279   8.890   4.051
40848SOL    HW124441   9.373   8.907   4.040
40848SOL    HW224442   9.250   8.955   4.114
40849SOL     OW24443   1.825   3.581  14.464
40849SOL    HW124444   1.875   3.663  14.459
40849SOL    HW224445   1.734   3.608  14.452
40850SOL     OW24446  13.153   2.303   2.408
40850SOL    HW124447  13.095   2.309   2.332
40850SOL    HW224448  13.203   2.385   2.407
40851SOL     OW24449  10.827  14.201   9.587
40851SOL    HW124450  10.795  14.262   9.520
40851SOL    HW224451  10.770  14.125   9.578
40852SOL     OW24452   4.254   8.024   8.513
40852SOL    HW124453   4.342   8.061   8.525
40852SOL    HW224454   4.202   8.065   8.582
40853SOL     OW24455   8.807   5.561   3.246
40853SOL    HW124456   8.777   5.490   3.189
40853SOL    HW224457   8.733   5.578   3.304
40854SOL     OW24458  10.264   5.712   1.675
40854SOL    HW124459  10.209   5.784   1.706
40854SOL    HW224460  10.317   5.750   1.605
40855SOL     OW24461   8.343  12.414   1.976
40855SOL    HW124462   8.359  12.328   1.938
40855SOL    HW224463   8.285  12.397   2.051
40856SOL     OW24464   3.072   1.337  13.658
40856SOL    HW124465   2.981   1.323  13.630
40856SOL    HW224466   3.065   1.393  13.736
40857SOL     OW24467   6.381  13.418  13.252
40857SOL    HW124468   6.402  13.504  13.290
40857SOL    HW224469   6.457  13.364  13.274
40858SOL     OW24470  13.811  13.273   0.407
40858SOL    HW124471  13.869  13.344   0.435
40858SOL    HW224472  13.745  13.317   0.352
40859SOL     OW24473  14.773   4.896   4.809
40859SOL    HW124474  14.765   4.816   4.757
40859SOL    HW224475  14.866   4.918   4.804
40860SOL     OW24476   1.718   7.510   7.537
40860SOL    HW124477   1.679   7.426   7.560
40860SOL    HW224478   1.805   7.489   7.504
40861SOL     OW24479  13.382  11.396   0.644
40861SOL    HW124480  13.396  11.334   0.573
40861SOL    HW224481  13.463  11.394   0.695
40862SOL     OW24482   4.274   5.412   6.346
40862SOL    HW124483   4.230   5.492   6.316
40862SOL    HW224484   4.367   5.432   6.340
40863SOL     OW24485   3.052   5.492  14.268
40863SOL    HW124486   2.990   5.522  14.201
40863SOL    HW224487   3.136   5.530  14.242
40864SOL     OW24488   6.841   8.888  11.365
40864SOL    HW124489   6.896   8.966  11.352
40864SOL    HW224490   6.796   8.904  11.448
40865SOL     OW24491  13.931   0.076   5.657
40865SOL    HW124492  13.876   0.150   5.630
40865SOL    HW224493  13.895   0.049   5.741
40866SOL     OW24494   4.993   4.305  11.040
40866SOL    HW124495   5.076   4.278  11.080
40866SOL    HW224496   4.977   4.392  11.076
40867SOL     OW24497   2.761  10.300   4.797
40867SOL    HW124498   2.824  10.365   4.828
40867SOL    HW224499   2.680  10.321   4.842
40868SOL     OW24500   6.337   8.965  12.997
40868SOL    HW124501   6.395   8.889  13.008
40868SOL    HW224502   6.322   8.971  12.903
40869SOL     OW24503   6.450  13.625   6.379
40869SOL    HW124504   6.462  13.718   6.397
40869SOL    HW224505   6.436  13.585   6.465
40870SOL     OW24506   9.662   9.198   7.023
40870SOL    HW124507   9.648   9.192   6.929
40870SOL    HW224508   9.604   9.131   7.060
40871SOL     OW24509   1.705   7.474  11.023
40871SOL    HW124510   1.778   7.454  11.081
40871SOL    HW224511   1.719   7.417  10.946
40872SOL     OW24512   0.736  13.052   5.954
40872SOL    HW124513   0.786  12.981   5.913
40872SOL    HW224514   0.680  13.008   6.017
40873SOL     OW24515  10.186  10.741   4.546
40873SOL    HW124516  10.106  10.757   4.497
40873SOL    HW224517  10.251  10.719   4.480
40874SOL     OW24518   7.616  11.784   5.243
40874SOL    HW124519   7.573  11.711   5.288
40874SOL    HW224520   7.691  11.744   5.200
40875SOL     OW24521   9.566   9.914   4.008
40875SOL    HW124522   9.634   9.847   4.001
40875SOL    HW224523   9.516   9.907   3.927
40876SOL     OW24524   7.736   3.705   8.437
40876SOL    HW124525   7.671   3.773   8.421
40876SOL    HW224526   7.796   3.744   8.501
40877SOL     OW24527  14.651   3.041   4.216
40877SOL    HW124528  14.589   3.110   4.240
40877SOL    HW224529  14.737   3.078   4.238
40878SOL     OW24530   3.930   9.840   9.089
40878SOL    HW124531   3.921   9.782   9.013
40878SOL    HW224532   4.024   9.850   9.100
40879SOL     OW24533  11.905  13.132   8.432
40879SOL    HW124534  11.945  13.097   8.352
40879SOL    HW224535  11.938  13.075   8.502
40880SOL     OW24536   5.051   6.182   7.513
40880SOL    HW124537   5.107   6.245   7.560
40880SOL    HW224538   5.058   6.207   7.421
40881SOL     OW24539   9.149  13.158  10.956
40881SOL    HW124540   9.065  13.170  10.913
40881SOL    HW224541   9.129  13.156  11.049
40882SOL     OW24542   1.549   6.821   6.690
40882SOL    HW124543   1.534   6.754   6.624
40882SOL    HW224544   1.501   6.898   6.659
40883SOL     OW24545   8.108  10.167   2.560
40883SOL    HW124546   8.201  10.149   2.576
40883SOL    HW224547   8.099  10.165   2.465
40884SOL     OW24548  10.202  11.298   0.614
40884SOL    HW124549  10.280  11.241   0.611
40884SOL    HW224550  10.238  11.387   0.616
40885SOL     OW24551  10.879   3.558   3.808
40885SOL    HW124552  10.839   3.644   3.794
40885SOL    HW224553  10.835   3.525   3.887
40886SOL     OW24554   8.776   8.901   7.863
40886SOL    HW124555   8.795   8.916   7.771
40886SOL    HW224556   8.699   8.844   7.862
40887SOL     OW24557   6.929   2.205   5.133
40887SOL    HW124558   6.955   2.297   5.131
40887SOL    HW224559   6.999   2.162   5.183
40888SOL     OW24560   8.113  14.389  11.700
40888SOL    HW124561   8.072  14.303  11.692
40888SOL    HW224562   8.092  14.434  11.617
40889SOL     OW24563  12.455  10.717   2.085
40889SOL    HW124564  12.453  10.623   2.071
40889SOL    HW224565  12.435  10.755   1.999
40890SOL     OW24566   1.540   2.291   6.514
40890SOL    HW124567   1.461   2.264   6.560
40890SOL    HW224568   1.511   2.364   6.458
40891SOL     OW24569   7.527   7.066  10.535
40891SOL    HW124570   7.594   7.083  10.469
40891SOL    HW224571   7.518   7.149  10.582
40892SOL     OW24572  11.152   7.775   5.416
40892SOL    HW124573  11.112   7.858   5.392
40892SOL    HW224574  11.210   7.795   5.489
40893SOL     OW24575   2.545   5.708  12.108
40893SOL    HW124576   2.639   5.730  12.115
40893SOL    HW224577   2.502   5.793  12.098
40894SOL     OW24578   7.094  10.511  14.403
40894SOL    HW124579   7.014  10.538  14.447
40894SOL    HW224580   7.125  10.591  14.359
40895SOL     OW24581   1.150   4.761  11.998
40895SOL    HW124582   1.086   4.719  12.055
40895SOL    HW224583   1.207   4.690  11.967
40896SOL     OW24584   6.825  11.692   1.145
40896SOL    HW124585   6.902  11.648   1.108
40896SOL    HW224586   6.763  11.621   1.160
40897SOL     OW24587   6.018   3.416   6.502
40897SOL    HW124588   6.048   3.433   6.592
40897SOL    HW224589   5.927   3.446   6.501
40898SOL     OW24590  13.541   1.349  10.945
40898SOL    HW124591  13.484   1.307  10.880
40898SOL    HW224592  13.618   1.292  10.949
40899SOL     OW24593   2.901  10.793  12.699
40899SOL    HW124594   2.952  10.871  12.722
40899SOL    HW224595   2.861  10.814  12.615
40900SOL     OW24596  13.522   6.628   1.206
40900SOL    HW124597  13.438   6.651   1.247
40900SOL    HW224598  13.580   6.700   1.229
40901SOL     OW24599   1.605   5.005   7.655
40901SOL    HW124600   1.697   4.981   7.648
40901SOL    HW224601   1.557   4.929   7.622
40902SOL     OW24602   2.312   7.108   7.318
40902SOL    HW124603   2.403   7.124   7.343
40902SOL    HW224604   2.306   7.136   7.227
40903SOL     OW24605   8.363   5.556   2.326
40903SOL    HW124606   8.439   5.524   2.277
40903SOL    HW224607   8.294   5.567   2.260
40904SOL     OW24608  10.940   4.699  11.530
40904SOL    HW124609  10.915   4.751  11.607
40904SOL    HW224610  10.997   4.630  11.565
40905SOL     OW24611   7.945   4.702   7.089
40905SOL    HW124612   7.978   4.747   7.011
40905SOL    HW224613   7.856   4.736   7.100
40906SOL     OW24614   1.453   2.402   2.048
40906SOL    HW124615   1.376   2.347   2.063
40906SOL    HW224616   1.519   2.367   2.107
40907SOL     OW24617   8.043   2.516   9.559
40907SOL    HW124618   8.101   2.515   9.636
40907SOL    HW224619   7.975   2.579   9.582
40908SOL     OW24620   5.441   5.306   8.233
40908SOL    HW124621   5.382   5.380   8.246
40908SOL    HW224622   5.514   5.342   8.182
40909SOL     OW24623  14.312   1.306  10.079
40909SOL    HW124624  14.331   1.292  10.172
40909SOL    HW224625  14.278   1.222  10.049
40910SOL     OW24626   3.232  13.204   9.009
40910SOL    HW124627   3.298  13.144   8.973
40910SOL    HW224628   3.225  13.274   8.944
40911SOL     OW24629   8.226   5.165   1.609
40911SOL    HW124630   8.248   5.137   1.521
40911SOL    HW224631   8.163   5.099   1.640
40912SOL     OW24632  14.452   7.928   7.503
40912SOL    HW124633  14.380   7.918   7.566
40912SOL    HW224634  14.502   7.847   7.511
40913SOL     OW24635   4.460   7.193  12.335
40913SOL    HW124636   4.539   7.142  12.314
40913SOL    HW224637   4.391   7.154  12.281
40914SOL     OW24638   4.684  11.973  13.597
40914SOL    HW124639   4.675  12.022  13.515
40914SOL    HW224640   4.748  12.023  13.648
40915SOL     OW24641  12.861   5.960   1.148
40915SOL    HW124642  12.895   5.871   1.144
40915SOL    HW224643  12.782   5.958   1.094
40916SOL     OW24644  14.848  12.438   5.490
40916SOL    HW124645  14.797  12.373   5.537
40916SOL    HW224646  14.803  12.449   5.407
40917SOL     OW24647   7.090   4.208   1.524
40917SOL    HW124648   7.048   4.130   1.560
40917SOL    HW224649   7.153   4.234   1.591
40918SOL     OW24650  10.367   6.498   5.327
40918SOL    HW124651  10.433   6.514   5.259
40918SOL    HW224652  10.380   6.407   5.352
40919SOL     OW24653   7.707  11.587  11.999
40919SOL    HW124654   7.661  11.605  12.081
40919SOL    HW224655   7.798  11.607  12.018
40920SOL     OW24656   4.076   5.855   7.893
40920SOL    HW124657   4.002   5.830   7.949
40920SOL    HW224658   4.151   5.808   7.929
40921SOL     OW24659   1.870   0.938   0.319
40921SOL    HW124660   1.830   0.956   0.404
40921SOL    HW224661   1.937   1.005   0.309
40922SOL     OW24662  11.032   3.997   6.616
40922SOL    HW124663  11.033   3.994   6.712
40922SOL    HW224664  10.949   4.039   6.594
40923SOL     OW24665   8.222   4.457   7.285
40923SOL    HW124666   8.283   4.437   7.214
40923SOL    HW224667   8.263   4.530   7.332
40924SOL     OW24668  12.491   0.878   3.612
40924SOL    HW124669  12.430   0.951   3.611
40924SOL    HW224670  12.521   0.870   3.521
40925SOL     OW24671   3.432  14.347   1.993
40925SOL    HW124672   3.487  14.402   1.939
40925SOL    HW224673   3.491  14.308   2.057
40926SOL     OW24674   9.908   6.769   6.301
40926SOL    HW124675   9.980   6.713   6.273
40926SOL    HW224676   9.854   6.780   6.223
40927SOL     OW24677  10.579   3.517   7.495
40927SOL    HW124678  10.580   3.447   7.560
40927SOL    HW224679  10.651   3.575   7.520
40928SOL     OW24680   5.467   7.926  11.116
40928SOL    HW124681   5.524   7.964  11.050
40928SOL    HW224682   5.409   7.868  11.067
40929SOL     OW24683   9.538   9.041  12.094
40929SOL    HW124684   9.500   8.986  12.162
40929SOL    HW224685   9.615   9.080  12.135
40930SOL     OW24686   9.370  10.997   6.823
40930SOL    HW124687   9.384  10.903   6.811
40930SOL    HW224688   9.282  11.004   6.861
40931SOL     OW24689   6.218  13.583   2.852
40931SOL    HW124690   6.267  13.630   2.920
40931SOL    HW224691   6.194  13.651   2.789
40932SOL     OW24692  10.963  12.607   0.978
40932SOL    HW124693  10.901  12.626   1.047
40932SOL    HW224694  10.925  12.646   0.899
40933SOL     OW24695   2.482   5.099  14.273
40933SOL    HW124696   2.472   5.054  14.357
40933SOL    HW224697   2.545   5.169  14.290
40934SOL     OW24698   2.918   5.806   4.182
40934SOL    HW124699   2.883   5.718   4.168
40934SOL    HW224700   3.002   5.793   4.225
40935SOL     OW24701  13.333   1.292  10.746
40935SOL    HW124702  13.258   1.346  10.769
40935SOL    HW224703  13.369   1.332  10.667
40936SOL     OW24704   8.679  10.010   0.948
40936SOL    HW124705   8.618  10.031   0.878
40936SOL    HW224706   8.758  10.060   0.928
40937SOL     OW24707  13.496   9.499  10.449
40937SOL    HW124708  13.499   9.405  10.430
40937SOL    HW224709  13.402   9.518  10.455
40938SOL     OW24710   7.666   6.419   3.759
40938SOL    HW124711   7.718   6.498   3.773
40938SOL    HW224712   7.595   6.446   3.700
40939SOL     OW24713   9.920   2.102   8.425
40939SOL    HW124714   9.950   2.012   8.437
40939SOL    HW224715   9.849   2.112   8.488
40940SOL     OW24716   9.108  10.577  14.571
40940SOL    HW124717   9.173  10.507  14.579
40940SOL    HW224718   9.127  10.619  14.488
40941SOL     OW24719   7.510  11.100   6.775
40941SOL    HW124720   7.471  11.018   6.744
40941SOL    HW224721   7.601  11.077   6.794
40942SOL     OW24722   7.218   1.493   2.131
40942SOL    HW124723   7.249   1.533   2.049
40942SOL    HW224724   7.254   1.404   2.129
40943SOL     OW24725   1.539   4.809   5.420
40943SOL    HW124726   1.490   4.745   5.367
40943SOL    HW224727   1.564   4.760   5.498
40944SOL     OW24728   8.935   0.801   3.576
40944SOL    HW124729   8.936   0.839   3.488
40944SOL    HW224730   8.931   0.707   3.561
40945SOL     OW24731   0.940   6.913  10.805
40945SOL    HW124732   0.861   6.950  10.766
40945SOL    HW224733   0.941   6.947  10.895
40946SOL     OW24734   9.450  10.815   4.478
40946SOL    HW124735   9.534  10.834   4.518
40946SOL    HW224736   9.472  10.777   4.392
40947SOL     OW24737   3.711   3.012   7.731
40947SOL    HW124738   3.675   2.923   7.739
40947SOL    HW224739   3.778   3.004   7.663
40948SOL     OW24740  12.729   5.644  11.598
40948SOL    HW124741  12.795   5.696  11.645
40948SOL    HW224742  12.732   5.679  11.509
40949SOL     OW24743   1.620  14.254   8.558
40949SOL    HW124744   1.670  14.309   8.498
40949SOL    HW224745   1.528  14.276   8.538
40950SOL     OW24746   2.015   0.011   6.336
40950SOL    HW124747   2.005   0.092   6.286
40950SOL    HW224748   2.053  14.819   6.274
40951SOL     OW24749  12.154   0.002   7.225
40951SOL    HW124750  12.166   0.088   7.186
40951SOL    HW224751  12.175  14.810   7.155
40952SOL     OW24752   5.725   9.928   5.243
40952SOL    HW124753   5.732   9.874   5.164
40952SOL    HW224754   5.652   9.988   5.225
40953SOL     OW24755   6.152   0.630   5.941
40953SOL    HW124756   6.227   0.627   6.001
40953SOL    HW224757   6.182   0.684   5.868
40954SOL     OW24758  13.025  14.427   2.300
40954SOL    HW124759  12.946  14.452   2.251
40954SOL    HW224760  12.996  14.356   2.358
40955SOL     OW24761  11.741   1.392  11.566
40955SOL    HW124762  11.686   1.325  11.525
40955SOL    HW224763  11.690   1.422  11.641
40956SOL     OW24764   8.840   3.569   7.945
40956SOL    HW124765   8.859   3.477   7.966
40956SOL    HW224766   8.924   3.605   7.916
40957SOL     OW24767   6.005  10.945   0.864
40957SOL    HW124768   5.933  10.887   0.841
40957SOL    HW224769   5.964  11.027   0.888
40958SOL     OW24770   3.286   9.706  13.757
40958SOL    HW124771   3.208   9.712  13.702
40958SOL    HW224772   3.319   9.618  13.741
40959SOL     OW24773   9.777  13.816   6.856
40959SOL    HW124774   9.791  13.875   6.930
40959SOL    HW224775   9.852  13.829   6.799
40960SOL     OW24776   7.996   5.973   7.947
40960SOL    HW124777   8.027   5.916   7.877
40960SOL    HW224778   8.004   6.062   7.911
40961SOL     OW24779  14.086   3.755  14.221
40961SOL    HW124780  14.156   3.691  14.209
40961SOL    HW224781  14.006   3.703  14.213
40962SOL     OW24782   6.221   6.299   0.272
40962SOL    HW124783   6.136   6.313   0.231
40962SOL    HW224784   6.201   6.278   0.364
40963SOL     OW24785   2.038   0.432   0.850
40963SOL    HW124786   2.076   0.361   0.902
40963SOL    HW224787   2.111   0.493   0.836
40964SOL     OW24788   3.179   7.467  11.861
40964SOL    HW124789   3.119   7.393  11.860
40964SOL    HW224790   3.248   7.442  11.923
40965SOL     OW24791  11.373   3.244  10.698
40965SOL    HW124792  11.438   3.173  10.706
40965SOL    HW224793  11.326   3.243  10.781
40966SOL     OW24794  14.040  11.259   9.785
40966SOL    HW124795  14.042  11.336   9.842
40966SOL    HW224796  14.103  11.198   9.824
40967SOL     OW24797  13.217  11.527   5.192
40967SOL    HW124798  13.261  11.542   5.108
40967SOL    HW224799  13.273  11.572   5.256
40968SOL     OW24800  14.535   7.561  12.376
40968SOL    HW124801  14.583   7.487  12.339
40968SOL    HW224802  14.546   7.631  12.312
40969SOL     OW24803  10.062   8.717   0.343
40969SOL    HW124804  10.150   8.725   0.380
40969SOL    HW224805  10.073   8.658   0.269
40970SOL     OW24806   2.848   6.552   4.379
40970SOL    HW124807   2.927   6.566   4.432
40970SOL    HW224808   2.782   6.609   4.419
40971SOL     OW24809   8.511   7.610  11.788
40971SOL    HW124810   8.569   7.596  11.862
40971SOL    HW224811   8.558   7.672  11.731
40972SOL     OW24812   8.153   1.914  12.166
40972SOL    HW124813   8.072   1.871  12.141
40972SOL    HW224814   8.125   1.990  12.218
40973SOL     OW24815  13.134   8.605   7.672
40973SOL    HW124816  13.068   8.633   7.735
40973SOL    HW224817  13.164   8.520   7.704
40974SOL     OW24818   2.645   9.277   8.916
40974SOL    HW124819   2.569   9.297   8.862
40974SOL    HW224820   2.611   9.218   8.984
40975SOL     OW24821  12.047  13.284   1.998
40975SOL    HW124822  11.976  13.241   2.047
40975SOL    HW224823  12.104  13.319   2.066
40976SOL     OW24824   9.881   0.024  11.541
40976SOL    HW124825   9.794  14.862  11.516
40976SOL    HW224826   9.922   0.049  11.458
40977SOL     OW24827  14.417   0.921  13.507
40977SOL    HW124828  14.501   0.941  13.547
40977SOL    HW224829  14.438   0.860  13.436
40978SOL     OW24830   8.575  10.897   3.818
40978SOL    HW124831   8.528  10.926   3.896
40978SOL    HW224832   8.558  10.965   3.753
40979SOL     OW24833   9.365  10.450   9.008
40979SOL    HW124834   9.410  10.392   9.070
40979SOL    HW224835   9.317  10.512   9.063
40980SOL     OW24836   1.840   6.883   0.409
40980SOL    HW124837   1.885   6.966   0.395
40980SOL    HW224838   1.844   6.869   0.503
40981SOL     OW24839   4.321  12.898   6.216
40981SOL    HW124840   4.296  12.895   6.308
40981SOL    HW224841   4.350  12.809   6.196
40982SOL     OW24842   0.508   6.118  10.864
40982SOL    HW124843   0.511   6.170  10.783
40982SOL    HW224844   0.598   6.119  10.896
40983SOL     OW24845   0.995  11.489  14.415
40983SOL    HW124846   1.036  11.441  14.487
40983SOL    HW224847   0.984  11.423  14.346
40984SOL     OW24848   9.948  13.207   0.570
40984SOL    HW124849   9.919  13.173   0.655
40984SOL    HW224850  10.030  13.161   0.553
40985SOL     OW24851  14.056   1.593   8.710
40985SOL    HW124852  14.060   1.595   8.614
40985SOL    HW224853  14.089   1.679   8.737
40986SOL     OW24854   0.324   0.187   4.587
40986SOL    HW124855   0.279   0.112   4.550
40986SOL    HW224856   0.254   0.238   4.629
40987SOL     OW24857   8.398   5.285   0.895
40987SOL    HW124858   8.459   5.315   0.962
40987SOL    HW224859   8.396   5.189   0.905
40988SOL     OW24860   7.017   3.379   2.892
40988SOL    HW124861   7.018   3.348   2.982
40988SOL    HW224862   7.038   3.302   2.839
40989SOL     OW24863   9.203   7.631   4.178
40989SOL    HW124864   9.167   7.665   4.096
40989SOL    HW224865   9.292   7.665   4.181
40990SOL     OW24866   5.422  14.703  11.279
40990SOL    HW124867   5.414  14.613  11.310
40990SOL    HW224868   5.396  14.756  11.354
40991SOL     OW24869   9.351  11.128   1.209
40991SOL    HW124870   9.438  11.166   1.222
40991SOL    HW224871   9.356  11.042   1.251
40992SOL     OW24872  12.216   0.100  12.114
40992SOL    HW124873  12.256   0.175  12.070
40992SOL    HW224874  12.279   0.076  12.183
40993SOL     OW24875   8.817  10.606  12.788
40993SOL    HW124876   8.836  10.621  12.696
40993SOL    HW224877   8.731  10.645  12.803
40994SOL     OW24878   3.240   4.783   7.817
40994SOL    HW124879   3.185   4.748   7.747
40994SOL    HW224880   3.286   4.856   7.776
40995SOL     OW24881   7.253  13.990  10.381
40995SOL    HW124882   7.348  13.990  10.369
40995SOL    HW224883   7.241  13.952  10.468
40996SOL     OW24884   2.435   8.864   0.192
40996SOL    HW124885   2.394   8.855   0.106
40996SOL    HW224886   2.509   8.804   0.190
40997SOL     OW24887   0.694  12.734   4.905
40997SOL    HW124888   0.748  12.792   4.851
40997SOL    HW224889   0.709  12.646   4.868
40998SOL     OW24890   1.079   9.951   9.690
40998SOL    HW124891   1.013   9.888   9.720
40998SOL    HW224892   1.118   9.910   9.613
40999SOL     OW24893   2.592   8.729   6.613
40999SOL    HW124894   2.684   8.721   6.587
40999SOL    HW224895   2.568   8.641   6.643
41000SOL     OW24896   9.242   2.851  12.295
41000SOL    HW124897   9.153   2.885  12.306
41000SOL    HW224898   9.230   2.763  12.258
41001SOL     OW24899   4.153   3.391   1.650
41001SOL    HW124900   4.105   3.471   1.631
41001SOL    HW224901   4.239   3.404   1.610
41002SOL     OW24902  12.807   2.486   6.843
41002SOL    HW124903  12.779   2.570   6.880
41002SOL    HW224904  12.782   2.492   6.750
41003SOL     OW24905  12.483   9.244   9.871
41003SOL    HW124906  12.543   9.184   9.827
41003SOL    HW224907  12.519   9.331   9.855
41004SOL     OW24908   4.886   9.104   6.191
41004SOL    HW124909   4.959   9.159   6.218
41004SOL    HW224910   4.927   9.030   6.146
41005SOL     OW24911  10.282   9.630   8.663
41005SOL    HW124912  10.223   9.667   8.729
41005SOL    HW224913  10.340   9.572   8.712
41006SOL     OW24914   6.310   4.097   0.974
41006SOL    HW124915   6.321   4.007   1.004
41006SOL    HW224916   6.239   4.131   1.027
41007SOL     OW24917   8.243   6.405   8.959
41007SOL    HW124918   8.252   6.468   8.887
41007SOL    HW224919   8.272   6.454   9.037
41008SOL     OW24920   3.918   6.072   8.333
41008SOL    HW124921   3.914   6.072   8.237
41008SOL    HW224922   3.981   6.002   8.353
41009SOL     OW24923  10.957   1.240   8.407
41009SOL    HW124924  10.943   1.245   8.502
41009SOL    HW224925  10.870   1.249   8.369
41010SOL     OW24926   0.454   6.276   5.898
41010SOL    HW124927   0.419   6.333   5.967
41010SOL    HW224928   0.545   6.304   5.888
41011SOL     OW24929   5.745   1.730   8.827
41011SOL    HW124930   5.758   1.738   8.733
41011SOL    HW224931   5.700   1.810   8.853
41012SOL     OW24932   3.311   9.038   6.272
41012SOL    HW124933   3.375   9.006   6.209
41012SOL    HW224934   3.248   9.086   6.220
41013SOL     OW24935   1.900   5.475   4.329
41013SOL    HW124936   1.984   5.433   4.312
41013SOL    HW224937   1.894   5.545   4.264
41014SOL     OW24938   2.479   9.506   8.655
41014SOL    HW124939   2.406   9.502   8.717
41014SOL    HW224940   2.440   9.544   8.576
41015SOL     OW24941  12.663   4.525  14.392
41015SOL    HW124942  12.680   4.562  14.305
41015SOL    HW224943  12.744   4.479  14.415
41016SOL     OW24944  10.452   8.364  11.749
41016SOL    HW124945  10.428   8.303  11.680
41016SOL    HW224946  10.429   8.318  11.830
41017SOL     OW24947  11.676   3.287  10.930
41017SOL    HW124948  11.632   3.216  10.883
41017SOL    HW224949  11.739   3.321  10.867
41018SOL     OW24950  10.910  13.759   2.194
41018SOL    HW124951  10.906  13.854   2.185
41018SOL    HW224952  10.907  13.743   2.288
41019SOL     OW24953  11.737   9.422  12.599
41019SOL    HW124954  11.731   9.516  12.585
41019SOL    HW224955  11.800   9.392  12.533
41020SOL     OW24956   9.929   8.566  13.170
41020SOL    HW124957   9.853   8.536  13.221
41020SOL    HW224958   9.956   8.647  13.212
41021SOL     OW24959   9.187   8.916   6.175
41021SOL    HW124960   9.251   8.924   6.246
41021SOL    HW224961   9.132   8.842   6.200
41022SOL     OW24962   5.553   0.225   6.023
41022SOL    HW124963   5.633   0.275   6.040
41022SOL    HW224964   5.567   0.141   6.067
41023SOL     OW24965   4.337  11.945   6.807
41023SOL    HW124966   4.274  11.941   6.879
41023SOL    HW224967   4.410  11.890   6.835
41024SOL     OW24968   3.570   4.604   9.458
41024SOL    HW124969   3.503   4.570   9.518
41024SOL    HW224970   3.604   4.682   9.502
41025SOL     OW24971   0.452   4.594  13.738
41025SOL    HW124972   0.464   4.681  13.699
41025SOL    HW224973   0.514   4.538  13.691
41026SOL     OW24974  14.482  12.744   5.482
41026SOL    HW124975  14.492  12.752   5.387
41026SOL    HW224976  14.510  12.829   5.516
41027SOL     OW24977   9.572   0.179   9.351
41027SOL    HW124978   9.632   0.253   9.343
41027SOL    HW224979   9.619   0.116   9.405
41028SOL     OW24980   7.177   3.756   2.504
41028SOL    HW124981   7.110   3.732   2.569
41028SOL    HW224982   7.260   3.747   2.551
41029SOL     OW24983   8.162   2.715   6.055
41029SOL    HW124984   8.204   2.746   6.135
41029SOL    HW224985   8.159   2.791   5.998
41030SOL     OW24986   4.480   0.484   4.080
41030SOL    HW124987   4.537   0.544   4.032
41030SOL    HW224988   4.508   0.397   4.051
41031SOL     OW24989   6.948  12.658   4.943
41031SOL    HW124990   6.884  12.723   4.974
41031SOL    HW224991   6.914  12.630   4.858
41032SOL     OW24992   0.803   7.772   0.526
41032SOL    HW124993   0.767   7.816   0.449
41032SOL    HW224994   0.876   7.829   0.554
41033SOL     OW24995   1.615  14.608   4.168
41033SOL    HW124996   1.690  14.648   4.125
41033SOL    HW224997   1.593  14.668   4.239
41034SOL     OW24998  13.592  10.774   7.557
41034SOL    HW124999  13.588  10.868   7.575
41034SOL    HW225000  13.662  10.765   7.492
41035SOL     OW25001   8.944  13.897   7.089
41035SOL    HW125002   8.993  13.854   7.159
41035SOL    HW225003   8.960  13.841   7.012
41036SOL     OW25004   1.994   4.682   3.166
41036SOL    HW125005   1.995   4.654   3.075
41036SOL    HW225006   1.951   4.610   3.213
41037SOL     OW25007  14.124  11.292  12.367
41037SOL    HW125008  14.185  11.353  12.408
41037SOL    HW225009  14.168  11.263  12.287
41038SOL     OW25010   5.042   4.719  10.385
41038SOL    HW125011   5.059   4.777  10.459
41038SOL    HW225012   5.115   4.736  10.324
41039SOL     OW25013  12.354   2.757   2.899
41039SOL    HW125014  12.346   2.755   2.804
41039SOL    HW225015  12.264   2.769   2.930
41040SOL     OW25016  10.924   0.477   0.171
41040SOL    HW125017  11.019   0.468   0.162
41040SOL    HW225018  10.892   0.486   0.082
41041SOL     OW25019  11.476  10.805  12.052
41041SOL    HW125020  11.541  10.874  12.063
41041SOL    HW225021  11.500  10.762  11.970
41042SOL     OW25022   1.224  10.793   8.256
41042SOL    HW125023   1.272  10.876   8.247
41042SOL    HW225024   1.170  10.805   8.334
41043SOL     OW25025   6.361   8.719   5.142
41043SOL    HW125026   6.302   8.735   5.068
41043SOL    HW225027   6.304   8.681   5.209
41044SOL     OW25028  11.718   9.234   4.184
41044SOL    HW125029  11.813   9.223   4.194
41044SOL    HW225030  11.697   9.311   4.235
41045SOL     OW25031  12.746   8.742   7.518
41045SOL    HW125032  12.785   8.827   7.540
41045SOL    HW225033  12.719   8.750   7.427
41046SOL     OW25034  12.364   4.734   6.168
41046SOL    HW125035  12.397   4.702   6.252
41046SOL    HW225036  12.305   4.666   6.138
41047SOL     OW25037  11.940  14.004   4.473
41047SOL    HW125038  11.992  13.924   4.474
41047SOL    HW225039  12.004  14.075   4.474
41048SOL     OW25040   9.004  13.500   3.012
41048SOL    HW125041   9.011  13.463   3.099
41048SOL    HW225042   9.028  13.592   3.023
41049SOL     OW25043   4.746  10.700   0.071
41049SOL    HW125044   4.716  10.677  14.853
41049SOL    HW225045   4.840  10.716   0.061
41050SOL     OW25046  11.676   0.705   1.423
41050SOL    HW125047  11.634   0.714   1.509
41050SOL    HW225048  11.761   0.747   1.434
41051SOL     OW25049  10.905   7.487  10.691
41051SOL    HW125050  10.836   7.425  10.712
41051SOL    HW225051  10.866   7.546  10.627
41052SOL     OW25052   6.075   5.344  13.612
41052SOL    HW125053   6.130   5.409  13.568
41052SOL    HW225054   6.069   5.375  13.702
41053SOL     OW25055   8.117  13.440  10.455
41053SOL    HW125056   8.210  13.450  10.477
41053SOL    HW225057   8.076  13.421  10.539
41054SOL     OW25058  14.748  13.813   8.874
41054SOL    HW125059  14.770  13.838   8.785
41054SOL    HW225060  14.724  13.720   8.867
41055SOL     OW25061  12.135   5.132   8.864
41055SOL    HW125062  12.202   5.166   8.806
41055SOL    HW225063  12.054   5.175   8.836
41056SOL     OW25064   6.350  12.514   8.595
41056SOL    HW125065   6.377  12.435   8.642
41056SOL    HW225066   6.422  12.575   8.607
41057SOL     OW25067   7.177  13.750  13.177
41057SOL    HW125068   7.231  13.829  13.168
41057SOL    HW225069   7.145  13.733  13.089
41058SOL     OW25070   8.534   0.543   5.433
41058SOL    HW125071   8.540   0.622   5.380
41058SOL    HW225072   8.593   0.481   5.391
41059SOL     OW25073  13.152  11.214  14.186
41059SOL    HW125074  13.110  11.138  14.145
41059SOL    HW225075  13.096  11.234  14.261
41060SOL     OW25076   5.427  10.913  14.107
41060SOL    HW125077   5.386  10.957  14.032
41060SOL    HW225078   5.500  10.970  14.131
41061SOL     OW25079   1.045   6.201   5.039
41061SOL    HW125080   0.994   6.281   5.038
41061SOL    HW225081   0.982   6.132   5.059
41062SOL     OW25082   3.062  11.414   2.315
41062SOL    HW125083   3.072  11.439   2.407
41062SOL    HW225084   3.151  11.417   2.280
41063SOL     OW25085   9.740   0.318   2.014
41063SOL    HW125086   9.709   0.239   1.971
41063SOL    HW225087   9.721   0.388   1.951
41064SOL     OW25088   8.610   6.578   2.424
41064SOL    HW125089   8.523   6.540   2.422
41064SOL    HW225090   8.666   6.508   2.457
41065SOL     OW25091   0.257  10.669   5.000
41065SOL    HW125092   0.183  10.611   5.018
41065SOL    HW225093   0.245  10.697   4.910
41066SOL     OW25094   9.717   0.304   1.490
41066SOL    HW125095   9.645   0.246   1.514
41066SOL    HW225096   9.795   0.261   1.525
41067SOL     OW25097  13.563  13.605   3.371
41067SOL    HW125098  13.628  13.569   3.432
41067SOL    HW225099  13.564  13.699   3.388
41068SOL     OW25100  11.558   5.817   8.249
41068SOL    HW125101  11.586   5.882   8.313
41068SOL    HW225102  11.623   5.823   8.179
41069SOL     OW25103  13.131   3.268  13.642
41069SOL    HW125104  13.099   3.334  13.703
41069SOL    HW225105  13.092   3.186  13.672
41070SOL     OW25106   2.393  12.155   8.251
41070SOL    HW125107   2.301  12.127   8.243
41070SOL    HW225108   2.437  12.080   8.292
41071SOL     OW25109  10.195  14.257   4.684
41071SOL    HW125110  10.227  14.269   4.773
41071SOL    HW225111  10.191  14.346   4.648
41072SOL     OW25112   7.052  10.388   6.858
41072SOL    HW125113   6.970  10.354   6.824
41072SOL    HW225114   7.031  10.422   6.944
41073SOL     OW25115   3.265  10.057   2.414
41073SOL    HW125116   3.212  10.098   2.482
41073SOL    HW225117   3.316  10.129   2.376
41074SOL     OW25118  12.070   3.010   2.296
41074SOL    HW125119  12.097   3.089   2.250
41074SOL    HW225120  12.047   2.949   2.227
41075SOL     OW25121   4.244   6.705   4.165
41075SOL    HW125122   4.295   6.639   4.118
41075SOL    HW225123   4.221   6.770   4.099
41076SOL     OW25124  14.457   7.838   2.848
41076SOL    HW125125  14.362   7.827   2.847
41076SOL    HW225126  14.484   7.823   2.757
41077SOL     OW25127   0.858  12.347  14.850
41077SOL    HW125128   0.952  12.363  14.859
41077SOL    HW225129   0.851  12.283  14.779
41078SOL     OW25130   9.194   3.902  12.898
41078SOL    HW125131   9.144   3.861  12.968
41078SOL    HW225132   9.158   3.990  12.891
41079SOL     OW25133   6.384   0.081   5.634
41079SOL    HW125134   6.462   0.133   5.613
41079SOL    HW225135   6.399   0.052   5.724
41080SOL     OW25136  10.823   9.950   2.854
41080SOL    HW125137  10.916   9.944   2.876
41080SOL    HW225138  10.817  10.024   2.794
41081SOL     OW25139   6.539   2.540   7.806
41081SOL    HW125140   6.543   2.485   7.728
41081SOL    HW225141   6.508   2.625   7.774
41082SOL     OW25142   5.533   2.733   3.157
41082SOL    HW125143   5.606   2.758   3.100
41082SOL    HW225144   5.549   2.782   3.238
41083SOL     OW25145   9.293  10.603   7.935
41083SOL    HW125146   9.355  10.617   8.008
41083SOL    HW225147   9.251  10.688   7.923
41084SOL     OW25148   0.805   3.360   8.002
41084SOL    HW125149   0.839   3.436   8.048
41084SOL    HW225150   0.711   3.364   8.014
41085SOL     OW25151  11.344   4.644  13.034
41085SOL    HW125152  11.406   4.580  13.001
41085SOL    HW225153  11.397   4.722  13.052
41086SOL     OW25154   1.749  10.655   3.566
41086SOL    HW125155   1.698  10.589   3.614
41086SOL    HW225156   1.740  10.631   3.474
41087SOL     OW25157   8.113   1.996   1.876
41087SOL    HW125158   8.129   1.930   1.943
41087SOL    HW225159   8.142   2.078   1.916
41088SOL     OW25160   9.712   9.887   6.735
41088SOL    HW125161   9.640   9.913   6.677
41088SOL    HW225162   9.711   9.951   6.806
41089SOL     OW25163   8.200  12.825  11.777
41089SOL    HW125164   8.269  12.891  11.786
41089SOL    HW225165   8.230  12.751  11.829
41090SOL     OW25166   7.932   5.021   4.681
41090SOL    HW125167   7.884   5.053   4.605
41090SOL    HW225168   8.005   5.083   4.690
41091SOL     OW25169   8.218   9.415  11.695
41091SOL    HW125170   8.248   9.419  11.786
41091SOL    HW225171   8.265   9.340  11.658
41092SOL     OW25172  11.807   9.419   5.002
41092SOL    HW125173  11.817   9.330   4.969
41092SOL    HW225174  11.713   9.429   5.017
41093SOL     OW25175  13.833  12.287  13.828
41093SOL    HW125176  13.868  12.375  13.813
41093SOL    HW225177  13.907  12.229  13.812
41094SOL     OW25178  14.054  14.736   2.838
41094SOL    HW125179  13.968  14.773   2.821
41094SOL    HW225180  14.115  14.794   2.793
41095SOL     OW25181  14.214   8.242   8.924
41095SOL    HW125182  14.125   8.208   8.925
41095SOL    HW225183  14.269   8.166   8.942
41096SOL     OW25184   9.314  10.276  13.927
41096SOL    HW125185   9.400  10.301  13.892
41096SOL    HW225186   9.328  10.189  13.965
41097SOL     OW25187   7.837   3.246   2.853
41097SOL    HW125188   7.905   3.181   2.871
41097SOL    HW225189   7.876   3.305   2.789
41098SOL     OW25190   1.780   4.119  10.488
41098SOL    HW125191   1.787   4.032  10.449
41098SOL    HW225192   1.753   4.175  10.416
41099SOL     OW25193   3.756   9.867  10.407
41099SOL    HW125194   3.790   9.923  10.337
41099SOL    HW225195   3.672   9.835  10.375
41100SOL     OW25196   8.686  12.051  11.816
41100SOL    HW125197   8.676  12.132  11.866
41100SOL    HW225198   8.600  12.038  11.775
41101SOL     OW25199   4.678  12.080  10.712
41101SOL    HW125200   4.667  12.002  10.658
41101SOL    HW225201   4.591  12.119  10.716
41102SOL     OW25202   7.218  10.750   7.935
41102SOL    HW125203   7.298  10.745   7.988
41102SOL    HW225204   7.227  10.832   7.886
41103SOL     OW25205   1.358   2.329   5.263
41103SOL    HW125206   1.279   2.277   5.257
41103SOL    HW225207   1.392   2.334   5.174
41104SOL     OW25208   2.479  14.342   4.391
41104SOL    HW125209   2.489  14.434   4.366
41104SOL    HW225210   2.469  14.295   4.308
41105SOL     OW25211  11.572   4.676   5.893
41105SOL    HW125212  11.603   4.763   5.867
41105SOL    HW225213  11.534   4.639   5.814
41106SOL     OW25214   9.447  14.626  13.011
41106SOL    HW125215   9.437  14.568  12.936
41106SOL    HW225216   9.449  14.568  13.087
41107SOL     OW25217   7.004   9.259   7.222
41107SOL    HW125218   7.064   9.326   7.253
41107SOL    HW225219   7.059   9.202   7.167
41108SOL     OW25220   6.939   2.195   0.365
41108SOL    HW125221   6.880   2.140   0.416
41108SOL    HW225222   6.922   2.284   0.396
41109SOL     OW25223   9.560   6.493   7.783
41109SOL    HW125224   9.593   6.525   7.699
41109SOL    HW225225   9.493   6.558   7.808
41110SOL     OW25226  13.633   1.329   6.283
41110SOL    HW125227  13.712   1.371   6.249
41110SOL    HW225228  13.630   1.353   6.375
41111SOL     OW25229  10.332   7.702   5.702
41111SOL    HW125230  10.318   7.783   5.652
41111SOL    HW225231  10.396   7.653   5.652
41112SOL     OW25232   7.978   4.565   6.163
41112SOL    HW125233   8.014   4.485   6.202
41112SOL    HW225234   8.016   4.569   6.075
41113SOL     OW25235   5.423   8.975   1.461
41113SOL    HW125236   5.368   8.912   1.508
41113SOL    HW225237   5.482   9.009   1.528
41114SOL     OW25238  11.999   3.481   0.869
41114SOL    HW125239  11.957   3.494   0.954
41114SOL    HW225240  11.949   3.410   0.828
41115SOL     OW25241  10.887  12.784   8.817
41115SOL    HW125242  10.964  12.737   8.784
41115SOL    HW225243  10.820  12.770   8.750
41116SOL     OW25244   5.121   2.423   0.033
41116SOL    HW125245   5.141   2.412   0.126
41116SOL    HW225246   5.026   2.407   0.027
41117SOL     OW25247  13.455  12.793  10.559
41117SOL    HW125248  13.427  12.702  10.553
41117SOL    HW225249  13.484  12.814  10.470
41118SOL     OW25250  14.721  12.046   0.725
41118SOL    HW125251  14.704  12.121   0.668
41118SOL    HW225252  14.694  11.970   0.673
41119SOL     OW25253   1.994   3.402   6.770
41119SOL    HW125254   2.062   3.337   6.789
41119SOL    HW225255   1.917   3.372   6.818
41120SOL     OW25256   3.082  11.484   2.572
41120SOL    HW125257   2.994  11.487   2.611
41120SOL    HW225258   3.141  11.505   2.644
41121SOL     OW25259   3.794   9.712   5.349
41121SOL    HW125260   3.709   9.675   5.323
41121SOL    HW225261   3.785   9.806   5.336
41122SOL     OW25262  11.367  11.670  13.548
41122SOL    HW125263  11.345  11.618  13.626
41122SOL    HW225264  11.463  11.678  13.551
41123SOL     OW25265   9.566  11.239   9.655
41123SOL    HW125266   9.471  11.251   9.653
41123SOL    HW225267   9.599  11.301   9.591
41124SOL     OW25268  12.882  13.469   0.483
41124SOL    HW125269  12.818  13.535   0.510
41124SOL    HW225270  12.907  13.495   0.394
41125SOL     OW25271  11.247   5.532   8.005
41125SOL    HW125272  11.263   5.593   8.077
41125SOL    HW225273  11.256   5.586   7.926
41126SOL     OW25274   6.998   0.606   8.521
41126SOL    HW125275   6.952   0.547   8.460
41126SOL    HW225276   7.027   0.548   8.592
41127SOL     OW25277  12.424  11.898  10.691
41127SOL    HW125278  12.454  11.844  10.618
41127SOL    HW225279  12.476  11.869  10.766
41128SOL     OW25280   2.739  10.505   8.332
41128SOL    HW125281   2.721  10.420   8.372
41128SOL    HW225282   2.672  10.564   8.368
41129SOL     OW25283   2.557   2.034   1.234
41129SOL    HW125284   2.532   1.948   1.266
41129SOL    HW225285   2.618   2.016   1.162
41130SOL     OW25286   5.440   6.523   9.678
41130SOL    HW125287   5.476   6.436   9.695
41130SOL    HW225288   5.346   6.513   9.693
41131SOL     OW25289  11.439   8.191   6.186
41131SOL    HW125290  11.451   8.235   6.270
41131SOL    HW225291  11.433   8.098   6.208
41132SOL     OW25292   0.617  12.603  14.024
41132SOL    HW125293   0.642  12.576  14.113
41132SOL    HW225294   0.544  12.545  14.001
41133SOL     OW25295   3.641   8.586   1.699
41133SOL    HW125296   3.671   8.615   1.612
41133SOL    HW225297   3.671   8.496   1.707
41134SOL     OW25298   0.021   4.633   6.521
41134SOL    HW125299   0.043   4.552   6.475
41134SOL    HW225300  14.796   4.630   6.532
41135SOL     OW25301   4.786   4.979   0.049
41135SOL    HW125302   4.715   5.022   0.002
41135SOL    HW225303   4.745   4.902   0.089
41136SOL     OW25304   0.074   5.264   7.631
41136SOL    HW125305   0.011   5.298   7.694
41136SOL    HW225306   0.123   5.198   7.680
41137SOL     OW25307  10.229   9.308   0.243
41137SOL    HW125308  10.259   9.381   0.188
41137SOL    HW225309  10.153   9.343   0.290
41138SOL     OW25310  12.390   4.231   3.177
41138SOL    HW125311  12.375   4.214   3.084
41138SOL    HW225312  12.303   4.228   3.216
41139SOL     OW25313   0.771  12.484   4.802
41139SOL    HW125314   0.843  12.487   4.740
41139SOL    HW225315   0.733  12.397   4.791
41140SOL     OW25316  14.717   1.370   3.591
41140SOL    HW125317  14.682   1.457   3.608
41140SOL    HW225318  14.650   1.310   3.626
41141SOL     OW25319   5.743   8.290   4.794
41141SOL    HW125320   5.681   8.275   4.723
41141SOL    HW225321   5.819   8.238   4.770
41142SOL     OW25322   2.879   9.829  14.363
41142SOL    HW125323   2.974   9.817  14.358
41142SOL    HW225324   2.860   9.893  14.294
41143SOL     OW25325   8.352  12.571   7.834
41143SOL    HW125326   8.344  12.517   7.755
41143SOL    HW225327   8.418  12.525   7.887
41144SOL     OW25328   5.195   2.835   6.861
41144SOL    HW125329   5.275   2.785   6.844
41144SOL    HW225330   5.153   2.841   6.775
41145SOL     OW25331  13.189   0.481  14.044
41145SOL    HW125332  13.148   0.530  13.973
41145SOL    HW225333  13.179   0.537  14.121
41146SOL     OW25334   5.050   7.648   5.504
41146SOL    HW125335   4.999   7.646   5.585
41146SOL    HW225336   4.996   7.601   5.440
41147SOL     OW25337  12.153  11.162   7.732
41147SOL    HW125338  12.141  11.164   7.637
41147SOL    HW225339  12.107  11.240   7.764
41148SOL     OW25340  13.841   3.357   5.202
41148SOL    HW125341  13.778   3.370   5.272
41148SOL    HW225342  13.789   3.360   5.122
41149SOL     OW25343  13.324   5.704   1.955
41149SOL    HW125344  13.295   5.657   2.033
41149SOL    HW225345  13.348   5.634   1.893
41150SOL     OW25346  11.810   5.043   0.073
41150SOL    HW125347  11.799   5.088   0.157
41150SOL    HW225348  11.843   5.110   0.014
41151SOL     OW25349   8.202  13.789   7.807
41151SOL    HW125350   8.238  13.842   7.878
41151SOL    HW225351   8.116  13.828   7.789
41152SOL     OW25352  13.663   5.683   9.137
41152SOL    HW125353  13.733   5.620   9.153
41152SOL    HW225354  13.708   5.767   9.126
41153SOL     OW25355   1.786   2.315   8.470
41153SOL    HW125356   1.703   2.338   8.428
41153SOL    HW225357   1.786   2.365   8.551
41154SOL     OW25358   7.624   7.684   6.973
41154SOL    HW125359   7.593   7.774   6.979
41154SOL    HW225360   7.545   7.631   6.964
41155SOL     OW25361  12.896   0.265  12.264
41155SOL    HW125362  12.984   0.258  12.227
41155SOL    HW225363  12.891   0.192  12.327
41156SOL     OW25364  14.370  13.601   3.699
41156SOL    HW125365  14.437  13.663   3.727
41156SOL    HW225366  14.302  13.656   3.659
41157SOL     OW25367   4.916   6.673   5.592
41157SOL    HW125368   4.983   6.647   5.529
41157SOL    HW225369   4.834   6.645   5.552
41158SOL     OW25370   7.756   9.853   9.478
41158SOL    HW125371   7.688   9.800   9.436
41158SOL    HW225372   7.780   9.803   9.556
41159SOL     OW25373  13.021   5.712   2.927
41159SOL    HW125374  13.090   5.762   2.883
41159SOL    HW225375  13.049   5.705   3.018
41160SOL     OW25376   5.625   3.600  14.438
41160SOL    HW125377   5.667   3.599  14.352
41160SOL    HW225378   5.535   3.628  14.421
41161SOL     OW25379   0.427   9.590  12.595
41161SOL    HW125380   0.442   9.525  12.663
41161SOL    HW225381   0.356   9.644  12.627
41162SOL     OW25382   9.677   2.659   6.779
41162SOL    HW125383   9.606   2.723   6.779
41162SOL    HW225384   9.650   2.593   6.715
41163SOL     OW25385   8.595   6.152   2.425
41163SOL    HW125386   8.545   6.100   2.488
41163SOL    HW225387   8.530   6.178   2.360
41164SOL     OW25388  14.786  14.437   9.303
41164SOL    HW125389  14.817  14.361   9.353
41164SOL    HW225390  14.860  14.461   9.247
41165SOL     OW25391  13.573   7.578  14.267
41165SOL    HW125392  13.516   7.568  14.191
41165SOL    HW225393  13.587   7.673  14.274
41166SOL     OW25394  12.557  11.531  12.312
41166SOL    HW125395  12.583  11.446  12.349
41166SOL    HW225396  12.480  11.557  12.363
41167SOL     OW25397  10.451  11.993   1.868
41167SOL    HW125398  10.460  11.901   1.895
41167SOL    HW225399  10.360  12.000   1.839
41168SOL     OW25400  13.662  11.233  10.504
41168SOL    HW125401  13.710  11.241  10.586
41168SOL    HW225402  13.678  11.143  10.476
41169SOL     OW25403   9.875   0.739   7.046
41169SOL    HW125404   9.873   0.824   7.092
41169SOL    HW225405   9.867   0.762   6.954
41170SOL     OW25406  10.971  12.473   3.734
41170SOL    HW125407  11.058  12.434   3.720
41170SOL    HW225408  10.954  12.523   3.654
41171SOL     OW25409   4.869  13.647   0.349
41171SOL    HW125410   4.948  13.594   0.350
41171SOL    HW225411   4.825  13.625   0.432
41172SOL     OW25412   5.920   1.062   1.822
41172SOL    HW125413   5.937   1.007   1.898
41172SOL    HW225414   5.940   1.151   1.851
41173SOL     OW25415  12.086   6.455   4.483
41173SOL    HW125416  12.048   6.539   4.460
41173SOL    HW225417  12.127   6.469   4.568
41174SOL     OW25418   7.225   2.381   2.588
41174SOL    HW125419   7.264   2.467   2.607
41174SOL    HW225420   7.282   2.318   2.631
41175SOL     OW25421   0.228   2.266   5.894
41175SOL    HW125422   0.167   2.227   5.957
41175SOL    HW225423   0.234   2.202   5.824
41176SOL     OW25424  14.207   9.417   2.975
41176SOL    HW125425  14.292   9.441   2.937
41176SOL    HW225426  14.146   9.480   2.938
41177SOL     OW25427   7.674  14.638   1.609
41177SOL    HW125428   7.767  14.656   1.625
41177SOL    HW225429   7.671  14.545   1.586
41178SOL     OW25430   6.546   4.940   7.411
41178SOL    HW125431   6.586   4.853   7.414
41178SOL    HW225432   6.560   4.971   7.322
41179SOL     OW25433  14.728   3.672   7.680
41179SOL    HW125434  14.661   3.704   7.620
41179SOL    HW225435  14.757   3.589   7.642
41180SOL     OW25436   4.686   7.486   0.292
41180SOL    HW125437   4.764   7.491   0.347
41180SOL    HW225438   4.635   7.564   0.316
41181SOL     OW25439  10.427  11.607   6.191
41181SOL    HW125440  10.416  11.701   6.206
41181SOL    HW225441  10.444  11.600   6.097
41182SOL     OW25442  12.676   8.804  13.408
41182SOL    HW125443  12.686   8.837  13.497
41182SOL    HW225444  12.601   8.744  13.413
41183SOL     OW25445  11.260  10.524  14.684
41183SOL    HW125446  11.236  10.436  14.656
41183SOL    HW225447  11.321  10.555  14.617
41184SOL     OW25448   0.417   8.689  13.689
41184SOL    HW125449   0.392   8.643  13.609
41184SOL    HW225450   0.506   8.721  13.672
41185SOL     OW25451  13.405   2.014  11.920
41185SOL    HW125452  13.455   2.051  11.847
41185SOL    HW225453  13.429   1.921  11.921
41186SOL     OW25454  14.860   3.608   9.127
41186SOL    HW125455   0.013   3.700   9.115
41186SOL    HW225456  14.857   3.596   9.222
41187SOL     OW25457   9.197  12.938   7.508
41187SOL    HW125458   9.166  13.010   7.453
41187SOL    HW225459   9.259  12.978   7.568
41188SOL     OW25460   2.499   6.102   5.631
41188SOL    HW125461   2.437   6.037   5.599
41188SOL    HW225462   2.476   6.114   5.723
41189SOL     OW25463   8.979   0.080  10.594
41189SOL    HW125464   8.952   0.017  10.661
41189SOL    HW225465   9.025   0.149  10.641
41190SOL     OW25466  14.317   1.496   2.129
41190SOL    HW125467  14.306   1.589   2.148
41190SOL    HW225468  14.243   1.453   2.172
41191SOL     OW25469   3.722   0.155   2.616
41191SOL    HW125470   3.721   0.162   2.520
41191SOL    HW225471   3.814   0.140   2.637
41192SOL     OW25472  12.041   0.132   2.332
41192SOL    HW125473  11.980   0.066   2.300
41192SOL    HW225474  11.998   0.169   2.409
41193SOL     OW25475   6.520  13.631   4.156
41193SOL    HW125476   6.475  13.584   4.086
41193SOL    HW225477   6.503  13.724   4.139
41194SOL     OW25478   7.849   7.519   3.887
41194SOL    HW125479   7.842   7.429   3.918
41194SOL    HW225480   7.849   7.572   3.967
41195SOL     OW25481   0.890   7.801   6.457
41195SOL    HW125482   0.881   7.881   6.509
41195SOL    HW225483   0.968   7.759   6.491
41196SOL     OW25484   0.114  13.418   9.816
41196SOL    HW125485   0.198  13.373   9.829
41196SOL    HW225486   0.138  13.508   9.793
41197SOL     OW25487  10.603  10.605   7.514
41197SOL    HW125488  10.626  10.606   7.607
41197SOL    HW225489  10.687  10.610   7.469
41198SOL     OW25490  12.355   5.962  13.166
41198SOL    HW125491  12.445   5.965  13.134
41198SOL    HW225492  12.322   6.051  13.156
41199SOL     OW25493   8.743  14.410  11.716
41199SOL    HW125494   8.785  14.385  11.798
41199SOL    HW225495   8.673  14.469  11.742
41200SOL     OW25496   1.187  11.065   6.090
41200SOL    HW125497   1.176  10.972   6.067
41200SOL    HW225498   1.147  11.072   6.177
41201SOL     OW25499   2.443   9.679  11.747
41201SOL    HW125500   2.446   9.668  11.652
41201SOL    HW225501   2.411   9.596  11.781
41202SOL     OW25502   5.982   1.674   7.029
41202SOL    HW125503   6.031   1.598   7.059
41202SOL    HW225504   5.995   1.739   7.099
41203SOL     OW25505   2.979   0.967   3.008
41203SOL    HW125506   2.933   0.939   2.929
41203SOL    HW225507   2.936   0.919   3.079
41204SOL     OW25508   8.544   5.767   3.870
41204SOL    HW125509   8.458   5.724   3.876
41204SOL    HW225510   8.537   5.843   3.928
41205SOL     OW25511  10.609   3.195   5.138
41205SOL    HW125512  10.696   3.227   5.161
41205SOL    HW225513  10.577   3.154   5.218
41206SOL     OW25514  12.972  13.003   8.449
41206SOL    HW125515  12.976  13.053   8.531
41206SOL    HW225516  13.036  12.933   8.461
41207SOL     OW25517   0.069   0.777   9.996
41207SOL    HW125518  14.857   0.828  10.000
41207SOL    HW225519   0.108   0.789  10.082
41208SOL     OW25520  12.409   3.490  14.489
41208SOL    HW125521  12.424   3.572  14.536
41208SOL    HW225522  12.425   3.421  14.553
41209SOL     OW25523   4.789  13.981  13.067
41209SOL    HW125524   4.756  13.959  12.980
41209SOL    HW225525   4.711  14.007  13.116
41210SOL     OW25526  10.641   6.184   3.284
41210SOL    HW125527  10.679   6.242   3.219
41210SOL    HW225528  10.585   6.125   3.234
41211SOL     OW25529   6.024   8.834   3.290
41211SOL    HW125530   6.010   8.782   3.369
41211SOL    HW225531   5.995   8.777   3.218
41212SOL     OW25532   5.272   9.389   0.082
41212SOL    HW125533   5.244   9.357  14.866
41212SOL    HW225534   5.215   9.464   0.100
41213SOL     OW25535  11.129   1.287   4.333
41213SOL    HW125536  11.146   1.193   4.339
41213SOL    HW225537  11.073   1.306   4.409
41214SOL     OW25538  10.507   1.156   9.646
41214SOL    HW125539  10.422   1.129   9.612
41214SOL    HW225540  10.566   1.085   9.621
41215SOL     OW25541  11.400  12.788  12.622
41215SOL    HW125542  11.388  12.840  12.701
41215SOL    HW225543  11.484  12.817  12.587
41216SOL     OW25544   1.174   3.443  13.109
41216SOL    HW125545   1.112   3.507  13.143
41216SOL    HW225546   1.258   3.489  13.108
41217SOL     OW25547   1.142   2.440  13.708
41217SOL    HW125548   1.180   2.359  13.674
41217SOL    HW225549   1.152   2.434  13.803
41218SOL     OW25550   0.962  12.819   0.810
41218SOL    HW125551   0.872  12.825   0.778
41218SOL    HW225552   0.992  12.734   0.779
41219SOL     OW25553   2.185  11.417   7.154
41219SOL    HW125554   2.128  11.374   7.218
41219SOL    HW225555   2.246  11.468   7.208
41220SOL     OW25556   0.377  13.284  10.689
41220SOL    HW125557   0.355  13.192  10.695
41220SOL    HW225558   0.468  13.285  10.657
41221SOL     OW25559   4.937  14.742   7.573
41221SOL    HW125560   4.851  14.721   7.536
41221SOL    HW225561   4.992  14.667   7.550
41222SOL     OW25562  12.967   2.529   1.942
41222SOL    HW125563  13.057   2.501   1.959
41222SOL    HW225564  12.918   2.447   1.933
41223SOL     OW25565   9.176   9.384   8.743
41223SOL    HW125566   9.126   9.342   8.813
41223SOL    HW225567   9.122   9.372   8.665
41224SOL     OW25568  12.434   4.549  13.857
41224SOL    HW125569  12.454   4.465  13.899
41224SOL    HW225570  12.519   4.588  13.838
41225SOL     OW25571   2.345  12.053   0.460
41225SOL    HW125572   2.259  12.094   0.463
41225SOL    HW225573   2.405  12.120   0.493
41226SOL     OW25574   2.459  14.426   8.834
41226SOL    HW125575   2.474  14.342   8.876
41226SOL    HW225576   2.373  14.416   8.792
41227SOL     OW25577   9.416  10.608   5.262
41227SOL    HW125578   9.346  10.553   5.298
41227SOL    HW225579   9.446  10.561   5.184
41228SOL     OW25580   4.907   9.589   5.302
41228SOL    HW125581   4.832   9.531   5.293
41228SOL    HW225582   4.871   9.669   5.341
41229SOL     OW25583   3.058   5.080  14.627
41229SOL    HW125584   2.997   5.010  14.606
41229SOL    HW225585   3.054   5.139  14.552
41230SOL     OW25586   6.182   2.013   1.540
41230SOL    HW125587   6.223   2.097   1.518
41230SOL    HW225588   6.256   1.953   1.550
41231SOL     OW25589   0.374  11.689   4.294
41231SOL    HW125590   0.368  11.620   4.360
41231SOL    HW225591   0.463  11.681   4.259
41232SOL     OW25592   5.614   4.509   9.706
41232SOL    HW125593   5.639   4.556   9.626
41232SOL    HW225594   5.596   4.578   9.770
41233SOL     OW25595   6.295   0.244   1.059
41233SOL    HW125596   6.231   0.178   1.032
41233SOL    HW225597   6.251   0.328   1.043
41234SOL     OW25598   6.876   0.556  13.769
41234SOL    HW125599   6.875   0.597  13.855
41234SOL    HW225600   6.829   0.617  13.712
41235SOL     OW25601   1.408   1.402   0.708
41235SOL    HW125602   1.474   1.444   0.764
41235SOL    HW225603   1.437   1.311   0.702
41236SOL     OW25604   1.577   9.087   5.556
41236SOL    HW125605   1.505   9.149   5.542
41236SOL    HW225606   1.589   9.046   5.470
41237SOL     OW25607   7.002  14.195   6.611
41237SOL    HW125608   7.068  14.191   6.542
41237SOL    HW225609   6.988  14.289   6.626
41238SOL     OW25610   3.084  11.657   6.615
41238SOL    HW125611   3.024  11.731   6.602
41238SOL    HW225612   3.095  11.651   6.710
41239SOL     OW25613   2.763   5.374   8.618
41239SOL    HW125614   2.806   5.334   8.693
41239SOL    HW225615   2.830   5.377   8.550
41240SOL     OW25616   7.344   3.214   4.074
41240SOL    HW125617   7.355   3.225   3.979
41240SOL    HW225618   7.350   3.303   4.109
41241SOL     OW25619   6.996   4.725   6.874
41241SOL    HW125620   6.927   4.760   6.817
41241SOL    HW225621   6.983   4.630   6.872
41242SOL     OW25622   4.074  14.262   0.865
41242SOL    HW125623   4.135  14.309   0.808
41242SOL    HW225624   4.126  14.193   0.905
41243SOL     OW25625  12.542  12.570   2.065
41243SOL    HW125626  12.565  12.651   2.019
41243SOL    HW225627  12.462  12.540   2.023
41244SOL     OW25628   2.524   8.641   2.999
41244SOL    HW125629   2.448   8.691   2.969
41244SOL    HW225630   2.557   8.598   2.920
41245SOL     OW25631   6.839   3.127   6.910
41245SOL    HW125632   6.924   3.162   6.883
41245SOL    HW225633   6.800   3.196   6.964
41246SOL     OW25634   9.061   2.508  10.779
41246SOL    HW125635   8.981   2.555  10.755
41246SOL    HW225636   9.069   2.438  10.714
41247SOL     OW25637  12.251   7.159   0.835
41247SOL    HW125638  12.233   7.191   0.747
41247SOL    HW225639  12.346   7.152   0.840
41248SOL     OW25640  12.690   9.788   9.049
41248SOL    HW125641  12.681   9.819   8.959
41248SOL    HW225642  12.744   9.709   9.042
41249SOL     OW25643   6.499  14.092   5.660
41249SOL    HW125644   6.436  14.060   5.596
41249SOL    HW225645   6.473  14.182   5.677
41250SOL     OW25646   0.533   5.419   1.724
41250SOL    HW125647   0.529   5.383   1.813
41250SOL    HW225648   0.626   5.428   1.706
41251SOL     OW25649   0.442  11.287   3.525
41251SOL    HW125650   0.534  11.307   3.540
41251SOL    HW225651   0.427  11.310   3.433
41252SOL     OW25652   2.032  10.648   1.731
41252SOL    HW125653   1.962  10.674   1.791
41252SOL    HW225654   2.113  10.672   1.776
41253SOL     OW25655   5.114   2.721   8.536
41253SOL    HW125656   5.197   2.765   8.515
41253SOL    HW225657   5.094   2.750   8.625
41254SOL     OW25658   2.788  12.067   9.199
41254SOL    HW125659   2.774  12.158   9.225
41254SOL    HW225660   2.772  12.016   9.279
41255SOL     OW25661  11.283  13.758   1.015
41255SOL    HW125662  11.376  13.740   1.007
41255SOL    HW225663  11.260  13.804   0.935
41256SOL     OW25664   7.806  14.000   4.886
41256SOL    HW125665   7.879  13.939   4.879
41256SOL    HW225666   7.768  13.983   4.972
41257SOL     OW25667  11.004   4.296  11.370
41257SOL    HW125668  11.097   4.284  11.391
41257SOL    HW225669  10.959   4.291  11.454
41258SOL     OW25670  12.230   3.048  13.230
41258SOL    HW125671  12.171   2.977  13.207
41258SOL    HW225672  12.316   3.007  13.234
41259SOL     OW25673  11.578   6.155   0.115
41259SOL    HW125674  11.667   6.123   0.113
41259SOL    HW225675  11.569   6.195   0.202
41260SOL     OW25676   7.390  13.185   6.687
41260SOL    HW125677   7.315  13.238   6.715
41260SOL    HW225678   7.396  13.200   6.593
41261SOL     OW25679  10.996   4.040  13.632
41261SOL    HW125680  11.058   4.086  13.574
41261SOL    HW225681  10.942   3.989  13.572
41262SOL     OW25682  13.808   1.604   1.281
41262SOL    HW125683  13.783   1.682   1.330
41262SOL    HW225684  13.902   1.596   1.296
41263SOL     OW25685  11.974   8.342  14.311
41263SOL    HW125686  11.989   8.320  14.403
41263SOL    HW225687  11.886   8.310  14.293
41264SOL     OW25688   7.221   4.795   8.939
41264SOL    HW125689   7.209   4.726   9.005
41264SOL    HW225690   7.153   4.859   8.959
41265SOL     OW25691   6.013   9.992   1.987
41265SOL    HW125692   5.964   9.921   2.027
41265SOL    HW225693   5.968  10.010   1.905
41266SOL     OW25694  14.494   4.737   0.723
41266SOL    HW125695  14.441   4.678   0.670
41266SOL    HW225696  14.470   4.718   0.813
41267SOL     OW25697   2.161   3.148  12.487
41267SOL    HW125698   2.155   3.053  12.501
41267SOL    HW225699   2.217   3.179  12.558
41268SOL     OW25700   6.500   0.548   7.485
41268SOL    HW125701   6.458   0.622   7.441
41268SOL    HW225702   6.500   0.573   7.578
41269SOL     OW25703   7.166   0.553   1.837
41269SOL    HW125704   7.153   0.623   1.901
41269SOL    HW225705   7.078   0.520   1.819
41270SOL     OW25706   5.033  13.870   6.753
41270SOL    HW125707   5.079  13.806   6.807
41270SOL    HW225708   4.948  13.882   6.797
41271SOL     OW25709   0.135  14.094   7.525
41271SOL    HW125710   0.140  14.061   7.435
41271SOL    HW225711   0.069  14.040   7.567
41272SOL     OW25712   4.374  14.676   3.673
41272SOL    HW125713   4.411  14.740   3.613
41272SOL    HW225714   4.448  14.645   3.725
41273SOL     OW25715   3.041   8.605   7.094
41273SOL    HW125716   3.090   8.597   7.176
41273SOL    HW225717   3.012   8.696   7.093
41274SOL     OW25718   5.697   6.126   5.207
41274SOL    HW125719   5.756   6.191   5.168
41274SOL    HW225720   5.756   6.056   5.237
41275SOL     OW25721   1.302  12.170   2.537
41275SOL    HW125722   1.291  12.210   2.623
41275SOL    HW225723   1.334  12.241   2.481
41276SOL     OW25724   0.125  12.550   6.010
41276SOL    HW125725   0.097  12.627   5.961
41276SOL    HW225726   0.065  12.545   6.084
41277SOL     OW25727   4.408   9.955   3.738
41277SOL    HW125728   4.360   9.872   3.738
41277SOL    HW225729   4.350  10.015   3.784
41278SOL     OW25730  10.451   3.926   2.508
41278SOL    HW125731  10.404   3.883   2.437
41278SOL    HW225732  10.411   4.012   2.515
41279SOL     OW25733  13.728   3.052  14.450
41279SOL    HW125734  13.671   2.980  14.423
41279SOL    HW225735  13.803   3.010  14.491
41280SOL     OW25736   7.515  12.583   0.441
41280SOL    HW125737   7.480  12.536   0.517
41280SOL    HW225738   7.493  12.527   0.366
41281SOL     OW25739  13.969   5.892   6.904
41281SOL    HW125740  13.883   5.923   6.877
41281SOL    HW225741  13.955   5.802   6.933
41282SOL     OW25742  12.842  11.275   3.202
41282SOL    HW125743  12.789  11.311   3.274
41282SOL    HW225744  12.805  11.315   3.123
41283SOL     OW25745   1.694   7.194   5.548
41283SOL    HW125746   1.759   7.149   5.494
41283SOL    HW225747   1.742   7.221   5.626
41284SOL     OW25748   4.891   4.840   7.041
41284SOL    HW125749   4.979   4.807   7.058
41284SOL    HW225750   4.892   4.930   7.074
41285SOL     OW25751  12.703  11.445   5.213
41285SOL    HW125752  12.692  11.520   5.271
41285SOL    HW225753  12.768  11.390   5.256
41286SOL     OW25754   0.998   8.192   2.375
41286SOL    HW125755   1.069   8.135   2.345
41286SOL    HW225756   1.040   8.253   2.436
41287SOL     OW25757   6.385   8.404   0.763
41287SOL    HW125758   6.412   8.365   0.846
41287SOL    HW225759   6.460   8.458   0.736
41288SOL     OW25760   4.310   0.894   5.474
41288SOL    HW125761   4.297   0.967   5.534
41288SOL    HW225762   4.228   0.890   5.424
41289SOL     OW25763  13.892  12.275   7.149
41289SOL    HW125764  13.851  12.236   7.226
41289SOL    HW225765  13.839  12.353   7.131
41290SOL     OW25766   4.743   0.276  12.447
41290SOL    HW125767   4.736   0.307  12.356
41290SOL    HW225768   4.652   0.260  12.473
41291SOL     OW25769   3.948   7.847   9.919
41291SOL    HW125770   3.871   7.888   9.880
41291SOL    HW225771   3.988   7.798   9.848
41292SOL     OW25772   8.848   9.561   9.891
41292SOL    HW125773   8.878   9.638   9.938
41292SOL    HW225774   8.759   9.582   9.862
41293SOL     OW25775   5.629   8.514   9.485
41293SOL    HW125776   5.596   8.483   9.569
41293SOL    HW225777   5.613   8.608   9.486
41294SOL     OW25778  11.283  10.043   0.545
41294SOL    HW125779  11.269   9.956   0.507
41294SOL    HW225780  11.226  10.044   0.623
41295SOL     OW25781   4.261   3.846   4.962
41295SOL    HW125782   4.290   3.759   4.933
41295SOL    HW225783   4.283   3.850   5.055
41296SOL     OW25784   8.610   0.647   7.917
41296SOL    HW125785   8.554   0.705   7.866
41296SOL    HW225786   8.554   0.618   7.989
41297SOL     OW25787  12.967  12.064   3.304
41297SOL    HW125788  12.942  11.972   3.298
41297SOL    HW225789  12.920  12.096   3.381
41298SOL     OW25790   7.979   8.212   1.873
41298SOL    HW125791   7.958   8.242   1.785
41298SOL    HW225792   7.894   8.196   1.914
41299SOL     OW25793  12.483   4.970   7.027
41299SOL    HW125794  12.534   4.945   7.104
41299SOL    HW225795  12.412   4.905   7.024
41300SOL     OW25796  13.986   9.448   5.088
41300SOL    HW125797  13.972   9.468   4.995
41300SOL    HW225798  14.076   9.417   5.092
41301SOL     OW25799   1.441  14.019   0.308
41301SOL    HW125800   1.521  13.966   0.308
41301SOL    HW225801   1.389  13.983   0.381
41302SOL     OW25802   9.544  11.308  11.627
41302SOL    HW125803   9.555  11.349  11.541
41302SOL    HW225804   9.632  11.280  11.651
41303SOL     OW25805   3.406   4.016   0.600
41303SOL    HW125806   3.349   4.027   0.524
41303SOL    HW225807   3.493   4.005   0.563
41304SOL     OW25808   9.768   0.734  12.273
41304SOL    HW125809   9.766   0.825  12.299
41304SOL    HW225810   9.859   0.708  12.284
41305SOL     OW25811   1.685   9.420   1.746
41305SOL    HW125812   1.595   9.390   1.762
41305SOL    HW225813   1.691   9.428   1.651
41306SOL     OW25814   8.954   5.472   1.477
41306SOL    HW125815   8.912   5.536   1.419
41306SOL    HW225816   9.021   5.432   1.422
41307SOL     OW25817   3.681   7.862   3.515
41307SOL    HW125818   3.685   7.897   3.604
41307SOL    HW225819   3.632   7.780   3.524
41308SOL     OW25820  12.411  11.274   4.446
41308SOL    HW125821  12.453  11.264   4.531
41308SOL    HW225822  12.461  11.342   4.402
41309SOL     OW25823   8.019   2.096   4.047
41309SOL    HW125824   7.972   2.013   4.034
41309SOL    HW225825   7.982   2.133   4.127
41310SOL     OW25826   9.466   0.905   1.247
41310SOL    HW125827   9.419   0.827   1.275
41310SOL    HW225828   9.558   0.886   1.266
41311SOL     OW25829  12.358  11.893   4.094
41311SOL    HW125830  12.433  11.946   4.068
41311SOL    HW225831  12.339  11.921   4.183
41312SOL     OW25832   8.574  11.846   8.707
41312SOL    HW125833   8.490  11.814   8.740
41312SOL    HW225834   8.560  11.859   8.613
41313SOL     OW25835  11.119   6.600   1.741
41313SOL    HW125836  11.182   6.562   1.679
41313SOL    HW225837  11.037   6.553   1.723
41314SOL     OW25838   5.253  10.113   5.729
41314SOL    HW125839   5.181  10.070   5.775
41314SOL    HW225840   5.248  10.081   5.640
41315SOL     OW25841   8.875   6.721   8.523
41315SOL    HW125842   8.853   6.780   8.451
41315SOL    HW225843   8.969   6.732   8.536
41316SOL     OW25844   4.685  12.690  14.414
41316SOL    HW125845   4.690  12.630  14.488
41316SOL    HW225846   4.776  12.714  14.396
41317SOL     OW25847   2.825   2.823  14.848
41317SOL    HW125848   2.825   2.856   0.068
41317SOL    HW225849   2.907   2.857  14.810
41318SOL     OW25850  11.704   0.990  13.806
41318SOL    HW125851  11.632   0.947  13.761
41318SOL    HW225852  11.699   1.082  13.779
41319SOL     OW25853   4.576   9.843   8.783
41319SOL    HW125854   4.509   9.801   8.836
41319SOL    HW225855   4.659   9.812   8.818
41320SOL     OW25856   7.020  12.891  11.319
41320SOL    HW125857   6.984  12.807  11.289
41320SOL    HW225858   7.069  12.869  11.398
41321SOL     OW25859  14.213  10.422   8.169
41321SOL    HW125860  14.286  10.484   8.160
41321SOL    HW225861  14.176  10.417   8.082
41322SOL     OW25862  11.908   8.310   1.825
41322SOL    HW125863  11.988   8.271   1.861
41322SOL    HW225864  11.915   8.403   1.846
41323SOL     OW25865  12.873   4.192  10.732
41323SOL    HW125866  12.854   4.170  10.641
41323SOL    HW225867  12.951   4.247  10.727
41324SOL     OW25868   2.848  12.349   1.019
41324SOL    HW125869   2.934  12.389   1.001
41324SOL    HW225870   2.868  12.271   1.070
41325SOL     OW25871   4.068   9.258   0.694
41325SOL    HW125872   4.081   9.180   0.640
41325SOL    HW225873   3.987   9.240   0.742
41326SOL     OW25874   8.006   2.969   3.485
41326SOL    HW125875   8.034   3.016   3.563
41326SOL    HW225876   7.943   2.905   3.518
41327SOL     OW25877  10.639   5.000  14.010
41327SOL    HW125878  10.617   5.009  13.917
41327SOL    HW225879  10.641   5.090  14.043
41328SOL     OW25880   6.715   5.961  12.746
41328SOL    HW125881   6.712   5.865  12.745
41328SOL    HW225882   6.780   5.983  12.679
41329SOL     OW25883   7.182   0.008  14.801
41329SOL    HW125884   7.204  14.787  14.824
41329SOL    HW225885   7.260   0.041  14.758
41330SOL     OW25886   3.472  10.407   1.977
41330SOL    HW125887   3.445  10.491   2.014
41330SOL    HW225888   3.554  10.386   2.021
41331SOL     OW25889   7.262  14.274  12.167
41331SOL    HW125890   7.261  14.356  12.215
41331SOL    HW225891   7.330  14.285  12.100
41332SOL     OW25892  12.985   9.490   4.074
41332SOL    HW125893  12.899   9.463   4.042
41332SOL    HW225894  13.036   9.508   3.995
41333SOL     OW25895  11.258   3.958  13.859
41333SOL    HW125896  11.344   3.924  13.834
41333SOL    HW225897  11.253   3.943  13.954
41334SOL     OW25898   1.895  12.860   6.520
41334SOL    HW125899   1.988  12.845   6.540
41334SOL    HW225900   1.858  12.897   6.600
41335SOL     OW25901   8.153   3.302  12.200
41335SOL    HW125902   8.219   3.370  12.212
41335SOL    HW225903   8.069   3.348  12.205
41336SOL     OW25904  13.000   0.493   7.519
41336SOL    HW125905  13.092   0.465   7.514
41336SOL    HW225906  13.004   0.588   7.514
41337SOL     OW25907   4.099   6.220  10.155
41337SOL    HW125908   4.187   6.185  10.165
41337SOL    HW225909   4.069   6.234  10.245
41338SOL     OW25910   0.048   6.440   9.052
41338SOL    HW125911   0.082   6.360   9.013
41338SOL    HW225912  14.823   6.434   9.041
41339SOL     OW25913  13.722  12.422  14.729
41339SOL    HW125914  13.671  12.482  14.674
41339SOL    HW225915  13.679  12.337  14.717
41340SOL     OW25916   0.069  12.900   8.849
41340SOL    HW125917  14.867  12.868   8.904
41340SOL    HW225918   0.078  12.993   8.873
41341SOL     OW25919   6.518   5.266  14.066
41341SOL    HW125920   6.551   5.274  13.977
41341SOL    HW225921   6.542   5.349  14.108
41342SOL     OW25922   8.218   2.844   1.870
41342SOL    HW125923   8.219   2.845   1.966
41342SOL    HW225924   8.155   2.911   1.846
41343SOL     OW25925   7.009   3.450   3.157
41343SOL    HW125926   7.006   3.443   3.253
41343SOL    HW225927   6.961   3.531   3.137
41344SOL     OW25928   1.062   9.205   4.033
41344SOL    HW125929   1.120   9.209   3.957
41344SOL    HW225930   0.976   9.230   3.998
41345SOL     OW25931   5.348  13.264   0.441
41345SOL    HW125932   5.376  13.190   0.387
41345SOL    HW225933   5.430  13.302   0.473
41346SOL     OW25934   5.842  10.128   7.455
41346SOL    HW125935   5.763  10.160   7.412
41346SOL    HW225936   5.913  10.148   7.394
41347SOL     OW25937   0.916   1.398  12.286
41347SOL    HW125938   1.005   1.413  12.318
41347SOL    HW225939   0.907   1.302  12.285
41348SOL     OW25940   0.148   3.679  10.880
41348SOL    HW125941   0.125   3.586  10.887
41348SOL    HW225942   0.135   3.701  10.788
41349SOL     OW25943   9.337   0.665   2.386
41349SOL    HW125944   9.403   0.627   2.444
41349SOL    HW225945   9.262   0.606   2.394
41350SOL     OW25946   4.663  14.440   8.006
41350SOL    HW125947   4.690  14.350   8.021
41350SOL    HW225948   4.728  14.475   7.943
41351SOL     OW25949   4.284   0.870   9.454
41351SOL    HW125950   4.366   0.918   9.461
41351SOL    HW225951   4.216   0.937   9.467
41352SOL     OW25952   4.104   2.448   3.757
41352SOL    HW125953   4.035   2.485   3.702
41352SOL    HW225954   4.061   2.426   3.839
41353SOL     OW25955  12.908   0.338   2.649
41353SOL    HW125956  12.898   0.257   2.599
41353SOL    HW225957  12.836   0.335   2.713
41354SOL     OW25958   4.253   8.557   4.551
41354SOL    HW125959   4.202   8.625   4.505
41354SOL    HW225960   4.190   8.518   4.612
41355SOL     OW25961   4.501  13.892   8.614
41355SOL    HW125962   4.564  13.905   8.684
41355SOL    HW225963   4.528  13.953   8.545
41356SOL     OW25964   3.184  14.082  10.751
41356SOL    HW125965   3.227  14.005  10.789
41356SOL    HW225966   3.091  14.059  10.752
41357SOL     OW25967   3.004   9.932   8.619
41357SOL    HW125968   3.090   9.922   8.659
41357SOL    HW225969   3.020   9.927   8.525
41358SOL     OW25970   7.261  14.423   2.779
41358SOL    HW125971   7.345  14.385   2.751
41358SOL    HW225972   7.208  14.347   2.804
41359SOL     OW25973   9.810   9.309  10.865
41359SOL    HW125974   9.834   9.281  10.953
41359SOL    HW225975   9.714   9.304  10.864
41360SOL     OW25976   5.656   7.842  11.880
41360SOL    HW125977   5.641   7.935  11.892
41360SOL    HW225978   5.616   7.821  11.796
41361SOL     OW25979   2.951  13.317   8.443
41361SOL    HW125980   3.009  13.298   8.369
41361SOL    HW225981   2.909  13.400   8.421
41362SOL     OW25982   0.526   8.889   9.675
41362SOL    HW125983   0.551   8.847   9.593
41362SOL    HW225984   0.453   8.836   9.708
41363SOL     OW25985  10.620  14.129   0.666
41363SOL    HW125986  10.648  14.220   0.674
41363SOL    HW225987  10.702  14.081   0.651
41364SOL     OW25988   3.902   6.210   7.833
41364SOL    HW125989   3.891   6.179   7.743
41364SOL    HW225990   3.962   6.284   7.825
41365SOL     OW25991   0.861  14.536   6.188
41365SOL    HW125992   0.797  14.554   6.257
41365SOL    HW225993   0.908  14.459   6.219
41366SOL     OW25994  14.631   3.295   9.900
41366SOL    HW125995  14.656   3.254   9.982
41366SOL    HW225996  14.589   3.225   9.850
41367SOL     OW25997   7.564   3.122  10.574
41367SOL    HW125998   7.496   3.118  10.506
41367SOL    HW225999   7.638   3.165  10.532
41368SOL     OW26000  12.322  11.531   8.596
41368SOL    HW126001  12.243  11.580   8.575
41368SOL    HW226002  12.356  11.503   8.511
41369SOL     OW26003   5.452  13.919   8.744
41369SOL    HW126004   5.543  13.901   8.719
41369SOL    HW226005   5.401  13.879   8.674
41370SOL     OW26006   7.162   0.070   5.782
41370SOL    HW126007   7.114   0.064   5.699
41370SOL    HW226008   7.096   0.049   5.849
41371SOL     OW26009   3.082  11.343  10.110
41371SOL    HW126010   3.154  11.297  10.152
41371SOL    HW226011   3.014  11.349  10.177
41372SOL     OW26012  10.096   8.366  13.422
41372SOL    HW126013  10.076   8.456  13.445
41372SOL    HW226014  10.020   8.335  13.373
41373SOL     OW26015   8.105  10.527   5.594
41373SOL    HW126016   8.029  10.535   5.651
41373SOL    HW226017   8.162  10.600   5.620
41374SOL     OW26018   5.496  14.579   1.167
41374SOL    HW126019   5.548  14.525   1.227
41374SOL    HW226020   5.449  14.516   1.112
41375SOL     OW26021   5.229   7.497   6.542
41375SOL    HW126022   5.243   7.564   6.475
41375SOL    HW226023   5.307   7.502   6.598
41376SOL     OW26024   6.953   3.013   1.088
41376SOL    HW126025   6.920   3.003   0.999
41376SOL    HW226026   6.879   2.990   1.144
41377SOL     OW26027   6.053   4.264   8.852
41377SOL    HW126028   6.012   4.301   8.773
41377SOL    HW226029   6.059   4.338   8.912
41378SOL     OW26030   9.022   6.632   4.654
41378SOL    HW126031   8.938   6.644   4.698
41378SOL    HW226032   9.040   6.716   4.613
41379SOL     OW26033  13.297  10.683   4.421
41379SOL    HW126034  13.255  10.769   4.412
41379SOL    HW226035  13.386  10.697   4.387
41380SOL     OW26036   3.834  13.110  14.005
41380SOL    HW126037   3.894  13.051  14.052
41380SOL    HW226038   3.892  13.170  13.958
41381SOL     OW26039  13.373   4.230  13.585
41381SOL    HW126040  13.451   4.176  13.592
41381SOL    HW226041  13.402   4.307  13.536
41382SOL     OW26042   3.610   4.796  13.117
41382SOL    HW126043   3.617   4.768  13.209
41382SOL    HW226044   3.553   4.731  13.076
41383SOL     OW26045   6.374  13.439  11.054
41383SOL    HW126046   6.456  13.489  11.054
41383SOL    HW226047   6.380  13.383  10.977
41384SOL     OW26048  11.112   0.416   5.983
41384SOL    HW126049  11.182   0.426   5.917
41384SOL    HW226050  11.143   0.345   6.039
41385SOL     OW26051  11.062   9.732  10.475
41385SOL    HW126052  11.037   9.655  10.424
41385SOL    HW226053  11.104   9.790  10.412
41386SOL     OW26054   5.390  12.953   1.541
41386SOL    HW126055   5.402  13.034   1.491
41386SOL    HW226056   5.298  12.956   1.569
41387SOL     OW26057   0.216   4.894   3.410
41387SOL    HW126058   0.129   4.854   3.407
41387SOL    HW226059   0.266   4.837   3.469
41388SOL     OW26060   7.667   4.654  14.424
41388SOL    HW126061   7.669   4.631  14.517
41388SOL    HW226062   7.678   4.570  14.379
41389SOL     OW26063  11.524  11.269  10.264
41389SOL    HW126064  11.493  11.358  10.245
41389SOL    HW226065  11.595  11.282  10.328
41390SOL     OW26066   1.660  13.097   6.028
41390SOL    HW126067   1.655  13.189   6.051
41390SOL    HW226068   1.754  13.081   6.015
41391SOL     OW26069   3.605   4.536   8.998
41391SOL    HW126070   3.566   4.596   8.934
41391SOL    HW226071   3.639   4.463   8.945
41392SOL     OW26072   3.387   5.109   0.672
41392SOL    HW126073   3.335   5.176   0.627
41392SOL    HW226074   3.361   5.027   0.630
41393SOL     OW26075   2.890  13.720   3.299
41393SOL    HW126076   2.881  13.781   3.226
41393SOL    HW226077   2.974  13.676   3.283
41394SOL     OW26078  11.815   5.422  13.502
41394SOL    HW126079  11.840   5.467  13.583
41394SOL    HW226080  11.842   5.481  13.432
41395SOL     OW26081   6.465  10.106   6.276
41395SOL    HW126082   6.493  10.018   6.302
41395SOL    HW226083   6.379  10.093   6.236
41396SOL     OW26084   5.497  13.397   8.294
41396SOL    HW126085   5.520  13.431   8.207
41396SOL    HW226086   5.478  13.475   8.346
41397SOL     OW26087   0.474  13.570  10.343
41397SOL    HW126088   0.440  13.593  10.430
41397SOL    HW226089   0.434  13.634  10.284
41398SOL     OW26090   9.339   4.572  14.541
41398SOL    HW126091   9.361   4.659  14.507
41398SOL    HW226092   9.327   4.587  14.635
41399SOL     OW26093  14.662   9.868   3.116
41399SOL    HW126094  14.665   9.869   3.021
41399SOL    HW226095  14.650   9.960   3.141
41400SOL     OW26096   1.507   5.498  11.811
41400SOL    HW126097   1.436   5.561  11.798
41400SOL    HW226098   1.552   5.495  11.726
41401SOL     OW26099  14.558  10.846   7.653
41401SOL    HW126100  14.606  10.904   7.594
41401SOL    HW226101  14.590  10.867   7.740
41402SOL     OW26102   5.556   9.384   3.721
41402SOL    HW126103   5.474   9.411   3.763
41402SOL    HW226104   5.530   9.351   3.635
41403SOL     OW26105   7.528   3.219   2.518
41403SOL    HW126106   7.555   3.297   2.567
41403SOL    HW226107   7.603   3.160   2.522
41404SOL     OW26108   3.055  14.270   5.863
41404SOL    HW126109   3.119  14.270   5.935
41404SOL    HW226110   3.106  14.295   5.786
41405SOL     OW26111   6.902   2.102  13.121
41405SOL    HW126112   6.903   2.194  13.147
41405SOL    HW226113   6.884   2.054  13.202
41406SOL     OW26114   6.154   7.692   8.837
41406SOL    HW126115   6.069   7.723   8.804
41406SOL    HW226116   6.213   7.698   8.762
41407SOL     OW26117  11.306   9.713   2.726
41407SOL    HW126118  11.237   9.768   2.687
41407SOL    HW226119  11.387   9.744   2.686
41408SOL     OW26120   6.560   2.150  13.926
41408SOL    HW126121   6.491   2.084  13.921
41408SOL    HW226122   6.532   2.208  13.997
41409SOL     OW26123   1.768   0.128   5.185
41409SOL    HW126124   1.678   0.121   5.215
41409SOL    HW226125   1.819   0.142   5.265
41410SOL     OW26126  11.916   3.593  13.466
41410SOL    HW126127  11.981   3.526  13.447
41410SOL    HW226128  11.873   3.563  13.546
41411SOL     OW26129  10.512   4.985   3.215
41411SOL    HW126130  10.549   5.063   3.256
41411SOL    HW226131  10.485   4.929   3.288
41412SOL     OW26132   7.920   5.245   4.075
41412SOL    HW126133   7.854   5.229   4.143
41412SOL    HW226134   7.870   5.261   3.995
41413SOL     OW26135  14.073   1.668  14.372
41413SOL    HW126136  14.094   1.662  14.278
41413SOL    HW226137  13.994   1.616  14.382
41414SOL     OW26138   7.918   0.916   6.011
41414SOL    HW126139   7.875   0.834   6.036
41414SOL    HW226140   7.956   0.949   6.092
41415SOL     OW26141   2.160   3.638   6.848
41415SOL    HW126142   2.131   3.559   6.803
41415SOL    HW226143   2.253   3.623   6.867
41416SOL     OW26144   3.850   2.829   7.253
41416SOL    HW126145   3.894   2.807   7.171
41416SOL    HW226146   3.894   2.908   7.284
41417SOL     OW26147   2.292  13.861   7.268
41417SOL    HW126148   2.353  13.924   7.231
41417SOL    HW226149   2.288  13.791   7.203
41418SOL     OW26150   0.991   0.129  14.706
41418SOL    HW126151   1.021   0.088  14.625
41418SOL    HW226152   0.988   0.058  14.770
41419SOL     OW26153   0.848  13.710  13.515
41419SOL    HW126154   0.857  13.695  13.609
41419SOL    HW226155   0.891  13.635  13.474
41420SOL     OW26156   1.608   8.016  10.726
41420SOL    HW126157   1.663   7.938  10.717
41420SOL    HW226158   1.671   8.088  10.729
41421SOL     OW26159  14.796   1.931  11.300
41421SOL    HW126160  14.824   1.840  11.292
41421SOL    HW226161  14.784   1.944  11.394
41422SOL     OW26162  11.646  11.123   5.390
41422SOL    HW126163  11.676  11.064   5.322
41422SOL    HW226164  11.726  11.169   5.418
41423SOL     OW26165   0.568   8.498  11.014
41423SOL    HW126166   0.573   8.593  11.018
41423SOL    HW226167   0.475   8.478  11.027
41424SOL     OW26168  10.027   7.692   6.705
41424SOL    HW126169   9.941   7.682   6.665
41424SOL    HW226170  10.009   7.719   6.796
41425SOL     OW26171   7.452   6.595  14.813
41425SOL    HW126172   7.385   6.658  14.787
41425SOL    HW226173   7.402   6.522  14.851
41426SOL     OW26174   4.943  10.206   1.289
41426SOL    HW126175   4.871  10.263   1.263
41426SOL    HW226176   4.924  10.184   1.380
41427SOL     OW26177   5.747   2.284  12.637
41427SOL    HW126178   5.729   2.237  12.556
41427SOL    HW226179   5.841   2.277  12.650
41428SOL     OW26180   4.106   8.639  12.802
41428SOL    HW126181   4.108   8.730  12.831
41428SOL    HW226182   4.037   8.598  12.856
41429SOL     OW26183  14.834  11.919   6.234
41429SOL    HW126184   0.055  11.903   6.258
41429SOL    HW226185  14.797  11.967   6.308
41430SOL     OW26186   6.043   4.396  14.634
41430SOL    HW126187   6.046   4.350  14.550
41430SOL    HW226188   6.134   4.401  14.662
41431SOL     OW26189  14.244   2.553   6.262
41431SOL    HW126190  14.185   2.505   6.320
41431SOL    HW226191  14.280   2.623   6.317
41432SOL     OW26192   5.979  12.084   3.054
41432SOL    HW126193   5.946  12.161   3.100
41432SOL    HW226194   5.966  12.104   2.961
41433SOL     OW26195   4.223   2.217   8.092
41433SOL    HW126196   4.168   2.239   8.167
41433SOL    HW226197   4.262   2.132   8.114
41434SOL     OW26198   6.211  10.843   8.090
41434SOL    HW126199   6.242  10.907   8.026
41434SOL    HW226200   6.218  10.759   8.044
41435SOL     OW26201   0.391   5.009  12.055
41435SOL    HW126202   0.407   5.084  12.113
41435SOL    HW226203   0.477   4.990  12.018
41436SOL     OW26204   6.691   8.100   0.368
41436SOL    HW126205   6.778   8.138   0.382
41436SOL    HW226206   6.709   8.012   0.335
41437SOL     OW26207   2.926   9.024  13.397
41437SOL    HW126208   2.993   8.967  13.436
41437SOL    HW226209   2.925   9.101  13.453
41438SOL     OW26210   5.223   0.677   8.369
41438SOL    HW126211   5.291   0.698   8.305
41438SOL    HW226212   5.271   0.646   8.446
41439SOL     OW26213   2.025   7.071   0.467
41439SOL    HW126214   2.008   7.005   0.534
41439SOL    HW226215   2.112   7.105   0.488
41440SOL     OW26216  12.301   2.488  14.746
41440SOL    HW126217  12.287   2.475  14.652
41440SOL    HW226218  12.290   2.582  14.759
41441SOL     OW26219   8.738   7.945   3.824
41441SOL    HW126220   8.811   8.004   3.841
41441SOL    HW226221   8.663   7.986   3.866
41442SOL     OW26222   6.818  11.413  13.009
41442SOL    HW126223   6.816  11.476  13.080
41442SOL    HW226224   6.898  11.363  13.023
41443SOL     OW26225   1.525   8.952   2.690
41443SOL    HW126226   1.504   8.920   2.778
41443SOL    HW226227   1.451   8.927   2.636
41444SOL     OW26228  10.023  13.950   3.710
41444SOL    HW126229  10.117  13.933   3.721
41444SOL    HW226230  10.018  14.006   3.633
41445SOL     OW26231  13.933  13.788  14.813
41445SOL    HW126232  13.971  13.825   0.023
41445SOL    HW226233  13.846  13.759  14.840
41446SOL     OW26234  14.448  10.106   4.930
41446SOL    HW126235  14.396  10.184   4.912
41446SOL    HW226236  14.385  10.040   4.958
41447SOL     OW26237   8.927   8.480  13.975
41447SOL    HW126238   8.880   8.506  14.054
41447SOL    HW226239   8.967   8.396  13.996
41448SOL     OW26240   2.604   1.202   3.889
41448SOL    HW126241   2.521   1.162   3.863
41448SOL    HW226242   2.589   1.296   3.878
41449SOL     OW26243   3.563  10.717   2.587
41449SOL    HW126244   3.592  10.680   2.504
41449SOL    HW226245   3.616  10.797   2.598
41450SOL     OW26246  14.413   6.362   6.314
41450SOL    HW126247  14.339   6.405   6.272
41450SOL    HW226248  14.490   6.400   6.272
41451SOL     OW26249   5.746   3.006  13.158
41451SOL    HW126250   5.756   2.927  13.105
41451SOL    HW226251   5.808   3.068  13.119
41452SOL     OW26252   0.575   4.557  14.689
41452SOL    HW126253   0.664   4.530  14.668
41452SOL    HW226254   0.555   4.626  14.625
41453SOL     OW26255   6.414   9.469   7.253
41453SOL    HW126256   6.338   9.473   7.195
41453SOL    HW226257   6.462   9.392   7.223
41454SOL     OW26258   7.256   2.380  13.287
41454SOL    HW126259   7.302   2.388  13.204
41454SOL    HW226260   7.308   2.432  13.349
41455SOL     OW26261   5.588   1.651   9.046
41455SOL    HW126262   5.666   1.682   9.000
41455SOL    HW226263   5.603   1.557   9.058
41456SOL     OW26264   0.397  12.627   1.985
41456SOL    HW126265   0.428  12.718   1.977
41456SOL    HW226266   0.382  12.615   2.079
41457SOL     OW26267   3.994   0.759  12.803
41457SOL    HW126268   3.961   0.732  12.889
41457SOL    HW226269   4.083   0.725  12.800
41458SOL     OW26270  11.112   9.846  13.219
41458SOL    HW126271  11.167   9.919  13.248
41458SOL    HW226272  11.066   9.817  13.298
41459SOL     OW26273   9.751  13.028   4.469
41459SOL    HW126274   9.692  13.037   4.543
41459SOL    HW226275   9.814  13.100   4.479
41460SOL     OW26276  13.893  14.058  11.549
41460SOL    HW126277  13.972  14.004  11.540
41460SOL    HW226278  13.874  14.086  11.460
41461SOL     OW26279   3.663   4.190   3.181
41461SOL    HW126280   3.743   4.182   3.130
41461SOL    HW226281   3.593   4.193   3.116
41462SOL     OW26282   6.937   9.824   2.293
41462SOL    HW126283   7.004   9.882   2.329
41462SOL    HW226284   6.985   9.765   2.234
41463SOL     OW26285  10.068  13.923   1.362
41463SOL    HW126286  10.106  13.994   1.413
41463SOL    HW226287   9.988  13.960   1.325
41464SOL     OW26288  13.314   5.505   3.267
41464SOL    HW126289  13.259   5.445   3.317
41464SOL    HW226290  13.253   5.562   3.222
41465SOL     OW26291  13.653   9.883   1.069
41465SOL    HW126292  13.743   9.870   1.101
41465SOL    HW226293  13.604   9.910   1.146
41466SOL     OW26294   6.441  13.328   0.326
41466SOL    HW126295   6.528  13.369   0.333
41466SOL    HW226296   6.444  13.255   0.387
41467SOL     OW26297  13.186   3.147  12.714
41467SOL    HW126298  13.166   3.217  12.652
41467SOL    HW226299  13.197   3.069  12.659
41468SOL     OW26300  14.852  14.381  12.448
41468SOL    HW126301   0.027  14.464  12.430
41468SOL    HW226302  14.790  14.371  12.376
41469SOL     OW26303  10.393  10.768  11.384
41469SOL    HW126304  10.470  10.724  11.348
41469SOL    HW226305  10.426  10.855  11.409
41470SOL     OW26306   8.842   3.021  13.928
41470SOL    HW126307   8.810   3.050  14.013
41470SOL    HW226308   8.811   3.088  13.866
41471SOL     OW26309   5.357  11.746   2.954
41471SOL    HW126310   5.309  11.792   3.023
41471SOL    HW226311   5.307  11.763   2.874
41472SOL     OW26312   5.368   1.529  12.646
41472SOL    HW126313   5.298   1.498  12.704
41472SOL    HW226314   5.361   1.473  12.569
41473SOL     OW26315  14.333  11.406   4.684
41473SOL    HW126316  14.320  11.330   4.628
41473SOL    HW226317  14.404  11.455   4.642
41474SOL     OW26318  13.805   4.342   0.736
41474SOL    HW126319  13.896   4.312   0.729
41474SOL    HW226320  13.806   4.406   0.807
41475SOL     OW26321  12.324   6.208   4.631
41475SOL    HW126322  12.357   6.263   4.560
41475SOL    HW226323  12.395   6.145   4.648
41476SOL     OW26324  10.883   9.296   4.127
41476SOL    HW126325  10.923   9.209   4.133
41476SOL    HW226326  10.875   9.311   4.033
41477SOL     OW26327  14.320  13.367   0.303
41477SOL    HW126328  14.364  13.439   0.348
41477SOL    HW226329  14.335  13.291   0.358
41478SOL     OW26330   8.983   1.776   6.548
41478SOL    HW126331   8.921   1.824   6.493
41478SOL    HW226332   9.064   1.775   6.498
41479SOL     OW26333   2.293  10.311  13.730
41479SOL    HW126334   2.332  10.352  13.653
41479SOL    HW226335   2.247  10.234  13.696
41480SOL     OW26336   2.993  12.648   8.688
41480SOL    HW126337   2.907  12.613   8.665
41480SOL    HW226338   2.987  12.742   8.669
41481SOL     OW26339   3.175  12.863   3.766
41481SOL    HW126340   3.213  12.948   3.788
41481SOL    HW226341   3.231  12.829   3.697
41482SOL     OW26342   0.199   6.605   8.570
41482SOL    HW126343   0.136   6.670   8.601
41482SOL    HW226344   0.199   6.616   8.475
41483SOL     OW26345   5.652   1.955  14.837
41483SOL    HW126346   5.580   1.906   0.007
41483SOL    HW226347   5.614   2.041  14.818
41484SOL     OW26348  14.707  12.663   0.755
41484SOL    HW126349  14.795  12.628   0.770
41484SOL    HW226350  14.700  12.736   0.817
41485SOL     OW26351  12.719   8.620   1.054
41485SOL    HW126352  12.805   8.580   1.065
41485SOL    HW226353  12.736   8.708   1.020
41486SOL     OW26354  14.637   7.203   0.448
41486SOL    HW126355  14.630   7.150   0.369
41486SOL    HW226356  14.693   7.152   0.507
41487SOL     OW26357  13.409  10.500   2.666
41487SOL    HW126358  13.405  10.456   2.581
41487SOL    HW226359  13.485  10.460   2.710
41488SOL     OW26360   4.042   0.972   8.312
41488SOL    HW126361   4.049   0.923   8.230
41488SOL    HW226362   4.119   1.028   8.313
41489SOL     OW26363  10.998   8.497   6.248
41489SOL    HW126364  11.086   8.473   6.277
41489SOL    HW226365  11.011   8.526   6.157
41490SOL     OW26366  12.318  13.222   6.563
41490SOL    HW126367  12.340  13.130   6.575
41490SOL    HW226368  12.340  13.263   6.646
41491SOL     OW26369  13.151  12.136   9.791
41491SOL    HW126370  13.076  12.095   9.747
41491SOL    HW226371  13.207  12.062   9.815
41492SOL     OW26372  12.024   7.952   4.754
41492SOL    HW126373  11.929   7.957   4.739
41492SOL    HW226374  12.042   7.859   4.766
41493SOL     OW26375   4.596  14.209  12.225
41493SOL    HW126376   4.502  14.222  12.232
41493SOL    HW226377   4.617  14.233  12.135
41494SOL     OW26378  11.597   0.709  14.657
41494SOL    HW126379  11.577   0.617  14.671
41494SOL    HW226380  11.639   0.712  14.571
41495SOL     OW26381  12.790   8.839   4.498
41495SOL    HW126382  12.772   8.763   4.443
41495SOL    HW226383  12.704   8.867   4.529
41496SOL     OW26384   9.038   7.459   0.223
41496SOL    HW126385   8.982   7.457   0.300
41496SOL    HW226386   9.080   7.373   0.221
41497SOL     OW26387   5.002   0.325   3.572
41497SOL    HW126388   5.052   0.400   3.540
41497SOL    HW226389   5.041   0.305   3.657
41498SOL     OW26390   3.081  12.007  13.730
41498SOL    HW126391   2.999  11.969  13.701
41498SOL    HW226392   3.107  11.954  13.805
41499SOL     OW26393  10.086  12.689   7.907
41499SOL    HW126394   9.997  12.663   7.886
41499SOL    HW226395  10.084  12.785   7.909
41500SOL     OW26396   6.969   5.599  14.071
41500SOL    HW126397   6.947   5.574  14.160
41500SOL    HW226398   7.009   5.521  14.033
41501SOL     OW26399   7.072  11.614  14.066
41501SOL    HW126400   7.012  11.597  14.138
41501SOL    HW226401   7.096  11.706  14.075
41502SOL     OW26402   7.118   0.275  10.821
41502SOL    HW126403   7.200   0.324  10.813
41502SOL    HW226404   7.060   0.334  10.869
41503SOL     OW26405  12.650   1.374   0.172
41503SOL    HW126406  12.711   1.447   0.165
41503SOL    HW226407  12.627   1.354   0.081
41504SOL     OW26408  12.642   8.748   4.177
41504SOL    HW126409  12.568   8.802   4.203
41504SOL    HW226410  12.710   8.811   4.150
41505SOL     OW26411   8.526   2.495  10.615
41505SOL    HW126412   8.619   2.499  10.589
41505SOL    HW226413   8.523   2.544  10.698
41506SOL     OW26414   6.393   6.656  14.571
41506SOL    HW126415   6.376   6.742  14.610
41506SOL    HW226416   6.332   6.649  14.498
41507SOL     OW26417  10.290  14.040  14.278
41507SOL    HW126418  10.311  14.120  14.328
41507SOL    HW226419  10.271  13.975  14.345
41508SOL     OW26420   3.096   2.389   6.774
41508SOL    HW126421   3.109   2.301   6.809
41508SOL    HW226422   3.173   2.403   6.718
41509SOL     OW26423  13.278   2.844   7.597
41509SOL    HW126424  13.189   2.858   7.564
41509SOL    HW226425  13.314   2.933   7.606
41510SOL     OW26426   8.973  10.120   6.806
41510SOL    HW126427   9.068  10.117   6.797
41510SOL    HW226428   8.941  10.053   6.745
41511SOL     OW26429   5.568   1.883   5.807
41511SOL    HW126430   5.588   1.793   5.833
41511SOL    HW226431   5.472   1.888   5.810
41512SOL     OW26432   8.804   4.078   2.806
41512SOL    HW126433   8.882   4.042   2.847
41512SOL    HW226434   8.744   4.003   2.799
41513SOL     OW26435   2.403  12.274   4.534
41513SOL    HW126436   2.353  12.342   4.487
41513SOL    HW226437   2.423  12.209   4.467
41514SOL     OW26438   0.257  13.538   6.872
41514SOL    HW126439   0.274  13.592   6.949
41514SOL    HW226440   0.163  13.522   6.873
41515SOL     OW26441  14.249   5.690   4.072
41515SOL    HW126442  14.203   5.609   4.052
41515SOL    HW226443  14.341   5.671   4.053
41516SOL     OW26444   5.230   8.810  12.723
41516SOL    HW126445   5.141   8.787  12.696
41516SOL    HW226446   5.285   8.780  12.650
41517SOL     OW26447   9.063   8.276   4.953
41517SOL    HW126448   8.994   8.210   4.942
41517SOL    HW226449   9.117   8.242   5.025
41518SOL     OW26450   6.446   7.504   2.663
41518SOL    HW126451   6.386   7.478   2.594
41518SOL    HW226452   6.533   7.487   2.627
41519SOL     OW26453   4.257   2.432  13.868
41519SOL    HW126454   4.335   2.377  13.875
41519SOL    HW226455   4.190   2.385  13.917
41520SOL     OW26456  12.636   0.524   1.608
41520SOL    HW126457  12.692   0.592   1.570
41520SOL    HW226458  12.687   0.491   1.683
41521SOL     OW26459   4.484   8.369  13.839
41521SOL    HW126460   4.535   8.288  13.845
41521SOL    HW226461   4.546   8.435  13.808
41522SOL     OW26462   6.580   9.215   8.229
41522SOL    HW126463   6.646   9.281   8.209
41522SOL    HW226464   6.558   9.231   8.321
41523SOL     OW26465   6.366   7.512   8.440
41523SOL    HW126466   6.421   7.434   8.451
41523SOL    HW226467   6.428   7.585   8.437
41524SOL     OW26468   2.536   6.242  14.705
41524SOL    HW126469   2.470   6.306  14.734
41524SOL    HW226470   2.531   6.172  14.769
41525SOL     OW26471   7.924  13.705   9.994
41525SOL    HW126472   7.961  13.667  10.074
41525SOL    HW226473   7.843  13.655   9.979
41526SOL     OW26474   6.038   0.972  12.239
41526SOL    HW126475   5.950   0.981  12.276
41526SOL    HW226476   6.026   0.972  12.145
41527SOL     OW26477   0.642  13.218  14.539
41527SOL    HW126478   0.699  13.176  14.604
41527SOL    HW226479   0.660  13.311  14.549
41528SOL     OW26480  13.789   3.859   8.556
41528SOL    HW126481  13.738   3.893   8.630
41528SOL    HW226482  13.836   3.936   8.523
41529SOL     OW26483   6.076   3.713   4.150
41529SOL    HW126484   6.031   3.635   4.183
41529SOL    HW226485   6.058   3.714   4.056
41530SOL     OW26486   7.430  13.356   3.243
41530SOL    HW126487   7.350  13.336   3.193
41530SOL    HW226488   7.499  13.360   3.176
41531SOL     OW26489  13.026   0.573   0.741
41531SOL    HW126490  13.105   0.524   0.760
41531SOL    HW226491  13.035   0.597   0.649
41532SOL     OW26492  10.209  13.557  11.530
41532SOL    HW126493  10.282  13.603  11.488
41532SOL    HW226494  10.131  13.588  11.484
41533SOL     OW26495   3.025   9.625   8.739
41533SOL    HW126496   3.026   9.574   8.820
41533SOL    HW226497   3.004   9.714   8.767
41534SOL     OW26498   3.766   6.571   8.790
41534SOL    HW126499   3.861   6.575   8.790
41534SOL    HW226500   3.745   6.507   8.858
41535SOL     OW26501   9.564   8.696   8.977
41535SOL    HW126502   9.634   8.696   8.911
41535SOL    HW226503   9.484   8.711   8.928
41536SOL     OW26504   0.052   2.343   7.770
41536SOL    HW126505   0.048   2.304   7.682
41536SOL    HW226506  14.868   2.422   7.763
41537SOL     OW26507  11.987   0.204   1.478
41537SOL    HW126508  11.957   0.114   1.489
41537SOL    HW226509  12.056   0.198   1.413
41538SOL     OW26510   7.421   3.765   7.652
41538SOL    HW126511   7.479   3.837   7.677
41538SOL    HW226512   7.396   3.785   7.562
41539SOL     OW26513   8.140   7.572   1.032
41539SOL    HW126514   8.115   7.481   1.019
41539SOL    HW226515   8.091   7.620   0.965
41540SOL     OW26516   8.794   3.423  12.086
41540SOL    HW126517   8.771   3.469  12.005
41540SOL    HW226518   8.747   3.340  12.081
41541SOL     OW26519   0.679   4.961  11.603
41541SOL    HW126520   0.760   5.005  11.579
41541SOL    HW226521   0.662   4.990  11.693
41542SOL     OW26522   6.575  14.696   8.956
41542SOL    HW126523   6.486  14.728   8.968
41542SOL    HW226524   6.580  14.671   8.864
41543SOL     OW26525   0.688   4.603   4.314
41543SOL    HW126526   0.717   4.664   4.382
41543SOL    HW226527   0.595   4.623   4.302
41544SOL     OW26528   0.878   6.933   9.979
41544SOL    HW126529   0.917   7.008   9.933
41544SOL    HW226530   0.847   6.876   9.909
41545SOL     OW26531   9.730  11.022   3.382
41545SOL    HW126532   9.752  11.001   3.291
41545SOL    HW226533   9.815  11.045   3.422
41546SOL     OW26534  13.463   1.308   2.282
41546SOL    HW126535  13.452   1.305   2.377
41546SOL    HW226536  13.551   1.275   2.267
41547SOL     OW26537   7.281   7.883  12.487
41547SOL    HW126538   7.337   7.818  12.528
41547SOL    HW226539   7.337   7.926  12.422
41548SOL     OW26540   3.888  13.511  12.179
41548SOL    HW126541   3.915  13.422  12.202
41548SOL    HW226542   3.941  13.534  12.103
41549SOL     OW26543   3.040  13.992   7.470
41549SOL    HW126544   2.969  14.029   7.522
41549SOL    HW226545   3.022  13.898   7.469
41550SOL     OW26546   5.834   9.770   1.778
41550SOL    HW126547   5.920   9.729   1.783
41550SOL    HW226548   5.852   9.863   1.767
41551SOL     OW26549   8.665  12.828   0.511
41551SOL    HW126550   8.593  12.864   0.562
41551SOL    HW226551   8.725  12.901   0.497
41552SOL     OW26552   6.532  10.667   8.520
41552SOL    HW126553   6.539  10.750   8.567
41552SOL    HW226554   6.485  10.609   8.580
41553SOL     OW26555   1.203  14.840  13.706
41553SOL    HW126556   1.272  14.868  13.646
41553SOL    HW226557   1.226  14.750  13.728
41554SOL     OW26558   9.968   0.523  11.314
41554SOL    HW126559   9.877   0.494  11.304
41554SOL    HW226560   9.967   0.574  11.396
41555SOL     OW26561  14.097   0.459  13.886
41555SOL    HW126562  14.043   0.471  13.807
41555SOL    HW226563  14.154   0.535  13.889
41556SOL     OW26564   5.451   4.222   4.412
41556SOL    HW126565   5.486   4.188   4.329
41556SOL    HW226566   5.529   4.240   4.465
41557SOL     OW26567   5.500   7.098   1.304
41557SOL    HW126568   5.568   7.162   1.285
41557SOL    HW226569   5.454   7.133   1.380
41558SOL     OW26570   1.415   4.546   1.390
41558SOL    HW126571   1.499   4.587   1.366
41558SOL    HW226572   1.355   4.620   1.399
41559SOL     OW26573   8.843   8.915   2.644
41559SOL    HW126574   8.772   8.977   2.663
41559SOL    HW226575   8.910   8.935   2.709
41560SOL     OW26576   0.487   0.929   2.041
41560SOL    HW126577   0.559   0.983   2.074
41560SOL    HW226578   0.421   0.992   2.014
41561SOL     OW26579  13.850   0.072   1.590
41561SOL    HW126580  13.772   0.084   1.536
41561SOL    HW226581  13.817   0.056   1.678
41562SOL     OW26582   2.251   1.710   2.706
41562SOL    HW126583   2.229   1.677   2.619
41562SOL    HW226584   2.312   1.645   2.742
41563SOL     OW26585   4.233   7.444   6.049
41563SOL    HW126586   4.273   7.433   6.135
41563SOL    HW226587   4.166   7.511   6.062
41564SOL     OW26588  12.337   1.067   7.761
41564SOL    HW126589  12.408   1.050   7.699
41564SOL    HW226590  12.260   1.026   7.722
41565SOL     OW26591   4.581   3.653   8.051
41565SOL    HW126592   4.528   3.670   7.973
41565SOL    HW226593   4.518   3.624   8.116
41566SOL     OW26594  11.544  10.351   0.874
41566SOL    HW126595  11.539  10.309   0.960
41566SOL    HW226596  11.637  10.351   0.853
41567SOL     OW26597  10.495  11.262   6.964
41567SOL    HW126598  10.507  11.184   7.019
41567SOL    HW226599  10.407  11.253   6.928
41568SOL     OW26600  14.488  12.615  12.042
41568SOL    HW126601  14.425  12.621  12.113
41568SOL    HW226602  14.535  12.534  12.059
41569SOL     OW26603  11.594   2.582   4.811
41569SOL    HW126604  11.618   2.531   4.734
41569SOL    HW226605  11.511   2.624   4.788
41570SOL     OW26606   6.493   6.914   3.595
41570SOL    HW126607   6.540   6.844   3.549
41570SOL    HW226608   6.406   6.878   3.610
41571SOL     OW26609  13.937   0.656  13.582
41571SOL    HW126610  13.983   0.648  13.498
41571SOL    HW226611  13.973   0.735  13.621
41572SOL     OW26612   2.892   1.012  10.696
41572SOL    HW126613   2.837   0.982  10.624
41572SOL    HW226614   2.944   0.935  10.720
41573SOL     OW26615   9.873   7.240   6.431
41573SOL    HW126616   9.941   7.305   6.448
41573SOL    HW226617   9.803   7.261   6.494
41574SOL     OW26618   2.154   6.704   7.571
41574SOL    HW126619   2.137   6.769   7.639
41574SOL    HW226620   2.107   6.737   7.494
41575SOL     OW26621   8.233   7.939  12.510
41575SOL    HW126622   8.291   7.863  12.519
41575SOL    HW226623   8.146   7.906  12.530
41576SOL     OW26624  11.424   6.164   8.721
41576SOL    HW126625  11.457   6.253   8.709
41576SOL    HW226626  11.501   6.108   8.706
41577SOL     OW26627   6.993  13.512   7.976
41577SOL    HW126628   6.986  13.555   7.890
41577SOL    HW226629   7.082  13.477   7.978
41578SOL     OW26630  11.100   5.993   4.599
41578SOL    HW126631  11.059   6.000   4.685
41578SOL    HW226632  11.099   6.082   4.564
41579SOL     OW26633  12.422  10.763  13.688
41579SOL    HW126634  12.413  10.732  13.598
41579SOL    HW226635  12.353  10.718  13.736
41580SOL     OW26636  13.608  11.148   2.391
41580SOL    HW126637  13.687  11.126   2.342
41580SOL    HW226638  13.626  11.118   2.480
41581SOL     OW26639   4.108   8.422  13.382
41581SOL    HW126640   4.153   8.506  13.375
41581SOL    HW226641   4.115   8.383  13.294
41582SOL     OW26642   8.576  10.276   0.179
41582SOL    HW126643   8.572  10.194   0.229
41582SOL    HW226644   8.664  10.277   0.143
41583SOL     OW26645  12.248   3.005   0.103
41583SOL    HW126646  12.319   2.970   0.050
41583SOL    HW226647  12.254   2.959   0.187
41584SOL     OW26648   2.477  10.091   5.599
41584SOL    HW126649   2.525  10.171   5.622
41584SOL    HW226650   2.448  10.057   5.684
41585SOL     OW26651   1.255   5.727   0.463
41585SOL    HW126652   1.276   5.640   0.496
41585SOL    HW226653   1.302   5.787   0.522
41586SOL     OW26654   8.258   8.563   6.788
41586SOL    HW126655   8.175   8.606   6.767
41586SOL    HW226656   8.270   8.499   6.718
41587SOL     OW26657   9.665  12.108   9.064
41587SOL    HW126658   9.614  12.058   9.127
41587SOL    HW226659   9.736  12.050   9.038
41588SOL     OW26660  10.220  13.437  12.107
41588SOL    HW126661  10.164  13.409  12.179
41588SOL    HW226662  10.309  13.416  12.137
41589SOL     OW26663   1.731   1.777   8.242
41589SOL    HW126664   1.645   1.739   8.263
41589SOL    HW226665   1.762   1.813   8.325
41590SOL     OW26666   9.547  14.173   3.176
41590SOL    HW126667   9.643  14.175   3.169
41590SOL    HW226668   9.522  14.090   3.136
41591SOL     OW26669   9.326   8.328  13.138
41591SOL    HW126670   9.330   8.351  13.045
41591SOL    HW226671   9.413   8.294  13.158
41592SOL     OW26672   2.628   6.846  13.795
41592SOL    HW126673   2.599   6.867  13.884
41592SOL    HW226674   2.723   6.841  13.801
41593SOL     OW26675   1.075   9.916   6.590
41593SOL    HW126676   1.003   9.934   6.650
41593SOL    HW226677   1.135   9.991   6.599
41594SOL     OW26678  11.010   5.320   7.516
41594SOL    HW126679  10.986   5.373   7.591
41594SOL    HW226680  11.039   5.383   7.450
41595SOL     OW26681   1.854  13.469   3.134
41595SOL    HW126682   1.816  13.515   3.209
41595SOL    HW226683   1.809  13.385   3.133
41596SOL     OW26684   1.278   8.258   9.287
41596SOL    HW126685   1.363   8.217   9.267
41596SOL    HW226686   1.229   8.189   9.333
41597SOL     OW26687   8.544   1.605  10.266
41597SOL    HW126688   8.449   1.597  10.255
41597SOL    HW226689   8.581   1.559  10.191
41598SOL     OW26690   6.715  10.115   0.757
41598SOL    HW126691   6.748  10.147   0.673
41598SOL    HW226692   6.792  10.111   0.813
41599SOL     OW26693  14.357   4.469   4.065
41599SOL    HW126694  14.313   4.486   4.149
41599SOL    HW226695  14.441   4.429   4.089
41600SOL     OW26696   1.591   4.462   8.635
41600SOL    HW126697   1.574   4.368   8.646
41600SOL    HW226698   1.521   4.505   8.683
41601SOL     OW26699  11.360   8.897   6.991
41601SOL    HW126700  11.325   8.985   7.006
41601SOL    HW226701  11.282   8.842   6.978
41602SOL     OW26702  13.622  14.340  10.553
41602SOL    HW126703  13.589  14.254  10.530
41602SOL    HW226704  13.608  14.348  10.647
41603SOL     OW26705   0.818   1.393   2.720
41603SOL    HW126706   0.747   1.353   2.668
41603SOL    HW226707   0.884   1.324   2.726
41604SOL     OW26708   3.404  11.582   4.793
41604SOL    HW126709   3.453  11.502   4.774
41604SOL    HW226710   3.400  11.628   4.710
41605SOL     OW26711   5.743   6.635  14.187
41605SOL    HW126712   5.803   6.630  14.262
41605SOL    HW226713   5.659   6.604  14.220
41606SOL     OW26714  13.859   9.300  11.407
41606SOL    HW126715  13.824   9.231  11.350
41606SOL    HW226716  13.786   9.322  11.465
41607SOL     OW26717   5.256  10.596   5.662
41607SOL    HW126718   5.186  10.655   5.690
41607SOL    HW226719   5.213  10.511   5.650
41608SOL     OW26720   9.262  12.920  12.285
41608SOL    HW126721   9.171  12.947  12.272
41608SOL    HW226722   9.301  12.993  12.333
41609SOL     OW26723  14.042  12.158   7.883
41609SOL    HW126724  14.092  12.211   7.945
41609SOL    HW226725  14.073  12.068   7.896
41610SOL     OW26726   7.770   5.971  13.163
41610SOL    HW126727   7.708   6.041  13.144
41610SOL    HW226728   7.849   6.016  13.195
41611SOL     OW26729   3.918   1.347  14.672
41611SOL    HW126730   3.982   1.418  14.672
41611SOL    HW226731   3.859   1.368  14.744
41612SOL     OW26732  14.146   5.375  10.025
41612SOL    HW126733  14.222   5.396  10.079
41612SOL    HW226734  14.173   5.395   9.935
41613SOL     OW26735  10.992   6.317   9.218
41613SOL    HW126736  10.929   6.274   9.160
41613SOL    HW226737  10.971   6.283   9.305
41614SOL     OW26738   4.729  12.730  10.892
41614SOL    HW126739   4.703  12.822  10.884
41614SOL    HW226740   4.824  12.731  10.884
41615SOL     OW26741   4.049  11.205   5.777
41615SOL    HW126742   3.958  11.222   5.802
41615SOL    HW226743   4.064  11.114   5.803
41616SOL     OW26744   7.640   9.021   1.071
41616SOL    HW126745   7.632   9.004   1.165
41616SOL    HW226746   7.734   9.017   1.053
41617SOL     OW26747  14.422  13.895  10.044
41617SOL    HW126748  14.481  13.899   9.969
41617SOL    HW226749  14.398  13.986  10.061
41618SOL     OW26750   6.594  12.313   7.967
41618SOL    HW126751   6.618  12.390   8.019
41618SOL    HW226752   6.563  12.250   8.031
41619SOL     OW26753  13.463   2.616  13.710
41619SOL    HW126754  13.461   2.709  13.730
41619SOL    HW226755  13.403   2.576  13.773
41620SOL     OW26756   4.142   5.889   6.505
41620SOL    HW126757   4.126   5.907   6.412
41620SOL    HW226758   4.148   5.794   6.510
41621SOL     OW26759  12.370   3.229   3.682
41621SOL    HW126760  12.408   3.163   3.625
41621SOL    HW226761  12.359   3.306   3.627
41622SOL     OW26762   2.173   0.082  13.687
41622SOL    HW126763   2.258   0.104  13.651
41622SOL    HW226764   2.141   0.164  13.725
41623SOL     OW26765   8.155   2.491   5.500
41623SOL    HW126766   8.100   2.471   5.576
41623SOL    HW226767   8.242   2.509   5.538
41624SOL     OW26768   9.782   7.898   3.773
41624SOL    HW126769   9.745   7.907   3.861
41624SOL    HW226770   9.864   7.946   3.776
41625SOL     OW26771   7.773   2.403   4.877
41625SOL    HW126772   7.698   2.344   4.871
41625SOL    HW226773   7.738   2.483   4.915
41626SOL     OW26774   6.909  11.496  12.353
41626SOL    HW126775   6.850  11.459  12.288
41626SOL    HW226776   6.857  11.565  12.395
41627SOL     OW26777  10.473   1.584   8.339
41627SOL    HW126778  10.400   1.524   8.324
41627SOL    HW226779  10.541   1.554   8.279
41628SOL     OW26780   1.669   6.456   7.821
41628SOL    HW126781   1.603   6.518   7.789
41628SOL    HW226782   1.714   6.426   7.742
41629SOL     OW26783   5.688   2.389   7.749
41629SOL    HW126784   5.658   2.320   7.690
41629SOL    HW226785   5.772   2.356   7.783
41630SOL     OW26786   5.757  14.621  12.036
41630SOL    HW126787   5.806  14.597  11.957
41630SOL    HW226788   5.790  14.707  12.059
41631SOL     OW26789  13.567   1.807   0.926
41631SOL    HW126790  13.511   1.779   0.999
41631SOL    HW226791  13.517   1.784   0.848
41632SOL     OW26792   3.901  12.614   5.245
41632SOL    HW126793   3.931  12.543   5.302
41632SOL    HW226794   3.809  12.593   5.228
41633SOL     OW26795  14.230   1.901   6.963
41633SOL    HW126796  14.198   1.902   7.053
41633SOL    HW226797  14.228   1.809   6.937
41634SOL     OW26798   8.914   1.539   7.798
41634SOL    HW126799   8.820   1.552   7.813
41634SOL    HW226800   8.918   1.464   7.739
41635SOL     OW26801   8.669  13.947  10.149
41635SOL    HW126802   8.669  14.027  10.096
41635SOL    HW226803   8.752  13.905  10.129
41636SOL     OW26804   3.681   4.313   8.872
41636SOL    HW126805   3.775   4.303   8.856
41636SOL    HW226806   3.641   4.236   8.833
41637SOL     OW26807   6.537  10.924   5.089
41637SOL    HW126808   6.539  11.017   5.112
41637SOL    HW226809   6.599  10.883   5.149
41638SOL     OW26810   9.133   4.274  11.723
41638SOL    HW126811   9.150   4.180  11.720
41638SOL    HW226812   9.061   4.283  11.785
41639SOL     OW26813   0.787   4.635   7.263
41639SOL    HW126814   0.756   4.725   7.250
41639SOL    HW226815   0.771   4.592   7.179
41640SOL     OW26816  13.216   8.083  11.615
41640SOL    HW126817  13.209   8.176  11.594
41640SOL    HW226818  13.220   8.040  11.530
41641SOL     OW26819   4.102   9.164  13.333
41641SOL    HW126820   4.027   9.130  13.284
41641SOL    HW226821   4.125   9.246  13.288
41642SOL     OW26822   8.504   5.263  11.097
41642SOL    HW126823   8.593   5.231  11.079
41642SOL    HW226824   8.455   5.185  11.121
41643SOL     OW26825   1.665   3.542   8.234
41643SOL    HW126826   1.732   3.545   8.165
41643SOL    HW226827   1.714   3.552   8.315
41644SOL     OW26828   4.376  11.961   3.593
41644SOL    HW126829   4.426  12.015   3.656
41644SOL    HW226830   4.291  11.948   3.635
41645SOL     OW26831  13.649  10.486   4.287
41645SOL    HW126832  13.646  10.508   4.381
41645SOL    HW226833  13.735  10.515   4.258
41646SOL     OW26834   1.797  12.898   3.922
41646SOL    HW126835   1.771  12.947   3.999
41646SOL    HW226836   1.892  12.887   3.931
41647SOL     OW26837   9.171   0.461  10.674
41647SOL    HW126838   9.183   0.492  10.764
41647SOL    HW226839   9.145   0.369  10.683
41648SOL     OW26840   6.709   0.316   5.082
41648SOL    HW126841   6.796   0.345   5.055
41648SOL    HW226842   6.719   0.222   5.099
41649SOL     OW26843  12.709  12.364   1.537
41649SOL    HW126844  12.640  12.419   1.572
41649SOL    HW226845  12.743  12.316   1.613
41650SOL     OW26846   4.744   3.505  10.405
41650SOL    HW126847   4.655   3.469  10.403
41650SOL    HW226848   4.732   3.598  10.420
41651SOL     OW26849   2.536   7.183  14.290
41651SOL    HW126850   2.516   7.277  14.296
41651SOL    HW226851   2.584   7.173  14.208
41652SOL     OW26852   3.769   4.550  14.632
41652SOL    HW126853   3.864   4.562  14.642
41652SOL    HW226854   3.756   4.456  14.639
41653SOL     OW26855  12.834   4.371   7.519
41653SOL    HW126856  12.776   4.295   7.526
41653SOL    HW226857  12.879   4.359   7.436
41654SOL     OW26858   3.874  12.698   7.936
41654SOL    HW126859   3.819  12.715   8.012
41654SOL    HW226860   3.941  12.766   7.939
41655SOL     OW26861   1.400  11.973  14.402
41655SOL    HW126862   1.486  12.012  14.388
41655SOL    HW226863   1.393  11.905  14.334
41656SOL     OW26864   8.631  11.831   6.942
41656SOL    HW126865   8.716  11.865   6.913
41656SOL    HW226866   8.579  11.910   6.958
41657SOL     OW26867   6.241   7.064   3.051
41657SOL    HW126868   6.150   7.034   3.044
41657SOL    HW226869   6.260   7.059   3.145
41658SOL     OW26870   0.599  13.592   1.320
41658SOL    HW126871   0.594  13.566   1.412
41658SOL    HW226872   0.670  13.657   1.318
41659SOL     OW26873   8.073   7.332   2.309
41659SOL    HW126874   8.012   7.392   2.267
41659SOL    HW226875   8.096   7.375   2.392
41660SOL     OW26876  10.828   1.243   0.438
41660SOL    HW126877  10.827   1.235   0.343
41660SOL    HW226878  10.893   1.310   0.456
41661SOL     OW26879  11.025   9.543   4.604
41661SOL    HW126880  10.980   9.464   4.576
41661SOL    HW226881  11.052   9.586   4.523
41662SOL     OW26882  11.821   8.223   5.217
41662SOL    HW126883  11.876   8.290   5.175
41662SOL    HW226884  11.818   8.151   5.153
41663SOL     OW26885  11.674   9.245   6.415
41663SOL    HW126886  11.609   9.176   6.426
41663SOL    HW226887  11.675   9.291   6.499
41664SOL     OW26888  12.334  12.890   1.257
41664SOL    HW126889  12.273  12.826   1.222
41664SOL    HW226890  12.382  12.842   1.326
41665SOL     OW26891   7.411  10.238   0.417
41665SOL    HW126892   7.362  10.191   0.349
41665SOL    HW226893   7.502  10.235   0.388
41666SOL     OW26894   4.002   8.453   1.062
41666SOL    HW126895   4.021   8.411   1.146
41666SOL    HW226896   4.008   8.546   1.079
41667SOL     OW26897  14.467   3.576   2.200
41667SOL    HW126898  14.419   3.646   2.156
41667SOL    HW226899  14.398   3.522   2.240
41668SOL     OW26900   9.866  10.936   2.013
41668SOL    HW126901   9.772  10.952   2.024
41668SOL    HW226902   9.870  10.865   1.949
41669SOL     OW26903   0.141   2.041   0.568
41669SOL    HW126904   0.226   2.082   0.583
41669SOL    HW226905   0.119   1.999   0.651
41670SOL     OW26906  13.427  13.077   1.210
41670SOL    HW126907  13.475  13.103   1.132
41670SOL    HW226908  13.471  12.998   1.240
41671SOL     OW26909   4.479  10.671  12.551
41671SOL    HW126910   4.504  10.594  12.602
41671SOL    HW226911   4.388  10.654  12.525
41672SOL     OW26912   0.086   5.921   7.289
41672SOL    HW126913   0.110   5.914   7.197
41672SOL    HW226914   0.089   6.015   7.308
41673SOL     OW26915   3.432   6.126   3.815
41673SOL    HW126916   3.472   6.172   3.741
41673SOL    HW226917   3.347   6.169   3.826
41674SOL     OW26918  13.292  12.698   1.232
41674SOL    HW126919  13.317  12.610   1.204
41674SOL    HW226920  13.304  12.753   1.155
41675SOL     OW26921   2.416   6.453   3.272
41675SOL    HW126922   2.509   6.472   3.283
41675SOL    HW226923   2.394   6.397   3.346
41676SOL     OW26924  12.023   3.441   3.988
41676SOL    HW126925  11.940   3.469   4.026
41676SOL    HW226926  12.036   3.352   4.021
41677SOL     OW26927  12.866   0.405  10.472
41677SOL    HW126928  12.925   0.480  10.474
41677SOL    HW226929  12.792   0.435  10.418
41678SOL     OW26930  13.183   2.677   3.127
41678SOL    HW126931  13.277   2.687   3.144
41678SOL    HW226932  13.159   2.756   3.079
41679SOL     OW26933   4.371   6.789  12.016
41679SOL    HW126934   4.385   6.882  12.036
41679SOL    HW226935   4.342   6.789  11.925
41680SOL     OW26936  11.579   7.924   9.924
41680SOL    HW126937  11.601   7.853   9.985
41680SOL    HW226938  11.483   7.923   9.920
41681SOL     OW26939   2.176   7.349   8.887
41681SOL    HW126940   2.106   7.320   8.830
41681SOL    HW226941   2.223   7.415   8.836
41682SOL     OW26942   0.247   3.371  11.346
41682SOL    HW126943   0.229   3.464  11.361
41682SOL    HW226944   0.197   3.326  11.414
41683SOL     OW26945   1.013  13.782   5.602
41683SOL    HW126946   0.995  13.756   5.692
41683SOL    HW226947   0.934  13.757   5.554
41684SOL     OW26948   7.091  11.020   4.604
41684SOL    HW126949   7.035  11.085   4.648
41684SOL    HW226950   7.127  11.067   4.529
41685SOL     OW26951   4.552   0.778  14.497
41685SOL    HW126952   4.552   0.856  14.441
41685SOL    HW226953   4.469   0.783  14.545
41686SOL     OW26954   7.414   9.064   9.510
41686SOL    HW126955   7.461   8.983   9.530
41686SOL    HW226956   7.418   9.072   9.415
41687SOL     OW26957  10.838   9.112   5.466
41687SOL    HW126958  10.785   9.172   5.519
41687SOL    HW226959  10.918   9.099   5.516
41688SOL     OW26960   1.760  14.200   2.678
41688SOL    HW126961   1.756  14.210   2.773
41688SOL    HW226962   1.809  14.118   2.664
41689SOL     OW26963   9.059   8.692   7.624
41689SOL    HW126964   9.002   8.769   7.632
41689SOL    HW226965   9.020   8.627   7.681
41690SOL     OW26966   4.562   2.903  11.235
41690SOL    HW126967   4.566   2.808  11.237
41690SOL    HW226968   4.561   2.929  11.327
41691SOL     OW26969   6.322   5.985   6.299
41691SOL    HW126970   6.333   6.079   6.287
41691SOL    HW226971   6.391   5.960   6.360
41692SOL     OW26972  10.381   0.176   3.164
41692SOL    HW126973  10.286   0.174   3.159
41692SOL    HW226974  10.404   0.268   3.150
41693SOL     OW26975  13.987  14.775   2.430
41693SOL    HW126976  14.041  14.850   2.407
41693SOL    HW226977  13.933  14.805   2.502
41694SOL     OW26978  12.880   8.619   0.144
41694SOL    HW126979  12.830   8.640   0.065
41694SOL    HW226980  12.909   8.528   0.130
41695SOL     OW26981  12.516   8.557  14.676
41695SOL    HW126982  12.512   8.653  14.681
41695SOL    HW226983  12.436   8.532  14.630
41696SOL     OW26984   5.227   5.433  10.644
41696SOL    HW126985   5.142   5.429  10.601
41696SOL    HW226986   5.285   5.473  10.580
41697SOL     OW26987   8.553   0.717   2.420
41697SOL    HW126988   8.620   0.658   2.388
41697SOL    HW226989   8.471   0.667   2.415
41698SOL     OW26990  10.314   3.622   2.087
41698SOL    HW126991  10.349   3.584   2.007
41698SOL    HW226992  10.383   3.680   2.119
41699SOL     OW26993   4.201   5.363  11.333
41699SOL    HW126994   4.243   5.444  11.306
41699SOL    HW226995   4.141   5.342  11.261
41700SOL     OW26996   0.336   9.273   7.502
41700SOL    HW126997   0.409   9.216   7.477
41700SOL    HW226998   0.267   9.212   7.530
41701SOL     OW26999   4.121   2.633   5.886
41701SOL    HW127000   4.160   2.548   5.866
41701SOL    HW227001   4.076   2.619   5.970
41702SOL     OW27002   8.902  12.529   1.233
41702SOL    HW127003   8.856  12.609   1.207
41702SOL    HW227004   8.993  12.543   1.206
41703SOL     OW27005   8.489   3.654   3.484
41703SOL    HW127006   8.579   3.683   3.468
41703SOL    HW227007   8.435   3.726   3.453
41704SOL     OW27008   1.183  13.684   5.408
41704SOL    HW127009   1.254  13.672   5.470
41704SOL    HW227010   1.116  13.733   5.456
41705SOL     OW27011  13.230  14.868   0.150
41705SOL    HW127012  13.210   0.059   0.079
41705SOL    HW227013  13.269   0.053   0.218
41706SOL     OW27014   6.978   1.499   5.981
41706SOL    HW127015   7.002   1.407   5.990
41706SOL    HW227016   6.938   1.522   6.064
41707SOL     OW27017  10.827  14.464   8.928
41707SOL    HW127018  10.833  14.474   8.833
41707SOL    HW227019  10.736  14.442   8.944
41708SOL     OW27020   4.741   6.475  11.431
41708SOL    HW127021   4.802   6.508  11.365
41708SOL    HW227022   4.797   6.446  11.503
41709SOL     OW27023   0.029  13.826  14.102
41709SOL    HW127024  14.816  13.809  14.057
41709SOL    HW227025   0.015  13.792  14.191
41710SOL     OW27026   4.926   5.273   0.747
41710SOL    HW127027   4.883   5.234   0.671
41710SOL    HW227028   4.955   5.199   0.799
41711SOL     OW27029   7.947   9.916   7.878
41711SOL    HW127030   7.937  10.008   7.852
41711SOL    HW227031   8.041   9.904   7.892
41712SOL     OW27032   5.288   7.506   2.809
41712SOL    HW127033   5.295   7.599   2.788
41712SOL    HW227034   5.345   7.494   2.885
41713SOL     OW27035   0.613   6.203   9.010
41713SOL    HW127036   0.544   6.261   8.978
41713SOL    HW227037   0.681   6.207   8.942
41714SOL     OW27038  10.818  12.471  14.642
41714SOL    HW127039  10.876  12.448  14.570
41714SOL    HW227040  10.777  12.553  14.615
41715SOL     OW27041   3.389   9.856   7.145
41715SOL    HW127042   3.422   9.849   7.055
41715SOL    HW227043   3.392   9.950   7.163
41716SOL     OW27044  13.492   3.649   4.765
41716SOL    HW127045  13.449   3.732   4.786
41716SOL    HW227046  13.500   3.604   4.849
41717SOL     OW27047   5.190  12.406   3.867
41717SOL    HW127048   5.098  12.392   3.889
41717SOL    HW227049   5.216  12.481   3.921
41718SOL     OW27050  11.953   4.336  14.134
41718SOL    HW127051  11.902   4.334  14.215
41718SOL    HW227052  12.014   4.262  14.143
41719SOL     OW27053   6.917  13.016   5.726
41719SOL    HW127054   6.931  12.958   5.651
41719SOL    HW227055   6.868  12.964   5.789
41720SOL     OW27056  10.828   3.505  12.627
41720SOL    HW127057  10.808   3.487  12.719
41720SOL    HW227058  10.794   3.593  12.613
41721SOL     OW27059   0.939   0.773   8.061
41721SOL    HW127060   0.856   0.741   8.096
41721SOL    HW227061   0.929   0.765   7.966
41722SOL     OW27062   6.993  10.783   1.552
41722SOL    HW127063   6.957  10.696   1.534
41722SOL    HW227064   6.942  10.842   1.495
41723SOL     OW27065   4.744   3.595   2.099
41723SOL    HW127066   4.686   3.636   2.164
41723SOL    HW227067   4.812   3.661   2.083
41724SOL     OW27068  11.069   6.611   3.995
41724SOL    HW127069  11.059   6.546   3.926
41724SOL    HW227070  11.095   6.561   4.072
41725SOL     OW27071   3.048   2.836   0.595
41725SOL    HW127072   3.053   2.794   0.509
41725SOL    HW227073   3.137   2.828   0.630
41726SOL     OW27074   6.009   3.561   4.795
41726SOL    HW127075   6.105   3.563   4.792
41726SOL    HW227076   5.983   3.653   4.800
41727SOL     OW27077   1.772   9.913  11.164
41727SOL    HW127078   1.734   9.886  11.248
41727SOL    HW227079   1.865   9.895  11.173
41728SOL     OW27080   0.493   7.656  13.002
41728SOL    HW127081   0.528   7.659  13.091
41728SOL    HW227082   0.551   7.596  12.955
41729SOL     OW27083  13.277  14.086   1.326
41729SOL    HW127084  13.329  14.007   1.332
41729SOL    HW227085  13.245  14.101   1.415
41730SOL     OW27086   6.238  12.658  14.218
41730SOL    HW127087   6.309  12.719  14.240
41730SOL    HW227088   6.169  12.714  14.182
41731SOL     OW27089   9.152   2.521   7.870
41731SOL    HW127090   9.194   2.602   7.843
41731SOL    HW227091   9.157   2.522   7.966
41732SOL     OW27092   2.248   5.145   7.270
41732SOL    HW127093   2.243   5.091   7.191
41732SOL    HW227094   2.253   5.235   7.238
41733SOL     OW27095   5.543  12.282   2.324
41733SOL    HW127096   5.512  12.207   2.273
41733SOL    HW227097   5.545  12.249   2.414
41734SOL     OW27098  10.983   8.571  11.219
41734SOL    HW127099  10.923   8.625  11.269
41734SOL    HW227100  10.959   8.588  11.127
41735SOL     OW27101  12.004  11.854  10.612
41735SOL    HW127102  12.029  11.830  10.701
41735SOL    HW227103  12.060  11.800  10.556
41736SOL     OW27104   1.108   9.349   7.715
41736SOL    HW127105   1.108   9.445   7.708
41736SOL    HW227106   1.089   9.332   7.807
41737SOL     OW27107   4.418  12.824   2.667
41737SOL    HW127108   4.360  12.869   2.606
41737SOL    HW227109   4.358  12.772   2.722
41738SOL     OW27110   8.368   1.079   5.575
41738SOL    HW127111   8.412   1.127   5.645
41738SOL    HW227112   8.304   1.024   5.620
41739SOL     OW27113  14.616   5.397   7.386
41739SOL    HW127114  14.649   5.410   7.297
41739SOL    HW227115  14.528   5.435   7.385
41740SOL     OW27116  13.254  13.151  10.823
41740SOL    HW127117  13.238  13.241  10.851
41740SOL    HW227118  13.334  13.125  10.870
41741SOL     OW27119   2.851  13.338  11.183
41741SOL    HW127120   2.790  13.275  11.221
41741SOL    HW227121   2.811  13.364  11.100
41742SOL     OW27122   7.511   4.139  10.785
41742SOL    HW127123   7.442   4.205  10.793
41742SOL    HW227124   7.465   4.058  10.761
41743SOL     OW27125   3.991  11.258  11.613
41743SOL    HW127126   3.916  11.318  11.613
41743SOL    HW227127   4.003  11.235  11.705
41744SOL     OW27128  12.670  13.693   5.322
41744SOL    HW127129  12.641  13.702   5.413
41744SOL    HW227130  12.734  13.762   5.310
41745SOL     OW27131   2.549  12.045   1.018
41745SOL    HW127132   2.613  11.991   0.972
41745SOL    HW227133   2.578  12.044   1.109
41746SOL     OW27134   8.581   7.264   7.913
41746SOL    HW127135   8.584   7.174   7.946
41746SOL    HW227136   8.622   7.259   7.827
41747SOL     OW27137   1.366  11.636   3.393
41747SOL    HW127138   1.309  11.559   3.397
41747SOL    HW227139   1.310  11.706   3.360
41748SOL     OW27140   9.651   3.154   5.651
41748SOL    HW127141   9.700   3.221   5.603
41748SOL    HW227142   9.567   3.196   5.671
41749SOL     OW27143   8.558   5.159  14.718
41749SOL    HW127144   8.485   5.099  14.732
41749SOL    HW227145   8.623   5.107  14.671
41750SOL     OW27146   9.812   1.296   2.124
41750SOL    HW127147   9.834   1.204   2.137
41750SOL    HW227148   9.823   1.311   2.030
41751SOL     OW27149   9.581   2.465   3.042
41751SOL    HW127150   9.651   2.462   2.977
41751SOL    HW227151   9.556   2.558   3.045
41752SOL     OW27152   4.432   3.879   7.240
41752SOL    HW127153   4.346   3.906   7.210
41752SOL    HW227154   4.493   3.922   7.180
41753SOL     OW27155   6.679   9.544   5.493
41753SOL    HW127156   6.691   9.509   5.582
41753SOL    HW227157   6.751   9.507   5.443
41754SOL     OW27158   8.234   2.529  11.756
41754SOL    HW127159   8.145   2.563  11.742
41754SOL    HW227160   8.261   2.496  11.671
41755SOL     OW27161  12.965   2.722   8.203
41755SOL    HW127162  13.035   2.658   8.212
41755SOL    HW227163  12.894   2.673   8.161
41756SOL     OW27164   7.344   6.345   5.821
41756SOL    HW127165   7.301   6.271   5.863
41756SOL    HW227166   7.289   6.364   5.745
41757SOL     OW27167   4.399   2.136   7.390
41757SOL    HW127168   4.448   2.066   7.433
41757SOL    HW227169   4.461   2.174   7.327
41758SOL     OW27170   9.113   8.832   5.659
41758SOL    HW127171   9.033   8.792   5.625
41758SOL    HW227172   9.092   8.925   5.667
41759SOL     OW27173   2.930   1.809  12.445
41759SOL    HW127174   2.913   1.872  12.375
41759SOL    HW227175   2.954   1.728  12.400
41760SOL     OW27176   6.165  13.268  14.810
41760SOL    HW127177   6.243  13.288  14.758
41760SOL    HW227178   6.098  13.248  14.745
41761SOL     OW27179   9.631   3.591   8.645
41761SOL    HW127180   9.700   3.527   8.667
41761SOL    HW227181   9.564   3.539   8.601
41762SOL     OW27182  10.897  12.493   6.779
41762SOL    HW127183  10.898  12.405   6.741
41762SOL    HW227184  10.904  12.478   6.874
41763SOL     OW27185   7.240  11.579   7.895
41763SOL    HW127186   7.336  11.572   7.899
41763SOL    HW227187   7.210  11.490   7.878
41764SOL     OW27188  12.864   3.573  14.691
41764SOL    HW127189  12.780   3.598  14.730
41764SOL    HW227190  12.920   3.554  14.766
41765SOL     OW27191   3.576   0.297   8.043
41765SOL    HW127192   3.617   0.338   8.119
41765SOL    HW227193   3.572   0.204   8.065
41766SOL     OW27194   7.767  11.681   8.898
41766SOL    HW127195   7.680  11.692   8.934
41766SOL    HW227196   7.771  11.742   8.824
41767SOL     OW27197  12.718  12.782   5.663
41767SOL    HW127198  12.697  12.738   5.746
41767SOL    HW227199  12.742  12.871   5.689
41768SOL     OW27200   4.529   7.526  10.941
41768SOL    HW127201   4.452   7.548  10.889
41768SOL    HW227202   4.495   7.504  11.027
41769SOL     OW27203   0.689   1.084  10.624
41769SOL    HW127204   0.673   1.001  10.578
41769SOL    HW227205   0.670   1.151  10.559
41770SOL     OW27206   6.698  12.214  13.324
41770SOL    HW127207   6.787  12.211  13.359
41770SOL    HW227208   6.704  12.169  13.240
41771SOL     OW27209   6.439   0.000   5.882
41771SOL    HW127210   6.367  14.846   5.941
41771SOL    HW227211   6.505   0.038   5.940
41772SOL     OW27212   9.885  13.201  14.524
41772SOL    HW127213   9.791  13.186  14.516
41772SOL    HW227214   9.924  13.115  14.507
41773SOL     OW27215   7.859  14.419   7.350
41773SOL    HW127216   7.945  14.452   7.376
41773SOL    HW227217   7.817  14.493   7.306
41774SOL     OW27218   6.960   6.742   0.965
41774SOL    HW127219   6.917   6.686   1.030
41774SOL    HW227220   7.047   6.703   0.953
41775SOL     OW27221   4.069   6.098   1.035
41775SOL    HW127222   3.995   6.143   0.993
41775SOL    HW227223   4.108   6.165   1.091
41776SOL     OW27224   9.843   6.627  13.772
41776SOL    HW127225   9.756   6.642  13.809
41776SOL    HW227226   9.891   6.707  13.789
41777SOL     OW27227   4.187   1.169   3.134
41777SOL    HW127228   4.164   1.168   3.041
41777SOL    HW227229   4.152   1.087   3.169
41778SOL     OW27230   3.993   7.537   2.641
41778SOL    HW127231   3.962   7.566   2.726
41778SOL    HW227232   4.087   7.524   2.653
41779SOL     OW27233   0.504  12.786   1.024
41779SOL    HW127234   0.457  12.869   1.023
41779SOL    HW227235   0.436  12.720   1.011
41780SOL     OW27236   2.434  12.768   4.414
41780SOL    HW127237   2.435  12.777   4.509
41780SOL    HW227238   2.371  12.698   4.396
41781SOL     OW27239   3.776   9.230   9.584
41781SOL    HW127240   3.772   9.315   9.540
41781SOL    HW227241   3.769   9.166   9.514
41782SOL     OW27242   0.270   1.899   9.223
41782SOL    HW127243   0.353   1.935   9.255
41782SOL    HW227244   0.233   1.854   9.299
41783SOL     OW27245   5.348   0.692   7.342
41783SOL    HW127246   5.343   0.596   7.333
41783SOL    HW227247   5.440   0.709   7.361
41784SOL     OW27248  13.309   5.239   0.794
41784SOL    HW127249  13.368   5.226   0.868
41784SOL    HW227250  13.279   5.151   0.771
41785SOL     OW27251  12.231   3.337   7.600
41785SOL    HW127252  12.174   3.278   7.551
41785SOL    HW227253  12.173   3.407   7.630
41786SOL     OW27254  14.429   7.014   6.580
41786SOL    HW127255  14.434   6.956   6.505
41786SOL    HW227256  14.382   6.964   6.647
41787SOL     OW27257   1.972   8.300   3.402
41787SOL    HW127258   1.890   8.285   3.356
41787SOL    HW227259   1.972   8.394   3.422
41788SOL     OW27260   8.465   4.381   0.637
41788SOL    HW127261   8.495   4.439   0.707
41788SOL    HW227262   8.520   4.303   0.645
41789SOL     OW27263   3.995   8.295   0.524
41789SOL    HW127264   4.018   8.338   0.606
41789SOL    HW227265   4.018   8.203   0.537
41790SOL     OW27266  10.427   1.006   0.494
41790SOL    HW127267  10.375   1.037   0.420
41790SOL    HW227268  10.479   1.082   0.521
41791SOL     OW27269   7.658  12.647  13.252
41791SOL    HW127270   7.586  12.689  13.204
41791SOL    HW227271   7.618  12.570  13.292
41792SOL     OW27272   5.749   6.176   0.233
41792SOL    HW127273   5.831   6.187   0.185
41792SOL    HW227274   5.712   6.264   0.237
41793SOL     OW27275   5.187   8.673   5.887
41793SOL    HW127276   5.177   8.705   5.797
41793SOL    HW227277   5.192   8.578   5.878
41794SOL     OW27278   1.228   3.724   3.209
41794SOL    HW127279   1.160   3.656   3.211
41794SOL    HW227280   1.303   3.684   3.254
41795SOL     OW27281   1.707  10.232   7.579
41795SOL    HW127282   1.743  10.255   7.665
41795SOL    HW227283   1.752  10.291   7.518
41796SOL     OW27284   2.663  13.398  12.201
41796SOL    HW127285   2.591  13.430  12.147
41796SOL    HW227286   2.625  13.326  12.251
41797SOL     OW27287   9.432   4.792  11.964
41797SOL    HW127288   9.490   4.796  12.040
41797SOL    HW227289   9.477   4.844  11.897
41798SOL     OW27290  14.389   7.643   3.456
41798SOL    HW127291  14.433   7.684   3.531
41798SOL    HW227292  14.303   7.618   3.490
41799SOL     OW27293   2.561  11.704  11.715
41799SOL    HW127294   2.628  11.762  11.679
41799SOL    HW227295   2.478  11.745  11.690
41800SOL     OW27296   8.793  13.641   5.068
41800SOL    HW127297   8.783  13.568   5.007
41800SOL    HW227298   8.885  13.666   5.061
41801SOL     OW27299   4.239   0.581   9.549
41801SOL    HW127300   4.275   0.644   9.611
41801SOL    HW227301   4.195   0.636   9.483
41802SOL     OW27302   5.037   5.890   4.175
41802SOL    HW127303   5.117   5.935   4.148
41802SOL    HW227304   4.982   5.890   4.096
41803SOL     OW27305  10.869   0.046   4.031
41803SOL    HW127306  10.944  14.858   4.044
41803SOL    HW227307  10.812  14.869   3.970
41804SOL     OW27308   0.389   1.695   4.595
41804SOL    HW127309   0.303   1.699   4.636
41804SOL    HW227310   0.391   1.771   4.536
41805SOL     OW27311   6.322   6.151   9.898
41805SOL    HW127312   6.410   6.179   9.924
41805SOL    HW227313   6.305   6.196   9.816
41806SOL     OW27314   5.386   9.340  12.599
41806SOL    HW127315   5.379   9.424  12.643
41806SOL    HW227316   5.318   9.341  12.532
41807SOL     OW27317  11.971  14.468   3.621
41807SOL    HW127318  11.979  14.374   3.603
41807SOL    HW227319  12.001  14.477   3.712
41808SOL     OW27320  11.112  14.281   8.178
41808SOL    HW127321  11.084  14.191   8.159
41808SOL    HW227322  11.089  14.330   8.099
41809SOL     OW27323  14.362  12.680   3.040
41809SOL    HW127324  14.300  12.750   3.020
41809SOL    HW227325  14.439  12.700   2.987
41810SOL     OW27326  14.415  12.047  14.150
41810SOL    HW127327  14.362  12.039  14.071
41810SOL    HW227328  14.353  12.065  14.220
41811SOL     OW27329   1.647   2.900  12.747
41811SOL    HW127330   1.648   2.985  12.790
41811SOL    HW227331   1.709   2.909  12.675
41812SOL     OW27332   6.022  12.444   4.467
41812SOL    HW127333   5.978  12.371   4.510
41812SOL    HW227334   6.083  12.403   4.406
41813SOL     OW27335   3.532   1.865  11.815
41813SOL    HW127336   3.515   1.772  11.830
41813SOL    HW227337   3.490   1.884  11.731
41814SOL     OW27338   7.420   9.369   2.619
41814SOL    HW127339   7.512   9.376   2.643
41814SOL    HW227340   7.373   9.415   2.688
41815SOL     OW27341   5.661   0.597   2.285
41815SOL    HW127342   5.672   0.588   2.190
41815SOL    HW227343   5.750   0.586   2.320
41816SOL     OW27344   7.422   3.942   6.609
41816SOL    HW127345   7.466   3.980   6.533
41816SOL    HW227346   7.417   4.013   6.673
41817SOL     OW27347   7.236   8.632  12.717
41817SOL    HW127348   7.151   8.638  12.761
41817SOL    HW227349   7.257   8.538  12.721
41818SOL     OW27350   4.456   4.708   0.956
41818SOL    HW127351   4.549   4.699   0.936
41818SOL    HW227352   4.429   4.788   0.910
41819SOL     OW27353   1.358   5.109  13.915
41819SOL    HW127354   1.343   5.116  14.009
41819SOL    HW227355   1.443   5.150  13.901
41820SOL     OW27356  12.443   3.938   9.429
41820SOL    HW127357  12.539   3.942   9.429
41820SOL    HW227358  12.418   3.974   9.344
41821SOL     OW27359   8.071   2.247   9.566
41821SOL    HW127360   7.986   2.213   9.593
41821SOL    HW227361   8.080   2.331   9.611
41822SOL     OW27362   9.362   8.063   1.876
41822SOL    HW127363   9.443   8.113   1.884
41822SOL    HW227364   9.294   8.130   1.866
41823SOL     OW27365  12.860   0.395   2.343
41823SOL    HW127366  12.855   0.355   2.430
41823SOL    HW227367  12.897   0.482   2.357
41824SOL     OW27368   9.101   1.161   4.254
41824SOL    HW127369   9.196   1.170   4.257
41824SOL    HW227370   9.071   1.237   4.203
41825SOL     OW27371   9.053   6.860   9.820
41825SOL    HW127372   9.135   6.823   9.853
41825SOL    HW227373   8.998   6.784   9.803
41826SOL     OW27374   3.829   0.513  13.647
41826SOL    HW127375   3.846   0.607  13.648
41826SOL    HW227376   3.782   0.498  13.565
41827SOL     OW27377  11.040   3.180   7.572
41827SOL    HW127378  11.023   3.269   7.541
41827SOL    HW227379  11.133   3.166   7.555
41828SOL     OW27380   4.005   7.148  14.155
41828SOL    HW127381   3.980   7.221  14.212
41828SOL    HW227382   3.925   7.126  14.108
41829SOL     OW27383   6.965   6.995   9.588
41829SOL    HW127384   6.942   6.914   9.634
41829SOL    HW227385   6.929   7.065   9.643
41830SOL     OW27386   5.891  10.629   1.552
41830SOL    HW127387   5.957  10.699   1.553
41830SOL    HW227388   5.877  10.608   1.644
41831SOL     OW27389   3.822  11.687  12.792
41831SOL    HW127390   3.908  11.703  12.830
41831SOL    HW227391   3.839  11.627  12.719
41832SOL     OW27392  10.035  12.192  10.930
41832SOL    HW127393  10.106  12.255  10.943
41832SOL    HW227394   9.964  12.224  10.985
41833SOL     OW27395   1.346  13.159   1.455
41833SOL    HW127396   1.265  13.127   1.495
41833SOL    HW227397   1.406  13.172   1.529
41834SOL     OW27398  11.908   9.014   9.910
41834SOL    HW127399  11.937   9.071   9.839
41834SOL    HW227400  11.872   9.073   9.976
41835SOL     OW27401   3.468   2.579   7.576
41835SOL    HW127402   3.559   2.603   7.555
41835SOL    HW227403   3.470   2.483   7.580
41836SOL     OW27404   3.157  11.185   9.291
41836SOL    HW127405   3.122  11.208   9.205
41836SOL    HW227406   3.139  11.261   9.345
41837SOL     OW27407  10.213  13.167   5.700
41837SOL    HW127408  10.276  13.112   5.747
41837SOL    HW227409  10.267  13.223   5.644
41838SOL     OW27410  11.014   0.600   4.386
41838SOL    HW127411  11.089   0.569   4.437
41838SOL    HW227412  11.013   0.695   4.400
41839SOL     OW27413   9.943   4.005  11.577
41839SOL    HW127414   9.944   4.059  11.656
41839SOL    HW227415  10.020   4.032  11.527
41840SOL     OW27416  13.825  13.200   4.572
41840SOL    HW127417  13.819  13.111   4.607
41840SOL    HW227418  13.819  13.256   4.649
41841SOL     OW27419  11.067  13.877   0.675
41841SOL    HW127420  11.127  13.813   0.636
41841SOL    HW227421  11.116  13.915   0.747
41842SOL     OW27422   7.494   4.474   1.222
41842SOL    HW127423   7.433   4.546   1.201
41842SOL    HW227424   7.442   4.413   1.274
41843SOL     OW27425   4.178   9.614   8.063
41843SOL    HW127426   4.170   9.520   8.046
41843SOL    HW227427   4.259   9.622   8.113
41844SOL     OW27428   9.527   0.945  13.379
41844SOL    HW127429   9.508   1.020  13.323
41844SOL    HW227430   9.542   0.984  13.466
41845SOL     OW27431  12.210   9.532  10.769
41845SOL    HW127432  12.257   9.533  10.852
41845SOL    HW227433  12.133   9.477  10.785
41846SOL     OW27434   4.213   1.955   5.918
41846SOL    HW127435   4.190   2.013   5.846
41846SOL    HW227436   4.144   1.888   5.918
41847SOL     OW27437  10.159   1.430  11.370
41847SOL    HW127438  10.206   1.390  11.297
41847SOL    HW227439  10.200   1.516  11.381
41848SOL     OW27440   3.152   7.871   2.518
41848SOL    HW127441   3.189   7.927   2.450
41848SOL    HW227442   3.227   7.843   2.570
41849SOL     OW27443  13.654  14.802   2.799
41849SOL    HW127444  13.629  14.832   2.886
41849SOL    HW227445  13.669  14.708   2.810
41850SOL     OW27446   2.725  10.599  13.832
41850SOL    HW127447   2.792  10.549  13.786
41850SOL    HW227448   2.762  10.616  13.918
41851SOL     OW27449  11.850  11.473   5.808
41851SOL    HW127450  11.904  11.435   5.739
41851SOL    HW227451  11.807  11.548   5.767
41852SOL     OW27452  12.922   2.002  10.281
41852SOL    HW127453  12.920   2.032  10.191
41852SOL    HW227454  12.940   2.080  10.333
41853SOL     OW27455  11.359   1.169   2.400
41853SOL    HW127456  11.269   1.169   2.433
41853SOL    HW227457  11.399   1.247   2.438
41854SOL     OW27458  13.239  11.834  11.094
41854SOL    HW127459  13.167  11.772  11.099
41854SOL    HW227460  13.314  11.786  11.129
41855SOL     OW27461  11.199   6.538  10.101
41855SOL    HW127462  11.278   6.508  10.146
41855SOL    HW227463  11.127   6.496  10.149
41856SOL     OW27464  10.831  14.097   1.869
41856SOL    HW127465  10.830  14.186   1.903
41856SOL    HW227466  10.746  14.086   1.827
41857SOL     OW27467  12.975   7.191  10.537
41857SOL    HW127468  12.993   7.280  10.505
41857SOL    HW227469  12.909   7.204  10.605
41858SOL     OW27470   0.356   8.963   9.990
41858SOL    HW127471   0.448   8.940   9.977
41858SOL    HW227472   0.353   9.058   9.981
41859SOL     OW27473   4.637   5.359   2.866
41859SOL    HW127474   4.562   5.365   2.806
41859SOL    HW227475   4.687   5.438   2.849
41860SOL     OW27476   5.289   6.470   7.359
41860SOL    HW127477   5.336   6.426   7.288
41860SOL    HW227478   5.197   6.461   7.336
41861SOL     OW27479  13.095   8.636   2.162
41861SOL    HW127480  13.042   8.577   2.107
41861SOL    HW227481  13.185   8.608   2.146
41862SOL     OW27482   8.532   2.969   4.374
41862SOL    HW127483   8.525   2.903   4.305
41862SOL    HW227484   8.623   2.963   4.403
41863SOL     OW27485  13.362   0.653   6.394
41863SOL    HW127486  13.296   0.629   6.329
41863SOL    HW227487  13.337   0.605   6.473
41864SOL     OW27488   0.008   4.550  11.922
41864SOL    HW127489  14.799   4.595  11.892
41864SOL    HW227490   0.010   4.566  12.016
41865SOL     OW27491   1.248   5.886  12.921
41865SOL    HW127492   1.297   5.958  12.882
41865SOL    HW227493   1.295   5.807  12.893
41866SOL     OW27494   8.898  14.277   2.905
41866SOL    HW127495   8.812  14.284   2.947
41866SOL    HW227496   8.921  14.367   2.882
41867SOL     OW27497  11.793   3.210  11.688
41867SOL    HW127498  11.778   3.267  11.763
41867SOL    HW227499  11.712   3.161  11.678
41868SOL     OW27500  13.723  11.757   8.658
41868SOL    HW127501  13.782  11.824   8.691
41868SOL    HW227502  13.743  11.679   8.710
41869SOL     OW27503  13.699   6.721  14.591
41869SOL    HW127504  13.778   6.675  14.617
41869SOL    HW227505  13.719   6.758  14.505
41870SOL     OW27506   8.127   2.583  10.708
41870SOL    HW127507   8.177   2.664  10.696
41870SOL    HW227508   8.190   2.513  10.694
41871SOL     OW27509  14.849   7.063  11.962
41871SOL    HW127510   0.005   6.971  11.969
41871SOL    HW227511  14.754   7.060  11.948
41872SOL     OW27512  13.614  12.843  14.418
41872SOL    HW127513  13.550  12.809  14.355
41872SOL    HW227514  13.684  12.778  14.419
41873SOL     OW27515   9.099   8.245   0.598
41873SOL    HW127516   9.184   8.271   0.634
41873SOL    HW227517   9.055   8.328   0.580
41874SOL     OW27518   3.346   5.919   9.669
41874SOL    HW127519   3.264   5.874   9.653
41874SOL    HW227520   3.330   5.969   9.749
41875SOL     OW27521  14.439   1.762  11.797
41875SOL    HW127522  14.455   1.672  11.828
41875SOL    HW227523  14.466   1.761  11.706
41876SOL     OW27524  14.190   6.868   6.974
41876SOL    HW127525  14.170   6.953   7.013
41876SOL    HW227526  14.236   6.820   7.044
41877SOL     OW27527   0.118   2.561   7.101
41877SOL    HW127528   0.177   2.488   7.080
41877SOL    HW227529   0.118   2.614   7.022
41878SOL     OW27530  14.788   6.299  12.190
41878SOL    HW127531  14.840   6.339  12.260
41878SOL    HW227532  14.706   6.273  12.232
41879SOL     OW27533   7.353   3.700  10.852
41879SOL    HW127534   7.443   3.675  10.876
41879SOL    HW227535   7.321   3.746  10.929
41880SOL     OW27536   9.040   5.007  14.851
41880SOL    HW127537   9.072   5.005   0.072
41880SOL    HW227538   9.118   4.992  14.798
41881SOL     OW27539   5.738  13.282  11.794
41881SOL    HW127540   5.686  13.354  11.757
41881SOL    HW227541   5.821  13.323  11.819
41882SOL     OW27542   2.216   7.783  11.651
41882SOL    HW127543   2.121   7.775  11.662
41882SOL    HW227544   2.231   7.878  11.645
41883SOL     OW27545   8.289  12.597   3.358
41883SOL    HW127546   8.271  12.670   3.298
41883SOL    HW227547   8.337  12.534   3.304
41884SOL     OW27548   9.253   0.995  13.712
41884SOL    HW127549   9.167   0.954  13.698
41884SOL    HW227550   9.270   1.043  13.631
41885SOL     OW27551   1.550  13.257  10.102
41885SOL    HW127552   1.560  13.254  10.198
41885SOL    HW227553   1.484  13.325  10.087
41886SOL     OW27554  12.163   0.955   7.029
41886SOL    HW127555  12.158   0.864   7.001
41886SOL    HW227556  12.255   0.979   7.014
41887SOL     OW27557   1.917   9.258  11.587
41887SOL    HW127558   1.880   9.310  11.515
41887SOL    HW227559   1.957   9.182  11.544
41888SOL     OW27560  14.215   7.356   5.009
41888SOL    HW127561  14.262   7.426   5.055
41888SOL    HW227562  14.159   7.317   5.075
41889SOL     OW27563   9.345   0.213  13.935
41889SOL    HW127564   9.415   0.273  13.959
41889SOL    HW227565   9.384   0.154  13.871
41890SOL     OW27566   1.852   7.493   6.019
41890SOL    HW127567   1.842   7.524   5.929
41890SOL    HW227568   1.850   7.572   6.073
41891SOL     OW27569   8.188  12.720  10.748
41891SOL    HW127570   8.132  12.664  10.694
41891SOL    HW227571   8.128  12.776  10.795
41892SOL     OW27572   5.430   4.192   4.973
41892SOL    HW127573   5.376   4.199   4.894
41892SOL    HW227574   5.520   4.197   4.941
41893SOL     OW27575  13.067   7.365   2.821
41893SOL    HW127576  13.152   7.375   2.864
41893SOL    HW227577  13.026   7.290   2.865
41894SOL     OW27578   2.492   5.190   6.670
41894SOL    HW127579   2.452   5.225   6.591
41894SOL    HW227580   2.450   5.237   6.742
41895SOL     OW27581  12.791   2.215   5.116
41895SOL    HW127582  12.861   2.163   5.077
41895SOL    HW227583  12.827   2.303   5.122
41896SOL     OW27584   1.645  13.738  10.880
41896SOL    HW127585   1.722  13.776  10.840
41896SOL    HW227586   1.583  13.811  10.888
41897SOL     OW27587   3.307   2.087  11.134
41897SOL    HW127588   3.362   2.113  11.060
41897SOL    HW227589   3.231   2.145  11.128
41898SOL     OW27590  14.294   6.150   4.311
41898SOL    HW127591  14.381   6.123   4.338
41898SOL    HW227592  14.264   6.081   4.252
41899SOL     OW27593   1.448   2.760   2.390
41899SOL    HW127594   1.434   2.726   2.302
41899SOL    HW227595   1.360   2.786   2.420
41900SOL     OW27596   8.172  12.012   6.559
41900SOL    HW127597   8.159  12.010   6.654
41900SOL    HW227598   8.102  11.956   6.525
41901SOL     OW27599  12.364   8.964   0.535
41901SOL    HW127600  12.428   9.032   0.517
41901SOL    HW227601  12.361   8.912   0.455
41902SOL     OW27602  10.421   2.081  11.873
41902SOL    HW127603  10.367   2.052  11.947
41902SOL    HW227604  10.360   2.087  11.800
41903SOL     OW27605  13.265  10.912  11.703
41903SOL    HW127606  13.360  10.898  11.709
41903SOL    HW227607  13.229  10.858  11.774
41904SOL     OW27608  10.980   2.787   3.156
41904SOL    HW127609  11.005   2.739   3.235
41904SOL    HW227610  10.909   2.736   3.118
41905SOL     OW27611   5.588   2.959  12.725
41905SOL    HW127612   5.606   3.005  12.808
41905SOL    HW227613   5.502   2.919  12.738
41906SOL     OW27614   3.361   5.454  10.673
41906SOL    HW127615   3.347   5.546  10.649
41906SOL    HW227616   3.456   5.446  10.682
41907SOL     OW27617   3.584   8.604   5.850
41907SOL    HW127618   3.622   8.521   5.879
41907SOL    HW227619   3.646   8.670   5.881
41908SOL     OW27620   4.022  14.724   9.039
41908SOL    HW127621   4.066  14.648   9.001
41908SOL    HW227622   3.957  14.687   9.099
41909SOL     OW27623   0.897   4.330   9.003
41909SOL    HW127624   0.843   4.302   9.077
41909SOL    HW227625   0.982   4.350   9.041
41910SOL     OW27626  10.541  14.761   7.621
41910SOL    HW127627  10.589  14.708   7.685
41910SOL    HW227628  10.450  14.757   7.651
41911SOL     OW27629   2.899   5.275   2.377
41911SOL    HW127630   2.873   5.359   2.339
41911SOL    HW227631   2.849   5.211   2.327
41912SOL     OW27632   0.850   0.681  11.697
41912SOL    HW127633   0.769   0.716  11.660
41912SOL    HW227634   0.918   0.741  11.668
41913SOL     OW27635   0.498   5.034   6.025
41913SOL    HW127636   0.538   5.106   5.976
41913SOL    HW227637   0.447   4.986   5.960
41914SOL     OW27638   5.935   2.906   8.025
41914SOL    HW127639   5.923   2.820   7.985
41914SOL    HW227640   5.910   2.895   8.116
41915SOL     OW27641  10.688   7.282   9.643
41915SOL    HW127642  10.745   7.206   9.655
41915SOL    HW227643  10.652   7.271   9.555
41916SOL     OW27644  13.121   3.980  12.122
41916SOL    HW127645  13.147   4.053  12.066
41916SOL    HW227646  13.055   4.017  12.181
41917SOL     OW27647   0.364  13.319  11.990
41917SOL    HW127648   0.440  13.302  12.046
41917SOL    HW227649   0.290  13.281  12.037
41918SOL     OW27650  12.787   7.243   6.001
41918SOL    HW127651  12.770   7.211   6.089
41918SOL    HW227652  12.757   7.334   6.002
41919SOL     OW27653   0.135  11.365   9.070
41919SOL    HW127654   0.212  11.343   9.124
41919SOL    HW227655   0.088  11.282   9.061
41920SOL     OW27656  10.544  11.437  14.668
41920SOL    HW127657  10.635  11.408  14.667
41920SOL    HW227658  10.503  11.386  14.737
41921SOL     OW27659   8.277   0.039  12.506
41921SOL    HW127660   8.290   0.026  12.412
41921SOL    HW227661   8.263  14.821  12.541
41922SOL     OW27662   4.386   9.263  14.161
41922SOL    HW127663   4.334   9.316  14.100
41922SOL    HW227664   4.383   9.175  14.124
41923SOL     OW27665   4.813   7.839   8.320
41923SOL    HW127666   4.785   7.805   8.235
41923SOL    HW227667   4.892   7.889   8.300
41924SOL     OW27668  11.311   9.436   5.227
41924SOL    HW127669  11.290   9.472   5.140
41924SOL    HW227670  11.255   9.359   5.235
41925SOL     OW27671  12.498   3.733   6.556
41925SOL    HW127672  12.498   3.771   6.468
41925SOL    HW227673  12.567   3.667   6.554
41926SOL     OW27674  12.288  14.719   8.639
41926SOL    HW127675  12.282  14.735   8.545
41926SOL    HW227676  12.197  14.709   8.667
41927SOL     OW27677  12.608   0.912   5.232
41927SOL    HW127678  12.627   0.851   5.160
41927SOL    HW227679  12.514   0.929   5.224
41928SOL     OW27680   7.870   0.800   7.209
41928SOL    HW127681   7.887   0.798   7.303
41928SOL    HW227682   7.833   0.886   7.193
41929SOL     OW27683   1.649  12.107   4.079
41929SOL    HW127684   1.717  12.103   4.013
41929SOL    HW227685   1.672  12.182   4.133
41930SOL     OW27686  11.649  12.185   6.251
41930SOL    HW127687  11.561  12.153   6.271
41930SOL    HW227688  11.668  12.152   6.163
41931SOL     OW27689   5.384   7.841   9.450
41931SOL    HW127690   5.393   7.765   9.508
41931SOL    HW227691   5.473   7.875   9.441
41932SOL     OW27692   8.488   1.922  14.089
41932SOL    HW127693   8.533   1.994  14.135
41932SOL    HW227694   8.533   1.916  14.005
41933SOL     OW27695  14.590   0.112   2.424
41933SOL    HW127696  14.513   0.059   2.406
41933SOL    HW227697  14.663   0.050   2.421
41934SOL     OW27698   5.562  10.897   1.982
41934SOL    HW127699   5.548  10.976   1.930
41934SOL    HW227700   5.572  10.929   2.072
41935SOL     OW27701  12.469   8.399   6.233
41935SOL    HW127702  12.553   8.433   6.201
41935SOL    HW227703  12.480   8.304   6.231
41936SOL     OW27704  10.245   4.950   0.136
41936SOL    HW127705  10.305   4.891   0.089
41936SOL    HW227706  10.188   4.986   0.069
41937SOL     OW27707   2.865  10.555   5.039
41937SOL    HW127708   2.913  10.567   4.958
41937SOL    HW227709   2.912  10.607   5.104
41938SOL     OW27710   4.243   1.465  10.807
41938SOL    HW127711   4.250   1.524  10.882
41938SOL    HW227712   4.184   1.509  10.746
41939SOL     OW27713   7.699   6.057   9.255
41939SOL    HW127714   7.713   6.087   9.344
41939SOL    HW227715   7.682   6.137   9.205
41940SOL     OW27716   0.189   2.185  12.301
41940SOL    HW127717   0.283   2.195  12.287
41940SOL    HW227718   0.177   2.093  12.323
41941SOL     OW27719   9.107   7.227   9.131
41941SOL    HW127720   9.109   7.267   9.044
41941SOL    HW227721   9.169   7.154   9.125
41942SOL     OW27722   4.359   7.307   3.999
41942SOL    HW127723   4.454   7.312   4.007
41942SOL    HW227724   4.342   7.224   3.955
41943SOL     OW27725   6.162   8.170   5.780
41943SOL    HW127726   6.142   8.115   5.704
41943SOL    HW227727   6.077   8.202   5.810
41944SOL     OW27728  12.537   8.321  11.681
41944SOL    HW127729  12.589   8.279  11.612
41944SOL    HW227730  12.507   8.403  11.642
41945SOL     OW27731   6.371   8.051   3.247
41945SOL    HW127732   6.317   8.007   3.312
41945SOL    HW227733   6.394   7.983   3.184
41946SOL     OW27734   0.880   8.307  11.608
41946SOL    HW127735   0.933   8.301  11.529
41946SOL    HW227736   0.816   8.236  11.599
41947SOL     OW27737  12.442   1.712   2.693
41947SOL    HW127738  12.385   1.690   2.767
41947SOL    HW227739  12.444   1.632   2.640
41948SOL     OW27740  11.188  11.808  10.770
41948SOL    HW127741  11.241  11.874  10.726
41948SOL    HW227742  11.134  11.770  10.701
41949SOL     OW27743   4.329   1.000  14.238
41949SOL    HW127744   4.362   1.080  14.198
41949SOL    HW227745   4.404   0.964  14.285
41950SOL     OW27746  12.875  13.300   0.049
41950SOL    HW127747  12.911  13.283  14.832
41950SOL    HW227748  12.878  13.396   0.057
41951SOL     OW27749   1.570   5.673   1.140
41951SOL    HW127750   1.595   5.757   1.179
41951SOL    HW227751   1.510   5.634   1.205
41952SOL     OW27752   2.348   9.160   6.356
41952SOL    HW127753   2.386   9.104   6.423
41952SOL    HW227754   2.259   9.178   6.387
41953SOL     OW27755   3.833  14.603  14.697
41953SOL    HW127756   3.780  14.677  14.725
41953SOL    HW227757   3.922  14.626  14.723
41954SOL     OW27758  12.553   2.338   0.242
41954SOL    HW127759  12.466   2.324   0.204
41954SOL    HW227760  12.613   2.327   0.168
41955SOL     OW27761   1.521  14.128   3.203
41955SOL    HW127762   1.481  14.185   3.269
41955SOL    HW227763   1.615  14.139   3.215
41956SOL     OW27764  13.029   6.808   8.268
41956SOL    HW127765  13.083   6.854   8.204
41956SOL    HW227766  13.093   6.764   8.325
41957SOL     OW27767   6.345  11.456   0.696
41957SOL    HW127768   6.256  11.479   0.670
41957SOL    HW227769   6.334  11.399   0.772
41958SOL     OW27770   6.412  11.222   9.970
41958SOL    HW127771   6.407  11.152   9.905
41958SOL    HW227772   6.458  11.182  10.044
41959SOL     OW27773   7.339  13.493   0.545
41959SOL    HW127774   7.432  13.470   0.549
41959SOL    HW227775   7.301  13.433   0.482
41960SOL     OW27776  11.850   6.770   8.130
41960SOL    HW127777  11.756   6.790   8.135
41960SOL    HW227778  11.864   6.745   8.038
41961SOL     OW27779  13.679   5.999   5.094
41961SOL    HW127780  13.650   6.017   5.184
41961SOL    HW227781  13.641   6.071   5.043
41962SOL     OW27782  11.084   9.313  12.716
41962SOL    HW127783  11.040   9.271  12.642
41962SOL    HW227784  11.177   9.294  12.703
41963SOL     OW27785  10.721   4.150  12.486
41963SOL    HW127786  10.815   4.162  12.497
41963SOL    HW227787  10.695   4.097  12.561
41964SOL     OW27788   0.862  11.551   2.709
41964SOL    HW127789   0.780  11.517   2.747
41964SOL    HW227790   0.845  11.644   2.697
41965SOL     OW27791   8.211  11.877   4.743
41965SOL    HW127792   8.169  11.896   4.660
41965SOL    HW227793   8.252  11.960   4.769
41966SOL     OW27794  10.869   8.740  13.108
41966SOL    HW127795  10.775   8.749  13.100
41966SOL    HW227796  10.896   8.813  13.164
41967SOL     OW27797  11.401   7.411  14.491
41967SOL    HW127798  11.378   7.319  14.494
41967SOL    HW227799  11.466   7.423  14.560
41968SOL     OW27800   5.251   9.118   0.744
41968SOL    HW127801   5.215   9.033   0.770
41968SOL    HW227802   5.312   9.141   0.814
41969SOL     OW27803   1.195   7.893   7.637
41969SOL    HW127804   1.169   7.984   7.643
41969SOL    HW227805   1.164   7.853   7.718
41970SOL     OW27806   2.298   7.707  13.910
41970SOL    HW127807   2.359   7.685  13.840
41970SOL    HW227808   2.248   7.781  13.876
41971SOL     OW27809   3.938   4.826   6.465
41971SOL    HW127810   3.954   4.743   6.510
41971SOL    HW227811   3.966   4.810   6.375
41972SOL     OW27812  11.315   9.430  10.411
41972SOL    HW127813  11.239   9.382  10.445
41972SOL    HW227814  11.278   9.498  10.354
41973SOL     OW27815   9.890   9.646  11.425
41973SOL    HW127816   9.821   9.581  11.436
41973SOL    HW227817   9.963   9.611  11.476
41974SOL     OW27818  13.796  12.423  12.355
41974SOL    HW127819  13.848  12.486  12.305
41974SOL    HW227820  13.835  12.338  12.335
41975SOL     OW27821   0.244   3.367  10.836
41975SOL    HW127822   0.176   3.373  10.769
41975SOL    HW227823   0.201   3.323  10.909
41976SOL     OW27824  13.367  12.038   7.356
41976SOL    HW127825  13.290  12.066   7.405
41976SOL    HW227826  13.437  12.036   7.422
41977SOL     OW27827   7.247   9.436   0.130
41977SOL    HW127828   7.308   9.403   0.195
41977SOL    HW227829   7.302   9.477   0.063
41978SOL     OW27830   5.796   4.821  13.485
41978SOL    HW127831   5.764   4.770  13.410
41978SOL    HW227832   5.765   4.910  13.469
41979SOL     OW27833  14.485  11.256  11.590
41979SOL    HW127834  14.575  11.286  11.577
41979SOL    HW227835  14.462  11.210  11.510
41980SOL     OW27836   2.917   1.785   5.462
41980SOL    HW127837   2.872   1.746   5.537
41980SOL    HW227838   2.955   1.866   5.498
41981SOL     OW27839  12.424   2.747   6.473
41981SOL    HW127840  12.330   2.748   6.492
41981SOL    HW227841  12.465   2.727   6.556
41982SOL     OW27842   6.113  10.872  14.119
41982SOL    HW127843   6.194  10.836  14.082
41982SOL    HW227844   6.098  10.820  14.198
41983SOL     OW27845   3.796  13.226   3.897
41983SOL    HW127846   3.821  13.306   3.943
41983SOL    HW227847   3.839  13.155   3.946
41984SOL     OW27848   8.854   3.866   2.303
41984SOL    HW127849   8.871   3.911   2.220
41984SOL    HW227850   8.840   3.937   2.366
41985SOL     OW27851   8.678   3.623   2.077
41985SOL    HW127852   8.769   3.620   2.048
41985SOL    HW227853   8.636   3.551   2.031
41986SOL     OW27854   7.101   4.076   4.158
41986SOL    HW127855   7.151   4.113   4.085
41986SOL    HW227856   7.089   4.148   4.219
41987SOL     OW27857   9.160  12.876   4.606
41987SOL    HW127858   9.213  12.933   4.661
41987SOL    HW227859   9.112  12.820   4.668
41988SOL     OW27860   2.694   5.489   5.577
41988SOL    HW127861   2.657   5.543   5.507
41988SOL    HW227862   2.696   5.401   5.541
41989SOL     OW27863   3.382  13.320  11.819
41989SOL    HW127864   3.304  13.267  11.803
41989SOL    HW227865   3.385  13.382  11.747
41990SOL     OW27866   5.015   4.027  14.362
41990SOL    HW127867   5.012   4.117  14.394
41990SOL    HW227868   5.052   4.033  14.274
41991SOL     OW27869   2.960  11.170  10.667
41991SOL    HW127870   2.951  11.079  10.637
41991SOL    HW227871   3.053  11.189  10.656
41992SOL     OW27872   0.437   9.400  11.692
41992SOL    HW127873   0.517   9.354  11.716
41992SOL    HW227874   0.371   9.365  11.752
41993SOL     OW27875  13.125  14.819   1.573
41993SOL    HW127876  13.137  14.805   1.479
41993SOL    HW227877  13.077   0.032   1.579
41994SOL     OW27878  10.001   9.195   1.285
41994SOL    HW127879   9.979   9.139   1.211
41994SOL    HW227880  10.027   9.278   1.246
41995SOL     OW27881   4.493   9.631   3.120
41995SOL    HW127882   4.529   9.692   3.055
41995SOL    HW227883   4.568   9.582   3.151
41996SOL     OW27884  10.547  10.837   3.266
41996SOL    HW127885  10.624  10.889   3.242
41996SOL    HW227886  10.582  10.764   3.318
41997SOL     OW27887  14.644  11.211   1.889
41997SOL    HW127888  14.711  11.276   1.869
41997SOL    HW227889  14.584  11.257   1.948
41998SOL     OW27890   5.020   6.942  12.566
41998SOL    HW127891   4.969   6.932  12.646
41998SOL    HW227892   5.100   6.891  12.582
41999SOL     OW27893   9.684  14.311   7.653
41999SOL    HW127894   9.653  14.267   7.574
41999SOL    HW227895   9.727  14.242   7.703
42000SOL     OW27896   4.339   7.105   1.295
42000SOL    HW127897   4.326   7.199   1.299
42000SOL    HW227898   4.266   7.069   1.347
42001SOL     OW27899   4.685   0.343  14.615
42001SOL    HW127900   4.687   0.422  14.669
42001SOL    HW227901   4.600   0.346  14.572
42002SOL     OW27902   1.369  12.745   8.975
42002SOL    HW127903   1.297  12.719   9.033
42002SOL    HW227904   1.345  12.833   8.945
42003SOL     OW27905   3.405   7.966   9.190
42003SOL    HW127906   3.385   7.873   9.199
42003SOL    HW227907   3.319   8.008   9.181
42004SOL     OW27908   3.444   4.178  14.395
42004SOL    HW127909   3.477   4.192  14.306
42004SOL    HW227910   3.509   4.220  14.452
42005SOL     OW27911   7.651   2.099  11.552
42005SOL    HW127912   7.724   2.048  11.588
42005SOL    HW227913   7.586   2.101  11.621
42006SOL     OW27914   0.454   7.586   0.945
42006SOL    HW127915   0.372   7.559   0.987
42006SOL    HW227916   0.429   7.604   0.854
42007SOL     OW27917  11.899  10.033   7.337
42007SOL    HW127918  11.847  10.112   7.328
42007SOL    HW227919  11.950  10.047   7.417
42008SOL     OW27920   2.929  14.415   5.641
42008SOL    HW127921   3.024  14.428   5.643
42008SOL    HW227922   2.918  14.320   5.654
42009SOL     OW27923   6.438   4.553  11.062
42009SOL    HW127924   6.371   4.499  11.103
42009SOL    HW227925   6.498   4.574  11.134
42010SOL     OW27926  13.969   6.500  12.359
42010SOL    HW127927  13.933   6.588  12.368
42010SOL    HW227928  13.895   6.442  12.378
42011SOL     OW27929  12.027  13.242   0.814
42011SOL    HW127930  12.042  13.201   0.729
42011SOL    HW227931  12.075  13.324   0.811
42012SOL     OW27932   3.416  12.040   2.954
42012SOL    HW127933   3.460  12.035   2.870
42012SOL    HW227934   3.356  12.115   2.946
42013SOL     OW27935  11.374  11.952  10.643
42013SOL    HW127936  11.379  11.933  10.549
42013SOL    HW227937  11.465  11.965  10.670
42014SOL     OW27938   5.223   5.590   6.818
42014SOL    HW127939   5.230   5.657   6.750
42014SOL    HW227940   5.132   5.561   6.813
42015SOL     OW27941  10.167   9.247   6.182
42015SOL    HW127942  10.205   9.235   6.269
42015SOL    HW227943  10.213   9.323   6.146
42016SOL     OW27944  11.941  11.315   7.827
42016SOL    HW127945  11.863  11.278   7.870
42016SOL    HW227946  11.915  11.329   7.737
42017SOL     OW27947   0.874   3.042   4.912
42017SOL    HW127948   0.832   3.109   4.858
42017SOL    HW227949   0.943   3.006   4.857
42018SOL     OW27950   2.432   0.305  14.841
42018SOL    HW127951   2.337   0.294  14.834
42018SOL    HW227952   2.447   0.398  14.826
42019SOL     OW27953   7.980  14.723  10.396
42019SOL    HW127954   8.060  14.671  10.388
42019SOL    HW227955   7.956  14.743  10.305
42020SOL     OW27956  11.875  14.582   1.264
42020SOL    HW127957  11.788  14.546   1.280
42020SOL    HW227958  11.860  14.660   1.211
42021SOL     OW27959   1.700  10.712   0.958
42021SOL    HW127960   1.633  10.721   0.890
42021SOL    HW227961   1.678  10.778   1.023
42022SOL     OW27962  10.169   0.149   9.080
42022SOL    HW127963  10.193   0.109   9.163
42022SOL    HW227964  10.199   0.086   9.014
42023SOL     OW27965   8.870  14.087   3.332
42023SOL    HW127966   8.906  14.058   3.249
42023SOL    HW227967   8.775  14.083   3.320
42024SOL     OW27968  10.043   6.294  11.798
42024SOL    HW127969  10.092   6.310  11.718
42024SOL    HW227970  10.037   6.199  11.804
42025SOL     OW27971   2.327  14.161  14.342
42025SOL    HW127972   2.315  14.113  14.424
42025SOL    HW227973   2.421  14.161  14.327
42026SOL     OW27974   4.987  11.963   2.428
42026SOL    HW127975   4.966  12.045   2.383
42026SOL    HW227976   5.082  11.954   2.418
42027SOL     OW27977  14.300   5.129   4.144
42027SOL    HW127978  14.348   5.151   4.064
42027SOL    HW227979  14.214   5.100   4.113
42028SOL     OW27980   5.584  10.218   1.326
42028SOL    HW127981   5.495  10.186   1.311
42028SOL    HW227982   5.576  10.313   1.325
42029SOL     OW27983   8.924  10.871  12.776
42029SOL    HW127984   8.862  10.937  12.808
42029SOL    HW227985   8.877  10.826  12.706
42030SOL     OW27986  11.090  11.412   7.892
42030SOL    HW127987  11.156  11.349   7.919
42030SOL    HW227988  11.127  11.453   7.813
42031SOL     OW27989   3.176   4.325  12.373
42031SOL    HW127990   3.124   4.280  12.307
42031SOL    HW227991   3.112   4.355  12.438
42032SOL     OW27992  13.441  11.377   3.593
42032SOL    HW127993  13.531  11.372   3.625
42032SOL    HW227994  13.417  11.287   3.573
42033SOL     OW27995  10.822   2.596   8.957
42033SOL    HW127996  10.804   2.646   8.877
42033SOL    HW227997  10.769   2.517   8.948
42034SOL     OW27998   7.437  14.784   1.773
42034SOL    HW127999   7.347  14.753   1.784
42034SOL    HW228000   7.462  14.756   1.685
42035SOL     OW28001   9.281   0.512   3.998
42035SOL    HW128002   9.261   0.449   3.930
42035SOL    HW228003   9.362   0.555   3.970
42036SOL     OW28004  10.536  11.997  10.575
42036SOL    HW128005  10.481  12.073  10.557
42036SOL    HW228006  10.475  11.932  10.610
42037SOL     OW28007   2.151   6.754   5.958
42037SOL    HW128008   2.135   6.714   5.872
42037SOL    HW228009   2.099   6.701   6.019
42038SOL     OW28010  11.368   7.273   3.439
42038SOL    HW128011  11.307   7.290   3.367
42038SOL    HW228012  11.402   7.185   3.422
42039SOL     OW28013   2.105   2.229  11.386
42039SOL    HW128014   2.151   2.154  11.349
42039SOL    HW228015   2.025   2.236  11.334
42040SOL     OW28016  10.352  11.074   1.279
42040SOL    HW128017  10.338  11.127   1.201
42040SOL    HW228018  10.335  11.133   1.352
42041SOL     OW28019   2.783   8.270  11.592
42041SOL    HW128020   2.717   8.213  11.552
42041SOL    HW228021   2.757   8.276  11.684
42042SOL     OW28022  14.198  10.287   6.753
42042SOL    HW128023  14.213  10.196   6.728
42042SOL    HW228024  14.190  10.334   6.670
42043SOL     OW28025   9.566  10.283   2.435
42043SOL    HW128026   9.581  10.369   2.475
42043SOL    HW228027   9.509  10.301   2.361
42044SOL     OW28028  10.844   7.463  14.243
42044SOL    HW128029  10.926   7.485  14.287
42044SOL    HW228030  10.785   7.535  14.266
42045SOL     OW28031   9.074   7.450  10.262
42045SOL    HW128032   9.020   7.394  10.318
42045SOL    HW228033   9.135   7.492  10.321
42046SOL     OW28034  14.089   6.858   7.404
42046SOL    HW128035  14.136   6.790   7.357
42046SOL    HW228036  14.116   6.940   7.361
42047SOL     OW28037  12.631   4.714   0.970
42047SOL    HW128038  12.680   4.796   0.977
42047SOL    HW228039  12.553   4.729   1.024
42048SOL     OW28040   9.261   8.150   5.102
42048SOL    HW128041   9.185   8.105   5.140
42048SOL    HW228042   9.323   8.080   5.082
42049SOL     OW28043  13.549   3.843  13.338
42049SOL    HW128044  13.527   3.754  13.365
42049SOL    HW228045  13.566   3.835  13.244
42050SOL     OW28046   9.403   7.501   5.580
42050SOL    HW128047   9.375   7.499   5.489
42050SOL    HW228048   9.333   7.455   5.628
42051SOL     OW28049  13.706   5.073   0.283
42051SOL    HW128050  13.726   5.080   0.190
42051SOL    HW228051  13.611   5.071   0.288
42052SOL     OW28052   2.521  13.785  14.146
42052SOL    HW128053   2.531  13.806  14.239
42052SOL    HW228054   2.599  13.732  14.125
42053SOL     OW28055   7.718   6.357  12.525
42053SOL    HW128056   7.732   6.448  12.551
42053SOL    HW228057   7.673   6.362  12.440
42054SOL     OW28058  13.653  13.398   1.556
42054SOL    HW128059  13.582  13.337   1.534
42054SOL    HW228060  13.726  13.371   1.502
42055SOL     OW28061   7.054   6.689   0.496
42055SOL    HW128062   7.066   6.660   0.586
42055SOL    HW228063   7.126   6.751   0.481
42056SOL     OW28064   6.043   8.653  11.073
42056SOL    HW128065   6.045   8.680  10.982
42056SOL    HW228066   5.995   8.723  11.118
42057SOL     OW28067   2.075  12.720  11.626
42057SOL    HW128068   2.144  12.653  11.625
42057SOL    HW228069   2.121  12.800  11.652
42058SOL     OW28070   7.477   9.364  11.089
42058SOL    HW128071   7.554   9.309  11.105
42058SOL    HW228072   7.407   9.302  11.067
42059SOL     OW28073   3.471   1.564  14.283
42059SOL    HW128074   3.422   1.645  14.272
42059SOL    HW228075   3.411   1.506  14.331
42060SOL     OW28076  12.854  13.972   1.313
42060SOL    HW128077  12.865  13.945   1.404
42060SOL    HW228078  12.836  13.890   1.266
42061SOL     OW28079  10.806   6.108   2.914
42061SOL    HW128080  10.878   6.124   2.853
42061SOL    HW228081  10.765   6.193   2.927
42062SOL     OW28082   4.038   5.071   6.810
42062SOL    HW128083   3.944   5.091   6.809
42062SOL    HW228084   4.068   5.105   6.894
42063SOL     OW28085   3.567   9.589   1.942
42063SOL    HW128086   3.511   9.625   1.874
42063SOL    HW228087   3.533   9.501   1.958
42064SOL     OW28088   2.587   2.933  14.304
42064SOL    HW128089   2.552   3.010  14.259
42064SOL    HW228090   2.618   2.875  14.234
42065SOL     OW28091   5.818   3.295   2.312
42065SOL    HW128092   5.912   3.312   2.309
42065SOL    HW228093   5.803   3.228   2.245
42066SOL     OW28094  10.360   9.275  11.690
42066SOL    HW128095  10.362   9.364  11.726
42066SOL    HW228096  10.365   9.288  11.596
42067SOL     OW28097   9.568   9.466  10.854
42067SOL    HW128098   9.505   9.413  10.903
42067SOL    HW228099   9.593   9.536  10.914
42068SOL     OW28100   4.913   7.536  10.424
42068SOL    HW128101   4.890   7.587  10.502
42068SOL    HW228102   4.939   7.601  10.359
42069SOL     OW28103   4.174  13.592   6.834
42069SOL    HW128104   4.231  13.594   6.757
42069SOL    HW228105   4.120  13.671   6.826
42070SOL     OW28106   3.513  11.100   1.275
42070SOL    HW128107   3.452  11.091   1.348
42070SOL    HW228108   3.599  11.109   1.316
42071SOL     OW28109  12.658   1.862   7.283
42071SOL    HW128110  12.710   1.901   7.354
42071SOL    HW228111  12.650   1.770   7.307
42072SOL     OW28112   9.902  12.445   1.511
42072SOL    HW128113   9.858  12.360   1.521
42072SOL    HW228114   9.853  12.490   1.443
42073SOL     OW28115   8.518   6.765  10.573
42073SOL    HW128116   8.567   6.729  10.499
42073SOL    HW228117   8.464   6.691  10.603
42074SOL     OW28118  14.419   2.530  11.994
42074SOL    HW128119  14.431   2.481  12.076
42074SOL    HW228120  14.325   2.533  11.982
42075SOL     OW28121   3.408  12.918   0.963
42075SOL    HW128122   3.487  12.876   0.996
42075SOL    HW228123   3.346  12.845   0.950
42076SOL     OW28124   4.549  12.401   5.608
42076SOL    HW128125   4.488  12.363   5.671
42076SOL    HW228126   4.613  12.332   5.592
42077SOL     OW28127   8.312   6.558   4.318
42077SOL    HW128128   8.255   6.497   4.271
42077SOL    HW228129   8.252   6.610   4.371
42078SOL     OW28130   3.633   4.976  12.457
42078SOL    HW128131   3.569   4.943  12.520
42078SOL    HW228132   3.713   4.925  12.475
42079SOL     OW28133   5.980   4.429   1.363
42079SOL    HW128134   5.970   4.515   1.404
42079SOL    HW228135   5.934   4.437   1.279
42080SOL     OW28136   1.653   7.048  13.340
42080SOL    HW128137   1.596   7.026  13.414
42080SOL    HW228138   1.679   6.964  13.303
42081SOL     OW28139  10.336   1.093   8.614
42081SOL    HW128140  10.253   1.084   8.566
42081SOL    HW228141  10.349   1.007   8.653
42082SOL     OW28142   9.904   4.197   6.332
42082SOL    HW128143   9.972   4.219   6.395
42082SOL    HW228144   9.872   4.281   6.301
42083SOL     OW28145   5.682  14.008  10.356
42083SOL    HW128146   5.661  13.915  10.343
42083SOL    HW228147   5.596  14.050  10.367
42084SOL     OW28148   9.950   8.101   8.541
42084SOL    HW128149   9.919   8.066   8.624
42084SOL    HW228150   9.884   8.165   8.515
42085SOL     OW28151   0.252  12.376   1.682
42085SOL    HW128152   0.300  12.309   1.633
42085SOL    HW228153   0.272  12.356   1.774
42086SOL     OW28154   0.979  14.314  12.765
42086SOL    HW128155   1.011  14.260  12.693
42086SOL    HW228156   0.946  14.393  12.723
42087SOL     OW28157   5.521  14.337   4.302
42087SOL    HW128158   5.525  14.260   4.245
42087SOL    HW228159   5.500  14.409   4.243
42088SOL     OW28160  12.236   1.907   0.724
42088SOL    HW128161  12.287   1.986   0.737
42088SOL    HW228162  12.189   1.895   0.807
42089SOL     OW28163   8.277  11.752   5.536
42089SOL    HW128164   8.228  11.670   5.530
42089SOL    HW228165   8.213  11.817   5.563
42090SOL     OW28166   3.860   5.572  10.954
42090SOL    HW128167   3.888   5.498  10.900
42090SOL    HW228168   3.766   5.560  10.964
42091SOL     OW28169   3.137  12.241  10.211
42091SOL    HW128170   3.076  12.184  10.257
42091SOL    HW228171   3.141  12.320  10.265
42092SOL     OW28172  11.783  14.330   2.005
42092SOL    HW128173  11.861  14.284   2.036
42092SOL    HW228174  11.712  14.266   2.016
42093SOL     OW28175   6.416   4.142   1.989
42093SOL    HW128176   6.461   4.128   2.072
42093SOL    HW228177   6.468   4.209   1.945
42094SOL     OW28178   5.513   8.960  14.174
42094SOL    HW128179   5.529   9.040  14.224
42094SOL    HW228180   5.553   8.977  14.089
42095SOL     OW28181   3.410   4.243   9.623
42095SOL    HW128182   3.462   4.221   9.547
42095SOL    HW228183   3.330   4.283   9.587
42096SOL     OW28184  12.034  10.490   4.160
42096SOL    HW128185  12.098  10.521   4.223
42096SOL    HW228186  12.027  10.561   4.096
42097SOL     OW28187   6.363   1.485   9.563
42097SOL    HW128188   6.428   1.552   9.580
42097SOL    HW228189   6.284   1.517   9.607
42098SOL     OW28190   4.560   2.846  11.933
42098SOL    HW128191   4.530   2.836  12.023
42098SOL    HW228192   4.651   2.815  11.935
42099SOL     OW28193  11.057   9.691   2.050
42099SOL    HW128194  11.052   9.595   2.046
42099SOL    HW228195  11.142   9.712   2.013
42100SOL     OW28196   4.957   6.210   6.594
42100SOL    HW128197   4.885   6.266   6.566
42100SOL    HW228198   4.934   6.183   6.682
42101SOL     OW28199   7.098   2.550   9.530
42101SOL    HW128200   7.033   2.571   9.463
42101SOL    HW228201   7.150   2.630   9.540
42102SOL     OW28202   9.833   7.591   8.781
42102SOL    HW128203   9.926   7.613   8.775
42102SOL    HW228204   9.805   7.634   8.862
42103SOL     OW28205  13.924   4.960   3.613
42103SOL    HW128206  13.984   5.033   3.599
42103SOL    HW228207  13.909   4.924   3.525
42104SOL     OW28208   2.934   5.830   7.943
42104SOL    HW128209   3.030   5.831   7.945
42104SOL    HW228210   2.912   5.799   7.856
42105SOL     OW28211  10.268   2.528  12.337
42105SOL    HW128212  10.222   2.582  12.401
42105SOL    HW228213  10.279   2.584  12.260
42106SOL     OW28214   5.476   0.870   9.257
42106SOL    HW128215   5.557   0.898   9.214
42106SOL    HW228216   5.498   0.866   9.350
42107SOL     OW28217  12.455   1.832   4.444
42107SOL    HW128218  12.484   1.765   4.381
42107SOL    HW228219  12.361   1.841   4.427
42108SOL     OW28220  10.363   4.375   7.745
42108SOL    HW128221  10.432   4.341   7.803
42108SOL    HW228222  10.348   4.305   7.682
42109SOL     OW28223   8.851  10.763  12.536
42109SOL    HW128224   8.818  10.817  12.464
42109SOL    HW228225   8.818  10.675  12.517
42110SOL     OW28226   7.799   0.345   9.178
42110SOL    HW128227   7.739   0.379   9.111
42110SOL    HW228228   7.741   0.306   9.244
42111SOL     OW28229   2.631   1.831  13.568
42111SOL    HW128230   2.558   1.826  13.630
42111SOL    HW228231   2.667   1.742  13.568
42112SOL     OW28232  11.936   3.925   7.570
42112SOL    HW128233  11.945   3.835   7.537
42112SOL    HW228234  12.021   3.944   7.610
42113SOL     OW28235  13.136   6.342   7.454
42113SOL    HW128236  13.062   6.282   7.458
42113SOL    HW228237  13.199   6.298   7.397
42114SOL     OW28238   1.806  12.401  14.272
42114SOL    HW128239   1.791  12.353  14.191
42114SOL    HW228240   1.859  12.342  14.326
42115SOL     OW28241   2.871  11.508  13.832
42115SOL    HW128242   2.961  11.475  13.841
42115SOL    HW228243   2.839  11.512  13.922
42116SOL     OW28244  10.155   0.518   1.293
42116SOL    HW128245  10.164   0.499   1.199
42116SOL    HW228246  10.089   0.587   1.298
42117SOL     OW28247  11.599   3.393  10.288
42117SOL    HW128248  11.637   3.340  10.359
42117SOL    HW228249  11.671   3.450  10.261
42118SOL     OW28250   1.772  12.642   2.323
42118SOL    HW128251   1.829  12.625   2.248
42118SOL    HW228252   1.767  12.737   2.328
42119SOL     OW28253  12.979   6.248   3.503
42119SOL    HW128254  12.947   6.241   3.413
42119SOL    HW228255  12.900   6.261   3.556
42120SOL     OW28256   2.003   5.014   3.044
42120SOL    HW128257   2.042   4.939   2.999
42120SOL    HW228258   1.967   4.977   3.125
42121SOL     OW28259  10.049  11.875  13.901
42121SOL    HW128260  10.134  11.915  13.883
42121SOL    HW228261   9.986  11.943  13.880
42122SOL     OW28262   0.729   2.954  11.238
42122SOL    HW128263   0.666   3.025  11.225
42122SOL    HW228264   0.722   2.931  11.330
42123SOL     OW28265   6.282  14.508   1.472
42123SOL    HW128266   6.241  14.475   1.392
42123SOL    HW228267   6.363  14.457   1.479
42124SOL     OW28268   8.890   0.214  12.828
42124SOL    HW128269   8.908   0.155  12.755
42124SOL    HW228270   8.971   0.215  12.878
42125SOL     OW28271   3.100  12.787   4.276
42125SOL    HW128272   3.095  12.758   4.185
42125SOL    HW228273   3.043  12.727   4.323
42126SOL     OW28274  11.715   1.593  13.946
42126SOL    HW128275  11.690   1.532  14.015
42126SOL    HW228276  11.760   1.539  13.882
42127SOL     OW28277   7.496  13.937  13.080
42127SOL    HW128278   7.402  13.954  13.089
42127SOL    HW228279   7.518  13.885  13.158
42128SOL     OW28280   1.500   9.383   8.014
42128SOL    HW128281   1.489   9.478   8.018
42128SOL    HW228282   1.563   9.364   8.084
42129SOL     OW28283   9.014   4.753   2.901
42129SOL    HW128284   8.997   4.788   2.989
42129SOL    HW228285   9.108   4.770   2.887
42130SOL     OW28286   5.628   5.006  13.416
42130SOL    HW128287   5.647   5.051  13.334
42130SOL    HW228288   5.532   5.001  13.419
42131SOL     OW28289   4.230  12.611  10.735
42131SOL    HW128290   4.296  12.581  10.673
42131SOL    HW228291   4.154  12.633  10.682
42132SOL     OW28292  10.607  10.919   0.426
42132SOL    HW128293  10.660  10.842   0.406
42132SOL    HW228294  10.609  10.925   0.521
42133SOL     OW28295  13.303  11.598   0.851
42133SOL    HW128296  13.361  11.536   0.807
42133SOL    HW228297  13.303  11.675   0.795
42134SOL     OW28298   8.700  14.011   2.496
42134SOL    HW128299   8.670  14.091   2.454
42134SOL    HW228300   8.758  14.041   2.566
42135SOL     OW28301  13.190   2.736   2.294
42135SOL    HW128302  13.121   2.688   2.248
42135SOL    HW228303  13.144   2.800   2.346
42136SOL     OW28304  11.050   3.915   2.814
42136SOL    HW128305  11.109   3.847   2.784
42136SOL    HW228306  10.967   3.896   2.771
42137SOL     OW28307  12.994   4.455   1.558
42137SOL    HW128308  13.066   4.442   1.619
42137SOL    HW228309  12.919   4.414   1.601
42138SOL     OW28310   4.744  10.056   8.034
42138SOL    HW128311   4.803  10.014   8.097
42138SOL    HW228312   4.756  10.007   7.953
42139SOL     OW28313   2.173   7.252  11.113
42139SOL    HW128314   2.247   7.203  11.149
42139SOL    HW228315   2.177   7.235  11.019
42140SOL     OW28316   1.279   6.074   5.051
42140SOL    HW128317   1.333   6.128   5.108
42140SOL    HW228318   1.209   6.132   5.020
42141SOL     OW28319   2.508   8.793   8.839
42141SOL    HW128320   2.578   8.729   8.843
42141SOL    HW228321   2.495   8.819   8.931
42142SOL     OW28322   8.491  11.171  10.626
42142SOL    HW128323   8.423  11.110  10.653
42142SOL    HW228324   8.498  11.160  10.531
42143SOL     OW28325  11.832  12.310   1.305
42143SOL    HW128326  11.862  12.220   1.298
42143SOL    HW228327  11.786  12.314   1.389
42144SOL     OW28328  14.261   7.994   1.571
42144SOL    HW128329  14.304   7.915   1.603
42144SOL    HW228330  14.316   8.066   1.604
42145SOL     OW28331   5.528  11.506  10.694
42145SOL    HW128332   5.448  11.530  10.741
42145SOL    HW228333   5.516  11.542  10.606
42146SOL     OW28334   9.862   8.066  13.645
42146SOL    HW128335   9.775   8.026  13.656
42146SOL    HW228336   9.882   8.103  13.731
42147SOL     OW28337   7.163   7.845   3.842
42147SOL    HW128338   7.213   7.805   3.914
42147SOL    HW228339   7.075   7.809   3.851
42148SOL     OW28340  13.008  12.737  10.782
42148SOL    HW128341  12.977  12.735  10.872
42148SOL    HW228342  13.038  12.827  10.769
42149SOL     OW28343   7.916   6.425  13.351
42149SOL    HW128344   7.854   6.480  13.304
42149SOL    HW228345   7.964   6.379  13.282
42150SOL     OW28346   7.172  14.632  12.092
42150SOL    HW128347   7.106  14.574  12.054
42150SOL    HW228348   7.204  14.585  12.169
42151SOL     OW28349  10.629   9.881   6.781
42151SOL    HW128350  10.561   9.824   6.819
42151SOL    HW228351  10.698   9.884   6.847
42152SOL     OW28352  11.608   0.867   0.595
42152SOL    HW128353  11.664   0.798   0.560
42152SOL    HW228354  11.622   0.941   0.536
42153SOL     OW28355   5.798  11.180   8.588
42153SOL    HW128356   5.745  11.226   8.653
42153SOL    HW228357   5.735  11.151   8.521
42154SOL     OW28358   4.571   3.213   4.677
42154SOL    HW128359   4.500   3.269   4.708
42154SOL    HW228360   4.534   3.125   4.676
42155SOL     OW28361  10.380  11.959   6.720
42155SOL    HW128362  10.291  11.986   6.695
42155SOL    HW228363  10.435  11.986   6.647
42156SOL     OW28364   5.117  13.198   0.894
42156SOL    HW128365   5.147  13.228   0.980
42156SOL    HW228366   5.044  13.139   0.913
42157SOL     OW28367  10.417   0.241   3.770
42157SOL    HW128368  10.480   0.292   3.820
42157SOL    HW228369  10.370   0.189   3.835
42158SOL     OW28370   1.693   7.607   6.974
42158SOL    HW128371   1.653   7.661   6.906
42158SOL    HW228372   1.777   7.579   6.937
42159SOL     OW28373   6.820   5.773   9.485
42159SOL    HW128374   6.896   5.787   9.427
42159SOL    HW228375   6.858   5.773   9.573
42160SOL     OW28376   9.892  13.431   0.421
42160SOL    HW128377   9.927  13.357   0.470
42160SOL    HW228378   9.956  13.445   0.350
42161SOL     OW28379   9.022   5.358   7.908
42161SOL    HW128380   8.938   5.401   7.895
42161SOL    HW228381   9.064   5.362   7.822
42162SOL     OW28382   3.957  13.281   9.275
42162SOL    HW128383   3.922  13.211   9.331
42162SOL    HW228384   3.960  13.241   9.188
42163SOL     OW28385   1.351   0.226   4.674
42163SOL    HW128386   1.266   0.209   4.715
42163SOL    HW228387   1.342   0.312   4.633
42164SOL     OW28388  10.845   0.671  10.388
42164SOL    HW128389  10.814   0.660  10.298
42164SOL    HW228390  10.816   0.759  10.412
42165SOL     OW28391   8.121   6.093   3.352
42165SOL    HW128392   8.027   6.087   3.335
42165SOL    HW228393   8.143   6.008   3.390
42166SOL     OW28394   3.930   4.119   4.662
42166SOL    HW128395   3.974   4.204   4.657
42166SOL    HW228396   3.999   4.058   4.687
42167SOL     OW28397   1.252  10.270  12.991
42167SOL    HW128398   1.321  10.295  12.931
42167SOL    HW228399   1.239  10.176  12.974
42168SOL     OW28400   6.538  10.697   6.079
42168SOL    HW128401   6.527  10.776   6.132
42168SOL    HW228402   6.449  10.669   6.060
42169SOL     OW28403   1.682   8.363   2.644
42169SOL    HW128404   1.716   8.308   2.714
42169SOL    HW228405   1.722   8.448   2.658
42170SOL     OW28406  10.677   7.897   6.233
42170SOL    HW128407  10.724   7.832   6.182
42170SOL    HW228408  10.711   7.981   6.202
42171SOL     OW28409   6.418   8.664  11.457
42171SOL    HW128410   6.390   8.642  11.546
42171SOL    HW228411   6.444   8.756  11.462
42172SOL     OW28412   3.063   9.606   3.113
42172SOL    HW128413   3.041   9.528   3.163
42172SOL    HW228414   3.017   9.677   3.158
42173SOL     OW28415  11.362  12.645   1.511
42173SOL    HW128416  11.379  12.710   1.579
42173SOL    HW228417  11.373  12.693   1.429
42174SOL     OW28418   4.198   3.100   2.580
42174SOL    HW128419   4.125   3.044   2.552
42174SOL    HW228420   4.155   3.176   2.620
42175SOL     OW28421   7.615  12.686   0.163
42175SOL    HW128422   7.657  12.607   0.129
42175SOL    HW228423   7.523  12.675   0.143
42176SOL     OW28424   4.588   0.809   8.937
42176SOL    HW128425   4.621   0.762   9.014
42176SOL    HW228426   4.563   0.740   8.876
42177SOL     OW28427  13.920   1.892   4.092
42177SOL    HW128428  13.869   1.917   4.170
42177SOL    HW228429  13.960   1.974   4.063
42178SOL     OW28430   1.198   4.874   2.420
42178SOL    HW128431   1.213   4.944   2.356
42178SOL    HW228432   1.276   4.819   2.415
42179SOL     OW28433  10.631  12.040   7.327
42179SOL    HW128434  10.672  12.103   7.386
42179SOL    HW228435  10.602  11.970   7.385
42180SOL     OW28436  13.467   0.610  10.515
42180SOL    HW128437  13.394   0.548  10.510
42180SOL    HW228438  13.465   0.656  10.431
42181SOL     OW28439  14.377   4.298  12.602
42181SOL    HW128440  14.297   4.350  12.593
42181SOL    HW228441  14.448   4.363  12.603
42182SOL     OW28442   7.756   8.321  11.126
42182SOL    HW128443   7.692   8.389  11.105
42182SOL    HW228444   7.823   8.365  11.178
42183SOL     OW28445   6.871   2.158   6.419
42183SOL    HW128446   6.871   2.251   6.442
42183SOL    HW228447   6.835   2.155   6.331
42184SOL     OW28448   9.100   8.540   3.885
42184SOL    HW128449   9.122   8.461   3.837
42184SOL    HW228450   9.181   8.564   3.930
42185SOL     OW28451   6.752   0.905   7.189
42185SOL    HW128452   6.715   0.918   7.101
42185SOL    HW228453   6.693   0.953   7.247
42186SOL     OW28454   3.493  12.362  12.628
42186SOL    HW128455   3.426  12.430  12.640
42186SOL    HW228456   3.446  12.288  12.590
42187SOL     OW28457   1.560  10.003  13.563
42187SOL    HW128458   1.536   9.995  13.471
42187SOL    HW228459   1.476   9.997  13.610
42188SOL     OW28460  12.214   9.195   9.758
42188SOL    HW128461  12.248   9.200   9.669
42188SOL    HW228462  12.289   9.214   9.814
42189SOL     OW28463   0.721   0.810   7.078
42189SOL    HW128464   0.661   0.837   7.009
42189SOL    HW228465   0.779   0.747   7.036
42190SOL     OW28466   1.127  11.061   4.864
42190SOL    HW128467   1.198  11.007   4.828
42190SOL    HW228468   1.081  11.002   4.924
42191SOL     OW28469  11.787   4.682   2.156
42191SOL    HW128470  11.832   4.761   2.185
42191SOL    HW228471  11.715   4.714   2.101
42192SOL     OW28472  10.358   4.919  11.049
42192SOL    HW128473  10.365   4.854  11.119
42192SOL    HW228474  10.269   4.954  11.058
42193SOL     OW28475   9.133   0.304   2.886
42193SOL    HW128476   9.156   0.374   2.825
42193SOL    HW228477   9.145   0.343   2.973
42194SOL     OW28478  14.187  10.721   9.580
42194SOL    HW128479  14.130  10.654   9.617
42194SOL    HW228480  14.233  10.758   9.656
42195SOL     OW28481  10.008  13.701   3.081
42195SOL    HW128482  10.040  13.612   3.068
42195SOL    HW228483   9.950  13.717   3.007
42196SOL     OW28484  11.650  11.667  12.194
42196SOL    HW128485  11.632  11.611  12.118
42196SOL    HW228486  11.580  11.646  12.256
42197SOL     OW28487  10.632   5.878  13.559
42197SOL    HW128488  10.612   5.807  13.620
42197SOL    HW228489  10.563   5.873  13.493
42198SOL     OW28490  13.871   3.233  12.875
42198SOL    HW128491  13.912   3.282  12.803
42198SOL    HW228492  13.843   3.151  12.834
42199SOL     OW28493   4.825   6.954   1.065
42199SOL    HW128494   4.877   6.877   1.041
42199SOL    HW228495   4.797   6.937   1.155
42200SOL     OW28496   8.241  13.401   2.955
42200SOL    HW128497   8.243  13.492   2.985
42200SOL    HW228498   8.332  13.380   2.935
42201SOL     OW28499  11.643   9.014  12.331
42201SOL    HW128500  11.718   8.967  12.369
42201SOL    HW228501  11.625   8.968  12.249
42202SOL     OW28502  12.487  12.905  13.062
42202SOL    HW128503  12.471  12.932  13.152
42202SOL    HW228504  12.484  12.809  13.065
42203SOL     OW28505   1.440  10.651   5.932
42203SOL    HW128506   1.455  10.610   5.846
42203SOL    HW228507   1.523  10.693   5.953
42204SOL     OW28508   4.929  13.575   4.321
42204SOL    HW128509   4.854  13.615   4.365
42204SOL    HW228510   4.986  13.648   4.298
42205SOL     OW28511   6.742   1.538  11.424
42205SOL    HW128512   6.708   1.509  11.508
42205SOL    HW228513   6.747   1.633  11.431
42206SOL     OW28514   8.274   7.094  14.016
42206SOL    HW128515   8.306   7.034  14.083
42206SOL    HW228516   8.276   7.044  13.935
42207SOL     OW28517   7.474  12.052   4.600
42207SOL    HW128518   7.408  12.119   4.620
42207SOL    HW228519   7.549  12.075   4.654
42208SOL     OW28520  13.618   7.214  13.270
42208SOL    HW128521  13.704   7.180  13.297
42208SOL    HW228522  13.630   7.240  13.179
42209SOL     OW28523   8.598   6.936   0.016
42209SOL    HW128524   8.533   6.983  14.833
42209SOL    HW228525   8.546   6.886   0.079
42210SOL     OW28526   6.441   8.813  12.459
42210SOL    HW128527   6.515   8.780  12.407
42210SOL    HW228528   6.394   8.871  12.399
42211SOL     OW28529  12.453   5.562   4.037
42211SOL    HW128530  12.436   5.655   4.052
42211SOL    HW228531  12.425   5.546   3.947
42212SOL     OW28532   0.570   9.946   1.557
42212SOL    HW128533   0.495   9.935   1.615
42212SOL    HW228534   0.646   9.922   1.611
42213SOL     OW28535  12.745   4.912   3.396
42213SOL    HW128536  12.688   4.936   3.323
42213SOL    HW228537  12.744   4.816   3.397
42214SOL     OW28538   2.477   4.425   5.863
42214SOL    HW128539   2.478   4.399   5.955
42214SOL    HW228540   2.460   4.344   5.815
42215SOL     OW28541  14.229   7.330  14.547
42215SOL    HW128542  14.307   7.293  14.507
42215SOL    HW228543  14.156   7.293  14.497
42216SOL     OW28544  13.863   1.281   9.730
42216SOL    HW128545  13.842   1.191   9.755
42216SOL    HW228546  13.873   1.328   9.812
42217SOL     OW28547   3.726   9.002   7.347
42217SOL    HW128548   3.814   8.963   7.348
42217SOL    HW228549   3.721   9.049   7.430
42218SOL     OW28550  12.574   7.257   2.466
42218SOL    HW128551  12.613   7.324   2.522
42218SOL    HW228552  12.604   7.174   2.503
42219SOL     OW28553   3.612  11.541  13.020
42219SOL    HW128554   3.621  11.451  12.988
42219SOL    HW228555   3.669  11.593  12.963
42220SOL     OW28556  11.761  10.167   8.534
42220SOL    HW128557  11.803  10.160   8.448
42220SOL    HW228558  11.668  10.155   8.516
42221SOL     OW28559  14.429   0.833   5.836
42221SOL    HW128560  14.396   0.857   5.923
42221SOL    HW228561  14.480   0.909   5.809
42222SOL     OW28562   9.343  10.445  14.626
42222SOL    HW128563   9.297  10.373  14.668
42222SOL    HW228564   9.375  10.499  14.698
42223SOL     OW28565   4.940  10.226   5.452
42223SOL    HW128566   4.868  10.229   5.389
42223SOL    HW228567   4.956  10.133   5.466
42224SOL     OW28568  13.601  12.062  13.560
42224SOL    HW128569  13.595  12.112  13.642
42224SOL    HW228570  13.684  12.090  13.521
42225SOL     OW28571   2.134  10.217  10.607
42225SOL    HW128572   2.183  10.294  10.578
42225SOL    HW228573   2.074  10.251  10.674
42226SOL     OW28574   6.189   9.329   9.564
42226SOL    HW128575   6.115   9.303   9.620
42226SOL    HW228576   6.225   9.406   9.607
42227SOL     OW28577   4.464   7.415   2.979
42227SOL    HW128578   4.435   7.379   3.062
42227SOL    HW228579   4.522   7.348   2.942
42228SOL     OW28580   1.369   3.613   8.807
42228SOL    HW128581   1.298   3.670   8.838
42228SOL    HW228582   1.341   3.586   8.720
42229SOL     OW28583   3.462   8.094   1.160
42229SOL    HW128584   3.375   8.131   1.174
42229SOL    HW228585   3.512   8.164   1.117
42230SOL     OW28586   1.624   1.383  13.601
42230SOL    HW128587   1.535   1.417  13.614
42230SOL    HW228588   1.667   1.394  13.685
42231SOL     OW28589   3.130   5.887   7.021
42231SOL    HW128590   3.084   5.829   7.081
42231SOL    HW228591   3.212   5.908   7.066
42232SOL     OW28592   6.590  14.541   3.409
42232SOL    HW128593   6.507  14.590   3.409
42232SOL    HW228594   6.628  14.560   3.495
42233SOL     OW28595   0.230   7.121   3.359
42233SOL    HW128596   0.148   7.075   3.377
42233SOL    HW228597   0.295   7.051   3.352
42234SOL     OW28598   3.518   1.516  13.860
42234SOL    HW128599   3.488   1.601  13.828
42234SOL    HW228600   3.439   1.473  13.893
42235SOL     OW28601   8.819   6.329   2.808
42235SOL    HW128602   8.786   6.266   2.872
42235SOL    HW228603   8.913   6.314   2.806
42236SOL     OW28604  13.036   9.616   6.368
42236SOL    HW128605  13.104   9.553   6.343
42236SOL    HW228606  13.032   9.677   6.295
42237SOL     OW28607   5.035   8.123   6.143
42237SOL    HW128608   5.039   8.055   6.210
42237SOL    HW228609   5.046   8.077   6.060
42238SOL     OW28610  13.016   9.190  14.399
42238SOL    HW128611  13.055   9.272  14.428
42238SOL    HW228612  12.955   9.166  14.469
42239SOL     OW28613  10.398  12.365   5.102
42239SOL    HW128614  10.455  12.302   5.145
42239SOL    HW228615  10.341  12.398   5.172
42240SOL     OW28616   9.062  11.818   9.475
42240SOL    HW128617   9.063  11.835   9.570
42240SOL    HW228618   8.983  11.766   9.461
42241SOL     OW28619   7.914   8.191   8.319
42241SOL    HW128620   7.865   8.110   8.302
42241SOL    HW228621   7.848   8.251   8.354
42242SOL     OW28622  12.211   7.572  10.172
42242SOL    HW128623  12.141   7.560  10.236
42242SOL    HW228624  12.236   7.664  10.181
42243SOL     OW28625   5.730   9.738   5.040
42243SOL    HW128626   5.820   9.765   5.020
42243SOL    HW228627   5.724   9.648   5.008
42244SOL     OW28628   3.937  13.150   9.036
42244SOL    HW128629   3.911  13.170   8.946
42244SOL    HW228630   3.942  13.054   9.038
42245SOL     OW28631  10.114   4.033   3.572
42245SOL    HW128632  10.053   3.995   3.636
42245SOL    HW228633  10.163   3.958   3.539
42246SOL     OW28634   4.851  14.199   0.961
42246SOL    HW128635   4.876  14.108   0.941
42246SOL    HW228636   4.809  14.194   1.046
42247SOL     OW28637   2.881   9.698   3.894
42247SOL    HW128638   2.832   9.659   3.822
42247SOL    HW228639   2.824   9.690   3.970
42248SOL     OW28640   8.561   4.814   7.535
42248SOL    HW128641   8.630   4.756   7.502
42248SOL    HW228642   8.593   4.902   7.516
42249SOL     OW28643   9.105   4.127   6.312
42249SOL    HW128644   9.190   4.160   6.282
42249SOL    HW228645   9.041   4.171   6.255
42250SOL     OW28646  10.546   5.076   4.069
42250SOL    HW128647  10.587   5.084   3.983
42250SOL    HW228648  10.620   5.064   4.130
42251SOL     OW28649   9.851   8.825  11.995
42251SOL    HW128650   9.855   8.889  12.066
42251SOL    HW228651   9.939   8.789  11.990
42252SOL     OW28652  11.586  13.039   1.505
42252SOL    HW128653  11.611  13.009   1.417
42252SOL    HW228654  11.663  13.022   1.559
42253SOL     OW28655   5.848   7.225   1.359
42253SOL    HW128656   5.788   7.247   1.287
42253SOL    HW228657   5.933   7.217   1.316
42254SOL     OW28658   2.026  11.356   0.233
42254SOL    HW128659   2.011  11.440   0.188
42254SOL    HW228660   1.941  11.313   0.231
42255SOL     OW28661  11.589  14.323   9.466
42255SOL    HW128662  11.516  14.383   9.453
42255SOL    HW228663  11.553  14.237   9.444
42256SOL     OW28664   5.642  14.768  14.187
42256SOL    HW128665   5.562  14.815  14.164
42256SOL    HW228666   5.710  14.811  14.134
42257SOL     OW28667  10.559   3.360  11.929
42257SOL    HW128668  10.630   3.403  11.881
42257SOL    HW228669  10.482   3.369  11.872
42258SOL     OW28670   0.889   7.249   3.500
42258SOL    HW128671   0.981   7.240   3.526
42258SOL    HW228672   0.875   7.178   3.438
42259SOL     OW28673   3.127   5.753   6.032
42259SOL    HW128674   3.045   5.783   5.993
42259SOL    HW228675   3.105   5.740   6.125
42260SOL     OW28676   3.980   8.491   1.487
42260SOL    HW128677   3.902   8.544   1.471
42260SOL    HW228678   4.045   8.552   1.520
42261SOL     OW28679   7.235   6.069   3.702
42261SOL    HW128680   7.294   6.121   3.647
42261SOL    HW228681   7.167   6.039   3.643
42262SOL     OW28682   2.066  10.933  12.904
42262SOL    HW128683   2.017  10.905  12.827
42262SOL    HW228684   2.110  10.854  12.935
42263SOL     OW28685   8.771   1.000   3.103
42263SOL    HW128686   8.857   1.002   3.062
42263SOL    HW228687   8.710   0.991   3.031
42264SOL     OW28688   8.400   3.244   3.786
42264SOL    HW128689   8.430   3.180   3.851
42264SOL    HW228690   8.343   3.304   3.835
42265SOL     OW28691   7.123   0.827   9.120
42265SOL    HW128692   7.179   0.895   9.159
42265SOL    HW228693   7.054   0.875   9.075
42266SOL     OW28694   8.034  12.127   7.183
42266SOL    HW128695   8.113  12.168   7.218
42266SOL    HW228696   7.962  12.173   7.227
42267SOL     OW28697   0.025   8.541   0.344
42267SOL    HW128698  14.854   8.468   0.391
42267SOL    HW228699   0.029   8.612   0.408
42268SOL     OW28700   9.669  14.550  11.590
42268SOL    HW128701   9.654  14.457  11.609
42268SOL    HW228702   9.613  14.597  11.651
42269SOL     OW28703   8.264   0.011  10.385
42269SOL    HW128704   8.340   0.049  10.341
42269SOL    HW228705   8.299  14.806  10.434
42270SOL     OW28706  11.699   6.056   6.438
42270SOL    HW128707  11.740   6.122   6.381
42270SOL    HW228708  11.752   5.978   6.424
42271SOL     OW28709  14.801   4.284   2.753
42271SOL    HW128710   0.008   4.251   2.799
42271SOL    HW228711  14.745   4.207   2.740
42272SOL     OW28712   7.770  14.018   6.165
42272SOL    HW128713   7.838  14.060   6.113
42272SOL    HW228714   7.768  14.068   6.247
42273SOL     OW28715   0.236  13.866  10.072
42273SOL    HW128716   0.221  13.851  10.165
42273SOL    HW228717   0.327  13.895  10.067
42274SOL     OW28718  14.549   4.725   1.295
42274SOL    HW128719  14.609   4.651   1.303
42274SOL    HW228720  14.467   4.686   1.265
42275SOL     OW28721   9.367  11.979  12.752
42275SOL    HW128722   9.436  12.045  12.757
42275SOL    HW228723   9.297  12.021  12.703
42276SOL     OW28724   5.077   0.366   2.935
42276SOL    HW128725   5.070   0.458   2.910
42276SOL    HW228726   5.082   0.319   2.852
42277SOL     OW28727   1.856   4.725   0.931
42277SOL    HW128728   1.868   4.630   0.923
42277SOL    HW228729   1.774   4.742   0.886
42278SOL     OW28730   9.880  14.485   1.285
42278SOL    HW128731   9.859  14.431   1.209
42278SOL    HW228732   9.820  14.454   1.354
42279SOL     OW28733   6.833   9.324   1.579
42279SOL    HW128734   6.827   9.281   1.664
42279SOL    HW228735   6.871   9.410   1.598
42280SOL     OW28736   9.468   2.091   0.203
42280SOL    HW128737   9.526   2.145   0.256
42280SOL    HW228738   9.495   2.108   0.113
42281SOL     OW28739  13.501   9.227   2.178
42281SOL    HW128740  13.555   9.209   2.101
42281SOL    HW228741  13.552   9.192   2.251
42282SOL     OW28742   6.411   9.513  11.775
42282SOL    HW128743   6.387   9.430  11.816
42282SOL    HW228744   6.461   9.559  11.842
42283SOL     OW28745   4.821   3.674  10.031
42283SOL    HW128746   4.827   3.579  10.016
42283SOL    HW228747   4.892   3.711   9.979
42284SOL     OW28748   6.879  10.502  10.001
42284SOL    HW128749   6.837  10.481   9.917
42284SOL    HW228750   6.949  10.438  10.010
42285SOL     OW28751   3.789   0.789   5.318
42285SOL    HW128752   3.722   0.739   5.365
42285SOL    HW228753   3.766   0.881   5.332
42286SOL     OW28754  12.725   4.177   7.813
42286SOL    HW128755  12.811   4.139   7.799
42286SOL    HW228756  12.666   4.121   7.763
42287SOL     OW28757   5.394   0.814   6.567
42287SOL    HW128758   5.428   0.757   6.636
42287SOL    HW228759   5.469   0.869   6.543
42288SOL     OW28760  11.278   6.681   3.754
42288SOL    HW128761  11.248   6.715   3.839
42288SOL    HW228762  11.366   6.715   3.744
42289SOL     OW28763   1.742   6.083   1.964
42289SOL    HW128764   1.725   6.071   2.057
42289SOL    HW228765   1.790   6.005   1.938
42290SOL     OW28766   5.363   8.495   0.371
42290SOL    HW128767   5.391   8.417   0.322
42290SOL    HW228768   5.408   8.488   0.455
42291SOL     OW28769  12.133   8.246   3.743
42291SOL    HW128770  12.075   8.323   3.750
42291SOL    HW228771  12.197   8.259   3.813
42292SOL     OW28772  14.845   3.654   3.046
42292SOL    HW128773  14.807   3.710   3.114
42292SOL    HW228774  14.839   3.706   2.966
42293SOL     OW28775  13.692   2.850  11.054
42293SOL    HW128776  13.729   2.765  11.077
42293SOL    HW228777  13.602   2.846  11.086
42294SOL     OW28778   1.493  14.329   5.212
42294SOL    HW128779   1.456  14.240   5.218
42294SOL    HW228780   1.580  14.321   5.252
42295SOL     OW28781   4.847   1.287   6.201
42295SOL    HW128782   4.918   1.341   6.236
42295SOL    HW228783   4.866   1.199   6.234
42296SOL     OW28784  13.814   9.514   4.420
42296SOL    HW128785  13.900   9.555   4.430
42296SOL    HW228786  13.798   9.515   4.325
42297SOL     OW28787  14.743   9.038   8.510
42297SOL    HW128788  14.695   8.960   8.540
42297SOL    HW228789  14.786   9.010   8.429
42298SOL     OW28790  10.358  12.622  13.853
42298SOL    HW128791  10.323  12.545  13.807
42298SOL    HW228792  10.383  12.588  13.940
42299SOL     OW28793   8.008   1.606   3.496
42299SOL    HW128794   8.074   1.612   3.565
42299SOL    HW228795   8.011   1.690   3.452
42300SOL     OW28796   7.541   1.742   5.331
42300SOL    HW128797   7.600   1.673   5.363
42300SOL    HW228798   7.573   1.762   5.243
42301SOL     OW28799   2.377  14.513  14.115
42301SOL    HW128800   2.422  14.442  14.069
42301SOL    HW228801   2.300  14.472  14.153
42302SOL     OW28802  10.943  11.576   7.308
42302SOL    HW128803  10.923  11.516   7.236
42302SOL    HW228804  11.000  11.642   7.269
42303SOL     OW28805   9.475   7.396  14.184
42303SOL    HW128806   9.493   7.489  14.192
42303SOL    HW228807   9.543   7.363  14.125
42304SOL     OW28808   7.152   8.252  12.529
42304SOL    HW128809   7.125   8.185  12.466
42304SOL    HW228810   7.112   8.332  12.496
42305SOL     OW28811   4.242  14.400   0.331
42305SOL    HW128812   4.298  14.459   0.280
42305SOL    HW228813   4.303  14.342   0.376
42306SOL     OW28814   4.191  10.600   6.811
42306SOL    HW128815   4.199  10.567   6.900
42306SOL    HW228816   4.244  10.540   6.758
42307SOL     OW28817  12.016  10.867  12.609
42307SOL    HW128818  11.942  10.865  12.548
42307SOL    HW228819  11.975  10.872  12.695
42308SOL     OW28820  13.356  12.136   2.575
42308SOL    HW128821  13.299  12.202   2.536
42308SOL    HW228822  13.426  12.187   2.617
42309SOL     OW28823   8.879   7.640  13.035
42309SOL    HW128824   8.860   7.693  13.112
42309SOL    HW228825   8.956   7.681  12.995
42310SOL     OW28826  12.068   2.321   1.386
42310SOL    HW128827  12.028   2.238   1.413
42310SOL    HW228828  12.053   2.325   1.292
42311SOL     OW28829   4.404   0.426  13.324
42311SOL    HW128830   4.396   0.511  13.280
42311SOL    HW228831   4.408   0.362  13.252
42312SOL     OW28832   6.961   5.013   2.080
42312SOL    HW128833   6.919   4.932   2.111
42312SOL    HW228834   6.949   5.075   2.152
42313SOL     OW28835   9.741   1.928   3.984
42313SOL    HW128836   9.753   2.022   3.971
42313SOL    HW228837   9.647   1.915   3.972
42314SOL     OW28838   8.129   1.880   1.596
42314SOL    HW128839   8.181   1.924   1.664
42314SOL    HW228840   8.062   1.832   1.645
42315SOL     OW28841   4.814  11.285  12.038
42315SOL    HW128842   4.829  11.195  12.009
42315SOL    HW228843   4.835  11.339  11.961
42316SOL     OW28844   5.703   3.067   9.065
42316SOL    HW128845   5.709   2.979   9.029
42316SOL    HW228846   5.683   3.054   9.158
42317SOL     OW28847   5.729   2.242  10.935
42317SOL    HW128848   5.675   2.171  10.900
42317SOL    HW228849   5.684   2.322  10.908
42318SOL     OW28850   5.049   5.756   3.101
42318SOL    HW128851   5.064   5.800   3.017
42318SOL    HW228852   5.020   5.668   3.076
42319SOL     OW28853  11.236   3.631   9.175
42319SOL    HW128854  11.299   3.664   9.111
42319SOL    HW228855  11.163   3.692   9.173
42320SOL     OW28856   1.251   6.428   2.227
42320SOL    HW128857   1.255   6.483   2.149
42320SOL    HW228858   1.158   6.427   2.251
42321SOL     OW28859   2.286   6.184  13.750
42321SOL    HW128860   2.345   6.136  13.807
42321SOL    HW228861   2.200   6.143  13.764
42322SOL     OW28862   5.797   4.527   3.432
42322SOL    HW128863   5.875   4.553   3.480
42322SOL    HW228864   5.805   4.569   3.347
42323SOL     OW28865   7.092   4.812  12.737
42323SOL    HW128866   7.162   4.765  12.692
42323SOL    HW228867   7.125   4.826  12.826
42324SOL     OW28868   5.645   0.672   7.294
42324SOL    HW128869   5.643   0.729   7.371
42324SOL    HW228870   5.710   0.605   7.317
42325SOL     OW28871  10.987   8.711   3.444
42325SOL    HW128872  10.938   8.778   3.396
42325SOL    HW228873  11.063   8.758   3.478
42326SOL     OW28874   9.720   5.974   1.240
42326SOL    HW128875   9.742   5.945   1.151
42326SOL    HW228876   9.632   5.939   1.256
42327SOL     OW28877   2.912  14.854   6.905
42327SOL    HW128878   2.975   0.053   6.927
42327SOL    HW228879   2.827   0.020   6.932
42328SOL     OW28880  11.615   4.928  13.510
42328SOL    HW128881  11.593   4.869  13.438
42328SOL    HW228882  11.619   4.871  13.587
42329SOL     OW28883  13.525   0.036  14.309
42329SOL    HW128884  13.459   0.016  14.244
42329SOL    HW228885  13.592  14.839  14.296
42330SOL     OW28886   1.391   7.275   3.138
42330SOL    HW128887   1.345   7.355   3.112
42330SOL    HW228888   1.455   7.304   3.202
42331SOL     OW28889   9.758   8.235   6.631
42331SOL    HW128890   9.791   8.234   6.721
42331SOL    HW228891   9.667   8.263   6.639
42332SOL     OW28892  10.397  13.170   1.794
42332SOL    HW128893  10.487  13.199   1.810
42332SOL    HW228894  10.386  13.180   1.700
42333SOL     OW28895   1.891  12.976  13.522
42333SOL    HW128896   1.833  12.995  13.448
42333SOL    HW228897   1.969  13.028  13.506
42334SOL     OW28898   2.944  12.142   4.523
42334SOL    HW128899   2.904  12.195   4.454
42334SOL    HW228900   2.956  12.203   4.596
42335SOL     OW28901  11.874  12.516  10.732
42335SOL    HW128902  11.966  12.507  10.758
42335SOL    HW228903  11.843  12.426  10.721
42336SOL     OW28904  13.803   1.088   0.320
42336SOL    HW128905  13.773   1.109   0.232
42336SOL    HW228906  13.722   1.079   0.371
42337SOL     OW28907   0.162   9.703   4.192
42337SOL    HW128908   0.100   9.740   4.255
42337SOL    HW228909   0.172   9.612   4.219
42338SOL     OW28910   0.566  11.220   9.146
42338SOL    HW128911   0.625  11.295   9.136
42338SOL    HW228912   0.543  11.196   9.056
42339SOL     OW28913   8.466   6.791   6.969
42339SOL    HW128914   8.555   6.768   6.940
42339SOL    HW228915   8.473   6.882   6.997
42340SOL     OW28916   9.179   2.389  11.267
42340SOL    HW128917   9.245   2.321  11.257
42340SOL    HW228918   9.111   2.367  11.204
42341SOL     OW28919   8.730   5.894   1.582
42341SOL    HW128920   8.819   5.926   1.572
42341SOL    HW228921   8.708   5.913   1.673
42342SOL     OW28922  10.136  11.916   4.592
42342SOL    HW128923  10.108  11.962   4.672
42342SOL    HW228924  10.120  11.824   4.610
42343SOL     OW28925  13.912  10.873   7.026
42343SOL    HW128926  13.925  10.888   6.933
42343SOL    HW228927  13.981  10.924   7.069
42344SOL     OW28928  13.997   5.545   1.828
42344SOL    HW128929  14.003   5.633   1.866
42344SOL    HW228930  13.917   5.548   1.776
42345SOL     OW28931   3.102   2.455  13.546
42345SOL    HW128932   3.196   2.473  13.542
42345SOL    HW228933   3.064   2.512  13.479
42346SOL     OW28934   5.721   5.246   8.069
42346SOL    HW128935   5.737   5.334   8.036
42346SOL    HW228936   5.807   5.215   8.097
42347SOL     OW28937   8.038   2.459  14.283
42347SOL    HW128938   8.095   2.457  14.207
42347SOL    HW228939   8.072   2.530  14.337
42348SOL     OW28940  11.962  14.022   5.973
42348SOL    HW128941  11.923  14.006   5.887
42348SOL    HW228942  11.940  13.945   6.024
42349SOL     OW28943  12.741   7.352   7.838
42349SOL    HW128944  12.646   7.359   7.834
42349SOL    HW228945  12.765   7.298   7.762
42350SOL     OW28946   5.085  12.756   2.797
42350SOL    HW128947   5.008  12.806   2.768
42350SOL    HW228948   5.090  12.772   2.891
42351SOL     OW28949   7.160  12.865  11.549
42351SOL    HW128950   7.241  12.883  11.597
42351SOL    HW228951   7.154  12.769  11.550
42352SOL     OW28952  10.394   8.916  10.092
42352SOL    HW128953  10.409   8.993  10.039
42352SOL    HW228954  10.427   8.843  10.039
42353SOL     OW28955   5.680   4.345   0.563
42353SOL    HW128956   5.668   4.254   0.533
42353SOL    HW228957   5.701   4.337   0.656
42354SOL     OW28958   4.892   2.676   5.684
42354SOL    HW128959   4.922   2.767   5.689
42354SOL    HW228960   4.918   2.638   5.769
42355SOL     OW28961   7.294   1.025   5.374
42355SOL    HW128962   7.202   1.036   5.349
42355SOL    HW228963   7.291   0.976   5.456
42356SOL     OW28964   8.962   6.607   2.521
42356SOL    HW128965   8.892   6.662   2.554
42356SOL    HW228966   8.963   6.531   2.580
42357SOL     OW28967   0.147   2.988  12.483
42357SOL    HW128968   0.186   2.907  12.451
42357SOL    HW228969   0.101   2.963  12.563
42358SOL     OW28970   9.630  10.505   2.536
42358SOL    HW128971   9.553  10.561   2.553
42358SOL    HW228972   9.699  10.566   2.512
42359SOL     OW28973   3.326   9.223   8.278
42359SOL    HW128974   3.292   9.162   8.213
42359SOL    HW228975   3.288   9.195   8.361
42360SOL     OW28976   7.634   4.562  13.617
42360SOL    HW128977   7.693   4.498  13.577
42360SOL    HW228978   7.582   4.512  13.679
42361SOL     OW28979  14.813   3.868   3.688
42361SOL    HW128980  14.746   3.937   3.699
42361SOL    HW228981   0.019   3.914   3.653
42362SOL     OW28982  13.664   1.213   0.122
42362SOL    HW128983  13.686   1.288   0.177
42362SOL    HW228984  13.580   1.183   0.156
42363SOL     OW28985   2.863   4.635  12.011
42363SOL    HW128986   2.925   4.671  12.074
42363SOL    HW228987   2.799   4.705  11.998
42364SOL     OW28988   6.641  14.176  13.245
42364SOL    HW128989   6.561  14.215  13.209
42364SOL    HW228990   6.610  14.109  13.306
42365SOL     OW28991   2.053  11.295   5.387
42365SOL    HW128992   2.077  11.216   5.339
42365SOL    HW228993   2.051  11.364   5.321
42366SOL     OW28994   9.379   1.830   0.572
42366SOL    HW128995   9.343   1.880   0.645
42366SOL    HW228996   9.312   1.834   0.504
42367SOL     OW28997  13.024   3.008  14.534
42367SOL    HW128998  13.064   3.047  14.456
42367SOL    HW228999  13.076   2.928  14.550
42368SOL     OW29000  11.494   7.367  10.478
42368SOL    HW129001  11.477   7.424  10.403
42368SOL    HW229002  11.450   7.285  10.457
42369SOL     OW29003   7.726   4.043  12.921
42369SOL    HW129004   7.809   4.074  12.883
42369SOL    HW229005   7.663   4.047  12.849
42370SOL     OW29006   0.651   0.239   9.146
42370SOL    HW129007   0.659   0.295   9.224
42370SOL    HW229008   0.742   0.223   9.120
42371SOL     OW29009   7.805   9.857  14.853
42371SOL    HW129010   7.713   9.858  14.826
42371SOL    HW229011   7.854   9.835  14.774
42372SOL     OW29012   1.257  13.640  14.252
42372SOL    HW129013   1.173  13.646  14.298
42372SOL    HW229014   1.292  13.729  14.253
42373SOL     OW29015   6.416   8.148   8.253
42373SOL    HW129016   6.326   8.117   8.249
42373SOL    HW229017   6.439   8.144   8.346
42374SOL     OW29018  12.831   7.282   7.593
42374SOL    HW129019  12.916   7.325   7.603
42374SOL    HW229020  12.836   7.238   7.508
42375SOL     OW29021   6.572   3.534   8.688
42375SOL    HW129022   6.631   3.599   8.650
42375SOL    HW229023   6.621   3.452   8.682
42376SOL     OW29024   8.251   1.812  10.972
42376SOL    HW129025   8.183   1.767  11.022
42376SOL    HW229026   8.207   1.888  10.933
42377SOL     OW29027   3.031   4.763   8.328
42377SOL    HW129028   3.088   4.710   8.383
42377SOL    HW229029   3.071   4.761   8.242
42378SOL     OW29030   9.995   1.876   6.825
42378SOL    HW129031  10.081   1.838   6.844
42378SOL    HW229032   9.934   1.805   6.842
42379SOL     OW29033   8.998   8.815  12.470
42379SOL    HW129034   8.930   8.877  12.494
42379SOL    HW229035   9.008   8.759  12.547
42380SOL     OW29036   4.016   8.374  14.670
42380SOL    HW129037   4.073   8.303  14.642
42380SOL    HW229038   4.045   8.450  14.620
42381SOL     OW29039   2.446   9.615   4.096
42381SOL    HW129040   2.386   9.593   4.168
42381SOL    HW229041   2.446   9.537   4.040
42382SOL     OW29042   1.956   8.999   4.516
42382SOL    HW129043   1.880   8.942   4.532
42382SOL    HW229044   1.978   8.985   4.424
42383SOL     OW29045  13.162   0.119  10.430
42383SOL    HW129046  13.143   0.059  10.502
42383SOL    HW229047  13.151   0.067  10.351
42384SOL     OW29048  11.828   1.548   7.815
42384SOL    HW129049  11.907   1.591   7.847
42384SOL    HW229050  11.758   1.612   7.828
42385SOL     OW29051  12.147   6.103   4.367
42385SOL    HW129052  12.171   6.184   4.322
42385SOL    HW229053  12.224   6.080   4.418
42386SOL     OW29054  13.711  12.869   1.795
42386SOL    HW129055  13.797  12.830   1.809
42386SOL    HW229056  13.680  12.830   1.713
42387SOL     OW29057  11.831  10.134   0.673
42387SOL    HW129058  11.818  10.220   0.633
42387SOL    HW229059  11.771  10.132   0.747
42388SOL     OW29060  14.689   7.048  13.728
42388SOL    HW129061  14.652   7.008  13.806
42388SOL    HW229062  14.758   6.988  13.700
42389SOL     OW29063   0.833   7.482   3.857
42389SOL    HW129064   0.827   7.429   3.777
42389SOL    HW229065   0.920   7.522   3.853
42390SOL     OW29066  13.756  10.129   3.924
42390SOL    HW129067  13.799  10.063   3.869
42390SOL    HW229068  13.673  10.145   3.879
42391SOL     OW29069   7.796   8.597   8.214
42391SOL    HW129070   7.809   8.628   8.304
42391SOL    HW229071   7.877   8.553   8.192
42392SOL     OW29072   7.325   6.989  12.911
42392SOL    HW129073   7.410   7.027  12.886
42392SOL    HW229074   7.262   7.059  12.894
42393SOL     OW29075  10.839   5.338   0.685
42393SOL    HW129076  10.758   5.389   0.680
42393SOL    HW229077  10.893   5.373   0.614
42394SOL     OW29078   1.654   6.523   0.650
42394SOL    HW129079   1.625   6.432   0.653
42394SOL    HW229080   1.632   6.552   0.561
42395SOL     OW29081   4.332  13.972   2.192
42395SOL    HW129082   4.385  13.893   2.200
42395SOL    HW229083   4.281  13.959   2.112
42396SOL     OW29084   1.131   9.936   9.406
42396SOL    HW129085   1.184   9.858   9.423
42396SOL    HW229086   1.055   9.904   9.358
42397SOL     OW29087  14.102  10.682   4.598
42397SOL    HW129088  14.092  10.768   4.638
42397SOL    HW229089  14.196  10.662   4.607
42398SOL     OW29090  11.943   9.345  13.045
42398SOL    HW129091  12.014   9.408  13.038
42398SOL    HW229092  11.864   9.395  13.028
42399SOL     OW29093   6.467   8.288   0.985
42399SOL    HW129094   6.515   8.264   1.065
42399SOL    HW229095   6.404   8.216   0.973
42400SOL     OW29096   5.504   0.705   3.061
42400SOL    HW129097   5.484   0.755   3.140
42400SOL    HW229098   5.419   0.668   3.034
42401SOL     OW29099   2.165   8.743  10.269
42401SOL    HW129100   2.251   8.769  10.303
42401SOL    HW229101   2.115   8.824  10.265
42402SOL     OW29102  14.090   3.377   9.537
42402SOL    HW129103  14.142   3.457   9.552
42402SOL    HW229104  14.131   3.336   9.461
42403SOL     OW29105   6.102  12.265   5.843
42403SOL    HW129106   6.019  12.299   5.877
42403SOL    HW229107   6.149  12.343   5.812
42404SOL     OW29108   3.541   5.663   7.434
42404SOL    HW129109   3.456   5.620   7.437
42404SOL    HW229110   3.523   5.754   7.460
42405SOL     OW29111   9.139   7.559  12.436
42405SOL    HW129112   9.199   7.606  12.495
42405SOL    HW229113   9.157   7.596  12.350
42406SOL     OW29114  10.858   4.816   1.127
42406SOL    HW129115  10.895   4.827   1.040
42406SOL    HW229116  10.931   4.785   1.181
42407SOL     OW29117   0.359   9.574  14.252
42407SOL    HW129118   0.330   9.646  14.196
42407SOL    HW229119   0.419   9.615  14.315
42408SOL     OW29120   9.293   1.222  14.421
42408SOL    HW129121   9.208   1.259  14.398
42408SOL    HW229122   9.334   1.200  14.337
42409SOL     OW29123   2.921   1.225  11.562
42409SOL    HW129124   2.882   1.167  11.627
42409SOL    HW229125   2.848   1.274  11.526
42410SOL     OW29126   8.359  11.684   1.761
42410SOL    HW129127   8.355  11.761   1.704
42410SOL    HW229128   8.358  11.609   1.700
42411SOL     OW29129   8.689  11.392   1.923
42411SOL    HW129130   8.654  11.480   1.939
42411SOL    HW229131   8.764  11.406   1.865
42412SOL     OW29132   4.818  13.515  14.170
42412SOL    HW129133   4.899  13.484  14.209
42412SOL    HW229134   4.836  13.517  14.076
42413SOL     OW29135  13.716  12.967  13.745
42413SOL    HW129136  13.644  13.022  13.777
42413SOL    HW229137  13.744  12.917  13.822
42414SOL     OW29138  13.477  12.043  13.235
42414SOL    HW129139  13.381  12.036  13.231
42414SOL    HW229140  13.498  12.032  13.328
42415SOL     OW29141   6.459   9.756   5.083
42415SOL    HW129142   6.488   9.739   5.173
42415SOL    HW229143   6.395   9.827   5.091
42416SOL     OW29144   9.774   6.785   2.461
42416SOL    HW129145   9.865   6.763   2.481
42416SOL    HW229146   9.750   6.849   2.528
42417SOL     OW29147  10.518   3.928  13.325
42417SOL    HW129148  10.520   4.009  13.376
42417SOL    HW229149  10.554   3.953  13.240
42418SOL     OW29150  11.649  13.578   7.717
42418SOL    HW129151  11.570  13.599   7.668
42418SOL    HW229152  11.646  13.483   7.728
42419SOL     OW29153   8.679  12.728   1.532
42419SOL    HW129154   8.718  12.664   1.591
42419SOL    HW229155   8.646  12.676   1.458
42420SOL     OW29156   5.433   8.523   8.237
42420SOL    HW129157   5.368   8.564   8.179
42420SOL    HW229158   5.517   8.552   8.202
42421SOL     OW29159   5.750   8.377  12.955
42421SOL    HW129160   5.731   8.308  12.891
42421SOL    HW229161   5.785   8.331  13.031
42422SOL     OW29162  13.780   7.920   0.759
42422SOL    HW129163  13.771   7.882   0.846
42422SOL    HW229164  13.731   7.861   0.701
42423SOL     OW29165  13.270  11.828   2.962
42423SOL    HW129166  13.255  11.909   2.913
42423SOL    HW229167  13.300  11.765   2.897
42424SOL     OW29168  12.763  14.290   8.224
42424SOL    HW129169  12.849  14.266   8.259
42424SOL    HW229170  12.781  14.325   8.136
42425SOL     OW29171   7.479   4.367   5.627
42425SOL    HW129172   7.453   4.441   5.571
42425SOL    HW229173   7.565   4.342   5.594
42426SOL     OW29174  11.288   4.840   9.983
42426SOL    HW129175  11.366   4.785   9.979
42426SOL    HW229176  11.290   4.879  10.070
42427SOL     OW29177   3.320   7.573  12.297
42427SOL    HW129178   3.279   7.490  12.270
42427SOL    HW229179   3.269   7.640  12.253
42428SOL     OW29180   5.695   3.019   2.733
42428SOL    HW129181   5.742   2.956   2.678
42428SOL    HW229182   5.718   3.104   2.696
42429SOL     OW29183   2.322   9.701  14.350
42429SOL    HW129184   2.348   9.770  14.411
42429SOL    HW229185   2.357   9.620  14.387
42430SOL     OW29186   6.814   9.798   3.985
42430SOL    HW129187   6.841   9.850   4.061
42430SOL    HW229188   6.819   9.859   3.911
42431SOL     OW29189  13.910   4.365   0.273
42431SOL    HW129190  13.918   4.375   0.178
42431SOL    HW229191  13.978   4.302   0.296
42432SOL     OW29192   7.715   9.227  14.483
42432SOL    HW129193   7.639   9.256  14.534
42432SOL    HW229194   7.752   9.156  14.535
42433SOL     OW29195   7.722   3.254   8.399
42433SOL    HW129196   7.717   3.213   8.485
42433SOL    HW229197   7.695   3.186   8.338
42434SOL     OW29198   2.314  10.799  10.883
42434SOL    HW129199   2.227  10.832  10.908
42434SOL    HW229200   2.367  10.878  10.870
42435SOL     OW29201  10.753  14.391   1.392
42435SOL    HW129202  10.835  14.408   1.345
42435SOL    HW229203  10.779  14.333   1.464
42436SOL     OW29204  11.886   5.133  12.960
42436SOL    HW129205  11.932   5.130  12.876
42436SOL    HW229206  11.794   5.141  12.936
42437SOL     OW29207   9.880   3.624   0.534
42437SOL    HW129208   9.931   3.627   0.615
42437SOL    HW229209   9.942   3.593   0.468
42438SOL     OW29210   1.481   1.144   0.564
42438SOL    HW129211   1.535   1.102   0.631
42438SOL    HW229212   1.392   1.118   0.586
42439SOL     OW29213   3.713   4.279  12.610
42439SOL    HW129214   3.656   4.342  12.655
42439SOL    HW229215   3.709   4.305  12.518
42440SOL     OW29216  10.755   4.110  14.265
42440SOL    HW129217  10.775   4.051  14.193
42440SOL    HW229218  10.826   4.175  14.263
42441SOL     OW29219  13.385   3.436  10.199
42441SOL    HW129220  13.384   3.356  10.148
42441SOL    HW229221  13.370   3.506  10.135
42442SOL     OW29222  12.019  10.272   3.971
42442SOL    HW129223  12.037  10.348   4.027
42442SOL    HW229224  11.938  10.235   4.005
42443SOL     OW29225   6.605  13.901   4.408
42443SOL    HW129226   6.590  13.953   4.329
42443SOL    HW229227   6.700  13.895   4.416
42444SOL     OW29228  12.093   5.230  10.566
42444SOL    HW129229  12.139   5.185  10.636
42444SOL    HW229230  12.002   5.234  10.596
42445SOL     OW29231   9.839  14.787   9.731
42445SOL    HW129232   9.805  14.805   9.819
42445SOL    HW229233   9.934  14.783   9.742
42446SOL     OW29234  12.641   4.847  11.544
42446SOL    HW129235  12.734   4.867  11.552
42446SOL    HW229236  12.627   4.832  11.451
42447SOL     OW29237   4.419  12.388   4.938
42447SOL    HW129238   4.328  12.404   4.916
42447SOL    HW229239   4.418  12.362   5.030
42448SOL     OW29240  10.246   8.557   5.864
42448SOL    HW129241  10.167   8.531   5.817
42448SOL    HW229242  10.287   8.623   5.808
42449SOL     OW29243   5.132   7.318  10.893
42449SOL    HW129244   5.133   7.244  10.832
42449SOL    HW229245   5.223   7.347  10.897
42450SOL     OW29246  11.755   4.942   9.225
42450SOL    HW129247  11.844   4.939   9.189
42450SOL    HW229248  11.765   4.983   9.311
42451SOL     OW29249   1.405   0.693  14.624
42451SOL    HW129250   1.410   0.667  14.716
42451SOL    HW229251   1.348   0.627  14.584
42452SOL     OW29252  13.476   3.874  12.559
42452SOL    HW129253  13.423   3.851  12.483
42452SOL    HW229254  13.517   3.957  12.535
42453SOL     OW29255  10.815   7.815   7.077
42453SOL    HW129256  10.787   7.906   7.079
42453SOL    HW229257  10.748   7.767   7.125
42454SOL     OW29258   9.768   4.997   2.467
42454SOL    HW129259   9.774   5.008   2.372
42454SOL    HW229260   9.676   5.013   2.487
42455SOL     OW29261   1.834   6.953   6.688
42455SOL    HW129262   1.763   6.921   6.631
42455SOL    HW229263   1.874   7.024   6.638
42456SOL     OW29264   1.519   3.951   5.085
42456SOL    HW129265   1.539   4.028   5.031
42456SOL    HW229266   1.602   3.902   5.087
42457SOL     OW29267  10.264   9.688  13.101
42457SOL    HW129268  10.241   9.774  13.137
42457SOL    HW229269  10.340   9.660  13.153
42458SOL     OW29270   3.110   0.828  13.407
42458SOL    HW129271   3.121   0.787  13.493
42458SOL    HW229272   3.079   0.917  13.428
42459SOL     OW29273  11.851  14.711   8.049
42459SOL    HW129274  11.807  14.688   7.967
42459SOL    HW229275  11.782  14.706   8.115
42460SOL     OW29276  12.608  10.545   9.229
42460SOL    HW129277  12.532  10.532   9.286
42460SOL    HW229278  12.677  10.576   9.287
42461SOL     OW29279  11.862   8.361  10.524
42461SOL    HW129280  11.812   8.426  10.574
42461SOL    HW229281  11.847   8.384  10.433
42462SOL     OW29282   2.952  10.367  13.893
42462SOL    HW129283   3.030  10.387  13.945
42462SOL    HW229284   2.950  10.435  13.826
42463SOL     OW29285   5.774   7.561   1.667
42463SOL    HW129286   5.807   7.648   1.645
42463SOL    HW229287   5.785   7.555   1.762
42464SOL     OW29288   8.582   7.629   3.983
42464SOL    HW129289   8.635   7.556   3.951
42464SOL    HW229290   8.643   7.703   3.987
42465SOL     OW29291  12.682   9.379   8.526
42465SOL    HW129292  12.633   9.306   8.564
42465SOL    HW229293  12.720   9.344   8.446
42466SOL     OW29294  14.721   1.886  11.695
42466SOL    HW129295  14.721   1.925  11.782
42466SOL    HW229296  14.678   1.951  11.639
42467SOL     OW29297   2.717   6.362   2.050
42467SOL    HW129298   2.664   6.310   2.110
42467SOL    HW229299   2.808   6.342   2.074
42468SOL     OW29300  11.316   5.518   4.140
42468SOL    HW129301  11.372   5.440   4.132
42468SOL    HW229302  11.304   5.548   4.050
42469SOL     OW29303  11.115  14.606   5.379
42469SOL    HW129304  11.172  14.651   5.316
42469SOL    HW229305  11.152  14.518   5.387
42470SOL     OW29306  12.661   1.155   3.279
42470SOL    HW129307  12.752   1.158   3.248
42470SOL    HW229308  12.654   1.072   3.326
42471SOL     OW29309  13.011  11.762   8.075
42471SOL    HW129310  13.083  11.805   8.123
42471SOL    HW229311  12.970  11.706   8.140
42472SOL     OW29312   6.166   8.289   2.649
42472SOL    HW129313   6.202   8.360   2.701
42472SOL    HW229314   6.100   8.248   2.707
42473SOL     OW29315   7.998  10.500   8.208
42473SOL    HW129316   8.075  10.525   8.158
42473SOL    HW229317   8.028  10.430   8.265
42474SOL     OW29318  11.859   3.671  12.196
42474SOL    HW129319  11.841   3.763  12.178
42474SOL    HW229320  11.931   3.673  12.259
42475SOL     OW29321   0.417   3.590  11.520
42475SOL    HW129322   0.330   3.567  11.487
42475SOL    HW229323   0.407   3.676  11.560
42476SOL     OW29324  11.014   2.533   2.293
42476SOL    HW129325  11.102   2.508   2.264
42476SOL    HW229326  10.978   2.584   2.220
42477SOL     OW29327  10.602   8.448   2.591
42477SOL    HW129328  10.575   8.404   2.672
42477SOL    HW229329  10.697   8.432   2.585
42478SOL     OW29330   8.144   0.687   7.579
42478SOL    HW129331   8.221   0.734   7.612
42478SOL    HW229332   8.143   0.606   7.629
42479SOL     OW29333   8.233   4.124   5.008
42479SOL    HW129334   8.152   4.155   5.047
42479SOL    HW229335   8.301   4.181   5.045
42480SOL     OW29336   5.873   4.058   7.173
42480SOL    HW129337   5.794   4.098   7.209
42480SOL    HW229338   5.890   3.983   7.230
42481SOL     OW29339   2.020   5.904   2.034
42481SOL    HW129340   2.040   5.873   2.122
42481SOL    HW229341   1.962   5.837   1.997
42482SOL     OW29342   8.168  13.639   8.523
42482SOL    HW129343   8.254  13.665   8.557
42482SOL    HW229344   8.128  13.590   8.594
42483SOL     OW29345  10.421   5.693   5.821
42483SOL    HW129346  10.388   5.780   5.842
42483SOL    HW229347  10.347   5.649   5.779
42484SOL     OW29348   8.656   3.128   0.339
42484SOL    HW129349   8.654   3.163   0.250
42484SOL    HW229350   8.592   3.056   0.337
42485SOL     OW29351   4.392   5.068   8.608
42485SOL    HW129352   4.399   4.984   8.564
42485SOL    HW229353   4.436   5.130   8.549
42486SOL     OW29354   2.821   2.994  13.800
42486SOL    HW129355   2.745   2.978  13.857
42486SOL    HW229356   2.866   3.068  13.840
42487SOL     OW29357   9.689   7.810   2.150
42487SOL    HW129358   9.720   7.900   2.142
42487SOL    HW229359   9.597   7.814   2.122
42488SOL     OW29360   8.356   7.663  11.258
42488SOL    HW129361   8.287   7.608  11.221
42488SOL    HW229362   8.371   7.627  11.345
42489SOL     OW29363   4.902   8.773   8.374
42489SOL    HW129364   4.848   8.711   8.324
42489SOL    HW229365   4.937   8.832   8.307
42490SOL     OW29366   4.031   1.579  13.452
42490SOL    HW129367   4.025   1.560  13.359
42490SOL    HW229368   3.941   1.576  13.484
42491SOL     OW29369  12.115   4.962   1.722
42491SOL    HW129370  12.069   4.984   1.803
42491SOL    HW229371  12.207   4.957   1.747
42492SOL     OW29372  10.237  11.381  14.816
42492SOL    HW129373  10.261  11.345   0.031
42492SOL    HW229374  10.159  11.333  14.789
42493SOL     OW29375  13.664   9.731   1.507
42493SOL    HW129376  13.697   9.703   1.592
42493SOL    HW229377  13.663   9.652   1.454
42494SOL     OW29378   6.966   8.762   4.636
42494SOL    HW129379   6.994   8.681   4.593
42494SOL    HW229380   6.895   8.735   4.693
42495SOL     OW29381  11.530   3.116  12.872
42495SOL    HW129382  11.500   3.048  12.811
42495SOL    HW229383  11.595   3.072  12.926
42496SOL     OW29384   9.791   6.749  10.760
42496SOL    HW129385   9.803   6.711  10.848
42496SOL    HW229386   9.821   6.680  10.701
42497SOL     OW29387  12.122   7.103   3.080
42497SOL    HW129388  12.052   7.073   3.021
42497SOL    HW229389  12.077   7.162   3.141
42498SOL     OW29390  10.533  11.483   7.999
42498SOL    HW129391  10.628  11.494   8.006
42498SOL    HW229392  10.517  11.477   7.904
42499SOL     OW29393   0.495  12.224  14.617
42499SOL    HW129394   0.415  12.191  14.577
42499SOL    HW229395   0.560  12.222  14.547
42500SOL     OW29396   5.720  10.298  11.559
42500SOL    HW129397   5.683  10.266  11.477
42500SOL    HW229398   5.752  10.220  11.603
42501SOL     OW29399  12.657   9.247   8.859
42501SOL    HW129400  12.670   9.171   8.914
42501SOL    HW229401  12.607   9.214   8.784
42502SOL     OW29402   9.004  12.142   0.565
42502SOL    HW129403   8.957  12.143   0.481
42502SOL    HW229404   8.954  12.201   0.621
42503SOL     OW29405   8.030   1.058   6.220
42503SOL    HW129406   8.116   1.099   6.227
42503SOL    HW229407   7.997   1.058   6.310
42504SOL     OW29408   5.876  14.843   1.937
42504SOL    HW129409   5.903   0.032   1.866
42504SOL    HW229410   5.803   0.018   1.978
42505SOL     OW29411   1.457   9.032  12.272
42505SOL    HW129412   1.448   9.102  12.208
42505SOL    HW229413   1.514   9.068  12.340
42506SOL     OW29414   0.824  10.257   8.534
42506SOL    HW129415   0.804  10.174   8.577
42506SOL    HW229416   0.741  10.305   8.535
42507SOL     OW29417   2.749   7.762   6.152
42507SOL    HW129418   2.774   7.836   6.207
42507SOL    HW229419   2.743   7.688   6.213
42508SOL     OW29420  12.524   9.700  11.133
42508SOL    HW129421  12.446   9.647  11.149
42508SOL    HW229422  12.597   9.641  11.151
42509SOL     OW29423  12.604  13.039   9.387
42509SOL    HW129424  12.636  13.126   9.363
42509SOL    HW229425  12.682  12.993   9.418
42510SOL     OW29426   1.440   3.286   9.597
42510SOL    HW129427   1.402   3.370   9.620
42510SOL    HW229428   1.368   3.237   9.557
42511SOL     OW29429   4.532   3.288   7.763
42511SOL    HW129430   4.585   3.339   7.824
42511SOL    HW229431   4.454   3.263   7.814
42512SOL     OW29432  12.777   7.472   6.896
42512SOL    HW129433  12.720   7.538   6.935
42512SOL    HW229434  12.865   7.497   6.925
42513SOL     OW29435  13.701  11.959   0.473
42513SOL    HW129436  13.609  11.946   0.496
42513SOL    HW229437  13.745  11.880   0.503
42514SOL     OW29438  14.686   4.415   4.086
42514SOL    HW129439  14.714   4.501   4.056
42514SOL    HW229440  14.704   4.415   4.180
42515SOL     OW29441   7.092   3.358   0.061
42515SOL    HW129442   7.146   3.284   0.033
42515SOL    HW229443   7.155   3.425   0.088
42516SOL     OW29444  10.192   7.885  14.680
42516SOL    HW129445  10.135   7.912  14.608
42516SOL    HW229446  10.261   7.833  14.639
42517SOL     OW29447   3.945   2.412   8.001
42517SOL    HW129448   3.913   2.423   7.911
42517SOL    HW229449   4.041   2.413   7.992
42518SOL     OW29450   8.450  11.361   7.996
42518SOL    HW129451   8.406  11.446   7.996
42518SOL    HW229452   8.524  11.373   8.055
42519SOL     OW29453   2.274   0.034   2.969
42519SOL    HW129454   2.190  14.862   2.949
42519SOL    HW229455   2.251   0.107   3.026
42520SOL     OW29456  13.547   9.735   9.217
42520SOL    HW129457  13.642   9.727   9.222
42520SOL    HW229458  13.532   9.829   9.210
42521SOL     OW29459   7.084   5.891   6.601
42521SOL    HW129460   7.117   5.977   6.573
42521SOL    HW229461   7.162   5.835   6.603
42522SOL     OW29462  11.182  14.024  13.554
42522SOL    HW129463  11.218  14.112  13.562
42522SOL    HW229464  11.255  13.966  13.574
42523SOL     OW29465  13.376  10.473   4.179
42523SOL    HW129466  13.470  10.477   4.198
42523SOL    HW229467  13.334  10.466   4.265
42524SOL     OW29468   2.792   8.294   9.487
42524SOL    HW129469   2.869   8.350   9.496
42524SOL    HW229470   2.758   8.314   9.400
42525SOL     OW29471  12.019  12.253   0.522
42525SOL    HW129472  11.956  12.296   0.465
42525SOL    HW229473  11.965  12.209   0.588
42526SOL     OW29474   5.979   1.410  13.402
42526SOL    HW129475   6.032   1.348  13.351
42526SOL    HW229476   6.033   1.489  13.406
42527SOL     OW29477  11.641  14.817   2.577
42527SOL    HW129478  11.665  14.798   2.486
42527SOL    HW229479  11.710   0.006   2.609
42528SOL     OW29480   0.756   2.209   8.775
42528SOL    HW129481   0.777   2.119   8.751
42528SOL    HW229482   0.663   2.206   8.799
42529SOL     OW29483   3.904   9.376   8.222
42529SOL    HW129484   3.878   9.289   8.254
42529SOL    HW229485   3.986   9.394   8.268
42530SOL     OW29486  13.284   0.991  13.663
42530SOL    HW129487  13.271   1.075  13.707
42530SOL    HW229488  13.324   1.015  13.579
42531SOL     OW29489   5.361   1.584   4.721
42531SOL    HW129490   5.343   1.511   4.780
42531SOL    HW229491   5.438   1.626   4.757
42532SOL     OW29492   4.428   8.456   5.957
42532SOL    HW129493   4.409   8.390   6.023
42532SOL    HW229494   4.520   8.480   5.973
42533SOL     OW29495   9.084   4.453   6.723
42533SOL    HW129496   9.151   4.386   6.712
42533SOL    HW229497   9.032   4.449   6.642
42534SOL     OW29498   7.641   0.851  13.920
42534SOL    HW129499   7.728   0.817  13.900
42534SOL    HW229500   7.618   0.810  14.003
42535SOL     OW29501   8.236   6.412   5.541
42535SOL    HW129502   8.328   6.434   5.530
42535SOL    HW229503   8.235   6.317   5.554
42536SOL     OW29504   4.629   8.649  10.115
42536SOL    HW129505   4.638   8.636  10.021
42536SOL    HW229506   4.705   8.605  10.153
42537SOL     OW29507   1.511   6.141   3.506
42537SOL    HW129508   1.440   6.150   3.571
42537SOL    HW229509   1.517   6.228   3.466
42538SOL     OW29510   8.462  10.738   7.916
42538SOL    HW129511   8.491  10.651   7.887
42538SOL    HW229512   8.375  10.749   7.877
42539SOL     OW29513   6.944  13.602   0.571
42539SOL    HW129514   6.902  13.682   0.605
42539SOL    HW229515   6.883  13.532   0.593
42540SOL     OW29516  14.593   9.767  10.770
42540SOL    HW129517  14.575   9.718  10.851
42540SOL    HW229518  14.684   9.795  10.779
42541SOL     OW29519  12.785   7.681   1.374
42541SOL    HW129520  12.708   7.737   1.378
42541SOL    HW229521  12.770   7.615   1.441
42542SOL     OW29522   5.654   1.747   4.495
42542SOL    HW129523   5.648   1.839   4.471
42542SOL    HW229524   5.609   1.741   4.579
42543SOL     OW29525   0.631   3.316  14.576
42543SOL    HW129526   0.587   3.373  14.639
42543SOL    HW229527   0.680   3.375  14.519
42544SOL     OW29528   7.337   5.997   8.226
42544SOL    HW129529   7.285   5.966   8.301
42544SOL    HW229530   7.428   5.978   8.250
42545SOL     OW29531   6.826   9.693   0.072
42545SOL    HW129532   6.731   9.688   0.079
42545SOL    HW229533   6.859   9.629   0.135
42546SOL     OW29534  14.591  11.382   9.234
42546SOL    HW129535  14.535  11.413   9.305
42546SOL    HW229536  14.649  11.456   9.215
42547SOL     OW29537  14.528  11.429  12.646
42547SOL    HW129538  14.519  11.341  12.608
42547SOL    HW229539  14.615  11.428  12.687
42548SOL     OW29540   6.578   9.699  14.167
42548SOL    HW129541   6.511   9.728  14.105
42548SOL    HW229542   6.625   9.780  14.190
42549SOL     OW29543   5.390  10.731   4.425
42549SOL    HW129544   5.468  10.683   4.454
42549SOL    HW229545   5.422  10.788   4.354
42550SOL     OW29546   3.478  10.430   6.411
42550SOL    HW129547   3.438  10.493   6.352
42550SOL    HW229548   3.482  10.474   6.495
42551SOL     OW29549  11.153  12.980   5.025
42551SOL    HW129550  11.220  12.970   4.956
42551SOL    HW229551  11.093  13.046   4.990
42552SOL     OW29552  13.996   8.374   8.125
42552SOL    HW129553  13.933   8.426   8.176
42552SOL    HW229554  14.023   8.433   8.055
42553SOL     OW29555  12.624   1.993  10.631
42553SOL    HW129556  12.597   1.978  10.721
42553SOL    HW229557  12.717   1.970  10.629
42554SOL     OW29558   9.655  12.111   5.636
42554SOL    HW129559   9.562  12.131   5.652
42554SOL    HW229560   9.675  12.158   5.555
42555SOL     OW29561   3.681   2.614  12.734
42555SOL    HW129562   3.702   2.538  12.680
42555SOL    HW229563   3.625   2.579  12.804
42556SOL     OW29564  14.398   5.934   8.190
42556SOL    HW129565  14.362   6.006   8.242
42556SOL    HW229566  14.347   5.857   8.217
42557SOL     OW29567   1.850  12.408   6.385
42557SOL    HW129568   1.852  12.342   6.455
42557SOL    HW229569   1.817  12.487   6.428
42558SOL     OW29570  11.547   2.230  13.657
42558SOL    HW129571  11.534   2.191  13.744
42558SOL    HW229572  11.552   2.155  13.598
42559SOL     OW29573   3.819   2.260   4.779
42559SOL    HW129574   3.785   2.172   4.793
42559SOL    HW229575   3.911   2.246   4.754
42560SOL     OW29576   7.530   4.736  14.167
42560SOL    HW129577   7.492   4.653  14.137
42560SOL    HW229578   7.596   4.711  14.231
42561SOL     OW29579  13.441  10.217   2.476
42561SOL    HW129580  13.455  10.168   2.557
42561SOL    HW229581  13.525  10.261   2.460
42562SOL     OW29582  10.445   3.251  13.861
42562SOL    HW129583  10.455   3.158  13.881
42562SOL    HW229584  10.534   3.286  13.862
42563SOL     OW29585  13.300  14.373  11.552
42563SOL    HW129586  13.270  14.426  11.626
42563SOL    HW229587  13.363  14.312  11.591
42564SOL     OW29588   4.942   8.034   4.773
42564SOL    HW129589   4.977   7.952   4.809
42564SOL    HW229590   4.867   8.055   4.829
42565SOL     OW29591   2.908  14.684   5.735
42565SOL    HW129592   2.905  14.590   5.721
42565SOL    HW229593   2.887  14.696   5.827
42566SOL     OW29594   1.089   5.629   2.406
42566SOL    HW129595   1.099   5.565   2.476
42566SOL    HW229596   1.096   5.714   2.449
42567SOL     OW29597  11.719   2.058  13.231
42567SOL    HW129598  11.750   1.997  13.165
42567SOL    HW229599  11.744   2.144  13.198
42568SOL     OW29600   5.531  11.467   8.546
42568SOL    HW129601   5.482  11.391   8.579
42568SOL    HW229602   5.527  11.531   8.618
42569SOL     OW29603  12.486   7.161  13.577
42569SOL    HW129604  12.455   7.182  13.489
42569SOL    HW229605  12.434   7.217  13.635
42570SOL     OW29606   5.801   1.233  12.059
42570SOL    HW129607   5.879   1.285  12.079
42570SOL    HW229608   5.837   1.148  12.032
42571SOL     OW29609  10.135  11.614   4.147
42571SOL    HW129610  10.146  11.698   4.190
42571SOL    HW229611  10.224  11.588   4.121
42572SOL     OW29612   4.108   6.920  13.253
42572SOL    HW129613   4.115   6.862  13.178
42572SOL    HW229614   4.185   6.977  13.248
42573SOL     OW29615  11.058  11.223   4.687
42573SOL    HW129616  11.022  11.289   4.746
42573SOL    HW229617  11.141  11.197   4.726
42574SOL     OW29618  12.869   9.067   2.004
42574SOL    HW129619  12.793   9.012   2.021
42574SOL    HW229620  12.941   9.005   1.989
42575SOL     OW29621   9.652   5.706  14.473
42575SOL    HW129622   9.733   5.746  14.505
42575SOL    HW229623   9.592   5.779  14.458
42576SOL     OW29624  10.816   7.040   3.562
42576SOL    HW129625  10.762   7.105   3.516
42576SOL    HW229626  10.852   7.087   3.637
42577SOL     OW29627   4.960  10.209   7.473
42577SOL    HW129628   4.883  10.242   7.427
42577SOL    HW229629   4.980  10.127   7.429
42578SOL     OW29630   2.904  12.498   9.545
42578SOL    HW129631   2.863  12.495   9.459
42578SOL    HW229632   2.845  12.552   9.598
42579SOL     OW29633   2.457   2.418   0.762
42579SOL    HW129634   2.546   2.407   0.796
42579SOL    HW229635   2.435   2.333   0.724
42580SOL     OW29636   0.897   0.929   3.948
42580SOL    HW129637   0.879   0.980   3.869
42580SOL    HW229638   0.984   0.892   3.933
42581SOL     OW29639   5.901   1.144   3.019
42581SOL    HW129640   5.888   1.129   2.925
42581SOL    HW229641   5.945   1.065   3.050
42582SOL     OW29642  14.106  13.194   5.973
42582SOL    HW129643  14.185  13.198   6.027
42582SOL    HW229644  14.136  13.161   5.889
42583SOL     OW29645  10.274   6.216   6.342
42583SOL    HW129646  10.251   6.128   6.370
42583SOL    HW229647  10.370   6.217   6.344
42584SOL     OW29648  12.368   8.019  13.276
42584SOL    HW129649  12.390   8.041  13.366
42584SOL    HW229650  12.287   8.066  13.258
42585SOL     OW29651   5.726   2.797   3.766
42585SOL    HW129652   5.783   2.800   3.843
42585SOL    HW229653   5.654   2.739   3.792
42586SOL     OW29654  10.260   0.630   6.091
42586SOL    HW129655  10.290   0.566   6.027
42586SOL    HW229656  10.167   0.643   6.072
42587SOL     OW29657   1.695  13.593  13.997
42587SOL    HW129658   1.704  13.514  14.051
42587SOL    HW229659   1.760  13.583  13.928
42588SOL     OW29660  14.089   8.894   0.748
42588SOL    HW129661  14.080   8.989   0.742
42588SOL    HW229662  14.159   8.872   0.686
42589SOL     OW29663  14.387   6.846   1.613
42589SOL    HW129664  14.462   6.890   1.653
42589SOL    HW229665  14.400   6.855   1.519
42590SOL     OW29666   3.099   0.554   3.615
42590SOL    HW129667   3.017   0.513   3.586
42590SOL    HW229668   3.157   0.481   3.636
42591SOL     OW29669  11.298  11.477   4.862
42591SOL    HW129670  11.366  11.505   4.924
42591SOL    HW229671  11.251  11.407   4.908
42592SOL     OW29672   0.263   1.603  11.962
42592SOL    HW129673   0.268   1.600  11.867
42592SOL    HW229674   0.330   1.541  11.992
42593SOL     OW29675  13.284   7.397   1.907
42593SOL    HW129676  13.372   7.434   1.895
42593SOL    HW229677  13.250   7.390   1.818
42594SOL     OW29678   0.521   8.915   1.340
42594SOL    HW129679   0.482   8.886   1.257
42594SOL    HW229680   0.448   8.953   1.389
42595SOL     OW29681  14.103   2.992   5.059
42595SOL    HW129682  14.097   3.025   4.970
42595SOL    HW229683  14.091   3.069   5.114
42596SOL     OW29684  11.456   9.623  14.806
42596SOL    HW129685  11.519   9.552  14.798
42596SOL    HW229686  11.463   9.671  14.724
42597SOL     OW29687   6.654   4.599   7.049
42597SOL    HW129688   6.675   4.509   7.074
42597SOL    HW229689   6.738   4.638   7.024
42598SOL     OW29690   9.618  13.967   7.726
42598SOL    HW129691   9.690  14.025   7.750
42598SOL    HW229692   9.556  14.024   7.680
42599SOL     OW29693   5.315   4.856  12.122
42599SOL    HW129694   5.279   4.935  12.082
42599SOL    HW229695   5.281   4.856  12.211
42600SOL     OW29696  13.091   4.267   5.643
42600SOL    HW129697  13.030   4.207   5.687
42600SOL    HW229698  13.103   4.229   5.556
42601SOL     OW29699  11.496  12.174   8.226
42601SOL    HW129700  11.573  12.229   8.240
42601SOL    HW229701  11.519  12.120   8.150
42602SOL     OW29702   1.760  14.597   6.305
42602SOL    HW129703   1.742  14.511   6.342
42602SOL    HW229704   1.713  14.658   6.362
42603SOL     OW29705   4.674   3.164  12.306
42603SOL    HW129706   4.612   3.202  12.243
42603SOL    HW229707   4.634   3.179  12.391
42604SOL     OW29708  11.664   1.202  12.486
42604SOL    HW129709  11.729   1.264  12.454
42604SOL    HW229710  11.715   1.122  12.505
42605SOL     OW29711   6.123  10.693   4.617
42605SOL    HW129712   6.100  10.617   4.671
42605SOL    HW229713   6.061  10.690   4.544
42606SOL     OW29714   8.379  14.435  11.656
42606SOL    HW129715   8.415  14.387  11.581
42606SOL    HW229716   8.285  14.418  11.652
42607SOL     OW29717   9.388  14.742   7.995
42607SOL    HW129718   9.483  14.739   7.991
42607SOL    HW229719   9.366  14.833   7.975
42608SOL     OW29720  13.314   4.373   1.986
42608SOL    HW129721  13.333   4.282   2.008
42608SOL    HW229722  13.245   4.399   2.047
42609SOL     OW29723  10.640   1.003   0.777
42609SOL    HW129724  10.674   0.983   0.865
42609SOL    HW229725  10.592   1.085   0.787
42610SOL     OW29726   2.641   9.987   9.060
42610SOL    HW129727   2.619  10.074   9.028
42610SOL    HW229728   2.681  10.002   9.146
42611SOL     OW29729  14.553  14.047   9.315
42611SOL    HW129730  14.522  14.075   9.401
42611SOL    HW229731  14.503  13.967   9.296
42612SOL     OW29732  14.052   1.496  14.751
42612SOL    HW129733  14.101   1.569  14.789
42612SOL    HW229734  14.063   1.506  14.656
42613SOL     OW29735  14.206   7.635   9.814
42613SOL    HW129736  14.151   7.696   9.764
42613SOL    HW229737  14.160   7.551   9.809
42614SOL     OW29738   7.908   1.548   7.088
42614SOL    HW129739   7.862   1.620   7.045
42614SOL    HW229740   7.859   1.534   7.169
42615SOL     OW29741   1.452  10.412  12.762
42615SOL    HW129742   1.483  10.326  12.734
42615SOL    HW229743   1.531  10.460  12.786
42616SOL     OW29744  12.477   6.858   5.344
42616SOL    HW129745  12.407   6.816   5.394
42616SOL    HW229746  12.540   6.788   5.327
42617SOL     OW29747   0.085   4.984  12.183
42617SOL    HW129748   0.161   4.974  12.126
42617SOL    HW229749   0.121   4.980  12.272
42618SOL     OW29750   8.482  12.208   7.648
42618SOL    HW129751   8.424  12.140   7.613
42618SOL    HW229752   8.446  12.290   7.614
42619SOL     OW29753   3.386  12.316   3.422
42619SOL    HW129754   3.303  12.336   3.378
42619SOL    HW229755   3.443  12.282   3.353
42620SOL     OW29756   3.234   9.493   6.296
42620SOL    HW129757   3.275   9.532   6.373
42620SOL    HW229758   3.290   9.519   6.223
42621SOL     OW29759   8.833   3.679   3.147
42621SOL    HW129760   8.872   3.594   3.166
42621SOL    HW229761   8.807   3.673   3.055
42622SOL     OW29762  10.932   3.078  13.148
42622SOL    HW129763  10.880   3.159  13.147
42622SOL    HW229764  10.978   3.079  13.232
42623SOL     OW29765   4.099   0.582  13.465
42623SOL    HW129766   4.107   0.551  13.555
42623SOL    HW229767   4.097   0.677  13.473
42624SOL     OW29768  13.206   4.967  13.451
42624SOL    HW129769  13.301   4.962  13.456
42624SOL    HW229770  13.181   4.892  13.396
42625SOL     OW29771   0.681  12.228   4.821
42625SOL    HW129772   0.714  12.140   4.805
42625SOL    HW229773   0.608  12.216   4.883
42626SOL     OW29774   0.803   8.246   0.877
42626SOL    HW129775   0.835   8.282   0.794
42626SOL    HW229776   0.839   8.305   0.943
42627SOL     OW29777   4.572  12.791   1.058
42627SOL    HW129778   4.510  12.751   1.120
42627SOL    HW229779   4.537  12.878   1.042
42628SOL     OW29780   4.185   6.357   0.286
42628SOL    HW129781   4.173   6.296   0.359
42628SOL    HW229782   4.097   6.391   0.268
42629SOL     OW29783  12.327  13.732   3.226
42629SOL    HW129784  12.243  13.690   3.242
42629SOL    HW229785  12.339  13.790   3.301
42630SOL     OW29786   3.241   3.113  13.035
42630SOL    HW129787   3.169   3.082  12.979
42630SOL    HW229788   3.297   3.163  12.976
42631SOL     OW29789   9.352  11.442  13.386
42631SOL    HW129790   9.377  11.407  13.301
42631SOL    HW229791   9.416  11.405  13.447
42632SOL     OW29792   8.861   0.200   9.882
42632SOL    HW129793   8.928   0.205   9.950
42632SOL    HW229794   8.869   0.283   9.834
42633SOL     OW29795   9.673   4.775   3.341
42633SOL    HW129796   9.766   4.788   3.359
42633SOL    HW229797   9.630   4.778   3.426
42634SOL     OW29798  11.137   1.909  14.422
42634SOL    HW129799  11.135   2.003  14.440
42634SOL    HW229800  11.217   1.896  14.371
42635SOL     OW29801  14.095   9.405  12.092
42635SOL    HW129802  14.112   9.497  12.112
42635SOL    HW229803  14.154   9.385  12.019
42636SOL     OW29804  13.180  11.775  14.745
42636SOL    HW129805  13.215  11.822  14.820
42636SOL    HW229806  13.097  11.819  14.725
42637SOL     OW29807  14.575  10.211   5.705
42637SOL    HW129808  14.583  10.306   5.706
42637SOL    HW229809  14.555  10.190   5.613
42638SOL     OW29810  11.511  12.538  10.781
42638SOL    HW129811  11.529  12.622  10.740
42638SOL    HW229812  11.425  12.513  10.749
42639SOL     OW29813  10.795  14.287   2.947
42639SOL    HW129814  10.890  14.278   2.945
42639SOL    HW229815  10.778  14.374   2.909
42640SOL     OW29816   4.981  11.862   8.406
42640SOL    HW129817   4.965  11.897   8.318
42640SOL    HW229818   4.988  11.940   8.461
42641SOL     OW29819   3.917  12.082   5.554
42641SOL    HW129820   3.907  12.130   5.472
42641SOL    HW229821   3.889  11.993   5.534
42642SOL     OW29822   3.674   6.602   4.625
42642SOL    HW129823   3.702   6.685   4.587
42642SOL    HW229824   3.696   6.609   4.717
42643SOL     OW29825  14.560   0.938  10.299
42643SOL    HW129826  14.580   1.026  10.329
42643SOL    HW229827  14.602   0.880  10.363
42644SOL     OW29828   3.158   8.357   9.837
42644SOL    HW129829   3.092   8.399   9.891
42644SOL    HW229830   3.146   8.263   9.850
42645SOL     OW29831  12.926   3.556  13.091
42645SOL    HW129832  12.874   3.584  13.015
42645SOL    HW229833  12.912   3.625  13.156
42646SOL     OW29834   0.789   0.419   7.239
42646SOL    HW129835   0.809   0.349   7.178
42646SOL    HW229836   0.730   0.378   7.303
42647SOL     OW29837   7.136  12.826   8.243
42647SOL    HW129838   7.221  12.850   8.280
42647SOL    HW229839   7.137  12.730   8.241
42648SOL     OW29840  12.824   4.292  13.730
42648SOL    HW129841  12.741   4.335  13.709
42648SOL    HW229842  12.837   4.229  13.659
42649SOL     OW29843   4.659   0.897   2.886
42649SOL    HW129844   4.577   0.945   2.871
42649SOL    HW229845   4.703   0.896   2.801
42650SOL     OW29846  11.952  14.443   9.298
42650SOL    HW129847  11.989  14.380   9.360
42650SOL    HW229848  11.942  14.394   9.217
42651SOL     OW29849   6.276   9.557   5.413
42651SOL    HW129850   6.299   9.543   5.505
42651SOL    HW229851   6.324   9.488   5.366
42652SOL     OW29852   7.263  13.707   7.909
42652SOL    HW129853   7.276  13.621   7.949
42652SOL    HW229854   7.219  13.759   7.976
42653SOL     OW29855   0.219  14.804   1.656
42653SOL    HW129856   0.221  14.734   1.591
42653SOL    HW229857   0.158  14.773   1.723
42654SOL     OW29858   3.645   1.364  14.211
42654SOL    HW129859   3.582   1.434  14.226
42654SOL    HW229860   3.616   1.293  14.268
42655SOL     OW29861   9.285  12.757   0.691
42655SOL    HW129862   9.318  12.676   0.652
42655SOL    HW229863   9.207  12.778   0.640
42656SOL     OW29864   5.195  11.689   3.778
42656SOL    HW129865   5.249  11.757   3.817
42656SOL    HW229866   5.223  11.684   3.687
42657SOL     OW29867   4.680   8.851   2.910
42657SOL    HW129868   4.622   8.775   2.910
42657SOL    HW229869   4.624   8.924   2.886
42658SOL     OW29870   8.991   3.651   0.919
42658SOL    HW129871   8.992   3.693   1.005
42658SOL    HW229872   8.971   3.560   0.938
42659SOL     OW29873   0.848   8.438  10.244
42659SOL    HW129874   0.775   8.424  10.183
42659SOL    HW229875   0.919   8.473  10.190
42660SOL     OW29876   1.216   7.633  14.728
42660SOL    HW129877   1.271   7.633  14.650
42660SOL    HW229878   1.127   7.629  14.694
42661SOL     OW29879   1.088  10.809   4.211
42661SOL    HW129880   1.139  10.738   4.250
42661SOL    HW229881   1.021  10.765   4.159
42662SOL     OW29882   3.026  14.271  11.563
42662SOL    HW129883   3.018  14.366  11.561
42662SOL    HW229884   2.974  14.244  11.640
42663SOL     OW29885   5.737   6.923   8.323
42663SOL    HW129886   5.670   6.871   8.279
42663SOL    HW229887   5.698   6.946   8.408
42664SOL     OW29888   2.912   2.966  14.110
42664SOL    HW129889   2.938   3.024  14.038
42664SOL    HW229890   2.892   3.025  14.183
42665SOL     OW29891   1.474   9.943  12.075
42665SOL    HW129892   1.492   9.923  11.983
42665SOL    HW229893   1.445   9.860  12.113
42666SOL     OW29894   8.657   4.697  10.301
42666SOL    HW129895   8.603   4.625  10.267
42666SOL    HW229896   8.746   4.674  10.273
42667SOL     OW29897   1.660   0.630   7.333
42667SOL    HW129898   1.662   0.698   7.399
42667SOL    HW229899   1.648   0.677   7.250
42668SOL     OW29900  11.648   5.993   9.977
42668SOL    HW129901  11.698   6.064  10.017
42668SOL    HW229902  11.651   6.011   9.883
42669SOL     OW29903   4.352   4.452   1.617
42669SOL    HW129904   4.421   4.454   1.550
42669SOL    HW229905   4.354   4.363   1.651
42670SOL     OW29906   6.587  12.506  12.187
42670SOL    HW129907   6.572  12.447  12.261
42670SOL    HW229908   6.669  12.551  12.208
42671SOL     OW29909   7.425  12.686  11.351
42671SOL    HW129910   7.377  12.638  11.284
42671SOL    HW229911   7.358  12.718  11.411
42672SOL     OW29912  10.280  12.767   8.603
42672SOL    HW129913  10.215  12.836   8.618
42672SOL    HW229914  10.339  12.772   8.677
42673SOL     OW29915  11.332  12.042   6.561
42673SOL    HW129916  11.305  12.063   6.650
42673SOL    HW229917  11.355  11.949   6.564
42674SOL     OW29918   7.777  10.758   2.081
42674SOL    HW129919   7.860  10.727   2.118
42674SOL    HW229920   7.725  10.679   2.068
42675SOL     OW29921   9.180   6.220  12.540
42675SOL    HW129922   9.189   6.268  12.622
42675SOL    HW229923   9.201   6.284  12.472
42676SOL     OW29924   0.252   0.216   1.534
42676SOL    HW129925   0.177   0.208   1.476
42676SOL    HW229926   0.244   0.142   1.594
42677SOL     OW29927   6.831   1.244   2.589
42677SOL    HW129928   6.818   1.316   2.651
42677SOL    HW229929   6.792   1.276   2.507
42678SOL     OW29930  13.681   8.686   8.524
42678SOL    HW129931  13.591   8.672   8.493
42678SOL    HW229932  13.713   8.760   8.472
42679SOL     OW29933   9.285   3.946  13.442
42679SOL    HW129934   9.347   3.941  13.514
42679SOL    HW229935   9.310   4.025  13.394
42680SOL     OW29936  13.129  11.719  10.416
42680SOL    HW129937  13.168  11.641  10.455
42680SOL    HW229938  13.038  11.695  10.400
42681SOL     OW29939   0.777  13.615   0.619
42681SOL    HW129940   0.738  13.573   0.695
42681SOL    HW229941   0.763  13.553   0.547
42682SOL     OW29942   2.390   1.477  13.835
42682SOL    HW129943   2.404   1.450  13.926
42682SOL    HW229944   2.310   1.433  13.809
42683SOL     OW29945   0.703   2.463   6.589
42683SOL    HW129946   0.751   2.413   6.523
42683SOL    HW229947   0.693   2.403   6.663
42684SOL     OW29948   7.298  14.235   8.615
42684SOL    HW129949   7.298  14.308   8.676
42684SOL    HW229950   7.378  14.247   8.564
42685SOL     OW29951  14.512   1.004   9.101
42685SOL    HW129952  14.467   1.064   9.161
42685SOL    HW229953  14.557   0.942   9.158
42686SOL     OW29954   1.456   6.930   4.972
42686SOL    HW129955   1.462   7.013   4.924
42686SOL    HW229956   1.409   6.872   4.912
42687SOL     OW29957   4.054  14.749   7.764
42687SOL    HW129958   4.027  14.791   7.845
42687SOL    HW229959   4.133  14.796   7.738
42688SOL     OW29960   2.234  12.043   6.804
42688SOL    HW129961   2.168  12.112   6.817
42688SOL    HW229962   2.198  11.989   6.734
42689SOL     OW29963  13.358  13.425   4.449
42689SOL    HW129964  13.332  13.369   4.522
42689SOL    HW229965  13.411  13.494   4.488
42690SOL     OW29966  12.218  13.500   7.176
42690SOL    HW129967  12.214  13.404   7.178
42690SOL    HW229968  12.274  13.524   7.250
42691SOL     OW29969   4.670  11.034   9.861
42691SOL    HW129970   4.600  10.972   9.876
42691SOL    HW229971   4.750  10.989   9.891
42692SOL     OW29972   1.859   8.195  11.245
42692SOL    HW129973   1.899   8.236  11.169
42692SOL    HW229974   1.802   8.263  11.282
42693SOL     OW29975   0.546  12.705   5.138
42693SOL    HW129976   0.603  12.713   5.062
42693SOL    HW229977   0.530  12.796   5.166
42694SOL     OW29978   8.494  13.567   9.330
42694SOL    HW129979   8.516  13.620   9.406
42694SOL    HW229980   8.439  13.497   9.364
42695SOL     OW29981  12.155   0.151   9.274
42695SOL    HW129982  12.124   0.155   9.365
42695SOL    HW229983  12.234   0.098   9.279
42696SOL     OW29984   0.539   6.405   5.583
42696SOL    HW129985   0.625   6.444   5.597
42696SOL    HW229986   0.487   6.431   5.659
42697SOL     OW29987  10.280   4.654   2.935
42697SOL    HW129988  10.310   4.686   3.020
42697SOL    HW229989  10.252   4.564   2.952
42698SOL     OW29990  13.166   8.496   8.581
42698SOL    HW129991  13.117   8.558   8.635
42698SOL    HW229992  13.231   8.459   8.641
42699SOL     OW29993   6.941   7.702  11.658
42699SOL    HW129994   7.001   7.639  11.698
42699SOL    HW229995   6.967   7.706  11.566
42700SOL     OW29996   4.487  13.170   2.156
42700SOL    HW129997   4.506  13.262   2.173
42700SOL    HW229998   4.428  13.170   2.081
42701SOL     OW29999   4.493   4.513   8.451
42701SOL    HW130000   4.572   4.463   8.431
42701SOL    HW230001   4.438   4.503   8.373
42702SOL     OW30002   9.525   9.205  10.925
42702SOL    HW130003   9.571   9.152  10.990
42702SOL    HW230004   9.504   9.144  10.855
42703SOL     OW30005   5.977   4.764   0.506
42703SOL    HW130006   5.989   4.757   0.601
42703SOL    HW230007   6.015   4.683   0.472
42704SOL     OW30008  14.329   3.084   1.136
42704SOL    HW130009  14.320   3.174   1.169
42704SOL    HW230010  14.335   3.093   1.041
42705SOL     OW30011   9.626  12.898   1.325
42705SOL    HW130012   9.575  12.979   1.333
42705SOL    HW230013   9.590  12.855   1.247
42706SOL     OW30014  11.146   5.392   3.931
42706SOL    HW130015  11.178   5.475   3.897
42706SOL    HW230016  11.051   5.404   3.937
42707SOL     OW30017   9.088   2.678   2.848
42707SOL    HW130018   9.073   2.611   2.781
42707SOL    HW230019   9.176   2.710   2.830
42708SOL     OW30020   9.287   6.098  14.492
42708SOL    HW130021   9.314   6.069  14.579
42708SOL    HW230022   9.255   6.187  14.505
42709SOL     OW30023  10.833   4.243   9.552
42709SOL    HW130024  10.800   4.238   9.642
42709SOL    HW230025  10.786   4.173   9.506
42710SOL     OW30026   4.880  14.552  11.322
42710SOL    HW130027   4.856  14.589  11.407
42710SOL    HW230028   4.876  14.627  11.262
42711SOL     OW30029  14.382   1.600  12.558
42711SOL    HW130030  14.417   1.589  12.646
42711SOL    HW230031  14.448   1.560  12.501
42712SOL     OW30032  10.738  11.822  13.278
42712SOL    HW130033  10.788  11.878  13.218
42712SOL    HW230034  10.736  11.736  13.236
42713SOL     OW30035  11.775   2.676   1.647
42713SOL    HW130036  11.776   2.752   1.589
42713SOL    HW230037  11.754   2.602   1.589
42714SOL     OW30038   9.023   4.457   7.453
42714SOL    HW130039   9.102   4.507   7.430
42714SOL    HW230040   9.031   4.441   7.547
42715SOL     OW30041   9.376  12.164   5.665
42715SOL    HW130042   9.348  12.178   5.574
42715SOL    HW230043   9.307  12.110   5.703
42716SOL     OW30044   3.922  11.624   6.286
42716SOL    HW130045   3.978  11.656   6.357
42716SOL    HW230046   3.838  11.667   6.299
42717SOL     OW30047   8.205   1.360   5.757
42717SOL    HW130048   8.289   1.395   5.785
42717SOL    HW230049   8.145   1.384   5.828
42718SOL     OW30050   4.995   4.232  10.769
42718SOL    HW130051   4.985   4.250  10.863
42718SOL    HW230052   4.912   4.259  10.730
42719SOL     OW30053   5.170  10.968   4.063
42719SOL    HW130054   5.132  10.942   4.147
42719SOL    HW230055   5.119  10.921   3.997
42720SOL     OW30056   3.978   0.139   9.370
42720SOL    HW130057   3.885   0.136   9.349
42720SOL    HW230058   4.020   0.161   9.287
42721SOL     OW30059   2.226  11.272   2.920
42721SOL    HW130060   2.195  11.314   2.840
42721SOL    HW230061   2.313  11.239   2.897
42722SOL     OW30062   3.646   7.282   4.604
42722SOL    HW130063   3.700   7.343   4.653
42722SOL    HW230064   3.648   7.201   4.655
42723SOL     OW30065   3.615  14.596  12.587
42723SOL    HW130066   3.625  14.642  12.670
42723SOL    HW230067   3.584  14.509  12.610
42724SOL     OW30068   4.376   6.407   8.433
42724SOL    HW130069   4.377   6.451   8.349
42724SOL    HW230070   4.284   6.410   8.460
42725SOL     OW30071   4.098   3.886   2.692
42725SOL    HW130072   4.015   3.891   2.644
42725SOL    HW230073   4.075   3.906   2.782
42726SOL     OW30074   2.894  10.606   1.613
42726SOL    HW130075   2.928  10.549   1.682
42726SOL    HW230076   2.971  10.632   1.563
42727SOL     OW30077   3.010  13.926  12.451
42727SOL    HW130078   3.070  13.995  12.480
42727SOL    HW230079   2.952  13.912  12.525
42728SOL     OW30080  14.847   6.368  10.259
42728SOL    HW130081  14.869   6.359  10.166
42728SOL    HW230082  14.758   6.405  10.259
42729SOL     OW30083  10.019  13.791   8.688
42729SOL    HW130084   9.990  13.765   8.600
42729SOL    HW230085   9.938  13.801   8.738
42730SOL     OW30086   2.433   2.447   1.145
42730SOL    HW130087   2.518   2.452   1.187
42730SOL    HW230088   2.372   2.425   1.215
42731SOL     OW30089   5.449   6.052  11.790
42731SOL    HW130090   5.424   6.102  11.869
42731SOL    HW230091   5.542   6.069  11.780
42732SOL     OW30092   7.394  13.983  14.435
42732SOL    HW130093   7.346  13.959  14.514
42732SOL    HW230094   7.342  14.053  14.396
42733SOL     OW30095   1.730  11.944  14.133
42733SOL    HW130096   1.793  11.986  14.075
42733SOL    HW230097   1.647  11.949  14.086
42734SOL     OW30098  13.715   5.432   8.924
42734SOL    HW130099  13.671   5.483   8.855
42734SOL    HW230100  13.797   5.403   8.884
42735SOL     OW30101  12.970  11.344   4.963
42735SOL    HW130102  12.960  11.433   4.997
42735SOL    HW230103  12.900  11.294   5.005
42736SOL     OW30104  11.605  11.453   8.538
42736SOL    HW130105  11.661  11.518   8.495
42736SOL    HW230106  11.633  11.369   8.502
42737SOL     OW30107  10.654  14.644   1.320
42737SOL    HW130108  10.600  14.640   1.241
42737SOL    HW230109  10.705  14.563   1.318
42738SOL     OW30110  11.895   6.206  10.341
42738SOL    HW130111  11.893   6.263  10.418
42738SOL    HW230112  11.970   6.237  10.290
42739SOL     OW30113  11.094  11.379  11.586
42739SOL    HW130114  11.170  11.429  11.557
42739SOL    HW230115  11.076  11.319  11.514
42740SOL     OW30116   0.021   0.069   4.973
42740SOL    HW130117  14.830   0.142   4.986
42740SOL    HW230118   0.106   0.103   5.000
42741SOL     OW30119   2.440  11.252   5.740
42741SOL    HW130120   2.369  11.197   5.706
42741SOL    HW230121   2.486  11.197   5.802
42742SOL     OW30122  14.686  12.653   2.276
42742SOL    HW130123  14.629  12.592   2.229
42742SOL    HW230124  14.756  12.672   2.214
42743SOL     OW30125   1.612   7.925   2.246
42743SOL    HW130126   1.617   7.862   2.174
42743SOL    HW230127   1.663   7.884   2.316
42744SOL     OW30128  11.381   9.909   3.743
42744SOL    HW130129  11.404   9.858   3.820
42744SOL    HW230130  11.421   9.994   3.756
42745SOL     OW30131   0.085  12.628   2.468
42745SOL    HW130132   0.061  12.720   2.481
42745SOL    HW230133   0.062  12.610   2.377
42746SOL     OW30134  13.919  12.474   6.638
42746SOL    HW130135  13.834  12.477   6.594
42746SOL    HW230136  13.918  12.550   6.697
42747SOL     OW30137  10.140  10.421   6.668
42747SOL    HW130138  10.133  10.511   6.699
42747SOL    HW230139  10.182  10.427   6.583
42748SOL     OW30140   8.334   7.954  10.014
42748SOL    HW130141   8.423   7.925   9.995
42748SOL    HW230142   8.337   7.981  10.106
42749SOL     OW30143   2.928  11.871   4.943
42749SOL    HW130144   2.883  11.942   4.990
42749SOL    HW230145   2.977  11.824   5.011
42750SOL     OW30146  11.350   5.945   4.678
42750SOL    HW130147  11.374   6.023   4.727
42750SOL    HW230148  11.263   5.965   4.641
42751SOL     OW30149   0.720   1.129   8.214
42751SOL    HW130150   0.626   1.138   8.200
42751SOL    HW230151   0.760   1.161   8.133
42752SOL     OW30152   0.575  12.448   5.127
42752SOL    HW130153   0.571  12.539   5.155
42752SOL    HW230154   0.668  12.426   5.133
42753SOL     OW30155   7.986   8.927   4.637
42753SOL    HW130156   8.044   8.950   4.710
42753SOL    HW230157   7.933   8.855   4.670
42754SOL     OW30158  14.496   8.491   4.291
42754SOL    HW130159  14.417   8.437   4.295
42754SOL    HW230160  14.491   8.547   4.368
42755SOL     OW30161   9.123   2.407   4.173
42755SOL    HW130162   9.051   2.409   4.236
42755SOL    HW230163   9.118   2.320   4.134
42756SOL     OW30164   9.066   4.983  11.841
42756SOL    HW130165   9.012   5.003  11.764
42756SOL    HW230166   9.152   5.019  11.820
42757SOL     OW30167   6.812   8.273   1.708
42757SOL    HW130168   6.731   8.246   1.665
42757SOL    HW230169   6.857   8.191   1.728
42758SOL     OW30170  11.382  13.902  12.190
42758SOL    HW130171  11.329  13.977  12.216
42758SOL    HW230172  11.322  13.827  12.195
42759SOL     OW30173  14.415   6.821   4.313
42759SOL    HW130174  14.346   6.881   4.285
42759SOL    HW230175  14.443   6.776   4.233
42760SOL     OW30176  13.232  14.263   7.121
42760SOL    HW130177  13.311  14.276   7.069
42760SOL    HW230178  13.259  14.282   7.211
42761SOL     OW30179   9.777   0.632  14.433
42761SOL    HW130180   9.700   0.581  14.458
42761SOL    HW230181   9.792   0.609  14.342
42762SOL     OW30182  13.577  12.884   8.464
42762SOL    HW130183  13.585  12.970   8.423
42762SOL    HW230184  13.659  12.839   8.442
42763SOL     OW30185  14.364   8.197   5.954
42763SOL    HW130186  14.376   8.259   6.025
42763SOL    HW230187  14.306   8.130   5.990
42764SOL     OW30188  11.317   9.773  11.703
42764SOL    HW130189  11.286   9.739  11.620
42764SOL    HW230190  11.283   9.711  11.769
42765SOL     OW30191  11.997   1.547  11.891
42765SOL    HW130192  11.976   1.587  11.807
42765SOL    HW230193  11.996   1.620  11.953
42766SOL     OW30194  10.518   7.023   3.291
42766SOL    HW130195  10.476   7.068   3.364
42766SOL    HW230196  10.466   7.047   3.214
42767SOL     OW30197   0.586   5.009   9.131
42767SOL    HW130198   0.676   4.975   9.137
42767SOL    HW230199   0.539   4.943   9.081
42768SOL     OW30200   3.830   0.998   3.045
42768SOL    HW130201   3.805   0.938   3.115
42768SOL    HW230202   3.922   0.979   3.028
42769SOL     OW30203   9.301   8.946   9.381
42769SOL    HW130204   9.335   8.856   9.385
42769SOL    HW230205   9.312   8.972   9.290
42770SOL     OW30206   1.358   2.410  12.735
42770SOL    HW130207   1.425   2.383  12.797
42770SOL    HW230208   1.361   2.506  12.735
42771SOL     OW30209   0.443   1.431   2.874
42771SOL    HW130210   0.411   1.492   2.808
42771SOL    HW230211   0.378   1.360   2.874
42772SOL     OW30212   0.836   8.955   2.894
42772SOL    HW130213   0.795   8.888   2.839
42772SOL    HW230214   0.830   9.035   2.843
42773SOL     OW30215   8.568  12.374   7.914
42773SOL    HW130216   8.558  12.325   7.833
42773SOL    HW230217   8.643  12.333   7.958
42774SOL     OW30218   4.137   5.870   0.489
42774SOL    HW130219   4.108   5.779   0.504
42774SOL    HW230220   4.085   5.921   0.551
42775SOL     OW30221  11.781   3.221   3.491
42775SOL    HW130222  11.767   3.315   3.503
42775SOL    HW230223  11.763   3.183   3.578
42776SOL     OW30224   4.879   4.788   6.737
42776SOL    HW130225   4.867   4.829   6.823
42776SOL    HW230226   4.968   4.753   6.741
42777SOL     OW30227  14.708   2.782   4.650
42777SOL    HW130228  14.624   2.797   4.608
42777SOL    HW230229  14.734   2.868   4.684
42778SOL     OW30230   0.165  12.439  14.649
42778SOL    HW130231   0.121  12.400  14.574
42778SOL    HW230232   0.132  12.529  14.653
42779SOL     OW30233   0.791   2.618  14.509
42779SOL    HW130234   0.735   2.643  14.435
42779SOL    HW230235   0.736   2.563  14.564
42780SOL     OW30236   3.549   0.136   6.744
42780SOL    HW130237   3.613   0.166   6.680
42780SOL    HW230238   3.572   0.045   6.761
42781SOL     OW30239  13.883   5.913  11.035
42781SOL    HW130240  13.804   5.946  11.077
42781SOL    HW230241  13.952   5.925  11.101
42782SOL     OW30242   7.533   9.208  10.612
42782SOL    HW130243   7.440   9.187  10.601
42782SOL    HW230244   7.558   9.161  10.692
42783SOL     OW30245  12.657  11.440   8.019
42783SOL    HW130246  12.629  11.486   8.098
42783SOL    HW230247  12.748  11.468   8.006
42784SOL     OW30248   7.942  11.640   2.836
42784SOL    HW130249   7.863  11.673   2.879
42784SOL    HW230250   8.005  11.712   2.843
42785SOL     OW30251   6.457  10.999   9.727
42785SOL    HW130252   6.466  10.941   9.651
42785SOL    HW230253   6.364  11.020   9.731
42786SOL     OW30254   0.212   3.237   8.252
42786SOL    HW130255   0.276   3.257   8.320
42786SOL    HW230256   0.136   3.291   8.273
42787SOL     OW30257   6.138   2.500   5.487
42787SOL    HW130258   6.212   2.479   5.429
42787SOL    HW230259   6.091   2.417   5.496
42788SOL     OW30260   3.410  14.363   1.128
42788SOL    HW130261   3.455  14.280   1.110
42788SOL    HW230262   3.478  14.430   1.119
42789SOL     OW30263   2.457   6.493  12.241
42789SOL    HW130264   2.386   6.524  12.297
42789SOL    HW230265   2.415   6.481  12.155
42790SOL     OW30266   5.751   4.212  11.768
42790SOL    HW130267   5.753   4.266  11.847
42790SOL    HW230268   5.728   4.273  11.698
42791SOL     OW30269  13.268  13.194   0.828
42791SOL    HW130270  13.356  13.183   0.863
42791SOL    HW230271  13.281  13.200   0.733
42792SOL     OW30272   1.843   8.416  12.443
42792SOL    HW130273   1.844   8.389  12.351
42792SOL    HW230274   1.935   8.423  12.468
42793SOL     OW30275   8.578   6.139   3.914
42793SOL    HW130276   8.521   6.212   3.934
42793SOL    HW230277   8.548   6.108   3.828
42794SOL     OW30278   6.140   5.002   4.744
42794SOL    HW130279   6.224   5.026   4.705
42794SOL    HW230280   6.158   4.990   4.837
42795SOL     OW30281  10.676   7.615   3.070
42795SOL    HW130282  10.635   7.541   3.024
42795SOL    HW230283  10.619   7.630   3.145
42796SOL     OW30284  12.209  11.400   0.588
42796SOL    HW130285  12.150  11.379   0.661
42796SOL    HW230286  12.206  11.495   0.581
42797SOL     OW30287   5.936  11.847   3.524
42797SOL    HW130288   6.013  11.889   3.486
42797SOL    HW230289   5.874  11.840   3.451
42798SOL     OW30290   4.243   3.544  11.118
42798SOL    HW130291   4.331   3.581  11.116
42798SOL    HW230292   4.221   3.539  11.211
42799SOL     OW30293  13.193  10.800   8.237
42799SOL    HW130294  13.222  10.859   8.167
42799SOL    HW230295  13.098  10.813   8.242
42800SOL     OW30296   5.089   5.844   7.351
42800SOL    HW130297   5.168   5.895   7.369
42800SOL    HW230298   5.035   5.903   7.297
42801SOL     OW30299   4.915   8.888   0.304
42801SOL    HW130300   4.968   8.951   0.257
42801SOL    HW230301   4.967   8.807   0.304
42802SOL     OW30302   2.323   5.238   5.371
42802SOL    HW130303   2.329   5.165   5.433
42802SOL    HW230304   2.278   5.307   5.420
42803SOL     OW30305   5.861   8.066   0.236
42803SOL    HW130306   5.841   8.036   0.324
42803SOL    HW230307   5.792   8.028   0.181
42804SOL     OW30308   8.293  12.401   6.889
42804SOL    HW130309   8.281  12.433   6.978
42804SOL    HW230310   8.229  12.330   6.880
42805SOL     OW30311   7.528   4.401   4.352
42805SOL    HW130312   7.560   4.352   4.428
42805SOL    HW230313   7.499   4.334   4.290
42806SOL     OW30314   8.099   1.364  13.924
42806SOL    HW130315   8.047   1.409  13.992
42806SOL    HW230316   8.086   1.271  13.942
42807SOL     OW30317   5.331   4.829   1.392
42807SOL    HW130318   5.244   4.796   1.370
42807SOL    HW230319   5.341   4.810   1.485
42808SOL     OW30320   0.270   3.743   9.229
42808SOL    HW130321   0.287   3.722   9.321
42808SOL    HW230322   0.256   3.658   9.187
42809SOL     OW30323   7.448  12.695   6.614
42809SOL    HW130324   7.361  12.671   6.645
42809SOL    HW230325   7.507  12.641   6.666
42810SOL     OW30326  13.910  14.123   2.510
42810SOL    HW130327  13.840  14.177   2.545
42810SOL    HW230328  13.866  14.045   2.476
42811SOL     OW30329   5.358   0.343  11.687
42811SOL    HW130330   5.321   0.315  11.604
42811SOL    HW230331   5.302   0.415  11.715
42812SOL     OW30332   4.495  12.156   6.716
42812SOL    HW130333   4.426  12.199   6.666
42812SOL    HW230334   4.453  12.077   6.751
42813SOL     OW30335   1.369  11.169  14.041
42813SOL    HW130336   1.345  11.077  14.041
42813SOL    HW230337   1.297  11.213  13.996
42814SOL     OW30338   4.999   5.029   2.640
42814SOL    HW130339   5.091   5.034   2.615
42814SOL    HW230340   4.983   4.936   2.654
42815SOL     OW30341  12.808   0.296   7.612
42815SOL    HW130342  12.871   0.225   7.621
42815SOL    HW230343  12.860   0.370   7.581
42816SOL     OW30344   3.157   3.681   6.349
42816SOL    HW130345   3.071   3.676   6.391
42816SOL    HW230346   3.150   3.756   6.290
42817SOL     OW30347   5.700  12.456  11.017
42817SOL    HW130348   5.613  12.424  10.994
42817SOL    HW230349   5.755  12.431  10.942
42818SOL     OW30350   9.481  13.296   4.671
42818SOL    HW130351   9.432  13.355   4.728
42818SOL    HW230352   9.548  13.258   4.727
42819SOL     OW30353   8.473   6.780   4.385
42819SOL    HW130354   8.565   6.753   4.389
42819SOL    HW230355   8.427   6.705   4.347
42820SOL     OW30356   8.522   8.083  12.797
42820SOL    HW130357   8.498   8.120  12.712
42820SOL    HW230358   8.526   7.989  12.782
42821SOL     OW30359   9.038  14.770   5.596
42821SOL    HW130360   8.949  14.799   5.612
42821SOL    HW230361   9.028  14.688   5.547
42822SOL     OW30362   1.058   2.117   1.958
42822SOL    HW130363   1.072   2.071   1.876
42822SOL    HW230364   0.964   2.110   1.974
42823SOL     OW30365   4.154   6.378   9.951
42823SOL    HW130366   4.122   6.332  10.029
42823SOL    HW230367   4.135   6.470   9.969
42824SOL     OW30368   2.847   5.024   7.329
42824SOL    HW130369   2.848   4.955   7.395
42824SOL    HW230370   2.838   5.105   7.379
42825SOL     OW30371   7.872   0.927   0.713
42825SOL    HW130372   7.848   0.850   0.661
42825SOL    HW230373   7.888   0.995   0.648
42826SOL     OW30374   6.510  11.028  13.869
42826SOL    HW130375   6.469  11.059  13.788
42826SOL    HW230376   6.462  11.072  13.939
42827SOL     OW30377   6.046   7.916  14.027
42827SOL    HW130378   6.077   8.005  14.013
42827SOL    HW230379   6.015   7.888  13.941
42828SOL     OW30380   7.593  14.740  12.913
42828SOL    HW130381   7.617  14.655  12.876
42828SOL    HW230382   7.648  14.803  12.866
42829SOL     OW30383   1.903   6.291   3.166
42829SOL    HW130384   1.846   6.332   3.100
42829SOL    HW230385   1.963   6.237   3.114
42830SOL     OW30386   1.708   0.688  13.311
42830SOL    HW130387   1.702   0.718  13.402
42830SOL    HW230388   1.624   0.711  13.273
42831SOL     OW30389  10.376   2.767   7.652
42831SOL    HW130390  10.292   2.804   7.681
42831SOL    HW230391  10.442   2.813   7.705
42832SOL     OW30392   0.733   8.551   9.215
42832SOL    HW130393   0.668   8.534   9.147
42832SOL    HW230394   0.717   8.641   9.242
42833SOL     OW30395   7.370   7.840   4.414
42833SOL    HW130396   7.395   7.751   4.439
42833SOL    HW230397   7.275   7.842   4.426
42834SOL     OW30398   8.179   1.648   3.707
42834SOL    HW130399   8.199   1.582   3.772
42834SOL    HW230400   8.265   1.681   3.679
42835SOL     OW30401  13.559   0.934  12.487
42835SOL    HW130402  13.559   0.992  12.410
42835SOL    HW230403  13.527   0.988  12.558
42836SOL     OW30404   6.815   8.457  14.475
42836SOL    HW130405   6.727   8.428  14.500
42836SOL    HW230406   6.874   8.390  14.512
42837SOL     OW30407   4.216   2.197   7.154
42837SOL    HW130408   4.306   2.193   7.122
42837SOL    HW230409   4.212   2.132   7.224
42838SOL     OW30410   7.754   9.957  14.273
42838SOL    HW130411   7.841   9.918  14.275
42838SOL    HW230412   7.748  10.008  14.354
42839SOL     OW30413   5.415   4.461  13.380
42839SOL    HW130414   5.414   4.555  13.396
42839SOL    HW230415   5.477   4.427  13.444
42840SOL     OW30416   7.976   2.950   2.390
42840SOL    HW130417   7.965   3.003   2.311
42840SOL    HW230418   8.067   2.964   2.416
42841SOL     OW30419   9.580   2.777   5.520
42841SOL    HW130420   9.583   2.842   5.449
42841SOL    HW230421   9.494   2.791   5.561
42842SOL     OW30422   2.169   1.807   1.207
42842SOL    HW130423   2.216   1.797   1.290
42842SOL    HW230424   2.105   1.736   1.208
42843SOL     OW30425  13.731   3.605  10.115
42843SOL    HW130426  13.732   3.529  10.174
42843SOL    HW230427  13.646   3.646  10.131
42844SOL     OW30428   9.883   3.642  14.443
42844SOL    HW130429   9.936   3.604  14.373
42844SOL    HW230430   9.905   3.589  14.520
42845SOL     OW30431  10.988  12.233   2.481
42845SOL    HW130432  10.989  12.327   2.502
42845SOL    HW230433  10.971  12.191   2.565
42846SOL     OW30434  14.368  11.204  14.070
42846SOL    HW130435  14.382  11.298  14.069
42846SOL    HW230436  14.354  11.181  13.978
42847SOL     OW30437   7.273   3.426  11.842
42847SOL    HW130438   7.313   3.463  11.921
42847SOL    HW230439   7.344   3.381  11.797
42848SOL     OW30440   3.599  12.403   1.797
42848SOL    HW130441   3.575  12.311   1.796
42848SOL    HW230442   3.573  12.435   1.883
42849SOL     OW30443   3.774  13.411   8.143
42849SOL    HW130444   3.683  13.411   8.172
42849SOL    HW230445   3.823  13.447   8.217
42850SOL     OW30446   3.310  10.956  10.264
42850SOL    HW130447   3.239  10.915  10.313
42850SOL    HW230448   3.387  10.902  10.284
42851SOL     OW30449   0.549   8.939   1.706
42851SOL    HW130450   0.573   9.014   1.761
42851SOL    HW230451   0.473   8.969   1.656
42852SOL     OW30452   8.473   3.969   1.795
42852SOL    HW130453   8.442   4.011   1.876
42852SOL    HW230454   8.556   4.012   1.776
42853SOL     OW30455   5.064   3.586   9.739
42853SOL    HW130456   5.073   3.625   9.826
42853SOL    HW230457   4.987   3.529   9.747
42854SOL     OW30458  14.626   2.622  10.982
42854SOL    HW130459  14.570   2.544  10.978
42854SOL    HW230460  14.662   2.630  10.894
42855SOL     OW30461  12.766   1.618   0.345
42855SOL    HW130462  12.833   1.617   0.414
42855SOL    HW230463  12.808   1.661   0.271
42856SOL     OW30464   1.086  12.252  12.182
42856SOL    HW130465   1.164  12.266  12.235
42856SOL    HW230466   1.042  12.337  12.180
42857SOL     OW30467   9.773   9.685   5.791
42857SOL    HW130468   9.805   9.661   5.878
42857SOL    HW230469   9.811   9.619   5.733
42858SOL     OW30470   2.331  13.206   9.752
42858SOL    HW130471   2.368  13.249   9.828
42858SOL    HW230472   2.239  13.191   9.775
42859SOL     OW30473   4.192  13.446  13.989
42859SOL    HW130474   4.259  13.509  13.962
42859SOL    HW230475   4.171  13.471  14.079
42860SOL     OW30476   0.882  11.426  12.045
42860SOL    HW130477   0.794  11.412  12.081
42860SOL    HW230478   0.923  11.488  12.105
42861SOL     OW30479   2.637   0.445   5.565
42861SOL    HW130480   2.686   0.395   5.500
42861SOL    HW230481   2.550   0.406   5.566
42862SOL     OW30482   5.681   4.614   4.030
42862SOL    HW130483   5.756   4.619   4.090
42862SOL    HW230484   5.720   4.623   3.943
42863SOL     OW30485   0.408   5.857   7.892
42863SOL    HW130486   0.315   5.836   7.899
42863SOL    HW230487   0.444   5.835   7.978
42864SOL     OW30488   5.228   4.039   2.346
42864SOL    HW130489   5.205   3.988   2.268
42864SOL    HW230490   5.305   3.994   2.382
42865SOL     OW30491   7.188  11.813   3.625
42865SOL    HW130492   7.237  11.785   3.548
42865SOL    HW230493   7.112  11.755   3.628
42866SOL     OW30494   1.528  14.410   2.779
42866SOL    HW130495   1.590  14.444   2.715
42866SOL    HW230496   1.567  14.329   2.811
42867SOL     OW30497  13.506  12.378   6.952
42867SOL    HW130498  13.492  12.343   7.040
42867SOL    HW230499  13.452  12.322   6.895
42868SOL     OW30500   1.739  14.058   5.913
42868SOL    HW130501   1.734  14.088   6.004
42868SOL    HW230502   1.833  14.045   5.898
42869SOL     OW30503   1.925   3.054   9.214
42869SOL    HW130504   1.943   2.962   9.196
42869SOL    HW230505   1.981   3.102   9.153
42870SOL     OW30506   3.180   5.023   4.939
42870SOL    HW130507   3.255   4.981   4.898
42870SOL    HW230508   3.218   5.095   4.989
42871SOL     OW30509   2.103  14.436  12.909
42871SOL    HW130510   2.065  14.376  12.974
42871SOL    HW230511   2.027  14.481  12.872
42872SOL     OW30512   3.664   5.871   5.977
42872SOL    HW130513   3.672   5.797   5.916
42872SOL    HW230514   3.574   5.902   5.966
42873SOL     OW30515   3.479   5.784   3.918
42873SOL    HW130516   3.574   5.771   3.922
42873SOL    HW230517   3.450   5.728   3.846
42874SOL     OW30518  13.429  11.174   5.673
42874SOL    HW130519  13.494  11.124   5.724
42874SOL    HW230520  13.386  11.230   5.738
42875SOL     OW30521   7.535   9.298   3.751
42875SOL    HW130522   7.564   9.343   3.831
42875SOL    HW230523   7.587   9.218   3.748
42876SOL     OW30524   3.677   4.875  10.589
42876SOL    HW130525   3.769   4.879  10.563
42876SOL    HW230526   3.652   4.784  10.569
42877SOL     OW30527  13.373   8.778  11.860
42877SOL    HW130528  13.334   8.772  11.947
42877SOL    HW230529  13.460   8.738  11.870
42878SOL     OW30530  11.570  14.276   8.963
42878SOL    HW130531  11.617  14.256   9.043
42878SOL    HW230532  11.536  14.364   8.977
42879SOL     OW30533   1.373   6.791   0.233
42879SOL    HW130534   1.302   6.774   0.294
42879SOL    HW230535   1.435   6.846   0.282
42880SOL     OW30536   9.726   1.358   7.851
42880SOL    HW130537   9.706   1.274   7.810
42880SOL    HW230538   9.679   1.423   7.799
42881SOL     OW30539   6.862  14.549   2.468
42881SOL    HW130540   6.871  14.456   2.487
42881SOL    HW230541   6.859  14.591   2.554
42882SOL     OW30542  11.661  12.161  13.174
42882SOL    HW130543  11.695  12.251  13.178
42882SOL    HW230544  11.709  12.115  13.244
42883SOL     OW30545   3.447   6.040   5.016
42883SOL    HW130546   3.515   6.068   5.077
42883SOL    HW230547   3.381   5.997   5.071
42884SOL     OW30548   2.397   1.433   3.648
42884SOL    HW130549   2.449   1.471   3.577
42884SOL    HW230550   2.431   1.344   3.658
42885SOL     OW30551   5.316   5.683  11.903
42885SOL    HW130552   5.401   5.647  11.929
42885SOL    HW230553   5.324   5.694  11.808
42886SOL     OW30554   8.827  12.897   6.439
42886SOL    HW130555   8.874  12.924   6.519
42886SOL    HW230556   8.896  12.868   6.380
42887SOL     OW30557   9.771   8.834   2.389
42887SOL    HW130558   9.798   8.830   2.297
42887SOL    HW230559   9.815   8.912   2.423
42888SOL     OW30560   5.183   3.968   3.510
42888SOL    HW130561   5.192   3.901   3.578
42888SOL    HW230562   5.215   4.048   3.552
42889SOL     OW30563   5.412  12.759   0.476
42889SOL    HW130564   5.484  12.821   0.483
42889SOL    HW230565   5.442  12.682   0.524
42890SOL     OW30566  10.916   0.187  13.950
42890SOL    HW130567  10.997   0.197  14.001
42890SOL    HW230568  10.945   0.153  13.865
42891SOL     OW30569  11.581   9.858   6.081
42891SOL    HW130570  11.573   9.778   6.132
42891SOL    HW230571  11.673   9.861   6.056
42892SOL     OW30572   6.975   1.213   9.897
42892SOL    HW130573   6.943   1.302   9.911
42892SOL    HW230574   7.063   1.213   9.934
42893SOL     OW30575   4.825  11.718  12.105
42893SOL    HW130576   4.888  11.720  12.033
42893SOL    HW230577   4.829  11.806  12.144
42894SOL     OW30578  12.969  13.730   2.786
42894SOL    HW130579  13.008  13.643   2.774
42894SOL    HW230580  12.995  13.779   2.708
42895SOL     OW30581   1.622   6.631  13.858
42895SOL    HW130582   1.586   6.545  13.836
42895SOL    HW230583   1.547   6.680  13.890
42896SOL     OW30584   2.469   6.864   4.685
42896SOL    HW130585   2.415   6.870   4.606
42896SOL    HW230586   2.547   6.817   4.657
42897SOL     OW30587  13.948  10.779   4.150
42897SOL    HW130588  13.879  10.729   4.107
42897SOL    HW230589  14.026  10.724   4.145
42898SOL     OW30590  14.789  12.729   9.729
42898SOL    HW130591  14.715  12.788   9.715
42898SOL    HW230592  14.754  12.642   9.710
42899SOL     OW30593  13.871  12.068  10.128
42899SOL    HW130594  13.914  12.134  10.182
42899SOL    HW230595  13.783  12.103  10.114
42900SOL     OW30596   8.995  10.862   7.566
42900SOL    HW130597   8.951  10.779   7.549
42900SOL    HW230598   9.088  10.843   7.556
42901SOL     OW30599  11.491  10.751  13.843
42901SOL    HW130600  11.578  10.756  13.884
42901SOL    HW230601  11.506  10.708  13.759
42902SOL     OW30602   0.012   6.113  10.702
42902SOL    HW130603   0.086   6.069  10.659
42902SOL    HW230604   0.027   6.097  10.795
42903SOL     OW30605   4.107   2.840  13.535
42903SOL    HW130606   4.037   2.806  13.480
42903SOL    HW230607   4.121   2.772  13.601
42904SOL     OW30608  14.536   6.840  10.315
42904SOL    HW130609  14.457   6.820  10.366
42904SOL    HW230610  14.504   6.863  10.228
42905SOL     OW30611   1.314   0.928   8.971
42905SOL    HW130612   1.365   0.847   8.975
42905SOL    HW230613   1.376   0.997   8.995
42906SOL     OW30614  13.368  10.968   2.784
42906SOL    HW130615  13.298  11.033   2.794
42906SOL    HW230616  13.334  10.907   2.719
42907SOL     OW30617   2.158   2.550   3.709
42907SOL    HW130618   2.156   2.645   3.715
42907SOL    HW230619   2.245   2.525   3.740
42908SOL     OW30620   2.813   2.366  11.816
42908SOL    HW130621   2.872   2.428  11.773
42908SOL    HW230622   2.734   2.417  11.835
42909SOL     OW30623  11.503   1.288  13.074
42909SOL    HW130624  11.570   1.354  13.091
42909SOL    HW230625  11.422   1.338  13.064
42910SOL     OW30626   6.188   2.762   9.519
42910SOL    HW130627   6.126   2.690   9.507
42910SOL    HW230628   6.136   2.831   9.560
42911SOL     OW30629   1.091  11.314  13.486
42911SOL    HW130630   1.174  11.301  13.532
42911SOL    HW230631   1.048  11.385  13.534
42912SOL     OW30632   8.942  12.971   1.485
42912SOL    HW130633   8.938  12.944   1.393
42912SOL    HW230634   9.025  12.936   1.517
42913SOL     OW30635   8.506   5.086   8.931
42913SOL    HW130636   8.497   5.130   9.016
42913SOL    HW230637   8.536   5.155   8.871
42914SOL     OW30638  13.852  14.131   4.966
42914SOL    HW130639  13.803  14.058   4.928
42914SOL    HW230640  13.932  14.090   5.000
42915SOL     OW30641  14.090   5.654   9.859
42915SOL    HW130642  14.157   5.663   9.791
42915SOL    HW230643  14.130   5.692   9.937
42916SOL     OW30644  12.757   6.757   4.976
42916SOL    HW130645  12.693   6.687   4.959
42916SOL    HW230646  12.704   6.837   4.977
42917SOL     OW30647   7.936   6.324   8.455
42917SOL    HW130648   7.973   6.340   8.368
42917SOL    HW230649   7.854   6.374   8.456
42918SOL     OW30650   9.647   3.363  11.698
42918SOL    HW130651   9.585   3.299  11.732
42918SOL    HW230652   9.732   3.337  11.736
42919SOL     OW30653  12.662  14.853  14.181
42919SOL    HW130654  12.713   0.057  14.148
42919SOL    HW230655  12.725  14.782  14.190
42920SOL     OW30656   2.411  13.972   8.554
42920SOL    HW130657   2.352  14.011   8.619
42920SOL    HW230658   2.357  13.964   8.475
42921SOL     OW30659   6.862   6.911   0.761
42921SOL    HW130660   6.872   6.839   0.823
42921SOL    HW230661   6.777   6.896   0.719
42922SOL     OW30662   8.417   7.226  12.184
42922SOL    HW130663   8.458   7.165  12.246
42922SOL    HW230664   8.476   7.227  12.109
42923SOL     OW30665  14.497   5.201   9.383
42923SOL    HW130666  14.500   5.272   9.448
42923SOL    HW230667  14.567   5.142   9.409
42924SOL     OW30668   7.777   2.522   2.483
42924SOL    HW130669   7.774   2.430   2.458
42924SOL    HW230670   7.745   2.569   2.406
42925SOL     OW30671   1.221   0.556   0.720
42925SOL    HW130672   1.131   0.563   0.751
42925SOL    HW230673   1.247   0.466   0.741
42926SOL     OW30674  13.896  11.399  12.471
42926SOL    HW130675  13.916  11.435  12.557
42926SOL    HW230676  13.972  11.346  12.448
42927SOL     OW30677   3.338   3.637   1.658
42927SOL    HW130678   3.261   3.625   1.602
42927SOL    HW230679   3.315   3.593   1.740
42928SOL     OW30680   1.841   2.964   0.106
42928SOL    HW130681   1.898   2.887   0.102
42928SOL    HW230682   1.767   2.936   0.160
42929SOL     OW30683  11.179   7.454  14.659
42929SOL    HW130684  11.141   7.461  14.571
42929SOL    HW230685  11.139   7.375  14.695
42930SOL     OW30686   6.543   1.661   7.048
42930SOL    HW130687   6.591   1.578   7.035
42930SOL    HW230688   6.605   1.717   7.094
42931SOL     OW30689   7.400   3.345   0.401
42931SOL    HW130690   7.368   3.342   0.491
42931SOL    HW230691   7.354   3.274   0.357
42932SOL     OW30692   2.585   4.234   4.841
42932SOL    HW130693   2.502   4.232   4.793
42932SOL    HW230694   2.646   4.185   4.787
42933SOL     OW30695   3.585   9.243  14.581
42933SOL    HW130696   3.520   9.226  14.513
42933SOL    HW230697   3.624   9.157  14.598
42934SOL     OW30698   0.471   8.915   1.054
42934SOL    HW130699   0.531   8.870   0.995
42934SOL    HW230700   0.395   8.858   1.059
42935SOL     OW30701   2.205   7.693   8.400
42935SOL    HW130702   2.134   7.639   8.434
42935SOL    HW230703   2.189   7.697   8.305
42936SOL     OW30704  11.716   1.889   1.422
42936SOL    HW130705  11.779   1.827   1.459
42936SOL    HW230706  11.669   1.839   1.356
42937SOL     OW30707  13.912  12.657   7.822
42937SOL    HW130708  13.824  12.686   7.846
42937SOL    HW230709  13.898  12.593   7.752
42938SOL     OW30710  10.014   5.997   0.077
42938SOL    HW130711  10.054   5.930   0.133
42938SOL    HW230712   9.922   5.998   0.102
42939SOL     OW30713   8.895   4.658   1.547
42939SOL    HW130714   8.957   4.620   1.485
42939SOL    HW230715   8.940   4.735   1.581
42940SOL     OW30716  13.686   0.087  12.063
42940SOL    HW130717  13.741   0.050  11.995
42940SOL    HW230718  13.626   0.146  12.017
42941SOL     OW30719   7.852  13.578  10.419
42941SOL    HW130720   7.936  13.537  10.396
42941SOL    HW230721   7.796  13.561  10.343
42942SOL     OW30722   7.995   7.469   7.695
42942SOL    HW130723   8.044   7.543   7.731
42942SOL    HW230724   7.905   7.484   7.722
42943SOL     OW30725  14.789   2.015   2.132
42943SOL    HW130726  14.811   2.009   2.039
42943SOL    HW230727  14.721   1.949   2.145
42944SOL     OW30728   8.609  12.687   8.975
42944SOL    HW130729   8.637  12.734   9.054
42944SOL    HW230730   8.577  12.756   8.917
42945SOL     OW30731  12.046   7.075   5.862
42945SOL    HW130732  11.992   7.019   5.806
42945SOL    HW230733  12.010   7.063   5.950
42946SOL     OW30734  13.073   0.752  13.972
42946SOL    HW130735  12.986   0.785  13.951
42946SOL    HW230736  13.118   0.826  14.013
42947SOL     OW30737   6.119   8.736  12.326
42947SOL    HW130738   6.185   8.768  12.264
42947SOL    HW230739   6.054   8.806  12.330
42948SOL     OW30740   7.170   1.579   0.837
42948SOL    HW130741   7.204   1.662   0.803
42948SOL    HW230742   7.205   1.572   0.925
42949SOL     OW30743   0.547  11.698   2.775
42949SOL    HW130744   0.600  11.622   2.798
42949SOL    HW230745   0.607  11.758   2.731
42950SOL     OW30746   5.016   4.273   6.505
42950SOL    HW130747   5.063   4.340   6.554
42950SOL    HW230748   5.009   4.308   6.417
42951SOL     OW30749   3.720   6.603   0.079
42951SOL    HW130750   3.649   6.661   0.108
42951SOL    HW230751   3.697   6.517   0.114
42952SOL     OW30752   4.297   9.877   2.482
42952SOL    HW130753   4.234   9.907   2.547
42952SOL    HW230754   4.244   9.836   2.414
42953SOL     OW30755  12.104   8.190   7.464
42953SOL    HW130756  12.172   8.142   7.417
42953SOL    HW230757  12.125   8.282   7.449
42954SOL     OW30758   2.695   8.735  13.825
42954SOL    HW130759   2.609   8.776  13.836
42954SOL    HW230760   2.705   8.679  13.903
42955SOL     OW30761   8.841   0.314  11.255
42955SOL    HW130762   8.799   0.398  11.275
42955SOL    HW230763   8.791   0.280  11.181
42956SOL     OW30764  12.248  14.199   4.846
42956SOL    HW130765  12.260  14.218   4.753
42956SOL    HW230766  12.187  14.126   4.848
42957SOL     OW30767   5.195   7.362  14.131
42957SOL    HW130768   5.239   7.302  14.072
42957SOL    HW230769   5.210   7.327  14.218
42958SOL     OW30770  12.000   1.721   1.310
42958SOL    HW130771  12.075   1.772   1.342
42958SOL    HW230772  12.028   1.689   1.224
42959SOL     OW30773  14.501  13.120   4.120
42959SOL    HW130774  14.506  13.215   4.108
42959SOL    HW230775  14.561  13.102   4.193
42960SOL     OW30776   1.354  14.853  12.040
42960SOL    HW130777   1.351   0.071  12.079
42960SOL    HW230778   1.443  14.845  12.006
42961SOL     OW30779  12.991  12.010  11.645
42961SOL    HW130780  13.013  11.921  11.617
42961SOL    HW230781  12.976  12.003  11.739
42962SOL     OW30782   5.391  11.808   5.721
42962SOL    HW130783   5.403  11.741   5.789
42962SOL    HW230784   5.475  11.810   5.674
42963SOL     OW30785   6.831   5.608   4.334
42963SOL    HW130786   6.738   5.601   4.309
42963SOL    HW230787   6.862   5.518   4.334
42964SOL     OW30788  12.456  12.851  11.015
42964SOL    HW130789  12.508  12.924  11.049
42964SOL    HW230790  12.402  12.823  11.089
42965SOL     OW30791   8.333  10.916   8.585
42965SOL    HW130792   8.352  10.989   8.526
42965SOL    HW230793   8.346  10.838   8.532
42966SOL     OW30794   0.829  13.972   5.021
42966SOL    HW130795   0.909  13.995   4.974
42966SOL    HW230796   0.847  13.885   5.057
42967SOL     OW30797   1.977  13.293  10.495
42967SOL    HW130798   1.900  13.337  10.460
42967SOL    HW230799   1.966  13.202  10.469
42968SOL     OW30800   3.302   0.572  11.456
42968SOL    HW130801   3.258   0.535  11.532
42968SOL    HW230802   3.350   0.648  11.490
42969SOL     OW30803   3.275   5.552   4.201
42969SOL    HW130804   3.252   5.618   4.135
42969SOL    HW230805   3.369   5.564   4.216
42970SOL     OW30806  12.851  13.735   1.152
42970SOL    HW130807  12.884  13.669   1.090
42970SOL    HW230808  12.769  13.698   1.185
42971SOL     OW30809   4.568   1.199   9.746
42971SOL    HW130810   4.646   1.164   9.789
42971SOL    HW230811   4.509   1.224   9.817
42972SOL     OW30812   2.398   1.586  14.534
42972SOL    HW130813   2.488   1.565  14.560
42972SOL    HW230814   2.404   1.674  14.497
42973SOL     OW30815  14.726   0.282   6.928
42973SOL    HW130816  14.637   0.304   6.900
42973SOL    HW230817  14.718   0.265   7.022
42974SOL     OW30818   6.337   6.848   4.636
42974SOL    HW130819   6.320   6.929   4.588
42974SOL    HW230820   6.250   6.817   4.661
42975SOL     OW30821   9.342   6.274   3.020
42975SOL    HW130822   9.348   6.331   3.096
42975SOL    HW230823   9.384   6.322   2.949
42976SOL     OW30824  13.204   9.095  12.275
42976SOL    HW130825  13.259   9.132  12.344
42976SOL    HW230826  13.119   9.137  12.287
42977SOL     OW30827   4.310   9.090   9.006
42977SOL    HW130828   4.224   9.130   9.012
42977SOL    HW230829   4.366   9.159   8.971
42978SOL     OW30830   1.280   1.989  14.111
42978SOL    HW130831   1.312   2.026  14.029
42978SOL    HW230832   1.266   1.896  14.092
42979SOL     OW30833   8.213   8.132   3.921
42979SOL    HW130834   8.170   8.104   4.002
42979SOL    HW230835   8.159   8.205   3.890
42980SOL     OW30836   2.723   7.069   0.631
42980SOL    HW130837   2.698   7.013   0.704
42980SOL    HW230838   2.644   7.076   0.577
42981SOL     OW30839   6.072  12.454  11.761
42981SOL    HW130840   6.031  12.373  11.731
42981SOL    HW230841   6.127  12.427  11.835
42982SOL     OW30842   8.815  14.661  12.420
42982SOL    HW130843   8.795  14.648  12.513
42982SOL    HW230844   8.859  14.580  12.394
42983SOL     OW30845   5.865   3.847  10.600
42983SOL    HW130846   5.805   3.908  10.642
42983SOL    HW230847   5.842   3.849  10.508
42984SOL     OW30848   1.153   0.447   4.921
42984SOL    HW130849   1.206   0.444   5.000
42984SOL    HW230850   1.152   0.357   4.889
42985SOL     OW30851   3.501   5.091  10.048
42985SOL    HW130852   3.526   5.168  10.099
42985SOL    HW230853   3.537   5.108   9.961
42986SOL     OW30854   6.388   9.026   6.579
42986SOL    HW130855   6.346   9.111   6.592
42986SOL    HW230856   6.385   8.984   6.665
42987SOL     OW30857   5.080   9.520  12.748
42987SOL    HW130858   5.022   9.583  12.791
42987SOL    HW230859   5.168   9.555  12.759
42988SOL     OW30860   9.484  14.854   3.017
42988SOL    HW130861   9.543   0.021   2.951
42988SOL    HW230862   9.473   0.056   3.080
42989SOL     OW30863   8.886   7.336  10.501
42989SOL    HW130864   8.837   7.255  10.512
42989SOL    HW230865   8.927   7.352  10.586
42990SOL     OW30866   5.536   8.224   3.522
42990SOL    HW130867   5.533   8.285   3.596
42990SOL    HW230868   5.469   8.159   3.542
42991SOL     OW30869  14.677   1.697   6.828
42991SOL    HW130870  14.625   1.753   6.886
42991SOL    HW230871  14.649   1.722   6.740
42992SOL     OW30872   2.528  14.169   2.421
42992SOL    HW130873   2.616  14.194   2.392
42992SOL    HW230874   2.507  14.232   2.490
42993SOL     OW30875  10.467   7.832  13.248
42993SOL    HW130876  10.422   7.866  13.170
42993SOL    HW230877  10.408   7.765  13.283
42994SOL     OW30878   3.055   1.356   4.437
42994SOL    HW130879   3.082   1.400   4.518
42994SOL    HW230880   2.978   1.405   4.407
42995SOL     OW30881  10.756   5.508   0.367
42995SOL    HW130882  10.778   5.422   0.331
42995SOL    HW230883  10.728   5.491   0.457
42996SOL     OW30884  14.833   0.196   5.913
42996SOL    HW130885  14.812   0.170   6.003
42996SOL    HW230886   0.054   0.169   5.901
42997SOL     OW30887  10.150   4.931   8.886
42997SOL    HW130888  10.184   4.863   8.944
42997SOL    HW230889  10.056   4.913   8.881
42998SOL     OW30890  13.626   2.192   4.828
42998SOL    HW130891  13.592   2.115   4.781
42998SOL    HW230892  13.591   2.266   4.779
42999SOL     OW30893   4.211   3.028   6.954
42999SOL    HW130894   4.141   3.010   6.891
42999SOL    HW230895   4.192   2.970   7.027
43000SOL     OW30896   0.962  13.095   4.766
43000SOL    HW130897   0.876  13.137   4.773
43000SOL    HW230898   0.947  13.015   4.716
43001SOL     OW30899  11.275  14.716  12.000
43001SOL    HW130900  11.208  14.686  11.938
43001SOL    HW230901  11.353  14.727  11.946
43002SOL     OW30902   7.148  11.864   0.353
43002SOL    HW130903   7.053  11.857   0.362
43002SOL    HW230904   7.174  11.922   0.425
43003SOL     OW30905   4.944   8.988   4.876
43003SOL    HW130906   4.965   9.000   4.969
43003SOL    HW230907   4.875   9.052   4.859
43004SOL     OW30908   3.734  14.753  12.227
43004SOL    HW130909   3.757  14.667  12.193
43004SOL    HW230910   3.817  14.789  12.259
43005SOL     OW30911   3.415   1.275   5.332
43005SOL    HW130912   3.491   1.253   5.279
43005SOL    HW230913   3.344   1.285   5.270
43006SOL     OW30914   8.729   3.335   5.859
43006SOL    HW130915   8.690   3.254   5.825
43006SOL    HW230916   8.774   3.309   5.939
43007SOL     OW30917  10.799   8.114   7.992
43007SOL    HW130918  10.807   8.196   7.944
43007SOL    HW230919  10.889   8.081   7.998
43008SOL     OW30920  13.471  11.541   2.610
43008SOL    HW130921  13.405  11.552   2.678
43008SOL    HW230922  13.434  11.475   2.551
43009SOL     OW30923   3.212   4.641   8.929
43009SOL    HW130924   3.185   4.549   8.926
43009SOL    HW230925   3.284   4.647   8.867
43010SOL     OW30926  11.325  12.896   1.348
43010SOL    HW130927  11.303  12.948   1.425
43010SOL    HW230928  11.257  12.919   1.284
43011SOL     OW30929   9.586  10.088   7.554
43011SOL    HW130930   9.681  10.099   7.562
43011SOL    HW230931   9.569  10.001   7.592
43012SOL     OW30932   5.465  11.899   7.136
43012SOL    HW130933   5.543  11.910   7.191
43012SOL    HW230934   5.427  11.816   7.165
43013SOL     OW30935  11.877  12.666  11.948
43013SOL    HW130936  11.896  12.749  11.993
43013SOL    HW230937  11.945  12.606  11.980
43014SOL     OW30938   0.365   4.536  11.316
43014SOL    HW130939   0.458   4.535  11.296
43014SOL    HW230940   0.334   4.620  11.282
43015SOL     OW30941   0.258   2.080   6.105
43015SOL    HW130942   0.250   2.136   6.182
43015SOL    HW230943   0.351   2.057   6.102
43016SOL     OW30944  10.687   4.741   7.729
43016SOL    HW130945  10.687   4.689   7.649
43016SOL    HW230946  10.696   4.831   7.699
43017SOL     OW30947   4.299   8.632   0.444
43017SOL    HW130948   4.213   8.653   0.481
43017SOL    HW230949   4.280   8.597   0.357
43018SOL     OW30950  12.831   5.984   9.819
43018SOL    HW130951  12.748   6.001   9.862
43018SOL    HW230952  12.813   5.998   9.726
43019SOL     OW30953  10.852  11.580   6.763
43019SOL    HW130954  10.935  11.545   6.795
43019SOL    HW230955  10.817  11.630   6.837
43020SOL     OW30956  11.399  13.312   3.920
43020SOL    HW130957  11.482  13.267   3.932
43020SOL    HW230958  11.393  13.372   3.995
43021SOL     OW30959   7.575   1.101   4.986
43021SOL    HW130960   7.541   1.042   5.054
43021SOL    HW230961   7.551   1.188   5.017
43022SOL     OW30962   7.043  14.834   3.509
43022SOL    HW130963   7.104  14.814   3.580
43022SOL    HW230964   7.098   0.005   3.442
43023SOL     OW30965   2.485   1.021  13.376
43023SOL    HW130966   2.526   0.947  13.330
43023SOL    HW230967   2.518   1.099  13.331
43024SOL     OW30968  13.093   0.817  11.383
43024SOL    HW130969  13.107   0.874  11.459
43024SOL    HW230970  13.175   0.769  11.374
43025SOL     OW30971   9.091   9.119   1.384
43025SOL    HW130972   9.185   9.107   1.367
43025SOL    HW230973   9.071   9.055   1.452
43026SOL     OW30974   1.244   8.415   8.217
43026SOL    HW130975   1.286   8.372   8.292
43026SOL    HW230976   1.261   8.508   8.231
43027SOL     OW30977   1.741   6.229   4.252
43027SOL    HW130978   1.741   6.290   4.178
43027SOL    HW230979   1.738   6.142   4.211
43028SOL     OW30980   1.658   9.807   4.193
43028SOL    HW130981   1.688   9.717   4.205
43028SOL    HW230982   1.600   9.822   4.268
43029SOL     OW30983   0.607   7.143   5.765
43029SOL    HW130984   0.546   7.110   5.830
43029SOL    HW230985   0.672   7.072   5.755
43030SOL     OW30986   6.227  14.178  12.836
43030SOL    HW130987   6.295  14.155  12.900
43030SOL    HW230988   6.196  14.264  12.865
43031SOL     OW30989   1.342   4.560   0.536
43031SOL    HW130990   1.318   4.472   0.508
43031SOL    HW230991   1.297   4.618   0.475
43032SOL     OW30992  11.155  10.893  11.190
43032SOL    HW130993  11.144  10.955  11.118
43032SOL    HW230994  11.082  10.911  11.249
43033SOL     OW30995   2.676   3.095  10.107
43033SOL    HW130996   2.620   3.048  10.169
43033SOL    HW230997   2.618   3.117  10.034
43034SOL     OW30998  12.770   6.641  13.418
43034SOL    HW130999  12.798   6.687  13.339
43034SOL    HW231000  12.718   6.568  13.385
43035SOL     OW31001   4.325   5.342   4.153
43035SOL    HW131002   4.386   5.400   4.108
43035SOL    HW231003   4.381   5.283   4.204
43036SOL     OW31004   9.446   7.080   9.990
43036SOL    HW131005   9.367   7.131   9.971
43036SOL    HW231006   9.518   7.136   9.960
43037SOL     OW31007   5.492  14.214  12.127
43037SOL    HW131008   5.414  14.258  12.162
43037SOL    HW231009   5.565  14.256  12.172
43038SOL     OW31010   8.740   3.431  12.660
43038SOL    HW131011   8.717   3.405  12.749
43038SOL    HW231012   8.798   3.507  12.671
43039SOL     OW31013   1.737   1.219   2.486
43039SOL    HW131014   1.780   1.247   2.405
43039SOL    HW231015   1.651   1.187   2.459
43040SOL     OW31016  10.249  12.030   5.483
43040SOL    HW131017  10.270  12.012   5.575
43040SOL    HW231018  10.164  11.988   5.469
43041SOL     OW31019   9.533  13.299   2.995
43041SOL    HW131020   9.544  13.219   2.944
43041SOL    HW231021   9.510  13.367   2.931
43042SOL     OW31022   3.225   4.735  13.989
43042SOL    HW131023   3.187   4.650  13.966
43042SOL    HW231024   3.310   4.736  13.947
43043SOL     OW31025  14.000   6.229  13.975
43043SOL    HW131026  13.958   6.175  13.908
43043SOL    HW231027  13.936   6.297  13.993
43044SOL     OW31028   6.740   2.972  12.287
43044SOL    HW131029   6.677   2.911  12.325
43044SOL    HW231030   6.748   3.042  12.352
43045SOL     OW31031   8.377   8.869   0.398
43045SOL    HW131032   8.394   8.837   0.309
43045SOL    HW231033   8.284   8.855   0.411
43046SOL     OW31034  14.581   2.171   9.418
43046SOL    HW131035  14.525   2.178   9.341
43046SOL    HW231036  14.521   2.183   9.492
43047SOL     OW31037   6.954   9.325  11.896
43047SOL    HW131038   6.978   9.404  11.846
43047SOL    HW231039   7.009   9.329  11.974
43048SOL     OW31040   4.501   4.117   5.634
43048SOL    HW131041   4.479   4.091   5.724
43048SOL    HW231042   4.465   4.206   5.626
43049SOL     OW31043  14.847   4.307  11.040
43049SOL    HW131044  14.823   4.281  11.129
43049SOL    HW231045   0.054   4.363  11.052
43050SOL     OW31046   8.093   9.051  13.978
43050SOL    HW131047   8.017   8.999  14.004
43050SOL    HW231048   8.161   9.028  14.041
43051SOL     OW31049  11.009   9.213   4.872
43051SOL    HW131050  10.922   9.209   4.832
43051SOL    HW231051  11.069   9.203   4.798
43052SOL     OW31052   5.486  10.819   9.706
43052SOL    HW131053   5.466  10.911   9.693
43052SOL    HW231054   5.408  10.772   9.676
43053SOL     OW31055   9.829  12.390   5.648
43053SOL    HW131056   9.903  12.387   5.708
43053SOL    HW231057   9.752  12.396   5.706
43054SOL     OW31058   6.579   0.710   9.646
43054SOL    HW131059   6.614   0.680   9.730
43054SOL    HW231060   6.486   0.688   9.650
43055SOL     OW31061   8.436   9.941   1.294
43055SOL    HW131062   8.497  10.012   1.277
43055SOL    HW231063   8.471   9.867   1.245
43056SOL     OW31064   5.733  13.526   9.573
43056SOL    HW131065   5.694  13.609   9.547
43056SOL    HW231066   5.772  13.491   9.493
43057SOL     OW31067   3.379   6.400   9.474
43057SOL    HW131068   3.422   6.323   9.512
43057SOL    HW231069   3.376   6.382   9.380
43058SOL     OW31070  11.933  10.733   9.359
43058SOL    HW131071  11.899  10.714   9.447
43058SOL    HW231072  11.959  10.825   9.364
43059SOL     OW31073   1.707  11.956   0.429
43059SOL    HW131074   1.751  11.970   0.346
43059SOL    HW231075   1.722  12.037   0.478
43060SOL     OW31076   1.972  14.327   4.030
43060SOL    HW131077   2.000  14.328   4.121
43060SOL    HW231078   1.876  14.322   4.034
43061SOL     OW31079   7.676  10.048   8.740
43061SOL    HW131080   7.737   9.976   8.755
43061SOL    HW231081   7.643  10.070   8.827
43062SOL     OW31082   5.261   8.486   9.518
43062SOL    HW131083   5.217   8.564   9.484
43062SOL    HW231084   5.336   8.520   9.568
43063SOL     OW31085   9.869  10.569  10.183
43063SOL    HW131086   9.952  10.598  10.146
43063SOL    HW231087   9.845  10.492  10.131
43064SOL     OW31088   4.257  12.696   7.342
43064SOL    HW131089   4.348  12.676   7.366
43064SOL    HW231090   4.204  12.646   7.404
43065SOL     OW31091  11.292  13.628  13.854
43065SOL    HW131092  11.244  13.581  13.922
43065SOL    HW231093  11.225  13.650  13.789
43066SOL     OW31094   5.843   3.757   2.527
43066SOL    HW131095   5.912   3.713   2.575
43066SOL    HW231096   5.879   3.771   2.439
43067SOL     OW31097   9.751  10.114   5.548
43067SOL    HW131098   9.707  10.077   5.472
43067SOL    HW231099   9.692  10.183   5.579
43068SOL     OW31100  10.108  11.067   4.528
43068SOL    HW131101  10.106  11.094   4.436
43068SOL    HW231102  10.167  11.130   4.570
43069SOL     OW31103  13.183  14.180   2.120
43069SOL    HW131104  13.236  14.230   2.182
43069SOL    HW231105  13.238  14.172   2.042
43070SOL     OW31106   0.846   7.895  12.158
43070SOL    HW131107   0.800   7.817  12.126
43070SOL    HW231108   0.894   7.864  12.235
43071SOL     OW31109   6.014   9.522  14.282
43071SOL    HW131110   5.950   9.501  14.350
43071SOL    HW231111   6.071   9.588  14.322
43072SOL     OW31112   5.047  14.430   4.949
43072SOL    HW131113   5.016  14.353   4.900
43072SOL    HW231114   4.982  14.442   5.018
43073SOL     OW31115   5.249   2.654   0.536
43073SOL    HW131116   5.343   2.672   0.524
43073SOL    HW231117   5.212   2.739   0.563
43074SOL     OW31118   5.945   1.988   8.709
43074SOL    HW131119   5.869   2.046   8.715
43074SOL    HW231120   5.908   1.902   8.690
43075SOL     OW31121   7.305   0.970   9.650
43075SOL    HW131122   7.278   0.878   9.640
43075SOL    HW231123   7.392   0.965   9.689
43076SOL     OW31124   7.896   0.702  11.428
43076SOL    HW131125   7.989   0.684  11.410
43076SOL    HW231126   7.867   0.628  11.481
43077SOL     OW31127  10.791   1.324   4.740
43077SOL    HW131128  10.696   1.313   4.737
43077SOL    HW231129  10.824   1.243   4.780
43078SOL     OW31130   9.976  12.020   3.991
43078SOL    HW131131   9.887  12.056   3.983
43078SOL    HW231132   9.978  11.948   3.928
43079SOL     OW31133   0.943  14.615   2.962
43079SOL    HW131134   0.937  14.529   3.003
43079SOL    HW231135   0.992  14.668   3.024
43080SOL     OW31136   5.279  10.910  12.743
43080SOL    HW131137   5.302  11.003  12.738
43080SOL    HW231138   5.249  10.897  12.833
43081SOL     OW31139  13.162   3.314   3.765
43081SOL    HW131140  13.083   3.320   3.818
43081SOL    HW231141  13.197   3.227   3.784
43082SOL     OW31142   1.671   8.342  11.834
43082SOL    HW131143   1.618   8.343  11.914
43082SOL    HW231144   1.607   8.346  11.763
43083SOL     OW31145   4.291   7.246   3.202
43083SOL    HW131146   4.339   7.223   3.282
43083SOL    HW231147   4.335   7.197   3.133
43084SOL     OW31148  13.041  13.295   7.702
43084SOL    HW131149  12.966  13.355   7.702
43084SOL    HW231150  13.048  13.266   7.793
43085SOL     OW31151   5.006   9.114  14.027
43085SOL    HW131152   4.980   9.022  14.028
43085SOL    HW231153   5.097   9.113  13.998
43086SOL     OW31154   0.603   8.247   0.195
43086SOL    HW131155   0.553   8.195   0.132
43086SOL    HW231156   0.537   8.283   0.254
43087SOL     OW31157   3.347   9.318   9.416
43087SOL    HW131158   3.409   9.376   9.459
43087SOL    HW231159   3.339   9.352   9.327
43088SOL     OW31160   8.694   2.577   2.766
43088SOL    HW131161   8.656   2.608   2.684
43088SOL    HW231162   8.620   2.571   2.826
43089SOL     OW31163  13.022  11.364  13.980
43089SOL    HW131164  13.053  11.338  14.067
43089SOL    HW231165  12.944  11.416  13.997
43090SOL     OW31166  13.029  10.610   2.806
43090SOL    HW131167  12.950  10.557   2.817
43090SOL    HW231168  12.996  10.695   2.776
43091SOL     OW31169  10.862   5.523  11.637
43091SOL    HW131170  10.834   5.507  11.547
43091SOL    HW231171  10.919   5.600  11.631
43092SOL     OW31172   5.057   3.316  12.732
43092SOL    HW131173   5.102   3.312  12.648
43092SOL    HW231174   5.050   3.224  12.760
43093SOL     OW31175   8.483   0.849   6.111
43093SOL    HW131176   8.476   0.765   6.066
43093SOL    HW231177   8.437   0.910   6.053
43094SOL     OW31178  12.181  12.190   6.023
43094SOL    HW131179  12.196  12.268   5.971
43094SOL    HW231180  12.121  12.218   6.092
43095SOL     OW31181   4.734   8.211  10.852
43095SOL    HW131182   4.638   8.216  10.848
43095SOL    HW231183   4.754   8.214  10.945
43096SOL     OW31184   8.650   9.003   2.255
43096SOL    HW131185   8.619   8.935   2.315
43096SOL    HW231186   8.682   9.073   2.313
43097SOL     OW31187  13.105  12.177   2.104
43097SOL    HW131188  13.169  12.107   2.114
43097SOL    HW231189  13.125  12.217   2.019
43098SOL     OW31190   1.915  13.951   0.727
43098SOL    HW131191   1.874  13.982   0.808
43098SOL    HW231192   1.849  13.893   0.688
43099SOL     OW31193  11.012   6.304   4.984
43099SOL    HW131194  11.104   6.305   4.956
43099SOL    HW231195  10.964   6.336   4.908
43100SOL     OW31196   0.359   4.366  13.030
43100SOL    HW131197   0.341   4.311  13.106
43100SOL    HW231198   0.296   4.438  13.038
43101SOL     OW31199   3.050  12.559   2.236
43101SOL    HW131200   2.993  12.509   2.295
43101SOL    HW231201   3.017  12.649   2.242
43102SOL     OW31202  10.016   1.159   4.116
43102SOL    HW131203  10.066   1.120   4.044
43102SOL    HW231204  10.047   1.250   4.119
43103SOL     OW31205   2.500   1.308   9.383
43103SOL    HW131206   2.562   1.310   9.455
43103SOL    HW231207   2.429   1.251   9.413
43104SOL     OW31208  14.485   3.072  10.260
43104SOL    HW131209  14.429   3.036  10.191
43104SOL    HW231210  14.452   3.030  10.340
43105SOL     OW31211   1.085   8.298   1.410
43105SOL    HW131212   1.040   8.379   1.386
43105SOL    HW231213   1.158   8.292   1.348
43106SOL     OW31214  14.770   0.759   5.008
43106SOL    HW131215  14.828   0.762   5.083
43106SOL    HW231216  14.704   0.826   5.025
43107SOL     OW31217   8.729  11.693   4.917
43107SOL    HW131218   8.784  11.619   4.890
43107SOL    HW231219   8.640  11.664   4.899
43108SOL     OW31220   5.488  11.733   8.135
43108SOL    HW131221   5.405  11.687   8.122
43108SOL    HW231222   5.553  11.663   8.142
43109SOL     OW31223   2.380  13.638  13.935
43109SOL    HW131224   2.408  13.552  13.966
43109SOL    HW231225   2.397  13.697  14.008
43110SOL     OW31226  11.067   1.366   3.525
43110SOL    HW131227  11.146   1.376   3.578
43110SOL    HW231228  11.070   1.275   3.495
43111SOL     OW31229  14.776   0.818   7.380
43111SOL    HW131230  14.692   0.774   7.397
43111SOL    HW231231  14.792   0.869   7.459
43112SOL     OW31232   4.926  11.651   5.618
43112SOL    HW131233   4.949  11.563   5.646
43112SOL    HW231234   5.010  11.691   5.593
43113SOL     OW31235   6.862  10.028   8.541
43113SOL    HW131236   6.800  10.025   8.468
43113SOL    HW231237   6.810  10.005   8.618
43114SOL     OW31238   9.226  11.566  11.445
43114SOL    HW131239   9.141  11.522  11.446
43114SOL    HW231240   9.232  11.604  11.357
43115SOL     OW31241  14.476  14.083  13.478
43115SOL    HW131242  14.411  14.054  13.542
43115SOL    HW231243  14.455  14.033  13.399
43116SOL     OW31244  12.085   4.045  12.989
43116SOL    HW131245  12.021   4.065  12.920
43116SOL    HW231246  12.064   3.956  13.016
43117SOL     OW31247   9.847  13.892   6.367
43117SOL    HW131248   9.768  13.855   6.329
43117SOL    HW231249   9.899  13.817   6.395
43118SOL     OW31250  13.911  12.412  13.296
43118SOL    HW131251  13.834  12.434  13.347
43118SOL    HW231252  13.877  12.368  13.218
43119SOL     OW31253   1.533   3.621  14.095
43119SOL    HW131254   1.534   3.551  14.030
43119SOL    HW231255   1.605   3.678  14.070
43120SOL     OW31256   4.591  12.440   2.155
43120SOL    HW131257   4.516  12.481   2.113
43120SOL    HW231258   4.612  12.365   2.099
43121SOL     OW31259   3.983   8.797   1.934
43121SOL    HW131260   3.910   8.856   1.953
43121SOL    HW231261   4.060   8.841   1.969
43122SOL     OW31262   4.810   5.604   2.535
43122SOL    HW131263   4.722   5.568   2.531
43122SOL    HW231264   4.868   5.528   2.527
43123SOL     OW31265   5.174   0.828   1.290
43123SOL    HW131266   5.167   0.897   1.356
43123SOL    HW231267   5.094   0.777   1.300
43124SOL     OW31268   5.879  13.453   7.612
43124SOL    HW131269   5.961  13.424   7.572
43124SOL    HW231270   5.833  13.371   7.633
43125SOL     OW31271   7.798  11.272   0.404
43125SOL    HW131272   7.869  11.317   0.358
43125SOL    HW231273   7.753  11.341   0.452
43126SOL     OW31274  10.361   8.922  10.662
43126SOL    HW131275  10.269   8.919  10.689
43126SOL    HW231276  10.371   8.849  10.601
43127SOL     OW31277   3.848   3.788   0.163
43127SOL    HW131278   3.794   3.732   0.219
43127SOL    HW231279   3.831   3.877   0.194
43128SOL     OW31280  12.395  10.285   0.888
43128SOL    HW131281  12.482  10.262   0.920
43128SOL    HW231282  12.411  10.353   0.822
43129SOL     OW31283   7.808   4.700   5.523
43129SOL    HW131284   7.883   4.666   5.473
43129SOL    HW231285   7.755   4.746   5.458
43130SOL     OW31286   1.868   1.936  11.286
43130SOL    HW131287   1.864   1.892  11.372
43130SOL    HW231288   1.778   1.930  11.252
43131SOL     OW31289  11.392  12.232  11.358
43131SOL    HW131290  11.435  12.148  11.340
43131SOL    HW231291  11.407  12.284  11.279
43132SOL     OW31292  13.267   6.199   6.753
43132SOL    HW131293  13.186   6.241   6.783
43132SOL    HW231294  13.308   6.264   6.697
43133SOL     OW31295  10.642   0.315   3.932
43133SOL    HW131296  10.728   0.341   3.963
43133SOL    HW231297  10.582   0.340   4.002
43134SOL     OW31298   2.659   7.220   6.293
43134SOL    HW131299   2.649   7.145   6.352
43134SOL    HW231300   2.743   7.205   6.250
43135SOL     OW31301  13.010   1.600   6.198
43135SOL    HW131302  13.100   1.633   6.198
43135SOL    HW231303  12.978   1.616   6.287
43136SOL     OW31304   7.183   9.748   5.366
43136SOL    HW131305   7.252   9.703   5.318
43136SOL    HW231306   7.108   9.690   5.360
43137SOL     OW31307   5.203   1.175   1.354
43137SOL    HW131308   5.118   1.158   1.314
43137SOL    HW231309   5.206   1.116   1.429
43138SOL     OW31310   0.562   1.093  10.937
43138SOL    HW131311   0.653   1.075  10.958
43138SOL    HW231312   0.524   1.124  11.020
43139SOL     OW31313  14.076   8.295  13.474
43139SOL    HW131314  14.130   8.371  13.494
43139SOL    HW231315  13.990   8.332  13.452
43140SOL     OW31316   2.920  13.112   6.220
43140SOL    HW131317   2.932  13.154   6.305
43140SOL    HW231318   2.874  13.030   6.239
43141SOL     OW31319   9.958  11.771   6.841
43141SOL    HW131320  10.039  11.796   6.796
43141SOL    HW231321   9.940  11.845   6.900
43142SOL     OW31322   2.290   4.745   3.377
43142SOL    HW131323   2.231   4.683   3.335
43142SOL    HW231324   2.247   4.829   3.368
43143SOL     OW31325   3.830  14.143   1.295
43143SOL    HW131326   3.879  14.196   1.357
43143SOL    HW231327   3.793  14.072   1.347
43144SOL     OW31328   2.791   1.654   6.615
43144SOL    HW131329   2.865   1.704   6.579
43144SOL    HW231330   2.827   1.612   6.694
43145SOL     OW31331  11.689   7.386   2.921
43145SOL    HW131332  11.661   7.376   3.012
43145SOL    HW231333  11.779   7.416   2.926
43146SOL     OW31334   8.280   4.470   1.985
43146SOL    HW131335   8.191   4.503   1.973
43146SOL    HW231336   8.320   4.476   1.898
43147SOL     OW31337  10.345  13.782   6.384
43147SOL    HW131338  10.306  13.863   6.416
43147SOL    HW231339  10.376  13.804   6.295
43148SOL     OW31340   8.813   8.121   6.228
43148SOL    HW131341   8.781   8.127   6.318
43148SOL    HW231342   8.899   8.079   6.235
43149SOL     OW31343  11.476  11.982   2.058
43149SOL    HW131344  11.556  12.007   2.011
43149SOL    HW231345  11.489  11.891   2.082
43150SOL     OW31346   8.491  14.540   8.366
43150SOL    HW131347   8.479  14.460   8.417
43150SOL    HW231348   8.520  14.510   8.280
43151SOL     OW31349   5.217   9.479   6.580
43151SOL    HW131350   5.209   9.505   6.489
43151SOL    HW231351   5.143   9.419   6.595
43152SOL     OW31352   1.454  12.806   1.487
43152SOL    HW131353   1.516  12.878   1.502
43152SOL    HW231354   1.508  12.727   1.492
43153SOL     OW31355   5.020   3.422   5.970
43153SOL    HW131356   5.048   3.488   6.033
43153SOL    HW231357   4.965   3.469   5.908
43154SOL     OW31358   1.951   2.426   2.026
43154SOL    HW131359   1.865   2.400   1.993
43154SOL    HW231360   1.939   2.515   2.059
43155SOL     OW31361  11.007   9.333  13.251
43155SOL    HW131362  11.092   9.325  13.207
43155SOL    HW231363  10.944   9.295  13.189
43156SOL     OW31364   8.149  13.381   5.557
43156SOL    HW131365   8.185  13.469   5.565
43156SOL    HW231366   8.055  13.393   5.563
43157SOL     OW31367   2.010   5.736   8.892
43157SOL    HW131368   2.101   5.713   8.874
43157SOL    HW231369   1.978   5.667   8.949
43158SOL     OW31370   4.276   3.978   6.544
43158SOL    HW131371   4.225   3.989   6.464
43158SOL    HW231372   4.366   3.995   6.517
43159SOL     OW31373   2.513   6.326   8.193
43159SOL    HW131374   2.427   6.285   8.185
43159SOL    HW231375   2.498   6.418   8.169
43160SOL     OW31376  10.945   8.164  10.374
43160SOL    HW131377  10.953   8.259  10.373
43160SOL    HW231378  10.873   8.144  10.314
43161SOL     OW31379  12.718   6.885  14.805
43161SOL    HW131380  12.763   6.910   0.016
43161SOL    HW231381  12.651   6.822  14.832
43162SOL     OW31382  13.613  12.218   8.298
43162SOL    HW131383  13.651  12.153   8.357
43162SOL    HW231384  13.686  12.241   8.240
43163SOL     OW31385   6.421  12.325   6.988
43163SOL    HW131386   6.386  12.408   7.022
43163SOL    HW231387   6.414  12.334   6.893
43164SOL     OW31388  13.059   0.950   5.649
43164SOL    HW131389  13.125   0.905   5.701
43164SOL    HW231390  13.026   1.019   5.707
43165SOL     OW31391   6.021   5.503  14.132
43165SOL    HW131392   5.974   5.424  14.158
43165SOL    HW231393   6.105   5.498  14.178
43166SOL     OW31394   8.762  12.290  14.809
43166SOL    HW131395   8.691  12.314  14.869
43166SOL    HW231396   8.762  12.194  14.809
43167SOL     OW31397   2.369  12.910   1.731
43167SOL    HW131398   2.322  12.832   1.702
43167SOL    HW231399   2.308  12.953   1.791
43168SOL     OW31400   6.193  12.225  12.615
43168SOL    HW131401   6.103  12.229  12.581
43168SOL    HW231402   6.185  12.178  12.698
43169SOL     OW31403  12.616   0.444   7.080
43169SOL    HW131404  12.557   0.368   7.081
43169SOL    HW231405  12.668   0.435   7.160
43170SOL     OW31406  12.563   6.194   5.968
43170SOL    HW131407  12.577   6.157   6.055
43170SOL    HW231408  12.468   6.201   5.960
43171SOL     OW31409   8.701   4.943   4.670
43171SOL    HW131410   8.700   5.032   4.636
43171SOL    HW231411   8.787   4.935   4.712
43172SOL     OW31412   6.575  11.513  12.614
43172SOL    HW131413   6.544  11.447  12.552
43172SOL    HW231414   6.665  11.485  12.634
43173SOL     OW31415   3.676   2.791  14.332
43173SOL    HW131416   3.759   2.766  14.372
43173SOL    HW231417   3.700   2.848  14.259
43174SOL     OW31418  11.708   3.855   1.938
43174SOL    HW131419  11.723   3.816   1.852
43174SOL    HW231420  11.685   3.780   1.994
43175SOL     OW31421  13.029   0.956  11.657
43175SOL    HW131422  13.000   1.036  11.611
43175SOL    HW231423  12.956   0.934  11.715
43176SOL     OW31424  11.411   6.045   4.397
43176SOL    HW131425  11.318   6.049   4.375
43176SOL    HW231426  11.422   5.960   4.439
43177SOL     OW31427   0.192   0.596   2.232
43177SOL    HW131428   0.186   0.523   2.294
43177SOL    HW231429   0.120   0.582   2.170
43178SOL     OW31430  14.529  12.737   6.515
43178SOL    HW131431  14.587  12.773   6.448
43178SOL    HW231432  14.441  12.758   6.486
43179SOL     OW31433  11.457  11.586   1.364
43179SOL    HW131434  11.539  11.587   1.315
43179SOL    HW231435  11.411  11.665   1.334
43180SOL     OW31436  13.356   7.709   1.273
43180SOL    HW131437  13.273   7.753   1.254
43180SOL    HW231438  13.352   7.627   1.224
43181SOL     OW31439   0.492  14.317   6.895
43181SOL    HW131440   0.403  14.340   6.869
43181SOL    HW231441   0.546  14.388   6.861
43182SOL     OW31442  10.291   5.365  10.945
43182SOL    HW131443  10.339   5.361  11.028
43182SOL    HW231444  10.312   5.451  10.909
43183SOL     OW31445   9.017   6.332   1.994
43183SOL    HW131446   8.942   6.272   1.991
43183SOL    HW231447   9.068   6.310   1.916
43184SOL     OW31448   6.676   4.028   0.512
43184SOL    HW131449   6.643   4.088   0.579
43184SOL    HW231450   6.599   3.977   0.486
43185SOL     OW31451   0.003   4.306   1.702
43185SOL    HW131452  14.849   4.255   1.624
43185SOL    HW231453  14.818   4.384   1.698
43186SOL     OW31454   5.302   8.342  12.177
43186SOL    HW131455   5.317   8.318  12.268
43186SOL    HW231456   5.386   8.328  12.134
43187SOL     OW31457   6.502   1.514  10.995
43187SOL    HW131458   6.587   1.479  10.967
43187SOL    HW231459   6.446   1.505  10.917
43188SOL     OW31460   9.610  11.909   1.839
43188SOL    HW131461   9.649  11.939   1.921
43188SOL    HW231462   9.590  11.989   1.791
43189SOL     OW31463   1.770   4.710   3.403
43189SOL    HW131464   1.795   4.755   3.483
43189SOL    HW231465   1.798   4.619   3.417
43190SOL     OW31466   4.788   1.258   8.733
43190SOL    HW131467   4.787   1.239   8.639
43190SOL    HW231468   4.775   1.352   8.739
43191SOL     OW31469  14.177  10.886  11.407
43191SOL    HW131470  14.145  10.903  11.496
43191SOL    HW231471  14.105  10.912  11.350
43192SOL     OW31472   5.211   6.110  11.251
43192SOL    HW131473   5.180   6.083  11.165
43192SOL    HW231474   5.301   6.139  11.236
43193SOL     OW31475   7.330   9.053   6.830
43193SOL    HW131476   7.355   9.067   6.738
43193SOL    HW231477   7.271   9.125   6.850
43194SOL     OW31478   8.195   5.590   0.480
43194SOL    HW131479   8.262   5.572   0.414
43194SOL    HW231480   8.191   5.510   0.533
43195SOL     OW31481   3.467  13.315   4.162
43195SOL    HW131482   3.547  13.282   4.202
43195SOL    HW231483   3.495  13.350   4.078
43196SOL     OW31484   1.443   0.193   0.594
43196SOL    HW131485   1.510   0.136   0.633
43196SOL    HW231486   1.418   0.252   0.666
43197SOL     OW31487  11.831   3.589   5.602
43197SOL    HW131488  11.857   3.497   5.615
43197SOL    HW231489  11.842   3.629   5.688
43198SOL     OW31490   1.220  12.404  11.161
43198SOL    HW131491   1.183  12.321  11.192
43198SOL    HW231492   1.311  12.383  11.142
43199SOL     OW31493   6.111   9.749  14.393
43199SOL    HW131494   6.020   9.776  14.410
43199SOL    HW231495   6.149   9.822  14.345
43200SOL     OW31496   5.874   3.880   8.691
43200SOL    HW131497   5.808   3.843   8.750
43200SOL    HW231498   5.933   3.929   8.748
43201SOL     OW31499   6.249   1.268  10.834
43201SOL    HW131500   6.293   1.217  10.902
43201SOL    HW231501   6.316   1.326  10.800
43202SOL     OW31502   3.730   7.230  13.299
43202SOL    HW131503   3.785   7.254  13.225
43202SOL    HW231504   3.731   7.134  13.300
43203SOL     OW31505   5.752   8.935  12.343
43203SOL    HW131506   5.756   8.999  12.414
43203SOL    HW231507   5.795   8.857  12.379
43204SOL     OW31508   4.386   2.907   5.006
43204SOL    HW131509   4.291   2.914   4.996
43204SOL    HW231510   4.399   2.842   5.074
43205SOL     OW31511   1.224   4.786  14.721
43205SOL    HW131512   1.220   4.867  14.670
43205SOL    HW231513   1.234   4.815  14.812
43206SOL     OW31514   6.963   3.965  11.202
43206SOL    HW131515   6.923   3.886  11.167
43206SOL    HW231516   7.039   3.981  11.146
43207SOL     OW31517   4.827   9.352  12.418
43207SOL    HW131518   4.799   9.390  12.335
43207SOL    HW231519   4.835   9.426  12.478
43208SOL     OW31520   8.679  13.834  13.157
43208SOL    HW131521   8.640  13.908  13.204
43208SOL    HW231522   8.679  13.762  13.220
43209SOL     OW31523   4.237  12.500  12.730
43209SOL    HW131524   4.144  12.514  12.746
43209SOL    HW231525   4.241  12.444  12.653
43210SOL     OW31526   3.510   2.215   6.922
43210SOL    HW131527   3.495   2.123   6.943
43210SOL    HW231528   3.601   2.218   6.892
43211SOL     OW31529   2.945  12.811  14.789
43211SOL    HW131530   2.998  12.885  14.821
43211SOL    HW231531   2.936  12.826  14.695
43212SOL     OW31532   8.544   7.584   3.646
43212SOL    HW131533   8.470   7.639   3.671
43212SOL    HW231534   8.555   7.524   3.720
43213SOL     OW31535   8.164   2.743   9.993
43213SOL    HW131536   8.200   2.831  10.005
43213SOL    HW231537   8.106   2.750   9.918
43214SOL     OW31538  12.895   2.519  12.331
43214SOL    HW131539  12.871   2.515  12.239
43214SOL    HW231540  12.957   2.448  12.343
43215SOL     OW31541   7.369  10.435   3.035
43215SOL    HW131542   7.322  10.397   2.960
43215SOL    HW231543   7.432  10.367   3.060
43216SOL     OW31544  13.826   1.659   0.962
43216SOL    HW131545  13.821   1.628   1.052
43216SOL    HW231546  13.749   1.714   0.951
43217SOL     OW31547   1.512  12.364  14.669
43217SOL    HW131548   1.563  12.436  14.632
43217SOL    HW231549   1.575  12.311  14.718
43218SOL     OW31550   0.500   7.164   8.414
43218SOL    HW131551   0.415   7.206   8.427
43218SOL    HW231552   0.553   7.229   8.367
43219SOL     OW31553  14.390   1.313  12.686
43219SOL    HW131554  14.442   1.358  12.620
43219SOL    HW231555  14.423   1.223  12.686
43220SOL     OW31556   2.422   9.688  12.384
43220SOL    HW131557   2.350   9.627  12.399
43220SOL    HW231558   2.444   9.676  12.291
43221SOL     OW31559   9.989  14.019  14.693
43221SOL    HW131560  10.024  14.097  14.648
43221SOL    HW231561   9.897  14.039  14.708
43222SOL     OW31562  13.639  14.828   1.228
43222SOL    HW131563  13.678  14.755   1.277
43222SOL    HW231564  13.571  14.787   1.175
43223SOL     OW31565   9.918  12.533  11.580
43223SOL    HW131566   9.825  12.536  11.558
43223SOL    HW231567   9.963  12.530  11.496
43224SOL     OW31568  12.397   9.935   7.437
43224SOL    HW131569  12.337   9.865   7.411
43224SOL    HW231570  12.362   9.966   7.521
43225SOL     OW31571   1.624  11.635   0.427
43225SOL    HW131572   1.560  11.675   0.368
43225SOL    HW231573   1.588  11.648   0.515
43226SOL     OW31574  13.955   3.234   7.638
43226SOL    HW131575  13.965   3.168   7.707
43226SOL    HW231576  14.015   3.205   7.569
43227SOL     OW31577   8.206   5.886   5.774
43227SOL    HW131578   8.128   5.912   5.823
43227SOL    HW231579   8.273   5.874   5.841
43228SOL     OW31580  12.199   9.754   6.459
43228SOL    HW131581  12.206   9.669   6.415
43228SOL    HW231582  12.262   9.750   6.531
43229SOL     OW31583  12.883  14.002   8.211
43229SOL    HW131584  12.945  14.070   8.237
43229SOL    HW231585  12.834  13.982   8.291
43230SOL     OW31586   9.716   7.308   6.640
43230SOL    HW131587   9.666   7.265   6.709
43230SOL    HW231588   9.649   7.334   6.576
43231SOL     OW31589   5.490   0.349   4.013
43231SOL    HW131590   5.422   0.406   4.050
43231SOL    HW231591   5.565   0.362   4.071
43232SOL     OW31592  13.744   1.710   8.396
43232SOL    HW131593  13.746   1.796   8.439
43232SOL    HW231594  13.708   1.651   8.462
43233SOL     OW31595   4.419  14.143   7.323
43233SOL    HW131596   4.462  14.063   7.293
43233SOL    HW231597   4.487  14.189   7.372
43234SOL     OW31598   9.331  14.700  12.010
43234SOL    HW131599   9.240  14.730  12.019
43234SOL    HW231600   9.354  14.667  12.096
43235SOL     OW31601   5.852   7.358  10.066
43235SOL    HW131602   5.872   7.322   9.980
43235SOL    HW231603   5.840   7.281  10.122
43236SOL     OW31604   2.413   1.596   0.875
43236SOL    HW131605   2.405   1.671   0.816
43236SOL    HW231606   2.358   1.619   0.950
43237SOL     OW31607   3.462  12.734   4.495
43237SOL    HW131608   3.494  12.661   4.440
43237SOL    HW231609   3.382  12.701   4.534
43238SOL     OW31610  12.753   6.146  13.227
43238SOL    HW131611  12.728   6.139  13.134
43238SOL    HW231612  12.671   6.132  13.274
43239SOL     OW31613   4.645   7.728   6.069
43239SOL    HW131614   4.687   7.814   6.056
43239SOL    HW231615   4.687   7.694   6.148
43240SOL     OW31616  10.160   8.813   3.829
43240SOL    HW131617  10.174   8.815   3.923
43240SOL    HW231618  10.072   8.850   3.817
43241SOL     OW31619   7.289  13.194  10.725
43241SOL    HW131620   7.207  13.169  10.768
43241SOL    HW231621   7.292  13.289  10.734
43242SOL     OW31622   6.216   3.982   6.972
43242SOL    HW131623   6.157   4.054   6.951
43242SOL    HW231624   6.304   4.020   6.963
43243SOL     OW31625  13.982  14.643   9.920
43243SOL    HW131626  13.964  14.728   9.960
43243SOL    HW231627  14.052  14.606   9.974
43244SOL     OW31628  11.967   2.465   5.210
43244SOL    HW131629  11.933   2.477   5.299
43244SOL    HW231630  11.888   2.454   5.156
43245SOL     OW31631   7.014   8.031  11.249
43245SOL    HW131632   6.945   8.010  11.311
43245SOL    HW231633   7.040   8.120  11.271
43246SOL     OW31634   1.105  13.019   3.309
43246SOL    HW131635   1.044  12.948   3.331
43246SOL    HW231636   1.063  13.065   3.237
43247SOL     OW31637   8.011  14.672  14.377
43247SOL    HW131638   7.952  14.745  14.396
43247SOL    HW231639   8.078  14.676  14.445
43248SOL     OW31640   9.074   4.318   0.658
43248SOL    HW131641   9.068   4.338   0.564
43248SOL    HW231642   9.046   4.399   0.701
43249SOL     OW31643  13.911  10.591   3.181
43249SOL    HW131644  13.846  10.606   3.250
43249SOL    HW231645  13.967  10.669   3.183
43250SOL     OW31646   4.982   9.130  13.748
43250SOL    HW131647   5.014   9.044  13.721
43250SOL    HW231648   4.938   9.114  13.832
43251SOL     OW31649   0.751   0.652  14.594
43251SOL    HW131650   0.757   0.557  14.598
43251SOL    HW231651   0.839   0.680  14.570
43252SOL     OW31652   5.146  10.575  13.906
43252SOL    HW131653   5.231  10.530  13.903
43252SOL    HW231654   5.084  10.506  13.929
43253SOL     OW31655  11.656   3.231   4.232
43253SOL    HW131656  11.676   3.139   4.212
43253SOL    HW231657  11.739   3.267   4.263
43254SOL     OW31658   8.992  14.376  12.124
43254SOL    HW131659   9.048  14.309  12.162
43254SOL    HW231660   8.940  14.409  12.197
43255SOL     OW31661   3.261   0.762   6.828
43255SOL    HW131662   3.331   0.709   6.866
43255SOL    HW231663   3.298   0.849   6.820
43256SOL     OW31664   1.194  12.791   2.224
43256SOL    HW131665   1.227  12.837   2.146
43256SOL    HW231666   1.110  12.756   2.198
43257SOL     OW31667   7.954   1.848  14.192
43257SOL    HW131668   7.890   1.801  14.138
43257SOL    HW231669   8.020   1.878  14.130
43258SOL     OW31670  14.788   3.361   2.549
43258SOL    HW131671  14.707   3.332   2.506
43258SOL    HW231672  14.845   3.284   2.546
43259SOL     OW31673   7.777  13.357  10.928
43259SOL    HW131674   7.801  13.316  11.012
43259SOL    HW231675   7.860  13.361  10.880
43260SOL     OW31676   4.825   6.582  14.633
43260SOL    HW131677   4.809   6.675  14.652
43260SOL    HW231678   4.845   6.544  14.719
43261SOL     OW31679   7.698   5.755   3.671
43261SOL    HW131680   7.711   5.818   3.600
43261SOL    HW231681   7.673   5.674   3.627
43262SOL     OW31682  11.184   7.278   6.893
43262SOL    HW131683  11.152   7.260   6.804
43262SOL    HW231684  11.110   7.319   6.937
43263SOL     OW31685   6.757  10.551   6.651
43263SOL    HW131686   6.681  10.606   6.670
43263SOL    HW231687   6.804  10.598   6.582
43264SOL     OW31688   7.572   8.267  10.850
43264SOL    HW131689   7.648   8.231  10.805
43264SOL    HW231690   7.602   8.352  10.884
43265SOL     OW31691  12.360  11.068   3.083
43265SOL    HW131692  12.425  11.052   3.015
43265SOL    HW231693  12.298  11.130   3.044
43266SOL     OW31694   3.111   8.315  10.431
43266SOL    HW131695   3.105   8.276  10.518
43266SOL    HW231696   3.025   8.354  10.416
43267SOL     OW31697   0.821   0.166   2.143
43267SOL    HW131698   0.897   0.116   2.113
43267SOL    HW231699   0.844   0.257   2.126
43268SOL     OW31700  12.249   4.340  12.171
43268SOL    HW131701  12.321   4.391  12.210
43268SOL    HW231702  12.290   4.291  12.100
43269SOL     OW31703   3.336   2.208  13.155
43269SOL    HW131704   3.275   2.275  13.124
43269SOL    HW231705   3.417   2.226  13.107
43270SOL     OW31706   0.162   3.566  10.272
43270SOL    HW131707   0.180   3.473  10.257
43270SOL    HW231708   0.071   3.568  10.302
43271SOL     OW31709  12.469  13.929  13.726
43271SOL    HW131710  12.477  13.864  13.795
43271SOL    HW231711  12.486  13.880  13.645
43272SOL     OW31712   6.603   6.976   3.871
43272SOL    HW131713   6.576   6.982   3.779
43272SOL    HW231714   6.675   6.913   3.870
43273SOL     OW31715   7.902  12.123   6.440
43273SOL    HW131716   7.936  12.036   6.458
43273SOL    HW231717   7.818  12.127   6.486
43274SOL     OW31718   8.773   0.726  11.588
43274SOL    HW131719   8.738   0.814  11.571
43274SOL    HW231720   8.811   0.699  11.504
43275SOL     OW31721   1.733   3.038   7.312
43275SOL    HW131722   1.721   3.000   7.399
43275SOL    HW231723   1.813   2.998   7.279
43276SOL     OW31724   7.699   7.287  11.482
43276SOL    HW131725   7.616   7.272  11.528
43276SOL    HW231726   7.760   7.312  11.551
43277SOL     OW31727  10.868   1.924  12.457
43277SOL    HW131728  10.923   2.000  12.439
43277SOL    HW231729  10.780   1.960  12.470
43278SOL     OW31730  13.498  10.443   6.250
43278SOL    HW131731  13.531  10.356   6.227
43278SOL    HW231732  13.433  10.463   6.182
43279SOL     OW31733   3.028  12.851  10.495
43279SOL    HW131734   2.964  12.829  10.563
43279SOL    HW231735   3.111  12.857  10.542
43280SOL     OW31736  11.760   4.607  14.447
43280SOL    HW131737  11.792   4.687  14.405
43280SOL    HW231738  11.729   4.553  14.375
43281SOL     OW31739   9.393   5.407   2.246
43281SOL    HW131740   9.432   5.494   2.258
43281SOL    HW231741   9.438   5.371   2.170
43282SOL     OW31742   8.143   4.234  14.794
43282SOL    HW131743   8.172   4.144  14.778
43282SOL    HW231744   8.184   4.258   0.007
43283SOL     OW31745   3.966   8.105  13.522
43283SOL    HW131746   4.049   8.135  13.486
43283SOL    HW231747   3.909   8.183  13.519
43284SOL     OW31748   3.660   7.977  13.070
43284SOL    HW131749   3.609   7.928  13.006
43284SOL    HW231750   3.735   7.922  13.089
43285SOL     OW31751   0.129   2.429   0.784
43285SOL    HW131752   0.051   2.398   0.738
43285SOL    HW231753   0.199   2.425   0.719
43286SOL     OW31754  12.356  13.934   1.426
43286SOL    HW131755  12.295  13.860   1.432
43286SOL    HW231756  12.302  14.008   1.399
43287SOL     OW31757   4.469   6.588  12.651
43287SOL    HW131758   4.447   6.612  12.561
43287SOL    HW231759   4.556   6.549  12.645
43288SOL     OW31760  14.143   0.929  13.303
43288SOL    HW131761  14.149   0.833  13.311
43288SOL    HW231762  14.164   0.946  13.212
43289SOL     OW31763   0.781  10.521   6.779
43289SOL    HW131764   0.723  10.475   6.718
43289SOL    HW231765   0.859  10.542   6.727
43290SOL     OW31766   4.013  12.143   4.202
43290SOL    HW131767   3.958  12.134   4.280
43290SOL    HW231768   4.071  12.067   4.206
43291SOL     OW31769   8.725  10.126  14.730
43291SOL    HW131770   8.707  10.110  14.637
43291SOL    HW231771   8.705  10.218  14.743
43292SOL     OW31772  10.750  12.782   5.483
43292SOL    HW131773  10.839  12.775   5.449
43292SOL    HW231774  10.734  12.876   5.490
43293SOL     OW31775  11.009   7.036   7.004
43293SOL    HW131776  10.954   7.113   7.016
43293SOL    HW231777  11.046   7.046   6.916
43294SOL     OW31778   3.745  12.138   9.481
43294SOL    HW131779   3.751  12.145   9.385
43294SOL    HW231780   3.809  12.200   9.514
43295SOL     OW31781  13.539   2.994   5.449
43295SOL    HW131782  13.516   3.059   5.515
43295SOL    HW231783  13.494   3.023   5.370
43296SOL     OW31784   6.890   1.474   9.992
43296SOL    HW131785   6.956   1.496  10.059
43296SOL    HW231786   6.921   1.518   9.913
43297SOL     OW31787  11.956   6.883   7.075
43297SOL    HW131788  12.012   6.808   7.055
43297SOL    HW231789  11.888   6.881   7.007
43298SOL     OW31790   6.394   2.963   6.468
43298SOL    HW131791   6.309   3.002   6.488
43298SOL    HW231792   6.431   3.020   6.400
43299SOL     OW31793   7.570  11.751  12.715
43299SOL    HW131794   7.485  11.708  12.729
43299SOL    HW231795   7.634  11.680  12.724
43300SOL     OW31796  11.948  10.238   8.726
43300SOL    HW131797  11.899  10.305   8.772
43300SOL    HW231798  11.887  10.207   8.658
43301SOL     OW31799  11.870  11.006   2.087
43301SOL    HW131800  11.910  10.930   2.046
43301SOL    HW231801  11.848  10.977   2.176
43302SOL     OW31802   2.661  14.460   9.757
43302SOL    HW131803   2.743  14.419   9.728
43302SOL    HW231804   2.632  14.511   9.681
43303SOL     OW31805  13.415   1.842  10.357
43303SOL    HW131806  13.361   1.918  10.334
43303SOL    HW231807  13.497   1.855  10.308
43304SOL     OW31808   5.166  13.396   5.715
43304SOL    HW131809   5.216  13.343   5.653
43304SOL    HW231810   5.131  13.468   5.662
43305SOL     OW31811   7.923   7.826   0.583
43305SOL    HW131812   8.006   7.780   0.574
43305SOL    HW231813   7.864   7.779   0.524
43306SOL     OW31814  10.193   0.173   0.943
43306SOL    HW131815  10.186   0.204   0.852
43306SOL    HW231816  10.205   0.079   0.934
43307SOL     OW31817  11.967   0.104   8.635
43307SOL    HW131818  11.905   0.168   8.669
43307SOL    HW231819  12.049   0.151   8.628
43308SOL     OW31820   5.478   6.728   7.664
43308SOL    HW131821   5.540   6.748   7.594
43308SOL    HW231822   5.398   6.702   7.618
43309SOL     OW31823   0.914  12.351  10.038
43309SOL    HW131824   0.964  12.291  10.094
43309SOL    HW231825   0.927  12.437  10.078
43310SOL     OW31826   6.557   9.996  10.576
43310SOL    HW131827   6.527  10.084  10.598
43310SOL    HW231828   6.514   9.938  10.639
43311SOL     OW31829  13.735  10.499   7.356
43311SOL    HW131830  13.735  10.425   7.296
43311SOL    HW231831  13.805  10.479   7.418
43312SOL     OW31832  13.496  13.932   3.769
43312SOL    HW131833  13.582  13.911   3.805
43312SOL    HW231834  13.513  13.994   3.699
43313SOL     OW31835  13.250   0.546   3.107
43313SOL    HW131836  13.344   0.529   3.109
43313SOL    HW231837  13.242   0.630   3.062
43314SOL     OW31838  14.736   1.080   4.713
43314SOL    HW131839  14.812   1.102   4.660
43314SOL    HW231840  14.754   0.992   4.746
43315SOL     OW31841   4.593   0.710  10.287
43315SOL    HW131842   4.550   0.792  10.262
43315SOL    HW231843   4.635   0.729  10.371
43316SOL     OW31844  11.501   1.249   3.291
43316SOL    HW131845  11.571   1.255   3.356
43316SOL    HW231846  11.546   1.230   3.209
43317SOL     OW31847  14.780   0.841   8.916
43317SOL    HW131848  14.780   0.895   8.995
43317SOL    HW231849  14.870   0.807   8.911
43318SOL     OW31850   2.491   3.948   3.410
43318SOL    HW131851   2.442   4.023   3.377
43318SOL    HW231852   2.520   3.901   3.331
43319SOL     OW31853   9.500   5.381  11.389
43319SOL    HW131854   9.496   5.405  11.296
43319SOL    HW231855   9.572   5.435  11.423
43320SOL     OW31856  10.810  13.628  13.457
43320SOL    HW131857  10.849  13.688  13.393
43320SOL    HW231858  10.736  13.677  13.493
43321SOL     OW31859  13.008  10.154  11.262
43321SOL    HW131860  12.983  10.242  11.291
43321SOL    HW231861  13.052  10.168  11.178
43322SOL     OW31862   5.673   3.096   1.699
43322SOL    HW131863   5.605   3.148   1.743
43322SOL    HW231864   5.640   3.084   1.610
43323SOL     OW31865   5.598   4.536   3.619
43323SOL    HW131866   5.671   4.533   3.557
43323SOL    HW231867   5.629   4.593   3.690
43324SOL     OW31868  13.498  11.444   2.230
43324SOL    HW131869  13.474  11.353   2.216
43324SOL    HW231870  13.572  11.441   2.291
43325SOL     OW31871   0.872   8.948  12.340
43325SOL    HW131872   0.826   8.936  12.257
43325SOL    HW231873   0.834   9.028  12.377
43326SOL     OW31874   0.347  11.077   4.851
43326SOL    HW131875   0.277  11.123   4.805
43326SOL    HW231876   0.379  11.140   4.916
43327SOL     OW31877   7.334   2.740  12.270
43327SOL    HW131878   7.425   2.757  12.245
43327SOL    HW231879   7.286   2.816  12.238
43328SOL     OW31880   8.647  11.041   1.659
43328SOL    HW131881   8.741  11.056   1.659
43328SOL    HW231882   8.621  11.049   1.751
43329SOL     OW31883   0.290  12.747  12.570
43329SOL    HW131884   0.231  12.677  12.541
43329SOL    HW231885   0.301  12.803  12.494
43330SOL     OW31886   5.587   2.888   0.994
43330SOL    HW131887   5.650   2.835   0.945
43330SOL    HW231888   5.506   2.879   0.944
43331SOL     OW31889   3.715   5.890   4.849
43331SOL    HW131890   3.688   5.927   4.765
43331SOL    HW231891   3.705   5.963   4.911
43332SOL     OW31892   7.453   3.238   5.832
43332SOL    HW131893   7.449   3.314   5.774
43332SOL    HW231894   7.369   3.238   5.877
43333SOL     OW31895  14.530  12.514   3.589
43333SOL    HW131896  14.469  12.583   3.561
43333SOL    HW231897  14.604  12.522   3.528
43334SOL     OW31898  12.387  10.028  13.760
43334SOL    HW131899  12.414  10.113  13.795
43334SOL    HW231900  12.409  10.032  13.667
43335SOL     OW31901   5.104  10.218   8.240
43335SOL    HW131902   5.132  10.295   8.289
43335SOL    HW231903   5.095  10.149   8.305
43336SOL     OW31904   9.535   8.747   7.622
43336SOL    HW131905   9.526   8.655   7.595
43336SOL    HW231906   9.627   8.767   7.607
43337SOL     OW31907   9.366   8.770  10.592
43337SOL    HW131908   9.361   8.711  10.667
43337SOL    HW231909   9.371   8.711  10.516
43338SOL     OW31910   8.934  11.141  12.381
43338SOL    HW131911   8.871  11.112  12.315
43338SOL    HW231912   8.895  11.219  12.420
43339SOL     OW31913   2.663   5.000   2.624
43339SOL    HW131914   2.606   4.995   2.701
43339SOL    HW231915   2.664   4.910   2.590
43340SOL     OW31916   4.985  12.355   2.101
43340SOL    HW131917   4.948  12.308   2.176
43340SOL    HW231918   4.938  12.438   2.100
43341SOL     OW31919   6.434   8.148  13.501
43341SOL    HW131920   6.455   8.217  13.565
43341SOL    HW231921   6.452   8.188  13.416
43342SOL     OW31922   5.887   4.078   6.326
43342SOL    HW131923   5.956   4.117   6.381
43342SOL    HW231924   5.869   3.993   6.367
43343SOL     OW31925  13.093   3.376   5.994
43343SOL    HW131926  13.144   3.295   5.992
43343SOL    HW231927  13.021   3.360   5.932
43344SOL     OW31928   1.230   4.857   5.547
43344SOL    HW131929   1.252   4.791   5.613
43344SOL    HW231930   1.301   4.921   5.553
43345SOL     OW31931   5.199   9.100   6.876
43345SOL    HW131932   5.118   9.148   6.896
43345SOL    HW231933   5.204   9.103   6.780
43346SOL     OW31934  11.450  10.585  10.481
43346SOL    HW131935  11.499  10.595  10.400
43346SOL    HW231936  11.363  10.557  10.454
43347SOL     OW31937  12.046   5.270  10.288
43347SOL    HW131938  12.137   5.296  10.270
43347SOL    HW231939  12.047   5.242  10.380
43348SOL     OW31940  13.726  14.456  13.376
43348SOL    HW131941  13.735  14.365  13.346
43348SOL    HW231942  13.744  14.509  13.298
43349SOL     OW31943  13.465   6.769   2.660
43349SOL    HW131944  13.390   6.762   2.600
43349SOL    HW231945  13.509   6.850   2.635
43350SOL     OW31946   0.279   1.028  10.870
43350SOL    HW131947   0.276   1.069  10.957
43350SOL    HW231948   0.369   1.041  10.841
43351SOL     OW31949   4.890  12.794   0.836
43351SOL    HW131950   4.820  12.788   0.771
43351SOL    HW231951   4.878  12.715   0.890
43352SOL     OW31952   0.801   6.503  12.187
43352SOL    HW131953   0.786   6.584  12.236
43352SOL    HW231954   0.736   6.442  12.221
43353SOL     OW31955  11.751  12.065   8.999
43353SOL    HW131956  11.724  12.044   8.910
43353SOL    HW231957  11.810  12.140   8.989
43354SOL     OW31958   7.891   5.507  13.406
43354SOL    HW131959   7.874   5.529  13.315
43354SOL    HW231960   7.897   5.411  13.407
43355SOL     OW31961   6.030   7.441  10.490
43355SOL    HW131962   6.066   7.424  10.577
43355SOL    HW231963   5.940   7.466  10.506
43356SOL     OW31964  11.688   8.460   0.191
43356SOL    HW131965  11.774   8.431   0.222
43356SOL    HW231966  11.697   8.555   0.182
43357SOL     OW31967  11.015   8.076   6.902
43357SOL    HW131968  11.076   8.022   6.953
43357SOL    HW231969  10.934   8.075   6.953
43358SOL     OW31970   1.462   7.598   7.592
43358SOL    HW131971   1.548   7.559   7.571
43358SOL    HW231972   1.482   7.688   7.616
43359SOL     OW31973  14.460  13.317   0.970
43359SOL    HW131974  14.437  13.325   0.878
43359SOL    HW231975  14.551  13.348   0.975
43360SOL     OW31976   0.505  13.576   8.739
43360SOL    HW131977   0.501  13.574   8.644
43360SOL    HW231978   0.525  13.668   8.760
43361SOL     OW31979   8.465   1.099  12.527
43361SOL    HW131980   8.377   1.108  12.562
43361SOL    HW231981   8.500   1.020  12.568
43362SOL     OW31982  13.163   5.499   9.707
43362SOL    HW131983  13.255   5.526   9.698
43362SOL    HW231984  13.114   5.563   9.656
43363SOL     OW31985  10.700  12.639  12.912
43363SOL    HW131986  10.760  12.699  12.868
43363SOL    HW231987  10.749  12.610  12.989
43364SOL     OW31988  13.663   1.968  12.999
43364SOL    HW131989  13.687   2.059  13.015
43364SOL    HW231990  13.747   1.921  12.997
43365SOL     OW31991  12.773   3.022  13.874
43365SOL    HW131992  12.846   3.066  13.919
43365SOL    HW231993  12.814   2.953  13.822
43366SOL     OW31994  11.502   6.155  14.044
43366SOL    HW131995  11.587   6.198  14.058
43366SOL    HW231996  11.522   6.062  14.051
43367SOL     OW31997   9.066   4.708  13.316
43367SOL    HW131998   9.093   4.767  13.245
43367SOL    HW231999   9.147   4.689  13.363
43368SOL     OW32000   3.630  11.588   9.959
43368SOL    HW132001   3.655  11.668  10.006
43368SOL    HW232002   3.577  11.539  10.022
43369SOL     OW32003  13.049   1.808   4.706
43369SOL    HW132004  13.143   1.811   4.686
43369SOL    HW232005  13.045   1.781   4.798
43370SOL     OW32006   2.576   5.576   4.945
43370SOL    HW132007   2.582   5.487   4.979
43370SOL    HW232008   2.523   5.623   5.010
43371SOL     OW32009  13.964   8.526  14.419
43371SOL    HW132010  14.031   8.586  14.389
43371SOL    HW232011  13.902   8.581  14.467
43372SOL     OW32012   8.427  10.366   6.739
43372SOL    HW132013   8.334  10.358   6.757
43372SOL    HW232014   8.470  10.315   6.808
43373SOL     OW32015  12.464   2.796  11.191
43373SOL    HW132016  12.519   2.763  11.262
43373SOL    HW232017  12.408   2.861  11.232
43374SOL     OW32018   1.787   0.852   3.861
43374SOL    HW132019   1.751   0.774   3.903
43374SOL    HW232020   1.855   0.883   3.922
43375SOL     OW32021   5.357   8.145   9.682
43375SOL    HW132022   5.262   8.158   9.690
43375SOL    HW232023   5.374   8.159   9.589
43376SOL     OW32024   0.364   2.475  12.133
43376SOL    HW132025   0.421   2.542  12.171
43376SOL    HW232026   0.278   2.492  12.171
43377SOL     OW32027   7.500  12.148  10.717
43377SOL    HW132028   7.411  12.177  10.736
43377SOL    HW232029   7.495  12.052  10.718
43378SOL     OW32030  10.522  14.123  13.899
43378SOL    HW132031  10.616  14.108  13.911
43378SOL    HW232032  10.506  14.106  13.806
43379SOL     OW32033   3.681  13.289   0.971
43379SOL    HW132034   3.664  13.349   0.898
43379SOL    HW232035   3.596  13.282   1.016
43380SOL     OW32036   2.604   7.480  14.214
43380SOL    HW132037   2.634   7.532  14.288
43380SOL    HW232038   2.682   7.464  14.162
43381SOL     OW32039   5.618  10.125   2.508
43381SOL    HW132040   5.566  10.141   2.429
43381SOL    HW232041   5.696  10.178   2.497
43382SOL     OW32042   2.631   1.238   7.988
43382SOL    HW132043   2.581   1.217   7.909
43382SOL    HW232044   2.711   1.278   7.954
43383SOL     OW32045   7.725   0.823   3.593
43383SOL    HW132046   7.721   0.819   3.688
43383SOL    HW232047   7.789   0.755   3.569
43384SOL     OW32048  13.155   3.109   1.093
43384SOL    HW132049  13.197   3.194   1.084
43384SOL    HW232050  13.223   3.045   1.073
43385SOL     OW32051  13.211   4.849  13.047
43385SOL    HW132052  13.291   4.798  13.054
43385SOL    HW232053  13.241   4.940  13.047
43386SOL     OW32054   9.164   8.126   1.543
43386SOL    HW132055   9.069   8.134   1.544
43386SOL    HW232056   9.191   8.138   1.634
43387SOL     OW32057  14.736  10.613  14.637
43387SOL    HW132058  14.767  10.551  14.571
43387SOL    HW232059  14.739  10.563  14.719
43388SOL     OW32060  11.303  14.043  10.474
43388SOL    HW132061  11.241  14.041  10.547
43388SOL    HW232062  11.335  14.134  10.474
43389SOL     OW32063  12.673  10.282   4.367
43389SOL    HW132064  12.586  10.313   4.393
43389SOL    HW232065  12.656  10.220   4.296
43390SOL     OW32066   3.322   5.061   0.915
43390SOL    HW132067   3.349   5.148   0.944
43390SOL    HW232068   3.342   5.059   0.821
43391SOL     OW32069   1.611  11.245  13.649
43391SOL    HW132070   1.646  11.261  13.737
43391SOL    HW232071   1.676  11.284  13.590
43392SOL     OW32072   7.923   3.444   1.233
43392SOL    HW132073   7.858   3.414   1.169
43392SOL    HW232074   8.002   3.459   1.182
43393SOL     OW32075  10.649   1.581  11.147
43393SOL    HW132076  10.724   1.625  11.108
43393SOL    HW232077  10.604   1.541  11.072
43394SOL     OW32078   0.817  10.067   8.103
43394SOL    HW132079   0.862  10.078   8.019
43394SOL    HW232080   0.748  10.004   8.086
43395SOL     OW32081   1.767   6.843  14.403
43395SOL    HW132082   1.727   6.802  14.327
43395SOL    HW232083   1.781   6.934  14.377
43396SOL     OW32084   7.210  11.013   8.800
43396SOL    HW132085   7.191  11.022   8.707
43396SOL    HW232086   7.286  11.071   8.815
43397SOL     OW32087   0.497  12.160   8.520
43397SOL    HW132088   0.461  12.245   8.495
43397SOL    HW232089   0.437  12.096   8.481
43398SOL     OW32090   4.008   1.063  14.725
43398SOL    HW132091   4.019   1.000  14.654
43398SOL    HW232092   3.970   1.140  14.684
43399SOL     OW32093   0.696  14.650  12.594
43399SOL    HW132094   0.718  14.714  12.527
43399SOL    HW232095   0.777  14.636  12.643
43400SOL     OW32096  13.094  12.082  14.261
43400SOL    HW132097  13.126  12.130  14.338
43400SOL    HW232098  13.168  12.083  14.200
43401SOL     OW32099   5.545   6.538   8.064
43401SOL    HW132100   5.601   6.567   7.992
43401SOL    HW232101   5.528   6.617   8.115
43402SOL     OW32102   7.630   8.055   0.938
43402SOL    HW132103   7.663   8.145   0.944
43402SOL    HW232104   7.588   8.039   1.023
43403SOL     OW32105  13.422   6.904  13.953
43403SOL    HW132106  13.495   6.961  13.977
43403SOL    HW232107  13.345   6.961  13.959
43404SOL     OW32108   0.431   9.589   5.097
43404SOL    HW132109   0.394   9.504   5.121
43404SOL    HW232110   0.362   9.652   5.117
43405SOL     OW32111   2.888  13.413   0.493
43405SOL    HW132112   2.981  13.429   0.478
43405SOL    HW232113   2.852  13.395   0.406
43406SOL     OW32114  11.448   1.069  10.178
43406SOL    HW132115  11.382   1.048  10.112
43406SOL    HW232116  11.464   1.162  10.167
43407SOL     OW32117   1.508   7.089  10.176
43407SOL    HW132118   1.414   7.106  10.168
43407SOL    HW232119   1.531   7.041  10.097
43408SOL     OW32120  11.599   5.157   1.921
43408SOL    HW132121  11.666   5.181   1.986
43408SOL    HW232122  11.613   5.218   1.849
43409SOL     OW32123   0.203   3.004  10.966
43409SOL    HW132124   0.192   3.087  10.919
43409SOL    HW232125   0.115   2.964  10.964
43410SOL     OW32126   8.301  14.036   9.126
43410SOL    HW132127   8.228  14.082   9.168
43410SOL    HW232128   8.276  14.034   9.033
43411SOL     OW32129   0.553   8.258   0.633
43411SOL    HW132130   0.544   8.353   0.644
43411SOL    HW232131   0.640   8.247   0.595
43412SOL     OW32132  11.079  10.848  14.722
43412SOL    HW132133  11.071  10.943  14.716
43412SOL    HW232134  11.145  10.826  14.656
43413SOL     OW32135  11.925   4.789   2.909
43413SOL    HW132136  11.921   4.860   2.973
43413SOL    HW232137  11.848   4.735   2.929
43414SOL     OW32138   1.921  14.736   3.055
43414SOL    HW132139   1.827  14.736   3.073
43414SOL    HW232140   1.962  14.752   3.140
43415SOL     OW32141   4.773   5.801   9.688
43415SOL    HW132142   4.771   5.891   9.654
43415SOL    HW232143   4.747   5.747   9.613
43416SOL     OW32144   7.293   1.142  13.060
43416SOL    HW132145   7.219   1.136  12.999
43416SOL    HW232146   7.255   1.180  13.140
43417SOL     OW32147   7.121  10.645   3.978
43417SOL    HW132148   7.179  10.573   3.952
43417SOL    HW232149   7.166  10.724   3.946
43418SOL     OW32150   5.759   4.708   5.913
43418SOL    HW132151   5.747   4.735   5.822
43418SOL    HW232152   5.671   4.690   5.945
43419SOL     OW32153   0.018   0.701  13.584
43419SOL    HW132154   0.041   0.794  13.577
43419SOL    HW232155  14.809   0.700  13.638
43420SOL     OW32156   9.422   9.730   8.584
43420SOL    HW132157   9.329   9.721   8.563
43420SOL    HW232158   9.430   9.697   8.673
43421SOL     OW32159   8.330  13.472  10.782
43421SOL    HW132160   8.260  13.432  10.834
43421SOL    HW232161   8.399  13.492  10.845
43422SOL     OW32162   6.348   0.375   7.326
43422SOL    HW132163   6.415   0.427   7.369
43422SOL    HW232164   6.273   0.434   7.317
43423SOL     OW32165   2.705   1.758   6.149
43423SOL    HW132166   2.699   1.808   6.230
43423SOL    HW232167   2.631   1.698   6.151
43424SOL     OW32168   2.093  13.888  14.370
43424SOL    HW132169   2.080  13.982  14.383
43424SOL    HW232170   2.160  13.864  14.434
43425SOL     OW32171  11.086  10.120  13.995
43425SOL    HW132172  11.071  10.154  14.083
43425SOL    HW232173  11.049  10.032  13.997
43426SOL     OW32174   3.272  14.007   9.235
43426SOL    HW132175   3.193  14.003   9.182
43426SOL    HW232176   3.338  14.046   9.177
43427SOL     OW32177  11.465  10.997   5.585
43427SOL    HW132178  11.414  11.065   5.629
43427SOL    HW232179  11.541  11.042   5.549
43428SOL     OW32180  14.110   4.205   6.720
43428SOL    HW132181  14.042   4.148   6.684
43428SOL    HW232182  14.114   4.183   6.813
43429SOL     OW32183   8.607  11.176   8.974
43429SOL    HW132184   8.539  11.155   8.909
43429SOL    HW232185   8.620  11.270   8.966
43430SOL     OW32186  11.952   5.484  12.855
43430SOL    HW132187  11.935   5.549  12.923
43430SOL    HW232188  11.884   5.499  12.790
43431SOL     OW32189   1.693   9.864   7.259
43431SOL    HW132190   1.650   9.856   7.174
43431SOL    HW232191   1.715   9.774   7.283
43432SOL     OW32192   4.740   1.973   8.811
43432SOL    HW132193   4.707   1.910   8.747
43432SOL    HW232194   4.666   2.032   8.827
43433SOL     OW32195   6.212  13.125   8.604
43433SOL    HW132196   6.172  13.191   8.547
43433SOL    HW232197   6.294  13.102   8.560
43434SOL     OW32198  12.991   9.728   3.290
43434SOL    HW132199  12.990   9.802   3.350
43434SOL    HW232200  13.009   9.767   3.204
43435SOL     OW32201   8.451  10.135   0.811
43435SOL    HW132202   8.383  10.088   0.763
43435SOL    HW232203   8.431  10.228   0.796
43436SOL     OW32204   9.160   7.791   2.986
43436SOL    HW132205   9.098   7.864   2.982
43436SOL    HW232206   9.216   7.803   2.909
43437SOL     OW32207  14.167  14.806   7.367
43437SOL    HW132208  14.231  14.777   7.303
43437SOL    HW232209  14.219  14.834   7.443
43438SOL     OW32210   0.437   9.929  12.502
43438SOL    HW132211   0.428   9.967  12.590
43438SOL    HW232212   0.357   9.879  12.489
43439SOL     OW32213   5.597   7.452   5.047
43439SOL    HW132214   5.636   7.365   5.056
43439SOL    HW232215   5.658   7.500   4.990
43440SOL     OW32216   3.442  13.761  10.555
43440SOL    HW132217   3.391  13.727  10.481
43440SOL    HW232218   3.517  13.804  10.514
43441SOL     OW32219   5.131   7.273   4.305
43441SOL    HW132220   5.197   7.228   4.252
43441SOL    HW232221   5.182   7.328   4.365
43442SOL     OW32222   1.133   1.612   5.202
43442SOL    HW132223   1.154   1.563   5.281
43442SOL    HW232224   1.162   1.702   5.220
43443SOL     OW32225   7.074   4.523  11.770
43443SOL    HW132226   7.089   4.429  11.781
43443SOL    HW232227   7.109   4.563  11.850
43444SOL     OW32228   4.794  11.475  14.414
43444SOL    HW132229   4.767  11.486  14.323
43444SOL    HW232230   4.711  11.467  14.462
43445SOL     OW32231   1.462   7.530  13.278
43445SOL    HW132232   1.370   7.518  13.303
43445SOL    HW232233   1.490   7.443  13.248
43446SOL     OW32234  12.832  12.073   2.223
43446SOL    HW132235  12.859  12.155   2.182
43446SOL    HW232236  12.759  12.098   2.280
43447SOL     OW32237   3.423   7.055  11.817
43447SOL    HW132238   3.358   6.995  11.853
43447SOL    HW232239   3.506   7.009  11.826
43448SOL     OW32240   3.140   6.978   1.704
43448SOL    HW132241   3.209   6.912   1.706
43448SOL    HW232242   3.132   7.001   1.611
43449SOL     OW32243   4.532   6.831   1.149
43449SOL    HW132244   4.445   6.818   1.185
43449SOL    HW232245   4.524   6.807   1.056
43450SOL     OW32246  13.259   3.067   3.841
43450SOL    HW132247  13.343   3.042   3.879
43450SOL    HW232248  13.195   3.011   3.884
43451SOL     OW32249   4.955   5.452  13.190
43451SOL    HW132250   4.871   5.411  13.172
43451SOL    HW232251   4.946   5.542  13.159
43452SOL     OW32252  13.290  10.480   6.057
43452SOL    HW132253  13.222  10.479   6.125
43452SOL    HW232254  13.243  10.497   5.976
43453SOL     OW32255   1.840  14.157  11.427
43453SOL    HW132256   1.823  14.095  11.499
43453SOL    HW232257   1.765  14.147  11.369
43454SOL     OW32258   8.350   1.362   9.917
43454SOL    HW132259   8.299   1.435   9.882
43454SOL    HW232260   8.290   1.318   9.978
43455SOL     OW32261  11.862   7.778   4.973
43455SOL    HW132262  11.814   7.763   4.892
43455SOL    HW232263  11.805   7.835   5.024
43456SOL     OW32264   8.153   6.344   4.929
43456SOL    HW132265   8.072   6.383   4.962
43456SOL    HW232266   8.217   6.360   4.999
43457SOL     OW32267   3.998   4.105   6.435
43457SOL    HW132268   4.007   4.161   6.358
43457SOL    HW232269   4.011   4.016   6.403
43458SOL     OW32270   4.051   0.224  13.513
43458SOL    HW132271   4.099   0.165  13.454
43458SOL    HW232272   4.097   0.217  13.596
43459SOL     OW32273   8.638   4.188   8.403
43459SOL    HW132274   8.606   4.278   8.402
43459SOL    HW232275   8.596   4.146   8.328
43460SOL     OW32276  13.166   2.534   8.119
43460SOL    HW132277  13.217   2.493   8.049
43460SOL    HW232278  13.109   2.464   8.151
43461SOL     OW32279  13.489   2.157  12.141
43461SOL    HW132280  13.490   2.132  12.048
43461SOL    HW232281  13.581   2.154  12.167
43462SOL     OW32282  14.385   6.919  12.688
43462SOL    HW132283  14.469   6.883  12.660
43462SOL    HW232284  14.360   6.980  12.618
43463SOL     OW32285  14.196   0.642  12.635
43463SOL    HW132286  14.126   0.577  12.624
43463SOL    HW232287  14.152   0.726  12.625
43464SOL     OW32288  13.757   0.433  10.255
43464SOL    HW132289  13.764   0.377  10.178
43464SOL    HW232290  13.715   0.513  10.223
43465SOL     OW32291   3.371  14.831  13.240
43465SOL    HW132292   3.372   0.002  13.327
43465SOL    HW232293   3.365   0.035  13.180
43466SOL     OW32294  12.529   5.449   6.074
43466SOL    HW132295  12.624   5.450   6.081
43466SOL    HW232296  12.507   5.356   6.069
43467SOL     OW32297   5.626   4.051   3.437
43467SOL    HW132298   5.692   4.119   3.446
43467SOL    HW232299   5.560   4.088   3.380
43468SOL     OW32300  13.692   8.607   7.644
43468SOL    HW132301  13.775   8.567   7.620
43468SOL    HW232302  13.626   8.559   7.594
43469SOL     OW32303  12.161   3.341   9.556
43469SOL    HW132304  12.092   3.276   9.544
43469SOL    HW232305  12.156   3.396   9.479
43470SOL     OW32306   9.111  10.635   8.868
43470SOL    HW132307   9.124  10.718   8.822
43470SOL    HW232308   9.092  10.572   8.798
43471SOL     OW32309   2.904   8.397  12.666
43471SOL    HW132310   2.987   8.380  12.620
43471SOL    HW232311   2.929   8.401  12.758
43472SOL     OW32312  13.911  10.973   3.268
43472SOL    HW132313  13.886  11.024   3.191
43472SOL    HW232314  13.879  11.023   3.343
43473SOL     OW32315  10.568  13.852  13.051
43473SOL    HW132316  10.596  13.911  13.121
43473SOL    HW232317  10.650  13.823  13.010
43474SOL     OW32318  14.505   4.377   7.491
43474SOL    HW132319  14.553   4.459   7.490
43474SOL    HW232320  14.417   4.401   7.521
43475SOL     OW32321   5.647   7.011   8.016
43475SOL    HW132322   5.558   6.989   7.988
43475SOL    HW232323   5.637   7.050   8.102
43476SOL     OW32324   9.017   2.704  13.122
43476SOL    HW132325   9.033   2.670  13.211
43476SOL    HW232326   9.103   2.729  13.090
43477SOL     OW32327   2.038   4.980  10.908
43477SOL    HW132328   2.087   4.917  10.856
43477SOL    HW232329   1.948   4.975  10.875
43478SOL     OW32330  14.449   2.892  12.058
43478SOL    HW132331  14.525   2.949  12.066
43478SOL    HW232332  14.468   2.818  12.116
43479SOL     OW32333   9.222   9.581   8.429
43479SOL    HW132334   9.227   9.654   8.368
43479SOL    HW232335   9.300   9.528   8.410
43480SOL     OW32336  14.414   2.118   2.115
43480SOL    HW132337  14.356   2.113   2.191
43480SOL    HW232338  14.371   2.064   2.049
43481SOL     OW32339   3.386  13.958  12.178
43481SOL    HW132340   3.321  14.025  12.200
43481SOL    HW232341   3.407  13.974  12.086
43482SOL     OW32342   8.815   7.827   9.826
43482SOL    HW132343   8.822   7.806   9.733
43482SOL    HW232344   8.832   7.745   9.871
43483SOL     OW32345  10.271   2.163   1.825
43483SOL    HW132346  10.348   2.106   1.825
43483SOL    HW232347  10.197   2.103   1.820
43484SOL     OW32348  10.944  10.738  11.601
43484SOL    HW132349  11.039  10.741  11.589
43484SOL    HW232350  10.916  10.667  11.543
43485SOL     OW32351   1.711  12.102   9.400
43485SOL    HW132352   1.744  12.031   9.345
43485SOL    HW232353   1.617  12.105   9.381
43486SOL     OW32354   9.779   1.755  13.956
43486SOL    HW132355   9.787   1.767  14.051
43486SOL    HW232356   9.775   1.844  13.921
43487SOL     OW32357  13.998  13.489   9.645
43487SOL    HW132358  13.938  13.414   9.636
43487SOL    HW232359  13.944  13.557   9.686
43488SOL     OW32360   2.063   2.156  12.129
43488SOL    HW132361   2.112   2.176  12.209
43488SOL    HW232362   1.988   2.215  12.132
43489SOL     OW32363   9.403   9.233   4.309
43489SOL    HW132364   9.315   9.269   4.305
43489SOL    HW232365   9.395   9.154   4.361
43490SOL     OW32366   4.384  13.304   6.629
43490SOL    HW132367   4.333  13.270   6.703
43490SOL    HW232368   4.402  13.395   6.652
43491SOL     OW32369   0.225  14.519   5.358
43491SOL    HW132370   0.190  14.496   5.271
43491SOL    HW232371   0.250  14.435   5.397
43492SOL     OW32372   7.162   4.711   5.979
43492SOL    HW132373   7.125   4.780   6.034
43492SOL    HW232374   7.099   4.700   5.908
43493SOL     OW32375   7.068   7.097   3.843
43493SOL    HW132376   6.992   7.149   3.818
43493SOL    HW232377   7.051   7.010   3.807
43494SOL     OW32378   5.701   9.584  13.641
43494SOL    HW132379   5.693   9.650  13.572
43494SOL    HW232380   5.736   9.507  13.596
43495SOL     OW32381   1.570  13.305   9.150
43495SOL    HW132382   1.548  13.395   9.173
43495SOL    HW232383   1.551  13.298   9.057
43496SOL     OW32384   5.299  12.704  11.945
43496SOL    HW132385   5.296  12.799  11.953
43496SOL    HW232386   5.326  12.674  12.032
43497SOL     OW32387  11.369   6.377   0.089
43497SOL    HW132388  11.302   6.368   0.157
43497SOL    HW232389  11.427   6.302   0.103
43498SOL     OW32390  12.711   5.800  14.391
43498SOL    HW132391  12.748   5.717  14.359
43498SOL    HW232392  12.780   5.838  14.445
43499SOL     OW32393  10.735   4.694   0.802
43499SOL    HW132394  10.734   4.709   0.707
43499SOL    HW232395  10.824   4.664   0.821
43500SOL     OW32396   0.557   4.282   0.434
43500SOL    HW132397   0.471   4.269   0.475
43500SOL    HW232398   0.552   4.370   0.395
43501SOL     OW32399  12.250  12.917   9.146
43501SOL    HW132400  12.202  12.991   9.111
43501SOL    HW232401  12.340  12.947   9.152
43502SOL     OW32402   5.776   9.468  14.161
43502SOL    HW132403   5.741   9.475  14.073
43502SOL    HW232404   5.870   9.482  14.151
43503SOL     OW32405   9.815  13.922  13.677
43503SOL    HW132406   9.823  14.018  13.670
43503SOL    HW232407   9.862  13.900  13.757
43504SOL     OW32408   8.526   1.448   7.619
43504SOL    HW132409   8.462   1.377   7.608
43504SOL    HW232410   8.527   1.465   7.713
43505SOL     OW32411  12.464  14.702  14.061
43505SOL    HW132412  12.376  14.705  14.024
43505SOL    HW232413  12.471  14.781  14.115
43506SOL     OW32414   0.757   0.610   8.452
43506SOL    HW132415   0.754   0.521   8.419
43506SOL    HW232416   0.694   0.612   8.524
43507SOL     OW32417   3.694  13.400   4.946
43507SOL    HW132418   3.665  13.336   5.011
43507SOL    HW232419   3.706  13.350   4.866
43508SOL     OW32420  13.609  14.857   2.434
43508SOL    HW132421  13.681  14.802   2.465
43508SOL    HW232422  13.544  14.794   2.402
43509SOL     OW32423   5.994   7.667   7.980
43509SOL    HW132424   5.991   7.746   7.926
43509SOL    HW232425   6.075   7.676   8.030
43510SOL     OW32426   3.139   4.086  12.525
43510SOL    HW132427   3.165   4.151  12.460
43510SOL    HW232428   3.204   4.094  12.594
43511SOL     OW32429   1.062   5.814   3.923
43511SOL    HW132430   1.050   5.728   3.884
43511SOL    HW232431   1.082   5.872   3.850
43512SOL     OW32432   7.273   2.506  14.442
43512SOL    HW132433   7.261   2.422  14.398
43512SOL    HW232434   7.364   2.529  14.427
43513SOL     OW32435  10.195   3.160   2.278
43513SOL    HW132436  10.111   3.202   2.260
43513SOL    HW232437  10.187   3.073   2.237
43514SOL     OW32438  11.926  12.672   2.494
43514SOL    HW132439  11.901  12.764   2.482
43514SOL    HW232440  12.000  12.659   2.434
43515SOL     OW32441   5.323   3.399   2.796
43515SOL    HW132442   5.279   3.483   2.792
43515SOL    HW232443   5.405   3.416   2.843
43516SOL     OW32444  14.739   2.987  13.426
43516SOL    HW132445  14.660   3.015  13.379
43516SOL    HW232446  14.793   3.065  13.432
43517SOL     OW32447  14.474   9.809   9.034
43517SOL    HW132448  14.521   9.854   8.963
43517SOL    HW232449  14.534   9.739   9.061
43518SOL     OW32450   8.454   2.385   5.063
43518SOL    HW132451   8.431   2.407   4.972
43518SOL    HW232452   8.381   2.419   5.115
43519SOL     OW32453   6.702   4.553  13.251
43519SOL    HW132454   6.716   4.458  13.243
43519SOL    HW232455   6.644   4.575  13.179
43520SOL     OW32456   7.549   9.845  14.775
43520SOL    HW132457   7.523   9.881  14.861
43520SOL    HW232458   7.515   9.909  14.712
43521SOL     OW32459   3.654   4.197  10.536
43521SOL    HW132460   3.658   4.113  10.581
43521SOL    HW232461   3.595   4.182  10.462
43522SOL     OW32462  13.598  11.531  10.748
43522SOL    HW132463  13.589  11.510  10.841
43522SOL    HW232464  13.675  11.587  10.743
43523SOL     OW32465  14.202   7.552   5.590
43523SOL    HW132466  14.294   7.529   5.579
43523SOL    HW232467  14.200   7.615   5.661
43524SOL     OW32468   8.687   5.883  14.221
43524SOL    HW132469   8.613   5.938  14.247
43524SOL    HW232470   8.646   5.804  14.185
43525SOL     OW32471   5.227   0.774   3.981
43525SOL    HW132472   5.265   0.829   3.912
43525SOL    HW232473   5.153   0.826   4.014
43526SOL     OW32474   4.500   3.204  12.559
43526SOL    HW132475   4.408   3.178  12.553
43526SOL    HW232476   4.498   3.296  12.585
43527SOL     OW32477  14.773   1.567  12.499
43527SOL    HW132478  14.830   1.518  12.440
43527SOL    HW232479  14.749   1.646  12.450
43528SOL     OW32480   0.089   7.047   5.855
43528SOL    HW132481   0.176   7.008   5.855
43528SOL    HW232482   0.065   7.053   5.762
43529SOL     OW32483   2.859   9.774  13.851
43529SOL    HW132484   2.775   9.803  13.885
43529SOL    HW232485   2.920   9.843  13.876
43530SOL     OW32486   1.645  10.944   7.035
43530SOL    HW132487   1.568  10.988   7.072
43530SOL    HW232488   1.610  10.889   6.965
43531SOL     OW32489   1.635  10.595  10.469
43531SOL    HW132490   1.693  10.531  10.509
43531SOL    HW232491   1.671  10.609  10.381
43532SOL     OW32492  10.346   5.062  10.359
43532SOL    HW132493  10.366   5.121  10.431
43532SOL    HW232494  10.421   5.003  10.354
43533SOL     OW32495  14.416   8.719   8.640
43533SOL    HW132496  14.379   8.658   8.576
43533SOL    HW232497  14.369   8.801   8.624
43534SOL     OW32498   3.110  12.945   6.764
43534SOL    HW132499   3.124  12.859   6.803
43534SOL    HW232500   3.183  12.957   6.704
43535SOL     OW32501   7.200  12.825   9.606
43535SOL    HW132502   7.242  12.902   9.646
43535SOL    HW232503   7.231  12.751   9.659
43536SOL     OW32504   8.893   8.936  10.909
43536SOL    HW132505   8.934   8.990  10.977
43536SOL    HW232506   8.836   8.875  10.956
43537SOL     OW32507   4.496   8.617  14.631
43537SOL    HW132508   4.576   8.578  14.596
43537SOL    HW232509   4.503   8.606  14.726
43538SOL     OW32510   7.234  13.637   9.252
43538SOL    HW132511   7.168  13.663   9.189
43538SOL    HW232512   7.234  13.707   9.317
43539SOL     OW32513  14.167   4.805   7.023
43539SOL    HW132514  14.181   4.713   7.047
43539SOL    HW232515  14.114   4.840   7.094
43540SOL     OW32516  12.662   0.669   3.584
43540SOL    HW132517  12.578   0.704   3.615
43540SOL    HW232518  12.728   0.716   3.635
43541SOL     OW32519   2.959  12.952   3.426
43541SOL    HW132520   2.961  13.028   3.484
43541SOL    HW232521   2.867  12.924   3.428
43542SOL     OW32522   6.679  11.152   8.824
43542SOL    HW132523   6.662  11.190   8.738
43542SOL    HW232524   6.775  11.148   8.829
43543SOL     OW32525   1.737  14.621  13.685
43543SOL    HW132526   1.649  14.586  13.679
43543SOL    HW232527   1.765  14.601  13.774
43544SOL     OW32528  10.330  11.970   1.099
43544SOL    HW132529  10.319  12.065   1.105
43544SOL    HW232530  10.304  11.948   1.010
43545SOL     OW32531  10.111   2.376   1.057
43545SOL    HW132532  10.175   2.354   1.125
43545SOL    HW232533  10.140   2.461   1.024
43546SOL     OW32534  10.696  10.255  11.812
43546SOL    HW132535  10.614  10.216  11.841
43546SOL    HW232536  10.738  10.186  11.760
43547SOL     OW32537  12.410   6.531  11.188
43547SOL    HW132538  12.348   6.560  11.254
43547SOL    HW232539  12.438   6.444  11.217
43548SOL     OW32540   2.855   2.513  14.099
43548SOL    HW132541   2.789   2.537  14.035
43548SOL    HW232542   2.916   2.587  14.099
43549SOL     OW32543  10.536   6.017  11.795
43549SOL    HW132544  10.519   5.923  11.801
43549SOL    HW232545  10.624   6.027  11.831
43550SOL     OW32546   8.480  13.850   5.748
43550SOL    HW132547   8.419  13.776   5.756
43550SOL    HW232548   8.442  13.918   5.805
43551SOL     OW32549   5.957  11.120   5.352
43551SOL    HW132550   5.896  11.100   5.282
43551SOL    HW232551   5.932  11.061   5.423
43552SOL     OW32552  11.179   1.975   9.640
43552SOL    HW132553  11.110   1.985   9.705
43552SOL    HW232554  11.157   1.893   9.595
43553SOL     OW32555   2.898   7.112  12.494
43553SOL    HW132556   2.804   7.129  12.481
43553SOL    HW232557   2.933   7.196  12.523
43554SOL     OW32558  10.768   7.616   8.744
43554SOL    HW132559  10.715   7.546   8.780
43554SOL    HW232560  10.831   7.637   8.812
43555SOL     OW32561  13.022   7.603   5.731
43555SOL    HW132562  13.057   7.547   5.662
43555SOL    HW232563  13.085   7.675   5.738
43556SOL     OW32564   6.665   0.524   8.946
43556SOL    HW132565   6.649   0.616   8.967
43556SOL    HW232566   6.588   0.497   8.896
43557SOL     OW32567   0.791   1.294   8.894
43557SOL    HW132568   0.865   1.315   8.836
43557SOL    HW232569   0.716   1.340   8.855
43558SOL     OW32570  11.155   9.707  14.659
43558SOL    HW132571  11.237   9.708  14.609
43558SOL    HW232572  11.114   9.792  14.639
43559SOL     OW32573  13.336   6.194   0.553
43559SOL    HW132574  13.298   6.173   0.639
43559SOL    HW232575  13.270   6.251   0.512
43560SOL     OW32576   0.708   5.164   0.267
43560SOL    HW132577   0.669   5.151   0.181
43560SOL    HW232578   0.720   5.259   0.274
43561SOL     OW32579  11.047   2.207   6.415
43561SOL    HW132580  11.137   2.224   6.441
43561SOL    HW232581  10.995   2.240   6.488
43562SOL     OW32582  14.735   1.896   5.002
43562SOL    HW132583  14.688   1.817   4.976
43562SOL    HW232584  14.773   1.874   5.087
43563SOL     OW32585  11.331   4.941   3.545
43563SOL    HW132586  11.420   4.969   3.568
43563SOL    HW232587  11.276   4.976   3.615
43564SOL     OW32588   6.030   5.299   2.917
43564SOL    HW132589   6.047   5.306   3.011
43564SOL    HW232590   6.097   5.240   2.884
43565SOL     OW32591  10.451   2.321   5.989
43565SOL    HW132592  10.419   2.329   5.900
43565SOL    HW232593  10.429   2.405   6.030
43566SOL     OW32594   1.043   6.010   7.313
43566SOL    HW132595   0.987   5.957   7.255
43566SOL    HW232596   1.015   6.100   7.297
43567SOL     OW32597  10.662  12.508   4.812
43567SOL    HW132598  10.574  12.501   4.775
43567SOL    HW232599  10.715  12.545   4.741
43568SOL     OW32600  13.818  13.874   1.997
43568SOL    HW132601  13.770  13.828   2.066
43568SOL    HW232602  13.768  13.856   1.917
43569SOL     OW32603   7.234   1.561   2.918
43569SOL    HW132604   7.171   1.490   2.932
43569SOL    HW232605   7.180   1.639   2.907
43570SOL     OW32606  11.237   6.636   0.034
43570SOL    HW132607  11.330   6.625   0.054
43570SOL    HW232608  11.197   6.553   0.057
43571SOL     OW32609   1.080   6.916  13.472
43571SOL    HW132610   0.995   6.917  13.515
43571SOL    HW232611   1.060   6.926  13.379
43572SOL     OW32612  13.337   3.690   3.717
43572SOL    HW132613  13.367   3.606   3.752
43572SOL    HW232614  13.246   3.676   3.693
43573SOL     OW32615  14.220   3.442   5.886
43573SOL    HW132616  14.167   3.374   5.845
43573SOL    HW232617  14.252   3.401   5.967
43574SOL     OW32618  12.206  10.357   2.344
43574SOL    HW132619  12.248  10.277   2.375
43574SOL    HW232620  12.265  10.390   2.276
43575SOL     OW32621  11.791   0.514  14.294
43575SOL    HW132622  11.796   0.501  14.388
43575SOL    HW232623  11.813   0.428  14.257
43576SOL     OW32624   5.306   8.516   6.838
43576SOL    HW132625   5.252   8.460   6.783
43576SOL    HW232626   5.259   8.522   6.921
43577SOL     OW32627   0.790  10.771   2.203
43577SOL    HW132628   0.819  10.785   2.293
43577SOL    HW232629   0.832  10.689   2.177
43578SOL     OW32630   6.733   6.265   3.227
43578SOL    HW132631   6.656   6.299   3.181
43578SOL    HW232632   6.697   6.208   3.295
43579SOL     OW32633  10.917   5.347  13.904
43579SOL    HW132634  10.942   5.397  13.982
43579SOL    HW232635  10.997   5.343  13.852
43580SOL     OW32636   1.548  14.416   1.948
43580SOL    HW132637   1.594  14.367   2.016
43580SOL    HW232638   1.494  14.352   1.903
43581SOL     OW32639   2.731   9.688   8.545
43581SOL    HW132640   2.782   9.642   8.611
43581SOL    HW232641   2.704   9.619   8.484
43582SOL     OW32642  10.768   3.014   8.845
43582SOL    HW132643  10.696   2.985   8.901
43582SOL    HW232644  10.744   2.985   8.758
43583SOL     OW32645   8.065   5.080   6.453
43583SOL    HW132646   8.153   5.047   6.437
43583SOL    HW232647   8.006   5.010   6.425
43584SOL     OW32648   0.563   1.702   8.796
43584SOL    HW132649   0.493   1.753   8.838
43584SOL    HW232650   0.553   1.721   8.703
43585SOL     OW32651   1.230   4.517   5.477
43585SOL    HW132652   1.284   4.441   5.457
43585SOL    HW232653   1.228   4.521   5.573
43586SOL     OW32654   3.294  12.406   1.004
43586SOL    HW132655   3.248  12.357   1.072
43586SOL    HW232656   3.275  12.359   0.923
43587SOL     OW32657  10.418  12.489   1.394
43587SOL    HW132658  10.444  12.470   1.484
43587SOL    HW232659  10.495  12.530   1.355
43588SOL     OW32660   0.444  14.770   4.084
43588SOL    HW132661   0.369  14.829   4.075
43588SOL    HW232662   0.509  14.805   4.024
43589SOL     OW32663   3.432   7.845   6.168
43589SOL    HW132664   3.413   7.820   6.078
43589SOL    HW232665   3.501   7.911   6.161
43590SOL     OW32666   8.393   6.327  10.781
43590SOL    HW132667   8.338   6.342  10.857
43590SOL    HW232668   8.353   6.253  10.736
43591SOL     OW32669   4.713   3.105   0.450
43591SOL    HW132670   4.778   3.175   0.447
43591SOL    HW232671   4.728   3.062   0.534
43592SOL     OW32672   2.257   1.146   2.996
43592SOL    HW132673   2.297   1.068   3.035
43592SOL    HW232674   2.219   1.193   3.071
43593SOL     OW32675   7.729  14.801   2.297
43593SOL    HW132676   7.634  14.812   2.304
43593SOL    HW232677   7.741  14.712   2.264
43594SOL     OW32678  14.640   2.923   3.501
43594SOL    HW132679  14.549   2.948   3.516
43594SOL    HW232680  14.689   2.970   3.568
43595SOL     OW32681   6.786   4.856  12.009
43595SOL    HW132682   6.741   4.941  12.015
43595SOL    HW232683   6.839   4.852  12.088
43596SOL     OW32684  10.467   8.220  11.980
43596SOL    HW132685  10.517   8.139  11.974
43596SOL    HW232686  10.528   8.284  12.017
43597SOL     OW32687  14.366   4.058   7.278
43597SOL    HW132688  14.447   4.101   7.251
43597SOL    HW232689  14.368   3.973   7.234
43598SOL     OW32690   1.405  10.419   6.568
43598SOL    HW132691   1.484  10.420   6.514
43598SOL    HW232692   1.410  10.336   6.616
43599SOL     OW32693   1.189   5.452   7.802
43599SOL    HW132694   1.165   5.417   7.887
43599SOL    HW232695   1.208   5.545   7.818
43600SOL     OW32696  14.580  13.654   5.805
43600SOL    HW132697  14.630  13.734   5.823
43600SOL    HW232698  14.647  13.585   5.798
43601SOL     OW32699   2.654   8.066  12.322
43601SOL    HW132700   2.577   8.010  12.318
43601SOL    HW232701   2.627   8.139  12.379
43602SOL     OW32702   8.388  10.191   2.290
43602SOL    HW132703   8.359  10.209   2.379
43602SOL    HW232704   8.308  10.193   2.238
43603SOL     OW32705   8.010   3.981  13.824
43603SOL    HW132706   8.056   4.063  13.808
43603SOL    HW232707   8.039   3.954  13.911
43604SOL     OW32708   6.732   0.345  12.175
43604SOL    HW132709   6.761   0.434  12.153
43604SOL    HW232710   6.784   0.321  12.251
43605SOL     OW32711  10.871  13.533   7.001
43605SOL    HW132712  10.883  13.444   7.034
43605SOL    HW232713  10.787  13.562   7.038
43606SOL     OW32714  10.385   0.272  12.043
43606SOL    HW132715  10.399   0.288  11.949
43606SOL    HW232716  10.295   0.303  12.059
43607SOL     OW32717  10.480   5.981  11.518
43607SOL    HW132718  10.497   6.074  11.502
43607SOL    HW232719  10.474   5.973  11.613
43608SOL     OW32720  10.351   5.941   5.351
43608SOL    HW132721  10.380   5.901   5.269
43608SOL    HW232722  10.380   5.879   5.419
43609SOL     OW32723   8.205   4.266   3.032
43609SOL    HW132724   8.124   4.294   3.075
43609SOL    HW232725   8.273   4.277   3.099
43610SOL     OW32726  13.194   5.740   6.462
43610SOL    HW132727  13.112   5.783   6.439
43610SOL    HW232728  13.236   5.800   6.524
43611SOL     OW32729  14.454   0.374   3.214
43611SOL    HW132730  14.367   0.373   3.172
43611SOL    HW232731  14.435   0.383   3.307
43612SOL     OW32732   2.151   4.735   1.136
43612SOL    HW132733   2.065   4.771   1.156
43612SOL    HW232734   2.144   4.702   1.047
43613SOL     OW32735   4.659   9.215  11.015
43613SOL    HW132736   4.570   9.232  10.983
43613SOL    HW232737   4.660   9.122  11.035
43614SOL     OW32738  14.171  12.331  13.318
43614SOL    HW132739  14.209  12.351  13.403
43614SOL    HW232740  14.084  12.371  13.321
43615SOL     OW32741   3.122  11.356  11.722
43615SOL    HW132742   3.061  11.313  11.782
43615SOL    HW232743   3.182  11.287  11.695
43616SOL     OW32744   4.539   5.646   7.361
43616SOL    HW132745   4.485   5.701   7.418
43616SOL    HW232746   4.505   5.557   7.373
43617SOL     OW32747  14.441  13.513   2.579
43617SOL    HW132748  14.496  13.488   2.653
43617SOL    HW232749  14.356  13.472   2.598
43618SOL     OW32750   2.296   1.859   6.935
43618SOL    HW132751   2.280   1.952   6.917
43618SOL    HW232752   2.390   1.855   6.951
43619SOL     OW32753   2.157  12.134   2.872
43619SOL    HW132754   2.074  12.088   2.864
43619SOL    HW232755   2.175  12.167   2.784
43620SOL     OW32756  12.743  11.283  13.050
43620SOL    HW132757  12.801  11.268  13.125
43620SOL    HW232758  12.714  11.374  13.060
43621SOL     OW32759  12.525  12.668   5.498
43621SOL    HW132760  12.437  12.707   5.495
43621SOL    HW232761  12.566  12.709   5.573
43622SOL     OW32762   5.666   6.736   5.885
43622SOL    HW132763   5.589   6.734   5.941
43622SOL    HW232764   5.632   6.713   5.798
43623SOL     OW32765  12.501   5.187  14.136
43623SOL    HW132766  12.461   5.107  14.172
43623SOL    HW232767  12.428   5.247  14.124
43624SOL     OW32768  12.555   7.506   5.468
43624SOL    HW132769  12.623   7.552   5.517
43624SOL    HW232770  12.510   7.574   5.419
43625SOL     OW32771   9.629  14.862   2.792
43625SOL    HW132772   9.586  14.818   2.720
43625SOL    HW232773   9.629   0.085   2.767
43626SOL     OW32774   6.635  14.598  12.917
43626SOL    HW132775   6.662  14.587  12.826
43626SOL    HW232776   6.599  14.687  12.921
43627SOL     OW32777   3.330   7.684   3.471
43627SOL    HW132778   3.394   7.752   3.493
43627SOL    HW232779   3.373   7.602   3.494
43628SOL     OW32780  12.793   5.365   9.750
43628SOL    HW132781  12.802   5.310   9.672
43628SOL    HW232782  12.853   5.326   9.813
43629SOL     OW32783   5.367   7.479  12.294
43629SOL    HW132784   5.292   7.442  12.249
43629SOL    HW232785   5.413   7.529  12.227
43630SOL     OW32786   8.151   2.710   1.196
43630SOL    HW132787   8.124   2.773   1.262
43630SOL    HW232788   8.177   2.763   1.120
43631SOL     OW32789   2.503  14.016  12.002
43631SOL    HW132790   2.594  13.988  11.992
43631SOL    HW232791   2.508  14.090  12.063
43632SOL     OW32792   1.713   3.662   7.557
43632SOL    HW132793   1.806   3.676   7.579
43632SOL    HW232794   1.714   3.648   7.462
43633SOL     OW32795   9.524   4.743   0.602
43633SOL    HW132796   9.500   4.688   0.677
43633SOL    HW232797   9.617   4.726   0.589
43634SOL     OW32798   5.060  13.256  14.222
43634SOL    HW132799   5.064  13.352  14.225
43634SOL    HW232800   5.052  13.236  14.128
43635SOL     OW32801   0.076  13.294  12.222
43635SOL    HW132802   0.165  13.277  12.253
43635SOL    HW232803   0.049  13.212  12.180
43636SOL     OW32804   8.697   1.037  12.765
43636SOL    HW132805   8.626   0.976  12.742
43636SOL    HW232806   8.773   1.005  12.715
43637SOL     OW32807  12.158  11.996   7.435
43637SOL    HW132808  12.184  11.922   7.490
43637SOL    HW232809  12.241  12.035   7.407
43638SOL     OW32810   8.240   8.637   3.806
43638SOL    HW132811   8.202   8.639   3.718
43638SOL    HW232812   8.306   8.706   3.806
43639SOL     OW32813   7.551  14.196  13.055
43639SOL    HW132814   7.557  14.102  13.045
43639SOL    HW232815   7.582  14.213  13.144
43640SOL     OW32816   7.263  11.637   3.212
43640SOL    HW132817   7.329  11.605   3.150
43640SOL    HW232818   7.296  11.722   3.240
43641SOL     OW32819   4.538  11.158   9.059
43641SOL    HW132820   4.444  11.145   9.047
43641SOL    HW232821   4.577  11.074   9.036
43642SOL     OW32822   0.051  14.715  13.645
43642SOL    HW132823   0.075  14.626  13.672
43642SOL    HW232824  14.831  14.707  13.614
43643SOL     OW32825  13.603   5.981   7.384
43643SOL    HW132826  13.599   6.035   7.464
43643SOL    HW232827  13.634   6.041   7.316
43644SOL     OW32828   9.783  12.231   5.056
43644SOL    HW132829   9.863  12.276   5.083
43644SOL    HW232830   9.735  12.297   5.006
43645SOL     OW32831  13.352   4.610   4.472
43645SOL    HW132832  13.373   4.550   4.543
43645SOL    HW232833  13.261   4.637   4.488
43646SOL     OW32834   4.132   5.417   0.744
43646SOL    HW132835   4.055   5.388   0.794
43646SOL    HW232836   4.155   5.501   0.783
43647SOL     OW32837   4.620   5.930   4.520
43647SOL    HW132838   4.552   5.867   4.497
43647SOL    HW232839   4.648   5.967   4.437
43648SOL     OW32840   3.155   6.479   4.181
43648SOL    HW132841   3.172   6.387   4.162
43648SOL    HW232842   3.077   6.501   4.129
43649SOL     OW32843   1.882   9.048   9.529
43649SOL    HW132844   1.791   9.035   9.502
43649SOL    HW232845   1.906   8.966   9.573
43650SOL     OW32846  14.621  11.738  10.601
43650SOL    HW132847  14.572  11.686  10.538
43650SOL    HW232848  14.616  11.688  10.683
43651SOL     OW32849   5.732  11.801  13.062
43651SOL    HW132850   5.727  11.711  13.094
43651SOL    HW232851   5.642  11.826  13.043
43652SOL     OW32852  12.306   7.620   1.610
43652SOL    HW132853  12.215   7.595   1.596
43652SOL    HW232854  12.301   7.702   1.659
43653SOL     OW32855   3.288   8.360  10.870
43653SOL    HW132856   3.328   8.327  10.950
43653SOL    HW232857   3.229   8.430  10.899
43654SOL     OW32858   8.560   0.063   0.954
43654SOL    HW132859   8.499  14.862   0.932
43654SOL    HW232860   8.647   0.026   0.936
43655SOL     OW32861  10.754  11.494  12.613
43655SOL    HW132862  10.798  11.416  12.578
43655SOL    HW232863  10.761  11.485  12.708
43656SOL     OW32864  11.481  12.359   2.413
43656SOL    HW132865  11.510  12.345   2.503
43656SOL    HW232866  11.397  12.313   2.408
43657SOL     OW32867   3.653  12.851  12.207
43657SOL    HW132868   3.577  12.818  12.160
43657SOL    HW232869   3.617  12.896  12.284
43658SOL     OW32870   3.748   3.323  14.786
43658SOL    HW132871   3.779   3.280  14.866
43658SOL    HW232872   3.827   3.357  14.745
43659SOL     OW32873   6.416   7.299   4.973
43659SOL    HW132874   6.338   7.265   5.018
43659SOL    HW232875   6.480   7.228   4.979
43660SOL     OW32876   3.714  14.149   6.672
43660SOL    HW132877   3.653  14.195   6.614
43660SOL    HW232878   3.669  14.148   6.757
43661SOL     OW32879   2.799  12.859  10.215
43661SOL    HW132880   2.814  12.874  10.122
43661SOL    HW232881   2.857  12.787  10.238
43662SOL     OW32882   0.683   8.399  11.872
43662SOL    HW132883   0.648   8.486  11.892
43662SOL    HW232884   0.766   8.395  11.920
43663SOL     OW32885   6.652  14.012  12.060
43663SOL    HW132886   6.617  13.926  12.039
43663SOL    HW232887   6.720  14.027  11.994
43664SOL     OW32888   4.043   9.055   6.703
43664SOL    HW132889   4.086   8.972   6.682
43664SOL    HW232890   3.949   9.033   6.705
43665SOL     OW32891   8.959   2.677   5.070
43665SOL    HW132892   8.874   2.680   5.027
43665SOL    HW232893   9.020   2.649   5.002
43666SOL     OW32894  12.373   8.845  10.093
43666SOL    HW132895  12.324   8.764  10.079
43666SOL    HW232896  12.461   8.826  10.061
43667SOL     OW32897   7.957  12.326   5.356
43667SOL    HW132898   7.865  12.345   5.335
43667SOL    HW232899   7.993  12.409   5.386
43668SOL     OW32900  10.450   8.789   9.542
43668SOL    HW132901  10.518   8.793   9.609
43668SOL    HW232902  10.465   8.867   9.488
43669SOL     OW32903   4.829  12.778   3.658
43669SOL    HW132904   4.839  12.746   3.748
43669SOL    HW232905   4.869  12.865   3.660
43670SOL     OW32906  12.464  13.328   7.757
43670SOL    HW132907  12.403  13.311   7.685
43670SOL    HW232908  12.450  13.420   7.778
43671SOL     OW32909   4.631  13.692   6.071
43671SOL    HW132910   4.630  13.653   6.158
43671SOL    HW232911   4.724  13.705   6.051
43672SOL     OW32912  13.556  11.917   2.167
43672SOL    HW132913  13.596  12.003   2.157
43672SOL    HW232914  13.511  11.920   2.252
43673SOL     OW32915   2.765   1.153   3.149
43673SOL    HW132916   2.859   1.165   3.165
43673SOL    HW232917   2.751   1.059   3.158
43674SOL     OW32918   9.060   3.376   1.617
43674SOL    HW132919   9.028   3.287   1.629
43674SOL    HW232920   9.122   3.369   1.545
43675SOL     OW32921  10.180   4.378   5.881
43675SOL    HW132922  10.212   4.319   5.813
43675SOL    HW232923  10.255   4.436   5.899
43676SOL     OW32924  13.304  10.699  10.282
43676SOL    HW132925  13.368  10.657  10.339
43676SOL    HW232926  13.272  10.630  10.225
43677SOL     OW32927   3.720  12.450  10.176
43677SOL    HW132928   3.756  12.372  10.135
43677SOL    HW232929   3.635  12.462  10.135
43678SOL     OW32930   5.876   3.414   9.574
43678SOL    HW132931   5.863   3.439   9.665
43678SOL    HW232932   5.789   3.424   9.534
43679SOL     OW32933   2.331   6.177   7.317
43679SOL    HW132934   2.382   6.176   7.236
43679SOL    HW232935   2.269   6.249   7.305
43680SOL     OW32936  10.154   9.043   6.636
43680SOL    HW132937  10.110   8.972   6.588
43680SOL    HW232938  10.193   9.097   6.567
43681SOL     OW32939   2.427  10.673  12.844
43681SOL    HW132940   2.427  10.742  12.777
43681SOL    HW232941   2.520  10.650  12.854
43682SOL     OW32942   7.845  11.707   9.573
43682SOL    HW132943   7.882  11.726   9.486
43682SOL    HW232944   7.771  11.650   9.555
43683SOL     OW32945   3.267   2.669  11.537
43683SOL    HW132946   3.347   2.715  11.512
43683SOL    HW232947   3.286   2.634  11.624
43684SOL     OW32948  10.092   2.364  14.612
43684SOL    HW132949  10.044   2.314  14.546
43684SOL    HW232950  10.111   2.447  14.569
43685SOL     OW32951   0.963   9.971   0.961
43685SOL    HW132952   1.034   9.958   1.023
43685SOL    HW232953   0.989  10.048   0.910
43686SOL     OW32954  13.456   7.295   7.649
43686SOL    HW132955  13.515   7.336   7.712
43686SOL    HW232956  13.389   7.254   7.703
43687SOL     OW32957   8.701  14.562   4.814
43687SOL    HW132958   8.784  14.548   4.767
43687SOL    HW232959   8.699  14.493   4.879
43688SOL     OW32960  11.140   8.734   0.262
43688SOL    HW132961  11.189   8.656   0.285
43688SOL    HW232962  11.066   8.736   0.323
43689SOL     OW32963   9.859  10.111   6.482
43689SOL    HW132964   9.826  10.084   6.396
43689SOL    HW232965   9.819  10.196   6.498
43690SOL     OW32966   0.978   0.620  10.279
43690SOL    HW132967   0.894   0.576  10.265
43690SOL    HW232968   1.011   0.636  10.190
43691SOL     OW32969   2.656   0.957   0.120
43691SOL    HW132970   2.689   1.023   0.059
43691SOL    HW232971   2.561   0.960   0.108
43692SOL     OW32972   6.217   3.776   4.967
43692SOL    HW132973   6.275   3.796   5.041
43692SOL    HW232974   6.226   3.851   4.909
43693SOL     OW32975  10.580   0.046   7.382
43693SOL    HW132976  10.657   0.100   7.403
43693SOL    HW232977  10.549   0.015   7.467
43694SOL     OW32978   7.051  14.172   8.607
43694SOL    HW132979   7.066  14.081   8.633
43694SOL    HW232980   7.137  14.214   8.616
43695SOL     OW32981   4.483   6.571  14.115
43695SOL    HW132982   4.552   6.519  14.074
43695SOL    HW232983   4.530   6.638  14.165
43696SOL     OW32984   2.692  11.214   3.301
43696SOL    HW132985   2.691  11.172   3.387
43696SOL    HW232986   2.665  11.304   3.318
43697SOL     OW32987   7.247   1.047  10.673
43697SOL    HW132988   7.262   0.999  10.591
43697SOL    HW232989   7.322   1.023  10.728
43698SOL     OW32990  14.700   3.202  10.154
43698SOL    HW132991  14.765   3.136  10.128
43698SOL    HW232992  14.634   3.153  10.203
43699SOL     OW32993   1.993   9.715   5.848
43699SOL    HW132994   1.953   9.645   5.796
43699SOL    HW232995   2.031   9.774   5.783
43700SOL     OW32996  14.664   5.991   7.329
43700SOL    HW132997  14.698   5.959   7.245
43700SOL    HW232998  14.676   6.086   7.325
43701SOL     OW32999   7.993   3.324   5.571
43701SOL    HW133000   7.898   3.312   5.576
43701SOL    HW233001   8.005   3.419   5.574
43702SOL     OW33002   3.433   3.477   0.826
43702SOL    HW133003   3.496   3.413   0.792
43702SOL    HW233004   3.383   3.504   0.750
43703SOL     OW33005  14.564  14.187   6.884
43703SOL    HW133006  14.538  14.276   6.860
43703SOL    HW233007  14.503  14.130   6.837
43704SOL     OW33008   1.163   5.044  11.972
43704SOL    HW133009   1.157   5.045  11.876
43704SOL    HW233010   1.180   4.953  11.994
43705SOL     OW33011   4.107  12.203   3.891
43705SOL    HW133012   4.080  12.113   3.870
43705SOL    HW233013   4.045  12.232   3.958
43706SOL     OW33014   9.768   7.298   0.042
43706SOL    HW133015   9.700   7.248   0.088
43706SOL    HW233016   9.729   7.384   0.028
43707SOL     OW33017  12.052   1.338   9.329
43707SOL    HW133018  12.029   1.266   9.389
43707SOL    HW233019  12.039   1.417   9.381
43708SOL     OW33020   4.409  13.271  11.334
43708SOL    HW133021   4.344  13.341  11.325
43708SOL    HW233022   4.370  13.210  11.396
43709SOL     OW33023  11.614  14.238   0.094
43709SOL    HW133024  11.561  14.234   0.014
43709SOL    HW233025  11.622  14.331   0.113
43710SOL     OW33026   4.287   2.559  13.425
43710SOL    HW133027   4.226   2.489  13.447
43710SOL    HW233028   4.367   2.538  13.473
43711SOL     OW33029   3.946  13.052   2.119
43711SOL    HW133030   4.022  12.994   2.111
43711SOL    HW233031   3.897  13.039   2.037
43712SOL     OW33032   1.248   4.065   2.174
43712SOL    HW133033   1.303   4.121   2.229
43712SOL    HW233034   1.305   3.994   2.147
43713SOL     OW33035   3.079  11.611   7.939
43713SOL    HW133036   3.088  11.627   7.845
43713SOL    HW233037   3.133  11.678   7.980
43714SOL     OW33038   1.820  11.767   2.846
43714SOL    HW133039   1.733  11.728   2.842
43714SOL    HW233040   1.811  11.851   2.801
43715SOL     OW33041   8.105   5.046  14.749
43715SOL    HW133042   8.032   4.989  14.770
43715SOL    HW233043   8.076   5.095  14.672
43716SOL     OW33044   7.885   8.292   1.629
43716SOL    HW133045   7.813   8.232   1.647
43716SOL    HW233046   7.890   8.296   1.533
43717SOL     OW33047   2.130  10.654   2.066
43717SOL    HW133048   2.154  10.563   2.045
43717SOL    HW233049   2.209  10.704   2.047
43718SOL     OW33050  12.522   2.581   2.409
43718SOL    HW133051  12.449   2.621   2.361
43718SOL    HW233052  12.535   2.638   2.484
43719SOL     OW33053   7.630  13.196   9.970
43719SOL    HW133054   7.708  13.196   9.915
43719SOL    HW233055   7.646  13.128  10.035
43720SOL     OW33056   1.699   3.390   6.449
43720SOL    HW133057   1.739   3.457   6.504
43720SOL    HW233058   1.637   3.346   6.506
43721SOL     OW33059  10.899   3.191   3.302
43721SOL    HW133060  10.925   3.272   3.256
43721SOL    HW233061  10.853   3.222   3.380
43722SOL     OW33062  11.110   4.089   9.109
43722SOL    HW133063  11.166   4.165   9.092
43722SOL    HW233064  11.043   4.094   9.040
43723SOL     OW33065  11.563  10.074  14.280
43723SOL    HW133066  11.557  10.064  14.185
43723SOL    HW233067  11.613  10.154  14.293
43724SOL     OW33068   2.123  13.247   1.115
43724SOL    HW133069   2.210  13.261   1.077
43724SOL    HW233070   2.062  13.282   1.049
43725SOL     OW33071   1.919   4.032  11.668
43725SOL    HW133072   1.909   4.107  11.727
43725SOL    HW233073   1.830   4.010  11.642
43726SOL     OW33074   4.492   3.232   6.234
43726SOL    HW133075   4.544   3.168   6.185
43726SOL    HW233076   4.515   3.218   6.325
43727SOL     OW33077   4.149  10.293  13.813
43727SOL    HW133078   4.078  10.229  13.821
43727SOL    HW233079   4.177  10.286  13.722
43728SOL     OW33080   5.501   7.577  10.296
43728SOL    HW133081   5.533   7.663  10.322
43728SOL    HW233082   5.411   7.591  10.270
43729SOL     OW33083   9.978   2.875   0.655
43729SOL    HW133084  10.073   2.862   0.662
43729SOL    HW233085   9.968   2.961   0.615
43730SOL     OW33086  11.506  13.390   9.235
43730SOL    HW133087  11.413  13.372   9.230
43730SOL    HW233088  11.546  13.306   9.261
43731SOL     OW33089  10.825  11.276   7.366
43731SOL    HW133090  10.764  11.335   7.411
43731SOL    HW233091  10.889  11.334   7.325
43732SOL     OW33092   5.771   1.582   6.243
43732SOL    HW133093   5.789   1.523   6.170
43732SOL    HW233094   5.857   1.596   6.285
43733SOL     OW33095   9.015  12.762   4.886
43733SOL    HW133096   8.932  12.809   4.877
43733SOL    HW233097   9.008  12.715   4.968
43734SOL     OW33098   6.418   5.433   8.392
43734SOL    HW133099   6.485   5.373   8.359
43734SOL    HW233100   6.454   5.521   8.378
43735SOL     OW33101   0.259   3.865   3.205
43735SOL    HW133102   0.174   3.902   3.231
43735SOL    HW233103   0.297   3.931   3.148
43736SOL     OW33104  10.731   2.931  12.109
43736SOL    HW133105  10.769   3.010  12.148
43736SOL    HW233106  10.675   2.965  12.038
43737SOL     OW33107   1.943   9.502   2.673
43737SOL    HW133108   1.852   9.476   2.685
43737SOL    HW233109   1.992   9.419   2.675
43738SOL     OW33110   4.973   1.969   6.548
43738SOL    HW133111   4.958   2.052   6.503
43738SOL    HW233112   5.026   1.918   6.488
43739SOL     OW33113  14.147   9.021  12.619
43739SOL    HW133114  14.145   9.109  12.658
43739SOL    HW233115  14.121   9.035  12.528
43740SOL     OW33116   0.923   2.626   8.316
43740SOL    HW133117   0.836   2.601   8.345
43740SOL    HW233118   0.972   2.544   8.312
43741SOL     OW33119   5.510   7.708   5.899
43741SOL    HW133120   5.583   7.653   5.926
43741SOL    HW233121   5.432   7.656   5.917
43742SOL     OW33122  10.745  10.376  12.083
43742SOL    HW133123  10.756  10.358  11.990
43742SOL    HW233124  10.659  10.340  12.105
43743SOL     OW33125  12.634  12.472  10.768
43743SOL    HW133126  12.620  12.563  10.794
43743SOL    HW233127  12.640  12.474  10.673
43744SOL     OW33128   9.869   6.636   7.308
43744SOL    HW133129   9.895   6.652   7.217
43744SOL    HW233130   9.815   6.557   7.303
43745SOL     OW33131   7.295   4.586  14.600
43745SOL    HW133132   7.275   4.672  14.564
43745SOL    HW233133   7.260   4.588  14.689
43746SOL     OW33134   2.511   3.062   7.790
43746SOL    HW133135   2.516   3.154   7.764
43746SOL    HW233136   2.506   3.014   7.707
43747SOL     OW33137   7.778  12.911   3.843
43747SOL    HW133138   7.787  13.002   3.815
43747SOL    HW233139   7.865  12.872   3.828
43748SOL     OW33140  10.445  13.874  10.628
43748SOL    HW133141  10.494  13.854  10.708
43748SOL    HW233142  10.353  13.873  10.655
43749SOL     OW33143   9.315   1.594  14.399
43749SOL    HW133144   9.306   1.687  14.415
43749SOL    HW233145   9.248   1.573  14.335
43750SOL     OW33146   7.681   8.574  12.216
43750SOL    HW133147   7.594   8.613  12.230
43750SOL    HW233148   7.721   8.575  12.302
43751SOL     OW33149   2.431  13.640  10.853
43751SOL    HW133150   2.441  13.733  10.832
43751SOL    HW233151   2.502  13.621  10.915
43752SOL     OW33152   8.238   6.716  11.454
43752SOL    HW133153   8.184   6.651  11.410
43752SOL    HW233154   8.194   6.731  11.537
43753SOL     OW33155  11.942   6.515  12.689
43753SOL    HW133156  12.010   6.466  12.735
43753SOL    HW233157  11.897   6.450  12.635
43754SOL     OW33158   5.291   9.343  12.131
43754SOL    HW133159   5.368   9.311  12.085
43754SOL    HW233160   5.275   9.430  12.095
43755SOL     OW33161   1.390   1.098   0.975
43755SOL    HW133162   1.303   1.072   0.943
43755SOL    HW233163   1.449   1.077   0.903
43756SOL     OW33164   3.552  14.414   5.025
43756SOL    HW133165   3.591  14.347   5.080
43756SOL    HW233166   3.471  14.439   5.070
43757SOL     OW33167   1.000   7.833  14.325
43757SOL    HW133168   1.022   7.750  14.282
43757SOL    HW233169   1.003   7.813  14.418
43758SOL     OW33170   4.933   3.037   9.924
43758SOL    HW133171   5.013   3.088   9.941
43758SOL    HW233172   4.871   3.068   9.990
43759SOL     OW33173   3.024  13.948  12.952
43759SOL    HW133174   2.951  13.932  12.891
43759SOL    HW233175   3.102  13.928  12.901
43760SOL     OW33176   4.257  12.825  12.413
43760SOL    HW133177   4.293  12.743  12.378
43760SOL    HW233178   4.198  12.857  12.345
43761SOL     OW33179  10.353  13.701   5.419
43761SOL    HW133180  10.272  13.655   5.442
43761SOL    HW233181  10.344  13.787   5.461
43762SOL     OW33182   8.186  14.406   6.621
43762SOL    HW133183   8.159  14.314   6.623
43762SOL    HW233184   8.218  14.422   6.710
43763SOL     OW33185   2.589   1.295   7.555
43763SOL    HW133186   2.661   1.233   7.560
43763SOL    HW233187   2.549   1.292   7.642
43764SOL     OW33188   5.773   9.398  12.029
43764SOL    HW133189   5.805   9.486  12.009
43764SOL    HW233190   5.852   9.343  12.026
43765SOL     OW33191   7.656   8.433   6.908
43765SOL    HW133192   7.620   8.388   6.831
43765SOL    HW233193   7.693   8.362   6.961
43766SOL     OW33194   4.229  13.961   5.563
43766SOL    HW133195   4.262  14.032   5.508
43766SOL    HW233196   4.170  13.912   5.506
43767SOL     OW33197   8.331   8.988   1.578
43767SOL    HW133198   8.412   9.037   1.589
43767SOL    HW233199   8.284   9.000   1.661
43768SOL     OW33200   7.583  11.952  14.070
43768SOL    HW133201   7.505  11.969  14.018
43768SOL    HW233202   7.651  11.934  14.005
43769SOL     OW33203   3.245  11.244   6.326
43769SOL    HW133204   3.192  11.320   6.303
43769SOL    HW233205   3.225  11.179   6.259
43770SOL     OW33206   8.707   5.966  11.668
43770SOL    HW133207   8.696   6.031  11.738
43770SOL    HW233208   8.626   5.973  11.617
43771SOL     OW33209   7.623   1.961  10.748
43771SOL    HW133210   7.665   1.878  10.769
43771SOL    HW233211   7.530   1.946  10.765
43772SOL     OW33212   0.009   6.942   3.737
43772SOL    HW133213  14.851   6.925   3.647
43772SOL    HW233214   0.098   6.976   3.729
43773SOL     OW33215   8.399  10.762   0.341
43773SOL    HW133216   8.425  10.726   0.425
43773SOL    HW233217   8.457  10.837   0.328
43774SOL     OW33218   6.254   7.999   3.664
43774SOL    HW133219   6.268   7.932   3.597
43774SOL    HW233220   6.166   8.032   3.646
43775SOL     OW33221  11.516   5.639   2.002
43775SOL    HW133222  11.473   5.555   2.019
43775SOL    HW233223  11.560   5.660   2.083
43776SOL     OW33224   2.825   9.637   1.519
43776SOL    HW133225   2.886   9.600   1.455
43776SOL    HW233226   2.850   9.597   1.602
43777SOL     OW33227  14.755   8.975   3.610
43777SOL    HW133228  14.723   8.887   3.591
43777SOL    HW233229  14.784   9.009   3.525
43778SOL     OW33230   0.491   1.867   9.758
43778SOL    HW133231   0.555   1.927   9.795
43778SOL    HW233232   0.543   1.795   9.722
43779SOL     OW33233  12.920   1.913   6.456
43779SOL    HW133234  12.833   1.875   6.445
43779SOL    HW233235  12.910   1.976   6.527
43780SOL     OW33236  14.144   6.232  12.364
43780SOL    HW133237  14.208   6.210  12.296
43780SOL    HW233238  14.115   6.320  12.342
43781SOL     OW33239   5.187   0.785   4.596
43781SOL    HW133240   5.110   0.807   4.543
43781SOL    HW233241   5.249   0.749   4.532
43782SOL     OW33242   1.519  13.478   3.050
43782SOL    HW133243   1.548  13.517   3.132
43782SOL    HW233244   1.539  13.384   3.060
43783SOL     OW33245  12.474   9.715  12.365
43783SOL    HW133246  12.465   9.765  12.446
43783SOL    HW233247  12.544   9.653  12.383
43784SOL     OW33248   2.771   2.969   7.826
43784SOL    HW133249   2.707   3.025   7.782
43784SOL    HW233250   2.722   2.889   7.846
43785SOL     OW33251  14.450   0.925   7.471
43785SOL    HW133252  14.491   0.839   7.459
43785SOL    HW233253  14.379   0.910   7.532
43786SOL     OW33254   8.518  14.763  11.392
43786SOL    HW133255   8.556  14.677  11.374
43786SOL    HW233256   8.484  14.756  11.481
43787SOL     OW33257   6.594   2.540   5.352
43787SOL    HW133258   6.623   2.631   5.345
43787SOL    HW233259   6.662   2.489   5.309
43788SOL     OW33260   3.994   5.643   8.613
43788SOL    HW133261   3.937   5.672   8.684
43788SOL    HW233262   3.957   5.559   8.584
43789SOL     OW33263   5.146  13.470   8.201
43789SOL    HW133264   5.230  13.507   8.174
43789SOL    HW233265   5.091  13.546   8.219
43790SOL     OW33266  12.278   1.308   4.960
43790SOL    HW133267  12.238   1.363   5.027
43790SOL    HW233268  12.335   1.367   4.911
43791SOL     OW33269  12.243   2.907  14.598
43791SOL    HW133270  12.225   2.841  14.532
43791SOL    HW233271  12.170   2.902  14.659
43792SOL     OW33272   6.559  13.610  10.981
43792SOL    HW133273   6.646  13.590  11.014
43792SOL    HW233274   6.561  13.704  10.962
43793SOL     OW33275   3.248   6.920  11.958
43793SOL    HW133276   3.283   6.831  11.959
43793SOL    HW233277   3.154   6.908  11.975
43794SOL     OW33278   7.306   8.348  14.483
43794SOL    HW133279   7.268   8.260  14.489
43794SOL    HW233280   7.393   8.340  14.522
43795SOL     OW33281   5.045  12.792   1.935
43795SOL    HW133282   5.051  12.814   2.028
43795SOL    HW233283   5.069  12.872   1.889
43796SOL     OW33284  10.850   9.841   0.578
43796SOL    HW133285  10.761   9.824   0.548
43796SOL    HW233286  10.854   9.799   0.664
43797SOL     OW33287   7.163  10.750  13.542
43797SOL    HW133288   7.193  10.687  13.476
43797SOL    HW233289   7.089  10.794  13.500
43798SOL     OW33290   7.351   4.998  10.696
43798SOL    HW133291   7.318   5.079  10.735
43798SOL    HW233292   7.385   5.025  10.611
43799SOL     OW33293   3.431  10.634   8.974
43799SOL    HW133294   3.348  10.588   8.969
43799SOL    HW233295   3.409  10.721   9.009
43800SOL     OW33296   6.083   0.454   9.453
43800SOL    HW133297   6.019   0.442   9.523
43800SOL    HW233298   6.100   0.548   9.453
43801SOL     OW33299   9.899   4.276   8.203
43801SOL    HW133300   9.823   4.258   8.148
43801SOL    HW233301   9.953   4.335   8.151
43802SOL     OW33302   4.195  12.553   9.682
43802SOL    HW133303   4.238  12.615   9.742
43802SOL    HW233304   4.258  12.482   9.672
43803SOL     OW33305   5.355   5.511   1.419
43803SOL    HW133306   5.328   5.583   1.476
43803SOL    HW233307   5.328   5.538   1.331
43804SOL     OW33308  14.152   6.883   4.117
43804SOL    HW133309  14.217   6.847   4.057
43804SOL    HW233310  14.069   6.876   4.071
43805SOL     OW33311   7.456  11.953   0.101
43805SOL    HW133312   7.482  12.044   0.115
43805SOL    HW233313   7.379  11.959   0.044
43806SOL     OW33314  11.967  11.605  13.065
43806SOL    HW133315  11.943  11.653  12.985
43806SOL    HW233316  11.984  11.516  13.034
43807SOL     OW33317  14.145  11.233  11.122
43807SOL    HW133318  14.200  11.239  11.199
43807SOL    HW233319  14.179  11.301  11.063
43808SOL     OW33320   5.122   1.714   5.739
43808SOL    HW133321   5.070   1.684   5.813
43808SOL    HW233322   5.174   1.787   5.774
43809SOL     OW33323  11.338  11.921   3.141
43809SOL    HW133324  11.374  11.836   3.117
43809SOL    HW233325  11.369  11.980   3.073
43810SOL     OW33326   8.782   8.846   3.354
43810SOL    HW133327   8.692   8.874   3.337
43810SOL    HW233328   8.819   8.916   3.409
43811SOL     OW33329   9.545   3.022  11.592
43811SOL    HW133330   9.589   2.940  11.569
43811SOL    HW233331   9.581   3.086  11.531
43812SOL     OW33332   8.211   7.830  10.279
43812SOL    HW133333   8.295   7.791  10.254
43812SOL    HW233334   8.224   7.924  10.268
43813SOL     OW33335   4.404  13.952   1.233
43813SOL    HW133336   4.379  13.937   1.142
43813SOL    HW233337   4.371  13.875   1.280
43814SOL     OW33338   4.404   5.488  12.126
43814SOL    HW133339   4.458   5.425  12.078
43814SOL    HW233340   4.333   5.436  12.163
43815SOL     OW33341   2.084   7.967   5.705
43815SOL    HW133342   2.045   8.034   5.761
43815SOL    HW233343   2.176   7.963   5.733
43816SOL     OW33344  11.204   4.883   6.877
43816SOL    HW133345  11.216   4.795   6.912
43816SOL    HW233346  11.293   4.916   6.864
43817SOL     OW33347   7.692   9.539   1.343
43817SOL    HW133348   7.698   9.625   1.301
43817SOL    HW233349   7.777   9.527   1.384
43818SOL     OW33350   2.733  10.559  11.824
43818SOL    HW133351   2.747  10.653  11.835
43818SOL    HW233352   2.820  10.520  11.837
43819SOL     OW33353  11.820  14.748   9.590
43819SOL    HW133354  11.767  14.827   9.588
43819SOL    HW233355  11.782  14.691   9.523
43820SOL     OW33356   6.837  13.854   2.193
43820SOL    HW133357   6.869  13.777   2.146
43820SOL    HW233358   6.839  13.829   2.285
43821SOL     OW33359   1.367   2.913   2.923
43821SOL    HW133360   1.303   2.952   2.982
43821SOL    HW233361   1.346   2.948   2.837
43822SOL     OW33362   2.315   5.588   6.272
43822SOL    HW133363   2.302   5.656   6.338
43822SOL    HW233364   2.406   5.561   6.284
43823SOL     OW33365   1.985  11.611   1.539
43823SOL    HW133366   1.920  11.590   1.606
43823SOL    HW233367   1.945  11.681   1.487
43824SOL     OW33368  10.998   6.861  10.694
43824SOL    HW133369  10.988   6.791  10.629
43824SOL    HW233370  10.911   6.872  10.732
43825SOL     OW33371  13.604   7.746   0.589
43825SOL    HW133372  13.600   7.652   0.607
43825SOL    HW233373  13.613   7.752   0.494
43826SOL     OW33374  12.887  13.319   4.012
43826SOL    HW133375  12.981  13.324   4.029
43826SOL    HW233376  12.868  13.225   4.007
43827SOL     OW33377   7.451  11.336   8.313
43827SOL    HW133378   7.437  11.257   8.366
43827SOL    HW233379   7.371  11.387   8.324
43828SOL     OW33380   7.200   9.803  11.609
43828SOL    HW133381   7.257   9.850  11.548
43828SOL    HW233382   7.211   9.850  11.692
43829SOL     OW33383   5.720  13.006   0.992
43829SOL    HW133384   5.801  12.995   1.042
43829SOL    HW233385   5.744  13.062   0.919
43830SOL     OW33386   4.700  12.332   3.152
43830SOL    HW133387   4.763  12.279   3.202
43830SOL    HW233388   4.686  12.409   3.206
43831SOL     OW33389  12.519  10.941   8.709
43831SOL    HW133390  12.461  11.017   8.700
43831SOL    HW233391  12.607  10.978   8.717
43832SOL     OW33392  11.523   8.377   3.264
43832SOL    HW133393  11.527   8.441   3.335
43832SOL    HW233394  11.449   8.321   3.286
43833SOL     OW33395   0.942   6.718  11.179
43833SOL    HW133396   0.878   6.755  11.118
43833SOL    HW233397   0.943   6.624  11.158
43834SOL     OW33398  11.783  10.973   3.581
43834SOL    HW133399  11.778  10.882   3.610
43834SOL    HW233400  11.714  11.017   3.631
43835SOL     OW33401   9.904  14.151   3.858
43835SOL    HW133402   9.842  14.203   3.807
43835SOL    HW233403   9.944  14.092   3.794
43836SOL     OW33404   1.097  12.729   9.032
43836SOL    HW133405   1.013  12.692   9.060
43836SOL    HW233406   1.098  12.716   8.937
43837SOL     OW33407  13.825   2.458   2.078
43837SOL    HW133408  13.847   2.383   2.133
43837SOL    HW233409  13.850   2.535   2.129
43838SOL     OW33410   4.826   5.831   7.005
43838SOL    HW133411   4.832   5.843   6.910
43838SOL    HW233412   4.864   5.911   7.042
43839SOL     OW33413   6.257   2.540   1.783
43839SOL    HW133414   6.235   2.464   1.836
43839SOL    HW233415   6.180   2.597   1.787
43840SOL     OW33416   4.812  12.369  14.744
43840SOL    HW133417   4.782  12.283  14.772
43840SOL    HW233418   4.906  12.368  14.760
43841SOL     OW33419   6.133   3.027  13.894
43841SOL    HW133420   6.093   2.961  13.837
43841SOL    HW233421   6.091   3.014  13.979
43842SOL     OW33422   5.160  14.695   6.537
43842SOL    HW133423   5.081  14.733   6.576
43842SOL    HW233424   5.166  14.608   6.576
43843SOL     OW33425   7.788   0.773   5.095
43843SOL    HW133426   7.867   0.811   5.135
43843SOL    HW233427   7.717   0.828   5.126
43844SOL     OW33428   9.162   8.972   1.963
43844SOL    HW133429   9.187   9.064   1.951
43844SOL    HW233430   9.081   8.963   1.913
43845SOL     OW33431   5.770  14.126   3.443
43845SOL    HW133432   5.795  14.034   3.444
43845SOL    HW233433   5.736  14.142   3.531
43846SOL     OW33434   4.341   1.910   2.357
43846SOL    HW133435   4.384   1.974   2.300
43846SOL    HW233436   4.361   1.939   2.446
43847SOL     OW33437   9.672   7.346  13.734
43847SOL    HW133438   9.764   7.365  13.752
43847SOL    HW233439   9.674   7.265  13.683
43848SOL     OW33440   3.413   6.478   5.764
43848SOL    HW133441   3.338   6.504   5.710
43848SOL    HW233442   3.388   6.501   5.853
43849SOL     OW33443   4.361  11.693   6.209
43849SOL    HW133444   4.271  11.680   6.177
43849SOL    HW233445   4.373  11.623   6.274
43850SOL     OW33446  13.616   2.505   3.839
43850SOL    HW133447  13.546   2.454   3.881
43850SOL    HW233448  13.574   2.544   3.762
43851SOL     OW33449   6.642  12.183  11.773
43851SOL    HW133450   6.593  12.151  11.697
43851SOL    HW233451   6.685  12.105  11.808
43852SOL     OW33452   6.826   0.355   9.143
43852SOL    HW133453   6.843   0.433   9.196
43852SOL    HW233454   6.756   0.382   9.083
43853SOL     OW33455   2.153   7.820   3.648
43853SOL    HW133456   2.203   7.839   3.727
43853SOL    HW233457   2.160   7.899   3.595
43854SOL     OW33458   9.157   7.233  10.713
43854SOL    HW133459   9.159   7.162  10.777
43854SOL    HW233460   9.139   7.190  10.629
43855SOL     OW33461   8.907  10.976  11.989
43855SOL    HW133462   8.981  10.997  12.047
43855SOL    HW233463   8.831  11.012  12.034
43856SOL     OW33464  14.314  12.716   8.743
43856SOL    HW133465  14.382  12.761   8.692
43856SOL    HW233466  14.254  12.681   8.677
43857SOL     OW33467  10.739  10.174   0.111
43857SOL    HW133468  10.830  10.172   0.082
43857SOL    HW233469  10.708  10.261   0.088
43858SOL     OW33470  12.661   6.945  13.181
43858SOL    HW133471  12.614   6.917  13.103
43858SOL    HW233472  12.738   6.887  13.185
43859SOL     OW33473   4.037   0.724  14.613
43859SOL    HW133474   3.967   0.769  14.661
43859SOL    HW233475   3.992   0.654  14.565
43860SOL     OW33476   3.438  13.908   4.777
43860SOL    HW133477   3.524  13.883   4.812
43860SOL    HW233478   3.383  13.832   4.795
43861SOL     OW33479  11.291   6.961   3.389
43861SOL    HW133480  11.384   6.952   3.368
43861SOL    HW233481  11.246   6.945   3.306
43862SOL     OW33482   8.734  11.081   2.579
43862SOL    HW133483   8.675  11.106   2.508
43862SOL    HW233484   8.766  11.163   2.615
43863SOL     OW33485   4.639   1.581  13.402
43863SOL    HW133486   4.555   1.627  13.391
43863SOL    HW233487   4.644   1.522  13.328
43864SOL     OW33488   7.495  12.833   4.613
43864SOL    HW133489   7.539  12.905   4.657
43864SOL    HW233490   7.473  12.867   4.527
43865SOL     OW33491  13.467   6.395   8.604
43865SOL    HW133492  13.463   6.377   8.510
43865SOL    HW233493  13.484   6.310   8.644
43866SOL     OW33494   5.410  14.592  11.560
43866SOL    HW133495   5.469  14.628  11.626
43866SOL    HW233496   5.421  14.498  11.566
43867SOL     OW33497   7.965  14.799   0.364
43867SOL    HW133498   8.017  14.793   0.444
43867SOL    HW233499   8.003  14.735   0.305
43868SOL     OW33500  10.651   9.886   1.064
43868SOL    HW133501  10.646   9.981   1.073
43868SOL    HW233502  10.658   9.854   1.154
43869SOL     OW33503   4.526   2.241   1.978
43869SOL    HW133504   4.436   2.210   1.982
43869SOL    HW233505   4.578   2.162   1.967
43870SOL     OW33506   2.902  12.132  11.618
43870SOL    HW133507   2.869  12.193  11.683
43870SOL    HW233508   2.853  12.051  11.633
43871SOL     OW33509  13.299   8.297   0.429
43871SOL    HW133510  13.318   8.208   0.460
43871SOL    HW233511  13.219   8.288   0.377
43872SOL     OW33512   5.718   2.682   5.453
43872SOL    HW133513   5.686   2.771   5.467
43872SOL    HW233514   5.639   2.628   5.446
43873SOL     OW33515   1.398   9.797   8.434
43873SOL    HW133516   1.328   9.733   8.445
43873SOL    HW233517   1.406   9.838   8.521
43874SOL     OW33518   7.722  10.153   9.552
43874SOL    HW133519   7.658  10.107   9.497
43874SOL    HW233520   7.688  10.242   9.558
43875SOL     OW33521   7.348   9.821   1.809
43875SOL    HW133522   7.366   9.902   1.857
43875SOL    HW233523   7.433   9.792   1.777
43876SOL     OW33524  10.056  12.082   4.868
43876SOL    HW133525   9.984  12.133   4.832
43876SOL    HW233526  10.074  12.123   4.953
43877SOL     OW33527   9.562   7.784   9.581
43877SOL    HW133528   9.593   7.848   9.645
43877SOL    HW233529   9.631   7.718   9.576
43878SOL     OW33530   8.008   0.196   2.633
43878SOL    HW133531   8.018   0.281   2.676
43878SOL    HW233532   8.096   0.173   2.602
43879SOL     OW33533   7.278   9.094   4.450
43879SOL    HW133534   7.372   9.083   4.443
43879SOL    HW233535   7.242   9.007   4.431
43880SOL     OW33536  10.305  13.887   6.138
43880SOL    HW133537  10.213  13.876   6.116
43880SOL    HW233538  10.311  13.975   6.174
43881SOL     OW33539   6.884   3.771   6.943
43881SOL    HW133540   6.861   3.775   6.850
43881SOL    HW233541   6.811   3.725   6.984
43882SOL     OW33542  10.513   6.443   3.470
43882SOL    HW133543  10.501   6.525   3.517
43882SOL    HW233544  10.429   6.399   3.477
43883SOL     OW33545  10.949   7.789   6.391
43883SOL    HW133546  10.855   7.791   6.377
43883SOL    HW233547  10.960   7.793   6.486
43884SOL     OW33548  12.331   3.649   9.723
43884SOL    HW133549  12.387   3.654   9.646
43884SOL    HW233550  12.365   3.716   9.783
43885SOL     OW33551   8.643   6.728   6.676
43885SOL    HW133552   8.616   6.648   6.720
43885SOL    HW233553   8.598   6.725   6.591
43886SOL     OW33554  14.129   8.286  11.553
43886SOL    HW133555  14.056   8.272  11.493
43886SOL    HW233556  14.094   8.340  11.623
43887SOL     OW33557   1.474   4.482   3.114
43887SOL    HW133558   1.542   4.548   3.105
43887SOL    HW233559   1.510   4.404   3.071
43888SOL     OW33560   7.766   8.431  12.814
43888SOL    HW133561   7.859   8.443  12.834
43888SOL    HW233562   7.729   8.519  12.821
43889SOL     OW33563  11.013   3.923   8.055
43889SOL    HW133564  11.097   3.962   8.079
43889SOL    HW233565  10.961   3.929   8.134
43890SOL     OW33566   3.300   7.246   4.514
43890SOL    HW133567   3.288   7.152   4.525
43890SOL    HW233568   3.290   7.260   4.420
43891SOL     OW33569   6.634   7.517  12.025
43891SOL    HW133570   6.663   7.492  11.938
43891SOL    HW233571   6.609   7.609  12.017
43892SOL     OW33572  12.682   2.744   4.734
43892SOL    HW133573  12.621   2.671   4.748
43892SOL    HW233574  12.742   2.738   4.808
43893SOL     OW33575   8.060   4.967   9.363
43893SOL    HW133576   8.051   4.874   9.385
43893SOL    HW233577   7.980   4.988   9.316
43894SOL     OW33578  13.994   5.671  10.989
43894SOL    HW133579  14.069   5.697  10.936
43894SOL    HW233580  13.952   5.753  11.013
43895SOL     OW33581  14.028   9.037  11.904
43895SOL    HW133582  14.122   9.039  11.884
43895SOL    HW233583  13.985   9.047  11.818
43896SOL     OW33584  14.356  11.129   2.763
43896SOL    HW133585  14.396  11.203   2.808
43896SOL    HW233586  14.339  11.065   2.833
43897SOL     OW33587   3.379  11.105   4.929
43897SOL    HW133588   3.295  11.148   4.918
43897SOL    HW233589   3.361  11.013   4.913
43898SOL     OW33590   6.651   5.254  12.309
43898SOL    HW133591   6.680   5.261  12.400
43898SOL    HW233592   6.593   5.329  12.295
43899SOL     OW33593  11.997   7.639  11.499
43899SOL    HW133594  11.946   7.604  11.573
43899SOL    HW233595  11.976   7.581  11.426
43900SOL     OW33596   7.216   8.450   9.797
43900SOL    HW133597   7.212   8.545   9.787
43900SOL    HW233598   7.274   8.435   9.872
43901SOL     OW33599  11.019   6.421  10.277
43901SOL    HW133600  11.025   6.360  10.351
43901SOL    HW233601  10.929   6.452  10.279
43902SOL     OW33602   6.725   0.093  10.898
43902SOL    HW133603   6.801   0.063  10.947
43902SOL    HW233604   6.688   0.164  10.951
43903SOL     OW33605   1.374   7.863   2.812
43903SOL    HW133606   1.430   7.897   2.882
43903SOL    HW233607   1.359   7.939   2.755
43904SOL     OW33608   1.208   4.121   5.906
43904SOL    HW133609   1.129   4.175   5.910
43904SOL    HW233610   1.279   4.180   5.934
43905SOL     OW33611   0.771  12.042   5.526
43905SOL    HW133612   0.710  12.075   5.593
43905SOL    HW233613   0.824  12.118   5.503
43906SOL     OW33614   3.810  13.648  13.342
43906SOL    HW133615   3.810  13.738  13.310
43906SOL    HW233616   3.821  13.656  13.437
43907SOL     OW33617  10.768  13.326  13.241
43907SOL    HW133618  10.690  13.352  13.289
43907SOL    HW233619  10.775  13.231  13.257
43908SOL     OW33620  10.097   5.392   0.238
43908SOL    HW133621  10.033   5.320   0.244
43908SOL    HW233622  10.104   5.408   0.144
43909SOL     OW33623  14.278   6.809  10.918
43909SOL    HW133624  14.352   6.795  10.977
43909SOL    HW233625  14.239   6.892  10.947
43910SOL     OW33626   4.608   6.219   6.324
43910SOL    HW133627   4.643   6.163   6.393
43910SOL    HW233628   4.513   6.213   6.334
43911SOL     OW33629   0.091   9.249  13.550
43911SOL    HW133630   0.066   9.262  13.641
43911SOL    HW233631   0.025   9.298  13.500
43912SOL     OW33632   9.211  10.555   2.281
43912SOL    HW133633   9.177  10.628   2.333
43912SOL    HW233634   9.172  10.566   2.195
43913SOL     OW33635   9.355  12.605   9.322
43913SOL    HW133636   9.340  12.511   9.331
43913SOL    HW233637   9.277  12.646   9.359
43914SOL     OW33638  11.603  12.168  11.977
43914SOL    HW133639  11.614  12.073  11.985
43914SOL    HW233640  11.621  12.202  12.065
43915SOL     OW33641   6.129   8.997  14.036
43915SOL    HW133642   6.213   9.039  14.053
43915SOL    HW233643   6.081   9.061  13.982
43916SOL     OW33644   3.637  11.579  11.848
43916SOL    HW133645   3.678  11.508  11.799
43916SOL    HW233646   3.696  11.595  11.922
43917SOL     OW33647   3.945   5.327   0.947
43917SOL    HW133648   3.992   5.351   1.026
43917SOL    HW233649   3.890   5.253   0.973
43918SOL     OW33650   4.356   7.778   7.276
43918SOL    HW133651   4.337   7.834   7.201
43918SOL    HW233652   4.367   7.691   7.238
43919SOL     OW33653  13.054  14.827  10.191
43919SOL    HW133654  13.001  14.759  10.232
43919SOL    HW233655  12.990   0.015  10.148
43920SOL     OW33656   8.206   7.959  10.713
43920SOL    HW133657   8.135   7.921  10.765
43920SOL    HW233658   8.165   8.033  10.667
43921SOL     OW33659  10.500  10.471  12.219
43921SOL    HW133660  10.515  10.466  12.314
43921SOL    HW233661  10.541  10.554  12.193
43922SOL     OW33662   7.680  10.014  12.653
43922SOL    HW133663   7.734  10.030  12.731
43922SOL    HW233664   7.705   9.926  12.624
43923SOL     OW33665  13.393   3.458  10.930
43923SOL    HW133666  13.437   3.543  10.930
43923SOL    HW233667  13.464   3.395  10.937
43924SOL     OW33668   0.368   5.028  14.153
43924SOL    HW133669   0.419   5.106  14.178
43924SOL    HW233670   0.277   5.057  14.155
43925SOL     OW33671   7.500  10.879   2.590
43925SOL    HW133672   7.471  10.952   2.536
43925SOL    HW233673   7.577  10.912   2.636
43926SOL     OW33674   2.493   1.943   2.076
43926SOL    HW133675   2.438   1.870   2.047
43926SOL    HW233676   2.434   2.018   2.079
43927SOL     OW33677   9.710   6.719  11.405
43927SOL    HW133678   9.653   6.685  11.336
43927SOL    HW233679   9.794   6.674  11.392
43928SOL     OW33680  13.529   8.672   2.498
43928SOL    HW133681  13.443   8.713   2.500
43928SOL    HW233682  13.547   8.659   2.405
43929SOL     OW33683  14.177  12.905  13.743
43929SOL    HW133684  14.137  12.990  13.761
43929SOL    HW233685  14.104  12.851  13.711
43930SOL     OW33686   7.144  11.060  11.204
43930SOL    HW133687   7.127  10.973  11.241
43930SOL    HW233688   7.073  11.073  11.142
43931SOL     OW33689   7.095   3.804   0.256
43931SOL    HW133690   7.176   3.855   0.259
43931SOL    HW233691   7.027   3.866   0.282
43932SOL     OW33692   8.634   4.324  13.380
43932SOL    HW133693   8.723   4.335  13.344
43932SOL    HW233694   8.576   4.348  13.308
43933SOL     OW33695  12.440   3.110   3.441
43933SOL    HW133696  12.497   3.034   3.428
43933SOL    HW233697  12.377   3.105   3.370
43934SOL     OW33698  12.439   9.287   8.307
43934SOL    HW133699  12.371   9.281   8.375
43934SOL    HW233700  12.423   9.372   8.266
43935SOL     OW33701   3.378  14.426  11.477
43935SOL    HW133702   3.322  14.383  11.413
43935SOL    HW233703   3.410  14.355  11.532
43936SOL     OW33704  14.725  10.584  11.574
43936SOL    HW133705  14.777  10.526  11.631
43936SOL    HW233706  14.786  10.654  11.549
43937SOL     OW33707   6.835  10.274   5.995
43937SOL    HW133708   6.912  10.224   6.022
43937SOL    HW233709   6.781  10.279   6.074
43938SOL     OW33710   1.750   5.090   2.397
43938SOL    HW133711   1.740   5.177   2.360
43938SOL    HW233712   1.822   5.098   2.459
43939SOL     OW33713   4.286  11.255   8.445
43939SOL    HW133714   4.370  11.291   8.472
43939SOL    HW233715   4.250  11.320   8.384
43940SOL     OW33716  12.554   9.702  14.151
43940SOL    HW133717  12.567   9.736  14.239
43940SOL    HW233718  12.607   9.622  14.148
43941SOL     OW33719   5.998   5.372  13.186
43941SOL    HW133720   5.993   5.452  13.239
43941SOL    HW233721   6.050   5.398  13.110
43942SOL     OW33722  11.010  11.032  10.363
43942SOL    HW133723  11.007  11.125  10.386
43942SOL    HW233724  10.938  11.020  10.302
43943SOL     OW33725  12.869  14.334  12.790
43943SOL    HW133726  12.921  14.353  12.868
43943SOL    HW233727  12.779  14.334  12.821
43944SOL     OW33728   1.576  13.772  14.763
43944SOL    HW133729   1.503  13.833  14.750
43944SOL    HW233730   1.599  13.744  14.675
43945SOL     OW33731   5.381   0.219  10.162
43945SOL    HW133732   5.362   0.309  10.134
43945SOL    HW233733   5.402   0.172  10.082
43946SOL     OW33734  12.015   9.849   6.270
43946SOL    HW133735  11.972   9.770   6.235
43946SOL    HW233736  12.061   9.818   6.348
43947SOL     OW33737   3.168   3.003  10.915
43947SOL    HW133738   3.096   3.007  10.852
43947SOL    HW233739   3.136   2.944  10.983
43948SOL     OW33740   8.337   8.885  12.186
43948SOL    HW133741   8.360   8.805  12.138
43948SOL    HW233742   8.397   8.885  12.261
43949SOL     OW33743   6.179   0.209  12.248
43949SOL    HW133744   6.189   0.292  12.202
43949SOL    HW233745   6.174   0.234  12.341
43950SOL     OW33746  13.738   9.773   6.667
43950SOL    HW133747  13.668   9.837   6.684
43950SOL    HW233748  13.701   9.716   6.600
43951SOL     OW33749   6.693  13.138   5.081
43951SOL    HW133750   6.602  13.109   5.092
43951SOL    HW233751   6.688  13.233   5.078
43952SOL     OW33752   4.084   9.378   7.197
43952SOL    HW133753   4.130   9.392   7.115
43952SOL    HW233754   4.016   9.314   7.176
43953SOL     OW33755   0.278   6.762   0.320
43953SOL    HW133756   0.198   6.718   0.347
43953SOL    HW233757   0.291   6.831   0.385
43954SOL     OW33758  11.424   2.382  14.170
43954SOL    HW133759  11.476   2.420  14.100
43954SOL    HW233760  11.483   2.380  14.245
43955SOL     OW33761   4.236   6.456  11.976
43955SOL    HW133762   4.291   6.430  11.902
43955SOL    HW233763   4.165   6.392  11.977
43956SOL     OW33764  13.145   7.699   8.327
43956SOL    HW133765  13.067   7.747   8.354
43956SOL    HW233766  13.112   7.617   8.290
43957SOL     OW33767   6.606   7.824   3.695
43957SOL    HW133768   6.685   7.835   3.643
43957SOL    HW233769   6.614   7.737   3.734
43958SOL     OW33770   5.187   0.089   8.876
43958SOL    HW133771   5.145   0.165   8.917
43958SOL    HW233772   5.277   0.116   8.861
43959SOL     OW33773  11.550   5.771   4.056
43959SOL    HW133774  11.496   5.744   4.131
43959SOL    HW233775  11.488   5.778   3.984
43960SOL     OW33776  12.208   2.036   7.643
43960SOL    HW133777  12.260   2.112   7.670
43960SOL    HW233778  12.254   2.000   7.568
43961SOL     OW33779  14.027   0.506   8.791
43961SOL    HW133780  13.933   0.502   8.771
43961SOL    HW233781  14.066   0.544   8.712
43962SOL     OW33782   1.541  12.334   2.292
43962SOL    HW133783   1.470  12.376   2.340
43962SOL    HW233784   1.608  12.316   2.358
43963SOL     OW33785  12.548   8.316  13.899
43963SOL    HW133786  12.517   8.299  13.988
43963SOL    HW233787  12.493   8.261  13.843
43964SOL     OW33788   4.181  14.003   2.876
43964SOL    HW133789   4.089  13.992   2.852
43964SOL    HW233790   4.230  13.971   2.800
43965SOL     OW33791  10.516   4.595  12.539
43965SOL    HW133792  10.468   4.562  12.615
43965SOL    HW233793  10.573   4.664  12.575
43966SOL     OW33794  13.786   4.126   2.622
43966SOL    HW133795  13.721   4.182   2.665
43966SOL    HW233796  13.864   4.182   2.613
43967SOL     OW33797   5.132   7.078  10.762
43967SOL    HW133798   5.117   6.984  10.753
43967SOL    HW233799   5.226   7.089  10.746
43968SOL     OW33800   8.409   2.194   1.040
43968SOL    HW133801   8.413   2.115   0.987
43968SOL    HW233802   8.500   2.225   1.043
43969SOL     OW33803  11.041   9.210  14.645
43969SOL    HW133804  11.117   9.184  14.593
43969SOL    HW233805  11.050   9.305  14.655
43970SOL     OW33806  14.176   6.790   8.636
43970SOL    HW133807  14.112   6.860   8.625
43970SOL    HW233808  14.258   6.827   8.605
43971SOL     OW33809   7.296  10.020  13.630
43971SOL    HW133810   7.270   9.932  13.657
43971SOL    HW233811   7.229  10.077  13.668
43972SOL     OW33812   3.955   3.888   2.977
43972SOL    HW133813   3.897   3.815   2.956
43972SOL    HW233814   4.016   3.852   3.041
43973SOL     OW33815   0.965  14.428  13.613
43973SOL    HW133816   1.047  14.467  13.585
43973SOL    HW233817   0.935  14.483  13.685
43974SOL     OW33818   3.242   1.804   1.053
43974SOL    HW133819   3.264   1.716   1.024
43974SOL    HW233820   3.315   1.858   1.023
43975SOL     OW33821  10.682   5.037   7.771
43975SOL    HW133822  10.696   5.061   7.679
43975SOL    HW233823  10.587   5.038   7.782
43976SOL     OW33824  13.320   7.390  11.467
43976SOL    HW133825  13.394   7.358  11.519
43976SOL    HW233826  13.315   7.483  11.488
43977SOL     OW33827   7.284   4.752   4.171
43977SOL    HW133828   7.262   4.812   4.100
43977SOL    HW233829   7.201   4.737   4.217
43978SOL     OW33830  12.065   5.071  14.029
43978SOL    HW133831  12.074   5.127  14.106
43978SOL    HW233832  12.023   4.991  14.062
43979SOL     OW33833   5.491   7.151  12.649
43979SOL    HW133834   5.425   7.191  12.706
43979SOL    HW233835   5.450   7.148  12.562
43980SOL     OW33836   2.615   7.917  10.690
43980SOL    HW133837   2.627   7.885  10.779
43980SOL    HW233838   2.560   7.851  10.648
43981SOL     OW33839   8.083   9.308  10.361
43981SOL    HW133840   8.025   9.325  10.435
43981SOL    HW233841   8.160   9.266  10.400
43982SOL     OW33842   1.205   2.657  11.730
43982SOL    HW133843   1.233   2.722  11.665
43982SOL    HW233844   1.195   2.707  11.811
43983SOL     OW33845  13.950  12.719   9.187
43983SOL    HW133846  14.005  12.790   9.218
43983SOL    HW233847  14.000  12.640   9.204
43984SOL     OW33848   2.595   4.593  14.189
43984SOL    HW133849   2.539   4.549  14.253
43984SOL    HW233850   2.640   4.521  14.143
43985SOL     OW33851   3.314   2.965   3.030
43985SOL    HW133852   3.267   2.883   3.016
43985SOL    HW233853   3.341   2.992   2.942
43986SOL     OW33854   5.575   4.795   3.410
43986SOL    HW133855   5.628   4.832   3.481
43986SOL    HW233856   5.640   4.762   3.347
43987SOL     OW33857   1.299   2.821   6.745
43987SOL    HW133858   1.357   2.797   6.817
43987SOL    HW233859   1.219   2.851   6.788
43988SOL     OW33860  14.694  13.293   4.766
43988SOL    HW133861  14.732  13.206   4.757
43988SOL    HW233862  14.702  13.314   4.858
43989SOL     OW33863   7.658  11.872   3.965
43989SOL    HW133864   7.655  11.821   4.046
43989SOL    HW233865   7.581  11.845   3.916
43990SOL     OW33866   6.099   0.326  14.015
43990SOL    HW133867   6.170   0.266  14.037
43990SOL    HW233868   6.143   0.410  14.002
43991SOL     OW33869   7.115  14.205   2.830
43991SOL    HW133870   7.066  14.138   2.784
43991SOL    HW233871   7.072  14.212   2.916
43992SOL     OW33872   7.761   5.131  11.581
43992SOL    HW133873   7.677   5.175  11.595
43992SOL    HW233874   7.776   5.082  11.662
43993SOL     OW33875   0.870  12.227  11.409
43993SOL    HW133876   0.817  12.281  11.467
43993SOL    HW233877   0.826  12.142  11.408
43994SOL     OW33878   3.423  10.223   2.253
43994SOL    HW133879   3.353  10.245   2.191
43994SOL    HW233880   3.474  10.303   2.261
43995SOL     OW33881  13.146   8.534   3.948
43995SOL    HW133882  13.227   8.490   3.924
43995SOL    HW233883  13.174   8.613   3.995
43996SOL     OW33884   1.800   6.651   0.238
43996SOL    HW133885   1.833   6.723   0.292
43996SOL    HW233886   1.877   6.599   0.217
43997SOL     OW33887  10.365  12.267  14.272
43997SOL    HW133888  10.431  12.255  14.340
43997SOL    HW233889  10.413  12.259  14.190
43998SOL     OW33890   5.429  11.252   3.237
43998SOL    HW133891   5.378  11.172   3.250
43998SOL    HW233892   5.408  11.279   3.148
43999SOL     OW33893   2.142  10.476  12.591
43999SOL    HW133894   2.107  10.425  12.663
43999SOL    HW233895   2.237  10.478  12.607
44000SOL     OW33896  12.136  12.854   2.605
44000SOL    HW133897  12.094  12.905   2.535
44000SOL    HW233898  12.180  12.919   2.659
44001SOL     OW33899   2.688   2.649  13.550
44001SOL    HW133900   2.747   2.592  13.599
44001SOL    HW233901   2.709   2.632  13.458
44002SOL     OW33902   4.915  13.308   1.162
44002SOL    HW133903   4.887  13.220   1.187
44002SOL    HW233904   4.977  13.334   1.230
44003SOL     OW33905   6.123   3.043  12.056
44003SOL    HW133906   6.202   3.085  12.091
44003SOL    HW233907   6.086   2.996  12.131
44004SOL     OW33908   0.361   4.795   2.091
44004SOL    HW133909   0.305   4.754   2.025
44004SOL    HW233910   0.364   4.888   2.065
44005SOL     OW33911  13.668  10.342   2.359
44005SOL    HW133912  13.639  10.352   2.268
44005SOL    HW233913  13.709  10.256   2.362
44006SOL     OW33914   7.842   5.705  10.027
44006SOL    HW133915   7.816   5.624  10.072
44006SOL    HW233916   7.762   5.737   9.987
44007SOL     OW33917   7.283   3.956  11.438
44007SOL    HW133918   7.243   4.028  11.486
44007SOL    HW233919   7.331   3.907  11.504
44008SOL     OW33920  11.844   9.786   6.037
44008SOL    HW133921  11.924   9.838   6.038
44008SOL    HW233922  11.874   9.695   6.037
44009SOL     OW33923  13.121   4.620   6.400
44009SOL    HW133924  13.201   4.632   6.451
44009SOL    HW233925  13.144   4.647   6.311
44010SOL     OW33926  14.702   0.177   1.185
44010SOL    HW133927  14.753   0.222   1.252
44010SOL    HW233928  14.762   0.165   1.112
44011SOL     OW33929   3.943   9.328  13.919
44011SOL    HW133930   3.958   9.317  14.013
44011SOL    HW233931   3.980   9.249  13.880
44012SOL     OW33932  10.696  10.668  14.223
44012SOL    HW133933  10.735  10.658  14.310
44012SOL    HW233934  10.611  10.708  14.239
44013SOL     OW33935  11.929  13.485   5.311
44013SOL    HW133936  11.889  13.404   5.278
44013SOL    HW233937  11.855  13.540   5.334
44014SOL     OW33938   8.873  13.899   3.780
44014SOL    HW133939   8.809  13.849   3.830
44014SOL    HW233940   8.907  13.964   3.842
44015SOL     OW33941  10.903   6.953  13.677
44015SOL    HW133942  10.865   7.012  13.612
44015SOL    HW233943  10.864   6.867  13.656
44016SOL     OW33944   7.575   7.384  11.747
44016SOL    HW133945   7.573   7.344  11.834
44016SOL    HW233946   7.668   7.396  11.727
44017SOL     OW33947   3.955   7.217   8.803
44017SOL    HW133948   3.900   7.168   8.864
44017SOL    HW233949   3.946   7.170   8.720
44018SOL     OW33950   4.301  14.107   7.585
44018SOL    HW133951   4.316  14.014   7.567
44018SOL    HW233952   4.322  14.151   7.502
44019SOL     OW33953   0.674   3.975   8.966
44019SOL    HW133954   0.739   3.984   9.036
44019SOL    HW233955   0.621   3.900   8.992
44020SOL     OW33956   9.196  11.452   1.986
44020SOL    HW133957   9.145  11.416   2.058
44020SOL    HW233958   9.175  11.546   1.985
44021SOL     OW33959   8.817  12.960   8.307
44021SOL    HW133960   8.902  12.988   8.342
44021SOL    HW233961   8.830  12.869   8.281
44022SOL     OW33962  11.624   9.082   5.551
44022SOL    HW133963  11.595   9.172   5.540
44022SOL    HW233964  11.699   9.087   5.610
44023SOL     OW33965  14.299   9.932   1.506
44023SOL    HW133966  14.309   9.837   1.498
44023SOL    HW233967  14.388   9.964   1.520
44024SOL     OW33968   3.969  12.454   4.546
44024SOL    HW133969   3.881  12.482   4.520
44024SOL    HW233970   4.013  12.434   4.464
44025SOL     OW33971   5.252   7.839   9.217
44025SOL    HW133972   5.293   7.825   9.303
44025SOL    HW233973   5.286   7.768   9.163
44026SOL     OW33974   1.161  13.767   3.587
44026SOL    HW133975   1.114  13.697   3.633
44026SOL    HW233976   1.102  13.792   3.515
44027SOL     OW33977   5.166   2.163  14.848
44027SOL    HW133978   5.189   2.160   0.071
44027SOL    HW233979   5.134   2.251  14.834
44028SOL     OW33980   7.789   3.859  14.129
44028SOL    HW133981   7.749   3.789  14.180
44028SOL    HW233982   7.883   3.846  14.139
44029SOL     OW33983   4.911   2.274   1.567
44029SOL    HW133984   4.840   2.211   1.550
44029SOL    HW233985   4.922   2.272   1.662
44030SOL     OW33986   2.303   8.360   2.225
44030SOL    HW133987   2.270   8.310   2.299
44030SOL    HW233988   2.349   8.296   2.171
44031SOL     OW33989  11.647   5.643   0.178
44031SOL    HW133990  11.690   5.596   0.106
44031SOL    HW233991  11.691   5.728   0.181
44032SOL     OW33992  12.408  13.936   8.972
44032SOL    HW133993  12.386  14.019   8.931
44032SOL    HW233994  12.425  13.958   9.064
44033SOL     OW33995  11.265  13.927   3.943
44033SOL    HW133996  11.179  13.967   3.927
44033SOL    HW233997  11.326  13.988   3.902
44034SOL     OW33998   8.151  11.900   1.085
44034SOL    HW133999   8.121  11.906   1.175
44034SOL    HW234000   8.082  11.943   1.034
44035SOL     OW34001   9.628   1.961   2.044
44035SOL    HW134002   9.619   1.910   2.125
44035SOL    HW234003   9.678   2.038   2.070
44036SOL     OW34004  10.135  14.379  10.073
44036SOL    HW134005  10.195  14.454  10.066
44036SOL    HW234006  10.095  14.389  10.160
44037SOL     OW34007  14.108   3.122  10.418
44037SOL    HW134008  14.134   3.132  10.326
44037SOL    HW234009  14.188   3.142  10.467
44038SOL     OW34010   2.307   6.269   7.592
44038SOL    HW134011   2.220   6.235   7.610
44038SOL    HW234012   2.333   6.226   7.511
44039SOL     OW34013  10.556  10.127   6.925
44039SOL    HW134014  10.546  10.197   6.861
44039SOL    HW234015  10.602  10.058   6.877
44040SOL     OW34016   8.476   0.715   0.301
44040SOL    HW134017   8.527   0.695   0.379
44040SOL    HW234018   8.401   0.765   0.333
44041SOL     OW34019   2.325  11.680   2.885
44041SOL    HW134020   2.345  11.770   2.910
44041SOL    HW234021   2.300  11.637   2.967
44042SOL     OW34022   3.851   2.188  13.116
44042SOL    HW134023   3.794   2.132  13.170
44042SOL    HW234024   3.815   2.180  13.027
44043SOL     OW34025  13.218   9.053   9.940
44043SOL    HW134026  13.159   9.003   9.883
44043SOL    HW234027  13.253   8.988  10.001
44044SOL     OW34028   6.015   0.851   4.668
44044SOL    HW134029   5.983   0.829   4.756
44044SOL    HW234030   6.005   0.770   4.618
44045SOL     OW34031   7.578  10.333   2.077
44045SOL    HW134032   7.545  10.419   2.052
44045SOL    HW234033   7.646  10.351   2.142
44046SOL     OW34034   1.987  14.359   9.937
44046SOL    HW134035   1.993  14.267   9.960
44046SOL    HW234036   1.975  14.359   9.842
44047SOL     OW34037   0.165   1.531  12.852
44047SOL    HW134038   0.227   1.549  12.923
44047SOL    HW234039   0.118   1.614  12.840
44048SOL     OW34040  14.495  11.717   0.165
44048SOL    HW134041  14.572  11.668   0.197
44048SOL    HW234042  14.497  11.706   0.070
44049SOL     OW34043   3.131   5.683   3.325
44049SOL    HW134044   3.207   5.707   3.272
44049SOL    HW234045   3.136   5.588   3.333
44050SOL     OW34046   3.188  12.931  14.465
44050SOL    HW134047   3.176  12.945  14.559
44050SOL    HW234048   3.242  13.004  14.437
44051SOL     OW34049   1.713   3.045   6.175
44051SOL    HW134050   1.758   3.029   6.091
44051SOL    HW234051   1.647   3.111   6.154
44052SOL     OW34052   7.964   0.703   8.501
44052SOL    HW134053   7.984   0.611   8.481
44052SOL    HW234054   7.888   0.723   8.448
44053SOL     OW34055  13.266  11.171  11.584
44053SOL    HW134056  13.291  11.079  11.575
44053SOL    HW234057  13.348  11.219  11.568
44054SOL     OW34058  10.184   4.820   9.818
44054SOL    HW134059  10.227   4.904   9.805
44054SOL    HW234060  10.163   4.789   9.730
44055SOL     OW34061   8.971  13.913   8.926
44055SOL    HW134062   8.940  13.948   8.842
44055SOL    HW234063   8.901  13.934   8.988
44056SOL     OW34064   3.784   6.619   9.107
44056SOL    HW134065   3.858   6.664   9.065
44056SOL    HW234066   3.721   6.689   9.126
44057SOL     OW34067   0.699  13.125  12.492
44057SOL    HW134068   0.774  13.104  12.436
44057SOL    HW234069   0.625  13.130  12.432
44058SOL     OW34070   1.230   5.157   1.121
44058SOL    HW134071   1.246   5.099   1.048
44058SOL    HW234072   1.153   5.208   1.095
44059SOL     OW34073   4.590   3.667   0.893
44059SOL    HW134074   4.531   3.599   0.862
44059SOL    HW234075   4.575   3.673   0.987
44060SOL     OW34076   3.875   6.099  12.796
44060SOL    HW134077   3.866   6.134  12.707
44060SOL    HW234078   3.869   6.176  12.852
44061SOL     OW34079   0.657  14.099  13.785
44061SOL    HW134080   0.586  14.039  13.807
44061SOL    HW234081   0.620  14.156  13.717
44062SOL     OW34082  12.996  12.019  12.158
44062SOL    HW134083  12.983  12.092  12.219
44062SOL    HW234084  13.090  12.018  12.142
44063SOL     OW34085  13.662  13.157   7.758
44063SOL    HW134086  13.619  13.084   7.714
44063SOL    HW234087  13.744  13.169   7.711
44064SOL     OW34088   7.443   7.194  11.560
44064SOL    HW134089   7.409   7.265  11.615
44064SOL    HW234090   7.381   7.188  11.488
44065SOL     OW34091   4.631   1.666  12.547
44065SOL    HW134092   4.630   1.572  12.563
44065SOL    HW234093   4.709   1.697  12.591
44066SOL     OW34094   6.688   2.004   9.161
44066SOL    HW134095   6.611   2.031   9.210
44066SOL    HW234096   6.659   2.000   9.070
44067SOL     OW34097   7.250   1.998   2.353
44067SOL    HW134098   7.170   1.994   2.300
44067SOL    HW234099   7.320   1.973   2.292
44068SOL     OW34100   9.465   8.186   7.350
44068SOL    HW134101   9.371   8.165   7.355
44068SOL    HW234102   9.474   8.237   7.270
44069SOL     OW34103  11.426   1.311   0.702
44069SOL    HW134104  11.424   1.220   0.734
44069SOL    HW234105  11.510   1.318   0.656
44070SOL     OW34106   7.436  10.198  10.473
44070SOL    HW134107   7.506  10.220  10.412
44070SOL    HW234108   7.462  10.238  10.555
44071SOL     OW34109   4.391   3.151  11.260
44071SOL    HW134110   4.467   3.104  11.295
44071SOL    HW234111   4.414   3.168  11.169
44072SOL     OW34112  11.803  12.765  14.577
44072SOL    HW134113  11.872  12.719  14.625
44072SOL    HW234114  11.759  12.697  14.527
44073SOL     OW34115   8.222   9.684   0.260
44073SOL    HW134116   8.241   9.602   0.215
44073SOL    HW234117   8.302   9.736   0.249
44074SOL     OW34118   1.265   4.511   8.007
44074SOL    HW134119   1.215   4.563   7.944
44074SOL    HW234120   1.296   4.436   7.956
44075SOL     OW34121  12.138   5.920   7.877
44075SOL    HW134122  12.118   5.828   7.859
44075SOL    HW234123  12.215   5.917   7.933
44076SOL     OW34124   1.946  11.027   7.838
44076SOL    HW134125   2.028  10.978   7.826
44076SOL    HW234126   1.894  10.972   7.897
44077SOL     OW34127   4.942   6.604   2.476
44077SOL    HW134128   4.953   6.693   2.510
44077SOL    HW234129   5.030   6.577   2.451
44078SOL     OW34130  14.533  11.867   8.455
44078SOL    HW134131  14.554  11.827   8.540
44078SOL    HW234132  14.479  11.943   8.477
44079SOL     OW34133  14.530   8.258   7.078
44079SOL    HW134134  14.499   8.198   7.147
44079SOL    HW234135  14.582   8.323   7.125
44080SOL     OW34136  14.694   9.501  13.191
44080SOL    HW134137  14.696   9.595  13.170
44080SOL    HW234138  14.607   9.486  13.226
44081SOL     OW34139   6.506   8.422  10.839
44081SOL    HW134140   6.491   8.391  10.928
44081SOL    HW234141   6.491   8.516  10.843
44082SOL     OW34142   3.140   4.240  13.702
44082SOL    HW134143   3.070   4.269  13.643
44082SOL    HW234144   3.144   4.309  13.769
44083SOL     OW34145   3.251   9.710  13.165
44083SOL    HW134146   3.266   9.650  13.092
44083SOL    HW234147   3.300   9.789  13.141
44084SOL     OW34148   1.490   3.249   4.910
44084SOL    HW134149   1.527   3.325   4.955
44084SOL    HW234150   1.497   3.271   4.817
44085SOL     OW34151   9.810  11.270   6.764
44085SOL    HW134152   9.781  11.179   6.770
44085SOL    HW234153   9.850  11.288   6.849
44086SOL     OW34154  11.070   7.248   6.658
44086SOL    HW134155  11.069   7.274   6.565
44086SOL    HW234156  11.056   7.154   6.657
44087SOL     OW34157  14.760  13.419   1.005
44087SOL    HW134158  14.851  13.421   0.976
44087SOL    HW234159  14.736  13.511   1.016
44088SOL     OW34160   4.792   4.732   6.027
44088SOL    HW134161   4.764   4.823   6.030
44088SOL    HW234162   4.857   4.724   6.097
44089SOL     OW34163  12.195   8.200   2.320
44089SOL    HW134164  12.208   8.221   2.412
44089SOL    HW234165  12.262   8.250   2.273
44090SOL     OW34166   8.067   2.783   0.269
44090SOL    HW134167   7.975   2.786   0.243
44090SOL    HW234168   8.109   2.728   0.203
44091SOL     OW34169  11.853  13.911   5.727
44091SOL    HW134170  11.854  13.816   5.732
44091SOL    HW234171  11.872  13.930   5.635
44092SOL     OW34172   3.762  14.678   8.650
44092SOL    HW134173   3.788  14.597   8.692
44092SOL    HW234174   3.844  14.717   8.618
44093SOL     OW34175   4.930  11.860  14.176
44093SOL    HW134176   4.926  11.764  14.183
44093SOL    HW234177   5.001  11.885  14.234
44094SOL     OW34178   0.659   3.349   2.994
44094SOL    HW134179   0.695   3.266   3.026
44094SOL    HW234180   0.686   3.414   3.059
44095SOL     OW34181   5.661  10.199   4.614
44095SOL    HW134182   5.675  10.249   4.694
44095SOL    HW234183   5.687  10.109   4.636
44096SOL     OW34184  14.861   5.488  10.830
44096SOL    HW134185  14.863   5.557  10.763
44096SOL    HW234186   0.082   5.460  10.838
44097SOL     OW34187   9.615   0.070   6.360
44097SOL    HW134188   9.627   0.147   6.305
44097SOL    HW234189   9.529   0.082   6.402
44098SOL     OW34190  12.161   9.512   6.341
44098SOL    HW134191  12.083   9.511   6.396
44098SOL    HW234192  12.168   9.422   6.308
44099SOL     OW34193  14.104  14.668   0.888
44099SOL    HW134194  14.136  14.580   0.866
44099SOL    HW234195  14.010  14.655   0.904
44100SOL     OW34196   8.678   9.013  12.441
44100SOL    HW134197   8.707   8.979  12.526
44100SOL    HW234198   8.586   9.036  12.455
44101SOL     OW34199   6.853   9.022  13.230
44101SOL    HW134200   6.792   9.095  13.242
44101SOL    HW234201   6.940   9.062  13.233
44102SOL     OW34202   6.541   3.998   6.035
44102SOL    HW134203   6.607   4.066   6.044
44102SOL    HW234204   6.472   4.023   6.096
44103SOL     OW34205   5.794   1.837  10.548
44103SOL    HW134206   5.776   1.745  10.528
44103SOL    HW234207   5.868   1.860  10.492
44104SOL     OW34208   2.838   1.923   4.827
44104SOL    HW134209   2.762   1.971   4.796
44104SOL    HW234210   2.890   1.906   4.748
44105SOL     OW34211  12.529   1.585   3.020
44105SOL    HW134212  12.614   1.550   3.048
44105SOL    HW234213  12.548   1.633   2.939
44106SOL     OW34214   7.083  11.404   8.810
44106SOL    HW134215   7.011  11.459   8.840
44106SOL    HW234216   7.128  11.377   8.890
44107SOL     OW34217   3.979   8.530   1.860
44107SOL    HW134218   4.061   8.528   1.811
44107SOL    HW234219   3.965   8.623   1.880
44108SOL     OW34220  14.509   5.266   2.441
44108SOL    HW134221  14.432   5.303   2.396
44108SOL    HW234222  14.579   5.273   2.377
44109SOL     OW34223  14.062   0.100   9.170
44109SOL    HW134224  13.998   0.106   9.241
44109SOL    HW234225  14.141   0.140   9.206
44110SOL     OW34226   9.739  14.160   6.367
44110SOL    HW134227   9.773  14.071   6.371
44110SOL    HW234228   9.646  14.151   6.385
44111SOL     OW34229   2.348  14.036  10.160
44111SOL    HW134230   2.384  13.970  10.100
44111SOL    HW234231   2.264  14.000  10.188
44112SOL     OW34232   8.839   6.389   9.065
44112SOL    HW134233   8.807   6.306   9.100
44112SOL    HW234234   8.814   6.388   8.973
44113SOL     OW34235   1.970   8.140   9.725
44113SOL    HW134236   1.952   8.204   9.656
44113SOL    HW234237   1.981   8.192   9.804
44114SOL     OW34238   7.012   3.942   5.429
44114SOL    HW134239   7.033   3.930   5.521
44114SOL    HW234240   6.988   4.034   5.421
44115SOL     OW34241  14.171  11.458   3.340
44115SOL    HW134242  14.231  11.389   3.367
44115SOL    HW234243  14.094  11.446   3.395
44116SOL     OW34244   9.519   0.147   4.729
44116SOL    HW134245   9.452   0.192   4.677
44116SOL    HW234246   9.473   0.121   4.809
44117SOL     OW34247   7.394   3.691  13.124
44117SOL    HW134248   7.376   3.642  13.043
44117SOL    HW234249   7.463   3.752  13.100
44118SOL     OW34250   3.349   7.847  10.522
44118SOL    HW134251   3.432   7.804  10.501
44118SOL    HW234252   3.373   7.914  10.586
44119SOL     OW34253   3.129   2.856   5.802
44119SOL    HW134254   3.098   2.946   5.791
44119SOL    HW234255   3.143   2.824   5.713
44120SOL     OW34256   5.396  12.122   6.826
44120SOL    HW134257   5.395  12.131   6.921
44120SOL    HW234258   5.323  12.177   6.796
44121SOL     OW34259   5.428  13.040  13.905
44121SOL    HW134260   5.336  13.017  13.894
44121SOL    HW234261   5.469  13.021  13.821
44122SOL     OW34262  13.368   8.625   4.371
44122SOL    HW134263  13.328   8.652   4.288
44122SOL    HW234264  13.389   8.532   4.358
44123SOL     OW34265  13.078   2.029   5.364
44123SOL    HW134266  13.089   2.122   5.344
44123SOL    HW234267  13.093   1.985   5.280
44124SOL     OW34268   1.416   8.484   5.019
44124SOL    HW134269   1.396   8.455   5.108
44124SOL    HW234270   1.482   8.553   5.030
44125SOL     OW34271   3.945   6.011   6.747
44125SOL    HW134272   3.997   5.933   6.763
44125SOL    HW234273   3.956   6.029   6.653
44126SOL     OW34274  13.163   0.522   2.235
44126SOL    HW134275  13.171   0.485   2.323
44126SOL    HW234276  13.136   0.448   2.181
44127SOL     OW34277   4.986   2.431   5.511
44127SOL    HW134278   5.024   2.426   5.423
44127SOL    HW234279   5.055   2.470   5.564
44128SOL     OW34280   0.760  10.670   5.717
44128SOL    HW134281   0.668  10.649   5.735
44128SOL    HW234282   0.780  10.623   5.636
44129SOL     OW34283   5.588   6.755  13.790
44129SOL    HW134284   5.672   6.748  13.836
44129SOL    HW234285   5.609   6.807  13.712
44130SOL     OW34286  11.734   0.412  10.708
44130SOL    HW134287  11.656   0.359  10.693
44130SOL    HW234288  11.807   0.355  10.683
44131SOL     OW34289   3.225   8.506   1.318
44131SOL    HW134290   3.187   8.594   1.312
44131SOL    HW234291   3.318   8.521   1.339
44132SOL     OW34292   8.255  11.072   9.328
44132SOL    HW134293   8.278  10.983   9.302
44132SOL    HW234294   8.160  11.071   9.338
44133SOL     OW34295  12.607  10.151   9.009
44133SOL    HW134296  12.670  10.223   9.010
44133SOL    HW234297  12.610  10.118   8.919
44134SOL     OW34298   2.999  10.078   3.532
44134SOL    HW134299   3.071  10.047   3.586
44134SOL    HW234300   2.939  10.120   3.593
44135SOL     OW34301   8.082  10.998   1.772
44135SOL    HW134302   8.011  11.061   1.781
44135SOL    HW234303   8.087  10.955   1.857
44136SOL     OW34304  13.976   3.938  14.031
44136SOL    HW134305  14.050   3.904  14.082
44136SOL    HW234306  13.906   3.952  14.095
44137SOL     OW34307   9.232  14.716   0.289
44137SOL    HW134308   9.239  14.739   0.382
44137SOL    HW234309   9.164  14.773   0.255
44138SOL     OW34310   7.183  12.315   7.178
44138SOL    HW134311   7.232  12.288   7.256
44138SOL    HW234312   7.129  12.388   7.207
44139SOL     OW34313  12.508  12.689  13.966
44139SOL    HW134314  12.428  12.739  13.952
44139SOL    HW234315  12.578  12.747  13.934
44140SOL     OW34316   0.329  11.465  10.593
44140SOL    HW134317   0.391  11.514  10.539
44140SOL    HW234318   0.313  11.522  10.668
44141SOL     OW34319   6.027   6.230   8.846
44141SOL    HW134320   6.026   6.192   8.934
44141SOL    HW234321   6.015   6.155   8.788
44142SOL     OW34322   8.522  10.688  11.647
44142SOL    HW134323   8.585  10.627  11.685
44142SOL    HW234324   8.497  10.649  11.564
44143SOL     OW34325   1.682   8.653  12.867
44143SOL    HW134326   1.697   8.637  12.774
44143SOL    HW234327   1.642   8.572  12.899
44144SOL     OW34328  11.392   6.387  11.668
44144SOL    HW134329  11.386   6.319  11.601
44144SOL    HW234330  11.413   6.339  11.748
44145SOL     OW34331   1.065  11.799   4.201
44145SOL    HW134332   1.067  11.752   4.284
44145SOL    HW234333   1.155  11.829   4.187
44146SOL     OW34334   0.249  12.827  11.577
44146SOL    HW134335   0.172  12.852  11.628
44146SOL    HW234336   0.299  12.771  11.636
44147SOL     OW34337   8.558   9.708  13.323
44147SOL    HW134338   8.528   9.792  13.287
44147SOL    HW234339   8.544   9.646  13.252
44148SOL     OW34340   1.379   4.239   2.357
44148SOL    HW134341   1.334   4.320   2.333
44148SOL    HW234342   1.363   4.229   2.451
44149SOL     OW34343   7.749  13.676   6.370
44149SOL    HW134344   7.679  13.731   6.335
44149SOL    HW234345   7.705  13.611   6.424
44150SOL     OW34346   0.192   1.915   3.161
44150SOL    HW134347   0.159   1.832   3.127
44150SOL    HW234348   0.140   1.982   3.117
44151SOL     OW34349   5.582  12.097  12.825
44151SOL    HW134350   5.663  12.114  12.777
44151SOL    HW234351   5.610  12.051  12.904
44152SOL     OW34352   7.162  12.579  11.430
44152SOL    HW134353   7.094  12.570  11.496
44152SOL    HW234354   7.148  12.506  11.370
44153SOL     OW34355  11.840  12.152   4.886
44153SOL    HW134356  11.912  12.203   4.924
44153SOL    HW234357  11.772  12.217   4.867
44154SOL     OW34358  14.868  14.038   1.630
44154SOL    HW134359   0.048  14.116   1.605
44154SOL    HW234360   0.063  13.968   1.633
44155SOL     OW34361   0.046   1.383  13.510
44155SOL    HW134362  14.849   1.354  13.448
44155SOL    HW234363   0.112   1.427  13.457
44156SOL     OW34364   5.069   4.322  11.734
44156SOL    HW134365   5.108   4.235  11.729
44156SOL    HW234366   5.060   4.339  11.827
44157SOL     OW34367   8.640   0.407   2.547
44157SOL    HW134368   8.548   0.416   2.571
44157SOL    HW234369   8.660   0.315   2.562
44158SOL     OW34370  14.461   4.761  10.395
44158SOL    HW134371  14.447   4.850  10.425
44158SOL    HW234372  14.375   4.719  10.402
44159SOL     OW34373   0.159  12.327   7.102
44159SOL    HW134374   0.117  12.328   7.188
44159SOL    HW234375   0.223  12.398   7.105
44160SOL     OW34376   4.558   3.625   0.135
44160SOL    HW134377   4.577   3.672   0.053
44160SOL    HW234378   4.483   3.570   0.114
44161SOL     OW34379  10.044   2.585   0.096
44161SOL    HW134380  10.078   2.552   0.179
44161SOL    HW234381  10.077   2.523   0.031
44162SOL     OW34382   3.395   3.422   4.974
44162SOL    HW134383   3.434   3.486   4.915
44162SOL    HW234384   3.377   3.346   4.918
44163SOL     OW34385  13.434  14.509  10.822
44163SOL    HW134386  13.403  14.513  10.731
44163SOL    HW234387  13.499  14.439  10.822
44164SOL     OW34388   3.109   9.032  14.669
44164SOL    HW134389   3.167   9.107  14.657
44164SOL    HW234390   3.142   8.966  14.608
44165SOL     OW34391   1.915   2.119   8.634
44165SOL    HW134392   1.865   2.187   8.589
44165SOL    HW234393   1.941   2.160   8.717
44166SOL     OW34394   8.874   1.754   7.456
44166SOL    HW134395   8.898   1.788   7.542
44166SOL    HW234396   8.785   1.719   7.468
44167SOL     OW34397  12.543  12.812   4.500
44167SOL    HW134398  12.582  12.842   4.582
44167SOL    HW234399  12.614  12.819   4.436
44168SOL     OW34400   0.387   1.453  14.858
44168SOL    HW134401   0.469   1.407   0.006
44168SOL    HW234402   0.385   1.462  14.762
44169SOL     OW34403   4.607   3.513   6.984
44169SOL    HW134404   4.581   3.495   7.075
44169SOL    HW234405   4.689   3.466   6.972
44170SOL     OW34406  11.740   9.874   3.183
44170SOL    HW134407  11.786   9.796   3.212
44170SOL    HW234408  11.797   9.911   3.115
44171SOL     OW34409   1.488  12.481   8.124
44171SOL    HW134410   1.513  12.537   8.050
44171SOL    HW234411   1.465  12.543   8.193
44172SOL     OW34412  11.430  14.107   4.103
44172SOL    HW134413  11.436  14.011   4.101
44172SOL    HW234414  11.346  14.127   4.063
44173SOL     OW34415   2.682  13.163  11.279
44173SOL    HW134416   2.727  13.144  11.361
44173SOL    HW234417   2.589  13.153  11.299
44174SOL     OW34418  10.070   5.927  12.541
44174SOL    HW134419  10.004   5.977  12.494
44174SOL    HW234420  10.082   5.848  12.488
44175SOL     OW34421   5.843   0.811   9.699
44175SOL    HW134422   5.769   0.830   9.641
44175SOL    HW234423   5.803   0.802   9.785
44176SOL     OW34424   9.468   4.706   1.878
44176SOL    HW134425   9.411   4.630   1.891
44176SOL    HW234426   9.425   4.776   1.926
44177SOL     OW34427   5.471  14.170   8.087
44177SOL    HW134428   5.490  14.115   8.163
44177SOL    HW234429   5.518  14.252   8.104
44178SOL     OW34430  12.959  11.895  14.642
44178SOL    HW134431  12.913  11.822  14.683
44178SOL    HW234432  12.941  11.885  14.549
44179SOL     OW34433   4.506   6.296  10.986
44179SOL    HW134434   4.504   6.206  10.956
44179SOL    HW234435   4.598   6.314  11.004
44180SOL     OW34436  10.191   0.764   0.913
44180SOL    HW134437  10.259   0.749   0.978
44180SOL    HW234438  10.234   0.813   0.843
44181SOL     OW34439   2.620   0.910   7.674
44181SOL    HW134440   2.562   0.970   7.721
44181SOL    HW234441   2.562   0.842   7.639
44182SOL     OW34442   4.692  10.654   4.271
44182SOL    HW134443   4.684  10.745   4.243
44182SOL    HW234444   4.763  10.654   4.335
44183SOL     OW34445   6.759   6.184   2.893
44183SOL    HW134446   6.825   6.115   2.889
44183SOL    HW234447   6.690   6.147   2.949
44184SOL     OW34448   9.751   5.261  10.002
44184SOL    HW134449   9.766   5.181  10.052
44184SOL    HW234450   9.818   5.322  10.033
44185SOL     OW34451   5.398   2.203   2.599
44185SOL    HW134452   5.349   2.281   2.575
44185SOL    HW234453   5.434   2.223   2.685
44186SOL     OW34454   5.355   4.565   9.283
44186SOL    HW134455   5.293   4.496   9.261
44186SOL    HW234456   5.441   4.525   9.271
44187SOL     OW34457   1.555  13.005   0.836
44187SOL    HW134458   1.638  13.052   0.831
44187SOL    HW234459   1.498  13.063   0.887
44188SOL     OW34460   2.264   8.746  13.055
44188SOL    HW134461   2.287   8.777  13.142
44188SOL    HW234462   2.171   8.724  13.060
44189SOL     OW34463   0.513  11.059  12.653
44189SOL    HW134464   0.531  10.980  12.705
44189SOL    HW234465   0.485  11.125  12.716
44190SOL     OW34466   5.975   8.223   5.337
44190SOL    HW134467   6.051   8.213   5.394
44190SOL    HW234468   6.008   8.207   5.249
44191SOL     OW34469   9.915   4.082  13.466
44191SOL    HW134470   9.927   3.993  13.499
44191SOL    HW234471   9.958   4.138  13.530
44192SOL     OW34472  10.353   8.060   9.826
44192SOL    HW134473  10.261   8.058   9.799
44192SOL    HW234474  10.355   8.012   9.909
44193SOL     OW34475   8.881   6.870  13.520
44193SOL    HW134476   8.930   6.788  13.511
44193SOL    HW234477   8.789   6.845  13.511
44194SOL     OW34478   3.882   3.487  11.037
44194SOL    HW134479   3.877   3.500  11.132
44194SOL    HW234480   3.798   3.518  11.003
44195SOL     OW34481  13.774   1.472   5.334
44195SOL    HW134482  13.723   1.427   5.401
44195SOL    HW234483  13.780   1.410   5.262
44196SOL     OW34484   0.898   2.277  12.798
44196SOL    HW134485   0.879   2.199  12.851
44196SOL    HW234486   0.814   2.301  12.759
44197SOL     OW34487   9.781   8.690   2.612
44197SOL    HW134488   9.804   8.770   2.659
44197SOL    HW234489   9.767   8.719   2.521
44198SOL     OW34490   7.934   1.313   9.315
44198SOL    HW134491   7.899   1.286   9.400
44198SOL    HW234492   7.896   1.252   9.253
44199SOL     OW34493   5.359   6.749   0.709
44199SOL    HW134494   5.279   6.795   0.683
44199SOL    HW234495   5.331   6.659   0.726
44200SOL     OW34496   8.724  12.494  14.626
44200SOL    HW134497   8.748  12.413  14.672
44200SOL    HW234498   8.789  12.502  14.556
44201SOL     OW34499   0.860  12.042   6.183
44201SOL    HW134500   0.884  12.057   6.275
44201SOL    HW234501   0.774  12.000   6.188
44202SOL     OW34502   3.254   7.759  13.959
44202SOL    HW134503   3.350   7.750  13.960
44202SOL    HW234504   3.228   7.748  14.050
44203SOL     OW34505  14.500   2.175  10.953
44203SOL    HW134506  14.579   2.208  10.910
44203SOL    HW234507  14.532   2.111  11.016
44204SOL     OW34508  13.189   4.980   4.141
44204SOL    HW134509  13.223   4.904   4.188
44204SOL    HW234510  13.254   4.997   4.073
44205SOL     OW34511   0.666  14.316   3.107
44205SOL    HW134512   0.743  14.350   3.153
44205SOL    HW234513   0.691  14.317   3.014
44206SOL     OW34514   1.166   2.126   1.176
44206SOL    HW134515   1.257   2.097   1.170
44206SOL    HW234516   1.126   2.097   1.094
44207SOL     OW34517   9.981   1.508   7.910
44207SOL    HW134518   9.949   1.584   7.959
44207SOL    HW234519   9.902   1.456   7.893
44208SOL     OW34520   1.438   7.108   9.623
44208SOL    HW134521   1.361   7.157   9.653
44208SOL    HW234522   1.433   7.112   9.528
44209SOL     OW34523   2.783   8.579  12.109
44209SOL    HW134524   2.851   8.644  12.089
44209SOL    HW234525   2.785   8.571  12.205
44210SOL     OW34526   0.964   1.408  13.029
44210SOL    HW134527   1.022   1.479  13.002
44210SOL    HW234528   1.021   1.346  13.076
44211SOL     OW34529   9.719   8.703   5.805
44211SOL    HW134530   9.752   8.631   5.752
44211SOL    HW234531   9.665   8.661   5.872
44212SOL     OW34532   9.082   8.055  11.749
44212SOL    HW134533   9.134   8.123  11.793
44212SOL    HW234534   9.019   8.103  11.696
44213SOL     OW34535   5.830   1.324   8.404
44213SOL    HW134536   5.781   1.384   8.460
44213SOL    HW234537   5.912   1.370   8.386
44214SOL     OW34538   2.339   4.764   4.619
44214SOL    HW134539   2.307   4.839   4.568
44214SOL    HW234540   2.434   4.776   4.620
44215SOL     OW34541   7.046   0.229   1.997
44215SOL    HW134542   7.014   0.319   2.002
44215SOL    HW234543   7.111   0.223   2.067
44216SOL     OW34544   6.513   9.136  12.406
44216SOL    HW134545   6.443   9.116  12.344
44216SOL    HW234546   6.593   9.131  12.354
44217SOL     OW34547   1.643   3.671   4.954
44217SOL    HW134548   1.719   3.725   4.974
44217SOL    HW234549   1.618   3.631   5.038
44218SOL     OW34550   0.992  13.227  10.498
44218SOL    HW134551   0.981  13.242  10.404
44218SOL    HW234552   1.067  13.168  10.505
44219SOL     OW34553   2.523  11.820   5.060
44219SOL    HW134554   2.544  11.836   5.152
44219SOL    HW234555   2.434  11.855   5.050
44220SOL     OW34556  12.648   1.136   4.065
44220SOL    HW134557  12.674   1.061   4.118
44220SOL    HW234558  12.678   1.213   4.114
44221SOL     OW34559   9.390   6.751   1.891
44221SOL    HW134560   9.474   6.708   1.908
44221SOL    HW234561   9.412   6.825   1.835
44222SOL     OW34562   0.121   7.812   8.423
44222SOL    HW134563   0.130   7.817   8.328
44222SOL    HW234564   0.092   7.722   8.439
44223SOL     OW34565  11.796  14.178  12.772
44223SOL    HW134566  11.845  14.260  12.764
44223SOL    HW234567  11.710  14.197  12.733
44224SOL     OW34568   2.324   6.409  14.779
44224SOL    HW134569   2.357   6.498  14.765
44224SOL    HW234570   2.241   6.407  14.732
44225SOL     OW34571   1.510   8.933   1.247
44225SOL    HW134572   1.583   8.925   1.308
44225SOL    HW234573   1.499   8.845   1.211
44226SOL     OW34574  10.104  13.562   2.737
44226SOL    HW134575  10.017  13.601   2.749
44226SOL    HW234576  10.136  13.548   2.826
44227SOL     OW34577  11.028   0.227   8.413
44227SOL    HW134578  11.120   0.234   8.388
44227SOL    HW234579  11.006   0.135   8.398
44228SOL     OW34580   5.847   7.702   9.632
44228SOL    HW134581   5.835   7.728   9.541
44228SOL    HW234582   5.840   7.607   9.631
44229SOL     OW34583   9.022  10.646  11.535
44229SOL    HW134584   9.029  10.735  11.570
44229SOL    HW234585   8.956  10.653  11.465
44230SOL     OW34586  13.673   8.577   1.289
44230SOL    HW134587  13.648   8.504   1.347
44230SOL    HW234588  13.734   8.537   1.226
44231SOL     OW34589  11.770   8.583   9.288
44231SOL    HW134590  11.798   8.649   9.225
44231SOL    HW234591  11.680   8.607   9.310
44232SOL     OW34592  11.422   4.974  12.821
44232SOL    HW134593  11.497   4.915  12.830
44232SOL    HW234594  11.449   5.038  12.756
44233SOL     OW34595   5.895   1.695   1.927
44233SOL    HW134596   5.952   1.758   1.972
44233SOL    HW234597   5.862   1.639   1.997
44234SOL     OW34598   2.325   9.590   3.732
44234SOL    HW134599   2.361   9.610   3.646
44234SOL    HW234600   2.343   9.669   3.784
44235SOL     OW34601   3.709   2.134   8.653
44235SOL    HW134602   3.735   2.095   8.737
44235SOL    HW234603   3.626   2.177   8.671
44236SOL     OW34604   1.604  14.677   7.858
44236SOL    HW134605   1.629  14.593   7.820
44236SOL    HW234606   1.512  14.687   7.836
44237SOL     OW34607   1.768  10.957   4.418
44237SOL    HW134608   1.824  10.970   4.495
44237SOL    HW234609   1.799  10.875   4.379
44238SOL     OW34610   1.413   9.216   2.397
44238SOL    HW134611   1.377   9.162   2.467
44238SOL    HW234612   1.340   9.271   2.368
44239SOL     OW34613   5.536   8.546  13.044
44239SOL    HW134614   5.605   8.489  13.011
44239SOL    HW234615   5.514   8.603  12.970
44240SOL     OW34616   6.045  10.916   1.187
44240SOL    HW134617   6.011  10.850   1.248
44240SOL    HW234618   6.037  10.999   1.235
44241SOL     OW34619   1.305   8.694  14.162
44241SOL    HW134620   1.286   8.654  14.247
44241SOL    HW234621   1.256   8.641  14.099
44242SOL     OW34622   4.749   3.900   1.801
44242SOL    HW134623   4.676   3.962   1.794
44242SOL    HW234624   4.806   3.936   1.868
44243SOL     OW34625   8.989  11.054   7.763
44243SOL    HW134626   8.985  10.984   7.698
44243SOL    HW234627   8.897  11.077   7.779
44244SOL     OW34628  14.028   7.033   1.508
44244SOL    HW134629  14.082   7.080   1.445
44244SOL    HW234630  13.982   6.967   1.456
44245SOL     OW34631  11.730  11.446  12.938
44245SOL    HW134632  11.793  11.394  12.989
44245SOL    HW234633  11.775  11.529  12.922
44246SOL     OW34634  12.699  11.698   4.336
44246SOL    HW134635  12.764  11.628   4.337
44246SOL    HW234636  12.735  11.764   4.277
44247SOL     OW34637   3.047   9.506  12.828
44247SOL    HW134638   3.032   9.600  12.825
44247SOL    HW234639   3.129   9.495  12.876
44248SOL     OW34640  13.202   0.168  14.787
44248SOL    HW134641  13.224   0.244  14.734
44248SOL    HW234642  13.123   0.133  14.747
44249SOL     OW34643   5.245  14.145   8.641
44249SOL    HW134644   5.218  14.203   8.712
44249SOL    HW234645   5.179  14.158   8.573
44250SOL     OW34646   5.969   2.963   3.188
44250SOL    HW134647   5.950   3.053   3.215
44250SOL    HW234648   5.991   2.970   3.095
44251SOL     OW34649  13.292   7.205   1.310
44251SOL    HW134650  13.269   7.267   1.241
44251SOL    HW234651  13.335   7.133   1.264
44252SOL     OW34652   0.709  10.964   7.082
44252SOL    HW134653   0.758  10.982   7.162
44252SOL    HW234654   0.689  10.870   7.086
44253SOL     OW34655  10.212  13.098  11.281
44253SOL    HW134656  10.235  13.190  11.293
44253SOL    HW234657  10.132  13.100  11.228
44254SOL     OW34658   8.593  11.263  12.866
44254SOL    HW134659   8.585  11.325  12.939
44254SOL    HW234660   8.528  11.292  12.802
44255SOL     OW34661   0.977   8.106   5.925
44255SOL    HW134662   0.910   8.167   5.896
44255SOL    HW234663   0.929   8.042   5.978
44256SOL     OW34664   3.265   7.934   4.208
44256SOL    HW134665   3.171   7.918   4.224
44256SOL    HW234666   3.282   8.019   4.248
44257SOL     OW34667  14.780   1.803   3.369
44257SOL    HW134668  14.772   1.784   3.463
44257SOL    HW234669  14.839   1.735   3.336
44258SOL     OW34670  10.796  12.208   0.268
44258SOL    HW134671  10.718  12.155   0.281
44258SOL    HW234672  10.771  12.272   0.201
44259SOL     OW34673  14.415  14.035   5.199
44259SOL    HW134674  14.431  14.121   5.238
44259SOL    HW234675  14.500  13.990   5.206
44260SOL     OW34676  11.900   7.082   2.458
44260SOL    HW134677  11.976   7.075   2.402
44260SOL    HW234678  11.843   7.010   2.431
44261SOL     OW34679  10.107   2.527   1.356
44261SOL    HW134680  10.188   2.511   1.308
44261SOL    HW234681  10.039   2.485   1.304
44262SOL     OW34682   3.248  14.024  12.765
44262SOL    HW134683   3.202  14.066  12.693
44262SOL    HW234684   3.338  14.057  12.759
44263SOL     OW34685  13.535  14.277  14.055
44263SOL    HW134686  13.533  14.277  14.150
44263SOL    HW234687  13.601  14.342  14.032
44264SOL     OW34688  13.623   1.663   0.602
44264SOL    HW134689  13.710   1.703   0.603
44264SOL    HW234690  13.562   1.736   0.611
44265SOL     OW34691   9.929   8.838   8.002
44265SOL    HW134692   9.969   8.869   7.921
44265SOL    HW234693   9.994   8.857   8.070
44266SOL     OW34694   4.522   9.384   2.183
44266SOL    HW134695   4.452   9.332   2.145
44266SOL    HW234696   4.588   9.320   2.211
44267SOL     OW34697  10.207   2.928   3.325
44267SOL    HW134698  10.135   2.970   3.278
44267SOL    HW234699  10.286   2.965   3.286
44268SOL     OW34700  10.271  13.437  12.541
44268SOL    HW134701  10.312  13.402  12.462
44268SOL    HW234702  10.181  13.406  12.538
44269SOL     OW34703   9.132   2.110   7.313
44269SOL    HW134704   9.140   2.149   7.400
44269SOL    HW234705   9.184   2.168   7.256
44270SOL     OW34706   3.022   6.989   8.021
44270SOL    HW134707   3.117   6.974   8.017
44270SOL    HW234708   3.005   7.052   7.951
44271SOL     OW34709   7.525   2.305   7.835
44271SOL    HW134710   7.462   2.266   7.896
44271SOL    HW234711   7.605   2.253   7.846
44272SOL     OW34712   6.137  11.144   6.884
44272SOL    HW134713   6.045  11.119   6.879
44272SOL    HW234714   6.184  11.062   6.898
44273SOL     OW34715   1.277   9.116  10.422
44273SOL    HW134716   1.256   9.046  10.360
44273SOL    HW234717   1.332   9.073  10.488
44274SOL     OW34718  12.822   7.361   5.058
44274SOL    HW134719  12.872   7.386   5.136
44274SOL    HW234720  12.803   7.444   5.013
44275SOL     OW34721   5.365  14.124  11.465
44275SOL    HW134722   5.297  14.181  11.500
44275SOL    HW234723   5.350  14.040  11.509
44276SOL     OW34724   6.223   2.171   2.284
44276SOL    HW134725   6.154   2.154   2.348
44276SOL    HW234726   6.182   2.153   2.199
44277SOL     OW34727  11.686  14.658  11.246
44277SOL    HW134728  11.689  14.752  11.231
44277SOL    HW234729  11.722  14.620  11.165
44278SOL     OW34730   4.767  10.288   7.307
44278SOL    HW134731   4.677  10.259   7.319
44278SOL    HW234732   4.761  10.357   7.240
44279SOL     OW34733  13.133  10.026  12.230
44279SOL    HW134734  13.194  10.034  12.304
44279SOL    HW234735  13.176   9.965  12.170
44280SOL     OW34736   8.388   3.738   2.432
44280SOL    HW134737   8.359   3.801   2.366
44280SOL    HW234738   8.461   3.692   2.390
44281SOL     OW34739   3.479   5.110  14.060
44281SOL    HW134740   3.445   5.164  13.989
44281SOL    HW234741   3.402   5.086  14.111
44282SOL     OW34742   4.446   9.211   0.173
44282SOL    HW134743   4.501   9.158   0.115
44282SOL    HW234744   4.369   9.157   0.190
44283SOL     OW34745  14.294  10.137  14.510
44283SOL    HW134746  14.268  10.229  14.521
44283SOL    HW234747  14.385  10.134  14.540
44284SOL     OW34748  11.319  10.684  13.521
44284SOL    HW134749  11.286  10.617  13.461
44284SOL    HW234750  11.414  10.680  13.510
44285SOL     OW34751   1.747  12.131   2.834
44285SOL    HW134752   1.794  12.053   2.863
44285SOL    HW234753   1.710  12.167   2.914
44286SOL     OW34754  14.476   5.475   4.615
44286SOL    HW134755  14.486   5.397   4.561
44286SOL    HW234756  14.491   5.445   4.704
44287SOL     OW34757  12.277   5.962   1.656
44287SOL    HW134758  12.267   6.034   1.593
44287SOL    HW234759  12.341   5.904   1.615
44288SOL     OW34760   7.466   4.529   1.634
44288SOL    HW134761   7.420   4.612   1.648
44288SOL    HW234762   7.416   4.485   1.565
44289SOL     OW34763  14.139  12.276  11.973
44289SOL    HW134764  14.059  12.298  12.020
44289SOL    HW234765  14.148  12.182  11.983
44290SOL     OW34766   2.162  13.189   3.630
44290SOL    HW134767   2.097  13.134   3.675
44290SOL    HW234768   2.110  13.261   3.594
44291SOL     OW34769  14.338   9.392   8.888
44291SOL    HW134770  14.423   9.380   8.930
44291SOL    HW234771  14.281   9.426   8.957
44292SOL     OW34772   6.553   6.880   1.247
44292SOL    HW134773   6.512   6.800   1.213
44292SOL    HW234774   6.604   6.914   1.173
44293SOL     OW34775   2.342   4.803  14.110
44293SOL    HW134776   2.374   4.718  14.139
44293SOL    HW234777   2.389   4.820  14.028
44294SOL     OW34778  11.819   4.118   0.657
44294SOL    HW134779  11.831   4.041   0.601
44294SOL    HW234780  11.877   4.184   0.620
44295SOL     OW34781   5.553   7.346   7.895
44295SOL    HW134782   5.461   7.323   7.883
44295SOL    HW234783   5.589   7.346   7.807
44296SOL     OW34784   2.837  10.560   4.325
44296SOL    HW134785   2.933  10.568   4.319
44296SOL    HW234786   2.808  10.562   4.234
44297SOL     OW34787   7.722  12.871  13.395
44297SOL    HW134788   7.720  12.791  13.342
44297SOL    HW234789   7.796  12.859  13.454
44298SOL     OW34790  12.206   1.919   4.343
44298SOL    HW134791  12.206   1.999   4.291
44298SOL    HW234792  12.181   1.948   4.431
44299SOL     OW34793   2.584  12.537  12.396
44299SOL    HW134794   2.573  12.538  12.301
44299SOL    HW234795   2.597  12.445  12.418
44300SOL     OW34796  12.913   8.492   0.543
44300SOL    HW134797  13.007   8.511   0.533
44300SOL    HW234798  12.910   8.399   0.567
44301SOL     OW34799   9.857   0.667   3.500
44301SOL    HW134800   9.929   0.713   3.544
44301SOL    HW234801   9.901   0.614   3.433
44302SOL     OW34802   5.341  14.819   5.299
44302SOL    HW134803   5.300  14.810   5.213
44302SOL    HW234804   5.416  14.760   5.296
44303SOL     OW34805  13.068  11.227   7.121
44303SOL    HW134806  13.116  11.144   7.127
44303SOL    HW234807  13.097  11.265   7.038
44304SOL     OW34808   6.233  12.724   9.789
44304SOL    HW134809   6.312  12.709   9.841
44304SOL    HW234810   6.265  12.749   9.702
44305SOL     OW34811   6.542  14.193   0.525
44305SOL    HW134812   6.485  14.259   0.485
44305SOL    HW234813   6.520  14.112   0.478
44306SOL     OW34814  11.732  11.806  13.900
44306SOL    HW134815  11.712  11.891  13.938
44306SOL    HW234816  11.757  11.825  13.810
44307SOL     OW34817   1.058   6.184   5.632
44307SOL    HW134818   1.066   6.279   5.624
44307SOL    HW234819   0.974   6.163   5.592
44308SOL     OW34820   7.829  12.205   4.230
44308SOL    HW134821   7.788  12.150   4.297
44308SOL    HW234822   7.800  12.294   4.252
44309SOL     OW34823  12.078   6.688   4.258
44309SOL    HW134824  12.045   6.725   4.340
44309SOL    HW234825  12.000   6.655   4.214
44310SOL     OW34826   7.369  14.528   1.329
44310SOL    HW134827   7.374  14.559   1.238
44310SOL    HW234828   7.276  14.532   1.350
44311SOL     OW34829   7.427   5.760  10.918
44311SOL    HW134830   7.415   5.854  10.904
44311SOL    HW234831   7.520   5.751  10.938
44312SOL     OW34832   1.973   9.910  13.276
44312SOL    HW134833   1.970   9.999  13.240
44312SOL    HW234834   1.968   9.923  13.371
44313SOL     OW34835  13.389  11.967   7.744
44313SOL    HW134836  13.332  12.027   7.792
44313SOL    HW234837  13.329  11.904   7.703
44314SOL     OW34838   8.279   4.177   5.564
44314SOL    HW134839   8.266   4.268   5.537
44314SOL    HW234840   8.197   4.152   5.605
44315SOL     OW34841   1.857   9.563  13.260
44315SOL    HW134842   1.858   9.469  13.277
44315SOL    HW234843   1.891   9.572  13.171
44316SOL     OW34844   4.528  11.833  14.374
44316SOL    HW134845   4.538  11.738  14.386
44316SOL    HW234846   4.558  11.848  14.284
44317SOL     OW34847   2.373   4.479   3.920
44317SOL    HW134848   2.379   4.440   4.007
44317SOL    HW234849   2.463   4.480   3.888
44318SOL     OW34850  13.574  14.532   9.205
44318SOL    HW134851  13.503  14.514   9.267
44318SOL    HW234852  13.643  14.471   9.230
44319SOL     OW34853   5.340   8.499   3.554
44319SOL    HW134854   5.370   8.433   3.617
44319SOL    HW234855   5.414   8.559   3.546
44320SOL     OW34856   0.223  11.376   4.555
44320SOL    HW134857   0.301  11.420   4.522
44320SOL    HW234858   0.190  11.433   4.624
44321SOL     OW34859  14.076  12.249  13.675
44321SOL    HW134860  14.082  12.339  13.643
44321SOL    HW234861  14.165  12.214  13.667
44322SOL     OW34862  13.784  13.812   0.788
44322SOL    HW134863  13.717  13.815   0.856
44322SOL    HW234864  13.735  13.801   0.707
44323SOL     OW34865   7.329  12.785   2.731
44323SOL    HW134866   7.299  12.829   2.651
44323SOL    HW234867   7.423  12.802   2.734
44324SOL     OW34868   7.087   5.659   1.076
44324SOL    HW134869   7.017   5.697   1.022
44324SOL    HW234870   7.044   5.638   1.159
44325SOL     OW34871   1.918   0.146   7.994
44325SOL    HW134872   1.964   0.225   7.966
44325SOL    HW234873   1.974   0.074   7.965
44326SOL     OW34874   9.576  10.972   4.895
44326SOL    HW134875   9.595  11.041   4.958
44326SOL    HW234876   9.484  10.950   4.911
44327SOL     OW34877  12.756   1.756  14.496
44327SOL    HW134878  12.715   1.820  14.555
44327SOL    HW234879  12.750   1.673  14.543
44328SOL     OW34880   6.443   9.483  14.029
44328SOL    HW134881   6.455   9.574  14.059
44328SOL    HW234882   6.510   9.471  13.962
44329SOL     OW34883  11.909   1.799   7.645
44329SOL    HW134884  11.821   1.768   7.623
44329SOL    HW234885  11.959   1.788   7.564
44330SOL     OW34886   4.446  12.880   7.879
44330SOL    HW134887   4.508  12.824   7.833
44330SOL    HW234888   4.459  12.859   7.972
44331SOL     OW34889   2.113   4.925  12.621
44331SOL    HW134890   2.071   5.007  12.648
44331SOL    HW234891   2.152   4.945  12.536
44332SOL     OW34892  11.269  13.861   6.767
44332SOL    HW134893  11.294  13.785   6.715
44332SOL    HW234894  11.255  13.930   6.702
44333SOL     OW34895  14.645   7.991   8.703
44333SOL    HW134896  14.587   7.921   8.731
44333SOL    HW234897  14.692   8.016   8.783
44334SOL     OW34898   5.168   0.541   3.599
44334SOL    HW134899   5.263   0.545   3.604
44334SOL    HW234900   5.138   0.548   3.689
44335SOL     OW34901   6.050  11.172   1.322
44335SOL    HW134902   6.108  11.177   1.398
44335SOL    HW234903   6.046  11.261   1.289
44336SOL     OW34904   7.406  13.398   3.734
44336SOL    HW134905   7.361  13.349   3.803
44336SOL    HW234906   7.352  13.384   3.656
44337SOL     OW34907  13.548   4.394  12.634
44337SOL    HW134908  13.480   4.370  12.571
44337SOL    HW234909  13.589   4.311  12.658
44338SOL     OW34910   9.455   2.202  10.083
44338SOL    HW134911   9.474   2.166  10.169
44338SOL    HW234912   9.448   2.126  10.026
44339SOL     OW34913   7.720   1.831   1.911
44339SOL    HW134914   7.643   1.776   1.921
44339SOL    HW234915   7.721   1.885   1.990
44340SOL     OW34916   8.625   9.549   8.900
44340SOL    HW134917   8.677   9.503   8.965
44340SOL    HW234918   8.686   9.612   8.861
44341SOL     OW34919   8.502   7.667   2.463
44341SOL    HW134920   8.436   7.656   2.532
44341SOL    HW234921   8.549   7.584   2.460
44342SOL     OW34922   2.406   2.557  13.182
44342SOL    HW134923   2.452   2.578  13.101
44342SOL    HW234924   2.422   2.464  13.196
44343SOL     OW34925   6.772  11.423  11.838
44343SOL    HW134926   6.826  11.402  11.761
44343SOL    HW234927   6.795  11.355  11.902
44344SOL     OW34928  11.518  11.235  10.620
44344SOL    HW134929  11.519  11.149  10.577
44344SOL    HW234930  11.433  11.239  10.663
44345SOL     OW34931  11.895   1.067   5.501
44345SOL    HW134932  11.804   1.096   5.502
44345SOL    HW234933  11.908   1.024   5.585
44346SOL     OW34934   3.512  13.792   1.033
44346SOL    HW134935   3.527  13.886   1.047
44346SOL    HW234936   3.539  13.751   1.116
44347SOL     OW34937   3.462   5.731   1.117
44347SOL    HW134938   3.412   5.811   1.133
44347SOL    HW234939   3.422   5.666   1.176
44348SOL     OW34940  13.715  10.452   8.186
44348SOL    HW134941  13.636  10.410   8.153
44348SOL    HW234942  13.685  10.535   8.223
44349SOL     OW34943  10.316   3.060  11.804
44349SOL    HW134944  10.384   3.110  11.758
44349SOL    HW234945  10.249   3.044  11.737
44350SOL     OW34946   0.251   8.940   2.267
44350SOL    HW134947   0.292   8.886   2.335
44350SOL    HW234948   0.257   8.888   2.187
44351SOL     OW34949   1.014   2.495   6.414
44351SOL    HW134950   0.988   2.581   6.383
44351SOL    HW234951   0.951   2.435   6.375
44352SOL     OW34952   1.156  10.396  12.276
44352SOL    HW134953   1.106  10.321  12.245
44352SOL    HW234954   1.191  10.369  12.361
44353SOL     OW34955   2.548   9.888   4.822
44353SOL    HW134956   2.563   9.811   4.876
44353SOL    HW234957   2.453   9.895   4.816
44354SOL     OW34958  12.713  14.355  13.378
44354SOL    HW134959  12.719  14.334  13.471
44354SOL    HW234960  12.619  14.355  13.360
44355SOL     OW34961   7.549   9.780   2.136
44355SOL    HW134962   7.593   9.830   2.204
44355SOL    HW234963   7.598   9.800   2.056
44356SOL     OW34964  13.967   4.619   3.044
44356SOL    HW134965  14.002   4.537   3.009
44356SOL    HW234966  13.931   4.595   3.130
44357SOL     OW34967   5.272  12.549   6.516
44357SOL    HW134968   5.199  12.517   6.463
44357SOL    HW234969   5.324  12.602   6.455
44358SOL     OW34970   2.454   3.889  10.967
44358SOL    HW134971   2.362   3.916  10.962
44358SOL    HW234972   2.469   3.839  10.887
44359SOL     OW34973   8.160   0.015   4.630
44359SOL    HW134974   8.132  14.796   4.608
44359SOL    HW234975   8.121   0.032   4.716
44360SOL     OW34976   6.945   7.683   2.613
44360SOL    HW134977   6.993   7.765   2.621
44360SOL    HW234978   7.000   7.618   2.657
44361SOL     OW34979   7.245   9.491   4.396
44361SOL    HW134980   7.232   9.476   4.489
44361SOL    HW234981   7.159   9.521   4.364
44362SOL     OW34982   3.763   8.923   0.376
44362SOL    HW134983   3.841   8.949   0.328
44362SOL    HW234984   3.755   8.829   0.358
44363SOL     OW34985  12.631  13.423   9.896
44363SOL    HW134986  12.550  13.377   9.916
44363SOL    HW234987  12.650  13.400   9.805
44364SOL     OW34988  13.886   7.427  13.105
44364SOL    HW134989  13.861   7.490  13.173
44364SOL    HW234990  13.941   7.478  13.045
44365SOL     OW34991  12.385   6.917  13.756
44365SOL    HW134992  12.417   6.997  13.714
44365SOL    HW234993  12.444   6.848  13.724
44366SOL     OW34994   6.177   3.339   1.048
44366SOL    HW134995   6.087   3.327   1.080
44366SOL    HW234996   6.224   3.263   1.081
44367SOL     OW34997   8.443   1.053   7.839
44367SOL    HW134998   8.475   1.142   7.854
44367SOL    HW234999   8.461   1.036   7.746
44368SOL     OW35000   3.749   7.319   4.120
44368SOL    HW135001   3.680   7.350   4.178
44368SOL    HW235002   3.810   7.393   4.114
44369SOL     OW35003  11.555   8.932   0.083
44369SOL    HW135004  11.497   8.996   0.126
44369SOL    HW235005  11.632   8.983   0.059
44370SOL     OW35006   5.632   9.475   2.888
44370SOL    HW135007   5.642   9.394   2.939
44370SOL    HW235008   5.623   9.446   2.798
44371SOL     OW35009   5.311  14.453   0.179
44371SOL    HW135010   5.336  14.387   0.243
44371SOL    HW235011   5.306  14.534   0.229
44372SOL     OW35012   9.690   6.868   4.318
44372SOL    HW135013   9.650   6.952   4.296
44372SOL    HW235014   9.782   6.878   4.298
44373SOL     OW35015   7.321   2.006   9.998
44373SOL    HW135016   7.295   1.946   9.928
44373SOL    HW235017   7.373   1.952  10.057
44374SOL     OW35018   3.328   1.072  10.635
44374SOL    HW135019   3.341   1.043  10.725
44374SOL    HW235020   3.403   1.128  10.616
44375SOL     OW35021  14.440   8.279  11.185
44375SOL    HW135022  14.488   8.343  11.237
44375SOL    HW235023  14.389   8.332  11.123
44376SOL     OW35024   8.194   9.735  11.060
44376SOL    HW135025   8.243   9.812  11.087
44376SOL    HW235026   8.130   9.721  11.130
44377SOL     OW35027   1.420  13.551   8.578
44377SOL    HW135028   1.507  13.513   8.563
44377SOL    HW235029   1.437  13.628   8.631
44378SOL     OW35030  10.243   0.889   5.501
44378SOL    HW135031  10.316   0.938   5.538
44378SOL    HW235032  10.249   0.803   5.542
44379SOL     OW35033  10.438   2.554  10.835
44379SOL    HW135034  10.467   2.643  10.812
44379SOL    HW235035  10.375   2.531  10.767
44380SOL     OW35036   8.956   5.115  11.083
44380SOL    HW135037   8.977   5.049  11.017
44380SOL    HW235038   8.873   5.153  11.053
44381SOL     OW35039  10.214   5.688   3.335
44381SOL    HW135040  10.235   5.678   3.242
44381SOL    HW235041  10.270   5.760   3.364
44382SOL     OW35042  11.264   2.672   9.575
44382SOL    HW135043  11.176   2.709   9.589
44382SOL    HW235044  11.285   2.628   9.657
44383SOL     OW35045  13.191   7.604   8.582
44383SOL    HW135046  13.267   7.593   8.639
44383SOL    HW235047  13.222   7.657   8.509
44384SOL     OW35048   0.448   7.634   2.295
44384SOL    HW135049   0.532   7.621   2.250
44384SOL    HW235050   0.385   7.647   2.224
44385SOL     OW35051   4.182   1.285   1.236
44385SOL    HW135052   4.108   1.225   1.240
44385SOL    HW235053   4.151   1.365   1.278
44386SOL     OW35054  13.513   5.187   0.987
44386SOL    HW135055  13.531   5.093   1.000
44386SOL    HW235056  13.598   5.229   0.991
44387SOL     OW35057   0.883  10.080  13.033
44387SOL    HW135058   0.874  10.080  12.938
44387SOL    HW235059   0.816  10.142  13.063
44388SOL     OW35060   8.218   9.215   5.501
44388SOL    HW135061   8.179   9.300   5.523
44388SOL    HW235062   8.174   9.153   5.560
44389SOL     OW35063   0.698   8.388   6.141
44389SOL    HW135064   0.642   8.367   6.215
44389SOL    HW235065   0.658   8.341   6.067
44390SOL     OW35066   0.467  13.348   5.341
44390SOL    HW135067   0.427  13.377   5.423
44390SOL    HW235068   0.414  13.391   5.273
44391SOL     OW35069  14.266  12.973   1.650
44391SOL    HW135070  14.262  13.036   1.579
44391SOL    HW235071  14.358  12.946   1.653
44392SOL     OW35072  10.450   7.212   4.164
44392SOL    HW135073  10.511   7.279   4.192
44392SOL    HW235074  10.478   7.190   4.075
44393SOL     OW35075  10.831   5.173  10.750
44393SOL    HW135076  10.778   5.233  10.803
44393SOL    HW235077  10.772   5.099  10.734
44394SOL     OW35078   3.169   5.352   4.447
44394SOL    HW135079   3.223   5.360   4.526
44394SOL    HW235080   3.213   5.405   4.382
44395SOL     OW35081  14.582   8.830   4.920
44395SOL    HW135082  14.590   8.892   4.993
44395SOL    HW235083  14.489   8.809   4.916
44396SOL     OW35084   9.450   5.533   4.009
44396SOL    HW135085   9.382   5.588   3.971
44396SOL    HW235086   9.533   5.575   3.985
44397SOL     OW35087  10.084   5.931  12.878
44397SOL    HW135088  10.171   5.897  12.900
44397SOL    HW235089  10.101   6.011  12.829
44398SOL     OW35090  10.007   9.830  14.765
44398SOL    HW135091   9.982   9.739  14.778
44398SOL    HW235092  10.077   9.845  14.829
44399SOL     OW35093  12.661   1.377  13.839
44399SOL    HW135094  12.704   1.300  13.801
44399SOL    HW235095  12.572   1.373  13.806
44400SOL     OW35096  12.836   1.933   7.605
44400SOL    HW135097  12.882   1.940   7.688
44400SOL    HW235098  12.819   1.839   7.595
44401SOL     OW35099   0.172   3.084   7.675
44401SOL    HW135100   0.219   3.027   7.736
44401SOL    HW235101   0.207   3.171   7.693
44402SOL     OW35102   6.098  12.880   3.360
44402SOL    HW135103   6.010  12.841   3.362
44402SOL    HW235104   6.087  12.960   3.309
44403SOL     OW35105   3.461  12.852  11.548
44403SOL    HW135106   3.427  12.763  11.541
44403SOL    HW235107   3.441  12.878  11.638
44404SOL     OW35108  12.037   9.582  13.344
44404SOL    HW135109  11.963   9.644  13.349
44404SOL    HW235110  12.101   9.627  13.290
44405SOL     OW35111  12.147   4.192  11.520
44405SOL    HW135112  12.113   4.195  11.431
44405SOL    HW235113  12.072   4.211  11.576
44406SOL     OW35114  11.550  10.330   0.288
44406SOL    HW135115  11.644  10.308   0.289
44406SOL    HW235116  11.519  10.302   0.374
44407SOL     OW35117   3.041   0.324  10.823
44407SOL    HW135118   3.095   0.246  10.832
44407SOL    HW235119   2.987   0.307  10.745
44408SOL     OW35120  14.697   3.892  11.933
44408SOL    HW135121  14.650   3.809  11.940
44408SOL    HW235122  14.784   3.868  11.903
44409SOL     OW35123   6.242  12.293  11.900
44409SOL    HW135124   6.336  12.281  11.915
44409SOL    HW235125   6.229  12.275  11.807
44410SOL     OW35126   9.780   6.572  13.121
44410SOL    HW135127   9.729   6.581  13.201
44410SOL    HW235128   9.859   6.624  13.136
44411SOL     OW35129  12.827   7.777   2.510
44411SOL    HW135130  12.742   7.752   2.474
44411SOL    HW235131  12.879   7.802   2.433
44412SOL     OW35132  12.978   1.502   5.924
44412SOL    HW135133  12.941   1.506   6.012
44412SOL    HW235134  13.068   1.472   5.937
44413SOL     OW35135   6.187   1.035   9.369
44413SOL    HW135136   6.270   1.056   9.411
44413SOL    HW235137   6.147   1.120   9.350
44414SOL     OW35138   8.115  10.208  11.805
44414SOL    HW135139   8.180  10.272  11.835
44414SOL    HW235140   8.040  10.222  11.863
44415SOL     OW35141   8.231   8.920  13.414
44415SOL    HW135142   8.226   8.871  13.332
44415SOL    HW235143   8.143   8.914  13.451
44416SOL     OW35144  11.424   8.104  14.346
44416SOL    HW135145  11.437   8.129  14.255
44416SOL    HW235146  11.383   8.182  14.386
44417SOL     OW35147  10.800  11.888   1.876
44417SOL    HW135148  10.886  11.917   1.904
44417SOL    HW235149  10.811  11.862   1.785
44418SOL     OW35150   0.484  14.480  11.266
44418SOL    HW135151   0.528  14.563  11.245
44418SOL    HW235152   0.393  14.505  11.285
44419SOL     OW35153   1.024   2.703  12.823
44419SOL    HW135154   0.995   2.625  12.871
44419SOL    HW235155   0.958   2.715  12.754
44420SOL     OW35156   6.406  13.279   4.476
44420SOL    HW135157   6.400  13.371   4.453
44420SOL    HW235158   6.329  13.262   4.530
44421SOL     OW35159   2.445   3.025  10.275
44421SOL    HW135160   2.357   2.989  10.265
44421SOL    HW235161   2.433   3.120  10.270
44422SOL     OW35162   2.579   5.314   2.948
44422SOL    HW135163   2.551   5.391   2.898
44422SOL    HW235164   2.500   5.261   2.957
44423SOL     OW35165  13.238   1.322   3.143
44423SOL    HW135166  13.236   1.406   3.096
44423SOL    HW235167  13.165   1.273   3.108
44424SOL     OW35168   8.058  11.961   2.536
44424SOL    HW135169   7.994  11.894   2.512
44424SOL    HW235170   8.056  12.023   2.463
44425SOL     OW35171   4.051   4.751   0.799
44425SOL    HW135172   4.054   4.758   0.894
44425SOL    HW235173   4.101   4.827   0.768
44426SOL     OW35174   4.973  10.365   4.726
44426SOL    HW135175   4.937  10.349   4.639
44426SOL    HW235176   5.020  10.284   4.747
44427SOL     OW35177   7.490   4.643  13.285
44427SOL    HW135178   7.578   4.638  13.321
44427SOL    HW235179   7.445   4.567  13.322
44428SOL     OW35180   6.181  14.489  14.071
44428SOL    HW135181   6.167  14.573  14.027
44428SOL    HW235182   6.101  14.473  14.121
44429SOL     OW35183   4.547  13.451  12.635
44429SOL    HW135184   4.608  13.378  12.635
44429SOL    HW235185   4.469  13.417  12.592
44430SOL     OW35186   4.856   2.518   3.952
44430SOL    HW135187   4.828   2.610   3.949
44430SOL    HW235188   4.919   2.510   3.881
44431SOL     OW35189   4.445  11.585   5.277
44431SOL    HW135190   4.492  11.540   5.347
44431SOL    HW235191   4.354  11.556   5.287
44432SOL     OW35192   0.999   7.649  11.247
44432SOL    HW135193   0.956   7.685  11.170
44432SOL    HW235194   1.021   7.559  11.223
44433SOL     OW35195   5.870   6.991  14.407
44433SOL    HW135196   5.847   7.003  14.315
44433SOL    HW235197   5.816   7.055  14.454
44434SOL     OW35198  12.314   8.196   9.915
44434SOL    HW135199  12.406   8.200   9.889
44434SOL    HW235200  12.275   8.276   9.880
44435SOL     OW35201   6.600   1.726   9.305
44435SOL    HW135202   6.523   1.732   9.249
44435SOL    HW235203   6.648   1.650   9.273
44436SOL     OW35204   2.396   0.169   7.844
44436SOL    HW135205   2.391   0.264   7.849
44436SOL    HW235206   2.417   0.142   7.934
44437SOL     OW35207   4.171   3.954   7.302
44437SOL    HW135208   4.154   3.891   7.233
44437SOL    HW235209   4.106   4.023   7.288
44438SOL     OW35210   4.421   7.692   1.839
44438SOL    HW135211   4.484   7.625   1.867
44438SOL    HW235212   4.351   7.642   1.795
44439SOL     OW35213  14.194  10.410   6.267
44439SOL    HW135214  14.203  10.501   6.240
44439SOL    HW235215  14.112  10.381   6.228
44440SOL     OW35216   6.606  10.327   8.621
44440SOL    HW135217   6.524  10.363   8.656
44440SOL    HW235218   6.635  10.265   8.687
44441SOL     OW35219  10.352   5.647   1.158
44441SOL    HW135220  10.427   5.631   1.215
44441SOL    HW235221  10.280   5.668   1.217
44442SOL     OW35222  11.754   3.596   6.030
44442SOL    HW135223  11.797   3.643   5.959
44442SOL    HW235224  11.788   3.636   6.110
44443SOL     OW35225   4.724   7.424  11.850
44443SOL    HW135226   4.733   7.413  11.756
44443SOL    HW235227   4.813   7.417  11.884
44444SOL     OW35228   8.951   1.333   6.329
44444SOL    HW135229   8.914   1.250   6.360
44444SOL    HW235230   8.916   1.399   6.389
44445SOL     OW35231   6.333   3.039   1.174
44445SOL    HW135232   6.389   2.972   1.212
44445SOL    HW235233   6.365   3.050   1.084
44446SOL     OW35234   4.801   7.563   7.716
44446SOL    HW135235   4.886   7.574   7.758
44446SOL    HW235236   4.754   7.644   7.735
44447SOL     OW35237   5.513   0.363   7.967
44447SOL    HW135238   5.571   0.289   7.948
44447SOL    HW235239   5.460   0.333   8.041
44448SOL     OW35240   0.087   0.126  13.051
44448SOL    HW135241   0.038   0.190  13.102
44448SOL    HW235242   0.048   0.042  13.073
44449SOL     OW35243  12.826   7.764  13.729
44449SOL    HW135244  12.748   7.743  13.781
44449SOL    HW235245  12.887   7.692  13.749
44450SOL     OW35246   4.626   7.031   4.102
44450SOL    HW135247   4.693   6.971   4.069
44450SOL    HW235248   4.546   6.978   4.107
44451SOL     OW35249   4.169  13.507  14.267
44451SOL    HW135250   4.172  13.501  14.363
44451SOL    HW235251   4.082  13.539  14.247
44452SOL     OW35252  10.658  11.428   9.129
44452SOL    HW135253  10.728  11.470   9.079
44452SOL    HW235254  10.658  11.474   9.213
44453SOL     OW35255   5.261  11.737   0.107
44453SOL    HW135256   5.178  11.694   0.087
44453SOL    HW235257   5.326  11.666   0.102
44454SOL     OW35258   3.563   5.146   9.801
44454SOL    HW135259   3.628   5.195   9.750
44454SOL    HW235260   3.550   5.065   9.751
44455SOL     OW35261   4.808   0.942  13.905
44455SOL    HW135262   4.897   0.955  13.936
44455SOL    HW235263   4.768   0.886  13.972
44456SOL     OW35264  13.500  14.650  12.368
44456SOL    HW135265  13.565  14.720  12.379
44456SOL    HW235266  13.505  14.600  12.449
44457SOL     OW35267   8.813  12.076   4.558
44457SOL    HW135268   8.776  12.112   4.477
44457SOL    HW235269   8.858  11.996   4.531
44458SOL     OW35270   8.554   2.801  14.067
44458SOL    HW135271   8.613   2.844  14.129
44458SOL    HW235272   8.472   2.849  14.075
44459SOL     OW35273  10.993   4.205  12.226
44459SOL    HW135274  11.085   4.187  12.205
44459SOL    HW235275  10.989   4.203  12.321
44460SOL     OW35276  14.331   1.463   8.092
44460SOL    HW135277  14.356   1.471   8.000
44460SOL    HW235278  14.409   1.490   8.141
44461SOL     OW35279   9.127   0.427  12.239
44461SOL    HW135280   9.123   0.366  12.165
44461SOL    HW235281   9.082   0.382  12.310
44462SOL     OW35282  10.628   1.857   4.065
44462SOL    HW135283  10.685   1.787   4.098
44462SOL    HW235284  10.539   1.821   4.076
44463SOL     OW35285  11.058   7.922   1.995
44463SOL    HW135286  11.086   7.856   1.932
44463SOL    HW235287  11.075   8.006   1.951
44464SOL     OW35288   0.739   2.670   5.079
44464SOL    HW135289   0.814   2.667   5.020
44464SOL    HW235290   0.770   2.721   5.154
44465SOL     OW35291  14.339   9.357   4.813
44465SOL    HW135292  14.434   9.348   4.821
44465SOL    HW235293  14.313   9.281   4.759
44466SOL     OW35294   9.610  12.881   5.465
44466SOL    HW135295   9.655  12.804   5.432
44466SOL    HW235296   9.664  12.955   5.437
44467SOL     OW35297   9.274   2.338   9.579
44467SOL    HW135298   9.323   2.392   9.641
44467SOL    HW235299   9.248   2.261   9.631
44468SOL     OW35300  12.587   9.072  10.478
44468SOL    HW135301  12.601   9.034  10.391
44468SOL    HW235302  12.675   9.084  10.513
44469SOL     OW35303   6.660   8.809   2.114
44469SOL    HW135304   6.676   8.717   2.092
44469SOL    HW235305   6.699   8.858   2.041
44470SOL     OW35306   5.660   6.526   9.075
44470SOL    HW135307   5.646   6.446   9.126
44470SOL    HW235308   5.741   6.563   9.111
44471SOL     OW35309  12.515  14.601   7.907
44471SOL    HW135310  12.476  14.590   7.994
44471SOL    HW235311  12.444  14.578   7.846
44472SOL     OW35312   1.768  11.140  10.167
44472SOL    HW135313   1.734  11.113  10.252
44472SOL    HW235314   1.840  11.079  10.150
44473SOL     OW35315   9.622   4.093   4.840
44473SOL    HW135316   9.685   4.021   4.838
44473SOL    HW235317   9.549   4.062   4.787
44474SOL     OW35318   9.740   7.361   4.230
44474SOL    HW135319   9.718   7.291   4.290
44474SOL    HW235320   9.727   7.323   4.143
44475SOL     OW35321   6.652   9.124   8.619
44475SOL    HW135322   6.586   9.188   8.592
44475SOL    HW235323   6.611   9.078   8.693
44476SOL     OW35324   9.532  11.147   8.476
44476SOL    HW135325   9.475  11.105   8.540
44476SOL    HW235326   9.478  11.156   8.398
44477SOL     OW35327   3.433   7.984   3.398
44477SOL    HW135328   3.527   7.964   3.398
44477SOL    HW235329   3.429   8.078   3.418
44478SOL     OW35330   2.634  13.172   4.162
44478SOL    HW135331   2.621  13.126   4.245
44478SOL    HW235332   2.719  13.141   4.130
44479SOL     OW35333   1.592   0.315   4.752
44479SOL    HW135334   1.507   0.273   4.748
44479SOL    HW235335   1.585   0.389   4.692
44480SOL     OW35336   1.241   5.400  14.149
44480SOL    HW135337   1.275   5.485  14.120
44480SOL    HW235338   1.148   5.404  14.127
44481SOL     OW35339  14.162   3.962   6.066
44481SOL    HW135340  14.143   4.021   6.138
44481SOL    HW235341  14.257   3.951   6.068
44482SOL     OW35342   7.181   7.141   6.359
44482SOL    HW135343   7.135   7.196   6.423
44482SOL    HW235344   7.211   7.203   6.292
44483SOL     OW35345  12.729  14.254  14.841
44483SOL    HW135346  12.824  14.254  14.829
44483SOL    HW235347  12.700  14.336  14.802
44484SOL     OW35348   1.894   4.941  11.968
44484SOL    HW135349   1.877   4.873  11.903
44484SOL    HW235350   1.857   5.021  11.930
44485SOL     OW35351   5.230   2.554  13.048
44485SOL    HW135352   5.221   2.501  13.127
44485SOL    HW235353   5.205   2.642  13.075
44486SOL     OW35354   9.975  12.396   9.926
44486SOL    HW135355   9.926  12.366  10.003
44486SOL    HW235356   9.923  12.365   9.852
44487SOL     OW35357   2.937  14.466  13.870
44487SOL    HW135358   2.844  14.462  13.849
44487SOL    HW235359   2.975  14.389  13.827
44488SOL     OW35360  12.619  11.586   3.105
44488SOL    HW135361  12.602  11.650   3.174
44488SOL    HW235362  12.540  11.587   3.051
44489SOL     OW35363   6.472  12.727  13.988
44489SOL    HW135364   6.540  12.662  13.969
44489SOL    HW235365   6.400  12.677  14.025
44490SOL     OW35366   7.695   5.679  13.244
44490SOL    HW135367   7.623   5.719  13.195
44490SOL    HW235368   7.734   5.616  13.183
44491SOL     OW35369  13.795  13.528   4.456
44491SOL    HW135370  13.769  13.525   4.364
44491SOL    HW235371  13.803  13.436   4.482
44492SOL     OW35372   1.987   9.920   2.003
44492SOL    HW135373   1.908   9.867   2.011
44492SOL    HW235374   1.978   9.988   2.070
44493SOL     OW35375   8.153  14.019   5.153
44493SOL    HW135376   8.194  13.950   5.204
44493SOL    HW235377   8.220  14.047   5.090
44494SOL     OW35378   9.398   7.671  14.782
44494SOL    HW135379   9.421   7.736  14.715
44494SOL    HW235380   9.350   7.721  14.848
44495SOL     OW35381  14.614   5.133   1.419
44495SOL    HW135382  14.688   5.109   1.474
44495SOL    HW235383  14.613   5.228   1.420
44496SOL     OW35384   6.005  13.536   7.237
44496SOL    HW135385   5.917  13.505   7.218
44496SOL    HW235386   6.033  13.485   7.313
44497SOL     OW35387   2.066  11.885   3.880
44497SOL    HW135388   2.125  11.810   3.884
44497SOL    HW235389   2.105  11.944   3.816
44498SOL     OW35390  11.405   2.035  11.707
44498SOL    HW135391  11.428   1.972  11.639
44498SOL    HW235392  11.312   2.021  11.723
44499SOL     OW35393   0.450   6.471   7.614
44499SOL    HW135394   0.428   6.416   7.539
44499SOL    HW235395   0.401   6.552   7.600
44500SOL     OW35396  14.463   7.505   0.731
44500SOL    HW135397  14.457   7.409   0.731
44500SOL    HW235398  14.548   7.523   0.771
44501SOL     OW35399   0.747  12.116  11.077
44501SOL    HW135400   0.743  12.174  11.001
44501SOL    HW235401   0.839  12.116  11.103
44502SOL     OW35402  10.700   4.172   6.299
44502SOL    HW135403  10.743   4.254   6.274
44502SOL    HW235404  10.624   4.166   6.241
44503SOL     OW35405   1.885   5.456  13.179
44503SOL    HW135406   1.914   5.497  13.098
44503SOL    HW235407   1.966   5.435  13.226
44504SOL     OW35408   7.381   1.073  11.034
44504SOL    HW135409   7.415   1.162  11.042
44504SOL    HW235410   7.414   1.042  10.950
44505SOL     OW35411  14.734  14.200  13.475
44505SOL    HW135412  14.762  14.114  13.444
44505SOL    HW235413  14.642  14.188  13.499
44506SOL     OW35414   5.662  10.840   8.583
44506SOL    HW135415   5.576  10.802   8.601
44506SOL    HW235416   5.643  10.924   8.541
44507SOL     OW35417   4.408  11.147  13.089
44507SOL    HW135418   4.338  11.187  13.039
44507SOL    HW235419   4.488  11.191  13.059
44508SOL     OW35420   1.285  10.429  10.772
44508SOL    HW135421   1.299  10.442  10.679
44508SOL    HW235422   1.366  10.389  10.804
44509SOL     OW35423   8.316  10.292  12.372
44509SOL    HW135424   8.270  10.371  12.400
44509SOL    HW235425   8.262  10.257  12.300
44510SOL     OW35426   9.199   3.321  13.514
44510SOL    HW135427   9.149   3.271  13.449
44510SOL    HW235428   9.213   3.259  13.585
44511SOL     OW35429  12.515   3.327   3.055
44511SOL    HW135430  12.451   3.300   3.120
44511SOL    HW235431  12.555   3.406   3.092
44512SOL     OW35432   9.382   3.057   1.804
44512SOL    HW135433   9.402   3.085   1.714
44512SOL    HW235434   9.440   3.110   1.859
44513SOL     OW35435   8.167  14.788  11.374
44513SOL    HW135436   8.168  14.821  11.284
44513SOL    HW235437   8.217  14.852  11.424
44514SOL     OW35438  10.308   4.711  11.231
44514SOL    HW135439  10.354   4.731  11.312
44514SOL    HW235440  10.353   4.633  11.197
44515SOL     OW35441   1.569   2.563  14.055
44515SOL    HW135442   1.635   2.632  14.065
44515SOL    HW235443   1.488   2.611  14.039
44516SOL     OW35444   6.654  12.158  14.676
44516SOL    HW135445   6.726  12.095  14.675
44516SOL    HW235446   6.582  12.112  14.720
44517SOL     OW35447   5.006  11.589   7.969
44517SOL    HW135448   5.022  11.516   7.908
44517SOL    HW235449   5.019  11.667   7.916
44518SOL     OW35450   9.424   6.580   5.117
44518SOL    HW135451   9.509   6.611   5.085
44518SOL    HW235452   9.384   6.537   5.042
44519SOL     OW35453   3.166  13.064   1.698
44519SOL    HW135454   3.096  13.065   1.633
44519SOL    HW235455   3.180  13.156   1.720
44520SOL     OW35456   0.820  11.260   3.254
44520SOL    HW135457   0.848  11.228   3.340
44520SOL    HW235458   0.754  11.198   3.225
44521SOL     OW35459   4.442   0.597   2.503
44521SOL    HW135460   4.458   0.688   2.479
44521SOL    HW235461   4.375   0.602   2.572
44522SOL     OW35462   9.765  10.718   4.951
44522SOL    HW135463   9.688  10.664   4.970
44522SOL    HW235464   9.733  10.808   4.955
44523SOL     OW35465   3.797   4.452   4.703
44523SOL    HW135466   3.829   4.362   4.696
44523SOL    HW235467   3.863   4.505   4.659
44524SOL     OW35468   2.475  11.964  13.820
44524SOL    HW135469   2.422  11.894  13.859
44524SOL    HW235470   2.423  11.994  13.745
44525SOL     OW35471   0.137  11.154   0.537
44525SOL    HW135472   0.207  11.219   0.549
44525SOL    HW235473   0.059  11.207   0.522
44526SOL     OW35474   4.199  12.458   8.523
44526SOL    HW135475   4.134  12.390   8.504
44526SOL    HW235476   4.259  12.454   8.448
44527SOL     OW35477  12.305   1.012   5.935
44527SOL    HW135478  12.270   1.033   5.848
44527SOL    HW235479  12.372   0.945   5.919
44528SOL     OW35480   7.291   0.566  12.425
44528SOL    HW135481   7.331   0.628  12.364
44528SOL    HW235482   7.319   0.596  12.512
44529SOL     OW35483  10.138   5.927  10.305
44529SOL    HW135484  10.143   5.954  10.397
44529SOL    HW235485  10.206   5.978  10.262
44530SOL     OW35486   3.495  14.588  14.285
44530SOL    HW135487   3.468  14.504  14.321
44530SOL    HW235488   3.475  14.582  14.192
44531SOL     OW35489  12.223   2.994   6.410
44531SOL    HW135490  12.176   3.052   6.350
44531SOL    HW235491  12.240   2.915   6.359
44532SOL     OW35492   3.382  14.253   7.529
44532SOL    HW135493   3.312  14.312   7.501
44532SOL    HW235494   3.402  14.280   7.619
44533SOL     OW35495  13.771   6.671  10.126
44533SOL    HW135496  13.776   6.600  10.190
44533SOL    HW235497  13.754   6.627  10.043
44534SOL     OW35498   4.895   0.862   1.088
44534SOL    HW135499   4.887   0.815   1.171
44534SOL    HW235500   4.927   0.796   1.026
44535SOL     OW35501   4.295  11.780  10.314
44535SOL    HW135502   4.340  11.718  10.256
44535SOL    HW235503   4.329  11.760  10.402
44536SOL     OW35504  12.617   9.365  13.200
44536SOL    HW135505  12.536   9.315  13.210
44536SOL    HW235506  12.613   9.433  13.267
44537SOL     OW35507   2.792  10.363   9.603
44537SOL    HW135508   2.825  10.273   9.599
44537SOL    HW235509   2.824  10.404   9.523
44538SOL     OW35510   3.072   4.143   9.534
44538SOL    HW135511   3.018   4.132   9.456
44538SOL    HW235512   3.112   4.229   9.524
44539SOL     OW35513   6.404   8.299  11.082
44539SOL    HW135514   6.359   8.293  11.166
44539SOL    HW235515   6.416   8.208  11.055
44540SOL     OW35516   6.594   1.170  13.599
44540SOL    HW135517   6.598   1.113  13.522
44540SOL    HW235518   6.556   1.114  13.667
44541SOL     OW35519  14.278   0.241  11.787
44541SOL    HW135520  14.301   0.197  11.869
44541SOL    HW235521  14.359   0.238  11.735
44542SOL     OW35522   9.062   7.940   1.816
44542SOL    HW135523   8.980   7.891   1.827
44542SOL    HW235524   9.106   7.897   1.743
44543SOL     OW35525  12.165   3.631  11.487
44543SOL    HW135526  12.134   3.688  11.416
44543SOL    HW235527  12.126   3.546  11.468
44544SOL     OW35528  11.796  14.044  10.037
44544SOL    HW135529  11.756  14.073   9.955
44544SOL    HW235530  11.818  14.125  10.082
44545SOL     OW35531  11.788  11.840   7.214
44545SOL    HW135532  11.794  11.751   7.249
44545SOL    HW235533  11.878  11.872   7.214
44546SOL     OW35534   7.392   2.453   7.658
44546SOL    HW135535   7.427   2.539   7.684
44546SOL    HW235536   7.435   2.391   7.716
44547SOL     OW35537   5.179  14.205  11.734
44547SOL    HW135538   5.153  14.296  11.742
44547SOL    HW235539   5.099  14.155  11.752
44548SOL     OW35540  12.593  11.178   5.836
44548SOL    HW135541  12.642  11.213   5.910
44548SOL    HW235542  12.502  11.176   5.866
44549SOL     OW35543  13.861   2.814   4.071
44549SOL    HW135544  13.953   2.825   4.095
44549SOL    HW235545  13.855   2.724   4.039
44550SOL     OW35546  11.100   8.122   3.691
44550SOL    HW135547  11.055   8.157   3.768
44550SOL    HW235548  11.062   8.170   3.617
44551SOL     OW35549  12.886   7.759   2.773
44551SOL    HW135550  12.878   7.766   2.678
44551SOL    HW235551  12.796   7.750   2.804
44552SOL     OW35552   7.002   6.300   4.123
44552SOL    HW135553   6.976   6.212   4.151
44552SOL    HW235554   7.017   6.292   4.029
44553SOL     OW35555   5.555   4.350  10.118
44553SOL    HW135556   5.638   4.397  10.126
44553SOL    HW235557   5.535   4.322  10.207
44554SOL     OW35558  12.721   6.796  12.128
44554SOL    HW135559  12.630   6.806  12.100
44554SOL    HW235560  12.722   6.829  12.218
44555SOL     OW35561   8.653  10.944   9.907
44555SOL    HW135562   8.580  11.006   9.910
44555SOL    HW235563   8.635  10.889   9.831
44556SOL     OW35564   5.729   8.812   2.649
44556SOL    HW135565   5.677   8.847   2.577
44556SOL    HW235566   5.700   8.721   2.657
44557SOL     OW35567   1.955   4.316  13.899
44557SOL    HW135568   2.012   4.346  13.969
44557SOL    HW235569   1.965   4.220  13.900
44558SOL     OW35570   1.725   1.068   1.107
44558SOL    HW135571   1.676   1.118   1.173
44558SOL    HW235572   1.790   1.130   1.074
44559SOL     OW35573  10.860   4.427  12.614
44559SOL    HW135574  10.847   4.493  12.682
44559SOL    HW235575  10.832   4.345  12.655
44560SOL     OW35576  11.551  13.700   2.656
44560SOL    HW135577  11.470  13.698   2.604
44560SOL    HW235578  11.525  13.663   2.741
44561SOL     OW35579  12.743   9.965  10.401
44561SOL    HW135580  12.776   9.898  10.341
44561SOL    HW235581  12.694   9.916  10.467
44562SOL     OW35582   2.021  10.010   6.047
44562SOL    HW135583   2.017   9.924   6.089
44562SOL    HW235584   2.111  10.039   6.060
44563SOL     OW35585   2.872  14.857   5.533
44563SOL    HW135586   2.847   0.067   5.581
44563SOL    HW235587   2.902  14.797   5.601
44564SOL     OW35588   7.170   0.116   7.498
44564SOL    HW135589   7.089   0.100   7.547
44564SOL    HW235590   7.146   0.182   7.433
44565SOL     OW35591  14.345   1.164   6.584
44565SOL    HW135592  14.290   1.167   6.663
44565SOL    HW235593  14.421   1.218   6.606
44566SOL     OW35594  14.654  10.442   8.672
44566SOL    HW135595  14.731  10.386   8.683
44566SOL    HW235596  14.656  10.500   8.748
44567SOL     OW35597   3.804   3.233  11.510
44567SOL    HW135598   3.877   3.291  11.532
44567SOL    HW235599   3.796   3.175  11.585
44568SOL     OW35600   3.042   7.305  14.035
44568SOL    HW135601   3.064   7.265  13.951
44568SOL    HW235602   3.113   7.277  14.094
44569SOL     OW35603   6.178   9.050   8.035
44569SOL    HW135604   6.130   9.047   8.117
44569SOL    HW235605   6.192   8.958   8.012
44570SOL     OW35606  13.404   2.536   0.028
44570SOL    HW135607  13.317   2.574   0.019
44570SOL    HW235608  13.391   2.442   0.015
44571SOL     OW35609   7.188   3.818  12.859
44571SOL    HW135610   7.151   3.813  12.947
44571SOL    HW235611   7.202   3.727  12.834
44572SOL     OW35612  11.877   7.411  13.849
44572SOL    HW135613  11.870   7.342  13.783
44572SOL    HW235614  11.942   7.379  13.911
44573SOL     OW35615  12.273  14.407   9.575
44573SOL    HW135616  12.310  14.326   9.611
44573SOL    HW235617  12.187  14.382   9.544
44574SOL     OW35618   3.754   9.610   6.186
44574SOL    HW135619   3.715   9.571   6.265
44574SOL    HW235620   3.733   9.703   6.193
44575SOL     OW35621  10.829   0.855   3.664
44575SOL    HW135622  10.858   0.938   3.702
44575SOL    HW235623  10.893   0.791   3.694
44576SOL     OW35624   6.409   6.514  11.090
44576SOL    HW135625   6.464   6.464  11.031
44576SOL    HW235626   6.436   6.486  11.178
44577SOL     OW35627  13.942   1.774   6.203
44577SOL    HW135628  14.012   1.711   6.218
44577SOL    HW235629  13.934   1.822   6.285
44578SOL     OW35630  14.295   9.017   7.532
44578SOL    HW135631  14.343   9.096   7.507
44578SOL    HW235632  14.312   9.006   7.625
44579SOL     OW35633   7.936  12.715   3.131
44579SOL    HW135634   7.911  12.679   3.046
44579SOL    HW235635   8.030  12.703   3.135
44580SOL     OW35636  11.209   6.707   9.780
44580SOL    HW135637  11.284   6.704   9.839
44580SOL    HW235638  11.231   6.775   9.717
44581SOL     OW35639   2.881  11.664  14.824
44581SOL    HW135640   2.836  11.580  14.827
44581SOL    HW235641   2.968  11.646  14.859
44582SOL     OW35642   4.371   0.367   3.296
44582SOL    HW135643   4.372   0.333   3.385
44582SOL    HW235644   4.437   0.315   3.250
44583SOL     OW35645   6.493  11.948  14.168
44583SOL    HW135646   6.473  12.038  14.195
44583SOL    HW235647   6.484  11.949  14.073
44584SOL     OW35648  14.421   4.765   6.339
44584SOL    HW135649  14.375   4.684   6.317
44584SOL    HW235650  14.425   4.765   6.435
44585SOL     OW35651  13.164   6.062   5.456
44585SOL    HW135652  13.114   5.982   5.441
44585SOL    HW235653  13.168   6.070   5.551
44586SOL     OW35654   3.101   4.642   9.579
44586SOL    HW135655   3.030   4.659   9.642
44586SOL    HW235656   3.103   4.720   9.524
44587SOL     OW35657   8.793   6.271   4.201
44587SOL    HW135658   8.765   6.344   4.145
44587SOL    HW235659   8.712   6.237   4.238
44588SOL     OW35660   7.055  10.310  10.073
44588SOL    HW135661   7.110  10.304  10.152
44588SOL    HW235662   7.010  10.225  10.069
44589SOL     OW35663   7.795  14.508  14.340
44589SOL    HW135664   7.725  14.559  14.380
44589SOL    HW235665   7.871  14.566  14.343
44590SOL     OW35666  14.801  12.737   5.006
44590SOL    HW135667  14.818  12.655   5.053
44590SOL    HW235668   0.009  12.790   5.023
44591SOL     OW35669   0.227   9.364  14.125
44591SOL    HW135670   0.271   9.437  14.169
44591SOL    HW235671   0.145   9.402  14.092
44592SOL     OW35672   3.163   2.473   6.126
44592SOL    HW135673   3.217   2.494   6.202
44592SOL    HW235674   3.114   2.395   6.153
44593SOL     OW35675   5.332   5.013   4.318
44593SOL    HW135676   5.368   5.021   4.229
44593SOL    HW235677   5.340   4.921   4.339
44594SOL     OW35678   8.356   7.889  12.187
44594SOL    HW135679   8.278   7.860  12.234
44594SOL    HW235680   8.325   7.958  12.129
44595SOL     OW35681   5.006   1.341   9.955
44595SOL    HW135682   5.015   1.377   9.867
44595SOL    HW235683   4.923   1.293   9.954
44596SOL     OW35684   2.571   6.963   7.182
44596SOL    HW135685   2.583   6.975   7.088
44596SOL    HW235686   2.658   6.974   7.219
44597SOL     OW35687   5.093   7.373  14.836
44597SOL    HW135688   5.106   7.306  14.768
44597SOL    HW235689   5.071   7.452  14.788
44598SOL     OW35690  13.013   7.822   6.115
44598SOL    HW135691  13.059   7.750   6.072
44598SOL    HW235692  12.945   7.847   6.053
44599SOL     OW35693   6.658   8.885  10.589
44599SOL    HW135694   6.732   8.905  10.647
44599SOL    HW235695   6.696   8.836  10.517
44600SOL     OW35696   4.297  14.102   6.920
44600SOL    HW135697   4.224  14.108   6.981
44600SOL    HW235698   4.257  14.079   6.836
44601SOL     OW35699   2.811  10.325  14.162
44601SOL    HW135700   2.865  10.276  14.099
44601SOL    HW235701   2.791  10.407  14.117
44602SOL     OW35702   4.575   5.957   1.743
44602SOL    HW135703   4.646   5.893   1.748
44602SOL    HW235704   4.532   5.953   1.828
44603SOL     OW35705   3.772   8.841   1.027
44603SOL    HW135706   3.730   8.773   0.974
44603SOL    HW235707   3.700   8.889   1.066
44604SOL     OW35708   4.597  12.746   9.762
44604SOL    HW135709   4.675  12.726   9.711
44604SOL    HW235710   4.596  12.841   9.768
44605SOL     OW35711  11.508   4.283   4.353
44605SOL    HW135712  11.581   4.280   4.416
44605SOL    HW235713  11.490   4.377   4.344
44606SOL     OW35714  12.228   1.634   0.691
44606SOL    HW135715  12.253   1.726   0.689
44606SOL    HW235716  12.218   1.614   0.784
44607SOL     OW35717  10.768   0.842   6.617
44607SOL    HW135718  10.764   0.764   6.672
44607SOL    HW235719  10.799   0.809   6.532
44608SOL     OW35720   5.697   8.579   1.909
44608SOL    HW135721   5.686   8.510   1.844
44608SOL    HW235722   5.690   8.660   1.859
44609SOL     OW35723   8.385  13.773  14.596
44609SOL    HW135724   8.403  13.805  14.684
44609SOL    HW235725   8.460  13.800  14.544
44610SOL     OW35726   8.555   9.844   1.736
44610SOL    HW135727   8.604   9.762   1.734
44610SOL    HW235728   8.605   9.900   1.795
44611SOL     OW35729  12.132   7.718  12.646
44611SOL    HW135730  12.188   7.660  12.698
44611SOL    HW235731  12.186   7.739  12.569
44612SOL     OW35732  10.981   6.199  10.469
44612SOL    HW135733  10.991   6.119  10.418
44612SOL    HW235734  11.019   6.178  10.554
44613SOL     OW35735  14.350  13.096   4.813
44613SOL    HW135736  14.297  13.138   4.745
44613SOL    HW235737  14.393  13.169   4.859
44614SOL     OW35738   9.283   5.968   2.875
44614SOL    HW135739   9.205   5.933   2.917
44614SOL    HW235740   9.288   5.923   2.791
44615SOL     OW35741  12.372   4.524   9.451
44615SOL    HW135742  12.333   4.439   9.472
44615SOL    HW235743  12.465   4.505   9.437
44616SOL     OW35744  13.108  10.755   9.403
44616SOL    HW135745  13.088  10.771   9.496
44616SOL    HW235746  13.161  10.831   9.377
44617SOL     OW35747   1.809   4.002   1.833
44617SOL    HW135748   1.760   3.951   1.768
44617SOL    HW235749   1.901   3.977   1.819
44618SOL     OW35750   2.835   0.829   6.956
44618SOL    HW135751   2.879   0.914   6.968
44618SOL    HW235752   2.752   0.838   7.001
44619SOL     OW35753   6.042   9.528   2.078
44619SOL    HW135754   6.119   9.576   2.048
44619SOL    HW235755   6.075   9.470   2.147
44620SOL     OW35756   8.242  11.411   3.188
44620SOL    HW135757   8.291  11.492   3.177
44620SOL    HW235758   8.150  11.436   3.173
44621SOL     OW35759   0.342  11.402   2.162
44621SOL    HW135760   0.357  11.454   2.083
44621SOL    HW235761   0.376  11.315   2.141
44622SOL     OW35762   0.094  14.268   2.070
44622SOL    HW135763   0.041  14.341   2.037
44622SOL    HW235764   0.042  14.190   2.051
44623SOL     OW35765   0.742   2.452  13.148
44623SOL    HW135766   0.730   2.385  13.216
44623SOL    HW235767   0.677   2.430  13.081
44624SOL     OW35768  12.364   8.713   0.948
44624SOL    HW135769  12.417   8.642   0.912
44624SOL    HW235770  12.294   8.726   0.884
44625SOL     OW35771   7.149  14.210   6.284
44625SOL    HW135772   7.129  14.301   6.304
44625SOL    HW235773   7.244  14.204   6.289
44626SOL     OW35774   5.600  14.248   2.474
44626SOL    HW135775   5.672  14.249   2.412
44626SOL    HW235776   5.615  14.171   2.529
44627SOL     OW35777   4.541  11.928   8.909
44627SOL    HW135778   4.511  11.981   8.983
44627SOL    HW235779   4.543  11.838   8.942
44628SOL     OW35780   1.706   9.416   2.109
44628SOL    HW135781   1.777   9.480   2.101
44628SOL    HW235782   1.627   9.469   2.123
44629SOL     OW35783   0.680   2.254  11.290
44629SOL    HW135784   0.617   2.192  11.328
44629SOL    HW235785   0.732   2.284  11.364
44630SOL     OW35786   4.454   7.910   8.385
44630SOL    HW135787   4.361   7.934   8.390
44630SOL    HW235788   4.491   7.938   8.468
44631SOL     OW35789   7.935   9.146   8.207
44631SOL    HW135790   7.990   9.070   8.192
44631SOL    HW235791   7.846   9.115   8.189
44632SOL     OW35792   4.564   4.005  12.427
44632SOL    HW135793   4.640   4.052  12.461
44632SOL    HW235794   4.490   4.063  12.446
44633SOL     OW35795   0.460  11.162   8.885
44633SOL    HW135796   0.412  11.098   8.832
44633SOL    HW235797   0.445  11.246   8.840
44634SOL     OW35798   9.246   1.458   8.348
44634SOL    HW135799   9.278   1.464   8.438
44634SOL    HW235800   9.318   1.493   8.295
44635SOL     OW35801   2.943  14.830   9.563
44635SOL    HW135802   2.976  14.854   9.477
44635SOL    HW235803   2.949  14.734   9.564
44636SOL     OW35804  14.018   2.143   4.441
44636SOL    HW135805  14.052   2.151   4.530
44636SOL    HW235806  14.096   2.127   4.387
44637SOL     OW35807   7.918   9.857   8.664
44637SOL    HW135808   7.975   9.879   8.738
44637SOL    HW235809   7.969   9.794   8.613
44638SOL     OW35810   3.527   6.632   9.490
44638SOL    HW135811   3.452   6.576   9.470
44638SOL    HW235812   3.600   6.571   9.500
44639SOL     OW35813   8.235  13.386   4.079
44639SOL    HW135814   8.194  13.332   4.011
44639SOL    HW235815   8.265  13.323   4.145
44640SOL     OW35816  14.471   5.007   1.925
44640SOL    HW135817  14.442   5.090   1.887
44640SOL    HW235818  14.413   4.993   2.000
44641SOL     OW35819   3.912  11.215  13.547
44641SOL    HW135820   3.955  11.133  13.524
44641SOL    HW235821   3.978  11.282  13.527
44642SOL     OW35822   4.634  14.803   6.233
44642SOL    HW135823   4.572  14.836   6.169
44642SOL    HW235824   4.655  14.714   6.203
44643SOL     OW35825   3.814   8.316  13.398
44643SOL    HW135826   3.735   8.271  13.368
44643SOL    HW235827   3.858   8.343  13.318
44644SOL     OW35828  12.434   0.318  11.203
44644SOL    HW135829  12.487   0.397  11.187
44644SOL    HW235830  12.484   0.247  11.164
44645SOL     OW35831   4.485   6.153   3.649
44645SOL    HW135832   4.535   6.222   3.693
44645SOL    HW235833   4.396   6.161   3.684
44646SOL     OW35834  12.788  14.589   8.771
44646SOL    HW135835  12.771  14.518   8.832
44646SOL    HW235836  12.704  14.602   8.725
44647SOL     OW35837  13.831   1.376   0.607
44647SOL    HW135838  13.906   1.355   0.663
44647SOL    HW235839  13.792   1.454   0.647
44648SOL     OW35840   1.688  10.353  10.102
44648SOL    HW135841   1.735  10.285  10.150
44648SOL    HW235842   1.604  10.360  10.146
44649SOL     OW35843   3.414   0.580   4.745
44649SOL    HW135844   3.430   0.486   4.743
44649SOL    HW235845   3.320   0.589   4.729
44650SOL     OW35846  14.341  11.685   8.787
44650SOL    HW135847  14.382  11.772   8.784
44650SOL    HW235848  14.269  11.695   8.849
44651SOL     OW35849   6.037  12.641   3.028
44651SOL    HW135850   6.100  12.576   3.058
44651SOL    HW235851   5.972  12.646   3.098
44652SOL     OW35852   7.156   2.065  11.235
44652SOL    HW135853   7.239   2.109  11.257
44652SOL    HW235854   7.113   2.051  11.320
44653SOL     OW35855   1.986  11.689   4.979
44653SOL    HW135856   2.068  11.704   4.931
44653SOL    HW235857   1.932  11.764   4.957
44654SOL     OW35858   9.777   1.998   3.595
44654SOL    HW135859   9.707   2.058   3.567
44654SOL    HW235860   9.848   2.056   3.624
44655SOL     OW35861   0.905   2.069  14.831
44655SOL    HW135862   0.944   2.125   0.028
44655SOL    HW235863   0.816   2.103  14.820
44656SOL     OW35864   2.312   9.842   1.058
44656SOL    HW135865   2.271   9.921   1.024
44656SOL    HW235866   2.340   9.794   0.980
44657SOL     OW35867   9.669   7.191   2.351
44657SOL    HW135868   9.630   7.119   2.400
44657SOL    HW235869   9.673   7.159   2.261
44658SOL     OW35870   7.920   3.611   6.299
44658SOL    HW135871   7.830   3.610   6.267
44658SOL    HW235872   7.915   3.648   6.387
44659SOL     OW35873   8.806   4.875  14.778
44659SOL    HW135874   8.870   4.911  14.839
44659SOL    HW235875   8.823   4.920  14.696
44660SOL     OW35876   4.639   6.440   5.294
44660SOL    HW135877   4.548   6.413   5.306
44660SOL    HW235878   4.683   6.362   5.262
44661SOL     OW35879   3.479   5.628   5.670
44661SOL    HW135880   3.429   5.642   5.590
44661SOL    HW235881   3.566   5.602   5.640
44662SOL     OW35882  13.656  11.709  11.436
44662SOL    HW135883  13.612  11.653  11.500
44662SOL    HW235884  13.746  11.677  11.434
44663SOL     OW35885  14.764  11.690   5.684
44663SOL    HW135886  14.732  11.774   5.648
44663SOL    HW235887  14.809  11.649   5.610
44664SOL     OW35888  11.446  10.104   4.442
44664SOL    HW135889  11.402  10.188   4.456
44664SOL    HW235890  11.534  10.129   4.412
44665SOL     OW35891   3.879   7.499  10.790
44665SOL    HW135892   3.922   7.556  10.854
44665SOL    HW235893   3.813   7.451  10.841
44666SOL     OW35894   6.768   7.328   2.416
44666SOL    HW135895   6.689   7.323   2.362
44666SOL    HW235896   6.790   7.236   2.434
44667SOL     OW35897   8.396   8.333   1.375
44667SOL    HW135898   8.312   8.296   1.402
44667SOL    HW235899   8.399   8.318   1.280
44668SOL     OW35900   3.399   2.721  12.489
44668SOL    HW135901   3.344   2.649  12.458
44668SOL    HW235902   3.347   2.800  12.472
44669SOL     OW35903   3.821   0.734   4.092
44669SOL    HW135904   3.874   0.812   4.073
44669SOL    HW235905   3.752   0.736   4.025
44670SOL     OW35906  12.406   8.925   4.257
44670SOL    HW135907  12.374   8.978   4.183
44670SOL    HW235908  12.434   8.990   4.322
44671SOL     OW35909   0.274  13.956   9.608
44671SOL    HW135910   0.179  13.951   9.602
44671SOL    HW235911   0.292  13.961   9.703
44672SOL     OW35912   2.442   2.848   5.004
44672SOL    HW135913   2.353   2.838   4.971
44672SOL    HW235914   2.434   2.835   5.099
44673SOL     OW35915  11.054   2.989   3.334
44673SOL    HW135916  10.985   3.055   3.333
44673SOL    HW235917  11.049   2.947   3.248
44674SOL     OW35918   3.410  11.823   0.760
44674SOL    HW135919   3.491  11.783   0.730
44674SOL    HW235920   3.436  11.910   0.792
44675SOL     OW35921  12.873  14.402   1.162
44675SOL    HW135922  12.956  14.442   1.138
44675SOL    HW235923  12.808  14.445   1.106
44676SOL     OW35924  11.277  11.262  10.760
44676SOL    HW135925  11.258  11.355  10.761
44676SOL    HW235926  11.196  11.221  10.730
44677SOL     OW35927  12.919   5.442  10.151
44677SOL    HW135928  12.841   5.484  10.187
44677SOL    HW235929  12.992   5.492  10.186
44678SOL     OW35930   9.814  10.402   9.069
44678SOL    HW135931   9.856  10.460   9.005
44678SOL    HW235932   9.872  10.326   9.072
44679SOL     OW35933   9.160   4.344  14.020
44679SOL    HW135934   9.104   4.348  13.943
44679SOL    HW235935   9.249   4.355  13.986
44680SOL     OW35936   7.975   5.782  13.269
44680SOL    HW135937   7.952   5.865  13.311
44680SOL    HW235938   7.892   5.750  13.233
44681SOL     OW35939   6.095  14.403   2.368
44681SOL    HW135940   6.079  14.401   2.274
44681SOL    HW235941   6.144  14.484   2.382
44682SOL     OW35942  14.049   2.356   8.552
44682SOL    HW135943  14.068   2.363   8.645
44682SOL    HW235944  14.106   2.421   8.510
44683SOL     OW35945   0.387  11.565   4.008
44683SOL    HW135946   0.342  11.591   4.088
44683SOL    HW235947   0.470  11.527   4.038
44684SOL     OW35948   2.172   1.085  10.136
44684SOL    HW135949   2.091   1.047  10.170
44684SOL    HW235950   2.228   1.009  10.119
44685SOL     OW35951   2.326   8.502  11.161
44685SOL    HW135952   2.249   8.556  11.177
44685SOL    HW235953   2.309   8.461  11.076
44686SOL     OW35954  13.020  10.599   9.173
44686SOL    HW135955  12.945  10.655   9.153
44686SOL    HW235956  13.070  10.649   9.238
44687SOL     OW35957   8.027   4.824   2.367
44687SOL    HW135958   8.104   4.843   2.421
44687SOL    HW235959   8.034   4.883   2.292
44688SOL     OW35960  14.249   8.916   3.764
44688SOL    HW135961  14.329   8.885   3.723
44688SOL    HW235962  14.198   8.954   3.693
44689SOL     OW35963   2.792   3.974   2.006
44689SOL    HW135964   2.710   3.974   1.957
44689SOL    HW235965   2.780   3.908   2.074
44690SOL     OW35966  12.694   5.721   1.531
44690SOL    HW135967  12.735   5.636   1.548
44690SOL    HW235968  12.698   5.731   1.435
44691SOL     OW35969   1.970   4.363   6.881
44691SOL    HW135970   1.889   4.402   6.851
44691SOL    HW235971   1.998   4.306   6.809
44692SOL     OW35972   6.980   3.560  10.640
44692SOL    HW135973   7.004   3.469  10.660
44692SOL    HW235974   6.932   3.555  10.558
44693SOL     OW35975   3.881   4.284   6.058
44693SOL    HW135976   3.905   4.191   6.067
44693SOL    HW235977   3.803   4.294   6.113
44694SOL     OW35978   7.249   3.829   4.719
44694SOL    HW135979   7.286   3.743   4.736
44694SOL    HW235980   7.284   3.885   4.789
44695SOL     OW35981  11.050   0.240   7.452
44695SOL    HW135982  11.080   0.207   7.367
44695SOL    HW235983  11.038   0.334   7.437
44696SOL     OW35984   4.302  11.515   6.956
44696SOL    HW135985   4.278  11.424   6.976
44696SOL    HW235986   4.395  11.510   6.932
44697SOL     OW35987  10.754   7.312   7.276
44697SOL    HW135988  10.725   7.306   7.367
44697SOL    HW235989  10.836   7.262   7.273
44698SOL     OW35990  12.004  13.541  12.480
44698SOL    HW135991  11.943  13.509  12.547
44698SOL    HW235992  12.084  13.562  12.528
44699SOL     OW35993  11.527   9.592   5.737
44699SOL    HW135994  11.452   9.647   5.758
44699SOL    HW235995  11.529   9.527   5.806
44700SOL     OW35996   4.015   9.748  12.537
44700SOL    HW135997   4.100   9.709  12.515
44700SOL    HW235998   3.990   9.797  12.459
44701SOL     OW35999  12.347   0.707  13.507
44701SOL    HW136000  12.373   0.733  13.595
44701SOL    HW236001  12.427   0.713  13.455
44702SOL     OW36002  14.473  10.814   1.781
44702SOL    HW136003  14.468  10.770   1.866
44702SOL    HW236004  14.382  10.822   1.753
44703SOL     OW36005   8.699  13.699  14.035
44703SOL    HW136006   8.716  13.786  14.071
44703SOL    HW236007   8.718  13.709  13.941
44704SOL     OW36008  14.671  11.245   7.607
44704SOL    HW136009  14.578  11.240   7.629
44704SOL    HW236010  14.690  11.339   7.601
44705SOL     OW36011  11.184   2.868  11.881
44705SOL    HW136012  11.145   2.823  11.956
44705SOL    HW236013  11.148   2.823  11.804
44706SOL     OW36014  10.249   4.749   0.437
44706SOL    HW136015  10.244   4.817   0.370
44706SOL    HW236016  10.208   4.788   0.514
44707SOL     OW36017  14.227  13.759   0.484
44707SOL    HW136018  14.210  13.677   0.530
44707SOL    HW236019  14.304  13.740   0.430
44708SOL     OW36020   2.623   8.564   4.613
44708SOL    HW136021   2.669   8.481   4.601
44708SOL    HW236022   2.620   8.602   4.526
44709SOL     OW36023   4.146  14.719   6.434
44709SOL    HW136024   4.234  14.707   6.400
44709SOL    HW236025   4.126  14.636   6.477
44710SOL     OW36026  13.542  13.195  11.883
44710SOL    HW136027  13.542  13.169  11.975
44710SOL    HW236028  13.625  13.242  11.872
44711SOL     OW36029  11.346   0.372   5.794
44711SOL    HW136030  11.379   0.283   5.804
44711SOL    HW236031  11.412   0.417   5.742
44712SOL     OW36032   3.508   6.565  13.843
44712SOL    HW136033   3.596   6.545  13.874
44712SOL    HW236034   3.516   6.650  13.799
44713SOL     OW36035   6.434   8.096  14.657
44713SOL    HW136036   6.408   8.171  14.710
44713SOL    HW236037   6.424   8.021  14.715
44714SOL     OW36038  13.416  10.946  12.140
44714SOL    HW136039  13.337  10.987  12.104
44714SOL    HW236040  13.469  10.925  12.063
44715SOL     OW36041   9.324   3.831   8.511
44715SOL    HW136042   9.371   3.834   8.594
44715SOL    HW236043   9.264   3.757   8.521
44716SOL     OW36044   5.928   7.966   1.336
44716SOL    HW136045   5.908   8.056   1.364
44716SOL    HW236046   5.920   7.969   1.241
44717SOL     OW36047  11.995   3.953   5.687
44717SOL    HW136048  12.028   3.880   5.634
44717SOL    HW236049  11.998   4.029   5.629
44718SOL     OW36050  11.757  13.540   3.416
44718SOL    HW136051  11.772  13.468   3.354
44718SOL    HW236052  11.775  13.619   3.365
44719SOL     OW36053  11.427  10.922  11.330
44719SOL    HW136054  11.403  10.990  11.393
44719SOL    HW236055  11.343  10.894  11.293
44720SOL     OW36056   1.962  14.507   6.930
44720SOL    HW136057   2.009  14.588   6.912
44720SOL    HW236058   1.948  14.468   6.844
44721SOL     OW36059  11.859   9.123   1.110
44721SOL    HW136060  11.924   9.081   1.053
44721SOL    HW236061  11.887   9.215   1.113
44722SOL     OW36062   5.158   1.663  10.603
44722SOL    HW136063   5.170   1.639  10.511
44722SOL    HW236064   5.072   1.630  10.626
44723SOL     OW36065   7.893   2.419   8.179
44723SOL    HW136066   7.989   2.425   8.176
44723SOL    HW236067   7.875   2.326   8.165
44724SOL     OW36068   6.204  14.150   0.513
44724SOL    HW136069   6.166  14.229   0.474
44724SOL    HW236070   6.272  14.123   0.452
44725SOL     OW36071  10.106   7.156  11.384
44725SOL    HW136072  10.035   7.097  11.412
44725SOL    HW236073  10.085   7.240  11.426
44726SOL     OW36074  13.527  12.208   0.617
44726SOL    HW136075  13.592  12.233   0.551
44726SOL    HW236076  13.498  12.292   0.655
44727SOL     OW36077   7.905   0.789   9.277
44727SOL    HW136078   7.985   0.837   9.298
44727SOL    HW236079   7.834   0.852   9.295
44728SOL     OW36080   6.023   1.824   7.286
44728SOL    HW136081   6.111   1.797   7.261
44728SOL    HW236082   6.028   1.919   7.295
44729SOL     OW36083   2.144   7.100  13.568
44729SOL    HW136084   2.091   7.154  13.627
44729SOL    HW236085   2.230   7.142  13.568
44730SOL     OW36086   3.823   8.545  10.486
44730SOL    HW136087   3.888   8.564  10.419
44730SOL    HW236088   3.739   8.563  10.444
44731SOL     OW36089  12.653   8.967   1.282
44731SOL    HW136090  12.598   8.891   1.261
44731SOL    HW236091  12.594   9.026   1.329
44732SOL     OW36092  14.731   5.058   5.379
44732SOL    HW136093  14.668   5.016   5.438
44732SOL    HW236094  14.813   5.059   5.428
44733SOL     OW36095  14.551  13.216   0.504
44733SOL    HW136096  14.645  13.229   0.518
44733SOL    HW236097  14.543  13.126   0.474
44734SOL     OW36098   7.180   6.708   6.777
44734SOL    HW136099   7.251   6.758   6.737
44734SOL    HW236100   7.118   6.775   6.806
44735SOL     OW36101   0.673   0.088   5.927
44735SOL    HW136102   0.760   0.050   5.915
44735SOL    HW236103   0.642   0.106   5.838
44736SOL     OW36104  11.523   0.182  13.991
44736SOL    HW136105  11.549   0.141  13.908
44736SOL    HW236106  11.557   0.271  13.986
44737SOL     OW36107  12.090   6.312  10.164
44737SOL    HW136108  12.161   6.377  10.162
44737SOL    HW236109  12.131   6.232  10.131
44738SOL     OW36110  10.866   2.268   5.419
44738SOL    HW136111  10.955   2.284   5.386
44738SOL    HW236112  10.864   2.310   5.505
44739SOL     OW36113   0.463  13.372   5.909
44739SOL    HW136114   0.489  13.297   5.857
44739SOL    HW236115   0.537  13.433   5.903
44740SOL     OW36116   1.299   1.666  10.087
44740SOL    HW136117   1.364   1.654  10.157
44740SOL    HW236118   1.316   1.755  10.054
44741SOL     OW36119   7.673   9.666   9.280
44741SOL    HW136120   7.613   9.669   9.206
44741SOL    HW236121   7.753   9.628   9.244
44742SOL     OW36122  10.150   7.179   0.217
44742SOL    HW136123  10.125   7.110   0.156
44742SOL    HW236124  10.145   7.260   0.166
44743SOL     OW36125  12.310   4.262   5.038
44743SOL    HW136126  12.245   4.310   4.986
44743SOL    HW236127  12.280   4.171   5.036
44744SOL     OW36128   3.901   3.338   1.308
44744SOL    HW136129   3.898   3.358   1.214
44744SOL    HW236130   3.992   3.315   1.324
44745SOL     OW36131   0.508   1.009   9.278
44745SOL    HW136132   0.540   0.931   9.322
44745SOL    HW236133   0.588   1.056   9.253
44746SOL     OW36134   3.645  11.186   4.936
44746SOL    HW136135   3.701  11.172   5.013
44746SOL    HW236136   3.565  11.137   4.956
44747SOL     OW36137   5.901   2.350  11.550
44747SOL    HW136138   5.936   2.438  11.557
44747SOL    HW236139   5.821   2.351  11.602
44748SOL     OW36140   7.503   4.661  12.389
44748SOL    HW136141   7.431   4.689  12.332
44748SOL    HW236142   7.574   4.638  12.329
44749SOL     OW36143   2.615  12.140   5.876
44749SOL    HW136144   2.672  12.083   5.927
44749SOL    HW236145   2.571  12.195   5.940
44750SOL     OW36146   7.723   9.665  11.499
44750SOL    HW136147   7.815   9.657  11.525
44750SOL    HW236148   7.714   9.608  11.423
44751SOL     OW36149   2.944   4.524  10.876
44751SOL    HW136150   2.950   4.457  10.945
44751SOL    HW236151   2.998   4.596  10.908
44752SOL     OW36152   9.402  11.796  12.239
44752SOL    HW136153   9.342  11.764  12.307
44752SOL    HW236154   9.477  11.829  12.288
44753SOL     OW36155  11.635   7.611   4.290
44753SOL    HW136156  11.695   7.537   4.297
44753SOL    HW236157  11.550   7.575   4.315
44754SOL     OW36158   7.175   8.306   4.698
44754SOL    HW136159   7.098   8.272   4.745
44754SOL    HW236160   7.246   8.247   4.722
44755SOL     OW36161  13.407  11.827  12.936
44755SOL    HW136162  13.337  11.881  12.972
44755SOL    HW236163  13.477  11.889  12.915
44756SOL     OW36164   8.153   8.656   0.426
44756SOL    HW136165   8.116   8.570   0.405
44756SOL    HW236166   8.227   8.637   0.484
44757SOL     OW36167  10.903   1.251   8.674
44757SOL    HW136168  10.813   1.220   8.665
44757SOL    HW236169  10.917   1.258   8.768
44758SOL     OW36170   0.132  13.421  12.767
44758SOL    HW136171   0.154  13.514  12.761
44758SOL    HW236172   0.164  13.384  12.685
44759SOL     OW36173   5.217   5.950   6.326
44759SOL    HW136174   5.164   5.965   6.248
44759SOL    HW236175   5.307   5.970   6.299
44760SOL     OW36176  11.359   4.215   9.785
44760SOL    HW136177  11.424   4.263   9.837
44760SOL    HW236178  11.399   4.206   9.699
44761SOL     OW36179   7.970  10.396   7.309
44761SOL    HW136180   7.980  10.305   7.335
44761SOL    HW236181   8.030  10.407   7.235
44762SOL     OW36182  11.166  11.735   6.780
44762SOL    HW136183  11.196  11.736   6.689
44762SOL    HW236184  11.134  11.646   6.794
44763SOL     OW36185   4.279   9.195   2.578
44763SOL    HW136186   4.355   9.232   2.622
44763SOL    HW236187   4.204   9.223   2.631
44764SOL     OW36188  12.368   3.275   1.909
44764SOL    HW136189  12.351   3.183   1.930
44764SOL    HW236190  12.452   3.294   1.952
44765SOL     OW36191  10.543   9.036   0.984
44765SOL    HW136192  10.620   8.981   0.997
44765SOL    HW236193  10.492   9.024   1.064
44766SOL     OW36194  14.004  14.773  14.281
44766SOL    HW136195  13.989  14.768  14.375
44766SOL    HW236196  14.044  14.859  14.268
44767SOL     OW36197   3.482  13.225   7.666
44767SOL    HW136198   3.425  13.215   7.742
44767SOL    HW236199   3.426  13.208   7.591
44768SOL     OW36200   7.139   5.142  13.008
44768SOL    HW136201   7.087   5.220  13.029
44768SOL    HW236202   7.126   5.084  13.083
44769SOL     OW36203   7.144   6.088  14.798
44769SOL    HW136204   7.096   6.165  14.768
44769SOL    HW236205   7.085   6.045  14.860
44770SOL     OW36206   8.527   2.851  14.561
44770SOL    HW136207   8.497   2.787  14.496
44770SOL    HW236208   8.463   2.922  14.556
44771SOL     OW36209   8.624   8.022   0.598
44771SOL    HW136210   8.534   8.030   0.566
44771SOL    HW236211   8.666   7.961   0.537
44772SOL     OW36212   5.022  13.657   7.257
44772SOL    HW136213   4.928  13.644   7.266
44772SOL    HW236214   5.054  13.576   7.218
44773SOL     OW36215  11.959   5.820  12.120
44773SOL    HW136216  11.905   5.891  12.157
44773SOL    HW236217  11.999   5.779  12.196
44774SOL     OW36218   4.487   0.491   0.423
44774SOL    HW136219   4.469   0.576   0.383
44774SOL    HW236220   4.434   0.429   0.372
44775SOL     OW36221  12.831   4.862  14.310
44775SOL    HW136222  12.909   4.904  14.272
44775SOL    HW236223  12.835   4.772  14.278
44776SOL     OW36224  14.235  13.018   6.780
44776SOL    HW136225  14.206  13.080   6.847
44776SOL    HW236226  14.282  12.950   6.828
44777SOL     OW36227   1.514   9.190   2.838
44777SOL    HW136228   1.421   9.194   2.862
44777SOL    HW236229   1.522   9.108   2.789
44778SOL     OW36230  12.103   7.944  13.909
44778SOL    HW136231  12.152   7.861  13.900
44778SOL    HW236232  12.051   7.931  13.989
44779SOL     OW36233  14.227   5.681  10.087
44779SOL    HW136234  14.202   5.720  10.170
44779SOL    HW236235  14.218   5.587  10.101
44780SOL     OW36236   5.112   2.207  14.529
44780SOL    HW136237   5.141   2.221  14.439
44780SOL    HW236238   5.192   2.206  14.581
44781SOL     OW36239   2.621  10.158   4.600
44781SOL    HW136240   2.688  10.160   4.669
44781SOL    HW236241   2.664  10.115   4.526
44782SOL     OW36242   9.252   4.256   0.276
44782SOL    HW136243   9.317   4.321   0.250
44782SOL    HW236244   9.205   4.236   0.195
44783SOL     OW36245   4.732   2.677   9.273
44783SOL    HW136246   4.780   2.722   9.342
44783SOL    HW236247   4.764   2.715   9.191
44784SOL     OW36248   5.905  13.654  13.282
44784SOL    HW136249   5.917  13.597  13.358
44784SOL    HW236250   5.851  13.602  13.222
44785SOL     OW36251   1.052  13.976   8.130
44785SOL    HW136252   1.141  13.983   8.095
44785SOL    HW236253   1.052  13.896   8.182
44786SOL     OW36254  12.225   7.625   3.831
44786SOL    HW136255  12.293   7.574   3.787
44786SOL    HW236256  12.187   7.678   3.761
44787SOL     OW36257   8.186  12.067   6.189
44787SOL    HW136258   8.243  11.992   6.175
44787SOL    HW236259   8.105  12.029   6.224
44788SOL     OW36260   4.001  13.788   6.157
44788SOL    HW136261   3.970  13.742   6.234
44788SOL    HW236262   4.064  13.729   6.116
44789SOL     OW36263  14.366  13.010  11.555
44789SOL    HW136264  14.301  12.955  11.513
44789SOL    HW236265  14.443  12.954  11.564
44790SOL     OW36266  14.732   4.574   4.900
44790SOL    HW136267  14.670   4.502   4.886
44790SOL    HW236268  14.693   4.626   4.970
44791SOL     OW36269  10.619   3.099   3.303
44791SOL    HW136270  10.704   3.125   3.268
44791SOL    HW236271  10.600   3.164   3.372
44792SOL     OW36272   9.774   5.296  11.775
44792SOL    HW136273   9.824   5.345  11.710
44792SOL    HW236274   9.790   5.343  11.857
44793SOL     OW36275   7.029  10.436  13.521
44793SOL    HW136276   7.032  10.390  13.605
44793SOL    HW236277   7.121  10.455  13.501
44794SOL     OW36278  13.607   0.181   8.143
44794SOL    HW136279  13.645   0.239   8.077
44794SOL    HW236280  13.558   0.116   8.092
44795SOL     OW36281  12.380   3.267   1.621
44795SOL    HW136282  12.381   3.255   1.716
44795SOL    HW236283  12.455   3.322   1.602
44796SOL     OW36284   6.510   4.608   1.816
44796SOL    HW136285   6.468   4.622   1.901
44796SOL    HW236286   6.586   4.554   1.836
44797SOL     OW36287  12.242   1.708   9.002
44797SOL    HW136288  12.287   1.640   9.053
44797SOL    HW236289  12.287   1.789   9.025
44798SOL     OW36290   4.613   8.302   1.378
44798SOL    HW136291   4.625   8.377   1.321
44798SOL    HW236292   4.539   8.326   1.435
44799SOL     OW36293   8.916  13.259   0.416
44799SOL    HW136294   9.001  13.282   0.453
44799SOL    HW236295   8.924  13.279   0.323
44800SOL     OW36296   7.464  11.438   9.152
44800SOL    HW136297   7.419  11.447   9.068
44800SOL    HW236298   7.413  11.371   9.199
44801SOL     OW36299   7.281  10.438   3.866
44801SOL    HW136300   7.375  10.449   3.875
44801SOL    HW236301   7.269  10.387   3.786
44802SOL     OW36302   0.713  10.249   4.428
44802SOL    HW136303   0.785  10.311   4.421
44802SOL    HW236304   0.669  10.272   4.510
44803SOL     OW36305   3.031  11.145   0.454
44803SOL    HW136306   3.068  11.227   0.422
44803SOL    HW236307   3.042  11.083   0.382
44804SOL     OW36308   7.559   2.435   1.937
44804SOL    HW136309   7.501   2.467   1.867
44804SOL    HW236310   7.642   2.480   1.921
44805SOL     OW36311  10.396  12.312   9.083
44805SOL    HW136312  10.474  12.368   9.080
44805SOL    HW236313  10.322  12.373   9.079
44806SOL     OW36314   7.320   8.377   7.393
44806SOL    HW136315   7.231   8.414   7.384
44806SOL    HW236316   7.308   8.283   7.381
44807SOL     OW36317   1.455   8.433  14.321
44807SOL    HW136318   1.364   8.463  14.316
44807SOL    HW236319   1.458   8.382  14.401
44808SOL     OW36320  14.402   6.622  11.304
44808SOL    HW136321  14.431   6.676  11.378
44808SOL    HW236322  14.391   6.684  11.232
44809SOL     OW36323   5.467   6.711   3.341
44809SOL    HW136324   5.440   6.656   3.414
44809SOL    HW236325   5.395   6.772   3.328
44810SOL     OW36326  10.594   6.249   0.674
44810SOL    HW136327  10.564   6.190   0.743
44810SOL    HW236328  10.525   6.314   0.666
44811SOL     OW36329   5.404   9.390  12.939
44811SOL    HW136330   5.321   9.371  12.983
44811SOL    HW236331   5.406   9.486  12.930
44812SOL     OW36332  12.869   2.531   0.605
44812SOL    HW136333  12.866   2.625   0.623
44812SOL    HW236334  12.873   2.490   0.692
44813SOL     OW36335   5.091   1.104   9.547
44813SOL    HW136336   4.995   1.098   9.545
44813SOL    HW236337   5.114   1.140   9.462
44814SOL     OW36338   2.690  10.235  13.871
44814SOL    HW136339   2.785  10.244  13.872
44814SOL    HW236340   2.665  10.247  13.779
44815SOL     OW36341  10.645   9.814  10.607
44815SOL    HW136342  10.569   9.869  10.587
44815SOL    HW236343  10.720   9.872  10.596
44816SOL     OW36344  10.597   3.874  14.685
44816SOL    HW136345  10.677   3.829  14.713
44816SOL    HW236346  10.616   3.902  14.595
44817SOL     OW36347   9.781   7.844   7.504
44817SOL    HW136348   9.768   7.841   7.599
44817SOL    HW236349   9.698   7.878   7.470
44818SOL     OW36350  10.114   3.596  10.874
44818SOL    HW136351  10.135   3.551  10.792
44818SOL    HW236352  10.074   3.529  10.929
44819SOL     OW36353   6.820  14.540   5.331
44819SOL    HW136354   6.778  14.539   5.418
44819SOL    HW236355   6.913  14.541   5.350
44820SOL     OW36356   4.491  13.118  12.056
44820SOL    HW136357   4.571  13.154  12.017
44820SOL    HW236358   4.473  13.039  12.006
44821SOL     OW36359   2.327   2.358  12.722
44821SOL    HW136360   2.281   2.274  12.723
44821SOL    HW236361   2.409   2.342  12.768
44822SOL     OW36362   9.898   4.452   7.705
44822SOL    HW136363   9.906   4.358   7.723
44822SOL    HW236364   9.945   4.494   7.777
44823SOL     OW36365   0.944   9.588   7.484
44823SOL    HW136366   0.933   9.626   7.571
44823SOL    HW236367   1.037   9.570   7.477
44824SOL     OW36368  13.038  11.617  14.167
44824SOL    HW136369  13.086  11.699  14.154
44824SOL    HW236370  13.101  11.549  14.143
44825SOL     OW36371  13.823   0.040   2.619
44825SOL    HW136372  13.759   0.001   2.679
44825SOL    HW236373  13.874   0.100   2.674
44826SOL     OW36374  12.231   4.024   7.953
44826SOL    HW136375  12.169   4.096   7.937
44826SOL    HW236376  12.207   3.958   7.887
44827SOL     OW36377   8.237   4.638  11.806
44827SOL    HW136378   8.306   4.678  11.753
44827SOL    HW236379   8.205   4.708  11.862
44828SOL     OW36380   7.512   2.416  11.917
44828SOL    HW136381   7.545   2.410  12.007
44828SOL    HW236382   7.420   2.442  11.927
44829SOL     OW36383   5.866   0.031   8.890
44829SOL    HW136384   5.824   0.026   8.804
44829SOL    HW236385   5.814  14.844   8.946
44830SOL     OW36386  11.177   8.410  14.188
44830SOL    HW136387  11.192   8.451  14.103
44830SOL    HW236388  11.206   8.475  14.252
44831SOL     OW36389  11.573   8.407  14.821
44831SOL    HW136390  11.600   8.432   0.039
44831SOL    HW236391  11.542   8.488  14.781
44832SOL     OW36392  13.333   8.324   9.087
44832SOL    HW136393  13.418   8.292   9.056
44832SOL    HW236394  13.281   8.245   9.099
44833SOL     OW36395   2.786   8.500   0.826
44833SOL    HW136396   2.851   8.452   0.774
44833SOL    HW236397   2.787   8.589   0.790
44834SOL     OW36398  12.308  12.966   0.553
44834SOL    HW136399  12.356  12.914   0.488
44834SOL    HW236400  12.375  13.021   0.593
44835SOL     OW36401   3.003   9.786   7.695
44835SOL    HW136402   3.078   9.813   7.748
44835SOL    HW236403   2.993   9.692   7.712
44836SOL     OW36404   0.337   4.968   8.623
44836SOL    HW136405   0.276   4.976   8.550
44836SOL    HW236406   0.380   4.884   8.610
44837SOL     OW36407   9.400   7.434   7.852
44837SOL    HW136408   9.401   7.530   7.853
44837SOL    HW236409   9.333   7.410   7.916
44838SOL     OW36410   5.353   1.111   7.722
44838SOL    HW136411   5.300   1.175   7.674
44838SOL    HW236412   5.339   1.029   7.676
44839SOL     OW36413   6.842  10.982   9.778
44839SOL    HW136414   6.843  11.022   9.865
44839SOL    HW236415   6.790  10.902   9.788
44840SOL     OW36416  10.371   8.557   7.851
44840SOL    HW136417  10.347   8.493   7.918
44840SOL    HW236418  10.463   8.577   7.869
44841SOL     OW36419   3.751  13.593  10.880
44841SOL    HW136420   3.744  13.669  10.822
44841SOL    HW236421   3.841  13.564  10.870
44842SOL     OW36422  13.842  14.330   1.600
44842SOL    HW136423  13.827  14.236   1.607
44842SOL    HW236424  13.891  14.353   1.679
44843SOL     OW36425  11.455   3.629   7.310
44843SOL    HW136426  11.372   3.623   7.356
44843SOL    HW236427  11.432   3.647   7.219
44844SOL     OW36428  13.568   7.521   8.535
44844SOL    HW136429  13.658   7.488   8.530
44844SOL    HW236430  13.565   7.571   8.617
44845SOL     OW36431   4.909   7.868   6.487
44845SOL    HW136432   4.974   7.915   6.434
44845SOL    HW236433   4.875   7.935   6.547
44846SOL     OW36434   8.163   4.393   2.315
44846SOL    HW136435   8.198   4.443   2.241
44846SOL    HW236436   8.236   4.386   2.376
44847SOL     OW36437   4.629   9.765   5.750
44847SOL    HW136438   4.654   9.673   5.749
44847SOL    HW236439   4.699   9.808   5.800
44848SOL     OW36440   5.838   5.202   6.792
44848SOL    HW136441   5.785   5.132   6.831
44848SOL    HW236442   5.855   5.172   6.703
44849SOL     OW36443  11.782   4.225  12.516
44849SOL    HW136444  11.719   4.294  12.497
44849SOL    HW236445  11.732   4.157  12.560
44850SOL     OW36446   6.551  13.609   7.957
44850SOL    HW136447   6.584  13.528   7.996
44850SOL    HW236448   6.478  13.635   8.013
44851SOL     OW36449   4.518  13.237   3.481
44851SOL    HW136450   4.466  13.211   3.558
44851SOL    HW236451   4.500  13.168   3.417
44852SOL     OW36452  11.699  12.635   0.591
44852SOL    HW136453  11.645  12.713   0.580
44852SOL    HW236454  11.680  12.606   0.680
44853SOL     OW36455   5.012  13.777   9.034
44853SOL    HW136456   5.078  13.756   9.100
44853SOL    HW236457   4.976  13.861   9.063
44854SOL     OW36458  11.327   7.705   5.916
44854SOL    HW136459  11.367   7.678   5.998
44854SOL    HW236460  11.235   7.678   5.924
44855SOL     OW36461   7.812  11.900   4.960
44855SOL    HW136462   7.825  11.970   5.023
44855SOL    HW236463   7.717  11.891   4.953
44856SOL     OW36464   2.591   8.391  10.295
44856SOL    HW136465   2.657   8.364  10.359
44856SOL    HW236466   2.584   8.316  10.235
44857SOL     OW36467   3.234  14.364   5.654
44857SOL    HW136468   3.266  14.319   5.576
44857SOL    HW236469   3.311  14.408   5.690
44858SOL     OW36470   1.427  10.804   2.284
44858SOL    HW136471   1.466  10.718   2.298
44858SOL    HW236472   1.358  10.789   2.219
44859SOL     OW36473  11.149   1.027  11.078
44859SOL    HW136474  11.115   0.944  11.110
44859SOL    HW236475  11.084   1.092  11.105
44860SOL     OW36476   8.224   5.633   8.124
44860SOL    HW136477   8.302   5.613   8.073
44860SOL    HW236478   8.158   5.570   8.093
44861SOL     OW36479   9.525   1.622   0.685
44861SOL    HW136480   9.475   1.542   0.703
44861SOL    HW236481   9.459   1.691   0.681
44862SOL     OW36482   6.942   9.424   1.057
44862SOL    HW136483   6.847   9.413   1.053
44862SOL    HW236484   6.957   9.513   1.025
44863SOL     OW36485  12.361  13.412   4.401
44863SOL    HW136486  12.282  13.359   4.415
44863SOL    HW236487  12.345  13.456   4.318
44864SOL     OW36488  11.863  13.321  11.478
44864SOL    HW136489  11.906  13.403  11.502
44864SOL    HW236490  11.834  13.335  11.388
44865SOL     OW36491  13.180   0.561  10.848
44865SOL    HW136492  13.136   0.646  10.852
44865SOL    HW236493  13.121   0.506  10.797
44866SOL     OW36494   0.704  10.842   4.089
44866SOL    HW136495   0.729  10.875   4.175
44866SOL    HW236496   0.772  10.778   4.068
44867SOL     OW36497  14.662   8.262   4.258
44867SOL    HW136498  14.745   8.303   4.281
44867SOL    HW236499  14.598   8.333   4.260
44868SOL     OW36500   6.117  12.791   2.810
44868SOL    HW136501   6.145  12.710   2.767
44868SOL    HW236502   6.082  12.762   2.894
44869SOL     OW36503  13.816   1.508   4.352
44869SOL    HW136504  13.873   1.561   4.408
44869SOL    HW236505  13.861   1.504   4.268
44870SOL     OW36506  11.577   6.546   4.400
44870SOL    HW136507  11.607   6.456   4.411
44870SOL    HW236508  11.491   6.548   4.444
44871SOL     OW36509   5.775   7.978   5.271
44871SOL    HW136510   5.818   8.038   5.210
44871SOL    HW236511   5.848   7.941   5.323
44872SOL     OW36512   6.127   2.174   6.767
44872SOL    HW136513   6.062   2.115   6.727
44872SOL    HW236514   6.089   2.261   6.755
44873SOL     OW36515   0.145  11.016   2.296
44873SOL    HW136516   0.068  10.960   2.299
44873SOL    HW236517   0.214  10.960   2.261
44874SOL     OW36518   6.230   5.178  10.701
44874SOL    HW136519   6.222   5.168  10.607
44874SOL    HW236520   6.142   5.159  10.735
44875SOL     OW36521   1.784  11.031   1.550
44875SOL    HW136522   1.877  11.030   1.576
44875SOL    HW236523   1.737  11.031   1.634
44876SOL     OW36524   4.747   9.774  13.682
44876SOL    HW136525   4.722   9.780  13.589
44876SOL    HW236526   4.759   9.864  13.710
44877SOL     OW36527  13.865   5.911   9.569
44877SOL    HW136528  13.838   5.845   9.633
44877SOL    HW236529  13.955   5.932   9.594
44878SOL     OW36530   2.916   6.569   0.845
44878SOL    HW136531   2.923   6.653   0.800
44878SOL    HW236532   2.906   6.505   0.775
44879SOL     OW36533   9.440  13.615   8.818
44879SOL    HW136534   9.378  13.680   8.785
44879SOL    HW236535   9.427  13.615   8.913
44880SOL     OW36536  14.690   1.492   9.858
44880SOL    HW136537  14.687   1.465   9.766
44880SOL    HW236538  14.714   1.584   9.855
44881SOL     OW36539   3.321   0.984  13.021
44881SOL    HW136540   3.230   0.972  12.991
44881SOL    HW236541   3.344   1.072  12.992
44882SOL     OW36542   0.414  10.282   9.333
44882SOL    HW136543   0.380  10.193   9.338
44882SOL    HW236544   0.458  10.296   9.418
44883SOL     OW36545   1.916   2.010   0.458
44883SOL    HW136546   1.982   2.030   0.525
44883SOL    HW236547   1.844   1.969   0.506
44884SOL     OW36548   9.632   1.804  14.517
44884SOL    HW136549   9.705   1.792  14.457
44884SOL    HW236550   9.624   1.899  14.526
44885SOL     OW36551  13.925   3.977  14.400
44885SOL    HW136552  13.885   3.896  14.368
44885SOL    HW236553  14.019   3.958  14.400
44886SOL     OW36554   6.145  12.427  11.155
44886SOL    HW136555   6.179  12.376  11.228
44886SOL    HW236556   6.065  12.466  11.187
44887SOL     OW36557   6.012   6.130   1.367
44887SOL    HW136558   6.037   6.152   1.456
44887SOL    HW236559   5.946   6.195   1.344
44888SOL     OW36560  14.652   8.580   2.702
44888SOL    HW136561  14.650   8.675   2.711
44888SOL    HW236562  14.638   8.547   2.791
44889SOL     OW36563  13.173   6.712   7.931
44889SOL    HW136564  13.239   6.723   7.862
44889SOL    HW236565  13.159   6.801   7.964
44890SOL     OW36566   3.014   4.219   2.945
44890SOL    HW136567   2.997   4.140   2.894
44890SOL    HW236568   2.996   4.193   3.036
44891SOL     OW36569  11.697   6.416   4.112
44891SOL    HW136570  11.681   6.336   4.162
44891SOL    HW236571  11.619   6.426   4.057
44892SOL     OW36572   9.847  13.210   1.757
44892SOL    HW136573   9.922  13.205   1.699
44892SOL    HW236574   9.819  13.119   1.769
44893SOL     OW36575   1.410   3.380  13.515
44893SOL    HW136576   1.427   3.338  13.430
44893SOL    HW236577   1.333   3.335  13.549
44894SOL     OW36578   1.669  14.372   0.223
44894SOL    HW136579   1.751  14.325   0.213
44894SOL    HW236580   1.607  14.324   0.169
44895SOL     OW36581  10.156   5.904   0.892
44895SOL    HW136582  10.173   5.810   0.900
44895SOL    HW236583  10.231   5.938   0.843
44896SOL     OW36584   8.493  11.624   8.491
44896SOL    HW136585   8.408  11.663   8.474
44896SOL    HW236586   8.554  11.672   8.435
44897SOL     OW36587   7.471  14.356   0.463
44897SOL    HW136588   7.486  14.262   0.468
44897SOL    HW236589   7.450  14.382   0.553
44898SOL     OW36590   2.522  13.110  13.235
44898SOL    HW136591   2.595  13.167  13.260
44898SOL    HW236592   2.526  13.038  13.298
44899SOL     OW36593   9.004   8.089   3.206
44899SOL    HW136594   9.096   8.094   3.182
44899SOL    HW236595   8.968   8.175   3.182
44900SOL     OW36596  10.340  14.204  13.191
44900SOL    HW136597  10.311  14.291  13.166
44900SOL    HW236598  10.362  14.161  13.108
44901SOL     OW36599  12.478   8.720   4.727
44901SOL    HW136600  12.518   8.784   4.668
44901SOL    HW236601  12.537   8.645   4.724
44902SOL     OW36602   4.481   0.277  12.555
44902SOL    HW136603   4.455   0.357  12.510
44902SOL    HW236604   4.498   0.304  12.646
44903SOL     OW36605   7.216  11.781   5.809
44903SOL    HW136606   7.310  11.767   5.800
44903SOL    HW236607   7.203  11.808   5.900
44904SOL     OW36608   7.541   1.296   9.736
44904SOL    HW136609   7.589   1.378   9.747
44904SOL    HW236610   7.455   1.313   9.775
44905SOL     OW36611  11.364   7.633   5.294
44905SOL    HW136612  11.292   7.696   5.290
44905SOL    HW236613  11.344   7.578   5.369
44906SOL     OW36614  13.737   7.235  14.329
44906SOL    HW136615  13.710   7.143  14.336
44906SOL    HW236616  13.681   7.281  14.391
44907SOL     OW36617   8.306   4.859   1.400
44907SOL    HW136618   8.304   4.862   1.496
44907SOL    HW236619   8.311   4.951   1.374
44908SOL     OW36620   9.717   9.831  10.235
44908SOL    HW136621   9.770   9.834  10.155
44908SOL    HW236622   9.630   9.857  10.207
44909SOL     OW36623   5.370   0.720   2.063
44909SOL    HW136624   5.383   0.814   2.050
44909SOL    HW236625   5.386   0.706   2.156
44910SOL     OW36626   7.875  14.390  12.916
44910SOL    HW136627   7.856  14.345  12.999
44910SOL    HW236628   7.900  14.479  12.942
44911SOL     OW36629  14.609   0.098   5.245
44911SOL    HW136630  14.521   0.096   5.281
44911SOL    HW236631  14.631   0.191   5.240
44912SOL     OW36632   9.909   2.780   2.740
44912SOL    HW136633   9.930   2.860   2.691
44912SOL    HW236634   9.816   2.766   2.726
44913SOL     OW36635  14.178   6.469   0.125
44913SOL    HW136636  14.260   6.506   0.156
44913SOL    HW236637  14.182   6.478   0.030
44914SOL     OW36638  14.188   9.669  13.335
44914SOL    HW136639  14.229   9.755  13.347
44914SOL    HW236640  14.260   9.612  13.309
44915SOL     OW36641  14.668   5.175   6.582
44915SOL    HW136642  14.695   5.173   6.490
44915SOL    HW236643  14.714   5.250   6.619
44916SOL     OW36644  10.345   9.614  14.025
44916SOL    HW136645  10.313   9.528  13.999
44916SOL    HW236646  10.403   9.641  13.954
44917SOL     OW36647  11.751  10.572   9.046
44917SOL    HW136648  11.835  10.598   9.083
44917SOL    HW236649  11.774  10.528   8.964
44918SOL     OW36650  13.740   4.722  14.318
44918SOL    HW136651  13.799   4.649  14.300
44918SOL    HW236652  13.752   4.781  14.244
44919SOL     OW36653   4.344  10.469   7.411
44919SOL    HW136654   4.252  10.493   7.402
44919SOL    HW236655   4.391  10.550   7.391
44920SOL     OW36656  11.040   7.438  11.854
44920SOL    HW136657  11.126   7.396  11.862
44920SOL    HW236658  11.053   7.504  11.785
44921SOL     OW36659   7.433   7.596   3.748
44921SOL    HW136660   7.495   7.661   3.781
44921SOL    HW236661   7.368   7.647   3.699
44922SOL     OW36662   6.220   6.593   1.844
44922SOL    HW136663   6.286   6.524   1.838
44922SOL    HW236664   6.142   6.549   1.877
44923SOL     OW36665   1.496   1.506   6.443
44923SOL    HW136666   1.413   1.554   6.452
44923SOL    HW236667   1.563   1.568   6.471
44924SOL     OW36668   7.184  10.022  11.048
44924SOL    HW136669   7.108   9.981  11.007
44924SOL    HW236670   7.187   9.984  11.136
44925SOL     OW36671   1.315   3.592   1.845
44925SOL    HW136672   1.310   3.497   1.852
44925SOL    HW236673   1.295   3.624   1.933
44926SOL     OW36674  13.586   8.976   2.980
44926SOL    HW136675  13.638   9.013   3.051
44926SOL    HW236676  13.650   8.932   2.923
44927SOL     OW36677   9.261   8.262  11.885
44927SOL    HW136678   9.340   8.245  11.937
44927SOL    HW236679   9.244   8.355  11.898
44928SOL     OW36680   1.668  12.570   0.814
44928SOL    HW136681   1.593  12.603   0.863
44928SOL    HW236682   1.740  12.628   0.839
44929SOL     OW36683  12.550  11.110   3.720
44929SOL    HW136684  12.580  11.138   3.807
44929SOL    HW236685  12.610  11.040   3.695
44930SOL     OW36686   5.245  14.543   0.739
44930SOL    HW136687   5.309  14.614   0.752
44930SOL    HW236688   5.172  14.585   0.695
44931SOL     OW36689  11.804   3.935   6.441
44931SOL    HW136690  11.736   3.974   6.386
44931SOL    HW236691  11.883   3.938   6.387
44932SOL     OW36692  14.632   1.502   9.551
44932SOL    HW136693  14.583   1.584   9.549
44932SOL    HW236694  14.572   1.437   9.513
44933SOL     OW36695   1.612  11.721   7.769
44933SOL    HW136696   1.694  11.744   7.726
44933SOL    HW236697   1.613  11.769   7.851
44934SOL     OW36698   7.683  14.773   8.782
44934SOL    HW136699   7.589  14.793   8.775
44934SOL    HW236700   7.698  14.766   8.877
44935SOL     OW36701   4.086   3.789   9.463
44935SOL    HW136702   4.005   3.792   9.412
44935SOL    HW236703   4.074   3.854   9.532
44936SOL     OW36704   8.428   4.606  11.184
44936SOL    HW136705   8.370   4.630  11.111
44936SOL    HW236706   8.376   4.624  11.262
44937SOL     OW36707  11.382   2.847   5.636
44937SOL    HW136708  11.381   2.758   5.673
44937SOL    HW236709  11.460   2.888   5.673
44938SOL     OW36710  12.115   9.292   8.225
44938SOL    HW136711  12.169   9.259   8.297
44938SOL    HW236712  12.078   9.374   8.258
44939SOL     OW36713   4.979   6.595   8.411
44939SOL    HW136714   4.990   6.686   8.385
44939SOL    HW236715   4.962   6.598   8.505
44940SOL     OW36716  14.283   5.223  12.551
44940SOL    HW136717  14.337   5.170  12.494
44940SOL    HW236718  14.338   5.298  12.574
44941SOL     OW36719   3.744   2.723   2.701
44941SOL    HW136720   3.674   2.779   2.668
44941SOL    HW236721   3.776   2.768   2.780
44942SOL     OW36722   2.447  14.307   0.230
44942SOL    HW136723   2.379  14.314   0.163
44942SOL    HW236724   2.410  14.353   0.306
44943SOL     OW36725   4.141   7.304   0.760
44943SOL    HW136726   4.184   7.389   0.748
44943SOL    HW236727   4.213   7.241   0.760
44944SOL     OW36728  11.306   8.852   0.672
44944SOL    HW136729  11.226   8.874   0.720
44944SOL    HW236730  11.376   8.896   0.720
44945SOL     OW36731   6.637  11.501   3.019
44945SOL    HW136732   6.623  11.515   2.925
44945SOL    HW236733   6.593  11.576   3.060
44946SOL     OW36734   2.650   2.357   1.701
44946SOL    HW136735   2.608   2.288   1.753
44946SOL    HW236736   2.593   2.433   1.712
44947SOL     OW36737   1.781   2.163  10.248
44947SOL    HW136738   1.873   2.137  10.255
44947SOL    HW236739   1.771   2.194  10.158
44948SOL     OW36740  11.663   8.003   7.064
44948SOL    HW136741  11.639   7.916   7.097
44948SOL    HW236742  11.694   7.988   6.975
44949SOL     OW36743   8.977   9.689   4.246
44949SOL    HW136744   8.985   9.699   4.340
44949SOL    HW236745   9.060   9.649   4.219
44950SOL     OW36746  10.228   9.250  12.699
44950SOL    HW136747  10.194   9.176  12.649
44950SOL    HW236748  10.219   9.325  12.640
44951SOL     OW36749   7.585   2.293   6.672
44951SOL    HW136750   7.619   2.356   6.735
44951SOL    HW236751   7.657   2.230   6.660
44952SOL     OW36752   8.869   7.928  13.194
44952SOL    HW136753   8.933   7.963  13.256
44952SOL    HW236754   8.918   7.919  13.112
44953SOL     OW36755   0.201   0.546  10.320
44953SOL    HW136756   0.262   0.473  10.315
44953SOL    HW236757   0.117   0.506  10.339
44954SOL     OW36758   3.271  11.212   4.023
44954SOL    HW136759   3.356  11.177   4.051
44954SOL    HW236760   3.267  11.299   4.063
44955SOL     OW36761   2.964  13.646  12.777
44955SOL    HW136762   2.939  13.628  12.868
44955SOL    HW236763   2.904  13.715  12.750
44956SOL     OW36764   7.810   8.299  10.357
44956SOL    HW136765   7.800   8.373  10.296
44956SOL    HW236766   7.904   8.297  10.376
44957SOL     OW36767   9.588  10.668   2.273
44957SOL    HW136768   9.531  10.592   2.276
44957SOL    HW236769   9.538  10.738   2.316
44958SOL     OW36770   5.379   4.643   3.501
44958SOL    HW136771   5.445   4.702   3.464
44958SOL    HW236772   5.430   4.582   3.554
44959SOL     OW36773  10.080  13.598   5.489
44959SOL    HW136774  10.100  13.509   5.515
44959SOL    HW236775  10.038  13.637   5.566
44960SOL     OW36776  11.075  13.482   2.244
44960SOL    HW136777  11.008  13.531   2.292
44960SOL    HW236778  11.104  13.542   2.175
44961SOL     OW36779   6.588   5.962   1.033
44961SOL    HW136780   6.546   6.006   0.959
44961SOL    HW236781   6.572   5.869   1.017
44962SOL     OW36782   2.827   6.507  12.401
44962SOL    HW136783   2.861   6.462  12.323
44962SOL    HW236784   2.836   6.600  12.381
44963SOL     OW36785  12.597   4.246   7.209
44963SOL    HW136786  12.688   4.273   7.222
44963SOL    HW236787  12.548   4.295   7.276
44964SOL     OW36788   5.269   0.304   2.574
44964SOL    HW136789   5.293   0.376   2.633
44964SOL    HW236790   5.193   0.264   2.615
44965SOL     OW36791  12.503   9.630  10.096
44965SOL    HW136792  12.592   9.593  10.098
44965SOL    HW236793  12.474   9.627  10.187
44966SOL     OW36794  13.440   0.725  13.744
44966SOL    HW136795  13.404   0.794  13.800
44966SOL    HW236796  13.527   0.707  13.781
44967SOL     OW36797   7.926  11.837   4.733
44967SOL    HW136798   8.018  11.857   4.750
44967SOL    HW236799   7.882  11.850   4.816
44968SOL     OW36800  11.566   6.417   3.316
44968SOL    HW136801  11.620   6.360   3.370
44968SOL    HW236802  11.512   6.466   3.378
44969SOL     OW36803   8.079  14.840   0.057
44969SOL    HW136804   8.090   0.022   0.137
44969SOL    HW236805   8.168  14.832   0.021
44970SOL     OW36806   8.026   9.651  12.541
44970SOL    HW136807   8.079   9.575  12.517
44970SOL    HW236808   8.073   9.725  12.504
44971SOL     OW36809   7.509   1.646  10.426
44971SOL    HW136810   7.577   1.647  10.359
44971SOL    HW236811   7.433   1.686  10.383
44972SOL     OW36812  11.411   1.122   5.450
44972SOL    HW136813  11.397   1.028   5.438
44972SOL    HW236814  11.324   1.160   5.437
44973SOL     OW36815   9.532   7.786   2.861
44973SOL    HW136816   9.575   7.731   2.796
44973SOL    HW236817   9.462   7.830   2.813
44974SOL     OW36818   5.521   8.312   5.660
44974SOL    HW136819   5.594   8.274   5.612
44974SOL    HW236820   5.456   8.334   5.594
44975SOL     OW36821  11.335  10.731  12.289
44975SOL    HW136822  11.246  10.765  12.279
44975SOL    HW236823  11.379  10.755  12.208
44976SOL     OW36824  12.317   5.523   7.509
44976SOL    HW136825  12.242   5.469   7.483
44976SOL    HW236826  12.285   5.574   7.583
44977SOL     OW36827  12.424   4.421  14.245
44977SOL    HW136828  12.356   4.365  14.282
44977SOL    HW236829  12.465   4.464  14.321
44978SOL     OW36830   6.194   3.514   1.392
44978SOL    HW136831   6.107   3.543   1.418
44978SOL    HW236832   6.183   3.421   1.370
44979SOL     OW36833   1.365   9.602   2.624
44979SOL    HW136834   1.340   9.676   2.569
44979SOL    HW236835   1.319   9.527   2.585
44980SOL     OW36836   0.124   8.408  11.791
44980SOL    HW136837   0.035   8.419  11.824
44980SOL    HW236838   0.155   8.496  11.774
44981SOL     OW36839   5.532  14.829   2.515
44981SOL    HW136840   5.547  14.735   2.515
44981SOL    HW236841   5.602  14.865   2.461
44982SOL     OW36842   5.667   9.204   2.963
44982SOL    HW136843   5.627   9.170   3.043
44982SOL    HW236844   5.725   9.134   2.933
44983SOL     OW36845   7.576   4.895   0.785
44983SOL    HW136846   7.559   4.988   0.768
44983SOL    HW236847   7.660   4.894   0.832
44984SOL     OW36848   8.258   3.279  12.755
44984SOL    HW136849   8.309   3.266  12.676
44984SOL    HW236850   8.217   3.194  12.772
44985SOL     OW36851   0.485   3.519   3.914
44985SOL    HW136852   0.499   3.464   3.836
44985SOL    HW236853   0.409   3.573   3.891
44986SOL     OW36854  11.221  10.257   9.156
44986SOL    HW136855  11.212  10.351   9.141
44986SOL    HW236856  11.151  10.235   9.217
44987SOL     OW36857   0.512   0.333  14.686
44987SOL    HW136858   0.562   0.296  14.759
44987SOL    HW236859   0.431   0.364  14.726
44988SOL     OW36860  11.087   9.259  11.890
44988SOL    HW136861  11.063   9.212  11.970
44988SOL    HW236862  11.050   9.206  11.819
44989SOL     OW36863  14.265   3.821  14.677
44989SOL    HW136864  14.261   3.776  14.592
44989SOL    HW236865  14.222   3.905  14.662
44990SOL     OW36866  11.693   5.629   7.917
44990SOL    HW136867  11.669   5.721   7.932
44990SOL    HW236868  11.694   5.590   8.004
44991SOL     OW36869  11.976   2.226  13.834
44991SOL    HW136870  11.907   2.226  13.900
44991SOL    HW236871  12.016   2.139  13.841
44992SOL     OW36872   3.631   6.323   5.827
44992SOL    HW136873   3.549   6.362   5.795
44992SOL    HW236874   3.671   6.391   5.881
44993SOL     OW36875  10.850  11.882   2.431
44993SOL    HW136876  10.937  11.921   2.433
44993SOL    HW236877  10.823  11.879   2.523
44994SOL     OW36878  13.614   9.387   0.611
44994SOL    HW136879  13.580   9.476   0.624
44994SOL    HW236880  13.536   9.332   0.607
44995SOL     OW36881   1.202   4.354   3.308
44995SOL    HW136882   1.271   4.293   3.335
44995SOL    HW236883   1.162   4.312   3.231
44996SOL     OW36884   3.077  10.120  10.937
44996SOL    HW136885   3.096  10.089  10.849
44996SOL    HW236886   3.163  10.134  10.977
44997SOL     OW36887   8.276   3.263   9.647
44997SOL    HW136888   8.221   3.198   9.690
44997SOL    HW236889   8.288   3.230   9.558
44998SOL     OW36890   0.654   3.095  13.407
44998SOL    HW136891   0.645   3.020  13.466
44998SOL    HW236892   0.625   3.062  13.322
44999SOL     OW36893  11.679  10.649  13.238
44999SOL    HW136894  11.605  10.706  13.219
44999SOL    HW236895  11.650  10.595  13.312
45000SOL     OW36896  13.133   0.314   6.114
45000SOL    HW136897  13.148   0.296   6.021
45000SOL    HW236898  13.075   0.243   6.142
45001SOL     OW36899   5.742   3.916   4.984
45001SOL    HW136900   5.669   3.869   4.944
45001SOL    HW236901   5.818   3.890   4.931
45002SOL     OW36902   8.046  10.576  14.169
45002SOL    HW136903   8.078  10.664  14.148
45002SOL    HW236904   8.102  10.546  14.240
45003SOL     OW36905   1.293  14.010   8.007
45003SOL    HW136906   1.343  14.013   7.925
45003SOL    HW236907   1.359  14.015   8.076
45004SOL     OW36908   7.490  10.545  11.967
45004SOL    HW136909   7.564  10.603  11.988
45004SOL    HW236910   7.525  10.485  11.901
45005SOL     OW36911   3.541   7.087   7.418
45005SOL    HW136912   3.604   7.156   7.395
45005SOL    HW236913   3.531   7.095   7.513
45006SOL     OW36914  11.875   2.776   9.576
45006SOL    HW136915  11.838   2.744   9.658
45006SOL    HW236916  11.820   2.850   9.551
45007SOL     OW36917   6.617  10.183   0.366
45007SOL    HW136918   6.692  10.197   0.424
45007SOL    HW236919   6.542  10.178   0.425
45008SOL     OW36920   2.747   1.828   2.801
45008SOL    HW136921   2.777   1.837   2.710
45008SOL    HW236922   2.827   1.813   2.851
45009SOL     OW36923   4.951  11.520   3.777
45009SOL    HW136924   4.964  11.445   3.835
45009SOL    HW236925   5.025  11.578   3.796
45010SOL     OW36926   2.885   8.222   2.595
45010SOL    HW136927   2.906   8.272   2.516
45010SOL    HW236928   2.847   8.140   2.562
45011SOL     OW36929   3.817  13.888   3.915
45011SOL    HW136930   3.875  13.885   3.991
45011SOL    HW236931   3.737  13.929   3.949
45012SOL     OW36932   8.778  11.214   6.639
45012SOL    HW136933   8.684  11.219   6.621
45012SOL    HW236934   8.815  11.170   6.563
45013SOL     OW36935  12.585  10.193  12.748
45013SOL    HW136936  12.654  10.240  12.700
45013SOL    HW236937  12.547  10.258  12.807
45014SOL     OW36938   8.599  12.347   3.577
45014SOL    HW136939   8.646  12.353   3.660
45014SOL    HW236940   8.562  12.259   3.576
45015SOL     OW36941   4.889  10.113  13.067
45015SOL    HW136942   4.957  10.179  13.053
45015SOL    HW236943   4.823  10.158  13.120
45016SOL     OW36944   7.043  12.986  14.622
45016SOL    HW136945   7.067  12.965  14.532
45016SOL    HW236946   6.948  12.973  14.626
45017SOL     OW36947   3.212  10.756  12.526
45017SOL    HW136948   3.141  10.815  12.501
45017SOL    HW236949   3.188  10.672  12.487
45018SOL     OW36950   9.187   5.490  12.830
45018SOL    HW136951   9.186   5.583  12.808
45018SOL    HW236952   9.103   5.475  12.873
45019SOL     OW36953  14.231  11.076  12.961
45019SOL    HW136954  14.238  10.984  12.934
45019SOL    HW236955  14.241  11.072  13.057
45020SOL     OW36956  14.235  13.719  10.059
45020SOL    HW136957  14.292  13.794  10.039
45020SOL    HW236958  14.294  13.644  10.059
45021SOL     OW36959   0.165  13.575   1.668
45021SOL    HW136960   0.233  13.608   1.727
45021SOL    HW236961   0.175  13.479   1.671
45022SOL     OW36962   9.452  14.188   8.710
45022SOL    HW136963   9.541  14.172   8.742
45022SOL    HW236964   9.418  14.256   8.768
45023SOL     OW36965   2.393   1.260   9.107
45023SOL    HW136966   2.452   1.262   9.182
45023SOL    HW236967   2.306   1.248   9.145
45024SOL     OW36968  11.400  13.135  10.869
45024SOL    HW136969  11.483  13.170  10.839
45024SOL    HW236970  11.357  13.209  10.912
45025SOL     OW36971  14.321   8.913  10.375
45025SOL    HW136972  14.226   8.907  10.368
45025SOL    HW236973  14.353   8.826  10.351
45026SOL     OW36974  11.182   3.185   7.199
45026SOL    HW136975  11.242   3.246   7.243
45026SOL    HW236976  11.114   3.241   7.161
45027SOL     OW36977   9.974   6.064   9.255
45027SOL    HW136978   9.978   5.972   9.280
45027SOL    HW236979  10.049   6.104   9.298
45028SOL     OW36980   4.309   1.374   5.251
45028SOL    HW136981   4.359   1.334   5.323
45028SOL    HW236982   4.258   1.443   5.293
45029SOL     OW36983   9.806   8.594   0.394
45029SOL    HW136984   9.887   8.644   0.381
45029SOL    HW236985   9.820   8.513   0.346
45030SOL     OW36986   6.121   5.958  13.453
45030SOL    HW136987   6.188   5.936  13.517
45030SOL    HW236988   6.039   5.926  13.491
45031SOL     OW36989  13.719   6.047   7.127
45031SOL    HW136990  13.766   6.103   7.066
45031SOL    HW236991  13.679   5.980   7.072
45032SOL     OW36992  12.074   5.230   5.585
45032SOL    HW136993  12.108   5.228   5.495
45032SOL    HW236994  12.122   5.160   5.630
45033SOL     OW36995   3.202   6.545   6.986
45033SOL    HW136996   3.285   6.531   7.031
45033SOL    HW236997   3.198   6.476   6.920
45034SOL     OW36998   5.626  13.485   4.383
45034SOL    HW136999   5.701  13.512   4.436
45034SOL    HW237000   5.652  13.501   4.293
45035SOL     OW37001  10.129   5.707   5.159
45035SOL    HW137002  10.089   5.698   5.073
45035SOL    HW237003  10.221   5.723   5.141
45036SOL     OW37004  10.816   1.439  13.992
45036SOL    HW137005  10.819   1.435  14.087
45036SOL    HW237006  10.756   1.511  13.972
45037SOL     OW37007   6.545   0.484  10.979
45037SOL    HW137008   6.597   0.517  10.906
45037SOL    HW237009   6.504   0.561  11.017
45038SOL     OW37010   6.817   2.033   6.991
45038SOL    HW137011   6.847   2.084   7.066
45038SOL    HW237012   6.727   2.064   6.976
45039SOL     OW37013   9.539   5.060   1.102
45039SOL    HW137014   9.557   5.143   1.145
45039SOL    HW237015   9.506   5.004   1.173
45040SOL     OW37016   4.105   8.754   4.380
45040SOL    HW137017   4.184   8.807   4.374
45040SOL    HW237018   4.041   8.800   4.325
45041SOL     OW37019   0.215   0.298   7.883
45041SOL    HW137020   0.206   0.313   7.789
45041SOL    HW237021   0.291   0.349   7.909
45042SOL     OW37022   5.576   2.165   7.143
45042SOL    HW137023   5.661   2.122   7.146
45042SOL    HW237024   5.555   2.184   7.234
45043SOL     OW37025  11.058   5.985   8.408
45043SOL    HW137026  11.128   5.992   8.473
45043SOL    HW237027  11.103   5.969   8.325
45044SOL     OW37028  13.098   9.855  10.281
45044SOL    HW137029  13.103   9.950  10.288
45044SOL    HW237030  13.011   9.833  10.313
45045SOL     OW37031  10.190   3.419  10.666
45045SOL    HW137032  10.166   3.357  10.597
45045SOL    HW237033  10.286   3.415  10.670
45046SOL     OW37034  11.224  13.921  13.859
45046SOL    HW137035  11.286  13.936  13.787
45046SOL    HW237036  11.138  13.933  13.820
45047SOL     OW37037  13.663  14.772   9.114
45047SOL    HW137038  13.641  14.679   9.124
45047SOL    HW237039  13.639  14.811   9.198
45048SOL     OW37040   5.863  13.620   9.809
45048SOL    HW137041   5.861  13.621   9.713
45048SOL    HW237042   5.829  13.534   9.833
45049SOL     OW37043   7.835  13.634   9.698
45049SOL    HW137044   7.850  13.631   9.793
45049SOL    HW237045   7.861  13.547   9.667
45050SOL     OW37046   7.450   8.474   7.933
45050SOL    HW137047   7.392   8.491   8.007
45050SOL    HW237048   7.399   8.415   7.877
45051SOL     OW37049   3.119   1.043   6.162
45051SOL    HW137050   3.041   0.990   6.177
45051SOL    HW237051   3.134   1.088   6.245
45052SOL     OW37052   7.341   9.988   0.940
45052SOL    HW137053   7.351  10.039   0.860
45052SOL    HW237054   7.268  10.029   0.986
45053SOL     OW37055   3.622  10.450   6.032
45053SOL    HW137056   3.648  10.456   6.124
45053SOL    HW237057   3.632  10.357   6.011
45054SOL     OW37058   1.841   0.762  11.926
45054SOL    HW137059   1.780   0.762  11.852
45054SOL    HW237060   1.927   0.755  11.886
45055SOL     OW37061   3.377  12.463   6.440
45055SOL    HW137062   3.390  12.368   6.443
45055SOL    HW237063   3.457  12.499   6.479
45056SOL     OW37064   8.626  10.087   2.739
45056SOL    HW137065   8.669  10.065   2.822
45056SOL    HW237066   8.591  10.004   2.707
45057SOL     OW37067  12.916  11.611   7.660
45057SOL    HW137068  12.833  11.640   7.622
45057SOL    HW237069  12.938  11.531   7.611
45058SOL     OW37070  14.594   7.224  11.042
45058SOL    HW137071  14.616   7.227  10.949
45058SOL    HW237072  14.579   7.315  11.066
45059SOL     OW37073   5.934   5.957   5.268
45059SOL    HW137074   5.963   6.048   5.267
45059SOL    HW237075   6.005   5.910   5.312
45060SOL     OW37076   2.085   7.726   5.316
45060SOL    HW137077   2.155   7.662   5.327
45060SOL    HW237078   2.125   7.810   5.339
45061SOL     OW37079  12.299   1.222  14.599
45061SOL    HW137080  12.205   1.221  14.581
45061SOL    HW237081  12.338   1.184  14.521
45062SOL     OW37082  12.772   1.906   4.649
45062SOL    HW137083  12.848   1.874   4.697
45062SOL    HW237084  12.772   1.857   4.567
45063SOL     OW37085   0.527   0.655  10.051
45063SOL    HW137086   0.513   0.564  10.028
45063SOL    HW237087   0.531   0.656  10.147
45064SOL     OW37088  13.661   2.331  11.954
45064SOL    HW137089  13.670   2.239  11.932
45064SOL    HW237090  13.608   2.368  11.883
45065SOL     OW37091  13.409  13.454  13.784
45065SOL    HW137092  13.354  13.513  13.835
45065SOL    HW237093  13.471  13.511  13.740
45066SOL     OW37094  10.350  14.368  13.965
45066SOL    HW137095  10.268  14.333  14.000
45066SOL    HW237096  10.394  14.292  13.927
45067SOL     OW37097   8.495  10.972  14.636
45067SOL    HW137098   8.400  10.976  14.623
45067SOL    HW237099   8.506  10.942  14.726
45068SOL     OW37100  10.585   1.686  12.261
45068SOL    HW137101  10.581   1.756  12.196
45068SOL    HW237102  10.495   1.675  12.292
45069SOL     OW37103   0.973   4.130   3.083
45069SOL    HW137104   1.068   4.135   3.075
45069SOL    HW237105   0.958   4.054   3.140
45070SOL     OW37106   6.751   7.491   4.383
45070SOL    HW137107   6.787   7.520   4.299
45070SOL    HW237108   6.658   7.513   4.378
45071SOL     OW37109   3.478  11.822   6.158
45071SOL    HW137110   3.479  11.889   6.226
45071SOL    HW237111   3.564  11.829   6.116
45072SOL     OW37112   9.654   9.915   5.790
45072SOL    HW137113   9.688   9.828   5.807
45072SOL    HW237114   9.606   9.907   5.707
45073SOL     OW37115  10.016  11.674   1.748
45073SOL    HW137116  10.011  11.734   1.823
45073SOL    HW237117  10.067  11.721   1.682
45074SOL     OW37118  10.551   0.061   0.747
45074SOL    HW137119  10.568   0.154   0.765
45074SOL    HW237120  10.588   0.015   0.822
45075SOL     OW37121   3.331   2.500   6.374
45075SOL    HW137122   3.411   2.467   6.415
45075SOL    HW237123   3.298   2.566   6.434
45076SOL     OW37124  13.173   8.455  14.626
45076SOL    HW137125  13.095   8.430  14.576
45076SOL    HW237126  13.214   8.523  14.573
45077SOL     OW37127   3.933   1.404   2.416
45077SOL    HW137128   3.921   1.471   2.483
45077SOL    HW237129   3.844   1.378   2.392
45078SOL     OW37130  12.792  14.865  10.774
45078SOL    HW137131  12.768  14.848  10.683
45078SOL    HW237132  12.773   0.089  10.786
45079SOL     OW37133   0.552   0.325   5.098
45079SOL    HW137134   0.556   0.268   5.021
45079SOL    HW237135   0.643   0.346   5.117
45080SOL     OW37136   8.719   4.934   6.578
45080SOL    HW137137   8.638   4.948   6.530
45080SOL    HW237138   8.707   4.980   6.661
45081SOL     OW37139   2.532  14.849   9.368
45081SOL    HW137140   2.453   0.035   9.369
45081SOL    HW237141   2.540  14.822   9.276
45082SOL     OW37142   9.113  13.134  11.251
45082SOL    HW137143   9.177  13.179  11.306
45082SOL    HW237144   9.123  13.041  11.273
45083SOL     OW37145   6.624   2.680  10.829
45083SOL    HW137146   6.620   2.773  10.804
45083SOL    HW237147   6.600   2.633  10.749
45084SOL     OW37148  13.637  13.897  11.609
45084SOL    HW137149  13.703  13.964  11.592
45084SOL    HW237150  13.674  13.817  11.573
45085SOL     OW37151   1.797  12.179  10.410
45085SOL    HW137152   1.748  12.126  10.472
45085SOL    HW237153   1.740  12.184  10.333
45086SOL     OW37154   6.274   6.427  14.687
45086SOL    HW137155   6.192   6.454  14.646
45086SOL    HW237156   6.337   6.494  14.660
45087SOL     OW37157  14.038   3.171   1.021
45087SOL    HW137158  14.076   3.084   1.011
45087SOL    HW237159  14.007   3.173   1.112
45088SOL     OW37160   1.237  12.903   2.461
45088SOL    HW137161   1.211  12.872   2.374
45088SOL    HW237162   1.326  12.871   2.472
45089SOL     OW37163   3.062   3.254   3.265
45089SOL    HW137164   3.085   3.265   3.357
45089SOL    HW237165   3.008   3.175   3.263
45090SOL     OW37166   2.369  12.844  12.034
45090SOL    HW137167   2.451  12.885  12.062
45090SOL    HW237168   2.304  12.875  12.097
45091SOL     OW37169   2.922  10.993  10.125
45091SOL    HW137170   2.881  11.053  10.188
45091SOL    HW237171   2.937  10.913  10.176
45092SOL     OW37172   0.162  11.664  14.639
45092SOL    HW137173   0.194  11.722  14.709
45092SOL    HW237174   0.180  11.711  14.558
45093SOL     OW37175   8.597   8.149   9.082
45093SOL    HW137176   8.682   8.140   9.126
45093SOL    HW237177   8.618   8.149   8.988
45094SOL     OW37178  10.215   1.435  13.093
45094SOL    HW137179  10.138   1.389  13.125
45094SOL    HW237180  10.221   1.513  13.148
45095SOL     OW37181  10.538   1.828  12.041
45095SOL    HW137182  10.462   1.885  12.058
45095SOL    HW237183  10.513   1.778  11.964
45096SOL     OW37184  12.229  10.204   8.166
45096SOL    HW137185  12.164  10.160   8.111
45096SOL    HW237186  12.300  10.141   8.176
45097SOL     OW37187   0.517   2.012   5.651
45097SOL    HW137188   0.551   2.013   5.740
45097SOL    HW237189   0.579   1.959   5.601
45098SOL     OW37190   2.958  14.292   0.479
45098SOL    HW137191   2.984  14.319   0.391
45098SOL    HW237192   2.905  14.214   0.465
45099SOL     OW37193   5.142   2.153   5.701
45099SOL    HW137194   5.199   2.222   5.736
45099SOL    HW237195   5.054   2.183   5.721
45100SOL     OW37196   7.811   0.533   3.668
45100SOL    HW137197   7.798   0.511   3.576
45100SOL    HW237198   7.896   0.494   3.690
45101SOL     OW37199   1.551  11.652   3.033
45101SOL    HW137200   1.561  11.595   2.957
45101SOL    HW237201   1.462  11.634   3.065
45102SOL     OW37202  11.294   6.477  13.562
45102SOL    HW137203  11.215   6.439  13.522
45102SOL    HW237204  11.290   6.449  13.653
45103SOL     OW37205   2.381   9.906   9.074
45103SOL    HW137206   2.469   9.945   9.073
45103SOL    HW237207   2.396   9.815   9.099
45104SOL     OW37208   6.434  13.045   5.112
45104SOL    HW137209   6.388  13.013   5.034
45104SOL    HW237210   6.379  13.117   5.144
45105SOL     OW37211  10.960   2.805   0.712
45105SOL    HW137212  11.007   2.757   0.780
45105SOL    HW237213  10.910   2.738   0.666
45106SOL     OW37214  10.153   2.864   2.138
45106SOL    HW137215  10.216   2.799   2.109
45106SOL    HW237216  10.127   2.835   2.225
45107SOL     OW37217   8.669   4.217   4.421
45107SOL    HW137218   8.662   4.240   4.328
45107SOL    HW237219   8.718   4.134   4.421
45108SOL     OW37220  10.824  11.994  14.501
45108SOL    HW137221  10.783  12.002  14.414
45108SOL    HW237222  10.771  11.929  14.546
45109SOL     OW37223   0.966   4.745  12.206
45109SOL    HW137224   1.013   4.803  12.266
45109SOL    HW237225   0.934   4.675  12.263
45110SOL     OW37226   7.296   5.664   0.848
45110SOL    HW137227   7.215   5.659   0.899
45110SOL    HW237228   7.362   5.628   0.907
45111SOL     OW37229  12.381   8.810  14.385
45111SOL    HW137230  12.286   8.812  14.370
45111SOL    HW237231  12.417   8.774  14.304
45112SOL     OW37232   4.651  12.492   4.022
45112SOL    HW137233   4.665  12.583   4.047
45112SOL    HW237234   4.562  12.472   4.050
45113SOL     OW37235   2.090  14.833  11.093
45113SOL    HW137236   2.133  14.772  11.034
45113SOL    HW237237   2.147  14.836  11.170
45114SOL     OW37238   0.102   6.990  14.840
45114SOL    HW137239   0.157   6.917  14.812
45114SOL    HW237240   0.056   6.957   0.047
45115SOL     OW37241   2.873  12.892   3.010
45115SOL    HW137242   2.800  12.940   3.051
45115SOL    HW237243   2.845  12.877   2.920
45116SOL     OW37244   0.419  11.515  12.452
45116SOL    HW137245   0.467  11.543  12.530
45116SOL    HW237246   0.453  11.427  12.433
45117SOL     OW37247   1.146  10.736   9.778
45117SOL    HW137248   1.225  10.685   9.760
45117SOL    HW237249   1.163  10.821   9.737
45118SOL     OW37250   1.377   3.622   3.616
45118SOL    HW137251   1.415   3.694   3.567
45118SOL    HW237252   1.410   3.543   3.573
45119SOL     OW37253   2.603  12.455   3.137
45119SOL    HW137254   2.670  12.506   3.092
45119SOL    HW237255   2.520  12.491   3.106
45120SOL     OW37256  12.370  13.650   2.090
45120SOL    HW137257  12.353  13.596   2.012
45120SOL    HW237258  12.443  13.706   2.064
45121SOL     OW37259   9.751   8.925   8.278
45121SOL    HW137260   9.720   8.923   8.187
45121SOL    HW237261   9.802   9.005   8.284
45122SOL     OW37262  14.013   7.537  11.315
45122SOL    HW137263  14.102   7.525  11.349
45122SOL    HW237264  13.974   7.449  11.320
45123SOL     OW37265   8.817  10.685   8.645
45123SOL    HW137266   8.726  10.668   8.621
45123SOL    HW237267   8.857  10.599   8.649
45124SOL     OW37268   6.617   4.567  11.251
45124SOL    HW137269   6.665   4.488  11.226
45124SOL    HW237270   6.665   4.601  11.326
45125SOL     OW37271   0.794   6.624  10.790
45125SOL    HW137272   0.748   6.706  10.771
45125SOL    HW237273   0.876   6.651  10.831
45126SOL     OW37274   4.217   8.008   4.757
45126SOL    HW137275   4.295   7.953   4.762
45126SOL    HW237276   4.168   7.988   4.837
45127SOL     OW37277  10.141   2.880   6.579
45127SOL    HW137278  10.058   2.845   6.613
45127SOL    HW237279  10.137   2.862   6.485
45128SOL     OW37280   7.132  11.995   7.975
45128SOL    HW137281   7.065  12.016   8.040
45128SOL    HW237282   7.189  11.932   8.019
45129SOL     OW37283   7.681  14.115   6.416
45129SOL    HW137284   7.703  14.051   6.483
45129SOL    HW237285   7.747  14.184   6.426
45130SOL     OW37286   4.805   3.414   7.995
45130SOL    HW137287   4.833   3.490   7.943
45130SOL    HW237288   4.818   3.441   8.086
45131SOL     OW37289   6.398  10.909   3.443
45131SOL    HW137290   6.395  10.948   3.531
45131SOL    HW237291   6.317  10.936   3.401
45132SOL     OW37292   4.177  13.968  11.369
45132SOL    HW137293   4.191  13.889  11.316
45132SOL    HW237294   4.187  13.937  11.460
45133SOL     OW37295   7.250   7.025  14.626
45133SOL    HW137296   7.301   7.079  14.686
45133SOL    HW237297   7.170   7.075  14.610
45134SOL     OW37298   2.097   6.376  14.631
45134SOL    HW137299   2.039   6.299  14.633
45134SOL    HW237300   2.051   6.439  14.575
45135SOL     OW37301  10.595   8.770   0.508
45135SOL    HW137302  10.636   8.771   0.594
45135SOL    HW237303  10.626   8.850   0.465
45136SOL     OW37304   1.213   7.022  12.369
45136SOL    HW137305   1.198   6.954  12.303
45136SOL    HW237306   1.134   7.076  12.365
45137SOL     OW37307   5.331  12.892   6.232
45137SOL    HW137308   5.400  12.958   6.231
45137SOL    HW237309   5.284  12.904   6.150
45138SOL     OW37310   6.323   2.994   8.393
45138SOL    HW137311   6.390   3.043   8.441
45138SOL    HW237312   6.318   3.039   8.309
45139SOL     OW37313  14.437   4.054  12.783
45139SOL    HW137314  14.463   4.127  12.840
45139SOL    HW237315  14.507   4.050  12.717
45140SOL     OW37316   6.895   7.837  14.280
45140SOL    HW137317   6.984   7.865  14.258
45140SOL    HW237318   6.907   7.768  14.345
45141SOL     OW37319  13.093   2.570   0.950
45141SOL    HW137320  13.178   2.529   0.931
45141SOL    HW237321  13.114   2.663   0.960
45142SOL     OW37322  14.424  10.873  10.225
45142SOL    HW137323  14.503  10.924  10.241
45142SOL    HW237324  14.353  10.937  10.227
45143SOL     OW37325   5.649   9.943  14.235
45143SOL    HW137326   5.700   9.884  14.291
45143SOL    HW237327   5.588   9.986  14.295
45144SOL     OW37328   9.760   1.491  13.232
45144SOL    HW137329   9.717   1.490  13.317
45144SOL    HW237330   9.704   1.438  13.175
45145SOL     OW37331  13.126   8.519   7.290
45145SOL    HW137332  13.153   8.432   7.263
45145SOL    HW237333  13.054   8.504   7.352
45146SOL     OW37334   9.192  12.824   5.233
45146SOL    HW137335   9.182  12.770   5.311
45146SOL    HW237336   9.257  12.777   5.180
45147SOL     OW37337   9.952   4.228  12.772
45147SOL    HW137338  10.020   4.293  12.790
45147SOL    HW237339   9.991   4.169  12.707
45148SOL     OW37340   9.127  12.221  12.759
45148SOL    HW137341   9.123  12.157  12.688
45148SOL    HW237342   9.037  12.255  12.767
45149SOL     OW37343   7.260   6.044  12.793
45149SOL    HW137344   7.172   6.033  12.831
45149SOL    HW237345   7.265   5.978  12.724
45150SOL     OW37346   9.228   2.041   9.515
45150SOL    HW137347   9.248   2.011   9.427
45150SOL    HW237348   9.133   2.057   9.514
45151SOL     OW37349   7.453  13.345   0.187
45151SOL    HW137350   7.393  13.417   0.207
45151SOL    HW237351   7.540  13.384   0.191
45152SOL     OW37352   8.417  10.754   6.959
45152SOL    HW137353   8.403  10.761   7.053
45152SOL    HW237354   8.509  10.733   6.949
45153SOL     OW37355   0.587  12.260   3.770
45153SOL    HW137356   0.565  12.348   3.802
45153SOL    HW237357   0.619  12.273   3.682
45154SOL     OW37358   5.422  13.548  14.597
45154SOL    HW137359   5.339  13.539  14.645
45154SOL    HW237360   5.397  13.547  14.505
45155SOL     OW37361  13.705  10.548   9.683
45155SOL    HW137362  13.769  10.513   9.621
45155SOL    HW237363  13.675  10.630   9.642
45156SOL     OW37364   5.643   4.029   8.522
45156SOL    HW137365   5.584   4.009   8.449
45156SOL    HW237366   5.681   3.944   8.546
45157SOL     OW37367   8.073  11.780  10.794
45157SOL    HW137368   8.062  11.699  10.744
45157SOL    HW237369   8.099  11.845  10.730
45158SOL     OW37370   3.735   0.534   0.363
45158SOL    HW137371   3.818   0.523   0.316
45158SOL    HW237372   3.670   0.489   0.309
45159SOL     OW37373   2.033   3.973   2.055
45159SOL    HW137374   1.940   3.960   2.072
45159SOL    HW237375   2.046   3.935   1.968
45160SOL     OW37376   5.036   2.892  10.395
45160SOL    HW137377   5.063   2.984  10.395
45160SOL    HW237378   5.117   2.843  10.386
45161SOL     OW37379   5.683   2.188   6.068
45161SOL    HW137380   5.672   2.208   6.161
45161SOL    HW237381   5.703   2.095   6.066
45162SOL     OW37382   1.025  14.014  10.929
45162SOL    HW137383   1.110  13.991  10.893
45162SOL    HW237384   1.045  14.059  11.012
45163SOL     OW37385   3.793   3.836   9.604
45163SOL    HW137386   3.707   3.859   9.640
45163SOL    HW237387   3.796   3.883   9.520
45164SOL     OW37388   1.995   4.830   7.892
45164SOL    HW137389   1.959   4.744   7.915
45164SOL    HW237390   2.089   4.822   7.908
45165SOL     OW37391   7.780  12.017  10.853
45165SOL    HW137392   7.791  12.106  10.820
45165SOL    HW237393   7.730  11.972  10.784
45166SOL     OW37394  10.470  11.537   1.377
45166SOL    HW137395  10.450  11.600   1.309
45166SOL    HW237396  10.443  11.580   1.458
45167SOL     OW37397   1.052   6.683   4.115
45167SOL    HW137398   1.110   6.675   4.040
45167SOL    HW237399   1.050   6.777   4.133
45168SOL     OW37400   7.196  14.381   3.796
45168SOL    HW137401   7.225  14.322   3.865
45168SOL    HW237402   7.267  14.445   3.788
45169SOL     OW37403  12.398   5.861   0.515
45169SOL    HW137404  12.390   5.766   0.527
45169SOL    HW237405  12.308   5.892   0.518
45170SOL     OW37406  11.826   2.263  13.075
45170SOL    HW137407  11.848   2.338  13.020
45170SOL    HW237408  11.766   2.211  13.021
45171SOL     OW37409   7.173  12.281  11.187
45171SOL    HW137410   7.145  12.215  11.123
45171SOL    HW237411   7.132  12.362  11.156
45172SOL     OW37412   6.377   0.521  11.791
45172SOL    HW137413   6.381   0.444  11.734
45172SOL    HW237414   6.409   0.489  11.876
45173SOL     OW37415   8.740   7.570  10.387
45173SOL    HW137416   8.666   7.578  10.447
45173SOL    HW237417   8.794   7.501  10.424
45174SOL     OW37418   6.291  12.039  14.555
45174SOL    HW137419   6.311  12.125  14.591
45174SOL    HW237420   6.278  11.984  14.632
45175SOL     OW37421   5.276   5.273  14.486
45175SOL    HW137422   5.348   5.295  14.546
45175SOL    HW237423   5.227   5.204  14.531
45176SOL     OW37424   5.200   5.551   1.829
45176SOL    HW137425   5.134   5.563   1.761
45176SOL    HW237426   5.156   5.500   1.897
45177SOL     OW37427  12.164   7.386   3.231
45177SOL    HW137428  12.094   7.440   3.194
45177SOL    HW237429  12.168   7.410   3.323
45178SOL     OW37430  13.869   0.079   9.643
45178SOL    HW137431  13.961   0.082   9.671
45178SOL    HW237432  13.831   0.159   9.679
45179SOL     OW37433   3.289  10.029   8.251
45179SOL    HW137434   3.264   9.985   8.169
45179SOL    HW237435   3.373   9.990   8.275
45180SOL     OW37436   9.313   6.257  10.096
45180SOL    HW137437   9.371   6.328  10.124
45180SOL    HW237438   9.362   6.177  10.115
45181SOL     OW37439  14.080   3.476   4.047
45181SOL    HW137440  14.110   3.537   3.979
45181SOL    HW237441  14.028   3.411   3.999
45182SOL     OW37442   2.941   9.057   1.890
45182SOL    HW137443   3.033   9.030   1.885
45182SOL    HW237444   2.928   9.112   1.813
45183SOL     OW37445   0.784   7.310   1.195
45183SOL    HW137446   0.799   7.371   1.123
45183SOL    HW237447   0.850   7.242   1.182
45184SOL     OW37448  10.258   1.536   1.373
45184SOL    HW137449  10.340   1.573   1.341
45184SOL    HW237450  10.214   1.505   1.294
45185SOL     OW37451   5.300   4.195   1.453
45185SOL    HW137452   5.378   4.219   1.403
45185SOL    HW237453   5.293   4.100   1.443
45186SOL     OW37454   8.560   5.644   9.962
45186SOL    HW137455   8.522   5.610   9.881
45186SOL    HW237456   8.512   5.725   9.979
45187SOL     OW37457   7.376   0.251  10.529
45187SOL    HW137458   7.318   0.175  10.527
45187SOL    HW237459   7.392   0.271  10.437
45188SOL     OW37460  13.910   8.124   4.700
45188SOL    HW137461  13.986   8.068   4.716
45188SOL    HW237462  13.910   8.187   4.772
45189SOL     OW37463  14.824   3.210   8.750
45189SOL    HW137464  14.834   3.203   8.655
45189SOL    HW237465   0.038   3.246   8.780
45190SOL     OW37466  13.826   5.375  12.750
45190SOL    HW137467  13.890   5.364  12.679
45190SOL    HW237468  13.750   5.414  12.708
45191SOL     OW37469   3.420   6.458   2.377
45191SOL    HW137470   3.411   6.481   2.470
45191SOL    HW237471   3.370   6.526   2.331
45192SOL     OW37472   6.183   4.915   5.010
45192SOL    HW137473   6.198   4.916   5.104
45192SOL    HW237474   6.089   4.903   5.001
45193SOL     OW37475   5.662   4.347  11.277
45193SOL    HW137476   5.601   4.278  11.304
45193SOL    HW237477   5.703   4.312  11.198
45194SOL     OW37478  13.853  10.667   7.220
45194SOL    HW137479  13.843  10.742   7.277
45194SOL    HW237480  13.793  10.601   7.256
45195SOL     OW37481   5.902  10.166  10.523
45195SOL    HW137482   5.888  10.206  10.609
45195SOL    HW237483   5.843  10.214  10.465
45196SOL     OW37484   4.432  13.242   1.290
45196SOL    HW137485   4.413  13.336   1.294
45196SOL    HW237486   4.370  13.209   1.225
45197SOL     OW37487  12.552   0.039   7.240
45197SOL    HW137488  12.552   0.052   7.145
45197SOL    HW237489  12.552   0.127   7.277
45198SOL     OW37490   7.523   1.653   3.431
45198SOL    HW137491   7.437   1.638   3.471
45198SOL    HW237492   7.511   1.628   3.339
45199SOL     OW37493   2.125   6.903   4.006
45199SOL    HW137494   2.152   6.900   3.914
45199SOL    HW237495   2.030   6.909   4.004
45200SOL     OW37496  10.613   3.295   7.158
45200SOL    HW137497  10.636   3.332   7.073
45200SOL    HW237498  10.531   3.339   7.181
45201SOL     OW37499  12.477   9.212   7.030
45201SOL    HW137500  12.412   9.258   7.083
45201SOL    HW237501  12.552   9.201   7.088
45202SOL     OW37502   7.606   6.963   3.943
45202SOL    HW137503   7.641   6.874   3.935
45202SOL    HW237504   7.609   6.998   3.854
45203SOL     OW37505  10.120  13.581   1.517
45203SOL    HW137506  10.071  13.518   1.570
45203SOL    HW237507  10.211  13.573   1.548
45204SOL     OW37508   0.036   3.214   6.363
45204SOL    HW137509  14.811   3.203   6.369
45204SOL    HW237510   0.070   3.179   6.445
45205SOL     OW37511   1.071   3.543   8.841
45205SOL    HW137512   1.119   3.460   8.848
45205SOL    HW237513   1.040   3.544   8.750
45206SOL     OW37514  11.379   2.729   9.945
45206SOL    HW137515  11.382   2.818   9.910
45206SOL    HW237516  11.329   2.736  10.026
45207SOL     OW37517   5.937   8.222  12.205
45207SOL    HW137518   5.996   8.284  12.248
45207SOL    HW237519   5.881   8.276  12.150
45208SOL     OW37520   9.099   1.568  12.379
45208SOL    HW137521   9.121   1.660  12.363
45208SOL    HW237522   9.099   1.560  12.474
45209SOL     OW37523   5.734   4.803   0.159
45209SOL    HW137524   5.688   4.768   0.236
45209SOL    HW237525   5.702   4.893   0.151
45210SOL     OW37526   5.056  12.005  14.368
45210SOL    HW137527   5.127  12.005  14.303
45210SOL    HW237528   5.091  12.055  14.442
45211SOL     OW37529  10.340  12.952   0.300
45211SOL    HW137530  10.392  12.872   0.293
45211SOL    HW237531  10.362  12.987   0.387
45212SOL     OW37532   1.401   2.448  10.483
45212SOL    HW137533   1.495   2.442  10.463
45212SOL    HW237534   1.387   2.384  10.552
45213SOL     OW37535  14.153  10.698   5.837
45213SOL    HW137536  14.150  10.764   5.769
45213SOL    HW237537  14.246  10.691   5.860
45214SOL     OW37538   8.266   2.526   8.465
45214SOL    HW137539   8.172   2.518   8.453
45214SOL    HW237540   8.277   2.608   8.513
45215SOL     OW37541   6.387  14.237   0.737
45215SOL    HW137542   6.458  14.213   0.678
45215SOL    HW237543   6.310  14.192   0.701
45216SOL     OW37544   2.547   0.673   5.162
45216SOL    HW137545   2.623   0.669   5.221
45216SOL    HW237546   2.574   0.733   5.093
45217SOL     OW37547  11.732   0.438   3.755
45217SOL    HW137548  11.638   0.455   3.748
45217SOL    HW237549  11.763   0.439   3.665
45218SOL     OW37550  11.559   8.608  12.802
45218SOL    HW137551  11.636   8.608  12.859
45218SOL    HW237552  11.484   8.608  12.862
45219SOL     OW37553   5.654   5.416  10.319
45219SOL    HW137554   5.733   5.445  10.365
45219SOL    HW237555   5.680   5.334  10.276
45220SOL     OW37556   8.273   1.731   8.512
45220SOL    HW137557   8.289   1.649   8.558
45220SOL    HW237558   8.183   1.755   8.536
45221SOL     OW37559  14.378   1.196   8.011
45221SOL    HW137560  14.415   1.216   7.925
45221SOL    HW237561  14.378   1.279   8.058
45222SOL     OW37562   6.835   7.330   5.180
45222SOL    HW137563   6.753   7.348   5.225
45222SOL    HW237564   6.850   7.236   5.194
45223SOL     OW37565   4.416   7.411  14.799
45223SOL    HW137566   4.507   7.427  14.825
45223SOL    HW237567   4.409   7.447  14.711
45224SOL     OW37568   1.378   8.629   8.169
45224SOL    HW137569   1.391   8.695   8.101
45224SOL    HW237570   1.442   8.652   8.237
45225SOL     OW37571  14.035   6.743   6.571
45225SOL    HW137572  14.009   6.677   6.635
45225SOL    HW237573  13.956   6.796   6.557
45226SOL     OW37574  11.005   1.629   5.832
45226SOL    HW137575  11.011   1.719   5.865
45226SOL    HW237576  11.067   1.625   5.760
45227SOL     OW37577  11.517   3.907  14.261
45227SOL    HW137578  11.535   3.950  14.177
45227SOL    HW237579  11.587   3.843  14.271
45228SOL     OW37580   0.761   1.334   4.031
45228SOL    HW137581   0.795   1.244   4.028
45228SOL    HW237582   0.817   1.383   3.972
45229SOL     OW37583  13.295   4.507  13.195
45229SOL    HW137584  13.361   4.566  13.158
45229SOL    HW237585  13.245   4.477  13.120
45230SOL     OW37586   7.431  12.953  12.921
45230SOL    HW137587   7.367  13.020  12.948
45230SOL    HW237588   7.389  12.870  12.943
45231SOL     OW37589   7.022   9.648   4.908
45231SOL    HW137590   7.036   9.571   4.964
45231SOL    HW237591   7.035   9.722   4.966
45232SOL     OW37592   9.064   9.781   2.323
45232SOL    HW137593   9.127   9.853   2.317
45232SOL    HW237594   9.107   9.717   2.381
45233SOL     OW37595   0.150   1.760   0.496
45233SOL    HW137596   0.110   1.769   0.582
45233SOL    HW237597   0.194   1.843   0.481
45234SOL     OW37598   6.967   1.118   1.785
45234SOL    HW137599   6.920   1.179   1.728
45234SOL    HW237600   7.057   1.151   1.786
45235SOL     OW37601  14.710  12.573   5.899
45235SOL    HW137602  14.627  12.612   5.872
45235SOL    HW237603  14.776  12.614   5.843
45236SOL     OW37604  10.247   4.954  10.643
45236SOL    HW137605  10.261   5.045  10.668
45236SOL    HW237606  10.216   4.958  10.552
45237SOL     OW37607   4.606   9.823   7.611
45237SOL    HW137608   4.699   9.801   7.607
45237SOL    HW237609   4.561   9.740   7.591
45238SOL     OW37610  14.388   3.857  12.965
45238SOL    HW137611  14.430   3.923  12.910
45238SOL    HW237612  14.438   3.860  13.047
45239SOL     OW37613  14.630   6.133   4.181
45239SOL    HW137614  14.705   6.080   4.155
45239SOL    HW237615  14.610   6.104   4.270
45240SOL     OW37616   8.544  11.278   7.742
45240SOL    HW137617   8.521  11.287   7.835
45240SOL    HW237618   8.498  11.199   7.713
45241SOL     OW37619   1.957   2.057  11.906
45241SOL    HW137620   1.988   2.082  11.993
45241SOL    HW237621   1.989   2.127  11.848
45242SOL     OW37622   4.851  13.789   4.107
45242SOL    HW137623   4.781  13.761   4.166
45242SOL    HW237624   4.807  13.843   4.042
45243SOL     OW37625  10.941   6.395   0.974
45243SOL    HW137626  11.003   6.468   0.971
45243SOL    HW237627  10.856   6.436   0.986
45244SOL     OW37628   0.615   9.100   2.307
45244SOL    HW137629   0.580   9.042   2.239
45244SOL    HW237630   0.673   9.159   2.260
45245SOL     OW37631   8.908   9.419  14.124
45245SOL    HW137632   8.829   9.446  14.077
45245SOL    HW237633   8.975   9.411  14.057
45246SOL     OW37634   1.492   6.508   1.438
45246SOL    HW137635   1.417   6.512   1.497
45246SOL    HW237636   1.566   6.540   1.489
45247SOL     OW37637  14.685   1.424   6.891
45247SOL    HW137638  14.729   1.400   6.972
45247SOL    HW237639  14.729   1.504   6.862
45248SOL     OW37640  10.798   4.975   0.500
45248SOL    HW137641  10.729   5.039   0.481
45248SOL    HW237642  10.788   4.909   0.431
45249SOL     OW37643   8.936  11.400   9.514
45249SOL    HW137644   8.858  11.346   9.526
45249SOL    HW237645   8.916  11.481   9.559
45250SOL     OW37646   3.367   7.257   8.464
45250SOL    HW137647   3.462   7.273   8.459
45250SOL    HW237648   3.334   7.284   8.379
45251SOL     OW37649   3.762  14.235   4.315
45251SOL    HW137650   3.812  14.280   4.383
45251SOL    HW237651   3.671  14.261   4.330
45252SOL     OW37652  10.062   8.929   7.778
45252SOL    HW137653  10.108   8.848   7.757
45252SOL    HW237654  10.124   8.998   7.752
45253SOL     OW37655  11.234   5.755   0.895
45253SOL    HW137656  11.233   5.850   0.880
45253SOL    HW237657  11.266   5.718   0.814
45254SOL     OW37658   1.916   8.630   1.942
45254SOL    HW137659   1.886   8.603   1.856
45254SOL    HW237660   1.988   8.571   1.962
45255SOL     OW37661  11.788  13.213   5.294
45255SOL    HW137662  11.704  13.173   5.270
45255SOL    HW237663  11.790  13.208   5.389
45256SOL     OW37664   1.964   8.795   9.113
45256SOL    HW137665   1.942   8.794   9.206
45256SOL    HW237666   1.935   8.880   9.082
45257SOL     OW37667   6.290   7.745  13.158
45257SOL    HW137668   6.287   7.667  13.214
45257SOL    HW237669   6.279   7.711  13.069
45258SOL     OW37670   0.889   4.703   0.627
45258SOL    HW137671   0.827   4.724   0.697
45258SOL    HW237672   0.935   4.625   0.658
45259SOL     OW37673   0.887   0.253   1.775
45259SOL    HW137674   0.803   0.259   1.730
45259SOL    HW237675   0.873   0.300   1.858
45260SOL     OW37676   6.418   9.570   3.352
45260SOL    HW137677   6.414   9.479   3.322
45260SOL    HW237678   6.505   9.578   3.390
45261SOL     OW37679  11.346   8.862   4.094
45261SOL    HW137680  11.302   8.865   4.009
45261SOL    HW237681  11.397   8.943   4.098
45262SOL     OW37682   0.902   3.415   5.732
45262SOL    HW137683   0.984   3.371   5.756
45262SOL    HW237684   0.906   3.499   5.776
45263SOL     OW37685   2.777   3.374   1.104
45263SOL    HW137686   2.848   3.340   1.159
45263SOL    HW237687   2.697   3.347   1.150
45264SOL     OW37688   6.870  10.278  11.521
45264SOL    HW137689   6.801  10.335  11.555
45264SOL    HW237690   6.852  10.273  11.427
45265SOL     OW37691  12.910   4.158   6.555
45265SOL    HW137692  12.955   4.241   6.541
45265SOL    HW237693  12.839   4.158   6.490
45266SOL     OW37694   7.633   4.198   4.861
45266SOL    HW137695   7.627   4.225   4.769
45266SOL    HW237696   7.598   4.273   4.909
45267SOL     OW37697   6.597  13.212   2.213
45267SOL    HW137698   6.568  13.125   2.240
45267SOL    HW237699   6.636  13.250   2.292
45268SOL     OW37700   9.545  11.291  13.509
45268SOL    HW137701   9.568  11.302  13.601
45268SOL    HW237702   9.629  11.282  13.464
45269SOL     OW37703  12.687   7.503   4.208
45269SOL    HW137704  12.781   7.493   4.216
45269SOL    HW237705  12.666   7.576   4.267
45270SOL     OW37706   3.786  10.220  11.048
45270SOL    HW137707   3.746  10.253  10.968
45270SOL    HW237708   3.794  10.125  11.033
45271SOL     OW37709   5.661   2.375   9.999
45271SOL    HW137710   5.587   2.371   9.938
45271SOL    HW237711   5.661   2.466  10.030
45272SOL     OW37712   0.822   5.819   5.874
45272SOL    HW137713   0.754   5.766   5.916
45272SOL    HW237714   0.788   5.909   5.880
45273SOL     OW37715  14.326   2.839   2.528
45273SOL    HW137716  14.297   2.750   2.511
45273SOL    HW237717  14.338   2.844   2.623
45274SOL     OW37718  13.984  14.833   7.155
45274SOL    HW137719  14.040  14.859   7.229
45274SOL    HW237720  14.046  14.803   7.088
45275SOL     OW37721  14.069   2.788   0.705
45275SOL    HW137722  14.009   2.722   0.667
45275SOL    HW237723  14.150   2.777   0.656
45276SOL     OW37724   9.667   1.006   4.404
45276SOL    HW137725   9.692   1.009   4.311
45276SOL    HW237726   9.595   0.943   4.407
45277SOL     OW37727   6.223   1.097  10.367
45277SOL    HW137728   6.170   1.149  10.307
45277SOL    HW237729   6.212   1.140  10.452
45278SOL     OW37730   7.925   2.852  13.083
45278SOL    HW137731   7.984   2.877  13.154
45278SOL    HW237732   7.854   2.916  13.088
45279SOL     OW37733  13.459   1.405   4.264
45279SOL    HW137734  13.454   1.474   4.198
45279SOL    HW237735  13.500   1.331   4.220
45280SOL     OW37736   6.914  13.613   2.086
45280SOL    HW137737   6.897  13.549   2.155
45280SOL    HW237738   6.827  13.633   2.050
45281SOL     OW37739   2.227   5.711   6.641
45281SOL    HW137740   2.227   5.715   6.545
45281SOL    HW237741   2.318   5.693   6.664
45282SOL     OW37742  10.736   3.844   7.282
45282SOL    HW137743  10.750   3.816   7.372
45282SOL    HW237744  10.642   3.855   7.274
45283SOL     OW37745  14.345   0.515  11.601
45283SOL    HW137746  14.437   0.491  11.591
45283SOL    HW237747  14.310   0.453  11.665
45284SOL     OW37748  13.502  10.311   2.112
45284SOL    HW137749  13.563  10.357   2.055
45284SOL    HW237750  13.422  10.303   2.059
45285SOL     OW37751   9.299  11.978   3.872
45285SOL    HW137752   9.353  12.050   3.904
45285SOL    HW237753   9.362  11.910   3.848
45286SOL     OW37754   5.899   7.974   2.570
45286SOL    HW137755   5.819   8.026   2.562
45286SOL    HW237756   5.887   7.924   2.651
45287SOL     OW37757   6.652   6.072  12.297
45287SOL    HW137758   6.665   5.990  12.251
45287SOL    HW237759   6.740   6.107  12.309
45288SOL     OW37760   2.426   0.417   5.155
45288SOL    HW137761   2.464   0.504   5.139
45288SOL    HW237762   2.501   0.358   5.154
45289SOL     OW37763   8.877   9.245   9.227
45289SOL    HW137764   8.844   9.193   9.301
45289SOL    HW237765   8.971   9.228   9.226
45290SOL     OW37766   7.169   8.043   6.829
45290SOL    HW137767   7.169   8.135   6.800
45290SOL    HW237768   7.088   8.034   6.879
45291SOL     OW37769  13.332  13.385  11.625
45291SOL    HW137770  13.362  13.442  11.695
45291SOL    HW237771  13.247  13.422  11.599
45292SOL     OW37772   2.015   7.913   4.390
45292SOL    HW137773   2.025   8.000   4.350
45292SOL    HW237774   2.040   7.926   4.481
45293SOL     OW37775   4.918   8.491   3.778
45293SOL    HW137776   4.984   8.469   3.843
45293SOL    HW237777   4.968   8.506   3.698
45294SOL     OW37778   0.622   4.414   7.805
45294SOL    HW137779   0.656   4.463   7.879
45294SOL    HW237780   0.543   4.462   7.779
45295SOL     OW37781  12.691   0.253   0.464
45295SOL    HW137782  12.670   0.238   0.556
45295SOL    HW237783  12.658   0.341   0.446
45296SOL     OW37784   0.359   2.640   1.378
45296SOL    HW137785   0.418   2.572   1.346
45296SOL    HW237786   0.400   2.670   1.459
45297SOL     OW37787   3.117   7.083  12.869
45297SOL    HW137788   3.051   7.140  12.830
45297SOL    HW237789   3.151   7.132  12.943
45298SOL     OW37790  10.382  14.767   4.351
45298SOL    HW137791  10.454  14.727   4.304
45298SOL    HW237792  10.362  14.705   4.421
45299SOL     OW37793  12.894  14.456   5.808
45299SOL    HW137794  12.884  14.536   5.755
45299SOL    HW237795  12.889  14.385   5.745
45300SOL     OW37796   6.422   0.869   5.634
45300SOL    HW137797   6.467   0.933   5.689
45300SOL    HW237798   6.339   0.852   5.679
45301SOL     OW37799   1.793  14.810   1.366
45301SOL    HW137800   1.699  14.825   1.357
45301SOL    HW237801   1.828  14.822   1.278
45302SOL     OW37802  12.074   8.773  10.506
45302SOL    HW137803  12.034   8.795  10.590
45302SOL    HW237804  12.075   8.856  10.458
45303SOL     OW37805   8.601  14.421   4.066
45303SOL    HW137806   8.692  14.402   4.044
45303SOL    HW237807   8.593  14.516   4.059
45304SOL     OW37808   9.101   7.776  14.260
45304SOL    HW137809   9.110   7.693  14.212
45304SOL    HW237810   9.169   7.772  14.327
45305SOL     OW37811   9.254   9.198   3.090
45305SOL    HW137812   9.211   9.276   3.055
45305SOL    HW237813   9.185   9.149   3.134
45306SOL     OW37814   7.041   8.401   0.630
45306SOL    HW137815   7.063   8.460   0.702
45306SOL    HW237816   7.124   8.386   0.584
45307SOL     OW37817  12.768   0.129   1.694
45307SOL    HW137818  12.767   0.223   1.708
45307SOL    HW237819  12.683   0.109   1.654
45308SOL     OW37820   3.205   9.269  11.256
45308SOL    HW137821   3.183   9.343  11.312
45308SOL    HW237822   3.250   9.308  11.181
45309SOL     OW37823   7.764   8.257   3.525
45309SOL    HW137824   7.838   8.269   3.464
45309SOL    HW237825   7.746   8.345   3.557
45310SOL     OW37826  14.795   2.463  14.428
45310SOL    HW137827  14.765   2.522  14.497
45310SOL    HW237828  14.845   2.396  14.474
45311SOL     OW37829   8.018  13.762  12.432
45311SOL    HW137830   8.024  13.747  12.526
45311SOL    HW237831   8.044  13.678  12.393
45312SOL     OW37832   1.987   4.215  12.198
45312SOL    HW137833   1.969   4.123  12.178
45312SOL    HW237834   2.051   4.242  12.132
45313SOL     OW37835   6.532  10.588   8.218
45313SOL    HW137836   6.521  10.614   8.310
45313SOL    HW237837   6.456  10.533   8.200
45314SOL     OW37838   8.584  13.765  14.442
45314SOL    HW137839   8.553  13.674  14.443
45314SOL    HW237840   8.679  13.758  14.442
45315SOL     OW37841  13.762   6.466  10.314
45315SOL    HW137842  13.838   6.411  10.330
45315SOL    HW237843  13.772   6.540  10.374
45316SOL     OW37844  12.983   5.864   5.126
45316SOL    HW137845  13.054   5.929   5.130
45316SOL    HW237846  12.956   5.864   5.035
45317SOL     OW37847   4.966  10.203  14.088
45317SOL    HW137848   4.921  10.261  14.027
45317SOL    HW237849   4.980  10.257  14.166
45318SOL     OW37850   6.784   1.629  13.949
45318SOL    HW137851   6.799   1.710  13.900
45318SOL    HW237852   6.801   1.559  13.886
45319SOL     OW37853   3.505   3.377   1.870
45319SOL    HW137854   3.517   3.470   1.887
45319SOL    HW237855   3.493   3.338   1.957
45320SOL     OW37856  10.413   3.186   0.426
45320SOL    HW137857  10.450   3.100   0.445
45320SOL    HW237858  10.408   3.229   0.511
45321SOL     OW37859   9.955   7.733   5.012
45321SOL    HW137860   9.895   7.792   5.058
45321SOL    HW237861  10.029   7.724   5.072
45322SOL     OW37862   5.418  11.078  12.991
45322SOL    HW137863   5.476  11.154  12.981
45322SOL    HW237864   5.461  11.009  12.940
45323SOL     OW37865  12.715   2.528  10.567
45323SOL    HW137866  12.624   2.556  10.567
45323SOL    HW237867  12.719   2.457  10.503
45324SOL     OW37868  11.739  13.246   4.682
45324SOL    HW137869  11.810  13.305   4.658
45324SOL    HW237870  11.688  13.295   4.747
45325SOL     OW37871   9.813  10.293   4.519
45325SOL    HW137872   9.798  10.352   4.445
45325SOL    HW237873   9.863  10.220   4.481
45326SOL     OW37874   9.458   0.812   8.145
45326SOL    HW137875   9.434   0.904   8.130
45326SOL    HW237876   9.411   0.764   8.078
45327SOL     OW37877   7.326  12.307   6.292
45327SOL    HW137878   7.279  12.383   6.258
45327SOL    HW237879   7.346  12.331   6.383
45328SOL     OW37880   7.217  12.771  12.951
45328SOL    HW137881   7.132  12.785  12.992
45328SOL    HW237882   7.207  12.807  12.863
45329SOL     OW37883   9.630   0.204   8.102
45329SOL    HW137884   9.644   0.298   8.106
45329SOL    HW237885   9.718   0.167   8.112
45330SOL     OW37886   2.712   7.616  13.814
45330SOL    HW137887   2.683   7.707  13.809
45330SOL    HW237888   2.801   7.621  13.849
45331SOL     OW37889  10.725  13.151   9.647
45331SOL    HW137890  10.765  13.079   9.597
45331SOL    HW237891  10.750  13.230   9.598
45332SOL     OW37892   2.803   4.548   2.518
45332SOL    HW137893   2.775   4.470   2.566
45332SOL    HW237894   2.776   4.621   2.573
45333SOL     OW37895  12.516  13.636  12.717
45333SOL    HW137896  12.540  13.554  12.760
45333SOL    HW237897  12.424  13.626  12.695
45334SOL     OW37898   4.213   6.674  14.047
45334SOL    HW137899   4.201   6.583  14.074
45334SOL    HW237900   4.307   6.688  14.051
45335SOL     OW37901   3.254  11.934   0.368
45335SOL    HW137902   3.209  12.010   0.404
45335SOL    HW237903   3.347  11.950   0.385
45336SOL     OW37904   3.293   8.530   8.139
45336SOL    HW137905   3.354   8.599   8.112
45336SOL    HW237906   3.234   8.573   8.201
45337SOL     OW37907   5.071  14.567   7.223
45337SOL    HW137908   5.086  14.556   7.317
45337SOL    HW237909   4.989  14.616   7.218
45338SOL     OW37910   3.898  12.476   7.747
45338SOL    HW137911   3.907  12.558   7.699
45338SOL    HW237912   3.850  12.499   7.826
45339SOL     OW37913   1.308  12.421   2.410
45339SOL    HW137914   1.235  12.404   2.469
45339SOL    HW237915   1.267  12.439   2.325
45340SOL     OW37916   9.208   1.748  11.108
45340SOL    HW137917   9.286   1.728  11.160
45340SOL    HW237918   9.138   1.697  11.148
45341SOL     OW37919  14.183   6.260  10.454
45341SOL    HW137920  14.208   6.278  10.545
45341SOL    HW237921  14.225   6.330  10.404
45342SOL     OW37922   2.683   1.614   0.704
45342SOL    HW137923   2.629   1.540   0.680
45342SOL    HW237924   2.654   1.685   0.647
45343SOL     OW37925  14.662  12.647   1.124
45343SOL    HW137926  14.631  12.717   1.067
45343SOL    HW237927  14.590  12.631   1.185
45344SOL     OW37928  11.830  11.946   1.715
45344SOL    HW137929  11.764  11.943   1.645
45344SOL    HW237930  11.874  12.030   1.704
45345SOL     OW37931  14.527   8.672   7.189
45345SOL    HW137932  14.525   8.747   7.248
45345SOL    HW237933  14.447   8.678   7.138
45346SOL     OW37934   7.510  14.576   8.397
45346SOL    HW137935   7.468  14.659   8.375
45346SOL    HW237936   7.524  14.532   8.313
45347SOL     OW37937  14.111  10.066   6.345
45347SOL    HW137938  14.091  10.141   6.401
45347SOL    HW237939  14.074   9.991   6.392
45348SOL     OW37940   6.387  12.527   3.063
45348SOL    HW137941   6.426  12.609   3.033
45348SOL    HW237942   6.379  12.475   2.983
45349SOL     OW37943   4.760   7.210   2.242
45349SOL    HW137944   4.758   7.279   2.176
45349SOL    HW237945   4.850   7.178   2.241
45350SOL     OW37946  14.361   7.219   8.800
45350SOL    HW137947  14.283   7.178   8.837
45350SOL    HW237948  14.377   7.295   8.856
45351SOL     OW37949   4.610   1.171   2.162
45351SOL    HW137950   4.681   1.210   2.213
45351SOL    HW237951   4.589   1.237   2.096
45352SOL     OW37952   5.731  10.964   1.586
45352SOL    HW137953   5.764  11.022   1.517
45352SOL    HW237954   5.810  10.923   1.622
45353SOL     OW37955   7.770   9.406   7.840
45353SOL    HW137956   7.686   9.373   7.871
45353SOL    HW237957   7.747   9.468   7.771
45354SOL     OW37958   7.111   4.805   0.530
45354SOL    HW137959   7.123   4.878   0.590
45354SOL    HW237960   7.196   4.797   0.486
45355SOL     OW37961  12.206   0.416  10.979
45355SOL    HW137962  12.254   0.454  11.052
45355SOL    HW237963  12.241   0.327  10.970
45356SOL     OW37964   3.757  11.023   1.049
45356SOL    HW137965   3.719  11.105   1.080
45356SOL    HW237966   3.844  11.020   1.088
45357SOL     OW37967   2.913  10.096   9.161
45357SOL    HW137968   2.885  10.133   9.245
45357SOL    HW237969   2.994  10.049   9.180
45358SOL     OW37970   2.558  12.831   0.497
45358SOL    HW137971   2.519  12.918   0.489
45358SOL    HW237972   2.540  12.804   0.587
45359SOL     OW37973   4.351   2.176   7.739
45359SOL    HW137974   4.320   2.176   7.649
45359SOL    HW237975   4.281   2.220   7.788
45360SOL     OW37976   3.298  12.484  12.045
45360SOL    HW137977   3.381  12.457  12.005
45360SOL    HW237978   3.324  12.532  12.123
45361SOL     OW37979   8.188   7.603   6.213
45361SOL    HW137980   8.179   7.609   6.118
45361SOL    HW237981   8.276   7.569   6.226
45362SOL     OW37982   7.399   7.322   7.928
45362SOL    HW137983   7.420   7.262   7.857
45362SOL    HW237984   7.348   7.269   7.990
45363SOL     OW37985  11.761   5.396   6.283
45363SOL    HW137986  11.769   5.335   6.210
45363SOL    HW237987  11.817   5.360   6.351
45364SOL     OW37988  11.988   5.585   1.067
45364SOL    HW137989  12.040   5.610   1.144
45364SOL    HW237990  11.900   5.571   1.102
45365SOL     OW37991   0.705   7.856   5.110
45365SOL    HW137992   0.651   7.803   5.052
45365SOL    HW237993   0.792   7.817   5.106
45366SOL     OW37994   3.082   0.934   0.716
45366SOL    HW137995   3.094   1.025   0.746
45366SOL    HW237996   2.987   0.921   0.721
45367SOL     OW37997   7.160  12.213  12.146
45367SOL    HW137998   7.113  12.201  12.229
45367SOL    HW237999   7.100  12.180  12.079
45368SOL     OW38000  11.049  14.417   4.419
45368SOL    HW138001  11.077  14.447   4.333
45368SOL    HW238002  10.955  14.400   4.409
45369SOL     OW38003  11.083  14.272   2.939
45369SOL    HW138004  11.096  14.216   2.862
45369SOL    HW238005  11.172  14.298   2.964
45370SOL     OW38006  14.089   5.376   8.156
45370SOL    HW138007  14.065   5.287   8.131
45370SOL    HW238008  14.152   5.403   8.089
45371SOL     OW38009  10.354   6.896   6.750
45371SOL    HW138010  10.417   6.951   6.702
45371SOL    HW238011  10.407   6.853   6.817
45372SOL     OW38012   6.938   3.407   8.806
45372SOL    HW138013   6.880   3.458   8.749
45372SOL    HW238014   6.919   3.316   8.785
45373SOL     OW38015   2.944   2.742   7.429
45373SOL    HW138016   2.956   2.829   7.391
45373SOL    HW238017   3.033   2.706   7.434
45374SOL     OW38018   8.858   1.846   0.211
45374SOL    HW138019   8.774   1.870   0.172
45374SOL    HW238020   8.889   1.772   0.158
45375SOL     OW38021   9.941  11.139  14.313
45375SOL    HW138022   9.894  11.097  14.385
45375SOL    HW238023  10.025  11.165  14.350
45376SOL     OW38024   4.273  13.357  10.401
45376SOL    HW138025   4.365  13.365  10.423
45376SOL    HW238026   4.257  13.429  10.340
45377SOL     OW38027   3.167  10.318  14.791
45377SOL    HW138028   3.198  10.408  14.801
45377SOL    HW238029   3.246  10.265  14.803
45378SOL     OW38030   9.902   7.511  10.710
45378SOL    HW138031   9.825   7.557  10.745
45378SOL    HW238032   9.911   7.434  10.765
45379SOL     OW38033  14.028   2.498   6.051
45379SOL    HW138034  14.081   2.563   6.096
45379SOL    HW238035  14.080   2.474   5.974
45380SOL     OW38036   1.504   6.058   2.890
45380SOL    HW138037   1.576   6.065   2.828
45380SOL    HW238038   1.498   6.144   2.932
45381SOL     OW38039  13.398   6.030   3.604
45381SOL    HW138040  13.358   5.947   3.628
45381SOL    HW238041  13.492   6.017   3.619
45382SOL     OW38042  10.488   6.808   4.942
45382SOL    HW138043  10.501   6.878   5.005
45382SOL    HW238044  10.541   6.834   4.867
45383SOL     OW38045   8.728  11.948  11.541
45383SOL    HW138046   8.819  11.963  11.518
45383SOL    HW238047   8.689  12.035  11.546
45384SOL     OW38048   1.069  10.898  12.803
45384SOL    HW138049   0.974  10.894  12.812
45384SOL    HW238050   1.096  10.969  12.862
45385SOL     OW38051   9.991  13.156   2.810
45385SOL    HW138052  10.066  13.097   2.801
45385SOL    HW238053   9.917  13.106   2.776
45386SOL     OW38054   3.230   6.798   0.552
45386SOL    HW138055   3.199   6.882   0.587
45386SOL    HW238056   3.151   6.753   0.523
45387SOL     OW38057   8.487   0.907  12.707
45387SOL    HW138058   8.520   0.819  12.723
45387SOL    HW238059   8.398   0.907  12.742
45388SOL     OW38060  12.624  13.135   6.991
45388SOL    HW138061  12.704  13.183   7.012
45388SOL    HW238062  12.586  13.114   7.077
45389SOL     OW38063   9.497   0.094  13.736
45389SOL    HW138064   9.559   0.167  13.737
45389SOL    HW238065   9.550   0.017  13.717
45390SOL     OW38066   2.427  10.086   3.543
45390SOL    HW138067   2.408  10.163   3.596
45390SOL    HW238068   2.452  10.018   3.607
45391SOL     OW38069   9.345   3.258  10.088
45391SOL    HW138070   9.313   3.320  10.022
45391SOL    HW238071   9.280   3.188  10.089
45392SOL     OW38072   2.995  12.553   6.138
45392SOL    HW138073   2.934  12.561   6.211
45392SOL    HW238074   2.945  12.509   6.069
45393SOL     OW38075   6.063  10.187   2.712
45393SOL    HW138076   6.102  10.104   2.738
45393SOL    HW238077   6.034  10.227   2.794
45394SOL     OW38078   9.588   6.344  14.678
45394SOL    HW138079   9.683   6.349  14.687
45394SOL    HW238080   9.562   6.434  14.656
45395SOL     OW38081  10.761  13.186  12.910
45395SOL    HW138082  10.719  13.102  12.928
45395SOL    HW238083  10.853  13.172  12.934
45396SOL     OW38084   6.283  10.578  13.899
45396SOL    HW138085   6.346  10.649  13.889
45396SOL    HW238086   6.242  10.571  13.813
45397SOL     OW38087   6.362  14.818  12.455
45397SOL    HW138088   6.457  14.829  12.452
45397SOL    HW238089   6.337  14.795  12.366
45398SOL     OW38090   7.053  10.320  11.256
45398SOL    HW138091   7.109  10.321  11.179
45398SOL    HW238092   7.013  10.233  11.256
45399SOL     OW38093   8.973  11.324  11.931
45399SOL    HW138094   9.000  11.275  11.853
45399SOL    HW238095   8.918  11.263  11.980
45400SOL     OW38096   8.610  11.091  13.541
45400SOL    HW138097   8.640  11.013  13.587
45400SOL    HW238098   8.536  11.122  13.592
45401SOL     OW38099   1.620   0.264   9.479
45401SOL    HW138100   1.650   0.242   9.568
45401SOL    HW238101   1.700   0.281   9.430
45402SOL     OW38102  14.614  12.608   0.029
45402SOL    HW138103  14.700  12.590  14.860
45402SOL    HW238104  14.617  12.701   0.051
45403SOL     OW38105   3.842  12.287   2.707
45403SOL    HW138106   3.901  12.324   2.641
45403SOL    HW238107   3.885  12.205   2.732
45404SOL     OW38108  13.397   0.435   1.041
45404SOL    HW138109  13.305   0.415   1.061
45404SOL    HW238110  13.405   0.420   0.947
45405SOL     OW38111   1.090  12.110   7.123
45405SOL    HW138112   1.110  12.036   7.066
45405SOL    HW238113   1.035  12.168   7.070
45406SOL     OW38114   5.600   5.602   7.676
45406SOL    HW138115   5.572   5.525   7.725
45406SOL    HW238116   5.603   5.672   7.742
45407SOL     OW38117   6.498   5.349   6.013
45407SOL    HW138118   6.469   5.313   6.097
45407SOL    HW238119   6.460   5.436   6.009
45408SOL     OW38120  12.939   4.697   8.405
45408SOL    HW138121  12.922   4.774   8.460
45408SOL    HW238122  12.880   4.630   8.437
45409SOL     OW38123   6.901   6.563   5.497
45409SOL    HW138124   6.977   6.594   5.447
45409SOL    HW238125   6.864   6.493   5.443
45410SOL     OW38126  11.611   4.302   8.918
45410SOL    HW138127  11.578   4.237   8.980
45410SOL    HW238128  11.690   4.337   8.959
45411SOL     OW38129   7.326   5.162   3.742
45411SOL    HW138130   7.397   5.184   3.682
45411SOL    HW238131   7.247   5.161   3.688
45412SOL     OW38132   1.767  13.695  11.659
45412SOL    HW138133   1.732  13.780  11.685
45412SOL    HW238134   1.694  13.634  11.672
45413SOL     OW38135  14.027   4.161   5.619
45413SOL    HW138136  13.962   4.100   5.584
45413SOL    HW238137  14.110   4.132   5.579
45414SOL     OW38138   2.096   3.433   8.331
45414SOL    HW138139   2.082   3.361   8.269
45414SOL    HW238140   2.087   3.512   8.278
45415SOL     OW38141  10.372   2.403  14.494
45415SOL    HW138142  10.343   2.337  14.556
45415SOL    HW238143  10.315   2.392  14.418
45416SOL     OW38144  14.718   0.339   5.234
45416SOL    HW138145  14.811   0.354   5.254
45416SOL    HW238146  14.688   0.423   5.199
45417SOL     OW38147   7.899   7.161   8.437
45417SOL    HW138148   7.900   7.127   8.347
45417SOL    HW238149   7.912   7.084   8.492
45418SOL     OW38150  13.582   3.302  13.904
45418SOL    HW138151  13.582   3.397  13.917
45418SOL    HW238152  13.556   3.291  13.812
45419SOL     OW38153   7.504   0.433  13.240
45419SOL    HW138154   7.421   0.442  13.192
45419SOL    HW238155   7.480   0.387  13.321
45420SOL     OW38156   9.613   8.750   2.065
45420SOL    HW138157   9.640   8.680   2.005
45420SOL    HW238158   9.695   8.786   2.098
45421SOL     OW38159   7.704  13.098  13.707
45421SOL    HW138160   7.795  13.094  13.680
45421SOL    HW238161   7.688  13.191  13.725
45422SOL     OW38162  14.617  11.480  14.630
45422SOL    HW138163  14.680  11.408  14.629
45422SOL    HW238164  14.550  11.452  14.693
45423SOL     OW38165   2.208   0.156  13.167
45423SOL    HW138166   2.267   0.165  13.092
45423SOL    HW238167   2.243   0.216  13.232
45424SOL     OW38168   2.593   5.410  14.636
45424SOL    HW138169   2.612   5.335  14.580
45424SOL    HW238170   2.554   5.475  14.577
45425SOL     OW38171   9.258   8.771  11.620
45425SOL    HW138172   9.227   8.859  11.642
45425SOL    HW238173   9.180   8.723  11.595
45426SOL     OW38174   0.602   7.511   0.310
45426SOL    HW138175   0.526   7.569   0.303
45426SOL    HW238176   0.583   7.457   0.387
45427SOL     OW38177   0.715   2.522   4.618
45427SOL    HW138178   0.694   2.453   4.681
45427SOL    HW238179   0.669   2.496   4.538
45428SOL     OW38180   3.917   0.621   6.072
45428SOL    HW138181   3.844   0.560   6.061
45428SOL    HW238182   3.995   0.567   6.064
45429SOL     OW38183  10.948  13.099   5.276
45429SOL    HW138184  11.043  13.112   5.273
45429SOL    HW238185  10.922  13.086   5.185
45430SOL     OW38186   3.453   3.466   9.274
45430SOL    HW138187   3.460   3.487   9.367
45430SOL    HW238188   3.401   3.385   9.272
45431SOL     OW38189   4.900   9.843   0.660
45431SOL    HW138190   4.828   9.782   0.647
45431SOL    HW238191   4.946   9.844   0.576
45432SOL     OW38192   8.978  13.193   7.127
45432SOL    HW138193   8.977  13.274   7.178
45432SOL    HW238194   8.951  13.125   7.189
45433SOL     OW38195   0.422   9.824   9.313
45433SOL    HW138196   0.495   9.841   9.253
45433SOL    HW238197   0.383   9.909   9.328
45434SOL     OW38198   6.637   5.448   0.305
45434SOL    HW138199   6.714   5.401   0.275
45434SOL    HW238200   6.570   5.428   0.239
45435SOL     OW38201  14.141   9.218  13.812
45435SOL    HW138202  14.222   9.242  13.858
45435SOL    HW238203  14.156   9.128  13.782
45436SOL     OW38204   9.225   3.241   9.753
45436SOL    HW138205   9.208   3.147   9.757
45436SOL    HW238206   9.319   3.249   9.769
45437SOL     OW38207   8.875   2.039   4.257
45437SOL    HW138208   8.960   2.030   4.215
45437SOL    HW238209   8.849   1.948   4.277
45438SOL     OW38210   8.057   2.722  12.223
45438SOL    HW138211   7.992   2.778  12.265
45438SOL    HW238212   8.007   2.667  12.162
45439SOL     OW38213   7.227   6.801   7.529
45439SOL    HW138214   7.274   6.872   7.484
45439SOL    HW238215   7.136   6.831   7.532
45440SOL     OW38216   3.676   1.557  13.231
45440SOL    HW138217   3.766   1.529  13.216
45440SOL    HW238218   3.643   1.577  13.143
45441SOL     OW38219   8.105  11.486   4.464
45441SOL    HW138220   8.031  11.446   4.418
45441SOL    HW238221   8.066  11.554   4.519
45442SOL     OW38222   9.068   3.119  14.230
45442SOL    HW138223   8.985   3.078  14.209
45442SOL    HW238224   9.060   3.209  14.197
45443SOL     OW38225   8.283   3.392  13.228
45443SOL    HW138226   8.349   3.324  13.218
45443SOL    HW238227   8.279   3.409  13.322
45444SOL     OW38228   8.978  14.254   9.763
45444SOL    HW138229   8.915  14.184   9.747
45444SOL    HW238230   8.927  14.324   9.804
45445SOL     OW38231   8.492   3.295   7.151
45445SOL    HW138232   8.415   3.266   7.102
45445SOL    HW238233   8.507   3.226   7.215
45446SOL     OW38234   6.970  13.778   4.631
45446SOL    HW138235   6.883  13.816   4.639
45446SOL    HW238236   6.954  13.688   4.600
45447SOL     OW38237   8.925   0.274   4.285
45447SOL    HW138238   8.991   0.337   4.311
45447SOL    HW238239   8.957   0.239   4.201
45448SOL     OW38240   1.593   8.734   4.256
45448SOL    HW138241   1.563   8.816   4.296
45448SOL    HW238242   1.689   8.742   4.255
45449SOL     OW38243   2.724   2.376  12.268
45449SOL    HW138244   2.628   2.376  12.265
45449SOL    HW238245   2.749   2.451  12.214
45450SOL     OW38246   5.066  14.332   5.341
45450SOL    HW138247   5.133  14.367   5.283
45450SOL    HW238248   4.983  14.360   5.303
45451SOL     OW38249   5.242   0.961   3.527
45451SOL    HW138250   5.228   0.871   3.497
45451SOL    HW238251   5.154   0.993   3.547
45452SOL     OW38252   5.531   1.004   8.247
45452SOL    HW138253   5.572   1.039   8.326
45452SOL    HW238254   5.486   1.079   8.208
45453SOL     OW38255   3.314   0.298  12.683
45453SOL    HW138256   3.312   0.358  12.757
45453SOL    HW238257   3.407   0.295  12.657
45454SOL     OW38258  12.375   4.971   2.750
45454SOL    HW138259  12.359   5.044   2.689
45454SOL    HW238260  12.447   5.002   2.805
45455SOL     OW38261  10.007   0.871   9.993
45455SOL    HW138262  10.021   0.801   9.930
45455SOL    HW238263   9.975   0.945   9.941
45456SOL     OW38264   8.969  11.091  14.663
45456SOL    HW138265   8.938  11.001  14.676
45456SOL    HW238266   8.895  11.137  14.625
45457SOL     OW38267   1.436   7.581   0.016
45457SOL    HW138268   1.415   7.500   0.064
45457SOL    HW238269   1.355   7.602  14.839
45458SOL     OW38270  12.014   4.339   6.922
45458SOL    HW138271  11.976   4.413   6.875
45458SOL    HW238272  12.103   4.367   6.944
45459SOL     OW38273  13.703   2.690   1.265
45459SOL    HW138274  13.745   2.702   1.350
45459SOL    HW238275  13.718   2.598   1.243
45460SOL     OW38276   2.387   7.943   1.518
45460SOL    HW138277   2.354   7.867   1.566
45460SOL    HW238278   2.393   8.012   1.584
45461SOL     OW38279   5.111   9.645  14.730
45461SOL    HW138280   5.046   9.675  14.666
45461SOL    HW238281   5.154   9.571  14.687
45462SOL     OW38282   1.780   0.508  10.432
45462SOL    HW138283   1.787   0.416  10.406
45462SOL    HW238284   1.694   0.515  10.472
45463SOL     OW38285   2.369   7.827   6.505
45463SOL    HW138286   2.404   7.779   6.429
45463SOL    HW238287   2.313   7.894   6.468
45464SOL     OW38288  14.617   3.401   0.741
45464SOL    HW138289  14.602   3.339   0.670
45464SOL    HW238290  14.707   3.384   0.770
45465SOL     OW38291   9.732   1.230  10.371
45465SOL    HW138292   9.684   1.169  10.427
45465SOL    HW238293   9.673   1.248  10.298
45466SOL     OW38294  12.644   0.207   9.467
45466SOL    HW138295  12.673   0.243   9.551
45466SOL    HW238296  12.711   0.142   9.444
45467SOL     OW38297   3.426   2.987   8.847
45467SOL    HW138298   3.421   2.911   8.905
45467SOL    HW238299   3.473   3.053   8.898
45468SOL     OW38300   7.378   8.210   1.723
45468SOL    HW138301   7.315   8.140   1.743
45468SOL    HW238302   7.347   8.248   1.641
45469SOL     OW38303   7.115  10.888   4.252
45469SOL    HW138304   7.190  10.853   4.205
45469SOL    HW238305   7.091  10.967   4.205
45470SOL     OW38306   4.630  10.503   8.135
45470SOL    HW138307   4.607  10.595   8.124
45470SOL    HW238308   4.726  10.502   8.136
45471SOL     OW38309   4.696   4.630  11.038
45471SOL    HW138310   4.666   4.619  10.948
45471SOL    HW238311   4.627   4.589  11.091
45472SOL     OW38312   3.649   0.899  10.819
45472SOL    HW138313   3.587   0.913  10.748
45472SOL    HW238314   3.635   0.972  10.879
45473SOL     OW38315   2.629   9.263   6.898
45473SOL    HW138316   2.659   9.281   6.809
45473SOL    HW238317   2.537   9.239   6.888
45474SOL     OW38318   7.916   6.848   1.785
45474SOL    HW138319   7.991   6.830   1.728
45474SOL    HW238320   7.896   6.940   1.769
45475SOL     OW38321   4.374   3.319  11.964
45475SOL    HW138322   4.299   3.373  11.939
45475SOL    HW238323   4.339   3.257  12.028
45476SOL     OW38324   5.528   2.501   2.991
45476SOL    HW138325   5.488   2.578   3.032
45476SOL    HW238326   5.565   2.533   2.909
45477SOL     OW38327   9.539   6.610   9.000
45477SOL    HW138328   9.561   6.644   8.913
45477SOL    HW238329   9.491   6.530   8.982
45478SOL     OW38330   5.583   3.102   3.131
45478SOL    HW138331   5.520   3.067   3.194
45478SOL    HW238332   5.575   3.046   3.054
45479SOL     OW38333   8.183   9.379   0.731
45479SOL    HW138334   8.264   9.337   0.762
45479SOL    HW238335   8.145   9.315   0.671
45480SOL     OW38336   0.769   8.874  12.873
45480SOL    HW138337   0.773   8.869  12.777
45480SOL    HW238338   0.684   8.835  12.895
45481SOL     OW38339  11.971  13.092  14.851
45481SOL    HW138340  11.931  13.087   0.068
45481SOL    HW238341  11.909  13.047  14.794
45482SOL     OW38342   4.191   1.903   4.947
45482SOL    HW138343   4.241   1.839   4.998
45482SOL    HW238344   4.124   1.934   5.008
45483SOL     OW38345   7.235   1.286   3.665
45483SOL    HW138346   7.199   1.219   3.724
45483SOL    HW238347   7.212   1.256   3.577
45484SOL     OW38348  13.587  10.784   0.366
45484SOL    HW138349  13.579  10.714   0.430
45484SOL    HW238350  13.668  10.763   0.318
45485SOL     OW38351   8.581   9.571  11.800
45485SOL    HW138352   8.566   9.552  11.707
45485SOL    HW238353   8.669   9.537  11.817
45486SOL     OW38354  11.537  10.184   8.388
45486SOL    HW138355  11.447  10.164   8.416
45486SOL    HW238356  11.533  10.275   8.359
45487SOL     OW38357   5.824   7.329   4.882
45487SOL    HW138358   5.916   7.347   4.864
45487SOL    HW238359   5.826   7.274   4.961
45488SOL     OW38360  11.272   7.140  14.244
45488SOL    HW138361  11.184   7.170  14.222
45488SOL    HW238362  11.276   7.144  14.339
45489SOL     OW38363   5.554   5.323   2.073
45489SOL    HW138364   5.526   5.281   2.154
45489SOL    HW238365   5.638   5.363   2.095
45490SOL     OW38366   4.504   4.997   6.886
45490SOL    HW138367   4.443   4.927   6.910
45490SOL    HW238368   4.501   4.999   6.790
45491SOL     OW38369   4.971   8.254   8.753
45491SOL    HW138370   4.936   8.165   8.758
45491SOL    HW238371   4.894   8.310   8.762
45492SOL     OW38372   5.074   6.751   0.976
45492SOL    HW138373   5.128   6.794   0.910
45492SOL    HW238374   5.031   6.680   0.929
45493SOL     OW38375  14.655   4.496   7.126
45493SOL    HW138376  14.661   4.401   7.143
45493SOL    HW238377  14.724   4.513   7.062
45494SOL     OW38378   6.123   2.220   3.610
45494SOL    HW138379   6.139   2.310   3.639
45494SOL    HW238380   6.157   2.217   3.520
45495SOL     OW38381   9.540  12.207  13.113
45495SOL    HW138382   9.496  12.273  13.167
45495SOL    HW238383   9.589  12.153  13.175
45496SOL     OW38384  12.943   2.439   0.359
45496SOL    HW138385  12.900   2.473   0.437
45496SOL    HW238386  12.936   2.344   0.366
45497SOL     OW38387  14.564   9.163   1.671
45497SOL    HW138388  14.485   9.158   1.725
45497SOL    HW238389  14.585   9.072   1.651
45498SOL     OW38390   6.732   7.740  13.601
45498SOL    HW138391   6.651   7.736  13.652
45498SOL    HW238392   6.769   7.652  13.609
45499SOL     OW38393   5.651   0.144  11.462
45499SOL    HW138394   5.559   0.119  11.451
45499SOL    HW238395   5.666   0.212  11.396
45500SOL     OW38396  14.307   0.192   9.280
45500SOL    HW138397  14.354   0.207   9.363
45500SOL    HW238398  14.352   0.117   9.241
45501SOL     OW38399   4.350  10.195  13.963
45501SOL    HW138400   4.277  10.251  13.935
45501SOL    HW238401   4.370  10.224  14.052
45502SOL     OW38402   8.579  14.132  11.445
45502SOL    HW138403   8.528  14.213  11.451
45502SOL    HW238404   8.663  14.153  11.484
45503SOL     OW38405  11.958  10.112   6.317
45503SOL    HW138406  11.957  10.016   6.312
45503SOL    HW238407  12.051  10.133   6.332
45504SOL     OW38408  14.735  11.699   5.239
45504SOL    HW138409  14.689  11.661   5.314
45504SOL    HW238410  14.823  11.718   5.271
45505SOL     OW38411   9.545   9.799  14.737
45505SOL    HW138412   9.600   9.741  14.684
45505SOL    HW238413   9.606   9.862  14.775
45506SOL     OW38414  12.490  12.566  14.233
45506SOL    HW138415  12.522  12.584  14.144
45506SOL    HW238416  12.526  12.636  14.286
45507SOL     OW38417  12.881   8.558   9.196
45507SOL    HW138418  12.813   8.529   9.136
45507SOL    HW238419  12.916   8.477   9.234
45508SOL     OW38420   4.341   8.900  11.240
45508SOL    HW138421   4.370   8.956  11.169
45508SOL    HW238422   4.379   8.939  11.319
45509SOL     OW38423   2.500   7.808   5.860
45509SOL    HW138424   2.588   7.775   5.878
45509SOL    HW238425   2.464   7.831   5.946
45510SOL     OW38426   2.167   5.376   7.420
45510SOL    HW138427   2.175   5.285   7.391
45510SOL    HW238428   2.185   5.373   7.514
45511SOL     OW38429   6.271   6.405   4.061
45511SOL    HW138430   6.181   6.412   4.029
45511SOL    HW238431   6.305   6.325   4.020
45512SOL     OW38432  11.134   5.265   5.161
45512SOL    HW138433  11.040   5.263   5.141
45512SOL    HW238434  11.174   5.209   5.095
45513SOL     OW38435   4.719   6.165   3.398
45513SOL    HW138436   4.684   6.097   3.455
45513SOL    HW238437   4.734   6.121   3.314
45514SOL     OW38438   6.936   0.044  14.680
45514SOL    HW138439   6.870   0.072  14.743
45514SOL    HW238440   7.012   0.021  14.733
45515SOL     OW38441   7.853   8.532   3.914
45515SOL    HW138442   7.852   8.560   4.005
45515SOL    HW238443   7.763   8.505   3.896
45516SOL     OW38444   6.243   1.168   7.858
45516SOL    HW138445   6.215   1.134   7.943
45516SOL    HW238446   6.177   1.136   7.796
45517SOL     OW38447   4.249   7.669   0.621
45517SOL    HW138448   4.342   7.665   0.599
45517SOL    HW238449   4.240   7.753   0.666
45518SOL     OW38450  13.649   8.693  14.203
45518SOL    HW138451  13.596   8.727  14.276
45518SOL    HW238452  13.738   8.720  14.224
45519SOL     OW38453   6.637  11.512   1.233
45519SOL    HW138454   6.583  11.590   1.226
45519SOL    HW238455   6.575  11.441   1.250
45520SOL     OW38456   6.862   1.020  12.305
45520SOL    HW138457   6.767   1.016  12.289
45520SOL    HW238458   6.889   1.103  12.267
45521SOL     OW38459   6.655   2.759   3.780
45521SOL    HW138460   6.642   2.725   3.868
45521SOL    HW238461   6.652   2.854   3.790
45522SOL     OW38462   8.539   1.792   8.869
45522SOL    HW138463   8.465   1.829   8.918
45522SOL    HW238464   8.546   1.702   8.900
45523SOL     OW38465   6.440   1.298  11.178
45523SOL    HW138466   6.448   1.365  11.110
45523SOL    HW238467   6.501   1.229  11.151
45524SOL     OW38468   1.120   0.774   1.534
45524SOL    HW138469   1.130   0.868   1.553
45524SOL    HW238470   1.207   0.737   1.549
45525SOL     OW38471   1.984   3.905  13.161
45525SOL    HW138472   2.015   3.905  13.070
45525SOL    HW238473   1.891   3.925  13.154
45526SOL     OW38474   9.742  13.783   4.239
45526SOL    HW138475   9.692  13.857   4.205
45526SOL    HW238476   9.787  13.819   4.315
45527SOL     OW38477  10.381   5.502   9.100
45527SOL    HW138478  10.330   5.520   9.021
45527SOL    HW238479  10.341   5.424   9.138
45528SOL     OW38480   9.105   2.616   9.793
45528SOL    HW138481   9.014   2.634   9.814
45528SOL    HW238482   9.120   2.661   9.710
45529SOL     OW38483   7.848   3.983   8.297
45529SOL    HW138484   7.842   4.073   8.329
45529SOL    HW238485   7.783   3.935   8.348
45530SOL     OW38486   7.074  14.812   8.494
45530SOL    HW138487   7.013  14.850   8.431
45530SOL    HW238488   7.065  14.867   8.572
45531SOL     OW38489   3.951   2.473   0.434
45531SOL    HW138490   3.977   2.562   0.456
45531SOL    HW238491   4.024   2.419   0.466
45532SOL     OW38492  13.996   5.771  11.562
45532SOL    HW138493  13.958   5.842  11.614
45532SOL    HW238494  13.921   5.731  11.519
45533SOL     OW38495   4.043  13.780   4.511
45533SOL    HW138496   4.117  13.801   4.455
45533SOL    HW238497   3.991  13.861   4.511
45534SOL     OW38498   1.568   9.414  12.794
45534SOL    HW138499   1.621   9.338  12.770
45534SOL    HW238500   1.536   9.395  12.882
45535SOL     OW38501   3.673   6.337   2.892
45535SOL    HW138502   3.721   6.419   2.902
45535SOL    HW238503   3.724   6.286   2.830
45536SOL     OW38504  10.659   6.921  14.291
45536SOL    HW138505  10.619   6.997  14.334
45536SOL    HW238506  10.750   6.921  14.320
45537SOL     OW38507   5.025   5.797  10.879
45537SOL    HW138508   5.084   5.728  10.850
45537SOL    HW238509   4.979   5.759  10.954
45538SOL     OW38510   3.421   6.336  11.317
45538SOL    HW138511   3.338   6.372  11.287
45538SOL    HW238512   3.427   6.364  11.408
45539SOL     OW38513   0.071   4.137   0.741
45539SOL    HW138514   0.024   4.122   0.822
45539SOL    HW238515   0.044   4.224   0.712
45540SOL     OW38516   5.132  11.213  14.274
45540SOL    HW138517   5.161  11.267  14.200
45540SOL    HW238518   5.179  11.250  14.349
45541SOL     OW38519   0.784  12.446   0.219
45541SOL    HW138520   0.863  12.469   0.268
45541SOL    HW238521   0.817  12.411   0.136
45542SOL     OW38522  12.478   3.665   9.504
45542SOL    HW138523  12.521   3.603   9.445
45542SOL    HW238524  12.449   3.736   9.446
45543SOL     OW38525  13.164   5.994   6.119
45543SOL    HW138526  13.085   6.042   6.146
45543SOL    HW238527  13.138   5.951   6.038
45544SOL     OW38528  12.989  10.903   8.593
45544SOL    HW138529  12.950  10.914   8.679
45544SOL    HW238530  12.975  10.810   8.572
45545SOL     OW38531   0.833  12.690  12.118
45545SOL    HW138532   0.834  12.604  12.159
45545SOL    HW238533   0.768  12.740  12.167
45546SOL     OW38534   8.088   6.668   9.617
45546SOL    HW138535   8.124   6.581   9.631
45546SOL    HW238536   8.095   6.683   9.523
45547SOL     OW38537   7.393   4.134   9.196
45547SOL    HW138538   7.477   4.179   9.188
45547SOL    HW238539   7.341   4.191   9.252
45548SOL     OW38540  14.322   6.794  12.949
45548SOL    HW138541  14.338   6.844  12.869
45548SOL    HW238542  14.293   6.708  12.917
45549SOL     OW38543  13.160   5.987  12.571
45549SOL    HW138544  13.181   5.957  12.483
45549SOL    HW238545  13.114   5.914  12.611
45550SOL     OW38546  11.096  12.826  13.735
45550SOL    HW138547  11.019  12.784  13.697
45550SOL    HW238548  11.072  12.919  13.742
45551SOL     OW38549   0.747  11.764  10.521
45551SOL    HW138550   0.724  11.830  10.455
45551SOL    HW238551   0.764  11.685  10.471
45552SOL     OW38552   7.377   6.629   4.626
45552SOL    HW138553   7.332   6.569   4.685
45552SOL    HW238554   7.324   6.709   4.628
45553SOL     OW38555   5.517   5.580  12.175
45553SOL    HW138556   5.558   5.556  12.258
45553SOL    HW238557   5.459   5.506  12.155
45554SOL     OW38558  10.661   9.263   3.034
45554SOL    HW138559  10.602   9.257   2.958
45554SOL    HW238560  10.734   9.317   3.002
45555SOL     OW38561  14.285   0.818   5.309
45555SOL    HW138562  14.311   0.779   5.393
45555SOL    HW238563  14.287   0.913   5.325
45556SOL     OW38564   7.061   2.447   7.213
45556SOL    HW138565   7.020   2.483   7.292
45556SOL    HW238566   7.148   2.487   7.212
45557SOL     OW38567   9.421  14.070  10.183
45557SOL    HW138568   9.340  14.033  10.148
45557SOL    HW238569   9.470  14.099  10.107
45558SOL     OW38570   5.835   5.241  14.771
45558SOL    HW138571   5.764   5.221  14.710
45558SOL    HW238572   5.790   5.270  14.851
45559SOL     OW38573  13.045  10.345   2.161
45559SOL    HW138574  12.969  10.311   2.208
45559SOL    HW238575  13.118  10.332   2.221
45560SOL     OW38576   2.326   8.886   1.172
45560SOL    HW138577   2.345   8.979   1.180
45560SOL    HW238578   2.295   8.861   1.259
45561SOL     OW38579  11.159   3.404  14.582
45561SOL    HW138580  11.112   3.392  14.500
45561SOL    HW238581  11.130   3.331  14.637
45562SOL     OW38582  13.173  12.301   0.902
45562SOL    HW138583  13.087  12.291   0.943
45562SOL    HW238584  13.185  12.220   0.852
45563SOL     OW38585  12.922   8.764  11.736
45563SOL    HW138586  12.996   8.803  11.691
45563SOL    HW238587  12.930   8.670  11.720
45564SOL     OW38588  14.452   6.152   7.152
45564SOL    HW138589  14.436   6.058   7.161
45564SOL    HW238590  14.515   6.158   7.080
45565SOL     OW38591   8.588   3.861   4.734
45565SOL    HW138592   8.555   3.924   4.798
45565SOL    HW238593   8.682   3.881   4.727
45566SOL     OW38594   0.058  14.313   1.452
45566SOL    HW138595   0.094  14.299   1.365
45566SOL    HW238596   0.119  14.269   1.511
45567SOL     OW38597   8.874   8.328   6.623
45567SOL    HW138598   8.779   8.340   6.614
45567SOL    HW238599   8.885   8.295   6.713
45568SOL     OW38600   6.266  10.574   9.052
45568SOL    HW138601   6.287  10.654   9.100
45568SOL    HW238602   6.350  10.529   9.042
45569SOL     OW38603   6.505   2.140   9.335
45569SOL    HW138604   6.448   2.214   9.355
45569SOL    HW238605   6.567   2.137   9.408
45570SOL     OW38606  12.218   8.930   1.140
45570SOL    HW138607  12.304   8.903   1.110
45570SOL    HW238608  12.212   8.896   1.229
45571SOL     OW38609   7.735  11.195   2.665
45571SOL    HW138610   7.754  11.102   2.678
45571SOL    HW238611   7.799  11.241   2.719
45572SOL     OW38612   0.882  11.524   4.799
45572SOL    HW138613   0.871  11.481   4.714
45572SOL    HW238614   0.900  11.453   4.860
45573SOL     OW38615   3.829  13.606   0.576
45573SOL    HW138616   3.871  13.665   0.639
45573SOL    HW238617   3.757  13.658   0.539
45574SOL     OW38618  11.142   6.515  13.199
45574SOL    HW138619  11.129   6.421  13.211
45574SOL    HW238620  11.150   6.526  13.104
45575SOL     OW38621   5.722   8.103   9.571
45575SOL    HW138622   5.705   8.014   9.540
45575SOL    HW238623   5.690   8.160   9.501
45576SOL     OW38624   8.304   7.175   3.813
45576SOL    HW138625   8.238   7.126   3.862
45576SOL    HW238626   8.253   7.231   3.754
45577SOL     OW38627   5.107   4.939   0.642
45577SOL    HW138628   5.116   4.952   0.548
45577SOL    HW238629   5.056   4.858   0.651
45578SOL     OW38630  12.080  14.295  11.785
45578SOL    HW138631  12.085  14.384  11.751
45578SOL    HW238632  11.986  14.273  11.780
45579SOL     OW38633   7.160  13.310  10.470
45579SOL    HW138634   7.229  13.300  10.535
45579SOL    HW238635   7.080  13.325  10.521
45580SOL     OW38636  12.544   9.713  13.603
45580SOL    HW138637  12.525   9.721  13.697
45580SOL    HW238638  12.501   9.789  13.563
45581SOL     OW38639   3.467   9.368   0.746
45581SOL    HW138640   3.465   9.275   0.726
45581SOL    HW238641   3.560   9.391   0.744
45582SOL     OW38642   6.895   6.955   2.130
45582SOL    HW138643   6.948   6.875   2.130
45582SOL    HW238644   6.845   6.951   2.212
45583SOL     OW38645   2.772   2.133   8.115
45583SOL    HW138646   2.779   2.177   8.200
45583SOL    HW238647   2.686   2.091   8.116
45584SOL     OW38648   6.214   3.223  10.963
45584SOL    HW138649   6.180   3.311  10.948
45584SOL    HW238650   6.284   3.235  11.027
45585SOL     OW38651   8.963  13.909   8.608
45585SOL    HW138652   8.976  13.885   8.516
45585SOL    HW238653   8.880  13.867   8.632
45586SOL     OW38654   9.186   1.780  12.194
45586SOL    HW138655   9.154   1.866  12.220
45586SOL    HW238656   9.280   1.783  12.211
45587SOL     OW38657  10.718   3.667   6.036
45587SOL    HW138658  10.722   3.592   6.096
45587SOL    HW238659  10.696   3.741   6.092
45588SOL     OW38660   4.182   5.669  10.939
45588SOL    HW138661   4.095   5.644  10.970
45588SOL    HW238662   4.229   5.586  10.933
45589SOL     OW38663   3.325  13.120  14.111
45589SOL    HW138664   3.357  13.205  14.142
45589SOL    HW238665   3.389  13.057  14.144
45590SOL     OW38666   4.566   2.172   3.801
45590SOL    HW138667   4.557   2.116   3.724
45590SOL    HW238668   4.483   2.219   3.806
45591SOL     OW38669   3.417   4.554   1.113
45591SOL    HW138670   3.394   4.461   1.124
45591SOL    HW238671   3.512   4.555   1.120
45592SOL     OW38672   2.408   2.973  14.535
45592SOL    HW138673   2.492   2.926  14.531
45592SOL    HW238674   2.383   2.987  14.444
45593SOL     OW38675   1.458   5.315   8.840
45593SOL    HW138676   1.440   5.400   8.799
45593SOL    HW238677   1.463   5.254   8.766
45594SOL     OW38678   9.401   3.906   3.642
45594SOL    HW138679   9.489   3.911   3.679
45594SOL    HW238680   9.359   3.989   3.667
45595SOL     OW38681   8.268   2.779  10.566
45595SOL    HW138682   8.337   2.839  10.593
45595SOL    HW238683   8.301   2.740  10.484
45596SOL     OW38684  10.676   4.593   6.028
45596SOL    HW138685  10.662   4.687   6.018
45596SOL    HW238686  10.679   4.559   5.939
45597SOL     OW38687  14.706  13.441  12.349
45597SOL    HW138688  14.759  13.382  12.296
45597SOL    HW238689  14.732  13.423  12.439
45598SOL     OW38690  10.131  12.492   9.582
45598SOL    HW138691  10.170  12.575   9.555
45598SOL    HW238692  10.045  12.516   9.618
45599SOL     OW38693  13.963   9.935   8.327
45599SOL    HW138694  14.021  10.010   8.333
45599SOL    HW238695  13.918   9.946   8.243
45600SOL     OW38696   2.941  10.316   1.300
45600SOL    HW138697   2.846  10.317   1.299
45600SOL    HW238698   2.965  10.341   1.389
45601SOL     OW38699   2.914   1.164   4.292
45601SOL    HW138700   2.987   1.218   4.321
45601SOL    HW238701   2.903   1.187   4.200
45602SOL     OW38702   3.193   4.468   7.782
45602SOL    HW138703   3.260   4.420   7.732
45602SOL    HW238704   3.227   4.469   7.871
45603SOL     OW38705  14.390  10.796   4.438
45603SOL    HW138706  14.389  10.712   4.394
45603SOL    HW238707  14.474  10.835   4.413
45604SOL     OW38708   5.287   4.614  13.723
45604SOL    HW138709   5.359   4.556  13.747
45604SOL    HW238710   5.320   4.702  13.740
45605SOL     OW38711   1.423  12.288   2.748
45605SOL    HW138712   1.435  12.383   2.745
45605SOL    HW238713   1.395  12.271   2.838
45606SOL     OW38714   1.446   7.324  11.123
45606SOL    HW138715   1.421   7.288  11.037
45606SOL    HW238716   1.527   7.279  11.145
45607SOL     OW38717   4.398  13.437   1.970
45607SOL    HW138718   4.366  13.511   1.919
45607SOL    HW238719   4.472  13.403   1.920
45608SOL     OW38720   7.297  13.056   0.901
45608SOL    HW138721   7.254  13.141   0.910
45608SOL    HW238722   7.238  12.994   0.944
45609SOL     OW38723  10.802   1.016   5.377
45609SOL    HW138724  10.804   1.111   5.372
45609SOL    HW238725  10.765   0.988   5.294
45610SOL     OW38726  11.258   0.596  10.964
45610SOL    HW138727  11.179   0.612  10.913
45610SOL    HW238728  11.286   0.508  10.939
45611SOL     OW38729   5.474  14.318  14.470
45611SOL    HW138730   5.436  14.268  14.398
45611SOL    HW238731   5.462  14.410  14.445
45612SOL     OW38732  12.183   0.771   2.731
45612SOL    HW138733  12.170   0.833   2.803
45612SOL    HW238734  12.126   0.803   2.661
45613SOL     OW38735   7.662  10.214   3.234
45613SOL    HW138736   7.643  10.240   3.144
45613SOL    HW238737   7.606  10.138   3.250
45614SOL     OW38738   0.248  11.126   6.171
45614SOL    HW138739   0.242  11.207   6.222
45614SOL    HW238740   0.308  11.071   6.221
45615SOL     OW38741  10.188   0.524   7.436
45615SOL    HW138742  10.137   0.548   7.359
45615SOL    HW238743  10.124   0.481   7.494
45616SOL     OW38744   6.801   2.303   2.231
45616SOL    HW138745   6.721   2.354   2.218
45616SOL    HW238746   6.798   2.277   2.323
45617SOL     OW38747  13.637  14.087  12.129
45617SOL    HW138748  13.555  14.136  12.120
45617SOL    HW238749  13.653  14.050  12.042
45618SOL     OW38750  11.281  11.186   2.950
45618SOL    HW138751  11.351  11.123   2.966
45618SOL    HW238752  11.257  11.218   3.037
45619SOL     OW38753   1.463  12.678   0.950
45619SOL    HW138754   1.400  12.747   0.928
45619SOL    HW238755   1.448  12.660   1.043
45620SOL     OW38756  11.046  14.753   3.909
45620SOL    HW138757  11.062  14.807   3.831
45620SOL    HW238758  11.050  14.663   3.878
45621SOL     OW38759   6.698   8.429   9.226
45621SOL    HW138760   6.665   8.402   9.140
45621SOL    HW238761   6.765   8.494   9.207
45622SOL     OW38762   0.092   0.396  13.935
45622SOL    HW138763   0.074   0.318  13.987
45622SOL    HW238764   0.101   0.364  13.846
45623SOL     OW38765   6.462  12.141  11.522
45623SOL    HW138766   6.451  12.066  11.463
45623SOL    HW238767   6.497  12.210  11.466
45624SOL     OW38768   8.751   9.507  13.899
45624SOL    HW138769   8.693   9.431  13.892
45624SOL    HW238770   8.695   9.582  13.876
45625SOL     OW38771   3.146   2.191   9.174
45625SOL    HW138772   3.213   2.254   9.198
45625SOL    HW238773   3.195   2.114   9.144
45626SOL     OW38774   0.619  14.134   0.445
45626SOL    HW138775   0.543  14.116   0.390
45626SOL    HW238776   0.672  14.055   0.441
45627SOL     OW38777  11.953   8.180   8.179
45627SOL    HW138778  11.993   8.236   8.113
45627SOL    HW238779  11.894   8.239   8.227
45628SOL     OW38780   6.786  13.222   2.442
45628SOL    HW138781   6.789  13.127   2.443
45628SOL    HW238782   6.708  13.244   2.494
45629SOL     OW38783   5.274  13.711   0.508
45629SOL    HW138784   5.351  13.720   0.564
45629SOL    HW238785   5.308  13.674   0.426
45630SOL     OW38786   8.213   8.507   9.899
45630SOL    HW138787   8.150   8.436   9.889
45630SOL    HW238788   8.234   8.533   9.809
45631SOL     OW38789  10.963   3.620   5.877
45631SOL    HW138790  10.970   3.673   5.797
45631SOL    HW238791  10.888   3.658   5.924
45632SOL     OW38792   9.944   8.130  12.130
45632SOL    HW138793   9.887   8.171  12.195
45632SOL    HW238794   9.919   8.171  12.047
45633SOL     OW38795   9.854   2.959   4.024
45633SOL    HW138796   9.915   2.911   4.079
45633SOL    HW238797   9.910   3.004   3.960
45634SOL     OW38798  13.038  14.008  11.148
45634SOL    HW138799  13.095  13.973  11.080
45634SOL    HW238800  13.032  13.939  11.213
45635SOL     OW38801   3.828  12.129   6.334
45635SOL    HW138802   3.906  12.184   6.329
45635SOL    HW238803   3.852  12.060   6.397
45636SOL     OW38804  14.448   1.335  12.096
45636SOL    HW138805  14.520   1.344  12.158
45636SOL    HW238806  14.370   1.356  12.146
45637SOL     OW38807   6.474  11.405  13.577
45637SOL    HW138808   6.432  11.321  13.597
45637SOL    HW238809   6.476  11.452  13.661
45638SOL     OW38810  14.483   4.108   1.102
45638SOL    HW138811  14.445   4.065   1.178
45638SOL    HW238812  14.473   4.046   1.031
45639SOL     OW38813   0.746   8.694  13.362
45639SOL    HW138814   0.710   8.747  13.290
45639SOL    HW238815   0.839   8.686  13.341
45640SOL     OW38816  11.294   3.043   9.630
45640SOL    HW138817  11.296   3.085   9.544
45640SOL    HW238818  11.201   3.041   9.654
45641SOL     OW38819   3.064   8.295   6.981
45641SOL    HW138820   3.043   8.389   6.985
45641SOL    HW238821   3.026   8.259   7.062
45642SOL     OW38822  10.471   0.822  11.162
45642SOL    HW138823  10.465   0.772  11.244
45642SOL    HW238824  10.437   0.763  11.095
45643SOL     OW38825   4.296   1.268   5.871
45643SOL    HW138826   4.215   1.282   5.920
45643SOL    HW238827   4.330   1.356   5.856
45644SOL     OW38828  10.965   7.094   4.499
45644SOL    HW138829  10.933   7.005   4.510
45644SOL    HW238830  10.968   7.108   4.405
45645SOL     OW38831  12.725   2.631   1.349
45645SOL    HW138832  12.722   2.698   1.417
45645SOL    HW238833  12.686   2.553   1.390
45646SOL     OW38834   3.190  10.344  13.642
45646SOL    HW138835   3.098  10.359  13.662
45646SOL    HW238836   3.210  10.258  13.679
45647SOL     OW38837   0.360  11.543   3.127
45647SOL    HW138838   0.395  11.625   3.090
45647SOL    HW238839   0.265  11.555   3.125
45648SOL     OW38840  12.591  10.975  11.256
45648SOL    HW138841  12.507  11.019  11.238
45648SOL    HW238842  12.572  10.882  11.247
45649SOL     OW38843   1.384   7.615   8.257
45649SOL    HW138844   1.362   7.623   8.350
45649SOL    HW238845   1.385   7.521   8.240
45650SOL     OW38846   0.329   5.785   4.536
45650SOL    HW138847   0.271   5.714   4.565
45650SOL    HW238848   0.337   5.773   4.442
45651SOL     OW38849  11.103   4.306   5.615
45651SOL    HW138850  11.063   4.292   5.529
45651SOL    HW238851  11.176   4.366   5.597
45652SOL     OW38852   7.256  12.094  12.904
45652SOL    HW138853   7.227  12.007  12.933
45652SOL    HW238854   7.181  12.151  12.921
45653SOL     OW38855   6.110  13.836   5.558
45653SOL    HW138856   6.115  13.771   5.489
45653SOL    HW238857   6.152  13.795   5.634
45654SOL     OW38858   0.755   7.322  12.478
45654SOL    HW138859   0.731   7.292  12.566
45654SOL    HW238860   0.755   7.418  12.484
45655SOL     OW38861  10.283  14.044   9.719
45655SOL    HW138862  10.217  14.090   9.770
45655SOL    HW238863  10.366  14.063   9.762
45656SOL     OW38864  12.539  10.029  10.046
45656SOL    HW138865  12.476   9.966  10.010
45656SOL    HW238866  12.622   9.983  10.046
45657SOL     OW38867  10.450   9.324   5.155
45657SOL    HW138868  10.476   9.240   5.194
45657SOL    HW238869  10.375   9.352   5.207
45658SOL     OW38870  12.763   0.267  12.706
45658SOL    HW138871  12.854   0.294  12.712
45658SOL    HW238872  12.738   0.284  12.615
45659SOL     OW38873  12.053   8.135   0.249
45659SOL    HW138874  12.090   8.047   0.253
45659SOL    HW238875  11.959   8.122   0.261
45660SOL     OW38876   9.993   6.756  14.807
45660SOL    HW138877  10.027   6.836  14.847
45660SOL    HW238878   9.917   6.785  14.756
45661SOL     OW38879   6.400   2.001  11.747
45661SOL    HW138880   6.381   2.074  11.805
45661SOL    HW238881   6.349   2.018  11.668
45662SOL     OW38882   2.233   8.958  10.509
45662SOL    HW138883   2.297   8.923  10.447
45662SOL    HW238884   2.270   9.043  10.536
45663SOL     OW38885   5.700  11.225   7.778
45663SOL    HW138886   5.643  11.264   7.711
45663SOL    HW238887   5.675  11.132   7.779
45664SOL     OW38888   9.653   9.802  12.379
45664SOL    HW138889   9.736   9.792  12.332
45664SOL    HW238890   9.589   9.820  12.311
45665SOL     OW38891  14.588   5.290   1.733
45665SOL    HW138892  14.640   5.303   1.813
45665SOL    HW238893  14.498   5.281   1.764
45666SOL     OW38894   4.003  10.559   0.667
45666SOL    HW138895   3.924  10.600   0.632
45666SOL    HW238896   3.996  10.467   0.641
45667SOL     OW38897  10.489   8.900   8.087
45667SOL    HW138898  10.568   8.948   8.114
45667SOL    HW238899  10.444   8.961   8.028
45668SOL     OW38900  13.858  11.833   6.323
45668SOL    HW138901  13.840  11.920   6.286
45668SOL    HW238902  13.911  11.851   6.400
45669SOL     OW38903   4.820  12.914   3.995
45669SOL    HW138904   4.881  12.852   3.956
45669SOL    HW238905   4.773  12.863   4.061
45670SOL     OW38906  10.232  11.633   7.185
45670SOL    HW138907  10.299  11.624   7.252
45670SOL    HW238908  10.280  11.647   7.104
45671SOL     OW38909  10.115   0.626   4.090
45671SOL    HW138910  10.136   0.548   4.039
45671SOL    HW238911  10.106   0.594   4.180
45672SOL     OW38912   5.749   9.384   2.528
45672SOL    HW138913   5.809   9.376   2.454
45672SOL    HW238914   5.676   9.437   2.494
45673SOL     OW38915   8.583   5.931   1.852
45673SOL    HW138916   8.517   5.957   1.917
45673SOL    HW238917   8.599   6.010   1.801
45674SOL     OW38918   4.970  13.694   1.219
45674SOL    HW138919   5.051  13.693   1.169
45674SOL    HW238920   4.953  13.787   1.235
45675SOL     OW38921   5.168  14.764   3.412
45675SOL    HW138922   5.164  14.857   3.434
45675SOL    HW238923   5.262  14.744   3.412
45676SOL     OW38924   0.629   0.815   1.604
45676SOL    HW138925   0.677   0.734   1.586
45676SOL    HW238926   0.594   0.804   1.692
45677SOL     OW38927  11.219   3.186  10.052
45677SOL    HW138928  11.173   3.249   9.996
45677SOL    HW238929  11.186   3.205  10.140
45678SOL     OW38930  11.659  11.794   3.117
45678SOL    HW138931  11.689  11.721   3.171
45678SOL    HW238932  11.564  11.781   3.109
45679SOL     OW38933  14.025   6.225   5.273
45679SOL    HW138934  14.112   6.184   5.277
45679SOL    HW238935  13.964   6.153   5.281
45680SOL     OW38936   7.571  11.991   7.103
45680SOL    HW138937   7.486  12.003   7.145
45680SOL    HW238938   7.575  12.062   7.038
45681SOL     OW38939   1.400   7.293   1.981
45681SOL    HW138940   1.451   7.373   1.990
45681SOL    HW238941   1.310   7.323   1.963
45682SOL     OW38942  12.469   5.922  14.078
45682SOL    HW138943  12.526   5.963  14.144
45682SOL    HW238944  12.393   5.892  14.127
45683SOL     OW38945  10.932   5.608   4.235
45683SOL    HW138946  10.964   5.671   4.299
45683SOL    HW238947  10.976   5.526   4.257
45684SOL     OW38948  11.558   3.588   2.989
45684SOL    HW138949  11.559   3.588   3.085
45684SOL    HW238950  11.493   3.654   2.966
45685SOL     OW38951   0.988  13.162   1.488
45685SOL    HW138952   0.976  13.237   1.429
45685SOL    HW238953   0.965  13.086   1.434
45686SOL     OW38954   9.021   6.824  11.359
45686SOL    HW138955   9.041   6.739  11.397
45686SOL    HW238956   9.085   6.834  11.288
45687SOL     OW38957  12.682   3.055   2.889
45687SOL    HW138958  12.639   3.128   2.843
45687SOL    HW238959  12.699   3.090   2.977
45688SOL     OW38960   2.612   3.810   8.235
45688SOL    HW138961   2.691   3.818   8.289
45688SOL    HW238962   2.586   3.718   8.244
45689SOL     OW38963   0.452   4.538   2.769
45689SOL    HW138964   0.450   4.584   2.685
45689SOL    HW238965   0.395   4.590   2.826
45690SOL     OW38966   2.160   7.338   9.148
45690SOL    HW138967   2.220   7.410   9.168
45690SOL    HW238968   2.168   7.325   9.054
45691SOL     OW38969   1.932  14.308  11.052
45691SOL    HW138970   1.914  14.270  10.966
45691SOL    HW238971   1.891  14.248  11.114
45692SOL     OW38972   6.365   1.537   1.555
45692SOL    HW138973   6.272   1.558   1.566
45692SOL    HW238974   6.383   1.558   1.463
45693SOL     OW38975  12.768   7.395  13.149
45693SOL    HW138976  12.840   7.450  13.178
45693SOL    HW238977  12.778   7.314  13.199
45694SOL     OW38978   7.667  11.120   9.791
45694SOL    HW138979   7.606  11.140   9.863
45694SOL    HW238980   7.630  11.042   9.749
45695SOL     OW38981   5.432   8.918   6.725
45695SOL    HW138982   5.426   8.888   6.634
45695SOL    HW238983   5.432   9.013   6.719
45696SOL     OW38984   1.667  11.180   1.826
45696SOL    HW138985   1.609  11.161   1.900
45696SOL    HW238986   1.751  11.199   1.866
45697SOL     OW38987   1.324  14.750   1.146
45697SOL    HW138988   1.344  14.666   1.186
45697SOL    HW238989   1.343  14.738   1.053
45698SOL     OW38990   2.323   2.330   2.882
45698SOL    HW138991   2.325   2.426   2.887
45698SOL    HW238992   2.387   2.308   2.814
45699SOL     OW38993   4.776   3.143  10.410
45699SOL    HW138994   4.738   3.151  10.498
45699SOL    HW238995   4.870   3.154  10.424
45700SOL     OW38996   2.934  10.984  10.937
45700SOL    HW138997   2.943  10.912  10.999
45700SOL    HW238998   3.024  11.014  10.922
45701SOL     OW38999  11.611   8.994  14.656
45701SOL    HW139000  11.634   8.910  14.697
45701SOL    HW239001  11.657   8.993  14.572
45702SOL     OW39002   5.661  14.452   0.327
45702SOL    HW139003   5.717  14.458   0.250
45702SOL    HW239004   5.661  14.359   0.350
45703SOL     OW39005  12.607   1.690   4.247
45703SOL    HW139006  12.669   1.649   4.187
45703SOL    HW239007  12.522   1.679   4.204
45704SOL     OW39008   0.607   0.061   1.737
45704SOL    HW139009   0.607   0.154   1.714
45704SOL    HW239010   0.579   0.058   1.829
45705SOL     OW39011   4.080   8.730   0.597
45705SOL    HW139012   3.994   8.706   0.632
45705SOL    HW239013   4.096   8.818   0.633
45706SOL     OW39014   0.987   0.205   7.688
45706SOL    HW139015   0.928   0.137   7.720
45706SOL    HW239016   1.061   0.204   7.749
45707SOL     OW39017   3.315  12.451   1.400
45707SOL    HW139018   3.270  12.388   1.344
45707SOL    HW239019   3.252  12.467   1.471
45708SOL     OW39020   1.462   3.260   2.105
45708SOL    HW139021   1.498   3.246   2.017
45708SOL    HW239022   1.536   3.242   2.164
45709SOL     OW39023   8.930  14.364  14.089
45709SOL    HW139024   8.868  14.328  14.153
45709SOL    HW239025   8.922  14.459  14.100
45710SOL     OW39026  11.023   7.753   1.015
45710SOL    HW139027  11.105   7.704   1.012
45710SOL    HW239028  10.965   7.700   1.070
45711SOL     OW39029   4.357   6.079   9.902
45711SOL    HW139030   4.334   6.052   9.991
45711SOL    HW239031   4.391   6.168   9.912
45712SOL     OW39032   6.567   2.436   0.303
45712SOL    HW139033   6.523   2.355   0.277
45712SOL    HW239034   6.611   2.466   0.224
45713SOL     OW39035   2.290   1.197   0.724
45713SOL    HW139036   2.232   1.124   0.704
45713SOL    HW239037   2.246   1.244   0.795
45714SOL     OW39038  14.271  12.715   6.431
45714SOL    HW139039  14.219  12.766   6.369
45714SOL    HW239040  14.223  12.632   6.440
45715SOL     OW39041  10.557   5.549   1.331
45715SOL    HW139042  10.552   5.629   1.384
45715SOL    HW239043  10.561   5.478   1.395
45716SOL     OW39044   3.299   8.072   8.902
45716SOL    HW139045   3.366   8.004   8.895
45716SOL    HW239046   3.233   8.035   8.961
45717SOL     OW39047  14.564  11.781   3.306
45717SOL    HW139048  14.603  11.694   3.306
45717SOL    HW239049  14.638  11.841   3.310
45718SOL     OW39050   9.431  13.312   9.893
45718SOL    HW139051   9.369  13.380   9.918
45718SOL    HW239052   9.407  13.236   9.947
45719SOL     OW39053  14.296   6.632  13.808
45719SOL    HW139054  14.361   6.585  13.860
45719SOL    HW239055  14.238   6.672  13.873
45720SOL     OW39056  12.165  14.627   5.405
45720SOL    HW139057  12.236  14.630   5.340
45720SOL    HW239058  12.140  14.535   5.409
45721SOL     OW39059  10.539   0.036   3.352
45721SOL    HW139060  10.470  14.842   3.332
45721SOL    HW239061  10.512   0.116   3.307
45722SOL     OW39062   6.698  11.703   5.108
45722SOL    HW139063   6.757  11.774   5.084
45722SOL    HW239064   6.713  11.690   5.202
45723SOL     OW39065  14.516  12.944   0.479
45723SOL    HW139066  14.441  12.954   0.537
45723SOL    HW239067  14.540  12.852   0.485
45724SOL     OW39068  12.163   5.934   1.167
45724SOL    HW139069  12.080   5.969   1.135
45724SOL    HW239070  12.139   5.862   1.225
45725SOL     OW39071  11.212  13.807  10.369
45725SOL    HW139072  11.294  13.783  10.326
45725SOL    HW239073  11.232  13.888  10.416
45726SOL     OW39074   0.802   3.240   5.550
45726SOL    HW139075   0.871   3.188   5.510
45726SOL    HW239076   0.844   3.287   5.622
45727SOL     OW39077   3.126   7.522   7.617
45727SOL    HW139078   3.032   7.535   7.602
45727SOL    HW239079   3.131   7.448   7.677
45728SOL     OW39080   5.895   8.510   6.502
45728SOL    HW139081   5.976   8.535   6.457
45728SOL    HW239082   5.876   8.422   6.471
45729SOL     OW39083   4.639  13.074   3.865
45729SOL    HW139084   4.686  13.029   3.935
45729SOL    HW239085   4.616  13.159   3.903
45730SOL     OW39086   2.701  13.645   9.337
45730SOL    HW139087   2.758  13.722   9.329
45730SOL    HW239088   2.688  13.635   9.431
45731SOL     OW39089  11.492   5.407   4.667
45731SOL    HW139090  11.419   5.353   4.638
45731SOL    HW239091  11.515   5.461   4.592
45732SOL     OW39092   2.996   5.639  12.180
45732SOL    HW139093   2.942   5.560  12.186
45732SOL    HW239094   2.989   5.666  12.088
45733SOL     OW39095   6.722   9.532   4.000
45733SOL    HW139096   6.778   9.494   4.067
45733SOL    HW239097   6.750   9.624   3.995
45734SOL     OW39098   1.347   4.546   0.240
45734SOL    HW139099   1.399   4.473   0.207
45734SOL    HW239100   1.375   4.621   0.187
45735SOL     OW39101   0.602   1.023  14.606
45735SOL    HW139102   0.656   1.015  14.528
45735SOL    HW239103   0.606   1.116  14.629
45736SOL     OW39104  10.296   8.011  10.098
45736SOL    HW139105  10.392   7.999  10.099
45736SOL    HW239106  10.262   7.922  10.105
45737SOL     OW39107   6.200   5.006  11.607
45737SOL    HW139108   6.104   5.001  11.606
45737SOL    HW239109   6.221   5.086  11.558
45738SOL     OW39110   1.791  12.529   1.748
45738SOL    HW139111   1.884  12.523   1.728
45738SOL    HW239112   1.786  12.587   1.823
45739SOL     OW39113   5.933  12.882  11.940
45739SOL    HW139114   5.943  12.805  11.883
45739SOL    HW239115   5.851  12.866  11.987
45740SOL     OW39116   5.434  13.575  13.433
45740SOL    HW139117   5.381  13.508  13.476
45740SOL    HW239118   5.524  13.557  13.460
45741SOL     OW39119   5.385  14.654  10.445
45741SOL    HW139120   5.421  14.573  10.481
45741SOL    HW239121   5.441  14.674  10.370
45742SOL     OW39122   9.967  14.507   3.431
45742SOL    HW139123   9.909  14.527   3.358
45742SOL    HW239124   9.930  14.427   3.470
45743SOL     OW39125  13.462   5.329  12.436
45743SOL    HW139126  13.430   5.311  12.524
45743SOL    HW239127  13.554   5.353  12.448
45744SOL     OW39128   6.722   0.121   3.006
45744SOL    HW139129   6.764   0.181   3.067
45744SOL    HW239130   6.788   0.103   2.939
45745SOL     OW39131  13.096   0.244   8.191
45745SOL    HW139132  13.054   0.268   8.274
45745SOL    HW239133  13.023   0.235   8.130
45746SOL     OW39134  11.243  10.583   5.500
45746SOL    HW139135  11.255  10.561   5.407
45746SOL    HW239136  11.149  10.572   5.514
45747SOL     OW39137  11.330   1.219   0.368
45747SOL    HW139138  11.392   1.287   0.346
45747SOL    HW239139  11.265   1.222   0.298
45748SOL     OW39140  11.024   9.718   6.680
45748SOL    HW139141  10.998   9.661   6.608
45748SOL    HW239142  11.013   9.807   6.646
45749SOL     OW39143   1.070  10.470   7.112
45749SOL    HW139144   1.129  10.459   7.037
45749SOL    HW239145   1.004  10.401   7.100
45750SOL     OW39146   7.013   5.916  11.416
45750SOL    HW139147   7.084   5.881  11.363
45750SOL    HW239148   6.934   5.875  11.381
45751SOL     OW39149  11.138  10.669   2.774
45751SOL    HW139150  11.199  10.597   2.790
45751SOL    HW239151  11.166  10.738   2.833
45752SOL     OW39152   5.463   5.134  10.612
45752SOL    HW139153   5.548   5.153  10.650
45752SOL    HW239154   5.400   5.172  10.673
45753SOL     OW39155   3.304   7.946   7.117
45753SOL    HW139156   3.282   8.011   7.184
45753SOL    HW239157   3.399   7.952   7.109
45754SOL     OW39158  10.543   5.785  10.725
45754SOL    HW139159  10.493   5.773  10.644
45754SOL    HW239160  10.635   5.788  10.696
45755SOL     OW39161  10.770   9.672   4.322
45755SOL    HW139162  10.702   9.731   4.353
45755SOL    HW239163  10.851   9.709   4.357
45756SOL     OW39164  13.519   3.614   1.312
45756SOL    HW139165  13.457   3.687   1.310
45756SOL    HW239166  13.534   3.592   1.220
45757SOL     OW39167   3.441   6.468   4.315
45757SOL    HW139168   3.372   6.504   4.259
45757SOL    HW239169   3.463   6.384   4.275
45758SOL     OW39170  14.315   8.809   4.877
45758SOL    HW139171  14.303   8.714   4.875
45758SOL    HW239172  14.225   8.844   4.879
45759SOL     OW39173   6.540   5.645   7.796
45759SOL    HW139174   6.546   5.689   7.711
45759SOL    HW239175   6.471   5.580   7.783
45760SOL     OW39176  11.557  14.521  12.788
45760SOL    HW139177  11.617  14.468  12.736
45760SOL    HW239178  11.531  14.464  12.860
45761SOL     OW39179   8.732   6.340   1.077
45761SOL    HW139180   8.752   6.248   1.093
45761SOL    HW239181   8.771   6.386   1.152
45762SOL     OW39182   2.698   9.861   4.607
45762SOL    HW139183   2.638   9.856   4.532
45762SOL    HW239184   2.642   9.886   4.681
45763SOL     OW39185  11.453  12.233  10.807
45763SOL    HW139186  11.465  12.283  10.888
45763SOL    HW239187  11.360  12.245  10.786
45764SOL     OW39188  11.956   1.524   1.118
45764SOL    HW139189  11.919   1.504   1.032
45764SOL    HW239190  11.881   1.522   1.178
45765SOL     OW39191   1.403  12.008   6.320
45765SOL    HW139192   1.473  11.950   6.350
45765SOL    HW239193   1.422  12.022   6.227
45766SOL     OW39194  10.145   1.567  12.556
45766SOL    HW139195  10.209   1.632  12.585
45766SOL    HW239196  10.123   1.518  12.635
45767SOL     OW39197   6.862  11.768  10.704
45767SOL    HW139198   6.859  11.841  10.641
45767SOL    HW239199   6.902  11.696  10.655
45768SOL     OW39200   3.551   8.626   4.293
45768SOL    HW139201   3.468   8.583   4.311
45768SOL    HW239202   3.610   8.595   4.362
45769SOL     OW39203   0.534   5.207   5.405
45769SOL    HW139204   0.462   5.206   5.469
45769SOL    HW239205   0.581   5.125   5.420
45770SOL     OW39206  12.852   2.422   4.905
45770SOL    HW139207  12.898   2.355   4.956
45770SOL    HW239208  12.895   2.421   4.820
45771SOL     OW39209  10.148   6.673   5.933
45771SOL    HW139210  10.076   6.641   5.878
45771SOL    HW239211  10.156   6.766   5.909
45772SOL     OW39212  13.524   1.181   7.531
45772SOL    HW139213  13.609   1.164   7.491
45772SOL    HW239214  13.464   1.120   7.487
45773SOL     OW39215   0.945  10.149   1.948
45773SOL    HW139216   0.871  10.210   1.949
45773SOL    HW239217   0.997  10.176   1.872
45774SOL     OW39218   3.584   3.042   6.264
45774SOL    HW139219   3.503   3.075   6.227
45774SOL    HW239220   3.601   3.100   6.339
45775SOL     OW39221  10.882   9.971   6.302
45775SOL    HW139222  10.902   9.911   6.374
45775SOL    HW239223  10.815  10.029   6.338
45776SOL     OW39224   0.148   5.146   7.370
45776SOL    HW139225   0.086   5.184   7.308
45776SOL    HW239226   0.129   5.190   7.453
45777SOL     OW39227  13.438   0.970   4.534
45777SOL    HW139228  13.527   0.936   4.539
45777SOL    HW239229  13.448   1.065   4.533
45778SOL     OW39230  14.459   2.035   1.648
45778SOL    HW139231  14.364   2.026   1.640
45778SOL    HW239232  14.492   1.945   1.653
45779SOL     OW39233   2.804   8.897   4.307
45779SOL    HW139234   2.815   8.987   4.340
45779SOL    HW239235   2.858   8.894   4.228
45780SOL     OW39236   8.856   0.573   4.197
45780SOL    HW139237   8.913   0.564   4.120
45780SOL    HW239238   8.885   0.503   4.256
45781SOL     OW39239  14.639   3.069   7.862
45781SOL    HW139240  14.562   3.116   7.894
45781SOL    HW239241  14.713   3.124   7.888
45782SOL     OW39242  12.786   7.392   5.686
45782SOL    HW139243  12.797   7.296   5.685
45782SOL    HW239244  12.874   7.426   5.703
45783SOL     OW39245   9.579   3.651   2.160
45783SOL    HW139246   9.541   3.593   2.226
45783SOL    HW239247   9.672   3.630   2.160
45784SOL     OW39248   3.692   0.554   7.321
45784SOL    HW139249   3.725   0.616   7.256
45784SOL    HW239250   3.764   0.494   7.336
45785SOL     OW39251  10.012   7.323   6.776
45785SOL    HW139252   9.981   7.260   6.841
45785SOL    HW239253   9.932   7.355   6.734
45786SOL     OW39254  10.351   2.597   7.165
45786SOL    HW139255  10.433   2.573   7.208
45786SOL    HW239256  10.357   2.692   7.154
45787SOL     OW39257   1.489  11.787   8.634
45787SOL    HW139258   1.397  11.767   8.614
45787SOL    HW239259   1.539  11.718   8.590
45788SOL     OW39260  12.167   0.530  10.469
45788SOL    HW139261  12.153   0.518  10.563
45788SOL    HW239262  12.179   0.624  10.457
45789SOL     OW39263  13.602   7.928   5.038
45789SOL    HW139264  13.537   7.872   4.996
45789SOL    HW239265  13.564   8.016   5.034
45790SOL     OW39266   6.402   3.591   1.560
45790SOL    HW139267   6.405   3.687   1.563
45790SOL    HW239268   6.326   3.572   1.504
45791SOL     OW39269   5.078   2.907   3.078
45791SOL    HW139270   5.039   2.831   3.035
45791SOL    HW239271   5.140   2.869   3.142
45792SOL     OW39272   0.518   0.449  14.408
45792SOL    HW139273   0.601   0.441  14.360
45792SOL    HW239274   0.514   0.371  14.463
45793SOL     OW39275  12.825  12.656  10.561
45793SOL    HW139276  12.853  12.668  10.651
45793SOL    HW239277  12.818  12.745  10.525
45794SOL     OW39278   5.826  11.705   9.513
45794SOL    HW139279   5.882  11.704   9.435
45794SOL    HW239280   5.778  11.787   9.508
45795SOL     OW39281   6.911  14.295   7.632
45795SOL    HW139282   6.889  14.306   7.725
45795SOL    HW239283   6.924  14.201   7.622
45796SOL     OW39284  14.588   5.415   8.302
45796SOL    HW139285  14.580   5.341   8.241
45796SOL    HW239286  14.599   5.375   8.388
45797SOL     OW39287  12.113  10.955   8.783
45797SOL    HW139288  12.038  11.010   8.807
45797SOL    HW239289  12.103  10.942   8.689
45798SOL     OW39290   2.167   4.474   7.033
45798SOL    HW139291   2.112   4.455   6.957
45798SOL    HW239292   2.121   4.545   7.079
45799SOL     OW39293   8.612  11.514   2.210
45799SOL    HW139294   8.608  11.533   2.116
45799SOL    HW239295   8.560  11.434   2.221
45800SOL     OW39296   0.266  10.306  13.976
45800SOL    HW139297   0.205  10.325  14.047
45800SOL    HW239298   0.211  10.294  13.899
45801SOL     OW39299   7.291   7.745   5.423
45801SOL    HW139300   7.240   7.664   5.432
45801SOL    HW239301   7.335   7.737   5.339
45802SOL     OW39302  12.076   6.808   7.325
45802SOL    HW139303  12.156   6.859   7.325
45802SOL    HW239304  12.040   6.820   7.238
45803SOL     OW39305   8.898  10.123   0.365
45803SOL    HW139306   8.968  10.062   0.388
45803SOL    HW239307   8.842  10.126   0.442
45804SOL     OW39308   6.768   9.735   4.401
45804SOL    HW139309   6.726   9.733   4.488
45804SOL    HW239310   6.745   9.821   4.366
45805SOL     OW39311   1.119  13.102   5.228
45805SOL    HW139312   1.210  13.080   5.248
45805SOL    HW239313   1.089  13.030   5.172
45806SOL     OW39314   8.713   3.768  11.659
45806SOL    HW139315   8.795   3.761  11.709
45806SOL    HW239316   8.647   3.726  11.714
45807SOL     OW39317   8.736   9.039   8.667
45807SOL    HW139318   8.809   9.101   8.669
45807SOL    HW239319   8.689   9.055   8.749
45808SOL     OW39320  13.774   1.106   7.508
45808SOL    HW139321  13.858   1.110   7.462
45808SOL    HW239322  13.790   1.149   7.592
45809SOL     OW39323  11.660   7.588  12.887
45809SOL    HW139324  11.735   7.602  12.830
45809SOL    HW239325  11.686   7.626  12.971
45810SOL     OW39326  12.802   4.534   3.804
45810SOL    HW139327  12.736   4.465   3.811
45810SOL    HW239328  12.754   4.610   3.771
45811SOL     OW39329  10.633   6.925   6.820
45811SOL    HW139330  10.691   6.970   6.881
45811SOL    HW239331  10.571   6.879   6.877
45812SOL     OW39332  13.350   4.855   6.762
45812SOL    HW139333  13.322   4.946   6.749
45812SOL    HW239334  13.293   4.822   6.831
45813SOL     OW39335   4.786   0.071   3.947
45813SOL    HW139336   4.818   0.010   3.880
45813SOL    HW239337   4.858   0.078   4.010
45814SOL     OW39338  14.148   1.529  12.839
45814SOL    HW139339  14.134   1.484  12.756
45814SOL    HW239340  14.243   1.535  12.848
45815SOL     OW39341  13.780   2.336   7.558
45815SOL    HW139342  13.859   2.344   7.505
45815SOL    HW239343  13.710   2.371   7.503
45816SOL     OW39344   0.394   2.465  12.537
45816SOL    HW139345   0.315   2.520  12.543
45816SOL    HW239346   0.453   2.500  12.604
45817SOL     OW39347  11.720   4.054  13.778
45817SOL    HW139348  11.800   4.072  13.827
45817SOL    HW239349  11.668   4.133  13.788
45818SOL     OW39350   6.409   7.010   4.054
45818SOL    HW139351   6.463   7.014   4.133
45818SOL    HW239352   6.469   6.981   3.985
45819SOL     OW39353   8.599  11.491   6.382
45819SOL    HW139354   8.577  11.409   6.340
45819SOL    HW239355   8.549  11.557   6.335
45820SOL     OW39356  10.927   3.731  10.909
45820SOL    HW139357  10.831   3.734  10.902
45820SOL    HW239358  10.958   3.775  10.830
45821SOL     OW39359  12.231   2.239   4.082
45821SOL    HW139360  12.296   2.169   4.092
45821SOL    HW239361  12.279   2.319   4.101
45822SOL     OW39362   8.807   4.661   5.137
45822SOL    HW139363   8.747   4.713   5.192
45822SOL    HW239364   8.783   4.570   5.156
45823SOL     OW39365   2.832   9.635   4.744
45823SOL    HW139366   2.850   9.567   4.679
45823SOL    HW239367   2.742   9.662   4.725
45824SOL     OW39368   1.782  14.219  13.545
45824SOL    HW139369   1.819  14.234  13.459
45824SOL    HW239370   1.698  14.265  13.544
45825SOL     OW39371   9.119   6.969   8.897
45825SOL    HW139372   9.129   6.999   8.807
45825SOL    HW239373   9.051   6.901   8.893
45826SOL     OW39374  13.593   9.160   4.100
45826SOL    HW139375  13.661   9.167   4.033
45826SOL    HW239376  13.632   9.105   4.168
45827SOL     OW39377   5.635   4.128   3.828
45827SOL    HW139378   5.604   4.209   3.869
45827SOL    HW239379   5.721   4.149   3.793
45828SOL     OW39380   6.235   0.024   5.409
45828SOL    HW139381   6.228   0.101   5.353
45828SOL    HW239382   6.264   0.058   5.494
45829SOL     OW39383  11.057   1.895   4.192
45829SOL    HW139384  11.024   1.807   4.178
45829SOL    HW239385  10.990   1.937   4.247
45830SOL     OW39386  11.771   1.128   4.257
45830SOL    HW139387  11.706   1.199   4.257
45830SOL    HW239388  11.753   1.079   4.177
45831SOL     OW39389   0.569   8.177   1.971
45831SOL    HW139390   0.497   8.160   2.031
45831SOL    HW239391   0.593   8.268   1.987
45832SOL     OW39392   1.739   2.737   7.305
45832SOL    HW139393   1.797   2.689   7.364
45832SOL    HW239394   1.687   2.792   7.363
45833SOL     OW39395   8.326   0.051   6.779
45833SOL    HW139396   8.244   0.026   6.821
45833SOL    HW239397   8.377  14.840   6.775
45834SOL     OW39398   9.345   6.801  13.331
45834SOL    HW139399   9.417   6.800  13.395
45834SOL    HW239400   9.346   6.714  13.292
45835SOL     OW39401   6.156   7.816   3.849
45835SOL    HW139402   6.217   7.847   3.782
45835SOL    HW239403   6.169   7.875   3.923
45836SOL     OW39404   7.366   3.119  10.024
45836SOL    HW139405   7.406   3.033  10.036
45836SOL    HW239406   7.344   3.149  10.112
45837SOL     OW39407  14.192   8.599   1.247
45837SOL    HW139408  14.266   8.554   1.208
45837SOL    HW239409  14.115   8.560   1.206
45838SOL     OW39410  11.474   6.117   2.193
45838SOL    HW139411  11.531   6.161   2.256
45838SOL    HW239412  11.402   6.178   2.179
45839SOL     OW39413   2.318   0.515  13.061
45839SOL    HW139414   2.394   0.459  13.074
45839SOL    HW239415   2.353   0.602  13.044
45840SOL     OW39416   5.960   7.157   0.686
45840SOL    HW139417   5.902   7.092   0.725
45840SOL    HW239418   6.045   7.140   0.725
45841SOL     OW39419   7.614   0.316   5.776
45841SOL    HW139420   7.620   0.357   5.690
45841SOL    HW239421   7.520   0.305   5.791
45842SOL     OW39422   4.577   4.605   7.232
45842SOL    HW139423   4.574   4.607   7.137
45842SOL    HW239424   4.598   4.695   7.257
45843SOL     OW39425  11.603   9.078  13.434
45843SOL    HW139426  11.611   9.128  13.516
45843SOL    HW239427  11.541   9.127  13.382
45844SOL     OW39428   5.435   4.863  13.750
45844SOL    HW139429   5.417   4.957  13.760
45844SOL    HW239430   5.447   4.831  13.839
45845SOL     OW39431   9.260  11.638   6.322
45845SOL    HW139432   9.314  11.671   6.394
45845SOL    HW239433   9.181  11.691   6.325
45846SOL     OW39434   2.110  13.806   9.189
45846SOL    HW139435   2.160  13.860   9.250
45846SOL    HW239436   2.160  13.724   9.185
45847SOL     OW39437  13.670   4.670  13.231
45847SOL    HW139438  13.737   4.603  13.245
45847SOL    HW239439  13.640   4.693  13.319
45848SOL     OW39440   1.367  10.339  13.992
45848SOL    HW139441   1.386  10.412  14.051
45848SOL    HW239442   1.274  10.322  14.006
45849SOL     OW39443   6.287   9.018   0.435
45849SOL    HW139444   6.328   9.094   0.476
45849SOL    HW239445   6.276   9.043   0.343
45850SOL     OW39446   9.172   7.812  12.614
45850SOL    HW139447   9.172   7.908  12.612
45850SOL    HW239448   9.262   7.789  12.639
45851SOL     OW39449   8.092  14.502   4.372
45851SOL    HW139450   8.122  14.590   4.392
45851SOL    HW239451   7.998  14.504   4.388
45852SOL     OW39452   5.981  10.662  13.965
45852SOL    HW139453   5.900  10.710  13.948
45852SOL    HW239454   6.047  10.707  13.913
45853SOL     OW39455   0.272   9.279  10.696
45853SOL    HW139456   0.220   9.257  10.618
45853SOL    HW239457   0.317   9.361  10.672
45854SOL     OW39458   1.038  12.408  13.280
45854SOL    HW139459   1.123  12.405  13.236
45854SOL    HW239460   1.016  12.501  13.282
45855SOL     OW39461   8.240   9.553  13.869
45855SOL    HW139462   8.235   9.587  13.779
45855SOL    HW239463   8.320   9.592  13.904
45856SOL     OW39464   0.839   7.560   7.632
45856SOL    HW139465   0.889   7.613   7.694
45856SOL    HW239466   0.841   7.472   7.669
45857SOL     OW39467   0.447  11.144   9.357
45857SOL    HW139468   0.495  11.146   9.274
45857SOL    HW239469   0.513  11.124   9.423
45858SOL     OW39470  13.827  13.907   6.867
45858SOL    HW139471  13.854  13.953   6.788
45858SOL    HW239472  13.790  13.976   6.923
45859SOL     OW39473   8.788  10.640   4.565
45859SOL    HW139474   8.770  10.582   4.491
45859SOL    HW239475   8.819  10.721   4.524
45860SOL     OW39476   1.533   4.317   1.107
45860SOL    HW139477   1.475   4.312   1.183
45860SOL    HW239478   1.530   4.408   1.080
45861SOL     OW39479   3.149  14.108   3.544
45861SOL    HW139480   3.112  14.028   3.583
45861SOL    HW239481   3.128  14.101   3.451
45862SOL     OW39482   7.973   0.475   4.882
45862SOL    HW139483   7.914   0.548   4.863
45862SOL    HW239484   7.972   0.466   4.977
45863SOL     OW39485   8.980  11.943  12.828
45863SOL    HW139486   8.892  11.980  12.816
45863SOL    HW239487   9.017  11.991  12.902
45864SOL     OW39488   7.073   3.916   0.580
45864SOL    HW139489   7.042   3.833   0.545
45864SOL    HW239490   7.125   3.893   0.656
45865SOL     OW39491   5.107   2.492  13.304
45865SOL    HW139492   5.067   2.562  13.355
45865SOL    HW239493   5.035   2.431  13.287
45866SOL     OW39494   9.233   2.807   5.071
45866SOL    HW139495   9.228   2.732   5.130
45866SOL    HW239496   9.150   2.853   5.084
45867SOL     OW39497   9.816   6.785   3.739
45867SOL    HW139498   9.807   6.768   3.833
45867SOL    HW239499   9.729   6.772   3.703
45868SOL     OW39500   5.732   1.889  11.934
45868SOL    HW139501   5.806   1.887  11.874
45868SOL    HW239502   5.668   1.829  11.895
45869SOL     OW39503   2.727   8.381  14.381
45869SOL    HW139504   2.661   8.451  14.378
45869SOL    HW239505   2.769   8.384  14.295
45870SOL     OW39506  10.836   0.536   3.799
45870SOL    HW139507  10.851   0.477   3.726
45870SOL    HW239508  10.863   0.486   3.876
45871SOL     OW39509  13.820  14.492   0.777
45871SOL    HW139510  13.793  14.473   0.687
45871SOL    HW239511  13.781  14.577   0.797
45872SOL     OW39512   6.017   4.656   8.324
45872SOL    HW139513   6.076   4.639   8.250
45872SOL    HW239514   6.055   4.606   8.396
45873SOL     OW39515   9.913   3.741  11.297
45873SOL    HW139516   9.967   3.760  11.220
45873SOL    HW239517   9.888   3.828  11.330
45874SOL     OW39518  12.293   4.496   6.995
45874SOL    HW139519  12.362   4.437   6.966
45874SOL    HW239520  12.311   4.578   6.949
45875SOL     OW39521   3.456   8.286   0.600
45875SOL    HW139522   3.389   8.217   0.600
45875SOL    HW239523   3.536   8.241   0.571
45876SOL     OW39524   5.186  10.296   6.078
45876SOL    HW139525   5.168  10.383   6.113
45876SOL    HW239526   5.099  10.261   6.055
45877SOL     OW39527  13.915   4.067   8.411
45877SOL    HW139528  13.919   4.051   8.317
45877SOL    HW239529  14.002   4.100   8.433
45878SOL     OW39530  11.952  14.530   1.684
45878SOL    HW139531  11.963  14.442   1.649
45878SOL    HW239532  12.034  14.575   1.661
45879SOL     OW39533  11.125   4.120  12.952
45879SOL    HW139534  11.046   4.071  12.927
45879SOL    HW239535  11.192   4.092  12.890
45880SOL     OW39536  10.398  13.560   8.458
45880SOL    HW139537  10.431  13.528   8.374
45880SOL    HW239538  10.307  13.533   8.460
45881SOL     OW39539   9.241   6.556  14.327
45881SOL    HW139540   9.305   6.608  14.376
45881SOL    HW239541   9.181   6.622  14.290
45882SOL     OW39542   1.367   2.983   6.564
45882SOL    HW139543   1.337   2.912   6.621
45882SOL    HW239544   1.317   3.059   6.592
45883SOL     OW39545  13.223  13.322  10.130
45883SOL    HW139546  13.216  13.385  10.201
45883SOL    HW239547  13.239  13.238  10.174
45884SOL     OW39548  12.073  10.940  13.785
45884SOL    HW139549  12.130  10.869  13.814
45884SOL    HW239550  11.988  10.898  13.770
45885SOL     OW39551   0.850   5.065   9.396
45885SOL    HW139552   0.860   5.152   9.436
45885SOL    HW239553   0.759   5.041   9.412
45886SOL     OW39554   3.778  13.901   6.698
45886SOL    HW139555   3.755  13.993   6.689
45886SOL    HW239556   3.718  13.856   6.638
45887SOL     OW39557   6.409   4.289   2.664
45887SOL    HW139558   6.314   4.276   2.672
45887SOL    HW239559   6.417   4.372   2.616
45888SOL     OW39560  14.658   1.893   9.611
45888SOL    HW139561  14.675   1.987   9.619
45888SOL    HW239562  14.702   1.854   9.687
45889SOL     OW39563   9.889  11.475   1.595
45889SOL    HW139564   9.921  11.386   1.611
45889SOL    HW239565   9.932  11.528   1.663
45890SOL     OW39566  13.752   8.991   5.425
45890SOL    HW139567  13.832   9.020   5.380
45890SOL    HW239568  13.784   8.933   5.495
45891SOL     OW39569   9.261  14.157   8.515
45891SOL    HW139570   9.319  14.190   8.584
45891SOL    HW239571   9.279  14.213   8.440
45892SOL     OW39572  10.443  11.733   3.209
45892SOL    HW139573  10.502  11.785   3.264
45892SOL    HW239574  10.495  11.655   3.186
45893SOL     OW39575   0.935  12.695  14.072
45893SOL    HW139576   0.841  12.716  14.078
45893SOL    HW239577   0.954  12.646  14.152
45894SOL     OW39578   6.413  11.143   2.242
45894SOL    HW139579   6.468  11.129   2.166
45894SOL    HW239580   6.448  11.222   2.283
45895SOL     OW39581   8.546   9.097  11.046
45895SOL    HW139582   8.454   9.073  11.032
45895SOL    HW239583   8.550   9.190  11.023
45896SOL     OW39584  13.991   1.554   3.370
45896SOL    HW139585  13.929   1.519   3.433
45896SOL    HW239586  13.970   1.509   3.288
45897SOL     OW39587   2.800   3.273  12.880
45897SOL    HW139588   2.823   3.364  12.864
45897SOL    HW239589   2.773   3.271  12.972
45898SOL     OW39590  12.123   0.801   9.892
45898SOL    HW139591  12.102   0.708   9.890
45898SOL    HW239592  12.119   0.829   9.800
45899SOL     OW39593   5.995   7.842  10.175
45899SOL    HW139594   5.931   7.801  10.233
45899SOL    HW239595   6.080   7.822  10.214
45900SOL     OW39596  13.528   7.082  11.213
45900SOL    HW139597  13.557   7.167  11.244
45900SOL    HW239598  13.434   7.080  11.233
45901SOL     OW39599   1.703  11.488   7.324
45901SOL    HW139600   1.781  11.501   7.379
45901SOL    HW239601   1.635  11.461   7.386
45902SOL     OW39602  13.219   4.202   8.844
45902SOL    HW139603  13.138   4.249   8.864
45902SOL    HW239604  13.276   4.218   8.920
45903SOL     OW39605  11.683  13.736  10.503
45903SOL    HW139606  11.637  13.818  10.484
45903SOL    HW239607  11.769  13.748  10.463
45904SOL     OW39608   9.786   4.392   3.020
45904SOL    HW139609   9.782   4.453   2.946
45904SOL    HW239610   9.793   4.306   2.979
45905SOL     OW39611  11.943   2.667  14.632
45905SOL    HW139612  11.858   2.644  14.669
45905SOL    HW239613  11.953   2.610  14.556
45906SOL     OW39614   7.062   5.096   7.149
45906SOL    HW139615   7.002   5.116   7.222
45906SOL    HW239616   7.006   5.056   7.083
45907SOL     OW39617  14.295  10.629  12.628
45907SOL    HW139618  14.213  10.591  12.663
45907SOL    HW239619  14.271  10.662  12.542
45908SOL     OW39620   8.356   1.922   7.441
45908SOL    HW139621   8.275   1.935   7.392
45908SOL    HW239622   8.419   1.979   7.399
45909SOL     OW39623   4.900   0.938  10.141
45909SOL    HW139624   4.948   0.998  10.198
45909SOL    HW239625   4.865   0.872  10.200
45910SOL     OW39626   6.869   1.671  13.171
45910SOL    HW139627   6.815   1.721  13.110
45910SOL    HW239628   6.958   1.699  13.154
45911SOL     OW39629  12.862   3.921   0.872
45911SOL    HW139630  12.783   3.974   0.886
45911SOL    HW239631  12.920   3.978   0.822
45912SOL     OW39632   1.288   8.056   8.260
45912SOL    HW139633   1.351   8.116   8.221
45912SOL    HW239634   1.304   8.062   8.354
45913SOL     OW39635   7.375   0.709   1.020
45913SOL    HW139636   7.398   0.620   1.050
45913SOL    HW239637   7.345   0.697   0.930
45914SOL     OW39638   1.591   6.724  10.940
45914SOL    HW139639   1.532   6.779  10.992
45914SOL    HW239640   1.537   6.693  10.867
45915SOL     OW39641   4.446   6.801   5.918
45915SOL    HW139642   4.477   6.802   5.828
45915SOL    HW239643   4.394   6.881   5.927
45916SOL     OW39644   4.505   7.944   6.385
45916SOL    HW139645   4.584   7.956   6.332
45916SOL    HW239646   4.509   7.853   6.413
45917SOL     OW39647   0.763   7.539   6.929
45917SOL    HW139648   0.857   7.522   6.940
45917SOL    HW239649   0.723   7.501   7.007
45918SOL     OW39650  11.878   3.890   4.758
45918SOL    HW139651  11.803   3.894   4.698
45918SOL    HW239652  11.918   3.977   4.752
45919SOL     OW39653  12.569   4.340  11.225
45919SOL    HW139654  12.548   4.302  11.310
45919SOL    HW239655  12.661   4.364  11.232
45920SOL     OW39656  13.946   6.904  11.524
45920SOL    HW139657  14.034   6.886  11.557
45920SOL    HW239658  13.948   6.876  11.433
45921SOL     OW39659   6.341   5.299   8.009
45921SOL    HW139660   6.379   5.221   7.968
45921SOL    HW239661   6.246   5.283   8.007
45922SOL     OW39662   4.771  10.485   0.894
45922SOL    HW139663   4.702  10.424   0.921
45922SOL    HW239664   4.737  10.525   0.814
45923SOL     OW39665   4.581  10.356   9.879
45923SOL    HW139666   4.537  10.353   9.794
45923SOL    HW239667   4.542  10.286   9.930
45924SOL     OW39668   6.725   8.792  13.264
45924SOL    HW139669   6.778   8.865  13.232
45924SOL    HW239670   6.698   8.818  13.351
45925SOL     OW39671  11.041   8.961   6.628
45925SOL    HW139672  11.011   8.972   6.538
45925SOL    HW239673  11.115   9.021   6.636
45926SOL     OW39674  13.315   0.631  12.083
45926SOL    HW139675  13.360   0.686  12.018
45926SOL    HW239676  13.362   0.547  12.079
45927SOL     OW39677  12.982  13.546   7.921
45927SOL    HW139678  12.975  13.460   7.962
45927SOL    HW239679  12.900  13.590   7.942
45928SOL     OW39680   6.670  11.542   0.226
45928SOL    HW139681   6.743  11.562   0.167
45928SOL    HW239682   6.678  11.606   0.296
45929SOL     OW39683   5.285  10.696   0.109
45929SOL    HW139684   5.361  10.722   0.056
45929SOL    HW239685   5.266  10.773   0.162
45930SOL     OW39686  13.228   3.508  14.105
45930SOL    HW139687  13.304   3.451  14.095
45930SOL    HW239688  13.228   3.532  14.198
45931SOL     OW39689   9.742  13.916   4.490
45931SOL    HW139690   9.713  13.875   4.571
45931SOL    HW239691   9.830  13.883   4.476
45932SOL     OW39692   3.957   4.054  12.522
45932SOL    HW139693   3.969   3.964  12.553
45932SOL    HW239694   3.866   4.074  12.543
45933SOL     OW39695  13.653  12.324  12.791
45933SOL    HW139696  13.721  12.257  12.798
45933SOL    HW239697  13.628  12.323  12.698
45934SOL     OW39698   5.402   1.349   9.919
45934SOL    HW139699   5.483   1.363   9.968
45934SOL    HW239700   5.377   1.436   9.888
45935SOL     OW39701   3.061   9.087  12.325
45935SOL    HW139702   3.045   9.179  12.341
45935SOL    HW239703   3.156   9.080  12.314
45936SOL     OW39704  12.340  14.567   2.810
45936SOL    HW139705  12.353  14.633   2.742
45936SOL    HW239706  12.411  14.583   2.873
45937SOL     OW39707  12.060   9.474   5.926
45937SOL    HW139708  12.135   9.415   5.925
45937SOL    HW239709  12.052   9.504   5.836
45938SOL     OW39710  11.498   6.357   1.754
45938SOL    HW139711  11.582   6.376   1.711
45938SOL    HW239712  11.518   6.283   1.812
45939SOL     OW39713   4.459  10.756   5.495
45939SOL    HW139714   4.550  10.745   5.468
45939SOL    HW239715   4.445  10.689   5.562
45940SOL     OW39716   5.934   0.199  11.567
45940SOL    HW139717   5.851   0.184  11.522
45940SOL    HW239718   5.986   0.250  11.505
45941SOL     OW39719  13.905   2.551   3.946
45941SOL    HW139720  13.943   2.545   3.859
45941SOL    HW239721  13.813   2.531   3.934
45942SOL     OW39722   7.933   8.768  13.223
45942SOL    HW139723   7.951   8.706  13.152
45942SOL    HW239724   7.882   8.838  13.182
45943SOL     OW39725   0.285   8.752   3.963
45943SOL    HW139726   0.292   8.822   4.028
45943SOL    HW239727   0.354   8.770   3.900
45944SOL     OW39728   1.767  14.861   9.355
45944SOL    HW139729   1.719  14.815   9.286
45944SOL    HW239730   1.730  14.828   9.437
45945SOL     OW39731   3.560  13.956   3.910
45945SOL    HW139732   3.526  14.007   3.983
45945SOL    HW239733   3.486  13.946   3.850
45946SOL     OW39734  12.165  14.845   3.251
45946SOL    HW139735  12.253  14.841   3.287
45946SOL    HW239736  12.109  14.861   3.327
45947SOL     OW39737  11.691  11.246   8.900
45947SOL    HW139738  11.679  11.212   8.989
45947SOL    HW239739  11.619  11.208   8.850
45948SOL     OW39740   3.110   9.167   3.273
45948SOL    HW139741   3.170   9.237   3.300
45948SOL    HW239742   3.038   9.214   3.231
45949SOL     OW39743   5.998   4.338   8.143
45949SOL    HW139744   6.040   4.424   8.132
45949SOL    HW239745   6.026   4.288   8.066
45950SOL     OW39746   2.433   2.118   4.252
45950SOL    HW139747   2.513   2.170   4.238
45950SOL    HW239748   2.419   2.073   4.168
45951SOL     OW39749   0.005  14.103   3.763
45951SOL    HW139750  14.822  14.044   3.708
45951SOL    HW239751   0.065  14.146   3.702
45952SOL     OW39752   8.889   9.742  14.208
45952SOL    HW139753   8.981   9.767  14.221
45952SOL    HW239754   8.893   9.668  14.147
45953SOL     OW39755   1.683  11.334  14.340
45953SOL    HW139756   1.594  11.319  14.372
45953SOL    HW239757   1.735  11.350  14.418
45954SOL     OW39758   8.702   0.879   2.579
45954SOL    HW139759   8.637   0.848   2.516
45954SOL    HW239760   8.708   0.809   2.644
45955SOL     OW39761   7.419   9.530  13.146
45955SOL    HW139762   7.338   9.563  13.185
45955SOL    HW239763   7.488   9.584  13.184
45956SOL     OW39764  12.201   2.142  14.069
45956SOL    HW139765  12.233   2.153  13.980
45956SOL    HW239766  12.204   2.230  14.107
45957SOL     OW39767   4.101  13.272   4.535
45957SOL    HW139768   4.175  13.253   4.594
45957SOL    HW239769   4.062  13.351   4.571
45958SOL     OW39770   5.016  12.751  13.352
45958SOL    HW139771   5.097  12.699  13.353
45958SOL    HW239772   4.993  12.758  13.259
45959SOL     OW39773   9.397   3.759  13.896
45959SOL    HW139774   9.438   3.839  13.929
45959SOL    HW239775   9.470   3.699  13.880
45960SOL     OW39776  13.117   1.662  12.213
45960SOL    HW139777  13.061   1.584  12.211
45960SOL    HW239778  13.200   1.630  12.251
45961SOL     OW39779  13.650   2.523   3.225
45961SOL    HW139780  13.714   2.453   3.234
45961SOL    HW239781  13.658   2.574   3.306
45962SOL     OW39782  12.273   6.732   9.056
45962SOL    HW139783  12.240   6.811   9.013
45962SOL    HW239784  12.340   6.698   8.996
45963SOL     OW39785   5.352  14.126   2.187
45963SOL    HW139786   5.441  14.157   2.172
45963SOL    HW239787   5.299  14.206   2.194
45964SOL     OW39788   0.835   6.189   8.579
45964SOL    HW139789   0.871   6.239   8.506
45964SOL    HW239790   0.754   6.235   8.602
45965SOL     OW39791   2.435   3.284   6.043
45965SOL    HW139792   2.409   3.318   6.129
45965SOL    HW239793   2.467   3.196   6.061
45966SOL     OW39794   5.203   6.455   6.509
45966SOL    HW139795   5.115   6.474   6.541
45966SOL    HW239796   5.244   6.541   6.498
45967SOL     OW39797   8.658   8.275  12.105
45967SOL    HW139798   8.680   8.361  12.068
45967SOL    HW239799   8.716   8.266  12.181
45968SOL     OW39800   0.007   8.606   6.354
45968SOL    HW139801  14.793   8.613   6.399
45968SOL    HW239802   0.071   8.639   6.416
45969SOL     OW39803   7.625   9.444   0.580
45969SOL    HW139804   7.588   9.505   0.645
45969SOL    HW239805   7.553   9.385   0.558
45970SOL     OW39806   7.006   2.608   1.237
45970SOL    HW139807   6.958   2.530   1.209
45970SOL    HW239808   6.942   2.660   1.287
45971SOL     OW39809   0.337  10.904   6.358
45971SOL    HW139810   0.401  10.843   6.321
45971SOL    HW239811   0.282  10.849   6.414
45972SOL     OW39812   5.325  14.517  13.267
45972SOL    HW139813   5.297  14.475  13.185
45972SOL    HW239814   5.269  14.478  13.334
45973SOL     OW39815  14.813  11.703   1.315
45973SOL    HW139816  14.821  11.618   1.271
45973SOL    HW239817  14.760  11.756   1.256
45974SOL     OW39818  12.770   8.892  14.393
45974SOL    HW139819  12.798   8.868  14.481
45974SOL    HW239820  12.751   8.986  14.399
45975SOL     OW39821   9.383   8.703   5.045
45975SOL    HW139822   9.442   8.668   4.979
45975SOL    HW239823   9.437   8.712   5.123
45976SOL     OW39824   2.682  14.293  14.482
45976SOL    HW139825   2.696  14.273  14.389
45976SOL    HW239826   2.610  14.356  14.483
45977SOL     OW39827  11.023   3.890  10.425
45977SOL    HW139828  11.008   3.854  10.338
45977SOL    HW239829  10.936   3.917  10.455
45978SOL     OW39830   3.977  11.204  13.203
45978SOL    HW139831   4.035  11.264  13.157
45978SOL    HW239832   3.890  11.245  13.197
45979SOL     OW39833   4.196   1.889  14.667
45979SOL    HW139834   4.242   1.943  14.603
45979SOL    HW239835   4.225   1.921  14.752
45980SOL     OW39836   9.307  13.702  11.675
45980SOL    HW139837   9.343  13.693  11.763
45980SOL    HW239838   9.249  13.626  11.665
45981SOL     OW39839   7.179   4.478  13.141
45981SOL    HW139840   7.227   4.444  13.216
45981SOL    HW239841   7.102   4.421  13.133
45982SOL     OW39842   4.082   8.917   4.667
45982SOL    HW139843   4.096   8.860   4.743
45982SOL    HW239844   4.025   8.866   4.610
45983SOL     OW39845  13.945   4.472   3.905
45983SOL    HW139846  13.974   4.515   3.985
45983SOL    HW239847  13.986   4.522   3.834
45984SOL     OW39848   2.491   3.747   4.639
45984SOL    HW139849   2.519   3.663   4.602
45984SOL    HW239850   2.450   3.724   4.723
45985SOL     OW39851  14.721  13.025   4.840
45985SOL    HW139852  14.657  13.030   4.911
45985SOL    HW239853  14.725  12.932   4.817
45986SOL     OW39854  13.873   8.199  13.020
45986SOL    HW139855  13.879   8.290  12.992
45986SOL    HW239856  13.929   8.195  13.097
45987SOL     OW39857  12.079  10.476   6.676
45987SOL    HW139858  11.990  10.447   6.656
45987SOL    HW239859  12.117  10.404   6.726
45988SOL     OW39860  10.734  10.000   3.119
45988SOL    HW139861  10.757   9.954   3.039
45988SOL    HW239862  10.679   9.938   3.167
45989SOL     OW39863   9.240   8.988   9.895
45989SOL    HW139864   9.242   8.964   9.802
45989SOL    HW239865   9.242   9.084   9.895
45990SOL     OW39866  14.492  12.307  10.774
45990SOL    HW139867  14.526  12.313  10.863
45990SOL    HW239868  14.566  12.333  10.718
45991SOL     OW39869   1.725   0.755   6.620
45991SOL    HW139870   1.636   0.789   6.609
45991SOL    HW239871   1.721   0.664   6.590
45992SOL     OW39872   5.049   7.748   1.717
45992SOL    HW139873   5.005   7.830   1.696
45992SOL    HW239874   5.131   7.774   1.759
45993SOL     OW39875   4.076   3.652  13.651
45993SOL    HW139876   4.000   3.625  13.703
45993SOL    HW239877   4.114   3.725  13.700
45994SOL     OW39878   3.491  12.489   7.183
45994SOL    HW139879   3.495  12.488   7.279
45994SOL    HW239880   3.439  12.567   7.162
45995SOL     OW39881   8.355   3.800   7.581
45995SOL    HW139882   8.371   3.793   7.487
45995SOL    HW239883   8.260   3.806   7.589
45996SOL     OW39884   9.967   6.270  11.360
45996SOL    HW139885  10.044   6.213  11.365
45996SOL    HW239886   9.925   6.261  11.445
45997SOL     OW39887   4.551  13.945   5.763
45997SOL    HW139888   4.629  13.970   5.812
45997SOL    HW239889   4.568  13.976   5.674
45998SOL     OW39890   6.787  14.284   0.924
45998SOL    HW139891   6.748  14.325   0.847
45998SOL    HW239892   6.851  14.348   0.955
45999SOL     OW39893   6.217   2.419   3.878
45999SOL    HW139894   6.288   2.372   3.835
45999SOL    HW239895   6.261   2.481   3.936
46000SOL     OW39896  12.700   1.531   2.473
46000SOL    HW139897  12.663   1.541   2.385
46000SOL    HW239898  12.735   1.617   2.495
46001SOL     OW39899  13.425   3.062  10.588
46001SOL    HW139900  13.387   3.107  10.513
46001SOL    HW239901  13.507   3.025  10.555
46002SOL     OW39902   4.014  13.900   1.027
46002SOL    HW139903   4.004  13.841   1.101
46002SOL    HW239904   3.963  13.977   1.050
46003SOL     OW39905   7.526   0.330   8.091
46003SOL    HW139906   7.534   0.249   8.041
46003SOL    HW239907   7.470   0.308   8.165
46004SOL     OW39908   8.598   7.781   5.668
46004SOL    HW139909   8.577   7.860   5.618
46004SOL    HW239910   8.527   7.773   5.732
46005SOL     OW39911  14.371   5.489   3.218
46005SOL    HW139912  14.310   5.562   3.210
46005SOL    HW239913  14.334   5.420   3.164
46006SOL     OW39914  14.048   9.456   1.543
46006SOL    HW139915  14.056   9.383   1.481
46006SOL    HW239916  14.114   9.437   1.610
46007SOL     OW39917  10.291   8.554  13.131
46007SOL    HW139918  10.289   8.587  13.221
46007SOL    HW239919  10.313   8.462  13.140
46008SOL     OW39920   2.687  12.102  12.651
46008SOL    HW139921   2.735  12.019  12.650
46008SOL    HW239922   2.694  12.135  12.561
46009SOL     OW39923  11.081  14.484   7.451
46009SOL    HW139924  11.158  14.517   7.498
46009SOL    HW239925  11.010  14.542   7.477
46010SOL     OW39926  11.139   6.514   9.363
46010SOL    HW139927  11.047   6.539   9.375
46010SOL    HW239928  11.136   6.429   9.320
46011SOL     OW39929   9.002   7.451  10.754
46011SOL    HW139930   8.955   7.417  10.831
46011SOL    HW239931   9.056   7.377  10.725
46012SOL     OW39932   2.322  14.764   8.938
46012SOL    HW139933   2.261  14.696   8.909
46012SOL    HW239934   2.285  14.846   8.904
46013SOL     OW39935   6.991   2.346   8.464
46013SOL    HW139936   6.950   2.397   8.394
46013SOL    HW239937   6.943   2.263   8.464
46014SOL     OW39938   1.905  14.452  14.772
46014SOL    HW139939   1.884  14.517  14.705
46014SOL    HW239940   1.965  14.496  14.832
46015SOL     OW39941   8.026   1.674   0.577
46015SOL    HW139942   8.086   1.612   0.535
46015SOL    HW239943   7.954   1.620   0.609
46016SOL     OW39944   4.810   3.139   2.514
46016SOL    HW139945   4.840   3.127   2.605
46016SOL    HW239946   4.757   3.061   2.496
46017SOL     OW39947   2.803   1.316  13.266
46017SOL    HW139948   2.869   1.376  13.301
46017SOL    HW239949   2.764   1.363  13.193
46018SOL     OW39950  14.366  13.704   6.004
46018SOL    HW139951  14.280  13.733   5.972
46018SOL    HW239952  14.426  13.724   5.932
46019SOL     OW39953  11.561   8.373   8.428
46019SOL    HW139954  11.506   8.299   8.454
46019SOL    HW239955  11.500   8.444   8.412
46020SOL     OW39956   2.674   1.468  12.344
46020SOL    HW139957   2.616   1.504  12.277
46020SOL    HW239958   2.643   1.506  12.426
46021SOL     OW39959   7.025  12.252  14.110
46021SOL    HW139960   7.082  12.259  14.033
46021SOL    HW239961   6.937  12.264  14.075
46022SOL     OW39962   6.909  11.922  10.480
46022SOL    HW139963   6.861  11.908  10.398
46022SOL    HW239964   7.000  11.906  10.457
46023SOL     OW39965  14.320  11.200   4.524
46023SOL    HW139966  14.372  11.237   4.452
46023SOL    HW239967  14.231  11.196   4.489
46024SOL     OW39968  11.590   6.243  12.257
46024SOL    HW139969  11.538   6.307  12.305
46024SOL    HW239970  11.670   6.289  12.235
46025SOL     OW39971   9.630   9.159  14.085
46025SOL    HW139972   9.671   9.086  14.039
46025SOL    HW239973   9.636   9.135  14.178
46026SOL     OW39974   2.716   8.338   8.154
46026SOL    HW139975   2.678   8.343   8.066
46026SOL    HW239976   2.810   8.336   8.139
46027SOL     OW39977   9.103   0.106   5.797
46027SOL    HW139978   9.080   0.043   5.727
46027SOL    HW239979   9.161   0.057   5.854
46028SOL     OW39980  14.009   8.795   6.207
46028SOL    HW139981  14.033   8.883   6.179
46028SOL    HW239982  14.024   8.795   6.301
46029SOL     OW39983   3.939   9.687   3.660
46029SOL    HW139984   3.953   9.658   3.570
46029SOL    HW239985   3.938   9.606   3.712
46030SOL     OW39986   6.378  14.809   1.631
46030SOL    HW139987   6.457  14.761   1.607
46030SOL    HW239988   6.348  14.848   1.549
46031SOL     OW39989   9.661   6.678   1.528
46031SOL    HW139990   9.623   6.592   1.544
46031SOL    HW239991   9.586   6.733   1.503
46032SOL     OW39992   0.722  10.116   2.907
46032SOL    HW139993   0.786  10.076   2.967
46032SOL    HW239994   0.776  10.163   2.843
46033SOL     OW39995  11.824   4.223   2.044
46033SOL    HW139996  11.883   4.151   2.026
46033SOL    HW239997  11.791   4.206   2.132
46034SOL     OW39998   2.543   5.167   9.975
46034SOL    HW139999   2.500   5.251   9.964
46034SOL    HW240000   2.629   5.177   9.934
46035SOL     OW40001   4.213  12.400  10.501
46035SOL    HW140002   4.128  12.362  10.475
46035SOL    HW240003   4.256  12.330  10.549
46036SOL     OW40004  14.464   6.449   3.770
46036SOL    HW140005  14.499   6.406   3.848
46036SOL    HW240006  14.409   6.383   3.729
46037SOL     OW40007   9.235   5.065   1.773
46037SOL    HW140008   9.268   5.010   1.845
46037SOL    HW240009   9.167   5.011   1.732
46038SOL     OW40010  13.241   7.155   0.413
46038SOL    HW140011  13.218   7.177   0.503
46038SOL    HW240012  13.263   7.238   0.372
46039SOL     OW40013   3.774   4.877  14.519
46039SOL    HW140014   3.809   4.844  14.602
46039SOL    HW240015   3.790   4.807  14.457
46040SOL     OW40016  10.954   2.080   0.906
46040SOL    HW140017  11.036   2.043   0.941
46040SOL    HW240018  10.969   2.175   0.908
46041SOL     OW40019  11.177  14.231  13.222
46041SOL    HW140020  11.223  14.168  13.168
46041SOL    HW240021  11.243  14.261  13.286
46042SOL     OW40022   0.626   7.749   6.464
46042SOL    HW140023   0.598   7.786   6.548
46042SOL    HW240024   0.716   7.779   6.454
46043SOL     OW40025  12.608  14.147  11.856
46043SOL    HW140026  12.590  14.207  11.784
46043SOL    HW240027  12.678  14.190  11.906
46044SOL     OW40028   6.560  14.781  10.789
46044SOL    HW140029   6.600  14.798  10.874
46044SOL    HW240030   6.585  14.857  10.736
46045SOL     OW40031  13.263   2.639   8.783
46045SOL    HW140032  13.237   2.549   8.800
46045SOL    HW240033  13.183   2.683   8.755
46046SOL     OW40034   3.617   3.346   8.043
46046SOL    HW140035   3.663   3.268   8.075
46046SOL    HW240036   3.530   3.341   8.084
46047SOL     OW40037   3.502   8.096   4.110
46047SOL    HW140038   3.517   8.002   4.101
46047SOL    HW240039   3.413   8.110   4.079
46048SOL     OW40040   2.708   6.350   5.905
46048SOL    HW140041   2.735   6.439   5.929
46048SOL    HW240042   2.717   6.347   5.810
46049SOL     OW40043  14.054  12.777   1.439
46049SOL    HW140044  13.981  12.800   1.382
46049SOL    HW240045  14.052  12.842   1.508
46050SOL     OW40046  10.114  12.865   1.142
46050SOL    HW140047  10.090  12.882   1.233
46050SOL    HW240048  10.062  12.789   1.116
46051SOL     OW40049   9.112   1.451   2.214
46051SOL    HW140050   9.137   1.539   2.242
46051SOL    HW240051   9.162   1.436   2.134
46052SOL     OW40052  12.635  10.667  11.842
46052SOL    HW140053  12.725  10.696  11.858
46052SOL    HW240054  12.600  10.648  11.929
46053SOL     OW40055  12.012  11.714   3.668
46053SOL    HW140056  12.076  11.726   3.739
46053SOL    HW240057  11.931  11.750   3.703
46054SOL     OW40058   6.977   6.333   2.946
46054SOL    HW140059   6.890   6.294   2.934
46054SOL    HW240060   6.958   6.421   2.979
46055SOL     OW40061   5.899   5.761  10.246
46055SOL    HW140062   5.861   5.728  10.164
46055SOL    HW240063   5.969   5.699  10.266
46056SOL     OW40064   7.405   2.947   2.542
46056SOL    HW140065   7.404   2.885   2.469
46056SOL    HW240066   7.421   3.032   2.501
46057SOL     OW40067   1.402   6.741   9.282
46057SOL    HW140068   1.396   6.813   9.345
46057SOL    HW240069   1.451   6.673   9.327
46058SOL     OW40070   8.823  10.233   3.838
46058SOL    HW140071   8.891  10.297   3.855
46058SOL    HW240072   8.866  10.148   3.850
46059SOL     OW40073   7.530   4.424  13.841
46059SOL    HW140074   7.440   4.398  13.818
46059SOL    HW240075   7.567   4.346  13.882
46060SOL     OW40076   1.907  14.195   6.960
46060SOL    HW140077   1.920  14.237   6.875
46060SOL    HW240078   1.983  14.139   6.972
46061SOL     OW40079   1.494   6.121  13.888
46061SOL    HW140080   1.589   6.121  13.885
46061SOL    HW240081   1.467   6.103  13.798
46062SOL     OW40082  12.677   0.403   4.507
46062SOL    HW140083  12.735   0.327   4.504
46062SOL    HW240084  12.659   0.422   4.415
46063SOL     OW40085   3.345   2.974   5.943
46063SOL    HW140086   3.411   2.908   5.965
46063SOL    HW240087   3.289   2.933   5.878
46064SOL     OW40088   8.867   5.826   3.390
46064SOL    HW140089   8.931   5.773   3.437
46064SOL    HW240090   8.783   5.804   3.430
46065SOL     OW40091  12.415   6.655   8.351
46065SOL    HW140092  12.428   6.663   8.257
46065SOL    HW240093  12.440   6.565   8.371
46066SOL     OW40094   4.985   0.406   1.125
46066SOL    HW140095   5.058   0.383   1.182
46066SOL    HW240096   4.908   0.402   1.182
46067SOL     OW40097   1.339   6.469  12.922
46067SOL    HW140098   1.364   6.394  12.868
46067SOL    HW240099   1.287   6.524  12.865
46068SOL     OW40100   1.630   1.035  11.569
46068SOL    HW140101   1.620   1.127  11.544
46068SOL    HW240102   1.687   1.037  11.646
46069SOL     OW40103   7.905   9.382   2.548
46069SOL    HW140104   7.942   9.376   2.460
46069SOL    HW240105   7.897   9.291   2.576
46070SOL     OW40106  13.951   2.136  14.670
46070SOL    HW140107  13.921   2.199  14.605
46070SOL    HW240108  13.967   2.189  14.749
46071SOL     OW40109   8.407  11.038   3.431
46071SOL    HW140110   8.451  11.080   3.504
46071SOL    HW240111   8.468  11.046   3.358
46072SOL     OW40112   3.553  10.782   8.352
46072SOL    HW140113   3.515  10.818   8.272
46072SOL    HW240114   3.561  10.689   8.334
46073SOL     OW40115   4.655  14.773  10.110
46073SOL    HW140116   4.663  14.735  10.197
46073SOL    HW240117   4.674  14.867  10.122
46074SOL     OW40118   8.276   7.963  14.331
46074SOL    HW140119   8.312   7.937  14.416
46074SOL    HW240120   8.322   8.045  14.310
46075SOL     OW40121   9.284   5.173  13.235
46075SOL    HW140122   9.242   5.184  13.321
46075SOL    HW240123   9.219   5.205  13.172
46076SOL     OW40124   9.986   0.886  10.556
46076SOL    HW140125   9.991   0.918  10.466
46076SOL    HW240126   9.992   0.966  10.610
46077SOL     OW40127   7.384   5.921   9.228
46077SOL    HW140128   7.334   5.961   9.156
46077SOL    HW240129   7.365   5.977   9.304
46078SOL     OW40130  12.892   7.064  13.867
46078SOL    HW140131  12.824   7.043  13.931
46078SOL    HW240132  12.871   7.010  13.791
46079SOL     OW40133  10.376   6.237   5.362
46079SOL    HW140134  10.470   6.248   5.376
46079SOL    HW240135  10.359   6.145   5.383
46080SOL     OW40136  12.701   5.450   3.912
46080SOL    HW140137  12.621   5.496   3.889
46080SOL    HW240138  12.772   5.505   3.878
46081SOL     OW40139  14.802  14.328   3.962
46081SOL    HW140140  14.793  14.261   3.894
46081SOL    HW240141   0.020  14.314   3.998
46082SOL     OW40142   9.702   8.755   1.338
46082SOL    HW140143   9.724   8.711   1.421
46082SOL    HW240144   9.717   8.688   1.271
46083SOL     OW40145   7.284  13.918   7.030
46083SOL    HW140146   7.309  13.947   7.117
46083SOL    HW240147   7.206  13.864   7.044
46084SOL     OW40148   3.646   7.198   6.922
46084SOL    HW140149   3.634   7.227   6.832
46084SOL    HW240150   3.626   7.276   6.975
46085SOL     OW40151   0.117   0.491   5.264
46085SOL    HW140152   0.172   0.446   5.200
46085SOL    HW240153   0.136   0.448   5.347
46086SOL     OW40154  13.840   6.557   5.494
46086SOL    HW140155  13.914   6.601   5.538
46086SOL    HW240156  13.872   6.469   5.477
46087SOL     OW40157  10.910   1.449   7.995
46087SOL    HW140158  10.993   1.470   8.036
46087SOL    HW240159  10.887   1.528   7.945
46088SOL     OW40160  10.710  10.907   1.488
46088SOL    HW140161  10.638  10.953   1.531
46088SOL    HW240162  10.667  10.843   1.432
46089SOL     OW40163   2.684   6.255   1.615
46089SOL    HW140164   2.591   6.255   1.636
46089SOL    HW240165   2.689   6.291   1.527
46090SOL     OW40166  11.895   1.779  14.828
46090SOL    HW140167  11.979   1.734  14.836
46090SOL    HW240168  11.843   1.723  14.771
46091SOL     OW40169  12.141   5.457   6.396
46091SOL    HW140170  12.126   5.518   6.324
46091SOL    HW240171  12.179   5.379   6.354
46092SOL     OW40172   0.992  13.580   1.112
46092SOL    HW140173   1.001  13.539   1.026
46092SOL    HW240174   1.082  13.592   1.143
46093SOL     OW40175   3.481  10.551   7.237
46093SOL    HW140176   3.433  10.564   7.156
46093SOL    HW240177   3.563  10.509   7.211
46094SOL     OW40178   7.906  13.482  13.252
46094SOL    HW140179   7.984  13.492  13.197
46094SOL    HW240180   7.835  13.523  13.201
46095SOL     OW40181  11.608   5.430   5.227
46095SOL    HW140182  11.680   5.456   5.169
46095SOL    HW240183  11.531   5.430   5.170
46096SOL     OW40184   5.413  11.257   1.596
46096SOL    HW140185   5.451  11.275   1.510
46096SOL    HW240186   5.345  11.324   1.606
46097SOL     OW40187   7.068  13.975   9.025
46097SOL    HW140188   6.979  13.978   8.989
46097SOL    HW240189   7.056  13.950   9.117
46098SOL     OW40190  13.283  11.711   7.717
46098SOL    HW140191  13.263  11.620   7.694
46098SOL    HW240192  13.357  11.704   7.778
46099SOL     OW40193   8.567  10.671   1.605
46099SOL    HW140194   8.539  10.639   1.691
46099SOL    HW240195   8.486  10.691   1.559
46100SOL     OW40196   4.607  11.301   9.809
46100SOL    HW140197   4.623  11.207   9.798
46100SOL    HW240198   4.529  11.306   9.863
46101SOL     OW40199   7.865  13.656  12.876
46101SOL    HW140200   7.772  13.668  12.858
46101SOL    HW240201   7.888  13.729  12.934
46102SOL     OW40202   8.811  10.552   1.960
46102SOL    HW140203   8.849  10.639   1.954
46102SOL    HW240204   8.817  10.518   1.870
46103SOL     OW40205   0.461   0.106   8.960
46103SOL    HW140206   0.518   0.167   9.006
46103SOL    HW240207   0.519   0.058   8.902
46104SOL     OW40208  10.495   2.990   6.023
46104SOL    HW140209  10.540   2.959   5.944
46104SOL    HW240210  10.490   3.085   6.011
46105SOL     OW40211   1.386   3.225   5.729
46105SOL    HW140212   1.425   3.272   5.803
46105SOL    HW240213   1.403   3.281   5.653
46106SOL     OW40214   1.187   5.137   3.812
46106SOL    HW140215   1.215   5.172   3.897
46106SOL    HW240216   1.268   5.104   3.772
46107SOL     OW40217   7.011  14.424   0.625
46107SOL    HW140218   6.969  14.384   0.549
46107SOL    HW240219   7.086  14.368   0.643
46108SOL     OW40220   9.390   3.742   6.098
46108SOL    HW140221   9.415   3.650   6.089
46108SOL    HW240222   9.323   3.742   6.166
46109SOL     OW40223   4.504  11.391  12.544
46109SOL    HW140224   4.537  11.389  12.454
46109SOL    HW240225   4.571  11.437  12.594
46110SOL     OW40226   5.282  10.562   3.297
46110SOL    HW140227   5.377  10.561   3.301
46110SOL    HW240228   5.254  10.595   3.382
46111SOL     OW40229  11.673  12.068   3.525
46111SOL    HW140230  11.633  12.086   3.610
46111SOL    HW240231  11.617  12.001   3.486
46112SOL     OW40232  10.155  10.614   9.807
46112SOL    HW140233  10.232  10.566   9.779
46112SOL    HW240234  10.181  10.706   9.802
46113SOL     OW40235  11.985   8.662  12.272
46113SOL    HW140236  11.941   8.591  12.319
46113SOL    HW240237  12.055   8.690  12.331
46114SOL     OW40238   0.688   7.676  11.961
46114SOL    HW140239   0.711   7.703  11.871
46114SOL    HW240240   0.593   7.671  11.961
46115SOL     OW40241   1.546   3.722  12.641
46115SOL    HW140242   1.527   3.634  12.674
46115SOL    HW240243   1.636   3.739  12.668
46116SOL     OW40244   8.057   1.226   8.580
46116SOL    HW140245   8.009   1.144   8.570
46116SOL    HW240246   8.144   1.199   8.609
46117SOL     OW40247   8.509  12.471   6.169
46117SOL    HW140248   8.540  12.493   6.257
46117SOL    HW240249   8.442  12.537   6.151
46118SOL     OW40250   0.029   5.713   0.693
46118SOL    HW140251  14.828   5.735   0.632
46118SOL    HW240252   0.028   5.784   0.757
46119SOL     OW40253  10.701  12.679   6.960
46119SOL    HW140254  10.706  12.604   7.019
46119SOL    HW240255  10.740  12.751   7.010
46120SOL     OW40256  11.180   8.917   2.800
46120SOL    HW140257  11.263   8.945   2.761
46120SOL    HW240258  11.186   8.943   2.892
46121SOL     OW40259   6.770  13.996   6.282
46121SOL    HW140260   6.746  14.088   6.292
46121SOL    HW240261   6.865  13.996   6.270
46122SOL     OW40262   2.953  10.560  10.419
46122SOL    HW140263   2.991  10.473  10.429
46122SOL    HW240264   2.953  10.575  10.324
46123SOL     OW40265   8.131   0.940   0.839
46123SOL    HW140266   8.038   0.933   0.820
46123SOL    HW240267   8.151   0.862   0.892
46124SOL     OW40268   2.801   3.420  13.875
46124SOL    HW140269   2.851   3.452  13.800
46124SOL    HW240270   2.818   3.484  13.944
46125SOL     OW40271   9.221  13.462  12.862
46125SOL    HW140272   9.198  13.436  12.773
46125SOL    HW240273   9.302  13.512  12.853
46126SOL     OW40274   9.880  13.171  12.453
46126SOL    HW140275   9.916  13.091  12.492
46126SOL    HW240276   9.817  13.203  12.518
46127SOL     OW40277   4.397   9.070   5.509
46127SOL    HW140278   4.397   9.011   5.584
46127SOL    HW240279   4.305   9.077   5.485
46128SOL     OW40280   2.330  13.149   7.662
46128SOL    HW140281   2.331  13.244   7.660
46128SOL    HW240282   2.238  13.126   7.672
46129SOL     OW40283   3.495  14.043   1.716
46129SOL    HW140284   3.503  13.994   1.797
46129SOL    HW240285   3.402  14.068   1.712
46130SOL     OW40286   6.354   4.726  13.738
46130SOL    HW140287   6.329   4.656  13.677
46130SOL    HW240288   6.361   4.804  13.683
46131SOL     OW40289   4.241   4.284   0.444
46131SOL    HW140290   4.298   4.207   0.442
46131SOL    HW240291   4.272   4.335   0.519
46132SOL     OW40292   6.264   8.227   0.594
46132SOL    HW140293   6.279   8.238   0.500
46132SOL    HW240294   6.317   8.296   0.635
46133SOL     OW40295   6.513   7.645   5.545
46133SOL    HW140296   6.497   7.673   5.635
46133SOL    HW240297   6.593   7.593   5.550
46134SOL     OW40298  12.513  14.830  11.598
46134SOL    HW140299  12.529   0.053  11.581
46134SOL    HW240300  12.443  14.828  11.663
46135SOL     OW40301   4.806   7.392  11.163
46135SOL    HW140302   4.773   7.479  11.187
46135SOL    HW240303   4.790   7.386  11.068
46136SOL     OW40304   6.790   4.678  11.431
46136SOL    HW140305   6.716   4.672  11.492
46136SOL    HW240306   6.867   4.679  11.488
46137SOL     OW40307   0.003  11.923   2.962
46137SOL    HW140308  14.869  12.016   2.982
46137SOL    HW240309   0.080  11.914   2.905
46138SOL     OW40310  11.063  11.218   0.863
46138SOL    HW140311  10.992  11.264   0.819
46138SOL    HW240312  11.034  11.126   0.867
46139SOL     OW40313   0.439   7.157   9.847
46139SOL    HW140314   0.484   7.073   9.838
46139SOL    HW240315   0.356   7.144   9.800
46140SOL     OW40316  14.467   9.541   5.630
46140SOL    HW140317  14.508   9.559   5.714
46140SOL    HW240318  14.487   9.619   5.577
46141SOL     OW40319   7.807   0.936   9.614
46141SOL    HW140320   7.879   0.874   9.598
46141SOL    HW240321   7.777   0.962   9.527
46142SOL     OW40322   6.604  13.075   6.408
46142SOL    HW140323   6.552  13.076   6.328
46142SOL    HW240324   6.612  12.982   6.430
46143SOL     OW40325  13.102   1.503   8.720
46143SOL    HW140326  13.050   1.439   8.671
46143SOL    HW240327  13.145   1.556   8.654
46144SOL     OW40328   4.947   0.946   3.889
46144SOL    HW140329   4.977   0.955   3.979
46144SOL    HW240330   4.856   0.977   3.891
46145SOL     OW40331   2.901   6.083   1.563
46145SOL    HW140332   2.945   6.140   1.500
46145SOL    HW240333   2.822   6.132   1.589
46146SOL     OW40334  13.783  12.987  10.223
46146SOL    HW140335  13.839  13.024  10.154
46146SOL    HW240336  13.710  13.048  10.230
46147SOL     OW40337   9.197   7.226  12.710
46147SOL    HW140338   9.178   7.170  12.785
46147SOL    HW240339   9.124   7.213  12.650
46148SOL     OW40340   4.136  14.625   1.736
46148SOL    HW140341   4.092  14.570   1.801
46148SOL    HW240342   4.215  14.655   1.781
46149SOL     OW40343  13.077   9.597   5.416
46149SOL    HW140344  13.103   9.640   5.497
46149SOL    HW240345  13.109   9.508   5.425
46150SOL     OW40346   9.360   6.132   1.312
46150SOL    HW140347   9.439   6.182   1.292
46150SOL    HW240348   9.384   6.078   1.388
46151SOL     OW40349   2.097   5.302   6.871
46151SOL    HW140350   2.035   5.231   6.857
46151SOL    HW240351   2.063   5.374   6.817
46152SOL     OW40352  13.307  14.347   7.820
46152SOL    HW140353  13.314  14.282   7.889
46152SOL    HW240354  13.215  14.345   7.794
46153SOL     OW40355  12.022   6.775  11.993
46153SOL    HW140356  12.073   6.777  12.074
46153SOL    HW240357  12.086   6.786  11.923
46154SOL     OW40358   6.400   7.821   4.386
46154SOL    HW140359   6.391   7.868   4.469
46154SOL    HW240360   6.310   7.803   4.359
46155SOL     OW40361   0.885   4.493   4.641
46155SOL    HW140362   0.812   4.451   4.595
46155SOL    HW240363   0.846   4.525   4.722
46156SOL     OW40364   0.849   4.898   6.586
46156SOL    HW140365   0.905   4.958   6.537
46156SOL    HW240366   0.910   4.841   6.633
46157SOL     OW40367   8.778   8.795  14.497
46157SOL    HW140368   8.770   8.890  14.503
46157SOL    HW240369   8.748   8.763  14.583
46158SOL     OW40370  14.216   8.502   9.636
46158SOL    HW140371  14.180   8.568   9.695
46158SOL    HW240372  14.175   8.420   9.664
46159SOL     OW40373   0.738   7.600   7.370
46159SOL    HW140374   0.646   7.627   7.365
46159SOL    HW240375   0.763   7.615   7.461
46160SOL     OW40376   5.136   5.422  11.940
46160SOL    HW140377   5.210   5.403  11.997
46160SOL    HW240378   5.164   5.390  11.854
46161SOL     OW40379  11.576  14.000  14.368
46161SOL    HW140380  11.496  13.949  14.360
46161SOL    HW240381  11.641  13.950  14.319
46162SOL     OW40382   6.673   2.552   0.859
46162SOL    HW140383   6.624   2.551   0.777
46162SOL    HW240384   6.667   2.643   0.889
46163SOL     OW40385   2.762   5.159  14.538
46163SOL    HW140386   2.798   5.105  14.467
46163SOL    HW240387   2.820   5.235  14.542
46164SOL     OW40388   8.375   5.588   7.632
46164SOL    HW140389   8.395   5.645   7.557
46164SOL    HW240390   8.380   5.646   7.707
46165SOL     OW40391   8.410  14.322   2.025
46165SOL    HW140392   8.323  14.344   2.058
46165SOL    HW240393   8.434  14.394   1.968
46166SOL     OW40394   4.722   7.620   7.250
46166SOL    HW140395   4.780   7.551   7.282
46166SOL    HW240396   4.637   7.599   7.288
46167SOL     OW40397   3.154   4.222  14.453
46167SOL    HW140398   3.134   4.301  14.503
46167SOL    HW240399   3.248   4.211  14.462
46168SOL     OW40400  14.689  12.046   9.290
46168SOL    HW140401  14.778  12.078   9.276
46168SOL    HW240402  14.695  11.994   9.370
46169SOL     OW40403   1.786  11.874   4.881
46169SOL    HW140404   1.728  11.947   4.860
46169SOL    HW240405   1.749  11.799   4.834
46170SOL     OW40406   5.600   8.072  10.922
46170SOL    HW140407   5.596   8.072  10.827
46170SOL    HW240408   5.582   8.162  10.947
46171SOL     OW40409  14.787  12.797  12.547
46171SOL    HW140410  14.708  12.812  12.495
46171SOL    HW240411  14.855  12.780  12.482
46172SOL     OW40412  11.735   8.058   2.515
46172SOL    HW140413  11.814   8.023   2.556
46172SOL    HW240414  11.699   7.984   2.465
46173SOL     OW40415  10.541  10.526   7.821
46173SOL    HW140416  10.501  10.449   7.860
46173SOL    HW240417  10.616  10.491   7.772
46174SOL     OW40418  12.597  13.621  11.524
46174SOL    HW140419  12.605  13.682  11.451
46174SOL    HW240420  12.517  13.648  11.569
46175SOL     OW40421  12.657   4.073   7.008
46175SOL    HW140422  12.651   4.126   7.087
46175SOL    HW240423  12.733   4.017   7.022
46176SOL     OW40424   2.275  13.399  12.886
46176SOL    HW140425   2.240  13.321  12.928
46176SOL    HW240426   2.216  13.416  12.813
46177SOL     OW40427  11.831   5.175  12.280
46177SOL    HW140428  11.774   5.148  12.207
46177SOL    HW240429  11.772   5.181  12.355
46178SOL     OW40430   3.055   4.068  13.954
46178SOL    HW140431   3.021   4.155  13.930
46178SOL    HW240432   3.066   4.022  13.871
46179SOL     OW40433   4.795   8.648   1.592
46179SOL    HW140434   4.777   8.720   1.532
46179SOL    HW240435   4.845   8.687   1.663
46180SOL     OW40436   7.522  14.839   4.316
46180SOL    HW140437   7.487  14.808   4.400
46180SOL    HW240438   7.446  14.850   4.260
46181SOL     OW40439   2.292   2.820   2.559
46181SOL    HW140440   2.266   2.770   2.481
46181SOL    HW240441   2.211   2.829   2.609
46182SOL     OW40442  12.458  11.540   8.833
46182SOL    HW140443  12.399  11.528   8.758
46182SOL    HW240444  12.446  11.631   8.859
46183SOL     OW40445   4.017  11.242   2.733
46183SOL    HW140446   3.927  11.249   2.764
46183SOL    HW240447   4.037  11.329   2.698
46184SOL     OW40448   6.483  14.668   9.519
46184SOL    HW140449   6.497  14.757   9.487
46184SOL    HW240450   6.527  14.666   9.604
46185SOL     OW40451   9.449   6.774   6.945
46185SOL    HW140452   9.483   6.717   7.015
46185SOL    HW240453   9.370   6.813   6.982
46186SOL     OW40454   4.028   0.004  10.698
46186SOL    HW140455   4.020   0.091  10.660
46186SOL    HW240456   4.116  14.844  10.672
46187SOL     OW40457  14.129   6.682   1.479
46187SOL    HW140458  14.159   6.626   1.408
46187SOL    HW240459  14.191   6.755   1.480
46188SOL     OW40460   1.665   0.205  13.624
46188SOL    HW140461   1.666   0.244  13.537
46188SOL    HW240462   1.752   0.165  13.633
46189SOL     OW40463  10.550   0.408  12.862
46189SOL    HW140464  10.574   0.323  12.898
46189SOL    HW240465  10.502   0.387  12.782
46190SOL     OW40466   1.533  13.349   5.021
46190SOL    HW140467   1.465  13.317   4.961
46190SOL    HW240468   1.596  13.392   4.964
46191SOL     OW40469   2.711   0.401   9.092
46191SOL    HW140470   2.768   0.413   9.168
46191SOL    HW240471   2.623   0.417   9.125
46192SOL     OW40472   0.951   8.638  13.135
46192SOL    HW140473   0.908   8.613  13.053
46192SOL    HW240474   1.036   8.672  13.107
46193SOL     OW40475  10.884  14.861   8.085
46193SOL    HW140476  10.849   0.049   8.153
46193SOL    HW240477  10.955   0.041   8.045
46194SOL     OW40478   1.523  14.327   8.868
46194SOL    HW140479   1.503  14.233   8.875
46194SOL    HW240480   1.546  14.340   8.776
46195SOL     OW40481   0.185  14.851   0.672
46195SOL    HW140482   0.094   0.002   0.695
46195SOL    HW240483   0.227   0.067   0.663
46196SOL     OW40484   6.181  11.840   3.698
46196SOL    HW140485   6.159  11.931   3.676
46196SOL    HW240486   6.116  11.815   3.763
46197SOL     OW40487  13.216  10.878  12.338
46197SOL    HW140488  13.299  10.895  12.293
46197SOL    HW240489  13.177  10.805  12.290
46198SOL     OW40490   0.388   5.757   3.515
46198SOL    HW140491   0.375   5.789   3.604
46198SOL    HW240492   0.458   5.811   3.480
46199SOL     OW40493  10.522   2.387  11.817
46199SOL    HW140494  10.615   2.411  11.812
46199SOL    HW240495  10.520   2.310  11.874
46200SOL     OW40496   6.866  14.346   1.516
46200SOL    HW140497   6.942  14.317   1.566
46200SOL    HW240498   6.792  14.335   1.575
46201SOL     OW40499  10.506   7.863   5.397
46201SOL    HW140500  10.504   7.839   5.305
46201SOL    HW240501  10.595   7.893   5.413
46202SOL     OW40502  10.019   7.845   5.515
46202SOL    HW140503   9.948   7.903   5.487
46202SOL    HW240504  10.017   7.848   5.610
46203SOL     OW40505   0.729   3.962   7.274
46203SOL    HW140506   0.733   4.026   7.345
46203SOL    HW240507   0.806   3.906   7.289
46204SOL     OW40508   5.452  12.250   3.861
46204SOL    HW140509   5.379  12.286   3.811
46204SOL    HW240510   5.419  12.166   3.894
46205SOL     OW40511   7.563   8.843   4.583
46205SOL    HW140512   7.611   8.906   4.529
46205SOL    HW240513   7.542   8.892   4.663
46206SOL     OW40514   1.677   5.289   6.463
46206SOL    HW140515   1.612   5.219   6.463
46206SOL    HW240516   1.626   5.369   6.480
46207SOL     OW40517   5.882   5.890   6.627
46207SOL    HW140518   5.791   5.902   6.601
46207SOL    HW240519   5.929   5.965   6.589
46208SOL     OW40520  13.468   7.973   2.479
46208SOL    HW140521  13.421   7.945   2.401
46208SOL    HW240522  13.455   7.902   2.542
46209SOL     OW40523  13.734   1.350   3.415
46209SOL    HW140524  13.745   1.258   3.390
46209SOL    HW240525  13.642   1.369   3.399
46210SOL     OW40526   1.853  11.883   5.609
46210SOL    HW140527   1.943  11.916   5.608
46210SOL    HW240528   1.862  11.790   5.631
46211SOL     OW40529   9.504   7.952   8.873
46211SOL    HW140530   9.539   8.018   8.934
46211SOL    HW240531   9.419   7.988   8.846
46212SOL     OW40532   0.234   5.905   0.229
46212SOL    HW140533   0.220   5.965   0.156
46212SOL    HW240534   0.279   5.958   0.295
46213SOL     OW40535   5.292   3.922   1.356
46213SOL    HW140536   5.208   3.884   1.331
46213SOL    HW240537   5.357   3.859   1.325
46214SOL     OW40538   7.896   1.858   2.474
46214SOL    HW140539   7.973   1.834   2.524
46214SOL    HW240540   7.875   1.780   2.423
46215SOL     OW40541   2.593   6.908  14.400
46215SOL    HW140542   2.607   7.000  14.422
46215SOL    HW240543   2.668   6.884  14.346
46216SOL     OW40544  13.631   9.542  10.683
46216SOL    HW140545  13.650   9.448  10.683
46216SOL    HW240546  13.576   9.555  10.605
46217SOL     OW40547  12.282   5.315   5.961
46217SOL    HW140548  12.203   5.368   5.975
46217SOL    HW240549  12.301   5.278   6.047
46218SOL     OW40550   0.053  13.157  14.258
46218SOL    HW140551   0.136  13.142  14.212
46218SOL    HW240552   0.075  13.221  14.326
46219SOL     OW40553   7.694   6.458   6.751
46219SOL    HW140554   7.693   6.526   6.684
46219SOL    HW240555   7.675   6.504   6.833
46220SOL     OW40556  13.812   7.727   7.239
46220SOL    HW140557  13.858   7.667   7.297
46220SOL    HW240558  13.752   7.672   7.190
46221SOL     OW40559   9.074  14.712   3.732
46221SOL    HW140560   9.016  14.673   3.667
46221SOL    HW240561   9.030  14.697   3.816
46222SOL     OW40562   3.653   7.921   8.091
46222SOL    HW140563   3.638   7.915   8.186
46222SOL    HW240564   3.747   7.908   8.081
46223SOL     OW40565  13.020  12.931  14.167
46223SOL    HW140566  13.049  12.888  14.247
46223SOL    HW240567  13.100  12.968  14.129
46224SOL     OW40568   6.809   3.930   5.231
46224SOL    HW140569   6.762   4.011   5.214
46224SOL    HW240570   6.887   3.957   5.280
46225SOL     OW40571   7.447   2.703   7.943
46225SOL    HW140572   7.381   2.771   7.942
46225SOL    HW240573   7.411   2.635   8.000
46226SOL     OW40574   1.279   7.370  12.862
46226SOL    HW140575   1.304   7.456  12.829
46226SOL    HW240576   1.292   7.311  12.788
46227SOL     OW40577  14.075  12.766   3.808
46227SOL    HW140578  14.025  12.687   3.827
46227SOL    HW240579  14.120  12.786   3.890
46228SOL     OW40580   0.510  12.999   7.135
46228SOL    HW140581   0.431  12.951   7.110
46228SOL    HW240582   0.548  12.947   7.206
46229SOL     OW40583  11.960   2.989   3.873
46229SOL    HW140584  11.871   3.025   3.876
46229SOL    HW240585  11.977   2.975   3.780
46230SOL     OW40586   3.152   1.686  11.743
46230SOL    HW140587   3.149   1.591  11.733
46230SOL    HW240588   3.177   1.718  11.656
46231SOL     OW40589  11.691   0.717   6.298
46231SOL    HW140590  11.767   0.775   6.297
46231SOL    HW240591  11.665   0.712   6.390
46232SOL     OW40592   5.409   8.507   6.230
46232SOL    HW140593   5.426   8.595   6.197
46232SOL    HW240594   5.415   8.451   6.152
46233SOL     OW40595  12.678   5.604   7.380
46233SOL    HW140596  12.676   5.508   7.382
46233SOL    HW240597  12.591   5.629   7.349
46234SOL     OW40598   9.590  14.353   2.387
46234SOL    HW140599   9.642  14.304   2.451
46234SOL    HW240600   9.619  14.321   2.302
46235SOL     OW40601  11.526  12.109   2.665
46235SOL    HW140602  11.531  12.204   2.672
46235SOL    HW240603  11.445  12.092   2.616
46236SOL     OW40604   6.633  12.544   3.309
46236SOL    HW140605   6.617  12.496   3.391
46236SOL    HW240606   6.644  12.475   3.243
46237SOL     OW40607   1.273   1.044  11.372
46237SOL    HW140608   1.237   0.959  11.399
46237SOL    HW240609   1.242   1.105  11.439
46238SOL     OW40610   9.121   6.381  11.725
46238SOL    HW140611   9.034   6.381  11.685
46238SOL    HW240612   9.166   6.455  11.684
46239SOL     OW40613   1.793   3.444  11.315
46239SOL    HW140614   1.879   3.462  11.353
46239SOL    HW240615   1.812   3.410  11.227
46240SOL     OW40616   7.423  13.904   9.488
46240SOL    HW140617   7.488  13.849   9.532
46240SOL    HW240618   7.461  13.991   9.489
46241SOL     OW40619  14.388   7.268   6.476
46241SOL    HW140620  14.319   7.259   6.410
46241SOL    HW240621  14.400   7.179   6.509
46242SOL     OW40622   8.119   4.710   8.670
46242SOL    HW140623   8.111   4.617   8.648
46242SOL    HW240624   8.213   4.725   8.677
46243SOL     OW40625   8.530  13.013  12.542
46243SOL    HW140626   8.593  12.969  12.486
46243SOL    HW240627   8.488  13.078  12.486
46244SOL     OW40628   2.382  11.921   3.787
46244SOL    HW140629   2.385  11.851   3.722
46244SOL    HW240630   2.329  11.989   3.747
46245SOL     OW40631   6.591  14.365   5.288
46245SOL    HW140632   6.679  14.369   5.250
46245SOL    HW240633   6.556  14.454   5.276
46246SOL     OW40634   7.153   3.081   6.942
46246SOL    HW140635   7.213   3.040   6.881
46246SOL    HW240636   7.196   3.162   6.968
46247SOL     OW40637   3.149   0.677   4.669
46247SOL    HW140638   3.079   0.645   4.613
46247SOL    HW240639   3.138   0.773   4.668
46248SOL     OW40640   5.639  11.453   1.406
46248SOL    HW140641   5.655  11.431   1.498
46248SOL    HW240642   5.562  11.401   1.383
46249SOL     OW40643   0.528   1.047   1.098
46249SOL    HW140644   0.607   1.087   1.062
46249SOL    HW240645   0.499   1.109   1.165
46250SOL     OW40646  11.877   1.943   2.309
46250SOL    HW140647  11.900   1.874   2.247
46250SOL    HW240648  11.955   1.956   2.362
46251SOL     OW40649   9.788   0.351   9.327
46251SOL    HW140650   9.745   0.402   9.396
46251SOL    HW240651   9.874   0.393   9.318
46252SOL     OW40652   1.290   6.690   1.560
46252SOL    HW140653   1.299   6.776   1.602
46252SOL    HW240654   1.211   6.699   1.506
46253SOL     OW40655  10.650   7.255  10.417
46253SOL    HW140656  10.739   7.220  10.422
46253SOL    HW240657  10.660   7.348  10.438
46254SOL     OW40658  12.130   8.055   8.358
46254SOL    HW140659  12.113   8.108   8.436
46254SOL    HW240660  12.080   8.097   8.289
46255SOL     OW40661   4.894  12.619   2.406
46255SOL    HW140662   4.848  12.668   2.475
46255SOL    HW240663   4.975  12.589   2.447
46256SOL     OW40664   4.381   8.402   2.476
46256SOL    HW140665   4.316   8.413   2.406
46256SOL    HW240666   4.344   8.448   2.551
46257SOL     OW40667   9.792   2.862  14.424
46257SOL    HW140668   9.830   2.926  14.484
46257SOL    HW240669   9.698   2.875  14.431
46258SOL     OW40670   4.919   7.013  11.167
46258SOL    HW140671   4.972   6.969  11.233
46258SOL    HW240672   4.852   7.059  11.217
46259SOL     OW40673  14.213  11.109  13.215
46259SOL    HW140674  14.188  11.069  13.299
46259SOL    HW240675  14.163  11.190  13.212
46260SOL     OW40676   7.479   5.248   6.133
46260SOL    HW140677   7.426   5.327   6.120
46260SOL    HW240678   7.470   5.228   6.227
46261SOL     OW40679   9.808   4.725   8.431
46261SOL    HW140680   9.797   4.814   8.397
46261SOL    HW240681   9.726   4.708   8.478
46262SOL     OW40682  13.777   0.067   0.136
46262SOL    HW140683  13.750  14.848   0.110
46262SOL    HW240684  13.723   0.124   0.083
46263SOL     OW40685  14.826  13.008   3.522
46263SOL    HW140686  14.794  12.923   3.492
46263SOL    HW240687  14.796  13.070   3.455
46264SOL     OW40688   7.097   7.765   6.360
46264SOL    HW140689   7.066   7.818   6.434
46264SOL    HW240690   7.134   7.687   6.401
46265SOL     OW40691   3.848  11.340   6.902
46265SOL    HW140692   3.890  11.413   6.948
46265SOL    HW240693   3.828  11.376   6.815
46266SOL     OW40694   1.956  13.340   8.868
46266SOL    HW140695   2.052  13.341   8.865
46266SOL    HW240696   1.932  13.268   8.809
46267SOL     OW40697   0.393  13.500  14.571
46267SOL    HW140698   0.372  13.532  14.483
46267SOL    HW240699   0.320  13.530  14.625
46268SOL     OW40700  12.086  10.942   1.262
46268SOL    HW140701  12.112  10.963   1.173
46268SOL    HW240702  12.056  11.025   1.299
46269SOL     OW40703  11.206   9.890  12.004
46269SOL    HW140704  11.255   9.949  12.062
46269SOL    HW240705  11.235   9.803  12.029
46270SOL     OW40706   8.227  11.357   7.630
46270SOL    HW140707   8.165  11.348   7.702
46270SOL    HW240708   8.277  11.276   7.632
46271SOL     OW40709   7.952  13.116   1.224
46271SOL    HW140710   7.993  13.203   1.224
46271SOL    HW240711   7.967  13.082   1.312
46272SOL     OW40712   5.400   3.742   3.086
46272SOL    HW140713   5.450   3.718   3.008
46272SOL    HW240714   5.357   3.824   3.062
46273SOL     OW40715  12.049   8.084  12.555
46273SOL    HW140716  12.094   8.129  12.483
46273SOL    HW240717  12.083   7.995  12.552
46274SOL     OW40718   7.046   0.392  13.009
46274SOL    HW140719   6.997   0.446  12.947
46274SOL    HW240720   7.028   0.302  12.983
46275SOL     OW40721   6.618   2.225   9.576
46275SOL    HW140722   6.656   2.178   9.650
46275SOL    HW240723   6.616   2.316   9.603
46276SOL     OW40724   0.353   4.043   9.040
46276SOL    HW140725   0.393   4.117   8.995
46276SOL    HW240726   0.410   3.969   9.019
46277SOL     OW40727   6.502   7.687  10.953
46277SOL    HW140728   6.471   7.718  11.037
46277SOL    HW240729   6.451   7.608  10.936
46278SOL     OW40730   7.921  12.491   8.096
46278SOL    HW140731   7.965  12.486   8.011
46278SOL    HW240732   7.892  12.401   8.113
46279SOL     OW40733  11.601   1.295  12.193
46279SOL    HW140734  11.606   1.199  12.189
46279SOL    HW240735  11.691   1.323  12.208
46280SOL     OW40736  14.084   9.045   3.589
46280SOL    HW140737  14.069   8.962   3.543
46280SOL    HW240738  14.049   9.112   3.530
46281SOL     OW40739  11.887   5.177   4.938
46281SOL    HW140740  11.977   5.174   4.969
46281SOL    HW240741  11.881   5.106   4.874
46282SOL     OW40742   6.060  12.956  10.320
46282SOL    HW140743   6.026  12.878  10.364
46282SOL    HW240744   5.983  12.997  10.281
46283SOL     OW40745   8.804   3.639   0.510
46283SOL    HW140746   8.792   3.687   0.592
46283SOL    HW240747   8.898   3.639   0.495
46284SOL     OW40748  13.795   1.996   0.869
46284SOL    HW140749  13.837   1.939   0.805
46284SOL    HW240750  13.726   1.942   0.907
46285SOL     OW40751  14.384   8.105   4.635
46285SOL    HW140752  14.401   8.066   4.720
46285SOL    HW240753  14.445   8.062   4.575
46286SOL     OW40754   3.824  10.889   3.902
46286SOL    HW140755   3.825  10.875   3.807
46286SOL    HW240756   3.895  10.834   3.935
46287SOL     OW40757   1.945   4.643   6.440
46287SOL    HW140758   1.927   4.724   6.392
46287SOL    HW240759   1.900   4.654   6.524
46288SOL     OW40760  13.941   2.780   9.385
46288SOL    HW140761  13.994   2.783   9.305
46288SOL    HW240762  13.898   2.866   9.388
46289SOL     OW40763   9.767   1.595   5.924
46289SOL    HW140764   9.833   1.613   5.857
46289SOL    HW240765   9.783   1.662   5.992
46290SOL     OW40766   9.442   1.694  13.690
46290SOL    HW140767   9.378   1.687  13.619
46290SOL    HW240768   9.405   1.759  13.749
46291SOL     OW40769   7.803   1.255   6.043
46291SOL    HW140770   7.859   1.178   6.036
46291SOL    HW240771   7.794   1.270   6.137
46292SOL     OW40772  11.684   5.801  10.867
46292SOL    HW140773  11.632   5.773  10.942
46292SOL    HW240774  11.725   5.721  10.835
46293SOL     OW40775   8.050  14.733   7.195
46293SOL    HW140776   8.126  14.724   7.137
46293SOL    HW240777   8.085  14.716   7.282
46294SOL     OW40778  10.691   5.490   4.932
46294SOL    HW140779  10.705   5.582   4.951
46294SOL    HW240780  10.611   5.468   4.981
46295SOL     OW40781   7.675  11.418   8.465
46295SOL    HW140782   7.729  11.492   8.437
46295SOL    HW240783   7.620  11.398   8.390
46296SOL     OW40784   7.310   9.040   1.289
46296SOL    HW140785   7.390   8.988   1.279
46296SOL    HW240786   7.300   9.049   1.383
46297SOL     OW40787   9.361  10.641   1.218
46297SOL    HW140788   9.287  10.584   1.240
46297SOL    HW240789   9.409  10.593   1.151
46298SOL     OW40790  11.551  13.828   9.049
46298SOL    HW140791  11.632  13.875   9.068
46298SOL    HW240792  11.493  13.894   9.011
46299SOL     OW40793   0.516   9.212   5.570
46299SOL    HW140794   0.510   9.307   5.580
46299SOL    HW240795   0.592   9.187   5.621
46300SOL     OW40796   6.758   2.314   1.223
46300SOL    HW140797   6.703   2.381   1.184
46300SOL    HW240798   6.724   2.232   1.188
46301SOL     OW40799  13.685   6.577   7.231
46301SOL    HW140800  13.611   6.558   7.173
46301SOL    HW240801  13.710   6.667   7.209
46302SOL     OW40802   1.776   3.052   1.763
46302SOL    HW140803   1.828   3.119   1.806
46302SOL    HW240804   1.784   3.071   1.670
46303SOL     OW40805   4.564  14.379   3.573
46303SOL    HW140806   4.655  14.391   3.600
46303SOL    HW240807   4.548  14.451   3.511
46304SOL     OW40808   7.140   6.351  12.787
46304SOL    HW140809   7.148   6.258  12.808
46304SOL    HW240810   7.057   6.377  12.826
46305SOL     OW40811   4.887  12.070   5.967
46305SOL    HW140812   4.866  12.005   5.901
46305SOL    HW240813   4.917  12.020   6.043
46306SOL     OW40814   8.704  12.617  10.209
46306SOL    HW140815   8.784  12.648  10.253
46306SOL    HW240816   8.658  12.566  10.276
46307SOL     OW40817  10.364  11.848  10.730
46307SOL    HW140818  10.415  11.844  10.811
46307SOL    HW240819  10.276  11.873  10.758
46308SOL     OW40820   6.186   0.354   8.457
46308SOL    HW140821   6.172   0.403   8.538
46308SOL    HW240822   6.101   0.313   8.439
46309SOL     OW40823   1.581   6.357   3.290
46309SOL    HW140824   1.539   6.424   3.343
46309SOL    HW240825   1.674   6.380   3.292
46310SOL     OW40826   6.678   7.752   4.954
46310SOL    HW140827   6.695   7.803   5.034
46310SOL    HW240828   6.592   7.714   4.966
46311SOL     OW40829  11.490   0.083  12.340
46311SOL    HW140830  11.455   0.002  12.304
46311SOL    HW240831  11.573   0.057  12.382
46312SOL     OW40832   5.286  11.263  11.655
46312SOL    HW140833   5.293  11.352  11.622
46312SOL    HW240834   5.236  11.271  11.737
46313SOL     OW40835   0.225  10.247   1.955
46313SOL    HW140836   0.209  10.242   2.049
46313SOL    HW240837   0.310  10.293   1.948
46314SOL     OW40838   6.463  12.318   8.362
46314SOL    HW140839   6.386  12.357   8.322
46314SOL    HW240840   6.431  12.274   8.440
46315SOL     OW40841   3.320   1.998  11.577
46315SOL    HW140842   3.415   2.004  11.568
46315SOL    HW240843   3.287   2.083  11.547
46316SOL     OW40844  12.709   8.904  13.665
46316SOL    HW140845  12.637   8.954  13.704
46316SOL    HW240846  12.758   8.870  13.739
46317SOL     OW40847   0.468  14.850  13.534
46317SOL    HW140848   0.408  14.782  13.503
46317SOL    HW240849   0.452   0.055  13.476
46318SOL     OW40850   7.786  12.932  10.775
46318SOL    HW140851   7.710  12.877  10.755
46318SOL    HW240852   7.767  13.015  10.732
46319SOL     OW40853   6.247   3.136  11.658
46319SOL    HW140854   6.314   3.161  11.721
46319SOL    HW240855   6.266   3.044  11.638
46320SOL     OW40856   8.897  11.145   2.283
46320SOL    HW140857   8.804  11.166   2.286
46320SOL    HW240858   8.926  11.147   2.374
46321SOL     OW40859  11.831   7.564  13.608
46321SOL    HW140860  11.753   7.544  13.659
46321SOL    HW240861  11.900   7.511  13.647
46322SOL     OW40862   2.051  11.230   2.407
46322SOL    HW140863   2.114  11.279   2.353
46322SOL    HW240864   1.966  11.264   2.381
46323SOL     OW40865   6.283  11.093   2.885
46323SOL    HW140866   6.297  11.094   2.980
46323SOL    HW240867   6.222  11.165   2.869
46324SOL     OW40868   7.938   3.946  11.035
46324SOL    HW140869   7.911   3.970  11.123
46324SOL    HW240870   7.867   3.890  11.002
46325SOL     OW40871  13.626   3.045  10.221
46325SOL    HW140872  13.539   3.007  10.229
46325SOL    HW240873  13.667   2.996  10.151
46326SOL     OW40874  12.653  14.659   1.815
46326SOL    HW140875  12.617  14.600   1.882
46326SOL    HW240876  12.613  14.744   1.834
46327SOL     OW40877   8.275  11.015   0.961
46327SOL    HW140878   8.297  10.934   1.007
46327SOL    HW240879   8.196  10.994   0.911
46328SOL     OW40880   1.965  10.966  14.122
46328SOL    HW140881   2.042  11.012  14.088
46328SOL    HW240882   1.922  11.029  14.179
46329SOL     OW40883   3.248   5.584   7.165
46329SOL    HW140884   3.271   5.568   7.073
46329SOL    HW240885   3.286   5.670   7.184
46330SOL     OW40886  10.100  10.458   0.741
46330SOL    HW140887  10.065  10.533   0.692
46330SOL    HW240888  10.050  10.383   0.708
46331SOL     OW40889  14.174   5.448  11.374
46331SOL    HW140890  14.104   5.447  11.440
46331SOL    HW240891  14.145   5.385  11.308
46332SOL     OW40892  12.760  11.480  14.028
46332SOL    HW140893  12.757  11.573  14.049
46332SOL    HW240894  12.669  11.450  14.037
46333SOL     OW40895   8.095   0.429   1.941
46333SOL    HW140896   8.026   0.459   2.000
46333SOL    HW240897   8.157   0.502   1.938
46334SOL     OW40898   8.326   5.292   0.626
46334SOL    HW140899   8.379   5.285   0.705
46334SOL    HW240900   8.238   5.311   0.658
46335SOL     OW40901  10.533  13.357  13.404
46335SOL    HW140902  10.450  13.326  13.366
46335SOL    HW240903  10.507  13.398  13.486
46336SOL     OW40904   8.942   2.097   2.100
46336SOL    HW140905   9.002   2.170   2.087
46336SOL    HW240906   8.858   2.128   2.066
46337SOL     OW40907   4.189   6.922   3.125
46337SOL    HW140908   4.108   6.913   3.075
46337SOL    HW240909   4.254   6.875   3.073
46338SOL     OW40910   4.159  12.820   9.883
46338SOL    HW140911   4.180  12.913   9.876
46338SOL    HW240912   4.210  12.789   9.957
46339SOL     OW40913   4.496  12.365  12.809
46339SOL    HW140914   4.409  12.400  12.787
46339SOL    HW240915   4.550  12.387  12.733
46340SOL     OW40916   9.129  11.812   1.079
46340SOL    HW140917   9.120  11.734   1.023
46340SOL    HW240918   9.182  11.783   1.153
46341SOL     OW40919   8.715   8.857   2.965
46341SOL    HW140920   8.672   8.889   2.886
46341SOL    HW240921   8.688   8.766   2.973
46342SOL     OW40922  11.523   0.189  11.716
46342SOL    HW140923  11.599   0.232  11.754
46342SOL    HW240924  11.471   0.161  11.791
46343SOL     OW40925  13.849  13.477   2.596
46343SOL    HW140926  13.799  13.494   2.676
46343SOL    HW240927  13.911  13.550   2.590
46344SOL     OW40928   3.760   1.064   4.097
46344SOL    HW140929   3.671   1.036   4.076
46344SOL    HW240930   3.756   1.160   4.098
46345SOL     OW40931  10.459   7.464   2.999
46345SOL    HW140932  10.455   7.387   2.943
46345SOL    HW240933  10.433   7.432   3.085
46346SOL     OW40934   1.115   9.390   4.255
46346SOL    HW140935   1.138   9.327   4.187
46346SOL    HW240936   1.099   9.472   4.208
46347SOL     OW40937   6.760   8.286   9.468
46347SOL    HW140938   6.743   8.310   9.377
46347SOL    HW240939   6.760   8.369   9.515
46348SOL     OW40940   1.458   6.394   6.638
46348SOL    HW140941   1.500   6.310   6.618
46348SOL    HW240942   1.500   6.423   6.719
46349SOL     OW40943  12.564   7.674   2.457
46349SOL    HW140944  12.481   7.645   2.419
46349SOL    HW240945  12.542   7.755   2.503
46350SOL     OW40946  11.970   8.453   3.751
46350SOL    HW140947  11.945   8.475   3.661
46350SOL    HW240948  11.985   8.538   3.793
46351SOL     OW40949   7.381  12.039   6.653
46351SOL    HW140950   7.314  12.104   6.676
46351SOL    HW240951   7.335  11.977   6.596
46352SOL     OW40952  10.790  10.476   7.692
46352SOL    HW140953  10.849  10.420   7.742
46352SOL    HW240954  10.820  10.467   7.601
46353SOL     OW40955   1.521  10.287   0.907
46353SOL    HW140956   1.579  10.214   0.888
46353SOL    HW240957   1.489  10.271   0.995
46354SOL     OW40958   7.629   1.936  14.325
46354SOL    HW140959   7.691   1.983  14.381
46354SOL    HW240960   7.609   1.856  14.375
46355SOL     OW40961   5.065  11.901   3.571
46355SOL    HW140962   5.085  11.918   3.479
46355SOL    HW240963   4.970  11.909   3.576
46356SOL     OW40964  10.106   3.497   7.445
46356SOL    HW140965  10.012   3.498   7.464
46356SOL    HW240966  10.146   3.461   7.524
46357SOL     OW40967   1.769   2.077  12.633
46357SOL    HW140968   1.751   2.061  12.540
46357SOL    HW240969   1.740   2.166  12.648
46358SOL     OW40970   4.937   5.384   9.169
46358SOL    HW140971   4.891   5.429   9.098
46358SOL    HW240972   4.879   5.311   9.193
46359SOL     OW40973   5.653  13.191  13.784
46359SOL    HW140974   5.598  13.267  13.771
46359SOL    HW240975   5.623  13.127  13.719
46360SOL     OW40976   4.866  13.689  11.672
46360SOL    HW140977   4.825  13.603  11.661
46360SOL    HW240978   4.955  13.677  11.641
46361SOL     OW40979  12.037   4.461   9.413
46361SOL    HW140980  12.087   4.452   9.495
46361SOL    HW240981  11.967   4.396   9.420
46362SOL     OW40982  11.449   6.941   1.153
46362SOL    HW140983  11.463   6.886   1.230
46362SOL    HW240984  11.519   6.915   1.092
46363SOL     OW40985  13.159  11.239   7.871
46363SOL    HW140986  13.142  11.263   7.962
46363SOL    HW240987  13.249  11.206   7.872
46364SOL     OW40988  12.163   0.848   9.604
46364SOL    HW140989  12.197   0.938   9.593
46364SOL    HW240990  12.236   0.792   9.577
46365SOL     OW40991   0.229   5.485   9.769
46365SOL    HW140992   0.254   5.538   9.844
46365SOL    HW240993   0.225   5.547   9.696
46366SOL     OW40994   1.747  11.112  12.522
46366SOL    HW140995   1.728  11.169  12.448
46366SOL    HW240996   1.709  11.157  12.598
46367SOL     OW40997   8.924   0.051  14.027
46367SOL    HW140998   9.011   0.027  13.996
46367SOL    HW240999   8.935   0.139  14.063
46368SOL     OW41000  13.631  14.551  11.660
46368SOL    HW141001  13.655  14.460  11.676
46368SOL    HW241002  13.710  14.590  11.622
46369SOL     OW41003  10.513   4.288   6.655
46369SOL    HW141004  10.507   4.282   6.750
46369SOL    HW241005  10.529   4.381   6.638
46370SOL     OW41006  13.285   5.409   0.569
46370SOL    HW141007  13.282   5.351   0.645
46370SOL    HW241008  13.277   5.350   0.494
46371SOL     OW41009   6.169  13.476   6.523
46371SOL    HW141010   6.186  13.526   6.602
46371SOL    HW241011   6.247  13.423   6.510
46372SOL     OW41012   5.762  14.607   7.894
46372SOL    HW141013   5.748  14.665   7.969
46372SOL    HW241014   5.751  14.664   7.817
46373SOL     OW41015  10.080  14.821  14.101
46373SOL    HW141016  10.069  14.731  14.071
46373SOL    HW241017  10.053  14.820  14.192
46374SOL     OW41018   7.287   5.981   4.613
46374SOL    HW141019   7.303   5.932   4.532
46374SOL    HW241020   7.202   5.949   4.644
46375SOL     OW41021  11.484  13.541   5.765
46375SOL    HW141022  11.424  13.610   5.793
46375SOL    HW241023  11.482  13.544   5.669
46376SOL     OW41024   0.636   4.166   2.817
46376SOL    HW141025   0.590   4.235   2.770
46376SOL    HW241026   0.695   4.212   2.876
46377SOL     OW41027   6.557   1.426  12.172
46377SOL    HW141028   6.584   1.355  12.230
46377SOL    HW241029   6.607   1.412  12.092
46378SOL     OW41030  11.290   5.675  10.652
46378SOL    HW141031  11.374   5.637  10.626
46378SOL    HW241032  11.314   5.750  10.707
46379SOL     OW41033   4.408   2.108  10.365
46379SOL    HW141034   4.322   2.145  10.383
46379SOL    HW241035   4.420   2.119  10.270
46380SOL     OW41036  12.979   2.990  11.954
46380SOL    HW141037  12.978   2.894  11.955
46380SOL    HW241038  12.943   3.014  12.039
46381SOL     OW41039  10.241   1.864   7.777
46381SOL    HW141040  10.275   1.775   7.770
46381SOL    HW241041  10.318   1.918   7.797
46382SOL     OW41042   6.890  12.928   5.468
46382SOL    HW141043   6.872  12.853   5.411
46382SOL    HW241044   6.868  13.004   5.415
46383SOL     OW41045   1.478  11.329   8.386
46383SOL    HW141046   1.553  11.360   8.334
46383SOL    HW241047   1.409  11.315   8.321
46384SOL     OW41048   4.650   2.839  10.286
46384SOL    HW141049   4.592   2.903  10.244
46384SOL    HW241050   4.725   2.833  10.227
46385SOL     OW41051   6.431  13.979  11.616
46385SOL    HW141052   6.350  14.011  11.576
46385SOL    HW241053   6.405  13.954  11.705
46386SOL     OW41054   0.810   4.685  10.418
46386SOL    HW141055   0.860   4.699  10.499
46386SOL    HW241056   0.850   4.744  10.355
46387SOL     OW41057   3.936  11.097   3.461
46387SOL    HW141058   3.935  11.189   3.433
46387SOL    HW241059   4.004  11.056   3.407
46388SOL     OW41060  10.904   1.316  13.220
46388SOL    HW141061  10.899   1.317  13.124
46388SOL    HW241062  10.998   1.318  13.239
46389SOL     OW41063  14.383   0.581   1.627
46389SOL    HW141064  14.409   0.496   1.592
46389SOL    HW241065  14.375   0.567   1.721
46390SOL     OW41066   1.568  12.732  12.642
46390SOL    HW141067   1.498  12.728  12.708
46390SOL    HW241068   1.649  12.733  12.694
46391SOL     OW41069  10.992   5.070  10.954
46391SOL    HW141070  11.064   5.011  10.932
46391SOL    HW241071  10.972   5.115  10.872
46392SOL     OW41072  12.628   0.243   6.484
46392SOL    HW141073  12.603   0.234   6.392
46392SOL    HW241074  12.719   0.214   6.487
46393SOL     OW41075   1.711  14.761   2.219
46393SOL    HW141076   1.678  14.704   2.288
46393SOL    HW241077   1.683  14.849   2.244
46394SOL     OW41078   7.640   2.185  10.592
46394SOL    HW141079   7.702   2.153  10.525
46394SOL    HW241080   7.620   2.107  10.644
46395SOL     OW41081   8.762   8.399  10.489
46395SOL    HW141082   8.729   8.309  10.496
46395SOL    HW241083   8.840   8.400  10.544
46396SOL     OW41084   2.887   8.684   1.002
46396SOL    HW141085   2.966   8.656   1.047
46396SOL    HW241086   2.853   8.604   0.961
46397SOL     OW41087  13.879   9.194   8.230
46397SOL    HW141088  13.974   9.196   8.246
46397SOL    HW241089  13.871   9.198   8.135
46398SOL     OW41090   4.470   6.861   5.662
46398SOL    HW141091   4.484   6.865   5.567
46398SOL    HW241092   4.451   6.952   5.687
46399SOL     OW41093   5.261   6.942   3.323
46399SOL    HW141094   5.266   6.988   3.239
46399SOL    HW241095   5.173   6.962   3.355
46400SOL     OW41096   8.298  11.554  13.171
46400SOL    HW141097   8.254  11.472  13.189
46400SOL    HW241098   8.264  11.582  13.086
46401SOL     OW41099   4.927   5.520   3.052
46401SOL    HW141100   4.996   5.454   3.053
46401SOL    HW241101   4.894   5.519   2.962
46402SOL     OW41102  13.923   1.552  12.596
46402SOL    HW141103  13.993   1.488  12.587
46402SOL    HW241104  13.966   1.637  12.588
46403SOL     OW41105   4.607   1.753  10.429
46403SOL    HW141106   4.552   1.697  10.375
46403SOL    HW241107   4.685   1.769  10.376
46404SOL     OW41108   4.294   4.737   0.167
46404SOL    HW141109   4.244   4.708   0.243
46404SOL    HW241110   4.289   4.664   0.106
46405SOL     OW41111   6.604  13.422   6.470
46405SOL    HW141112   6.593  13.502   6.418
46405SOL    HW241113   6.689  13.433   6.513
46406SOL     OW41114   1.495   9.845  14.667
46406SOL    HW141115   1.578   9.839  14.620
46406SOL    HW241116   1.512   9.907  14.738
46407SOL     OW41117  13.484   5.705  10.195
46407SOL    HW141118  13.469   5.779  10.253
46407SOL    HW241119  13.489   5.629  10.253
46408SOL     OW41120   5.286  12.684   8.609
46408SOL    HW141121   5.277  12.779   8.605
46408SOL    HW241122   5.359  12.665   8.550
46409SOL     OW41123   0.288  10.062   5.894
46409SOL    HW141124   0.320  10.040   5.982
46409SOL    HW241125   0.196  10.085   5.907
46410SOL     OW41126  11.313   2.054   6.813
46410SOL    HW141127  11.219   2.040   6.809
46410SOL    HW241128  11.345   1.988   6.875
46411SOL     OW41129  13.487   8.913   5.571
46411SOL    HW141130  13.579   8.925   5.594
46411SOL    HW241131  13.456   9.001   5.551
46412SOL     OW41132   1.567   0.086  14.067
46412SOL    HW141133   1.574   0.003  14.115
46412SOL    HW241134   1.555   0.060  13.976
46413SOL     OW41135  10.959   1.130   1.552
46413SOL    HW141136  10.988   1.112   1.463
46413SOL    HW241137  11.038   1.119   1.605
46414SOL     OW41138   1.271   7.696  12.964
46414SOL    HW141139   1.341   7.758  12.985
46414SOL    HW241140   1.233   7.674  13.048
46415SOL     OW41141   7.271  12.209   4.734
46415SOL    HW141142   7.200  12.262   4.770
46415SOL    HW241143   7.246  12.119   4.757
46416SOL     OW41144   4.425   0.149   4.312
46416SOL    HW141145   4.417   0.178   4.221
46416SOL    HW241146   4.335   0.125   4.337
46417SOL     OW41147   2.258   6.824   1.144
46417SOL    HW141148   2.313   6.788   1.213
46417SOL    HW241149   2.177   6.850   1.188
46418SOL     OW41150   7.011   3.021  10.184
46418SOL    HW141151   7.062   2.941  10.200
46418SOL    HW241152   6.924   3.001  10.218
46419SOL     OW41153   9.299   9.808   5.001
46419SOL    HW141154   9.238   9.734   4.998
46419SOL    HW241155   9.349   9.802   4.920
46420SOL     OW41156   5.564   4.139   2.387
46420SOL    HW141157   5.531   4.053   2.363
46420SOL    HW241158   5.487   4.195   2.392
46421SOL     OW41159  14.252   0.479   1.861
46421SOL    HW141160  14.186   0.471   1.792
46421SOL    HW241161  14.204   0.512   1.937
46422SOL     OW41162   0.545  11.889   1.478
46422SOL    HW141163   0.552  11.801   1.439
46422SOL    HW241164   0.452  11.902   1.492
46423SOL     OW41165  13.594   1.639   4.762
46423SOL    HW141166  13.520   1.605   4.711
46423SOL    HW241167  13.615   1.568   4.823
46424SOL     OW41168  13.182   8.734   5.176
46424SOL    HW141169  13.263   8.782   5.155
46424SOL    HW241170  13.146   8.711   5.090
46425SOL     OW41171  10.428   0.198  14.591
46425SOL    HW141172  10.478   0.254  14.532
46425SOL    HW241173  10.426   0.113  14.548
46426SOL     OW41174  12.958   6.532  14.640
46426SOL    HW141175  13.031   6.595  14.645
46426SOL    HW241176  12.882   6.586  14.617
46427SOL     OW41177  11.896   5.511  10.955
46427SOL    HW141178  11.951   5.587  10.938
46427SOL    HW241179  11.866   5.483  10.868
46428SOL     OW41180  14.622   2.530   0.729
46428SOL    HW141181  14.689   2.463   0.723
46428SOL    HW241182  14.581   2.516   0.815
46429SOL     OW41183  13.717   2.761   2.777
46429SOL    HW141184  13.812   2.769   2.768
46429SOL    HW241185  13.694   2.826   2.844
46430SOL     OW41186   8.210  12.337   6.514
46430SOL    HW141187   8.187  12.245   6.531
46430SOL    HW241188   8.251  12.335   6.427
46431SOL     OW41189   2.055   6.554   4.163
46431SOL    HW141190   2.108   6.544   4.241
46431SOL    HW241191   1.973   6.593   4.194
46432SOL     OW41192   8.908  14.798   7.478
46432SOL    HW141193   8.915  14.714   7.524
46432SOL    HW241194   8.815  14.806   7.457
46433SOL     OW41195   3.132   1.355   5.993
46433SOL    HW141196   3.064   1.291   6.013
46433SOL    HW241197   3.189   1.310   5.931
46434SOL     OW41198  13.754  14.211   2.748
46434SOL    HW141199  13.762  14.159   2.828
46434SOL    HW241200  13.664  14.198   2.719
46435SOL     OW41201   9.704   0.596   5.878
46435SOL    HW141202   9.673   0.563   5.962
46435SOL    HW241203   9.734   0.684   5.896
46436SOL     OW41204  10.784   9.445   7.608
46436SOL    HW141205  10.787   9.384   7.533
46436SOL    HW241206  10.714   9.410   7.663
46437SOL     OW41207   1.147   9.371   2.675
46437SOL    HW141208   1.209   9.344   2.744
46437SOL    HW241209   1.091   9.295   2.663
46438SOL     OW41210  14.729   5.687   1.048
46438SOL    HW141211  14.767   5.606   1.084
46438SOL    HW241212  14.805   5.741   1.026
46439SOL     OW41213   9.873   1.742   9.879
46439SOL    HW141214   9.858   1.729   9.785
46439SOL    HW241215   9.942   1.808   9.883
46440SOL     OW41216  12.227   8.047  13.575
46440SOL    HW141217  12.135   8.022  13.570
46440SOL    HW241218  12.275   7.967  13.553
46441SOL     OW41219   9.683  13.317   9.783
46441SOL    HW141220   9.604  13.300   9.834
46441SOL    HW241221   9.654  13.319   9.692
46442SOL     OW41222  13.377   4.855   3.304
46442SOL    HW141223  13.457   4.906   3.318
46442SOL    HW241224  13.324   4.872   3.382
46443SOL     OW41225   2.991  10.856   0.036
46443SOL    HW141226   2.929  10.864  14.833
46443SOL    HW241227   2.969  10.929   0.094
46444SOL     OW41228   7.930   7.241  10.377
46444SOL    HW141229   7.885   7.292  10.309
46444SOL    HW241230   7.947   7.305  10.446
46445SOL     OW41231   4.657   0.973   1.284
46445SOL    HW141232   4.660   0.950   1.192
46445SOL    HW241233   4.565   0.993   1.301
46446SOL     OW41234   0.313  14.266   5.435
46446SOL    HW141235   0.386  14.219   5.474
46446SOL    HW241236   0.307  14.232   5.346
46447SOL     OW41237   8.022   0.141   7.257
46447SOL    HW141238   8.009   0.193   7.178
46447SOL    HW241239   8.027   0.051   7.225
46448SOL     OW41240   2.286   3.540  13.744
46448SOL    HW141241   2.314   3.559  13.655
46448SOL    HW241242   2.272   3.445  13.745
46449SOL     OW41243   5.558   1.299   0.500
46449SOL    HW141244   5.477   1.327   0.459
46449SOL    HW241245   5.545   1.205   0.516
46450SOL     OW41246  14.829   8.002   6.391
46450SOL    HW141247  14.850   8.039   6.306
46450SOL    HW241248  14.733   7.998   6.392
46451SOL     OW41249  10.841   8.293   2.906
46451SOL    HW141250  10.887   8.302   2.989
46451SOL    HW241251  10.856   8.203   2.880
46452SOL     OW41252  12.152  11.790  11.599
46452SOL    HW141253  12.218  11.720  11.599
46452SOL    HW241254  12.089  11.763  11.532
46453SOL     OW41255   0.283   8.833  10.328
46453SOL    HW141256   0.351   8.837  10.261
46453SOL    HW241257   0.314   8.892  10.397
46454SOL     OW41258   3.432   0.855   2.138
46454SOL    HW141259   3.348   0.809   2.142
46454SOL    HW241260   3.491   0.794   2.095
46455SOL     OW41261   4.366   8.538  14.018
46455SOL    HW141262   4.415   8.509  14.095
46455SOL    HW241263   4.394   8.479  13.948
46456SOL     OW41264   1.814   0.517  12.649
46456SOL    HW141265   1.847   0.511  12.738
46456SOL    HW241266   1.722   0.492  12.655
46457SOL     OW41267   0.713   0.526   2.989
46457SOL    HW141268   0.635   0.479   3.018
46457SOL    HW241269   0.738   0.484   2.907
46458SOL     OW41270   3.832   6.963   4.928
46458SOL    HW141271   3.879   7.045   4.911
46458SOL    HW241272   3.747   6.975   4.886
46459SOL     OW41273  14.455  13.797   2.168
46459SOL    HW141274  14.431  13.723   2.224
46459SOL    HW241275  14.503  13.758   2.095
46460SOL     OW41276   8.556   0.411  10.734
46460SOL    HW141277   8.578   0.406  10.827
46460SOL    HW241278   8.578   0.501  10.709
46461SOL     OW41279   8.764   2.327   5.755
46461SOL    HW141280   8.740   2.287   5.672
46461SOL    HW241281   8.681   2.358   5.791
46462SOL     OW41282   6.092   4.197   7.930
46462SOL    HW141283   6.025   4.137   7.897
46462SOL    HW241284   6.109   4.257   7.857
46463SOL     OW41285   0.275   8.861   2.789
46463SOL    HW141286   0.275   8.902   2.875
46463SOL    HW241287   0.359   8.887   2.750
46464SOL     OW41288   8.481   8.478   8.490
46464SOL    HW141289   8.389   8.466   8.466
46464SOL    HW241290   8.530   8.458   8.410
46465SOL     OW41291  13.149   2.873   6.045
46465SOL    HW141292  13.096   2.952   6.034
46465SOL    HW241293  13.234   2.897   6.008
46466SOL     OW41294   9.280   0.556   3.080
46466SOL    HW141295   9.309   0.509   3.158
46466SOL    HW241296   9.290   0.649   3.103
46467SOL     OW41297   9.683   1.353   8.404
46467SOL    HW141298   9.679   1.303   8.322
46467SOL    HW241299   9.606   1.323   8.453
46468SOL     OW41300  12.382   4.601   7.268
46468SOL    HW141301  12.304   4.647   7.298
46468SOL    HW241302  12.356   4.563   7.183
46469SOL     OW41303  12.518  11.256   4.679
46469SOL    HW141304  12.594  11.209   4.714
46469SOL    HW241305  12.552  11.341   4.653
46470SOL     OW41306   2.379  10.656   7.833
46470SOL    HW141307   2.347  10.568   7.814
46470SOL    HW241308   2.300  10.710   7.840
46471SOL     OW41309  10.295   0.997   4.201
46471SOL    HW141310  10.235   1.031   4.134
46471SOL    HW241311  10.260   1.029   4.284
46472SOL     OW41312   7.828   2.607  14.077
46472SOL    HW141313   7.803   2.656  13.999
46472SOL    HW241314   7.843   2.518  14.045
46473SOL     OW41315  13.782   0.203   0.482
46473SOL    HW141316  13.725   0.205   0.559
46473SOL    HW241317  13.864   0.244   0.511
46474SOL     OW41318   0.779  10.023   3.858
46474SOL    HW141319   0.786  10.116   3.880
46474SOL    HW241320   0.789   9.978   3.942
46475SOL     OW41321   1.743  10.877   2.968
46475SOL    HW141322   1.672  10.815   2.981
46475SOL    HW241323   1.701  10.954   2.930
46476SOL     OW41324   6.449   9.709  13.711
46476SOL    HW141325   6.420   9.620  13.692
46476SOL    HW241326   6.373   9.764  13.691
46477SOL     OW41327   3.234  10.308   2.062
46477SOL    HW141328   3.312  10.305   2.007
46477SOL    HW241329   3.227  10.400   2.089
46478SOL     OW41330   0.229  10.831   9.720
46478SOL    HW141331   0.215  10.915   9.677
46478SOL    HW241332   0.324  10.824   9.728
46479SOL     OW41333  11.922   8.195   9.529
46479SOL    HW141334  11.936   8.195   9.624
46479SOL    HW241335  12.010   8.192   9.491
46480SOL     OW41336   3.063   8.100   5.776
46480SOL    HW141337   2.981   8.052   5.791
46480SOL    HW241338   3.036   8.192   5.772
46481SOL     OW41339   6.166  14.058  11.526
46481SOL    HW141340   6.167  14.021  11.614
46481SOL    HW241341   6.145  14.150  11.538
46482SOL     OW41342   1.931   8.902   8.662
46482SOL    HW141343   1.952   8.820   8.706
46482SOL    HW241344   1.976   8.897   8.578
46483SOL     OW41345  11.048   6.561  11.865
46483SOL    HW141346  11.103   6.635  11.837
46483SOL    HW241347  11.017   6.523  11.784
46484SOL     OW41348   7.544   9.676   6.214
46484SOL    HW141349   7.572   9.765   6.236
46484SOL    HW241350   7.622   9.622   6.228
46485SOL     OW41351  12.227   2.224  11.348
46485SOL    HW141352  12.205   2.218  11.441
46485SOL    HW241353  12.149   2.263  11.308
46486SOL     OW41354  14.797   0.976   9.300
46486SOL    HW141355   0.001   0.918   9.317
46486SOL    HW241356  14.735   0.923   9.251
46487SOL     OW41357   0.039   4.741   4.446
46487SOL    HW141358   0.042   4.833   4.470
46487SOL    HW241359  14.848   4.701   4.509
46488SOL     OW41360   3.820   0.885   8.108
46488SOL    HW141361   3.878   0.821   8.067
46488SOL    HW241362   3.784   0.838   8.184
46489SOL     OW41363  12.408  14.151   4.340
46489SOL    HW141364  12.400  14.092   4.265
46489SOL    HW241365  12.500  14.178   4.340
46490SOL     OW41366   1.712   5.432   7.096
46490SOL    HW141367   1.690   5.508   7.150
46490SOL    HW241368   1.700   5.462   7.006
46491SOL     OW41369   2.322   3.153   0.232
46491SOL    HW141370   2.314   3.067   0.274
46491SOL    HW241371   2.265   3.148   0.156
46492SOL     OW41372   5.411  11.095   0.177
46492SOL    HW141373   5.391  11.188   0.162
46492SOL    HW241374   5.461  11.069   0.100
46493SOL     OW41375   3.973   9.484  10.989
46493SOL    HW141376   3.962   9.578  10.999
46493SOL    HW241377   3.913   9.460  10.918
46494SOL     OW41378   8.214  12.999   6.162
46494SOL    HW141379   8.199  13.090   6.137
46494SOL    HW241380   8.147  12.980   6.228
46495SOL     OW41381  11.853   9.081   0.057
46495SOL    HW141382  11.915   9.080   0.130
46495SOL    HW241383  11.905   9.053  14.851
46496SOL     OW41384   0.333   5.854   2.729
46496SOL    HW141385   0.339   5.896   2.644
46496SOL    HW241386   0.393   5.903   2.785
46497SOL     OW41387   5.510   2.766   0.511
46497SOL    HW141388   5.603   2.770   0.488
46497SOL    HW241389   5.477   2.855   0.499
46498SOL     OW41390  10.538   5.345   8.166
46498SOL    HW141391  10.620   5.390   8.148
46498SOL    HW241392  10.561   5.275   8.228
46499SOL     OW41393   7.903  11.778   5.511
46499SOL    HW141394   7.974  11.829   5.550
46499SOL    HW241395   7.898  11.699   5.565
46500SOL     OW41396   1.826   7.335   4.683
46500SOL    HW141397   1.822   7.406   4.747
46500SOL    HW241398   1.894   7.276   4.716
46501SOL     OW41399   2.111   4.595  13.356
46501SOL    HW141400   2.151   4.531  13.297
46501SOL    HW241401   2.032   4.623  13.311
46502SOL     OW41402   1.601   3.564   6.974
46502SOL    HW141403   1.672   3.629   6.978
46502SOL    HW241404   1.644   3.484   6.944
46503SOL     OW41405  10.499   6.369  14.824
46503SOL    HW141406  10.518   6.295  14.767
46503SOL    HW241407  10.409   6.353  14.853
46504SOL     OW41408   0.674   7.919   2.235
46504SOL    HW141409   0.676   8.000   2.285
46504SOL    HW241410   0.667   7.850   2.302
46505SOL     OW41411  12.553   4.538   7.631
46505SOL    HW141412  12.626   4.589   7.666
46505SOL    HW241413  12.511   4.500   7.708
46506SOL     OW41414   4.004  11.992   8.156
46506SOL    HW141415   3.979  12.076   8.193
46506SOL    HW241416   3.978  11.997   8.064
46507SOL     OW41417  11.382   9.479   1.663
46507SOL    HW141418  11.388   9.571   1.638
46507SOL    HW241419  11.397   9.478   1.757
46508SOL     OW41420   6.377   5.031   6.473
46508SOL    HW141421   6.372   5.121   6.506
46508SOL    HW241422   6.398   5.040   6.381
46509SOL     OW41423   2.263  11.784   7.818
46509SOL    HW141424   2.210  11.723   7.767
46509SOL    HW241425   2.317  11.829   7.753
46510SOL     OW41426   4.313   0.457   6.581
46510SOL    HW141427   4.309   0.489   6.490
46510SOL    HW241428   4.223   0.430   6.600
46511SOL     OW41429   4.932  13.313   8.534
46511SOL    HW141430   4.979  13.231   8.548
46511SOL    HW241431   4.963  13.371   8.604
46512SOL     OW41432   1.212   5.689   6.575
46512SOL    HW141433   1.297   5.730   6.591
46512SOL    HW241434   1.190   5.646   6.658
46513SOL     OW41435   8.240  13.967   8.821
46513SOL    HW141436   8.249  13.939   8.730
46513SOL    HW241437   8.153  13.936   8.847
46514SOL     OW41438   4.019   6.833  13.964
46514SOL    HW141439   4.068   6.915  13.961
46514SOL    HW241440   4.082   6.768  13.995
46515SOL     OW41441   3.923  14.634   1.383
46515SOL    HW141442   3.917  14.661   1.292
46515SOL    HW241443   3.853  14.681   1.427
46516SOL     OW41444   3.190   1.734   6.386
46516SOL    HW141445   3.208   1.677   6.460
46516SOL    HW241446   3.113   1.784   6.412
46517SOL     OW41447   9.352   7.761   5.885
46517SOL    HW141448   9.294   7.692   5.919
46517SOL    HW241449   9.363   7.739   5.793
46518SOL     OW41450   9.810   9.452   2.344
46518SOL    HW141451   9.725   9.410   2.332
46518SOL    HW241452   9.797   9.512   2.418
46519SOL     OW41453   9.553   2.709   9.729
46519SOL    HW141454   9.642   2.694   9.760
46519SOL    HW241455   9.557   2.793   9.683
46520SOL     OW41456   4.900   6.513  10.448
46520SOL    HW141457   4.921   6.500  10.540
46520SOL    HW241458   4.836   6.584  10.448
46521SOL     OW41459   6.182   3.584   7.342
46521SOL    HW141460   6.098   3.542   7.327
46521SOL    HW241461   6.192   3.585   7.437
46522SOL     OW41462   0.519   8.135   7.452
46522SOL    HW141463   0.536   8.229   7.459
46522SOL    HW241464   0.600   8.093   7.484
46523SOL     OW41465  11.196   4.982   6.502
46523SOL    HW141466  11.152   4.916   6.557
46523SOL    HW241467  11.254   4.931   6.446
46524SOL     OW41468  13.729   4.680   3.526
46524SOL    HW141469  13.647   4.723   3.553
46524SOL    HW241470  13.702   4.591   3.502
46525SOL     OW41471  13.649   3.629   4.155
46525SOL    HW141472  13.744   3.633   4.172
46525SOL    HW241473  13.610   3.680   4.226
46526SOL     OW41474   4.998   0.705  14.867
46526SOL    HW141475   4.949   0.675   0.073
46526SOL    HW241476   5.036   0.788   0.025
46527SOL     OW41477   6.957   3.858   2.945
46527SOL    HW141478   6.921   3.912   2.874
46527SOL    HW241479   6.934   3.905   3.025
46528SOL     OW41480   1.372   8.383  14.864
46528SOL    HW141481   1.429   8.395   0.070
46528SOL    HW241482   1.340   8.293   0.003
46529SOL     OW41483   3.774   6.363   4.522
46529SOL    HW141484   3.748   6.446   4.561
46529SOL    HW241485   3.790   6.305   4.596
46530SOL     OW41486  12.076   7.835  10.390
46530SOL    HW141487  12.006   7.901  10.389
46530SOL    HW241488  12.157   7.886  10.384
46531SOL     OW41489   1.474  14.525  10.337
46531SOL    HW141490   1.510  14.459  10.277
46531SOL    HW241491   1.517  14.606  10.311
46532SOL     OW41492  13.903   5.142   3.950
46532SOL    HW141493  13.978   5.086   3.929
46532SOL    HW241494  13.891   5.197   3.873
46533SOL     OW41495  13.697   1.955  12.206
46533SOL    HW141496  13.607   1.969  12.237
46533SOL    HW241497  13.698   1.864  12.176
46534SOL     OW41498   3.423   7.556   2.991
46534SOL    HW141499   3.390   7.470   3.016
46534SOL    HW241500   3.416   7.608   3.072
46535SOL     OW41501   3.216  13.291   2.660
46535SOL    HW141502   3.164  13.219   2.696
46535SOL    HW241503   3.163  13.325   2.588
46536SOL     OW41504   3.795   7.038   5.508
46536SOL    HW141505   3.789   6.947   5.537
46536SOL    HW241506   3.876   7.041   5.456
46537SOL     OW41507  11.402   8.501   1.710
46537SOL    HW141508  11.312   8.469   1.707
46537SOL    HW241509  11.422   8.509   1.803
46538SOL     OW41510   7.863   5.237  12.034
46538SOL    HW141511   7.915   5.166  11.996
46538SOL    HW241512   7.928   5.303  12.060
46539SOL     OW41513   4.718   8.497   4.395
46539SOL    HW141514   4.792   8.555   4.377
46539SOL    HW241515   4.653   8.521   4.329
46540SOL     OW41516  13.401   3.372  14.333
46540SOL    HW141517  13.414   3.420  14.415
46540SOL    HW241518  13.326   3.316  14.350
46541SOL     OW41519   2.680   2.621   8.930
46541SOL    HW141520   2.706   2.562   9.001
46541SOL    HW241521   2.700   2.708   8.963
46542SOL     OW41522  14.438   0.856   0.429
46542SOL    HW141523  14.400   0.816   0.507
46542SOL    HW241524  14.374   0.922   0.402
46543SOL     OW41525   5.304  13.286   4.188
46543SOL    HW141526   5.314  13.371   4.144
46543SOL    HW241527   5.243  13.303   4.260
46544SOL     OW41528   7.930   9.361   5.219
46544SOL    HW141529   7.925   9.267   5.236
46544SOL    HW241530   7.840   9.392   5.229
46545SOL     OW41531   3.569   3.231   9.726
46545SOL    HW141532   3.632   3.194   9.789
46545SOL    HW241533   3.584   3.182   9.645
46546SOL     OW41534   2.774  11.262  13.418
46546SOL    HW141535   2.778  11.348  13.459
46546SOL    HW241536   2.808  11.202  13.485
46547SOL     OW41537  14.783  14.071   6.545
46547SOL    HW141538  14.831  14.003   6.496
46547SOL    HW241539  14.785  14.147   6.488
46548SOL     OW41540  11.877   4.864   5.288
46548SOL    HW141541  11.806   4.917   5.250
46548SOL    HW241542  11.953   4.922   5.285
46549SOL     OW41543   3.932   4.690   7.171
46549SOL    HW141544   4.021   4.662   7.150
46549SOL    HW241545   3.941   4.783   7.191
46550SOL     OW41546   9.637   8.898  14.856
46550SOL    HW141547   9.684   8.844  14.792
46550SOL    HW241548   9.561   8.846   0.011
46551SOL     OW41549   6.636   1.680   5.644
46551SOL    HW141550   6.683   1.612   5.693
46551SOL    HW241551   6.655   1.761   5.691
46552SOL     OW41552  13.446   1.535   6.036
46552SOL    HW141553  13.538   1.553   6.057
46552SOL    HW241554  13.400   1.615   6.058
46553SOL     OW41555   6.351   5.204  10.309
46553SOL    HW141556   6.325   5.289  10.274
46553SOL    HW241557   6.268   5.164  10.337
46554SOL     OW41558  11.576  13.612  11.609
46554SOL    HW141559  11.511  13.659  11.556
46554SOL    HW241560  11.583  13.527  11.567
46555SOL     OW41561   9.754   6.801  12.065
46555SOL    HW141562   9.802   6.884  12.060
46555SOL    HW241563   9.671   6.824  12.107
46556SOL     OW41564   1.354   7.767   4.361
46556SOL    HW141565   1.362   7.816   4.279
46556SOL    HW241566   1.347   7.834   4.429
46557SOL     OW41567   3.437  11.882   6.955
46557SOL    HW141568   3.522  11.858   6.919
46557SOL    HW241569   3.382  11.900   6.878
46558SOL     OW41570   8.235  11.904   1.953
46558SOL    HW141571   8.276  11.835   1.901
46558SOL    HW241572   8.301  11.972   1.960
46559SOL     OW41573  14.143  10.973  12.608
46559SOL    HW141574  14.080  11.034  12.569
46559SOL    HW241575  14.219  11.027  12.629
46560SOL     OW41576  11.843   4.115   0.919
46560SOL    HW141577  11.789   4.192   0.939
46560SOL    HW241578  11.824   4.097   0.827
46561SOL     OW41579   4.285   8.263   2.980
46561SOL    HW141580   4.279   8.264   3.076
46561SOL    HW241581   4.374   8.293   2.962
46562SOL     OW41582   5.038   0.118  12.751
46562SOL    HW141583   5.053   0.106  12.845
46562SOL    HW241584   4.959   0.172  12.747
46563SOL     OW41585  11.750   2.389   3.362
46563SOL    HW141586  11.684   2.346   3.308
46563SOL    HW241587  11.737   2.483   3.346
46564SOL     OW41588   5.174   2.373   9.258
46564SOL    HW141589   5.257   2.324   9.255
46564SOL    HW241590   5.120   2.324   9.320
46565SOL     OW41591  12.057   4.412   5.379
46565SOL    HW141592  12.067   4.495   5.331
46565SOL    HW241593  12.029   4.350   5.312
46566SOL     OW41594   5.424   2.216   1.482
46566SOL    HW141595   5.378   2.228   1.399
46566SOL    HW241596   5.516   2.209   1.457
46567SOL     OW41597  14.667  10.477   3.742
46567SOL    HW141598  14.679  10.452   3.650
46567SOL    HW241599  14.660  10.394   3.789
46568SOL     OW41600   2.393  13.957   2.109
46568SOL    HW141601   2.372  14.025   2.045
46568SOL    HW241602   2.310  13.912   2.125
46569SOL     OW41603   4.215   8.288  14.094
46569SOL    HW141604   4.180   8.314  14.008
46569SOL    HW241605   4.310   8.294  14.084
46570SOL     OW41606   6.192  14.725   3.671
46570SOL    HW141607   6.244  14.731   3.751
46570SOL    HW241608   6.197  14.633   3.645
46571SOL     OW41609   1.995   6.918  10.644
46571SOL    HW141610   1.941   6.912  10.722
46571SOL    HW241611   2.082   6.942  10.676
46572SOL     OW41612  11.953   7.592   8.301
46572SOL    HW141613  11.875   7.590   8.245
46572SOL    HW241614  12.022   7.627   8.245
46573SOL     OW41615   8.503   5.552   7.275
46573SOL    HW141616   8.439   5.485   7.251
46573SOL    HW241617   8.457   5.608   7.338
46574SOL     OW41618   8.690   4.096   3.217
46574SOL    HW141619   8.710   4.141   3.135
46574SOL    HW241620   8.757   4.028   3.225
46575SOL     OW41621   5.665  13.742  10.279
46575SOL    HW141622   5.743  13.718  10.329
46575SOL    HW241623   5.651  13.669  10.219
46576SOL     OW41624   1.631  12.222  10.939
46576SOL    HW141625   1.595  12.261  11.019
46576SOL    HW241626   1.555  12.191  10.891
46577SOL     OW41627   8.215  12.276   4.389
46577SOL    HW141628   8.143  12.243   4.443
46577SOL    HW241629   8.176  12.288   4.303
46578SOL     OW41630   0.161   2.838  10.429
46578SOL    HW141631   0.252   2.832  10.398
46578SOL    HW241632   0.168   2.839  10.524
46579SOL     OW41633   5.698   0.406   5.340
46579SOL    HW141634   5.645   0.329   5.360
46579SOL    HW241635   5.721   0.396   5.248
46580SOL     OW41636   6.114  11.565  13.549
46580SOL    HW141637   6.191  11.529  13.505
46580SOL    HW241638   6.140  11.654  13.575
46581SOL     OW41639   3.753   5.402   8.754
46581SOL    HW141640   3.729   5.395   8.661
46581SOL    HW241641   3.837   5.356   8.761
46582SOL     OW41642  12.049   1.469   5.434
46582SOL    HW141643  11.986   1.536   5.407
46582SOL    HW241644  12.122   1.518   5.472
46583SOL     OW41645   8.404  12.486   5.509
46583SOL    HW141646   8.445  12.560   5.463
46583SOL    HW241647   8.371  12.523   5.590
46584SOL     OW41648   4.441   6.945   8.406
46584SOL    HW141649   4.375   6.889   8.363
46584SOL    HW241650   4.500   6.884   8.449
46585SOL     OW41651  10.941   3.505   5.046
46585SOL    HW141652  10.912   3.424   5.086
46585SOL    HW241653  10.976   3.557   5.119
46586SOL     OW41654   0.239  10.719   7.081
46586SOL    HW141655   0.281  10.801   7.109
46586SOL    HW241656   0.192  10.688   7.158
46587SOL     OW41657  13.312   2.907   4.620
46587SOL    HW141658  13.220   2.884   4.606
46587SOL    HW241659  13.358   2.869   4.546
46588SOL     OW41660   7.290   2.273   9.971
46588SOL    HW141661   7.205   2.289  10.010
46588SOL    HW241662   7.303   2.178   9.980
46589SOL     OW41663   6.643   5.138   0.630
46589SOL    HW141664   6.587   5.093   0.693
46589SOL    HW241665   6.653   5.075   0.558
46590SOL     OW41666  12.257   0.227   6.105
46590SOL    HW141667  12.294   0.208   6.019
46590SOL    HW241668  12.173   0.269   6.086
46591SOL     OW41669  14.122  14.564  13.380
46591SOL    HW141670  14.155  14.516  13.304
46591SOL    HW241671  14.169  14.527  13.454
46592SOL     OW41672   2.085  14.706   4.597
46592SOL    HW141673   2.072  14.654   4.518
46592SOL    HW241674   1.998  14.742   4.616
46593SOL     OW41675  14.646   7.559   3.795
46593SOL    HW141676  14.640   7.489   3.861
46593SOL    HW241677  14.727   7.604   3.816
46594SOL     OW41678  12.165  11.162  13.926
46594SOL    HW141679  12.142  11.072  13.905
46594SOL    HW241680  12.085  11.199  13.963
46595SOL     OW41681   3.220   0.842   1.538
46595SOL    HW141682   3.294   0.863   1.482
46595SOL    HW241683   3.246   0.872   1.625
46596SOL     OW41684   3.335   5.960   1.178
46596SOL    HW141685   3.257   6.016   1.172
46596SOL    HW241686   3.354   5.955   1.271
46597SOL     OW41687   9.334  11.009   4.275
46597SOL    HW141688   9.398  11.029   4.206
46597SOL    HW241689   9.363  10.925   4.311
46598SOL     OW41690  11.832   6.887   5.006
46598SOL    HW141691  11.828   6.960   5.067
46598SOL    HW241692  11.829   6.927   4.919
46599SOL     OW41693   3.523  12.544   7.457
46599SOL    HW141694   3.506  12.459   7.499
46599SOL    HW241695   3.618  12.554   7.462
46600SOL     OW41696  13.586  11.147   0.994
46600SOL    HW141697  13.552  11.058   0.991
46600SOL    HW241698  13.585  11.170   1.087
46601SOL     OW41699  11.587   1.627   8.376
46601SOL    HW141700  11.510   1.680   8.355
46601SOL    HW241701  11.554   1.554   8.427
46602SOL     OW41702   7.860  12.012   0.248
46602SOL    HW141703   7.935  11.954   0.263
46602SOL    HW241704   7.793  11.980   0.308
46603SOL     OW41705   7.283   9.948   4.914
46603SOL    HW141706   7.199   9.955   4.960
46603SOL    HW241707   7.268   9.882   4.847
46604SOL     OW41708   7.870  11.962   1.059
46604SOL    HW141709   7.832  12.032   1.111
46604SOL    HW241710   7.907  11.901   1.122
46605SOL     OW41711  10.847   7.850  13.570
46605SOL    HW141712  10.941   7.852  13.553
46605SOL    HW241713  10.809   7.815  13.490
46606SOL     OW41714   1.024   6.419  10.215
46606SOL    HW141715   1.001   6.327  10.202
46606SOL    HW241716   1.103   6.431  10.163
46607SOL     OW41717   1.983   5.002  10.305
46607SOL    HW141718   1.937   4.923  10.275
46607SOL    HW241719   2.070   4.996  10.265
46608SOL     OW41720   0.477   2.214   8.908
46608SOL    HW141721   0.427   2.133   8.894
46608SOL    HW241722   0.522   2.199   8.992
46609SOL     OW41723  13.916   7.752  10.043
46609SOL    HW141724  13.866   7.825  10.080
46609SOL    HW241725  13.872   7.674  10.077
46610SOL     OW41726  10.543  14.599   7.329
46610SOL    HW141727  10.603  14.588   7.255
46610SOL    HW241728  10.548  14.692   7.351
46611SOL     OW41729   9.475   2.014   7.140
46611SOL    HW141730   9.559   1.995   7.099
46611SOL    HW241731   9.485   2.101   7.179
46612SOL     OW41732  14.023  14.783   5.457
46612SOL    HW141733  13.972  14.708   5.486
46612SOL    HW241734  13.989  14.857   5.506
46613SOL     OW41735  12.910  14.662   0.666
46613SOL    HW141736  12.924  14.639   0.575
46613SOL    HW241737  12.995  14.692   0.697
46614SOL     OW41738   3.812  13.037   9.442
46614SOL    HW141739   3.794  12.996   9.527
46614SOL    HW241740   3.751  12.995   9.382
46615SOL     OW41741   7.490  11.061   0.072
46615SOL    HW141742   7.439  11.116   0.013
46615SOL    HW241743   7.500  10.978   0.025
46616SOL     OW41744   3.671  14.653  12.873
46616SOL    HW141745   3.764  14.655  12.896
46616SOL    HW241746   3.635  14.579  12.922
46617SOL     OW41747   9.392  10.622  14.141
46617SOL    HW141748   9.440  10.703  14.126
46617SOL    HW241749   9.457  10.553  14.124
46618SOL     OW41750   2.614  14.105   4.861
46618SOL    HW141751   2.518  14.095   4.863
46618SOL    HW241752   2.634  14.124   4.770
46619SOL     OW41753   3.057   9.348   2.133
46619SOL    HW141754   3.083   9.375   2.045
46619SOL    HW241755   2.963   9.366   2.137
46620SOL     OW41756   4.955   1.984   1.356
46620SOL    HW141757   4.997   1.947   1.278
46620SOL    HW241758   4.886   1.922   1.379
46621SOL     OW41759  10.565  11.546   5.702
46621SOL    HW141760  10.516  11.626   5.682
46621SOL    HW241761  10.529  11.480   5.641
46622SOL     OW41762   7.027   0.376   1.576
46622SOL    HW141763   6.969   0.435   1.623
46622SOL    HW241764   7.115   0.411   1.593
46623SOL     OW41765   9.865  14.732   2.831
46623SOL    HW141766   9.912  14.801   2.785
46623SOL    HW241767   9.773  14.758   2.826
46624SOL     OW41768   3.633   5.617   6.838
46624SOL    HW141769   3.606   5.626   6.929
46624SOL    HW241770   3.728   5.625   6.840
46625SOL     OW41771   5.837  11.526   3.294
46625SOL    HW141772   5.807  11.613   3.320
46625SOL    HW241773   5.917  11.542   3.245
46626SOL     OW41774  10.537   8.352  12.340
46626SOL    HW141775  10.584   8.426  12.378
46626SOL    HW241776  10.587   8.329  12.262
46627SOL     OW41777   4.216  14.618   7.327
46627SOL    HW141778   4.272  14.595   7.402
46627SOL    HW241779   4.263  14.584   7.251
46628SOL     OW41780  10.388  11.911  13.241
46628SOL    HW141781  10.447  11.913  13.316
46628SOL    HW241782  10.400  11.996  13.198
46629SOL     OW41783  14.494  11.044   2.044
46629SOL    HW141784  14.533  11.088   1.969
46629SOL    HW241785  14.551  11.066   2.117
46630SOL     OW41786   0.342   8.745   3.631
46630SOL    HW141787   0.368   8.689   3.557
46630SOL    HW241788   0.252   8.720   3.649
46631SOL     OW41789   5.435  14.753   0.063
46631SOL    HW141790   5.505  14.743  14.868
46631SOL    HW241791   5.403  14.842   0.052
46632SOL     OW41792   3.793   1.918  14.127
46632SOL    HW141793   3.769   1.853  14.192
46632SOL    HW241794   3.884   1.898  14.104
46633SOL     OW41795  10.462   9.678   3.480
46633SOL    HW141796  10.431   9.767   3.495
46633SOL    HW241797  10.383   9.627   3.463
46634SOL     OW41798   9.412   8.133  14.445
46634SOL    HW141799   9.411   8.228  14.435
46634SOL    HW241800   9.328   8.104  14.408
46635SOL     OW41801   5.685   5.628  11.635
46635SOL    HW141802   5.665   5.702  11.693
46635SOL    HW241803   5.607   5.574  11.638
46636SOL     OW41804  12.250  14.182   7.073
46636SOL    HW141805  12.341  14.164   7.049
46636SOL    HW241806  12.203  14.183   6.989
46637SOL     OW41807  12.849  12.114   8.581
46637SOL    HW141808  12.784  12.118   8.651
46637SOL    HW241809  12.798  12.129   8.501
46638SOL     OW41810  13.209   2.080   9.945
46638SOL    HW141811  13.121   2.062   9.979
46638SOL    HW241812  13.208   2.173   9.924
46639SOL     OW41813   4.991  14.221  13.818
46639SOL    HW141814   4.952  14.173  13.891
46639SOL    HW241815   5.069  14.169  13.795
46640SOL     OW41816   6.242   6.600   9.546
46640SOL    HW141817   6.275   6.564   9.463
46640SOL    HW241818   6.261   6.533   9.611
46641SOL     OW41819  11.044   6.540  11.289
46641SOL    HW141820  11.078   6.485  11.359
46641SOL    HW241821  11.088   6.624  11.301
46642SOL     OW41822   7.548   5.475   9.560
46642SOL    HW141823   7.495   5.552   9.541
46642SOL    HW241824   7.575   5.442   9.474
46643SOL     OW41825   3.242   1.626   1.762
46643SOL    HW141826   3.232   1.712   1.804
46643SOL    HW241827   3.159   1.582   1.777
46644SOL     OW41828   0.489   0.420   7.386
46644SOL    HW141829   0.421   0.368   7.341
46644SOL    HW241830   0.496   0.500   7.334
46645SOL     OW41831  12.934   8.744   2.352
46645SOL    HW141832  13.004   8.718   2.292
46645SOL    HW241833  12.854   8.707   2.315
46646SOL     OW41834   3.707  11.486   3.960
46646SOL    HW141835   3.778  11.550   3.955
46646SOL    HW241836   3.730  11.420   3.894
46647SOL     OW41837   3.607   8.258   2.721
46647SOL    HW141838   3.578   8.167   2.708
46647SOL    HW241839   3.687   8.265   2.669
46648SOL     OW41840   9.319   1.415   8.837
46648SOL    HW141841   9.274   1.483   8.887
46648SOL    HW241842   9.249   1.355   8.809
46649SOL     OW41843   2.683  13.144  10.865
46649SOL    HW141844   2.646  13.075  10.920
46649SOL    HW241845   2.679  13.223  10.920
46650SOL     OW41846  12.874   1.982  11.688
46650SOL    HW141847  12.868   1.997  11.593
46650SOL    HW241848  12.935   1.909  11.697
46651SOL     OW41849  11.812   0.690   0.961
46651SOL    HW141850  11.737   0.739   0.995
46651SOL    HW241851  11.882   0.705   1.025
46652SOL     OW41852   8.316   9.822  13.806
46652SOL    HW141853   8.366   9.814  13.887
46652SOL    HW241854   8.227   9.841  13.834
46653SOL     OW41855   0.667  14.128  14.388
46653SOL    HW141856   0.616  14.209  14.392
46653SOL    HW241857   0.626  14.076  14.320
46654SOL     OW41858   2.404  11.342  11.819
46654SOL    HW141859   2.410  11.257  11.775
46654SOL    HW241860   2.321  11.339  11.866
46655SOL     OW41861  13.744   0.142   3.878
46655SOL    HW141862  13.826   0.137   3.927
46655SOL    HW241863  13.695   0.213   3.920
46656SOL     OW41864  14.163  10.646   3.627
46656SOL    HW141865  14.174  10.564   3.579
46656SOL    HW241866  14.221  10.636   3.703
46657SOL     OW41867   1.212   1.781  14.687
46657SOL    HW141868   1.268   1.703  14.686
46657SOL    HW241869   1.273   1.855  14.688
46658SOL     OW41870   6.528  11.309   6.137
46658SOL    HW141871   6.540  11.332   6.045
46658SOL    HW241872   6.475  11.380   6.173
46659SOL     OW41873   7.374  13.222   1.574
46659SOL    HW141874   7.307  13.207   1.507
46659SOL    HW241875   7.337  13.289   1.631
46660SOL     OW41876  12.578   6.480   3.937
46660SOL    HW141877  12.551   6.564   3.901
46660SOL    HW241878  12.499   6.426   3.936
46661SOL     OW41879   8.127   8.792   6.147
46661SOL    HW141880   8.208   8.749   6.176
46661SOL    HW241881   8.092   8.734   6.080
46662SOL     OW41882   7.132   7.996  14.188
46662SOL    HW141883   7.121   8.082  14.228
46662SOL    HW241884   7.134   8.012  14.094
46663SOL     OW41885   4.883   8.934   5.721
46663SOL    HW141886   4.910   8.881   5.646
46663SOL    HW241887   4.965   8.961   5.762
46664SOL     OW41888  12.780   2.705   7.066
46664SOL    HW141889  12.693   2.746   7.065
46664SOL    HW241890  12.841   2.777   7.046
46665SOL     OW41891   5.874   2.378   6.010
46665SOL    HW141892   5.874   2.350   5.918
46665SOL    HW241893   5.803   2.329   6.050
46666SOL     OW41894   4.832   9.364   1.072
46666SOL    HW141895   4.825   9.268   1.074
46666SOL    HW241896   4.888   9.382   0.997
46667SOL     OW41897   1.950  12.627  14.456
46667SOL    HW141898   1.963  12.718  14.483
46667SOL    HW241899   1.991  12.622  14.370
46668SOL     OW41900  10.203  14.444   8.150
46668SOL    HW141901  10.247  14.456   8.234
46668SOL    HW241902  10.253  14.498   8.088
46669SOL     OW41903  10.919  12.940   9.393
46669SOL    HW141904  10.946  12.857   9.355
46669SOL    HW241905  10.841  12.918   9.445
46670SOL     OW41906   0.114   6.406   7.643
46670SOL    HW141907   0.129   6.336   7.706
46670SOL    HW241908   0.097   6.484   7.696
46671SOL     OW41909   2.196   1.471  14.664
46671SOL    HW141910   2.264   1.504  14.606
46671SOL    HW241911   2.235   1.475  14.752
46672SOL     OW41912   3.435   2.760  14.143
46672SOL    HW141913   3.527   2.751  14.170
46672SOL    HW241914   3.431   2.717  14.058
46673SOL     OW41915   6.936   9.802   7.126
46673SOL    HW141916   6.965   9.760   7.207
46673SOL    HW241917   6.975   9.889   7.128
46674SOL     OW41918   0.786   1.947   4.970
46674SOL    HW141919   0.707   1.998   4.984
46674SOL    HW241920   0.757   1.871   4.919
46675SOL     OW41921  13.772   5.156   5.248
46675SOL    HW141922  13.864   5.170   5.225
46675SOL    HW241923  13.724   5.186   5.170
46676SOL     OW41924   0.510  12.225   1.336
46676SOL    HW141925   0.602  12.233   1.311
46676SOL    HW241926   0.462  12.241   1.254
46677SOL     OW41927  13.827   1.881   3.657
46677SOL    HW141928  13.785   1.870   3.742
46677SOL    HW241929  13.919   1.859   3.673
46678SOL     OW41930  14.649   6.351   7.032
46678SOL    HW141931  14.743   6.346   7.049
46678SOL    HW241932  14.634   6.284   6.965
46679SOL     OW41933  10.162   7.787  10.049
46679SOL    HW141934  10.160   7.760  10.141
46679SOL    HW241935  10.179   7.706  10.001
46680SOL     OW41936   4.600   5.356   7.785
46680SOL    HW141937   4.608   5.450   7.804
46680SOL    HW241938   4.621   5.348   7.692
46681SOL     OW41939   3.807   4.897   1.256
46681SOL    HW141940   3.784   4.805   1.248
46681SOL    HW241941   3.771   4.924   1.340
46682SOL     OW41942   6.353  12.948  11.903
46682SOL    HW141943   6.376  12.991  11.985
46682SOL    HW241944   6.283  12.887  11.926
46683SOL     OW41945  11.807   4.507   7.904
46683SOL    HW141946  11.850   4.464   7.830
46683SOL    HW241947  11.879   4.548   7.953
46684SOL     OW41948   6.523   1.981   4.895
46684SOL    HW141949   6.615   2.003   4.903
46684SOL    HW241950   6.517   1.934   4.812
46685SOL     OW41951   8.349  11.342   9.032
46685SOL    HW141952   8.322  11.323   8.942
46685SOL    HW241953   8.346  11.437   9.038
46686SOL     OW41954   5.844   7.241   3.450
46686SOL    HW141955   5.801   7.204   3.373
46686SOL    HW241956   5.851   7.167   3.511
46687SOL     OW41957   2.152   9.016   2.487
46687SOL    HW141958   2.057   9.006   2.488
46687SOL    HW241959   2.178   8.991   2.398
46688SOL     OW41960   6.976   4.770   8.216
46688SOL    HW141961   6.886   4.799   8.234
46688SOL    HW241962   7.014   4.756   8.302
46689SOL     OW41963  11.254   0.535   5.273
46689SOL    HW141964  11.321   0.553   5.207
46689SOL    HW241965  11.177   0.582   5.242
46690SOL     OW41966   0.139  14.232   5.848
46690SOL    HW141967   0.139  14.147   5.804
46690SOL    HW241968   0.107  14.293   5.781
46691SOL     OW41969   4.903   1.539   0.329
46691SOL    HW141970   4.928   1.508   0.242
46691SOL    HW241971   4.876   1.629   0.316
46692SOL     OW41972   1.461   5.054   8.111
46692SOL    HW141973   1.472   5.044   8.016
46692SOL    HW241974   1.404   5.130   8.120
46693SOL     OW41975   9.509   2.680   4.406
46693SOL    HW141976   9.502   2.709   4.498
46693SOL    HW241977   9.603   2.678   4.389
46694SOL     OW41978   0.566  13.709  12.117
46694SOL    HW141979   0.507  13.783  12.103
46694SOL    HW241980   0.652  13.741  12.090
46695SOL     OW41981   2.933   4.131  10.487
46695SOL    HW141982   2.889   4.188  10.424
46695SOL    HW241983   3.026   4.139  10.466
46696SOL     OW41984  11.591  11.359   1.964
46696SOL    HW141985  11.584  11.265   1.951
46696SOL    HW241986  11.672  11.371   2.013
46697SOL     OW41987  11.267  10.643   9.550
46697SOL    HW141988  11.202  10.680   9.610
46697SOL    HW241989  11.236  10.670   9.463
46698SOL     OW41990   6.020  13.453   2.169
46698SOL    HW141991   6.070  13.455   2.087
46698SOL    HW241992   5.930  13.471   2.142
46699SOL     OW41993  13.173   8.057   7.396
46699SOL    HW141994  13.184   7.961   7.399
46699SOL    HW241995  13.218   8.088   7.474
46700SOL     OW41996  10.933  13.302   0.705
46700SOL    HW141997  11.009  13.341   0.748
46700SOL    HW241998  10.863  13.306   0.771
46701SOL     OW41999   8.243  13.291   8.687
46701SOL    HW142000   8.190  13.370   8.697
46701SOL    HW242001   8.184  13.219   8.711
46702SOL     OW42002   7.622   7.129   0.524
46702SOL    HW142003   7.703   7.172   0.549
46702SOL    HW242004   7.642   7.035   0.529
46703SOL     OW42005   5.554  14.338   3.354
46703SOL    HW142006   5.604  14.327   3.435
46703SOL    HW242007   5.491  14.407   3.373
46704SOL     OW42008  11.203  11.576  13.338
46704SOL    HW142009  11.275  11.585  13.401
46704SOL    HW242010  11.145  11.650  13.358
46705SOL     OW42011   8.777   6.131   7.046
46705SOL    HW142012   8.755   6.163   6.959
46705SOL    HW242013   8.820   6.204   7.089
46706SOL     OW42014   6.926  11.180   9.049
46706SOL    HW142015   6.874  11.256   9.076
46706SOL    HW242016   6.935  11.191   8.954
46707SOL     OW42017   2.747  14.400  11.808
46707SOL    HW142018   2.689  14.458  11.857
46707SOL    HW242019   2.818  14.379  11.869
46708SOL     OW42020   0.513   5.264   2.698
46708SOL    HW142021   0.533   5.335   2.759
46708SOL    HW242022   0.444   5.213   2.742
46709SOL     OW42023   7.461   7.428  12.181
46709SOL    HW142024   7.509   7.509  12.193
46709SOL    HW242025   7.503   7.365  12.240
46710SOL     OW42026   0.746   3.462  10.855
46710SOL    HW142027   0.679   3.405  10.893
46710SOL    HW242028   0.788   3.503  10.931
46711SOL     OW42029  10.989   4.867   8.172
46711SOL    HW142030  10.961   4.958   8.181
46711SOL    HW242031  11.012   4.840   8.261
46712SOL     OW42032  13.292   5.038  12.776
46712SOL    HW142033  13.313   4.953  12.815
46712SOL    HW242034  13.198   5.049  12.792
46713SOL     OW42035  13.600  13.142  14.058
46713SOL    HW142036  13.564  13.143  13.969
46713SOL    HW242037  13.691  13.115  14.046
46714SOL     OW42038  12.360   2.167  10.237
46714SOL    HW142039  12.304   2.104  10.191
46714SOL    HW242040  12.388   2.122  10.316
46715SOL     OW42041   6.382   6.602   7.731
46715SOL    HW142042   6.409   6.537   7.796
46715SOL    HW242043   6.310   6.650   7.774
46716SOL     OW42044  11.385  13.931   1.384
46716SOL    HW142045  11.305  13.883   1.365
46716SOL    HW242046  11.375  13.960   1.475
46717SOL     OW42047  10.910   8.843   7.387
46717SOL    HW142048  10.969   8.786   7.338
46717SOL    HW242049  10.938   8.932   7.363
46718SOL     OW42050   1.698   9.651   8.776
46718SOL    HW142051   1.782   9.621   8.739
46718SOL    HW242052   1.632   9.607   8.723
46719SOL     OW42053   4.886  14.434  10.551
46719SOL    HW142054   4.868  14.496  10.480
46719SOL    HW242055   4.974  14.458  10.582
46720SOL     OW42056   3.765   0.104   5.892
46720SOL    HW142057   3.814   0.059   5.961
46720SOL    HW242058   3.700   0.156   5.939
46721SOL     OW42059   9.852   2.528   4.088
46721SOL    HW142060   9.947   2.518   4.080
46721SOL    HW242061   9.825   2.564   4.003
46722SOL     OW42062   1.076   0.983  13.164
46722SOL    HW142063   1.128   0.922  13.112
46722SOL    HW242064   1.115   0.980  13.252
46723SOL     OW42065  12.056   4.439   4.384
46723SOL    HW142066  11.982   4.453   4.325
46723SOL    HW242067  12.016   4.433   4.471
46724SOL     OW42068  12.758   3.042  10.357
46724SOL    HW142069  12.699   3.080  10.293
46724SOL    HW242070  12.700   2.995  10.418
46725SOL     OW42071   7.194  13.799   0.362
46725SOL    HW142072   7.181  13.759   0.448
46725SOL    HW242073   7.181  13.892   0.377
46726SOL     OW42074   9.344   9.721  11.203
46726SOL    HW142075   9.271   9.701  11.261
46726SOL    HW242076   9.417   9.740  11.263
46727SOL     OW42077   1.390   2.533   1.381
46727SOL    HW142078   1.294   2.532   1.374
46727SOL    HW242079   1.420   2.509   1.294
46728SOL     OW42080   1.385   7.778  14.101
46728SOL    HW142081   1.474   7.769  14.133
46728SOL    HW242082   1.384   7.860  14.053
46729SOL     OW42083   0.086   4.071   9.486
46729SOL    HW142084  14.864   4.097   9.482
46729SOL    HW242085   0.112   4.060   9.395
46730SOL     OW42086   3.625   4.077   2.157
46730SOL    HW142087   3.695   4.135   2.127
46730SOL    HW242088   3.664   3.990   2.156
46731SOL     OW42089   3.834  14.126   1.023
46731SOL    HW142090   3.883  14.195   0.979
46731SOL    HW242091   3.839  14.148   1.116
46732SOL     OW42092   5.873   4.284  13.788
46732SOL    HW142093   5.878   4.199  13.746
46732SOL    HW242094   5.888   4.347  13.717
46733SOL     OW42095  11.756   6.339   9.552
46733SOL    HW142096  11.815   6.362   9.623
46733SOL    HW242097  11.801   6.268   9.506
46734SOL     OW42098   5.867  12.032   8.244
46734SOL    HW142099   5.849  12.022   8.338
46734SOL    HW242100   5.781  12.042   8.204
46735SOL     OW42101   5.985   3.701   3.887
46735SOL    HW142102   6.013   3.620   3.843
46735SOL    HW242103   5.893   3.686   3.907
46736SOL     OW42104   6.859  13.847   2.470
46736SOL    HW142105   6.900  13.904   2.535
46736SOL    HW242106   6.880  13.758   2.499
46737SOL     OW42107   3.173  11.244  11.133
46737SOL    HW142108   3.228  11.321  11.139
46737SOL    HW242109   3.140  11.231  11.222
46738SOL     OW42110   8.323   6.817   8.861
46738SOL    HW142111   8.322   6.883   8.791
46738SOL    HW242112   8.379   6.855   8.929
46739SOL     OW42113  12.005  14.041   8.779
46739SOL    HW142114  11.939  13.978   8.809
46739SOL    HW242115  12.027  14.091   8.856
46740SOL     OW42116   7.444   2.405   7.412
46740SOL    HW142117   7.410   2.401   7.501
46740SOL    HW242118   7.533   2.441   7.421
46741SOL     OW42119   7.714   1.573   0.913
46741SOL    HW142120   7.664   1.640   0.867
46741SOL    HW242121   7.653   1.500   0.923
46742SOL     OW42122   3.166  10.422   7.055
46742SOL    HW142123   3.072  10.425   7.072
46742SOL    HW242124   3.190  10.330   7.066
46743SOL     OW42125   2.745   2.675   1.867
46743SOL    HW142126   2.664   2.726   1.856
46743SOL    HW242127   2.724   2.612   1.936
46744SOL     OW42128   5.708  13.925   2.207
46744SOL    HW142129   5.772  13.987   2.240
46744SOL    HW242130   5.662  13.971   2.137
46745SOL     OW42131   8.186   7.403   9.999
46745SOL    HW142132   8.184   7.496  10.022
46745SOL    HW242133   8.266   7.370  10.039
46746SOL     OW42134   8.459   5.148   1.752
46746SOL    HW142135   8.398   5.187   1.689
46746SOL    HW242136   8.536   5.127   1.700
46747SOL     OW42137   5.312   6.960  12.863
46747SOL    HW142138   5.403   6.970  12.891
46747SOL    HW242139   5.274   7.047  12.874
46748SOL     OW42140  14.180  11.090  11.987
46748SOL    HW142141  14.254  11.032  12.003
46748SOL    HW242142  14.109  11.032  11.960
46749SOL     OW42143   0.396   5.347  12.543
46749SOL    HW142144   0.307   5.363  12.512
46749SOL    HW242145   0.386   5.283  12.613
46750SOL     OW42146  12.581  14.488   9.485
46750SOL    HW142147  12.522  14.456   9.553
46750SOL    HW242148  12.594  14.581   9.505
46751SOL     OW42149   7.744  10.647  12.353
46751SOL    HW142150   7.784  10.616  12.272
46751SOL    HW242151   7.760  10.578  12.416
46752SOL     OW42152  14.256   7.753   1.287
46752SOL    HW142153  14.260   7.725   1.378
46752SOL    HW242154  14.293   7.680   1.238
46753SOL     OW42155   5.846   3.253  11.806
46753SOL    HW142156   5.913   3.185  11.808
46753SOL    HW242157   5.894   3.335  11.812
46754SOL     OW42158   1.412   9.127   4.096
46754SOL    HW142159   1.451   9.077   4.168
46754SOL    HW242160   1.333   9.079   4.074
46755SOL     OW42161   0.731   9.932   7.541
46755SOL    HW142162   0.771  10.012   7.576
46755SOL    HW242163   0.644   9.960   7.511
46756SOL     OW42164   8.109  11.851   2.794
46756SOL    HW142165   8.093  11.887   2.707
46756SOL    HW242166   8.204  11.837   2.797
46757SOL     OW42167  11.175   4.925  12.769
46757SOL    HW142168  11.257   4.965  12.799
46757SOL    HW242169  11.171   4.841  12.814
46758SOL     OW42170   4.939   1.749   7.945
46758SOL    HW142171   4.928   1.729   7.852
46758SOL    HW242172   4.893   1.678   7.990
46759SOL     OW42173   1.020   2.176  14.035
46759SOL    HW142174   1.019   2.085  14.063
46759SOL    HW242175   1.111   2.193  14.010
46760SOL     OW42176   0.686   6.299   1.439
46760SOL    HW142177   0.775   6.304   1.474
46760SOL    HW242178   0.684   6.217   1.390
46761SOL     OW42179   6.964   7.508   1.198
46761SOL    HW142180   7.051   7.546   1.205
46761SOL    HW242181   6.964   7.435   1.259
46762SOL     OW42182  14.685   7.113   8.362
46762SOL    HW142183  14.767   7.063   8.364
46762SOL    HW242184  14.641   7.081   8.283
46763SOL     OW42185  11.229   9.636   8.846
46763SOL    HW142186  11.224   9.722   8.886
46763SOL    HW242187  11.290   9.647   8.773
46764SOL     OW42188  12.332   0.839   4.357
46764SOL    HW142189  12.307   0.926   4.325
46764SOL    HW242190  12.254   0.785   4.343
46765SOL     OW42191   2.445  10.194   1.955
46765SOL    HW142192   2.496  10.182   1.875
46765SOL    HW242193   2.354  10.189   1.928
46766SOL     OW42194   6.034   3.134   0.658
46766SOL    HW142195   6.019   3.209   0.716
46766SOL    HW242196   5.947   3.110   0.628
46767SOL     OW42197   3.001   2.330  13.312
46767SOL    HW142198   3.056   2.383  13.255
46767SOL    HW242199   3.042   2.336  13.398
46768SOL     OW42200   0.267   5.695   0.551
46768SOL    HW142201   0.252   5.615   0.500
46768SOL    HW242202   0.188   5.704   0.604
46769SOL     OW42203   8.241   6.146  12.327
46769SOL    HW142204   8.244   6.087  12.402
46769SOL    HW242205   8.147   6.158  12.309
46770SOL     OW42206   9.337   4.278  10.637
46770SOL    HW142207   9.422   4.248  10.669
46770SOL    HW242208   9.298   4.201  10.596
46771SOL     OW42209   8.947   8.861   7.427
46771SOL    HW142210   8.965   8.770   7.451
46771SOL    HW242211   8.964   8.864   7.333
46772SOL     OW42212   4.294   4.663  12.547
46772SOL    HW142213   4.231   4.720  12.591
46772SOL    HW242214   4.273   4.672  12.454
46773SOL     OW42215   4.836  14.689  13.936
46773SOL    HW142216   4.811  14.773  13.897
46773SOL    HW242217   4.764  14.669  13.996
46774SOL     OW42218   9.573   4.120  14.178
46774SOL    HW142219   9.528   4.202  14.195
46774SOL    HW242220   9.575   4.076  14.263
46775SOL     OW42221   2.708   1.748  10.134
46775SOL    HW142222   2.775   1.687  10.105
46775SOL    HW242223   2.688   1.722  10.224
46776SOL     OW42224   1.033   2.132   0.705
46776SOL    HW142225   1.010   2.193   0.635
46776SOL    HW242226   1.050   2.049   0.661
46777SOL     OW42227  10.762  13.870   4.865
46777SOL    HW142228  10.785  13.794   4.812
46777SOL    HW242229  10.825  13.868   4.938
46778SOL     OW42230   8.841  10.909   6.188
46778SOL    HW142231   8.926  10.934   6.152
46778SOL    HW242232   8.860  10.881   6.277
46779SOL     OW42233  12.478   3.834   0.427
46779SOL    HW142234  12.439   3.768   0.369
46779SOL    HW242235  12.565   3.850   0.390
46780SOL     OW42236   6.732  12.375   8.637
46780SOL    HW142237   6.672  12.408   8.571
46780SOL    HW242238   6.787  12.451   8.659
46781SOL     OW42239   7.556   1.362  13.042
46781SOL    HW142240   7.606   1.430  12.996
46781SOL    HW242241   7.468   1.369  13.005
46782SOL     OW42242   4.755   6.486   6.046
46782SOL    HW142243   4.696   6.511   6.117
46782SOL    HW242244   4.835   6.457   6.091
46783SOL     OW42245   2.395  14.502   8.443
46783SOL    HW142246   2.335  14.574   8.466
46783SOL    HW242247   2.438  14.532   8.363
46784SOL     OW42248   1.152   1.874   2.055
46784SOL    HW142249   1.196   1.946   2.099
46784SOL    HW242250   1.060   1.901   2.050
46785SOL     OW42251  13.486   3.520   0.039
46785SOL    HW142252  13.461   3.537   0.130
46785SOL    HW242253  13.563   3.464   0.044
46786SOL     OW42254  12.165   4.633  12.719
46786SOL    HW142255  12.176   4.612  12.626
46786SOL    HW242256  12.105   4.708  12.720
46787SOL     OW42257   0.367  14.647   5.831
46787SOL    HW142258   0.302  14.586   5.866
46787SOL    HW242259   0.391  14.611   5.746
46788SOL     OW42260  12.969  12.432  11.093
46788SOL    HW142261  12.952  12.420  11.186
46788SOL    HW242262  13.050  12.483  11.089
46789SOL     OW42263  12.093   4.553   7.968
46789SOL    HW142264  12.143   4.491   8.021
46789SOL    HW242265  12.139   4.636   7.978
46790SOL     OW42266  11.284   3.162  11.256
46790SOL    HW142267  11.306   3.093  11.318
46790SOL    HW242268  11.226   3.221  11.304
46791SOL     OW42269   9.934   1.670  12.228
46791SOL    HW142270   9.986   1.667  12.308
46791SOL    HW242271   9.999   1.672  12.157
46792SOL     OW42272   6.208   0.138   1.735
46792SOL    HW142273   6.114   0.127   1.726
46792SOL    HW242274   6.245   0.053   1.713
46793SOL     OW42275  10.717   9.456   0.590
46793SOL    HW142276  10.629   9.417   0.592
46793SOL    HW242277  10.712   9.528   0.653
46794SOL     OW42278  14.857  13.761  12.516
46794SOL    HW142279  14.763  13.743  12.520
46794SOL    HW242280  14.864  13.856  12.524
46795SOL     OW42281  13.329   5.371   7.497
46795SOL    HW142282  13.364   5.297   7.447
46795SOL    HW242283  13.336   5.343   7.588
46796SOL     OW42284   8.737  10.728   1.187
46796SOL    HW142285   8.677  10.780   1.242
46796SOL    HW242286   8.705  10.638   1.198
46797SOL     OW42287   8.436   3.268   8.722
46797SOL    HW142288   8.355   3.316   8.706
46797SOL    HW242289   8.502   3.336   8.732
46798SOL     OW42290   6.934   7.567  12.691
46798SOL    HW142291   6.986   7.642  12.661
46798SOL    HW242292   6.884   7.601  12.765
46799SOL     OW42293   9.436  14.158  14.372
46799SOL    HW142294   9.372  14.185  14.306
46799SOL    HW242295   9.391  14.171  14.456
46800SOL     OW42296   1.218  10.846   5.953
46800SOL    HW142297   1.148  10.797   5.908
46800SOL    HW242298   1.293  10.787   5.951
46801SOL     OW42299  10.342   0.509   7.776
46801SOL    HW142300  10.376   0.443   7.835
46801SOL    HW242301  10.284   0.461   7.716
46802SOL     OW42302   2.585   9.383   9.770
46802SOL    HW142303   2.499   9.425   9.774
46802SOL    HW242304   2.617   9.386   9.860
46803SOL     OW42305   5.006   7.187   9.404
46803SOL    HW142306   4.977   7.236   9.482
46803SOL    HW242307   4.936   7.200   9.340
46804SOL     OW42308  11.899  13.782   4.153
46804SOL    HW142309  11.895  13.795   4.247
46804SOL    HW242310  11.827  13.722   4.134
46805SOL     OW42311   6.089  10.333   1.008
46805SOL    HW142312   6.179  10.334   1.039
46805SOL    HW242313   6.061  10.242   1.017
46806SOL     OW42314  10.735   2.105  12.095
46806SOL    HW142315  10.765   2.062  12.015
46806SOL    HW242316  10.652   2.146  12.071
46807SOL     OW42317   5.809   3.813   6.442
46807SOL    HW142318   5.730   3.858   6.471
46807SOL    HW242319   5.782   3.721   6.432
46808SOL     OW42320   9.502  11.518   4.690
46808SOL    HW142321   9.569  11.472   4.740
46808SOL    HW242322   9.527  11.505   4.599
46809SOL     OW42323  13.619  11.759   6.906
46809SOL    HW142324  13.566  11.718   6.837
46809SOL    HW242325  13.557  11.773   6.977
46810SOL     OW42326   5.456   0.871   5.965
46810SOL    HW142327   5.368   0.848   5.935
46810SOL    HW242328   5.455   0.852   6.059
46811SOL     OW42329  10.053   1.974  11.458
46811SOL    HW142330  10.099   2.031  11.520
46811SOL    HW242331  10.050   2.025  11.377
46812SOL     OW42332   0.362   5.470  12.984
46812SOL    HW142333   0.277   5.489  13.023
46812SOL    HW242334   0.367   5.530  12.909
46813SOL     OW42335  11.568  14.744   1.044
46813SOL    HW142336  11.509  14.703   0.981
46813SOL    HW242337  11.524  14.825   1.070
46814SOL     OW42338   1.879   9.918   2.552
46814SOL    HW142339   1.835   9.955   2.629
46814SOL    HW242340   1.970   9.907   2.579
46815SOL     OW42341   0.292   4.568  10.813
46815SOL    HW142342   0.296   4.536  10.723
46815SOL    HW242343   0.220   4.632  10.812
46816SOL     OW42344  11.956   6.639   3.882
46816SOL    HW142345  11.971   6.565   3.941
46816SOL    HW242346  12.009   6.710   3.917
46817SOL     OW42347   6.226   3.564  12.907
46817SOL    HW142348   6.242   3.488  12.851
46817SOL    HW242349   6.240   3.639  12.850
46818SOL     OW42350   1.940   3.989   8.545
46818SOL    HW142351   1.869   4.027   8.596
46818SOL    HW242352   1.897   3.940   8.476
46819SOL     OW42353   4.830  11.136  11.151
46819SOL    HW142354   4.783  11.189  11.216
46819SOL    HW242355   4.774  11.060  11.138
46820SOL     OW42356   4.533   6.382   3.782
46820SOL    HW142357   4.560   6.411   3.694
46820SOL    HW242358   4.468   6.446   3.810
46821SOL     OW42359   3.793   5.098   7.510
46821SOL    HW142360   3.750   5.032   7.565
46821SOL    HW242361   3.825   5.048   7.434
46822SOL     OW42362   9.803   5.059   4.223
46822SOL    HW142363   9.721   5.013   4.242
46822SOL    HW242364   9.788   5.100   4.138
46823SOL     OW42365  13.579   5.425   4.758
46823SOL    HW142366  13.575   5.521   4.758
46823SOL    HW242367  13.650   5.404   4.698
46824SOL     OW42368   4.014   7.765   0.118
46824SOL    HW142369   4.024   7.722   0.202
46824SOL    HW242370   3.989   7.694   0.058
46825SOL     OW42371   7.536  10.206   5.535
46825SOL    HW142372   7.629  10.187   5.522
46825SOL    HW242373   7.531  10.302   5.529
46826SOL     OW42374  12.430   5.170   6.850
46826SOL    HW142375  12.444   5.107   6.920
46826SOL    HW242376  12.463   5.253   6.886
46827SOL     OW42377  13.125  10.405   9.934
46827SOL    HW142378  13.143  10.312   9.945
46827SOL    HW242379  13.203  10.439   9.890
46828SOL     OW42380  10.467  13.926   1.503
46828SOL    HW142381  10.429  13.866   1.568
46828SOL    HW242382  10.420  14.008   1.516
46829SOL     OW42383  13.976  12.620   5.846
46829SOL    HW142384  13.885  12.626   5.817
46829SOL    HW242385  14.006  12.711   5.850
46830SOL     OW42386   2.869   7.502   6.272
46830SOL    HW142387   2.924   7.550   6.333
46830SOL    HW242388   2.863   7.414   6.308
46831SOL     OW42389  13.386  11.104  14.198
46831SOL    HW142390  13.364  11.019  14.238
46831SOL    HW242391  13.302  11.149  14.189
46832SOL     OW42392   9.858   2.385   7.992
46832SOL    HW142393   9.941   2.398   7.947
46832SOL    HW242394   9.869   2.304   8.041
46833SOL     OW42395   9.221   3.652   4.531
46833SOL    HW142396   9.181   3.694   4.607
46833SOL    HW242397   9.255   3.569   4.565
46834SOL     OW42398  13.984  10.594   1.505
46834SOL    HW142399  14.005  10.511   1.547
46834SOL    HW242400  13.939  10.568   1.424
46835SOL     OW42401   4.548   8.144   5.714
46835SOL    HW142402   4.537   8.095   5.796
46835SOL    HW242403   4.623   8.200   5.730
46836SOL     OW42404  13.660  11.250  13.956
46836SOL    HW142405  13.670  11.329  14.009
46836SOL    HW242406  13.566  11.239  13.946
46837SOL     OW42407   2.089   5.193   7.974
46837SOL    HW142408   2.078   5.098   7.971
46837SOL    HW242409   2.105   5.212   8.067
46838SOL     OW42410  13.061   3.646   6.202
46838SOL    HW142411  13.142   3.595   6.203
46838SOL    HW242412  13.069   3.702   6.125
46839SOL     OW42413  10.027   9.630   2.936
46839SOL    HW142414  10.016   9.536   2.955
46839SOL    HW242415  10.118   9.648   2.960
46840SOL     OW42416   9.004  11.652  10.116
46840SOL    HW142417   9.083  11.630  10.166
46840SOL    HW242418   9.025  11.734  10.072
46841SOL     OW42419   1.616   4.399   6.385
46841SOL    HW142420   1.610   4.321   6.439
46841SOL    HW242421   1.707   4.429   6.396
46842SOL     OW42422   1.667   8.374   6.212
46842SOL    HW142423   1.730   8.421   6.156
46842SOL    HW242424   1.631   8.307   6.155
46843SOL     OW42425   3.526   1.249  14.575
46843SOL    HW142426   3.498   1.316  14.637
46843SOL    HW242427   3.528   1.168  14.627
46844SOL     OW42428   2.551   9.843   8.783
46844SOL    HW142429   2.470   9.891   8.795
46844SOL    HW242430   2.528   9.751   8.800
46845SOL     OW42431  13.764   7.712   4.123
46845SOL    HW142432  13.681   7.692   4.080
46845SOL    HW242433  13.747   7.698   4.216
46846SOL     OW42434  12.684   1.587   6.627
46846SOL    HW142435  12.724   1.647   6.690
46846SOL    HW242436  12.590   1.592   6.645
46847SOL     OW42437   3.460   2.958  14.390
46847SOL    HW142438   3.533   2.899  14.372
46847SOL    HW242439   3.447   2.952  14.484
46848SOL     OW42440   9.295  12.432   0.044
46848SOL    HW142441   9.263  12.413  14.826
46848SOL    HW242442   9.386  12.404   0.043
46849SOL     OW42443   8.405  11.160  14.210
46849SOL    HW142444   8.453  11.090  14.255
46849SOL    HW242445   8.386  11.224  14.278
46850SOL     OW42446   4.067   0.662  14.249
46850SOL    HW142447   4.049   0.756  14.248
46850SOL    HW242448   4.035   0.633  14.335
46851SOL     OW42449   7.530   6.112   7.911
46851SOL    HW142450   7.477   6.080   7.838
46851SOL    HW242451   7.596   6.044   7.925
46852SOL     OW42452  14.097  14.254  11.986
46852SOL    HW142453  14.137  14.340  11.974
46852SOL    HW242454  14.132  14.222  12.069
46853SOL     OW42455  14.171  13.865  12.943
46853SOL    HW142456  14.164  13.787  12.887
46853SOL    HW242457  14.239  13.918  12.902
46854SOL     OW42458   3.093   0.385   6.725
46854SOL    HW142459   3.061   0.393   6.815
46854SOL    HW242460   3.139   0.301   6.723
46855SOL     OW42461  13.550   7.841  14.322
46855SOL    HW142462  13.548   7.914  14.383
46855SOL    HW242463  13.471   7.852  14.269
46856SOL     OW42464   3.701   0.471   8.192
46856SOL    HW142465   3.706   0.557   8.233
46856SOL    HW242466   3.748   0.413   8.252
46857SOL     OW42467  11.276   3.195   8.836
46857SOL    HW142468  11.249   3.244   8.914
46857SOL    HW242469  11.271   3.103   8.863
46858SOL     OW42470  12.828  14.257  11.570
46858SOL    HW142471  12.880  14.337  11.567
46858SOL    HW242472  12.750  14.276  11.519
46859SOL     OW42473   2.545   5.896  11.751
46859SOL    HW142474   2.605   5.822  11.763
46859SOL    HW242475   2.580   5.965  11.806
46860SOL     OW42476   2.100   2.667   7.042
46860SOL    HW142477   2.140   2.582   7.062
46860SOL    HW242478   2.174   2.722   7.014
46861SOL     OW42479   9.133   8.751   8.099
46861SOL    HW142480   9.188   8.680   8.066
46861SOL    HW242481   9.177   8.780   8.179
46862SOL     OW42482  12.907   9.579   0.147
46862SOL    HW142483  12.887   9.670   0.123
46862SOL    HW242484  12.919   9.582   0.242
46863SOL     OW42485  13.408   5.623   0.729
46863SOL    HW142486  13.477   5.584   0.783
46863SOL    HW242487  13.365   5.549   0.687
46864SOL     OW42488   2.511   6.809   2.088
46864SOL    HW142489   2.470   6.871   2.029
46864SOL    HW242490   2.497   6.844   2.176
46865SOL     OW42491   1.151   8.480  12.771
46865SOL    HW142492   1.145   8.449  12.680
46865SOL    HW242493   1.197   8.410  12.817
46866SOL     OW42494   0.101   0.655   7.492
46866SOL    HW142495   0.100   0.712   7.415
46866SOL    HW242496   0.111   0.715   7.566
46867SOL     OW42497   1.690   9.287   1.229
46867SOL    HW142498   1.748   9.246   1.165
46867SOL    HW242499   1.610   9.235   1.226
46868SOL     OW42500   1.391   7.234  10.863
46868SOL    HW142501   1.406   7.199  10.775
46868SOL    HW242502   1.319   7.182  10.897
46869SOL     OW42503   1.689   5.812   2.949
46869SOL    HW142504   1.721   5.754   3.018
46869SOL    HW242505   1.744   5.890   2.956
46870SOL     OW42506  10.578   4.043   4.351
46870SOL    HW142507  10.671   4.067   4.350
46870SOL    HW242508  10.544   4.077   4.268
46871SOL     OW42509   1.471  11.339   6.940
46871SOL    HW142510   1.440  11.413   6.888
46871SOL    HW242511   1.430  11.263   6.901
46872SOL     OW42512  14.682  12.818  13.263
46872SOL    HW142513  14.725  12.838  13.180
46872SOL    HW242514  14.592  12.797  13.239
46873SOL     OW42515   0.242   5.174   3.425
46873SOL    HW142516   0.306   5.201   3.491
46873SOL    HW242517   0.225   5.081   3.445
46874SOL     OW42518   3.151   1.868  10.596
46874SOL    HW142519   3.165   1.819  10.677
46874SOL    HW242520   3.060   1.898  10.602
46875SOL     OW42521  11.379   7.499   7.981
46875SOL    HW142522  11.298   7.521   7.934
46875SOL    HW242523  11.352   7.495   8.073
46876SOL     OW42524   3.584   2.084   1.420
46876SOL    HW142525   3.534   2.144   1.476
46876SOL    HW242526   3.534   2.081   1.338
46877SOL     OW42527  14.464   1.960   8.703
46877SOL    HW142528  14.431   2.010   8.777
46877SOL    HW242529  14.413   1.879   8.703
46878SOL     OW42530   0.791  10.888   9.619
46878SOL    HW142531   0.838  10.816   9.578
46878SOL    HW242532   0.829  10.895   9.707
46879SOL     OW42533   5.372   6.725  13.969
46879SOL    HW142534   5.441   6.716  13.903
46879SOL    HW242535   5.400   6.667  14.040
46880SOL     OW42536   1.824   4.910  10.770
46880SOL    HW142537   1.848   4.880  10.682
46880SOL    HW242538   1.754   4.851  10.797
46881SOL     OW42539   7.177   4.927  14.249
46881SOL    HW142540   7.186   4.834  14.270
46881SOL    HW242541   7.087   4.948  14.274
46882SOL     OW42542   5.470  10.187  11.929
46882SOL    HW142543   5.403  10.156  11.867
46882SOL    HW242544   5.510  10.261  11.885
46883SOL     OW42545   1.664   1.523   3.376
46883SOL    HW142546   1.632   1.484   3.457
46883SOL    HW242547   1.712   1.601   3.404
46884SOL     OW42548   7.561  10.421   1.192
46884SOL    HW142549   7.551  10.366   1.114
46884SOL    HW242550   7.549  10.510   1.160
46885SOL     OW42551  14.621  13.231   6.099
46885SOL    HW142552  14.670  13.171   6.042
46885SOL    HW242553  14.573  13.286   6.037
46886SOL     OW42554   0.977   4.445   3.079
46886SOL    HW142555   1.063   4.454   3.038
46886SOL    HW242556   0.960   4.351   3.079
46887SOL     OW42557   0.896  14.097  14.825
46887SOL    HW142558   0.972  14.155  14.827
46887SOL    HW242559   0.860  14.101   0.044
46888SOL     OW42560  14.408   9.346  12.590
46888SOL    HW142561  14.320   9.374  12.562
46888SOL    HW242562  14.433   9.279  12.526
46889SOL     OW42563  10.049   4.259  13.647
46889SOL    HW142564  10.013   4.344  13.622
46889SOL    HW242565  10.027   4.250  13.740
46890SOL     OW42566   0.178   4.221   6.529
46890SOL    HW142567   0.207   4.145   6.580
46890SOL    HW242568   0.167   4.291   6.593
46891SOL     OW42569   3.509   4.125  13.755
46891SOL    HW142570   3.589   4.076  13.775
46891SOL    HW242571   3.442   4.084  13.809
46892SOL     OW42572   7.028   6.468   6.723
46892SOL    HW142573   7.079   6.409   6.668
46892SOL    HW242574   7.091   6.535   6.751
46893SOL     OW42575   6.604   0.027   9.418
46893SOL    HW142576   6.620   0.115   9.452
46893SOL    HW242577   6.598   0.039   9.323
46894SOL     OW42578   1.754   6.792  13.390
46894SOL    HW142579   1.850   6.799  13.394
46894SOL    HW242580   1.738   6.735  13.315
46895SOL     OW42581   7.744   0.918   8.030
46895SOL    HW142582   7.653   0.942   8.011
46895SOL    HW242583   7.792   1.001   8.027
46896SOL     OW42584   1.860   0.857  11.194
46896SOL    HW142585   1.871   0.951  11.179
46896SOL    HW242586   1.789   0.832  11.135
46897SOL     OW42587   3.252   4.827   3.140
46897SOL    HW142588   3.293   4.747   3.105
46897SOL    HW242589   3.268   4.823   3.234
46898SOL     OW42590   3.453   0.048   4.533
46898SOL    HW142591   3.464  14.850   4.601
46898SOL    HW242592   3.368   0.029   4.493
46899SOL     OW42593  10.885   8.426  10.057
46899SOL    HW142594  10.885   8.456  10.148
46899SOL    HW242595  10.910   8.503  10.006
46900SOL     OW42596   5.915   5.317   4.565
46900SOL    HW142597   5.906   5.378   4.638
46900SOL    HW242598   6.000   5.337   4.527
46901SOL     OW42599  10.135   0.148   1.903
46901SOL    HW142600  10.118   0.099   1.984
46901SOL    HW242601  10.154   0.082   1.838
46902SOL     OW42602   7.940   8.211   6.295
46902SOL    HW142603   7.944   8.302   6.266
46902SOL    HW242604   7.852   8.182   6.273
46903SOL     OW42605   4.653   0.781   1.478
46903SOL    HW142606   4.667   0.700   1.429
46903SOL    HW242607   4.688   0.849   1.420
46904SOL     OW42608  12.711   6.946  10.772
46904SOL    HW142609  12.782   6.928  10.710
46904SOL    HW242610  12.646   6.879  10.754
46905SOL     OW42611  13.921   6.722   7.909
46905SOL    HW142612  13.968   6.694   7.831
46905SOL    HW242613  13.885   6.642   7.946
46906SOL     OW42614   7.905   8.355   5.442
46906SOL    HW142615   7.945   8.367   5.356
46906SOL    HW242616   7.946   8.275   5.477
46907SOL     OW42617  13.755   4.220   4.007
46907SOL    HW142618  13.766   4.223   4.102
46907SOL    HW242619  13.823   4.159   3.978
46908SOL     OW42620   0.572   1.982  14.537
46908SOL    HW142621   0.541   1.937  14.615
46908SOL    HW242622   0.507   2.050  14.520
46909SOL     OW42623  11.972  12.481   6.340
46909SOL    HW142624  11.926  12.504   6.420
46909SOL    HW242625  12.065  12.485   6.363
46910SOL     OW42626   6.189   6.028  11.532
46910SOL    HW142627   6.195   6.035  11.436
46910SOL    HW242628   6.240   5.950  11.553
46911SOL     OW42629   3.737   0.536  10.635
46911SOL    HW142630   3.763   0.517  10.725
46911SOL    HW242631   3.725   0.630  10.632
46912SOL     OW42632   1.846   3.434  12.832
46912SOL    HW142633   1.864   3.390  12.915
46912SOL    HW242634   1.763   3.397  12.802
46913SOL     OW42635   1.716   4.960  10.093
46913SOL    HW142636   1.663   4.940  10.015
46913SOL    HW242637   1.667   4.921  10.165
46914SOL     OW42638   2.915   6.315   4.889
46914SOL    HW142639   3.007   6.289   4.880
46914SOL    HW242640   2.876   6.298   4.804
46915SOL     OW42641  10.080   5.676   6.700
46915SOL    HW142642  10.081   5.655   6.793
46915SOL    HW242643  10.063   5.770   6.696
46916SOL     OW42644   3.349   4.810   8.633
46916SOL    HW142645   3.285   4.755   8.587
46916SOL    HW242646   3.405   4.844   8.563
46917SOL     OW42647   2.557   9.832   4.370
46917SOL    HW142648   2.579   9.738   4.371
46917SOL    HW242649   2.463   9.834   4.391
46918SOL     OW42650  10.378   9.844   7.233
46918SOL    HW142651  10.417   9.767   7.273
46918SOL    HW242652  10.313   9.874   7.297
46919SOL     OW42653   6.903  14.015   7.656
46919SOL    HW142654   6.869  13.967   7.731
46919SOL    HW242655   6.997  13.999   7.658
46920SOL     OW42656  13.503   3.773   7.077
46920SOL    HW142657  13.534   3.845   7.132
46920SOL    HW242658  13.563   3.771   7.003
46921SOL     OW42659   6.752   9.438   8.473
46921SOL    HW142660   6.791   9.398   8.395
46921SOL    HW242661   6.660   9.411   8.470
46922SOL     OW42662   3.675  11.983   1.505
46922SOL    HW142663   3.753  11.934   1.528
46922SOL    HW242664   3.707  12.072   1.487
46923SOL     OW42665  10.816  11.068   4.294
46923SOL    HW142666  10.889  11.034   4.242
46923SOL    HW242667  10.857  11.106   4.371
46924SOL     OW42668   6.924   6.942   4.383
46924SOL    HW142669   6.994   6.982   4.332
46924SOL    HW242670   6.871   7.016   4.414
46925SOL     OW42671   7.613  12.056   8.861
46925SOL    HW142672   7.551  12.082   8.793
46925SOL    HW242673   7.689  12.111   8.846
46926SOL     OW42674   4.704  14.280  13.756
46926SOL    HW142675   4.655  14.231  13.689
46926SOL    HW242676   4.796  14.270  13.731
46927SOL     OW42677   0.813  10.085  13.540
46927SOL    HW142678   0.803  10.151  13.609
46927SOL    HW242679   0.743  10.022  13.558
46928SOL     OW42680   2.128   0.485  13.240
46928SOL    HW142681   2.184   0.486  13.163
46928SOL    HW242682   2.042   0.457  13.207
46929SOL     OW42683   3.299   2.267   5.299
46929SOL    HW142684   3.220   2.305   5.338
46929SOL    HW242685   3.265   2.202   5.237
46930SOL     OW42686  14.126   8.321   6.091
46930SOL    HW142687  14.185   8.387   6.128
46930SOL    HW242688  14.043   8.367   6.079
46931SOL     OW42689   6.210   7.149  11.717
46931SOL    HW142690   6.248   7.114  11.636
46931SOL    HW242691   6.171   7.073  11.760
46932SOL     OW42692   7.062  12.584   8.535
46932SOL    HW142693   7.074  12.624   8.621
46932SOL    HW242694   7.096  12.648   8.473
46933SOL     OW42695   4.859   2.022   9.308
46933SOL    HW142696   4.933   1.964   9.290
46933SOL    HW242697   4.784   1.963   9.319
46934SOL     OW42698   5.554   0.240  14.310
46934SOL    HW142699   5.646   0.223  14.294
46934SOL    HW242700   5.520   0.159  14.348
46935SOL     OW42701  11.355   8.122   0.287
46935SOL    HW142702  11.295   8.195   0.303
46935SOL    HW242703  11.298   8.050   0.258
46936SOL     OW42704   7.269   9.963  10.458
46936SOL    HW142705   7.266   9.966  10.553
46936SOL    HW242706   7.306  10.047  10.432
46937SOL     OW42707   8.274   8.222  12.408
46937SOL    HW142708   8.259   8.196  12.317
46937SOL    HW242709   8.216   8.296  12.422
46938SOL     OW42710  11.428  12.718   4.814
46938SOL    HW142711  11.493  12.713   4.743
46938SOL    HW242712  11.362  12.653   4.790
46939SOL     OW42713  12.663   0.859   2.324
46939SOL    HW142714  12.717   0.930   2.361
46939SOL    HW242715  12.680   0.862   2.230
46940SOL     OW42716   2.704   4.322   2.627
46940SOL    HW142717   2.622   4.307   2.579
46940SOL    HW242718   2.748   4.237   2.627
46941SOL     OW42719  10.486   6.309   7.787
46941SOL    HW142720  10.576   6.286   7.765
46941SOL    HW242721  10.460   6.244   7.852
46942SOL     OW42722  11.838  12.000   2.250
46942SOL    HW142723  11.840  12.093   2.229
46942SOL    HW242724  11.778  11.962   2.186
46943SOL     OW42725   9.433   3.419  13.405
46943SOL    HW142726   9.506   3.391  13.460
46943SOL    HW242727   9.354   3.391  13.452
46944SOL     OW42728   5.612   4.050   9.585
46944SOL    HW142729   5.605   4.108   9.509
46944SOL    HW242730   5.658   3.973   9.552
46945SOL     OW42731   0.180   5.522   7.556
46945SOL    HW142732   0.097   5.564   7.534
46945SOL    HW242733   0.155   5.441   7.600
46946SOL     OW42734  11.765  10.175  14.516
46946SOL    HW142735  11.686  10.221  14.543
46946SOL    HW242736  11.768  10.097  14.571
46947SOL     OW42737  11.570  13.823  13.311
46947SOL    HW142738  11.607  13.774  13.384
46947SOL    HW242739  11.639  13.824  13.245
46948SOL     OW42740   7.079   8.769   2.215
46948SOL    HW142741   7.041   8.688   2.250
46948SOL    HW242742   7.172   8.749   2.203
46949SOL     OW42743  13.235   1.608   4.431
46949SOL    HW142744  13.248   1.528   4.482
46949SOL    HW242745  13.302   1.603   4.362
46950SOL     OW42746   4.248   2.848  12.715
46950SOL    HW142747   4.193   2.811  12.784
46950SOL    HW242748   4.295   2.773  12.679
46951SOL     OW42749   3.997   6.486  11.331
46951SOL    HW142750   4.059   6.447  11.269
46951SOL    HW242751   3.925   6.518  11.276
46952SOL     OW42752   3.091   1.130   3.542
46952SOL    HW142753   3.143   1.210   3.552
46952SOL    HW242754   3.071   1.125   3.449
46953SOL     OW42755  14.568   9.155  12.430
46953SOL    HW142756  14.564   9.080  12.371
46953SOL    HW242757  14.622   9.219  12.383
46954SOL     OW42758   8.704   4.752  12.897
46954SOL    HW142759   8.749   4.707  12.969
46954SOL    HW242760   8.773   4.803  12.854
46955SOL     OW42761   7.718  11.979   5.530
46955SOL    HW142762   7.775  12.044   5.571
46955SOL    HW242763   7.774  11.903   5.517
46956SOL     OW42764  12.634   1.357  12.522
46956SOL    HW142765  12.603   1.384  12.436
46956SOL    HW242766  12.674   1.436  12.560
46957SOL     OW42767  13.831  11.315  14.864
46957SOL    HW142768  13.743  11.347   0.011
46957SOL    HW242769  13.820  11.239  14.807
46958SOL     OW42770   1.535   4.325   0.691
46958SOL    HW142771   1.514   4.415   0.665
46958SOL    HW242772   1.630   4.326   0.706
46959SOL     OW42773   9.162  14.381  14.739
46959SOL    HW142774   9.102  14.426  14.680
46959SOL    HW242775   9.142  14.288  14.727
46960SOL     OW42776   8.994   4.442   3.139
46960SOL    HW142777   8.986   4.443   3.235
46960SOL    HW242778   8.979   4.533   3.113
46961SOL     OW42779  10.017   8.302   0.965
46961SOL    HW142780   9.927   8.327   0.945
46961SOL    HW242781  10.071   8.370   0.925
46962SOL     OW42782  14.714  14.312  12.239
46962SOL    HW142783  14.625  14.294  12.210
46962SOL    HW242784  14.758  14.345  12.161
46963SOL     OW42785  13.967   7.591   0.979
46963SOL    HW142786  14.050   7.545   0.987
46963SOL    HW242787  13.937   7.603   1.069
46964SOL     OW42788  14.523   9.833   7.789
46964SOL    HW142789  14.557   9.849   7.700
46964SOL    HW242790  14.505   9.921   7.823
46965SOL     OW42791   0.083   2.961   0.852
46965SOL    HW142792   0.165   3.001   0.822
46965SOL    HW242793   0.058   2.903   0.781
46966SOL     OW42794   6.857   2.536   5.668
46966SOL    HW142795   6.901   2.498   5.591
46966SOL    HW242796   6.764   2.536   5.645
46967SOL     OW42797   0.154   5.658   9.477
46967SOL    HW142798   0.201   5.693   9.553
46967SOL    HW242799   0.093   5.727   9.452
46968SOL     OW42800   2.368   3.842  14.458
46968SOL    HW142801   2.348   3.906  14.389
46968SOL    HW242802   2.323   3.876  14.535
46969SOL     OW42803  12.987  14.357   5.214
46969SOL    HW142804  12.938  14.440   5.214
46969SOL    HW242805  12.934  14.298   5.161
46970SOL     OW42806  12.799   0.277   8.776
46970SOL    HW142807  12.884   0.233   8.779
46970SOL    HW242808  12.741   0.214   8.733
46971SOL     OW42809   2.923   3.376  13.171
46971SOL    HW142810   3.011   3.343  13.154
46971SOL    HW242811   2.936   3.470  13.187
46972SOL     OW42812   9.218  12.764  14.054
46972SOL    HW142813   9.149  12.811  14.100
46972SOL    HW242814   9.226  12.680  14.101
46973SOL     OW42815   1.719   8.656   6.714
46973SOL    HW142816   1.744   8.738   6.755
46973SOL    HW242817   1.639   8.676   6.665
46974SOL     OW42818  13.921  12.508  12.642
46974SOL    HW142819  13.897  12.477  12.555
46974SOL    HW242820  13.883  12.595  12.648
46975SOL     OW42821   6.871  12.599   3.206
46975SOL    HW142822   6.929  12.664   3.244
46975SOL    HW242823   6.798  12.593   3.268
46976SOL     OW42824  10.723  11.110  13.230
46976SOL    HW142825  10.697  11.156  13.309
46976SOL    HW242826  10.777  11.173  13.182
46977SOL     OW42827  11.856   6.361   0.879
46977SOL    HW142828  11.786   6.417   0.844
46977SOL    HW242829  11.936   6.410   0.860
46978SOL     OW42830   0.806   9.309  11.186
46978SOL    HW142831   0.845   9.388  11.148
46978SOL    HW242832   0.719   9.336  11.214
46979SOL     OW42833  12.449   0.237  10.304
46979SOL    HW142834  12.532   0.274  10.334
46979SOL    HW242835  12.397   0.314  10.278
46980SOL     OW42836  13.714   6.651   3.650
46980SOL    HW142837  13.762   6.571   3.669
46980SOL    HW242838  13.776   6.721   3.668
46981SOL     OW42839  12.603   1.512   7.254
46981SOL    HW142840  12.551   1.520   7.173
46981SOL    HW242841  12.693   1.524   7.225
46982SOL     OW42842   3.441   5.924   6.273
46982SOL    HW142843   3.477   5.835   6.270
46982SOL    HW242844   3.490   5.967   6.343
46983SOL     OW42845   2.297   4.504   2.308
46983SOL    HW142846   2.215   4.455   2.302
46983SOL    HW242847   2.288   4.573   2.241
46984SOL     OW42848  10.407   3.410   7.320
46984SOL    HW142849  10.474   3.454   7.372
46984SOL    HW242850  10.361   3.481   7.275
46985SOL     OW42851   6.783   2.992   4.871
46985SOL    HW142852   6.817   3.037   4.949
46985SOL    HW242853   6.739   3.061   4.822
46986SOL     OW42854   5.217  11.859   1.060
46986SOL    HW142855   5.235  11.884   0.969
46986SOL    HW242856   5.218  11.763   1.058
46987SOL     OW42857   4.010   0.583   3.038
46987SOL    HW142858   3.919   0.555   3.031
46987SOL    HW242859   4.053   0.516   3.091
46988SOL     OW42860  13.439   9.656   1.865
46988SOL    HW142861  13.367   9.635   1.925
46988SOL    HW242862  13.514   9.672   1.923
46989SOL     OW42863   4.845   4.581   5.787
46989SOL    HW142864   4.917   4.633   5.750
46989SOL    HW242865   4.813   4.634   5.861
46990SOL     OW42866   5.276   0.444  14.738
46990SOL    HW142867   5.235   0.481  14.660
46990SOL    HW242868   5.344   0.507  14.762
46991SOL     OW42869   9.282   5.296   5.105
46991SOL    HW142870   9.235   5.366   5.150
46991SOL    HW242871   9.261   5.217   5.154
46992SOL     OW42872   7.731   9.944   5.000
46992SOL    HW142873   7.719  10.009   4.930
46992SOL    HW242874   7.749   9.997   5.078
46993SOL     OW42875   5.152   2.188   1.292
46993SOL    HW142876   5.064   2.178   1.329
46993SOL    HW242877   5.186   2.099   1.286
46994SOL     OW42878   1.151  10.508   9.436
46994SOL    HW142879   1.125  10.421   9.467
46994SOL    HW242880   1.244  10.500   9.417
46995SOL     OW42881  12.246  10.074   4.768
46995SOL    HW142882  12.307  10.116   4.830
46995SOL    HW242883  12.302  10.045   4.696
46996SOL     OW42884   1.272  13.229   3.842
46996SOL    HW142885   1.188  13.272   3.825
46996SOL    HW242886   1.253  13.135   3.837
46997SOL     OW42887   9.663  13.745  12.297
46997SOL    HW142888   9.627  13.816  12.244
46997SOL    HW242889   9.624  13.666  12.261
46998SOL     OW42890   9.127  12.681   8.116
46998SOL    HW142891   9.149  12.672   8.023
46998SOL    HW242892   9.113  12.591   8.145
46999SOL     OW42893   9.460  10.897   6.367
46999SOL    HW142894   9.405  10.874   6.442
46999SOL    HW242895   9.422  10.978   6.333
47000SOL     OW42896   1.734   2.209   0.988
47000SOL    HW142897   1.708   2.293   0.949
47000SOL    HW242898   1.804   2.178   0.931
47001SOL     OW42899   3.803  13.382   3.664
47001SOL    HW142900   3.707  13.382   3.659
47001SOL    HW242901   3.822  13.354   3.754
47002SOL     OW42902   0.719  11.711   5.225
47002SOL    HW142903   0.637  11.711   5.275
47002SOL    HW242904   0.787  11.700   5.291
47003SOL     OW42905   0.028  12.657   5.708
47003SOL    HW142906   0.081  12.729   5.674
47003SOL    HW242907   0.031  12.590   5.640
47004SOL     OW42908   9.954  10.554   5.949
47004SOL    HW142909  10.003  10.552   5.867
47004SOL    HW242910   9.915  10.467   5.956
47005SOL     OW42911  10.799  10.826   7.239
47005SOL    HW142912  10.780  10.912   7.277
47005SOL    HW242913  10.867  10.843   7.174
47006SOL     OW42914   2.575   8.458   6.776
47006SOL    HW142915   2.540   8.391   6.717
47006SOL    HW242916   2.625   8.409   6.841
47007SOL     OW42917   9.724   6.028   8.877
47007SOL    HW142918   9.795   5.997   8.933
47007SOL    HW242919   9.754   6.114   8.846
47008SOL     OW42920   2.858   9.821   5.347
47008SOL    HW142921   2.775   9.824   5.395
47008SOL    HW242922   2.844   9.876   5.271
47009SOL     OW42923  13.149  13.878   4.779
47009SOL    HW142924  13.232  13.914   4.748
47009SOL    HW242925  13.106  13.845   4.700
47010SOL     OW42926   6.127   6.744  12.439
47010SOL    HW142927   6.085   6.736  12.354
47010SOL    HW242928   6.131   6.654  12.472
47011SOL     OW42929  12.232   5.656   0.615
47011SOL    HW142930  12.142   5.657   0.649
47011SOL    HW242931  12.286   5.638   0.692
47012SOL     OW42932   7.399   7.949  12.069
47012SOL    HW142933   7.429   7.898  11.993
47012SOL    HW242934   7.420   8.039  12.047
47013SOL     OW42935  12.683  12.012   9.594
47013SOL    HW142936  12.635  12.063   9.658
47013SOL    HW242937  12.677  12.062   9.513
47014SOL     OW42938   7.576   3.174   7.361
47014SOL    HW142939   7.525   3.137   7.289
47014SOL    HW242940   7.533   3.258   7.380
47015SOL     OW42941   6.882   9.870   3.317
47015SOL    HW142942   6.962   9.835   3.279
47015SOL    HW242943   6.884   9.841   3.408
47016SOL     OW42944   1.415  10.436   5.197
47016SOL    HW142945   1.501  10.453   5.157
47016SOL    HW242946   1.361  10.404   5.124
47017SOL     OW42947  13.446  10.000   9.124
47017SOL    HW142948  13.456  10.053   9.204
47017SOL    HW242949  13.385  10.051   9.070
47018SOL     OW42950   8.362  10.591   2.177
47018SOL    HW142951   8.457  10.588   2.168
47018SOL    HW242952   8.338  10.681   2.153
47019SOL     OW42953   7.760   5.704   6.956
47019SOL    HW142954   7.811   5.657   6.890
47019SOL    HW242955   7.764   5.796   6.928
47020SOL     OW42956   3.152   1.251  10.241
47020SOL    HW142957   3.159   1.181  10.306
47020SOL    HW242958   3.240   1.286  10.233
47021SOL     OW42959   4.689   5.706   6.219
47021SOL    HW142960   4.706   5.795   6.190
47021SOL    HW242961   4.776   5.670   6.238
47022SOL     OW42962   3.624  10.272   3.180
47022SOL    HW142963   3.625  10.294   3.274
47022SOL    HW242964   3.707  10.305   3.147
47023SOL     OW42965  12.271   0.821   2.276
47023SOL    HW142966  12.274   0.728   2.297
47023SOL    HW242967  12.338   0.861   2.331
47024SOL     OW42968  12.245  11.649   7.451
47024SOL    HW142969  12.304  11.715   7.486
47024SOL    HW242970  12.195  11.619   7.527
47025SOL     OW42971   2.572   3.056   3.676
47025SOL    HW142972   2.631   3.124   3.646
47025SOL    HW242973   2.506   3.102   3.728
47026SOL     OW42974  10.100   4.212   9.612
47026SOL    HW142975  10.063   4.133   9.574
47026SOL    HW242976  10.193   4.192   9.623
47027SOL     OW42977   8.624   6.852   7.822
47027SOL    HW142978   8.680   6.774   7.814
47027SOL    HW242979   8.535   6.818   7.810
47028SOL     OW42980   8.804   4.236   9.143
47028SOL    HW142981   8.898   4.232   9.128
47028SOL    HW242982   8.766   4.182   9.073
47029SOL     OW42983   2.841   2.435   2.404
47029SOL    HW142984   2.894   2.356   2.393
47029SOL    HW242985   2.793   2.420   2.485
47030SOL     OW42986  13.627  10.521   5.953
47030SOL    HW142987  13.715  10.557   5.949
47030SOL    HW242988  13.637  10.435   5.995
47031SOL     OW42989   7.288   4.050  12.209
47031SOL    HW142990   7.255   4.064  12.120
47031SOL    HW242991   7.325   4.136  12.234
47032SOL     OW42992   4.415   9.757   8.406
47032SOL    HW142993   4.380   9.684   8.458
47032SOL    HW242994   4.474   9.716   8.343
47033SOL     OW42995   4.689   3.525  13.931
47033SOL    HW142996   4.734   3.488  13.855
47033SOL    HW242997   4.609   3.564  13.894
47034SOL     OW42998   0.115   8.758  12.307
47034SOL    HW142999   0.177   8.685  12.314
47034SOL    HW243000   0.038   8.728  12.356
47035SOL     OW43001   9.710  13.354   1.963
47035SOL    HW143002   9.757  13.309   1.893
47035SOL    HW243003   9.617  13.341   1.941
47036SOL     OW43004  11.049   8.998   1.683
47036SOL    HW143005  11.013   8.910   1.683
47036SOL    HW243006  11.138   8.988   1.717
47037SOL     OW43007   7.820  14.807   5.649
47037SOL    HW143008   7.810  14.847   5.735
47037SOL    HW243009   7.786   0.003   5.588
47038SOL     OW43010   7.514  12.711   8.130
47038SOL    HW143011   7.592  12.760   8.157
47038SOL    HW243012   7.443  12.750   8.181
47039SOL     OW43013  14.337   5.760   6.030
47039SOL    HW143014  14.418   5.764   5.979
47039SOL    HW243015  14.284   5.832   5.996
47040SOL     OW43016  12.821   3.669  13.441
47040SOL    HW143017  12.786   3.608  13.506
47040SOL    HW243018  12.756   3.670  13.371
47041SOL     OW43019   1.608  11.778   8.291
47041SOL    HW143020   1.701  11.763   8.305
47041SOL    HW243021   1.569  11.773   8.378
47042SOL     OW43022  10.472   7.949   1.200
47042SOL    HW143023  10.527   7.965   1.123
47042SOL    HW243024  10.418   8.027   1.207
47043SOL     OW43025  13.131  14.524   8.159
47043SOL    HW143026  13.157  14.504   8.249
47043SOL    HW243027  13.091  14.611   8.164
47044SOL     OW43028  11.382  12.323  11.934
47044SOL    HW143029  11.469  12.291  11.956
47044SOL    HW243030  11.369  12.400  11.990
47045SOL     OW43031   0.962  14.146   7.502
47045SOL    HW143032   0.921  14.201   7.569
47045SOL    HW243033   1.032  14.101   7.547
47046SOL     OW43034   2.529   8.001  14.628
47046SOL    HW143035   2.557   8.021  14.539
47046SOL    HW243036   2.563   7.913  14.644
47047SOL     OW43037   4.754  11.327   0.494
47047SOL    HW143038   4.848  11.345   0.488
47047SOL    HW243039   4.735  11.328   0.587
47048SOL     OW43040   9.198   9.258   5.278
47048SOL    HW143041   9.222   9.181   5.330
47048SOL    HW243042   9.262   9.260   5.207
47049SOL     OW43043   3.828   3.982   2.628
47049SOL    HW143044   3.736   3.972   2.654
47049SOL    HW243045   3.843   4.076   2.628
47050SOL     OW43046   3.274  14.309  13.856
47050SOL    HW143047   3.214  14.237  13.837
47050SOL    HW243048   3.258  14.329  13.948
47051SOL     OW43049  10.854   2.501   3.178
47051SOL    HW143050  10.803   2.464   3.107
47051SOL    HW243051  10.825   2.454   3.256
47052SOL     OW43052  12.037   5.421   2.249
47052SOL    HW143053  11.962   5.370   2.279
47052SOL    HW243054  12.030   5.419   2.154
47053SOL     OW43055   1.788   1.336   0.622
47053SOL    HW143056   1.702   1.356   0.660
47053SOL    HW243057   1.823   1.421   0.597
47054SOL     OW43058   6.047   9.271  10.970
47054SOL    HW143059   6.065   9.178  10.983
47054SOL    HW243060   5.979   9.292  11.034
47055SOL     OW43061  14.742  13.978   6.796
47055SOL    HW143062  14.699  14.034   6.861
47055SOL    HW243063  14.763  14.036   6.723
47056SOL     OW43064  11.834   1.679   2.158
47056SOL    HW143065  11.911   1.707   2.107
47056SOL    HW243066  11.865   1.604   2.209
47057SOL     OW43067   6.335   1.951   9.501
47057SOL    HW143068   6.409   1.949   9.440
47057SOL    HW243069   6.301   1.861   9.499
47058SOL     OW43070  11.538   9.502   2.193
47058SOL    HW143071  11.632   9.484   2.201
47058SOL    HW243072  11.529   9.593   2.222
47059SOL     OW43073  13.191   7.024   9.491
47059SOL    HW143074  13.205   6.939   9.449
47059SOL    HW243075  13.273   7.072   9.477
47060SOL     OW43076   9.985  12.015  11.785
47060SOL    HW143077   9.988  12.089  11.724
47060SOL    HW243078   9.946  12.050  11.865
47061SOL     OW43079   0.636   4.122  14.676
47061SOL    HW143080   0.559   4.098  14.729
47061SOL    HW243081   0.599   4.162  14.598
47062SOL     OW43082   8.379   7.652   8.431
47062SOL    HW143083   8.366   7.580   8.493
47062SOL    HW243084   8.310   7.641   8.366
47063SOL     OW43085  12.494   3.062   4.080
47063SOL    HW143086  12.529   3.056   3.991
47063SOL    HW243087  12.550   3.004   4.131
47064SOL     OW43088   8.202  13.283  14.242
47064SOL    HW143089   8.114  13.312  14.219
47064SOL    HW243090   8.213  13.199  14.199
47065SOL     OW43091   4.356  12.342   4.611
47065SOL    HW143092   4.352  12.438   4.608
47065SOL    HW243093   4.303  12.319   4.688
47066SOL     OW43094   9.596   2.099  12.030
47066SOL    HW143095   9.626   2.133  12.114
47066SOL    HW243096   9.601   2.174  11.970
47067SOL     OW43097   4.700   5.032   1.467
47067SOL    HW143098   4.618   5.004   1.508
47067SOL    HW243099   4.732   4.954   1.422
47068SOL     OW43100   7.691  10.321  14.800
47068SOL    HW143101   7.599  10.347  14.794
47068SOL    HW243102   7.712  10.290  14.711
47069SOL     OW43103   1.850  13.721   8.568
47069SOL    HW143104   1.773  13.766   8.536
47069SOL    HW243105   1.823  13.684   8.652
47070SOL     OW43106   4.113  13.664   4.779
47070SOL    HW143107   4.052  13.735   4.798
47070SOL    HW243108   4.112  13.656   4.683
47071SOL     OW43109   6.006   2.749   5.530
47071SOL    HW143110   6.058   2.670   5.517
47071SOL    HW243111   5.917   2.723   5.504
47072SOL     OW43112   0.340   5.294   3.916
47072SOL    HW143113   0.274   5.358   3.945
47072SOL    HW243114   0.367   5.326   3.830
47073SOL     OW43115   8.050  10.110   2.270
47073SOL    HW143116   8.044  10.188   2.214
47073SOL    HW243117   7.963  10.071   2.266
47074SOL     OW43118   7.764  13.217  12.022
47074SOL    HW143119   7.688  13.174  11.984
47074SOL    HW243120   7.765  13.188  12.113
47075SOL     OW43121   8.743   0.776   9.763
47075SOL    HW143122   8.803   0.729   9.820
47075SOL    HW243123   8.676   0.811   9.821
47076SOL     OW43124   1.659   1.697   7.919
47076SOL    HW143125   1.643   1.758   7.848
47076SOL    HW243126   1.706   1.749   7.985
47077SOL     OW43127   2.905   5.778   5.889
47077SOL    HW143128   2.861   5.862   5.876
47077SOL    HW243129   2.919   5.745   5.800
47078SOL     OW43130  11.406  14.431   7.518
47078SOL    HW143131  11.454  14.350   7.529
47078SOL    HW243132  11.373  14.428   7.428
47079SOL     OW43133   9.112   1.772   3.533
47079SOL    HW143134   9.018   1.770   3.514
47079SOL    HW243135   9.119   1.735   3.621
47080SOL     OW43136   1.502   0.754  10.318
47080SOL    HW143137   1.508   0.771  10.224
47080SOL    HW243138   1.428   0.694  10.327
47081SOL     OW43139  10.702   9.798  10.082
47081SOL    HW143140  10.654   9.859  10.137
47081SOL    HW243141  10.794   9.823  10.092
47082SOL     OW43142   5.032   2.605   6.343
47082SOL    HW143143   4.957   2.649   6.382
47082SOL    HW243144   5.044   2.649   6.258
47083SOL     OW43145   3.511  11.158  14.696
47083SOL    HW143146   3.494  11.214  14.620
47083SOL    HW243147   3.599  11.181  14.724
47084SOL     OW43148  14.715  11.635  14.020
47084SOL    HW143149  14.628  11.673  14.026
47084SOL    HW243150  14.701  11.541  14.036
47085SOL     OW43151   6.196   0.883   6.500
47085SOL    HW143152   6.221   0.973   6.520
47085SOL    HW243153   6.114   0.891   6.453
47086SOL     OW43154   0.406  11.740   3.599
47086SOL    HW143155   0.460  11.696   3.664
47086SOL    HW243156   0.448  11.721   3.515
47087SOL     OW43157  13.627  14.773   6.252
47087SOL    HW143158  13.582  14.697   6.215
47087SOL    HW243159  13.646  14.747   6.342
47088SOL     OW43160  10.672   2.542   8.205
47088SOL    HW143161  10.685   2.470   8.144
47088SOL    HW243162  10.578   2.562   8.200
47089SOL     OW43163   8.513  10.479  10.138
47089SOL    HW143164   8.432  10.432  10.117
47089SOL    HW243165   8.531  10.458  10.229
47090SOL     OW43166  10.386   4.974   7.751
47090SOL    HW143167  10.329   5.050   7.767
47090SOL    HW243168  10.366   4.948   7.661
47091SOL     OW43169   1.460   5.868   5.096
47091SOL    HW143170   1.439   5.784   5.055
47091SOL    HW243171   1.398   5.930   5.056
47092SOL     OW43172   7.479   7.486   6.588
47092SOL    HW143173   7.510   7.452   6.504
47092SOL    HW243174   7.538   7.559   6.607
47093SOL     OW43175   2.547   4.455   0.096
47093SOL    HW143176   2.622   4.508   0.123
47093SOL    HW243177   2.586   4.378   0.054
47094SOL     OW43178   9.815   7.851   5.220
47094SOL    HW143179   9.811   7.776   5.279
47094SOL    HW243180   9.814   7.927   5.278
47095SOL     OW43181  13.271   1.869   4.470
47095SOL    HW143182  13.268   1.774   4.484
47095SOL    HW243183  13.190   1.888   4.423
47096SOL     OW43184   5.828   7.900  10.661
47096SOL    HW143185   5.752   7.941  10.619
47096SOL    HW243186   5.902   7.924  10.606
47097SOL     OW43187  14.029   0.986   0.039
47097SOL    HW143188  13.953   0.952   0.086
47097SOL    HW243189  14.042   0.924  14.837
47098SOL     OW43190  12.698   6.809   9.626
47098SOL    HW143191  12.665   6.784   9.713
47098SOL    HW243192  12.741   6.893   9.640
47099SOL     OW43193   1.552  11.585  12.580
47099SOL    HW143194   1.568  11.583  12.485
47099SOL    HW243195   1.609  11.517  12.615
47100SOL     OW43196   3.293  14.147   2.973
47100SOL    HW143197   3.315  14.177   2.885
47100SOL    HW243198   3.296  14.052   2.969
47101SOL     OW43199   5.556  13.885  10.054
47101SOL    HW143200   5.584  13.866  10.143
47101SOL    HW243201   5.551  13.980  10.050
47102SOL     OW43202   0.781  14.753   9.209
47102SOL    HW143203   0.869  14.714   9.203
47102SOL    HW243204   0.793  14.829   9.266
47103SOL     OW43205   8.885  10.341   5.769
47103SOL    HW143206   8.819  10.404   5.799
47103SOL    HW243207   8.834  10.265   5.742
47104SOL     OW43208   5.569   2.237   4.919
47104SOL    HW143209   5.516   2.315   4.904
47104SOL    HW243210   5.581   2.233   5.014
47105SOL     OW43211   2.926   8.782   2.372
47105SOL    HW143212   2.961   8.761   2.286
47105SOL    HW243213   2.995   8.755   2.433
47106SOL     OW43214  12.965  12.183  12.362
47106SOL    HW143215  12.955  12.114  12.428
47106SOL    HW243216  12.881  12.229  12.362
47107SOL     OW43217   6.854  11.701  11.957
47107SOL    HW143218   6.843  11.659  11.872
47107SOL    HW243219   6.900  11.637  12.011
47108SOL     OW43220   4.415   3.389   1.950
47108SOL    HW143221   4.440   3.450   1.881
47108SOL    HW243222   4.446   3.304   1.920
47109SOL     OW43223   3.409  14.116   6.005
47109SOL    HW143224   3.474  14.185   6.019
47109SOL    HW243225   3.422  14.088   5.914
47110SOL     OW43226   5.498   4.259   8.461
47110SOL    HW143227   5.528   4.309   8.537
47110SOL    HW243228   5.543   4.175   8.469
47111SOL     OW43229  12.529   0.648   6.267
47111SOL    HW143230  12.587   0.657   6.342
47111SOL    HW243231  12.540   0.556   6.240
47112SOL     OW43232   5.261  11.735  11.158
47112SOL    HW143233   5.251  11.778  11.243
47112SOL    HW243234   5.216  11.651  11.167
47113SOL     OW43235   7.502   0.358  13.695
47113SOL    HW143236   7.422   0.409  13.683
47113SOL    HW243237   7.524   0.369  13.787
47114SOL     OW43238  12.245   1.673   7.080
47114SOL    HW143239  12.304   1.747   7.097
47114SOL    HW243240  12.157   1.711   7.086
47115SOL     OW43241   1.241  11.985   7.817
47115SOL    HW143242   1.314  11.930   7.788
47115SOL    HW243243   1.244  12.062   7.761
47116SOL     OW43244  12.932   7.403   6.628
47116SOL    HW143245  12.919   7.498   6.637
47116SOL    HW243246  13.017   7.387   6.667
47117SOL     OW43247  10.710   4.211  13.092
47117SOL    HW143248  10.776   4.176  13.152
47117SOL    HW243249  10.690   4.297  13.127
47118SOL     OW43250   6.086   1.344   0.388
47118SOL    HW143251   6.137   1.402   0.331
47118SOL    HW243252   6.151   1.301   0.444
47119SOL     OW43253   8.995  11.836  13.335
47119SOL    HW143254   9.028  11.775  13.400
47119SOL    HW243255   9.061  11.834  13.265
47120SOL     OW43256   2.441  14.809  10.996
47120SOL    HW143257   2.452  14.800  11.091
47120SOL    HW243258   2.460   0.032  10.979
47121SOL     OW43259  14.720   3.008   0.599
47121SOL    HW143260  14.751   2.917   0.592
47121SOL    HW243261  14.685   3.014   0.688
47122SOL     OW43262   2.507   1.496   9.084
47122SOL    HW143263   2.474   1.407   9.070
47122SOL    HW243264   2.600   1.490   9.064
47123SOL     OW43265   7.788  14.633   8.573
47123SOL    HW143266   7.853  14.696   8.541
47123SOL    HW243267   7.754  14.673   8.654
47124SOL     OW43268  13.711   0.483   8.792
47124SOL    HW143269  13.630   0.509   8.834
47124SOL    HW243270  13.724   0.391   8.819
47125SOL     OW43271  13.975   6.810  10.237
47125SOL    HW143272  13.910   6.778  10.175
47125SOL    HW243273  13.930   6.879  10.286
47126SOL     OW43274  12.798   9.916  10.055
47126SOL    HW143275  12.822   9.839  10.003
47126SOL    HW243276  12.878   9.967  10.062
47127SOL     OW43277   3.175   1.604   0.133
47127SOL    HW143278   3.156   1.621   0.225
47127SOL    HW243279   3.241   1.670   0.110
47128SOL     OW43280   7.201   6.840  11.045
47128SOL    HW143281   7.107   6.826  11.040
47128SOL    HW243282   7.213   6.934  11.039
47129SOL     OW43283  13.907   3.578   4.223
47129SOL    HW143284  13.961   3.541   4.154
47129SOL    HW243285  13.913   3.514   4.295
47130SOL     OW43286   0.742   1.456   4.956
47130SOL    HW143287   0.699   1.372   4.974
47130SOL    HW243288   0.680   1.522   4.988
47131SOL     OW43289   8.319  13.094   1.780
47131SOL    HW143290   8.372  13.030   1.733
47131SOL    HW243291   8.368  13.111   1.861
47132SOL     OW43292   9.026   5.461   8.196
47132SOL    HW143293   9.045   5.424   8.110
47132SOL    HW243294   8.984   5.545   8.177
47133SOL     OW43295  10.298  10.364  10.149
47133SOL    HW143296  10.364  10.321  10.094
47133SOL    HW243297  10.275  10.300  10.215
47134SOL     OW43298  11.338  13.622   5.219
47134SOL    HW143299  11.263  13.626   5.160
47134SOL    HW243300  11.405  13.576   5.169
47135SOL     OW43301  12.473   5.325  12.415
47135SOL    HW143302  12.539   5.264  12.384
47135SOL    HW243303  12.432   5.359  12.335
47136SOL     OW43304   5.502  12.450   5.295
47136SOL    HW143305   5.498  12.485   5.206
47136SOL    HW243306   5.541  12.363   5.285
47137SOL     OW43307   3.175  11.751   4.504
47137SOL    HW143308   3.220  11.779   4.583
47137SOL    HW243309   3.134  11.831   4.470
47138SOL     OW43310   8.970   9.684   1.117
47138SOL    HW143311   9.009   9.605   1.153
47138SOL    HW243312   8.887   9.693   1.163
47139SOL     OW43313  13.885   8.028   7.647
47139SOL    HW143314  13.925   7.956   7.599
47139SOL    HW243315  13.820   7.986   7.703
47140SOL     OW43316  13.194   2.083  11.313
47140SOL    HW143317  13.163   2.124  11.394
47140SOL    HW243318  13.287   2.066  11.330
47141SOL     OW43319  13.449   7.365   9.642
47141SOL    HW143320  13.394   7.400   9.712
47141SOL    HW243321  13.400   7.291   9.607
47142SOL     OW43322   4.185   8.618   6.021
47142SOL    HW143323   4.134   8.573   5.953
47142SOL    HW243324   4.263   8.563   6.033
47143SOL     OW43325   8.753   2.456   3.106
47143SOL    HW143326   8.675   2.403   3.090
47143SOL    HW243327   8.773   2.496   3.022
47144SOL     OW43328  12.796   8.298   8.216
47144SOL    HW143329  12.787   8.388   8.247
47144SOL    HW243330  12.766   8.244   8.289
47145SOL     OW43331   4.957  12.871   9.192
47145SOL    HW143332   4.916  12.784   9.191
47145SOL    HW243333   5.050  12.854   9.178
47146SOL     OW43334  13.275   9.698   1.349
47146SOL    HW143335  13.180   9.713   1.357
47146SOL    HW243336  13.282   9.623   1.290
47147SOL     OW43337  12.440   1.908   2.482
47147SOL    HW143338  12.408   1.849   2.551
47147SOL    HW243339  12.428   1.996   2.519
47148SOL     OW43340  13.445  12.358   1.623
47148SOL    HW143341  13.511  12.332   1.558
47148SOL    HW243342  13.440  12.283   1.682
47149SOL     OW43343  11.191  14.237   1.748
47149SOL    HW143344  11.189  14.292   1.670
47149SOL    HW243345  11.184  14.298   1.821
47150SOL     OW43346   4.900  12.388  10.641
47150SOL    HW143347   4.902  12.328  10.715
47150SOL    HW243348   4.849  12.342  10.574
47151SOL     OW43349  13.839   0.241  12.398
47151SOL    HW143350  13.903   0.239  12.469
47151SOL    HW243351  13.864   0.318  12.346
47152SOL     OW43352   8.136   5.163   2.028
47152SOL    HW143353   8.077   5.171   1.953
47152SOL    HW243354   8.155   5.069   2.033
47153SOL     OW43355   7.944  12.616   2.580
47153SOL    HW143356   8.027  12.576   2.604
47153SOL    HW243357   7.959  12.655   2.494
47154SOL     OW43358   7.132   1.908   5.858
47154SOL    HW143359   7.167   1.873   5.940
47154SOL    HW243360   7.133   2.003   5.870
47155SOL     OW43361  13.333   1.052   5.553
47155SOL    HW143362  13.425   1.030   5.568
47155SOL    HW243363  13.291   1.040   5.638
47156SOL     OW43364  11.294   7.877   0.333
47156SOL    HW143365  11.241   7.822   0.392
47156SOL    HW243366  11.384   7.847   0.348
47157SOL     OW43367  10.482  13.308  12.840
47157SOL    HW143368  10.554  13.258  12.878
47157SOL    HW243369  10.483  13.286  12.747
47158SOL     OW43370  14.564  13.468   0.086
47158SOL    HW143371  14.557  13.416   0.006
47158SOL    HW243372  14.490  13.527   0.082
47159SOL     OW43373   6.379  14.319  11.786
47159SOL    HW143374   6.470  14.322  11.813
47159SOL    HW243375   6.350  14.230  11.808
47160SOL     OW43376   4.764   5.897   6.024
47160SOL    HW143377   4.824   5.924   5.955
47160SOL    HW243378   4.748   5.976   6.075
47161SOL     OW43379   5.412  12.728   5.282
47161SOL    HW143380   5.390  12.740   5.189
47161SOL    HW243381   5.439  12.637   5.289
47162SOL     OW43382   2.348   3.162   3.759
47162SOL    HW143383   2.253   3.163   3.748
47162SOL    HW243384   2.363   3.208   3.841
47163SOL     OW43385  14.192   5.384   9.758
47163SOL    HW143386  14.149   5.420   9.681
47163SOL    HW243387  14.250   5.317   9.724
47164SOL     OW43388   6.796   3.838   8.340
47164SOL    HW143389   6.809   3.875   8.427
47164SOL    HW243390   6.875   3.787   8.322
47165SOL     OW43391  12.059  11.029   5.442
47165SOL    HW143392  12.065  11.123   5.424
47165SOL    HW243393  11.990  11.022   5.508
47166SOL     OW43394  14.113   8.106   5.408
47166SOL    HW143395  14.079   8.185   5.451
47166SOL    HW243396  14.040   8.044   5.410
47167SOL     OW43397   0.863   7.545   9.381
47167SOL    HW143398   0.925   7.583   9.443
47167SOL    HW243399   0.863   7.606   9.307
47168SOL     OW43400   9.547  12.445   4.604
47168SOL    HW143401   9.616  12.446   4.537
47168SOL    HW243402   9.469  12.475   4.557
47169SOL     OW43403   9.861   6.498  11.551
47169SOL    HW143404   9.847   6.415  11.596
47169SOL    HW243405   9.781   6.548  11.567
47170SOL     OW43406  11.141  12.749   9.871
47170SOL    HW143407  11.102  12.832   9.900
47170SOL    HW243408  11.200  12.774   9.799
47171SOL     OW43409   1.061  10.567  12.105
47171SOL    HW143410   0.971  10.579  12.132
47171SOL    HW243411   1.103  10.521  12.178
47172SOL     OW43412   3.418   0.346  13.590
47172SOL    HW143413   3.465   0.264  13.605
47172SOL    HW243414   3.335   0.334  13.637
47173SOL     OW43415   9.430   0.517  14.200
47173SOL    HW143416   9.465   0.527  14.112
47173SOL    HW243417   9.417   0.607  14.231
47174SOL     OW43418  12.044   4.819   1.258
47174SOL    HW143419  11.995   4.888   1.214
47174SOL    HW243420  12.065   4.757   1.189
47175SOL     OW43421   2.966  12.739  12.716
47175SOL    HW143422   2.910  12.670  12.683
47175SOL    HW243423   2.951  12.741  12.810
47176SOL     OW43424  14.398  11.781   6.175
47176SOL    HW143425  14.395  11.742   6.088
47176SOL    HW243426  14.490  11.781   6.198
47177SOL     OW43427   6.285  13.790   8.703
47177SOL    HW143428   6.314  13.700   8.716
47177SOL    HW243429   6.217  13.784   8.635
47178SOL     OW43430  14.604   8.875  10.894
47178SOL    HW143431  14.688   8.878  10.847
47178SOL    HW243432  14.567   8.790  10.869
47179SOL     OW43433  11.904   7.193   4.004
47179SOL    HW143434  11.919   7.147   4.087
47179SOL    HW243435  11.810   7.213   4.004
47180SOL     OW43436  11.260   2.489   7.103
47180SOL    HW143437  11.196   2.534   7.159
47180SOL    HW243438  11.236   2.397   7.109
47181SOL     OW43439   4.897   6.058  13.727
47181SOL    HW143440   4.901   6.147  13.692
47181SOL    HW243441   4.935   6.065  13.814
47182SOL     OW43442  12.517  12.805   0.741
47182SOL    HW143443  12.454  12.778   0.808
47182SOL    HW243444  12.555  12.723   0.709
47183SOL     OW43445   5.625   5.114  13.165
47183SOL    HW143446   5.539   5.114  13.124
47183SOL    HW243447   5.659   5.202  13.151
47184SOL     OW43448   4.708  12.019   2.272
47184SOL    HW143449   4.749  11.939   2.241
47184SOL    HW243450   4.632  11.989   2.323
47185SOL     OW43451   8.882  12.439   3.662
47185SOL    HW143452   8.812  12.423   3.726
47185SOL    HW243453   8.923  12.353   3.650
47186SOL     OW43454   4.729   9.582   3.302
47186SOL    HW143455   4.809   9.631   3.324
47186SOL    HW243456   4.659   9.630   3.348
47187SOL     OW43457  11.539   4.288  13.459
47187SOL    HW143458  11.608   4.300  13.395
47187SOL    HW243459  11.469   4.243  13.411
47188SOL     OW43460  10.659   1.390  12.309
47188SOL    HW143461  10.695   1.476  12.285
47188SOL    HW243462  10.709   1.328  12.256
47189SOL     OW43463   8.596   4.935   8.518
47189SOL    HW143464   8.547   4.861   8.482
47189SOL    HW243465   8.673   4.943   8.462
47190SOL     OW43466  10.241   0.337   5.594
47190SOL    HW143467  10.219   0.268   5.531
47190SOL    HW243468  10.199   0.415   5.559
47191SOL     OW43469   6.898   3.400   3.820
47191SOL    HW143470   6.989   3.406   3.790
47191SOL    HW243471   6.866   3.318   3.783
47192SOL     OW43472   0.282  13.367   6.114
47192SOL    HW143473   0.357  13.360   6.054
47192SOL    HW243474   0.309  13.316   6.191
47193SOL     OW43475   0.736  10.909  13.886
47193SOL    HW143476   0.651  10.943  13.856
47193SOL    HW243477   0.761  10.847  13.817
47194SOL     OW43478   7.014  12.123  12.386
47194SOL    HW143479   7.012  12.043  12.334
47194SOL    HW243480   7.056  12.097  12.468
47195SOL     OW43481   2.364  13.077   1.312
47195SOL    HW143482   2.270  13.076   1.296
47195SOL    HW243483   2.398  13.142   1.251
47196SOL     OW43484   5.984  11.466   2.895
47196SOL    HW143485   5.907  11.520   2.881
47196SOL    HW243486   5.958  11.379   2.865
47197SOL     OW43487  11.629  11.060  12.004
47197SOL    HW143488  11.651  11.043  12.096
47197SOL    HW243489  11.640  11.154  11.994
47198SOL     OW43490  12.261   4.915  14.560
47198SOL    HW143491  12.200   4.861  14.510
47198SOL    HW243492  12.279   4.863  14.639
47199SOL     OW43493   2.126   7.907   2.398
47199SOL    HW143494   2.055   7.904   2.462
47199SOL    HW243495   2.203   7.932   2.449
47200SOL     OW43496   6.355   6.324  10.753
47200SOL    HW143497   6.399   6.290  10.675
47200SOL    HW243498   6.424   6.329  10.819
47201SOL     OW43499  13.227  14.196  14.001
47201SOL    HW143500  13.181  14.176  14.082
47201SOL    HW243501  13.320  14.182  14.021
47202SOL     OW43502  13.961   5.672  13.666
47202SOL    HW143503  14.034   5.734  13.673
47202SOL    HW243504  13.884   5.727  13.649
47203SOL     OW43505   6.908  12.990   4.793
47203SOL    HW143506   6.938  12.998   4.703
47203SOL    HW243507   6.813  13.001   4.788
47204SOL     OW43508   8.300   5.816  14.081
47204SOL    HW143509   8.266   5.862  14.158
47204SOL    HW243510   8.223   5.796  14.029
47205SOL     OW43511   0.373  10.857   1.455
47205SOL    HW143512   0.438  10.924   1.477
47205SOL    HW243513   0.347  10.877   1.365
47206SOL     OW43514   5.061   3.408  14.858
47206SOL    HW143515   5.091   3.330  14.811
47206SOL    HW243516   5.142   3.455   0.010
47207SOL     OW43517   6.630  11.842   0.242
47207SOL    HW143518   6.554  11.872   0.292
47207SOL    HW243519   6.604  11.851   0.150
47208SOL     OW43520   1.378   9.782   7.707
47208SOL    HW143521   1.293   9.742   7.725
47208SOL    HW243522   1.385   9.782   7.612
47209SOL     OW43523  13.943   1.596   7.159
47209SOL    HW143524  13.942   1.503   7.139
47209SOL    HW243525  13.950   1.639   7.073
47210SOL     OW43526   7.125   9.316   8.588
47210SOL    HW143527   7.038   9.305   8.627
47210SOL    HW243528   7.134   9.410   8.574
47211SOL     OW43529  10.545   7.009   5.700
47211SOL    HW143530  10.569   6.955   5.775
47211SOL    HW243531  10.481   7.071   5.734
47212SOL     OW43532   0.807   3.414   6.488
47212SOL    HW143533   0.887   3.451   6.452
47212SOL    HW243534   0.803   3.449   6.577
47213SOL     OW43535   7.074   8.514   4.595
47213SOL    HW143536   7.119   8.448   4.647
47213SOL    HW243537   6.997   8.469   4.561
47214SOL     OW43538   9.745   0.767  11.985
47214SOL    HW143539   9.656   0.739  11.964
47214SOL    HW243540   9.740   0.799  12.075
47215SOL     OW43541   9.818   8.492  13.850
47215SOL    HW143542   9.732   8.478  13.810
47215SOL    HW243543   9.847   8.405  13.877
47216SOL     OW43544   2.589   5.935   4.510
47216SOL    HW143545   2.605   5.875   4.583
47216SOL    HW243546   2.676   5.959   4.479
47217SOL     OW43547   7.545   7.283   8.521
47217SOL    HW143548   7.496   7.331   8.454
47217SOL    HW243549   7.574   7.351   8.582
47218SOL     OW43550   4.913   6.912   8.805
47218SOL    HW143551   4.854   6.889   8.733
47218SOL    HW243552   4.975   6.839   8.809
47219SOL     OW43553   1.688   5.043   4.776
47219SOL    HW143554   1.698   5.107   4.705
47219SOL    HW243555   1.761   4.982   4.764
47220SOL     OW43556  13.915  10.746   4.845
47220SOL    HW143557  13.998  10.765   4.890
47220SOL    HW243558  13.880  10.670   4.892
47221SOL     OW43559   8.668   6.783  10.282
47221SOL    HW143560   8.575   6.801  10.290
47221SOL    HW243561   8.707   6.867  10.259
47222SOL     OW43562   9.654   4.580   6.179
47222SOL    HW143563   9.693   4.569   6.093
47222SOL    HW243564   9.575   4.525   6.177
47223SOL     OW43565   4.556   9.262   2.685
47223SOL    HW143566   4.630   9.256   2.626
47223SOL    HW243567   4.558   9.352   2.718
47224SOL     OW43568   2.998  11.252   9.065
47224SOL    HW143569   2.935  11.266   8.994
47224SOL    HW243570   2.943  11.246   9.144
47225SOL     OW43571  12.393   0.223   1.448
47225SOL    HW143572  12.323   0.284   1.475
47225SOL    HW243573  12.474   0.267   1.475
47226SOL     OW43574   4.724  12.110   1.604
47226SOL    HW143575   4.777  12.099   1.683
47226SOL    HW243576   4.675  12.029   1.596
47227SOL     OW43577   6.083   5.273   2.022
47227SOL    HW143578   6.063   5.180   2.034
47227SOL    HW243579   6.137   5.275   1.943
47228SOL     OW43580  12.625   3.177   2.021
47228SOL    HW143581  12.623   3.169   2.116
47228SOL    HW243582  12.656   3.266   2.005
47229SOL     OW43583   6.810  14.750   9.518
47229SOL    HW143584   6.858  14.807   9.579
47229SOL    HW243585   6.743  14.807   9.480
47230SOL     OW43586   0.305   5.425  11.035
47230SOL    HW143587   0.252   5.415  11.114
47230SOL    HW243588   0.376   5.483  11.062
47231SOL     OW43589   6.979  14.222   3.062
47231SOL    HW143590   6.950  14.313   3.072
47231SOL    HW243591   7.008  14.196   3.150
47232SOL     OW43592   2.794   1.594  13.681
47232SOL    HW143593   2.800   1.578  13.775
47232SOL    HW243594   2.718   1.542  13.652
47233SOL     OW43595   1.380   9.526  13.980
47233SOL    HW143596   1.347   9.601  13.931
47233SOL    HW243597   1.406   9.562  14.065
47234SOL     OW43598   5.380  13.461  11.029
47234SOL    HW143599   5.336  13.379  11.053
47234SOL    HW243600   5.466  13.432  10.998
47235SOL     OW43601   8.209   2.607   2.500
47235SOL    HW143602   8.128   2.651   2.476
47235SOL    HW243603   8.186   2.514   2.503
47236SOL     OW43604  13.785   8.960   7.654
47236SOL    HW143605  13.751   8.884   7.701
47236SOL    HW243606  13.707   9.010   7.630
47237SOL     OW43607   6.340   1.416   2.028
47237SOL    HW143608   6.391   1.342   1.995
47237SOL    HW243609   6.277   1.434   1.959
47238SOL     OW43610   3.795  12.858   2.306
47238SOL    HW143611   3.832  12.938   2.343
47238SOL    HW243612   3.812  12.790   2.372
47239SOL     OW43613  10.219   2.550  13.432
47239SOL    HW143614  10.152   2.482  13.425
47239SOL    HW243615  10.229   2.583  13.342
47240SOL     OW43616   9.981   0.038  11.288
47240SOL    HW143617   9.940   0.024  11.203
47240SOL    HW243618  10.041   0.111  11.274
47241SOL     OW43619   0.150   7.349   7.117
47241SOL    HW143620   0.078   7.289   7.098
47241SOL    HW243621   0.181   7.321   7.203
47242SOL     OW43622   8.658   9.993   0.119
47242SOL    HW143623   8.696  10.044   0.048
47242SOL    HW243624   8.729   9.983   0.183
47243SOL     OW43625   7.902   5.312   0.468
47243SOL    HW143626   7.914   5.394   0.420
47243SOL    HW243627   7.868   5.339   0.554
47244SOL     OW43628   8.681  11.244   4.821
47244SOL    HW143629   8.726  11.328   4.828
47244SOL    HW243630   8.615  11.257   4.753
47245SOL     OW43631   4.494   7.191  10.601
47245SOL    HW143632   4.435   7.120  10.627
47245SOL    HW243633   4.488   7.254  10.673
47246SOL     OW43634   7.441  10.727  14.462
47246SOL    HW143635   7.459  10.821  14.454
47246SOL    HW243636   7.512  10.694  14.517
47247SOL     OW43637   8.336   2.651  13.534
47247SOL    HW143638   8.414   2.612  13.496
47247SOL    HW243639   8.368   2.711  13.601
47248SOL     OW43640   9.722   7.998   9.309
47248SOL    HW143641   9.695   8.083   9.344
47248SOL    HW243642   9.642   7.947   9.307
47249SOL     OW43643   8.133   9.054  12.126
47249SOL    HW143644   8.184   9.135  12.135
47249SOL    HW243645   8.190   8.985  12.160
47250SOL     OW43646   5.033   2.470   9.038
47250SOL    HW143647   5.094   2.435   9.103
47250SOL    HW243648   4.952   2.421   9.054
47251SOL     OW43649   5.353   2.473  10.784
47251SOL    HW143650   5.286   2.528  10.743
47251SOL    HW243651   5.340   2.387  10.744
47252SOL     OW43652   1.202   1.897   6.204
47252SOL    HW143653   1.269   1.920   6.140
47252SOL    HW243654   1.167   1.981   6.233
47253SOL     OW43655   3.883  14.750   4.846
47253SOL    HW143656   3.843  14.831   4.879
47253SOL    HW243657   3.809  14.690   4.837
47254SOL     OW43658   9.611  14.002   2.572
47254SOL    HW143659   9.673  13.967   2.508
47254SOL    HW243660   9.565  13.925   2.606
47255SOL     OW43661  10.737   5.612  12.132
47255SOL    HW143662  10.810   5.588  12.076
47255SOL    HW243663  10.761   5.580  12.219
47256SOL     OW43664  11.800  12.109   5.690
47256SOL    HW143665  11.839  12.182   5.739
47256SOL    HW243666  11.807  12.034   5.749
47257SOL     OW43667   2.689   3.256   3.548
47257SOL    HW143668   2.687   3.303   3.632
47257SOL    HW243669   2.739   3.314   3.490
47258SOL     OW43670  12.082   3.152   3.420
47258SOL    HW143671  12.097   3.081   3.483
47258SOL    HW243672  12.008   3.121   3.367
47259SOL     OW43673  11.608   6.258   5.140
47259SOL    HW143674  11.613   6.216   5.226
47259SOL    HW243675  11.533   6.215   5.098
47260SOL     OW43676  14.679   1.248   8.421
47260SOL    HW143677  14.662   1.255   8.515
47260SOL    HW243678  14.625   1.175   8.392
47261SOL     OW43679   5.690   6.100  10.179
47261SOL    HW143680   5.727   6.156  10.111
47261SOL    HW243681   5.613   6.146  10.210
47262SOL     OW43682   2.325   4.790   1.333
47262SOL    HW143683   2.273   4.782   1.253
47262SOL    HW243684   2.410   4.753   1.311
47263SOL     OW43685   9.218   3.579   8.621
47263SOL    HW143686   9.223   3.557   8.714
47263SOL    HW243687   9.276   3.517   8.578
47264SOL     OW43688   5.837   2.191  10.081
47264SOL    HW143689   5.783   2.264  10.051
47264SOL    HW243690   5.926   2.213  10.053
47265SOL     OW43691   7.526   1.212   6.290
47265SOL    HW143692   7.480   1.186   6.370
47265SOL    HW243693   7.614   1.176   6.300
47266SOL     OW43694   8.373   2.973  10.058
47266SOL    HW143695   8.366   3.066  10.080
47266SOL    HW243696   8.394   2.972   9.964
47267SOL     OW43697   5.552  11.034  13.845
47267SOL    HW143698   5.553  10.995  13.757
47267SOL    HW243699   5.460  11.028  13.872
47268SOL     OW43700   8.461   6.544   1.571
47268SOL    HW143701   8.500   6.474   1.624
47268SOL    HW243702   8.451   6.617   1.632
47269SOL     OW43703   7.187   2.158   8.441
47269SOL    HW143704   7.139   2.089   8.486
47269SOL    HW243705   7.147   2.239   8.473
47270SOL     OW43706   2.215   2.678   3.406
47270SOL    HW143707   2.251   2.732   3.476
47270SOL    HW243708   2.278   2.608   3.394
47271SOL     OW43709  10.996   6.536   8.860
47271SOL    HW143710  10.914   6.499   8.894
47271SOL    HW243711  10.975   6.627   8.841
47272SOL     OW43712   6.844   4.695   9.105
47272SOL    HW143713   6.863   4.609   9.142
47272SOL    HW243714   6.882   4.756   9.169
47273SOL     OW43715  14.241   6.684   6.003
47273SOL    HW143716  14.321   6.718   5.963
47273SOL    HW243717  14.218   6.750   6.069
47274SOL     OW43718   6.802   2.793   0.009
47274SOL    HW143719   6.807   2.737   0.087
47274SOL    HW243720   6.854   2.747  14.813
47275SOL     OW43721  12.892  12.323  13.486
47275SOL    HW143722  12.932  12.336  13.400
47275SOL    HW243723  12.917  12.234  13.511
47276SOL     OW43724  13.897   6.996   8.244
47276SOL    HW143725  13.803   6.989   8.225
47276SOL    HW243726  13.923   6.907   8.268
47277SOL     OW43727   0.815   0.969  13.074
47277SOL    HW143728   0.910   0.982  13.069
47277SOL    HW243729   0.803   0.911  13.149
47278SOL     OW43730   3.921   7.132   9.227
47278SOL    HW143731   3.857   7.116   9.297
47278SOL    HW243732   3.873   7.114   9.146
47279SOL     OW43733   1.249   9.169  11.918
47279SOL    HW143734   1.289   9.091  11.955
47279SOL    HW243735   1.161   9.142  11.893
47280SOL     OW43736   6.333   8.671  11.080
47280SOL    HW143737   6.256   8.616  11.068
47280SOL    HW243738   6.299   8.751  11.120
47281SOL     OW43739   2.244   3.507   7.779
47281SOL    HW143740   2.304   3.483   7.708
47281SOL    HW243741   2.235   3.602   7.770
47282SOL     OW43742  11.545   9.461   2.752
47282SOL    HW143743  11.505   9.374   2.757
47282SOL    HW243744  11.556   9.478   2.659
47283SOL     OW43745   2.851   2.178   5.119
47283SOL    HW143746   2.886   2.254   5.073
47283SOL    HW243747   2.799   2.215   5.191
47284SOL     OW43748   2.272  13.216  10.786
47284SOL    HW143749   2.365  13.196  10.789
47284SOL    HW243750   2.266  13.308  10.812
47285SOL     OW43751   9.653   0.243  11.681
47285SOL    HW143752   9.593   0.262  11.608
47285SOL    HW243753   9.652   0.322  11.735
47286SOL     OW43754   5.650   1.220   6.998
47286SOL    HW143755   5.745   1.214   7.003
47286SOL    HW243756   5.618   1.152   7.058
47287SOL     OW43757  13.132   0.250   4.457
47287SOL    HW143758  13.221   0.221   4.436
47287SOL    HW243759  13.139   0.345   4.462
47288SOL     OW43760   9.476   2.839   8.309
47288SOL    HW143761   9.517   2.842   8.222
47288SOL    HW243762   9.384   2.859   8.293
47289SOL     OW43763  13.733   2.043  14.277
47289SOL    HW143764  13.734   2.123  14.329
47289SOL    HW243765  13.653   2.050  14.224
47290SOL     OW43766  11.825   8.740   4.941
47290SOL    HW143767  11.733   8.726   4.964
47290SOL    HW243768  11.832   8.709   4.851
47291SOL     OW43769  14.455  14.138  12.674
47291SOL    HW143770  14.394  14.134  12.748
47291SOL    HW243771  14.525  14.196  12.703
47292SOL     OW43772   3.710  13.189  14.559
47292SOL    HW143773   3.644  13.199  14.627
47292SOL    HW243774   3.741  13.278  14.542
47293SOL     OW43775   0.998   8.620  14.714
47293SOL    HW143776   0.916   8.620  14.764
47293SOL    HW243777   0.969   8.623  14.622
47294SOL     OW43778   0.918  14.084   3.261
47294SOL    HW143779   0.920  14.100   3.166
47294SOL    HW243780   0.846  14.139   3.292
47295SOL     OW43781   2.052   1.997  12.381
47295SOL    HW143782   2.143   2.021  12.364
47295SOL    HW243783   2.027   1.945  12.304
47296SOL     OW43784  10.403  13.938  10.344
47296SOL    HW143785  10.498  13.942  10.350
47296SOL    HW243786  10.374  13.918  10.433
47297SOL     OW43787   1.906   6.249   2.639
47297SOL    HW143788   1.906   6.338   2.604
47297SOL    HW243789   1.815   6.222   2.635
47298SOL     OW43790   0.267   3.486   6.113
47298SOL    HW143791   0.359   3.477   6.087
47298SOL    HW243792   0.221   3.419   6.062
47299SOL     OW43793   9.282  10.735  11.487
47299SOL    HW143794   9.234  10.774  11.560
47299SOL    HW243795   9.237  10.651  11.472
47300SOL     OW43796  14.234  13.056   7.677
47300SOL    HW143797  14.269  13.023   7.594
47300SOL    HW243798  14.284  13.136   7.694
47301SOL     OW43799   6.162   8.353   2.368
47301SOL    HW143800   6.156   8.440   2.407
47301SOL    HW243801   6.161   8.293   2.443
47302SOL     OW43802  11.219   1.063   3.622
47302SOL    HW143803  11.183   1.030   3.540
47302SOL    HW243804  11.290   1.002   3.643
47303SOL     OW43805   0.830   4.625  13.769
47303SOL    HW143806   0.917   4.657  13.791
47303SOL    HW243807   0.843   4.533  13.747
47304SOL     OW43808   3.399  13.230   3.399
47304SOL    HW143809   3.352  13.241   3.482
47304SOL    HW243810   3.420  13.137   3.396
47305SOL     OW43811   6.627   3.055   3.489
47305SOL    HW143812   6.561   3.107   3.534
47305SOL    HW243813   6.585   2.971   3.474
47306SOL     OW43814  11.626   5.924   1.317
47306SOL    HW143815  11.557   5.866   1.348
47306SOL    HW243816  11.589   6.012   1.323
47307SOL     OW43817   5.793  10.022  13.393
47307SOL    HW143818   5.800   9.970  13.313
47307SOL    HW243819   5.749  10.102  13.366
47308SOL     OW43820   6.637   1.014   8.680
47308SOL    HW143821   6.602   1.090   8.727
47308SOL    HW243822   6.723   0.999   8.719
47309SOL     OW43823  10.934   0.336  11.999
47309SOL    HW143824  10.924   0.380  12.083
47309SOL    HW243825  10.998   0.389  11.952
47310SOL     OW43826  13.371  12.958   2.671
47310SOL    HW143827  13.439  12.911   2.623
47310SOL    HW243828  13.305  12.981   2.605
47311SOL     OW43829  10.407   7.933   7.320
47311SOL    HW143830  10.375   7.915   7.231
47311SOL    HW243831  10.487   7.984   7.307
47312SOL     OW43832  12.742   8.800   0.406
47312SOL    HW143833  12.708   8.715   0.379
47312SOL    HW243834  12.837   8.793   0.395
47313SOL     OW43835   3.969  13.135   0.980
47313SOL    HW143836   3.949  13.084   1.058
47313SOL    HW243837   3.889  13.132   0.928
47314SOL     OW43838   5.605   4.694   9.938
47314SOL    HW143839   5.578   4.766   9.882
47314SOL    HW243840   5.531   4.680   9.997
47315SOL     OW43841   2.485   7.337   3.037
47315SOL    HW143842   2.425   7.303   3.104
47315SOL    HW243843   2.540   7.400   3.083
47316SOL     OW43844   0.685   8.769  10.710
47316SOL    HW143845   0.633   8.690  10.722
47316SOL    HW243846   0.745   8.770  10.785
47317SOL     OW43847   1.719   6.245  14.517
47317SOL    HW143848   1.772   6.273  14.592
47317SOL    HW243849   1.681   6.326  14.483
47318SOL     OW43850   7.935  11.496  11.041
47318SOL    HW143851   7.964  11.420  10.992
47318SOL    HW243852   7.878  11.543  10.980
47319SOL     OW43853  13.806  10.219   8.988
47319SOL    HW143854  13.866  10.254   9.054
47319SOL    HW243855  13.859  10.213   8.909
47320SOL     OW43856  13.318   9.071   7.971
47320SOL    HW143857  13.276   9.100   8.052
47320SOL    HW243858  13.246   9.062   7.908
47321SOL     OW43859   1.890   9.986   4.142
47321SOL    HW143860   1.836  10.063   4.122
47321SOL    HW243861   1.828   9.913   4.141
47322SOL     OW43862  11.856   1.603  11.443
47322SOL    HW143863  11.815   1.522  11.473
47322SOL    HW243864  11.926   1.619  11.506
47323SOL     OW43865   0.242  13.525  11.848
47323SOL    HW143866   0.304  13.458  11.877
47323SOL    HW243867   0.174  13.526  11.915
47324SOL     OW43868   3.628  14.557   7.726
47324SOL    HW143869   3.688  14.493   7.765
47324SOL    HW243870   3.634  14.634   7.783
47325SOL     OW43871  13.616   9.006  13.697
47325SOL    HW143872  13.568   8.989  13.616
47325SOL    HW243873  13.558   8.976  13.767
47326SOL     OW43874   3.216  10.302  13.299
47326SOL    HW143875   3.279  10.230  13.309
47326SOL    HW243876   3.255  10.358  13.232
47327SOL     OW43877  10.110   6.949   7.620
47327SOL    HW143878  10.054   6.873   7.602
47327SOL    HW243879  10.198   6.912   7.626
47328SOL     OW43880  10.773   8.986   3.949
47328SOL    HW143881  10.751   8.932   4.025
47328SOL    HW243882  10.706   9.054   3.948
47329SOL     OW43883   9.049   3.492   7.112
47329SOL    HW143884   9.047   3.428   7.183
47329SOL    HW243885   9.092   3.445   7.040
47330SOL     OW43886   7.532   3.869   9.393
47330SOL    HW143887   7.452   3.921   9.394
47330SOL    HW243888   7.583   3.903   9.320
47331SOL     OW43889  13.719   7.879   8.730
47331SOL    HW143890  13.659   7.865   8.657
47331SOL    HW243891  13.787   7.936   8.694
47332SOL     OW43892   6.275   2.032   4.750
47332SOL    HW143893   6.205   2.069   4.804
47332SOL    HW243894   6.350   2.025   4.809
47333SOL     OW43895   9.085   4.592  12.982
47333SOL    HW143896   9.164   4.544  12.959
47333SOL    HW243897   9.109   4.642  13.060
47334SOL     OW43898   1.411  11.018   5.753
47334SOL    HW143899   1.373  11.099   5.788
47334SOL    HW243900   1.442  10.971   5.829
47335SOL     OW43901  12.987   4.031   3.416
47335SOL    HW143902  12.894   4.010   3.419
47335SOL    HW243903  12.991   4.126   3.423
47336SOL     OW43904   8.466   4.120  12.387
47336SOL    HW143905   8.522   4.049  12.417
47336SOL    HW243906   8.527   4.186  12.353
47337SOL     OW43907   7.841   1.041   8.314
47337SOL    HW143908   7.901   1.060   8.242
47337SOL    HW243909   7.808   0.953   8.295
47338SOL     OW43910  12.828   0.464  12.414
47338SOL    HW143911  12.868   0.406  12.350
47338SOL    HW243912  12.897   0.481  12.478
47339SOL     OW43913   0.444   3.768   6.243
47339SOL    HW143914   0.460   3.691   6.190
47339SOL    HW243915   0.409   3.833   6.182
47340SOL     OW43916  14.225   4.882  14.244
47340SOL    HW143917  14.186   4.816  14.187
47340SOL    HW243918  14.261   4.948  14.185
47341SOL     OW43919  10.099   5.425   7.306
47341SOL    HW143920  10.128   5.374   7.231
47341SOL    HW243921  10.010   5.394   7.324
47342SOL     OW43922  11.126   4.155   2.918
47342SOL    HW143923  11.085   4.231   2.877
47342SOL    HW243924  11.100   4.081   2.863
47343SOL     OW43925   8.817  10.854   8.882
47343SOL    HW143926   8.853  10.777   8.839
47343SOL    HW243927   8.764  10.897   8.815
47344SOL     OW43928  13.875   0.702  11.587
47344SOL    HW143929  13.817   0.657  11.525
47344SOL    HW243930  13.863   0.795  11.568
47345SOL     OW43931   9.775   6.266   1.669
47345SOL    HW143932   9.767   6.300   1.758
47345SOL    HW243933   9.843   6.320   1.629
47346SOL     OW43934   5.148   2.977  11.426
47346SOL    HW143935   5.182   2.933  11.348
47346SOL    HW243936   5.200   3.056  11.434
47347SOL     OW43937   3.457   3.889   5.999
47347SOL    HW143938   3.388   3.910   5.935
47347SOL    HW243939   3.529   3.947   5.975
47348SOL     OW43940   0.544   0.445   1.102
47348SOL    HW143941   0.639   0.436   1.094
47348SOL    HW243942   0.530   0.540   1.103
47349SOL     OW43943   1.776   6.715   2.739
47349SOL    HW143944   1.802   6.708   2.831
47349SOL    HW243945   1.722   6.638   2.723
47350SOL     OW43946   0.263   7.797  14.019
47350SOL    HW143947   0.208   7.865  14.058
47350SOL    HW243948   0.300   7.839  13.941
47351SOL     OW43949   3.714  12.784   8.145
47351SOL    HW143950   3.654  12.841   8.097
47351SOL    HW243951   3.701  12.808   8.237
47352SOL     OW43952   1.849   1.382  10.238
47352SOL    HW143953   1.830   1.463  10.286
47352SOL    HW243954   1.944   1.383  10.226
47353SOL     OW43955  10.503   5.564  12.983
47353SOL    HW143956  10.498   5.610  12.900
47353SOL    HW243957  10.473   5.475  12.964
47354SOL     OW43958  11.808   8.064   0.373
47354SOL    HW143959  11.727   8.078   0.325
47354SOL    HW243960  11.805   7.973   0.402
47355SOL     OW43961   8.909   4.217   4.761
47355SOL    HW143962   8.848   4.290   4.768
47355SOL    HW243963   8.954   4.231   4.678
47356SOL     OW43964   4.967   4.962  12.251
47356SOL    HW143965   4.937   5.052  12.255
47356SOL    HW243966   5.018   4.949  12.330
47357SOL     OW43967   2.211   6.643  14.350
47357SOL    HW143968   2.202   6.650  14.255
47357SOL    HW243969   2.304   6.657  14.366
47358SOL     OW43970   7.453   3.169  12.697
47358SOL    HW143971   7.476   3.143  12.608
47358SOL    HW243972   7.366   3.131  12.711
47359SOL     OW43973   1.737   8.418   5.389
47359SOL    HW143974   1.648   8.415   5.425
47359SOL    HW243975   1.754   8.328   5.360
47360SOL     OW43976  12.765  12.349   2.161
47360SOL    HW143977  12.721  12.307   2.235
47360SOL    HW243978  12.701  12.413   2.129
47361SOL     OW43979   3.894   2.623  11.447
47361SOL    HW143980   3.876   2.530  11.455
47361SOL    HW243981   3.914   2.636  11.354
47362SOL     OW43982   5.210  12.102  10.272
47362SOL    HW143983   5.205  12.196  10.254
47362SOL    HW243984   5.183  12.060  10.190
47363SOL     OW43985   5.611   3.960   6.955
47363SOL    HW143986   5.548   3.995   7.018
47363SOL    HW243987   5.696   3.983   6.992
47364SOL     OW43988  11.135   8.240  13.234
47364SOL    HW143989  11.080   8.317  13.222
47364SOL    HW243990  11.078   8.176  13.276
47365SOL     OW43991   0.358   7.458   2.890
47365SOL    HW143992   0.427   7.451   2.824
47365SOL    HW243993   0.284   7.495   2.842
47366SOL     OW43994  14.454  13.423   6.356
47366SOL    HW143995  14.418  13.409   6.443
47366SOL    HW243996  14.396  13.487   6.315
47367SOL     OW43997   6.204   4.840  14.733
47367SOL    HW143998   6.155   4.757  14.728
47367SOL    HW243999   6.137   4.908  14.723
47368SOL     OW44000  12.919  14.183   6.413
47368SOL    HW144001  13.008  14.199   6.444
47368SOL    HW244002  12.929  14.125   6.338
47369SOL     OW44003   8.570   4.654   3.678
47369SOL    HW144004   8.640   4.655   3.744
47369SOL    HW244005   8.615   4.643   3.595
47370SOL     OW44006   6.075   7.442  10.761
47370SOL    HW144007   6.021   7.376  10.803
47370SOL    HW244008   6.060   7.522  10.812
47371SOL     OW44009   4.966  14.285   7.374
47371SOL    HW144010   4.906  14.288   7.299
47371SOL    HW244011   5.035  14.225   7.348
47372SOL     OW44012   4.384   2.117   5.019
47372SOL    HW144013   4.328   2.178   4.970
47372SOL    HW244014   4.326   2.045   5.043
47373SOL     OW44015  10.613   7.861   6.777
47373SOL    HW144016  10.698   7.896   6.802
47373SOL    HW244017  10.610   7.773   6.816
47374SOL     OW44018   8.889  13.569  12.707
47374SOL    HW144019   8.867  13.630  12.777
47374SOL    HW244020   8.850  13.486  12.735
47375SOL     OW44021   1.891   8.014   3.364
47375SOL    HW144022   1.835   7.957   3.311
47375SOL    HW244023   1.833   8.084   3.393
47376SOL     OW44024   4.951  10.911   0.403
47376SOL    HW144025   4.873  10.967   0.409
47376SOL    HW244026   4.932  10.837   0.461
47377SOL     OW44027   3.551   8.057  12.252
47377SOL    HW144028   3.572   7.985  12.192
47377SOL    HW244029   3.631   8.071  12.302
47378SOL     OW44030   6.467   8.969   0.876
47378SOL    HW144031   6.552   8.943   0.910
47378SOL    HW244032   6.485   9.047   0.824
47379SOL     OW44033   8.440   7.704   5.906
47379SOL    HW144034   8.439   7.616   5.942
47379SOL    HW244035   8.429   7.762   5.981
47380SOL     OW44036  13.246   6.890   2.969
47380SOL    HW144037  13.265   6.976   2.934
47380SOL    HW244038  13.200   6.844   2.899
47381SOL     OW44039   2.912   2.130   8.772
47381SOL    HW144040   2.959   2.210   8.748
47381SOL    HW244041   2.822   2.145   8.741
47382SOL     OW44042  13.059   5.689   9.540
47382SOL    HW144043  13.122   5.762   9.535
47382SOL    HW244044  12.974   5.731   9.543
47383SOL     OW44045   1.007  11.635   4.443
47383SOL    HW144046   0.916  11.643   4.470
47383SOL    HW244047   1.058  11.638   4.524
47384SOL     OW44048   4.050   2.196   3.936
47384SOL    HW144049   3.986   2.266   3.950
47384SOL    HW244050   4.010   2.140   3.870
47385SOL     OW44051   2.908   0.041   8.939
47385SOL    HW144052   2.829  14.858   8.925
47385SOL    HW244053   2.925   0.035   9.033
47386SOL     OW44054   7.121   3.278   5.208
47386SOL    HW144055   7.082   3.271   5.295
47386SOL    HW244056   7.181   3.204   5.202
47387SOL     OW44057   6.920  14.204  10.269
47387SOL    HW144058   6.862  14.128  10.282
47387SOL    HW244059   6.882  14.272  10.324
47388SOL     OW44060   4.455   8.909   1.518
47388SOL    HW144061   4.417   8.829   1.484
47388SOL    HW244062   4.408   8.925   1.600
47389SOL     OW44063  13.327  11.089   8.249
47389SOL    HW144064  13.394  11.157   8.247
47389SOL    HW244065  13.355  11.025   8.184
47390SOL     OW44066   1.037   6.159   3.441
47390SOL    HW144067   1.058   6.182   3.350
47390SOL    HW244068   1.086   6.221   3.494
47391SOL     OW44069  12.737   8.343   6.136
47391SOL    HW144070  12.738   8.268   6.197
47391SOL    HW244071  12.770   8.416   6.188
47392SOL     OW44072  10.958   5.749   5.832
47392SOL    HW144073  10.958   5.820   5.897
47392SOL    HW244074  10.906   5.784   5.759
47393SOL     OW44075  13.085   6.874  12.275
47393SOL    HW144076  13.040   6.791  12.289
47393SOL    HW244077  13.070   6.924  12.355
47394SOL     OW44078   5.644   5.250  14.062
47394SOL    HW144079   5.609   5.286  14.143
47394SOL    HW244080   5.739   5.247  14.075
47395SOL     OW44081   0.326  10.262   2.897
47395SOL    HW144082   0.330  10.186   2.955
47395SOL    HW244083   0.387  10.242   2.826
47396SOL     OW44084   0.832   8.709  11.297
47396SOL    HW144085   0.764   8.736  11.235
47396SOL    HW244086   0.816   8.615  11.310
47397SOL     OW44087   7.905   1.392  11.036
47397SOL    HW144088   7.900   1.297  11.025
47397SOL    HW244089   7.864   1.427  10.957
47398SOL     OW44090   5.929  10.210  12.443
47398SOL    HW144091   5.927  10.295  12.399
47398SOL    HW244092   5.849  10.166  12.413
47399SOL     OW44093   4.025   5.265   1.908
47399SOL    HW144094   4.103   5.316   1.888
47399SOL    HW244095   3.957   5.330   1.925
47400SOL     OW44096   7.989   7.854  10.849
47400SOL    HW144097   7.903   7.834  10.812
47400SOL    HW244098   7.988   7.814  10.936
47401SOL     OW44099   3.021  12.911  10.931
47401SOL    HW144100   2.926  12.903  10.939
47401SOL    HW244101   3.049  12.826  10.896
47402SOL     OW44102   7.439   0.121   6.514
47402SOL    HW144103   7.407   0.210   6.527
47402SOL    HW244104   7.417   0.101   6.423
47403SOL     OW44105  12.969  10.625   8.590
47403SOL    HW144106  13.031  10.601   8.520
47403SOL    HW244107  12.886  10.638   8.545
47404SOL     OW44108  11.030   1.394   5.226
47404SOL    HW144109  10.944   1.361   5.200
47404SOL    HW244110  11.025   1.488   5.209
47405SOL     OW44111   2.653   6.866  11.498
47405SOL    HW144112   2.640   6.790  11.555
47405SOL    HW244113   2.582   6.861  11.434
47406SOL     OW44114   4.803   0.568   8.771
47406SOL    HW144115   4.876   0.603   8.822
47406SOL    HW244116   4.728   0.620   8.797
47407SOL     OW44117   7.446  14.628  10.487
47407SOL    HW144118   7.445  14.687  10.562
47407SOL    HW244119   7.520  14.570  10.504
47408SOL     OW44120   3.210   2.049   2.778
47408SOL    HW144121   3.129   2.101   2.775
47408SOL    HW244122   3.223   2.021   2.687
47409SOL     OW44123   0.375   8.776  13.143
47409SOL    HW144124   0.312   8.844  13.168
47409SOL    HW244125   0.321   8.706  13.105
47410SOL     OW44126   3.880  10.138   8.815
47410SOL    HW144127   3.973  10.149   8.836
47410SOL    HW244128   3.836  10.206   8.866
47411SOL     OW44129   0.694  12.707  12.546
47411SOL    HW144130   0.661  12.651  12.616
47411SOL    HW244131   0.715  12.790  12.590
47412SOL     OW44132   1.285  14.239   9.968
47412SOL    HW144133   1.250  14.321  10.002
47412SOL    HW244134   1.376  14.236  10.000
47413SOL     OW44135   2.625  11.787   9.164
47413SOL    HW144136   2.681  11.864   9.163
47413SOL    HW244137   2.542  11.818   9.201
47414SOL     OW44138  13.025  10.537   5.608
47414SOL    HW144139  13.086  10.541   5.534
47414SOL    HW244140  13.006  10.444   5.618
47415SOL     OW44141  14.234   0.884   8.443
47415SOL    HW144142  14.199   0.827   8.374
47415SOL    HW244143  14.272   0.958   8.396
47416SOL     OW44144   4.087  10.541  10.393
47416SOL    HW144145   4.116  10.580  10.475
47416SOL    HW244146   4.044  10.459  10.419
47417SOL     OW44147   8.665   6.563   2.831
47417SOL    HW144148   8.573   6.546   2.812
47417SOL    HW244149   8.711   6.486   2.797
47418SOL     OW44150   7.430  11.687  10.005
47418SOL    HW144151   7.514  11.711  10.044
47418SOL    HW244152   7.446  11.688   9.911
47419SOL     OW44153   8.863   0.560   6.358
47419SOL    HW144154   8.802   0.601   6.418
47419SOL    HW244155   8.843   0.600   6.273
47420SOL     OW44156  10.910   0.273   5.801
47420SOL    HW144157  10.827   0.261   5.848
47420SOL    HW244158  10.966   0.321   5.862
47421SOL     OW44159  11.925  10.738  10.337
47421SOL    HW144160  11.852  10.723  10.396
47421SOL    HW244161  11.975  10.656  10.338
47422SOL     OW44162  12.031   1.212   7.930
47422SOL    HW144163  12.076   1.136   7.967
47422SOL    HW244164  12.097   1.256   7.877
47423SOL     OW44165  10.720   8.104  10.735
47423SOL    HW144166  10.659   8.151  10.677
47423SOL    HW244167  10.678   8.105  10.820
47424SOL     OW44168  14.108  12.242  12.319
47424SOL    HW144169  14.041  12.270  12.381
47424SOL    HW244170  14.061  12.184  12.259
47425SOL     OW44171  11.519  10.984   9.688
47425SOL    HW144172  11.587  10.963   9.751
47425SOL    HW244173  11.500  11.077   9.702
47426SOL     OW44174   9.112   7.142  12.963
47426SOL    HW144175   9.168   7.074  13.000
47426SOL    HW244176   9.025   7.124  12.999
47427SOL     OW44177   1.487   9.640   3.051
47427SOL    HW144178   1.569   9.600   3.079
47427SOL    HW244179   1.493   9.731   3.080
47428SOL     OW44180   2.636   4.122  14.403
47428SOL    HW144181   2.708   4.069  14.368
47428SOL    HW244182   2.593   4.065  14.466
47429SOL     OW44183   8.627  10.634   2.183
47429SOL    HW144184   8.681  10.558   2.160
47429SOL    HW244185   8.668  10.669   2.263
47430SOL     OW44186   9.055   4.622   8.730
47430SOL    HW144187   9.034   4.692   8.668
47430SOL    HW244188   8.981   4.561   8.723
47431SOL     OW44189  10.575   8.359   6.794
47431SOL    HW144190  10.490   8.381   6.833
47431SOL    HW244191  10.557   8.284   6.737
47432SOL     OW44192   8.306   9.101  14.673
47432SOL    HW144193   8.242   9.040  14.636
47432SOL    HW244194   8.306   9.176  14.614
47433SOL     OW44195  13.305  12.506  14.223
47433SOL    HW144196  13.243  12.452  14.273
47433SOL    HW244197  13.267  12.511  14.136
47434SOL     OW44198  10.797   6.360   6.328
47434SOL    HW144199  10.858   6.356   6.254
47434SOL    HW244200  10.767   6.451   6.330
47435SOL     OW44201  14.843  14.311   6.459
47435SOL    HW144202  14.854  14.314   6.554
47435SOL    HW244203   0.062  14.301   6.425
47436SOL     OW44204  12.305  12.507   7.085
47436SOL    HW144205  12.366  12.509   7.011
47436SOL    HW244206  12.223  12.540   7.048
47437SOL     OW44207   1.015  14.173   3.691
47437SOL    HW144208   0.977  14.086   3.702
47437SOL    HW244209   0.944  14.227   3.658
47438SOL     OW44210   9.361  11.056  10.877
47438SOL    HW144211   9.405  11.135  10.908
47438SOL    HW244212   9.421  10.985  10.901
47439SOL     OW44213   8.557   0.943  12.134
47439SOL    HW144214   8.514   0.865  12.099
47439SOL    HW244215   8.644   0.942  12.096
47440SOL     OW44216   0.804  12.628   8.836
47440SOL    HW144217   0.751  12.706   8.820
47440SOL    HW244218   0.748  12.571   8.888
47441SOL     OW44219   8.409  12.766   7.255
47441SOL    HW144220   8.432  12.805   7.339
47441SOL    HW244221   8.351  12.830   7.214
47442SOL     OW44222  12.508   3.799   7.516
47442SOL    HW144223  12.470   3.872   7.467
47442SOL    HW244224  12.476   3.721   7.470
47443SOL     OW44225   2.177  11.000  11.578
47443SOL    HW144226   2.112  11.054  11.624
47443SOL    HW244227   2.125  10.936  11.529
47444SOL     OW44228   2.619  11.439  12.259
47444SOL    HW144229   2.690  11.480  12.308
47444SOL    HW244230   2.574  11.512  12.217
47445SOL     OW44231  10.401   2.763   9.632
47445SOL    HW144232  10.419   2.752   9.538
47445SOL    HW244233  10.487   2.769   9.672
47446SOL     OW44234   6.171   2.538   9.797
47446SOL    HW144235   6.142   2.614   9.747
47446SOL    HW244236   6.258   2.562   9.829
47447SOL     OW44237   4.632   3.748  10.466
47447SOL    HW144238   4.704   3.791  10.512
47447SOL    HW244239   4.589   3.695  10.533
47448SOL     OW44240   2.942   4.013  10.928
47448SOL    HW144241   3.033   3.995  10.953
47448SOL    HW244242   2.893   4.005  11.010
47449SOL     OW44243   2.700   1.594   0.325
47449SOL    HW144244   2.780   1.647   0.324
47449SOL    HW244245   2.731   1.504   0.332
47450SOL     OW44246   3.243  12.791   4.957
47450SOL    HW144247   3.175  12.755   4.899
47450SOL    HW244248   3.269  12.718   5.012
47451SOL     OW44249   7.995   7.110   7.423
47451SOL    HW144250   7.993   7.121   7.328
47451SOL    HW244251   7.903   7.114   7.449
47452SOL     OW44252  14.798   0.949   0.532
47452SOL    HW144253  14.791   0.876   0.471
47452SOL    HW244254   0.019   0.947   0.562
47453SOL     OW44255   9.172   1.846   6.342
47453SOL    HW144256   9.254   1.878   6.378
47453SOL    HW244257   9.144   1.915   6.281
47454SOL     OW44258   3.176  10.264  11.640
47454SOL    HW144259   3.116  10.243  11.712
47454SOL    HW244260   3.239  10.191  11.639
47455SOL     OW44261   7.142   9.504   6.685
47455SOL    HW144262   7.221   9.487   6.736
47455SOL    HW244263   7.156   9.457   6.603
47456SOL     OW44264  10.576   6.250   8.756
47456SOL    HW144265  10.571   6.289   8.669
47456SOL    HW244266  10.616   6.164   8.742
47457SOL     OW44267  10.860  14.603  14.028
47457SOL    HW144268  10.805  14.525  14.035
47457SOL    HW244269  10.799  14.676  14.030
47458SOL     OW44270   3.061  12.983   7.548
47458SOL    HW144271   3.041  13.010   7.637
47458SOL    HW244272   3.034  13.057   7.494
47459SOL     OW44273   2.292   6.376   1.837
47459SOL    HW144274   2.319   6.301   1.889
47459SOL    HW244275   2.366   6.437   1.843
47460SOL     OW44276   3.150  10.561   1.369
47460SOL    HW144277   3.122  10.478   1.408
47460SOL    HW244278   3.162  10.541   1.276
47461SOL     OW44279   9.052  14.204   5.624
47461SOL    HW144280   9.003  14.186   5.544
47461SOL    HW244281   9.144  14.194   5.599
47462SOL     OW44282   1.322  10.118   9.272
47462SOL    HW144283   1.256  10.065   9.316
47462SOL    HW244284   1.398  10.116   9.330
47463SOL     OW44285   4.199   2.047   0.746
47463SOL    HW144286   4.191   2.138   0.772
47463SOL    HW244287   4.176   2.047   0.653
47464SOL     OW44288   4.445   0.294  14.494
47464SOL    HW144289   4.484   0.208  14.510
47464SOL    HW244290   4.354   0.275  14.470
47465SOL     OW44291  11.843  12.314  13.799
47465SOL    HW144292  11.757  12.330  13.761
47465SOL    HW244293  11.891  12.268  13.730
47466SOL     OW44294   2.406   6.821   5.910
47466SOL    HW144295   2.418   6.916   5.916
47466SOL    HW244296   2.312   6.807   5.924
47467SOL     OW44297   0.074   6.257   6.518
47467SOL    HW144298   0.105   6.167   6.527
47467SOL    HW244299   0.114   6.288   6.437
47468SOL     OW44300  10.850  14.405  11.547
47468SOL    HW144301  10.856  14.362  11.462
47468SOL    HW244302  10.827  14.495  11.527
47469SOL     OW44303   3.754   5.055  13.668
47469SOL    HW144304   3.844   5.051  13.701
47469SOL    HW244305   3.701   5.026  13.743
47470SOL     OW44306   2.354   4.449  14.029
47470SOL    HW144307   2.418   4.518  14.012
47470SOL    HW244308   2.400   4.385  14.082
47471SOL     OW44309  10.727   9.112   5.204
47471SOL    HW144310  10.632   9.110   5.214
47471SOL    HW244311  10.761   9.110   5.293
47472SOL     OW44312   4.055  11.110   4.760
47472SOL    HW144313   4.027  11.170   4.691
47472SOL    HW244314   4.044  11.161   4.841
47473SOL     OW44315   1.197   4.864   9.633
47473SOL    HW144316   1.172   4.838   9.722
47473SOL    HW244317   1.246   4.945   9.644
47474SOL     OW44318   8.979   3.621  14.860
47474SOL    HW144319   9.037   3.555   0.028
47474SOL    HW244320   9.028   3.657  14.786
47475SOL     OW44321  10.541   8.933   1.425
47475SOL    HW144322  10.483   8.933   1.502
47475SOL    HW244323  10.613   8.990   1.450
47476SOL     OW44324   6.439   9.721   9.746
47476SOL    HW144325   6.504   9.788   9.727
47476SOL    HW244326   6.356   9.769   9.756
47477SOL     OW44327   2.749  10.188  12.601
47477SOL    HW144328   2.733  10.169  12.508
47477SOL    HW244329   2.668  10.228  12.632
47478SOL     OW44330   0.027   0.696   8.623
47478SOL    HW144331  14.833   0.654   8.681
47478SOL    HW244332   0.100   0.718   8.680
47479SOL     OW44333   8.856   1.959   4.606
47479SOL    HW144334   8.808   2.042   4.604
47479SOL    HW244335   8.792   1.894   4.634
47480SOL     OW44336   0.199  13.208   2.410
47480SOL    HW144337   0.191  13.303   2.413
47480SOL    HW244338   0.256  13.186   2.484
47481SOL     OW44339   2.094   0.781   0.465
47481SOL    HW144340   2.062   0.711   0.408
47481SOL    HW244341   2.020   0.840   0.474
47482SOL     OW44342   2.194   6.075   4.490
47482SOL    HW144343   2.251   6.137   4.535
47482SOL    HW244344   2.124   6.128   4.453
47483SOL     OW44345  10.941  12.254  12.509
47483SOL    HW144346  10.989  12.267  12.428
47483SOL    HW244347  10.926  12.343  12.543
47484SOL     OW44348  10.301   3.800  11.689
47484SOL    HW144349  10.389   3.804  11.652
47484SOL    HW244350  10.280   3.892  11.709
47485SOL     OW44351   0.162   3.715   4.358
47485SOL    HW144352   0.139   3.787   4.417
47485SOL    HW244353   0.078   3.672   4.341
47486SOL     OW44354  14.550   5.693   3.805
47486SOL    HW144355  14.510   5.710   3.890
47486SOL    HW244356  14.608   5.769   3.790
47487SOL     OW44357  14.109   9.960  11.901
47487SOL    HW144358  14.031  10.015  11.897
47487SOL    HW244359  14.116   9.921  11.814
47488SOL     OW44360   2.302   0.032  14.276
47488SOL    HW144361   2.307  14.810  14.249
47488SOL    HW244362   2.317   0.030  14.370
47489SOL     OW44363   0.677   1.356   3.620
47489SOL    HW144364   0.681   1.283   3.559
47489SOL    HW244365   0.653   1.317   3.703
47490SOL     OW44366   1.859   9.320   7.121
47490SOL    HW144367   1.891   9.237   7.087
47490SOL    HW244368   1.785   9.297   7.177
47491SOL     OW44369   5.250  12.673   1.726
47491SOL    HW144370   5.178  12.610   1.724
47491SOL    HW244371   5.211  12.754   1.695
47492SOL     OW44372   5.324  12.022  11.168
47492SOL    HW144373   5.407  12.049  11.208
47492SOL    HW244374   5.350  11.967  11.094
47493SOL     OW44375   2.632   3.646   5.877
47493SOL    HW144376   2.717   3.602   5.868
47493SOL    HW244377   2.567   3.579   5.855
47494SOL     OW44378   9.151   4.867   3.470
47494SOL    HW144379   9.100   4.800   3.515
47494SOL    HW244380   9.121   4.950   3.508
47495SOL     OW44381   7.112   3.422   8.345
47495SOL    HW144382   7.118   3.404   8.439
47495SOL    HW244383   7.020   3.443   8.330
47496SOL     OW44384  10.300   1.212   3.147
47496SOL    HW144385  10.253   1.272   3.089
47496SOL    HW244386  10.347   1.153   3.088
47497SOL     OW44387  10.976  13.448  11.997
47497SOL    HW144388  11.055  13.404  12.028
47497SOL    HW244389  10.930  13.382  11.945
47498SOL     OW44390   4.479   8.834   6.327
47498SOL    HW144391   4.553   8.847   6.386
47498SOL    HW244392   4.492   8.898   6.257
47499SOL     OW44393   3.712  10.487   8.271
47499SOL    HW144394   3.702  10.394   8.288
47499SOL    HW244395   3.674  10.501   8.185
47500SOL     OW44396  12.538   7.472  12.619
47500SOL    HW144397  12.474   7.409  12.583
47500SOL    HW244398  12.512   7.481  12.711
47501SOL     OW44399  12.889  13.307   3.325
47501SOL    HW144400  12.796  13.328   3.329
47501SOL    HW244401  12.897  13.225   3.374
47502SOL     OW44402  11.325   9.963   4.631
47502SOL    HW144403  11.388   9.896   4.656
47502SOL    HW244404  11.369  10.012   4.561
47503SOL     OW44405   9.989   1.990   4.647
47503SOL    HW144406   9.918   2.054   4.650
47503SOL    HW244407   9.946   1.906   4.661
47504SOL     OW44408   0.181   1.137   4.031
47504SOL    HW144409   0.196   1.044   4.047
47504SOL    HW244410   0.093   1.141   3.994
47505SOL     OW44411   7.224   2.738  11.257
47505SOL    HW144412   7.161   2.802  11.291
47505SOL    HW244413   7.200   2.656  11.298
47506SOL     OW44414   7.246   0.848   1.231
47506SOL    HW144415   7.295   0.821   1.309
47506SOL    HW244416   7.290   0.804   1.159
47507SOL     OW44417   0.340  11.373   8.521
47507SOL    HW144418   0.337  11.366   8.426
47507SOL    HW244419   0.269  11.317   8.552
47508SOL     OW44420   1.256  13.448  13.191
47508SOL    HW144421   1.282  13.516  13.129
47508SOL    HW244422   1.265  13.489  13.277
47509SOL     OW44423   2.046  11.259   7.698
47509SOL    HW144424   2.026  11.186   7.757
47509SOL    HW244425   2.135  11.242   7.668
47510SOL     OW44426   8.205   6.998   9.100
47510SOL    HW144427   8.248   6.916   9.074
47510SOL    HW244428   8.237   7.014   9.189
47511SOL     OW44429   0.975   0.763   7.782
47511SOL    HW144430   1.063   0.784   7.749
47511SOL    HW244431   0.917   0.820   7.733
47512SOL     OW44432   3.972  11.232   7.473
47512SOL    HW144433   4.036  11.169   7.506
47512SOL    HW244434   3.973  11.304   7.536
47513SOL     OW44435   8.044   4.962  10.667
47513SOL    HW144436   7.978   4.896  10.687
47513SOL    HW244437   8.105   4.919  10.607
47514SOL     OW44438  14.750   4.386   8.483
47514SOL    HW144439  14.700   4.382   8.402
47514SOL    HW244440  14.730   4.473   8.519
47515SOL     OW44441   3.484   0.951   0.314
47515SOL    HW144442   3.520   1.023   0.365
47515SOL    HW244443   3.390   0.956   0.328
47516SOL     OW44444   8.096  14.521   5.957
47516SOL    HW144445   8.162  14.573   5.912
47516SOL    HW244446   8.054  14.469   5.888
47517SOL     OW44447   6.933   9.902   6.452
47517SOL    HW144448   7.000   9.850   6.408
47517SOL    HW244449   6.982   9.963   6.507
47518SOL     OW44450   5.813   5.679   2.183
47518SOL    HW144451   5.856   5.755   2.221
47518SOL    HW244452   5.724   5.681   2.220
47519SOL     OW44453   3.016   8.806   6.671
47519SOL    HW144454   3.090   8.746   6.684
47519SOL    HW244455   3.027   8.871   6.740
47520SOL     OW44456   0.723   6.289   5.892
47520SOL    HW144457   0.795   6.229   5.908
47520SOL    HW244458   0.764   6.366   5.853
47521SOL     OW44459   5.884  14.562   7.610
47521SOL    HW144460   5.915  14.474   7.585
47521SOL    HW244461   5.818  14.584   7.544
47522SOL     OW44462  13.167  13.966   6.838
47522SOL    HW144463  13.260  13.947   6.845
47522SOL    HW244464  13.163  14.047   6.787
47523SOL     OW44465   0.524  12.804   3.999
47523SOL    HW144466   0.497  12.884   3.954
47523SOL    HW244467   0.442  12.758   4.017
47524SOL     OW44468  10.564  10.918  13.558
47524SOL    HW144469  10.497  10.884  13.617
47524SOL    HW244470  10.574  10.852  13.490
47525SOL     OW44471   0.912   6.041  13.652
47525SOL    HW144472   0.881   6.059  13.741
47525SOL    HW244473   0.993   6.091  13.645
47526SOL     OW44474   8.851   5.256   7.141
47526SOL    HW144475   8.937   5.280   7.107
47526SOL    HW244476   8.868   5.219   7.228
47527SOL     OW44477  14.739   5.918   5.148
47527SOL    HW144478  14.717   5.851   5.213
47527SOL    HW244479  14.808   5.878   5.094
47528SOL     OW44480   5.975   3.416  12.482
47528SOL    HW144481   6.007   3.501  12.451
47528SOL    HW244482   6.055   3.364  12.495
47529SOL     OW44483   5.602   7.644   9.188
47529SOL    HW144484   5.516   7.603   9.175
47529SOL    HW244485   5.618   7.692   9.108
47530SOL     OW44486   0.168  12.708  13.433
47530SOL    HW144487   0.138  12.667  13.353
47530SOL    HW244488   0.094  12.762  13.461
47531SOL     OW44489  11.153  12.754  11.241
47531SOL    HW144490  11.060  12.773  11.259
47531SOL    HW244491  11.161  12.764  11.147
47532SOL     OW44492  13.464   5.720   5.291
47532SOL    HW144493  13.443   5.684   5.377
47532SOL    HW244494  13.460   5.814   5.303
47533SOL     OW44495  13.535   8.536   7.276
47533SOL    HW144496  13.463   8.581   7.232
47533SOL    HW244497  13.602   8.603   7.288
47534SOL     OW44498   9.882   9.836   4.204
47534SOL    HW144499   9.860   9.820   4.113
47534SOL    HW244500   9.953   9.900   4.200
47535SOL     OW44501   8.891   8.729   5.535
47535SOL    HW144502   8.847   8.661   5.485
47535SOL    HW244503   8.820   8.784   5.569
47536SOL     OW44504  10.528   3.652   9.244
47536SOL    HW144505  10.475   3.697   9.177
47536SOL    HW244506  10.586   3.595   9.194
47537SOL     OW44507   0.757   6.006   7.006
47537SOL    HW144508   0.850   6.028   7.010
47537SOL    HW244509   0.715   6.076   7.057
47538SOL     OW44510   7.832  13.046   5.116
47538SOL    HW144511   7.796  13.001   5.193
47538SOL    HW244512   7.925  13.055   5.134
47539SOL     OW44513   7.078   6.874   3.659
47539SOL    HW144514   7.058   6.790   3.617
47539SOL    HW244515   7.165   6.897   3.626
47540SOL     OW44516  13.338   5.842  13.617
47540SOL    HW144517  13.418   5.833  13.565
47540SOL    HW244518  13.360   5.803  13.701
47541SOL     OW44519   5.503   2.453  13.062
47541SOL    HW144520   5.506   2.357  13.063
47541SOL    HW244521   5.412   2.473  13.040
47542SOL     OW44522  13.255  10.433   8.531
47542SOL    HW144523  13.227  10.523   8.513
47542SOL    HW244524  13.350  10.440   8.543
47543SOL     OW44525  11.983   5.342   8.410
47543SOL    HW144526  12.065   5.374   8.448
47543SOL    HW244527  11.924   5.417   8.416
47544SOL     OW44528   1.204  12.909   9.527
47544SOL    HW144529   1.189  12.816   9.541
47544SOL    HW244530   1.295  12.915   9.499
47545SOL     OW44531   7.421  13.535   0.889
47545SOL    HW144532   7.373  13.478   0.830
47545SOL    HW244533   7.419  13.490   0.974
47546SOL     OW44534  13.052   1.128  12.005
47546SOL    HW144535  13.141   1.097  11.991
47546SOL    HW244536  13.047   1.148  12.099
47547SOL     OW44537   0.083   8.184   3.908
47547SOL    HW144538   0.124   8.232   3.979
47547SOL    HW244539   0.153   8.174   3.842
47548SOL     OW44540   6.997   9.884  12.918
47548SOL    HW144541   6.928   9.922  12.863
47548SOL    HW244542   7.078   9.904  12.872
47549SOL     OW44543   0.800   0.081  11.574
47549SOL    HW144544   0.746   0.110  11.501
47549SOL    HW244545   0.849   0.006  11.540
47550SOL     OW44546   0.260   1.593  11.647
47550SOL    HW144547   0.327   1.591  11.578
47550SOL    HW244548   0.177   1.592  11.600
47551SOL     OW44549   5.340  13.261   5.573
47551SOL    HW144550   5.301  13.176   5.589
47551SOL    HW244551   5.421  13.261   5.624
47552SOL     OW44552  14.016  10.037   1.968
47552SOL    HW144553  13.996  10.116   2.018
47552SOL    HW244554  14.107  10.049   1.940
47553SOL     OW44555   6.677   9.058  12.640
47553SOL    HW144556   6.648   9.048  12.549
47553SOL    HW244557   6.770   9.034  12.638
47554SOL     OW44558   9.843   8.740   6.322
47554SOL    HW144559   9.762   8.767   6.278
47554SOL    HW244560   9.821   8.657   6.364
47555SOL     OW44561   1.694   3.182   5.799
47555SOL    HW144562   1.715   3.251   5.736
47555SOL    HW244563   1.640   3.120   5.750
47556SOL     OW44564   0.974   6.395   0.184
47556SOL    HW144565   1.029   6.316   0.185
47556SOL    HW244566   0.955   6.410   0.092
47557SOL     OW44567  13.230  10.351  12.573
47557SOL    HW144568  13.296  10.324  12.510
47557SOL    HW244569  13.277  10.408  12.634
47558SOL     OW44570   0.815  13.822   4.715
47558SOL    HW144571   0.875  13.781   4.652
47558SOL    HW244572   0.853  13.804   4.800
47559SOL     OW44573   7.785   1.541   1.586
47559SOL    HW144574   7.826   1.618   1.625
47559SOL    HW244575   7.849   1.511   1.521
47560SOL     OW44576   2.499   4.826   7.418
47560SOL    HW144577   2.447   4.844   7.340
47560SOL    HW244578   2.459   4.879   7.487
47561SOL     OW44579  13.595   2.223   4.420
47561SOL    HW144580  13.573   2.298   4.476
47561SOL    HW244581  13.522   2.162   4.432
47562SOL     OW44582  12.091   0.395   3.579
47562SOL    HW144583  12.085   0.441   3.663
47562SOL    HW244584  12.000   0.376   3.556
47563SOL     OW44585  14.001   6.732   5.643
47563SOL    HW144586  14.025   6.800   5.580
47563SOL    HW244587  13.985   6.779   5.724
47564SOL     OW44588  13.582  11.197   1.722
47564SOL    HW144589  13.587  11.195   1.818
47564SOL    HW244590  13.521  11.269   1.703
47565SOL     OW44591   6.120   2.994   9.667
47565SOL    HW144592   6.212   3.013   9.646
47565SOL    HW244593   6.092   3.069   9.719
47566SOL     OW44594  10.079   3.707   6.841
47566SOL    HW144595  10.151   3.720   6.779
47566SOL    HW244596  10.122   3.690   6.925
47567SOL     OW44597  12.687   4.945   4.831
47567SOL    HW144598  12.752   5.007   4.799
47567SOL    HW244599  12.689   4.954   4.926
47568SOL     OW44600  11.916   6.353   0.415
47568SOL    HW144601  11.840   6.409   0.395
47568SOL    HW244602  11.878   6.267   0.432
47569SOL     OW44603  12.908   9.431  12.749
47569SOL    HW144604  12.862   9.377  12.814
47569SOL    HW244605  12.876   9.398  12.665
47570SOL     OW44606   6.967  11.907   9.555
47570SOL    HW144607   6.919  11.842   9.607
47570SOL    HW244608   6.901  11.943   9.496
47571SOL     OW44609  10.502  13.657  10.481
47571SOL    HW144610  10.484  13.744  10.515
47571SOL    HW244611  10.535  13.608  10.557
47572SOL     OW44612   3.524  12.898  14.243
47572SOL    HW144613   3.608  12.881  14.285
47572SOL    HW244614   3.469  12.933  14.312
47573SOL     OW44615   1.962  13.416  13.482
47573SOL    HW144616   1.983  13.329  13.449
47573SOL    HW244617   2.042  13.467  13.468
47574SOL     OW44618   7.203  11.738   2.262
47574SOL    HW144619   7.189  11.822   2.306
47574SOL    HW244620   7.272  11.756   2.198
47575SOL     OW44621   8.652   7.752  11.617
47575SOL    HW144622   8.628   7.740  11.525
47575SOL    HW244623   8.656   7.847  11.628
47576SOL     OW44624  11.361   7.587   4.427
47576SOL    HW144625  11.352   7.681   4.416
47576SOL    HW244626  11.317   7.568   4.509
47577SOL     OW44627   1.866  14.409   1.290
47577SOL    HW144628   1.875  14.343   1.221
47577SOL    HW244629   1.900  14.489   1.250
47578SOL     OW44630   5.168   1.942   3.028
47578SOL    HW144631   5.245   1.886   3.023
47578SOL    HW244632   5.112   1.912   2.956
47579SOL     OW44633   6.914  12.152   3.157
47579SOL    HW144634   6.931  12.069   3.202
47579SOL    HW244635   6.823  12.173   3.179
47580SOL     OW44636  11.425   0.312   8.559
47580SOL    HW144637  11.444   0.224   8.590
47580SOL    HW244638  11.363   0.300   8.487
47581SOL     OW44639  12.941   5.021  10.021
47581SOL    HW144640  12.932   4.933  10.059
47581SOL    HW244641  12.928   5.080  10.095
47582SOL     OW44642   8.475   8.327   8.865
47582SOL    HW144643   8.419   8.312   8.941
47582SOL    HW244644   8.452   8.258   8.803
47583SOL     OW44645  11.712   1.080   8.562
47583SOL    HW144646  11.787   1.089   8.620
47583SOL    HW244647  11.644   1.135   8.601
47584SOL     OW44648   0.525   0.951   3.311
47584SOL    HW144649   0.459   0.888   3.339
47584SOL    HW244650   0.572   0.907   3.239
47585SOL     OW44651   7.972   1.484  11.659
47585SOL    HW144652   7.954   1.435  11.739
47585SOL    HW244653   8.066   1.502  11.663
47586SOL     OW44654   9.251  11.798   4.562
47586SOL    HW144655   9.286  11.796   4.651
47586SOL    HW244656   9.165  11.838   4.571
47587SOL     OW44657   4.453  12.798   3.902
47587SOL    HW144658   4.499  12.881   3.914
47587SOL    HW244659   4.518  12.740   3.862
47588SOL     OW44660   4.880  10.574   1.133
47588SOL    HW144661   4.838  10.524   1.063
47588SOL    HW244662   4.901  10.659   1.094
47589SOL     OW44663   6.181   3.285  13.881
47589SOL    HW144664   6.102   3.319  13.838
47589SOL    HW244665   6.161   3.194  13.899
47590SOL     OW44666  14.588   4.376   6.743
47590SOL    HW144667  14.595   4.288   6.780
47590SOL    HW244668  14.501   4.406   6.768
47591SOL     OW44669  11.709   0.585   2.796
47591SOL    HW144670  11.652   0.658   2.820
47591SOL    HW244671  11.746   0.610   2.712
47592SOL     OW44672   2.347  14.594   5.201
47592SOL    HW144673   2.431  14.637   5.215
47592SOL    HW244674   2.369  14.510   5.159
47593SOL     OW44675   6.954  11.089  12.316
47593SOL    HW144676   6.864  11.110  12.343
47593SOL    HW244677   6.980  11.161  12.259
47594SOL     OW44678  10.345  11.718   6.876
47594SOL    HW144679  10.335  11.792   6.817
47594SOL    HW244680  10.348  11.642   6.818
47595SOL     OW44681  14.255   6.792   1.053
47595SOL    HW144682  14.350   6.788   1.038
47595SOL    HW244683  14.218   6.739   0.981
47596SOL     OW44684  11.962   3.883  12.598
47596SOL    HW144685  11.929   3.935  12.671
47596SOL    HW244686  11.888   3.827  12.573
47597SOL     OW44687   4.366   2.142   5.640
47597SOL    HW144688   4.435   2.121   5.703
47597SOL    HW244689   4.376   2.077   5.571
47598SOL     OW44690  14.021   0.756  14.757
47598SOL    HW144691  14.080   0.682  14.740
47598SOL    HW244692  13.933   0.719  14.749
47599SOL     OW44693   0.902   3.219   3.903
47599SOL    HW144694   0.990   3.181   3.910
47599SOL    HW244695   0.892   3.239   3.810
47600SOL     OW44696   9.062   1.590  14.730
47600SOL    HW144697   9.124   1.661  14.749
47600SOL    HW244698   9.044   1.599  14.636
47601SOL     OW44699   3.842  14.458   8.770
47601SOL    HW144700   3.883  14.469   8.856
47601SOL    HW244701   3.903  14.402   8.722
47602SOL     OW44702   9.081  10.228   3.094
47602SOL    HW144703   9.063  10.319   3.069
47602SOL    HW244704   9.144  10.235   3.166
47603SOL     OW44705  12.877   9.468  11.648
47603SOL    HW144706  12.844   9.446  11.735
47603SOL    HW244707  12.823   9.541  11.619
47604SOL     OW44708  14.657   2.283   2.764
47604SOL    HW144709  14.728   2.245   2.712
47604SOL    HW244710  14.610   2.339   2.702
47605SOL     OW44711  11.838   5.282   0.320
47605SOL    HW144712  11.775   5.342   0.360
47605SOL    HW244713  11.809   5.195   0.346
47606SOL     OW44714   4.591   5.110  14.780
47606SOL    HW144715   4.504   5.081  14.751
47606SOL    HW244716   4.573   5.177  14.846
47607SOL     OW44717   7.343  10.828   3.557
47607SOL    HW144718   7.406  10.894   3.528
47607SOL    HW244719   7.279  10.823   3.487
47608SOL     OW44720  12.058  13.808  12.966
47608SOL    HW144721  11.981  13.841  12.920
47608SOL    HW244722  12.062  13.860  13.047
47609SOL     OW44723  14.260   8.257   2.401
47609SOL    HW144724  14.339   8.227   2.357
47609SOL    HW244725  14.278   8.348   2.425
47610SOL     OW44726   0.395   6.593   8.772
47610SOL    HW144727   0.348   6.569   8.692
47610SOL    HW244728   0.431   6.680   8.753
47611SOL     OW44729  13.017  10.410   3.065
47611SOL    HW144730  13.084  10.422   3.132
47611SOL    HW244731  13.063  10.368   2.992
47612SOL     OW44732   6.562   4.134   2.844
47612SOL    HW144733   6.646   4.171   2.818
47612SOL    HW244734   6.497   4.184   2.795
47613SOL     OW44735   7.556   3.300   3.844
47613SOL    HW144736   7.601   3.247   3.778
47613SOL    HW244737   7.466   3.268   3.843
47614SOL     OW44738   4.627  14.006   6.280
47614SOL    HW144739   4.635  13.992   6.186
47614SOL    HW244740   4.663  13.927   6.320
47615SOL     OW44741   1.139  14.208   9.762
47615SOL    HW144742   1.184  14.282   9.723
47615SOL    HW244743   1.183  14.194   9.846
47616SOL     OW44744   5.772   7.322   9.015
47616SOL    HW144745   5.828   7.400   9.008
47616SOL    HW244746   5.790   7.273   8.934
47617SOL     OW44747  10.072   3.289   9.298
47617SOL    HW144748  10.055   3.218   9.237
47617SOL    HW244749  10.120   3.247   9.370
47618SOL     OW44750  12.463   9.506  14.432
47618SOL    HW144751  12.528   9.576  14.431
47618SOL    HW244752  12.419   9.515  14.517
47619SOL     OW44753   4.579   9.038   6.128
47619SOL    HW144754   4.656   9.051   6.184
47619SOL    HW244755   4.567   9.122   6.084
47620SOL     OW44756   9.782   2.649  11.858
47620SOL    HW144757   9.862   2.699  11.845
47620SOL    HW244758   9.777   2.636  11.953
47621SOL     OW44759   7.081  10.415  10.753
47621SOL    HW144760   7.046  10.484  10.810
47621SOL    HW244761   7.050  10.437  10.666
47622SOL     OW44762   7.291   6.767   6.443
47622SOL    HW144763   7.326   6.771   6.354
47622SOL    HW244764   7.315   6.680   6.474
47623SOL     OW44765  12.265   4.914   9.648
47623SOL    HW144766  12.356   4.928   9.624
47623SOL    HW244767  12.255   4.818   9.649
47624SOL     OW44768  11.572  14.656   8.555
47624SOL    HW144769  11.651  14.652   8.501
47624SOL    HW244770  11.538  14.566   8.555
47625SOL     OW44771  11.844   5.521   9.685
47625SOL    HW144772  11.838   5.446   9.626
47625SOL    HW244773  11.879   5.485   9.766
47626SOL     OW44774  11.688   7.561   5.319
47626SOL    HW144775  11.654   7.609   5.395
47626SOL    HW244776  11.637   7.480   5.317
47627SOL     OW44777   3.812   9.393  12.439
47627SOL    HW144778   3.789   9.301  12.445
47627SOL    HW244779   3.809   9.425  12.529
47628SOL     OW44780   8.628   3.372   1.921
47628SOL    HW144781   8.588   3.289   1.947
47628SOL    HW244782   8.722   3.356   1.930
47629SOL     OW44783  13.232   8.009  12.096
47629SOL    HW144784  13.199   7.943  12.156
47629SOL    HW244785  13.270   8.077  12.152
47630SOL     OW44786   9.858   0.228   5.006
47630SOL    HW144787   9.775   0.238   4.959
47630SOL    HW244788   9.860   0.135   5.030
47631SOL     OW44789  10.548   5.011   6.754
47631SOL    HW144790  10.467   4.963   6.736
47631SOL    HW244791  10.615   4.942   6.762
47632SOL     OW44792  14.494   6.891   6.273
47632SOL    HW144793  14.408   6.924   6.246
47632SOL    HW244794  14.557   6.940   6.219
47633SOL     OW44795   2.409   8.780  11.270
47633SOL    HW144796   2.389   8.702  11.321
47633SOL    HW244797   2.441   8.843  11.334
47634SOL     OW44798  10.074   3.686   7.135
47634SOL    HW144799  10.142   3.700   7.201
47634SOL    HW244800   9.998   3.733   7.169
47635SOL     OW44801  10.598   6.132   5.003
47635SOL    HW144802  10.590   6.139   4.908
47635SOL    HW244803  10.509   6.145   5.036
47636SOL     OW44804   4.612   3.297   3.791
47636SOL    HW144805   4.554   3.228   3.823
47636SOL    HW244806   4.584   3.310   3.700
47637SOL     OW44807   4.914   3.189   8.686
47637SOL    HW144808   4.839   3.161   8.739
47637SOL    HW244809   4.914   3.285   8.694
47638SOL     OW44810   9.716  11.985   7.640
47638SOL    HW144811   9.768  11.917   7.597
47638SOL    HW244812   9.628  11.949   7.645
47639SOL     OW44813   0.449   0.637   0.003
47639SOL    HW144814   0.443   0.658   0.096
47639SOL    HW244815   0.527   0.684  14.843
47640SOL     OW44816   1.887  13.429   6.480
47640SOL    HW144817   1.920  13.441   6.391
47640SOL    HW244818   1.926  13.501   6.530
47641SOL     OW44819   1.536   6.010  11.809
47641SOL    HW144820   1.563   6.081  11.867
47641SOL    HW244821   1.599   6.012  11.737
47642SOL     OW44822  10.675   0.848   8.367
47642SOL    HW144823  10.751   0.805   8.327
47642SOL    HW244824  10.662   0.802   8.450
47643SOL     OW44825   7.158  14.547   9.480
47643SOL    HW144826   7.217  14.577   9.550
47643SOL    HW244827   7.206  14.564   9.399
47644SOL     OW44828  13.976   8.500   4.267
47644SOL    HW144829  13.909   8.488   4.199
47644SOL    HW244830  14.047   8.546   4.223
47645SOL     OW44831  12.319   0.864  14.731
47645SOL    HW144832  12.260   0.886  14.660
47645SOL    HW244833  12.347   0.775  14.713
47646SOL     OW44834  10.362   7.622   7.651
47646SOL    HW144835  10.334   7.625   7.559
47646SOL    HW244836  10.286   7.588   7.697
47647SOL     OW44837  12.150  12.970  10.532
47647SOL    HW144838  12.129  12.879  10.550
47647SOL    HW244839  12.131  12.982  10.439
47648SOL     OW44840  11.107  12.468  10.422
47648SOL    HW144841  11.099  12.561  10.400
47648SOL    HW244842  11.127  12.425  10.339
47649SOL     OW44843   1.519   5.524  12.459
47649SOL    HW144844   1.443   5.533  12.517
47649SOL    HW244845   1.578   5.464  12.506
47650SOL     OW44846   1.553  10.108   5.951
47650SOL    HW144847   1.574  10.187   5.902
47650SOL    HW244848   1.604  10.039   5.910
47651SOL     OW44849   6.342   6.134   2.822
47651SOL    HW144850   6.312   6.058   2.771
47651SOL    HW244851   6.427   6.155   2.784
47652SOL     OW44852   5.783   9.093   4.410
47652SOL    HW144853   5.715   9.140   4.458
47652SOL    HW244854   5.809   9.022   4.468
47653SOL     OW44855   0.805   8.170   7.379
47653SOL    HW144856   0.745   8.191   7.308
47653SOL    HW244857   0.771   8.220   7.454
47654SOL     OW44858  13.232   0.098   6.798
47654SOL    HW144859  13.178   0.079   6.721
47654SOL    HW244860  13.212   0.027   6.859
47655SOL     OW44861   2.759   2.928   7.265
47655SOL    HW144862   2.784   2.845   7.224
47655SOL    HW244863   2.815   2.993   7.222
47656SOL     OW44864   6.665   2.819   0.611
47656SOL    HW144865   6.628   2.762   0.543
47656SOL    HW244866   6.683   2.901   0.566
47657SOL     OW44867  13.767   3.748   0.640
47657SOL    HW144868  13.837   3.727   0.578
47657SOL    HW244869  13.711   3.809   0.593
47658SOL     OW44870  13.080   2.614   7.488
47658SOL    HW144871  13.118   2.673   7.423
47658SOL    HW244872  13.069   2.531   7.442
47659SOL     OW44873   7.949   1.632   9.525
47659SOL    HW144874   8.036   1.594   9.510
47659SOL    HW244875   7.967   1.725   9.544
47660SOL     OW44876   3.119  11.090   8.581
47660SOL    HW144877   3.131  11.029   8.508
47660SOL    HW244878   3.034  11.067   8.618
47661SOL     OW44879   2.731   5.769   2.093
47661SOL    HW144880   2.656   5.711   2.084
47661SOL    HW244881   2.718   5.835   2.024
47662SOL     OW44882  11.342   6.642   2.778
47662SOL    HW144883  11.381   6.618   2.861
47662SOL    HW244884  11.310   6.732   2.792
47663SOL     OW44885   9.397   2.383  14.837
47663SOL    HW144886   9.441   2.447   0.023
47663SOL    HW244887   9.309   2.419  14.826
47664SOL     OW44888   6.484  11.150   1.138
47664SOL    HW144889   6.541  11.205   1.084
47664SOL    HW244890   6.440  11.212   1.197
47665SOL     OW44891   2.974  11.633  12.957
47665SOL    HW144892   3.051  11.640  13.013
47665SOL    HW244893   2.920  11.565  12.999
47666SOL     OW44894   8.347   4.627   7.488
47666SOL    HW144895   8.397   4.565   7.541
47666SOL    HW244896   8.407   4.701   7.475
47667SOL     OW44897   9.179   1.901  12.676
47667SOL    HW144898   9.227   1.972  12.719
47667SOL    HW244899   9.171   1.930  12.585
47668SOL     OW44900  10.280   7.130   2.580
47668SOL    HW144901  10.192   7.118   2.546
47668SOL    HW244902  10.332   7.157   2.504
47669SOL     OW44903   7.532  11.535   5.778
47669SOL    HW144904   7.554  11.453   5.736
47669SOL    HW244905   7.576  11.602   5.726
47670SOL     OW44906   9.367   6.441   3.976
47670SOL    HW144907   9.364   6.490   4.059
47670SOL    HW244908   9.362   6.508   3.908
47671SOL     OW44909   6.888   6.819  11.968
47671SOL    HW144910   6.982   6.810  11.983
47671SOL    HW244911   6.874   6.912  11.955
47672SOL     OW44912  11.952   0.344   8.817
47672SOL    HW144913  12.003   0.422   8.796
47672SOL    HW244914  11.979   0.322   8.906
47673SOL     OW44915   5.241  12.279   9.676
47673SOL    HW144916   5.155  12.281   9.633
47673SOL    HW244917   5.294  12.223   9.620
47674SOL     OW44918   4.284   5.187   1.344
47674SOL    HW144919   4.295   5.268   1.293
47674SOL    HW244920   4.298   5.118   1.280
47675SOL     OW44921   5.218   4.193   2.764
47675SOL    HW144922   5.240   4.190   2.857
47675SOL    HW244923   5.124   4.175   2.761
47676SOL     OW44924   2.525  13.105   5.619
47676SOL    HW144925   2.615  13.085   5.645
47676SOL    HW244926   2.527  13.198   5.597
47677SOL     OW44927  12.556   7.374   6.422
47677SOL    HW144928  12.592   7.441   6.481
47677SOL    HW244929  12.473   7.348   6.462
47678SOL     OW44930   7.194   9.961   5.528
47678SOL    HW144931   7.251  10.031   5.495
47678SOL    HW244932   7.193   9.896   5.457
47679SOL     OW44933   3.809   6.033   3.908
47679SOL    HW144934   3.714   6.039   3.919
47679SOL    HW244935   3.840   5.990   3.987
47680SOL     OW44936   9.044   9.952  12.752
47680SOL    HW144937   8.963   9.909  12.779
47680SOL    HW244938   9.018  10.043  12.738
47681SOL     OW44939   5.871   7.667   2.137
47681SOL    HW144940   5.880   7.727   2.212
47681SOL    HW244941   5.945   7.688   2.081
47682SOL     OW44942  14.214  10.161  12.054
47682SOL    HW144943  14.163  10.162  12.135
47682SOL    HW244944  14.171  10.095  11.999
47683SOL     OW44945   2.332   7.452  11.723
47683SOL    HW144946   2.408   7.400  11.697
47683SOL    HW244947   2.349   7.474  11.815
47684SOL     OW44948  11.302   0.607  13.656
47684SOL    HW144949  11.323   0.615  13.563
47684SOL    HW244950  11.304   0.697  13.690
47685SOL     OW44951   4.178  11.888   3.735
47685SOL    HW144952   4.108  11.883   3.801
47685SOL    HW244953   4.193  11.797   3.709
47686SOL     OW44954   5.929  13.382   0.224
47686SOL    HW144955   5.954  13.463   0.268
47686SOL    HW244956   6.010  13.333   0.212
47687SOL     OW44957  10.121  14.552   1.404
47687SOL    HW144958  10.133  14.463   1.371
47687SOL    HW244959  10.026  14.565   1.405
47688SOL     OW44960  12.302  13.332   3.838
47688SOL    HW144961  12.287  13.239   3.855
47688SOL    HW244962  12.397  13.340   3.833
47689SOL     OW44963  12.085   9.692   9.394
47689SOL    HW144964  12.106   9.688   9.301
47689SOL    HW244965  12.099   9.784   9.418
47690SOL     OW44966   0.656  10.239   0.322
47690SOL    HW144967   0.750  10.222   0.324
47690SOL    HW244968   0.646  10.311   0.259
47691SOL     OW44969   3.842   4.580  13.215
47691SOL    HW144970   3.770   4.623  13.261
47691SOL    HW244971   3.913   4.575  13.279
47692SOL     OW44972  11.902  10.855   7.919
47692SOL    HW144973  11.934  10.834   8.007
47692SOL    HW244974  11.850  10.779   7.894
47693SOL     OW44975  10.995   1.478   9.324
47693SOL    HW144976  11.088   1.465   9.306
47693SOL    HW244977  10.982   1.436   9.409
47694SOL     OW44978  11.315   4.829   0.845
47694SOL    HW144979  11.289   4.745   0.806
47694SOL    HW244980  11.372   4.869   0.779
47695SOL     OW44981   4.482   1.184   6.132
47695SOL    HW144982   4.436   1.109   6.094
47695SOL    HW244983   4.413   1.245   6.158
47696SOL     OW44984   3.488   6.894   7.084
47696SOL    HW144985   3.430   6.946   7.027
47696SOL    HW244986   3.466   6.924   7.173
47697SOL     OW44987   4.745   9.457  12.151
47697SOL    HW144988   4.701   9.530  12.196
47697SOL    HW244989   4.688   9.438  12.076
47698SOL     OW44990  10.747   7.820   3.892
47698SOL    HW144991  10.693   7.741   3.884
47698SOL    HW244992  10.769   7.842   3.801
47699SOL     OW44993   2.965   9.360  12.340
47699SOL    HW144994   2.950   9.449  12.310
47699SOL    HW244995   2.966   9.367  12.436
47700SOL     OW44996   7.633   3.834   1.663
47700SOL    HW144997   7.576   3.818   1.588
47700SOL    HW244998   7.662   3.747   1.691
47701SOL     OW44999  12.430   7.233  12.360
47701SOL    HW145000  12.335   7.223  12.359
47701SOL    HW245001  12.463   7.146  12.381
47702SOL     OW45002   6.271  14.064  12.600
47702SOL    HW145003   6.327  13.987  12.592
47702SOL    HW245004   6.287  14.095  12.690
47703SOL     OW45005   0.892   1.270   9.488
47703SOL    HW145006   0.821   1.331   9.468
47703SOL    HW245007   0.956   1.324   9.536
47704SOL     OW45008   9.216   6.190   1.082
47704SOL    HW145009   9.258   6.198   1.167
47704SOL    HW245010   9.163   6.269   1.073
47705SOL     OW45011   0.037   2.476   6.755
47705SOL    HW145012   0.040   2.390   6.713
47705SOL    HW245013   0.024   2.457   6.848
47706SOL     OW45014  12.417  10.868   3.735
47706SOL    HW145015  12.451  10.841   3.821
47706SOL    HW245016  12.431  10.963   3.734
47707SOL     OW45017   6.908  12.899  10.810
47707SOL    HW145018   6.839  12.953  10.771
47707SOL    HW245019   6.907  12.818  10.758
47708SOL     OW45020  12.095   6.392  10.979
47708SOL    HW145021  12.072   6.383  11.071
47708SOL    HW245022  12.180   6.437  10.979
47709SOL     OW45023   1.866  13.810   6.994
47709SOL    HW145024   1.801  13.877   7.011
47709SOL    HW245025   1.926  13.815   7.068
47710SOL     OW45026   0.523   3.443   6.152
47710SOL    HW145027   0.615   3.427   6.129
47710SOL    HW245028   0.485   3.356   6.162
47711SOL     OW45029   2.230   8.116   6.739
47711SOL    HW145030   2.199   8.077   6.821
47711SOL    HW245031   2.168   8.187   6.722
47712SOL     OW45032   1.928  10.908   7.379
47712SOL    HW145033   2.012  10.954   7.386
47712SOL    HW245034   1.910  10.905   7.285
47713SOL     OW45035  14.226   5.795   2.236
47713SOL    HW145036  14.132   5.776   2.240
47713SOL    HW245037  14.262   5.758   2.317
47714SOL     OW45038   7.560  11.748  14.485
47714SOL    HW145039   7.610  11.804  14.425
47714SOL    HW245040   7.469  11.755  14.453
47715SOL     OW45041   2.572   5.283   5.181
47715SOL    HW145042   2.503   5.219   5.168
47715SOL    HW245043   2.580   5.292   5.276
47716SOL     OW45044  10.859   6.756   2.875
47716SOL    HW145045  10.850   6.831   2.818
47716SOL    HW245046  10.796   6.772   2.946
47717SOL     OW45047   1.922   3.785   3.409
47717SOL    HW145048   1.903   3.716   3.345
47717SOL    HW245049   1.991   3.837   3.368
47718SOL     OW45050   5.329   7.617   5.426
47718SOL    HW145051   5.388   7.678   5.470
47718SOL    HW245052   5.243   7.638   5.462
47719SOL     OW45053   6.988   7.078   9.034
47719SOL    HW145054   6.912   7.136   9.035
47719SOL    HW245055   7.063   7.136   9.045
47720SOL     OW45056  10.230  13.154   4.442
47720SOL    HW145057  10.156  13.114   4.488
47720SOL    HW245058  10.189  13.207   4.374
47721SOL     OW45059   3.266   3.190   1.079
47721SOL    HW145060   3.299   3.204   1.168
47721SOL    HW245061   3.189   3.246   1.072
47722SOL     OW45062   9.212   7.580   1.987
47722SOL    HW145063   9.193   7.594   1.895
47722SOL    HW245064   9.153   7.640   2.033
47723SOL     OW45065   7.508  14.550   4.922
47723SOL    HW145066   7.449  14.491   4.969
47723SOL    HW245067   7.580  14.493   4.892
47724SOL     OW45068   8.428  14.242   2.423
47724SOL    HW145069   8.519  14.255   2.396
47724SOL    HW245070   8.402  14.325   2.463
47725SOL     OW45071   5.527   9.914  12.246
47725SOL    HW145072   5.564   9.940  12.162
47725SOL    HW245073   5.437   9.947  12.244
47726SOL     OW45074   7.252   5.402   1.233
47726SOL    HW145075   7.279   5.318   1.271
47726SOL    HW245076   7.240   5.459   1.309
47727SOL     OW45077   2.896  10.721   2.652
47727SOL    HW145078   2.945  10.777   2.714
47727SOL    HW245079   2.954  10.647   2.637
47728SOL     OW45080   1.360   8.434   1.349
47728SOL    HW145081   1.403   8.357   1.386
47728SOL    HW245082   1.329   8.483   1.426
47729SOL     OW45083   5.492  11.256  13.343
47729SOL    HW145084   5.458  11.326  13.288
47729SOL    HW245085   5.458  11.176  13.304
47730SOL     OW45086  12.869   4.464  12.780
47730SOL    HW145087  12.814   4.454  12.858
47730SOL    HW245088  12.810   4.498  12.713
47731SOL     OW45089   0.711   0.969   6.115
47731SOL    HW145090   0.806   0.975   6.099
47731SOL    HW245091   0.704   0.929   6.201
47732SOL     OW45092  11.070  10.180   0.368
47732SOL    HW145093  11.143  10.135   0.410
47732SOL    HW245094  11.012  10.109   0.339
47733SOL     OW45095   0.131   4.079   3.992
47733SOL    HW145096   0.043   4.047   4.007
47733SOL    HW245097   0.147   4.141   4.063
47734SOL     OW45098   7.040   0.101   4.611
47734SOL    HW145099   7.088   0.018   4.603
47734SOL    HW245100   7.024   0.110   4.705
47735SOL     OW45101  11.023   4.741  11.040
47735SOL    HW145102  10.996   4.660  11.083
47735SOL    HW245103  10.983   4.811  11.093
47736SOL     OW45104   8.474   1.027  11.328
47736SOL    HW145105   8.446   1.042  11.418
47736SOL    HW245106   8.567   1.006  11.335
47737SOL     OW45107  12.672   2.635  13.676
47737SOL    HW145108  12.667   2.541  13.696
47737SOL    HW245109  12.636   2.678  13.753
47738SOL     OW45110  13.067   1.804   1.795
47738SOL    HW145111  13.065   1.712   1.766
47738SOL    HW245112  13.115   1.802   1.878
47739SOL     OW45113  12.718   6.321   5.562
47739SOL    HW145114  12.720   6.235   5.602
47739SOL    HW245115  12.798   6.325   5.509
47740SOL     OW45116   0.807   4.272   8.748
47740SOL    HW145117   0.791   4.180   8.725
47740SOL    HW245118   0.870   4.268   8.820
47741SOL     OW45119   0.461  10.661  12.594
47741SOL    HW145120   0.432  10.683  12.505
47741SOL    HW245121   0.435  10.569  12.605
47742SOL     OW45122   9.579   0.115   7.786
47742SOL    HW145123   9.657   0.064   7.764
47742SOL    HW245124   9.597   0.150   7.873
47743SOL     OW45125  10.837   1.643   7.777
47743SOL    HW145126  10.821   1.733   7.805
47743SOL    HW245127  10.753   1.613   7.742
47744SOL     OW45128  10.735   1.582   6.944
47744SOL    HW145129  10.739   1.487   6.949
47744SOL    HW245130  10.813   1.606   6.893
47745SOL     OW45131  11.553  13.703   1.468
47745SOL    HW145132  11.528  13.699   1.560
47745SOL    HW245133  11.485  13.654   1.422
47746SOL     OW45134   3.568  10.363  11.845
47746SOL    HW145135   3.627  10.288  11.837
47746SOL    HW245136   3.579  10.412  11.764
47747SOL     OW45137  12.291   6.514  10.155
47747SOL    HW145138  12.266   6.552  10.240
47747SOL    HW245139  12.329   6.587  10.106
47748SOL     OW45140   1.605  10.683  13.634
47748SOL    HW145141   1.626  10.613  13.695
47748SOL    HW245142   1.543  10.738  13.681
47749SOL     OW45143  14.341   1.354   7.557
47749SOL    HW145144  14.252   1.387   7.553
47749SOL    HW245145  14.332   1.260   7.574
47750SOL     OW45146   1.231   0.278  13.564
47750SOL    HW145147   1.148   0.321  13.545
47750SOL    HW245148   1.238   0.209  13.498
47751SOL     OW45149  14.765  12.736  14.226
47751SOL    HW145150  14.792  12.705  14.140
47751SOL    HW245151  14.845  12.772  14.264
47752SOL     OW45152   1.487   9.521  11.573
47752SOL    HW145153   1.509   9.428  11.580
47752SOL    HW245154   1.398   9.527  11.608
47753SOL     OW45155   8.262  12.162  12.341
47753SOL    HW145156   8.223  12.124  12.263
47753SOL    HW245157   8.227  12.110  12.414
47754SOL     OW45158   1.981   9.699  11.881
47754SOL    HW145159   1.888   9.713  11.865
47754SOL    HW245160   2.010   9.643  11.809
47755SOL     OW45161  14.567  10.502   4.690
47755SOL    HW145162  14.518  10.581   4.712
47755SOL    HW245163  14.651  10.513   4.734
47756SOL     OW45164   3.666   9.537   8.814
47756SOL    HW145165   3.745   9.590   8.805
47756SOL    HW245166   3.696   9.447   8.804
47757SOL     OW45167   4.475   2.465  13.608
47757SOL    HW145168   4.417   2.392  13.632
47757SOL    HW245169   4.466   2.527  13.680
47758SOL     OW45170  12.645   3.635  14.843
47758SOL    HW145171  12.590   3.708  14.815
47758SOL    HW245172  12.600   3.597   0.048
47759SOL     OW45173  11.435   0.564  13.103
47759SOL    HW145174  11.357   0.516  13.076
47759SOL    HW245175  11.452   0.535  13.193
47760SOL     OW45176   7.733   5.797   7.398
47760SOL    HW145177   7.700   5.868   7.343
47760SOL    HW245178   7.762   5.840   7.478
47761SOL     OW45179  12.457  12.364  10.928
47761SOL    HW145180  12.515  12.386  10.855
47761SOL    HW245181  12.406  12.290  10.896
47762SOL     OW45182  11.945   0.364   0.902
47762SOL    HW145183  11.937   0.275   0.868
47762SOL    HW245184  11.858   0.402   0.889
47763SOL     OW45185   4.744   8.026   0.645
47763SOL    HW145186   4.816   8.086   0.665
47763SOL    HW245187   4.787   7.948   0.612
47764SOL     OW45188   2.293   2.081   2.509
47764SOL    HW145189   2.369   2.023   2.517
47764SOL    HW245190   2.238   2.059   2.584
47765SOL     OW45191  12.113   4.483   3.833
47765SOL    HW145192  12.137   4.572   3.805
47765SOL    HW245193  12.197   4.441   3.853
47766SOL     OW45194   1.988   4.164   7.083
47766SOL    HW145195   1.947   4.214   7.012
47766SOL    HW245196   2.075   4.144   7.051
47767SOL     OW45197   9.792  14.242   6.126
47767SOL    HW145198   9.742  14.215   6.049
47767SOL    HW245199   9.749  14.199   6.200
47768SOL     OW45200  14.457   3.417  13.362
47768SOL    HW145201  14.476   3.483  13.296
47768SOL    HW245202  14.498   3.337  13.328
47769SOL     OW45203   6.789   1.755  10.753
47769SOL    HW145204   6.862   1.699  10.729
47769SOL    HW245205   6.782   1.745  10.848
47770SOL     OW45206  12.512  12.805  10.281
47770SOL    HW145207  12.466  12.737  10.231
47770SOL    HW245208  12.463  12.812  10.362
47771SOL     OW45209   0.104   9.545   8.469
47771SOL    HW145210   0.192   9.554   8.433
47771SOL    HW245211   0.088   9.451   8.472
47772SOL     OW45212   1.616   9.399  13.627
47772SOL    HW145213   1.570   9.315  13.633
47772SOL    HW245214   1.659   9.409  13.712
47773SOL     OW45215   9.878   1.762   9.590
47773SOL    HW145216   9.959   1.713   9.603
47773SOL    HW245217   9.809   1.695   9.595
47774SOL     OW45218   5.099   1.596   2.684
47774SOL    HW145219   5.175   1.570   2.631
47774SOL    HW245220   5.087   1.524   2.746
47775SOL     OW45221   4.987  11.825   4.694
47775SOL    HW145222   4.898  11.794   4.680
47775SOL    HW245223   4.991  11.847   4.787
47776SOL     OW45224   9.222   8.291  13.550
47776SOL    HW145225   9.255   8.351  13.483
47776SOL    HW245226   9.260   8.324  13.632
47777SOL     OW45227  14.780  13.187   9.659
47777SOL    HW145228  14.851  13.246   9.635
47777SOL    HW245229  14.704  13.221   9.611
47778SOL     OW45230   3.239   7.781   6.529
47778SOL    HW145231   3.226   7.803   6.621
47778SOL    HW245232   3.328   7.808   6.510
47779SOL     OW45233   9.591   1.664  14.757
47779SOL    HW145234   9.544   1.716  14.823
47779SOL    HW245235   9.563   1.702  14.674
47780SOL     OW45236   3.641   7.710   2.961
47780SOL    HW145237   3.639   7.802   2.990
47780SOL    HW245238   3.552   7.679   2.978
47781SOL     OW45239  10.092   1.198   4.638
47781SOL    HW145240  10.005   1.161   4.649
47781SOL    HW245241  10.103   1.257   4.712
47782SOL     OW45242  10.672   5.901   0.518
47782SOL    HW145243  10.677   5.903   0.613
47782SOL    HW245244  10.663   5.993   0.492
47783SOL     OW45245  11.874  14.426   5.347
47783SOL    HW145246  11.887  14.501   5.406
47783SOL    HW245247  11.931  14.358   5.382
47784SOL     OW45248  13.805   7.095   2.647
47784SOL    HW145249  13.895   7.085   2.676
47784SOL    HW245250  13.812   7.114   2.553
47785SOL     OW45251  14.294  13.783   5.259
47785SOL    HW145252  14.206  13.786   5.296
47785SOL    HW245253  14.315  13.874   5.239
47786SOL     OW45254  12.114   2.166   4.475
47786SOL    HW145255  12.139   2.259   4.471
47786SOL    HW245256  12.040   2.159   4.415
47787SOL     OW45257  12.435  13.181   4.922
47787SOL    HW145258  12.486  13.217   4.850
47787SOL    HW245259  12.345  13.204   4.902
47788SOL     OW45260  12.744  14.167  13.946
47788SOL    HW145261  12.803  14.231  13.906
47788SOL    HW245262  12.661  14.213  13.955
47789SOL     OW45263   2.417   5.361   8.199
47789SOL    HW145264   2.385   5.424   8.263
47789SOL    HW245265   2.487   5.314   8.244
47790SOL     OW45266   9.856   2.964   0.263
47790SOL    HW145267   9.852   3.035   0.199
47790SOL    HW245268   9.764   2.942   0.281
47791SOL     OW45269  14.268   9.755  11.074
47791SOL    HW145270  14.348   9.712  11.043
47791SOL    HW245271  14.298   9.820  11.137
47792SOL     OW45272   4.575  10.932   5.204
47792SOL    HW145273   4.519  10.855   5.203
47792SOL    HW245274   4.516  11.005   5.189
47793SOL     OW45275   2.625  12.494   1.760
47793SOL    HW145276   2.610  12.585   1.785
47793SOL    HW245277   2.706  12.497   1.708
47794SOL     OW45278   3.225  10.845   2.658
47794SOL    HW145279   3.285  10.779   2.693
47794SOL    HW245280   3.161  10.859   2.729
47795SOL     OW45281  14.312   3.297   3.714
47795SOL    HW145282  14.255   3.233   3.758
47795SOL    HW245283  14.263   3.379   3.718
47796SOL     OW45284   4.954   5.297   4.098
47796SOL    HW145285   5.006   5.366   4.058
47796SOL    HW245286   4.875   5.340   4.129
47797SOL     OW45287  14.294  12.580  10.148
47797SOL    HW145288  14.375  12.628  10.129
47797SOL    HW245289  14.280  12.592  10.241
47798SOL     OW45290   5.709  13.912   8.646
47798SOL    HW145291   5.794  13.945   8.676
47798SOL    HW245292   5.731  13.856   8.571
47799SOL     OW45293   8.042   3.949   0.428
47799SOL    HW145294   8.126   3.960   0.473
47799SOL    HW245295   8.008   4.038   0.421
47800SOL     OW45296   2.187  12.307   3.914
47800SOL    HW145297   2.155  12.379   3.860
47800SOL    HW245298   2.256  12.267   3.862
47801SOL     OW45299  10.577  14.772  13.805
47801SOL    HW145300  10.557  14.865  13.803
47801SOL    HW245301  10.506  14.734  13.858
47802SOL     OW45302   0.792  10.654  13.325
47802SOL    HW145303   0.763  10.745  13.336
47802SOL    HW245304   0.887  10.658  13.335
47803SOL     OW45305   9.581   5.784   2.516
47803SOL    HW145306   9.598   5.756   2.606
47803SOL    HW245307   9.581   5.880   2.521
47804SOL     OW45308   1.918   2.047  12.872
47804SOL    HW145309   1.855   2.035  12.801
47804SOL    HW245310   1.873   2.013  12.949
47805SOL     OW45311  14.665   8.889   0.225
47805SOL    HW145312  14.588   8.886   0.281
47805SOL    HW245313  14.729   8.939   0.275
47806SOL     OW45314   4.213  11.256   7.781
47806SOL    HW145315   4.299  11.228   7.813
47806SOL    HW245316   4.230  11.339   7.736
47807SOL     OW45317   0.423   8.234   1.736
47807SOL    HW145318   0.468   8.215   1.654
47807SOL    HW245319   0.493   8.243   1.800
47808SOL     OW45320   5.233   0.813  10.763
47808SOL    HW145321   5.255   0.895  10.809
47808SOL    HW245322   5.163   0.838  10.703
47809SOL     OW45323   2.165   6.288   8.444
47809SOL    HW145324   2.224   6.363   8.451
47809SOL    HW245325   2.079   6.326   8.432
47810SOL     OW45326   3.115  13.308  13.951
47810SOL    HW145327   3.061  13.272  13.881
47810SOL    HW245328   3.131  13.234  14.010
47811SOL     OW45329  11.854   6.304  14.591
47811SOL    HW145330  11.941   6.280  14.622
47811SOL    HW245331  11.801   6.226  14.604
47812SOL     OW45332  13.710   7.925   5.690
47812SOL    HW145333  13.719   8.019   5.704
47812SOL    HW245334  13.643   7.918   5.621
47813SOL     OW45335  13.240   7.744  10.086
47813SOL    HW145336  13.318   7.718  10.037
47813SOL    HW245337  13.209   7.663  10.126
47814SOL     OW45338   2.312  14.561  13.086
47814SOL    HW145339   2.300  14.596  12.997
47814SOL    HW245340   2.362  14.480  13.073
47815SOL     OW45341   2.747  13.213   1.182
47815SOL    HW145342   2.772  13.173   1.098
47815SOL    HW245343   2.808  13.286   1.193
47816SOL     OW45344  14.194  12.129   3.184
47816SOL    HW145345  14.233  12.190   3.122
47816SOL    HW245346  14.139  12.184   3.240
47817SOL     OW45347  10.959   8.399   2.260
47817SOL    HW145348  10.929   8.332   2.199
47817SOL    HW245349  10.904   8.475   2.239
47818SOL     OW45350   2.924   1.935  12.171
47818SOL    HW145351   2.870   2.002  12.128
47818SOL    HW245352   2.884   1.852  12.144
47819SOL     OW45353   1.914  13.070   5.893
47819SOL    HW145354   1.994  13.071   5.839
47819SOL    HW245355   1.907  12.980   5.924
47820SOL     OW45356   4.196  11.623   3.656
47820SOL    HW145357   4.199  11.611   3.751
47820SOL    HW245358   4.222  11.538   3.619
47821SOL     OW45359   5.233   6.751  14.517
47821SOL    HW145360   5.196   6.664  14.505
47821SOL    HW245361   5.161   6.803  14.555
47822SOL     OW45362   0.771   9.098   6.652
47822SOL    HW145363   0.794   9.006   6.644
47822SOL    HW245364   0.853   9.141   6.677
47823SOL     OW45365  14.666   7.602  11.834
47823SOL    HW145366  14.735   7.597  11.901
47823SOL    HW245367  14.637   7.693  11.837
47824SOL     OW45368  14.061  10.737   8.232
47824SOL    HW145369  14.078  10.732   8.326
47824SOL    HW245370  14.126  10.678   8.193
47825SOL     OW45371   1.473   7.039  11.548
47825SOL    HW145372   1.446   7.035  11.640
47825SOL    HW245373   1.418   7.108  11.511
47826SOL     OW45374   0.600  13.789   0.025
47826SOL    HW145375   0.581  13.707  14.849
47826SOL    HW245376   0.693  13.785   0.044
47827SOL     OW45377   5.613   3.719  13.306
47827SOL    HW145378   5.661   3.686  13.230
47827SOL    HW245379   5.542   3.771  13.268
47828SOL     OW45380   1.874  13.411   9.363
47828SOL    HW145381   1.906  13.349   9.297
47828SOL    HW245382   1.953  13.456   9.393
47829SOL     OW45383  12.007   7.698   9.392
47829SOL    HW145384  12.015   7.777   9.338
47829SOL    HW245385  12.063   7.716   9.468
47830SOL     OW45386   1.419   9.776  10.132
47830SOL    HW145387   1.383   9.714  10.068
47830SOL    HW245388   1.344   9.803  10.185
47831SOL     OW45389  11.950   8.151   2.255
47831SOL    HW145390  11.956   8.079   2.317
47831SOL    HW245391  12.021   8.210   2.279
47832SOL     OW45392  13.574   5.024   4.833
47832SOL    HW145393  13.615   4.992   4.753
47832SOL    HW245394  13.490   5.060   4.805
47833SOL     OW45395  10.666  12.440   3.295
47833SOL    HW145396  10.710  12.484   3.223
47833SOL    HW245397  10.643  12.509   3.356
47834SOL     OW45398   9.809   3.898   4.504
47834SOL    HW145399   9.736   3.959   4.514
47834SOL    HW245400   9.872   3.924   4.572
47835SOL     OW45401   3.951   7.813   8.792
47835SOL    HW145402   4.026   7.759   8.768
47835SOL    HW245403   3.903   7.825   8.710
47836SOL     OW45404   7.996  13.089   0.781
47836SOL    HW145405   8.005  13.004   0.825
47836SOL    HW245406   7.904  13.111   0.789
47837SOL     OW45407  11.832   3.699   3.029
47837SOL    HW145408  11.761   3.638   3.012
47837SOL    HW245409  11.789   3.777   3.064
47838SOL     OW45410  12.898  11.221   0.075
47838SOL    HW145411  12.958  11.279   0.028
47838SOL    HW245412  12.899  11.253   0.165
47839SOL     OW45413   0.454   2.154  12.247
47839SOL    HW145414   0.448   2.198  12.162
47839SOL    HW245415   0.510   2.212  12.300
47840SOL     OW45416   7.550   5.631   7.772
47840SOL    HW145417   7.529   5.702   7.711
47840SOL    HW245418   7.644   5.640   7.787
47841SOL     OW45419  11.087   3.912   2.233
47841SOL    HW145420  11.159   3.906   2.296
47841SOL    HW245421  11.056   3.821   2.223
47842SOL     OW45422   5.944  12.757  10.449
47842SOL    HW145423   5.855  12.751  10.415
47842SOL    HW245424   5.933  12.771  10.544
47843SOL     OW45425   0.570   0.900  12.624
47843SOL    HW145426   0.621   0.918  12.545
47843SOL    HW245427   0.573   0.981  12.674
47844SOL     OW45428   0.186  11.219   1.651
47844SOL    HW145429   0.259  11.245   1.707
47844SOL    HW245430   0.174  11.126   1.670
47845SOL     OW45431   9.096   8.487   6.651
47845SOL    HW145432   9.133   8.547   6.586
47845SOL    HW245433   9.023   8.446   6.606
47846SOL     OW45434  12.645   0.245   0.738
47846SOL    HW145435  12.610   0.299   0.808
47846SOL    HW245436  12.598   0.162   0.746
47847SOL     OW45437   7.922   0.246  12.854
47847SOL    HW145438   7.901   0.321  12.909
47847SOL    HW245439   8.005   0.213  12.889
47848SOL     OW45440   7.389   0.423   8.534
47848SOL    HW145441   7.294   0.432   8.531
47848SOL    HW245442   7.421   0.488   8.472
47849SOL     OW45443   8.717   7.017   4.098
47849SOL    HW145444   8.799   6.978   4.067
47849SOL    HW245445   8.648   6.965   4.055
47850SOL     OW45446   0.773  13.708   8.089
47850SOL    HW145447   0.798  13.730   8.179
47850SOL    HW245448   0.709  13.775   8.065
47851SOL     OW45449   5.500   2.837   2.664
47851SOL    HW145450   5.559   2.899   2.708
47851SOL    HW245451   5.522   2.846   2.571
47852SOL     OW45452  10.558  10.293   5.578
47852SOL    HW145453  10.576  10.204   5.546
47852SOL    HW245454  10.468  10.310   5.551
47853SOL     OW45455  12.817  14.285   9.935
47853SOL    HW145456  12.736  14.236   9.947
47853SOL    HW245457  12.797  14.347   9.865
47854SOL     OW45458   8.717   5.457   2.520
47854SOL    HW145459   8.788   5.395   2.502
47854SOL    HW245460   8.712   5.461   2.615
47855SOL     OW45461   4.030   6.309   8.127
47855SOL    HW145462   3.944   6.308   8.085
47855SOL    HW245463   4.065   6.221   8.111
47856SOL     OW45464   6.707   1.656   4.846
47856SOL    HW145465   6.772   1.727   4.854
47856SOL    HW245466   6.657   1.679   4.768
47857SOL     OW45467   6.333   0.071  14.643
47857SOL    HW145468   6.356  14.853  14.612
47857SOL    HW245469   6.348   0.128  14.567
47858SOL     OW45470   1.677   8.252   7.836
47858SOL    HW145471   1.713   8.218   7.754
47858SOL    HW245472   1.587   8.218   7.838
47859SOL     OW45473  11.635  13.798   3.027
47859SOL    HW145474  11.546  13.823   3.005
47859SOL    HW245475  11.682  13.798   2.943
47860SOL     OW45476   4.782  14.105   2.916
47860SOL    HW145477   4.824  14.036   2.865
47860SOL    HW245478   4.855  14.154   2.955
47861SOL     OW45479  10.812   9.102  14.249
47861SOL    HW145480  10.800   9.196  14.232
47861SOL    HW245481  10.724   9.065  14.242
47862SOL     OW45482   7.417   9.841   9.776
47862SOL    HW145483   7.441   9.828   9.684
47862SOL    HW245484   7.333   9.796   9.785
47863SOL     OW45485   5.178   1.212  13.745
47863SOL    HW145486   5.119   1.266  13.693
47863SOL    HW245487   5.209   1.270  13.814
47864SOL     OW45488   8.254   6.611  12.311
47864SOL    HW145489   8.235   6.583  12.400
47864SOL    HW245490   8.342   6.579  12.293
47865SOL     OW45491   5.294   8.718   8.088
47865SOL    HW145492   5.267   8.810   8.095
47865SOL    HW245493   5.383   8.721   8.053
47866SOL     OW45494  14.427   6.191   8.840
47866SOL    HW145495  14.488   6.213   8.769
47866SOL    HW245496  14.451   6.103   8.866
47867SOL     OW45497   9.465   9.009   1.852
47867SOL    HW145498   9.383   8.977   1.890
47867SOL    HW245499   9.453   8.998   1.757
47868SOL     OW45500   5.903   3.096   9.471
47868SOL    HW145501   5.930   3.140   9.390
47868SOL    HW245502   5.923   3.158   9.541
47869SOL     OW45503   6.505  11.264  12.523
47869SOL    HW145504   6.554  11.220  12.453
47869SOL    HW245505   6.500  11.198  12.592
47870SOL     OW45506   0.427   7.023  12.832
47870SOL    HW145507   0.355   6.972  12.869
47870SOL    HW245508   0.464   7.069  12.907
47871SOL     OW45509   7.083  14.536   7.692
47871SOL    HW145510   7.045  14.499   7.772
47871SOL    HW245511   7.049  14.480   7.622
47872SOL     OW45512  12.080   7.461  13.623
47872SOL    HW145513  12.044   7.432  13.540
47872SOL    HW245514  12.090   7.382  13.675
47873SOL     OW45515   6.107   4.255   4.271
47873SOL    HW145516   6.159   4.228   4.195
47873SOL    HW245517   6.095   4.349   4.260
47874SOL     OW45518   1.354   5.861  13.521
47874SOL    HW145519   1.328   5.772  13.543
47874SOL    HW245520   1.293   5.887  13.452
47875SOL     OW45521   4.754   4.914   1.038
47875SOL    HW145522   4.778   4.939   1.127
47875SOL    HW245523   4.779   4.822   1.032
47876SOL     OW45524   6.832  14.807   1.245
47876SOL    HW145525   6.824  14.738   1.310
47876SOL    HW245526   6.885   0.005   1.287
47877SOL     OW45527   0.032   9.817   6.994
47877SOL    HW145528   0.035   9.903   6.953
47877SOL    HW245529  14.840   9.826   7.066
47878SOL     OW45530   9.181  12.424   6.597
47878SOL    HW145531   9.191  12.519   6.590
47878SOL    HW245532   9.262  12.394   6.638
47879SOL     OW45533  10.693  13.371   0.424
47879SOL    HW145534  10.616  13.405   0.378
47879SOL    HW245535  10.767  13.417   0.384
47880SOL     OW45536  12.303   3.764   3.701
47880SOL    HW145537  12.272   3.706   3.631
47880SOL    HW245538  12.238   3.753   3.771
47881SOL     OW45539  12.257   8.291   1.872
47881SOL    HW145540  12.215   8.211   1.904
47881SOL    HW245541  12.349   8.267   1.860
47882SOL     OW45542   3.044   4.655  12.868
47882SOL    HW145543   2.983   4.655  12.942
47882SOL    HW245544   2.989   4.650  12.790
47883SOL     OW45545   9.476   8.208   9.887
47883SOL    HW145546   9.490   8.144   9.957
47883SOL    HW245547   9.557   8.260   9.886
47884SOL     OW45548   2.974   1.998   9.837
47884SOL    HW145549   2.987   2.066   9.770
47884SOL    HW245550   2.880   2.000   9.856
47885SOL     OW45551  13.641  11.375  10.132
47885SOL    HW145552  13.626  11.463  10.165
47885SOL    HW245553  13.734  11.359  10.151
47886SOL     OW45554  10.551  13.127   1.346
47886SOL    HW145555  10.520  13.202   1.296
47886SOL    HW245556  10.521  13.051   1.296
47887SOL     OW45557   0.752  14.641   8.224
47887SOL    HW145558   0.672  14.613   8.268
47887SOL    HW245559   0.812  14.663   8.296
47888SOL     OW45560   0.979   4.443  14.388
47888SOL    HW145561   0.950   4.447  14.297
47888SOL    HW245562   0.973   4.534  14.419
47889SOL     OW45563   6.551  12.715  12.018
47889SOL    HW145564   6.620  12.707  11.952
47889SOL    HW245565   6.559  12.635  12.071
47890SOL     OW45566   1.846   9.846   8.455
47890SOL    HW145567   1.905   9.918   8.432
47890SOL    HW245568   1.765   9.889   8.481
47891SOL     OW45569   0.884   6.167  12.777
47891SOL    HW145570   0.824   6.241  12.768
47891SOL    HW245571   0.836   6.103  12.830
47892SOL     OW45572   8.999   4.885  11.424
47892SOL    HW145573   8.929   4.947  11.403
47892SOL    HW245574   8.957   4.820  11.481
47893SOL     OW45575  10.504   6.849   0.891
47893SOL    HW145576  10.564   6.898   0.834
47893SOL    HW245577  10.479   6.773   0.839
47894SOL     OW45578   9.294   4.130  13.836
47894SOL    HW145579   9.379   4.113  13.878
47894SOL    HW245580   9.307   4.213  13.790
47895SOL     OW45581   9.841  12.651   7.861
47895SOL    HW145582   9.806  12.576   7.813
47895SOL    HW245583   9.767  12.687   7.909
47896SOL     OW45584  10.184   8.182  13.606
47896SOL    HW145585  10.242   8.119  13.561
47896SOL    HW245586  10.157   8.243  13.537
47897SOL     OW45587   4.960  13.906  10.589
47897SOL    HW145588   5.039  13.961  10.598
47897SOL    HW245589   4.889  13.969  10.580
47898SOL     OW45590   3.671   7.679  10.126
47898SOL    HW145591   3.613   7.751  10.103
47898SOL    HW245592   3.616   7.601  10.117
47899SOL     OW45593   9.148   3.058  13.366
47899SOL    HW145594   9.204   3.071  13.289
47899SOL    HW245595   9.193   2.990  13.417
47900SOL     OW45596  12.145  12.499  11.363
47900SOL    HW145597  12.119  12.519  11.273
47900SOL    HW245598  12.161  12.584  11.403
47901SOL     OW45599  13.023  11.278  11.903
47901SOL    HW145600  12.946  11.252  11.852
47901SOL    HW245601  13.080  11.321  11.839
47902SOL     OW45602   0.968   4.237   6.636
47902SOL    HW145603   0.907   4.263   6.704
47902SOL    HW245604   0.973   4.141   6.643
47903SOL     OW45605  10.685   0.147   6.414
47903SOL    HW145606  10.740   0.080   6.453
47903SOL    HW245607  10.729   0.230   6.435
47904SOL     OW45608   8.588   3.896   2.159
47904SOL    HW145609   8.613   3.813   2.199
47904SOL    HW245610   8.630   3.963   2.213
47905SOL     OW45611   4.086   1.043   9.446
47905SOL    HW145612   4.014   0.981   9.443
47905SOL    HW245613   4.061   1.114   9.387
47906SOL     OW45614   6.597   0.457   3.711
47906SOL    HW145615   6.613   0.370   3.672
47906SOL    HW245616   6.504   0.472   3.698
47907SOL     OW45617   1.759   9.022   2.509
47907SOL    HW145618   1.828   8.967   2.546
47907SOL    HW245619   1.684   9.010   2.567
47908SOL     OW45620  14.490  12.083   2.632
47908SOL    HW145621  14.516  12.013   2.692
47908SOL    HW245622  14.501  12.045   2.545
47909SOL     OW45623  13.563  13.102  12.547
47909SOL    HW145624  13.488  13.088  12.605
47909SOL    HW245625  13.610  13.019  12.548
47910SOL     OW45626  11.046  11.065   5.287
47910SOL    HW145627  11.072  11.157   5.284
47910SOL    HW245628  11.118  11.022   5.333
47911SOL     OW45629  11.090   1.142  13.514
47911SOL    HW145630  11.027   1.163  13.584
47911SOL    HW245631  11.072   1.207  13.446
47912SOL     OW45632   4.781  13.988   2.194
47912SOL    HW145633   4.783  14.068   2.142
47912SOL    HW245634   4.870  13.979   2.228
47913SOL     OW45635   7.595   1.367   1.375
47913SOL    HW145636   7.648   1.397   1.301
47913SOL    HW245637   7.607   1.272   1.376
47914SOL     OW45638   7.958   1.838   5.946
47914SOL    HW145639   8.016   1.772   5.909
47914SOL    HW245640   7.889   1.849   5.881
47915SOL     OW45641   9.806  12.937  14.801
47915SOL    HW145642   9.750  12.892  14.865
47915SOL    HW245643   9.894  12.927  14.835
47916SOL     OW45644   7.466  11.696   8.888
47916SOL    HW145645   7.474  11.640   8.811
47916SOL    HW245646   7.405  11.765   8.861
47917SOL     OW45647  13.199   7.992  12.673
47917SOL    HW145648  13.104   7.992  12.686
47917SOL    HW245649  13.210   7.979  12.579
47918SOL     OW45650   1.714  13.260   8.213
47918SOL    HW145651   1.654  13.251   8.139
47918SOL    HW245652   1.801  13.256   8.173
47919SOL     OW45653   5.268   6.721  12.290
47919SOL    HW145654   5.181   6.717  12.330
47919SOL    HW245655   5.280   6.813  12.267
47920SOL     OW45656  11.933   0.135   7.384
47920SOL    HW145657  11.880   0.167   7.310
47920SOL    HW245658  11.995   0.074   7.344
47921SOL     OW45659   1.656   0.974   9.842
47921SOL    HW145660   1.622   0.923   9.769
47921SOL    HW245661   1.596   1.049   9.848
47922SOL     OW45662   1.859   7.010   4.974
47922SOL    HW145663   1.784   7.029   5.031
47922SOL    HW245664   1.917   7.085   4.986
47923SOL     OW45665   3.962   2.185   5.468
47923SOL    HW145666   3.916   2.260   5.505
47923SOL    HW245667   3.930   2.180   5.378
47924SOL     OW45668  10.263   7.738   6.600
47924SOL    HW145669  10.316   7.675   6.649
47924SOL    HW245670  10.177   7.734   6.642
47925SOL     OW45671   5.525   8.053   0.744
47925SOL    HW145672   5.565   8.032   0.828
47925SOL    HW245673   5.433   8.070   0.765
47926SOL     OW45674  12.941  12.651   5.550
47926SOL    HW145675  12.862  12.697   5.577
47926SOL    HW245676  12.918  12.558   5.554
47927SOL     OW45677   5.717   4.243   5.404
47927SOL    HW145678   5.733   4.149   5.398
47927SOL    HW245679   5.792   4.284   5.361
47928SOL     OW45680  14.636   3.165   6.374
47928SOL    HW145681  14.640   3.080   6.330
47928SOL    HW245682  14.550   3.167   6.415
47929SOL     OW45683  11.652   6.521   2.127
47929SOL    HW145684  11.617   6.462   2.193
47929SOL    HW245685  11.684   6.597   2.177
47930SOL     OW45686  11.725   5.215  10.402
47930SOL    HW145687  11.761   5.168  10.477
47930SOL    HW245688  11.734   5.154  10.329
47931SOL     OW45689  12.484  13.226   3.505
47931SOL    HW145690  12.389  13.219   3.496
47931SOL    HW245691  12.496  13.289   3.576
47932SOL     OW45692  11.091   3.491   9.624
47932SOL    HW145693  11.081   3.570   9.677
47932SOL    HW245694  11.020   3.434   9.652
47933SOL     OW45695   0.635   3.562   7.356
47933SOL    HW145696   0.716   3.605   7.384
47933SOL    HW245697   0.662   3.475   7.328
47934SOL     OW45698   0.807   6.260   5.557
47934SOL    HW145699   0.882   6.310   5.527
47934SOL    HW245700   0.741   6.272   5.489
47935SOL     OW45701   6.248   2.782  13.064
47935SOL    HW145702   6.169   2.728  13.066
47935SOL    HW245703   6.217   2.867  13.033
47936SOL     OW45704   9.476   7.205   8.751
47936SOL    HW145705   9.534   7.277   8.725
47936SOL    HW245706   9.474   7.208   8.846
47937SOL     OW45707   9.848  10.577   8.493
47937SOL    HW145708   9.933  10.594   8.453
47937SOL    HW245709   9.837  10.648   8.557
47938SOL     OW45710   9.722   3.913   2.239
47938SOL    HW145711   9.691   4.003   2.248
47938SOL    HW245712   9.642   3.860   2.230
47939SOL     OW45713   2.579   5.038   4.390
47939SOL    HW145714   2.584   5.129   4.361
47939SOL    HW245715   2.549   5.043   4.481
47940SOL     OW45716  10.246   7.019   6.451
47940SOL    HW145717  10.164   7.029   6.402
47940SOL    HW245718  10.225   7.049   6.539
47941SOL     OW45719  14.092   1.681   1.147
47941SOL    HW145720  14.029   1.751   1.168
47941SOL    HW245721  14.135   1.711   1.067
47942SOL     OW45722   9.251  14.498   3.383
47942SOL    HW145723   9.324  14.438   3.396
47942SOL    HW245724   9.173  14.447   3.403
47943SOL     OW45725  13.555   1.009   1.429
47943SOL    HW145726  13.502   1.024   1.350
47943SOL    HW245727  13.615   1.083   1.433
47944SOL     OW45728   6.528  14.720   0.056
47944SOL    HW145729   6.483  14.716   0.140
47944SOL    HW245730   6.462  14.751  14.864
47945SOL     OW45731   0.231   3.054   8.991
47945SOL    HW145732   0.233   3.011   9.076
47945SOL    HW245733   0.239   2.982   8.928
47946SOL     OW45734   6.238   0.589  14.009
47946SOL    HW145735   6.256   0.623  14.097
47946SOL    HW245736   6.187   0.658  13.967
47947SOL     OW45737   4.271  12.969   8.381
47947SOL    HW145738   4.367  12.969   8.384
47947SOL    HW245739   4.245  13.041   8.438
47948SOL     OW45740   2.846   0.329   8.501
47948SOL    HW145741   2.789   0.255   8.481
47948SOL    HW245742   2.815   0.361   8.585
47949SOL     OW45743  13.442   7.699  12.077
47949SOL    HW145744  13.355   7.714  12.114
47949SOL    HW245745  13.453   7.604  12.081
47950SOL     OW45746   7.879   5.906  11.406
47950SOL    HW145747   7.954   5.901  11.465
47950SOL    HW245748   7.892   5.833  11.345
47951SOL     OW45749  10.950  10.978  11.332
47951SOL    HW145750  10.886  10.966  11.261
47951SOL    HW245751  10.898  10.979  11.412
47952SOL     OW45752  10.963   6.486  13.511
47952SOL    HW145753  11.018   6.419  13.471
47952SOL    HW245754  10.965   6.559  13.448
47953SOL     OW45755  12.106   3.671  12.022
47953SOL    HW145756  12.146   3.631  11.945
47953SOL    HW245757  12.020   3.699  11.992
47954SOL     OW45758   6.191   8.284  13.483
47954SOL    HW145759   6.215   8.355  13.542
47954SOL    HW245760   6.266   8.224  13.485
47955SOL     OW45761  13.387   9.270   0.658
47955SOL    HW145762  13.304   9.286   0.612
47955SOL    HW245763  13.365   9.204   0.724
47956SOL     OW45764   0.541   3.342   2.727
47956SOL    HW145765   0.596   3.334   2.806
47956SOL    HW245766   0.602   3.367   2.658
47957SOL     OW45767   1.209   1.616   7.280
47957SOL    HW145768   1.171   1.566   7.352
47957SOL    HW245769   1.241   1.697   7.320
47958SOL     OW45770   2.114   5.113   4.224
47958SOL    HW145771   2.155   5.084   4.142
47958SOL    HW245772   2.022   5.089   4.215
47959SOL     OW45773   6.115   3.642  12.412
47959SOL    HW145774   6.198   3.683  12.438
47959SOL    HW245775   6.106   3.664  12.319
47960SOL     OW45776   4.362   1.788   7.086
47960SOL    HW145777   4.304   1.840   7.142
47960SOL    HW245778   4.359   1.832   7.001
47961SOL     OW45779   2.402   3.580   8.616
47961SOL    HW145780   2.368   3.653   8.667
47961SOL    HW245781   2.468   3.619   8.559
47962SOL     OW45782  13.662  13.783  10.970
47962SOL    HW145783  13.706  13.761  11.052
47962SOL    HW245784  13.580  13.733  10.972
47963SOL     OW45785  11.238   9.788  14.230
47963SOL    HW145786  11.165   9.747  14.183
47963SOL    HW245787  11.265   9.722  14.294
47964SOL     OW45788   9.558   3.179  11.346
47964SOL    HW145789   9.640   3.186  11.297
47964SOL    HW245790   9.493   3.155  11.280
47965SOL     OW45791  12.638  12.082   5.575
47965SOL    HW145792  12.649  12.164   5.624
47965SOL    HW245793  12.558  12.044   5.609
47966SOL     OW45794  13.368   7.824   4.920
47966SOL    HW145795  13.328   7.741   4.892
47966SOL    HW245796  13.312   7.854   4.992
47967SOL     OW45797   1.234   2.799   1.960
47967SOL    HW145798   1.175   2.758   1.897
47967SOL    HW245799   1.182   2.809   2.039
47968SOL     OW45800   4.144  13.685   9.019
47968SOL    HW145801   4.154  13.642   8.934
47968SOL    HW245802   4.098  13.622   9.073
47969SOL     OW45803   1.371   0.276   6.039
47969SOL    HW145804   1.322   0.340   6.091
47969SOL    HW245805   1.439   0.244   6.099
47970SOL     OW45806   7.114  13.551   4.211
47970SOL    HW145807   7.187  13.610   4.232
47970SOL    HW245808   7.141  13.466   4.246
47971SOL     OW45809   7.038   7.130   4.200
47971SOL    HW145810   7.090   7.181   4.262
47971SOL    HW245811   7.047   7.176   4.116
47972SOL     OW45812   7.005  13.666   9.096
47972SOL    HW145813   6.960  13.739   9.137
47972SOL    HW245814   6.935  13.605   9.071
47973SOL     OW45815   1.727   6.709   6.879
47973SOL    HW145816   1.674   6.743   6.807
47973SOL    HW245817   1.760   6.787   6.922
47974SOL     OW45818   9.710   5.229   6.083
47974SOL    HW145819   9.782   5.211   6.144
47974SOL    HW245820   9.681   5.143   6.055
47975SOL     OW45821   1.614   2.048   7.152
47975SOL    HW145822   1.608   2.116   7.085
47975SOL    HW245823   1.526   2.010   7.155
47976SOL     OW45824   8.637  10.759   5.483
47976SOL    HW145825   8.655  10.740   5.575
47976SOL    HW245826   8.643  10.854   5.477
47977SOL     OW45827   0.443   4.712  11.766
47977SOL    HW145828   0.389   4.634  11.754
47977SOL    HW245829   0.395   4.764  11.831
47978SOL     OW45830   0.426  14.248  11.896
47978SOL    HW145831   0.387  14.205  11.819
47978SOL    HW245832   0.357  14.306  11.928
47979SOL     OW45833   4.126   8.599   7.639
47979SOL    HW145834   4.168   8.627   7.558
47979SOL    HW245835   4.044   8.557   7.611
47980SOL     OW45836   4.645   6.273   5.921
47980SOL    HW145837   4.718   6.220   5.952
47980SOL    HW245838   4.668   6.362   5.947
47981SOL     OW45839  11.706   2.076   3.765
47981SOL    HW145840  11.616   2.089   3.795
47981SOL    HW245841  11.725   2.153   3.712
47982SOL     OW45842  13.833   2.919   4.736
47982SOL    HW145843  13.795   2.836   4.766
47982SOL    HW245844  13.918   2.923   4.779
47983SOL     OW45845   5.676   5.129  14.551
47983SOL    HW145846   5.657   5.042  14.515
47983SOL    HW245847   5.602   5.148  14.608
47984SOL     OW45848  12.888   2.942   1.617
47984SOL    HW145849  12.882   2.938   1.522
47984SOL    HW245850  12.828   3.013   1.642
47985SOL     OW45851  10.860   7.995  13.253
47985SOL    HW145852  10.790   7.930  13.257
47985SOL    HW245853  10.892   7.991  13.163
47986SOL     OW45854  10.382   7.228  11.614
47986SOL    HW145855  10.313   7.178  11.658
47986SOL    HW245856  10.392   7.307  11.668
47987SOL     OW45857   9.305  12.296   5.438
47987SOL    HW145858   9.299  12.355   5.512
47987SOL    HW245859   9.381  12.325   5.389
47988SOL     OW45860   3.736  13.170  11.491
47988SOL    HW145861   3.816  13.196  11.445
47988SOL    HW245862   3.758  13.179  11.584
47989SOL     OW45863  14.818   8.732  12.517
47989SOL    HW145864  14.774   8.801  12.567
47989SOL    HW245865   0.005   8.688  12.580
47990SOL     OW45866   6.788   8.854  10.141
47990SOL    HW145867   6.855   8.833  10.206
47990SOL    HW245868   6.808   8.797  10.066
47991SOL     OW45869  11.688   5.182  11.014
47991SOL    HW145870  11.628   5.150  11.081
47991SOL    HW245871  11.661   5.272  10.998
47992SOL     OW45872   9.101  10.272   6.317
47992SOL    HW145873   9.150  10.353   6.327
47992SOL    HW245874   9.071  10.273   6.226
47993SOL     OW45875  13.743   3.966   3.693
47993SOL    HW145876  13.807   3.936   3.628
47993SOL    HW245877  13.796   4.002   3.765
47994SOL     OW45878  13.069   4.900   0.172
47994SOL    HW145879  13.045   4.904   0.079
47994SOL    HW245880  13.164   4.913   0.172
47995SOL     OW45881   7.191  11.279   9.568
47995SOL    HW145882   7.114  11.298   9.514
47995SOL    HW245883   7.161  11.213   9.630
47996SOL     OW45884   3.293  10.332   6.788
47996SOL    HW145885   3.383  10.340   6.821
47996SOL    HW245886   3.239  10.332   6.867
47997SOL     OW45887   2.772   2.371   5.349
47997SOL    HW145888   2.866   2.357   5.358
47997SOL    HW245889   2.765   2.463   5.321
47998SOL     OW45890  11.187  11.007   1.344
47998SOL    HW145891  11.171  11.098   1.319
47998SOL    HW245892  11.279  11.006   1.371
47999SOL     OW45893   9.581   5.873   6.523
47999SOL    HW145894   9.533   5.949   6.555
47999SOL    HW245895   9.645   5.910   6.461
48000SOL     OW45896  13.957   2.565   0.115
48000SOL    HW145897  13.884   2.529   0.165
48000SOL    HW245898  13.961   2.657   0.141
48001SOL     OW45899  12.866   9.389   8.224
48001SOL    HW145900  12.931   9.445   8.182
48001SOL    HW245901  12.917   9.327   8.275
48002SOL     OW45902  14.383  14.518   5.492
48002SOL    HW145903  14.310  14.460   5.513
48002SOL    HW245904  14.361  14.600   5.536
48003SOL     OW45905   2.205   8.817   3.801
48003SOL    HW145906   2.170   8.893   3.754
48003SOL    HW245907   2.150   8.809   3.879
48004SOL     OW45908   1.986   6.554  14.466
48004SOL    HW145909   2.069   6.571  14.421
48004SOL    HW245910   1.921   6.553  14.396
48005SOL     OW45911  11.032   7.406   7.066
48005SOL    HW145912  11.053   7.478   7.125
48005SOL    HW245913  11.019   7.331   7.123
48006SOL     OW45914   2.428   4.907   0.503
48006SOL    HW145915   2.509   4.865   0.533
48006SOL    HW245916   2.449   4.938   0.415
48007SOL     OW45917  12.601   5.689   8.715
48007SOL    HW145918  12.562   5.648   8.792
48007SOL    HW245919  12.533   5.685   8.648
48008SOL     OW45920  10.776   3.969   7.013
48008SOL    HW145921  10.769   3.893   7.071
48008SOL    HW245922  10.746   4.042   7.067
48009SOL     OW45923  12.709   1.504   9.048
48009SOL    HW145924  12.802   1.512   9.027
48009SOL    HW245925  12.666   1.494   8.963
48010SOL     OW45926   2.414  14.066  13.010
48010SOL    HW145927   2.319  14.078  13.016
48010SOL    HW245928   2.425  13.979  12.972
48011SOL     OW45929   7.788   5.046   4.983
48011SOL    HW145930   7.696   5.065   4.963
48011SOL    HW245931   7.822   5.127   5.020
48012SOL     OW45932   2.353  14.060   4.861
48012SOL    HW145933   2.300  14.054   4.940
48012SOL    HW245934   2.289  14.074   4.791
48013SOL     OW45935   3.932   0.656   2.033
48013SOL    HW145936   3.904   0.578   1.986
48013SOL    HW245937   4.022   0.636   2.061
48014SOL     OW45938   0.951  14.230  11.664
48014SOL    HW145939   0.963  14.286  11.587
48014SOL    HW245940   0.886  14.276  11.717
48015SOL     OW45941   7.188   1.072   7.732
48015SOL    HW145942   7.261   1.013   7.748
48015SOL    HW245943   7.111   1.016   7.732
48016SOL     OW45944   9.428   4.846   6.361
48016SOL    HW145945   9.432   4.804   6.275
48016SOL    HW245946   9.477   4.788   6.418
48017SOL     OW45947   2.504   2.338   5.240
48017SOL    HW145948   2.437   2.373   5.298
48017SOL    HW245949   2.584   2.339   5.292
48018SOL     OW45950  11.907   7.597   2.992
48018SOL    HW145951  11.882   7.648   3.069
48018SOL    HW245952  11.866   7.644   2.919
48019SOL     OW45953  14.708   7.059  11.212
48019SOL    HW145954  14.654   7.121  11.162
48019SOL    HW245955  14.679   7.071  11.303
48020SOL     OW45956  11.138  14.851   6.957
48020SOL    HW145957  11.147   0.014   6.868
48020SOL    HW245958  11.080   0.045   7.000
48021SOL     OW45959   4.087   1.592   0.970
48021SOL    HW145960   4.105   1.559   1.058
48021SOL    HW245961   4.121   1.681   0.971
48022SOL     OW45962  12.227  10.715   1.873
48022SOL    HW145963  12.230  10.801   1.916
48022SOL    HW245964  12.312  10.706   1.831
48023SOL     OW45965   2.312   3.118  11.222
48023SOL    HW145966   2.321   3.029  11.186
48023SOL    HW245967   2.378   3.123  11.291
48024SOL     OW45968  10.972   3.616   3.511
48024SOL    HW145969  10.989   3.664   3.592
48024SOL    HW245970  10.998   3.526   3.530
48025SOL     OW45971  11.142  14.700  13.919
48025SOL    HW145972  11.051  14.709  13.890
48025SOL    HW245973  11.188  14.770  13.873
48026SOL     OW45974   9.345  13.590   2.022
48026SOL    HW145975   9.344  13.594   1.926
48026SOL    HW245976   9.430  13.627   2.047
48027SOL     OW45977   0.567  11.159  14.531
48027SOL    HW145978   0.621  11.096  14.579
48027SOL    HW245979   0.477  11.129  14.547
48028SOL     OW45980  14.113   2.532  12.526
48028SOL    HW145981  14.084   2.621  12.508
48028SOL    HW245982  14.150   2.536  12.614
48029SOL     OW45983   1.032   0.008  12.749
48029SOL    HW145984   1.056   0.075  12.684
48029SOL    HW245985   0.978   0.054  12.813
48030SOL     OW45986  11.812  14.519   7.078
48030SOL    HW145987  11.742  14.453   7.071
48030SOL    HW245988  11.859  14.514   6.995
48031SOL     OW45989  11.447  11.741   5.753
48031SOL    HW145990  11.422  11.669   5.695
48031SOL    HW245991  11.387  11.813   5.729
48032SOL     OW45992   3.092   4.918  12.570
48032SOL    HW145993   3.164   4.980  12.560
48032SOL    HW245994   3.027   4.945  12.506
48033SOL     OW45995  11.441  13.530  14.429
48033SOL    HW145996  11.369  13.470  14.448
48033SOL    HW245997  11.518  13.474  14.428
48034SOL     OW45998   1.985   2.504   8.065
48034SOL    HW145999   1.893   2.483   8.046
48034SOL    HW246000   2.000   2.469   8.153
48035SOL     OW46001   9.279   1.897   1.366
48035SOL    HW146002   9.194   1.874   1.328
48035SOL    HW246003   9.261   1.974   1.421
48036SOL     OW46004   6.684   7.290   7.764
48036SOL    HW146005   6.709   7.198   7.769
48036SOL    HW246006   6.651   7.301   7.674
48037SOL     OW46007   1.197   3.214   6.998
48037SOL    HW146008   1.202   3.236   7.091
48037SOL    HW246009   1.104   3.197   6.983
48038SOL     OW46010   4.572   7.219   4.855
48038SOL    HW146011   4.662   7.247   4.875
48038SOL    HW246012   4.577   7.187   4.765
48039SOL     OW46013   5.144  12.739   0.481
48039SOL    HW146014   5.238  12.760   0.478
48039SOL    HW246015   5.137  12.655   0.437
48040SOL     OW46016  13.985   6.109   2.132
48040SOL    HW146017  13.921   6.084   2.066
48040SOL    HW246018  14.069   6.109   2.084
48041SOL     OW46019   6.036   5.765   8.198
48041SOL    HW146020   6.100   5.727   8.258
48041SOL    HW246021   6.064   5.855   8.187
48042SOL     OW46022   0.944  14.037  13.149
48042SOL    HW146023   0.849  14.036  13.138
48042SOL    HW246024   0.957  14.033  13.244
48043SOL     OW46025   0.706   1.536   6.662
48043SOL    HW146026   0.798   1.558   6.650
48043SOL    HW246027   0.688   1.557   6.754
48044SOL     OW46028  11.494  14.677   1.989
48044SOL    HW146029  11.508  14.620   2.065
48044SOL    HW246030  11.406  14.654   1.959
48045SOL     OW46031  13.435   8.496   0.788
48045SOL    HW146032  13.450   8.475   0.696
48045SOL    HW246033  13.392   8.582   0.787
48046SOL     OW46034   9.551   2.321   1.447
48046SOL    HW146035   9.607   2.266   1.392
48046SOL    HW246036   9.607   2.396   1.470
48047SOL     OW46037   0.068   1.908   5.971
48047SOL    HW146038  14.849   1.944   5.977
48047SOL    HW246039   0.124   1.978   6.007
48048SOL     OW46040  12.534  11.845   8.251
48048SOL    HW146041  12.562  11.827   8.341
48048SOL    HW246042  12.515  11.759   8.214
48049SOL     OW46043  12.883   3.457   6.758
48049SOL    HW146044  12.804   3.471   6.810
48049SOL    HW246045  12.952   3.447   6.823
48050SOL     OW46046  10.044   2.357  10.840
48050SOL    HW146047   9.968   2.392  10.794
48050SOL    HW246048  10.036   2.392  10.929
48051SOL     OW46049  12.291  14.825  11.766
48051SOL    HW146050  12.260   0.046  11.770
48051SOL    HW246051  12.211  14.773  11.756
48052SOL     OW46052  12.024  14.274   9.514
48052SOL    HW146053  11.998  14.183   9.497
48052SOL    HW246054  11.975  14.299   9.593
48053SOL     OW46055   2.847  14.646  12.254
48053SOL    HW146056   2.895  14.715  12.299
48053SOL    HW246057   2.808  14.689  12.178
48054SOL     OW46058   4.331   8.608   2.071
48054SOL    HW146059   4.409   8.632   2.021
48054SOL    HW246060   4.304   8.524   2.035
48055SOL     OW46061   3.032  10.023   4.622
48055SOL    HW146062   2.972  10.056   4.555
48055SOL    HW246063   3.090  10.096   4.641
48056SOL     OW46064   6.050  12.442   5.093
48056SOL    HW146065   6.074  12.428   5.002
48056SOL    HW246066   5.960  12.410   5.100
48057SOL     OW46067   5.794  10.316  11.909
48057SOL    HW146068   5.735  10.290  11.980
48057SOL    HW246069   5.777  10.252  11.839
48058SOL     OW46070   7.711   3.862  12.013
48058SOL    HW146071   7.753   3.935  11.968
48058SOL    HW246072   7.755   3.857  12.098
48059SOL     OW46073   2.156  12.608  12.398
48059SOL    HW146074   2.097  12.683  12.407
48059SOL    HW246075   2.162  12.593  12.304
48060SOL     OW46076  11.401   8.160  12.958
48060SOL    HW146077  11.457   8.233  12.933
48060SOL    HW246078  11.312   8.192  12.945
48061SOL     OW46079   9.874   6.673   4.566
48061SOL    HW146080   9.846   6.641   4.652
48061SOL    HW246081   9.926   6.750   4.585
48062SOL     OW46082   4.743  10.453   3.635
48062SOL    HW146083   4.754  10.370   3.681
48062SOL    HW246084   4.648  10.468   3.636
48063SOL     OW46085  13.276   8.616   8.067
48063SOL    HW146086  13.200   8.647   8.018
48063SOL    HW246087  13.243   8.605   8.157
48064SOL     OW46088   4.581   7.147   0.688
48064SOL    HW146089   4.650   7.125   0.751
48064SOL    HW246090   4.611   7.110   0.605
48065SOL     OW46091   3.246   5.271  13.378
48065SOL    HW146092   3.311   5.260  13.308
48065SOL    HW246093   3.165   5.236  13.340
48066SOL     OW46094   7.965  12.972   4.166
48066SOL    HW146095   8.037  12.909   4.161
48066SOL    HW246096   7.969  13.006   4.255
48067SOL     OW46097   4.819   0.563   7.393
48067SOL    HW146098   4.885   0.619   7.353
48067SOL    HW246099   4.859   0.476   7.393
48068SOL     OW46100   9.036   8.686   3.578
48068SOL    HW146101   9.106   8.632   3.540
48068SOL    HW246102   8.961   8.672   3.520
48069SOL     OW46103   9.712   1.560  10.020
48069SOL    HW146104   9.775   1.618   9.976
48069SOL    HW246105   9.626   1.593   9.994
48070SOL     OW46106   1.999   6.843   7.379
48070SOL    HW146107   2.039   6.929   7.390
48070SOL    HW246108   1.905   6.859   7.384
48071SOL     OW46109   5.893  11.356   6.799
48071SOL    HW146110   5.865  11.265   6.787
48071SOL    HW246111   5.945  11.376   6.722
48072SOL     OW46112   0.032  12.432   4.030
48072SOL    HW146113   0.078  12.364   4.079
48072SOL    HW246114   0.021  12.503   4.093
48073SOL     OW46115  11.786   0.177   4.091
48073SOL    HW146116  11.796   0.182   4.186
48073SOL    HW246117  11.749   0.261   4.066
48074SOL     OW46118  12.690   7.777  12.927
48074SOL    HW146119  12.765   7.817  12.882
48074SOL    HW246120  12.632   7.850  12.947
48075SOL     OW46121   4.977   7.188   1.101
48075SOL    HW146122   4.932   7.104   1.091
48075SOL    HW246123   4.916   7.241   1.153
48076SOL     OW46124   1.840   3.892   5.049
48076SOL    HW146125   1.929   3.865   5.068
48076SOL    HW246126   1.832   3.978   5.089
48077SOL     OW46127   0.893  13.419   9.316
48077SOL    HW146128   0.836  13.457   9.249
48077SOL    HW246129   0.879  13.475   9.393
48078SOL     OW46130  12.145   1.815   8.564
48078SOL    HW146131  12.098   1.816   8.648
48078SOL    HW246132  12.107   1.888   8.515
48079SOL     OW46133  10.328   2.951  14.166
48079SOL    HW146134  10.387   2.972  14.238
48079SOL    HW246135  10.368   2.992  14.089
48080SOL     OW46136  11.889   7.653  14.537
48080SOL    HW146137  11.961   7.692  14.488
48080SOL    HW246138  11.817   7.717  14.529
48081SOL     OW46139   3.142   6.612   1.621
48081SOL    HW146140   3.158   6.706   1.607
48081SOL    HW246141   3.229   6.572   1.612
48082SOL     OW46142   6.795  14.260   6.263
48082SOL    HW146143   6.812  14.345   6.221
48082SOL    HW246144   6.771  14.282   6.353
48083SOL     OW46145  10.856  10.125   5.333
48083SOL    HW146146  10.894  10.213   5.332
48083SOL    HW246147  10.910  10.076   5.395
48084SOL     OW46148   0.275   2.359   9.776
48084SOL    HW146149   0.363   2.395   9.787
48084SOL    HW246150   0.220   2.413   9.834
48085SOL     OW46151  12.519   4.019  11.756
48085SOL    HW146152  12.561   3.938  11.726
48085SOL    HW246153  12.426   4.006  11.737
48086SOL     OW46154   7.499   9.261  13.212
48086SOL    HW146155   7.468   9.350  13.195
48086SOL    HW246156   7.464   9.209  13.140
48087SOL     OW46157  11.182   0.800   2.185
48087SOL    HW146158  11.265   0.769   2.220
48087SOL    HW246159  11.122   0.801   2.260
48088SOL     OW46160   7.658   1.897   9.730
48088SOL    HW146161   7.704   1.862   9.653
48088SOL    HW246162   7.566   1.899   9.703
48089SOL     OW46163   5.073  10.975   5.949
48089SOL    HW146164   4.992  11.018   5.920
48089SOL    HW246165   5.065  10.969   6.044
48090SOL     OW46166   1.192  13.381   3.093
48090SOL    HW146167   1.274  13.335   3.081
48090SOL    HW246168   1.201  13.461   3.042
48091SOL     OW46169   3.867  13.975  13.999
48091SOL    HW146170   3.818  13.993  14.079
48091SOL    HW246171   3.935  14.042  13.996
48092SOL     OW46172   8.324   7.591   0.753
48092SOL    HW146173   8.286   7.519   0.703
48092SOL    HW246174   8.288   7.581   0.841
48093SOL     OW46175   2.979   7.337  10.350
48093SOL    HW146176   3.068   7.364  10.372
48093SOL    HW246177   2.977   7.243  10.366
48094SOL     OW46178   0.020  12.236   2.242
48094SOL    HW146179  14.812  12.222   2.296
48094SOL    HW246180   0.064  12.151   2.240
48095SOL     OW46181   7.479   9.666   3.162
48095SOL    HW146182   7.560   9.614   3.164
48095SOL    HW246183   7.499   9.740   3.106
48096SOL     OW46184   1.994  11.192  13.692
48096SOL    HW146185   1.919  11.151  13.650
48096SOL    HW246186   1.968  11.283  13.707
48097SOL     OW46187   3.908  12.539   2.453
48097SOL    HW146188   3.983  12.594   2.475
48097SOL    HW246189   3.944  12.473   2.394
48098SOL     OW46190  12.475   1.371   5.319
48098SOL    HW146191  12.555   1.327   5.291
48098SOL    HW246192  12.432   1.397   5.238
48099SOL     OW46193  12.358   3.021  11.331
48099SOL    HW146194  12.349   3.061  11.418
48099SOL    HW246195  12.332   3.091  11.271
48100SOL     OW46196  14.840  10.322  10.067
48100SOL    HW146197  14.756  10.313  10.112
48100SOL    HW246198   0.005  10.406  10.096
48101SOL     OW46199   2.327   6.833   4.464
48101SOL    HW146200   2.370   6.788   4.391
48101SOL    HW246201   2.247   6.869   4.426
48102SOL     OW46202   6.301   1.121   3.185
48102SOL    HW146203   6.367   1.080   3.240
48102SOL    HW246204   6.220   1.076   3.207
48103SOL     OW46205  11.180  13.902   5.196
48103SOL    HW146206  11.196  13.973   5.258
48103SOL    HW246207  11.157  13.827   5.250
48104SOL     OW46208  13.105   3.374   8.141
48104SOL    HW146209  13.038   3.312   8.170
48104SOL    HW246210  13.066   3.460   8.158
48105SOL     OW46211   7.610   0.990  11.508
48105SOL    HW146212   7.535   0.957  11.459
48105SOL    HW246213   7.612   1.084  11.488
48106SOL     OW46214  14.869  12.763  12.028
48106SOL    HW146215  14.860  12.668  12.034
48106SOL    HW246216  14.802  12.798  12.087
48107SOL     OW46217  11.401   1.850   0.497
48107SOL    HW146218  11.367   1.814   0.415
48107SOL    HW246219  11.480   1.898   0.471
48108SOL     OW46220  13.613   7.363   1.234
48108SOL    HW146221  13.639   7.423   1.304
48108SOL    HW246222  13.688   7.305   1.224
48109SOL     OW46223   7.959   6.622   8.697
48109SOL    HW146224   8.030   6.560   8.712
48109SOL    HW246225   7.903   6.580   8.632
48110SOL     OW46226  13.332  12.093  10.056
48110SOL    HW146227  13.311  12.039  10.133
48110SOL    HW246228  13.427  12.089  10.050
48111SOL     OW46229   7.193  13.409   1.676
48111SOL    HW146230   7.106  13.439   1.650
48111SOL    HW246231   7.197  13.425   1.770
48112SOL     OW46232  10.437  11.462   0.347
48112SOL    HW146233  10.388  11.543   0.335
48112SOL    HW246234  10.467  11.465   0.438
48113SOL     OW46235   3.003   6.039  14.439
48113SOL    HW146236   3.022   5.946  14.444
48113SOL    HW246237   2.981   6.054  14.347
48114SOL     OW46238   1.978   7.313   8.711
48114SOL    HW146239   2.016   7.309   8.623
48114SOL    HW246240   1.933   7.398   8.713
48115SOL     OW46241   5.350  14.438   7.905
48115SOL    HW146242   5.382  14.348   7.899
48115SOL    HW246243   5.402  14.478   7.975
48116SOL     OW46244  10.683   4.132   9.039
48116SOL    HW146245  10.736   4.116   8.961
48116SOL    HW246246  10.613   4.191   9.009
48117SOL     OW46247   3.274  10.329  13.915
48117SOL    HW146248   3.276  10.267  13.842
48117SOL    HW246249   3.245  10.276  13.990
48118SOL     OW46250  11.372   8.884   0.389
48118SOL    HW146251  11.346   8.839   0.469
48118SOL    HW246252  11.308   8.856   0.323
48119SOL     OW46253  14.432   3.815  13.241
48119SOL    HW146254  14.519   3.787  13.268
48119SOL    HW246255  14.394   3.855  13.320
48120SOL     OW46256   1.532   0.575   9.289
48120SOL    HW146257   1.471   0.580   9.362
48120SOL    HW246258   1.616   0.603   9.325
48121SOL     OW46259   3.315   7.052  13.876
48121SOL    HW146260   3.385   7.001  13.916
48121SOL    HW246261   3.348   7.142  13.874
48122SOL     OW46262   9.650   0.328   1.076
48122SOL    HW146263   9.566   0.316   1.031
48122SOL    HW246264   9.694   0.244   1.069
48123SOL     OW46265  11.851   7.558   3.372
48123SOL    HW146266  11.789   7.506   3.423
48123SOL    HW246267  11.795   7.613   3.317
48124SOL     OW46268   6.384   0.196  13.944
48124SOL    HW146269   6.418   0.141  13.873
48124SOL    HW246270   6.364   0.280  13.901
48125SOL     OW46271   9.674  12.998   6.427
48125SOL    HW146272   9.679  13.067   6.493
48125SOL    HW246273   9.606  12.939   6.459
48126SOL     OW46274   6.050   9.420   2.721
48126SOL    HW146275   6.060   9.423   2.816
48126SOL    HW246276   6.106   9.347   2.693
48127SOL     OW46277   2.659   5.007  11.799
48127SOL    HW146278   2.645   4.964  11.715
48127SOL    HW246279   2.714   5.082  11.779
48128SOL     OW46280  14.091  11.058   0.665
48128SOL    HW146281  14.027  11.045   0.734
48128SOL    HW246282  14.165  11.002   0.689
48129SOL     OW46283  10.961   5.709   8.145
48129SOL    HW146284  10.928   5.794   8.116
48129SOL    HW246285  11.020   5.681   8.075
48130SOL     OW46286   9.829   4.077  14.076
48130SOL    HW146287   9.742   4.092  14.113
48130SOL    HW246288   9.819   3.998  14.022
48131SOL     OW46289   9.537   7.910   7.959
48131SOL    HW146290   9.618   7.958   7.979
48131SOL    HW246291   9.504   7.882   8.044
48132SOL     OW46292   8.083  12.927   2.513
48132SOL    HW146293   8.059  12.924   2.606
48132SOL    HW246294   8.178  12.935   2.513
48133SOL     OW46295   1.782   8.127   3.942
48133SOL    HW146296   1.839   8.195   3.979
48133SOL    HW246297   1.831   8.093   3.868
48134SOL     OW46298   3.007  12.333   1.416
48134SOL    HW146299   3.041  12.381   1.491
48134SOL    HW246300   2.921  12.373   1.399
48135SOL     OW46301   8.327   6.946   8.025
48135SOL    HW146302   8.264   6.946   7.953
48135SOL    HW246303   8.294   6.881   8.086
48136SOL     OW46304   5.183   6.266   1.542
48136SOL    HW146305   5.161   6.355   1.513
48136SOL    HW246306   5.202   6.275   1.635
48137SOL     OW46307   5.616   8.577   8.757
48137SOL    HW146308   5.685   8.515   8.731
48137SOL    HW246309   5.535   8.535   8.730
48138SOL     OW46310   6.940   6.672  14.783
48138SOL    HW146311   6.853   6.668  14.822
48138SOL    HW246312   6.934   6.614  14.706
48139SOL     OW46313  10.928  11.308  13.227
48139SOL    HW146314  10.992  11.378  13.215
48139SOL    HW246315  10.852  11.352  13.266
48140SOL     OW46316  10.467   6.638   6.266
48140SOL    HW146317  10.417   6.589   6.332
48140SOL    HW246318  10.558   6.614   6.284
48141SOL     OW46319   4.574   7.794   3.852
48141SOL    HW146320   4.610   7.801   3.763
48141SOL    HW246321   4.584   7.701   3.875
48142SOL     OW46322   4.679   7.711   4.873
48142SOL    HW146323   4.683   7.683   4.781
48142SOL    HW246324   4.765   7.751   4.890
48143SOL     OW46325  11.693  14.153  12.424
48143SOL    HW146326  11.641  14.078  12.396
48143SOL    HW246327  11.781  14.117  12.438
48144SOL     OW46328  14.666  12.432   8.871
48144SOL    HW146329  14.590  12.379   8.848
48144SOL    HW246330  14.694  12.399   8.956
48145SOL     OW46331   9.830  10.126   3.323
48145SOL    HW146332   9.908  10.153   3.274
48145SOL    HW246333   9.837  10.172   3.407
48146SOL     OW46334   1.993   1.805   7.685
48146SOL    HW146335   1.971   1.879   7.629
48146SOL    HW246336   1.934   1.735   7.657
48147SOL     OW46337  13.385   9.579   3.275
48147SOL    HW146338  13.436   9.500   3.294
48147SOL    HW246339  13.295   9.547   3.269
48148SOL     OW46340   9.954   4.814   1.667
48148SOL    HW146341  10.027   4.849   1.718
48148SOL    HW246342   9.911   4.753   1.727
48149SOL     OW46343   0.215  10.764   6.542
48149SOL    HW146344   0.153  10.796   6.607
48149SOL    HW246345   0.279  10.714   6.592
48150SOL     OW46346   9.372   1.970  11.524
48150SOL    HW146347   9.458   2.011  11.526
48150SOL    HW246348   9.384   1.888  11.574
48151SOL     OW46349  11.032  10.598  10.789
48151SOL    HW146350  10.977  10.521  10.775
48151SOL    HW246351  11.057  10.625  10.701
48152SOL     OW46352  10.607   7.258   8.348
48152SOL    HW146353  10.699   7.283   8.362
48152SOL    HW246354  10.606   7.219   8.261
48153SOL     OW46355  11.898   4.710   0.959
48153SOL    HW146356  11.991   4.692   0.972
48153SOL    HW246357  11.868   4.639   0.901
48154SOL     OW46358  11.531   9.303   8.306
48154SOL    HW146359  11.612   9.302   8.358
48154SOL    HW246360  11.463   9.277   8.368
48155SOL     OW46361  14.788   9.179   7.479
48155SOL    HW146362  14.837   9.248   7.522
48155SOL    HW246363  14.764   9.118   7.549
48156SOL     OW46364   6.245   2.038   4.122
48156SOL    HW146365   6.273   2.089   4.198
48156SOL    HW246366   6.150   2.031   4.131
48157SOL     OW46367  10.102  13.590   3.645
48157SOL    HW146368  10.017  13.624   3.619
48157SOL    HW246369  10.153  13.590   3.564
48158SOL     OW46370  14.842  12.638   2.036
48158SOL    HW146371  14.860  12.602   1.949
48158SOL    HW246372   0.023  12.583   2.095
48159SOL     OW46373  13.565  11.666   9.992
48159SOL    HW146374  13.502  11.677  10.064
48159SOL    HW246375  13.585  11.755   9.964
48160SOL     OW46376   6.630   2.800   6.026
48160SOL    HW146377   6.558   2.761   6.076
48160SOL    HW246378   6.699   2.817   6.091
48161SOL     OW46379   8.167   8.673   1.265
48161SOL    HW146380   8.098   8.703   1.207
48161SOL    HW246381   8.235   8.740   1.259
48162SOL     OW46382  14.792   5.721  11.990
48162SOL    HW146383  14.784   5.641  11.938
48162SOL    HW246384  14.705   5.761  11.986
48163SOL     OW46385  12.157   5.155  14.597
48163SOL    HW146386  12.235   5.207  14.579
48163SOL    HW246387  12.188   5.065  14.601
48164SOL     OW46388  13.832   0.485  14.171
48164SOL    HW146389  13.905   0.531  14.129
48164SOL    HW246390  13.873   0.426  14.234
48165SOL     OW46391   8.753  10.071  14.456
48165SOL    HW146392   8.727   9.980  14.441
48165SOL    HW246393   8.698  10.122  14.397
48166SOL     OW46394   0.232   5.369   2.788
48166SOL    HW146395   0.188   5.317   2.856
48166SOL    HW246396   0.253   5.452   2.831
48167SOL     OW46397   5.857  12.118  10.134
48167SOL    HW146398   5.822  12.107  10.223
48167SOL    HW246399   5.944  12.153  10.146
48168SOL     OW46400   7.275   7.935  11.299
48168SOL    HW146401   7.186   7.969  11.291
48168SOL    HW246402   7.314   7.947  11.213
48169SOL     OW46403  11.351   0.774   3.402
48169SOL    HW146404  11.407   0.764   3.478
48169SOL    HW246405  11.262   0.760   3.435
48170SOL     OW46406  11.442   5.335  14.837
48170SOL    HW146407  11.429   5.426  14.808
48170SOL    HW246408  11.484   5.343   0.053
48171SOL     OW46409   9.110   6.474   1.034
48171SOL    HW146410   9.059   6.492   1.113
48171SOL    HW246411   9.044   6.447   0.969
48172SOL     OW46412   5.782   0.097  10.210
48172SOL    HW146413   5.704   0.133  10.253
48172SOL    HW246414   5.748   0.052  10.133
48173SOL     OW46415  11.966   8.390   3.034
48173SOL    HW146416  11.938   8.414   2.946
48173SOL    HW246417  11.895   8.334   3.067
48174SOL     OW46418   1.711  12.525   8.381
48174SOL    HW146419   1.702  12.462   8.309
48174SOL    HW246420   1.804  12.522   8.403
48175SOL     OW46421   5.283   6.426   2.571
48175SOL    HW146422   5.358   6.376   2.604
48175SOL    HW246423   5.284   6.507   2.622
48176SOL     OW46424  13.978   8.429   9.444
48176SOL    HW146425  14.072   8.443   9.444
48176SOL    HW246426  13.940   8.516   9.457
48177SOL     OW46427   2.928   1.080  11.888
48177SOL    HW146428   3.009   1.059  11.842
48177SOL    HW246429   2.907   1.000  11.937
48178SOL     OW46430  14.165   7.157   6.942
48178SOL    HW146431  14.258   7.135   6.937
48178SOL    HW246432  14.130   7.135   6.856
48179SOL     OW46433   2.629  10.338   3.750
48179SOL    HW146434   2.618  10.433   3.754
48179SOL    HW246435   2.671  10.315   3.833
48180SOL     OW46436   9.384   5.631  14.288
48180SOL    HW146437   9.300   5.664  14.256
48180SOL    HW246438   9.397   5.676  14.372
48181SOL     OW46439   9.281  10.159   1.114
48181SOL    HW146440   9.309  10.102   1.042
48181SOL    HW246441   9.225  10.225   1.072
48182SOL     OW46442   8.159   7.346  11.374
48182SOL    HW146443   8.227   7.352  11.307
48182SOL    HW246444   8.083   7.311  11.329
48183SOL     OW46445   6.719  10.160   9.425
48183SOL    HW146446   6.736  10.101   9.499
48183SOL    HW246447   6.741  10.108   9.348
48184SOL     OW46448   3.996  11.352   8.192
48184SOL    HW146449   4.077  11.403   8.194
48184SOL    HW246450   4.023  11.264   8.168
48185SOL     OW46451   3.489  14.260  11.653
48185SOL    HW146452   3.551  14.201  11.611
48185SOL    HW246453   3.403  14.221  11.636
48186SOL     OW46454   0.631   7.099   3.065
48186SOL    HW146455   0.560   7.116   3.003
48186SOL    HW246456   0.710   7.096   3.011
48187SOL     OW46457   3.945   7.778   1.393
48187SOL    HW146458   3.856   7.802   1.367
48187SOL    HW246459   4.001   7.820   1.328
48188SOL     OW46460   3.424   4.538   0.687
48188SOL    HW146461   3.365   4.564   0.758
48188SOL    HW246462   3.375   4.556   0.607
48189SOL     OW46463   9.264  11.359   2.417
48189SOL    HW146464   9.233  11.443   2.452
48189SOL    HW246465   9.205  11.341   2.343
48190SOL     OW46466  14.482  13.142   6.668
48190SOL    HW146467  14.511  13.053   6.690
48190SOL    HW246468  14.391  13.146   6.697
48191SOL     OW46469   9.789   6.319  13.002
48191SOL    HW146470   9.860   6.270  13.044
48191SOL    HW246471   9.815   6.411  13.011
48192SOL     OW46472   7.538   0.530   1.835
48192SOL    HW146473   7.469   0.488   1.885
48192SOL    HW246474   7.548   0.475   1.757
48193SOL     OW46475   9.052   6.903   4.913
48193SOL    HW146476   9.031   6.813   4.935
48193SOL    HW246477   9.009   6.918   4.829
48194SOL     OW46478   6.343  14.055  14.395
48194SOL    HW146479   6.434  14.050  14.365
48194SOL    HW246480   6.311  14.139  14.360
48195SOL     OW46481   8.592   7.569   5.497
48195SOL    HW146482   8.601   7.639   5.561
48195SOL    HW246483   8.497   7.564   5.481
48196SOL     OW46484   7.139  12.063   0.572
48196SOL    HW146485   7.200  12.104   0.634
48196SOL    HW246486   7.085  12.005   0.627
48197SOL     OW46487  12.750  13.679  14.207
48197SOL    HW146488  12.746  13.703  14.114
48197SOL    HW246489  12.825  13.619  14.212
48198SOL     OW46490   7.356  11.814  14.318
48198SOL    HW146491   7.286  11.752  14.338
48198SOL    HW246492   7.367  11.808  14.223
48199SOL     OW46493   0.389  12.154  13.959
48199SOL    HW146494   0.463  12.142  13.899
48199SOL    HW246495   0.429  12.184  14.041
48200SOL     OW46496   3.799   9.169   5.403
48200SOL    HW146497   3.838   9.177   5.316
48200SOL    HW246498   3.769   9.078   5.409
48201SOL     OW46499   9.465  13.913   6.902
48201SOL    HW146500   9.382  13.915   6.949
48201SOL    HW246501   9.526  13.872   6.964
48202SOL     OW46502  12.162  13.673  13.979
48202SOL    HW146503  12.142  13.720  13.898
48202SOL    HW246504  12.204  13.592  13.949
48203SOL     OW46505   1.278  11.087   3.037
48203SOL    HW146506   1.246  11.072   2.949
48203SOL    HW246507   1.210  11.140   3.079
48204SOL     OW46508  11.493  14.770  11.405
48204SOL    HW146509  11.514  14.856  11.441
48204SOL    HW246510  11.549  14.761  11.328
48205SOL     OW46511   1.879  11.420   6.515
48205SOL    HW146512   1.826  11.492   6.550
48205SOL    HW246513   1.822  11.343   6.522
48206SOL     OW46514   8.792   8.443   4.194
48206SOL    HW146515   8.751   8.376   4.140
48206SOL    HW246516   8.765   8.526   4.154
48207SOL     OW46517  10.083  10.981  13.650
48207SOL    HW146518  10.052  11.070  13.668
48207SOL    HW246519  10.017  10.945  13.590
48208SOL     OW46520   3.570   9.271   8.173
48208SOL    HW146521   3.612   9.318   8.244
48208SOL    HW246522   3.490   9.236   8.211
48209SOL     OW46523   9.278   0.189   8.585
48209SOL    HW146524   9.220   0.249   8.538
48209SOL    HW246525   9.359   0.237   8.596
48210SOL     OW46526  14.414   6.035   7.920
48210SOL    HW146527  14.341   6.097   7.921
48210SOL    HW246528  14.422   6.006   8.011
48211SOL     OW46529  11.616   4.165  11.962
48211SOL    HW146530  11.558   4.131  11.893
48211SOL    HW246531  11.703   4.164  11.923
48212SOL     OW46532   3.836   3.853  11.811
48212SOL    HW146533   3.874   3.787  11.753
48212SOL    HW246534   3.889   3.848  11.891
48213SOL     OW46535   7.235   7.636   1.191
48213SOL    HW146536   7.277   7.721   1.182
48213SOL    HW246537   7.228   7.602   1.102
48214SOL     OW46538  11.970  11.166  10.023
48214SOL    HW146539  11.930  11.165   9.936
48214SOL    HW246540  11.908  11.118  10.078
48215SOL     OW46541   8.139  12.214   7.872
48215SOL    HW146542   8.177  12.139   7.826
48215SOL    HW246543   8.091  12.175   7.945
48216SOL     OW46544   4.351  10.330   5.324
48216SOL    HW146545   4.321  10.291   5.242
48216SOL    HW246546   4.429  10.381   5.299
48217SOL     OW46547  12.100   4.894   5.937
48217SOL    HW146548  12.025   4.898   5.997
48217SOL    HW246549  12.098   4.804   5.903
48218SOL     OW46550   6.976   2.601   4.664
48218SOL    HW146551   6.893   2.647   4.680
48218SOL    HW246552   7.043   2.661   4.697
48219SOL     OW46553  10.982   2.703   4.794
48219SOL    HW146554  10.965   2.764   4.865
48219SOL    HW246555  10.896   2.667   4.773
48220SOL     OW46556   9.700  14.399   1.954
48220SOL    HW146557   9.758  14.398   2.031
48220SOL    HW246558   9.735  14.329   1.898
48221SOL     OW46559   1.802   6.212   1.664
48221SOL    HW146560   1.729   6.171   1.711
48221SOL    HW246561   1.876   6.207   1.724
48222SOL     OW46562   9.772   9.859   2.647
48222SOL    HW146563   9.746   9.918   2.576
48222SOL    HW246564   9.854   9.897   2.680
48223SOL     OW46565   0.503   9.198  10.269
48223SOL    HW146566   0.581   9.147  10.249
48223SOL    HW246567   0.445   9.184  10.193
48224SOL     OW46568   0.409   5.490   1.314
48224SOL    HW146569   0.365   5.476   1.231
48224SOL    HW246570   0.341   5.521   1.373
48225SOL     OW46571   6.626  14.590   4.695
48225SOL    HW146572   6.557  14.527   4.717
48225SOL    HW246573   6.647  14.633   4.778
48226SOL     OW46574   3.267   0.575  14.265
48226SOL    HW146575   3.358   0.603  14.267
48226SOL    HW246576   3.217   0.657  14.271
48227SOL     OW46577  14.828   0.800   4.746
48227SOL    HW146578  14.738   0.790   4.712
48227SOL    HW246579  14.826   0.760   4.832
48228SOL     OW46580   8.366   1.450   0.275
48228SOL    HW146581   8.427   1.436   0.202
48228SOL    HW246582   8.374   1.543   0.296
48229SOL     OW46583  14.401   4.109  13.755
48229SOL    HW146584  14.350   4.164  13.695
48229SOL    HW246585  14.460   4.170  13.799
48230SOL     OW46586   8.481  10.013  10.083
48230SOL    HW146587   8.528  10.053  10.010
48230SOL    HW246588   8.390  10.040  10.072
48231SOL     OW46589  11.330   7.200  10.359
48231SOL    HW146590  11.308   7.107  10.354
48231SOL    HW246591  11.250   7.242  10.391
48232SOL     OW46592  14.280  11.514  12.979
48232SOL    HW146593  14.250  11.605  12.987
48232SOL    HW246594  14.251  11.487  12.891
48233SOL     OW46595   5.934  10.766   4.929
48233SOL    HW146596   5.879  10.760   5.008
48233SOL    HW246597   6.010  10.711   4.949
48234SOL     OW46598   7.098   8.122   1.320
48234SOL    HW146599   7.023   8.101   1.264
48234SOL    HW246600   7.062   8.181   1.386
48235SOL     OW46601   4.087   8.714   3.180
48235SOL    HW146602   4.014   8.653   3.168
48235SOL    HW246603   4.165   8.657   3.178
48236SOL     OW46604  14.393   9.889  13.293
48236SOL    HW146605  14.385   9.982  13.270
48236SOL    HW246606  14.479   9.883  13.334
48237SOL     OW46607   0.819   3.506   7.031
48237SOL    HW146608   0.867   3.494   7.113
48237SOL    HW246609   0.827   3.600   7.013
48238SOL     OW46610   5.273   9.110  14.145
48238SOL    HW146611   5.329   9.183  14.170
48238SOL    HW246612   5.334   9.044  14.110
48239SOL     OW46613   3.557   8.937   9.023
48239SOL    HW146614   3.523   8.980   8.945
48239SOL    HW246615   3.643   8.903   8.996
48240SOL     OW46616  11.819   4.608   0.515
48240SOL    HW146617  11.851   4.620   0.604
48240SOL    HW246618  11.870   4.535   0.480
48241SOL     OW46619   8.812  12.028  12.142
48241SOL    HW146620   8.855  11.943  12.151
48241SOL    HW246621   8.730  12.019  12.190
48242SOL     OW46622   9.439   0.073   8.248
48242SOL    HW146623   9.449   0.142   8.313
48242SOL    HW246624   9.492   0.102   8.174
48243SOL     OW46625   0.488  10.879  10.821
48243SOL    HW146626   0.454  10.968  10.833
48243SOL    HW246627   0.476  10.838  10.907
48244SOL     OW46628  10.249  11.261   1.084
48244SOL    HW146629  10.203  11.241   1.002
48244SOL    HW246630  10.180  11.280   1.147
48245SOL     OW46631   7.402   6.837   4.235
48245SOL    HW146632   7.421   6.929   4.217
48245SOL    HW246633   7.458   6.815   4.309
48246SOL     OW46634   1.877  11.385  10.080
48246SOL    HW146635   1.797  11.433  10.060
48246SOL    HW246636   1.846  11.303  10.119
48247SOL     OW46637  11.339   8.752  13.006
48247SOL    HW146638  11.410   8.816  12.997
48247SOL    HW246639  11.272   8.782  12.944
48248SOL     OW46640   0.240  11.094  13.329
48248SOL    HW146641   0.252  10.999  13.332
48248SOL    HW246642   0.181  11.109  13.255
48249SOL     OW46643  13.668  11.842   4.974
48249SOL    HW146644  13.702  11.756   4.951
48249SOL    HW246645  13.679  11.849   5.068
48250SOL     OW46646   6.918  10.755   2.191
48250SOL    HW146647   6.980  10.826   2.176
48250SOL    HW246648   6.836  10.799   2.216
48251SOL     OW46649   2.967   6.107  12.932
48251SOL    HW146650   2.978   6.017  12.901
48251SOL    HW246651   3.027   6.158  12.878
48252SOL     OW46652   0.223  11.121   3.606
48252SOL    HW146653   0.290  11.164   3.553
48252SOL    HW246654   0.192  11.188   3.666
48253SOL     OW46655   1.199   5.971   4.352
48253SOL    HW146656   1.193   6.060   4.388
48253SOL    HW246657   1.210   5.915   4.429
48254SOL     OW46658  11.122  14.444   5.032
48254SOL    HW146659  11.046  14.499   5.011
48254SOL    HW246660  11.197  14.499   5.011
48255SOL     OW46661   9.021   6.990   0.012
48255SOL    HW146662   8.972   7.071  14.869
48255SOL    HW246663   9.004   6.939  14.802
48256SOL     OW46664  14.508   9.616   6.924
48256SOL    HW146665  14.529   9.623   6.831
48256SOL    HW246666  14.489   9.705   6.951
48257SOL     OW46667  12.342   6.768   2.110
48257SOL    HW146668  12.371   6.694   2.163
48257SOL    HW246669  12.390   6.843   2.144
48258SOL     OW46670   1.089  10.818   7.039
48258SOL    HW146671   1.155  10.749   7.045
48258SOL    HW246672   1.005  10.770   7.037
48259SOL     OW46673   3.226   4.474   5.945
48259SOL    HW146674   3.165   4.540   5.911
48259SOL    HW246675   3.198   4.392   5.904
48260SOL     OW46676   2.442   2.547   5.058
48260SOL    HW146677   2.483   2.469   5.097
48260SOL    HW246678   2.506   2.577   4.994
48261SOL     OW46679   9.729   0.832   5.689
48261SOL    HW146680   9.794   0.895   5.656
48261SOL    HW246681   9.693   0.791   5.610
48262SOL     OW46682   7.085   8.236   2.068
48262SOL    HW146683   7.068   8.147   2.099
48262SOL    HW246684   7.014   8.288   2.105
48263SOL     OW46685   0.204   1.535   7.624
48263SOL    HW146686   0.239   1.566   7.708
48263SOL    HW246687   0.277   1.546   7.563
48264SOL     OW46688  12.450  14.366   1.012
48264SOL    HW146689  12.380  14.320   1.059
48264SOL    HW246690  12.487  14.301   0.953
48265SOL     OW46691   6.127  14.458   0.074
48265SOL    HW146692   6.191  14.506   0.022
48265SOL    HW246693   6.129  14.369   0.039
48266SOL     OW46694   4.491  14.091   9.596
48266SOL    HW146695   4.458  14.165   9.647
48266SOL    HW246696   4.444  14.095   9.513
48267SOL     OW46697   1.499   2.004   9.943
48267SOL    HW146698   1.467   2.082   9.898
48267SOL    HW246699   1.591   1.997   9.917
48268SOL     OW46700   7.251  11.671   6.228
48268SOL    HW146701   7.312  11.683   6.155
48268SOL    HW246702   7.196  11.597   6.202
48269SOL     OW46703   4.375   9.880   4.146
48269SOL    HW146704   4.465   9.903   4.126
48269SOL    HW246705   4.373   9.785   4.140
48270SOL     OW46706  12.085   5.260   4.392
48270SOL    HW146707  12.126   5.189   4.343
48270SOL    HW246708  12.125   5.339   4.358
48271SOL     OW46709   3.713   4.552   0.495
48271SOL    HW146710   3.685   4.506   0.575
48271SOL    HW246711   3.660   4.632   0.495
48272SOL     OW46712   2.233   0.738   2.917
48272SOL    HW146713   2.165   0.712   2.979
48272SOL    HW246714   2.292   0.793   2.969
48273SOL     OW46715  13.519   8.121   5.569
48273SOL    HW146716  13.470   8.170   5.634
48273SOL    HW246717  13.610   8.151   5.579
48274SOL     OW46718   9.793   5.729   4.838
48274SOL    HW146719   9.748   5.800   4.884
48274SOL    HW246720   9.729   5.695   4.776
48275SOL     OW46721   2.381   6.234   3.417
48275SOL    HW146722   2.376   6.172   3.490
48275SOL    HW246723   2.436   6.191   3.352
48276SOL     OW46724  11.805  10.868  10.701
48276SOL    HW146725  11.832  10.947  10.746
48276SOL    HW246726  11.789  10.895  10.610
48277SOL     OW46727   5.266   7.333   3.435
48277SOL    HW146728   5.350   7.289   3.439
48277SOL    HW246729   5.226   7.302   3.353
48278SOL     OW46730   8.679   4.223   3.479
48278SOL    HW146731   8.701   4.162   3.409
48278SOL    HW246732   8.626   4.171   3.540
48279SOL     OW46733   4.232   4.392   3.700
48279SOL    HW146734   4.259   4.468   3.648
48279SOL    HW246735   4.164   4.426   3.758
48280SOL     OW46736   5.280  13.679   4.479
48280SOL    HW146737   5.326  13.738   4.538
48280SOL    HW246738   5.196  13.722   4.463
48281SOL     OW46739   2.912   1.575   9.829
48281SOL    HW146740   2.990   1.524   9.806
48281SOL    HW246741   2.937   1.623   9.908
48282SOL     OW46742   6.203   1.384   6.821
48282SOL    HW146743   6.110   1.366   6.807
48282SOL    HW246744   6.206   1.474   6.854
48283SOL     OW46745   9.227   8.067  11.005
48283SOL    HW146746   9.173   8.072  11.084
48283SOL    HW246747   9.309   8.027  11.034
48284SOL     OW46748   7.652   9.788   6.622
48284SOL    HW146749   7.671   9.843   6.698
48284SOL    HW246750   7.703   9.826   6.551
48285SOL     OW46751   7.284  10.416  13.440
48285SOL    HW146752   7.351  10.372  13.492
48285SOL    HW246753   7.266  10.355  13.368
48286SOL     OW46754   1.238   2.597   0.212
48286SOL    HW146755   1.255   2.571   0.302
48286SOL    HW246756   1.325   2.607   0.173
48287SOL     OW46757  10.768  13.882  10.705
48287SOL    HW146758  10.690  13.843  10.745
48287SOL    HW246759  10.809  13.809  10.657
48288SOL     OW46760   9.677   9.809   9.339
48288SOL    HW146761   9.767   9.782   9.354
48288SOL    HW246762   9.639   9.817   9.427
48289SOL     OW46763   2.293  12.848   5.785
48289SOL    HW146764   2.233  12.871   5.714
48289SOL    HW246765   2.305  12.754   5.776
48290SOL     OW46766   1.026  11.288   9.125
48290SOL    HW146767   1.031  11.326   9.213
48290SOL    HW246768   1.110  11.311   9.085
48291SOL     OW46769   7.302   9.648  13.379
48291SOL    HW146770   7.218   9.693  13.386
48291SOL    HW246771   7.297   9.577  13.443
48292SOL     OW46772   7.289  10.784   7.344
48292SOL    HW146773   7.345  10.831   7.282
48292SOL    HW246774   7.325  10.695   7.347
48293SOL     OW46775   7.811   2.793   6.808
48293SOL    HW146776   7.848   2.861   6.751
48293SOL    HW246777   7.774   2.729   6.747
48294SOL     OW46778   3.458   0.361   7.793
48294SOL    HW146779   3.506   0.357   7.876
48294SOL    HW246780   3.493   0.438   7.749
48295SOL     OW46781   8.242   1.159   4.108
48295SOL    HW146782   8.323   1.204   4.086
48295SOL    HW246783   8.237   1.164   4.204
48296SOL     OW46784   4.283   3.822   0.102
48296SOL    HW146785   4.228   3.743   0.110
48296SOL    HW246786   4.371   3.788   0.087
48297SOL     OW46787  12.797   8.976   9.993
48297SOL    HW146788  12.768   8.979  10.084
48297SOL    HW246789  12.777   9.063   9.959
48298SOL     OW46790  13.434   6.374   7.923
48298SOL    HW146791  13.455   6.288   7.959
48298SOL    HW246792  13.518   6.409   7.894
48299SOL     OW46793   4.272   7.870  11.697
48299SOL    HW146794   4.205   7.925  11.737
48299SOL    HW246795   4.306   7.922  11.624
48300SOL     OW46796   8.749   8.599   3.501
48300SOL    HW146797   8.655   8.578   3.502
48300SOL    HW246798   8.755   8.674   3.441
48301SOL     OW46799   3.089  12.535   6.697
48301SOL    HW146800   3.018  12.531   6.761
48301SOL    HW246801   3.155  12.591   6.738
48302SOL     OW46802  11.879   9.206   6.254
48302SOL    HW146803  11.801   9.213   6.309
48302SOL    HW246804  11.942   9.160   6.309
48303SOL     OW46805  10.269   1.210  12.082
48303SOL    HW146806  10.332   1.184  12.149
48303SOL    HW246807  10.323   1.236  12.007
48304SOL     OW46808  13.068  13.717   5.868
48304SOL    HW146809  12.988  13.673   5.840
48304SOL    HW246810  13.124  13.717   5.790
48305SOL     OW46811   1.746   1.306  10.590
48305SOL    HW146812   1.803   1.244  10.635
48305SOL    HW246813   1.800   1.341  10.520
48306SOL     OW46814   8.084   2.031   6.639
48306SOL    HW146815   8.169   1.986   6.644
48306SOL    HW246816   8.020   1.960   6.636
48307SOL     OW46817   8.808   3.416   7.518
48307SOL    HW146818   8.902   3.427   7.531
48307SOL    HW246819   8.775   3.504   7.500
48308SOL     OW46820   3.395   5.874   5.893
48308SOL    HW146821   3.305   5.850   5.918
48308SOL    HW246822   3.429   5.795   5.852
48309SOL     OW46823   9.383   7.087  13.626
48309SOL    HW146824   9.308   7.071  13.683
48309SOL    HW246825   9.400   7.181  13.635
48310SOL     OW46826  11.837   4.034  12.839
48310SOL    HW146827  11.787   4.068  12.766
48310SOL    HW246828  11.776   4.036  12.913
48311SOL     OW46829   1.899   0.308   9.300
48311SOL    HW146830   1.904   0.238   9.236
48311SOL    HW246831   1.935   0.270   9.381
48312SOL     OW46832   1.361  11.797  14.180
48312SOL    HW146833   1.358  11.703  14.197
48312SOL    HW246834   1.424  11.806  14.109
48313SOL     OW46835   4.281   1.363  12.839
48313SOL    HW146836   4.263   1.285  12.891
48313SOL    HW246837   4.348   1.336  12.776
48314SOL     OW46838  12.674   3.853  14.071
48314SOL    HW146839  12.684   3.930  14.015
48314SOL    HW246840  12.726   3.785  14.027
48315SOL     OW46841   5.978   9.618   6.158
48315SOL    HW146842   5.896   9.657   6.187
48315SOL    HW246843   5.971   9.526   6.182
48316SOL     OW46844   9.809   4.394  11.779
48316SOL    HW146845   9.764   4.477  11.800
48316SOL    HW246846   9.760   4.359  11.705
48317SOL     OW46847   9.710  11.951   5.098
48317SOL    HW146848   9.726  12.007   5.023
48317SOL    HW246849   9.615  11.939   5.100
48318SOL     OW46850   4.992   6.795   7.453
48318SOL    HW146851   4.906   6.828   7.482
48318SOL    HW246852   5.003   6.833   7.366
48319SOL     OW46853   4.664  13.614   7.840
48319SOL    HW146854   4.744  13.633   7.888
48319SOL    HW246855   4.619  13.548   7.893
48320SOL     OW46856  11.856   8.591   5.442
48320SOL    HW146857  11.839   8.497   5.446
48320SOL    HW246858  11.779   8.631   5.483
48321SOL     OW46859   8.660   0.282   8.764
48321SOL    HW146860   8.658   0.237   8.849
48321SOL    HW246861   8.692   0.370   8.784
48322SOL     OW46862  10.557   2.979   6.962
48322SOL    HW146863  10.639   3.008   6.922
48322SOL    HW246864  10.510   3.060   6.981
48323SOL     OW46865   1.929   1.206   3.019
48323SOL    HW146866   1.908   1.276   3.081
48323SOL    HW246867   1.878   1.228   2.941
48324SOL     OW46868   6.140  10.014   8.889
48324SOL    HW146869   6.044  10.022   8.890
48324SOL    HW246870   6.171  10.080   8.950
48325SOL     OW46871   0.994   6.122   3.741
48325SOL    HW146872   0.984   6.087   3.653
48325SOL    HW246873   0.976   6.215   3.733
48326SOL     OW46874  11.619   7.499   5.657
48326SOL    HW146875  11.712   7.498   5.635
48326SOL    HW246876  11.617   7.486   5.752
48327SOL     OW46877  14.007  13.576  13.254
48327SOL    HW146878  14.042  13.512  13.316
48327SOL    HW246879  14.037  13.546  13.169
48328SOL     OW46880  14.857   2.249   6.630
48328SOL    HW146881  14.791   2.223   6.694
48328SOL    HW246882   0.008   2.168   6.584
48329SOL     OW46883   9.361   4.267   2.264
48329SOL    HW146884   9.389   4.260   2.355
48329SOL    HW246885   9.305   4.191   2.250
48330SOL     OW46886  11.468   1.598   1.722
48330SOL    HW146887  11.480   1.685   1.685
48330SOL    HW246888  11.540   1.546   1.686
48331SOL     OW46889  13.551  10.064   2.203
48331SOL    HW146890  13.499  10.139   2.175
48331SOL    HW246891  13.639  10.082   2.169
48332SOL     OW46892   5.963   6.977   1.458
48332SOL    HW146893   5.924   6.907   1.510
48332SOL    HW246894   5.891   7.038   1.442
48333SOL     OW46895   3.094   0.782  14.251
48333SOL    HW146896   3.006   0.750  14.233
48333SOL    HW246897   3.080   0.866  14.296
48334SOL     OW46898   6.364   2.662   6.716
48334SOL    HW146899   6.389   2.572   6.696
48334SOL    HW246900   6.446   2.705   6.739
48335SOL     OW46901   7.356   6.921   3.624
48335SOL    HW146902   7.343   6.837   3.580
48335SOL    HW246903   7.451   6.929   3.634
48336SOL     OW46904  11.275   4.619  13.460
48336SOL    HW146905  11.232   4.576  13.386
48336SOL    HW246906  11.299   4.705  13.426
48337SOL     OW46907  10.424   7.375   3.678
48337SOL    HW146908  10.357   7.348   3.742
48337SOL    HW246909  10.443   7.295   3.629
48338SOL     OW46910   7.788  13.404   1.598
48338SOL    HW146911   7.855  13.397   1.531
48338SOL    HW246912   7.731  13.328   1.583
48339SOL     OW46913  10.820   2.468   3.927
48339SOL    HW146914  10.798   2.508   4.012
48339SOL    HW246915  10.834   2.542   3.869
48340SOL     OW46916  13.500   8.675   1.936
48340SOL    HW146917  13.537   8.749   1.984
48340SOL    HW246918  13.568   8.607   1.941
48341SOL     OW46919  14.801  13.033   5.218
48341SOL    HW146920  14.712  13.045   5.186
48341SOL    HW246921  14.810  13.099   5.287
48342SOL     OW46922   0.060  12.435  11.542
48342SOL    HW146923  14.849  12.385  11.527
48342SOL    HW246924   0.087  12.465  11.455
48343SOL     OW46925   4.247   6.713   1.004
48343SOL    HW146926   4.239   6.808   1.004
48343SOL    HW246927   4.219   6.686   1.091
48344SOL     OW46928   2.901  12.237  14.740
48344SOL    HW146929   2.818  12.190  14.748
48344SOL    HW246930   2.968  12.170  14.754
48345SOL     OW46931  13.777   9.683  13.609
48345SOL    HW146932  13.755   9.708  13.698
48345SOL    HW246933  13.713   9.729  13.554
48346SOL     OW46934   8.356  10.723   6.688
48346SOL    HW146935   8.361  10.749   6.780
48346SOL    HW246936   8.264  10.733   6.665
48347SOL     OW46937  12.013   7.299  11.646
48347SOL    HW146938  12.094   7.308  11.695
48347SOL    HW246939  12.040   7.302  11.554
48348SOL     OW46940   8.383   0.556   1.838
48348SOL    HW146941   8.395   0.530   1.747
48348SOL    HW246942   8.443   0.501   1.888
48349SOL     OW46943   7.172  13.660  10.164
48349SOL    HW146944   7.133  13.748  10.159
48349SOL    HW246945   7.106  13.608  10.209
48350SOL     OW46946  13.586   4.342   3.173
48350SOL    HW146947  13.565   4.413   3.112
48350SOL    HW246948  13.502   4.316   3.210
48351SOL     OW46949  11.186   6.559   6.227
48351SOL    HW146950  11.103   6.581   6.186
48351SOL    HW246951  11.240   6.638   6.216
48352SOL     OW46952  10.125  14.533   2.054
48352SOL    HW146953  10.127  14.514   2.148
48352SOL    HW246954  10.045  14.492   2.023
48353SOL     OW46955  14.153   8.038   6.085
48353SOL    HW146956  14.081   7.997   6.039
48353SOL    HW246957  14.130   8.131   6.087
48354SOL     OW46958   3.253  13.325   3.608
48354SOL    HW146959   3.170  13.324   3.656
48354SOL    HW246960   3.267  13.417   3.586
48355SOL     OW46961   4.565   4.311   0.338
48355SOL    HW146962   4.569   4.359   0.256
48355SOL    HW246963   4.504   4.362   0.392
48356SOL     OW46964   1.407   1.199   4.481
48356SOL    HW146965   1.372   1.285   4.456
48356SOL    HW246966   1.367   1.138   4.419
48357SOL     OW46967  14.370   9.346   9.755
48357SOL    HW146968  14.282   9.330   9.722
48357SOL    HW246969  14.407   9.409   9.694
48358SOL     OW46970   8.597   7.042   6.765
48358SOL    HW146971   8.505   7.016   6.758
48358SOL    HW246972   8.641   6.988   6.699
48359SOL     OW46973   3.549   9.180   4.185
48359SOL    HW146974   3.547   9.097   4.136
48359SOL    HW246975   3.471   9.227   4.156
48360SOL     OW46976   4.763   5.934   2.043
48360SOL    HW146977   4.815   5.861   2.011
48360SOL    HW246978   4.772   6.002   1.976
48361SOL     OW46979   6.948   0.819   1.136
48361SOL    HW146980   7.038   0.844   1.159
48361SOL    HW246981   6.946   0.725   1.150
48362SOL     OW46982  10.763  14.045  11.844
48362SOL    HW146983  10.694  13.985  11.875
48362SOL    HW246984  10.838  13.988  11.827
48363SOL     OW46985   1.232   7.240   6.677
48363SOL    HW146986   1.192   7.245   6.590
48363SOL    HW246987   1.292   7.315   6.680
48364SOL     OW46988  11.443  13.982   7.907
48364SOL    HW146989  11.427  13.937   7.824
48364SOL    HW246990  11.503  13.924   7.954
48365SOL     OW46991   7.114   4.342   9.862
48365SOL    HW146992   7.031   4.348   9.908
48365SOL    HW246993   7.139   4.433   9.845
48366SOL     OW46994   2.045   1.384   8.912
48366SOL    HW146995   2.049   1.302   8.863
48366SOL    HW246996   1.957   1.418   8.895
48367SOL     OW46997   4.459   9.119   3.945
48367SOL    HW146998   4.499   9.046   3.898
48367SOL    HW246999   4.468   9.194   3.885
48368SOL     OW47000   0.252   9.694   1.960
48368SOL    HW147001   0.318   9.690   2.030
48368SOL    HW247002   0.219   9.784   1.964
48369SOL     OW47003   6.598  13.936  13.419
48369SOL    HW147004   6.564  13.972  13.501
48369SOL    HW247005   6.652  13.862  13.447
48370SOL     OW47006   4.046  11.214   8.870
48370SOL    HW147007   3.978  11.228   8.804
48370SOL    HW247008   4.001  11.221   8.954
48371SOL     OW47009   6.880   3.055   0.014
48371SOL    HW147010   6.885   2.960   0.005
48371SOL    HW247011   6.873   3.087  14.794
48372SOL     OW47012   9.104   1.020  13.259
48372SOL    HW147013   9.155   1.101  13.266
48372SOL    HW247014   9.024   1.046  13.214
48373SOL     OW47015  14.195   0.740  12.254
48373SOL    HW147016  14.162   0.715  12.340
48373SOL    HW247017  14.275   0.688  12.243
48374SOL     OW47018  14.359  10.468   1.989
48374SOL    HW147019  14.319  10.554   1.998
48374SOL    HW247020  14.297  10.408   2.030
48375SOL     OW47021  11.966   2.509   2.788
48375SOL    HW147022  12.050   2.476   2.819
48375SOL    HW247023  11.977   2.520   2.694
48376SOL     OW47024   0.188   1.816   9.474
48376SOL    HW147025   0.220   1.728   9.493
48376SOL    HW247026   0.192   1.862   9.558
48377SOL     OW47027   5.238   9.000   3.788
48377SOL    HW147028   5.301   9.050   3.839
48377SOL    HW247029   5.271   9.004   3.698
48378SOL     OW47030   1.479   1.432   8.920
48378SOL    HW147031   1.482   1.511   8.865
48378SOL    HW247032   1.424   1.371   8.871
48379SOL     OW47033  11.660   1.510   3.345
48379SOL    HW147034  11.695   1.452   3.277
48379SOL    HW247035  11.735   1.527   3.403
48380SOL     OW47036   9.137   2.110   6.169
48380SOL    HW147037   9.116   2.144   6.082
48380SOL    HW247038   9.118   2.183   6.229
48381SOL     OW47039   7.067   2.706  12.540
48381SOL    HW147040   7.106   2.793  12.546
48381SOL    HW247041   7.140   2.649  12.516
48382SOL     OW47042   9.412  10.956   7.404
48382SOL    HW147043   9.470  10.993   7.470
48382SOL    HW247044   9.471  10.925   7.335
48383SOL     OW47045  11.885   7.326   7.489
48383SOL    HW147046  11.868   7.416   7.518
48383SOL    HW247047  11.805   7.299   7.445
48384SOL     OW47048  14.183   7.085   7.221
48384SOL    HW147049  14.162   7.134   7.142
48384SOL    HW247050  14.266   7.040   7.201
48385SOL     OW47051   5.033   5.745   8.269
48385SOL    HW147052   5.115   5.783   8.301
48385SOL    HW247053   5.030   5.769   8.177
48386SOL     OW47054   8.324   9.148  13.853
48386SOL    HW147055   8.366   9.177  13.934
48386SOL    HW247056   8.264   9.079  13.880
48387SOL     OW47057   2.185   2.406   2.418
48387SOL    HW147058   2.278   2.395   2.398
48387SOL    HW247059   2.143   2.330   2.379
48388SOL     OW47060   5.151   8.115   3.900
48388SOL    HW147061   5.184   8.163   3.976
48388SOL    HW247062   5.062   8.089   3.924
48389SOL     OW47063   1.085   8.334   6.388
48389SOL    HW147064   0.997   8.338   6.425
48389SOL    HW247065   1.120   8.423   6.398
48390SOL     OW47066   1.185   4.390   4.344
48390SOL    HW147067   1.181   4.428   4.432
48390SOL    HW247068   1.099   4.408   4.306
48391SOL     OW47069  11.035   6.981   6.717
48391SOL    HW147070  11.111   6.937   6.680
48391SOL    HW247071  10.961   6.926   6.693
48392SOL     OW47072  12.604  12.200  11.669
48392SOL    HW147073  12.640  12.112  11.678
48392SOL    HW247074  12.538  12.193  11.600
48393SOL     OW47075   4.728  10.988   8.148
48393SOL    HW147076   4.801  11.008   8.090
48393SOL    HW247077   4.769  10.958   8.229
48394SOL     OW47078   5.903   4.262  12.896
48394SOL    HW147079   5.998   4.270  12.909
48394SOL    HW247080   5.895   4.201  12.823
48395SOL     OW47081  10.451   7.546   4.029
48395SOL    HW147082  10.508   7.474   4.002
48395SOL    HW247083  10.460   7.549   4.124
48396SOL     OW47084   8.201  12.307   8.679
48396SOL    HW147085   8.147  12.324   8.757
48396SOL    HW247086   8.149  12.343   8.607
48397SOL     OW47087  11.942   0.984  14.168
48397SOL    HW147088  11.950   0.910  14.108
48397SOL    HW247089  11.873   1.038  14.131
48398SOL     OW47090  11.967   3.463   7.332
48398SOL    HW147091  11.992   3.541   7.380
48398SOL    HW247092  11.969   3.489   7.240
48399SOL     OW47093   5.267   8.259   9.994
48399SOL    HW147094   5.215   8.222   9.923
48399SOL    HW247095   5.206   8.262  10.068
48400SOL     OW47096   5.445   2.904   1.909
48400SOL    HW147097   5.381   2.951   1.856
48400SOL    HW247098   5.416   2.916   1.999
48401SOL     OW47099   9.892   2.592   2.951
48401SOL    HW147100   9.975   2.563   2.990
48401SOL    HW247101   9.918   2.651   2.880
48402SOL     OW47102   1.918   8.862  11.634
48402SOL    HW147103   1.864   8.868  11.555
48402SOL    HW247104   1.882   8.928  11.693
48403SOL     OW47105   2.070   7.620  12.379
48403SOL    HW147106   2.164   7.637  12.382
48403SOL    HW247107   2.036   7.686  12.318
48404SOL     OW47108   3.999   2.556   9.480
48404SOL    HW147109   3.930   2.608   9.521
48404SOL    HW247110   4.080   2.604   9.496
48405SOL     OW47111   7.573   1.907   8.510
48405SOL    HW147112   7.495   1.945   8.471
48405SOL    HW247113   7.643   1.924   8.447
48406SOL     OW47114   5.887  14.076   4.970
48406SOL    HW147115   5.880  14.132   4.892
48406SOL    HW247116   5.865  13.988   4.938
48407SOL     OW47117  14.525  13.835   0.822
48407SOL    HW147118  14.506  13.914   0.771
48407SOL    HW247119  14.450  13.827   0.882
48408SOL     OW47120   3.378  12.467  13.462
48408SOL    HW147121   3.360  12.460  13.368
48408SOL    HW247122   3.305  12.516  13.498
48409SOL     OW47123   1.034   6.629  10.583
48409SOL    HW147124   1.015   6.637  10.676
48409SOL    HW247125   1.076   6.712  10.560
48410SOL     OW47126   5.666   7.946   0.083
48410SOL    HW147127   5.668   7.936  14.858
48410SOL    HW247128   5.650   7.857   0.116
48411SOL     OW47129   5.661  10.367   9.652
48411SOL    HW147130   5.630  10.330   9.734
48411SOL    HW247131   5.582  10.378   9.599
48412SOL     OW47132   0.035   0.237  10.065
48412SOL    HW147133  14.811   0.235  10.086
48412SOL    HW247134   0.042   0.305   9.998
48413SOL     OW47135   9.785   4.098   7.137
48413SOL    HW147136   9.774   4.042   7.060
48413SOL    HW247137   9.826   4.178   7.102
48414SOL     OW47138   6.519   1.086   5.766
48414SOL    HW147139   6.526   1.056   5.856
48414SOL    HW247140   6.507   1.181   5.773
48415SOL     OW47141   7.905  12.856   7.488
48415SOL    HW147142   7.904  12.889   7.398
48415SOL    HW247143   7.865  12.924   7.540
48416SOL     OW47144  12.402   4.152   9.862
48416SOL    HW147145  12.464   4.200   9.807
48416SOL    HW247146  12.372   4.080   9.807
48417SOL     OW47147  11.778   1.332   8.879
48417SOL    HW147148  11.786   1.427   8.884
48417SOL    HW247149  11.853   1.298   8.928
48418SOL     OW47150   6.535   2.878   0.149
48418SOL    HW147151   6.619   2.924   0.147
48418SOL    HW247152   6.475   2.937   0.103
48419SOL     OW47153   9.161   4.157   8.787
48419SOL    HW147154   9.085   4.100   8.773
48419SOL    HW247155   9.237   4.100   8.775
48420SOL     OW47156  14.647  12.427   8.130
48420SOL    HW147157  14.685  12.500   8.180
48420SOL    HW247158  14.606  12.469   8.054
48421SOL     OW47159  10.752  13.560   5.266
48421SOL    HW147160  10.706  13.640   5.292
48421SOL    HW247161  10.743  13.557   5.171
48422SOL     OW47162  12.429   5.735   1.587
48422SOL    HW147163  12.523   5.757   1.584
48422SOL    HW247164  12.423   5.662   1.648
48423SOL     OW47165   2.028   8.719   6.149
48423SOL    HW147166   2.070   8.748   6.231
48423SOL    HW247167   1.966   8.788   6.128
48424SOL     OW47168  12.679   8.096   8.690
48424SOL    HW147169  12.755   8.152   8.672
48424SOL    HW247170  12.626   8.149   8.750
48425SOL     OW47171   6.789   0.788   3.316
48425SOL    HW147172   6.730   0.786   3.392
48425SOL    HW247173   6.731   0.790   3.240
48426SOL     OW47174  10.713   1.908   7.356
48426SOL    HW147175  10.720   1.834   7.296
48426SOL    HW247176  10.769   1.883   7.430
48427SOL     OW47177   0.865   9.474   4.873
48427SOL    HW147178   0.861   9.522   4.790
48427SOL    HW247179   0.787   9.503   4.920
48428SOL     OW47180  13.407  13.810   4.305
48428SOL    HW147181  13.390  13.808   4.211
48428SOL    HW247182  13.370  13.894   4.334
48429SOL     OW47183   5.419   6.276   3.533
48429SOL    HW147184   5.447   6.194   3.492
48429SOL    HW247185   5.434   6.262   3.626
48430SOL     OW47186  10.506   1.869   2.729
48430SOL    HW147187  10.429   1.833   2.684
48430SOL    HW247188  10.581   1.830   2.683
48431SOL     OW47189  10.137   6.262   0.252
48431SOL    HW147190  10.147   6.169   0.270
48431SOL    HW247191  10.045   6.273   0.230
48432SOL     OW47192  11.557   3.480  13.079
48432SOL    HW147193  11.624   3.515  13.137
48432SOL    HW247194  11.597   3.481  12.992
48433SOL     OW47195   1.970   2.016   1.183
48433SOL    HW147196   2.035   1.962   1.227
48433SOL    HW247197   1.920   1.955   1.129
48434SOL     OW47198   1.195   9.352   8.413
48434SOL    HW147199   1.173   9.297   8.489
48434SOL    HW247200   1.277   9.395   8.438
48435SOL     OW47201   7.892  10.334   5.191
48435SOL    HW147202   7.956  10.286   5.244
48435SOL    HW247203   7.944  10.371   5.120
48436SOL     OW47204   0.513   6.835   2.455
48436SOL    HW147205   0.505   6.888   2.376
48436SOL    HW247206   0.605   6.808   2.456
48437SOL     OW47207   4.281  11.330   8.825
48437SOL    HW147208   4.189  11.307   8.840
48437SOL    HW247209   4.318  11.254   8.780
48438SOL     OW47210  11.993  13.763   0.153
48438SOL    HW147211  12.074  13.809   0.130
48438SOL    HW247212  12.010  13.728   0.240
48439SOL     OW47213   7.162   1.542   9.090
48439SOL    HW147214   7.112   1.570   9.167
48439SOL    HW247215   7.238   1.495   9.126
48440SOL     OW47216   3.078   8.286   4.763
48440SOL    HW147217   3.047   8.316   4.678
48440SOL    HW247218   3.040   8.348   4.826
48441SOL     OW47219   2.431   0.009   6.282
48441SOL    HW147220   2.436   0.097   6.318
48441SOL    HW247221   2.516  14.864   6.241
48442SOL     OW47222   1.772   0.395   1.821
48442SOL    HW147223   1.759   0.451   1.898
48442SOL    HW247224   1.798   0.455   1.752
48443SOL     OW47225  13.824   9.208   5.664
48443SOL    HW147226  13.778   9.127   5.643
48443SOL    HW247227  13.778   9.275   5.613
48444SOL     OW47228   5.550   2.075   2.372
48444SOL    HW147229   5.532   2.117   2.287
48444SOL    HW247230   5.509   2.132   2.436
48445SOL     OW47231  10.406   8.637  12.515
48445SOL    HW147232  10.495   8.602  12.526
48445SOL    HW247233  10.352   8.583  12.573
48446SOL     OW47234   0.149  10.161  12.662
48446SOL    HW147235   0.080  10.095  12.668
48446SOL    HW247236   0.103  10.242  12.640
48447SOL     OW47237   0.195   6.443   4.679
48447SOL    HW147238   0.165   6.353   4.663
48447SOL    HW247239   0.278   6.432   4.724
48448SOL     OW47240   4.208   6.264   7.214
48448SOL    HW147241   4.268   6.337   7.199
48448SOL    HW247242   4.145   6.270   7.142
48449SOL     OW47243   3.390   8.807   9.187
48449SOL    HW147244   3.463   8.831   9.245
48449SOL    HW247245   3.407   8.857   9.107
48450SOL     OW47246   1.232  11.660   8.589
48450SOL    HW147247   1.160  11.714   8.556
48450SOL    HW247248   1.252  11.600   8.517
48451SOL     OW47249  10.732   4.170  12.210
48451SOL    HW147250  10.823   4.199  12.215
48451SOL    HW247251  10.701   4.171  12.301
48452SOL     OW47252   1.666  12.027   8.611
48452SOL    HW147253   1.657  11.940   8.651
48452SOL    HW247254   1.729  12.073   8.667
48453SOL     OW47255   2.824   1.127   7.464
48453SOL    HW147256   2.873   1.046   7.476
48453SOL    HW247257   2.878   1.194   7.505
48454SOL     OW47258   6.599   6.411  10.350
48454SOL    HW147259   6.554   6.338  10.393
48454SOL    HW247260   6.633   6.464  10.422
48455SOL     OW47261   1.823  12.030  11.632
48455SOL    HW147262   1.802  11.998  11.544
48455SOL    HW247263   1.804  12.124  11.629
48456SOL     OW47264   5.103   1.169   6.126
48456SOL    HW147265   5.035   1.235   6.109
48456SOL    HW247266   5.182   1.205   6.086
48457SOL     OW47267   7.764   0.136   1.940
48457SOL    HW147268   7.773   0.208   1.878
48457SOL    HW247269   7.777   0.176   2.026
48458SOL     OW47270   0.365   0.025   8.147
48458SOL    HW147271   0.283  14.846   8.143
48458SOL    HW247272   0.372   0.055   8.238
48459SOL     OW47273   8.419   8.551  12.990
48459SOL    HW147274   8.488   8.556  13.055
48459SOL    HW247275   8.419   8.459  12.963
48460SOL     OW47276  11.664  10.962  12.265
48460SOL    HW147277  11.727  10.912  12.316
48460SOL    HW247278  11.602  10.997  12.330
48461SOL     OW47279  10.160   3.050   3.035
48461SOL    HW147280  10.151   2.955   3.041
48461SOL    HW247281  10.253   3.066   3.052
48462SOL     OW47282   2.789  11.113   1.517
48462SOL    HW147283   2.797  11.031   1.469
48462SOL    HW247284   2.824  11.180   1.458
48463SOL     OW47285   5.606  14.134   7.832
48463SOL    HW147286   5.583  14.129   7.925
48463SOL    HW247287   5.676  14.198   7.828
48464SOL     OW47288   0.221   4.882   9.533
48464SOL    HW147289   0.173   4.940   9.592
48464SOL    HW247290   0.153   4.845   9.476
48465SOL     OW47291   1.906   6.975  14.832
48465SOL    HW147292   1.922   6.919  14.757
48465SOL    HW247293   1.952   6.932   0.035
48466SOL     OW47294   7.147   7.552  10.668
48466SOL    HW147295   7.135   7.627  10.725
48466SOL    HW247296   7.130   7.585  10.580
48467SOL     OW47297   4.869   9.117   1.238
48467SOL    HW147298   4.947   9.125   1.182
48467SOL    HW247299   4.865   9.200   1.285
48468SOL     OW47300   5.826   4.513   5.575
48468SOL    HW147301   5.845   4.485   5.485
48468SOL    HW247302   5.799   4.432   5.619
48469SOL     OW47303  12.312  14.182   8.893
48469SOL    HW147304  12.403  14.181   8.862
48469SOL    HW247305  12.280  14.270   8.871
48470SOL     OW47306   5.449   5.423   1.765
48470SOL    HW147307   5.500   5.428   1.847
48470SOL    HW247308   5.362   5.455   1.789
48471SOL     OW47309  11.314   5.909  11.690
48471SOL    HW147310  11.320   5.836  11.752
48471SOL    HW247311  11.225   5.903  11.654
48472SOL     OW47312   1.134   8.725  11.009
48472SOL    HW147313   1.144   8.638  11.048
48472SOL    HW247314   1.171   8.785  11.074
48473SOL     OW47315   0.242  14.424  12.730
48473SOL    HW147316   0.185  14.427  12.807
48473SOL    HW247317   0.221  14.503  12.681
48474SOL     OW47318   3.935   5.039   4.664
48474SOL    HW147319   3.962   5.090   4.741
48474SOL    HW247320   3.875   5.096   4.617
48475SOL     OW47321  14.370   3.721   8.832
48475SOL    HW147322  14.289   3.715   8.883
48475SOL    HW247323  14.343   3.766   8.752
48476SOL     OW47324  13.396   1.727  12.604
48476SOL    HW147325  13.308   1.721  12.642
48476SOL    HW247326  13.453   1.744  12.678
48477SOL     OW47327   9.224   2.946   8.374
48477SOL    HW147328   9.156   2.921   8.435
48477SOL    HW247329   9.179   2.957   8.290
48478SOL     OW47330  13.349  12.542   6.044
48478SOL    HW147331  13.412  12.474   6.069
48478SOL    HW247332  13.295  12.501   5.976
48479SOL     OW47333   4.042   6.032  13.851
48479SOL    HW147334   4.049   6.119  13.813
48479SOL    HW247335   3.957   5.999  13.822
48480SOL     OW47336  11.428   9.313   1.065
48480SOL    HW147337  11.464   9.398   1.041
48480SOL    HW247338  11.500   9.267   1.107
48481SOL     OW47339   4.130   4.577   2.624
48481SOL    HW147340   4.085   4.544   2.546
48481SOL    HW247341   4.062   4.623   2.673
48482SOL     OW47342  13.001   7.726  10.670
48482SOL    HW147343  13.026   7.815  10.645
48482SOL    HW247344  13.028   7.671  10.596
48483SOL     OW47345   8.215   7.309   8.456
48483SOL    HW147346   8.135   7.267   8.425
48483SOL    HW247347   8.285   7.269   8.404
48484SOL     OW47348   4.731  14.273  12.812
48484SOL    HW147349   4.690  14.328  12.879
48484SOL    HW247350   4.666  14.205  12.794
48485SOL     OW47351   9.689  11.118   7.050
48485SOL    HW147352   9.638  11.195   7.024
48485SOL    HW247353   9.708  11.132   7.143
48486SOL     OW47354   1.137   5.393  11.181
48486SOL    HW147355   1.224   5.419  11.151
48486SOL    HW247356   1.078   5.455  11.139
48487SOL     OW47357  13.548   4.340   1.136
48487SOL    HW147358  13.562   4.313   1.226
48487SOL    HW247359  13.454   4.329   1.122
48488SOL     OW47360  12.692   6.055   1.351
48488SOL    HW147361  12.612   6.012   1.320
48488SOL    HW247362  12.758   6.032   1.285
48489SOL     OW47363   1.732   5.461   2.954
48489SOL    HW147364   1.679   5.482   3.032
48489SOL    HW247365   1.822   5.475   2.982
48490SOL     OW47366  10.168   8.751  14.472
48490SOL    HW147367  10.226   8.700  14.416
48490SOL    HW247368  10.215   8.833  14.488
48491SOL     OW47369   5.888  14.312   7.156
48491SOL    HW147370   5.877  14.271   7.070
48491SOL    HW247371   5.952  14.257   7.200
48492SOL     OW47372   4.814  12.291   1.070
48492SOL    HW147373   4.813  12.381   1.104
48492SOL    HW247374   4.789  12.301   0.978
48493SOL     OW47375   0.991  10.528   0.735
48493SOL    HW147376   0.966  10.540   0.643
48493SOL    HW247377   0.912  10.494   0.777
48494SOL     OW47378   3.997  14.829   6.026
48494SOL    HW147379   3.927  14.776   6.065
48494SOL    HW247380   4.015  14.786   5.942
48495SOL     OW47381  12.588   6.502  14.598
48495SOL    HW147382  12.548   6.448  14.530
48495SOL    HW247383  12.654   6.554  14.552
48496SOL     OW47384   3.976   5.075  11.293
48496SOL    HW147385   3.934   5.005  11.343
48496SOL    HW247386   4.061   5.088  11.337
48497SOL     OW47387  11.265   6.746   8.194
48497SOL    HW147388  11.283   6.683   8.124
48497SOL    HW247389  11.185   6.714   8.235
48498SOL     OW47390   0.337  11.730  13.919
48498SOL    HW147391   0.372  11.783  13.990
48498SOL    HW247392   0.243  11.745  13.922
48499SOL     OW47393  11.468  12.716   4.190
48499SOL    HW147394  11.552  12.734   4.147
48499SOL    HW247395  11.491  12.663   4.266
48500SOL     OW47396   8.094   3.986   9.076
48500SOL    HW147397   8.140   3.952   9.153
48500SOL    HW247398   8.145   4.063   9.049
48501SOL     OW47399   2.676   8.317   8.912
48501SOL    HW147400   2.650   8.287   8.999
48501SOL    HW247401   2.771   8.304   8.910
48502SOL     OW47402   5.798   5.073  12.003
48502SOL    HW147403   5.711   5.056  12.038
48502SOL    HW247404   5.799   5.029  11.918
48503SOL     OW47405   3.018  10.860  13.831
48503SOL    HW147406   2.926  10.886  13.831
48503SOL    HW247407   3.033  10.827  13.742
48504SOL     OW47408   6.858  12.117   7.131
48504SOL    HW147409   6.767  12.094   7.152
48504SOL    HW247410   6.864  12.211   7.150
48505SOL     OW47411   4.448   0.200  11.753
48505SOL    HW147412   4.363   0.234  11.725
48505SOL    HW247413   4.499   0.196  11.672
48506SOL     OW47414   3.563   8.182   9.260
48506SOL    HW147415   3.498   8.225   9.316
48506SOL    HW247416   3.520   8.102   9.230
48507SOL     OW47417   1.014   8.598  11.722
48507SOL    HW147418   0.923   8.595  11.693
48507SOL    HW247419   1.009   8.601  11.818
48508SOL     OW47420   1.284   8.148   5.390
48508SOL    HW147421   1.227   8.225   5.392
48508SOL    HW247422   1.225   8.074   5.395
48509SOL     OW47423   1.159   3.564   7.279
48509SOL    HW147424   1.242   3.553   7.325
48509SOL    HW247425   1.176   3.634   7.215
48510SOL     OW47426  13.320   8.079   7.644
48510SOL    HW147427  13.247   8.062   7.703
48510SOL    HW247428  13.370   7.998   7.644
48511SOL     OW47429   8.773   3.114  13.443
48511SOL    HW147430   8.717   3.136  13.369
48511SOL    HW247431   8.801   3.024  13.426
48512SOL     OW47432  13.697   1.365  13.168
48512SOL    HW147433  13.704   1.270  13.156
48512SOL    HW247434  13.775   1.389  13.217
48513SOL     OW47435   9.997   6.539  12.874
48513SOL    HW147436  10.063   6.599  12.906
48513SOL    HW247437   9.969   6.576  12.790
48514SOL     OW47438  10.300  14.489   5.213
48514SOL    HW147439  10.360  14.456   5.281
48514SOL    HW247440  10.322  14.582   5.206
48515SOL     OW47441   4.303   1.226  10.174
48515SOL    HW147442   4.222   1.242  10.223
48515SOL    HW247443   4.278   1.163  10.107
48516SOL     OW47444   0.944   4.824   8.427
48516SOL    HW147445   1.037   4.825   8.450
48516SOL    HW247446   0.942   4.800   8.335
48517SOL     OW47447   9.909   6.127   0.729
48517SOL    HW147448   9.814   6.115   0.734
48517SOL    HW247449   9.931   6.175   0.809
48518SOL     OW47450  14.033   1.858   2.107
48518SOL    HW147451  13.943   1.827   2.117
48518SOL    HW247452  14.039   1.883   2.015
48519SOL     OW47453   3.568   8.768   0.008
48519SOL    HW147454   3.659   8.743  14.861
48519SOL    HW247455   3.539   8.709   0.078
48520SOL     OW47456   4.302  13.506  12.080
48520SOL    HW147457   4.266  13.424  12.114
48520SOL    HW247458   4.360  13.537  12.150
48521SOL     OW47459   3.215   8.551  10.517
48521SOL    HW147460   3.184   8.461  10.514
48521SOL    HW247461   3.164   8.592  10.587
48522SOL     OW47462   3.613  13.097   4.822
48522SOL    HW147463   3.615  13.008   4.786
48522SOL    HW247464   3.535  13.136   4.785
48523SOL     OW47465   2.366  12.510   2.619
48523SOL    HW147466   2.281  12.529   2.660
48523SOL    HW247467   2.348  12.437   2.559
48524SOL     OW47468  12.510  12.549   1.594
48524SOL    HW147469  12.484  12.480   1.655
48524SOL    HW247470  12.580  12.596   1.640
48525SOL     OW47471   9.565  10.249   5.673
48525SOL    HW147472   9.596  10.339   5.659
48525SOL    HW247473   9.530  10.249   5.762
48526SOL     OW47474   9.833  12.387   7.789
48526SOL    HW147475   9.839  12.293   7.806
48526SOL    HW247476   9.895  12.403   7.718
48527SOL     OW47477  12.158  11.738   2.115
48527SOL    HW147478  12.219  11.745   2.042
48527SOL    HW247479  12.198  11.792   2.184
48528SOL     OW47480   6.044  13.185  10.651
48528SOL    HW147481   6.061  13.092  10.660
48528SOL    HW247482   5.983  13.191  10.578
48529SOL     OW47483  11.716  11.307  12.011
48529SOL    HW147484  11.722  11.314  12.107
48529SOL    HW247485  11.708  11.398  11.981
48530SOL     OW47486   8.576   8.491   0.260
48530SOL    HW147487   8.611   8.436   0.190
48530SOL    HW247488   8.504   8.440   0.296
48531SOL     OW47489   0.717   7.798  14.689
48531SOL    HW147490   0.627   7.826  14.707
48531SOL    HW247491   0.717   7.704  14.708
48532SOL     OW47492  11.552  11.484  14.508
48532SOL    HW147493  11.493  11.559  14.503
48532SOL    HW247494  11.506  11.414  14.463
48533SOL     OW47495   8.257   7.112   2.922
48533SOL    HW147496   8.187   7.059   2.961
48533SOL    HW247497   8.331   7.099   2.981
48534SOL     OW47498   0.500  14.501  13.157
48534SOL    HW147499   0.589  14.526  13.185
48534SOL    HW247500   0.457  14.473  13.238
48535SOL     OW47501   9.444  12.970   1.726
48535SOL    HW147502   9.429  12.881   1.695
48535SOL    HW247503   9.367  12.990   1.780
48536SOL     OW47504  12.633  12.060   3.136
48536SOL    HW147505  12.659  11.967   3.134
48536SOL    HW247506  12.641  12.085   3.228
48537SOL     OW47507  12.679   3.052   0.071
48537SOL    HW147508  12.767   3.065   0.036
48537SOL    HW247509  12.662   3.130   0.124
48538SOL     OW47510   0.550  11.896   5.905
48538SOL    HW147511   0.594  11.938   5.979
48538SOL    HW247512   0.469  11.861   5.943
48539SOL     OW47513   9.530   9.960   6.580
48539SOL    HW147514   9.440   9.934   6.600
48539SOL    HW247515   9.527   9.987   6.488
48540SOL     OW47516   2.955  14.348  14.402
48540SOL    HW147517   2.918  14.372  14.317
48540SOL    HW247518   2.890  14.379  14.466
48541SOL     OW47519   6.863  12.816   0.623
48541SOL    HW147520   6.954  12.821   0.652
48541SOL    HW247521   6.852  12.725   0.596
48542SOL     OW47522  14.178   3.832  13.470
48542SOL    HW147523  14.142   3.776  13.401
48542SOL    HW247524  14.172   3.921  13.434
48543SOL     OW47525   7.642   4.228   9.145
48543SOL    HW147526   7.623   4.307   9.094
48543SOL    HW247527   7.737   4.226   9.153
48544SOL     OW47528  12.179   7.091   4.983
48544SOL    HW147529  12.163   7.166   5.041
48544SOL    HW247530  12.110   7.098   4.916
48545SOL     OW47531  12.876   6.674   2.293
48545SOL    HW147532  12.807   6.647   2.232
48545SOL    HW247533  12.838   6.659   2.380
48546SOL     OW47534   4.032   7.789  10.426
48546SOL    HW147535   4.111   7.735  10.431
48546SOL    HW247536   3.995   7.769  10.340
48547SOL     OW47537   8.881  11.605   9.691
48547SOL    HW147538   8.915  11.693   9.707
48547SOL    HW247539   8.821  11.589   9.764
48548SOL     OW47540   0.601  10.376   9.574
48548SOL    HW147541   0.601  10.283   9.553
48548SOL    HW247542   0.610  10.379   9.669
48549SOL     OW47543   0.396  12.677  11.805
48549SOL    HW147544   0.481  12.721  11.816
48549SOL    HW247545   0.416  12.584  11.810
48550SOL     OW47546  13.010  11.694   2.519
48550SOL    HW147547  13.072  11.621   2.522
48550SOL    HW247548  13.028  11.737   2.436
48551SOL     OW47549   0.818  10.830  10.984
48551SOL    HW147550   0.913  10.822  10.985
48551SOL    HW247551   0.789  10.773  10.913
48552SOL     OW47552  13.339  10.078   6.302
48552SOL    HW147553  13.292  10.139   6.245
48552SOL    HW247554  13.273  10.050   6.366
48553SOL     OW47555  10.368   9.682   6.258
48553SOL    HW147556  10.413   9.619   6.314
48553SOL    HW247557  10.372   9.765   6.306
48554SOL     OW47558   4.544  13.733   0.231
48554SOL    HW147559   4.619  13.714   0.175
48554SOL    HW247560   4.582  13.741   0.319
48555SOL     OW47561  11.784   0.572  13.129
48555SOL    HW147562  11.817   0.486  13.104
48555SOL    HW247563  11.772   0.618  13.046
48556SOL     OW47564   3.047   8.756   4.945
48556SOL    HW147565   3.103   8.708   4.883
48556SOL    HW247566   2.958   8.727   4.923
48557SOL     OW47567   4.039   9.744   9.956
48557SOL    HW147568   4.069   9.820   9.906
48557SOL    HW247569   4.114   9.685   9.957
48558SOL     OW47570   3.924   4.297   8.754
48558SOL    HW147571   3.921   4.357   8.680
48558SOL    HW247572   4.012   4.259   8.751
48559SOL     OW47573   7.158   2.912   8.980
48559SOL    HW147574   7.231   2.950   8.931
48559SOL    HW247575   7.103   2.872   8.912
48560SOL     OW47576   9.270  11.789   9.812
48560SOL    HW147577   9.358  11.788   9.851
48560SOL    HW247578   9.252  11.697   9.792
48561SOL     OW47579   9.308   8.903   7.512
48561SOL    HW147580   9.347   8.987   7.536
48561SOL    HW247581   9.367   8.837   7.550
48562SOL     OW47582   1.696  14.433   8.347
48562SOL    HW147583   1.625  14.475   8.299
48562SOL    HW247584   1.771  14.436   8.287
48563SOL     OW47585   4.345   7.565  10.237
48563SOL    HW147586   4.376   7.485  10.280
48563SOL    HW247587   4.416   7.589  10.177
48564SOL     OW47588   7.046   8.981   2.077
48564SOL    HW147589   6.989   8.979   2.000
48564SOL    HW247590   7.032   8.897   2.119
48565SOL     OW47591  12.191   0.113   2.716
48565SOL    HW147592  12.213   0.112   2.809
48565SOL    HW247593  12.263   0.161   2.675
48566SOL     OW47594   1.089   3.047   4.196
48566SOL    HW147595   1.161   3.069   4.255
48566SOL    HW247596   1.024   3.116   4.210
48567SOL     OW47597   5.705  13.117   2.883
48567SOL    HW147598   5.684  13.155   2.798
48567SOL    HW247599   5.674  13.027   2.878
48568SOL     OW47600   8.498   5.390   3.720
48568SOL    HW147601   8.463   5.308   3.684
48568SOL    HW247602   8.421   5.447   3.727
48569SOL     OW47603  12.607  12.875   8.142
48569SOL    HW147604  12.546  12.848   8.074
48569SOL    HW247605  12.646  12.956   8.109
48570SOL     OW47606   1.238  10.392   0.724
48570SOL    HW147607   1.149  10.425   0.738
48570SOL    HW247608   1.285  10.464   0.684
48571SOL     OW47609   2.899   0.639   9.890
48571SOL    HW147610   2.964   0.655   9.958
48571SOL    HW247611   2.925   0.695   9.817
48572SOL     OW47612  12.641   0.068  12.198
48572SOL    HW147613  12.576   0.013  12.154
48572SOL    HW247614  12.725   0.027  12.177
48573SOL     OW47615   9.557   6.173   4.197
48573SOL    HW147616   9.609   6.243   4.159
48573SOL    HW247617   9.496   6.218   4.256
48574SOL     OW47618   6.111   3.801   3.466
48574SOL    HW147619   6.073   3.864   3.404
48574SOL    HW247620   6.094   3.840   3.552
48575SOL     OW47621  10.278   6.587   3.066
48575SOL    HW147622  10.347   6.558   3.126
48575SOL    HW247623  10.264   6.512   3.008
48576SOL     OW47624   0.286  13.625   8.245
48576SOL    HW147625   0.283  13.718   8.224
48576SOL    HW247626   0.296  13.582   8.160
48577SOL     OW47627   3.391   3.220  14.350
48577SOL    HW147628   3.413   3.127  14.364
48577SOL    HW247629   3.427   3.265  14.426
48578SOL     OW47630  12.584   6.133  11.533
48578SOL    HW147631  12.671   6.171  11.517
48578SOL    HW247632  12.588   6.101  11.624
48579SOL     OW47633  13.733   9.120  10.407
48579SOL    HW147634  13.811   9.136  10.354
48579SOL    HW247635  13.754   9.043  10.460
48580SOL     OW47636   5.228   0.025   4.921
48580SOL    HW147637   5.148   0.024   4.868
48580SOL    HW247638   5.260  14.804   4.917
48581SOL     OW47639   7.536  12.060   1.281
48581SOL    HW147640   7.458  12.031   1.233
48581SOL    HW247641   7.541  12.001   1.357
48582SOL     OW47642   8.389   5.352  13.034
48582SOL    HW147643   8.381   5.361  13.129
48582SOL    HW247644   8.349   5.432  13.000
48583SOL     OW47645   9.061  14.816  10.332
48583SOL    HW147646   9.111  14.779  10.259
48583SOL    HW247647   8.998   0.005  10.291
48584SOL     OW47648   1.529   3.357   5.949
48584SOL    HW147649   1.604   3.299   5.936
48584SOL    HW247650   1.521   3.364   6.044
48585SOL     OW47651   0.466  12.351   2.733
48585SOL    HW147652   0.449  12.429   2.679
48585SOL    HW247653   0.463  12.279   2.670
48586SOL     OW47654   8.863   8.727   5.051
48586SOL    HW147655   8.796   8.670   5.013
48586SOL    HW247656   8.823   8.761   5.131
48587SOL     OW47657   2.522   6.082   6.710
48587SOL    HW147658   2.436   6.066   6.750
48587SOL    HW247659   2.583   6.031   6.764
48588SOL     OW47660   2.949  11.424   3.247
48588SOL    HW147661   2.874  11.390   3.198
48588SOL    HW247662   2.984  11.348   3.293
48589SOL     OW47663  12.884  11.993   1.315
48589SOL    HW147664  12.857  11.939   1.240
48589SOL    HW247665  12.809  12.051   1.330
48590SOL     OW47666   7.375  12.196   9.514
48590SOL    HW147667   7.396  12.188   9.607
48590SOL    HW247668   7.303  12.135   9.500
48591SOL     OW47669   9.857  11.667   8.785
48591SOL    HW147670   9.889  11.603   8.722
48591SOL    HW247671   9.787  11.713   8.739
48592SOL     OW47672   5.537   3.619   1.987
48592SOL    HW147673   5.588   3.575   2.054
48592SOL    HW247674   5.446   3.592   2.003
48593SOL     OW47675   2.396   8.450   2.739
48593SOL    HW147676   2.437   8.371   2.774
48593SOL    HW247677   2.462   8.487   2.681
48594SOL     OW47678   3.153  11.329   1.227
48594SOL    HW147679   3.176  11.350   1.318
48594SOL    HW247680   3.216  11.262   1.202
48595SOL     OW47681   0.597   8.487   4.299
48595SOL    HW147682   0.612   8.429   4.374
48595SOL    HW247683   0.652   8.450   4.230
48596SOL     OW47684   6.760  14.601   6.510
48596SOL    HW147685   6.839  14.650   6.487
48596SOL    HW247686   6.728  14.567   6.427
48597SOL     OW47687  11.669   1.808  11.368
48597SOL    HW147688  11.722   1.740  11.409
48597SOL    HW247689  11.725   1.886  11.369
48598SOL     OW47690   3.902   8.356  12.745
48598SOL    HW147691   3.992   8.382  12.729
48598SOL    HW247692   3.869   8.422  12.807
48599SOL     OW47693  14.725   1.908  10.847
48599SOL    HW147694  14.670   1.848  10.798
48599SOL    HW247695  14.804   1.918  10.793
48600SOL     OW47696   3.044  10.484   2.932
48600SOL    HW147697   3.041  10.404   2.984
48600SOL    HW247698   2.977  10.540   2.970
48601SOL     OW47699   1.323  11.049   0.068
48601SOL    HW147700   1.364  11.082   0.147
48601SOL    HW247701   1.363  11.099  14.867
48602SOL     OW47702   2.942  12.531  10.732
48602SOL    HW147703   2.905  12.618  10.747
48602SOL    HW247704   2.882  12.491  10.668
48603SOL     OW47705  12.019  14.607   8.361
48603SOL    HW147706  11.984  14.652   8.438
48603SOL    HW247707  11.942  14.582   8.310
48604SOL     OW47708   7.332   9.235   6.610
48604SOL    HW147709   7.398   9.188   6.559
48604SOL    HW247710   7.278   9.279   6.544
48605SOL     OW47711   2.247   4.609   7.448
48605SOL    HW147712   2.328   4.581   7.491
48605SOL    HW247713   2.231   4.697   7.482
48606SOL     OW47714   7.275  13.880   1.107
48606SOL    HW147715   7.356  13.911   1.068
48606SOL    HW247716   7.300  13.847   1.193
48607SOL     OW47717   9.685   3.715   0.380
48607SOL    HW147718   9.658   3.636   0.332
48607SOL    HW247719   9.755   3.686   0.437
48608SOL     OW47720   7.151  11.276  11.379
48608SOL    HW147721   7.167  11.254  11.470
48608SOL    HW247722   7.162  11.194  11.332
48609SOL     OW47723   4.104  12.837  11.663
48609SOL    HW147724   4.030  12.884  11.702
48609SOL    HW247725   4.093  12.849  11.568
48610SOL     OW47726   5.963   6.752  10.650
48610SOL    HW147727   6.007   6.667  10.643
48610SOL    HW247728   6.034   6.816  10.644
48611SOL     OW47729  12.524   5.419   7.068
48611SOL    HW147730  12.454   5.483   7.079
48611SOL    HW247731  12.605   5.471   7.072
48612SOL     OW47732   8.861   6.119   9.021
48612SOL    HW147733   8.835   6.168   8.943
48612SOL    HW247734   8.937   6.167   9.055
48613SOL     OW47735  12.984   1.673   1.381
48613SOL    HW147736  12.959   1.688   1.290
48613SOL    HW247737  13.023   1.755   1.410
48614SOL     OW47738   7.355   7.501  14.115
48614SOL    HW147739   7.358   7.595  14.134
48614SOL    HW247740   7.402   7.492  14.032
48615SOL     OW47741  14.397   7.048   7.818
48615SOL    HW147742  14.459   7.099   7.870
48615SOL    HW247743  14.373   7.105   7.745
48616SOL     OW47744   1.715  10.395  12.378
48616SOL    HW147745   1.781  10.367  12.315
48616SOL    HW247746   1.631  10.368  12.340
48617SOL     OW47747   9.873  11.768   3.047
48617SOL    HW147748   9.778  11.771   3.055
48617SOL    HW247749   9.896  11.677   3.066
48618SOL     OW47750  10.481   9.617  14.270
48618SOL    HW147751  10.450   9.622  14.179
48618SOL    HW247752  10.467   9.526  14.295
48619SOL     OW47753   2.312  11.047   8.398
48619SOL    HW147754   2.363  11.128   8.392
48619SOL    HW247755   2.251  11.062   8.471
48620SOL     OW47756   0.132   5.230   9.663
48620SOL    HW147757   0.069   5.271   9.603
48620SOL    HW247758   0.131   5.286   9.741
48621SOL     OW47759  12.426   5.317   5.744
48621SOL    HW147760  12.449   5.225   5.733
48621SOL    HW247761  12.354   5.317   5.807
48622SOL     OW47762   8.160  12.229  11.669
48622SOL    HW147763   8.171  12.318  11.703
48622SOL    HW247764   8.167  12.239  11.574
48623SOL     OW47765   5.394   3.576  11.026
48623SOL    HW147766   5.372   3.605  10.937
48623SOL    HW247767   5.490   3.579  11.029
48624SOL     OW47768   5.226  12.999   1.920
48624SOL    HW147769   5.282  13.050   1.862
48624SOL    HW247770   5.219  13.053   2.000
48625SOL     OW47771  11.242   7.831   4.869
48625SOL    HW147772  11.271   7.795   4.952
48625SOL    HW247773  11.174   7.771   4.839
48626SOL     OW47774   4.553   4.247   2.085
48626SOL    HW147775   4.605   4.319   2.119
48626SOL    HW247776   4.607   4.170   2.097
48627SOL     OW47777   9.087   8.907  10.287
48627SOL    HW147778   9.110   8.941  10.374
48627SOL    HW247779   9.144   8.831  10.275
48628SOL     OW47780  14.007  10.611  11.986
48628SOL    HW147781  14.053  10.553  12.045
48628SOL    HW247782  14.067  10.624  11.913
48629SOL     OW47783   0.630   1.825   1.181
48629SOL    HW147784   0.672   1.767   1.245
48629SOL    HW247785   0.584   1.890   1.235
48630SOL     OW47786  14.573   7.243  12.692
48630SOL    HW147787  14.554   7.309  12.759
48630SOL    HW247788  14.494   7.239  12.639
48631SOL     OW47789   0.784  13.325   0.165
48631SOL    HW147790   0.711  13.302   0.222
48631SOL    HW247791   0.783  13.421   0.163
48632SOL     OW47792  13.985   9.380   7.627
48632SOL    HW147793  14.065   9.417   7.592
48632SOL    HW247794  13.964   9.308   7.568
48633SOL     OW47795   8.475   4.698   8.217
48633SOL    HW147796   8.419   4.709   8.294
48633SOL    HW247797   8.416   4.706   8.142
48634SOL     OW47798   9.475   8.968  14.564
48634SOL    HW147799   9.491   8.968  14.470
48634SOL    HW247800   9.510   9.052  14.595
48635SOL     OW47801  10.665  11.300   1.718
48635SOL    HW147802  10.694  11.236   1.653
48635SOL    HW247803  10.569  11.297   1.714
48636SOL     OW47804   8.344   7.877   9.365
48636SOL    HW147805   8.366   7.889   9.273
48636SOL    HW247806   8.428   7.878   9.411
48637SOL     OW47807   9.783   2.648   9.873
48637SOL    HW147808   9.869   2.664   9.835
48637SOL    HW247809   9.778   2.553   9.882
48638SOL     OW47810  11.269   0.640   5.555
48638SOL    HW147811  11.233   0.583   5.486
48638SOL    HW247812  11.344   0.592   5.589
48639SOL     OW47813   3.882   6.167   1.248
48639SOL    HW147814   3.928   6.209   1.175
48639SOL    HW247815   3.939   6.181   1.323
48640SOL     OW47816   6.558   0.609   5.777
48640SOL    HW147817   6.577   0.563   5.859
48640SOL    HW247818   6.634   0.666   5.763
48641SOL     OW47819  12.644   5.673   5.262
48641SOL    HW147820  12.627   5.754   5.214
48641SOL    HW247821  12.577   5.670   5.330
48642SOL     OW47822   2.549   2.354  10.055
48642SOL    HW147823   2.475   2.384  10.107
48642SOL    HW247824   2.609   2.316  10.119
48643SOL     OW47825   5.034   1.481   2.966
48643SOL    HW147826   5.106   1.530   3.006
48643SOL    HW247827   5.075   1.402   2.931
48644SOL     OW47828  14.844   2.400   4.292
48644SOL    HW147829  14.770   2.349   4.258
48644SOL    HW247830  14.821   2.417   4.383
48645SOL     OW47831   9.115  12.497  14.668
48645SOL    HW147832   9.109  12.562  14.597
48645SOL    HW247833   9.076  12.541  14.744
48646SOL     OW47834  11.877  11.585   7.318
48646SOL    HW147835  11.877  11.507   7.262
48646SOL    HW247836  11.949  11.571   7.379
48647SOL     OW47837   6.551   1.026   7.322
48647SOL    HW147838   6.490   1.094   7.293
48647SOL    HW247839   6.515   0.996   7.405
48648SOL     OW47840   3.096   6.297   6.065
48648SOL    HW147841   3.143   6.221   6.099
48648SOL    HW247842   3.088   6.356   6.141
48649SOL     OW47843   7.835   0.669   0.570
48649SOL    HW147844   7.884   0.712   0.499
48649SOL    HW247845   7.827   0.578   0.542
48650SOL     OW47846   9.521   6.184   0.066
48650SOL    HW147847   9.427   6.182   0.082
48650SOL    HW247848   9.529   6.185  14.841
48651SOL     OW47849  10.377  13.584   2.335
48651SOL    HW147850  10.372  13.520   2.264
48651SOL    HW247851  10.305  13.644   2.318
48652SOL     OW47852   4.858  10.984  14.042
48652SOL    HW147853   4.773  10.941  14.030
48652SOL    HW247854   4.882  11.013  13.954
48653SOL     OW47855   2.333   2.306  13.409
48653SOL    HW147856   2.402   2.294  13.344
48653SOL    HW247857   2.370   2.367  13.473
48654SOL     OW47858  11.247  11.439   2.552
48654SOL    HW147859  11.269  11.443   2.459
48654SOL    HW247860  11.172  11.498   2.561
48655SOL     OW47861  14.781   8.111   7.156
48655SOL    HW147862  14.830   8.191   7.140
48655SOL    HW247863  14.690   8.135   7.143
48656SOL     OW47864   9.053   7.263  14.800
48656SOL    HW147865   9.085   7.326  14.735
48656SOL    HW247866   9.131   7.237  14.848
48657SOL     OW47867   2.807   7.627   3.999
48657SOL    HW147868   2.763   7.561   4.054
48657SOL    HW247869   2.859   7.576   3.938
48658SOL     OW47870   2.793   4.586  12.705
48658SOL    HW147871   2.869   4.619  12.657
48658SOL    HW247872   2.717   4.621  12.658
48659SOL     OW47873  11.627   9.487   6.234
48659SOL    HW147874  11.619   9.399   6.271
48659SOL    HW247875  11.717   9.492   6.202
48660SOL     OW47876   6.758   7.299  11.600
48660SOL    HW147877   6.677   7.250  11.585
48660SOL    HW247878   6.792   7.319  11.512
48661SOL     OW47879  13.059   2.482   2.987
48661SOL    HW147880  13.002   2.529   2.926
48661SOL    HW247881  13.092   2.551   3.045
48662SOL     OW47882  10.760   5.739  12.581
48662SOL    HW147883  10.813   5.789  12.519
48662SOL    HW247884  10.811   5.660  12.597
48663SOL     OW47885   1.448   1.258   3.344
48663SOL    HW147886   1.387   1.283   3.274
48663SOL    HW247887   1.399   1.273   3.425
48664SOL     OW47888  11.004  11.470   0.661
48664SOL    HW147889  11.093  11.481   0.626
48664SOL    HW247890  10.963  11.407   0.603
48665SOL     OW47891  13.835  12.099   1.374
48665SOL    HW147892  13.844  12.008   1.343
48665SOL    HW247893  13.755  12.130   1.332
48666SOL     OW47894  12.158   2.488   3.244
48666SOL    HW147895  12.068   2.517   3.259
48666SOL    HW247896  12.174   2.424   3.313
48667SOL     OW47897   6.279   3.875   2.659
48667SOL    HW147898   6.229   3.954   2.637
48667SOL    HW247899   6.356   3.878   2.603
48668SOL     OW47900   8.723   7.461   8.839
48668SOL    HW147901   8.734   7.493   8.750
48668SOL    HW247902   8.657   7.518   8.878
48669SOL     OW47903   8.051  12.788   0.852
48669SOL    HW147904   8.121  12.789   0.788
48669SOL    HW247905   7.982  12.735   0.812
48670SOL     OW47906  10.024   1.245   5.508
48670SOL    HW147907  10.068   1.271   5.589
48670SOL    HW247908   9.933   1.271   5.521
48671SOL     OW47909  14.531   1.128  13.906
48671SOL    HW147910  14.464   1.161  13.846
48671SOL    HW247911  14.611   1.174  13.880
48672SOL     OW47912   5.016   0.251   9.559
48672SOL    HW147913   5.085   0.198   9.600
48672SOL    HW247914   5.054   0.339   9.553
48673SOL     OW47915   4.313   9.903   9.940
48673SOL    HW147916   4.310   9.812   9.910
48673SOL    HW247917   4.239   9.945   9.896
48674SOL     OW47918   4.588   1.532  14.600
48674SOL    HW147919   4.678   1.531  14.632
48674SOL    HW247920   4.596   1.557  14.508
48675SOL     OW47921   7.465   9.120  11.393
48675SOL    HW147922   7.527   9.186  11.427
48675SOL    HW247923   7.428   9.080  11.471
48676SOL     OW47924  13.500   0.734  10.753
48676SOL    HW147925  13.483   0.680  10.675
48676SOL    HW247926  13.428   0.797  10.755
48677SOL     OW47927   6.148  10.304   5.274
48677SOL    HW147928   6.216  10.367   5.300
48677SOL    HW247929   6.066  10.344   5.302
48678SOL     OW47930   5.222   0.043  12.197
48678SOL    HW147931   5.147   0.025  12.141
48678SOL    HW247932   5.212   0.136  12.220
48679SOL     OW47933  12.474   7.797   1.087
48679SOL    HW147934  12.398   7.739   1.097
48679SOL    HW247935  12.436   7.881   1.062
48680SOL     OW47936   3.208  13.823   6.921
48680SOL    HW147937   3.116  13.829   6.892
48680SOL    HW247938   3.223  13.906   6.967
48681SOL     OW47939   8.556   4.694   6.961
48681SOL    HW147940   8.602   4.738   6.890
48681SOL    HW247941   8.619   4.630   6.995
48682SOL     OW47942  10.981  12.394  10.942
48682SOL    HW147943  11.075  12.385  10.954
48682SOL    HW247944  10.954  12.312  10.900
48683SOL     OW47945   6.192   0.740  14.266
48683SOL    HW147946   6.174   0.816  14.321
48683SOL    HW247947   6.137   0.671  14.301
48684SOL     OW47948   5.067  12.859   8.411
48684SOL    HW147949   5.083  12.768   8.388
48684SOL    HW247950   5.053  12.858   8.506
48685SOL     OW47951  13.480  12.087   4.430
48685SOL    HW147952  13.389  12.102   4.455
48685SOL    HW247953  13.517  12.175   4.419
48686SOL     OW47954   5.722   3.335   3.437
48686SOL    HW147955   5.737   3.353   3.530
48686SOL    HW247956   5.639   3.378   3.418
48687SOL     OW47957   7.558   2.698  13.318
48687SOL    HW147958   7.625   2.683  13.252
48687SOL    HW247959   7.558   2.793  13.331
48688SOL     OW47960   9.651  14.867  11.807
48688SOL    HW147961   9.732  14.816  11.815
48688SOL    HW247962   9.681   0.088  11.797
48689SOL     OW47963   8.428  11.585   4.220
48689SOL    HW147964   8.362  11.559   4.155
48689SOL    HW247965   8.442  11.505   4.272
48690SOL     OW47966  10.266  12.132  12.226
48690SOL    HW147967  10.191  12.185  12.253
48690SOL    HW247968  10.341  12.171  12.271
48691SOL     OW47969   4.432   1.695   4.593
48691SOL    HW147970   4.383   1.626   4.637
48691SOL    HW247971   4.389   1.776   4.622
48692SOL     OW47972   3.751  10.702   8.572
48692SOL    HW147973   3.734  10.719   8.479
48692SOL    HW247974   3.751  10.607   8.579
48693SOL     OW47975   0.670   8.458   2.171
48693SOL    HW147976   0.654   8.417   2.086
48693SOL    HW247977   0.763   8.445   2.187
48694SOL     OW47978   3.333   6.908  12.772
48694SOL    HW147979   3.250   6.956  12.781
48694SOL    HW247980   3.326   6.836  12.835
48695SOL     OW47981   3.027  13.207   9.265
48695SOL    HW147982   3.076  13.198   9.183
48695SOL    HW247983   3.078  13.159   9.330
48696SOL     OW47984   2.611   6.089  13.236
48696SOL    HW147985   2.563   6.173  13.237
48696SOL    HW247986   2.555   6.031  13.184
48697SOL     OW47987   3.315  11.056   7.834
48697SOL    HW147988   3.386  11.048   7.897
48697SOL    HW247989   3.309  10.970   7.793
48698SOL     OW47990  11.351  12.513   8.176
48698SOL    HW147991  11.441  12.501   8.206
48698SOL    HW247992  11.300  12.453   8.231
48699SOL     OW47993   3.133  10.324  12.134
48699SOL    HW147994   3.098  10.408  12.161
48699SOL    HW247995   3.176  10.341  12.050
48700SOL     OW47996   4.201  13.782   1.595
48700SOL    HW147997   4.210  13.841   1.670
48700SOL    HW247998   4.124  13.729   1.615
48701SOL     OW47999   3.383  12.812  12.084
48701SOL    HW148000   3.320  12.884  12.083
48701SOL    HW248001   3.350  12.752  12.151
48702SOL     OW48002   0.155  11.262   1.251
48702SOL    HW148003   0.062  11.248   1.267
48702SOL    HW248004   0.178  11.339   1.303
48703SOL     OW48005  11.082  11.262  11.304
48703SOL    HW148006  11.043  11.312  11.232
48703SOL    HW248007  11.054  11.172  11.288
48704SOL     OW48008   1.727  14.453   3.107
48704SOL    HW148009   1.648  14.481   3.151
48704SOL    HW248010   1.793  14.449   3.176
48705SOL     OW48011   6.878   4.997   2.781
48705SOL    HW148012   6.814   5.053   2.826
48705SOL    HW248013   6.876   4.915   2.829
48706SOL     OW48014   7.342   2.449  13.003
48706SOL    HW148015   7.320   2.537  12.973
48706SOL    HW248016   7.427   2.431  12.963
48707SOL     OW48017   0.547  12.063  11.243
48707SOL    HW148018   0.503  12.146  11.260
48707SOL    HW248019   0.629  12.087  11.200
48708SOL     OW48020  13.786  14.593   6.835
48708SOL    HW148021  13.760  14.507   6.803
48708SOL    HW248022  13.878  14.601   6.809
48709SOL     OW48023   0.697  13.907   2.960
48709SOL    HW148024   0.655  13.844   2.902
48709SOL    HW248025   0.625  13.948   3.008
48710SOL     OW48026  14.464   9.867   5.963
48710SOL    HW148027  14.418   9.931   6.017
48710SOL    HW248028  14.407   9.790   5.962
48711SOL     OW48029   9.669   7.676   2.639
48711SOL    HW148030   9.749   7.624   2.648
48711SOL    HW248031   9.673   7.710   2.549
48712SOL     OW48032   4.658   1.777  14.813
48712SOL    HW148033   4.610   1.829   0.009
48712SOL    HW248034   4.651   1.687  14.844
48713SOL     OW48035  11.939   8.969   8.049
48713SOL    HW148036  11.877   8.911   8.006
48713SOL    HW248037  11.885   9.026   8.104
48714SOL     OW48038   1.098  12.639  11.798
48714SOL    HW148039   1.131  12.579  11.865
48714SOL    HW248040   1.150  12.618  11.720
48715SOL     OW48041   6.503  13.847   8.329
48715SOL    HW148042   6.464  13.802   8.254
48715SOL    HW248043   6.439  13.914   8.353
48716SOL     OW48044  14.329  12.854   1.021
48716SOL    HW148045  14.278  12.773   1.024
48716SOL    HW248046  14.274  12.915   0.973
48717SOL     OW48047   5.491  10.839  11.541
48717SOL    HW148048   5.428  10.767  11.546
48717SOL    HW248049   5.453  10.899  11.477
48718SOL     OW48050   6.099   4.344   6.989
48718SOL    HW148051   6.045   4.267   6.969
48718SOL    HW248052   6.054   4.416   6.944
48719SOL     OW48053   7.199   4.635   6.591
48719SOL    HW148054   7.186   4.671   6.503
48719SOL    HW248055   7.110   4.620   6.624
48720SOL     OW48056   7.313  12.293   2.335
48720SOL    HW148057   7.294  12.238   2.411
48720SOL    HW248058   7.370  12.362   2.369
48721SOL     OW48059  10.172   5.286   5.569
48721SOL    HW148060  10.232   5.283   5.494
48721SOL    HW248061  10.085   5.280   5.529
48722SOL     OW48062   9.806   7.764  10.965
48722SOL    HW148063   9.837   7.702  11.032
48722SOL    HW248064   9.868   7.836  10.969
48723SOL     OW48065   5.003   4.755   7.562
48723SOL    HW148066   5.076   4.815   7.549
48723SOL    HW248067   5.041   4.668   7.553
48724SOL     OW48068   2.945  14.500  10.792
48724SOL    HW148069   3.010  14.551  10.743
48724SOL    HW248070   2.870  14.493  10.733
48725SOL     OW48071   8.189   3.566  11.993
48725SOL    HW148072   8.231   3.649  11.969
48725SOL    HW248073   8.131   3.589  12.065
48726SOL     OW48074   7.529   0.808   6.993
48726SOL    HW148075   7.564   0.897   6.999
48726SOL    HW248076   7.494   0.791   7.081
48727SOL     OW48077   4.989   4.071   4.068
48727SOL    HW148078   5.027   4.043   4.151
48727SOL    HW248079   5.063   4.075   4.008
48728SOL     OW48080   4.439   8.557   8.788
48728SOL    HW148081   4.500   8.590   8.722
48728SOL    HW248082   4.494   8.536   8.864
48729SOL     OW48083  14.450   8.008   9.280
48729SOL    HW148084  14.495   8.047   9.354
48729SOL    HW248085  14.441   7.915   9.303
48730SOL     OW48086  11.718   3.371  11.214
48730SOL    HW148087  11.772   3.449  11.209
48730SOL    HW248088  11.693   3.353  11.124
48731SOL     OW48089  12.821   9.154   8.351
48731SOL    HW148090  12.792   9.093   8.419
48731SOL    HW248091  12.789   9.115   8.269
48732SOL     OW48092  12.330   0.266   3.449
48732SOL    HW148093  12.252   0.309   3.484
48732SOL    HW248094  12.321   0.274   3.354
48733SOL     OW48095   1.250   5.860   0.896
48733SOL    HW148096   1.276   5.952   0.902
48733SOL    HW248097   1.178   5.852   0.959
48734SOL     OW48098   5.634   9.092   6.239
48734SOL    HW148099   5.690   9.030   6.191
48734SOL    HW248100   5.566   9.037   6.279
48735SOL     OW48101  10.139  14.421   7.457
48735SOL    HW148102  10.141  14.507   7.416
48735SOL    HW248103  10.133  14.439   7.550
48736SOL     OW48104  10.593  14.165   1.133
48736SOL    HW148105  10.600  14.132   1.222
48736SOL    HW248106  10.678  14.205   1.115
48737SOL     OW48107   1.746   7.618   8.953
48737SOL    HW148108   1.792   7.538   8.975
48737SOL    HW248109   1.688   7.634   9.027
48738SOL     OW48110   9.065   4.228   1.364
48738SOL    HW148111   9.126   4.255   1.432
48738SOL    HW248112   8.980   4.226   1.407
48739SOL     OW48113   7.176  12.768   4.501
48739SOL    HW148114   7.211  12.698   4.556
48739SOL    HW248115   7.122  12.723   4.437
48740SOL     OW48116   0.959  10.107  11.444
48740SOL    HW148117   1.029  10.106  11.509
48740SOL    HW248118   0.898  10.174  11.475
48741SOL     OW48119   2.483   8.860   3.780
48741SOL    HW148120   2.502   8.858   3.873
48741SOL    HW248121   2.389   8.839   3.774
48742SOL     OW48122   2.444  14.804  14.803
48742SOL    HW148123   2.510  14.856  14.849
48742SOL    HW248124   2.493  14.740  14.752
48743SOL     OW48125  11.780   9.651   5.308
48743SOL    HW148126  11.703   9.682   5.260
48743SOL    HW248127  11.771   9.689   5.395
48744SOL     OW48128   7.762   1.874   4.463
48744SOL    HW148129   7.788   1.895   4.373
48744SOL    HW248130   7.671   1.846   4.455
48745SOL     OW48131   2.716  13.841  12.012
48745SOL    HW148132   2.754  13.779  11.951
48745SOL    HW248133   2.747  13.813  12.098
48746SOL     OW48134   2.267   4.928   4.416
48746SOL    HW148135   2.286   4.918   4.322
48746SOL    HW248136   2.189   4.983   4.419
48747SOL     OW48137   3.529  14.764  12.036
48747SOL    HW148138   3.513  14.675  12.007
48747SOL    HW248139   3.523  14.761  12.131
48748SOL     OW48140   4.532   5.807  12.546
48748SOL    HW148141   4.596   5.815  12.475
48748SOL    HW248142   4.488   5.723  12.529
48749SOL     OW48143   7.690  11.577   7.291
48749SOL    HW148144   7.746  11.501   7.281
48749SOL    HW248145   7.750  11.652   7.290
48750SOL     OW48146   2.882   1.434   2.742
48750SOL    HW148147   2.969   1.429   2.780
48750SOL    HW248148   2.853   1.343   2.738
48751SOL     OW48149  14.836   3.478   3.853
48751SOL    HW148150  14.817   3.391   3.888
48751SOL    HW248151   0.039   3.464   3.792
48752SOL     OW48152   1.615  13.646  10.566
48752SOL    HW148153   1.703  13.643  10.530
48752SOL    HW248154   1.624  13.612  10.655
48753SOL     OW48155   0.920   5.833  10.615
48753SOL    HW148156   0.845   5.892  10.606
48753SOL    HW248157   0.951   5.819  10.525
48754SOL     OW48158  12.281  14.157  14.100
48754SOL    HW148159  12.270  14.252  14.106
48754SOL    HW248160  12.371  14.145  14.067
48755SOL     OW48161  12.460  11.138   8.295
48755SOL    HW148162  12.549  11.120   8.264
48755SOL    HW248163  12.448  11.232   8.279
48756SOL     OW48164  12.018  11.766   0.245
48756SOL    HW148165  12.095  11.822   0.241
48756SOL    HW248166  12.053  11.679   0.263
48757SOL     OW48167   2.567   3.253   6.577
48757SOL    HW148168   2.513   3.328   6.601
48757SOL    HW248169   2.551   3.190   6.647
48758SOL     OW48170   2.338  13.710   6.236
48758SOL    HW148171   2.360  13.797   6.268
48758SOL    HW248172   2.412  13.654   6.261
48759SOL     OW48173   5.918   4.010   1.909
48759SOL    HW148174   5.977   4.084   1.924
48759SOL    HW248175   5.834   4.038   1.944
48760SOL     OW48176  11.762   8.672   2.438
48760SOL    HW148177  11.837   8.617   2.413
48760SOL    HW248178  11.779   8.756   2.395
48761SOL     OW48179   4.420   1.619   6.099
48761SOL    HW148180   4.354   1.606   6.166
48761SOL    HW248181   4.487   1.553   6.118
48762SOL     OW48182   8.009   7.747  13.800
48762SOL    HW148183   7.992   7.796  13.881
48762SOL    HW248184   7.922   7.728  13.765
48763SOL     OW48185   2.634   3.829   4.306
48763SOL    HW148186   2.697   3.864   4.243
48763SOL    HW248187   2.570   3.783   4.253
48764SOL     OW48188   1.415  12.633   8.335
48764SOL    HW148189   1.478  12.706   8.338
48764SOL    HW248190   1.425  12.590   8.420
48765SOL     OW48191   9.163   0.710  11.977
48765SOL    HW148192   9.197   0.623  11.954
48765SOL    HW248193   9.092   0.726  11.915
48766SOL     OW48194   6.593   8.392   2.611
48766SOL    HW148195   6.512   8.441   2.596
48766SOL    HW248196   6.608   8.397   2.705
48767SOL     OW48197  10.669  10.160  14.658
48767SOL    HW148198  10.644  10.081  14.705
48767SOL    HW248199  10.633  10.232  14.711
48768SOL     OW48200   1.374  13.665  13.022
48768SOL    HW148201   1.323  13.663  12.940
48768SOL    HW248202   1.388  13.758  13.038
48769SOL     OW48203  14.225   1.579   3.494
48769SOL    HW148204  14.134   1.595   3.469
48769SOL    HW248205  14.256   1.513   3.433
48770SOL     OW48206  14.365   1.106   5.344
48770SOL    HW148207  14.331   1.114   5.255
48770SOL    HW248208  14.456   1.077   5.332
48771SOL     OW48209   7.869   6.816  10.618
48771SOL    HW148210   7.835   6.800  10.530
48771SOL    HW248211   7.825   6.752  10.673
48772SOL     OW48212   9.327   4.728   5.483
48772SOL    HW148213   9.266   4.655   5.480
48772SOL    HW248214   9.406   4.692   5.523
48773SOL     OW48215   9.563   6.928  11.293
48773SOL    HW148216   9.640   6.880  11.323
48773SOL    HW248217   9.554   7.000  11.355
48774SOL     OW48218   0.709   1.195   1.369
48774SOL    HW148219   0.751   1.278   1.390
48774SOL    HW248220   0.645   1.217   1.301
48775SOL     OW48221   5.159   5.106   8.153
48775SOL    HW148222   5.130   5.066   8.072
48775SOL    HW248223   5.184   5.196   8.129
48776SOL     OW48224  14.032  13.825   9.918
48776SOL    HW148225  13.980  13.760   9.870
48776SOL    HW248226  14.095  13.773   9.968
48777SOL     OW48227   5.076   6.253  14.144
48777SOL    HW148228   5.165   6.260  14.110
48777SOL    HW248229   5.079   6.303  14.226
48778SOL     OW48230  14.161  10.364  10.433
48778SOL    HW148231  14.196  10.338  10.348
48778SOL    HW248232  14.111  10.289  10.463
48779SOL     OW48233  13.887   1.484   4.656
48779SOL    HW148234  13.935   1.502   4.737
48779SOL    HW248235  13.863   1.570   4.622
48780SOL     OW48236   2.445  12.524  10.232
48780SOL    HW148237   2.443  12.516  10.137
48780SOL    HW248238   2.370  12.473  10.262
48781SOL     OW48239   3.975   9.524  14.578
48781SOL    HW148240   4.069   9.543  14.580
48781SOL    HW248241   3.943   9.554  14.663
48782SOL     OW48242  12.076  10.281   9.866
48782SOL    HW148243  12.145  10.216   9.851
48782SOL    HW248244  11.995  10.234   9.848
48783SOL     OW48245  11.234   0.577   6.330
48783SOL    HW148246  11.253   0.621   6.247
48783SOL    HW248247  11.299   0.507   6.335
48784SOL     OW48248   7.965   1.010   3.535
48784SOL    HW148249   7.882   1.057   3.530
48784SOL    HW248250   8.021   1.053   3.470
48785SOL     OW48251   0.706   8.101  14.719
48785SOL    HW148252   0.710   8.007  14.699
48785SOL    HW248253   0.612   8.120  14.722
48786SOL     OW48254   3.701  13.862  10.729
48786SOL    HW148255   3.695  13.810  10.649
48786SOL    HW248256   3.743  13.944  10.701
48787SOL     OW48257   6.644   5.174   7.917
48787SOL    HW148258   6.625   5.098   7.972
48787SOL    HW248259   6.716   5.218   7.963
48788SOL     OW48260   0.589   4.981   9.492
48788SOL    HW148261   0.503   5.024   9.501
48788SOL    HW248262   0.568   4.888   9.478
48789SOL     OW48263   0.241   8.075   8.459
48789SOL    HW148264   0.202   8.132   8.393
48789SOL    HW248265   0.178   8.005   8.473
48790SOL     OW48266   0.980  14.431   2.698
48790SOL    HW148267   1.049  14.365   2.700
48790SOL    HW248268   1.025  14.514   2.712
48791SOL     OW48269   9.592   6.904   7.383
48791SOL    HW148270   9.509   6.889   7.428
48791SOL    HW248271   9.658   6.895   7.451
48792SOL     OW48272  11.998   1.492  12.578
48792SOL    HW148273  11.979   1.451  12.662
48792SOL    HW248274  11.990   1.586  12.594
48793SOL     OW48275  13.286   3.483  11.648
48793SOL    HW148276  13.362   3.436  11.613
48793SOL    HW248277  13.323   3.547  11.708
48794SOL     OW48278  12.858  12.491   1.157
48794SOL    HW148279  12.771  12.459   1.134
48794SOL    HW248280  12.862  12.579   1.120
48795SOL     OW48281  10.867  13.052   3.856
48795SOL    HW148282  10.914  12.969   3.850
48795SOL    HW248283  10.884  13.083   3.945
48796SOL     OW48284   1.385   3.485  11.939
48796SOL    HW148285   1.345   3.501  11.853
48796SOL    HW248286   1.443   3.560  11.953
48797SOL     OW48287   7.181   6.155  14.282
48797SOL    HW148288   7.194   6.231  14.339
48797SOL    HW248289   7.111   6.105  14.324
48798SOL     OW48290  10.864  11.636   9.422
48798SOL    HW148291  10.913  11.680   9.492
48798SOL    HW248292  10.928  11.577   9.383
48799SOL     OW48293   2.228  12.205  14.001
48799SOL    HW148294   2.313  12.197  14.044
48799SOL    HW248295   2.248  12.244  13.916
48800SOL     OW48296   7.145  13.404  12.314
48800SOL    HW148297   7.238  13.412  12.331
48800SOL    HW248298   7.139  13.384  12.220
48801SOL     OW48299   6.177  12.467  13.638
48801SOL    HW148300   6.192  12.420  13.720
48801SOL    HW248301   6.236  12.542  13.642
48802SOL     OW48302   1.676  11.299  11.417
48802SOL    HW148303   1.692  11.337  11.331
48802SOL    HW248304   1.738  11.344  11.475
48803SOL     OW48305   0.584   3.899   9.798
48803SOL    HW148306   0.609   3.900   9.705
48803SOL    HW248307   0.602   3.810   9.826
48804SOL     OW48308   7.566   4.963   1.220
48804SOL    HW148309   7.661   4.953   1.222
48804SOL    HW248310   7.542   4.939   1.131
48805SOL     OW48311   6.820  12.173  10.579
48805SOL    HW148312   6.746  12.221  10.543
48805SOL    HW248313   6.797  12.080  10.568
48806SOL     OW48314   9.990  13.415  11.139
48806SOL    HW148315   9.993  13.323  11.164
48806SOL    HW248316   9.949  13.415  11.052
48807SOL     OW48317  12.026  12.402   3.357
48807SOL    HW148318  11.966  12.468   3.391
48807SOL    HW248319  11.976  12.321   3.360
48808SOL     OW48320  13.528   0.817  11.638
48808SOL    HW148321  13.458   0.765  11.598
48808SOL    HW248322  13.561   0.872  11.567
48809SOL     OW48323   6.646  14.558   7.242
48809SOL    HW148324   6.654  14.651   7.264
48809SOL    HW248325   6.697  14.514   7.310
48810SOL     OW48326   5.458  11.209   5.841
48810SOL    HW148327   5.429  11.126   5.802
48810SOL    HW248328   5.377  11.254   5.865
48811SOL     OW48329   3.735  13.283   2.143
48811SOL    HW148330   3.821  13.290   2.183
48811SOL    HW248331   3.750  13.236   2.061
48812SOL     OW48332  11.025   4.668   0.242
48812SOL    HW148333  11.092   4.600   0.236
48812SOL    HW248334  11.035   4.719   0.162
48813SOL     OW48335  10.678  10.205   8.056
48813SOL    HW148336  10.765  10.245   8.052
48813SOL    HW248337  10.695  10.111   8.051
48814SOL     OW48338   3.800   9.446   7.322
48814SOL    HW148339   3.835   9.514   7.380
48814SOL    HW248340   3.875   9.390   7.303
48815SOL     OW48341   2.059   0.550   5.541
48815SOL    HW148342   2.116   0.496   5.486
48815SOL    HW248343   1.976   0.551   5.494
48816SOL     OW48344   5.194   7.158   5.767
48816SOL    HW148345   5.227   7.170   5.856
48816SOL    HW248346   5.148   7.075   5.769
48817SOL     OW48347   4.164   6.883  14.315
48817SOL    HW148348   4.138   6.792  14.331
48817SOL    HW248349   4.092   6.919  14.264
48818SOL     OW48350   6.917  12.705   5.287
48818SOL    HW148351   6.879  12.723   5.201
48818SOL    HW248352   6.897  12.613   5.303
48819SOL     OW48353   8.359   1.763   0.068
48819SOL    HW148354   8.361   1.752  14.843
48819SOL    HW248355   8.288   1.706   0.098
48820SOL     OW48356  13.353   5.814   9.873
48820SOL    HW148357  13.352   5.720   9.888
48820SOL    HW248358  13.345   5.824   9.778
48821SOL     OW48359   0.648   3.173   1.737
48821SOL    HW148360   0.600   3.097   1.701
48821SOL    HW248361   0.581   3.241   1.744
48822SOL     OW48362   1.184   4.373   6.809
48822SOL    HW148363   1.240   4.420   6.871
48822SOL    HW248364   1.095   4.400   6.832
48823SOL     OW48365   3.094   6.194  14.032
48823SOL    HW148366   3.178   6.167  13.992
48823SOL    HW248367   3.119   6.261  14.096
48824SOL     OW48368   1.267   5.170   5.935
48824SOL    HW148369   1.231   5.163   6.024
48824SOL    HW248370   1.191   5.191   5.880
48825SOL     OW48371  14.324   7.290  14.086
48825SOL    HW148372  14.398   7.342  14.119
48825SOL    HW248373  14.266   7.356  14.048
48826SOL     OW48374   5.907  11.705   3.873
48826SOL    HW148375   5.856  11.712   3.953
48826SOL    HW248376   5.864  11.635   3.823
48827SOL     OW48377  12.045   2.653   6.360
48827SOL    HW148378  12.076   2.562   6.368
48827SOL    HW248379  12.105   2.693   6.297
48828SOL     OW48380   5.917   7.269  13.286
48828SOL    HW148381   5.958   7.341  13.238
48828SOL    HW248382   5.877   7.310  13.362
48829SOL     OW48383  13.867   0.391   7.439
48829SOL    HW148384  13.845   0.311   7.391
48829SOL    HW248385  13.919   0.361   7.514
48830SOL     OW48386   1.332   8.385   9.710
48830SOL    HW148387   1.359   8.471   9.742
48830SOL    HW248388   1.324   8.331   9.788
48831SOL     OW48389   4.481  10.158  10.849
48831SOL    HW148390   4.562  10.200  10.820
48831SOL    HW248391   4.495  10.065  10.832
48832SOL     OW48392  10.927  11.363  14.811
48832SOL    HW148393  10.875  11.308  14.752
48832SOL    HW248394  10.862  11.416  14.858
48833SOL     OW48395   0.341   9.384   8.148
48833SOL    HW148396   0.392   9.388   8.067
48833SOL    HW248397   0.252   9.408   8.121
48834SOL     OW48398  13.879  10.428   6.429
48834SOL    HW148399  13.898  10.485   6.504
48834SOL    HW248400  13.808  10.371   6.460
48835SOL     OW48401  11.160   0.547  11.550
48835SOL    HW148402  11.109   0.527  11.471
48835SOL    HW248403  11.135   0.637  11.573
48836SOL     OW48404   7.060  11.938   7.173
48836SOL    HW148405   6.995  12.008   7.163
48836SOL    HW248406   7.008  11.859   7.186
48837SOL     OW48407   7.380   1.961  11.496
48837SOL    HW148408   7.442   1.922  11.557
48837SOL    HW248409   7.294   1.936  11.530
48838SOL     OW48410   0.512   4.145   2.451
48838SOL    HW148411   0.553   4.220   2.494
48838SOL    HW248412   0.530   4.159   2.358
48839SOL     OW48413   4.235   1.548   1.698
48839SOL    HW148414   4.287   1.532   1.619
48839SOL    HW248415   4.146   1.558   1.666
48840SOL     OW48416  14.868  10.997   5.547
48840SOL    HW148417   0.044  10.982   5.464
48840SOL    HW248418   0.049  10.948   5.611
48841SOL     OW48419   8.291   2.846  12.167
48841SOL    HW148420   8.356   2.822  12.100
48841SOL    HW248421   8.218   2.786  12.152
48842SOL     OW48422   9.513   1.137   1.900
48842SOL    HW148423   9.547   1.099   1.981
48842SOL    HW248424   9.496   1.062   1.843
48843SOL     OW48425   0.032  13.621   2.608
48843SOL    HW148426   0.019  13.526   2.602
48843SOL    HW248427   0.034  13.639   2.702
48844SOL     OW48428   8.751  14.210  12.517
48844SOL    HW148429   8.680  14.171  12.467
48844SOL    HW248430   8.828  14.160  12.492
48845SOL     OW48431   9.962  14.254   6.921
48845SOL    HW148432   9.998  14.261   7.009
48845SOL    HW248433  10.027  14.295   6.864
48846SOL     OW48434   9.582  13.271   3.255
48846SOL    HW148435   9.593  13.179   3.277
48846SOL    HW248436   9.568  13.272   3.161
48847SOL     OW48437   8.776   5.803   4.197
48847SOL    HW148438   8.753   5.876   4.141
48847SOL    HW248439   8.694   5.757   4.212
48848SOL     OW48440   5.151   5.075   2.154
48848SOL    HW148441   5.093   5.073   2.231
48848SOL    HW248442   5.222   5.134   2.177
48849SOL     OW48443   2.957   1.880   4.585
48849SOL    HW148444   2.988   1.944   4.520
48849SOL    HW248445   3.035   1.830   4.609
48850SOL     OW48446  12.428   5.385   9.523
48850SOL    HW148447  12.493   5.322   9.554
48850SOL    HW248448  12.344   5.344   9.543
48851SOL     OW48449   1.303   2.727   5.455
48851SOL    HW148450   1.342   2.777   5.383
48851SOL    HW248451   1.375   2.675   5.490
48852SOL     OW48452  13.054   3.525  10.376
48852SOL    HW148453  13.149   3.520  10.389
48852SOL    HW248454  13.042   3.595  10.312
48853SOL     OW48455  12.421   2.580   3.173
48853SOL    HW148456  12.334   2.545   3.191
48853SOL    HW248457  12.407   2.640   3.099
48854SOL     OW48458   5.272   1.911  10.641
48854SOL    HW148459   5.349   1.862  10.671
48854SOL    HW248460   5.202   1.846  10.638
48855SOL     OW48461   8.012   5.499   3.087
48855SOL    HW148462   7.925   5.476   3.119
48855SOL    HW248463   8.072   5.457   3.149
48856SOL     OW48464   1.859   3.849   2.850
48856SOL    HW148465   1.885   3.772   2.800
48856SOL    HW248466   1.766   3.836   2.868
48857SOL     OW48467   5.597  12.492   5.571
48857SOL    HW148468   5.559  12.437   5.639
48857SOL    HW248469   5.524  12.510   5.512
48858SOL     OW48470  11.580  10.271   6.231
48858SOL    HW148471  11.533  10.240   6.308
48858SOL    HW248472  11.551  10.212   6.161
48859SOL     OW48473   5.819  10.169  12.821
48859SOL    HW148474   5.838  10.146  12.912
48859SOL    HW248475   5.886  10.234  12.798
48860SOL     OW48476   7.742   6.297  13.836
48860SOL    HW148477   7.666   6.254  13.875
48860SOL    HW248478   7.810   6.292  13.904
48861SOL     OW48479   8.809   2.309   3.843
48861SOL    HW148480   8.739   2.365   3.810
48861SOL    HW248481   8.766   2.225   3.861
48862SOL     OW48482   4.520   0.868   6.797
48862SOL    HW148483   4.490   0.905   6.714
48862SOL    HW248484   4.481   0.780   6.799
48863SOL     OW48485  10.212   0.349  11.132
48863SOL    HW148486  10.295   0.394  11.144
48863SOL    HW248487  10.198   0.301  11.214
48864SOL     OW48488  13.940   1.856  10.779
48864SOL    HW148489  14.014   1.821  10.731
48864SOL    HW248490  13.905   1.781  10.828
48865SOL     OW48491   0.232   2.519   2.799
48865SOL    HW148492   0.294   2.508   2.727
48865SOL    HW248493   0.161   2.570   2.762
48866SOL     OW48494   9.764   5.792   8.138
48866SOL    HW148495   9.700   5.722   8.125
48866SOL    HW248496   9.726   5.847   8.206
48867SOL     OW48497  12.134   3.810   6.047
48867SOL    HW148498  12.190   3.754   6.102
48867SOL    HW248499  12.192   3.881   6.020
48868SOL     OW48500   8.250   4.075   5.917
48868SOL    HW148501   8.261   4.162   5.877
48868SOL    HW248502   8.325   4.025   5.887
48869SOL     OW48503   0.532  10.145   7.865
48869SOL    HW148504   0.450  10.143   7.916
48869SOL    HW248505   0.594  10.095   7.919
48870SOL     OW48506   8.527   1.986  10.844
48870SOL    HW148507   8.530   1.919  10.912
48870SOL    HW248508   8.618   2.010  10.829
48871SOL     OW48509   9.988   5.342  10.572
48871SOL    HW148510   9.960   5.428  10.603
48871SOL    HW248511   9.915   5.284  10.594
48872SOL     OW48512   6.552   7.612   1.337
48872SOL    HW148513   6.579   7.523   1.313
48872SOL    HW248514   6.522   7.651   1.255
48873SOL     OW48515   7.731   7.020   5.433
48873SOL    HW148516   7.743   6.999   5.526
48873SOL    HW248517   7.660   7.084   5.432
48874SOL     OW48518   1.679   1.217   2.095
48874SOL    HW148519   1.635   1.159   2.158
48874SOL    HW248520   1.751   1.164   2.060
48875SOL     OW48521   0.317   9.846  12.179
48875SOL    HW148522   0.270   9.763  12.169
48875SOL    HW248523   0.248   9.913  12.175
48876SOL     OW48524   9.884   8.981  14.423
48876SOL    HW148525   9.809   9.040  14.424
48876SOL    HW248526   9.869   8.923  14.349
48877SOL     OW48527  12.840   8.486   2.695
48877SOL    HW148528  12.865   8.575   2.718
48877SOL    HW248529  12.922   8.442   2.672
48878SOL     OW48530   4.111   0.984  14.387
48878SOL    HW148531   4.090   1.076  14.400
48878SOL    HW248532   4.192   0.985  14.335
48879SOL     OW48533  10.413  14.286  11.326
48879SOL    HW148534  10.474  14.212  11.335
48879SOL    HW248535  10.394  14.312  11.416
48880SOL     OW48536   1.621   9.059  13.543
48880SOL    HW148537   1.652   9.031  13.456
48880SOL    HW248538   1.526   9.066  13.533
48881SOL     OW48539  11.231  12.134   7.314
48881SOL    HW148540  11.255  12.195   7.383
48881SOL    HW248541  11.205  12.054   7.360
48882SOL     OW48542   9.865   1.560  12.646
48882SOL    HW148543   9.816   1.642  12.657
48882SOL    HW248544   9.940   1.585  12.591
48883SOL     OW48545  14.442   2.420   2.348
48883SOL    HW148546  14.436   2.345   2.408
48883SOL    HW248547  14.536   2.427   2.329
48884SOL     OW48548  11.473   5.184  11.336
48884SOL    HW148549  11.485   5.090  11.321
48884SOL    HW248550  11.418   5.189  11.414
48885SOL     OW48551   2.321  12.843   6.131
48885SOL    HW148552   2.368  12.913   6.086
48885SOL    HW248553   2.238  12.884   6.157
48886SOL     OW48554   0.220   5.317  10.821
48886SOL    HW148555   0.297   5.273  10.785
48886SOL    HW248556   0.249   5.351  10.905
48887SOL     OW48557   2.561   5.783   6.334
48887SOL    HW148558   2.478   5.823   6.361
48887SOL    HW248559   2.578   5.821   6.248
48888SOL     OW48560   8.408   2.841   4.840
48888SOL    HW148561   8.492   2.858   4.881
48888SOL    HW248562   8.429   2.788   4.763
48889SOL     OW48563   2.286  11.782  13.877
48889SOL    HW148564   2.192  11.787  13.858
48889SOL    HW248565   2.292  11.728  13.955
48890SOL     OW48566   1.198   2.352  12.993
48890SOL    HW148567   1.127   2.414  12.979
48890SOL    HW248568   1.225   2.326  12.905
48891SOL     OW48569   1.495   6.024   4.324
48891SOL    HW148570   1.554   6.085   4.368
48891SOL    HW248571   1.459   5.970   4.395
48892SOL     OW48572   7.849   8.878   3.493
48892SOL    HW148573   7.877   8.797   3.451
48892SOL    HW248574   7.848   8.858   3.586
48893SOL     OW48575   3.996  13.346   6.645
48893SOL    HW148576   3.926  13.284   6.664
48893SOL    HW248577   3.954  13.432   6.649
48894SOL     OW48578  10.308   9.886   3.528
48894SOL    HW148579  10.336   9.957   3.586
48894SOL    HW248580  10.217   9.870   3.552
48895SOL     OW48581  13.181   0.439   9.123
48895SOL    HW148582  13.244   0.507   9.143
48895SOL    HW248583  13.144   0.415   9.209
48896SOL     OW48584   5.552  11.085   0.800
48896SOL    HW148585   5.593  11.001   0.776
48896SOL    HW248586   5.464  11.080   0.763
48897SOL     OW48587   9.215   2.495   7.412
48897SOL    HW148588   9.284   2.539   7.462
48897SOL    HW248589   9.258   2.417   7.375
48898SOL     OW48590  14.064   4.672  10.822
48898SOL    HW148591  14.037   4.658  10.732
48898SOL    HW248592  14.160   4.675  10.819
48899SOL     OW48593   5.502   9.024  12.937
48899SOL    HW148594   5.536   9.033  13.026
48899SOL    HW248595   5.409   9.008  12.948
48900SOL     OW48596  11.566   1.829  13.324
48900SOL    HW148597  11.592   1.921  13.322
48900SOL    HW248598  11.560   1.809  13.417
48901SOL     OW48599  13.143   0.526   4.491
48901SOL    HW148600  13.223   0.560   4.530
48901SOL    HW248601  13.077   0.593   4.511
48902SOL     OW48602  10.274   4.714   6.324
48902SOL    HW148603  10.349   4.656   6.311
48902SOL    HW248604  10.312   4.802   6.326
48903SOL     OW48605  12.602  11.691   7.017
48903SOL    HW148606  12.523  11.664   6.971
48903SOL    HW248607  12.666  11.622   6.996
48904SOL     OW48608   7.220  14.488   6.388
48904SOL    HW148609   7.249  14.450   6.470
48904SOL    HW248610   7.144  14.541   6.411
48905SOL     OW48611  12.334   9.359  10.379
48905SOL    HW148612  12.268   9.416  10.339
48905SOL    HW248613  12.388   9.330  10.305
48906SOL     OW48614   8.250   5.330   4.365
48906SOL    HW148615   8.185   5.381   4.414
48906SOL    HW248616   8.219   5.331   4.275
48907SOL     OW48617  14.168   9.378   5.983
48907SOL    HW148618  14.130   9.445   5.926
48907SOL    HW248619  14.117   9.299   5.963
48908SOL     OW48620   2.350   2.815  12.406
48908SOL    HW148621   2.364   2.885  12.342
48908SOL    HW248622   2.390   2.738  12.366
48909SOL     OW48623   7.206   2.824  10.246
48909SOL    HW148624   7.284   2.858  10.202
48909SOL    HW248625   7.240   2.775  10.321
48910SOL     OW48626   5.451   6.737   6.054
48910SOL    HW148627   5.399   6.714   5.977
48910SOL    HW248628   5.399   6.804   6.098
48911SOL     OW48629   1.763   4.949   7.967
48911SOL    HW148630   1.846   4.928   7.925
48911SOL    HW248631   1.705   4.875   7.946
48912SOL     OW48632  11.578  12.927   8.007
48912SOL    HW148633  11.583  13.018   7.977
48912SOL    HW248634  11.486  12.912   8.025
48913SOL     OW48635  11.132   8.575  13.713
48913SOL    HW148636  11.046   8.544  13.740
48913SOL    HW248637  11.151   8.528  13.632
48914SOL     OW48638   1.460   0.949  13.559
48914SOL    HW148639   1.374   0.929  13.523
48914SOL    HW248640   1.442   0.993  13.643
48915SOL     OW48641  12.633   6.639   5.389
48915SOL    HW148642  12.633   6.581   5.313
48915SOL    HW248643  12.591   6.587   5.458
48916SOL     OW48644  11.208   1.567  14.527
48916SOL    HW148645  11.151   1.604  14.460
48916SOL    HW248646  11.247   1.490  14.486
48917SOL     OW48647   6.859   8.506   6.216
48917SOL    HW148648   6.768   8.535   6.225
48917SOL    HW248649   6.888   8.491   6.306
48918SOL     OW48650  11.093  11.364   6.021
48918SOL    HW148651  11.019  11.310   6.051
48918SOL    HW248652  11.091  11.356   5.926
48919SOL     OW48653   7.040  13.226   9.594
48919SOL    HW148654   7.131  13.234   9.564
48919SOL    HW248655   7.044  13.169   9.671
48920SOL     OW48656   5.428   3.969   0.996
48920SOL    HW148657   5.437   3.941   1.087
48920SOL    HW248658   5.348   4.022   0.996
48921SOL     OW48659   2.475  12.927   3.371
48921SOL    HW148660   2.399  12.892   3.326
48921SOL    HW248661   2.444  13.007   3.413
48922SOL     OW48662   4.648   4.823   3.794
48922SOL    HW148663   4.740   4.817   3.769
48922SOL    HW248664   4.615   4.734   3.785
48923SOL     OW48665  12.338  12.568  13.642
48923SOL    HW148666  12.374  12.519  13.568
48923SOL    HW248667  12.390  12.648  13.646
48924SOL     OW48668   5.543  13.270  14.067
48924SOL    HW148669   5.540  13.194  14.009
48924SOL    HW248670   5.485  13.246  14.140
48925SOL     OW48671   1.608  13.787  13.206
48925SOL    HW148672   1.541  13.840  13.163
48925SOL    HW248673   1.577  13.697  13.196
48926SOL     OW48674  10.359   4.790  13.922
48926SOL    HW148675  10.374   4.879  13.889
48926SOL    HW248676  10.446   4.750  13.922
48927SOL     OW48677   6.789   1.407  13.071
48927SOL    HW148678   6.721   1.374  13.130
48927SOL    HW248679   6.825   1.484  13.116
48928SOL     OW48680   2.286   4.730  11.733
48928SOL    HW148681   2.357   4.724  11.670
48928SOL    HW248682   2.208   4.747  11.680
48929SOL     OW48683   8.465  12.956   0.953
48929SOL    HW148684   8.428  12.908   1.027
48929SOL    HW248685   8.389  12.989   0.905
48930SOL     OW48686   0.022   3.299   7.239
48930SOL    HW148687   0.066   3.216   7.219
48930SOL    HW248688  14.800   3.284   7.215
48931SOL     OW48689   5.105   6.587   5.428
48931SOL    HW148690   5.112   6.603   5.334
48931SOL    HW248691   5.158   6.508   5.443
48932SOL     OW48692   3.355   9.627   6.047
48932SOL    HW148693   3.274   9.660   6.008
48932SOL    HW248694   3.412   9.704   6.052
48933SOL     OW48695   1.109   5.270  10.812
48933SOL    HW148696   1.184   5.330  10.806
48933SOL    HW248697   1.035   5.322  10.782
48934SOL     OW48698   0.893  10.974   5.133
48934SOL    HW148699   0.962  10.950   5.195
48934SOL    HW248700   0.891  10.903   5.069
48935SOL     OW48701   0.103  10.590   5.417
48935SOL    HW148702   0.073  10.595   5.326
48935SOL    HW248703   0.182  10.645   5.419
48936SOL     OW48704  10.418   2.060   7.898
48936SOL    HW148705  10.463   2.050   7.981
48936SOL    HW248706  10.488   2.067   7.833
48937SOL     OW48707   8.372   4.388  14.443
48937SOL    HW148708   8.352   4.403  14.536
48937SOL    HW248709   8.293   4.414  14.397
48938SOL     OW48710   8.596  10.952   3.206
48938SOL    HW148711   8.601  10.858   3.188
48938SOL    HW248712   8.641  10.993   3.133
48939SOL     OW48713   1.474  14.845  10.593
48939SOL    HW148714   1.522  14.778  10.642
48939SOL    HW248715   1.466   0.048  10.654
48940SOL     OW48716  12.560  14.530   2.044
48940SOL    HW148717  12.466  14.536   2.026
48940SOL    HW248718  12.572  14.440   2.076
48941SOL     OW48719  11.121   8.938   9.314
48941SOL    HW148720  11.054   8.872   9.328
48941SOL    HW248721  11.104   9.004   9.381
48942SOL     OW48722   9.775   6.180  10.203
48942SOL    HW148723   9.746   6.150  10.117
48942SOL    HW248724   9.765   6.104  10.260
48943SOL     OW48725   5.721   1.276  13.765
48943SOL    HW148726   5.790   1.332  13.729
48943SOL    HW248727   5.687   1.227  13.690
48944SOL     OW48728   0.005   3.714   6.392
48944SOL    HW148729   0.053   3.632   6.387
48944SOL    HW248730  14.787   3.688   6.422
48945SOL     OW48731   9.699   2.136   5.913
48945SOL    HW148732   9.636   2.092   5.971
48945SOL    HW248733   9.658   2.135   5.827
48946SOL     OW48734   6.875  11.590   8.913
48946SOL    HW148735   6.861  11.684   8.925
48946SOL    HW248736   6.803  11.561   8.857
48947SOL     OW48737   0.606  13.667  10.842
48947SOL    HW148738   0.518  13.706  10.842
48947SOL    HW248739   0.658  13.725  10.897
48948SOL     OW48740   2.555   1.687  10.867
48948SOL    HW148741   2.488   1.729  10.813
48948SOL    HW248742   2.531   1.594  10.868
48949SOL     OW48743   9.853   6.176   3.157
48949SOL    HW148744   9.814   6.106   3.209
48949SOL    HW248745   9.935   6.197   3.201
48950SOL     OW48746  12.683  11.792  11.251
48950SOL    HW148747  12.725  11.724  11.197
48950SOL    HW248748  12.710  11.874  11.212
48951SOL     OW48749   7.858   0.591   4.519
48951SOL    HW148750   7.811   0.535   4.580
48951SOL    HW248751   7.951   0.580   4.541
48952SOL     OW48752  12.486   1.217   6.631
48952SOL    HW148753  12.569   1.241   6.672
48952SOL    HW248754  12.482   1.270   6.552
48953SOL     OW48755   4.128  13.023   6.597
48953SOL    HW148756   4.111  12.963   6.524
48953SOL    HW248757   4.143  13.108   6.556
48954SOL     OW48758   7.686   1.155  10.855
48954SOL    HW148759   7.700   1.181  10.764
48954SOL    HW248760   7.743   1.080  10.868
48955SOL     OW48761   7.944   3.545  14.252
48955SOL    HW148762   7.998   3.494  14.312
48955SOL    HW248763   8.001   3.616  14.223
48956SOL     OW48764  11.393   6.231  14.299
48956SOL    HW148765  11.425   6.227  14.209
48956SOL    HW248766  11.312   6.180  14.299
48957SOL     OW48767   8.862   1.926   7.678
48957SOL    HW148768   8.933   1.937   7.742
48957SOL    HW248769   8.809   1.854   7.713
48958SOL     OW48770   2.510   2.297  13.205
48958SOL    HW148771   2.600   2.263  13.209
48958SOL    HW248772   2.465   2.241  13.142
48959SOL     OW48773  12.086  14.494  13.687
48959SOL    HW148774  12.140  14.501  13.608
48959SOL    HW248775  12.132  14.546  13.752
48960SOL     OW48776   3.842   5.372   2.894
48960SOL    HW148777   3.905   5.309   2.860
48960SOL    HW248778   3.790   5.323   2.958
48961SOL     OW48779   5.477  11.750  12.121
48961SOL    HW148780   5.448  11.731  12.032
48961SOL    HW248781   5.418  11.819  12.151
48962SOL     OW48782  13.254   7.317   3.572
48962SOL    HW148783  13.254   7.295   3.479
48962SOL    HW248784  13.162   7.330   3.594
48963SOL     OW48785   1.299   3.947   7.721
48963SOL    HW148786   1.233   3.935   7.653
48963SOL    HW248787   1.273   3.887   7.791
48964SOL     OW48788   8.804  14.376   2.540
48964SOL    HW148789   8.869  14.326   2.590
48964SOL    HW248790   8.856  14.441   2.493
48965SOL     OW48791  14.399  14.461  10.580
48965SOL    HW148792  14.439  14.392  10.632
48965SOL    HW248793  14.430  14.542  10.620
48966SOL     OW48794   4.294   0.477   8.268
48966SOL    HW148795   4.370   0.505   8.320
48966SOL    HW248796   4.256   0.405   8.317
48967SOL     OW48797   1.463   6.908  14.310
48967SOL    HW148798   1.510   6.979  14.354
48967SOL    HW248799   1.484   6.920  14.217
48968SOL     OW48800   9.387   2.151   3.587
48968SOL    HW148801   9.395   2.056   3.599
48968SOL    HW248802   9.451   2.172   3.519
48969SOL     OW48803   0.121   0.803  10.252
48969SOL    HW148804   0.044   0.789  10.306
48969SOL    HW248805   0.175   0.725  10.265
48970SOL     OW48806   6.337   9.484   4.286
48970SOL    HW148807   6.401   9.413   4.282
48970SOL    HW248808   6.389   9.564   4.275
48971SOL     OW48809   7.193   2.949  13.945
48971SOL    HW148810   7.277   2.943  13.900
48971SOL    HW248811   7.216   2.979  14.033
48972SOL     OW48812  14.163   0.283   6.070
48972SOL    HW148813  14.121   0.330   5.999
48972SOL    HW248814  14.135   0.192   6.060
48973SOL     OW48815   2.360  14.737   2.149
48973SOL    HW148816   2.279  14.688   2.136
48973SOL    HW248817   2.421  14.700   2.085
48974SOL     OW48818   1.089  14.394   4.066
48974SOL    HW148819   1.134  14.454   4.126
48974SOL    HW248820   1.109  14.428   3.979
48975SOL     OW48821   1.787   6.240  13.003
48975SOL    HW148822   1.704   6.203  12.975
48975SOL    HW248823   1.780   6.244  13.099
48976SOL     OW48824   4.105   3.598  12.207
48976SOL    HW148825   4.128   3.542  12.282
48976SOL    HW248826   4.077   3.537  12.139
48977SOL     OW48827   5.116  12.288   7.910
48977SOL    HW148828   5.173  12.215   7.886
48977SOL    HW248829   5.121  12.348   7.836
48978SOL     OW48830   7.271   8.030   7.997
48978SOL    HW148831   7.286   7.936   7.990
48978SOL    HW248832   7.255   8.045   8.090
48979SOL     OW48833   0.897   2.892   8.443
48979SOL    HW148834   0.926   2.820   8.388
48979SOL    HW248835   0.972   2.909   8.501
48980SOL     OW48836  14.129   4.079  12.823
48980SOL    HW148837  14.169   4.051  12.906
48980SOL    HW248838  14.165   4.019  12.758
48981SOL     OW48839  10.921   8.068   8.470
48981SOL    HW148840  10.986   8.092   8.403
48981SOL    HW248841  10.972   8.036   8.543
48982SOL     OW48842   8.653  12.197  10.823
48982SOL    HW148843   8.705  12.172  10.747
48982SOL    HW248844   8.671  12.291  10.835
48983SOL     OW48845   5.636  14.347  11.106
48983SOL    HW148846   5.624  14.253  11.116
48983SOL    HW248847   5.712  14.356  11.050
48984SOL     OW48848   9.240   4.035   2.248
48984SOL    HW148849   9.275   3.991   2.171
48984SOL    HW248850   9.223   3.964   2.310
48985SOL     OW48851   5.653   8.617  11.395
48985SOL    HW148852   5.747   8.603  11.384
48985SOL    HW248853   5.622   8.644  11.309
48986SOL     OW48854   0.576   9.198   6.487
48986SOL    HW148855   0.607   9.145   6.414
48986SOL    HW248856   0.631   9.171   6.561
48987SOL     OW48857   7.128   7.658  12.454
48987SOL    HW148858   7.194   7.726  12.463
48987SOL    HW248859   7.049   7.705  12.426
48988SOL     OW48860  11.661  10.137  12.702
48988SOL    HW148861  11.678  10.080  12.778
48988SOL    HW248862  11.727  10.206  12.708
48989SOL     OW48863   3.106  12.449   3.883
48989SOL    HW148864   3.066  12.396   3.952
48989SOL    HW248865   3.110  12.392   3.807
48990SOL     OW48866   8.556   7.323   6.743
48990SOL    HW148867   8.565   7.228   6.748
48990SOL    HW248868   8.532   7.340   6.652
48991SOL     OW48869   2.655  14.818  13.793
48991SOL    HW148870   2.607  14.859  13.865
48991SOL    HW248871   2.747  14.830  13.814
48992SOL     OW48872  10.060   6.236   7.494
48992SOL    HW148873  10.150   6.259   7.515
48992SOL    HW248874  10.015   6.235   7.578
48993SOL     OW48875   9.040   6.171  13.864
48993SOL    HW148876   9.123   6.173  13.913
48993SOL    HW248877   8.991   6.099  13.904
48994SOL     OW48878  10.792  11.413   0.247
48994SOL    HW148879  10.734  11.446   0.178
48994SOL    HW248880  10.809  11.488   0.303
48995SOL     OW48881  10.776   6.372   3.466
48995SOL    HW148882  10.699   6.428   3.474
48995SOL    HW248883  10.749   6.300   3.410
48996SOL     OW48884   4.434   7.232   2.661
48996SOL    HW148885   4.495   7.159   2.670
48996SOL    HW248886   4.348   7.195   2.682
48997SOL     OW48887   2.914   7.892   7.745
48997SOL    HW148888   2.824   7.890   7.776
48997SOL    HW248889   2.954   7.965   7.791
48998SOL     OW48890  14.841   3.833   7.871
48998SOL    HW148891  14.799   3.768   7.815
48998SOL    HW248892   0.053   3.853   7.827
48999SOL     OW48893   8.946   0.439   9.428
48999SOL    HW148894   8.882   0.511   9.430
48999SOL    HW248895   9.023   0.477   9.385
49000SOL     OW48896  11.420   5.657   5.366
49000SOL    HW148897  11.507   5.631   5.335
49000SOL    HW248898  11.359   5.604   5.313
49001SOL     OW48899   1.726   0.816   7.539
49001SOL    HW148900   1.750   0.841   7.628
49001SOL    HW248901   1.793   0.856   7.483
49002SOL     OW48902   1.153   1.086   7.922
49002SOL    HW148903   1.211   1.012   7.905
49002SOL    HW248904   1.127   1.117   7.835
49003SOL     OW48905   5.807   7.291   1.632
49003SOL    HW148906   5.809   7.270   1.538
49003SOL    HW248907   5.796   7.386   1.634
49004SOL     OW48908   6.979   7.629   8.988
49004SOL    HW148909   6.933   7.706   9.022
49004SOL    HW248910   7.026   7.593   9.063
49005SOL     OW48911  10.690  12.947   1.534
49005SOL    HW148912  10.649  13.023   1.491
49005SOL    HW248913  10.717  12.980   1.620
49006SOL     OW48914  12.090   4.462   0.868
49006SOL    HW148915  12.127   4.513   0.939
49006SOL    HW248916  12.090   4.521   0.793
49007SOL     OW48917  10.688   9.106  10.268
49007SOL    HW148918  10.594   9.099  10.282
49007SOL    HW248919  10.721   9.017  10.277
49008SOL     OW48920   6.877   5.578  11.151
49008SOL    HW148921   6.869   5.631  11.072
49008SOL    HW248922   6.959   5.606  11.190
49009SOL     OW48923   5.118   5.637   2.513
49009SOL    HW148924   5.198   5.679   2.480
49009SOL    HW248925   5.148   5.573   2.577
49010SOL     OW48926  10.857   7.096   0.458
49010SOL    HW148927  10.784   7.080   0.398
49010SOL    HW248928  10.934   7.061   0.412
49011SOL     OW48929  14.291   8.262   7.475
49011SOL    HW148930  14.316   8.278   7.566
49011SOL    HW248931  14.202   8.229   7.480
49012SOL     OW48932  12.179   9.234  14.282
49012SOL    HW148933  12.255   9.191  14.321
49012SOL    HW248934  12.215   9.309  14.235
49013SOL     OW48935   9.196   2.870   2.626
49013SOL    HW148936   9.190   2.964   2.642
49013SOL    HW248937   9.259   2.839   2.692
49014SOL     OW48938   4.266   1.344   8.938
49014SOL    HW148939   4.219   1.270   8.899
49014SOL    HW248940   4.247   1.338   9.031
49015SOL     OW48941   1.793   0.479  11.103
49015SOL    HW148942   1.883   0.493  11.073
49015SOL    HW248943   1.790   0.521  11.189
49016SOL     OW48944  14.847   5.155   8.429
49016SOL    HW148945   0.046   5.191   8.373
49016SOL    HW248946   0.003   5.179   8.518
49017SOL     OW48947   9.379   0.540  11.643
49017SOL    HW148948   9.295   0.585  11.651
49017SOL    HW248949   9.432   0.600  11.589
49018SOL     OW48950   4.230   9.079   0.943
49018SOL    HW148951   4.176   9.156   0.958
49018SOL    HW248952   4.267   9.058   1.028
49019SOL     OW48953  10.301   1.231  13.556
49019SOL    HW148954  10.322   1.138  13.550
49019SOL    HW248955  10.323   1.265  13.469
49020SOL     OW48956  10.265   4.180   0.643
49020SOL    HW148957  10.235   4.210   0.557
49020SOL    HW248958  10.360   4.179   0.636
49021SOL     OW48959   3.833  11.005  12.279
49021SOL    HW148960   3.911  10.978  12.231
49021SOL    HW248961   3.841  10.960  12.364
49022SOL     OW48962  11.258   2.486  12.942
49022SOL    HW148963  11.206   2.566  12.951
49022SOL    HW248964  11.344   2.517  12.913
49023SOL     OW48965  10.034   3.062   3.859
49023SOL    HW148966  10.071   3.045   3.773
49023SOL    HW248967  10.049   3.156   3.873
49024SOL     OW48968   9.842   5.427  13.720
49024SOL    HW148969   9.909   5.479  13.765
49024SOL    HW248970   9.773   5.490  13.701
49025SOL     OW48971  12.056  14.220  12.550
49025SOL    HW148972  12.011  14.147  12.592
49025SOL    HW248973  12.008  14.298  12.578
49026SOL     OW48974  10.859   4.850   4.625
49026SOL    HW148975  10.822   4.933   4.595
49026SOL    HW248976  10.939   4.875   4.673
49027SOL     OW48977  10.849  10.445   7.034
49027SOL    HW148978  10.753  10.447   7.039
49027SOL    HW248979  10.870  10.514   6.970
49028SOL     OW48980   0.921   4.873  14.258
49028SOL    HW148981   0.846   4.821  14.229
49028SOL    HW248982   0.997   4.829  14.220
49029SOL     OW48983  10.039   5.021   0.344
49029SOL    HW148984   9.985   5.086   0.299
49029SOL    HW248985  10.108   4.999   0.281
49030SOL     OW48986  13.555  10.733   1.925
49030SOL    HW148987  13.477  10.690   1.891
49030SOL    HW248988  13.563  10.813   1.873
49031SOL     OW48989   5.351  14.551   9.004
49031SOL    HW148990   5.336  14.469   8.958
49031SOL    HW248991   5.421  14.530   9.067
49032SOL     OW48992   7.146   9.409   7.620
49032SOL    HW148993   7.080   9.377   7.559
49032SOL    HW248994   7.219   9.347   7.612
49033SOL     OW48995   4.234   8.394  13.669
49033SOL    HW148996   4.242   8.364  13.579
49033SOL    HW248997   4.310   8.355  13.714
49034SOL     OW48998   5.041  10.468  12.741
49034SOL    HW148999   5.110  10.408  12.710
49034SOL    HW249000   5.053  10.547  12.688
49035SOL     OW49001   3.100  13.004  12.527
49035SOL    HW149002   3.138  13.058  12.458
49035SOL    HW249003   3.140  12.918  12.515
49036SOL     OW49004  10.111   1.087   6.053
49036SOL    HW149005  10.163   1.017   6.091
49036SOL    HW249006  10.166   1.122   5.983
49037SOL     OW49007   5.840   7.057  12.902
49037SOL    HW149008   5.915   7.012  12.943
49037SOL    HW249009   5.863   7.150  12.906
49038SOL     OW49010  11.382  10.415  11.308
49038SOL    HW149011  11.353  10.339  11.257
49038SOL    HW249012  11.384  10.487  11.246
49039SOL     OW49013  13.277   7.246   3.297
49039SOL    HW149014  13.308   7.157   3.284
49039SOL    HW249015  13.343   7.301   3.254
49040SOL     OW49016   9.555  14.754   4.789
49040SOL    HW149017   9.493  14.792   4.851
49040SOL    HW249018   9.592  14.830   4.742
49041SOL     OW49019   6.066  14.495   7.286
49041SOL    HW149020   6.028  14.583   7.283
49041SOL    HW249021   6.046  14.457   7.200
49042SOL     OW49022   7.062   7.176   1.328
49042SOL    HW149023   6.986   7.149   1.379
49042SOL    HW249024   7.107   7.240   1.384
49043SOL     OW49025  10.092   6.698  13.541
49043SOL    HW149026  10.075   6.689  13.447
49043SOL    HW249027  10.023   6.757  13.572
49044SOL     OW49028   6.525  13.573   0.430
49044SOL    HW149029   6.456  13.609   0.375
49044SOL    HW249030   6.556  13.647   0.482
49045SOL     OW49031   1.518   8.919   4.563
49045SOL    HW149032   1.580   8.849   4.586
49045SOL    HW249033   1.553   8.997   4.607
49046SOL     OW49034  13.320   9.448   5.086
49046SOL    HW149035  13.383   9.479   5.021
49046SOL    HW249036  13.278   9.528   5.118
49047SOL     OW49037   0.909   2.531   5.949
49047SOL    HW149038   0.869   2.454   5.991
49047SOL    HW249039   0.835   2.582   5.916
49048SOL     OW49040  11.698   8.602  13.505
49048SOL    HW149041  11.700   8.510  13.480
49048SOL    HW249042  11.607   8.628  13.490
49049SOL     OW49043   1.046   6.744   7.386
49049SOL    HW149044   1.113   6.734   7.318
49049SOL    HW249045   1.029   6.655   7.417
49050SOL     OW49046   9.567   7.455   6.340
49050SOL    HW149047   9.656   7.485   6.322
49050SOL    HW249048   9.534   7.427   6.255
49051SOL     OW49049   0.680   0.253   7.038
49051SOL    HW149050   0.627   0.332   7.048
49051SOL    HW249051   0.616   0.184   7.022
49052SOL     OW49052   1.360   4.430  13.539
49052SOL    HW149053   1.408   4.415  13.458
49052SOL    HW249054   1.342   4.524  13.540
49053SOL     OW49055  13.537   8.597   5.223
49053SOL    HW149056  13.485   8.671   5.252
49053SOL    HW249057  13.518   8.590   5.129
49054SOL     OW49058   5.107   8.582   1.321
49054SOL    HW149059   5.173   8.647   1.298
49054SOL    HW249060   5.027   8.633   1.337
49055SOL     OW49061   2.518   9.090  10.307
49055SOL    HW149062   2.588   9.153  10.325
49055SOL    HW249063   2.459   9.098  10.382
49056SOL     OW49064  11.349   6.776   3.109
49056SOL    HW149065  11.274   6.718   3.096
49056SOL    HW249066  11.320   6.861   3.078
49057SOL     OW49067   3.792  12.071   3.725
49057SOL    HW149068   3.811  12.165   3.720
49057SOL    HW249069   3.732  12.063   3.799
49058SOL     OW49070  10.322  12.147   3.131
49058SOL    HW149071  10.410  12.182   3.147
49058SOL    HW249072  10.289  12.199   3.058
49059SOL     OW49073   3.748   8.858   3.173
49059SOL    HW149074   3.772   8.767   3.188
49059SOL    HW249075   3.654   8.856   3.156
49060SOL     OW49076   2.050   3.462   8.942
49060SOL    HW149077   2.000   3.411   9.005
49060SOL    HW249078   2.028   3.425   8.857
49061SOL     OW49079  14.865  14.439  14.005
49061SOL    HW149080   0.077  14.409  13.965
49061SOL    HW249081   0.023  14.497  14.076
49062SOL     OW49082   5.272   6.521  12.866
49062SOL    HW149083   5.259   6.452  12.801
49062SOL    HW249084   5.225   6.596  12.830
49063SOL     OW49085   3.536   9.422   6.039
49063SOL    HW149086   3.618   9.462   6.067
49063SOL    HW249087   3.471   9.491   6.046
49064SOL     OW49088   7.479  10.621  13.217
49064SOL    HW149089   7.492  10.528  13.231
49064SOL    HW249090   7.385  10.635  13.233
49065SOL     OW49091  11.559   4.213  12.917
49065SOL    HW149092  11.536   4.151  12.986
49065SOL    HW249093  11.648   4.241  12.940
49066SOL     OW49094   3.402   1.414   6.252
49066SOL    HW149095   3.425   1.322   6.240
49066SOL    HW249096   3.309   1.412   6.275
49067SOL     OW49097  13.578   4.569   1.366
49067SOL    HW149098  13.672   4.582   1.353
49067SOL    HW249099  13.539   4.601   1.284
49068SOL     OW49100   2.700   7.732   8.206
49068SOL    HW149101   2.616   7.771   8.232
49068SOL    HW249102   2.749   7.805   8.169
49069SOL     OW49103   7.943   6.623   3.697
49069SOL    HW149104   7.871   6.618   3.634
49069SOL    HW249105   7.969   6.715   3.695
49070SOL     OW49106  12.927   0.517   6.675
49070SOL    HW149107  13.006   0.491   6.723
49070SOL    HW249108  12.913   0.608   6.702
49071SOL     OW49109   2.959   6.110   5.602
49071SOL    HW149110   3.051   6.135   5.614
49071SOL    HW249111   2.931   6.081   5.689
49072SOL     OW49112   5.245   0.779   0.778
49072SOL    HW149113   5.318   0.772   0.716
49072SOL    HW249114   5.260   0.709   0.841
49073SOL     OW49115   2.504   4.670   8.412
49073SOL    HW149116   2.566   4.720   8.465
49073SOL    HW249117   2.451   4.737   8.369
49074SOL     OW49118  13.072  14.719  11.352
49074SOL    HW149119  13.083  14.739  11.259
49074SOL    HW249120  13.071  14.624  11.356
49075SOL     OW49121  11.563   2.966  10.354
49075SOL    HW149122  11.622   3.028  10.398
49075SOL    HW249123  11.567   2.992  10.262
49076SOL     OW49124  13.748   5.272  11.649
49076SOL    HW149125  13.739   5.313  11.563
49076SOL    HW249126  13.835   5.298  11.679
49077SOL     OW49127  10.426   4.998   8.082
49077SOL    HW149128  10.430   4.902   8.085
49077SOL    HW249129  10.515   5.025   8.060
49078SOL     OW49130   2.600   8.886  10.799
49078SOL    HW149131   2.594   8.812  10.859
49078SOL    HW249132   2.509   8.902  10.772
49079SOL     OW49133   3.310   3.188   5.263
49079SOL    HW149134   3.323   3.254   5.331
49079SOL    HW249135   3.397   3.175   5.225
49080SOL     OW49136  13.936   8.994   4.807
49080SOL    HW149137  13.891   9.021   4.887
49080SOL    HW249138  13.886   8.920   4.774
49081SOL     OW49139   3.349   3.235   9.432
49081SOL    HW149140   3.366   3.224   9.526
49081SOL    HW249141   3.375   3.151   9.393
49082SOL     OW49142   8.063   2.398   1.809
49082SOL    HW149143   7.992   2.339   1.785
49082SOL    HW249144   8.096   2.363   1.892
49083SOL     OW49145   1.444   8.460  10.775
49083SOL    HW149146   1.426   8.366  10.770
49083SOL    HW249147   1.360   8.502  10.755
49084SOL     OW49148  13.719   8.244   7.570
49084SOL    HW149149  13.647   8.257   7.632
49084SOL    HW249150  13.779   8.184   7.614
49085SOL     OW49151   4.376   7.735   7.647
49085SOL    HW149152   4.370   7.827   7.620
49085SOL    HW249153   4.446   7.734   7.713
49086SOL     OW49154   3.652  11.015   4.736
49086SOL    HW149155   3.634  11.058   4.652
49086SOL    HW249156   3.659  11.087   4.799
49087SOL     OW49157   7.294   5.392   5.825
49087SOL    HW149158   7.307   5.300   5.800
49087SOL    HW249159   7.379   5.434   5.808
49088SOL     OW49160   6.700   4.727   7.418
49088SOL    HW149161   6.729   4.708   7.507
49088SOL    HW249162   6.659   4.646   7.388
49089SOL     OW49163   2.262   6.234  11.187
49089SOL    HW149164   2.294   6.174  11.255
49089SOL    HW249165   2.178   6.197  11.161
49090SOL     OW49166   0.510   1.039   8.533
49090SOL    HW149167   0.445   1.043   8.604
49090SOL    HW249168   0.589   1.007   8.576
49091SOL     OW49169   7.584   4.474   9.463
49091SOL    HW149170   7.643   4.420   9.515
49091SOL    HW249171   7.498   4.461   9.503
49092SOL     OW49172   1.334  13.820   7.619
49092SOL    HW149173   1.260  13.833   7.678
49092SOL    HW249174   1.411  13.846   7.670
49093SOL     OW49175   6.926   3.310   0.915
49093SOL    HW149176   6.840   3.276   0.890
49093SOL    HW249177   6.938   3.280   1.005
49094SOL     OW49178   2.278   6.480  12.727
49094SOL    HW149179   2.363   6.437  12.729
49094SOL    HW249180   2.232   6.446  12.803
49095SOL     OW49181   9.211   8.588   0.753
49095SOL    HW149182   9.271   8.528   0.798
49095SOL    HW249183   9.267   8.656   0.717
49096SOL     OW49184   5.391   0.385   4.359
49096SOL    HW149185   5.374   0.355   4.270
49096SOL    HW249186   5.421   0.475   4.349
49097SOL     OW49187   0.617   4.043   3.090
49097SOL    HW149188   0.712   4.042   3.104
49097SOL    HW249189   0.607   4.067   2.998
49098SOL     OW49190  10.318   3.039   4.152
49098SOL    HW149191  10.290   3.026   4.242
49098SOL    HW249192  10.405   3.000   4.147
49099SOL     OW49193   6.653   7.536  10.751
49099SOL    HW149194   6.654   7.443  10.775
49099SOL    HW249195   6.595   7.577  10.816
49100SOL     OW49196   8.617   3.479   5.494
49100SOL    HW149197   8.585   3.569   5.488
49100SOL    HW249198   8.539   3.428   5.516
49101SOL     OW49199  14.514   7.127   9.809
49101SOL    HW149200  14.438   7.072   9.826
49101SOL    HW249201  14.478   7.215   9.793
49102SOL     OW49202   2.563   0.231  12.267
49102SOL    HW149203   2.614   0.179  12.205
49102SOL    HW249204   2.473   0.204  12.252
49103SOL     OW49205   4.199   0.280   8.750
49103SOL    HW149206   4.179   0.188   8.769
49103SOL    HW249207   4.267   0.276   8.683
49104SOL     OW49208   6.124  12.366   7.416
49104SOL    HW149209   6.046  12.364   7.471
49104SOL    HW249210   6.143  12.274   7.399
49105SOL     OW49211   1.337   7.418  14.450
49105SOL    HW149212   1.383   7.405  14.533
49105SOL    HW249213   1.407   7.427  14.385
49106SOL     OW49214   3.295   8.521   5.683
49106SOL    HW149215   3.305   8.520   5.778
49106SOL    HW249216   3.381   8.497   5.650
49107SOL     OW49217   6.633   0.278  11.113
49107SOL    HW149218   6.606   0.359  11.069
49107SOL    HW249219   6.721   0.297  11.145
49108SOL     OW49220   4.265   4.493   0.983
49108SOL    HW149221   4.253   4.514   1.075
49108SOL    HW249222   4.298   4.573   0.943
49109SOL     OW49223  11.582   5.868  11.569
49109SOL    HW149224  11.666   5.879  11.613
49109SOL    HW249225  11.518   5.860  11.640
49110SOL     OW49226   6.931   8.172   8.724
49110SOL    HW149227   6.892   8.222   8.653
49110SOL    HW249228   6.979   8.102   8.680
49111SOL     OW49229   6.170   3.286   4.139
49111SOL    HW149230   6.215   3.371   4.133
49111SOL    HW249231   6.115   3.282   4.061
49112SOL     OW49232   9.366  13.936  14.004
49112SOL    HW149233   9.384  13.954  14.096
49112SOL    HW249234   9.317  13.854  14.004
49113SOL     OW49235   9.891  12.509   1.945
49113SOL    HW149236   9.923  12.566   2.015
49113SOL    HW249237   9.952  12.525   1.873
49114SOL     OW49238  12.154  11.485   6.933
49114SOL    HW149239  12.064  11.511   6.913
49114SOL    HW249240  12.151  11.389   6.938
49115SOL     OW49241  14.201  12.001   0.529
49115SOL    HW149242  14.196  12.017   0.434
49115SOL    HW249243  14.217  11.907   0.537
49116SOL     OW49244  12.782  12.975   9.928
49116SOL    HW149245  12.748  12.983  10.017
49116SOL    HW249246  12.820  12.888   9.924
49117SOL     OW49247   9.181   0.607  13.769
49117SOL    HW149248   9.141   0.522  13.784
49117SOL    HW249249   9.161   0.627  13.678
49118SOL     OW49250  14.624   2.892   6.280
49118SOL    HW149251  14.719   2.891   6.285
49118SOL    HW249252  14.604   2.899   6.187
49119SOL     OW49253   9.126   9.380   6.594
49119SOL    HW149254   9.158   9.333   6.517
49119SOL    HW249255   9.034   9.398   6.575
49120SOL     OW49256   8.739  13.427  10.916
49120SOL    HW149257   8.653  13.388  10.902
49120SOL    HW249258   8.760  13.406  11.007
49121SOL     OW49259   2.897   6.543  10.184
49121SOL    HW149260   2.937   6.575  10.265
49121SOL    HW249261   2.934   6.455  10.172
49122SOL     OW49262   2.791  14.671   6.356
49122SOL    HW149263   2.839  14.712   6.427
49122SOL    HW249264   2.754  14.744   6.307
49123SOL     OW49265  13.041   6.407  11.019
49123SOL    HW149266  12.961   6.455  11.041
49123SOL    HW249267  13.106   6.476  11.002
49124SOL     OW49268  10.662  13.529   9.375
49124SOL    HW149269  10.695  13.467   9.439
49124SOL    HW249270  10.732  13.594   9.366
49125SOL     OW49271  14.424   0.394   8.215
49125SOL    HW149272  14.429   0.453   8.291
49125SOL    HW249273  14.339   0.351   8.224
49126SOL     OW49274  13.230  13.160  14.346
49126SOL    HW149275  13.321  13.134  14.332
49126SOL    HW249276  13.229  13.195  14.435
49127SOL     OW49277   1.107   1.251  13.174
49127SOL    HW149278   1.056   1.170  13.176
49127SOL    HW249279   1.193   1.224  13.140
49128SOL     OW49280   4.679   7.033  12.263
49128SOL    HW149281   4.708   7.041  12.354
49128SOL    HW249282   4.670   6.939  12.250
49129SOL     OW49283   7.557  10.221   2.981
49129SOL    HW149284   7.637  10.170   2.967
49129SOL    HW249285   7.490  10.174   2.931
49130SOL     OW49286  11.100  10.704  13.964
49130SOL    HW149287  11.120  10.676  13.875
49130SOL    HW249288  11.086  10.622  14.012
49131SOL     OW49289   2.253   1.121  10.854
49131SOL    HW149290   2.193   1.195  10.841
49131SOL    HW249291   2.214   1.072  10.927
49132SOL     OW49292  13.372   3.286  12.381
49132SOL    HW149293  13.284   3.250  12.386
49132SOL    HW249294  13.428   3.220  12.422
49133SOL     OW49295   8.330   4.798   9.073
49133SOL    HW149296   8.250   4.850   9.074
49133SOL    HW249297   8.393   4.851   9.122
49134SOL     OW49298   0.672   6.339  12.798
49134SOL    HW149299   0.603   6.295  12.848
49134SOL    HW249300   0.627   6.378  12.723
49135SOL     OW49301  12.038   1.143  10.249
49135SOL    HW149302  12.032   1.094  10.167
49135SOL    HW249303  12.012   1.081  10.317
49136SOL     OW49304  14.811  14.025   1.131
49136SOL    HW149305  14.792  13.962   1.061
49136SOL    HW249306  14.790  13.978   1.212
49137SOL     OW49307  11.356   1.642  13.317
49137SOL    HW149308  11.376   1.725  13.273
49137SOL    HW249309  11.414   1.579  13.274
49138SOL     OW49310   3.109  10.937   7.165
49138SOL    HW149311   3.053  10.924   7.088
49138SOL    HW249312   3.095  10.858   7.218
49139SOL     OW49313   3.631  11.440   5.555
49139SOL    HW149314   3.636  11.346   5.571
49139SOL    HW249315   3.678  11.453   5.472
49140SOL     OW49316  14.375  12.944  12.559
49140SOL    HW149317  14.408  13.023  12.602
49140SOL    HW249318  14.365  12.880  12.630
49141SOL     OW49319   5.665   9.567  13.908
49141SOL    HW149320   5.701   9.596  13.825
49141SOL    HW249321   5.618   9.486  13.887
49142SOL     OW49322   7.937  13.280  12.576
49142SOL    HW149323   7.939  13.200  12.630
49142SOL    HW249324   7.848  13.314  12.588
49143SOL     OW49325  10.321  10.321  12.053
49143SOL    HW149326  10.394  10.370  12.091
49143SOL    HW249327  10.303  10.251  12.116
49144SOL     OW49328   0.246   2.454   6.316
49144SOL    HW149329   0.184   2.516   6.355
49144SOL    HW249330   0.332   2.494   6.330
49145SOL     OW49331  13.575   2.619  10.856
49145SOL    HW149332  13.601   2.700  10.814
49145SOL    HW249333  13.502   2.643  10.914
49146SOL     OW49334   1.362   9.966   8.637
49146SOL    HW149335   1.289  10.028   8.641
49146SOL    HW249336   1.368   9.930   8.725
49147SOL     OW49337   5.719   7.453   2.232
49147SOL    HW149338   5.778   7.526   2.215
49147SOL    HW249339   5.723   7.440   2.327
49148SOL     OW49340  11.404   7.125  11.302
49148SOL    HW149341  11.394   7.029  11.307
49148SOL    HW249342  11.361   7.149  11.220
49149SOL     OW49343   5.294   0.904   9.033
49149SOL    HW149344   5.273   0.812   9.018
49149SOL    HW249345   5.360   0.903   9.102
49150SOL     OW49346   6.400   3.866   1.530
49150SOL    HW149347   6.419   3.908   1.446
49150SOL    HW249348   6.431   3.929   1.596
49151SOL     OW49349   6.607   7.733   1.853
49151SOL    HW149350   6.680   7.671   1.854
49151SOL    HW249351   6.591   7.749   1.760
49152SOL     OW49352  12.188  13.554  12.892
49152SOL    HW149353  12.239  13.495  12.947
49152SOL    HW249354  12.183  13.635  12.943
49153SOL     OW49355  14.718   7.161  10.247
49153SOL    HW149356  14.763   7.245  10.239
49153SOL    HW249357  14.779   7.096  10.212
49154SOL     OW49358   8.140   0.294   0.919
49154SOL    HW149359   8.188   0.248   0.849
49154SOL    HW249360   8.115   0.377   0.879
49155SOL     OW49361   0.957   7.338   8.494
49155SOL    HW149362   0.966   7.244   8.480
49155SOL    HW249363   1.043   7.367   8.523
49156SOL     OW49364   4.939   4.743   5.513
49156SOL    HW149365   4.855   4.785   5.497
49156SOL    HW249366   4.926   4.652   5.487
49157SOL     OW49367  11.280   1.769   2.618
49157SOL    HW149368  11.223   1.703   2.578
49157SOL    HW249369  11.367   1.728   2.617
49158SOL     OW49370   9.963  10.648   0.553
49158SOL    HW149371  10.022  10.715   0.519
49158SOL    HW249372   9.944  10.592   0.478
49159SOL     OW49373   8.576  11.635   6.707
49159SOL    HW149374   8.606  11.688   6.781
49159SOL    HW249375   8.636  11.561   6.704
49160SOL     OW49376   1.137   8.644   0.326
49160SOL    HW149377   1.112   8.693   0.248
49160SOL    HW249378   1.157   8.712   0.391
49161SOL     OW49379  11.968  12.263  14.203
49161SOL    HW149380  11.899  12.313  14.159
49161SOL    HW249381  11.927  12.179  14.223
49162SOL     OW49382   1.278   8.491   3.898
49162SOL    HW149383   1.331   8.453   3.968
49162SOL    HW249384   1.241   8.416   3.852
49163SOL     OW49385  14.712   1.416  11.874
49163SOL    HW149386  14.746   1.327  11.878
49163SOL    HW249387  14.617   1.405  11.870
49164SOL     OW49388  13.837   0.808  10.087
49164SOL    HW149389  13.751   0.788  10.050
49164SOL    HW249390  13.828   0.789  10.180
49165SOL     OW49391   8.537  14.554   1.897
49165SOL    HW149392   8.517  14.601   1.816
49165SOL    HW249393   8.633  14.548   1.897
49166SOL     OW49394   7.719   1.235  11.360
49166SOL    HW149395   7.631   1.271  11.366
49166SOL    HW249396   7.720   1.186  11.279
49167SOL     OW49397  13.588   3.858  10.170
49167SOL    HW149398  13.654   3.882  10.105
49167SOL    HW249399  13.632   3.869  10.254
49168SOL     OW49400   5.880  11.828   5.012
49168SOL    HW149401   5.871  11.751   5.067
49168SOL    HW249402   5.864  11.796   4.923
49169SOL     OW49403   0.529   3.412   0.680
49169SOL    HW149404   0.459   3.477   0.677
49169SOL    HW249405   0.527   3.378   0.770
49170SOL     OW49406  14.374  11.247   6.604
49170SOL    HW149407  14.459  11.273   6.568
49170SOL    HW249408  14.341  11.326   6.646
49171SOL     OW49409   2.235   4.270   1.725
49171SOL    HW149410   2.179   4.315   1.788
49171SOL    HW249411   2.307   4.331   1.709
49172SOL     OW49412   8.436  14.039  14.353
49172SOL    HW149413   8.449  13.945  14.343
49172SOL    HW249414   8.471  14.058  14.440
49173SOL     OW49415  10.602   1.633   3.540
49173SOL    HW149416  10.670   1.569   3.561
49173SOL    HW249417  10.545   1.588   3.478
49174SOL     OW49418  10.288   4.273  13.015
49174SOL    HW149419  10.200   4.310  13.010
49174SOL    HW249420  10.320   4.297  13.102
49175SOL     OW49421  11.121   8.000   7.685
49175SOL    HW149422  11.125   8.058   7.608
49175SOL    HW249423  11.206   8.013   7.728
49176SOL     OW49424   0.878   0.838   3.491
49176SOL    HW149425   0.838   0.924   3.478
49176SOL    HW249426   0.810   0.785   3.533
49177SOL     OW49427   9.146  10.664   8.242
49177SOL    HW149428   9.237  10.659   8.213
49177SOL    HW249429   9.147  10.632   8.332
49178SOL     OW49430   4.189  11.141   5.265
49178SOL    HW149431   4.121  11.083   5.232
49178SOL    HW249432   4.149  11.184   5.340
49179SOL     OW49433   3.717  13.065  10.513
49179SOL    HW149434   3.655  13.086  10.443
49179SOL    HW249435   3.718  13.144  10.568
49180SOL     OW49436   7.550   9.868   3.000
49180SOL    HW149437   7.487   9.912   3.057
49180SOL    HW249438   7.626   9.926   2.999
49181SOL     OW49439   0.338   4.509   8.520
49181SOL    HW149440   0.272   4.447   8.549
49181SOL    HW249441   0.358   4.483   8.430
49182SOL     OW49442  14.374   4.159   0.218
49182SOL    HW149443  14.399   4.130   0.130
49182SOL    HW249444  14.331   4.243   0.205
49183SOL     OW49445   6.186   2.630  11.811
49183SOL    HW149446   6.235   2.579  11.746
49183SOL    HW249447   6.097   2.594  11.807
49184SOL     OW49448   8.413  11.825   7.591
49184SOL    HW149449   8.338  11.765   7.588
49184SOL    HW249450   8.467  11.798   7.516
49185SOL     OW49451  13.265  11.564   2.799
49185SOL    HW149452  13.334  11.518   2.847
49185SOL    HW249453  13.186  11.513   2.819
49186SOL     OW49454  13.685  11.433   8.516
49186SOL    HW149455  13.735  11.447   8.596
49186SOL    HW249456  13.600  11.474   8.532
49187SOL     OW49457  12.857   0.155  10.159
49187SOL    HW149458  12.889   0.244  10.173
49187SOL    HW249459  12.819   0.130  10.243
49188SOL     OW49460  11.371  13.181   0.636
49188SOL    HW149461  11.314  13.168   0.560
49188SOL    HW249462  11.351  13.108   0.694
49189SOL     OW49463  11.656   7.926   5.148
49189SOL    HW149464  11.600   8.000   5.169
49189SOL    HW249465  11.602   7.868   5.094
49190SOL     OW49466   1.686   2.215   2.730
49190SOL    HW149467   1.688   2.130   2.686
49190SOL    HW249468   1.775   2.229   2.760
49191SOL     OW49469  12.213   7.672  13.965
49191SOL    HW149470  12.200   7.586  14.005
49191SOL    HW249471  12.234   7.653  13.873
49192SOL     OW49472  11.355   7.892   8.186
49192SOL    HW149473  11.379   7.979   8.156
49192SOL    HW249474  11.433   7.839   8.174
49193SOL     OW49475  12.909   0.318   6.987
49193SOL    HW149476  12.949   0.322   7.074
49193SOL    HW249477  12.844   0.388   6.988
49194SOL     OW49478   9.506   2.874  10.235
49194SOL    HW149479   9.528   2.871  10.328
49194SOL    HW249480   9.588   2.893  10.191
49195SOL     OW49481   2.653  13.412   7.545
49195SOL    HW149482   2.594  13.380   7.477
49195SOL    HW249483   2.737  13.371   7.526
49196SOL     OW49484  12.333  14.249  11.305
49196SOL    HW149485  12.270  14.257  11.376
49196SOL    HW249486  12.282  14.267  11.226
49197SOL     OW49487  12.231   9.560   3.919
49197SOL    HW149488  12.323   9.585   3.930
49197SOL    HW249489  12.223   9.534   3.828
49198SOL     OW49490  14.453  11.200   3.910
49198SOL    HW149491  14.362  11.194   3.939
49198SOL    HW249492  14.482  11.109   3.905
49199SOL     OW49493  14.767   7.909   2.968
49199SOL    HW149494  14.841   7.933   3.025
49199SOL    HW249495  14.689   7.928   3.020
49200SOL     OW49496   5.150  12.903   4.718
49200SOL    HW149497   5.127  12.833   4.658
49200SOL    HW249498   5.071  12.957   4.725
49201SOL     OW49499   0.877   4.568   9.372
49201SOL    HW149500   0.863   4.596   9.282
49201SOL    HW249501   0.933   4.637   9.410
49202SOL     OW49502  11.869   5.471  14.290
49202SOL    HW149503  11.931   5.410  14.251
49202SOL    HW249504  11.788   5.421  14.297
49203SOL     OW49505   8.395   1.691   3.254
49203SOL    HW149506   8.408   1.599   3.274
49203SOL    HW249507   8.471   1.715   3.200
49204SOL     OW49508   8.182   1.746   6.616
49204SOL    HW149509   8.269   1.717   6.587
49204SOL    HW249510   8.195   1.777   6.705
49205SOL     OW49511   5.214   0.455   0.342
49205SOL    HW149512   5.266   0.533   0.320
49205SOL    HW249513   5.202   0.410   0.258
49206SOL     OW49514   1.456   0.342  11.845
49206SOL    HW149515   1.511   0.379  11.776
49206SOL    HW249516   1.518   0.316  11.913
49207SOL     OW49517  11.972   4.367  11.271
49207SOL    HW149518  12.035   4.435  11.247
49207SOL    HW249519  11.936   4.396  11.355
49208SOL     OW49520   0.359   1.006   2.410
49208SOL    HW149521   0.452   1.027   2.397
49208SOL    HW249522   0.344   0.932   2.351
49209SOL     OW49523   4.476   1.397  13.540
49209SOL    HW149524   4.539   1.463  13.510
49209SOL    HW249525   4.433   1.367  13.460
49210SOL     OW49526  10.207   8.568   4.385
49210SOL    HW149527  10.143   8.577   4.315
49210SOL    HW249528  10.244   8.481   4.372
49211SOL     OW49529  14.093   4.372   1.226
49211SOL    HW149530  14.072   4.464   1.212
49211SOL    HW249531  14.110   4.364   1.320
49212SOL     OW49532   9.648  13.635  10.853
49212SOL    HW149533   9.740  13.655  10.835
49212SOL    HW249534   9.643  13.625  10.948
49213SOL     OW49535   4.866   0.260   4.885
49213SOL    HW149536   4.943   0.259   4.942
49213SOL    HW249537   4.862   0.350   4.852
49214SOL     OW49538   3.607   3.265   0.784
49214SOL    HW149539   3.651   3.218   0.713
49214SOL    HW249540   3.534   3.208   0.809
49215SOL     OW49541   8.058   1.226   9.746
49215SOL    HW149542   8.143   1.187   9.727
49215SOL    HW249543   8.011   1.159   9.796
49216SOL     OW49544   2.278  13.210   8.422
49216SOL    HW149545   2.206  13.166   8.468
49216SOL    HW249546   2.241  13.294   8.395
49217SOL     OW49547   8.445   2.547   8.798
49217SOL    HW149548   8.535   2.573   8.778
49217SOL    HW249549   8.391   2.603   8.741
49218SOL     OW49550   2.312   6.823   0.001
49218SOL    HW149551   2.328   6.751  14.810
49218SOL    HW249552   2.369   6.894  14.839
49219SOL     OW49553  13.949  13.087   7.347
49219SOL    HW149554  13.904  13.121   7.424
49219SOL    HW249555  14.042  13.094   7.369
49220SOL     OW49556  11.457  11.957   0.111
49220SOL    HW149557  11.389  11.910   0.159
49220SOL    HW249558  11.517  11.888   0.082
49221SOL     OW49559   7.184  11.371  13.783
49221SOL    HW149560   7.177  11.332  13.696
49221SOL    HW249561   7.208  11.299  13.841
49222SOL     OW49562   2.067   2.458   8.962
49222SOL    HW149563   2.163   2.454   8.959
49222SOL    HW249564   2.046   2.465   9.055
49223SOL     OW49565   2.426   9.611   5.819
49223SOL    HW149566   2.501   9.622   5.760
49223SOL    HW249567   2.354   9.588   5.761
49224SOL     OW49568   0.795  11.625  10.835
49224SOL    HW149569   0.882  11.632  10.797
49224SOL    HW249570   0.780  11.709  10.877
49225SOL     OW49571   2.119   5.446  12.699
49225SOL    HW149572   2.213   5.457  12.689
49225SOL    HW249573   2.108   5.418  12.790
49226SOL     OW49574   4.473   6.068  11.299
49226SOL    HW149575   4.411   6.111  11.357
49226SOL    HW249576   4.512   5.999  11.353
49227SOL     OW49577  14.452   1.705   8.473
49227SOL    HW149578  14.508   1.674   8.544
49227SOL    HW249579  14.512   1.722   8.400
49228SOL     OW49580   0.703   1.846   3.725
49228SOL    HW149581   0.746   1.764   3.699
49228SOL    HW249582   0.701   1.843   3.821
49229SOL     OW49583   6.368   4.092   9.049
49229SOL    HW149584   6.452   4.087   9.096
49229SOL    HW249585   6.321   4.164   9.092
49230SOL     OW49586  11.329   1.455   6.515
49230SOL    HW149587  11.360   1.413   6.434
49230SOL    HW249588  11.258   1.512   6.486
49231SOL     OW49589   3.757   4.667   2.398
49231SOL    HW149590   3.845   4.692   2.370
49231SOL    HW249591   3.717   4.629   2.320
49232SOL     OW49592   2.923   7.250   0.622
49232SOL    HW149593   2.856   7.182   0.626
49232SOL    HW249594   2.875   7.331   0.605
49233SOL     OW49595   1.506  11.069   3.168
49233SOL    HW149596   1.442  11.067   3.097
49233SOL    HW249597   1.459  11.109   3.241
49234SOL     OW49598   9.744   9.964  14.008
49234SOL    HW149599   9.824  10.014  14.025
49234SOL    HW249600   9.690  10.022  13.955
49235SOL     OW49601  11.056   0.730   3.807
49235SOL    HW149602  11.015   0.670   3.869
49235SOL    HW249603  11.099   0.795   3.862
49236SOL     OW49604   3.712   8.882   4.423
49236SOL    HW149605   3.629   8.928   4.425
49236SOL    HW249606   3.700   8.807   4.481
49237SOL     OW49607   1.718   0.418  10.031
49237SOL    HW149608   1.704   0.460   9.946
49237SOL    HW249609   1.782   0.475  10.075
49238SOL     OW49610  10.775  12.219   9.231
49238SOL    HW149611  10.702  12.278   9.252
49238SOL    HW249612  10.781  12.161   9.306
49239SOL     OW49613  13.156   9.892  11.723
49239SOL    HW149614  13.167   9.826  11.655
49239SOL    HW249615  13.131   9.971  11.676
49240SOL     OW49616   6.161  13.847   6.284
49240SOL    HW149617   6.196  13.801   6.207
49240SOL    HW249618   6.238  13.878   6.331
49241SOL     OW49619   8.746   0.416   1.256
49241SOL    HW149620   8.761   0.511   1.259
49241SOL    HW249621   8.782   0.388   1.173
49242SOL     OW49622   9.475  14.446  11.035
49242SOL    HW149623   9.389  14.466  10.997
49242SOL    HW249624   9.516  14.532  11.046
49243SOL     OW49625  12.779   0.708   0.686
49243SOL    HW149626  12.789   0.755   0.603
49243SOL    HW249627  12.863   0.664   0.699
49244SOL     OW49628   8.147   1.093  12.442
49244SOL    HW149629   8.099   1.118  12.521
49244SOL    HW249630   8.143   0.998  12.439
49245SOL     OW49631   1.640  10.124   8.217
49245SOL    HW149632   1.715  10.072   8.247
49245SOL    HW249633   1.677  10.184   8.153
49246SOL     OW49634   0.359   7.089   5.569
49246SOL    HW149635   0.397   7.122   5.487
49246SOL    HW249636   0.338   7.168   5.619
49247SOL     OW49637   6.851   6.311  10.260
49247SOL    HW149638   6.767   6.354  10.245
49247SOL    HW249639   6.915   6.382  10.262
49248SOL     OW49640   0.038   2.998  14.352
49248SOL    HW149641   0.019   3.070  14.413
49248SOL    HW249642   0.125   3.018  14.318
49249SOL     OW49643   7.531  12.804  11.001
49249SOL    HW149644   7.508  12.718  11.035
49249SOL    HW249645   7.451  12.855  11.010
49250SOL     OW49646  13.937   2.105   2.912
49250SOL    HW149647  13.877   2.176   2.890
49250SOL    HW249648  13.930   2.096   3.007
49251SOL     OW49649   7.508   8.615   0.591
49251SOL    HW149650   7.441   8.563   0.545
49251SOL    HW249651   7.581   8.554   0.603
49252SOL     OW49652   8.801   6.785   2.771
49252SOL    HW149653   8.778   6.695   2.795
49252SOL    HW249654   8.724   6.818   2.726
49253SOL     OW49655   6.087  11.941   3.304
49253SOL    HW149656   6.024  11.968   3.237
49253SOL    HW249657   6.173  11.961   3.266
49254SOL     OW49658   6.652  12.497   8.955
49254SOL    HW149659   6.674  12.492   9.049
49254SOL    HW249660   6.732  12.531   8.915
49255SOL     OW49661   0.627   4.343   7.192
49255SOL    HW149662   0.702   4.374   7.243
49255SOL    HW249663   0.617   4.409   7.123
49256SOL     OW49664   3.664  11.256   7.395
49256SOL    HW149665   3.684  11.250   7.302
49256SOL    HW249666   3.748  11.237   7.438
49257SOL     OW49667   4.072   4.846   0.002
49257SOL    HW149668   4.015   4.770   0.012
49257SOL    HW249669   4.146   4.828   0.060
49258SOL     OW49670   4.135   2.872   4.945
49258SOL    HW149671   4.183   2.826   4.876
49258SOL    HW249672   4.048   2.833   4.943
49259SOL     OW49673  12.262  12.545   8.770
49259SOL    HW149674  12.229  12.559   8.859
49259SOL    HW249675  12.356  12.562   8.777
49260SOL     OW49676   8.828   5.109   8.927
49260SOL    HW149677   8.800   5.092   8.837
49260SOL    HW249678   8.884   5.187   8.920
49261SOL     OW49679   1.306   7.139   6.264
49261SOL    HW149680   1.242   7.177   6.325
49261SOL    HW249681   1.262   7.140   6.179
49262SOL     OW49682  14.510   9.877   3.834
49262SOL    HW149683  14.519   9.786   3.863
49262SOL    HW249684  14.545   9.877   3.745
49263SOL     OW49685   6.199   7.207  13.474
49263SOL    HW149686   6.266   7.194  13.541
49263SOL    HW249687   6.142   7.131  13.483
49264SOL     OW49688   3.313  11.159  14.449
49264SOL    HW149689   3.397  11.202  14.431
49264SOL    HW249690   3.286  11.122  14.365
49265SOL     OW49691   6.761   3.474   1.526
49265SOL    HW149692   6.734   3.458   1.617
49265SOL    HW249693   6.699   3.426   1.473
49266SOL     OW49694   8.235   8.858  14.529
49266SOL    HW149695   8.171   8.851  14.458
49266SOL    HW249696   8.316   8.887  14.486
49267SOL     OW49697   6.020  11.882   9.093
49267SOL    HW149698   5.976  11.967   9.082
49267SOL    HW249699   6.064  11.867   9.009
49268SOL     OW49700   4.782   5.607  12.337
49268SOL    HW149701   4.754   5.562  12.257
49268SOL    HW249702   4.876   5.588  12.344
49269SOL     OW49703  12.550   8.857   8.718
49269SOL    HW149704  12.564   8.897   8.804
49269SOL    HW249705  12.575   8.765   8.730
49270SOL     OW49706  13.983   3.492  11.392
49270SOL    HW149707  13.943   3.424  11.447
49270SOL    HW249708  13.976   3.458  11.303
49271SOL     OW49709   3.719  14.787  13.985
49271SOL    HW149710   3.764  14.702  13.978
49271SOL    HW249711   3.656  14.787  13.914
49272SOL     OW49712  10.802   0.753   5.510
49272SOL    HW149713  10.814   0.843   5.477
49272SOL    HW249714  10.709   0.736   5.499
49273SOL     OW49715   2.164   7.875  14.523
49273SOL    HW149716   2.117   7.959  14.528
49273SOL    HW249717   2.194   7.859  14.613
49274SOL     OW49718   5.911  13.010   6.007
49274SOL    HW149719   5.949  12.945   5.948
49274SOL    HW249720   5.826  12.973   6.031
49275SOL     OW49721  11.552   4.403  12.032
49275SOL    HW149722  11.586   4.451  11.956
49275SOL    HW249723  11.569   4.311  12.012
49276SOL     OW49724   2.351   2.019  13.434
49276SOL    HW149725   2.440   2.021  13.401
49276SOL    HW249726   2.327   2.111  13.446
49277SOL     OW49727   7.177   0.521   5.810
49277SOL    HW149728   7.132   0.496   5.891
49277SOL    HW249729   7.251   0.461   5.804
49278SOL     OW49730  11.691   0.417   9.893
49278SOL    HW149731  11.717   0.345   9.836
49278SOL    HW249732  11.772   0.447   9.933
49279SOL     OW49733  14.555   9.313   3.793
49279SOL    HW149734  14.515   9.294   3.708
49279SOL    HW249735  14.606   9.392   3.778
49280SOL     OW49736  14.322   5.401   6.193
49280SOL    HW149737  14.390   5.415   6.126
49280SOL    HW249738  14.315   5.306   6.200
49281SOL     OW49739   2.277   8.519   4.257
49281SOL    HW149740   2.300   8.426   4.263
49281SOL    HW249741   2.285   8.551   4.347
49282SOL     OW49742   2.835  12.026   6.438
49282SOL    HW149743   2.754  12.047   6.485
49282SOL    HW249744   2.844  12.096   6.374
49283SOL     OW49745   0.643   8.444  13.741
49283SOL    HW149746   0.711   8.433  13.674
49283SOL    HW249747   0.563   8.411  13.700
49284SOL     OW49748   0.004   3.387   3.374
49284SOL    HW149749  14.858   3.454   3.441
49284SOL    HW249750  14.814   3.316   3.396
49285SOL     OW49751  12.857   6.777   4.077
49285SOL    HW149752  12.865   6.847   4.142
49285SOL    HW249753  12.872   6.697   4.127
49286SOL     OW49754   5.510   6.952  13.175
49286SOL    HW149755   5.536   6.970  13.085
49286SOL    HW249756   5.510   7.038  13.217
49287SOL     OW49757  11.685   6.515   0.388
49287SOL    HW149758  11.627   6.548   0.457
49287SOL    HW249759  11.671   6.574   0.315
49288SOL     OW49760  13.797  12.031   8.366
49288SOL    HW149761  13.828  11.940   8.364
49288SOL    HW249762  13.872  12.082   8.336
49289SOL     OW49763   2.043  10.373  13.811
49289SOL    HW149764   2.015  10.319  13.737
49289SOL    HW249765   2.137  10.388  13.797
49290SOL     OW49766   1.409   0.888   3.768
49290SOL    HW149767   1.316   0.893   3.750
49290SOL    HW249768   1.431   0.796   3.754
49291SOL     OW49769   7.653   4.689  12.118
49291SOL    HW149770   7.641   4.605  12.074
49291SOL    HW249771   7.731   4.676  12.173
49292SOL     OW49772   5.664   3.673  14.170
49292SOL    HW149773   5.697   3.639  14.087
49292SOL    HW249774   5.597   3.736  14.145
49293SOL     OW49775   6.185   2.777  13.399
49293SOL    HW149776   6.204   2.771  13.306
49293SOL    HW249777   6.234   2.854  13.429
49294SOL     OW49778   4.031   6.499   5.469
49294SOL    HW149779   3.958   6.460   5.422
49294SOL    HW249780   4.099   6.512   5.403
49295SOL     OW49781   7.702   9.568   5.449
49295SOL    HW149782   7.774   9.609   5.400
49295SOL    HW249783   7.625   9.621   5.427
49296SOL     OW49784   8.204  10.517  12.452
49296SOL    HW149785   8.150  10.552  12.382
49296SOL    HW249786   8.188  10.576  12.526
49297SOL     OW49787  12.257   8.989  10.779
49297SOL    HW149788  12.185   8.926  10.779
49297SOL    HW249789  12.310   8.966  10.703
49298SOL     OW49790  11.402   1.196   1.863
49298SOL    HW149791  11.363   1.220   1.947
49298SOL    HW249792  11.495   1.216   1.873
49299SOL     OW49793  13.748  11.895   4.607
49299SOL    HW149794  13.761  11.905   4.701
49299SOL    HW249795  13.728  11.802   4.596
49300SOL     OW49796   5.201   7.108  11.108
49300SOL    HW149797   5.109   7.085  11.121
49300SOL    HW249798   5.199   7.192  11.061
49301SOL     OW49799   7.855   3.526   8.034
49301SOL    HW149800   7.801   3.557   7.962
49301SOL    HW249801   7.917   3.466   7.993
49302SOL     OW49802  10.019   7.934   2.837
49302SOL    HW149803  10.059   7.900   2.756
49302SOL    HW249804   9.926   7.915   2.827
49303SOL     OW49805   2.722  10.575  14.407
49303SOL    HW149806   2.752  10.639  14.472
49303SOL    HW249807   2.792  10.510  14.403
49304SOL     OW49808  11.002   6.157  11.312
49304SOL    HW149809  10.993   6.217  11.386
49304SOL    HW249810  11.085   6.182  11.271
49305SOL     OW49811   3.318   8.559  11.976
49305SOL    HW149812   3.272   8.541  12.058
49305SOL    HW249813   3.380   8.629  11.998
49306SOL     OW49814  11.801   1.009  10.966
49306SOL    HW149815  11.806   1.092  10.919
49306SOL    HW249816  11.811   1.033  11.058
49307SOL     OW49817  12.114   4.748  14.417
49307SOL    HW149818  12.088   4.668  14.462
49307SOL    HW249819  12.032   4.787  14.387
49308SOL     OW49820  12.583   2.201   9.724
49308SOL    HW149821  12.639   2.212   9.647
49308SOL    HW249822  12.562   2.108   9.726
49309SOL     OW49823   2.820   4.333  10.311
49309SOL    HW149824   2.885   4.358  10.246
49309SOL    HW249825   2.813   4.409  10.369
49310SOL     OW49826   4.830   5.790  14.467
49310SOL    HW149827   4.914   5.775  14.423
49310SOL    HW249828   4.810   5.707  14.509
49311SOL     OW49829  10.725   6.926  11.446
49311SOL    HW149830  10.743   6.954  11.356
49311SOL    HW249831  10.779   6.848  11.458
49312SOL     OW49832  10.148   6.740   3.251
49312SOL    HW149833  10.078   6.804   3.238
49312SOL    HW249834  10.184   6.725   3.164
49313SOL     OW49835   7.828  11.992   9.051
49313SOL    HW149836   7.785  11.917   9.090
49313SOL    HW249837   7.773  12.016   8.977
49314SOL     OW49838   6.604   5.150  11.388
49314SOL    HW149839   6.657   5.140  11.468
49314SOL    HW249840   6.574   5.061  11.368
49315SOL     OW49841   9.007   1.112   7.204
49315SOL    HW149842   9.062   1.176   7.158
49315SOL    HW249843   9.023   1.030   7.158
49316SOL     OW49844   8.841   8.528  12.533
49316SOL    HW149845   8.768   8.494  12.586
49316SOL    HW249846   8.904   8.560  12.598
49317SOL     OW49847   5.778  11.088   0.155
49317SOL    HW149848   5.782  11.030   0.231
49317SOL    HW249849   5.723  11.042   0.092
49318SOL     OW49850   9.098   3.902   2.599
49318SOL    HW149851   9.060   3.820   2.630
49318SOL    HW249852   9.118   3.886   2.506
49319SOL     OW49853   1.082   4.788   9.855
49319SOL    HW149854   1.010   4.725   9.861
49319SOL    HW249855   1.066   4.850   9.926
49320SOL     OW49856   5.693  14.271   3.695
49320SOL    HW149857   5.773  14.316   3.667
49320SOL    HW249858   5.711  14.242   3.784
49321SOL     OW49859   5.560   1.179   8.936
49321SOL    HW149860   5.467   1.163   8.919
49321SOL    HW249861   5.604   1.098   8.910
49322SOL     OW49862   4.812  11.430  13.108
49322SOL    HW149863   4.902  11.417  13.139
49322SOL    HW249864   4.810  11.520  13.076
49323SOL     OW49865   5.485  12.124   4.233
49323SOL    HW149866   5.514  12.202   4.282
49323SOL    HW249867   5.502  12.051   4.292
49324SOL     OW49868   3.096   0.747   3.416
49324SOL    HW149869   3.070   0.683   3.482
49324SOL    HW249870   3.165   0.798   3.459
49325SOL     OW49871   6.312  11.426  14.122
49325SOL    HW149872   6.250  11.454  14.055
49325SOL    HW249873   6.258  11.388  14.191
49326SOL     OW49874  14.300  10.867   2.919
49326SOL    HW149875  14.206  10.852   2.907
49326SOL    HW249876  14.340  10.839   2.836
49327SOL     OW49877  10.741   8.238   1.702
49327SOL    HW149878  10.716   8.264   1.613
49327SOL    HW249879  10.751   8.320   1.750
49328SOL     OW49880   1.100   0.253   6.488
49328SOL    HW149881   1.104   0.284   6.578
49328SOL    HW249882   1.067   0.163   6.494
49329SOL     OW49883  12.746  13.490   2.774
49329SOL    HW149884  12.767  13.558   2.710
49329SOL    HW249885  12.808  13.419   2.756
49330SOL     OW49886   1.040  12.214   2.297
49330SOL    HW149887   1.073  12.298   2.265
49330SOL    HW249888   0.952  12.207   2.261
49331SOL     OW49889   7.407   5.343  11.081
49331SOL    HW149890   7.462   5.270  11.052
49331SOL    HW249891   7.318   5.309  11.076
49332SOL     OW49892   8.178   6.993   0.930
49332SOL    HW149893   8.101   6.957   0.974
49332SOL    HW249894   8.231   7.028   1.001
49333SOL     OW49895  14.357   8.103  12.084
49333SOL    HW149896  14.315   8.019  12.066
49333SOL    HW249897  14.321   8.131  12.168
49334SOL     OW49898   2.503  14.153  12.248
49334SOL    HW149899   2.418  14.133  12.287
49334SOL    HW249900   2.565  14.143  12.320
49335SOL     OW49901   5.842   3.262  13.397
49335SOL    HW149902   5.756   3.300  13.379
49335SOL    HW249903   5.825   3.168  13.408
49336SOL     OW49904   3.477  13.541   5.868
49336SOL    HW149905   3.439  13.628   5.864
49336SOL    HW249906   3.449  13.506   5.953
49337SOL     OW49907   5.995   8.069   3.550
49337SOL    HW149908   5.950   8.081   3.467
49337SOL    HW249909   5.929   8.088   3.616
49338SOL     OW49910   7.122   3.798  10.651
49338SOL    HW149911   7.070   3.717  10.652
49338SOL    HW249912   7.112   3.834  10.739
49339SOL     OW49913  10.043   1.632   6.416
49339SOL    HW149914  10.084   1.654   6.500
49339SOL    HW249915  10.006   1.715   6.385
49340SOL     OW49916   2.180   8.362  10.916
49340SOL    HW149917   2.253   8.307  10.944
49340SOL    HW249918   2.198   8.380  10.823
49341SOL     OW49919  13.296   0.311  13.451
49341SOL    HW149920  13.348   0.357  13.385
49341SOL    HW249921  13.209   0.350  13.444
49342SOL     OW49922  12.136  13.811   5.644
49342SOL    HW149923  12.042  13.804   5.661
49342SOL    HW249924  12.154  13.743   5.580
49343SOL     OW49925  11.767  13.334  11.226
49343SOL    HW149926  11.712  13.309  11.152
49343SOL    HW249927  11.854  13.303  11.203
49344SOL     OW49928  13.317   5.758  14.134
49344SOL    HW149929  13.302   5.668  14.161
49344SOL    HW249930  13.337   5.805  14.215
49345SOL     OW49931  14.247  14.371   3.425
49345SOL    HW149932  14.176  14.434   3.414
49345SOL    HW249933  14.309  14.394   3.356
49346SOL     OW49934   8.803  12.974   8.744
49346SOL    HW149935   8.797  13.063   8.778
49346SOL    HW249936   8.714  12.940   8.749
49347SOL     OW49937  14.710   1.286   0.795
49347SOL    HW149938  14.800   1.252   0.800
49347SOL    HW249939  14.710   1.342   0.717
49348SOL     OW49940   4.626   4.699   6.917
49348SOL    HW149941   4.705   4.672   6.872
49348SOL    HW249942   4.649   4.782   6.959
49349SOL     OW49943   0.625   4.632  11.443
49349SOL    HW149944   0.659   4.714  11.408
49349SOL    HW249945   0.578   4.657  11.522
49350SOL     OW49946   0.409   5.283  14.679
49350SOL    HW149947   0.348   5.252  14.746
49350SOL    HW249948   0.426   5.374  14.703
49351SOL     OW49949   5.109   3.101   3.413
49351SOL    HW149950   5.197   3.068   3.432
49351SOL    HW249951   5.123   3.189   3.380
49352SOL     OW49952   6.854  10.873   2.711
49352SOL    HW149953   6.853  10.833   2.624
49352SOL    HW249954   6.947  10.877   2.735
49353SOL     OW49955   9.372   7.418   6.119
49353SOL    HW149956   9.323   7.362   6.179
49353SOL    HW249957   9.304   7.459   6.064
49354SOL     OW49958   6.565   8.008   2.083
49354SOL    HW149959   6.625   7.938   2.058
49354SOL    HW249960   6.490   7.964   2.123
49355SOL     OW49961   9.374   7.747   6.551
49355SOL    HW149962   9.307   7.737   6.484
49355SOL    HW249963   9.438   7.808   6.512
49356SOL     OW49964   8.538   6.250   5.305
49356SOL    HW149965   8.623   6.270   5.266
49356SOL    HW249966   8.544   6.281   5.395
49357SOL     OW49967   4.917   8.903   6.936
49357SOL    HW149968   4.915   8.997   6.919
49357SOL    HW249969   4.998   8.873   6.893
49358SOL     OW49970  13.079   0.840  13.530
49358SOL    HW149971  13.134   0.775  13.485
49358SOL    HW249972  13.141   0.908  13.558
49359SOL     OW49973  14.446   4.719  11.443
49359SOL    HW149974  14.517   4.655  11.444
49359SOL    HW249975  14.434   4.740  11.350
49360SOL     OW49976   8.877   7.499  11.833
49360SOL    HW149977   8.918   7.446  11.765
49360SOL    HW249978   8.786   7.470  11.836
49361SOL     OW49979   2.140  11.692  10.585
49361SOL    HW149980   2.234  11.699  10.569
49361SOL    HW249981   2.106  11.777  10.560
49362SOL     OW49982   3.072   6.268  13.174
49362SOL    HW149983   3.040   6.193  13.124
49362SOL    HW249984   3.057   6.243  13.265
49363SOL     OW49985  14.328   1.206   2.385
49363SOL    HW149986  14.312   1.164   2.301
49363SOL    HW249987  14.418   1.181   2.407
49364SOL     OW49988   2.026   3.932   2.345
49364SOL    HW149989   2.052   3.965   2.259
49364SOL    HW249990   1.979   3.850   2.326
49365SOL     OW49991  11.138   6.613   3.032
49365SOL    HW149992  11.089   6.590   2.953
49365SOL    HW249993  11.079   6.592   3.104
49366SOL     OW49994   2.164   4.597   5.634
49366SOL    HW149995   2.232   4.640   5.686
49366SOL    HW249996   2.132   4.664   5.575
49367SOL     OW49997  10.511  12.955   5.411
49367SOL    HW149998  10.464  12.938   5.492
49367SOL    HW249999  10.577  13.020   5.434
49368SOL     OW50000  12.759  10.155   5.955
49368SOL    HW150001  12.717  10.229   5.999
49368SOL    HW250002  12.853  10.177   5.957
49369SOL     OW50003   8.015   4.298   3.471
49369SOL    HW150004   7.965   4.327   3.547
49369SOL    HW250005   8.029   4.204   3.485
49370SOL     OW50006   2.451   1.119  11.184
49370SOL    HW150007   2.503   1.131  11.104
49370SOL    HW250008   2.409   1.203  11.198
49371SOL     OW50009   7.434  12.883   7.775
49371SOL    HW150010   7.449  12.794   7.743
49371SOL    HW250011   7.507  12.934   7.740
49372SOL     OW50012  14.506   7.355   1.379
49372SOL    HW150013  14.474   7.270   1.349
49372SOL    HW250014  14.427   7.405   1.400
49373SOL     OW50015   1.949   5.206   7.554
49373SOL    HW150016   1.938   5.118   7.590
49373SOL    HW250017   1.959   5.263   7.630
49374SOL     OW50018  10.851  10.882  13.267
49374SOL    HW150019  10.816  10.970  13.257
49374SOL    HW250020  10.809  10.831  13.197
49375SOL     OW50021  12.238   2.868   8.704
49375SOL    HW150022  12.322   2.910   8.685
49375SOL    HW250023  12.250   2.828   8.790
49376SOL     OW50024  13.613   0.677  10.197
49376SOL    HW150025  13.560   0.738  10.249
49376SOL    HW250026  13.601   0.706  10.107
49377SOL     OW50027   4.974   2.727  10.846
49377SOL    HW150028   4.983   2.646  10.897
49377SOL    HW250029   4.880   2.732  10.826
49378SOL     OW50030   9.504   0.178   8.852
49378SOL    HW150031   9.474   0.167   8.761
49378SOL    HW250032   9.523   0.089   8.881
49379SOL     OW50033   7.792   7.763  10.698
49379SOL    HW150034   7.710   7.801  10.729
49379SOL    HW250035   7.789   7.775  10.603
49380SOL     OW50036   1.124  11.913   0.661
49380SOL    HW150037   1.197  11.852   0.672
49380SOL    HW250038   1.163  11.999   0.678
49381SOL     OW50039  11.857  11.966  12.216
49381SOL    HW150040  11.777  11.939  12.260
49381SOL    HW250041  11.838  11.957  12.123
49382SOL     OW50042  11.432  10.329   7.722
49382SOL    HW150043  11.427  10.390   7.649
49382SOL    HW250044  11.434  10.243   7.682
49383SOL     OW50045   4.797  12.668   5.748
49383SOL    HW150046   4.775  12.683   5.657
49383SOL    HW250047   4.751  12.737   5.796
49384SOL     OW50048  11.832  13.978   9.054
49384SOL    HW150049  11.823  13.883   9.050
49384SOL    HW250050  11.925  13.993   9.071
49385SOL     OW50051  14.768  12.073   5.401
49385SOL    HW150052  14.807  11.986   5.393
49385SOL    HW250053  14.679  12.063   5.368
49386SOL     OW50054   0.156   8.704  11.487
49386SOL    HW150055   0.205   8.675  11.563
49386SOL    HW250056   0.071   8.661  11.494
49387SOL     OW50057   6.840  10.282   4.269
49387SOL    HW150058   6.900  10.237   4.212
49387SOL    HW250059   6.855  10.375   4.252
49388SOL     OW50060   4.697   9.398   5.279
49388SOL    HW150061   4.651   9.318   5.306
49388SOL    HW250062   4.679   9.406   5.185
49389SOL     OW50063   8.534   8.298  14.568
49389SOL    HW150064   8.621   8.309  14.528
49389SOL    HW250065   8.552   8.255  14.652
49390SOL     OW50066   1.963   6.638  14.837
49390SOL    HW150067   2.039   6.656   0.023
49390SOL    HW250068   1.960   6.711  14.776
49391SOL     OW50069   7.205   9.454  12.588
49391SOL    HW150070   7.112   9.474  12.586
49391SOL    HW250071   7.248   9.539  12.600
49392SOL     OW50072   4.885   9.257   5.693
49392SOL    HW150073   4.891   9.304   5.776
49392SOL    HW250074   4.791   9.239   5.683
49393SOL     OW50075   0.964  10.729  12.604
49393SOL    HW150076   0.975  10.663  12.672
49393SOL    HW250077   0.999  10.810  12.642
49394SOL     OW50078   3.460  12.636   2.789
49394SOL    HW150079   3.531  12.626   2.726
49394SOL    HW250080   3.493  12.699   2.853
49395SOL     OW50081   9.070  13.389  10.163
49395SOL    HW150082   9.152  13.353  10.195
49395SOL    HW250083   9.002  13.339  10.208
49396SOL     OW50084   4.880   1.749   7.386
49396SOL    HW150085   4.899   1.655   7.386
49396SOL    HW250086   4.817   1.760   7.315
49397SOL     OW50087   1.652  11.878   8.043
49397SOL    HW150088   1.609  11.863   8.127
49397SOL    HW250089   1.735  11.830   8.050
49398SOL     OW50090  12.972  14.755   8.486
49398SOL    HW150091  13.027  14.700   8.429
49398SOL    HW250092  12.907  14.793   8.428
49399SOL     OW50093   3.577   8.800   1.428
49399SOL    HW150094   3.622   8.883   1.412
49399SOL    HW250095   3.489   8.813   1.392
49400SOL     OW50096   4.087   3.360  10.246
49400SOL    HW150097   4.114   3.317  10.165
49400SOL    HW250098   4.079   3.453  10.222
49401SOL     OW50099   0.149   9.110  10.891
49401SOL    HW150100   0.229   9.130  10.843
49401SOL    HW250101   0.085   9.173  10.857
49402SOL     OW50102  11.750  12.523   2.627
49402SOL    HW150103  11.802  12.581   2.571
49402SOL    HW250104  11.673  12.576   2.651
49403SOL     OW50105   7.792   5.874   4.787
49403SOL    HW150106   7.766   5.944   4.727
49403SOL    HW250107   7.760   5.902   4.872
49404SOL     OW50108   9.343  13.984   0.641
49404SOL    HW150109   9.428  13.954   0.671
49404SOL    HW250110   9.324  14.062   0.693
49405SOL     OW50111  14.097   8.811  13.059
49405SOL    HW150112  14.075   8.769  13.142
49405SOL    HW250113  14.015   8.810  13.009
49406SOL     OW50114   3.997   2.850  12.222
49406SOL    HW150115   4.017   2.881  12.311
49406SOL    HW250116   4.081   2.843  12.179
49407SOL     OW50117  10.830   7.782   1.655
49407SOL    HW150118  10.767   7.738   1.598
49407SOL    HW250119  10.881   7.711   1.694
49408SOL     OW50120   4.862   9.761   5.963
49408SOL    HW150121   4.819   9.676   5.953
49408SOL    HW250122   4.954   9.743   5.948
49409SOL     OW50123  12.435   9.862  11.993
49409SOL    HW150124  12.416   9.871  12.086
49409SOL    HW250125  12.507   9.923  11.977
49410SOL     OW50126  12.625  12.485   3.289
49410SOL    HW150127  12.554  12.433   3.251
49410SOL    HW250128  12.658  12.538   3.216
49411SOL     OW50129   2.910  12.568   4.999
49411SOL    HW150130   2.815  12.558   4.997
49411SOL    HW250131   2.924  12.656   5.037
49412SOL     OW50132   4.245   3.198   2.331
49412SOL    HW150133   4.218   3.192   2.423
49412SOL    HW250134   4.320   3.257   2.332
49413SOL     OW50135   0.538   2.326  12.959
49413SOL    HW150136   0.449   2.337  12.928
49413SOL    HW250137   0.536   2.247  13.013
49414SOL     OW50138   6.199   0.401   7.808
49414SOL    HW150139   6.223   0.490   7.832
49414SOL    HW250140   6.220   0.394   7.715
49415SOL     OW50141   0.577  12.197   3.148
49415SOL    HW150142   0.552  12.266   3.210
49415SOL    HW250143   0.515  12.127   3.164
49416SOL     OW50144   6.098   9.827  11.263
49416SOL    HW150145   6.071   9.756  11.320
49416SOL    HW250146   6.139   9.891  11.322
49417SOL     OW50147   1.739  10.280   6.821
49417SOL    HW150148   1.745  10.236   6.736
49417SOL    HW250149   1.650  10.261   6.851
49418SOL     OW50150  11.851  11.050   1.763
49418SOL    HW150151  11.900  10.968   1.762
49418SOL    HW250152  11.805  11.051   1.679
49419SOL     OW50153   3.867   6.091   6.475
49419SOL    HW150154   3.791   6.041   6.502
49419SOL    HW250155   3.914   6.034   6.414
49420SOL     OW50156   3.619  14.592   5.449
49420SOL    HW150157   3.579  14.679   5.455
49420SOL    HW250158   3.690  14.594   5.514
49421SOL     OW50159  13.009   0.148   3.776
49421SOL    HW150160  13.051   0.063   3.786
49421SOL    HW250161  12.953   0.138   3.699
49422SOL     OW50162   0.002   2.883  12.014
49422SOL    HW150163   0.092   2.889  12.047
49422SOL    HW250164  14.855   2.789  12.007
49423SOL     OW50165   5.311   7.655   0.059
49423SOL    HW150166   5.359   7.702   0.128
49423SOL    HW250167   5.347   7.566   0.062
49424SOL     OW50168   2.761  10.940  13.745
49424SOL    HW150169   2.697  10.944  13.815
49424SOL    HW250170   2.748  10.853  13.706
49425SOL     OW50171  10.306  13.536  12.791
49425SOL    HW150172  10.361  13.465  12.825
49425SOL    HW250173  10.294  13.514  12.699
49426SOL     OW50174   5.496  13.373   7.968
49426SOL    HW150175   5.443  13.303   7.930
49426SOL    HW250176   5.585  13.355   7.939
49427SOL     OW50177   0.632   1.602   8.159
49427SOL    HW150178   0.580   1.554   8.095
49427SOL    HW250179   0.637   1.544   8.235
49428SOL     OW50180  13.008   6.381  11.971
49428SOL    HW150181  12.958   6.442  12.024
49428SOL    HW250182  12.999   6.413  11.881
49429SOL     OW50183   3.953  10.440   5.978
49429SOL    HW150184   4.030  10.412   5.928
49429SOL    HW250185   3.891  10.367   5.969
49430SOL     OW50186   9.074   1.311   1.175
49430SOL    HW150187   9.115   1.326   1.260
49430SOL    HW250188   9.132   1.249   1.131
49431SOL     OW50189   3.784   5.494   9.382
49431SOL    HW150190   3.757   5.416   9.333
49431SOL    HW250191   3.702   5.529   9.417
49432SOL     OW50192  10.087  10.604  10.638
49432SOL    HW150193  10.094  10.697  10.619
49432SOL    HW250194  10.014  10.574  10.583
49433SOL     OW50195   0.125   7.024  12.603
49433SOL    HW150196   0.140   6.945  12.551
49433SOL    HW250197   0.065   6.996  12.673
49434SOL     OW50198  11.374   5.543  11.120
49434SOL    HW150199  11.435   5.547  11.046
49434SOL    HW250200  11.415   5.598  11.187
49435SOL     OW50201   2.980   6.231  13.762
49435SOL    HW150202   3.072   6.207  13.768
49435SOL    HW250203   2.962   6.277  13.845
49436SOL     OW50204   7.423   2.480   8.295
49436SOL    HW150205   7.376   2.487   8.378
49436SOL    HW250206   7.515   2.470   8.320
49437SOL     OW50207   5.217  10.497   4.076
49437SOL    HW150208   5.153  10.567   4.091
49437SOL    HW250209   5.256  10.518   3.991
49438SOL     OW50210  14.671   3.025   2.443
49438SOL    HW150211  14.636   3.114   2.434
49438SOL    HW250212  14.695   3.018   2.535
49439SOL     OW50213   6.463   5.608  10.135
49439SOL    HW150214   6.503   5.689  10.167
49439SOL    HW250215   6.504   5.539  10.188
49440SOL     OW50216  13.385  14.764   8.263
49440SOL    HW150217  13.367  14.826   8.192
49440SOL    HW250218  13.336  14.799   8.338
49441SOL     OW50219  14.301   3.749   2.688
49441SOL    HW150220  14.313   3.670   2.741
49441SOL    HW250221  14.388   3.767   2.652
49442SOL     OW50222   0.337   2.754  11.348
49442SOL    HW150223   0.245   2.757  11.372
49442SOL    HW250224   0.357   2.841  11.316
49443SOL     OW50225   7.967   6.475   6.906
49443SOL    HW150226   7.991   6.394   6.860
49443SOL    HW250227   7.920   6.527   6.841
49444SOL     OW50228  14.106   1.004   8.780
49444SOL    HW150229  14.180   0.964   8.733
49444SOL    HW250230  14.031   0.992   8.721
49445SOL     OW50231   6.351  14.533   8.247
49445SOL    HW150232   6.438  14.552   8.281
49445SOL    HW250233   6.300  14.612   8.263
49446SOL     OW50234  11.728   6.299  14.028
49446SOL    HW150235  11.813   6.273  14.063
49446SOL    HW250236  11.740   6.390  14.001
49447SOL     OW50237   4.268  10.643   0.081
49447SOL    HW150238   4.181  10.630   0.119
49447SOL    HW250239   4.273  10.578   0.011
49448SOL     OW50240   1.395   5.014   6.228
49448SOL    HW150241   1.445   5.077   6.176
49448SOL    HW250242   1.305   5.049   6.227
49449SOL     OW50243   6.316   9.250  10.198
49449SOL    HW150244   6.270   9.208  10.272
49449SOL    HW250245   6.249   9.256  10.130
49450SOL     OW50246  13.447   9.256   8.166
49450SOL    HW150247  13.508   9.192   8.202
49450SOL    HW250248  13.485   9.341   8.192
49451SOL     OW50249   0.638   0.790   3.100
49451SOL    HW150250   0.697   0.716   3.086
49451SOL    HW250251   0.573   0.782   3.030
49452SOL     OW50252   3.459   1.306   0.200
49452SOL    HW150253   3.461   1.310   0.104
49452SOL    HW250254   3.367   1.292   0.221
49453SOL     OW50255  10.149   7.997   6.029
49453SOL    HW150256  10.081   8.062   6.047
49453SOL    HW250257  10.220   8.021   6.088
49454SOL     OW50258  13.015  11.606   1.066
49454SOL    HW150259  13.020  11.526   1.118
49454SOL    HW250260  12.923  11.632   1.071
49455SOL     OW50261   1.678  11.893  13.508
49455SOL    HW150262   1.608  11.831  13.488
49455SOL    HW250263   1.654  11.972  13.461
49456SOL     OW50264  10.911   2.018  14.025
49456SOL    HW150265  10.951   2.076  14.089
49456SOL    HW250266  10.888   2.075  13.952
49457SOL     OW50267   8.024   1.649  11.984
49457SOL    HW150268   7.992   1.562  11.961
49457SOL    HW250269   8.104   1.633  12.035
49458SOL     OW50270   8.814   6.291  10.076
49458SOL    HW150271   8.783   6.377  10.103
49458SOL    HW250272   8.756   6.266  10.004
49459SOL     OW50273   3.291   2.620   7.974
49459SOL    HW150274   3.362   2.674   8.009
49459SOL    HW250275   3.231   2.610   8.047
49460SOL     OW50276  11.600   3.455   5.833
49460SOL    HW150277  11.639   3.514   5.898
49460SOL    HW250278  11.512   3.490   5.820
49461SOL     OW50279   8.004   2.027   9.872
49461SOL    HW150280   8.048   1.946   9.898
49461SOL    HW250281   8.061   2.097   9.905
49462SOL     OW50282  14.530   1.905   6.925
49462SOL    HW150283  14.544   1.967   6.854
49462SOL    HW250284  14.435   1.896   6.931
49463SOL     OW50285  12.841  11.153  10.988
49463SOL    HW150286  12.926  11.197  10.981
49463SOL    HW250287  12.851  11.093  11.062
49464SOL     OW50288   8.050   6.231   6.768
49464SOL    HW150289   8.137   6.263   6.792
49464SOL    HW250290   8.062   6.189   6.683
49465SOL     OW50291   5.702   0.613   6.653
49465SOL    HW150292   5.739   0.605   6.741
49465SOL    HW250293   5.766   0.571   6.596
49466SOL     OW50294   8.898  11.423  13.563
49466SOL    HW150295   8.829  11.433  13.628
49466SOL    HW250296   8.854  11.384  13.487
49467SOL     OW50297  11.087   6.865  10.997
49467SOL    HW150298  11.057   6.865  10.906
49467SOL    HW250299  11.173   6.822  10.994
49468SOL     OW50300  12.106   3.286   6.916
49468SOL    HW150301  12.031   3.237   6.882
49468SOL    HW250302  12.162   3.220   6.957
49469SOL     OW50303  10.950   7.288   2.124
49469SOL    HW150304  10.932   7.376   2.092
49469SOL    HW250305  10.920   7.230   2.054
49470SOL     OW50306  11.522  12.002   8.040
49470SOL    HW150307  11.477  11.917   8.046
49470SOL    HW250308  11.599  11.984   7.987
49471SOL     OW50309   8.769   2.888   4.498
49471SOL    HW150310   8.859   2.873   4.470
49471SOL    HW250311   8.777   2.935   4.581
49472SOL     OW50312   9.550   4.678   5.070
49472SOL    HW150313   9.598   4.693   5.151
49472SOL    HW250314   9.581   4.747   5.011
49473SOL     OW50315   2.659   7.759   7.498
49473SOL    HW150316   2.598   7.826   7.468
49473SOL    HW250317   2.638   7.745   7.590
49474SOL     OW50318   3.694  13.807   7.279
49474SOL    HW150319   3.609  13.851   7.277
49474SOL    HW250320   3.726  13.812   7.188
49475SOL     OW50321   7.077  10.827  11.324
49475SOL    HW150322   7.039  10.739  11.333
49475SOL    HW250323   7.124  10.842  11.406
49476SOL     OW50324   0.521   7.722   5.369
49476SOL    HW150325   0.482   7.675   5.443
49476SOL    HW250326   0.609   7.745   5.399
49477SOL     OW50327  14.742   3.485  14.429
49477SOL    HW150328  14.658   3.530  14.418
49477SOL    HW250329  14.743   3.421  14.357
49478SOL     OW50330   0.897  11.338   9.930
49478SOL    HW150331   0.963  11.406   9.916
49478SOL    HW250332   0.897  11.323  10.024
49479SOL     OW50333  14.370   3.380   9.118
49479SOL    HW150334  14.304   3.443   9.089
49479SOL    HW250335  14.446   3.399   9.063
49480SOL     OW50336   7.250   7.323   2.778
49480SOL    HW150337   7.275   7.394   2.719
49480SOL    HW250338   7.304   7.336   2.856
49481SOL     OW50339   6.492  14.036   5.153
49481SOL    HW150340   6.530  14.100   5.213
49481SOL    HW250341   6.516  14.067   5.066
49482SOL     OW50342  13.898   1.994  11.730
49482SOL    HW150343  13.889   2.029  11.819
49482SOL    HW250344  13.913   2.071  11.676
49483SOL     OW50345   7.386  13.049  10.971
49483SOL    HW150346   7.319  13.065  10.904
49483SOL    HW250347   7.459  13.105  10.945
49484SOL     OW50348   5.623  11.151   4.503
49484SOL    HW150349   5.552  11.163   4.566
49484SOL    HW250350   5.681  11.087   4.544
49485SOL     OW50351   3.861   3.709   4.803
49485SOL    HW150352   3.788   3.717   4.865
49485SOL    HW250353   3.826   3.743   4.721
49486SOL     OW50354   9.725   0.058   1.901
49486SOL    HW150355   9.753   0.038   1.812
49486SOL    HW250356   9.711  14.843   1.943
49487SOL     OW50357   2.636   7.986   2.756
49487SOL    HW150358   2.685   7.950   2.681
49487SOL    HW250359   2.614   7.910   2.809
49488SOL     OW50360   4.451   7.133   5.793
49488SOL    HW150361   4.537   7.121   5.832
49488SOL    HW250362   4.390   7.123   5.866
49489SOL     OW50363   1.943   9.714   3.561
49489SOL    HW150364   1.916   9.739   3.649
49489SOL    HW250365   1.984   9.629   3.572
49490SOL     OW50366   4.289  13.469   7.057
49490SOL    HW150367   4.203  13.427   7.072
49490SOL    HW250368   4.275  13.527   6.983
49491SOL     OW50369   6.999  11.731   6.457
49491SOL    HW150370   6.997  11.806   6.516
49491SOL    HW250371   7.081  11.686   6.478
49492SOL     OW50372   8.327   7.971   5.213
49492SOL    HW150373   8.308   8.010   5.128
49492SOL    HW250374   8.241   7.942   5.246
49493SOL     OW50375  10.032   0.858  10.900
49493SOL    HW150376   9.948   0.811  10.897
49493SOL    HW250377  10.059   0.853  10.992
49494SOL     OW50378   5.126  13.044  10.411
49494SOL    HW150379   5.030  13.041  10.420
49494SOL    HW250380   5.154  12.954  10.429
49495SOL     OW50381   8.929   1.368  11.961
49495SOL    HW150382   9.010   1.417  11.966
49495SOL    HW250383   8.863   1.433  11.937
49496SOL     OW50384   2.973   4.524   7.073
49496SOL    HW150385   3.005   4.482   6.994
49496SOL    HW250386   2.905   4.464   7.106
49497SOL     OW50387   6.124   8.913   3.808
49497SOL    HW150388   6.159   8.994   3.770
49497SOL    HW250389   6.141   8.922   3.902
49498SOL     OW50390   9.913  11.020   7.942
49498SOL    HW150391   9.963  11.090   7.900
49498SOL    HW250392   9.942  11.021   8.034
49499SOL     OW50393   4.953   7.575   5.066
49499SOL    HW150394   5.033   7.615   5.100
49499SOL    HW250395   4.904   7.550   5.144
49500SOL     OW50396   4.950  10.011   0.344
49500SOL    HW150397   4.907   9.969   0.270
49500SOL    HW250398   5.015  10.069   0.304
49501SOL     OW50399   2.577   3.161  11.709
49501SOL    HW150400   2.623   3.081  11.734
49501SOL    HW250401   2.516   3.133  11.641
49502SOL     OW50402   2.050   2.120   6.563
49502SOL    HW150403   2.029   2.117   6.656
49502SOL    HW250404   2.114   2.191   6.555
49503SOL     OW50405  11.705  14.341   6.694
49503SOL    HW150406  11.691  14.269   6.756
49503SOL    HW250407  11.663  14.417   6.734
49504SOL     OW50408   7.760   3.067  14.379
49504SOL    HW150409   7.716   3.032  14.301
49504SOL    HW250410   7.774   2.990  14.434
49505SOL     OW50411  12.377  10.438  11.240
49505SOL    HW150412  12.353  10.405  11.327
49505SOL    HW250413  12.317  10.395  11.180
49506SOL     OW50414  12.356  11.745   5.908
49506SOL    HW150415  12.419  11.768   5.840
49506SOL    HW250416  12.371  11.809   5.977
49507SOL     OW50417   1.088  14.719   4.320
49507SOL    HW150418   1.081  14.774   4.398
49507SOL    HW250419   1.101  14.631   4.355
49508SOL     OW50420   4.025  14.642   6.869
49508SOL    HW150421   4.014  14.602   6.956
49508SOL    HW250422   4.118  14.628   6.848
49509SOL     OW50423  11.807   8.440  12.386
49509SOL    HW150424  11.819   8.387  12.307
49509SOL    HW250425  11.836   8.383  12.458
49510SOL     OW50426  12.607   8.148   2.993
49510SOL    HW150427  12.556   8.167   3.072
49510SOL    HW250428  12.541   8.132   2.925
49511SOL     OW50429   3.931   7.715  12.857
49511SOL    HW150430   3.983   7.675  12.926
49511SOL    HW250431   3.970   7.801  12.843
49512SOL     OW50432  10.183  10.048   1.873
49512SOL    HW150433  10.258   9.993   1.849
49512SOL    HW250434  10.206  10.135   1.842
49513SOL     OW50435   8.344   3.252   7.459
49513SOL    HW150436   8.425   3.249   7.510
49513SOL    HW250437   8.345   3.338   7.417
49514SOL     OW50438  12.795   3.174   9.658
49514SOL    HW150439  12.833   3.257   9.686
49514SOL    HW250440  12.710   3.170   9.703
49515SOL     OW50441   3.081  11.598   7.284
49515SOL    HW150442   3.101  11.507   7.260
49515SOL    HW250443   3.131  11.651   7.222
49516SOL     OW50444   7.306   8.447  11.401
49516SOL    HW150445   7.374   8.503  11.363
49516SOL    HW250446   7.352   8.394  11.466
49517SOL     OW50447  14.315  12.919   4.110
49517SOL    HW150448  14.399  12.963   4.118
49517SOL    HW250449  14.255  12.971   4.164
49518SOL     OW50450  12.425   2.298   8.896
49518SOL    HW150451  12.495   2.340   8.846
49518SOL    HW250452  12.440   2.204   8.884
49519SOL     OW50453   7.601   9.833  10.034
49519SOL    HW150454   7.547   9.907  10.060
49519SOL    HW250455   7.538   9.766  10.007
49520SOL     OW50456   0.709   4.452   2.394
49520SOL    HW150457   0.668   4.407   2.320
49520SOL    HW250458   0.797   4.414   2.399
49521SOL     OW50459   8.763  14.422   0.348
49521SOL    HW150460   8.842  14.443   0.297
49521SOL    HW250461   8.786  14.442   0.438
49522SOL     OW50462   9.845  12.225  12.791
49522SOL    HW150463   9.853  12.243  12.697
49522SOL    HW250464   9.863  12.309  12.833
49523SOL     OW50465   3.446  12.670   7.797
49523SOL    HW150466   3.506  12.596   7.784
49523SOL    HW250467   3.416  12.660   7.887
49524SOL     OW50468   7.973  10.925   3.594
49524SOL    HW150469   7.879  10.918   3.609
49524SOL    HW250470   8.013  10.875   3.666
49525SOL     OW50471   7.314  10.742  10.032
49525SOL    HW150472   7.380  10.768   9.968
49525SOL    HW250473   7.231  10.770   9.994
49526SOL     OW50474  10.832   1.718  11.039
49526SOL    HW150475  10.904   1.677  10.991
49526SOL    HW250476  10.821   1.803  10.998
49527SOL     OW50477  13.257   8.436  11.976
49527SOL    HW150478  13.229   8.344  11.982
49527SOL    HW250479  13.214   8.479  12.049
49528SOL     OW50480  14.335   7.169   1.060
49528SOL    HW150481  14.253   7.134   1.096
49528SOL    HW250482  14.404   7.129   1.112
49529SOL     OW50483   1.417   8.123   7.788
49529SOL    HW150484   1.437   8.032   7.807
49529SOL    HW250485   1.336   8.140   7.835
49530SOL     OW50486   5.016   1.499   1.476
49530SOL    HW150487   5.099   1.479   1.519
49530SOL    HW250488   4.959   1.529   1.546
49531SOL     OW50489   2.805  10.835  11.871
49531SOL    HW150490   2.896  10.857  11.890
49531SOL    HW250491   2.780  10.893  11.800
49532SOL     OW50492   3.017   9.745   8.346
49532SOL    HW150493   2.966   9.711   8.272
49532SOL    HW250494   2.996   9.838   8.348
49533SOL     OW50495   7.834   0.610   0.181
49533SOL    HW150496   7.872   0.559   0.110
49533SOL    HW250497   7.833   0.550   0.256
49534SOL     OW50498   7.489   1.339  10.912
49534SOL    HW150499   7.547   1.263  10.904
49534SOL    HW250500   7.507   1.391  10.834
49535SOL     OW50501  10.603   0.619  13.840
49535SOL    HW150502  10.532   0.590  13.897
49535SOL    HW250503  10.651   0.538  13.818
49536SOL     OW50504   0.733   7.466   2.244
49536SOL    HW150505   0.763   7.550   2.210
49536SOL    HW250506   0.789   7.449   2.320
49537SOL     OW50507   5.465  11.184  11.183
49537SOL    HW150508   5.494  11.255  11.126
49537SOL    HW250509   5.444  11.112  11.124
49538SOL     OW50510  11.850  12.929   2.391
49538SOL    HW150511  11.816  12.909   2.304
49538SOL    HW250512  11.861  13.024   2.391
49539SOL     OW50513   1.502   1.514   3.164
49539SOL    HW150514   1.556   1.497   3.242
49539SOL    HW250515   1.564   1.514   3.092
49540SOL     OW50516  10.699   7.084  14.560
49540SOL    HW150517  10.758   7.092  14.635
49540SOL    HW250518  10.677   6.991  14.556
49541SOL     OW50519   4.114  12.240   8.908
49541SOL    HW150520   4.116  12.172   8.841
49541SOL    HW250521   4.139  12.195   8.988
49542SOL     OW50522  12.739   5.556   0.786
49542SOL    HW150523  12.711   5.506   0.710
49542SOL    HW250524  12.738   5.493   0.858
49543SOL     OW50525   9.327   5.883   0.444
49543SOL    HW150526   9.385   5.952   0.413
49543SOL    HW250527   9.367   5.802   0.413
49544SOL     OW50528   5.385   0.722  14.358
49544SOL    HW150529   5.405   0.632  14.382
49544SOL    HW250530   5.443   0.775  14.413
49545SOL     OW50531   7.812   9.972  13.676
49545SOL    HW150532   7.878   9.904  13.689
49545SOL    HW250533   7.860  10.047  13.643
49546SOL     OW50534   0.223  14.032   2.643
49546SOL    HW150535   0.182  14.004   2.561
49546SOL    HW250536   0.310  13.992   2.641
49547SOL     OW50537  10.802   1.291   5.070
49547SOL    HW150538  10.805   1.385   5.053
49547SOL    HW250539  10.711   1.273   5.093
49548SOL     OW50540   1.814   2.777   1.429
49548SOL    HW150541   1.731   2.745   1.466
49548SOL    HW250542   1.880   2.752   1.494
49549SOL     OW50543  12.143   7.451  14.085
49549SOL    HW150544  12.197   7.436  14.162
49549SOL    HW250545  12.113   7.364  14.059
49550SOL     OW50546   1.037   9.605   0.770
49550SOL    HW150547   1.028   9.698   0.791
49550SOL    HW250548   1.095   9.571   0.838
49551SOL     OW50549   6.113   6.177  14.450
49551SOL    HW150550   6.093   6.084  14.444
49551SOL    HW250551   6.191   6.189  14.395
49552SOL     OW50552   3.124   5.590   7.791
49552SOL    HW150553   3.179   5.650   7.842
49552SOL    HW250554   3.090   5.643   7.720
49553SOL     OW50555   4.466   3.977   8.273
49553SOL    HW150556   4.390   4.017   8.317
49553SOL    HW250557   4.451   3.883   8.280
49554SOL     OW50558  10.530   4.079   5.030
49554SOL    HW150559  10.582   4.104   5.107
49554SOL    HW250560  10.570   3.997   5.001
49555SOL     OW50561   2.598   2.069   7.640
49555SOL    HW150562   2.547   2.042   7.563
49555SOL    HW250563   2.620   2.161   7.624
49556SOL     OW50564   4.038   4.342   6.567
49556SOL    HW150565   4.001   4.348   6.655
49556SOL    HW250566   4.025   4.251   6.542
49557SOL     OW50567  13.669   1.595  11.006
49557SOL    HW150568  13.604   1.533  10.974
49557SOL    HW250569  13.750   1.570  10.962
49558SOL     OW50570   6.503  11.263   8.019
49558SOL    HW150571   6.478  11.352   8.043
49558SOL    HW250572   6.495  11.260   7.924
49559SOL     OW50573  12.513   7.471  12.885
49559SOL    HW150574  12.418   7.460  12.882
49559SOL    HW250575  12.527   7.543  12.947
49560SOL     OW50576   7.443  13.836   6.553
49560SOL    HW150577   7.411  13.782   6.625
49560SOL    HW250578   7.384  13.818   6.480
49561SOL     OW50579   2.923  13.101   4.345
49561SOL    HW150580   2.921  13.197   4.338
49561SOL    HW250581   2.938  13.071   4.256
49562SOL     OW50582  11.622   3.324  12.224
49562SOL    HW150583  11.589   3.286  12.306
49562SOL    HW250584  11.637   3.249  12.167
49563SOL     OW50585   5.000   2.055   8.742
49563SOL    HW150586   4.907   2.045   8.765
49563SOL    HW250587   5.014   1.992   8.671
49564SOL     OW50588   9.677  11.649   1.840
49564SOL    HW150589   9.625  11.613   1.769
49564SOL    HW250590   9.661  11.743   1.837
49565SOL     OW50591   9.924   1.185  13.442
49565SOL    HW150592  10.000   1.216  13.492
49565SOL    HW250593   9.855   1.177  13.508
49566SOL     OW50594   8.526   9.499   5.549
49566SOL    HW150595   8.529   9.593   5.564
49566SOL    HW250596   8.617   9.470   5.559
49567SOL     OW50597  10.176   8.667   7.714
49567SOL    HW150598  10.108   8.600   7.711
49567SOL    HW250599  10.246   8.628   7.768
49568SOL     OW50600   3.634   7.492   9.424
49568SOL    HW150601   3.680   7.561   9.376
49568SOL    HW250602   3.697   7.419   9.427
49569SOL     OW50603   2.823   9.381   3.994
49569SOL    HW150604   2.791   9.461   4.036
49569SOL    HW250605   2.773   9.376   3.913
49570SOL     OW50606  11.862   2.888   2.597
49570SOL    HW150607  11.810   2.941   2.658
49570SOL    HW250608  11.823   2.907   2.511
49571SOL     OW50609  11.133   7.987   6.009
49571SOL    HW150610  11.099   8.077   6.014
49571SOL    HW250611  11.093   7.950   5.931
49572SOL     OW50612   8.755   7.632   5.834
49572SOL    HW150613   8.712   7.682   5.765
49572SOL    HW250614   8.774   7.697   5.902
49573SOL     OW50615  10.719   1.915   7.787
49573SOL    HW150616  10.672   1.973   7.728
49573SOL    HW250617  10.799   1.963   7.809
49574SOL     OW50618   6.112  10.049   1.060
49574SOL    HW150619   6.174  10.011   0.997
49574SOL    HW250620   6.032   9.997   1.049
49575SOL     OW50621   4.615   5.264   8.896
49575SOL    HW150622   4.615   5.254   8.800
49575SOL    HW250623   4.669   5.191   8.927
49576SOL     OW50624  14.826  12.225   8.139
49576SOL    HW150625   0.019  12.259   8.075
49576SOL    HW250626  14.768  12.298   8.157
49577SOL     OW50627   3.807   1.643  14.277
49577SOL    HW150628   3.896   1.638  14.312
49577SOL    HW250629   3.803   1.572  14.212
49578SOL     OW50630   2.346   8.986  11.894
49578SOL    HW150631   2.411   8.934  11.940
49578SOL    HW250632   2.394   9.028  11.822
49579SOL     OW50633  11.714   5.971  13.349
49579SOL    HW150634  11.715   6.027  13.426
49579SOL    HW250635  11.650   5.903  13.370
49580SOL     OW50636   2.519   6.990   9.248
49580SOL    HW150637   2.489   7.000   9.158
49580SOL    HW250638   2.485   7.067   9.293
49581SOL     OW50639   2.820  13.786   3.561
49581SOL    HW150640   2.832  13.770   3.468
49581SOL    HW250641   2.759  13.719   3.590
49582SOL     OW50642   4.302  12.602  10.335
49582SOL    HW150643   4.252  12.568  10.261
49582SOL    HW250644   4.283  12.542  10.407
49583SOL     OW50645   1.208   2.198   6.268
49583SOL    HW150646   1.283   2.255   6.249
49583SOL    HW250647   1.138   2.229   6.211
49584SOL     OW50648  14.311  11.038   0.313
49584SOL    HW150649  14.309  11.108   0.378
49584SOL    HW250650  14.223  11.000   0.316
49585SOL     OW50651   2.266   2.236   1.044
49585SOL    HW150652   2.314   2.319   1.044
49585SOL    HW250653   2.225   2.232   1.131
49586SOL     OW50654   0.950  11.682  11.732
49586SOL    HW150655   0.897  11.602  11.736
49586SOL    HW250656   0.930  11.719  11.646
49587SOL     OW50657   0.659  13.346   3.118
49587SOL    HW150658   0.593  13.324   3.185
49587SOL    HW250659   0.608  13.383   3.046
49588SOL     OW50660  11.257  12.528   4.729
49588SOL    HW150661  11.250  12.471   4.653
49588SOL    HW250662  11.229  12.474   4.803
49589SOL     OW50663   0.530   1.331   1.200
49589SOL    HW150664   0.549   1.323   1.107
49589SOL    HW250665   0.507   1.423   1.212
49590SOL     OW50666   0.053  14.117  11.403
49590SOL    HW150667   0.031  14.023  11.403
49590SOL    HW250668  14.853  14.157  11.351
49591SOL     OW50669   4.874   9.817   6.513
49591SOL    HW150670   4.945   9.779   6.564
49591SOL    HW250671   4.870   9.908   6.541
49592SOL     OW50672   8.837  11.979   6.864
49592SOL    HW150673   8.844  12.065   6.906
49592SOL    HW250674   8.853  11.997   6.771
49593SOL     OW50675  14.073   3.751  11.863
49593SOL    HW150676  14.057   3.698  11.785
49593SOL    HW250677  14.001   3.813  11.865
49594SOL     OW50678   6.555   2.260  11.877
49594SOL    HW150679   6.624   2.194  11.886
49594SOL    HW250680   6.601   2.338  11.847
49595SOL     OW50681  12.802   4.109  10.144
49595SOL    HW150682  12.823   4.102  10.051
49595SOL    HW250683  12.885   4.095  10.189
49596SOL     OW50684   8.103   8.918  10.131
49596SOL    HW150685   8.170   8.985  10.117
49596SOL    HW250686   8.151   8.835  10.124
49597SOL     OW50687   9.448   2.254  13.023
49597SOL    HW150688   9.504   2.181  13.052
49597SOL    HW250689   9.503   2.303  12.961
49598SOL     OW50690   8.334   2.638   7.350
49598SOL    HW150691   8.400   2.570   7.337
49598SOL    HW250692   8.348   2.667   7.440
49599SOL     OW50693  14.804   0.633   6.865
49599SOL    HW150694  14.757   0.699   6.813
49599SOL    HW250695  14.753   0.624   6.945
49600SOL     OW50696   0.427   4.892   5.424
49600SOL    HW150697   0.503   4.862   5.474
49600SOL    HW250698   0.388   4.812   5.389
49601SOL     OW50699   4.300   3.222   7.919
49601SOL    HW150700   4.224   3.164   7.912
49601SOL    HW250701   4.333   3.209   8.007
49602SOL     OW50702  12.947   3.297  13.424
49602SOL    HW150703  13.002   3.298  13.503
49602SOL    HW250704  13.006   3.326  13.355
49603SOL     OW50705   9.728  13.821  13.448
49603SOL    HW150706   9.758  13.847  13.535
49603SOL    HW250707   9.639  13.856  13.442
49604SOL     OW50708   0.439   2.613   8.510
49604SOL    HW150709   0.364   2.568   8.472
49604SOL    HW250710   0.412   2.704   8.518
49605SOL     OW50711   1.783   7.753   6.757
49605SOL    HW150712   1.740   7.762   6.671
49605SOL    HW250713   1.876   7.742   6.736
49606SOL     OW50714   3.355  14.122   2.221
49606SOL    HW150715   3.435  14.134   2.170
49606SOL    HW250716   3.305  14.056   2.173
49607SOL     OW50717   4.515   5.419  11.130
49607SOL    HW150718   4.524   5.460  11.216
49607SOL    HW250719   4.494   5.327  11.149
49608SOL     OW50720   6.048  11.074   7.974
49608SOL    HW150721   5.996  11.033   8.043
49608SOL    HW250722   6.095  11.002   7.933
49609SOL     OW50723  14.486   4.084   8.196
49609SOL    HW150724  14.568   4.061   8.152
49609SOL    HW250725  14.462   4.169   8.158
49610SOL     OW50726  12.080  10.185   0.523
49610SOL    HW150727  12.130  10.262   0.551
49610SOL    HW250728  12.042  10.150   0.603
49611SOL     OW50729  13.144  10.256  10.855
49611SOL    HW150730  13.218  10.265  10.916
49611SOL    HW250731  13.178  10.199  10.785
49612SOL     OW50732   7.424   8.626  11.744
49612SOL    HW150733   7.496   8.637  11.681
49612SOL    HW250734   7.346   8.652  11.694
49613SOL     OW50735   2.720  10.314   8.044
49613SOL    HW150736   2.730  10.408   8.025
49613SOL    HW250737   2.695  10.310   8.136
49614SOL     OW50738   5.866   9.316  10.651
49614SOL    HW150739   5.872   9.409  10.672
49614SOL    HW250740   5.844   9.314  10.557
49615SOL     OW50741   6.429  14.047   7.755
49615SOL    HW150742   6.437  14.141   7.738
49615SOL    HW250743   6.413  14.040   7.849
49616SOL     OW50744  12.351   9.028   2.900
49616SOL    HW150745  12.346   9.096   2.968
49616SOL    HW250746  12.371   9.076   2.820
49617SOL     OW50747   2.355   3.196  12.682
49617SOL    HW150748   2.334   3.289  12.687
49617SOL    HW250749   2.449   3.193  12.661
49618SOL     OW50750  11.186   0.290  14.528
49618SOL    HW150751  11.280   0.289  14.512
49618SOL    HW250752  11.147   0.256  14.448
49619SOL     OW50753   0.697   2.745  11.742
49619SOL    HW150754   0.707   2.688  11.819
49619SOL    HW250755   0.602   2.755  11.733
49620SOL     OW50756   9.516   0.609   0.407
49620SOL    HW150757   9.610   0.595   0.407
49620SOL    HW250758   9.485   0.566   0.327
49621SOL     OW50759  11.845   5.925   7.178
49621SOL    HW150760  11.876   5.971   7.257
49621SOL    HW250761  11.845   5.992   7.110
49622SOL     OW50762   3.537   5.436  14.305
49622SOL    HW150763   3.572   5.349  14.290
49622SOL    HW250764   3.563   5.458  14.395
49623SOL     OW50765  11.193   1.362  11.258
49623SOL    HW150766  11.158   1.436  11.308
49623SOL    HW250767  11.277   1.394  11.224
49624SOL     OW50768  12.834  11.631   0.394
49624SOL    HW150769  12.918  11.603   0.358
49624SOL    HW250770  12.768  11.585   0.342
49625SOL     OW50771   2.269   5.215   6.182
49625SOL    HW150772   2.229   5.245   6.100
49625SOL    HW250773   2.217   5.138   6.207
49626SOL     OW50774   6.825   1.048   9.350
49626SOL    HW150775   6.750   0.994   9.373
49626SOL    HW250776   6.798   1.137   9.375
49627SOL     OW50777   3.489  10.705  12.224
49627SOL    HW150778   3.489  10.795  12.258
49627SOL    HW250779   3.579  10.691  12.194
49628SOL     OW50780  14.506   9.842  14.708
49628SOL    HW150781  14.565   9.917  14.696
49628SOL    HW250782  14.477   9.820  14.620
49629SOL     OW50783   6.752   2.566   5.003
49629SOL    HW150784   6.704   2.488   4.976
49629SOL    HW250785   6.688   2.637   4.998
49630SOL     OW50786   3.384  14.819   8.886
49630SOL    HW150787   3.320   0.014   8.858
49630SOL    HW250788   3.376  14.748   8.821
49631SOL     OW50789   6.397  14.123  10.225
49631SOL    HW150790   6.409  14.091  10.315
49631SOL    HW250791   6.317  14.079  10.195
49632SOL     OW50792   3.018   4.744  11.038
49632SOL    HW150793   2.987   4.822  11.084
49632SOL    HW250794   3.107   4.768  11.009
49633SOL     OW50795   9.206   0.851   0.350
49633SOL    HW150796   9.291   0.881   0.381
49633SOL    HW250797   9.182   0.913   0.282
49634SOL     OW50798  11.760   8.006  13.831
49634SOL    HW150799  11.682   7.951  13.833
49634SOL    HW250800  11.761   8.049  13.917
49635SOL     OW50801   1.700   5.095   5.728
49635SOL    HW150802   1.666   5.161   5.668
49635SOL    HW250803   1.634   5.025   5.726
49636SOL     OW50804   1.929  13.304   7.387
49636SOL    HW150805   1.835  13.320   7.383
49636SOL    HW250806   1.949  13.299   7.480
49637SOL     OW50807  12.712   0.735   5.703
49637SOL    HW150808  12.791   0.683   5.713
49637SOL    HW250809  12.703   0.748   5.609
49638SOL     OW50810  10.841  10.478  12.633
49638SOL    HW150811  10.756  10.508  12.599
49638SOL    HW250812  10.878  10.555  12.676
49639SOL     OW50813   7.721   6.753   6.892
49639SOL    HW150814   7.650   6.791   6.840
49639SOL    HW250815   7.795   6.747   6.831
49640SOL     OW50816   6.245  11.157   5.368
49640SOL    HW150817   6.250  11.086   5.432
49640SOL    HW250818   6.154  11.185   5.370
49641SOL     OW50819  11.254   7.657  13.628
49641SOL    HW150820  11.215   7.729  13.578
49641SOL    HW250821  11.239   7.680  13.719
49642SOL     OW50822   0.986   3.878   6.927
49642SOL    HW150823   0.905   3.867   6.976
49642SOL    HW250824   0.977   3.819   6.852
49643SOL     OW50825  10.654   8.492   5.669
49643SOL    HW150826  10.724   8.449   5.719
49643SOL    HW250827  10.575   8.479   5.723
49644SOL     OW50828  11.312  14.476  11.123
49644SOL    HW150829  11.218  14.456  11.117
49644SOL    HW250830  11.351  14.396  11.159
49645SOL     OW50831  11.216   8.509   2.928
49645SOL    HW150832  11.308   8.482   2.924
49645SOL    HW250833  11.187   8.511   2.836
49646SOL     OW50834   9.026   0.967  12.127
49646SOL    HW150835   9.064   1.038  12.075
49646SOL    HW250836   9.024   1.000  12.217
49647SOL     OW50837   3.487  13.817   9.080
49647SOL    HW150838   3.472  13.814   9.175
49647SOL    HW250839   3.410  13.775   9.042
49648SOL     OW50840   5.983   1.459   6.498
49648SOL    HW150841   5.995   1.380   6.446
49648SOL    HW250842   5.979   1.428   6.589
49649SOL     OW50843  11.904   1.491   4.556
49649SOL    HW150844  11.992   1.527   4.563
49649SOL    HW250845  11.878   1.472   4.646
49650SOL     OW50846  11.758  11.396  12.272
49650SOL    HW150847  11.732  11.383  12.363
49650SOL    HW250848  11.829  11.459  12.275
49651SOL     OW50849  12.334   6.196  12.285
49651SOL    HW150850  12.381   6.184  12.202
49651SOL    HW250851  12.333   6.108  12.324
49652SOL     OW50852  12.367   7.338   9.882
49652SOL    HW150853  12.413   7.414   9.848
49652SOL    HW250854  12.276   7.368   9.893
49653SOL     OW50855  13.274  10.967  10.177
49653SOL    HW150856  13.324  10.998  10.102
49653SOL    HW250857  13.316  10.885  10.202
49654SOL     OW50858   9.059  10.549   5.708
49654SOL    HW150859   8.990  10.489   5.678
49654SOL    HW250860   9.082  10.517   5.795
49655SOL     OW50861   5.919   5.911   2.270
49655SOL    HW150862   5.997   5.957   2.240
49655SOL    HW250863   5.888   5.963   2.344
49656SOL     OW50864   4.716  14.542   8.237
49656SOL    HW150865   4.686  14.497   8.158
49656SOL    HW250866   4.767  14.616   8.204
49657SOL     OW50867  10.186   6.905   1.334
49657SOL    HW150868  10.221   6.890   1.246
49657SOL    HW250869  10.231   6.985   1.364
49658SOL     OW50870   8.242   9.465   8.876
49658SOL    HW150871   8.237   9.470   8.971
49658SOL    HW250872   8.187   9.391   8.852
49659SOL     OW50873   2.831  14.393   0.736
49659SOL    HW150874   2.786  14.323   0.782
49659SOL    HW250875   2.877  14.349   0.665
49660SOL     OW50876   8.022   2.338   7.371
49660SOL    HW150877   7.998   2.348   7.279
49660SOL    HW250878   8.112   2.307   7.369
49661SOL     OW50879   3.684   0.196  14.676
49661SOL    HW150880   3.597   0.170  14.708
49661SOL    HW250881   3.727   0.114  14.653
49662SOL     OW50882   2.553  14.617   9.526
49662SOL    HW150883   2.480  14.606   9.587
49662SOL    HW250884   2.541  14.705   9.490
49663SOL     OW50885   5.076   6.765   2.935
49663SOL    HW150886   5.079   6.717   3.018
49663SOL    HW250887   4.985   6.760   2.908
49664SOL     OW50888   7.540  13.969  11.031
49664SOL    HW150889   7.550  13.899  10.967
49664SOL    HW250890   7.446  13.973  11.048
49665SOL     OW50891  11.248  12.739  11.898
49665SOL    HW150892  11.192  12.696  11.834
49665SOL    HW250893  11.191  12.757  11.973
49666SOL     OW50894   2.116  13.115  13.477
49666SOL    HW150895   2.169  13.043  13.444
49666SOL    HW250896   2.179  13.185  13.497
49667SOL     OW50897  13.735  11.127   8.261
49667SOL    HW150898  13.770  11.180   8.189
49667SOL    HW250899  13.655  11.173   8.287
49668SOL     OW50900   6.786   9.601  11.586
49668SOL    HW150901   6.781   9.511  11.554
49668SOL    HW250902   6.706   9.643  11.553
49669SOL     OW50903   7.391   9.276   8.071
49669SOL    HW150904   7.401   9.336   7.996
49669SOL    HW250905   7.329   9.210   8.040
49670SOL     OW50906  11.200   2.472  11.919
49670SOL    HW150907  11.170   2.451  11.830
49670SOL    HW250908  11.184   2.391  11.969
49671SOL     OW50909   4.053   6.013   3.799
49671SOL    HW150910   4.106   6.079   3.843
49671SOL    HW250911   3.966   6.023   3.838
49672SOL     OW50912  10.003  13.534   0.781
49672SOL    HW150913   9.952  13.455   0.796
49672SOL    HW250914   9.968  13.570   0.699
49673SOL     OW50915   4.711   5.007   2.007
49673SOL    HW150916   4.626   4.964   2.006
49673SOL    HW250917   4.763   4.954   2.067
49674SOL     OW50918   1.550  14.403  13.714
49674SOL    HW150919   1.586  14.379  13.799
49674SOL    HW250920   1.506  14.323  13.684
49675SOL     OW50921  14.012   8.578  10.155
49675SOL    HW150922  13.982   8.531  10.077
49675SOL    HW250923  14.053   8.657  10.121
49676SOL     OW50924   3.389  13.419   2.813
49676SOL    HW150925   3.453  13.369   2.864
49676SOL    HW250926   3.345  13.354   2.758
49677SOL     OW50927   0.122  10.968   1.738
49677SOL    HW150928   0.133  10.873   1.738
49677SOL    HW250929   0.114  10.991   1.830
49678SOL     OW50930  10.691   9.198  12.048
49678SOL    HW150931  10.652   9.283  12.066
49678SOL    HW250932  10.620   9.147  12.010
49679SOL     OW50933   1.600   2.830   2.811
49679SOL    HW150934   1.545   2.888   2.863
49679SOL    HW250935   1.539   2.766   2.773
49680SOL     OW50936   4.163   6.561   8.124
49680SOL    HW150937   4.142   6.467   8.121
49680SOL    HW250938   4.102   6.597   8.187
49681SOL     OW50939   9.542   5.525   9.282
49681SOL    HW150940   9.626   5.497   9.246
49681SOL    HW250941   9.526   5.610   9.240
49682SOL     OW50942  11.190   6.291   4.117
49682SOL    HW150943  11.135   6.346   4.172
49682SOL    HW250944  11.138   6.213   4.100
49683SOL     OW50945   0.230   6.398  14.078
49683SOL    HW150946   0.274   6.321  14.116
49683SOL    HW250947   0.258   6.399  13.987
49684SOL     OW50948   9.599  14.656   9.609
49684SOL    HW150949   9.664  14.668   9.679
49684SOL    HW250950   9.521  14.701   9.641
49685SOL     OW50951   3.680   5.298   1.662
49685SOL    HW150952   3.764   5.338   1.638
49685SOL    HW250953   3.649   5.256   1.582
49686SOL     OW50954   5.776   7.580  13.893
49686SOL    HW150955   5.738   7.660  13.929
49686SOL    HW250956   5.790   7.600  13.801
49687SOL     OW50957  11.314   0.177   2.382
49687SOL    HW150958  11.349   0.093   2.413
49687SOL    HW250959  11.319   0.234   2.458
49688SOL     OW50960  13.206  11.717  13.223
49688SOL    HW150961  13.130  11.679  13.265
49688SOL    HW250962  13.211  11.672  13.138
49689SOL     OW50963   6.071   6.803   2.242
49689SOL    HW150964   6.035   6.888   2.265
49689SOL    HW250965   6.110   6.770   2.323
49690SOL     OW50966   9.836   4.645   9.080
49690SOL    HW150967   9.835   4.594   9.161
49690SOL    HW250968   9.744   4.672   9.068
49691SOL     OW50969   8.665  12.771  13.493
49691SOL    HW150970   8.757  12.796  13.484
49691SOL    HW250971   8.650  12.769  13.588
49692SOL     OW50972  13.248   5.721  12.832
49692SOL    HW150973  13.224   5.630  12.850
49692SOL    HW250974  13.187   5.772  12.885
49693SOL     OW50975   6.216   2.570  10.342
49693SOL    HW150976   6.190   2.633  10.409
49693SOL    HW250977   6.140   2.562  10.284
49694SOL     OW50978   8.318   0.710  11.648
49694SOL    HW150979   8.308   0.782  11.710
49694SOL    HW250980   8.412   0.697  11.640
49695SOL     OW50981  12.939  13.397  12.567
49695SOL    HW150982  12.887  13.450  12.628
49695SOL    HW250983  12.895  13.407  12.483
49696SOL     OW50984   3.728  11.853   9.567
49696SOL    HW150985   3.787  11.862   9.643
49696SOL    HW250986   3.707  11.942   9.542
49697SOL     OW50987   2.435  11.848  14.288
49697SOL    HW150988   2.504  11.835  14.223
49697SOL    HW250989   2.360  11.799  14.253
49698SOL     OW50990   1.080  14.805   3.103
49698SOL    HW150991   1.154  14.827   3.046
49698SOL    HW250992   1.020   0.009   3.094
49699SOL     OW50993  11.919  12.572   9.521
49699SOL    HW150994  11.851  12.509   9.498
49699SOL    HW250995  11.998  12.519   9.534
49700SOL     OW50996  11.716  13.375  10.320
49700SOL    HW150997  11.630  13.416  10.332
49700SOL    HW250998  11.713  13.336  10.233
49701SOL     OW50999  12.780  12.877  14.612
49701SOL    HW151000  12.854  12.937  14.612
49701SOL    HW251001  12.728  12.902  14.689
49702SOL     OW51002   7.780   3.763   3.323
49702SOL    HW151003   7.787   3.859   3.318
49702SOL    HW251004   7.815   3.742   3.409
49703SOL     OW51005  13.840   5.136   9.539
49703SOL    HW151006  13.824   5.226   9.568
49703SOL    HW251007  13.860   5.144   9.445
49704SOL     OW51008  12.773   9.174   6.804
49704SOL    HW151009  12.865   9.203   6.809
49704SOL    HW251010  12.777   9.091   6.756
49705SOL     OW51011  12.737  13.987  11.270
49705SOL    HW151012  12.709  14.067  11.226
49705SOL    HW251013  12.827  14.005  11.297
49706SOL     OW51014   3.262   9.940   1.761
49706SOL    HW151015   3.331   9.890   1.804
49706SOL    HW251016   3.184   9.921   1.812
49707SOL     OW51017   8.279   2.998   1.617
49707SOL    HW151018   8.285   3.047   1.699
49707SOL    HW251019   8.298   2.907   1.641
49708SOL     OW51020  10.119  14.161  13.739
49708SOL    HW151021  10.134  14.212  13.819
49708SOL    HW251022  10.024  14.161  13.729
49709SOL     OW51023  12.829   3.162   6.160
49709SOL    HW151024  12.881   3.175   6.240
49709SOL    HW251025  12.748   3.209   6.176
49710SOL     OW51026   3.445   9.360   3.073
49710SOL    HW151027   3.400   9.336   2.992
49710SOL    HW251028   3.461   9.454   3.063
49711SOL     OW51029  14.578   3.505   6.555
49711SOL    HW151030  14.572   3.491   6.650
49711SOL    HW251031  14.577   3.417   6.518
49712SOL     OW51032   4.394   1.076  12.851
49712SOL    HW151033   4.379   1.031  12.768
49712SOL    HW251034   4.348   1.024  12.916
49713SOL     OW51035   8.878   0.743   0.296
49713SOL    HW151036   8.887   0.834   0.324
49713SOL    HW251037   8.891   0.745   0.202
49714SOL     OW51038  11.061   5.655  10.243
49714SOL    HW151039  11.007   5.582  10.212
49714SOL    HW251040  11.149   5.635  10.208
49715SOL     OW51041   3.683   5.758  10.568
49715SOL    HW151042   3.706   5.679  10.618
49715SOL    HW251043   3.661   5.726  10.481
49716SOL     OW51044  12.652   4.084  13.339
49716SOL    HW151045  12.700   4.143  13.281
49716SOL    HW251046  12.700   4.001  13.334
49717SOL     OW51047   5.738  12.015   4.192
49717SOL    HW151048   5.657  12.016   4.142
49717SOL    HW251049   5.804  11.986   4.130
49718SOL     OW51050   3.170   1.181   4.907
49718SOL    HW151051   3.262   1.208   4.899
49718SOL    HW251052   3.162   1.106   4.848
49719SOL     OW51053  14.258   1.108  10.888
49719SOL    HW151054  14.350   1.131  10.903
49719SOL    HW251055  14.262   1.034  10.827
49720SOL     OW51056   3.797  12.645   4.370
49720SOL    HW151057   3.721  12.613   4.419
49720SOL    HW251058   3.819  12.574   4.310
49721SOL     OW51059   4.126   2.448   9.926
49721SOL    HW151060   4.077   2.525   9.895
49721SOL    HW251061   4.088   2.428  10.012
49722SOL     OW51062   1.755   6.536   6.606
49722SOL    HW151063   1.763   6.619   6.653
49722SOL    HW251064   1.665   6.535   6.573
49723SOL     OW51065  10.947  12.743   6.738
49723SOL    HW151066  10.924  12.652   6.758
49723SOL    HW251067  10.863  12.789   6.736
49724SOL     OW51068  10.548  13.371   6.708
49724SOL    HW151069  10.488  13.373   6.782
49724SOL    HW251070  10.553  13.278   6.684
49725SOL     OW51071   5.759   9.001   2.820
49725SOL    HW151072   5.745   8.930   2.757
49725SOL    HW251073   5.796   9.072   2.768
49726SOL     OW51074  12.331   8.263   4.301
49726SOL    HW151075  12.255   8.274   4.357
49726SOL    HW251076  12.318   8.178   4.259
49727SOL     OW51077   1.803  12.126  12.907
49727SOL    HW151078   1.788  12.218  12.885
49727SOL    HW251079   1.805  12.081  12.822
49728SOL     OW51080   7.482   9.515  11.305
49728SOL    HW151081   7.522   9.596  11.275
49728SOL    HW251082   7.483   9.457  11.228
49729SOL     OW51083   3.625   5.889  13.507
49729SOL    HW151084   3.590   5.820  13.450
49729SOL    HW251085   3.552   5.911  13.565
49730SOL     OW51086   4.212   6.101  10.791
49730SOL    HW151087   4.178   6.015  10.764
49730SOL    HW251088   4.262   6.082  10.871
49731SOL     OW51089  12.271   4.837   6.670
49731SOL    HW151090  12.331   4.911   6.679
49731SOL    HW251091  12.318   4.764   6.710
49732SOL     OW51092   0.634   4.614   4.936
49732SOL    HW151093   0.721   4.574   4.935
49732SOL    HW251094   0.626   4.653   5.023
49733SOL     OW51095   7.720  10.179   1.800
49733SOL    HW151096   7.691  10.163   1.710
49733SOL    HW251097   7.705  10.273   1.814
49734SOL     OW51098   4.853   5.294  13.943
49734SOL    HW151099   4.874   5.387  13.954
49734SOL    HW251100   4.827   5.286  13.851
49735SOL     OW51101   7.774  14.778   5.211
49735SOL    HW151102   7.739  14.861   5.178
49735SOL    HW251103   7.865  14.778   5.181
49736SOL     OW51104   9.484  14.498   7.707
49736SOL    HW151105   9.564  14.445   7.701
49736SOL    HW251106   9.417  14.437   7.738
49737SOL     OW51107  12.772  10.798   0.459
49737SOL    HW151108  12.698  10.763   0.510
49737SOL    HW251109  12.740  10.799   0.369
49738SOL     OW51110  13.348  12.451   6.417
49738SOL    HW151111  13.387  12.403   6.491
49738SOL    HW251112  13.423  12.489   6.371
49739SOL     OW51113   6.634   3.025   7.751
49739SOL    HW151114   6.698   2.970   7.706
49739SOL    HW251115   6.549   2.992   7.721
49740SOL     OW51116   2.420  12.070  10.441
49740SOL    HW151117   2.378  12.155  10.456
49740SOL    HW251118   2.364  12.027  10.376
49741SOL     OW51119   7.047   7.785  10.759
49741SOL    HW151120   7.057   7.868  10.806
49741SOL    HW251121   6.954   7.766  10.765
49742SOL     OW51122   6.841   5.991   0.948
49742SOL    HW151123   6.757   6.024   0.979
49742SOL    HW251124   6.895   6.069   0.935
49743SOL     OW51125   9.850  13.530   8.482
49743SOL    HW151126   9.832  13.615   8.440
49743SOL    HW251127   9.784  13.523   8.551
49744SOL     OW51128   0.506   8.477   1.914
49744SOL    HW151129   0.500   8.439   1.826
49744SOL    HW251130   0.569   8.549   1.906
49745SOL     OW51131   5.945  10.047   3.555
49745SOL    HW151132   5.917   9.958   3.576
49745SOL    HW251133   5.912  10.062   3.466
49746SOL     OW51134   6.005   8.011  14.312
49746SOL    HW151135   5.910   8.006  14.324
49746SOL    HW251136   6.032   7.921  14.293
49747SOL     OW51137  11.885   3.359   8.611
49747SOL    HW151138  11.835   3.433   8.576
49747SOL    HW251139  11.818   3.295   8.637
49748SOL     OW51140   3.712  13.079   0.802
49748SOL    HW151141   3.622  13.072   0.770
49748SOL    HW251142   3.717  13.165   0.843
49749SOL     OW51143   9.992   8.056   2.054
49749SOL    HW151144  10.027   8.062   2.143
49749SOL    HW251145  10.068   8.034   1.999
49750SOL     OW51146  12.923  10.632   3.879
49750SOL    HW151147  12.828  10.640   3.865
49750SOL    HW251148  12.960  10.630   3.791
49751SOL     OW51149  10.244   5.109   7.261
49751SOL    HW151150  10.337   5.102   7.241
49751SOL    HW251151  10.207   5.026   7.230
49752SOL     OW51152   2.138   4.458   0.274
49752SOL    HW151153   2.171   4.516   0.342
49752SOL    HW251154   2.107   4.381   0.322
49753SOL     OW51155   9.779   2.807   7.580
49753SOL    HW151156   9.781   2.794   7.486
49753SOL    HW251157   9.696   2.852   7.597
49754SOL     OW51158   0.478   4.877  13.684
49754SOL    HW151159   0.516   4.956  13.645
49754SOL    HW251160   0.384   4.889  13.673
49755SOL     OW51161   7.674   6.402   0.173
49755SOL    HW151162   7.599   6.346   0.153
49755SOL    HW251163   7.639   6.491   0.169
49756SOL     OW51164  12.815   8.551   7.074
49756SOL    HW151165  12.858   8.469   7.100
49756SOL    HW251166  12.726   8.542   7.108
49757SOL     OW51167   1.442   4.610  14.861
49757SOL    HW151168   1.521   4.612  14.806
49757SOL    HW251169   1.412   4.519  14.856
49758SOL     OW51170   3.586  12.137   6.177
49758SOL    HW151171   3.663  12.130   6.233
49758SOL    HW251172   3.524  12.074   6.213
49759SOL     OW51173   3.738   1.818  10.580
49759SOL    HW151174   3.657   1.794  10.534
49759SOL    HW251175   3.774   1.735  10.611
49760SOL     OW51176   2.352  10.902   2.216
49760SOL    HW151177   2.283  10.859   2.266
49760SOL    HW251178   2.395  10.832   2.168
49761SOL     OW51179   2.979  13.416   3.472
49761SOL    HW151180   3.062  13.458   3.449
49761SOL    HW251181   2.982  13.330   3.431
49762SOL     OW51182   7.420   1.424   3.866
49762SOL    HW151183   7.367   1.407   3.788
49762SOL    HW251184   7.489   1.358   3.862
49763SOL     OW51185   1.226  13.064   5.529
49763SOL    HW151186   1.293  13.022   5.583
49763SOL    HW251187   1.270  13.081   5.445
49764SOL     OW51188   6.092  11.855   4.013
49764SOL    HW151189   6.073  11.948   4.021
49764SOL    HW251190   6.018  11.819   3.963
49765SOL     OW51191   6.262   3.348  11.497
49765SOL    HW151192   6.191   3.407  11.520
49765SOL    HW251193   6.251   3.273  11.554
49766SOL     OW51194  12.697   1.857   5.642
49766SOL    HW151195  12.787   1.882   5.623
49766SOL    HW251196  12.704   1.769   5.679
49767SOL     OW51197   5.564   8.851   5.144
49767SOL    HW151198   5.643   8.836   5.092
49767SOL    HW251199   5.540   8.764   5.176
49768SOL     OW51200  13.952  10.418   6.167
49768SOL    HW151201  13.911  10.437   6.251
49768SOL    HW251202  13.923  10.488   6.109
49769SOL     OW51203  12.388  12.278  11.837
49769SOL    HW151204  12.457  12.241  11.781
49769SOL    HW251205  12.426  12.359  11.871
49770SOL     OW51206   4.841   2.022   2.665
49770SOL    HW151207   4.919   1.981   2.628
49770SOL    HW251208   4.770   1.959   2.648
49771SOL     OW51209  11.518  10.350   3.257
49771SOL    HW151210  11.442  10.312   3.301
49771SOL    HW251211  11.542  10.426   3.310
49772SOL     OW51212   7.689   8.474   5.892
49772SOL    HW151213   7.771   8.443   5.930
49772SOL    HW251214   7.716   8.541   5.829
49773SOL     OW51215   7.284   7.948   1.428
49773SOL    HW151216   7.212   8.006   1.404
49773SOL    HW251217   7.242   7.877   1.477
49774SOL     OW51218   5.991  11.089   5.710
49774SOL    HW151219   5.946  11.172   5.694
49774SOL    HW251220   5.938  11.046   5.777
49775SOL     OW51221   3.677   1.428   0.274
49775SOL    HW151222   3.591   1.392   0.251
49775SOL    HW251223   3.683   1.417   0.369
49776SOL     OW51224   7.220   6.963   1.968
49776SOL    HW151225   7.210   6.934   1.877
49776SOL    HW251226   7.134   6.949   2.007
49777SOL     OW51227   0.329  11.785  13.055
49777SOL    HW151228   0.271  11.709  13.056
49777SOL    HW251229   0.374  11.781  12.971
49778SOL     OW51230  14.076   7.593   1.511
49778SOL    HW151231  14.038   7.681   1.514
49778SOL    HW251232  14.028   7.548   1.441
49779SOL     OW51233   6.236   5.290   5.030
49779SOL    HW151234   6.252   5.353   5.101
49779SOL    HW251235   6.305   5.225   5.040
49780SOL     OW51236   7.129  10.019  14.747
49780SOL    HW151237   7.092  10.094  14.792
49780SOL    HW251238   7.193  10.056  14.687
49781SOL     OW51239   1.117   8.179  10.441
49781SOL    HW151240   1.108   8.144  10.530
49781SOL    HW251241   1.062   8.121  10.388
49782SOL     OW51242   4.823   1.088  12.489
49782SOL    HW151243   4.830   1.060  12.398
49782SOL    HW251244   4.764   1.024  12.530
49783SOL     OW51245  12.728   0.322  12.990
49783SOL    HW151246  12.682   0.242  12.964
49783SOL    HW251247  12.804   0.326  12.932
49784SOL     OW51248   1.894  11.242   1.929
49784SOL    HW151249   1.985  11.211   1.926
49784SOL    HW251250   1.888  11.288   2.013
49785SOL     OW51251   2.702   7.063   1.668
49785SOL    HW151252   2.761   7.055   1.744
49785SOL    HW251253   2.720   7.151   1.634
49786SOL     OW51254   1.752  11.484   5.432
49786SOL    HW151255   1.688  11.514   5.367
49786SOL    HW251256   1.835  11.481   5.385
49787SOL     OW51257  10.341   4.977  11.546
49787SOL    HW151258  10.422   5.025  11.561
49787SOL    HW251259  10.366   4.884  11.551
49788SOL     OW51260  11.721   1.691  14.579
49788SOL    HW151261  11.688   1.635  14.509
49788SOL    HW251262  11.757   1.630  14.643
49789SOL     OW51263   7.752   0.095   5.885
49789SOL    HW151264   7.810   0.134   5.950
49789SOL    HW251265   7.705   0.169   5.846
49790SOL     OW51266   5.236   7.840  13.675
49790SOL    HW151267   5.214   7.771  13.612
49790SOL    HW251268   5.170   7.834  13.743
49791SOL     OW51269   1.626   2.242   6.125
49791SOL    HW151270   1.694   2.287   6.176
49791SOL    HW251271   1.675   2.188   6.063
49792SOL     OW51272  12.232   7.808   1.319
49792SOL    HW151273  12.162   7.762   1.365
49792SOL    HW251274  12.242   7.890   1.368
49793SOL     OW51275   9.229  12.599   7.161
49793SOL    HW151276   9.150  12.556   7.128
49793SOL    HW251277   9.261  12.650   7.087
49794SOL     OW51278  10.566   1.534   7.668
49794SOL    HW151279  10.511   1.464   7.632
49794SOL    HW251280  10.576   1.595   7.595
49795SOL     OW51281   5.979  12.266   1.441
49795SOL    HW151282   5.892  12.302   1.455
49795SOL    HW251283   6.031  12.341   1.410
49796SOL     OW51284  14.723   0.721   1.416
49796SOL    HW151285  14.709   0.749   1.325
49796SOL    HW251286  14.658   0.771   1.466
49797SOL     OW51287   6.951  11.332   3.876
49797SOL    HW151288   6.932  11.377   3.958
49797SOL    HW251289   7.009  11.391   3.829
49798SOL     OW51290  13.716   5.052  11.322
49798SOL    HW151291  13.799   5.049  11.275
49798SOL    HW251292  13.732   5.002  11.402
49799SOL     OW51293   9.709   8.406   6.123
49799SOL    HW151294   9.786   8.392   6.068
49799SOL    HW251295   9.635   8.379   6.069
49800SOL     OW51296   7.976   1.528   2.422
49800SOL    HW151297   7.989   1.460   2.355
49800SOL    HW251298   8.063   1.567   2.433
49801SOL     OW51299   3.807   9.031   1.338
49801SOL    HW151300   3.860   8.955   1.360
49801SOL    HW251301   3.868   9.094   1.302
49802SOL     OW51302  10.451   5.295   4.788
49802SOL    HW151303  10.359   5.318   4.799
49802SOL    HW251304  10.495   5.378   4.772
49803SOL     OW51305  14.168   3.944   2.817
49803SOL    HW151306  14.218   3.873   2.777
49803SOL    HW251307  14.221   4.022   2.802
49804SOL     OW51308   5.068  14.126   4.961
49804SOL    HW151309   5.107  14.118   4.874
49804SOL    HW251310   5.137  14.096   5.021
49805SOL     OW51311   5.013   8.856  12.577
49805SOL    HW151312   5.001   8.951  12.573
49805SOL    HW251313   5.050   8.834  12.492
49806SOL     OW51314   4.405  13.635  14.657
49806SOL    HW151315   4.400  13.675  14.744
49806SOL    HW251316   4.404  13.541  14.674
49807SOL     OW51317   4.851  10.665   6.427
49807SOL    HW151318   4.921  10.612   6.463
49807SOL    HW251319   4.771  10.626   6.462
49808SOL     OW51320  13.636   3.087   3.464
49808SOL    HW151321  13.721   3.116   3.428
49808SOL    HW251322  13.653   3.074   3.557
49809SOL     OW51323  12.593  10.486   8.798
49809SOL    HW151324  12.675  10.439   8.785
49809SOL    HW251325  12.558  10.500   8.710
49810SOL     OW51326  13.336  13.168   7.815
49810SOL    HW151327  13.411  13.172   7.756
49810SOL    HW251328  13.273  13.229   7.776
49811SOL     OW51329   7.100   1.036  12.884
49811SOL    HW151330   7.020   0.985  12.877
49811SOL    HW251331   7.091   1.105  12.819
49812SOL     OW51332   1.662   1.369   4.477
49812SOL    HW151333   1.627   1.280   4.477
49812SOL    HW251334   1.757   1.357   4.478
49813SOL     OW51335   8.016  13.710  13.589
49813SOL    HW151336   7.932  13.685  13.552
49813SOL    HW251337   8.030  13.649  13.661
49814SOL     OW51338   7.604   8.862   9.594
49814SOL    HW151339   7.675   8.927   9.594
49814SOL    HW251340   7.610   8.820   9.680
49815SOL     OW51341   5.086   7.783   6.143
49815SOL    HW151342   5.159   7.780   6.081
49815SOL    HW251343   5.112   7.849   6.208
49816SOL     OW51344   3.897   0.731   5.084
49816SOL    HW151345   3.867   0.767   5.167
49816SOL    HW251346   3.986   0.765   5.074
49817SOL     OW51347   0.218   8.255   4.142
49817SOL    HW151348   0.258   8.327   4.093
49817SOL    HW251349   0.280   8.238   4.213
49818SOL     OW51350  13.780  13.757   5.225
49818SOL    HW151351  13.703  13.711   5.191
49818SOL    HW251352  13.850  13.735   5.163
49819SOL     OW51353  11.130  11.739  10.306
49819SOL    HW151354  11.113  11.821  10.260
49819SOL    HW251355  11.160  11.679  10.238
49820SOL     OW51356   9.402  11.768   4.782
49820SOL    HW151357   9.449  11.846   4.813
49820SOL    HW251358   9.469  11.716   4.738
49821SOL     OW51359   1.551   1.230   9.889
49821SOL    HW151360   1.544   1.183   9.972
49821SOL    HW251361   1.637   1.272   9.893
49822SOL     OW51362   1.280   1.115  10.500
49822SOL    HW151363   1.273   1.181  10.569
49822SOL    HW251364   1.371   1.122  10.470
49823SOL     OW51365   2.179   1.578  12.039
49823SOL    HW151366   2.119   1.542  11.974
49823SOL    HW251367   2.177   1.514  12.110
49824SOL     OW51368   4.044   0.643   1.758
49824SOL    HW151369   3.977   0.711   1.766
49824SOL    HW251370   4.127   0.691   1.759
49825SOL     OW51371  13.020   6.877   7.165
49825SOL    HW151372  13.103   6.866   7.118
49825SOL    HW251373  12.954   6.840   7.107
49826SOL     OW51374   8.652   6.328  12.186
49826SOL    HW151375   8.713   6.389  12.144
49826SOL    HW251376   8.567   6.349  12.148
49827SOL     OW51377   1.934   7.614   3.989
49827SOL    HW151378   1.905   7.559   4.062
49827SOL    HW251379   2.016   7.575   3.961
49828SOL     OW51380   5.750   5.028   8.946
49828SOL    HW151381   5.759   4.933   8.936
49828SOL    HW251382   5.834   5.056   8.982
49829SOL     OW51383   2.318  10.001  11.519
49829SOL    HW151384   2.304   9.980  11.612
49829SOL    HW251385   2.347  10.092  11.519
49830SOL     OW51386  13.759   9.348  11.667
49830SOL    HW151387  13.808   9.357  11.749
49830SOL    HW251388  13.675   9.309  11.693
49831SOL     OW51389  10.669   0.353   4.442
49831SOL    HW151390  10.592   0.362   4.385
49831SOL    HW251391  10.642   0.391   4.525
49832SOL     OW51392  10.829  12.859  13.706
49832SOL    HW151393  10.776  12.828  13.780
49832SOL    HW251394  10.796  12.946  13.687
49833SOL     OW51395   4.408   2.932  11.707
49833SOL    HW151396   4.332   2.976  11.746
49833SOL    HW251397   4.468   2.919  11.780
49834SOL     OW51398   4.854  12.620   9.187
49834SOL    HW151399   4.913  12.544   9.181
49834SOL    HW251400   4.775  12.592   9.140
49835SOL     OW51401   7.439   3.264  13.362
49835SOL    HW151402   7.357   3.221  13.387
49835SOL    HW251403   7.442   3.343  13.416
49836SOL     OW51404   7.841  11.256  10.197
49836SOL    HW151405   7.789  11.328  10.232
49836SOL    HW251406   7.850  11.276  10.104
49837SOL     OW51407  14.556   3.437   5.707
49837SOL    HW151408  14.492   3.502   5.735
49837SOL    HW251409  14.640   3.474   5.732
49838SOL     OW51410   0.491   1.442  11.994
49838SOL    HW151411   0.574   1.479  12.023
49838SOL    HW251412   0.512   1.351  11.971
49839SOL     OW51413  13.940   6.168   9.838
49839SOL    HW151414  13.982   6.109   9.774
49839SOL    HW251415  13.903   6.109   9.904
49840SOL     OW51416   2.353   0.848   6.539
49840SOL    HW151417   2.262   0.827   6.517
49840SOL    HW251418   2.381   0.776   6.595
49841SOL     OW51419   9.208   7.760  10.869
49841SOL    HW151420   9.158   7.746  10.949
49841SOL    HW251421   9.280   7.698  10.874
49842SOL     OW51422   9.892   9.568   8.323
49842SOL    HW151423   9.803   9.600   8.337
49842SOL    HW251424   9.931   9.568   8.410
49843SOL     OW51425   5.648   6.983  11.169
49843SOL    HW151426   5.603   7.006  11.251
49843SOL    HW251427   5.673   6.891  11.181
49844SOL     OW51428   8.764  12.350  12.077
49844SOL    HW151429   8.698  12.377  12.012
49844SOL    HW251430   8.713  12.327  12.154
49845SOL     OW51431  12.182   5.579  13.109
49845SOL    HW151432  12.145   5.492  13.124
49845SOL    HW251433  12.112   5.627  13.065
49846SOL     OW51434   1.572   5.753  13.838
49846SOL    HW151435   1.645   5.778  13.781
49846SOL    HW251436   1.613   5.722  13.919
49847SOL     OW51437   2.029   5.773   9.331
49847SOL    HW151438   2.001   5.860   9.358
49847SOL    HW251439   1.948   5.725   9.315
49848SOL     OW51440   1.197   4.616   2.029
49848SOL    HW151441   1.270   4.593   1.971
49848SOL    HW251442   1.119   4.602   1.975
49849SOL     OW51443   2.362  10.553   8.155
49849SOL    HW151444   2.311  10.496   8.098
49849SOL    HW251445   2.434  10.584   8.100
49850SOL     OW51446  10.723   1.718   2.649
49850SOL    HW151447  10.736   1.671   2.567
49850SOL    HW251448  10.788   1.680   2.709
49851SOL     OW51449   7.046   0.236   0.088
49851SOL    HW151450   7.090   0.171   0.032
49851SOL    HW251451   7.104   0.244   0.164
49852SOL     OW51452   1.402   1.595  14.745
49852SOL    HW151453   1.429   1.503  14.749
49852SOL    HW251454   1.481   1.644  14.767
49853SOL     OW51455   4.769  11.707   0.422
49853SOL    HW151456   4.781  11.800   0.400
49853SOL    HW251457   4.804  11.699   0.511
49854SOL     OW51458  13.341   6.323   7.643
49854SOL    HW151459  13.320   6.351   7.732
49854SOL    HW251460  13.257   6.316   7.599
49855SOL     OW51461   8.022   3.644   3.871
49855SOL    HW151462   7.979   3.602   3.945
49855SOL    HW251463   7.964   3.716   3.847
49856SOL     OW51464  14.229   7.201  12.018
49856SOL    HW151465  14.299   7.236  12.073
49856SOL    HW251466  14.273   7.161  11.943
49857SOL     OW51467   6.553   9.329   2.458
49857SOL    HW151468   6.631   9.331   2.514
49857SOL    HW251469   6.486   9.374   2.510
49858SOL     OW51470   2.001   9.232  14.311
49858SOL    HW151471   1.920   9.207  14.357
49858SOL    HW251472   1.976   9.237  14.219
49859SOL     OW51473   0.184   5.935   6.314
49859SOL    HW151474   0.216   5.995   6.246
49859SOL    HW251475   0.089   5.937   6.305
49860SOL     OW51476   8.836   8.511   8.170
49860SOL    HW151477   8.926   8.505   8.203
49860SOL    HW251478   8.844   8.559   8.088
49861SOL     OW51479  14.594   3.726  13.622
49861SOL    HW151480  14.581   3.639  13.660
49861SOL    HW251481  14.517   3.776  13.651
49862SOL     OW51482   4.766   6.903   9.679
49862SOL    HW151483   4.829   6.834   9.658
49862SOL    HW251484   4.744   6.942   9.594
49863SOL     OW51485   7.946  11.618  13.835
49863SOL    HW151486   8.006  11.576  13.773
49863SOL    HW251487   7.863  11.572  13.823
49864SOL     OW51488  14.306  12.858   7.873
49864SOL    HW151489  14.229  12.915   7.873
49864SOL    HW251490  14.377  12.914   7.841
49865SOL     OW51491   1.775  11.395  11.667
49865SOL    HW151492   1.765  11.452  11.743
49865SOL    HW251493   1.692  11.348  11.661
49866SOL     OW51494   8.560   9.723   0.696
49866SOL    HW151495   8.468   9.747   0.681
49866SOL    HW251496   8.609   9.800   0.667
49867SOL     OW51497   5.650   5.816   3.350
49867SOL    HW151498   5.691   5.807   3.436
49867SOL    HW251499   5.712   5.776   3.290
49868SOL     OW51500   2.859  11.673   2.449
49868SOL    HW151501   2.811  11.654   2.368
49868SOL    HW251502   2.803  11.636   2.518
49869SOL     OW51503   1.284   1.561   8.111
49869SOL    HW151504   1.275   1.466   8.117
49869SOL    HW251505   1.198   1.594   8.137
49870SOL     OW51506   6.866  11.889   9.900
49870SOL    HW151507   6.774  11.909   9.886
49870SOL    HW251508   6.876  11.887   9.995
49871SOL     OW51509  11.223   9.417   8.431
49871SOL    HW151510  11.276   9.435   8.353
49871SOL    HW251511  11.269   9.345   8.475
49872SOL     OW51512   5.854  13.819  13.045
49872SOL    HW151513   5.892  13.780  13.124
49872SOL    HW251514   5.911  13.894  13.026
49873SOL     OW51515  12.614   1.715   1.079
49873SOL    HW151516  12.602   1.621   1.094
49873SOL    HW251517  12.612   1.724   0.984
49874SOL     OW51518   3.595   3.654  14.350
49874SOL    HW151519   3.621   3.616  14.266
49874SOL    HW251520   3.561   3.741  14.327
49875SOL     OW51521   7.364  12.055   6.172
49875SOL    HW151522   7.351  12.148   6.189
49875SOL    HW251523   7.372  12.016   6.258
49876SOL     OW51524   0.308   9.050   6.698
49876SOL    HW151525   0.242   9.027   6.632
49876SOL    HW251526   0.334   9.140   6.676
49877SOL     OW51527   3.834   5.672  12.413
49877SOL    HW151528   3.769   5.716  12.467
49877SOL    HW251529   3.877   5.743  12.364
49878SOL     OW51530   5.976  12.653  12.665
49878SOL    HW151531   6.027  12.640  12.745
49878SOL    HW251532   5.905  12.711  12.691
49879SOL     OW51533   4.957  12.693  11.142
49879SOL    HW151534   4.915  12.626  11.196
49879SOL    HW251535   4.994  12.645  11.068
49880SOL     OW51536   4.775   4.067   9.353
49880SOL    HW151537   4.758   4.067   9.447
49880SOL    HW251538   4.704   4.120   9.316
49881SOL     OW51539   1.215  14.299   1.215
49881SOL    HW151540   1.233  14.205   1.217
49881SOL    HW251541   1.207  14.320   1.122
49882SOL     OW51542   2.739   4.670   0.072
49882SOL    HW151543   2.729   4.720  14.861
49882SOL    HW251544   2.832   4.677   0.094
49883SOL     OW51545   5.820   6.694  13.930
49883SOL    HW151546   5.909   6.665  13.909
49883SOL    HW251547   5.797   6.645  14.010
49884SOL     OW51548  11.792   4.779   5.553
49884SOL    HW151549  11.815   4.838   5.625
49884SOL    HW251550  11.842   4.812   5.478
49885SOL     OW51551   8.892  12.532   7.850
49885SOL    HW151552   8.881  12.615   7.802
49885SOL    HW251553   8.987  12.524   7.862
49886SOL     OW51554  12.863  13.709  10.415
49886SOL    HW151555  12.921  13.780  10.444
49886SOL    HW251556  12.877  13.640  10.479
49887SOL     OW51557   0.262  14.020   8.820
49887SOL    HW151558   0.300  14.084   8.762
49887SOL    HW251559   0.188  14.065   8.862
49888SOL     OW51560   5.180  11.289   8.063
49888SOL    HW151561   5.256  11.338   8.094
49888SOL    HW251562   5.105  11.333   8.102
49889SOL     OW51563  10.887  12.139   2.155
49889SOL    HW151564  10.886  12.231   2.182
49889SOL    HW251565  10.916  12.092   2.233
49890SOL     OW51566   9.292   0.852   2.201
49890SOL    HW151567   9.211   0.813   2.168
49890SOL    HW251568   9.330   0.786   2.259
49891SOL     OW51569   8.199   3.656   6.827
49891SOL    HW151570   8.186   3.736   6.776
49891SOL    HW251571   8.132   3.596   6.795
49892SOL     OW51572   9.179   7.708   8.931
49892SOL    HW151573   9.154   7.801   8.931
49892SOL    HW251574   9.249   7.703   8.996
49893SOL     OW51575   1.994  10.059  11.441
49893SOL    HW151576   2.037  10.040  11.524
49893SOL    HW251577   1.900  10.061  11.462
49894SOL     OW51578   4.342   7.833   4.954
49894SOL    HW151579   4.428   7.791   4.944
49894SOL    HW251580   4.361   7.916   4.997
49895SOL     OW51581  11.192   8.821  12.745
49895SOL    HW151582  11.115   8.876  12.729
49895SOL    HW251583  11.243   8.827  12.665
49896SOL     OW51584  13.141  11.178  13.711
49896SOL    HW151585  13.072  11.242  13.731
49896SOL    HW251586  13.175  11.207  13.626
49897SOL     OW51587  14.330   7.250   4.220
49897SOL    HW151588  14.320   7.337   4.257
49897SOL    HW251589  14.425   7.238   4.213
49898SOL     OW51590  14.482  11.324   1.278
49898SOL    HW151591  14.513  11.386   1.214
49898SOL    HW251592  14.390  11.346   1.291
49899SOL     OW51593   7.535  13.274   4.947
49899SOL    HW151594   7.594  13.201   4.929
49899SOL    HW251595   7.475  13.275   4.872
49900SOL     OW51596   9.952   6.654  12.632
49900SOL    HW151597   9.904   6.724  12.588
49900SOL    HW251598   9.981   6.596  12.562
49901SOL     OW51599   4.566   2.692   3.019
49901SOL    HW151600   4.509   2.708   3.095
49901SOL    HW251601   4.594   2.779   2.991
49902SOL     OW51602   1.020   9.775  11.494
49902SOL    HW151603   0.976   9.819  11.567
49902SOL    HW251604   0.987   9.685  11.497
49903SOL     OW51605   8.253  11.948  14.334
49903SOL    HW151606   8.337  11.984  14.307
49903SOL    HW251607   8.259  11.855  14.312
49904SOL     OW51608  11.929   8.528   0.916
49904SOL    HW151609  11.889   8.587   0.852
49904SOL    HW251610  11.976   8.586   0.976
49905SOL     OW51611   2.547  13.324  10.997
49905SOL    HW151612   2.548  13.407  11.045
49905SOL    HW251613   2.478  13.273  11.039
49906SOL     OW51614   5.030  12.207   6.953
49906SOL    HW151615   5.102  12.260   6.919
49906SOL    HW251616   4.974  12.191   6.877
49907SOL     OW51617   1.124   5.891   5.242
49907SOL    HW151618   1.166   5.964   5.195
49907SOL    HW251619   1.060   5.857   5.180
49908SOL     OW51620   5.730   2.650  14.266
49908SOL    HW151621   5.718   2.635  14.172
49908SOL    HW251622   5.766   2.738  14.272
49909SOL     OW51623   5.262   6.162   6.008
49909SOL    HW151624   5.279   6.212   6.088
49909SOL    HW251625   5.200   6.094   6.035
49910SOL     OW51626  10.562   2.214   0.093
49910SOL    HW151627  10.495   2.248   0.152
49910SOL    HW251628  10.615   2.156   0.149
49911SOL     OW51629  14.552   4.234   9.882
49911SOL    HW151630  14.622   4.270   9.938
49911SOL    HW251631  14.593   4.159   9.839
49912SOL     OW51632  11.225  10.667   7.644
49912SOL    HW151633  11.249  10.754   7.612
49912SOL    HW251634  11.304  10.614   7.632
49913SOL     OW51635   5.363   9.604  12.722
49913SOL    HW151636   5.457   9.588  12.719
49913SOL    HW251637   5.354   9.698  12.705
49914SOL     OW51638  13.405  11.788  14.641
49914SOL    HW151639  13.314  11.776  14.667
49914SOL    HW251640  13.450  11.816  14.720
49915SOL     OW51641  13.990  11.501   5.012
49915SOL    HW151642  14.028  11.435   4.955
49915SOL    HW251643  14.066  11.547   5.049
49916SOL     OW51644  11.597   1.333   5.418
49916SOL    HW151645  11.559   1.373   5.496
49916SOL    HW251646  11.550   1.249   5.409
49917SOL     OW51647   2.728   5.483   3.221
49917SOL    HW151648   2.737   5.388   3.211
49917SOL    HW251649   2.743   5.518   3.134
49918SOL     OW51650   0.084   9.033   1.925
49918SOL    HW151651   0.029   9.104   1.893
49918SOL    HW251652   0.029   8.955   1.917
49919SOL     OW51653   7.746  12.288  10.757
49919SOL    HW151654   7.661  12.284  10.715
49919SOL    HW251655   7.759  12.381  10.778
49920SOL     OW51656   9.097  10.306   8.520
49920SOL    HW151657   9.053  10.377   8.474
49920SOL    HW251658   9.039  10.231   8.507
49921SOL     OW51659   3.295  10.579   3.946
49921SOL    HW151660   3.380  10.579   3.901
49921SOL    HW251661   3.250  10.656   3.911
49922SOL     OW51662   0.438   1.873  11.625
49922SOL    HW151663   0.497   1.878  11.700
49922SOL    HW251664   0.358   1.833  11.660
49923SOL     OW51665   7.887   9.912   4.716
49923SOL    HW151666   7.842   9.991   4.746
49923SOL    HW251667   7.825   9.841   4.734
49924SOL     OW51668   8.403   0.244   5.361
49924SOL    HW151669   8.361   0.163   5.389
49924SOL    HW251670   8.495   0.222   5.351
49925SOL     OW51671  14.799   6.387  12.695
49925SOL    HW151672  14.812   6.482  12.690
49925SOL    HW251673   0.006   6.355  12.743
49926SOL     OW51674   1.460   4.023  13.308
49926SOL    HW151675   1.469   4.078  13.230
49926SOL    HW251676   1.471   3.934  13.276
49927SOL     OW51677   4.124   2.440   7.040
49927SOL    HW151678   4.201   2.484   7.076
49927SOL    HW251679   4.132   2.349   7.068
49928SOL     OW51680  12.059   2.072   1.508
49928SOL    HW151681  12.099   2.062   1.594
49928SOL    HW251682  11.969   2.098   1.526
49929SOL     OW51683   9.754   3.289   5.326
49929SOL    HW151684   9.668   3.314   5.359
49929SOL    HW251685   9.743   3.286   5.231
49930SOL     OW51686   6.161   1.753   8.267
49930SOL    HW151687   6.171   1.844   8.292
49930SOL    HW251688   6.245   1.729   8.229
49931SOL     OW51689   7.123   4.145  13.878
49931SOL    HW151690   7.031   4.127  13.860
49931SOL    HW251691   7.167   4.063  13.856
49932SOL     OW51692   6.629  11.446   2.733
49932SOL    HW151693   6.651  11.467   2.642
49932SOL    HW251694   6.553  11.502   2.753
49933SOL     OW51695   8.594   6.532  13.416
49933SOL    HW151696   8.526   6.471  13.444
49933SOL    HW251697   8.664   6.477  13.380
49934SOL     OW51698   2.181  14.593   8.744
49934SOL    HW151699   2.240  14.636   8.682
49934SOL    HW251700   2.101  14.578   8.695
49935SOL     OW51701   2.818   7.726   8.612
49935SOL    HW151702   2.742   7.702   8.665
49935SOL    HW251703   2.786   7.794   8.553
49936SOL     OW51704   8.304   7.599   5.493
49936SOL    HW151705   8.286   7.505   5.492
49936SOL    HW251706   8.244   7.636   5.428
49937SOL     OW51707   8.840  13.351   4.573
49937SOL    HW151708   8.786  13.352   4.493
49937SOL    HW251709   8.889  13.270   4.568
49938SOL     OW51710   4.026   4.650   5.351
49938SOL    HW151711   4.108   4.662   5.399
49938SOL    HW251712   4.021   4.727   5.294
49939SOL     OW51713  10.701   1.314   8.379
49939SOL    HW151714  10.673   1.230   8.343
49939SOL    HW251715  10.684   1.377   8.309
49940SOL     OW51716  14.211   4.346   2.009
49940SOL    HW151717  14.251   4.356   2.095
49940SOL    HW251718  14.125   4.387   2.017
49941SOL     OW51719  10.563  14.737   8.567
49941SOL    HW151720  10.564  14.782   8.652
49941SOL    HW251721  10.656  14.723   8.547
49942SOL     OW51722   7.822   7.519   7.416
49942SOL    HW151723   7.808   7.539   7.323
49942SOL    HW251724   7.916   7.500   7.422
49943SOL     OW51725   7.487  13.678  10.247
49943SOL    HW151726   7.519  13.605  10.194
49943SOL    HW251727   7.402  13.701  10.209
49944SOL     OW51728  10.796  12.963  10.851
49944SOL    HW151729  10.803  12.881  10.803
49944SOL    HW251730  10.745  13.020  10.793
49945SOL     OW51731   7.989   5.004   2.629
49945SOL    HW151732   7.979   4.953   2.709
49945SOL    HW251733   8.078   5.040   2.636
49946SOL     OW51734   7.928   6.896   9.673
49946SOL    HW151735   7.979   6.947   9.610
49946SOL    HW251736   7.966   6.808   9.669
49947SOL     OW51737   3.137   5.914   0.620
49947SOL    HW151738   3.128   5.868   0.536
49947SOL    HW251739   3.209   5.870   0.665
49948SOL     OW51740  12.385  13.238   2.028
49948SOL    HW151741  12.465  13.257   1.980
49948SOL    HW251742  12.405  13.263   2.119
49949SOL     OW51743   9.444   4.922   9.188
49949SOL    HW151744   9.435   5.017   9.179
49949SOL    HW251745   9.389   4.899   9.263
49950SOL     OW51746   4.649   0.740   8.211
49950SOL    HW151747   4.698   0.666   8.247
49950SOL    HW251748   4.583   0.760   8.277
49951SOL     OW51749  12.463   1.345   2.772
49951SOL    HW151750  12.472   1.252   2.793
49951SOL    HW251751  12.377   1.351   2.730
49952SOL     OW51752   9.427  11.263   1.585
49952SOL    HW151753   9.483  11.187   1.570
49952SOL    HW251754   9.422  11.271   1.680
49953SOL     OW51755  12.068   7.952   4.487
49953SOL    HW151756  12.087   8.041   4.457
49953SOL    HW251757  12.072   7.957   4.582
49954SOL     OW51758   0.800   6.366   7.414
49954SOL    HW151759   0.833   6.281   7.444
49954SOL    HW251760   0.707   6.366   7.438
49955SOL     OW51761   9.073   5.811   1.717
49955SOL    HW151762   8.993   5.811   1.770
49955SOL    HW251763   9.060   5.881   1.654
49956SOL     OW51764  14.611   5.901  13.832
49956SOL    HW151765  14.654   5.985  13.846
49956SOL    HW251766  14.650   5.843  13.898
49957SOL     OW51767  11.090   2.283  12.828
49957SOL    HW151768  11.106   2.273  12.735
49957SOL    HW251769  11.166   2.331  12.860
49958SOL     OW51770  11.117   7.291   5.725
49958SOL    HW151771  11.103   7.200   5.751
49958SOL    HW251772  11.211   7.304   5.732
49959SOL     OW51773   0.590   4.235   4.131
49959SOL    HW151774   0.606   4.144   4.155
49959SOL    HW251775   0.654   4.285   4.182
49960SOL     OW51776   3.805   3.621   9.913
49960SOL    HW151777   3.774   3.575   9.835
49960SOL    HW251778   3.852   3.696   9.879
49961SOL     OW51779   8.424   5.237   5.073
49961SOL    HW151780   8.424   5.173   5.001
49961SOL    HW251781   8.345   5.289   5.058
49962SOL     OW51782  12.654   3.639   6.135
49962SOL    HW151783  12.604   3.621   6.055
49962SOL    HW251784  12.730   3.688   6.105
49963SOL     OW51785  14.203   2.020   0.076
49963SOL    HW151786  14.177   2.067  14.867
49963SOL    HW251787  14.257   1.947   0.043
49964SOL     OW51788   6.077  10.803  14.583
49964SOL    HW151789   6.087  10.893  14.614
49964SOL    HW251790   6.166  10.773  14.566
49965SOL     OW51791  12.264  10.013   2.557
49965SOL    HW151792  12.183  10.063   2.567
49965SOL    HW251793  12.270   9.960   2.637
49966SOL     OW51794   1.599   1.532  12.197
49966SOL    HW151795   1.614   1.439  12.217
49966SOL    HW251796   1.619   1.577  12.279
49967SOL     OW51797  11.739  12.268   7.567
49967SOL    HW151798  11.804  12.213   7.523
49967SOL    HW251799  11.738  12.349   7.517
49968SOL     OW51800  14.785   9.471   3.122
49968SOL    HW151801  14.706   9.509   3.158
49968SOL    HW251802  14.758   9.433   3.038
49969SOL     OW51803   0.920   6.227   4.469
49969SOL    HW151804   0.930   6.149   4.524
49969SOL    HW251805   0.891   6.193   4.385
49970SOL     OW51806   2.984   1.504   1.205
49970SOL    HW151807   3.049   1.474   1.141
49970SOL    HW251808   2.945   1.423   1.239
49971SOL     OW51809  13.964   4.981   1.518
49971SOL    HW151810  14.030   4.943   1.576
49971SOL    HW251811  13.953   5.070   1.550
49972SOL     OW51812  12.080   3.546   2.280
49972SOL    HW151813  12.135   3.586   2.348
49972SOL    HW251814  12.113   3.583   2.199
49973SOL     OW51815   1.072   3.365   6.110
49973SOL    HW151816   1.143   3.357   6.173
49973SOL    HW251817   1.113   3.402   6.032
49974SOL     OW51818  10.684   8.033  13.716
49974SOL    HW151819  10.718   7.950  13.684
49974SOL    HW251820  10.592   8.033  13.689
49975SOL     OW51821   1.636  10.009   8.540
49975SOL    HW151822   1.625  10.103   8.525
49975SOL    HW251823   1.554   9.980   8.580
49976SOL     OW51824   4.020  11.976  10.192
49976SOL    HW151825   4.063  11.891  10.184
49976SOL    HW251826   3.997  12.000  10.102
49977SOL     OW51827  10.043   0.980  13.282
49977SOL    HW151828   9.994   0.969  13.200
49977SOL    HW251829   9.994   1.048  13.329
49978SOL     OW51830   4.988   0.678   8.149
49978SOL    HW151831   5.076   0.649   8.171
49978SOL    HW251832   4.935   0.658   8.226
49979SOL     OW51833   4.945  12.314  13.213
49979SOL    HW151834   5.027  12.293  13.259
49979SOL    HW251835   4.973  12.366  13.138
49980SOL     OW51836   6.618   8.169   1.525
49980SOL    HW151837   6.575   8.101   1.577
49980SOL    HW251838   6.546   8.222   1.490
49981SOL     OW51839   9.145   9.345  12.672
49981SOL    HW151840   9.147   9.415  12.607
49981SOL    HW251841   9.129   9.265  12.622
49982SOL     OW51842  14.347  14.728   5.084
49982SOL    HW151843  14.274  14.775   5.044
49982SOL    HW251844  14.312  14.694   5.166
49983SOL     OW51845   2.258   7.376   6.091
49983SOL    HW151846   2.307   7.312   6.143
49983SOL    HW251847   2.324   7.418   6.036
49984SOL     OW51848   7.871   1.385  12.217
49984SOL    HW151849   7.848   1.327  12.289
49984SOL    HW251850   7.966   1.395  12.224
49985SOL     OW51851   1.058   2.472  12.230
49985SOL    HW151852   1.137   2.442  12.185
49985SOL    HW251853   1.086   2.549  12.279
49986SOL     OW51854  11.560   4.126  14.051
49986SOL    HW151855  11.620   4.184  14.003
49986SOL    HW251856  11.521   4.071  13.983
49987SOL     OW51857   3.378  12.495   3.063
49987SOL    HW151858   3.364  12.583   3.100
49987SOL    HW251859   3.454  12.505   3.006
49988SOL     OW51860   0.346   6.924   4.728
49988SOL    HW151861   0.274   6.861   4.726
49988SOL    HW251862   0.392   6.905   4.810
49989SOL     OW51863  13.920   9.210   7.401
49989SOL    HW151864  13.964   9.129   7.427
49989SOL    HW251865  13.920   9.207   7.305
49990SOL     OW51866   4.637   9.033  11.984
49990SOL    HW151867   4.641   8.953  12.036
49990SOL    HW251868   4.690   9.014  11.906
49991SOL     OW51869   8.100  10.300   0.657
49991SOL    HW151870   8.084  10.207   0.670
49991SOL    HW251871   8.052  10.322   0.577
49992SOL     OW51872   3.157  10.069   0.659
49992SOL    HW151873   3.098  10.117   0.718
49992SOL    HW251874   3.099  10.033   0.592
49993SOL     OW51875   3.890   8.488  12.436
49993SOL    HW151876   3.901   8.393  12.441
49993SOL    HW251877   3.807   8.505  12.482
49994SOL     OW51878  12.647  10.043  12.372
49994SOL    HW151879  12.553  10.058  12.386
49994SOL    HW251880  12.673   9.985  12.443
49995SOL     OW51881   1.344   6.674  13.147
49995SOL    HW151882   1.425   6.724  13.158
49995SOL    HW251883   1.369   6.597  13.096
49996SOL     OW51884   2.188   6.448   5.196
49996SOL    HW151885   2.268   6.399   5.208
49996SOL    HW251886   2.210   6.537   5.225
49997SOL     OW51887   7.513  12.287   9.291
49997SOL    HW151888   7.453  12.276   9.365
49997SOL    HW251889   7.573  12.213   9.297
49998SOL     OW51890   9.746   2.260   2.397
49998SOL    HW151891   9.751   2.356   2.397
49998SOL    HW251892   9.809   2.233   2.330
49999SOL     OW51893  13.653  12.693   7.937
49999SOL    HW151894  13.596  12.626   7.975
49999SOL    HW251895  13.640  12.770   7.992
50000SOL     OW51896   3.513   9.480  11.838
50000SOL    HW151897   3.506   9.474  11.743
50000SOL    HW251898   3.526   9.389  11.866
50001SOL     OW51899  13.352   8.494   2.094
50001SOL    HW151900  13.391   8.562   2.040
50001SOL    HW251901  13.376   8.412   2.050
50002SOL     OW51902   0.811   1.683   8.432
50002SOL    HW151903   0.762   1.751   8.387
50002SOL    HW251904   0.746   1.615   8.452
50003SOL     OW51905  11.158   5.192  13.161
50003SOL    HW151906  11.142   5.275  13.205
50003SOL    HW251907  11.117   5.202  13.075
50004SOL     OW51908  12.679  10.063   4.924
50004SOL    HW151909  12.679   9.972   4.952
50004SOL    HW251910  12.756  10.071   4.868
50005SOL     OW51911  10.275  11.651  13.790
50005SOL    HW151912  10.270  11.727  13.848
50005SOL    HW251913  10.185  11.636  13.763
50006SOL     OW51914   8.801   9.203  11.771
50006SOL    HW151915   8.883   9.238  11.734
50006SOL    HW251916   8.732   9.249  11.723
50007SOL     OW51917   7.543   4.977   1.813
50007SOL    HW151918   7.553   5.062   1.770
50007SOL    HW251919   7.580   4.914   1.751
50008SOL     OW51920   4.343   8.272   6.153
50008SOL    HW151921   4.281   8.199   6.151
50008SOL    HW251922   4.390   8.261   6.235
50009SOL     OW51923   1.733   2.579  12.630
50009SOL    HW151924   1.649   2.624  12.644
50009SOL    HW251925   1.783   2.598  12.709
50010SOL     OW51926   3.892   2.060  10.991
50010SOL    HW151927   3.976   2.046  10.948
50010SOL    HW251928   3.872   1.976  11.033
50011SOL     OW51929  10.895   8.486   3.282
50011SOL    HW151930  10.943   8.527   3.354
50011SOL    HW251931  10.823   8.440   3.325
50012SOL     OW51932   9.544   7.738  10.124
50012SOL    HW151933   9.507   7.783  10.200
50012SOL    HW251934   9.577   7.656  10.158
50013SOL     OW51935   0.857  12.408  12.176
50013SOL    HW151936   0.839  12.341  12.243
50013SOL    HW251937   0.863  12.359  12.094
50014SOL     OW51938   2.307  14.117   3.903
50014SOL    HW151939   2.392  14.091   3.869
50014SOL    HW251940   2.247  14.110   3.829
50015SOL     OW51941  14.493   9.655   6.611
50015SOL    HW151942  14.506   9.581   6.552
50015SOL    HW251943  14.580   9.696   6.619
50016SOL     OW51944   4.796  11.850  11.296
50016SOL    HW151945   4.772  11.786  11.229
50016SOL    HW251946   4.860  11.906  11.253
50017SOL     OW51947  10.290   4.747   1.628
50017SOL    HW151948  10.377   4.785   1.624
50017SOL    HW251949  10.237   4.812   1.674
50018SOL     OW51950   9.259   0.502   1.697
50018SOL    HW151951   9.338   0.553   1.715
50018SOL    HW251952   9.262   0.484   1.603
50019SOL     OW51953  12.929  11.778   6.953
50019SOL    HW151954  12.983  11.742   6.882
50019SOL    HW251955  12.874  11.705   6.981
50020SOL     OW51956   7.239   8.071  13.649
50020SOL    HW151957   7.177   8.130  13.608
50020SOL    HW251958   7.325   8.111  13.632
50021SOL     OW51959   7.430   2.273   1.080
50021SOL    HW151960   7.487   2.206   1.118
50021SOL    HW251961   7.364   2.291   1.147
50022SOL     OW51962  13.152   9.571  13.890
50022SOL    HW151963  13.190   9.574  13.978
50022SOL    HW251964  13.165   9.660  13.856
50023SOL     OW51965   7.490  10.119   4.861
50023SOL    HW151966   7.506  10.162   4.945
50023SOL    HW251967   7.428  10.049   4.881
50024SOL     OW51968   6.248  12.558   7.873
50024SOL    HW151969   6.229  12.495   7.942
50024SOL    HW251970   6.331  12.598   7.900
50025SOL     OW51971   0.040  14.734   2.482
50025SOL    HW151972  14.837  14.697   2.532
50025SOL    HW251973   0.118  14.692   2.518
50026SOL     OW51974   4.042   0.930  12.022
50026SOL    HW151975   4.048   0.854  11.964
50026SOL    HW251976   3.953   0.963  12.009
50027SOL     OW51977   1.237   5.183   2.719
50027SOL    HW151978   1.326   5.216   2.729
50027SOL    HW251979   1.185   5.232   2.784
50028SOL     OW51980   2.306  14.044   8.798
50028SOL    HW151981   2.226  14.078   8.839
50028SOL    HW251982   2.303  13.950   8.815
50029SOL     OW51983  11.671  13.119  13.657
50029SOL    HW151984  11.646  13.030  13.681
50029SOL    HW251985  11.733  13.108  13.585
50030SOL     OW51986   6.682   0.503   6.005
50030SOL    HW151987   6.601   0.453   6.015
50030SOL    HW251988   6.746   0.456   6.058
50031SOL     OW51989   1.250   0.260   2.317
50031SOL    HW151990   1.219   0.342   2.279
50031SOL    HW251991   1.345   0.262   2.305
50032SOL     OW51992   5.848   6.611   4.353
50032SOL    HW151993   5.813   6.610   4.442
50032SOL    HW251994   5.900   6.532   4.347
50033SOL     OW51995   2.785   9.445  10.238
50033SOL    HW151996   2.852   9.402  10.185
50033SOL    HW251997   2.730   9.374  10.271
50034SOL     OW51998   6.084   1.546   6.048
50034SOL    HW151999   6.026   1.497   5.989
50034SOL    HW252000   6.167   1.552   6.001
50035SOL     OW52001   2.183  13.204   7.927
50035SOL    HW152002   2.222  13.119   7.951
50035SOL    HW252003   2.106  13.181   7.876
50036SOL     OW52004   7.256   1.563   2.507
50036SOL    HW152005   7.319   1.606   2.564
50036SOL    HW252006   7.211   1.500   2.563
50037SOL     OW52007   6.958   2.976   3.664
50037SOL    HW152008   6.889   3.040   3.682
50037SOL    HW252009   6.920   2.919   3.597
50038SOL     OW52010   4.545   7.776  12.899
50038SOL    HW152011   4.596   7.856  12.889
50038SOL    HW252012   4.606   7.705  12.880
50039SOL     OW52013   4.224  13.315   6.166
50039SOL    HW152014   4.202  13.301   6.258
50039SOL    HW252015   4.160  13.379   6.136
50040SOL     OW52016   6.444   6.726   0.113
50040SOL    HW152017   6.372   6.675   0.150
50040SOL    HW252018   6.402   6.805   0.079
50041SOL     OW52019   6.938  11.058  10.554
50041SOL    HW152020   6.878  11.001  10.506
50041SOL    HW252021   6.956  11.130  10.493
50042SOL     OW52022   6.811   2.966   6.523
50042SOL    HW152023   6.772   2.883   6.552
50042SOL    HW252024   6.761   3.033   6.569
50043SOL     OW52025   0.268   9.085   5.253
50043SOL    HW152026   0.191   9.133   5.225
50043SOL    HW252027   0.241   9.041   5.334
50044SOL     OW52028   4.474  10.547   3.171
50044SOL    HW152029   4.546  10.600   3.205
50044SOL    HW252030   4.420  10.608   3.121
50045SOL     OW52031   6.601   4.844  12.732
50045SOL    HW152032   6.536   4.882  12.673
50045SOL    HW252033   6.650   4.783  12.678
50046SOL     OW52034   5.761   6.364   3.543
50046SOL    HW152035   5.719   6.376   3.458
50046SOL    HW252036   5.778   6.270   3.548
50047SOL     OW52037   8.305   1.853   9.027
50047SOL    HW152038   8.212   1.842   9.012
50047SOL    HW252039   8.313   1.874   9.120
50048SOL     OW52040   2.542   5.415  10.340
50048SOL    HW152041   2.505   5.481  10.280
50048SOL    HW252042   2.484   5.340  10.331
50049SOL     OW52043   6.513   8.974   5.422
50049SOL    HW152044   6.577   8.973   5.351
50049SOL    HW252045   6.532   9.053   5.471
50050SOL     OW52046  12.292  10.624   9.320
50050SOL    HW152047  12.353  10.654   9.387
50050SOL    HW252048  12.221  10.689   9.321
50051SOL     OW52049   2.462   4.659  10.438
50051SOL    HW152050   2.429   4.746  10.462
50051SOL    HW252051   2.402   4.627  10.371
50052SOL     OW52052  11.829   8.679   0.703
50052SOL    HW152053  11.826   8.752   0.765
50052SOL    HW252054  11.743   8.681   0.660
50053SOL     OW52055   9.707   3.132  13.397
50053SOL    HW152056   9.734   3.050  13.441
50053SOL    HW252057   9.790   3.171  13.368
50054SOL     OW52058   8.922  13.711  13.649
50054SOL    HW152059   8.979  13.761  13.708
50054SOL    HW252060   8.957  13.727  13.562
50055SOL     OW52061  14.063  12.403   1.298
50055SOL    HW152062  14.007  12.458   1.243
50055SOL    HW252063  14.119  12.465   1.345
50056SOL     OW52064   4.777  13.074   9.132
50056SOL    HW152065   4.838  13.005   9.156
50056SOL    HW252066   4.746  13.049   9.045
50057SOL     OW52067  10.536  12.804  13.502
50057SOL    HW152068  10.540  12.899  13.495
50057SOL    HW252069  10.521  12.774  13.412
50058SOL     OW52070   9.742   8.968   9.396
50058SOL    HW152071   9.745   8.892   9.454
50058SOL    HW252072   9.688   8.940   9.322
50059SOL     OW52073   6.444   4.983   1.108
50059SOL    HW152074   6.363   4.935   1.095
50059SOL    HW252075   6.501   4.923   1.155
50060SOL     OW52076  11.885   3.554   1.116
50060SOL    HW152077  11.897   3.648   1.105
50060SOL    HW252078  11.876   3.542   1.211
50061SOL     OW52079  12.306  12.737   4.019
50061SOL    HW152080  12.210  12.738   4.011
50061SOL    HW252081  12.323  12.761   4.110
50062SOL     OW52082   8.448   3.357   0.975
50062SOL    HW152083   8.448   3.274   1.023
50062SOL    HW252084   8.365   3.399   0.999
50063SOL     OW52085   7.102   7.141  13.964
50063SOL    HW152086   7.150   7.193  13.901
50063SOL    HW252087   7.101   7.193  14.044
50064SOL     OW52088   4.431   0.269   2.245
50064SOL    HW152089   4.407   0.180   2.220
50064SOL    HW252090   4.524   0.263   2.266
50065SOL     OW52091   8.701   1.183   4.507
50065SOL    HW152092   8.664   1.221   4.587
50065SOL    HW252093   8.770   1.125   4.539
50066SOL     OW52094   0.657   4.375   1.325
50066SOL    HW152095   0.642   4.355   1.233
50066SOL    HW252096   0.751   4.391   1.331
50067SOL     OW52097   3.625   9.114   6.731
50067SOL    HW152098   3.615   9.091   6.824
50067SOL    HW252099   3.575   9.047   6.684
50068SOL     OW52100   0.423   4.975   3.257
50068SOL    HW152101   0.384   5.031   3.190
50068SOL    HW252102   0.349   4.947   3.311
50069SOL     OW52103  11.982  14.116   4.981
50069SOL    HW152104  11.937  14.048   4.931
50069SOL    HW252105  11.961  14.197   4.935
50070SOL     OW52106   6.985  11.665   9.728
50070SOL    HW152107   6.898  11.624   9.729
50070SOL    HW252108   6.995  11.703   9.815
50071SOL     OW52109   6.998   3.186  10.437
50071SOL    HW152110   7.030   3.276  10.436
50071SOL    HW252111   7.019   3.152  10.351
50072SOL     OW52112   6.856   3.803   9.605
50072SOL    HW152113   6.770   3.766   9.584
50072SOL    HW252114   6.918   3.739   9.570
50073SOL     OW52115   8.622   2.485   3.360
50073SOL    HW152116   8.668   2.545   3.419
50073SOL    HW252117   8.690   2.453   3.300
50074SOL     OW52118   4.873  12.582   5.971
50074SOL    HW152119   4.830  12.597   5.887
50074SOL    HW252120   4.890  12.669   6.006
50075SOL     OW52121   5.301   5.401   5.641
50075SOL    HW152122   5.282   5.486   5.682
50075SOL    HW252123   5.231   5.391   5.576
50076SOL     OW52124  10.840   3.160   0.455
50076SOL    HW152125  10.791   3.170   0.373
50076SOL    HW252126  10.835   3.247   0.496
50077SOL     OW52127   0.079  10.220   7.421
50077SOL    HW152128   0.110  10.294   7.370
50077SOL    HW252129   0.093  10.144   7.364
50078SOL     OW52130   4.420  12.984  12.840
50078SOL    HW152131   4.511  12.959  12.828
50078SOL    HW252132   4.371  12.903  12.829
50079SOL     OW52133   5.890   2.952   1.802
50079SOL    HW152134   5.859   2.872   1.761
50079SOL    HW252135   5.819   3.014   1.791
50080SOL     OW52136   2.787  13.525  11.570
50080SOL    HW152137   2.704  13.508  11.616
50080SOL    HW252138   2.769  13.604  11.519
50081SOL     OW52139  10.632  10.277  10.772
50081SOL    HW152140  10.696  10.343  10.746
50081SOL    HW252141  10.684  10.209  10.816
50082SOL     OW52142   4.207   1.371   8.151
50082SOL    HW152143   4.262   1.428   8.096
50082SOL    HW252144   4.267   1.338   8.218
50083SOL     OW52145   8.994   9.368   7.047
50083SOL    HW152146   9.076   9.391   7.090
50083SOL    HW252147   8.927   9.388   7.112
50084SOL     OW52148   2.190   5.981   8.319
50084SOL    HW152149   2.132   5.975   8.243
50084SOL    HW252150   2.152   6.050   8.373
50085SOL     OW52151  13.805  11.141   9.050
50085SOL    HW152152  13.842  11.150   9.137
50085SOL    HW252153  13.717  11.179   9.057
50086SOL     OW52154   5.407   5.600  14.077
50086SOL    HW152155   5.466   5.578  14.004
50086SOL    HW252156   5.319   5.595  14.039
50087SOL     OW52157   0.179  11.842  12.610
50087SOL    HW152158   0.172  11.837  12.515
50087SOL    HW252159   0.261  11.890  12.626
50088SOL     OW52160   7.456   2.929  10.781
50088SOL    HW152161   7.506   2.970  10.710
50088SOL    HW252162   7.404   3.000  10.817
50089SOL     OW52163  10.002   6.278  14.482
50089SOL    HW152164   9.999   6.371  14.506
50089SOL    HW252165   9.990   6.232  14.566
50090SOL     OW52166   6.612   0.229  14.162
50090SOL    HW152167   6.531   0.229  14.111
50090SOL    HW252168   6.676   0.272  14.106
50091SOL     OW52169  12.354  10.266   5.903
50091SOL    HW152170  12.278  10.249   5.847
50091SOL    HW252171  12.316  10.292   5.987
50092SOL     OW52172   0.523   7.384  10.034
50092SOL    HW152173   0.471   7.463  10.019
50092SOL    HW252174   0.490   7.321   9.969
50093SOL     OW52175  13.465  14.012   5.832
50093SOL    HW152176  13.448  14.097   5.873
50093SOL    HW252177  13.379  13.980   5.806
50094SOL     OW52178   7.769  12.698   8.755
50094SOL    HW152179   7.846  12.748   8.784
50094SOL    HW252180   7.777  12.614   8.800
50095SOL     OW52181   5.575   8.115  11.914
50095SOL    HW152182   5.613   8.201  11.934
50095SOL    HW252183   5.521   8.130  11.837
50096SOL     OW52184   6.193   1.989  13.162
50096SOL    HW152185   6.197   1.970  13.068
50096SOL    HW252186   6.151   1.912  13.200
50097SOL     OW52187   8.703   7.070  14.325
50097SOL    HW152188   8.751   7.077  14.407
50097SOL    HW252189   8.740   7.139  14.270
50098SOL     OW52190  14.421  14.698   6.514
50098SOL    HW152191  14.501  14.749   6.497
50098SOL    HW252192  14.452  14.608   6.522
50099SOL     OW52193  13.426   6.038  12.821
50099SOL    HW152194  13.423   6.120  12.869
50099SOL    HW252195  13.335   6.009  12.818
50100SOL     OW52196   0.356  12.709  13.879
50100SOL    HW152197   0.373  12.707  13.974
50100SOL    HW252198   0.305  12.789  13.866
50101SOL     OW52199  13.084   8.693   8.791
50101SOL    HW152200  13.107   8.786   8.786
50101SOL    HW252201  13.084   8.673   8.884
50102SOL     OW52202   6.984  11.885   5.302
50102SOL    HW152203   6.973  11.916   5.212
50102SOL    HW252204   6.905  11.917   5.347
50103SOL     OW52205   9.640   3.774   7.199
50103SOL    HW152206   9.686   3.793   7.117
50103SOL    HW252207   9.547   3.775   7.175
50104SOL     OW52208   0.072  10.031   6.765
50104SOL    HW152209   0.109  10.024   6.677
50104SOL    HW252210   0.116  10.106   6.804
50105SOL     OW52211   4.237  13.142  14.656
50105SOL    HW152212   4.289  13.062  14.659
50105SOL    HW252213   4.146  13.112  14.648
50106SOL     OW52214   3.420  10.703   7.457
50106SOL    HW152215   3.475  10.655   7.395
50106SOL    HW252216   3.463  10.788   7.467
50107SOL     OW52217   8.595  14.695  10.397
50107SOL    HW152218   8.664  14.661  10.454
50107SOL    HW252219   8.516  14.649  10.426
50108SOL     OW52220   2.009   9.637   9.902
50108SOL    HW152221   2.051   9.551   9.900
50108SOL    HW252222   2.080   9.699   9.883
50109SOL     OW52223  11.342  14.788   3.830
50109SOL    HW152224  11.431  14.809   3.802
50109SOL    HW252225  11.349  14.772   3.924
50110SOL     OW52226   2.296  11.684   9.341
50110SOL    HW152227   2.257  11.762   9.301
50110SOL    HW252228   2.280  11.614   9.277
50111SOL     OW52229  13.372   3.232   3.140
50111SOL    HW152230  13.342   3.214   3.228
50111SOL    HW252231  13.343   3.322   3.123
50112SOL     OW52232   6.336  10.819   9.134
50112SOL    HW152233   6.277  10.870   9.190
50112SOL    HW252234   6.410  10.878   9.117
50113SOL     OW52235   3.915  10.409   2.625
50113SOL    HW152236   3.987  10.346   2.611
50113SOL    HW252237   3.857  10.365   2.688
50114SOL     OW52238   0.900   6.081   2.537
50114SOL    HW152239   0.842   6.149   2.570
50114SOL    HW252240   0.848   6.036   2.470
50115SOL     OW52241   0.958   1.326  14.739
50115SOL    HW152242   1.049   1.319  14.769
50115SOL    HW252243   0.965   1.364  14.652
50116SOL     OW52244   8.934   4.202  10.059
50116SOL    HW152245   8.897   4.177   9.974
50116SOL    HW252246   9.024   4.170  10.055
50117SOL     OW52247  12.500   0.429  12.782
50117SOL    HW152248  12.413   0.447  12.747
50117SOL    HW252249  12.498   0.337  12.806
50118SOL     OW52250  10.310   3.823  14.779
50118SOL    HW152251  10.307   3.861  14.867
50118SOL    HW252252  10.378   3.873  14.734
50119SOL     OW52253   4.051   8.595   2.553
50119SOL    HW152254   4.124   8.561   2.604
50119SOL    HW252255   4.091   8.625   2.471
50120SOL     OW52256  14.165  12.096   9.560
50120SOL    HW152257  14.170  12.154   9.636
50120SOL    HW252258  14.234  12.127   9.502
50121SOL     OW52259   9.640  11.717   5.972
50121SOL    HW152260   9.697  11.755   6.039
50121SOL    HW252261   9.572  11.783   5.958
50122SOL     OW52262   0.495   4.173   7.994
50122SOL    HW152263   0.566   4.213   7.945
50122SOL    HW252264   0.491   4.083   7.962
50123SOL     OW52265   1.519   2.196  13.715
50123SOL    HW152266   1.529   2.178  13.622
50123SOL    HW252267   1.525   2.292  13.722
50124SOL     OW52268   0.550   9.323   2.696
50124SOL    HW152269   0.551   9.336   2.601
50124SOL    HW252270   0.638   9.291   2.717
50125SOL     OW52271   8.368  13.765   6.050
50125SOL    HW152272   8.368  13.849   6.095
50125SOL    HW252273   8.276  13.746   6.034
50126SOL     OW52274   7.220   9.776   0.007
50126SOL    HW152275   7.204   9.861  14.836
50126SOL    HW252276   7.299   9.788   0.060
50127SOL     OW52277   0.448   7.367  12.435
50127SOL    HW152278   0.540   7.354  12.458
50127SOL    HW252279   0.399   7.322  12.503
50128SOL     OW52280   1.794   5.653  13.352
50128SOL    HW152281   1.819   5.739  13.319
50128SOL    HW252282   1.843   5.591  13.298
50129SOL     OW52283   2.433   6.590  13.835
50129SOL    HW152284   2.464   6.678  13.817
50129SOL    HW252285   2.508   6.545  13.874
50130SOL     OW52286   7.566   4.554   2.416
50130SOL    HW152287   7.491   4.528   2.469
50130SOL    HW252288   7.546   4.522   2.328
50131SOL     OW52289  11.620   0.410  13.594
50131SOL    HW152290  11.622   0.429  13.500
50131SOL    HW252291  11.697   0.354  13.608
50132SOL     OW52292  14.746   4.940   1.132
50132SOL    HW152293  14.757   4.951   1.227
50132SOL    HW252294  14.691   4.862   1.123
50133SOL     OW52295   8.131   1.457   0.457
50133SOL    HW152296   8.177   1.467   0.373
50133SOL    HW252297   8.178   1.386   0.501
50134SOL     OW52298   7.051  11.292   1.513
50134SOL    HW152299   7.061  11.387   1.515
50134SOL    HW252300   6.968  11.277   1.467
50135SOL     OW52301  12.439   9.542   5.171
50135SOL    HW152302  12.404   9.502   5.092
50135SOL    HW252303  12.364   9.546   5.231
50136SOL     OW52304   0.509   2.240  14.426
50136SOL    HW152305   0.457   2.319  14.421
50136SOL    HW252306   0.599   2.271  14.439
50137SOL     OW52307   1.879  10.844  14.468
50137SOL    HW152308   1.797  10.796  14.457
50137SOL    HW252309   1.853  10.936  14.462
50138SOL     OW52310  12.918   6.385   9.941
50138SOL    HW152311  12.975   6.350  10.010
50138SOL    HW252312  12.972   6.451   9.897
50139SOL     OW52313   4.356  13.578   6.322
50139SOL    HW152314   4.300  13.540   6.254
50139SOL    HW252315   4.338  13.672   6.317
50140SOL     OW52316   9.406   6.659  12.690
50140SOL    HW152317   9.336   6.595  12.705
50140SOL    HW252318   9.482   6.623  12.737
50141SOL     OW52319  10.873   0.344   4.742
50141SOL    HW152320  10.903   0.433   4.724
50141SOL    HW252321  10.903   0.325   4.830
50142SOL     OW52322   5.988   8.414  12.600
50142SOL    HW152323   6.010   8.392  12.510
50142SOL    HW252324   6.061   8.380  12.652
50143SOL     OW52325   9.246  13.284   4.506
50143SOL    HW152326   9.319  13.272   4.566
50143SOL    HW252327   9.224  13.377   4.513
50144SOL     OW52328  10.969   4.354   0.629
50144SOL    HW152329  10.906   4.366   0.558
50144SOL    HW252330  10.994   4.262   0.624
50145SOL     OW52331   1.410   9.007  12.608
50145SOL    HW152332   1.472   9.077  12.587
50145SOL    HW252333   1.331   9.028  12.558
50146SOL     OW52334  11.842  14.026   0.916
50146SOL    HW152335  11.913  14.023   0.979
50146SOL    HW252336  11.885  14.019   0.831
50147SOL     OW52337  11.736   9.063   4.676
50147SOL    HW152338  11.816   9.018   4.649
50147SOL    HW252339  11.753   9.092   4.766
50148SOL     OW52340  11.465   2.627  11.272
50148SOL    HW152341  11.372   2.648  11.280
50148SOL    HW252342  11.509   2.712  11.263
50149SOL     OW52343  11.703  14.569   9.415
50149SOL    HW152344  11.756  14.533   9.345
50149SOL    HW252345  11.660  14.493   9.454
50150SOL     OW52346   0.673  13.482   8.354
50150SOL    HW152347   0.706  13.436   8.430
50150SOL    HW252348   0.708  13.571   8.362
50151SOL     OW52349   5.181  13.238  14.785
50151SOL    HW152350   5.154  13.258  14.696
50151SOL    HW252351   5.126  13.293  14.841
50152SOL     OW52352   9.021   1.328   0.706
50152SOL    HW152353   9.069   1.383   0.643
50152SOL    HW252354   9.035   1.239   0.675
50153SOL     OW52355   2.481   3.872   2.675
50153SOL    HW152356   2.430   3.944   2.638
50153SOL    HW252357   2.561   3.914   2.708
50154SOL     OW52358  10.613   4.081  13.549
50154SOL    HW152359  10.651   4.162  13.516
50154SOL    HW252360  10.631   4.082  13.643
50155SOL     OW52361  11.248   5.101   1.265
50155SOL    HW152362  11.228   5.043   1.192
50155SOL    HW252363  11.341   5.087   1.283
50156SOL     OW52364  14.049   8.712   5.739
50156SOL    HW152365  14.028   8.761   5.819
50156SOL    HW252366  14.099   8.637   5.769
50157SOL     OW52367  12.388   9.087   7.300
50157SOL    HW152368  12.368   9.022   7.232
50157SOL    HW252369  12.365   9.043   7.382
50158SOL     OW52370   1.560   8.256   8.970
50158SOL    HW152371   1.493   8.324   8.973
50158SOL    HW252372   1.526   8.187   9.026
50159SOL     OW52373   2.597   6.359  13.650
50159SOL    HW152374   2.594   6.378  13.744
50159SOL    HW252375   2.539   6.423  13.611
50160SOL     OW52376   8.356   8.545  11.878
50160SOL    HW152377   8.389   8.634  11.874
50160SOL    HW252378   8.317   8.530  11.791
50161SOL     OW52379  12.775   7.397   8.107
50161SOL    HW152380  12.771   7.336   8.033
50161SOL    HW252381  12.851   7.367   8.158
50162SOL     OW52382   0.772  13.739   9.990
50162SOL    HW152383   0.799  13.813  10.044
50162SOL    HW252384   0.841  13.674  10.000
50163SOL     OW52385   1.857  12.144   4.648
50163SOL    HW152386   1.869  12.217   4.587
50163SOL    HW252387   1.883  12.179   4.733
50164SOL     OW52388  10.357   0.825  13.687
50164SOL    HW152389  10.340   0.744  13.639
50164SOL    HW252390  10.416   0.800  13.757
50165SOL     OW52391  13.374  12.809   9.531
50165SOL    HW152392  13.394  12.718   9.510
50165SOL    HW252393  13.434  12.831   9.602
50166SOL     OW52394   2.234   8.904  11.082
50166SOL    HW152395   2.191   8.835  11.032
50166SOL    HW252396   2.282   8.857  11.150
50167SOL     OW52397  11.533   6.864   1.999
50167SOL    HW152398  11.628   6.861   1.983
50167SOL    HW252399  11.498   6.791   1.948
50168SOL     OW52400   4.216  10.890   1.772
50168SOL    HW152401   4.257  10.874   1.687
50168SOL    HW252402   4.127  10.857   1.762
50169SOL     OW52403   2.929  11.705   8.699
50169SOL    HW152404   3.005  11.658   8.665
50169SOL    HW252405   2.869  11.711   8.624
50170SOL     OW52406   2.371   3.221   4.254
50170SOL    HW152407   2.290   3.171   4.240
50170SOL    HW252408   2.386   3.216   4.348
50171SOL     OW52409   1.958   2.712   8.680
50171SOL    HW152410   1.948   2.620   8.703
50171SOL    HW252411   1.869   2.747   8.683
50172SOL     OW52412   0.155  11.829   3.540
50172SOL    HW152413   0.227  11.775   3.570
50172SOL    HW252414   0.190  11.877   3.465
50173SOL     OW52415  13.566   9.281   7.303
50173SOL    HW152416  13.573   9.188   7.283
50173SOL    HW252417  13.640   9.321   7.257
50174SOL     OW52418   7.526   7.846   5.611
50174SOL    HW152419   7.462   7.803   5.554
50174SOL    HW252420   7.503   7.938   5.607
50175SOL     OW52421   5.224  10.026   3.058
50175SOL    HW152422   5.270   9.976   3.125
50175SOL    HW252423   5.225  10.116   3.090
50176SOL     OW52424  13.515  12.642   5.115
50176SOL    HW152425  13.493  12.644   5.022
50176SOL    HW252426  13.439  12.603   5.157
50177SOL     OW52427   0.677  14.729  11.325
50177SOL    HW152428   0.690  14.734  11.230
50177SOL    HW252429   0.763  14.751  11.362
50178SOL     OW52430   5.806   1.926   1.558
50178SOL    HW152431   5.832   1.950   1.469
50178SOL    HW252432   5.863   1.980   1.614
50179SOL     OW52433   0.619  10.264   9.095
50179SOL    HW152434   0.557  10.297   9.160
50179SOL    HW252435   0.623  10.333   9.028
50180SOL     OW52436   7.726   8.474   3.251
50180SOL    HW152437   7.779   8.501   3.326
50180SOL    HW252438   7.735   8.544   3.187
50181SOL     OW52439   4.268   5.978   7.756
50181SOL    HW152440   4.258   6.073   7.759
50181SOL    HW252441   4.183   5.944   7.783
50182SOL     OW52442   2.860   5.884  10.027
50182SOL    HW152443   2.955   5.889  10.039
50182SOL    HW252444   2.847   5.815   9.963
50183SOL     OW52445   5.681   5.985   3.820
50183SOL    HW152446   5.755   5.935   3.787
50183SOL    HW252447   5.665   5.950   3.908
50184SOL     OW52448  12.240   2.331   6.606
50184SOL    HW152449  12.162   2.278   6.588
50184SOL    HW252450  12.206   2.407   6.654
50185SOL     OW52451   4.986   6.237   9.418
50185SOL    HW152452   5.011   6.212   9.329
50185SOL    HW252453   4.941   6.160   9.452
50186SOL     OW52454   2.181   1.615   2.461
50186SOL    HW152455   2.254   1.584   2.406
50186SOL    HW252456   2.150   1.694   2.417
50187SOL     OW52457   9.028  13.690   0.293
50187SOL    HW152458   9.055  13.719   0.380
50187SOL    HW252459   8.964  13.755   0.265
50188SOL     OW52460   2.379  10.896  11.910
50188SOL    HW152461   2.304  10.917  11.966
50188SOL    HW252462   2.455  10.930  11.958
50189SOL     OW52463   4.528  12.906   4.808
50189SOL    HW152464   4.508  12.844   4.738
50189SOL    HW252465   4.443  12.937   4.838
50190SOL     OW52466  10.634  10.826   9.195
50190SOL    HW152467  10.605  10.776   9.271
50190SOL    HW252468  10.598  10.914   9.209
50191SOL     OW52469   8.684   6.806  14.458
50191SOL    HW152470   8.648   6.846  14.379
50191SOL    HW252471   8.642   6.851  14.531
50192SOL     OW52472  13.522   6.210   3.393
50192SOL    HW152473  13.552   6.301   3.395
50192SOL    HW252474  13.450   6.207   3.455
50193SOL     OW52475   1.407   4.040  13.681
50193SOL    HW152476   1.477   3.976  13.670
50193SOL    HW252477   1.355   4.006  13.753
50194SOL     OW52478  11.589   3.711  11.301
50194SOL    HW152479  11.684   3.714  11.315
50194SOL    HW252480  11.575   3.638  11.241
50195SOL     OW52481  12.886  11.202   5.251
50195SOL    HW152482  12.976  11.232   5.254
50195SOL    HW252483  12.879  11.139   5.323
50196SOL     OW52484   3.358  12.389   2.716
50196SOL    HW152485   3.359  12.334   2.795
50196SOL    HW252486   3.386  12.475   2.746
50197SOL     OW52487   3.425  14.530   5.218
50197SOL    HW152488   3.481  14.562   5.288
50197SOL    HW252489   3.355  14.595   5.210
50198SOL     OW52490   6.036   2.784  14.129
50198SOL    HW152491   5.967   2.761  14.067
50198SOL    HW252492   6.115   2.744  14.093
50199SOL     OW52493  11.697   2.458   2.677
50199SOL    HW152494  11.732   2.391   2.619
50199SOL    HW252495  11.771   2.515   2.695
50200SOL     OW52496   9.987   8.388   9.351
50200SOL    HW152497   9.998   8.297   9.323
50200SOL    HW252498  10.025   8.391   9.439
50201SOL     OW52499  11.535  13.865   3.433
50201SOL    HW152500  11.575  13.822   3.509
50201SOL    HW252501  11.454  13.902   3.466
50202SOL     OW52502  14.778   4.720  11.177
50202SOL    HW152503  14.782   4.773  11.256
50202SOL    HW252504  14.824   4.639  11.199
50203SOL     OW52505  10.414   4.422  12.717
50203SOL    HW152506  10.408   4.417  12.812
50203SOL    HW252507  10.324   4.410  12.687
50204SOL     OW52508   7.937   5.486   2.367
50204SOL    HW152509   7.984   5.439   2.297
50204SOL    HW252510   7.849   5.497   2.332
50205SOL     OW52511  10.940   5.472   1.990
50205SOL    HW152512  10.978   5.488   1.904
50205SOL    HW252513  10.985   5.535   2.048
50206SOL     OW52514   0.887   1.588  10.416
50206SOL    HW152515   0.927   1.542  10.341
50206SOL    HW252516   0.954   1.584  10.484
50207SOL     OW52517  13.788  13.994   5.416
50207SOL    HW152518  13.766  13.917   5.364
50207SOL    HW252519  13.738  13.983   5.497
50208SOL     OW52520  13.895   7.037   7.395
50208SOL    HW152521  13.941   6.954   7.383
50208SOL    HW252522  13.841   7.047   7.317
50209SOL     OW52523   1.087   4.692  14.492
50209SOL    HW152524   1.148   4.736  14.551
50209SOL    HW252525   1.107   4.728  14.406
50210SOL     OW52526  13.283   7.120   2.801
50210SOL    HW152527  13.311   7.108   2.711
50210SOL    HW252528  13.334   7.194   2.833
50211SOL     OW52529  12.990   5.638   6.108
50211SOL    HW152530  12.956   5.724   6.130
50211SOL    HW252531  13.035   5.650   6.025
50212SOL     OW52532   9.691   0.119  14.265
50212SOL    HW152533   9.694   0.214  14.257
50212SOL    HW252534   9.669   0.103  14.357
50213SOL     OW52535  12.582   6.687   0.264
50213SOL    HW152536  12.646   6.647   0.205
50213SOL    HW252537  12.499   6.684   0.216
50214SOL     OW52538   4.840   1.817   5.309
50214SOL    HW152539   4.888   1.835   5.390
50214SOL    HW252540   4.812   1.903   5.278
50215SOL     OW52541   1.788   3.106   1.428
50215SOL    HW152542   1.779   3.116   1.333
50215SOL    HW252543   1.698   3.098   1.460
50216SOL     OW52544  11.946   7.043   8.045
50216SOL    HW152545  11.856   7.031   8.075
50216SOL    HW252546  11.973   7.127   8.081
50217SOL     OW52547   5.933   7.737   3.743
50217SOL    HW152548   5.880   7.816   3.732
50217SOL    HW252549   6.010   7.767   3.790
50218SOL     OW52550  10.999   0.919   6.923
50218SOL    HW152551  10.965   0.981   6.859
50218SOL    HW252552  10.929   0.854   6.933
50219SOL     OW52553  14.850   8.041   0.540
50219SOL    HW152554  14.848   7.947   0.556
50219SOL    HW252555  14.861   8.048   0.445
50220SOL     OW52556  13.092   1.276  11.376
50220SOL    HW152557  13.110   1.290  11.283
50220SOL    HW252558  13.004   1.239  11.378
50221SOL     OW52559   5.647  10.460   2.928
50221SOL    HW152560   5.577  10.395   2.934
50221SOL    HW252561   5.705  10.426   2.860
50222SOL     OW52562   7.526  10.105   8.946
50222SOL    HW152563   7.556  10.075   9.032
50222SOL    HW252564   7.512  10.199   8.957
50223SOL     OW52565   4.285  10.206   5.081
50223SOL    HW152566   4.200  10.243   5.102
50223SOL    HW252567   4.266  10.125   5.033
50224SOL     OW52568   5.785   5.512   2.528
50224SOL    HW152569   5.862   5.532   2.474
50224SOL    HW252570   5.819   5.502   2.616
50225SOL     OW52571   3.306   0.670   7.192
50225SOL    HW152572   3.367   0.597   7.178
50225SOL    HW252573   3.363   0.745   7.209
50226SOL     OW52574   9.722   2.644  12.830
50226SOL    HW152575   9.778   2.686  12.765
50226SOL    HW252576   9.714   2.709  12.900
50227SOL     OW52577   1.918   1.144   8.324
50227SOL    HW152578   1.927   1.172   8.415
50227SOL    HW252579   1.830   1.170   8.299
50228SOL     OW52580   5.369   1.834  10.233
50228SOL    HW152581   5.388   1.911  10.288
50228SOL    HW252582   5.308   1.782  10.286
50229SOL     OW52583   8.974   8.144   2.010
50229SOL    HW152584   9.008   8.060   2.042
50229SOL    HW252585   8.890   8.154   2.056
50230SOL     OW52586   5.966   1.522   5.284
50230SOL    HW152587   6.009   1.454   5.232
50230SOL    HW252588   6.020   1.600   5.272
50231SOL     OW52589   9.545   6.028  12.554
50231SOL    HW152590   9.478   6.078  12.508
50231SOL    HW252591   9.529   5.937  12.529
50232SOL     OW52592   8.130   6.766  10.717
50232SOL    HW152593   8.154   6.816  10.795
50232SOL    HW252594   8.066   6.822  10.673
50233SOL     OW52595   8.881   6.868   8.276
50233SOL    HW152596   8.974   6.850   8.266
50233SOL    HW252597   8.866   6.947   8.225
50234SOL     OW52598  12.015  13.956   7.268
50234SOL    HW152599  12.084  13.904   7.228
50234SOL    HW252600  11.973  13.896   7.330
50235SOL     OW52601  10.361  12.642  12.696
50235SOL    HW152602  10.378  12.553  12.727
50235SOL    HW252603  10.268  12.643  12.674
50236SOL     OW52604  13.580  14.381   6.779
50236SOL    HW152605  13.523  14.318   6.735
50236SOL    HW252606  13.583  14.352   6.870
50237SOL     OW52607   7.742   5.126   0.102
50237SOL    HW152608   7.697   5.042   0.090
50237SOL    HW252609   7.773   5.124   0.193
50238SOL     OW52610   4.398   7.329   6.878
50238SOL    HW152611   4.409   7.389   6.952
50238SOL    HW252612   4.487   7.309   6.850
50239SOL     OW52613  13.682   1.819   1.738
50239SOL    HW152614  13.649   1.880   1.804
50239SOL    HW252615  13.774   1.808   1.760
50240SOL     OW52616  10.199   7.891   6.398
50240SOL    HW152617  10.135   7.834   6.355
50240SOL    HW252618  10.232   7.839   6.471
50241SOL     OW52619   7.769  12.786   6.665
50241SOL    HW152620   7.722  12.849   6.610
50241SOL    HW252621   7.727  12.791   6.750
50242SOL     OW52622   7.016   6.003  13.751
50242SOL    HW152623   7.080   6.066  13.719
50242SOL    HW252624   7.054   5.968  13.832
50243SOL     OW52625   8.626   9.785   5.275
50243SOL    HW152626   8.555   9.724   5.296
50243SOL    HW252627   8.630   9.784   5.179
50244SOL     OW52628   8.654   2.400   4.308
50244SOL    HW152629   8.712   2.367   4.377
50244SOL    HW252630   8.709   2.403   4.230
50245SOL     OW52631  10.990   4.646   8.552
50245SOL    HW152632  10.962   4.736   8.563
50245SOL    HW252633  11.056   4.649   8.483
50246SOL     OW52634   1.272  14.046   8.513
50246SOL    HW152635   1.189  14.031   8.559
50246SOL    HW252636   1.263  13.997   8.432
50247SOL     OW52637  13.864   7.965   5.421
50247SOL    HW152638  13.886   7.877   5.451
50247SOL    HW252639  13.839   7.954   5.329
50248SOL     OW52640   3.908  10.603  11.683
50248SOL    HW152641   3.951  10.623  11.600
50248SOL    HW252642   3.975  10.560  11.735
50249SOL     OW52643   7.446   6.168   9.776
50249SOL    HW152644   7.518   6.140   9.720
50249SOL    HW252645   7.455   6.263   9.782
50250SOL     OW52646  13.653   6.380   9.312
50250SOL    HW152647  13.564   6.409   9.292
50250SOL    HW252648  13.703   6.462   9.323
50251SOL     OW52649  13.133  14.486   3.733
50251SOL    HW152650  13.044  14.510   3.708
50251SOL    HW252651  13.188  14.531   3.670
50252SOL     OW52652   5.530   3.731   6.163
50252SOL    HW152653   5.460   3.772   6.113
50252SOL    HW252654   5.609   3.776   6.135
50253SOL     OW52655  13.971   8.740   5.171
50253SOL    HW152656  14.027   8.775   5.241
50253SOL    HW252657  14.028   8.680   5.123
50254SOL     OW52658   8.808   7.035   3.345
50254SOL    HW152659   8.894   7.056   3.310
50254SOL    HW252660   8.782   7.114   3.393
50255SOL     OW52661  13.287   3.932   7.335
50255SOL    HW152662  13.257   3.943   7.244
50255SOL    HW252663  13.260   4.014   7.378
50256SOL     OW52664   4.637   0.350   5.258
50256SOL    HW152665   4.731   0.369   5.252
50256SOL    HW252666   4.597   0.435   5.274
50257SOL     OW52667  12.248   7.884   5.587
50257SOL    HW152668  12.211   7.969   5.608
50257SOL    HW252669  12.343   7.896   5.599
50258SOL     OW52670  13.966  14.573   9.324
50258SOL    HW152671  14.059  14.564   9.342
50258SOL    HW252672  13.952  14.668   9.315
50259SOL     OW52673   6.896  12.664   1.936
50259SOL    HW152674   6.975  12.716   1.920
50259SOL    HW252675   6.825  12.716   1.898
50260SOL     OW52676   4.828   8.950  10.800
50260SOL    HW152677   4.843   8.982  10.889
50260SOL    HW252678   4.845   9.025  10.743
50261SOL     OW52679   2.238   1.337  10.665
50261SOL    HW152680   2.188   1.369  10.740
50261SOL    HW252681   2.327   1.370  10.679
50262SOL     OW52682   3.581   5.546   5.915
50262SOL    HW152683   3.491   5.561   5.943
50262SOL    HW252684   3.588   5.587   5.829
50263SOL     OW52685   3.170   6.537   8.336
50263SOL    HW152686   3.193   6.477   8.265
50263SOL    HW252687   3.203   6.495   8.415
50264SOL     OW52688  10.570   7.650   7.834
50264SOL    HW152689  10.545   7.584   7.898
50264SOL    HW252690  10.520   7.627   7.755
50265SOL     OW52691   6.463   2.802  12.853
50265SOL    HW152692   6.416   2.729  12.811
50265SOL    HW252693   6.428   2.803  12.942
50266SOL     OW52694  12.615   1.462  12.288
50266SOL    HW152695  12.661   1.546  12.292
50266SOL    HW252696  12.657   1.415  12.216
50267SOL     OW52697   3.257   1.097   4.300
50267SOL    HW152698   3.315   1.039   4.250
50267SOL    HW252699   3.191   1.039   4.338
50268SOL     OW52700  10.356  10.433   7.495
50268SOL    HW152701  10.347  10.349   7.541
50268SOL    HW252702  10.431  10.475   7.538
50269SOL     OW52703   2.728   0.295   6.144
50269SOL    HW152704   2.658   0.325   6.086
50269SOL    HW252705   2.808   0.327   6.103
50270SOL     OW52706   6.021   8.080  10.503
50270SOL    HW152707   6.073   8.093  10.424
50270SOL    HW252708   6.067   8.128  10.572
50271SOL     OW52709   7.452   6.118   2.147
50271SOL    HW152710   7.416   6.200   2.113
50271SOL    HW252711   7.534   6.143   2.190
50272SOL     OW52712   4.696   4.837   5.537
50272SOL    HW152713   4.667   4.746   5.549
50272SOL    HW252714   4.670   4.881   5.618
50273SOL     OW52715   3.430   7.415  11.600
50273SOL    HW152716   3.463   7.390  11.514
50273SOL    HW252717   3.342   7.378  11.604
50274SOL     OW52718  10.183   8.221  11.354
50274SOL    HW152719  10.168   8.313  11.332
50274SOL    HW252720  10.146   8.211  11.442
50275SOL     OW52721   1.626  14.584   2.398
50275SOL    HW152722   1.566  14.614   2.466
50275SOL    HW252723   1.713  14.586   2.439
50276SOL     OW52724   3.429   2.696   5.250
50276SOL    HW152725   3.418   2.609   5.212
50276SOL    HW252726   3.366   2.751   5.203
50277SOL     OW52727   9.758  12.795   8.843
50277SOL    HW152728   9.727  12.885   8.856
50277SOL    HW252729   9.733  12.775   8.753
50278SOL     OW52730  12.076   5.671   8.194
50278SOL    HW152731  12.164   5.633   8.194
50278SOL    HW252732  12.033   5.633   8.270
50279SOL     OW52733   0.438   3.571   3.566
50279SOL    HW152734   0.501   3.640   3.586
50279SOL    HW252735   0.414   3.587   3.474
50280SOL     OW52736  14.130   4.119  12.087
50280SOL    HW152737  14.050   4.068  12.100
50280SOL    HW252738  14.101   4.210  12.093
50281SOL     OW52739   5.468  13.750   3.146
50281SOL    HW152740   5.469  13.713   3.235
50281SOL    HW252741   5.507  13.837   3.156
50282SOL     OW52742   3.092  11.267   1.565
50282SOL    HW152743   3.077  11.226   1.651
50282SOL    HW252744   3.006  11.297   1.538
50283SOL     OW52745  10.258   0.483   7.016
50283SOL    HW152746  10.191   0.533   7.063
50283SOL    HW252747  10.341   0.525   7.040
50284SOL     OW52748  13.477  12.576   1.419
50284SOL    HW152749  13.404  12.525   1.384
50284SOL    HW252750  13.479  12.553   1.512
50285SOL     OW52751  14.069   2.101   3.963
50285SOL    HW152752  14.020   2.167   4.012
50285SOL    HW252753  14.140   2.150   3.920
50286SOL     OW52754   5.487  10.380   2.639
50286SOL    HW152755   5.535  10.439   2.582
50286SOL    HW252756   5.521  10.293   2.618
50287SOL     OW52757   0.817   7.322  13.427
50287SOL    HW152758   0.879   7.357  13.490
50287SOL    HW252759   0.859   7.241  13.395
50288SOL     OW52760   4.799   9.729   9.261
50288SOL    HW152761   4.863   9.670   9.302
50288SOL    HW252762   4.828   9.816   9.286
50289SOL     OW52763   5.308   6.730   8.410
50289SOL    HW152764   5.245   6.749   8.341
50289SOL    HW252765   5.260   6.748   8.491
50290SOL     OW52766   3.071  10.143   5.778
50290SOL    HW152767   3.024  10.177   5.855
50290SOL    HW252768   3.097  10.222   5.730
50291SOL     OW52769   8.640   0.552  12.157
50291SOL    HW152770   8.599   0.631  12.122
50291SOL    HW252771   8.711   0.533  12.096
50292SOL     OW52772  10.722   9.092   4.472
50292SOL    HW152773  10.805   9.045   4.463
50292SOL    HW252774  10.723   9.128   4.561
50293SOL     OW52775   3.940   5.447   6.606
50293SOL    HW152776   4.018   5.428   6.658
50293SOL    HW252777   3.914   5.362   6.571
50294SOL     OW52778   8.288  10.949   0.651
50294SOL    HW152779   8.246  10.938   0.565
50294SOL    HW252780   8.230  10.903   0.712
50295SOL     OW52781   6.797   9.954   5.002
50295SOL    HW152782   6.713  10.000   5.009
50295SOL    HW252783   6.782   9.887   4.935
50296SOL     OW52784  11.712   7.705   8.459
50296SOL    HW152785  11.658   7.639   8.503
50296SOL    HW252786  11.752   7.658   8.386
50297SOL     OW52787   9.647  13.830  12.798
50297SOL    HW152788   9.736  13.858  12.818
50297SOL    HW252789   9.638  13.845  12.703
50298SOL     OW52790   8.704   0.220   9.052
50298SOL    HW152791   8.640   0.152   9.069
50298SOL    HW252792   8.776   0.201   9.113
50299SOL     OW52793   0.040   9.543  10.761
50299SOL    HW152794   0.009   9.610  10.700
50299SOL    HW252795   0.133   9.563  10.773
50300SOL     OW52796   3.547   7.690  10.513
50300SOL    HW152797   3.627   7.682  10.461
50300SOL    HW252798   3.510   7.602  10.514
50301SOL     OW52799   3.467  10.164   1.032
50301SOL    HW152800   3.382  10.207   1.044
50301SOL    HW252801   3.509  10.214   0.961
50302SOL     OW52802   0.142  13.957   3.065
50302SOL    HW152803   0.074  13.968   2.998
50302SOL    HW252804   0.198  13.888   3.031
50303SOL     OW52805   9.880  12.188  10.058
50303SOL    HW152806   9.919  12.119  10.111
50303SOL    HW252807   9.922  12.181   9.973
50304SOL     OW52808   1.662   8.727   0.169
50304SOL    HW152809   1.731   8.728   0.236
50304SOL    HW252810   1.672   8.642   0.126
50305SOL     OW52811  13.180   8.953   4.239
50305SOL    HW152812  13.127   8.922   4.313
50305SOL    HW252813  13.169   9.048   4.241
50306SOL     OW52814   1.312   7.110   5.781
50306SOL    HW152815   1.326   7.029   5.732
50306SOL    HW252816   1.329   7.179   5.716
50307SOL     OW52817   0.598  14.288   4.583
50307SOL    HW152818   0.666  14.249   4.637
50307SOL    HW252819   0.518  14.240   4.606
50308SOL     OW52820  11.062  12.828  12.125
50308SOL    HW152821  11.011  12.892  12.075
50308SOL    HW252822  11.000  12.789  12.185
50309SOL     OW52823   4.160   8.819   3.960
50309SOL    HW152824   4.206   8.856   4.035
50309SOL    HW252825   4.157   8.890   3.896
50310SOL     OW52826  14.607   1.744   5.827
50310SOL    HW152827  14.670   1.672   5.827
50310SOL    HW252828  14.655   1.819   5.861
50311SOL     OW52829   6.949  10.462   3.667
50311SOL    HW152830   6.910  10.396   3.608
50311SOL    HW252831   6.988  10.411   3.737
50312SOL     OW52832   9.858   9.579  14.098
50312SOL    HW152833   9.860   9.603  14.006
50312SOL    HW252834   9.778   9.620  14.132
50313SOL     OW52835   1.728   1.390  13.845
50313SOL    HW152836   1.743   1.296  13.859
50313SOL    HW252837   1.804   1.433  13.884
50314SOL     OW52838  10.544   8.440   9.754
50314SOL    HW152839  10.629   8.398   9.768
50314SOL    HW252840  10.486   8.370   9.725
50315SOL     OW52841   3.239   0.560   1.501
50315SOL    HW152842   3.317   0.546   1.554
50315SOL    HW252843   3.225   0.655   1.503
50316SOL     OW52844   0.113   3.734  14.394
50316SOL    HW152845   0.060   3.785  14.456
50316SOL    HW252846   0.168   3.799  14.351
50317SOL     OW52847   9.753   7.109  14.708
50317SOL    HW152848   9.784   7.164  14.779
50317SOL    HW252849   9.728   7.170  14.639
50318SOL     OW52850   1.901   5.856  14.503
50318SOL    HW152851   1.852   5.867  14.584
50318SOL    HW252852   1.904   5.943  14.464
50319SOL     OW52853   2.039  13.938   1.505
50319SOL    HW152854   2.120  13.958   1.552
50319SOL    HW252855   1.984  14.015   1.519
50320SOL     OW52856   0.319   1.484   8.050
50320SOL    HW152857   0.335   1.578   8.042
50320SOL    HW252858   0.354   1.447   7.969
50321SOL     OW52859   2.720  10.231  14.861
50321SOL    HW152860   2.790  10.182   0.036
50321SOL    HW252861   2.699  10.302   0.051
50322SOL     OW52862   2.497   4.997   7.846
50322SOL    HW152863   2.453   5.077   7.873
50322SOL    HW252864   2.485   4.937   7.920
50323SOL     OW52865   2.876   6.035   9.251
50323SOL    HW152866   2.862   6.121   9.292
50323SOL    HW252867   2.904   6.056   9.162
50324SOL     OW52868   4.725   2.332   8.851
50324SOL    HW152869   4.663   2.343   8.779
50324SOL    HW252870   4.803   2.381   8.824
50325SOL     OW52871   8.534   5.782   9.174
50325SOL    HW152872   8.467   5.850   9.174
50325SOL    HW252873   8.526   5.740   9.260
50326SOL     OW52874   8.223   8.580  13.355
50326SOL    HW152875   8.243   8.649  13.292
50326SOL    HW252876   8.199   8.627  13.435
50327SOL     OW52877  14.352  13.127  14.171
50327SOL    HW152878  14.434  13.169  14.147
50327SOL    HW252879  14.334  13.066  14.099
50328SOL     OW52880   6.021  13.984   2.042
50328SOL    HW152881   6.051  13.955   2.129
50328SOL    HW252882   6.029  14.079   2.045
50329SOL     OW52883   9.928  12.712   9.456
50329SOL    HW152884   9.894  12.639   9.403
50329SOL    HW252885   9.851  12.746   9.502
50330SOL     OW52886  14.555   4.171   5.226
50330SOL    HW152887  14.646   4.192   5.204
50330SOL    HW252888  14.553   4.076   5.233
50331SOL     OW52889   3.800   3.870   5.666
50331SOL    HW152890   3.730   3.905   5.721
50331SOL    HW252891   3.870   3.846   5.728
50332SOL     OW52892  12.480   8.239   0.549
50332SOL    HW152893  12.445   8.327   0.558
50332SOL    HW252894  12.412   8.191   0.502
50333SOL     OW52895  12.182  11.015  12.790
50333SOL    HW152896  12.168  10.980  12.702
50333SOL    HW252897  12.232  11.096  12.777
50334SOL     OW52898   8.982   7.308  10.984
50334SOL    HW152899   8.999   7.374  11.051
50334SOL    HW252900   8.956   7.230  11.033
50335SOL     OW52901   8.397  10.235   1.848
50335SOL    HW152902   8.425  10.189   1.769
50335SOL    HW252903   8.359  10.317   1.816
50336SOL     OW52904   6.394   8.126   4.215
50336SOL    HW152905   6.451   8.082   4.152
50336SOL    HW252906   6.453   8.160   4.282
50337SOL     OW52907   4.833   8.513  10.270
50337SOL    HW152908   4.842   8.591  10.324
50337SOL    HW252909   4.921   8.476  10.266
50338SOL     OW52910  11.021  12.306  13.100
50338SOL    HW152911  11.020  12.282  13.192
50338SOL    HW252912  11.105  12.350  13.087
50339SOL     OW52913   4.653   2.482   6.283
50339SOL    HW152914   4.695   2.524   6.208
50339SOL    HW252915   4.564   2.463   6.253
50340SOL     OW52916  14.280   1.630   2.758
50340SOL    HW152917  14.255   1.541   2.781
50340SOL    HW252918  14.341   1.657   2.827
50341SOL     OW52919   1.104  14.622   3.626
50341SOL    HW152920   1.019  14.643   3.665
50341SOL    HW252921   1.110  14.680   3.550
50342SOL     OW52922   9.072  12.965  13.880
50342SOL    HW152923   9.135  12.898  13.904
50342SOL    HW252924   9.124  13.036  13.843
50343SOL     OW52925  13.654  10.855   9.611
50343SOL    HW152926  13.664  10.946   9.639
50343SOL    HW252927  13.652  10.859   9.516
50344SOL     OW52928   7.245   4.256   1.791
50344SOL    HW152929   7.178   4.220   1.849
50344SOL    HW252930   7.260   4.344   1.825
50345SOL     OW52931  12.198   1.499  12.238
50345SOL    HW152932  12.225   1.420  12.285
50345SOL    HW252933  12.280   1.534  12.202
50346SOL     OW52934   7.874   0.030   3.574
50346SOL    HW152935   7.868  14.814   3.533
50346SOL    HW252936   7.895   0.090   3.503
50347SOL     OW52937  13.699   6.861   1.190
50347SOL    HW152938  13.644   6.939   1.174
50347SOL    HW252939  13.728   6.834   1.103
50348SOL     OW52940   2.413   8.046   0.025
50348SOL    HW152941   2.455   8.007  14.818
50348SOL    HW252942   2.483   8.056   0.089
50349SOL     OW52943   9.942   2.973   1.089
50349SOL    HW152944   9.878   2.904   1.071
50349SOL    HW252945   9.930   2.992   1.182
50350SOL     OW52946   5.811   6.483   2.887
50350SOL    HW152947   5.863   6.475   2.807
50350SOL    HW252948   5.811   6.395   2.924
50351SOL     OW52949   9.873   4.998   5.841
50351SOL    HW152950   9.813   4.931   5.810
50351SOL    HW252951   9.817   5.072   5.864
50352SOL     OW52952  11.700  12.816   3.161
50352SOL    HW152953  11.703  12.731   3.117
50352SOL    HW252954  11.636  12.867   3.112
50353SOL     OW52955  10.391   7.580   9.682
50353SOL    HW152956  10.408   7.488   9.661
50353SOL    HW252957  10.334   7.610   9.611
50354SOL     OW52958   4.389   6.031  11.018
50354SOL    HW152959   4.443   6.054  11.094
50354SOL    HW252960   4.328   5.966  11.051
50355SOL     OW52961  14.680   7.097   4.587
50355SOL    HW152962  14.640   7.011   4.574
50355SOL    HW252963  14.637   7.133   4.665
50356SOL     OW52964  12.146  14.807   6.551
50356SOL    HW152965  12.056  14.827   6.528
50356SOL    HW252966  12.199  14.865   6.496
50357SOL     OW52967  12.240  11.623   5.135
50357SOL    HW152968  12.317  11.667   5.173
50357SOL    HW252969  12.256  11.624   5.041
50358SOL     OW52970   7.549  11.451   0.285
50358SOL    HW152971   7.500  11.533   0.270
50358SOL    HW252972   7.592  11.464   0.369
50359SOL     OW52973   8.949   4.953   5.397
50359SOL    HW152974   8.945   4.903   5.479
50359SOL    HW252975   8.959   4.887   5.329
50360SOL     OW52976   8.479   5.489   8.565
50360SOL    HW152977   8.393   5.533   8.564
50360SOL    HW252978   8.487   5.451   8.477
50361SOL     OW52979   7.515   5.379   4.647
50361SOL    HW152980   7.455   5.412   4.714
50361SOL    HW252981   7.561   5.457   4.615
50362SOL     OW52982  10.121   7.479  12.700
50362SOL    HW152983  10.194   7.434  12.659
50362SOL    HW252984  10.161   7.540  12.762
50363SOL     OW52985  10.725  11.316  11.288
50363SOL    HW152986  10.725  11.367  11.369
50363SOL    HW252987  10.743  11.227  11.315
50364SOL     OW52988   6.574   8.830   0.084
50364SOL    HW152989   6.586   8.924   0.070
50364SOL    HW252990   6.486   8.823   0.121
50365SOL     OW52991   2.124   7.537   3.109
50365SOL    HW152992   2.169   7.544   3.193
50365SOL    HW252993   2.083   7.623   3.097
50366SOL     OW52994  12.628   4.878   1.671
50366SOL    HW152995  12.600   4.933   1.598
50366SOL    HW252996  12.646   4.793   1.632
50367SOL     OW52997   1.823   6.590  11.991
50367SOL    HW152998   1.843   6.497  11.982
50367SOL    HW252999   1.868   6.618  12.071
50368SOL     OW53000   7.707   8.193   3.171
50368SOL    HW153001   7.629   8.212   3.117
50368SOL    HW253002   7.719   8.272   3.225
50369SOL     OW53003  11.831  13.843   2.424
50369SOL    HW153004  11.793  13.885   2.348
50369SOL    HW253005  11.836  13.912   2.490
50370SOL     OW53006   7.991   7.745   3.196
50370SOL    HW153007   7.962   7.835   3.187
50370SOL    HW253008   8.037   7.726   3.115
50371SOL     OW53009   6.729  14.119   7.464
50371SOL    HW153010   6.786  14.065   7.518
50371SOL    HW253011   6.779  14.134   7.384
50372SOL     OW53012   3.514   1.938  10.839
50372SOL    HW153013   3.536   1.855  10.882
50372SOL    HW253014   3.523   1.920  10.745
50373SOL     OW53015   4.343   5.149   2.551
50373SOL    HW153016   4.422   5.174   2.503
50373SOL    HW253017   4.350   5.196   2.635
50374SOL     OW53018   5.979  11.405   8.576
50374SOL    HW153019   6.001  11.401   8.483
50374SOL    HW253020   5.929  11.325   8.592
50375SOL     OW53021   3.507  12.572  12.442
50375SOL    HW153022   3.562  12.640  12.480
50375SOL    HW253023   3.508  12.501  12.506
50376SOL     OW53024   8.500  14.725  12.437
50376SOL    HW153025   8.507  14.698  12.346
50376SOL    HW253026   8.549  14.806  12.443
50377SOL     OW53027   2.653   8.147   8.375
50377SOL    HW153028   2.701   8.196   8.308
50377SOL    HW253029   2.655   8.203   8.452
50378SOL     OW53030   2.749  13.659   6.050
50378SOL    HW153031   2.753  13.637   5.957
50378SOL    HW253032   2.832  13.703   6.069
50379SOL     OW53033   1.835   7.975   8.400
50379SOL    HW153034   1.787   7.906   8.445
50379SOL    HW253035   1.820   8.053   8.453
50380SOL     OW53036   5.488   2.749  11.912
50380SOL    HW153037   5.491   2.717  12.002
50380SOL    HW253038   5.535   2.684  11.861
50381SOL     OW53039   8.293   1.522   7.351
50381SOL    HW153040   8.240   1.539   7.429
50381SOL    HW253041   8.316   1.430   7.358
50382SOL     OW53042  14.858   9.313   0.600
50382SOL    HW153043  14.791   9.281   0.660
50382SOL    HW253044   0.055   9.353   0.657
50383SOL     OW53045  11.077  11.043  14.081
50383SOL    HW153046  11.161  10.997  14.081
50383SOL    HW253047  11.019  10.985  14.131
50384SOL     OW53048   2.418  12.449  11.926
50384SOL    HW153049   2.432  12.363  11.887
50384SOL    HW253050   2.489  12.459  11.989
50385SOL     OW53051   6.006   3.149  11.306
50385SOL    HW153052   6.096   3.130  11.334
50385SOL    HW253053   5.956   3.148  11.388
50386SOL     OW53054   6.568   5.826   2.295
50386SOL    HW153055   6.543   5.809   2.386
50386SOL    HW253056   6.500   5.884   2.262
50387SOL     OW53057   2.185   3.902  10.278
50387SOL    HW153058   2.215   3.966  10.342
50387SOL    HW253059   2.090   3.910  10.278
50388SOL     OW53060  13.442   6.998   3.594
50388SOL    HW153061  13.460   6.905   3.605
50388SOL    HW253062  13.353   7.002   3.557
50389SOL     OW53063   7.297   4.713  12.162
50389SOL    HW153064   7.323   4.782  12.100
50389SOL    HW253065   7.212   4.683  12.131
50390SOL     OW53066   9.122   3.069   2.164
50390SOL    HW153067   9.118   3.163   2.149
50390SOL    HW253068   9.207   3.054   2.206
50391SOL     OW53069   2.754   3.851   5.398
50391SOL    HW153070   2.699   3.811   5.331
50391SOL    HW253071   2.706   3.838   5.480
50392SOL     OW53072   2.069   0.974   7.082
50392SOL    HW153073   2.085   0.883   7.056
50392SOL    HW253074   2.152   1.004   7.118
50393SOL     OW53075  14.030   9.840  10.935
50393SOL    HW153076  14.100   9.827  10.999
50393SOL    HW253077  14.066   9.807  10.853
50394SOL     OW53078  11.684   4.008   7.428
50394SOL    HW153079  11.779   4.000   7.436
50394SOL    HW253080  11.665   3.974   7.340
50395SOL     OW53081   7.197  10.994  12.703
50395SOL    HW153082   7.134  11.056  12.740
50395SOL    HW253083   7.181  10.912  12.750
50396SOL     OW53084  13.007   6.994   1.900
50396SOL    HW153085  12.974   7.038   1.821
50396SOL    HW253086  13.094   7.032   1.914
50397SOL     OW53087   9.947   2.277   6.959
50397SOL    HW153088   9.898   2.346   6.914
50397SOL    HW253089   9.943   2.300   7.051
50398SOL     OW53090   1.139   6.212   9.549
50398SOL    HW153091   1.135   6.168   9.464
50398SOL    HW253092   1.153   6.304   9.528
50399SOL     OW53093   3.126   8.036   8.155
50399SOL    HW153094   3.211   8.052   8.196
50399SOL    HW253095   3.062   8.049   8.225
50400SOL     OW53096   6.780   2.648   2.514
50400SOL    HW153097   6.750   2.557   2.507
50400SOL    HW253098   6.718   2.697   2.461
50401SOL     OW53099  14.528  10.153  10.514
50401SOL    HW153100  14.513  10.247  10.505
50401SOL    HW253101  14.479  10.114  10.442
50402SOL     OW53102   7.844   6.889   5.179
50402SOL    HW153103   7.876   6.927   5.261
50402SOL    HW253104   7.762   6.846   5.203
50403SOL     OW53105   7.414   6.475   9.840
50403SOL    HW153106   7.493   6.521   9.869
50403SOL    HW253107   7.401   6.503   9.749
50404SOL     OW53108   0.659   4.121  10.806
50404SOL    HW153109   0.745   4.081  10.791
50404SOL    HW253110   0.660   4.200  10.752
50405SOL     OW53111   1.368   4.809   7.874
50405SOL    HW153112   1.392   4.896   7.906
50405SOL    HW253113   1.272   4.809   7.874
50406SOL     OW53114   0.329   3.050   9.677
50406SOL    HW153115   0.377   2.994   9.616
50406SOL    HW253116   0.355   3.018   9.764
50407SOL     OW53117  13.191   2.860  11.082
50407SOL    HW153118  13.123   2.834  11.019
50407SOL    HW253119  13.145   2.861  11.166
50408SOL     OW53120  14.258   7.493   3.053
50408SOL    HW153121  14.173   7.458   3.026
50408SOL    HW253122  14.242   7.585   3.071
50409SOL     OW53123  11.136   4.274   6.329
50409SOL    HW153124  11.143   4.224   6.247
50409SOL    HW253125  11.081   4.348   6.307
50410SOL     OW53126  13.202   9.196  10.424
50410SOL    HW153127  13.147   9.231  10.494
50410SOL    HW253128  13.153   9.213  10.343
50411SOL     OW53129  14.399   7.394   2.240
50411SOL    HW153130  14.323   7.449   2.256
50411SOL    HW253131  14.470   7.438   2.287
50412SOL     OW53132   4.993   5.610   6.227
50412SOL    HW153133   4.958   5.607   6.138
50412SOL    HW253134   5.083   5.579   6.219
50413SOL     OW53135   2.517  13.086   8.812
50413SOL    HW153136   2.573  13.030   8.867
50413SOL    HW253137   2.519  13.171   8.855
50414SOL     OW53138   9.950   0.993   9.538
50414SOL    HW153139   9.957   1.087   9.555
50414SOL    HW253140   9.927   0.988   9.446
50415SOL     OW53141   6.634   3.400   9.309
50415SOL    HW153142   6.584   3.356   9.379
50415SOL    HW253143   6.725   3.384   9.331
50416SOL     OW53144  12.780  11.862   6.143
50416SOL    HW153145  12.864  11.904   6.125
50416SOL    HW253146  12.730  11.928   6.191
50417SOL     OW53147   4.738  14.688   4.914
50417SOL    HW153148   4.672  14.657   4.852
50417SOL    HW253149   4.755  14.612   4.971
50418SOL     OW53150   8.500  10.933   9.002
50418SOL    HW153151   8.574  10.872   9.005
50418SOL    HW253152   8.540  11.019   8.992
50419SOL     OW53153  12.961   9.289   9.064
50419SOL    HW153154  12.990   9.314   8.977
50419SOL    HW253155  13.040   9.292   9.118
50420SOL     OW53156   6.901   8.925   2.422
50420SOL    HW153157   6.897   9.013   2.460
50420SOL    HW253158   6.984   8.923   2.375
50421SOL     OW53159  14.702   3.371   5.203
50421SOL    HW153160  14.788   3.328   5.205
50421SOL    HW253161  14.684   3.392   5.294
50422SOL     OW53162  13.086   3.023   5.084
50422SOL    HW153163  13.106   3.044   4.993
50422SOL    HW253164  13.027   3.094   5.112
50423SOL     OW53165  10.808   6.089   2.171
50423SOL    HW153166  10.742   6.121   2.110
50423SOL    HW253167  10.776   6.004   2.199
50424SOL     OW53168   5.071  10.050   1.505
50424SOL    HW153169   5.095   9.973   1.557
50424SOL    HW253170   4.995  10.087   1.550
50425SOL     OW53171  13.602   9.788   8.498
50425SOL    HW153172  13.599   9.875   8.457
50425SOL    HW253173  13.555   9.800   8.581
50426SOL     OW53174   2.333   5.525   2.621
50426SOL    HW153175   2.362   5.508   2.532
50426SOL    HW253176   2.264   5.460   2.637
50427SOL     OW53177   0.477  13.191  13.743
50427SOL    HW153178   0.479  13.096  13.727
50427SOL    HW253179   0.560  13.210  13.787
50428SOL     OW53180   0.231   5.240   2.245
50428SOL    HW153181   0.237   5.270   2.335
50428SOL    HW253182   0.224   5.320   2.193
50429SOL     OW53183   6.935   9.369  12.568
50429SOL    HW153184   6.977   9.283  12.561
50429SOL    HW253185   6.865   9.355  12.632
50430SOL     OW53186   4.137   6.035   9.747
50430SOL    HW153187   4.216   6.060   9.796
50430SOL    HW253188   4.097   6.117   9.720
50431SOL     OW53189   9.105   5.618   3.731
50431SOL    HW153190   9.129   5.526   3.726
50431SOL    HW253191   9.036   5.628   3.666
50432SOL     OW53192  10.047  10.956   3.486
50432SOL    HW153193  10.042  11.027   3.550
50432SOL    HW253194  10.115  10.983   3.425
50433SOL     OW53195   1.266   6.859  13.708
50433SOL    HW153196   1.222   6.939  13.679
50433SOL    HW253197   1.310   6.825  13.630
50434SOL     OW53198  13.148   8.736   6.074
50434SOL    HW153199  13.135   8.744   6.168
50434SOL    HW253200  13.193   8.817   6.049
50435SOL     OW53201  10.847   2.408   5.657
50435SOL    HW153202  10.764   2.443   5.624
50435SOL    HW253203  10.907   2.482   5.653
50436SOL     OW53204   0.978   0.490   0.823
50436SOL    HW153205   0.992   0.404   0.781
50436SOL    HW253206   0.995   0.474   0.916
50437SOL     OW53207   6.614   0.484   9.329
50437SOL    HW153208   6.553   0.555   9.305
50437SOL    HW253209   6.701   0.522   9.314
50438SOL     OW53210  12.328   2.922   2.205
50438SOL    HW153211  12.408   2.971   2.224
50438SOL    HW253212  12.266   2.952   2.271
50439SOL     OW53213  14.305  13.912   6.232
50439SOL    HW153214  14.384  13.858   6.232
50439SOL    HW253215  14.303  13.954   6.146
50440SOL     OW53216  11.158   0.896   3.992
50440SOL    HW153217  11.249   0.915   3.971
50440SOL    HW253218  11.129   0.972   4.043
50441SOL     OW53219   7.936   0.883   0.437
50441SOL    HW153220   7.913   0.885   0.344
50441SOL    HW253221   7.989   0.962   0.450
50442SOL     OW53222   5.935   0.367   7.891
50442SOL    HW153223   5.919   0.377   7.985
50442SOL    HW253224   6.030   0.363   7.883
50443SOL     OW53225   0.303   2.133  10.558
50443SOL    HW153226   0.331   2.064  10.498
50443SOL    HW253227   0.222   2.167  10.520
50444SOL     OW53228   4.503  12.310  10.668
50444SOL    HW153229   4.473  12.397  10.643
50444SOL    HW253230   4.583  12.296  10.617
50445SOL     OW53231   2.459   4.124  12.496
50445SOL    HW153232   2.453   4.194  12.562
50445SOL    HW253233   2.370   4.118  12.461
50446SOL     OW53234   0.529   2.077   6.755
50446SOL    HW153235   0.584   2.002   6.732
50446SOL    HW253236   0.589   2.143   6.789
50447SOL     OW53237   6.954   8.194   0.416
50447SOL    HW153238   6.953   8.259   0.486
50447SOL    HW253239   7.033   8.142   0.433
50448SOL     OW53240   7.473   6.599  14.409
50448SOL    HW153241   7.388   6.641  14.398
50448SOL    HW253242   7.536   6.671  14.407
50449SOL     OW53243  10.294   7.886   1.578
50449SOL    HW153244  10.229   7.875   1.648
50449SOL    HW253245  10.359   7.945   1.616
50450SOL     OW53246   4.872   3.880   5.806
50450SOL    HW153247   4.882   3.970   5.836
50450SOL    HW253248   4.779   3.860   5.818
50451SOL     OW53249   3.638   9.147   0.127
50451SOL    HW153250   3.660   9.055   0.144
50451SOL    HW253251   3.710   9.196   0.165
50452SOL     OW53252  12.585   7.364  14.048
50452SOL    HW153253  12.538   7.313  14.115
50452SOL    HW253254  12.670   7.322  14.041
50453SOL     OW53255   3.904   1.739   5.534
50453SOL    HW153256   3.843   1.789   5.587
50453SOL    HW253257   3.849   1.695   5.469
50454SOL     OW53258  13.834   6.676  11.627
50454SOL    HW153259  13.871   6.750  11.579
50454SOL    HW253260  13.904   6.610  11.628
50455SOL     OW53261  10.222  14.284   0.391
50455SOL    HW153262  10.191  14.200   0.356
50455SOL    HW253263  10.270  14.261   0.470
50456SOL     OW53264  14.104   1.253   7.062
50456SOL    HW153265  14.113   1.301   7.145
50456SOL    HW253266  14.014   1.221   7.062
50457SOL     OW53267  10.079  14.610   0.996
50457SOL    HW153268  10.108  14.592   1.085
50457SOL    HW253269  10.068  14.705   0.994
50458SOL     OW53270   1.271  12.081   9.228
50458SOL    HW153271   1.200  12.035   9.274
50458SOL    HW253272   1.318  12.011   9.183
50459SOL     OW53273  12.890  13.843   4.271
50459SOL    HW153274  12.806  13.820   4.231
50459SOL    HW253275  12.949  13.771   4.246
50460SOL     OW53276   3.291   1.922   2.992
50460SOL    HW153277   3.358   1.856   2.978
50460SOL    HW253278   3.267   1.952   2.905
50461SOL     OW53279  14.520   6.066   4.434
50461SOL    HW153280  14.468   6.030   4.506
50461SOL    HW253281  14.583   6.124   4.476
50462SOL     OW53282  13.231   5.156  13.820
50462SOL    HW153283  13.320   5.172  13.788
50462SOL    HW253284  13.220   5.061  13.813
50463SOL     OW53285  11.178   0.920   9.671
50463SOL    HW153286  11.216   0.963   9.748
50463SOL    HW253287  11.168   0.989   9.606
50464SOL     OW53288  11.905   2.976   9.300
50464SOL    HW153289  11.950   2.894   9.278
50464SOL    HW253290  11.821   2.970   9.253
50465SOL     OW53291  13.308  14.214   8.079
50465SOL    HW153292  13.329  14.121   8.072
50465SOL    HW253293  13.289  14.228   8.171
50466SOL     OW53294   9.415  10.243   0.672
50466SOL    HW153295   9.473  10.305   0.628
50466SOL    HW253296   9.393  10.179   0.604
50467SOL     OW53297   0.687  11.605   7.107
50467SOL    HW153298   0.638  11.652   7.174
50467SOL    HW253299   0.778  11.611   7.135
50468SOL     OW53300   5.419  14.072   3.300
50468SOL    HW153301   5.332  14.113   3.296
50468SOL    HW253302   5.480  14.145   3.312
50469SOL     OW53303  10.730   1.878   8.939
50469SOL    HW153304  10.810   1.924   8.966
50469SOL    HW253305  10.759   1.790   8.916
50470SOL     OW53306   7.009  13.539   0.878
50470SOL    HW153307   7.086  13.573   0.832
50470SOL    HW253308   7.029  13.446   0.893
50471SOL     OW53309  10.558   0.416   6.828
50471SOL    HW153310  10.547   0.391   6.920
50471SOL    HW253311  10.652   0.408   6.812
50472SOL     OW53312  10.238   1.660  13.699
50472SOL    HW153313  10.171   1.716  13.659
50472SOL    HW253314  10.194   1.622  13.776
50473SOL     OW53315   6.005   9.272  11.782
50473SOL    HW153316   5.928   9.278  11.726
50473SOL    HW253317   6.046   9.358  11.777
50474SOL     OW53318   3.868   9.887  11.125
50474SOL    HW153319   3.816   9.904  11.204
50474SOL    HW253320   3.957   9.910  11.150
50475SOL     OW53321   9.055  10.421   2.705
50475SOL    HW153322   9.006  10.443   2.785
50475SOL    HW253323   9.000  10.356   2.661
50476SOL     OW53324  13.024   3.712   0.801
50476SOL    HW153325  12.951   3.773   0.798
50476SOL    HW253326  12.986   3.627   0.777
50477SOL     OW53327   2.654   7.620  13.131
50477SOL    HW153328   2.608   7.703  13.142
50477SOL    HW253329   2.717   7.637  13.061
50478SOL     OW53330  12.610  13.556   0.288
50478SOL    HW153331  12.652  13.626   0.238
50478SOL    HW253332  12.524  13.591   0.312
50479SOL     OW53333   7.459   2.441   9.612
50479SOL    HW153334   7.495   2.486   9.688
50479SOL    HW253335   7.490   2.351   9.620
50480SOL     OW53336   4.608  11.239   1.311
50480SOL    HW153337   4.686  11.294   1.309
50480SOL    HW253338   4.553  11.279   1.379
50481SOL     OW53339   3.732  13.048   5.991
50481SOL    HW153340   3.822  13.019   6.007
50481SOL    HW253341   3.718  13.119   6.054
50482SOL     OW53342   0.735   7.931  11.567
50482SOL    HW153343   0.788   7.984  11.506
50482SOL    HW253344   0.758   7.841  11.547
50483SOL     OW53345  10.852  14.099   8.160
50483SOL    HW153346  10.805  14.026   8.119
50483SOL    HW253347  10.939  14.063   8.181
50484SOL     OW53348   8.402   9.929   0.209
50484SOL    HW153349   8.487   9.935   0.166
50484SOL    HW253350   8.419   9.963   0.298
50485SOL     OW53351   8.572  14.419  12.601
50485SOL    HW153352   8.561  14.449  12.511
50485SOL    HW253353   8.642  14.354  12.597
50486SOL     OW53354  10.174   7.620   2.625
50486SOL    HW153355  10.259   7.664   2.628
50486SOL    HW253356  10.191   7.540   2.576
50487SOL     OW53357   1.438  11.391   9.237
50487SOL    HW153358   1.520  11.441   9.232
50487SOL    HW253359   1.410  11.402   9.328
50488SOL     OW53360  10.193   3.232   6.266
50488SOL    HW153361  10.147   3.222   6.349
50488SOL    HW253362  10.248   3.154   6.259
50489SOL     OW53363  14.792   9.931   6.066
50489SOL    HW153364  14.721   9.992   6.088
50489SOL    HW253365  14.787   9.921   5.971
50490SOL     OW53366   9.152   2.045  12.456
50490SOL    HW153367   9.099   2.001  12.390
50490SOL    HW253368   9.165   2.133  12.420
50491SOL     OW53369   6.395  13.745   3.007
50491SOL    HW153370   6.478  13.704   2.984
50491SOL    HW253371   6.386  13.732   3.101
50492SOL     OW53372   3.693   8.390   8.307
50492SOL    HW153373   3.762   8.438   8.352
50492SOL    HW253374   3.739   8.325   8.254
50493SOL     OW53375   6.155   9.529  10.280
50493SOL    HW153376   6.230   9.493  10.233
50493SOL    HW253377   6.079   9.504  10.228
50494SOL     OW53378   1.299  14.865   5.509
50494SOL    HW153379   1.290   0.042   5.425
50494SOL    HW253380   1.296   0.064   5.575
50495SOL     OW53381   1.195   0.735   3.168
50495SOL    HW153382   1.242   0.809   3.207
50495SOL    HW253383   1.136   0.704   3.237
50496SOL     OW53384   6.347  14.147   8.075
50496SOL    HW153385   6.351  14.204   7.999
50496SOL    HW253386   6.285  14.190   8.134
50497SOL     OW53387   5.962  14.440   5.858
50497SOL    HW153388   5.977  14.375   5.928
50497SOL    HW253389   5.965  14.388   5.777
50498SOL     OW53390  10.212   6.131  11.364
50498SOL    HW153391  10.262   6.174  11.295
50498SOL    HW253392  10.192   6.045  11.329
50499SOL     OW53393   0.848   1.917   6.037
50499SOL    HW153394   0.912   1.966   5.985
50499SOL    HW253395   0.769   1.915   5.983
50500SOL     OW53396   6.508   4.309   8.051
50500SOL    HW153397   6.595   4.332   8.085
50500SOL    HW253398   6.474   4.391   8.016
50501SOL     OW53399   1.107  10.905  14.528
50501SOL    HW153400   1.167  10.973  14.558
50501SOL    HW253401   1.084  10.931  14.439
50502SOL     OW53402  12.594   0.621  12.388
50502SOL    HW153403  12.627   0.658  12.306
50502SOL    HW253404  12.662   0.561  12.417
50503SOL     OW53405   7.088   2.305   1.878
50503SOL    HW153406   7.090   2.308   1.973
50503SOL    HW253407   7.140   2.228   1.855
50504SOL     OW53408  12.146   5.828   8.532
50504SOL    HW153409  12.158   5.866   8.444
50504SOL    HW253410  12.157   5.903   8.591
50505SOL     OW53411   7.479   7.727  10.540
50505SOL    HW153412   7.418   7.686  10.478
50505SOL    HW253413   7.554   7.754  10.486
50506SOL     OW53414  10.264   1.470   7.125
50506SOL    HW153415  10.237   1.548   7.173
50506SOL    HW253416  10.357   1.462   7.144
50507SOL     OW53417  11.813   6.072  10.620
50507SOL    HW153418  11.889   6.118  10.654
50507SOL    HW253419  11.743   6.137  10.620
50508SOL     OW53420  13.201   0.752   0.327
50508SOL    HW153421  13.230   0.725   0.415
50508SOL    HW253422  13.282   0.754   0.275
50509SOL     OW53423   3.881   0.283   6.108
50509SOL    HW153424   3.885   0.306   6.201
50509SOL    HW253425   3.962   0.318   6.071
50510SOL     OW53426   9.269   2.540   6.521
50510SOL    HW153427   9.195   2.490   6.557
50510SOL    HW253428   9.271   2.515   6.429
50511SOL     OW53429   6.344   5.468  10.429
50511SOL    HW153430   6.422   5.430  10.470
50511SOL    HW253431   6.338   5.556  10.466
50512SOL     OW53432   8.856  13.351   5.552
50512SOL    HW153433   8.946  13.374   5.529
50512SOL    HW253434   8.851  13.257   5.539
50513SOL     OW53435  14.420   3.005   0.840
50513SOL    HW153436  14.514   3.011   0.854
50513SOL    HW253437  14.398   3.081   0.786
50514SOL     OW53438   2.360  14.309  10.465
50514SOL    HW153439   2.387  14.357  10.386
50514SOL    HW253440   2.266  14.300  10.456
50515SOL     OW53441  11.027   4.383  14.490
50515SOL    HW153442  11.089   4.456  14.485
50515SOL    HW253443  11.028   4.358  14.582
50516SOL     OW53444   0.767  13.669   3.124
50516SOL    HW153445   0.824  13.724   3.070
50516SOL    HW253446   0.709  13.626   3.062
50517SOL     OW53447  10.434   8.017  13.559
50517SOL    HW153448  10.502   8.071  13.518
50517SOL    HW253449  10.419   7.946  13.496
50518SOL     OW53450  12.403   8.747   3.990
50518SOL    HW153451  12.375   8.659   4.011
50518SOL    HW253452  12.478   8.764   4.047
50519SOL     OW53453   5.254  12.830   9.887
50519SOL    HW153454   5.290  12.910   9.926
50519SOL    HW253455   5.247  12.769   9.960
50520SOL     OW53456   4.191   6.645   5.627
50520SOL    HW153457   4.163   6.570   5.575
50520SOL    HW253458   4.195   6.718   5.565
50521SOL     OW53459  13.677   7.543  14.819
50521SOL    HW153460  13.657   7.593  14.741
50521SOL    HW253461  13.657   7.452  14.796
50522SOL     OW53462  12.851  13.581  11.154
50522SOL    HW153463  12.924  13.635  11.185
50522SOL    HW253464  12.774  13.620  11.196
50523SOL     OW53465  11.072  14.029   1.978
50523SOL    HW153466  10.989  14.044   2.024
50523SOL    HW253467  11.052  14.048   1.886
50524SOL     OW53468   2.647   6.821   2.512
50524SOL    HW153469   2.607   6.785   2.591
50524SOL    HW253470   2.716   6.879   2.544
50525SOL     OW53471   4.547   0.204   2.577
50525SOL    HW153472   4.493   0.187   2.654
50525SOL    HW253473   4.578   0.294   2.589
50526SOL     OW53474   2.552  10.828  10.280
50526SOL    HW153475   2.522  10.909  10.238
50526SOL    HW253476   2.611  10.788  10.215
50527SOL     OW53477  11.866   2.693   5.321
50527SOL    HW153478  11.833   2.776   5.287
50527SOL    HW253479  11.889   2.643   5.243
50528SOL     OW53480   8.878   5.559  14.468
50528SOL    HW153481   8.783   5.550  14.466
50528SOL    HW253482   8.895   5.645  14.430
50529SOL     OW53483   2.646   0.567   4.862
50529SOL    HW153484   2.629   0.660   4.874
50529SOL    HW253485   2.693   0.541   4.942
50530SOL     OW53486   7.445   1.214  12.167
50530SOL    HW153487   7.495   1.138  12.134
50530SOL    HW253488   7.446   1.204  12.262
50531SOL     OW53489   4.382  10.362   4.481
50531SOL    HW153490   4.316  10.429   4.497
50531SOL    HW253491   4.393  10.318   4.565
50532SOL     OW53492   2.885   7.511  14.115
50532SOL    HW153493   2.952   7.444  14.126
50532SOL    HW253494   2.921   7.569  14.047
50533SOL     OW53495  10.918   0.708   8.300
50533SOL    HW153496  10.875   0.698   8.216
50533SOL    HW253497  10.993   0.765   8.282
50534SOL     OW53498   9.028  12.883   7.141
50534SOL    HW153499   9.088  12.811   7.161
50534SOL    HW253500   9.006  12.920   7.226
50535SOL     OW53501  11.723   2.901   4.316
50535SOL    HW153502  11.746   2.809   4.305
50535SOL    HW253503  11.665   2.902   4.392
50536SOL     OW53504  13.634   4.435   5.645
50536SOL    HW153505  13.546   4.416   5.680
50536SOL    HW253506  13.693   4.412   5.716
50537SOL     OW53507   7.310   0.376  12.249
50537SOL    HW153508   7.285   0.429  12.325
50537SOL    HW253509   7.274   0.289  12.267
50538SOL     OW53510  12.463   6.330   9.507
50538SOL    HW153511  12.464   6.369   9.594
50538SOL    HW253512  12.534   6.373   9.460
50539SOL     OW53513  13.321  13.685   2.034
50539SOL    HW153514  13.319  13.612   2.095
50539SOL    HW253515  13.251  13.743   2.062
50540SOL     OW53516   1.104   5.319   5.770
50540SOL    HW153517   1.165   5.392   5.776
50540SOL    HW253518   1.018   5.361   5.762
50541SOL     OW53519   8.002   2.981  11.201
50541SOL    HW153520   7.911   2.956  11.217
50541SOL    HW253521   8.045   2.900  11.172
50542SOL     OW53522   2.453  11.098   9.434
50542SOL    HW153523   2.531  11.044   9.433
50542SOL    HW253524   2.382  11.037   9.411
50543SOL     OW53525   2.786   6.974  14.697
50543SOL    HW153526   2.773   7.067  14.679
50543SOL    HW253527   2.809   6.936  14.613
50544SOL     OW53528  13.696  12.307  14.165
50544SOL    HW153529  13.774  12.275  14.210
50544SOL    HW253530  13.730  12.341  14.082
50545SOL     OW53531   5.854  14.529  13.588
50545SOL    HW153532   5.825  14.511  13.499
50545SOL    HW253533   5.778  14.570  13.630
50546SOL     OW53534   7.120   7.899  12.914
50546SOL    HW153535   7.100   7.948  12.834
50546SOL    HW253536   7.098   7.959  12.985
50547SOL     OW53537   2.301   2.514   5.657
50547SOL    HW153538   2.298   2.518   5.752
50547SOL    HW253539   2.345   2.431   5.638
50548SOL     OW53540   0.737   9.905   2.020
50548SOL    HW153541   0.761   9.932   1.931
50548SOL    HW253542   0.718   9.988   2.065
50549SOL     OW53543  11.357   3.789   9.507
50549SOL    HW153544  11.418   3.854   9.472
50549SOL    HW253545  11.282   3.792   9.448
50550SOL     OW53546   0.843   9.500  13.532
50550SOL    HW153547   0.908   9.478  13.465
50550SOL    HW253548   0.823   9.416  13.575
50551SOL     OW53549   6.032  11.643   7.974
50551SOL    HW153550   6.035  11.550   7.998
50551SOL    HW253551   6.022  11.689   8.058
50552SOL     OW53552   0.926  14.843   6.959
50552SOL    HW153553   0.875   0.036   7.010
50552SOL    HW253554   0.958  14.780   7.023
50553SOL     OW53555   1.346  10.804  11.370
50553SOL    HW153556   1.407  10.878  11.361
50553SOL    HW253557   1.361  10.751  11.292
50554SOL     OW53558   1.810   1.895  14.608
50554SOL    HW153559   1.747   1.935  14.668
50554SOL    HW253560   1.769   1.902  14.522
50555SOL     OW53561  10.451   6.170  10.710
50555SOL    HW153562  10.535   6.149  10.750
50555SOL    HW253563  10.401   6.213  10.780
50556SOL     OW53564   2.320  11.001  11.308
50556SOL    HW153565   2.310  10.908  11.289
50556SOL    HW253566   2.346  11.003  11.401
50557SOL     OW53567  10.703   8.346   3.786
50557SOL    HW153568  10.711   8.410   3.715
50557SOL    HW253569  10.677   8.397   3.862
50558SOL     OW53570   2.815   8.468   7.149
50558SOL    HW153571   2.741   8.507   7.103
50558SOL    HW253572   2.888   8.528   7.131
50559SOL     OW53573  10.101  12.600   6.071
50559SOL    HW153574  10.059  12.684   6.088
50559SOL    HW253575  10.128  12.604   5.979
50560SOL     OW53576  12.961  14.359  11.102
50560SOL    HW153577  13.033  14.334  11.044
50560SOL    HW253578  13.004  14.390  11.182
50561SOL     OW53579  12.917   7.771   8.044
50561SOL    HW153580  12.909   7.710   7.970
50561SOL    HW253581  12.911   7.715   8.122
50562SOL     OW53582  14.005   4.965  12.351
50562SOL    HW153583  14.096   4.955  12.323
50562SOL    HW253584  14.011   4.976  12.446
50563SOL     OW53585   2.033   5.599  12.506
50563SOL    HW153586   2.057   5.538  12.575
50563SOL    HW253587   1.968   5.657  12.546
50564SOL     OW53588   4.517   0.384   8.998
50564SOL    HW153589   4.430   0.356   8.969
50564SOL    HW253590   4.500   0.430   9.080
50565SOL     OW53591  11.638  12.591   2.993
50565SOL    HW153592  11.592  12.580   3.076
50565SOL    HW253593  11.671  12.504   2.972
50566SOL     OW53594   9.450   8.146   3.872
50566SOL    HW153595   9.473   8.226   3.824
50566SOL    HW253596   9.437   8.175   3.962
50567SOL     OW53597   4.510   0.252   0.029
50567SOL    HW153598   4.596   0.287   0.052
50567SOL    HW253599   4.523   0.157   0.024
50568SOL     OW53600  13.440   8.920  14.138
50568SOL    HW153601  13.365   8.966  14.176
50568SOL    HW253602  13.468   8.859  14.206
50569SOL     OW53603  14.263  12.480   2.546
50569SOL    HW153604  14.265  12.421   2.471
50569SOL    HW253605  14.264  12.423   2.623
50570SOL     OW53606   2.886   8.837  12.696
50570SOL    HW153607   2.837   8.886  12.761
50570SOL    HW253608   2.948   8.784  12.747
50571SOL     OW53609  13.924   6.241   2.627
50571SOL    HW153610  13.861   6.169   2.633
50571SOL    HW253611  13.960   6.249   2.715
50572SOL     OW53612   9.814   7.041   5.390
50572SOL    HW153613   9.740   7.035   5.330
50572SOL    HW253614   9.793   7.115   5.448
50573SOL     OW53615   5.744   9.058  11.689
50573SOL    HW153616   5.661   9.045  11.735
50573SOL    HW253617   5.767   9.149  11.708
50574SOL     OW53618   0.145   6.711   5.903
50574SOL    HW153619   0.052   6.734   5.913
50574SOL    HW253620   0.178   6.705   5.993
50575SOL     OW53621  10.399   0.582  14.496
50575SOL    HW153622  10.420   0.666  14.538
50575SOL    HW253623  10.361   0.530  14.567
50576SOL     OW53624   8.099   3.909  11.621
50576SOL    HW153625   8.005   3.891  11.628
50576SOL    HW253626   8.111   3.991  11.668
50577SOL     OW53627   7.051   2.281   4.453
50577SOL    HW153628   7.084   2.271   4.542
50577SOL    HW253629   7.093   2.360   4.420
50578SOL     OW53630   0.306   8.708   2.426
50578SOL    HW153631   0.314   8.640   2.493
50578SOL    HW253632   0.391   8.708   2.382
50579SOL     OW53633  11.342   7.586  10.642
50579SOL    HW153634  11.258   7.574  10.686
50579SOL    HW253635  11.324   7.565  10.550
50580SOL     OW53636  13.467   6.639  14.389
50580SOL    HW153637  13.540   6.675  14.440
50580SOL    HW253638  13.394   6.699  14.404
50581SOL     OW53639   5.393   2.662   5.785
50581SOL    HW153640   5.471   2.612   5.759
50581SOL    HW253641   5.401   2.745   5.737
50582SOL     OW53642   9.198  12.669   9.096
50582SOL    HW153643   9.268  12.660   9.160
50582SOL    HW253644   9.119  12.640   9.143
50583SOL     OW53645  12.322   4.178  12.963
50583SOL    HW153646  12.301   4.262  12.922
50583SOL    HW253647  12.236   4.139  12.981
50584SOL     OW53648   8.839  10.022  13.352
50584SOL    HW153649   8.801   9.992  13.269
50584SOL    HW253650   8.803  10.110  13.364
50585SOL     OW53651  10.235   1.748   6.872
50585SOL    HW153652  10.218   1.674   6.814
50585SOL    HW253653  10.251   1.822   6.814
50586SOL     OW53654  14.231   9.106  14.464
50586SOL    HW153655  14.217   9.021  14.506
50586SOL    HW253656  14.322   9.128  14.485
50587SOL     OW53657  14.041   2.593   3.269
50587SOL    HW153658  13.995   2.677   3.279
50587SOL    HW253659  14.132   2.613   3.288
50588SOL     OW53660   7.280   3.895  13.886
50588SOL    HW153661   7.189   3.865  13.886
50588SOL    HW253662   7.325   3.833  13.943
50589SOL     OW53663  14.413   5.963  12.849
50589SOL    HW153664  14.495   5.948  12.896
50589SOL    HW253665  14.347   5.971  12.917
50590SOL     OW53666   6.077  13.639  11.760
50590SOL    HW153667   6.064  13.598  11.845
50590SOL    HW253668   5.989  13.651  11.725
50591SOL     OW53669   1.498  10.911   2.761
50591SOL    HW153670   1.513  10.817   2.761
50591SOL    HW253671   1.405  10.921   2.783
50592SOL     OW53672   7.176   0.815   8.527
50592SOL    HW153673   7.114   0.751   8.494
50592SOL    HW253674   7.167   0.810   8.622
50593SOL     OW53675  13.413  13.782   6.637
50593SOL    HW153676  13.452  13.859   6.597
50593SOL    HW253677  13.328  13.774   6.594
50594SOL     OW53678  12.199  14.134  13.002
50594SOL    HW153679  12.252  14.132  13.082
50594SOL    HW253680  12.259  14.163  12.934
50595SOL     OW53681   4.494   0.276  13.550
50595SOL    HW153682   4.465   0.320  13.469
50595SOL    HW253683   4.522   0.348  13.607
50596SOL     OW53684   7.299  11.082   2.832
50596SOL    HW153685   7.321  11.121   2.917
50596SOL    HW253686   7.249  11.003   2.854
50597SOL     OW53687   4.311   8.739  14.339
50597SOL    HW153688   4.403   8.760  14.352
50597SOL    HW253689   4.304   8.645  14.354
50598SOL     OW53690   7.749   8.701   5.737
50598SOL    HW153691   7.835   8.705   5.697
50598SOL    HW253692   7.688   8.714   5.665
50599SOL     OW53693  14.030   4.349  12.159
50599SOL    HW153694  14.020   4.404  12.081
50599SOL    HW253695  14.013   4.408  12.232
50600SOL     OW53696   2.241  14.585   6.598
50600SOL    HW153697   2.204  14.600   6.685
50600SOL    HW253698   2.166  14.559   6.545
50601SOL     OW53699   4.304  14.257   5.169
50601SOL    HW153700   4.307  14.345   5.131
50601SOL    HW253701   4.317  14.271   5.262
50602SOL     OW53702   0.025   9.510   2.236
50602SOL    HW153703   0.000   9.428   2.193
50602SOL    HW253704   0.101   9.488   2.289
50603SOL     OW53705  12.811   7.407   9.251
50603SOL    HW153706  12.764   7.324   9.256
50603SOL    HW253707  12.772   7.452   9.177
50604SOL     OW53708   6.080  11.884   8.791
50604SOL    HW153709   6.100  11.812   8.731
50604SOL    HW253710   5.985  11.879   8.803
50605SOL     OW53711   0.623  11.432  14.472
50605SOL    HW153712   0.651  11.395  14.389
50605SOL    HW253713   0.570  11.363  14.513
50606SOL     OW53714  11.770   2.393   7.815
50606SOL    HW153715  11.683   2.354   7.818
50606SOL    HW253716  11.759   2.479   7.854
50607SOL     OW53717   8.017   0.166  12.413
50607SOL    HW153718   7.964   0.184  12.491
50607SOL    HW253719   8.092   0.118  12.446
50608SOL     OW53720  12.665   1.673  13.686
50608SOL    HW153721  12.659   1.584  13.650
50608SOL    HW253722  12.574   1.703  13.692
50609SOL     OW53723   0.616   1.616  14.472
50609SOL    HW153724   0.557   1.686  14.500
50609SOL    HW253725   0.559   1.540  14.461
50610SOL     OW53726   7.606  13.362   4.226
50610SOL    HW153727   7.549  13.296   4.266
50610SOL    HW253728   7.640  13.412   4.300
50611SOL     OW53729   1.405  11.954   5.049
50611SOL    HW153730   1.424  12.043   5.079
50611SOL    HW253731   1.490  11.912   5.041
50612SOL     OW53732   8.926  14.760  10.046
50612SOL    HW153733   8.839  14.728  10.071
50612SOL    HW253734   8.935  14.844  10.091
50613SOL     OW53735   6.309   1.127   6.944
50613SOL    HW153736   6.355   1.167   7.017
50613SOL    HW253737   6.279   1.200   6.891
50614SOL     OW53738   6.807   7.536   4.090
50614SOL    HW153739   6.890   7.576   4.066
50614SOL    HW253740   6.811   7.447   4.056
50615SOL     OW53741   1.599  10.609  12.513
50615SOL    HW153742   1.606  10.580  12.604
50615SOL    HW253743   1.654  10.549  12.464
50616SOL     OW53744  11.108   4.010   7.356
50616SOL    HW153745  11.044   4.066   7.312
50616SOL    HW253746  11.182   4.068   7.375
50617SOL     OW53747   7.378   0.810  14.862
50617SOL    HW153748   7.289   0.777  14.847
50617SOL    HW253749   7.366   0.884   0.052
50618SOL     OW53750   0.566  10.658   3.787
50618SOL    HW153751   0.567  10.746   3.826
50618SOL    HW253752   0.646  10.655   3.734
50619SOL     OW53753  14.615   5.303   0.814
50619SOL    HW153754  14.680   5.314   0.884
50619SOL    HW253755  14.657   5.245   0.751
50620SOL     OW53756   9.450  13.074   4.310
50620SOL    HW153757   9.397  13.134   4.362
50620SOL    HW253758   9.538  13.113   4.311
50621SOL     OW53759  14.397   8.680   5.274
50621SOL    HW153760  14.338   8.753   5.290
50621SOL    HW253761  14.349   8.622   5.215
50622SOL     OW53762   9.746   1.438  12.940
50622SOL    HW153763   9.717   1.413  12.852
50622SOL    HW253764   9.673   1.416  12.997
50623SOL     OW53765   2.337  10.062   0.353
50623SOL    HW153766   2.424  10.098   0.373
50623SOL    HW253767   2.355   9.996   0.285
50624SOL     OW53768   0.653  11.090   9.516
50624SOL    HW153769   0.718  11.024   9.540
50624SOL    HW253770   0.704  11.161   9.477
50625SOL     OW53771   3.750  10.625  13.566
50625SOL    HW153772   3.777  10.587  13.649
50625SOL    HW253773   3.786  10.566  13.499
50626SOL     OW53774   5.534   4.772  11.969
50626SOL    HW153775   5.560   4.823  11.892
50626SOL    HW253776   5.464   4.824  12.009
50627SOL     OW53777  11.518   3.063  11.153
50627SOL    HW153778  11.579   3.131  11.125
50627SOL    HW253779  11.435   3.110  11.167
50628SOL     OW53780   7.214   6.671   5.487
50628SOL    HW153781   7.268   6.643   5.414
50628SOL    HW253782   7.180   6.757   5.461
50629SOL     OW53783  10.009   5.279   5.920
50629SOL    HW153784   9.989   5.334   5.995
50629SOL    HW253785   9.933   5.289   5.862
50630SOL     OW53786  10.347   7.331   2.771
50630SOL    HW153787  10.290   7.272   2.723
50630SOL    HW253788  10.417   7.354   2.710
50631SOL     OW53789   4.862  10.157   1.859
50631SOL    HW153790   4.837  10.095   1.927
50631SOL    HW253791   4.805  10.136   1.785
50632SOL     OW53792   1.563   0.398  12.637
50632SOL    HW153793   1.534   0.489  12.641
50632SOL    HW253794   1.496   0.353  12.585
50633SOL     OW53795  11.041   8.768   5.472
50633SOL    HW153796  11.044   8.813   5.387
50633SOL    HW253797  10.956   8.726   5.474
50634SOL     OW53798   2.219   6.124   8.980
50634SOL    HW153799   2.250   6.213   8.961
50634SOL    HW253800   2.274   6.068   8.926
50635SOL     OW53801   5.749  12.408   2.167
50635SOL    HW153802   5.765  12.339   2.103
50635SOL    HW253803   5.682  12.372   2.225
50636SOL     OW53804  13.509   7.137   0.130
50636SOL    HW153805  13.418   7.123   0.105
50636SOL    HW253806  13.540   7.206   0.072
50637SOL     OW53807   0.440  10.359  13.679
50637SOL    HW153808   0.346  10.347  13.685
50637SOL    HW253809   0.472  10.278  13.640
50638SOL     OW53810   7.263  10.834  11.609
50638SOL    HW153811   7.300  10.802  11.691
50638SOL    HW253812   7.253  10.928  11.622
50639SOL     OW53813   4.870  12.187   7.660
50639SOL    HW153814   4.815  12.197   7.583
50639SOL    HW253815   4.936  12.256   7.652
50640SOL     OW53816  14.566   3.977  11.501
50640SOL    HW153817  14.476   3.946  11.492
50640SOL    HW253818  14.601   3.974  11.412
50641SOL     OW53819   4.617   7.948  12.576
50641SOL    HW153820   4.645   7.987  12.659
50641SOL    HW253821   4.686   7.886  12.554
50642SOL     OW53822   7.167   9.670   8.470
50642SOL    HW153823   7.133   9.756   8.497
50642SOL    HW253824   7.262   9.680   8.472
50643SOL     OW53825   6.116   9.466   5.823
50643SOL    HW153826   6.048   9.503   5.766
50643SOL    HW253827   6.168   9.541   5.850
50644SOL     OW53828  11.689   3.943   1.384
50644SOL    HW153829  11.646   4.022   1.350
50644SOL    HW253830  11.772   3.975   1.418
50645SOL     OW53831   9.906   8.703   5.485
50645SOL    HW153832   9.931   8.672   5.398
50645SOL    HW253833   9.973   8.768   5.507
50646SOL     OW53834   1.316   3.373   2.321
50646SOL    HW153835   1.370   3.349   2.246
50646SOL    HW253836   1.283   3.461   2.300
50647SOL     OW53837   2.904   1.343   4.076
50647SOL    HW153838   2.937   1.425   4.113
50647SOL    HW253839   2.808   1.353   4.078
50648SOL     OW53840  13.662  14.614   5.697
50648SOL    HW153841  13.624  14.528   5.683
50648SOL    HW253842  13.640  14.636   5.787
50649SOL     OW53843   6.027   0.051  10.351
50649SOL    HW153844   5.963   0.031  10.282
50649SOL    HW253845   6.061  14.835  10.376
50650SOL     OW53846  13.511  14.733  11.848
50650SOL    HW153847  13.535  14.667  11.782
50650SOL    HW253848  13.594  14.772  11.873
50651SOL     OW53849   2.865  10.710   6.680
50651SOL    HW153850   2.883  10.671   6.766
50651SOL    HW253851   2.771  10.699   6.668
50652SOL     OW53852   4.196   5.812   3.646
50652SOL    HW153853   4.177   5.828   3.554
50652SOL    HW253854   4.139   5.873   3.693
50653SOL     OW53855  10.324   4.516  14.566
50653SOL    HW153856  10.230   4.500  14.572
50653SOL    HW253857  10.363   4.428  14.562
50654SOL     OW53858   8.307   4.823   0.814
50654SOL    HW153859   8.270   4.749   0.862
50654SOL    HW253860   8.357   4.784   0.743
50655SOL     OW53861   6.546   6.079   3.062
50655SOL    HW153862   6.509   5.992   3.048
50655SOL    HW253863   6.508   6.109   3.145
50656SOL     OW53864  14.209  14.775   2.139
50656SOL    HW153865  14.296  14.808   2.118
50656SOL    HW253866  14.152  14.852   2.139
50657SOL     OW53867   7.897  11.106   7.016
50657SOL    HW153868   7.967  11.119   6.952
50657SOL    HW253869   7.837  11.045   6.973
50658SOL     OW53870   0.043  11.867  10.813
50658SOL    HW153871   0.087  11.832  10.891
50658SOL    HW253872  14.844  11.924  10.848
50659SOL     OW53873   9.045  14.734   6.188
50659SOL    HW153874   9.096  14.728   6.107
50659SOL    HW253875   8.954  14.741   6.158
50660SOL     OW53876  12.818   6.680   6.678
50660SOL    HW153877  12.893   6.647   6.727
50660SOL    HW253878  12.793   6.761   6.723
50661SOL     OW53879  12.447   2.736   9.973
50661SOL    HW153880  12.373   2.790  10.000
50661SOL    HW253881  12.453   2.748   9.879
50662SOL     OW53882   2.197  14.490   0.389
50662SOL    HW153883   2.202  14.574   0.343
50662SOL    HW253884   2.132  14.440   0.340
50663SOL     OW53885   7.561   5.160   8.609
50663SOL    HW153886   7.520   5.240   8.577
50663SOL    HW253887   7.568   5.173   8.704
50664SOL     OW53888   0.437  12.637   7.410
50664SOL    HW153889   0.346  12.667   7.408
50664SOL    HW253890   0.477  12.688   7.480
50665SOL     OW53891   2.472   5.031  13.870
50665SOL    HW153892   2.405   5.099  13.863
50665SOL    HW253893   2.501   5.017  13.780
50666SOL     OW53894  10.083   2.451   2.461
50666SOL    HW153895  10.074   2.364   2.500
50666SOL    HW253896  10.073   2.512   2.535
50667SOL     OW53897  11.516   0.667   9.875
50667SOL    HW153898  11.590   0.608   9.857
50667SOL    HW253899  11.441   0.609   9.886
50668SOL     OW53900  10.578   7.714   7.205
50668SOL    HW153901  10.545   7.693   7.117
50668SOL    HW253902  10.501   7.707   7.262
50669SOL     OW53903   7.668   7.452  14.589
50669SOL    HW153904   7.657   7.519  14.522
50669SOL    HW253905   7.596   7.392  14.575
50670SOL     OW53906   6.192  10.602   7.977
50670SOL    HW153907   6.100  10.617   8.001
50670SOL    HW253908   6.200  10.507   7.971
50671SOL     OW53909   2.738   8.229  13.227
50671SOL    HW153910   2.726   8.234  13.132
50671SOL    HW253911   2.757   8.320  13.253
50672SOL     OW53912   5.089  10.746   3.257
50672SOL    HW153913   5.042  10.738   3.174
50672SOL    HW253914   5.164  10.687   3.248
50673SOL     OW53915  14.319  11.486   5.881
50673SOL    HW153916  14.249  11.465   5.943
50673SOL    HW253917  14.391  11.429   5.907
50674SOL     OW53918   3.823  10.805   2.057
50674SOL    HW153919   3.807  10.730   2.000
50674SOL    HW253920   3.917  10.820   2.052
50675SOL     OW53921   4.080  14.170   7.776
50675SOL    HW153922   4.129  14.132   7.703
50675SOL    HW253923   4.064  14.260   7.750
50676SOL     OW53924  12.320  14.757   5.900
50676SOL    HW153925  12.401  14.736   5.946
50676SOL    HW253926  12.285  14.673   5.872
50677SOL     OW53927   8.879   0.757  13.312
50677SOL    HW153928   8.898   0.808  13.233
50677SOL    HW253929   8.965   0.729  13.343
50678SOL     OW53930   8.141   6.266   6.082
50678SOL    HW153931   8.057   6.221   6.093
50678SOL    HW253932   8.176   6.275   6.170
50679SOL     OW53933   0.010   5.512  10.431
50679SOL    HW153934  14.840   5.566  10.499
50679SOL    HW253935   0.090   5.477  10.472
50680SOL     OW53936   1.086  12.507   7.564
50680SOL    HW153937   1.040  12.580   7.605
50680SOL    HW253938   1.079  12.436   7.627
50681SOL     OW53939  10.892   8.636   4.876
50681SOL    HW153940  10.985   8.619   4.864
50681SOL    HW253941  10.848   8.558   4.843
50682SOL     OW53942   3.173  11.810   0.123
50682SOL    HW153943   3.203  11.839   0.209
50682SOL    HW253944   3.253  11.803   0.071
50683SOL     OW53945   0.307   8.073  11.974
50683SOL    HW153946   0.337   8.133  11.906
50683SOL    HW253947   0.383   8.018  11.993
50684SOL     OW53948  11.039  13.849  12.295
50684SOL    HW153949  10.985  13.773  12.274
50684SOL    HW253950  11.061  13.838  12.387
50685SOL     OW53951  10.650   3.208   0.269
50685SOL    HW153952  10.635   3.232   0.178
50685SOL    HW253953  10.563   3.211   0.310
50686SOL     OW53954  12.886   5.296   8.280
50686SOL    HW153955  12.883   5.389   8.300
50686SOL    HW253956  12.957   5.262   8.336
50687SOL     OW53957  14.081   8.507   2.204
50687SOL    HW153958  14.086   8.448   2.280
50687SOL    HW253959  14.016   8.467   2.146
50688SOL     OW53960   5.403  13.699   9.670
50688SOL    HW153961   5.414  13.610   9.639
50688SOL    HW253962   5.366  13.689   9.758
50689SOL     OW53963  14.458   0.452   7.681
50689SOL    HW153964  14.450   0.357   7.670
50689SOL    HW253965  14.457   0.466   7.776
50690SOL     OW53966   5.584  12.803  11.334
50690SOL    HW153967   5.667  12.794  11.286
50690SOL    HW253968   5.607  12.789  11.425
50691SOL     OW53969   8.586   9.438   4.881
50691SOL    HW153970   8.625   9.466   4.965
50691SOL    HW253971   8.660   9.438   4.820
50692SOL     OW53972  12.188   1.080   9.941
50692SOL    HW153973  12.275   1.076   9.979
50692SOL    HW253974  12.151   0.993   9.954
50693SOL     OW53975  11.377  12.190   1.756
50693SOL    HW153976  11.285  12.201   1.735
50693SOL    HW253977  11.405  12.276   1.789
50694SOL     OW53978   3.193  10.606   5.854
50694SOL    HW153979   3.274  10.555   5.855
50694SOL    HW253980   3.175  10.623   5.762
50695SOL     OW53981   3.308   1.280   1.316
50695SOL    HW153982   3.266   1.350   1.366
50695SOL    HW253983   3.254   1.203   1.333
50696SOL     OW53984   7.741  14.196  11.922
50696SOL    HW153985   7.689  14.238  11.854
50696SOL    HW253986   7.781  14.121  11.878
50697SOL     OW53987   5.388   7.782   5.038
50697SOL    HW153988   5.419   7.814   5.122
50697SOL    HW253989   5.301   7.746   5.057
50698SOL     OW53990  13.095   2.869  12.306
50698SOL    HW153991  13.139   2.822  12.234
50698SOL    HW253992  13.003   2.866  12.283
50699SOL     OW53993   7.207   1.636   4.925
50699SOL    HW153994   7.160   1.648   5.007
50699SOL    HW253995   7.197   1.719   4.879
50700SOL     OW53996   6.203   2.177   9.518
50700SOL    HW153997   6.162   2.153   9.601
50700SOL    HW253998   6.264   2.105   9.500
50701SOL     OW53999   8.186  12.546   3.611
50701SOL    HW154000   8.224  12.604   3.545
50701SOL    HW254001   8.179  12.461   3.568
50702SOL     OW54002   8.703  12.865   2.572
50702SOL    HW154003   8.625  12.897   2.618
50702SOL    HW254004   8.674  12.853   2.482
50703SOL     OW54005  13.889   4.002   6.682
50703SOL    HW154006  13.873   3.952   6.602
50703SOL    HW254007  13.803   4.039   6.705
50704SOL     OW54008  14.264   7.348  11.706
50704SOL    HW154009  14.257   7.412  11.777
50704SOL    HW254010  14.357   7.325  11.703
50705SOL     OW54011   0.375   3.316   3.141
50705SOL    HW154012   0.322   3.393   3.161
50705SOL    HW254013   0.436   3.346   3.073
50706SOL     OW54014  11.164  11.004   3.435
50706SOL    HW154015  11.094  11.038   3.379
50706SOL    HW254016  11.213  11.081   3.463
50707SOL     OW54017   0.228  10.199  10.114
50707SOL    HW154018   0.283  10.210  10.036
50707SOL    HW254019   0.156  10.261  10.100
50708SOL     OW54020   4.199   3.362  10.640
50708SOL    HW154021   4.168   3.391  10.726
50708SOL    HW254022   4.237   3.440  10.600
50709SOL     OW54023   6.993   9.150   5.809
50709SOL    HW154024   7.084   9.137   5.834
50709SOL    HW254025   6.943   9.128   5.888
50710SOL     OW54026   8.782   2.158   8.789
50710SOL    HW154027   8.783   2.070   8.753
50710SOL    HW254028   8.697   2.194   8.765
50711SOL     OW54029   8.561  12.510   3.241
50711SOL    HW154030   8.514  12.427   3.228
50711SOL    HW254031   8.624  12.491   3.310
50712SOL     OW54032   0.282   2.709  14.721
50712SOL    HW154033   0.228   2.697  14.799
50712SOL    HW254034   0.252   2.791  14.683
50713SOL     OW54035   8.696  13.642   7.344
50713SOL    HW154036   8.737  13.723   7.315
50713SOL    HW254037   8.688  13.652   7.439
50714SOL     OW54038   5.400  13.315   4.897
50714SOL    HW154039   5.341  13.390   4.898
50714SOL    HW254040   5.487  13.354   4.889
50715SOL     OW54041   5.239   5.020   9.824
50715SOL    HW154042   5.244   4.927   9.799
50715SOL    HW254043   5.151   5.047   9.796
50716SOL     OW54044   3.061   0.212   0.968
50716SOL    HW154045   2.975   0.229   0.930
50716SOL    HW254046   3.069   0.276   1.038
50717SOL     OW54047  12.591   1.604   5.426
50717SOL    HW154048  12.523   1.538   5.419
50717SOL    HW254049  12.592   1.628   5.519
50718SOL     OW54050   9.123   8.781   5.329
50718SOL    HW154051   9.029   8.764   5.341
50718SOL    HW254052   9.166   8.702   5.359
50719SOL     OW54053   4.191  11.650   6.725
50719SOL    HW154054   4.197  11.556   6.705
50719SOL    HW254055   4.207  11.655   6.819
50720SOL     OW54056   1.303   2.492  11.157
50720SOL    HW154057   1.287   2.519  11.066
50720SOL    HW254058   1.218   2.459  11.188
50721SOL     OW54059   9.202  12.668   5.449
50721SOL    HW154060   9.292  12.660   5.479
50721SOL    HW254061   9.158  12.719   5.516
50722SOL     OW54062   3.079  11.030   0.881
50722SOL    HW154063   3.134  11.109   0.878
50722SOL    HW254064   3.097  10.992   0.967
50723SOL     OW54065   0.445   6.872  11.485
50723SOL    HW154066   0.532   6.901  11.456
50723SOL    HW254067   0.415   6.813  11.416
50724SOL     OW54068  10.801   0.100   4.602
50724SOL    HW154069  10.745   0.161   4.554
50724SOL    HW254070  10.864   0.157   4.647
50725SOL     OW54071   4.887   8.034   6.680
50725SOL    HW154072   4.879   8.129   6.671
50725SOL    HW254073   4.897   8.019   6.774
50726SOL     OW54074   7.518  13.415   1.979
50726SOL    HW154075   7.555  13.330   1.954
50726SOL    HW254076   7.523  13.467   1.899
50727SOL     OW54077  12.315   8.988   8.552
50727SOL    HW154078  12.325   8.938   8.632
50727SOL    HW254079  12.386   8.956   8.495
50728SOL     OW54080   4.317   1.430   2.910
50728SOL    HW154081   4.395   1.396   2.955
50728SOL    HW254082   4.329   1.405   2.819
50729SOL     OW54083   3.527   2.644   7.260
50729SOL    HW154084   3.528   2.650   7.355
50729SOL    HW254085   3.463   2.576   7.240
50730SOL     OW54086   0.049   4.774   2.172
50730SOL    HW154087  14.838   4.801   2.129
50730SOL    HW254088   0.103   4.737   2.102
50731SOL     OW54089   4.119   5.114  12.336
50731SOL    HW154090   4.071   5.138  12.416
50731SOL    HW254091   4.126   5.019  12.341
50732SOL     OW54092   4.158  11.933   2.528
50732SOL    HW154093   4.220  11.865   2.503
50732SOL    HW254094   4.143  11.983   2.448
50733SOL     OW54095   7.430  11.174   8.863
50733SOL    HW154096   7.479  11.108   8.812
50733SOL    HW254097   7.477  11.256   8.848
50734SOL     OW54098   1.303  13.542   6.412
50734SOL    HW154099   1.243  13.504   6.477
50734SOL    HW254100   1.270  13.630   6.398
50735SOL     OW54101  12.799   3.338   8.855
50735SOL    HW154102  12.785   3.388   8.774
50735SOL    HW254103  12.748   3.258   8.844
50736SOL     OW54104  12.242   9.844   9.654
50736SOL    HW154105  12.261   9.787   9.579
50736SOL    HW254106  12.215   9.927   9.614
50737SOL     OW54107  13.206   0.756  11.721
50737SOL    HW154108  13.234   0.797  11.803
50737SOL    HW254109  13.132   0.810  11.692
50738SOL     OW54110   5.956  11.817  11.857
50738SOL    HW154111   6.020  11.746  11.855
50738SOL    HW254112   6.006  11.894  11.885
50739SOL     OW54113  13.657   1.129  11.661
50739SOL    HW154114  13.590   1.153  11.596
50739SOL    HW254115  13.696   1.213  11.687
50740SOL     OW54116  14.195   2.319   9.747
50740SOL    HW154117  14.183   2.279   9.833
50740SOL    HW254118  14.111   2.308   9.704
50741SOL     OW54119   4.403  13.638   7.413
50741SOL    HW154120   4.337  13.569   7.412
50741SOL    HW254121   4.475  13.603   7.360
50742SOL     OW54122   5.238   7.341   5.118
50742SOL    HW154123   5.308   7.283   5.149
50742SOL    HW254124   5.271   7.377   5.036
50743SOL     OW54125   2.088   2.287  12.434
50743SOL    HW154126   2.072   2.193  12.430
50743SOL    HW254127   2.002   2.327  12.426
50744SOL     OW54128  12.190   3.344  11.466
50744SOL    HW154129  12.133   3.307  11.398
50744SOL    HW254130  12.278   3.324  11.435
50745SOL     OW54131   7.970  12.504   0.808
50745SOL    HW154132   8.007  12.433   0.859
50745SOL    HW254133   7.962  12.468   0.719
50746SOL     OW54134   6.610  10.706   1.932
50746SOL    HW154135   6.656  10.660   2.003
50746SOL    HW254136   6.633  10.657   1.853
50747SOL     OW54137   9.794   6.983  10.912
50747SOL    HW154138   9.816   6.899  10.871
50747SOL    HW254139   9.879   7.021  10.935
50748SOL     OW54140  11.372   0.797   7.092
50748SOL    HW154141  11.344   0.884   7.063
50748SOL    HW254142  11.431   0.767   7.023
50749SOL     OW54143  10.323  11.472   5.141
50749SOL    HW154144  10.355  11.534   5.207
50749SOL    HW254145  10.292  11.397   5.191
50750SOL     OW54146  13.514   9.895   1.294
50750SOL    HW154147  13.451   9.840   1.340
50750SOL    HW254148  13.566   9.936   1.364
50751SOL     OW54149   3.126  14.514   8.891
50751SOL    HW154150   3.059  14.466   8.842
50751SOL    HW254151   3.132  14.468   8.974
50752SOL     OW54152   1.018   8.241   8.191
50752SOL    HW154153   1.087   8.194   8.142
50752SOL    HW254154   1.063   8.315   8.230
50753SOL     OW54155  12.361  13.240   0.282
50753SOL    HW154156  12.398  13.250   0.369
50753SOL    HW254157  12.333  13.149   0.278
50754SOL     OW54158   5.869  12.410   8.056
50754SOL    HW154159   5.894  12.448   7.972
50754SOL    HW254160   5.831  12.484   8.104
50755SOL     OW54161   8.940  13.009  10.300
50755SOL    HW154162   8.885  13.063  10.243
50755SOL    HW254163   8.958  13.064  10.376
50756SOL     OW54164   9.142  10.257  10.660
50756SOL    HW154165   9.132  10.282  10.568
50756SOL    HW254166   9.063  10.207  10.680
50757SOL     OW54167   0.216  10.169   1.149
50757SOL    HW154168   0.160  10.241   1.118
50757SOL    HW254169   0.295  10.177   1.096
50758SOL     OW54170  11.409   7.547   9.624
50758SOL    HW154171  11.486   7.571   9.675
50758SOL    HW254172  11.337   7.592   9.668
50759SOL     OW54173   6.632  10.597   9.169
50759SOL    HW154174   6.715  10.617   9.212
50759SOL    HW254175   6.566  10.641   9.222
50760SOL     OW54176  13.099  10.480   9.556
50760SOL    HW154177  13.050  10.417   9.503
50760SOL    HW254178  13.110  10.556   9.499
50761SOL     OW54179  11.802  12.213   0.706
50761SOL    HW154180  11.809  12.163   0.787
50761SOL    HW254181  11.775  12.300   0.733
50762SOL     OW54182   7.669   0.024   4.665
50762SOL    HW154183   7.730   0.060   4.729
50762SOL    HW254184   7.589   0.009   4.714
50763SOL     OW54185   7.595   0.204   1.403
50763SOL    HW154186   7.588   0.115   1.436
50763SOL    HW254187   7.689   0.220   1.395
50764SOL     OW54188  11.569   5.295   2.712
50764SOL    HW154189  11.477   5.320   2.701
50764SOL    HW254190  11.584   5.230   2.644
50765SOL     OW54191   7.525   9.527   0.179
50765SOL    HW154192   7.561   9.441   0.198
50765SOL    HW254193   7.600   9.587   0.188
50766SOL     OW54194   4.534   4.051   2.818
50766SOL    HW154195   4.589   4.054   2.896
50766SOL    HW254196   4.457   4.102   2.841
50767SOL     OW54197  13.864   5.755  12.950
50767SOL    HW154198  13.775   5.779  12.924
50767SOL    HW254199  13.870   5.661  12.932
50768SOL     OW54200   6.540   3.336   2.579
50768SOL    HW154201   6.612   3.276   2.602
50768SOL    HW254202   6.557   3.415   2.632
50769SOL     OW54203   1.683  11.413  12.713
50769SOL    HW154204   1.689  11.440  12.805
50769SOL    HW254205   1.771  11.426  12.678
50770SOL     OW54206   1.302   8.350   7.235
50770SOL    HW154207   1.295   8.312   7.148
50770SOL    HW254208   1.353   8.286   7.285
50771SOL     OW54209  14.244  11.203   5.784
50771SOL    HW154210  14.330  11.227   5.749
50771SOL    HW254211  14.182  11.258   5.737
50772SOL     OW54212  13.653   6.471   0.178
50772SOL    HW154213  13.561   6.485   0.202
50772SOL    HW254214  13.673   6.383   0.212
50773SOL     OW54215   6.675  10.727   1.403
50773SOL    HW154216   6.751  10.703   1.351
50773SOL    HW254217   6.630  10.794   1.350
50774SOL     OW54218  12.220   5.325  13.882
50774SOL    HW154219  12.231   5.231  13.865
50774SOL    HW254220  12.262   5.338  13.967
50775SOL     OW54221   6.637   8.314  12.484
50775SOL    HW154222   6.553   8.298  12.528
50775SOL    HW254223   6.663   8.402  12.513
50776SOL     OW54224   5.280   4.437   6.636
50776SOL    HW154225   5.303   4.345   6.647
50776SOL    HW254226   5.319   4.462   6.553
50777SOL     OW54227   4.517   7.882  13.370
50777SOL    HW154228   4.481   7.840  13.292
50777SOL    HW254229   4.610   7.894  13.350
50778SOL     OW54230   6.651   3.715  11.822
50778SOL    HW154231   6.686   3.788  11.872
50778SOL    HW254232   6.586   3.675  11.880
50779SOL     OW54233   1.971   2.256   5.757
50779SOL    HW154234   1.960   2.282   5.665
50779SOL    HW254235   1.995   2.164   5.753
50780SOL     OW54236   8.419  11.869   5.918
50780SOL    HW154237   8.440  11.816   5.841
50780SOL    HW254238   8.387  11.952   5.883
50781SOL     OW54239   4.329   2.817   1.791
50781SOL    HW154240   4.364   2.787   1.876
50781SOL    HW254241   4.251   2.867   1.814
50782SOL     OW54242   3.468   9.604   4.638
50782SOL    HW154243   3.562   9.587   4.650
50782SOL    HW254244   3.450   9.575   4.548
50783SOL     OW54245   2.889  14.626  12.659
50783SOL    HW154246   2.948  14.551  12.666
50783SOL    HW254247   2.907  14.678  12.737
50784SOL     OW54248   5.647   0.777   0.539
50784SOL    HW154249   5.698   0.738   0.609
50784SOL    HW254250   5.700   0.850   0.507
50785SOL     OW54251  12.525  10.903   6.540
50785SOL    HW154252  12.509  10.877   6.631
50785SOL    HW254253  12.447  10.875   6.493
50786SOL     OW54254  14.006  10.529   9.662
50786SOL    HW154255  13.993  10.504   9.753
50786SOL    HW254256  13.928  10.495   9.617
50787SOL     OW54257   4.474   4.992  10.827
50787SOL    HW154258   4.454   5.044  10.750
50787SOL    HW254259   4.557   5.027  10.859
50788SOL     OW54260  10.285   3.978  12.501
50788SOL    HW154261  10.337   4.058  12.497
50788SOL    HW254262  10.301   3.934  12.417
50789SOL     OW54263  12.557  10.154   9.394
50789SOL    HW154264  12.479  10.142   9.340
50789SOL    HW254265  12.604  10.072   9.387
50790SOL     OW54266   7.203   9.760   6.552
50790SOL    HW154267   7.199   9.755   6.648
50790SOL    HW254268   7.282   9.710   6.529
50791SOL     OW54269  13.448   0.473   8.888
50791SOL    HW154270  13.383   0.535   8.854
50791SOL    HW254271  13.424   0.389   8.849
50792SOL     OW54272  13.992  10.018   3.319
50792SOL    HW154273  13.929  10.088   3.333
50792SOL    HW254274  13.940   9.944   3.287
50793SOL     OW54275  10.715   4.626   4.814
50793SOL    HW154276  10.745   4.695   4.755
50793SOL    HW254277  10.733   4.544   4.767
50794SOL     OW54278   0.053   4.345  13.496
50794SOL    HW154279   0.085   4.289  13.425
50794SOL    HW254280   0.061   4.290  13.574
50795SOL     OW54281  11.590  10.536   6.556
50795SOL    HW154282  11.520  10.471   6.547
50795SOL    HW254283  11.626  10.545   6.468
50796SOL     OW54284   4.845  13.850   8.503
50796SOL    HW154285   4.791  13.780   8.469
50796SOL    HW254286   4.923  13.806   8.538
50797SOL     OW54287   6.292   4.891   9.880
50797SOL    HW154288   6.212   4.913   9.831
50797SOL    HW254289   6.331   4.976   9.900
50798SOL     OW54290  12.946  11.645   2.081
50798SOL    HW154291  12.905  11.592   2.013
50798SOL    HW254292  13.034  11.609   2.090
50799SOL     OW54293   4.217   5.414   5.365
50799SOL    HW154294   4.169   5.441   5.443
50799SOL    HW254295   4.279   5.348   5.397
50800SOL     OW54296   9.000  14.768   7.064
50800SOL    HW154297   8.918  14.725   7.038
50800SOL    HW254298   9.048  14.700   7.111
50801SOL     OW54299  13.968   8.110   8.907
50801SOL    HW154300  13.914   8.130   8.983
50801SOL    HW254301  13.910   8.122   8.832
50802SOL     OW54302   5.575  10.043  11.014
50802SOL    HW154303   5.501  10.039  11.075
50802SOL    HW254304   5.631   9.969  11.038
50803SOL     OW54305   5.942   1.415  13.948
50803SOL    HW154306   5.974   1.329  13.976
50803SOL    HW254307   5.849   1.414  13.971
50804SOL     OW54308   8.636   5.960  14.553
50804SOL    HW154309   8.594   6.005  14.480
50804SOL    HW254310   8.674   6.031  14.605
50805SOL     OW54311   2.472   0.415   0.634
50805SOL    HW154312   2.465   0.404   0.728
50805SOL    HW254313   2.387   0.448   0.607
50806SOL     OW54314   3.656   6.277  13.525
50806SOL    HW154315   3.581   6.241  13.477
50806SOL    HW254316   3.631   6.368  13.542
50807SOL     OW54317  12.633  12.237   2.378
50807SOL    HW154318  12.569  12.307   2.385
50807SOL    HW254319  12.639  12.201   2.467
50808SOL     OW54320  11.544   9.377   5.533
50808SOL    HW154321  11.488   9.327   5.593
50808SOL    HW254322  11.513   9.467   5.541
50809SOL     OW54323   5.997  10.179   3.806
50809SOL    HW154324   5.945  10.141   3.735
50809SOL    HW254325   5.945  10.253   3.837
50810SOL     OW54326   2.120  14.781   0.332
50810SOL    HW154327   2.147  14.807   0.245
50810SOL    HW254328   2.185  14.819   0.391
50811SOL     OW54329   9.840   2.462   8.625
50811SOL    HW154330   9.800   2.548   8.637
50811SOL    HW254331   9.909   2.477   8.561
50812SOL     OW54332   2.434   1.902  10.764
50812SOL    HW154333   2.487   1.970  10.723
50812SOL    HW254334   2.358   1.893  10.706
50813SOL     OW54335   2.799   3.928   4.112
50813SOL    HW154336   2.892   3.920   4.135
50813SOL    HW254337   2.795   3.905   4.019
50814SOL     OW54338  14.268  11.966  12.681
50814SOL    HW154339  14.354  11.926  12.696
50814SOL    HW254340  14.277  12.013  12.599
50815SOL     OW54341   5.938   2.818  10.344
50815SOL    HW154342   6.006   2.807  10.410
50815SOL    HW254343   5.949   2.745  10.284
50816SOL     OW54344   3.953   2.519  14.564
50816SOL    HW154345   4.010   2.445  14.544
50816SOL    HW254346   3.871   2.479  14.593
50817SOL     OW54347   7.302   8.244   1.183
50817SOL    HW154348   7.228   8.218   1.238
50817SOL    HW254349   7.359   8.168   1.181
50818SOL     OW54350   6.590   8.581  13.589
50818SOL    HW154351   6.560   8.569  13.499
50818SOL    HW254352   6.667   8.524  13.597
50819SOL     OW54353   9.270   6.260   3.467
50819SOL    HW154354   9.280   6.342   3.516
50819SOL    HW254355   9.185   6.227   3.493
50820SOL     OW54356  14.040   8.576   6.827
50820SOL    HW154357  14.077   8.531   6.751
50820SOL    HW254358  14.071   8.526   6.902
50821SOL     OW54359   4.980  12.769  13.086
50821SOL    HW154360   4.896  12.787  13.043
50821SOL    HW254361   5.041  12.754  13.013
50822SOL     OW54362   2.136   5.483  14.444
50822SOL    HW154363   2.082   5.406  14.426
50822SOL    HW254364   2.174   5.467  14.531
50823SOL     OW54365   1.224  11.613  11.174
50823SOL    HW154366   1.299  11.564  11.209
50823SOL    HW254367   1.223  11.591  11.081
50824SOL     OW54368   2.065  10.838   8.829
50824SOL    HW154369   2.058  10.859   8.922
50824SOL    HW254370   2.159  10.827   8.813
50825SOL     OW54371  11.698  11.736   5.091
50825SOL    HW154372  11.746  11.792   5.030
50825SOL    HW254373  11.756  11.660   5.104
50826SOL     OW54374   0.011  14.705  11.071
50826SOL    HW154375  14.848  14.791  11.098
50826SOL    HW254376   0.103  14.720  11.048
50827SOL     OW54377   5.280  10.717  14.510
50827SOL    HW154378   5.369  10.695  14.482
50827SOL    HW254379   5.269  10.809  14.485
50828SOL     OW54380   4.022  13.049   3.793
50828SOL    HW154381   4.000  13.067   3.884
50828SOL    HW254382   4.095  12.986   3.799
50829SOL     OW54383  11.802   8.205  11.720
50829SOL    HW154384  11.747   8.151  11.663
50829SOL    HW254385  11.776   8.295  11.699
50830SOL     OW54386   1.619  14.641   0.163
50830SOL    HW154387   1.660  14.555   0.175
50830SOL    HW254388   1.538  14.637   0.214
50831SOL     OW54389   8.510   0.314   1.042
50831SOL    HW154390   8.491   0.235   0.990
50831SOL    HW254391   8.551   0.281   1.121
50832SOL     OW54392   2.633   9.230  12.682
50832SOL    HW154393   2.721   9.249  12.649
50832SOL    HW254394   2.575   9.280  12.624
50833SOL     OW54395   9.846   4.131   2.906
50833SOL    HW154396   9.802   4.066   2.960
50833SOL    HW254397   9.785   4.148   2.834
50834SOL     OW54398   0.788   2.345   6.348
50834SOL    HW154399   0.805   2.259   6.310
50834SOL    HW254400   0.737   2.391   6.281
50835SOL     OW54401   5.453   7.190   5.182
50835SOL    HW154402   5.510   7.195   5.258
50835SOL    HW254403   5.377   7.140   5.211
50836SOL     OW54404   6.323   9.616  14.472
50836SOL    HW154405   6.405   9.665  14.462
50836SOL    HW254406   6.255   9.675  14.440
50837SOL     OW54407   3.606   5.076   6.391
50837SOL    HW154408   3.673   5.069   6.323
50837SOL    HW254409   3.526   5.046   6.348
50838SOL     OW54410   6.865   1.641   6.953
50838SOL    HW154411   6.908   1.586   7.018
50838SOL    HW254412   6.777   1.605   6.944
50839SOL     OW54413   7.911   9.853  10.113
50839SOL    HW154414   7.827   9.875  10.074
50839SOL    HW254415   7.939   9.774  10.066
50840SOL     OW54416  14.223   0.336   2.638
50840SOL    HW154417  14.145   0.390   2.624
50840SOL    HW254418  14.289   0.397   2.670
50841SOL     OW54419   2.800   1.018  13.062
50841SOL    HW154420   2.830   1.026  13.153
50841SOL    HW254421   2.834   0.933  13.033
50842SOL     OW54422  11.146   1.896   1.971
50842SOL    HW154423  11.214   1.829   1.963
50842SOL    HW254424  11.068   1.855   1.935
50843SOL     OW54425   9.973   4.113   7.464
50843SOL    HW154426   9.906   4.163   7.417
50843SOL    HW254427   9.974   4.152   7.551
50844SOL     OW54428   2.992   2.901   6.327
50844SOL    HW154429   2.999   2.853   6.410
50844SOL    HW254430   2.987   2.833   6.260
50845SOL     OW54431  10.728   0.931  10.420
50845SOL    HW154432  10.649   0.980  10.442
50845SOL    HW254433  10.796   0.966  10.477
50846SOL     OW54434  12.634   5.913  13.454
50846SOL    HW154435  12.553   5.944  13.413
50846SOL    HW254436  12.640   5.962  13.536
50847SOL     OW54437   6.980   7.928   1.998
50847SOL    HW154438   6.908   7.890   2.049
50847SOL    HW254439   6.937   7.989   1.938
50848SOL     OW54440  14.417   6.561   1.736
50848SOL    HW154441  14.488   6.515   1.780
50848SOL    HW254442  14.407   6.643   1.784
50849SOL     OW54443   1.163  13.998  12.935
50849SOL    HW154444   1.095  13.957  12.882
50849SOL    HW254445   1.117  14.032  13.012
50850SOL     OW54446   9.657   1.309  13.985
50850SOL    HW154447   9.716   1.236  14.004
50850SOL    HW254448   9.631   1.342  14.071
50851SOL     OW54449   1.783   8.000   0.922
50851SOL    HW154450   1.779   7.935   0.852
50851SOL    HW254451   1.762   8.083   0.878
50852SOL     OW54452   9.766   8.942   6.936
50852SOL    HW154453   9.810   8.866   6.897
50852SOL    HW254454   9.812   9.018   6.901
50853SOL     OW54455   6.025   7.746   0.225
50853SOL    HW154456   5.997   7.730   0.135
50853SOL    HW254457   6.085   7.675   0.245
50854SOL     OW54458  10.903  13.554   2.652
50854SOL    HW154459  10.992  13.525   2.672
50854SOL    HW254460  10.864  13.574   2.737
50855SOL     OW54461   6.913  14.395   9.621
50855SOL    HW154462   6.900  14.332   9.692
50855SOL    HW254463   6.979  14.355   9.564
50856SOL     OW54464   9.532   2.362  10.991
50856SOL    HW154465   9.487   2.369  10.907
50856SOL    HW254466   9.531   2.451  11.026
50857SOL     OW54467   6.775   8.778  11.129
50857SOL    HW154468   6.767   8.854  11.187
50857SOL    HW254469   6.698   8.725  11.148
50858SOL     OW54470  12.159   7.654   2.685
50858SOL    HW154471  12.193   7.660   2.595
50858SOL    HW254472  12.226   7.699   2.738
50859SOL     OW54473   7.143  14.640  11.475
50859SOL    HW154474   7.055  14.648  11.438
50859SOL    HW254475   7.183  14.726  11.461
50860SOL     OW54476  12.246   3.194   4.814
50860SOL    HW154477  12.321   3.192   4.754
50860SOL    HW254478  12.227   3.102   4.832
50861SOL     OW54479   2.772   4.442  12.977
50861SOL    HW154480   2.704   4.375  12.975
50861SOL    HW254481   2.780   4.470  12.885
50862SOL     OW54482   7.824  12.472  10.422
50862SOL    HW154483   7.769  12.531  10.370
50862SOL    HW254484   7.874  12.422  10.357
50863SOL     OW54485   6.500   0.524  14.757
50863SOL    HW154486   6.493   0.593  14.822
50863SOL    HW254487   6.431   0.462  14.779
50864SOL     OW54488   7.288  10.843   3.820
50864SOL    HW154489   7.196  10.871   3.820
50864SOL    HW254490   7.305  10.822   3.728
50865SOL     OW54491  14.582  12.738   1.820
50865SOL    HW154492  14.566  12.813   1.762
50865SOL    HW254493  14.676  12.720   1.812
50866SOL     OW54494   8.692  13.691  10.982
50866SOL    HW154495   8.612  13.731  10.947
50866SOL    HW254496   8.677  13.597  10.971
50867SOL     OW54497   3.915   9.547  14.849
50867SOL    HW154498   3.839   9.598   0.005
50867SOL    HW254499   3.983   9.570   0.044
50868SOL     OW54500  14.310   9.655   5.077
50868SOL    HW154501  14.251   9.644   5.003
50868SOL    HW254502  14.340   9.567   5.098
50869SOL     OW54503   2.949  10.029   8.355
50869SOL    HW154504   3.013  10.064   8.294
50869SOL    HW254505   2.879  10.094   8.357
50870SOL     OW54506   4.433   4.436  10.190
50870SOL    HW154507   4.389   4.507  10.144
50870SOL    HW254508   4.423   4.458  10.283
50871SOL     OW54509   4.671   0.261   5.590
50871SOL    HW154510   4.577   0.273   5.604
50871SOL    HW254511   4.696   0.195   5.655
50872SOL     OW54512  14.546   3.681  11.846
50872SOL    HW154513  14.468   3.726  11.813
50872SOL    HW254514  14.589   3.646  11.767
50873SOL     OW54515  12.205   7.103   0.553
50873SOL    HW154516  12.300   7.095   0.537
50873SOL    HW254517  12.165   7.054   0.482
50874SOL     OW54518   5.220  14.225  11.004
50874SOL    HW154519   5.131  14.200  11.030
50874SOL    HW254520   5.270  14.224  11.085
50875SOL     OW54521   8.033   1.309   4.487
50875SOL    HW154522   7.956   1.252   4.479
50875SOL    HW254523   8.100   1.266   4.434
50876SOL     OW54524   8.220   7.474  14.466
50876SOL    HW154525   8.202   7.429  14.384
50876SOL    HW254526   8.137   7.473  14.513
50877SOL     OW54527  12.081   3.362   5.882
50877SOL    HW154528  12.137   3.286   5.898
50877SOL    HW254529  12.057   3.393   5.969
50878SOL     OW54530   4.883  10.383   4.440
50878SOL    HW154531   4.852  10.473   4.434
50878SOL    HW254532   4.901  10.357   4.350
50879SOL     OW54533  14.271  12.429   3.861
50879SOL    HW154534  14.323  12.356   3.895
50879SOL    HW254535  14.184  12.391   3.844
50880SOL     OW54536   8.450  11.177  10.353
50880SOL    HW154537   8.517  11.233  10.314
50880SOL    HW254538   8.410  11.132  10.278
50881SOL     OW54539  10.610   6.241  12.532
50881SOL    HW154540  10.537   6.195  12.490
50881SOL    HW254541  10.579   6.331  12.543
50882SOL     OW54542  14.135   3.317   0.248
50882SOL    HW154543  14.106   3.370   0.323
50882SOL    HW254544  14.202   3.371   0.206
50883SOL     OW54545  12.991   5.266  13.155
50883SOL    HW154546  13.028   5.230  13.236
50883SOL    HW254547  12.981   5.360  13.172
50884SOL     OW54548   5.726   1.399   1.138
50884SOL    HW154549   5.750   1.428   1.226
50884SOL    HW254550   5.631   1.396   1.138
50885SOL     OW54551   9.401   9.952   3.797
50885SOL    HW154552   9.330   9.912   3.847
50885SOL    HW254553   9.357  10.012   3.737
50886SOL     OW54554   5.070   7.506   8.018
50886SOL    HW154555   5.066   7.541   7.928
50886SOL    HW254556   5.127   7.567   8.064
50887SOL     OW54557   2.815   8.260   2.902
50887SOL    HW154558   2.852   8.232   2.817
50887SOL    HW254559   2.888   8.250   2.963
50888SOL     OW54560   7.619   5.031   9.991
50888SOL    HW154561   7.581   5.043   9.904
50888SOL    HW254562   7.547   5.001  10.045
50889SOL     OW54563   2.268  13.559  11.493
50889SOL    HW154564   2.269  13.584  11.400
50889SOL    HW254565   2.353  13.519  11.507
50890SOL     OW54566   3.341  10.430  12.661
50890SOL    HW154567   3.300  10.421  12.575
50890SOL    HW254568   3.425  10.385  12.653
50891SOL     OW54569   9.022   5.464  11.070
50891SOL    HW154570   9.058   5.446  11.157
50891SOL    HW254571   9.037   5.383  11.020
50892SOL     OW54572   4.478  14.601  14.444
50892SOL    HW154573   4.395  14.644  14.464
50892SOL    HW254574   4.467  14.511  14.475
50893SOL     OW54575   9.658  12.645  12.285
50893SOL    HW154576   9.566  12.666  12.293
50893SOL    HW254577   9.688  12.632  12.375
50894SOL     OW54578  10.886   9.101   5.846
50894SOL    HW154579  10.814   9.162   5.828
50894SOL    HW254580  10.938   9.102   5.766
50895SOL     OW54581  10.496   4.379  13.866
50895SOL    HW154582  10.455   4.408  13.947
50895SOL    HW254583  10.590   4.392  13.879
50896SOL     OW54584   3.235   3.250   3.982
50896SOL    HW154585   3.318   3.207   4.002
50896SOL    HW254586   3.253   3.343   3.992
50897SOL     OW54587  12.938  13.887   9.069
50897SOL    HW154588  13.016  13.927   9.108
50897SOL    HW254589  12.951  13.897   8.974
50898SOL     OW54590   3.991   5.087   7.947
50898SOL    HW154591   4.035   5.111   8.029
50898SOL    HW254592   3.998   5.165   7.893
50899SOL     OW54593   4.097  13.313   4.163
50899SOL    HW154594   4.098  13.231   4.114
50899SOL    HW254595   4.189  13.330   4.184
50900SOL     OW54596   9.329   5.308   9.931
50900SOL    HW154597   9.297   5.353   9.852
50900SOL    HW254598   9.369   5.377   9.983
50901SOL     OW54599   8.393   7.310  12.526
50901SOL    HW154600   8.436   7.370  12.466
50901SOL    HW254601   8.449   7.310  12.604
50902SOL     OW54602   9.800   4.123   9.537
50902SOL    HW154603   9.743   4.101   9.610
50902SOL    HW254604   9.878   4.068   9.549
50903SOL     OW54605  12.248   4.511  13.633
50903SOL    HW154606  12.304   4.525  13.709
50903SOL    HW254607  12.218   4.420  13.642
50904SOL     OW54608   3.226   7.702   5.179
50904SOL    HW154609   3.251   7.792   5.201
50904SOL    HW254610   3.299   7.649   5.209
50905SOL     OW54611   4.086   8.120   2.855
50905SOL    HW154612   4.139   8.183   2.905
50905SOL    HW254613   4.116   8.035   2.886
50906SOL     OW54614   6.931   9.823  14.701
50906SOL    HW154615   6.953   9.765  14.774
50906SOL    HW254616   7.014   9.864  14.678
50907SOL     OW54617   2.527   1.129  12.688
50907SOL    HW154618   2.596   1.103  12.749
50907SOL    HW254619   2.446   1.117  12.737
50908SOL     OW54620  14.395   3.900   1.290
50908SOL    HW154621  14.393   3.817   1.243
50908SOL    HW254622  14.323   3.895   1.352
50909SOL     OW54623  12.948   1.503   8.954
50909SOL    HW154624  13.020   1.500   9.017
50909SOL    HW254625  12.990   1.501   8.868
50910SOL     OW54626   2.009   1.217  12.448
50910SOL    HW154627   1.986   1.128  12.421
50910SOL    HW254628   2.021   1.211  12.543
50911SOL     OW54629  14.549   7.395  12.901
50911SOL    HW154630  14.560   7.329  12.970
50911SOL    HW254631  14.605   7.468  12.929
50912SOL     OW54632   0.170   7.026  12.933
50912SOL    HW154633   0.182   7.110  12.889
50912SOL    HW254634   0.094   7.040  12.990
50913SOL     OW54635  11.067  14.756  14.187
50913SOL    HW154636  11.088  14.786  14.099
50913SOL    HW254637  10.975  14.728  14.181
50914SOL     OW54638   8.091   5.882   3.525
50914SOL    HW154639   8.045   5.927   3.596
50914SOL    HW254640   8.150   5.821   3.569
50915SOL     OW54641   3.465  11.468   3.789
50915SOL    HW154642   3.418  11.550   3.800
50915SOL    HW254643   3.551  11.484   3.826
50916SOL     OW54644   1.802   4.205   8.397
50916SOL    HW154645   1.815   4.282   8.451
50916SOL    HW254646   1.843   4.134   8.446
50917SOL     OW54647  11.808   0.037  10.495
50917SOL    HW154648  11.811  14.842  10.565
50917SOL    HW254649  11.739   0.098  10.522
50918SOL     OW54650   5.996   8.927   9.996
50918SOL    HW154651   5.981   8.888   9.910
50918SOL    HW254652   6.089   8.914  10.012
50919SOL     OW54653   0.657  10.798  10.106
50919SOL    HW154654   0.673  10.888  10.078
50919SOL    HW254655   0.727  10.747  10.064
50920SOL     OW54656  13.697   3.107   5.812
50920SOL    HW154657  13.717   3.013   5.820
50920SOL    HW254658  13.677   3.134   5.902
50921SOL     OW54659   3.265  13.739   8.938
50921SOL    HW154660   3.228  13.670   8.993
50921SOL    HW254661   3.202  13.750   8.867
50922SOL     OW54662   9.458   4.451   0.492
50922SOL    HW154663   9.414   4.366   0.496
50922SOL    HW254664   9.467   4.478   0.583
50923SOL     OW54665  10.200   3.403   8.944
50923SOL    HW154666  10.163   3.318   8.922
50923SOL    HW254667  10.179   3.415   9.037
50924SOL     OW54668   8.576  13.778   0.919
50924SOL    HW154669   8.484  13.804   0.923
50924SOL    HW254670   8.587  13.718   0.993
50925SOL     OW54671  12.452   1.112   5.065
50925SOL    HW154672  12.435   1.197   5.025
50925SOL    HW254673  12.412   1.048   5.006
50926SOL     OW54674   9.009   5.877   2.888
50926SOL    HW154675   9.016   5.814   2.959
50926SOL    HW254676   8.943   5.840   2.829
50927SOL     OW54677   3.057   4.397   8.573
50927SOL    HW154678   2.966   4.425   8.563
50927SOL    HW254679   3.072   4.337   8.500
50928SOL     OW54680   7.284   8.483   8.951
50928SOL    HW154681   7.223   8.488   8.877
50928SOL    HW254682   7.239   8.528   9.022
50929SOL     OW54683  12.947   5.086   5.541
50929SOL    HW154684  12.923   5.024   5.610
50929SOL    HW254685  13.043   5.089   5.545
50930SOL     OW54686   4.666  10.826   1.045
50930SOL    HW154687   4.744  10.771   1.036
50930SOL    HW254688   4.646  10.855   0.956
50931SOL     OW54689  10.568   1.380  13.100
50931SOL    HW154690  10.647   1.381  13.154
50931SOL    HW254691  10.500   1.417  13.157
50932SOL     OW54692  14.561   6.177   3.113
50932SOL    HW154693  14.590   6.105   3.057
50932SOL    HW254694  14.641   6.224   3.136
50933SOL     OW54695   3.456  11.359   9.443
50933SOL    HW154696   3.428  11.450   9.452
50933SOL    HW254697   3.551  11.362   9.458
50934SOL     OW54698   6.050   5.408   0.174
50934SOL    HW154699   6.120   5.343   0.178
50934SOL    HW254700   5.977   5.368   0.221
50935SOL     OW54701   8.623   4.175   4.939
50935SOL    HW154702   8.578   4.223   5.009
50935SOL    HW254703   8.607   4.083   4.958
50936SOL     OW54704   5.804  12.913  14.744
50936SOL    HW154705   5.859  12.947  14.674
50936SOL    HW254706   5.716  12.906  14.705
50937SOL     OW54707   8.996  13.445  12.033
50937SOL    HW154708   8.988  13.397  11.951
50937SOL    HW254709   9.082  13.421  12.067
50938SOL     OW54710   0.342  11.330   0.541
50938SOL    HW154711   0.302  11.386   0.474
50938SOL    HW254712   0.435  11.334   0.522
50939SOL     OW54713  13.926  14.294   5.689
50939SOL    HW154714  13.890  14.293   5.600
50939SOL    HW254715  13.913  14.205   5.721
50940SOL     OW54716   4.068   7.564   9.078
50940SOL    HW154717   3.993   7.582   9.022
50940SOL    HW254718   4.113   7.648   9.086
50941SOL     OW54719   9.826  10.867   0.393
50941SOL    HW154720   9.787  10.954   0.403
50941SOL    HW254721   9.911  10.873   0.437
50942SOL     OW54722   8.942  10.849  14.769
50942SOL    HW154723   8.968  10.775  14.822
50942SOL    HW254724   8.885  10.811  14.701
50943SOL     OW54725  10.370  13.600   4.473
50943SOL    HW154726  10.283  13.569   4.450
50943SOL    HW254727  10.370  13.693   4.450
50944SOL     OW54728   9.894   2.419   4.641
50944SOL    HW154729   9.968   2.374   4.602
50944SOL    HW254730   9.908   2.511   4.619
50945SOL     OW54731   9.465  13.750   1.483
50945SOL    HW154732   9.401  13.683   1.459
50945SOL    HW254733   9.534  13.741   1.417
50946SOL     OW54734   1.603   1.088   3.781
50946SOL    HW154735   1.669   1.104   3.713
50946SOL    HW254736   1.558   1.008   3.752
50947SOL     OW54737  13.323  14.431  10.022
50947SOL    HW154738  13.265  14.465   9.955
50947SOL    HW254739  13.339  14.340   9.998
50948SOL     OW54740  12.037   6.954  11.381
50948SOL    HW154741  12.119   6.914  11.352
50948SOL    HW254742  12.038   7.041  11.342
50949SOL     OW54743   8.031   7.222   4.835
50949SOL    HW154744   8.056   7.190   4.922
50949SOL    HW254745   8.114   7.246   4.794
50950SOL     OW54746   7.074  12.219   4.356
50950SOL    HW154747   7.128  12.143   4.374
50950SOL    HW254748   7.114  12.259   4.279
50951SOL     OW54749   3.120   7.379  12.514
50951SOL    HW154750   3.214   7.376  12.530
50951SOL    HW254751   3.111   7.374  12.419
50952SOL     OW54752  12.195   6.215   1.987
50952SOL    HW154753  12.202   6.254   1.900
50952SOL    HW254754  12.199   6.289   2.048
50953SOL     OW54755   9.009  10.031  11.430
50953SOL    HW154756   8.919  10.002  11.417
50953SOL    HW254757   9.032  10.079  11.350
50954SOL     OW54758  11.875  12.319   5.838
50954SOL    HW154759  11.864  12.323   5.933
50954SOL    HW254760  11.879  12.411   5.811
50955SOL     OW54761  13.661   7.463   7.232
50955SOL    HW154762  13.606   7.403   7.182
50955SOL    HW254763  13.701   7.410   7.300
50956SOL     OW54764   2.440   5.121  14.724
50956SOL    HW154765   2.407   5.138  14.812
50956SOL    HW254766   2.504   5.051  14.736
50957SOL     OW54767  10.815   9.216   0.710
50957SOL    HW154768  10.794   9.295   0.660
50957SOL    HW254769  10.816   9.245   0.801
50958SOL     OW54770   4.929   0.798   5.855
50958SOL    HW154771   4.968   0.829   5.773
50958SOL    HW254772   4.936   0.702   5.850
50959SOL     OW54773   2.593   6.934   0.828
50959SOL    HW154774   2.623   6.857   0.781
50959SOL    HW254775   2.517   6.964   0.780
50960SOL     OW54776  12.330   9.756   7.106
50960SOL    HW154777  12.244   9.798   7.096
50960SOL    HW254778  12.367   9.757   7.018
50961SOL     OW54779   1.807  13.882   5.675
50961SOL    HW154780   1.727  13.923   5.709
50961SOL    HW254781   1.846  13.839   5.751
50962SOL     OW54782   2.680  12.590   3.668
50962SOL    HW154783   2.764  12.616   3.630
50962SOL    HW254784   2.623  12.577   3.592
50963SOL     OW54785   0.611   0.754   1.089
50963SOL    HW154786   0.579   0.844   1.078
50963SOL    HW254787   0.699   0.765   1.126
50964SOL     OW54788   2.036   9.584  14.635
50964SOL    HW154789   2.054   9.616  14.547
50964SOL    HW254790   1.984   9.505  14.621
50965SOL     OW54791  11.388   2.950   8.931
50965SOL    HW154792  11.389   2.956   9.027
50965SOL    HW254793  11.476   2.919   8.909
50966SOL     OW54794   1.793   9.583  10.095
50966SOL    HW154795   1.859   9.607  10.031
50966SOL    HW254796   1.721   9.645  10.081
50967SOL     OW54797   8.561  11.460  13.463
50967SOL    HW154798   8.551  11.500  13.549
50967SOL    HW254799   8.540  11.530  13.401
50968SOL     OW54800   8.213   5.845   6.605
50968SOL    HW154801   8.165   5.856   6.687
50968SOL    HW254802   8.283   5.784   6.625
50969SOL     OW54803   1.846   2.234  11.218
50969SOL    HW154804   1.808   2.150  11.243
50969SOL    HW254805   1.871   2.223  11.126
50970SOL     OW54806   5.694   9.328   4.575
50970SOL    HW154807   5.667   9.277   4.652
50970SOL    HW254808   5.776   9.370   4.601
50971SOL     OW54809   8.706   2.131  14.576
50971SOL    HW154810   8.621   2.172  14.594
50971SOL    HW254811   8.741   2.110  14.663
50972SOL     OW54812   3.255   4.097   8.683
50972SOL    HW154813   3.277   4.055   8.766
50972SOL    HW254814   3.268   4.191   8.699
50973SOL     OW54815   3.086   7.440   1.665
50973SOL    HW154816   3.059   7.403   1.581
50973SOL    HW254817   3.175   7.407   1.678
50974SOL     OW54818  13.115  13.282  12.043
50974SOL    HW154819  13.080  13.371  12.036
50974SOL    HW254820  13.075  13.247  12.123
50975SOL     OW54821  10.906   5.518   3.348
50975SOL    HW154822  10.816   5.531   3.378
50975SOL    HW254823  10.954   5.593   3.382
50976SOL     OW54824  14.719  11.623   5.946
50976SOL    HW154825  14.717  11.642   5.853
50976SOL    HW254826  14.795  11.567   5.958
50977SOL     OW54827   3.586   0.818   9.625
50977SOL    HW154828   3.551   0.733   9.599
50977SOL    HW254829   3.511   0.877   9.622
50978SOL     OW54830   7.186  11.071   0.834
50978SOL    HW154831   7.188  10.982   0.799
50978SOL    HW254832   7.165  11.126   0.759
50979SOL     OW54833  12.477   1.887  10.861
50979SOL    HW154834  12.518   1.894  10.947
50979SOL    HW254835  12.433   1.971  10.849
50980SOL     OW54836  12.742   1.774   2.556
50980SOL    HW154837  12.674   1.828   2.597
50980SOL    HW254838  12.793   1.837   2.504
50981SOL     OW54839  11.042  11.105  10.658
50981SOL    HW154840  10.958  11.130  10.618
50981SOL    HW254841  11.071  11.030  10.607
50982SOL     OW54842   7.097   2.043   2.096
50982SOL    HW154843   7.033   2.105   2.131
50982SOL    HW254844   7.175   2.096   2.078
50983SOL     OW54845  10.570   9.086  13.217
50983SOL    HW154846  10.480   9.071  13.190
50983SOL    HW254847  10.563   9.124  13.305
50984SOL     OW54848  11.377   6.863   6.842
50984SOL    HW154849  11.438   6.892   6.911
50984SOL    HW254850  11.323   6.796   6.885
50985SOL     OW54851  14.287  14.789   2.667
50985SOL    HW154852  14.314  14.854   2.603
50985SOL    HW254853  14.333  14.709   2.642
50986SOL     OW54854   5.752   8.641  10.883
50986SOL    HW154855   5.820   8.709  10.882
50986SOL    HW254856   5.756   8.603  10.795
50987SOL     OW54857   7.860   7.129   4.611
50987SOL    HW154858   7.928   7.143   4.677
50987SOL    HW254859   7.813   7.051   4.641
50988SOL     OW54860   3.303   7.899  12.308
50988SOL    HW154861   3.219   7.935  12.281
50988SOL    HW254862   3.367   7.962  12.277
50989SOL     OW54863   1.223  14.834   5.010
50989SOL    HW154864   1.192  14.751   4.975
50989SOL    HW254865   1.171  14.848   5.089
50990SOL     OW54866   1.171   2.895   1.591
50990SOL    HW154867   1.259   2.931   1.602
50990SOL    HW254868   1.128   2.957   1.531
50991SOL     OW54869   1.865   7.209  13.742
50991SOL    HW154870   1.840   7.220  13.650
50991SOL    HW254871   1.815   7.276  13.789
50992SOL     OW54872   0.428   1.382   7.523
50992SOL    HW154873   0.387   1.333   7.451
50992SOL    HW254874   0.448   1.468   7.486
50993SOL     OW54875  14.335   3.412  10.803
50993SOL    HW154876  14.250   3.455  10.810
50993SOL    HW254877  14.322   3.326  10.845
50994SOL     OW54878  14.151   5.678   5.760
50994SOL    HW154879  14.157   5.606   5.823
50994SOL    HW254880  14.242   5.706   5.747
50995SOL     OW54881  12.894   5.192  10.238
50995SOL    HW154882  12.898   5.196  10.333
50995SOL    HW254883  12.907   5.282  10.209
50996SOL     OW54884  12.388  10.363  12.001
50996SOL    HW154885  12.459  10.305  12.029
50996SOL    HW254886  12.337  10.310  11.940
50997SOL     OW54887   3.285   0.089   6.223
50997SOL    HW154888   3.371   0.047   6.220
50997SOL    HW254889   3.273   0.124   6.135
50998SOL     OW54890   6.927  14.424   3.722
50998SOL    HW154891   6.913  14.339   3.763
50998SOL    HW254892   7.020  14.442   3.735
50999SOL     OW54893  10.122   3.742  13.604
50999SOL    HW154894  10.213   3.716  13.591
50999SOL    HW254895  10.079   3.664  13.639
51000SOL     OW54896   5.629   7.869   4.990
51000SOL    HW154897   5.649   7.926   5.064
51000SOL    HW254898   5.547   7.825   5.014
51001SOL     OW54899   9.474  10.507   1.014
51001SOL    HW154900   9.413  10.453   0.964
51001SOL    HW254901   9.553  10.511   0.960
51002SOL     OW54902   7.973  12.406  13.552
51002SOL    HW154903   7.895  12.438  13.597
51002SOL    HW254904   8.017  12.486  13.521
51003SOL     OW54905  13.960   3.982  14.701
51003SOL    HW154906  13.964   4.009  14.609
51003SOL    HW254907  13.988   4.059  14.750
51004SOL     OW54908   7.953   2.200  12.979
51004SOL    HW154909   7.949   2.248  13.062
51004SOL    HW254910   8.046   2.180  12.967
51005SOL     OW54911   3.149  14.440  12.487
51005SOL    HW154912   3.203  14.516  12.467
51005SOL    HW254913   3.087  14.435  12.415
51006SOL     OW54914  14.345   0.757   7.157
51006SOL    HW154915  14.350   0.714   7.072
51006SOL    HW254916  14.354   0.687   7.220
51007SOL     OW54917   8.864   0.590   5.670
51007SOL    HW154918   8.773   0.620   5.663
51007SOL    HW254919   8.906   0.622   5.590
51008SOL     OW54920  14.702   2.208  10.592
51008SOL    HW154921  14.641   2.280  10.579
51008SOL    HW254922  14.737   2.221  10.680
51009SOL     OW54923   0.885   6.645  14.666
51009SOL    HW154924   0.960   6.701  14.651
51009SOL    HW254925   0.837   6.686  14.738
51010SOL     OW54926  11.919   9.891  10.454
51010SOL    HW154927  11.878   9.977  10.462
51010SOL    HW254928  11.970   9.896  10.373
51011SOL     OW54929  11.025   2.100   1.552
51011SOL    HW154930  10.994   2.077   1.640
51011SOL    HW254931  10.964   2.167   1.522
51012SOL     OW54932  13.493   6.746   7.805
51012SOL    HW154933  13.416   6.790   7.768
51012SOL    HW254934  13.523   6.688   7.735
51013SOL     OW54935   2.084  12.101  14.277
51013SOL    HW154936   2.075  12.007  14.262
51013SOL    HW254937   2.140  12.132  14.206
51014SOL     OW54938   3.241   1.172  11.726
51014SOL    HW154939   3.199   1.093  11.691
51014SOL    HW254940   3.280   1.214  11.650
51015SOL     OW54941  10.027   0.194   9.802
51015SOL    HW154942   9.966   0.169   9.871
51015SOL    HW254943  10.084   0.260   9.842
51016SOL     OW54944   0.552   4.404  12.483
51016SOL    HW154945   0.584   4.314  12.484
51016SOL    HW254946   0.498   4.412  12.562
51017SOL     OW54947  14.523   3.785   4.383
51017SOL    HW154948  14.482   3.839   4.450
51017SOL    HW254949  14.450   3.749   4.333
51018SOL     OW54950   9.411   3.028   4.723
51018SOL    HW154951   9.445   3.058   4.807
51018SOL    HW254952   9.320   3.059   4.721
51019SOL     OW54953   7.932   3.062   8.669
51019SOL    HW154954   7.903   3.001   8.601
51019SOL    HW254955   7.851   3.104   8.700
51020SOL     OW54956   6.689   9.795  10.459
51020SOL    HW154957   6.726   9.760  10.540
51020SOL    HW254958   6.632   9.866  10.486
51021SOL     OW54959   4.323   3.613   0.428
51021SOL    HW154960   4.316   3.551   0.355
51021SOL    HW254961   4.366   3.690   0.390
51022SOL     OW54962  13.046  12.212   6.605
51022SOL    HW154963  13.105  12.148   6.562
51022SOL    HW254964  13.099  12.291   6.614
51023SOL     OW54965   1.857   1.259  13.538
51023SOL    HW154966   1.771   1.300  13.547
51023SOL    HW254967   1.910   1.324  13.492
51024SOL     OW54968  11.819  10.798   1.115
51024SOL    HW154969  11.808  10.709   1.150
51024SOL    HW254970  11.832  10.784   1.021
51025SOL     OW54971  10.772   2.362  12.005
51025SOL    HW154972  10.767   2.277  12.050
51025SOL    HW254973  10.714   2.419  12.055
51026SOL     OW54974   3.339   7.146   1.454
51026SOL    HW154975   3.297   7.088   1.390
51026SOL    HW254976   3.357   7.227   1.406
51027SOL     OW54977  13.116  12.585   0.026
51027SOL    HW154978  13.127  12.600   0.120
51027SOL    HW254979  13.064  12.504   0.021
51028SOL     OW54980   8.477   2.577   9.289
51028SOL    HW154981   8.490   2.542   9.201
51028SOL    HW254982   8.540   2.530   9.343
51029SOL     OW54983  12.851   6.984  11.909
51029SOL    HW154984  12.930   7.018  11.867
51029SOL    HW254985  12.883   6.921  11.974
51030SOL     OW54986  11.566   7.099   1.457
51030SOL    HW154987  11.529   7.066   1.539
51030SOL    HW254988  11.491   7.101   1.397
51031SOL     OW54989   0.450   3.776  12.415
51031SOL    HW154990   0.371   3.818  12.450
51031SOL    HW254991   0.478   3.833  12.344
51032SOL     OW54992   3.382   5.739  12.608
51032SOL    HW154993   3.324   5.783  12.670
51032SOL    HW254994   3.326   5.716  12.534
51033SOL     OW54995   4.542  10.735   3.457
51033SOL    HW154996   4.507  10.800   3.394
51033SOL    HW254997   4.464  10.693   3.493
51034SOL     OW54998   9.269  10.211   2.688
51034SOL    HW154999   9.255  10.295   2.733
51034SOL    HW255000   9.273  10.233   2.595
51035SOL     OW55001  12.705   6.075   7.111
51035SOL    HW155002  12.735   6.007   7.172
51035SOL    HW255003  12.617   6.047   7.086
51036SOL     OW55004   3.172   9.677   0.102
51036SOL    HW155005   3.162   9.586   0.072
51036SOL    HW255006   3.250   9.675   0.157
51037SOL     OW55007   2.471   4.351   4.187
51037SOL    HW155008   2.456   4.284   4.253
51037SOL    HW255009   2.559   4.334   4.154
51038SOL     OW55010  12.395  13.539  13.733
51038SOL    HW155011  12.322  13.482  13.759
51038SOL    HW255012  12.409  13.596  13.808
51039SOL     OW55013   8.901   3.203   6.358
51039SOL    HW155014   8.827   3.228   6.303
51039SOL    HW255015   8.862   3.160   6.434
51040SOL     OW55016   2.509   6.682  11.661
51040SOL    HW155017   2.468   6.614  11.607
51040SOL    HW255018   2.441   6.749  11.670
51041SOL     OW55019   9.885   8.228  11.263
51041SOL    HW155020   9.979   8.237  11.275
51041SOL    HW255021   9.854   8.318  11.253
51042SOL     OW55022   0.479   0.553   6.922
51042SOL    HW155023   0.443   0.639   6.904
51042SOL    HW255024   0.502   0.555   7.015
51043SOL     OW55025   8.177   3.851  12.625
51043SOL    HW155026   8.130   3.828  12.705
51043SOL    HW255027   8.194   3.768  12.582
51044SOL     OW55028  10.353   5.416   3.459
51044SOL    HW155029  10.344   5.322   3.440
51044SOL    HW255030  10.294   5.459   3.398
51045SOL     OW55031   0.486   5.656   9.427
51045SOL    HW155032   0.505   5.595   9.356
51045SOL    HW255033   0.570   5.698   9.447
51046SOL     OW55034  14.632   9.509   0.908
51046SOL    HW155035  14.704   9.529   0.848
51046SOL    HW255036  14.671   9.516   0.996
51047SOL     OW55037   0.482  11.573  10.396
51047SOL    HW155038   0.445  11.660  10.409
51047SOL    HW255039   0.567  11.588  10.356
51048SOL     OW55040   9.076   9.045   9.156
51048SOL    HW155041   9.016   9.072   9.086
51048SOL    HW255042   9.090   8.952   9.141
51049SOL     OW55043   1.580  13.067   9.898
51049SOL    HW155044   1.582  13.118   9.817
51049SOL    HW255045   1.584  13.132   9.968
51050SOL     OW55046   4.656   0.176   1.027
51050SOL    HW155047   4.606   0.244   0.982
51050SOL    HW255048   4.608   0.160   1.108
51051SOL     OW55049  13.626   2.690  10.039
51051SOL    HW155050  13.550   2.706  10.095
51051SOL    HW255051  13.591   2.692   9.950
51052SOL     OW55052   2.559   8.632   4.977
51052SOL    HW155053   2.539   8.542   4.949
51052SOL    HW255054   2.528   8.636   5.068
51053SOL     OW55055  11.040   3.168  12.616
51053SOL    HW155056  11.135   3.159  12.621
51053SOL    HW255057  11.009   3.080  12.592
51054SOL     OW55058  14.671  10.095  11.488
51054SOL    HW155059  14.640  10.090  11.578
51054SOL    HW255060  14.731  10.021  11.479
51055SOL     OW55061   2.945   7.697   6.559
51055SOL    HW155062   2.915   7.688   6.650
51055SOL    HW255063   2.982   7.612   6.537
51056SOL     OW55064   0.989   4.646   2.805
51056SOL    HW155065   0.954   4.735   2.801
51056SOL    HW255066   0.938   4.603   2.873
51057SOL     OW55067   9.785   3.823  10.729
51057SOL    HW155068   9.741   3.802  10.811
51057SOL    HW255069   9.867   3.866  10.756
51058SOL     OW55070   0.813   3.532  11.583
51058SOL    HW155071   0.860   3.543  11.666
51058SOL    HW255072   0.761   3.612  11.575
51059SOL     OW55073   1.443  12.129   6.592
51059SOL    HW155074   1.459  12.041   6.625
51059SOL    HW255075   1.380  12.116   6.521
51060SOL     OW55076   6.307   1.744  11.879
51060SOL    HW155077   6.349   1.823  11.845
51060SOL    HW255078   6.356   1.723  11.959
51061SOL     OW55079   5.178   3.293   6.284
51061SOL    HW155080   5.185   3.203   6.253
51061SOL    HW255081   5.231   3.296   6.364
51062SOL     OW55082   2.577   6.793   4.189
51062SOL    HW155083   2.561   6.715   4.136
51062SOL    HW255084   2.502   6.849   4.173
51063SOL     OW55085  13.791   5.958   7.699
51063SOL    HW155086  13.702   5.926   7.713
51063SOL    HW255087  13.779   6.048   7.667
51064SOL     OW55088  13.675   6.322   8.806
51064SOL    HW155089  13.664   6.408   8.765
51064SOL    HW255090  13.632   6.330   8.891
51065SOL     OW55091   8.640   4.481   6.655
51065SOL    HW155092   8.547   4.497   6.643
51065SOL    HW255093   8.674   4.561   6.695
51066SOL     OW55094  10.034   6.710   2.013
51066SOL    HW155095  10.039   6.621   2.049
51066SOL    HW255096   9.984   6.759   2.078
51067SOL     OW55097   7.358   5.270   9.703
51067SOL    HW155098   7.431   5.305   9.754
51067SOL    HW255099   7.342   5.336   9.636
51068SOL     OW55100  10.884   1.190   7.590
51068SOL    HW155101  10.863   1.096   7.583
51068SOL    HW255102  10.961   1.193   7.647
51069SOL     OW55103  12.263   5.792  10.744
51069SOL    HW155104  12.350   5.758  10.724
51069SOL    HW255105  12.204   5.738  10.692
51070SOL     OW55106   1.575   8.901  10.860
51070SOL    HW155107   1.595   8.811  10.887
51070SOL    HW255108   1.498   8.893  10.804
51071SOL     OW55109   9.528  12.126   7.280
51071SOL    HW155110   9.462  12.066   7.314
51071SOL    HW255111   9.480  12.183   7.220
51072SOL     OW55112   5.207   5.458  13.041
51072SOL    HW155113   5.183   5.420  12.956
51072SOL    HW255114   5.146   5.531  13.052
51073SOL     OW55115   2.587  11.058   0.786
51073SOL    HW155116   2.601  10.991   0.853
51073SOL    HW255117   2.674  11.077   0.752
51074SOL     OW55118  14.301   1.799   2.162
51074SOL    HW155119  14.214   1.832   2.137
51074SOL    HW255120  14.358   1.824   2.090
51075SOL     OW55121   0.286   6.016   4.629
51075SOL    HW155122   0.297   6.073   4.553
51075SOL    HW255123   0.295   5.928   4.593
51076SOL     OW55124   2.602   6.863   1.499
51076SOL    HW155125   2.680   6.825   1.459
51076SOL    HW255126   2.636   6.935   1.553
51077SOL     OW55127   1.611  12.905   1.140
51077SOL    HW155128   1.574  12.840   1.080
51077SOL    HW255129   1.560  12.984   1.123
51078SOL     OW55130   9.938   5.674   6.973
51078SOL    HW155131   9.954   5.686   7.067
51078SOL    HW255132   9.927   5.579   6.962
51079SOL     OW55133   5.255   6.741   0.065
51079SOL    HW155134   5.221   6.831   0.058
51079SOL    HW255135   5.299   6.726  14.852
51080SOL     OW55136  11.382   7.339   5.791
51080SOL    HW155137  11.334   7.371   5.867
51080SOL    HW255138  11.472   7.368   5.806
51081SOL     OW55139   9.889   1.397   7.542
51081SOL    HW155140   9.846   1.347   7.612
51081SOL    HW255141   9.819   1.416   7.480
51082SOL     OW55142   4.738  12.063   4.881
51082SOL    HW155143   4.795  11.991   4.908
51082SOL    HW255144   4.720  12.111   4.962
51083SOL     OW55145   3.581  14.144   2.558
51083SOL    HW155146   3.618  14.057   2.545
51083SOL    HW255147   3.652  14.195   2.598
51084SOL     OW55148   6.994   6.234  12.075
51084SOL    HW155149   6.965   6.182  12.000
51084SOL    HW255150   6.966   6.323  12.055
51085SOL     OW55151   6.074  14.093   8.894
51085SOL    HW155152   6.158  14.047   8.889
51085SOL    HW255153   6.091  14.166   8.955
51086SOL     OW55154   7.519   6.565   0.935
51086SOL    HW155155   7.608   6.536   0.918
51086SOL    HW255156   7.475   6.489   0.972
51087SOL     OW55157   8.212   0.903  12.786
51087SOL    HW155158   8.187   0.884  12.696
51087SOL    HW255159   8.162   0.840  12.838
51088SOL     OW55160   2.371   0.384  13.405
51088SOL    HW155161   2.401   0.462  13.452
51088SOL    HW255162   2.278   0.400  13.389
51089SOL     OW55163   3.426  14.762   6.541
51089SOL    HW155164   3.392  14.748   6.629
51089SOL    HW255165   3.521  14.767   6.552
51090SOL     OW55166   4.707   3.639   4.040
51090SOL    HW155167   4.751   3.642   4.124
51090SOL    HW255168   4.746   3.711   3.990
51091SOL     OW55169   9.793   4.892  13.469
51091SOL    HW155170   9.742   4.817  13.439
51091SOL    HW255171   9.728   4.955  13.501
51092SOL     OW55172   6.361   3.735   6.862
51092SOL    HW155173   6.301   3.661   6.857
51092SOL    HW255174   6.307   3.812   6.843
51093SOL     OW55175   2.948   4.325  12.567
51093SOL    HW155176   2.893   4.297  12.640
51093SOL    HW255177   2.906   4.404  12.534
51094SOL     OW55178  11.681  11.006   9.297
51094SOL    HW155179  11.677  10.937   9.231
51094SOL    HW255180  11.645  11.084   9.253
51095SOL     OW55181   0.903   8.930   5.137
51095SOL    HW155182   0.837   8.862   5.124
51095SOL    HW255183   0.984   8.882   5.154
51096SOL     OW55184   1.325   7.677   0.383
51096SOL    HW155185   1.348   7.753   0.437
51096SOL    HW255186   1.410   7.640   0.358
51097SOL     OW55187  10.334   2.268   0.225
51097SOL    HW155188  10.282   2.201   0.270
51097SOL    HW255189  10.270   2.326   0.185
51098SOL     OW55190   8.822   5.667   8.135
51098SOL    HW155191   8.845   5.741   8.078
51098SOL    HW255192   8.735   5.641   8.105
51099SOL     OW55193   3.445   1.163   6.162
51099SOL    HW155194   3.407   1.085   6.122
51099SOL    HW255195   3.519   1.186   6.106
51100SOL     OW55196  14.292   4.342  14.472
51100SOL    HW155197  14.218   4.369  14.527
51100SOL    HW255198  14.257   4.341  14.383
51101SOL     OW55199   0.613   3.929   3.365
51101SOL    HW155200   0.570   3.984   3.299
51101SOL    HW255201   0.553   3.856   3.377
51102SOL     OW55202  11.606   2.967   7.015
51102SOL    HW155203  11.617   3.060   7.033
51102SOL    HW255204  11.610   2.961   6.919
51103SOL     OW55205  11.393  13.794   8.505
51103SOL    HW155206  11.340  13.845   8.444
51103SOL    HW255207  11.403  13.709   8.463
51104SOL     OW55208   2.250   4.721   3.791
51104SOL    HW155209   2.319   4.788   3.792
51104SOL    HW255210   2.290   4.645   3.834
51105SOL     OW55211  11.524   3.644   7.859
51105SOL    HW155212  11.504   3.687   7.777
51105SOL    HW255213  11.460   3.680   7.921
51106SOL     OW55214  10.899   0.569  13.278
51106SOL    HW155215  10.865   0.619  13.205
51106SOL    HW255216  10.836   0.584  13.349
51107SOL     OW55217   9.117   0.944   5.647
51107SOL    HW155218   9.163   0.863   5.623
51107SOL    HW255219   9.024   0.923   5.633
51108SOL     OW55220   5.898   9.495   3.450
51108SOL    HW155221   5.944   9.461   3.373
51108SOL    HW255222   5.936   9.582   3.464
51109SOL     OW55223  13.589  11.184  13.685
51109SOL    HW155224  13.622  11.197  13.774
51109SOL    HW255225  13.565  11.272  13.655
51110SOL     OW55226   1.357   9.484  12.640
51110SOL    HW155227   1.435   9.472  12.696
51110SOL    HW255228   1.379   9.439  12.559
51111SOL     OW55229   8.688   8.906  10.518
51111SOL    HW155230   8.628   8.960  10.570
51111SOL    HW255231   8.769   8.906  10.568
51112SOL     OW55232   5.932  11.011   1.987
51112SOL    HW155233   5.897  10.949   2.051
51112SOL    HW255234   5.875  11.087   1.993
51113SOL     OW55235   2.440   6.522   6.287
51113SOL    HW155236   2.530   6.488   6.290
51113SOL    HW255237   2.396   6.466   6.223
51114SOL     OW55238   7.453  11.317  11.500
51114SOL    HW155239   7.408  11.401  11.495
51114SOL    HW255240   7.538  11.338  11.539
51115SOL     OW55241   6.066   8.801   9.053
51115SOL    HW155242   6.146   8.818   9.003
51115SOL    HW255243   6.048   8.708   9.038
51116SOL     OW55244   5.901   8.639   3.505
51116SOL    HW155245   5.983   8.612   3.546
51116SOL    HW255246   5.886   8.576   3.435
51117SOL     OW55247   3.139   9.718   5.905
51117SOL    HW155248   3.176   9.791   5.855
51117SOL    HW255249   3.051   9.705   5.868
51118SOL     OW55250   6.466   9.185   6.253
51118SOL    HW155251   6.476   9.228   6.167
51118SOL    HW255252   6.377   9.149   6.251
51119SOL     OW55253  13.615   3.089  11.513
51119SOL    HW155254  13.634   3.064  11.423
51119SOL    HW255255  13.697   3.073  11.560
51120SOL     OW55256   5.849   8.059   3.336
51120SOL    HW155257   5.781   7.993   3.343
51120SOL    HW255258   5.883   8.048   3.247
51121SOL     OW55259   9.945   0.666   8.844
51121SOL    HW155260  10.019   0.627   8.892
51121SOL    HW255261   9.895   0.713   8.911
51122SOL     OW55262  12.467  11.590  11.139
51122SOL    HW155263  12.499  11.524  11.200
51122SOL    HW255264  12.489  11.674  11.180
51123SOL     OW55265   6.681  11.748   5.692
51123SOL    HW155266   6.767  11.730   5.730
51123SOL    HW255267   6.622  11.753   5.767
51124SOL     OW55268  12.018   3.825  13.144
51124SOL    HW155269  11.948   3.770  13.180
51124SOL    HW255270  12.063   3.860  13.221
51125SOL     OW55271   0.697   7.106   9.525
51125SOL    HW155272   0.780   7.120   9.480
51125SOL    HW255273   0.638   7.072   9.458
51126SOL     OW55274   9.007   1.994   9.976
51126SOL    HW155275   8.988   2.081   9.942
51126SOL    HW255276   9.031   2.009  10.068
51127SOL     OW55277   0.595   9.160   1.839
51127SOL    HW155278   0.538   9.237   1.841
51127SOL    HW255279   0.683   9.194   1.852
51128SOL     OW55280  11.766   3.731   9.903
51128SOL    HW155281  11.729   3.699   9.985
51128SOL    HW255282  11.710   3.693   9.835
51129SOL     OW55283   2.784   9.770  11.304
51129SOL    HW155284   2.755   9.788  11.215
51129SOL    HW255285   2.879   9.761  11.296
51130SOL     OW55286   2.470   3.265  11.942
51130SOL    HW155287   2.496   3.230  11.856
51130SOL    HW255288   2.418   3.195  11.982
51131SOL     OW55289   7.383   7.916   9.693
51131SOL    HW155290   7.459   7.892   9.640
51131SOL    HW255291   7.339   7.832   9.711
51132SOL     OW55292  13.769   6.487  10.961
51132SOL    HW155293  13.705   6.490  10.890
51132SOL    HW255294  13.808   6.399  10.954
51133SOL     OW55295  13.297   8.962   3.099
51133SOL    HW155296  13.356   9.032   3.072
51133SOL    HW255297  13.295   8.968   3.195
51134SOL     OW55298   7.553  14.522   3.166
51134SOL    HW155299   7.577  14.537   3.258
51134SOL    HW255300   7.564  14.428   3.153
51135SOL     OW55301   9.476   5.996  10.529
51135SOL    HW155302   9.421   5.931  10.485
51135SOL    HW255303   9.414   6.051  10.577
51136SOL     OW55304   6.113   9.133   6.322
51136SOL    HW155305   6.165   9.053   6.311
51136SOL    HW255306   6.080   9.153   6.234
51137SOL     OW55307   1.206   6.635   5.213
51137SOL    HW155308   1.245   6.722   5.222
51137SOL    HW255309   1.118   6.651   5.179
51138SOL     OW55310   4.577  11.502   4.038
51138SOL    HW155311   4.638  11.577   4.034
51138SOL    HW255312   4.507  11.532   4.096
51139SOL     OW55313  10.383  12.271   5.450
51139SOL    HW155314  10.327  12.194   5.463
51139SOL    HW255315  10.472  12.235   5.445
51140SOL     OW55316  12.348  11.035   4.302
51140SOL    HW155317  12.281  11.088   4.344
51140SOL    HW255318  12.429  11.059   4.347
51141SOL     OW55319  10.124  10.788   4.065
51141SOL    HW155320  10.197  10.751   4.114
51141SOL    HW255321  10.149  10.879   4.051
51142SOL     OW55322   6.318   2.823  11.674
51142SOL    HW155323   6.403   2.779  11.682
51142SOL    HW255324   6.256   2.762  11.713
51143SOL     OW55325   7.413   3.899  10.656
51143SOL    HW155326   7.377   3.832  10.714
51143SOL    HW255327   7.404   3.862  10.568
51144SOL     OW55328  11.352   1.995   5.384
51144SOL    HW155329  11.288   2.014   5.315
51144SOL    HW255330  11.331   2.057   5.454
51145SOL     OW55331   2.654  10.250   3.487
51145SOL    HW155332   2.569  10.208   3.472
51145SOL    HW255333   2.651  10.279   3.578
51146SOL     OW55334  10.376  11.408  12.213
51146SOL    HW155335  10.444  11.345  12.188
51146SOL    HW255336  10.330  11.367  12.286
51147SOL     OW55337  11.912   2.972  13.538
51147SOL    HW155338  11.869   2.927  13.610
51147SOL    HW255339  11.976   3.029  13.580
51148SOL     OW55340  14.655   4.129  12.636
51148SOL    HW155341  14.615   4.129  12.549
51148SOL    HW255342  14.712   4.206  12.637
51149SOL     OW55343  13.965  12.044   9.868
51149SOL    HW155344  13.925  12.032   9.955
51149SOL    HW255345  14.047  12.089   9.887
51150SOL     OW55346   1.471   8.162   7.346
51150SOL    HW155347   1.473   8.067   7.340
51150SOL    HW255348   1.559   8.189   7.322
51151SOL     OW55349   6.521   6.000   7.787
51151SOL    HW155350   6.519   5.942   7.711
51151SOL    HW255351   6.613   5.999   7.815
51152SOL     OW55352  10.094   7.571   3.649
51152SOL    HW155353  10.140   7.560   3.733
51152SOL    HW255354  10.038   7.494   3.642
51153SOL     OW55355   0.402  12.006   3.645
51153SOL    HW155356   0.357  11.923   3.632
51153SOL    HW255357   0.379  12.033   3.734
51154SOL     OW55358   1.249   7.822   7.089
51154SOL    HW155359   1.183   7.890   7.094
51154SOL    HW255360   1.320   7.861   7.038
51155SOL     OW55361  13.198  11.439   7.692
51155SOL    HW155362  13.161  11.384   7.761
51155SOL    HW255363  13.136  11.431   7.619
51156SOL     OW55364   2.245  11.512   1.371
51156SOL    HW155365   2.277  11.500   1.461
51156SOL    HW255366   2.227  11.606   1.365
51157SOL     OW55367   5.032  10.993  11.665
51157SOL    HW155368   5.045  11.017  11.757
51157SOL    HW255369   5.012  10.900  11.667
51158SOL     OW55370   3.350  12.831  11.153
51158SOL    HW155371   3.344  12.911  11.204
51158SOL    HW255372   3.442  12.824  11.130
51159SOL     OW55373   4.553   9.078   1.947
51159SOL    HW155374   4.547   9.157   1.893
51159SOL    HW255375   4.486   9.089   2.014
51160SOL     OW55376   8.372  12.093   2.478
51160SOL    HW155377   8.278  12.109   2.470
51160SOL    HW255378   8.411  12.137   2.403
51161SOL     OW55379  13.686   4.395   7.841
51161SOL    HW155380  13.612   4.389   7.901
51161SOL    HW255381  13.763   4.388   7.898
51162SOL     OW55382   1.345   1.281   3.606
51162SOL    HW155383   1.419   1.244   3.654
51162SOL    HW255384   1.344   1.373   3.631
51163SOL     OW55385   4.587  14.822   4.638
51163SOL    HW155386   4.559   0.027   4.586
51163SOL    HW255387   4.609  14.754   4.574
51164SOL     OW55388   6.732   5.277   6.642
51164SOL    HW155389   6.714   5.333   6.718
51164SOL    HW255390   6.754   5.338   6.572
51165SOL     OW55391   9.738   7.320  14.537
51165SOL    HW155392   9.829   7.307  14.509
51165SOL    HW255393   9.728   7.415  14.540
51166SOL     OW55394  14.616   8.966   1.230
51166SOL    HW155395  14.532   8.924   1.248
51166SOL    HW255396  14.679   8.894   1.232
51167SOL     OW55397  12.586  13.738   5.586
51167SOL    HW155398  12.505  13.733   5.636
51167SOL    HW255399  12.651  13.772   5.649
51168SOL     OW55400  11.343  13.844  12.579
51168SOL    HW155401  11.250  13.824  12.572
51168SOL    HW255402  11.386  13.781  12.521
51169SOL     OW55403  13.970  12.101   2.550
51169SOL    HW155404  14.060  12.067   2.546
51169SOL    HW255405  13.918  12.028   2.584
51170SOL     OW55406  13.587   9.952  11.187
51170SOL    HW155407  13.510   9.965  11.132
51170SOL    HW255408  13.656   9.927  11.127
51171SOL     OW55409   7.330   0.388  10.759
51171SOL    HW155410   7.410   0.387  10.813
51171SOL    HW255411   7.354   0.340  10.680
51172SOL     OW55412   4.653   8.273   2.309
51172SOL    HW155413   4.567   8.280   2.352
51172SOL    HW255414   4.641   8.205   2.243
51173SOL     OW55415   7.805  10.849   6.357
51173SOL    HW155416   7.825  10.811   6.272
51173SOL    HW255417   7.890  10.871   6.394
51174SOL     OW55418  13.717   5.400   0.040
51174SOL    HW155419  13.802   5.392   0.083
51174SOL    HW255420  13.739   5.427  14.820
51175SOL     OW55421  13.018   4.824   3.774
51175SOL    HW155422  13.065   4.901   3.806
51175SOL    HW255423  12.926   4.847   3.785
51176SOL     OW55424  10.748   6.894   2.423
51176SOL    HW155425  10.658   6.914   2.398
51176SOL    HW255426  10.753   6.798   2.418
51177SOL     OW55427   8.552  13.221   3.404
51177SOL    HW155428   8.519  13.231   3.493
51177SOL    HW255429   8.550  13.126   3.388
51178SOL     OW55430  14.764  11.900   9.887
51178SOL    HW155431  14.846  11.850   9.891
51178SOL    HW255432  14.713  11.866   9.960
51179SOL     OW55433  14.647   9.429   7.950
51179SOL    HW155434  14.609   9.453   8.035
51179SOL    HW255435  14.573   9.428   7.890
51180SOL     OW55436   5.763   9.338  11.655
51180SOL    HW155437   5.778   9.397  11.581
51180SOL    HW255438   5.693   9.380  11.705
51181SOL     OW55439   6.887   0.942   9.031
51181SOL    HW155440   6.855   1.032   9.043
51181SOL    HW255441   6.808   0.889   9.031
51182SOL     OW55442   7.262   5.531  10.858
51182SOL    HW155443   7.180   5.576  10.838
51182SOL    HW255444   7.324   5.601  10.876
51183SOL     OW55445  11.920   9.184  12.367
51183SOL    HW155446  11.874   9.186  12.282
51183SOL    HW255447  11.919   9.091  12.391
51184SOL     OW55448   8.233   3.550   8.482
51184SOL    HW155449   8.300   3.619   8.489
51184SOL    HW255450   8.190   3.568   8.398
51185SOL     OW55451   9.341  11.857  10.545
51185SOL    HW155452   9.253  11.839  10.511
51185SOL    HW255453   9.331  11.858  10.640
51186SOL     OW55454   4.389   7.853   5.765
51186SOL    HW155455   4.449   7.880   5.695
51186SOL    HW255456   4.402   7.758   5.772
51187SOL     OW55457  11.019  11.395   9.418
51187SOL    HW155458  10.928  11.366   9.413
51187SOL    HW255459  11.066  11.338   9.358
51188SOL     OW55460  12.048   7.873  14.831
51188SOL    HW155461  11.953   7.866  14.839
51188SOL    HW255462  12.079   7.884   0.051
51189SOL     OW55463  12.640  11.221  14.798
51189SOL    HW155464  12.629  11.315  14.786
51189SOL    HW255465  12.718  11.212  14.852
51190SOL     OW55466   0.390  11.068   2.483
51190SOL    HW155467   0.395  11.118   2.564
51190SOL    HW255468   0.304  11.088   2.447
51191SOL     OW55469   2.693   9.916   2.959
51191SOL    HW155470   2.652   9.938   2.875
51191SOL    HW255471   2.749   9.991   2.978
51192SOL     OW55472   2.128   3.443  13.280
51192SOL    HW155473   2.172   3.471  13.199
51192SOL    HW255474   2.122   3.348  13.272
51193SOL     OW55475   4.753  14.689  12.126
51193SOL    HW155476   4.774  14.642  12.207
51193SOL    HW255477   4.659  14.673  12.113
51194SOL     OW55478   5.634   2.807   9.005
51194SOL    HW155479   5.686   2.774   8.931
51194SOL    HW255480   5.651   2.745   9.076
51195SOL     OW55481   8.612  13.331  13.273
51195SOL    HW155482   8.535  13.274  13.271
51195SOL    HW255483   8.637  13.333  13.365
51196SOL     OW55484   8.803   9.861   0.612
51196SOL    HW155485   8.827   9.812   0.691
51196SOL    HW255486   8.860   9.826   0.544
51197SOL     OW55487   0.419   5.473  14.427
51197SOL    HW155488   0.491   5.518  14.471
51197SOL    HW255489   0.359   5.542  14.401
51198SOL     OW55490  12.270  13.000  11.348
51198SOL    HW155491  12.203  12.997  11.279
51198SOL    HW255492  12.253  13.082  11.394
51199SOL     OW55493   2.609   4.055   8.741
51199SOL    HW155494   2.515   4.072   8.751
51199SOL    HW255495   2.614   3.989   8.671
51200SOL     OW55496  12.961   7.420  10.916
51200SOL    HW155497  12.975   7.348  10.976
51200SOL    HW255498  12.882   7.396  10.868
51201SOL     OW55499   4.062  13.383  14.806
51201SOL    HW155500   3.993  13.324  14.838
51201SOL    HW255501   4.143  13.344  14.837
51202SOL     OW55502   9.808  10.062   5.943
51202SOL    HW155503   9.850  10.105   5.868
51202SOL    HW255504   9.750   9.997   5.903
51203SOL     OW55505  13.906  10.414   3.513
51203SOL    HW155506  13.927  10.504   3.487
51203SOL    HW255507  13.877  10.421   3.604
51204SOL     OW55508   5.513  13.969  14.360
51204SOL    HW155509   5.522  14.040  14.296
51204SOL    HW255510   5.555  13.894  14.318
51205SOL     OW55511  13.367   8.239  14.253
51205SOL    HW155512  13.278   8.275  14.250
51205SOL    HW255513  13.371   8.179  14.179
51206SOL     OW55514   8.709   9.657  13.554
51206SOL    HW155515   8.676   9.680  13.467
51206SOL    HW255516   8.695   9.563  13.561
51207SOL     OW55517   5.861   9.315   4.790
51207SOL    HW155518   5.931   9.283   4.732
51207SOL    HW255519   5.877   9.270   4.873
51208SOL     OW55520  14.061   1.725   5.785
51208SOL    HW155521  14.143   1.684   5.757
51208SOL    HW255522  14.041   1.788   5.717
51209SOL     OW55523   4.946   3.479  14.104
51209SOL    HW155524   4.941   3.387  14.129
51209SOL    HW255525   4.870   3.492  14.047
51210SOL     OW55526   2.130   6.752  11.928
51210SOL    HW155527   2.123   6.675  11.985
51210SOL    HW255528   2.041   6.766  11.896
51211SOL     OW55529   9.367  13.789   8.220
51211SOL    HW155530   9.428  13.852   8.181
51211SOL    HW255531   9.338  13.831   8.301
51212SOL     OW55532  11.174   0.343   2.208
51212SOL    HW155533  11.235   0.299   2.267
51212SOL    HW255534  11.229   0.394   2.149
51213SOL     OW55535   3.574   8.501   5.595
51213SOL    HW155536   3.599   8.558   5.667
51213SOL    HW255537   3.657   8.473   5.556
51214SOL     OW55538  12.319   5.286   3.315
51214SOL    HW155539  12.345   5.378   3.317
51214SOL    HW255540  12.235   5.284   3.361
51215SOL     OW55541  10.558   0.192  13.756
51215SOL    HW155542  10.597   0.279  13.760
51215SOL    HW255543  10.496   0.197  13.684
51216SOL     OW55544   2.585   6.176  14.450
51216SOL    HW155545   2.550   6.202  14.535
51216SOL    HW255546   2.639   6.099  14.469
51217SOL     OW55547   7.000  14.565   8.498
51217SOL    HW155548   7.080  14.518   8.476
51217SOL    HW255549   7.026  14.656   8.506
51218SOL     OW55550   4.932   9.114  12.569
51218SOL    HW155551   4.889   9.172  12.506
51218SOL    HW255552   4.951   9.170  12.644
51219SOL     OW55553   3.306   1.720  14.601
51219SOL    HW155554   3.322   1.771  14.522
51219SOL    HW255555   3.302   1.785  14.671
51220SOL     OW55556   4.384  13.889   3.299
51220SOL    HW155557   4.398  13.947   3.224
51220SOL    HW255558   4.289  13.883   3.307
51221SOL     OW55559   4.217   9.817   5.335
51221SOL    HW155560   4.181   9.730   5.315
51221SOL    HW255561   4.183   9.873   5.267
51222SOL     OW55562  12.692   0.463   9.368
51222SOL    HW155563  12.698   0.369   9.386
51222SOL    HW255564  12.738   0.475   9.285
51223SOL     OW55565   9.469   4.605  10.707
51223SOL    HW155566   9.483   4.519  10.668
51223SOL    HW255567   9.493   4.667  10.639
51224SOL     OW55568   4.214   8.745   7.385
51224SOL    HW155569   4.219   8.699   7.301
51224SOL    HW255570   4.123   8.771   7.394
51225SOL     OW55571   9.216   4.701  11.511
51225SOL    HW155572   9.191   4.723  11.601
51225SOL    HW255573   9.204   4.782  11.462
51226SOL     OW55574   8.851   1.619   2.089
51226SOL    HW155575   8.909   1.694   2.104
51226SOL    HW255576   8.891   1.548   2.140
51227SOL     OW55577   8.553  13.749  11.876
51227SOL    HW155578   8.558  13.830  11.825
51227SOL    HW255579   8.644  13.721  11.887
51228SOL     OW55580  12.859  14.641   0.265
51228SOL    HW155581  12.927  14.614   0.326
51228SOL    HW255582  12.793  14.682   0.319
51229SOL     OW55583   9.394  14.018  10.994
51229SOL    HW155584   9.341  14.086  10.952
51229SOL    HW255585   9.445  14.065  11.060
51230SOL     OW55586   1.937  13.109  10.870
51230SOL    HW155587   2.017  13.130  10.821
51230SOL    HW255588   1.961  13.118  10.962
51231SOL     OW55589   8.284  13.376  13.403
51231SOL    HW155590   8.277  13.438  13.331
51231SOL    HW255591   8.305  13.292  13.361
51232SOL     OW55592   7.000  10.488   0.651
51232SOL    HW155593   7.039  10.434   0.720
51232SOL    HW255594   7.048  10.571   0.656
51233SOL     OW55595  13.641   6.698  12.838
51233SOL    HW155596  13.563   6.648  12.812
51233SOL    HW255597  13.610   6.789  12.842
51234SOL     OW55598   1.955   0.264  11.315
51234SOL    HW155599   2.046   0.243  11.294
51234SOL    HW255600   1.918   0.182  11.346
51235SOL     OW55601   0.001  11.409   3.481
51235SOL    HW155602  14.836  11.326   3.447
51235SOL    HW255603   0.028  11.389   3.571
51236SOL     OW55604  13.731   6.304   3.650
51236SOL    HW155605  13.790   6.354   3.707
51236SOL    HW255606  13.683   6.371   3.601
51237SOL     OW55607   8.587   4.133   0.673
51237SOL    HW155608   8.617   4.089   0.594
51237SOL    HW255609   8.618   4.079   0.745
51238SOL     OW55610   0.789  11.319   7.883
51238SOL    HW155611   0.831  11.401   7.859
51238SOL    HW255612   0.832  11.293   7.964
51239SOL     OW55613  10.794   9.896   5.791
51239SOL    HW155614  10.719   9.884   5.849
51239SOL    HW255615  10.772   9.845   5.713
51240SOL     OW55616   1.986   3.108   4.319
51240SOL    HW155617   2.016   3.198   4.312
51240SOL    HW255618   1.890   3.114   4.315
51241SOL     OW55619   4.388   8.097   1.467
51241SOL    HW155620   4.363   8.014   1.507
51241SOL    HW255621   4.408   8.075   1.376
51242SOL     OW55622   0.109  13.346   9.543
51242SOL    HW155623   0.198  13.360   9.509
51242SOL    HW255624   0.096  13.415   9.607
51243SOL     OW55625   3.274   2.962   3.464
51243SOL    HW155626   3.281   3.017   3.387
51243SOL    HW255627   3.335   3.002   3.527
51244SOL     OW55628  10.971   7.564   7.629
51244SOL    HW155629  10.944   7.629   7.694
51244SOL    HW255630  10.920   7.586   7.551
51245SOL     OW55631   4.502   8.641   2.909
51245SOL    HW155632   4.499   8.559   2.959
51245SOL    HW255633   4.423   8.687   2.936
51246SOL     OW55634  12.725   9.621  13.026
51246SOL    HW155635  12.720   9.580  13.113
51246SOL    HW255636  12.798   9.575  12.984
51247SOL     OW55637   7.671   5.045   5.983
51247SOL    HW155638   7.665   5.009   6.072
51247SOL    HW255639   7.592   5.098   5.973
51248SOL     OW55640  13.267  10.892   7.766
51248SOL    HW155641  13.316  10.971   7.744
51248SOL    HW255642  13.211  10.877   7.689
51249SOL     OW55643  13.652   3.972  12.290
51249SOL    HW155644  13.663   3.878  12.306
51249SOL    HW255645  13.566   3.979  12.248
51250SOL     OW55646   6.833  13.130   8.867
51250SOL    HW155647   6.787  13.171   8.940
51250SOL    HW255648   6.874  13.202   8.820
51251SOL     OW55649   2.108   6.047   2.362
51251SOL    HW155650   2.163   6.121   2.339
51251SOL    HW255651   2.033   6.085   2.408
51252SOL     OW55652   2.657   9.440   3.772
51252SOL    HW155653   2.674   9.504   3.703
51252SOL    HW255654   2.607   9.370   3.729
51253SOL     OW55655   8.815   2.039   0.440
51253SOL    HW155656   8.813   1.959   0.387
51253SOL    HW255657   8.893   2.030   0.494
51254SOL     OW55658   9.347   9.732   6.772
51254SOL    HW155659   9.307   9.804   6.724
51254SOL    HW255660   9.273   9.676   6.797
51255SOL     OW55661  12.346   0.813  14.202
51255SOL    HW155662  12.255   0.798  14.228
51255SOL    HW255663  12.342   0.828  14.108
51256SOL     OW55664   5.144   5.567   7.708
51256SOL    HW155665   5.220   5.520   7.675
51256SOL    HW255666   5.179   5.629   7.773
51257SOL     OW55667   6.351   9.299   5.274
51257SOL    HW155668   6.284   9.231   5.278
51257SOL    HW255669   6.434   9.252   5.285
51258SOL     OW55670  10.853   5.771   0.339
51258SOL    HW155671  10.785   5.825   0.379
51258SOL    HW255672  10.843   5.685   0.380
51259SOL     OW55673   4.027  13.140  13.708
51259SOL    HW155674   3.943  13.164  13.669
51259SOL    HW255675   4.039  13.203  13.779
51260SOL     OW55676  12.283   9.468   9.662
51260SOL    HW155677  12.210   9.445   9.604
51260SOL    HW255678  12.353   9.497   9.604
51261SOL     OW55679  12.188   2.534   6.810
51261SOL    HW155680  12.177   2.616   6.761
51261SOL    HW255681  12.129   2.543   6.885
51262SOL     OW55682   3.536   7.689   7.837
51262SOL    HW155683   3.546   7.678   7.931
51262SOL    HW255684   3.443   7.674   7.821
51263SOL     OW55685   0.984   2.170  12.565
51263SOL    HW155686   0.891   2.152  12.555
51263SOL    HW255687   0.990   2.228  12.641
51264SOL     OW55688  12.702   7.978  11.250
51264SOL    HW155689  12.628   7.935  11.292
51264SOL    HW255690  12.744   7.910  11.198
51265SOL     OW55691   9.789   2.074  11.526
51265SOL    HW155692   9.875   2.056  11.487
51265SOL    HW255693   9.739   1.994  11.511
51266SOL     OW55694  12.685   1.922   3.901
51266SOL    HW155695  12.741   1.846   3.885
51266SOL    HW255696  12.597   1.886   3.910
51267SOL     OW55697   7.611   7.590  14.366
51267SOL    HW155698   7.575   7.526  14.304
51267SOL    HW255699   7.544   7.658  14.372
51268SOL     OW55700  10.532   1.281  14.665
51268SOL    HW155701  10.444   1.278  14.701
51268SOL    HW255702  10.579   1.343  14.721
51269SOL     OW55703   4.219   7.875   8.190
51269SOL    HW155704   4.273   7.833   8.257
51269SOL    HW255705   4.263   7.855   8.107
51270SOL     OW55706  12.906   1.232   4.955
51270SOL    HW155707  12.994   1.263   4.978
51270SOL    HW255708  12.891   1.156   5.012
51271SOL     OW55709   2.909  11.020   8.735
51271SOL    HW155710   2.816  11.041   8.729
51271SOL    HW255711   2.911  10.928   8.761
51272SOL     OW55712  13.770   1.923   9.190
51272SOL    HW155713  13.849   1.913   9.137
51272SOL    HW255714  13.724   1.840   9.178
51273SOL     OW55715  13.380   0.994   7.401
51273SOL    HW155716  13.292   0.988   7.365
51273SOL    HW255717  13.402   0.904   7.428
51274SOL     OW55718   7.040   1.525  10.691
51274SOL    HW155719   7.009   1.534  10.781
51274SOL    HW255720   7.050   1.430  10.678
51275SOL     OW55721  11.902  11.449  11.061
51275SOL    HW155722  11.982  11.466  11.012
51275SOL    HW255723  11.855  11.533  11.062
51276SOL     OW55724   0.197   5.113   5.877
51276SOL    HW155725   0.106   5.085   5.878
51276SOL    HW255726   0.248   5.034   5.893
51277SOL     OW55727   1.655  10.508  11.675
51277SOL    HW155728   1.682  10.594  11.708
51277SOL    HW255729   1.584  10.527  11.614
51278SOL     OW55730   6.584   3.672   5.519
51278SOL    HW155731   6.575   3.635   5.432
51278SOL    HW255732   6.534   3.754   5.516
51279SOL     OW55733   0.605   5.133  13.879
51279SOL    HW155734   0.663   5.107  13.807
51279SOL    HW255735   0.664   5.171  13.944
51280SOL     OW55736  12.115  14.399   0.000
51280SOL    HW155737  12.037  14.387   0.056
51280SOL    HW255738  12.082  14.389  14.781
51281SOL     OW55739  10.377   7.983   8.230
51281SOL    HW155740  10.430   7.926   8.285
51281SOL    HW255741  10.287   7.962   8.255
51282SOL     OW55742  10.370   2.628   2.587
51282SOL    HW155743  10.442   2.647   2.526
51282SOL    HW255744  10.412   2.591   2.664
51283SOL     OW55745  10.417   1.884   1.533
51283SOL    HW155746  10.417   1.808   1.591
51283SOL    HW255747  10.497   1.932   1.556
51284SOL     OW55748   4.955   7.659   9.438
51284SOL    HW155749   5.017   7.600   9.481
51284SOL    HW255750   4.992   7.746   9.451
51285SOL     OW55751   8.386   2.275  12.237
51285SOL    HW155752   8.412   2.346  12.180
51285SOL    HW255753   8.461   2.262  12.296
51286SOL     OW55754  13.430   0.383  12.485
51286SOL    HW155755  13.479   0.427  12.414
51286SOL    HW255756  13.498   0.355  12.546
51287SOL     OW55757  11.297  11.322  13.388
51287SOL    HW155758  11.389  11.348  13.383
51287SOL    HW255759  11.248  11.399  13.359
51288SOL     OW55760   3.568  14.539   0.072
51288SOL    HW155761   3.555  14.565   0.163
51288SOL    HW255762   3.536  14.613   0.021
51289SOL     OW55763  13.355   2.261   0.072
51289SOL    HW155764  13.400   2.193   0.022
51289SOL    HW255765  13.298   2.214   0.132
51290SOL     OW55766   6.994  12.535  13.669
51290SOL    HW155767   7.053  12.610  13.660
51290SOL    HW255768   7.039  12.464  13.623
51291SOL     OW55769   4.712   0.020   5.712
51291SOL    HW155770   4.714  14.807   5.665
51291SOL    HW255771   4.776   0.009   5.783
51292SOL     OW55772   2.372   5.459   3.519
51292SOL    HW155773   2.288   5.499   3.540
51292SOL    HW255774   2.397   5.498   3.435
51293SOL     OW55775   4.198   8.019  12.852
51293SOL    HW155776   4.255   7.987  12.783
51293SOL    HW255777   4.180   8.110  12.829
51294SOL     OW55778   0.197  13.043  13.278
51294SOL    HW155779   0.277  13.010  13.320
51294SOL    HW255780   0.196  12.998  13.193
51295SOL     OW55781  14.004  11.135   8.210
51295SOL    HW155782  13.959  11.217   8.188
51295SOL    HW255783  13.950  11.067   8.170
51296SOL     OW55784   8.481   9.598  13.063
51296SOL    HW155785   8.391   9.619  13.088
51296SOL    HW255786   8.488   9.628  12.972
51297SOL     OW55787   3.293   6.604  10.168
51297SOL    HW155788   3.298   6.673  10.101
51297SOL    HW255789   3.330   6.645  10.247
51298SOL     OW55790  12.332  11.510  12.468
51298SOL    HW155791  12.267  11.566  12.510
51298SOL    HW255792  12.279  11.443  12.423
51299SOL     OW55793   1.823   1.339  11.905
51299SOL    HW155794   1.886   1.411  11.911
51299SOL    HW255795   1.851   1.276  11.971
51300SOL     OW55796  14.415   8.324   5.021
51300SOL    HW155797  14.336   8.310   5.075
51300SOL    HW255798  14.460   8.239   5.023
51301SOL     OW55799   2.274  14.106   1.931
51301SOL    HW155800   2.196  14.112   1.986
51301SOL    HW255801   2.251  14.156   1.852
51302SOL     OW55802   9.128   4.795   9.485
51302SOL    HW155803   9.105   4.844   9.564
51302SOL    HW255804   9.051   4.805   9.429
51303SOL     OW55805   1.890  11.435   9.757
51303SOL    HW155806   1.918  11.394   9.839
51303SOL    HW255807   1.971  11.467   9.717
51304SOL     OW55808  11.917   4.308  11.567
51304SOL    HW155809  11.888   4.296  11.658
51304SOL    HW255810  11.844   4.274  11.515
51305SOL     OW55811  10.417   4.042  12.885
51305SOL    HW155812  10.372   4.126  12.881
51305SOL    HW255813  10.468   4.046  12.966
51306SOL     OW55814   4.509   8.072   4.191
51306SOL    HW155815   4.560   7.993   4.173
51306SOL    HW255816   4.421   8.051   4.160
51307SOL     OW55817   2.083  14.663  13.714
51307SOL    HW155818   2.116  14.751  13.693
51307SOL    HW255819   2.109  14.649  13.805
51308SOL     OW55820   1.822   7.890   0.225
51308SOL    HW155821   1.796   7.815   0.170
51308SOL    HW255822   1.771   7.963   0.190
51309SOL     OW55823  12.399   3.892   5.753
51309SOL    HW155824  12.345   3.815   5.771
51309SOL    HW255825  12.354   3.963   5.799
51310SOL     OW55826   6.755  12.050   8.475
51310SOL    HW155827   6.664  12.036   8.501
51310SOL    HW255828   6.801  11.974   8.512
51311SOL     OW55829   8.868   5.742  11.594
51311SOL    HW155830   8.877   5.675  11.661
51311SOL    HW255831   8.833   5.818  11.641
51312SOL     OW55832  14.440  11.668  13.946
51312SOL    HW155833  14.387  11.599  13.988
51312SOL    HW255834  14.451  11.637  13.856
51313SOL     OW55835   6.610  14.652   8.269
51313SOL    HW155836   6.607  14.748   8.271
51313SOL    HW255837   6.685  14.632   8.213
51314SOL     OW55838  13.326   9.574  13.009
51314SOL    HW155839  13.372   9.547  13.088
51314SOL    HW255840  13.319   9.669  13.016
51315SOL     OW55841   4.513   7.279  14.386
51315SOL    HW155842   4.543   7.320  14.467
51315SOL    HW255843   4.523   7.185  14.400
51316SOL     OW55844  12.988  11.660   6.403
51316SOL    HW155845  12.981  11.749   6.367
51316SOL    HW255846  12.928  11.608   6.351
51317SOL     OW55847   7.978   0.375  14.159
51317SOL    HW155848   7.933   0.304  14.115
51317SOL    HW255849   8.071   0.352  14.154
51318SOL     OW55850   7.345  14.472   9.876
51318SOL    HW155851   7.417  14.524   9.912
51318SOL    HW255852   7.284  14.537   9.841
51319SOL     OW55853   3.349   2.690   1.340
51319SOL    HW155854   3.332   2.638   1.261
51319SOL    HW255855   3.326   2.631   1.413
51320SOL     OW55856   0.425   1.604   1.257
51320SOL    HW155857   0.508   1.649   1.245
51320SOL    HW255858   0.363   1.652   1.202
51321SOL     OW55859  13.723  14.237   3.753
51321SOL    HW155860  13.705  14.297   3.826
51321SOL    HW255861  13.800  14.188   3.781
51322SOL     OW55862   0.806  13.435   8.111
51322SOL    HW155863   0.764  13.407   8.192
51322SOL    HW255864   0.807  13.531   8.116
51323SOL     OW55865   8.892   1.883  13.933
51323SOL    HW155866   8.949   1.813  13.903
51323SOL    HW255867   8.879   1.865  14.026
51324SOL     OW55868   6.146  12.114   8.681
51324SOL    HW155869   6.137  12.025   8.713
51324SOL    HW255870   6.062  12.134   8.640
51325SOL     OW55871   2.145   1.361   0.890
51325SOL    HW155872   2.193   1.367   0.972
51325SOL    HW255873   2.068   1.417   0.903
51326SOL     OW55874  14.138   8.462   7.736
51326SOL    HW155875  14.222   8.417   7.724
51326SOL    HW255876  14.126   8.465   7.831
51327SOL     OW55877   0.149   7.601  11.777
51327SOL    HW155878   0.122   7.588  11.868
51327SOL    HW255879   0.108   7.530  11.729
51328SOL     OW55880   0.701  12.951   6.831
51328SOL    HW155881   0.719  12.933   6.739
51328SOL    HW255882   0.635  12.885   6.855
51329SOL     OW55883   7.897   2.188  11.296
51329SOL    HW155884   7.913   2.277  11.266
51329SOL    HW255885   7.924   2.188  11.388
51330SOL     OW55886   7.842   2.835   6.462
51330SOL    HW155887   7.840   2.795   6.375
51330SOL    HW255888   7.902   2.910   6.453
51331SOL     OW55889   5.156  13.044   6.069
51331SOL    HW155890   5.125  13.114   6.012
51331SOL    HW255891   5.177  13.088   6.152
51332SOL     OW55892   1.352   3.028   7.915
51332SOL    HW155893   1.438   3.006   7.951
51332SOL    HW255894   1.290   2.984   7.974
51333SOL     OW55895   8.005   5.271  13.022
51333SOL    HW155896   8.036   5.263  12.932
51333SOL    HW255897   8.077   5.238  13.075
51334SOL     OW55898  13.431   3.793   7.503
51334SOL    HW155899  13.394   3.837   7.427
51334SOL    HW255900  13.434   3.701   7.479
51335SOL     OW55901   8.121   1.762   9.926
51335SOL    HW155902   8.178   1.723   9.859
51335SOL    HW255903   8.041   1.709   9.923
51336SOL     OW55904   2.791  13.107  14.528
51336SOL    HW155905   2.714  13.079  14.577
51336SOL    HW255906   2.853  13.035  14.539
51337SOL     OW55907  12.626  11.569  13.342
51337SOL    HW155908  12.657  11.488  13.382
51337SOL    HW255909  12.614  11.630  13.415
51338SOL     OW55910  12.265   6.625  11.910
51338SOL    HW155911  12.330   6.580  11.856
51338SOL    HW255912  12.204   6.556  11.937
51339SOL     OW55913   3.910  13.524  14.267
51339SOL    HW155914   3.834  13.573  14.235
51339SOL    HW255915   3.887  13.432  14.254
51340SOL     OW55916  14.108   7.630  10.952
51340SOL    HW155917  14.070   7.575  10.884
51340SOL    HW255918  14.137   7.569  11.020
51341SOL     OW55919  12.391   8.767   5.617
51341SOL    HW155920  12.469   8.816   5.590
51341SOL    HW255921  12.320   8.831   5.616
51342SOL     OW55922   2.557   9.646   4.929
51342SOL    HW155923   2.580   9.622   4.839
51342SOL    HW255924   2.513   9.569   4.964
51343SOL     OW55925   2.832   5.518   4.117
51343SOL    HW155926   2.812   5.473   4.034
51343SOL    HW255927   2.871   5.450   4.172
51344SOL     OW55928  12.281   7.795   2.976
51344SOL    HW155929  12.309   7.730   3.040
51344SOL    HW255930  12.202   7.834   3.015
51345SOL     OW55931   3.457   8.592   6.532
51345SOL    HW155932   3.441   8.501   6.505
51345SOL    HW255933   3.407   8.644   6.470
51346SOL     OW55934  11.557  12.370   1.038
51346SOL    HW155935  11.639  12.333   1.069
51346SOL    HW255936  11.536  12.321   0.959
51347SOL     OW55937   8.673  12.139  13.960
51347SOL    HW155938   8.651  12.225  13.924
51347SOL    HW255939   8.653  12.146  14.053
51348SOL     OW55940   0.160   1.092  14.497
51348SOL    HW155941   0.080   1.094  14.550
51348SOL    HW255942   0.206   1.013  14.527
51349SOL     OW55943  13.964  12.757  14.646
51349SOL    HW155944  13.904  12.792  14.712
51349SOL    HW255945  13.943  12.805  14.566
51350SOL     OW55946   0.237  13.738   5.197
51350SOL    HW155947   0.195  13.823   5.181
51350SOL    HW255948   0.313  13.739   5.139
51351SOL     OW55949   2.638   8.470  11.886
51351SOL    HW155950   2.704   8.490  11.953
51351SOL    HW255951   2.640   8.375  11.879
51352SOL     OW55952   3.133   5.726   0.427
51352SOL    HW155953   3.209   5.683   0.389
51352SOL    HW255954   3.072   5.736   0.354
51353SOL     OW55955   3.466   8.168  11.608
51353SOL    HW155956   3.390   8.209  11.567
51353SOL    HW255957   3.532   8.237  11.609
51354SOL     OW55958   7.229   7.552   6.467
51354SOL    HW155959   7.314   7.537   6.507
51354SOL    HW255960   7.229   7.496   6.389
51355SOL     OW55961  11.744  13.244   5.567
51355SOL    HW155962  11.770  13.330   5.599
51355SOL    HW255963  11.651  13.253   5.546
51356SOL     OW55964  12.289   0.401  13.505
51356SOL    HW155965  12.347   0.359  13.442
51356SOL    HW255966  12.289   0.493  13.480
51357SOL     OW55967   3.380   1.789   6.188
51357SOL    HW155968   3.316   1.857   6.166
51357SOL    HW255969   3.327   1.717   6.224
51358SOL     OW55970  11.069   9.036   5.584
51358SOL    HW155971  11.165   9.036   5.588
51358SOL    HW255972  11.046   8.944   5.570
51359SOL     OW55973   7.821   9.158   1.370
51359SOL    HW155974   7.728   9.178   1.360
51359SOL    HW255975   7.840   9.173   1.462
51360SOL     OW55976  11.728   6.679  13.959
51360SOL    HW155977  11.704   6.655  13.870
51360SOL    HW255978  11.653   6.728  13.992
51361SOL     OW55979   7.180  14.201  13.704
51361SOL    HW155980   7.093  14.242  13.705
51361SOL    HW255981   7.241  14.275  13.699
51362SOL     OW55982   9.951   5.488  10.911
51362SOL    HW155983   9.916   5.477  11.000
51362SOL    HW255984  10.005   5.410  10.897
51363SOL     OW55985   8.612   3.993   7.493
51363SOL    HW155986   8.553   4.006   7.567
51363SOL    HW255987   8.574   4.047   7.423
51364SOL     OW55988  12.450   8.589   8.288
51364SOL    HW155989  12.470   8.551   8.373
51364SOL    HW255990  12.498   8.535   8.225
51365SOL     OW55991   3.704   4.251   9.145
51365SOL    HW155992   3.798   4.263   9.133
51365SOL    HW255993   3.665   4.279   9.062
51366SOL     OW55994  13.056  10.945   2.220
51366SOL    HW155995  13.109  11.000   2.163
51366SOL    HW255996  13.097  10.859   2.215
51367SOL     OW55997   3.681   8.444   9.754
51367SOL    HW155998   3.755   8.487   9.797
51367SOL    HW255999   3.659   8.501   9.681
51368SOL     OW56000   5.429   7.079   9.586
51368SOL    HW156001   5.368   7.128   9.642
51368SOL    HW256002   5.425   6.990   9.619
51369SOL     OW56003   6.926  10.703   3.508
51369SOL    HW156004   6.903  10.654   3.429
51369SOL    HW256005   6.952  10.637   3.571
51370SOL     OW56006  11.646  12.570  13.885
51370SOL    HW156007  11.629  12.596  13.794
51370SOL    HW256008  11.563  12.588  13.930
51371SOL     OW56009  14.263   5.382   2.979
51371SOL    HW156010  14.231   5.429   2.901
51371SOL    HW256011  14.358   5.386   2.971
51372SOL     OW56012   1.487  12.788   8.698
51372SOL    HW156013   1.444  12.753   8.776
51372SOL    HW256014   1.480  12.718   8.633
51373SOL     OW56015   3.067   1.251   7.168
51373SOL    HW156016   3.096   1.338   7.196
51373SOL    HW256017   3.107   1.191   7.231
51374SOL     OW56018   7.010  13.772   8.668
51374SOL    HW156019   6.921  13.754   8.699
51374SOL    HW256020   7.065  13.712   8.719
51375SOL     OW56021  11.425   5.417   1.579
51375SOL    HW156022  11.332   5.432   1.596
51375SOL    HW256023  11.432   5.420   1.484
51376SOL     OW56024   1.998  11.140  14.551
51376SOL    HW156025   2.065  11.116  14.487
51376SOL    HW256026   2.042  11.134  14.635
51377SOL     OW56027   4.409  14.796   0.813
51377SOL    HW156028   4.421  14.848   0.733
51377SOL    HW256029   4.373  14.858   0.877
51378SOL     OW56030  13.021   6.091  11.859
51378SOL    HW156031  13.112   6.069  11.839
51378SOL    HW256032  13.027   6.167  11.916
51379SOL     OW56033   5.127   5.967   8.034
51379SOL    HW156034   5.105   5.882   7.996
51379SOL    HW256035   5.098   6.030   7.968
51380SOL     OW56036   8.895  13.504  11.498
51380SOL    HW156037   8.804  13.474  11.504
51380SOL    HW256038   8.904  13.538  11.409
51381SOL     OW56039   4.847  14.550   3.079
51381SOL    HW156040   4.927  14.602   3.087
51381SOL    HW256041   4.778  14.613   3.062
51382SOL     OW56042   5.651   7.798   4.290
51382SOL    HW156043   5.695   7.863   4.234
51382SOL    HW256044   5.645   7.840   4.376
51383SOL     OW56045   5.676   5.468   9.257
51383SOL    HW156046   5.688   5.398   9.321
51383SOL    HW256047   5.630   5.537   9.305
51384SOL     OW56048  14.213   7.002   1.748
51384SOL    HW156049  14.281   6.941   1.719
51384SOL    HW256050  14.132   6.968   1.712
51385SOL     OW56051   2.571   2.563  13.936
51385SOL    HW156052   2.493   2.509  13.921
51385SOL    HW256053   2.546   2.650  13.905
51386SOL     OW56054   8.307   6.284   1.719
51386SOL    HW156055   8.285   6.360   1.666
51386SOL    HW256056   8.320   6.318   1.807
51387SOL     OW56057  11.551  13.278   4.401
51387SOL    HW156058  11.519  13.243   4.485
51387SOL    HW256059  11.490  13.348   4.379
51388SOL     OW56060   6.343  13.147   1.707
51388SOL    HW156061   6.267  13.140   1.649
51388SOL    HW256062   6.307  13.135   1.795
51389SOL     OW56063   8.046  10.189   5.378
51389SOL    HW156064   8.107  10.212   5.448
51389SOL    HW256065   8.060  10.096   5.362
51390SOL     OW56066   2.943   8.359   6.652
51390SOL    HW156067   2.883   8.335   6.722
51390SOL    HW256068   3.014   8.407   6.696
51391SOL     OW56069   8.089   1.215  14.757
51391SOL    HW156070   8.019   1.234  14.694
51391SOL    HW256071   8.043   1.192  14.837
51392SOL     OW56072  13.455  13.970   6.862
51392SOL    HW156073  13.504  13.965   6.944
51392SOL    HW256074  13.474  13.888   6.817
51393SOL     OW56075   8.549  11.370   4.390
51393SOL    HW156076   8.632  11.330   4.415
51393SOL    HW256077   8.507  11.393   4.473
51394SOL     OW56078  11.020   7.969   1.639
51394SOL    HW156079  10.932   7.931   1.633
51394SOL    HW256080  11.027   8.025   1.562
51395SOL     OW56081   8.257   1.303   2.413
51395SOL    HW156082   8.230   1.232   2.471
51395SOL    HW256083   8.199   1.295   2.337
51396SOL     OW56084  12.140  11.371   8.978
51396SOL    HW156085  12.179  11.450   9.015
51396SOL    HW256086  12.143  11.307   9.050
51397SOL     OW56087   0.236  14.449   5.973
51397SOL    HW156088   0.219  14.418   5.884
51397SOL    HW256089   0.197  14.382   6.030
51398SOL     OW56090  12.999   3.278  10.414
51398SOL    HW156091  13.025   3.369  10.397
51398SOL    HW256092  12.982   3.242  10.327
51399SOL     OW56093  13.165   0.741  13.108
51399SOL    HW156094  13.232   0.798  13.145
51399SOL    HW256095  13.082   0.783  13.131
51400SOL     OW56096   9.577  10.314   4.203
51400SOL    HW156097   9.555  10.360   4.122
51400SOL    HW256098   9.644  10.368   4.244
51401SOL     OW56099  14.445  12.479   2.172
51401SOL    HW156100  14.356  12.458   2.143
51401SOL    HW256101  14.459  12.425   2.250
51402SOL     OW56102   8.640  13.418  11.463
51402SOL    HW156103   8.616  13.352  11.528
51402SOL    HW256104   8.557  13.443  11.423
51403SOL     OW56105  14.258   9.998   4.167
51403SOL    HW156106  14.233  10.083   4.131
51403SOL    HW256107  14.353   9.995   4.157
51404SOL     OW56108   5.659   3.253   7.515
51404SOL    HW156109   5.664   3.260   7.420
51404SOL    HW256110   5.607   3.329   7.542
51405SOL     OW56111   8.415  11.716  10.288
51405SOL    HW156112   8.497  11.699  10.242
51405SOL    HW256113   8.360  11.761  10.223
51406SOL     OW56114   8.917   6.413   0.844
51406SOL    HW156115   8.830   6.399   0.882
51406SOL    HW256116   8.938   6.329   0.803
51407SOL     OW56117   3.487   9.880   1.339
51407SOL    HW156118   3.407   9.884   1.391
51407SOL    HW256119   3.541   9.951   1.372
51408SOL     OW56120   4.492   0.022   0.570
51408SOL    HW156121   4.414   0.072   0.545
51408SOL    HW256122   4.559   0.088   0.584
51409SOL     OW56123  10.004  10.090   7.247
51409SOL    HW156124   9.916  10.101   7.211
51409SOL    HW256125  10.022   9.996   7.238
51410SOL     OW56126   3.197   0.655  10.597
51410SOL    HW156127   3.284   0.626  10.624
51410SOL    HW256128   3.203   0.662  10.501
51411SOL     OW56129   5.232  14.607   5.785
51411SOL    HW156130   5.305  14.546   5.777
51411SOL    HW256131   5.176  14.589   5.710
51412SOL     OW56132   7.812  14.621   0.652
51412SOL    HW156133   7.898  14.662   0.655
51412SOL    HW256134   7.766  14.667   0.582
51413SOL     OW56135   3.727  11.310   8.143
51413SOL    HW156136   3.743  11.337   8.053
51413SOL    HW256137   3.805  11.338   8.191
51414SOL     OW56138   1.993   9.212  14.032
51414SOL    HW156139   1.899   9.195  14.027
51414SOL    HW256140   2.031   9.156  13.964
51415SOL     OW56141  12.453   3.830   9.897
51415SOL    HW156142  12.443   3.924   9.912
51415SOL    HW256143  12.546   3.813   9.916
51416SOL     OW56144   2.387   3.100   4.516
51416SOL    HW156145   2.398   3.119   4.609
51416SOL    HW256146   2.315   3.038   4.513
51417SOL     OW56147   7.221  12.693   4.932
51417SOL    HW156148   7.127  12.676   4.941
51417SOL    HW256149   7.261  12.634   4.996
51418SOL     OW56150   6.792  13.321   7.987
51418SOL    HW156151   6.871  13.372   8.001
51418SOL    HW256152   6.779  13.322   7.893
51419SOL     OW56153   3.734   0.087  11.989
51419SOL    HW156154   3.717   0.007  12.037
51419SOL    HW256155   3.741   0.059  11.897
51420SOL     OW56156  13.736   8.175   1.076
51420SOL    HW156157  13.723   8.081   1.089
51420SOL    HW256158  13.648   8.211   1.065
51421SOL     OW56159   5.816  12.063   9.344
51421SOL    HW156160   5.903  12.081   9.379
51421SOL    HW256161   5.758  12.123   9.391
51422SOL     OW56162  10.707   5.886  12.127
51422SOL    HW156163  10.720   5.791  12.121
51422SOL    HW256164  10.643   5.897  12.197
51423SOL     OW56165   3.897   3.492   8.851
51423SOL    HW156166   3.908   3.516   8.943
51423SOL    HW256167   3.985   3.470   8.821
51424SOL     OW56168   4.620  13.712   9.933
51424SOL    HW156169   4.695  13.655   9.926
51424SOL    HW256170   4.657  13.801   9.937
51425SOL     OW56171   0.737   4.804  13.313
51425SOL    HW156172   0.739   4.718  13.272
51425SOL    HW256173   0.715   4.786  13.405
51426SOL     OW56174   8.656  10.571   2.630
51426SOL    HW156175   8.739  10.561   2.583
51426SOL    HW256176   8.594  10.599   2.563
51427SOL     OW56177   6.246  12.941   2.397
51427SOL    HW156178   6.233  13.021   2.448
51427SOL    HW256179   6.188  12.877   2.437
51428SOL     OW56180   2.024   1.122   4.815
51428SOL    HW156181   2.029   1.217   4.811
51428SOL    HW256182   1.941   1.100   4.773
51429SOL     OW56183  13.622   0.770   9.669
51429SOL    HW156184  13.614   0.759   9.574
51429SOL    HW256185  13.699   0.720   9.693
51430SOL     OW56186   2.818   8.606   7.401
51430SOL    HW156187   2.816   8.524   7.351
51430SOL    HW256188   2.835   8.674   7.335
51431SOL     OW56189   9.639   9.043   4.260
51431SOL    HW156190   9.688   9.121   4.286
51431SOL    HW256191   9.570   9.035   4.327
51432SOL     OW56192   1.926  14.216  12.871
51432SOL    HW156193   2.001  14.158  12.857
51432SOL    HW256194   1.855  14.157  12.896
51433SOL     OW56195  10.927  13.895   4.226
51433SOL    HW156196  10.890  13.897   4.137
51433SOL    HW256197  10.955  13.985   4.242
51434SOL     OW56198   0.174  14.308   4.917
51434SOL    HW156199   0.098  14.291   4.862
51434SOL    HW256200   0.142  14.365   4.987
51435SOL     OW56201  10.328  12.762  10.122
51435SOL    HW156202  10.342  12.856  10.130
51435SOL    HW256203  10.404  12.723  10.167
51436SOL     OW56204  14.567  13.715  14.542
51436SOL    HW156205  14.570  13.762  14.459
51436SOL    HW256206  14.648  13.665  14.544
51437SOL     OW56207   8.239   0.746   8.581
51437SOL    HW156208   8.274   0.658   8.595
51437SOL    HW256209   8.147   0.732   8.558
51438SOL     OW56210   2.406   1.681   5.234
51438SOL    HW156211   2.489   1.713   5.270
51438SOL    HW256212   2.427   1.597   5.196
51439SOL     OW56213  14.097   9.183   5.636
51439SOL    HW156214  14.014   9.226   5.614
51439SOL    HW256215  14.157   9.255   5.656
51440SOL     OW56216   5.532  12.683   3.706
51440SOL    HW156217   5.444  12.695   3.742
51440SOL    HW256218   5.580  12.635   3.774
51441SOL     OW56219  10.219   8.291  14.519
51441SOL    HW156220  10.206   8.314  14.427
51441SOL    HW256221  10.265   8.207  14.517
51442SOL     OW56222  11.321  11.407   6.340
51442SOL    HW156223  11.268  11.328   6.350
51442SOL    HW256224  11.259  11.479   6.352
51443SOL     OW56225   7.187   7.278   9.040
51443SOL    HW156226   7.273   7.247   9.067
51443SOL    HW256227   7.183   7.368   9.071
51444SOL     OW56228   4.232   9.317   2.300
51444SOL    HW156229   4.270   9.276   2.377
51444SOL    HW256230   4.253   9.258   2.228
51445SOL     OW56231   3.970  10.277  10.412
51445SOL    HW156232   3.874  10.281  10.405
51445SOL    HW256233   3.987  10.193  10.454
51446SOL     OW56234   2.985  11.560   4.020
51446SOL    HW156235   2.945  11.474   4.019
51446SOL    HW256236   3.066  11.548   4.070
51447SOL     OW56237   7.271   6.924  14.167
51447SOL    HW156238   7.268   7.018  14.184
51447SOL    HW256239   7.348   6.911  14.113
51448SOL     OW56240   1.729   3.809   6.402
51448SOL    HW156241   1.820   3.816   6.372
51448SOL    HW256242   1.730   3.841   6.492
51449SOL     OW56243   7.489   6.557  10.226
51449SOL    HW156244   7.496   6.620  10.154
51449SOL    HW256245   7.413   6.586  10.276
51450SOL     OW56246   0.344   5.047   0.542
51450SOL    HW156247   0.430   5.040   0.500
51450SOL    HW256248   0.345   5.133   0.584
51451SOL     OW56249  10.257   8.842  12.695
51451SOL    HW156250  10.292   8.795  12.771
51451SOL    HW256251  10.317   8.821  12.624
51452SOL     OW56252   7.774   2.746   8.849
51452SOL    HW156253   7.702   2.781   8.796
51452SOL    HW256254   7.853   2.770   8.799
51453SOL     OW56255  12.326  11.257   4.134
51453SOL    HW156256  12.257  11.224   4.075
51453SOL    HW256257  12.349  11.182   4.188
51454SOL     OW56258   0.956  10.649   1.380
51454SOL    HW156259   0.948  10.587   1.308
51454SOL    HW256260   0.876  10.702   1.376
51455SOL     OW56261   1.184   1.258   1.683
51455SOL    HW156262   1.094   1.259   1.716
51455SOL    HW256263   1.182   1.195   1.611
51456SOL     OW56264   1.496  12.843   9.454
51456SOL    HW156265   1.516  12.753   9.479
51456SOL    HW256266   1.537  12.853   9.368
51457SOL     OW56267  12.366   5.728  13.290
51457SOL    HW156268  12.361   5.803  13.230
51457SOL    HW256269  12.312   5.661  13.250
51458SOL     OW56270   4.622  12.996   2.804
51458SOL    HW156271   4.547  12.945   2.774
51458SOL    HW256272   4.588  13.048   2.877
51459SOL     OW56273   9.890   8.784   6.650
51459SOL    HW156274   9.870   8.823   6.564
51459SOL    HW256275   9.983   8.764   6.646
51460SOL     OW56276   7.115   7.431   7.630
51460SOL    HW156277   7.075   7.518   7.621
51460SOL    HW256278   7.056   7.384   7.689
51461SOL     OW56279  11.362   5.122  11.901
51461SOL    HW156280  11.404   5.081  11.826
51461SOL    HW256281  11.383   5.063  11.974
51462SOL     OW56282  12.527   2.368  10.180
51462SOL    HW156283  12.476   2.301  10.226
51462SOL    HW256284  12.530   2.442  10.241
51463SOL     OW56285   5.954   1.968   5.833
51463SOL    HW156286   5.913   1.947   5.917
51463SOL    HW256287   5.886   2.013   5.783
51464SOL     OW56288   2.233   8.592   5.124
51464SOL    HW156289   2.208   8.535   5.051
51464SOL    HW256290   2.190   8.554   5.200
51465SOL     OW56291   1.374   8.358  12.256
51465SOL    HW156292   1.456   8.342  12.209
51465SOL    HW256293   1.340   8.440  12.219
51466SOL     OW56294  13.121   1.449  10.524
51466SOL    HW156295  13.136   1.462  10.431
51466SOL    HW256296  13.116   1.354  10.535
51467SOL     OW56297   2.370   6.758   1.385
51467SOL    HW156298   2.438   6.798   1.441
51467SOL    HW256299   2.357   6.671   1.423
51468SOL     OW56300   0.730  10.873  14.365
51468SOL    HW156301   0.801  10.824  14.323
51468SOL    HW256302   0.758  10.881  14.456
51469SOL     OW56303  10.876   7.140  10.470
51469SOL    HW156304  10.963   7.159  10.503
51469SOL    HW256305  10.869   7.044  10.474
51470SOL     OW56306   8.208   0.034  11.827
51470SOL    HW156307   8.141   0.029  11.759
51470SOL    HW256308   8.204  14.819  11.872
51471SOL     OW56309  14.475  14.630  13.257
51471SOL    HW156310  14.472  14.655  13.350
51471SOL    HW256311  14.414  14.557  13.251
51472SOL     OW56312  13.190   9.643   6.898
51472SOL    HW156313  13.234   9.558   6.904
51472SOL    HW256314  13.135   9.636   6.820
51473SOL     OW56315   7.508   8.031   8.751
51473SOL    HW156316   7.458   7.989   8.821
51473SOL    HW256317   7.444   8.043   8.680
51474SOL     OW56318   8.522  11.785   5.640
51474SOL    HW156319   8.432  11.764   5.614
51474SOL    HW256320   8.539  11.871   5.601
51475SOL     OW56321   4.942   4.925   8.784
51475SOL    HW156322   4.974   4.913   8.694
51475SOL    HW256323   5.011   4.973   8.828
51476SOL     OW56324   0.838  10.547   7.695
51476SOL    HW156325   0.768  10.537   7.760
51476SOL    HW256326   0.795  10.529   7.612
51477SOL     OW56327  14.273   9.407   6.272
51477SOL    HW156328  14.241   9.396   6.183
51477SOL    HW256329  14.196   9.434   6.322
51478SOL     OW56330   5.468   8.588   3.047
51478SOL    HW156331   5.558   8.613   3.069
51478SOL    HW256332   5.420   8.670   3.042
51479SOL     OW56333   9.669   1.004  14.412
51479SOL    HW156334   9.630   1.006  14.500
51479SOL    HW256335   9.611   1.058  14.359
51480SOL     OW56336   3.405  14.787   2.032
51480SOL    HW156337   3.446  14.765   1.949
51480SOL    HW256338   3.357  14.708   2.057
51481SOL     OW56339  10.036   5.750   2.027
51481SOL    HW156340   9.962   5.700   2.062
51481SOL    HW256341  10.039   5.829   2.080
51482SOL     OW56342   2.944   4.987  12.283
51482SOL    HW156343   2.947   5.026  12.196
51482SOL    HW256344   2.866   5.023  12.324
51483SOL     OW56345   2.249   6.372   8.863
51483SOL    HW156346   2.328   6.418   8.893
51483SOL    HW256347   2.275   6.330   8.781
51484SOL     OW56348   9.701   3.074   8.094
51484SOL    HW156349   9.711   3.128   8.173
51484SOL    HW256350   9.655   2.996   8.126
51485SOL     OW56351   5.908  13.514   3.165
51485SOL    HW156352   5.834  13.566   3.134
51485SOL    HW256353   5.920  13.447   3.097
51486SOL     OW56354   8.558   9.997   9.808
51486SOL    HW156355   8.503   9.923   9.832
51486SOL    HW256356   8.500  10.073   9.815
51487SOL     OW56357   5.473   0.218   1.770
51487SOL    HW156358   5.492   0.282   1.701
51487SOL    HW256359   5.462   0.271   1.849
51488SOL     OW56360   1.853   0.963   5.839
51488SOL    HW156361   1.794   1.036   5.856
51488SOL    HW256362   1.869   0.924   5.924
51489SOL     OW56363   9.837  14.694   2.164
51489SOL    HW156364   9.817  14.666   2.254
51489SOL    HW256365   9.755  14.679   2.116
51490SOL     OW56366   5.679  14.449   6.149
51490SOL    HW156367   5.623  14.455   6.072
51490SOL    HW256368   5.669  14.359   6.179
51491SOL     OW56369   2.495   0.597   1.467
51491SOL    HW156370   2.578   0.611   1.512
51491SOL    HW256371   2.489   0.502   1.455
51492SOL     OW56372  14.213   3.714   9.148
51492SOL    HW156373  14.148   3.644   9.141
51492SOL    HW256374  14.163   3.792   9.172
51493SOL     OW56375   6.626   8.538  14.079
51493SOL    HW156376   6.689   8.608  14.097
51493SOL    HW256377   6.544   8.585  14.061
51494SOL     OW56378   8.775  13.116   5.504
51494SOL    HW156379   8.687  13.117   5.541
51494SOL    HW256380   8.763  13.126   5.410
51495SOL     OW56381  13.202  14.236  10.910
51495SOL    HW156382  13.203  14.331  10.911
51495SOL    HW256383  13.154  14.213  10.831
51496SOL     OW56384  12.733   4.278   3.510
51496SOL    HW156385  12.822   4.304   3.533
51496SOL    HW256386  12.677   4.332   3.567
51497SOL     OW56387   0.846  12.667   9.370
51497SOL    HW156388   0.884  12.579   9.363
51497SOL    HW256389   0.875  12.712   9.291
51498SOL     OW56390   3.744   9.635  11.566
51498SOL    HW156391   3.764   9.596  11.481
51498SOL    HW256392   3.661   9.682  11.552
51499SOL     OW56393   0.280   3.332   5.845
51499SOL    HW156394   0.189   3.362   5.845
51499SOL    HW256395   0.317   3.366   5.763
51500SOL     OW56396  14.018  13.890  11.246
51500SOL    HW156397  14.043  13.903  11.338
51500SOL    HW256398  13.990  13.799  11.242
51501SOL     OW56399  14.094   5.499   9.522
51501SOL    HW156400  14.133   5.566   9.578
51501SOL    HW256401  14.167   5.467   9.468
51502SOL     OW56402   9.915   7.336   2.387
51502SOL    HW156403   9.883   7.422   2.360
51502SOL    HW256404   9.840   7.278   2.379
51503SOL     OW56405  12.718   9.353   5.911
51503SOL    HW156406  12.641   9.410   5.904
51503SOL    HW256407  12.783   9.406   5.956
51504SOL     OW56408   6.734   1.992  10.556
51504SOL    HW156409   6.760   1.933  10.626
51504SOL    HW256410   6.808   2.053  10.547
51505SOL     OW56411   4.217   8.417   9.064
51505SOL    HW156412   4.165   8.478   9.117
51505SOL    HW256413   4.262   8.362   9.127
51506SOL     OW56414   0.994   4.421   2.318
51506SOL    HW156415   1.040   4.504   2.303
51506SOL    HW256416   1.016   4.398   2.409
51507SOL     OW56417   5.607  10.728   1.778
51507SOL    HW156418   5.613  10.802   1.838
51507SOL    HW256419   5.546  10.756   1.710
51508SOL     OW56420  11.203   5.420   8.332
51508SOL    HW156421  11.209   5.504   8.285
51508SOL    HW256422  11.290   5.381   8.321
51509SOL     OW56423   1.106  11.480  10.906
51509SOL    HW156424   1.049  11.438  10.842
51509SOL    HW256425   1.164  11.410  10.936
51510SOL     OW56426   3.532  10.069  12.862
51510SOL    HW156427   3.546  10.029  12.776
51510SOL    HW256428   3.615  10.113  12.881
51511SOL     OW56429   6.804   1.200   5.919
51511SOL    HW156430   6.726   1.149   5.940
51511SOL    HW256431   6.845   1.216   6.004
51512SOL     OW56432   5.050   2.208   9.672
51512SOL    HW156433   4.993   2.216   9.749
51512SOL    HW256434   5.065   2.113   9.663
51513SOL     OW56435   7.212   4.303   4.010
51513SOL    HW156436   7.275   4.375   4.012
51513SOL    HW256437   7.146   4.330   3.946
51514SOL     OW56438   9.797  13.043   9.703
51514SOL    HW156439   9.890  13.055   9.688
51514SOL    HW256440   9.755  13.107   9.646
51515SOL     OW56441   4.015   4.427  14.758
51515SOL    HW156442   4.030   4.388  14.672
51515SOL    HW256443   3.984   4.355  14.812
51516SOL     OW56444   9.594   4.088   7.676
51516SOL    HW156445   9.619   4.180   7.690
51516SOL    HW256446   9.548   4.088   7.592
51517SOL     OW56447   7.518   4.422  10.506
51517SOL    HW156448   7.585   4.460  10.563
51517SOL    HW256449   7.458   4.494  10.489
51518SOL     OW56450   0.283  12.524  10.471
51518SOL    HW156451   0.237  12.601  10.438
51518SOL    HW256452   0.306  12.474  10.392
51519SOL     OW56453   0.418   7.639  12.335
51519SOL    HW156454   0.471   7.690  12.396
51519SOL    HW256455   0.415   7.551  12.373
51520SOL     OW56456   0.541   8.531  10.675
51520SOL    HW156457   0.512   8.473  10.745
51520SOL    HW256458   0.521   8.483  10.595
51521SOL     OW56459   7.534  11.248  14.475
51521SOL    HW156460   7.450  11.285  14.500
51521SOL    HW256461   7.584  11.244  14.557
51522SOL     OW56462  10.410   1.971   7.020
51522SOL    HW156463  10.498   1.936   7.006
51522SOL    HW256464  10.353   1.894   7.017
51523SOL     OW56465  13.698   6.111   4.713
51523SOL    HW156466  13.770   6.083   4.656
51523SOL    HW256467  13.735   6.181   4.765
51524SOL     OW56468   7.234   1.577   7.884
51524SOL    HW156469   7.293   1.571   7.959
51524SOL    HW256470   7.173   1.504   7.896
51525SOL     OW56471   6.373  13.903   4.550
51525SOL    HW156472   6.454  13.905   4.498
51525SOL    HW256473   6.303  13.910   4.485
51526SOL     OW56474   6.407   7.475   3.893
51526SOL    HW156475   6.413   7.411   3.822
51526SOL    HW256476   6.453   7.433   3.966
51527SOL     OW56477   7.301  14.155   2.457
51527SOL    HW156478   7.373  14.219   2.459
51527SOL    HW256479   7.289  14.130   2.549
51528SOL     OW56480  13.573  14.416  13.660
51528SOL    HW156481  13.607  14.391  13.574
51528SOL    HW256482  13.642  14.469  13.699
51529SOL     OW56483   4.562   9.993  14.140
51529SOL    HW156484   4.558  10.081  14.179
51529SOL    HW256485   4.544  10.008  14.047
51530SOL     OW56486   7.929  11.843   1.294
51530SOL    HW156487   7.920  11.899   1.371
51530SOL    HW256488   7.929  11.754   1.328
51531SOL     OW56489  11.321   5.869   5.168
51531SOL    HW156490  11.414   5.876   5.189
51531SOL    HW256491  11.320   5.852   5.074
51532SOL     OW56492   2.533  13.943  11.640
51532SOL    HW156493   2.611  13.982  11.600
51532SOL    HW256494   2.460  13.988  11.598
51533SOL     OW56495  11.865   4.208  11.835
51533SOL    HW156496  11.932   4.143  11.813
51533SOL    HW256497  11.902   4.256  11.909
51534SOL     OW56498  13.306   2.938  10.297
51534SOL    HW156499  13.304   3.034  10.304
51534SOL    HW256500  13.217   2.911  10.321
51535SOL     OW56501  14.119  11.590   6.600
51535SOL    HW156502  14.067  11.671   6.597
51535SOL    HW256503  14.174  11.594   6.522
51536SOL     OW56504   5.530  12.507   0.142
51536SOL    HW156505   5.587  12.475   0.072
51536SOL    HW256506   5.556  12.598   0.155
51537SOL     OW56507   7.928  13.116  14.644
51537SOL    HW156508   7.887  13.033  14.670
51537SOL    HW256509   8.022  13.101  14.656
51538SOL     OW56510  11.847   4.300   4.939
51538SOL    HW156511  11.876   4.211   4.959
51538SOL    HW256512  11.917   4.356   4.973
51539SOL     OW56513   4.374   7.092   6.316
51539SOL    HW156514   4.448   7.091   6.376
51539SOL    HW256515   4.335   7.005   6.323
51540SOL     OW56516  14.291   7.470  12.478
51540SOL    HW156517  14.360   7.527  12.443
51540SOL    HW256518  14.275   7.503  12.566
51541SOL     OW56519   8.664   1.530   5.766
51541SOL    HW156520   8.731   1.525   5.698
51541SOL    HW256521   8.709   1.568   5.841
51542SOL     OW56522   7.048  14.063   0.614
51542SOL    HW156523   6.973  14.122   0.614
51542SOL    HW256524   7.117  14.112   0.659
51543SOL     OW56525   8.586   5.706   5.143
51543SOL    HW156526   8.575   5.801   5.149
51543SOL    HW256527   8.631   5.681   5.223
51544SOL     OW56528   8.724  11.856   2.525
51544SOL    HW156529   8.761  11.936   2.560
51544SOL    HW256530   8.773  11.785   2.568
51545SOL     OW56531  10.295  10.912   3.253
51545SOL    HW156532  10.389  10.893   3.251
51545SOL    HW256533  10.255  10.827   3.274
51546SOL     OW56534   9.529   4.960  14.830
51546SOL    HW156535   9.563   5.029  14.773
51546SOL    HW256536   9.605   4.931   0.011
51547SOL     OW56537  11.165   7.640  13.910
51547SOL    HW156538  11.167   7.717  13.967
51547SOL    HW256539  11.248   7.595  13.929
51548SOL     OW56540   7.861   2.728   6.209
51548SOL    HW156541   7.790   2.718   6.146
51548SOL    HW256542   7.923   2.658   6.187
51549SOL     OW56543  14.458   1.831   3.266
51549SOL    HW156544  14.416   1.915   3.246
51549SOL    HW256545  14.505   1.847   3.348
51550SOL     OW56546   1.947  13.180   3.832
51550SOL    HW156547   1.974  13.271   3.822
51550SOL    HW256548   1.866  13.174   3.782
51551SOL     OW56549   9.095  13.415  12.598
51551SOL    HW156550   9.038  13.357  12.548
51551SOL    HW256551   9.035  13.476  12.641
51552SOL     OW56552  10.670  13.250   8.342
51552SOL    HW156553  10.728  13.174   8.344
51552SOL    HW256554  10.685  13.293   8.426
51553SOL     OW56555   5.518  10.685   3.773
51553SOL    HW156556   5.435  10.642   3.754
51553SOL    HW256557   5.495  10.776   3.790
51554SOL     OW56558  14.704   8.367  13.217
51554SOL    HW156559  14.715   8.460  13.234
51554SOL    HW256560  14.747   8.323  13.291
51555SOL     OW56561  13.000   6.674   0.507
51555SOL    HW156562  13.077   6.636   0.548
51555SOL    HW256563  12.930   6.662   0.572
51556SOL     OW56564  12.917   7.663   1.919
51556SOL    HW156565  12.924   7.570   1.898
51556SOL    HW256566  12.856   7.666   1.993
51557SOL     OW56567  10.242  12.795   5.544
51557SOL    HW156568  10.181  12.868   5.535
51557SOL    HW256569  10.188  12.722   5.573
51558SOL     OW56570  11.775  11.059   6.274
51558SOL    HW156571  11.798  10.974   6.312
51558SOL    HW256572  11.834  11.069   6.200
51559SOL     OW56573   8.825   9.427   9.008
51559SOL    HW156574   8.875   9.371   9.068
51559SOL    HW256575   8.843   9.391   8.921
51560SOL     OW56576   0.702   6.985   3.912
51560SOL    HW156577   0.682   6.930   3.836
51560SOL    HW256578   0.651   7.065   3.899
51561SOL     OW56579   7.207   8.193   2.773
51561SOL    HW156580   7.229   8.252   2.846
51561SOL    HW256581   7.250   8.111   2.795
51562SOL     OW56582   3.317   9.539  10.773
51562SOL    HW156583   3.243   9.487  10.742
51562SOL    HW256584   3.279   9.625  10.790
51563SOL     OW56585  12.765   8.211   9.058
51563SOL    HW156586  12.836   8.152   9.032
51563SOL    HW256587  12.691   8.185   9.002
51564SOL     OW56588   0.508  13.760   5.093
51564SOL    HW156589   0.537  13.817   5.164
51564SOL    HW256590   0.568  13.686   5.096
51565SOL     OW56591   0.788  11.899   6.689
51565SOL    HW156592   0.765  11.855   6.771
51565SOL    HW256593   0.767  11.991   6.704
51566SOL     OW56594   6.318   8.984  14.772
51566SOL    HW156595   6.278   8.904  14.805
51566SOL    HW256596   6.252   9.021  14.712
51567SOL     OW56597   2.685   5.920   2.381
51567SOL    HW156598   2.775   5.887   2.390
51567SOL    HW256599   2.633   5.842   2.364
51568SOL     OW56600   2.987  12.302   0.260
51568SOL    HW156601   2.926  12.347   0.202
51568SOL    HW256602   3.009  12.221   0.214
51569SOL     OW56603   3.012  11.174   3.449
51569SOL    HW156604   3.082  11.230   3.482
51569SOL    HW256605   3.056  11.111   3.392
51570SOL     OW56606  12.911   1.566  12.864
51570SOL    HW156607  12.872   1.653  12.868
51570SOL    HW256608  12.839   1.506  12.883
51571SOL     OW56609   7.382   0.398   1.065
51571SOL    HW156610   7.394   0.329   1.130
51571SOL    HW256611   7.295   0.383   1.029
51572SOL     OW56612  12.433  12.898   2.829
51572SOL    HW156613  12.411  12.959   2.900
51572SOL    HW256614  12.518  12.928   2.797
51573SOL     OW56615   4.601   5.723  13.013
51573SOL    HW156616   4.563   5.657  13.071
51573SOL    HW256617   4.538   5.730  12.941
51574SOL     OW56618   8.593  12.954   4.366
51574SOL    HW156619   8.616  12.949   4.273
51574SOL    HW256620   8.598  12.864   4.397
51575SOL     OW56621   9.935   2.656  13.100
51575SOL    HW156622   9.978   2.576  13.072
51575SOL    HW256623   9.960   2.721  13.034
51576SOL     OW56624   1.703   8.141   0.208
51576SOL    HW156625   1.637   8.200   0.243
51576SOL    HW256626   1.721   8.174   0.120
51577SOL     OW56627  14.080   2.436   7.923
51577SOL    HW156628  14.157   2.482   7.954
51577SOL    HW256629  14.034   2.410   8.003
51578SOL     OW56630   3.048   6.038   3.388
51578SOL    HW156631   3.045   5.996   3.302
51578SOL    HW256632   3.042   5.965   3.450
51579SOL     OW56633   0.507  12.344  11.192
51579SOL    HW156634   0.591  12.385  11.173
51579SOL    HW256635   0.464  12.404  11.253
51580SOL     OW56636   5.419   4.740   6.469
51580SOL    HW156637   5.506   4.766   6.439
51580SOL    HW256638   5.415   4.646   6.451
51581SOL     OW56639  14.398   3.340  10.269
51581SOL    HW156640  14.373   3.361  10.359
51581SOL    HW256641  14.425   3.248  10.272
51582SOL     OW56642  13.507  10.638   4.730
51582SOL    HW156643  13.532  10.695   4.802
51582SOL    HW256644  13.546  10.678   4.652
51583SOL     OW56645  11.715   0.818  12.914
51583SOL    HW156646  11.694   0.896  12.965
51583SOL    HW256647  11.799   0.837  12.873
51584SOL     OW56648   7.874   8.132  13.896
51584SOL    HW156649   7.800   8.072  13.889
51584SOL    HW256650   7.872   8.162  13.987
51585SOL     OW56651   4.447   7.368   5.182
51585SOL    HW156652   4.485   7.455   5.191
51585SOL    HW256653   4.500   7.312   5.238
51586SOL     OW56654   3.257   8.267   0.911
51586SOL    HW156655   3.275   8.174   0.925
51586SOL    HW256656   3.210   8.295   0.989
51587SOL     OW56657  10.719  12.648   2.174
51587SOL    HW156658  10.769  12.726   2.149
51587SOL    HW256659  10.627  12.675   2.164
51588SOL     OW56660  14.599   2.776  10.641
51588SOL    HW156661  14.635   2.765  10.553
51588SOL    HW256662  14.622   2.696  10.687
51589SOL     OW56663   3.182  10.551  11.633
51589SOL    HW156664   3.098  10.564  11.676
51589SOL    HW256665   3.199  10.457  11.640
51590SOL     OW56666   3.617   5.007   7.939
51590SOL    HW156667   3.562   5.077   7.905
51590SOL    HW256668   3.656   5.043   8.019
51591SOL     OW56669   7.852   4.575  12.827
51591SOL    HW156670   7.860   4.670  12.839
51591SOL    HW256671   7.811   4.544  12.907
51592SOL     OW56672   9.134   7.762   3.681
51592SOL    HW156673   9.078   7.686   3.667
51592SOL    HW256674   9.084   7.835   3.644
51593SOL     OW56675   0.480   2.876  13.216
51593SOL    HW156676   0.445   2.788  13.226
51593SOL    HW256677   0.414   2.924  13.166
51594SOL     OW56678  11.063  11.429   3.420
51594SOL    HW156679  10.993  11.493   3.411
51594SOL    HW256680  11.031  11.367   3.486
51595SOL     OW56681   7.430   4.438   8.436
51595SOL    HW156682   7.454   4.515   8.384
51595SOL    HW256683   7.386   4.473   8.513
51596SOL     OW56684   3.195  14.024   1.281
51596SOL    HW156685   3.184  13.966   1.356
51596SOL    HW256686   3.286  14.054   1.287
51597SOL     OW56687   3.540   3.463   0.058
51597SOL    HW156688   3.453   3.430   0.038
51597SOL    HW256689   3.600   3.401   0.017
51598SOL     OW56690  13.405   3.952   0.009
51598SOL    HW156691  13.493   3.939   0.042
51598SOL    HW256692  13.357   3.990   0.082
51599SOL     OW56693   1.897   4.372   4.249
51599SOL    HW156694   1.857   4.384   4.163
51599SOL    HW256695   1.988   4.349   4.231
51600SOL     OW56696   0.567  12.388   6.731
51600SOL    HW156697   0.473  12.404   6.740
51600SOL    HW256698   0.605  12.474   6.717
51601SOL     OW56699  14.089   2.225  12.624
51601SOL    HW156700  14.183   2.245  12.618
51601SOL    HW256701  14.081   2.135  12.595
51602SOL     OW56702  10.502   7.265   6.707
51602SOL    HW156703  10.589   7.282   6.743
51602SOL    HW256704  10.509   7.178   6.668
51603SOL     OW56705   0.005  11.028  12.145
51603SOL    HW156706  14.821  11.070  12.078
51603SOL    HW256707   0.026  11.098  12.206
51604SOL     OW56708  13.533   9.426   9.219
51604SOL    HW156709  13.494   9.499   9.266
51604SOL    HW256710  13.599   9.467   9.162
51605SOL     OW56711   4.235  10.490   6.133
51605SOL    HW156712   4.190  10.574   6.143
51605SOL    HW256713   4.306  10.492   6.196
51606SOL     OW56714  14.362  11.171  13.645
51606SOL    HW156715  14.322  11.086  13.665
51606SOL    HW256716  14.303  11.211  13.582
51607SOL     OW56717   6.695   3.604   2.863
51607SOL    HW156718   6.624   3.654   2.823
51607SOL    HW256719   6.746   3.572   2.790
51608SOL     OW56720   3.792   0.894   3.508
51608SOL    HW156721   3.705   0.918   3.477
51608SOL    HW256722   3.792   0.916   3.602
51609SOL     OW56723  13.918   4.737   5.914
51609SOL    HW156724  13.928   4.714   5.822
51609SOL    HW256725  13.828   4.711   5.936
51610SOL     OW56726   9.873  13.096   8.753
51610SOL    HW156727   9.864  13.016   8.702
51610SOL    HW256728   9.866  13.166   8.689
51611SOL     OW56729   2.726   0.327   3.401
51611SOL    HW156730   2.663   0.398   3.418
51611SOL    HW256731   2.674   0.258   3.359
51612SOL     OW56732  14.118   0.719   6.829
51612SOL    HW156733  14.129   0.630   6.796
51612SOL    HW256734  14.132   0.776   6.753
51613SOL     OW56735  11.235   2.976   4.500
51613SOL    HW156736  11.232   2.963   4.595
51613SOL    HW256737  11.286   2.902   4.467
51614SOL     OW56738  14.000   9.762   7.925
51614SOL    HW156739  13.983   9.668   7.917
51614SOL    HW256740  14.067   9.769   7.993
51615SOL     OW56741   4.537  10.236   1.979
51615SOL    HW156742   4.600  10.295   1.939
51615SOL    HW256743   4.570  10.222   2.068
51616SOL     OW56744   2.675  14.846   0.132
51616SOL    HW156745   2.720   0.052   0.094
51616SOL    HW256746   2.715  14.834   0.218
51617SOL     OW56747   4.933  10.693   6.750
51617SOL    HW156748   5.009  10.637   6.733
51617SOL    HW256749   4.964  10.757   6.814
51618SOL     OW56750  12.565   4.714   6.624
51618SOL    HW156751  12.657   4.706   6.600
51618SOL    HW256752  12.557   4.803   6.657
51619SOL     OW56753   1.998   4.353  12.429
51619SOL    HW156754   2.000   4.291  12.356
51619SOL    HW256755   2.089   4.380  12.440
51620SOL     OW56756   4.658   7.541   3.924
51620SOL    HW156757   4.669   7.453   3.959
51620SOL    HW256758   4.734   7.589   3.956
51621SOL     OW56759  10.821  11.443   2.818
51621SOL    HW156760  10.859  11.356   2.829
51621SOL    HW256761  10.807  11.452   2.724
51622SOL     OW56762   9.109  11.623   8.446
51622SOL    HW156763   9.141  11.534   8.431
51622SOL    HW256764   9.018  11.612   8.472
51623SOL     OW56765  13.670  10.217  14.393
51623SOL    HW156766  13.674  10.300  14.440
51623SOL    HW256767  13.579  10.189  14.402
51624SOL     OW56768  12.239   0.628  11.751
51624SOL    HW156769  12.147   0.616  11.771
51624SOL    HW256770  12.280   0.650  11.835
51625SOL     OW56771  10.405   1.179   8.949
51625SOL    HW156772  10.410   1.095   8.994
51625SOL    HW256773  10.398   1.156   8.856
51626SOL     OW56774   8.793   0.950  11.943
51626SOL    HW156775   8.859   0.968  12.010
51626SOL    HW256776   8.813   1.010  11.872
51627SOL     OW56777  10.887   2.068  14.478
51627SOL    HW156778  10.840   2.149  14.459
51627SOL    HW256779  10.889   2.064  14.574
51628SOL     OW56780   5.522   3.933   6.479
51628SOL    HW156781   5.447   3.885   6.515
51628SOL    HW256782   5.483   3.993   6.414
51629SOL     OW56783   2.567   8.812  14.330
51629SOL    HW156784   2.553   8.722  14.361
51629SOL    HW256785   2.498   8.826  14.266
51630SOL     OW56786   7.212  14.632   1.792
51630SOL    HW156787   7.146  14.648   1.725
51630SOL    HW256788   7.213  14.537   1.804
51631SOL     OW56789   9.496   6.649   4.464
51631SOL    HW156790   9.462   6.668   4.551
51631SOL    HW256791   9.571   6.708   4.454
51632SOL     OW56792  11.780  13.960   6.652
51632SOL    HW156793  11.698  14.001   6.676
51632SOL    HW256794  11.791  13.981   6.559
51633SOL     OW56795  14.234  11.054   8.028
51633SOL    HW156796  14.165  11.063   8.094
51633SOL    HW256797  14.214  11.121   7.963
51634SOL     OW56798  13.010  13.620   0.960
51634SOL    HW156799  13.070  13.547   0.947
51634SOL    HW256800  13.050  13.694   0.914
51635SOL     OW56801  11.376   9.257  13.318
51635SOL    HW156802  11.341   9.228  13.234
51635SOL    HW256803  11.423   9.338  13.298
51636SOL     OW56804   5.899   7.687   4.078
51636SOL    HW156805   5.908   7.615   4.015
51636SOL    HW256806   5.866   7.645   4.158
51637SOL     OW56807  13.953  13.976  13.086
51637SOL    HW156808  14.013  13.928  13.028
51637SOL    HW256809  13.871  13.980  13.037
51638SOL     OW56810   0.927   7.624   8.078
51638SOL    HW156811   0.982   7.571   8.135
51638SOL    HW256812   0.859   7.564   8.046
51639SOL     OW56813   3.944  12.527   8.741
51639SOL    HW156814   3.916  12.506   8.652
51639SOL    HW256815   4.037  12.503   8.743
51640SOL     OW56816   0.625  12.681   8.389
51640SOL    HW156817   0.621  12.610   8.454
51640SOL    HW256818   0.666  12.753   8.436
51641SOL     OW56819  14.673   5.416   0.246
51641SOL    HW156820  14.601   5.354   0.237
51641SOL    HW256821  14.717   5.389   0.327
51642SOL     OW56822   6.755   9.640   1.270
51642SOL    HW156823   6.792   9.715   1.318
51642SOL    HW256824   6.662   9.659   1.265
51643SOL     OW56825  14.258   0.191   1.586
51643SOL    HW156826  14.221   0.134   1.653
51643SOL    HW256827  14.240   0.147   1.503
51644SOL     OW56828   5.446   4.783  11.029
51644SOL    HW156829   5.480   4.713  11.085
51644SOL    HW256830   5.524   4.835  11.007
51645SOL     OW56831  10.932   6.797   7.104
51645SOL    HW156832  10.971   6.879   7.074
51645SOL    HW256833  10.943   6.799   7.199
51646SOL     OW56834  14.410   4.778   8.948
51646SOL    HW156835  14.476   4.713   8.971
51646SOL    HW256836  14.460   4.854   8.916
51647SOL     OW56837  14.733   4.292   9.015
51647SOL    HW156838  14.792   4.358   8.978
51647SOL    HW256839  14.791   4.223   9.048
51648SOL     OW56840   8.144   6.703   1.687
51648SOL    HW156841   8.090   6.631   1.721
51648SOL    HW256842   8.232   6.683   1.718
51649SOL     OW56843  13.012  14.694  11.794
51649SOL    HW156844  13.067  14.744  11.855
51649SOL    HW256845  12.942  14.755  11.770
51650SOL     OW56846   3.892   3.698   0.625
51650SOL    HW156847   3.970   3.745   0.595
51650SOL    HW256848   3.881   3.726   0.716
51651SOL     OW56849   8.891   5.764   5.026
51651SOL    HW156850   8.867   5.676   5.053
51651SOL    HW256851   8.961   5.789   5.087
51652SOL     OW56852  12.070  12.006   7.727
51652SOL    HW156853  12.135  11.978   7.663
51652SOL    HW256854  12.070  12.102   7.722
51653SOL     OW56855  12.554  14.794   6.664
51653SOL    HW156856  12.542  14.746   6.582
51653SOL    HW256857  12.497  14.870   6.657
51654SOL     OW56858   8.263   8.641   4.851
51654SOL    HW156859   8.340   8.671   4.900
51654SOL    HW256860   8.290   8.647   4.759
51655SOL     OW56861   1.722   3.639  13.509
51655SOL    HW156862   1.637   3.650  13.466
51655SOL    HW256863   1.754   3.555  13.476
51656SOL     OW56864   4.173  12.449   4.885
51656SOL    HW156865   4.079  12.465   4.884
51656SOL    HW256866   4.211  12.530   4.850
51657SOL     OW56867   9.203   9.907   0.135
51657SOL    HW156868   9.138   9.959   0.089
51657SOL    HW256869   9.153   9.834   0.173
51658SOL     OW56870   9.582   2.541   1.700
51658SOL    HW156871   9.603   2.448   1.711
51658SOL    HW256872   9.639   2.587   1.761
51659SOL     OW56873   3.601   4.094   6.434
51659SOL    HW156874   3.691   4.123   6.423
51659SOL    HW256875   3.554   4.171   6.466
51660SOL     OW56876   0.526   9.122   0.139
51660SOL    HW156877   0.526   9.185   0.211
51660SOL    HW256878   0.523   9.176   0.060
51661SOL     OW56879  11.927   7.940   1.342
51661SOL    HW156880  11.954   7.860   1.387
51661SOL    HW256881  12.005   7.996   1.346
51662SOL     OW56882   9.778  14.725   6.844
51662SOL    HW156883   9.690  14.730   6.806
51662SOL    HW256884   9.827  14.669   6.783
51663SOL     OW56885   3.884   5.443   2.264
51663SOL    HW156886   3.945   5.390   2.316
51663SOL    HW256887   3.900   5.533   2.291
51664SOL     OW56888  11.065   1.517   3.308
51664SOL    HW156889  11.045   1.475   3.392
51664SOL    HW256890  11.126   1.587   3.330
51665SOL     OW56891   4.134   3.264  11.478
51665SOL    HW156892   4.228   3.254  11.492
51665SOL    HW256893   4.113   3.203  11.407
51666SOL     OW56894   2.619   8.796   5.847
51666SOL    HW156895   2.538   8.757   5.878
51666SOL    HW256896   2.591   8.877   5.803
51667SOL     OW56897  11.373  10.869   9.899
51667SOL    HW156898  11.449  10.833   9.944
51667SOL    HW256899  11.407  10.897   9.814
51668SOL     OW56900  13.278   0.223   1.690
51668SOL    HW156901  13.305   0.199   1.601
51668SOL    HW256902  13.288   0.142   1.740
51669SOL     OW56903   7.065   7.615   1.959
51669SOL    HW156904   6.984   7.662   1.940
51669SOL    HW256905   7.100   7.592   1.874
51670SOL     OW56906  11.860   6.363   7.434
51670SOL    HW156907  11.940   6.412   7.412
51670SOL    HW256908  11.823   6.339   7.349
51671SOL     OW56909   4.186   0.948   7.950
51671SOL    HW156910   4.115   0.884   7.956
51671SOL    HW256911   4.250   0.909   7.891
51672SOL     OW56912   9.860  14.819  12.161
51672SOL    HW156913   9.895  14.802  12.248
51672SOL    HW256914   9.774  14.857  12.176
51673SOL     OW56915  10.417  11.436   6.399
51673SOL    HW156916  10.430  11.510   6.339
51673SOL    HW256917  10.408  11.360   6.341
51674SOL     OW56918   5.111   5.635   5.440
51674SOL    HW156919   5.019   5.612   5.424
51674SOL    HW256920   5.160   5.560   5.405
51675SOL     OW56921   1.927  13.565   5.367
51675SOL    HW156922   1.866  13.507   5.412
51675SOL    HW256923   1.889  13.652   5.379
51676SOL     OW56924  14.157   0.514   1.485
51676SOL    HW156925  14.239   0.553   1.514
51676SOL    HW256926  14.168   0.420   1.502
51677SOL     OW56927  11.531  13.308   0.248
51677SOL    HW156928  11.543  13.403   0.239
51677SOL    HW256929  11.494  13.281   0.164
51678SOL     OW56930   4.647   4.153   8.590
51678SOL    HW156931   4.592   4.091   8.637
51678SOL    HW256932   4.737   4.126   8.610
51679SOL     OW56933   7.690  12.339   5.230
51679SOL    HW156934   7.611  12.336   5.284
51679SOL    HW256935   7.682  12.265   5.171
51680SOL     OW56936   0.590  13.386  10.088
51680SOL    HW156937   0.566  13.343  10.170
51680SOL    HW256938   0.620  13.473  10.114
51681SOL     OW56939   3.636   2.113   6.338
51681SOL    HW156940   3.664   2.028   6.303
51681SOL    HW256941   3.717   2.162   6.352
51682SOL     OW56942   8.126  11.116  12.345
51682SOL    HW156943   8.118  11.110  12.440
51682SOL    HW256944   8.218  11.098  12.328
51683SOL     OW56945  13.835   0.245  13.742
51683SOL    HW156946  13.869   0.183  13.807
51683SOL    HW256947  13.776   0.301  13.792
51684SOL     OW56948  13.212  10.306   1.437
51684SOL    HW156949  13.276  10.296   1.507
51684SOL    HW256950  13.263  10.293   1.357
51685SOL     OW56951   1.402   1.904  12.489
51685SOL    HW156952   1.317   1.938  12.517
51685SOL    HW256953   1.401   1.910  12.394
51686SOL     OW56954   6.609  10.725   4.195
51686SOL    HW156955   6.691  10.773   4.195
51686SOL    HW256956   6.586  10.714   4.103
51687SOL     OW56957  14.485   9.270   5.928
51687SOL    HW156958  14.389   9.266   5.934
51687SOL    HW256959  14.508   9.191   5.878
51688SOL     OW56960   6.493   5.939   6.509
51688SOL    HW156961   6.552   5.915   6.580
51688SOL    HW256962   6.431   6.000   6.549
51689SOL     OW56963   5.832   3.869  12.897
51689SOL    HW156964   5.738   3.876  12.912
51689SOL    HW256965   5.850   3.934  12.828
51690SOL     OW56966   0.608   9.806   3.826
51690SOL    HW156967   0.660   9.886   3.815
51690SOL    HW256968   0.554   9.801   3.747
51691SOL     OW56969  13.803   0.851   0.152
51691SOL    HW156970  13.755   0.865   0.233
51691SOL    HW256971  13.812   0.756   0.145
51692SOL     OW56972   7.612   4.300  11.462
51692SOL    HW156973   7.686   4.318  11.520
51692SOL    HW256974   7.635   4.345  11.380
51693SOL     OW56975   2.523  10.350   4.915
51693SOL    HW156976   2.495  10.356   5.007
51693SOL    HW256977   2.453  10.394   4.866
51694SOL     OW56978  11.598   0.581  11.413
51694SOL    HW156979  11.540   0.575  11.338
51694SOL    HW256980  11.540   0.580  11.489
51695SOL     OW56981   5.135   3.703  11.094
51695SOL    HW156982   5.123   3.789  11.134
51695SOL    HW256983   5.228   3.684  11.105
51696SOL     OW56984   8.762   5.086   1.115
51696SOL    HW156985   8.719   5.010   1.153
51696SOL    HW256986   8.703   5.159   1.134
51697SOL     OW56987   7.329  11.439   1.264
51697SOL    HW156988   7.342  11.507   1.199
51697SOL    HW256989   7.397  11.374   1.244
51698SOL     OW56990   8.153  10.564   8.697
51698SOL    HW156991   8.070  10.605   8.671
51698SOL    HW256992   8.195  10.629   8.753
51699SOL     OW56993   7.934   9.500  12.219
51699SOL    HW156994   7.929   9.571  12.154
51699SOL    HW256995   8.027   9.483  12.228
51700SOL     OW56996  12.196   6.009   8.284
51700SOL    HW156997  12.153   6.016   8.199
51700SOL    HW256998  12.141   6.061   8.343
51701SOL     OW56999  10.583   2.188  10.229
51701SOL    HW157000  10.562   2.251  10.159
51701SOL    HW257001  10.584   2.103  10.185
51702SOL     OW57002  14.224   0.368   8.940
51702SOL    HW157003  14.211   0.275   8.922
51702SOL    HW257004  14.155   0.412   8.890
51703SOL     OW57005   4.051   8.318  13.862
51703SOL    HW157006   4.101   8.371  13.800
51703SOL    HW257007   3.960   8.344  13.847
51704SOL     OW57008   1.540   8.018  12.081
51704SOL    HW157009   1.531   7.923  12.076
51704SOL    HW257010   1.581   8.042  11.997
51705SOL     OW57011   9.715  14.509   8.732
51705SOL    HW157012   9.710  14.581   8.794
51705SOL    HW257013   9.690  14.548   8.648
51706SOL     OW57014  12.913  13.855   1.561
51706SOL    HW157015  12.905  13.926   1.624
51706SOL    HW257016  12.894  13.775   1.611
51707SOL     OW57017  11.012   2.623   1.809
51707SOL    HW157018  10.970   2.663   1.884
51707SOL    HW257019  11.105   2.617   1.834
51708SOL     OW57020   9.576  14.768   0.605
51708SOL    HW157021   9.518  14.693   0.620
51708SOL    HW257022   9.661  14.738   0.637
51709SOL     OW57023   4.617  10.678   8.451
51709SOL    HW157024   4.579  10.765   8.444
51709SOL    HW257025   4.690  10.678   8.389
51710SOL     OW57026  12.982   1.605   4.262
51710SOL    HW157027  13.064   1.600   4.311
51710SOL    HW257028  12.958   1.513   4.248
51711SOL     OW57029   6.335   4.932   8.214
51711SOL    HW157030   6.384   4.888   8.284
51711SOL    HW257031   6.249   4.949   8.252
51712SOL     OW57032  12.849   8.595   3.713
51712SOL    HW157033  12.805   8.669   3.670
51712SOL    HW257034  12.813   8.593   3.801
51713SOL     OW57035   1.720  12.896  10.196
51713SOL    HW157036   1.750  12.815  10.237
51713SOL    HW257037   1.801  12.938  10.165
51714SOL     OW57038   4.544   1.158   2.615
51714SOL    HW157039   4.467   1.107   2.641
51714SOL    HW257040   4.615   1.121   2.666
51715SOL     OW57041   3.634   7.748   4.643
51715SOL    HW157042   3.572   7.790   4.583
51715SOL    HW257043   3.707   7.808   4.648
51716SOL     OW57044  10.933   4.395   2.441
51716SOL    HW157045  10.958   4.365   2.353
51716SOL    HW257046  10.859   4.340   2.465
51717SOL     OW57047  11.461   0.141   0.857
51717SOL    HW157048  11.457   0.157   0.951
51717SOL    HW257049  11.416   0.057   0.845
51718SOL     OW57050  13.443  12.343  11.637
51718SOL    HW157051  13.410  12.255  11.624
51718SOL    HW257052  13.503  12.336  11.712
51719SOL     OW57053  13.853  13.489  13.945
51719SOL    HW157054  13.827  13.447  14.027
51719SOL    HW257055  13.813  13.435  13.876
51720SOL     OW57056   5.446   5.848  10.819
51720SOL    HW157057   5.497   5.863  10.740
51720SOL    HW257058   5.483   5.907  10.884
51721SOL     OW57059   4.283   6.583   3.679
51721SOL    HW157060   4.317   6.621   3.760
51721SOL    HW257061   4.267   6.658   3.622
51722SOL     OW57062  12.571   5.103  10.597
51722SOL    HW157063  12.622   5.049  10.537
51722SOL    HW257064  12.510   5.042  10.639
51723SOL     OW57065  11.925   1.745   9.745
51723SOL    HW157066  11.974   1.713   9.821
51723SOL    HW257067  11.934   1.675   9.680
51724SOL     OW57068  14.060   2.033   5.129
51724SOL    HW157069  13.974   2.070   5.109
51724SOL    HW257070  14.050   1.997   5.217
51725SOL     OW57071   7.764   4.235  13.148
51725SOL    HW157072   7.721   4.217  13.232
51725SOL    HW257073   7.767   4.150  13.104
51726SOL     OW57074  12.350   7.107   9.595
51726SOL    HW157075  12.377   7.192   9.562
51726SOL    HW257076  12.355   7.049   9.519
51727SOL     OW57077  10.226   7.521   3.881
51727SOL    HW157078  10.315   7.513   3.916
51727SOL    HW257079  10.187   7.591   3.934
51728SOL     OW57080   9.897   0.832  13.574
51728SOL    HW157081   9.943   0.904  13.531
51728SOL    HW257082   9.824   0.812  13.516
51729SOL     OW57083   2.071   6.937   3.101
51729SOL    HW157084   2.068   6.980   3.015
51729SOL    HW257085   2.051   6.845   3.082
51730SOL     OW57086   2.130   4.872  12.108
51730SOL    HW157087   2.193   4.919  12.054
51730SOL    HW257088   2.046   4.881  12.063
51731SOL     OW57089   4.314   3.474   4.123
51731SOL    HW157090   4.262   3.533   4.176
51731SOL    HW257091   4.251   3.435   4.062
51732SOL     OW57092   1.723   7.597   8.289
51732SOL    HW157093   1.645   7.543   8.281
51732SOL    HW257094   1.697   7.670   8.346
51733SOL     OW57095   1.494   4.900   1.876
51733SOL    HW157096   1.549   4.896   1.798
51733SOL    HW257097   1.480   4.993   1.890
51734SOL     OW57098   7.539  10.349  11.774
51734SOL    HW157099   7.520  10.255  11.773
51734SOL    HW257100   7.477  10.387  11.712
51735SOL     OW57101  11.178   1.951  13.430
51735SOL    HW157102  11.102   2.006  13.447
51735SOL    HW257103  11.157   1.868  13.473
51736SOL     OW57104   4.729  10.585  14.040
51736SOL    HW157105   4.698  10.667  14.002
51736SOL    HW257106   4.681  10.578  14.123
51737SOL     OW57107   2.902  12.280   5.700
51737SOL    HW157108   2.974  12.221   5.722
51737SOL    HW257109   2.828  12.222   5.684
51738SOL     OW57110  13.576   5.872  13.505
51738SOL    HW157111  13.549   5.963  13.513
51738SOL    HW257112  13.671   5.873  13.522
51739SOL     OW57113  14.200  10.137   5.904
51739SOL    HW157114  14.217  10.130   5.997
51739SOL    HW257115  14.215  10.049   5.870
51740SOL     OW57116   9.383   6.275  13.658
51740SOL    HW157117   9.335   6.193  13.657
51740SOL    HW257118   9.331   6.334  13.604
51741SOL     OW57119  14.850   9.152   1.443
51741SOL    HW157120   0.074   9.155   1.427
51741SOL    HW257121  14.830   9.233   1.489
51742SOL     OW57122   6.896  10.708  12.722
51742SOL    HW157123   6.944  10.694  12.640
51742SOL    HW257124   6.858  10.623  12.742
51743SOL     OW57125   2.194  11.229   6.833
51743SOL    HW157126   2.220  11.237   6.925
51743SOL    HW257127   2.267  11.182   6.792
51744SOL     OW57128   7.349  12.550   9.412
51744SOL    HW157129   7.411  12.580   9.346
51744SOL    HW257130   7.401  12.543   9.492
51745SOL     OW57131  12.223  12.336   3.563
51745SOL    HW157132  12.150  12.345   3.501
51745SOL    HW257133  12.209  12.408   3.625
51746SOL     OW57134  10.640   4.691  14.800
51746SOL    HW157135  10.723   4.729  14.772
51746SOL    HW257136  10.630   4.613  14.745
51747SOL     OW57137   4.897   9.615   7.108
51747SOL    HW157138   4.820   9.671   7.105
51747SOL    HW257139   4.890   9.567   7.190
51748SOL     OW57140   3.447   7.008   6.791
51748SOL    HW157141   3.470   7.088   6.838
51748SOL    HW257142   3.524   6.952   6.799
51749SOL     OW57143   3.085   3.260   5.542
51749SOL    HW157144   3.166   3.256   5.593
51749SOL    HW257145   3.097   3.196   5.472
51750SOL     OW57146   2.592   6.456   7.508
51750SOL    HW157147   2.504   6.429   7.533
51750SOL    HW257148   2.649   6.416   7.573
51751SOL     OW57149  12.416   7.989  14.622
51751SOL    HW157150  12.453   8.013  14.707
51751SOL    HW257151  12.345   7.928  14.644
51752SOL     OW57152  10.700   0.862   1.491
51752SOL    HW157153  10.616   0.902   1.468
51752SOL    HW257154  10.765   0.929   1.469
51753SOL     OW57155  14.843   2.824   2.339
51753SOL    HW157156  14.821   2.911   2.374
51753SOL    HW257157  14.760   2.789   2.307
51754SOL     OW57158  10.967   8.842   5.925
51754SOL    HW157159  10.926   8.925   5.899
51754SOL    HW257160  10.895   8.792   5.965
51755SOL     OW57161   9.946   6.333   0.543
51755SOL    HW157162   9.970   6.271   0.612
51755SOL    HW257163   9.851   6.335   0.543
51756SOL     OW57164   7.073  13.665  13.940
51756SOL    HW157165   7.126  13.611  13.882
51756SOL    HW257166   7.052  13.609  14.014
51757SOL     OW57167   6.509   4.092  13.732
51757SOL    HW157168   6.430   4.107  13.785
51757SOL    HW257169   6.564   4.035  13.787
51758SOL     OW57170   0.696   0.118   0.389
51758SOL    HW157171   0.760   0.062   0.345
51758SOL    HW257172   0.630   0.057   0.422
51759SOL     OW57173  10.276  10.622  13.808
51759SOL    HW157174  10.364  10.616  13.846
51759SOL    HW257175  10.228  10.550  13.850
51760SOL     OW57176   1.727  11.484   0.001
51760SOL    HW157177   1.734  11.407   0.058
51760SOL    HW257178   1.634  11.492  14.853
51761SOL     OW57179   3.690   3.768  13.123
51761SOL    HW157180   3.767   3.732  13.077
51761SOL    HW257181   3.721   3.851  13.159
51762SOL     OW57182  13.302   8.808  11.609
51762SOL    HW157183  13.316   8.786  11.701
51762SOL    HW257184  13.275   8.725  11.568
51763SOL     OW57185   6.873   4.440   3.611
51763SOL    HW157186   6.908   4.428   3.523
51763SOL    HW257187   6.823   4.522   3.606
51764SOL     OW57188  13.387  11.729   9.150
51764SOL    HW157189  13.415  11.767   9.067
51764SOL    HW257190  13.292  11.724   9.144
51765SOL     OW57191   4.897  11.008  11.979
51765SOL    HW157192   4.814  10.963  11.961
51765SOL    HW257193   4.959  10.937  11.995
51766SOL     OW57194  11.464  12.240   3.611
51766SOL    HW157195  11.422  12.190   3.681
51766SOL    HW257196  11.473  12.178   3.540
51767SOL     OW57197   2.489   6.550   1.980
51767SOL    HW157198   2.566   6.503   1.948
51767SOL    HW257199   2.524   6.631   2.017
51768SOL     OW57200   3.297   9.959  14.375
51768SOL    HW157201   3.383   9.919  14.388
51768SOL    HW257202   3.265   9.922  14.292
51769SOL     OW57203   4.259   7.460  12.291
51769SOL    HW157204   4.197   7.387  12.283
51769SOL    HW257205   4.335   7.421  12.334
51770SOL     OW57206   4.796   5.556  14.622
51770SOL    HW157207   4.759   5.478  14.663
51770SOL    HW257208   4.829   5.608  14.695
51771SOL     OW57209  11.075   5.178   4.860
51771SOL    HW157210  11.050   5.165   4.768
51771SOL    HW257211  11.001   5.224   4.899
51772SOL     OW57212   8.743  10.113   0.586
51772SOL    HW157213   8.786  10.163   0.655
51772SOL    HW257214   8.763  10.022   0.606
51773SOL     OW57215   1.583  11.029  12.721
51773SOL    HW157216   1.515  11.035  12.653
51773SOL    HW257217   1.547  11.078  12.795
51774SOL     OW57218   6.407   9.802  12.370
51774SOL    HW157219   6.489   9.843  12.343
51774SOL    HW257220   6.365   9.776  12.288
51775SOL     OW57221   5.256   1.389  12.432
51775SOL    HW157222   5.181   1.443  12.408
51775SOL    HW257223   5.316   1.398  12.358
51776SOL     OW57224   6.815   0.825   7.729
51776SOL    HW157225   6.897   0.824   7.779
51776SOL    HW257226   6.778   0.912   7.745
51777SOL     OW57227  11.366   7.031  14.739
51777SOL    HW157228  11.374   7.119  14.775
51777SOL    HW257229  11.453   7.011  14.705
51778SOL     OW57230   6.399  12.193  10.355
51778SOL    HW157231   6.420  12.286  10.367
51778SOL    HW257232   6.318  12.181  10.405
51779SOL     OW57233   4.693   9.409  14.820
51779SOL    HW157234   4.663   9.417   0.041
51779SOL    HW257235   4.769   9.350  14.825
51780SOL     OW57236   8.481   6.060   6.426
51780SOL    HW157237   8.572   6.086   6.416
51780SOL    HW257238   8.479   5.968   6.398
51781SOL     OW57239   4.973   2.654   1.692
51781SOL    HW157240   5.032   2.727   1.672
51781SOL    HW257241   4.986   2.592   1.620
51782SOL     OW57242  13.296   7.239   3.840
51782SOL    HW157243  13.290   7.251   3.746
51782SOL    HW257244  13.370   7.294   3.867
51783SOL     OW57245   4.908  13.389   2.820
51783SOL    HW157246   4.852  13.465   2.831
51783SOL    HW257247   4.977  13.399   2.885
51784SOL     OW57248  14.859   4.369   0.646
51784SOL    HW157249  14.852   4.441   0.709
51784SOL    HW257250   0.026   4.410   0.567
51785SOL     OW57251  14.649  13.348   8.031
51785SOL    HW157252  14.628  13.345   8.125
51785SOL    HW257253  14.715  13.417   8.024
51786SOL     OW57254  12.578   4.665  13.150
51786SOL    HW157255  12.566   4.759  13.162
51786SOL    HW257256  12.572   4.628  13.238
51787SOL     OW57257   5.582   6.507   7.395
51787SOL    HW157258   5.591   6.520   7.301
51787SOL    HW257259   5.491   6.530   7.414
51788SOL     OW57260   6.280   2.697   9.114
51788SOL    HW157261   6.295   2.788   9.138
51788SOL    HW257262   6.185   2.687   9.117
51789SOL     OW57263  10.660   0.780   6.236
51789SOL    HW157264  10.583   0.733   6.266
51789SOL    HW257265  10.643   0.871   6.259
51790SOL     OW57266   4.428  14.116   6.538
51790SOL    HW157267   4.470  14.140   6.456
51790SOL    HW257268   4.485  14.151   6.606
51791SOL     OW57269  14.472   1.542  13.780
51791SOL    HW157270  14.414   1.520  13.852
51791SOL    HW257271  14.546   1.586  13.821
51792SOL     OW57272  13.969   5.765  14.837
51792SOL    HW157273  13.878   5.767  14.807
51792SOL    HW257274  14.014   5.711  14.772
51793SOL     OW57275   8.335  12.269  12.597
51793SOL    HW157276   8.251  12.315  12.595
51793SOL    HW257277   8.359  12.259  12.505
51794SOL     OW57278  10.698  12.785   0.057
51794SOL    HW157279  10.729  12.873   0.037
51794SOL    HW257280  10.692  12.741  14.842
51795SOL     OW57281   8.306   4.412  14.697
51795SOL    HW157282   8.336   4.449  14.780
51795SOL    HW257283   8.230   4.359  14.720
51796SOL     OW57284  12.289   3.796  12.223
51796SOL    HW157285  12.228   3.816  12.294
51796SOL    HW257286  12.233   3.781  12.146
51797SOL     OW57287   3.107   3.545   1.535
51797SOL    HW157288   3.131   3.516   1.447
51797SOL    HW257289   3.052   3.475   1.570
51798SOL     OW57290   4.550   6.855   7.933
51798SOL    HW157291   4.642   6.833   7.952
51798SOL    HW257292   4.501   6.781   7.969
51799SOL     OW57293  13.166   9.600  10.003
51799SOL    HW157294  13.230   9.639  10.062
51799SOL    HW257295  13.188   9.507  10.001
51800SOL     OW57296   1.325   6.146   6.363
51800SOL    HW157297   1.283   6.061   6.376
51800SOL    HW257298   1.333   6.155   6.268
51801SOL     OW57299   6.382   5.209   9.518
51801SOL    HW157300   6.374   5.294   9.561
51801SOL    HW257301   6.297   5.168   9.528
51802SOL     OW57302   5.370   4.024  11.536
51802SOL    HW157303   5.283   3.998  11.565
51802SOL    HW257304   5.408   4.068  11.612
51803SOL     OW57305   8.810   9.847  12.850
51803SOL    HW157306   8.730   9.900  12.851
51803SOL    HW257307   8.803   9.793  12.771
51804SOL     OW57308  14.450  13.776   4.829
51804SOL    HW157309  14.508  13.742   4.762
51804SOL    HW257310  14.506  13.791   4.905
51805SOL     OW57311  14.043   2.751  12.917
51805SOL    HW157312  14.043   2.839  12.880
51805SOL    HW257313  14.117   2.707  12.875
51806SOL     OW57314   3.952   7.260   9.532
51806SOL    HW157315   3.893   7.318   9.580
51806SOL    HW257316   3.987   7.314   9.462
51807SOL     OW57317  10.424   4.077   9.410
51807SOL    HW157318  10.350   4.024   9.378
51807SOL    HW257319  10.410   4.164   9.371
51808SOL     OW57320  13.061  13.009   0.916
51808SOL    HW157321  13.140  13.058   0.894
51808SOL    HW257322  12.990  13.074   0.910
51809SOL     OW57323   6.342   9.221  13.959
51809SOL    HW157324   6.420   9.175  13.928
51809SOL    HW257325   6.373   9.310  13.978
51810SOL     OW57326  13.265  13.548  14.851
51810SOL    HW157327  13.203  13.541  14.778
51810SOL    HW257328  13.267  13.460   0.018
51811SOL     OW57329  10.112  10.537   3.787
51811SOL    HW157330  10.018  10.557   3.791
51811SOL    HW257331  10.155  10.618   3.815
51812SOL     OW57332   1.184   8.211   6.155
51812SOL    HW157333   1.103   8.178   6.117
51812SOL    HW257334   1.156   8.260   6.232
51813SOL     OW57335   4.614   7.640  11.680
51813SOL    HW157336   4.684   7.627  11.615
51813SOL    HW257337   4.649   7.603  11.761
51814SOL     OW57338  10.032   6.598   0.187
51814SOL    HW157339  10.090   6.638   0.122
51814SOL    HW257340   9.952   6.578   0.139
51815SOL     OW57341   6.423   7.169   2.769
51815SOL    HW157342   6.333   7.202   2.774
51815SOL    HW257343   6.477   7.246   2.782
51816SOL     OW57344   4.030   0.463   5.377
51816SOL    HW157345   4.060   0.509   5.455
51816SOL    HW257346   4.104   0.467   5.316
51817SOL     OW57347   9.813   6.430  13.563
51817SOL    HW157348   9.829   6.514  13.605
51817SOL    HW257349   9.720   6.432  13.539
51818SOL     OW57350   2.742   0.730   8.462
51818SOL    HW157351   2.675   0.719   8.528
51818SOL    HW257352   2.811   0.781   8.506
51819SOL     OW57353   2.800   8.051   2.416
51819SOL    HW157354   2.889   8.066   2.383
51819SOL    HW257355   2.789   7.956   2.412
51820SOL     OW57356   2.371  10.264   3.764
51820SOL    HW157357   2.458  10.302   3.780
51820SOL    HW257358   2.373  10.180   3.810
51821SOL     OW57359  14.755  10.110  12.402
51821SOL    HW157360  14.724  10.103  12.493
51821SOL    HW257361  14.679  10.086  12.349
51822SOL     OW57362  13.257   6.598  11.023
51822SOL    HW157363  13.334   6.544  11.009
51822SOL    HW257364  13.283   6.660  11.092
51823SOL     OW57365   9.576  12.584   9.042
51823SOL    HW157366   9.573  12.640   9.119
51823SOL    HW257367   9.590  12.644   8.969
51824SOL     OW57368  13.340   1.846   5.694
51824SOL    HW157369  13.272   1.781   5.678
51824SOL    HW257370  13.414   1.816   5.641
51825SOL     OW57371  12.597   8.239   4.597
51825SOL    HW157372  12.590   8.163   4.654
51825SOL    HW257373  12.509   8.278   4.599
51826SOL     OW57374   7.255  13.498  13.811
51826SOL    HW157375   7.331  13.475  13.864
51826SOL    HW257376   7.291  13.526  13.727
51827SOL     OW57377  11.635  10.971   1.266
51827SOL    HW157378  11.707  10.915   1.235
51827SOL    HW257379  11.562  10.950   1.208
51828SOL     OW57380   9.467  14.329   1.555
51828SOL    HW157381   9.458  14.350   1.648
51828SOL    HW257382   9.426  14.242   1.547
51829SOL     OW57383   1.786   3.838   9.687
51829SOL    HW157384   1.822   3.835   9.598
51829SOL    HW257385   1.851   3.791   9.740
51830SOL     OW57386   9.824  14.750   6.219
51830SOL    HW157387   9.915  14.740   6.248
51830SOL    HW257388   9.789  14.820   6.274
51831SOL     OW57389  11.159   0.880   2.659
51831SOL    HW157390  11.115   0.883   2.574
51831SOL    HW257391  11.134   0.795   2.697
51832SOL     OW57392   7.230  12.705   7.134
51832SOL    HW157393   7.252  12.730   7.224
51832SOL    HW257394   7.310  12.665   7.100
51833SOL     OW57395  14.817  12.876  13.041
51833SOL    HW157396  14.767  12.955  13.064
51833SOL    HW257397   0.038  12.907  13.033
51834SOL     OW57398   5.061   2.178  11.196
51834SOL    HW157399   5.046   2.264  11.235
51834SOL    HW257400   4.987   2.125  11.225
51835SOL     OW57401   7.002  13.460   7.157
51835SOL    HW157402   7.011  13.508   7.239
51835SOL    HW257403   7.014  13.368   7.181
51836SOL     OW57404   9.037   4.574  11.287
51836SOL    HW157405   9.089   4.608  11.360
51836SOL    HW257406   8.959   4.538  11.327
51837SOL     OW57407   6.450   2.483   8.654
51837SOL    HW157408   6.376   2.523   8.699
51837SOL    HW257409   6.431   2.493   8.561
51838SOL     OW57410   7.854  13.851  14.866
51838SOL    HW157411   7.922  13.903  14.822
51838SOL    HW257412   7.858  13.765  14.825
51839SOL     OW57413   2.861   6.352   9.275
51839SOL    HW157414   2.851   6.342   9.181
51839SOL    HW257415   2.941   6.404   9.286
51840SOL     OW57416   9.294  12.755   0.039
51840SOL    HW157417   9.322  12.711  14.828
51840SOL    HW257418   9.281  12.684   0.102
51841SOL     OW57419   6.484  11.062  14.282
51841SOL    HW157420   6.451  11.021  14.363
51841SOL    HW257421   6.509  11.150  14.308
51842SOL     OW57422  11.075   9.612   1.502
51842SOL    HW157423  10.994   9.610   1.451
51842SOL    HW257424  11.099   9.704   1.505
51843SOL     OW57425   7.825   4.401   6.418
51843SOL    HW157426   7.842   4.357   6.335
51843SOL    HW257427   7.868   4.346   6.484
51844SOL     OW57428   7.341  10.088   8.652
51844SOL    HW157429   7.351  10.100   8.746
51844SOL    HW257430   7.386  10.006   8.632
51845SOL     OW57431  14.840   5.381   9.498
51845SOL    HW157432  14.815   5.472   9.516
51845SOL    HW257433   0.058   5.388   9.461
51846SOL     OW57434  11.939  12.941  14.242
51846SOL    HW157435  11.989  12.943  14.160
51846SOL    HW257436  11.944  12.850  14.270
51847SOL     OW57437   0.738  11.955  10.739
51847SOL    HW157438   0.753  11.894  10.666
51847SOL    HW257439   0.823  11.994  10.755
51848SOL     OW57440   0.597   8.775   9.433
51848SOL    HW157441   0.565   8.842   9.374
51848SOL    HW257442   0.692   8.776   9.421
51849SOL     OW57443  13.324   1.331  11.510
51849SOL    HW157444  13.306   1.326  11.604
51849SOL    HW257445  13.241   1.308  11.469
51850SOL     OW57446  12.430   7.677   7.742
51850SOL    HW157447  12.410   7.645   7.830
51850SOL    HW257448  12.519   7.712   7.749
51851SOL     OW57449  13.316  13.131   4.516
51851SOL    HW157450  13.382  13.130   4.585
51851SOL    HW257451  13.362  13.102   4.437
51852SOL     OW57452  13.808   3.740   3.939
51852SOL    HW157453  13.780   3.690   3.863
51852SOL    HW257454  13.730   3.745   3.995
51853SOL     OW57455   1.414   0.713   2.508
51853SOL    HW157456   1.410   0.804   2.539
51853SOL    HW257457   1.482   0.714   2.440
51854SOL     OW57458   5.742  10.985  13.336
51854SOL    HW157459   5.663  10.944  13.373
51854SOL    HW257460   5.799  10.911  13.315
51855SOL     OW57461   2.953   1.586   7.871
51855SOL    HW157462   2.971   1.651   7.803
51855SOL    HW257463   2.859   1.571   7.866
51856SOL     OW57464   3.896  10.667  14.367
51856SOL    HW157465   3.830  10.687  14.300
51856SOL    HW257466   3.906  10.572  14.363
51857SOL     OW57467   3.113   6.875   5.783
51857SOL    HW157468   3.180   6.872   5.852
51857SOL    HW257469   3.162   6.860   5.702
51858SOL     OW57470   1.286   0.645  12.028
51858SOL    HW157471   1.380   0.640  12.045
51858SOL    HW257472   1.276   0.622  11.935
51859SOL     OW57473  12.330  13.561   7.430
51859SOL    HW157474  12.298  13.482   7.475
51859SOL    HW257475  12.319  13.631   7.494
51860SOL     OW57476   7.070   8.148   6.212
51860SOL    HW157477   7.059   8.233   6.169
51860SOL    HW257478   6.981   8.115   6.223
51861SOL     OW57479   4.970  13.248   8.253
51861SOL    HW157480   4.964  13.238   8.348
51861SOL    HW257481   5.028  13.324   8.241
51862SOL     OW57482   6.771  14.072   5.541
51862SOL    HW157483   6.849  14.074   5.598
51862SOL    HW257484   6.704  14.118   5.591
51863SOL     OW57485   9.369   9.155  13.614
51863SOL    HW157486   9.378   9.228  13.553
51863SOL    HW257487   9.288   9.173  13.662
51864SOL     OW57488   1.147  14.281   0.941
51864SOL    HW157489   1.177  14.334   0.866
51864SOL    HW257490   1.174  14.192   0.919
51865SOL     OW57491   0.323  12.354   5.822
51865SOL    HW157492   0.233  12.386   5.825
51865SOL    HW257493   0.330  12.314   5.735
51866SOL     OW57494   3.059   4.405  10.191
51866SOL    HW157495   3.085   4.447  10.109
51866SOL    HW257496   3.134   4.349  10.213
51867SOL     OW57497   7.832   7.675   0.360
51867SOL    HW157498   7.877   7.610   0.306
51867SOL    HW257499   7.742   7.641   0.369
51868SOL     OW57500  12.653   9.892  13.059
51868SOL    HW157501  12.680   9.800  13.056
51868SOL    HW257502  12.648   9.918  12.967
51869SOL     OW57503  13.892   2.324   0.473
51869SOL    HW157504  13.984   2.298   0.482
51869SOL    HW257505  13.843   2.242   0.479
51870SOL     OW57506   4.137   6.119   3.459
51870SOL    HW157507   4.175   6.197   3.418
51870SOL    HW257508   4.151   6.049   3.395
51871SOL     OW57509  14.042  13.461   6.011
51871SOL    HW157510  14.061  13.481   5.920
51871SOL    HW257511  14.078  13.373   6.025
51872SOL     OW57512  13.932   3.127  10.645
51872SOL    HW157513  13.989   3.107  10.571
51872SOL    HW257514  13.934   3.048  10.700
51873SOL     OW57515   9.946  14.736   0.196
51873SOL    HW157516   9.975  14.822   0.226
51873SOL    HW257517  10.004  14.674   0.240
51874SOL     OW57518   6.518   3.187  11.538
51874SOL    HW157519   6.609   3.208  11.560
51874SOL    HW257520   6.496   3.247  11.467
51875SOL     OW57521  14.819   7.368   9.912
51875SOL    HW157522  14.776   7.385   9.829
51875SOL    HW257523  14.817   7.272   9.921
51876SOL     OW57524   4.565  14.482   9.339
51876SOL    HW157525   4.557  14.577   9.342
51876SOL    HW257526   4.570  14.455   9.430
51877SOL     OW57527   9.905   3.210   1.686
51877SOL    HW157528   9.997   3.211   1.659
51877SOL    HW257529   9.886   3.301   1.710
51878SOL     OW57530   8.434   8.383   9.154
51878SOL    HW157531   8.362   8.342   9.201
51878SOL    HW257532   8.495   8.311   9.136
51879SOL     OW57533  14.369  14.513   3.995
51879SOL    HW157534  14.399  14.525   3.905
51879SOL    HW257535  14.442  14.472   4.041
51880SOL     OW57536   6.403  13.861   1.521
51880SOL    HW157537   6.317  13.845   1.561
51880SOL    HW257538   6.390  13.839   1.429
51881SOL     OW57539   1.472   0.066   5.073
51881SOL    HW157540   1.383   0.043   5.046
51881SOL    HW257541   1.516  14.851   5.085
51882SOL     OW57542   5.875  11.014   0.546
51882SOL    HW157543   5.940  10.950   0.573
51882SOL    HW257544   5.811  10.964   0.496
51883SOL     OW57545  10.018   2.466   4.351
51883SOL    HW157546  10.026   2.396   4.287
51883SOL    HW257547  10.057   2.429   4.431
51884SOL     OW57548  11.000   8.251  12.650
51884SOL    HW157549  11.057   8.287  12.717
51884SOL    HW257550  10.982   8.324  12.591
51885SOL     OW57551   8.406   3.207   2.536
51885SOL    HW157552   8.463   3.210   2.459
51885SOL    HW257553   8.364   3.293   2.538
51886SOL     OW57554  11.769   7.830   8.857
51886SOL    HW157555  11.718   7.749   8.857
51886SOL    HW257556  11.800   7.840   8.767
51887SOL     OW57557   8.509   7.368   9.969
51887SOL    HW157558   8.585   7.359   9.912
51887SOL    HW257559   8.545   7.388  10.055
51888SOL     OW57560   4.900   9.587  12.554
51888SOL    HW157561   4.906   9.681  12.538
51888SOL    HW257562   4.983   9.564  12.596
51889SOL     OW57563   0.550   2.563   9.129
51889SOL    HW157564   0.549   2.613   9.047
51889SOL    HW257565   0.460   2.534   9.141
51890SOL     OW57566  10.746  10.452   5.444
51890SOL    HW157567  10.831  10.409   5.442
51890SOL    HW257568  10.692  10.396   5.499
51891SOL     OW57569  11.441   9.921   4.931
51891SOL    HW157570  11.350   9.893   4.921
51891SOL    HW257571  11.453   9.930   5.025
51892SOL     OW57572   6.702   2.044   7.474
51892SOL    HW157573   6.643   2.092   7.415
51892SOL    HW257574   6.652   1.966   7.499
51893SOL     OW57575  12.174  11.460  11.578
51893SOL    HW157576  12.254  11.454  11.631
51893SOL    HW257577  12.117  11.392  11.614
51894SOL     OW57578   7.313   5.233  14.143
51894SOL    HW157579   7.292   5.148  14.104
51894SOL    HW257580   7.396   5.257  14.102
51895SOL     OW57581   5.846   9.441   3.717
51895SOL    HW157582   5.765   9.393   3.702
51895SOL    HW257583   5.854   9.499   3.641
51896SOL     OW57584  11.105   4.613   9.974
51896SOL    HW157585  11.150   4.590   9.893
51896SOL    HW257586  11.150   4.692  10.005
51897SOL     OW57587  12.554   9.980   0.846
51897SOL    HW157588  12.572   9.975   0.752
51897SOL    HW257589  12.573  10.071   0.869
51898SOL     OW57590   3.627   6.558  12.420
51898SOL    HW157591   3.595   6.518  12.340
51898SOL    HW257592   3.585   6.508  12.490
51899SOL     OW57593   6.056   0.747   5.219
51899SOL    HW157594   6.120   0.776   5.283
51899SOL    HW257595   5.985   0.811   5.225
51900SOL     OW57596  13.669  13.881   8.397
51900SOL    HW157597  13.724  13.817   8.353
51900SOL    HW257598  13.692  13.965   8.356
51901SOL     OW57599   6.172   9.166  13.739
51901SOL    HW157600   6.231   9.145  13.667
51901SOL    HW257601   6.229   9.181  13.814
51902SOL     OW57602   2.369  14.571   7.341
51902SOL    HW157603   2.410  14.509   7.281
51902SOL    HW257604   2.423  14.649   7.336
51903SOL     OW57605   5.768  14.612   0.868
51903SOL    HW157606   5.731  14.646   0.949
51903SOL    HW257607   5.692  14.596   0.812
51904SOL     OW57608  11.864   7.740   3.692
51904SOL    HW157609  11.846   7.647   3.705
51904SOL    HW257610  11.917   7.744   3.613
51905SOL     OW57611   2.967  12.943  12.026
51905SOL    HW157612   2.960  12.851  11.999
51905SOL    HW257613   2.931  12.944  12.115
51906SOL     OW57614   8.127   7.534   0.160
51906SOL    HW157615   8.047   7.499   0.200
51906SOL    HW257616   8.136   7.486   0.078
51907SOL     OW57617  12.318   9.731  13.320
51907SOL    HW157618  12.301   9.674  13.244
51907SOL    HW257619  12.294   9.819  13.290
51908SOL     OW57620   2.552  10.447   2.275
51908SOL    HW157621   2.554  10.489   2.360
51908SOL    HW257622   2.638  10.407   2.265
51909SOL     OW57623   5.699   1.950   2.713
51909SOL    HW157624   5.740   1.979   2.632
51909SOL    HW257625   5.745   1.999   2.782
51910SOL     OW57626   0.853   5.280  12.288
51910SOL    HW157627   0.780   5.267  12.349
51910SOL    HW257628   0.816   5.331  12.217
51911SOL     OW57629  10.052   2.574  14.418
51911SOL    HW157630  10.091   2.516  14.352
51911SOL    HW257631  10.045   2.659  14.374
51912SOL     OW57632   2.335   5.886  14.530
51912SOL    HW157633   2.401   5.826  14.563
51912SOL    HW257634   2.328   5.955  14.596
51913SOL     OW57635   7.669   6.558  13.890
51913SOL    HW157636   7.748   6.553  13.944
51913SOL    HW257637   7.654   6.468  13.862
51914SOL     OW57638   1.187   5.059   3.278
51914SOL    HW157639   1.116   5.045   3.340
51914SOL    HW257640   1.186   4.982   3.221
51915SOL     OW57641   8.985  13.394   1.135
51915SOL    HW157642   8.927  13.318   1.129
51915SOL    HW257643   8.963  13.447   1.059
51916SOL     OW57644  14.332  14.306  11.191
51916SOL    HW157645  14.370  14.233  11.142
51916SOL    HW257646  14.378  14.304  11.276
51917SOL     OW57647   6.507   6.064   4.672
51917SOL    HW157648   6.591   6.035   4.709
51917SOL    HW257649   6.458   5.983   4.657
51918SOL     OW57650  10.153   7.434   1.926
51918SOL    HW157651  10.199   7.508   1.887
51918SOL    HW257652  10.062   7.464   1.935
51919SOL     OW57653   6.744   9.314   9.907
51919SOL    HW157654   6.652   9.287   9.907
51919SOL    HW257655   6.745   9.395   9.856
51920SOL     OW57656   1.488   3.100   3.472
51920SOL    HW157657   1.559   3.050   3.430
51920SOL    HW257658   1.409   3.048   3.455
51921SOL     OW57659  11.382  14.364   1.388
51921SOL    HW157660  11.474  14.343   1.406
51921SOL    HW257661  11.363  14.319   1.306
51922SOL     OW57662  11.275   3.461   0.881
51922SOL    HW157663  11.302   3.418   0.962
51922SOL    HW257664  11.197   3.511   0.905
51923SOL     OW57665   3.133   2.263   5.709
51923SOL    HW157666   3.207   2.206   5.731
51923SOL    HW257667   3.061   2.232   5.765
51924SOL     OW57668  11.438  11.363  12.522
51924SOL    HW157669  11.360  11.311  12.544
51924SOL    HW257670  11.490  11.363  12.603
51925SOL     OW57671  14.662   9.802  11.642
51925SOL    HW157672  14.717   9.732  11.679
51925SOL    HW257673  14.627   9.847  11.719
51926SOL     OW57674  12.617  10.522   9.662
51926SOL    HW157675  12.708  10.498   9.644
51926SOL    HW257676  12.624  10.591   9.729
51927SOL     OW57677   1.606   0.266  11.195
51927SOL    HW157678   1.679   0.317  11.162
51927SOL    HW257679   1.528   0.317  11.173
51928SOL     OW57680   4.535   0.026   9.675
51928SOL    HW157681   4.608   0.087   9.677
51928SOL    HW257682   4.464   0.071   9.719
51929SOL     OW57683   4.680   9.915   6.342
51929SOL    HW157684   4.735   9.871   6.406
51929SOL    HW257685   4.597   9.931   6.388
51930SOL     OW57686   6.206  12.947   6.014
51930SOL    HW157687   6.225  12.983   6.101
51930SOL    HW257688   6.199  13.023   5.957
51931SOL     OW57689   3.790   8.709  13.118
51931SOL    HW157690   3.829   8.735  13.201
51931SOL    HW257691   3.727   8.778  13.098
51932SOL     OW57692  11.788  11.466   0.698
51932SOL    HW157693  11.824  11.380   0.680
51932SOL    HW257694  11.833  11.525   0.637
51933SOL     OW57695   8.377   7.837   3.028
51933SOL    HW157696   8.335   7.917   3.057
51933SOL    HW257697   8.444   7.866   2.965
51934SOL     OW57698   4.945  13.971   1.301
51934SOL    HW157699   4.978  14.039   1.359
51934SOL    HW257700   4.869  14.012   1.258
51935SOL     OW57701  11.720  12.031  10.040
51935SOL    HW157702  11.653  12.019  10.108
51935SOL    HW257703  11.701  12.118  10.004
51936SOL     OW57704   2.385   6.890   8.137
51936SOL    HW157705   2.472   6.861   8.166
51936SOL    HW257706   2.324   6.843   8.194
51937SOL     OW57707   5.878  11.160  11.344
51937SOL    HW157708   5.882  11.224  11.272
51937SOL    HW257709   5.816  11.199  11.406
51938SOL     OW57710   5.597  11.628  10.015
51938SOL    HW157711   5.557  11.542  10.003
51938SOL    HW257712   5.560  11.660  10.098
51939SOL     OW57713   2.479  14.381   7.177
51939SOL    HW157714   2.551  14.399   7.117
51939SOL    HW257715   2.401  14.385   7.122
51940SOL     OW57716   8.507   0.525   7.513
51940SOL    HW157717   8.454   0.525   7.434
51940SOL    HW257718   8.594   0.553   7.484
51941SOL     OW57719   5.298  13.426   1.522
51941SOL    HW157720   5.387  13.411   1.553
51941SOL    HW257721   5.307  13.496   1.457
51942SOL     OW57722   9.804  10.956   6.426
51942SOL    HW157723   9.894  10.987   6.414
51942SOL    HW257724   9.779  10.990   6.513
51943SOL     OW57725   9.393  12.705  12.315
51943SOL    HW157726   9.332  12.655  12.261
51943SOL    HW257727   9.359  12.794  12.314
51944SOL     OW57728  13.883  13.849   9.087
51944SOL    HW157729  13.956  13.888   9.135
51944SOL    HW257730  13.862  13.770   9.136
51945SOL     OW57731   7.369   2.901   0.809
51945SOL    HW157732   7.391   2.826   0.866
51945SOL    HW257733   7.405   2.977   0.855
51946SOL     OW57734   2.580  12.318   6.078
51946SOL    HW157735   2.657  12.366   6.049
51946SOL    HW257736   2.599  12.295   6.169
51947SOL     OW57737   9.792   3.533   1.339
51947SOL    HW157738   9.766   3.553   1.429
51947SOL    HW257739   9.816   3.617   1.301
51948SOL     OW57740  13.498   8.097   9.355
51948SOL    HW157741  13.507   8.002   9.354
51948SOL    HW257742  13.408   8.112   9.383
51949SOL     OW57743   5.964   0.848  10.199
51949SOL    HW157744   5.880   0.882  10.169
51949SOL    HW257745   5.946   0.757  10.224
51950SOL     OW57746   9.790   0.831   1.977
51950SOL    HW157747   9.853   0.886   1.930
51950SOL    HW257748   9.805   0.743   1.943
51951SOL     OW57749   2.232   6.434  13.907
51951SOL    HW157750   2.253   6.352  13.863
51951SOL    HW257751   2.303   6.493  13.883
51952SOL     OW57752   9.205   1.801  13.214
51952SOL    HW157753   9.184   1.715  13.177
51952SOL    HW257754   9.249   1.847  13.143
51953SOL     OW57755   4.471  10.734   0.736
51953SOL    HW157756   4.530  10.709   0.664
51953SOL    HW257757   4.492  10.826   0.753
51954SOL     OW57758   1.984   5.417  14.165
51954SOL    HW157759   2.023   5.448  14.083
51954SOL    HW257760   1.966   5.497  14.215
51955SOL     OW57761  10.006   7.089  12.562
51955SOL    HW157762  10.081   7.128  12.517
51955SOL    HW257763   9.967   7.161  12.611
51956SOL     OW57764  10.557  11.370  10.906
51956SOL    HW157765  10.482  11.397  10.854
51956SOL    HW257766  10.526  11.293  10.954
51957SOL     OW57767   5.246   8.575   1.952
51957SOL    HW157768   5.259   8.652   2.006
51957SOL    HW257769   5.291   8.504   1.999
51958SOL     OW57770   7.129   8.900   9.851
51958SOL    HW157771   7.043   8.902   9.893
51958SOL    HW257772   7.191   8.910   9.924
51959SOL     OW57773   3.432   6.699   2.860
51959SOL    HW157774   3.454   6.791   2.873
51959SOL    HW257775   3.341   6.691   2.890
51960SOL     OW57776  11.225   3.802   9.983
51960SOL    HW157777  11.287   3.736  10.012
51960SOL    HW257778  11.195   3.771   9.898
51961SOL     OW57779   4.940  12.275  14.351
51961SOL    HW157780   4.922  12.186  14.320
51961SOL    HW257781   5.030  12.291  14.325
51962SOL     OW57782   5.766   8.954   3.292
51962SOL    HW157783   5.854   8.917   3.283
51962SOL    HW257784   5.716   8.884   3.334
51963SOL     OW57785   6.885   9.439   9.579
51963SOL    HW157786   6.900   9.533   9.570
51963SOL    HW257787   6.834   9.431   9.660
51964SOL     OW57788   4.682  12.264   0.844
51964SOL    HW157789   4.710  12.172   0.843
51964SOL    HW257790   4.609  12.267   0.782
51965SOL     OW57791   7.536  11.311   7.362
51965SOL    HW157792   7.519  11.382   7.424
51965SOL    HW257793   7.457  11.257   7.366
51966SOL     OW57794   5.481   8.823   4.100
51966SOL    HW157795   5.463   8.843   4.008
51966SOL    HW257796   5.395   8.802   4.137
51967SOL     OW57797  10.623   2.365  11.242
51967SOL    HW157798  10.718   2.354  11.254
51967SOL    HW257799  10.587   2.355  11.330
51968SOL     OW57800  12.796   2.207   0.337
51968SOL    HW157801  12.706   2.227   0.311
51968SOL    HW257802  12.787   2.149   0.412
51969SOL     OW57803   7.844   5.420   0.058
51969SOL    HW157804   7.878   5.332   0.048
51969SOL    HW257805   7.751   5.409   0.076
51970SOL     OW57806   8.879   6.680  14.127
51970SOL    HW157807   8.960   6.730  14.137
51970SOL    HW257808   8.840   6.714  14.046
51971SOL     OW57809   6.904   2.662   0.267
51971SOL    HW157810   6.817   2.639   0.300
51971SOL    HW257811   6.939   2.723   0.332
51972SOL     OW57812   7.694   8.940   2.269
51972SOL    HW157813   7.687   8.870   2.333
51972SOL    HW257814   7.778   8.925   2.225
51973SOL     OW57815   8.136   7.579   6.585
51973SOL    HW157816   8.133   7.490   6.552
51973SOL    HW257817   8.048   7.614   6.569
51974SOL     OW57818   7.719   9.369   0.249
51974SOL    HW157819   7.815   9.369   0.247
51974SOL    HW257820   7.696   9.297   0.307
51975SOL     OW57821   7.249   1.731  10.301
51975SOL    HW157822   7.243   1.651  10.248
51975SOL    HW257823   7.288   1.796  10.243
51976SOL     OW57824   7.564  11.356   4.989
51976SOL    HW157825   7.606  11.337   5.073
51976SOL    HW257826   7.470  11.348   5.007
51977SOL     OW57827  14.540  11.892   5.649
51977SOL    HW157828  14.509  11.948   5.578
51977SOL    HW257829  14.609  11.943   5.691
51978SOL     OW57830   7.582  13.938   1.031
51978SOL    HW157831   7.606  13.955   1.122
51978SOL    HW257832   7.633  13.861   1.007
51979SOL     OW57833   2.455   2.905   1.313
51979SOL    HW157834   2.402   2.966   1.365
51979SOL    HW257835   2.476   2.953   1.234
51980SOL     OW57836  11.144  11.433  14.359
51980SOL    HW157837  11.079  11.487  14.404
51980SOL    HW257838  11.206  11.495  14.323
51981SOL     OW57839   0.459   6.703  14.726
51981SOL    HW157840   0.377   6.696  14.776
51981SOL    HW257841   0.528   6.697  14.792
51982SOL     OW57842   5.900   9.666   3.953
51982SOL    HW157843   5.915   9.596   3.890
51982SOL    HW257844   5.964   9.733   3.930
51983SOL     OW57845   1.318   8.627  12.227
51983SOL    HW157846   1.395   8.656  12.276
51983SOL    HW257847   1.246   8.678  12.263
51984SOL     OW57848   7.410  11.695  10.982
51984SOL    HW157849   7.435  11.747  11.057
51984SOL    HW257850   7.434  11.605  11.005
51985SOL     OW57851   2.619   1.874   6.970
51985SOL    HW157852   2.612   1.783   6.941
51985SOL    HW257853   2.670   1.917   6.901
51986SOL     OW57854   3.591   6.781   2.380
51986SOL    HW157855   3.564   6.867   2.413
51986SOL    HW257856   3.629   6.737   2.456
51987SOL     OW57857   7.256   8.438  11.900
51987SOL    HW157858   7.325   8.504  11.901
51987SOL    HW257859   7.287   8.373  11.836
51988SOL     OW57860   2.410  11.340   6.618
51988SOL    HW157861   2.440  11.427   6.590
51988SOL    HW257862   2.352  11.358   6.692
51989SOL     OW57863   6.884   5.040   0.817
51989SOL    HW157864   6.827   4.964   0.809
51989SOL    HW257865   6.849   5.102   0.753
51990SOL     OW57866  13.988   8.365   5.486
51990SOL    HW157867  13.951   8.374   5.398
51990SOL    HW257868  14.050   8.437   5.493
51991SOL     OW57869   6.966   2.272  10.328
51991SOL    HW157870   6.991   2.229  10.410
51991SOL    HW257871   6.998   2.214  10.259
51992SOL     OW57872   7.696  12.478   8.889
51992SOL    HW157873   7.742  12.456   8.970
51992SOL    HW257874   7.604  12.487   8.915
51993SOL     OW57875   4.249   5.202  14.779
51993SOL    HW157876   4.261   5.148  14.858
51993SOL    HW257877   4.256   5.292  14.810
51994SOL     OW57878   2.917   8.402   6.093
51994SOL    HW157879   2.932   8.470   6.027
51994SOL    HW257880   2.993   8.345   6.086
51995SOL     OW57881   2.597   5.649   5.377
51995SOL    HW157882   2.512   5.629   5.418
51995SOL    HW257883   2.574   5.702   5.300
51996SOL     OW57884  13.956   1.029  11.981
51996SOL    HW157885  13.895   0.958  11.961
51996SOL    HW257886  14.008   0.996  12.055
51997SOL     OW57887  13.666   1.379  14.205
51997SOL    HW157888  13.646   1.317  14.276
51997SOL    HW257889  13.595   1.442  14.207
51998SOL     OW57890   1.191  10.124  11.602
51998SOL    HW157891   1.278  10.156  11.579
51998SOL    HW257892   1.173  10.164  11.687
51999SOL     OW57893   8.354   0.728   5.744
51999SOL    HW157894   8.290   0.684   5.800
51999SOL    HW257895   8.303   0.797   5.700
52000SOL     OW57896   8.179  13.606   0.403
52000SOL    HW157897   8.119  13.648   0.342
52000SOL    HW257898   8.135  13.524   0.428
52001SOL     OW57899  10.463   0.204   0.199
52001SOL    HW157900  10.545   0.242   0.168
52001SOL    HW257901  10.462   0.222   0.293
52002SOL     OW57902  14.427   9.542  12.013
52002SOL    HW157903  14.401   9.450  12.003
52002SOL    HW257904  14.373   9.575  12.085
52003SOL     OW57905   4.397  11.657   9.431
52003SOL    HW157906   4.477  11.626   9.387
52003SOL    HW257907   4.395  11.610   9.514
52004SOL     OW57908  14.704   2.441   6.432
52004SOL    HW157909  14.764   2.366   6.433
52004SOL    HW257910  14.711   2.476   6.343
52005SOL     OW57911  14.410  14.274  11.473
52005SOL    HW157912  14.318  14.251  11.484
52005SOL    HW257913  14.439  14.300  11.561
52006SOL     OW57914   8.080  11.114  10.670
52006SOL    HW157915   7.991  11.106  10.634
52006SOL    HW257916   8.124  11.176  10.612
52007SOL     OW57917   0.508   4.564   2.026
52007SOL    HW157918   0.434   4.621   2.046
52007SOL    HW257919   0.468   4.480   2.003
52008SOL     OW57920  13.676  13.818   1.784
52008SOL    HW157921  13.609  13.750   1.799
52008SOL    HW257922  13.730  13.782   1.714
52009SOL     OW57923  13.056  13.597   1.921
52009SOL    HW157924  13.094  13.509   1.911
52009SOL    HW257925  13.104  13.651   1.860
52010SOL     OW57926  14.163  12.738   5.213
52010SOL    HW157927  14.094  12.761   5.275
52010SOL    HW257928  14.198  12.654   5.245
52011SOL     OW57929   4.525  13.758   3.995
52011SOL    HW157930   4.588  13.778   3.925
52011SOL    HW257931   4.572  13.775   4.076
52012SOL     OW57932   9.343   7.644  13.689
52012SOL    HW157933   9.350   7.700  13.767
52012SOL    HW257934   9.254   7.608  13.694
52013SOL     OW57935  12.865  11.797   8.497
52013SOL    HW157936  12.834  11.887   8.507
52013SOL    HW257937  12.898  11.773   8.583
52014SOL     OW57938  10.192  10.416   3.310
52014SOL    HW157939  10.213  10.323   3.301
52014SOL    HW257940  10.133  10.420   3.386
52015SOL     OW57941  10.963   0.179   7.087
52015SOL    HW157942  10.993   0.266   7.060
52015SOL    HW257943  10.867   0.186   7.087
52016SOL     OW57944  13.451  13.372   5.380
52016SOL    HW157945  13.434  13.464   5.363
52016SOL    HW257946  13.391  13.350   5.452
52017SOL     OW57947   0.221   2.719   9.614
52017SOL    HW157948   0.308   2.757   9.606
52017SOL    HW257949   0.203   2.721   9.708
52018SOL     OW57950   8.253  14.227  12.402
52018SOL    HW157951   8.240  14.133  12.410
52018SOL    HW257952   8.274  14.241  12.309
52019SOL     OW57953   6.197   4.472   5.081
52019SOL    HW157954   6.123   4.516   5.038
52019SOL    HW257955   6.242   4.427   5.010
52020SOL     OW57956   6.562   5.419   8.122
52020SOL    HW157957   6.479   5.401   8.077
52020SOL    HW257958   6.563   5.358   8.196
52021SOL     OW57959   1.115   2.921   1.068
52021SOL    HW157960   1.035   2.903   1.118
52021SOL    HW257961   1.084   2.941   0.980
52022SOL     OW57962   3.789  11.035   1.827
52022SOL    HW157963   3.776  10.957   1.881
52022SOL    HW257964   3.747  11.106   1.876
52023SOL     OW57965   7.059  13.736   7.083
52023SOL    HW157966   6.978  13.771   7.045
52023SOL    HW257967   7.051  13.641   7.072
52024SOL     OW57968   4.770  14.232  12.461
52024SOL    HW157969   4.751  14.312  12.511
52024SOL    HW257970   4.694  14.222  12.404
52025SOL     OW57971   1.435   2.032   8.806
52025SOL    HW157972   1.353   2.070   8.774
52025SOL    HW257973   1.442   2.061   8.896
52026SOL     OW57974   4.863  11.039  12.341
52026SOL    HW157975   4.858  11.070  12.431
52026SOL    HW257976   4.952  11.004  12.333
52027SOL     OW57977   0.056   4.793   3.051
52027SOL    HW157978   0.058   4.873   3.104
52027SOL    HW257979   0.045   4.723   3.115
52028SOL     OW57980   9.060   6.183   0.786
52028SOL    HW157981   9.000   6.122   0.828
52028SOL    HW257982   9.141   6.175   0.836
52029SOL     OW57983  13.628  10.675   3.609
52029SOL    HW157984  13.698  10.662   3.545
52029SOL    HW257985  13.561  10.611   3.585
52030SOL     OW57986   2.676   4.665  10.756
52030SOL    HW157987   2.633   4.599  10.701
52030SOL    HW257988   2.745   4.617  10.802
52031SOL     OW57989  12.826   7.849   4.749
52031SOL    HW157990  12.842   7.765   4.705
52031SOL    HW257991  12.821   7.913   4.678
52032SOL     OW57992   0.262   5.184   6.753
52032SOL    HW157993   0.267   5.187   6.849
52032SOL    HW257994   0.353   5.186   6.725
52033SOL     OW57995   9.355  13.975   4.947
52033SOL    HW157996   9.343  13.887   4.912
52033SOL    HW257997   9.269  13.999   4.983
52034SOL     OW57998  11.171   6.291   2.545
52034SOL    HW157999  11.233   6.328   2.482
52034SOL    HW258000  11.085   6.316   2.511
52035SOL     OW58001  14.254   8.097  13.625
52035SOL    HW158002  14.186   8.148  13.580
52035SOL    HW258003  14.211   8.014  13.646
52036SOL     OW58004   0.210  13.001  12.047
52036SOL    HW158005   0.161  13.003  12.129
52036SOL    HW258006   0.163  12.938  11.993
52037SOL     OW58007   3.344  12.718   7.159
52037SOL    HW158008   3.417  12.770   7.192
52037SOL    HW258009   3.279  12.783   7.131
52038SOL     OW58010  14.542   4.444   3.169
52038SOL    HW158011  14.522   4.510   3.102
52038SOL    HW258012  14.456   4.407   3.193
52039SOL     OW58013   5.965   7.886  11.661
52039SOL    HW158014   6.058   7.910  11.663
52039SOL    HW258015   5.957   7.816  11.726
52040SOL     OW58016  10.774   9.140   9.167
52040SOL    HW158017  10.724   9.202   9.114
52040SOL    HW258018  10.866   9.162   9.149
52041SOL     OW58019  14.018   3.323  11.751
52041SOL    HW158020  14.070   3.256  11.708
52041SOL    HW258021  14.015   3.296  11.843
52042SOL     OW58022   5.421  14.699   7.400
52042SOL    HW158023   5.403  14.747   7.318
52042SOL    HW258024   5.369  14.745   7.466
52043SOL     OW58025   9.226   1.440   1.989
52043SOL    HW158026   9.313   1.421   2.022
52043SOL    HW258027   9.239   1.508   1.923
52044SOL     OW58028   9.065   4.293   9.037
52044SOL    HW158029   9.097   4.250   8.958
52044SOL    HW258030   9.113   4.376   9.041
52045SOL     OW58031   4.290   5.720   9.261
52045SOL    HW158032   4.271   5.659   9.190
52045SOL    HW258033   4.213   5.714   9.318
52046SOL     OW58034  13.832   7.716  12.154
52046SOL    HW158035  13.826   7.621  12.143
52046SOL    HW258036  13.777   7.752  12.085
52047SOL     OW58037  14.847  11.297   8.249
52047SOL    HW158038  14.865  11.327   8.160
52047SOL    HW258039  14.795  11.368   8.288
52048SOL     OW58040   7.054  13.114  11.170
52048SOL    HW158041   7.078  13.183  11.233
52048SOL    HW258042   7.034  13.038  11.225
52049SOL     OW58043  14.673   0.896   4.376
52049SOL    HW158044  14.623   0.956   4.432
52049SOL    HW258045  14.659   0.810   4.415
52050SOL     OW58046   7.971  14.150  10.702
52050SOL    HW158047   8.061  14.156  10.734
52050SOL    HW258048   7.919  14.131  10.780
52051SOL     OW58049   0.107   4.755   0.062
52051SOL    HW158050   0.069   4.832   0.019
52051SOL    HW258051   0.201   4.761   0.044
52052SOL     OW58052   5.972   1.249   6.318
52052SOL    HW158053   5.910   1.253   6.244
52052SOL    HW258054   5.992   1.156   6.327
52053SOL     OW58055   9.131  14.698   9.190
52053SOL    HW158056   9.070  14.736   9.127
52053SOL    HW258057   9.217  14.730   9.164
52054SOL     OW58058  11.832  11.783   8.208
52054SOL    HW158059  11.864  11.832   8.132
52054SOL    HW258060  11.763  11.727   8.172
52055SOL     OW58061   7.459   7.714  12.585
52055SOL    HW158062   7.479   7.625  12.614
52055SOL    HW258063   7.465   7.766  12.665
52056SOL     OW58064  12.900   8.221   0.541
52056SOL    HW158065  12.900   8.195   0.449
52056SOL    HW258066  12.958   8.159   0.584
52057SOL     OW58067   4.286   8.441  10.987
52057SOL    HW158068   4.279   8.466  11.079
52057SOL    HW258069   4.197   8.415  10.962
52058SOL     OW58070   1.958  12.615   3.541
52058SOL    HW158071   1.913  12.555   3.482
52058SOL    HW258072   2.020  12.662   3.485
52059SOL     OW58073   0.142   9.555  11.229
52059SOL    HW158074   0.046   9.551  11.230
52059SOL    HW258075   0.163   9.620  11.163
52060SOL     OW58076   1.107   6.103   1.614
52060SOL    HW158077   1.062   6.031   1.572
52060SOL    HW258078   1.175   6.062   1.667
52061SOL     OW58079   5.528   8.405   3.765
52061SOL    HW158080   5.572   8.472   3.817
52061SOL    HW258081   5.449   8.383   3.814
52062SOL     OW58082   7.316   4.746   2.192
52062SOL    HW158083   7.304   4.807   2.118
52062SOL    HW258084   7.365   4.797   2.256
52063SOL     OW58085  14.149   5.787   0.161
52063SOL    HW158086  14.181   5.705   0.124
52063SOL    HW258087  14.058   5.793   0.131
52064SOL     OW58088  11.559   5.810   8.866
52064SOL    HW158089  11.575   5.883   8.807
52064SOL    HW258090  11.479   5.769   8.832
52065SOL     OW58091   8.621   3.701  10.872
52065SOL    HW158092   8.565   3.700  10.949
52065SOL    HW258093   8.683   3.772  10.888
52066SOL     OW58094  11.179  11.298   3.725
52066SOL    HW158095  11.226  11.276   3.645
52066SOL    HW258096  11.175  11.216   3.774
52067SOL     OW58097  13.676   2.915   4.235
52067SOL    HW158098  13.733   2.905   4.158
52067SOL    HW258099  13.734   2.898   4.309
52068SOL     OW58100   4.747   1.861   4.976
52068SOL    HW158101   4.714   1.772   4.988
52068SOL    HW258102   4.733   1.879   4.883
52069SOL     OW58103  11.074   4.455  10.326
52069SOL    HW158104  11.163   4.427  10.304
52069SOL    HW258105  11.077   4.550  10.319
52070SOL     OW58106   0.731   6.559   7.723
52070SOL    HW158107   0.750   6.465   7.719
52070SOL    HW258108   0.644   6.568   7.684
52071SOL     OW58109   9.516   1.810   9.528
52071SOL    HW158110   9.469   1.798   9.610
52071SOL    HW258111   9.455   1.781   9.461
52072SOL     OW58112   8.116   5.657   6.179
52072SOL    HW158113   8.021   5.650   6.172
52072SOL    HW258114   8.132   5.751   6.193
52073SOL     OW58115   5.841   8.138   1.888
52073SOL    HW158116   5.930   8.153   1.919
52073SOL    HW258117   5.784   8.165   1.960
52074SOL     OW58118   0.007  11.317  11.892
52074SOL    HW158119  14.795  11.277  11.921
52074SOL    HW258120   0.074  11.251  11.908
52075SOL     OW58121   4.290   2.683   1.128
52075SOL    HW158122   4.360   2.625   1.098
52075SOL    HW258123   4.296   2.681   1.223
52076SOL     OW58124   5.375   8.093   2.847
52076SOL    HW158125   5.287   8.090   2.811
52076SOL    HW258126   5.375   8.169   2.906
52077SOL     OW58127   5.372  11.482   5.593
52077SOL    HW158128   5.378  11.542   5.667
52077SOL    HW258129   5.462  11.453   5.579
52078SOL     OW58130   4.391   0.992  12.216
52078SOL    HW158131   4.295   0.994  12.217
52078SOL    HW258132   4.416   1.066  12.161
52079SOL     OW58133   8.642   9.821   3.982
52079SOL    HW158134   8.594   9.824   4.065
52079SOL    HW258135   8.620   9.904   3.939
52080SOL     OW58136   7.628   3.665   4.163
52080SOL    HW158137   7.599   3.629   4.079
52080SOL    HW258138   7.548   3.678   4.213
52081SOL     OW58139   5.473   6.000  14.131
52081SOL    HW158140   5.527   5.979  14.055
52081SOL    HW258141   5.494   6.091  14.152
52082SOL     OW58142   8.179  11.467   3.576
52082SOL    HW158143   8.161  11.561   3.567
52082SOL    HW258144   8.168  11.432   3.487
52083SOL     OW58145  10.367   9.353  13.535
52083SOL    HW158146  10.319   9.351  13.452
52083SOL    HW258147  10.341   9.273  13.580
52084SOL     OW58148   0.839   5.431  10.940
52084SOL    HW158149   0.818   5.448  10.848
52084SOL    HW258150   0.913   5.489  10.959
52085SOL     OW58151   8.340   8.246   9.378
52085SOL    HW158152   8.376   8.332   9.402
52085SOL    HW258153   8.399   8.183   9.418
52086SOL     OW58154  13.526  10.965  12.705
52086SOL    HW158155  13.510  10.892  12.646
52086SOL    HW258156  13.463  10.954  12.776
52087SOL     OW58157   1.130  12.918   0.484
52087SOL    HW158158   1.153  12.869   0.405
52087SOL    HW258159   1.156  12.860   0.556
52088SOL     OW58160   9.984   7.728   0.588
52088SOL    HW158161   9.974   7.720   0.683
52088SOL    HW258162  10.056   7.669   0.566
52089SOL     OW58163   0.155   1.119   0.199
52089SOL    HW158164   0.079   1.110   0.141
52089SOL    HW258165   0.136   1.061   0.273
52090SOL     OW58166   2.303   8.296  10.425
52090SOL    HW158167   2.324   8.389  10.434
52090SOL    HW258168   2.363   8.253  10.486
52091SOL     OW58169   7.934   8.169  11.468
52091SOL    HW158170   7.848   8.128  11.460
52091SOL    HW258171   7.976   8.123  11.541
52092SOL     OW58172  11.086   8.655  12.346
52092SOL    HW158173  11.058   8.745  12.363
52092SOL    HW258174  11.099   8.652  12.251
52093SOL     OW58175  14.401   9.246   9.286
52093SOL    HW158176  14.460   9.174   9.309
52093SOL    HW258177  14.318   9.204   9.267
52094SOL     OW58178  11.308   9.907   7.076
52094SOL    HW158179  11.332   9.995   7.049
52094SOL    HW258180  11.226   9.918   7.124
52095SOL     OW58181   7.483   9.098   6.178
52095SOL    HW158182   7.523   9.035   6.118
52095SOL    HW258183   7.445   9.165   6.120
52096SOL     OW58184   8.195   7.945   9.035
52096SOL    HW158185   8.163   7.975   8.949
52096SOL    HW258186   8.287   7.922   9.020
52097SOL     OW58187   4.585   3.015   7.225
52097SOL    HW158188   4.499   3.040   7.191
52097SOL    HW258189   4.578   3.024   7.320
52098SOL     OW58190   4.652   0.788  14.078
52098SOL    HW158191   4.557   0.785  14.064
52098SOL    HW258192   4.663   0.833  14.162
52099SOL     OW58193   3.112  12.479   4.389
52099SOL    HW158194   3.055  12.503   4.315
52099SOL    HW258195   3.126  12.561   4.436
52100SOL     OW58196  14.802  14.866  12.411
52100SOL    HW158197  14.744   0.008  12.486
52100SOL    HW258198  14.752   0.030  12.337
52101SOL     OW58199   8.896  12.774  13.778
52101SOL    HW158200   8.963  12.757  13.712
52101SOL    HW258201   8.924  12.856  13.819
52102SOL     OW58202   6.960  12.246   6.604
52102SOL    HW158203   6.951  12.308   6.532
52102SOL    HW258204   7.053  12.249   6.628
52103SOL     OW58205  12.246  12.648  13.134
52103SOL    HW158206  12.278  12.651  13.044
52103SOL    HW258207  12.215  12.737  13.151
52104SOL     OW58208  10.390   3.456   9.406
52104SOL    HW158209  10.391   3.517   9.332
52104SOL    HW258210  10.481   3.453   9.436
52105SOL     OW58211  11.502  11.345   0.758
52105SOL    HW158212  11.493  11.440   0.753
52105SOL    HW258213  11.596  11.331   0.768
52106SOL     OW58214  12.230   9.130   9.173
52106SOL    HW158215  12.167   9.106   9.240
52106SOL    HW258216  12.315   9.110   9.211
52107SOL     OW58217   3.454  11.479   8.267
52107SOL    HW158218   3.371  11.430   8.266
52107SOL    HW258219   3.519  11.416   8.236
52108SOL     OW58220   4.717   6.823  11.579
52108SOL    HW158221   4.811   6.826  11.564
52108SOL    HW258222   4.678   6.826  11.491
52109SOL     OW58223  12.524   4.909  14.512
52109SOL    HW158224  12.532   4.874  14.423
52109SOL    HW258225  12.432   4.934  14.519
52110SOL     OW58226   7.309  11.279   2.413
52110SOL    HW158227   7.344  11.361   2.378
52110SOL    HW258228   7.289  11.298   2.505
52111SOL     OW58229  12.309   9.021   8.933
52111SOL    HW158230  12.375   8.952   8.931
52111SOL    HW258231  12.315   9.057   9.021
52112SOL     OW58232  12.190   1.100  10.885
52112SOL    HW158233  12.274   1.128  10.851
52112SOL    HW258234  12.192   1.123  10.978
52113SOL     OW58235  14.466   0.933   9.466
52113SOL    HW158236  14.519   0.859   9.496
52113SOL    HW258237  14.415   0.959   9.543
52114SOL     OW58238   2.824   1.029   3.912
52114SOL    HW158239   2.769   1.105   3.892
52114SOL    HW258240   2.782   0.988   3.988
52115SOL     OW58241   1.536   1.661  11.739
52115SOL    HW158242   1.492   1.627  11.817
52115SOL    HW258243   1.465   1.692  11.682
52116SOL     OW58244   7.059  11.874   4.805
52116SOL    HW158245   7.078  11.809   4.737
52116SOL    HW258246   7.038  11.954   4.756
52117SOL     OW58247   9.495   8.257  12.319
52117SOL    HW158248   9.434   8.191  12.352
52117SOL    HW258249   9.442   8.336  12.309
52118SOL     OW58250   0.579   4.542   7.470
52118SOL    HW158251   0.602   4.627   7.508
52118SOL    HW258252   0.534   4.564   7.388
52119SOL     OW58253   7.842  14.527   5.416
52119SOL    HW158254   7.931  14.561   5.421
52119SOL    HW258255   7.799  14.581   5.349
52120SOL     OW58256  13.160   1.233   5.058
52120SOL    HW158257  13.223   1.283   5.108
52120SOL    HW258258  13.105   1.190   5.124
52121SOL     OW58259   0.198  10.274   1.494
52121SOL    HW158260   0.280  10.316   1.467
52121SOL    HW258261   0.183  10.307   1.583
52122SOL     OW58262   0.307   3.242  12.730
52122SOL    HW158263   0.322   3.336  12.739
52122SOL    HW258264   0.343   3.220  12.645
52123SOL     OW58265   5.367   6.607  13.127
52123SOL    HW158266   5.423   6.547  13.176
52123SOL    HW258267   5.346   6.559  13.047
52124SOL     OW58268   7.628   9.294   6.683
52124SOL    HW158269   7.546   9.299   6.634
52124SOL    HW258270   7.672   9.377   6.665
52125SOL     OW58271   6.817   9.009   1.340
52125SOL    HW158272   6.791   9.056   1.261
52125SOL    HW258273   6.735   8.997   1.388
52126SOL     OW58274   9.866   2.735  12.148
52126SOL    HW158275   9.935   2.793  12.182
52126SOL    HW258276   9.856   2.668  12.216
52127SOL     OW58277  13.310  14.405   5.371
52127SOL    HW158278  13.297  14.460   5.449
52127SOL    HW258279  13.326  14.468   5.300
52128SOL     OW58280  11.529   2.831   8.494
52128SOL    HW158281  11.597   2.768   8.519
52128SOL    HW258282  11.463   2.826   8.563
52129SOL     OW58283   1.645   6.315  14.140
52129SOL    HW158284   1.618   6.231  14.179
52129SOL    HW258285   1.576   6.376  14.166
52130SOL     OW58286   9.977   2.740   3.773
52130SOL    HW158287  10.010   2.827   3.794
52130SOL    HW258288   9.887   2.739   3.805
52131SOL     OW58289   1.535   8.363   0.218
52131SOL    HW158290   1.485   8.420   0.276
52131SOL    HW258291   1.624   8.397   0.221
52132SOL     OW58292   7.851   9.919  13.315
52132SOL    HW158293   7.757   9.909  13.329
52132SOL    HW258294   7.882   9.831  13.294
52133SOL     OW58295  12.160   8.744  10.822
52133SOL    HW158296  12.130   8.735  10.913
52133SOL    HW258297  12.164   8.654  10.790
52134SOL     OW58298  13.887   6.173  13.700
52134SOL    HW158299  13.936   6.194  13.620
52134SOL    HW258300  13.849   6.256  13.727
52135SOL     OW58301   2.118  12.543  13.633
52135SOL    HW158302   2.161  12.625  13.656
52135SOL    HW258303   2.075  12.561  13.549
52136SOL     OW58304   7.119   3.581   6.743
52136SOL    HW158305   7.204   3.626   6.743
52136SOL    HW258306   7.140   3.490   6.723
52137SOL     OW58307   6.755  10.095   1.394
52137SOL    HW158308   6.711  10.134   1.319
52137SOL    HW258309   6.827  10.154   1.415
52138SOL     OW58310  14.012   2.621   1.411
52138SOL    HW158311  13.934   2.631   1.466
52138SOL    HW258312  14.039   2.710   1.390
52139SOL     OW58313   4.897   1.915   5.562
52139SOL    HW158314   4.977   1.926   5.613
52139SOL    HW258315   4.874   2.004   5.534
52140SOL     OW58316   8.672   1.328  11.749
52140SOL    HW158317   8.641   1.345  11.660
52140SOL    HW258318   8.687   1.415  11.786
52141SOL     OW58319   7.915  14.676  11.957
52141SOL    HW158320   7.881  14.766  11.956
52141SOL    HW258321   7.930  14.658  12.050
52142SOL     OW58322  10.977   5.476   3.092
52142SOL    HW158323  10.957   5.559   3.048
52142SOL    HW258324  10.936   5.484   3.178
52143SOL     OW58325   0.649  11.759   1.989
52143SOL    HW158326   0.555  11.748   2.006
52143SOL    HW258327   0.654  11.776   1.895
52144SOL     OW58328   5.323   7.451   7.493
52144SOL    HW158329   5.273   7.432   7.413
52144SOL    HW258330   5.299   7.541   7.515
52145SOL     OW58331   0.347  11.461   5.352
52145SOL    HW158332   0.348  11.439   5.445
52145SOL    HW258333   0.254  11.466   5.330
52146SOL     OW58334  12.937   0.479   4.975
52146SOL    HW158335  12.947   0.458   4.883
52146SOL    HW258336  13.021   0.456   5.015
52147SOL     OW58337   6.522  11.325   2.423
52147SOL    HW158338   6.548  11.417   2.424
52147SOL    HW258339   6.460  11.316   2.495
52148SOL     OW58340  11.782   7.800   0.052
52148SOL    HW158341  11.724   7.729   0.082
52148SOL    HW258342  11.723   7.870   0.027
52149SOL     OW58343   9.025   3.125   1.521
52149SOL    HW158344   8.997   3.102   1.610
52149SOL    HW258345   8.982   3.060   1.465
52150SOL     OW58346   6.610  13.325  12.938
52150SOL    HW158347   6.613  13.249  12.996
52150SOL    HW258348   6.667  13.303  12.865
52151SOL     OW58349   7.916  12.588   2.894
52151SOL    HW158350   7.883  12.502   2.866
52151SOL    HW258351   7.908  12.643   2.816
52152SOL     OW58352   0.425  13.740   7.796
52152SOL    HW158353   0.475  13.796   7.735
52152SOL    HW258354   0.450  13.651   7.772
52153SOL     OW58355  10.397   6.833  10.477
52153SOL    HW158356  10.312   6.838  10.433
52153SOL    HW258357  10.447   6.905  10.439
52154SOL     OW58358   4.657  13.256   9.651
52154SOL    HW158359   4.583  13.274   9.708
52154SOL    HW258360   4.732  13.298   9.695
52155SOL     OW58361   9.851   6.417   2.540
52155SOL    HW158362   9.917   6.425   2.471
52155SOL    HW258363   9.850   6.324   2.561
52156SOL     OW58364   2.104  11.298   0.498
52156SOL    HW158365   2.071  11.287   0.408
52156SOL    HW258366   2.191  11.336   0.486
52157SOL     OW58367   7.037  13.207   8.624
52157SOL    HW158368   7.059  13.300   8.619
52157SOL    HW258369   6.998  13.187   8.539
52158SOL     OW58370   5.661  10.261   4.355
52158SOL    HW158371   5.582  10.223   4.316
52158SOL    HW258372   5.666  10.222   4.442
52159SOL     OW58373   6.805  10.278   0.564
52159SOL    HW158374   6.751  10.321   0.630
52159SOL    HW258375   6.873  10.342   0.544
52160SOL     OW58376   2.565  11.139   1.233
52160SOL    HW158377   2.533  11.171   1.149
52160SOL    HW258378   2.519  11.056   1.246
52161SOL     OW58379  11.988  11.791   0.692
52161SOL    HW158380  12.058  11.852   0.717
52161SOL    HW258381  11.921  11.847   0.652
52162SOL     OW58382   3.340   4.050  12.072
52162SOL    HW158383   3.430   4.048  12.042
52162SOL    HW258384   3.341   4.001  12.154
52163SOL     OW58385   2.586  14.479  10.611
52163SOL    HW158386   2.512  14.444  10.662
52163SOL    HW258387   2.556  14.475  10.520
52164SOL     OW58388  13.753   6.489   6.964
52164SOL    HW158389  13.780   6.528   7.048
52164SOL    HW258390  13.787   6.400   6.968
52165SOL     OW58391   3.488   6.893  11.511
52165SOL    HW158392   3.517   6.937  11.591
52165SOL    HW258393   3.562   6.903  11.451
52166SOL     OW58394  13.750  11.525   4.419
52166SOL    HW158395  13.725  11.470   4.345
52166SOL    HW258396  13.674  11.524   4.477
52167SOL     OW58397  12.665  14.823   5.493
52167SOL    HW158398  12.696  14.840   5.404
52167SOL    HW258399  12.572  14.848   5.491
52168SOL     OW58400   5.204  10.948  11.918
52168SOL    HW158401   5.201  10.855  11.938
52168SOL    HW258402   5.282  10.959  11.862
52169SOL     OW58403   4.739   7.128  10.152
52169SOL    HW158404   4.767   7.165  10.068
52169SOL    HW258405   4.781   7.184  10.218
52170SOL     OW58406   9.067   8.242  13.131
52170SOL    HW158407   9.081   8.152  13.159
52170SOL    HW258408   9.154   8.282  13.134
52171SOL     OW58409   1.016   4.854   9.421
52171SOL    HW158410   0.939   4.910   9.405
52171SOL    HW258411   1.024   4.851   9.516
52172SOL     OW58412  12.500  10.575   2.588
52172SOL    HW158413  12.503  10.512   2.516
52172SOL    HW258414  12.485  10.659   2.545
52173SOL     OW58415   7.145   6.671   3.827
52173SOL    HW158416   7.149   6.728   3.751
52173SOL    HW258417   7.057   6.634   3.825
52174SOL     OW58418   4.170   6.795   7.140
52174SOL    HW158419   4.076   6.782   7.128
52174SOL    HW258420   4.193   6.860   7.074
52175SOL     OW58421   8.444   8.734   5.095
52175SOL    HW158422   8.451   8.802   5.162
52175SOL    HW258423   8.466   8.779   5.013
52176SOL     OW58424  11.029   1.127   4.118
52176SOL    HW158425  10.939   1.152   4.141
52176SOL    HW258426  11.082   1.167   4.187
52177SOL     OW58427   3.359   0.719  13.052
52177SOL    HW158428   3.343   0.812  13.060
52177SOL    HW258429   3.365   0.687  13.142
52178SOL     OW58430   8.220  13.555   0.103
52178SOL    HW158431   8.291  13.493   0.121
52178SOL    HW258432   8.234  13.626   0.165
52179SOL     OW58433   4.236  11.366  12.708
52179SOL    HW158434   4.332  11.364  12.699
52179SOL    HW258435   4.220  11.326  12.794
52180SOL     OW58436  11.022  10.336   1.885
52180SOL    HW158437  10.968  10.412   1.866
52180SOL    HW258438  11.030  10.291   1.801
52181SOL     OW58439   3.558   6.089   3.120
52181SOL    HW158440   3.621   6.161   3.109
52181SOL    HW258441   3.609   6.019   3.161
52182SOL     OW58442  14.007   3.205  13.779
52182SOL    HW158443  13.966   3.292  13.780
52182SOL    HW258444  13.958   3.155  13.844
52183SOL     OW58445   1.249  10.236  12.546
52183SOL    HW158446   1.220  10.316  12.590
52183SOL    HW258447   1.331  10.214  12.590
52184SOL     OW58448  10.257  10.596   8.849
52184SOL    HW158449  10.225  10.669   8.901
52184SOL    HW258450  10.350  10.591   8.869
52185SOL     OW58451  12.806  10.975  10.755
52185SOL    HW158452  12.832  11.049  10.810
52185SOL    HW258453  12.720  10.950  10.789
52186SOL     OW58454  13.499   5.114  11.974
52186SOL    HW158455  13.447   5.043  12.012
52186SOL    HW258456  13.472   5.117  11.882
52187SOL     OW58457   3.117  10.333   7.652
52187SOL    HW158458   3.190  10.292   7.607
52187SOL    HW258459   3.054  10.263   7.666
52188SOL     OW58460   7.140  10.924   0.175
52188SOL    HW158461   7.119  11.012   0.206
52188SOL    HW258462   7.067  10.900   0.118
52189SOL     OW58463   4.883   2.094  13.186
52189SOL    HW158464   4.888   2.065  13.277
52189SOL    HW258465   4.869   2.189  13.192
52190SOL     OW58466  13.278   4.888   2.619
52190SOL    HW158467  13.305   4.972   2.583
52190SOL    HW258468  13.301   4.892   2.712
52191SOL     OW58469   3.760   4.170   8.478
52191SOL    HW158470   3.721   4.085   8.456
52191SOL    HW258471   3.703   4.207   8.545
52192SOL     OW58472  13.614   1.363   3.035
52192SOL    HW158473  13.559   1.390   2.961
52192SOL    HW258474  13.564   1.389   3.113
52193SOL     OW58475   6.404   7.652   9.275
52193SOL    HW158476   6.384   7.640   9.182
52193SOL    HW258477   6.320   7.639   9.319
52194SOL     OW58478   3.077   3.003  10.142
52194SOL    HW158479   3.137   3.053  10.087
52194SOL    HW258480   2.993   3.006  10.095
52195SOL     OW58481   0.282  14.094   2.190
52195SOL    HW158482   0.232  14.163   2.147
52195SOL    HW258483   0.248  14.091   2.279
52196SOL     OW58484   9.314   7.554   4.826
52196SOL    HW158485   9.221   7.578   4.826
52196SOL    HW258486   9.360   7.638   4.828
52197SOL     OW58487   5.648  14.438   9.465
52197SOL    HW158488   5.717  14.503   9.451
52197SOL    HW258489   5.616  14.418   9.377
52198SOL     OW58490   9.570   2.950   3.312
52198SOL    HW158491   9.660   2.948   3.343
52198SOL    HW258492   9.520   2.909   3.383
52199SOL     OW58493   5.926   9.782  13.275
52199SOL    HW158494   5.844   9.766  13.321
52199SOL    HW258495   5.956   9.694  13.249
52200SOL     OW58496   1.473  12.575   1.200
52200SOL    HW158497   1.489  12.482   1.185
52200SOL    HW258498   1.549  12.604   1.251
52201SOL     OW58499   3.642   4.744   3.208
52201SOL    HW158500   3.692   4.780   3.135
52201SOL    HW258501   3.694   4.671   3.239
52202SOL     OW58502   1.718   3.378  11.703
52202SOL    HW158503   1.779   3.332  11.645
52202SOL    HW258504   1.757   3.369  11.790
52203SOL     OW58505   6.352  12.347  13.033
52203SOL    HW158506   6.421  12.362  13.098
52203SOL    HW258507   6.271  12.366  13.080
52204SOL     OW58508   3.394   0.563   8.986
52204SOL    HW158509   3.490   0.565   8.978
52204SOL    HW258510   3.377   0.498   9.054
52205SOL     OW58511   5.441  13.177   1.854
52205SOL    HW158512   5.492  13.192   1.933
52205SOL    HW258513   5.479  13.099   1.815
52206SOL     OW58514  13.240   7.470  10.740
52206SOL    HW158515  13.320   7.444  10.787
52206SOL    HW258516  13.174   7.478  10.809
52207SOL     OW58517   9.357   5.598   7.606
52207SOL    HW158518   9.362   5.503   7.620
52207SOL    HW258519   9.297   5.607   7.531
52208SOL     OW58520  14.697  13.965   2.178
52208SOL    HW158521  14.773  13.943   2.123
52208SOL    HW258522  14.641  13.888   2.173
52209SOL     OW58523   6.883   3.117   3.306
52209SOL    HW158524   6.869   3.199   3.353
52209SOL    HW258525   6.843   3.050   3.361
52210SOL     OW58526   1.727  10.906   2.129
52210SOL    HW158527   1.721  10.832   2.190
52210SOL    HW258528   1.638  10.941   2.127
52211SOL     OW58529  11.690   7.455   9.568
52211SOL    HW158530  11.642   7.503   9.500
52211SOL    HW258531  11.674   7.504   9.648
52212SOL     OW58532   2.068   5.519  11.189
52212SOL    HW158533   2.144   5.569  11.160
52212SOL    HW258534   2.026   5.575  11.255
52213SOL     OW58535   6.836   2.210   6.119
52213SOL    HW158536   6.850   2.116   6.126
52213SOL    HW258537   6.915   2.243   6.077
52214SOL     OW58538   4.990   5.035   4.008
52214SOL    HW158539   4.960   5.119   4.042
52214SOL    HW258540   5.025   4.989   4.085
52215SOL     OW58541  13.975   3.296   0.764
52215SOL    HW158542  13.980   3.253   0.850
52215SOL    HW258543  13.905   3.249   0.719
52216SOL     OW58544   4.456   6.952   0.408
52216SOL    HW158545   4.390   6.902   0.360
52216SOL    HW258546   4.409   7.028   0.442
52217SOL     OW58547   0.034   8.735   5.570
52217SOL    HW158548   0.007   8.677   5.641
52217SOL    HW258549  14.822   8.777   5.541
52218SOL     OW58550  10.704   5.567  13.905
52218SOL    HW158551  10.765   5.627  13.862
52218SOL    HW258552  10.746   5.482  13.897
52219SOL     OW58553  13.977   0.481  12.649
52219SOL    HW158554  13.982   0.429  12.729
52219SOL    HW258555  13.920   0.555  12.672
52220SOL     OW58556  12.467   7.754  10.653
52220SOL    HW158557  12.472   7.846  10.630
52220SOL    HW258558  12.374   7.739  10.671
52221SOL     OW58559  10.984  10.328   5.448
52221SOL    HW158560  11.033  10.390   5.394
52221SOL    HW258561  11.052  10.274   5.489
52222SOL     OW58562  10.368   4.241   5.718
52222SOL    HW158563  10.373   4.146   5.707
52222SOL    HW258564  10.303   4.269   5.653
52223SOL     OW58565   5.942  10.722   8.694
52223SOL    HW158566   5.853  10.686   8.699
52223SOL    HW258567   5.963  10.745   8.785
52224SOL     OW58568  12.672   3.304   2.368
52224SOL    HW158569  12.724   3.375   2.331
52224SOL    HW258570  12.658   3.331   2.459
52225SOL     OW58571   7.633   0.237   3.588
52225SOL    HW158572   7.622   0.298   3.661
52225SOL    HW258573   7.727   0.240   3.568
52226SOL     OW58574   5.966  14.040   3.700
52226SOL    HW158575   6.005  14.099   3.636
52226SOL    HW258576   5.884  14.011   3.660
52227SOL     OW58577   9.349   0.603   6.381
52227SOL    HW158578   9.275   0.548   6.409
52227SOL    HW258579   9.321   0.641   6.298
52228SOL     OW58580  12.600   4.249   8.075
52228SOL    HW158581  12.645   4.202   8.005
52228SOL    HW258582  12.655   4.326   8.091
52229SOL     OW58583  13.694   3.985   6.079
52229SOL    HW158584  13.738   4.065   6.107
52229SOL    HW258585  13.763   3.919   6.074
52230SOL     OW58586  14.737  10.765  11.936
52230SOL    HW158587  14.742  10.830  12.005
52230SOL    HW258588  14.771  10.810  11.858
52231SOL     OW58589   3.897   8.120   1.222
52231SOL    HW158590   3.840   8.169   1.162
52231SOL    HW258591   3.915   8.038   1.176
52232SOL     OW58592   5.709   6.470  10.093
52232SOL    HW158593   5.736   6.526  10.167
52232SOL    HW258594   5.686   6.533  10.024
52233SOL     OW58595  13.565   3.086   1.980
52233SOL    HW158596  13.559   2.992   1.962
52233SOL    HW258597  13.475   3.112   1.999
52234SOL     OW58598   7.922  13.158   7.563
52234SOL    HW158599   7.835  13.199   7.567
52234SOL    HW258600   7.982  13.231   7.547
52235SOL     OW58601   9.628   2.270   0.326
52235SOL    HW158602   9.720   2.267   0.350
52235SOL    HW258603   9.608   2.363   0.318
52236SOL     OW58604  13.468   3.088  14.064
52236SOL    HW158605  13.496   3.002  14.034
52236SOL    HW258606  13.536   3.148  14.032
52237SOL     OW58607  13.798   4.796   8.962
52237SOL    HW158608  13.869   4.744   9.000
52237SOL    HW258609  13.823   4.807   8.871
52238SOL     OW58610   2.973   6.752   0.111
52238SOL    HW158611   2.912   6.766   0.183
52238SOL    HW258612   2.984   6.839   0.071
52239SOL     OW58613   3.547   5.177   1.425
52239SOL    HW158614   3.609   5.173   1.352
52239SOL    HW258615   3.506   5.090   1.426
52240SOL     OW58616   9.777   1.532   6.577
52240SOL    HW158617   9.730   1.449   6.572
52240SOL    HW258618   9.784   1.562   6.486
52241SOL     OW58619   2.750   1.168   2.721
52241SOL    HW158620   2.701   1.151   2.641
52241SOL    HW258621   2.684   1.197   2.784
52242SOL     OW58622  10.165   5.782  11.555
52242SOL    HW158623  10.168   5.692  11.587
52242SOL    HW258624  10.248   5.820  11.585
52243SOL     OW58625   2.477   8.313   7.121
52243SOL    HW158626   2.444   8.262   7.047
52243SOL    HW258627   2.552   8.263   7.154
52244SOL     OW58628   7.974   6.003   3.750
52244SOL    HW158629   7.887   6.038   3.768
52244SOL    HW258630   8.030   6.040   3.819
52245SOL     OW58631   3.943   9.973   4.242
52245SOL    HW158632   4.022   9.983   4.297
52245SOL    HW258633   3.870   9.984   4.303
52246SOL     OW58634   0.528  13.534   1.890
52246SOL    HW158635   0.605  13.521   1.834
52246SOL    HW258636   0.506  13.447   1.922
52247SOL     OW58637  10.394  13.071   2.386
52247SOL    HW158638  10.359  12.991   2.346
52247SOL    HW258639  10.329  13.138   2.363
52248SOL     OW58640   5.608  10.359   0.168
52248SOL    HW158641   5.517  10.376   0.142
52248SOL    HW258642   5.661  10.412   0.108
52249SOL     OW58643   3.851   9.622   0.392
52249SOL    HW158644   3.919   9.618   0.460
52249SOL    HW258645   3.815   9.710   0.400
52250SOL     OW58646   8.322  10.776   3.082
52250SOL    HW158647   8.377  10.702   3.057
52250SOL    HW258648   8.247  10.736   3.128
52251SOL     OW58649   8.731   8.783   6.206
52251SOL    HW158650   8.729   8.688   6.191
52251SOL    HW258651   8.701   8.821   6.124
52252SOL     OW58652  12.057   0.010   1.221
52252SOL    HW158653  12.132  14.826   1.197
52252SOL    HW258654  11.990  14.860   1.156
52253SOL     OW58655   8.289  11.274   4.763
52253SOL    HW158656   8.320  11.342   4.822
52253SOL    HW258657   8.210  11.239   4.807
52254SOL     OW58658  14.657   7.890   1.621
52254SOL    HW158659  14.666   7.913   1.529
52254SOL    HW258660  14.747   7.880   1.652
52255SOL     OW58661   0.601   8.182   7.169
52255SOL    HW158662   0.537   8.216   7.108
52255SOL    HW258663   0.578   8.090   7.180
52256SOL     OW58664   9.703   3.772   9.141
52256SOL    HW158665   9.685   3.798   9.051
52256SOL    HW258666   9.732   3.681   9.135
52257SOL     OW58667  12.770   1.132  13.769
52257SOL    HW158668  12.698   1.087  13.725
52257SOL    HW258669  12.849   1.092  13.733
52258SOL     OW58670  11.855  11.377   4.572
52258SOL    HW158671  11.827  11.287   4.554
52258SOL    HW258672  11.795  11.409   4.639
52259SOL     OW58673   0.377  14.647   8.639
52259SOL    HW158674   0.446  14.714   8.644
52259SOL    HW258675   0.321  14.677   8.568
52260SOL     OW58676  10.721   7.044  12.080
52260SOL    HW158677  10.730   7.138  12.097
52260SOL    HW258678  10.643   7.038  12.024
52261SOL     OW58679  14.762   3.271  10.414
52261SOL    HW158680  14.790   3.361  10.425
52261SOL    HW258681  14.734   3.265  10.322
52262SOL     OW58682   4.545   0.517   9.922
52262SOL    HW158683   4.613   0.582   9.939
52262SOL    HW258684   4.592   0.433   9.925
52263SOL     OW58685   8.774   9.980   5.412
52263SOL    HW158686   8.724  10.041   5.466
52263SOL    HW258687   8.708   9.928   5.366
52264SOL     OW58688   9.078   2.741   7.589
52264SOL    HW158689   9.062   2.656   7.550
52264SOL    HW258690   9.021   2.801   7.541
52265SOL     OW58691   2.656   0.010   6.925
52265SOL    HW158692   2.591   0.060   6.974
52265SOL    HW258693   2.633   0.023   6.833
52266SOL     OW58694  14.291   4.157   2.470
52266SOL    HW158695  14.329   4.203   2.396
52266SOL    HW258696  14.221   4.104   2.431
52267SOL     OW58697  12.817   0.071   7.095
52267SOL    HW158698  12.849   0.119   7.019
52267SOL    HW258699  12.843   0.125   7.170
52268SOL     OW58700  12.104   2.652  14.865
52268SOL    HW158701  12.050   2.631  14.788
52268SOL    HW258702  12.064   2.732   0.031
52269SOL     OW58703  13.908  12.930  11.643
52269SOL    HW158704  13.901  12.977  11.726
52269SOL    HW258705  13.839  12.864  11.646
52270SOL     OW58706  11.757   8.290   6.244
52270SOL    HW158707  11.853   8.287   6.250
52270SOL    HW258708  11.733   8.205   6.208
52271SOL     OW58709  10.646  14.284   4.722
52271SOL    HW158710  10.602  14.336   4.790
52271SOL    HW258711  10.732  14.264   4.760
52272SOL     OW58712  11.037  11.860  11.763
52272SOL    HW158713  11.090  11.886  11.687
52272SOL    HW258714  11.030  11.765  11.756
52273SOL     OW58715  13.488   7.643   6.547
52273SOL    HW158716  13.550   7.713   6.569
52273SOL    HW258717  13.527   7.600   6.471
52274SOL     OW58718   9.143   9.836  14.267
52274SOL    HW158719   9.217   9.776  14.278
52274SOL    HW258720   9.136   9.881  14.352
52275SOL     OW58721   9.060   5.319  13.847
52275SOL    HW158722   9.078   5.228  13.824
52275SOL    HW258723   8.965   5.327  13.840
52276SOL     OW58724  13.488   9.808  14.209
52276SOL    HW158725  13.492   9.865  14.132
52276SOL    HW258726  13.566   9.753  14.203
52277SOL     OW58727   1.617  10.497   4.229
52277SOL    HW158728   1.704  10.519   4.196
52277SOL    HW258729   1.588  10.423   4.176
52278SOL     OW58730   7.404   0.070   9.860
52278SOL    HW158731   7.396   0.152   9.812
52278SOL    HW258732   7.476   0.084   9.922
52279SOL     OW58733   3.246   0.053   2.463
52279SOL    HW158734   3.159   0.058   2.423
52279SOL    HW258735   3.307   0.072   2.392
52280SOL     OW58736   4.457   8.572  10.770
52280SOL    HW158737   4.464   8.522  10.689
52280SOL    HW258738   4.395   8.522  10.823
52281SOL     OW58739   1.210   4.316   4.945
52281SOL    HW158740   1.166   4.330   4.861
52281SOL    HW258741   1.303   4.326   4.924
52282SOL     OW58742  14.800   0.897   7.907
52282SOL    HW158743  14.823   0.804   7.913
52282SOL    HW258744  14.833   0.935   7.989
52283SOL     OW58745   8.798   4.471  14.255
52283SOL    HW158746   8.755   4.534  14.313
52283SOL    HW258747   8.823   4.523  14.178
52284SOL     OW58748   5.456   9.229  10.740
52284SOL    HW158749   5.363   9.221  10.760
52284SOL    HW258750   5.458   9.268  10.653
52285SOL     OW58751   6.339   0.610   9.707
52285SOL    HW158752   6.308   0.576   9.791
52285SOL    HW258753   6.270   0.670   9.679
52286SOL     OW58754   9.970  10.262   3.106
52286SOL    HW158755  10.055  10.219   3.118
52286SOL    HW258756   9.928  10.212   3.036
52287SOL     OW58757   8.891   1.335   4.119
52287SOL    HW158758   8.824   1.275   4.087
52287SOL    HW258759   8.863   1.359   4.207
52288SOL     OW58760   3.078   9.435  10.911
52288SOL    HW158761   3.086   9.385  10.830
52288SOL    HW258762   3.158   9.415  10.959
52289SOL     OW58763  11.887   9.633   3.182
52289SOL    HW158764  11.980   9.614   3.195
52289SOL    HW258765  11.856   9.564   3.123
52290SOL     OW58766   9.818   7.745   1.174
52290SOL    HW158767   9.835   7.839   1.176
52290SOL    HW258768   9.870   7.714   1.100
52291SOL     OW58769  10.149   2.044  14.785
52291SOL    HW158770  10.083   2.019  14.720
52291SOL    HW258771  10.130   1.990  14.861
52292SOL     OW58772   6.315   1.360   9.018
52292SOL    HW158773   6.401   1.391   8.989
52292SOL    HW258774   6.258   1.437   9.008
52293SOL     OW58775   6.923   6.150  12.328
52293SOL    HW158776   6.952   6.209  12.398
52293SOL    HW258777   6.959   6.188  12.248
52294SOL     OW58778  12.962  11.756   8.740
52294SOL    HW158779  12.918  11.730   8.821
52294SOL    HW258780  13.037  11.808   8.769
52295SOL     OW58781   4.250  10.534   8.260
52295SOL    HW158782   4.279  10.624   8.247
52295SOL    HW258783   4.156  10.542   8.281
52296SOL     OW58784  10.648   3.120   3.743
52296SOL    HW158785  10.670   3.191   3.803
52296SOL    HW258786  10.626   3.164   3.661
52297SOL     OW58787   2.590   0.593   8.884
52297SOL    HW158788   2.586   0.687   8.901
52297SOL    HW258789   2.530   0.555   8.948
52298SOL     OW58790   7.935   0.955   8.595
52298SOL    HW158791   7.871   0.973   8.526
52298SOL    HW258792   7.950   0.861   8.590
52299SOL     OW58793   6.572  13.451   1.053
52299SOL    HW158794   6.652  13.490   1.089
52299SOL    HW258795   6.502  13.508   1.084
52300SOL     OW58796   7.473   7.813   7.313
52300SOL    HW158797   7.491   7.803   7.219
52300SOL    HW258798   7.385   7.779   7.325
52301SOL     OW58799   7.567   7.674  11.177
52301SOL    HW158800   7.597   7.620  11.250
52301SOL    HW258801   7.472   7.662  11.175
52302SOL     OW58802  10.934  11.622   2.989
52302SOL    HW158803  10.886  11.567   2.927
52302SOL    HW258804  10.875  11.632   3.063
52303SOL     OW58805   2.553  13.677   1.191
52303SOL    HW158806   2.488  13.681   1.262
52303SOL    HW258807   2.516  13.614   1.128
52304SOL     OW58808  12.692   6.257  12.441
52304SOL    HW158809  12.787   6.259  12.448
52304SOL    HW258810  12.668   6.166  12.462
52305SOL     OW58811   3.936   0.955   9.696
52305SOL    HW158812   4.015   0.904   9.711
52305SOL    HW258813   3.879   0.933   9.770
52306SOL     OW58814   5.131   4.246   2.457
52306SOL    HW158815   5.166   4.170   2.410
52306SOL    HW258816   5.209   4.295   2.482
52307SOL     OW58817   8.205   1.579  10.655
52307SOL    HW158818   8.300   1.574  10.670
52307SOL    HW258819   8.189   1.670  10.631
52308SOL     OW58820  13.513   5.758   5.021
52308SOL    HW158821  13.486   5.729   5.108
52308SOL    HW258822  13.582   5.821   5.037
52309SOL     OW58823   5.388  13.142   5.106
52309SOL    HW158824   5.316  13.084   5.081
52309SOL    HW258825   5.412  13.187   5.025
52310SOL     OW58826   9.835   4.560   2.784
52310SOL    HW158827   9.822   4.630   2.721
52310SOL    HW258828   9.919   4.521   2.760
52311SOL     OW58829  10.882  10.477   3.482
52311SOL    HW158830  10.943  10.464   3.409
52311SOL    HW258831  10.814  10.411   3.467
52312SOL     OW58832  14.034   8.556  10.452
52312SOL    HW158833  14.040   8.559  10.356
52312SOL    HW258834  13.951   8.600  10.471
52313SOL     OW58835   0.685   3.157   8.363
52313SOL    HW158836   0.769   3.201   8.377
52313SOL    HW258837   0.657   3.130   8.450
52314SOL     OW58838   9.232  13.374   3.495
52314SOL    HW158839   9.321  13.406   3.482
52314SOL    HW258840   9.212  13.392   3.586
52315SOL     OW58841   4.524  10.418  10.201
52315SOL    HW158842   4.574  10.410  10.282
52315SOL    HW258843   4.471  10.338  10.197
52316SOL     OW58844   7.408  13.888   2.124
52316SOL    HW158845   7.313  13.898   2.116
52316SOL    HW258846   7.420  13.796   2.147
52317SOL     OW58847   1.088   7.053   0.707
52317SOL    HW158848   1.105   7.119   0.774
52317SOL    HW258849   1.125   6.972   0.742
52318SOL     OW58850   9.805  14.589   7.623
52318SOL    HW158851   9.787  14.498   7.645
52318SOL    HW258852   9.718  14.628   7.611
52319SOL     OW58853  11.764   4.447   2.594
52319SOL    HW158854  11.736   4.391   2.521
52319SOL    HW258855  11.687   4.500   2.615
52320SOL     OW58856  12.341   4.556  10.833
52320SOL    HW158857  12.359   4.501  10.909
52320SOL    HW258858  12.275   4.508  10.783
52321SOL     OW58859   0.827   8.232   6.423
52321SOL    HW158860   0.813   8.153   6.476
52321SOL    HW258861   0.739   8.259   6.398
52322SOL     OW58862   3.620   1.862   3.364
52322SOL    HW158863   3.532   1.831   3.342
52322SOL    HW258864   3.659   1.789   3.412
52323SOL     OW58865   1.931   0.521   4.244
52323SOL    HW158866   1.906   0.485   4.329
52323SOL    HW258867   2.025   0.501   4.236
52324SOL     OW58868   4.469  12.673   0.751
52324SOL    HW158869   4.545  12.721   0.718
52324SOL    HW258870   4.483  12.667   0.845
52325SOL     OW58871  13.734   6.278  12.549
52325SOL    HW158872  13.796   6.233  12.491
52325SOL    HW258873  13.790   6.327  12.610
52326SOL     OW58874   9.329   3.833  11.628
52326SOL    HW158875   9.287   3.916  11.649
52326SOL    HW258876   9.366   3.846  11.541
52327SOL     OW58877   9.715   4.595   5.546
52327SOL    HW158878   9.775   4.521   5.556
52327SOL    HW258879   9.657   4.569   5.474
52328SOL     OW58880   3.316   9.063   3.725
52328SOL    HW158881   3.231   9.085   3.688
52328SOL    HW258882   3.320   8.968   3.721
52329SOL     OW58883   7.123   6.786  12.977
52329SOL    HW158884   7.160   6.701  12.997
52329SOL    HW258885   7.198   6.846  12.976
52330SOL     OW58886   8.760   1.385   6.938
52330SOL    HW158887   8.780   1.397   7.031
52330SOL    HW258888   8.810   1.454   6.894
52331SOL     OW58889  10.727  11.273   9.875
52331SOL    HW158890  10.698  11.199   9.821
52331SOL    HW258891  10.701  11.249   9.964
52332SOL     OW58892   1.217   9.154   4.886
52332SOL    HW158893   1.275   9.202   4.827
52332SOL    HW258894   1.262   9.071   4.902
52333SOL     OW58895   1.496   9.932   2.702
52333SOL    HW158896   1.509   9.843   2.737
52333SOL    HW258897   1.582   9.973   2.709
52334SOL     OW58898   2.458   2.586   7.745
52334SOL    HW158899   2.397   2.578   7.818
52334SOL    HW258900   2.403   2.577   7.667
52335SOL     OW58901   2.467   0.307   7.539
52335SOL    HW158902   2.491   0.360   7.463
52335SOL    HW258903   2.515   0.348   7.612
52336SOL     OW58904   7.767   9.695   4.234
52336SOL    HW158905   7.809   9.639   4.169
52336SOL    HW258906   7.718   9.759   4.183
52337SOL     OW58907   2.807  11.630   1.522
52337SOL    HW158908   2.749  11.634   1.597
52337SOL    HW258909   2.754  11.659   1.448
52338SOL     OW58910   7.112   0.455  10.408
52338SOL    HW158911   7.143   0.525  10.466
52338SOL    HW258912   7.185   0.441  10.347
52339SOL     OW58913   2.388   0.953   0.051
52339SOL    HW158914   2.354   1.040   0.029
52339SOL    HW258915   2.327   0.919   0.116
52340SOL     OW58916   1.692  10.226   8.838
52340SOL    HW158917   1.726  10.140   8.816
52340SOL    HW258918   1.722  10.283   8.768
52341SOL     OW58919   4.572   9.656  14.512
52341SOL    HW158920   4.655   9.645  14.465
52341SOL    HW258921   4.524   9.575  14.496
52342SOL     OW58922   5.053   5.286   5.025
52342SOL    HW158923   5.010   5.279   4.940
52342SOL    HW258924   5.146   5.273   5.006
52343SOL     OW58925   1.456  11.433   0.512
52343SOL    HW158926   1.444  11.355   0.565
52343SOL    HW258927   1.546  11.425   0.478
52344SOL     OW58928   4.457   8.783  13.482
52344SOL    HW158929   4.378   8.835  13.467
52344SOL    HW258930   4.516   8.842  13.528
52345SOL     OW58931   0.466  14.808  11.470
52345SOL    HW158932   0.530  14.789  11.402
52345SOL    HW258933   0.502  14.767  11.549
52346SOL     OW58934   8.529  12.839   8.758
52346SOL    HW158935   8.526  12.911   8.695
52346SOL    HW258936   8.580  12.771   8.714
52347SOL     OW58937  10.829   9.522   8.065
52347SOL    HW158938  10.874   9.549   8.145
52347SOL    HW258939  10.887   9.548   7.994
52348SOL     OW58940  11.260  13.131   0.366
52348SOL    HW158941  11.257  13.087   0.281
52348SOL    HW258942  11.180  13.183   0.369
52349SOL     OW58943   4.552  13.275   8.898
52349SOL    HW158944   4.605  13.354   8.898
52349SOL    HW258945   4.532  13.260   8.991
52350SOL     OW58946   9.368   9.171  14.327
52350SOL    HW158947   9.322   9.221  14.395
52350SOL    HW258948   9.330   9.083  14.332
52351SOL     OW58949   1.403  14.841   9.698
52351SOL    HW158950   1.351  14.869   9.622
52351SOL    HW258951   1.433   0.053   9.738
52352SOL     OW58952   6.573  13.720  10.213
52352SOL    HW158953   6.493  13.727  10.264
52352SOL    HW258954   6.616  13.641  10.245
52353SOL     OW58955  11.785   0.803   5.906
52353SOL    HW158956  11.695   0.829   5.886
52353SOL    HW258957  11.824   0.879   5.949
52354SOL     OW58958   3.921   6.449  12.289
52354SOL    HW158959   3.995   6.403  12.329
52354SOL    HW258960   3.849   6.435  12.351
52355SOL     OW58961   5.597   1.783   3.639
52355SOL    HW158962   5.652   1.840   3.586
52355SOL    HW258963   5.548   1.842   3.695
52356SOL     OW58964  14.018   3.932   9.220
52356SOL    HW158965  14.045   3.976   9.140
52356SOL    HW258966  13.925   3.955   9.230
52357SOL     OW58967   4.442   1.452   3.803
52357SOL    HW158968   4.513   1.489   3.751
52357SOL    HW258969   4.437   1.508   3.881
52358SOL     OW58970   0.694  13.917   1.443
52358SOL    HW158971   0.748  13.871   1.378
52358SOL    HW258972   0.681  13.853   1.513
52359SOL     OW58973   3.491  10.384   1.684
52359SOL    HW158974   3.543  10.339   1.751
52359SOL    HW258975   3.490  10.475   1.713
52360SOL     OW58976  11.038   2.369   6.747
52360SOL    HW158977  11.131   2.349   6.753
52360SOL    HW258978  11.027   2.449   6.798
52361SOL     OW58979   5.851   7.583   8.962
52361SOL    HW158980   5.895   7.645   8.904
52361SOL    HW258981   5.758   7.595   8.944
52362SOL     OW58982  13.104   0.693   0.964
52362SOL    HW158983  13.067   0.779   0.946
52362SOL    HW258984  13.079   0.640   0.888
52363SOL     OW58985   2.766   6.058   1.959
52363SOL    HW158986   2.840   6.010   1.996
52363SOL    HW258987   2.790   6.150   1.968
52364SOL     OW58988   6.460  11.727   3.041
52364SOL    HW158989   6.388  11.686   2.993
52364SOL    HW258990   6.422  11.751   3.125
52365SOL     OW58991  14.616   2.023  13.698
52365SOL    HW158992  14.648   2.099  13.746
52365SOL    HW258993  14.691   1.993  13.648
52366SOL     OW58994  10.505  11.552   0.975
52366SOL    HW158995  10.431  11.576   0.920
52366SOL    HW258996  10.508  11.619   1.043
52367SOL     OW58997   3.070   7.590   9.701
52367SOL    HW158998   3.092   7.532   9.775
52367SOL    HW258999   3.154   7.629   9.676
52368SOL     OW59000   4.059   3.753   8.801
52368SOL    HW159001   4.019   3.669   8.779
52368SOL    HW259002   4.153   3.738   8.795
52369SOL     OW59003   5.589  14.274   5.364
52369SOL    HW159004   5.645  14.244   5.435
52369SOL    HW259005   5.499  14.260   5.396
52370SOL     OW59006   6.265  11.989   6.723
52370SOL    HW159007   6.258  12.065   6.665
52370SOL    HW259008   6.353  11.955   6.706
52371SOL     OW59009  12.273  10.810   2.311
52371SOL    HW159010  12.351  10.805   2.256
52371SOL    HW259011  12.231  10.892   2.285
52372SOL     OW59012  14.589   5.059  13.130
52372SOL    HW159013  14.599   5.005  13.207
52372SOL    HW259014  14.533   5.008  13.071
52373SOL     OW59015  14.525   6.585  12.243
52373SOL    HW159016  14.586   6.650  12.209
52373SOL    HW259017  14.473   6.559  12.168
52374SOL     OW59018   7.950  11.578   9.223
52374SOL    HW159019   8.004  11.539   9.292
52374SOL    HW259020   7.860  11.568   9.256
52375SOL     OW59021  11.087   1.286   7.411
52375SOL    HW159022  11.129   1.325   7.488
52375SOL    HW259023  10.997   1.270   7.438
52376SOL     OW59024   0.490   3.985   3.739
52376SOL    HW159025   0.406   3.941   3.753
52376SOL    HW259026   0.473   4.046   3.667
52377SOL     OW59027   2.433   0.472  12.201
52377SOL    HW159028   2.461   0.381  12.207
52377SOL    HW259029   2.377   0.484  12.277
52378SOL     OW59030  10.171  12.128  13.470
52378SOL    HW159031  10.106  12.129  13.400
52378SOL    HW259032  10.192  12.035  13.482
52379SOL     OW59033  11.953   1.319  13.271
52379SOL    HW159034  12.023   1.365  13.224
52379SOL    HW259035  11.897   1.285  13.201
52380SOL     OW59036  10.566  10.616  10.412
52380SOL    HW159037  10.599  10.565  10.486
52380SOL    HW259038  10.475  10.636  10.434
52381SOL     OW59039   1.519  12.626   9.193
52381SOL    HW159040   1.429  12.658   9.203
52381SOL    HW259041   1.549  12.666   9.112
52382SOL     OW59042   0.537   3.163   8.685
52382SOL    HW159043   0.550   3.177   8.779
52382SOL    HW259044   0.562   3.071   8.671
52383SOL     OW59045   4.237   4.112  11.246
52383SOL    HW159046   4.232   4.108  11.341
52383SOL    HW259047   4.302   4.047  11.222
52384SOL     OW59048   6.995   7.431  11.603
52384SOL    HW159049   7.004   7.423  11.508
52384SOL    HW259050   6.912   7.387  11.623
52385SOL     OW59051   6.899   4.363   8.129
52385SOL    HW159052   6.845   4.304   8.182
52385SOL    HW259053   6.920   4.311   8.051
52386SOL     OW59054   3.209   4.553   6.547
52386SOL    HW159055   3.252   4.528   6.465
52386SOL    HW259056   3.116   4.554   6.526
52387SOL     OW59057   8.017  11.446   7.081
52387SOL    HW159058   7.971  11.520   7.041
52387SOL    HW259059   8.037  11.388   7.008
52388SOL     OW59060   3.351  12.221   2.429
52388SOL    HW159061   3.439  12.256   2.448
52388SOL    HW259062   3.338  12.239   2.336
52389SOL     OW59063   4.980  11.515  14.059
52389SOL    HW159064   4.945  11.435  14.020
52389SOL    HW259065   4.905  11.553  14.106
52390SOL     OW59066   5.612   6.891   3.144
52390SOL    HW159067   5.685   6.850   3.097
52390SOL    HW259068   5.603   6.840   3.224
52391SOL     OW59069   9.799   2.916  13.604
52391SOL    HW159070   9.891   2.911  13.581
52391SOL    HW259071   9.798   2.952  13.693
52392SOL     OW59072   7.054  10.997   5.723
52392SOL    HW159073   7.126  11.051   5.755
52392SOL    HW259074   7.092  10.948   5.649
52393SOL     OW59075   7.056   8.773   7.057
52393SOL    HW159076   6.973   8.802   7.095
52393SOL    HW259077   7.115   8.768   7.132
52394SOL     OW59078   1.051   9.080   2.602
52394SOL    HW159079   1.027   9.163   2.560
52394SOL    HW259080   0.994   9.015   2.560
52395SOL     OW59081   1.362  10.565  12.348
52395SOL    HW159082   1.448  10.583  12.387
52395SOL    HW259083   1.329  10.651  12.323
52396SOL     OW59084   9.877  12.695   4.764
52396SOL    HW159085   9.853  12.755   4.693
52396SOL    HW259086   9.915  12.620   4.719
52397SOL     OW59087   0.439   8.385   2.970
52397SOL    HW159088   0.438   8.291   2.988
52397SOL    HW259089   0.368   8.398   2.908
52398SOL     OW59090  12.242  11.958  14.137
52398SOL    HW159091  12.163  11.948  14.190
52398SOL    HW259092  12.236  12.046  14.100
52399SOL     OW59093  11.182   9.500  11.822
52399SOL    HW159094  11.208   9.479  11.732
52399SOL    HW259095  11.130   9.425  11.850
52400SOL     OW59096   0.456   8.996   4.651
52400SOL    HW159097   0.478   8.911   4.691
52400SOL    HW259098   0.541   9.037   4.635
52401SOL     OW59099   3.294   5.245   0.435
52401SOL    HW159100   3.239   5.202   0.369
52401SOL    HW259101   3.298   5.337   0.406
52402SOL     OW59102   1.539   6.108  11.524
52402SOL    HW159103   1.526   6.115  11.429
52402SOL    HW259104   1.452   6.091  11.559
52403SOL     OW59105  13.750  14.406   6.379
52403SOL    HW159106  13.816  14.396   6.448
52403SOL    HW259107  13.684  14.464   6.417
52404SOL     OW59108  13.255   9.744   3.454
52404SOL    HW159109  13.298   9.682   3.395
52404SOL    HW259110  13.166   9.708   3.464
52405SOL     OW59111   0.783   2.647   2.620
52405SOL    HW159112   0.795   2.572   2.678
52405SOL    HW259113   0.851   2.709   2.645
52406SOL     OW59114   0.198   3.370   9.438
52406SOL    HW159115   0.165   3.286   9.472
52406SOL    HW259116   0.148   3.384   9.358
52407SOL     OW59117   2.566  10.423   6.979
52407SOL    HW159118   2.600  10.421   7.069
52407SOL    HW259119   2.474  10.398   6.988
52408SOL     OW59120   0.841   1.345   4.717
52408SOL    HW159121   0.748   1.364   4.704
52408SOL    HW259122   0.872   1.418   4.770
52409SOL     OW59123  14.581   2.270   8.757
52409SOL    HW159124  14.668   2.230   8.756
52409SOL    HW259125  14.544   2.245   8.842
52410SOL     OW59126   8.757  12.837  11.905
52410SOL    HW159127   8.805  12.888  11.971
52410SOL    HW259128   8.797  12.862  11.822
52411SOL     OW59129  13.191   8.261  13.963
52411SOL    HW159130  13.144   8.183  13.994
52411SOL    HW259131  13.126   8.331  13.968
52412SOL     OW59132   1.742   5.787   2.669
52412SOL    HW159133   1.681   5.819   2.736
52412SOL    HW259134   1.704   5.704   2.641
52413SOL     OW59135   3.451  12.423   0.099
52413SOL    HW159136   3.505  12.481   0.045
52413SOL    HW259137   3.436  12.473   0.179
52414SOL     OW59138   8.955   5.930  11.134
52414SOL    HW159139   9.016   5.996  11.168
52414SOL    HW259140   8.964   5.857  11.195
52415SOL     OW59141  13.864  13.571   6.847
52415SOL    HW159142  13.957  13.563   6.823
52415SOL    HW259143  13.829  13.635   6.785
52416SOL     OW59144   7.888   9.677  13.765
52416SOL    HW159145   7.875   9.588  13.797
52416SOL    HW259146   7.949   9.716  13.827
52417SOL     OW59147   9.346   6.283   6.185
52417SOL    HW159148   9.285   6.356   6.189
52417SOL    HW259149   9.329   6.242   6.100
52418SOL     OW59150   1.737   2.117  10.656
52418SOL    HW159151   1.741   2.119  10.752
52418SOL    HW259152   1.799   2.184  10.629
52419SOL     OW59153   5.965   5.236   3.860
52419SOL    HW159154   5.999   5.157   3.902
52419SOL    HW259155   6.021   5.306   3.894
52420SOL     OW59156  14.749  10.917  10.628
52420SOL    HW159157  14.748  10.970  10.708
52420SOL    HW259158  14.680  10.852  10.641
52421SOL     OW59159  12.387   0.185   4.317
52421SOL    HW159160  12.433   0.265   4.293
52421SOL    HW259161  12.296   0.212   4.330
52422SOL     OW59162   8.774  14.830   9.816
52422SOL    HW159163   8.808   0.044   9.849
52422SOL    HW259164   8.822  14.764   9.865
52423SOL     OW59165  10.979  14.414   6.279
52423SOL    HW159166  10.955  14.322   6.268
52423SOL    HW259167  10.938  14.458   6.205
52424SOL     OW59168  13.127   1.453   0.303
52424SOL    HW159169  13.160   1.540   0.327
52424SOL    HW259170  13.083   1.466   0.219
52425SOL     OW59171   8.770   0.540   4.658
52425SOL    HW159172   8.778   0.445   4.655
52425SOL    HW259173   8.711   0.557   4.732
52426SOL     OW59174   1.665  14.188   7.799
52426SOL    HW159175   1.749  14.197   7.753
52426SOL    HW259176   1.688  14.186   7.892
52427SOL     OW59177  13.493  13.882   9.943
52427SOL    HW159178  13.448  13.815   9.995
52427SOL    HW259179  13.575  13.898   9.989
52428SOL     OW59180  12.308   6.956   0.030
52428SOL    HW159181  12.347   6.980  14.816
52428SOL    HW259182  12.316   6.860   0.034
52429SOL     OW59183   8.879   4.047  14.191
52429SOL    HW159184   8.872   4.013  14.102
52429SOL    HW259185   8.803   4.105  14.201
52430SOL     OW59186   4.389   2.373   3.052
52430SOL    HW159187   4.423   2.387   2.963
52430SOL    HW259188   4.299   2.404   3.049
52431SOL     OW59189   4.990   9.953   5.251
52431SOL    HW159190   4.922   9.906   5.299
52431SOL    HW259191   4.944  10.026   5.210
52432SOL     OW59192  12.426   4.701   1.299
52432SOL    HW159193  12.518   4.719   1.319
52432SOL    HW259194  12.379   4.725   1.379
52433SOL     OW59195  10.116   6.998   2.072
52433SOL    HW159196  10.104   6.909   2.039
52433SOL    HW259197  10.086   7.054   2.001
52434SOL     OW59198   6.572   7.107  11.549
52434SOL    HW159199   6.506   7.108  11.479
52434SOL    HW259200   6.554   7.026  11.597
52435SOL     OW59201  14.713   4.705  10.527
52435SOL    HW159202  14.618   4.707  10.514
52435SOL    HW259203  14.734   4.793  10.558
52436SOL     OW59204   3.176   0.130   5.539
52436SOL    HW159205   3.108   0.155   5.478
52436SOL    HW259206   3.149   0.044   5.572
52437SOL     OW59207  13.918  10.171  13.048
52437SOL    HW159208  14.002  10.126  13.046
52437SOL    HW259209  13.929  10.241  13.112
52438SOL     OW59210   0.132   7.544   5.741
52438SOL    HW159211   0.055   7.568   5.793
52438SOL    HW259212   0.146   7.619   5.683
52439SOL     OW59213  11.983   4.145  14.393
52439SOL    HW159214  11.963   4.160  14.486
52439SOL    HW259215  11.909   4.093  14.362
52440SOL     OW59216   4.499   6.125   4.668
52440SOL    HW159217   4.408   6.124   4.638
52440SOL    HW259218   4.543   6.058   4.615
52441SOL     OW59219  11.761   9.133   0.712
52441SOL    HW159220  11.723   9.221   0.718
52441SOL    HW259221  11.840   9.144   0.660
52442SOL     OW59222   5.967  10.242   9.705
52442SOL    HW159223   6.003  10.157   9.732
52442SOL    HW259224   5.972  10.296   9.784
52443SOL     OW59225   8.155  12.246   1.797
52443SOL    HW159226   8.161  12.340   1.781
52443SOL    HW259227   8.245  12.217   1.807
52444SOL     OW59228  13.057  12.057  10.946
52444SOL    HW159229  13.015  12.098  11.022
52444SOL    HW259230  13.108  11.985  10.983
52445SOL     OW59231   9.482   8.886   6.935
52445SOL    HW159232   9.467   8.801   6.894
52445SOL    HW259233   9.577   8.893   6.941
52446SOL     OW59234   1.194  12.515  13.991
52446SOL    HW159235   1.102  12.537  14.002
52446SOL    HW259236   1.205  12.432  14.037
52447SOL     OW59237  10.141  12.251   7.988
52447SOL    HW159238  10.181  12.336   8.005
52447SOL    HW259239  10.048  12.264   8.005
52448SOL     OW59240   0.611   5.057   0.491
52448SOL    HW159241   0.627   4.963   0.494
52448SOL    HW259242   0.657   5.087   0.412
52449SOL     OW59243  14.155   9.516   0.295
52449SOL    HW159244  14.104   9.453   0.345
52449SOL    HW259245  14.104   9.597   0.301
52450SOL     OW59246  13.833  11.893  10.565
52450SOL    HW159247  13.826  11.870  10.472
52450SOL    HW259248  13.911  11.949  10.570
52451SOL     OW59249  11.473  12.614  11.256
52451SOL    HW159250  11.485  12.669  11.179
52451SOL    HW259251  11.383  12.581  11.247
52452SOL     OW59252  12.085  12.418   1.315
52452SOL    HW159253  12.115  12.397   1.404
52452SOL    HW259254  11.993  12.391   1.314
52453SOL     OW59255  11.174  12.889   2.126
52453SOL    HW159256  11.129  12.906   2.209
52453SOL    HW259257  11.244  12.954   2.121
52454SOL     OW59258  13.337   6.526  13.422
52454SOL    HW159259  13.360   6.618  13.433
52454SOL    HW259260  13.416   6.485  13.387
52455SOL     OW59261   8.612   0.243   8.508
52455SOL    HW159262   8.599   0.248   8.603
52455SOL    HW259263   8.594   0.331   8.476
52456SOL     OW59264   3.811   9.840   7.590
52456SOL    HW159265   3.886   9.849   7.531
52456SOL    HW259266   3.735   9.855   7.533
52457SOL     OW59267   4.619   0.475  13.078
52457SOL    HW159268   4.634   0.563  13.044
52457SOL    HW259269   4.655   0.477  13.167
52458SOL     OW59270  11.896   3.200  12.799
52458SOL    HW159271  11.947   3.134  12.844
52458SOL    HW259272  11.948   3.280  12.806
52459SOL     OW59273   0.158   6.857   4.139
52459SOL    HW159274   0.097   6.785   4.129
52459SOL    HW259275   0.232   6.819   4.186
52460SOL     OW59276   2.463   4.589   3.538
52460SOL    HW159277   2.470   4.634   3.622
52460SOL    HW259278   2.413   4.648   3.482
52461SOL     OW59279   3.926  11.450   7.648
52461SOL    HW159280   3.863  11.428   7.717
52461SOL    HW259281   3.980  11.519   7.686
52462SOL     OW59282   8.681   3.034  12.863
52462SOL    HW159283   8.645   2.983  12.790
52462SOL    HW259284   8.696   2.969  12.931
52463SOL     OW59285   2.113  14.005  11.094
52463SOL    HW159286   2.091  13.917  11.123
52463SOL    HW259287   2.104  14.059  11.173
52464SOL     OW59288   8.055   2.192   9.134
52464SOL    HW159289   7.986   2.258   9.144
52464SOL    HW259290   8.033   2.123   9.197
52465SOL     OW59291  12.220   5.542  11.776
52465SOL    HW159292  12.253   5.539  11.865
52465SOL    HW259293  12.299   5.545  11.721
52466SOL     OW59294   0.196  14.471  10.317
52466SOL    HW159295   0.273  14.527  10.324
52466SOL    HW259296   0.137  14.501  10.386
52467SOL     OW59297   5.265   3.086  10.289
52467SOL    HW159298   5.202   3.151  10.319
52467SOL    HW259299   5.334   3.086  10.356
52468SOL     OW59300   7.477  14.135   6.009
52468SOL    HW159301   7.564  14.094   6.011
52468SOL    HW259302   7.416  14.061   6.014
52469SOL     OW59303   1.280   8.753  12.583
52469SOL    HW159304   1.214   8.797  12.636
52469SOL    HW259305   1.358   8.808  12.591
52470SOL     OW59306  14.119  11.238   8.519
52470SOL    HW159307  14.053  11.169   8.522
52470SOL    HW259308  14.159  11.238   8.606
52471SOL     OW59309   3.756   1.231   1.234
52471SOL    HW159310   3.833   1.174   1.239
52471SOL    HW259311   3.702   1.203   1.308
52472SOL     OW59312   7.267  12.453   3.002
52472SOL    HW159313   7.188  12.423   3.046
52472SOL    HW259314   7.321  12.490   3.072
52473SOL     OW59315   2.483  14.454  14.492
52473SOL    HW159316   2.400  14.465  14.445
52473SOL    HW259317   2.535  14.529  14.465
52474SOL     OW59318  14.833   1.223  11.368
52474SOL    HW159319  14.754   1.207  11.419
52474SOL    HW259320   0.002   1.137  11.355
52475SOL     OW59321  12.289   8.425   8.018
52475SOL    HW159322  12.301   8.395   8.108
52475SOL    HW259323  12.371   8.403   7.974
52476SOL     OW59324   2.122   8.538   1.287
52476SOL    HW159325   2.094   8.624   1.316
52476SOL    HW259326   2.200   8.555   1.235
52477SOL     OW59327  14.615   8.402   1.144
52477SOL    HW159328  14.559   8.468   1.105
52477SOL    HW259329  14.648   8.352   1.070
52478SOL     OW59330  11.082   2.397   5.904
52478SOL    HW159331  11.040   2.472   5.862
52478SOL    HW259332  11.092   2.333   5.834
52479SOL     OW59333   2.160  13.774   2.467
52479SOL    HW159334   2.175  13.761   2.560
52479SOL    HW259335   2.224  13.840   2.441
52480SOL     OW59336  14.685   2.934   3.956
52480SOL    HW159337  14.770   2.890   3.959
52480SOL    HW259338  14.669   2.961   4.046
52481SOL     OW59339   5.819  12.047   9.065
52481SOL    HW159340   5.792  12.138   9.051
52481SOL    HW259341   5.829  12.039   9.160
52482SOL     OW59342  13.394   9.201   2.814
52482SOL    HW159343  13.464   9.146   2.850
52482SOL    HW259344  13.405   9.194   2.719
52483SOL     OW59345   9.563  12.771   3.099
52483SOL    HW159346   9.490  12.736   3.150
52483SOL    HW259347   9.539  12.752   3.008
52484SOL     OW59348  14.704  12.874  11.046
52484SOL    HW159349  14.794  12.903  11.063
52484SOL    HW259350  14.714  12.795  10.994
52485SOL     OW59351   6.614   7.273  11.905
52485SOL    HW159352   6.624   7.333  11.979
52485SOL    HW259353   6.672   7.309  11.838
52486SOL     OW59354  11.410   7.115   5.446
52486SOL    HW159355  11.331   7.168   5.444
52486SOL    HW259356  11.416   7.078   5.358
52487SOL     OW59357  11.982   1.209   9.031
52487SOL    HW159358  11.999   1.120   9.002
52487SOL    HW259359  12.069   1.250   9.034
52488SOL     OW59360  13.453   2.193  13.693
52488SOL    HW159361  13.376   2.236  13.655
52488SOL    HW259362  13.468   2.239  13.775
52489SOL     OW59363  11.585  14.775  14.061
52489SOL    HW159364  11.554  14.841  14.000
52489SOL    HW259365  11.615  14.703  14.006
52490SOL     OW59366   6.729   4.305   1.304
52490SOL    HW159367   6.736   4.212   1.281
52490SOL    HW259368   6.819   4.333   1.316
52491SOL     OW59369  13.927   7.420   6.727
52491SOL    HW159370  13.925   7.513   6.702
52491SOL    HW259371  13.890   7.419   6.816
52492SOL     OW59372   0.814   9.707   7.082
52492SOL    HW159373   0.721   9.716   7.103
52492SOL    HW259374   0.825   9.614   7.063
52493SOL     OW59375   6.425   2.665   9.426
52493SOL    HW159376   6.405   2.584   9.379
52493SOL    HW259377   6.340   2.694   9.460
52494SOL     OW59378   9.571  12.117  11.801
52494SOL    HW159379   9.602  12.074  11.721
52494SOL    HW259380   9.515  12.188  11.770
52495SOL     OW59381  11.232  14.789   9.383
52495SOL    HW159382  11.321  14.761   9.404
52495SOL    HW259383  11.242  14.850   9.310
52496SOL     OW59384  12.341  11.413  10.957
52496SOL    HW159385  12.257  11.416  10.911
52496SOL    HW259386  12.351  11.500  10.995
52497SOL     OW59387  13.180   2.955  10.690
52497SOL    HW159388  13.256   3.004  10.657
52497SOL    HW259389  13.111   2.972  10.626
52498SOL     OW59390   5.001   1.530  12.361
52498SOL    HW159391   4.994   1.610  12.413
52498SOL    HW259392   4.913   1.516  12.326
52499SOL     OW59393   1.798   2.318  12.852
52499SOL    HW159394   1.825   2.405  12.879
52499SOL    HW259395   1.866   2.260  12.885
52500SOL     OW59396   5.193   0.948   8.485
52500SOL    HW159397   5.214   0.899   8.565
52500SOL    HW259398   5.154   0.883   8.427
52501SOL     OW59399   5.999   5.863   6.866
52501SOL    HW159400   5.954   5.860   6.782
52501SOL    HW259401   6.089   5.836   6.846
52502SOL     OW59402  14.243  14.427   0.861
52502SOL    HW159403  14.215  14.338   0.840
52502SOL    HW259404  14.267  14.424   0.954
52503SOL     OW59405   6.505   3.239   3.683
52503SOL    HW159406   6.486   3.315   3.628
52503SOL    HW259407   6.435   3.237   3.748
52504SOL     OW59408   8.795  12.404   8.094
52504SOL    HW159409   8.831  12.446   8.015
52504SOL    HW259410   8.825  12.459   8.166
52505SOL     OW59411  14.243  12.325  10.328
52505SOL    HW159412  14.151  12.349  10.321
52505SOL    HW259413  14.277  12.332  10.239
52506SOL     OW59414   6.536   8.199   2.964
52506SOL    HW159415   6.485   8.176   3.041
52506SOL    HW259416   6.488   8.160   2.891
52507SOL     OW59417  13.021  10.359   2.617
52507SOL    HW159418  13.093  10.404   2.573
52507SOL    HW259419  12.962  10.429   2.645
52508SOL     OW59420   3.803   7.108   8.985
52508SOL    HW159421   3.812   7.018   8.956
52508SOL    HW259422   3.710   7.118   9.006
52509SOL     OW59423   6.823   1.580   0.191
52509SOL    HW159424   6.899   1.530   0.221
52509SOL    HW259425   6.861   1.649   0.136
52510SOL     OW59426   5.002  11.232   6.194
52510SOL    HW159427   4.996  11.137   6.205
52510SOL    HW259428   4.982  11.246   6.101
52511SOL     OW59429   0.630  10.437   3.951
52511SOL    HW159430   0.590  10.510   3.904
52511SOL    HW259431   0.687  10.395   3.886
52512SOL     OW59432  12.793   4.892  10.732
52512SOL    HW159433  12.763   4.849  10.812
52512SOL    HW259434  12.783   4.826  10.664
52513SOL     OW59435  13.945   2.733   5.623
52513SOL    HW159436  13.963   2.790   5.548
52513SOL    HW259437  13.851   2.719   5.621
52514SOL     OW59438  12.495   8.118   5.091
52514SOL    HW159439  12.487   8.213   5.089
52514SOL    HW259440  12.469   8.090   5.003
52515SOL     OW59441   1.153  12.483   1.585
52515SOL    HW159442   1.087  12.503   1.652
52515SOL    HW259443   1.111  12.508   1.503
52516SOL     OW59444  12.139  11.878  12.047
52516SOL    HW159445  12.184  11.962  12.038
52516SOL    HW259446  12.156  11.852  12.138
52517SOL     OW59447  14.470   2.911  13.561
52517SOL    HW159448  14.457   2.878  13.473
52517SOL    HW259449  14.423   2.994  13.564
52518SOL     OW59450  13.570   2.127   7.266
52518SOL    HW159451  13.659   2.151   7.241
52518SOL    HW259452  13.578   2.094   7.355
52519SOL     OW59453   4.395   0.431  13.910
52519SOL    HW159454   4.484   0.401  13.926
52519SOL    HW259455   4.362   0.453  13.997
52520SOL     OW59456   2.954   0.889   9.372
52520SOL    HW159457   3.042   0.901   9.339
52520SOL    HW259458   2.944   0.959   9.437
52521SOL     OW59459   8.159   7.572   5.040
52521SOL    HW159460   8.219   7.571   4.966
52521SOL    HW259461   8.074   7.595   5.001
52522SOL     OW59462   1.337   8.771  13.283
52522SOL    HW159463   1.402   8.718  13.238
52522SOL    HW259464   1.360   8.765  13.375
52523SOL     OW59465   8.346  13.349   5.018
52523SOL    HW159466   8.403  13.277   5.046
52523SOL    HW259467   8.292  13.369   5.095
52524SOL     OW59468   4.233  11.442   4.391
52524SOL    HW159469   4.190  11.366   4.352
52524SOL    HW259470   4.209  11.438   4.484
52525SOL     OW59471  13.744   3.332   0.396
52525SOL    HW159472  13.750   3.418   0.356
52525SOL    HW259473  13.653   3.305   0.383
52526SOL     OW59474   5.995  12.017   1.074
52526SOL    HW159475   5.949  11.952   1.127
52526SOL    HW259476   6.050  11.965   1.015
52527SOL     OW59477   8.658  11.017  11.056
52527SOL    HW159478   8.600  10.982  10.988
52527SOL    HW259479   8.704  10.940  11.090
52528SOL     OW59480   5.042   8.384  14.709
52528SOL    HW159481   5.115   8.436  14.741
52528SOL    HW259482   4.965   8.437  14.728
52529SOL     OW59483   6.814  13.698   8.090
52529SOL    HW159484   6.846  13.632   8.028
52529SOL    HW259485   6.770  13.763   8.035
52530SOL     OW59486   5.935  10.652   8.095
52530SOL    HW159487   5.913  10.568   8.135
52530SOL    HW259488   5.979  10.701   8.164
52531SOL     OW59489   5.641  13.876   5.815
52531SOL    HW159490   5.578  13.917   5.755
52531SOL    HW259491   5.716  13.854   5.760
52532SOL     OW59492   0.563  12.167   9.818
52532SOL    HW159493   0.569  12.154   9.723
52532SOL    HW259494   0.470  12.155   9.838
52533SOL     OW59495   5.406   5.185   4.020
52533SOL    HW159496   5.496   5.160   3.999
52533SOL    HW259497   5.415   5.270   4.064
52534SOL     OW59498   5.402  13.714   6.277
52534SOL    HW159499   5.357  13.633   6.254
52534SOL    HW259500   5.470  13.724   6.210
52535SOL     OW59501   3.888   4.674   8.242
52535SOL    HW159502   3.819   4.619   8.280
52535SOL    HW259503   3.945   4.696   8.316
52536SOL     OW59504  10.531   5.323   5.737
52536SOL    HW159505  10.589   5.255   5.702
52536SOL    HW259506  10.462   5.275   5.782
52537SOL     OW59507   8.662  11.603  10.559
52537SOL    HW159508   8.641  11.569  10.472
52537SOL    HW259509   8.629  11.536  10.619
52538SOL     OW59510   0.625   1.620   5.727
52538SOL    HW159511   0.677   1.602   5.649
52538SOL    HW259512   0.542   1.654   5.693
52539SOL     OW59513   2.241   3.360   1.451
52539SOL    HW159514   2.215   3.419   1.380
52539SOL    HW259515   2.290   3.415   1.512
52540SOL     OW59516   6.152   3.526   2.898
52540SOL    HW159517   6.219   3.459   2.893
52540SOL    HW259518   6.192   3.598   2.947
52541SOL     OW59519  11.691   6.056   8.699
52541SOL    HW159520  11.717   6.146   8.718
52541SOL    HW259521  11.771   6.005   8.712
52542SOL     OW59522   1.279   9.798   0.100
52542SOL    HW159523   1.296   9.763   0.012
52542SOL    HW259524   1.183   9.800   0.106
52543SOL     OW59525  10.612   7.175   2.974
52543SOL    HW159526  10.526   7.132   2.977
52543SOL    HW259527  10.653   7.144   2.894
52544SOL     OW59528   2.080   2.016   9.808
52544SOL    HW159529   2.136   2.021   9.731
52544SOL    HW259530   2.122   1.951   9.864
52545SOL     OW59531   8.987   2.366   1.257
52545SOL    HW159532   8.893   2.387   1.261
52545SOL    HW259533   9.015   2.366   1.348
52546SOL     OW59534   6.973   0.735  12.980
52546SOL    HW159535   6.946   0.768  13.066
52546SOL    HW259536   6.909   0.667  12.960
52547SOL     OW59537   2.892   7.998  13.499
52547SOL    HW159538   2.976   8.027  13.464
52547SOL    HW259539   2.830   8.067  13.475
52548SOL     OW59540   0.823   3.850  13.770
52548SOL    HW159541   0.889   3.796  13.726
52548SOL    HW259542   0.863   3.873  13.854
52549SOL     OW59543   0.285  10.120   2.565
52549SOL    HW159544   0.199  10.146   2.596
52549SOL    HW259545   0.301  10.177   2.490
52550SOL     OW59546   3.737   0.124   4.884
52550SOL    HW159547   3.721   0.123   4.978
52550SOL    HW259548   3.654   0.151   4.845
52551SOL     OW59549   2.965  13.489  14.612
52551SOL    HW159550   2.976  13.420  14.546
52551SOL    HW259551   3.029  13.556  14.587
52552SOL     OW59552   1.465   3.876  14.449
52552SOL    HW159553   1.384   3.832  14.474
52552SOL    HW259554   1.437   3.954  14.402
52553SOL     OW59555  12.605   9.724  14.467
52553SOL    HW159556  12.698   9.740  14.449
52553SOL    HW259557  12.569   9.810  14.489
52554SOL     OW59558   9.648  14.689   5.057
52554SOL    HW159559   9.557  14.710   5.076
52554SOL    HW259560   9.646  14.598   5.029
52555SOL     OW59561  11.864   7.825   5.685
52555SOL    HW159562  11.878   7.861   5.597
52555SOL    HW259563  11.872   7.730   5.673
52556SOL     OW59564   7.220  12.525   6.179
52556SOL    HW159565   7.167  12.582   6.123
52556SOL    HW259566   7.281  12.584   6.223
52557SOL     OW59567  10.452   7.826   6.015
52557SOL    HW159568  10.373   7.772   6.020
52557SOL    HW259569  10.503   7.789   5.943
52558SOL     OW59570   0.483   7.054   2.845
52558SOL    HW159571   0.394   7.086   2.828
52558SOL    HW259572   0.535   7.088   2.772
52559SOL     OW59573  10.978  12.129  10.900
52559SOL    HW159574  10.936  12.106  10.817
52559SOL    HW259575  11.007  12.045  10.936
52560SOL     OW59576   5.366  13.567   8.124
52560SOL    HW159577   5.377  13.493   8.065
52560SOL    HW259578   5.380  13.644   8.069
52561SOL     OW59579   1.617   1.958   4.284
52561SOL    HW159580   1.638   2.033   4.340
52561SOL    HW259581   1.568   1.898   4.341
52562SOL     OW59582   2.918   0.761   4.267
52562SOL    HW159583   3.008   0.748   4.239
52562SOL    HW259584   2.867   0.704   4.210
52563SOL     OW59585  12.554   0.709   4.419
52563SOL    HW159586  12.476   0.763   4.408
52563SOL    HW259587  12.548   0.674   4.508
52564SOL     OW59588   2.864   6.299   0.200
52564SOL    HW159589   2.775   6.268   0.217
52564SOL    HW259590   2.883   6.269   0.112
52565SOL     OW59591   4.948   1.140   1.265
52565SOL    HW159592   4.870   1.100   1.229
52565SOL    HW259593   4.935   1.234   1.252
52566SOL     OW59594  10.434  14.681   0.378
52566SOL    HW159595  10.494  14.718   0.313
52566SOL    HW259596  10.368  14.749   0.392
52567SOL     OW59597   9.703   0.889   3.223
52567SOL    HW159598   9.678   0.799   3.244
52567SOL    HW259599   9.780   0.880   3.166
52568SOL     OW59600   2.913   8.926   1.447
52568SOL    HW159601   2.911   9.021   1.462
52568SOL    HW259602   2.836   8.909   1.392
52569SOL     OW59603  10.979   3.854   2.483
52569SOL    HW159604  11.057   3.829   2.533
52569SOL    HW259605  11.004   3.934   2.437
52570SOL     OW59606   6.505  11.092  12.738
52570SOL    HW159607   6.534  11.161  12.797
52570SOL    HW259608   6.578  11.030  12.735
52571SOL     OW59609  14.074  14.349   6.227
52571SOL    HW159610  14.147  14.355   6.166
52571SOL    HW259611  14.013  14.417   6.198
52572SOL     OW59612  10.729  13.732   1.606
52572SOL    HW159613  10.637  13.756   1.616
52572SOL    HW259614  10.727  13.651   1.556
52573SOL     OW59615   6.867   5.279   8.054
52573SOL    HW159616   6.960   5.255   8.052
52573SOL    HW259617   6.865   5.362   8.102
52574SOL     OW59618   4.390  14.726  10.185
52574SOL    HW159619   4.478  14.739  10.149
52574SOL    HW259620   4.384  14.632  10.201
52575SOL     OW59621  10.685   4.579   1.208
52575SOL    HW159622  10.753   4.614   1.151
52575SOL    HW259623  10.603   4.603   1.165
52576SOL     OW59624   4.675   8.072   7.395
52576SOL    HW159625   4.693   8.017   7.319
52576SOL    HW259626   4.585   8.102   7.383
52577SOL     OW59627   4.370  13.715  10.968
52577SOL    HW159628   4.359  13.628  11.007
52577SOL    HW259629   4.462  13.737  10.985
52578SOL     OW59630   7.305  10.735   0.252
52578SOL    HW159631   7.382  10.730   0.196
52578SOL    HW259632   7.251  10.803   0.211
52579SOL     OW59633   3.007   1.409   5.640
52579SOL    HW159634   3.027   1.449   5.555
52579SOL    HW259635   3.060   1.458   5.702
52580SOL     OW59636   3.316  13.635   2.205
52580SOL    HW159637   3.393  13.589   2.173
52580SOL    HW259638   3.244  13.573   2.195
52581SOL     OW59639  13.665  10.394   0.381
52581SOL    HW159640  13.592  10.435   0.426
52581SOL    HW259641  13.665  10.432   0.293
52582SOL     OW59642   1.726  13.418   4.075
52582SOL    HW159643   1.652  13.377   4.031
52582SOL    HW259644   1.801  13.364   4.051
52583SOL     OW59645   7.996   4.737   1.264
52583SOL    HW159646   8.053   4.687   1.205
52583SOL    HW259647   7.930   4.674   1.293
52584SOL     OW59648  11.376   0.120   4.372
52584SOL    HW159649  11.409   0.207   4.352
52584SOL    HW259650  11.310   0.103   4.304
52585SOL     OW59651   9.109  13.711   0.891
52585SOL    HW159652   9.181  13.714   0.954
52585SOL    HW259653   9.141  13.654   0.821
52586SOL     OW59654   3.083   4.419  14.644
52586SOL    HW159655   3.175   4.419  14.672
52586SOL    HW259656   3.069   4.506  14.609
52587SOL     OW59657   6.577  10.634   2.692
52587SOL    HW159658   6.626  10.557   2.721
52587SOL    HW259659   6.636  10.678   2.631
52588SOL     OW59660   4.531   2.275   9.728
52588SOL    HW159661   4.566   2.192   9.761
52588SOL    HW259662   4.437   2.269   9.745
52589SOL     OW59663   5.228  11.056   3.266
52589SOL    HW159664   5.232  11.014   3.352
52589SOL    HW259665   5.138  11.086   3.258
52590SOL     OW59666  13.738   9.604   2.500
52590SOL    HW159667  13.814   9.604   2.442
52590SOL    HW259668  13.664   9.628   2.444
52591SOL     OW59669  11.690   8.742   9.611
52591SOL    HW159670  11.782   8.762   9.596
52591SOL    HW259671  11.643   8.795   9.547
52592SOL     OW59672   1.412   5.564   8.752
52592SOL    HW159673   1.489   5.606   8.789
52592SOL    HW259674   1.340   5.622   8.773
52593SOL     OW59675   7.545   0.356  14.762
52593SOL    HW159676   7.488   0.342  14.686
52593SOL    HW259677   7.543   0.272  14.809
52594SOL     OW59678   7.922  11.187   5.269
52594SOL    HW159679   7.982  11.255   5.238
52594SOL    HW259680   7.958  11.106   5.233
52595SOL     OW59681   4.792   7.473   0.033
52595SOL    HW159682   4.777   7.475   0.127
52595SOL    HW259683   4.884   7.450   0.023
52596SOL     OW59684  11.670  13.621  11.079
52596SOL    HW159685  11.744  13.678  11.100
52596SOL    HW259686  11.709  13.534  11.068
52597SOL     OW59687   9.495   6.054  12.189
52597SOL    HW159688   9.414   6.050  12.241
52597SOL    HW259689   9.487   5.984  12.126
52598SOL     OW59690   7.269  14.294   9.505
52598SOL    HW159691   7.306  14.290   9.593
52598SOL    HW259692   7.255  14.387   9.489
52599SOL     OW59693   9.925   9.289   1.675
52599SOL    HW159694   9.913   9.337   1.594
52599SOL    HW259695   9.950   9.356   1.739
52600SOL     OW59696   6.708  13.496  14.868
52600SOL    HW159697   6.640  13.536  14.813
52600SOL    HW259698   6.672  13.411   0.023
52601SOL     OW59699  11.861  13.159  12.255
52601SOL    HW159700  11.793  13.204  12.205
52601SOL    HW259701  11.929  13.225  12.269
52602SOL     OW59702  12.471   2.575   0.579
52602SOL    HW159703  12.460   2.550   0.487
52602SOL    HW259704  12.516   2.660   0.575
52603SOL     OW59705   6.489   9.270   1.330
52603SOL    HW159706   6.490   9.255   1.236
52603SOL    HW259707   6.577   9.303   1.350
52604SOL     OW59708   8.149   2.150   8.854
52604SOL    HW159709   8.121   2.242   8.854
52604SOL    HW259710   8.147   2.125   8.946
52605SOL     OW59711   1.834   6.287   5.639
52605SOL    HW159712   1.897   6.216   5.654
52605SOL    HW259713   1.858   6.324   5.554
52606SOL     OW59714   6.255   0.928  12.508
52606SOL    HW159715   6.251   0.953  12.415
52606SOL    HW259716   6.226   1.007  12.555
52607SOL     OW59717  13.496   0.754   8.165
52607SOL    HW159718  13.464   0.666   8.148
52607SOL    HW259719  13.467   0.775   8.253
52608SOL     OW59720   0.665   5.647   6.017
52608SOL    HW159721   0.624   5.560   6.024
52608SOL    HW259722   0.718   5.655   6.097
52609SOL     OW59723   0.648  11.691   0.315
52609SOL    HW159724   0.576  11.713   0.256
52609SOL    HW259725   0.683  11.609   0.281
52610SOL     OW59726   5.199   9.448  14.504
52610SOL    HW159727   5.288   9.481  14.494
52610SOL    HW259728   5.208   9.370  14.559
52611SOL     OW59729  10.471   4.361   8.459
52611SOL    HW159730  10.468   4.456   8.456
52611SOL    HW259731  10.498   4.340   8.549
52612SOL     OW59732   8.490   5.070   5.327
52612SOL    HW159733   8.505   5.150   5.276
52612SOL    HW259734   8.395   5.055   5.321
52613SOL     OW59735   3.819   3.535  14.195
52613SOL    HW159736   3.865   3.482  14.260
52613SOL    HW259737   3.888   3.580  14.147
52614SOL     OW59738  11.064   4.691   8.967
52614SOL    HW159739  11.062   4.624   8.899
52614SOL    HW259740  11.157   4.701   8.987
52615SOL     OW59741  10.205   3.148   1.695
52615SOL    HW159742  10.200   3.142   1.790
52615SOL    HW259743  10.293   3.180   1.676
52616SOL     OW59744   0.724  11.497   3.168
52616SOL    HW159745   0.759  11.415   3.202
52616SOL    HW259746   0.752  11.563   3.231
52617SOL     OW59747   5.835   0.640   1.718
52617SOL    HW159748   5.891   0.670   1.646
52617SOL    HW259749   5.763   0.702   1.722
52618SOL     OW59750  12.248   9.442   2.246
52618SOL    HW159751  12.331   9.482   2.221
52618SOL    HW259752  12.255   9.351   2.218
52619SOL     OW59753   4.086   9.002   9.302
52619SOL    HW159754   4.075   8.981   9.395
52619SOL    HW259755   4.150   9.073   9.301
52620SOL     OW59756   1.709  12.969   3.619
52620SOL    HW159757   1.802  12.975   3.598
52620SOL    HW259758   1.705  12.981   3.714
52621SOL     OW59759   9.726  10.115   0.436
52621SOL    HW159760   9.793  10.082   0.377
52621SOL    HW259761   9.645  10.108   0.386
52622SOL     OW59762   3.434   1.938  12.909
52622SOL    HW159763   3.370   2.004  12.935
52622SOL    HW259764   3.511   1.956  12.963
52623SOL     OW59765   0.086   8.030   4.289
52623SOL    HW159766   0.129   8.102   4.244
52623SOL    HW259767   0.157   7.985   4.336
52624SOL     OW59768   8.393   4.612   5.980
52624SOL    HW159769   8.463   4.572   5.929
52624SOL    HW259770   8.328   4.639   5.915
52625SOL     OW59771   8.990   9.151   4.756
52625SOL    HW159772   9.022   9.063   4.738
52625SOL    HW259773   8.924   9.167   4.688
52626SOL     OW59774   1.609   4.917  14.007
52626SOL    HW159775   1.600   4.954  13.919
52626SOL    HW259776   1.699   4.886  14.011
52627SOL     OW59777   3.964   2.844   3.150
52627SOL    HW159778   3.985   2.767   3.096
52627SOL    HW259779   3.991   2.819   3.238
52628SOL     OW59780   0.572   8.545   1.133
52628SOL    HW159781   0.575   8.570   1.041
52628SOL    HW259782   0.628   8.609   1.177
52629SOL     OW59783   6.571   8.043   6.867
52629SOL    HW159784   6.618   8.119   6.900
52629SOL    HW259785   6.632   7.970   6.876
52630SOL     OW59786  10.419   0.676  11.405
52630SOL    HW159787  10.502   0.685  11.452
52630SOL    HW259788  10.407   0.581  11.397
52631SOL     OW59789   2.923   2.397   9.985
52631SOL    HW159790   2.862   2.458  10.026
52631SOL    HW259791   2.980   2.369  10.056
52632SOL     OW59792   1.889   5.644  13.820
52632SOL    HW159793   1.844   5.592  13.752
52632SOL    HW259794   1.878   5.735  13.791
52633SOL     OW59795  11.238  13.060   4.030
52633SOL    HW159796  11.261  12.983   3.978
52633SOL    HW259797  11.313  13.074   4.087
52634SOL     OW59798   4.632   8.075  12.851
52634SOL    HW159799   4.576   8.089  12.928
52634SOL    HW259800   4.719   8.102  12.880
52635SOL     OW59801   5.365  11.361   0.077
52635SOL    HW159802   5.271  11.368   0.093
52635SOL    HW259803   5.405  11.423   0.139
52636SOL     OW59804  13.530  14.467   2.191
52636SOL    HW159805  13.516  14.555   2.156
52636SOL    HW259806  13.445  14.443   2.229
52637SOL     OW59807  10.224   2.708   0.448
52637SOL    HW159808  10.304   2.749   0.482
52637SOL    HW259809  10.201   2.760   0.371
52638SOL     OW59810   7.686   1.289   3.685
52638SOL    HW159811   7.709   1.373   3.646
52638SOL    HW259812   7.665   1.232   3.611
52639SOL     OW59813   7.030   1.970   8.577
52639SOL    HW159814   6.934   1.970   8.575
52639SOL    HW259815   7.054   1.878   8.565
52640SOL     OW59816  12.325   4.786   3.196
52640SOL    HW159817  12.290   4.700   3.174
52640SOL    HW259818  12.248   4.844   3.197
52641SOL     OW59819   8.796   7.719   2.706
52641SOL    HW159820   8.817   7.681   2.791
52641SOL    HW259821   8.702   7.737   2.710
52642SOL     OW59822   2.406   4.940   9.156
52642SOL    HW159823   2.415   4.923   9.250
52642SOL    HW259824   2.320   4.906   9.133
52643SOL     OW59825   7.883  10.730  11.352
52643SOL    HW159826   7.883  10.654  11.293
52643SOL    HW259827   7.929  10.700  11.430
52644SOL     OW59828   5.356   2.395   4.802
52644SOL    HW159829   5.386   2.473   4.755
52644SOL    HW259830   5.267   2.416   4.829
52645SOL     OW59831   3.858   9.187  11.516
52645SOL    HW159832   3.775   9.208  11.473
52645SOL    HW259833   3.894   9.114  11.465
52646SOL     OW59834   6.027   6.357   1.917
52646SOL    HW159835   5.941   6.326   1.887
52646SOL    HW259836   6.007   6.416   1.989
52647SOL     OW59837   2.348   8.825  10.731
52647SOL    HW159838   2.290   8.789  10.798
52647SOL    HW259839   2.289   8.863  10.666
52648SOL     OW59840   0.999   6.815   4.841
52648SOL    HW159841   1.001   6.845   4.750
52648SOL    HW259842   0.920   6.761   4.847
52649SOL     OW59843  12.278   6.131   3.881
52649SOL    HW159844  12.367   6.162   3.892
52649SOL    HW259845  12.224   6.197   3.924
52650SOL     OW59846  10.937   0.709  13.771
52650SOL    HW159847  10.943   0.757  13.689
52650SOL    HW259848  10.847   0.676  13.773
52651SOL     OW59849  14.526   2.095   6.695
52651SOL    HW159850  14.589   2.119   6.763
52651SOL    HW259851  14.505   2.178   6.651
52652SOL     OW59852   7.726   6.876   0.153
52652SOL    HW159853   7.801   6.928   0.126
52652SOL    HW259854   7.650   6.931   0.135
52653SOL     OW59855  14.850   2.039   7.272
52653SOL    HW159856  14.803   1.967   7.314
52653SOL    HW259857   0.047   2.064   7.335
52654SOL     OW59858   8.047   5.047  10.945
52654SOL    HW159859   8.003   5.129  10.967
52654SOL    HW259860   8.022   5.031  10.853
52655SOL     OW59861  11.496   0.892   5.853
52655SOL    HW159862  11.412   0.848   5.835
52655SOL    HW259863  11.473   0.985   5.855
52656SOL     OW59864   5.356   0.862   3.209
52656SOL    HW159865   5.363   0.950   3.175
52656SOL    HW259866   5.287   0.868   3.276
52657SOL     OW59867  12.646   5.110  12.381
52657SOL    HW159868  12.602   5.051  12.320
52657SOL    HW259869  12.732   5.125  12.342
52658SOL     OW59870   9.077   1.199   5.068
52658SOL    HW159871   9.045   1.157   5.149
52658SOL    HW259872   9.041   1.145   4.998
52659SOL     OW59873   0.273   7.269  10.256
52659SOL    HW159874   0.311   7.354  10.279
52659SOL    HW259875   0.191   7.290  10.212
52660SOL     OW59876   7.521  11.013  11.330
52660SOL    HW159877   7.572  11.087  11.360
52660SOL    HW259878   7.485  11.041  11.246
52661SOL     OW59879   3.096   6.081   5.264
52661SOL    HW159880   3.025   6.123   5.214
52661SOL    HW259881   3.150   6.153   5.294
52662SOL     OW59882   7.480   1.867  10.178
52662SOL    HW159883   7.523   1.935  10.231
52662SOL    HW259884   7.552   1.822  10.135
52663SOL     OW59885   2.631   4.472   7.212
52663SOL    HW159886   2.674   4.387   7.221
52663SOL    HW259887   2.567   4.458   7.142
52664SOL     OW59888   7.867  12.388   9.088
52664SOL    HW159889   7.871  12.383   9.184
52664SOL    HW259890   7.934  12.327   9.058
52665SOL     OW59891  12.796   7.949  13.488
52665SOL    HW159892  12.867   8.013  13.493
52665SOL    HW259893  12.824   7.878  13.547
52666SOL     OW59894   1.339   7.216   1.118
52666SOL    HW159895   1.306   7.180   1.200
52666SOL    HW259896   1.369   7.304   1.140
52667SOL     OW59897  10.254   8.644  14.042
52667SOL    HW159898  10.270   8.601  13.958
52667SOL    HW259899  10.159   8.642  14.053
52668SOL     OW59900   0.882   2.533  11.921
52668SOL    HW159901   0.844   2.494  12.000
52668SOL    HW259902   0.951   2.591  11.953
52669SOL     OW59903   6.857   9.978   0.038
52669SOL    HW159904   6.875   9.939   0.124
52669SOL    HW259905   6.846   9.904  14.849
52670SOL     OW59906   4.293  10.269   1.814
52670SOL    HW159907   4.374  10.264   1.865
52670SOL    HW259908   4.281  10.180   1.780
52671SOL     OW59909   5.616   8.496  10.082
52671SOL    HW159910   5.528   8.502  10.043
52671SOL    HW259911   5.675   8.513  10.010
52672SOL     OW59912   1.349  12.595   5.657
52672SOL    HW159913   1.259  12.563   5.668
52672SOL    HW259914   1.353  12.674   5.711
52673SOL     OW59915   7.141   0.422  13.902
52673SOL    HW159916   7.090   0.494  13.938
52673SOL    HW259917   7.183   0.458  13.823
52674SOL     OW59918   2.550   4.260  12.146
52674SOL    HW159919   2.523   4.316  12.073
52674SOL    HW259920   2.638   4.289  12.168
52675SOL     OW59921  14.108   4.342  11.840
52675SOL    HW159922  14.152   4.422  11.814
52675SOL    HW259923  14.166   4.272  11.808
52676SOL     OW59924   4.023  10.712   8.646
52676SOL    HW159925   4.035  10.775   8.717
52676SOL    HW259926   3.937  10.733   8.610
52677SOL     OW59927   2.660   0.019   0.974
52677SOL    HW159928   2.698  14.802   0.962
52677SOL    HW259929   2.570   0.002   1.004
52678SOL     OW59930   6.217   5.131   2.808
52678SOL    HW159931   6.308   5.102   2.819
52678SOL    HW259932   6.190   5.094   2.724
52679SOL     OW59933   7.133  11.297  10.914
52679SOL    HW159934   7.072  11.224  10.924
52679SOL    HW259935   7.169  11.310  11.001
52680SOL     OW59936   5.116  12.117   7.202
52680SOL    HW159937   5.087  12.026   7.216
52680SOL    HW259938   5.068  12.145   7.124
52681SOL     OW59939   2.995   2.443   7.287
52681SOL    HW159940   3.055   2.515   7.266
52681SOL    HW259941   2.919   2.458   7.230
52682SOL     OW59942   7.861   6.794   0.391
52682SOL    HW159943   7.812   6.813   0.310
52682SOL    HW259944   7.815   6.720   0.430
52683SOL     OW59945   4.004   1.223   9.977
52683SOL    HW159946   3.949   1.158  10.022
52683SOL    HW259947   3.948   1.300   9.970
52684SOL     OW59948   9.555   3.217  13.929
52684SOL    HW159949   9.497   3.255  13.863
52684SOL    HW259950   9.496   3.190  13.999
52685SOL     OW59951   0.097   4.836   6.329
52685SOL    HW159952   0.166   4.852   6.393
52685SOL    HW259953   0.043   4.767   6.368
52686SOL     OW59954   0.723   7.303  13.156
52686SOL    HW159955   0.647   7.248  13.137
52686SOL    HW259956   0.744   7.285  13.248
52687SOL     OW59957   7.210  12.835   1.521
52687SOL    HW159958   7.217  12.924   1.486
52687SOL    HW259959   7.172  12.785   1.449
52688SOL     OW59960   3.480   4.378   1.410
52688SOL    HW159961   3.523   4.342   1.332
52688SOL    HW259962   3.463   4.302   1.465
52689SOL     OW59963   0.075  14.374   7.452
52689SOL    HW159964   0.028  14.414   7.525
52689SOL    HW259965   0.066  14.280   7.466
52690SOL     OW59966   7.376   2.250  10.513
52690SOL    HW159967   7.342   2.251  10.603
52690SOL    HW259968   7.471   2.239  10.524
52691SOL     OW59969  10.073   9.943  10.300
52691SOL    HW159970  10.047   9.953  10.209
52691SOL    HW259971  10.003   9.983  10.350
52692SOL     OW59972   9.677   1.304   0.555
52692SOL    HW159973   9.590   1.299   0.517
52692SOL    HW259974   9.705   1.395   0.539
52693SOL     OW59975  11.457  11.720   1.702
52693SOL    HW159976  11.436  11.806   1.737
52693SOL    HW259977  11.378  11.693   1.655
52694SOL     OW59978  10.365   7.003  10.834
52694SOL    HW159979  10.424   6.959  10.773
52694SOL    HW259980  10.308   6.934  10.867
52695SOL     OW59981  13.189   4.084  14.307
52695SOL    HW159982  13.207   4.155  14.246
52695SOL    HW259983  13.117   4.036  14.267
52696SOL     OW59984   4.326  11.272   2.805
52696SOL    HW159985   4.259  11.320   2.757
52696SOL    HW259986   4.349  11.199   2.748
52697SOL     OW59987   1.468   3.401   3.450
52697SOL    HW159988   1.491   3.308   3.448
52697SOL    HW259989   1.534   3.443   3.395
52698SOL     OW59990   0.328   2.204   1.606
52698SOL    HW159991   0.371   2.121   1.586
52698SOL    HW259992   0.279   2.225   1.527
52699SOL     OW59993   0.622  13.348  12.053
52699SOL    HW159994   0.686  13.419  12.056
52699SOL    HW259995   0.672  13.270  12.073
52700SOL     OW59996   4.075   1.063   5.055
52700SOL    HW159997   4.035   1.136   5.008
52700SOL    HW259998   4.169   1.073   5.039
52701SOL     OW59999   0.888   7.814   8.504
52701SOL    HW160000   0.902   7.896   8.456
52701SOL    HW260001   0.965   7.761   8.483
52702SOL     OW60002   3.383   8.560   5.355
52702SOL    HW160003   3.429   8.514   5.425
52702SOL    HW260004   3.304   8.508   5.340
52703SOL     OW60005  10.203   5.783  13.505
52703SOL    HW160006  10.173   5.783  13.596
52703SOL    HW260007  10.138   5.836  13.458
52704SOL     OW60008   9.530  12.447   7.407
52704SOL    HW160009   9.509  12.539   7.419
52704SOL    HW260010   9.616  12.447   7.366
52705SOL     OW60011   5.666  13.651   7.929
52705SOL    HW160012   5.703  13.692   7.851
52705SOL    HW260013   5.698  13.561   7.926
52706SOL     OW60014   8.593   7.101   1.244
52706SOL    HW160015   8.641   7.019   1.257
52706SOL    HW260016   8.506   7.085   1.280
52707SOL     OW60017   6.313  14.008   2.998
52707SOL    HW160018   6.344  13.918   2.989
52707SOL    HW260019   6.220  13.999   3.017
52708SOL     OW60020   3.035   1.246  10.873
52708SOL    HW160021   3.114   1.251  10.926
52708SOL    HW260022   3.012   1.153  10.872
52709SOL     OW60023   0.788  13.303   3.931
52709SOL    HW160024   0.753  13.379   3.977
52709SOL    HW260025   0.716  13.273   3.875
52710SOL     OW60026   3.366   4.719   6.699
52710SOL    HW160027   3.446   4.689   6.657
52710SOL    HW260028   3.297   4.664   6.663
52711SOL     OW60029   2.683   6.264   7.065
52711SOL    HW160030   2.771   6.273   7.030
52711SOL    HW260031   2.635   6.338   7.028
52712SOL     OW60032   2.574   7.941   4.825
52712SOL    HW160033   2.505   8.000   4.794
52712SOL    HW260034   2.633   7.932   4.750
52713SOL     OW60035   0.356   9.990  13.148
52713SOL    HW160036   0.378  10.060  13.086
52713SOL    HW260037   0.428   9.928  13.140
52714SOL     OW60038  11.113  14.578  13.428
52714SOL    HW160039  11.095  14.538  13.342
52714SOL    HW260040  11.044  14.544  13.485
52715SOL     OW60041  11.219  14.844   2.133
52715SOL    HW160042  11.241   0.041   2.068
52715SOL    HW260043  11.275  14.864   2.208
52716SOL     OW60044   1.667   3.261  10.084
52716SOL    HW160045   1.746   3.207  10.090
52716SOL    HW260046   1.628   3.237  10.000
52717SOL     OW60047   6.214  12.180   6.489
52717SOL    HW160048   6.297  12.227   6.484
52717SOL    HW260049   6.202  12.143   6.402
52718SOL     OW60050  12.666  11.637   7.542
52718SOL    HW160051  12.678  11.732   7.541
52718SOL    HW260052  12.591  11.622   7.485
52719SOL     OW60053  13.706   0.615   8.530
52719SOL    HW160054  13.644   0.554   8.490
52719SOL    HW260055  13.725   0.577   8.616
52720SOL     OW60056   7.512  12.293   2.734
52720SOL    HW160057   7.510  12.266   2.642
52720SOL    HW260058   7.437  12.351   2.743
52721SOL     OW60059  14.392   9.363   7.012
52721SOL    HW160060  14.306   9.364   6.970
52721SOL    HW260061  14.436   9.442   6.979
52722SOL     OW60062   3.766   6.512  13.986
52722SOL    HW160063   3.854   6.490  13.955
52722SOL    HW260064   3.773   6.603  14.015
52723SOL     OW60065   6.230   1.899   0.435
52723SOL    HW160066   6.142   1.927   0.408
52723SOL    HW260067   6.254   1.831   0.372
52724SOL     OW60068  12.170   1.554  13.970
52724SOL    HW160069  12.151   1.491  14.039
52724SOL    HW260070  12.107   1.534  13.901
52725SOL     OW60071   8.134   4.306   2.762
52725SOL    HW160072   8.186   4.303   2.842
52725SOL    HW260073   8.047   4.334   2.791
52726SOL     OW60074   9.618  12.792  11.092
52726SOL    HW160075   9.538  12.824  11.052
52726SOL    HW260076   9.655  12.868  11.138
52727SOL     OW60077   7.824  10.597   8.737
52727SOL    HW160078   7.730  10.579   8.730
52727SOL    HW260079   7.844  10.585   8.829
52728SOL     OW60080   0.046  11.420  14.368
52728SOL    HW160081   0.133  11.440  14.335
52728SOL    HW260082  14.860  11.422  14.290
52729SOL     OW60083   2.241  12.046  12.224
52729SOL    HW160084   2.146  12.037  12.232
52729SOL    HW260085   2.258  12.138  12.244
52730SOL     OW60086   8.565  12.270  12.768
52730SOL    HW160087   8.528  12.315  12.844
52730SOL    HW260088   8.508  12.296  12.695
52731SOL     OW60089   5.916  14.168   5.225
52731SOL    HW160090   5.916  14.095   5.287
52731SOL    HW260091   5.896  14.127   5.140
52732SOL     OW60092   9.592   5.172   7.412
52732SOL    HW160093   9.664   5.233   7.399
52732SOL    HW260094   9.529   5.195   7.344
52733SOL     OW60095   8.739  14.783  14.801
52733SOL    HW160096   8.750   0.007  14.818
52733SOL    HW260097   8.668  14.777  14.738
52734SOL     OW60098  11.301   2.916   7.528
52734SOL    HW160099  11.337   2.899   7.615
52734SOL    HW260100  11.315   3.009   7.513
52735SOL     OW60101   1.615  13.660   3.690
52735SOL    HW160102   1.542  13.703   3.733
52735SOL    HW260103   1.658  13.729   3.640
52736SOL     OW60104   8.384   9.369  13.369
52736SOL    HW160105   8.463   9.420  13.386
52736SOL    HW260106   8.399   9.286  13.414
52737SOL     OW60107   6.784   3.768   9.271
52737SOL    HW160108   6.813   3.848   9.227
52737SOL    HW260109   6.861   3.737   9.317
52738SOL     OW60110  13.971  12.983   3.630
52738SOL    HW160111  13.880  12.972   3.600
52738SOL    HW260112  13.991  12.901   3.675
52739SOL     OW60113   3.256  12.241  14.203
52739SOL    HW160114   3.182  12.228  14.144
52739SOL    HW260115   3.222  12.299  14.272
52740SOL     OW60116   6.616   1.964   3.495
52740SOL    HW160117   6.587   2.013   3.572
52740SOL    HW260118   6.608   1.872   3.521
52741SOL     OW60119   1.888   1.188   7.038
52741SOL    HW160120   1.929   1.245   6.973
52741SOL    HW260121   1.945   1.111   7.041
52742SOL     OW60122   7.121   3.496  10.946
52742SOL    HW160123   7.189   3.537  10.892
52742SOL    HW260124   7.051   3.561  10.949
52743SOL     OW60125   5.339   2.491   3.935
52743SOL    HW160126   5.265   2.469   3.879
52743SOL    HW260127   5.321   2.581   3.963
52744SOL     OW60128   9.896   5.125  13.365
52744SOL    HW160129   9.877   5.033  13.382
52744SOL    HW260130   9.953   5.124  13.288
52745SOL     OW60131   6.123   0.686   3.954
52745SOL    HW160132   6.047   0.734   3.988
52745SOL    HW260133   6.148   0.733   3.875
52746SOL     OW60134  12.601  10.849   9.972
52746SOL    HW160135  12.599  10.787  10.045
52746SOL    HW260136  12.544  10.920  10.000
52747SOL     OW60137   7.097   9.294   2.050
52747SOL    HW160138   7.067   9.260   2.134
52747SOL    HW260139   7.148   9.222   2.012
52748SOL     OW60140   4.372   4.589   6.270
52748SOL    HW160141   4.420   4.510   6.246
52748SOL    HW260142   4.371   4.641   6.189
52749SOL     OW60143   3.822  13.447  14.517
52749SOL    HW160144   3.872  13.461  14.437
52749SOL    HW260145   3.743  13.499  14.506
52750SOL     OW60146   3.986  10.687   2.768
52750SOL    HW160147   3.928  10.614   2.746
52750SOL    HW260148   4.074  10.654   2.750
52751SOL     OW60149   5.749   7.149   4.676
52751SOL    HW160150   5.829   7.118   4.635
52751SOL    HW260151   5.778   7.195   4.754
52752SOL     OW60152   3.487   3.879  13.412
52752SOL    HW160153   3.492   3.887  13.507
52752SOL    HW260154   3.433   3.801  13.397
52753SOL     OW60155  10.445   3.065  13.607
52753SOL    HW160156  10.417   3.092  13.695
52753SOL    HW260157  10.516   3.126  13.585
52754SOL     OW60158  12.207   1.307   1.661
52754SOL    HW160159  12.261   1.320   1.582
52754SOL    HW260160  12.207   1.213   1.675
52755SOL     OW60161   9.957   2.000   1.336
52755SOL    HW160162   9.935   1.931   1.273
52755SOL    HW260163  10.053   2.003   1.335
52756SOL     OW60164   9.554  10.801   8.791
52756SOL    HW160165   9.552  10.871   8.857
52756SOL    HW260166   9.592  10.726   8.837
52757SOL     OW60167  10.071   9.238   4.461
52757SOL    HW160168  10.148   9.265   4.412
52757SOL    HW260169  10.034   9.319   4.495
52758SOL     OW60170  12.242  11.848   5.345
52758SOL    HW160171  12.185  11.798   5.405
52758SOL    HW260172  12.194  11.849   5.262
52759SOL     OW60173   7.974   8.543   7.022
52759SOL    HW160174   7.917   8.475   6.985
52759SOL    HW260175   8.001   8.507   7.106
52760SOL     OW60176  12.241   6.515   9.860
52760SOL    HW160177  12.189   6.435   9.863
52760SOL    HW260178  12.185   6.577   9.812
52761SOL     OW60179   8.047   7.954   9.988
52761SOL    HW160180   8.048   8.037   9.942
52761SOL    HW260181   8.123   7.956  10.046
52762SOL     OW60182   7.137   9.458   0.676
52762SOL    HW160183   7.166   9.445   0.766
52762SOL    HW260184   7.097   9.375   0.651
52763SOL     OW60185   9.135   8.383  12.362
52763SOL    HW160186   9.093   8.463  12.329
52763SOL    HW260187   9.122   8.319  12.292
52764SOL     OW60188  11.765   9.242   8.416
52764SOL    HW160189  11.841   9.184   8.423
52764SOL    HW260190  11.774   9.302   8.489
52765SOL     OW60191   1.002  11.820  11.982
52765SOL    HW160192   0.925  11.779  11.942
52765SOL    HW260193   1.055  11.849  11.908
52766SOL     OW60194  14.045  12.057   0.180
52766SOL    HW160195  14.132  12.022   0.198
52766SOL    HW260196  14.059  12.150   0.166
52767SOL     OW60197  10.057  11.898   0.856
52767SOL    HW160198  10.111  11.969   0.822
52767SOL    HW260199   9.998  11.940   0.919
52768SOL     OW60200  12.460   1.770   3.877
52768SOL    HW160201  12.412   1.835   3.827
52768SOL    HW260202  12.406   1.754   3.955
52769SOL     OW60203   1.978   9.732   7.527
52769SOL    HW160204   1.995   9.778   7.445
52769SOL    HW260205   2.066   9.713   7.561
52770SOL     OW60206   3.538   6.478   7.955
52770SOL    HW160207   3.520   6.555   8.008
52770SOL    HW260208   3.464   6.471   7.895
52771SOL     OW60209  12.495  13.732   3.765
52771SOL    HW160210  12.406  13.756   3.739
52771SOL    HW260211  12.482  13.672   3.839
52772SOL     OW60212  10.316  12.988  10.411
52772SOL    HW160213  10.226  12.965  10.387
52772SOL    HW260214  10.364  12.987  10.328
52773SOL     OW60215   3.190   9.574   7.886
52773SOL    HW160216   3.102   9.553   7.855
52773SOL    HW260217   3.235   9.489   7.893
52774SOL     OW60218  11.310   0.323   1.231
52774SOL    HW160219  11.341   0.347   1.318
52774SOL    HW260220  11.358   0.380   1.171
52775SOL     OW60221   7.919   6.310  14.038
52775SOL    HW160222   7.889   6.288  14.126
52775SOL    HW260223   8.001   6.262  14.028
52776SOL     OW60224   8.369  11.896  12.870
52776SOL    HW160225   8.458  11.930  12.864
52776SOL    HW260226   8.328  11.947  12.940
52777SOL     OW60227   7.350  10.401   6.867
52777SOL    HW160228   7.403  10.324   6.890
52777SOL    HW260229   7.263  10.366   6.849
52778SOL     OW60230  10.278  13.734  12.971
52778SOL    HW160231  10.285  13.670  12.900
52778SOL    HW260232  10.368  13.760  12.988
52779SOL     OW60233   4.571   4.437   4.040
52779SOL    HW160234   4.536   4.491   3.969
52779SOL    HW260235   4.618   4.366   3.995
52780SOL     OW60236   0.844   6.081   9.935
52780SOL    HW160237   0.865   6.167   9.899
52780SOL    HW260238   0.773   6.098   9.997
52781SOL     OW60239  14.336  10.537   5.335
52781SOL    HW160240  14.329  10.536   5.431
52781SOL    HW260241  14.430  10.550   5.318
52782SOL     OW60242  13.500   6.206   4.323
52782SOL    HW160243  13.562   6.275   4.298
52782SOL    HW260244  13.436   6.250   4.379
52783SOL     OW60245   2.756   7.896  14.127
52783SOL    HW160246   2.756   7.980  14.174
52783SOL    HW260247   2.805   7.837  14.184
52784SOL     OW60248   0.204   0.995  12.420
52784SOL    HW160249   0.119   1.039  12.428
52784SOL    HW260250   0.259   1.056  12.372
52785SOL     OW60251  11.786   5.160   3.759
52785SOL    HW160252  11.699   5.178   3.722
52785SOL    HW260253  11.769   5.105   3.835
52786SOL     OW60254   7.504   0.544   0.125
52786SOL    HW160255   7.480   0.509   0.040
52786SOL    HW260256   7.498   0.639   0.115
52787SOL     OW60257  14.489   4.443  11.814
52787SOL    HW160258  14.450   4.381  11.752
52787SOL    HW260259  14.509   4.391  11.892
52788SOL     OW60260   1.912   0.554  11.415
52788SOL    HW160261   1.976   0.624  11.432
52788SOL    HW260262   1.961   0.473  11.430
52789SOL     OW60263  13.769   9.473   2.156
52789SOL    HW160264  13.725   9.473   2.071
52789SOL    HW260265  13.709   9.520   2.214
52790SOL     OW60266  10.161   6.640   9.338
52790SOL    HW160267  10.235   6.689   9.374
52790SOL    HW260268  10.190   6.549   9.338
52791SOL     OW60269   5.506   8.861   9.809
52791SOL    HW160270   5.481   8.950   9.831
52791SOL    HW260271   5.568   8.835   9.878
52792SOL     OW60272   3.767  12.247   1.582
52792SOL    HW160273   3.764  12.336   1.618
52792SOL    HW260274   3.859  12.232   1.564
52793SOL     OW60275   5.919   3.756  12.623
52793SOL    HW160276   5.976   3.803  12.685
52793SOL    HW260277   5.972   3.683  12.593
52794SOL     OW60278   4.928   8.041   4.003
52794SOL    HW160279   4.884   8.027   4.087
52794SOL    HW260280   4.858   8.033   3.938
52795SOL     OW60281  14.540   2.260  10.163
52795SOL    HW160282  14.514   2.348  10.188
52795SOL    HW260283  14.635   2.259  10.175
52796SOL     OW60284  14.067  14.045   5.120
52796SOL    HW160285  14.106  14.077   5.201
52796SOL    HW260286  14.022  13.964   5.145
52797SOL     OW60287  13.326   1.553  12.382
52797SOL    HW160288  13.330   1.621  12.449
52797SOL    HW260289  13.409   1.561  12.336
52798SOL     OW60290   1.737   8.499   0.068
52798SOL    HW160291   1.828   8.528   0.070
52798SOL    HW260292   1.739   8.417   0.018
52799SOL     OW60293   3.887  10.364   6.823
52799SOL    HW160294   3.954  10.418   6.865
52799SOL    HW260295   3.919  10.275   6.831
52800SOL     OW60296   6.551   7.183   3.635
52800SOL    HW160297   6.489   7.192   3.707
52800SOL    HW260298   6.538   7.093   3.603
52801SOL     OW60299   2.621  12.291   7.470
52801SOL    HW160300   2.611  12.224   7.538
52801SOL    HW260301   2.712  12.320   7.478
52802SOL     OW60302   7.565  11.943   1.541
52802SOL    HW160303   7.535  11.934   1.632
52802SOL    HW260304   7.585  11.853   1.514
52803SOL     OW60305   3.342  13.336  10.941
52803SOL    HW160306   3.361  13.395  11.014
52803SOL    HW260307   3.334  13.249  10.981
52804SOL     OW60308   9.508   9.264   4.612
52804SOL    HW160309   9.591   9.286   4.571
52804SOL    HW260310   9.448   9.251   4.538
52805SOL     OW60311  10.091   5.150   1.612
52805SOL    HW160312  10.122   5.235   1.642
52805SOL    HW260313  10.083   5.159   1.517
52806SOL     OW60314  12.120   3.884   2.237
52806SOL    HW160315  12.035   3.925   2.247
52806SOL    HW260316  12.167   3.903   2.318
52807SOL     OW60317   3.305   4.452   9.955
52807SOL    HW160318   3.252   4.524   9.919
52807SOL    HW260319   3.274   4.374   9.909
52808SOL     OW60320  10.714   0.056   9.812
52808SOL    HW160321  10.621   0.064   9.835
52808SOL    HW260322  10.717   0.076   9.718
52809SOL     OW60323   4.976  12.230   9.547
52809SOL    HW160324   4.962  12.152   9.494
52809SOL    HW260325   4.896  12.237   9.600
52810SOL     OW60326   8.879  12.205  11.717
52810SOL    HW160327   8.813  12.139  11.739
52810SOL    HW260328   8.960  12.155  11.708
52811SOL     OW60329   5.846   6.986   3.589
52811SOL    HW160330   5.756   6.970   3.617
52811SOL    HW260331   5.891   7.015   3.668
52812SOL     OW60332   7.791  11.335   5.934
52812SOL    HW160333   7.753  11.258   5.976
52812SOL    HW260334   7.726  11.361   5.869
52813SOL     OW60335   7.530  13.845   1.718
52813SOL    HW160336   7.514  13.867   1.626
52813SOL    HW260337   7.606  13.898   1.743
52814SOL     OW60338   6.951   9.391  14.822
52814SOL    HW160339   6.862   9.392  14.787
52814SOL    HW260340   6.942   9.420   0.043
52815SOL     OW60341   3.415  11.252   0.612
52815SOL    HW160342   3.497  11.300   0.626
52815SOL    HW260343   3.381  11.235   0.699
52816SOL     OW60344  12.359   5.664  12.656
52816SOL    HW160345  12.351   5.641  12.564
52816SOL    HW260346  12.327   5.755  12.661
52817SOL     OW60347   8.428  12.959   2.978
52817SOL    HW160348   8.476  12.886   3.017
52817SOL    HW260349   8.471  13.038   3.013
52818SOL     OW60350   9.586   8.921   9.192
52818SOL    HW160351   9.565   8.855   9.126
52818SOL    HW260352   9.530   8.995   9.172
52819SOL     OW60353   5.288  10.033  13.994
52819SOL    HW160354   5.325   9.986  13.919
52819SOL    HW260355   5.208  10.072  13.960
52820SOL     OW60356  11.555  13.675  12.921
52820SOL    HW160357  11.591  13.670  13.010
52820SOL    HW260358  11.560  13.768  12.899
52821SOL     OW60359   1.463   3.335   8.108
52821SOL    HW160360   1.468   3.408   8.169
52821SOL    HW260361   1.425   3.372   8.029
52822SOL     OW60362  14.251  11.532   9.189
52822SOL    HW160363  14.283  11.447   9.160
52822SOL    HW260364  14.328  11.589   9.187
52823SOL     OW60365   9.826   4.172   1.517
52823SOL    HW160366   9.865   4.257   1.536
52823SOL    HW260367   9.786   4.144   1.599
52824SOL     OW60368   7.122   3.050   3.427
52824SOL    HW160369   7.066   3.069   3.352
52824SOL    HW260370   7.062   3.011   3.492
52825SOL     OW60371   1.770   9.751   2.171
52825SOL    HW160372   1.816   9.830   2.201
52825SOL    HW260373   1.836   9.682   2.173
52826SOL     OW60374   5.142  14.572  11.501
52826SOL    HW160375   5.114  14.664  11.493
52826SOL    HW260376   5.234  14.578  11.527
52827SOL     OW60377   5.338  13.867  13.660
52827SOL    HW160378   5.330  13.774  13.638
52827SOL    HW260379   5.431  13.887  13.643
52828SOL     OW60380   9.229   8.372   7.814
52828SOL    HW160381   9.134   8.374   7.805
52828SOL    HW260382   9.255   8.284   7.787
52829SOL     OW60383   2.915   3.640  14.749
52829SOL    HW160384   2.847   3.705  14.732
52829SOL    HW260385   2.926   3.595  14.665
52830SOL     OW60386  13.680   8.533   8.748
52830SOL    HW160387  13.608   8.587   8.779
52830SOL    HW260388  13.713   8.579   8.670
52831SOL     OW60389   4.333   7.510   0.815
52831SOL    HW160390   4.315   7.553   0.731
52831SOL    HW260391   4.421   7.475   0.806
52832SOL     OW60392   3.958   9.304   6.143
52832SOL    HW160393   3.863   9.298   6.151
52832SOL    HW260394   3.991   9.235   6.200
52833SOL     OW60395   9.690   7.583  14.559
52833SOL    HW160396   9.626   7.607  14.492
52833SOL    HW260397   9.761   7.647  14.550
52834SOL     OW60398   0.597   5.473  10.640
52834SOL    HW160399   0.556   5.404  10.691
52834SOL    HW260400   0.600   5.549  10.699
52835SOL     OW60401   2.359   3.600  11.569
52835SOL    HW160402   2.294   3.530  11.578
52835SOL    HW260403   2.443   3.556  11.576
52836SOL     OW60404   2.994   3.144   8.941
52836SOL    HW160405   2.900   3.161   8.947
52836SOL    HW260406   3.031   3.229   8.917
52837SOL     OW60407   7.725   4.525   0.741
52837SOL    HW160408   7.630   4.536   0.730
52837SOL    HW260409   7.742   4.562   0.828
52838SOL     OW60410  14.588  11.316  12.241
52838SOL    HW160411  14.644  11.392  12.261
52838SOL    HW260412  14.499  11.351  12.244
52839SOL     OW60413  10.912  10.015   0.883
52839SOL    HW160414  10.852  10.026   0.809
52839SOL    HW260415  10.933   9.922   0.884
52840SOL     OW60416   4.074   6.335  10.871
52840SOL    HW160417   4.047   6.322  10.962
52840SOL    HW260418   4.107   6.249  10.844
52841SOL     OW60419   9.788   8.600   8.823
52841SOL    HW160420   9.858   8.646   8.869
52841SOL    HW260421   9.802   8.622   8.731
52842SOL     OW60422   0.742  12.570  11.512
52842SOL    HW160423   0.747  12.498  11.576
52842SOL    HW260424   0.776  12.646  11.558
52843SOL     OW60425  10.861   8.015   2.869
52843SOL    HW160426  10.813   7.941   2.831
52843SOL    HW260427  10.942   8.019   2.819
52844SOL     OW60428   7.300   8.726   1.170
52844SOL    HW160429   7.311   8.640   1.131
52844SOL    HW260430   7.208   8.729   1.196
52845SOL     OW60431   7.825   4.311  14.069
52845SOL    HW160432   7.878   4.390  14.082
52845SOL    HW260433   7.881   4.240  14.100
52846SOL     OW60434   1.136  12.394  10.322
52846SOL    HW160435   1.175  12.406  10.236
52846SOL    HW260436   1.079  12.471  10.333
52847SOL     OW60437   5.612   7.436  14.481
52847SOL    HW160438   5.547   7.385  14.530
52847SOL    HW260439   5.576   7.442  14.393
52848SOL     OW60440   9.940   0.727   2.539
52848SOL    HW160441   9.854   0.686   2.551
52848SOL    HW260442   9.920   0.819   2.522
52849SOL     OW60443  13.342  10.886   5.287
52849SOL    HW160444  13.332  10.898   5.382
52849SOL    HW260445  13.342  10.974   5.252
52850SOL     OW60446  11.274   8.647   2.375
52850SOL    HW160447  11.284   8.579   2.308
52850SOL    HW260448  11.180   8.661   2.381
52851SOL     OW60449  12.025   1.766  13.344
52851SOL    HW160450  11.986   1.808  13.268
52851SOL    HW260451  12.114   1.743  13.316
52852SOL     OW60452  12.697   9.803   4.023
52852SOL    HW160453  12.653   9.729   3.981
52852SOL    HW260454  12.787   9.773   4.035
52853SOL     OW60455   7.949  12.595   4.032
52853SOL    HW160456   7.887  12.667   4.038
52853SOL    HW260457   7.983  12.585   4.121
52854SOL     OW60458   7.329  11.182   3.946
52854SOL    HW160459   7.309  11.197   3.854
52854SOL    HW260460   7.303  11.091   3.962
52855SOL     OW60461   9.830  10.453  13.249
52855SOL    HW160462   9.905  10.456  13.190
52855SOL    HW260463   9.768  10.394  13.205
52856SOL     OW60464  14.452   8.856   4.623
52856SOL    HW160465  14.394   8.853   4.700
52856SOL    HW260466  14.512   8.927   4.641
52857SOL     OW60467  10.135  13.073  12.593
52857SOL    HW160468  10.095  12.997  12.636
52857SOL    HW260469  10.202  13.035  12.535
52858SOL     OW60470   8.537   8.465   4.970
52858SOL    HW160471   8.552   8.381   5.015
52858SOL    HW260472   8.547   8.531   5.038
52859SOL     OW60473   4.112  12.637  14.022
52859SOL    HW160474   4.045  12.628  14.091
52859SOL    HW260475   4.186  12.677  14.067
52860SOL     OW60476   6.817  12.526   0.525
52860SOL    HW160477   6.853  12.448   0.567
52860SOL    HW260478   6.832  12.513   0.432
52861SOL     OW60479  12.845  13.167  10.668
52861SOL    HW160480  12.797  13.228  10.611
52861SOL    HW260481  12.783  13.145  10.737
52862SOL     OW60482   7.435   7.630   8.262
52862SOL    HW160483   7.520   7.671   8.280
52862SOL    HW260484   7.373   7.703   8.263
52863SOL     OW60485   5.677  11.307   8.812
52863SOL    HW160486   5.736  11.301   8.887
52863SOL    HW260487   5.590  11.313   8.849
52864SOL     OW60488  11.456   3.846   0.854
52864SOL    HW160489  11.493   3.893   0.778
52864SOL    HW260490  11.368   3.822   0.827
52865SOL     OW60491   5.300  10.661  11.591
52865SOL    HW160492   5.348  10.579  11.578
52865SOL    HW260493   5.208  10.635  11.585
52866SOL     OW60494   7.844   5.024   9.635
52866SOL    HW160495   7.859   5.014   9.729
52866SOL    HW260496   7.926   4.997   9.595
52867SOL     OW60497   2.494   3.654   2.895
52867SOL    HW160498   2.534   3.579   2.851
52867SOL    HW260499   2.500   3.725   2.833
52868SOL     OW60500  13.046  12.728   0.945
52868SOL    HW160501  13.034  12.823   0.942
52868SOL    HW260502  13.041  12.706   1.037
52869SOL     OW60503   0.403   0.348   0.836
52869SOL    HW160504   0.413   0.260   0.799
52869SOL    HW260505   0.485   0.364   0.882
52870SOL     OW60506   1.696   8.616  11.349
52870SOL    HW160507   1.746   8.694  11.322
52870SOL    HW260508   1.645   8.645  11.424
52871SOL     OW60509   3.664   6.609   0.788
52871SOL    HW160510   3.684   6.698   0.817
52871SOL    HW260511   3.568   6.607   0.781
52872SOL     OW60512  12.545   3.093  14.011
52872SOL    HW160513  12.625   3.055  13.973
52872SOL    HW260514  12.561   3.090  14.105
52873SOL     OW60515  10.772   2.727  13.897
52873SOL    HW160516  10.703   2.703  13.959
52873SOL    HW260517  10.788   2.647  13.847
52874SOL     OW60518  12.443   2.017   1.552
52874SOL    HW160519  12.401   2.103   1.548
52874SOL    HW260520  12.533   2.034   1.525
52875SOL     OW60521   3.392   4.562   9.651
52875SOL    HW160522   3.300   4.541   9.635
52875SOL    HW260523   3.429   4.482   9.688
52876SOL     OW60524   8.757  14.401   9.873
52876SOL    HW160525   8.698  14.474   9.855
52876SOL    HW260526   8.706  14.342   9.928
52877SOL     OW60527   0.803   3.962   3.578
52877SOL    HW160528   0.870   3.896   3.560
52877SOL    HW260529   0.752   3.967   3.497
52878SOL     OW60530   9.778  12.997  10.808
52878SOL    HW160531   9.708  12.979  10.745
52878SOL    HW260532   9.755  13.081  10.847
52879SOL     OW60533  14.120   1.301  13.016
52879SOL    HW160534  14.088   1.338  13.098
52879SOL    HW260535  14.139   1.378  12.961
52880SOL     OW60536  10.738   2.381   4.582
52880SOL    HW160537  10.779   2.380   4.495
52880SOL    HW260538  10.668   2.316   4.576
52881SOL     OW60539  10.628  13.484  13.798
52881SOL    HW160540  10.563  13.472  13.729
52881SOL    HW260541  10.703  13.431  13.770
52882SOL     OW60542   5.038   4.323   0.507
52882SOL    HW160543   5.121   4.287   0.479
52882SOL    HW260544   5.060   4.383   0.578
52883SOL     OW60545   2.427  14.463  12.461
52883SOL    HW160546   2.495  14.487  12.397
52883SOL    HW260547   2.377  14.544  12.473
52884SOL     OW60548   4.510   9.021   9.639
52884SOL    HW160549   4.521   9.007   9.545
52884SOL    HW260550   4.569   9.095   9.659
52885SOL     OW60551   6.302  12.302   4.647
52885SOL    HW160552   6.235  12.262   4.592
52885SOL    HW260553   6.381  12.302   4.592
52886SOL     OW60554  10.529   0.422   3.214
52886SOL    HW160555  10.595   0.365   3.175
52886SOL    HW260556  10.564   0.442   3.301
52887SOL     OW60557  10.197   4.792   7.199
52887SOL    HW160558  10.157   4.733   7.262
52887SOL    HW260559  10.277   4.824   7.242
52888SOL     OW60560   2.223   1.307  13.283
52888SOL    HW160561   2.202   1.214  13.288
52888SOL    HW260562   2.279   1.314  13.205
52889SOL     OW60563   5.978  14.105  12.448
52889SOL    HW160564   6.002  14.158  12.524
52889SOL    HW260565   6.009  14.155  12.373
52890SOL     OW60566   0.041   8.549   9.091
52890SOL    HW160567  14.843   8.544   9.159
52890SOL    HW260568  14.863   8.572   9.011
52891SOL     OW60569   8.591  12.913   5.830
52891SOL    HW160570   8.613  12.825   5.799
52891SOL    HW260571   8.510  12.901   5.880
52892SOL     OW60572   9.850   5.033   9.397
52892SOL    HW160573   9.831   5.096   9.467
52892SOL    HW260574   9.772   4.978   9.393
52893SOL     OW60575   6.957  12.642   0.999
52893SOL    HW160576   6.875  12.687   1.019
52893SOL    HW260577   6.959  12.568   1.059
52894SOL     OW60578   9.590   8.216   1.890
52894SOL    HW160579   9.570   8.309   1.895
52894SOL    HW260580   9.625   8.203   1.802
52895SOL     OW60581   0.468  14.469   6.349
52895SOL    HW160582   0.469  14.561   6.375
52895SOL    HW260583   0.531  14.426   6.406
52896SOL     OW60584   3.825   0.196  11.259
52896SOL    HW160585   3.907   0.229  11.221
52896SOL    HW260586   3.757   0.235  11.204
52897SOL     OW60587   7.500  13.150   4.040
52897SOL    HW160588   7.492  13.082   4.107
52897SOL    HW260589   7.548  13.220   4.082
52898SOL     OW60590   9.890   7.868  10.359
52898SOL    HW160591   9.918   7.951  10.398
52898SOL    HW260592   9.802   7.884  10.327
52899SOL     OW60593  11.616   5.152   8.216
52899SOL    HW160594  11.587   5.061   8.225
52899SOL    HW260595  11.543   5.196   8.172
52900SOL     OW60596  11.677   4.049   5.562
52900SOL    HW160597  11.749   4.001   5.521
52900SOL    HW260598  11.668   4.129   5.509
52901SOL     OW60599  10.078   7.870   1.749
52901SOL    HW160600   9.996   7.914   1.772
52901SOL    HW260601  10.051   7.783   1.718
52902SOL     OW60602   8.484   9.269   6.436
52902SOL    HW160603   8.520   9.194   6.484
52902SOL    HW260604   8.456   9.330   6.504
52903SOL     OW60605   4.666   4.944   8.523
52903SOL    HW160606   4.646   4.854   8.497
52903SOL    HW260607   4.695   4.987   8.443
52904SOL     OW60608   7.590   4.338   0.325
52904SOL    HW160609   7.637   4.359   0.244
52904SOL    HW260610   7.659   4.337   0.392
52905SOL     OW60611  10.214   1.320   6.492
52905SOL    HW160612  10.221   1.392   6.430
52905SOL    HW260613  10.261   1.351   6.570
52906SOL     OW60614   4.706   9.307  11.532
52906SOL    HW160615   4.738   9.385  11.487
52906SOL    HW260616   4.613   9.325  11.547
52907SOL     OW60617   7.606   9.675  13.742
52907SOL    HW160618   7.700   9.673  13.763
52907SOL    HW260619   7.581   9.767  13.751
52908SOL     OW60620   9.017  12.452   7.038
52908SOL    HW160621   8.961  12.462   7.115
52908SOL    HW260622   8.966  12.491   6.966
52909SOL     OW60623   9.385   8.653   8.767
52909SOL    HW160624   9.366   8.736   8.722
52909SOL    HW260625   9.299   8.614   8.781
52910SOL     OW60626   1.825   0.402   0.408
52910SOL    HW160627   1.831   0.470   0.476
52910SOL    HW260628   1.759   0.435   0.348
52911SOL     OW60629   0.713  11.455   6.605
52911SOL    HW160630   0.672  11.541   6.596
52911SOL    HW260631   0.684  11.423   6.691
52912SOL     OW60632   1.859   6.855   5.755
52912SOL    HW160633   1.844   6.845   5.661
52912SOL    HW260634   1.914   6.933   5.763
52913SOL     OW60635   7.923   5.336  14.334
52913SOL    HW160636   7.960   5.418  14.302
52913SOL    HW260637   7.839   5.360  14.372
52914SOL     OW60638   9.075  14.838   6.433
52914SOL    HW160639   9.010   0.036   6.451
52914SOL    HW260640   9.079  14.835   6.337
52915SOL     OW60641  11.541   4.419  11.205
52915SOL    HW160642  11.471   4.442  11.266
52915SOL    HW260643  11.497   4.369  11.136
52916SOL     OW60644   0.622  10.492  13.871
52916SOL    HW160645   0.527  10.500  13.872
52916SOL    HW260646   0.646  10.497  13.779
52917SOL     OW60647  11.868   6.814   0.771
52917SOL    HW160648  11.822   6.818   0.687
52917SOL    HW260649  11.903   6.902   0.784
52918SOL     OW60650  10.038   6.556   6.624
52918SOL    HW160651  10.054   6.535   6.532
52918SOL    HW260652  10.076   6.483   6.672
52919SOL     OW60653  13.849   9.228   9.662
52919SOL    HW160654  13.807   9.145   9.639
52919SOL    HW260655  13.781   9.276   9.710
52920SOL     OW60656  14.412  14.633   7.643
52920SOL    HW160657  14.381  14.573   7.711
52920SOL    HW260658  14.453  14.576   7.578
52921SOL     OW60659   3.125   7.488  11.124
52921SOL    HW160660   3.061   7.536  11.072
52921SOL    HW260661   3.207   7.497  11.075
52922SOL     OW60662   2.764   0.445   0.153
52922SOL    HW160663   2.766   0.361   0.200
52922SOL    HW260664   2.782   0.511   0.220
52923SOL     OW60665  14.793   0.097   0.747
52923SOL    HW160666  14.706   0.076   0.781
52923SOL    HW260667  14.776   0.133   0.659
52924SOL     OW60668   3.023   3.007   1.067
52924SOL    HW160669   3.014   2.912   1.064
52924SOL    HW260670   3.109   3.022   1.106
52925SOL     OW60671   3.909  13.471   3.995
52925SOL    HW160672   3.965  13.412   4.046
52925SOL    HW260673   3.966  13.505   3.926
52926SOL     OW60674   4.316   7.140   0.525
52926SOL    HW160675   4.339   7.133   0.618
52926SOL    HW260676   4.269   7.224   0.519
52927SOL     OW60677  12.542  13.253   8.652
52927SOL    HW160678  12.571  13.342   8.634
52927SOL    HW260679  12.536  13.248   8.747
52928SOL     OW60680  13.847   9.198  13.179
52928SOL    HW160681  13.929   9.152  13.197
52928SOL    HW260682  13.860   9.234  13.091
52929SOL     OW60683   1.088   1.561   5.725
52929SOL    HW160684   1.110   1.522   5.810
52929SOL    HW260685   1.107   1.654   5.735
52930SOL     OW60686   1.435   7.812   5.136
52930SOL    HW160687   1.470   7.725   5.121
52930SOL    HW260688   1.363   7.820   5.073
52931SOL     OW60689  10.220   3.241   0.876
52931SOL    HW160690  10.127   3.227   0.894
52931SOL    HW260691  10.261   3.156   0.892
52932SOL     OW60692   8.387   0.385   5.749
52932SOL    HW160693   8.321   0.441   5.789
52932SOL    HW260694   8.396   0.418   5.660
52933SOL     OW60695   7.121   0.309  14.159
52933SOL    HW160696   7.045   0.347  14.203
52933SOL    HW260697   7.114   0.340  14.069
52934SOL     OW60698  14.439  11.108   8.564
52934SOL    HW160699  14.458  11.143   8.477
52934SOL    HW260700  14.512  11.138   8.618
52935SOL     OW60701   5.563   7.036   3.709
52935SOL    HW160702   5.630   7.096   3.740
52935SOL    HW260703   5.553   6.973   3.781
52936SOL     OW60704   4.049  10.211  11.754
52936SOL    HW160705   4.054  10.290  11.700
52936SOL    HW260706   4.128  10.162  11.734
52937SOL     OW60707   7.790  10.422   3.478
52937SOL    HW160708   7.766  10.503   3.432
52937SOL    HW260709   7.800  10.357   3.408
52938SOL     OW60710  14.694   1.921  10.221
52938SOL    HW160711  14.696   1.826  10.217
52938SOL    HW260712  14.785   1.948  10.214
52939SOL     OW60713   3.934   5.129  12.573
52939SOL    HW160714   3.867   5.198  12.576
52939SOL    HW260715   3.884   5.048  12.570
52940SOL     OW60716   8.695   1.840  12.651
52940SOL    HW160717   8.642   1.915  12.680
52940SOL    HW260718   8.695   1.781  12.726
52941SOL     OW60719   7.556   2.803  12.955
52941SOL    HW160720   7.576   2.751  13.033
52941SOL    HW260721   7.462   2.791  12.941
52942SOL     OW60722   1.969   3.465   5.116
52942SOL    HW160723   1.972   3.460   5.021
52942SOL    HW260724   2.046   3.517   5.140
52943SOL     OW60725  13.350   5.233  10.084
52943SOL    HW160726  13.330   5.326  10.089
52943SOL    HW260727  13.270   5.193  10.050
52944SOL     OW60728  14.632   5.902  12.320
52944SOL    HW160729  14.579   5.906  12.400
52944SOL    HW260730  14.605   5.820  12.278
52945SOL     OW60731  13.804   5.827  10.759
52945SOL    HW160732  13.810   5.807  10.852
52945SOL    HW260733  13.887   5.798  10.722
52946SOL     OW60734   2.520  12.586   2.083
52946SOL    HW160735   2.528  12.667   2.033
52946SOL    HW260736   2.513  12.517   2.017
52947SOL     OW60737  12.216   9.998   1.263
52947SOL    HW160738  12.254   9.973   1.348
52947SOL    HW260739  12.196   9.915   1.220
52948SOL     OW60740  11.471   9.937   2.608
52948SOL    HW160741  11.544   9.970   2.661
52948SOL    HW260742  11.477   9.986   2.526
52949SOL     OW60743   5.740   8.116   9.195
52949SOL    HW160744   5.686   8.119   9.116
52949SOL    HW260745   5.688   8.163   9.261
52950SOL     OW60746  10.088   2.512   7.205
52950SOL    HW160747  10.182   2.506   7.191
52950SOL    HW260748  10.057   2.575   7.139
52951SOL     OW60749  14.730  14.490   6.174
52951SOL    HW160750  14.735  14.559   6.108
52951SOL    HW260751  14.817  14.491   6.215
52952SOL     OW60752  10.488   5.610  13.453
52952SOL    HW160753  10.526   5.528  13.486
52952SOL    HW260754  10.479   5.665  13.531
52953SOL     OW60755   9.849   6.988   1.899
52953SOL    HW160756   9.829   6.917   1.837
52953SOL    HW260757   9.887   7.057   1.845
52954SOL     OW60758   4.072   9.545   0.549
52954SOL    HW160759   4.120   9.586   0.621
52954SOL    HW260760   4.040   9.463   0.585
52955SOL     OW60761   7.195   7.517   0.952
52955SOL    HW160762   7.119   7.460   0.960
52955SOL    HW260763   7.270   7.460   0.970
52956SOL     OW60764   4.683   2.242   2.889
52956SOL    HW160765   4.629   2.163   2.895
52956SOL    HW260766   4.754   2.228   2.952
52957SOL     OW60767   2.279  11.973   5.171
52957SOL    HW160768   2.237  12.010   5.093
52957SOL    HW260769   2.336  12.043   5.203
52958SOL     OW60770   0.766  14.035   5.580
52958SOL    HW160771   0.732  13.946   5.587
52958SOL    HW260772   0.778  14.063   5.671
52959SOL     OW60773  14.870  12.133  14.408
52959SOL    HW160774   0.033  12.136  14.318
52959SOL    HW260775  14.829  12.047  14.417
52960SOL     OW60776  13.171  13.703   1.683
52960SOL    HW160777  13.249  13.723   1.631
52960SOL    HW260778  13.114  13.779   1.670
52961SOL     OW60779   0.402  13.984   0.060
52961SOL    HW160780   0.476  13.924   0.059
52961SOL    HW260781   0.424  14.050  14.864
52962SOL     OW60782   3.272  11.353  12.277
52962SOL    HW160783   3.187  11.375  12.239
52962SOL    HW260784   3.336  11.378  12.209
52963SOL     OW60785  10.515   3.563   2.385
52963SOL    HW160786  10.573   3.488   2.396
52963SOL    HW260787  10.543   3.604   2.303
52964SOL     OW60788   7.345   0.113   0.262
52964SOL    HW160789   7.273   0.163   0.299
52964SOL    HW260790   7.367   0.048   0.329
52965SOL     OW60791  14.126  14.126   9.800
52965SOL    HW160792  14.074  14.061   9.846
52965SOL    HW260793  14.189  14.075   9.748
52966SOL     OW60794   2.521   2.150  14.602
52966SOL    HW160795   2.540   2.224  14.660
52966SOL    HW260796   2.599   2.096  14.606
52967SOL     OW60797   3.694  11.292  12.932
52967SOL    HW160798   3.656  11.211  12.966
52967SOL    HW260799   3.626  11.328  12.875
52968SOL     OW60800   4.209   8.105   9.297
52968SOL    HW160801   4.134   8.108   9.356
52968SOL    HW260802   4.282   8.142   9.348
52969SOL     OW60803   0.008  13.632   1.463
52969SOL    HW160804   0.069  13.632   1.537
52969SOL    HW260805  14.854  13.541   1.451
52970SOL     OW60806  12.174   6.067   0.573
52970SOL    HW160807  12.102   6.078   0.635
52970SOL    HW260808  12.203   6.156   0.554
52971SOL     OW60809   8.428   4.060  12.072
52971SOL    HW160810   8.340   4.064  12.035
52971SOL    HW260811   8.426   3.987  12.134
52972SOL     OW60812   7.955   9.156   5.636
52972SOL    HW160813   7.933   9.064   5.623
52972SOL    HW260814   7.878   9.204   5.607
52973SOL     OW60815  14.575   3.387  14.191
52973SOL    HW160816  14.663   3.365  14.161
52973SOL    HW260817  14.519   3.372  14.114
52974SOL     OW60818  10.027  13.553  13.678
52974SOL    HW160819  10.115  13.548  13.715
52974SOL    HW260820  10.036  13.617  13.607
52975SOL     OW60821  14.445   5.981   1.141
52975SOL    HW160822  14.461   5.950   1.230
52975SOL    HW260823  14.349   5.983   1.134
52976SOL     OW60824  14.458   6.872   7.522
52976SOL    HW160825  14.410   6.838   7.597
52976SOL    HW260826  14.520   6.803   7.500
52977SOL     OW60827   8.031   1.431  10.441
52977SOL    HW160828   8.082   1.429  10.521
52977SOL    HW260829   7.944   1.461  10.468
52978SOL     OW60830   2.127   4.882   5.223
52978SOL    HW160831   2.178   4.840   5.154
52978SOL    HW260832   2.067   4.940   5.176
52979SOL     OW60833   8.548   2.122   5.058
52979SOL    HW160834   8.498   2.196   5.093
52979SOL    HW260835   8.559   2.142   4.965
52980SOL     OW60836  12.273  10.213   1.608
52980SOL    HW160837  12.341  10.188   1.671
52980SOL    HW260838  12.209  10.141   1.612
52981SOL     OW60839   1.007  10.188   5.047
52981SOL    HW160840   0.935  10.133   5.017
52981SOL    HW260841   0.966  10.274   5.062
52982SOL     OW60842  12.333   8.599  11.122
52982SOL    HW160843  12.283   8.525  11.156
52982SOL    HW260844  12.415   8.597  11.173
52983SOL     OW60845   1.496   0.781   1.197
52983SOL    HW160846   1.473   0.871   1.220
52983SOL    HW260847   1.571   0.790   1.138
52984SOL     OW60848  11.644   8.808   6.702
52984SOL    HW160849  11.555   8.844   6.698
52984SOL    HW260850  11.634   8.723   6.745
52985SOL     OW60851  10.779   1.069  11.060
52985SOL    HW160852  10.852   1.126  11.082
52985SOL    HW260853  10.773   1.008  11.133
52986SOL     OW60854   8.477   7.274  10.375
52986SOL    HW160855   8.486   7.187  10.413
52986SOL    HW260856   8.388   7.277  10.342
52987SOL     OW60857   9.452   1.278   8.558
52987SOL    HW160858   9.473   1.255   8.649
52987SOL    HW260859   9.413   1.366   8.565
52988SOL     OW60860   2.422  11.768  10.573
52988SOL    HW160861   2.483  11.838  10.549
52988SOL    HW260862   2.468  11.687  10.549
52989SOL     OW60863   6.982  10.063   9.975
52989SOL    HW160864   6.972   9.970   9.952
52989SOL    HW260865   7.072  10.070  10.007
52990SOL     OW60866   7.310  10.479   7.168
52990SOL    HW160867   7.226  10.486   7.213
52990SOL    HW260868   7.291  10.503   7.077
52991SOL     OW60869   5.897   8.036   8.757
52991SOL    HW160870   5.983   8.039   8.715
52991SOL    HW260871   5.845   8.102   8.710
52992SOL     OW60872  11.058  14.236   7.583
52992SOL    HW160873  11.057  14.321   7.540
52992SOL    HW260874  11.127  14.188   7.537
52993SOL     OW60875   8.192   9.431   9.141
52993SOL    HW160876   8.262   9.427   9.207
52993SOL    HW260877   8.120   9.382   9.180
52994SOL     OW60878   0.367   3.081  14.041
52994SOL    HW160879   0.279   3.082  14.078
52994SOL    HW260880   0.377   3.167  13.999
52995SOL     OW60881   9.876  10.944   5.216
52995SOL    HW160882   9.902  10.938   5.124
52995SOL    HW260883   9.782  10.928   5.215
52996SOL     OW60884   8.237   4.561  14.076
52996SOL    HW160885   8.307   4.498  14.094
52996SOL    HW260886   8.236   4.618  14.153
52997SOL     OW60887  11.540  13.653   8.016
52997SOL    HW160888  11.507  13.568   8.045
52997SOL    HW260889  11.613  13.672   8.075
52998SOL     OW60890   1.619   3.994  14.643
52998SOL    HW160891   1.554   3.949  14.589
52998SOL    HW260892   1.626   4.082  14.604
52999SOL     OW60893   2.231   1.683   4.998
52999SOL    HW160894   2.302   1.741   5.026
52999SOL    HW260895   2.180   1.667   5.077
53000SOL     OW60896   9.140  13.802  10.740
53000SOL    HW160897   9.047  13.782  10.748
53000SOL    HW260898   9.175  13.793  10.829
53001SOL     OW60899   4.519   5.551   0.299
53001SOL    HW160900   4.531   5.490   0.371
53001SOL    HW260901   4.555   5.634   0.331
53002SOL     OW60902  10.938  13.968   9.056
53002SOL    HW160903  11.024  13.930   9.037
53002SOL    HW260904  10.912  14.010   8.975
53003SOL     OW60905   7.723   4.619   8.051
53003SOL    HW160906   7.667   4.542   8.036
53003SOL    HW260907   7.707   4.675   7.975
53004SOL     OW60908   9.046  13.574   7.484
53004SOL    HW160909   8.983  13.535   7.545
53004SOL    HW260910   9.112  13.615   7.540
53005SOL     OW60911   8.719  10.713   2.850
53005SOL    HW160912   8.699  10.647   2.784
53005SOL    HW260913   8.634  10.748   2.876
53006SOL     OW60914   2.272  10.375   7.776
53006SOL    HW160915   2.185  10.403   7.747
53006SOL    HW260916   2.255  10.321   7.853
53007SOL     OW60917   6.192  14.660   5.513
53007SOL    HW160918   6.198  14.749   5.479
53007SOL    HW260919   6.188  14.671   5.608
53008SOL     OW60920  13.520   4.209   2.327
53008SOL    HW160921  13.590   4.168   2.275
53008SOL    HW260922  13.547   4.300   2.335
53009SOL     OW60923   3.515   7.911   5.866
53009SOL    HW160924   3.469   7.879   5.789
53009SOL    HW260925   3.596   7.860   5.868
53010SOL     OW60926   8.822   6.681   4.814
53010SOL    HW160927   8.728   6.675   4.831
53010SOL    HW260928   8.862   6.663   4.899
53011SOL     OW60929   3.690   4.995   8.774
53011SOL    HW160930   3.757   5.035   8.829
53011SOL    HW260931   3.607   5.030   8.808
53012SOL     OW60932   5.195  10.503  14.316
53012SOL    HW160933   5.196  10.561  14.240
53012SOL    HW260934   5.237  10.554  14.385
53013SOL     OW60935   4.582   6.522   7.552
53013SOL    HW160936   4.660   6.577   7.559
53013SOL    HW260937   4.615   6.441   7.512
53014SOL     OW60938  11.678   5.094   0.924
53014SOL    HW160939  11.606   5.038   0.895
53014SOL    HW260940  11.654   5.181   0.893
53015SOL     OW60941   9.754   4.842   0.264
53015SOL    HW160942   9.770   4.887   0.181
53015SOL    HW260943   9.742   4.750   0.239
53016SOL     OW60944  13.684   1.420   3.926
53016SOL    HW160945  13.589   1.431   3.932
53016SOL    HW260946  13.697   1.367   3.847
53017SOL     OW60947   2.971  12.477   8.917
53017SOL    HW160948   3.012  12.548   8.868
53017SOL    HW260949   2.967  12.403   8.856
53018SOL     OW60950  13.710  10.284   1.307
53018SOL    HW160951  13.792  10.263   1.262
53018SOL    HW260952  13.703  10.218   1.376
53019SOL     OW60953   4.069  10.447  14.031
53019SOL    HW160954   4.085  10.413  13.943
53019SOL    HW260955   4.142  10.507  14.047
53020SOL     OW60956  12.090   4.924  12.102
53020SOL    HW160957  12.042   4.842  12.088
53020SOL    HW260958  12.059   4.983  12.033
53021SOL     OW60959   3.630   0.745   0.471
53021SOL    HW160960   3.690   0.673   0.450
53021SOL    HW260961   3.563   0.742   0.403
53022SOL     OW60962   6.614  11.941  10.718
53022SOL    HW160963   6.672  11.968  10.789
53022SOL    HW260964   6.547  11.888  10.761
53023SOL     OW60965   3.560   7.060   7.693
53023SOL    HW160966   3.650   7.043   7.663
53023SOL    HW260967   3.540   6.986   7.750
53024SOL     OW60968   9.589   3.351  10.668
53024SOL    HW160969   9.500   3.331  10.696
53024SOL    HW260970   9.639   3.362  10.749
53025SOL     OW60971   3.670   4.824   1.489
53025SOL    HW160972   3.584   4.851   1.459
53025SOL    HW260973   3.655   4.744   1.539
53026SOL     OW60974   3.403  11.612   6.447
53026SOL    HW160975   3.433  11.611   6.538
53026SOL    HW260976   3.314  11.648   6.451
53027SOL     OW60977   7.755   9.154   9.062
53027SOL    HW160978   7.684   9.218   9.068
53027SOL    HW260979   7.751   9.122   8.972
53028SOL     OW60980   1.541   4.674   4.463
53028SOL    HW160981   1.587   4.673   4.546
53028SOL    HW260982   1.530   4.581   4.440
53029SOL     OW60983   6.304   0.266  11.635
53029SOL    HW160984   6.252   0.192  11.604
53029SOL    HW260985   6.256   0.343  11.605
53030SOL     OW60986   4.591  12.646   6.945
53030SOL    HW160987   4.518  12.586   6.932
53030SOL    HW260988   4.566  12.698   7.021
53031SOL     OW60989   2.341   7.489   9.276
53031SOL    HW160990   2.361   7.583   9.279
53031SOL    HW260991   2.350   7.460   9.367
53032SOL     OW60992   4.285   7.282   4.476
53032SOL    HW160993   4.243   7.327   4.403
53032SOL    HW260994   4.353   7.229   4.436
53033SOL     OW60995  11.805  14.193  10.600
53033SOL    HW160996  11.711  14.200  10.583
53033SOL    HW260997  11.845  14.247  10.532
53034SOL     OW60998   4.367  13.102  13.160
53034SOL    HW160999   4.342  13.029  13.216
53034SOL    HW261000   4.312  13.175  13.189
53035SOL     OW61001   8.758  14.242   0.837
53035SOL    HW161002   8.713  14.181   0.778
53035SOL    HW261003   8.689  14.270   0.898
53036SOL     OW61004   7.212   3.681  13.343
53036SOL    HW161005   7.278   3.675  13.273
53036SOL    HW261006   7.256   3.728  13.414
53037SOL     OW61007   5.699   1.646   8.189
53037SOL    HW161008   5.773   1.700   8.216
53037SOL    HW261009   5.739   1.565   8.158
53038SOL     OW61010   1.982   0.942   1.644
53038SOL    HW161011   1.917   0.899   1.700
53038SOL    HW261012   2.061   0.944   1.697
53039SOL     OW61013  13.307  14.735  10.219
53039SOL    HW161014  13.331  14.714  10.129
53039SOL    HW261015  13.240  14.803  10.211
53040SOL     OW61016  14.628   6.884  12.570
53040SOL    HW161017  14.681   6.871  12.648
53040SOL    HW261018  14.634   6.801  12.522
53041SOL     OW61019   0.265   2.191   6.757
53041SOL    HW161020   0.269   2.197   6.661
53041SOL    HW261021   0.345   2.145   6.782
53042SOL     OW61022  11.042  11.590  11.818
53042SOL    HW161023  10.967  11.568  11.874
53042SOL    HW261024  11.044  11.521  11.752
53043SOL     OW61025  10.711   0.217  12.670
53043SOL    HW161026  10.645   0.158  12.707
53043SOL    HW261027  10.763   0.162  12.612
53044SOL     OW61028   1.389  13.121   1.742
53044SOL    HW161029   1.424  13.033   1.726
53044SOL    HW261030   1.348  13.114   1.828
53045SOL     OW61031  14.352   9.565  14.680
53045SOL    HW161032  14.432   9.617  14.672
53045SOL    HW261033  14.344   9.546  14.773
53046SOL     OW61034   4.093   0.449   1.535
53046SOL    HW161035   4.041   0.483   1.608
53046SOL    HW261036   4.154   0.388   1.576
53047SOL     OW61037   4.069   4.174   5.555
53047SOL    HW161038   4.029   4.182   5.468
53047SOL    HW261039   4.113   4.089   5.553
53048SOL     OW61040   1.489   4.586  11.296
53048SOL    HW161041   1.492   4.603  11.202
53048SOL    HW261042   1.580   4.594  11.325
53049SOL     OW61043  11.849   5.504   7.318
53049SOL    HW161044  11.922   5.532   7.262
53049SOL    HW261045  11.891   5.472   7.398
53050SOL     OW61046   8.297   6.534   6.658
53050SOL    HW161047   8.287   6.628   6.677
53050SOL    HW261048   8.352   6.501   6.729
53051SOL     OW61049  13.039   3.908   6.891
53051SOL    HW161050  13.110   3.845   6.900
53051SOL    HW261051  13.040   3.933   6.798
53052SOL     OW61052   8.270  10.321  10.047
53052SOL    HW161053   8.187  10.273  10.051
53052SOL    HW261054   8.244  10.410  10.022
53053SOL     OW61055  13.192  10.635  14.364
53053SOL    HW161056  13.124  10.654  14.429
53053SOL    HW261057  13.227  10.550  14.391
53054SOL     OW61058  10.117   8.924   8.172
53054SOL    HW161059  10.112   8.948   8.265
53054SOL    HW261060  10.203   8.881   8.164
53055SOL     OW61061  10.948   2.329   8.438
53055SOL    HW161062  11.001   2.260   8.398
53055SOL    HW261063  10.888   2.282   8.497
53056SOL     OW61064   6.762  11.646  10.910
53056SOL    HW161065   6.795  11.685  10.828
53056SOL    HW261066   6.719  11.719  10.955
53057SOL     OW61067   8.369   2.365   4.578
53057SOL    HW161068   8.397   2.371   4.669
53057SOL    HW261069   8.292   2.423   4.572
53058SOL     OW61070   3.861   0.328  12.080
53058SOL    HW161071   3.932   0.306  12.142
53058SOL    HW261072   3.824   0.243  12.056
53059SOL     OW61073   1.201  14.230  12.293
53059SOL    HW161074   1.180  14.146  12.252
53059SOL    HW261075   1.139  14.238  12.366
53060SOL     OW61076  11.559   2.199   0.916
53060SOL    HW161077  11.632   2.158   0.870
53060SOL    HW261078  11.511   2.127   0.955
53061SOL     OW61079   6.197  11.420   4.441
53061SOL    HW161080   6.113  11.438   4.483
53061SOL    HW261081   6.250  11.376   4.508
53062SOL     OW61082   5.238  12.536   7.812
53062SOL    HW161083   5.326  12.522   7.779
53062SOL    HW261084   5.240  12.503   7.902
53063SOL     OW61085   2.310   7.303   8.098
53063SOL    HW161086   2.239   7.352   8.138
53063SOL    HW261087   2.378   7.299   8.165
53064SOL     OW61088   1.754   9.316  12.032
53064SOL    HW161089   1.763   9.412  12.025
53064SOL    HW261090   1.831   9.282  11.988
53065SOL     OW61091   2.022  10.137  10.354
53065SOL    HW161092   1.983  10.052  10.374
53065SOL    HW261093   2.031  10.181  10.438
53066SOL     OW61094   8.315   4.666   0.403
53066SOL    HW161095   8.371   4.594   0.376
53066SOL    HW261096   8.343   4.740   0.350
53067SOL     OW61097   9.941   3.001   9.741
53067SOL    HW161098   9.939   3.057   9.818
53067SOL    HW261099   9.992   2.924   9.768
53068SOL     OW61100  12.374   0.940   2.067
53068SOL    HW161101  12.314   0.917   2.138
53068SOL    HW261102  12.337   0.895   1.990
53069SOL     OW61103  10.627  14.809  14.502
53069SOL    HW161104  10.667  14.757  14.571
53069SOL    HW261105  10.536  14.779  14.499
53070SOL     OW61106   6.226   6.488  12.073
53070SOL    HW161107   6.184   6.408  12.106
53070SOL    HW261108   6.318   6.478  12.097
53071SOL     OW61109   2.218   3.084   7.780
53071SOL    HW161110   2.245   3.167   7.819
53071SOL    HW261111   2.257   3.085   7.692
53072SOL     OW61112   4.657  13.520   8.966
53072SOL    HW161113   4.744  13.525   8.928
53072SOL    HW261114   4.665  13.565   9.050
53073SOL     OW61115   1.755  14.306   2.100
53073SOL    HW161116   1.705  14.271   2.175
53073SOL    HW261117   1.821  14.239   2.083
53074SOL     OW61118   3.896   9.867   2.883
53074SOL    HW161119   3.850   9.907   2.957
53074SOL    HW261120   3.828   9.820   2.835
53075SOL     OW61121   8.819  11.393  12.387
53075SOL    HW161122   8.818  11.470  12.444
53075SOL    HW261123   8.902  11.399  12.340
53076SOL     OW61124   9.857  14.199   2.932
53076SOL    HW161125   9.881  14.289   2.910
53076SOL    HW261126   9.937  14.149   2.919
53077SOL     OW61127  13.386   9.894   2.468
53077SOL    HW161128  13.438   9.911   2.389
53077SOL    HW261129  13.351   9.979   2.493
53078SOL     OW61130   9.557  14.695   8.268
53078SOL    HW161131   9.582  14.669   8.179
53078SOL    HW261132   9.509  14.777   8.257
53079SOL     OW61133   4.190   0.642  10.726
53079SOL    HW161134   4.285   0.633  10.738
53079SOL    HW261135   4.161   0.555  10.702
53080SOL     OW61136   7.892   8.873  12.321
53080SOL    HW161137   7.805   8.842  12.345
53080SOL    HW261138   7.891   8.878  12.226
53081SOL     OW61139   1.779   2.895  12.248
53081SOL    HW161140   1.869   2.925  12.243
53081SOL    HW261141   1.726   2.974  12.239
53082SOL     OW61142   8.498   0.172  14.175
53082SOL    HW161143   8.570   0.201  14.119
53082SOL    HW261144   8.467   0.090  14.135
53083SOL     OW61145  10.095   5.663   7.840
53083SOL    HW161146  10.064   5.573   7.839
53083SOL    HW261147  10.189   5.656   7.826
53084SOL     OW61148   9.963   2.247   1.690
53084SOL    HW161149  10.041   2.288   1.653
53084SOL    HW261150   9.995   2.168   1.732
53085SOL     OW61151  13.400  14.417  11.232
53085SOL    HW161152  13.329  14.472  11.198
53085SOL    HW261153  13.365  14.328  11.226
53086SOL     OW61154   0.461   7.198  14.378
53086SOL    HW161155   0.382   7.171  14.332
53086SOL    HW261156   0.523   7.221  14.309
53087SOL     OW61157   1.581   8.377   2.169
53087SOL    HW161158   1.650   8.364   2.234
53087SOL    HW261159   1.594   8.307   2.106
53088SOL     OW61160   8.377   5.993   9.291
53088SOL    HW161161   8.386   5.921   9.353
53088SOL    HW261162   8.340   6.065   9.343
53089SOL     OW61163   3.580  14.321   5.928
53089SOL    HW161164   3.651  14.306   5.866
53089SOL    HW261165   3.621  14.365   6.001
53090SOL     OW61166  13.672  10.170   0.568
53090SOL    HW161167  13.670  10.239   0.502
53090SOL    HW261168  13.747  10.115   0.543
53091SOL     OW61169  12.678   8.551   3.934
53091SOL    HW161170  12.617   8.576   3.864
53091SOL    HW261171  12.652   8.604   4.009
53092SOL     OW61172   8.692  12.192   9.748
53092SOL    HW161173   8.660  12.123   9.689
53092SOL    HW261174   8.787  12.192   9.735
53093SOL     OW61175   9.589   9.685   4.480
53093SOL    HW161176   9.508   9.674   4.430
53093SOL    HW261177   9.604   9.779   4.482
53094SOL     OW61178   7.114  12.847   0.917
53094SOL    HW161179   7.080  12.763   0.948
53094SOL    HW261180   7.149  12.828   0.830
53095SOL     OW61181  10.755   6.177  12.750
53095SOL    HW161182  10.715   6.217  12.673
53095SOL    HW261183  10.689   6.116  12.783
53096SOL     OW61184   5.727  10.846  14.000
53096SOL    HW161185   5.747  10.869  14.091
53096SOL    HW261186   5.706  10.930  13.958
53097SOL     OW61187   7.905   9.743   5.067
53097SOL    HW161188   7.846   9.809   5.030
53097SOL    HW261189   7.906   9.673   5.002
53098SOL     OW61190   2.664   9.066  13.782
53098SOL    HW161191   2.695   9.156  13.775
53098SOL    HW261192   2.583   9.072  13.833
53099SOL     OW61193   0.001  14.585   2.213
53099SOL    HW161194  14.839  14.628   2.292
53099SOL    HW261195   0.034  14.656   2.158
53100SOL     OW61196   1.888   2.039   6.135
53100SOL    HW161197   1.951   1.991   6.081
53100SOL    HW261198   1.924   2.127   6.142
53101SOL     OW61199  14.826  10.444  11.770
53101SOL    HW161200  14.869  10.528  11.779
53101SOL    HW261201  14.832  10.404  11.857
53102SOL     OW61202   0.139   8.818   1.558
53102SOL    HW161203   0.048   8.830   1.587
53102SOL    HW261204   0.133   8.804   1.464
53103SOL     OW61205  14.267   5.708   1.627
53103SOL    HW161206  14.247   5.772   1.559
53103SOL    HW261207  14.272   5.759   1.708
53104SOL     OW61208   6.053   0.141   2.120
53104SOL    HW161209   5.998   0.089   2.178
53104SOL    HW261210   5.992   0.192   2.068
53105SOL     OW61211   0.830  11.672  14.347
53105SOL    HW161212   0.828  11.661  14.252
53105SOL    HW261213   0.888  11.602  14.378
53106SOL     OW61214  10.649   8.807   5.852
53106SOL    HW161215  10.646   8.876   5.918
53106SOL    HW261216  10.661   8.853   5.769
53107SOL     OW61217  12.808   1.862   9.329
53107SOL    HW161218  12.798   1.872   9.235
53107SOL    HW261219  12.840   1.947   9.359
53108SOL     OW61220   7.165   8.928  12.445
53108SOL    HW161221   7.252   8.965  12.429
53108SOL    HW261222   7.117   8.945  12.365
53109SOL     OW61223   2.925   7.690   9.464
53109SOL    HW161224   2.974   7.639   9.528
53109SOL    HW261225   2.834   7.681   9.491
53110SOL     OW61226  11.864   2.049  13.469
53110SOL    HW161227  11.811   2.063  13.391
53110SOL    HW261228  11.816   1.984  13.520
53111SOL     OW61229   8.665   5.773  13.668
53111SOL    HW161230   8.757   5.778  13.642
53111SOL    HW261231   8.663   5.705  13.735
53112SOL     OW61232  12.668   9.999   7.907
53112SOL    HW161233  12.655   9.973   7.816
53112SOL    HW261234  12.697   9.919   7.951
53113SOL     OW61235   0.698   5.445   6.428
53113SOL    HW161236   0.664   5.511   6.490
53113SOL    HW261237   0.734   5.376   6.484
53114SOL     OW61238  12.261   5.608  14.137
53114SOL    HW161239  12.266   5.701  14.160
53114SOL    HW261240  12.186   5.602  14.078
53115SOL     OW61241   7.507   2.685   1.751
53115SOL    HW161242   7.422   2.648   1.726
53115SOL    HW261243   7.508   2.772   1.711
53116SOL     OW61244  14.168  10.116  11.336
53116SOL    HW161245  14.085  10.156  11.310
53116SOL    HW261246  14.177  10.137  11.428
53117SOL     OW61247  11.154   3.231   4.270
53117SOL    HW161248  11.180   3.197   4.184
53117SOL    HW261249  11.235   3.227   4.322
53118SOL     OW61250  14.599  13.699   8.624
53118SOL    HW161251  14.575  13.777   8.674
53118SOL    HW261252  14.548  13.705   8.543
53119SOL     OW61253   0.664  12.402   9.448
53119SOL    HW161254   0.603  12.474   9.465
53119SOL    HW261255   0.710  12.389   9.530
53120SOL     OW61256  14.705   0.227  13.158
53120SOL    HW161257  14.748   0.271  13.231
53120SOL    HW261258  14.657   0.297  13.114
53121SOL     OW61259   3.238   3.447   6.205
53121SOL    HW161260   3.217   3.515   6.270
53121SOL    HW261261   3.262   3.496   6.126
53122SOL     OW61262   2.956  11.589   4.733
53122SOL    HW161263   2.968  11.548   4.648
53122SOL    HW261264   2.971  11.682   4.717
53123SOL     OW61265  10.695   5.083   3.849
53123SOL    HW161266  10.744   5.139   3.789
53123SOL    HW261267  10.757   5.013   3.872
53124SOL     OW61268   0.957   6.468   2.611
53124SOL    HW161269   1.006   6.481   2.692
53124SOL    HW261270   1.007   6.400   2.565
53125SOL     OW61271   7.176   8.270   7.080
53125SOL    HW161272   7.111   8.314   7.136
53125SOL    HW261273   7.169   8.177   7.104
53126SOL     OW61274   3.602   9.353   7.895
53126SOL    HW161275   3.662   9.325   7.827
53126SOL    HW261276   3.634   9.311   7.975
53127SOL     OW61277   4.982  12.306   5.184
53127SOL    HW161278   4.946  12.390   5.212
53127SOL    HW261279   4.935  12.242   5.237
53128SOL     OW61280  12.787   3.416  12.097
53128SOL    HW161281  12.856   3.474  12.065
53128SOL    HW261282  12.793   3.423  12.193
53129SOL     OW61283   0.415   4.244   7.359
53129SOL    HW161284   0.464   4.306   7.304
53129SOL    HW261285   0.391   4.173   7.300
53130SOL     OW61286   5.139  10.349  12.186
53130SOL    HW161287   5.112  10.345  12.094
53130SOL    HW261288   5.101  10.430  12.219
53131SOL     OW61289   9.397  12.823   6.176
53131SOL    HW161290   9.454  12.900   6.184
53131SOL    HW261291   9.358  12.831   6.089
53132SOL     OW61292   6.788   8.748  14.123
53132SOL    HW161293   6.829   8.823  14.081
53132SOL    HW261294   6.766   8.779  14.211
53133SOL     OW61295  10.252   6.795  12.262
53133SOL    HW161296  10.159   6.789  12.242
53133SOL    HW261297  10.275   6.708  12.295
53134SOL     OW61298  14.328   6.466   0.551
53134SOL    HW161299  14.292   6.405   0.486
53134SOL    HW261300  14.376   6.410   0.612
53135SOL     OW61301  14.373   2.533   1.737
53135SOL    HW161302  14.341   2.463   1.679
53135SOL    HW261303  14.396   2.488   1.818
53136SOL     OW61304   5.977   9.225   6.087
53136SOL    HW161305   6.064   9.237   6.049
53136SOL    HW261306   5.922   9.290   6.042
53137SOL     OW61307   0.425   1.957   2.307
53137SOL    HW161308   0.403   2.049   2.324
53137SOL    HW261309   0.404   1.913   2.390
53138SOL     OW61310   5.375   7.626  11.155
53138SOL    HW161311   5.434   7.616  11.080
53138SOL    HW261312   5.378   7.541  11.200
53139SOL     OW61313   2.309   7.033   1.988
53139SOL    HW161314   2.307   7.020   1.893
53139SOL    HW261315   2.221   7.007   2.018
53140SOL     OW61316   0.054   6.171   7.379
53140SOL    HW161317  14.851   6.232   7.362
53140SOL    HW261318   0.064   6.174   7.474
53141SOL     OW61319  14.653   2.725   7.494
53141SOL    HW161320  14.576   2.718   7.549
53141SOL    HW261321  14.651   2.815   7.461
53142SOL     OW61322   9.645   9.126   1.636
53142SOL    HW161323   9.734   9.092   1.627
53142SOL    HW261324   9.645   9.172   1.721
53143SOL     OW61325  14.494   6.608   5.080
53143SOL    HW161326  14.538   6.678   5.129
53143SOL    HW261327  14.470   6.649   4.997
53144SOL     OW61328   0.844   3.649   7.808
53144SOL    HW161329   0.863   3.726   7.753
53144SOL    HW261330   0.814   3.583   7.746
53145SOL     OW61331  10.330   7.223   7.081
53145SOL    HW161332  10.342   7.245   7.173
53145SOL    HW261333  10.252   7.273   7.054
53146SOL     OW61334   3.801   4.816   3.967
53146SOL    HW161335   3.738   4.888   3.968
53146SOL    HW261336   3.871   4.844   4.026
53147SOL     OW61337   2.973  11.034   6.496
53147SOL    HW161338   2.938  11.038   6.407
53147SOL    HW261339   3.060  10.995   6.486
53148SOL     OW61340   8.431  13.520   8.916
53148SOL    HW161341   8.457  13.612   8.919
53148SOL    HW261342   8.501  13.474   8.962
53149SOL     OW61343  13.846   7.996   5.155
53149SOL    HW161344  13.777   7.955   5.102
53149SOL    HW261345  13.915   8.017   5.092
53150SOL     OW61346  10.415   2.663  10.230
53150SOL    HW161347  10.488   2.672  10.292
53150SOL    HW261348  10.350   2.725  10.262
53151SOL     OW61349   6.440   2.639   4.573
53151SOL    HW161350   6.413   2.581   4.644
53151SOL    HW261351   6.377   2.623   4.503
53152SOL     OW61352  12.042   5.022  13.736
53152SOL    HW161353  12.040   5.069  13.820
53152SOL    HW261354  12.129   5.040  13.701
53153SOL     OW61355  13.932  13.307   3.475
53153SOL    HW161356  13.846  13.319   3.516
53153SOL    HW261357  13.984  13.261   3.542
53154SOL     OW61358  10.078   4.093   2.505
53154SOL    HW161359  10.075   4.028   2.434
53154SOL    HW261360  10.028   4.167   2.472
53155SOL     OW61361   5.646  13.115  10.988
53155SOL    HW161362   5.604  13.071  10.914
53155SOL    HW261363   5.737  13.086  10.986
53156SOL     OW61364  14.644  11.363   6.708
53156SOL    HW161365  14.570  11.423   6.717
53156SOL    HW261366  14.616  11.284   6.755
53157SOL     OW61367   6.926   6.172   7.794
53157SOL    HW161368   7.021   6.166   7.788
53157SOL    HW261369   6.899   6.203   7.707
53158SOL     OW61370   8.892   6.823  12.491
53158SOL    HW161371   8.928   6.903  12.453
53158SOL    HW261372   8.927   6.820  12.580
53159SOL     OW61373   9.048  10.646   6.908
53159SOL    HW161374   9.024  10.721   6.962
53159SOL    HW261375   9.019  10.570   6.958
53160SOL     OW61376   0.867   4.085   1.129
53160SOL    HW161377   0.772   4.094   1.141
53160SOL    HW261378   0.887   3.999   1.165
53161SOL     OW61379   9.120  10.160   5.031
53161SOL    HW161380   9.122  10.254   5.051
53161SOL    HW261381   9.120  10.118   5.117
53162SOL     OW61382  11.308  14.396  12.227
53162SOL    HW161383  11.235  14.457  12.218
53162SOL    HW261384  11.292  14.350  12.309
53163SOL     OW61385   2.125  10.652   7.108
53163SOL    HW161386   2.044  10.670   7.062
53163SOL    HW261387   2.163  10.739   7.125
53164SOL     OW61388   2.136   1.777  13.900
53164SOL    HW161389   2.129   1.813  13.811
53164SOL    HW261390   2.206   1.712  13.895
53165SOL     OW61391  12.554   7.000   5.686
53165SOL    HW161392  12.534   7.090   5.661
53165SOL    HW261393  12.616   6.969   5.620
53166SOL     OW61394  10.090  13.114  10.878
53166SOL    HW161395  10.067  13.055  10.949
53166SOL    HW261396  10.085  13.060  10.799
53167SOL     OW61397  10.546   9.029   4.201
53167SOL    HW161398  10.481   8.975   4.247
53167SOL    HW261399  10.591   9.076   4.271
53168SOL     OW61400   0.514   6.285   8.122
53168SOL    HW161401   0.473   6.332   8.050
53168SOL    HW261402   0.607   6.308   8.117
53169SOL     OW61403   9.096  10.991   6.086
53169SOL    HW161404   9.074  11.050   6.013
53169SOL    HW261405   9.128  11.050   6.154
53170SOL     OW61406  14.655  13.666  11.936
53170SOL    HW161407  14.580  13.611  11.956
53170SOL    HW261408  14.730  13.619  11.973
53171SOL     OW61409  12.322  13.000  10.741
53171SOL    HW161410  12.282  12.981  10.656
53171SOL    HW261411  12.268  12.952  10.803
53172SOL     OW61412   1.682  14.537  14.535
53172SOL    HW161413   1.648  14.455  14.500
53172SOL    HW261414   1.662  14.603  14.468
53173SOL     OW61415   8.882   3.021  11.112
53173SOL    HW161416   8.810   3.068  11.153
53173SOL    HW261417   8.859   3.018  11.019
53174SOL     OW61418  11.268   3.519   3.150
53174SOL    HW161419  11.278   3.605   3.191
53174SOL    HW261420  11.228   3.538   3.065
53175SOL     OW61421   3.877   4.939   3.725
53175SOL    HW161422   3.838   4.899   3.803
53175SOL    HW261423   3.969   4.951   3.748
53176SOL     OW61424   2.383   8.854   2.889
53176SOL    HW161425   2.416   8.809   2.811
53176SOL    HW261426   2.320   8.917   2.855
53177SOL     OW61427  14.241  11.587   2.155
53177SOL    HW161428  14.172  11.521   2.156
53177SOL    HW261429  14.233  11.628   2.069
53178SOL     OW61430   8.548   2.448  11.254
53178SOL    HW161431   8.549   2.520  11.318
53178SOL    HW261432   8.597   2.378  11.295
53179SOL     OW61433   7.526   4.527  10.190
53179SOL    HW161434   7.543   4.442  10.231
53179SOL    HW261435   7.494   4.582  10.262
53180SOL     OW61436   8.771  13.431   8.658
53180SOL    HW161437   8.734  13.377   8.588
53180SOL    HW261438   8.805  13.367   8.721
53181SOL     OW61439   5.172  14.640   9.849
53181SOL    HW161440   5.254  14.605   9.815
53181SOL    HW261441   5.105  14.581   9.816
53182SOL     OW61442  11.650  10.945   6.876
53182SOL    HW161443  11.603  11.017   6.835
53182SOL    HW261444  11.626  10.951   6.969
53183SOL     OW61445  14.150   3.179   7.413
53183SOL    HW161446  14.217   3.208   7.474
53183SOL    HW261447  14.174   3.089   7.392
53184SOL     OW61448   1.199   2.224  14.681
53184SOL    HW161449   1.281   2.270  14.659
53184SOL    HW261450   1.147   2.289  14.728
53185SOL     OW61451   5.841  11.415   0.393
53185SOL    HW161452   5.900  11.483   0.359
53185SOL    HW261453   5.782  11.395   0.321
53186SOL     OW61454  10.378   3.878  14.205
53186SOL    HW161455  10.417   3.870  14.118
53186SOL    HW261456  10.355   3.970  14.212
53187SOL     OW61457   5.733   8.425   0.076
53187SOL    HW161458   5.693   8.342   0.104
53187SOL    HW261459   5.659   8.479   0.048
53188SOL     OW61460   7.620   1.972  13.611
53188SOL    HW161461   7.641   1.976  13.705
53188SOL    HW261462   7.649   2.057  13.577
53189SOL     OW61463   1.832   9.639   1.811
53189SOL    HW161464   1.900   9.608   1.872
53189SOL    HW261465   1.788   9.560   1.782
53190SOL     OW61466  11.535  11.393   5.846
53190SOL    HW161467  11.563  11.450   5.918
53190SOL    HW261468  11.582  11.426   5.770
53191SOL     OW61469   4.472   1.723   9.971
53191SOL    HW161470   4.427   1.688   9.894
53191SOL    HW261471   4.554   1.674   9.975
53192SOL     OW61472  10.395  11.262   1.677
53192SOL    HW161473  10.359  11.251   1.589
53192SOL    HW261474  10.342  11.331   1.717
53193SOL     OW61475   2.846  11.561   7.726
53193SOL    HW161476   2.809  11.533   7.643
53193SOL    HW261477   2.939  11.542   7.719
53194SOL     OW61478   7.017   1.510  10.219
53194SOL    HW161479   7.069   1.451  10.275
53194SOL    HW261480   6.930   1.511  10.260
53195SOL     OW61481   0.818  11.752   6.150
53195SOL    HW161482   0.914  11.752   6.143
53195SOL    HW261483   0.794  11.660   6.152
53196SOL     OW61484   1.763  11.857   5.371
53196SOL    HW161485   1.845  11.886   5.331
53196SOL    HW261486   1.776  11.871   5.465
53197SOL     OW61487  14.468  12.822  14.434
53197SOL    HW161488  14.521  12.901  14.422
53197SOL    HW261489  14.440  12.826  14.526
53198SOL     OW61490   8.163   6.723   8.142
53198SOL    HW161491   8.175   6.646   8.087
53198SOL    HW261492   8.075   6.754   8.120
53199SOL     OW61493  14.651   9.194  12.671
53199SOL    HW161494  14.704   9.273  12.665
53199SOL    HW261495  14.614   9.182  12.584
53200SOL     OW61496   1.114   0.066   8.849
53200SOL    HW161497   1.077  14.857   8.888
53200SOL    HW261498   1.183   0.093   8.909
53201SOL     OW61499   3.490  13.551   7.998
53201SOL    HW161500   3.542  13.498   7.937
53201SOL    HW261501   3.508  13.512   8.084
53202SOL     OW61502   5.956   6.990   9.134
53202SOL    HW161503   6.013   6.936   9.080
53202SOL    HW261504   5.904   7.040   9.071
53203SOL     OW61505  13.039   5.430   6.725
53203SOL    HW161506  13.011   5.499   6.665
53203SOL    HW261507  12.995   5.450   6.807
53204SOL     OW61508   5.288   5.485   5.269
53204SOL    HW161509   5.357   5.519   5.326
53204SOL    HW261510   5.314   5.394   5.252
53205SOL     OW61511   7.682  12.955  12.871
53205SOL    HW161512   7.587  12.956  12.887
53205SOL    HW261513   7.704  12.862  12.860
53206SOL     OW61514   2.648   4.867   1.213
53206SOL    HW161515   2.650   4.907   1.300
53206SOL    HW261516   2.669   4.939   1.153
53207SOL     OW61517   8.047  12.987   0.278
53207SOL    HW161518   8.021  13.016   0.366
53207SOL    HW261519   8.059  13.068   0.229
53208SOL     OW61520   6.500   9.025  11.955
53208SOL    HW161521   6.459   9.078  12.023
53208SOL    HW261522   6.440   9.029  11.881
53209SOL     OW61523   6.408  12.216   1.580
53209SOL    HW161524   6.386  12.308   1.595
53209SOL    HW261525   6.359  12.192   1.501
53210SOL     OW61526   9.539   0.460  12.859
53210SOL    HW161527   9.630   0.439  12.878
53210SOL    HW261528   9.494   0.376  12.857
53211SOL     OW61529   6.701  10.571   8.896
53211SOL    HW161530   6.661  10.487   8.872
53211SOL    HW261531   6.690  10.577   8.991
53212SOL     OW61532  11.829   8.808   8.491
53212SOL    HW161533  11.900   8.760   8.534
53212SOL    HW261534  11.868   8.893   8.469
53213SOL     OW61535   4.268   8.603  11.525
53213SOL    HW161536   4.250   8.512  11.547
53213SOL    HW261537   4.357   8.619  11.556
53214SOL     OW61538   1.219  12.271  14.101
53214SOL    HW161539   1.192  12.181  14.121
53214SOL    HW261540   1.315  12.268  14.101
53215SOL     OW61541   3.289  11.210  11.929
53215SOL    HW161542   3.281  11.305  11.930
53215SOL    HW261543   3.374  11.192  11.890
53216SOL     OW61544   7.841  13.196   5.618
53216SOL    HW161545   7.822  13.290   5.616
53216SOL    HW261546   7.759  13.154   5.592
53217SOL     OW61547   9.885   9.566  12.737
53217SOL    HW161548   9.978   9.585  12.749
53217SOL    HW261549   9.876   9.473  12.756
53218SOL     OW61550   8.188   5.883   0.550
53218SOL    HW161551   8.170   5.794   0.520
53218SOL    HW261552   8.283   5.892   0.541
53219SOL     OW61553   1.992   7.022   3.752
53219SOL    HW161554   2.011   7.115   3.764
53219SOL    HW261555   2.078   6.980   3.750
53220SOL     OW61556   9.734  11.593   6.854
53220SOL    HW161557   9.681  11.660   6.897
53220SOL    HW261558   9.817  11.637   6.835
53221SOL     OW61559   8.450   1.016   3.316
53221SOL    HW161560   8.498   1.084   3.364
53221SOL    HW261561   8.364   1.055   3.299
53222SOL     OW61562  12.851  13.061   2.114
53222SOL    HW161563  12.922  12.998   2.125
53222SOL    HW261564  12.885  13.142   2.150
53223SOL     OW61565   4.542   6.753   3.956
53223SOL    HW161566   4.637   6.758   3.969
53223SOL    HW261567   4.529   6.780   3.865
53224SOL     OW61568   0.920   0.328  13.980
53224SOL    HW161569   0.954   0.385  14.049
53224SOL    HW261570   0.990   0.264  13.965
53225SOL     OW61571   3.454   0.851   4.671
53225SOL    HW161572   3.439   0.784   4.737
53225SOL    HW261573   3.548   0.867   4.674
53226SOL     OW61574   0.741  10.848   8.337
53226SOL    HW161575   0.723  10.790   8.410
53226SOL    HW261576   0.668  10.834   8.277
53227SOL     OW61577  12.482   4.953   0.077
53227SOL    HW161578  12.427   4.923   0.004
53227SOL    HW261579  12.420   4.980   0.145
53228SOL     OW61580   0.671  10.347   8.814
53228SOL    HW161581   0.715  10.390   8.741
53228SOL    HW261582   0.731  10.278   8.841
53229SOL     OW61583  13.692   1.563   8.627
53229SOL    HW161584  13.722   1.575   8.717
53229SOL    HW261585  13.747   1.493   8.592
53230SOL     OW61586   1.903   3.996   6.166
53230SOL    HW161587   1.968   3.944   6.213
53230SOL    HW261588   1.935   3.999   6.076
53231SOL     OW61589  11.105   8.496   6.800
53231SOL    HW161590  11.032   8.462   6.851
53231SOL    HW261591  11.153   8.418   6.772
53232SOL     OW61592   5.357   2.317   2.182
53232SOL    HW161593   5.420   2.344   2.115
53232SOL    HW261594   5.387   2.360   2.262
53233SOL     OW61595   8.614  13.705   7.649
53233SOL    HW161596   8.520  13.706   7.631
53233SOL    HW261597   8.635  13.796   7.671
53234SOL     OW61598   4.484  14.329  14.522
53234SOL    HW161599   4.568  14.285  14.535
53234SOL    HW261600   4.428  14.295  14.593
53235SOL     OW61601  14.277   5.114   0.288
53235SOL    HW161602  14.250   5.181   0.351
53235SOL    HW261603  14.198   5.066   0.267
53236SOL     OW61604  12.195  14.207   1.949
53236SOL    HW161605  12.189  14.165   1.863
53236SOL    HW261606  12.282  14.182   1.982
53237SOL     OW61607   1.124  12.535   5.287
53237SOL    HW161608   1.041  12.581   5.277
53237SOL    HW261609   1.139  12.493   5.202
53238SOL     OW61610  14.347   9.291  13.488
53238SOL    HW161611  14.281   9.222  13.480
53238SOL    HW261612  14.314   9.348  13.558
53239SOL     OW61613   6.208   3.025  12.927
53239SOL    HW161614   6.286   3.075  12.949
53239SOL    HW261615   6.176   3.064  12.845
53240SOL     OW61616  14.029  12.668   4.444
53240SOL    HW161617  14.118  12.639   4.466
53240SOL    HW261618  13.973  12.594   4.470
53241SOL     OW61619  11.184   8.790   4.771
53241SOL    HW161620  11.224   8.731   4.834
53241SOL    HW261621  11.142   8.858   4.825
53242SOL     OW61622  12.038  11.864   6.158
53242SOL    HW161623  12.130  11.890   6.151
53242SOL    HW261624  12.027  11.799   6.089
53243SOL     OW61625   9.751   7.315   1.869
53243SOL    HW161626   9.830   7.368   1.884
53243SOL    HW261627   9.743   7.263   1.949
53244SOL     OW61628   5.186   8.279  10.290
53244SOL    HW161629   5.278   8.305  10.293
53244SOL    HW261630   5.139   8.348  10.336
53245SOL     OW61631   0.569   5.437   3.713
53245SOL    HW161632   0.650   5.470   3.674
53245SOL    HW261633   0.560   5.486   3.794
53246SOL     OW61634   1.825   7.186   4.230
53246SOL    HW161635   1.753   7.180   4.292
53246SOL    HW261636   1.798   7.253   4.167
53247SOL     OW61637   7.698  10.849   6.610
53247SOL    HW161638   7.605  10.825   6.615
53247SOL    HW261639   7.729  10.812   6.528
53248SOL     OW61640   0.629  13.341   7.436
53248SOL    HW161641   0.540  13.318   7.409
53248SOL    HW261642   0.660  13.400   7.367
53249SOL     OW61643   7.939  13.157  14.020
53249SOL    HW161644   7.986  13.104  14.084
53249SOL    HW261645   7.990  13.149  13.939
53250SOL     OW61646   5.233   6.830  11.553
53250SOL    HW161647   5.215   6.790  11.637
53250SOL    HW261648   5.321   6.868  11.563
53251SOL     OW61649   2.698   1.448  13.044
53251SOL    HW161650   2.723   1.436  12.953
53251SOL    HW261651   2.612   1.407  13.051
53252SOL     OW61652   8.227   7.240   8.801
53252SOL    HW161653   8.148   7.190   8.785
53252SOL    HW261654   8.196   7.330   8.817
53253SOL     OW61655   0.691  10.518   0.536
53253SOL    HW161656   0.616  10.467   0.505
53253SOL    HW261657   0.696  10.499   0.629
53254SOL     OW61658   2.472  12.974  12.984
53254SOL    HW161659   2.473  13.000  13.076
53254SOL    HW261660   2.565  12.973  12.959
53255SOL     OW61661   1.875  11.144   3.160
53255SOL    HW161662   1.884  11.116   3.069
53255SOL    HW261663   1.821  11.224   3.154
53256SOL     OW61664   0.040  12.490   4.750
53256SOL    HW161665   0.091  12.532   4.818
53256SOL    HW261666   0.102  12.477   4.678
53257SOL     OW61667   8.402  12.973   5.338
53257SOL    HW161668   8.361  13.052   5.372
53257SOL    HW261669   8.424  12.994   5.247
53258SOL     OW61670   3.817   6.232   3.158
53258SOL    HW161671   3.807   6.303   3.221
53258SOL    HW261672   3.907   6.239   3.126
53259SOL     OW61673   2.817  11.093   5.170
53259SOL    HW161674   2.813  11.061   5.080
53259SOL    HW261675   2.906  11.073   5.199
53260SOL     OW61676   7.626   6.076   8.661
53260SOL    HW161677   7.536   6.066   8.691
53260SOL    HW261678   7.637   6.007   8.595
53261SOL     OW61679  12.580   0.094  11.120
53261SOL    HW161680  12.621   0.113  11.035
53261SOL    HW261681  12.651   0.058  11.173
53262SOL     OW61682  14.661  12.908   6.354
53262SOL    HW161683  14.737  12.867   6.314
53262SOL    HW261684  14.689  12.998   6.374
53263SOL     OW61685   5.972   3.763   3.082
53263SOL    HW161686   5.968   3.808   3.166
53263SOL    HW261687   6.056   3.789   3.044
53264SOL     OW61688   7.841   1.870   8.939
53264SOL    HW161689   7.754   1.844   8.969
53264SOL    HW261690   7.824   1.931   8.868
53265SOL     OW61691   4.238   6.108  14.517
53265SOL    HW161692   4.310   6.112  14.580
53265SOL    HW261693   4.259   6.176  14.453
53266SOL     OW61694  10.715   6.585   0.687
53266SOL    HW161695  10.625   6.575   0.715
53266SOL    HW261696  10.709   6.594   0.591
53267SOL     OW61697   0.384  10.986   0.917
53267SOL    HW161698   0.317  11.001   0.983
53267SOL    HW261699   0.335  10.979   0.835
53268SOL     OW61700   4.855   9.730   0.022
53268SOL    HW161701   4.904   9.794  14.841
53268SOL    HW261702   4.788   9.698  14.830
53269SOL     OW61703   8.758   5.595  13.445
53269SOL    HW161704   8.789   5.590  13.536
53269SOL    HW261705   8.805   5.669  13.408
53270SOL     OW61706   9.575  13.166  14.412
53270SOL    HW161707   9.493  13.152  14.366
53270SOL    HW261708   9.566  13.252  14.452
53271SOL     OW61709  10.493   8.205   5.012
53271SOL    HW161710  10.503   8.226   5.105
53271SOL    HW261711  10.431   8.132   5.010
53272SOL     OW61712   2.581   5.467   1.699
53272SOL    HW161713   2.591   5.372   1.689
53272SOL    HW261714   2.603   5.484   1.790
53273SOL     OW61715   7.030  14.635   8.210
53273SOL    HW161716   7.014  14.602   8.298
53273SOL    HW261717   7.124  14.626   8.197
53274SOL     OW61718   5.124   4.499   9.147
53274SOL    HW161719   5.117   4.577   9.092
53274SOL    HW261720   5.050   4.445   9.122
53275SOL     OW61721  13.753   4.015  14.176
53275SOL    HW161722  13.679   4.000  14.118
53275SOL    HW261723  13.732   3.965  14.255
53276SOL     OW61724   1.978  11.719   6.730
53276SOL    HW161725   2.014  11.644   6.683
53276SOL    HW261726   1.922  11.680   6.797
53277SOL     OW61727   4.368  11.336  10.850
53277SOL    HW161728   4.433  11.335  10.780
53277SOL    HW261729   4.419  11.327  10.931
53278SOL     OW61730   1.001  13.718   6.615
53278SOL    HW161731   0.910  13.698   6.594
53278SOL    HW261732   0.998  13.752   6.704
53279SOL     OW61733   6.524  10.801  12.698
53279SOL    HW161734   6.599  10.856  12.717
53279SOL    HW261735   6.459  10.824  12.765
53280SOL     OW61736   4.832   7.686   2.126
53280SOL    HW161737   4.889   7.755   2.161
53280SOL    HW261738   4.875   7.604   2.150
53281SOL     OW61739  12.737  12.252   6.073
53281SOL    HW161740  12.832  12.257   6.088
53281SOL    HW261741  12.698  12.263   6.159
53282SOL     OW61742  12.592   7.022   5.044
53282SOL    HW161743  12.579   7.114   5.024
53282SOL    HW261744  12.506   6.992   5.075
53283SOL     OW61745   9.356   1.430   3.761
53283SOL    HW161746   9.370   1.340   3.734
53283SOL    HW261747   9.434   1.477   3.732
53284SOL     OW61748   7.983  14.238   9.517
53284SOL    HW161749   7.966  14.328   9.492
53284SOL    HW261750   8.059  14.243   9.575
53285SOL     OW61751  13.190   9.056   2.472
53285SOL    HW161752  13.204   8.994   2.544
53285SOL    HW261753  13.262   9.118   2.480
53286SOL     OW61754   2.321  10.177   8.071
53286SOL    HW161755   2.406  10.164   8.028
53286SOL    HW261756   2.322  10.117   8.146
53287SOL     OW61757   6.481  12.484  11.814
53287SOL    HW161758   6.431  12.493  11.895
53287SOL    HW261759   6.548  12.419  11.834
53288SOL     OW61760   0.525   3.121  13.086
53288SOL    HW161761   0.568   3.200  13.053
53288SOL    HW261762   0.576   3.049  13.049
53289SOL     OW61763  14.272   8.251   8.223
53289SOL    HW161764  14.241   8.180   8.279
53289SOL    HW261765  14.198   8.311   8.216
53290SOL     OW61766   1.428   7.205  11.947
53290SOL    HW161767   1.402   7.220  12.038
53290SOL    HW261768   1.350   7.169  11.906
53291SOL     OW61769   8.373  11.722   2.905
53291SOL    HW161770   8.371  11.685   2.817
53291SOL    HW261771   8.449  11.781   2.904
53292SOL     OW61772   2.175  14.225   4.713
53292SOL    HW161773   2.234  14.293   4.747
53292SOL    HW261774   2.191  14.225   4.618
53293SOL     OW61775  12.478  13.247  11.356
53293SOL    HW161776  12.531  13.280  11.429
53293SOL    HW261777  12.478  13.152  11.367
53294SOL     OW61778   3.925   4.716  11.162
53294SOL    HW161779   3.910   4.647  11.226
53294SOL    HW261780   4.018   4.710  11.141
53295SOL     OW61781   3.172  10.496   1.086
53295SOL    HW161782   3.133  10.529   1.005
53295SOL    HW261783   3.149  10.403   1.087
53296SOL     OW61784   6.553   0.118   7.079
53296SOL    HW161785   6.555   0.067   7.160
53296SOL    HW261786   6.631   0.174   7.083
53297SOL     OW61787   3.695  11.987   2.984
53297SOL    HW161788   3.614  12.026   3.019
53297SOL    HW261789   3.665  11.916   2.928
53298SOL     OW61790   8.797  11.868   7.335
53298SOL    HW161791   8.776  11.900   7.422
53298SOL    HW261792   8.752  11.783   7.329
53299SOL     OW61793  13.814   0.731   3.436
53299SOL    HW161794  13.735   0.685   3.406
53299SOL    HW261795  13.812   0.814   3.389
53300SOL     OW61796   3.086   5.409  11.489
53300SOL    HW161797   3.118   5.407  11.399
53300SOL    HW261798   3.109   5.323  11.525
53301SOL     OW61799  10.495  14.493   4.475
53301SOL    HW161800  10.570  14.516   4.420
53301SOL    HW261801  10.526  14.506   4.565
53302SOL     OW61802   3.683   6.856   4.505
53302SOL    HW161803   3.611   6.812   4.460
53302SOL    HW261804   3.693   6.939   4.457
53303SOL     OW61805  11.062   3.619   2.241
53303SOL    HW161806  11.101   3.597   2.325
53303SOL    HW261807  11.135   3.647   2.187
53304SOL     OW61808   2.133   1.741  14.827
53304SOL    HW161809   2.138   1.834  14.851
53304SOL    HW261810   2.221   1.708  14.842
53305SOL     OW61811  12.016   5.350  13.114
53305SOL    HW161812  11.975   5.290  13.051
53305SOL    HW261813  11.947   5.412  13.138
53306SOL     OW61814  14.003   7.869   1.468
53306SOL    HW161815  13.971   7.920   1.394
53306SOL    HW261816  14.070   7.923   1.508
53307SOL     OW61817   3.559   3.644   1.906
53307SOL    HW161818   3.643   3.678   1.875
53307SOL    HW261819   3.494   3.701   1.866
53308SOL     OW61820   7.247   8.971   9.144
53308SOL    HW161821   7.158   9.004   9.145
53308SOL    HW261822   7.263   8.946   9.053
53309SOL     OW61823   9.991   7.707   4.343
53309SOL    HW161824   9.965   7.616   4.358
53309SOL    HW261825   9.966   7.752   4.423
53310SOL     OW61826   9.820  11.914  12.046
53310SOL    HW161827   9.909  11.915  12.083
53310SOL    HW261828   9.777  11.840  12.088
53311SOL     OW61829  12.463   7.415   8.332
53311SOL    HW161830  12.547   7.382   8.365
53311SOL    HW261831  12.449   7.496   8.381
53312SOL     OW61832  10.039  11.279  12.846
53312SOL    HW161833  10.065  11.195  12.884
53312SOL    HW261834  10.114  11.336  12.860
53313SOL     OW61835   4.413  14.590  11.182
53313SOL    HW161836   4.402  14.500  11.212
53313SOL    HW261837   4.330  14.612  11.139
53314SOL     OW61838   9.591   9.513  12.590
53314SOL    HW161839   9.549   9.545  12.510
53314SOL    HW261840   9.650   9.584  12.616
53315SOL     OW61841   3.476   0.000  14.201
53315SOL    HW161842   3.568   0.024  14.212
53315SOL    HW261843   3.469  14.782  14.239
53316SOL     OW61844   5.285   4.303  11.484
53316SOL    HW161845   5.352   4.297  11.417
53316SOL    HW261846   5.327   4.349  11.557
53317SOL     OW61847   3.749  13.768   9.165
53317SOL    HW161848   3.674  13.724   9.126
53317SOL    HW261849   3.752  13.736   9.255
53318SOL     OW61850   9.433   5.137   9.743
53318SOL    HW161851   9.409   5.204   9.807
53318SOL    HW261852   9.355   5.127   9.688
53319SOL     OW61853   0.309   5.357   2.526
53319SOL    HW161854   0.254   5.328   2.599
53319SOL    HW261855   0.398   5.352   2.561
53320SOL     OW61856   9.555   5.746   1.137
53320SOL    HW161857   9.487   5.706   1.083
53320SOL    HW261858   9.583   5.675   1.196
53321SOL     OW61859   2.519   5.873  14.035
53321SOL    HW161860   2.513   5.961  13.999
53321SOL    HW261861   2.486   5.816  13.966
53322SOL     OW61862  11.665   1.281  10.194
53322SOL    HW161863  11.750   1.263  10.234
53322SOL    HW261864  11.659   1.376  10.193
53323SOL     OW61865  11.500   8.023   9.177
53323SOL    HW161866  11.420   7.994   9.220
53323SOL    HW261867  11.482   8.015   9.083
53324SOL     OW61868   2.900  10.747   3.304
53324SOL    HW161869   2.831  10.681   3.301
53324SOL    HW261870   2.898  10.780   3.394
53325SOL     OW61871  10.368   6.135  10.161
53325SOL    HW161872  10.379   6.216  10.112
53325SOL    HW261873  10.457   6.105  10.178
53326SOL     OW61874   8.671  13.252   0.705
53326SOL    HW161875   8.692  13.189   0.774
53326SOL    HW261876   8.746  13.312   0.705
53327SOL     OW61877   6.189  13.224  10.302
53327SOL    HW161878   6.254  13.220  10.232
53327SOL    HW261879   6.170  13.133  10.323
53328SOL     OW61880  12.032  10.215  13.518
53328SOL    HW161881  11.945  10.201  13.555
53328SOL    HW261882  12.085  10.145  13.556
53329SOL     OW61883   4.734   9.863  13.386
53329SOL    HW161884   4.750   9.939  13.329
53329SOL    HW261885   4.817   9.817  13.389
53330SOL     OW61886   2.517   6.158   0.550
53330SOL    HW161887   2.451   6.220   0.519
53330SOL    HW261888   2.582   6.213   0.595
53331SOL     OW61889  14.092   4.739  11.440
53331SOL    HW161890  14.052   4.790  11.511
53331SOL    HW261891  14.168   4.698  11.481
53332SOL     OW61892  12.386   3.809   8.516
53332SOL    HW161893  12.391   3.815   8.612
53332SOL    HW261894  12.352   3.893   8.487
53333SOL     OW61895   2.932  14.337   3.600
53333SOL    HW161896   3.008  14.393   3.583
53333SOL    HW261897   2.923  14.284   3.521
53334SOL     OW61898  11.097   5.898   2.042
53334SOL    HW161899  11.192   5.905   2.051
53334SOL    HW261900  11.062   5.968   2.098
53335SOL     OW61901   5.947  11.079  14.189
53335SOL    HW161902   5.983  11.000  14.148
53335SOL    HW261903   5.895  11.046  14.262
53336SOL     OW61904   5.757   6.323   4.763
53336SOL    HW161905   5.666   6.294   4.764
53336SOL    HW261906   5.800   6.271   4.830
53337SOL     OW61907  13.574   8.617   9.868
53337SOL    HW161908  13.572   8.712   9.864
53337SOL    HW261909  13.511   8.594   9.936
53338SOL     OW61910   4.307   0.051   1.944
53338SOL    HW161911   4.338  14.856   1.881
53338SOL    HW261912   4.375   0.054   2.011
53339SOL     OW61913  12.210  13.398  13.866
53339SOL    HW161914  12.128  13.354  13.889
53339SOL    HW261915  12.267  13.385  13.942
53340SOL     OW61916  10.606  10.130  12.059
53340SOL    HW161917  10.651  10.045  12.053
53340SOL    HW261918  10.526  10.111  12.107
53341SOL     OW61919  11.962  12.039  11.492
53341SOL    HW161920  12.027  12.099  11.454
53341SOL    HW261921  12.000  12.014  11.577
53342SOL     OW61922   0.651   2.649   5.921
53342SOL    HW161923   0.605   2.703   5.985
53342SOL    HW261924   0.586   2.632   5.853
53343SOL     OW61925   2.598   9.009   7.515
53343SOL    HW161926   2.512   9.042   7.488
53343SOL    HW261927   2.661   9.070   7.475
53344SOL     OW61928   0.826  10.027   8.705
53344SOL    HW161929   0.822   9.942   8.750
53344SOL    HW261930   0.912  10.028   8.664
53345SOL     OW61931   3.436  12.908  11.819
53345SOL    HW161932   3.446  12.883  11.912
53345SOL    HW261933   3.362  12.969  11.818
53346SOL     OW61934  13.941   1.150   2.751
53346SOL    HW161935  13.937   1.188   2.839
53346SOL    HW261936  14.022   1.184   2.714
53347SOL     OW61937   0.863   1.874   2.799
53347SOL    HW161938   0.941   1.916   2.762
53347SOL    HW261939   0.867   1.894   2.892
53348SOL     OW61940   1.675   4.808   2.409
53348SOL    HW161941   1.717   4.890   2.437
53348SOL    HW261942   1.690   4.805   2.315
53349SOL     OW61943   2.809   0.609   1.238
53349SOL    HW161944   2.889   0.654   1.213
53349SOL    HW261945   2.820   0.520   1.205
53350SOL     OW61946   4.675   8.168   2.022
53350SOL    HW161947   4.629   8.128   1.948
53350SOL    HW261948   4.645   8.120   2.099
53351SOL     OW61949  12.256  12.297   0.664
53351SOL    HW161950  12.175  12.293   0.613
53351SOL    HW261951  12.273  12.391   0.674
53352SOL     OW61952  12.688   2.289   7.527
53352SOL    HW161953  12.774   2.249   7.536
53352SOL    HW261954  12.633   2.219   7.491
53353SOL     OW61955   8.330  10.870   2.113
53353SOL    HW161956   8.391  10.860   2.039
53353SOL    HW261957   8.245  10.885   2.071
53354SOL     OW61958   5.146  11.082   2.467
53354SOL    HW161959   5.236  11.071   2.435
53354SOL    HW261960   5.132  11.006   2.523
53355SOL     OW61961   3.792  14.627   9.193
53355SOL    HW161962   3.722  14.660   9.136
53355SOL    HW261963   3.749  14.562   9.249
53356SOL     OW61964   7.034  12.228   5.582
53356SOL    HW161965   7.082  12.160   5.534
53356SOL    HW261966   6.966  12.181   5.629
53357SOL     OW61967   6.792  14.861   3.608
53357SOL    HW161968   6.879  14.858   3.568
53357SOL    HW261969   6.762  14.770   3.607
53358SOL     OW61970   9.025   2.827  12.883
53358SOL    HW161971   9.009   2.777  12.963
53358SOL    HW261972   9.039   2.917  12.912
53359SOL     OW61973  11.281  10.934  10.308
53359SOL    HW161974  11.314  10.922  10.397
53359SOL    HW261975  11.191  10.965  10.319
53360SOL     OW61976  10.172   5.485   0.500
53360SOL    HW161977  10.208   5.448   0.420
53360SOL    HW261978  10.126   5.412   0.541
53361SOL     OW61979   4.225   3.683   4.329
53361SOL    HW161980   4.180   3.746   4.272
53361SOL    HW261981   4.250   3.734   4.406
53362SOL     OW61982   1.261   9.636   6.290
53362SOL    HW161983   1.339   9.690   6.303
53362SOL    HW261984   1.293   9.546   6.298
53363SOL     OW61985   4.855  11.558   3.512
53363SOL    HW161986   4.893  11.536   3.597
53363SOL    HW261987   4.916  11.523   3.448
53364SOL     OW61988  14.795   3.316  14.866
53364SOL    HW161989  14.770   3.408   0.005
53364SOL    HW261990  14.840   3.311  14.781
53365SOL     OW61991   0.659   9.570   4.493
53365SOL    HW161992   0.629   9.527   4.413
53365SOL    HW261993   0.639   9.508   4.563
53366SOL     OW61994  13.225  12.014  13.265
53366SOL    HW161995  13.212  11.924  13.235
53366SOL    HW261996  13.145  12.060  13.238
53367SOL     OW61997  12.986   7.116   1.142
53367SOL    HW161998  13.057   7.180   1.147
53367SOL    HW261999  12.913   7.164   1.103
53368SOL     OW62000   5.250   2.388  13.689
53368SOL    HW162001   5.219   2.444  13.617
53368SOL    HW262002   5.291   2.449  13.751
53369SOL     OW62003   3.080   9.154   8.766
53369SOL    HW162004   3.127   9.213   8.825
53369SOL    HW262005   3.071   9.204   8.685
53370SOL     OW62006  12.365  12.383  14.049
53370SOL    HW162007  12.416  12.413  14.124
53370SOL    HW262008  12.429  12.373  13.978
53371SOL     OW62009   9.809   3.814  14.834
53371SOL    HW162010   9.796   3.839   0.056
53371SOL    HW262011   9.871   3.878  14.800
53372SOL     OW62012   4.727   8.869   6.461
53372SOL    HW162013   4.698   8.957   6.483
53372SOL    HW262014   4.756   8.832   6.544
53373SOL     OW62015   2.104   8.043   6.947
53373SOL    HW162016   2.081   8.113   7.007
53373SOL    HW262017   2.097   7.963   6.999
53374SOL     OW62018  13.451   1.405  13.974
53374SOL    HW162019  13.419   1.319  14.002
53374SOL    HW262020  13.542   1.408  14.003
53375SOL     OW62021  11.124  14.086  10.657
53375SOL    HW162022  11.163  14.055  10.739
53375SOL    HW262023  11.070  14.160  10.683
53376SOL     OW62024  14.575  10.696  10.608
53376SOL    HW162025  14.486  10.711  10.577
53376SOL    HW262026  14.570  10.615  10.658
53377SOL     OW62027   4.413   4.007   9.522
53377SOL    HW162028   4.450   4.005   9.433
53377SOL    HW262029   4.341   3.944   9.520
53378SOL     OW62030   5.763  12.715   5.607
53378SOL    HW162031   5.703  12.743   5.537
53378SOL    HW262032   5.733  12.627   5.629
53379SOL     OW62033  12.598   3.064   3.839
53379SOL    HW162034  12.688   3.096   3.828
53379SOL    HW262035  12.570   3.040   3.751
53380SOL     OW62036   5.367   8.753   6.076
53380SOL    HW162037   5.337   8.823   6.134
53380SOL    HW262038   5.289   8.727   6.027
53381SOL     OW62039  12.906   4.407   7.764
53381SOL    HW162040  12.885   4.389   7.672
53381SOL    HW262041  12.870   4.332   7.812
53382SOL     OW62042  14.038  11.386   1.676
53382SOL    HW162043  13.962  11.363   1.730
53382SOL    HW262044  14.064  11.305   1.634
53383SOL     OW62045   9.108   2.534   4.864
53383SOL    HW162046   9.055   2.542   4.785
53383SOL    HW262047   9.090   2.445   4.896
53384SOL     OW62048   5.872   6.160   0.900
53384SOL    HW162049   5.779   6.182   0.913
53384SOL    HW262050   5.873   6.065   0.896
53385SOL     OW62051  13.162   8.877  12.040
53385SOL    HW162052  13.190   8.917  12.122
53385SOL    HW262053  13.192   8.938  11.972
53386SOL     OW62054   2.483   5.786   3.422
53386SOL    HW162055   2.506   5.746   3.506
53386SOL    HW262056   2.564   5.827   3.393
53387SOL     OW62057   9.943  14.076   9.609
53387SOL    HW162058   9.968  13.992   9.569
53387SOL    HW262059   9.968  14.067   9.701
53388SOL     OW62060   6.682   9.386  13.827
53388SOL    HW162061   6.691   9.371  13.733
53388SOL    HW262062   6.720   9.473  13.841
53389SOL     OW62063  12.114   9.331   2.838
53389SOL    HW162064  12.049   9.291   2.896
53389SOL    HW262065  12.174   9.377   2.898
53390SOL     OW62066   0.611   8.288   9.654
53390SOL    HW162067   0.670   8.312   9.583
53390SOL    HW262068   0.628   8.195   9.670
53391SOL     OW62069   2.413  11.072  11.710
53391SOL    HW162070   2.383  11.006  11.772
53391SOL    HW262071   2.354  11.062  11.635
53392SOL     OW62072   1.036  14.275   6.553
53392SOL    HW162073   1.117  14.226   6.543
53392SOL    HW262074   1.063  14.358   6.593
53393SOL     OW62075   9.461  13.402  13.986
53393SOL    HW162076   9.532  13.427  14.044
53393SOL    HW262077   9.383  13.401  14.042
53394SOL     OW62078   5.788   3.611   5.939
53394SOL    HW162079   5.701   3.651   5.945
53394SOL    HW262080   5.774   3.529   5.894
53395SOL     OW62081   6.576   5.170  13.195
53395SOL    HW162082   6.655   5.210  13.232
53395SOL    HW262083   6.578   5.080  13.229
53396SOL     OW62084  11.114   8.562   1.677
53396SOL    HW162085  11.097   8.627   1.609
53396SOL    HW262086  11.115   8.612   1.759
53397SOL     OW62087   1.725   0.536   8.021
53397SOL    HW162088   1.763   0.553   8.106
53397SOL    HW262089   1.687   0.448   8.029
53398SOL     OW62090   0.310   5.271   6.110
53398SOL    HW162091   0.274   5.359   6.103
53398SOL    HW262092   0.252   5.217   6.057
53399SOL     OW62093   9.523   8.556  12.975
53399SOL    HW162094   9.579   8.500  12.921
53399SOL    HW262095   9.536   8.644  12.940
53400SOL     OW62096   9.478   0.676   3.960
53400SOL    HW162097   9.498   0.750   4.016
53400SOL    HW262098   9.468   0.714   3.872
53401SOL     OW62099   4.024  14.230   0.178
53401SOL    HW162100   4.008  14.135   0.179
53401SOL    HW262101   4.104  14.240   0.230
53402SOL     OW62102   3.613   8.960  11.294
53402SOL    HW162103   3.646   8.924  11.376
53402SOL    HW262104   3.526   8.993  11.316
53403SOL     OW62105   5.382   9.693   5.868
53403SOL    HW162106   5.403   9.778   5.831
53403SOL    HW262107   5.427   9.630   5.811
53404SOL     OW62108   4.181  12.601   4.010
53404SOL    HW162109   4.201  12.695   4.016
53404SOL    HW262110   4.120  12.595   3.937
53405SOL     OW62111   3.569   2.392   0.124
53405SOL    HW162112   3.607   2.400   0.212
53405SOL    HW262113   3.641   2.366   0.068
53406SOL     OW62114   9.959  11.279   7.008
53406SOL    HW162115  10.041  11.239   7.036
53406SOL    HW262116   9.984  11.369   6.984
53407SOL     OW62117   5.959   0.962  11.504
53407SOL    HW162118   5.890   0.908  11.467
53407SOL    HW262119   6.007   0.995  11.428
53408SOL     OW62120   0.241   2.454   2.376
53408SOL    HW162121   0.176   2.468   2.307
53408SOL    HW262122   0.204   2.498   2.453
53409SOL     OW62123  11.933  12.238  12.241
53409SOL    HW162124  12.026  12.251  12.220
53409SOL    HW262125  11.923  12.143  12.247
53410SOL     OW62126   4.352   4.428  14.116
53410SOL    HW162127   4.436   4.390  14.091
53410SOL    HW262128   4.352   4.427  14.211
53411SOL     OW62129   7.079   1.304   7.853
53411SOL    HW162130   7.124   1.228   7.814
53411SOL    HW262131   6.991   1.300   7.816
53412SOL     OW62132   4.178   8.653  12.060
53412SOL    HW162133   4.169   8.618  12.149
53412SOL    HW262134   4.187   8.747  12.072
53413SOL     OW62135   8.846   2.612   6.192
53413SOL    HW162136   8.883   2.538   6.145
53413SOL    HW262137   8.757   2.584   6.213
53414SOL     OW62138   9.035  14.301  11.653
53414SOL    HW162139   9.008  14.256  11.733
53414SOL    HW262140   9.093  14.371  11.683
53415SOL     OW62141  13.361   5.274   6.128
53415SOL    HW162142  13.372   5.297   6.220
53415SOL    HW262143  13.438   5.220   6.108
53416SOL     OW62144   5.346   3.748   4.710
53416SOL    HW162145   5.332   3.839   4.685
53416SOL    HW262146   5.376   3.705   4.630
53417SOL     OW62147  12.077  12.762   5.848
53417SOL    HW162148  11.990  12.799   5.862
53417SOL    HW262149  12.135  12.813   5.904
53418SOL     OW62150   8.276  11.296   1.369
53418SOL    HW162151   8.301  11.230   1.305
53418SOL    HW262152   8.354  11.310   1.422
53419SOL     OW62153  10.628   5.016   0.261
53419SOL    HW162154  10.677   4.938   0.238
53419SOL    HW262155  10.607   5.057   0.176
53420SOL     OW62156   7.487  10.841   8.962
53420SOL    HW162157   7.528  10.898   8.897
53420SOL    HW262158   7.407  10.810   8.921
53421SOL     OW62159   5.136  13.668  11.622
53421SOL    HW162160   5.168  13.709  11.702
53421SOL    HW262161   5.197  13.696  11.554
53422SOL     OW62162   2.122   9.797   1.764
53422SOL    HW162163   2.198   9.763   1.811
53422SOL    HW262164   2.082   9.859   1.824
53423SOL     OW62165   6.303   5.336   9.001
53423SOL    HW162166   6.262   5.419   9.025
53423SOL    HW262167   6.346   5.307   9.082
53424SOL     OW62168   0.383   0.174   0.604
53424SOL    HW162169   0.477   0.160   0.616
53424SOL    HW262170   0.377   0.235   0.531
53425SOL     OW62171  14.556   0.574  14.742
53425SOL    HW162172  14.632   0.629  14.723
53425SOL    HW262173  14.483   0.635  14.749
53426SOL     OW62174   5.731  14.539  14.373
53426SOL    HW162175   5.822  14.565  14.362
53426SOL    HW262176   5.681  14.596  14.314
53427SOL     OW62177   1.496  11.165  11.213
53427SOL    HW162178   1.521  11.161  11.120
53427SOL    HW262179   1.416  11.218  11.213
53428SOL     OW62180  14.555   8.802   0.505
53428SOL    HW162181  14.540   8.717   0.463
53428SOL    HW262182  14.628   8.787   0.564
53429SOL     OW62183  12.710   1.353   0.638
53429SOL    HW162184  12.646   1.284   0.626
53429SOL    HW262185  12.774   1.339   0.568
53430SOL     OW62186   7.937  14.222  10.180
53430SOL    HW162187   7.991  14.162  10.128
53430SOL    HW262188   7.892  14.165  10.243
53431SOL     OW62189  10.480   7.751  10.425
53431SOL    HW162190  10.457   7.824  10.483
53431SOL    HW262191  10.397   7.704  10.413
53432SOL     OW62192  11.531   8.144  11.128
53432SOL    HW162193  11.545   8.054  11.098
53432SOL    HW262194  11.477   8.184  11.060
53433SOL     OW62195  14.370   9.518   8.372
53433SOL    HW162196  14.369   9.531   8.467
53433SOL    HW262197  14.296   9.569   8.340
53434SOL     OW62198  14.767   6.339   4.006
53434SOL    HW162199  14.849   6.364   4.047
53434SOL    HW262200  14.793   6.299   3.923
53435SOL     OW62201   4.333   9.912   6.639
53435SOL    HW162202   4.326   9.828   6.594
53435SOL    HW262203   4.394   9.963   6.586
53436SOL     OW62204   7.790   3.181   9.054
53436SOL    HW162205   7.855   3.221   8.996
53436SOL    HW262206   7.814   3.088   9.057
53437SOL     OW62207  14.619  11.067  12.382
53437SOL    HW162208  14.647  11.146  12.336
53437SOL    HW262209  14.567  11.099  12.455
53438SOL     OW62210  10.218   9.421  11.351
53438SOL    HW162211  10.202   9.515  11.338
53438SOL    HW262212  10.310   9.415  11.373
53439SOL     OW62213  11.740  13.716   6.783
53439SOL    HW162214  11.754  13.791   6.725
53439SOL    HW262215  11.762  13.640   6.730
53440SOL     OW62216  14.750   0.295   9.027
53440SOL    HW162217  14.731   0.269   8.937
53440SOL    HW262218  14.793   0.380   9.018
53441SOL     OW62219   0.265   0.888   2.676
53441SOL    HW162220   0.331   0.906   2.609
53441SOL    HW262221   0.201   0.959   2.666
53442SOL     OW62222   2.058   8.164  13.339
53442SOL    HW162223   2.064   8.258  13.323
53442SOL    HW262224   2.139   8.142  13.386
53443SOL     OW62225   4.270   7.358   6.540
53443SOL    HW162226   4.229   7.284   6.585
53443SOL    HW262227   4.258   7.432   6.600
53444SOL     OW62228   2.350  11.170   6.410
53444SOL    HW162229   2.396  11.206   6.485
53444SOL    HW262230   2.299  11.097   6.446
53445SOL     OW62231   3.856   6.376   6.790
53445SOL    HW162232   3.786   6.313   6.806
53445SOL    HW262233   3.903   6.340   6.714
53446SOL     OW62234  13.187  13.048  10.300
53446SOL    HW162235  13.101  13.007  10.298
53446SOL    HW262236  13.248  12.977  10.279
53447SOL     OW62237   0.001   7.258   7.896
53447SOL    HW162238   0.030   7.285   7.809
53447SOL    HW262239  14.783   7.295   7.905
53448SOL     OW62240   4.102  12.110  12.216
53448SOL    HW162241   4.164  12.047  12.253
53448SOL    HW262242   4.072  12.160  12.292
53449SOL     OW62243  14.181   5.174   7.509
53449SOL    HW162244  14.158   5.267   7.501
53449SOL    HW262245  14.192   5.144   7.418
53450SOL     OW62246  14.193  12.388   6.983
53450SOL    HW162247  14.120  12.450   6.974
53450SOL    HW262248  14.232  12.386   6.895
53451SOL     OW62249   2.832   7.287  13.530
53451SOL    HW162250   2.829   7.241  13.446
53451SOL    HW262251   2.745   7.274  13.568
53452SOL     OW62252   6.031   5.294   8.229
53452SOL    HW162253   6.040   5.312   8.135
53452SOL    HW262254   6.047   5.200   8.237
53453SOL     OW62255   6.405  11.611   4.367
53453SOL    HW162256   6.396  11.652   4.281
53453SOL    HW262257   6.349  11.533   4.363
53454SOL     OW62258   4.950   8.464   3.308
53454SOL    HW162259   5.038   8.502   3.313
53454SOL    HW262260   4.904   8.520   3.246
53455SOL     OW62261   2.927   8.864   8.259
53455SOL    HW162262   2.848   8.810   8.263
53455SOL    HW262263   2.913   8.921   8.184
53456SOL     OW62264  13.194  13.990   3.323
53456SOL    HW162265  13.160  14.037   3.399
53456SOL    HW262266  13.218  13.904   3.356
53457SOL     OW62267   5.291   8.075   8.295
53457SOL    HW162268   5.350   8.130   8.348
53457SOL    HW262269   5.323   7.986   8.308
53458SOL     OW62270   2.260   2.981  13.090
53458SOL    HW162271   2.274   3.076  13.095
53458SOL    HW262272   2.301   2.956  13.007
53459SOL     OW62273   0.013  14.703   9.816
53459SOL    HW162274  14.806  14.744   9.856
53459SOL    HW262275  14.847  14.635   9.759
53460SOL     OW62276   3.126   0.919   8.173
53460SOL    HW162277   3.071   0.842   8.162
53460SOL    HW262278   3.182   0.921   8.095
53461SOL     OW62279   2.006   0.521   5.822
53461SOL    HW162280   2.077   0.511   5.758
53461SOL    HW262281   1.933   0.558   5.772
53462SOL     OW62282   1.552  12.888   1.981
53462SOL    HW162283   1.607  12.819   2.020
53462SOL    HW262284   1.505  12.844   1.911
53463SOL     OW62285   7.680   0.816   3.855
53463SOL    HW162286   7.594   0.816   3.898
53463SOL    HW262287   7.736   0.763   3.913
53464SOL     OW62288  12.134   9.916  14.782
53464SOL    HW162289  12.143   9.972  14.705
53464SOL    HW262290  12.223   9.900  14.811
53465SOL     OW62291  11.179   7.283   5.421
53465SOL    HW162292  11.092   7.290   5.461
53465SOL    HW262293  11.163   7.281   5.327
53466SOL     OW62294   9.385   6.173   0.422
53466SOL    HW162295   9.304   6.223   0.417
53466SOL    HW262296   9.418   6.171   0.332
53467SOL     OW62297   6.629   8.976  10.877
53467SOL    HW162298   6.583   9.013  10.952
53467SOL    HW262299   6.589   8.891  10.863
53468SOL     OW62300  12.593  13.104   2.230
53468SOL    HW162301  12.685  13.081   2.217
53468SOL    HW262302  12.593  13.199   2.238
53469SOL     OW62303   5.466   5.768   4.646
53469SOL    HW162304   5.479   5.738   4.736
53469SOL    HW262305   5.543   5.736   4.599
53470SOL     OW62306   8.255   8.048   4.348
53470SOL    HW162307   8.256   8.142   4.363
53470SOL    HW262308   8.332   8.015   4.393
53471SOL     OW62309   9.012   2.950  14.569
53471SOL    HW162310   8.934   3.003  14.585
53471SOL    HW262311   9.082   3.014  14.558
53472SOL     OW62312   4.082   9.105  10.391
53472SOL    HW162313   4.061   9.027  10.442
53472SOL    HW262314   4.036   9.177  10.435
53473SOL     OW62315   0.769   9.789   8.487
53473SOL    HW162316   0.814   9.750   8.562
53473SOL    HW262317   0.833   9.848   8.448
53474SOL     OW62318   6.953  13.029   3.687
53474SOL    HW162319   7.020  13.096   3.677
53474SOL    HW262320   6.938  12.996   3.599
53475SOL     OW62321  11.071  11.598   9.129
53475SOL    HW162322  10.987  11.639   9.147
53475SOL    HW262323  11.063  11.509   9.162
53476SOL     OW62324  13.358  12.695  14.795
53476SOL    HW162325  13.346  12.670  14.704
53476SOL    HW262326  13.273  12.680  14.836
53477SOL     OW62327   5.231   6.181   8.883
53477SOL    HW162328   5.140   6.160   8.904
53477SOL    HW262329   5.227   6.219   8.795
53478SOL     OW62330  14.748   2.081   6.216
53478SOL    HW162331  14.809   2.154   6.203
53478SOL    HW262332  14.663   2.116   6.189
53479SOL     OW62333   7.339   5.338  12.122
53479SOL    HW162334   7.415   5.295  12.083
53479SOL    HW262335   7.373   5.381  12.201
53480SOL     OW62336   7.243   2.319   4.014
53480SOL    HW162337   7.168   2.259   4.019
53480SOL    HW262338   7.206   2.404   4.038
53481SOL     OW62339   8.019  14.093   9.914
53481SOL    HW162340   7.969  14.039   9.974
53481SOL    HW262341   8.071  14.031   9.863
53482SOL     OW62342  13.033  13.301   3.741
53482SOL    HW162343  12.941  13.319   3.762
53482SOL    HW262344  13.055  13.364   3.673
53483SOL     OW62345   6.104  14.165   1.467
53483SOL    HW162346   6.165  14.188   1.537
53483SOL    HW262347   6.101  14.069   1.469
53484SOL     OW62348   3.227   7.135  11.662
53484SOL    HW162349   3.235   7.132  11.567
53484SOL    HW262350   3.312   7.105  11.695
53485SOL     OW62351  13.083  10.191  14.203
53485SOL    HW162352  13.094  10.286  14.201
53485SOL    HW262353  13.026  10.172  14.128
53486SOL     OW62354  10.825   9.730   6.163
53486SOL    HW162355  10.762   9.757   6.096
53486SOL    HW262356  10.835   9.808   6.219
53487SOL     OW62357   6.499  13.100   4.010
53487SOL    HW162358   6.478  13.181   3.965
53487SOL    HW262359   6.451  13.105   4.093
53488SOL     OW62360   8.626  13.465  13.024
53488SOL    HW162361   8.629  13.402  13.096
53488SOL    HW262362   8.533  13.469  13.000
53489SOL     OW62363  13.558   1.778   4.140
53489SOL    HW162364  13.585   1.764   4.231
53489SOL    HW262365  13.627   1.833   4.103
53490SOL     OW62366  12.948   8.730   4.229
53490SOL    HW162367  12.946   8.648   4.180
53490SOL    HW262368  12.928   8.704   4.319
53491SOL     OW62369   2.739   5.116  11.494
53491SOL    HW162370   2.791   5.144  11.418
53491SOL    HW262371   2.780   5.160  11.569
53492SOL     OW62372  10.615   1.710  10.825
53492SOL    HW162373  10.591   1.625  10.789
53492SOL    HW262374  10.711   1.710  10.825
53493SOL     OW62375  14.508   3.817   8.501
53493SOL    HW162376  14.499   3.808   8.406
53493SOL    HW262377  14.418   3.821   8.533
53494SOL     OW62378   7.173   0.209   8.207
53494SOL    HW162379   7.248   0.166   8.249
53494SOL    HW262380   7.104   0.143   8.209
53495SOL     OW62381  12.239  14.694  14.390
53495SOL    HW162382  12.252  14.777  14.343
53495SOL    HW262383  12.168  14.650  14.342
53496SOL     OW62384  11.661  12.919   2.623
53496SOL    HW162385  11.728  12.904   2.690
53496SOL    HW262386  11.701  12.886   2.542
53497SOL     OW62387   6.308   0.397  10.842
53497SOL    HW162388   6.366   0.406  10.918
53497SOL    HW262389   6.279   0.305  10.846
53498SOL     OW62390   1.557  14.116  12.794
53498SOL    HW162391   1.612  14.141  12.719
53498SOL    HW262392   1.468  14.136  12.766
53499SOL     OW62393   9.317   5.899   4.382
53499SOL    HW162394   9.395   5.950   4.406
53499SOL    HW262395   9.352   5.815   4.352
53500SOL     OW62396  12.122   2.082  13.396
53500SOL    HW162397  12.028   2.078  13.415
53500SOL    HW262398  12.128   2.069  13.301
53501SOL     OW62399   5.368  14.095   3.881
53501SOL    HW162400   5.337  14.018   3.834
53501SOL    HW262401   5.304  14.107   3.952
53502SOL     OW62402   5.619   0.062   7.652
53502SOL    HW162403   5.566  14.853   7.667
53502SOL    HW262404   5.678   0.065   7.727
53503SOL     OW62405  12.353  10.066   8.925
53503SOL    HW162406  12.443  10.089   8.948
53503SOL    HW262407  12.362   9.998   8.859
53504SOL     OW62408   0.808   8.324   1.634
53504SOL    HW162409   0.882   8.382   1.652
53504SOL    HW262410   0.845   8.236   1.638
53505SOL     OW62411   5.108   0.360  13.831
53505SOL    HW162412   5.038   0.297  13.813
53505SOL    HW262413   5.083   0.401  13.914
53506SOL     OW62414   4.399   5.552  12.485
53506SOL    HW162415   4.306   5.557  12.507
53506SOL    HW262416   4.407   5.470  12.435
53507SOL     OW62417   2.698   9.817  10.581
53507SOL    HW162418   2.728   9.833  10.671
53507SOL    HW262419   2.656   9.898  10.554
53508SOL     OW62420  11.219   1.877   5.707
53508SOL    HW162421  11.178   1.795   5.680
53508SOL    HW262422  11.277   1.852   5.779
53509SOL     OW62423   0.955   0.091  13.694
53509SOL    HW162424   0.953   0.148  13.771
53509SOL    HW262425   1.045   0.057  13.692
53510SOL     OW62426   8.205   9.172  14.415
53510SOL    HW162427   8.155   9.253  14.418
53510SOL    HW262428   8.144   9.106  14.381
53511SOL     OW62429   9.389  13.261   5.011
53511SOL    HW162430   9.395  13.328   5.079
53511SOL    HW262431   9.472  13.213   5.017
53512SOL     OW62432   4.264   3.975  14.073
53512SOL    HW162433   4.227   3.903  14.124
53512SOL    HW262434   4.339   4.005  14.123
53513SOL     OW62435  13.391   1.430  14.497
53513SOL    HW162436  13.431   1.478  14.425
53513SOL    HW262437  13.354   1.352  14.455
53514SOL     OW62438  12.321   8.201   3.957
53514SOL    HW162439  12.371   8.173   3.880
53514SOL    HW262440  12.312   8.123   4.011
53515SOL     OW62441   3.879   0.851   0.242
53515SOL    HW162442   3.893   0.756   0.238
53515SOL    HW262443   3.966   0.889   0.232
53516SOL     OW62444  11.586   8.592   0.912
53516SOL    HW162445  11.553   8.529   0.976
53516SOL    HW262446  11.681   8.591   0.924
53517SOL     OW62447  14.616   0.262  10.647
53517SOL    HW162448  14.601   0.348  10.607
53517SOL    HW262449  14.692   0.227  10.601
53518SOL     OW62450   9.931  10.996   9.095
53518SOL    HW162451  10.013  11.005   9.145
53518SOL    HW262452   9.942  10.914   9.047
53519SOL     OW62453   4.559   3.665   7.710
53519SOL    HW162454   4.567   3.757   7.734
53519SOL    HW262455   4.644   3.643   7.671
53520SOL     OW62456   9.444  13.619  13.439
53520SOL    HW162457   9.365  13.619  13.385
53520SOL    HW262458   9.462  13.711  13.456
53521SOL     OW62459   4.888   2.809  10.089
53521SOL    HW162460   4.966   2.768  10.126
53521SOL    HW262461   4.922   2.885  10.041
53522SOL     OW62462  14.723   9.077  13.281
53522SOL    HW162463  14.775   9.057  13.203
53522SOL    HW262464  14.633   9.058  13.255
53523SOL     OW62465  14.822   5.467   7.044
53523SOL    HW162466  14.869   5.493   6.965
53523SOL    HW262467  14.853   5.527   7.111
53524SOL     OW62468   3.930   8.507   5.767
53524SOL    HW162469   3.965   8.418   5.763
53524SOL    HW262470   3.881   8.510   5.850
53525SOL     OW62471   2.390  13.814  13.383
53525SOL    HW162472   2.390  13.722  13.357
53525SOL    HW262473   2.298  13.840  13.379
53526SOL     OW62474  10.109   1.886  12.505
53526SOL    HW162475  10.179   1.861  12.566
53526SOL    HW262476  10.030   1.886  12.559
53527SOL     OW62477   9.087   1.272   2.462
53527SOL    HW162478   9.126   1.325   2.392
53527SOL    HW262479   9.162   1.236   2.509
53528SOL     OW62480   7.224   2.984   0.577
53528SOL    HW162481   7.306   2.947   0.610
53528SOL    HW262482   7.200   3.050   0.641
53529SOL     OW62483   6.199   0.621  13.135
53529SOL    HW162484   6.178   0.670  13.214
53529SOL    HW262485   6.114   0.601  13.096
53530SOL     OW62486   2.180   9.371   7.549
53530SOL    HW162487   2.173   9.464   7.528
53530SOL    HW262488   2.090   9.339   7.547
53531SOL     OW62489   1.245   4.326   0.424
53531SOL    HW162490   1.183   4.354   0.357
53531SOL    HW262491   1.270   4.237   0.398
53532SOL     OW62492   4.630   0.419  10.249
53532SOL    HW162493   4.723   0.402  10.233
53532SOL    HW262494   4.626   0.512  10.273
53533SOL     OW62495  12.742   3.235  11.891
53533SOL    HW162496  12.747   3.294  11.967
53533SOL    HW262497  12.699   3.157  11.924
53534SOL     OW62498   4.367   1.764   3.918
53534SOL    HW162499   4.317   1.840   3.889
53534SOL    HW262500   4.458   1.793   3.914
53535SOL     OW62501   5.710  10.119   6.385
53535SOL    HW162502   5.714  10.215   6.388
53535SOL    HW262503   5.633  10.100   6.333
53536SOL     OW62504   2.726   1.236   6.923
53536SOL    HW162505   2.659   1.273   6.980
53536SOL    HW262506   2.688   1.236   6.836
53537SOL     OW62507   9.685   5.949   5.670
53537SOL    HW162508   9.739   6.020   5.706
53537SOL    HW262509   9.620   5.994   5.615
53538SOL     OW62510   2.929  13.324  11.477
53538SOL    HW162511   2.875  13.387  11.525
53538SOL    HW262512   2.898  13.332  11.386
53539SOL     OW62513   3.060   9.421   3.842
53539SOL    HW162514   2.985   9.370   3.872
53539SOL    HW262515   3.038   9.511   3.865
53540SOL     OW62516   3.225   7.542  12.813
53540SOL    HW162517   3.151   7.512  12.866
53540SOL    HW262518   3.210   7.504  12.727
53541SOL     OW62519   7.382   6.615  11.020
53541SOL    HW162520   7.342   6.540  11.064
53541SOL    HW262521   7.347   6.691  11.067
53542SOL     OW62522   6.538   1.355   2.789
53542SOL    HW162523   6.451   1.360   2.830
53542SOL    HW262524   6.573   1.271   2.817
53543SOL     OW62525   1.070   7.136   9.923
53543SOL    HW162526   1.138   7.075   9.896
53543SOL    HW262527   1.015   7.148   9.845
53544SOL     OW62528   0.644  14.401   0.535
53544SOL    HW162529   0.562  14.431   0.574
53544SOL    HW262530   0.637  14.306   0.532
53545SOL     OW62531   4.242  10.374  13.537
53545SOL    HW162532   4.271  10.377  13.446
53545SOL    HW262533   4.322  10.381  13.588
53546SOL     OW62534  14.792  10.025  12.764
53546SOL    HW162535  14.819  10.010  12.855
53546SOL    HW262536  14.790   9.938  12.725
53547SOL     OW62537   6.988   9.216   5.540
53547SOL    HW162538   6.995   9.191   5.632
53547SOL    HW262539   7.077   9.241   5.515
53548SOL     OW62540  12.904   6.262   1.714
53548SOL    HW162541  12.959   6.279   1.638
53548SOL    HW262542  12.815   6.260   1.680
53549SOL     OW62543   9.352   6.435   4.892
53549SOL    HW162544   9.395   6.350   4.892
53549SOL    HW262545   9.263   6.417   4.922
53550SOL     OW62546   3.360  11.429   5.588
53550SOL    HW162547   3.355  11.511   5.636
53550SOL    HW262548   3.453  11.422   5.563
53551SOL     OW62549   6.915  11.681   2.389
53551SOL    HW162550   7.009  11.678   2.374
53551SOL    HW262551   6.890  11.770   2.364
53552SOL     OW62552   5.644  11.601  14.724
53552SOL    HW162553   5.710  11.661  14.691
53552SOL    HW262554   5.561  11.647  14.708
53553SOL     OW62555   8.251   3.569  11.553
53553SOL    HW162556   8.284   3.489  11.511
53553SOL    HW262557   8.325   3.601  11.604
53554SOL     OW62558  13.177  13.763   5.621
53554SOL    HW162559  13.244  13.755   5.553
53554SOL    HW262560  13.138  13.849   5.605
53555SOL     OW62561  11.631  13.705  13.570
53555SOL    HW162562  11.635  13.612  13.547
53555SOL    HW262563  11.655  13.709  13.662
53556SOL     OW62564   8.281   8.537   5.186
53556SOL    HW162565   8.323   8.457   5.155
53556SOL    HW262566   8.346   8.605   5.170
53557SOL     OW62567   6.223  12.480   8.331
53557SOL    HW162568   6.264  12.564   8.309
53557SOL    HW262569   6.244  12.467   8.424
53558SOL     OW62570  12.739   6.947   3.132
53558SOL    HW162571  12.804   6.880   3.109
53558SOL    HW262572  12.760   6.970   3.222
53559SOL     OW62573   4.162   3.318   1.329
53559SOL    HW162574   4.158   3.232   1.369
53559SOL    HW262575   4.216   3.306   1.251
53560SOL     OW62576   9.431   2.220   4.084
53560SOL    HW162577   9.405   2.285   4.149
53560SOL    HW262578   9.387   2.139   4.112
53561SOL     OW62579   7.694   3.896   5.842
53561SOL    HW162580   7.679   3.811   5.799
53561SOL    HW262581   7.608   3.922   5.874
53562SOL     OW62582   7.334   6.539   7.468
53562SOL    HW162583   7.392   6.550   7.543
53562SOL    HW262584   7.284   6.620   7.464
53563SOL     OW62585   7.404  12.704  13.672
53563SOL    HW162586   7.479  12.657  13.637
53563SOL    HW262587   7.440  12.760  13.740
53564SOL     OW62588   3.438   2.065  14.123
53564SOL    HW162589   3.467   1.977  14.098
53564SOL    HW262590   3.387   2.095  14.047
53565SOL     OW62591   1.538   1.997  10.302
53565SOL    HW162592   1.621   2.045  10.297
53565SOL    HW262593   1.471   2.065  10.311
53566SOL     OW62594  13.310  10.797   9.137
53566SOL    HW162595  13.380  10.813   9.201
53566SOL    HW262596  13.293  10.703   9.143
53567SOL     OW62597   2.848  10.651   3.923
53567SOL    HW162598   2.898  10.613   3.996
53567SOL    HW262599   2.903  10.637   3.846
53568SOL     OW62600   1.518   1.765   9.718
53568SOL    HW162601   1.547   1.728   9.802
53568SOL    HW262602   1.585   1.830   9.697
53569SOL     OW62603   2.430  14.611   0.491
53569SOL    HW162604   2.365  14.552   0.528
53569SOL    HW262605   2.504  14.554   0.469
53570SOL     OW62606  11.530   4.748   3.270
53570SOL    HW162607  11.439   4.748   3.239
53570SOL    HW262608  11.545   4.838   3.300
53571SOL     OW62609   5.198   5.741   6.545
53571SOL    HW162610   5.216   5.786   6.462
53571SOL    HW262611   5.193   5.649   6.522
53572SOL     OW62612   6.889   4.868   7.774
53572SOL    HW162613   6.913   4.824   7.856
53572SOL    HW262614   6.931   4.954   7.780
53573SOL     OW62615   8.447   3.192   1.203
53573SOL    HW162616   8.445   3.137   1.281
53573SOL    HW262617   8.486   3.274   1.233
53574SOL     OW62618   7.454  13.082  11.941
53574SOL    HW162619   7.465  13.019  12.013
53574SOL    HW262620   7.465  13.168  11.983
53575SOL     OW62621   7.580  11.697  10.636
53575SOL    HW162622   7.650  11.718  10.574
53575SOL    HW262623   7.505  11.675  10.581
53576SOL     OW62624   4.213   9.068   7.048
53576SOL    HW162625   4.240   9.105   7.132
53576SOL    HW262626   4.170   9.140   7.003
53577SOL     OW62627   3.177   0.337   2.682
53577SOL    HW162628   3.224   0.305   2.605
53577SOL    HW262629   3.123   0.263   2.710
53578SOL     OW62630   7.117   4.060   8.752
53578SOL    HW162631   7.190   4.119   8.768
53578SOL    HW262632   7.144   3.977   8.792
53579SOL     OW62633   5.251   2.053  12.810
53579SOL    HW162634   5.187   2.005  12.757
53579SOL    HW262635   5.281   2.124  12.753
53580SOL     OW62636   8.682  13.740   5.608
53580SOL    HW162637   8.614  13.768   5.669
53580SOL    HW262638   8.680  13.645   5.611
53581SOL     OW62639   2.819   7.831  12.583
53581SOL    HW162640   2.735   7.853  12.624
53581SOL    HW262641   2.884   7.842  12.652
53582SOL     OW62642   7.822   4.210  12.574
53582SOL    HW162643   7.733   4.198  12.541
53582SOL    HW262644   7.873   4.144  12.528
53583SOL     OW62645   8.952   8.398   7.758
53583SOL    HW162646   8.886   8.439   7.702
53583SOL    HW262647   8.913   8.399   7.845
53584SOL     OW62648   4.159   5.636   6.549
53584SOL    HW162649   4.224   5.569   6.572
53584SOL    HW262650   4.077   5.587   6.537
53585SOL     OW62651   2.760   4.513  13.740
53585SOL    HW162652   2.818   4.589  13.743
53585SOL    HW262653   2.672   4.550  13.732
53586SOL     OW62654  13.705   5.361   2.569
53586SOL    HW162655  13.683   5.442   2.615
53586SOL    HW262656  13.671   5.373   2.480
53587SOL     OW62657   3.707  10.211   7.622
53587SOL    HW162658   3.638  10.266   7.586
53587SOL    HW262659   3.666  10.166   7.696
53588SOL     OW62660   2.696  13.344  12.481
53588SOL    HW162661   2.738  13.328  12.396
53588SOL    HW262662   2.726  13.431  12.506
53589SOL     OW62663   0.863   3.582   2.334
53589SOL    HW162664   0.783   3.621   2.300
53589SOL    HW262665   0.891   3.641   2.404
53590SOL     OW62666   8.611  12.441  10.400
53590SOL    HW162667   8.703  12.414  10.411
53590SOL    HW262668   8.563  12.359  10.390
53591SOL     OW62669   9.804  14.586   7.081
53591SOL    HW162670   9.899  14.595   7.078
53591SOL    HW262671   9.773  14.639   7.008
53592SOL     OW62672   6.676   5.083  14.415
53592SOL    HW162673   6.738   5.139  14.369
53592SOL    HW262674   6.608   5.065  14.351
53593SOL     OW62675   6.609   2.891  11.227
53593SOL    HW162676   6.633   2.890  11.320
53593SOL    HW262677   6.655   2.815  11.190
53594SOL     OW62678   4.541  14.064   3.023
53594SOL    HW162679   4.635  14.054   3.014
53594SOL    HW262680   4.529  14.118   3.101
53595SOL     OW62681   1.493   6.461  13.496
53595SOL    HW162682   1.572   6.443  13.545
53595SOL    HW262683   1.497   6.402  13.421
53596SOL     OW62684   1.246  10.472   4.743
53596SOL    HW162685   1.224  10.393   4.693
53596SOL    HW262686   1.326  10.505   4.703
53597SOL     OW62687   8.381   9.306   9.762
53597SOL    HW162688   8.356   9.337   9.675
53597SOL    HW262689   8.469   9.269   9.749
53598SOL     OW62690   9.816   2.371   0.749
53598SOL    HW162691   9.905   2.382   0.783
53598SOL    HW262692   9.821   2.291   0.696
53599SOL     OW62693  13.153  12.934   8.885
53599SOL    HW162694  13.123  12.922   8.975
53599SOL    HW262695  13.200  13.018   8.887
53600SOL     OW62696  13.704   6.215   6.651
53600SOL    HW162697  13.626   6.167   6.680
53600SOL    HW262698  13.673   6.268   6.577
53601SOL     OW62699   4.842   3.318   3.217
53601SOL    HW162700   4.906   3.350   3.153
53601SOL    HW262701   4.838   3.223   3.201
53602SOL     OW62702  11.149   8.314   0.334
53602SOL    HW162703  11.105   8.310   0.249
53602SOL    HW262704  11.081   8.292   0.398
53603SOL     OW62705   8.187  13.238   2.511
53603SOL    HW162706   8.139  13.255   2.592
53603SOL    HW262707   8.252  13.172   2.535
53604SOL     OW62708  11.670   3.813   7.240
53604SOL    HW162709  11.594   3.768   7.275
53604SOL    HW262710  11.722   3.744   7.199
53605SOL     OW62711   7.856   1.214   0.639
53605SOL    HW162712   7.887   1.305   0.637
53605SOL    HW262713   7.861   1.189   0.732
53606SOL     OW62714  12.713   9.003   6.295
53606SOL    HW162715  12.807   9.011   6.310
53606SOL    HW262716  12.677   8.983   6.381
53607SOL     OW62717   6.620   2.913  14.463
53607SOL    HW162718   6.649   2.998  14.494
53607SOL    HW262719   6.530   2.927  14.435
53608SOL     OW62720  12.508   8.473   8.520
53608SOL    HW162721  12.488   8.474   8.613
53608SOL    HW262722  12.491   8.382   8.493
53609SOL     OW62723   9.061  12.725  13.523
53609SOL    HW162724   9.112  12.796  13.485
53609SOL    HW262725   9.000  12.700  13.453
53610SOL     OW62726  13.298   8.030   3.575
53610SOL    HW162727  13.249   8.087   3.516
53610SOL    HW262728  13.255   8.041   3.660
53611SOL     OW62729   0.123   4.814  12.422
53611SOL    HW162730   0.198   4.869  12.399
53611SOL    HW262731   0.142   4.729  12.382
53612SOL     OW62732   7.519   3.938   7.855
53612SOL    HW162733   7.609   3.955   7.883
53612SOL    HW262734   7.477   4.024   7.858
53613SOL     OW62735   7.743   3.663   7.828
53613SOL    HW162736   7.665   3.622   7.791
53613SOL    HW262737   7.732   3.756   7.810
53614SOL     OW62738  11.846   5.567   4.769
53614SOL    HW162739  11.824   5.527   4.854
53614SOL    HW262740  11.886   5.495   4.719
53615SOL     OW62741  13.463  14.761   4.383
53615SOL    HW162742  13.429  14.679   4.420
53615SOL    HW262743  13.558  14.752   4.393
53616SOL     OW62744   8.984   9.761   4.512
53616SOL    HW162745   8.951   9.816   4.582
53616SOL    HW262746   9.076   9.787   4.503
53617SOL     OW62747  12.417   9.941   1.931
53617SOL    HW162748  12.421  10.031   1.899
53617SOL    HW262749  12.490   9.934   1.992
53618SOL     OW62750  11.961  13.251  13.826
53618SOL    HW162751  11.958  13.324  13.764
53618SOL    HW262752  11.877  13.207  13.815
53619SOL     OW62753   8.493   6.507   6.342
53619SOL    HW162754   8.449   6.447   6.403
53619SOL    HW262755   8.488   6.463   6.258
53620SOL     OW62756  13.838   9.233   1.783
53620SOL    HW162757  13.815   9.219   1.691
53620SOL    HW262758  13.871   9.322   1.787
53621SOL     OW62759   6.708  14.705  13.780
53621SOL    HW162760   6.752  14.760  13.845
53621SOL    HW262761   6.680  14.627  13.829
53622SOL     OW62762  10.449  13.644   1.310
53622SOL    HW162763  10.484  13.654   1.222
53622SOL    HW262764  10.452  13.732   1.347
53623SOL     OW62765   1.832  12.527   0.013
53623SOL    HW162766   1.906  12.480   0.051
53623SOL    HW262767   1.842  12.515  14.788
53624SOL     OW62768   9.853  13.838   9.149
53624SOL    HW162769   9.890  13.750   9.151
53624SOL    HW262770   9.776  13.834   9.205
53625SOL     OW62771   2.483   7.011   8.793
53625SOL    HW162772   2.425   6.975   8.726
53625SOL    HW262773   2.571   7.000   8.757
53626SOL     OW62774  13.072   7.684  11.864
53626SOL    HW162775  13.094   7.777  11.854
53626SOL    HW262776  13.037   7.678  11.953
53627SOL     OW62777   9.447   3.791   6.429
53627SOL    HW162778   9.509   3.754   6.366
53627SOL    HW262779   9.460   3.886   6.424
53628SOL     OW62780   3.353   4.637   7.175
53628SOL    HW162781   3.282   4.701   7.182
53628SOL    HW262782   3.412   4.676   7.110
53629SOL     OW62783   6.491   7.064   9.042
53629SOL    HW162784   6.542   7.084   8.963
53629SOL    HW262785   6.461   7.149   9.073
53630SOL     OW62786  13.408   6.457   6.722
53630SOL    HW162787  13.370   6.460   6.809
53630SOL    HW262788  13.337   6.481   6.663
53631SOL     OW62789   4.697  10.208   4.618
53631SOL    HW162790   4.658  10.294   4.606
53631SOL    HW262791   4.743  10.191   4.536
53632SOL     OW62792   5.833  11.403   7.980
53632SOL    HW162793   5.811  11.390   7.888
53632SOL    HW262794   5.927  11.385   7.985
53633SOL     OW62795  12.395   5.903   5.997
53633SOL    HW162796  12.469   5.935   5.946
53633SOL    HW262797  12.392   5.959   6.074
53634SOL     OW62798   4.323  14.423   1.079
53634SOL    HW162799   4.383  14.497   1.093
53634SOL    HW262800   4.372  14.363   1.023
53635SOL     OW62801  10.239   7.192   4.924
53635SOL    HW162802  10.186   7.114   4.943
53635SOL    HW262803  10.303   7.161   4.860
53636SOL     OW62804   5.087  11.666  11.719
53636SOL    HW162805   5.157  11.609  11.688
53636SOL    HW262806   5.019  11.659  11.652
53637SOL     OW62807   5.653   4.349  12.005
53637SOL    HW162808   5.668   4.437  11.969
53637SOL    HW262809   5.675   4.356  12.097
53638SOL     OW62810  10.498  14.049   3.588
53638SOL    HW162811  10.436  14.112   3.549
53638SOL    HW262812  10.544  14.100   3.654
53639SOL     OW62813   3.820   0.578  11.972
53639SOL    HW162814   3.786   0.630  12.045
53639SOL    HW262815   3.826   0.489  12.007
53640SOL     OW62816  13.946  14.625  12.173
53640SOL    HW162817  13.876  14.590  12.228
53640SOL    HW262818  13.936  14.720  12.180
53641SOL     OW62819  14.423  13.720   1.720
53641SOL    HW162820  14.341  13.695   1.678
53641SOL    HW262821  14.438  13.810   1.691
53642SOL     OW62822  11.991   8.219  13.423
53642SOL    HW162823  12.057   8.195  13.358
53642SOL    HW262824  11.911   8.175  13.392
53643SOL     OW62825   1.707   2.299   5.827
53643SOL    HW162826   1.651   2.223   5.843
53643SOL    HW262827   1.796   2.263   5.822
53644SOL     OW62828   7.316   0.234   6.099
53644SOL    HW162829   7.221   0.224   6.102
53644SOL    HW262830   7.347   0.199   6.182
53645SOL     OW62831  11.602   9.105   3.812
53645SOL    HW162832  11.586   9.080   3.721
53645SOL    HW262833  11.663   9.178   3.807
53646SOL     OW62834  13.638   2.394   6.914
53646SOL    HW162835  13.608   2.304   6.924
53646SOL    HW262836  13.621   2.435   6.999
53647SOL     OW62837   0.277  12.429   9.744
53647SOL    HW162838   0.350  12.457   9.798
53647SOL    HW262839   0.199  12.446   9.797
53648SOL     OW62840   0.209   4.960   4.704
53648SOL    HW162841   0.297   4.931   4.681
53648SOL    HW262842   0.163   4.969   4.620
53649SOL     OW62843  11.028   6.416   0.379
53649SOL    HW162844  11.036   6.368   0.297
53649SOL    HW262845  10.996   6.351   0.442
53650SOL     OW62846  13.150  11.611   8.565
53650SOL    HW162847  13.094  11.591   8.640
53650SOL    HW262848  13.158  11.707   8.567
53651SOL     OW62849   3.430   4.295  12.104
53651SOL    HW162850   3.369   4.222  12.098
53651SOL    HW262851   3.421   4.326  12.194
53652SOL     OW62852  10.082   0.105   6.109
53652SOL    HW162853  10.056   0.196   6.128
53652SOL    HW262854  10.060   0.058   6.189
53653SOL     OW62855   7.591  10.343   8.096
53653SOL    HW162856   7.516  10.392   8.061
53653SOL    HW262857   7.557  10.299   8.173
53654SOL     OW62858  11.555  13.703   6.376
53654SOL    HW162859  11.579  13.776   6.318
53654SOL    HW262860  11.623  13.638   6.362
53655SOL     OW62861  11.677  14.032   4.379
53655SOL    HW162862  11.766  14.009   4.404
53655SOL    HW262863  11.685  14.071   4.292
53656SOL     OW62864   9.375   3.759   8.835
53656SOL    HW162865   9.418   3.844   8.825
53656SOL    HW262866   9.446   3.698   8.852
53657SOL     OW62867   8.314   8.445  11.225
53657SOL    HW162868   8.267   8.409  11.300
53657SOL    HW262869   8.314   8.373  11.161
53658SOL     OW62870   8.635  13.221   4.088
53658SOL    HW162871   8.720  13.227   4.043
53658SOL    HW262872   8.581  13.166   4.031
53659SOL     OW62873   2.679   9.963   8.570
53659SOL    HW162874   2.722   9.885   8.534
53659SOL    HW262875   2.620   9.929   8.637
53660SOL     OW62876   5.142   7.253   3.194
53660SOL    HW162877   5.152   7.179   3.135
53660SOL    HW262878   5.154   7.331   3.139
53661SOL     OW62879   8.706   3.117   5.656
53661SOL    HW162880   8.775   3.145   5.596
53661SOL    HW262881   8.664   3.042   5.612
53662SOL     OW62882  12.866   0.747   3.741
53662SOL    HW162883  12.908   0.813   3.798
53662SOL    HW262884  12.926   0.672   3.744
53663SOL     OW62885   5.936   5.075   6.316
53663SOL    HW162886   5.970   5.156   6.278
53663SOL    HW262887   5.921   5.017   6.241
53664SOL     OW62888   9.259   3.754   0.460
53664SOL    HW162889   9.190   3.763   0.526
53664SOL    HW262890   9.254   3.835   0.409
53665SOL     OW62891  12.570  11.216   0.364
53665SOL    HW162892  12.562  11.202   0.458
53665SOL    HW262893  12.480  11.219   0.333
53666SOL     OW62894   0.141  14.745   3.851
53666SOL    HW162895   0.172  14.779   3.767
53666SOL    HW262896   0.097  14.820   3.893
53667SOL     OW62897   2.324   7.149   7.733
53667SOL    HW162898   2.312   7.096   7.812
53667SOL    HW262899   2.368   7.228   7.763
53668SOL     OW62900  13.072   2.324   2.657
53668SOL    HW162901  13.011   2.250   2.666
53668SOL    HW262902  13.109   2.314   2.569
53669SOL     OW62903   4.520  11.803   0.208
53669SOL    HW162904   4.503  11.752   0.287
53669SOL    HW262905   4.525  11.738   0.138
53670SOL     OW62906   8.172  12.061   1.592
53670SOL    HW162907   8.155  12.064   1.686
53670SOL    HW262908   8.216  12.144   1.573
53671SOL     OW62909   0.997   7.433  13.573
53671SOL    HW162910   0.992   7.526  13.547
53671SOL    HW262911   1.090   7.415  13.578
53672SOL     OW62912   0.426   9.302   1.180
53672SOL    HW162913   0.444   9.378   1.125
53672SOL    HW262914   0.511   9.275   1.214
53673SOL     OW62915   8.958   2.510   4.635
53673SOL    HW162916   8.901   2.437   4.659
53673SOL    HW262917   8.912   2.554   4.564
53674SOL     OW62918   4.829   5.107   0.544
53674SOL    HW162919   4.827   5.023   0.499
53674SOL    HW262920   4.802   5.170   0.476
53675SOL     OW62921  12.723   9.282   2.051
53675SOL    HW162922  12.649   9.258   2.108
53675SOL    HW262923  12.794   9.223   2.077
53676SOL     OW62924  10.873  11.301   1.922
53676SOL    HW162925  10.898  11.212   1.948
53676SOL    HW262926  10.788  11.290   1.880
53677SOL     OW62927   8.348   2.086   2.602
53677SOL    HW162928   8.331   1.992   2.612
53677SOL    HW262929   8.373   2.096   2.510
53678SOL     OW62930  12.498   0.813   0.984
53678SOL    HW162931  12.473   0.736   0.933
53678SOL    HW262932  12.575   0.848   0.939
53679SOL     OW62933  13.555  11.019   6.183
53679SOL    HW162934  13.512  10.935   6.198
53679SOL    HW262935  13.621  11.025   6.252
53680SOL     OW62936   5.893   6.436   7.868
53680SOL    HW162937   5.958   6.506   7.864
53680SOL    HW262938   5.810   6.480   7.885
53681SOL     OW62939   0.909  10.464   9.288
53681SOL    HW162940   0.944  10.485   9.201
53681SOL    HW262941   0.977  10.494   9.349
53682SOL     OW62942   6.940   0.922   4.845
53682SOL    HW162943   7.019   0.871   4.861
53682SOL    HW262944   6.967   0.990   4.783
53683SOL     OW62945   2.037   1.803   5.510
53683SOL    HW162946   2.101   1.824   5.442
53683SOL    HW262947   2.033   1.707   5.510
53684SOL     OW62948  13.322  11.904   9.816
53684SOL    HW162949  13.301  11.839   9.883
53684SOL    HW262950  13.394  11.955   9.854
53685SOL     OW62951  13.754   8.974   9.598
53685SOL    HW162952  13.804   8.902   9.559
53685SOL    HW262953  13.667   8.938   9.614
53686SOL     OW62954   5.292   1.300  10.984
53686SOL    HW162955   5.318   1.349  10.906
53686SOL    HW262956   5.259   1.366  11.045
53687SOL     OW62957  14.399   3.632   1.206
53687SOL    HW162958  14.458   3.582   1.150
53687SOL    HW262959  14.342   3.566   1.247
53688SOL     OW62960   9.790  13.745   3.265
53688SOL    HW162961   9.866  13.740   3.207
53688SOL    HW262962   9.824  13.720   3.351
53689SOL     OW62963   3.758   1.673   8.915
53689SOL    HW162964   3.690   1.653   8.851
53689SOL    HW262965   3.819   1.731   8.869
53690SOL     OW62966   7.174  13.731   2.147
53690SOL    HW162967   7.083  13.726   2.116
53690SOL    HW262968   7.166  13.729   2.243
53691SOL     OW62969  13.655  12.972   4.845
53691SOL    HW162970  13.745  12.973   4.813
53691SOL    HW262971  13.661  12.949   4.937
53692SOL     OW62972  10.305   6.987   4.040
53692SOL    HW162973  10.373   7.029   3.988
53692SOL    HW262974  10.326   7.010   4.131
53693SOL     OW62975   0.584   4.329   4.650
53693SOL    HW162976   0.516   4.266   4.630
53693SOL    HW262977   0.632   4.291   4.724
53694SOL     OW62978   8.512  11.275  14.706
53694SOL    HW162979   8.529  11.307  14.795
53694SOL    HW262980   8.418  11.260  14.704
53695SOL     OW62981   1.662   9.959  12.798
53695SOL    HW162982   1.752   9.969  12.768
53695SOL    HW262983   1.662   9.876  12.846
53696SOL     OW62984   2.523  13.759   9.149
53696SOL    HW162985   2.561  13.712   9.223
53696SOL    HW262986   2.582  13.834   9.136
53697SOL     OW62987   9.106  12.590   6.214
53697SOL    HW162988   9.076  12.499   6.206
53697SOL    HW262989   9.083  12.631   6.131
53698SOL     OW62990   8.106   3.167  13.389
53698SOL    HW162991   8.109   3.080  13.348
53698SOL    HW262992   8.169   3.162  13.460
53699SOL     OW62993  11.068  11.295  10.290
53699SOL    HW162994  11.128  11.329  10.356
53699SOL    HW262995  11.116  11.224  10.248
53700SOL     OW62996  12.010   1.091   4.366
53700SOL    HW162997  11.933   1.124   4.320
53700SOL    HW262998  12.068   1.061   4.296
53701SOL     OW62999  13.308  10.160   6.699
53701SOL    HW163000  13.300  10.165   6.795
53701SOL    HW263001  13.339  10.246   6.673
53702SOL     OW63002   7.032  14.838   7.980
53702SOL    HW163003   7.115  14.869   7.942
53702SOL    HW263004   7.058  14.767   8.040
53703SOL     OW63005   8.222   0.297   7.446
53703SOL    HW163006   8.156   0.247   7.398
53703SOL    HW263007   8.228   0.379   7.398
53704SOL     OW63008   5.101   4.676  13.505
53704SOL    HW163009   5.153   4.612  13.456
53704SOL    HW263010   5.128   4.664  13.596
53705SOL     OW63011   8.613  14.152   4.105
53705SOL    HW163012   8.570  14.120   4.026
53705SOL    HW263013   8.589  14.245   4.109
53706SOL     OW63014   0.746  13.898  10.949
53706SOL    HW163015   0.774  13.985  10.921
53706SOL    HW263016   0.707  13.912  11.035
53707SOL     OW63017   5.054   9.782   5.685
53707SOL    HW163018   5.064   9.751   5.774
53707SOL    HW263019   5.128   9.744   5.638
53708SOL     OW63020   1.901   4.901   4.700
53708SOL    HW163021   1.887   4.868   4.611
53708SOL    HW263022   1.912   4.822   4.753
53709SOL     OW63023   2.544   1.690  14.104
53709SOL    HW163024   2.622   1.736  14.073
53709SOL    HW263025   2.493   1.758  14.148
53710SOL     OW63026   3.196   0.768   9.557
53710SOL    HW163027   3.114   0.782   9.604
53710SOL    HW263028   3.255   0.729   9.622
53711SOL     OW63029   5.252  12.673  11.113
53711SOL    HW163030   5.256  12.764  11.084
53711SOL    HW263031   5.214  12.677  11.201
53712SOL     OW63032   8.289  10.940  12.666
53712SOL    HW163033   8.340  10.973  12.740
53712SOL    HW263034   8.231  11.013  12.642
53713SOL     OW63035  13.551  11.474   3.926
53713SOL    HW163036  13.512  11.494   3.840
53713SOL    HW263037  13.543  11.556   3.975
53714SOL     OW63038  12.806   5.452   6.050
53714SOL    HW163039  12.864   5.519   6.086
53714SOL    HW263040  12.857   5.411   5.980
53715SOL     OW63041   3.218   2.141   0.123
53715SOL    HW163042   3.212   2.144   0.218
53715SOL    HW263043   3.271   2.217   0.100
53716SOL     OW63044   5.677  12.323   3.724
53716SOL    HW163045   5.700  12.390   3.788
53716SOL    HW263046   5.598  12.282   3.759
53717SOL     OW63047   6.274   9.473  13.639
53717SOL    HW163048   6.297   9.389  13.602
53717SOL    HW263049   6.185   9.461  13.674
53718SOL     OW63050   3.876   2.750   0.286
53718SOL    HW163051   3.919   2.669   0.258
53718SOL    HW263052   3.800   2.758   0.229
53719SOL     OW63053   9.709  10.702  12.481
53719SOL    HW163054   9.741  10.649  12.554
53719SOL    HW263055   9.636  10.652  12.445
53720SOL     OW63056  14.546  12.271   4.778
53720SOL    HW163057  14.636  12.292   4.753
53720SOL    HW263058  14.554  12.188   4.825
53721SOL     OW63059   2.864   7.102  12.185
53721SOL    HW163060   2.883   7.195  12.172
53721SOL    HW263061   2.769   7.098  12.199
53722SOL     OW63062   5.146   0.151   3.442
53722SOL    HW163063   5.068   0.183   3.486
53722SOL    HW263064   5.142   0.190   3.354
53723SOL     OW63065  11.134   3.756  11.074
53723SOL    HW163066  11.181   3.674  11.089
53723SOL    HW263067  11.053   3.729  11.030
53724SOL     OW63068  11.658   6.560   8.000
53724SOL    HW163069  11.734   6.586   7.949
53724SOL    HW263070  11.626   6.480   7.958
53725SOL     OW63071   8.231   1.469   6.121
53725SOL    HW163072   8.305   1.528   6.113
53725SOL    HW263073   8.201   1.480   6.212
53726SOL     OW63074  10.752   5.625   7.426
53726SOL    HW163075  10.820   5.561   7.405
53726SOL    HW263076  10.672   5.573   7.437
53727SOL     OW63077  13.682   3.286  11.185
53727SOL    HW163078  13.703   3.373  11.220
53727SOL    HW263079  13.674   3.300  11.091
53728SOL     OW63080   6.369  10.533  14.244
53728SOL    HW163081   6.274  10.524  14.230
53728SOL    HW263082   6.402  10.570  14.163
53729SOL     OW63083  12.327  12.473   1.951
53729SOL    HW163084  12.251  12.480   2.007
53729SOL    HW263085  12.303  12.521   1.872
53730SOL     OW63086   8.132   1.073   0.448
53730SOL    HW163087   8.154   1.144   0.509
53730SOL    HW263088   8.158   1.106   0.362
53731SOL     OW63089   0.098   7.699  13.736
53731SOL    HW163090   0.062   7.775  13.782
53731SOL    HW263091   0.193   7.709  13.742
53732SOL     OW63092  13.392   5.507  10.019
53732SOL    HW163093  13.353   5.573  10.076
53732SOL    HW263094  13.478   5.491  10.056
53733SOL     OW63095  11.118   2.036  13.814
53733SOL    HW163096  11.133   2.126  13.785
53733SOL    HW263097  11.189   2.019  13.876
53734SOL     OW63098  10.769   3.521  11.870
53734SOL    HW163099  10.837   3.572  11.826
53734SOL    HW263100  10.727   3.584  11.929
53735SOL     OW63101   3.474  12.651   8.279
53735SOL    HW163102   3.524  12.596   8.339
53735SOL    HW263103   3.516  12.737   8.283
53736SOL     OW63104  11.184   3.933   1.772
53736SOL    HW163105  11.252   3.985   1.728
53736SOL    HW263106  11.215   3.926   1.862
53737SOL     OW63107   1.583  12.373   4.486
53737SOL    HW163108   1.638  12.354   4.411
53737SOL    HW263109   1.644  12.398   4.555
53738SOL     OW63110   0.885   7.542  13.126
53738SOL    HW163111   0.822   7.470  13.137
53738SOL    HW263112   0.939   7.516  13.052
53739SOL     OW63113   6.248   7.700  12.454
53739SOL    HW163114   6.253   7.613  12.415
53739SOL    HW263115   6.252   7.684  12.549
53740SOL     OW63116   8.834   1.995   5.849
53740SOL    HW163117   8.783   1.988   5.768
53740SOL    HW263118   8.893   1.920   5.847
53741SOL     OW63119   2.450  11.974   6.963
53741SOL    HW163120   2.490  11.946   6.881
53741SOL    HW263121   2.363  12.004   6.939
53742SOL     OW63122  10.291   0.800   8.425
53742SOL    HW163123  10.238   0.729   8.461
53742SOL    HW263124  10.379   0.785   8.460
53743SOL     OW63125  13.323   1.071  11.957
53743SOL    HW163126  13.381   1.146  11.966
53743SOL    HW263127  13.381   0.999  11.932
53744SOL     OW63128   7.018   0.370  13.294
53744SOL    HW163129   7.035   0.371  13.199
53744SOL    HW263130   6.977   0.285  13.310
53745SOL     OW63131   2.401  13.516   0.627
53745SOL    HW163132   2.468  13.449   0.613
53745SOL    HW263133   2.447  13.586   0.674
53746SOL     OW63134  14.327   0.337  14.376
53746SOL    HW163135  14.381   0.411  14.347
53746SOL    HW263136  14.373   0.303  14.453
53747SOL     OW63137   0.870   1.378   2.334
53747SOL    HW163138   0.914   1.294   2.349
53747SOL    HW263139   0.915   1.415   2.257
53748SOL     OW63140  11.343   9.139  11.818
53748SOL    HW163141  11.277   9.207  11.833
53748SOL    HW263142  11.326   9.107  11.730
53749SOL     OW63143  11.178  11.763   4.035
53749SOL    HW163144  11.238  11.757   3.960
53749SOL    HW263145  11.174  11.674   4.069
53750SOL     OW63146  10.941   7.378  13.050
53750SOL    HW163147  10.964   7.471  13.060
53750SOL    HW263148  11.026   7.334  13.043
53751SOL     OW63149  14.034  13.847  14.207
53751SOL    HW163150  14.005  13.936  14.184
53751SOL    HW263151  13.999  13.792  14.137
53752SOL     OW63152  14.250  11.546  10.154
53752SOL    HW163153  14.219  11.607  10.221
53752SOL    HW263154  14.304  11.483  10.202
53753SOL     OW63155   2.785   5.522   7.492
53753SOL    HW163156   2.740   5.454   7.542
53753SOL    HW263157   2.824   5.476   7.418
53754SOL     OW63158   4.730   0.786  10.498
53754SOL    HW163159   4.770   0.846  10.561
53754SOL    HW263160   4.771   0.701  10.516
53755SOL     OW63161   9.763   0.878   3.831
53755SOL    HW163162   9.798   0.960   3.795
53755SOL    HW263163   9.790   0.879   3.923
53756SOL     OW63164   8.201   1.525   9.510
53756SOL    HW163165   8.198   1.454   9.446
53756SOL    HW263166   8.292   1.554   9.511
53757SOL     OW63167   5.444   9.164   3.854
53757SOL    HW163168   5.516   9.193   3.797
53757SOL    HW263169   5.459   9.210   3.937
53758SOL     OW63170   2.470   4.155   6.448
53758SOL    HW163171   2.408   4.165   6.520
53758SOL    HW263172   2.492   4.245   6.423
53759SOL     OW63173   3.213   0.650   7.908
53759SOL    HW163174   3.141   0.705   7.938
53759SOL    HW263175   3.245   0.608   7.987
53760SOL     OW63176  12.068   8.222   8.570
53760SOL    HW163177  11.976   8.217   8.545
53760SOL    HW263178  12.097   8.308   8.539
53761SOL     OW63179  13.034  11.606   6.687
53761SOL    HW163180  13.012  11.595   6.595
53761SOL    HW263181  13.124  11.639   6.687
53762SOL     OW63182   4.566   2.426   4.428
53762SOL    HW163183   4.650   2.459   4.397
53762SOL    HW263184   4.589   2.353   4.486
53763SOL     OW63185   6.466  12.980   7.205
53763SOL    HW163186   6.529  12.910   7.221
53763SOL    HW263187   6.428  12.959   7.120
53764SOL     OW63188  11.878   2.004   8.945
53764SOL    HW163189  11.820   2.070   8.907
53764SOL    HW263190  11.819   1.942   8.988
53765SOL     OW63191   5.537  12.982  11.597
53765SOL    HW163192   5.591  13.013  11.524
53765SOL    HW263193   5.579  12.901  11.625
53766SOL     OW63194   7.161   1.620   1.720
53766SOL    HW163195   7.214   1.593   1.794
53766SOL    HW263196   7.223   1.655   1.656
53767SOL     OW63197  12.307   7.607   0.021
53767SOL    HW163198  12.339   7.544   0.085
53767SOL    HW263199  12.246   7.662   0.071
53768SOL     OW63200  10.067   4.829  13.890
53768SOL    HW163201  10.072   4.830  13.795
53768SOL    HW263202  10.156   4.811  13.919
53769SOL     OW63203   7.812   5.984   5.706
53769SOL    HW163204   7.769   5.902   5.680
53769SOL    HW263205   7.740   6.046   5.717
53770SOL     OW63206   6.659   1.103  12.687
53770SOL    HW163207   6.714   1.156  12.630
53770SOL    HW263208   6.618   1.166  12.746
53771SOL     OW63209   5.576  14.602   5.316
53771SOL    HW163210   5.585  14.679   5.260
53771SOL    HW263211   5.632  14.536   5.276
53772SOL     OW63212   4.870  12.458   0.750
53772SOL    HW163213   4.856  12.536   0.804
53772SOL    HW263214   4.790  12.407   0.761
53773SOL     OW63215   9.297   0.415   5.840
53773SOL    HW163216   9.302   0.358   5.764
53773SOL    HW263217   9.210   0.455   5.834
53774SOL     OW63218  13.649   2.767   3.703
53774SOL    HW163219  13.641   2.853   3.744
53774SOL    HW263220  13.649   2.705   3.776
53775SOL     OW63221  11.775   6.080   0.411
53775SOL    HW163222  11.708   6.125   0.361
53775SOL    HW263223  11.735   5.996   0.435
53776SOL     OW63224   4.629   9.739   7.195
53776SOL    HW163225   4.536   9.723   7.178
53776SOL    HW263226   4.635   9.833   7.212
53777SOL     OW63227   6.221  11.367   3.196
53777SOL    HW163228   6.255  11.400   3.279
53777SOL    HW263229   6.162  11.436   3.166
53778SOL     OW63230  13.678  14.869   7.502
53778SOL    HW163231  13.700   0.079   7.455
53778SOL    HW263232  13.763  14.825   7.516
53779SOL     OW63233   0.801   6.984  10.230
53779SOL    HW163234   0.763   7.072  10.237
53779SOL    HW263235   0.828   6.977  10.138
53780SOL     OW63236   1.079   7.490   9.624
53780SOL    HW163237   0.990   7.464   9.648
53780SOL    HW263238   1.124   7.503   9.707
53781SOL     OW63239   1.874  14.743   7.628
53781SOL    HW163240   1.838  14.738   7.717
53781SOL    HW263241   1.906  14.655   7.610
53782SOL     OW63242  10.421   5.075   0.442
53782SOL    HW163243  10.482   5.053   0.371
53782SOL    HW263244  10.475   5.076   0.521
53783SOL     OW63245  13.766   0.812  10.797
53783SOL    HW163246  13.685   0.778  10.759
53783SOL    HW263247  13.797   0.876  10.734
53784SOL     OW63248   4.723   3.376   4.036
53784SOL    HW163249   4.710   3.471   4.033
53784SOL    HW263250   4.723   3.348   3.945
53785SOL     OW63251  13.315  10.813   0.634
53785SOL    HW163252  13.388  10.866   0.602
53785SOL    HW263253  13.274  10.777   0.555
53786SOL     OW63254  11.065   6.915   6.283
53786SOL    HW163255  11.068   6.848   6.215
53786SOL    HW263256  10.981   6.959   6.269
53787SOL     OW63257  13.644  12.788  10.037
53787SOL    HW163258  13.681  12.860  10.088
53787SOL    HW263259  13.677  12.709  10.080
53788SOL     OW63260   7.821   1.661   8.261
53788SOL    HW163261   7.838   1.581   8.211
53788SOL    HW263262   7.906   1.688   8.294
53789SOL     OW63263  13.901   4.648  13.877
53789SOL    HW163264  13.959   4.631  13.803
53789SOL    HW263265  13.819   4.604  13.854
53790SOL     OW63266  11.405  13.012   2.012
53790SOL    HW163267  11.384  13.046   2.099
53790SOL    HW263268  11.485  13.057   1.987
53791SOL     OW63269   9.478   0.487   2.891
53791SOL    HW163270   9.556   0.514   2.940
53791SOL    HW263271   9.405   0.504   2.951
53792SOL     OW63272  14.507   5.204   1.158
53792SOL    HW163273  14.591   5.219   1.114
53792SOL    HW263274  14.531   5.182   1.248
53793SOL     OW63275   0.379   2.905   1.867
53793SOL    HW163276   0.333   2.979   1.907
53793SOL    HW263277   0.424   2.943   1.792
53794SOL     OW63278   0.821   7.487   6.629
53794SOL    HW163279   0.820   7.502   6.724
53794SOL    HW263280   0.805   7.572   6.590
53795SOL     OW63281   1.238   5.295   0.708
53795SOL    HW163282   1.290   5.334   0.779
53795SOL    HW263283   1.281   5.211   0.691
53796SOL     OW63284   6.505   3.745   4.969
53796SOL    HW163285   6.596   3.727   4.945
53796SOL    HW263286   6.454   3.699   4.902
53797SOL     OW63287  10.908   6.829   4.485
53797SOL    HW163288  10.834   6.769   4.492
53797SOL    HW263289  10.985   6.775   4.504
53798SOL     OW63290   2.269   2.824  14.722
53798SOL    HW163291   2.232   2.758  14.663
53798SOL    HW263292   2.328   2.875  14.666
53799SOL     OW63293   1.090  12.811  10.836
53799SOL    HW163294   1.013  12.868  10.839
53799SOL    HW263295   1.164  12.872  10.845
53800SOL     OW63296   9.940   7.722   9.472
53800SOL    HW163297   9.875   7.667   9.516
53800SOL    HW263298   9.925   7.810   9.508
53801SOL     OW63299   8.956  10.560   7.849
53801SOL    HW163300   9.024  10.613   7.891
53801SOL    HW263301   9.000  10.479   7.825
53802SOL     OW63302  10.372   0.553   6.670
53802SOL    HW163303  10.424   0.531   6.748
53802SOL    HW263304  10.320   0.474   6.654
53803SOL     OW63305   7.171  13.828   3.154
53803SOL    HW163306   7.236  13.884   3.197
53803SOL    HW263307   7.159  13.866   3.067
53804SOL     OW63308  10.179   1.491  12.301
53804SOL    HW163309  10.178   1.396  12.291
53804SOL    HW263310  10.180   1.506  12.395
53805SOL     OW63311  11.331   5.712   8.764
53805SOL    HW163312  11.261   5.737   8.825
53805SOL    HW263313  11.287   5.704   8.680
53806SOL     OW63314   3.300  11.948  10.579
53806SOL    HW163315   3.385  11.903  10.583
53806SOL    HW263316   3.304  11.998  10.497
53807SOL     OW63317   2.356   5.091   0.839
53807SOL    HW163318   2.287   5.039   0.879
53807SOL    HW263319   2.438   5.056   0.876
53808SOL     OW63320   7.919   2.065   8.453
53808SOL    HW163321   7.878   1.997   8.399
53808SOL    HW263322   7.848   2.126   8.472
53809SOL     OW63323   5.972   0.350   0.794
53809SOL    HW163324   6.014   0.417   0.739
53809SOL    HW263325   5.914   0.303   0.735
53810SOL     OW63326  14.555   2.438  13.720
53810SOL    HW163327  14.502   2.389  13.784
53810SOL    HW263328  14.619   2.485  13.773
53811SOL     OW63329   9.706  13.590   6.731
53811SOL    HW163330   9.749  13.537   6.664
53811SOL    HW263331   9.775  13.647   6.764
53812SOL     OW63332   8.549   1.100   9.601
53812SOL    HW163333   8.552   1.007   9.579
53812SOL    HW263334   8.638   1.121   9.628
53813SOL     OW63335  12.275  11.809   1.844
53813SOL    HW163336  12.359  11.775   1.874
53813SOL    HW263337  12.297  11.873   1.776
53814SOL     OW63338   4.018  10.648  13.714
53814SOL    HW163339   4.033  10.697  13.795
53814SOL    HW263340   3.972  10.569  13.743
53815SOL     OW63341  10.867  13.605   2.398
53815SOL    HW163342  10.851  13.594   2.492
53815SOL    HW263343  10.798  13.553   2.356
53816SOL     OW63344   5.221  11.348   6.930
53816SOL    HW163345   5.276  11.425   6.938
53816SOL    HW263346   5.282  11.277   6.909
53817SOL     OW63347  13.808   8.940   8.025
53817SOL    HW163348  13.731   8.997   8.028
53817SOL    HW263349  13.785   8.871   7.962
53818SOL     OW63350   4.171   4.818  11.870
53818SOL    HW163351   4.093   4.830  11.925
53818SOL    HW263352   4.136   4.802  11.782
53819SOL     OW63353   6.872   1.422   4.337
53819SOL    HW163354   6.875   1.340   4.288
53819SOL    HW263355   6.902   1.399   4.424
53820SOL     OW63356   7.918  11.733   3.388
53820SOL    HW163357   7.896  11.765   3.476
53820SOL    HW263358   7.920  11.638   3.397
53821SOL     OW63359   5.955   4.130   7.527
53821SOL    HW163360   5.890   4.169   7.468
53821SOL    HW263361   6.032   4.187   7.518
53822SOL     OW63362   2.289  10.061   8.321
53822SOL    HW163363   2.359   9.996   8.315
53822SOL    HW263364   2.320  10.125   8.385
53823SOL     OW63365  10.159  14.271  14.497
53823SOL    HW163366  10.242  14.246  14.457
53823SOL    HW263367  10.096  14.268  14.426
53824SOL     OW63368  10.682   6.620   3.665
53824SOL    HW163369  10.760   6.571   3.690
53824SOL    HW263370  10.714   6.688   3.605
53825SOL     OW63371  11.784   8.994   3.018
53825SOL    HW163372  11.872   8.957   3.018
53825SOL    HW263373  11.726   8.918   3.029
53826SOL     OW63374  13.588   0.260   5.837
53826SOL    HW163375  13.582   0.172   5.875
53826SOL    HW263376  13.653   0.305   5.891
53827SOL     OW63377   7.055   2.127  11.744
53827SOL    HW163378   7.075   2.219  11.724
53827SOL    HW263379   7.108   2.107  11.821
53828SOL     OW63380   3.571   4.691   3.646
53828SOL    HW163381   3.532   4.726   3.726
53828SOL    HW263382   3.517   4.727   3.576
53829SOL     OW63383   7.020  12.230  14.584
53829SOL    HW163384   7.010  12.148  14.633
53829SOL    HW263385   7.094  12.274  14.627
53830SOL     OW63386   9.832   6.488   9.734
53830SOL    HW163387   9.922   6.510   9.708
53830SOL    HW263388   9.809   6.413   9.680
53831SOL     OW63389   5.519   3.058   6.761
53831SOL    HW163390   5.545   2.969   6.736
53831SOL    HW263391   5.559   3.114   6.694
53832SOL     OW63392  10.086  12.681  10.666
53832SOL    HW163393  10.129  12.661  10.583
53832SOL    HW263394  10.004  12.723  10.641
53833SOL     OW63395   3.456  12.419   4.715
53833SOL    HW163396   3.506  12.338   4.713
53833SOL    HW263397   3.374  12.399   4.670
53834SOL     OW63398   6.390   7.309   2.066
53834SOL    HW163399   6.431   7.365   1.999
53834SOL    HW263400   6.301   7.343   2.073
53835SOL     OW63401  13.421  10.242   1.259
53835SOL    HW163402  13.448  10.190   1.183
53835SOL    HW263403  13.500  10.291   1.284
53836SOL     OW63404   8.029  10.308   5.848
53836SOL    HW163405   8.051  10.235   5.906
53836SOL    HW263406   7.937  10.295   5.828
53837SOL     OW63407   4.291  10.761  12.844
53837SOL    HW163408   4.252  10.824  12.904
53837SOL    HW263409   4.357  10.811  12.795
53838SOL     OW63410  11.618   6.521   5.042
53838SOL    HW163411  11.600   6.429   5.061
53838SOL    HW263412  11.535   6.555   5.008
53839SOL     OW63413   1.670   1.482   6.979
53839SOL    HW163414   1.741   1.533   6.940
53839SOL    HW263415   1.618   1.453   6.904
53840SOL     OW63416   7.277   9.131   1.892
53840SOL    HW163417   7.301   9.053   1.941
53840SOL    HW263418   7.258   9.100   1.803
53841SOL     OW63419  13.310   4.683  11.828
53841SOL    HW163420  13.219   4.660  11.813
53841SOL    HW263421  13.334   4.739  11.754
53842SOL     OW63422   7.854   7.473   5.724
53842SOL    HW163423   7.936   7.481   5.676
53842SOL    HW263424   7.822   7.386   5.702
53843SOL     OW63425   6.104   7.742   9.140
53843SOL    HW163426   6.069   7.826   9.111
53843SOL    HW263427   6.163   7.715   9.069
53844SOL     OW63428  14.026  12.338   0.520
53844SOL    HW163429  14.113  12.373   0.535
53844SOL    HW263430  14.027  12.251   0.560
53845SOL     OW63431  14.141   7.975   4.661
53845SOL    HW163432  14.132   7.899   4.604
53845SOL    HW263433  14.225   8.013   4.638
53846SOL     OW63434  11.421   5.981   6.540
53846SOL    HW163435  11.436   5.890   6.511
53846SOL    HW263436  11.498   6.028   6.509
53847SOL     OW63437  14.734   6.039   0.111
53847SOL    HW163438  14.760   5.991   0.190
53847SOL    HW263439  14.719   6.128   0.140
53848SOL     OW63440   5.671   9.434   5.198
53848SOL    HW163441   5.576   9.431   5.190
53848SOL    HW263442   5.701   9.460   5.111
53849SOL     OW63443   9.643   1.806   5.718
53849SOL    HW163444   9.670   1.768   5.802
53849SOL    HW263445   9.651   1.734   5.655
53850SOL     OW63446   7.171  12.053  11.399
53850SOL    HW163447   7.173  11.976  11.342
53850SOL    HW263448   7.164  12.128  11.339
53851SOL     OW63449  12.817  12.664   3.589
53851SOL    HW163450  12.869  12.605   3.643
53851SOL    HW263451  12.843  12.643   3.499
53852SOL     OW63452   4.436   4.939   8.972
53852SOL    HW163453   4.511   4.970   8.922
53852SOL    HW263454   4.427   5.002   9.044
53853SOL     OW63455   5.493   2.300  12.745
53853SOL    HW163456   5.490   2.235  12.815
53853SOL    HW263457   5.585   2.302  12.719
53854SOL     OW63458   5.728   7.462  10.400
53854SOL    HW163459   5.633   7.472  10.393
53854SOL    HW263460   5.747   7.381  10.354
53855SOL     OW63461   7.956   4.157  12.811
53855SOL    HW163462   7.926   4.187  12.725
53855SOL    HW263463   8.050   4.176  12.811
53856SOL     OW63464   2.679   9.347   6.630
53856SOL    HW163465   2.743   9.417   6.638
53856SOL    HW263466   2.635   9.365   6.547
53857SOL     OW63467   9.650   4.167  11.608
53857SOL    HW163468   9.656   4.092  11.667
53857SOL    HW263469   9.627   4.129  11.523
53858SOL     OW63470   2.327  10.856   2.535
53858SOL    HW163471   2.389  10.787   2.557
53858SOL    HW263472   2.264  10.815   2.476
53859SOL     OW63473   8.613   9.511   2.849
53859SOL    HW163474   8.698   9.471   2.828
53859SOL    HW263475   8.610   9.508   2.945
53860SOL     OW63476   4.243   2.150   1.079
53860SOL    HW163477   4.207   2.076   1.128
53860SOL    HW263478   4.166   2.198   1.048
53861SOL     OW63479  12.405   3.188  11.606
53861SOL    HW163480  12.386   3.258  11.668
53861SOL    HW263481  12.464   3.228  11.542
53862SOL     OW63482   1.310   3.232  12.043
53862SOL    HW163483   1.333   3.323  12.024
53862SOL    HW263484   1.316   3.188  11.958
53863SOL     OW63485  11.256  10.980   8.569
53863SOL    HW163486  11.263  10.885   8.573
53863SOL    HW263487  11.342  11.010   8.539
53864SOL     OW63488   1.724   7.567   9.933
53864SOL    HW163489   1.631   7.584   9.916
53864SOL    HW263490   1.728   7.473   9.950
53865SOL     OW63491   6.507   3.633   5.251
53865SOL    HW163492   6.491   3.565   5.186
53865SOL    HW263493   6.457   3.709   5.220
53866SOL     OW63494   5.588   9.545  12.373
53866SOL    HW163495   5.616   9.600  12.445
53866SOL    HW263496   5.573   9.459  12.413
53867SOL     OW63497   8.529   4.668   5.482
53867SOL    HW163498   8.487   4.587   5.452
53867SOL    HW263499   8.568   4.705   5.402
53868SOL     OW63500   2.341  14.535   3.354
53868SOL    HW163501   2.325  14.455   3.404
53868SOL    HW263502   2.381  14.504   3.272
53869SOL     OW63503   8.785   6.202   5.198
53869SOL    HW163504   8.868   6.189   5.152
53869SOL    HW263505   8.781   6.129   5.260
53870SOL     OW63506   9.765   2.378   9.963
53870SOL    HW163507   9.752   2.315   9.892
53870SOL    HW263508   9.706   2.348  10.032
53871SOL     OW63509   6.363  11.962   4.351
53871SOL    HW163510   6.273  11.986   4.374
53871SOL    HW263511   6.353  11.886   4.293
53872SOL     OW63512   2.441  14.523   1.473
53872SOL    HW163513   2.487  14.548   1.553
53872SOL    HW263514   2.379  14.455   1.501
53873SOL     OW63515   2.782  12.127   9.684
53873SOL    HW163516   2.855  12.187   9.699
53873SOL    HW263517   2.761  12.094   9.772
53874SOL     OW63518   3.641  13.145   4.287
53874SOL    HW163519   3.623  13.076   4.223
53874SOL    HW263520   3.611  13.108   4.371
53875SOL     OW63521   8.884   6.510  10.817
53875SOL    HW163522   8.861   6.484  10.728
53875SOL    HW263523   8.808   6.486  10.869
53876SOL     OW63524  13.729   4.953   6.287
53876SOL    HW163525  13.651   4.955   6.344
53876SOL    HW263526  13.697   4.981   6.202
53877SOL     OW63527  12.418  10.690  14.610
53877SOL    HW163528  12.460  10.604  14.609
53877SOL    HW263529  12.483  10.748  14.649
53878SOL     OW63530  14.033  10.089   2.319
53878SOL    HW163531  14.117  10.047   2.336
53878SOL    HW263532  14.004  10.122   2.404
53879SOL     OW63533  13.974   2.487  10.678
53879SOL    HW163534  14.019   2.496  10.594
53879SOL    HW263535  13.897   2.543  10.670
53880SOL     OW63536   0.616   9.924  10.711
53880SOL    HW163537   0.533   9.960  10.679
53880SOL    HW263538   0.591   9.869  10.785
53881SOL     OW63539  12.120   0.865  12.543
53881SOL    HW163540  12.117   0.889  12.450
53881SOL    HW263541  12.100   0.946  12.589
53882SOL     OW63542  14.860   5.011   4.516
53882SOL    HW163543  14.824   5.000   4.428
53882SOL    HW263544  14.783   5.012   4.573
53883SOL     OW63545  13.511  11.902   1.911
53883SOL    HW163546  13.514  11.872   2.002
53883SOL    HW263547  13.439  11.853   1.872
53884SOL     OW63548   9.612   7.295   6.062
53884SOL    HW163549   9.608   7.262   5.972
53884SOL    HW263550   9.525   7.332   6.077
53885SOL     OW63551  12.542   8.054  13.528
53885SOL    HW163552  12.539   8.080  13.620
53885SOL    HW263553  12.635   8.040  13.510
53886SOL     OW63554   5.585   3.882  10.157
53886SOL    HW163555   5.636   3.841  10.087
53886SOL    HW263556   5.535   3.951  10.112
53887SOL     OW63557   0.377   5.720   6.332
53887SOL    HW163558   0.320   5.643   6.327
53887SOL    HW263559   0.318   5.795   6.329
53888SOL     OW63560   3.207   6.537   7.323
53888SOL    HW163561   3.143   6.554   7.254
53888SOL    HW263562   3.238   6.624   7.348
53889SOL     OW63563  10.391   9.364  14.269
53889SOL    HW163564  10.305   9.360  14.228
53889SOL    HW263565  10.418   9.273  14.278
53890SOL     OW63566   0.039   2.595  13.050
53890SOL    HW163567   0.068   2.566  13.136
53890SOL    HW263568  14.859   2.675  13.066
53891SOL     OW63569  14.137   7.809   9.490
53891SOL    HW163570  14.151   7.715   9.474
53891SOL    HW263571  14.086   7.812   9.571
53892SOL     OW63572   2.020  10.261   0.842
53892SOL    HW163573   1.949  10.277   0.904
53892SOL    HW263574   2.025  10.342   0.791
53893SOL     OW63575   7.965   4.266   6.618
53893SOL    HW163576   8.050   4.311   6.617
53893SOL    HW263577   7.985   4.178   6.585
53894SOL     OW63578   7.665   3.123  12.317
53894SOL    HW163579   7.758   3.116  12.340
53894SOL    HW263580   7.665   3.166  12.231
53895SOL     OW63581   8.033   8.115   8.578
53895SOL    HW163582   8.033   8.155   8.492
53895SOL    HW263583   7.947   8.072   8.584
53896SOL     OW63584  10.136   2.187   7.933
53896SOL    HW163585  10.162   2.214   7.845
53896SOL    HW263586  10.147   2.092   7.933
53897SOL     OW63587   5.721   2.345   9.589
53897SOL    HW163588   5.688   2.398   9.661
53897SOL    HW263589   5.815   2.363   9.586
53898SOL     OW63590   4.677  13.962   5.237
53898SOL    HW163591   4.763  14.005   5.246
53898SOL    HW263592   4.684  13.912   5.156
53899SOL     OW63593   1.713   0.712  14.131
53899SOL    HW163594   1.707   0.713  14.036
53899SOL    HW263595   1.807   0.701  14.149
53900SOL     OW63596   3.995   1.118   0.584
53900SOL    HW163597   4.070   1.124   0.524
53900SOL    HW263598   3.921   1.098   0.528
53901SOL     OW63599   2.582  10.974  10.968
53901SOL    HW163600   2.625  11.017  10.894
53901SOL    HW263601   2.530  11.043  11.010
53902SOL     OW63602  12.677   0.801   1.218
53902SOL    HW163603  12.620   0.831   1.148
53902SOL    HW263604  12.683   0.706   1.206
53903SOL     OW63605  13.100  14.250   9.296
53903SOL    HW163606  13.070  14.307   9.225
53903SOL    HW263607  13.055  14.283   9.374
53904SOL     OW63608   4.694   0.519   3.374
53904SOL    HW163609   4.742   0.526   3.292
53904SOL    HW263610   4.644   0.601   3.380
53905SOL     OW63611  12.460  10.341   6.725
53905SOL    HW163612  12.379  10.297   6.750
53905SOL    HW263613  12.443  10.434   6.743
53906SOL     OW63614  10.916   0.474   0.798
53906SOL    HW163615  11.002   0.488   0.758
53906SOL    HW263616  10.934   0.465   0.891
53907SOL     OW63617   7.252   1.457   6.219
53907SOL    HW163618   7.298   1.376   6.197
53907SOL    HW263619   7.279   1.519   6.151
53908SOL     OW63620   0.328   0.751   8.593
53908SOL    HW163621   0.324   0.794   8.678
53908SOL    HW263622   0.305   0.820   8.530
53909SOL     OW63623  10.115   2.575   6.235
53909SOL    HW163624  10.092   2.575   6.143
53909SOL    HW263625  10.128   2.668   6.257
53910SOL     OW63626   1.359  13.957   3.458
53910SOL    HW163627   1.342  13.922   3.546
53910SOL    HW263628   1.278  14.002   3.435
53911SOL     OW63629   7.778   5.044   2.452
53911SOL    HW163630   7.722   4.968   2.470
53911SOL    HW263631   7.861   5.023   2.494
53912SOL     OW63632   1.084   9.254   6.947
53912SOL    HW163633   1.025   9.275   6.874
53912SOL    HW263634   1.138   9.182   6.914
53913SOL     OW63635   4.775   1.230   8.439
53913SOL    HW163636   4.758   1.180   8.359
53913SOL    HW263637   4.856   1.279   8.421
53914SOL     OW63638   1.908  10.804   1.940
53914SOL    HW163639   1.973  10.777   2.005
53914SOL    HW263640   1.856  10.871   1.984
53915SOL     OW63641  10.752   4.211   2.712
53915SOL    HW163642  10.701   4.231   2.791
53915SOL    HW263643  10.830   4.267   2.719
53916SOL     OW63644  11.211   3.180   9.415
53916SOL    HW163645  11.226   3.271   9.391
53916SOL    HW263646  11.116   3.170   9.413
53917SOL     OW63647   0.036  14.700   7.567
53917SOL    HW163648   0.071  14.786   7.593
53917SOL    HW263649  14.833  14.721   7.508
53918SOL     OW63650   4.076  14.078  12.940
53918SOL    HW163651   4.116  14.026  12.869
53918SOL    HW263652   4.150  14.105  12.994
53919SOL     OW63653   4.941   7.054   6.985
53919SOL    HW163654   5.019   7.009   6.952
53919SOL    HW263655   4.925   7.124   6.923
53920SOL     OW63656   6.414   5.950  13.377
53920SOL    HW163657   6.483   5.979  13.317
53920SOL    HW263658   6.340   5.929  13.319
53921SOL     OW63659   0.454   6.408   4.754
53921SOL    HW163660   0.469   6.488   4.704
53921SOL    HW263661   0.525   6.405   4.818
53922SOL     OW63662   1.154   6.869  14.264
53922SOL    HW163663   1.221   6.917  14.312
53922SOL    HW263664   1.168   6.777  14.286
53923SOL     OW63665   6.598  14.820   5.067
53923SOL    HW163666   6.563  14.867   5.143
53923SOL    HW263667   6.543  14.850   4.994
53924SOL     OW63668   8.066   2.250   4.961
53924SOL    HW163669   8.150   2.221   4.926
53924SOL    HW263670   8.067   2.345   4.950
53925SOL     OW63671  10.407   8.091   6.140
53925SOL    HW163672  10.456   8.141   6.075
53925SOL    HW263673  10.437   8.001   6.128
53926SOL     OW63674   4.713   7.894   7.177
53926SOL    HW163675   4.791   7.875   7.124
53926SOL    HW263676   4.691   7.810   7.217
53927SOL     OW63677  12.144  12.898   8.801
53927SOL    HW163678  12.080  12.943   8.855
53927SOL    HW263679  12.093  12.835   8.750
53928SOL     OW63680   7.430   9.827  11.004
53928SOL    HW163681   7.415   9.850  10.913
53928SOL    HW263682   7.342   9.830  11.044
53929SOL     OW63683  11.735   7.971   9.550
53929SOL    HW163684  11.750   8.065   9.541
53929SOL    HW263685  11.810   7.940   9.601
53930SOL     OW63686   9.205   4.147   2.602
53930SOL    HW163687   9.176   4.055   2.607
53930SOL    HW263688   9.300   4.142   2.604
53931SOL     OW63689   2.318  12.723   8.650
53931SOL    HW163690   2.384  12.756   8.711
53931SOL    HW263691   2.369  12.673   8.586
53932SOL     OW63692  14.014   2.458   5.312
53932SOL    HW163693  14.046   2.478   5.400
53932SOL    HW263694  14.005   2.363   5.311
53933SOL     OW63695   0.868   0.388   6.454
53933SOL    HW163696   0.795   0.328   6.440
53933SOL    HW263697   0.943   0.332   6.474
53934SOL     OW63698   6.584   4.716   8.949
53934SOL    HW163699   6.653   4.727   9.015
53934SOL    HW263700   6.546   4.803   8.940
53935SOL     OW63701  11.040   0.553   7.970
53935SOL    HW163702  11.103   0.625   7.980
53935SOL    HW263703  10.961   0.585   8.013
53936SOL     OW63704   6.683   6.291  11.172
53936SOL    HW163705   6.663   6.209  11.216
53936SOL    HW263706   6.745   6.336  11.230
53937SOL     OW63707   6.518   3.917  12.965
53937SOL    HW163708   6.584   3.985  12.951
53937SOL    HW263709   6.527   3.894  13.057
53938SOL     OW63710   9.440   6.931  10.427
53938SOL    HW163711   9.422   6.992  10.499
53938SOL    HW263712   9.403   6.973  10.350
53939SOL     OW63713   2.117   4.533   0.922
53939SOL    HW163714   2.105   4.580   0.839
53939SOL    HW263715   2.032   4.493   0.939
53940SOL     OW63716  14.371   6.578   2.105
53940SOL    HW163717  14.457   6.541   2.122
53940SOL    HW263718  14.388   6.659   2.056
53941SOL     OW63719   9.391   1.705   8.872
53941SOL    HW163720   9.382   1.748   8.787
53941SOL    HW263721   9.303   1.706   8.909
53942SOL     OW63722   4.685   6.359   7.308
53942SOL    HW163723   4.755   6.314   7.356
53942SOL    HW263724   4.694   6.328   7.218
53943SOL     OW63725   1.071   3.659  12.560
53943SOL    HW163726   1.124   3.606  12.619
53943SOL    HW263727   1.107   3.747  12.568
53944SOL     OW63728   2.842  10.068   1.929
53944SOL    HW163729   2.912  10.101   1.985
53944SOL    HW263730   2.814  10.144   1.878
53945SOL     OW63731   3.059  11.143   2.546
53945SOL    HW163732   3.077  11.225   2.591
53945SOL    HW263733   3.134  11.087   2.566
53946SOL     OW63734   3.914   2.899   9.593
53946SOL    HW163735   3.851   2.915   9.663
53946SOL    HW263736   3.896   2.966   9.528
53947SOL     OW63737  13.101   4.142   9.931
53947SOL    HW163738  13.145   4.221   9.900
53947SOL    HW263739  13.133   4.130  10.020
53948SOL     OW63740   3.492   5.729  12.278
53948SOL    HW163741   3.569   5.766  12.236
53948SOL    HW263742   3.518   5.640  12.302
53949SOL     OW63743   3.969   2.308  12.815
53949SOL    HW163744   3.884   2.315  12.772
53949SOL    HW263745   3.965   2.225  12.863
53950SOL     OW63746  13.546   0.618   3.456
53950SOL    HW163747  13.551   0.532   3.413
53950SOL    HW263748  13.537   0.597   3.549
53951SOL     OW63749   6.329   0.257   4.084
53951SOL    HW163750   6.238   0.237   4.061
53951SOL    HW263751   6.330   0.353   4.093
53952SOL     OW63752   1.419  11.811  12.974
53952SOL    HW163753   1.513  11.805  12.960
53952SOL    HW263754   1.411  11.863  13.055
53953SOL     OW63755   3.956  14.088   0.545
53953SOL    HW163756   3.872  14.087   0.500
53953SOL    HW263757   3.953  14.165   0.601
53954SOL     OW63758  12.632  12.689   2.718
53954SOL    HW163759  12.671  12.773   2.693
53954SOL    HW263760  12.563  12.675   2.654
53955SOL     OW63761   8.611  13.802  12.743
53955SOL    HW163762   8.674  13.738  12.776
53955SOL    HW263763   8.664  13.878  12.720
53956SOL     OW63764   3.685  11.677   8.729
53956SOL    HW163765   3.760  11.619   8.713
53956SOL    HW263766   3.710  11.727   8.806
53957SOL     OW63767   0.928   9.611   4.552
53957SOL    HW163768   0.953   9.520   4.536
53957SOL    HW263769   0.834   9.613   4.536
53958SOL     OW63770   7.370   1.256   7.228
53958SOL    HW163771   7.396   1.221   7.314
53958SOL    HW263772   7.385   1.350   7.235
53959SOL     OW63773   2.992   8.148   4.307
53959SOL    HW163774   3.033   8.224   4.265
53959SOL    HW263775   3.029   8.147   4.396
53960SOL     OW63776  12.607   5.136   9.162
53960SOL    HW163777  12.555   5.104   9.236
53960SOL    HW263778  12.578   5.082   9.088
53961SOL     OW63779  13.799   5.344   1.053
53961SOL    HW163780  13.815   5.387   1.137
53961SOL    HW263781  13.886   5.340   1.012
53962SOL     OW63782   5.024  12.589  14.150
53962SOL    HW163783   5.005  12.501  14.183
53962SOL    HW263784   4.997  12.647  14.220
53963SOL     OW63785   0.183   3.783   5.999
53963SOL    HW163786   0.108   3.815   6.049
53963SOL    HW263787   0.206   3.700   6.041
53964SOL     OW63788   8.739   2.075   3.966
53964SOL    HW163789   8.745   2.097   4.059
53964SOL    HW263790   8.667   2.013   3.960
53965SOL     OW63791   7.529   1.201   7.456
53965SOL    HW163792   7.608   1.248   7.483
53965SOL    HW263793   7.462   1.228   7.520
53966SOL     OW63794   1.584   7.642   2.779
53966SOL    HW163795   1.594   7.597   2.863
53966SOL    HW263796   1.590   7.735   2.801
53967SOL     OW63797  11.307   3.467   2.703
53967SOL    HW163798  11.314   3.519   2.624
53967SOL    HW263799  11.340   3.380   2.678
53968SOL     OW63800  14.691   0.786  11.214
53968SOL    HW163801  14.752   0.859  11.211
53968SOL    HW263802  14.686   0.754  11.125
53969SOL     OW63803  13.384   4.011   6.162
53969SOL    HW163804  13.425   4.097   6.157
53969SOL    HW263805  13.394   3.974   6.074
53970SOL     OW63806   7.426  11.573  10.254
53970SOL    HW163807   7.411  11.621  10.173
53970SOL    HW263808   7.403  11.636  10.323
53971SOL     OW63809   3.913   5.800   0.932
53971SOL    HW163810   3.838   5.801   0.991
53971SOL    HW263811   3.981   5.752   0.980
53972SOL     OW63812   2.000   5.506  10.210
53972SOL    HW163813   1.970   5.536  10.295
53972SOL    HW263814   2.005   5.585  10.157
53973SOL     OW63815  13.229   1.290   0.529
53973SOL    HW163816  13.192   1.331   0.451
53973SOL    HW263817  13.308   1.340   0.547
53974SOL     OW63818   6.592  14.670   1.550
53974SOL    HW163819   6.677  14.643   1.515
53974SOL    HW263820   6.594  14.644   1.642
53975SOL     OW63821  12.619   7.492   6.666
53975SOL    HW163822  12.551   7.522   6.727
53975SOL    HW263823  12.692   7.467   6.722
53976SOL     OW63824  12.141   7.237  13.768
53976SOL    HW163825  12.059   7.188  13.763
53976SOL    HW263826  12.178   7.215  13.854
53977SOL     OW63827   9.602   2.355  14.510
53977SOL    HW163828   9.670   2.418  14.489
53977SOL    HW263829   9.626   2.321  14.596
53978SOL     OW63830   1.136  14.275   5.674
53978SOL    HW163831   1.202  14.255   5.741
53978SOL    HW263832   1.186  14.314   5.602
53979SOL     OW63833   7.952   6.884  13.144
53979SOL    HW163834   7.939   6.940  13.068
53979SOL    HW263835   7.868   6.886  13.190
53980SOL     OW63836   5.303   1.973   7.263
53980SOL    HW163837   5.317   1.958   7.169
53980SOL    HW263838   5.208   1.971   7.273
53981SOL     OW63839  13.063   4.709  12.284
53981SOL    HW163840  13.126   4.639  12.265
53981SOL    HW263841  13.117   4.785  12.304
53982SOL     OW63842   8.179   1.052   5.268
53982SOL    HW163843   8.104   1.031   5.324
53982SOL    HW263844   8.217   1.131   5.307
53983SOL     OW63845   6.615  12.459   3.563
53983SOL    HW163846   6.698  12.502   3.585
53983SOL    HW263847   6.557  12.481   3.636
53984SOL     OW63848   6.901   1.012   5.542
53984SOL    HW163849   6.944   1.056   5.616
53984SOL    HW263850   6.808   1.033   5.553
53985SOL     OW63851   9.198   6.491  10.764
53985SOL    HW163852   9.115   6.535  10.783
53985SOL    HW263853   9.186   6.453  10.677
53986SOL     OW63854  13.578   9.975   5.138
53986SOL    HW163855  13.560   9.993   5.045
53986SOL    HW263856  13.503  10.012   5.185
53987SOL     OW63857   7.323  14.738   7.478
53987SOL    HW163858   7.250  14.800   7.476
53987SOL    HW263859   7.382  14.768   7.409
53988SOL     OW63860  10.528  11.085   4.212
53988SOL    HW163861  10.623  11.080   4.222
53988SOL    HW263862  10.506  11.173   4.242
53989SOL     OW63863   4.616   9.449   4.203
53989SOL    HW163864   4.693   9.433   4.258
53989SOL    HW263865   4.546   9.469   4.265
53990SOL     OW63866   8.878   5.581  13.700
53990SOL    HW163867   8.922   5.504  13.662
53990SOL    HW263868   8.936   5.608  13.772
53991SOL     OW63869   5.789   1.965   2.449
53991SOL    HW163870   5.701   1.989   2.424
53991SOL    HW263871   5.802   1.878   2.411
53992SOL     OW63872   5.522   0.940  10.613
53992SOL    HW163873   5.519   1.016  10.672
53992SOL    HW263874   5.559   0.870  10.666
53993SOL     OW63875  10.160  10.741  11.926
53993SOL    HW163876  10.243  10.718  11.886
53993SOL    HW263877  10.126  10.813  11.873
53994SOL     OW63878   0.349   8.661  10.052
53994SOL    HW163879   0.415   8.728  10.068
53994SOL    HW263880   0.367   8.594  10.118
53995SOL     OW63881   1.551   1.646   9.091
53995SOL    HW163882   1.513   1.707   9.027
53995SOL    HW263883   1.507   1.563   9.074
53996SOL     OW63884   9.381   9.082   1.405
53996SOL    HW163885   9.346   9.082   1.494
53996SOL    HW263886   9.357   8.997   1.369
53997SOL     OW63887   3.848   7.584   9.901
53997SOL    HW163888   3.847   7.653   9.835
53997SOL    HW263889   3.786   7.614   9.967
53998SOL     OW63890  14.141   9.047   9.258
53998SOL    HW163891  14.187   9.012   9.335
53998SOL    HW263892  14.068   9.097   9.294
53999SOL     OW63893   2.874   6.384  12.862
53999SOL    HW163894   2.862   6.380  12.768
53999SOL    HW263895   2.928   6.462  12.876
54000SOL     OW63896   7.224   3.961   7.809
54000SOL    HW163897   7.216   4.034   7.748
54000SOL    HW263898   7.298   3.910   7.777
54001SOL     OW63899  14.794  12.029  12.207
54001SOL    HW163900  14.752  12.023  12.121
54001SOL    HW263901   0.011  12.065  12.189
54002SOL     OW63902   0.560   5.015  13.041
54002SOL    HW163903   0.569   4.920  13.043
54002SOL    HW263904   0.482   5.032  13.094
54003SOL     OW63905   2.938   8.517   8.928
54003SOL    HW163906   2.960   8.486   9.015
54003SOL    HW263907   2.973   8.606   8.924
54004SOL     OW63908  13.520   5.883  10.863
54004SOL    HW163909  13.547   5.828  10.937
54004SOL    HW263910  13.602   5.909  10.821
54005SOL     OW63911  14.473  10.011   2.539
54005SOL    HW163912  14.567  10.026   2.534
54005SOL    HW263913  14.434  10.098   2.534
54006SOL     OW63914   0.081  12.035  14.173
54006SOL    HW163915   0.120  12.122  14.168
54006SOL    HW263916  14.862  12.046  14.138
54007SOL     OW63917  12.369   7.418  14.708
54007SOL    HW163918  12.286   7.382  14.677
54007SOL    HW263919  12.343   7.490  14.765
54008SOL     OW63920   6.221   6.242  13.858
54008SOL    HW163921   6.230   6.280  13.946
54008SOL    HW263922   6.308   6.206  13.839
54009SOL     OW63923   1.961  11.749   9.783
54009SOL    HW163924   1.978  11.690   9.710
54009SOL    HW263925   2.000  11.705   9.859
54010SOL     OW63926   7.604  14.526  11.900
54010SOL    HW163927   7.674  14.549  11.961
54010SOL    HW263928   7.612  14.589  11.829
54011SOL     OW63929   6.260  10.861  11.488
54011SOL    HW163930   6.294  10.948  11.508
54011SOL    HW263931   6.176  10.877  11.445
54012SOL     OW63932   1.009   7.228  12.346
54012SOL    HW163933   1.060   7.293  12.395
54012SOL    HW263934   0.940   7.203  12.407
54013SOL     OW63935   1.930   1.633   8.689
54013SOL    HW163936   1.904   1.546   8.720
54013SOL    HW263937   1.973   1.617   8.606
54014SOL     OW63938   0.681  11.800   6.912
54014SOL    HW163939   0.689  11.716   6.957
54014SOL    HW263940   0.611  11.846   6.958
54015SOL     OW63941   8.930  12.221   2.091
54015SOL    HW163942   9.012  12.236   2.137
54015SOL    HW263943   8.953  12.162   2.019
54016SOL     OW63944   6.277  10.132  11.527
54016SOL    HW163945   6.365  10.096  11.516
54016SOL    HW263946   6.231  10.066  11.579
54017SOL     OW63947   9.550  13.804   0.725
54017SOL    HW163948   9.502  13.735   0.773
54017SOL    HW263949   9.575  13.867   0.792
54018SOL     OW63950   3.874   3.529  13.342
54018SOL    HW163951   3.814   3.582  13.393
54018SOL    HW263952   3.961   3.550  13.376
54019SOL     OW63953   4.266   6.038   7.033
54019SOL    HW163954   4.326   6.096   6.986
54019SOL    HW263955   4.180   6.081   7.023
54020SOL     OW63956   6.668   5.801  14.567
54020SOL    HW163957   6.729   5.845  14.507
54020SOL    HW263958   6.620   5.872  14.609
54021SOL     OW63959  14.709   4.531   2.158
54021SOL    HW163960  14.738   4.620   2.178
54021SOL    HW263961  14.789   4.483   2.141
54022SOL     OW63962  12.036  10.702  12.945
54022SOL    HW163963  12.058  10.787  12.982
54022SOL    HW263964  12.107  10.683  12.884
54023SOL     OW63965   7.151  10.112   1.098
54023SOL    HW163966   7.085  10.181   1.104
54023SOL    HW263967   7.186  10.104   1.186
54024SOL     OW63968  14.149   6.027   5.479
54024SOL    HW163969  14.100   5.970   5.538
54024SOL    HW263970  14.151   5.981   5.395
54025SOL     OW63971  10.985   8.182   1.246
54025SOL    HW163972  11.034   8.147   1.321
54025SOL    HW263973  10.898   8.143   1.255
54026SOL     OW63974   6.021  13.495   3.735
54026SOL    HW163975   6.010  13.507   3.641
54026SOL    HW263976   5.951  13.434   3.759
54027SOL     OW63977   1.442   9.447   7.661
54027SOL    HW163978   1.466   9.370   7.712
54027SOL    HW263979   1.387   9.499   7.720
54028SOL     OW63980  14.051  11.682   8.092
54028SOL    HW163981  13.996  11.714   8.163
54028SOL    HW263982  14.121  11.634   8.135
54029SOL     OW63983   4.440   0.730   4.946
54029SOL    HW163984   4.415   0.661   4.884
54029SOL    HW263985   4.511   0.777   4.901
54030SOL     OW63986   1.086   2.981  12.878
54030SOL    HW163987   1.063   2.995  12.970
54030SOL    HW263988   1.103   2.887  12.872
54031SOL     OW63989   6.057   4.631   5.702
54031SOL    HW163990   6.035   4.619   5.794
54031SOL    HW263991   5.982   4.594   5.655
54032SOL     OW63992  11.185  12.319   0.171
54032SOL    HW163993  11.274  12.293   0.152
54032SOL    HW263994  11.148  12.345   0.086
54033SOL     OW63995   8.545   3.519  14.433
54033SOL    HW163996   8.532   3.556  14.346
54033SOL    HW263997   8.627   3.558  14.464
54034SOL     OW63998  10.143   7.658   6.209
54034SOL    HW163999  10.172   7.639   6.120
54034SOL    HW264000  10.174   7.584   6.260
54035SOL     OW64001   5.105  13.900   4.223
54035SOL    HW164002   5.087  13.963   4.293
54035SOL    HW264003   5.018  13.877   4.189
54036SOL     OW64004  12.259   5.731   3.166
54036SOL    HW164005  12.260   5.796   3.096
54036SOL    HW264006  12.167   5.706   3.173
54037SOL     OW64007   4.979   9.791  11.565
54037SOL    HW164008   4.896   9.789  11.518
54037SOL    HW264009   5.044   9.814  11.498
54038SOL     OW64010   7.377  13.395  11.068
54038SOL    HW164011   7.418  13.364  10.987
54038SOL    HW264012   7.283  13.381  11.054
54039SOL     OW64013   6.216   6.543   6.346
54039SOL    HW164014   6.238   6.633   6.370
54039SOL    HW264015   6.301   6.501   6.330
54040SOL     OW64016   5.423   6.371  13.441
54040SOL    HW164017   5.451   6.410  13.524
54040SOL    HW264018   5.480   6.294  13.431
54041SOL     OW64019  10.909   2.902   6.899
54041SOL    HW164020  10.882   2.987   6.865
54041SOL    HW264021  10.953   2.922   6.981
54042SOL     OW64022   8.064  10.709  10.662
54042SOL    HW164023   8.115  10.728  10.584
54042SOL    HW264024   8.004  10.782  10.670
54043SOL     OW64025   9.610  10.265  11.103
54043SOL    HW164026   9.614  10.312  11.019
54043SOL    HW264027   9.701  10.242  11.122
54044SOL     OW64028  12.176  11.019   0.059
54044SOL    HW164029  12.167  10.925   0.043
54044SOL    HW264030  12.104  11.059   0.011
54045SOL     OW64031   6.347   2.171   0.460
54045SOL    HW164032   6.349   2.196   0.367
54045SOL    HW264033   6.299   2.088   0.460
54046SOL     OW64034   4.174  10.137   7.200
54046SOL    HW164035   4.138  10.065   7.251
54046SOL    HW264036   4.157  10.215   7.253
54047SOL     OW64037   7.401  12.703   1.078
54047SOL    HW164038   7.458  12.685   1.003
54047SOL    HW264039   7.460  12.737   1.146
54048SOL     OW64040   1.179   4.484  12.676
54048SOL    HW164041   1.195   4.406  12.623
54048SOL    HW264042   1.207   4.557  12.622
54049SOL     OW64043  14.150   1.053   9.268
54049SOL    HW164044  14.119   1.032   9.356
54049SOL    HW264045  14.131   0.974   9.217
54050SOL     OW64046   7.729   5.597   5.705
54050SOL    HW164047   7.821   5.609   5.728
54050SOL    HW264048   7.731   5.548   5.623
54051SOL     OW64049  11.815  13.337   1.269
54051SOL    HW164050  11.783  13.391   1.341
54051SOL    HW264051  11.736  13.300   1.229
54052SOL     OW64052   5.963   8.791  10.828
54052SOL    HW164053   6.012   8.756  10.754
54052SOL    HW264054   5.965   8.886  10.814
54053SOL     OW64055  14.474   1.411   6.366
54053SOL    HW164056  14.446   1.459   6.444
54053SOL    HW264057  14.393   1.397   6.317
54054SOL     OW64058   3.930  14.645   4.179
54054SOL    HW164059   3.861  14.648   4.113
54054SOL    HW264060   3.992  14.713   4.153
54055SOL     OW64061   9.531   0.661  11.001
54055SOL    HW164062   9.487   0.617  11.073
54055SOL    HW264063   9.562   0.744  11.038
54056SOL     OW64064  14.343   3.228  10.545
54056SOL    HW164065  14.418   3.169  10.555
54056SOL    HW264066  14.351   3.289  10.619
54057SOL     OW64067   7.054   6.454  11.779
54057SOL    HW164068   7.040   6.466  11.873
54057SOL    HW264069   7.100   6.534  11.752
54058SOL     OW64070   9.785   6.855  12.801
54058SOL    HW164071   9.792   6.759  12.793
54058SOL    HW264072   9.864   6.888  12.759
54059SOL     OW64073  11.291  12.625   7.223
54059SOL    HW164074  11.202  12.614   7.190
54059SOL    HW264075  11.326  12.537   7.226
54060SOL     OW64076   2.597   0.720  14.004
54060SOL    HW164077   2.589   0.811  13.976
54060SOL    HW264078   2.613   0.671  13.923
54061SOL     OW64079   6.001   0.734   4.928
54061SOL    HW164080   6.034   0.744   5.017
54061SOL    HW264081   5.907   0.716   4.940
54062SOL     OW64082  14.677   8.216  14.197
54062SOL    HW164083  14.742   8.168  14.248
54062SOL    HW264084  14.611   8.150  14.175
54063SOL     OW64085  10.815  11.416  10.226
54063SOL    HW164086  10.805  11.499  10.272
54063SOL    HW264087  10.907  11.392  10.237
54064SOL     OW64088   8.136  10.572   9.637
54064SOL    HW164089   8.075  10.602   9.705
54064SOL    HW264090   8.119  10.629   9.562
54065SOL     OW64091   5.496   4.868   9.744
54065SOL    HW164092   5.443   4.831   9.674
54065SOL    HW264093   5.451   4.948   9.770
54066SOL     OW64094  13.781  14.221  12.823
54066SOL    HW164095  13.828  14.191  12.744
54066SOL    HW264096  13.694  14.244  12.791
54067SOL     OW64097   0.725  11.076  10.459
54067SOL    HW164098   0.687  11.130  10.529
54067SOL    HW264099   0.818  11.072  10.480
54068SOL     OW64100   4.598   2.661  11.137
54068SOL    HW164101   4.597   2.624  11.049
54068SOL    HW264102   4.690   2.684  11.153
54069SOL     OW64103   2.210   4.667   4.854
54069SOL    HW164104   2.239   4.667   4.763
54069SOL    HW264105   2.118   4.692   4.850
54070SOL     OW64106   1.575  10.090   3.212
54070SOL    HW164107   1.542  10.165   3.163
54070SOL    HW264108   1.542  10.103   3.301
54071SOL     OW64109  11.489   1.661  10.955
54071SOL    HW164110  11.477   1.724  10.884
54071SOL    HW264111  11.583   1.648  10.960
54072SOL     OW64112   1.548   5.155  10.633
54072SOL    HW164113   1.617   5.164  10.698
54072SOL    HW264114   1.594   5.149  10.549
54073SOL     OW64115  11.051   2.992   0.352
54073SOL    HW164116  10.975   3.025   0.400
54073SOL    HW264117  11.127   3.023   0.402
54074SOL     OW64118   0.479  13.016   0.305
54074SOL    HW164119   0.422  12.971   0.243
54074SOL    HW264120   0.475  12.963   0.385
54075SOL     OW64121   8.179   7.995   8.065
54075SOL    HW164122   8.121   7.967   8.136
54075SOL    HW264123   8.147   8.081   8.040
54076SOL     OW64124  13.931   7.544   3.508
54076SOL    HW164125  13.891   7.468   3.550
54076SOL    HW264126  13.894   7.620   3.554
54077SOL     OW64127  11.899   3.067  12.156
54077SOL    HW164128  11.908   3.158  12.130
54077SOL    HW264129  11.988   3.039  12.179
54078SOL     OW64130  11.302  14.395  13.413
54078SOL    HW164131  11.223  14.444  13.436
54078SOL    HW264132  11.360  14.406  13.488
54079SOL     OW64133   2.502  10.015  10.893
54079SOL    HW164134   2.454   9.994  10.974
54079SOL    HW264135   2.555  10.091  10.916
54080SOL     OW64136  10.501   2.123   1.126
54080SOL    HW164137  10.444   2.119   1.202
54080SOL    HW264138  10.493   2.037   1.085
54081SOL     OW64139   1.347   4.886  10.436
54081SOL    HW164140   1.374   4.949  10.502
54081SOL    HW264141   1.324   4.807  10.486
54082SOL     OW64142  13.861   0.360  12.145
54082SOL    HW164143  13.870   0.347  12.050
54082SOL    HW264144  13.833   0.451  12.155
54083SOL     OW64145   9.003  13.363   5.262
54083SOL    HW164146   9.014  13.270   5.281
54083SOL    HW264147   8.948  13.366   5.184
54084SOL     OW64148   8.524   8.647   5.949
54084SOL    HW164149   8.558   8.733   5.974
54084SOL    HW264150   8.598   8.602   5.909
54085SOL     OW64151   6.270   2.953   4.260
54085SOL    HW164152   6.316   2.951   4.177
54085SOL    HW264153   6.318   3.017   4.313
54086SOL     OW64154  13.387   5.882  14.370
54086SOL    HW164155  13.348   5.849  14.451
54086SOL    HW264156  13.470   5.920  14.397
54087SOL     OW64157   9.590  13.994  13.836
54087SOL    HW164158   9.510  13.970  13.882
54087SOL    HW264159   9.638  13.912  13.826
54088SOL     OW64160  12.942  12.562   2.473
54088SOL    HW164161  12.924  12.480   2.519
54088SOL    HW264162  12.926  12.542   2.381
54089SOL     OW64163   9.244   0.654  11.311
54089SOL    HW164164   9.194   0.574  11.296
54089SOL    HW264165   9.335   0.628  11.295
54090SOL     OW64166   7.142  14.617   0.017
54090SOL    HW164167   7.151  14.534   0.064
54090SOL    HW264168   7.127  14.591  14.796
54091SOL     OW64169   3.878  13.013   6.937
54091SOL    HW164170   3.909  12.941   6.993
54091SOL    HW264171   3.849  13.080   6.998
54092SOL     OW64172  11.007   2.331  13.151
54092SOL    HW164173  11.037   2.410  13.196
54092SOL    HW264174  10.970   2.364  13.069
54093SOL     OW64175  11.336   8.812   3.772
54093SOL    HW164176  11.352   8.719   3.755
54093SOL    HW264177  11.409   8.857   3.729
54094SOL     OW64178  12.558   1.673   0.519
54094SOL    HW164179  12.637   1.647   0.473
54094SOL    HW264180  12.488   1.626   0.474
54095SOL     OW64181   0.097   4.469   4.473
54095SOL    HW164182   0.183   4.487   4.513
54095SOL    HW264183   0.077   4.549   4.424
54096SOL     OW64184  12.554   1.935   0.408
54096SOL    HW164185  12.539   1.853   0.455
54096SOL    HW264186  12.649   1.947   0.411
54097SOL     OW64187  13.117   8.623   3.149
54097SOL    HW164188  13.162   8.621   3.234
54097SOL    HW264189  13.079   8.536   3.139
54098SOL     OW64190   6.010  11.031   9.567
54098SOL    HW164191   5.919  11.054   9.584
54098SOL    HW264192   6.052  11.114   9.546
54099SOL     OW64193   0.923  11.595   6.828
54099SOL    HW164194   0.972  11.668   6.865
54099SOL    HW264195   0.837  11.600   6.869
54100SOL     OW64196   1.148   8.820   4.352
54100SOL    HW164197   1.160   8.873   4.430
54100SOL    HW264198   1.053   8.815   4.340
54101SOL     OW64199  13.927   9.317   2.343
54101SOL    HW164200  14.013   9.290   2.311
54101SOL    HW264201  13.882   9.349   2.266
54102SOL     OW64202   2.098   1.703  11.336
54102SOL    HW164203   2.174   1.674  11.388
54102SOL    HW264204   2.045   1.752  11.398
54103SOL     OW64205  12.767   9.727   0.411
54103SOL    HW164206  12.702   9.660   0.435
54103SOL    HW264207  12.721   9.810   0.424
54104SOL     OW64208  13.196   5.365   1.725
54104SOL    HW164209  13.146   5.291   1.690
54104SOL    HW264210  13.139   5.404   1.791
54105SOL     OW64211   5.577   7.016  12.926
54105SOL    HW164212   5.565   7.105  12.895
54105SOL    HW264213   5.672   7.004  12.928
54106SOL     OW64214   1.768   4.448   8.971
54106SOL    HW164215   1.694   4.412   8.923
54106SOL    HW264216   1.837   4.459   8.906
54107SOL     OW64217  13.111   5.329   4.003
54107SOL    HW164218  13.056   5.270   3.952
54107SOL    HW264219  13.061   5.411   4.007
54108SOL     OW64220   3.343   4.053   7.917
54108SOL    HW164221   3.367   3.962   7.937
54108SOL    HW264222   3.393   4.074   7.838
54109SOL     OW64223   3.833  11.598   9.371
54109SOL    HW164224   3.783  11.628   9.447
54109SOL    HW264225   3.845  11.504   9.386
54110SOL     OW64226  13.860   3.463   7.103
54110SOL    HW164227  13.873   3.441   7.196
54110SOL    HW264228  13.774   3.427   7.082
54111SOL     OW64229   0.943  14.564   4.679
54111SOL    HW164230   1.017  14.614   4.713
54111SOL    HW264231   0.870  14.626   4.679
54112SOL     OW64232  11.031  12.000   1.943
54112SOL    HW164233  11.048  11.948   2.021
54112SOL    HW264234  11.047  12.091   1.970
54113SOL     OW64235  11.438   3.532   8.218
54113SOL    HW164236  11.435   3.449   8.266
54113SOL    HW264237  11.461   3.507   8.129
54114SOL     OW64238  12.457   2.635  11.614
54114SOL    HW164239  12.424   2.551  11.581
54114SOL    HW264240  12.527   2.611  11.675
54115SOL     OW64241   6.548  11.835   2.597
54115SOL    HW164242   6.609  11.850   2.526
54115SOL    HW264243   6.595  11.863   2.676
54116SOL     OW64244  13.269   1.606   2.513
54116SOL    HW164245  13.194   1.655   2.546
54116SOL    HW264246  13.335   1.614   2.582
54117SOL     OW64247  14.819  11.811   7.267
54117SOL    HW164248   0.042  11.789   7.258
54117SOL    HW264249  14.775  11.727   7.271
54118SOL     OW64250   2.948  11.946   9.031
54118SOL    HW164251   3.019  12.009   9.014
54118SOL    HW264252   2.887  11.994   9.087
54119SOL     OW64253   9.068  13.059   5.241
54119SOL    HW164254   9.068  13.091   5.331
54119SOL    HW264255   9.099  12.969   5.247
54120SOL     OW64256   7.325   4.337  10.760
54120SOL    HW164257   7.310   4.394  10.685
54120SOL    HW264258   7.239   4.297  10.778
54121SOL     OW64259   3.410   5.273   1.720
54121SOL    HW164260   3.498   5.287   1.687
54121SOL    HW264261   3.379   5.359   1.747
54122SOL     OW64262   0.272   5.796   7.448
54122SOL    HW164263   0.195   5.808   7.393
54122SOL    HW264264   0.249   5.721   7.504
54123SOL     OW64265   6.320  13.031  14.828
54123SOL    HW164266   6.405  13.066  14.853
54123SOL    HW264267   6.264  13.109  14.818
54124SOL     OW64268   4.423  12.757   5.112
54124SOL    HW164269   4.373  12.757   5.030
54124SOL    HW264270   4.369  12.807   5.173
54125SOL     OW64271  12.791  10.513  10.644
54125SOL    HW164272  12.859  10.511  10.711
54125SOL    HW264273  12.802  10.598  10.601
54126SOL     OW64274  12.312   9.990   5.479
54126SOL    HW164275  12.338  10.039   5.401
54126SOL    HW264276  12.237  10.038   5.513
54127SOL     OW64277  11.355   5.249   5.795
54127SOL    HW164278  11.300   5.266   5.719
54127SOL    HW264279  11.442   5.280   5.769
54128SOL     OW64280   2.661   2.976  11.968
54128SOL    HW164281   2.603   3.005  12.038
54128SOL    HW264282   2.739   2.942  12.012
54129SOL     OW64283   2.448   2.235  14.301
54129SOL    HW164284   2.511   2.276  14.360
54129SOL    HW264285   2.369   2.223  14.354
54130SOL     OW64286  12.948   0.169   6.238
54130SOL    HW164287  12.986   0.247   6.277
54130SOL    HW264288  12.856   0.191   6.226
54131SOL     OW64289   2.302   9.232   0.467
54131SOL    HW164290   2.246   9.253   0.541
54131SOL    HW264291   2.310   9.313   0.418
54132SOL     OW64292   4.186   8.034  11.450
54132SOL    HW164293   4.112   8.006  11.395
54132SOL    HW264294   4.148   8.047  11.537
54133SOL     OW64295  10.196   9.206   1.824
54133SOL    HW164296  10.101   9.202   1.813
54133SOL    HW264297  10.215   9.298   1.841
54134SOL     OW64298  11.182  13.552  10.472
54134SOL    HW164299  11.216  13.481  10.418
54134SOL    HW264300  11.182  13.628  10.414
54135SOL     OW64301   5.114  13.490   4.635
54135SOL    HW164302   5.197  13.535   4.650
54135SOL    HW264303   5.077  13.533   4.558
54136SOL     OW64304   6.538   0.949  12.447
54136SOL    HW164305   6.451   0.918  12.473
54136SOL    HW264306   6.560   1.017  12.511
54137SOL     OW64307   1.953   9.478   4.774
54137SOL    HW164308   1.909   9.394   4.787
54137SOL    HW264309   1.919   9.534   4.844
54138SOL     OW64310   7.895  13.193  10.252
54138SOL    HW164311   7.985  13.216  10.274
54138SOL    HW264312   7.893  13.190  10.156
54139SOL     OW64313   2.799  10.239  10.302
54139SOL    HW164314   2.827  10.166  10.247
54139SOL    HW264315   2.707  10.252  10.279
54140SOL     OW64316  10.639  12.195   5.358
54140SOL    HW164317  10.610  12.145   5.282
54140SOL    HW264318  10.716  12.243   5.327
54141SOL     OW64319   6.907   7.846   7.885
54141SOL    HW164320   6.900   7.924   7.941
54141SOL    HW264321   6.816   7.818   7.872
54142SOL     OW64322  11.074   6.294   5.856
54142SOL    HW164323  11.116   6.300   5.942
54142SOL    HW264324  11.127   6.230   5.808
54143SOL     OW64325  10.206   4.564   7.642
54143SOL    HW164326  10.265   4.501   7.683
54143SOL    HW264327  10.147   4.591   7.713
54144SOL     OW64328  12.475   3.734   0.863
54144SOL    HW164329  12.484   3.774   0.949
54144SOL    HW264330  12.382   3.712   0.857
54145SOL     OW64331  12.497  14.299   6.826
54145SOL    HW164332  12.505  14.274   6.918
54145SOL    HW264333  12.465  14.220   6.783
54146SOL     OW64334  11.869  12.981   1.865
54146SOL    HW164335  11.855  12.966   1.772
54146SOL    HW264336  11.960  12.955   1.881
54147SOL     OW64337   0.710  14.055   7.396
54147SOL    HW164338   0.781  14.103   7.439
54147SOL    HW264339   0.754  13.984   7.350
54148SOL     OW64340  13.268  12.452  12.075
54148SOL    HW164341  13.360  12.454  12.100
54148SOL    HW264342  13.222  12.424  12.154
54149SOL     OW64343   3.572   8.487   2.069
54149SOL    HW164344   3.508   8.490   1.999
54149SOL    HW264345   3.526   8.521   2.146
54150SOL     OW64346   9.780   1.820   4.535
54150SOL    HW164347   9.743   1.908   4.543
54150SOL    HW264348   9.837   1.825   4.458
54151SOL     OW64349  11.938  12.190  13.577
54151SOL    HW164350  11.919  12.256  13.510
54151SOL    HW264351  12.022  12.152  13.550
54152SOL     OW64352   2.160   0.033   2.252
54152SOL    HW164353   2.155   0.070   2.163
54152SOL    HW264354   2.224  14.832   2.245
54153SOL     OW64355  11.484  13.697   2.217
54153SOL    HW164356  11.421  13.656   2.158
54153SOL    HW264357  11.540  13.749   2.159
54154SOL     OW64358   5.280  12.110   1.767
54154SOL    HW164359   5.235  12.026   1.757
54154SOL    HW264360   5.212  12.170   1.797
54155SOL     OW64361  10.319  14.071   9.019
54155SOL    HW164362  10.255  14.117   9.074
54155SOL    HW264363  10.302  14.103   8.931
54156SOL     OW64364   4.330   0.400   3.587
54156SOL    HW164365   4.248   0.438   3.555
54156SOL    HW264366   4.383   0.476   3.611
54157SOL     OW64367   9.780   5.323   9.137
54157SOL    HW164368   9.861   5.368   9.111
54157SOL    HW264369   9.793   5.233   9.109
54158SOL     OW64370   6.445  11.751   3.308
54158SOL    HW164371   6.461  11.702   3.389
54158SOL    HW264372   6.414  11.837   3.337
54159SOL     OW64373  11.103   1.813  14.031
54159SOL    HW164374  11.039   1.883  14.046
54159SOL    HW264375  11.075   1.772  13.950
54160SOL     OW64376  11.474   4.535   5.687
54160SOL    HW164377  11.404   4.599   5.678
54160SOL    HW264378  11.444   4.459   5.637
54161SOL     OW64379   8.695  11.772   1.810
54161SOL    HW164380   8.661  11.860   1.795
54161SOL    HW264381   8.736  11.747   1.727
54162SOL     OW64382   0.778   3.266   0.678
54162SOL    HW164383   0.702   3.309   0.639
54162SOL    HW264384   0.847   3.332   0.677
54163SOL     OW64385   9.421   0.325   0.902
54163SOL    HW164386   9.445   0.253   0.843
54163SOL    HW264387   9.326   0.317   0.913
54164SOL     OW64388   4.595  11.005   2.772
54164SOL    HW164389   4.535  10.990   2.845
54164SOL    HW264390   4.559  10.954   2.700
54165SOL     OW64391   2.582   5.031   8.321
54165SOL    HW164392   2.662   4.982   8.304
54165SOL    HW264393   2.608   5.123   8.316
54166SOL     OW64394  13.819  13.091   3.093
54166SOL    HW164395  13.829  13.000   3.121
54166SOL    HW264396  13.746  13.089   3.030
54167SOL     OW64397   3.176   8.383   2.714
54167SOL    HW164398   3.098   8.438   2.711
54167SOL    HW264399   3.185   8.349   2.625
54168SOL     OW64400  12.218  11.925   8.352
54168SOL    HW164401  12.209  11.964   8.264
54168SOL    HW264402  12.302  11.958   8.383
54169SOL     OW64403   6.079   2.452   0.501
54169SOL    HW164404   6.025   2.375   0.481
54169SOL    HW264405   6.163   2.416   0.529
54170SOL     OW64406  11.358   9.064  11.531
54170SOL    HW164407  11.390   8.976  11.554
54170SOL    HW264408  11.420   9.096  11.466
54171SOL     OW64409  13.696   3.539  12.916
54171SOL    HW164410  13.730   3.451  12.904
54171SOL    HW264411  13.705   3.581  12.831
54172SOL     OW64412  12.324   1.049   9.554
54172SOL    HW164413  12.377   1.089   9.485
54172SOL    HW264414  12.258   1.114   9.575
54173SOL     OW64415   7.974   8.906  10.885
54173SOL    HW164416   7.891   8.876  10.847
54173SOL    HW264417   7.977   8.999  10.866
54174SOL     OW64418  13.788   3.068   5.244
54174SOL    HW164419  13.810   3.154   5.208
54174SOL    HW264420  13.756   3.086   5.332
54175SOL     OW64421   0.465  13.741   9.551
54175SOL    HW164422   0.376  13.774   9.560
54175SOL    HW264423   0.515  13.789   9.617
54176SOL     OW64424   8.304   2.952  13.011
54176SOL    HW164425   8.348   2.876  12.972
54176SOL    HW264426   8.300   2.931  13.105
54177SOL     OW64427   0.106   7.280   3.930
54177SOL    HW164428   0.124   7.365   3.971
54177SOL    HW264429   0.176   7.223   3.963
54178SOL     OW64430   9.860  14.520  11.980
54178SOL    HW164431   9.876  14.585  11.912
54178SOL    HW264432   9.848  14.438  11.933
54179SOL     OW64433   4.414   4.217   3.861
54179SOL    HW164434   4.389   4.308   3.845
54179SOL    HW264435   4.351   4.185   3.925
54180SOL     OW64436   5.564   4.858   4.590
54180SOL    HW164437   5.645   4.817   4.560
54180SOL    HW264438   5.495   4.805   4.551
54181SOL     OW64439   3.569  10.286  12.611
54181SOL    HW164440   3.583  10.252  12.700
54181SOL    HW264441   3.624  10.230  12.556
54182SOL     OW64442   2.017  12.941  13.791
54182SOL    HW164443   1.993  13.003  13.722
54182SOL    HW264444   1.933  12.913  13.827
54183SOL     OW64445   0.057   3.321   7.593
54183SOL    HW164446   0.056   3.299   7.500
54183SOL    HW264447  14.837   3.305   7.623
54184SOL     OW64448   8.935   8.003   9.990
54184SOL    HW164449   8.883   8.060  10.046
54184SOL    HW264450   8.875   7.973   9.923
54185SOL     OW64451   9.190   8.523  14.396
54185SOL    HW164452   9.262   8.586  14.399
54185SOL    HW264453   9.208   8.462  14.467
54186SOL     OW64454   3.184   9.269   5.750
54186SOL    HW164455   3.270   9.309   5.758
54186SOL    HW264456   3.193   9.205   5.679
54187SOL     OW64457  12.060   6.851  13.245
54187SOL    HW164458  12.115   6.924  13.273
54187SOL    HW264459  12.079   6.782  13.309
54188SOL     OW64460   1.887  12.922  12.620
54188SOL    HW164461   1.828  12.987  12.580
54188SOL    HW264462   1.872  12.931  12.714
54189SOL     OW64463   6.299   6.406   1.126
54189SOL    HW164464   6.279   6.404   1.220
54189SOL    HW264465   6.271   6.320   1.093
54190SOL     OW64466   5.189   9.946   2.636
54190SOL    HW164467   5.248  10.013   2.673
54190SOL    HW264468   5.177   9.884   2.707
54191SOL     OW64469   4.086   5.041   9.724
54191SOL    HW164470   4.021   4.982   9.684
54191SOL    HW264471   4.038   5.085   9.794
54192SOL     OW64472   8.553   9.398  14.141
54192SOL    HW164473   8.557   9.304  14.126
54192SOL    HW264474   8.543   9.407  14.235
54193SOL     OW64475   5.978   6.257  12.687
54193SOL    HW164476   6.031   6.179  12.673
54193SOL    HW264477   6.004   6.289  12.773
54194SOL     OW64478   5.417   4.452   6.401
54194SOL    HW164479   5.365   4.404   6.337
54194SOL    HW264480   5.497   4.400   6.410
54195SOL     OW64481   8.137   1.166   7.778
54195SOL    HW164482   8.188   1.161   7.858
54195SOL    HW264483   8.086   1.085   7.776
54196SOL     OW64484  12.200  11.162   0.434
54196SOL    HW164485  12.228  11.236   0.487
54196SOL    HW264486  12.206  11.193   0.344
54197SOL     OW64487   4.305   0.541   1.003
54197SOL    HW164488   4.296   0.629   1.040
54197SOL    HW264489   4.263   0.483   1.067
54198SOL     OW64490   1.731   9.341   8.650
54198SOL    HW164491   1.812   9.297   8.624
54198SOL    HW264492   1.662   9.291   8.606
54199SOL     OW64493   6.644  13.705   5.068
54199SOL    HW164494   6.651  13.799   5.086
54199SOL    HW264495   6.706  13.690   4.996
54200SOL     OW64496  10.467   2.794   6.382
54200SOL    HW164497  10.445   2.701   6.391
54200SOL    HW264498  10.548   2.795   6.331
54201SOL     OW64499  12.489   8.165  12.874
54201SOL    HW164500  12.405   8.133  12.843
54201SOL    HW264501  12.545   8.163  12.796
54202SOL     OW64502   7.802   6.731   2.007
54202SOL    HW164503   7.828   6.798   2.070
54202SOL    HW264504   7.843   6.759   1.925
54203SOL     OW64505   5.555   9.772   0.348
54203SOL    HW164506   5.475   9.778   0.400
54203SOL    HW264507   5.577   9.678   0.349
54204SOL     OW64508  11.580   6.284   7.611
54204SOL    HW164509  11.575   6.264   7.517
54204SOL    HW264510  11.668   6.317   7.624
54205SOL     OW64511  13.337   3.325   1.741
54205SOL    HW164512  13.357   3.295   1.652
54205SOL    HW264513  13.244   3.305   1.752
54206SOL     OW64514  11.152  11.953  13.223
54206SOL    HW164515  11.146  11.882  13.288
54206SOL    HW264516  11.062  11.984  13.213
54207SOL     OW64517   8.837  10.431   2.924
54207SOL    HW164518   8.806  10.405   3.010
54207SOL    HW264519   8.806  10.521   2.913
54208SOL     OW64520   4.774   6.727   7.661
54208SOL    HW164521   4.783   6.820   7.641
54208SOL    HW264522   4.724   6.724   7.742
54209SOL     OW64523   1.138  12.201   1.536
54209SOL    HW164524   1.176  12.287   1.558
54209SOL    HW264525   1.085  12.178   1.612
54210SOL     OW64526   8.647   2.730   8.434
54210SOL    HW164527   8.635   2.818   8.468
54210SOL    HW264528   8.603   2.730   8.349
54211SOL     OW64529   0.754   5.581   0.055
54211SOL    HW164530   0.830   5.639   0.050
54211SOL    HW264531   0.678   5.640   0.047
54212SOL     OW64532   6.518   8.562   0.057
54212SOL    HW164533   6.486   8.563  14.837
54212SOL    HW264534   6.535   8.654   0.078
54213SOL     OW64535  10.994  14.293   8.779
54213SOL    HW164536  11.023  14.380   8.751
54213SOL    HW264537  11.051  14.270   8.852
54214SOL     OW64538   1.964  12.543   2.127
54214SOL    HW164539   2.051  12.556   2.163
54214SOL    HW264540   1.978  12.521   2.035
54215SOL     OW64541   3.472   0.066  13.525
54215SOL    HW164542   3.452  14.852  13.567
54215SOL    HW264543   3.548   0.098  13.573
54216SOL     OW64544   1.734  13.249   5.768
54216SOL    HW164545   1.792  13.179   5.799
54216SOL    HW264546   1.646  13.214   5.781
54217SOL     OW64547   0.462  13.192   6.399
54217SOL    HW164548   0.462  13.209   6.493
54217SOL    HW264549   0.480  13.276   6.359
54218SOL     OW64550  11.761  12.705   5.921
54218SOL    HW164551  11.794  12.673   6.005
54218SOL    HW264552  11.666  12.694   5.927
54219SOL     OW64553  13.594  10.670  12.954
54219SOL    HW164554  13.522  10.733  12.961
54219SOL    HW264555  13.671  10.724  12.940
54220SOL     OW64556   0.719  14.360   7.305
54220SOL    HW164557   0.654  14.415   7.261
54220SOL    HW264558   0.750  14.301   7.236
54221SOL     OW64559   0.866   5.369   7.388
54221SOL    HW164560   0.874   5.330   7.475
54221SOL    HW264561   0.954   5.365   7.351
54222SOL     OW64562   4.624   3.172  12.843
54222SOL    HW164563   4.668   3.146  12.762
54222SOL    HW264564   4.558   3.236  12.815
54223SOL     OW64565  14.621   9.838   9.738
54223SOL    HW164566  14.673   9.831   9.818
54223SOL    HW264567  14.668   9.785   9.673
54224SOL     OW64568   9.378   1.093   4.485
54224SOL    HW164569   9.402   1.121   4.397
54224SOL    HW264570   9.356   1.000   4.476
54225SOL     OW64571  14.837  11.799  13.616
54225SOL    HW164572  14.856  11.713  13.652
54225SOL    HW264573   0.038  11.855  13.649
54226SOL     OW64574   1.781   2.912  11.287
54226SOL    HW164575   1.788   2.854  11.211
54226SOL    HW264576   1.822   2.993  11.258
54227SOL     OW64577   6.873   0.151  12.524
54227SOL    HW164578   6.945   0.206  12.554
54227SOL    HW264579   6.915   0.069  12.496
54228SOL     OW64580   1.614  12.092   4.794
54228SOL    HW164581   1.658  12.119   4.713
54228SOL    HW264582   1.553  12.164   4.812
54229SOL     OW64583  11.716   6.205  12.680
54229SOL    HW164584  11.657   6.185  12.607
54229SOL    HW264585  11.657   6.217  12.755
54230SOL     OW64586   7.866  12.801   5.454
54230SOL    HW164587   7.905  12.880   5.415
54230SOL    HW264588   7.794  12.778   5.394
54231SOL     OW64589   7.739  12.717   5.177
54231SOL    HW164590   7.816  12.734   5.123
54231SOL    HW264591   7.666  12.750   5.125
54232SOL     OW64592   0.738  13.700   6.242
54232SOL    HW164593   0.782  13.761   6.183
54232SOL    HW264594   0.668  13.663   6.190
54233SOL     OW64595  13.009   2.729  14.214
54233SOL    HW164596  13.100   2.751  14.233
54233SOL    HW264597  12.996   2.758  14.124
54234SOL     OW64598  12.301  11.923   3.765
54234SOL    HW164599  12.368  11.900   3.831
54234SOL    HW264600  12.281  12.015   3.783
54235SOL     OW64601   4.694   8.442  11.337
54235SOL    HW164602   4.645   8.508  11.287
54235SOL    HW264603   4.633   8.369  11.346
54236SOL     OW64604   7.375   9.199  14.418
54236SOL    HW164605   7.371   9.117  14.468
54236SOL    HW264606   7.414   9.262  14.478
54237SOL     OW64607   4.522   8.208  11.311
54237SOL    HW164608   4.513   8.113  11.312
54237SOL    HW264609   4.432   8.241  11.317
54238SOL     OW64610   6.546   5.003   5.881
54238SOL    HW164611   6.599   4.925   5.863
54238SOL    HW264612   6.486   4.975   5.950
54239SOL     OW64613   0.398   6.552  14.307
54239SOL    HW164614   0.374   6.511  14.224
54239SOL    HW264615   0.464   6.617  14.283
54240SOL     OW64616   0.426  11.408  13.593
54240SOL    HW164617   0.438  11.493  13.635
54240SOL    HW264618   0.514  11.382  13.566
54241SOL     OW64619  13.386   1.423   9.545
54241SOL    HW164620  13.347   1.360   9.605
54241SOL    HW264621  13.480   1.405   9.549
54242SOL     OW64622  13.176   4.457  12.587
54242SOL    HW164623  13.222   4.402  12.649
54242SOL    HW264624  13.084   4.429  12.593
54243SOL     OW64625  13.425   0.779   2.737
54243SOL    HW164626  13.480   0.700   2.735
54243SOL    HW264627  13.432   0.816   2.649
54244SOL     OW64628  14.463   8.177   0.860
54244SOL    HW164629  14.402   8.104   0.850
54244SOL    HW264630  14.547   8.136   0.878
54245SOL     OW64631  12.457   3.238   2.798
54245SOL    HW164632  12.364   3.218   2.787
54245SOL    HW264633  12.463   3.281   2.883
54246SOL     OW64634  12.838   5.554  12.307
54246SOL    HW164635  12.889   5.505  12.371
54246SOL    HW264636  12.809   5.488  12.243
54247SOL     OW64637   4.834   8.934  11.685
54247SOL    HW164638   4.758   8.880  11.665
54247SOL    HW264639   4.881   8.941  11.601
54248SOL     OW64640   3.323   9.605   6.532
54248SOL    HW164641   3.307   9.580   6.623
54248SOL    HW264642   3.412   9.638   6.531
54249SOL     OW64643  11.195  11.525   4.151
54249SOL    HW164644  11.279  11.482   4.166
54249SOL    HW264645  11.134  11.453   4.134
54250SOL     OW64646  12.712   4.158   6.357
54250SOL    HW164647  12.772   4.117   6.295
54250SOL    HW264648  12.712   4.250   6.333
54251SOL     OW64649   0.498   2.924  12.601
54251SOL    HW164650   0.496   3.005  12.550
54251SOL    HW264651   0.427   2.871  12.566
54252SOL     OW64652   0.282  13.270   7.001
54252SOL    HW164653   0.270  13.350   6.949
54252SOL    HW264654   0.315  13.206   6.938
54253SOL     OW64655  14.025   9.312   1.312
54253SOL    HW164656  13.957   9.258   1.273
54253SOL    HW264657  13.998   9.402   1.295
54254SOL     OW64658   3.773  11.550  13.779
54254SOL    HW164659   3.798  11.492  13.852
54254SOL    HW264660   3.836  11.622  13.783
54255SOL     OW64661   4.087  14.369   8.414
54255SOL    HW164662   4.095  14.459   8.383
54255SOL    HW264663   4.147  14.319   8.358
54256SOL     OW64664   8.428   5.512  13.642
54256SOL    HW164665   8.362   5.572  13.676
54256SOL    HW264666   8.485   5.495  13.716
54257SOL     OW64667   8.184   6.864   5.107
54257SOL    HW164668   8.279   6.855   5.094
54257SOL    HW264669   8.174   6.878   5.201
54258SOL     OW64670   1.079   2.339  10.840
54258SOL    HW164671   1.105   2.430  10.849
54258SOL    HW264672   1.061   2.329  10.746
54259SOL     OW64673   6.148   3.569   5.907
54259SOL    HW164674   6.156   3.576   6.002
54259SOL    HW264675   6.079   3.632   5.885
54260SOL     OW64676   6.063   2.112   7.285
54260SOL    HW164677   6.083   2.137   7.375
54260SOL    HW264678   6.112   2.173   7.231
54261SOL     OW64679   7.253   5.262  10.810
54261SOL    HW164680   7.245   5.247  10.904
54261SOL    HW264681   7.229   5.354  10.798
54262SOL     OW64682   6.218   2.060   1.181
54262SOL    HW164683   6.211   2.119   1.106
54262SOL    HW264684   6.139   2.077   1.232
54263SOL     OW64685   4.647  11.703  14.658
54263SOL    HW164686   4.621  11.706  14.750
54263SOL    HW264687   4.665  11.794  14.635
54264SOL     OW64688   6.855   3.572   8.576
54264SOL    HW164689   6.913   3.649   8.572
54264SOL    HW264690   6.859   3.535   8.488
54265SOL     OW64691  14.259   3.141  11.536
54265SOL    HW164692  14.250   3.054  11.574
54265SOL    HW264693  14.179   3.153  11.485
54266SOL     OW64694  10.169   1.511   0.858
54266SOL    HW164695  10.206   1.422   0.856
54266SOL    HW264696  10.077   1.498   0.877
54267SOL     OW64697  12.288   5.136   7.273
54267SOL    HW164698  12.358   5.124   7.209
54267SOL    HW264699  12.330   5.127   7.358
54268SOL     OW64700   1.170   8.996   6.457
54268SOL    HW164701   1.103   8.951   6.406
54268SOL    HW264702   1.240   9.015   6.394
54269SOL     OW64703   1.136   0.247  13.134
54269SOL    HW164704   1.056   0.299  13.124
54269SOL    HW264705   1.204   0.300  13.093
54270SOL     OW64706  11.011   9.815   0.146
54270SOL    HW164707  10.956   9.782   0.075
54270SOL    HW264708  10.951   9.863   0.203
54271SOL     OW64709   7.391  10.275   2.609
54271SOL    HW164710   7.351  10.342   2.554
54271SOL    HW264711   7.326  10.258   2.677
54272SOL     OW64712   9.129   8.422   4.231
54272SOL    HW164713   9.153   8.443   4.321
54272SOL    HW264714   9.073   8.494   4.204
54273SOL     OW64715   8.717   9.723   3.020
54273SOL    HW164716   8.721   9.708   3.114
54273SOL    HW264717   8.801   9.690   2.986
54274SOL     OW64718   2.641   1.363   6.138
54274SOL    HW164719   2.586   1.434   6.105
54274SOL    HW264720   2.584   1.285   6.135
54275SOL     OW64721   7.317  12.782  12.084
54275SOL    HW164722   7.308  12.706  12.141
54275SOL    HW264723   7.271  12.852  12.130
54276SOL     OW64724  13.088  10.524   5.860
54276SOL    HW164725  13.104  10.544   5.768
54276SOL    HW264726  12.994  10.535   5.871
54277SOL     OW64727   6.209  12.676  12.462
54277SOL    HW164728   6.289  12.713  12.499
54277SOL    HW264729   6.145  12.681  12.534
54278SOL     OW64730   0.436   6.007   9.053
54278SOL    HW164731   0.442   5.957   9.135
54278SOL    HW264732   0.501   6.076   9.062
54279SOL     OW64733  10.113   7.625  14.527
54279SOL    HW164734  10.040   7.602  14.585
54279SOL    HW264735  10.186   7.640  14.586
54280SOL     OW64736  11.108   9.049   6.271
54280SOL    HW164737  11.062   9.088   6.197
54280SOL    HW264738  11.199   9.042   6.242
54281SOL     OW64739   1.706  10.006   0.737
54281SOL    HW164740   1.789   9.959   0.748
54281SOL    HW264741   1.645   9.960   0.795
54282SOL     OW64742   7.739  10.835   4.843
54282SOL    HW164743   7.767  10.819   4.933
54282SOL    HW264744   7.702  10.923   4.844
54283SOL     OW64745   6.207  14.741   6.022
54283SOL    HW164746   6.215  14.681   5.947
54283SOL    HW264747   6.120  14.779   6.012
54284SOL     OW64748   6.258   9.134   8.968
54284SOL    HW164749   6.278   9.049   8.930
54284SOL    HW264750   6.275   9.123   9.062
54285SOL     OW64751   6.735  13.777   1.378
54285SOL    HW164752   6.777  13.862   1.392
54285SOL    HW264753   6.705  13.750   1.464
54286SOL     OW64754   2.160   3.970  12.374
54286SOL    HW164755   2.122   3.975  12.286
54286SOL    HW264756   2.252   3.946  12.359
54287SOL     OW64757   2.991   0.594   1.725
54287SOL    HW164758   3.078   0.598   1.763
54287SOL    HW264759   2.974   0.500   1.715
54288SOL     OW64760   7.373  12.112  13.725
54288SOL    HW164761   7.369  12.207  13.733
54288SOL    HW264762   7.463  12.094  13.696
54289SOL     OW64763   8.045   0.789   2.833
54289SOL    HW164764   7.985   0.837   2.776
54289SOL    HW264765   7.991   0.723   2.875
54290SOL     OW64766   8.070   7.761   1.207
54290SOL    HW164767   8.106   7.696   1.146
54290SOL    HW264768   7.985   7.785   1.170
54291SOL     OW64769   2.609  11.426   9.472
54291SOL    HW164770   2.574  11.453   9.386
54291SOL    HW264771   2.665  11.499   9.499
54292SOL     OW64772   8.634   9.891  11.227
54292SOL    HW164773   8.678   9.910  11.144
54292SOL    HW264774   8.542   9.884  11.204
54293SOL     OW64775   7.886  10.739   5.069
54293SOL    HW164776   7.805  10.696   5.096
54293SOL    HW264777   7.950  10.668   5.063
54294SOL     OW64778   0.679   5.462   9.764
54294SOL    HW164779   0.645   5.423   9.844
54294SOL    HW264780   0.612   5.444   9.698
54295SOL     OW64781   2.322   7.153  12.800
54295SOL    HW164782   2.246   7.188  12.753
54295SOL    HW264783   2.320   7.197  12.885
54296SOL     OW64784  12.266   5.862   2.889
54296SOL    HW164785  12.259   5.885   2.796
54296SOL    HW264786  12.175   5.861   2.920
54297SOL     OW64787   9.622   6.043   8.190
54297SOL    HW164788   9.575   5.970   8.231
54297SOL    HW264789   9.665   6.087   8.263
54298SOL     OW64790   6.846  13.754  10.046
54298SOL    HW164791   6.875  13.842  10.067
54298SOL    HW264792   6.865  13.702  10.124
54299SOL     OW64793   6.595  14.020   8.107
54299SOL    HW164794   6.511  14.061   8.085
54299SOL    HW264795   6.587  14.000   8.201
54300SOL     OW64796   3.529  10.671   1.675
54300SOL    HW164797   3.603  10.694   1.619
54300SOL    HW264798   3.452  10.697   1.624
54301SOL     OW64799   8.438   2.832   5.950
54301SOL    HW164800   8.442   2.919   5.909
54301SOL    HW264801   8.351   2.830   5.990
54302SOL     OW64802   9.885   5.698  14.819
54302SOL    HW164803   9.968   5.729  14.858
54302SOL    HW264804   9.863   5.619  14.869
54303SOL     OW64805  11.421   5.273  10.329
54303SOL    HW164806  11.428   5.358  10.372
54303SOL    HW264807  11.462   5.285  10.244
54304SOL     OW64808   7.229   8.818  13.051
54304SOL    HW164809   7.276   8.850  13.128
54304SOL    HW264810   7.246   8.724  13.049
54305SOL     OW64811   4.460   4.338  13.419
54305SOL    HW164812   4.380   4.390  13.429
54305SOL    HW264813   4.522   4.397  13.378
54306SOL     OW64814  10.350  13.266   7.553
54306SOL    HW164815  10.278  13.290   7.494
54306SOL    HW264816  10.351  13.171   7.551
54307SOL     OW64817  14.484  10.572   7.392
54307SOL    HW164818  14.479  10.528   7.477
54307SOL    HW264819  14.415  10.532   7.339
54308SOL     OW64820   7.691  10.425  12.513
54308SOL    HW164821   7.603  10.454  12.490
54308SOL    HW264822   7.686  10.406  12.606
54309SOL     OW64823   4.436   2.527   3.583
54309SOL    HW164824   4.438   2.598   3.518
54309SOL    HW264825   4.351   2.485   3.570
54310SOL     OW64826   9.361  13.568   3.218
54310SOL    HW164827   9.410  13.512   3.279
54310SOL    HW264828   9.377  13.529   3.132
54311SOL     OW64829   1.775   5.934  14.720
54311SOL    HW164830   1.715   6.001  14.685
54311SOL    HW264831   1.729   5.898  14.795
54312SOL     OW64832  12.822   0.701   2.689
54312SOL    HW164833  12.780   0.787   2.684
54312SOL    HW264834  12.831   0.673   2.598
54313SOL     OW64835   3.394  13.489  11.156
54313SOL    HW164836   3.429  13.572  11.189
54313SOL    HW264837   3.445  13.422  11.202
54314SOL     OW64838  11.866   8.786  11.748
54314SOL    HW164839  11.952   8.828  11.756
54314SOL    HW264840  11.864   8.751  11.660
54315SOL     OW64841  12.665  11.395  10.103
54315SOL    HW164842  12.755  11.425  10.091
54315SOL    HW264843  12.613  11.450  10.045
54316SOL     OW64844   8.818   9.801  11.633
54316SOL    HW164845   8.797   9.878  11.581
54316SOL    HW264846   8.909   9.815  11.661
54317SOL     OW64847   8.269   9.947   8.762
54317SOL    HW164848   8.360   9.917   8.753
54317SOL    HW264849   8.244   9.973   8.673
54318SOL     OW64850   3.189   9.425   9.614
54318SOL    HW164851   3.185   9.517   9.586
54318SOL    HW264852   3.242   9.382   9.547
54319SOL     OW64853   2.939  11.978   5.480
54319SOL    HW164854   3.033  11.989   5.489
54319SOL    HW264855   2.905  11.988   5.569
54320SOL     OW64856  13.070   7.295   3.987
54320SOL    HW164857  13.152   7.265   3.950
54320SOL    HW264858  13.021   7.329   3.912
54321SOL     OW64859   7.466   2.792   2.339
54321SOL    HW164860   7.396   2.758   2.284
54321SOL    HW264861   7.546   2.752   2.304
54322SOL     OW64862   1.842   3.033   4.649
54322SOL    HW164863   1.806   3.031   4.738
54322SOL    HW264864   1.818   2.948   4.612
54323SOL     OW64865  14.256   5.646   8.260
54323SOL    HW164866  14.311   5.621   8.186
54323SOL    HW264867  14.168   5.620   8.235
54324SOL     OW64868  11.923   3.406   3.746
54324SOL    HW164869  11.829   3.408   3.765
54324SOL    HW264870  11.965   3.421   3.831
54325SOL     OW64871   4.523   9.213  10.524
54325SOL    HW164872   4.461   9.188  10.455
54325SOL    HW264873   4.557   9.298  10.495
54326SOL     OW64874  10.646   0.965  10.162
54326SOL    HW164875  10.661   0.939  10.252
54326SOL    HW264876  10.721   1.020  10.139
54327SOL     OW64877   0.778   3.062   1.950
54327SOL    HW164878   0.721   3.115   1.895
54327SOL    HW264879   0.725   3.044   2.028
54328SOL     OW64880  13.534   3.117   9.654
54328SOL    HW164881  13.546   3.165   9.572
54328SOL    HW264882  13.501   3.183   9.716
54329SOL     OW64883   6.071   6.984  13.545
54329SOL    HW164884   6.032   6.977  13.633
54329SOL    HW264885   6.147   6.927  13.548
54330SOL     OW64886   5.170  11.983  12.832
54330SOL    HW164887   5.174  12.020  12.743
54330SOL    HW264888   5.206  12.052  12.887
54331SOL     OW64889   4.449  14.398   3.895
54331SOL    HW164890   4.417  14.352   3.817
54331SOL    HW264891   4.495  14.474   3.860
54332SOL     OW64892   8.452   8.723  11.594
54332SOL    HW164893   8.464   8.792  11.659
54332SOL    HW264894   8.358   8.719  11.580
54333SOL     OW64895   3.204   1.973   2.177
54333SOL    HW164896   3.127   1.996   2.126
54333SOL    HW264897   3.267   2.044   2.159
54334SOL     OW64898   3.870   0.240  10.797
54334SOL    HW164899   3.965   0.243  10.796
54334SOL    HW264900   3.843   0.319  10.843
54335SOL     OW64901   2.462   5.566   6.712
54335SOL    HW164902   2.454   5.494   6.774
54335SOL    HW264903   2.543   5.610   6.737
54336SOL     OW64904  10.655   7.954   0.975
54336SOL    HW164905  10.701   7.872   0.961
54336SOL    HW264906  10.681   8.009   0.900
54337SOL     OW64907   6.266  10.245  11.088
54337SOL    HW164908   6.360  10.263  11.092
54337SOL    HW264909   6.258  10.151  11.105
54338SOL     OW64910   4.888  13.694  12.288
54338SOL    HW164911   4.954  13.738  12.343
54338SOL    HW264912   4.881  13.749  12.210
54339SOL     OW64913  13.195  10.700   2.158
54339SOL    HW164914  13.207  10.764   2.088
54339SOL    HW264915  13.165  10.621   2.113
54340SOL     OW64916   4.261   4.865   6.917
54340SOL    HW164917   4.261   4.829   7.006
54340SOL    HW264918   4.245   4.958   6.929
54341SOL     OW64919   4.683  10.963   3.201
54341SOL    HW164920   4.722  10.876   3.213
54341SOL    HW264921   4.680  10.974   3.106
54342SOL     OW64922   0.667   5.801   8.838
54342SOL    HW164923   0.682   5.717   8.795
54342SOL    HW264924   0.693   5.867   8.774
54343SOL     OW64925   5.202   4.751   9.746
54343SOL    HW164926   5.253   4.746   9.666
54343SOL    HW264927   5.195   4.661   9.777
54344SOL     OW64928  12.238  10.267  11.800
54344SOL    HW164929  12.180  10.266  11.724
54344SOL    HW264930  12.227  10.181  11.840
54345SOL     OW64931  10.050  11.632   4.708
54345SOL    HW164932  10.133  11.624   4.755
54345SOL    HW264933  10.067  11.594   4.622
54346SOL     OW64934  10.762   1.823   1.853
54346SOL    HW164935  10.762   1.748   1.793
54346SOL    HW264936  10.734   1.786   1.937
54347SOL     OW64937   7.275  10.125   9.558
54347SOL    HW164938   7.312  10.142   9.645
54347SOL    HW264939   7.180  10.127   9.571
54348SOL     OW64940   6.873  14.773   7.773
54348SOL    HW164941   6.939  14.715   7.734
54348SOL    HW264942   6.914  14.805   7.854
54349SOL     OW64943   0.666  12.060  13.846
54349SOL    HW164944   0.750  12.101  13.866
54349SOL    HW264945   0.673  12.034  13.754
54350SOL     OW64946   9.544   1.388  14.239
54350SOL    HW164947   9.577   1.422  14.321
54350SOL    HW264948   9.506   1.463  14.195
54351SOL     OW64949  13.061  10.933   6.906
54351SOL    HW164950  13.023  10.896   6.825
54351SOL    HW264951  13.155  10.919   6.896
54352SOL     OW64952  13.357   8.139   1.051
54352SOL    HW164953  13.411   8.160   0.975
54352SOL    HW264954  13.382   8.050   1.074
54353SOL     OW64955  11.438  14.713   5.630
54353SOL    HW164956  11.438  14.668   5.546
54353SOL    HW264957  11.474  14.800   5.610
54354SOL     OW64958  12.547   7.155   9.804
54354SOL    HW164959  12.541   7.143   9.709
54354SOL    HW264960  12.457   7.166   9.833
54355SOL     OW64961   0.151  12.564  11.820
54355SOL    HW164962   0.085  12.557  11.751
54355SOL    HW264963   0.218  12.622  11.783
54356SOL     OW64964   4.329   7.599  11.667
54356SOL    HW164965   4.424   7.599  11.655
54356SOL    HW264966   4.301   7.687  11.643
54357SOL     OW64967   1.884   4.038   9.141
54357SOL    HW164968   1.957   4.076   9.191
54357SOL    HW264969   1.905   3.945   9.136
54358SOL     OW64970   9.584   3.007   5.376
54358SOL    HW164971   9.489   3.015   5.373
54358SOL    HW264972   9.610   3.056   5.454
54359SOL     OW64973   6.719   8.795  12.327
54359SOL    HW164974   6.793   8.752  12.285
54359SOL    HW264975   6.751   8.816  12.415
54360SOL     OW64976   6.954  11.116   7.665
54360SOL    HW164977   6.862  11.089   7.663
54360SOL    HW264978   6.987  11.093   7.579
54361SOL     OW64979   4.193   7.612   4.908
54361SOL    HW164980   4.263   7.549   4.890
54361SOL    HW264981   4.238   7.695   4.921
54362SOL     OW64982  14.595   3.751   2.576
54362SOL    HW164983  14.609   3.657   2.572
54362SOL    HW264984  14.681   3.788   2.595
54363SOL     OW64985   0.969  14.025   2.605
54363SOL    HW164986   0.964  13.994   2.514
54363SOL    HW264987   1.060  14.049   2.618
54364SOL     OW64988   5.569   6.759  12.576
54364SOL    HW164989   5.581   6.726  12.487
54364SOL    HW264990   5.625   6.703  12.630
54365SOL     OW64991   9.522  12.885   8.635
54365SOL    HW164992   9.474  12.918   8.710
54365SOL    HW264993   9.458  12.832   8.586
54366SOL     OW64994  14.806   9.522   7.215
54366SOL    HW164995   0.003   9.547   7.278
54366SOL    HW264996  14.762   9.604   7.192
54367SOL     OW64997   0.275  11.436   6.106
54367SOL    HW164998   0.192  11.442   6.060
54367SOL    HW264999   0.251  11.435   6.199
54368SOL     OW65000   1.456  14.466   3.247
54368SOL    HW165001   1.450  14.561   3.256
54368SOL    HW265002   1.406  14.431   3.320
54369SOL     OW65003   1.302  12.452   3.668
54369SOL    HW165004   1.300  12.463   3.573
54369SOL    HW265005   1.235  12.386   3.686
54370SOL     OW65006   4.498   1.904   0.863
54370SOL    HW165007   4.505   1.950   0.946
54370SOL    HW265008   4.422   1.847   0.873
54371SOL     OW65009   4.695   7.027   6.775
54371SOL    HW165010   4.779   6.999   6.740
54371SOL    HW265011   4.702   7.122   6.782
54372SOL     OW65012   4.207   4.536   4.537
54372SOL    HW165013   4.288   4.575   4.505
54372SOL    HW265014   4.189   4.464   4.477
54373SOL     OW65015   7.254  13.606   4.760
54373SOL    HW165016   7.162  13.583   4.775
54373SOL    HW265017   7.270  13.583   4.669
54374SOL     OW65018   3.433  12.701   5.905
54374SOL    HW165019   3.437  12.760   5.980
54374SOL    HW265020   3.340  12.683   5.894
54375SOL     OW65021   3.070  14.373  12.762
54375SOL    HW165022   3.115  14.394  12.679
54375SOL    HW265023   3.141  14.359  12.824
54376SOL     OW65024  13.708  10.317   7.133
54376SOL    HW165025  13.704  10.241   7.192
54376SOL    HW265026  13.666  10.287   7.052
54377SOL     OW65027   3.296   9.208   9.905
54377SOL    HW165028   3.390   9.188   9.897
54377SOL    HW265029   3.288   9.299   9.875
54378SOL     OW65030   1.378   5.023   0.854
54378SOL    HW165031   1.381   4.985   0.766
54378SOL    HW265032   1.343   4.954   0.910
54379SOL     OW65033  12.934   2.294   7.895
54379SOL    HW165034  12.844   2.322   7.878
54379SOL    HW265035  12.985   2.335   7.824
54380SOL     OW65036   7.117   1.094   9.283
54380SOL    HW165037   7.107   1.180   9.323
54380SOL    HW265038   7.029   1.056   9.285
54381SOL     OW65039  10.297  14.281   6.607
54381SOL    HW165040  10.233  14.266   6.677
54381SOL    HW265041  10.248  14.322   6.537
54382SOL     OW65042   0.773   6.408  10.641
54382SOL    HW165043   0.773   6.487  10.696
54382SOL    HW265044   0.798   6.440  10.555
54383SOL     OW65045  10.483  11.790   4.601
54383SOL    HW165046  10.515  11.773   4.690
54383SOL    HW265047  10.391  11.814   4.614
54384SOL     OW65048   6.615   9.516   6.172
54384SOL    HW165049   6.681   9.513   6.241
54384SOL    HW265050   6.531   9.507   6.218
54385SOL     OW65051  11.636   8.787  11.098
54385SOL    HW165052  11.565   8.816  11.155
54385SOL    HW265053  11.626   8.840  11.019
54386SOL     OW65054  14.669  13.000  14.209
54386SOL    HW165055  14.757  13.038  14.201
54386SOL    HW265056  14.684  12.906  14.210
54387SOL     OW65057  14.288  14.379  13.199
54387SOL    HW165058  14.216  14.358  13.139
54387SOL    HW265059  14.348  14.305  13.190
54388SOL     OW65060  10.673  12.825   9.487
54388SOL    HW165061  10.585  12.821   9.524
54388SOL    HW265062  10.660  12.848   9.395
54389SOL     OW65063   5.394   5.496   4.140
54389SOL    HW165064   5.461   5.505   4.071
54389SOL    HW265065   5.432   5.542   4.215
54390SOL     OW65066   8.160   4.034  12.045
54390SOL    HW165067   8.118   4.034  12.131
54390SOL    HW265068   8.171   4.127  12.024
54391SOL     OW65069   3.437   8.036   5.324
54391SOL    HW165070   3.352   8.046   5.367
54391SOL    HW265071   3.439   7.945   5.295
54392SOL     OW65072   9.181   0.053   7.442
54392SOL    HW165073   9.090   0.074   7.462
54392SOL    HW265074   9.230   0.080   7.520
54393SOL     OW65075  10.565  13.807  10.891
54393SOL    HW165076  10.477  13.788  10.925
54393SOL    HW265077  10.610  13.849  10.965
54394SOL     OW65078  11.025   0.837   1.966
54394SOL    HW165079  11.097   0.837   2.029
54394SOL    HW265080  10.970   0.763   1.992
54395SOL     OW65081  14.787   5.609   3.539
54395SOL    HW165082  14.703   5.580   3.505
54395SOL    HW265083  14.815   5.539   3.598
54396SOL     OW65084   7.001   3.667   9.404
54396SOL    HW165085   7.072   3.708   9.453
54396SOL    HW265086   7.038   3.653   9.317
54397SOL     OW65087   7.545   4.996   0.418
54397SOL    HW165088   7.637   4.983   0.393
54397SOL    HW265089   7.518   5.073   0.369
54398SOL     OW65090   4.189   2.718  10.585
54398SOL    HW165091   4.100   2.694  10.557
54398SOL    HW265092   4.208   2.798  10.537
54399SOL     OW65093   3.509   6.016   2.187
54399SOL    HW165094   3.598   6.037   2.217
54399SOL    HW265095   3.473   6.100   2.158
54400SOL     OW65096   2.952   4.997   8.435
54400SOL    HW165097   2.998   4.967   8.513
54400SOL    HW265098   2.966   4.927   8.371
54401SOL     OW65099   4.826   1.036   8.895
54401SOL    HW165100   4.811   0.984   8.817
54401SOL    HW265101   4.820   1.127   8.865
54402SOL     OW65102  13.337  13.409  12.099
54402SOL    HW165103  13.270  13.343  12.080
54402SOL    HW265104  13.298  13.463  12.169
54403SOL     OW65105   9.275   8.062   0.870
54403SOL    HW165106   9.357   8.044   0.915
54403SOL    HW265107   9.215   8.090   0.939
54404SOL     OW65108   3.930   3.396   3.448
54404SOL    HW165109   3.949   3.374   3.540
54404SOL    HW265110   3.898   3.314   3.411
54405SOL     OW65111  10.359  11.476   8.198
54405SOL    HW165112  10.352  11.566   8.230
54405SOL    HW265113  10.424  11.480   8.128
54406SOL     OW65114   5.148  12.053   5.827
54406SOL    HW165115   5.081  12.099   5.877
54406SOL    HW265116   5.199  12.124   5.787
54407SOL     OW65117  12.221   8.920   2.348
54407SOL    HW165118  12.192   8.932   2.439
54407SOL    HW265119  12.172   8.843   2.317
54408SOL     OW65120   2.888   5.313   9.223
54408SOL    HW165121   2.979   5.329   9.248
54408SOL    HW265122   2.876   5.361   9.142
54409SOL     OW65123   1.252   6.676  12.777
54409SOL    HW165124   1.309   6.750  12.756
54409SOL    HW265125   1.214   6.650  12.693
54410SOL     OW65126   4.898   7.113   6.396
54410SOL    HW165127   4.950   7.180   6.439
54410SOL    HW265128   4.940   7.030   6.419
54411SOL     OW65129  13.197   7.710   3.492
54411SOL    HW165130  13.280   7.688   3.535
54411SOL    HW265131  13.221   7.767   3.419
54412SOL     OW65132   5.201  10.315   2.896
54412SOL    HW165133   5.120  10.265   2.897
54412SOL    HW265134   5.214  10.338   2.804
54413SOL     OW65135   0.898   4.181   6.352
54413SOL    HW165136   0.804   4.169   6.345
54413SOL    HW265137   0.911   4.217   6.440
54414SOL     OW65138   6.689  11.566   4.459
54414SOL    HW165139   6.599  11.577   4.428
54414SOL    HW265140   6.696  11.473   4.481
54415SOL     OW65141   7.379   9.682  10.030
54415SOL    HW165142   7.320   9.695   9.956
54415SOL    HW265143   7.343   9.606  10.077
54416SOL     OW65144   4.899   5.217  12.242
54416SOL    HW165145   4.963   5.274  12.284
54416SOL    HW265146   4.870   5.267  12.166
54417SOL     OW65147   8.513  12.958   2.265
54417SOL    HW165148   8.585  12.896   2.260
54417SOL    HW265149   8.547  13.038   2.225
54418SOL     OW65150   9.054   3.730   3.694
54418SOL    HW165151   9.107   3.703   3.619
54418SOL    HW265152   9.105   3.800   3.735
54419SOL     OW65153   1.142   0.566   3.737
54419SOL    HW165154   1.197   0.505   3.688
54419SOL    HW265155   1.065   0.515   3.763
54420SOL     OW65156  14.649   0.747  12.178
54420SOL    HW165157  14.731   0.734  12.226
54420SOL    HW265158  14.611   0.826  12.215
54421SOL     OW65159   0.947   4.145  10.822
54421SOL    HW165160   0.924   4.210  10.889
54421SOL    HW265161   1.039   4.164  10.800
54422SOL     OW65162   7.822  12.844   9.269
54422SOL    HW165163   7.830  12.783   9.343
54422SOL    HW265164   7.893  12.818   9.209
54423SOL     OW65165  12.389   8.968   6.859
54423SOL    HW165166  12.297   8.958   6.836
54423SOL    HW265167  12.396   9.058   6.892
54424SOL     OW65168  13.981   9.790  13.214
54424SOL    HW165169  14.014   9.791  13.124
54424SOL    HW265170  14.036   9.726  13.259
54425SOL     OW65171  11.030  14.178   0.692
54425SOL    HW165172  10.989  14.105   0.647
54425SOL    HW265173  11.114  14.189   0.649
54426SOL     OW65174   4.162   8.949  14.453
54426SOL    HW165175   4.164   9.019  14.387
54426SOL    HW265176   4.226   8.885  14.421
54427SOL     OW65177  10.116  12.173   0.201
54427SOL    HW165178  10.127  12.090   0.155
54427SOL    HW265179  10.028  12.202   0.177
54428SOL     OW65180   6.832  14.475   7.425
54428SOL    HW165181   6.926  14.479   7.411
54428SOL    HW265182   6.820  14.407   7.491
54429SOL     OW65183   5.925   1.407   6.817
54429SOL    HW165184   5.922   1.326   6.867
54429SOL    HW265185   5.874   1.469   6.870
54430SOL     OW65186  13.911  10.900   5.302
54430SOL    HW165187  13.965  10.879   5.378
54430SOL    HW265188  13.822  10.903   5.337
54431SOL     OW65189   1.094   5.446   2.589
54431SOL    HW165190   1.126   5.416   2.674
54431SOL    HW265191   1.016   5.393   2.573
54432SOL     OW65192  10.530  14.475  14.527
54432SOL    HW165193  10.623  14.457  14.537
54432SOL    HW265194  10.507  14.528  14.603
54433SOL     OW65195  12.767   2.900   6.648
54433SOL    HW165196  12.685   2.851   6.657
54433SOL    HW265197  12.746   2.973   6.590
54434SOL     OW65198  13.186   2.618   9.390
54434SOL    HW165199  13.236   2.664   9.323
54434SOL    HW265200  13.233   2.635   9.472
54435SOL     OW65201  14.850  10.793  14.844
54435SOL    HW165202  14.824  10.748  14.763
54435SOL    HW265203  14.811  10.880  14.837
54436SOL     OW65204  13.466   2.062   8.333
54436SOL    HW165205  13.540   2.074   8.273
54436SOL    HW265206  13.428   2.150   8.341
54437SOL     OW65207   2.757  10.215   8.520
54437SOL    HW165208   2.736  10.122   8.528
54437SOL    HW265209   2.698  10.246   8.451
54438SOL     OW65210   8.537  12.553  14.242
54438SOL    HW165211   8.580  12.612  14.304
54438SOL    HW265212   8.466  12.513  14.293
54439SOL     OW65213  10.113  14.149  14.031
54439SOL    HW165214  10.124  14.148  14.126
54439SOL    HW265215  10.018  14.153  14.017
54440SOL     OW65216  13.188   0.718  10.289
54440SOL    HW165217  13.229   0.775  10.224
54440SOL    HW265218  13.236   0.635  10.282
54441SOL     OW65219   3.318  12.768   3.081
54441SOL    HW165220   3.239  12.797   3.127
54441SOL    HW265221   3.331  12.833   3.012
54442SOL     OW65222  14.798  13.887   9.505
54442SOL    HW165223  14.782  13.896   9.599
54442SOL    HW265224  14.752  13.807   9.481
54443SOL     OW65225   9.303   4.231   7.051
54443SOL    HW165226   9.397   4.211   7.046
54443SOL    HW265227   9.266   4.161   7.103
54444SOL     OW65228  10.433  13.079   0.525
54444SOL    HW165229  10.384  13.156   0.496
54444SOL    HW265230  10.399  13.060   0.612
54445SOL     OW65231   4.064   8.209   4.746
54445SOL    HW165232   4.130   8.141   4.738
54445SOL    HW265233   4.049   8.216   4.840
54446SOL     OW65234   4.645   4.229   6.794
54446SOL    HW165235   4.739   4.224   6.815
54446SOL    HW265236   4.608   4.280   6.866
54447SOL     OW65237   1.158   4.649   0.846
54447SOL    HW165238   1.109   4.614   0.772
54447SOL    HW265239   1.207   4.575   0.880
54448SOL     OW65240  11.744  10.404   5.829
54448SOL    HW165241  11.671  10.447   5.784
54448SOL    HW265242  11.822  10.448   5.795
54449SOL     OW65243   7.108   8.265  10.543
54449SOL    HW165244   7.150   8.309  10.470
54449SOL    HW265245   7.085   8.336  10.603
54450SOL     OW65246   9.466   6.613   5.901
54450SOL    HW165247   9.488   6.705   5.881
54450SOL    HW265248   9.383   6.618   5.947
54451SOL     OW65249   1.253   7.821   3.581
54451SOL    HW165250   1.297   7.856   3.659
54451SOL    HW265251   1.177   7.878   3.568
54452SOL     OW65252  13.992   7.015  14.388
54452SOL    HW165253  14.017   6.988  14.476
54452SOL    HW265254  13.974   7.109  14.396
54453SOL     OW65255   3.948  14.240  12.753
54453SOL    HW165256   3.858  14.206  12.756
54453SOL    HW265257   3.996  14.185  12.814
54454SOL     OW65258   3.595  12.940   0.299
54454SOL    HW165259   3.677  12.965   0.257
54454SOL    HW265260   3.541  12.905   0.228
54455SOL     OW65261   5.120   5.351   9.826
54455SOL    HW165262   5.041   5.405   9.821
54455SOL    HW265263   5.095   5.278   9.882
54456SOL     OW65264   7.874  14.562   2.195
54456SOL    HW165265   7.848  14.573   2.104
54456SOL    HW265266   7.952  14.618   2.204
54457SOL     OW65267   2.530   2.243  11.469
54457SOL    HW165268   2.508   2.217  11.379
54457SOL    HW265269   2.536   2.338  11.466
54458SOL     OW65270  12.903   0.811   9.781
54458SOL    HW165271  12.807   0.812   9.775
54458SOL    HW265272  12.928   0.903   9.780
54459SOL     OW65273  10.443  10.888   8.431
54459SOL    HW165274  10.480  10.897   8.519
54459SOL    HW265275  10.374  10.822   8.441
54460SOL     OW65276   5.461  12.689   6.356
54460SOL    HW165277   5.501  12.666   6.272
54460SOL    HW265278   5.405  12.764   6.336
54461SOL     OW65279   9.938   0.169  14.858
54461SOL    HW165280   9.949   0.224  14.781
54461SOL    HW265281   9.901   0.087  14.824
54462SOL     OW65282  13.288  13.025  11.534
54462SOL    HW165283  13.253  13.051  11.620
54462SOL    HW265284  13.368  13.076  11.524
54463SOL     OW65285   1.609  14.260  11.596
54463SOL    HW165286   1.577  14.292  11.680
54463SOL    HW265287   1.690  14.214  11.617
54464SOL     OW65288  14.735   4.195  10.115
54464SOL    HW165289  14.694   4.109  10.117
54464SOL    HW265290  14.729   4.226  10.205
54465SOL     OW65291   4.507  11.222   2.578
54465SOL    HW165292   4.568  11.148   2.580
54465SOL    HW265293   4.564  11.299   2.578
54466SOL     OW65294   3.569   9.410  12.929
54466SOL    HW165295   3.553   9.452  12.845
54466SOL    HW265296   3.658   9.434  12.953
54467SOL     OW65297  12.188  14.119   4.010
54467SOL    HW165298  12.152  14.030   4.011
54467SOL    HW265299  12.278  14.108   4.042
54468SOL     OW65300  14.569   9.374  13.873
54468SOL    HW165301  14.605   9.385  13.961
54468SOL    HW265302  14.479   9.344  13.888
54469SOL     OW65303   9.857   5.521   2.676
54469SOL    HW165304   9.798   5.575   2.728
54469SOL    HW265305   9.922   5.490   2.738
54470SOL     OW65306   3.261  13.589  13.140
54470SOL    HW165307   3.319  13.515  13.159
54470SOL    HW265308   3.207  13.598  13.218
54471SOL     OW65309  14.106   7.989  10.634
54471SOL    HW165310  14.156   8.008  10.713
54471SOL    HW265311  14.169   7.947  10.575
54472SOL     OW65312  11.460   1.210   3.681
54472SOL    HW165313  11.398   1.154   3.636
54472SOL    HW265314  11.417   1.296   3.685
54473SOL     OW65315   0.896   6.845   1.853
54473SOL    HW165316   0.898   6.754   1.881
54473SOL    HW265317   0.809   6.876   1.879
54474SOL     OW65318   8.312   6.346  12.088
54474SOL    HW165319   8.228   6.345  12.041
54474SOL    HW265320   8.300   6.283  12.159
54475SOL     OW65321  12.701   1.895   7.924
54475SOL    HW165322  12.789   1.930   7.936
54475SOL    HW265323  12.646   1.945   7.984
54476SOL     OW65324   3.834   9.819   3.305
54476SOL    HW165325   3.793   9.743   3.263
54476SOL    HW265326   3.855   9.789   3.394
54477SOL     OW65327   6.790  10.516   4.913
54477SOL    HW165328   6.816  10.525   4.821
54477SOL    HW265329   6.722  10.448   4.913
54478SOL     OW65330   4.331   8.978   6.651
54478SOL    HW165331   4.345   9.072   6.666
54478SOL    HW265332   4.393   8.935   6.710
54479SOL     OW65333   9.040  13.461   1.393
54479SOL    HW165334   8.994  13.470   1.309
54479SOL    HW265335   8.976  13.493   1.458
54480SOL     OW65336   8.007   4.116  14.155
54480SOL    HW165337   8.090   4.116  14.106
54480SOL    HW265338   8.025   4.169  14.233
54481SOL     OW65339   1.509  12.012   5.336
54481SOL    HW165340   1.416  11.991   5.323
54481SOL    HW265341   1.546  11.933   5.375
54482SOL     OW65342   8.851  12.502   0.243
54482SOL    HW165343   8.874  12.593   0.227
54482SOL    HW265344   8.933  12.454   0.233
54483SOL     OW65345   5.958  10.479   6.228
54483SOL    HW165346   6.037  10.426   6.211
54483SOL    HW265347   5.964  10.551   6.165
54484SOL     OW65348   9.928  10.274   1.573
54484SOL    HW165349   9.836  10.295   1.591
54484SOL    HW265350   9.941  10.189   1.615
54485SOL     OW65351   5.228  11.021   8.443
54485SOL    HW165352   5.265  11.053   8.525
54485SOL    HW265353   5.276  10.941   8.423
54486SOL     OW65354  10.602  10.573   4.649
54486SOL    HW165355  10.508  10.582   4.666
54486SOL    HW265356  10.607  10.554   4.555
54487SOL     OW65357   2.838   9.192  14.680
54487SOL    HW165358   2.921   9.144  14.685
54487SOL    HW265359   2.860   9.280  14.709
54488SOL     OW65360   3.185   4.815   0.168
54488SOL    HW165361   3.256   4.754   0.148
54488SOL    HW265362   3.195   4.885   0.103
54489SOL     OW65363   1.450   7.857  11.704
54489SOL    HW165364   1.473   7.764  11.703
54489SOL    HW265365   1.527   7.901  11.668
54490SOL     OW65366   7.325  12.156   8.269
54490SOL    HW165367   7.349  12.119   8.354
54490SOL    HW265368   7.231  12.141   8.261
54491SOL     OW65369   2.556  14.215   1.049
54491SOL    HW165370   2.607  14.134   1.048
54491SOL    HW265371   2.507  14.210   1.131
54492SOL     OW65372   1.306   6.009   7.313
54492SOL    HW165373   1.332   6.000   7.221
54492SOL    HW265374   1.211   6.006   7.311
54493SOL     OW65375   4.830   5.597   2.811
54493SOL    HW165376   4.877   5.676   2.841
54493SOL    HW265377   4.849   5.592   2.718
54494SOL     OW65378  12.480   1.008   4.723
54494SOL    HW165379  12.394   0.976   4.749
54494SOL    HW265380  12.542   0.947   4.765
54495SOL     OW65381   3.755   7.255   7.889
54495SOL    HW165382   3.784   7.166   7.904
54495SOL    HW265383   3.732   7.258   7.797
54496SOL     OW65384   0.087  11.528  12.062
54496SOL    HW165385   0.045  11.610  12.035
54496SOL    HW265386   0.050  11.462  12.003
54497SOL     OW65387   0.864  12.916   3.429
54497SOL    HW165388   0.842  12.842   3.372
54497SOL    HW265389   0.785  12.932   3.479
54498SOL     OW65390   1.327  10.368   9.879
54498SOL    HW165391   1.324  10.414   9.795
54498SOL    HW265392   1.384  10.293   9.863
54499SOL     OW65393  13.417  12.400  14.603
54499SOL    HW165394  13.330  12.440  14.601
54499SOL    HW265395  13.453  12.418  14.516
54500SOL     OW65396   2.335  11.132  10.770
54500SOL    HW165397   2.391  11.190  10.820
54500SOL    HW265398   2.247  11.168  10.781
54501SOL     OW65399   3.270   3.626   0.638
54501SOL    HW165400   3.177   3.614   0.655
54501SOL    HW265401   3.273   3.678   0.557
54502SOL     OW65402   6.029   8.101  13.613
54502SOL    HW165403   5.947   8.111  13.566
54502SOL    HW265404   6.074   8.185  13.602
54503SOL     OW65405   1.621   8.272  12.140
54503SOL    HW165406   1.716   8.260  12.140
54503SOL    HW265407   1.586   8.183  12.149
54504SOL     OW65408   0.838   1.955   2.048
54504SOL    HW165409   0.849   1.905   2.129
54504SOL    HW265410   0.752   1.997   2.057
54505SOL     OW65411   1.976   6.891   9.235
54505SOL    HW165412   1.959   6.824   9.169
54505SOL    HW265413   2.070   6.883   9.253
54506SOL     OW65414   5.188   1.435  12.811
54506SOL    HW165415   5.152   1.477  12.889
54506SOL    HW265416   5.117   1.378  12.779
54507SOL     OW65417   3.082   1.720   1.288
54507SOL    HW165418   3.131   1.769   1.222
54507SOL    HW265419   3.041   1.648   1.240
54508SOL     OW65420   3.131  10.846   8.356
54508SOL    HW165421   3.155  10.754   8.346
54508SOL    HW265422   3.035  10.845   8.360
54509SOL     OW65423   2.491  11.581  14.809
54509SOL    HW165424   2.466  11.495  14.774
54509SOL    HW265425   2.577  11.567  14.848
54510SOL     OW65426   7.646   8.366   8.092
54510SOL    HW165427   7.701   8.425   8.143
54510SOL    HW265428   7.598   8.422   8.032
54511SOL     OW65429   1.556   3.978   7.296
54511SOL    HW165430   1.470   3.969   7.255
54511SOL    HW265431   1.573   4.072   7.295
54512SOL     OW65432   9.416   6.391   9.320
54512SOL    HW165433   9.508   6.382   9.343
54512SOL    HW265434   9.416   6.398   9.224
54513SOL     OW65435   1.979  12.294  10.191
54513SOL    HW165436   2.047  12.348  10.233
54513SOL    HW265437   1.929  12.258  10.264
54514SOL     OW65438  12.278   6.657   3.874
54514SOL    HW165439  12.256   6.594   3.806
54514SOL    HW265440  12.367   6.687   3.853
54515SOL     OW65441   7.533  14.145   9.529
54515SOL    HW165442   7.606  14.115   9.584
54515SOL    HW265443   7.513  14.232   9.561
54516SOL     OW65444  11.977   1.716  12.329
54516SOL    HW165445  11.886   1.703  12.357
54516SOL    HW265446  11.995   1.641  12.273
54517SOL     OW65447   1.192   9.711   0.970
54517SOL    HW165448   1.197   9.799   1.007
54517SOL    HW265449   1.277   9.697   0.929
54518SOL     OW65450  13.850   3.457   3.659
54518SOL    HW165451  13.888   3.464   3.747
54518SOL    HW265452  13.765   3.501   3.667
54519SOL     OW65453   1.862  10.455  12.718
54519SOL    HW165454   1.914  10.502  12.653
54519SOL    HW265455   1.897  10.366  12.718
54520SOL     OW65456   5.003  11.003   2.112
54520SOL    HW165457   4.964  10.947   2.045
54520SOL    HW265458   4.936  11.008   2.180
54521SOL     OW65459   1.357   2.027  14.389
54521SOL    HW165460   1.318   2.039  14.303
54521SOL    HW265461   1.449   2.051  14.377
54522SOL     OW65462   4.541  12.710   7.501
54522SOL    HW165463   4.620  12.667   7.466
54522SOL    HW265464   4.516  12.656   7.576
54523SOL     OW65465   6.776   0.766   1.454
54523SOL    HW165466   6.755   0.850   1.496
54523SOL    HW265467   6.868   0.752   1.475
54524SOL     OW65468   3.395   0.184   5.270
54524SOL    HW165469   3.485   0.213   5.263
54524SOL    HW265470   3.342   0.259   5.243
54525SOL     OW65471   2.421   6.913  12.784
54525SOL    HW165472   2.402   6.870  12.867
54525SOL    HW265473   2.364   6.990  12.783
54526SOL     OW65474   7.193   9.416   0.961
54526SOL    HW165475   7.236   9.337   0.992
54526SOL    HW265476   7.102   9.407   0.989
54527SOL     OW65477  13.259  10.180   8.989
54527SOL    HW165478  13.264  10.235   8.910
54527SOL    HW265479  13.171  10.142   8.985
54528SOL     OW65480  13.412   4.301   3.920
54528SOL    HW165481  13.501   4.336   3.928
54528SOL    HW265482  13.356   4.376   3.939
54529SOL     OW65483  13.438  12.834  11.693
54529SOL    HW165484  13.452  12.750  11.649
54529SOL    HW265485  13.379  12.882  11.635
54530SOL     OW65486   3.417  12.243   5.380
54530SOL    HW165487   3.501  12.268   5.341
54530SOL    HW265488   3.432  12.247   5.474
54531SOL     OW65489  10.362   7.301   9.603
54531SOL    HW165490  10.408   7.271   9.525
54531SOL    HW265491  10.269   7.285   9.583
54532SOL     OW65492   3.416   5.763  10.300
54532SOL    HW165493   3.420   5.772  10.205
54532SOL    HW265494   3.460   5.681  10.319
54533SOL     OW65495   4.647   5.495   2.089
54533SOL    HW165496   4.626   5.524   2.177
54533SOL    HW265497   4.593   5.416   2.076
54534SOL     OW65498  11.564  14.125   2.046
54534SOL    HW165499  11.475  14.108   2.075
54534SOL    HW265500  11.572  14.079   1.963
54535SOL     OW65501   0.354   0.143   5.737
54535SOL    HW165502   0.351   0.177   5.827
54535SOL    HW265503   0.370   0.049   5.748
54536SOL     OW65504  13.833   2.977  11.644
54536SOL    HW165505  13.840   2.886  11.618
54536SOL    HW265506  13.912   2.993  11.697
54537SOL     OW65507   2.199   5.448  14.718
54537SOL    HW165508   2.274   5.433  14.776
54537SOL    HW265509   2.154   5.523  14.756
54538SOL     OW65510   4.677   8.250  10.347
54538SOL    HW165511   4.689   8.344  10.361
54538SOL    HW265512   4.640   8.243  10.259
54539SOL     OW65513   8.561   1.061   7.100
54539SOL    HW165514   8.577   1.021   7.015
54539SOL    HW265515   8.635   1.034   7.154
54540SOL     OW65516   0.207  13.446  11.260
54540SOL    HW165517   0.212  13.360  11.300
54540SOL    HW265518   0.284  13.451  11.203
54541SOL     OW65519  11.350   4.713  12.119
54541SOL    HW165520  11.266   4.672  12.138
54541SOL    HW265521  11.414   4.665  12.172
54542SOL     OW65522   9.950   6.227   4.160
54542SOL    HW165523   9.957   6.164   4.232
54542SOL    HW265524   9.887   6.292   4.191
54543SOL     OW65525  10.509   1.720   7.443
54543SOL    HW165526  10.530   1.643   7.391
54543SOL    HW265527  10.566   1.789   7.409
54544SOL     OW65528   8.857  13.824  14.538
54544SOL    HW165529   8.835  13.881  14.611
54544SOL    HW265530   8.951  13.839  14.524
54545SOL     OW65531  10.087   1.914   4.917
54545SOL    HW165532  10.023   1.940   4.984
54545SOL    HW265533  10.044   1.935   4.834
54546SOL     OW65534  13.211  10.316   4.598
54546SOL    HW165535  13.299  10.299   4.562
54546SOL    HW265536  13.218  10.403   4.637
54547SOL     OW65537  10.276  12.567   1.773
54547SOL    HW165538  10.185  12.584   1.747
54547SOL    HW265539  10.288  12.473   1.757
54548SOL     OW65540  10.121   5.971   7.063
54548SOL    HW165541  10.114   6.056   7.107
54548SOL    HW265542  10.209   5.941   7.084
54549SOL     OW65543   8.083   5.391   0.694
54549SOL    HW165544   7.992   5.363   0.705
54549SOL    HW265545   8.100   5.447   0.770
54550SOL     OW65546   3.399   5.727   5.071
54550SOL    HW165547   3.352   5.715   4.988
54550SOL    HW265548   3.340   5.781   5.124
54551SOL     OW65549  12.938  10.938   9.251
54551SOL    HW165550  12.860  10.981   9.287
54551SOL    HW265551  12.958  10.869   9.315
54552SOL     OW65552  12.600   3.687   5.178
54552SOL    HW165553  12.563   3.732   5.102
54552SOL    HW265554  12.546   3.609   5.190
54553SOL     OW65555   6.324   6.899   4.927
54553SOL    HW165556   6.351   6.974   4.874
54553SOL    HW265557   6.341   6.928   5.017
54554SOL     OW65558  14.202   4.864   4.548
54554SOL    HW165559  14.174   4.952   4.575
54554SOL    HW265560  14.234   4.875   4.459
54555SOL     OW65561   9.855  14.426   0.961
54555SOL    HW165562   9.924  14.489   0.981
54555SOL    HW265563   9.888  14.376   0.886
54556SOL     OW65564   7.478  10.968   3.247
54556SOL    HW165565   7.530  10.984   3.168
54556SOL    HW265566   7.391  10.944   3.214
54557SOL     OW65567   4.990  14.837  10.189
54557SOL    HW165568   5.003   0.055  10.155
54557SOL    HW265569   5.076  14.795  10.184
54558SOL     OW65570   7.593   5.953  12.076
54558SOL    HW165571   7.541   5.972  11.999
54558SOL    HW265572   7.679   5.928  12.042
54559SOL     OW65573   7.868   8.819   0.539
54559SOL    HW165574   7.795   8.833   0.479
54559SOL    HW265575   7.872   8.899   0.591
54560SOL     OW65576  12.900   1.149   6.159
54560SOL    HW165577  12.940   1.228   6.194
54560SOL    HW265578  12.835   1.124   6.225
54561SOL     OW65579   0.798   8.951   0.112
54561SOL    HW165580   0.802   9.030   0.165
54561SOL    HW265581   0.718   8.960   0.060
54562SOL     OW65582   6.723   8.496   3.198
54562SOL    HW165583   6.730   8.588   3.224
54562SOL    HW265584   6.675   8.455   3.270
54563SOL     OW65585  12.750   7.279  13.542
54563SOL    HW165586  12.667   7.235  13.564
54563SOL    HW265587  12.765   7.257  13.450
54564SOL     OW65588   1.760   2.909  14.706
54564SOL    HW165589   1.675   2.864  14.709
54564SOL    HW265590   1.787   2.914  14.797
54565SOL     OW65591   3.303   4.311  13.442
54565SOL    HW165592   3.243   4.274  13.506
54565SOL    HW265593   3.383   4.328  13.492
54566SOL     OW65594   7.684  12.331  10.130
54566SOL    HW165595   7.683  12.337  10.034
54566SOL    HW265596   7.733  12.251  10.148
54567SOL     OW65597  14.782   5.251  10.232
54567SOL    HW165598  14.751   5.336  10.264
54567SOL    HW265599  14.820   5.208  10.309
54568SOL     OW65600   2.918   6.427  13.516
54568SOL    HW165601   2.939   6.350  13.569
54568SOL    HW265602   3.000   6.447  13.470
54569SOL     OW65603  12.032  11.395   5.585
54569SOL    HW165604  12.123  11.366   5.585
54569SOL    HW265605  11.996  11.362   5.503
54570SOL     OW65606   9.439   8.506   2.275
54570SOL    HW165607   9.502   8.451   2.322
54570SOL    HW265608   9.439   8.589   2.323
54571SOL     OW65609   9.103  11.422  14.747
54571SOL    HW165610   9.058  11.429  14.663
54571SOL    HW265611   9.153  11.504  14.754
54572SOL     OW65612  14.573   6.108   4.846
54572SOL    HW165613  14.581   6.044   4.775
54572SOL    HW265614  14.559   6.055   4.924
54573SOL     OW65615   0.703  10.463  11.904
54573SOL    HW165616   0.638  10.414  11.954
54573SOL    HW265617   0.782  10.459  11.958
54574SOL     OW65618   9.168  10.911  11.200
54574SOL    HW165619   9.140  10.820  11.192
54574SOL    HW265620   9.117  10.945  11.274
54575SOL     OW65621   9.925  13.818   2.046
54575SOL    HW165622   9.852  13.765   2.014
54575SOL    HW265623   9.883  13.900   2.075
54576SOL     OW65624   7.913   9.488   2.014
54576SOL    HW165625   7.848   9.472   1.946
54576SOL    HW265626   7.863   9.497   2.095
54577SOL     OW65627   2.923   6.410   2.570
54577SOL    HW165628   2.925   6.325   2.527
54577SOL    HW265629   2.866   6.464   2.516
54578SOL     OW65630   2.070  11.163  12.544
54578SOL    HW165631   2.095  11.112  12.467
54578SOL    HW265632   1.998  11.219  12.513
54579SOL     OW65633  13.568   0.578   9.128
54579SOL    HW165634  13.540   0.536   9.046
54579SOL    HW265635  13.631   0.644   9.100
54580SOL     OW65636   3.795   4.450  14.040
54580SOL    HW165637   3.773   4.359  14.022
54580SOL    HW265638   3.792   4.493  13.955
54581SOL     OW65639   8.169   1.830   3.260
54581SOL    HW165640   8.262   1.809   3.254
54581SOL    HW265641   8.124   1.752   3.227
54582SOL     OW65642   1.870  12.398   3.823
54582SOL    HW165643   1.782  12.381   3.858
54582SOL    HW265644   1.854  12.449   3.744
54583SOL     OW65645   2.540   6.230  11.591
54583SOL    HW165646   2.577   6.189  11.513
54583SOL    HW265647   2.510   6.316  11.561
54584SOL     OW65648   8.604  14.335   2.747
54584SOL    HW165649   8.584  14.426   2.770
54584SOL    HW265650   8.675  14.341   2.684
54585SOL     OW65651   6.990  12.407  12.431
54585SOL    HW165652   6.970  12.314  12.423
54585SOL    HW265653   7.065  12.411  12.491
54586SOL     OW65654  12.653  11.885   0.121
54586SOL    HW165655  12.655  11.975   0.089
54586SOL    HW265656  12.652  11.894   0.217
54587SOL     OW65657   4.580   9.178   4.473
54587SOL    HW165658   4.636   9.130   4.412
54587SOL    HW265659   4.584   9.128   4.554
54588SOL     OW65660  13.120   1.496  10.256
54588SOL    HW165661  13.070   1.566  10.213
54588SOL    HW265662  13.212   1.522  10.243
54589SOL     OW65663   7.729   6.389  10.988
54589SOL    HW165664   7.824   6.384  10.984
54589SOL    HW265665   7.704   6.329  11.058
54590SOL     OW65666   1.173  13.396  12.784
54590SOL    HW165667   1.260  13.362  12.760
54590SOL    HW265668   1.115  13.320  12.774
54591SOL     OW65669   3.285  10.218   3.544
54591SOL    HW165670   3.258  10.147   3.603
54591SOL    HW265671   3.358  10.260   3.589
54592SOL     OW65672   5.784   8.915   5.721
54592SOL    HW165673   5.866   8.945   5.758
54592SOL    HW265674   5.728   8.896   5.796
54593SOL     OW65675   3.250   1.860   5.205
54593SOL    HW165676   3.166   1.905   5.192
54593SOL    HW265677   3.288   1.857   5.117
54594SOL     OW65678   7.182  14.725  14.400
54594SOL    HW165679   7.251  14.660  14.413
54594SOL    HW265680   7.129  14.720  14.479
54595SOL     OW65681   9.195   6.991   4.034
54595SOL    HW165682   9.154   7.073   4.063
54595SOL    HW265683   9.282   6.992   4.074
54596SOL     OW65684   9.084   0.847  13.047
54596SOL    HW165685   9.099   0.758  13.079
54596SOL    HW265686   9.101   0.902  13.123
54597SOL     OW65687  14.513  13.720   6.487
54597SOL    HW165688  14.509  13.705   6.393
54597SOL    HW265689  14.522  13.815   6.496
54598SOL     OW65690   2.180  10.980   9.848
54598SOL    HW165691   2.112  10.912   9.846
54598SOL    HW265692   2.238  10.954   9.919
54599SOL     OW65693  14.328   6.653  10.307
54599SOL    HW165694  14.311   6.742  10.277
54599SOL    HW265695  14.273   6.598  10.251
54600SOL     OW65696   7.826  10.999   3.949
54600SOL    HW165697   7.791  10.924   3.997
54600SOL    HW265698   7.830  10.970   3.858
54601SOL     OW65699   1.070  13.069   6.560
54601SOL    HW165700   1.163  13.063   6.581
54601SOL    HW265701   1.067  13.118   6.477
54602SOL     OW65702   3.344   8.021  13.084
54602SOL    HW165703   3.331   7.935  13.046
54602SOL    HW265704   3.393   8.069  13.017
54603SOL     OW65705   6.994  10.272   8.494
54603SOL    HW165706   6.937  10.197   8.509
54603SOL    HW265707   6.942  10.333   8.443
54604SOL     OW65708  13.347   8.549   6.401
54604SOL    HW165709  13.255   8.570   6.385
54604SOL    HW265710  13.394   8.592   6.329
54605SOL     OW65711  14.762   7.878   5.532
54605SOL    HW165712  14.706   7.942   5.576
54605SOL    HW265713  14.839   7.871   5.589
54606SOL     OW65714   2.602   7.864  11.727
54606SOL    HW165715   2.529   7.844  11.786
54606SOL    HW265716   2.665   7.910  11.783
54607SOL     OW65717  13.253  14.463  14.784
54607SOL    HW165718  13.236  14.373  14.812
54607SOL    HW265719  13.190  14.516  14.833
54608SOL     OW65720   6.491  10.298  14.504
54608SOL    HW165721   6.405  10.332  14.479
54608SOL    HW265722   6.521  10.250  14.427
54609SOL     OW65723   6.015   2.694   9.155
54609SOL    HW165724   5.986   2.746   9.230
54609SOL    HW265725   6.010   2.603   9.185
54610SOL     OW65726   1.143   3.288   4.721
54610SOL    HW165727   1.202   3.214   4.725
54610SOL    HW265728   1.060   3.252   4.689
54611SOL     OW65729   4.349   7.497  14.559
54611SOL    HW165730   4.307   7.434  14.502
54611SOL    HW265731   4.278   7.532  14.614
54612SOL     OW65732   3.636   8.318   4.653
54612SOL    HW165733   3.602   8.386   4.594
54612SOL    HW265734   3.720   8.293   4.614
54613SOL     OW65735   5.933  13.506   2.794
54613SOL    HW165736   6.023  13.532   2.816
54613SOL    HW265737   5.914  13.435   2.855
54614SOL     OW65738  13.705  12.033   6.215
54614SOL    HW165739  13.609  12.030   6.213
54614SOL    HW265740  13.729  12.095   6.146
54615SOL     OW65741   7.358  14.835   8.459
54615SOL    HW165742   7.265  14.824   8.441
54615SOL    HW265743   7.361   0.008   8.545
54616SOL     OW65744   9.979   0.344   6.465
54616SOL    HW165745   9.966   0.260   6.509
54616SOL    HW265746   9.900   0.394   6.485
54617SOL     OW65747   4.511   9.863   7.899
54617SOL    HW165748   4.484   9.772   7.888
54617SOL    HW265749   4.551   9.886   7.815
54618SOL     OW65750   8.412   0.547   8.081
54618SOL    HW165751   8.355   0.484   8.036
54618SOL    HW265752   8.439   0.502   8.161
54619SOL     OW65753   4.163   3.681  13.240
54619SOL    HW165754   4.200   3.766  13.264
54619SOL    HW265755   4.207   3.619  13.299
54620SOL     OW65756   6.715   1.898  10.210
54620SOL    HW165757   6.718   1.993  10.211
54620SOL    HW265758   6.807   1.871  10.218
54621SOL     OW65759   8.595   3.585   0.313
54621SOL    HW165760   8.537   3.510   0.328
54621SOL    HW265761   8.665   3.575   0.377
54622SOL     OW65762   6.578   5.925  14.230
54622SOL    HW165763   6.581   6.012  14.270
54622SOL    HW265764   6.489   5.893  14.249
54623SOL     OW65765   0.063   0.483  10.625
54623SOL    HW165766  14.840   0.474  10.604
54623SOL    HW265767   0.108   0.458  10.544
54624SOL     OW65768  13.292   6.150   8.110
54624SOL    HW165769  13.384   6.150   8.086
54624SOL    HW265770  13.291   6.118   8.201
54625SOL     OW65771   6.471   5.083   3.123
54625SOL    HW165772   6.453   5.074   3.217
54625SOL    HW265773   6.528   5.008   3.103
54626SOL     OW65774   4.336   3.774   9.783
54626SOL    HW165775   4.414   3.809   9.826
54626SOL    HW265776   4.281   3.850   9.767
54627SOL     OW65777  10.603   0.557   8.051
54627SOL    HW165778  10.526   0.606   8.081
54627SOL    HW265779  10.616   0.490   8.118
54628SOL     OW65780  13.247  10.019   4.336
54628SOL    HW165781  13.341  10.002   4.325
54628SOL    HW265782  13.243  10.110   4.365
54629SOL     OW65783   6.643   3.349  14.823
54629SOL    HW165784   6.554   3.384  14.829
54629SOL    HW265785   6.642   3.297  14.742
54630SOL     OW65786   3.649  13.495   4.037
54630SOL    HW165787   3.633  13.550   3.961
54630SOL    HW265788   3.744  13.484   4.040
54631SOL     OW65789   0.721  11.362  13.574
54631SOL    HW165790   0.764  11.290  13.621
54631SOL    HW265791   0.728  11.437  13.634
54632SOL     OW65792   5.263  12.570   5.698
54632SOL    HW165793   5.255  12.594   5.790
54632SOL    HW265794   5.283  12.476   5.700
54633SOL     OW65795   3.621   4.045  12.027
54633SOL    HW165796   3.652   4.100  12.099
54633SOL    HW265797   3.672   3.964  12.035
54634SOL     OW65798  11.523   7.482   3.801
54634SOL    HW165799  11.499   7.515   3.714
54634SOL    HW265800  11.453   7.513   3.858
54635SOL     OW65801   0.793   6.959  12.517
54635SOL    HW165802   0.855   7.006  12.572
54635SOL    HW265803   0.707   6.980  12.555
54636SOL     OW65804   5.392   3.203   8.859
54636SOL    HW165805   5.312   3.246   8.887
54636SOL    HW265806   5.399   3.126   8.915
54637SOL     OW65807  11.057  10.360  10.223
54637SOL    HW165808  11.103  10.345  10.141
54637SOL    HW265809  10.967  10.382  10.196
54638SOL     OW65810   6.518  12.971   2.303
54638SOL    HW165811   6.429  12.937   2.295
54638SOL    HW265812   6.574  12.895   2.293
54639SOL     OW65813   3.794   0.371  13.190
54639SOL    HW165814   3.888   0.369  13.207
54639SOL    HW265815   3.783   0.321  13.109
54640SOL     OW65816   4.078  14.431   7.766
54640SOL    HW165817   4.067  14.522   7.741
54640SOL    HW265818   4.161  14.428   7.813
54641SOL     OW65819   2.992   1.701   5.121
54641SOL    HW165820   3.014   1.720   5.029
54641SOL    HW265821   2.983   1.788   5.161
54642SOL     OW65822   5.283   8.117  10.554
54642SOL    HW165823   5.296   8.192  10.496
54642SOL    HW265824   5.211   8.144  10.611
54643SOL     OW65825  12.854   9.815  14.374
54643SOL    HW165826  12.916   9.816  14.446
54643SOL    HW265827  12.882   9.741  14.319
54644SOL     OW65828   6.050  10.397  11.632
54644SOL    HW165829   6.097  10.471  11.671
54644SOL    HW265830   6.027  10.342  11.707
54645SOL     OW65831   7.672   8.485   2.530
54645SOL    HW165832   7.760   8.504   2.497
54645SOL    HW265833   7.613   8.525   2.466
54646SOL     OW65834   5.053   7.661  14.830
54646SOL    HW165835   5.146   7.652  14.847
54646SOL    HW265836   5.017   7.697   0.042
54647SOL     OW65837   5.931  13.434   5.591
54647SOL    HW165838   5.961  13.487   5.664
54647SOL    HW265839   5.965  13.346   5.609
54648SOL     OW65840  14.226   8.165   5.186
54648SOL    HW165841  14.253   8.076   5.165
54648SOL    HW265842  14.203   8.162   5.279
54649SOL     OW65843   6.851   3.095  11.892
54649SOL    HW165844   6.848   3.164  11.958
54649SOL    HW265845   6.943   3.089  11.867
54650SOL     OW65846   5.826  10.102   7.092
54650SOL    HW165847   5.738  10.068   7.104
54650SOL    HW265848   5.813  10.192   7.062
54651SOL     OW65849   6.331  11.593   9.798
54651SOL    HW165850   6.285  11.581   9.881
54651SOL    HW265851   6.419  11.623   9.824
54652SOL     OW65852   8.477   3.036   1.416
54652SOL    HW165853   8.504   3.043   1.507
54652SOL    HW265854   8.423   2.957   1.413
54653SOL     OW65855  12.362   4.766  14.770
54653SOL    HW165856  12.354   4.730  14.858
54653SOL    HW265857  12.423   4.708  14.725
54654SOL     OW65858  12.431   5.034   8.191
54654SOL    HW165859  12.366   5.054   8.258
54654SOL    HW265860  12.492   5.108   8.193
54655SOL     OW65861  12.499   3.334  14.697
54655SOL    HW165862  12.493   3.326  14.792
54655SOL    HW265863  12.479   3.246  14.664
54656SOL     OW65864  11.017  13.787   7.074
54656SOL    HW165865  10.969  13.705   7.059
54656SOL    HW265866  11.109  13.762   7.064
54657SOL     OW65867  12.198   9.211  12.748
54657SOL    HW165868  12.255   9.212  12.672
54657SOL    HW265869  12.151   9.294  12.744
54658SOL     OW65870   3.415   6.602   1.414
54658SOL    HW165871   3.341   6.559   1.370
54658SOL    HW265872   3.447   6.665   1.349
54659SOL     OW65873  13.992   4.771  11.713
54659SOL    HW165874  14.059   4.705  11.700
54659SOL    HW265875  14.017   4.817  11.793
54660SOL     OW65876   6.697   5.274   7.144
54660SOL    HW165877   6.762   5.314   7.086
54660SOL    HW265878   6.652   5.349   7.184
54661SOL     OW65879   8.125  13.188  12.958
54661SOL    HW165880   8.061  13.258  12.963
54661SOL    HW265881   8.122  13.160  12.866
54662SOL     OW65882   8.705  11.005   7.938
54662SOL    HW165883   8.745  10.971   8.017
54662SOL    HW265884   8.676  11.093   7.961
54663SOL     OW65885  14.062  12.936  11.239
54663SOL    HW165886  13.973  12.924  11.207
54663SOL    HW265887  14.117  12.929  11.160
54664SOL     OW65888  13.146  13.129  12.458
54664SOL    HW165889  13.141  13.187  12.534
54664SOL    HW265890  13.085  13.167  12.395
54665SOL     OW65891   7.887  14.509  12.598
54665SOL    HW165892   7.865  14.422  12.564
54665SOL    HW265893   7.979  14.502  12.624
54666SOL     OW65894   2.724  10.715   4.516
54666SOL    HW165895   2.724  10.794   4.463
54666SOL    HW265896   2.767  10.649   4.462
54667SOL     OW65897   8.458   4.149   0.102
54667SOL    HW165898   8.369   4.116   0.110
54667SOL    HW265899   8.479   4.185   0.188
54668SOL     OW65900  11.405   5.314   2.993
54668SOL    HW165901  11.346   5.362   3.050
54668SOL    HW265902  11.492   5.350   3.011
54669SOL     OW65903   8.688   6.504  10.198
54669SOL    HW165904   8.743   6.574  10.232
54669SOL    HW265905   8.602   6.544  10.186
54670SOL     OW65906  11.212   7.047  12.374
54670SOL    HW165907  11.218   6.952  12.378
54670SOL    HW265908  11.301   7.078  12.387
54671SOL     OW65909   1.749   2.230  10.904
54671SOL    HW165910   1.792   2.312  10.880
54671SOL    HW265911   1.676   2.257  10.961
54672SOL     OW65912  13.735   9.998  12.571
54672SOL    HW165913  13.695   9.941  12.506
54672SOL    HW265914  13.825   9.966  12.578
54673SOL     OW65915   8.844   5.977  13.123
54673SOL    HW165916   8.749   5.977  13.115
54673SOL    HW265917   8.876   5.966  13.033
54674SOL     OW65918  11.841  11.086   5.622
54674SOL    HW165919  11.866  10.999   5.653
54674SOL    HW265920  11.782  11.121   5.689
54675SOL     OW65921  10.458   6.388  10.086
54675SOL    HW165922  10.394   6.459  10.085
54675SOL    HW265923  10.540   6.430  10.112
54676SOL     OW65924  13.110   9.359   3.598
54676SOL    HW165925  13.127   9.395   3.511
54676SOL    HW265926  13.018   9.376   3.614
54677SOL     OW65927  12.675   7.108   3.906
54677SOL    HW165928  12.668   7.023   3.862
54677SOL    HW265929  12.653   7.090   3.997
54678SOL     OW65930  10.496   5.936   4.807
54678SOL    HW165931  10.590   5.922   4.822
54678SOL    HW265932  10.454   5.861   4.848
54679SOL     OW65933  12.710   3.332  12.575
54679SOL    HW165934  12.633   3.315  12.630
54679SOL    HW265935  12.782   3.341  12.638
54680SOL     OW65936  11.295  10.572  11.029
54680SOL    HW165937  11.263  10.654  10.992
54680SOL    HW265938  11.386  10.589  11.051
54681SOL     OW65939   9.977  13.599   4.178
54681SOL    HW165940   9.894  13.646   4.179
54681SOL    HW265941  10.005  13.603   4.086
54682SOL     OW65942  10.313  14.062   7.683
54682SOL    HW165943  10.369  14.047   7.760
54682SOL    HW265944  10.350  14.005   7.616
54683SOL     OW65945   2.276   5.820   3.037
54683SOL    HW165946   2.190   5.843   3.072
54683SOL    HW265947   2.259   5.747   2.977
54684SOL     OW65948   6.267   2.462   5.047
54684SOL    HW165949   6.172   2.465   5.039
54684SOL    HW265950   6.283   2.460   5.142
54685SOL     OW65951   1.260   1.849   6.654
54685SOL    HW165952   1.267   1.935   6.613
54685SOL    HW265953   1.283   1.787   6.585
54686SOL     OW65954   1.163   6.178  13.597
54686SOL    HW165955   1.171   6.209  13.506
54686SOL    HW265956   1.240   6.215  13.641
54687SOL     OW65957   5.868  12.929   4.669
54687SOL    HW165958   5.793  12.912   4.725
54687SOL    HW265959   5.835  12.918   4.580
54688SOL     OW65960   6.663  14.252   4.651
54688SOL    HW165961   6.715  14.252   4.571
54688SOL    HW265962   6.587  14.307   4.629
54689SOL     OW65963   6.946   8.459  14.081
54689SOL    HW165964   6.872   8.400  14.098
54689SOL    HW265965   7.018   8.402  14.057
54690SOL     OW65966   4.600   8.271   0.650
54690SOL    HW165967   4.619   8.279   0.744
54690SOL    HW265968   4.636   8.186   0.626
54691SOL     OW65969  12.169  14.837   3.670
54691SOL    HW165970  12.120   0.010   3.600
54691SOL    HW265971  12.109  14.773   3.707
54692SOL     OW65972  10.134  11.064   7.317
54692SOL    HW165973  10.152  11.020   7.234
54692SOL    HW265974  10.075  11.005   7.364
54693SOL     OW65975   3.461  12.079   0.893
54693SOL    HW165976   3.525  12.149   0.887
54693SOL    HW265977   3.376  12.123   0.886
54694SOL     OW65978  13.386  10.643  13.538
54694SOL    HW165979  13.333  10.590  13.598
54694SOL    HW265980  13.376  10.733  13.571
54695SOL     OW65981   9.970   5.609  10.666
54695SOL    HW165982  10.066   5.605  10.667
54695SOL    HW265983   9.943   5.565  10.746
54696SOL     OW65984  12.518   8.334  13.588
54696SOL    HW165985  12.613   8.341  13.585
54696SOL    HW265986  12.497   8.260  13.530
54697SOL     OW65987  10.743   9.092   1.538
54697SOL    HW165988  10.838   9.101   1.536
54697SOL    HW265989  10.718   9.117   1.627
54698SOL     OW65990   6.946  12.841   2.674
54698SOL    HW165991   6.981  12.769   2.726
54698SOL    HW265992   6.988  12.919   2.709
54699SOL     OW65993   1.192  11.470  13.156
54699SOL    HW165994   1.167  11.467  13.064
54699SOL    HW265995   1.247  11.393  13.169
54700SOL     OW65996   8.161   9.396   1.991
54700SOL    HW165997   8.070   9.426   1.997
54700SOL    HW265998   8.206   9.467   1.944
54701SOL     OW65999   7.654   4.283   1.055
54701SOL    HW166000   7.592   4.352   1.077
54701SOL    HW266001   7.687   4.253   1.140
54702SOL     OW66002   9.429   0.260  10.762
54702SOL    HW166003   9.451   0.353  10.753
54702SOL    HW266004   9.439   0.224  10.674
54703SOL     OW66005   5.052   0.858   5.599
54703SOL    HW166006   5.116   0.927   5.583
54703SOL    HW266007   5.014   0.840   5.514
54704SOL     OW66008   4.399   9.431   1.924
54704SOL    HW166009   4.356   9.503   1.971
54704SOL    HW266010   4.488   9.464   1.907
54705SOL     OW66011   0.886   7.484   1.627
54705SOL    HW166012   0.972   7.484   1.584
54705SOL    HW266013   0.833   7.425   1.574
54706SOL     OW66014  14.135   2.315   4.926
54706SOL    HW166015  14.084   2.394   4.946
54706SOL    HW266016  14.071   2.253   4.890
54707SOL     OW66017   5.428   3.452  14.058
54707SOL    HW166018   5.432   3.522  14.123
54707SOL    HW266019   5.426   3.371  14.108
54708SOL     OW66020   1.258  13.692   0.907
54708SOL    HW166021   1.241  13.747   0.831
54708SOL    HW266022   1.239  13.603   0.877
54709SOL     OW66023   7.234  13.003   8.752
54709SOL    HW166024   7.186  12.984   8.833
54709SOL    HW266025   7.179  13.068   8.707
54710SOL     OW66026  12.928   1.808  10.630
54710SOL    HW166027  13.000   1.871  10.621
54710SOL    HW266028  12.930   1.784  10.723
54711SOL     OW66029   1.732   6.096   3.261
54711SOL    HW166030   1.780   6.175   3.235
54711SOL    HW266031   1.692   6.065   3.180
54712SOL     OW66032   0.971   0.868   4.842
54712SOL    HW166033   1.056   0.888   4.881
54712SOL    HW266034   0.914   0.939   4.870
54713SOL     OW66035  12.465   6.104   4.172
54713SOL    HW166036  12.396   6.075   4.232
54713SOL    HW266037  12.541   6.119   4.229
54714SOL     OW66038   3.799  12.590   0.034
54714SOL    HW166039   3.755  12.529  14.845
54714SOL    HW266040   3.882  12.610  14.859
54715SOL     OW66041  12.867  13.718  11.607
54715SOL    HW166042  12.868  13.747  11.698
54715SOL    HW266043  12.787  13.667  11.599
54716SOL     OW66044   6.883   7.510  13.178
54716SOL    HW166045   6.865   7.569  13.251
54716SOL    HW266046   6.942   7.560  13.121
54717SOL     OW66047   0.838  12.906   3.846
54717SOL    HW166048   0.869  12.827   3.803
54717SOL    HW266049   0.766  12.937   3.792
54718SOL     OW66050   1.037   6.131  10.128
54718SOL    HW166051   1.098   6.202  10.105
54718SOL    HW266052   0.979   6.124  10.053
54719SOL     OW66053   0.671  14.690   8.934
54719SOL    HW166054   0.727  14.743   8.876
54719SOL    HW266055   0.672  14.737   9.017
54720SOL     OW66056   6.990   1.536  11.340
54720SOL    HW166057   7.033   1.620  11.355
54720SOL    HW266058   6.897   1.556  11.350
54721SOL     OW66059   1.540   2.774   4.253
54721SOL    HW166060   1.612   2.718   4.222
54721SOL    HW266061   1.481   2.714   4.298
54722SOL     OW66062   6.723   3.788   3.440
54722SOL    HW166063   6.723   3.850   3.367
54722SOL    HW266064   6.640   3.741   3.432
54723SOL     OW66065  11.645  13.136   0.401
54723SOL    HW166066  11.657  13.065   0.339
54723SOL    HW266067  11.602  13.205   0.351
54724SOL     OW66068   1.285   4.118  11.721
54724SOL    HW166069   1.219   4.178  11.686
54724SOL    HW266070   1.334   4.089  11.644
54725SOL     OW66071   3.804  13.586   2.616
54725SOL    HW166072   3.761  13.527   2.677
54725SOL    HW266073   3.734  13.611   2.554
54726SOL     OW66074   1.705   1.748   4.531
54726SOL    HW166075   1.623   1.710   4.498
54726SOL    HW266076   1.770   1.726   4.464
54727SOL     OW66077  14.693  14.788   8.921
54727SOL    HW166078  14.682  14.700   8.885
54727SOL    HW266079  14.664  14.847   8.852
54728SOL     OW66080   2.891   9.931  12.195
54728SOL    HW166081   2.805   9.919  12.156
54728SOL    HW266082   2.932   9.845  12.190
54729SOL     OW66083   5.746   4.116  10.661
54729SOL    HW166084   5.651   4.119  10.668
54729SOL    HW266085   5.769   4.191  10.607
54730SOL     OW66086   4.555   4.411   3.028
54730SOL    HW166087   4.526   4.353   2.958
54730SOL    HW266088   4.473   4.447   3.064
54731SOL     OW66089   2.702   7.623   9.143
54731SOL    HW166090   2.644   7.574   9.200
54731SOL    HW266091   2.789   7.587   9.160
54732SOL     OW66092   6.918  10.087   2.684
54732SOL    HW166093   6.849  10.022   2.672
54732SOL    HW266094   6.920  10.136   2.602
54733SOL     OW66095  12.360   6.139   9.822
54733SOL    HW166096  12.375   6.080   9.747
54733SOL    HW266097  12.296   6.203   9.790
54734SOL     OW66098   6.721   4.413   0.595
54734SOL    HW166099   6.747   4.417   0.687
54734SOL    HW266100   6.700   4.503   0.572
54735SOL     OW66101   9.646  13.316  11.138
54735SOL    HW166102   9.699  13.351  11.210
54735SOL    HW266103   9.559  13.352  11.153
54736SOL     OW66104   6.592   1.065   8.029
54736SOL    HW166105   6.508   1.030   8.058
54736SOL    HW266106   6.656   1.033   8.093
54737SOL     OW66107   9.417  11.861   0.601
54737SOL    HW166108   9.511  11.856   0.586
54737SOL    HW266109   9.401  11.952   0.626
54738SOL     OW66110  14.591  10.620   0.615
54738SOL    HW166111  14.589  10.706   0.574
54738SOL    HW266112  14.503  10.585   0.602
54739SOL     OW66113   2.424   0.395   0.938
54739SOL    HW166114   2.504   0.364   0.979
54739SOL    HW266115   2.397   0.469   0.993
54740SOL     OW66116  12.318   5.533   6.575
54740SOL    HW166117  12.365   5.587   6.512
54740SOL    HW266118  12.235   5.513   6.532
54741SOL     OW66119  11.028   5.207  13.441
54741SOL    HW166120  11.000   5.261  13.515
54741SOL    HW266121  11.063   5.269  13.378
54742SOL     OW66122   4.803   7.782   1.325
54742SOL    HW166123   4.898   7.795   1.315
54742SOL    HW266124   4.774   7.858   1.376
54743SOL     OW66125   9.546  12.415   3.643
54743SOL    HW166126   9.533  12.469   3.721
54743SOL    HW266127   9.637  12.385   3.648
54744SOL     OW66128   9.533  11.497  11.838
54744SOL    HW166129   9.534  11.420  11.780
54744SOL    HW266130   9.505  11.569  11.781
54745SOL     OW66131   3.107   6.546   3.406
54745SOL    HW166132   3.112   6.476   3.341
54745SOL    HW266133   3.025   6.592   3.386
54746SOL     OW66134  14.751   1.939   8.378
54746SOL    HW166135  14.725   1.870   8.318
54746SOL    HW266136  14.822   1.985   8.333
54747SOL     OW66137   6.005  13.960  14.705
54747SOL    HW166138   5.979  13.894  14.769
54747SOL    HW266139   6.018  14.039  14.757
54748SOL     OW66140   9.837  13.923   8.112
54748SOL    HW166141   9.842  13.864   8.036
54748SOL    HW266142   9.911  13.983   8.101
54749SOL     OW66143   1.096  13.119  11.309
54749SOL    HW166144   1.175  13.077  11.343
54749SOL    HW266145   1.024  13.075  11.355
54750SOL     OW66146   2.809   6.361   7.354
54750SOL    HW166147   2.841   6.414   7.282
54750SOL    HW266148   2.723   6.397   7.375
54751SOL     OW66149   9.581  13.960  12.162
54751SOL    HW166150   9.512  14.005  12.210
54751SOL    HW266151   9.629  14.031  12.119
54752SOL     OW66152   8.427   6.295   2.252
54752SOL    HW166153   8.440   6.384   2.286
54752SOL    HW266154   8.335   6.292   2.226
54753SOL     OW66155   9.735   0.956   3.483
54753SOL    HW166156   9.767   0.873   3.519
54753SOL    HW266157   9.720   0.937   3.390
54754SOL     OW66158  14.859   0.126   3.190
54754SOL    HW166159   0.028   0.061   3.131
54754SOL    HW266160   0.012   0.211   3.151
54755SOL     OW66161  13.513  13.176   3.398
54755SOL    HW166162  13.566  13.213   3.328
54755SOL    HW266163  13.434  13.144   3.355
54756SOL     OW66164   0.424   0.783  14.333
54756SOL    HW166165   0.457   0.720  14.269
54756SOL    HW266166   0.379   0.729  14.399
54757SOL     OW66167   0.205   9.748  13.822
54757SOL    HW166168   0.209   9.790  13.736
54757SOL    HW266169   0.251   9.665  13.811
54758SOL     OW66170   7.160   5.122  12.091
54758SOL    HW166171   7.213   5.201  12.102
54758SOL    HW266172   7.188   5.064  12.161
54759SOL     OW66173   9.752   2.700   1.841
54759SOL    HW166174   9.774   2.757   1.768
54759SOL    HW266175   9.827   2.706   1.900
54760SOL     OW66176  11.374   0.749  14.820
54760SOL    HW166177  11.299   0.783  14.771
54760SOL    HW266178  11.438   0.726  14.753
54761SOL     OW66179   1.017  10.185  12.186
54761SOL    HW166180   1.007  10.120  12.255
54761SOL    HW266181   0.954  10.159  12.119
54762SOL     OW66182   8.588   4.511  12.419
54762SOL    HW166183   8.505   4.468  12.440
54762SOL    HW266184   8.618   4.546  12.502
54763SOL     OW66185   0.327   3.926   4.916
54763SOL    HW166186   0.377   4.006   4.896
54763SOL    HW266187   0.340   3.912   5.009
54764SOL     OW66188   1.152   8.171  12.301
54764SOL    HW166189   1.091   8.173  12.227
54764SOL    HW266190   1.223   8.230  12.275
54765SOL     OW66191  12.551   8.385  13.041
54765SOL    HW166192  12.469   8.418  13.078
54765SOL    HW266193  12.526   8.305  12.995
54766SOL     OW66194   6.621   2.713  14.655
54766SOL    HW166195   6.607   2.771  14.730
54766SOL    HW266196   6.610   2.769  14.578
54767SOL     OW66197   3.660  13.487   9.171
54767SOL    HW166198   3.666  13.394   9.147
54767SOL    HW266199   3.574  13.495   9.212
54768SOL     OW66200   5.053   1.860   4.306
54768SOL    HW166201   5.045   1.811   4.224
54768SOL    HW266202   5.119   1.813   4.356
54769SOL     OW66203   2.498   1.430  10.787
54769SOL    HW166204   2.567   1.400  10.729
54769SOL    HW266205   2.525   1.398  10.874
54770SOL     OW66206   7.385  13.004  14.282
54770SOL    HW166207   7.426  12.966  14.359
54770SOL    HW266208   7.393  12.937  14.214
54771SOL     OW66209  10.956  12.051  14.106
54771SOL    HW166210  10.974  12.008  14.022
54771SOL    HW266211  10.875  12.011  14.136
54772SOL     OW66212  14.359  12.136   0.745
54772SOL    HW166213  14.314  12.103   0.668
54772SOL    HW266214  14.357  12.232   0.735
54773SOL     OW66215   5.721  12.397   2.555
54773SOL    HW166216   5.721  12.302   2.569
54773SOL    HW266217   5.770  12.432   2.629
54774SOL     OW66218   5.247  14.521  11.933
54774SOL    HW166219   5.337  14.513  11.902
54774SOL    HW266220   5.236  14.615  11.950
54775SOL     OW66221   3.743  11.267   0.833
54775SOL    HW166222   3.701  11.308   0.909
54775SOL    HW266223   3.705  11.311   0.758
54776SOL     OW66224  11.363   9.963   5.196
54776SOL    HW166225  11.333  10.052   5.180
54776SOL    HW266226  11.330   9.942   5.283
54777SOL     OW66227   0.343   4.110  12.047
54777SOL    HW166228   0.398   4.040  12.012
54777SOL    HW266229   0.324   4.166  11.972
54778SOL     OW66230   8.333   0.666  10.316
54778SOL    HW166231   8.277   0.615  10.257
54778SOL    HW266232   8.336   0.753  10.275
54779SOL     OW66233  12.254   2.556   8.283
54779SOL    HW166234  12.269   2.613   8.207
54779SOL    HW266235  12.224   2.616   8.352
54780SOL     OW66236   4.541  14.820   8.577
54780SOL    HW166237   4.447  14.804   8.568
54780SOL    HW266238   4.573  14.745   8.628
54781SOL     OW66239  11.637   3.291   6.357
54781SOL    HW166240  11.703   3.300   6.288
54781SOL    HW266241  11.602   3.379   6.368
54782SOL     OW66242   7.641   6.993   2.491
54782SOL    HW166243   7.593   6.994   2.574
54782SOL    HW266244   7.595   7.055   2.435
54783SOL     OW66245  13.762  14.672   7.098
54783SOL    HW166246  13.783  14.661   7.006
54783SOL    HW266247  13.827  14.735   7.130
54784SOL     OW66248   0.780   6.880   2.688
54784SOL    HW166249   0.872   6.904   2.704
54784SOL    HW266250   0.736   6.962   2.669
54785SOL     OW66251   7.850   1.453   1.162
54785SOL    HW166252   7.818   1.470   1.074
54785SOL    HW266253   7.932   1.501   1.168
54786SOL     OW66254  14.406   4.198   5.647
54786SOL    HW166255  14.398   4.137   5.720
54786SOL    HW266256  14.320   4.195   5.604
54787SOL     OW66257   7.485   9.724   5.316
54787SOL    HW166258   7.471   9.653   5.253
54787SOL    HW266259   7.484   9.804   5.263
54788SOL     OW66260   3.625   8.366   2.312
54788SOL    HW166261   3.644   8.273   2.325
54788SOL    HW266262   3.661   8.385   2.225
54789SOL     OW66263  11.162   5.700   9.394
54789SOL    HW166264  11.107   5.640   9.444
54789SOL    HW266265  11.227   5.643   9.352
54790SOL     OW66266  12.235   6.577   5.247
54790SOL    HW166267  12.141   6.597   5.252
54790SOL    HW266268  12.268   6.599   5.335
54791SOL     OW66269  10.829   7.879   4.177
54791SOL    HW166270  10.893   7.869   4.248
54791SOL    HW266271  10.852   7.812   4.113
54792SOL     OW66272  12.396   5.729  11.022
54792SOL    HW166273  12.428   5.804  11.072
54792SOL    HW266274  12.403   5.757  10.931
54793SOL     OW66275   6.215   2.969   3.888
54793SOL    HW166276   6.240   3.056   3.857
54793SOL    HW266277   6.227   2.912   3.812
54794SOL     OW66278   9.044   5.252   9.149
54794SOL    HW166279   8.954   5.220   9.159
54794SOL    HW266280   9.040   5.344   9.175
54795SOL     OW66281  14.496  10.605  10.236
54795SOL    HW166282  14.448  10.681  10.203
54795SOL    HW266283  14.586  10.619  10.207
54796SOL     OW66284  10.782  14.201  11.069
54796SOL    HW166285  10.830  14.281  11.048
54796SOL    HW266286  10.779  14.152  10.987
54797SOL     OW66287   3.671  12.736   2.963
54797SOL    HW166288   3.691  12.780   2.880
54797SOL    HW266289   3.757  12.713   2.999
54798SOL     OW66290   1.432  11.091   8.536
54798SOL    HW166291   1.459  11.174   8.497
54798SOL    HW266292   1.388  11.116   8.618
54799SOL     OW66293  11.093  13.275   3.947
54799SOL    HW166294  11.123  13.188   3.975
54799SOL    HW266295  11.171  13.330   3.951
54800SOL     OW66296   7.804   0.966  13.057
54800SOL    HW166297   7.711   0.973  13.079
54800SOL    HW266298   7.808   0.977  12.962
54801SOL     OW66299  10.715   0.630  13.475
54801SOL    HW166300  10.759   0.704  13.518
54801SOL    HW266301  10.634   0.668  13.440
54802SOL     OW66302  13.304   1.839   1.655
54802SOL    HW166303  13.370   1.775   1.681
54802SOL    HW266304  13.223   1.789   1.647
54803SOL     OW66305   2.831  10.402   3.319
54803SOL    HW166306   2.760  10.460   3.292
54803SOL    HW266307   2.799  10.359   3.398
54804SOL     OW66308  14.411  14.165   6.419
54804SOL    HW166309  14.456  14.160   6.334
54804SOL    HW266310  14.321  14.139   6.399
54805SOL     OW66311   6.436  13.716   5.268
54805SOL    HW166312   6.462  13.793   5.318
54805SOL    HW266313   6.507  13.704   5.204
54806SOL     OW66314   1.430   1.004  11.927
54806SOL    HW166315   1.427   0.938  11.859
54806SOL    HW266316   1.417   1.087  11.881
54807SOL     OW66317   5.073   3.963  11.717
54807SOL    HW166318   5.111   3.929  11.797
54807SOL    HW266319   5.000   3.905  11.698
54808SOL     OW66320   4.659  10.274   1.296
54808SOL    HW166321   4.616  10.359   1.306
54808SOL    HW266322   4.590  10.210   1.313
54809SOL     OW66323   5.286   4.717   0.287
54809SOL    HW166324   5.273   4.684   0.198
54809SOL    HW266325   5.373   4.755   0.286
54810SOL     OW66326  10.257   1.433   5.330
54810SOL    HW166327  10.340   1.468   5.362
54810SOL    HW266328  10.254   1.343   5.364
54811SOL     OW66329  10.658   9.741   8.368
54811SOL    HW166330  10.584   9.764   8.425
54811SOL    HW266331  10.733   9.736   8.427
54812SOL     OW66332   3.558  13.477  12.977
54812SOL    HW166333   3.498  13.440  13.043
54812SOL    HW266334   3.548  13.419  12.901
54813SOL     OW66335   4.332  10.177   8.549
54813SOL    HW166336   4.288  10.115   8.491
54813SOL    HW266337   4.268  10.246   8.564
54814SOL     OW66338   7.798   2.703  11.820
54814SOL    HW166339   7.721   2.662  11.781
54814SOL    HW266340   7.871   2.671  11.768
54815SOL     OW66341   1.770   0.155   4.585
54815SOL    HW166342   1.706   0.190   4.647
54815SOL    HW266343   1.825   0.097   4.639
54816SOL     OW66344   7.455   3.018   6.366
54816SOL    HW166345   7.480   3.026   6.274
54816SOL    HW266346   7.402   2.939   6.370
54817SOL     OW66347  12.605   2.854   7.486
54817SOL    HW166348  12.595   2.761   7.469
54817SOL    HW266349  12.516   2.888   7.489
54818SOL     OW66350   9.378  11.796   8.601
54818SOL    HW166351   9.313  11.836   8.543
54818SOL    HW266352   9.451  11.775   8.543
54819SOL     OW66353   5.831  12.953   5.187
54819SOL    HW166354   5.866  12.864   5.195
54819SOL    HW266355   5.748  12.950   5.236
54820SOL     OW66356   9.477  10.849   7.790
54820SOL    HW166357   9.478  10.770   7.735
54820SOL    HW266358   9.524  10.822   7.869
54821SOL     OW66359  11.416   5.325   8.118
54821SOL    HW166360  11.353   5.253   8.106
54821SOL    HW266361  11.372   5.402   8.081
54822SOL     OW66362   5.256  14.280   1.696
54822SOL    HW166363   5.230  14.216   1.631
54822SOL    HW266364   5.349  14.263   1.711
54823SOL     OW66365   4.771   6.805   4.276
54823SOL    HW166366   4.761   6.898   4.297
54823SOL    HW266367   4.688   6.765   4.303
54824SOL     OW66368   0.799   2.938   3.708
54824SOL    HW166369   0.862   2.875   3.741
54824SOL    HW266370   0.739   2.954   3.781
54825SOL     OW66371   8.365   8.368   3.588
54825SOL    HW166372   8.356   8.365   3.683
54825SOL    HW266373   8.375   8.276   3.562
54826SOL     OW66374   7.753   0.879   5.530
54826SOL    HW166375   7.825   0.835   5.483
54826SOL    HW266376   7.678   0.821   5.518
54827SOL     OW66377   4.570  11.317   2.906
54827SOL    HW166378   4.479  11.299   2.881
54827SOL    HW266379   4.598  11.239   2.952
54828SOL     OW66380   8.099   9.658  14.451
54828SOL    HW166381   8.072   9.593  14.386
54828SOL    HW266382   8.082   9.742  14.408
54829SOL     OW66383   0.383   3.279  10.026
54829SOL    HW166384   0.416   3.366  10.047
54829SOL    HW266385   0.288   3.289  10.025
54830SOL     OW66386   1.508  13.931   3.029
54830SOL    HW166387   1.521  14.003   3.089
54830SOL    HW266388   1.502  13.853   3.085
54831SOL     OW66389   3.185   3.538   1.271
54831SOL    HW166390   3.208   3.554   1.179
54831SOL    HW266391   3.250   3.474   1.300
54832SOL     OW66392   3.578  12.687  13.054
54832SOL    HW166393   3.660  12.735  13.044
54832SOL    HW266394   3.603  12.595  13.048
54833SOL     OW66395   1.162   1.925  10.875
54833SOL    HW166396   1.126   1.990  10.934
54833SOL    HW266397   1.256   1.942  10.876
54834SOL     OW66398   6.679   0.331  14.542
54834SOL    HW166399   6.631   0.352  14.462
54834SOL    HW266400   6.613   0.339  14.612
54835SOL     OW66401   6.722  14.133   2.495
54835SOL    HW166402   6.797  14.184   2.524
54835SOL    HW266403   6.755  14.085   2.418
54836SOL     OW66404   7.804   7.720   4.104
54836SOL    HW166405   7.821   7.814   4.110
54836SOL    HW266406   7.832   7.686   4.189
54837SOL     OW66407  10.961  13.724   6.760
54837SOL    HW166408  10.914  13.679   6.830
54837SOL    HW266409  11.022  13.659   6.726
54838SOL     OW66410   4.560   1.056   1.735
54838SOL    HW166411   4.532   1.038   1.824
54838SOL    HW266412   4.622   1.129   1.744
54839SOL     OW66413   2.697  10.950   7.787
54839SOL    HW166414   2.666  11.040   7.794
54839SOL    HW266415   2.661  10.919   7.703
54840SOL     OW66416   1.984   0.632   2.061
54840SOL    HW166417   1.912   0.614   2.001
54840SOL    HW266418   1.951   0.700   2.119
54841SOL     OW66419  13.064   6.841  11.703
54841SOL    HW166420  13.112   6.762  11.675
54841SOL    HW266421  13.060   6.833  11.798
54842SOL     OW66422   9.566   4.854  13.075
54842SOL    HW166423   9.510   4.821  13.005
54842SOL    HW266424   9.573   4.948  13.057
54843SOL     OW66425   6.202   3.576   8.185
54843SOL    HW166426   6.118   3.616   8.209
54843SOL    HW266427   6.267   3.641   8.212
54844SOL     OW66428   4.402   5.623   0.053
54844SOL    HW166429   4.441   5.598   0.136
54844SOL    HW266430   4.374   5.714   0.065
54845SOL     OW66431  11.317  12.038  12.243
54845SOL    HW166432  11.378  11.965  12.238
54845SOL    HW266433  11.250  12.019  12.178
54846SOL     OW66434   9.805   2.496   4.903
54846SOL    HW166435   9.828   2.494   4.810
54846SOL    HW266436   9.785   2.406   4.925
54847SOL     OW66437   3.361   0.232  11.489
54847SOL    HW166438   3.281   0.194  11.453
54847SOL    HW266439   3.353   0.326  11.470
54848SOL     OW66440   8.647   8.638   4.067
54848SOL    HW166441   8.630   8.612   3.977
54848SOL    HW266442   8.561   8.645   4.107
54849SOL     OW66443   1.257   8.487  11.077
54849SOL    HW166444   1.348   8.507  11.055
54849SOL    HW266445   1.250   8.507  11.171
54850SOL     OW66446  13.644   5.791  14.201
54850SOL    HW166447  13.567   5.780  14.145
54850SOL    HW266448  13.640   5.882  14.230
54851SOL     OW66449   2.490   4.256  10.446
54851SOL    HW166450   2.456   4.170  10.472
54851SOL    HW266451   2.519   4.244  10.356
54852SOL     OW66452  10.987  12.367   7.344
54852SOL    HW166453  10.947  12.453   7.352
54852SOL    HW266454  11.081  12.382   7.356
54853SOL     OW66455   8.651   1.899   2.257
54853SOL    HW166456   8.721   1.959   2.283
54853SOL    HW266457   8.629   1.851   2.337
54854SOL     OW66458  10.484  10.537  12.536
54854SOL    HW166459  10.513  10.509  12.623
54854SOL    HW266460  10.555  10.593  12.505
54855SOL     OW66461   9.637   1.177   1.155
54855SOL    HW166462   9.597   1.199   1.071
54855SOL    HW266463   9.568   1.128   1.202
54856SOL     OW66464   3.962  10.657   3.814
54856SOL    HW166465   3.960  10.562   3.827
54856SOL    HW266466   3.912  10.671   3.734
54857SOL     OW66467  13.751   9.266   1.224
54857SOL    HW166468  13.755   9.179   1.185
54857SOL    HW266469  13.739   9.325   1.149
54858SOL     OW66470   3.737  11.172   1.439
54858SOL    HW166471   3.803  11.151   1.504
54858SOL    HW266472   3.727  11.267   1.444
54859SOL     OW66473   7.908   8.483   1.055
54859SOL    HW166474   7.996   8.446   1.048
54859SOL    HW266475   7.858   8.441   0.986
54860SOL     OW66476   8.091   9.832   4.192
54860SOL    HW166477   8.034   9.897   4.234
54860SOL    HW266478   8.049   9.814   4.108
54861SOL     OW66479  14.256  10.946  14.137
54861SOL    HW166480  14.218  10.985  14.058
54861SOL    HW266481  14.266  11.019  14.198
54862SOL     OW66482   6.660   7.837   7.060
54862SOL    HW166483   6.599   7.765   7.078
54862SOL    HW266484   6.629   7.909   7.114
54863SOL     OW66485  14.583   1.425  10.416
54863SOL    HW166486  14.662   1.465  10.452
54863SOL    HW266487  14.601   1.419  10.322
54864SOL     OW66488   8.329  14.127   4.324
54864SOL    HW166489   8.246  14.134   4.277
54864SOL    HW266490   8.304  14.125   4.416
54865SOL     OW66491   6.222   0.207  13.648
54865SOL    HW166492   6.257   0.295  13.632
54865SOL    HW266493   6.285   0.148  13.608
54866SOL     OW66494   1.562   7.957  14.724
54866SOL    HW166495   1.478   7.940  14.680
54866SOL    HW266496   1.610   8.013  14.663
54867SOL     OW66497   7.536  13.359  12.987
54867SOL    HW166498   7.446  13.386  13.003
54867SOL    HW266499   7.583  13.384  13.067
54868SOL     OW66500   1.270   7.091   8.450
54868SOL    HW166501   1.311   7.141   8.520
54868SOL    HW266502   1.333   7.022   8.429
54869SOL     OW66503  12.231   8.623  12.695
54869SOL    HW166504  12.271   8.707  12.714
54869SOL    HW266505  12.198   8.591  12.779
54870SOL     OW66506  13.289  13.338   1.197
54870SOL    HW166507  13.344  13.411   1.224
54870SOL    HW266508  13.343  13.260   1.214
54871SOL     OW66509   2.051   0.646   9.352
54871SOL    HW166510   2.075   0.570   9.299
54871SOL    HW266511   2.100   0.635   9.433
54872SOL     OW66512   6.735  13.502  13.145
54872SOL    HW166513   6.700  13.462  13.065
54872SOL    HW266514   6.711  13.442  13.215
54873SOL     OW66515  14.360   2.946   5.128
54873SOL    HW166516  14.271   2.967   5.100
54873SOL    HW266517  14.403   2.911   5.049
54874SOL     OW66518   8.345  12.264   9.381
54874SOL    HW166519   8.377  12.187   9.335
54874SOL    HW266520   8.255  12.275   9.352
54875SOL     OW66521   2.191  14.743   7.153
54875SOL    HW166522   2.170  14.820   7.207
54875SOL    HW266523   2.284  14.730   7.166
54876SOL     OW66524   9.574   5.622  10.557
54876SOL    HW166525   9.498   5.674  10.531
54876SOL    HW266526   9.642   5.687  10.575
54877SOL     OW66527   5.940  11.715   1.273
54877SOL    HW166528   5.998  11.785   1.302
54877SOL    HW266529   5.854  11.756   1.263
54878SOL     OW66530   3.417   9.283   1.110
54878SOL    HW166531   3.421   9.369   1.067
54878SOL    HW266532   3.329   9.251   1.090
54879SOL     OW66533   3.591   8.266   3.710
54879SOL    HW166534   3.621   8.287   3.621
54879SOL    HW266535   3.612   8.173   3.721
54880SOL     OW66536  14.321   5.079   8.757
54880SOL    HW166537  14.323   5.159   8.704
54880SOL    HW266538  14.286   5.012   8.699
54881SOL     OW66539   1.079  12.179  10.486
54881SOL    HW166540   1.052  12.101  10.437
54881SOL    HW266541   1.092  12.245  10.418
54882SOL     OW66542   6.758  10.256   1.961
54882SOL    HW166543   6.720  10.232   1.877
54882SOL    HW266544   6.820  10.186   1.980
54883SOL     OW66545   8.630  12.548   4.978
54883SOL    HW166546   8.693  12.493   5.025
54883SOL    HW266547   8.547  12.532   5.023
54884SOL     OW66548   1.771  14.060  14.323
54884SOL    HW166549   1.837  14.015  14.375
54884SOL    HW266550   1.736  13.993  14.265
54885SOL     OW66551  11.729   1.316   5.811
54885SOL    HW166552  11.652   1.336   5.757
54885SOL    HW266553  11.696   1.313   5.900
54886SOL     OW66554   9.705  14.270  12.949
54886SOL    HW166555   9.707  14.269  13.045
54886SOL    HW266556   9.652  14.194  12.926
54887SOL     OW66557   0.056   3.830  13.791
54887SOL    HW166558   0.008   3.866  13.717
54887SOL    HW266559   0.026   3.740  13.798
54888SOL     OW66560  11.888  12.468  10.287
54888SOL    HW166561  11.840  12.499  10.211
54888SOL    HW266562  11.821  12.434  10.346
54889SOL     OW66563   8.923  12.008  10.868
54889SOL    HW166564   8.833  11.981  10.889
54889SOL    HW266565   8.915  12.100  10.842
54890SOL     OW66566  10.688   9.931  11.879
54890SOL    HW166567  10.664   9.963  11.792
54890SOL    HW266568  10.784   9.931  11.880
54891SOL     OW66569   8.902   3.494   6.259
54891SOL    HW166570   8.892   3.495   6.354
54891SOL    HW266571   8.817   3.522   6.225
54892SOL     OW66572  10.626   7.461   8.959
54892SOL    HW166573  10.590   7.432   8.875
54892SOL    HW266574  10.667   7.384   8.997
54893SOL     OW66575  10.615   7.061   7.750
54893SOL    HW166576  10.631   7.006   7.827
54893SOL    HW266577  10.536   7.110   7.772
54894SOL     OW66578   7.101   5.613   6.004
54894SOL    HW166579   7.043   5.627   6.078
54894SOL    HW266580   7.140   5.699   5.986
54895SOL     OW66581   7.369   9.698  10.416
54895SOL    HW166582   7.318   9.778  10.427
54895SOL    HW266583   7.445   9.725  10.363
54896SOL     OW66584  12.674   4.309   1.144
54896SOL    HW166585  12.581   4.320   1.161
54896SOL    HW266586  12.716   4.330   1.228
54897SOL     OW66587  12.733  14.742   9.934
54897SOL    HW166588  12.771  14.828   9.920
54897SOL    HW266589  12.644  14.759   9.963
54898SOL     OW66590   5.905   6.890  11.398
54898SOL    HW166591   5.885   6.929  11.483
54898SOL    HW266592   5.909   6.796  11.415
54899SOL     OW66593  13.620   1.702   4.377
54899SOL    HW166594  13.569   1.719   4.456
54899SOL    HW266595  13.683   1.635   4.403
54900SOL     OW66596  11.693  12.074   1.945
54900SOL    HW166597  11.714  12.037   1.860
54900SOL    HW266598  11.766  12.133   1.965
54901SOL     OW66599  14.502  12.419   0.213
54901SOL    HW166600  14.534  12.474   0.141
54901SOL    HW266601  14.499  12.477   0.288
54902SOL     OW66602   2.693   3.994   2.773
54902SOL    HW166603   2.675   4.040   2.855
54902SOL    HW266604   2.788   3.981   2.773
54903SOL     OW66605  14.294   9.253   8.654
54903SOL    HW166606  14.382   9.267   8.618
54903SOL    HW266607  14.298   9.291   8.742
54904SOL     OW66608   9.990  11.335   1.256
54904SOL    HW166609   9.903  11.298   1.269
54904SOL    HW266610   9.991  11.414   1.310
54905SOL     OW66611  14.319  12.036   7.187
54905SOL    HW166612  14.227  12.059   7.172
54905SOL    HW266613  14.342  12.081   7.268
54906SOL     OW66614   4.897  13.042   2.717
54906SOL    HW166615   4.846  12.970   2.679
54906SOL    HW266616   4.839  13.079   2.784
54907SOL     OW66617  10.658   8.644   3.679
54907SOL    HW166618  10.676   8.708   3.611
54907SOL    HW266619  10.592   8.685   3.735
54908SOL     OW66620  12.321  13.476  11.815
54908SOL    HW166621  12.348  13.549  11.759
54908SOL    HW266622  12.246  13.438  11.769
54909SOL     OW66623   0.767   1.734   4.795
54909SOL    HW166624   0.693   1.674   4.803
54909SOL    HW266625   0.840   1.679   4.768
54910SOL     OW66626  10.784   0.387   6.477
54910SOL    HW166627  10.805   0.377   6.570
54910SOL    HW266628  10.851   0.447   6.444
54911SOL     OW66629   4.349   8.388   5.721
54911SOL    HW166630   4.394   8.304   5.718
54911SOL    HW266631   4.370   8.424   5.808
54912SOL     OW66632   1.611   3.043   4.113
54912SOL    HW166633   1.657   2.971   4.157
54912SOL    HW266634   1.539   3.000   4.067
54913SOL     OW66635  12.745   6.595   2.038
54913SOL    HW166636  12.696   6.551   1.968
54913SOL    HW266637  12.749   6.687   2.010
54914SOL     OW66638  10.173  11.052   6.876
54914SOL    HW166639  10.144  10.990   6.942
54914SOL    HW266640  10.133  11.020   6.795
54915SOL     OW66641  10.556   0.002  12.672
54915SOL    HW166642  10.483  14.814  12.695
54915SOL    HW266643  10.630  14.812  12.660
54916SOL     OW66644   7.867   8.756   1.927
54916SOL    HW166645   7.801   8.818   1.896
54916SOL    HW266646   7.893   8.707   1.849
54917SOL     OW66647  11.109   8.173   1.906
54917SOL    HW166648  11.182   8.221   1.945
54917SOL    HW266649  11.104   8.206   1.816
54918SOL     OW66650  11.466   7.179  13.767
54918SOL    HW166651  11.409   7.183  13.844
54918SOL    HW266652  11.408   7.155  13.695
54919SOL     OW66653   3.342   4.907  13.655
54919SOL    HW166654   3.385   4.974  13.602
54919SOL    HW266655   3.248   4.923  13.644
54920SOL     OW66656   5.387  10.706   1.035
54920SOL    HW166657   5.463  10.651   1.013
54920SOL    HW266658   5.419  10.766   1.102
54921SOL     OW66659   6.311  14.081   1.052
54921SOL    HW166660   6.389  14.131   1.073
54921SOL    HW266661   6.251  14.144   1.013
54922SOL     OW66662   3.523   6.463  11.115
54922SOL    HW166663   3.616   6.442  11.113
54922SOL    HW266664   3.486   6.404  11.181
54923SOL     OW66665   0.155  11.854   1.683
54923SOL    HW166666   0.075  11.883   1.726
54923SOL    HW266667   0.136  11.862   1.589
54924SOL     OW66668  10.386   5.991   5.867
54924SOL    HW166669  10.420   6.024   5.950
54924SOL    HW266670  10.409   6.059   5.803
54925SOL     OW66671  10.122  13.254  14.659
54925SOL    HW166672  10.087  13.273  14.746
54925SOL    HW266673  10.051  13.276  14.599
54926SOL     OW66674   5.941   0.404   0.084
54926SOL    HW166675   5.983   0.470   0.139
54926SOL    HW266676   5.950   0.438  14.865
54927SOL     OW66677  11.062   3.673   5.237
54927SOL    HW166678  11.096   3.704   5.154
54927SOL    HW266679  11.128   3.699   5.302
54928SOL     OW66680   3.351  12.575   8.055
54928SOL    HW166681   3.262  12.547   8.079
54928SOL    HW266682   3.395  12.587   8.139
54929SOL     OW66683   5.646   4.399  13.558
54929SOL    HW166684   5.713   4.468  13.565
54929SOL    HW266685   5.695   4.318  13.572
54930SOL     OW66686   1.980  10.228  14.033
54930SOL    HW166687   2.004  10.282  13.957
54930SOL    HW266688   1.950  10.290  14.098
54931SOL     OW66689   9.207   6.227   5.625
54931SOL    HW166690   9.142   6.261   5.686
54931SOL    HW266691   9.281   6.203   5.680
54932SOL     OW66692   7.049   3.442  13.164
54932SOL    HW166693   7.052   3.411  13.074
54932SOL    HW266694   6.956   3.454  13.182
54933SOL     OW66695  12.778   4.646   6.307
54933SOL    HW166696  12.800   4.678   6.394
54933SOL    HW266697  12.770   4.725   6.254
54934SOL     OW66698   5.624   1.693   2.612
54934SOL    HW166699   5.661   1.773   2.650
54934SOL    HW266700   5.542   1.679   2.658
54935SOL     OW66701  10.805  11.787  10.626
54935SOL    HW166702  10.770  11.795  10.538
54935SOL    HW266703  10.881  11.730  10.616
54936SOL     OW66704  14.186   6.447   6.154
54936SOL    HW166705  14.177   6.534   6.115
54936SOL    HW266706  14.113   6.441   6.216
54937SOL     OW66707   6.604   7.239  10.548
54937SOL    HW166708   6.542   7.177  10.510
54937SOL    HW266709   6.554   7.320  10.559
54938SOL     OW66710  10.974  12.206   8.626
54938SOL    HW166711  10.936  12.128   8.667
54938SOL    HW266712  10.944  12.201   8.535
54939SOL     OW66713  13.367  13.431  10.574
54939SOL    HW166714  13.382  13.449  10.481
54939SOL    HW266715  13.326  13.344  10.575
54940SOL     OW66716   5.902   4.086  12.409
54940SOL    HW166717   5.993   4.115  12.421
54940SOL    HW266718   5.850   4.151  12.456
54941SOL     OW66719   5.819  14.275   4.773
54941SOL    HW166720   5.780  14.362   4.758
54941SOL    HW266721   5.757  14.214   4.731
54942SOL     OW66722   6.460   1.068   5.034
54942SOL    HW166723   6.519   1.054   4.959
54942SOL    HW266724   6.493   1.007   5.101
54943SOL     OW66725   7.077   1.945   5.296
54943SOL    HW166726   7.141   2.016   5.295
54943SOL    HW266727   7.068   1.922   5.388
54944SOL     OW66728   5.510  12.060  14.720
54944SOL    HW166729   5.594  12.092  14.689
54944SOL    HW266730   5.479  12.128  14.780
54945SOL     OW66731   7.698   8.708  10.442
54945SOL    HW166732   7.616   8.728  10.488
54945SOL    HW266733   7.679   8.727  10.350
54946SOL     OW66734  14.783   8.000   3.781
54946SOL    HW166735  14.706   8.032   3.827
54946SOL    HW266736  14.847   8.070   3.789
54947SOL     OW66737   1.863   2.130  13.559
54947SOL    HW166738   1.931   2.116  13.493
54947SOL    HW266739   1.906   2.182  13.627
54948SOL     OW66740   2.443   5.456  14.858
54948SOL    HW166741   2.492   5.502   0.055
54948SOL    HW266742   2.507   5.438  14.789
54949SOL     OW66743   7.940   7.306   3.164
54949SOL    HW166744   8.036   7.311   3.169
54949SOL    HW266745   7.910   7.351   3.243
54950SOL     OW66746   2.045  10.056   8.479
54950SOL    HW166747   2.112  10.040   8.413
54950SOL    HW266748   2.030  10.150   8.476
54951SOL     OW66749  10.621   4.525   1.760
54951SOL    HW166750  10.679   4.578   1.816
54951SOL    HW266751  10.653   4.541   1.671
54952SOL     OW66752   1.977   9.144   6.783
54952SOL    HW166753   1.952   9.212   6.846
54952SOL    HW266754   2.036   9.189   6.722
54953SOL     OW66755   7.960   1.727   4.587
54953SOL    HW166756   7.904   1.794   4.548
54953SOL    HW266757   7.905   1.649   4.592
54954SOL     OW66758   6.945   4.220   0.153
54954SOL    HW166759   6.983   4.133   0.140
54954SOL    HW266760   6.908   4.218   0.241
54955SOL     OW66761  14.191   3.888   0.123
54955SOL    HW166762  14.220   3.902   0.033
54955SOL    HW266763  14.202   3.794   0.138
54956SOL     OW66764   9.667   2.286  14.779
54956SOL    HW166765   9.708   2.361  14.823
54956SOL    HW266766   9.578   2.284  14.816
54957SOL     OW66767   9.119   9.126  13.688
54957SOL    HW166768   9.075   9.169  13.762
54957SOL    HW266769   9.059   9.138  13.614
54958SOL     OW66770  14.511   4.271   6.502
54958SOL    HW166771  14.553   4.319   6.573
54958SOL    HW266772  14.424   4.309   6.495
54959SOL     OW66773   2.803   3.525  11.880
54959SOL    HW166774   2.759   3.582  11.943
54959SOL    HW266775   2.864   3.583  11.834
54960SOL     OW66776  13.773   0.587   6.496
54960SOL    HW166777  13.707   0.651   6.472
54960SOL    HW266778  13.828   0.578   6.417
54961SOL     OW66779  13.991  14.847   1.303
54961SOL    HW166780  14.022   0.013   1.386
54961SOL    HW266781  13.942  14.769   1.327
54962SOL     OW66782   5.982   2.344  10.863
54962SOL    HW166783   5.894   2.325  10.897
54962SOL    HW266784   6.037   2.346  10.941
54963SOL     OW66785   3.040   8.576  13.312
54963SOL    HW166786   3.108   8.527  13.266
54963SOL    HW266787   3.080   8.598  13.396
54964SOL     OW66788  12.958   1.673   0.554
54964SOL    HW166789  12.944   1.613   0.627
54964SOL    HW266790  13.048   1.655   0.525
54965SOL     OW66791  14.268   1.183   5.983
54965SOL    HW166792  14.193   1.165   5.925
54965SOL    HW266793  14.267   1.278   5.994
54966SOL     OW66794   4.241   4.870   4.583
54966SOL    HW166795   4.297   4.943   4.558
54966SOL    HW266796   4.235   4.875   4.678
54967SOL     OW66797  10.042  14.161   9.941
54967SOL    HW166798   9.973  14.207   9.893
54967SOL    HW266799  10.099  14.231   9.973
54968SOL     OW66800   1.340   4.497  13.145
54968SOL    HW166801   1.325   4.455  13.060
54968SOL    HW266802   1.303   4.437  13.209
54969SOL     OW66803   5.043  11.729  13.352
54969SOL    HW166804   5.065  11.820  13.372
54969SOL    HW266805   4.962  11.713  13.401
54970SOL     OW66806   9.700   2.332   6.437
54970SOL    HW166807   9.764   2.389   6.478
54970SOL    HW266808   9.704   2.353   6.344
54971SOL     OW66809  11.551   7.528  11.083
54971SOL    HW166810  11.490   7.581  11.031
54971SOL    HW266811  11.561   7.447  11.034
54972SOL     OW66812  10.101   6.838  14.172
54972SOL    HW166813  10.142   6.869  14.092
54972SOL    HW266814  10.076   6.747  14.153
54973SOL     OW66815  10.855   0.868  14.090
54973SOL    HW166816  10.797   0.921  14.145
54973SOL    HW266817  10.927   0.928  14.067
54974SOL     OW66818   4.972   2.764   6.145
54974SOL    HW166819   5.016   2.754   6.060
54974SOL    HW266820   4.880   2.775   6.123
54975SOL     OW66821   8.805   6.604  12.876
54975SOL    HW166822   8.835   6.535  12.936
54975SOL    HW266823   8.815   6.567  12.789
54976SOL     OW66824   0.168   1.854   6.531
54976SOL    HW166825   0.154   1.878   6.623
54976SOL    HW266826   0.096   1.896   6.484
54977SOL     OW66827  12.848  12.760   8.262
54977SOL    HW166828  12.850  12.697   8.334
54977SOL    HW266829  12.758  12.795   8.263
54978SOL     OW66830   0.326   9.122   8.313
54978SOL    HW166831   0.245   9.158   8.350
54978SOL    HW266832   0.361   9.192   8.258
54979SOL     OW66833   0.163   3.870   8.349
54979SOL    HW166834   0.196   3.940   8.406
54979SOL    HW266835   0.079   3.903   8.318
54980SOL     OW66836   2.585   1.615   2.539
54980SOL    HW166837   2.662   1.611   2.482
54980SOL    HW266838   2.538   1.694   2.511
54981SOL     OW66839   5.932   1.327   1.884
54981SOL    HW166840   5.929   1.331   1.979
54981SOL    HW266841   5.995   1.395   1.859
54982SOL     OW66842   4.685   1.433   7.712
54982SOL    HW166843   4.720   1.345   7.695
54982SOL    HW266844   4.651   1.462   7.627
54983SOL     OW66845   1.340   3.458   6.688
54983SOL    HW166846   1.389   3.498   6.760
54983SOL    HW266847   1.248   3.469   6.712
54984SOL     OW66848   5.787  12.676   4.134
54984SOL    HW166849   5.826  12.663   4.221
54984SOL    HW266850   5.841  12.744   4.094
54985SOL     OW66851  12.370  11.527   4.050
54985SOL    HW166852  12.458  11.515   4.015
54985SOL    HW266853  12.350  11.443   4.092
54986SOL     OW66854   7.700  13.428   1.248
54986SOL    HW166855   7.764  13.424   1.178
54986SOL    HW266856   7.720  13.352   1.304
54987SOL     OW66857  10.110   9.323   7.731
54987SOL    HW166858  10.197   9.362   7.738
54987SOL    HW266859  10.075   9.328   7.820
54988SOL     OW66860  14.177  14.683  12.691
54988SOL    HW166861  14.264  14.716  12.668
54988SOL    HW266862  14.117  14.741  12.644
54989SOL     OW66863   7.485   4.067   0.464
54989SOL    HW166864   7.521   4.059   0.553
54989SOL    HW266865   7.531   4.142   0.426
54990SOL     OW66866   4.407   6.599  13.303
54990SOL    HW166867   4.494   6.565  13.324
54990SOL    HW266868   4.392   6.668  13.368
54991SOL     OW66869  12.324   4.283  13.279
54991SOL    HW166870  12.295   4.281  13.188
54991SOL    HW266871  12.341   4.191  13.301
54992SOL     OW66872  12.534  11.351   6.188
54992SOL    HW166873  12.457  11.408   6.194
54992SOL    HW266874  12.502  11.266   6.217
54993SOL     OW66875   6.337   4.376   3.540
54993SOL    HW166876   6.400   4.440   3.508
54993SOL    HW266877   6.385   4.324   3.604
54994SOL     OW66878   3.326  13.572   3.119
54994SOL    HW166879   3.338  13.614   3.034
54994SOL    HW266880   3.242  13.525   3.111
54995SOL     OW66881   1.515   0.814   8.253
54995SOL    HW166882   1.464   0.872   8.310
54995SOL    HW266883   1.449   0.766   8.203
54996SOL     OW66884  13.736  14.699  12.780
54996SOL    HW166885  13.762  14.710  12.688
54996SOL    HW266886  13.776  14.774  12.825
54997SOL     OW66887   7.350   6.063  13.064
54997SOL    HW166888   7.291   6.130  13.101
54997SOL    HW266889   7.326   6.059  12.972
54998SOL     OW66890   1.221  11.651  11.807
54998SOL    HW166891   1.129  11.636  11.789
54998SOL    HW266892   1.229  11.746  11.815
54999SOL     OW66893  11.382  10.643   4.547
54999SOL    HW166894  11.424  10.725   4.522
54999SOL    HW266895  11.434  10.611   4.621
55000SOL     OW66896   1.113   5.229   2.045
55000SOL    HW166897   1.073   5.240   2.131
55000SOL    HW266898   1.184   5.294   2.042
55001SOL     OW66899  10.731   6.051   8.233
55001SOL    HW166900  10.695   6.040   8.321
55001SOL    HW266901  10.685   6.128   8.198
55002SOL     OW66902   9.551   0.679   0.060
55002SOL    HW166903   9.462   0.715   0.066
55002SOL    HW266904   9.541   0.589   0.091
55003SOL     OW66905   4.287   4.640  10.042
55003SOL    HW166906   4.216   4.696  10.010
55003SOL    HW266907   4.366   4.679  10.004
55004SOL     OW66908   6.986   8.470   3.720
55004SOL    HW166909   6.898   8.466   3.683
55004SOL    HW266910   7.027   8.387   3.695
55005SOL     OW66911  11.125  10.854  13.308
55005SOL    HW166912  11.037  10.880  13.280
55005SOL    HW266913  11.138  10.898  13.392
55006SOL     OW66914   2.700   4.502   7.735
55006SOL    HW166915   2.792   4.522   7.721
55006SOL    HW266916   2.701   4.425   7.792
55007SOL     OW66917  11.281   4.999   3.265
55007SOL    HW166918  11.256   5.091   3.270
55007SOL    HW266919  11.272   4.967   3.354
55008SOL     OW66920   8.399  13.833  12.934
55008SOL    HW166921   8.467  13.833  12.867
55008SOL    HW266922   8.347  13.911  12.915
55009SOL     OW66923   5.467   6.053   8.655
55009SOL    HW166924   5.455   6.148   8.643
55009SOL    HW266925   5.523   6.027   8.582
55010SOL     OW66926  14.510   4.544  12.525
55010SOL    HW166927  14.419   4.570  12.541
55010SOL    HW266928  14.560   4.593  12.590
55011SOL     OW66929   1.847   0.955   4.144
55011SOL    HW166930   1.783   1.016   4.108
55011SOL    HW266931   1.924   1.008   4.162
55012SOL     OW66932   2.193   0.469   7.352
55012SOL    HW166933   2.145   0.540   7.395
55012SOL    HW266934   2.129   0.398   7.346
55013SOL     OW66935  10.147  11.783  14.839
55013SOL    HW166936  10.140  11.689  14.822
55013SOL    HW266937  10.066  11.804   0.016
55014SOL     OW66938   2.029  12.029   1.143
55014SOL    HW166939   1.997  12.018   1.053
55014SOL    HW266940   2.119  12.061   1.133
55015SOL     OW66941   7.559   1.773  12.718
55015SOL    HW166942   7.614   1.836  12.764
55015SOL    HW266943   7.586   1.781  12.626
55016SOL     OW66944   7.367  13.577  13.564
55016SOL    HW166945   7.329  13.660  13.594
55016SOL    HW266946   7.347  13.575  13.470
55017SOL     OW66947   2.365   4.903   2.037
55017SOL    HW166948   2.377   4.947   2.122
55017SOL    HW266949   2.321   4.968   1.983
55018SOL     OW66950  14.310  10.059   0.165
55018SOL    HW166951  14.388  10.113   0.178
55018SOL    HW266952  14.322   9.985   0.225
55019SOL     OW66953   2.174   9.823  12.025
55019SOL    HW166954   2.135   9.895  12.074
55019SOL    HW266955   2.099   9.767  12.002
55020SOL     OW66956  10.344   7.675   9.269
55020SOL    HW166957  10.377   7.649   9.183
55020SOL    HW266958  10.403   7.745   9.297
55021SOL     OW66959  12.429   4.032   9.175
55021SOL    HW166960  12.398   4.091   9.106
55021SOL    HW266961  12.517   4.007   9.148
55022SOL     OW66962  14.359   7.293  13.650
55022SOL    HW166963  14.417   7.341  13.709
55022SOL    HW266964  14.341   7.211  13.696
55023SOL     OW66965   0.140   9.028   4.041
55023SOL    HW166966   0.087   9.016   4.120
55023SOL    HW266967   0.078   9.053   3.973
55024SOL     OW66968   2.962   1.401   0.371
55024SOL    HW166969   3.015   1.480   0.382
55024SOL    HW266970   2.935   1.377   0.460
55025SOL     OW66971   1.712   2.622   2.501
55025SOL    HW166972   1.668   2.539   2.521
55025SOL    HW266973   1.641   2.681   2.475
55026SOL     OW66974   2.186   6.770   8.285
55026SOL    HW166975   2.215   6.679   8.292
55026SOL    HW266976   2.100   6.765   8.243
55027SOL     OW66977  10.301   1.716   4.899
55027SOL    HW166978  10.367   1.755   4.842
55027SOL    HW266979  10.230   1.779   4.900
55028SOL     OW66980   6.713   8.034  10.769
55028SOL    HW166981   6.757   8.060  10.851
55028SOL    HW266982   6.777   8.052  10.701
55029SOL     OW66983  14.381   6.937  10.094
55029SOL    HW166984  14.311   6.935  10.159
55029SOL    HW266985  14.430   7.017  10.115
55030SOL     OW66986   1.626   3.841  13.688
55030SOL    HW166987   1.641   3.766  13.630
55030SOL    HW266988   1.711   3.883  13.697
55031SOL     OW66989  13.040   4.807   4.824
55031SOL    HW166990  12.988   4.726   4.826
55031SOL    HW266991  12.979   4.875   4.797
55032SOL     OW66992   5.085  11.941   2.996
55032SOL    HW166993   5.135  11.991   2.931
55032SOL    HW266994   5.046  11.869   2.946
55033SOL     OW66995   4.120   2.170   5.740
55033SOL    HW166996   4.074   2.181   5.657
55033SOL    HW266997   4.206   2.136   5.715
55034SOL     OW66998   2.956   7.363   8.564
55034SOL    HW166999   3.035   7.417   8.566
55034SOL    HW267000   2.963   7.314   8.482
55035SOL     OW67001   1.185  10.014   4.609
55035SOL    HW167002   1.257   9.965   4.649
55035SOL    HW267003   1.128   9.947   4.571
55036SOL     OW67004   1.656   6.904  13.036
55036SOL    HW167005   1.671   6.892  12.942
55036SOL    HW267006   1.705   6.982  13.059
55037SOL     OW67007  13.483  13.091  14.293
55037SOL    HW167008  13.531  13.116  14.214
55037SOL    HW267009  13.541  13.028  14.337
55038SOL     OW67010   4.258   4.163  11.506
55038SOL    HW167011   4.328   4.119  11.554
55038SOL    HW267012   4.180   4.150  11.561
55039SOL     OW67013   8.106  10.126  13.620
55039SOL    HW167014   8.164  10.115  13.695
55039SOL    HW267015   8.149  10.077  13.549
55040SOL     OW67016   6.701   1.290   5.045
55040SOL    HW167017   6.627   1.351   5.050
55040SOL    HW267018   6.663   1.208   5.014
55041SOL     OW67019  12.964   3.963   4.584
55041SOL    HW167020  13.002   3.928   4.503
55041SOL    HW267021  12.968   4.058   4.574
55042SOL     OW67022   5.314   8.316   0.773
55042SOL    HW167023   5.270   8.233   0.753
55042SOL    HW267024   5.375   8.295   0.843
55043SOL     OW67025   1.775   5.705   7.975
55043SOL    HW167026   1.750   5.733   7.887
55043SOL    HW267027   1.870   5.713   7.977
55044SOL     OW67028   1.263   1.070   6.483
55044SOL    HW167029   1.314   1.052   6.404
55044SOL    HW267030   1.209   0.993   6.495
55045SOL     OW67031   5.854  10.454   3.085
55045SOL    HW167032   5.892  10.522   3.029
55045SOL    HW267033   5.769  10.435   3.045
55046SOL     OW67034   8.872   4.748   6.966
55046SOL    HW167035   8.951   4.799   6.985
55046SOL    HW267036   8.864   4.688   7.040
55047SOL     OW67037   6.218  12.028  13.730
55047SOL    HW167038   6.132  12.003  13.698
55047SOL    HW267039   6.275  11.955  13.704
55048SOL     OW67040  13.130  11.860   4.306
55048SOL    HW167041  13.113  11.951   4.332
55048SOL    HW267042  13.148  11.816   4.389
55049SOL     OW67043   2.544  13.362   1.482
55049SOL    HW167044   2.604  13.392   1.414
55049SOL    HW267045   2.457  13.387   1.450
55050SOL     OW67046  10.721   3.980  10.417
55050SOL    HW167047  10.682   3.959  10.332
55050SOL    HW267048  10.683   4.065  10.439
55051SOL     OW67049  11.662  14.686   8.927
55051SOL    HW167050  11.628  14.723   8.845
55051SOL    HW267051  11.667  14.761   8.986
55052SOL     OW67052   4.390   5.515  12.799
55052SOL    HW167053   4.417   5.594  12.753
55052SOL    HW267054   4.366   5.545  12.887
55053SOL     OW67055  10.602  13.876   9.592
55053SOL    HW167056  10.568  13.891   9.680
55053SOL    HW267057  10.595  13.961   9.548
55054SOL     OW67058  10.349  14.427   7.237
55054SOL    HW167059  10.312  14.399   7.321
55054SOL    HW267060  10.414  14.493   7.261
55055SOL     OW67061   8.057   8.716   4.337
55055SOL    HW167062   8.030   8.807   4.353
55055SOL    HW267063   8.072   8.712   4.243
55056SOL     OW67064   8.607   7.469   8.361
55056SOL    HW167065   8.534   7.524   8.334
55056SOL    HW267066   8.593   7.387   8.314
55057SOL     OW67067  10.573  12.593   2.972
55057SOL    HW167068  10.654  12.615   2.928
55057SOL    HW267069  10.552  12.670   3.025
55058SOL     OW67070  10.298   6.273  10.902
55058SOL    HW167071  10.292   6.358  10.858
55058SOL    HW267072  10.232   6.277  10.971
55059SOL     OW67073   3.087   5.037   3.120
55059SOL    HW167074   3.052   5.034   3.209
55059SOL    HW267075   3.141   4.958   3.114
55060SOL     OW67076   6.992  10.536   2.705
55060SOL    HW167077   7.034  10.600   2.647
55060SOL    HW267078   6.919  10.584   2.744
55061SOL     OW67079   8.877   8.128   1.532
55061SOL    HW167080   8.812   8.096   1.595
55061SOL    HW267081   8.832   8.127   1.448
55062SOL     OW67082   3.562  13.236   0.511
55062SOL    HW167083   3.625  13.293   0.555
55062SOL    HW267084   3.519  13.188   0.582
55063SOL     OW67085   4.632  12.884  14.866
55063SOL    HW167086   4.567  12.867   0.064
55063SOL    HW267087   4.633  12.805  14.813
55064SOL     OW67088  10.923   8.458   7.160
55064SOL    HW167089  11.018   8.467   7.158
55064SOL    HW267090  10.900   8.464   7.253
55065SOL     OW67091   6.316   6.090   4.357
55065SOL    HW167092   6.398   6.138   4.352
55065SOL    HW267093   6.332   6.022   4.423
55066SOL     OW67094   8.279  10.409  10.463
55066SOL    HW167095   8.240  10.322  10.454
55066SOL    HW267096   8.219  10.467  10.416
55067SOL     OW67097   7.348   8.465  10.829
55067SOL    HW167098   7.379   8.379  10.856
55067SOL    HW267099   7.285   8.490  10.896
55068SOL     OW67100   8.602   4.059  11.659
55068SOL    HW167101   8.538   4.016  11.601
55068SOL    HW267102   8.599   4.008  11.740
55069SOL     OW67103   5.630  11.930   5.618
55069SOL    HW167104   5.618  11.968   5.704
55069SOL    HW267105   5.655  12.004   5.562
55070SOL     OW67106   0.584   2.135   8.239
55070SOL    HW167107   0.581   2.199   8.168
55070SOL    HW267108   0.566   2.051   8.196
55071SOL     OW67109  11.344  14.005   5.690
55071SOL    HW167110  11.434  14.031   5.670
55071SOL    HW267111  11.311  14.074   5.747
55072SOL     OW67112   2.657  13.647   1.886
55072SOL    HW167113   2.751  13.631   1.883
55072SOL    HW267114   2.619  13.575   1.836
55073SOL     OW67115   9.528   4.930   6.902
55073SOL    HW167116   9.587   4.856   6.916
55073SOL    HW267117   9.579   5.006   6.930
55074SOL     OW67118  13.125   6.404   0.558
55074SOL    HW167119  13.168   6.445   0.633
55074SOL    HW267120  13.045   6.364   0.594
55075SOL     OW67121   9.956  12.969   6.750
55075SOL    HW167122   9.940  12.890   6.699
55075SOL    HW267123  10.047  12.961   6.778
55076SOL     OW67124  14.663   4.019   2.072
55076SOL    HW167125  14.594   4.085   2.068
55076SOL    HW267126  14.671   3.998   2.165
55077SOL     OW67127   6.263   6.754  13.544
55077SOL    HW167128   6.221   6.748  13.458
55077SOL    HW267129   6.291   6.665  13.564
55078SOL     OW67130  14.296   3.175  10.896
55078SOL    HW167131  14.245   3.218  10.964
55078SOL    HW267132  14.284   3.081  10.913
55079SOL     OW67133   0.757   2.635   4.305
55079SOL    HW167134   0.776   2.714   4.356
55079SOL    HW267135   0.703   2.581   4.363
55080SOL     OW67136   1.384   4.045   6.504
55080SOL    HW167137   1.348   4.012   6.422
55080SOL    HW267138   1.364   3.977   6.568
55081SOL     OW67139   7.264   2.420   2.282
55081SOL    HW167140   7.343   2.367   2.277
55081SOL    HW267141   7.235   2.412   2.373
55082SOL     OW67142  11.055   5.021   0.580
55082SOL    HW167143  11.049   5.078   0.657
55082SOL    HW267144  10.964   5.007   0.553
55083SOL     OW67145   9.232   0.685   9.240
55083SOL    HW167146   9.252   0.776   9.262
55083SOL    HW267147   9.147   0.690   9.197
55084SOL     OW67148  14.516   8.066   5.061
55084SOL    HW167149  14.463   7.999   5.019
55084SOL    HW267150  14.550   8.024   5.140
55085SOL     OW67151  10.253   2.937   4.673
55085SOL    HW167152  10.232   2.992   4.749
55085SOL    HW267153  10.348   2.925   4.678
55086SOL     OW67154   6.596   5.445   6.270
55086SOL    HW167155   6.632   5.522   6.315
55086SOL    HW267156   6.659   5.426   6.201
55087SOL     OW67157   7.797  12.465  13.850
55087SOL    HW167158   7.766  12.501  13.933
55087SOL    HW267159   7.802  12.371  13.865
55088SOL     OW67160  11.542   9.224   7.882
55088SOL    HW167161  11.492   9.143   7.889
55088SOL    HW267162  11.550   9.240   7.788
55089SOL     OW67163   5.618   0.427  11.518
55089SOL    HW167164   5.538   0.469  11.485
55089SOL    HW267165   5.587   0.351  11.566
55090SOL     OW67166   8.827   7.759   6.269
55090SOL    HW167167   8.890   7.688   6.280
55090SOL    HW267168   8.842   7.816   6.344
55091SOL     OW67169   7.532   5.113   4.602
55091SOL    HW167170   7.540   5.208   4.608
55091SOL    HW267171   7.621   5.080   4.614
55092SOL     OW67172   8.523   2.721   7.687
55092SOL    HW167173   8.534   2.763   7.772
55092SOL    HW267174   8.563   2.782   7.625
55093SOL     OW67175  14.342   1.856  10.849
55093SOL    HW167176  14.325   1.949  10.861
55093SOL    HW267177  14.425   1.840  10.894
55094SOL     OW67178   1.379   6.325   4.339
55094SOL    HW167179   1.389   6.233   4.364
55094SOL    HW267180   1.308   6.357   4.395
55095SOL     OW67181  12.336  10.711   8.082
55095SOL    HW167182  12.344  10.773   8.154
55095SOL    HW267183  12.425  10.703   8.048
55096SOL     OW67184   1.165  10.746   3.656
55096SOL    HW167185   1.142  10.655   3.677
55096SOL    HW267186   1.109  10.768   3.582
55097SOL     OW67187   3.338   0.226   0.876
55097SOL    HW167188   3.347   0.222   0.780
55097SOL    HW267189   3.243   0.227   0.891
55098SOL     OW67190  12.998   6.181  13.665
55098SOL    HW167191  12.981   6.265  13.707
55098SOL    HW267192  13.082   6.152  13.701
55099SOL     OW67193  13.040  10.234  12.734
55099SOL    HW167194  13.034  10.299  12.803
55099SOL    HW267195  13.134  10.230  12.713
55100SOL     OW67196  14.254   4.834  12.875
55100SOL    HW167197  14.231   4.743  12.855
55100SOL    HW267198  14.172   4.874  12.905
55101SOL     OW67199  14.280   2.466   2.717
55101SOL    HW167200  14.276   2.371   2.715
55101SOL    HW267201  14.264   2.489   2.808
55102SOL     OW67202  11.761   6.389   3.542
55102SOL    HW167203  11.812   6.347   3.611
55102SOL    HW267204  11.684   6.424   3.588
55103SOL     OW67205   2.745  11.322   1.695
55103SOL    HW167206   2.826  11.370   1.714
55103SOL    HW267207   2.775  11.235   1.666
55104SOL     OW67208   4.469   7.558   2.342
55104SOL    HW167209   4.515   7.500   2.403
55104SOL    HW267210   4.378   7.529   2.344
55105SOL     OW67211  12.524   3.442   7.867
55105SOL    HW167212  12.610   3.434   7.827
55105SOL    HW267213  12.541   3.432   7.961
55106SOL     OW67214   1.729  13.628   9.422
55106SOL    HW167215   1.788  13.555   9.400
55106SOL    HW267216   1.650  13.611   9.370
55107SOL     OW67217   4.007  10.690  12.785
55107SOL    HW167218   3.997  10.708  12.692
55107SOL    HW267219   4.081  10.746  12.812
55108SOL     OW67220  12.738  12.723  13.304
55108SOL    HW167221  12.652  12.765  13.296
55108SOL    HW267222  12.791  12.764  13.236
55109SOL     OW67223   9.361  10.347  11.166
55109SOL    HW167224   9.317  10.373  11.085
55109SOL    HW267225   9.450  10.325  11.139
55110SOL     OW67226   0.563   8.434   5.756
55110SOL    HW167227   0.566   8.486   5.675
55110SOL    HW267228   0.526   8.493   5.821
55111SOL     OW67229  13.225  12.511   3.687
55111SOL    HW167230  13.242  12.602   3.661
55111SOL    HW267231  13.285  12.459   3.634
55112SOL     OW67232   8.445   2.477  12.610
55112SOL    HW167233   8.506   2.534  12.564
55112SOL    HW267234   8.361   2.493  12.567
55113SOL     OW67235   6.679   0.762   1.886
55113SOL    HW167236   6.603   0.817   1.866
55113SOL    HW267237   6.750   0.800   1.835
55114SOL     OW67238   4.455  12.313   1.363
55114SOL    HW167239   4.428  12.385   1.421
55114SOL    HW267240   4.423  12.339   1.277
55115SOL     OW67241  12.346   0.012  11.250
55115SOL    HW167242  12.322   0.095  11.290
55115SOL    HW267243  12.407   0.036  11.180
55116SOL     OW67244   2.000   6.910  12.649
55116SOL    HW167245   1.951   6.871  12.577
55116SOL    HW267246   2.041   6.836  12.694
55117SOL     OW67247  13.730   1.706   8.094
55117SOL    HW167248  13.745   1.764   8.168
55117SOL    HW267249  13.813   1.658   8.084
55118SOL     OW67250   0.906   8.610  12.864
55118SOL    HW167251   0.990   8.571  12.838
55118SOL    HW267252   0.909   8.699  12.827
55119SOL     OW67253   4.304   8.786   1.753
55119SOL    HW167254   4.268   8.865   1.793
55119SOL    HW267255   4.227   8.732   1.734
55120SOL     OW67256   3.893   7.722   3.758
55120SOL    HW167257   3.927   7.676   3.681
55120SOL    HW267258   3.805   7.687   3.770
55121SOL     OW67259   1.508   6.513  10.293
55121SOL    HW167260   1.549   6.441  10.341
55121SOL    HW267261   1.503   6.585  10.357
55122SOL     OW67262   3.058  13.080   2.809
55122SOL    HW167263   2.984  13.089   2.748
55122SOL    HW267264   3.018  13.053   2.891
55123SOL     OW67265   5.304   4.709   0.964
55123SOL    HW167266   5.348   4.763   0.898
55123SOL    HW267267   5.259   4.771   1.020
55124SOL     OW67268   3.612   7.636   3.779
55124SOL    HW167269   3.552   7.562   3.783
55124SOL    HW267270   3.602   7.680   3.863
55125SOL     OW67271   0.324  11.002  13.688
55125SOL    HW167272   0.327  11.005  13.784
55125SOL    HW267273   0.241  11.043  13.665
55126SOL     OW67274   4.524   5.595   4.381
55126SOL    HW167275   4.608   5.635   4.405
55126SOL    HW267276   4.515   5.614   4.288
55127SOL     OW67277   3.708   0.873   9.041
55127SOL    HW167278   3.664   0.789   9.030
55127SOL    HW267279   3.646   0.926   9.090
55128SOL     OW67280  14.002   0.107   3.611
55128SOL    HW167281  13.914   0.072   3.594
55128SOL    HW267282  13.999   0.134   3.702
55129SOL     OW67283  11.878   2.298   5.453
55129SOL    HW167284  11.826   2.270   5.528
55129SOL    HW267285  11.917   2.217   5.418
55130SOL     OW67286  12.149   9.698  11.484
55130SOL    HW167287  12.201   9.774  11.457
55130SOL    HW267288  12.124   9.656  11.402
55131SOL     OW67289  13.360   5.474  14.576
55131SOL    HW167290  13.330   5.501  14.663
55131SOL    HW267291  13.441   5.426  14.592
55132SOL     OW67292   1.629   6.183  14.793
55132SOL    HW167293   1.652   6.252  14.856
55132SOL    HW267294   1.640   6.224  14.708
55133SOL     OW67295  10.657   8.393   1.482
55133SOL    HW167296  10.723   8.458   1.457
55133SOL    HW267297  10.617   8.429   1.561
55134SOL     OW67298   6.374   1.140  12.075
55134SOL    HW167299   6.302   1.140  12.138
55134SOL    HW267300   6.416   1.055  12.086
55135SOL     OW67301  13.936   9.218  10.213
55135SOL    HW167302  13.888   9.240  10.133
55135SOL    HW267303  14.023   9.254  10.199
55136SOL     OW67304   3.155   0.114  11.374
55136SOL    HW167305   3.105   0.036  11.397
55136SOL    HW267306   3.126   0.136  11.285
55137SOL     OW67307   8.327  10.874  13.405
55137SOL    HW167308   8.285  10.959  13.420
55137SOL    HW267309   8.373  10.855  13.487
55138SOL     OW67310   6.076   2.156   8.994
55138SOL    HW167311   6.001   2.097   8.994
55138SOL    HW267312   6.097   2.167   8.901
55139SOL     OW67313   8.619   5.229   2.659
55139SOL    HW167314   8.545   5.251   2.715
55139SOL    HW267315   8.584   5.234   2.570
55140SOL     OW67316  11.567   1.706  13.589
55140SOL    HW167317  11.525   1.621  13.604
55140SOL    HW267318  11.507   1.769  13.629
55141SOL     OW67319   2.507  14.717   9.115
55141SOL    HW167320   2.459  14.645   9.157
55141SOL    HW267321   2.454  14.739   9.038
55142SOL     OW67322   6.664  14.319   3.949
55142SOL    HW167323   6.721  14.383   3.991
55142SOL    HW267324   6.578  14.333   3.990
55143SOL     OW67325  12.405   1.752  13.685
55143SOL    HW167326  12.310   1.753  13.668
55143SOL    HW267327  12.418   1.821  13.750
55144SOL     OW67328   2.077   5.907   2.859
55144SOL    HW167329   2.027   5.950   2.790
55144SOL    HW267330   2.165   5.945   2.853
55145SOL     OW67331  14.677  10.544  12.358
55145SOL    HW167332  14.638  10.558  12.444
55145SOL    HW267333  14.697  10.632  12.326
55146SOL     OW67334   2.822   8.241  13.980
55146SOL    HW167335   2.738   8.280  14.003
55146SOL    HW267336   2.804   8.147  13.978
55147SOL     OW67337  13.169   1.818   7.617
55147SOL    HW167338  13.186   1.864   7.535
55147SOL    HW267339  13.111   1.746   7.592
55148SOL     OW67340   4.325   0.956   6.043
55148SOL    HW167341   4.274   0.885   6.083
55148SOL    HW267342   4.273   0.982   5.967
55149SOL     OW67343   0.099  12.880  14.330
55149SOL    HW167344   0.170  12.867  14.392
55149SOL    HW267345   0.085  12.975  14.328
55150SOL     OW67346   2.636  14.687   1.315
55150SOL    HW167347   2.654  14.598   1.284
55150SOL    HW267348   2.549  14.682   1.355
55151SOL     OW67349   8.420   6.378  11.384
55151SOL    HW167350   8.428   6.298  11.332
55151SOL    HW267351   8.331   6.373  11.420
55152SOL     OW67352  12.011   4.012  14.695
55152SOL    HW167353  11.953   3.965  14.635
55152SOL    HW267354  12.049   3.943  14.750
55153SOL     OW67355   0.254   3.274   4.183
55153SOL    HW167356   0.184   3.338   4.197
55153SOL    HW267357   0.283   3.290   4.093
55154SOL     OW67358  12.619   2.377   8.453
55154SOL    HW167359  12.567   2.436   8.508
55154SOL    HW267360  12.703   2.421   8.444
55155SOL     OW67361   1.536  10.743   3.095
55155SOL    HW167362   1.548  10.732   3.189
55155SOL    HW267363   1.451  10.704   3.077
55156SOL     OW67364  11.689  13.489  12.449
55156SOL    HW167365  11.614  13.537  12.485
55156SOL    HW267366  11.697  13.521  12.359
55157SOL     OW67367  12.416   2.995  10.163
55157SOL    HW167368  12.363   3.062  10.205
55157SOL    HW267369  12.354   2.926  10.140
55158SOL     OW67370   3.627   4.717   7.397
55158SOL    HW167371   3.657   4.631   7.366
55158SOL    HW267372   3.696   4.746   7.457
55159SOL     OW67373   1.503  11.602  10.327
55159SOL    HW167374   1.529  11.686  10.289
55159SOL    HW267375   1.521  11.538  10.257
55160SOL     OW67376   7.167   1.218   3.411
55160SOL    HW167377   7.081   1.179   3.427
55160SOL    HW267378   7.149   1.301   3.368
55161SOL     OW67379   4.861   2.953   8.539
55161SOL    HW167380   4.874   3.043   8.569
55161SOL    HW267381   4.915   2.947   8.460
55162SOL     OW67382   5.339  10.973   6.602
55162SOL    HW167383   5.419  10.988   6.553
55162SOL    HW267384   5.311  11.060   6.629
55163SOL     OW67385   6.240   2.669   3.509
55163SOL    HW167386   6.299   2.742   3.530
55163SOL    HW267387   6.175   2.671   3.579
55164SOL     OW67388   9.426   2.972   9.545
55164SOL    HW167389   9.519   2.984   9.560
55164SOL    HW267390   9.388   2.967   9.633
55165SOL     OW67391  13.591  10.282   0.847
55165SOL    HW167392  13.670  10.324   0.882
55165SOL    HW267393  13.617  10.249   0.761
55166SOL     OW67394   7.100  13.182   4.188
55166SOL    HW167395   7.057  13.108   4.231
55166SOL    HW267396   7.144  13.229   4.259
55167SOL     OW67397   8.976  11.532   3.922
55167SOL    HW167398   8.942  11.526   3.833
55167SOL    HW267399   9.058  11.482   3.919
55168SOL     OW67400  10.373   0.365  12.624
55168SOL    HW167401  10.362   0.290  12.566
55168SOL    HW267402  10.289   0.373  12.669
55169SOL     OW67403   6.788   7.862   5.218
55169SOL    HW167404   6.869   7.888   5.263
55169SOL    HW267405   6.733   7.940   5.220
55170SOL     OW67406  11.604  14.126   4.769
55170SOL    HW167407  11.623  14.217   4.792
55170SOL    HW267408  11.518  14.128   4.728
55171SOL     OW67409   6.463   2.206   0.206
55171SOL    HW167410   6.544   2.156   0.215
55171SOL    HW267411   6.457   2.226   0.113
55172SOL     OW67412   5.639   9.487   4.367
55172SOL    HW167413   5.663   9.432   4.441
55172SOL    HW267414   5.709   9.474   4.303
55173SOL     OW67415  12.419   1.666   6.868
55173SOL    HW167416  12.355   1.671   6.939
55173SOL    HW267417  12.383   1.601   6.808
55174SOL     OW67418  10.838   9.949   2.535
55174SOL    HW167419  10.860  10.022   2.593
55174SOL    HW267420  10.743   9.940   2.544
55175SOL     OW67421   3.123  10.168  14.108
55175SOL    HW167422   3.085  10.211  14.185
55175SOL    HW267423   3.145  10.079  14.139
55176SOL     OW67424   2.362   8.115   5.074
55176SOL    HW167425   2.268   8.107   5.060
55176SOL    HW267426   2.396   8.026   5.065
55177SOL     OW67427  10.004  12.660   8.801
55177SOL    HW167428   9.922  12.699   8.834
55177SOL    HW267429  10.058  12.736   8.779
55178SOL     OW67430   7.981   6.418   9.365
55178SOL    HW167431   8.042   6.488   9.339
55178SOL    HW267432   7.955   6.441   9.454
55179SOL     OW67433   3.186  12.349   6.179
55179SOL    HW167434   3.126  12.423   6.186
55179SOL    HW267435   3.257  12.381   6.122
55180SOL     OW67436  14.004   1.531  10.104
55180SOL    HW167437  14.089   1.570  10.122
55180SOL    HW267438  14.022   1.438  10.093
55181SOL     OW67439  10.227   1.962  13.495
55181SOL    HW167440  10.318   1.950  13.520
55181SOL    HW267441  10.229   1.980  13.401
55182SOL     OW67442   8.521   0.477   7.019
55182SOL    HW167443   8.524   0.561   7.063
55182SOL    HW267444   8.452   0.428   7.063
55183SOL     OW67445   4.440  12.561   1.969
55183SOL    HW167446   4.475  12.544   1.882
55183SOL    HW267447   4.392  12.643   1.960
55184SOL     OW67448  13.817  10.857   7.417
55184SOL    HW167449  13.827  10.937   7.366
55184SOL    HW267450  13.841  10.883   7.506
55185SOL     OW67451   7.209  11.788  12.063
55185SOL    HW167452   7.296  11.766  12.095
55185SOL    HW267453   7.157  11.708  12.080
55186SOL     OW67454  13.721   2.074  10.589
55186SOL    HW167455  13.776   2.081  10.511
55186SOL    HW267456  13.745   2.149  10.643
55187SOL     OW67457  12.016  14.683   9.135
55187SOL    HW167458  11.982  14.598   9.162
55187SOL    HW267459  12.093  14.662   9.082
55188SOL     OW67460  11.941   2.932   1.222
55188SOL    HW167461  11.869   2.872   1.239
55188SOL    HW267462  12.016   2.893   1.266
55189SOL     OW67463   6.416   8.567   5.778
55189SOL    HW167464   6.466   8.522   5.847
55189SOL    HW267465   6.326   8.536   5.790
55190SOL     OW67466   0.267  14.636  11.526
55190SOL    HW167467   0.336  14.689  11.487
55190SOL    HW267468   0.207  14.700  11.565
55191SOL     OW67469   9.658   8.110   3.346
55191SOL    HW167470   9.655   8.050   3.420
55191SOL    HW267471   9.740   8.157   3.356
55192SOL     OW67472   4.119  11.846   5.336
55192SOL    HW167473   4.100  11.758   5.305
55192SOL    HW267474   4.045  11.868   5.393
55193SOL     OW67475   2.616  11.785   7.242
55193SOL    HW167476   2.675  11.716   7.212
55193SOL    HW267477   2.535  11.771   7.193
55194SOL     OW67478  13.065   0.009  11.561
55194SOL    HW167479  13.123  14.836  11.624
55194SOL    HW267480  13.063  14.819  11.486
55195SOL     OW67481  13.003  14.633   2.556
55195SOL    HW167482  13.075  14.570   2.549
55195SOL    HW267483  12.941  14.593   2.616
55196SOL     OW67484   3.056   9.280   7.763
55196SOL    HW167485   3.096   9.196   7.784
55196SOL    HW267486   3.126   9.330   7.720
55197SOL     OW67487   7.311  12.537  12.828
55197SOL    HW167488   7.402  12.547  12.858
55197SOL    HW267489   7.280  12.627  12.818
55198SOL     OW67490   1.901   1.611   0.547
55198SOL    HW167491   1.866   1.643   0.464
55198SOL    HW267492   1.972   1.672   0.568
55199SOL     OW67493   2.528   1.249  10.167
55199SOL    HW167494   2.596   1.271  10.103
55199SOL    HW267495   2.512   1.156  10.154
55200SOL     OW67496   4.449   6.009  14.653
55200SOL    HW167497   4.423   6.030  14.743
55200SOL    HW267498   4.424   5.917  14.641
55201SOL     OW67499   5.954  10.499   1.935
55201SOL    HW167500   5.973  10.437   2.006
55201SOL    HW267501   6.039  10.514   1.893
55202SOL     OW67502   5.217   5.880  13.152
55202SOL    HW167503   5.176   5.918  13.230
55202SOL    HW267504   5.294   5.936  13.136
55203SOL     OW67505   3.266  13.486   1.061
55203SOL    HW167506   3.275  13.573   1.023
55203SOL    HW267507   3.317  13.429   1.003
55204SOL     OW67508  11.653   6.070  11.040
55204SOL    HW167509  11.651   5.993  11.097
55204SOL    HW267510  11.695   6.039  10.960
55205SOL     OW67511   2.812  11.205   9.275
55205SOL    HW167512   2.760  11.177   9.350
55205SOL    HW267513   2.758  11.183   9.199
55206SOL     OW67514   5.199   7.511  10.544
55206SOL    HW167515   5.230   7.591  10.501
55206SOL    HW267516   5.116   7.492  10.500
55207SOL     OW67517   3.097   7.829   3.700
55207SOL    HW167518   3.164   7.892   3.674
55207SOL    HW267519   3.146   7.751   3.727
55208SOL     OW67520   6.802   5.489   6.043
55208SOL    HW167521   6.866   5.432   5.998
55208SOL    HW267522   6.854   5.537   6.107
55209SOL     OW67523   6.620  12.708  11.134
55209SOL    HW167524   6.707  12.735  11.105
55209SOL    HW267525   6.607  12.754  11.217
55210SOL     OW67526   0.020   7.961  11.382
55210SOL    HW167527  14.816   7.933  11.437
55210SOL    HW267528   0.066   8.026  11.435
55211SOL     OW67529   7.851   2.678   7.553
55211SOL    HW167530   7.863   2.769   7.525
55211SOL    HW267531   7.933   2.654   7.594
55212SOL     OW67532   5.400   7.638  14.444
55212SOL    HW167533   5.429   7.569  14.504
55212SOL    HW267534   5.417   7.602  14.356
55213SOL     OW67535   0.333  11.398  10.239
55213SOL    HW167536   0.359  11.308  10.257
55213SOL    HW267537   0.352  11.445  10.320
55214SOL     OW67538   6.374   7.708   1.972
55214SOL    HW167539   6.377   7.691   2.066
55214SOL    HW267540   6.466   7.709   1.945
55215SOL     OW67541  10.717   5.164   9.003
55215SOL    HW167542  10.644   5.112   8.971
55215SOL    HW267543  10.695   5.254   8.982
55216SOL     OW67544  12.388  11.999  11.625
55216SOL    HW167545  12.359  11.971  11.538
55216SOL    HW267546  12.325  11.960  11.685
55217SOL     OW67547  11.509   4.333   2.077
55217SOL    HW167548  11.526   4.239   2.068
55217SOL    HW267549  11.420   4.344   2.044
55218SOL     OW67550   1.285  10.684  10.878
55218SOL    HW167551   1.286  10.589  10.867
55218SOL    HW267552   1.336  10.716  10.803
55219SOL     OW67553   8.773  11.886  10.182
55219SOL    HW167554   8.717  11.942  10.128
55219SOL    HW267555   8.861  11.899  10.146
55220SOL     OW67556   4.160   2.338  14.402
55220SOL    HW167557   4.192   2.407  14.343
55220SOL    HW267558   4.235   2.278  14.410
55221SOL     OW67559   5.159   5.851   0.794
55221SOL    HW167560   5.083   5.877   0.845
55221SOL    HW267561   5.148   5.894   0.709
55222SOL     OW67562   3.341   4.024   8.929
55222SOL    HW167563   3.404   4.033   9.001
55222SOL    HW267564   3.365   3.941   8.887
55223SOL     OW67565   2.658  11.008  10.460
55223SOL    HW167566   2.642  10.933  10.403
55223SOL    HW267567   2.697  11.074  10.402
55224SOL     OW67568   2.748   5.524  11.301
55224SOL    HW167569   2.681   5.534  11.369
55224SOL    HW267570   2.700   5.491  11.225
55225SOL     OW67571   5.265  12.099  12.592
55225SOL    HW167572   5.304  12.018  12.557
55225SOL    HW267573   5.323  12.168  12.561
55226SOL     OW67574  11.942   1.651  11.197
55226SOL    HW167575  11.900   1.631  11.281
55226SOL    HW267576  11.956   1.746  11.200
55227SOL     OW67577   0.877  13.771   7.813
55227SOL    HW167578   0.848  13.724   7.891
55227SOL    HW267579   0.854  13.862   7.830
55228SOL     OW67580   2.663   4.167   3.098
55228SOL    HW167581   2.579   4.214   3.102
55228SOL    HW267582   2.728   4.232   3.123
55229SOL     OW67583   6.735   3.364   7.085
55229SOL    HW167584   6.818   3.412   7.094
55229SOL    HW267585   6.735   3.302   7.158
55230SOL     OW67586  13.560   6.906   6.250
55230SOL    HW167587  13.476   6.922   6.291
55230SOL    HW267588  13.578   6.813   6.267
55231SOL     OW67589  12.524   9.252   6.213
55231SOL    HW167590  12.613   9.275   6.242
55231SOL    HW267591  12.529   9.159   6.191
55232SOL     OW67592   0.850  14.430   8.588
55232SOL    HW167593   0.823  14.517   8.560
55232SOL    HW267594   0.830  14.428   8.682
55233SOL     OW67595  11.353   0.587   1.780
55233SOL    HW167596  11.306   0.553   1.704
55233SOL    HW267597  11.316   0.674   1.793
55234SOL     OW67598   1.634   6.711  10.059
55234SOL    HW167599   1.641   6.711  10.155
55234SOL    HW267600   1.599   6.624  10.038
55235SOL     OW67601   8.710  13.129  14.695
55235SOL    HW167602   8.744  13.163  14.613
55235SOL    HW267603   8.643  13.191  14.721
55236SOL     OW67604   1.963   6.123   7.313
55236SOL    HW167605   2.006   6.208   7.310
55236SOL    HW267606   2.032   6.060   7.291
55237SOL     OW67607   7.527   2.966  13.739
55237SOL    HW167608   7.522   3.050  13.785
55237SOL    HW267609   7.437   2.950  13.711
55238SOL     OW67610  14.774   8.706  14.205
55238SOL    HW167611  14.754   8.613  14.193
55238SOL    HW267612  14.716   8.751  14.144
55239SOL     OW67613  10.876  10.413   8.081
55239SOL    HW167614  10.848  10.498   8.047
55239SOL    HW267615  10.966  10.403   8.049
55240SOL     OW67616   0.616  11.352  11.969
55240SOL    HW167617   0.649  11.421  11.912
55240SOL    HW267618   0.580  11.286  11.908
55241SOL     OW67619   2.499   0.851  10.919
55241SOL    HW167620   2.517   0.944  10.932
55241SOL    HW267621   2.493   0.839  10.825
55242SOL     OW67622   3.532   1.222   3.511
55242SOL    HW167623   3.557   1.287   3.446
55242SOL    HW267624   3.535   1.138   3.464
55243SOL     OW67625   2.504   8.075   7.681
55243SOL    HW167626   2.487   8.031   7.764
55243SOL    HW267627   2.576   8.136   7.701
55244SOL     OW67628   0.243   4.416  11.034
55244SOL    HW167629   0.268   4.496  10.989
55244SOL    HW267630   0.313   4.402  11.099
55245SOL     OW67631   8.271  14.475   7.258
55245SOL    HW167632   8.256  14.540   7.327
55245SOL    HW267633   8.342  14.512   7.206
55246SOL     OW67634  11.716   0.455  12.444
55246SOL    HW167635  11.755   0.541  12.434
55246SOL    HW267636  11.688   0.430  12.355
55247SOL     OW67637   1.632   9.467   1.485
55247SOL    HW167638   1.557   9.427   1.441
55247SOL    HW267639   1.687   9.499   1.413
55248SOL     OW67640  10.468  10.269  11.192
55248SOL    HW167641  10.496  10.345  11.140
55248SOL    HW267642  10.442  10.204  11.127
55249SOL     OW67643   6.660  11.782   5.422
55249SOL    HW167644   6.624  11.868   5.402
55249SOL    HW267645   6.656  11.777   5.518
55250SOL     OW67646   1.801   3.766   8.828
55250SOL    HW167647   1.779   3.840   8.771
55250SOL    HW267648   1.896   3.770   8.837
55251SOL     OW67649   0.951  10.758  11.287
55251SOL    HW167650   0.964  10.762  11.192
55251SOL    HW267651   1.015  10.820  11.322
55252SOL     OW67652   8.025  10.433  13.059
55252SOL    HW167653   8.061  10.519  13.037
55252SOL    HW267654   8.072  10.372  13.002
55253SOL     OW67655  10.899   2.090  13.125
55253SOL    HW167656  10.863   2.099  13.037
55253SOL    HW267657  10.941   2.174  13.143
55254SOL     OW67658  13.966   0.874   0.499
55254SOL    HW167659  14.013   0.817   0.437
55254SOL    HW267660  13.930   0.944   0.445
55255SOL     OW67661   6.243  12.761   6.952
55255SOL    HW167662   6.289  12.842   6.934
55255SOL    HW267663   6.171  12.786   7.010
55256SOL     OW67664   5.147  11.283   8.970
55256SOL    HW167665   5.068  11.337   8.973
55256SOL    HW267666   5.141  11.228   9.048
55257SOL     OW67667  14.164   6.489   1.297
55257SOL    HW167668  14.112   6.506   1.219
55257SOL    HW267669  14.244   6.447   1.264
55258SOL     OW67670   1.903   0.090  12.019
55258SOL    HW167671   1.962   0.029  11.976
55258SOL    HW267672   1.948   0.174  12.015
55259SOL     OW67673   5.451   8.275  13.790
55259SOL    HW167674   5.373   8.232  13.826
55259SOL    HW267675   5.416   8.348  13.739
55260SOL     OW67676   3.348   3.279  12.859
55260SOL    HW167677   3.414   3.348  12.865
55260SOL    HW267678   3.397   3.201  12.833
55261SOL     OW67679   0.681   0.885   4.098
55261SOL    HW167680   0.771   0.878   4.066
55261SOL    HW267681   0.679   0.967   4.147
55262SOL     OW67682   9.485  14.011   1.272
55262SOL    HW167683   9.494  14.104   1.252
55262SOL    HW267684   9.417  14.008   1.339
55263SOL     OW67685  14.547   3.506   9.419
55263SOL    HW167686  14.556   3.419   9.379
55263SOL    HW267687  14.572   3.566   9.349
55264SOL     OW67688   5.069  10.225   0.166
55264SOL    HW167689   5.102  10.283   0.234
55264SOL    HW267690   5.090  10.269   0.084
55265SOL     OW67691  14.774   0.466   8.740
55265SOL    HW167692  14.797   0.457   8.647
55265SOL    HW267693  14.679   0.450   8.742
55266SOL     OW67694  12.654  12.063   0.342
55266SOL    HW167695  12.568  12.103   0.353
55266SOL    HW267696  12.706  12.131   0.299
55267SOL     OW67697   9.399   9.139   7.594
55267SOL    HW167698   9.466   9.187   7.545
55267SOL    HW267699   9.414   9.164   7.685
55268SOL     OW67700  14.335   0.135   1.121
55268SOL    HW167701  14.279   0.085   1.181
55268SOL    HW267702  14.338   0.081   1.042
55269SOL     OW67703   6.812   6.281  13.883
55269SOL    HW167704   6.720   6.302  13.901
55269SOL    HW267705   6.825   6.307  13.792
55270SOL     OW67706  12.544  10.887   5.870
55270SOL    HW167707  12.575  10.953   5.810
55270SOL    HW267708  12.468  10.848   5.826
55271SOL     OW67709  13.519   7.034   7.543
55271SOL    HW167710  13.497   7.127   7.544
55271SOL    HW267711  13.513   7.009   7.451
55272SOL     OW67712   5.905   5.815   7.112
55272SOL    HW167713   5.986   5.775   7.142
55272SOL    HW267714   5.922   5.839   7.021
55273SOL     OW67715   8.838   4.807  11.866
55273SOL    HW167716   8.836   4.726  11.917
55273SOL    HW267717   8.921   4.848  11.892
55274SOL     OW67718  12.948  10.143   9.010
55274SOL    HW167719  12.923  10.100   9.092
55274SOL    HW267720  12.942  10.237   9.029
55275SOL     OW67721   6.526  11.307   3.186
55275SOL    HW167722   6.431  11.315   3.179
55275SOL    HW267723   6.560  11.370   3.122
55276SOL     OW67724  13.260  10.574   4.672
55276SOL    HW167725  13.253  10.628   4.593
55276SOL    HW267726  13.352  10.582   4.698
55277SOL     OW67727   4.061  14.039   8.573
55277SOL    HW167728   3.990  14.099   8.597
55277SOL    HW267729   4.117  14.035   8.651
55278SOL     OW67730   6.928  12.128  13.427
55278SOL    HW167731   6.884  12.044  13.421
55278SOL    HW267732   7.016  12.107  13.459
55279SOL     OW67733   6.988   2.803  14.668
55279SOL    HW167734   6.977   2.742  14.595
55279SOL    HW267735   7.061   2.766  14.719
55280SOL     OW67736   0.784   1.853   7.328
55280SOL    HW167737   0.777   1.930   7.385
55280SOL    HW267738   0.831   1.788   7.381
55281SOL     OW67739   2.823   5.181  13.621
55281SOL    HW167740   2.799   5.100  13.666
55281SOL    HW267741   2.779   5.250  13.671
55282SOL     OW67742   6.534   4.641  12.924
55282SOL    HW167743   6.566   4.701  12.991
55282SOL    HW267744   6.541   4.691  12.842
55283SOL     OW67745   8.306  13.486   9.602
55283SOL    HW167746   8.302  13.579   9.624
55283SOL    HW267747   8.257  13.478   9.521
55284SOL     OW67748   7.630   8.295   5.358
55284SOL    HW167749   7.628   8.329   5.269
55284SOL    HW267750   7.714   8.323   5.393
55285SOL     OW67751   2.729  14.090   6.356
55285SOL    HW167752   2.706  14.156   6.421
55285SOL    HW267753   2.815  14.116   6.324
55286SOL     OW67754   4.550  10.174   4.937
55286SOL    HW167755   4.466  10.185   4.981
55286SOL    HW267756   4.609  10.236   4.980
55287SOL     OW67757   1.437  12.137   3.960
55287SOL    HW167758   1.517  12.097   3.992
55287SOL    HW267759   1.393  12.169   4.038
55288SOL     OW67760  13.522   7.093  10.911
55288SOL    HW167761  13.473   7.025  10.956
55288SOL    HW267762  13.481   7.175  10.938
55289SOL     OW67763  10.213   2.740  10.592
55289SOL    HW167764  10.199   2.646  10.598
55289SOL    HW267765  10.294   2.755  10.641
55290SOL     OW67766  11.550   9.564  11.113
55290SOL    HW167767  11.517   9.646  11.076
55290SOL    HW267768  11.587   9.589  11.197
55291SOL     OW67769  13.214   1.242   4.397
55291SOL    HW167770  13.239   1.269   4.308
55291SOL    HW267771  13.259   1.304   4.454
55292SOL     OW67772   8.604   3.730  11.396
55292SOL    HW167773   8.623   3.636  11.400
55292SOL    HW267774   8.659   3.768  11.465
55293SOL     OW67775   0.309   3.583  13.411
55293SOL    HW167776   0.403   3.576  13.425
55293SOL    HW267777   0.272   3.589  13.499
55294SOL     OW67778   8.027   3.255   0.325
55294SOL    HW167779   8.025   3.309   0.246
55294SOL    HW267780   8.067   3.173   0.297
55295SOL     OW67781   7.652   6.279   3.499
55295SOL    HW167782   7.695   6.316   3.576
55295SOL    HW267783   7.663   6.347   3.431
55296SOL     OW67784  13.396  10.793   6.236
55296SOL    HW167785  13.423  10.752   6.318
55296SOL    HW267786  13.302  10.807   6.246
55297SOL     OW67787  10.815  10.534   9.428
55297SOL    HW167788  10.773  10.464   9.378
55297SOL    HW267789  10.880  10.490   9.482
55298SOL     OW67790   1.438  14.385   9.499
55298SOL    HW167791   1.372  14.420   9.559
55298SOL    HW267792   1.413  14.420   9.413
55299SOL     OW67793   2.347   4.485   4.605
55299SOL    HW167794   2.427   4.458   4.560
55299SOL    HW267795   2.324   4.569   4.565
55300SOL     OW67796   4.186  11.919  14.251
55300SOL    HW167797   4.249  11.887  14.186
55300SOL    HW267798   4.132  11.983  14.204
55301SOL     OW67799   1.094   3.493   7.845
55301SOL    HW167800   1.005   3.525   7.862
55301SOL    HW267801   1.107   3.507   7.751
55302SOL     OW67802   4.184   8.006   9.992
55302SOL    HW167803   4.232   7.936  10.035
55302SOL    HW267804   4.096   7.971   9.980
55303SOL     OW67805   4.085   5.003   8.546
55303SOL    HW167806   4.162   5.019   8.600
55303SOL    HW267807   4.113   4.934   8.485
55304SOL     OW67808   2.783   2.011  14.458
55304SOL    HW167809   2.870   1.996  14.496
55304SOL    HW267810   2.730   1.940  14.492
55305SOL     OW67811  14.391   6.988   3.739
55305SOL    HW167812  14.397   6.904   3.694
55305SOL    HW267813  14.310   6.982   3.790
55306SOL     OW67814   4.070   0.563   4.402
55306SOL    HW167815   3.986   0.517   4.404
55306SOL    HW267816   4.075   0.600   4.314
55307SOL     OW67817  13.892  11.077  13.913
55307SOL    HW167818  13.826  11.145  13.924
55307SOL    HW267819  13.842  11.000  13.885
55308SOL     OW67820   6.973  13.521   1.597
55308SOL    HW167821   6.957  13.600   1.649
55308SOL    HW267822   6.886  13.483   1.585
55309SOL     OW67823   2.419   1.577   7.974
55309SOL    HW167824   2.440   1.635   8.047
55309SOL    HW267825   2.336   1.611   7.940
55310SOL     OW67826   4.126   0.053  11.307
55310SOL    HW167827   4.062   0.007  11.253
55310SOL    HW267828   4.140   0.136  11.262
55311SOL     OW67829   7.583   0.326  11.116
55311SOL    HW167830   7.546   0.313  11.203
55311SOL    HW267831   7.677   0.311  11.127
55312SOL     OW67832   0.601  11.815  14.337
55312SOL    HW167833   0.592  11.820  14.242
55312SOL    HW267834   0.666  11.746  14.351
55313SOL     OW67835   2.206  10.716  13.002
55313SOL    HW167836   2.289  10.691  12.961
55313SOL    HW267837   2.147  10.643  12.984
55314SOL     OW67838  12.727  13.976   9.228
55314SOL    HW167839  12.793  13.961   9.160
55314SOL    HW267840  12.776  13.974   9.310
55315SOL     OW67841   2.557   8.975   8.633
55315SOL    HW167842   2.649   9.003   8.637
55315SOL    HW267843   2.550   8.907   8.700
55316SOL     OW67844   5.721  11.194   5.480
55316SOL    HW167845   5.781  11.209   5.406
55316SOL    HW267846   5.742  11.264   5.542
55317SOL     OW67847  10.778   2.453   0.876
55317SOL    HW167848  10.712   2.395   0.838
55317SOL    HW267849  10.804   2.511   0.804
55318SOL     OW67850   7.818  14.422   9.231
55318SOL    HW167851   7.909  14.432   9.204
55318SOL    HW267852   7.800  14.502   9.280
55319SOL     OW67853   9.516  10.397  12.783
55319SOL    HW167854   9.563  10.412  12.701
55319SOL    HW267855   9.472  10.480  12.801
55320SOL     OW67856   3.903  11.810  13.234
55320SOL    HW167857   3.928  11.855  13.315
55320SOL    HW267858   3.829  11.861  13.200
55321SOL     OW67859  11.227   7.835  10.291
55321SOL    HW167860  11.261   7.907  10.344
55321SOL    HW267861  11.145   7.869  10.255
55322SOL     OW67862   6.780   2.645   6.526
55322SOL    HW167863   6.705   2.666   6.471
55322SOL    HW267864   6.856   2.670   6.474
55323SOL     OW67865   8.774  13.750   0.531
55323SOL    HW167866   8.737  13.809   0.597
55323SOL    HW267867   8.838  13.803   0.484
55324SOL     OW67868   4.861  10.678   4.466
55324SOL    HW167869   4.857  10.729   4.548
55324SOL    HW267870   4.954  10.655   4.458
55325SOL     OW67871   7.884  14.082   9.085
55325SOL    HW167872   7.838  14.094   9.002
55325SOL    HW267873   7.815  14.089   9.151
55326SOL     OW67874   4.697   0.701   7.578
55326SOL    HW167875   4.748   0.656   7.510
55326SOL    HW267876   4.617   0.728   7.534
55327SOL     OW67877   9.342   9.748  13.742
55327SOL    HW167878   9.372   9.731  13.832
55327SOL    HW267879   9.309   9.664  13.712
55328SOL     OW67880   9.104  10.649   6.229
55328SOL    HW167881   9.032  10.686   6.281
55328SOL    HW267882   9.072  10.652   6.139
55329SOL     OW67883   0.666  12.794  12.300
55329SOL    HW167884   0.666  12.788  12.396
55329SOL    HW267885   0.614  12.718  12.271
55330SOL     OW67886   0.614   6.791   7.997
55330SOL    HW167887   0.597   6.852   7.925
55330SOL    HW267888   0.559   6.821   8.068
55331SOL     OW67889   5.712   3.464   0.981
55331SOL    HW167890   5.701   3.548   1.024
55331SOL    HW267891   5.718   3.485   0.888
55332SOL     OW67892  14.525  11.532  10.422
55332SOL    HW167893  14.589  11.531  10.351
55332SOL    HW267894  14.453  11.478  10.390
55333SOL     OW67895   7.158   5.683   6.334
55333SOL    HW167896   7.098   5.660   6.262
55333SOL    HW267897   7.107   5.745   6.388
55334SOL     OW67898   9.043  12.468  11.716
55334SOL    HW167899   9.009  12.391  11.762
55334SOL    HW267900   9.027  12.541  11.777
55335SOL     OW67901   2.861  14.686   5.292
55335SOL    HW167902   2.952  14.662   5.276
55335SOL    HW267903   2.864  14.743   5.368
55336SOL     OW67904   4.150   4.937   3.895
55336SOL    HW167905   4.223   4.927   3.957
55336SOL    HW267906   4.072   4.923   3.947
55337SOL     OW67907   4.056   0.740   6.919
55337SOL    HW167908   4.104   0.823   6.908
55337SOL    HW267909   4.001   0.734   6.841
55338SOL     OW67910   7.663   7.562  12.460
55338SOL    HW167911   7.602   7.489  12.470
55338SOL    HW267912   7.741   7.535  12.509
55339SOL     OW67913  12.756   4.560  10.274
55339SOL    HW167914  12.768   4.600  10.360
55339SOL    HW267915  12.676   4.601  10.239
55340SOL     OW67916  14.775   7.316   1.291
55340SOL    HW167917  14.857   7.331   1.338
55340SOL    HW267918  14.712   7.374   1.333
55341SOL     OW67919   2.198   7.400   4.327
55341SOL    HW167920   2.244   7.440   4.253
55341SOL    HW267921   2.217   7.306   4.318
55342SOL     OW67922   8.320   0.741  10.584
55342SOL    HW167923   8.263   0.803  10.629
55342SOL    HW267924   8.274   0.719  10.503
55343SOL     OW67925  14.091  12.627   2.374
55343SOL    HW167926  14.147  12.575   2.431
55343SOL    HW267927  14.035  12.676   2.434
55344SOL     OW67928   8.483  13.794  14.868
55344SOL    HW167929   8.418  13.857   0.027
55344SOL    HW267930   8.541  13.782   0.073
55345SOL     OW67931   8.883  14.405   1.120
55345SOL    HW167932   8.822  14.477   1.102
55345SOL    HW267933   8.853  14.369   1.203
55346SOL     OW67934   1.672   0.438   6.050
55346SOL    HW167935   1.604   0.456   5.985
55346SOL    HW267936   1.629   0.383   6.115
55347SOL     OW67937   6.726  13.134  12.731
55347SOL    HW167938   6.696  13.044  12.746
55347SOL    HW267939   6.751  13.137  12.639
55348SOL     OW67940   4.831   8.543   2.809
55348SOL    HW167941   4.808   8.636   2.814
55348SOL    HW267942   4.920   8.543   2.773
55349SOL     OW67943  14.102   8.770   0.980
55349SOL    HW167944  14.103   8.803   0.890
55349SOL    HW267945  14.153   8.690   0.977
55350SOL     OW67946   3.176   3.349   2.642
55350SOL    HW167947   3.236   3.406   2.593
55350SOL    HW267948   3.232   3.306   2.707
55351SOL     OW67949   1.806   1.724  11.762
55351SOL    HW167950   1.825   1.767  11.845
55351SOL    HW267951   1.711   1.723  11.756
55352SOL     OW67952   8.115   1.462   1.829
55352SOL    HW167953   8.092   1.383   1.878
55352SOL    HW267954   8.049   1.467   1.760
55353SOL     OW67955   1.962  10.200   1.772
55353SOL    HW167956   2.053  10.214   1.796
55353SOL    HW267957   1.947  10.258   1.698
55354SOL     OW67958   3.561   4.599  10.543
55354SOL    HW167959   3.508   4.521  10.526
55354SOL    HW267960   3.649   4.575  10.513
55355SOL     OW67961   3.504   6.837   9.922
55355SOL    HW167962   3.555   6.896   9.868
55355SOL    HW267963   3.423   6.884   9.941
55356SOL     OW67964   8.919   0.025  13.195
55356SOL    HW167965   8.886   0.101  13.243
55356SOL    HW267966   9.011   0.044  13.182
55357SOL     OW67967   8.894   9.063   3.034
55357SOL    HW167968   8.954   9.041   3.105
55357SOL    HW267969   8.833   8.989   3.031
55358SOL     OW67970  13.891  12.253   5.028
55358SOL    HW167971  13.828  12.311   5.071
55358SOL    HW267972  13.925  12.305   4.955
55359SOL     OW67973   9.099  14.063  10.692
55359SOL    HW167974   9.048  14.073  10.611
55359SOL    HW267975   9.090  13.970  10.713
55360SOL     OW67976   8.084  10.384  13.990
55360SOL    HW167977   8.013  10.330  14.023
55360SOL    HW267978   8.093  10.454  14.054
55361SOL     OW67979  10.119   7.218   3.948
55361SOL    HW167980  10.128   7.260   4.033
55361SOL    HW267981  10.136   7.288   3.885
55362SOL     OW67982   7.173   3.100   6.233
55362SOL    HW167983   7.267   3.096   6.217
55362SOL    HW267984   7.146   3.009   6.244
55363SOL     OW67985  12.779   7.562  10.525
55363SOL    HW167986  12.693   7.520  10.529
55363SOL    HW267987  12.791   7.600  10.612
55364SOL     OW67988   9.072  11.864   8.310
55364SOL    HW167989   8.990  11.912   8.323
55364SOL    HW267990   9.057  11.780   8.354
55365SOL     OW67991  11.924  13.514   6.672
55365SOL    HW167992  11.948  13.513   6.579
55365SOL    HW267993  11.983  13.577   6.711
55366SOL     OW67994   6.202   2.614   8.256
55366SOL    HW167995   6.219   2.548   8.323
55366SOL    HW267996   6.145   2.678   8.298
55367SOL     OW67997  10.833   3.567   9.425
55367SOL    HW167998  10.749   3.540   9.464
55367SOL    HW267999  10.878   3.613   9.496
55368SOL     OW68000   4.391   9.258  10.923
55368SOL    HW168001   4.337   9.286  10.996
55368SOL    HW268002   4.330   9.249  10.850
55369SOL     OW68003   8.624  12.049   0.016
55369SOL    HW168004   8.659  12.002  14.810
55369SOL    HW268005   8.529  12.040   0.007
55370SOL     OW68006   3.487   2.575  12.920
55370SOL    HW168007   3.453   2.581  12.831
55370SOL    HW268008   3.484   2.481  12.940
55371SOL     OW68009   3.029   7.598  14.636
55371SOL    HW168010   3.070   7.560  14.558
55371SOL    HW268011   3.099   7.599  14.701
55372SOL     OW68012   6.053  14.754   9.802
55372SOL    HW168013   6.054  14.843   9.767
55372SOL    HW268014   6.144  14.725   9.798
55373SOL     OW68015   1.173   4.800   3.944
55373SOL    HW168016   1.196   4.725   3.999
55373SOL    HW268017   1.166   4.763   3.856
55374SOL     OW68018   2.330   2.136   6.847
55374SOL    HW168019   2.364   2.225   6.861
55374SOL    HW268020   2.380   2.102   6.772
55375SOL     OW68021  10.498   2.105   0.631
55375SOL    HW168022  10.591   2.083   0.625
55375SOL    HW268023  10.468   2.105   0.540
55376SOL     OW68024  14.446   0.050   2.915
55376SOL    HW168025  14.471  14.859   2.845
55376SOL    HW268026  14.358   0.022   2.940
55377SOL     OW68027  14.153   4.472   8.866
55377SOL    HW168028  14.108   4.556   8.877
55377SOL    HW268029  14.168   4.441   8.955
55378SOL     OW68030   4.370  10.894   6.064
55378SOL    HW168031   4.427  10.921   6.136
55378SOL    HW268032   4.402  10.807   6.040
55379SOL     OW68033   9.019   6.885   2.613
55379SOL    HW168034   8.984   6.882   2.524
55379SOL    HW268035   8.945   6.861   2.668
55380SOL     OW68036  13.465  12.452   0.064
55380SOL    HW168037  13.395  12.443   0.129
55380SOL    HW268038  13.432  12.519   0.003
55381SOL     OW68039  14.844  10.236   4.857
55381SOL    HW168040  14.850  10.331   4.863
55381SOL    HW268041   0.063  10.207   4.838
55382SOL     OW68042  11.286   6.385   8.082
55382SOL    HW168043  11.329   6.451   8.027
55382SOL    HW268044  11.197   6.381   8.049
55383SOL     OW68045   2.599  12.108   2.835
55383SOL    HW168046   2.596  12.138   2.744
55383SOL    HW268047   2.683  12.062   2.842
55384SOL     OW68048   0.585  14.837   6.546
55384SOL    HW168049   0.563  14.849   6.638
55384SOL    HW268050   0.515   0.011   6.498
55385SOL     OW68051   9.178   5.592   5.824
55385SOL    HW168052   9.244   5.535   5.863
55385SOL    HW268053   9.118   5.532   5.778
55386SOL     OW68054   5.273  10.692   0.714
55386SOL    HW168055   5.220  10.762   0.752
55386SOL    HW268056   5.257  10.616   0.771
55387SOL     OW68057   5.232   7.013   1.214
55387SOL    HW168058   5.315   7.055   1.236
55387SOL    HW268059   5.225   7.021   1.119
55388SOL     OW68060   4.838   0.865   2.629
55388SOL    HW168061   4.851   0.787   2.575
55388SOL    HW268062   4.860   0.938   2.571
55389SOL     OW68063   6.512  14.116   1.552
55389SOL    HW168064   6.456  14.040   1.540
55389SOL    HW268065   6.464  14.188   1.509
55390SOL     OW68066   4.104  10.690   1.276
55390SOL    HW168067   4.022  10.641   1.261
55390SOL    HW268068   4.173  10.629   1.251
55391SOL     OW68069   1.334  14.683   7.719
55391SOL    HW168070   1.327  14.729   7.635
55391SOL    HW268071   1.244  14.655   7.738
55392SOL     OW68072  13.240   9.903   0.773
55392SOL    HW168073  13.235   9.914   0.868
55392SOL    HW268074  13.288   9.821   0.762
55393SOL     OW68075   5.535   9.776   0.010
55393SOL    HW168076   5.491   9.730   0.081
55393SOL    HW268077   5.536   9.868   0.039
55394SOL     OW68078   1.855  14.024   7.245
55394SOL    HW168079   1.822  14.041   7.156
55394SOL    HW268080   1.851  13.929   7.254
55395SOL     OW68081   7.107   6.057   1.122
55395SOL    HW168082   7.177   5.993   1.133
55395SOL    HW268083   7.107   6.075   1.028
55396SOL     OW68084  14.577   5.664   6.529
55396SOL    HW168085  14.572   5.749   6.574
55396SOL    HW268086  14.661   5.628   6.556
55397SOL     OW68087  11.776   3.644   7.929
55397SOL    HW168088  11.794   3.681   7.843
55397SOL    HW268089  11.683   3.623   7.928
55398SOL     OW68090   3.949  13.029  12.459
55398SOL    HW168091   3.879  13.093  12.450
55398SOL    HW268092   3.922  12.955  12.406
55399SOL     OW68093   9.438   6.479   0.123
55399SOL    HW168094   9.478   6.399   0.090
55399SOL    HW268095   9.409   6.525   0.044
55400SOL     OW68096  12.897   7.152   2.949
55400SOL    HW168097  12.802   7.141   2.937
55400SOL    HW268098  12.907   7.165   3.044
55401SOL     OW68099   6.895   7.748   5.670
55401SOL    HW168100   6.838   7.817   5.636
55401SOL    HW268101   6.899   7.763   5.764
55402SOL     OW68102   6.456   2.235   3.220
55402SOL    HW168103   6.498   2.320   3.237
55402SOL    HW268104   6.426   2.242   3.129
55403SOL     OW68105  11.895  13.277   9.309
55403SOL    HW168106  11.912  13.351   9.368
55403SOL    HW268107  11.969  13.277   9.248
55404SOL     OW68108   7.600  12.199   1.989
55404SOL    HW168109   7.505  12.211   1.982
55404SOL    HW268110   7.635  12.232   1.906
55405SOL     OW68111   2.494   8.875   7.031
55405SOL    HW168112   2.476   8.838   7.117
55405SOL    HW268113   2.429   8.834   6.973
55406SOL     OW68114   7.998   5.397   6.991
55406SOL    HW168115   8.054   5.350   7.053
55406SOL    HW268116   7.911   5.392   7.029
55407SOL     OW68117  14.231  10.528   9.987
55407SOL    HW168118  14.192  10.588   9.923
55407SOL    HW268119  14.322  10.517   9.957
55408SOL     OW68120   5.987   8.361  10.730
55408SOL    HW168121   6.043   8.355  10.652
55408SOL    HW268122   6.047   8.380  10.802
55409SOL     OW68123   4.064   4.003  14.860
55409SOL    HW168124   4.128   3.945   0.031
55409SOL    HW268125   4.002   3.943  14.817
55410SOL     OW68126   2.509   7.211   2.043
55410SOL    HW168127   2.437   7.148   2.044
55410SOL    HW268128   2.473   7.290   2.084
55411SOL     OW68129   2.643   9.370  12.301
55411SOL    HW168130   2.610   9.327  12.222
55411SOL    HW268131   2.738   9.366  12.292
55412SOL     OW68132   3.890   3.080  12.073
55412SOL    HW168133   3.926   3.006  12.120
55412SOL    HW268134   3.809   3.047  12.034
55413SOL     OW68135  13.196  13.628   2.428
55413SOL    HW168136  13.100  13.626   2.435
55413SOL    HW268137  13.216  13.563   2.360
55414SOL     OW68138  10.306  10.038   7.066
55414SOL    HW168139  10.390  10.062   7.028
55414SOL    HW268140  10.325   9.960   7.119
55415SOL     OW68141  10.080  11.178   7.800
55415SOL    HW168142  10.123  11.261   7.820
55415SOL    HW268143  10.114  11.155   7.713
55416SOL     OW68144   8.699   2.233  10.826
55416SOL    HW168145   8.623   2.276  10.865
55416SOL    HW268146   8.737   2.182  10.897
55417SOL     OW68147   3.102  13.677   8.163
55417SOL    HW168148   3.157  13.655   8.087
55417SOL    HW268149   3.027  13.618   8.156
55418SOL     OW68150   5.968  13.175   7.393
55418SOL    HW168151   5.884  13.179   7.439
55418SOL    HW268152   6.001  13.087   7.411
55419SOL     OW68153   3.346   6.569   0.943
55419SOL    HW168154   3.382   6.485   0.970
55419SOL    HW268155   3.257   6.570   0.978
55420SOL     OW68156   8.810  11.516   4.126
55420SOL    HW168157   8.849  11.527   4.039
55420SOL    HW268158   8.730  11.466   4.111
55421SOL     OW68159   7.616   3.993  12.347
55421SOL    HW168160   7.682   3.927  12.327
55421SOL    HW268161   7.569   3.958  12.423
55422SOL     OW68162  12.527   0.101  14.381
55422SOL    HW168163  12.439   0.093  14.343
55422SOL    HW268164  12.585   0.065  14.314
55423SOL     OW68165   4.998   8.414  11.388
55423SOL    HW168166   5.008   8.406  11.293
55423SOL    HW268167   4.909   8.448  11.399
55424SOL     OW68168   7.973   4.783  14.169
55424SOL    HW168169   7.919   4.861  14.180
55424SOL    HW268170   8.034   4.786  14.243
55425SOL     OW68171  14.100   3.330  14.751
55425SOL    HW168172  14.037   3.388  14.707
55425SOL    HW268173  14.131   3.382  14.826
55426SOL     OW68174   3.921  11.742   5.751
55426SOL    HW168175   3.859  11.746   5.679
55426SOL    HW268176   3.889  11.671   5.806
55427SOL     OW68177   1.198   0.248   5.403
55427SOL    HW168178   1.168   0.338   5.397
55427SOL    HW268179   1.120   0.197   5.425
55428SOL     OW68180   9.890  14.213  10.777
55428SOL    HW168181   9.844  14.292  10.750
55428SOL    HW268182   9.906  14.224  10.870
55429SOL     OW68183   6.764  14.799  11.939
55429SOL    HW168184   6.816   0.010  11.949
55429SOL    HW268185   6.721  14.809  11.854
55430SOL     OW68186   3.733  12.147   9.203
55430SOL    HW168187   3.755  12.054   9.193
55430SOL    HW268188   3.642  12.154   9.175
55431SOL     OW68189   8.379   7.547   4.154
55431SOL    HW168190   8.424   7.477   4.202
55431SOL    HW268191   8.449   7.590   4.104
55432SOL     OW68192   4.351   1.948   6.865
55432SOL    HW168193   4.428   1.984   6.821
55432SOL    HW268194   4.281   2.011   6.846
55433SOL     OW68195   1.502   6.311   9.200
55433SOL    HW168196   1.566   6.310   9.272
55433SOL    HW268197   1.418   6.297   9.243
55434SOL     OW68198   2.021   7.156   8.311
55434SOL    HW168199   2.048   7.203   8.231
55434SOL    HW268200   2.065   7.203   8.382
55435SOL     OW68201  13.686  10.111   1.530
55435SOL    HW168202  13.687  10.082   1.621
55435SOL    HW268203  13.769  10.077   1.494
55436SOL     OW68204   1.359   5.922   9.999
55436SOL    HW168205   1.317   5.915  10.085
55436SOL    HW268206   1.286   5.931   9.938
55437SOL     OW68207   9.104   8.687   4.111
55437SOL    HW168208   9.173   8.752   4.102
55437SOL    HW268209   9.054   8.694   4.030
55438SOL     OW68210  13.852  12.045  13.255
55438SOL    HW168211  13.873  12.094  13.335
55438SOL    HW268212  13.933  12.048  13.204
55439SOL     OW68213  13.643   0.116   0.991
55439SOL    HW168214  13.733   0.125   1.021
55439SOL    HW268215  13.605   0.051   1.049
55440SOL     OW68216   1.782   2.592   3.809
55440SOL    HW168217   1.774   2.627   3.720
55440SOL    HW268218   1.775   2.669   3.866
55441SOL     OW68219  10.811  13.708  14.128
55441SOL    HW168220  10.729  13.662  14.112
55441SOL    HW268221  10.838  13.680  14.215
55442SOL     OW68222   4.471   2.312  11.011
55442SOL    HW168223   4.539   2.318  10.943
55442SOL    HW268224   4.504   2.245  11.071
55443SOL     OW68225  13.628   7.541   6.334
55443SOL    HW168226  13.630   7.513   6.242
55443SOL    HW268227  13.705   7.499   6.372
55444SOL     OW68228  10.739   4.076   2.108
55444SOL    HW168229  10.732   4.046   2.198
55444SOL    HW268230  10.807   4.144   2.111
55445SOL     OW68231   4.382   1.769   9.240
55445SOL    HW168232   4.295   1.778   9.200
55445SOL    HW268233   4.380   1.683   9.282
55446SOL     OW68234   8.873   4.877   9.350
55446SOL    HW168235   8.853   4.893   9.258
55446SOL    HW268236   8.804   4.817   9.379
55447SOL     OW68237   2.855   8.953  14.459
55447SOL    HW168238   2.771   8.967  14.416
55447SOL    HW268239   2.857   9.017  14.530
55448SOL     OW68240   8.592   0.859  12.405
55448SOL    HW168241   8.588   0.936  12.348
55448SOL    HW268242   8.680   0.824  12.392
55449SOL     OW68243   1.341  13.038  12.636
55449SOL    HW168244   1.248  13.064  12.641
55449SOL    HW268245   1.340  12.956  12.587
55450SOL     OW68246   2.514   1.739   0.491
55450SOL    HW168247   2.454   1.665   0.493
55450SOL    HW268248   2.591   1.707   0.446
55451SOL     OW68249  12.295   0.461  10.243
55451SOL    HW168250  12.242   0.488  10.318
55451SOL    HW268251  12.306   0.541  10.191
55452SOL     OW68252  12.700   2.230  11.475
55452SOL    HW168253  12.785   2.246  11.434
55452SOL    HW268254  12.639   2.284  11.424
55453SOL     OW68255  14.588  13.710   1.964
55453SOL    HW168256  14.543  13.731   1.882
55453SOL    HW268257  14.665  13.661   1.937
55454SOL     OW68258   5.281   3.140   7.326
55454SOL    HW168259   5.234   3.214   7.365
55454SOL    HW268260   5.320   3.176   7.247
55455SOL     OW68261   8.641  14.487  13.403
55455SOL    HW168262   8.665  14.538  13.326
55455SOL    HW268263   8.722  14.447  13.432
55456SOL     OW68264   6.518  14.148  14.732
55456SOL    HW168265   6.505  14.231  14.687
55456SOL    HW268266   6.461  14.086  14.686
55457SOL     OW68267   6.228   6.401   2.871
55457SOL    HW168268   6.268   6.314   2.881
55457SOL    HW268269   6.273   6.456   2.935
55458SOL     OW68270   9.336   8.446   9.869
55458SOL    HW168271   9.350   8.352   9.870
55458SOL    HW268272   9.361   8.473   9.780
55459SOL     OW68273  12.045   0.370   0.010
55459SOL    HW168274  12.051   0.313  14.803
55459SOL    HW268275  12.109   0.439  14.864
55460SOL     OW68276   8.801  13.287  14.002
55460SOL    HW168277   8.736  13.331  13.947
55460SOL    HW268278   8.773  13.195  14.003
55461SOL     OW68279   9.815   1.853   6.045
55461SOL    HW168280   9.731   1.893   6.022
55461SOL    HW268281   9.851   1.910   6.113
55462SOL     OW68282   3.133   3.512   9.695
55462SOL    HW168283   3.175   3.426   9.699
55462SOL    HW268284   3.180   3.565   9.759
55463SOL     OW68285   7.356   8.052   5.294
55463SOL    HW168286   7.351   8.071   5.388
55463SOL    HW268287   7.297   7.977   5.281
55464SOL     OW68288  13.803   6.090   5.862
55464SOL    HW168289  13.879   6.032   5.855
55464SOL    HW268290  13.835   6.165   5.913
55465SOL     OW68291  14.544  14.332   6.036
55465SOL    HW168292  14.610  14.397   6.055
55465SOL    HW268293  14.538  14.330   5.940
55466SOL     OW68294   7.267  13.228  13.794
55466SOL    HW168295   7.318  13.242  13.874
55466SOL    HW268296   7.234  13.315  13.771
55467SOL     OW68297  10.335   3.907   9.807
55467SOL    HW168298  10.348   4.000   9.786
55467SOL    HW268299  10.255   3.905   9.858
55468SOL     OW68300  10.570  11.060  14.559
55468SOL    HW168301  10.570  11.127  14.491
55468SOL    HW268302  10.485  11.070  14.602
55469SOL     OW68303   9.841   7.290  14.165
55469SOL    HW168304   9.893   7.273  14.243
55469SOL    HW268305   9.894   7.257  14.092
55470SOL     OW68306   2.482   2.715   7.406
55470SOL    HW168307   2.560   2.701   7.461
55470SOL    HW268308   2.510   2.689   7.318
55471SOL     OW68309   0.298   1.025   5.352
55471SOL    HW168310   0.365   0.957   5.342
55471SOL    HW268311   0.331   1.099   5.301
55472SOL     OW68312   7.809   4.515  10.051
55472SOL    HW168313   7.747   4.507   9.979
55472SOL    HW268314   7.829   4.609  10.055
55473SOL     OW68315  12.273   0.296  11.937
55473SOL    HW168316  12.334   0.368  11.955
55473SOL    HW268317  12.200   0.339  11.892
55474SOL     OW68318  14.726   0.960  10.053
55474SOL    HW168319  14.674   0.953  10.134
55474SOL    HW268320  14.684   1.031  10.004
55475SOL     OW68321   0.698   9.405   7.134
55475SOL    HW168322   0.721   9.449   7.217
55475SOL    HW268323   0.764   9.337   7.124
55476SOL     OW68324   6.933   8.198   8.982
55476SOL    HW168325   6.854   8.151   9.010
55476SOL    HW268326   6.929   8.198   8.887
55477SOL     OW68327   8.302   0.523  14.618
55477SOL    HW168328   8.369   0.569  14.669
55477SOL    HW268329   8.350   0.486  14.544
55478SOL     OW68330  12.940   9.904  11.375
55478SOL    HW168331  12.941   9.978  11.315
55478SOL    HW268332  12.851   9.869  11.370
55479SOL     OW68333  13.362   6.525   4.833
55479SOL    HW168334  13.383   6.443   4.789
55479SOL    HW268335  13.419   6.527   4.910
55480SOL     OW68336   2.904  10.257   4.505
55480SOL    HW168337   2.849  10.284   4.578
55480SOL    HW268338   2.846  10.258   4.429
55481SOL     OW68339  11.400   6.082   5.003
55481SOL    HW168340  11.474   6.033   5.040
55481SOL    HW268341  11.328   6.066   5.064
55482SOL     OW68342  13.226   1.190   2.424
55482SOL    HW168343  13.295   1.203   2.489
55482SOL    HW268344  13.193   1.278   2.406
55483SOL     OW68345   1.370   4.608   3.753
55483SOL    HW168346   1.302   4.665   3.716
55483SOL    HW268347   1.335   4.520   3.745
55484SOL     OW68348   1.563  12.598   9.571
55484SOL    HW168349   1.639  12.542   9.558
55484SOL    HW268350   1.566  12.622   9.664
55485SOL     OW68351   5.237  14.326   3.187
55485SOL    HW168352   5.157  14.372   3.214
55485SOL    HW268353   5.273  14.380   3.117
55486SOL     OW68354  10.507   1.269   0.813
55486SOL    HW168355  10.421   1.236   0.840
55486SOL    HW268356  10.522   1.345   0.870
55487SOL     OW68357   5.969  13.365   6.363
55487SOL    HW168358   6.063  13.382   6.374
55487SOL    HW268359   5.926  13.442   6.403
55488SOL     OW68360   9.901   8.229   6.405
55488SOL    HW168361   9.987   8.254   6.439
55488SOL    HW268362   9.844   8.226   6.482
55489SOL     OW68363   8.773   9.836   8.853
55489SOL    HW168364   8.801   9.905   8.793
55489SOL    HW268365   8.855   9.804   8.892
55490SOL     OW68366   6.896   3.469   9.096
55490SOL    HW168367   6.801   3.472   9.097
55490SOL    HW268368   6.920   3.482   9.004
55491SOL     OW68369  10.530   3.818  13.955
55491SOL    HW168370  10.459   3.757  13.939
55491SOL    HW268371  10.540   3.867  13.873
55492SOL     OW68372   1.842   7.451  13.523
55492SOL    HW168373   1.905   7.484  13.459
55492SOL    HW268374   1.821   7.363  13.492
55493SOL     OW68375  10.604   3.353   7.713
55493SOL    HW168376  10.581   3.393   7.797
55493SOL    HW268377  10.638   3.266   7.737
55494SOL     OW68378  12.186  12.589  14.850
55494SOL    HW168379  12.268  12.638  14.859
55494SOL    HW268380  12.128  12.625   0.047
55495SOL     OW68381   7.360   3.437   5.662
55495SOL    HW168382   7.309   3.481   5.730
55495SOL    HW268383   7.328   3.475   5.580
55496SOL     OW68384   2.808   4.776   6.966
55496SOL    HW168385   2.718   4.781   6.997
55496SOL    HW268386   2.851   4.716   7.028
55497SOL     OW68387  14.228   5.664  13.411
55497SOL    HW168388  14.315   5.654  13.375
55497SOL    HW268389  14.229   5.748  13.456
55498SOL     OW68390   0.875  12.328  14.207
55498SOL    HW168391   0.900  12.417  14.231
55498SOL    HW268392   0.862  12.332  14.112
55499SOL     OW68393   3.739  13.199  12.411
55499SOL    HW168394   3.735  13.279  12.465
55499SOL    HW268395   3.647  13.180  12.391
55500SOL     OW68396  12.060   3.600  10.793
55500SOL    HW168397  12.115   3.649  10.854
55500SOL    HW268398  12.056   3.655  10.715
55501SOL     OW68399   2.614   9.759   6.201
55501SOL    HW168400   2.539   9.704   6.179
55501SOL    HW268401   2.646   9.791   6.117
55502SOL     OW68402   8.915   9.627   8.667
55502SOL    HW168403   8.919   9.533   8.646
55502SOL    HW268404   8.947   9.633   8.757
55503SOL     OW68405   5.854  13.077   1.828
55503SOL    HW168406   5.838  13.105   1.918
55503SOL    HW268407   5.768  13.079   1.787
55504SOL     OW68408  12.696  12.307   6.382
55504SOL    HW168409  12.757  12.282   6.451
55504SOL    HW268410  12.671  12.397   6.404
55505SOL     OW68411   8.345   4.324   8.261
55505SOL    HW168412   8.268   4.368   8.295
55505SOL    HW268413   8.324   4.230   8.264
55506SOL     OW68414   3.268   5.493   9.654
55506SOL    HW168415   3.258   5.419   9.594
55506SOL    HW268416   3.349   5.474   9.702
55507SOL     OW68417  13.069  12.576   9.697
55507SOL    HW168418  13.138  12.643   9.701
55507SOL    HW268419  13.052  12.554   9.788
55508SOL     OW68420   9.791   5.287   8.634
55508SOL    HW168421   9.748   5.334   8.705
55508SOL    HW268422   9.737   5.209   8.621
55509SOL     OW68423   8.776   3.005   9.913
55509SOL    HW168424   8.697   3.051   9.941
55509SOL    HW268425   8.847   3.067   9.930
55510SOL     OW68426   3.010  10.559  12.806
55510SOL    HW168427   2.986  10.651  12.801
55510SOL    HW268428   2.991  10.524  12.719
55511SOL     OW68429   4.196  12.866   1.018
55511SOL    HW168430   4.238  12.799   1.072
55511SOL    HW268431   4.261  12.936   1.012
55512SOL     OW68432   0.956   7.463   2.395
55512SOL    HW168433   1.003   7.516   2.332
55512SOL    HW268434   1.000   7.378   2.393
55513SOL     OW68435  14.470   9.817  14.425
55513SOL    HW168436  14.376   9.818  14.438
55513SOL    HW268437  14.489   9.731  14.389
55514SOL     OW68438  14.118   6.284   7.119
55514SOL    HW168439  14.197   6.338   7.111
55514SOL    HW268440  14.139   6.206   7.068
55515SOL     OW68441  14.476   1.883   9.110
55515SOL    HW168442  14.522   1.827   9.048
55515SOL    HW268443  14.471   1.830   9.190
55516SOL     OW68444  14.275   4.655   1.613
55516SOL    HW168445  14.341   4.632   1.547
55516SOL    HW268446  14.321   4.713   1.674
55517SOL     OW68447   1.311  12.436   0.573
55517SOL    HW168448   1.331  12.447   0.480
55517SOL    HW268449   1.218  12.414   0.575
55518SOL     OW68450   0.988   9.152   4.709
55518SOL    HW168451   1.059   9.197   4.755
55518SOL    HW268452   0.976   9.071   4.757
55519SOL     OW68453   0.763   0.757   3.789
55519SOL    HW168454   0.796   0.670   3.812
55519SOL    HW268455   0.823   0.818   3.831
55520SOL     OW68456   1.760   2.183   7.587
55520SOL    HW168457   1.775   2.113   7.523
55520SOL    HW268458   1.750   2.137   7.671
55521SOL     OW68459   0.792  10.568   2.892
55521SOL    HW168460   0.833  10.621   2.960
55521SOL    HW268461   0.816  10.611   2.810
55522SOL     OW68462   0.893  12.124   3.307
55522SOL    HW168463   0.799  12.136   3.314
55522SOL    HW268464   0.929  12.211   3.327
55523SOL     OW68465  14.755   1.346   5.482
55523SOL    HW168466  14.770   1.424   5.535
55523SOL    HW268467  14.660   1.335   5.481
55524SOL     OW68468   3.949   6.215  11.120
55524SOL    HW168469   4.002   6.215  11.200
55524SOL    HW268470   3.908   6.129  11.118
55525SOL     OW68471   3.348   8.708  10.028
55525SOL    HW168472   3.401   8.634  10.058
55525SOL    HW268473   3.393   8.739   9.950
55526SOL     OW68474   2.110   5.003   2.225
55526SOL    HW168475   2.166   5.077   2.200
55526SOL    HW268476   2.030   5.017   2.176
55527SOL     OW68477   1.463   8.468   6.524
55527SOL    HW168478   1.445   8.482   6.431
55527SOL    HW268479   1.471   8.556   6.561
55528SOL     OW68480   2.822   3.926   1.347
55528SOL    HW168481   2.778   3.855   1.300
55528SOL    HW268482   2.915   3.902   1.345
55529SOL     OW68483  13.057   3.428   7.702
55529SOL    HW168484  13.088   3.376   7.627
55529SOL    HW268485  12.962   3.418   7.700
55530SOL     OW68486   4.252  13.854  12.483
55530SOL    HW168487   4.249  13.766  12.445
55530SOL    HW268488   4.276  13.910  12.409
55531SOL     OW68489   2.306   5.313   3.756
55531SOL    HW168490   2.317   5.397   3.712
55531SOL    HW268491   2.365   5.253   3.710
55532SOL     OW68492   5.526   8.403  11.609
55532SOL    HW168493   5.493   8.314  11.625
55532SOL    HW268494   5.560   8.399  11.519
55533SOL     OW68495  14.106   1.343   7.313
55533SOL    HW168496  14.081   1.406   7.380
55533SOL    HW268497  14.086   1.257   7.351
55534SOL     OW68498   9.780  11.533  11.158
55534SOL    HW168499   9.844  11.582  11.106
55534SOL    HW268500   9.767  11.586  11.237
55535SOL     OW68501  12.060   6.001  12.402
55535SOL    HW168502  11.971   5.991  12.369
55535SOL    HW268503  12.091   5.911  12.417
55536SOL     OW68504   1.316  10.536   7.944
55536SOL    HW168505   1.230  10.574   7.964
55536SOL    HW268506   1.379  10.595   7.985
55537SOL     OW68507   7.418   0.857  10.203
55537SOL    HW168508   7.438   0.766  10.181
55537SOL    HW268509   7.442   0.907  10.125
55538SOL     OW68510  10.916   8.451  12.213
55538SOL    HW168511  11.001   8.488  12.240
55538SOL    HW268512  10.874   8.521  12.163
55539SOL     OW68513   4.607  12.654   2.778
55539SOL    HW168514   4.528  12.660   2.724
55539SOL    HW268515   4.647  12.571   2.753
55540SOL     OW68516   7.857   1.507   5.633
55540SOL    HW168517   7.791   1.562   5.590
55540SOL    HW268518   7.808   1.463   5.703
55541SOL     OW68519   8.312   8.146   5.654
55541SOL    HW168520   8.275   8.085   5.590
55541SOL    HW268521   8.401   8.114   5.669
55542SOL     OW68522  13.321  12.252  10.322
55542SOL    HW168523  13.268  12.292  10.254
55542SOL    HW268524  13.412  12.271  10.297
55543SOL     OW68525   1.810  11.101  12.144
55543SOL    HW168526   1.781  11.162  12.212
55543SOL    HW268527   1.820  11.017  12.190
55544SOL     OW68528  11.769   0.963   4.485
55544SOL    HW168529  11.844   0.922   4.443
55544SOL    HW268530  11.756   1.045   4.436
55545SOL     OW68531  10.270  14.534   2.625
55545SOL    HW168532  10.327  14.559   2.553
55545SOL    HW268533  10.221  14.459   2.591
55546SOL     OW68534   8.930   5.681  11.343
55546SOL    HW168535   8.923   5.695  11.437
55546SOL    HW268536   9.020   5.650  11.331
55547SOL     OW68537   9.627  11.257  11.231
55547SOL    HW168538   9.607  11.345  11.263
55547SOL    HW268539   9.543  11.212  11.230
55548SOL     OW68540  10.922   8.464   7.457
55548SOL    HW168541  10.830   8.458   7.481
55548SOL    HW268542  10.937   8.558   7.443
55549SOL     OW68543   5.694   6.755   3.820
55549SOL    HW168544   5.601   6.757   3.842
55549SOL    HW268545   5.739   6.736   3.903
55550SOL     OW68546  12.753   7.778  11.890
55550SOL    HW168547  12.833   7.748  11.935
55550SOL    HW268548  12.684   7.771  11.956
55551SOL     OW68549  12.509  12.194   7.122
55551SOL    HW168550  12.499  12.134   7.048
55551SOL    HW268551  12.595  12.234   7.109
55552SOL     OW68552   7.973  14.827  13.308
55552SOL    HW168553   8.008   0.045  13.293
55552SOL    HW268554   7.897  14.820  13.250
55553SOL     OW68555  10.824   2.311   2.363
55553SOL    HW168556  10.899   2.370   2.366
55553SOL    HW268557  10.759   2.358   2.310
55554SOL     OW68558   7.484   2.971   6.083
55554SOL    HW168559   7.522   2.885   6.062
55554SOL    HW268560   7.418   2.985   6.015
55555SOL     OW68561   6.437  10.775  13.745
55555SOL    HW168562   6.403  10.858  13.776
55555SOL    HW268563   6.428  10.780  13.650
55556SOL     OW68564   2.494   4.301  13.373
55556SOL    HW168565   2.457   4.237  13.311
55556SOL    HW268566   2.583   4.269  13.389
55557SOL     OW68567   5.745  13.503  11.159
55557SOL    HW168568   5.789  13.541  11.235
55557SOL    HW268569   5.709  13.578  11.112
55558SOL     OW68570   8.313   7.777  10.559
55558SOL    HW168571   8.286   7.859  10.600
55558SOL    HW268572   8.288   7.786  10.467
55559SOL     OW68573   8.426   3.512  12.897
55559SOL    HW168574   8.500   3.453  12.912
55559SOL    HW268575   8.368   3.464  12.839
55560SOL     OW68576   4.895  13.289  10.551
55560SOL    HW168577   4.858  13.362  10.601
55560SOL    HW268578   4.851  13.212  10.586
55561SOL     OW68579   6.502   5.029  14.194
55561SOL    HW168580   6.483   4.960  14.131
55561SOL    HW268581   6.510   5.109  14.141
55562SOL     OW68582   1.097   1.292   8.331
55562SOL    HW168583   1.170   1.308   8.271
55562SOL    HW268584   1.139   1.261   8.411
55563SOL     OW68585   1.036   4.912   1.137
55563SOL    HW168586   0.999   4.931   1.051
55563SOL    HW268587   0.963   4.878   1.188
55564SOL     OW68588   3.101   1.316   1.839
55564SOL    HW168589   3.057   1.394   1.805
55564SOL    HW268590   3.107   1.257   1.763
55565SOL     OW68591  11.040   1.562   4.230
55565SOL    HW168592  11.098   1.487   4.246
55565SOL    HW268593  10.960   1.541   4.279
55566SOL     OW68594  11.907   2.038  14.832
55566SOL    HW168595  11.915   1.943  14.841
55566SOL    HW268596  11.817   2.051  14.801
55567SOL     OW68597  12.244  10.655  13.852
55567SOL    HW168598  12.163  10.605  13.860
55567SOL    HW268599  12.296  10.628  13.928
55568SOL     OW68600   1.214  10.147   1.320
55568SOL    HW168601   1.183  10.103   1.399
55568SOL    HW268602   1.167  10.230   1.319
55569SOL     OW68603   2.595  12.156   1.816
55569SOL    HW168604   2.573  12.231   1.761
55569SOL    HW268605   2.596  12.081   1.756
55570SOL     OW68606   5.981   8.343  11.888
55570SOL    HW168607   5.924   8.353  11.964
55570SOL    HW268608   6.055   8.400  11.906
55571SOL     OW68609  14.500  12.554   9.300
55571SOL    HW168610  14.482  12.634   9.252
55571SOL    HW268611  14.561  12.580   9.369
55572SOL     OW68612   2.737  10.802   4.121
55572SOL    HW168613   2.765  10.755   4.043
55572SOL    HW268614   2.661  10.753   4.154
55573SOL     OW68615   7.303   9.673   2.022
55573SOL    HW168616   7.378   9.679   2.082
55573SOL    HW268617   7.319   9.743   1.958
55574SOL     OW68618  11.408  10.125  10.519
55574SOL    HW168619  11.424  10.199  10.578
55574SOL    HW268620  11.481  10.065  10.535
55575SOL     OW68621  10.992  10.183  13.385
55575SOL    HW168622  10.897  10.179  13.398
55575SOL    HW268623  11.025  10.102  13.423
55576SOL     OW68624   7.058   2.300   7.571
55576SOL    HW168625   7.117   2.311   7.645
55576SOL    HW268626   7.051   2.387   7.532
55577SOL     OW68627   7.267  11.173  14.331
55577SOL    HW168628   7.323  11.189  14.256
55577SOL    HW268629   7.183  11.212  14.307
55578SOL     OW68630  11.481   2.507   0.217
55578SOL    HW168631  11.558   2.479   0.166
55578SOL    HW268632  11.435   2.568   0.160
55579SOL     OW68633  12.215   7.487   4.901
55579SOL    HW168634  12.284   7.528   4.849
55579SOL    HW268635  12.195   7.551   4.969
55580SOL     OW68636   2.605   9.129  13.180
55580SOL    HW168637   2.696   9.116  13.155
55580SOL    HW268638   2.609   9.196  13.249
55581SOL     OW68639  10.188   4.728   6.047
55581SOL    HW168640  10.265   4.708   5.994
55581SOL    HW268641  10.212   4.702   6.135
55582SOL     OW68642   0.824   6.915   0.740
55582SOL    HW168643   0.825   6.886   0.649
55582SOL    HW268644   0.885   6.989   0.742
55583SOL     OW68645   1.894  14.103  10.523
55583SOL    HW168646   1.986  14.085  10.541
55583SOL    HW268647   1.875  14.057  10.441
55584SOL     OW68648   0.269   4.078   2.565
55584SOL    HW168649   0.342   4.100   2.508
55584SOL    HW268650   0.190   4.101   2.516
55585SOL     OW68651   2.982   2.502   9.547
55585SOL    HW168652   2.960   2.419   9.590
55585SOL    HW268653   3.076   2.497   9.531
55586SOL     OW68654  13.901   4.795   2.337
55586SOL    HW168655  13.834   4.832   2.394
55586SOL    HW268656  13.865   4.804   2.249
55587SOL     OW68657   8.695   2.812   3.994
55587SOL    HW168658   8.777   2.771   3.966
55587SOL    HW268659   8.716   2.905   4.000
55588SOL     OW68660   2.004   4.110   6.762
55588SOL    HW168661   1.966   4.022   6.769
55588SOL    HW268662   2.020   4.122   6.669
55589SOL     OW68663   3.136   3.913  14.508
55589SOL    HW168664   3.076   3.848  14.471
55589SOL    HW268665   3.145   3.979  14.440
55590SOL     OW68666  12.892  11.351   0.779
55590SOL    HW168667  12.820  11.383   0.724
55590SOL    HW268668  12.967  11.404   0.752
55591SOL     OW68669   3.515   0.653   8.424
55591SOL    HW168670   3.429   0.641   8.385
55591SOL    HW268671   3.502   0.634   8.517
55592SOL     OW68672   3.715  10.293  10.381
55592SOL    HW168673   3.679  10.283  10.470
55592SOL    HW268674   3.665  10.232  10.328
55593SOL     OW68675   8.741   1.329   7.485
55593SOL    HW168676   8.679   1.257   7.496
55593SOL    HW268677   8.687   1.407   7.484
55594SOL     OW68678   1.122   2.872   8.000
55594SOL    HW168679   1.112   2.778   8.015
55594SOL    HW268680   1.076   2.913   8.073
55595SOL     OW68681   3.436  13.221   1.124
55595SOL    HW168682   3.355  13.236   1.076
55595SOL    HW268683   3.408  13.197   1.212
55596SOL     OW68684   3.331   0.685  12.660
55596SOL    HW168685   3.251   0.737  12.657
55596SOL    HW268686   3.315   0.620  12.728
55597SOL     OW68687   5.132   6.696   6.983
55597SOL    HW168688   5.180   6.754   6.923
55597SOL    HW268689   5.191   6.621   6.996
55598SOL     OW68690  14.478   0.862   2.258
55598SOL    HW168691  14.467   0.783   2.311
55598SOL    HW268692  14.390   0.883   2.229
55599SOL     OW68693  14.740   9.309  13.414
55599SOL    HW168694  14.738   9.233  13.356
55599SOL    HW268695  14.713   9.382  13.359
55600SOL     OW68696  14.354  10.989   4.676
55600SOL    HW168697  14.340  11.071   4.629
55600SOL    HW268698  14.365  10.923   4.608
55601SOL     OW68699  13.057  12.808   9.161
55601SOL    HW168700  13.115  12.878   9.192
55601SOL    HW268701  13.074  12.735   9.221
55602SOL     OW68702   5.213   6.091   4.484
55602SOL    HW168703   5.289   6.040   4.454
55602SOL    HW268704   5.197   6.152   4.413
55603SOL     OW68705  14.216   3.293   7.179
55603SOL    HW168706  14.200   3.386   7.191
55603SOL    HW268707  14.165   3.250   7.248
55604SOL     OW68708  13.372   4.072   3.295
55604SOL    HW168709  13.304   4.111   3.350
55604SOL    HW268710  13.454   4.102   3.334
55605SOL     OW68711   9.390   2.200  10.554
55605SOL    HW168712   9.358   2.257  10.624
55605SOL    HW268713   9.446   2.137  10.598
55606SOL     OW68714   0.972   1.169   2.731
55606SOL    HW168715   1.054   1.181   2.682
55606SOL    HW268716   0.984   1.088   2.780
55607SOL     OW68717   2.074   2.748   9.279
55607SOL    HW168718   2.148   2.782   9.227
55607SOL    HW268719   2.103   2.757   9.370
55608SOL     OW68720  14.667   5.927   7.919
55608SOL    HW168721  14.701   5.933   8.009
55608SOL    HW268722  14.596   5.991   7.916
55609SOL     OW68723   5.908   9.108   2.074
55609SOL    HW168724   5.822   9.067   2.078
55609SOL    HW268725   5.942   9.086   1.987
55610SOL     OW68726   1.233  11.645  11.528
55610SOL    HW168727   1.280  11.569  11.493
55610SOL    HW268728   1.244  11.639  11.623
55611SOL     OW68729   5.832   0.158   3.516
55611SOL    HW168730   5.841   0.068   3.547
55611SOL    HW268731   5.901   0.167   3.450
55612SOL     OW68732   4.292   1.457   4.661
55612SOL    HW168733   4.279   1.390   4.594
55612SOL    HW268734   4.234   1.430   4.733
55613SOL     OW68735  10.466   7.224  13.347
55613SOL    HW168736  10.424   7.270  13.419
55613SOL    HW268737  10.514   7.152  13.389
55614SOL     OW68738   3.227   0.082  14.528
55614SOL    HW168739   3.303   0.023  14.533
55614SOL    HW268740   3.265   0.169  14.517
55615SOL     OW68741   9.872   2.455  10.655
55615SOL    HW168742   9.799   2.508  10.621
55615SOL    HW268743   9.939   2.461  10.587
55616SOL     OW68744  11.660   8.349  13.419
55616SOL    HW168745  11.582   8.365  13.366
55616SOL    HW268746  11.689   8.262  13.393
55617SOL     OW68747  12.443   1.903  13.901
55617SOL    HW168748  12.359   1.879  13.940
55617SOL    HW268749  12.502   1.915  13.975
55618SOL     OW68750   6.653   4.050   1.520
55618SOL    HW168751   6.626   4.138   1.547
55618SOL    HW268752   6.614   4.039   1.433
55619SOL     OW68753   8.262  14.201  14.220
55619SOL    HW168754   8.325  14.129  14.224
55619SOL    HW268755   8.187  14.169  14.271
55620SOL     OW68756   2.120  14.393   3.575
55620SOL    HW168757   2.076  14.328   3.630
55620SOL    HW268758   2.053  14.460   3.560
55621SOL     OW68759   4.064   0.681   9.355
55621SOL    HW168760   3.989   0.704   9.409
55621SOL    HW268761   4.076   0.756   9.297
55622SOL     OW68762   4.667   4.776   4.495
55622SOL    HW168763   4.735   4.837   4.467
55622SOL    HW268764   4.714   4.709   4.546
55623SOL     OW68765   8.073   0.514  10.331
55623SOL    HW168766   8.008   0.558  10.278
55623SOL    HW268767   8.082   0.568  10.410
55624SOL     OW68768  11.973  11.175   3.401
55624SOL    HW168769  11.888  11.168   3.357
55624SOL    HW268770  11.978  11.097   3.457
55625SOL     OW68771   5.715  10.891   9.346
55625SOL    HW168772   5.668  10.973   9.332
55625SOL    HW268773   5.770  10.908   9.423
55626SOL     OW68774  11.705  14.321   4.569
55626SOL    HW168775  11.623  14.366   4.548
55626SOL    HW268776  11.678  14.236   4.604
55627SOL     OW68777   9.871   4.870   8.898
55627SOL    HW168778   9.855   4.948   8.952
55627SOL    HW268779   9.820   4.801   8.940
55628SOL     OW68780  11.335   9.151  10.673
55628SOL    HW168781  11.319   9.245  10.677
55628SOL    HW268782  11.430   9.143  10.665
55629SOL     OW68783   1.856   9.816   9.113
55629SOL    HW168784   1.880   9.828   9.205
55629SOL    HW268785   1.834   9.904   9.082
55630SOL     OW68786  10.186  14.492   4.222
55630SOL    HW168787  10.098  14.516   4.251
55630SOL    HW268788  10.174  14.464   4.131
55631SOL     OW68789   3.415   2.314  11.375
55631SOL    HW168790   3.451   2.250  11.313
55631SOL    HW268791   3.474   2.311  11.450
55632SOL     OW68792   9.112   2.461   2.313
55632SOL    HW168793   9.150   2.548   2.327
55632SOL    HW268794   9.095   2.429   2.402
55633SOL     OW68795   1.283   6.732   4.874
55633SOL    HW168796   1.280   6.694   4.786
55633SOL    HW268797   1.196   6.769   4.887
55634SOL     OW68798  14.790   4.222  11.304
55634SOL    HW168799  14.867   4.190  11.351
55634SOL    HW268800  14.731   4.147  11.302
55635SOL     OW68801   3.607  14.220   2.160
55635SOL    HW168802   3.641  14.152   2.218
55635SOL    HW268803   3.685  14.255   2.117
55636SOL     OW68804   4.376   5.581  13.842
55636SOL    HW168805   4.284   5.555  13.847
55636SOL    HW268806   4.375   5.674  13.865
55637SOL     OW68807   7.879   2.487   0.037
55637SOL    HW168808   7.867   2.442  14.823
55637SOL    HW268809   7.856   2.578   0.019
55638SOL     OW68810  11.198  10.461   8.773
55638SOL    HW168811  11.272  10.442   8.831
55638SOL    HW268812  11.126  10.484   8.832
55639SOL     OW68813  10.997   6.921   2.057
55639SOL    HW168814  10.950   6.988   2.006
55639SOL    HW268815  10.933   6.851   2.069
55640SOL     OW68816   0.735   9.461   6.583
55640SOL    HW168817   0.675   9.388   6.567
55640SOL    HW268818   0.685   9.538   6.557
55641SOL     OW68819   0.356   1.312   8.713
55641SOL    HW168820   0.283   1.352   8.760
55641SOL    HW268821   0.433   1.332   8.766
55642SOL     OW68822  12.945   1.835  12.029
55642SOL    HW168823  12.983   1.770  12.087
55642SOL    HW268824  12.908   1.785  11.957
55643SOL     OW68825   9.966   3.272   8.444
55643SOL    HW168826  10.035   3.206   8.447
55643SOL    HW268827  10.000   3.342   8.388
55644SOL     OW68828   8.682   1.488   0.373
55644SOL    HW168829   8.638   1.538   0.304
55644SOL    HW268830   8.776   1.501   0.356
55645SOL     OW68831   0.011   0.852  12.604
55645SOL    HW168832  14.852   0.792  12.673
55645SOL    HW268833   0.100   0.876  12.629
55646SOL     OW68834   2.307   7.811   3.926
55646SOL    HW168835   2.362   7.875   3.883
55646SOL    HW268836   2.229   7.860   3.953
55647SOL     OW68837   3.101   3.038  13.451
55647SOL    HW168838   3.154   3.059  13.528
55647SOL    HW268839   3.110   3.115  13.394
55648SOL     OW68840   5.407  11.827   7.886
55648SOL    HW168841   5.437  11.754   7.831
55648SOL    HW268842   5.447  11.810   7.972
55649SOL     OW68843   9.516  12.302  13.661
55649SOL    HW168844   9.565  12.309  13.743
55649SOL    HW268845   9.577  12.263  13.599
55650SOL     OW68846   0.500  10.770   5.765
55650SOL    HW168847   0.575  10.829   5.761
55650SOL    HW268848   0.463  10.771   5.676
55651SOL     OW68849   1.737   4.231   0.378
55651SOL    HW168850   1.663   4.174   0.397
55651SOL    HW268851   1.764   4.207   0.289
55652SOL     OW68852   3.751   1.187   9.605
55652SOL    HW168853   3.770   1.170   9.513
55652SOL    HW268854   3.804   1.124   9.653
55653SOL     OW68855   0.708   1.464  11.668
55653SOL    HW168856   0.624   1.502  11.643
55653SOL    HW268857   0.749   1.437  11.586
55654SOL     OW68858   2.785   4.984  13.786
55654SOL    HW168859   2.852   4.929  13.828
55654SOL    HW268860   2.720   4.998  13.855
55655SOL     OW68861   5.172  11.217   2.752
55655SOL    HW168862   5.133  11.144   2.798
55655SOL    HW268863   5.100  11.279   2.739
55656SOL     OW68864  12.863   8.641   1.527
55656SOL    HW168865  12.912   8.642   1.444
55656SOL    HW268866  12.921   8.686   1.589
55657SOL     OW68867   0.783  11.190  12.405
55657SOL    HW168868   0.825  11.260  12.456
55657SOL    HW268869   0.834  11.112  12.426
55658SOL     OW68870   1.597   9.146  12.488
55658SOL    HW168871   1.639   9.192  12.416
55658SOL    HW268872   1.642   9.179  12.566
55659SOL     OW68873  11.212   1.890   1.460
55659SOL    HW168874  11.163   1.951   1.516
55659SOL    HW268875  11.251   1.946   1.392
55660SOL     OW68876   9.430   6.144   5.807
55660SOL    HW168877   9.368   6.127   5.878
55660SOL    HW268878   9.461   6.058   5.780
55661SOL     OW68879   4.770  10.915  14.382
55661SOL    HW168880   4.828  10.969  14.329
55661SOL    HW268881   4.803  10.825  14.370
55662SOL     OW68882   1.257   1.861   1.801
55662SOL    HW168883   1.224   1.881   1.888
55662SOL    HW268884   1.196   1.795   1.767
55663SOL     OW68885   0.676   3.764  11.484
55663SOL    HW168886   0.758   3.787  11.441
55663SOL    HW268887   0.620   3.733  11.412
55664SOL     OW68888   7.713  10.948   3.664
55664SOL    HW168889   7.675  10.914   3.583
55664SOL    HW268890   7.722  10.872   3.721
55665SOL     OW68891  11.086  14.323   9.414
55665SOL    HW168892  11.019  14.336   9.347
55665SOL    HW268893  11.037  14.300   9.493
55666SOL     OW68894  12.789   3.527   2.235
55666SOL    HW168895  12.885   3.526   2.226
55666SOL    HW268896  12.771   3.601   2.293
55667SOL     OW68897   2.125  13.133  12.118
55667SOL    HW168898   2.209  13.110  12.157
55667SOL    HW268899   2.126  13.229  12.114
55668SOL     OW68900  13.163  11.995   6.441
55668SOL    HW168901  13.235  11.952   6.487
55668SOL    HW268902  13.183  11.983   6.348
55669SOL     OW68903  10.430  14.402   7.681
55669SOL    HW168904  10.486  14.332   7.647
55669SOL    HW268905  10.464  14.482   7.641
55670SOL     OW68906   0.257   0.476   4.641
55670SOL    HW168907   0.183   0.509   4.591
55670SOL    HW268908   0.325   0.543   4.629
55671SOL     OW68909   3.241   2.707  13.025
55671SOL    HW168910   3.334   2.712  13.006
55671SOL    HW268911   3.235   2.716  13.120
55672SOL     OW68912   7.245   7.413   5.199
55672SOL    HW168913   7.177   7.480   5.204
55672SOL    HW268914   7.197   7.330   5.197
55673SOL     OW68915   7.195  12.915   1.164
55673SOL    HW168916   7.283  12.877   1.159
55673SOL    HW268917   7.156  12.897   1.078
55674SOL     OW68918   1.883   9.913   6.838
55674SOL    HW168919   1.965   9.962   6.839
55674SOL    HW268920   1.886   9.861   6.918
55675SOL     OW68921   6.453  12.319   6.422
55675SOL    HW168922   6.485  12.295   6.335
55675SOL    HW268923   6.533  12.326   6.475
55676SOL     OW68924  11.736  11.043   9.555
55676SOL    HW168925  11.719  11.027   9.463
55676SOL    HW268926  11.655  11.017   9.599
55677SOL     OW68927  11.678   7.023  11.280
55677SOL    HW168928  11.686   6.932  11.310
55677SOL    HW268929  11.613   7.062  11.338
55678SOL     OW68930  13.677   3.379   4.070
55678SOL    HW168931  13.701   3.464   4.105
55678SOL    HW268932  13.600   3.353   4.120
55679SOL     OW68933   0.273  12.213   9.913
55679SOL    HW168934   0.286  12.284   9.851
55679SOL    HW268935   0.230  12.254   9.988
55680SOL     OW68936  14.398  11.884   9.784
55680SOL    HW168937  14.427  11.879   9.693
55680SOL    HW268938  14.313  11.841   9.785
55681SOL     OW68939   4.097  13.963  10.898
55681SOL    HW168940   4.022  13.912  10.927
55681SOL    HW268941   4.068  14.054  10.902
55682SOL     OW68942   9.894   5.177  11.079
55682SOL    HW168943   9.872   5.084  11.073
55682SOL    HW268944   9.840   5.209  11.151
55683SOL     OW68945   4.903   6.503  13.495
55683SOL    HW168946   4.928   6.594  13.484
55683SOL    HW268947   4.984   6.453  13.486
55684SOL     OW68948  11.190   2.969   8.571
55684SOL    HW168949  11.142   3.019   8.637
55684SOL    HW268950  11.244   2.908   8.621
55685SOL     OW68951   9.076   1.261   1.852
55685SOL    HW168952   9.144   1.317   1.889
55685SOL    HW268953   9.116   1.174   1.849
55686SOL     OW68954  10.698   8.190  14.108
55686SOL    HW168955  10.743   8.193  14.023
55686SOL    HW268956  10.762   8.225  14.169
55687SOL     OW68957   4.540   7.973  10.110
55687SOL    HW168958   4.531   8.062  10.144
55687SOL    HW268959   4.499   7.975  10.024
55688SOL     OW68960   2.806   1.686   8.181
55688SOL    HW168961   2.887   1.726   8.151
55688SOL    HW268962   2.813   1.594   8.154
55689SOL     OW68963  14.726   8.676  13.236
55689SOL    HW168964  14.651   8.652  13.183
55689SOL    HW268965  14.691   8.731  13.305
55690SOL     OW68966  10.252  14.311   1.271
55690SOL    HW168967  10.335  14.341   1.310
55690SOL    HW268968  10.275  14.286   1.182
55691SOL     OW68969   3.950   7.410   8.050
55691SOL    HW168970   3.895   7.479   8.087
55691SOL    HW268971   3.911   7.392   7.965
55692SOL     OW68972  12.555  11.520   4.499
55692SOL    HW168973  12.630  11.575   4.475
55692SOL    HW268974  12.484  11.550   4.443
55693SOL     OW68975  12.103   9.483   3.240
55693SOL    HW168976  12.159   9.474   3.317
55693SOL    HW268977  12.163   9.471   3.166
55694SOL     OW68978   2.766   6.383   9.841
55694SOL    HW168979   2.752   6.466   9.886
55694SOL    HW268980   2.757   6.405   9.748
55695SOL     OW68981   4.875  14.765   1.557
55695SOL    HW168982   4.821  14.839   1.529
55695SOL    HW268983   4.834  14.736   1.639
55696SOL     OW68984   0.671  14.441   1.441
55696SOL    HW168985   0.723  14.444   1.362
55696SOL    HW268986   0.653  14.533   1.462
55697SOL     OW68987   9.891   4.095   3.953
55697SOL    HW168988   9.894   4.104   4.048
55697SOL    HW268989   9.832   4.164   3.923
55698SOL     OW68990  14.686   4.770   6.289
55698SOL    HW168991  14.689   4.863   6.264
55698SOL    HW268992  14.603   4.761   6.336
55699SOL     OW68993   9.060   8.292   3.501
55699SOL    HW168994   9.098   8.378   3.481
55699SOL    HW268995   8.971   8.296   3.467
55700SOL     OW68996   2.195   7.796  12.125
55700SOL    HW168997   2.196   7.849  12.046
55700SOL    HW268998   2.140   7.721  12.103
55701SOL     OW68999   3.746   6.958   6.534
55701SOL    HW169000   3.703   7.040   6.509
55701SOL    HW269001   3.837   6.969   6.506
55702SOL     OW69002   0.065   1.489  10.642
55702SOL    HW169003   0.058   1.450  10.555
55702SOL    HW269004   0.159   1.502  10.655
55703SOL     OW69005   3.203   5.418  10.333
55703SOL    HW169006   3.230   5.476  10.404
55703SOL    HW269007   3.117   5.449  10.307
55704SOL     OW69008  14.638   4.231   0.210
55704SOL    HW169009  14.543   4.230   0.220
55704SOL    HW269010  14.671   4.214   0.298
55705SOL     OW69011   9.685   0.507   7.892
55705SOL    HW169012   9.732   0.494   7.974
55705SOL    HW269013   9.729   0.449   7.830
55706SOL     OW69014   6.058   1.368  10.448
55706SOL    HW169015   6.000   1.306  10.493
55706SOL    HW269016   6.087   1.428  10.516
55707SOL     OW69017   0.751   9.354   3.941
55707SOL    HW169018   0.810   9.429   3.933
55707SOL    HW269019   0.738   9.343   4.035
55708SOL     OW69020   3.518   7.680  10.803
55708SOL    HW169021   3.475   7.763  10.823
55708SOL    HW269022   3.445   7.620  10.782
55709SOL     OW69023   5.119   4.136   7.060
55709SOL    HW169024   5.204   4.122   7.019
55709SOL    HW269025   5.056   4.108   6.993
55710SOL     OW69026   5.589   6.513   3.152
55710SOL    HW169027   5.681   6.536   3.166
55710SOL    HW269028   5.540   6.575   3.206
55711SOL     OW69029   3.250  12.327   4.598
55711SOL    HW169030   3.190  12.283   4.658
55711SOL    HW269031   3.195  12.386   4.547
55712SOL     OW69032  11.843   7.986   3.430
55712SOL    HW169033  11.849   7.960   3.338
55712SOL    HW269034  11.913   8.050   3.442
55713SOL     OW69035   6.916   4.703   8.832
55713SOL    HW169036   6.895   4.703   8.925
55713SOL    HW269037   6.895   4.615   8.802
55714SOL     OW69038  11.426   5.745   9.476
55714SOL    HW169039  11.437   5.837   9.500
55714SOL    HW269040  11.331   5.732   9.472
55715SOL     OW69041   6.259   4.148   7.668
55715SOL    HW169042   6.326   4.107   7.722
55715SOL    HW269043   6.295   4.234   7.646
55716SOL     OW69044  12.707   3.790   9.959
55716SOL    HW169045  12.745   3.877   9.945
55716SOL    HW269046  12.745   3.736   9.891
55717SOL     OW69047   7.168  12.508   5.519
55717SOL    HW169048   7.094  12.447   5.516
55717SOL    HW269049   7.225  12.478   5.448
55718SOL     OW69050   9.130   9.073  14.527
55718SOL    HW169051   9.167   8.992  14.563
55718SOL    HW269052   9.052   9.090  14.580
55719SOL     OW69053  13.063  14.821  11.120
55719SOL    HW169054  13.112   0.032  11.105
55719SOL    HW269055  13.042  14.789  11.032
55720SOL     OW69056   3.542   5.508   8.289
55720SOL    HW169057   3.517   5.416   8.277
55720SOL    HW269058   3.491   5.536   8.365
55721SOL     OW69059  11.079   2.680  12.637
55721SOL    HW169060  11.060   2.691  12.730
55721SOL    HW269061  11.067   2.767  12.599
55722SOL     OW69062  12.618  14.477   6.659
55722SOL    HW169063  12.585  14.414   6.723
55722SOL    HW269064  12.677  14.533   6.710
55723SOL     OW69065  10.621   5.070   4.814
55723SOL    HW169066  10.570   4.990   4.802
55723SOL    HW269067  10.562   5.141   4.789
55724SOL     OW69068  13.743   6.477   6.422
55724SOL    HW169069  13.679   6.406   6.424
55724SOL    HW269070  13.718   6.534   6.495
55725SOL     OW69071  10.662   9.936  14.868
55725SOL    HW169072  10.732   9.887  14.826
55725SOL    HW269073  10.706   9.995   0.059
55726SOL     OW69074   7.039  14.463  11.866
55726SOL    HW169075   7.033  14.369  11.846
55726SOL    HW269076   7.131  14.485  11.851
55727SOL     OW69077  10.863   7.914  11.356
55727SOL    HW169078  10.803   7.847  11.389
55727SOL    HW269079  10.845   7.918  11.263
55728SOL     OW69080  12.569   9.160   5.119
55728SOL    HW169081  12.479   9.150   5.152
55728SOL    HW269082  12.608   9.073   5.128
55729SOL     OW69083   8.829   3.498   9.392
55729SOL    HW169084   8.893   3.568   9.376
55729SOL    HW269085   8.746   3.534   9.359
55730SOL     OW69086   7.499   2.785  11.487
55730SOL    HW169087   7.492   2.718  11.418
55730SOL    HW269088   7.586   2.771  11.525
55731SOL     OW69089   4.417  13.367  14.686
55731SOL    HW169090   4.351  13.298  14.679
55731SOL    HW269091   4.466  13.345  14.766
55732SOL     OW69092   9.606  14.668  11.048
55732SOL    HW169093   9.588  14.759  11.070
55732SOL    HW269094   9.701  14.659  11.058
55733SOL     OW69095  11.723   9.621   0.706
55733SOL    HW169096  11.773   9.681   0.649
55733SOL    HW269097  11.725   9.662   0.792
55734SOL     OW69098   9.121   5.392   2.174
55734SOL    HW169099   9.111   5.310   2.224
55734SOL    HW269100   9.210   5.420   2.192
55735SOL     OW69101  11.506   7.794  12.144
55735SOL    HW169102  11.517   7.820  12.236
55735SOL    HW269103  11.545   7.707  12.140
55736SOL     OW69104  12.837   6.652  12.575
55736SOL    HW169105  12.919   6.651  12.525
55736SOL    HW269106  12.775   6.603  12.520
55737SOL     OW69107   4.405   7.192   3.462
55737SOL    HW169108   4.338   7.232   3.517
55737SOL    HW269109   4.478   7.174   3.522
55738SOL     OW69110  12.007  12.909  11.249
55738SOL    HW169111  11.943  12.840  11.265
55738SOL    HW269112  12.004  12.964  11.327
55739SOL     OW69113   5.506   7.166   4.912
55739SOL    HW169114   5.516   7.154   5.007
55739SOL    HW269115   5.505   7.261   4.900
55740SOL     OW69116  14.208   9.943   4.447
55740SOL    HW169117  14.224   9.943   4.352
55740SOL    HW269118  14.296   9.946   4.485
55741SOL     OW69119   0.686  11.078   7.804
55741SOL    HW169120   0.720  11.165   7.823
55741SOL    HW269121   0.743  11.018   7.852
55742SOL     OW69122   3.589   8.984   8.340
55742SOL    HW169123   3.658   8.917   8.337
55742SOL    HW269124   3.508   8.935   8.353
55743SOL     OW69125   5.853   8.902  10.516
55743SOL    HW169126   5.865   8.958  10.592
55743SOL    HW269127   5.758   8.895  10.505
55744SOL     OW69128   7.953   6.775  11.381
55744SOL    HW169129   7.994   6.719  11.316
55744SOL    HW269130   8.013   6.774  11.455
55745SOL     OW69131   0.189  11.334   2.370
55745SOL    HW169132   0.152  11.258   2.326
55745SOL    HW269133   0.242  11.377   2.303
55746SOL     OW69134   9.333   4.819   7.781
55746SOL    HW169135   9.376   4.852   7.860
55746SOL    HW269136   9.243   4.801   7.808
55747SOL     OW69137   0.935   3.169   5.978
55747SOL    HW169138   0.988   3.178   5.899
55747SOL    HW269139   0.977   3.228   6.042
55748SOL     OW69140  14.098   0.195  10.197
55748SOL    HW169141  14.131   0.223  10.112
55748SOL    HW269142  14.099   0.274  10.251
55749SOL     OW69143   8.730   4.497   7.082
55749SOL    HW169144   8.818   4.479   7.049
55749SOL    HW269145   8.703   4.415   7.124
55750SOL     OW69146  13.591   7.751  14.592
55750SOL    HW169147  13.522   7.788  14.647
55750SOL    HW269148  13.572   7.786  14.505
55751SOL     OW69149   6.520   4.266  12.494
55751SOL    HW169150   6.462   4.340  12.508
55751SOL    HW269151   6.547   4.273  12.403
55752SOL     OW69152   7.027   8.701  11.336
55752SOL    HW169153   6.962   8.772  11.338
55752SOL    HW269154   6.986   8.630  11.385
55753SOL     OW69155   8.851   5.987   4.386
55753SOL    HW169156   8.775   6.044   4.403
55753SOL    HW269157   8.819   5.924   4.322
55754SOL     OW69158  11.140  13.510   6.700
55754SOL    HW169159  11.171  13.473   6.617
55754SOL    HW269160  11.143  13.437   6.762
55755SOL     OW69161  13.886   9.510   4.828
55755SOL    HW169162  13.801   9.535   4.792
55755SOL    HW269163  13.910   9.431   4.780
55756SOL     OW69164   3.053   0.917   9.975
55756SOL    HW169165   3.010   0.984  10.028
55756SOL    HW269166   3.116   0.876  10.034
55757SOL     OW69167  12.204  13.680  14.252
55757SOL    HW169168  12.274  13.615  14.247
55757SOL    HW269169  12.189  13.705  14.161
55758SOL     OW69170  12.139   1.300  11.973
55758SOL    HW169171  12.094   1.236  11.918
55758SOL    HW269172  12.111   1.385  11.938
55759SOL     OW69173   7.927  10.428   7.727
55759SOL    HW169174   7.941  10.513   7.769
55759SOL    HW269175   7.859  10.444   7.663
55760SOL     OW69176   8.059   2.427  11.228
55760SOL    HW169177   8.124   2.360  11.249
55760SOL    HW269178   8.053   2.427  11.133
55761SOL     OW69179   9.348   3.352   8.235
55761SOL    HW169180   9.312   3.312   8.314
55761SOL    HW269181   9.371   3.278   8.179
55762SOL     OW69182   9.182   4.170  13.321
55762SOL    HW169183   9.175   4.245  13.380
55762SOL    HW269184   9.091   4.141  13.309
55763SOL     OW69185   5.269   1.734   4.506
55763SOL    HW169186   5.324   1.696   4.574
55763SOL    HW269187   5.290   1.684   4.427
55764SOL     OW69188   4.494  14.542   0.439
55764SOL    HW169189   4.402  14.542   0.466
55764SOL    HW269190   4.491  14.523   0.345
55765SOL     OW69191   0.793  14.265   4.292
55765SOL    HW169192   0.706  14.297   4.269
55765SOL    HW269193   0.851  14.309   4.229
55766SOL     OW69194   9.927   3.550  13.655
55766SOL    HW169195   9.835   3.533  13.677
55766SOL    HW269196   9.949   3.484  13.589
55767SOL     OW69197   4.457  13.250  13.793
55767SOL    HW169198   4.382  13.310  13.783
55767SOL    HW269199   4.463  13.235  13.887
55768SOL     OW69200   0.720   9.576   3.545
55768SOL    HW169201   0.678   9.599   3.463
55768SOL    HW269202   0.701   9.649   3.603
55769SOL     OW69203   9.108  11.599   0.299
55769SOL    HW169204   9.031  11.613   0.243
55769SOL    HW269205   9.077  11.541   0.369
55770SOL     OW69206   6.419  14.353   2.777
55770SOL    HW169207   6.431  14.322   2.687
55770SOL    HW269208   6.330  14.324   2.800
55771SOL     OW69209   5.829   5.808   7.517
55771SOL    HW169210   5.812   5.717   7.495
55771SOL    HW269211   5.906   5.832   7.464
55772SOL     OW69212  12.332   7.450  10.842
55772SOL    HW169213  12.310   7.528  10.790
55772SOL    HW269214  12.250   7.427  10.886
55773SOL     OW69215  11.824  10.154  13.199
55773SOL    HW169216  11.860  10.243  13.205
55773SOL    HW269217  11.730  10.166  13.208
55774SOL     OW69218   2.492  13.192   6.465
55774SOL    HW169219   2.577  13.151   6.485
55774SOL    HW269220   2.434  13.118   6.445
55775SOL     OW69221   6.951   6.545   9.380
55775SOL    HW169222   6.913   6.612   9.323
55775SOL    HW269223   6.879   6.519   9.437
55776SOL     OW69224   5.931   2.281  12.123
55776SOL    HW169225   5.959   2.209  12.067
55776SOL    HW269226   5.982   2.269  12.204
55777SOL     OW69227  11.031   1.907   3.492
55777SOL    HW169228  10.981   1.933   3.414
55777SOL    HW269229  10.969   1.854   3.543
55778SOL     OW69230  10.306  11.122  10.827
55778SOL    HW169231  10.221  11.164  10.840
55778SOL    HW269232  10.360  11.157  10.898
55779SOL     OW69233  12.977   7.530   4.272
55779SOL    HW169234  12.954   7.574   4.354
55779SOL    HW269235  13.010   7.444   4.301
55780SOL     OW69236   1.766  10.323   8.054
55780SOL    HW169237   1.834  10.319   7.987
55780SOL    HW269238   1.729  10.411   8.046
55781SOL     OW69239  13.739   0.825  13.315
55781SOL    HW169240  13.652   0.812  13.353
55781SOL    HW269241  13.790   0.865  13.386
55782SOL     OW69242  13.644   8.358   2.499
55782SOL    HW169243  13.700   8.400   2.565
55782SOL    HW269244  13.575   8.422   2.482
55783SOL     OW69245  14.066   1.907   9.275
55783SOL    HW169246  14.049   1.833   9.217
55783SOL    HW269247  14.047   1.874   9.363
55784SOL     OW69248   5.323   3.782   8.219
55784SOL    HW169249   5.328   3.694   8.257
55784SOL    HW269250   5.261   3.773   8.147
55785SOL     OW69251   6.029   5.251   6.121
55785SOL    HW169252   6.021   5.207   6.036
55785SOL    HW269253   6.084   5.327   6.103
55786SOL     OW69254   3.380  12.936   5.159
55786SOL    HW169255   3.336  12.898   5.083
55786SOL    HW269256   3.318  12.925   5.230
55787SOL     OW69257   6.372   9.156   6.968
55787SOL    HW169258   6.376   9.067   6.933
55787SOL    HW269259   6.420   9.209   6.905
55788SOL     OW69260   5.807  13.039   8.378
55788SOL    HW169261   5.902  13.039   8.369
55788SOL    HW269262   5.779  12.955   8.340
55789SOL     OW69263   1.702   6.761   5.959
55789SOL    HW169264   1.762   6.806   5.899
55789SOL    HW269265   1.635   6.827   5.979
55790SOL     OW69266   6.448   9.434  11.009
55790SOL    HW169267   6.522   9.438  11.069
55790SOL    HW269268   6.414   9.523  11.007
55791SOL     OW69269   2.704  14.869   6.194
55791SOL    HW169270   2.678  14.855   6.103
55791SOL    HW269271   2.746   0.085   6.194
55792SOL     OW69272   9.302   5.602  13.861
55792SOL    HW169273   9.233   5.552  13.904
55792SOL    HW269274   9.368   5.616  13.929
55793SOL     OW69275   4.792  11.177   9.624
55793SOL    HW169276   4.827  11.162   9.711
55793SOL    HW269277   4.798  11.272   9.611
55794SOL     OW69278   0.958   3.685   6.749
55794SOL    HW169279   0.883   3.660   6.695
55794SOL    HW269280   0.998   3.602   6.775
55795SOL     OW69281   7.730   7.983   8.381
55795SOL    HW169282   7.765   8.014   8.464
55795SOL    HW269283   7.635   7.988   8.391
55796SOL     OW69284   6.486   5.138   5.033
55796SOL    HW169285   6.526   5.056   5.005
55796SOL    HW269286   6.541   5.206   4.994
55797SOL     OW69287   9.646   2.525   2.587
55797SOL    HW169288   9.691   2.507   2.504
55797SOL    HW269289   9.554   2.530   2.564
55798SOL     OW69290   6.884   4.709   1.933
55798SOL    HW169291   6.856   4.728   2.022
55798SOL    HW269292   6.845   4.779   1.880
55799SOL     OW69293   8.368   7.050   5.886
55799SOL    HW169294   8.290   7.001   5.861
55799SOL    HW269295   8.395   7.013   5.970
55800SOL     OW69296   1.954   2.830  12.780
55800SOL    HW169297   1.893   2.869  12.718
55800SOL    HW269298   2.038   2.828  12.734
55801SOL     OW69299   0.395   6.218   4.409
55801SOL    HW169300   0.388   6.299   4.460
55801SOL    HW269301   0.468   6.234   4.349
55802SOL     OW69302   5.495   6.653   5.243
55802SOL    HW169303   5.539   6.737   5.257
55802SOL    HW269304   5.483   6.648   5.149
55803SOL     OW69305  13.164  13.189   2.917
55803SOL    HW169306  13.252  13.211   2.947
55803SOL    HW269307  13.106  13.227   2.983
55804SOL     OW69308  13.931  10.101   7.101
55804SOL    HW169309  13.963  10.044   7.031
55804SOL    HW269310  13.974  10.185   7.085
55805SOL     OW69311  11.719   6.977   8.544
55805SOL    HW169312  11.737   6.888   8.512
55805SOL    HW269313  11.725   6.969   8.640
55806SOL     OW69314   4.691   0.368   8.372
55806SOL    HW169315   4.653   0.366   8.460
55806SOL    HW269316   4.694   0.277   8.344
55807SOL     OW69317   8.311  12.581   8.609
55807SOL    HW169318   8.355  12.543   8.684
55807SOL    HW269319   8.284  12.668   8.638
55808SOL     OW69320   4.137   2.688  11.740
55808SOL    HW169321   4.049   2.724  11.756
55808SOL    HW269322   4.192   2.765  11.726
55809SOL     OW69323   8.477   9.407   7.459
55809SOL    HW169324   8.390   9.384   7.493
55809SOL    HW269325   8.534   9.403   7.536
55810SOL     OW69326   4.148   7.180   9.777
55810SOL    HW169327   4.121   7.268   9.804
55810SOL    HW269328   4.088   7.157   9.706
55811SOL     OW69329  10.830  14.238   2.333
55811SOL    HW169330  10.911  14.289   2.335
55811SOL    HW269331  10.769  14.291   2.282
55812SOL     OW69332  14.189   8.497   0.949
55812SOL    HW169333  14.172   8.463   0.861
55812SOL    HW269334  14.120   8.459   1.003
55813SOL     OW69335  12.130   5.693   1.280
55813SOL    HW169336  12.081   5.689   1.363
55813SOL    HW269337  12.222   5.686   1.306
55814SOL     OW69338   2.558  11.574   7.612
55814SOL    HW169339   2.618  11.648   7.615
55814SOL    HW269340   2.588  11.522   7.537
55815SOL     OW69341  11.034  12.851   1.802
55815SOL    HW169342  11.128  12.869   1.809
55815SOL    HW269343  11.028  12.757   1.787
55816SOL     OW69344   2.011   1.860   0.917
55816SOL    HW169345   1.937   1.841   0.975
55816SOL    HW269346   2.087   1.856   0.975
55817SOL     OW69347  10.674  13.007  12.621
55817SOL    HW169348  10.757  12.975  12.586
55817SOL    HW269349  10.626  12.927  12.645
55818SOL     OW69350  14.238   7.486   0.543
55818SOL    HW169351  14.306   7.523   0.601
55818SOL    HW269352  14.253   7.392   0.546
55819SOL     OW69353   5.816  13.898  12.353
55819SOL    HW169354   5.826  13.822  12.410
55819SOL    HW269355   5.868  13.967  12.394
55820SOL     OW69356   5.681   3.566   1.756
55820SOL    HW169357   5.609   3.593   1.813
55820SOL    HW269358   5.747   3.532   1.816
55821SOL     OW69359   8.133   1.189  13.318
55821SOL    HW169360   8.177   1.274  13.312
55821SOL    HW269361   8.065   1.193  13.251
55822SOL     OW69362  12.154   6.322   8.623
55822SOL    HW169363  12.137   6.370   8.704
55822SOL    HW269364  12.109   6.372   8.555
55823SOL     OW69365  11.553   7.239   9.882
55823SOL    HW169366  11.508   7.250   9.966
55823SOL    HW269367  11.629   7.297   9.888
55824SOL     OW69368   3.071  11.783  10.615
55824SOL    HW169369   3.157  11.823  10.609
55824SOL    HW269370   3.013  11.844  10.568
55825SOL     OW69371  11.422   1.518   7.282
55825SOL    HW169372  11.369   1.468   7.220
55825SOL    HW269373  11.481   1.453   7.321
55826SOL     OW69374   0.983  11.398   1.704
55826SOL    HW169375   1.042  11.333   1.744
55826SOL    HW269376   0.968  11.462   1.774
55827SOL     OW69377   3.220   4.264   2.158
55827SOL    HW169378   3.188   4.194   2.102
55827SOL    HW269379   3.225   4.224   2.245
55828SOL     OW69380  14.863   3.749   3.944
55828SOL    HW169381  14.841   3.785   3.858
55828SOL    HW269382  14.835   3.657   3.939
55829SOL     OW69383  10.576   0.948   3.242
55829SOL    HW169384  10.549   0.976   3.155
55829SOL    HW269385  10.521   0.998   3.302
55830SOL     OW69386   2.959  12.237  14.393
55830SOL    HW169387   2.877  12.277  14.423
55830SOL    HW269388   3.024  12.306  14.404
55831SOL     OW69389   4.736   7.171  11.332
55831SOL    HW169390   4.737   7.262  11.300
55831SOL    HW269391   4.643   7.151  11.343
55832SOL     OW69392  12.516  13.956   8.532
55832SOL    HW169393  12.443  13.999   8.577
55832SOL    HW269394  12.539  14.017   8.461
55833SOL     OW69395   6.788   0.134   5.455
55833SOL    HW169396   6.788   0.229   5.464
55833SOL    HW269397   6.801   0.102   5.544
55834SOL     OW69398   6.238   2.681  10.886
55834SOL    HW169399   6.262   2.732  10.808
55834SOL    HW269400   6.320   2.667  10.932
55835SOL     OW69401  13.190   8.370  11.562
55835SOL    HW169402  13.245   8.380  11.640
55835SOL    HW269403  13.207   8.449  11.511
55836SOL     OW69404  13.350   8.734   5.730
55836SOL    HW169405  13.428   8.696   5.770
55836SOL    HW269406  13.384   8.785   5.656
55837SOL     OW69407   8.945   3.048   5.876
55837SOL    HW169408   8.923   3.014   5.962
55837SOL    HW269409   8.861   3.057   5.831
55838SOL     OW69410  13.037   9.908   8.854
55838SOL    HW169411  12.985   9.987   8.866
55838SOL    HW269412  13.064   9.883   8.942
55839SOL     OW69413   4.743   6.331   4.267
55839SOL    HW169414   4.751   6.236   4.273
55839SOL    HW269415   4.795   6.365   4.339
55840SOL     OW69416   7.481   9.531   9.753
55840SOL    HW169417   7.480   9.480   9.672
55840SOL    HW269418   7.418   9.602   9.737
55841SOL     OW69419  14.508   4.649   5.695
55841SOL    HW169420  14.518   4.589   5.769
55841SOL    HW269421  14.524   4.595   5.618
55842SOL     OW69422   0.353   6.872  10.799
55842SOL    HW169423   0.335   6.959  10.835
55842SOL    HW269424   0.266   6.835  10.780
55843SOL     OW69425  13.475  14.712   1.061
55843SOL    HW169426  13.422  14.730   0.983
55843SOL    HW269427  13.494  14.619   1.055
55844SOL     OW69428   9.500   4.576   1.617
55844SOL    HW169429   9.417   4.622   1.601
55844SOL    HW269430   9.536   4.618   1.695
55845SOL     OW69431   1.863  11.761   3.302
55845SOL    HW169432   1.882  11.732   3.213
55845SOL    HW269433   1.780  11.719   3.324
55846SOL     OW69434   6.289   0.740  10.709
55846SOL    HW169435   6.263   0.666  10.763
55846SOL    HW269436   6.373   0.769  10.745
55847SOL     OW69437   8.278  11.693  14.149
55847SOL    HW169438   8.188  11.682  14.118
55847SOL    HW269439   8.330  11.705  14.069
55848SOL     OW69440   5.784   1.278   8.760
55848SOL    HW169441   5.758   1.211   8.824
55848SOL    HW269442   5.719   1.347   8.770
55849SOL     OW69443   4.666  11.251   5.042
55849SOL    HW169444   4.619  11.282   5.119
55849SOL    HW269445   4.599  11.211   4.987
55850SOL     OW69446   2.414   8.635   6.870
55850SOL    HW169447   2.452   8.562   6.821
55850SOL    HW269448   2.324   8.609   6.888
55851SOL     OW69449   7.281  10.377   1.296
55851SOL    HW169450   7.371  10.382   1.264
55851SOL    HW269451   7.268  10.284   1.316
55852SOL     OW69452  13.703   6.575   5.252
55852SOL    HW169453  13.777   6.589   5.192
55852SOL    HW269454  13.743   6.567   5.338
55853SOL     OW69455   6.714   2.548  13.402
55853SOL    HW169456   6.694   2.611  13.333
55853SOL    HW269457   6.761   2.478  13.358
55854SOL     OW69458   6.153   8.633   4.150
55854SOL    HW169459   6.240   8.673   4.152
55854SOL    HW269460   6.127   8.637   4.058
55855SOL     OW69461   9.002  11.359   6.131
55855SOL    HW169462   9.095  11.337   6.139
55855SOL    HW269463   8.980  11.400   6.214
55856SOL     OW69464  11.027   7.359   0.686
55856SOL    HW169465  10.984   7.275   0.704
55856SOL    HW269466  11.121   7.340   0.695
55857SOL     OW69467  14.828   4.432  13.977
55857SOL    HW169468  14.865   4.452  14.063
55857SOL    HW269469   0.031   4.393  13.928
55858SOL     OW69470   7.660   5.937  10.644
55858SOL    HW169471   7.669   5.842  10.644
55858SOL    HW269472   7.574   5.953  10.684
55859SOL     OW69473   3.255   1.603   9.791
55859SOL    HW169474   3.248   1.530   9.730
55859SOL    HW269475   3.251   1.562   9.878
55860SOL     OW69476   0.669   8.428   3.519
55860SOL    HW169477   0.600   8.423   3.453
55860SOL    HW269478   0.657   8.514   3.560
55861SOL     OW69479  10.400   4.756   4.556
55861SOL    HW169480  10.446   4.754   4.472
55861SOL    HW269481  10.469   4.762   4.622
55862SOL     OW69482   9.409   4.881   9.507
55862SOL    HW169483   9.322   4.850   9.479
55862SOL    HW269484   9.400   4.976   9.510
55863SOL     OW69485   3.481   4.315   2.108
55863SOL    HW169486   3.532   4.235   2.125
55863SOL    HW269487   3.392   4.293   2.136
55864SOL     OW69488   1.670   7.938  10.021
55864SOL    HW169489   1.661   7.987   9.939
55864SOL    HW269490   1.610   7.982  10.082
55865SOL     OW69491   6.481   9.504   9.339
55865SOL    HW169492   6.394   9.465   9.332
55865SOL    HW269493   6.538   9.447   9.288
55866SOL     OW69494   1.010   1.632   4.007
55866SOL    HW169495   1.020   1.726   4.016
55866SOL    HW269496   1.047   1.596   4.088
55867SOL     OW69497   6.443  10.838   3.986
55867SOL    HW169498   6.440  10.933   3.993
55867SOL    HW269499   6.414  10.806   4.071
55868SOL     OW69500   3.730  11.109   3.996
55868SOL    HW169501   3.716  11.163   3.919
55868SOL    HW269502   3.792  11.042   3.968
55869SOL     OW69503   9.713   2.617   3.302
55869SOL    HW169504   9.733   2.687   3.240
55869SOL    HW269505   9.736   2.653   3.387
55870SOL     OW69506   6.325   5.057   0.566
55870SOL    HW169507   6.354   5.128   0.508
55870SOL    HW269508   6.350   4.977   0.520
55871SOL     OW69509  13.661   3.568   7.968
55871SOL    HW169510  13.597   3.573   7.897
55871SOL    HW269511  13.737   3.525   7.930
55872SOL     OW69512   9.822  14.337  14.603
55872SOL    HW169513   9.770  14.288  14.539
55872SOL    HW269514   9.771  14.333  14.684
55873SOL     OW69515  11.123  10.042  14.594
55873SOL    HW169516  11.181  10.031  14.519
55873SOL    HW269517  11.036  10.022  14.559
55874SOL     OW69518   6.877   1.262  12.612
55874SOL    HW169519   6.874   1.317  12.690
55874SOL    HW269520   6.878   1.325  12.539
55875SOL     OW69521   2.746  14.182  14.195
55875SOL    HW169522   2.767  14.095  14.229
55875SOL    HW269523   2.830  14.217  14.165
55876SOL     OW69524   4.394   7.768  14.834
55876SOL    HW169525   4.470   7.725  14.795
55876SOL    HW269526   4.321   7.708  14.819
55877SOL     OW69527  10.520  13.390   8.601
55877SOL    HW169528  10.465  13.447   8.545
55877SOL    HW269529  10.538  13.443   8.679
55878SOL     OW69530  11.876  11.393   6.848
55878SOL    HW169531  11.922  11.310   6.850
55878SOL    HW269532  11.812  11.383   6.778
55879SOL     OW69533   2.434  13.457  14.397
55879SOL    HW169534   2.410  13.406  14.474
55879SOL    HW269535   2.488  13.397  14.345
55880SOL     OW69536   0.564   7.351   0.555
55880SOL    HW169537   0.585   7.386   0.642
55880SOL    HW269538   0.473   7.322   0.562
55881SOL     OW69539   4.668   9.352   3.456
55881SOL    HW169540   4.700   9.435   3.420
55881SOL    HW269541   4.573   9.362   3.460
55882SOL     OW69542  14.320   0.071   0.161
55882SOL    HW169543  14.277   0.156   0.161
55882SOL    HW269544  14.248   0.007   0.156
55883SOL     OW69545   9.695   9.018  11.563
55883SOL    HW169546   9.754   9.044  11.634
55883SOL    HW269547   9.684   9.097  11.510
55884SOL     OW69548  12.117   7.007  11.775
55884SOL    HW169549  12.156   7.036  11.693
55884SOL    HW269550  12.022   7.016  11.761
55885SOL     OW69551   2.254   0.720   8.931
55885SOL    HW169552   2.272   0.775   9.007
55885SOL    HW269553   2.168   0.749   8.900
55886SOL     OW69554  12.052   0.475   9.560
55886SOL    HW169555  12.019   0.562   9.538
55886SOL    HW269556  12.147   0.485   9.558
55887SOL     OW69557  11.108  11.221   7.665
55887SOL    HW169558  11.072  11.297   7.621
55887SOL    HW269559  11.046  11.201   7.735
55888SOL     OW69560   1.424   1.163  12.689
55888SOL    HW169561   1.492   1.133  12.749
55888SOL    HW269562   1.389   1.242  12.730
55889SOL     OW69563   1.194  11.971   8.411
55889SOL    HW169564   1.254  12.004   8.478
55889SOL    HW269565   1.159  12.049   8.369
55890SOL     OW69566  12.284   1.263  12.520
55890SOL    HW169567  12.303   1.222  12.436
55890SOL    HW269568  12.259   1.191  12.578
55891SOL     OW69569   2.871   2.944  11.557
55891SOL    HW169570   2.833   2.968  11.473
55891SOL    HW269571   2.799   2.906  11.607
55892SOL     OW69572   7.757  10.027   9.792
55892SOL    HW169573   7.770   9.933   9.787
55892SOL    HW269574   7.779  10.060   9.705
55893SOL     OW69575   3.523   7.762  14.057
55893SOL    HW169576   3.543   7.754  14.151
55893SOL    HW269577   3.485   7.849  14.048
55894SOL     OW69578   2.677   4.808   8.576
55894SOL    HW169579   2.628   4.818   8.658
55894SOL    HW269580   2.730   4.887   8.570
55895SOL     OW69581  14.073  11.490   9.398
55895SOL    HW169582  14.118  11.529   9.473
55895SOL    HW269583  14.130  11.509   9.324
55896SOL     OW69584   5.732   2.670  13.405
55896SOL    HW169585   5.670   2.623  13.461
55896SOL    HW269586   5.688   2.675  13.320
55897SOL     OW69587  13.582   0.313   2.808
55897SOL    HW169588  13.556   0.263   2.731
55897SOL    HW269589  13.592   0.403   2.777
55898SOL     OW69590   0.624   6.943   7.229
55898SOL    HW169591   0.602   6.941   7.135
55898SOL    HW269592   0.567   6.877   7.268
55899SOL     OW69593   0.891  11.132   3.543
55899SOL    HW169594   0.851  11.209   3.584
55899SOL    HW269595   0.820  11.068   3.540
55900SOL     OW69596  10.675  10.831   2.558
55900SOL    HW169597  10.661  10.910   2.507
55900SOL    HW269598  10.714  10.769   2.496
55901SOL     OW69599   3.710  13.736  10.060
55901SOL    HW169600   3.711  13.815  10.006
55901SOL    HW269601   3.654  13.675  10.013
55902SOL     OW69602   6.859   4.957   9.751
55902SOL    HW169603   6.826   4.938   9.838
55902SOL    HW269604   6.942   5.002   9.766
55903SOL     OW69605   2.030   0.714   4.563
55903SOL    HW169606   2.079   0.645   4.518
55903SOL    HW269607   1.959   0.667   4.607
55904SOL     OW69608   9.567   4.866  11.728
55904SOL    HW169609   9.553   4.824  11.643
55904SOL    HW269610   9.623   4.940  11.709
55905SOL     OW69611   9.083   1.668  13.901
55905SOL    HW169612   9.162   1.615  13.893
55905SOL    HW269613   9.056   1.659  13.993
55906SOL     OW69614   3.235  11.334  10.818
55906SOL    HW169615   3.192  11.412  10.851
55906SOL    HW269616   3.322  11.363  10.793
55907SOL     OW69617   4.661   6.938  12.625
55907SOL    HW169618   4.567   6.953  12.631
55907SOL    HW269619   4.693   6.950  12.715
55908SOL     OW69620   0.941  12.749   0.029
55908SOL    HW169621   0.886  12.808   0.080
55908SOL    HW269622   1.030  12.779   0.047
55909SOL     OW69623   7.180   7.723   9.805
55909SOL    HW169624   7.204   7.659   9.738
55909SOL    HW269625   7.086   7.739   9.789
55910SOL     OW69626   2.943  11.851   4.677
55910SOL    HW169627   2.919  11.873   4.767
55910SOL    HW269628   2.950  11.936   4.633
55911SOL     OW69629  11.404  11.828  10.378
55911SOL    HW169630  11.319  11.794  10.352
55911SOL    HW269631  11.442  11.760  10.433
55912SOL     OW69632  13.034   2.141   6.338
55912SOL    HW169633  13.128   2.158   6.345
55912SOL    HW269634  13.024   2.050   6.367
55913SOL     OW69635   5.792   6.106  10.962
55913SOL    HW169636   5.825   6.093  11.051
55913SOL    HW269637   5.787   6.202  10.953
55914SOL     OW69638   2.240   9.585   8.350
55914SOL    HW169639   2.239   9.582   8.254
55914SOL    HW269640   2.149   9.573   8.375
55915SOL     OW69641  10.292   7.685   7.385
55915SOL    HW169642  10.304   7.779   7.398
55915SOL    HW269643  10.255   7.677   7.298
55916SOL     OW69644   3.408   1.181   4.530
55916SOL    HW169645   3.495   1.165   4.494
55916SOL    HW269646   3.348   1.138   4.469
55917SOL     OW69647   8.399   2.165   8.270
55917SOL    HW169648   8.428   2.101   8.335
55917SOL    HW269649   8.305   2.174   8.285
55918SOL     OW69650   9.194   0.846   3.819
55918SOL    HW169651   9.218   0.888   3.737
55918SOL    HW269652   9.184   0.753   3.797
55919SOL     OW69653   0.834   2.165  11.041
55919SOL    HW169654   0.813   2.200  11.128
55919SOL    HW269655   0.859   2.242  10.990
55920SOL     OW69656   0.954   8.926   4.833
55920SOL    HW169657   1.012   8.911   4.907
55920SOL    HW269658   0.866   8.913   4.868
55921SOL     OW69659   9.306   4.400  11.219
55921SOL    HW169660   9.354   4.468  11.267
55921SOL    HW269661   9.231   4.446  11.181
55922SOL     OW69662  14.601   5.210   8.137
55922SOL    HW169663  14.618   5.132   8.190
55922SOL    HW269664  14.680   5.222   8.085
55923SOL     OW69665   1.305   5.151   9.980
55923SOL    HW169666   1.359   5.123  10.054
55923SOL    HW269667   1.304   5.247   9.986
55924SOL     OW69668   9.801   8.530  14.430
55924SOL    HW169669   9.715   8.488  14.421
55924SOL    HW269670   9.856   8.486  14.365
55925SOL     OW69671   2.962   6.899   9.519
55925SOL    HW169672   2.902   6.937   9.454
55925SOL    HW269673   2.939   6.807   9.522
55926SOL     OW69674   1.743  11.982  11.008
55926SOL    HW169675   1.669  11.945  11.057
55926SOL    HW269676   1.706  12.060  10.966
55927SOL     OW69677   2.977   7.422   5.031
55927SOL    HW169678   3.005   7.454   5.116
55927SOL    HW269679   2.883   7.439   5.028
55928SOL     OW69680   5.449   8.312   8.449
55928SOL    HW169681   5.466   8.370   8.523
55928SOL    HW269682   5.476   8.362   8.372
55929SOL     OW69683   1.490  14.784   6.546
55929SOL    HW169684   1.578  14.807   6.515
55929SOL    HW269685   1.496  14.691   6.569
55930SOL     OW69686   5.293  13.869   8.513
55930SOL    HW169687   5.283  13.960   8.483
55930SOL    HW269688   5.237  13.863   8.590
55931SOL     OW69689   9.943  13.238   6.991
55931SOL    HW169690   9.954  13.240   7.086
55931SOL    HW269691  10.028  13.264   6.956
55932SOL     OW69692   4.891  13.623   8.828
55932SOL    HW169693   4.934  13.661   8.905
55932SOL    HW269694   4.949  13.552   8.801
55933SOL     OW69695   1.279  13.876   8.273
55933SOL    HW169696   1.367  13.907   8.251
55933SOL    HW269697   1.267  13.797   8.221
55934SOL     OW69698   9.147   2.114   0.526
55934SOL    HW169699   9.169   2.110   0.619
55934SOL    HW269700   9.178   2.200   0.498
55935SOL     OW69701   2.891   6.524   7.170
55935SOL    HW169702   2.949   6.584   7.123
55935SOL    HW269703   2.821   6.580   7.205
55936SOL     OW69704   8.850  14.112   5.118
55936SOL    HW169705   8.839  14.069   5.033
55936SOL    HW269706   8.785  14.070   5.174
55937SOL     OW69707   4.295   6.192  12.565
55937SOL    HW169708   4.221   6.253  12.555
55937SOL    HW269709   4.349   6.208  12.487
55938SOL     OW69710  10.680  14.855   0.967
55938SOL    HW169711  10.631  14.780   1.000
55938SOL    HW269712  10.707   0.033   1.045
55939SOL     OW69713   8.099   9.035  12.622
55939SOL    HW169714   8.122   8.946  12.595
55939SOL    HW269715   8.106   9.033  12.718
55940SOL     OW69716   9.648  13.694  10.195
55940SOL    HW169717   9.648  13.632  10.122
55940SOL    HW269718   9.705  13.654  10.260
55941SOL     OW69719  10.571   8.772   7.624
55941SOL    HW169720  10.621   8.785   7.705
55941SOL    HW269721  10.587   8.680   7.601
55942SOL     OW69722   0.703   5.978   6.708
55942SOL    HW169723   0.739   5.997   6.795
55942SOL    HW269724   0.775   5.997   6.648
55943SOL     OW69725  14.488  13.264  14.770
55943SOL    HW169726  14.442  13.187  14.803
55943SOL    HW269727  14.452  13.277  14.682
55944SOL     OW69728   9.235   1.720  13.483
55944SOL    HW169729   9.158   1.681  13.525
55944SOL    HW269730   9.202   1.753  13.400
55945SOL     OW69731   8.990   0.003   6.787
55945SOL    HW169732   8.950   0.088   6.805
55945SOL    HW269733   9.013  14.838   6.873
55946SOL     OW69734   2.094   0.767  11.447
55946SOL    HW169735   2.157   0.797  11.513
55946SOL    HW269736   2.018   0.824  11.458
55947SOL     OW69737   0.077  12.434   6.444
55947SOL    HW169738   0.149  12.373   6.430
55947SOL    HW269739   0.116  12.520   6.429
55948SOL     OW69740  11.633   8.072   8.748
55948SOL    HW169741  11.584   8.154   8.747
55948SOL    HW269742  11.569   8.006   8.774
55949SOL     OW69743   5.297   5.599  12.766
55949SOL    HW169744   5.260   5.513  12.748
55949SOL    HW269745   5.384   5.581  12.801
55950SOL     OW69746  11.271   6.621  14.634
55950SOL    HW169747  11.241   6.604  14.723
55950SOL    HW269748  11.223   6.559  14.579
55951SOL     OW69749   7.297   8.545  14.066
55951SOL    HW169750   7.254   8.625  14.037
55951SOL    HW269751   7.322   8.562  14.156
55952SOL     OW69752  12.194   2.316   8.735
55952SOL    HW169753  12.242   2.296   8.654
55952SOL    HW269754  12.262   2.326   8.801
55953SOL     OW69755   3.897   5.635   6.867
55953SOL    HW169756   3.955   5.681   6.806
55953SOL    HW269757   3.937   5.549   6.879
55954SOL     OW69758  11.695   9.496   7.118
55954SOL    HW169759  11.633   9.569   7.125
55954SOL    HW269760  11.781   9.538   7.126
55955SOL     OW69761   9.148   3.285  13.889
55955SOL    HW169762   9.087   3.228  13.937
55955SOL    HW269763   9.092   3.355  13.854
55956SOL     OW69764   1.513  14.018   8.204
55956SOL    HW169765   1.527  14.098   8.254
55956SOL    HW269766   1.593  14.007   8.153
55957SOL     OW69767   1.169  12.452   6.817
55957SOL    HW169768   1.079  12.484   6.810
55957SOL    HW269769   1.219  12.527   6.848
55958SOL     OW69770  13.838   0.269   8.949
55958SOL    HW169771  13.841   0.323   9.027
55958SOL    HW269772  13.757   0.218   8.958
55959SOL     OW69773   7.798   5.932   1.293
55959SOL    HW169774   7.866   5.913   1.357
55959SOL    HW269775   7.841   5.921   1.208
55960SOL     OW69776   4.543  13.720   6.819
55960SOL    HW169777   4.620  13.746   6.869
55960SOL    HW269778   4.470  13.760   6.867
55961SOL     OW69779  10.287   8.381   8.039
55961SOL    HW169780  10.216   8.318   8.048
55961SOL    HW269781  10.362   8.329   8.009
55962SOL     OW69782  10.274   6.467  13.906
55962SOL    HW169783  10.229   6.426  13.832
55962SOL    HW269784  10.367   6.449  13.890
55963SOL     OW69785   2.251  12.605   2.235
55963SOL    HW169786   2.253  12.526   2.288
55963SOL    HW269787   2.329  12.599   2.180
55964SOL     OW69788   5.169  10.119  12.642
55964SOL    HW169789   5.198  10.166  12.720
55964SOL    HW269790   5.247  10.114  12.587
55965SOL     OW69791   4.749  13.640   0.034
55965SOL    HW169792   4.808  13.574  14.867
55965SOL    HW269793   4.767  13.719  14.854
55966SOL     OW69794   0.925   3.912   2.362
55966SOL    HW169795   0.837   3.889   2.391
55966SOL    HW269796   0.913   3.994   2.313
55967SOL     OW69797   1.125   8.405   2.458
55967SOL    HW169798   1.064   8.479   2.457
55967SOL    HW269799   1.208   8.443   2.427
55968SOL     OW69800   8.058   7.035   3.913
55968SOL    HW169801   8.077   7.040   4.007
55968SOL    HW269802   8.032   6.945   3.898
55969SOL     OW69803  10.130   7.170   5.667
55969SOL    HW169804  10.222   7.194   5.679
55969SOL    HW269805  10.121   7.156   5.573
55970SOL     OW69806   2.374   1.109   1.025
55970SOL    HW169807   2.286   1.092   0.992
55970SOL    HW269808   2.432   1.059   0.967
55971SOL     OW69809   4.531   7.134   1.060
55971SOL    HW169810   4.599   7.070   1.039
55971SOL    HW269811   4.483   7.096   1.134
55972SOL     OW69812  12.429   7.672   7.457
55972SOL    HW169813  12.424   7.665   7.553
55972SOL    HW269814  12.486   7.600   7.430
55973SOL     OW69815  12.665  13.022   6.766
55973SOL    HW169816  12.635  13.059   6.849
55973SOL    HW269817  12.727  12.954   6.791
55974SOL     OW69818   2.008   3.687  13.369
55974SOL    HW169819   2.050   3.611  13.329
55974SOL    HW269820   1.968   3.734  13.296
55975SOL     OW69821   9.924  11.659   3.963
55975SOL    HW169822   9.981  11.697   3.897
55975SOL    HW269823   9.982  11.639   4.037
55976SOL     OW69824   1.783   1.433   2.249
55976SOL    HW169825   1.728   1.385   2.187
55976SOL    HW269826   1.871   1.428   2.212
55977SOL     OW69827   0.703   8.544   0.234
55977SOL    HW169828   0.713   8.456   0.199
55977SOL    HW269829   0.751   8.542   0.317
55978SOL     OW69830   7.060  11.283  13.130
55978SOL    HW169831   7.081  11.338  13.205
55978SOL    HW269832   7.112  11.204  13.142
55979SOL     OW69833   2.136   0.737   0.033
55979SOL    HW169834   2.141   0.795   0.110
55979SOL    HW269835   2.098   0.792  14.835
55980SOL     OW69836   2.131  14.704  12.178
55980SOL    HW169837   2.195  14.652  12.130
55980SOL    HW269838   2.087  14.756  12.110
55981SOL     OW69839   9.525   5.380  10.453
55981SOL    HW169840   9.513   5.410  10.363
55981SOL    HW269841   9.569   5.452  10.497
55982SOL     OW69842  13.360  13.110   9.140
55982SOL    HW169843  13.447  13.071   9.138
55982SOL    HW269844  13.307  13.049   9.192
55983SOL     OW69845   6.325  14.546   5.068
55983SOL    HW169846   6.407  14.594   5.080
55983SOL    HW269847   6.350  14.454   5.079
55984SOL     OW69848   4.799  14.316  11.207
55984SOL    HW169849   4.829  14.396  11.251
55984SOL    HW269850   4.742  14.348  11.137
55985SOL     OW69851  14.407  14.319   9.355
55985SOL    HW169852  14.393  14.413   9.342
55985SOL    HW269853  14.426  14.286   9.267
55986SOL     OW69854   8.160   2.792   4.898
55986SOL    HW169855   8.112   2.869   4.866
55986SOL    HW269856   8.251   2.808   4.871
55987SOL     OW69857  13.387   5.814   1.370
55987SOL    HW169858  13.430   5.819   1.285
55987SOL    HW269859  13.294   5.824   1.351
55988SOL     OW69860  13.531  13.110   6.198
55988SOL    HW169861  13.445  13.106   6.154
55988SOL    HW269862  13.527  13.189   6.251
55989SOL     OW69863  11.763   2.950  14.383
55989SOL    HW169864  11.708   2.983  14.311
55989SOL    HW269865  11.836   2.907  14.339
55990SOL     OW69866   3.843   1.649   0.303
55990SOL    HW169867   3.794   1.568   0.289
55990SOL    HW269868   3.869   1.677   0.216
55991SOL     OW69869   4.527  13.261   8.289
55991SOL    HW169870   4.478  13.338   8.260
55991SOL    HW269871   4.557  13.282   8.377
55992SOL     OW69872  10.640  13.180   4.953
55992SOL    HW169873  10.554  13.165   4.914
55992SOL    HW269874  10.680  13.094   4.958
55993SOL     OW69875   9.805   3.206   2.936
55993SOL    HW169876   9.733   3.157   2.976
55993SOL    HW269877   9.774   3.296   2.934
55994SOL     OW69878   3.397   3.199   4.779
55994SOL    HW169879   3.331   3.167   4.717
55994SOL    HW269880   3.469   3.228   4.724
55995SOL     OW69881   5.528   7.548  10.917
55995SOL    HW169882   5.499   7.457  10.921
55995SOL    HW269883   5.484   7.584  10.840
55996SOL     OW69884   4.961  13.071   7.694
55996SOL    HW169885   4.951  12.999   7.756
55996SOL    HW269886   4.873  13.108   7.686
55997SOL     OW69887   2.512  13.784  11.281
55997SOL    HW169888   2.417  13.776  11.282
55997SOL    HW269889   2.529  13.870  11.322
55998SOL     OW69890  12.719   5.812   0.162
55998SOL    HW169891  12.760   5.879   0.216
55998SOL    HW269892  12.625   5.825   0.175
55999SOL     OW69893   7.650   8.667   0.842
55999SOL    HW169894   7.626   8.670   0.750
55999SOL    HW269895   7.578   8.711   0.887
56000SOL     OW69896   8.751   2.304   6.688
56000SOL    HW169897   8.755   2.359   6.610
56000SOL    HW269898   8.813   2.343   6.749
56001SOL     OW69899   5.650  10.002  14.521
56001SOL    HW169900   5.729   9.949  14.507
56001SOL    HW269901   5.586   9.942  14.558
56002SOL     OW69902  13.697  14.778   9.749
56002SOL    HW169903  13.753  14.845   9.709
56002SOL    HW269904  13.715  14.784   9.842
56003SOL     OW69905  10.008  13.890   5.627
56003SOL    HW169906   9.970  13.922   5.546
56003SOL    HW269907  10.022  13.968   5.681
56004SOL     OW69908   6.126  13.698  14.016
56004SOL    HW169909   6.082  13.695  13.931
56004SOL    HW269910   6.065  13.746  14.072
56005SOL     OW69911   8.044  10.681  13.672
56005SOL    HW169912   7.990  10.743  13.623
56005SOL    HW269913   7.984  10.644  13.737
56006SOL     OW69914   1.584   7.133   3.922
56006SOL    HW169915   1.601   7.170   3.836
56006SOL    HW269916   1.559   7.043   3.906
56007SOL     OW69917   2.576   0.247  12.777
56007SOL    HW169918   2.604   0.251  12.686
56007SOL    HW269919   2.652   0.212  12.824
56008SOL     OW69920   6.736   1.232   6.815
56008SOL    HW169921   6.809   1.175   6.793
56008SOL    HW269922   6.659   1.186   6.783
56009SOL     OW69923   8.707   5.117   0.844
56009SOL    HW169924   8.613   5.101   0.854
56009SOL    HW269925   8.740   5.122   0.933
56010SOL     OW69926  12.948   4.063  11.722
56010SOL    HW169927  12.892   4.016  11.662
56010SOL    HW269928  13.037   4.037  11.698
56011SOL     OW69929  11.062   5.182   1.976
56011SOL    HW169930  11.148   5.222   1.982
56011SOL    HW269931  11.010   5.228   2.042
56012SOL     OW69932   3.893   3.078   2.617
56012SOL    HW169933   3.834   3.013   2.578
56012SOL    HW269934   3.860   3.162   2.585
56013SOL     OW69935   6.478  10.433  12.951
56013SOL    HW169936   6.400  10.399  12.906
56013SOL    HW269937   6.455  10.430  13.044
56014SOL     OW69938   2.178   4.863   8.235
56014SOL    HW169939   2.169   4.956   8.255
56014SOL    HW269940   2.092   4.826   8.258
56015SOL     OW69941   0.040   5.578   9.123
56015SOL    HW169942   0.018   5.666   9.153
56015SOL    HW269943   0.066   5.588   9.032
56016SOL     OW69944   6.089   9.231   4.698
56016SOL    HW169945   6.151   9.226   4.625
56016SOL    HW269946   6.114   9.309   4.747
56017SOL     OW69947   3.624  12.817  11.114
56017SOL    HW169948   3.652  12.872  11.187
56017SOL    HW269949   3.640  12.871  11.036
56018SOL     OW69950   2.322  13.545  13.170
56018SOL    HW169951   2.271  13.494  13.107
56018SOL    HW269952   2.256  13.581  13.230
56019SOL     OW69953   6.626   1.135   2.926
56019SOL    HW169954   6.649   1.090   3.007
56019SOL    HW269955   6.612   1.064   2.863
56020SOL     OW69956   6.354  13.735   9.083
56020SOL    HW169957   6.350  13.757   9.176
56020SOL    HW269958   6.335  13.641   9.079
56021SOL     OW69959  14.672   1.769   0.026
56021SOL    HW169960  14.741   1.818   0.072
56021SOL    HW269961  14.595   1.780   0.082
56022SOL     OW69962   8.369  14.208   0.653
56022SOL    HW169963   8.341  14.184   0.741
56022SOL    HW269964   8.293  14.190   0.598
56023SOL     OW69965   2.064  12.132   0.134
56023SOL    HW169966   2.024  12.156   0.218
56023SOL    HW269967   2.148  12.092   0.159
56024SOL     OW69968  13.342   0.369   8.653
56024SOL    HW169969  13.264   0.334   8.610
56024SOL    HW269970  13.369   0.442   8.598
56025SOL     OW69971   1.543  10.480   8.251
56025SOL    HW169972   1.577  10.526   8.328
56025SOL    HW269973   1.564  10.538   8.178
56026SOL     OW69974   7.243  11.357  12.907
56026SOL    HW169975   7.152  11.329  12.890
56026SOL    HW269976   7.288  11.276  12.930
56027SOL     OW69977  14.059  10.002  12.616
56027SOL    HW169978  14.093   9.995  12.706
56027SOL    HW269979  14.048  10.096  12.602
56028SOL     OW69980  12.920  10.903   8.849
56028SOL    HW169981  12.962  10.945   8.923
56028SOL    HW269982  12.875  10.827   8.886
56029SOL     OW69983  10.475  13.013   0.918
56029SOL    HW169984  10.413  12.996   0.847
56029SOL    HW269985  10.561  12.993   0.881
56030SOL     OW69986   9.789   8.398   4.085
56030SOL    HW169987   9.801   8.435   3.998
56030SOL    HW269988   9.715   8.447   4.121
56031SOL     OW69989   3.845   3.206   6.260
56031SOL    HW169990   3.821   3.202   6.352
56031SOL    HW269991   3.771   3.250   6.218
56032SOL     OW69992   3.726   6.972   7.039
56032SOL    HW169993   3.692   7.059   7.020
56032SOL    HW269994   3.647   6.919   7.053
56033SOL     OW69995   0.403   8.112  11.181
56033SOL    HW169996   0.343   8.061  11.236
56033SOL    HW269997   0.462   8.156  11.243
56034SOL     OW69998   9.694  10.754  10.473
56034SOL    HW169999   9.660  10.804  10.399
56034SOL    HW270000   9.766  10.702  10.436
56035SOL     OW70001  13.320   4.352   8.301
56035SOL    HW170002  13.297   4.444   8.317
56035SOL    HW270003  13.307   4.310   8.386
56036SOL     OW70004  14.320   9.128   4.642
56036SOL    HW170005  14.367   9.163   4.566
56036SOL    HW270006  14.265   9.059   4.607
56037SOL     OW70007   4.936   2.518  13.612
56037SOL    HW170008   4.992   2.447  13.580
56037SOL    HW270009   4.850   2.498  13.577
56038SOL     OW70010  14.556  10.565  12.586
56038SOL    HW170011  14.462  10.587  12.583
56038SOL    HW270012  14.567  10.521  12.670
56039SOL     OW70013  10.213  11.424   7.772
56039SOL    HW170014  10.194  11.454   7.861
56039SOL    HW270015  10.307  11.406   7.771
56040SOL     OW70016   0.368  12.817   8.122
56040SOL    HW170017   0.394  12.729   8.150
56040SOL    HW270018   0.444  12.872   8.143
56041SOL     OW70019  14.785  10.622   4.002
56041SOL    HW170020  14.778  10.555   3.934
56041SOL    HW270021  14.845  10.584   4.066
56042SOL     OW70022  10.571   0.214  10.185
56042SOL    HW170023  10.572   0.119  10.197
56042SOL    HW270024  10.660   0.235  10.156
56043SOL     OW70025   2.028  14.690   5.914
56043SOL    HW170026   1.963  14.756   5.889
56043SOL    HW270027   1.980  14.628   5.968
56044SOL     OW70028   8.103   1.895  11.893
56044SOL    HW170029   8.173   1.917  11.955
56044SOL    HW270030   8.069   1.811  11.925
56045SOL     OW70031   2.612   7.079   6.920
56045SOL    HW170032   2.652   7.163   6.941
56045SOL    HW270033   2.642   7.059   6.831
56046SOL     OW70034   5.899   6.003  11.192
56046SOL    HW170035   5.945   5.921  11.208
56046SOL    HW270036   5.864   6.028  11.277
56047SOL     OW70037  10.852   7.154   5.093
56047SOL    HW170038  10.823   7.237   5.131
56047SOL    HW270039  10.942   7.144   5.124
56048SOL     OW70040  13.957  12.403   4.809
56048SOL    HW170041  13.933  12.486   4.767
56048SOL    HW270042  14.052  12.397   4.796
56049SOL     OW70043   4.854   2.231   8.202
56049SOL    HW170044   4.823   2.257   8.289
56049SOL    HW270045   4.946   2.208   8.216
56050SOL     OW70046   5.342   2.281   1.135
56050SOL    HW170047   5.388   2.211   1.088
56050SOL    HW270048   5.267   2.237   1.175
56051SOL     OW70049  14.010   9.430  13.420
56051SOL    HW170050  14.068   9.432  13.497
56051SOL    HW270051  14.069   9.446  13.346
56052SOL     OW70052  10.513  12.392   0.959
56052SOL    HW170053  10.566  12.378   1.037
56052SOL    HW270054  10.553  12.336   0.893
56053SOL     OW70055   2.727   4.479  11.571
56053SOL    HW170056   2.768   4.402  11.530
56053SOL    HW270057   2.657   4.503  11.511
56054SOL     OW70058   1.791  11.468   2.550
56054SOL    HW170059   1.729  11.449   2.479
56054SOL    HW270060   1.859  11.521   2.508
56055SOL     OW70061  14.433   3.177  13.623
56055SOL    HW170062  14.420   3.257  13.573
56055SOL    HW270063  14.508   3.196  13.680
56056SOL     OW70064   2.636  10.041   2.089
56056SOL    HW170065   2.580  10.111   2.056
56056SOL    HW270066   2.699  10.025   2.019
56057SOL     OW70067   0.362  10.457  11.819
56057SOL    HW170068   0.360  10.497  11.906
56057SOL    HW270069   0.305  10.381  11.826
56058SOL     OW70070  13.941   3.328   2.539
56058SOL    HW170071  13.918   3.342   2.447
56058SOL    HW270072  14.007   3.258   2.537
56059SOL     OW70073   8.301   3.051   0.622
56059SOL    HW170074   8.276   3.140   0.598
56059SOL    HW270075   8.233   2.996   0.584
56060SOL     OW70076   5.440   4.440   5.697
56060SOL    HW170077   5.435   4.368   5.759
56060SOL    HW270078   5.496   4.505   5.740
56061SOL     OW70079  12.949   7.190   2.132
56061SOL    HW170080  12.937   7.119   2.196
56061SOL    HW270081  12.926   7.151   2.048
56062SOL     OW70082   5.853   5.344   0.344
56062SOL    HW170083   5.846   5.254   0.377
56062SOL    HW270084   5.914   5.387   0.404
56063SOL     OW70085  11.876   0.285  14.112
56063SOL    HW170086  11.948   0.258  14.056
56063SOL    HW270087  11.824   0.344  14.056
56064SOL     OW70088   6.036  11.248   4.838
56064SOL    HW170089   5.977  11.182   4.874
56064SOL    HW270090   6.019  11.248   4.744
56065SOL     OW70091   6.068  14.372   5.320
56065SOL    HW170092   6.022  14.291   5.297
56065SOL    HW270093   6.159  14.345   5.331
56066SOL     OW70094   5.358  12.839  12.891
56066SOL    HW170095   5.308  12.914  12.925
56066SOL    HW270096   5.444  12.848  12.930
56067SOL     OW70097   2.199   3.199   7.120
56067SOL    HW170098   2.204   3.271   7.183
56067SOL    HW270099   2.251   3.129   7.160
56068SOL     OW70100   8.167   0.406   6.356
56068SOL    HW170101   8.260   0.427   6.365
56068SOL    HW270102   8.154   0.331   6.415
56069SOL     OW70103   6.354   0.056   6.871
56069SOL    HW170104   6.342   0.011   6.787
56069SOL    HW270105   6.432   0.015   6.909
56070SOL     OW70106   2.121  12.417   8.106
56070SOL    HW170107   2.089  12.348   8.165
56070SOL    HW270108   2.098  12.386   8.018
56071SOL     OW70109   4.803   6.824   7.189
56071SOL    HW170110   4.786   6.795   7.099
56071SOL    HW270111   4.866   6.895   7.180
56072SOL     OW70112   7.487   6.987   0.105
56072SOL    HW170113   7.436   7.037   0.040
56072SOL    HW270114   7.423   6.933   0.150
56073SOL     OW70115   1.742   7.846  13.106
56073SOL    HW170116   1.825   7.860  13.151
56073SOL    HW270117   1.746   7.756  13.075
56074SOL     OW70118  10.820  13.285   0.952
56074SOL    HW170119  10.867  13.211   0.992
56074SOL    HW270120  10.828  13.356   1.016
56075SOL     OW70121   0.574   1.966   4.146
56075SOL    HW170122   0.626   2.046   4.135
56075SOL    HW270123   0.628   1.897   4.109
56076SOL     OW70124   0.542  11.949   5.071
56076SOL    HW170125   0.569  11.860   5.092
56076SOL    HW270126   0.486  11.939   4.994
56077SOL     OW70127  11.406   3.327   2.973
56077SOL    HW170128  11.383   3.412   3.012
56077SOL    HW270129  11.502   3.329   2.968
56078SOL     OW70130   4.904  12.076   8.599
56078SOL    HW170131   4.883  12.017   8.671
56078SOL    HW270132   4.990  12.111   8.621
56079SOL     OW70133  10.164   9.710   4.680
56079SOL    HW170134  10.164   9.794   4.727
56079SOL    HW270135  10.181   9.645   4.748
56080SOL     OW70136   4.195  11.900  10.918
56080SOL    HW170137   4.160  11.906  10.829
56080SOL    HW270138   4.268  11.962  10.919
56081SOL     OW70139   6.548  10.390   4.011
56081SOL    HW170140   6.504  10.332   3.950
56081SOL    HW270141   6.611  10.438   3.958
56082SOL     OW70142   8.574   5.432   6.603
56082SOL    HW170143   8.487   5.397   6.625
56082SOL    HW270144   8.585   5.411   6.510
56083SOL     OW70145   5.367   1.771   1.611
56083SOL    HW170146   5.397   1.698   1.667
56083SOL    HW270147   5.357   1.844   1.672
56084SOL     OW70148   7.912   6.556   8.211
56084SOL    HW170149   7.824   6.520   8.201
56084SOL    HW270150   7.954   6.539   8.126
56085SOL     OW70151   1.481   1.601   7.174
56085SOL    HW170152   1.394   1.625   7.140
56085SOL    HW270153   1.531   1.575   7.096
56086SOL     OW70154   7.958   2.100  10.516
56086SOL    HW170155   8.040   2.100  10.567
56086SOL    HW270156   7.987   2.109  10.425
56087SOL     OW70157   2.502   4.788   9.685
56087SOL    HW170158   2.574   4.739   9.646
56087SOL    HW270159   2.448   4.721   9.727
56088SOL     OW70160   2.803  14.272   8.673
56088SOL    HW170161   2.726  14.281   8.617
56088SOL    HW270162   2.824  14.361   8.700
56089SOL     OW70163   8.624  10.629  13.402
56089SOL    HW170164   8.616  10.722  13.381
56089SOL    HW270165   8.535  10.595  13.395
56090SOL     OW70166   7.149  12.426   9.645
56090SOL    HW170167   7.179  12.484   9.575
56090SOL    HW270168   7.148  12.482   9.723
56091SOL     OW70169  10.906   7.942   3.626
56091SOL    HW170170  10.976   7.998   3.661
56091SOL    HW270171  10.844   8.004   3.586
56092SOL     OW70172  13.722  13.573  11.838
56092SOL    HW170173  13.761  13.498  11.792
56092SOL    HW270174  13.632  13.545  11.856
56093SOL     OW70175   6.413  12.786   3.653
56093SOL    HW170176   6.351  12.838   3.705
56093SOL    HW270177   6.467  12.852   3.609
56094SOL     OW70178   9.252   5.854   9.446
56094SOL    HW170179   9.158   5.847   9.427
56094SOL    HW270180   9.294   5.808   9.373
56095SOL     OW70181   1.935   1.137  10.310
56095SOL    HW170182   1.991   1.197  10.360
56095SOL    HW270183   1.893   1.192  10.244
56096SOL     OW70184  12.301   6.609   1.659
56096SOL    HW170185  12.272   6.633   1.747
56096SOL    HW270186  12.303   6.692   1.611
56097SOL     OW70187   4.260   2.541   7.421
56097SOL    HW170188   4.297   2.571   7.504
56097SOL    HW270189   4.246   2.447   7.433
56098SOL     OW70190   8.741  11.540   2.862
56098SOL    HW170191   8.701  11.453   2.854
56098SOL    HW270192   8.717  11.570   2.949
56099SOL     OW70193   3.462   9.328   5.786
56099SOL    HW170194   3.538   9.325   5.729
56099SOL    HW270195   3.495   9.307   5.873
56100SOL     OW70196  10.270   2.027   3.465
56100SOL    HW170197  10.203   2.094   3.447
56100SOL    HW270198  10.321   2.063   3.538
56101SOL     OW70199   1.327   2.686  13.356
56101SOL    HW170200   1.305   2.734  13.276
56101SOL    HW270201   1.423   2.677  13.352
56102SOL     OW70202   9.783   5.413   3.579
56102SOL    HW170203   9.807   5.324   3.608
56102SOL    HW270204   9.844   5.432   3.508
56103SOL     OW70205   2.939  10.031  13.943
56103SOL    HW170206   3.016  10.084  13.967
56103SOL    HW270207   2.936  10.036  13.848
56104SOL     OW70208   9.267  14.336   7.863
56104SOL    HW170209   9.312  14.258   7.894
56104SOL    HW270210   9.232  14.376   7.943
56105SOL     OW70211  13.715   4.909   9.625
56105SOL    HW170212  13.759   4.987   9.591
56105SOL    HW270213  13.622   4.927   9.614
56106SOL     OW70214  14.084  11.995   8.517
56106SOL    HW170215  14.013  12.005   8.579
56106SOL    HW270216  14.092  11.900   8.505
56107SOL     OW70217  14.603  12.762   7.348
56107SOL    HW170218  14.607  12.767   7.444
56107SOL    HW270219  14.652  12.838   7.318
56108SOL     OW70220  11.928  11.197  12.318
56108SOL    HW170221  11.920  11.124  12.256
56108SOL    HW270222  11.852  11.253  12.298
56109SOL     OW70223   9.827   9.270   3.642
56109SOL    HW170224   9.908   9.265   3.692
56109SOL    HW270225   9.762   9.227   3.697
56110SOL     OW70226  11.873   7.937   1.972
56110SOL    HW170227  11.820   7.916   1.895
56110SOL    HW270228  11.852   7.869   2.035
56111SOL     OW70229   1.902   7.599   3.452
56111SOL    HW170230   1.996   7.599   3.431
56111SOL    HW270231   1.898   7.586   3.546
56112SOL     OW70232   5.796   9.965   3.347
56112SOL    HW170233   5.748  10.032   3.299
56112SOL    HW270234   5.728   9.913   3.390
56113SOL     OW70235   6.085   9.890   7.121
56113SOL    HW170236   6.123   9.825   7.062
56113SOL    HW270237   6.159   9.919   7.175
56114SOL     OW70238  10.418   6.922   2.928
56114SOL    HW170239  10.342   6.893   2.877
56114SOL    HW270240  10.473   6.843   2.934
56115SOL     OW70241  12.304   9.073  10.470
56115SOL    HW170242  12.376   9.104  10.415
56115SOL    HW270243  12.291   9.142  10.535
56116SOL     OW70244   8.497   7.288  13.621
56116SOL    HW170245   8.501   7.381  13.643
56116SOL    HW270246   8.538   7.282  13.535
56117SOL     OW70247   0.827   8.053   5.320
56117SOL    HW170248   0.797   8.144   5.320
56117SOL    HW270249   0.828   8.028   5.228
56118SOL     OW70250   4.426  10.475  14.641
56118SOL    HW170251   4.428  10.439  14.730
56118SOL    HW270252   4.516  10.506  14.626
56119SOL     OW70253   5.362  13.124   7.917
56119SOL    HW170254   5.403  13.037   7.919
56119SOL    HW270255   5.293  13.117   7.851
56120SOL     OW70256   6.957  13.894  13.490
56120SOL    HW170257   6.923  13.852  13.569
56120SOL    HW270258   6.909  13.853  13.418
56121SOL     OW70259   9.223   3.525  12.275
56121SOL    HW170260   9.181   3.471  12.207
56121SOL    HW270261   9.304   3.556  12.234
56122SOL     OW70262   0.129   5.450   3.990
56122SOL    HW170263   0.132   5.476   4.082
56122SOL    HW270264   0.041   5.472   3.961
56123SOL     OW70265  13.239   4.121  11.402
56123SOL    HW170266  13.170   4.145  11.340
56123SOL    HW270267  13.218   4.031  11.427
56124SOL     OW70268   2.228  11.145  13.571
56124SOL    HW170269   2.145  11.156  13.617
56124SOL    HW270270   2.282  11.218  13.600
56125SOL     OW70271   4.980   2.822   8.806
56125SOL    HW170272   4.998   2.916   8.800
56125SOL    HW270273   4.934   2.812   8.889
56126SOL     OW70274  12.589   7.599  14.199
56126SOL    HW170275  12.583   7.528  14.136
56126SOL    HW270276  12.651   7.567  14.265
56127SOL     OW70277  10.497   7.627  12.956
56127SOL    HW170278  10.582   7.623  12.999
56127SOL    HW270279  10.450   7.550  12.987
56128SOL     OW70280   9.704   2.359   5.218
56128SOL    HW170281   9.677   2.425   5.281
56128SOL    HW270282   9.799   2.371   5.210
56129SOL     OW70283   0.274   0.496  12.929
56129SOL    HW170284   0.183   0.471  12.945
56129SOL    HW270285   0.272   0.592  12.927
56130SOL     OW70286   0.291   7.829   5.199
56130SOL    HW170287   0.380   7.812   5.228
56130SOL    HW270288   0.261   7.746   5.162
56131SOL     OW70289   1.899  12.990  14.176
56131SOL    HW170290   1.887  12.962  14.085
56131SOL    HW270291   1.914  13.085  14.170
56132SOL     OW70292   5.043   1.946   7.286
56132SOL    HW170293   5.018   1.860   7.319
56132SOL    HW270294   5.023   1.942   7.192
56133SOL     OW70295   4.102   6.594   6.151
56133SOL    HW170296   4.087   6.684   6.178
56133SOL    HW270297   4.132   6.601   6.060
56134SOL     OW70298   7.163   3.328   7.592
56134SOL    HW170299   7.101   3.394   7.562
56134SOL    HW270300   7.234   3.378   7.631
56135SOL     OW70301   8.905   9.610   4.783
56135SOL    HW170302   8.865   9.557   4.714
56135SOL    HW270303   8.904   9.553   4.860
56136SOL     OW70304   6.486   5.110  11.977
56136SOL    HW170305   6.420   5.050  11.944
56136SOL    HW270306   6.471   5.192  11.931
56137SOL     OW70307   0.082  14.346   0.508
56137SOL    HW170308   0.105  14.330   0.599
56137SOL    HW270309  14.856  14.347   0.507
56138SOL     OW70310   8.348  14.614  10.516
56138SOL    HW170311   8.356  14.537  10.572
56138SOL    HW270312   8.300  14.584  10.439
56139SOL     OW70313   8.221   6.886   3.482
56139SOL    HW170314   8.183   6.854   3.400
56139SOL    HW270315   8.257   6.972   3.459
56140SOL     OW70316  10.800   9.543   4.931
56140SOL    HW170317  10.770   9.622   4.976
56140SOL    HW270318  10.896   9.551   4.930
56141SOL     OW70319   3.453   2.790   7.792
56141SOL    HW170320   3.461   2.758   7.702
56141SOL    HW270321   3.412   2.718   7.840
56142SOL     OW70322  13.072   7.347   8.948
56142SOL    HW170323  12.998   7.390   8.904
56142SOL    HW270324  13.058   7.254   8.933
56143SOL     OW70325  14.769   6.996   9.032
56143SOL    HW170326  14.803   7.085   9.029
56143SOL    HW270327  14.675   7.005   9.018
56144SOL     OW70328  13.306  11.601   3.743
56144SOL    HW170329  13.316  11.527   3.684
56144SOL    HW270330  13.341  11.676   3.695
56145SOL     OW70331  12.932   6.051   3.120
56145SOL    HW170332  12.929   6.035   3.025
56145SOL    HW270333  13.023   6.034   3.144
56146SOL     OW70334   5.180   9.410   4.033
56146SOL    HW170335   5.153   9.475   4.097
56146SOL    HW270336   5.276   9.408   4.039
56147SOL     OW70337   7.100   6.157  11.184
56147SOL    HW170338   7.032   6.141  11.249
56147SOL    HW270339   7.111   6.073  11.139
56148SOL     OW70340   6.431  13.678  13.573
56148SOL    HW170341   6.367  13.667  13.502
56148SOL    HW270342   6.516  13.665  13.530
56149SOL     OW70343   6.515   4.361  12.901
56149SOL    HW170344   6.523   4.456  12.911
56149SOL    HW270345   6.523   4.328  12.990
56150SOL     OW70346   6.733   0.008  11.537
56150SOL    HW170347   6.806  14.863  11.597
56150SOL    HW270348   6.768   0.065  11.469
56151SOL     OW70349  11.210   9.942   9.422
56151SOL    HW170350  11.285   9.995   9.395
56151SOL    HW270351  11.242   9.891   9.496
56152SOL     OW70352   6.013   4.636  13.372
56152SOL    HW170353   5.974   4.710  13.324
56152SOL    HW270354   6.062   4.588  13.305
56153SOL     OW70355   8.365   4.095  10.490
56153SOL    HW170356   8.458   4.101  10.511
56153SOL    HW270357   8.323   4.160  10.546
56154SOL     OW70358  14.127   9.850   5.133
56154SOL    HW170359  14.120   9.830   5.227
56154SOL    HW270360  14.205   9.802   5.104
56155SOL     OW70361   7.954  12.053  14.715
56155SOL    HW170362   7.909  11.982  14.759
56155SOL    HW270363   8.045  12.047  14.745
56156SOL     OW70364   7.754   3.904   7.663
56156SOL    HW170365   7.734   3.998   7.665
56156SOL    HW270366   7.816   3.894   7.591
56157SOL     OW70367  12.620   5.680  13.124
56157SOL    HW170368  12.595   5.653  13.036
56157SOL    HW270369  12.545   5.656  13.178
56158SOL     OW70370  10.393  13.387   6.981
56158SOL    HW170371  10.315  13.438   7.001
56158SOL    HW270372  10.423  13.354   7.066
56159SOL     OW70373   1.838   2.735   4.507
56159SOL    HW170374   1.908   2.674   4.529
56159SOL    HW270375   1.761   2.680   4.492
56160SOL     OW70376   9.849   2.954  14.167
56160SOL    HW170377   9.939   2.982  14.154
56160SOL    HW270378   9.845   2.923  14.257
56161SOL     OW70379  14.013  11.474   9.963
56161SOL    HW170380  14.103  11.475   9.995
56161SOL    HW270381  13.994  11.565   9.941
56162SOL     OW70382   1.398   8.256   2.756
56162SOL    HW170383   1.376   8.225   2.844
56162SOL    HW270384   1.376   8.184   2.698
56163SOL     OW70385   3.695   3.569   3.368
56163SOL    HW170386   3.616   3.526   3.401
56163SOL    HW270387   3.764   3.504   3.377
56164SOL     OW70388   4.866  13.971  12.421
56164SOL    HW170389   4.879  14.043  12.483
56164SOL    HW270390   4.805  13.912  12.465
56165SOL     OW70391   8.461   5.975   0.501
56165SOL    HW170392   8.496   5.976   0.412
56165SOL    HW270393   8.538   5.960   0.556
56166SOL     OW70394   2.858  14.759  14.664
56166SOL    HW170395   2.906  14.716  14.735
56166SOL    HW270396   2.846  14.849  14.693
56167SOL     OW70397   5.273   4.804   6.685
56167SOL    HW170398   5.246   4.893   6.663
56167SOL    HW270399   5.329   4.777   6.612
56168SOL     OW70400  10.955  10.835   0.126
56168SOL    HW170401  11.042  10.799   0.107
56168SOL    HW270402  10.961  10.927   0.100
56169SOL     OW70403   7.735  14.377  11.551
56169SOL    HW170404   7.642  14.371  11.528
56169SOL    HW270405   7.773  14.435  11.485
56170SOL     OW70406   3.442   8.115   4.387
56170SOL    HW170407   3.471   8.026   4.406
56170SOL    HW270408   3.485   8.138   4.305
56171SOL     OW70409   2.787  11.102   2.579
56171SOL    HW170410   2.880  11.110   2.599
56171SOL    HW270411   2.749  11.059   2.656
56172SOL     OW70412  12.741  12.510  13.769
56172SOL    HW170413  12.786  12.547  13.692
56172SOL    HW270414  12.758  12.574  13.839
56173SOL     OW70415   3.479   1.627   8.860
56173SOL    HW170416   3.487   1.705   8.805
56173SOL    HW270417   3.399   1.584   8.829
56174SOL     OW70418   3.876  10.707  10.004
56174SOL    HW170419   3.966  10.697  10.033
56174SOL    HW270420   3.881  10.766   9.929
56175SOL     OW70421   1.868   0.910   6.809
56175SOL    HW170422   1.945   0.862   6.841
56175SOL    HW270423   1.843   0.864   6.729
56176SOL     OW70424  13.353   8.766   0.037
56176SOL    HW170425  13.447   8.761   0.021
56176SOL    HW270426  13.317   8.794  14.823
56177SOL     OW70427   3.228  11.568  10.008
56177SOL    HW170428   3.165  11.638   9.990
56177SOL    HW270429   3.177  11.487  10.000
56178SOL     OW70430   8.190   6.324   0.917
56178SOL    HW170431   8.145   6.273   0.984
56178SOL    HW270432   8.219   6.403   0.963
56179SOL     OW70433  14.736   5.924   2.545
56179SOL    HW170434  14.826   5.895   2.532
56179SOL    HW270435  14.744   6.017   2.567
56180SOL     OW70436  10.706  13.087   0.465
56180SOL    HW170437  10.612  13.071   0.472
56180SOL    HW270438  10.716  13.182   0.477
56181SOL     OW70439   0.102   5.508   4.267
56181SOL    HW170440   0.057   5.591   4.283
56181SOL    HW270441   0.146   5.487   4.349
56182SOL     OW70442   5.825  12.329  10.816
56182SOL    HW170443   5.880  12.389  10.764
56182SOL    HW270444   5.887  12.266  10.853
56183SOL     OW70445   0.354  14.512   2.084
56183SOL    HW170446   0.375  14.500   2.177
56183SOL    HW270447   0.271  14.466   2.072
56184SOL     OW70448  11.800   5.627  12.344
56184SOL    HW170449  11.811   5.558  12.279
56184SOL    HW270450  11.757   5.698  12.296
56185SOL     OW70451  10.309  11.270  13.586
56185SOL    HW170452  10.225  11.255  13.628
56185SOL    HW270453  10.323  11.193  13.531
56186SOL     OW70454   6.172  14.204  13.917
56186SOL    HW170455   6.119  14.165  13.847
56186SOL    HW270456   6.163  14.298  13.904
56187SOL     OW70457   8.213   7.661   7.304
56187SOL    HW170458   8.280   7.729   7.309
56187SOL    HW270459   8.146   7.690   7.366
56188SOL     OW70460   0.583   2.311  11.034
56188SOL    HW170461   0.623   2.270  11.111
56188SOL    HW270462   0.657   2.338  10.980
56189SOL     OW70463  11.725  10.883   0.658
56189SOL    HW170464  11.648  10.883   0.601
56189SOL    HW270465  11.795  10.921   0.604
56190SOL     OW70466   1.717  13.197   6.943
56190SOL    HW170467   1.789  13.211   7.005
56190SOL    HW270468   1.759  13.200   6.857
56191SOL     OW70469   3.827   7.055  13.951
56191SOL    HW170470   3.807   7.086  13.863
56191SOL    HW270471   3.753   7.001  13.976
56192SOL     OW70472   7.588  10.645   4.466
56192SOL    HW170473   7.653  10.631   4.397
56192SOL    HW270474   7.631  10.612   4.546
56193SOL     OW70475   4.742   3.989   3.546
56193SOL    HW170476   4.655   3.953   3.526
56193SOL    HW270477   4.727   4.052   3.616
56194SOL     OW70478   1.882  12.194  14.434
56194SOL    HW170479   1.887  12.185  14.529
56194SOL    HW270480   1.952  12.138  14.401
56195SOL     OW70481  11.691   4.256   7.590
56195SOL    HW170482  11.682   4.183   7.528
56195SOL    HW270483  11.667   4.334   7.540
56196SOL     OW70484   7.729   2.353  10.334
56196SOL    HW170485   7.787   2.391  10.400
56196SOL    HW270486   7.662   2.420  10.319
56197SOL     OW70487  11.260   3.262   0.660
56197SOL    HW170488  11.257   3.288   0.752
56197SOL    HW270489  11.193   3.194   0.651
56198SOL     OW70490   8.846  11.947   2.994
56198SOL    HW170491   8.934  11.976   2.969
56198SOL    HW270492   8.824  12.001   3.070
56199SOL     OW70493  13.226  12.418   5.700
56199SOL    HW170494  13.151  12.470   5.731
56199SOL    HW270495  13.268  12.474   5.635
56200SOL     OW70496   9.240   7.230   3.639
56200SOL    HW170497   9.234   7.269   3.552
56200SOL    HW270498   9.300   7.156   3.629
56201SOL     OW70499   6.392   8.425  12.215
56201SOL    HW170500   6.487   8.429  12.207
56201SOL    HW270501   6.362   8.391  12.131
56202SOL     OW70502   1.299   4.815  13.810
56202SOL    HW170503   1.317   4.896  13.857
56202SOL    HW270504   1.371   4.808  13.747
56203SOL     OW70505  13.888   4.962  10.630
56203SOL    HW170506  13.902   5.011  10.549
56203SOL    HW270507  13.793   4.957  10.639
56204SOL     OW70508   6.380   1.503   2.953
56204SOL    HW170509   6.430   1.561   3.012
56204SOL    HW270510   6.362   1.557   2.876
56205SOL     OW70511  11.513   9.658   7.329
56205SOL    HW170512  11.526   9.626   7.418
56205SOL    HW270513  11.583   9.722   7.316
56206SOL     OW70514  13.841   2.951   9.129
56206SOL    HW170515  13.800   2.973   9.213
56206SOL    HW270516  13.769   2.921   9.074
56207SOL     OW70517   2.644  12.431   8.274
56207SOL    HW170518   2.711  12.433   8.207
56207SOL    HW270519   2.565  12.400   8.229
56208SOL     OW70520   2.541   0.506   3.506
56208SOL    HW170521   2.473   0.450   3.544
56208SOL    HW270522   2.498   0.591   3.493
56209SOL     OW70523  14.349   2.087   3.602
56209SOL    HW170524  14.365   2.114   3.512
56209SOL    HW270525  14.351   1.991   3.600
56210SOL     OW70526   1.065   7.539   7.843
56210SOL    HW170527   1.065   7.631   7.869
56210SOL    HW270528   1.032   7.493   7.920
56211SOL     OW70529   8.824   8.537  13.548
56211SOL    HW170530   8.824   8.442  13.536
56211SOL    HW270531   8.916   8.560  13.556
56212SOL     OW70532  12.347  11.993  12.504
56212SOL    HW170533  12.343  12.012  12.598
56212SOL    HW270534  12.257  12.001  12.474
56213SOL     OW70535   4.682   4.189   9.847
56213SOL    HW170536   4.591   4.206   9.869
56213SOL    HW270537   4.715   4.273   9.814
56214SOL     OW70538   7.771  12.041   8.498
56214SOL    HW170539   7.710  11.969   8.481
56214SOL    HW270540   7.719  12.120   8.489
56215SOL     OW70541   7.400   3.720   2.635
56215SOL    HW170542   7.466   3.720   2.565
56215SOL    HW270543   7.448   3.746   2.713
56216SOL     OW70544   6.823   7.055  11.253
56216SOL    HW170545   6.850   7.097  11.335
56216SOL    HW270546   6.818   7.127  11.190
56217SOL     OW70547   0.058  13.827  10.757
56217SOL    HW170548   0.023  13.827  10.846
56217SOL    HW270549   0.042  13.915  10.724
56218SOL     OW70550  13.624   6.947   9.011
56218SOL    HW170551  13.539   6.980   8.981
56218SOL    HW270552  13.650   7.007   9.081
56219SOL     OW70553   9.237   8.067   3.067
56219SOL    HW170554   9.331   8.056   3.078
56219SOL    HW270555   9.228   8.120   2.987
56220SOL     OW70556   3.589   6.509  11.922
56220SOL    HW170557   3.675   6.510  11.964
56220SOL    HW270558   3.543   6.434  11.962
56221SOL     OW70559   8.115  11.527   6.039
56221SOL    HW170560   8.125  11.482   5.955
56221SOL    HW270561   8.037  11.488   6.078
56222SOL     OW70562   1.753   1.508  12.954
56222SOL    HW170563   1.737   1.592  12.997
56222SOL    HW270564   1.764   1.531  12.861
56223SOL     OW70565   3.870  10.002  12.372
56223SOL    HW170566   3.952   9.975  12.330
56223SOL    HW270567   3.814   9.925  12.365
56224SOL     OW70568   7.254   4.346  14.221
56224SOL    HW170569   7.287   4.416  14.164
56224SOL    HW270570   7.216   4.283  14.160
56225SOL     OW70571   6.485  12.156   8.131
56225SOL    HW170572   6.492  12.199   8.216
56225SOL    HW270573   6.411  12.095   8.142
56226SOL     OW70574   3.079   3.898   8.081
56226SOL    HW170575   3.087   3.917   7.987
56226SOL    HW270576   3.074   3.803   8.086
56227SOL     OW70577   0.085   4.691   0.803
56227SOL    HW170578   0.016   4.732   0.751
56227SOL    HW270579   0.082   4.737   0.887
56228SOL     OW70580  12.213   6.610  11.403
56228SOL    HW170581  12.278   6.680  11.392
56228SOL    HW270582  12.152   6.644  11.468
56229SOL     OW70583   9.409  10.327   4.433
56229SOL    HW170584   9.339  10.386   4.403
56229SOL    HW270585   9.468  10.320   4.358
56230SOL     OW70586   8.514   5.302  12.155
56230SOL    HW170587   8.599   5.347  12.152
56230SOL    HW270588   8.454   5.362  12.111
56231SOL     OW70589  12.142  14.678   9.378
56231SOL    HW170590  12.192  14.602   9.348
56231SOL    HW270591  12.074  14.690   9.312
56232SOL     OW70592   4.631  14.571  10.340
56232SOL    HW170593   4.577  14.518  10.399
56232SOL    HW270594   4.684  14.625  10.399
56233SOL     OW70595  11.018   7.620  14.390
56233SOL    HW170596  11.035   7.698  14.338
56233SOL    HW270597  11.025   7.649  14.481
56234SOL     OW70598   7.902   0.364   9.873
56234SOL    HW170599   7.929   0.455   9.856
56234SOL    HW270600   7.893   0.359   9.968
56235SOL     OW70601   1.042  13.411  10.718
56235SOL    HW170602   1.019  13.336  10.663
56235SOL    HW270603   1.090  13.470  10.659
56236SOL     OW70604  12.283  10.878  12.496
56236SOL    HW170605  12.188  10.893  12.491
56236SOL    HW270606  12.309  10.856  12.407
56237SOL     OW70607  14.352   1.225  10.335
56237SOL    HW170608  14.415   1.154  10.323
56237SOL    HW270609  14.346   1.236  10.430
56238SOL     OW70610   7.347   6.567  11.384
56238SOL    HW170611   7.406   6.636  11.354
56238SOL    HW270612   7.363   6.560  11.478
56239SOL     OW70613   7.411  10.337  14.763
56239SOL    HW170614   7.340  10.350  14.700
56239SOL    HW270615   7.433  10.244  14.756
56240SOL     OW70616   9.725   9.682   3.535
56240SOL    HW170617   9.667   9.756   3.554
56240SOL    HW270618   9.713   9.666   3.441
56241SOL     OW70619   7.190  12.390  11.698
56241SOL    HW170620   7.197  12.443  11.778
56241SOL    HW270621   7.096  12.387  11.680
56242SOL     OW70622   7.242  13.064  12.239
56242SOL    HW170623   7.208  13.080  12.327
56242SOL    HW270624   7.165  13.067  12.183
56243SOL     OW70625  12.889   2.709  11.707
56243SOL    HW170626  12.879   2.800  11.679
56243SOL    HW270627  12.924   2.714  11.795
56244SOL     OW70628   1.473   4.293   7.380
56244SOL    HW170629   1.477   4.245   7.463
56244SOL    HW270630   1.387   4.271   7.345
56245SOL     OW70631   8.233   2.625   0.594
56245SOL    HW170632   8.302   2.686   0.566
56245SOL    HW270633   8.252   2.609   0.687
56246SOL     OW70634   7.006  13.484  13.035
56246SOL    HW170635   6.948  13.455  12.964
56246SOL    HW270636   6.947  13.511  13.105
56247SOL     OW70637  14.262  10.606  10.918
56247SOL    HW170638  14.356  10.597  10.935
56247SOL    HW270639  14.255  10.603  10.822
56248SOL     OW70640   4.506   4.006   7.019
56248SOL    HW170641   4.531   4.090   7.058
56248SOL    HW270642   4.457   4.029   6.940
56249SOL     OW70643  12.381  14.440  12.408
56249SOL    HW170644  12.390  14.530  12.439
56249SOL    HW270645  12.405  14.444  12.316
56250SOL     OW70646   3.241   6.981   9.393
56250SOL    HW170647   3.290   6.912   9.440
56250SOL    HW270648   3.152   6.973   9.426
56251SOL     OW70649   1.864   8.620   7.563
56251SOL    HW170650   1.858   8.605   7.657
56251SOL    HW270651   1.791   8.571   7.526
56252SOL     OW70652   9.117   8.066  14.416
56252SOL    HW170653   9.082   8.000  14.475
56252SOL    HW270654   9.060   8.061  14.339
56253SOL     OW70655   2.962  11.743  13.603
56253SOL    HW170656   2.946  11.754  13.509
56253SOL    HW270657   2.948  11.650  13.619
56254SOL     OW70658  13.890   4.425  14.076
56254SOL    HW170659  13.870   4.503  14.023
56254SOL    HW270660  13.837   4.355  14.037
56255SOL     OW70661  10.376   9.747   1.168
56255SOL    HW170662  10.428   9.759   1.089
56255SOL    HW270663  10.306   9.688   1.142
56256SOL     OW70664   1.235  10.468  11.606
56256SOL    HW170665   1.155  10.508  11.572
56256SOL    HW270666   1.224  10.470  11.701
56257SOL     OW70667  11.738   5.889   9.435
56257SOL    HW170668  11.740   5.824   9.505
56257SOL    HW270669  11.652   5.929   9.442
56258SOL     OW70670  11.538   6.268   9.200
56258SOL    HW170671  11.600   6.340   9.195
56258SOL    HW270672  11.460   6.301   9.155
56259SOL     OW70673   3.082   5.129   2.511
56259SOL    HW170674   3.009   5.164   2.460
56259SOL    HW270675   3.091   5.190   2.584
56260SOL     OW70676  14.678   4.195   0.524
56260SOL    HW170677  14.682   4.113   0.573
56260SOL    HW270678  14.721   4.259   0.580
56261SOL     OW70679   8.594   7.778   6.987
56261SOL    HW170680   8.595   7.716   6.915
56261SOL    HW270681   8.631   7.731   7.061
56262SOL     OW70682   1.697   3.204  10.375
56262SOL    HW170683   1.712   3.279  10.318
56262SOL    HW270684   1.603   3.205  10.392
56263SOL     OW70685   7.436   6.901  13.532
56263SOL    HW170686   7.510   6.926  13.587
56263SOL    HW270687   7.381   6.980  13.528
56264SOL     OW70688   7.730   6.178   0.407
56264SOL    HW170689   7.718   6.247   0.342
56264SOL    HW270690   7.749   6.100   0.356
56265SOL     OW70691   5.982  11.264  10.634
56265SOL    HW170692   5.991  11.173  10.608
56265SOL    HW270693   5.895  11.290  10.605
56266SOL     OW70694   8.634   7.394  10.200
56266SOL    HW170695   8.684   7.459  10.249
56266SOL    HW270696   8.588   7.343  10.267
56267SOL     OW70697   5.367   7.742   3.054
56267SOL    HW170698   5.396   7.653   3.074
56267SOL    HW270699   5.341   7.739   2.962
56268SOL     OW70700   7.795  13.887   7.430
56268SOL    HW170701   7.820  13.956   7.369
56268SOL    HW270702   7.717  13.847   7.391
56269SOL     OW70703   5.452   9.289  11.435
56269SOL    HW170704   5.493   9.220  11.383
56269SOL    HW270705   5.360   9.264  11.440
56270SOL     OW70706  11.152   3.712   0.420
56270SOL    HW170707  11.192   3.631   0.389
56270SOL    HW270708  11.065   3.686   0.449
56271SOL     OW70709  11.356  10.815  10.847
56271SOL    HW170710  11.414  10.741  10.830
56271SOL    HW270711  11.413  10.883  10.882
56272SOL     OW70712   7.306   2.786  11.887
56272SOL    HW170713   7.395   2.820  11.890
56272SOL    HW270714   7.273   2.812  11.801
56273SOL     OW70715  14.811   4.922   9.166
56273SOL    HW170716  14.851   5.009   9.161
56273SOL    HW270717  14.730   4.936   9.214
56274SOL     OW70718   9.298  11.609  13.585
56274SOL    HW170719   9.325  11.564  13.505
56274SOL    HW270720   9.381  11.634  13.627
56275SOL     OW70721   5.043   5.687  13.045
56275SOL    HW170722   5.111   5.731  13.096
56275SOL    HW270723   4.978   5.755  13.027
56276SOL     OW70724   3.956   5.740   3.844
56276SOL    HW170725   4.038   5.733   3.893
56276SOL    HW270726   3.961   5.825   3.800
56277SOL     OW70727   1.548  10.042  13.053
56277SOL    HW170728   1.605  10.024  12.979
56277SOL    HW270729   1.466   9.997  13.032
56278SOL     OW70730  11.488  11.815   7.201
56278SOL    HW170731  11.584  11.825   7.199
56278SOL    HW270732  11.459  11.845   7.115
56279SOL     OW70733   5.299  13.037  12.401
56279SOL    HW170734   5.286  13.130  12.419
56279SOL    HW270735   5.221  13.010  12.353
56280SOL     OW70736  12.803  11.348   3.847
56280SOL    HW170737  12.817  11.325   3.756
56280SOL    HW270738  12.867  11.417   3.865
56281SOL     OW70739   7.474   4.463  10.972
56281SOL    HW170740   7.425   4.422  10.901
56281SOL    HW270741   7.442   4.553  10.975
56282SOL     OW70742   3.331   6.673   6.208
56282SOL    HW170743   3.315   6.579   6.218
56282SOL    HW270744   3.422   6.679   6.180
56283SOL     OW70745  10.342   7.186   9.225
56283SOL    HW170746  10.292   7.266   9.240
56283SOL    HW270747  10.285   7.132   9.169
56284SOL     OW70748   5.467   5.538  10.477
56284SOL    HW170749   5.541   5.492  10.436
56284SOL    HW270750   5.454   5.616  10.423
56285SOL     OW70751   1.992  12.901   7.516
56285SOL    HW170752   2.078  12.884   7.477
56285SOL    HW270753   1.933  12.839   7.472
56286SOL     OW70754   8.047  12.372   6.142
56286SOL    HW170755   8.119  12.336   6.193
56286SOL    HW270756   8.057  12.333   6.055
56287SOL     OW70757   7.018  13.612   2.504
56287SOL    HW170758   7.005  13.623   2.598
56287SOL    HW270759   7.111  13.631   2.490
56288SOL     OW70760  10.639   6.219   5.467
56288SOL    HW170761  10.682   6.305   5.472
56288SOL    HW270762  10.644   6.186   5.557
56289SOL     OW70763   0.347   7.864  13.448
56289SOL    HW170764   0.331   7.959  13.451
56289SOL    HW270765   0.314   7.838  13.362
56290SOL     OW70766   9.129   9.242  14.837
56290SOL    HW170767   9.157   9.151  14.823
56290SOL    HW270768   9.143   9.284  14.752
56291SOL     OW70769  12.073   7.415   1.518
56291SOL    HW170770  12.005   7.373   1.570
56291SOL    HW270771  12.148   7.356   1.525
56292SOL     OW70772   5.247  10.304   1.572
56292SOL    HW170773   5.191  10.375   1.603
56292SOL    HW270774   5.210  10.225   1.611
56293SOL     OW70775  14.447   2.842   4.292
56293SOL    HW170776  14.391   2.917   4.311
56293SOL    HW270777  14.529   2.880   4.261
56294SOL     OW70778  14.002  12.858  12.431
56294SOL    HW170779  14.053  12.927  12.388
56294SOL    HW270780  14.066  12.811  12.485
56295SOL     OW70781   8.277   4.140  13.306
56295SOL    HW170782   8.190   4.130  13.266
56295SOL    HW270783   8.326   4.065  13.274
56296SOL     OW70784   5.956  12.706   5.222
56296SOL    HW170785   6.021  12.646   5.185
56296SOL    HW270786   5.956  12.688   5.316
56297SOL     OW70787  13.093   3.462  13.859
56297SOL    HW170788  13.016   3.426  13.903
56297SOL    HW270789  13.154   3.481  13.931
56298SOL     OW70790   6.842   0.388   8.038
56298SOL    HW170791   6.830   0.360   7.947
56298SOL    HW270792   6.841   0.484   8.035
56299SOL     OW70793   3.390  11.890   8.881
56299SOL    HW170794   3.385  11.801   8.916
56299SOL    HW270795   3.415  11.878   8.790
56300SOL     OW70796   6.233   3.166   9.911
56300SOL    HW170797   6.285   3.237   9.947
56300SOL    HW270798   6.235   3.098   9.978
56301SOL     OW70799   3.466   1.353   8.986
56301SOL    HW170800   3.457   1.407   8.908
56301SOL    HW270801   3.536   1.395   9.037
56302SOL     OW70802  10.895  11.281   0.490
56302SOL    HW170803  10.817  11.285   0.435
56302SOL    HW270804  10.896  11.192   0.525
56303SOL     OW70805  12.861   3.485   3.291
56303SOL    HW170806  12.798   3.431   3.339
56303SOL    HW270807  12.919   3.519   3.359
56304SOL     OW70808  12.750   9.820   1.848
56304SOL    HW170809  12.700   9.826   1.929
56304SOL    HW270810  12.839   9.799   1.877
56305SOL     OW70811   6.279   1.556   5.829
56305SOL    HW170812   6.259   1.595   5.743
56305SOL    HW270813   6.325   1.625   5.876
56306SOL     OW70814  10.694   8.348   0.962
56306SOL    HW170815  10.778   8.361   0.918
56306SOL    HW270816  10.709   8.278   1.024
56307SOL     OW70817   2.887  13.213   7.680
56307SOL    HW170818   2.801  13.223   7.721
56307SOL    HW270819   2.896  13.291   7.626
56308SOL     OW70820   9.073  13.163  13.439
56308SOL    HW170821   9.116  13.083  13.412
56308SOL    HW270822   9.121  13.192  13.516
56309SOL     OW70823  11.122  11.065   8.841
56309SOL    HW170824  11.162  11.064   8.754
56309SOL    HW270825  11.093  10.975   8.855
56310SOL     OW70826   9.136   7.303  12.315
56310SOL    HW170827   9.061   7.356  12.286
56310SOL    HW270828   9.162   7.343  12.398
56311SOL     OW70829   2.049  13.285   1.524
56311SOL    HW170830   2.100  13.365   1.534
56311SOL    HW270831   2.043  13.249   1.613
56312SOL     OW70832   4.486  13.269   9.861
56312SOL    HW170833   4.510  13.180   9.886
56312SOL    HW270834   4.446  13.306   9.940
56313SOL     OW70835   2.580  12.472   7.983
56313SOL    HW170836   2.653  12.414   8.004
56313SOL    HW270837   2.506  12.436   8.032
56314SOL     OW70838   0.024  14.526   1.631
56314SOL    HW170839  14.823  14.535   1.568
56314SOL    HW270840   0.086  14.466   1.590
56315SOL     OW70841   1.373   5.470  10.411
56315SOL    HW170842   1.466   5.477  10.390
56315SOL    HW270843   1.362   5.520  10.491
56316SOL     OW70844  13.405   1.804  13.490
56316SOL    HW170845  13.380   1.841  13.405
56316SOL    HW270846  13.494   1.835  13.504
56317SOL     OW70847  11.686   4.475  14.246
56317SOL    HW170848  11.676   4.381  14.262
56317SOL    HW270849  11.653   4.488  14.157
56318SOL     OW70850   0.821   9.604  10.527
56318SOL    HW170851   0.760   9.551  10.579
56318SOL    HW270852   0.826   9.687  10.573
56319SOL     OW70853   7.924   5.843   9.397
56319SOL    HW170854   7.856   5.909   9.385
56319SOL    HW270855   8.002   5.881   9.356
56320SOL     OW70856  14.002   4.628   4.473
56320SOL    HW170857  13.983   4.592   4.559
56320SOL    HW270858  14.060   4.703   4.489
56321SOL     OW70859   3.702   2.580   7.040
56321SOL    HW170860   3.776   2.636   7.018
56321SOL    HW270861   3.692   2.588   7.134
56322SOL     OW70862   1.622   7.537   0.323
56322SOL    HW170863   1.672   7.543   0.242
56322SOL    HW270864   1.687   7.555   0.392
56323SOL     OW70865   1.816  13.813  12.056
56323SOL    HW170866   1.723  13.792  12.059
56323SOL    HW270867   1.858  13.730  12.029
56324SOL     OW70868   7.321   7.928  14.786
56324SOL    HW170869   7.416   7.922  14.778
56324SOL    HW270870   7.290   7.957  14.700
56325SOL     OW70871  10.713  13.944   7.833
56325SOL    HW170872  10.771  14.021   7.824
56325SOL    HW270873  10.761  13.886   7.892
56326SOL     OW70874  10.766   9.219   7.084
56326SOL    HW170875  10.681   9.205   7.042
56326SOL    HW270876  10.778   9.143   7.141
56327SOL     OW70877   3.507   9.097   3.017
56327SOL    HW170878   3.511   9.032   3.087
56327SOL    HW270879   3.488   9.179   3.063
56328SOL     OW70880   0.514   7.825  12.775
56328SOL    HW170881   0.432   7.811  12.728
56328SOL    HW270882   0.507   7.770  12.853
56329SOL     OW70883   3.976   4.158   4.308
56329SOL    HW170884   3.906   4.131   4.369
56329SOL    HW270885   3.930   4.177   4.226
56330SOL     OW70886  13.056   0.783  10.002
56330SOL    HW170887  12.983   0.814   9.948
56330SOL    HW270888  13.017   0.763  10.087
56331SOL     OW70889  13.676   1.912   0.202
56331SOL    HW170890  13.715   1.952   0.124
56331SOL    HW270891  13.724   1.830   0.212
56332SOL     OW70892  13.231   6.333   6.509
56332SOL    HW170893  13.135   6.337   6.515
56332SOL    HW270894  13.249   6.259   6.451
56333SOL     OW70895   9.617  11.754   7.190
56333SOL    HW170896   9.557  11.743   7.263
56333SOL    HW270897   9.654  11.667   7.176
56334SOL     OW70898   8.257   1.724   5.645
56334SOL    HW170899   8.210   1.728   5.562
56334SOL    HW270900   8.190   1.703   5.710
56335SOL     OW70901  11.898  11.500   4.960
56335SOL    HW170902  11.928  11.549   4.883
56335SOL    HW270903  11.910  11.408   4.936
56336SOL     OW70904  14.425   0.428  14.038
56336SOL    HW170905  14.511   0.431  14.078
56336SOL    HW270906  14.389   0.516  14.050
56337SOL     OW70907   0.386  12.246  10.938
56337SOL    HW170908   0.405  12.169  10.885
56337SOL    HW270909   0.419  12.225  11.025
56338SOL     OW70910   3.990   5.504   3.665
56338SOL    HW170911   3.985   5.587   3.713
56338SOL    HW270912   4.081   5.499   3.636
56339SOL     OW70913   9.554  10.181   2.761
56339SOL    HW170914   9.473  10.132   2.778
56339SOL    HW270915   9.560  10.185   2.666
56340SOL     OW70916   5.256  14.058   5.164
56340SOL    HW170917   5.319  14.103   5.107
56340SOL    HW270918   5.296  13.973   5.181
56341SOL     OW70919   8.855   8.820   9.601
56341SOL    HW170920   8.846   8.748   9.664
56341SOL    HW270921   8.780   8.877   9.619
56342SOL     OW70922  12.642   8.452  10.704
56342SOL    HW170923  12.554   8.463  10.667
56342SOL    HW270924  12.635   8.482  10.794
56343SOL     OW70925   3.056   9.342  13.195
56343SOL    HW170926   3.119   9.391  13.141
56343SOL    HW270927   3.070   9.374  13.283
56344SOL     OW70928   1.899   4.737  12.376
56344SOL    HW170929   1.865   4.703  12.293
56344SOL    HW270930   1.972   4.679  12.397
56345SOL     OW70931  11.098   4.099   9.404
56345SOL    HW170932  11.149   4.063   9.332
56345SOL    HW270933  11.068   4.184   9.373
56346SOL     OW70934  12.217   6.659   6.687
56346SOL    HW170935  12.193   6.747   6.717
56346SOL    HW270936  12.156   6.601   6.733
56347SOL     OW70937  13.180   2.607   9.850
56347SOL    HW170938  13.163   2.689   9.895
56347SOL    HW270939  13.179   2.629   9.757
56348SOL     OW70940   9.763  12.093  14.399
56348SOL    HW170941   9.809  12.162  14.448
56348SOL    HW270942   9.816  12.080  14.321
56349SOL     OW70943   7.820   1.821   6.188
56349SOL    HW170944   7.737   1.792   6.152
56349SOL    HW270945   7.871   1.849   6.112
56350SOL     OW70946  11.157  10.760  10.031
56350SOL    HW170947  11.191  10.761  10.121
56350SOL    HW270948  11.233  10.781   9.977
56351SOL     OW70949  11.655  11.406   2.762
56351SOL    HW170950  11.562  11.405   2.738
56351SOL    HW270951  11.667  11.491   2.806
56352SOL     OW70952  11.222  14.201   8.538
56352SOL    HW170953  11.231  14.210   8.633
56352SOL    HW270954  11.179  14.281   8.510
56353SOL     OW70955  11.609   3.297   0.043
56353SOL    HW170956  11.673   3.227   0.057
56353SOL    HW270957  11.529   3.264   0.083
56354SOL     OW70958  11.951   7.591   1.746
56354SOL    HW170959  11.987   7.503   1.731
56354SOL    HW270960  11.998   7.623   1.823
56355SOL     OW70961   1.743  10.100  11.591
56355SOL    HW170962   1.674  10.112  11.526
56355SOL    HW270963   1.752  10.185  11.633
56356SOL     OW70964  11.016   5.683  11.170
56356SOL    HW170965  10.947   5.682  11.104
56356SOL    HW270966  11.065   5.602  11.155
56357SOL     OW70967   6.086   2.200   4.922
56357SOL    HW170968   6.017   2.162   4.867
56357SOL    HW270969   6.066   2.293   4.926
56358SOL     OW70970   3.407   5.863  13.135
56358SOL    HW170971   3.456   5.945  13.140
56358SOL    HW270972   3.329   5.884  13.084
56359SOL     OW70973   0.504  10.752   0.972
56359SOL    HW170974   0.576  10.756   0.910
56359SOL    HW270975   0.454  10.832   0.956
56360SOL     OW70976  14.152   2.915   4.533
56360SOL    HW170977  14.203   2.942   4.456
56360SOL    HW270978  14.069   2.961   4.523
56361SOL     OW70979  14.122   7.271  10.191
56361SOL    HW170980  14.041   7.322  10.181
56361SOL    HW270981  14.190   7.326  10.153
56362SOL     OW70982   4.435  13.012   3.678
56362SOL    HW170983   4.521  13.027   3.717
56362SOL    HW270984   4.451  12.950   3.607
56363SOL     OW70985  13.970   4.206   4.945
56363SOL    HW170986  13.875   4.222   4.942
56363SOL    HW270987  13.986   4.146   4.872
56364SOL     OW70988  11.759   3.228   0.812
56364SOL    HW170989  11.791   3.158   0.869
56364SOL    HW270990  11.736   3.299   0.873
56365SOL     OW70991  12.523   2.458   6.066
56365SOL    HW170992  12.558   2.386   6.014
56365SOL    HW270993  12.565   2.536   6.031
56366SOL     OW70994   1.942   3.719   1.579
56366SOL    HW170995   1.865   3.774   1.590
56366SOL    HW270996   1.916   3.653   1.516
56367SOL     OW70997   1.366   7.310   6.040
56367SOL    HW170998   1.404   7.225   6.016
56367SOL    HW270999   1.441   7.366   6.057
56368SOL     OW71000   1.972  11.536   3.503
56368SOL    HW171001   1.930  11.520   3.419
56368SOL    HW271002   1.985  11.631   3.507
56369SOL     OW71003   2.310  10.958   5.035
56369SOL    HW171004   2.339  11.031   4.980
56369SOL    HW271005   2.257  10.904   4.978
56370SOL     OW71006  12.532  10.071   1.214
56370SOL    HW171007  12.487  10.011   1.274
56370SOL    HW271008  12.521  10.032   1.128
56371SOL     OW71009   2.841  12.725   1.928
56371SOL    HW171010   2.860  12.748   2.019
56371SOL    HW271011   2.745  12.727   1.923
56372SOL     OW71012   9.906   1.543   8.769
56372SOL    HW171013   9.990   1.562   8.727
56372SOL    HW271014   9.859   1.489   8.705
56373SOL     OW71015   2.893   7.806  11.141
56373SOL    HW171016   2.916   7.858  11.218
56373SOL    HW271017   2.974   7.800  11.090
56374SOL     OW71018  13.861  11.294  13.609
56374SOL    HW171019  13.787  11.285  13.548
56374SOL    HW271020  13.826  11.344  13.682
56375SOL     OW71021   5.517   4.443   8.681
56375SOL    HW171022   5.442   4.428   8.738
56375SOL    HW271023   5.564   4.515   8.722
56376SOL     OW71024   4.447  13.412  14.401
56376SOL    HW171025   4.382  13.346  14.377
56376SOL    HW271026   4.456  13.404  14.496
56377SOL     OW71027   2.832   0.338   4.053
56377SOL    HW171028   2.756   0.297   4.094
56377SOL    HW271029   2.806   0.429   4.039
56378SOL     OW71030   9.936  10.111  14.288
56378SOL    HW171031   9.982  10.053  14.348
56378SOL    HW271032   9.975  10.095  14.202
56379SOL     OW71033  12.881  12.790   3.118
56379SOL    HW171034  12.814  12.729   3.087
56379SOL    HW271035  12.944  12.796   3.046
56380SOL     OW71036   6.706  12.809   6.395
56380SOL    HW171037   6.681  12.726   6.435
56380SOL    HW271038   6.797  12.822   6.421
56381SOL     OW71039   5.364  14.589  10.774
56381SOL    HW171040   5.402  14.643  10.704
56381SOL    HW271041   5.439  14.564  10.829
56382SOL     OW71042  14.401  12.614   5.818
56382SOL    HW171043  14.427  12.698   5.855
56382SOL    HW271044  14.338  12.636   5.750
56383SOL     OW71045  13.103  13.901   2.172
56383SOL    HW171046  13.038  13.865   2.111
56383SOL    HW271047  13.120  13.990   2.140
56384SOL     OW71048  13.518  14.039   1.538
56384SOL    HW171049  13.576  14.054   1.612
56384SOL    HW271050  13.440  14.091   1.557
56385SOL     OW71051   9.236  14.303   0.215
56385SOL    HW171052   9.279  14.309   0.300
56385SOL    HW271053   9.290  14.242   0.164
56386SOL     OW71054   1.895   5.067   9.201
56386SOL    HW171055   1.865   5.050   9.112
56386SOL    HW271056   1.904   5.163   9.205
56387SOL     OW71057   5.360   8.328   3.019
56387SOL    HW171058   5.385   8.280   3.098
56387SOL    HW271059   5.395   8.416   3.033
56388SOL     OW71060   6.908  11.015   1.387
56388SOL    HW171061   6.818  11.039   1.406
56388SOL    HW271062   6.909  10.995   1.293
56389SOL     OW71063   1.293   8.103   5.069
56389SOL    HW171064   1.380   8.065   5.077
56389SOL    HW271065   1.288   8.166   5.141
56390SOL     OW71066  14.851  11.328   0.392
56390SOL    HW171067  14.818  11.369   0.312
56390SOL    HW271068   0.038  11.394   0.431
56391SOL     OW71069  10.879   2.630   0.333
56391SOL    HW171070  10.974   2.631   0.330
56391SOL    HW271071  10.852   2.637   0.241
56392SOL     OW71072   4.721   4.264   6.441
56392SOL    HW171073   4.655   4.194   6.447
56392SOL    HW271074   4.786   4.241   6.507
56393SOL     OW71075   1.495  11.654   3.751
56393SOL    HW171076   1.495  11.652   3.655
56393SOL    HW271077   1.570  11.600   3.776
56394SOL     OW71078   5.185  12.506   2.860
56394SOL    HW171079   5.159  12.588   2.818
56394SOL    HW271080   5.103  12.470   2.894
56395SOL     OW71081   7.626   0.463   3.845
56395SOL    HW171082   7.697   0.490   3.787
56395SOL    HW271083   7.670   0.433   3.924
56396SOL     OW71084   6.315   0.829   0.640
56396SOL    HW171085   6.348   0.829   0.730
56396SOL    HW271086   6.371   0.766   0.594
56397SOL     OW71087   7.343  14.285   3.048
56397SOL    HW171088   7.408  14.248   2.989
56397SOL    HW271089   7.308  14.210   3.096
56398SOL     OW71090  13.524  13.969   6.460
56398SOL    HW171091  13.481  13.954   6.375
56398SOL    HW271092  13.617  13.978   6.438
56399SOL     OW71093   0.052   7.136   6.837
56399SOL    HW171094   0.110   7.087   6.779
56399SOL    HW271095   0.052   7.225   6.802
56400SOL     OW71096   7.988   7.733   0.862
56400SOL    HW171097   8.052   7.805   0.863
56400SOL    HW271098   7.936   7.749   0.783
56401SOL     OW71099   0.569   9.376   3.718
56401SOL    HW171100   0.622   9.443   3.675
56401SOL    HW271101   0.610   9.364   3.804
56402SOL     OW71102   2.465   6.005  10.434
56402SOL    HW171103   2.445   6.053  10.353
56402SOL    HW271104   2.404   6.040  10.498
56403SOL     OW71105   2.675   0.199   9.627
56403SOL    HW171106   2.716   0.150   9.698
56403SOL    HW271107   2.713   0.163   9.547
56404SOL     OW71108  13.406   7.477   1.118
56404SOL    HW171109  13.454   7.432   1.187
56404SOL    HW271110  13.462   7.470   1.040
56405SOL     OW71111  13.780   7.082   7.647
56405SOL    HW171112  13.818   7.039   7.571
56405SOL    HW271113  13.689   7.053   7.649
56406SOL     OW71114  13.861   0.603   9.703
56406SOL    HW171115  13.893   0.597   9.612
56406SOL    HW271116  13.913   0.538   9.750
56407SOL     OW71117  14.752   6.105   5.801
56407SOL    HW171118  14.810   6.048   5.851
56407SOL    HW271119  14.671   6.108   5.852
56408SOL     OW71120   8.985   1.039   9.034
56408SOL    HW171121   8.984   0.955   9.080
56408SOL    HW271122   8.893   1.057   9.014
56409SOL     OW71123  11.366   8.671   1.480
56409SOL    HW171124  11.377   8.612   1.555
56409SOL    HW271125  11.448   8.662   1.431
56410SOL     OW71126   0.807  11.789   5.608
56410SOL    HW171127   0.856  11.819   5.684
56410SOL    HW271128   0.781  11.869   5.562
56411SOL     OW71129  14.575  13.068   1.411
56411SOL    HW171130  14.529  13.011   1.349
56411SOL    HW271131  14.537  13.155   1.396
56412SOL     OW71132   3.554   0.842  12.720
56412SOL    HW171133   3.482   0.796  12.675
56412SOL    HW271134   3.600   0.889  12.651
56413SOL     OW71135  10.110   0.094   3.206
56413SOL    HW171136  10.084   0.006   3.179
56413SOL    HW271137  10.083   0.100   3.298
56414SOL     OW71138   2.100   3.050   0.739
56414SOL    HW171139   2.182   3.059   0.788
56414SOL    HW271140   2.060   2.970   0.773
56415SOL     OW71141  14.502   8.642   1.392
56415SOL    HW171142  14.554   8.717   1.362
56415SOL    HW271143  14.567   8.578   1.421
56416SOL     OW71144   9.009   4.971   6.487
56416SOL    HW171145   9.040   5.058   6.514
56416SOL    HW271146   8.916   4.970   6.511
56417SOL     OW71147   1.313  14.813   3.979
56417SOL    HW171148   1.300  14.721   3.999
56417SOL    HW271149   1.396  14.816   3.932
56418SOL     OW71150   9.137   6.045   2.459
56418SOL    HW171151   9.055   6.007   2.427
56418SOL    HW271152   9.110   6.123   2.507
56419SOL     OW71153   3.678   1.126   8.867
56419SOL    HW171154   3.678   1.040   8.910
56419SOL    HW271155   3.627   1.112   8.787
56420SOL     OW71156   6.252   4.883  11.208
56420SOL    HW171157   6.186   4.821  11.176
56420SOL    HW271158   6.265   4.859  11.300
56421SOL     OW71159   2.159   6.667   9.121
56421SOL    HW171160   2.073   6.626   9.123
56421SOL    HW271161   2.153   6.732   9.051
56422SOL     OW71162   6.950   8.209  12.083
56422SOL    HW171163   6.880   8.221  12.147
56422SOL    HW271164   6.947   8.287  12.028
56423SOL     OW71165  11.285   0.386   0.438
56423SOL    HW171166  11.334   0.371   0.357
56423SOL    HW271167  11.256   0.477   0.432
56424SOL     OW71168  11.626   7.796   2.482
56424SOL    HW171169  11.546   7.760   2.521
56424SOL    HW271170  11.690   7.726   2.490
56425SOL     OW71171   9.245   7.281   9.638
56425SOL    HW171172   9.161   7.325   9.646
56425SOL    HW271173   9.310   7.351   9.635
56426SOL     OW71174   5.190   3.573  12.104
56426SOL    HW171175   5.265   3.556  12.048
56426SOL    HW271176   5.114   3.549  12.051
56427SOL     OW71177   0.113   4.692  13.416
56427SOL    HW171178   0.035   4.737  13.449
56427SOL    HW271179   0.137   4.631  13.486
56428SOL     OW71180   4.268   6.852   6.700
56428SOL    HW171181   4.267   6.782   6.634
56428SOL    HW271182   4.359   6.859   6.727
56429SOL     OW71183   4.873   7.354  13.704
56429SOL    HW171184   4.787   7.319  13.727
56429SOL    HW271185   4.864   7.449  13.712
56430SOL     OW71186   1.021  12.150  11.090
56430SOL    HW171187   1.116  12.147  11.093
56430SOL    HW271188   1.001  12.202  11.012
56431SOL     OW71189   6.420   2.694   1.504
56431SOL    HW171190   6.329   2.665   1.495
56431SOL    HW271191   6.470   2.612   1.505
56432SOL     OW71192  14.764   7.090   6.442
56432SOL    HW171193  14.695   7.116   6.382
56432SOL    HW271194  14.820   7.167   6.450
56433SOL     OW71195  12.216   3.942  14.491
56433SOL    HW171196  12.233   4.030  14.458
56433SOL    HW271197  12.169   3.899  14.419
56434SOL     OW71198   5.817  11.263   1.751
56434SOL    HW171199   5.801  11.176   1.787
56434SOL    HW271200   5.818  11.250   1.656
56435SOL     OW71201   6.749   8.209  13.603
56435SOL    HW171202   6.784   8.203  13.692
56435SOL    HW271203   6.684   8.139  13.598
56436SOL     OW71204  13.247   0.361   4.776
56436SOL    HW171205  13.309   0.299   4.738
56436SOL    HW271206  13.202   0.398   4.701
56437SOL     OW71207   5.014   5.430   6.678
56437SOL    HW171208   4.968   5.488   6.738
56437SOL    HW271209   4.974   5.344   6.694
56438SOL     OW71210   5.311   6.614   5.857
56438SOL    HW171211   5.285   6.650   5.772
56438SOL    HW271212   5.355   6.532   5.837
56439SOL     OW71213   4.997   9.309   0.831
56439SOL    HW171214   5.053   9.277   0.760
56439SOL    HW271215   5.032   9.396   0.852
56440SOL     OW71216  11.031   3.432   7.466
56440SOL    HW171217  11.070   3.447   7.380
56440SOL    HW271218  10.937   3.425   7.450
56441SOL     OW71219   4.417  11.822  10.570
56441SOL    HW171220   4.399  11.750  10.630
56441SOL    HW271221   4.511  11.836  10.576
56442SOL     OW71222   8.293   5.736  14.510
56442SOL    HW171223   8.221   5.714  14.569
56442SOL    HW271224   8.250   5.779  14.435
56443SOL     OW71225   2.476   8.391   4.880
56443SOL    HW171226   2.385   8.401   4.909
56443SOL    HW271227   2.474   8.316   4.821
56444SOL     OW71228   4.741   2.850   7.103
56444SOL    HW171229   4.832   2.867   7.128
56444SOL    HW271230   4.689   2.897   7.168
56445SOL     OW71231   0.125   9.527   4.410
56445SOL    HW171232   0.156   9.505   4.498
56445SOL    HW271233   0.059   9.460   4.391
56446SOL     OW71234  12.029   4.363   3.194
56446SOL    HW171235  11.940   4.330   3.191
56446SOL    HW271236  12.076   4.302   3.250
56447SOL     OW71237   2.320  11.566  14.052
56447SOL    HW171238   2.294  11.501  13.987
56447SOL    HW271239   2.320  11.519  14.135
56448SOL     OW71240  11.870  12.682   6.176
56448SOL    HW171241  11.884  12.613   6.240
56448SOL    HW271242  11.937  12.748   6.196
56449SOL     OW71243  11.847   7.275   4.512
56449SOL    HW171244  11.942   7.266   4.521
56449SOL    HW271245  11.822   7.203   4.454
56450SOL     OW71246   5.049  14.822  11.446
56450SOL    HW171247   4.965  14.802  11.487
56450SOL    HW271248   5.037  14.798  11.354
56451SOL     OW71249   5.858   9.095  12.140
56451SOL    HW171250   5.763   9.087  12.126
56451SOL    HW271251   5.874   9.044  12.219
56452SOL     OW71252   4.620   5.222   6.171
56452SOL    HW171253   4.550   5.282   6.146
56452SOL    HW271254   4.698   5.258   6.129
56453SOL     OW71255   9.978   1.107   8.782
56453SOL    HW171256   9.994   1.025   8.737
56453SOL    HW271257   9.918   1.155   8.724
56454SOL     OW71258   8.932   0.614   2.901
56454SOL    HW171259   8.984   0.567   2.837
56454SOL    HW271260   8.855   0.643   2.853
56455SOL     OW71261   4.887   7.888  11.733
56455SOL    HW171262   4.897   7.977  11.766
56455SOL    HW271263   4.819   7.850  11.788
56456SOL     OW71264   7.469   2.566  13.991
56456SOL    HW171265   7.533   2.637  13.984
56456SOL    HW271266   7.511   2.503  14.049
56457SOL     OW71267  11.968  10.353  14.635
56457SOL    HW171268  11.905  10.312  14.575
56457SOL    HW271269  11.934  10.333  14.722
56458SOL     OW71270  12.998   0.012  13.930
56458SOL    HW171271  13.016   0.054  13.846
56458SOL    HW271272  12.952   0.079  13.982
56459SOL     OW71273  11.502   2.114   8.646
56459SOL    HW171274  11.538   2.176   8.583
56459SOL    HW271275  11.425   2.078   8.603
56460SOL     OW71276  14.524   0.034   9.182
56460SOL    HW171277  14.615   0.019   9.155
56460SOL    HW271278  14.472   0.002   9.108
56461SOL     OW71279   9.941   6.727  10.175
56461SOL    HW171280   9.897   6.811  10.186
56461SOL    HW271281   9.882   6.676  10.120
56462SOL     OW71282  12.607  14.407   2.727
56462SOL    HW171283  12.521  14.444   2.746
56462SOL    HW271284  12.615  14.333   2.787
56463SOL     OW71285  14.125   8.396  11.841
56463SOL    HW171286  14.216   8.420  11.860
56463SOL    HW271287  14.096   8.346  11.917
56464SOL     OW71288  11.388   9.882  10.102
56464SOL    HW171289  11.466   9.868  10.048
56464SOL    HW271290  11.396   9.972  10.134
56465SOL     OW71291   7.073   3.680   2.135
56465SOL    HW171292   7.059   3.763   2.181
56465SOL    HW271293   7.114   3.704   2.053
56466SOL     OW71294   0.877   4.832   4.746
56466SOL    HW171295   0.957   4.810   4.793
56466SOL    HW271296   0.822   4.875   4.811
56467SOL     OW71297  11.336  11.777   8.020
56467SOL    HW171298  11.272  11.715   8.052
56467SOL    HW271299  11.298  11.811   7.939
56468SOL     OW71300   4.685   4.114   3.758
56468SOL    HW171301   4.603   4.163   3.771
56468SOL    HW271302   4.742   4.145   3.829
56469SOL     OW71303   0.446   0.046  12.106
56469SOL    HW171304   0.487  14.860  12.041
56469SOL    HW271305   0.461   0.002  12.190
56470SOL     OW71306   3.647   4.434  11.966
56470SOL    HW171307   3.730   4.449  12.012
56470SOL    HW271308   3.596   4.379  12.026
56471SOL     OW71309   7.656   1.279   7.082
56471SOL    HW171310   7.574   1.258   7.125
56471SOL    HW271311   7.660   1.375   7.083
56472SOL     OW71312   3.017  14.498   1.397
56472SOL    HW171313   3.022  14.411   1.357
56472SOL    HW271314   3.032  14.559   1.325
56473SOL     OW71315   2.491  11.597  12.533
56473SOL    HW171316   2.549  11.584  12.608
56473SOL    HW271317   2.488  11.512  12.490
56474SOL     OW71318   6.371   0.295  12.634
56474SOL    HW171319   6.441   0.249  12.588
56474SOL    HW271320   6.410   0.320  12.718
56475SOL     OW71321   5.690   8.771   2.982
56475SOL    HW171322   5.694   8.865   3.001
56475SOL    HW271323   5.766   8.734   3.026
56476SOL     OW71324  13.401   3.459   3.380
56476SOL    HW171325  13.397   3.471   3.286
56476SOL    HW271326  13.448   3.535   3.413
56477SOL     OW71327  14.795  10.869   4.155
56477SOL    HW171328  14.782  10.783   4.115
56477SOL    HW271329   0.003  10.904   4.111
56478SOL     OW71330  10.807  14.076   0.339
56478SOL    HW171331  10.764  14.158   0.363
56478SOL    HW271332  10.811  14.026   0.421
56479SOL     OW71333  13.359   3.798  12.047
56479SOL    HW171334  13.296   3.732  12.075
56479SOL    HW271335  13.443   3.752  12.045
56480SOL     OW71336  14.798   7.689  14.465
56480SOL    HW171337  14.842   7.611  14.431
56480SOL    HW271338  14.729   7.656  14.522
56481SOL     OW71339   1.522  14.386   1.616
56481SOL    HW171340   1.554  14.475   1.635
56481SOL    HW271341   1.445  14.377   1.671
56482SOL     OW71342  12.468  10.708   1.770
56482SOL    HW171343  12.561  10.731   1.770
56482SOL    HW271344  12.464  10.626   1.720
56483SOL     OW71345  10.029   8.072   3.834
56483SOL    HW171346  10.099   8.097   3.894
56483SOL    HW271347   9.986   8.155   3.811
56484SOL     OW71348  12.081   3.195   0.868
56484SOL    HW171349  12.062   3.166   0.779
56484SOL    HW271350  12.031   3.136   0.924
56485SOL     OW71351   6.124  13.922  11.286
56485SOL    HW171352   6.044  13.962  11.254
56485SOL    HW271353   6.141  13.966  11.370
56486SOL     OW71354   4.717   7.410  14.542
56486SOL    HW171355   4.741   7.349  14.612
56486SOL    HW271356   4.798   7.457  14.523
56487SOL     OW71357   0.259  14.127  11.704
56487SOL    HW171358   0.226  14.214  11.680
56487SOL    HW271359   0.187  14.068  11.684
56488SOL     OW71360   6.667   2.927   8.451
56488SOL    HW171361   6.625   2.969   8.376
56488SOL    HW271362   6.705   2.847   8.415
56489SOL     OW71363   0.886   9.949  10.025
56489SOL    HW171364   0.877   9.893   9.947
56489SOL    HW271365   0.948   9.903  10.081
56490SOL     OW71366   3.812  14.499  13.142
56490SOL    HW171367   3.753  14.431  13.109
56490SOL    HW271368   3.755  14.572  13.164
56491SOL     OW71369  11.628   2.843   8.901
56491SOL    HW171370  11.666   2.861   8.815
56491SOL    HW271371  11.689   2.782   8.941
56492SOL     OW71372   0.581  14.518   1.095
56492SOL    HW171373   0.518  14.452   1.122
56492SOL    HW271374   0.545  14.555   1.014
56493SOL     OW71375   9.781   7.900  12.198
56493SOL    HW171376   9.775   7.838  12.126
56493SOL    HW271377   9.826   7.976  12.161
56494SOL     OW71378  10.799   6.010  14.837
56494SOL    HW171379  10.782   6.042   0.056
56494SOL    HW271380  10.734   6.055  14.783
56495SOL     OW71381   8.059  13.566   5.063
56495SOL    HW171382   8.014  13.488   5.095
56495SOL    HW271383   8.101  13.538   4.981
56496SOL     OW71384  12.001  12.705   0.156
56496SOL    HW171385  12.030  12.776   0.214
56496SOL    HW271386  11.933  12.744   0.102
56497SOL     OW71387  12.967   6.843  10.270
56497SOL    HW171388  12.969   6.751  10.298
56497SOL    HW271389  12.959   6.839  10.175
56498SOL     OW71390  10.937  10.523   8.612
56498SOL    HW171391  10.888  10.554   8.536
56498SOL    HW271392  11.029  10.541   8.590
56499SOL     OW71393  14.819   6.260   1.604
56499SOL    HW171394  14.775   6.238   1.522
56499SOL    HW271395   0.003   6.184   1.624
56500SOL     OW71396   7.531  10.560  10.626
56500SOL    HW171397   7.466  10.599  10.568
56500SOL    HW271398   7.610  10.552  10.572
56501SOL     OW71399  12.910   9.760   7.368
56501SOL    HW171400  12.856   9.838   7.377
56501SOL    HW271401  12.946   9.766   7.279
56502SOL     OW71402   2.149  13.616   1.184
56502SOL    HW171403   2.182  13.608   1.094
56502SOL    HW271404   2.118  13.706   1.191
56503SOL     OW71405   4.832   8.358   1.925
56503SOL    HW171406   4.760   8.297   1.940
56503SOL    HW271407   4.789   8.442   1.907
56504SOL     OW71408   5.276   6.508   0.788
56504SOL    HW171409   5.229   6.455   0.853
56504SOL    HW271410   5.280   6.453   0.710
56505SOL     OW71411   3.368   7.759  14.551
56505SOL    HW171412   3.421   7.828  14.510
56505SOL    HW271413   3.329   7.801  14.627
56506SOL     OW71414  10.840   7.110   7.597
56506SOL    HW171415  10.897   7.073   7.664
56506SOL    HW271416  10.752   7.104   7.634
56507SOL     OW71417   7.292   9.979  10.783
56507SOL    HW171418   7.220  10.041  10.792
56507SOL    HW271419   7.252   9.901  10.745
56508SOL     OW71420   2.498  14.712  13.194
56508SOL    HW171421   2.423  14.665  13.155
56508SOL    HW271422   2.544  14.646  13.245
56509SOL     OW71423   4.142  10.696   9.231
56509SOL    HW171424   4.057  10.700   9.188
56509SOL    HW271425   4.173  10.787   9.229
56510SOL     OW71426   5.852   4.815  12.805
56510SOL    HW171427   5.782   4.837  12.866
56510SOL    HW271428   5.830   4.861  12.725
56511SOL     OW71429   7.748   2.616  12.379
56511SOL    HW171430   7.788   2.546  12.429
56511SOL    HW271431   7.792   2.614  12.294
56512SOL     OW71432  11.998   3.586   8.692
56512SOL    HW171433  11.956   3.500   8.697
56512SOL    HW271434  11.986   3.613   8.600
56513SOL     OW71435   9.301   6.882   2.648
56513SOL    HW171436   9.207   6.861   2.643
56513SOL    HW271437   9.335   6.864   2.560
56514SOL     OW71438  14.118   3.114   2.508
56514SOL    HW171439  14.162   3.079   2.431
56514SOL    HW271440  14.178   3.095   2.580
56515SOL     OW71441   3.888  11.658   4.519
56515SOL    HW171442   3.956  11.726   4.518
56515SOL    HW271443   3.806  11.706   4.532
56516SOL     OW71444   8.827  10.752   1.584
56516SOL    HW171445   8.732  10.747   1.587
56516SOL    HW271446   8.848  10.838   1.622
56517SOL     OW71447   8.515   2.701  12.426
56517SOL    HW171448   8.528   2.685  12.332
56517SOL    HW271449   8.601   2.727  12.459
56518SOL     OW71450   0.421  12.760   4.853
56518SOL    HW171451   0.515  12.750   4.868
56518SOL    HW271452   0.408  12.853   4.840
56519SOL     OW71453   2.478   6.451  11.457
56519SOL    HW171454   2.516   6.450  11.370
56519SOL    HW271455   2.387   6.422  11.445
56520SOL     OW71456   0.861   2.804  10.154
56520SOL    HW171457   0.903   2.860  10.218
56520SOL    HW271458   0.847   2.721  10.199
56521SOL     OW71459   0.157   9.019   8.121
56521SOL    HW171460   0.151   9.025   8.025
56521SOL    HW271461   0.234   9.072   8.143
56522SOL     OW71462  14.132   5.693   7.575
56522SOL    HW171463  14.070   5.700   7.647
56522SOL    HW271464  14.129   5.779   7.533
56523SOL     OW71465   7.015  10.377  13.216
56523SOL    HW171466   7.072  10.302  13.199
56523SOL    HW271467   6.995  10.371  13.310
56524SOL     OW71468   7.155   3.906  12.424
56524SOL    HW171469   7.211   3.828  12.423
56524SOL    HW271470   7.177   3.952  12.344
56525SOL     OW71471  14.144   5.081  10.052
56525SOL    HW171472  14.078   5.055  10.116
56525SOL    HW271473  14.122   5.172  10.030
56526SOL     OW71474  11.876   3.462   1.829
56526SOL    HW171475  11.890   3.369   1.809
56526SOL    HW271476  11.946   3.484   1.891
56527SOL     OW71477   3.600   2.934   7.396
56527SOL    HW171478   3.667   2.866   7.409
56527SOL    HW271479   3.604   2.953   7.302
56528SOL     OW71480  13.123   1.099   1.317
56528SOL    HW171481  13.130   1.168   1.251
56528SOL    HW271482  13.185   1.124   1.386
56529SOL     OW71483  11.904   7.621   0.429
56529SOL    HW171484  11.966   7.590   0.496
56529SOL    HW271485  11.872   7.705   0.462
56530SOL     OW71486  10.594  11.730   4.343
56530SOL    HW171487  10.560  11.764   4.426
56530SOL    HW271488  10.649  11.800   4.309
56531SOL     OW71489  10.583   2.313   3.298
56531SOL    HW171490  10.538   2.379   3.246
56531SOL    HW271491  10.573   2.232   3.248
56532SOL     OW71492   7.719   8.268   4.992
56532SOL    HW171493   7.653   8.335   5.012
56532SOL    HW271494   7.668   8.189   4.972
56533SOL     OW71495  10.585   1.819   5.559
56533SOL    HW171496  10.607   1.897   5.509
56533SOL    HW271497  10.610   1.840   5.649
56534SOL     OW71498  10.896  14.211   4.783
56534SOL    HW171499  10.918  14.171   4.868
56534SOL    HW271500  10.976  14.257   4.757
56535SOL     OW71501   5.057   1.245  13.294
56535SOL    HW171502   5.153   1.239  13.293
56535SOL    HW271503   5.028   1.172  13.241
56536SOL     OW71504  12.544   9.531   0.688
56536SOL    HW171505  12.542   9.492   0.775
56536SOL    HW271506  12.461   9.578   0.680
56537SOL     OW71507  12.174   7.517  12.258
56537SOL    HW171508  12.187   7.423  12.269
56537SOL    HW271509  12.149   7.527  12.166
56538SOL     OW71510   8.522   6.022   7.638
56538SOL    HW171511   8.594   5.976   7.680
56538SOL    HW271512   8.560   6.057   7.557
56539SOL     OW71513  10.848   0.644   2.034
56539SOL    HW171514  10.777   0.695   2.073
56539SOL    HW271515  10.809   0.603   1.958
56540SOL     OW71516  12.912   1.302   0.410
56540SOL    HW171517  12.979   1.365   0.386
56540SOL    HW271518  12.857   1.294   0.332
56541SOL     OW71519   7.807   7.712  14.236
56541SOL    HW171520   7.743   7.658  14.284
56541SOL    HW271521   7.892   7.681  14.267
56542SOL     OW71522  14.251  11.763   0.647
56542SOL    HW171523  14.310  11.705   0.598
56542SOL    HW271524  14.265  11.739   0.738
56543SOL     OW71525   4.003   6.298   4.374
56543SOL    HW171526   3.922   6.340   4.403
56543SOL    HW271527   4.065   6.370   4.362
56544SOL     OW71528  12.757   6.755   8.764
56544SOL    HW171529  12.835   6.728   8.717
56544SOL    HW271530  12.759   6.851   8.760
56545SOL     OW71531  10.766  11.671   5.151
56545SOL    HW171532  10.780  11.598   5.091
56545SOL    HW271533  10.687  11.715   5.119
56546SOL     OW71534   7.762   1.368   1.862
56546SOL    HW171535   7.742   1.285   1.905
56546SOL    HW271536   7.771   1.345   1.769
56547SOL     OW71537  12.748   7.197  12.271
56547SOL    HW171538  12.719   7.267  12.329
56547SOL    HW271539  12.719   7.224  12.184
56548SOL     OW71540   4.948   4.942  10.102
56548SOL    HW171541   4.997   4.860  10.092
56548SOL    HW271542   4.873   4.933  10.043
56549SOL     OW71543   8.112   6.808  11.681
56549SOL    HW171544   8.052   6.881  11.668
56549SOL    HW271545   8.074   6.757  11.753
56550SOL     OW71546   4.205   4.040   8.332
56550SOL    HW171547   4.147   4.075   8.399
56550SOL    HW271548   4.146   4.015   8.260
56551SOL     OW71549  11.896   1.452   4.298
56551SOL    HW171550  11.905   1.441   4.393
56551SOL    HW271551  11.814   1.407   4.277
56552SOL     OW71552   2.223   9.344   0.011
56552SOL    HW171553   2.218   9.429   0.055
56552SOL    HW271554   2.134   9.328  14.849
56553SOL     OW71555  12.434   7.056   4.774
56553SOL    HW171556  12.430   7.002   4.853
56553SOL    HW271557  12.524   7.046   4.743
56554SOL     OW71558  14.646   0.034  10.862
56554SOL    HW171559  14.567  14.851  10.870
56554SOL    HW271560  14.664   0.065  10.951
56555SOL     OW71561  14.790   9.598  11.720
56555SOL    HW171562  14.772   9.505  11.711
56555SOL    HW271563   0.004   9.611  11.675
56556SOL     OW71564   6.456   9.230  12.123
56556SOL    HW171565   6.411   9.266  12.046
56556SOL    HW271566   6.546   9.262  12.114
56557SOL     OW71567   5.864  11.542   1.756
56557SOL    HW171568   5.951  11.522   1.720
56557SOL    HW271569   5.818  11.458   1.753
56558SOL     OW71570  11.183   9.852   4.943
56558SOL    HW171571  11.111   9.835   4.881
56558SOL    HW271572  11.145   9.835   5.029
56559SOL     OW71573   6.447  12.733   1.732
56559SOL    HW171574   6.461  12.727   1.826
56559SOL    HW271575   6.369  12.788   1.723
56560SOL     OW71576   3.144  14.397   1.042
56560SOL    HW171577   3.225  14.404   1.092
56560SOL    HW271578   3.174  14.379   0.952
56561SOL     OW71579  12.076  11.511   0.311
56561SOL    HW171580  12.028  11.552   0.383
56561SOL    HW271581  12.135  11.449   0.354
56562SOL     OW71582  14.551  14.007  11.498
56562SOL    HW171583  14.558  14.097  11.465
56562SOL    HW271584  14.625  13.997  11.558
56563SOL     OW71585   1.116   8.731   4.671
56563SOL    HW171586   1.162   8.815   4.670
56563SOL    HW271587   1.023   8.755   4.673
56564SOL     OW71588   8.482  13.429   5.360
56564SOL    HW171589   8.560  13.430   5.304
56564SOL    HW271590   8.517  13.423   5.449
56565SOL     OW71591   2.170  12.115  10.082
56565SOL    HW171592   2.255  12.153  10.103
56565SOL    HW271593   2.107  12.180  10.110
56566SOL     OW71594   1.736   1.457  13.334
56566SOL    HW171595   1.702   1.393  13.271
56566SOL    HW271596   1.702   1.427  13.418
56567SOL     OW71597   3.509  11.263  13.819
56567SOL    HW171598   3.552  11.181  13.796
56567SOL    HW271599   3.462  11.289  13.740
56568SOL     OW71600   5.935   3.050   0.958
56568SOL    HW171601   5.860   3.103   0.931
56568SOL    HW271602   5.985   3.037   0.878
56569SOL     OW71603   6.201   7.842  14.665
56569SOL    HW171604   6.132   7.779  14.687
56569SOL    HW271605   6.161   7.928  14.680
56570SOL     OW71606  11.615   8.922   7.096
56570SOL    HW171607  11.612   8.866   7.174
56570SOL    HW271608  11.548   8.885   7.038
56571SOL     OW71609  11.154   0.003  12.186
56571SOL    HW171610  11.221  14.829  12.134
56571SOL    HW271611  11.079   0.012  12.126
56572SOL     OW71612  13.363  14.538   8.956
56572SOL    HW171613  13.302  14.611   8.970
56572SOL    HW271614  13.427  14.547   9.027
56573SOL     OW71615   5.128   2.102   8.963
56573SOL    HW171616   5.076   2.090   8.884
56573SOL    HW271617   5.083   2.173   9.010
56574SOL     OW71618   7.879  14.076   8.687
56574SOL    HW171619   7.873  13.996   8.634
56574SOL    HW271620   7.792  14.086   8.725
56575SOL     OW71621  12.875   5.513   3.323
56575SOL    HW171622  12.814   5.569   3.370
56575SOL    HW271623  12.847   5.520   3.231
56576SOL     OW71624  13.379   7.708   9.656
56576SOL    HW171625  13.306   7.646   9.660
56576SOL    HW271626  13.439   7.670   9.592
56577SOL     OW71627  10.734   8.882   9.262
56577SOL    HW171628  10.756   8.974   9.245
56577SOL    HW271629  10.726   8.843   9.175
56578SOL     OW71630   2.183   7.488   3.925
56578SOL    HW171631   2.266   7.465   3.884
56578SOL    HW271632   2.128   7.410   3.914
56579SOL     OW71633  12.397   2.617  14.167
56579SOL    HW171634  12.479   2.660  14.142
56579SOL    HW271635  12.329   2.683  14.153
56580SOL     OW71636   2.773   7.258   8.780
56580SOL    HW171637   2.756   7.182   8.725
56580SOL    HW271638   2.835   7.311   8.730
56581SOL     OW71639   8.723  13.326   9.485
56581SOL    HW171640   8.777  13.256   9.521
56581SOL    HW271641   8.697  13.378   9.562
56582SOL     OW71642  12.613   5.231  13.441
56582SOL    HW171643  12.562   5.217  13.521
56582SOL    HW271644  12.556   5.281  13.384
56583SOL     OW71645   0.476   6.326  13.647
56583SOL    HW171646   0.501   6.393  13.584
56583SOL    HW271647   0.555   6.274  13.659
56584SOL     OW71648   2.997   0.663   2.934
56584SOL    HW171649   2.969   0.662   2.843
56584SOL    HW271650   3.092   0.651   2.930
56585SOL     OW71651   7.366  13.872   6.013
56585SOL    HW171652   7.388  13.879   5.920
56585SOL    HW271653   7.299  13.804   6.017
56586SOL     OW71654  10.185   0.226   7.945
56586SOL    HW171655  10.280   0.229   7.947
56586SOL    HW271656  10.158   0.315   7.965
56587SOL     OW71657  10.489   0.110   1.233
56587SOL    HW171658  10.423   0.179   1.244
56587SOL    HW271659  10.567   0.156   1.202
56588SOL     OW71660  14.339   2.968  14.644
56588SOL    HW171661  14.402   2.920  14.697
56588SOL    HW271662  14.268   2.990  14.704
56589SOL     OW71663  13.334   3.181   0.645
56589SOL    HW171664  13.362   3.232   0.721
56589SOL    HW271665  13.392   3.208   0.575
56590SOL     OW71666   1.986   1.792   1.768
56590SOL    HW171667   1.928   1.732   1.816
56590SOL    HW271668   2.018   1.852   1.834
56591SOL     OW71669   4.084  10.920   7.067
56591SOL    HW171670   4.171  10.941   7.100
56591SOL    HW271671   4.029  10.993   7.095
56592SOL     OW71672   0.947   4.508  12.881
56592SOL    HW171673   0.879   4.448  12.850
56592SOL    HW271674   1.013   4.509  12.812
56593SOL     OW71675   0.231  12.865   0.774
56593SOL    HW171676   0.175  12.859   0.696
56593SOL    HW271677   0.169  12.867   0.847
56594SOL     OW71678   9.355   1.894   2.399
56594SOL    HW171679   9.379   1.979   2.435
56594SOL    HW271680   9.437   1.857   2.366
56595SOL     OW71681  11.223  11.141   0.503
56595SOL    HW171682  11.164  11.183   0.566
56595SOL    HW271683  11.166  11.094   0.444
56596SOL     OW71684   4.628  11.804   8.081
56596SOL    HW171685   4.614  11.784   8.173
56596SOL    HW271686   4.565  11.874   8.062
56597SOL     OW71687   3.640  10.990  14.200
56597SOL    HW171688   3.673  10.902  14.185
56597SOL    HW271689   3.575  11.003  14.131
56598SOL     OW71690   2.979  14.035  11.044
56598SOL    HW171691   2.913  13.971  11.019
56598SOL    HW271692   2.946  14.118  11.011
56599SOL     OW71693   9.115   8.261  10.087
56599SOL    HW171694   9.164   8.192  10.043
56599SOL    HW271695   9.030   8.222  10.106
56600SOL     OW71696   2.218   1.822   6.203
56600SOL    HW171697   2.261   1.763   6.264
56600SOL    HW271698   2.272   1.818   6.124
56601SOL     OW71699   6.957   7.502   2.317
56601SOL    HW171700   6.976   7.483   2.226
56601SOL    HW271701   6.899   7.432   2.345
56602SOL     OW71702  14.606  10.381  13.885
56602SOL    HW171703  14.578  10.410  13.972
56602SOL    HW271704  14.547  10.426  13.824
56603SOL     OW71705   8.574   2.387   2.455
56603SOL    HW171706   8.579   2.458   2.519
56603SOL    HW271707   8.521   2.423   2.384
56604SOL     OW71708  13.368   4.359   0.311
56604SOL    HW171709  13.356   4.323   0.223
56604SOL    HW271710  13.412   4.290   0.359
56605SOL     OW71711   3.870   4.287   2.520
56605SOL    HW171712   3.851   4.232   2.444
56605SOL    HW271713   3.920   4.361   2.483
56606SOL     OW71714   3.067  10.498  11.878
56606SOL    HW171715   3.140  10.440  11.900
56606SOL    HW271716   3.044  10.540  11.960
56607SOL     OW71717   2.594   1.264  12.133
56607SOL    HW171718   2.678   1.286  12.093
56607SOL    HW271719   2.589   1.321  12.211
56608SOL     OW71720  13.690  12.482   3.520
56608SOL    HW171721  13.664  12.507   3.431
56608SOL    HW271722  13.736  12.559   3.554
56609SOL     OW71723   6.276  13.919   3.681
56609SOL    HW171724   6.273  13.827   3.706
56609SOL    HW271725   6.185  13.948   3.683
56610SOL     OW71726   4.027  13.014  10.374
56610SOL    HW171727   4.104  13.027  10.319
56610SOL    HW271728   3.956  12.995  10.313
56611SOL     OW71729   2.480   3.355   0.349
56611SOL    HW171730   2.441   3.367   0.436
56611SOL    HW271731   2.443   3.273   0.317
56612SOL     OW71732  13.199  11.453   6.458
56612SOL    HW171733  13.286  11.471   6.422
56612SOL    HW271734  13.147  11.529   6.434
56613SOL     OW71735   1.948   3.806   6.734
56613SOL    HW171736   1.993   3.772   6.811
56613SOL    HW271737   1.940   3.730   6.676
56614SOL     OW71738   1.478   8.779   2.053
56614SOL    HW171739   1.520   8.738   2.129
56614SOL    HW271740   1.457   8.868   2.083
56615SOL     OW71741  14.141   7.573   7.228
56615SOL    HW171742  14.106   7.490   7.260
56615SOL    HW271743  14.213   7.593   7.287
56616SOL     OW71744   0.355  12.307   8.784
56616SOL    HW171745   0.391  12.280   8.868
56616SOL    HW271746   0.388  12.395   8.770
56617SOL     OW71747   3.584   7.575   2.699
56617SOL    HW171748   3.598   7.605   2.789
56617SOL    HW271749   3.643   7.628   2.646
56618SOL     OW71750   8.118   9.941  12.206
56618SOL    HW171751   8.139   9.907  12.293
56618SOL    HW271752   8.023   9.946  12.204
56619SOL     OW71753   0.092   1.363  14.821
56619SOL    HW171754   0.178   1.379  14.859
56619SOL    HW271755   0.093   1.270  14.798
56620SOL     OW71756   6.382   4.562   8.847
56620SOL    HW171757   6.475   4.583   8.856
56620SOL    HW271758   6.380   4.467   8.833
56621SOL     OW71759  13.828  10.755   7.895
56621SOL    HW171760  13.833  10.667   7.858
56621SOL    HW271761  13.750  10.754   7.950
56622SOL     OW71762   2.072  13.981   5.525
56622SOL    HW171763   2.137  14.004   5.592
56622SOL    HW271764   1.996  13.950   5.575
56623SOL     OW71765   2.058   9.722   8.975
56623SOL    HW171766   2.046   9.792   8.910
56623SOL    HW271767   1.983   9.730   9.034
56624SOL     OW71768   5.008   9.642   3.237
56624SOL    HW171769   5.060   9.720   3.254
56624SOL    HW271770   5.071   9.576   3.209
56625SOL     OW71771   9.467   2.843  12.487
56625SOL    HW171772   9.408   2.858  12.561
56625SOL    HW271773   9.408   2.832  12.412
56626SOL     OW71774   8.382  10.488  13.716
56626SOL    HW171775   8.402  10.437  13.638
56626SOL    HW271776   8.432  10.446  13.786
56627SOL     OW71777   8.803  13.086  13.459
56627SOL    HW171778   8.891  13.120  13.439
56627SOL    HW271779   8.753  13.163  13.486
56628SOL     OW71780  14.065   1.822   7.823
56628SOL    HW171781  14.068   1.908   7.864
56628SOL    HW271782  14.038   1.763   7.893
56629SOL     OW71783   8.822   0.694   1.271
56629SOL    HW171784   8.914   0.721   1.264
56629SOL    HW271785   8.773   0.767   1.234
56630SOL     OW71786  14.159   9.369   3.771
56630SOL    HW171787  14.120   9.292   3.813
56630SOL    HW271788  14.226   9.333   3.714
56631SOL     OW71789   8.531   1.589  12.745
56631SOL    HW171790   8.541   1.507  12.697
56631SOL    HW271791   8.464   1.571  12.810
56632SOL     OW71792   4.006  10.124  14.133
56632SOL    HW171793   3.984  10.050  14.189
56632SOL    HW271794   4.029  10.195  14.193
56633SOL     OW71795   4.335   2.819   0.523
56633SOL    HW171796   4.254   2.769   0.530
56633SOL    HW271797   4.308   2.910   0.532
56634SOL     OW71798   9.251   3.604   7.371
56634SOL    HW171799   9.194   3.538   7.410
56634SOL    HW271800   9.204   3.687   7.381
56635SOL     OW71801  14.785  12.054   7.130
56635SOL    HW171802   0.006  12.082   7.137
56635SOL    HW271803  14.784  11.966   7.169
56636SOL     OW71804   1.963   8.564   0.820
56636SOL    HW171805   2.041   8.614   0.845
56636SOL    HW271806   1.956   8.496   0.887
56637SOL     OW71807   1.290   0.319   0.807
56637SOL    HW171808   1.346   0.268   0.866
56637SOL    HW271809   1.215   0.262   0.790
56638SOL     OW71810   3.593   9.114   2.464
56638SOL    HW171811   3.537   9.062   2.406
56638SOL    HW271812   3.537   9.185   2.495
56639SOL     OW71813  11.281   6.068   8.922
56639SOL    HW171814  11.227   6.013   8.866
56639SOL    HW271815  11.326   6.127   8.862
56640SOL     OW71816   0.104  12.378   1.221
56640SOL    HW171817   0.044  12.371   1.147
56640SOL    HW271818   0.114  12.472   1.235
56641SOL     OW71819   7.196   7.036   0.587
56641SOL    HW171820   7.221   6.970   0.523
56641SOL    HW271821   7.101   7.039   0.583
56642SOL     OW71822  12.575  13.686   3.139
56642SOL    HW171823  12.482  13.707   3.153
56642SOL    HW271824  12.584  13.596   3.170
56643SOL     OW71825   7.453   7.248   9.097
56643SOL    HW171826   7.481   7.176   9.041
56643SOL    HW271827   7.473   7.327   9.047
56644SOL     OW71828  14.849   0.936   3.527
56644SOL    HW171829  14.762   0.953   3.492
56644SOL    HW271830  14.850   0.979   3.612
56645SOL     OW71831  10.523   9.444  10.926
56645SOL    HW171832  10.475   9.521  10.957
56645SOL    HW271833  10.457   9.390  10.883
56646SOL     OW71834   4.295  11.344   9.391
56646SOL    HW171835   4.338  11.342   9.305
56646SOL    HW271836   4.206  11.312   9.374
56647SOL     OW71837  11.622  14.390  11.206
56647SOL    HW171838  11.650  14.482  11.205
56647SOL    HW271839  11.673  14.350  11.277
56648SOL     OW71840  13.483  10.471   9.245
56648SOL    HW171841  13.493  10.490   9.152
56648SOL    HW271842  13.482  10.557   9.287
56649SOL     OW71843   5.426   6.239   3.783
56649SOL    HW171844   5.449   6.243   3.876
56649SOL    HW271845   5.403   6.148   3.768
56650SOL     OW71846   4.214   1.877  11.305
56650SOL    HW171847   4.299   1.846  11.336
56650SOL    HW271848   4.169   1.798  11.276
56651SOL     OW71849  10.093   1.295   7.010
56651SOL    HW171850  10.124   1.377   6.971
56651SOL    HW271851  10.122   1.299   7.101
56652SOL     OW71852   1.785   3.836  10.393
56652SOL    HW171853   1.814   3.750  10.423
56652SOL    HW271854   1.764   3.823  10.301
56653SOL     OW71855   8.309   8.229   6.968
56653SOL    HW171856   8.248   8.177   6.916
56653SOL    HW271857   8.383   8.170   6.984
56654SOL     OW71858  10.157   1.569  12.015
56654SOL    HW171859  10.195   1.560  12.102
56654SOL    HW271860  10.113   1.485  11.999
56655SOL     OW71861   0.746   0.561   7.719
56655SOL    HW171862   0.760   0.489   7.781
56655SOL    HW271863   0.747   0.640   7.774
56656SOL     OW71864  11.209  12.592   5.366
56656SOL    HW171865  11.245  12.621   5.283
56656SOL    HW271866  11.198  12.497   5.355
56657SOL     OW71867   0.032   0.094  14.429
56657SOL    HW171868  14.820   0.066  14.470
56657SOL    HW271869   0.065   0.162  14.488
56658SOL     OW71870   0.659   1.215   6.493
56658SOL    HW171871   0.578   1.243   6.535
56658SOL    HW271872   0.697   1.295   6.457
56659SOL     OW71873   1.504   7.773   4.715
56659SOL    HW171874   1.473   7.816   4.795
56659SOL    HW271875   1.432   7.783   4.653
56660SOL     OW71876  13.907  11.754   9.570
56660SOL    HW171877  13.911  11.740   9.476
56660SOL    HW271878  13.814  11.747   9.591
56661SOL     OW71879   6.271   5.851  11.987
56661SOL    HW171880   6.207   5.921  11.972
56661SOL    HW271881   6.342   5.870  11.926
56662SOL     OW71882   2.973   1.726   3.597
56662SOL    HW171883   2.925   1.740   3.515
56662SOL    HW271884   3.064   1.716   3.570
56663SOL     OW71885   2.352  13.750   2.942
56663SOL    HW171886   2.446  13.734   2.935
56663SOL    HW271887   2.326  13.705   3.022
56664SOL     OW71888   5.957   9.956   2.432
56664SOL    HW171889   5.954   9.892   2.361
56664SOL    HW271890   6.046   9.950   2.466
56665SOL     OW71891   9.744   1.340   5.570
56665SOL    HW171892   9.661   1.303   5.599
56665SOL    HW271893   9.724   1.432   5.551
56666SOL     OW71894   0.148   9.884   3.469
56666SOL    HW171895   0.211   9.831   3.421
56666SOL    HW271896   0.129   9.832   3.547
56667SOL     OW71897   8.467   7.189  10.742
56667SOL    HW171898   8.510   7.220  10.662
56667SOL    HW271899   8.518   7.112  10.768
56668SOL     OW71900   4.839  11.048   7.434
56668SOL    HW171901   4.752  11.081   7.456
56668SOL    HW271902   4.847  10.966   7.484
56669SOL     OW71903  12.586  13.211  12.643
56669SOL    HW171904  12.621  13.235  12.557
56669SOL    HW271905  12.623  13.275  12.703
56670SOL     OW71906   0.899   2.851   2.421
56670SOL    HW171907   0.844   2.884   2.351
56670SOL    HW271908   0.920   2.928   2.473
56671SOL     OW71909   0.272  11.068  14.298
56671SOL    HW171910   0.349  11.096  14.249
56671SOL    HW271911   0.256  11.140  14.359
56672SOL     OW71912  11.467   5.522  12.435
56672SOL    HW171913  11.522   5.481  12.501
56672SOL    HW271914  11.510   5.503  12.352
56673SOL     OW71915   2.994  14.571  13.457
56673SOL    HW171916   3.037  14.586  13.372
56673SOL    HW271917   3.036  14.633  13.516
56674SOL     OW71918   7.010   5.416   8.977
56674SOL    HW171919   7.091   5.426   9.026
56674SOL    HW271920   6.941   5.442   9.039
56675SOL     OW71921  12.939   7.856   1.712
56675SOL    HW171922  12.941   7.813   1.798
56675SOL    HW271923  12.883   7.800   1.658
56676SOL     OW71924   5.202   9.835  12.656
56676SOL    HW171925   5.154   9.916  12.637
56676SOL    HW271926   5.235   9.806  12.571
56677SOL     OW71927   3.811  10.024  12.048
56677SOL    HW171928   3.867  10.078  12.103
56677SOL    HW271929   3.723  10.038  12.082
56678SOL     OW71930   2.337   9.258   3.538
56678SOL    HW171931   2.289   9.197   3.594
56678SOL    HW271932   2.429   9.246   3.563
56679SOL     OW71933  12.740   6.507  11.329
56679SOL    HW171934  12.799   6.439  11.361
56679SOL    HW271935  12.663   6.501  11.385
56680SOL     OW71936   1.345  10.295  13.661
56680SOL    HW171937   1.273  10.337  13.708
56680SOL    HW271938   1.424  10.326  13.704
56681SOL     OW71939   5.756  14.141   0.988
56681SOL    HW171940   5.818  14.113   1.055
56681SOL    HW271941   5.808  14.148   0.908
56682SOL     OW71942  11.696   3.743  13.025
56682SOL    HW171943  11.734   3.668  13.071
56682SOL    HW271944  11.742   3.745  12.941
56683SOL     OW71945  12.880   2.853  13.683
56683SOL    HW171946  12.841   2.765  13.689
56683SOL    HW271947  12.831   2.895  13.612
56684SOL     OW71948  12.093   8.102   2.719
56684SOL    HW171949  12.053   8.100   2.806
56684SOL    HW271950  12.037   8.048   2.665
56685SOL     OW71951   9.196   5.714   2.426
56685SOL    HW171952   9.151   5.669   2.498
56685SOL    HW271953   9.242   5.787   2.468
56686SOL     OW71954  11.169   2.406   2.952
56686SOL    HW171955  11.253   2.441   2.923
56686SOL    HW271956  11.161   2.433   3.043
56687SOL     OW71957   0.660   0.287   4.628
56687SOL    HW171958   0.591   0.311   4.567
56687SOL    HW271959   0.741   0.318   4.586
56688SOL     OW71960   7.281   7.046   3.104
56688SOL    HW171961   7.363   7.008   3.072
56688SOL    HW271962   7.292   7.049   3.199
56689SOL     OW71963   7.678  13.539   6.099
56689SOL    HW171964   7.687  13.461   6.153
56689SOL    HW271965   7.584  13.545   6.080
56690SOL     OW71966   9.287   8.753   1.944
56690SOL    HW171967   9.234   8.829   1.970
56690SOL    HW271968   9.308   8.768   1.852
56691SOL     OW71969   9.260   1.892  10.750
56691SOL    HW171970   9.260   1.905  10.655
56691SOL    HW271971   9.278   1.799  10.763
56692SOL     OW71972   1.922   2.475  13.497
56692SOL    HW171973   1.931   2.415  13.423
56692SOL    HW271974   1.830   2.467  13.522
56693SOL     OW71975   8.370  11.472   9.891
56693SOL    HW171976   8.285  11.490   9.931
56693SOL    HW271977   8.359  11.386   9.850
56694SOL     OW71978   7.255  13.023  13.585
56694SOL    HW171979   7.259  13.094  13.648
56694SOL    HW271980   7.342  13.022  13.544
56695SOL     OW71981  11.734   6.002  11.338
56695SOL    HW171982  11.804   5.937  11.327
56695SOL    HW271983  11.674   5.962  11.400
56696SOL     OW71984  10.313   9.873   5.977
56696SOL    HW171985  10.264   9.890   5.897
56696SOL    HW271986  10.253   9.896   6.048
56697SOL     OW71987  13.374   0.739  11.108
56697SOL    HW171988  13.435   0.812  11.093
56697SOL    HW271989  13.295   0.763  11.059
56698SOL     OW71990   0.548   5.266   9.244
56698SOL    HW171991   0.562   5.182   9.200
56698SOL    HW271992   0.478   5.249   9.306
56699SOL     OW71993   2.171   8.673  14.238
56699SOL    HW171994   2.159   8.599  14.298
56699SOL    HW271995   2.092   8.672  14.183
56700SOL     OW71996   1.920  12.147   1.759
56700SOL    HW171997   1.873  12.208   1.701
56700SOL    HW271998   1.850  12.099   1.804
56701SOL     OW71999  12.352  13.443  14.098
56701SOL    HW172000  12.417  13.513  14.098
56701SOL    HW272001  12.376  13.388  14.173
56702SOL     OW72002  10.425   4.358   1.935
56702SOL    HW172003  10.483   4.410   1.879
56702SOL    HW272004  10.376   4.303   1.875
56703SOL     OW72005  10.126   6.629   8.283
56703SOL    HW172006  10.096   6.644   8.194
56703SOL    HW272007  10.153   6.537   8.285
56704SOL     OW72008  11.531  14.703   4.684
56704SOL    HW172009  11.584  14.748   4.750
56704SOL    HW272010  11.575  14.722   4.601
56705SOL     OW72011   0.938   7.465   5.543
56705SOL    HW172012   1.002   7.480   5.613
56705SOL    HW272013   0.981   7.500   5.464
56706SOL     OW72014   2.851  10.675  14.619
56706SOL    HW172015   2.794  10.720  14.682
56706SOL    HW272016   2.931  10.728  14.617
56707SOL     OW72017   3.386   8.501   9.766
56707SOL    HW172018   3.469   8.473   9.805
56707SOL    HW272019   3.324   8.432   9.790
56708SOL     OW72020   3.876   0.933  10.091
56708SOL    HW172021   3.820   0.880  10.035
56708SOL    HW272022   3.953   0.879  10.107
56709SOL     OW72023   6.682   8.241   7.013
56709SOL    HW172024   6.674   8.211   7.104
56709SOL    HW272025   6.749   8.310   7.016
56710SOL     OW72026   9.669   7.182   4.392
56710SOL    HW172027   9.752   7.136   4.382
56710SOL    HW272028   9.674   7.221   4.480
56711SOL     OW72029   0.083   2.418  13.797
56711SOL    HW172030   0.023   2.357  13.839
56711SOL    HW272031   0.169   2.377  13.805
56712SOL     OW72032  13.822   4.083   1.343
56712SOL    HW172033  13.818   4.070   1.248
56712SOL    HW272034  13.840   4.176   1.353
56713SOL     OW72035   0.970   4.715   0.215
56713SOL    HW172036   0.959   4.810   0.230
56713SOL    HW272037   0.888   4.689   0.173
56714SOL     OW72038   2.488   2.154   8.966
56714SOL    HW172039   2.477   2.191   8.879
56714SOL    HW272040   2.405   2.109   8.984
56715SOL     OW72041   2.037  14.390  14.019
56715SOL    HW172042   2.027  14.298  13.995
56715SOL    HW272043   2.088  14.388  14.101
56716SOL     OW72044  14.489   8.615   4.526
56716SOL    HW172045  14.403   8.583   4.554
56716SOL    HW272046  14.490   8.708   4.551
56717SOL     OW72047  10.580   2.038   4.863
56717SOL    HW172048  10.666   1.999   4.844
56717SOL    HW272049  10.591   2.131   4.847
56718SOL     OW72050  11.597  14.391   4.850
56718SOL    HW172051  11.517  14.432   4.818
56718SOL    HW272052  11.590  14.395   4.946
56719SOL     OW72053  12.493   9.664   5.611
56719SOL    HW172054  12.541   9.739   5.575
56719SOL    HW272055  12.435   9.637   5.540
56720SOL     OW72056  11.278   5.578  13.441
56720SOL    HW172057  11.249   5.573  13.533
56720SOL    HW272058  11.253   5.666  13.413
56721SOL     OW72059   3.847   5.115   1.072
56721SOL    HW172060   3.812   5.054   1.137
56721SOL    HW272061   3.942   5.111   1.083
56722SOL     OW72062  14.668  14.494  11.049
56722SOL    HW172063  14.732  14.553  11.089
56722SOL    HW272064  14.608  14.552  11.002
56723SOL     OW72065   0.473   3.803  14.001
56723SOL    HW172066   0.557   3.817  14.045
56723SOL    HW272067   0.408   3.839  14.061
56724SOL     OW72068  14.720   7.749  10.876
56724SOL    HW172069  14.634   7.718  10.901
56724SOL    HW272070  14.707   7.841  10.852
56725SOL     OW72071   3.325   1.506   1.968
56725SOL    HW172072   3.287   1.419   1.955
56725SOL    HW272073   3.295   1.556   1.892
56726SOL     OW72074   2.995  12.076   1.859
56726SOL    HW172075   2.980  12.110   1.948
56726SOL    HW272076   2.915  12.028   1.838
56727SOL     OW72077  14.750   5.094   3.641
56727SOL    HW172078  14.775   5.185   3.623
56727SOL    HW272079  14.721   5.060   3.556
56728SOL     OW72080   8.566   6.817   2.270
56728SOL    HW172081   8.611   6.741   2.307
56728SOL    HW272082   8.494   6.834   2.331
56729SOL     OW72083   1.784  14.264   8.992
56729SOL    HW172084   1.689  14.273   8.997
56729SOL    HW272085   1.798  14.176   8.957
56730SOL     OW72086   9.335   7.099   6.728
56730SOL    HW172087   9.350   7.004   6.728
56730SOL    HW272088   9.340   7.124   6.636
56731SOL     OW72089   3.102  13.125   6.987
56731SOL    HW172090   3.171  13.190   6.982
56731SOL    HW272091   3.110  13.075   6.906
56732SOL     OW72092   1.574   1.260  14.210
56732SOL    HW172093   1.642   1.195  14.194
56732SOL    HW272094   1.563   1.261  14.305
56733SOL     OW72095  13.761   4.041  13.008
56733SOL    HW172096  13.806   4.082  12.935
56733SOL    HW272097  13.693   4.104  13.032
56734SOL     OW72098   3.604  11.614   9.151
56734SOL    HW172099   3.508  11.615   9.151
56734SOL    HW272100   3.628  11.672   9.223
56735SOL     OW72101  12.271   3.991   9.638
56735SOL    HW172102  12.328   3.949   9.574
56735SOL    HW272103  12.195   3.934   9.643
56736SOL     OW72104  11.112   9.457  11.195
56736SOL    HW172105  11.121   9.552  11.200
56736SOL    HW272106  11.201   9.425  11.178
56737SOL     OW72107   7.074  12.412  14.335
56737SOL    HW172108   7.009  12.393  14.402
56737SOL    HW272109   7.045  12.363  14.258
56738SOL     OW72110   3.716   3.221  12.936
56738SOL    HW172111   3.778   3.284  12.899
56738SOL    HW272112   3.702   3.251  13.026
56739SOL     OW72113   5.512  10.709   5.769
56739SOL    HW172114   5.520  10.631   5.825
56739SOL    HW272115   5.426  10.701   5.729
56740SOL     OW72116   3.284  11.309   5.812
56740SOL    HW172117   3.301  11.361   5.734
56740SOL    HW272118   3.335  11.229   5.800
56741SOL     OW72119  12.036   1.728  14.315
56741SOL    HW172120  12.022   1.683  14.399
56741SOL    HW272121  11.955   1.775  14.299
56742SOL     OW72122  12.719   8.645   8.484
56742SOL    HW172123  12.768   8.644   8.567
56742SOL    HW272124  12.642   8.590   8.501
56743SOL     OW72125   4.839   2.682   0.135
56743SOL    HW172126   4.826   2.709   0.044
56743SOL    HW272127   4.786   2.743   0.186
56744SOL     OW72128  13.504   6.250   5.059
56744SOL    HW172129  13.475   6.221   4.973
56744SOL    HW272130  13.548   6.333   5.043
56745SOL     OW72131  12.492  11.441  12.841
56745SOL    HW172132  12.535  11.458  12.925
56745SOL    HW272133  12.546  11.488  12.777
56746SOL     OW72134   3.433   9.024   5.362
56746SOL    HW172135   3.446   8.933   5.388
56746SOL    HW272136   3.421   9.021   5.267
56747SOL     OW72137  12.044  14.672  13.240
56747SOL    HW172138  12.104  14.735  13.200
56747SOL    HW272139  12.011  14.621  13.167
56748SOL     OW72140   1.646   0.144   9.134
56748SOL    HW172141   1.604   0.109   9.213
56748SOL    HW272142   1.727   0.093   9.126
56749SOL     OW72143   6.657   4.959   2.113
56749SOL    HW172144   6.649   4.908   2.033
56749SOL    HW272145   6.718   4.909   2.168
56750SOL     OW72146   9.186   5.597   7.382
56750SOL    HW172147   9.189   5.624   7.290
56750SOL    HW272148   9.093   5.592   7.403
56751SOL     OW72149  11.916   5.863  13.627
56751SOL    HW172150  11.840   5.895  13.675
56751SOL    HW272151  11.989   5.871  13.688
56752SOL     OW72152   8.076  14.146   9.265
56752SOL    HW172153   8.006  14.134   9.201
56752SOL    HW272154   8.039  14.117   9.348
56753SOL     OW72155  14.764  13.103   7.895
56753SOL    HW172156  14.730  13.049   7.966
56753SOL    HW272157  14.722  13.189   7.908
56754SOL     OW72158  10.769   4.244   7.533
56754SOL    HW172159  10.840   4.225   7.594
56754SOL    HW272160  10.696   4.189   7.563
56755SOL     OW72161   4.157   5.788   8.979
56755SOL    HW172162   4.082   5.845   8.996
56755SOL    HW272163   4.125   5.723   8.917
56756SOL     OW72164  11.546  13.803   0.972
56756SOL    HW172165  11.565  13.882   0.921
56756SOL    HW272166  11.606  13.807   1.047
56757SOL     OW72167   5.022  12.805   3.333
56757SOL    HW172168   5.073  12.831   3.410
56757SOL    HW272169   4.939  12.852   3.342
56758SOL     OW72170   9.022  12.221   4.632
56758SOL    HW172171   8.949  12.168   4.599
56758SOL    HW272172   9.000  12.311   4.606
56759SOL     OW72173  12.988   2.535   4.436
56759SOL    HW172174  13.011   2.451   4.396
56759SOL    HW272175  13.069   2.586   4.431
56760SOL     OW72176  10.634   8.042  11.143
56760SOL    HW172177  10.575   8.058  11.216
56760SOL    HW272178  10.665   8.129  11.118
56761SOL     OW72179   7.140   0.772   8.807
56761SOL    HW172180   7.170   0.769   8.898
56761SOL    HW272181   7.079   0.699   8.799
56762SOL     OW72182  12.791   0.411   1.801
56762SOL    HW172183  12.790   0.431   1.894
56762SOL    HW272184  12.882   0.421   1.774
56763SOL     OW72185  11.963   8.687   3.886
56763SOL    HW172186  12.034   8.751   3.879
56763SOL    HW272187  11.964   8.659   3.977
56764SOL     OW72188   1.033   3.044   2.664
56764SOL    HW172189   0.994   3.107   2.725
56764SOL    HW272190   1.082   3.098   2.602
56765SOL     OW72191   9.248  12.835   0.944
56765SOL    HW172192   9.288  12.815   0.859
56765SOL    HW272193   9.172  12.778   0.949
56766SOL     OW72194   0.964   0.089  14.252
56766SOL    HW172195   0.970   0.182  14.273
56766SOL    HW272196   0.916   0.086  14.169
56767SOL     OW72197   1.026   7.222   0.504
56767SOL    HW172198   1.042   7.170   0.583
56767SOL    HW272199   0.936   7.254   0.515
56768SOL     OW72200   4.323   3.032  10.197
56768SOL    HW172201   4.244   3.035  10.144
56768SOL    HW272202   4.394   3.014  10.135
56769SOL     OW72203   0.949   6.134   5.890
56769SOL    HW172204   0.931   6.056   5.837
56769SOL    HW272205   1.023   6.176   5.846
56770SOL     OW72206  10.749   9.253   7.435
56770SOL    HW172207  10.713   9.178   7.483
56770SOL    HW272208  10.807   9.213   7.370
56771SOL     OW72209   4.200   0.881  13.001
56771SOL    HW172210   4.229   0.835  13.081
56771SOL    HW272211   4.201   0.814  12.933
56772SOL     OW72212   2.372  12.748  12.822
56772SOL    HW172213   2.395  12.817  12.885
56772SOL    HW272214   2.431  12.676  12.844
56773SOL     OW72215  13.342  11.825   5.562
56773SOL    HW172216  13.348  11.733   5.539
56773SOL    HW272217  13.291  11.865   5.491
56774SOL     OW72218  10.691   6.005  11.063
56774SOL    HW172219  10.602   5.976  11.086
56774SOL    HW272220  10.745   5.977  11.137
56775SOL     OW72221   0.636  12.011   9.553
56775SOL    HW172222   0.607  11.978   9.468
56775SOL    HW272223   0.729  12.031   9.541
56776SOL     OW72224   6.485   6.362  13.335
56776SOL    HW172225   6.567   6.316  13.319
56776SOL    HW272226   6.473   6.418  13.258
56777SOL     OW72227   9.946  11.547  10.311
56777SOL    HW172228   9.946  11.632  10.267
56777SOL    HW272229  10.030  11.508  10.288
56778SOL     OW72230  12.099   7.800  12.319
56778SOL    HW172231  12.158   7.755  12.258
56778SOL    HW272232  12.157   7.843  12.382
56779SOL     OW72233   6.071  13.883   6.599
56779SOL    HW172234   6.149  13.827   6.600
56779SOL    HW272235   6.102  13.968   6.629
56780SOL     OW72236  14.095   4.311  12.650
56780SOL    HW172237  14.136   4.249  12.711
56780SOL    HW272238  14.061   4.257  12.579
56781SOL     OW72239  12.611   4.202   6.638
56781SOL    HW172240  12.599   4.249   6.721
56781SOL    HW272241  12.673   4.132   6.658
56782SOL     OW72242   2.081   9.528   0.983
56782SOL    HW172243   2.028   9.452   0.963
56782SOL    HW272244   2.050   9.596   0.923
56783SOL     OW72245  14.329  14.106  12.910
56783SOL    HW172246  14.248  14.147  12.938
56783SOL    HW272247  14.391  14.124  12.981
56784SOL     OW72248  12.780  10.607  12.616
56784SOL    HW172249  12.748  10.685  12.570
56784SOL    HW272250  12.875  10.612  12.608
56785SOL     OW72251  13.188   0.733   6.937
56785SOL    HW172252  13.151   0.821   6.938
56785SOL    HW272253  13.114   0.676   6.959
56786SOL     OW72254   2.832  11.376   5.200
56786SOL    HW172255   2.926  11.392   5.200
56786SOL    HW272256   2.823  11.284   5.224
56787SOL     OW72257   5.030   2.168  11.546
56787SOL    HW172258   5.035   2.248  11.598
56787SOL    HW272259   4.957   2.182  11.486
56788SOL     OW72260   5.252  13.291   8.493
56788SOL    HW172261   5.272  13.348   8.419
56788SOL    HW272262   5.326  13.229   8.496
56789SOL     OW72263   0.659   0.135   8.202
56789SOL    HW172264   0.586   0.091   8.246
56789SOL    HW272265   0.663   0.095   8.116
56790SOL     OW72266  13.602   5.496  12.688
56790SOL    HW172267  13.566   5.524  12.772
56790SOL    HW272268  13.547   5.539  12.623
56791SOL     OW72269   6.672   0.314   8.249
56791SOL    HW172270   6.716   0.317   8.164
56791SOL    HW272271   6.584   0.345   8.232
56792SOL     OW72272   5.604   1.812   5.552
56792SOL    HW172273   5.526   1.818   5.497
56792SOL    HW272274   5.581   1.861   5.631
56793SOL     OW72275   2.970  12.355  13.739
56793SOL    HW172276   3.012  12.347  13.824
56793SOL    HW272277   2.906  12.426  13.750
56794SOL     OW72278   8.567   9.519  11.523
56794SOL    HW172279   8.501   9.556  11.465
56794SOL    HW272280   8.642   9.502  11.466
56795SOL     OW72281   9.196   3.930   5.381
56795SOL    HW172282   9.214   3.989   5.308
56795SOL    HW272283   9.177   3.846   5.340
56796SOL     OW72284   9.713   6.501  14.379
56796SOL    HW172285   9.684   6.510  14.289
56796SOL    HW272286   9.808   6.498  14.374
56797SOL     OW72287   4.899   3.392   4.336
56797SOL    HW172288   4.820   3.356   4.376
56797SOL    HW272289   4.879   3.485   4.324
56798SOL     OW72290   1.868  11.712  14.489
56798SOL    HW172291   1.931  11.719  14.560
56798SOL    HW272292   1.915  11.668  14.418
56799SOL     OW72293  12.291   3.085  12.538
56799SOL    HW172294  12.198   3.077  12.559
56799SOL    HW272295  12.294   3.151  12.468
56800SOL     OW72296   8.979  11.648   8.920
56800SOL    HW172297   9.042  11.583   8.886
56800SOL    HW272298   9.034  11.718   8.955
56801SOL     OW72299   6.545  13.739  11.515
56801SOL    HW172300   6.512  13.807  11.574
56801SOL    HW272301   6.523  13.656  11.558
56802SOL     OW72302   8.464   5.224  14.214
56802SOL    HW172303   8.387   5.273  14.185
56802SOL    HW272304   8.469   5.150  14.153
56803SOL     OW72305   1.568   5.026   1.334
56803SOL    HW172306   1.514   5.104   1.344
56803SOL    HW272307   1.597   5.004   1.423
56804SOL     OW72308   5.015  12.469   6.456
56804SOL    HW172309   4.995  12.522   6.378
56804SOL    HW272310   5.021  12.379   6.423
56805SOL     OW72311   3.577  12.543   3.519
56805SOL    HW172312   3.531  12.467   3.483
56805SOL    HW272313   3.670  12.523   3.507
56806SOL     OW72314  10.438  12.930   2.618
56806SOL    HW172315  10.411  12.989   2.547
56806SOL    HW272316  10.532  12.919   2.606
56807SOL     OW72317  10.172  10.304  11.251
56807SOL    HW172318  10.266  10.291  11.239
56807SOL    HW272319  10.164  10.395  11.279
56808SOL     OW72320   4.618   2.673   5.620
56808SOL    HW172321   4.711   2.679   5.641
56808SOL    HW272322   4.590   2.589   5.657
56809SOL     OW72323  10.745   4.491   9.846
56809SOL    HW172324  10.706   4.577   9.860
56809SOL    HW272325  10.796   4.474   9.925
56810SOL     OW72326  11.346   8.428   4.727
56810SOL    HW172327  11.402   8.486   4.676
56810SOL    HW272328  11.259   8.437   4.687
56811SOL     OW72329   3.157   1.692   4.610
56811SOL    HW172330   3.195   1.689   4.522
56811SOL    HW272331   3.166   1.602   4.643
56812SOL     OW72332   8.595   8.060  11.586
56812SOL    HW172333   8.629   8.088  11.671
56812SOL    HW272334   8.657   8.093  11.522
56813SOL     OW72335   4.143   7.321   1.288
56813SOL    HW172336   4.049   7.306   1.302
56813SOL    HW272337   4.147   7.402   1.238
56814SOL     OW72338  10.917   0.329   9.632
56814SOL    HW172339  10.838   0.280   9.605
56814SOL    HW272340  10.895   0.365   9.717
56815SOL     OW72341  10.106   3.747   7.769
56815SOL    HW172342  10.166   3.673   7.782
56815SOL    HW272343  10.039   3.713   7.711
56816SOL     OW72344  11.076   0.184   1.145
56816SOL    HW172345  11.140   0.251   1.167
56816SOL    HW272346  11.077   0.181   1.049
56817SOL     OW72347   5.884   6.673   6.313
56817SOL    HW172348   5.894   6.621   6.233
56817SOL    HW272349   5.878   6.763   6.282
56818SOL     OW72350   8.631   8.599  14.140
56818SOL    HW172351   8.630   8.511  14.104
56818SOL    HW272352   8.541   8.613  14.171
56819SOL     OW72353   1.872  14.105   6.684
56819SOL    HW172354   1.830  14.020   6.670
56819SOL    HW272355   1.965  14.088   6.670
56820SOL     OW72356   9.016   4.533  12.730
56820SOL    HW172357   9.006   4.560  12.822
56820SOL    HW272358   9.081   4.593  12.694
56821SOL     OW72359  13.863  14.854  14.708
56821SOL    HW172360  13.857  14.847  14.803
56821SOL    HW272361  13.955  14.869  14.690
56822SOL     OW72362   8.219  10.042  14.793
56822SOL    HW172363   8.197  10.031  14.701
56822SOL    HW272364   8.275  10.119  14.796
56823SOL     OW72365  12.054   5.340   4.652
56823SOL    HW172366  12.104   5.309   4.727
56823SOL    HW272367  12.092   5.293   4.577
56824SOL     OW72368   0.672  13.567  14.057
56824SOL    HW172369   0.604  13.626  14.027
56824SOL    HW272370   0.698  13.601  14.143
56825SOL     OW72371  12.841   4.878  12.931
56825SOL    HW172372  12.790   4.958  12.923
56825SOL    HW272373  12.776   4.807  12.928
56826SOL     OW72374  11.191   8.499   9.723
56826SOL    HW172375  11.154   8.490   9.636
56826SOL    HW272376  11.283   8.521   9.708
56827SOL     OW72377   6.525   7.350   1.263
56827SOL    HW172378   6.499   7.269   1.306
56827SOL    HW272379   6.532   7.328   1.170
56828SOL     OW72380   2.832   5.735  10.830
56828SOL    HW172381   2.799   5.822  10.805
56828SOL    HW272382   2.897   5.714  10.763
56829SOL     OW72383  12.009  12.298   3.078
56829SOL    HW172384  12.048  12.384   3.096
56829SOL    HW272385  12.063  12.236   3.127
56830SOL     OW72386   0.546   9.046   9.229
56830SOL    HW172387   0.460   9.054   9.189
56830SOL    HW272388   0.593   8.985   9.172
56831SOL     OW72389   1.358  10.866  12.536
56831SOL    HW172390   1.288  10.801  12.546
56831SOL    HW272391   1.361  10.884  12.442
56832SOL     OW72392   2.430   8.851   2.411
56832SOL    HW172393   2.450   8.763   2.380
56832SOL    HW272394   2.388   8.894   2.336
56833SOL     OW72395   0.333  11.933   5.500
56833SOL    HW172396   0.324  11.946   5.594
56833SOL    HW272397   0.398  11.863   5.491
56834SOL     OW72398  11.811   0.839   5.358
56834SOL    HW172399  11.758   0.886   5.294
56834SOL    HW272400  11.841   0.906   5.419
56835SOL     OW72401   8.814   1.115   6.463
56835SOL    HW172402   8.784   1.128   6.553
56835SOL    HW272403   8.764   1.041   6.431
56836SOL     OW72404   7.520   9.583   5.081
56836SOL    HW172405   7.550   9.654   5.024
56836SOL    HW272406   7.570   9.506   5.053
56837SOL     OW72407  13.141   4.357  14.751
56837SOL    HW172408  13.182   4.417  14.689
56837SOL    HW272409  13.130   4.275  14.701
56838SOL     OW72410   0.220  11.195   6.887
56838SOL    HW172411   0.183  11.281   6.866
56838SOL    HW272412   0.281  11.212   6.959
56839SOL     OW72413   3.282   2.586   0.541
56839SOL    HW172414   3.231   2.620   0.468
56839SOL    HW272415   3.239   2.503   0.564
56840SOL     OW72416  12.444   1.068   9.106
56840SOL    HW172417  12.503   0.994   9.113
56840SOL    HW272418  12.497   1.144   9.132
56841SOL     OW72419   6.103  11.615   7.684
56841SOL    HW172420   6.090  11.591   7.776
56841SOL    HW272421   6.101  11.711   7.685
56842SOL     OW72422  11.367  13.107   3.416
56842SOL    HW172423  11.428  13.068   3.479
56842SOL    HW272424  11.343  13.191   3.456
56843SOL     OW72425   8.116  13.217  11.924
56843SOL    HW172426   8.101  13.214  12.019
56843SOL    HW272427   8.060  13.287  11.893
56844SOL     OW72428   2.396   6.670   3.419
56844SOL    HW172429   2.407   6.608   3.347
56844SOL    HW272430   2.380   6.754   3.375
56845SOL     OW72431   5.654  13.546  12.317
56845SOL    HW172432   5.644  13.633  12.278
56845SOL    HW272433   5.597  13.489  12.265
56846SOL     OW72434  12.696   1.200   5.969
56846SOL    HW172435  12.780   1.173   6.004
56846SOL    HW272436  12.678   1.137   5.898
56847SOL     OW72437   1.045   9.125   9.509
56847SOL    HW172438   1.035   9.119   9.604
56847SOL    HW272439   0.956   9.130   9.476
56848SOL     OW72440  11.366   9.356  11.139
56848SOL    HW172441  11.420   9.435  11.133
56848SOL    HW272442  11.429   9.284  11.129
56849SOL     OW72443   7.119  10.249   2.039
56849SOL    HW172444   7.150  10.335   2.013
56849SOL    HW272445   7.062  10.265   2.114
56850SOL     OW72446   4.398   0.154   7.564
56850SOL    HW172447   4.351   0.237   7.574
56850SOL    HW272448   4.384   0.130   7.472
56851SOL     OW72449  13.911   0.345   1.622
56851SOL    HW172450  13.891   0.255   1.596
56851SOL    HW272451  13.959   0.336   1.705
56852SOL     OW72452   2.067   2.139   4.660
56852SOL    HW172453   2.021   2.055   4.653
56852SOL    HW272454   2.159   2.115   4.674
56853SOL     OW72455   4.670   3.412   1.334
56853SOL    HW172456   4.627   3.401   1.419
56853SOL    HW272457   4.759   3.381   1.348
56854SOL     OW72458   8.546   1.547   1.046
56854SOL    HW172459   8.544   1.562   1.140
56854SOL    HW272460   8.630   1.582   1.017
56855SOL     OW72461   2.211   3.216  14.239
56855SOL    HW172462   2.126   3.184  14.269
56855SOL    HW272463   2.229   3.291  14.296
56856SOL     OW72464  14.221  14.173   0.057
56856SOL    HW172465  14.263  14.168  14.841
56856SOL    HW272466  14.295  14.173   0.119
56857SOL     OW72467   1.257  10.618   3.051
56857SOL    HW172468   1.217  10.534   3.078
56857SOL    HW272469   1.256  10.671   3.130
56858SOL     OW72470   2.596   5.886   1.255
56858SOL    HW172471   2.550   5.937   1.323
56858SOL    HW272472   2.608   5.948   1.183
56859SOL     OW72473  11.157   5.440   9.508
56859SOL    HW172474  11.245   5.426   9.472
56859SOL    HW272475  11.172   5.472   9.596
56860SOL     OW72476   6.790   7.707  13.339
56860SOL    HW172477   6.769   7.733  13.429
56860SOL    HW272478   6.783   7.788  13.289
56861SOL     OW72479  11.968   1.055  11.493
56861SOL    HW172480  11.995   1.125  11.552
56861SOL    HW272481  11.994   0.975  11.539
56862SOL     OW72482   4.362  11.385   9.137
56862SOL    HW172483   4.446  11.417   9.104
56862SOL    HW272484   4.322  11.342   9.061
56863SOL     OW72485   6.910  13.508   5.260
56863SOL    HW172486   6.981  13.514   5.196
56863SOL    HW272487   6.955  13.485   5.342
56864SOL     OW72488   2.644  12.319   8.520
56864SOL    HW172489   2.663  12.366   8.440
56864SOL    HW272490   2.699  12.241   8.517
56865SOL     OW72491   7.382   4.174  10.406
56865SOL    HW172492   7.370   4.241  10.339
56865SOL    HW272493   7.446   4.213  10.467
56866SOL     OW72494   6.032   9.982  11.050
56866SOL    HW172495   6.063   9.925  11.120
56866SOL    HW272496   6.110  10.025  11.017
56867SOL     OW72497  10.309   9.353   1.172
56867SOL    HW172498  10.238   9.365   1.108
56867SOL    HW272499  10.350   9.270   1.147
56868SOL     OW72500  11.656  11.203   6.465
56868SOL    HW172501  11.582  11.153   6.431
56868SOL    HW272502  11.731  11.176   6.412
56869SOL     OW72503   9.268   1.624  11.407
56869SOL    HW172504   9.266   1.658  11.497
56869SOL    HW272505   9.195   1.667  11.363
56870SOL     OW72506   7.724   7.367  13.836
56870SOL    HW172507   7.730   7.365  13.931
56870SOL    HW272508   7.814   7.363  13.806
56871SOL     OW72509  10.210   0.333   6.594
56871SOL    HW172510  10.182   0.260   6.651
56871SOL    HW272511  10.133   0.354   6.542
56872SOL     OW72512  11.800  11.518  13.481
56872SOL    HW172513  11.881  11.565  13.460
56872SOL    HW272514  11.734  11.586  13.490
56873SOL     OW72515  12.608   0.581   0.491
56873SOL    HW172516  12.520   0.576   0.528
56873SOL    HW272517  12.663   0.611   0.563
56874SOL     OW72518   5.288   7.020  10.502
56874SOL    HW172519   5.194   7.005  10.511
56874SOL    HW272520   5.297   7.072  10.421
56875SOL     OW72521  14.058  12.131   8.885
56875SOL    HW172522  14.076  12.221   8.861
56875SOL    HW272523  13.966  12.130   8.910
56876SOL     OW72524   5.234   4.071   3.939
56876SOL    HW172525   5.281   4.134   3.885
56876SOL    HW272526   5.289   4.060   4.017
56877SOL     OW72527   8.597  13.562  14.713
56877SOL    HW172528   8.561  13.648  14.735
56877SOL    HW272529   8.550  13.536  14.634
56878SOL     OW72530  12.605  11.325   7.368
56878SOL    HW172531  12.597  11.282   7.453
56878SOL    HW272532  12.565  11.411   7.381
56879SOL     OW72533   9.707  13.015   0.305
56879SOL    HW172534   9.735  13.086   0.246
56879SOL    HW272535   9.612  13.018   0.302
56880SOL     OW72536   1.277   7.503   5.587
56880SOL    HW172537   1.268   7.538   5.498
56880SOL    HW272538   1.368   7.519   5.610
56881SOL     OW72539   2.091   5.164   1.205
56881SOL    HW172540   2.048   5.092   1.158
56881SOL    HW272541   2.174   5.127   1.234
56882SOL     OW72542   9.996   7.973   4.565
56882SOL    HW172543  10.091   7.972   4.579
56882SOL    HW272544   9.978   8.059   4.528
56883SOL     OW72545   7.283  14.081   7.674
56883SOL    HW172546   7.319  14.170   7.670
56883SOL    HW272547   7.356  14.027   7.706
56884SOL     OW72548  14.232   3.538  12.621
56884SOL    HW172549  14.178   3.617  12.616
56884SOL    HW272550  14.231   3.503  12.531
56885SOL     OW72551  11.760   7.762   2.829
56885SOL    HW172552  11.700   7.821   2.875
56885SOL    HW272553  11.777   7.806   2.745
56886SOL     OW72554   1.220   8.277  11.510
56886SOL    HW172555   1.189   8.203  11.563
56886SOL    HW272556   1.221   8.244  11.420
56887SOL     OW72557   1.711  10.820   0.054
56887SOL    HW172558   1.700  10.738   0.007
56887SOL    HW272559   1.642  10.818   0.121
56888SOL     OW72560   0.895   5.576  14.428
56888SOL    HW172561   0.921   5.491  14.392
56888SOL    HW272562   0.943   5.583  14.510
56889SOL     OW72563   5.809  12.210  13.220
56889SOL    HW172564   5.803  12.228  13.126
56889SOL    HW272565   5.831  12.117  13.226
56890SOL     OW72566   7.541   7.628   4.118
56890SOL    HW172567   7.535   7.551   4.176
56890SOL    HW272568   7.635   7.641   4.107
56891SOL     OW72569  13.618  10.642   0.711
56891SOL    HW172570  13.606  10.548   0.699
56891SOL    HW272571  13.548  10.667   0.771
56892SOL     OW72572   9.687   5.704  10.914
56892SOL    HW172573   9.686   5.624  10.862
56892SOL    HW272574   9.660   5.773  10.854
56893SOL     OW72575  11.650  14.592   2.856
56893SOL    HW172576  11.674  14.548   2.775
56893SOL    HW272577  11.582  14.655   2.830
56894SOL     OW72578   2.347  11.374   4.741
56894SOL    HW172579   2.263  11.416   4.723
56894SOL    HW272580   2.395  11.379   4.658
56895SOL     OW72581   3.662   8.105   2.387
56895SOL    HW172582   3.689   8.047   2.315
56895SOL    HW272583   3.718   8.079   2.460
56896SOL     OW72584   8.345   3.971  11.193
56896SOL    HW172585   8.313   4.039  11.134
56896SOL    HW272586   8.266   3.928  11.225
56897SOL     OW72587   6.289   2.706   4.352
56897SOL    HW172588   6.257   2.796   4.344
56897SOL    HW272589   6.216   2.652   4.323
56898SOL     OW72590   4.270   1.992   3.835
56898SOL    HW172591   4.179   2.007   3.860
56898SOL    HW272592   4.297   2.073   3.792
56899SOL     OW72593   4.072   5.412  14.587
56899SOL    HW172594   4.007   5.442  14.652
56899SOL    HW272595   4.134   5.361  14.638
56900SOL     OW72596   9.243  10.714  13.545
56900SOL    HW172597   9.263  10.621  13.529
56900SOL    HW272598   9.259  10.726  13.638
56901SOL     OW72599   1.319   7.473   7.781
56901SOL    HW172600   1.353   7.498   7.695
56901SOL    HW272601   1.226   7.495   7.777
56902SOL     OW72602   4.842   9.778   8.888
56902SOL    HW172603   4.887   9.862   8.886
56902SOL    HW272604   4.912   9.714   8.901
56903SOL     OW72605   7.884   0.430  13.053
56903SOL    HW172606   7.860   0.521  13.036
56903SOL    HW272607   7.904   0.427  13.146
56904SOL     OW72608   2.423   4.736   0.077
56904SOL    HW172609   2.398   4.782   0.157
56904SOL    HW272610   2.499   4.684   0.103
56905SOL     OW72611   1.482   9.207   5.849
56905SOL    HW172612   1.553   9.187   5.788
56905SOL    HW272613   1.526   9.238   5.928
56906SOL     OW72614  12.340  14.365   9.223
56906SOL    HW172615  12.346  14.270   9.234
56906SOL    HW272616  12.340  14.400   9.312
56907SOL     OW72617   2.259   8.261   3.747
56907SOL    HW172618   2.241   8.201   3.675
56907SOL    HW272619   2.310   8.332   3.708
56908SOL     OW72620   3.457   2.131   2.025
56908SOL    HW172621   3.480   2.148   2.116
56908SOL    HW272622   3.413   2.211   1.996
56909SOL     OW72623   8.632   2.436   3.665
56909SOL    HW172624   8.538   2.424   3.678
56909SOL    HW272625   8.640   2.519   3.618
56910SOL     OW72626   3.513   2.293  12.926
56910SOL    HW172627   3.581   2.244  12.880
56910SOL    HW272628   3.433   2.274  12.876
56911SOL     OW72629   9.126   2.566   3.635
56911SOL    HW172630   9.179   2.533   3.562
56911SOL    HW272631   9.116   2.490   3.693
56912SOL     OW72632   3.265   1.955   5.948
56912SOL    HW172633   3.250   1.861   5.953
56912SOL    HW272634   3.296   1.969   5.858
56913SOL     OW72635   1.241   4.560   1.162
56913SOL    HW172636   1.237   4.611   1.243
56913SOL    HW272637   1.333   4.558   1.139
56914SOL     OW72638  11.775  10.143  13.581
56914SOL    HW172639  11.828  10.066  13.600
56914SOL    HW272640  11.695  10.109  13.542
56915SOL     OW72641   3.509   8.043   0.266
56915SOL    HW172642   3.565   7.987   0.212
56915SOL    HW272643   3.567   8.076   0.335
56916SOL     OW72644   5.425   5.691   9.938
56916SOL    HW172645   5.490   5.750   9.977
56916SOL    HW272646   5.341   5.728   9.965
56917SOL     OW72647  12.961   2.704  10.458
56917SOL    HW172648  12.897   2.690  10.389
56917SOL    HW272649  12.914   2.685  10.539
56918SOL     OW72650   9.828  13.862   8.851
56918SOL    HW172651   9.756  13.924   8.863
56918SOL    HW272652   9.839  13.822   8.937
56919SOL     OW72653   9.562   2.974   1.604
56919SOL    HW172654   9.575   3.049   1.546
56919SOL    HW272655   9.624   2.989   1.676
56920SOL     OW72656   9.770   2.833   0.837
56920SOL    HW172657   9.777   2.743   0.868
56920SOL    HW272658   9.846   2.845   0.781
56921SOL     OW72659   9.884   6.775  14.468
56921SOL    HW172660   9.851   6.769  14.558
56921SOL    HW272661   9.823   6.834  14.424
56922SOL     OW72662  13.706   0.382   4.602
56922SOL    HW172663  13.690   0.379   4.507
56922SOL    HW272664  13.683   0.471   4.628
56923SOL     OW72665  14.507   4.224  12.969
56923SOL    HW172666  14.533   4.316  12.981
56923SOL    HW272667  14.467   4.200  13.052
56924SOL     OW72668   0.621   8.473   8.317
56924SOL    HW172669   0.552   8.518   8.365
56924SOL    HW272670   0.641   8.396   8.370
56925SOL     OW72671   4.612  13.793   2.120
56925SOL    HW172672   4.632  13.784   2.026
56925SOL    HW272673   4.662  13.870   2.147
56926SOL     OW72674   7.834  11.000   9.570
56926SOL    HW172675   7.902  11.007   9.503
56926SOL    HW272676   7.753  10.993   9.519
56927SOL     OW72677   0.756   2.982   7.094
56927SOL    HW172678   0.664   2.993   7.116
56927SOL    HW272679   0.777   2.893   7.122
56928SOL     OW72680  10.813   7.132  14.807
56928SOL    HW172681  10.839   7.067   0.003
56928SOL    HW272682  10.812   7.215  14.854
56929SOL     OW72683  10.283   9.274   3.259
56929SOL    HW172684  10.240   9.356   3.283
56929SOL    HW272685  10.224   9.205   3.291
56930SOL     OW72686   0.088   3.645   8.813
56930SOL    HW172687   0.123   3.732   8.790
56930SOL    HW272688   0.083   3.646   8.908
56931SOL     OW72689   5.067   6.319   7.260
56931SOL    HW172690   5.020   6.397   7.289
56931SOL    HW272691   5.093   6.337   7.170
56932SOL     OW72692   1.367   0.645   7.090
56932SOL    HW172693   1.317   0.707   7.142
56932SOL    HW272694   1.451   0.688   7.076
56933SOL     OW72695   1.578   0.479  14.200
56933SOL    HW172696   1.628   0.561  14.207
56933SOL    HW272697   1.590   0.453  14.108
56934SOL     OW72698  11.495  13.469   9.851
56934SOL    HW172699  11.453  13.392   9.814
56934SOL    HW272700  11.447  13.487   9.932
56935SOL     OW72701  11.009   0.608  14.643
56935SOL    HW172702  10.975   0.570  14.724
56935SOL    HW272703  10.951   0.575  14.575
56936SOL     OW72704   0.225   3.887   6.875
56936SOL    HW172705   0.208   3.803   6.833
56936SOL    HW272706   0.319   3.898   6.871
56937SOL     OW72707   7.941  14.206   4.484
56937SOL    HW172708   8.019  14.236   4.531
56937SOL    HW272709   7.869  14.223   4.545
56938SOL     OW72710   3.291   7.787  13.373
56938SOL    HW172711   3.380   7.782  13.339
56938SOL    HW272712   3.283   7.710  13.430
56939SOL     OW72713  12.272   3.428   8.265
56939SOL    HW172714  12.309   3.511   8.234
56939SOL    HW272715  12.323   3.408   8.344
56940SOL     OW72716   9.429  10.896   2.324
56940SOL    HW172717   9.336  10.902   2.306
56940SOL    HW272718   9.447  10.967   2.385
56941SOL     OW72719   9.063  13.540   4.638
56941SOL    HW172720   9.077  13.607   4.571
56941SOL    HW272721   8.988  13.490   4.607
56942SOL     OW72722  12.659   1.683   9.749
56942SOL    HW172723  12.623   1.649   9.667
56942SOL    HW272724  12.690   1.605   9.795
56943SOL     OW72725   8.174   5.678   1.401
56943SOL    HW172726   8.200   5.750   1.343
56943SOL    HW272727   8.113   5.719   1.463
56944SOL     OW72728  11.169  14.677  10.579
56944SOL    HW172729  11.230  14.745  10.606
56944SOL    HW272730  11.170  14.681  10.483
56945SOL     OW72731  13.446  11.642   6.724
56945SOL    HW172732  13.503  11.661   6.649
56945SOL    HW272733  13.413  11.554   6.706
56946SOL     OW72734   7.977   1.668   7.932
56946SOL    HW172735   8.050   1.696   7.877
56946SOL    HW272736   7.978   1.729   8.006
56947SOL     OW72737   2.636  13.138   0.173
56947SOL    HW172738   2.731  13.133   0.183
56947SOL    HW272739   2.613  13.226   0.203
56948SOL     OW72740  13.920   7.322   7.164
56948SOL    HW172741  13.885   7.361   7.084
56948SOL    HW272742  13.886   7.232   7.163
56949SOL     OW72743   2.235   2.667   2.328
56949SOL    HW172744   2.237   2.672   2.232
56949SOL    HW272745   2.229   2.574   2.347
56950SOL     OW72746  12.363  11.040   4.705
56950SOL    HW172747  12.395  11.128   4.689
56950SOL    HW272748  12.369  11.029   4.800
56951SOL     OW72749   5.302  12.822   2.341
56951SOL    HW172750   5.207  12.809   2.345
56951SOL    HW272751   5.322  12.823   2.247
56952SOL     OW72752  10.018   5.538   6.066
56952SOL    HW172753   9.994   5.593   5.991
56952SOL    HW272754  10.104   5.503   6.044
56953SOL     OW72755   9.555  13.329   5.655
56953SOL    HW172756   9.466  13.314   5.623
56953SOL    HW272757   9.563  13.270   5.730
56954SOL     OW72758  11.275  11.485   1.543
56954SOL    HW172759  11.341  11.463   1.608
56954SOL    HW272760  11.325  11.521   1.470
56955SOL     OW72761   6.443  13.042   9.907
56955SOL    HW172762   6.449  12.951   9.881
56955SOL    HW272763   6.531  13.078   9.893
56956SOL     OW72764   1.048   5.300   1.700
56956SOL    HW172765   1.069   5.368   1.763
56956SOL    HW272766   1.093   5.222   1.733
56957SOL     OW72767  10.099   8.522   0.174
56957SOL    HW172768  10.010   8.505   0.145
56957SOL    HW272769  10.154   8.474   0.112
56958SOL     OW72770   3.398   1.725   8.057
56958SOL    HW172771   3.319   1.673   8.044
56958SOL    HW272772   3.369   1.801   8.108
56959SOL     OW72773   5.050   3.193   6.916
56959SOL    HW172774   4.992   3.117   6.921
56959SOL    HW272775   5.087   3.190   6.828
56960SOL     OW72776   8.015   5.603   3.688
56960SOL    HW172777   7.963   5.580   3.612
56960SOL    HW272778   7.987   5.692   3.710
56961SOL     OW72779   6.116   1.178   2.757
56961SOL    HW172780   6.156   1.230   2.687
56961SOL    HW272781   6.135   1.226   2.837
56962SOL     OW72782  10.473   3.606   5.872
56962SOL    HW172783  10.481   3.679   5.811
56962SOL    HW272784  10.558   3.603   5.916
56963SOL     OW72785   7.995  13.411  10.070
56963SOL    HW172786   8.037  13.480  10.121
56963SOL    HW272787   8.067  13.353  10.045
56964SOL     OW72788  11.841   2.412   1.536
56964SOL    HW172789  11.916   2.401   1.477
56964SOL    HW272790  11.841   2.333   1.589
56965SOL     OW72791  12.115   1.134   8.266
56965SOL    HW172792  12.136   1.114   8.175
56965SOL    HW272793  12.065   1.058   8.296
56966SOL     OW72794  11.599  14.071   0.306
56966SOL    HW172795  11.679  14.021   0.293
56966SOL    HW272796  11.591  14.125   0.227
56967SOL     OW72797   7.793   3.477   4.701
56967SOL    HW172798   7.854   3.406   4.684
56967SOL    HW272799   7.795   3.489   4.796
56968SOL     OW72800   2.414  14.780   6.539
56968SOL    HW172801   2.386  14.800   6.449
56968SOL    HW272802   2.352  14.714   6.569
56969SOL     OW72803   3.858   8.284   7.579
56969SOL    HW172804   3.812   8.256   7.500
56969SOL    HW272805   3.925   8.217   7.593
56970SOL     OW72806   7.579   4.930   5.285
56970SOL    HW172807   7.579   4.875   5.206
56970SOL    HW272808   7.536   5.011   5.258
56971SOL     OW72809   4.219   2.712   7.989
56971SOL    HW172810   4.138   2.746   7.951
56971SOL    HW272811   4.200   2.620   8.008
56972SOL     OW72812   2.498   7.221   1.077
56972SOL    HW172813   2.403   7.234   1.080
56972SOL    HW272814   2.532   7.280   1.144
56973SOL     OW72815   7.722   6.695   3.976
56973SOL    HW172816   7.704   6.717   4.067
56973SOL    HW272817   7.813   6.666   3.975
56974SOL     OW72818  11.024   8.721   3.722
56974SOL    HW172819  10.960   8.713   3.651
56974SOL    HW272820  11.063   8.634   3.729
56975SOL     OW72821   8.387   5.767   7.413
56975SOL    HW172822   8.451   5.836   7.399
56975SOL    HW272823   8.304   5.814   7.424
56976SOL     OW72824   3.008   3.775   3.272
56976SOL    HW172825   3.103   3.773   3.276
56976SOL    HW272826   2.980   3.794   3.362
56977SOL     OW72827   4.839   8.986   7.659
56977SOL    HW172828   4.859   9.080   7.660
56977SOL    HW272829   4.752   8.980   7.620
56978SOL     OW72830   4.184  10.393   5.878
56978SOL    HW172831   4.233  10.402   5.960
56978SOL    HW272832   4.225  10.318   5.834
56979SOL     OW72833  10.932   6.031  13.628
56979SOL    HW172834  11.013   6.009  13.673
56979SOL    HW272835  10.933   6.127  13.622
56980SOL     OW72836   4.836  14.867   0.324
56980SOL    HW172837   4.892   0.004   0.401
56980SOL    HW272838   4.888  14.816   0.261
56981SOL     OW72839  10.187   8.039   1.202
56981SOL    HW172840  10.225   8.011   1.119
56981SOL    HW272841  10.214   8.130   1.212
56982SOL     OW72842  10.564  12.536   6.075
56982SOL    HW172843  10.490  12.537   6.136
56982SOL    HW272844  10.611  12.456   6.095
56983SOL     OW72845  11.765  14.558  14.659
56983SOL    HW172846  11.745  14.649  14.634
56983SOL    HW272847  11.716  14.544  14.740
56984SOL     OW72848   8.011   7.062   8.890
56984SOL    HW172849   8.090   7.056   8.944
56984SOL    HW272850   7.938   7.053   8.951
56985SOL     OW72851  10.875   7.957  11.035
56985SOL    HW172852  10.802   8.015  11.058
56985SOL    HW272853  10.938   8.013  10.990
56986SOL     OW72854   2.990   0.634  12.871
56986SOL    HW172855   2.935   0.556  12.868
56986SOL    HW272856   2.985   0.670  12.782
56987SOL     OW72857   8.478   6.066  14.297
56987SOL    HW172858   8.460   6.098  14.209
56987SOL    HW272859   8.393   6.064  14.340
56988SOL     OW72860  14.090   2.225   2.115
56988SOL    HW172861  14.137   2.168   2.176
56988SOL    HW272862  14.144   2.304   2.109
56989SOL     OW72863   1.979  12.163   9.173
56989SOL    HW172864   2.058  12.202   9.210
56989SOL    HW272865   1.961  12.087   9.229
56990SOL     OW72866  14.017   9.499   8.616
56990SOL    HW172867  14.082   9.545   8.563
56990SOL    HW272868  13.933   9.523   8.577
56991SOL     OW72869   8.109   5.013   7.370
56991SOL    HW172870   8.113   5.047   7.280
56991SOL    HW272871   8.039   4.948   7.368
56992SOL     OW72872  13.470   7.965   7.208
56992SOL    HW172873  13.479   8.008   7.123
56992SOL    HW272874  13.454   8.036   7.269
56993SOL     OW72875   3.642   4.681  13.366
56993SOL    HW172876   3.550   4.686  13.392
56993SOL    HW272877   3.687   4.742  13.425
56994SOL     OW72878   6.562  12.153   2.786
56994SOL    HW172879   6.648  12.181   2.819
56994SOL    HW272880   6.562  12.058   2.797
56995SOL     OW72881  14.197  11.108   6.482
56995SOL    HW172882  14.128  11.174   6.471
56995SOL    HW272883  14.257  11.147   6.546
56996SOL     OW72884   0.161   0.779  10.818
56996SOL    HW172885   0.179   0.759  10.726
56996SOL    HW272886   0.187   0.871  10.828
56997SOL     OW72887   1.029  10.542  10.706
56997SOL    HW172888   1.118  10.522  10.736
56997SOL    HW272889   0.973  10.484  10.758
56998SOL     OW72890   5.243  14.606   4.885
56998SOL    HW172891   5.181  14.536   4.906
56998SOL    HW272892   5.283  14.578   4.803
56999SOL     OW72893   7.610   5.199  13.528
56999SOL    HW172894   7.622   5.211  13.622
56999SOL    HW272895   7.521   5.165  13.520
57000SOL     OW72896   6.813  10.160   7.884
57000SOL    HW172897   6.758  10.238   7.882
57000SOL    HW272898   6.784  10.112   7.961
57001SOL     OW72899   4.946  14.572   2.487
57001SOL    HW172900   4.981  14.644   2.540
57001SOL    HW272901   4.851  14.577   2.500
57002SOL     OW72902  10.790   1.602   8.949
57002SOL    HW172903  10.783   1.588   8.854
57002SOL    HW272904  10.715   1.554   8.986
57003SOL     OW72905  12.182   1.552  11.517
57003SOL    HW172906  12.227   1.557  11.601
57003SOL    HW272907  12.250   1.566  11.452
57004SOL     OW72908   0.846  13.343  12.625
57004SOL    HW172909   0.795  13.280  12.574
57004SOL    HW272910   0.781  13.405  12.658
57005SOL     OW72911   5.714   0.356   4.167
57005SOL    HW172912   5.791   0.309   4.137
57005SOL    HW272913   5.738   0.389   4.254
57006SOL     OW72914   9.412   5.952   4.022
57006SOL    HW172915   9.429   5.929   4.114
57006SOL    HW272916   9.352   5.884   3.992
57007SOL     OW72917  14.161   1.208   3.262
57007SOL    HW172918  14.229   1.240   3.321
57007SOL    HW272919  14.112   1.145   3.315
57008SOL     OW72920   8.132  11.272  11.304
57008SOL    HW172921   8.138  11.368  11.295
57008SOL    HW272922   8.220  11.246  11.331
57009SOL     OW72923  13.479  14.837   6.576
57009SOL    HW172924  13.451  14.830   6.667
57009SOL    HW272925  13.426   0.038   6.539
57010SOL     OW72926   1.142   0.354   1.922
57010SOL    HW172927   1.205   0.303   1.974
57010SOL    HW272928   1.106   0.291   1.860
57011SOL     OW72929  10.110   8.772  12.061
57011SOL    HW172930  10.159   8.746  12.140
57011SOL    HW272931  10.125   8.701  11.999
57012SOL     OW72932  12.075   7.614  11.145
57012SOL    HW172933  12.011   7.679  11.118
57012SOL    HW272934  12.150   7.664  11.178
57013SOL     OW72935  13.097   1.267  10.101
57013SOL    HW172936  13.086   1.352  10.144
57013SOL    HW272937  13.165   1.281  10.036
57014SOL     OW72938   1.775  13.446  12.863
57014SOL    HW172939   1.750  13.411  12.948
57014SOL    HW272940   1.759  13.540  12.870
57015SOL     OW72941   4.519   4.482   3.540
57015SOL    HW172942   4.556   4.394   3.528
57015SOL    HW272943   4.521   4.521   3.453
57016SOL     OW72944   4.488   5.177   4.304
57016SOL    HW172945   4.464   5.145   4.391
57016SOL    HW272946   4.583   5.162   4.299
57017SOL     OW72947   8.295   8.556   2.473
57017SOL    HW172948   8.255   8.487   2.420
57017SOL    HW272949   8.240   8.562   2.551
57018SOL     OW72950  12.559   9.583  10.756
57018SOL    HW172951  12.473   9.597  10.716
57018SOL    HW272952  12.550   9.617  10.845
57019SOL     OW72953  14.690   5.719  14.038
57019SOL    HW172954  14.679   5.624  14.041
57019SOL    HW272955  14.772   5.732  13.991
57020SOL     OW72956  11.601   3.993  13.441
57020SOL    HW172957  11.654   4.064  13.478
57020SOL    HW272958  11.513   4.009  13.473
57021SOL     OW72959  10.597  11.165  12.787
57021SOL    HW172960  10.689  11.138  12.784
57021SOL    HW272961  10.588  11.207  12.872
57022SOL     OW72962   3.776   5.436   5.327
57022SOL    HW172963   3.780   5.466   5.418
57022SOL    HW272964   3.795   5.513   5.275
57023SOL     OW72965   6.974   2.444   6.683
57023SOL    HW172966   6.914   2.488   6.623
57023SOL    HW272967   6.948   2.476   6.770
57024SOL     OW72968   8.610   2.873  13.071
57024SOL    HW172969   8.658   2.792  13.087
57024SOL    HW272970   8.518   2.848  13.080
57025SOL     OW72971   5.532   0.510   4.661
57025SOL    HW172972   5.551   0.601   4.634
57025SOL    HW272973   5.510   0.465   4.580
57026SOL     OW72974   1.931   5.674  11.948
57026SOL    HW172975   1.846   5.718  11.941
57026SOL    HW272976   1.909   5.582  11.959
57027SOL     OW72977   1.548   2.390   2.536
57027SOL    HW172978   1.598   2.335   2.597
57027SOL    HW272979   1.458   2.357   2.543
57028SOL     OW72980  10.549   9.099   5.923
57028SOL    HW172981  10.489   9.070   5.993
57028SOL    HW272982  10.531   9.192   5.914
57029SOL     OW72983  10.801   6.476   8.199
57029SOL    HW172984  10.772   6.559   8.237
57029SOL    HW272985  10.896   6.487   8.189
57030SOL     OW72986   5.755   9.650  11.911
57030SOL    HW172987   5.684   9.655  11.974
57030SOL    HW272988   5.714   9.615  11.831
57031SOL     OW72989  13.362   3.942   9.435
57031SOL    HW172990  13.335   4.021   9.388
57031SOL    HW272991  13.364   3.968   9.527
57032SOL     OW72992   4.807  14.700   3.571
57032SOL    HW172993   4.837  14.775   3.521
57032SOL    HW272994   4.746  14.655   3.513
57033SOL     OW72995  10.924   3.654   6.978
57033SOL    HW172996  10.989   3.721   7.001
57033SOL    HW272997  10.958   3.616   6.896
57034SOL     OW72998  14.614  12.909   9.486
57034SOL    HW172999  14.565  12.962   9.423
57034SOL    HW273000  14.679  12.969   9.522
57035SOL     OW73001   3.509   3.777   7.332
57035SOL    HW173002   3.508   3.872   7.320
57035SOL    HW273003   3.602   3.756   7.346
57036SOL     OW73004   1.656   4.126   6.909
57036SOL    HW173005   1.697   4.062   6.968
57036SOL    HW273006   1.641   4.203   6.964
57037SOL     OW73007   1.514  10.529   1.145
57037SOL    HW173008   1.570  10.555   1.072
57037SOL    HW273009   1.445  10.475   1.105
57038SOL     OW73010   1.663   1.070   6.351
57038SOL    HW173011   1.589   1.121   6.318
57038SOL    HW273012   1.656   0.986   6.306
57039SOL     OW73013   6.129   9.867  12.215
57039SOL    HW173014   6.048   9.895  12.173
57039SOL    HW273015   6.153   9.787  12.169
57040SOL     OW73016   6.625   7.098   9.822
57040SOL    HW173017   6.620   7.151   9.901
57040SOL    HW273018   6.547   7.122   9.771
57041SOL     OW73019   5.025   1.398   3.267
57041SOL    HW173020   5.046   1.358   3.183
57041SOL    HW273021   4.980   1.329   3.316
57042SOL     OW73022   8.750  14.750  11.167
57042SOL    HW173023   8.666  14.747  11.212
57042SOL    HW273024   8.766  14.659  11.141
57043SOL     OW73025  12.655   2.724  14.182
57043SOL    HW173026  12.728   2.783  14.163
57043SOL    HW273027  12.657   2.715  14.278
57044SOL     OW73028  10.136  10.163   8.768
57044SOL    HW173029  10.141  10.258   8.767
57044SOL    HW273030  10.045  10.143   8.790
57045SOL     OW73031   1.498  12.561   2.138
57045SOL    HW173032   1.529  12.483   2.184
57045SOL    HW273033   1.427  12.529   2.082
57046SOL     OW73034   2.100  13.793   8.915
57046SOL    HW173035   2.171  13.729   8.920
57046SOL    HW273036   2.081  13.815   9.006
57047SOL     OW73037   4.896  11.638   8.833
57047SOL    HW173038   4.828  11.572   8.841
57047SOL    HW273039   4.923  11.634   8.741
57048SOL     OW73040  13.225   1.071   7.095
57048SOL    HW173041  13.161   1.070   7.024
57048SOL    HW273042  13.181   1.028   7.168
57049SOL     OW73043  14.784   0.719  14.644
57049SOL    HW173044  14.850   0.654  14.620
57049SOL    HW273045  14.820   0.763  14.720
57050SOL     OW73046   4.891  11.088   4.529
57050SOL    HW173047   4.903  11.157   4.594
57050SOL    HW273048   4.812  11.042   4.557
57051SOL     OW73049  14.462   7.156   3.331
57051SOL    HW173050  14.482   7.130   3.421
57051SOL    HW273051  14.431   7.246   3.339
57052SOL     OW73052   2.092   4.333   2.242
57052SOL    HW173053   2.074   4.274   2.315
57052SOL    HW273054   2.015   4.389   2.237
57053SOL     OW73055   4.084   4.799   1.063
57053SOL    HW173056   4.076   4.706   1.081
57053SOL    HW273057   4.038   4.842   1.135
57054SOL     OW73058   2.746   3.421   4.362
57054SOL    HW173059   2.775   3.396   4.275
57054SOL    HW273060   2.823   3.410   4.418
57055SOL     OW73061  14.442  10.654  13.833
57055SOL    HW173062  14.460  10.606  13.752
57055SOL    HW273063  14.365  10.612  13.869
57056SOL     OW73064  14.086   6.311   9.406
57056SOL    HW173065  14.178   6.314   9.431
57056SOL    HW273066  14.059   6.403   9.401
57057SOL     OW73067   5.446   2.505   2.403
57057SOL    HW173068   5.541   2.513   2.393
57057SOL    HW273069   5.431   2.510   2.497
57058SOL     OW73070   6.835   9.361  13.590
57058SOL    HW173071   6.868   9.449  13.569
57058SOL    HW273072   6.910   9.304  13.576
57059SOL     OW73073  14.210   4.452   4.604
57059SOL    HW173074  14.271   4.509   4.651
57059SOL    HW273075  14.126   4.464   4.648
57060SOL     OW73076   0.053   2.157   3.000
57060SOL    HW173077  14.850   2.208   3.036
57060SOL    HW273078   0.123   2.222   2.988
57061SOL     OW73079   8.672   0.974  11.586
57061SOL    HW173080   8.699   1.048  11.532
57061SOL    HW273081   8.625   1.014  11.660
57062SOL     OW73082   5.489   9.545  11.412
57062SOL    HW173083   5.479   9.451  11.424
57062SOL    HW273084   5.407   9.574  11.371
57063SOL     OW73085   1.991  13.003  10.441
57063SOL    HW173086   1.962  12.918  10.475
57063SOL    HW273087   2.065  13.027  10.497
57064SOL     OW73088   8.361  14.734  10.755
57064SOL    HW173089   8.341  14.699  10.668
57064SOL    HW273090   8.297  14.803  10.769
57065SOL     OW73091   7.199   3.556   0.220
57065SOL    HW173092   7.151   3.639   0.221
57065SOL    HW273093   7.172   3.512   0.301
57066SOL     OW73094   0.757  14.556   2.063
57066SOL    HW173095   0.704  14.477   2.057
57066SOL    HW273096   0.768  14.584   1.972
57067SOL     OW73097   8.963   3.277   9.148
57067SOL    HW173098   8.885   3.288   9.202
57067SOL    HW273099   9.032   3.323   9.196
57068SOL     OW73100   3.495  12.740  10.455
57068SOL    HW173101   3.582  12.769  10.429
57068SOL    HW273102   3.498  12.740  10.551
57069SOL     OW73103  11.540   8.367   6.370
57069SOL    HW173104  11.623   8.349   6.327
57069SOL    HW273105  11.553   8.452   6.413
57070SOL     OW73106   7.474   8.123   0.715
57070SOL    HW173107   7.435   8.205   0.744
57070SOL    HW273108   7.518   8.089   0.793
57071SOL     OW73109   4.967  10.413   7.657
57071SOL    HW173110   4.961  10.338   7.598
57071SOL    HW273111   5.059  10.415   7.684
57072SOL     OW73112   6.249  10.884  10.543
57072SOL    HW173113   6.255  10.930  10.459
57072SOL    HW273114   6.259  10.953  10.609
57073SOL     OW73115   6.287  12.019   3.062
57073SOL    HW173116   6.368  12.066   3.079
57073SOL    HW273117   6.243  12.071   2.995
57074SOL     OW73118  14.234   9.193   2.599
57074SOL    HW173119  14.277   9.278   2.594
57074SOL    HW273120  14.198   9.189   2.687
57075SOL     OW73121   8.245   7.162   2.132
57075SOL    HW173122   8.335   7.187   2.108
57075SOL    HW273123   8.213   7.235   2.184
57076SOL     OW73124   2.786   2.130  11.090
57076SOL    HW173125   2.846   2.107  11.020
57076SOL    HW273126   2.758   2.046  11.126
57077SOL     OW73127   2.215  14.003  13.779
57077SOL    HW173128   2.138  14.039  13.735
57077SOL    HW273129   2.289  14.031  13.724
57078SOL     OW73130   2.469   6.358  10.042
57078SOL    HW173131   2.475   6.437   9.988
57078SOL    HW273132   2.499   6.386  10.128
57079SOL     OW73133   4.210   4.719   6.676
57079SOL    HW173134   4.231   4.780   6.605
57079SOL    HW273135   4.209   4.773   6.755
57080SOL     OW73136  10.768   9.231   6.663
57080SOL    HW173137  10.675   9.238   6.643
57080SOL    HW273138  10.805   9.183   6.588
57081SOL     OW73139   4.016   6.303  11.935
57081SOL    HW173140   3.952   6.279  11.868
57081SOL    HW273141   3.999   6.241  12.007
57082SOL     OW73142   1.598   3.899  12.208
57082SOL    HW173143   1.646   3.972  12.247
57082SOL    HW273144   1.508   3.910  12.239
57083SOL     OW73145   8.755   3.198   9.387
57083SOL    HW173146   8.750   3.287   9.422
57083SOL    HW273147   8.672   3.158   9.411
57084SOL     OW73148   4.289  13.352   4.771
57084SOL    HW173149   4.351  13.283   4.792
57084SOL    HW273150   4.338  13.433   4.783
57085SOL     OW73151   3.195  11.884  14.076
57085SOL    HW173152   3.162  11.824  14.010
57085SOL    HW273153   3.278  11.846  14.105
57086SOL     OW73154   2.218   7.256   0.245
57086SOL    HW173155   2.126   7.260   0.222
57086SOL    HW273156   2.263   7.234   0.163
57087SOL     OW73157  11.680   3.260   6.758
57087SOL    HW173158  11.667   3.340   6.707
57087SOL    HW273159  11.654   3.283   6.847
57088SOL     OW73160   5.403  13.465   5.848
57088SOL    HW173161   5.313  13.442   5.824
57088SOL    HW273162   5.413  13.556   5.819
57089SOL     OW73163   3.361   1.718   9.086
57089SOL    HW173164   3.404   1.669   9.016
57089SOL    HW273165   3.433   1.763   9.131
57090SOL     OW73166   2.955  11.642   8.967
57090SOL    HW173167   2.987  11.719   9.015
57090SOL    HW273168   2.951  11.671   8.876
57091SOL     OW73169   1.390   4.085   4.756
57091SOL    HW173170   1.353   4.063   4.670
57091SOL    HW273171   1.445   4.010   4.778
57092SOL     OW73172   4.328   2.579   1.658
57092SOL    HW173173   4.320   2.664   1.700
57092SOL    HW273174   4.249   2.532   1.685
57093SOL     OW73175  13.321   1.088   2.958
57093SOL    HW173176  13.406   1.052   2.933
57093SOL    HW273177  13.316   1.075   3.053
57094SOL     OW73178   7.271   6.372  14.842
57094SOL    HW173179   7.180   6.367  14.812
57094SOL    HW273180   7.286   6.287   0.016
57095SOL     OW73181  13.363   9.482   5.542
57095SOL    HW173182  13.352   9.575   5.560
57095SOL    HW273183  13.454   9.464   5.566
57096SOL     OW73184   9.894   2.842  11.460
57096SOL    HW173185   9.891   2.798  11.375
57096SOL    HW273186   9.802   2.849  11.486
57097SOL     OW73187  10.045   1.301  13.658
57097SOL    HW173188  10.137   1.295  13.633
57097SOL    HW273189  10.018   1.388  13.631
57098SOL     OW73190  13.813  14.152   2.013
57098SOL    HW173191  13.791  14.060   2.030
57098SOL    HW273192  13.905  14.149   1.985
57099SOL     OW73193   3.882  10.109   3.743
57099SOL    HW173194   3.796  10.080   3.711
57099SOL    HW273195   3.928  10.138   3.664
57100SOL     OW73196   4.179  14.509   5.057
57100SOL    HW173197   4.092  14.508   5.096
57100SOL    HW273198   4.164  14.527   4.964
57101SOL     OW73199   0.937  10.541   6.377
57101SOL    HW173200   0.879  10.616   6.365
57101SOL    HW273201   0.915  10.506   6.463
57102SOL     OW73202   7.406  13.650   6.751
57102SOL    HW173203   7.350  13.597   6.694
57102SOL    HW273204   7.488  13.601   6.757
57103SOL     OW73205   0.441   8.700   7.094
57103SOL    HW173206   0.371   8.714   7.030
57103SOL    HW273207   0.441   8.779   7.147
57104SOL     OW73208   6.270   4.229  13.798
57104SOL    HW173209   6.333   4.269  13.859
57104SOL    HW273210   6.275   4.283  13.719
57105SOL     OW73211   7.955   3.192   1.311
57105SOL    HW173212   7.955   3.286   1.292
57105SOL    HW273213   8.031   3.180   1.368
57106SOL     OW73214   9.552  11.821   3.109
57106SOL    HW173215   9.463  11.797   3.085
57106SOL    HW273216   9.562  11.912   3.080
57107SOL     OW73217   6.169   9.890  11.614
57107SOL    HW173218   6.106   9.829  11.576
57107SOL    HW273219   6.244   9.836  11.637
57108SOL     OW73220   1.730  14.362   4.221
57108SOL    HW173221   1.691  14.446   4.199
57108SOL    HW273222   1.717  14.353   4.315
57109SOL     OW73223   9.362  11.352   3.518
57109SOL    HW173224   9.378  11.262   3.490
57109SOL    HW273225   9.439  11.375   3.570
57110SOL     OW73226   4.065  11.331   1.534
57110SOL    HW173227   3.993  11.268   1.543
57110SOL    HW273228   4.122  11.314   1.610
57111SOL     OW73229   4.138   2.624  13.689
57111SOL    HW173230   4.158   2.550  13.631
57111SOL    HW273231   4.163   2.593  13.776
57112SOL     OW73232   7.179  11.955   1.617
57112SOL    HW173233   7.240  11.993   1.680
57112SOL    HW273234   7.139  11.881   1.663
57113SOL     OW73235   8.143   0.842   3.730
57113SOL    HW173236   8.091   0.907   3.684
57113SOL    HW273237   8.195   0.894   3.793
57114SOL     OW73238   7.717   1.555   5.168
57114SOL    HW173239   7.728   1.527   5.259
57114SOL    HW273240   7.629   1.525   5.144
57115SOL     OW73241   9.052   3.083  10.004
57115SOL    HW173242   9.030   3.154   9.944
57115SOL    HW273243   9.069   3.008   9.946
57116SOL     OW73244   2.067   9.369   0.354
57116SOL    HW173245   2.051   9.403   0.442
57116SOL    HW273246   2.146   9.415   0.324
57117SOL     OW73247   0.656   2.384   4.385
57117SOL    HW173248   0.710   2.343   4.318
57117SOL    HW273249   0.566   2.368   4.358
57118SOL     OW73250   2.324   2.942  11.508
57118SOL    HW173251   2.352   2.886  11.580
57118SOL    HW273252   2.234   2.915  11.490
57119SOL     OW73253   8.359   2.164   9.791
57119SOL    HW173254   8.328   2.075   9.771
57119SOL    HW273255   8.312   2.188   9.870
57120SOL     OW73256   4.794   4.199   4.292
57120SOL    HW173257   4.832   4.278   4.330
57120SOL    HW273258   4.868   4.138   4.286
57121SOL     OW73259   1.593   3.779   9.403
57121SOL    HW173260   1.561   3.767   9.492
57121SOL    HW273261   1.642   3.698   9.384
57122SOL     OW73262   4.967   9.782  11.103
57122SOL    HW173263   4.906   9.726  11.055
57122SOL    HW273264   5.048   9.777  11.053
57123SOL     OW73265  12.919  14.556  12.026
57123SOL    HW173266  12.947  14.608  11.951
57123SOL    HW273267  12.996  14.553  12.083
57124SOL     OW73268   1.620  10.472   5.020
57124SOL    HW173269   1.702  10.516   4.997
57124SOL    HW273270   1.627  10.386   4.979
57125SOL     OW73271  11.807  10.980   3.964
57125SOL    HW173272  11.822  11.050   3.901
57125SOL    HW273273  11.847  11.011   4.045
57126SOL     OW73274   2.502   7.492  13.460
57126SOL    HW173275   2.470   7.475  13.371
57126SOL    HW273276   2.589   7.528  13.447
57127SOL     OW73277   7.078   9.519   8.258
57127SOL    HW173278   7.032   9.596   8.225
57127SOL    HW273279   7.110   9.546   8.345
57128SOL     OW73280   2.454  13.223   1.931
57128SOL    HW173281   2.458  13.149   1.991
57128SOL    HW273282   2.480  13.187   1.847
57129SOL     OW73283   7.683  11.457   2.549
57129SOL    HW173284   7.655  11.378   2.596
57129SOL    HW273285   7.776  11.465   2.571
57130SOL     OW73286   8.071   2.512   7.600
57130SOL    HW173287   8.033   2.455   7.667
57130SOL    HW273288   8.078   2.456   7.523
57131SOL     OW73289   3.380   9.076  11.358
57131SOL    HW173290   3.320   9.015  11.400
57131SOL    HW273291   3.325   9.148  11.327
57132SOL     OW73292  12.187   6.079  12.045
57132SOL    HW173293  12.247   6.015  12.008
57132SOL    HW273294  12.154   6.039  12.125
57133SOL     OW73295   5.150   2.639   0.926
57133SOL    HW173296   5.147   2.579   1.001
57133SOL    HW273297   5.161   2.581   0.850
57134SOL     OW73298   0.640  14.543  14.214
57134SOL    HW173299   0.611  14.582  14.131
57134SOL    HW273300   0.608  14.453  14.210
57135SOL     OW73301   2.487  13.971   5.806
57135SOL    HW173302   2.505  14.065   5.803
57135SOL    HW273303   2.481  13.952   5.900
57136SOL     OW73304   2.740   2.260  10.287
57136SOL    HW173305   2.728   2.220  10.373
57136SOL    HW273306   2.833   2.282  10.283
57137SOL     OW73307   7.206   4.514  10.569
57137SOL    HW173308   7.213   4.486  10.478
57137SOL    HW273309   7.217   4.609  10.565
57138SOL     OW73310   3.959   8.106  14.158
57138SOL    HW173311   3.879   8.155  14.143
57138SOL    HW273312   4.023   8.145  14.097
57139SOL     OW73313  12.026  14.533  14.299
57139SOL    HW173314  11.958  14.503  14.238
57139SOL    HW273315  11.994  14.506  14.385
57140SOL     OW73316  12.882   6.717   1.624
57140SOL    HW173317  12.915   6.680   1.705
57140SOL    HW273318  12.861   6.642   1.569
57141SOL     OW73319  14.851  13.859   0.048
57141SOL    HW173320  14.806  13.779   0.021
57141SOL    HW273321   0.059  13.828   0.095
57142SOL     OW73322   9.321   7.163   5.407
57142SOL    HW173323   9.313   7.076   5.369
57142SOL    HW273324   9.397   7.157   5.465
57143SOL     OW73325  10.358   6.212  14.592
57143SOL    HW173326  10.306   6.238  14.516
57143SOL    HW273327  10.293   6.205  14.663
57144SOL     OW73328   2.906   8.603   2.972
57144SOL    HW173329   2.861   8.543   3.031
57144SOL    HW273330   2.998   8.596   2.995
57145SOL     OW73331   3.424   7.434   3.776
57145SOL    HW173332   3.435   7.373   3.849
57145SOL    HW273333   3.399   7.379   3.702
57146SOL     OW73334   3.874   8.260   4.548
57146SOL    HW173335   3.954   8.257   4.601
57146SOL    HW273336   3.903   8.289   4.462
57147SOL     OW73337  12.570  10.810  12.231
57147SOL    HW173338  12.475  10.816  12.220
57147SOL    HW273339  12.589  10.717  12.215
57148SOL     OW73340   8.098   4.769   7.884
57148SOL    HW173341   8.039   4.763   7.808
57148SOL    HW273342   8.078   4.854   7.923
57149SOL     OW73343   0.116  14.261   9.080
57149SOL    HW173344   0.119  14.174   9.119
57149SOL    HW273345   0.090  14.246   8.989
57150SOL     OW73346   6.655   3.734  10.129
57150SOL    HW173347   6.578   3.688  10.098
57150SOL    HW273348   6.629   3.770  10.214
57151SOL     OW73349  10.796   3.798   3.815
57151SOL    HW173350  10.735   3.843   3.758
57151SOL    HW273351  10.803   3.853   3.893
57152SOL     OW73352   5.893  10.225  14.121
57152SOL    HW173353   5.887  10.160  14.051
57152SOL    HW273354   5.926  10.304  14.078
57153SOL     OW73355   4.243  11.493   0.173
57153SOL    HW173356   4.209  11.492   0.262
57153SOL    HW273357   4.270  11.402   0.157
57154SOL     OW73358   5.229  11.584   6.168
57154SOL    HW173359   5.207  11.544   6.252
57154SOL    HW273360   5.319  11.615   6.179
57155SOL     OW73361   4.723   4.697   2.965
57155SOL    HW173362   4.743   4.611   2.927
57155SOL    HW273363   4.730   4.684   3.059
57156SOL     OW73364  13.497   9.016  11.330
57156SOL    HW173365  13.447   9.086  11.371
57156SOL    HW273366  13.480   9.026  11.237
57157SOL     OW73367  10.347   7.386   2.117
57157SOL    HW173368  10.287   7.380   2.043
57157SOL    HW273369  10.319   7.464   2.165
57158SOL     OW73370   2.040  10.295   4.224
57158SOL    HW173371   1.964  10.262   4.176
57158SOL    HW273372   2.005  10.324   4.308
57159SOL     OW73373   7.082  14.096   9.981
57159SOL    HW173374   7.081  14.036  10.055
57159SOL    HW273375   7.111  14.179  10.018
57160SOL     OW73376   1.378  13.893  12.282
57160SOL    HW173377   1.433  13.898  12.204
57160SOL    HW273378   1.302  13.947  12.262
57161SOL     OW73379   9.867  10.830   8.249
57161SOL    HW173380   9.893  10.780   8.171
57161SOL    HW273381   9.933  10.899   8.256
57162SOL     OW73382  14.425   7.227   8.068
57162SOL    HW173383  14.415   7.176   8.148
57162SOL    HW273384  14.359   7.296   8.075
57163SOL     OW73385   7.370   2.854   1.297
57163SOL    HW173386   7.300   2.826   1.238
57163SOL    HW273387   7.442   2.793   1.279
57164SOL     OW73388   2.380   1.247   9.761
57164SOL    HW173389   2.344   1.180   9.703
57164SOL    HW273390   2.312   1.260   9.827
57165SOL     OW73391   7.958  12.217   0.868
57165SOL    HW173392   7.917  12.176   0.944
57165SOL    HW273393   7.962  12.148   0.802
57166SOL     OW73394   9.705   3.903   6.317
57166SOL    HW173395   9.773   3.943   6.371
57166SOL    HW273396   9.739   3.909   6.227
57167SOL     OW73397   4.536  10.194   0.525
57167SOL    HW173398   4.544  10.139   0.447
57167SOL    HW273399   4.622  10.189   0.567
57168SOL     OW73400  10.762   1.607   4.799
57168SOL    HW173401  10.690   1.585   4.859
57168SOL    HW273402  10.774   1.528   4.746
57169SOL     OW73403   6.200   0.933  14.457
57169SOL    HW173404   6.115   0.971  14.478
57169SOL    HW273405   6.261   1.007  14.458
57170SOL     OW73406  10.882   5.595   1.478
57170SOL    HW173407  10.913   5.545   1.402
57170SOL    HW273408  10.914   5.547   1.554
57171SOL     OW73409   0.875   5.225   4.258
57171SOL    HW173410   0.963   5.264   4.259
57171SOL    HW273411   0.870   5.175   4.340
57172SOL     OW73412   1.019   9.801   3.624
57172SOL    HW173413   1.079   9.874   3.611
57172SOL    HW273414   1.074   9.723   3.620
57173SOL     OW73415  10.599   9.937   9.262
57173SOL    HW173416  10.649   9.999   9.209
57173SOL    HW273417  10.507   9.961   9.247
57174SOL     OW73418   1.273   6.269  12.570
57174SOL    HW173419   1.260   6.211  12.495
57174SOL    HW273420   1.233   6.352  12.543
57175SOL     OW73421   4.497   6.348  11.290
57175SOL    HW173422   4.515   6.303  11.208
57175SOL    HW273423   4.574   6.403  11.304
57176SOL     OW73424   1.710   5.070   2.946
57176SOL    HW173425   1.717   5.009   2.872
57176SOL    HW273426   1.754   5.026   3.018
57177SOL     OW73427   6.653  10.240  12.844
57177SOL    HW173428   6.587  10.198  12.788
57177SOL    HW273429   6.604  10.305  12.894
57178SOL     OW73430  12.978  14.708  10.869
57178SOL    HW173431  12.909  14.775  10.863
57178SOL    HW273432  12.936  14.628  10.838
57179SOL     OW73433  14.440  14.123   0.241
57179SOL    HW173434  14.485  14.057   0.188
57179SOL    HW273435  14.490  14.126   0.323
57180SOL     OW73436   6.776   7.477   8.531
57180SOL    HW173437   6.701   7.536   8.540
57180SOL    HW273438   6.831   7.497   8.608
57181SOL     OW73439   8.969   9.711  10.966
57181SOL    HW173440   9.030   9.637  10.964
57181SOL    HW273441   8.934   9.716  10.877
57182SOL     OW73442   1.910  13.642  10.608
57182SOL    HW173443   1.939  13.564  10.655
57182SOL    HW273444   1.920  13.713  10.672
57183SOL     OW73445  10.585  14.687   1.591
57183SOL    HW173446  10.538  14.771   1.589
57183SOL    HW273447  10.604  14.668   1.499
57184SOL     OW73448  10.545  13.977   8.218
57184SOL    HW173449  10.526  13.928   8.138
57184SOL    HW273450  10.561  13.910   8.285
57185SOL     OW73451   1.388  11.009   7.126
57185SOL    HW173452   1.356  10.926   7.161
57185SOL    HW273453   1.313  11.046   7.080
57186SOL     OW73454   1.454   3.652   9.082
57186SOL    HW173455   1.473   3.641   8.989
57186SOL    HW273456   1.405   3.573   9.105
57187SOL     OW73457   4.099  14.756  10.186
57187SOL    HW173458   4.182  14.710  10.192
57187SOL    HW273459   4.112  14.823  10.119
57188SOL     OW73460   7.588   5.145   7.200
57188SOL    HW173461   7.495   5.139   7.222
57188SOL    HW273462   7.610   5.059   7.164
57189SOL     OW73463   5.070  13.836   4.774
57189SOL    HW173464   5.156  13.871   4.798
57189SOL    HW273465   5.047  13.778   4.846
57190SOL     OW73466   7.000   1.691  12.822
57190SOL    HW173467   6.984   1.778  12.786
57190SOL    HW273468   7.070   1.703  12.886
57191SOL     OW73469  12.890   9.685   1.118
57191SOL    HW173470  12.819   9.711   1.061
57191SOL    HW273471  12.895   9.590   1.109
57192SOL     OW73472   8.189   6.132  13.253
57192SOL    HW173473   8.253   6.080  13.302
57192SOL    HW273474   8.201   6.221  13.284
57193SOL     OW73475   7.135   9.355   3.503
57193SOL    HW173476   7.092   9.436   3.533
57193SOL    HW273477   7.126   9.295   3.577
57194SOL     OW73478   8.451   3.412  12.191
57194SOL    HW173479   8.497   3.333  12.163
57194SOL    HW273480   8.430   3.458  12.110
57195SOL     OW73481   4.265  13.635  10.688
57195SOL    HW173482   4.289  13.693  10.616
57195SOL    HW273483   4.316  13.667  10.762
57196SOL     OW73484   0.690   4.792  10.086
57196SOL    HW173485   0.752   4.863  10.103
57196SOL    HW273486   0.648   4.775  10.170
57197SOL     OW73487  13.215   7.229   2.468
57197SOL    HW173488  13.133   7.274   2.491
57197SOL    HW273489  13.193   7.176   2.392
57198SOL     OW73490   8.767   0.208  13.739
57198SOL    HW173491   8.685   0.239  13.702
57198SOL    HW273492   8.742   0.166  13.822
57199SOL     OW73493  11.967   1.965   6.426
57199SOL    HW173494  12.037   1.903   6.404
57199SOL    HW273495  11.927   1.987   6.342
57200SOL     OW73496  11.384   2.741   4.428
57200SOL    HW173497  11.349   2.659   4.461
57200SOL    HW273498  11.475   2.721   4.405
57201SOL     OW73499   4.792   7.269   9.259
57201SOL    HW173500   4.828   7.301   9.177
57201SOL    HW273501   4.697   7.264   9.243
57202SOL     OW73502  12.441   3.634  11.483
57202SOL    HW173503  12.477   3.546  11.474
57202SOL    HW273504  12.347   3.622  11.479
57203SOL     OW73505  12.361   4.123  14.025
57203SOL    HW173506  12.424   4.195  14.032
57203SOL    HW273507  12.284   4.153  14.073
57204SOL     OW73508   8.456  12.661   2.884
57204SOL    HW173509   8.509  12.596   2.839
57204SOL    HW273510   8.503  12.680   2.965
57205SOL     OW73511  11.817  13.061  14.639
57205SOL    HW173512  11.830  13.106  14.555
57205SOL    HW273513  11.788  12.973  14.615
57206SOL     OW73514   8.475   1.329   6.869
57206SOL    HW173515   8.424   1.399   6.909
57206SOL    HW273516   8.566   1.359   6.874
57207SOL     OW73517  11.792  11.467   0.967
57207SOL    HW173518  11.788  11.372   0.979
57207SOL    HW273519  11.798  11.480   0.873
57208SOL     OW73520  13.711   5.604   3.242
57208SOL    HW173521  13.689   5.624   3.333
57208SOL    HW273522  13.663   5.523   3.223
57209SOL     OW73523  11.859   5.777   5.775
57209SOL    HW173524  11.932   5.744   5.721
57209SOL    HW273525  11.788   5.792   5.712
57210SOL     OW73526  14.509  10.056   8.483
57210SOL    HW173527  14.467  10.118   8.424
57210SOL    HW273528  14.527  10.107   8.562
57211SOL     OW73529  10.423   1.615   2.509
57211SOL    HW173530  10.406   1.568   2.590
57211SOL    HW273531  10.516   1.599   2.491
57212SOL     OW73532   1.780   0.996  10.459
57212SOL    HW173533   1.826   0.912  10.461
57212SOL    HW273534   1.833   1.050  10.399
57213SOL     OW73535   4.903   5.914   5.576
57213SOL    HW173536   4.989   5.882   5.549
57213SOL    HW273537   4.895   6.000   5.535
57214SOL     OW73538   1.769   0.300  14.630
57214SOL    HW173539   1.794   0.319  14.720
57214SOL    HW273540   1.677   0.326  14.624
57215SOL     OW73541   7.705  13.565   4.713
57215SOL    HW173542   7.656  13.647   4.708
57215SOL    HW273543   7.713  13.548   4.807
57216SOL     OW73544   6.245   7.936  11.627
57216SOL    HW173545   6.248   7.935  11.531
57216SOL    HW273546   6.327   7.895  11.654
57217SOL     OW73547   1.750   0.865  10.725
57217SOL    HW173548   1.782   0.898  10.641
57217SOL    HW273549   1.664   0.828  10.705
57218SOL     OW73550  10.881   6.446   3.715
57218SOL    HW173551  10.850   6.392   3.642
57218SOL    HW273552  10.977   6.441   3.710
57219SOL     OW73553   2.733   8.652   6.898
57219SOL    HW173554   2.800   8.586   6.878
57219SOL    HW273555   2.654   8.619   6.855
57220SOL     OW73556   9.874   2.486   1.164
57220SOL    HW173557   9.812   2.413   1.160
57220SOL    HW273558   9.948   2.457   1.110
57221SOL     OW73559   1.449   0.222   4.112
57221SOL    HW173560   1.461   0.203   4.205
57221SOL    HW273561   1.503   0.156   4.067
57222SOL     OW73562   5.723  13.016   6.493
57222SOL    HW173563   5.737  13.040   6.401
57222SOL    HW273564   5.810  13.020   6.532
57223SOL     OW73565  14.031  10.320  13.884
57223SOL    HW173566  13.960  10.255  13.879
57223SOL    HW273567  14.011  10.383  13.815
57224SOL     OW73568  14.680   3.575  10.844
57224SOL    HW173569  14.703   3.663  10.874
57224SOL    HW273570  14.654   3.528  10.923
57225SOL     OW73571   3.473   3.481   2.688
57225SOL    HW173572   3.488   3.512   2.777
57225SOL    HW273573   3.443   3.559   2.641
57226SOL     OW73574  10.965   3.527  12.190
57226SOL    HW173575  11.037   3.590  12.183
57226SOL    HW273576  10.971   3.474  12.111
57227SOL     OW73577  13.368   3.092   7.650
57227SOL    HW173578  13.310   3.165   7.630
57227SOL    HW273579  13.416   3.121   7.728
57228SOL     OW73580  12.498   8.591   3.736
57228SOL    HW173581  12.515   8.634   3.653
57228SOL    HW273582  12.419   8.539   3.721
57229SOL     OW73583   5.423   1.078   9.774
57229SOL    HW173584   5.353   1.016   9.751
57229SOL    HW273585   5.385   1.131   9.844
57230SOL     OW73586   6.097   7.441  11.074
57230SOL    HW173587   6.034   7.400  11.014
57230SOL    HW273588   6.043   7.476  11.144
57231SOL     OW73589  10.419   5.331   3.097
57231SOL    HW173590  10.450   5.421   3.105
57231SOL    HW273591  10.332   5.331   3.138
57232SOL     OW73592  13.601   8.418  14.652
57232SOL    HW173593  13.510   8.399  14.678
57232SOL    HW273594  13.613   8.370  14.570
57233SOL     OW73595  14.831   8.906   8.273
57233SOL    HW173596   0.016   8.843   8.320
57233SOL    HW273597   0.020   8.946   8.209
57234SOL     OW73598   5.386  10.024   7.882
57234SOL    HW173599   5.299  10.048   7.913
57234SOL    HW273600   5.392  10.061   7.794
57235SOL     OW73601   5.554   3.040   1.422
57235SOL    HW173602   5.642   3.045   1.384
57235SOL    HW273603   5.501   2.999   1.354
57236SOL     OW73604   1.981  14.047   2.317
57236SOL    HW173605   1.898  14.067   2.360
57236SOL    HW273606   2.047  14.090   2.371
57237SOL     OW73607  10.170   5.307   6.197
57237SOL    HW173608  10.196   5.349   6.115
57237SOL    HW273609  10.076   5.325   6.204
57238SOL     OW73610  14.117   6.281  10.072
57238SOL    HW173611  14.077   6.228  10.004
57238SOL    HW273612  14.206   6.246  10.081
57239SOL     OW73613   7.134   8.691   7.609
57239SOL    HW173614   7.115   8.600   7.633
57239SOL    HW273615   7.226   8.703   7.632
57240SOL     OW73616  13.567   2.542   4.865
57240SOL    HW173617  13.499   2.607   4.850
57240SOL    HW273618  13.567   2.529   4.960
57241SOL     OW73619  13.405   0.606   8.538
57241SOL    HW173620  13.326   0.641   8.578
57241SOL    HW273621  13.455   0.683   8.512
57242SOL     OW73622   0.785   3.362  11.254
57242SOL    HW173623   0.815   3.334  11.341
57242SOL    HW273624   0.692   3.379  11.266
57243SOL     OW73625   8.890   1.635   3.273
57243SOL    HW173626   8.846   1.712   3.237
57243SOL    HW273627   8.978   1.639   3.235
57244SOL     OW73628  13.350  12.681   4.872
57244SOL    HW173629  13.267  12.725   4.891
57244SOL    HW273630  13.327  12.612   4.810
57245SOL     OW73631   3.081  12.054  11.255
57245SOL    HW173632   3.175  12.066  11.270
57245SOL    HW273633   3.077  11.999  11.176
57246SOL     OW73634   7.976   3.982  12.478
57246SOL    HW173635   8.055   3.945  12.518
57246SOL    HW273636   7.910   3.913  12.486
57247SOL     OW73637   4.851   7.913  11.433
57247SOL    HW173638   4.895   7.918  11.518
57247SOL    HW273639   4.913   7.952  11.372
57248SOL     OW73640   6.780  10.522   2.033
57248SOL    HW173641   6.766  10.432   2.063
57248SOL    HW273642   6.867  10.545   2.064
57249SOL     OW73643   7.109  12.067   8.687
57249SOL    HW173644   7.107  12.149   8.638
57249SOL    HW273645   7.030  12.068   8.740
57250SOL     OW73646  10.176   9.186  13.002
57250SOL    HW173647  10.177   9.207  12.909
57250SOL    HW273648  10.262   9.211  13.034
57251SOL     OW73649  13.146   7.531  12.810
57251SOL    HW173650  13.112   7.518  12.898
57251SOL    HW273651  13.237   7.504  12.814
57252SOL     OW73652   5.708   2.943  11.299
57252SOL    HW173653   5.694   3.012  11.234
57252SOL    HW273654   5.799   2.955  11.328
57253SOL     OW73655   7.018   1.259   6.110
57253SOL    HW173656   6.971   1.275   6.192
57253SOL    HW273657   7.109   1.250   6.136
57254SOL     OW73658  13.070   2.118   2.066
57254SOL    HW173659  13.037   2.202   2.099
57254SOL    HW273660  13.010   2.096   1.995
57255SOL     OW73661  14.388  13.218   5.741
57255SOL    HW173662  14.436  13.137   5.757
57255SOL    HW273663  14.300  13.190   5.717
57256SOL     OW73664  14.061   0.913   5.948
57256SOL    HW173665  14.058   0.923   5.853
57256SOL    HW273666  14.145   0.869   5.964
57257SOL     OW73667   7.936  10.857  11.637
57257SOL    HW173668   7.963  10.939  11.678
57257SOL    HW273669   7.862  10.881  11.581
57258SOL     OW73670   6.291  10.042   7.219
57258SOL    HW173671   6.355  10.098   7.177
57258SOL    HW273672   6.343   9.982   7.273
57259SOL     OW73673   8.151   2.517   8.168
57259SOL    HW173674   8.220   2.504   8.104
57259SOL    HW273675   8.196   2.547   8.247
57260SOL     OW73676   4.911   7.472   1.265
57260SOL    HW173677   4.830   7.421   1.266
57260SOL    HW273678   4.882   7.562   1.252
57261SOL     OW73679   7.359   0.111   3.097
57261SOL    HW173680   7.291   0.149   3.042
57261SOL    HW273681   7.420   0.070   3.036
57262SOL     OW73682  14.842  12.046  13.201
57262SOL    HW173683  14.775  12.115  13.203
57262SOL    HW273684   0.003  12.041  13.291
57263SOL     OW73685   9.096   0.413   7.692
57263SOL    HW173686   9.061   0.486   7.744
57263SOL    HW273687   9.124   0.349   7.757
57264SOL     OW73688  11.120   0.010   3.690
57264SOL    HW173689  11.162   0.062   3.621
57264SOL    HW273690  11.192  14.856   3.749
57265SOL     OW73691   2.400   1.525   3.341
57265SOL    HW173692   2.358   1.598   3.387
57265SOL    HW273693   2.327   1.470   3.310
57266SOL     OW73694   5.160   0.638   9.921
57266SOL    HW173695   5.163   0.609  10.012
57266SOL    HW273696   5.243   0.608   9.884
57267SOL     OW73697   6.025   5.530   7.673
57267SOL    HW173698   5.950   5.581   7.704
57267SOL    HW273699   6.094   5.550   7.735
57268SOL     OW73700  13.477   0.208   9.584
57268SOL    HW173701  13.394   0.255   9.585
57268SOL    HW273702  13.483   0.170   9.496
57269SOL     OW73703   7.402   8.961   2.762
57269SOL    HW173704   7.485   8.986   2.721
57269SOL    HW273705   7.362   9.044   2.788
57270SOL     OW73706   4.696   6.790   6.001
57270SOL    HW173707   4.753   6.782   5.925
57270SOL    HW273708   4.607   6.783   5.966
57271SOL     OW73709   2.523   0.169   8.960
57271SOL    HW173710   2.577   0.090   8.954
57271SOL    HW273711   2.579   0.232   9.004
57272SOL     OW73712   0.476  10.066  11.308
57272SOL    HW173713   0.383  10.089  11.311
57272SOL    HW273714   0.511  10.096  11.392
57273SOL     OW73715   9.553  11.990   8.232
57273SOL    HW173716   9.462  12.004   8.205
57273SOL    HW273717   9.561  12.038   8.314
57274SOL     OW73718   4.313   1.218   4.491
57274SOL    HW173719   4.342   1.128   4.506
57274SOL    HW273720   4.360   1.246   4.412
57275SOL     OW73721   3.080   7.522   5.769
57275SOL    HW173722   3.030   7.530   5.850
57275SOL    HW273723   3.170   7.507   5.798
57276SOL     OW73724  12.018  13.945   9.940
57276SOL    HW173725  12.024  13.858   9.980
57276SOL    HW273726  11.932  13.978   9.965
57277SOL     OW73727  13.114  12.790  11.256
57277SOL    HW173728  13.206  12.771  11.239
57277SOL    HW273729  13.102  12.771  11.349
57278SOL     OW73730   5.405   8.402   4.802
57278SOL    HW173731   5.343   8.403   4.875
57278SOL    HW273732   5.390   8.318   4.759
57279SOL     OW73733   5.143   4.424   0.941
57279SOL    HW173734   5.230   4.420   0.901
57279SOL    HW273735   5.145   4.503   0.995
57280SOL     OW73736   1.934  14.264   0.309
57280SOL    HW173737   1.948  14.233   0.220
57280SOL    HW273738   2.003  14.221   0.360
57281SOL     OW73739   0.334   4.437   4.032
57281SOL    HW173740   0.412   4.382   4.022
57281SOL    HW273741   0.359   4.501   4.099
57282SOL     OW73742   9.695  12.508   8.550
57282SOL    HW173743   9.785  12.536   8.568
57282SOL    HW273744   9.704  12.432   8.493
57283SOL     OW73745   6.278  11.574  10.430
57283SOL    HW173746   6.300  11.620  10.349
57283SOL    HW273747   6.281  11.481  10.406
57284SOL     OW73748   3.764   6.045   8.716
57284SOL    HW173749   3.761   6.115   8.782
57284SOL    HW273750   3.744   5.965   8.765
57285SOL     OW73751   8.634   0.804  10.969
57285SOL    HW173752   8.583   0.806  10.887
57285SOL    HW273753   8.598   0.876  11.021
57286SOL     OW73754   4.625   6.854   7.383
57286SOL    HW173755   4.699   6.854   7.322
57286SOL    HW273756   4.549   6.875   7.329
57287SOL     OW73757  13.254   1.393   5.847
57287SOL    HW173758  13.324   1.433   5.898
57287SOL    HW273759  13.272   1.299   5.851
57288SOL     OW73760  12.390   6.961   3.751
57288SOL    HW173761  12.468   6.967   3.697
57288SOL    HW273762  12.375   7.051   3.781
57289SOL     OW73763   1.174  13.894   5.228
57289SOL    HW173764   1.192  13.821   5.288
57289SOL    HW273765   1.090  13.929   5.258
57290SOL     OW73766  10.133   9.032  12.514
57290SOL    HW173767  10.054   9.049  12.565
57290SOL    HW273768  10.178   8.962  12.562
57291SOL     OW73769   1.513  13.447  14.481
57291SOL    HW173770   1.485  13.428  14.571
57291SOL    HW273771   1.531  13.541  14.480
57292SOL     OW73772  14.570  14.500   9.591
57292SOL    HW173773  14.535  14.555   9.521
57292SOL    HW273774  14.495  14.483   9.648
57293SOL     OW73775  11.757   9.057   4.389
57293SOL    HW173776  11.713   9.122   4.334
57293SOL    HW273777  11.747   9.090   4.478
57294SOL     OW73778   1.151   4.132   9.249
57294SOL    HW173779   1.104   4.215   9.259
57294SOL    HW273780   1.236   4.157   9.212
57295SOL     OW73781   0.469   0.574   0.675
57295SOL    HW173782   0.428   0.506   0.728
57295SOL    HW273783   0.520   0.625   0.737
57296SOL     OW73784   0.274  10.028   7.037
57296SOL    HW173785   0.291   9.938   7.010
57296SOL    HW273786   0.356  10.074   7.019
57297SOL     OW73787  14.233  12.313  11.215
57297SOL    HW173788  14.206  12.395  11.175
57297SOL    HW273789  14.218  12.247  11.147
57298SOL     OW73790   9.976   8.563   7.958
57298SOL    HW173791   9.941   8.505   8.026
57298SOL    HW273792   9.942   8.650   7.982
57299SOL     OW73793   9.793   8.539   1.152
57299SOL    HW173794   9.852   8.470   1.182
57299SOL    HW273795   9.783   8.523   1.059
57300SOL     OW73796   2.802   0.016   1.672
57300SOL    HW173797   2.824  14.809   1.619
57300SOL    HW273798   2.718   0.045   1.639
57301SOL     OW73799   1.770   8.380   2.375
57301SOL    HW173800   1.842   8.439   2.399
57301SOL    HW273801   1.745   8.338   2.457
57302SOL     OW73802  14.381   8.348  12.424
57302SOL    HW173803  14.288   8.355  12.404
57302SOL    HW273804  14.392   8.401  12.504
57303SOL     OW73805   1.824   7.941  12.417
57303SOL    HW173806   1.794   8.016  12.469
57303SOL    HW273807   1.919   7.946  12.419
57304SOL     OW73808   3.290   6.108   3.059
57304SOL    HW173809   3.273   6.020   3.025
57304SOL    HW273810   3.385   6.112   3.068
57305SOL     OW73811   1.000   8.759   1.551
57305SOL    HW173812   0.910   8.782   1.573
57305SOL    HW273813   1.034   8.836   1.505
57306SOL     OW73814  10.800  11.873  10.878
57306SOL    HW173815  10.706  11.881  10.890
57306SOL    HW273816  10.810  11.826  10.795
57307SOL     OW73817   6.821  11.179   7.079
57307SOL    HW173818   6.797  11.213   7.165
57307SOL    HW273819   6.746  11.128   7.051
57308SOL     OW73820   8.022   5.584   6.813
57308SOL    HW173821   8.034   5.515   6.878
57308SOL    HW273822   7.997   5.537   6.733
57309SOL     OW73823   9.391   0.769  13.794
57309SOL    HW173824   9.352   0.854  13.770
57309SOL    HW273825   9.320   0.706  13.780
57310SOL     OW73826  11.295  13.393  10.988
57310SOL    HW173827  11.328  13.441  10.912
57310SOL    HW273828  11.203  13.375  10.967
57311SOL     OW73829  10.158   4.566   7.359
57311SOL    HW173830  10.211   4.529   7.429
57311SOL    HW273831  10.072   4.582   7.399
57312SOL     OW73832   2.200   8.799   3.425
57312SOL    HW173833   2.287   8.825   3.454
57312SOL    HW273834   2.215   8.736   3.354
57313SOL     OW73835  12.815  11.837   1.109
57313SOL    HW173836  12.739  11.854   1.164
57313SOL    HW273837  12.783  11.850   1.019
57314SOL     OW73838   6.464  12.687   8.004
57314SOL    HW173839   6.539  12.634   8.031
57314SOL    HW273840   6.503  12.760   7.955
57315SOL     OW73841   2.071   2.219   2.162
57315SOL    HW173842   2.050   2.309   2.136
57315SOL    HW273843   1.997   2.192   2.216
57316SOL     OW73844   5.870   9.924  12.107
57316SOL    HW173845   5.867  10.015  12.136
57316SOL    HW273846   5.779   9.902  12.086
57317SOL     OW73847   7.891   7.487   7.997
57317SOL    HW173848   7.917   7.556   7.936
57317SOL    HW273849   7.823   7.438   7.950
57318SOL     OW73850  14.434   7.708  14.789
57318SOL    HW173851  14.436   7.802  14.772
57318SOL    HW273852  14.515   7.675  14.750
57319SOL     OW73853   0.134  13.439   0.469
57319SOL    HW173854   0.045  13.423   0.438
57319SOL    HW273855   0.130  13.420   0.563
57320SOL     OW73856   7.576  10.893  13.291
57320SOL    HW173857   7.543  10.804  13.279
57320SOL    HW273858   7.499  10.946  13.309
57321SOL     OW73859  11.512   6.143   3.574
57321SOL    HW173860  11.422   6.174   3.570
57321SOL    HW273861  11.545   6.177   3.657
57322SOL     OW73862   3.393   4.407   4.265
57322SOL    HW173863   3.340   4.342   4.218
57322SOL    HW273864   3.340   4.487   4.263
57323SOL     OW73865   7.984  12.619   4.313
57323SOL    HW173866   7.985  12.689   4.377
57323SOL    HW273867   7.910  12.564   4.338
57324SOL     OW73868  12.126   1.211   5.439
57324SOL    HW173869  12.095   1.302   5.443
57324SOL    HW273870  12.055   1.160   5.478
57325SOL     OW73871   1.418   6.895   3.710
57325SOL    HW173872   1.373   6.916   3.792
57325SOL    HW273873   1.473   6.820   3.731
57326SOL     OW73874   8.672   4.921   5.837
57326SOL    HW173875   8.726   4.995   5.811
57326SOL    HW273876   8.587   4.938   5.796
57327SOL     OW73877   4.610  10.874   7.317
57327SOL    HW173878   4.666  10.911   7.249
57327SOL    HW273879   4.598  10.783   7.292
57328SOL     OW73880   4.525   4.594  11.669
57328SOL    HW173881   4.585   4.520  11.658
57328SOL    HW273882   4.440   4.554  11.686
57329SOL     OW73883   6.105   8.605   8.774
57329SOL    HW173884   6.174   8.650   8.726
57329SOL    HW273885   6.147   8.528   8.811
57330SOL     OW73886   2.484   2.867  11.125
57330SOL    HW173887   2.521   2.793  11.173
57330SOL    HW273888   2.560   2.915  11.093
57331SOL     OW73889   2.303   2.945   1.609
57331SOL    HW173890   2.228   2.983   1.563
57331SOL    HW273891   2.277   2.855   1.626
57332SOL     OW73892  10.875   9.471   0.374
57332SOL    HW173893  10.934   9.406   0.412
57332SOL    HW273894  10.802   9.476   0.436
57333SOL     OW73895   9.481  12.684  10.320
57333SOL    HW173896   9.480  12.769  10.364
57333SOL    HW273897   9.565  12.681  10.276
57334SOL     OW73898   2.412   8.040   9.568
57334SOL    HW173899   2.405   7.958   9.617
57334SOL    HW273900   2.492   8.081   9.600
57335SOL     OW73901  12.849   0.861   3.114
57335SOL    HW173902  12.863   0.788   3.053
57335SOL    HW273903  12.757   0.856   3.137
57336SOL     OW73904  10.883   9.701   1.839
57336SOL    HW173905  10.948   9.701   1.909
57336SOL    HW273906  10.922   9.649   1.770
57337SOL     OW73907   2.176  12.364   8.436
57337SOL    HW173908   2.257  12.377   8.485
57337SOL    HW273909   2.127  12.446   8.449
57338SOL     OW73910   6.274  13.478   3.394
57338SOL    HW173911   6.182  13.493   3.417
57338SOL    HW273912   6.303  13.560   3.354
57339SOL     OW73913   8.214   4.767  12.970
57339SOL    HW173914   8.263   4.794  13.048
57339SOL    HW273915   8.281   4.732  12.911
57340SOL     OW73916  12.695   8.479   8.993
57340SOL    HW173917  12.609   8.475   9.034
57340SOL    HW273918  12.740   8.401   9.025
57341SOL     OW73919  11.592   2.606   9.569
57341SOL    HW173920  11.500   2.633   9.562
57341SOL    HW273921  11.634   2.642   9.491
57342SOL     OW73922   4.188   9.962   0.334
57342SOL    HW173923   4.248   9.972   0.408
57342SOL    HW273924   4.161  10.051   0.311
57343SOL     OW73925   3.702  10.334  10.820
57343SOL    HW173926   3.751  10.404  10.778
57343SOL    HW273927   3.650  10.295  10.750
57344SOL     OW73928  12.498   6.448   1.374
57344SOL    HW173929  12.545   6.530   1.386
57344SOL    HW273930  12.556   6.394   1.320
57345SOL     OW73931   4.169  11.221  12.933
57345SOL    HW173932   4.143  11.130  12.919
57345SOL    HW273933   4.086  11.268  12.944
57346SOL     OW73934   9.378   1.421  14.607
57346SOL    HW173935   9.429   1.346  14.579
57346SOL    HW273936   9.369   1.475  14.528
57347SOL     OW73937   7.009   9.923  12.245
57347SOL    HW173938   7.025   9.914  12.339
57347SOL    HW273939   6.918   9.952  12.239
57348SOL     OW73940   4.743  12.612   0.975
57348SOL    HW173941   4.741  12.569   1.061
57348SOL    HW273942   4.691  12.692   0.986
57349SOL     OW73943   8.524   6.590   9.441
57349SOL    HW173944   8.485   6.674   9.419
57349SOL    HW273945   8.506   6.578   9.534
57350SOL     OW73946   4.038   7.066  11.179
57350SOL    HW173947   3.987   7.145  11.163
57350SOL    HW273948   4.047   7.061  11.274
57351SOL     OW73949   7.142   2.521   6.346
57351SOL    HW173950   7.097   2.596   6.386
57351SOL    HW273951   7.125   2.448   6.406
57352SOL     OW73952   8.607   4.596   1.934
57352SOL    HW173953   8.601   4.576   2.027
57352SOL    HW273954   8.582   4.689   1.928
57353SOL     OW73955   7.595   0.838  14.726
57353SOL    HW173956   7.510   0.825  14.768
57353SOL    HW273957   7.632   0.750  14.719
57354SOL     OW73958   7.348   9.689   9.533
57354SOL    HW173959   7.375   9.597   9.530
57354SOL    HW273960   7.284   9.698   9.461
57355SOL     OW73961  12.094  11.885  12.905
57355SOL    HW173962  12.050  11.958  12.949
57355SOL    HW273963  12.046  11.874  12.823
57356SOL     OW73964   4.924  13.573  13.918
57356SOL    HW173965   4.898  13.502  13.859
57356SOL    HW273966   4.907  13.653  13.868
57357SOL     OW73967   0.773   1.948   1.426
57357SOL    HW173968   0.734   2.034   1.412
57357SOL    HW273969   0.863   1.957   1.397
57358SOL     OW73970   1.600  14.848  13.814
57358SOL    HW173971   1.654  14.778  13.777
57358SOL    HW273972   1.551   0.013  13.739
57359SOL     OW73973   2.415   5.712   5.155
57359SOL    HW173974   2.362   5.792   5.155
57359SOL    HW273975   2.351   5.641   5.157
57360SOL     OW73976   9.128   3.018   2.867
57360SOL    HW173977   9.048   2.988   2.823
57360SOL    HW273978   9.097   3.059   2.948
57361SOL     OW73979  13.713  10.006  14.732
57361SOL    HW173980  13.735   9.957  14.811
57361SOL    HW273981  13.653   9.949  14.684
57362SOL     OW73982  10.603   8.075   3.376
57362SOL    HW173983  10.664   8.010   3.411
57362SOL    HW273984  10.518   8.032   3.381
57363SOL     OW73985   7.664  11.681   1.576
57363SOL    HW173986   7.668  11.609   1.513
57363SOL    HW273987   7.589  11.660   1.632
57364SOL     OW73988   7.099  11.811  12.437
57364SOL    HW173989   7.084  11.838  12.346
57364SOL    HW273990   7.018  11.766  12.463
57365SOL     OW73991  11.930  12.580   7.062
57365SOL    HW173992  11.971  12.495   7.043
57365SOL    HW273993  11.970  12.640   6.999
57366SOL     OW73994  11.495   5.088   5.207
57366SOL    HW173995  11.479   5.149   5.135
57366SOL    HW273996  11.444   5.010   5.183
57367SOL     OW73997   6.684   7.478   3.305
57367SOL    HW173998   6.737   7.399   3.319
57367SOL    HW273999   6.609   7.447   3.254
57368SOL     OW74000   0.140   0.605  14.286
57368SOL    HW174001   0.114   0.586  14.376
57368SOL    HW274002   0.092   0.684  14.262
57369SOL     OW74003  14.213   7.409  11.097
57369SOL    HW174004  14.246   7.323  11.120
57369SOL    HW274005  14.206   7.456  11.181
57370SOL     OW74006  12.548   2.478   5.356
57370SOL    HW174007  12.492   2.479   5.434
57370SOL    HW274008  12.628   2.434   5.384
57371SOL     OW74009  10.140   3.936   4.401
57371SOL    HW174010  10.137   3.902   4.490
57371SOL    HW274011  10.086   4.015   4.404
57372SOL     OW74012   4.891   1.139   7.153
57372SOL    HW174013   4.876   1.057   7.105
57372SOL    HW274014   4.834   1.132   7.230
57373SOL     OW74015   0.375   9.314   6.641
57373SOL    HW174016   0.437   9.304   6.569
57373SOL    HW274017   0.330   9.396   6.623
57374SOL     OW74018   7.752  12.069   4.697
57374SOL    HW174019   7.783  11.981   4.720
57374SOL    HW274020   7.832  12.119   4.683
57375SOL     OW74021  13.811   1.786   2.449
57375SOL    HW174022  13.870   1.751   2.516
57375SOL    HW274023  13.786   1.872   2.482
57376SOL     OW74024   3.005   1.002  10.982
57376SOL    HW174025   2.976   0.922  10.938
57376SOL    HW274026   3.064   0.971  11.051
57377SOL     OW74027  11.897   2.710   4.221
57377SOL    HW174028  11.971   2.753   4.179
57377SOL    HW274029  11.838   2.688   4.149
57378SOL     OW74030   2.514   2.196   5.692
57378SOL    HW174031   2.552   2.204   5.779
57378SOL    HW274032   2.587   2.168   5.636
57379SOL     OW74033   6.364  12.938   3.180
57379SOL    HW174034   6.364  12.924   3.085
57379SOL    HW274035   6.271  12.933   3.204
57380SOL     OW74036   2.654  14.841   4.501
57380SOL    HW174037   2.747  14.825   4.484
57380SOL    HW274038   2.652   0.014   4.586
57381SOL     OW74039   1.824   2.895  12.535
57381SOL    HW174040   1.885   2.829  12.500
57381SOL    HW274041   1.777   2.927  12.458
57382SOL     OW74042  11.333  14.834  14.292
57382SOL    HW174043  11.361  14.790  14.212
57382SOL    HW274044  11.250  14.792  14.315
57383SOL     OW74045  10.506  10.035  13.754
57383SOL    HW174046  10.502  10.111  13.696
57383SOL    HW274047  10.490   9.961  13.696
57384SOL     OW74048   4.534   2.402  12.623
57384SOL    HW174049   4.599   2.365  12.683
57384SOL    HW274050   4.586   2.441  12.552
57385SOL     OW74051  13.142  14.478   4.617
57385SOL    HW174052  13.115  14.387   4.604
57385SOL    HW274053  13.099  14.505   4.698
57386SOL     OW74054   1.376   5.462   2.965
57386SOL    HW174055   1.336   5.413   3.036
57386SOL    HW274056   1.417   5.395   2.909
57387SOL     OW74057   1.552   0.859  12.226
57387SOL    HW174058   1.572   0.796  12.156
57387SOL    HW274059   1.513   0.934  12.181
57388SOL     OW74060  12.624   9.871   2.099
57388SOL    HW174061  12.572   9.824   2.164
57388SOL    HW274062  12.662   9.945   2.146
57389SOL     OW74063  12.257   9.310   0.375
57389SOL    HW174064  12.305   9.306   0.457
57389SOL    HW274065  12.323   9.290   0.308
57390SOL     OW74066  13.371  10.203  12.846
57390SOL    HW174067  13.372  10.296  12.823
57390SOL    HW274068  13.461  10.174  12.832
57391SOL     OW74069  11.834   8.803   7.510
57391SOL    HW174070  11.888   8.757   7.574
57391SOL    HW274071  11.768   8.848   7.563
57392SOL     OW74072   1.402   9.935   3.801
57392SOL    HW174073   1.373   9.867   3.740
57392SOL    HW274074   1.471   9.893   3.852
57393SOL     OW74075   1.858   3.308  14.537
57393SOL    HW174076   1.931   3.346  14.586
57393SOL    HW274077   1.817   3.383  14.494
57394SOL     OW74078   8.873   5.747  10.164
57394SOL    HW174079   8.855   5.654  10.155
57394SOL    HW274080   8.794   5.784  10.202
57395SOL     OW74081   8.424  11.656   2.643
57395SOL    HW174082   8.380  11.718   2.585
57395SOL    HW274083   8.514  11.651   2.610
57396SOL     OW74084  12.791   9.352   4.454
57396SOL    HW174085  12.853   9.425   4.456
57396SOL    HW274086  12.706   9.392   4.471
57397SOL     OW74087   8.857  10.698  10.194
57397SOL    HW174088   8.945  10.701  10.233
57397SOL    HW274089   8.835  10.790  10.179
57398SOL     OW74090  12.122   2.936   2.576
57398SOL    HW174091  12.119   2.940   2.481
57398SOL    HW274092  12.033   2.910   2.602
57399SOL     OW74093  10.720   9.647  10.853
57399SOL    HW174094  10.715   9.671  10.760
57399SOL    HW274095  10.659   9.574  10.862
57400SOL     OW74096  11.344   9.260   5.734
57400SOL    HW174097  11.340   9.336   5.792
57400SOL    HW274098  11.359   9.186   5.792
57401SOL     OW74099   3.456   2.180   1.190
57401SOL    HW174100   3.480   2.255   1.135
57401SOL    HW274101   3.394   2.131   1.136
57402SOL     OW74102  10.420   7.059   6.018
57402SOL    HW174103  10.408   7.002   6.094
57402SOL    HW274104  10.331   7.090   5.998
57403SOL     OW74105   3.285  13.897   2.095
57403SOL    HW174106   3.194  13.913   2.070
57403SOL    HW274107   3.283  13.813   2.141
57404SOL     OW74108   2.592   8.222   6.100
57404SOL    HW174109   2.627   8.307   6.126
57404SOL    HW274110   2.644   8.197   6.023
57405SOL     OW74111  10.174   8.166   6.441
57405SOL    HW174112  10.172   8.074   6.416
57405SOL    HW274113  10.265   8.193   6.426
57406SOL     OW74114   8.445   3.686   5.155
57406SOL    HW174115   8.451   3.591   5.168
57406SOL    HW274116   8.525   3.709   5.108
57407SOL     OW74117  10.158   8.152   2.883
57407SOL    HW174118  10.184   8.159   2.975
57407SOL    HW274119  10.085   8.089   2.884
57408SOL     OW74120   0.596  14.115   9.356
57408SOL    HW174121   0.524  14.148   9.410
57408SOL    HW274122   0.573  14.142   9.267
57409SOL     OW74123  14.295  10.075   7.829
57409SOL    HW174124  14.265  10.008   7.768
57409SOL    HW274125  14.240  10.063   7.907
57410SOL     OW74126   9.242   9.160  10.719
57410SOL    HW174127   9.244   9.256  10.717
57410SOL    HW274128   9.331   9.135  10.746
57411SOL     OW74129  10.228   2.174   5.947
57411SOL    HW174130  10.293   2.228   5.993
57411SOL    HW274131  10.268   2.156   5.862
57412SOL     OW74132   7.975   5.242  12.538
57412SOL    HW174133   8.012   5.309  12.595
57412SOL    HW274134   7.883   5.235  12.565
57413SOL     OW74135   0.399   3.867  12.753
57413SOL    HW174136   0.345   3.863  12.675
57413SOL    HW274137   0.340   3.845  12.825
57414SOL     OW74138   2.538   7.662  12.802
57414SOL    HW174139   2.447   7.684  12.822
57414SOL    HW274140   2.587   7.686  12.881
57415SOL     OW74141   2.237   2.949   7.271
57415SOL    HW174142   2.144   2.966   7.262
57415SOL    HW274143   2.243   2.854   7.282
57416SOL     OW74144  14.572  14.477  12.997
57416SOL    HW174145  14.640  14.538  12.965
57416SOL    HW274146  14.525  14.527  13.063
57417SOL     OW74147   7.428  11.094  11.068
57417SOL    HW174148   7.413  11.043  10.988
57417SOL    HW274149   7.347  11.085  11.118
57418SOL     OW74150   6.534  11.472   5.860
57418SOL    HW174151   6.611  11.462   5.803
57418SOL    HW274152   6.512  11.565   5.855
57419SOL     OW74153   7.011   5.862   2.371
57419SOL    HW174154   7.081   5.912   2.414
57419SOL    HW274155   6.982   5.801   2.438
57420SOL     OW74156   5.152   3.960  14.610
57420SOL    HW174157   5.097   4.035  14.634
57420SOL    HW274158   5.111   3.924  14.532
57421SOL     OW74159  10.502   4.740   7.973
57421SOL    HW174160  10.578   4.753   8.030
57421SOL    HW274161  10.538   4.743   7.885
57422SOL     OW74162   5.932   1.036  14.302
57422SOL    HW174163   5.935   1.129  14.324
57422SOL    HW274164   5.995   1.026  14.230
57423SOL     OW74165   4.151   1.943   8.946
57423SOL    HW174166   4.214   1.904   8.886
57423SOL    HW274167   4.171   2.037   8.944
57424SOL     OW74168   6.984  11.647   9.370
57424SOL    HW174169   7.031  11.682   9.445
57424SOL    HW274170   6.954  11.560   9.399
57425SOL     OW74171   3.989   1.452   5.058
57425SOL    HW174172   4.020   1.533   5.098
57425SOL    HW274173   3.952   1.479   4.974
57426SOL     OW74174   4.503   8.477  12.076
57426SOL    HW174175   4.493   8.568  12.103
57426SOL    HW274176   4.514   8.482  11.981
57427SOL     OW74177  11.893   5.233  11.363
57427SOL    HW174178  11.869   5.141  11.354
57427SOL    HW274179  11.988   5.234  11.346
57428SOL     OW74180   4.606   6.466   3.538
57428SOL    HW174181   4.630   6.392   3.481
57428SOL    HW274182   4.690   6.504   3.564
57429SOL     OW74183   6.532  11.955   8.953
57429SOL    HW174184   6.479  12.032   8.973
57429SOL    HW274185   6.469  11.889   8.925
57430SOL     OW74186   8.163   3.056  10.364
57430SOL    HW174187   8.256   3.063  10.382
57430SOL    HW274188   8.133   2.984  10.421
57431SOL     OW74189  13.341   0.629   9.284
57431SOL    HW174190  13.280   0.687   9.238
57431SOL    HW274191  13.420   0.630   9.230
57432SOL     OW74192  10.716   9.489   7.087
57432SOL    HW174193  10.748   9.527   7.005
57432SOL    HW274194  10.752   9.401   7.088
57433SOL     OW74195  11.200  14.115  12.891
57433SOL    HW174196  11.261  14.095  12.962
57433SOL    HW274197  11.189  14.210  12.895
57434SOL     OW74198   7.401   7.965  13.832
57434SOL    HW174199   7.400   8.026  13.906
57434SOL    HW274200   7.339   8.004  13.769
57435SOL     OW74201  14.810   0.369   7.835
57435SOL    HW174202  14.790   0.462   7.847
57435SOL    HW274203   0.015   0.354   7.893
57436SOL     OW74204   2.870  13.854   7.732
57436SOL    HW174205   2.816  13.788   7.688
57436SOL    HW274206   2.850  13.936   7.686
57437SOL     OW74207   9.931   6.471   5.256
57437SOL    HW174208   9.957   6.379   5.259
57437SOL    HW274209   9.849   6.474   5.305
57438SOL     OW74210   6.548   0.500   2.360
57438SOL    HW174211   6.599   0.425   2.390
57438SOL    HW274212   6.519   0.476   2.272
57439SOL     OW74213  11.955   7.973  14.145
57439SOL    HW174214  11.971   7.999  14.236
57439SOL    HW274215  11.872   8.016  14.122
57440SOL     OW74216   3.389  13.124   0.327
57440SOL    HW174217   3.402  13.198   0.386
57440SOL    HW274218   3.453  13.059   0.356
57441SOL     OW74219   2.037   2.442  14.119
57441SOL    HW174220   2.036   2.484  14.205
57441SOL    HW274221   2.037   2.515  14.057
57442SOL     OW74222   7.016   8.260   4.295
57442SOL    HW174223   7.046   8.291   4.210
57442SOL    HW274224   7.096   8.249   4.347
57443SOL     OW74225  13.942  10.225   1.212
57443SOL    HW174226  13.927  10.144   1.162
57443SOL    HW274227  14.001  10.198   1.283
57444SOL     OW74228   9.545   7.717   3.126
57444SOL    HW174229   9.471   7.758   3.170
57444SOL    HW274230   9.540   7.750   3.036
57445SOL     OW74231   8.566   8.780   8.598
57445SOL    HW174232   8.601   8.862   8.633
57445SOL    HW274233   8.577   8.717   8.669
57446SOL     OW74234   7.121   9.938   8.513
57446SOL    HW174235   7.031   9.962   8.536
57446SOL    HW274236   7.175   9.999   8.562
57447SOL     OW74237  13.240   9.692   0.157
57447SOL    HW174238  13.227   9.626   0.090
57447SOL    HW274239  13.192   9.660   0.233
57448SOL     OW74240  14.318   1.212  10.605
57448SOL    HW174241  14.396   1.165  10.633
57448SOL    HW274242  14.245   1.159  10.637
57449SOL     OW74243  14.446   8.554   5.516
57449SOL    HW174244  14.461   8.558   5.421
57449SOL    HW274245  14.352   8.537   5.525
57450SOL     OW74246   4.991   3.138   6.023
57450SOL    HW174247   5.031   3.091   5.950
57450SOL    HW274248   4.996   3.230   5.996
57451SOL     OW74249   3.872  11.506   5.271
57451SOL    HW174250   3.892  11.582   5.215
57451SOL    HW274251   3.777  11.494   5.263
57452SOL     OW74252  12.422  12.724   2.571
57452SOL    HW174253  12.368  12.649   2.596
57452SOL    HW274254  12.378  12.799   2.611
57453SOL     OW74255   3.530   9.324   6.558
57453SOL    HW174256   3.579   9.275   6.623
57453SOL    HW274257   3.438   9.307   6.578
57454SOL     OW74258   7.928   9.411   1.491
57454SOL    HW174259   8.004   9.429   1.435
57454SOL    HW274260   7.963   9.362   1.565
57455SOL     OW74261  12.659   3.962  10.966
57455SOL    HW174262  12.674   3.870  10.944
57455SOL    HW274263  12.615   3.998  10.889
57456SOL     OW74264  13.070  11.453   8.363
57456SOL    HW174265  13.102  11.507   8.436
57456SOL    HW274266  12.987  11.493   8.338
57457SOL     OW74267  12.584   5.623  13.446
57457SOL    HW174268  12.637   5.702  13.435
57457SOL    HW274269  12.507   5.639  13.391
57458SOL     OW74270   5.223   9.799   2.888
57458SOL    HW174271   5.293   9.761   2.941
57458SOL    HW274272   5.200   9.880   2.934
57459SOL     OW74273  13.382   0.189  10.792
57459SOL    HW174274  13.375   0.095  10.806
57459SOL    HW274275  13.446   0.199  10.722
57460SOL     OW74276   2.573   1.355   5.111
57460SOL    HW174277   2.617   1.276   5.079
57460SOL    HW274278   2.592   1.422   5.045
57461SOL     OW74279  10.212   6.596   3.476
57461SOL    HW174280  10.181   6.637   3.395
57461SOL    HW274281  10.143   6.535   3.500
57462SOL     OW74282   6.147   1.261   4.396
57462SOL    HW174283   6.106   1.297   4.475
57462SOL    HW274284   6.169   1.171   4.420
57463SOL     OW74285   9.812  13.840  10.475
57463SOL    HW174286   9.747  13.879  10.416
57463SOL    HW274287   9.815  13.900  10.550
57464SOL     OW74288  12.016   4.177   8.515
57464SOL    HW174289  12.004   4.209   8.425
57464SOL    HW274290  11.932   4.194   8.558
57465SOL     OW74291   0.271   8.971  14.686
57465SOL    HW174292   0.180   8.998  14.674
57465SOL    HW274293   0.273   8.936  14.775
57466SOL     OW74294  10.986   7.566   5.321
57466SOL    HW174295  11.024   7.484   5.291
57466SOL    HW274296  11.055   7.607   5.373
57467SOL     OW74297  11.139   3.585  12.607
57467SOL    HW174298  11.099   3.500  12.589
57467SOL    HW274299  11.203   3.598  12.537
57468SOL     OW74300  12.899   9.607  12.241
57468SOL    HW174301  12.835   9.598  12.312
57468SOL    HW274302  12.887   9.697  12.210
57469SOL     OW74303   0.947   4.455   3.959
57469SOL    HW174304   0.977   4.530   3.908
57469SOL    HW274305   0.952   4.381   3.898
57470SOL     OW74306   1.380   6.830  14.746
57470SOL    HW174307   1.449   6.774  14.710
57470SOL    HW274308   1.405   6.843  14.838
57471SOL     OW74309  11.350  10.391   6.643
57471SOL    HW174310  11.332  10.468   6.698
57471SOL    HW274311  11.297  10.406   6.565
57472SOL     OW74312   7.752   2.580   0.398
57472SOL    HW174313   7.794   2.501   0.433
57472SOL    HW274314   7.732   2.633   0.475
57473SOL     OW74315   4.168  11.272   1.298
57473SOL    HW174316   4.242  11.331   1.287
57473SOL    HW274317   4.120  11.306   1.373
57474SOL     OW74318   4.230  14.626   4.332
57474SOL    HW174319   4.152  14.571   4.340
57474SOL    HW274320   4.253  14.621   4.239
57475SOL     OW74321  11.219   7.793   7.943
57475SOL    HW174322  11.143   7.745   7.908
57475SOL    HW274323  11.212   7.782   8.038
57476SOL     OW74324   1.764  14.505  11.661
57476SOL    HW174325   1.673  14.485  11.641
57476SOL    HW274326   1.769  14.499  11.757
57477SOL     OW74327  13.281  14.022   0.124
57477SOL    HW174328  13.260  13.929   0.122
57477SOL    HW274329  13.281  14.049   0.032
57478SOL     OW74330   9.957   3.933   7.903
57478SOL    HW174331   9.943   3.886   7.986
57478SOL    HW274332  10.019   3.878   7.855
57479SOL     OW74333  14.094   5.895   7.990
57479SOL    HW174334  14.093   5.816   7.936
57479SOL    HW274335  14.093   5.967   7.926
57480SOL     OW74336   2.771   2.436   6.761
57480SOL    HW174337   2.849   2.473   6.803
57480SOL    HW274338   2.747   2.501   6.695
57481SOL     OW74339   4.569   9.439   4.571
57481SOL    HW174340   4.568   9.350   4.535
57481SOL    HW274341   4.649   9.478   4.536
57482SOL     OW74342   9.039   3.698  14.578
57482SOL    HW174343   9.071   3.780  14.618
57482SOL    HW274344   9.118   3.655  14.546
57483SOL     OW74345  12.778   8.637   8.769
57483SOL    HW174346  12.872   8.652   8.779
57483SOL    HW274347  12.756   8.577   8.840
57484SOL     OW74348   5.135  11.528   9.923
57484SOL    HW174349   5.156  11.465   9.991
57484SOL    HW274350   5.042  11.514   9.905
57485SOL     OW74351   9.529   4.259   6.778
57485SOL    HW174352   9.591   4.187   6.770
57485SOL    HW274353   9.548   4.297   6.864
57486SOL     OW74354  14.441   1.510   4.622
57486SOL    HW174355  14.354   1.522   4.585
57486SOL    HW274356  14.430   1.444   4.690
57487SOL     OW74357  13.115   1.731  13.521
57487SOL    HW174358  13.209   1.743  13.538
57487SOL    HW274359  13.087   1.814  13.482
57488SOL     OW74360  11.078  14.759   2.892
57488SOL    HW174361  11.022  14.816   2.944
57488SOL    HW274362  11.091  14.807   2.810
57489SOL     OW74363   3.712   0.859   6.068
57489SOL    HW174364   3.792   0.885   6.114
57489SOL    HW274365   3.660   0.813   6.135
57490SOL     OW74366   8.990  11.240  10.620
57490SOL    HW174367   9.067  11.185  10.635
57490SOL    HW274368   8.934  11.188  10.563
57491SOL     OW74369   6.000   7.049   4.526
57491SOL    HW174370   6.028   6.991   4.597
57491SOL    HW274371   6.005   6.994   4.447
57492SOL     OW74372   8.219  10.326   2.124
57492SOL    HW174373   8.243  10.417   2.142
57492SOL    HW274374   8.126  10.320   2.146
57493SOL     OW74375   1.359   3.550   4.764
57493SOL    HW174376   1.376   3.458   4.744
57493SOL    HW274377   1.417   3.599   4.706
57494SOL     OW74378   2.822   3.067   1.276
57494SOL    HW174379   2.844   3.053   1.184
57494SOL    HW274380   2.895   3.117   1.311
57495SOL     OW74381   2.317  10.139  14.690
57495SOL    HW174382   2.391  10.087  14.723
57495SOL    HW274383   2.246  10.119  14.751
57496SOL     OW74384   0.996   4.934  13.390
57496SOL    HW174385   0.911   4.892  13.405
57496SOL    HW274386   0.976   5.026  13.378
57497SOL     OW74387   8.213   7.311   7.870
57497SOL    HW174388   8.131   7.290   7.825
57497SOL    HW274389   8.257   7.374   7.812
57498SOL     OW74390   9.021   8.211  11.184
57498SOL    HW174391   8.945   8.261  11.154
57498SOL    HW274392   9.093   8.274  11.186
57499SOL     OW74393  10.867  14.663   7.611
57499SOL    HW174394  10.819  14.644   7.692
57499SOL    HW274395  10.897  14.754   7.622
57500SOL     OW74396   2.526  10.365   2.936
57500SOL    HW174397   2.472  10.344   3.013
57500SOL    HW274398   2.600  10.414   2.972
57501SOL     OW74399   5.915   5.892   8.432
57501SOL    HW174400   5.930   5.868   8.340
57501SOL    HW274401   6.001   5.882   8.473
57502SOL     OW74402  11.050   7.524   0.194
57502SOL    HW174403  11.116   7.486   0.252
57502SOL    HW274404  11.094   7.600   0.155
57503SOL     OW74405   5.858   1.191   8.131
57503SOL    HW174406   5.769   1.202   8.096
57503SOL    HW274407   5.867   1.259   8.197
57504SOL     OW74408  12.865   1.671   7.648
57504SOL    HW174409  12.830   1.657   7.736
57504SOL    HW274410  12.929   1.600   7.636
57505SOL     OW74411   4.934   2.917   8.138
57505SOL    HW174412   4.868   2.855   8.108
57505SOL    HW274413   4.884   2.990   8.175
57506SOL     OW74414   5.624  12.216  13.980
57506SOL    HW174415   5.704  12.268  13.977
57506SOL    HW274416   5.631  12.157  13.905
57507SOL     OW74417  12.479   9.408   4.809
57507SOL    HW174418  12.400   9.373   4.849
57507SOL    HW274419  12.495   9.352   4.733
57508SOL     OW74420   4.849  14.355   2.224
57508SOL    HW174421   4.882  14.294   2.158
57508SOL    HW274422   4.906  14.432   2.217
57509SOL     OW74423  13.280  10.193  13.963
57509SOL    HW174424  13.194  10.159  13.938
57509SOL    HW274425  13.326  10.204  13.880
57510SOL     OW74426   3.011  12.468  13.163
57510SOL    HW174427   3.023  12.384  13.208
57510SOL    HW274428   2.923  12.464  13.127
57511SOL     OW74429  10.175   1.570  11.711
57511SOL    HW174430  10.114   1.638  11.684
57511SOL    HW274431  10.175   1.573  11.807
57512SOL     OW74432   7.583  10.862   9.994
57512SOL    HW174433   7.637  10.791  10.028
57512SOL    HW274434   7.574  10.923  10.067
57513SOL     OW74435   0.455   4.897   1.729
57513SOL    HW174436   0.413   4.896   1.815
57513SOL    HW274437   0.525   4.961   1.737
57514SOL     OW74438   6.318   0.476   3.721
57514SOL    HW174439   6.243   0.461   3.778
57514SOL    HW274440   6.283   0.527   3.648
57515SOL     OW74441   4.272  13.777   0.268
57515SOL    HW174442   4.209  13.753   0.200
57515SOL    HW274443   4.357  13.758   0.229
57516SOL     OW74444  10.416   1.237  12.319
57516SOL    HW174445  10.441   1.227  12.411
57516SOL    HW274446  10.469   1.310  12.288
57517SOL     OW74447   0.468   6.348   7.358
57517SOL    HW174448   0.385   6.339   7.311
57517SOL    HW274449   0.521   6.275   7.328
57518SOL     OW74450   0.034  10.995   8.904
57518SOL    HW174451   0.082  10.923   8.944
57518SOL    HW274452  14.830  10.952   8.859
57519SOL     OW74453   1.312   4.574   4.820
57519SOL    HW174454   1.270   4.567   4.906
57519SOL    HW274455   1.378   4.505   4.820
57520SOL     OW74456  14.009   5.080   0.286
57520SOL    HW174457  14.006   5.156   0.345
57520SOL    HW274458  13.921   5.043   0.290
57521SOL     OW74459   9.831  11.485  12.852
57521SOL    HW174460   9.864  11.404  12.814
57521SOL    HW274461   9.827  11.467  12.946
57522SOL     OW74462   1.089  12.239   5.410
57522SOL    HW174463   1.138  12.167   5.371
57522SOL    HW274464   1.094  12.309   5.345
57523SOL     OW74465   5.707   4.248   1.736
57523SOL    HW174466   5.714   4.217   1.646
57523SOL    HW274467   5.797   4.254   1.767
57524SOL     OW74468   4.115   3.132  12.395
57524SOL    HW174469   4.056   3.166  12.463
57524SOL    HW274470   4.184   3.087  12.444
57525SOL     OW74471  14.542   8.287   0.245
57525SOL    HW174472  14.498   8.317   0.325
57525SOL    HW274473  14.471   8.278   0.181
57526SOL     OW74474   7.358  13.392   2.584
57526SOL    HW174475   7.431  13.400   2.646
57526SOL    HW274476   7.355  13.477   2.539
57527SOL     OW74477   0.087  14.453   5.109
57527SOL    HW174478   0.049  14.540   5.116
57527SOL    HW274479   0.030  14.398   5.163
57528SOL     OW74480  13.412   1.480   6.505
57528SOL    HW174481  13.422   1.398   6.553
57528SOL    HW274482  13.347   1.529   6.555
57529SOL     OW74483   4.882   1.766   7.661
57529SOL    HW174484   4.824   1.840   7.683
57529SOL    HW274485   4.863   1.748   7.569
57530SOL     OW74486  10.052   7.887   7.450
57530SOL    HW174487  10.077   7.814   7.507
57530SOL    HW274488   9.957   7.889   7.454
57531SOL     OW74489  11.679  11.825   9.851
57531SOL    HW174490  11.658  11.744   9.897
57531SOL    HW274491  11.678  11.892   9.919
57532SOL     OW74492   9.979   7.813   8.953
57532SOL    HW174493   9.949   7.800   9.043
57532SOL    HW274494  10.059   7.865   8.961
57533SOL     OW74495   2.737   4.266   2.050
57533SOL    HW174496   2.774   4.180   2.031
57533SOL    HW274497   2.779   4.293   2.131
57534SOL     OW74498   7.910   5.086   5.351
57534SOL    HW174499   7.941   5.008   5.305
57534SOL    HW274500   7.843   5.123   5.294
57535SOL     OW74501   7.449   1.137   4.265
57535SOL    HW174502   7.385   1.074   4.298
57535SOL    HW274503   7.490   1.173   4.344
57536SOL     OW74504  13.550   6.979  10.171
57536SOL    HW174505  13.526   6.994  10.263
57536SOL    HW274506  13.575   6.887  10.167
57537SOL     OW74507   2.177   6.277   1.064
57537SOL    HW174508   2.228   6.214   1.012
57537SOL    HW274509   2.086   6.254   1.047
57538SOL     OW74510   7.777  12.678  12.761
57538SOL    HW174511   7.763  12.682  12.667
57538SOL    HW274512   7.867  12.709  12.773
57539SOL     OW74513  10.129   0.199   2.459
57539SOL    HW174514  10.163   0.163   2.378
57539SOL    HW274515  10.200   0.253   2.494
57540SOL     OW74516   6.523  11.280   7.748
57540SOL    HW174517   6.428  11.281   7.732
57540SOL    HW274518   6.544  11.370   7.773
57541SOL     OW74519   8.019   2.501   4.821
57541SOL    HW174520   7.935   2.454   4.826
57541SOL    HW274521   8.006   2.579   4.876
57542SOL     OW74522   3.099   3.349  12.073
57542SOL    HW174523   3.087   3.319  12.164
57542SOL    HW274524   3.073   3.441  12.075
57543SOL     OW74525  10.842  14.761  10.372
57543SOL    HW174526  10.926  14.739  10.331
57543SOL    HW274527  10.852  14.735  10.463
57544SOL     OW74528  13.972  10.354   8.542
57544SOL    HW174529  13.892  10.361   8.492
57544SOL    HW274530  14.005  10.443   8.548
57545SOL     OW74531  14.561  13.058   7.120
57545SOL    HW174532  14.505  12.987   7.089
57545SOL    HW274533  14.601  13.094   7.041
57546SOL     OW74534   6.181  12.197   2.800
57546SOL    HW174535   6.089  12.209   2.776
57546SOL    HW274536   6.219  12.151   2.726
57547SOL     OW74537   1.770   8.865   0.950
57547SOL    HW174538   1.763   8.816   1.032
57547SOL    HW274539   1.757   8.800   0.881
57548SOL     OW74540   0.259   3.310  14.322
57548SOL    HW174541   0.264   3.375  14.391
57548SOL    HW274542   0.230   3.359  14.245
57549SOL     OW74543   4.621   1.602   3.615
57549SOL    HW174544   4.605   1.687   3.575
57549SOL    HW274545   4.716   1.589   3.607
57550SOL     OW74546   1.143   4.961  12.672
57550SOL    HW174547   1.081   4.976  12.743
57550SOL    HW274548   1.229   4.969  12.713
57551SOL     OW74549   5.420  11.062   4.043
57551SOL    HW174550   5.437  11.033   3.953
57551SOL    HW274551   5.330  11.035   4.060
57552SOL     OW74552   9.121   5.648   7.118
57552SOL    HW174553   9.177   5.668   7.043
57552SOL    HW274554   9.065   5.576   7.087
57553SOL     OW74555   7.028   2.163   5.883
57553SOL    HW174556   6.971   2.169   5.806
57553SOL    HW274557   7.068   2.249   5.890
57554SOL     OW74558  10.815   5.322  14.515
57554SOL    HW174559  10.789   5.298  14.604
57554SOL    HW274560  10.761   5.267  14.458
57555SOL     OW74561   5.029   9.926   3.744
57555SOL    HW174562   5.065   9.922   3.833
57555SOL    HW274563   4.989  10.012   3.738
57556SOL     OW74564   1.631   9.774   3.368
57556SOL    HW174565   1.553   9.805   3.322
57556SOL    HW274566   1.692   9.847   3.362
57557SOL     OW74567   0.863  13.846   6.026
57557SOL    HW174568   0.820  13.899   5.959
57557SOL    HW274569   0.907  13.777   5.976
57558SOL     OW74570  11.264   7.431   4.197
57558SOL    HW174571  11.305   7.455   4.280
57558SOL    HW274572  11.254   7.336   4.202
57559SOL     OW74573   7.840   1.593  14.330
57559SOL    HW174574   7.748   1.566  14.325
57559SOL    HW274575   7.837   1.685  14.355
57560SOL     OW74576   5.501   6.282   5.044
57560SOL    HW174577   5.461   6.203   5.007
57560SOL    HW274578   5.588   6.284   5.006
57561SOL     OW74579  14.680   2.268   2.128
57561SOL    HW174580  14.600   2.216   2.131
57561SOL    HW274581  14.750   2.206   2.147
57562SOL     OW74582   9.827   8.049   1.154
57562SOL    HW174583   9.777   8.037   1.073
57562SOL    HW274584   9.795   8.132   1.190
57563SOL     OW74585   9.748  14.390  12.181
57563SOL    HW174586   9.800  14.387  12.261
57563SOL    HW274587   9.795  14.453  12.125
57564SOL     OW74588  10.610  14.515   5.898
57564SOL    HW174589  10.663  14.435   5.893
57564SOL    HW274590  10.575  14.515   5.987
57565SOL     OW74591   6.708   4.534   9.339
57565SOL    HW174592   6.635   4.535   9.277
57565SOL    HW274593   6.708   4.622   9.376
57566SOL     OW74594  11.289   0.517   7.668
57566SOL    HW174595  11.347   0.546   7.598
57566SOL    HW274596  11.239   0.595   7.692
57567SOL     OW74597   3.514  12.253  14.308
57567SOL    HW174598   3.549  12.164  14.303
57567SOL    HW274599   3.444  12.255  14.243
57568SOL     OW74600  14.152  11.837   9.642
57568SOL    HW174601  14.171  11.926   9.610
57568SOL    HW274602  14.065  11.818   9.607
57569SOL     OW74603   7.363   4.809   5.515
57569SOL    HW174604   7.344   4.832   5.605
57569SOL    HW274605   7.355   4.891   5.466
57570SOL     OW74606  14.340   2.593  10.551
57570SOL    HW174607  14.285   2.671  10.559
57570SOL    HW274608  14.286   2.532  10.501
57571SOL     OW74609   1.857   4.698   5.340
57571SOL    HW174610   1.938   4.727   5.381
57571SOL    HW274611   1.878   4.613   5.302
57572SOL     OW74612   0.007  11.810   3.979
57572SOL    HW174613  14.821  11.865   3.923
57572SOL    HW274614   0.070  11.871   4.017
57573SOL     OW74615   2.603  14.685   4.931
57573SOL    HW174616   2.546  14.750   4.971
57573SOL    HW274617   2.581  14.687   4.837
57574SOL     OW74618   5.956   4.845   7.342
57574SOL    HW174619   5.943   4.906   7.270
57574SOL    HW274620   5.925   4.891   7.420
57575SOL     OW74621   6.960   0.476   2.079
57575SOL    HW174622   6.990   0.469   2.170
57575SOL    HW274623   7.001   0.556   2.046
57576SOL     OW74624   7.475   2.845  10.133
57576SOL    HW174625   7.482   2.831  10.038
57576SOL    HW274626   7.563   2.826  10.166
57577SOL     OW74627  13.202   1.922   7.340
57577SOL    HW174628  13.147   1.888   7.270
57577SOL    HW274629  13.288   1.883   7.324
57578SOL     OW74630   8.287  11.209  11.599
57578SOL    HW174631   8.313  11.301  11.601
57578SOL    HW274632   8.369  11.160  11.596
57579SOL     OW74633   6.860   1.669   8.532
57579SOL    HW174634   6.821   1.585   8.554
57579SOL    HW274635   6.882   1.709   8.616
57580SOL     OW74636  13.511   7.577   0.198
57580SOL    HW174637  13.557   7.626   0.267
57580SOL    HW274638  13.578   7.559   0.133
57581SOL     OW74639   7.203   5.861   6.005
57581SOL    HW174640   7.213   5.930   6.070
57581SOL    HW274641   7.257   5.889   5.931
57582SOL     OW74642  10.190  11.923   2.471
57582SOL    HW174643  10.232  12.003   2.439
57582SOL    HW274644  10.113  11.954   2.518
57583SOL     OW74645   7.377   4.380  14.471
57583SOL    HW174646   7.339   4.383  14.383
57583SOL    HW274647   7.360   4.466  14.508
57584SOL     OW74648   0.219   9.032   3.002
57584SOL    HW174649   0.124   9.045   2.994
57584SOL    HW274650   0.256   9.117   2.980
57585SOL     OW74651   4.634  13.826  10.997
57585SOL    HW174652   4.691  13.891  10.955
57585SOL    HW274653   4.623  13.858  11.086
57586SOL     OW74654   5.471  13.760   4.307
57586SOL    HW174655   5.456  13.853   4.321
57586SOL    HW274656   5.388  13.718   4.333
57587SOL     OW74657  13.921   4.705   2.690
57587SOL    HW174658  13.912   4.612   2.712
57587SOL    HW274659  13.948   4.705   2.598
57588SOL     OW74660  12.875   1.346  10.402
57588SOL    HW174661  12.941   1.402  10.444
57588SOL    HW274662  12.850   1.393  10.322
57589SOL     OW74663   4.119   4.388   8.327
57589SOL    HW174664   4.028   4.384   8.296
57589SOL    HW274665   4.113   4.368   8.421
57590SOL     OW74666  13.724  11.867   5.232
57590SOL    HW174667  13.804  11.884   5.280
57590SOL    HW274668  13.700  11.777   5.255
57591SOL     OW74669   7.177  13.640   8.879
57591SOL    HW174670   7.170  13.550   8.909
57591SOL    HW274671   7.121  13.690   8.939
57592SOL     OW74672   0.025  11.566   7.822
57592SOL    HW174673   0.099  11.599   7.770
57592SOL    HW274674  14.822  11.563   7.760
57593SOL     OW74675   8.692   7.506  11.293
57593SOL    HW174676   8.662   7.511  11.203
57593SOL    HW274677   8.677   7.594  11.329
57594SOL     OW74678   9.955   3.156   6.003
57594SOL    HW174679   9.886   3.113   5.953
57594SOL    HW274680  10.036   3.126   5.963
57595SOL     OW74681   8.773   8.665   0.372
57595SOL    HW174682   8.747   8.745   0.417
57595SOL    HW274683   8.690   8.622   0.349
57596SOL     OW74684   4.025   3.479   4.800
57596SOL    HW174685   4.091   3.478   4.731
57596SOL    HW274686   3.969   3.553   4.778
57597SOL     OW74687   6.566   0.887   4.021
57597SOL    HW174688   6.530   0.882   4.110
57597SOL    HW274689   6.567   0.797   3.990
57598SOL     OW74690  10.105   2.592   2.724
57598SOL    HW174691  10.187   2.625   2.687
57598SOL    HW274692  10.049   2.670   2.730
57599SOL     OW74693   1.058   5.518   1.869
57599SOL    HW174694   1.007   5.587   1.911
57599SOL    HW274695   1.124   5.495   1.934
57600SOL     OW74696   8.393   4.926  10.686
57600SOL    HW174697   8.343   4.863  10.634
57600SOL    HW274698   8.432   4.985  10.621
57601SOL     OW74699  13.025   5.545   6.353
57601SOL    HW174700  13.022   5.562   6.259
57601SOL    HW274701  13.078   5.616   6.390
57602SOL     OW74702  14.598  14.392   4.116
57602SOL    HW174703  14.663  14.378   4.047
57602SOL    HW274704  14.549  14.310   4.121
57603SOL     OW74705  13.102   8.434  14.242
57603SOL    HW174706  13.043   8.471  14.307
57603SOL    HW274707  13.107   8.500  14.173
57604SOL     OW74708   5.868   4.798   9.890
57604SOL    HW174709   5.783   4.756   9.891
57604SOL    HW274710   5.929   4.732   9.924
57605SOL     OW74711   7.626  13.977   0.107
57605SOL    HW174712   7.553  13.922   0.080
57605SOL    HW274713   7.702  13.938   0.063
57606SOL     OW74714   0.560   1.742  11.310
57606SOL    HW174715   0.582   1.703  11.225
57606SOL    HW274716   0.478   1.789  11.294
57607SOL     OW74717   9.741   5.686  11.178
57607SOL    HW174718   9.724   5.770  11.221
57607SOL    HW274719   9.721   5.701  11.086
57608SOL     OW74720  14.227  13.763   1.443
57608SOL    HW174721  14.285  13.837   1.462
57608SOL    HW274722  14.142  13.804   1.425
57609SOL     OW74723   4.334   4.326  11.733
57609SOL    HW174724   4.247   4.318  11.772
57609SOL    HW274725   4.319   4.316  11.639
57610SOL     OW74726   8.687   6.497   3.379
57610SOL    HW174727   8.598   6.526   3.398
57610SOL    HW274728   8.726   6.480   3.464
57611SOL     OW74729  13.382   5.977   1.049
57611SOL    HW174730  13.384   5.930   0.966
57611SOL    HW274731  13.290   5.977   1.075
57612SOL     OW74732   6.291   9.638  12.108
57612SOL    HW174733   6.351   9.603  12.042
57612SOL    HW274734   6.309   9.586  12.186
57613SOL     OW74735  10.420   5.610  11.526
57613SOL    HW174736  10.358   5.556  11.478
57613SOL    HW274737  10.477   5.647  11.459
57614SOL     OW74738  14.587   8.954   1.885
57614SOL    HW174739  14.508   8.906   1.859
57614SOL    HW274740  14.655   8.888   1.891
57615SOL     OW74741   2.637   9.360   3.091
57615SOL    HW174742   2.553   9.328   3.058
57615SOL    HW274743   2.656   9.437   3.038
57616SOL     OW74744   2.198   9.718   7.701
57616SOL    HW174745   2.290   9.690   7.694
57616SOL    HW274746   2.202   9.802   7.745
57617SOL     OW74747   4.274   0.177  14.169
57617SOL    HW174748   4.250   0.118  14.097
57617SOL    HW274749   4.369   0.188  14.159
57618SOL     OW74750   4.863  13.650   2.156
57618SOL    HW174751   4.916  13.677   2.230
57618SOL    HW274752   4.785  13.705   2.160
57619SOL     OW74753   8.985   0.443   5.253
57619SOL    HW174754   8.997   0.369   5.312
57619SOL    HW274755   9.006   0.520   5.306
57620SOL     OW74756   9.959   6.427   3.508
57620SOL    HW174757   9.884   6.387   3.465
57620SOL    HW274758   9.965   6.383   3.593
57621SOL     OW74759   7.824   1.906   7.773
57621SOL    HW174760   7.903   1.904   7.719
57621SOL    HW274761   7.824   1.822   7.819
57622SOL     OW74762   2.742   4.181  13.447
57622SOL    HW174763   2.784   4.167  13.362
57622SOL    HW274764   2.796   4.132  13.509
57623SOL     OW74765  12.857  12.217   9.880
57623SOL    HW174766  12.829  12.215   9.971
57623SOL    HW274767  12.928  12.282   9.878
57624SOL     OW74768   8.558   9.011   9.032
57624SOL    HW174769   8.476   9.017   8.982
57624SOL    HW274770   8.601   9.095   9.018
57625SOL     OW74771   2.953   5.180   4.577
57625SOL    HW174772   2.891   5.253   4.577
57625SOL    HW274773   3.038   5.221   4.564
57626SOL     OW74774  13.810  12.253   3.788
57626SOL    HW174775  13.767  12.178   3.746
57626SOL    HW274776  13.748  12.325   3.780
57627SOL     OW74777  14.849   5.517   2.207
57627SOL    HW174778   0.052   5.537   2.148
57627SOL    HW274779  14.790   5.592   2.198
57628SOL     OW74780   0.612   4.360  13.924
57628SOL    HW174781   0.600   4.266  13.937
57628SOL    HW274782   0.683   4.367  13.861
57629SOL     OW74783   3.641   6.896  11.790
57629SOL    HW174784   3.677   6.917  11.876
57629SOL    HW274785   3.645   6.800  11.785
57630SOL     OW74786  14.151   1.873  11.352
57630SOL    HW174787  14.154   1.790  11.400
57630SOL    HW274788  14.243   1.897  11.339
57631SOL     OW74789   4.457   8.167   2.570
57631SOL    HW174790   4.419   8.246   2.532
57631SOL    HW274791   4.392   8.099   2.553
57632SOL     OW74792   4.709  14.594   4.507
57632SOL    HW174793   4.692  14.565   4.417
57632SOL    HW274794   4.647  14.544   4.560
57633SOL     OW74795   2.543   6.766  14.066
57633SOL    HW174796   2.506   6.804  14.146
57633SOL    HW274797   2.575   6.680  14.092
57634SOL     OW74798   4.440   5.389   4.997
57634SOL    HW174799   4.441   5.301   5.033
57634SOL    HW274800   4.480   5.443   5.065
57635SOL     OW74801   9.213   8.575   3.411
57635SOL    HW174802   9.274   8.511   3.375
57635SOL    HW274803   9.254   8.660   3.392
57636SOL     OW74804   6.301  14.849  12.152
57636SOL    HW174805   6.260  14.829  12.067
57636SOL    HW274806   6.269   0.067  12.173
57637SOL     OW74807  11.966  13.345   4.600
57637SOL    HW174808  12.004  13.265   4.562
57637SOL    HW274809  11.921  13.387   4.527
57638SOL     OW74810  14.602   4.240   7.709
57638SOL    HW174811  14.657   4.300   7.759
57638SOL    HW274812  14.578   4.289   7.630
57639SOL     OW74813  12.337   9.099   3.687
57639SOL    HW174814  12.249   9.069   3.711
57639SOL    HW274815  12.322   9.160   3.614
57640SOL     OW74816  14.156  11.753  12.485
57640SOL    HW174817  14.198  11.804  12.554
57640SOL    HW274818  14.180  11.662  12.505
57641SOL     OW74819   7.536  11.255   7.996
57641SOL    HW174820   7.569  11.276   7.908
57641SOL    HW274821   7.614  11.228   8.044
57642SOL     OW74822   8.459   5.048   4.874
57642SOL    HW174823   8.437   5.058   4.782
57642SOL    HW274824   8.449   4.954   4.892
57643SOL     OW74825   4.442  12.048   1.432
57643SOL    HW174826   4.492  12.045   1.514
57643SOL    HW274827   4.447  12.140   1.405
57644SOL     OW74828   0.602   6.921  11.813
57644SOL    HW174829   0.684   6.960  11.841
57644SOL    HW274830   0.534   6.972  11.858
57645SOL     OW74831   5.112  10.687  11.976
57645SOL    HW174832   5.092  10.708  12.067
57645SOL    HW274833   5.036  10.719  11.927
57646SOL     OW74834   5.509  12.273  12.503
57646SOL    HW174835   5.566  12.307  12.434
57646SOL    HW274836   5.541  12.184  12.518
57647SOL     OW74837   7.935   6.712  12.134
57647SOL    HW174838   7.980   6.685  12.213
57647SOL    HW274839   7.842   6.698  12.153
57648SOL     OW74840  13.219  11.406  13.133
57648SOL    HW174841  13.217  11.475  13.067
57648SOL    HW274842  13.127  11.377  13.139
57649SOL     OW74843   9.129   8.115   9.615
57649SOL    HW174844   9.156   8.030   9.580
57649SOL    HW274845   9.097   8.096   9.704
57650SOL     OW74846   2.461  12.789   8.875
57650SOL    HW174847   2.383  12.828   8.916
57650SOL    HW274848   2.534  12.841   8.909
57651SOL     OW74849  10.809   8.237   0.366
57651SOL    HW174850  10.889   8.187   0.379
57651SOL    HW274851  10.756   8.219   0.444
57652SOL     OW74852   8.141   0.955   9.364
57652SOL    HW174853   8.166   1.004   9.443
57652SOL    HW274854   8.200   0.988   9.296
57653SOL     OW74855   7.353  12.416   5.901
57653SOL    HW174856   7.273  12.364   5.910
57653SOL    HW274857   7.353  12.473   5.978
57654SOL     OW74858  12.459  11.471   1.081
57654SOL    HW174859  12.389  11.418   1.043
57654SOL    HW274860  12.480  11.534   1.013
57655SOL     OW74861   9.322   5.072  10.988
57655SOL    HW174862   9.328   5.106  11.077
57655SOL    HW274863   9.396   5.013  10.980
57656SOL     OW74864   2.484   2.451   0.375
57656SOL    HW174865   2.413   2.476   0.315
57656SOL    HW274866   2.447   2.462   0.462
57657SOL     OW74867   9.068   8.042  13.354
57657SOL    HW174868   9.089   8.006  13.440
57657SOL    HW274869   9.091   8.135  13.360
57658SOL     OW74870   6.395  14.416  10.186
57658SOL    HW174871   6.401  14.322  10.204
57658SOL    HW274872   6.302  14.434  10.181
57659SOL     OW74873   5.209   1.390  11.615
57659SOL    HW174874   5.242   1.413  11.528
57659SOL    HW274875   5.287   1.388  11.670
57660SOL     OW74876   6.519   8.750  13.044
57660SOL    HW174877   6.581   8.776  13.112
57660SOL    HW274878   6.518   8.655  13.048
57661SOL     OW74879   8.884   6.866   6.396
57661SOL    HW174880   8.856   6.957   6.398
57661SOL    HW274881   8.978   6.870   6.377
57662SOL     OW74882   4.472  12.377   1.082
57662SOL    HW174883   4.397  12.328   1.049
57662SOL    HW274884   4.528  12.389   1.005
57663SOL     OW74885   2.418  13.762  11.825
57663SOL    HW174886   2.466  13.825  11.772
57663SOL    HW274887   2.384  13.813  11.898
57664SOL     OW74888   9.480  12.099   7.950
57664SOL    HW174889   9.422  12.159   7.903
57664SOL    HW274890   9.424  12.059   8.016
57665SOL     OW74891   9.013   5.380  11.949
57665SOL    HW174892   8.977   5.305  11.902
57665SOL    HW274893   9.090   5.345  11.994
57666SOL     OW74894   2.396   7.794   0.238
57666SOL    HW174895   2.454   7.767   0.167
57666SOL    HW274896   2.333   7.853   0.197
57667SOL     OW74897   9.342   5.129   8.366
57667SOL    HW174898   9.432   5.141   8.336
57667SOL    HW274899   9.303   5.217   8.359
57668SOL     OW74900   6.494   1.425  14.735
57668SOL    HW174901   6.436   1.375  14.792
57668SOL    HW274902   6.537   1.488  14.794
57669SOL     OW74903   7.102   0.905   6.948
57669SOL    HW174904   7.080   0.885   7.039
57669SOL    HW274905   7.168   0.974   6.953
57670SOL     OW74906  12.278   1.583   1.569
57670SOL    HW174907  12.255   1.530   1.646
57670SOL    HW274908  12.195   1.611   1.532
57671SOL     OW74909  14.819  14.192  12.671
57671SOL    HW174910  14.844  14.243  12.594
57671SOL    HW274911  14.742  14.237  12.705
57672SOL     OW74912  13.506   1.759   7.000
57672SOL    HW174913  13.484   1.751   6.907
57672SOL    HW274914  13.543   1.674   7.023
57673SOL     OW74915   8.241   8.349  14.209
57673SOL    HW174916   8.302   8.287  14.250
57673SOL    HW274917   8.225   8.313  14.121
57674SOL     OW74918   6.580   3.333   2.049
57674SOL    HW174919   6.669   3.366   2.062
57674SOL    HW274920   6.527   3.379   2.114
57675SOL     OW74921   2.844  14.015   3.865
57675SOL    HW174922   2.902  13.991   3.793
57675SOL    HW274923   2.903  14.034   3.938
57676SOL     OW74924  13.654   5.967   0.170
57676SOL    HW174925  13.614   5.881   0.183
57676SOL    HW274926  13.690   5.964   0.082
57677SOL     OW74927   7.895   6.594  12.782
57677SOL    HW174928   7.872   6.618  12.692
57677SOL    HW274929   7.978   6.547  12.774
57678SOL     OW74930   5.064   5.739   2.764
57678SOL    HW174931   5.126   5.810   2.774
57678SOL    HW274932   5.061   5.723   2.669
57679SOL     OW74933  13.038   5.861  13.906
57679SOL    HW174934  13.108   5.927  13.915
57679SOL    HW274935  13.085   5.778  13.894
57680SOL     OW74936  12.652  10.074  11.833
57680SOL    HW174937  12.741  10.064  11.800
57680SOL    HW274938  12.605  10.118  11.763
57681SOL     OW74939   5.118  12.660  10.068
57681SOL    HW174940   5.048  12.654  10.003
57681SOL    HW274941   5.076  12.690  10.148
57682SOL     OW74942   3.671   1.863   9.678
57682SOL    HW174943   3.724   1.846   9.756
57682SOL    HW274944   3.700   1.798   9.615
57683SOL     OW74945   5.733   3.189   0.825
57683SOL    HW174946   5.676   3.247   0.875
57683SOL    HW274947   5.762   3.242   0.751
57684SOL     OW74948  12.807   7.225  14.259
57684SOL    HW174949  12.790   7.142  14.215
57684SOL    HW274950  12.815   7.203  14.352
57685SOL     OW74951   9.849   0.626  10.358
57685SOL    HW174952   9.872   0.718  10.350
57685SOL    HW274953   9.850   0.593  10.268
57686SOL     OW74954   2.999   9.715  11.964
57686SOL    HW174955   3.074   9.657  11.950
57686SOL    HW274956   2.960   9.725  11.877
57687SOL     OW74957   1.646  10.100   2.123
57687SOL    HW174958   1.727  10.146   2.142
57687SOL    HW274959   1.638  10.106   2.027
57688SOL     OW74960   7.792   1.429   2.154
57688SOL    HW174961   7.869   1.372   2.152
57688SOL    HW274962   7.768   1.439   2.062
57689SOL     OW74963  13.209  12.736   8.017
57689SOL    HW174964  13.184  12.763   8.106
57689SOL    HW274965  13.200  12.816   7.965
57690SOL     OW74966  12.375  11.658   6.825
57690SOL    HW174967  12.329  11.581   6.858
57690SOL    HW274968  12.311  11.729   6.831
57691SOL     OW74969   2.091   9.415  12.100
57691SOL    HW174970   2.108   9.324  12.074
57691SOL    HW274971   2.028   9.447  12.036
57692SOL     OW74972   0.108   8.937   0.329
57692SOL    HW174973   0.054   9.012   0.355
57692SOL    HW274974   0.074   8.864   0.380
57693SOL     OW74975   6.961   5.635   8.810
57693SOL    HW174976   6.964   5.551   8.855
57693SOL    HW274977   6.912   5.618   8.729
57694SOL     OW74978   4.687  10.997   4.677
57694SOL    HW174979   4.592  10.985   4.689
57694SOL    HW274980   4.718  11.028   4.762
57695SOL     OW74981   8.839   9.298   2.920
57695SOL    HW174982   8.914   9.324   2.867
57695SOL    HW274983   8.865   9.214   2.958
57696SOL     OW74984   0.538   0.258  14.143
57696SOL    HW174985   0.504   0.283  14.229
57696SOL    HW274986   0.460   0.239  14.090
57697SOL     OW74987   5.901   3.134  12.419
57697SOL    HW174988   5.907   3.225  12.390
57697SOL    HW274989   5.865   3.139  12.507
57698SOL     OW74990  11.734  11.875   7.856
57698SOL    HW174991  11.813  11.874   7.910
57698SOL    HW274992  11.764  11.908   7.771
57699SOL     OW74993   4.736   6.297  14.301
57699SOL    HW174994   4.699   6.350  14.372
57699SOL    HW274995   4.790   6.232  14.346
57700SOL     OW74996   6.634  10.599  13.660
57700SOL    HW174997   6.581  10.674  13.686
57700SOL    HW274998   6.571  10.529  13.642
57701SOL     OW74999  13.319   5.830   8.059
57701SOL    HW175000  13.299   5.863   7.972
57701SOL    HW275001  13.236   5.837   8.107
57702SOL     OW75002   1.897  12.246   0.795
57702SOL    HW175003   1.817  12.248   0.846
57702SOL    HW275004   1.928  12.155   0.802
57703SOL     OW75005  11.002   6.500  10.753
57703SOL    HW175006  11.068   6.521  10.687
57703SOL    HW275007  10.955   6.425  10.716
57704SOL     OW75008   8.710  14.553   5.597
57704SOL    HW175009   8.694  14.473   5.649
57704SOL    HW275010   8.789  14.533   5.548
57705SOL     OW75011  12.937  11.877   7.206
57705SOL    HW175012  13.014  11.838   7.247
57705SOL    HW275013  12.936  11.841   7.117
57706SOL     OW75014   5.105   4.492   3.224
57706SOL    HW175015   5.097   4.566   3.285
57706SOL    HW275016   5.016   4.459   3.213
57707SOL     OW75017  14.121   5.476  13.621
57707SOL    HW175018  14.047   5.535  13.636
57707SOL    HW275019  14.192   5.533  13.592
57708SOL     OW75020  14.523   3.682  12.274
57708SOL    HW175021  14.558   3.692  12.362
57708SOL    HW275022  14.471   3.761  12.260
57709SOL     OW75023   8.095  14.759   6.858
57709SOL    HW175024   8.139  14.698   6.917
57709SOL    HW275025   8.025  14.707   6.818
57710SOL     OW75026   9.474  11.087  14.669
57710SOL    HW175027   9.443  11.083  14.578
57710SOL    HW275028   9.454  11.177  14.697
57711SOL     OW75029   4.076   7.473  10.194
57711SOL    HW175030   4.160   7.510  10.219
57711SOL    HW275031   4.017   7.549  10.190
57712SOL     OW75032   6.150   5.426   3.918
57712SOL    HW175033   6.102   5.482   3.978
57712SOL    HW275034   6.242   5.438   3.942
57713SOL     OW75035   0.875   1.973   6.516
57713SOL    HW175036   0.890   2.053   6.464
57713SOL    HW275037   0.900   1.902   6.457
57714SOL     OW75038   0.723   5.658  14.121
57714SOL    HW175039   0.759   5.569  14.130
57714SOL    HW275040   0.636   5.645  14.083
57715SOL     OW75041   7.834   8.210   2.274
57715SOL    HW175042   7.930   8.214   2.275
57715SOL    HW275043   7.813   8.117   2.283
57716SOL     OW75044   7.233  11.942  14.520
57716SOL    HW175045   7.290  11.892  14.461
57716SOL    HW275046   7.160  11.970  14.464
57717SOL     OW75047   5.789   0.172   9.566
57717SOL    HW175048   5.736   0.114   9.621
57717SOL    HW275049   5.823   0.238   9.626
57718SOL     OW75050   8.963   2.802   3.635
57718SOL    HW175051   9.022   2.728   3.619
57718SOL    HW275052   8.991   2.869   3.572
57719SOL     OW75053   2.188   5.655   8.182
57719SOL    HW175054   2.181   5.659   8.277
57719SOL    HW275055   2.114   5.602   8.154
57720SOL     OW75056   9.414   6.977   7.586
57720SOL    HW175057   9.451   7.056   7.624
57720SOL    HW275058   9.320   6.995   7.578
57721SOL     OW75059   5.803  11.818   4.391
57721SOL    HW175060   5.864  11.777   4.330
57721SOL    HW275061   5.747  11.873   4.336
57722SOL     OW75062   2.316   8.219   7.874
57722SOL    HW175063   2.267   8.161   7.815
57722SOL    HW275064   2.269   8.213   7.957
57723SOL     OW75065  13.191  11.024   0.387
57723SOL    HW175066  13.200  11.117   0.370
57723SOL    HW275067  13.141  10.990   0.312
57724SOL     OW75068   2.820   3.889  11.163
57724SOL    HW175069   2.738   3.855  11.197
57724SOL    HW275070   2.875   3.812  11.150
57725SOL     OW75071   5.179  13.983  12.662
57725SOL    HW175072   5.145  14.043  12.729
57725SOL    HW275073   5.153  13.896  12.692
57726SOL     OW75074   8.148   3.381  14.588
57726SOL    HW175075   8.086   3.452  14.607
57726SOL    HW275076   8.093   3.302  14.587
57727SOL     OW75077  11.826   3.857   5.433
57727SOL    HW175078  11.817   3.769   5.471
57727SOL    HW275079  11.760   3.859   5.364
57728SOL     OW75080   6.534  10.599  14.034
57728SOL    HW175081   6.524  10.600  13.939
57728SOL    HW275082   6.619  10.559  14.050
57729SOL     OW75083   5.858   4.078  12.720
57729SOL    HW175084   5.772   4.056  12.685
57729SOL    HW275085   5.919   4.033  12.662
57730SOL     OW75086  10.383  14.824  12.962
57730SOL    HW175087  10.354   0.021  13.025
57730SOL    HW275088  10.310  14.762  12.959
57731SOL     OW75089   0.566   7.271   1.836
57731SOL    HW175090   0.484   7.268   1.884
57731SOL    HW275091   0.633   7.251   1.901
57732SOL     OW75092  14.275   3.675   6.839
57732SOL    HW175093  14.223   3.750   6.810
57732SOL    HW275094  14.210   3.610   6.866
57733SOL     OW75095   0.167   8.219  10.341
57733SOL    HW175096   0.149   8.267  10.422
57733SOL    HW275097   0.174   8.127  10.368
57734SOL     OW75098   4.029   2.877  13.942
57734SOL    HW175099   3.971   2.802  13.960
57734SOL    HW275100   4.117   2.843  13.958
57735SOL     OW75101   4.481  11.295   0.212
57735SOL    HW175102   4.536  11.373   0.220
57735SOL    HW275103   4.409  11.310   0.274
57736SOL     OW75104   5.662   4.269   6.396
57736SOL    HW175105   5.699   4.222   6.470
57736SOL    HW275106   5.730   4.332   6.371
57737SOL     OW75107  10.242   4.286   4.672
57737SOL    HW175108  10.206   4.374   4.682
57737SOL    HW275109  10.166   4.230   4.661
57738SOL     OW75110   1.619  14.718   9.562
57738SOL    HW175111   1.571  14.769   9.628
57738SOL    HW275112   1.652  14.642   9.610
57739SOL     OW75113  11.669   1.118   4.693
57739SOL    HW175114  11.677   1.060   4.769
57739SOL    HW275115  11.739   1.090   4.634
57740SOL     OW75116  13.987  12.645   5.008
57740SOL    HW175117  14.059  12.701   5.036
57740SOL    HW275118  14.016  12.556   5.027
57741SOL     OW75119  10.561   9.369  14.544
57741SOL    HW175120  10.503   9.371  14.620
57741SOL    HW275121  10.516   9.311  14.482
57742SOL     OW75122   1.884  10.354  11.635
57742SOL    HW175123   1.955  10.414  11.658
57742SOL    HW275124   1.804  10.406  11.646
57743SOL     OW75125   1.711  13.629   6.171
57743SOL    HW175126   1.802  13.620   6.198
57743SOL    HW275127   1.686  13.543   6.137
57744SOL     OW75128   1.074   3.033   7.216
57744SOL    HW175129   1.097   3.116   7.258
57744SOL    HW275130   0.993   3.006   7.258
57745SOL     OW75131   0.771   7.032   0.129
57745SOL    HW175132   0.865   7.050   0.134
57745SOL    HW275133   0.742   7.079   0.051
57746SOL     OW75134   9.273   8.478  13.351
57746SOL    HW175135   9.183   8.480  13.319
57746SOL    HW275136   9.321   8.427  13.285
57747SOL     OW75137   8.139  13.586  10.243
57747SOL    HW175138   8.211  13.638  10.278
57747SOL    HW275139   8.133  13.511  10.302
57748SOL     OW75140   0.229   2.232   5.140
57748SOL    HW175141   0.205   2.273   5.223
57748SOL    HW275142   0.152   2.243   5.084
57749SOL     OW75143   1.561  13.016  12.845
57749SOL    HW175144   1.614  13.060  12.779
57749SOL    HW275145   1.491  12.973  12.796
57750SOL     OW75146   9.216  14.362   7.597
57750SOL    HW175147   9.232  14.456   7.604
57750SOL    HW275148   9.197  14.334   7.687
57751SOL     OW75149  13.781   2.155   6.325
57751SOL    HW175150  13.805   2.155   6.232
57751SOL    HW275151  13.827   2.079   6.361
57752SOL     OW75152   7.180   2.115   6.138
57752SOL    HW175153   7.127   2.172   6.082
57752SOL    HW275154   7.258   2.168   6.158
57753SOL     OW75155  14.164   6.274   3.979
57753SOL    HW175156  14.255   6.247   3.988
57753SOL    HW275157  14.121   6.197   3.939
57754SOL     OW75158  14.224   3.837   8.624
57754SOL    HW175159  14.148   3.867   8.675
57754SOL    HW275160  14.199   3.853   8.533
57755SOL     OW75161   8.546   4.664   5.749
57755SOL    HW175162   8.617   4.728   5.748
57755SOL    HW275163   8.530   4.645   5.657
57756SOL     OW75164   6.821   8.087   5.673
57756SOL    HW175165   6.896   8.105   5.616
57756SOL    HW275166   6.772   8.018   5.627
57757SOL     OW75167  13.567   7.721   5.881
57757SOL    HW175168  13.575   7.746   5.973
57757SOL    HW275169  13.598   7.797   5.832
57758SOL     OW75170   5.399  11.155   6.845
57758SOL    HW175171   5.437  11.228   6.797
57758SOL    HW275172   5.469  11.091   6.851
57759SOL     OW75173   0.000  10.939   2.019
57759SOL    HW175174  14.782  10.971   2.000
57759SOL    HW275175  14.858  10.881   2.095
57760SOL     OW75176   1.723  11.184  14.640
57760SOL    HW175177   1.792  11.151  14.583
57760SOL    HW275178   1.757  11.173  14.729
57761SOL     OW75179  10.898  12.005   7.735
57761SOL    HW175180  10.945  12.019   7.818
57761SOL    HW275181  10.939  12.066   7.674
57762SOL     OW75182   2.812   9.573  14.418
57762SOL    HW175183   2.803   9.562  14.324
57762SOL    HW275184   2.787   9.664  14.435
57763SOL     OW75185  12.114   6.865  12.235
57763SOL    HW175186  12.059   6.907  12.301
57763SOL    HW275187  12.123   6.932  12.166
57764SOL     OW75188   5.598   1.636  13.513
57764SOL    HW175189   5.523   1.690  13.537
57764SOL    HW275190   5.608   1.576  13.586
57765SOL     OW75191   8.433  13.343  12.116
57765SOL    HW175192   8.466  13.365  12.029
57765SOL    HW275193   8.468  13.411  12.173
57766SOL     OW75194   2.975   8.711   9.808
57766SOL    HW175195   3.041   8.712   9.739
57766SOL    HW275196   2.941   8.621   9.807
57767SOL     OW75197   9.287  11.249   1.851
57767SOL    HW175198   9.321  11.186   1.914
57767SOL    HW275199   9.228  11.304   1.902
57768SOL     OW75200  14.421   2.044  12.542
57768SOL    HW175201  14.456   2.042  12.454
57768SOL    HW275202  14.464   1.971  12.587
57769SOL     OW75203  12.382   2.618   1.949
57769SOL    HW175204  12.335   2.550   1.902
57769SOL    HW275205  12.474   2.594   1.940
57770SOL     OW75206   8.711   2.493   1.225
57770SOL    HW175207   8.628   2.490   1.273
57770SOL    HW275208   8.712   2.579   1.184
57771SOL     OW75209   8.946   2.138   5.300
57771SOL    HW175210   8.887   2.082   5.249
57771SOL    HW275211   8.950   2.220   5.251
57772SOL     OW75212   2.196   0.383   4.043
57772SOL    HW175213   2.161   0.315   4.100
57772SOL    HW275214   2.181   0.349   3.954
57773SOL     OW75215   2.103   2.993   1.427
57773SOL    HW175216   2.013   2.978   1.400
57773SOL    HW275217   2.147   3.022   1.347
57774SOL     OW75218   3.584  10.478  14.727
57774SOL    HW175219   3.542  10.442  14.805
57774SOL    HW275220   3.527  10.451  14.655
57775SOL     OW75221   4.753   0.703   9.973
57775SOL    HW175222   4.782   0.665  10.056
57775SOL    HW275223   4.757   0.797   9.986
57776SOL     OW75224  12.496   7.823  12.015
57776SOL    HW175225  12.401   7.833  12.016
57776SOL    HW275226  12.521   7.833  12.107
57777SOL     OW75227   4.961   0.450   2.441
57777SOL    HW175228   5.055   0.450   2.424
57777SOL    HW275229   4.938   0.543   2.450
57778SOL     OW75230  11.042   6.295   8.696
57778SOL    HW175231  10.948   6.280   8.708
57778SOL    HW275232  11.065   6.360   8.763
57779SOL     OW75233  10.670   8.493   7.563
57779SOL    HW175234  10.678   8.447   7.647
57779SOL    HW275235  10.606   8.441   7.514
57780SOL     OW75236   4.717  11.565   6.221
57780SOL    HW175237   4.654  11.637   6.222
57780SOL    HW275238   4.709  11.527   6.134
57781SOL     OW75239  13.977   4.705  12.564
57781SOL    HW175240  13.977   4.801  12.565
57781SOL    HW275241  13.892   4.681  12.601
57782SOL     OW75242   9.571   7.766   0.212
57782SOL    HW175243   9.531   7.806   0.289
57782SOL    HW275244   9.532   7.813   0.138
57783SOL     OW75245   6.685   8.163  12.779
57783SOL    HW175246   6.604   8.113  12.791
57783SOL    HW275247   6.699   8.162  12.684
57784SOL     OW75248  14.803   8.518   8.839
57784SOL    HW175249  14.781   8.607   8.810
57784SOL    HW275250   0.017   8.499   8.795
57785SOL     OW75251   2.016   1.155   4.248
57785SOL    HW175252   2.004   1.098   4.324
57785SOL    HW275253   1.995   1.243   4.281
57786SOL     OW75254   8.809   1.015   0.392
57786SOL    HW175255   8.855   1.052   0.317
57786SOL    HW275256   8.761   1.089   0.430
57787SOL     OW75257   4.587   5.241   6.895
57787SOL    HW175258   4.654   5.263   6.831
57787SOL    HW275259   4.580   5.145   6.890
57788SOL     OW75260   4.977   9.166   3.023
57788SOL    HW175261   4.901   9.192   3.076
57788SOL    HW275262   4.978   9.229   2.951
57789SOL     OW75263   2.679  11.360  10.133
57789SOL    HW175264   2.608  11.422  10.117
57789SOL    HW275265   2.733  11.365  10.054
57790SOL     OW75266   3.305   0.363   3.683
57790SOL    HW175267   3.365   0.292   3.657
57790SOL    HW275268   3.271   0.335   3.768
57791SOL     OW75269   3.243  11.258   7.675
57791SOL    HW175270   3.333  11.288   7.663
57791SOL    HW275271   3.250  11.189   7.741
57792SOL     OW75272   9.976   7.644   1.656
57792SOL    HW175273   9.929   7.654   1.739
57792SOL    HW275274   9.953   7.555   1.627
57793SOL     OW75275   3.698  10.651  11.836
57793SOL    HW175276   3.624  10.629  11.778
57793SOL    HW275277   3.776  10.638  11.782
57794SOL     OW75278  10.191  11.178  14.380
57794SOL    HW175279  10.238  11.185  14.297
57794SOL    HW275280  10.222  11.097  14.419
57795SOL     OW75281  11.136   8.554   9.466
57795SOL    HW175282  11.074   8.583   9.399
57795SOL    HW275283  11.206   8.619   9.464
57796SOL     OW75284   1.928   4.257   2.549
57796SOL    HW175285   1.926   4.270   2.454
57796SOL    HW275286   1.886   4.172   2.562
57797SOL     OW75287   4.250  11.253  11.518
57797SOL    HW175288   4.160  11.270  11.547
57797SOL    HW275289   4.244  11.251  11.423
57798SOL     OW75290  13.951   2.686   2.213
57798SOL    HW175291  13.941   2.698   2.308
57798SOL    HW275292  14.038   2.721   2.195
57799SOL     OW75293   6.210  10.000   0.512
57799SOL    HW175294   6.142   9.948   0.554
57799SOL    HW275295   6.233   9.950   0.433
57800SOL     OW75296   6.487   0.122   0.880
57800SOL    HW175297   6.539   0.068   0.940
57800SOL    HW275298   6.410   0.147   0.932
57801SOL     OW75299  10.461  13.238   6.128
57801SOL    HW175300  10.520  13.196   6.191
57801SOL    HW275301  10.501  13.322   6.109
57802SOL     OW75302  11.739   3.597   7.090
57802SOL    HW175303  11.736   3.668   7.025
57802SOL    HW275304  11.663   3.543   7.071
57803SOL     OW75305   5.889  12.588  14.670
57803SOL    HW175306   5.922  12.577  14.581
57803SOL    HW275307   5.965  12.618  14.720
57804SOL     OW75308   3.100   9.312  10.674
57804SOL    HW175309   3.118   9.235  10.727
57804SOL    HW275310   3.134   9.290  10.587
57805SOL     OW75311   9.902  12.893  11.694
57805SOL    HW175312   9.956  12.820  11.726
57805SOL    HW275313   9.957  12.935  11.628
57806SOL     OW75314   9.937   0.029  10.992
57806SOL    HW175315   9.886   0.101  10.954
57806SOL    HW275316   9.995   0.001  10.921
57807SOL     OW75317  13.556   6.698  11.068
57807SOL    HW175318  13.622   6.645  11.023
57807SOL    HW275319  13.548   6.658  11.155
57808SOL     OW75320  11.794   6.577   2.443
57808SOL    HW175321  11.865   6.641   2.448
57808SOL    HW275322  11.735   6.600   2.514
57809SOL     OW75323   9.623   2.952  14.775
57809SOL    HW175324   9.638   2.868  14.731
57809SOL    HW275325   9.556   2.932  14.841
57810SOL     OW75326   7.617   4.929   5.568
57810SOL    HW175327   7.536   4.912   5.616
57810SOL    HW275328   7.594   4.915   5.476
57811SOL     OW75329   2.367   5.923  12.076
57811SOL    HW175330   2.422   5.985  12.028
57811SOL    HW275331   2.344   5.970  12.156
57812SOL     OW75332   7.740   7.646   9.802
57812SOL    HW175333   7.714   7.735   9.778
57812SOL    HW275334   7.664   7.592   9.783
57813SOL     OW75335  14.623   9.822   8.770
57813SOL    HW175336  14.696   9.768   8.799
57813SOL    HW275337  14.631   9.824   8.674
57814SOL     OW75338  11.563  11.382  13.344
57814SOL    HW175339  11.635  11.370  13.282
57814SOL    HW275340  11.606  11.419  13.422
57815SOL     OW75341   4.944   0.094   9.334
57815SOL    HW175342   4.892   0.136   9.266
57815SOL    HW275343   4.954   0.161   9.402
57816SOL     OW75344   1.016   9.418   0.319
57816SOL    HW175345   1.062   9.487   0.365
57816SOL    HW275346   0.931   9.413   0.363
57817SOL     OW75347   9.728   3.003  13.889
57817SOL    HW175348   9.767   2.998  13.976
57817SOL    HW275349   9.665   3.075  13.895
57818SOL     OW75350  10.293   8.414   6.644
57818SOL    HW175351  10.351   8.369   6.583
57818SOL    HW275352  10.217   8.440   6.591
57819SOL     OW75353  13.818  10.498   7.776
57819SOL    HW175354  13.865  10.533   7.700
57819SOL    HW275355  13.816  10.403   7.761
57820SOL     OW75356   3.268   2.535  12.327
57820SOL    HW175357   3.231   2.592  12.259
57820SOL    HW275358   3.192   2.489  12.363
57821SOL     OW75359   0.973  14.750  14.841
57821SOL    HW175360   1.068  14.745  14.827
57821SOL    HW275361   0.953  14.673   0.024
57822SOL     OW75362  13.856   2.273  10.798
57822SOL    HW175363  13.921   2.203  10.801
57822SOL    HW275364  13.903   2.347  10.758
57823SOL     OW75365   5.013  14.617   9.185
57823SOL    HW175366   5.092  14.566   9.204
57823SOL    HW275367   4.943  14.572   9.233
57824SOL     OW75368   2.350   1.783   5.926
57824SOL    HW175369   2.394   1.704   5.957
57824SOL    HW275370   2.320   1.760   5.838
57825SOL     OW75371  13.215   2.014   0.968
57825SOL    HW175372  13.210   2.092   0.913
57825SOL    HW275373  13.130   2.011   1.013
57826SOL     OW75374   6.462   3.431   5.082
57826SOL    HW175375   6.554   3.413   5.059
57826SOL    HW275376   6.416   3.350   5.060
57827SOL     OW75377  11.723  10.682   1.787
57827SOL    HW175378  11.662  10.717   1.723
57827SOL    HW275379  11.803  10.666   1.738
57828SOL     OW75380   7.906   5.024   6.708
57828SOL    HW175381   7.960   5.089   6.664
57828SOL    HW275382   7.953   4.942   6.696
57829SOL     OW75383  12.815   3.801  11.584
57829SOL    HW175384  12.735   3.760  11.618
57829SOL    HW275385  12.884   3.769  11.643
57830SOL     OW75386   7.036   8.107  12.321
57830SOL    HW175387   7.044   8.149  12.236
57830SOL    HW275388   7.000   8.020  12.301
57831SOL     OW75389  10.417   9.984  13.307
57831SOL    HW175390  10.338   9.935  13.285
57831SOL    HW275391  10.446   9.945  13.390
57832SOL     OW75392   3.351  12.339  12.919
57832SOL    HW175393   3.271  12.319  12.869
57832SOL    HW275394   3.358  12.434  12.916
57833SOL     OW75395   3.351   0.853   6.351
57833SOL    HW175396   3.322   0.944   6.340
57833SOL    HW275397   3.288   0.815   6.412
57834SOL     OW75398  11.091   7.859   8.248
57834SOL    HW175399  11.185   7.838   8.249
57834SOL    HW275400  11.086   7.947   8.285
57835SOL     OW75401  14.406  10.888  11.094
57835SOL    HW175402  14.464  10.812  11.093
57835SOL    HW275403  14.378  10.898  11.003
57836SOL     OW75404   9.685   8.618  10.563
57836SOL    HW175405   9.676   8.668  10.644
57836SOL    HW275406   9.705   8.685  10.496
57837SOL     OW75407   5.788   4.864   2.416
57837SOL    HW175408   5.814   4.833   2.503
57837SOL    HW275409   5.734   4.794   2.380
57838SOL     OW75410   1.149   5.382   4.320
57838SOL    HW175411   1.233   5.381   4.366
57838SOL    HW275412   1.173   5.382   4.227
57839SOL     OW75413   5.665   1.475  12.071
57839SOL    HW175414   5.756   1.491  12.095
57839SOL    HW275415   5.659   1.379  12.067
57840SOL     OW75416   3.206   1.071   6.448
57840SOL    HW175417   3.139   1.038   6.507
57840SOL    HW275418   3.272   1.110   6.506
57841SOL     OW75419  11.055   0.049   5.754
57841SOL    HW175420  11.005   0.130   5.763
57841SOL    HW275421  11.075   0.043   5.661
57842SOL     OW75422  14.837   5.454   1.113
57842SOL    HW175423  14.836   5.362   1.085
57842SOL    HW275424   0.058   5.481   1.102
57843SOL     OW75425   0.227  12.031   6.940
57843SOL    HW175426   0.308  11.982   6.947
57843SOL    HW275427   0.246  12.116   6.980
57844SOL     OW75428  10.813   9.090   6.427
57844SOL    HW175429  10.850   9.011   6.388
57844SOL    HW275430  10.827   9.158   6.362
57845SOL     OW75431  14.573  10.779   1.168
57845SOL    HW175432  14.561  10.874   1.171
57845SOL    HW275433  14.553  10.755   1.078
57846SOL     OW75434   8.002  13.807   9.569
57846SOL    HW175435   7.941  13.861   9.519
57846SOL    HW275436   7.952  13.727   9.589
57847SOL     OW75437   2.125   8.494  10.170
57847SOL    HW175438   2.160   8.576  10.205
57847SOL    HW275439   2.192   8.429  10.190
57848SOL     OW75440   7.684   3.876  10.352
57848SOL    HW175441   7.699   3.873  10.447
57848SOL    HW275442   7.760   3.833  10.314
57849SOL     OW75443  13.351  10.258   1.692
57849SOL    HW175444  13.395  10.173   1.691
57849SOL    HW275445  13.422  10.322   1.680
57850SOL     OW75446   7.300   1.720  12.459
57850SOL    HW175447   7.299   1.630  12.490
57850SOL    HW275448   7.276   1.714  12.367
57851SOL     OW75449   7.553   6.136  10.030
57851SOL    HW175450   7.627   6.196  10.029
57851SOL    HW275451   7.517   6.140   9.941
57852SOL     OW75452   2.610   1.452   3.866
57852SOL    HW175453   2.630   1.533   3.913
57852SOL    HW275454   2.609   1.477   3.774
57853SOL     OW75455   9.099   0.897   7.093
57853SOL    HW175456   9.169   0.887   7.029
57853SOL    HW275457   9.141   0.881   7.178
57854SOL     OW75458   1.075   4.696   7.890
57854SOL    HW175459   0.993   4.647   7.898
57854SOL    HW275460   1.051   4.776   7.843
57855SOL     OW75461   3.430   5.343   8.617
57855SOL    HW175462   3.411   5.255   8.586
57855SOL    HW275463   3.430   5.336   8.713
57856SOL     OW75464  10.083   6.607  13.272
57856SOL    HW175465  10.054   6.537  13.214
57856SOL    HW275466  10.158   6.646  13.228
57857SOL     OW75467   7.209   1.894   9.015
57857SOL    HW175468   7.279   1.829   9.021
57857SOL    HW275469   7.212   1.940   9.099
57858SOL     OW75470  13.744  12.503   5.064
57858SOL    HW175471  13.766  12.536   4.977
57858SOL    HW275472  13.656  12.538   5.082
57859SOL     OW75473  11.931   2.407   9.832
57859SOL    HW175474  11.980   2.353   9.770
57859SOL    HW275475  11.845   2.418   9.791
57860SOL     OW75476  11.462   7.868   3.693
57860SOL    HW175477  11.541   7.907   3.732
57860SOL    HW275478  11.398   7.868   3.765
57861SOL     OW75479  11.739   0.532   9.189
57861SOL    HW175480  11.834   0.538   9.202
57861SOL    HW275481  11.726   0.551   9.096
57862SOL     OW75482   1.769   4.688   4.087
57862SOL    HW175483   1.709   4.716   4.156
57862SOL    HW275484   1.853   4.728   4.110
57863SOL     OW75485  11.226   8.933   8.845
57863SOL    HW175486  11.198   8.961   8.932
57863SOL    HW275487  11.322   8.936   8.849
57864SOL     OW75488   6.299   6.738  13.084
57864SOL    HW175489   6.277   6.680  13.012
57864SOL    HW275490   6.266   6.694  13.162
57865SOL     OW75491   6.245   4.975   1.990
57865SOL    HW175492   6.236   4.978   1.894
57865SOL    HW275493   6.317   5.035   2.009
57866SOL     OW75494  13.905   7.998   4.410
57866SOL    HW175495  13.872   8.058   4.477
57866SOL    HW275496  13.882   7.911   4.442
57867SOL     OW75497   3.539   5.505   0.912
57867SOL    HW175498   3.550   5.579   0.972
57867SOL    HW275499   3.626   5.492   0.874
57868SOL     OW75500   0.567   3.146  11.161
57868SOL    HW175501   0.550   3.187  11.076
57868SOL    HW275502   0.570   3.219  11.223
57869SOL     OW75503  10.514   3.811   5.672
57869SOL    HW175504  10.512   3.773   5.584
57869SOL    HW275505  10.598   3.856   5.677
57870SOL     OW75506   2.181   4.265  11.598
57870SOL    HW175507   2.269   4.303  11.600
57870SOL    HW275508   2.157   4.264  11.506
57871SOL     OW75509   3.672   4.866  12.192
57871SOL    HW175510   3.665   4.917  12.273
57871SOL    HW275511   3.625   4.919  12.127
57872SOL     OW75512   6.771   1.350   2.345
57872SOL    HW175513   6.702   1.346   2.279
57872SOL    HW275514   6.778   1.443   2.367
57873SOL     OW75515  14.531   2.492   1.971
57873SOL    HW175516  14.596   2.561   1.977
57873SOL    HW275517  14.574   2.414   2.007
57874SOL     OW75518  14.182  13.309   2.365
57874SOL    HW175519  14.191  13.338   2.274
57874SOL    HW275520  14.170  13.391   2.414
57875SOL     OW75521   5.209  12.054   2.789
57875SOL    HW175522   5.297  12.080   2.761
57875SOL    HW275523   5.202  11.962   2.764
57876SOL     OW75524  14.197   6.608   4.773
57876SOL    HW175525  14.290   6.614   4.795
57876SOL    HW275526  14.196   6.599   4.677
57877SOL     OW75527  12.720   8.068   8.027
57877SOL    HW175528  12.758   8.120   8.098
57877SOL    HW275529  12.774   7.989   8.024
57878SOL     OW75530   1.176   7.596  10.250
57878SOL    HW175531   1.128   7.537  10.192
57878SOL    HW275532   1.192   7.674  10.198
57879SOL     OW75533  14.399  10.199   6.985
57879SOL    HW175534  14.477  10.235   7.027
57879SOL    HW275535  14.368  10.270   6.928
57880SOL     OW75536   0.068   7.736   4.466
57880SOL    HW175537   0.138   7.795   4.495
57880SOL    HW275538   0.087   7.653   4.510
57881SOL     OW75539   2.770   5.881   9.471
57881SOL    HW175540   2.675   5.885   9.473
57881SOL    HW275541   2.794   5.914   9.384
57882SOL     OW75542   4.539   2.833   4.476
57882SOL    HW175543   4.605   2.782   4.522
57882SOL    HW275544   4.518   2.905   4.536
57883SOL     OW75545   3.764  13.560   5.920
57883SOL    HW175546   3.815  13.635   5.891
57883SOL    HW275547   3.673  13.589   5.919
57884SOL     OW75548   4.720   6.628   1.105
57884SOL    HW175549   4.645   6.686   1.098
57884SOL    HW275550   4.722   6.581   1.021
57885SOL     OW75551  12.765  13.696  12.199
57885SOL    HW175552  12.762  13.790  12.181
57885SOL    HW275553  12.677  13.665  12.180
57886SOL     OW75554   2.691   0.853   4.988
57886SOL    HW175555   2.691   0.901   4.905
57886SOL    HW275556   2.637   0.907   5.046
57887SOL     OW75557   8.067  12.924   6.385
57887SOL    HW175558   8.017  12.888   6.458
57887SOL    HW275559   8.154  12.884   6.392
57888SOL     OW75560   2.620   0.779  13.323
57888SOL    HW175561   2.639   0.726  13.401
57888SOL    HW275562   2.699   0.774  13.270
57889SOL     OW75563  13.286  10.288   1.958
57889SOL    HW175564  13.296  10.281   1.863
57889SOL    HW275565  13.214  10.350   1.970
57890SOL     OW75566  12.644   6.208  11.144
57890SOL    HW175567  12.591   6.244  11.215
57890SOL    HW275568  12.598   6.233  11.064
57891SOL     OW75569   2.703   8.776   1.604
57891SOL    HW175570   2.715   8.692   1.561
57891SOL    HW275571   2.786   8.822   1.592
57892SOL     OW75572  13.150   0.366  12.172
57892SOL    HW175573  13.120   0.451  12.204
57892SOL    HW275574  13.231   0.385  12.125
57893SOL     OW75575   9.818  10.903  11.708
57893SOL    HW175576   9.842  10.849  11.784
57893SOL    HW275577   9.723  10.899  11.706
57894SOL     OW75578  12.432   7.739   5.364
57894SOL    HW175579  12.371   7.790   5.417
57894SOL    HW275580  12.468   7.802   5.302
57895SOL     OW75581  14.281  12.356   9.244
57895SOL    HW175582  14.339  12.284   9.269
57895SOL    HW275583  14.334  12.434   9.258
57896SOL     OW75584  14.039  11.887   6.967
57896SOL    HW175585  14.048  11.982   6.962
57896SOL    HW275586  14.089  11.854   6.892
57897SOL     OW75587   7.847   3.627   1.773
57897SOL    HW175588   7.866   3.581   1.692
57897SOL    HW275589   7.796   3.565   1.825
57898SOL     OW75590  13.444  14.469   1.502
57898SOL    HW175591  13.488  14.458   1.418
57898SOL    HW275592  13.513  14.501   1.560
57899SOL     OW75593   0.112  13.305   1.998
57899SOL    HW175594   0.030  13.319   2.045
57899SOL    HW275595   0.159  13.388   2.007
57900SOL     OW75596   8.063   0.361  11.475
57900SOL    HW175597   7.990   0.409  11.513
57900SOL    HW275598   8.024   0.285  11.433
57901SOL     OW75599   7.529   2.912   0.562
57901SOL    HW175600   7.488   2.938   0.645
57901SOL    HW275601   7.477   2.837   0.532
57902SOL     OW75602  12.470   7.304   9.444
57902SOL    HW175603  12.543   7.290   9.384
57902SOL    HW275604  12.505   7.360   9.512
57903SOL     OW75605  10.036  13.133   5.278
57903SOL    HW175606  10.066  13.127   5.368
57903SOL    HW275607  10.087  13.204   5.239
57904SOL     OW75608   0.420   5.900   9.317
57904SOL    HW175609   0.418   5.812   9.354
57904SOL    HW275610   0.474   5.950   9.377
57905SOL     OW75611   7.648   4.464  11.974
57905SOL    HW175612   7.712   4.410  11.928
57905SOL    HW275613   7.568   4.411  11.975
57906SOL     OW75614  12.592   9.219   3.012
57906SOL    HW175615  12.652   9.144   3.019
57906SOL    HW275616  12.601   9.248   2.921
57907SOL     OW75617  11.330   7.885   0.862
57907SOL    HW175618  11.333   7.801   0.907
57907SOL    HW275619  11.263   7.935   0.909
57908SOL     OW75620   0.009   0.184   1.000
57908SOL    HW175621   0.010   0.142   0.914
57908SOL    HW275622   0.089   0.237   1.002
57909SOL     OW75623   6.032  10.500  10.617
57909SOL    HW175624   6.070  10.514  10.530
57909SOL    HW275625   5.941  10.475  10.599
57910SOL     OW75626   6.716  11.427   6.704
57910SOL    HW175627   6.787  11.409   6.766
57910SOL    HW275628   6.653  11.356   6.719
57911SOL     OW75629   3.152  10.461  12.430
57911SOL    HW175630   3.185  10.380  12.392
57911SOL    HW275631   3.071  10.436  12.475
57912SOL     OW75632   4.117   9.025   5.970
57912SOL    HW175633   4.151   8.944   6.008
57912SOL    HW275634   4.022   9.011   5.965
57913SOL     OW75635   5.368   7.150  14.251
57913SOL    HW175636   5.367   7.056  14.270
57913SOL    HW275637   5.314   7.189  14.321
57914SOL     OW75638   2.897   1.990   4.049
57914SOL    HW175639   2.947   1.926   4.101
57914SOL    HW275640   2.907   1.960   3.959
57915SOL     OW75641  13.708  11.670  13.658
57915SOL    HW175642  13.780  11.720  13.620
57915SOL    HW275643  13.645  11.736  13.686
57916SOL     OW75644   2.582   3.911   9.658
57916SOL    HW175645   2.530   3.891   9.579
57916SOL    HW275646   2.660   3.955   9.624
57917SOL     OW75647   6.923   0.740  12.614
57917SOL    HW175648   6.828   0.737  12.603
57917SOL    HW275649   6.947   0.830  12.590
57918SOL     OW75650  11.765   7.203  12.266
57918SOL    HW175651  11.841   7.228  12.213
57918SOL    HW275652  11.802   7.183  12.352
57919SOL     OW75653  10.177  14.286   9.199
57919SOL    HW175654  10.131  14.333   9.129
57919SOL    HW275655  10.134  14.201   9.204
57920SOL     OW75656   7.823  12.120  12.356
57920SOL    HW175657   7.889  12.129  12.424
57920SOL    HW275658   7.810  12.026  12.347
57921SOL     OW75659  14.652   9.859  10.502
57921SOL    HW175660  14.592   9.823  10.567
57921SOL    HW275661  14.637   9.954  10.505
57922SOL     OW75662   5.491  13.906   8.204
57922SOL    HW175663   5.581  13.876   8.218
57922SOL    HW275664   5.476  13.894   8.110
57923SOL     OW75665  14.290  13.025   7.276
57923SOL    HW175666  14.303  13.013   7.182
57923SOL    HW275667  14.285  12.937   7.312
57924SOL     OW75668   4.565   0.040  14.432
57924SOL    HW175669   4.598   0.025  14.521
57924SOL    HW275670   4.481  14.863  14.430
57925SOL     OW75671   2.854   6.772   3.497
57925SOL    HW175672   2.898   6.735   3.573
57925SOL    HW275673   2.909   6.846   3.470
57926SOL     OW75674   3.102  11.562   9.536
57926SOL    HW175675   3.034  11.506   9.499
57926SOL    HW275676   3.160  11.582   9.461
57927SOL     OW75677   3.590  11.335  10.589
57927SOL    HW175678   3.570  11.378  10.505
57927SOL    HW275679   3.685  11.321  10.587
57928SOL     OW75680   7.646   9.389  10.428
57928SOL    HW175681   7.633   9.342  10.346
57928SOL    HW275682   7.606   9.332  10.494
57929SOL     OW75683   0.225   7.513   9.474
57929SOL    HW175684   0.170   7.471   9.408
57929SOL    HW275685   0.314   7.508   9.437
57930SOL     OW75686  12.223   0.493   4.193
57930SOL    HW175687  12.166   0.509   4.269
57930SOL    HW275688  12.175   0.428   4.141
57931SOL     OW75689   1.609   0.194   5.724
57931SOL    HW175690   1.556   0.220   5.649
57931SOL    HW275691   1.599   0.266   5.787
57932SOL     OW75692   6.690  12.725   7.126
57932SOL    HW175693   6.673  12.632   7.109
57932SOL    HW275694   6.680  12.767   7.040
57933SOL     OW75695  14.838   2.995   7.174
57933SOL    HW175696  14.823   2.999   7.268
57933SOL    HW275697   0.064   2.992   7.166
57934SOL     OW75698   2.145   6.959  11.371
57934SOL    HW175699   2.163   6.873  11.334
57934SOL    HW275700   2.232   6.997  11.387
57935SOL     OW75701  12.425  12.457   9.389
57935SOL    HW175702  12.332  12.445   9.410
57935SOL    HW275703  12.427  12.473   9.295
57936SOL     OW75704   7.687   5.723  10.998
57936SOL    HW175705   7.671   5.702  11.090
57936SOL    HW275706   7.719   5.813  10.999
57937SOL     OW75707   2.725   4.152  11.879
57937SOL    HW175708   2.668   4.075  11.881
57937SOL    HW275709   2.703   4.201  11.958
57938SOL     OW75710   0.790   2.934  14.527
57938SOL    HW175711   0.827   2.939  14.616
57938SOL    HW275712   0.703   2.897  14.540
57939SOL     OW75713   0.568   0.139   2.008
57939SOL    HW175714   0.658   0.148   2.037
57939SOL    HW275715   0.519   0.202   2.061
57940SOL     OW75716   6.723   9.752   8.913
57940SOL    HW175717   6.753   9.710   8.994
57940SOL    HW275718   6.653   9.695   8.882
57941SOL     OW75719   6.163   6.990  12.126
57941SOL    HW175720   6.176   7.071  12.076
57941SOL    HW275721   6.138   7.019  12.213
57942SOL     OW75722   7.196   9.977  11.842
57942SOL    HW175723   7.161  10.025  11.917
57942SOL    HW275724   7.278   9.940  11.873
57943SOL     OW75725   4.035   6.178   2.801
57943SOL    HW175726   4.118   6.221   2.779
57943SOL    HW275727   4.046   6.152   2.892
57944SOL     OW75728   7.601   1.295   2.330
57944SOL    HW175729   7.605   1.329   2.419
57944SOL    HW275730   7.650   1.359   2.278
57945SOL     OW75731   5.275   8.850  13.919
57945SOL    HW175732   5.311   8.936  13.894
57945SOL    HW275733   5.183   8.854  13.892
57946SOL     OW75734  11.655   3.251   2.323
57946SOL    HW175735  11.739   3.209   2.339
57946SOL    HW275736  11.631   3.225   2.234
57947SOL     OW75737   2.635   5.334   4.338
57947SOL    HW175738   2.728   5.356   4.341
57947SOL    HW275739   2.591   5.417   4.319
57948SOL     OW75740   0.107  14.777   2.074
57948SOL    HW175741   0.118  14.804   1.983
57948SOL    HW275742   0.192  14.739   2.097
57949SOL     OW75743   5.866   5.847   5.945
57949SOL    HW175744   5.846   5.779   5.880
57949SOL    HW275745   5.959   5.834   5.965
57950SOL     OW75746   2.248   8.530   7.843
57950SOL    HW175747   2.233   8.544   7.750
57950SOL    HW275748   2.199   8.450   7.863
57951SOL     OW75749   1.342  10.313   2.084
57951SOL    HW175750   1.383  10.286   2.002
57951SOL    HW275751   1.385  10.260   2.151
57952SOL     OW75752   6.269   5.764   0.786
57952SOL    HW175753   6.287   5.674   0.757
57952SOL    HW275754   6.185   5.758   0.831
57953SOL     OW75755   6.769   3.005   5.947
57953SOL    HW175756   6.696   2.946   5.966
57953SOL    HW275757   6.782   3.054   6.028
57954SOL     OW75758   6.956   7.905  13.612
57954SOL    HW175759   7.010   7.849  13.669
57954SOL    HW275760   6.869   7.865  13.616
57955SOL     OW75761  13.226   1.933   8.387
57955SOL    HW175762  13.259   1.863   8.331
57955SOL    HW275763  13.302   1.990   8.402
57956SOL     OW75764   5.924   9.441   1.823
57956SOL    HW175765   6.001   9.488   1.855
57956SOL    HW275766   5.869   9.428   1.900
57957SOL     OW75767   2.060   3.102   3.391
57957SOL    HW175768   2.090   3.109   3.300
57957SOL    HW275769   2.015   3.017   3.395
57958SOL     OW75770  12.516   6.732  10.635
57958SOL    HW175771  12.552   6.677  10.566
57958SOL    HW275772  12.422   6.714  10.633
57959SOL     OW75773   2.003   0.732   1.445
57959SOL    HW175774   2.078   0.735   1.505
57959SOL    HW275775   1.993   0.823   1.415
57960SOL     OW75776  13.152  12.786   0.680
57960SOL    HW175777  13.130  12.771   0.772
57960SOL    HW275778  13.165  12.699   0.644
57961SOL     OW75779   9.557  12.804  14.120
57961SOL    HW175780   9.465  12.783  14.102
57961SOL    HW275781   9.594  12.822  14.034
57962SOL     OW75782   2.337  11.473   0.395
57962SOL    HW175783   2.309  11.563   0.411
57962SOL    HW275784   2.409  11.482   0.332
57963SOL     OW75785   6.015  14.710   6.278
57963SOL    HW175786   6.051  14.625   6.303
57963SOL    HW275787   5.960  14.692   6.202
57964SOL     OW75788   6.389  14.149   6.902
57964SOL    HW175789   6.483  14.170   6.902
57964SOL    HW275790   6.350  14.216   6.958
57965SOL     OW75791   8.572   5.105   7.845
57965SOL    HW175792   8.489   5.059   7.847
57965SOL    HW275793   8.551   5.194   7.873
57966SOL     OW75794   8.317   5.299   6.588
57966SOL    HW175795   8.317   5.290   6.493
57966SOL    HW275796   8.225   5.308   6.612
57967SOL     OW75797   3.246  13.796   3.341
57967SOL    HW175798   3.323  13.844   3.312
57967SOL    HW275799   3.178  13.863   3.350
57968SOL     OW75800  14.522   2.710  14.219
57968SOL    HW175801  14.519   2.668  14.305
57968SOL    HW275802  14.534   2.803  14.239
57969SOL     OW75803  10.839   0.714   5.807
57969SOL    HW175804  10.797   0.675   5.729
57969SOL    HW275805  10.925   0.741   5.776
57970SOL     OW75806   9.559   2.398   6.898
57970SOL    HW175807   9.620   2.465   6.927
57970SOL    HW275808   9.599   2.361   6.819
57971SOL     OW75809  14.298  11.185   5.444
57971SOL    HW175810  14.363  11.190   5.514
57971SOL    HW275811  14.232  11.251   5.468
57972SOL     OW75812   3.063   4.660   6.211
57972SOL    HW175813   3.009   4.614   6.275
57972SOL    HW275814   3.004   4.678   6.138
57973SOL     OW75815  14.716  12.161   4.487
57973SOL    HW175816  14.622  12.157   4.503
57973SOL    HW275817  14.755  12.164   4.574
57974SOL     OW75818   3.296  14.824  11.882
57974SOL    HW175819   3.260   0.015  11.947
57974SOL    HW275820   3.389  14.816  11.906
57975SOL     OW75821  13.763   6.525   1.106
57975SOL    HW175822  13.675   6.555   1.127
57975SOL    HW275823  13.750   6.454   1.044
57976SOL     OW75824   2.402   7.122  11.190
57976SOL    HW175825   2.438   7.058  11.128
57976SOL    HW275826   2.479   7.156  11.236
57977SOL     OW75827  12.039   3.072  12.577
57977SOL    HW175828  11.999   2.990  12.548
57977SOL    HW275829  11.971   3.114  12.631
57978SOL     OW75830   9.679   3.071   4.568
57978SOL    HW175831   9.627   3.084   4.489
57978SOL    HW275832   9.621   3.098   4.640
57979SOL     OW75833   6.389   9.017  14.227
57979SOL    HW175834   6.430   9.073  14.162
57979SOL    HW275835   6.434   8.933  14.218
57980SOL     OW75836   3.006  11.732  10.226
57980SOL    HW175837   2.939  11.706  10.289
57980SOL    HW275838   3.064  11.656  10.220
57981SOL     OW75839   3.465  12.029   9.154
57981SOL    HW175840   3.479  11.990   9.068
57981SOL    HW275841   3.463  11.954   9.214
57982SOL     OW75842   7.644   0.290   3.246
57982SOL    HW175843   7.708   0.293   3.317
57982SOL    HW275844   7.695   0.259   3.170
57983SOL     OW75845   3.625  13.794  14.469
57983SOL    HW175846   3.683  13.859  14.508
57983SOL    HW275847   3.626  13.721  14.531
57984SOL     OW75848  12.921   5.660   6.671
57984SOL    HW175849  12.948   5.737   6.721
57984SOL    HW275850  12.866   5.695   6.601
57985SOL     OW75851  10.578   6.515  12.594
57985SOL    HW175852  10.506   6.559  12.550
57985SOL    HW275853  10.592   6.565  12.674
57986SOL     OW75854   2.961   5.998   8.560
57986SOL    HW175855   2.960   6.090   8.533
57986SOL    HW275856   3.044   5.988   8.607
57987SOL     OW75857   6.943   5.221   9.393
57987SOL    HW175858   6.915   5.281   9.462
57987SOL    HW275859   6.868   5.162   9.381
57988SOL     OW75860   3.902   1.494   3.575
57988SOL    HW175861   3.992   1.500   3.608
57988SOL    HW275862   3.862   1.578   3.596
57989SOL     OW75863   4.127  12.740   5.611
57989SOL    HW175864   4.092  12.658   5.646
57989SOL    HW275865   4.219  12.722   5.592
57990SOL     OW75866  12.955  11.205   9.788
57990SOL    HW175867  12.868  11.164   9.786
57990SOL    HW275868  12.996  11.170   9.868
57991SOL     OW75869   4.290   0.923   2.652
57991SOL    HW175870   4.220   0.948   2.592
57991SOL    HW275871   4.290   0.827   2.649
57992SOL     OW75872   4.945   7.174   0.407
57992SOL    HW175873   4.921   7.204   0.494
57992SOL    HW275874   5.041   7.183   0.404
57993SOL     OW75875   5.845   0.599   6.225
57993SOL    HW175876   5.940   0.597   6.237
57993SOL    HW275877   5.830   0.549   6.144
57994SOL     OW75878  13.651  13.803  12.325
57994SOL    HW175879  13.667  13.762  12.241
57994SOL    HW275880  13.732  13.851  12.344
57995SOL     OW75881  13.065   9.291   7.826
57995SOL    HW175882  13.082   9.333   7.742
57995SOL    HW275883  13.152   9.284   7.867
57996SOL     OW75884  12.532  11.096   5.414
57996SOL    HW175885  12.594  11.060   5.477
57996SOL    HW275886  12.448  11.056   5.436
57997SOL     OW75887  11.542   6.667  14.550
57997SOL    HW175888  11.528   6.757  14.519
57997SOL    HW275889  11.466   6.647  14.603
57998SOL     OW75890   6.958  14.741   5.052
57998SOL    HW175891   6.927  14.652   5.069
57998SOL    HW275892   6.916  14.794   5.119
57999SOL     OW75893  14.244  14.222   7.002
57999SOL    HW175894  14.325  14.191   7.041
57999SOL    HW275895  14.176  14.194   7.062
58000SOL     OW75896   5.536   2.033   1.131
58000SOL    HW175897   5.548   1.943   1.164
58000SOL    HW275898   5.568   2.089   1.201
58001SOL     OW75899   6.088  14.826   8.546
58001SOL    HW175900   6.029  14.754   8.522
58001SOL    HW275901   6.145  14.836   8.470
58002SOL     OW75902   1.275   9.890   5.492
58002SOL    HW175903   1.184   9.920   5.488
58002SOL    HW275904   1.311   9.933   5.569
58003SOL     OW75905   9.436   6.634   1.263
58003SOL    HW175906   9.515   6.687   1.252
58003SOL    HW275907   9.389   6.675   1.335
58004SOL     OW75908  11.806  10.388  11.755
58004SOL    HW175909  11.746  10.461  11.767
58004SOL    HW275910  11.888  10.417  11.794
58005SOL     OW75911  13.153   4.638  11.198
58005SOL    HW175912  13.241   4.614  11.229
58005SOL    HW275913  13.098   4.633  11.275
58006SOL     OW75914  10.312  13.160   1.502
58006SOL    HW175915  10.316  13.069   1.530
58006SOL    HW275916  10.373  13.165   1.427
58007SOL     OW75917  13.908   9.829   1.834
58007SOL    HW175918  13.954   9.897   1.884
58007SOL    HW275919  13.977   9.789   1.780
58008SOL     OW75920   5.632   4.072   2.709
58008SOL    HW175921   5.591   4.139   2.654
58008SOL    HW275922   5.575   3.995   2.699
58009SOL     OW75923   1.016  10.795  11.912
58009SOL    HW175924   1.028  10.702  11.889
58009SOL    HW275925   0.997  10.793  12.006
58010SOL     OW75926   6.991  12.645   0.162
58010SOL    HW175927   7.019  12.557   0.187
58010SOL    HW275928   6.898  12.637   0.144
58011SOL     OW75929   3.461   1.164  11.545
58011SOL    HW175930   3.401   1.148  11.472
58011SOL    HW275931   3.485   1.077  11.576
58012SOL     OW75932   3.284   5.365   7.732
58012SOL    HW175933   3.234   5.446   7.743
58012SOL    HW275934   3.220   5.302   7.699
58013SOL     OW75935  12.038   5.986   1.883
58013SOL    HW175936  12.082   6.054   1.933
58013SOL    HW275937  12.097   5.966   1.811
58014SOL     OW75938  11.829   0.204  12.128
58014SOL    HW175939  11.843   0.167  12.215
58014SOL    HW275940  11.878   0.147  12.069
58015SOL     OW75941   9.855  14.340   8.539
58015SOL    HW175942   9.921  14.274   8.560
58015SOL    HW275943   9.822  14.369   8.624
58016SOL     OW75944  10.274   8.519   9.476
58016SOL    HW175945  10.323   8.437   9.477
58016SOL    HW275946  10.335   8.583   9.438
58017SOL     OW75947   2.075   3.226   8.168
58017SOL    HW175948   2.102   3.164   8.236
58017SOL    HW275949   2.106   3.187   8.086
58018SOL     OW75950   6.956   5.996   2.892
58018SOL    HW175951   6.902   5.918   2.904
58018SOL    HW275952   7.029   5.984   2.954
58019SOL     OW75953   8.953  13.179   0.930
58019SOL    HW175954   8.867  13.136   0.930
58019SOL    HW275955   9.005  13.128   0.992
58020SOL     OW75956  11.441   2.121   8.370
58020SOL    HW175957  11.463   2.043   8.321
58020SOL    HW275958  11.452   2.193   8.308
58021SOL     OW75959  13.960   2.320   4.107
58021SOL    HW175960  13.956   2.387   4.039
58021SOL    HW275961  13.875   2.326   4.151
58022SOL     OW75962   5.812  10.915   8.177
58022SOL    HW175963   5.752  10.840   8.175
58022SOL    HW275964   5.756  10.991   8.159
58023SOL     OW75965   7.630  11.370   7.716
58023SOL    HW175966   7.667  11.294   7.671
58023SOL    HW275967   7.609  11.431   7.645
58024SOL     OW75968   1.153  14.405   7.520
58024SOL    HW175969   1.168  14.310   7.527
58024SOL    HW275970   1.121  14.417   7.431
58025SOL     OW75971   9.305   6.682   9.824
58025SOL    HW175972   9.255   6.603   9.847
58025SOL    HW275973   9.384   6.677   9.877
58026SOL     OW75974  13.088   0.274   8.591
58026SOL    HW175975  13.063   0.243   8.678
58026SOL    HW275976  13.010   0.258   8.537
58027SOL     OW75977  13.161   1.310   1.143
58027SOL    HW175978  13.182   1.403   1.136
58027SOL    HW275979  13.127   1.287   1.056
58028SOL     OW75980  13.231   2.133   6.968
58028SOL    HW175981  13.152   2.128   7.022
58028SOL    HW275982  13.202   2.104   6.882
58029SOL     OW75983   4.906   0.937   9.141
58029SOL    HW175984   4.910   1.021   9.187
58029SOL    HW275985   4.858   0.956   9.060
58030SOL     OW75986   6.452   4.212  13.486
58030SOL    HW175987   6.484   4.182  13.571
58030SOL    HW275988   6.481   4.144  13.424
58031SOL     OW75989   8.218   9.423  10.666
58031SOL    HW175990   8.128   9.392  10.655
58031SOL    HW275991   8.215   9.515  10.641
58032SOL     OW75992   8.010  14.865   7.927
58032SOL    HW175993   7.988  14.778   7.961
58032SOL    HW275994   7.928   0.026   7.888
58033SOL     OW75995   2.576   4.328  10.833
58033SOL    HW175996   2.587   4.346  10.740
58033SOL    HW275997   2.568   4.233  10.839
58034SOL     OW75998   1.277   0.845   0.820
58034SOL    HW175999   1.240   0.864   0.906
58034SOL    HW276000   1.228   0.768   0.789
58035SOL     OW76001  14.515   5.523   9.612
58035SOL    HW176002  14.538   5.431   9.623
58035SOL    HW276003  14.594   5.571   9.635
58036SOL     OW76004   8.248  12.988   9.278
58036SOL    HW176005   8.246  12.945   9.363
58036SOL    HW276006   8.181  13.056   9.283
58037SOL     OW76007   7.364   5.320   6.885
58037SOL    HW176008   7.436   5.375   6.852
58037SOL    HW276009   7.290   5.340   6.828
58038SOL     OW76010  12.426   2.187  11.620
58038SOL    HW176011  12.515   2.215  11.601
58038SOL    HW276012  12.430   2.091  11.618
58039SOL     OW76013   0.584   7.311  14.586
58039SOL    HW176014   0.559   7.241  14.526
58039SOL    HW276015   0.656   7.357  14.542
58040SOL     OW76016  13.024  11.061   7.367
58040SOL    HW176017  13.003  11.152   7.349
58040SOL    HW276018  13.103  11.043   7.315
58041SOL     OW76019   4.210  12.200   3.455
58041SOL    HW176020   4.129  12.152   3.467
58041SOL    HW276021   4.278  12.143   3.490
58042SOL     OW76022  11.039  13.103   5.611
58042SOL    HW176023  11.115  13.047   5.598
58042SOL    HW276024  11.053  13.177   5.552
58043SOL     OW76025   3.557   2.751  12.231
58043SOL    HW176026   3.522   2.839  12.220
58043SOL    HW276027   3.572   2.743  12.325
58044SOL     OW76028   3.605  13.205   6.193
58044SOL    HW176029   3.553  13.254   6.129
58044SOL    HW276030   3.545  13.191   6.266
58045SOL     OW76031   0.062   0.475   2.003
58045SOL    HW176032   0.058   0.379   2.006
58045SOL    HW276033   0.064   0.496   1.910
58046SOL     OW76034   6.638   4.363  10.144
58046SOL    HW176035   6.654   4.433  10.206
58046SOL    HW276036   6.620   4.286  10.198
58047SOL     OW76037   0.055   2.464  12.268
58047SOL    HW176038   0.116   2.407  12.315
58047SOL    HW276039  14.842   2.415  12.268
58048SOL     OW76040  13.330  14.265   8.340
58048SOL    HW176041  13.402  14.232   8.394
58048SOL    HW276042  13.352  14.356   8.323
58049SOL     OW76043  12.499  13.955   0.725
58049SOL    HW176044  12.456  13.922   0.804
58049SOL    HW276045  12.566  14.014   0.757
58050SOL     OW76046  13.708  13.455   5.512
58050SOL    HW176047  13.715  13.412   5.597
58050SOL    HW276048  13.617  13.439   5.485
58051SOL     OW76049   1.696   0.499   6.524
58051SOL    HW176050   1.661   0.450   6.599
58051SOL    HW276051   1.784   0.464   6.512
58052SOL     OW76052  13.328  11.504  13.752
58052SOL    HW176053  13.266  11.462  13.694
58052SOL    HW276054  13.414  11.477  13.719
58053SOL     OW76055   5.728   2.123  14.106
58053SOL    HW176056   5.747   2.129  14.012
58053SOL    HW276057   5.740   2.031  14.127
58054SOL     OW76058  10.371  10.400   9.122
58054SOL    HW176059  10.400  10.326   9.068
58054SOL    HW276060  10.409  10.477   9.079
58055SOL     OW76061  14.187   0.452   7.003
58055SOL    HW176062  14.231   0.536   7.007
58055SOL    HW276063  14.141   0.444   7.087
58056SOL     OW76064   3.807   6.039  11.985
58056SOL    HW176065   3.768   6.084  11.909
58056SOL    HW276066   3.875   5.983  11.947
58057SOL     OW76067   8.049  11.741   9.775
58057SOL    HW176068   8.033  11.831   9.804
58057SOL    HW276069   7.982  11.725   9.708
58058SOL     OW76070   3.110   7.794  13.142
58058SOL    HW176071   3.173   7.822  13.208
58058SOL    HW276072   3.031   7.844  13.161
58059SOL     OW76073  13.068   5.330   9.928
58059SOL    HW176074  13.021   5.376   9.998
58059SOL    HW276075  13.090   5.400   9.865
58060SOL     OW76076  11.507  12.122   8.570
58060SOL    HW176077  11.568  12.056   8.537
58060SOL    HW276078  11.429  12.111   8.516
58061SOL     OW76079  12.795   9.577   2.112
58061SOL    HW176080  12.805   9.486   2.084
58061SOL    HW276081  12.736   9.616   2.047
58062SOL     OW76082   8.272  12.743  12.958
58062SOL    HW176083   8.339  12.811  12.962
58062SOL    HW276084   8.232  12.743  13.045
58063SOL     OW76085  13.927   2.824  10.642
58063SOL    HW176086  13.869   2.762  10.600
58063SOL    HW276087  13.875   2.862  10.714
58064SOL     OW76088   8.940   8.505   6.379
58064SOL    HW176089   8.868   8.472   6.325
58064SOL    HW276090   8.900   8.523   6.464
58065SOL     OW76091   5.161   9.472   1.817
58065SOL    HW176092   5.105   9.526   1.873
58065SOL    HW276093   5.237   9.451   1.872
58066SOL     OW76094   8.344   2.820   7.988
58066SOL    HW176095   8.346   2.731   7.952
58066SOL    HW276096   8.293   2.812   8.069
58067SOL     OW76097   8.008  10.386   9.926
58067SOL    HW176098   7.920  10.391   9.963
58067SOL    HW276099   8.017  10.466   9.875
58068SOL     OW76100   9.374   7.564   0.834
58068SOL    HW176101   9.345   7.552   0.743
58068SOL    HW276102   9.294   7.584   0.882
58069SOL     OW76103  13.421   2.373   1.061
58069SOL    HW176104  13.451   2.463   1.046
58069SOL    HW276105  13.490   2.334   1.114
58070SOL     OW76106   1.164   7.078   5.219
58070SOL    HW176107   1.108   7.113   5.289
58070SOL    HW276108   1.212   7.155   5.186
58071SOL     OW76109   5.169  13.228   3.462
58071SOL    HW176110   5.246  13.264   3.419
58071SOL    HW276111   5.102  13.294   3.451
58072SOL     OW76112   0.027   9.545   8.848
58072SOL    HW176113   0.024   9.464   8.798
58072SOL    HW276114   0.020   9.518   8.940
58073SOL     OW76115   0.568  11.639   1.094
58073SOL    HW176116   0.607  11.583   1.027
58073SOL    HW276117   0.479  11.656   1.062
58074SOL     OW76118   6.639  14.555   6.274
58074SOL    HW176119   6.552  14.517   6.262
58074SOL    HW276120   6.666  14.580   6.186
58075SOL     OW76121  14.565  12.279  12.470
58075SOL    HW176122  14.534  12.262  12.381
58075SOL    HW276123  14.636  12.216  12.482
58076SOL     OW76124   3.726   5.324   7.933
58076SOL    HW176125   3.650   5.286   7.890
58076SOL    HW276126   3.776   5.248   7.964
58077SOL     OW76127   3.056  12.307  12.476
58077SOL    HW176128   2.991  12.237  12.471
58077SOL    HW276129   3.122  12.282  12.412
58078SOL     OW76130  13.148   9.591   4.316
58078SOL    HW176131  13.143   9.544   4.233
58078SOL    HW276132  13.242   9.594   4.336
58079SOL     OW76133  11.077   1.581  10.895
58079SOL    HW176134  11.139   1.521  10.854
58079SOL    HW276135  11.121   1.667  10.892
58080SOL     OW76136  10.754  10.117  12.847
58080SOL    HW176137  10.801  10.084  12.923
58080SOL    HW276138  10.665  10.083  12.856
58081SOL     OW76139   5.311   5.224   4.924
58081SOL    HW176140   5.340   5.216   5.015
58081SOL    HW276141   5.388   5.201   4.872
58082SOL     OW76142  13.487  12.059   5.630
58082SOL    HW176143  13.451  11.974   5.603
58082SOL    HW276144  13.433  12.123   5.583
58083SOL     OW76145   9.473  10.907  11.220
58083SOL    HW176146   9.394  10.930  11.171
58083SOL    HW276147   9.450  10.923  11.311
58084SOL     OW76148   7.095   1.274  11.204
58084SOL    HW176149   7.065   1.355  11.246
58084SOL    HW276150   7.175   1.300  11.158
58085SOL     OW76151  14.814  13.063   6.603
58085SOL    HW176152  14.857  13.140   6.641
58085SOL    HW276153  14.747  13.099   6.545
58086SOL     OW76154  12.139   2.689   4.728
58086SOL    HW176155  12.102   2.683   4.640
58086SOL    HW276156  12.176   2.603   4.745
58087SOL     OW76157   2.598   9.863   5.495
58087SOL    HW176158   2.527   9.846   5.434
58087SOL    HW276159   2.575   9.947   5.536
58088SOL     OW76160   0.233   7.102   7.631
58088SOL    HW176161   0.252   7.194   7.650
58088SOL    HW276162   0.319   7.063   7.618
58089SOL     OW76163   5.675   3.627   4.414
58089SOL    HW176164   5.708   3.539   4.396
58089SOL    HW276165   5.700   3.678   4.337
58090SOL     OW76166  11.472   3.848   2.947
58090SOL    HW176167  11.410   3.871   3.017
58090SOL    HW276168  11.558   3.853   2.989
58091SOL     OW76169   8.697   0.800   6.680
58091SOL    HW176170   8.763   0.732   6.695
58091SOL    HW276171   8.748   0.876   6.651
58092SOL     OW76172   2.326   5.230   0.081
58092SOL    HW176173   2.239   5.259   0.109
58092SOL    HW276174   2.370   5.311   0.055
58093SOL     OW76175  14.725   3.830   6.767
58093SOL    HW176176  14.656   3.828   6.700
58093SOL    HW276177  14.787   3.763   6.740
58094SOL     OW76178   5.046   8.700   5.190
58094SOL    HW176179   4.960   8.701   5.146
58094SOL    HW276180   5.032   8.750   5.270
58095SOL     OW76181  11.357   7.603   3.309
58095SOL    HW176182  11.277   7.643   3.275
58095SOL    HW276183  11.333   7.571   3.396
58096SOL     OW76184  13.860   0.825   4.802
58096SOL    HW176185  13.859   0.800   4.894
58096SOL    HW276186  13.844   0.919   4.802
58097SOL     OW76187   0.771  11.443   0.900
58097SOL    HW176188   0.853  11.457   0.852
58097SOL    HW276189   0.704  11.440   0.832
58098SOL     OW76190   8.744  13.513  13.701
58098SOL    HW176191   8.659  13.551  13.679
58098SOL    HW276192   8.805  13.588  13.698
58099SOL     OW76193   5.226   9.478   3.221
58099SOL    HW176194   5.316   9.456   3.196
58099SOL    HW276195   5.210   9.423   3.298
58100SOL     OW76196   4.991   1.450   0.974
58100SOL    HW176197   5.086   1.444   0.963
58100SOL    HW276198   4.974   1.544   0.978
58101SOL     OW76199   9.956   8.165  14.360
58101SOL    HW176200   9.876   8.204  14.395
58101SOL    HW276201  10.006   8.240  14.325
58102SOL     OW76202   5.834   8.272   6.397
58102SOL    HW176203   5.744   8.284   6.367
58102SOL    HW276204   5.881   8.236   6.322
58103SOL     OW76205   6.614   1.164  12.242
58103SOL    HW176206   6.539   1.124  12.199
58103SOL    HW276207   6.585   1.184  12.331
58104SOL     OW76208  14.636  10.383   3.134
58104SOL    HW176209  14.637  10.370   3.040
58104SOL    HW276210  14.727  10.371   3.162
58105SOL     OW76211   7.041   7.228  10.344
58105SOL    HW176212   7.087   7.277  10.412
58105SOL    HW276213   7.052   7.282  10.265
58106SOL     OW76214  14.344   8.332   1.362
58106SOL    HW176215  14.396   8.252   1.350
58106SOL    HW276216  14.403   8.391   1.409
58107SOL     OW76217   6.534   9.304  10.543
58107SOL    HW176218   6.584   9.347  10.473
58107SOL    HW276219   6.459   9.362  10.557
58108SOL     OW76220   8.229  14.554   9.371
58108SOL    HW176221   8.229  14.620   9.441
58108SOL    HW276222   8.318  14.520   9.370
58109SOL     OW76223   3.530   3.938   7.643
58109SOL    HW176224   3.501   3.964   7.556
58109SOL    HW276225   3.470   3.867   7.667
58110SOL     OW76226   8.162   2.093   3.668
58110SOL    HW176227   8.154   2.061   3.578
58110SOL    HW276228   8.090   2.156   3.678
58111SOL     OW76229   1.730  14.470   9.711
58111SOL    HW176230   1.656  14.410   9.705
58111SOL    HW276231   1.804  14.420   9.676
58112SOL     OW76232  14.867   6.496  12.387
58112SOL    HW176233  14.799   6.558  12.414
58112SOL    HW276234  14.848   6.417  12.437
58113SOL     OW76235   6.714   2.230  14.841
58113SOL    HW176236   6.732   2.178   0.050
58113SOL    HW276237   6.798   2.270  14.820
58114SOL     OW76238  13.287   5.874   9.514
58114SOL    HW176239  13.369   5.826   9.503
58114SOL    HW276240  13.312   5.953   9.561
58115SOL     OW76241  12.251  13.045   3.934
58115SOL    HW176242  12.338  13.013   3.958
58115SOL    HW276243  12.192  13.004   3.997
58116SOL     OW76244   0.708  14.406   9.571
58116SOL    HW176245   0.623  14.401   9.616
58116SOL    HW276246   0.686  14.436   9.483
58117SOL     OW76247  13.441  12.091   6.273
58117SOL    HW176248  13.389  12.025   6.229
58117SOL    HW276249  13.450  12.162   6.209
58118SOL     OW76250  10.840   9.016  11.006
58118SOL    HW176251  10.904   8.967  11.058
58118SOL    HW276252  10.892   9.080  10.958
58119SOL     OW76253   2.646   2.120   4.808
58119SOL    HW176254   2.690   2.205   4.805
58119SOL    HW276255   2.580   2.130   4.877
58120SOL     OW76256   4.022  13.031  14.520
58120SOL    HW176257   3.929  13.015  14.536
58120SOL    HW276258   4.055  12.946  14.489
58121SOL     OW76259  10.740   2.752  10.800
58121SOL    HW176260  10.810   2.723  10.859
58121SOL    HW276261  10.784   2.773  10.718
58122SOL     OW76262   5.297   0.351  12.738
58122SOL    HW176263   5.280   0.295  12.662
58122SOL    HW276264   5.366   0.304  12.786
58123SOL     OW76265   2.051   8.566   8.333
58123SOL    HW176266   2.132   8.516   8.339
58123SOL    HW276267   2.066   8.644   8.387
58124SOL     OW76268   4.670   6.639   5.475
58124SOL    HW176269   4.642   6.579   5.406
58124SOL    HW276270   4.605   6.629   5.544
58125SOL     OW76271   4.249  14.201   9.421
58125SOL    HW176272   4.179  14.247   9.375
58125SOL    HW276273   4.287  14.144   9.355
58126SOL     OW76274   4.094  11.726  10.564
58126SOL    HW176275   4.051  11.745  10.647
58126SOL    HW276276   4.075  11.802  10.509
58127SOL     OW76277   5.919  12.875   2.085
58127SOL    HW176278   5.868  12.954   2.100
58127SOL    HW276279   6.007  12.907   2.063
58128SOL     OW76280  13.635   8.591   2.188
58128SOL    HW176281  13.611   8.500   2.172
58128SOL    HW276282  13.730   8.590   2.193
58129SOL     OW76283   9.209  13.744  10.417
58129SOL    HW176284   9.200  13.735  10.512
58129SOL    HW276285   9.119  13.753  10.386
58130SOL     OW76286  11.548  10.930   7.797
58130SOL    HW176287  11.473  10.986   7.779
58130SOL    HW276288  11.618  10.991   7.820
58131SOL     OW76289   5.131   4.319   7.277
58131SOL    HW176290   5.106   4.276   7.195
58131SOL    HW276291   5.222   4.346   7.262
58132SOL     OW76292  11.155   7.322   3.270
58132SOL    HW176293  11.098   7.332   3.193
58132SOL    HW276294  11.124   7.242   3.312
58133SOL     OW76295   7.705   4.058  11.287
58133SOL    HW176296   7.689   4.029  11.377
58133SOL    HW276297   7.650   4.136  11.277
58134SOL     OW76298   6.540  13.180  14.310
58134SOL    HW176299   6.488  13.260  14.325
58134SOL    HW276300   6.502  13.141  14.231
58135SOL     OW76301   8.583   7.810   1.103
58135SOL    HW176302   8.553   7.831   1.014
58135SOL    HW276303   8.504   7.813   1.156
58136SOL     OW76304   7.394   8.311  13.242
58136SOL    HW176305   7.318   8.281  13.291
58136SOL    HW276306   7.439   8.231  13.216
58137SOL     OW76307  14.769   6.237   9.474
58137SOL    HW176308  14.725   6.322   9.464
58137SOL    HW276309  14.783   6.206   9.384
58138SOL     OW76310   3.823  10.869  11.302
58138SOL    HW176311   3.890  10.913  11.354
58138SOL    HW276312   3.866  10.852  11.218
58139SOL     OW76313   3.215  12.704   7.396
58139SOL    HW176314   3.235  12.757   7.473
58139SOL    HW276315   3.285  12.724   7.334
58140SOL     OW76316  10.667  13.966   6.472
58140SOL    HW176317  10.639  14.056   6.488
58140SOL    HW276318  10.635  13.917   6.548
58141SOL     OW76319   1.782   2.047   9.014
58141SOL    HW176320   1.701   2.092   9.038
58141SOL    HW276321   1.753   1.975   8.958
58142SOL     OW76322  12.149   4.153   3.307
58142SOL    HW176323  12.173   4.060   3.311
58142SOL    HW276324  12.153   4.182   3.398
58143SOL     OW76325  12.195   6.434   2.146
58143SOL    HW176326  12.102   6.438   2.168
58143SOL    HW276327  12.240   6.440   2.231
58144SOL     OW76328   8.195   3.793   4.589
58144SOL    HW176329   8.170   3.880   4.619
58144SOL    HW276330   8.115   3.741   4.595
58145SOL     OW76331   9.040   7.511   5.593
58145SOL    HW176332   9.024   7.538   5.684
58145SOL    HW276333   9.092   7.431   5.601
58146SOL     OW76334  12.386  13.944  11.271
58146SOL    HW176335  12.291  13.928  11.268
58146SOL    HW276336  12.394  14.038  11.280
58147SOL     OW76337  13.531  14.531   3.403
58147SOL    HW176338  13.626  14.518   3.402
58147SOL    HW276339  13.507  14.539   3.311
58148SOL     OW76340   5.173  12.967   5.069
58148SOL    HW176341   5.104  12.982   5.134
58148SOL    HW276342   5.136  12.903   5.009
58149SOL     OW76343  14.695   4.095   5.886
58149SOL    HW176344  14.693   4.000   5.868
58149SOL    HW276345  14.636   4.106   5.961
58150SOL     OW76346  11.441  12.229   0.114
58150SOL    HW176347  11.431  12.134   0.113
58150SOL    HW276348  11.484  12.250   0.031
58151SOL     OW76349  13.765   9.502   8.745
58151SOL    HW176350  13.809   9.440   8.803
58151SOL    HW276351  13.813   9.584   8.757
58152SOL     OW76352   5.827  12.420  10.430
58152SOL    HW176353   5.832  12.325  10.431
58152SOL    HW276354   5.754  12.439  10.371
58153SOL     OW76355  12.920   6.284   2.683
58153SOL    HW176356  12.827   6.265   2.674
58153SOL    HW276357  12.948   6.310   2.595
58154SOL     OW76358  13.211   6.912   5.670
58154SOL    HW176359  13.245   6.899   5.582
58154SOL    HW276360  13.176   7.001   5.669
58155SOL     OW76361   2.182   7.588   4.523
58155SOL    HW176362   2.090   7.573   4.504
58155SOL    HW276363   2.227   7.511   4.489
58156SOL     OW76364  14.764  13.517  13.498
58156SOL    HW176365  14.771  13.574  13.422
58156SOL    HW276366  14.678  13.477  13.491
58157SOL     OW76367  10.015   3.219   5.042
58157SOL    HW176368   9.922   3.239   5.029
58157SOL    HW276369  10.015   3.153   5.112
58158SOL     OW76370   2.208   6.633   0.622
58158SOL    HW176371   2.256   6.562   0.666
58158SOL    HW276372   2.188   6.598   0.536
58159SOL     OW76373   8.951  12.240   0.917
58159SOL    HW176374   8.861  12.259   0.942
58159SOL    HW276375   8.946  12.159   0.866
58160SOL     OW76376   8.779   9.232   3.558
58160SOL    HW176377   8.746   9.218   3.469
58160SOL    HW276378   8.701   9.255   3.609
58161SOL     OW76379   5.209  10.084   6.277
58161SOL    HW176380   5.281  10.047   6.329
58161SOL    HW276381   5.244  10.167   6.245
58162SOL     OW76382   1.738  13.261   4.735
58162SOL    HW176383   1.732  13.299   4.648
58162SOL    HW276384   1.752  13.336   4.793
58163SOL     OW76385  12.862  13.493  10.576
58163SOL    HW176386  12.811  13.429  10.527
58163SOL    HW276387  12.821  13.496  10.663
58164SOL     OW76388   7.972   0.565   5.634
58164SOL    HW176389   7.968   0.481   5.680
58164SOL    HW276390   8.063   0.570   5.603
58165SOL     OW76391   7.892  12.744   0.190
58165SOL    HW176392   7.935  12.827   0.212
58165SOL    HW276393   7.801  12.768   0.173
58166SOL     OW76394   4.035   6.792  10.596
58166SOL    HW176395   4.076   6.718  10.641
58166SOL    HW276396   4.006   6.849  10.668
58167SOL     OW76397   3.635   8.471   9.448
58167SOL    HW176398   3.559   8.424   9.413
58167SOL    HW276399   3.599   8.554   9.480
58168SOL     OW76400   2.696   7.711   6.427
58168SOL    HW176401   2.661   7.697   6.514
58168SOL    HW276402   2.781   7.754   6.442
58169SOL     OW76403   4.040   8.241   5.747
58169SOL    HW176404   4.112   8.181   5.730
58169SOL    HW276405   3.961   8.187   5.741
58170SOL     OW76406  10.723   2.271   6.000
58170SOL    HW176407  10.721   2.322   6.081
58170SOL    HW276408  10.632   2.251   5.983
58171SOL     OW76409   2.543  12.344   0.408
58171SOL    HW176410   2.610  12.404   0.374
58171SOL    HW276411   2.578  12.257   0.392
58172SOL     OW76412   9.301   7.025   6.087
58172SOL    HW176413   9.312   7.089   6.016
58172SOL    HW276414   9.389   6.993   6.103
58173SOL     OW76415  10.144   4.523   0.282
58173SOL    HW176416  10.182   4.585   0.345
58173SOL    HW276417  10.138   4.572   0.201
58174SOL     OW76418   5.364   0.562  13.223
58174SOL    HW176419   5.278   0.569  13.182
58174SOL    HW276420   5.351   0.503  13.297
58175SOL     OW76421  10.317   2.838  11.384
58175SOL    HW176422  10.410   2.850  11.400
58175SOL    HW276423  10.284   2.795  11.463
58176SOL     OW76424   5.154  14.793   1.541
58176SOL    HW176425   5.058  14.794   1.536
58176SOL    HW276426   5.176  14.700   1.539
58177SOL     OW76427   8.228   5.158   2.389
58177SOL    HW176428   8.164   5.147   2.319
58177SOL    HW276429   8.238   5.071   2.427
58178SOL     OW76430   4.808   5.794  11.095
58178SOL    HW176431   4.760   5.744  11.029
58178SOL    HW276432   4.768   5.881  11.094
58179SOL     OW76433   2.097  11.142   8.950
58179SOL    HW176434   2.026  11.103   9.001
58179SOL    HW276435   2.056  11.215   8.904
58180SOL     OW76436   9.234   9.544   4.284
58180SOL    HW176437   9.230   9.502   4.199
58180SOL    HW276438   9.295   9.617   4.272
58181SOL     OW76439   6.624   4.812   1.282
58181SOL    HW176440   6.689   4.783   1.219
58181SOL    HW276441   6.616   4.739   1.343
58182SOL     OW76442  13.754   8.914  11.833
58182SOL    HW176443  13.696   8.943  11.763
58182SOL    HW276444  13.798   8.994  11.862
58183SOL     OW76445   2.279  10.742  11.303
58183SOL    HW176446   2.195  10.704  11.278
58183SOL    HW276447   2.344  10.686  11.259
58184SOL     OW76448   3.831  12.800  13.816
58184SOL    HW176449   3.769  12.868  13.842
58184SOL    HW276450   3.865  12.766  13.898
58185SOL     OW76451   5.099   1.909  10.352
58185SOL    HW176452   5.161   1.970  10.312
58185SOL    HW276453   5.093   1.938  10.443
58186SOL     OW76454   5.329   3.861  10.244
58186SOL    HW176455   5.285   3.789  10.199
58186SOL    HW276456   5.415   3.867  10.201
58187SOL     OW76457   0.086   2.791   1.988
58187SOL    HW176458   0.103   2.799   1.894
58187SOL    HW276459   0.113   2.875   2.025
58188SOL     OW76460  14.188   8.962   9.547
58188SOL    HW176461  14.252   9.029   9.570
58188SOL    HW276462  14.131   8.955   9.624
58189SOL     OW76463   3.913   3.986  13.662
58189SOL    HW176464   3.859   3.915  13.697
58189SOL    HW276465   3.914   4.051  13.732
58190SOL     OW76466   7.354  14.085   6.825
58190SOL    HW176467   7.301  14.162   6.843
58190SOL    HW276468   7.340  14.027   6.900
58191SOL     OW76469   2.915   9.138   3.788
58191SOL    HW176470   2.951   9.125   3.700
58191SOL    HW276471   2.836   9.084   3.790
58192SOL     OW76472  10.708   6.677   5.080
58192SOL    HW176473  10.637   6.714   5.027
58192SOL    HW276474  10.701   6.723   5.164
58193SOL     OW76475  10.659   4.360  13.528
58193SOL    HW176476  10.721   4.432  13.541
58193SOL    HW276477  10.594   4.372  13.596
58194SOL     OW76478   9.661  11.273   5.287
58194SOL    HW176479   9.598  11.261   5.358
58194SOL    HW276480   9.739  11.226   5.316
58195SOL     OW76481  12.431  11.243  11.910
58195SOL    HW176482  12.467  11.332  11.906
58195SOL    HW276483  12.503  11.190  11.944
58196SOL     OW76484  13.593   6.497   5.007
58196SOL    HW176485  13.623   6.528   5.092
58196SOL    HW276486  13.650   6.540   4.944
58197SOL     OW76487  10.798   3.706   7.571
58197SOL    HW176488  10.774   3.703   7.663
58197SOL    HW276489  10.872   3.766   7.567
58198SOL     OW76490   5.101   9.547   9.967
58198SOL    HW176491   5.108   9.458  10.002
58198SOL    HW276492   5.127   9.604  10.039
58199SOL     OW76493   2.354   3.273  10.314
58199SOL    HW176494   2.426   3.316  10.268
58199SOL    HW276495   2.364   3.302  10.405
58200SOL     OW76496   9.673   9.230   8.459
58200SOL    HW176497   9.633   9.290   8.522
58200SOL    HW276498   9.607   9.220   8.391
58201SOL     OW76499   1.520   3.535  13.795
58201SOL    HW176500   1.486   3.505  13.711
58201SOL    HW276501   1.592   3.474  13.815
58202SOL     OW76502   6.425   2.462   9.186
58202SOL    HW176503   6.385   2.530   9.131
58202SOL    HW276504   6.360   2.444   9.254
58203SOL     OW76505   0.761   6.428   2.331
58203SOL    HW176506   0.666   6.429   2.318
58203SOL    HW276507   0.781   6.513   2.369
58204SOL     OW76508   0.200  13.520  13.879
58204SOL    HW176509   0.229  13.437  13.842
58204SOL    HW276510   0.118  13.539  13.833
58205SOL     OW76511   1.424  11.960  13.704
58205SOL    HW176512   1.432  12.054  13.691
58205SOL    HW276513   1.348  11.935  13.651
58206SOL     OW76514   8.573   9.363   7.716
58206SOL    HW176515   8.636   9.417   7.764
58206SOL    HW276516   8.607   9.274   7.723
58207SOL     OW76517   9.719   5.608   9.490
58207SOL    HW176518   9.702   5.673   9.558
58207SOL    HW276519   9.632   5.577   9.465
58208SOL     OW76520   8.914   3.417  13.821
58208SOL    HW176521   8.844   3.382  13.876
58208SOL    HW276522   8.916   3.511  13.842
58209SOL     OW76523  10.371  10.395   0.800
58209SOL    HW176524  10.297  10.455   0.802
58209SOL    HW276525  10.428  10.429   0.731
58210SOL     OW76526   1.836   7.186   9.546
58210SOL    HW176527   1.912   7.244   9.544
58210SOL    HW276528   1.833   7.146   9.459
58211SOL     OW76529   7.555   5.181   0.763
58211SOL    HW176530   7.619   5.236   0.808
58211SOL    HW276531   7.520   5.237   0.693
58212SOL     OW76532  14.342   4.078  14.567
58212SOL    HW176533  14.289   4.036  14.498
58212SOL    HW276534  14.343   4.170  14.542
58213SOL     OW76535   8.190   6.781   3.857
58213SOL    HW176536   8.262   6.822   3.905
58213SOL    HW276537   8.232   6.739   3.782
58214SOL     OW76538   0.111  14.545   3.287
58214SOL    HW176539   0.040  14.536   3.351
58214SOL    HW276540   0.068  14.579   3.209
58215SOL     OW76541   7.011   0.340  11.150
58215SOL    HW176542   6.957   0.404  11.197
58215SOL    HW276543   7.101   0.363  11.173
58216SOL     OW76544  14.714   4.075  14.763
58216SOL    HW176545  14.773   4.000  14.769
58216SOL    HW276546  14.761   4.145  14.810
58217SOL     OW76547   9.080   8.234  12.139
58217SOL    HW176548   9.125   8.157  12.104
58217SOL    HW276549   9.058   8.287  12.062
58218SOL     OW76550   8.861  14.405   6.081
58218SOL    HW176551   8.849  14.469   6.011
58218SOL    HW276552   8.851  14.320   6.037
58219SOL     OW76553   4.974   8.524   6.531
58219SOL    HW176554   5.044   8.571   6.485
58219SOL    HW276555   4.972   8.438   6.489
58220SOL     OW76556  12.690   2.560   9.121
58220SOL    HW176557  12.693   2.568   9.217
58220SOL    HW276558  12.620   2.620   9.095
58221SOL     OW76559   2.993  12.608  11.464
58221SOL    HW176560   3.057  12.677  11.478
58221SOL    HW276561   2.946  12.600  11.547
58222SOL     OW76562  10.741   2.704   5.604
58222SOL    HW176563  10.686   2.744   5.672
58222SOL    HW276564  10.829   2.736   5.623
58223SOL     OW76565  13.546   9.512   2.699
58223SOL    HW176566  13.504   9.595   2.719
58223SOL    HW276567  13.625   9.536   2.650
58224SOL     OW76568   7.111  12.513   7.838
58224SOL    HW176569   7.137  12.602   7.862
58224SOL    HW276570   7.150  12.458   7.905
58225SOL     OW76571   3.365  10.890   1.793
58225SOL    HW176572   3.403  10.892   1.881
58225SOL    HW276573   3.440  10.902   1.734
58226SOL     OW76574   8.975  13.183   4.139
58226SOL    HW176575   8.984  13.130   4.219
58226SOL    HW276576   8.963  13.118   4.069
58227SOL     OW76577   6.672  10.817   8.854
58227SOL    HW176578   6.767  10.824   8.863
58227SOL    HW276579   6.654  10.723   8.859
58228SOL     OW76580   8.803   6.140   1.967
58228SOL    HW176581   8.839   6.060   2.004
58228SOL    HW276582   8.721   6.154   2.015
58229SOL     OW76583   2.149   8.100  10.292
58229SOL    HW176584   2.205   8.155  10.345
58229SOL    HW276585   2.064   8.102  10.336
58230SOL     OW76586   3.902   8.460   3.907
58230SOL    HW176587   3.992   8.446   3.877
58230SOL    HW276588   3.850   8.463   3.827
58231SOL     OW76589   8.392   5.639   6.637
58231SOL    HW176590   8.383   5.594   6.721
58231SOL    HW276591   8.433   5.574   6.579
58232SOL     OW76592  14.508   4.184   3.399
58232SOL    HW176593  14.535   4.092   3.398
58232SOL    HW276594  14.585   4.232   3.367
58233SOL     OW76595  10.388   7.877  10.691
58233SOL    HW176596  10.441   7.926  10.754
58233SOL    HW276597  10.385   7.788  10.726
58234SOL     OW76598  11.492   2.676   6.546
58234SOL    HW176599  11.537   2.640   6.622
58234SOL    HW276600  11.485   2.603   6.485
58235SOL     OW76601   3.040  10.748  13.574
58235SOL    HW176602   3.087  10.684  13.520
58235SOL    HW276603   3.056  10.832  13.531
58236SOL     OW76604  11.672  11.404   5.200
58236SOL    HW176605  11.658  11.467   5.271
58236SOL    HW276606  11.768  11.398   5.192
58237SOL     OW76607   7.008  11.563  10.596
58237SOL    HW176608   7.056  11.533  10.673
58237SOL    HW276609   7.047  11.513  10.524
58238SOL     OW76610   2.183   2.345   9.991
58238SOL    HW176611   2.223   2.350   9.904
58238SOL    HW276612   2.162   2.253  10.003
58239SOL     OW76613   0.137  10.391  10.988
58239SOL    HW176614   0.178  10.305  10.980
58239SOL    HW276615   0.055  10.382  10.939
58240SOL     OW76616  12.699   9.386   7.405
58240SOL    HW176617  12.674   9.464   7.356
58240SOL    HW276618  12.682   9.313   7.345
58241SOL     OW76619  11.417   0.483  10.741
58241SOL    HW176620  11.360   0.488  10.664
58241SOL    HW276621  11.461   0.568  10.743
58242SOL     OW76622  10.075   4.073  12.063
58242SOL    HW176623  10.038   4.154  12.027
58242SOL    HW276624  10.026   4.058  12.144
58243SOL     OW76625  12.839   7.324   1.549
58243SOL    HW176626  12.922   7.287   1.521
58243SOL    HW276627  12.773   7.266   1.511
58244SOL     OW76628   6.566   5.402   0.572
58244SOL    HW176629   6.582   5.421   0.480
58244SOL    HW276630   6.628   5.333   0.594
58245SOL     OW76631   9.326   4.227   4.660
58245SOL    HW176632   9.239   4.211   4.698
58245SOL    HW276633   9.376   4.267   4.731
58246SOL     OW76634   5.280  11.802   5.250
58246SOL    HW176635   5.266  11.841   5.163
58246SOL    HW276636   5.362  11.754   5.241
58247SOL     OW76637   9.486   3.565   7.512
58247SOL    HW176638   9.398   3.583   7.476
58247SOL    HW276639   9.531   3.650   7.508
58248SOL     OW76640  14.397   2.402   8.318
58248SOL    HW176641  14.421   2.374   8.406
58248SOL    HW276642  14.475   2.445   8.284
58249SOL     OW76643   0.988   4.329  11.068
58249SOL    HW176644   1.034   4.412  11.079
58249SOL    HW276645   0.987   4.290  11.155
58250SOL     OW76646   6.008   9.028   1.836
58250SOL    HW176647   5.973   9.093   1.775
58250SOL    HW276648   5.987   8.943   1.797
58251SOL     OW76649   4.628  13.222   2.613
58251SOL    HW176650   4.643  13.136   2.651
58251SOL    HW276651   4.642  13.210   2.519
58252SOL     OW76652  10.471   0.796   6.960
58252SOL    HW176653  10.377   0.799   6.976
58252SOL    HW276654  10.504   0.733   7.023
58253SOL     OW76655  11.124   3.546  13.142
58253SOL    HW176656  11.126   3.511  13.052
58253SOL    HW276657  11.188   3.493  13.189
58254SOL     OW76658   9.673   2.675  13.484
58254SOL    HW176659   9.718   2.607  13.433
58254SOL    HW276660   9.740   2.742  13.499
58255SOL     OW76661   6.288   9.354  11.970
58255SOL    HW176662   6.212   9.408  11.993
58255SOL    HW276663   6.249   9.276  11.930
58256SOL     OW76664   8.942  14.583   2.441
58256SOL    HW176665   8.906  14.647   2.502
58256SOL    HW276666   9.037  14.585   2.457
58257SOL     OW76667   6.911   8.047   3.532
58257SOL    HW176668   6.921   7.952   3.530
58257SOL    HW276669   6.883   8.071   3.444
58258SOL     OW76670   3.729   7.364   2.147
58258SOL    HW176671   3.683   7.333   2.069
58258SOL    HW276672   3.817   7.327   2.138
58259SOL     OW76673   8.824   0.209   6.915
58259SOL    HW176674   8.753   0.154   6.947
58259SOL    HW276675   8.780   0.274   6.859
58260SOL     OW76676   9.143  13.098   8.364
58260SOL    HW176677   9.142  13.175   8.308
58260SOL    HW276678   9.064  13.106   8.418
58261SOL     OW76679   4.353   8.992  11.500
58261SOL    HW176680   4.272   8.977  11.549
58261SOL    HW276681   4.413   9.030  11.564
58262SOL     OW76682   2.807  12.410  10.952
58262SOL    HW176683   2.845  12.441  10.870
58262SOL    HW276684   2.881  12.402  11.012
58263SOL     OW76685   9.790  11.176   4.481
58263SOL    HW176686   9.837  11.105   4.438
58263SOL    HW276687   9.859  11.236   4.511
58264SOL     OW76688   6.470  13.050   6.174
58264SOL    HW176689   6.477  13.125   6.115
58264SOL    HW276690   6.440  12.979   6.118
58265SOL     OW76691   8.170  10.138   7.320
58265SOL    HW176692   8.113  10.115   7.246
58265SOL    HW276693   8.193  10.054   7.360
58266SOL     OW76694   7.332   4.272  11.145
58266SOL    HW176695   7.376   4.345  11.101
58266SOL    HW276696   7.320   4.301  11.235
58267SOL     OW76697  14.025   1.481  14.090
58267SOL    HW176698  13.996   1.431  14.167
58267SOL    HW276699  13.953   1.540  14.071
58268SOL     OW76700   2.324   0.096  12.288
58268SOL    HW176701   2.358   0.029  12.347
58268SOL    HW276702   2.229   0.097  12.304
58269SOL     OW76703  11.886  13.934   6.923
58269SOL    HW176704  11.829  13.860   6.943
58269SOL    HW276705  11.847  13.974   6.845
58270SOL     OW76706  10.000  13.283   0.144
58270SOL    HW176707   9.905  13.286   0.134
58270SOL    HW276708  10.018  13.197   0.181
58271SOL     OW76709  13.882   0.555   4.035
58271SOL    HW176710  13.876   0.583   3.943
58271SOL    HW276711  13.885   0.636   4.085
58272SOL     OW76712   4.665   8.413  14.461
58272SOL    HW176713   4.695   8.327  14.432
58272SOL    HW276714   4.670   8.468  14.383
58273SOL     OW76715   5.035  11.905   5.366
58273SOL    HW176716   5.081  11.879   5.446
58273SOL    HW276717   5.101  11.898   5.297
58274SOL     OW76718  14.212   2.367   6.901
58274SOL    HW176719  14.121   2.361   6.929
58274SOL    HW276720  14.228   2.286   6.852
58275SOL     OW76721   6.930   3.835   3.219
58275SOL    HW176722   6.917   3.907   3.280
58275SOL    HW276723   7.005   3.787   3.254
58276SOL     OW76724  13.271   7.746  14.506
58276SOL    HW176725  13.200   7.748  14.443
58276SOL    HW276726  13.232   7.773  14.589
58277SOL     OW76727  10.396   5.608   7.817
58277SOL    HW176728  10.462   5.539   7.808
58277SOL    HW276729  10.370   5.604   7.909
58278SOL     OW76730   3.541   3.540  13.813
58278SOL    HW176731   3.606   3.499  13.870
58278SOL    HW276732   3.467   3.560  13.870
58279SOL     OW76733   6.170  10.336   6.094
58279SOL    HW176734   6.204  10.293   6.016
58279SOL    HW276735   6.247  10.371   6.138
58280SOL     OW76736   0.427  12.562   8.189
58280SOL    HW176737   0.515  12.576   8.222
58280SOL    HW276738   0.386  12.504   8.254
58281SOL     OW76739   6.143  10.561   0.612
58281SOL    HW176740   6.176  10.573   0.701
58281SOL    HW276741   6.093  10.479   0.616
58282SOL     OW76742   9.481  10.355   9.617
58282SOL    HW176743   9.416  10.301   9.571
58282SOL    HW276744   9.550  10.294   9.642
58283SOL     OW76745   8.178   3.065   4.989
58283SOL    HW176746   8.162   3.152   5.025
58283SOL    HW276747   8.239   3.080   4.917
58284SOL     OW76748   8.201   1.339   9.301
58284SOL    HW176749   8.222   1.265   9.244
58284SOL    HW276750   8.111   1.362   9.277
58285SOL     OW76751   3.953   9.746  10.916
58285SOL    HW176752   3.873   9.789  10.947
58285SOL    HW276753   3.977   9.795  10.837
58286SOL     OW76754  13.218   5.364   7.180
58286SOL    HW176755  13.216   5.436   7.244
58286SOL    HW276756  13.218   5.285   7.233
58287SOL     OW76757  13.784   6.377   0.527
58287SOL    HW176758  13.814   6.397   0.438
58287SOL    HW276759  13.742   6.291   0.520
58288SOL     OW76760   5.283   1.133   4.254
58288SOL    HW176761   5.273   1.144   4.160
58288SOL    HW276762   5.361   1.077   4.263
58289SOL     OW76763  11.195  10.292  10.014
58289SOL    HW176764  11.263  10.344   9.971
58289SOL    HW276765  11.232  10.203  10.017
58290SOL     OW76766  10.834   2.434  10.229
58290SOL    HW176767  10.842   2.341  10.250
58290SOL    HW276768  10.778   2.437  10.151
58291SOL     OW76769   3.510   4.688   9.185
58291SOL    HW176770   3.547   4.625   9.122
58291SOL    HW276771   3.560   4.672   9.266
58292SOL     OW76772   9.711   3.861   7.795
58292SOL    HW176773   9.667   3.937   7.756
58292SOL    HW276774   9.795   3.897   7.826
58293SOL     OW76775   5.616  11.981   8.697
58293SOL    HW176776   5.629  12.070   8.729
58293SOL    HW276777   5.528  11.982   8.659
58294SOL     OW76778  13.585   3.257  11.754
58294SOL    HW176779  13.541   3.272  11.671
58294SOL    HW276780  13.520   3.281  11.820
58295SOL     OW76781   2.449   5.239  11.497
58295SOL    HW176782   2.531   5.213  11.540
58295SOL    HW276783   2.453   5.198  11.411
58296SOL     OW76784  13.402  13.934   0.819
58296SOL    HW176785  13.464  13.995   0.780
58296SOL    HW276786  13.350  13.987   0.880
58297SOL     OW76787  12.112   6.244  12.522
58297SOL    HW176788  12.115   6.158  12.481
58297SOL    HW276789  12.189   6.289  12.490
58298SOL     OW76790   6.134   3.023  10.365
58298SOL    HW176791   6.152   2.930  10.379
58298SOL    HW276792   6.185   3.068  10.433
58299SOL     OW76793   2.775  10.802   1.765
58299SOL    HW176794   2.815  10.779   1.849
58299SOL    HW276795   2.807  10.736   1.704
58300SOL     OW76796  11.613   1.925   5.606
58300SOL    HW176797  11.674   1.986   5.646
58300SOL    HW276798  11.577   1.876   5.679
58301SOL     OW76799   3.945   1.697   2.034
58301SOL    HW176800   3.856   1.719   2.005
58301SOL    HW276801   3.946   1.602   2.038
58302SOL     OW76802  14.234   0.141  12.584
58302SOL    HW176803  14.263   0.158  12.674
58302SOL    HW276804  14.295   0.189  12.529
58303SOL     OW76805   1.460   8.412   1.063
58303SOL    HW176806   1.523   8.340   1.069
58303SOL    HW276807   1.404   8.401   1.139
58304SOL     OW76808   1.904   7.900   6.019
58304SOL    HW176809   1.825   7.937   6.058
58304SOL    HW276810   1.969   7.969   6.026
58305SOL     OW76811   7.738  13.760  13.959
58305SOL    HW176812   7.803  13.798  14.018
58305SOL    HW276813   7.683  13.834  13.932
58306SOL     OW76814  14.006  14.468   0.317
58306SOL    HW176815  13.987  14.466   0.411
58306SOL    HW276816  14.084  14.412   0.307
58307SOL     OW76817   9.599  10.645  11.983
58307SOL    HW176818   9.666  10.612  11.924
58307SOL    HW276819   9.532  10.577  11.984
58308SOL     OW76820   8.325   6.556   2.377
58308SOL    HW176821   8.254   6.567   2.440
58308SOL    HW276822   8.318   6.633   2.319
58309SOL     OW76823   2.978  11.326  14.462
58309SOL    HW176824   2.895  11.349  14.419
58309SOL    HW276825   3.018  11.411  14.483
58310SOL     OW76826   8.928   3.774   6.471
58310SOL    HW176827   8.992   3.836   6.507
58310SOL    HW276828   8.923   3.796   6.378
58311SOL     OW76829   9.194   0.264  14.746
58311SOL    HW176830   9.127   0.273  14.678
58311SOL    HW276831   9.198   0.170  14.763
58312SOL     OW76832   1.228  11.060  12.663
58312SOL    HW176833   1.308  11.017  12.635
58312SOL    HW276834   1.189  10.999  12.727
58313SOL     OW76835  10.431   9.127  10.316
58313SOL    HW176836  10.403   9.046  10.273
58313SOL    HW276837  10.352   9.180  10.322
58314SOL     OW76838  13.948  11.610  13.284
58314SOL    HW176839  14.009  11.680  13.309
58314SOL    HW276840  13.861  11.650  13.292
58315SOL     OW76841  10.160   7.846  12.695
58315SOL    HW176842  10.117   7.795  12.626
58315SOL    HW276843  10.170   7.784  12.768
58316SOL     OW76844  12.268   2.163  11.864
58316SOL    HW176845  12.205   2.093  11.848
58316SOL    HW276846  12.306   2.182  11.778
58317SOL     OW76847  13.696  13.475   0.199
58317SOL    HW176848  13.701  13.408   0.131
58317SOL    HW276849  13.785  13.510   0.206
58318SOL     OW76850  14.811  10.440  10.812
58318SOL    HW176851   0.002  10.384  10.764
58318SOL    HW276852  14.832  10.529  10.783
58319SOL     OW76853  11.863  13.925   0.599
58319SOL    HW176854  11.861  14.013   0.560
58319SOL    HW276855  11.935  13.881   0.555
58320SOL     OW76856   1.338  13.401   6.181
58320SOL    HW176857   1.324  13.431   6.271
58320SOL    HW276858   1.254  13.414   6.138
58321SOL     OW76859   8.814   7.110   9.526
58321SOL    HW176860   8.781   7.020   9.537
58321SOL    HW276861   8.885   7.101   9.463
58322SOL     OW76862  11.451   4.381  10.916
58322SOL    HW176863  11.395   4.360  10.841
58322SOL    HW276864  11.514   4.309  10.919
58323SOL     OW76865   7.827  14.529   4.466
58323SOL    HW176866   7.812  14.609   4.417
58323SOL    HW276867   7.749  14.520   4.521
58324SOL     OW76868  13.489  12.068  12.817
58324SOL    HW176869  13.512  12.060  12.724
58324SOL    HW276870  13.524  12.154  12.842
58325SOL     OW76871   2.652  11.251   5.574
58325SOL    HW176872   2.624  11.318   5.512
58325SOL    HW276873   2.585  11.253   5.643
58326SOL     OW76874   5.688  12.677   3.144
58326SOL    HW176875   5.758  12.653   3.205
58326SOL    HW276876   5.625  12.726   3.198
58327SOL     OW76877   6.077   0.427   9.153
58327SOL    HW176878   6.019   0.412   9.228
58327SOL    HW276879   6.162   0.448   9.192
58328SOL     OW76880   3.038  12.242  13.289
58328SOL    HW176881   3.050  12.237  13.384
58328SOL    HW276882   3.011  12.154  13.263
58329SOL     OW76883   8.976   9.455   7.637
58329SOL    HW176884   8.941   9.367   7.623
58329SOL    HW276885   9.015   9.452   7.725
58330SOL     OW76886   1.482  14.235   0.071
58330SOL    HW176887   1.464  14.143   0.092
58330SOL    HW276888   1.417  14.258   0.004
58331SOL     OW76889  12.279  12.335   7.496
58331SOL    HW176890  12.296  12.420   7.455
58331SOL    HW276891  12.356  12.319   7.551
58332SOL     OW76892  12.136   1.625   2.431
58332SOL    HW176893  12.183   1.577   2.499
58332SOL    HW276894  12.204   1.652   2.369
58333SOL     OW76895  11.695   4.042   2.275
58333SOL    HW176896  11.674   3.978   2.344
58333SOL    HW276897  11.631   4.025   2.207
58334SOL     OW76898   8.965   1.191  10.430
58334SOL    HW176899   8.958   1.144  10.513
58334SOL    HW276900   9.037   1.252  10.444
58335SOL     OW76901   4.055  12.456   1.806
58335SOL    HW176902   4.069  12.425   1.896
58335SOL    HW276903   4.133  12.427   1.758
58336SOL     OW76904  14.524   9.057   7.782
58336SOL    HW176905  14.600   9.092   7.738
58336SOL    HW276906  14.542   8.963   7.791
58337SOL     OW76907  14.534  10.624  11.000
58337SOL    HW176908  14.539  10.617  11.096
58337SOL    HW276909  14.580  10.546  10.968
58338SOL     OW76910   3.400  10.169  14.851
58338SOL    HW176911   3.415  10.088   0.029
58338SOL    HW276912   3.470  10.172  14.786
58339SOL     OW76913   5.551  12.916  14.648
58339SOL    HW176914   5.506  12.984  14.698
58339SOL    HW276915   5.483  12.852  14.626
58340SOL     OW76916   4.500   5.280  12.473
58340SOL    HW176917   4.535   5.204  12.426
58340SOL    HW276918   4.405   5.269  12.469
58341SOL     OW76919   1.772  12.420   2.735
58341SOL    HW176920   1.736  12.343   2.780
58341SOL    HW276921   1.751  12.407   2.643
58342SOL     OW76922   9.767   3.482   6.992
58342SOL    HW176923   9.743   3.396   6.956
58342SOL    HW276924   9.685   3.533   6.988
58343SOL     OW76925   8.306   7.474   2.199
58343SOL    HW176926   8.235   7.487   2.262
58343SOL    HW276927   8.374   7.428   2.249
58344SOL     OW76928  10.425  12.742  13.222
58344SOL    HW176929  10.433  12.652  13.252
58344SOL    HW276930  10.440  12.738  13.128
58345SOL     OW76931   1.032  11.787   8.183
58345SOL    HW176932   1.127  11.798   8.177
58345SOL    HW276933   0.998  11.821   8.100
58346SOL     OW76934  13.733   0.824   1.160
58346SOL    HW176935  13.658   0.884   1.151
58346SOL    HW276936  13.693   0.740   1.182
58347SOL     OW76937  12.786   7.175   9.558
58347SOL    HW176938  12.733   7.166   9.479
58347SOL    HW276939  12.870   7.209   9.527
58348SOL     OW76940   3.406   0.169  11.213
58348SOL    HW176941   3.450   0.109  11.153
58348SOL    HW276942   3.376   0.113  11.285
58349SOL     OW76943   0.218  13.768   8.904
58349SOL    HW176944   0.178  13.728   8.827
58349SOL    HW276945   0.224  13.861   8.881
58350SOL     OW76946  14.388  11.437  11.259
58350SOL    HW176947  14.302  11.457  11.223
58350SOL    HW276948  14.372  11.372  11.327
58351SOL     OW76949  13.736  13.540   1.057
58351SOL    HW176950  13.794  13.540   0.982
58351SOL    HW276951  13.653  13.575   1.024
58352SOL     OW76952   3.618   0.372   2.768
58352SOL    HW176953   3.658   0.303   2.716
58352SOL    HW276954   3.560   0.326   2.828
58353SOL     OW76955   8.609   4.721   7.780
58353SOL    HW176956   8.576   4.768   7.705
58353SOL    HW276957   8.536   4.717   7.841
58354SOL     OW76958   1.756  12.122   8.025
58354SOL    HW176959   1.839  12.099   7.985
58354SOL    HW276960   1.712  12.039   8.040
58355SOL     OW76961   9.148   0.504   2.706
58355SOL    HW176962   9.192   0.589   2.709
58355SOL    HW276963   9.149   0.480   2.614
58356SOL     OW76964  10.350   1.747  14.634
58356SOL    HW176965  10.284   1.772  14.569
58356SOL    HW276966  10.434   1.767  14.592
58357SOL     OW76967  12.218   6.570  10.421
58357SOL    HW176968  12.182   6.485  10.445
58357SOL    HW276969  12.222   6.618  10.503
58358SOL     OW76970   9.260   1.700  11.661
58358SOL    HW176971   9.166   1.691  11.673
58358SOL    HW276972   9.294   1.726  11.746
58359SOL     OW76973   2.489   8.751   2.664
58359SOL    HW176974   2.453   8.764   2.576
58359SOL    HW276975   2.584   8.740   2.650
58360SOL     OW76976   6.781  11.150   0.146
58360SOL    HW176977   6.783  11.206   0.223
58360SOL    HW276978   6.838  11.077   0.168
58361SOL     OW76979   2.135   1.832  10.035
58361SOL    HW176980   2.072   1.771  10.075
58361SOL    HW276981   2.210   1.777  10.014
58362SOL     OW76982   4.376   8.958   2.336
58362SOL    HW176983   4.415   8.872   2.355
58362SOL    HW276984   4.392   9.009   2.415
58363SOL     OW76985   1.139   6.973   3.629
58363SOL    HW176986   1.147   7.060   3.589
58363SOL    HW276987   1.228   6.939   3.633
58364SOL     OW76988   4.981   0.320   8.742
58364SOL    HW176989   4.934   0.243   8.712
58364SOL    HW276990   4.931   0.352   8.817
58365SOL     OW76991   1.078   2.072   2.287
58365SOL    HW176992   1.027   1.993   2.271
58365SOL    HW276993   1.025   2.143   2.251
58366SOL     OW76994  10.250   3.576  10.108
58366SOL    HW176995  10.304   3.507  10.071
58366SOL    HW276996  10.162   3.559  10.073
58367SOL     OW76997  12.042   8.313  12.887
58367SOL    HW176998  12.033   8.408  12.894
58367SOL    HW276999  11.959   8.278  12.918
58368SOL     OW77000   6.201   6.261   3.415
58368SOL    HW177001   6.261   6.188   3.394
58368SOL    HW277002   6.175   6.246   3.506
58369SOL     OW77003  11.851  13.609   2.268
58369SOL    HW177004  11.856  13.691   2.317
58369SOL    HW277005  11.790  13.554   2.317
58370SOL     OW77006   6.698   0.827  10.957
58370SOL    HW177007   6.684   0.814  11.050
58370SOL    HW277008   6.756   0.903  10.952
58371SOL     OW77009   4.356  10.887   2.041
58371SOL    HW177010   4.382  10.844   1.960
58371SOL    HW277011   4.427  10.948   2.060
58372SOL     OW77012   0.037   1.796   4.609
58372SOL    HW177013  14.827   1.844   4.633
58372SOL    HW277014   0.058   1.744   4.687
58373SOL     OW77015  14.344   6.542   5.394
58373SOL    HW177016  14.369   6.634   5.390
58373SOL    HW277017  14.254   6.540   5.362
58374SOL     OW77018  11.264   0.954   0.515
58374SOL    HW177019  11.170   0.962   0.532
58374SOL    HW277020  11.292   1.042   0.490
58375SOL     OW77021   6.599  12.654   0.637
58375SOL    HW177022   6.528  12.596   0.663
58375SOL    HW277023   6.655  12.600   0.581
58376SOL     OW77024   2.919   2.588   4.718
58376SOL    HW177025   2.887   2.659   4.663
58376SOL    HW277026   2.941   2.630   4.801
58377SOL     OW77027  10.476  11.335   2.563
58377SOL    HW177028  10.474  11.312   2.470
58377SOL    HW277029  10.467  11.252   2.609
58378SOL     OW77030   7.858  12.311   2.477
58378SOL    HW177031   7.775  12.300   2.431
58378SOL    HW277032   7.847  12.391   2.528
58379SOL     OW77033   7.740   6.048   0.661
58379SOL    HW177034   7.663   6.050   0.716
58379SOL    HW277035   7.712   6.087   0.578
58380SOL     OW77036   0.180  12.075  13.439
58380SOL    HW177037   0.228  12.009  13.389
58380SOL    HW277038   0.166  12.035  13.524
58381SOL     OW77039   9.117  13.188   5.483
58381SOL    HW177040   9.186  13.251   5.501
58381SOL    HW277041   9.097  13.149   5.568
58382SOL     OW77042  12.069   3.428   3.070
58382SOL    HW177043  11.998   3.445   3.132
58382SOL    HW277044  12.139   3.390   3.123
58383SOL     OW77045   6.161   1.099  10.623
58383SOL    HW177046   6.199   1.172  10.672
58383SOL    HW277047   6.132   1.037  10.690
58384SOL     OW77048  14.567  13.301  14.094
58384SOL    HW177049  14.609  13.355  14.162
58384SOL    HW277050  14.640  13.269  14.041
58385SOL     OW77051   1.671  10.905   1.171
58385SOL    HW177052   1.622  10.924   1.250
58385SOL    HW277053   1.761  10.894   1.200
58386SOL     OW77054   8.041  13.737   2.712
58386SOL    HW177055   8.074  13.649   2.731
58386SOL    HW277056   8.059  13.787   2.792
58387SOL     OW77057   0.527   4.220   8.917
58387SOL    HW177058   0.584   4.296   8.908
58387SOL    HW277059   0.586   4.146   8.926
58388SOL     OW77060   7.702   0.952   6.751
58388SOL    HW177061   7.754   1.001   6.814
58388SOL    HW277062   7.723   0.860   6.769
58389SOL     OW77063   6.635   6.750   4.101
58389SOL    HW177064   6.597   6.684   4.158
58389SOL    HW277065   6.651   6.825   4.158
58390SOL     OW77066   2.844   3.909  11.542
58390SOL    HW177067   2.886   3.950  11.467
58390SOL    HW277068   2.751   3.930  11.532
58391SOL     OW77069   2.681   5.811  10.465
58391SOL    HW177070   2.589   5.836  10.478
58391SOL    HW277071   2.680   5.716  10.459
58392SOL     OW77072   9.709   5.549   5.249
58392SOL    HW177073   9.697   5.486   5.320
58392SOL    HW277074   9.749   5.625   5.291
58393SOL     OW77075  10.890   2.151   9.250
58393SOL    HW177076  10.877   2.138   9.156
58393SOL    HW277077  10.898   2.246   9.259
58394SOL     OW77078   2.744  11.443   7.962
58394SOL    HW177079   2.826  11.457   8.009
58394SOL    HW277080   2.759  11.482   7.876
58395SOL     OW77081   4.541   3.304   6.650
58395SOL    HW177082   4.478   3.374   6.669
58395SOL    HW277083   4.626   3.345   6.661
58396SOL     OW77084  14.782   7.013   7.037
58396SOL    HW177085  14.822   7.064   6.967
58396SOL    HW277086  14.723   6.953   6.993
58397SOL     OW77087  13.066   1.505  14.611
58397SOL    HW177088  13.147   1.480  14.568
58397SOL    HW277089  13.015   1.550  14.544
58398SOL     OW77090   9.592  10.808   3.162
58398SOL    HW177091   9.605  10.732   3.106
58398SOL    HW277092   9.505  10.840   3.140
58399SOL     OW77093   9.041   1.512   5.839
58399SOL    HW177094   9.043   1.437   5.780
58399SOL    HW277095   8.973   1.490   5.903
58400SOL     OW77096   1.650  11.072  11.558
58400SOL    HW177097   1.668  10.990  11.512
58400SOL    HW277098   1.656  11.139  11.490
58401SOL     OW77099  13.324   9.282  11.494
58401SOL    HW177100  13.239   9.326  11.498
58401SOL    HW277101  13.372   9.329  11.425
58402SOL     OW77102   3.791  10.671   4.462
58402SOL    HW177103   3.818  10.608   4.395
58402SOL    HW277104   3.861  10.669   4.527
58403SOL     OW77105  12.198  13.529   6.740
58403SOL    HW177106  12.250  13.526   6.821
58403SOL    HW277107  12.233  13.605   6.693
58404SOL     OW77108   7.609   5.691   2.187
58404SOL    HW177109   7.519   5.670   2.213
58404SOL    HW277110   7.652   5.606   2.181
58405SOL     OW77111   1.733  12.424  12.097
58405SOL    HW177112   1.659  12.473  12.134
58405SOL    HW277113   1.707  12.406  12.007
58406SOL     OW77114  10.727   2.097   4.128
58406SOL    HW177115  10.698   2.010   4.103
58406SOL    HW277116  10.807   2.112   4.077
58407SOL     OW77117   6.876   2.882   8.211
58407SOL    HW177118   6.899   2.790   8.202
58407SOL    HW277119   6.836   2.906   8.128
58408SOL     OW77120   9.539   0.486   9.409
58408SOL    HW177121   9.525   0.554   9.476
58408SOL    HW277122   9.463   0.429   9.416
58409SOL     OW77123  14.572   9.632   3.183
58409SOL    HW177124  14.490   9.634   3.133
58409SOL    HW277125  14.616   9.714   3.160
58410SOL     OW77126  10.124   0.302  14.209
58410SOL    HW177127  10.195   0.353  14.248
58410SOL    HW277128  10.168   0.241  14.150
58411SOL     OW77129   6.967   9.575   3.587
58411SOL    HW177130   6.935   9.665   3.597
58411SOL    HW277131   6.900   9.521   3.628
58412SOL     OW77132   5.105   6.115  12.309
58412SOL    HW177133   5.081   6.066  12.387
58412SOL    HW277134   5.168   6.180  12.340
58413SOL     OW77135   4.206  14.302  11.017
58413SOL    HW177136   4.151  14.240  11.065
58413SOL    HW277137   4.207  14.269  10.927
58414SOL     OW77138   1.333   9.305   9.683
58414SOL    HW177139   1.414   9.351   9.706
58414SOL    HW277140   1.361   9.216   9.662
58415SOL     OW77141   6.516  11.320  14.356
58415SOL    HW177142   6.573  11.354  14.287
58415SOL    HW277143   6.494  11.398  14.408
58416SOL     OW77144  13.425   5.533   9.753
58416SOL    HW177145  13.417   5.515   9.846
58416SOL    HW277146  13.507   5.492   9.727
58417SOL     OW77147   3.614  11.093   4.472
58417SOL    HW177148   3.599  11.157   4.402
58417SOL    HW277149   3.697  11.052   4.449
58418SOL     OW77150   1.700  10.976   2.575
58418SOL    HW177151   1.633  10.952   2.639
58418SOL    HW277152   1.661  10.953   2.490
58419SOL     OW77153  11.288  13.121  14.043
58419SOL    HW177154  11.333  13.039  14.062
58419SOL    HW277155  11.358  13.181  14.017
58420SOL     OW77156   6.277  12.438   5.652
58420SOL    HW177157   6.275  12.494   5.574
58420SOL    HW277158   6.300  12.498   5.723
58421SOL     OW77159  10.918   8.089   9.485
58421SOL    HW177160  10.986   8.154   9.503
58421SOL    HW277161  10.888   8.109   9.397
58422SOL     OW77162  11.234   8.576  14.397
58422SOL    HW177163  11.210   8.562  14.488
58422SOL    HW277164  11.218   8.669  14.381
58423SOL     OW77165   8.399  12.506   5.106
58423SOL    HW177166   8.315  12.505   5.152
58423SOL    HW277167   8.405  12.420   5.066
58424SOL     OW77168   2.589   9.469   1.085
58424SOL    HW177169   2.658   9.408   1.056
58424SOL    HW277170   2.524   9.467   1.014
58425SOL     OW77171   0.972  13.991  13.434
58425SOL    HW177172   0.936  13.905  13.455
58425SOL    HW277173   0.940  14.048  13.503
58426SOL     OW77174  12.324  10.589   0.401
58426SOL    HW177175  12.238  10.603   0.443
58426SOL    HW277176  12.316  10.631   0.316
58427SOL     OW77177   3.402   8.685   2.652
58427SOL    HW177178   3.404   8.596   2.619
58427SOL    HW277179   3.373   8.738   2.578
58428SOL     OW77180   8.715   9.918   8.338
58428SOL    HW177181   8.711  10.006   8.375
58428SOL    HW277182   8.684   9.861   8.409
58429SOL     OW77183  13.665   9.133   1.982
58429SOL    HW177184  13.734   9.066   1.984
58429SOL    HW277185  13.677   9.178   1.898
58430SOL     OW77186  12.070   2.350   3.607
58430SOL    HW177187  12.134   2.295   3.652
58430SOL    HW277188  12.050   2.420   3.670
58431SOL     OW77189   4.968   9.814   8.471
58431SOL    HW177190   5.040   9.753   8.457
58431SOL    HW277191   4.895   9.759   8.500
58432SOL     OW77192   3.801  10.924   7.998
58432SOL    HW177193   3.771  10.944   8.087
58432SOL    HW277194   3.870  10.859   8.010
58433SOL     OW77195   1.951   9.543   2.069
58433SOL    HW177196   1.962   9.457   2.029
58433SOL    HW277197   2.024   9.552   2.130
58434SOL     OW77198   1.697  12.537  13.806
58434SOL    HW177199   1.752  12.490  13.743
58434SOL    HW277200   1.609  12.502  13.791
58435SOL     OW77201   7.964   8.169   4.996
58435SOL    HW177202   7.971   8.086   4.947
58435SOL    HW277203   7.870   8.186   4.999
58436SOL     OW77204  12.034   0.954   8.869
58436SOL    HW177205  12.102   0.940   8.934
58436SOL    HW277206  11.957   0.911   8.905
58437SOL     OW77207   0.002   3.643   3.477
58437SOL    HW177208  14.842   3.710   3.538
58437SOL    HW277209   0.079   3.604   3.519
58438SOL     OW77210   2.444  10.630  14.600
58438SOL    HW177211   2.528  10.604  14.564
58438SOL    HW277212   2.388  10.553  14.588
58439SOL     OW77213   6.131   6.663   3.403
58439SOL    HW177214   6.115   6.610   3.325
58439SOL    HW277215   6.122   6.602   3.476
58440SOL     OW77216  12.062  11.468  12.704
58440SOL    HW177217  12.011  11.400  12.661
58440SOL    HW277218  12.050  11.453  12.798
58441SOL     OW77219  12.412  12.037   6.316
58441SOL    HW177220  12.376  12.003   6.398
58441SOL    HW277221  12.507  12.033   6.328
58442SOL     OW77222   3.472   2.419   5.121
58442SOL    HW177223   3.407   2.372   5.173
58442SOL    HW277224   3.489   2.363   5.046
58443SOL     OW77225   2.660  14.459  11.151
58443SOL    HW177226   2.693  14.414  11.073
58443SOL    HW277227   2.705  14.417  11.224
58444SOL     OW77228   4.690   5.918  14.869
58444SOL    HW177229   4.601   5.929   0.034
58444SOL    HW277230   4.714   6.004  14.835
58445SOL     OW77231   2.195   0.810   4.321
58445SOL    HW177232   2.100   0.795   4.316
58445SOL    HW277233   2.232   0.750   4.256
58446SOL     OW77234   5.849   8.755  14.265
58446SOL    HW177235   5.808   8.711  14.340
58446SOL    HW277236   5.820   8.703  14.190
58447SOL     OW77237   4.858   3.005   5.644
58447SOL    HW177238   4.808   3.087   5.641
58447SOL    HW277239   4.853   2.970   5.555
58448SOL     OW77240   9.814  11.396  11.602
58448SOL    HW177241   9.815  11.340  11.679
58448SOL    HW277242   9.865  11.473  11.627
58449SOL     OW77243   0.765  14.285  10.296
58449SOL    HW177244   0.785  14.280  10.203
58449SOL    HW277245   0.792  14.201  10.332
58450SOL     OW77246  11.596   0.344   2.786
58450SOL    HW177247  11.653   0.418   2.808
58450SOL    HW277248  11.601   0.338   2.691
58451SOL     OW77249   0.215   8.902  13.755
58451SOL    HW177250   0.151   8.852  13.806
58451SOL    HW277251   0.273   8.835  13.718
58452SOL     OW77252  12.814  10.945  13.172
58452SOL    HW177253  12.792  10.904  13.089
58452SOL    HW277254  12.910  10.947  13.173
58453SOL     OW77255   0.326   4.019  13.381
58453SOL    HW177256   0.268   3.972  13.442
58453SOL    HW277257   0.408   4.029  13.429
58454SOL     OW77258  14.620   7.388   7.929
58454SOL    HW177259  14.569   7.332   7.988
58454SOL    HW277260  14.585   7.476   7.943
58455SOL     OW77261   7.721   1.474   4.285
58455SOL    HW177262   7.713   1.527   4.206
58455SOL    HW277263   7.720   1.384   4.254
58456SOL     OW77264   7.760  12.274   4.953
58456SOL    HW177265   7.703  12.234   4.887
58456SOL    HW277266   7.788  12.357   4.914
58457SOL     OW77267   2.999   6.366  12.128
58457SOL    HW177268   2.945   6.346  12.051
58457SOL    HW277269   3.012   6.461  12.124
58458SOL     OW77270  10.780  10.399  10.146
58458SOL    HW177271  10.788  10.492  10.167
58458SOL    HW277272  10.739  10.398  10.059
58459SOL     OW77273  12.306  12.979   5.101
58459SOL    HW177274  12.371  12.912   5.082
58459SOL    HW277275  12.330  13.053   5.045
58460SOL     OW77276   8.122   6.814   6.012
58460SOL    HW177277   8.189   6.770   5.960
58460SOL    HW277278   8.055   6.747   6.027
58461SOL     OW77279  14.628   2.620   6.197
58461SOL    HW177280  14.698   2.632   6.132
58461SOL    HW277281  14.638   2.693   6.257
58462SOL     OW77282   5.651  13.905  13.209
58462SOL    HW177283   5.703  13.867  13.137
58462SOL    HW277284   5.578  13.844  13.220
58463SOL     OW77285  11.819  13.335   3.203
58463SOL    HW177286  11.749  13.378   3.155
58463SOL    HW277287  11.854  13.271   3.141
58464SOL     OW77288  13.060   5.869   8.142
58464SOL    HW177289  13.020   5.914   8.216
58464SOL    HW277290  13.015   5.903   8.065
58465SOL     OW77291   8.674   2.773  11.259
58465SOL    HW177292   8.768   2.759  11.257
58465SOL    HW277293   8.655   2.822  11.179
58466SOL     OW77294   6.626   1.474  13.606
58466SOL    HW177295   6.662   1.512  13.526
58466SOL    HW277296   6.601   1.385  13.582
58467SOL     OW77297   2.789   9.167   4.999
58467SOL    HW177298   2.838   9.168   5.081
58467SOL    HW277299   2.794   9.258   4.968
58468SOL     OW77300   1.503   8.745   6.595
58468SOL    HW177301   1.422   8.760   6.645
58468SOL    HW277302   1.513   8.823   6.541
58469SOL     OW77303   3.795   7.961   9.397
58469SOL    HW177304   3.768   8.008   9.476
58469SOL    HW277305   3.778   8.022   9.325
58470SOL     OW77306   4.376  13.710   3.612
58470SOL    HW177307   4.307  13.656   3.573
58470SOL    HW277308   4.458  13.666   3.588
58471SOL     OW77309   0.696   5.724  12.413
58471SOL    HW177310   0.771   5.756  12.461
58471SOL    HW277311   0.641   5.681  12.479
58472SOL     OW77312  14.241   4.052   2.010
58472SOL    HW177313  14.262   4.142   2.032
58472SOL    HW277314  14.148   4.053   1.989
58473SOL     OW77315  13.542  14.310  12.749
58473SOL    HW177316  13.485  14.286  12.676
58473SOL    HW277317  13.484  14.355  12.811
58474SOL     OW77318   7.283   0.796   3.844
58474SOL    HW177319   7.338   0.781   3.921
58474SOL    HW277320   7.341   0.783   3.769
58475SOL     OW77321  12.102   0.694  14.269
58475SOL    HW177322  12.102   0.598  14.276
58475SOL    HW277323  12.048   0.713  14.192
58476SOL     OW77324  12.832  13.920   7.442
58476SOL    HW177325  12.835  13.825   7.438
58476SOL    HW277326  12.918  13.948   7.411
58477SOL     OW77327  10.112   5.707   0.081
58477SOL    HW177328  10.128   5.657   0.162
58477SOL    HW277329  10.197   5.746   0.060
58478SOL     OW77330  13.778   9.982  10.770
58478SOL    HW177331  13.780   9.926  10.693
58478SOL    HW277332  13.693   9.964  10.811
58479SOL     OW77333   9.722   7.699  13.760
58479SOL    HW177334   9.646   7.643  13.780
58479SOL    HW277335   9.764   7.655  13.686
58480SOL     OW77336  12.511   6.801   6.445
58480SOL    HW177337  12.607   6.794   6.443
58480SOL    HW277338  12.493   6.891   6.418
58481SOL     OW77339   6.538   1.763   0.807
58481SOL    HW177340   6.545   1.713   0.888
58481SOL    HW277341   6.460   1.729   0.764
58482SOL     OW77342   2.526   9.831   9.759
58482SOL    HW177343   2.620   9.812   9.751
58482SOL    HW277344   2.495   9.836   9.668
58483SOL     OW77345   8.240   3.250   4.656
58483SOL    HW177346   8.269   3.159   4.654
58483SOL    HW277347   8.148   3.246   4.682
58484SOL     OW77348   2.485  13.653   7.856
58484SOL    HW177349   2.412  13.694   7.810
58484SOL    HW277350   2.559  13.661   7.796
58485SOL     OW77351   9.172   4.018   6.527
58485SOL    HW177352   9.264   4.044   6.525
58485SOL    HW277353   9.133   4.065   6.454
58486SOL     OW77354   1.297   2.645   3.329
58486SOL    HW177355   1.364   2.701   3.290
58486SOL    HW277356   1.323   2.636   3.421
58487SOL     OW77357   1.625   8.952  13.265
58487SOL    HW177358   1.680   8.992  13.197
58487SOL    HW277359   1.536   8.973  13.239
58488SOL     OW77360   2.025   2.285  13.707
58488SOL    HW177361   2.084   2.354  13.678
58488SOL    HW277362   2.056   2.262  13.795
58489SOL     OW77363   6.572   8.765   9.305
58489SOL    HW177364   6.517   8.720   9.370
58489SOL    HW277365   6.656   8.776   9.348
58490SOL     OW77366   2.228   6.877   3.753
58490SOL    HW177367   2.314   6.918   3.753
58490SOL    HW277368   2.245   6.783   3.748
58491SOL     OW77369   7.632  13.243   9.572
58491SOL    HW177370   7.611  13.306   9.503
58491SOL    HW277371   7.611  13.290   9.653
58492SOL     OW77372   8.324  12.374  10.601
58492SOL    HW177373   8.322  12.306  10.669
58492SOL    HW277374   8.368  12.448  10.642
58493SOL     OW77375  11.795  13.348   7.094
58493SOL    HW177376  11.795  13.300   7.177
58493SOL    HW277377  11.705  13.344   7.063
58494SOL     OW77378   1.789   8.226   6.382
58494SOL    HW177379   1.730   8.279   6.329
58494SOL    HW277380   1.783   8.263   6.470
58495SOL     OW77381   5.819   0.906   8.574
58495SOL    HW177382   5.757   0.975   8.552
58495SOL    HW277383   5.904   0.950   8.576
58496SOL     OW77384   7.980   4.645   5.065
58496SOL    HW177385   7.954   4.684   4.981
58496SOL    HW277386   8.037   4.573   5.041
58497SOL     OW77387  12.615   3.898   1.177
58497SOL    HW177388  12.705   3.874   1.201
58497SOL    HW277389  12.624   3.958   1.103
58498SOL     OW77390   2.484   9.256   8.368
58498SOL    HW177391   2.514   9.167   8.350
58498SOL    HW277392   2.544   9.289   8.435
58499SOL     OW77393  12.486   1.914   0.897
58499SOL    HW177394  12.518   1.829   0.867
58499SOL    HW277395  12.430   1.894   0.971
58500SOL     OW77396   4.059  10.927   8.793
58500SOL    HW177397   3.998  10.980   8.845
58500SOL    HW277398   4.104  10.990   8.737
58501SOL     OW77399  14.773   6.732   6.833
58501SOL    HW177400  14.771   6.759   6.741
58501SOL    HW277401  14.701   6.670   6.841
58502SOL     OW77402   6.481   9.268   9.843
58502SOL    HW177403   6.395   9.237   9.869
58502SOL    HW277404   6.466   9.314   9.760
58503SOL     OW77405   4.631  12.621   0.380
58503SOL    HW177406   4.673  12.537   0.362
58503SOL    HW277407   4.637  12.669   0.298
58504SOL     OW77408   3.063   7.155   9.616
58504SOL    HW177409   3.080   7.117   9.702
58504SOL    HW277410   3.024   7.084   9.566
58505SOL     OW77411   7.249   6.064   2.382
58505SOL    HW177412   7.328   6.015   2.360
58505SOL    HW277413   7.236   6.050   2.475
58506SOL     OW77414   0.169  11.041   1.082
58506SOL    HW177415   0.145  10.951   1.104
58506SOL    HW277416   0.149  11.091   1.161
58507SOL     OW77417  12.087   4.282   1.520
58507SOL    HW177418  12.018   4.337   1.483
58507SOL    HW277419  12.163   4.298   1.464
58508SOL     OW77420   0.804  14.163   1.198
58508SOL    HW177421   0.858  14.084   1.189
58508SOL    HW277422   0.867  14.233   1.213
58509SOL     OW77423   9.061   2.871  10.538
58509SOL    HW177424   8.975   2.851  10.574
58509SOL    HW277425   9.070   2.813  10.463
58510SOL     OW77426   6.940   9.459   6.855
58510SOL    HW177427   7.021   9.409   6.858
58510SOL    HW277428   6.901   9.445   6.942
58511SOL     OW77429   6.544   2.129  12.941
58511SOL    HW177430   6.555   2.111  13.034
58511SOL    HW277431   6.617   2.083  12.899
58512SOL     OW77432   1.801   3.533   0.679
58512SOL    HW177433   1.810   3.627   0.665
58512SOL    HW277434   1.739   3.524   0.751
58513SOL     OW77435   2.216  12.255  13.331
58513SOL    HW177436   2.233  12.176  13.280
58513SOL    HW277437   2.282  12.253  13.400
58514SOL     OW77438   3.841   4.079   3.414
58514SOL    HW177439   3.841   4.033   3.330
58514SOL    HW277440   3.762   4.133   3.411
58515SOL     OW77441   4.206   1.390   9.769
58515SOL    HW177442   4.244   1.316   9.721
58515SOL    HW277443   4.136   1.351   9.821
58516SOL     OW77444   9.834  11.990  10.860
58516SOL    HW177445   9.853  11.940  10.940
58516SOL    HW277446   9.885  12.070  10.870
58517SOL     OW77447   8.304   1.400   3.829
58517SOL    HW177448   8.328   1.326   3.885
58517SOL    HW277449   8.376   1.463   3.840
58518SOL     OW77450  12.459   9.194   8.034
58518SOL    HW177451  12.390   9.196   7.968
58518SOL    HW277452  12.437   9.266   8.094
58519SOL     OW77453   7.542   1.182  12.760
58519SOL    HW177454   7.483   1.106  12.759
58519SOL    HW277455   7.551   1.204  12.852
58520SOL     OW77456   8.873  13.418   9.961
58520SOL    HW177457   8.814  13.457  10.024
58520SOL    HW277458   8.950  13.393  10.012
58521SOL     OW77459  10.234   2.267   8.995
58521SOL    HW177460  10.149   2.239   8.961
58521SOL    HW277461  10.286   2.188   8.997
58522SOL     OW77462  13.517   5.041  11.107
58522SOL    HW177463  13.558   5.020  11.191
58522SOL    HW277464  13.577   5.005  11.042
58523SOL     OW77465   8.636   8.566  13.155
58523SOL    HW177466   8.645   8.611  13.240
58523SOL    HW277467   8.687   8.486  13.164
58524SOL     OW77468   6.834   3.328   2.264
58524SOL    HW177469   6.796   3.240   2.256
58524SOL    HW277470   6.763   3.382   2.297
58525SOL     OW77471   9.937  14.314   0.730
58525SOL    HW177472   9.978  14.253   0.668
58525SOL    HW277473   9.912  14.389   0.677
58526SOL     OW77474   2.044   8.053   7.764
58526SOL    HW177475   1.991   7.974   7.772
58526SOL    HW277476   2.033   8.080   7.673
58527SOL     OW77477   9.159   4.807   7.309
58527SOL    HW177478   9.244   4.849   7.298
58527SOL    HW277479   9.179   4.718   7.338
58528SOL     OW77480   9.803   0.778   0.033
58528SOL    HW177481   9.722   0.726   0.035
58528SOL    HW277482   9.822   0.787  14.809
58529SOL     OW77483   5.032  14.827  13.525
58529SOL    HW177484   4.965  14.759  13.526
58529SOL    HW277485   5.091  14.804  13.596
58530SOL     OW77486  12.099   7.675   4.684
58530SOL    HW177487  12.063   7.601   4.731
58530SOL    HW277488  12.045   7.683   4.605
58531SOL     OW77489   5.600   9.744   4.386
58531SOL    HW177490   5.613   9.650   4.373
58531SOL    HW277491   5.594   9.755   4.481
58532SOL     OW77492  14.433  12.227   3.954
58532SOL    HW177493  14.518  12.271   3.951
58532SOL    HW277494  14.432  12.171   3.877
58533SOL     OW77495   3.213   4.027   4.972
58533SOL    HW177496   3.192   3.959   4.908
58533SOL    HW277497   3.284   4.077   4.932
58534SOL     OW77498   5.193   5.445   7.238
58534SOL    HW177499   5.249   5.517   7.210
58534SOL    HW277500   5.227   5.420   7.324
58535SOL     OW77501   6.836   0.961   5.119
58535SOL    HW177502   6.910   0.983   5.175
58535SOL    HW277503   6.870   0.967   5.030
58536SOL     OW77504   3.504   9.082   4.473
58536SOL    HW177505   3.568   9.102   4.405
58536SOL    HW277506   3.424   9.125   4.444
58537SOL     OW77507   3.882   6.798   0.789
58537SOL    HW177508   3.875   6.812   0.883
58537SOL    HW277509   3.976   6.798   0.771
58538SOL     OW77510   7.978  12.203   4.593
58538SOL    HW177511   7.922  12.280   4.586
58538SOL    HW277512   8.049  12.229   4.651
58539SOL     OW77513   5.107  11.615  10.493
58539SOL    HW177514   5.104  11.693  10.436
58539SOL    HW277515   5.104  11.541  10.432
58540SOL     OW77516   0.959   1.382   3.832
58540SOL    HW177517   1.026   1.315   3.844
58540SOL    HW277518   1.001   1.463   3.860
58541SOL     OW77519   6.774   0.784   6.673
58541SOL    HW177520   6.825   0.790   6.754
58541SOL    HW277521   6.707   0.719   6.692
58542SOL     OW77522   6.505   9.454  12.510
58542SOL    HW177523   6.483   9.375  12.559
58542SOL    HW277524   6.511   9.523  12.576
58543SOL     OW77525  10.475   5.435   9.651
58543SOL    HW177526  10.411   5.394   9.709
58543SOL    HW277527  10.560   5.408   9.686
58544SOL     OW77528   3.572  11.671   3.352
58544SOL    HW177529   3.492  11.649   3.305
58544SOL    HW277530   3.562  11.628   3.437
58545SOL     OW77531   0.483   5.425   4.938
58545SOL    HW177532   0.502   5.367   4.863
58545SOL    HW277533   0.519   5.379   5.013
58546SOL     OW77534   5.632   0.203   1.362
58546SOL    HW177535   5.692   0.217   1.288
58546SOL    HW277536   5.549   0.182   1.320
58547SOL     OW77537  11.512  10.021  13.534
58547SOL    HW177538  11.477   9.961  13.468
58547SOL    HW277539  11.477   9.987  13.617
58548SOL     OW77540  10.167   2.088   0.353
58548SOL    HW177541  10.188   2.109   0.444
58548SOL    HW277542  10.182   1.994   0.346
58549SOL     OW77543   4.270   1.059   6.316
58549SOL    HW177544   4.228   1.145   6.323
58549SOL    HW277545   4.309   1.059   6.228
58550SOL     OW77546   0.248   5.406  10.153
58550SOL    HW177547   0.215   5.394  10.242
58550SOL    HW277548   0.223   5.327  10.106
58551SOL     OW77549   5.827   3.744  11.686
58551SOL    HW177550   5.903   3.803  11.690
58551SOL    HW277551   5.753   3.801  11.664
58552SOL     OW77552   0.318   9.362   4.620
58552SOL    HW177553   0.403   9.353   4.577
58552SOL    HW277554   0.270   9.282   4.598
58553SOL     OW77555  14.293  10.960   7.588
58553SOL    HW177556  14.232  10.925   7.653
58553SOL    HW277557  14.357  10.890   7.575
58554SOL     OW77558   5.491   8.849   7.172
58554SOL    HW177559   5.424   8.785   7.199
58554SOL    HW277560   5.549   8.856   7.248
58555SOL     OW77561   2.939   5.763   0.191
58555SOL    HW177562   2.948   5.841   0.247
58555SOL    HW277563   2.844   5.751   0.182
58556SOL     OW77564  11.527   3.118   7.927
58556SOL    HW177565  11.573   3.191   7.886
58556SOL    HW277566  11.463   3.160   7.985
58557SOL     OW77567  11.808   7.399   4.220
58557SOL    HW177568  11.843   7.359   4.299
58557SOL    HW277569  11.752   7.332   4.181
58558SOL     OW77570   3.957  13.814   4.145
58558SOL    HW177571   3.872  13.811   4.189
58558SOL    HW277572   3.989  13.723   4.148
58559SOL     OW77573   7.671  11.899   6.330
58559SOL    HW177574   7.652  11.845   6.253
58559SOL    HW277575   7.650  11.842   6.404
58560SOL     OW77576   0.490  11.416   2.613
58560SOL    HW177577   0.576  11.412   2.655
58560SOL    HW277578   0.444  11.338   2.644
58561SOL     OW77579   7.330   2.769   6.353
58561SOL    HW177580   7.258   2.709   6.372
58561SOL    HW277581   7.404   2.713   6.331
58562SOL     OW77582  14.058   6.521   2.543
58562SOL    HW177583  14.028   6.438   2.508
58562SOL    HW277584  14.089   6.569   2.466
58563SOL     OW77585   9.766   2.294   9.144
58563SOL    HW177586   9.689   2.295   9.201
58563SOL    HW277587   9.839   2.281   9.204
58564SOL     OW77588   2.424   3.635   6.944
58564SOL    HW177589   2.437   3.730   6.935
58564SOL    HW277590   2.433   3.619   7.038
58565SOL     OW77591  10.769  14.382  13.798
58565SOL    HW177592  10.749  14.393  13.891
58565SOL    HW277593  10.714  14.309  13.771
58566SOL     OW77594   4.502   2.776   0.896
58566SOL    HW177595   4.460   2.848   0.849
58566SOL    HW277596   4.546   2.818   0.970
58567SOL     OW77597   6.352   5.938  10.774
58567SOL    HW177598   6.318   6.012  10.824
58567SOL    HW277599   6.440   5.923  10.808
58568SOL     OW77600   6.214   0.880   6.882
58568SOL    HW177601   6.237   0.970   6.906
58568SOL    HW277602   6.133   0.889   6.831
58569SOL     OW77603   9.527  13.076   6.233
58569SOL    HW177604   9.599  13.060   6.294
58569SOL    HW277605   9.455  13.107   6.288
58570SOL     OW77606   6.753  14.560  12.685
58570SOL    HW177607   6.737  14.604  12.601
58570SOL    HW277608   6.811  14.487  12.663
58571SOL     OW77609   9.681  12.127   8.450
58571SOL    HW177610   9.720  12.072   8.518
58571SOL    HW277611   9.602  12.163   8.490
58572SOL     OW77612   9.576   2.699   1.461
58572SOL    HW177613   9.606   2.786   1.488
58572SOL    HW277614   9.574   2.648   1.542
58573SOL     OW77615  11.027   7.580   7.293
58573SOL    HW177616  11.089   7.645   7.326
58573SOL    HW277617  10.943   7.626   7.291
58574SOL     OW77618   3.471  14.455  10.539
58574SOL    HW177619   3.482  14.364  10.565
58574SOL    HW277620   3.529  14.504  10.598
58575SOL     OW77621  13.320   8.431   8.817
58575SOL    HW177622  13.292   8.399   8.903
58575SOL    HW277623  13.395   8.376   8.795
58576SOL     OW77624   5.279  12.669  12.628
58576SOL    HW177625   5.341  12.611  12.672
58576SOL    HW277626   5.325  12.753  12.623
58577SOL     OW77627  12.874   0.933  11.899
58577SOL    HW177628  12.937   0.988  11.946
58577SOL    HW277629  12.889   0.845  11.935
58578SOL     OW77630   6.926  14.776   0.144
58578SOL    HW177631   6.976  14.852   0.175
58578SOL    HW277632   6.993  14.715   0.113
58579SOL     OW77633  13.619  14.135   8.835
58579SOL    HW177634  13.568  14.117   8.915
58579SOL    HW277635  13.648  14.048   8.806
58580SOL     OW77636  14.119  13.971   3.923
58580SOL    HW177637  14.090  13.883   3.899
58580SOL    HW277638  14.145  13.963   4.015
58581SOL     OW77639   8.509  11.416  12.147
58581SOL    HW177640   8.488  11.501  12.184
58581SOL    HW277641   8.478  11.421  12.056
58582SOL     OW77642   5.994   5.133  10.833
58582SOL    HW177643   5.916   5.084  10.808
58582SOL    HW277644   6.018   5.099  10.919
58583SOL     OW77645   4.200   3.518  14.333
58583SOL    HW177646   4.227   3.441  14.282
58583SOL    HW277647   4.118   3.491  14.375
58584SOL     OW77648   1.413   6.605  11.211
58584SOL    HW177649   1.347   6.674  11.204
58584SOL    HW277650   1.470   6.632  11.283
58585SOL     OW77651   5.129   9.213   7.418
58585SOL    HW177652   5.053   9.232   7.473
58585SOL    HW277653   5.125   9.118   7.403
58586SOL     OW77654   5.628   2.629   0.742
58586SOL    HW177655   5.557   2.677   0.701
58586SOL    HW277656   5.589   2.546   0.769
58587SOL     OW77657   5.897   6.347   1.224
58587SOL    HW177658   5.871   6.394   1.145
58587SOL    HW277659   5.934   6.414   1.281
58588SOL     OW77660  10.271   9.778   2.714
58588SOL    HW177661  10.200   9.715   2.729
58588SOL    HW277662  10.285   9.776   2.620
58589SOL     OW77663   5.030   5.370   1.173
58589SOL    HW177664   5.016   5.286   1.218
58589SOL    HW277665   4.943   5.410   1.170
58590SOL     OW77666   0.477   2.890  10.932
58590SOL    HW177667   0.516   2.934  10.857
58590SOL    HW277668   0.382   2.895  10.916
58591SOL     OW77669   7.023   5.661  13.107
58591SOL    HW177670   7.100   5.710  13.138
58591SOL    HW277671   6.949   5.718  13.126
58592SOL     OW77672   7.331   5.479   6.130
58592SOL    HW177673   7.378   5.562   6.133
58592SOL    HW277674   7.240   5.504   6.114
58593SOL     OW77675   3.039  13.180   5.973
58593SOL    HW177676   3.121  13.137   5.948
58593SOL    HW277677   3.009  13.132   6.051
58594SOL     OW77678   8.734  10.482  11.671
58594SOL    HW177679   8.814  10.476  11.620
58594SOL    HW277680   8.665  10.453  11.610
58595SOL     OW77681   4.393  10.297  12.591
58595SOL    HW177682   4.419  10.340  12.672
58595SOL    HW277683   4.299  10.280  12.602
58596SOL     OW77684  14.855   7.963  13.095
58596SOL    HW177685  14.810   8.043  13.066
58596SOL    HW277686  14.829   7.953  13.186
58597SOL     OW77687  11.257   1.439   4.949
58597SOL    HW177688  11.345   1.445   4.912
58597SOL    HW277689  11.199   1.437   4.873
58598SOL     OW77690  10.771   8.091   7.078
58598SOL    HW177691  10.679   8.104   7.052
58598SOL    HW277692  10.776   8.127   7.166
58599SOL     OW77693   8.031   9.631   6.943
58599SOL    HW177694   8.111   9.675   6.914
58599SOL    HW277695   8.038   9.628   7.038
58600SOL     OW77696  14.657   0.067  12.200
58600SOL    HW177697  14.652   0.131  12.130
58600SOL    HW277698  14.572   0.073  12.244
58601SOL     OW77699   0.700  11.333  10.853
58601SOL    HW177700   0.737  11.421  10.861
58601SOL    HW277701   0.687  11.303  10.943
58602SOL     OW77702   0.717  11.392   3.659
58602SOL    HW177703   0.654  11.463   3.675
58602SOL    HW277704   0.785  11.405   3.725
58603SOL     OW77705   2.066   6.621   6.174
58603SOL    HW177706   1.981   6.595   6.208
58603SOL    HW277707   2.115   6.539   6.164
58604SOL     OW77708   3.353  10.035  12.125
58604SOL    HW177709   3.290  10.001  12.189
58604SOL    HW277710   3.313  10.018  12.040
58605SOL     OW77711   6.141   0.728   8.437
58605SOL    HW177712   6.129   0.701   8.528
58605SOL    HW277713   6.135   0.824   8.440
58606SOL     OW77714  11.782   6.844  13.147
58606SOL    HW177715  11.720   6.822  13.217
58606SOL    HW277716  11.868   6.839  13.189
58607SOL     OW77717  14.193   5.914   1.451
58607SOL    HW177718  14.150   5.919   1.365
58607SOL    HW277719  14.141   5.971   1.507
58608SOL     OW77720   5.044   1.797  14.515
58608SOL    HW177721   5.050   1.716  14.565
58608SOL    HW277722   5.108   1.855  14.555
58609SOL     OW77723   2.676  13.301   2.272
58609SOL    HW177724   2.586  13.289   2.241
58609SOL    HW277725   2.678  13.391   2.305
58610SOL     OW77726  12.616   8.975  10.239
58610SOL    HW177727  12.664   8.894  10.227
58610SOL    HW277728  12.542   8.969  10.179
58611SOL     OW77729   1.771  11.519  12.950
58611SOL    HW177730   1.743  11.610  12.950
58611SOL    HW277731   1.865  11.522  12.931
58612SOL     OW77732  14.238  12.707   0.050
58612SOL    HW177733  14.219  12.776  14.857
58612SOL    HW277734  14.230  12.626   0.001
58613SOL     OW77735   5.171   6.777   6.256
58613SOL    HW177736   5.168   6.704   6.194
58613SOL    HW277737   5.195   6.853   6.204
58614SOL     OW77738   7.104   0.081   6.466
58614SOL    HW177739   7.138   0.167   6.443
58614SOL    HW277740   7.123   0.072   6.560
58615SOL     OW77741   1.876   8.882   7.832
58615SOL    HW177742   1.963   8.864   7.869
58615SOL    HW277743   1.895   8.924   7.748
58616SOL     OW77744   2.485  12.382   0.671
58616SOL    HW177745   2.467  12.475   0.690
58616SOL    HW277746   2.523  12.382   0.584
58617SOL     OW77747  12.717   4.150  11.917
58617SOL    HW177748  12.666   4.093  11.860
58617SOL    HW277749  12.805   4.149  11.879
58618SOL     OW77750   6.423   1.594   1.313
58618SOL    HW177751   6.421   1.512   1.265
58618SOL    HW277752   6.367   1.653   1.263
58619SOL     OW77753   2.051   2.113   6.849
58619SOL    HW177754   2.146   2.120   6.860
58619SOL    HW277755   2.016   2.129   6.937
58620SOL     OW77756   1.140   0.306  14.833
58620SOL    HW177757   1.110   0.391  14.800
58620SOL    HW277758   1.076   0.244  14.798
58621SOL     OW77759   7.376  11.047   0.322
58621SOL    HW177760   7.297  11.006   0.289
58621SOL    HW277761   7.420  11.082   0.244
58622SOL     OW77762  10.304  13.077   6.645
58622SOL    HW177763  10.386  13.068   6.596
58622SOL    HW277764  10.310  13.012   6.715
58623SOL     OW77765   8.407   8.154   0.205
58623SOL    HW177766   8.399   8.250   0.205
58623SOL    HW277767   8.364   8.126   0.286
58624SOL     OW77768  10.642  11.291  11.999
58624SOL    HW177769  10.637  11.254  12.087
58624SOL    HW277770  10.552  11.315  11.977
58625SOL     OW77771   3.639   2.027   5.865
58625SOL    HW177772   3.641   1.978   5.947
58625SOL    HW277773   3.722   2.076   5.864
58626SOL     OW77774   8.561   5.983  13.831
58626SOL    HW177775   8.613   6.032  13.767
58626SOL    HW277776   8.599   5.895  13.830
58627SOL     OW77777   1.601  10.290   3.506
58627SOL    HW177778   1.695  10.273   3.508
58627SOL    HW277779   1.588  10.359   3.571
58628SOL     OW77780   4.298   4.315   5.636
58628SOL    HW177781   4.206   4.302   5.614
58628SOL    HW277782   4.321   4.399   5.596
58629SOL     OW77783   1.461   1.799   3.097
58629SOL    HW177784   1.447   1.708   3.124
58629SOL    HW277785   1.493   1.842   3.176
58630SOL     OW77786   6.783   2.875  11.758
58630SOL    HW177787   6.699   2.846  11.792
58630SOL    HW277788   6.810   2.946  11.816
58631SOL     OW77789   5.563  13.980   0.824
58631SOL    HW177790   5.607  14.034   0.757
58631SOL    HW277791   5.592  14.017   0.907
58632SOL     OW77792   3.167   0.387  10.416
58632SOL    HW177793   3.250   0.379  10.463
58632SOL    HW277794   3.100   0.365  10.481
58633SOL     OW77795   4.577   5.291   3.700
58633SOL    HW177796   4.661   5.315   3.661
58633SOL    HW277797   4.599   5.230   3.771
58634SOL     OW77798   6.206  11.482   1.161
58634SOL    HW177799   6.186  11.533   1.083
58634SOL    HW277800   6.120  11.461   1.199
58635SOL     OW77801   0.156   1.247   8.049
58635SOL    HW177802   0.222   1.204   7.994
58635SOL    HW277803   0.195   1.332   8.071
58636SOL     OW77804  12.569  13.971  14.073
58636SOL    HW177805  12.607  13.991  13.988
58636SOL    HW277806  12.602  14.040  14.131
58637SOL     OW77807  11.176   0.033   8.109
58637SOL    HW177808  11.179  14.837   8.040
58637SOL    HW277809  11.245   0.095   8.087
58638SOL     OW77810  11.187   4.566  14.093
58638SOL    HW177811  11.109   4.598  14.139
58638SOL    HW277812  11.253   4.556  14.161
58639SOL     OW77813   2.942  14.741   3.154
58639SOL    HW177814   2.855  14.708   3.177
58639SOL    HW277815   2.925  14.824   3.111
58640SOL     OW77816   8.417   4.655  12.842
58640SOL    HW177817   8.417   4.579  12.900
58640SOL    HW277818   8.507   4.688  12.845
58641SOL     OW77819   2.279  13.675  10.260
58641SOL    HW177820   2.328  13.732  10.319
58641SOL    HW277821   2.304  13.586  10.285
58642SOL     OW77822   7.499   7.095   7.773
58642SOL    HW177823   7.482   7.011   7.815
58642SOL    HW277824   7.451   7.091   7.690
58643SOL     OW77825   7.409   2.252   6.235
58643SOL    HW177826   7.486   2.195   6.243
58643SOL    HW277827   7.391   2.279   6.325
58644SOL     OW77828   3.389  11.888  13.597
58644SOL    HW177829   3.477  11.860  13.621
58644SOL    HW277830   3.399  11.980  13.573
58645SOL     OW77831  10.760   3.157   6.548
58645SOL    HW177832  10.714   3.229   6.503
58645SOL    HW277833  10.853   3.177   6.536
58646SOL     OW77834   9.435   8.601   5.949
58646SOL    HW177835   9.345   8.570   5.938
58646SOL    HW277836   9.427   8.696   5.953
58647SOL     OW77837   0.653   8.453  14.617
58647SOL    HW177838   0.573   8.423  14.659
58647SOL    HW277839   0.653   8.548  14.629
58648SOL     OW77840  13.733  14.708  11.058
58648SOL    HW177841  13.721  14.618  11.089
58648SOL    HW277842  13.734  14.701  10.963
58649SOL     OW77843   2.704  13.582  12.639
58649SOL    HW177844   2.608  13.575  12.637
58649SOL    HW277845   2.732  13.506  12.690
58650SOL     OW77846   3.455   3.917   5.332
58650SOL    HW177847   3.401   3.889   5.259
58650SOL    HW277848   3.543   3.888   5.310
58651SOL     OW77849   3.453   0.410   8.635
58651SOL    HW177850   3.403   0.334   8.604
58651SOL    HW277851   3.515   0.374   8.698
58652SOL     OW77852  11.383   1.068   9.904
58652SOL    HW177853  11.431   1.041   9.825
58652SOL    HW277854  11.334   0.989   9.929
58653SOL     OW77855   6.278   1.426  13.258
58653SOL    HW177856   6.228   1.345  13.247
58653SOL    HW277857   6.298   1.430  13.352
58654SOL     OW77858  10.818   7.010   2.702
58654SOL    HW177859  10.724   7.032   2.702
58654SOL    HW277860  10.838   6.991   2.611
58655SOL     OW77861   1.311   3.028   4.938
58655SOL    HW177862   1.351   2.948   4.904
58655SOL    HW277863   1.363   3.099   4.899
58656SOL     OW77864   8.527   4.472   0.351
58656SOL    HW177865   8.507   4.451   0.443
58656SOL    HW277866   8.622   4.468   0.346
58657SOL     OW77867   4.699   6.166   5.254
58657SOL    HW177868   4.762   6.165   5.326
58657SOL    HW277869   4.727   6.096   5.196
58658SOL     OW77870  11.566   6.685   2.609
58658SOL    HW177871  11.486   6.662   2.656
58658SOL    HW277872  11.606   6.753   2.662
58659SOL     OW77873  12.603   3.700   8.969
58659SOL    HW177874  12.583   3.624   8.915
58659SOL    HW277875  12.566   3.679   9.055
58660SOL     OW77876   1.610   1.728  10.804
58660SOL    HW177877   1.672   1.699  10.870
58660SOL    HW277878   1.665   1.764  10.734
58661SOL     OW77879  10.925   2.000   9.496
58661SOL    HW177880  10.926   2.077   9.552
58661SOL    HW277881  10.929   2.035   9.407
58662SOL     OW77882   6.636   7.320   9.996
58662SOL    HW177883   6.584   7.271  10.060
58662SOL    HW277884   6.682   7.386  10.048
58663SOL     OW77885   7.419   8.704   7.601
58663SOL    HW177886   7.454   8.780   7.555
58663SOL    HW277887   7.475   8.694   7.678
58664SOL     OW77888  14.774  13.301   1.491
58664SOL    HW177889  14.810  13.213   1.487
58664SOL    HW277890  14.703  13.301   1.427
58665SOL     OW77891  12.113   1.600  14.707
58665SOL    HW177892  12.158   1.534  14.759
58665SOL    HW277893  12.077   1.552  14.632
58666SOL     OW77894  12.413  13.966  10.918
58666SOL    HW177895  12.456  14.046  10.947
58666SOL    HW277896  12.331  13.995  10.878
58667SOL     OW77897   4.357   6.079  10.205
58667SOL    HW177898   4.439   6.129  10.207
58667SOL    HW277899   4.360   6.026  10.285
58668SOL     OW77900   0.023  11.178  10.540
58668SOL    HW177901  14.844  11.129  10.606
58668SOL    HW277902   0.115  11.155  10.556
58669SOL     OW77903   9.615   2.320   4.532
58669SOL    HW177904   9.538   2.375   4.549
58669SOL    HW277905   9.687   2.383   4.523
58670SOL     OW77906   6.181  14.590   5.784
58670SOL    HW177907   6.096  14.563   5.819
58670SOL    HW277908   6.209  14.516   5.730
58671SOL     OW77909   9.054   6.462   9.421
58671SOL    HW177910   8.960   6.444   9.427
58671SOL    HW277911   9.085   6.457   9.511
58672SOL     OW77912   4.510  13.809  13.115
58672SOL    HW177913   4.494  13.721  13.081
58672SOL    HW277914   4.423  13.842  13.138
58673SOL     OW77915   4.658  11.514  10.648
58673SOL    HW177916   4.753  11.503  10.660
58673SOL    HW277917   4.646  11.512  10.553
58674SOL     OW77918   8.367   8.261  12.950
58674SOL    HW177919   8.406   8.195  12.893
58674SOL    HW277920   8.417   8.256  13.031
58675SOL     OW77921   4.582   6.885   1.703
58675SOL    HW177922   4.536   6.821   1.757
58675SOL    HW277923   4.652   6.835   1.661
58676SOL     OW77924   5.810  14.323  11.796
58676SOL    HW177925   5.809  14.415  11.823
58676SOL    HW277926   5.890  14.314  11.744
58677SOL     OW77927   9.858   9.767  14.437
58677SOL    HW177928   9.929   9.831  14.439
58677SOL    HW277929   9.797   9.800  14.371
58678SOL     OW77930   8.821  11.582   7.412
58678SOL    HW177931   8.874  11.543   7.343
58678SOL    HW277932   8.779  11.508   7.455
58679SOL     OW77933  13.062   8.029   1.507
58679SOL    HW177934  12.979   8.073   1.490
58679SOL    HW277935  13.049   7.987   1.593
58680SOL     OW77936   3.286   5.286   0.010
58680SOL    HW177937   3.263   5.375   0.039
58680SOL    HW277938   3.288   5.292  14.785
58681SOL     OW77939   0.738   4.787   4.501
58681SOL    HW177940   0.790   4.787   4.582
58681SOL    HW277941   0.798   4.823   4.435
58682SOL     OW77942   0.126   2.321  14.552
58682SOL    HW177943   0.202   2.378  14.558
58682SOL    HW277944   0.147   2.247  14.608
58683SOL     OW77945  14.213   7.745  12.256
58683SOL    HW177946  14.192   7.776  12.344
58683SOL    HW277947  14.174   7.810  12.198
58684SOL     OW77948  13.915   5.940   7.288
58684SOL    HW177949  13.846   5.980   7.234
58684SOL    HW277950  13.949   6.013   7.340
58685SOL     OW77951  11.743   5.181   7.068
58685SOL    HW177952  11.738   5.168   6.973
58685SOL    HW277953  11.753   5.093   7.104
58686SOL     OW77954   4.354   8.280   4.960
58686SOL    HW177955   4.382   8.240   4.878
58686SOL    HW277956   4.410   8.356   4.970
58687SOL     OW77957  10.314  12.951  12.431
58687SOL    HW177958  10.347  12.861  12.431
58687SOL    HW277959  10.307  12.974  12.339
58688SOL     OW77960  11.741   9.015  14.438
58688SOL    HW177961  11.835   9.023  14.422
58688SOL    HW277962  11.709   9.105  14.442
58689SOL     OW77963  12.373   7.340  13.735
58689SOL    HW177964  12.361   7.433  13.752
58689SOL    HW277965  12.284   7.304  13.731
58690SOL     OW77966  12.848   1.989  13.731
58690SOL    HW177967  12.860   1.922  13.799
58690SOL    HW277968  12.757   2.016  13.740
58691SOL     OW77969   9.924   5.245   5.468
58691SOL    HW177970   9.872   5.168   5.492
58691SOL    HW277971   9.862   5.317   5.468
58692SOL     OW77972  12.645   7.691   9.384
58692SOL    HW177973  12.552   7.669   9.394
58692SOL    HW277974  12.656   7.705   9.290
58693SOL     OW77975   9.103   0.678  12.292
58693SOL    HW177976   9.115   0.589  12.259
58693SOL    HW277977   9.138   0.734  12.223
58694SOL     OW77978   3.396   5.085   6.135
58694SOL    HW177979   3.355   5.092   6.049
58694SOL    HW277980   3.340   5.024   6.184
58695SOL     OW77981   3.264   3.260   2.341
58695SOL    HW177982   3.357   3.240   2.334
58695SOL    HW277983   3.262   3.349   2.376
58696SOL     OW77984  14.684   7.942   1.354
58696SOL    HW177985  14.746   7.928   1.282
58696SOL    HW277986  14.604   7.973   1.311
58697SOL     OW77987   1.835   4.980  12.261
58697SOL    HW177988   1.882   4.900  12.285
58697SOL    HW277989   1.825   4.973  12.166
58698SOL     OW77990  13.952  13.587   8.670
58698SOL    HW177991  13.916  13.660   8.720
58698SOL    HW277992  14.036  13.619   8.638
58699SOL     OW77993   8.095   8.615  13.006
58699SOL    HW177994   8.128   8.573  13.085
58699SOL    HW277995   8.097   8.545  12.940
58700SOL     OW77996   8.981  10.056  12.129
58700SOL    HW177997   9.020  10.049  12.042
58700SOL    HW277998   9.057  10.053  12.188
58701SOL     OW77999   6.110  11.128   7.323
58701SOL    HW178000   6.103  11.195   7.255
58701SOL    HW278001   6.077  11.048   7.281
58702SOL     OW78002  14.672  10.598   4.367
58702SOL    HW178003  14.700  10.677   4.413
58702SOL    HW278004  14.722  10.528   4.408
58703SOL     OW78005  11.681   2.083  14.670
58703SOL    HW178006  11.638   2.003  14.638
58703SOL    HW278007  11.617   2.123  14.728
58704SOL     OW78008  10.048  12.912   1.629
58704SOL    HW178009  10.127  12.907   1.574
58704SOL    HW278010  10.071  12.976   1.696
58705SOL     OW78011  13.721   7.025  14.712
58705SOL    HW178012  13.794   6.970  14.683
58705SOL    HW278013  13.707   7.001  14.804
58706SOL     OW78014   5.858   8.501   9.285
58706SOL    HW178015   5.802   8.539   9.353
58706SOL    HW278016   5.798   8.449   9.231
58707SOL     OW78017  11.579  10.451   4.166
58707SOL    HW178018  11.508  10.506   4.133
58707SOL    HW278019  11.555  10.434   4.257
58708SOL     OW78020   9.950   5.910   6.861
58708SOL    HW178021  10.025   5.941   6.913
58708SOL    HW278022   9.931   5.823   6.897
58709SOL     OW78023  14.590   8.662  12.420
58709SOL    HW178024  14.679   8.685  12.449
58709SOL    HW278025  14.557   8.604  12.488
58710SOL     OW78026  14.404  11.472   9.443
58710SOL    HW178027  14.475  11.483   9.507
58710SOL    HW278028  14.325  11.494   9.493
58711SOL     OW78029  12.267   5.272   7.713
58711SOL    HW178030  12.247   5.216   7.788
58711SOL    HW278031  12.202   5.342   7.718
58712SOL     OW78032   6.991   2.475   4.095
58712SOL    HW178033   6.969   2.545   4.034
58712SOL    HW278034   6.911   2.460   4.145
58713SOL     OW78035  13.321   6.775   9.445
58713SOL    HW178036  13.412   6.790   9.472
58713SOL    HW278037  13.301   6.687   9.477
58714SOL     OW78038   4.537  10.084  12.551
58714SOL    HW178039   4.460  10.027  12.551
58714SOL    HW278040   4.504  10.169  12.578
58715SOL     OW78041  11.369   1.925   7.587
58715SOL    HW178042  11.437   1.860   7.607
58715SOL    HW278043  11.296   1.901   7.643
58716SOL     OW78044   4.309   4.339  14.383
58716SOL    HW178045   4.387   4.328  14.439
58716SOL    HW278046   4.305   4.258  14.332
58717SOL     OW78047   9.207   9.648  13.473
58717SOL    HW178048   9.178   9.735  13.445
58717SOL    HW278049   9.303   9.653  13.473
58718SOL     OW78050  13.794   8.271   5.283
58718SOL    HW178051  13.779   8.179   5.259
58718SOL    HW278052  13.712   8.299   5.323
58719SOL     OW78053   8.847  12.563   0.508
58719SOL    HW178054   8.825  12.535   0.419
58719SOL    HW278055   8.764  12.597   0.543
58720SOL     OW78056   4.612  12.345  10.998
58720SOL    HW178057   4.590  12.358  10.906
58720SOL    HW278058   4.650  12.257  11.002
58721SOL     OW78059   7.056   4.204  11.772
58721SOL    HW178060   6.994   4.153  11.720
58721SOL    HW278061   7.140   4.192  11.729
58722SOL     OW78062   4.711   6.040   9.294
58722SOL    HW178063   4.629   6.065   9.251
58722SOL    HW278064   4.739   5.961   9.248
58723SOL     OW78065   8.999  14.103  14.083
58723SOL    HW178066   8.980  14.197  14.091
58723SOL    HW278067   8.934  14.071  14.021
58724SOL     OW78068   4.728   6.705  12.478
58724SOL    HW178069   4.712   6.790  12.519
58724SOL    HW278070   4.683   6.709  12.394
58725SOL     OW78071  10.927  11.048   0.643
58725SOL    HW178072  10.911  11.000   0.724
58725SOL    HW278073  10.983  10.990   0.591
58726SOL     OW78074  11.879  13.315   8.169
58726SOL    HW178075  11.803  13.282   8.218
58726SOL    HW278076  11.952  13.305   8.230
58727SOL     OW78077   9.571   1.112   3.958
58727SOL    HW178078   9.637   1.051   3.992
58727SOL    HW278079   9.612   1.198   3.966
58728SOL     OW78080  14.829   6.100   2.208
58728SOL    HW178081  14.793   6.042   2.141
58728SOL    HW278082  14.861   6.041   2.277
58729SOL     OW78083   2.655   0.726   3.295
58729SOL    HW178084   2.648   0.712   3.389
58729SOL    HW278085   2.649   0.638   3.257
58730SOL     OW78086   1.637   8.135   2.071
58730SOL    HW178087   1.634   8.065   2.136
58730SOL    HW278088   1.716   8.117   2.020
58731SOL     OW78089  13.144   8.662   2.504
58731SOL    HW178090  13.088   8.701   2.437
58731SOL    HW278091  13.208   8.610   2.455
58732SOL     OW78092   9.020   3.096  12.145
58732SOL    HW178093   8.962   3.041  12.198
58732SOL    HW278094   9.083   3.131  12.208
58733SOL     OW78095   5.542   9.785   4.685
58733SOL    HW178096   5.565   9.861   4.738
58733SOL    HW278097   5.540   9.712   4.747
58734SOL     OW78098   8.143  14.493   0.484
58734SOL    HW178099   8.060  14.454   0.457
58734SOL    HW278100   8.190  14.422   0.529
58735SOL     OW78101  12.050   7.552   1.161
58735SOL    HW178102  11.973   7.608   1.167
58735SOL    HW278103  12.016   7.463   1.166
58736SOL     OW78104   6.183   5.927   2.145
58736SOL    HW178105   6.203   5.946   2.053
58736SOL    HW278106   6.175   5.832   2.148
58737SOL     OW78107  12.339   1.258   8.893
58737SOL    HW178108  12.332   1.183   8.951
58737SOL    HW278109  12.303   1.331   8.943
58738SOL     OW78110   1.386   6.599   7.749
58738SOL    HW178111   1.349   6.510   7.750
58738SOL    HW278112   1.319   6.652   7.705
58739SOL     OW78113   9.160   8.428   5.291
58739SOL    HW178114   9.084   8.476   5.259
58739SOL    HW278115   9.123   8.354   5.339
58740SOL     OW78116  13.212   3.737  11.222
58740SOL    HW178117  13.143   3.752  11.157
58740SOL    HW278118  13.165   3.708  11.300
58741SOL     OW78119  11.802  14.414   8.522
58741SOL    HW178120  11.870  14.351   8.546
58741SOL    HW278121  11.778  14.456   8.604
58742SOL     OW78122   9.011   5.494   0.102
58742SOL    HW178123   8.924   5.455   0.109
58742SOL    HW278124   9.064   5.426   0.059
58743SOL     OW78125   3.318  12.922   2.797
58743SOL    HW178126   3.272  12.852   2.751
58743SOL    HW278127   3.252  12.988   2.815
58744SOL     OW78128   1.094  11.323   3.195
58744SOL    HW178129   1.087  11.365   3.109
58744SOL    HW278130   1.014  11.270   3.202
58745SOL     OW78131   8.305  10.405   8.520
58745SOL    HW178132   8.367  10.332   8.517
58745SOL    HW278133   8.308  10.436   8.610
58746SOL     OW78134   1.274   1.865   4.272
58746SOL    HW178135   1.312   1.824   4.350
58746SOL    HW278136   1.346   1.867   4.209
58747SOL     OW78137   8.218   1.592  12.161
58747SOL    HW178138   8.190   1.507  12.193
58747SOL    HW278139   8.304   1.606  12.201
58748SOL     OW78140   4.759  12.490  12.357
58748SOL    HW178141   4.798  12.409  12.390
58748SOL    HW278142   4.761  12.481  12.262
58749SOL     OW78143  12.668  11.419   8.347
58749SOL    HW178144  12.679  11.347   8.284
58749SOL    HW278145  12.644  11.377   8.429
58750SOL     OW78146   4.098   0.926   6.720
58750SOL    HW178147   4.003   0.928   6.708
58750SOL    HW278148   4.132   0.905   6.634
58751SOL     OW78149   9.694   5.155   7.028
58751SOL    HW178150   9.720   5.232   6.977
58751SOL    HW278151   9.773   5.129   7.075
58752SOL     OW78152   6.513   7.218   0.526
58752SOL    HW178153   6.510   7.156   0.598
58752SOL    HW278154   6.427   7.211   0.484
58753SOL     OW78155  11.095  11.865   6.414
58753SOL    HW178156  11.072  11.942   6.467
58753SOL    HW278157  11.054  11.882   6.329
58754SOL     OW78158  11.355   9.489   7.179
58754SOL    HW178159  11.404   9.545   7.119
58754SOL    HW278160  11.397   9.502   7.264
58755SOL     OW78161   0.693   6.455   6.224
58755SOL    HW178162   0.743   6.374   6.215
58755SOL    HW278163   0.606   6.433   6.188
58756SOL     OW78164   4.175   4.350  13.816
58756SOL    HW178165   4.193   4.338  13.909
58756SOL    HW278166   4.195   4.443  13.800
58757SOL     OW78167   2.835   4.456   4.378
58757SOL    HW178168   2.879   4.538   4.353
58757SOL    HW278169   2.816   4.467   4.471
58758SOL     OW78170   4.434  14.498   3.311
58758SOL    HW178171   4.376  14.494   3.236
58758SOL    HW278172   4.375  14.503   3.387
58759SOL     OW78173   1.494   2.523   5.432
58759SOL    HW178174   1.564   2.469   5.468
58759SOL    HW278175   1.433   2.460   5.393
58760SOL     OW78176  11.096   4.918   3.008
58760SOL    HW178177  11.109   4.901   3.101
58760SOL    HW278178  11.146   4.998   2.991
58761SOL     OW78179  11.641  12.511   8.191
58761SOL    HW178180  11.722  12.531   8.143
58761SOL    HW278181  11.664  12.436   8.246
58762SOL     OW78182  11.081   0.188   0.865
58762SOL    HW178183  11.002   0.167   0.817
58762SOL    HW278184  11.139   0.228   0.800
58763SOL     OW78185   2.747   7.916   4.625
58763SOL    HW178186   2.754   7.854   4.552
58763SOL    HW278187   2.837   7.929   4.654
58764SOL     OW78188   7.979   6.065   4.052
58764SOL    HW178189   7.946   6.107   4.132
58764SOL    HW278190   8.034   6.131   4.012
58765SOL     OW78191   5.411   7.489  13.639
58765SOL    HW178192   5.316   7.495  13.630
58765SOL    HW278193   5.436   7.415  13.584
58766SOL     OW78194  12.020   9.844  14.027
58766SOL    HW178195  12.107   9.878  14.048
58766SOL    HW278196  12.036   9.760  13.985
58767SOL     OW78197  12.787  14.813   2.789
58767SOL    HW178198  12.818  14.834   2.877
58767SOL    HW278199  12.793  14.717   2.783
58768SOL     OW78200   6.475   3.746   5.882
58768SOL    HW178201   6.477   3.835   5.917
58768SOL    HW278202   6.566   3.718   5.884
58769SOL     OW78203   3.128   2.987  12.589
58769SOL    HW178204   3.154   2.985  12.497
58769SOL    HW278205   3.150   2.900  12.622
58770SOL     OW78206  14.319  10.867  11.761
58770SOL    HW178207  14.262  10.921  11.706
58770SOL    HW278208  14.297  10.777  11.737
58771SOL     OW78209   8.161  14.645   5.289
58771SOL    HW178210   8.138  14.671   5.378
58771SOL    HW278211   8.253  14.620   5.295
58772SOL     OW78212  10.511  12.501   9.592
58772SOL    HW178213  10.463  12.568   9.640
58772SOL    HW278214  10.473  12.418   9.620
58773SOL     OW78215   1.711   0.181  12.761
58773SOL    HW178216   1.645   0.167  12.830
58773SOL    HW278217   1.683   0.261  12.716
58774SOL     OW78218   9.239   2.462   8.120
58774SOL    HW178219   9.157   2.424   8.153
58774SOL    HW278220   9.267   2.522   8.189
58775SOL     OW78221   2.223   8.575   7.559
58775SOL    HW178222   2.283   8.647   7.537
58775SOL    HW278223   2.215   8.524   7.479
58776SOL     OW78224   4.551  10.647  10.048
58776SOL    HW178225   4.526  10.572  10.103
58776SOL    HW278226   4.608  10.609   9.981
58777SOL     OW78227   5.869  14.139   9.244
58777SOL    HW178228   5.845  14.047   9.251
58777SOL    HW278229   5.925  14.155   9.320
58778SOL     OW78230  13.256  13.154   2.173
58778SOL    HW178231  13.334  13.167   2.228
58778SOL    HW278232  13.270  13.070   2.130
58779SOL     OW78233  12.373   2.063   3.302
58779SOL    HW178234  12.447   2.044   3.361
58779SOL    HW278235  12.409   2.122   3.237
58780SOL     OW78236   1.359   1.155   5.576
58780SOL    HW178237   1.283   1.151   5.518
58780SOL    HW278238   1.435   1.158   5.517
58781SOL     OW78239  12.308   4.266   6.725
58781SOL    HW178240  12.314   4.171   6.737
58781SOL    HW278241  12.397   4.297   6.742
58782SOL     OW78242  12.165  11.244  10.412
58782SOL    HW178243  12.117  11.307  10.465
58782SOL    HW278244  12.156  11.275  10.322
58783SOL     OW78245  11.549   7.284  11.910
58783SOL    HW178246  11.546   7.239  11.994
58783SOL    HW278247  11.544   7.215  11.845
58784SOL     OW78248   9.177   8.228   6.167
58784SOL    HW178249   9.182   8.142   6.210
58784SOL    HW278250   9.250   8.278   6.203
58785SOL     OW78251   0.517   3.773  11.260
58785SOL    HW178252   0.552   3.786  11.172
58785SOL    HW278253   0.443   3.834  11.265
58786SOL     OW78254  12.407   3.638   2.287
58786SOL    HW178255  12.412   3.591   2.370
58786SOL    HW278256  12.338   3.703   2.301
58787SOL     OW78257   8.528  12.843  14.641
58787SOL    HW178258   8.591  12.882  14.701
58787SOL    HW278259   8.477  12.917  14.608
58788SOL     OW78260  12.166   5.199   3.985
58788SOL    HW178261  12.197   5.156   3.905
58788SOL    HW278262  12.155   5.290   3.960
58789SOL     OW78263   0.504  13.500  12.275
58789SOL    HW178264   0.523  13.539  12.190
58789SOL    HW278265   0.567  13.541  12.335
58790SOL     OW78266   8.448  13.401   0.033
58790SOL    HW178267   8.446  13.333  14.835
58790SOL    HW278268   8.453  13.483  14.853
58791SOL     OW78269  11.793  11.808   6.499
58791SOL    HW178270  11.801  11.899   6.472
58791SOL    HW278271  11.797  11.757   6.418
58792SOL     OW78272   9.014  14.843   1.652
58792SOL    HW178273   8.955   0.044   1.677
58792SOL    HW278274   9.089  14.852   1.710
58793SOL     OW78275   9.573  10.201  11.912
58793SOL    HW178276   9.567  10.296  11.902
58793SOL    HW278277   9.581  10.188  12.007
58794SOL     OW78278   7.534   5.187   3.583
58794SOL    HW178279   7.588   5.239   3.523
58794SOL    HW278280   7.554   5.096   3.561
58795SOL     OW78281   8.151  13.018  14.174
58795SOL    HW178282   8.214  12.992  14.242
58795SOL    HW278283   8.115  12.935  14.143
58796SOL     OW78284   1.208   5.825   9.361
58796SOL    HW178285   1.129   5.839   9.307
58796SOL    HW278286   1.276   5.802   9.298
58797SOL     OW78287   0.616  12.219   9.251
58797SOL    HW178288   0.647  12.135   9.284
58797SOL    HW278289   0.637  12.281   9.321
58798SOL     OW78290   3.365   5.525   6.604
58798SOL    HW178291   3.423   5.467   6.555
58798SOL    HW278292   3.280   5.518   6.560
58799SOL     OW78293   4.106  14.687   2.575
58799SOL    HW178294   4.171  14.685   2.645
58799SOL    HW278295   4.047  14.614   2.595
58800SOL     OW78296   0.827   6.779   4.353
58800SOL    HW178297   0.918   6.791   4.327
58800SOL    HW278298   0.776   6.815   4.280
58801SOL     OW78299   4.110   3.918   4.209
58801SOL    HW178300   4.197   3.940   4.177
58801SOL    HW278301   4.086   3.992   4.265
58802SOL     OW78302   5.737   2.799  12.934
58802SOL    HW178303   5.786   2.859  12.877
58802SOL    HW278304   5.694   2.739  12.873
58803SOL     OW78305  11.181   2.960   4.759
58803SOL    HW178306  11.115   2.898   4.790
58803SOL    HW278307  11.165   3.040   4.810
58804SOL     OW78308  13.068   5.209  13.401
58804SOL    HW178309  13.109   5.124  13.417
58804SOL    HW278310  13.126   5.273  13.442
58805SOL     OW78311  12.417   5.747   1.084
58805SOL    HW178312  12.408   5.697   1.165
58805SOL    HW278313  12.361   5.824   1.096
58806SOL     OW78314   1.527   5.198   6.035
58806SOL    HW178315   1.456   5.166   5.980
58806SOL    HW278316   1.547   5.285   6.000
58807SOL     OW78317  12.173   4.057   7.643
58807SOL    HW178318  12.201   4.074   7.553
58807SOL    HW278319  12.135   4.140   7.673
58808SOL     OW78320   0.834   7.068   7.318
58808SOL    HW178321   0.764   7.021   7.273
58808SOL    HW278322   0.816   7.161   7.301
58809SOL     OW78323   9.394   0.956   0.037
58809SOL    HW178324   9.303   0.936   0.058
58809SOL    HW278325   9.423   1.014   0.107
58810SOL     OW78326   4.205  14.495  13.471
58810SOL    HW178327   4.276  14.557  13.452
58810SOL    HW278328   4.178  14.516  13.560
58811SOL     OW78329  11.330   1.342  11.864
58811SOL    HW178330  11.336   1.327  11.770
58811SOL    HW278331  11.261   1.407  11.874
58812SOL     OW78332  11.137   2.746  13.760
58812SOL    HW178333  11.088   2.828  13.765
58812SOL    HW278334  11.222   2.771  13.723
58813SOL     OW78335   5.554   6.395  12.915
58813SOL    HW178336   5.481   6.443  12.875
58813SOL    HW278337   5.538   6.401  13.009
58814SOL     OW78338   4.860   7.287  10.340
58814SOL    HW178339   4.829   7.243  10.419
58814SOL    HW278340   4.897   7.369  10.371
58815SOL     OW78341   8.527   3.235  11.508
58815SOL    HW178342   8.518   3.222  11.602
58815SOL    HW278343   8.439   3.258  11.478
58816SOL     OW78344  11.972   5.069   0.847
58816SOL    HW178345  11.952   5.012   0.921
58816SOL    HW278346  12.015   5.145   0.887
58817SOL     OW78347  11.915   0.702  14.060
58817SOL    HW178348  11.949   0.700  13.970
58817SOL    HW278349  11.870   0.618  14.070
58818SOL     OW78350  13.479   6.747   5.236
58818SOL    HW178351  13.548   6.710   5.290
58818SOL    HW278352  13.439   6.672   5.193
58819SOL     OW78353   6.309   3.604   9.199
58819SOL    HW178354   6.324   3.623   9.292
58819SOL    HW278355   6.391   3.627   9.156
58820SOL     OW78356   3.700   8.397  12.221
58820SOL    HW178357   3.624   8.441  12.259
58820SOL    HW278358   3.757   8.379  12.296
58821SOL     OW78359   0.617   1.532   0.431
58821SOL    HW178360   0.648   1.522   0.341
58821SOL    HW278361   0.589   1.623   0.437
58822SOL     OW78362   6.137  11.884   7.684
58822SOL    HW178363   6.175  11.954   7.737
58822SOL    HW278364   6.193  11.878   7.607
58823SOL     OW78365   0.194   7.503   8.743
58823SOL    HW178366   0.111   7.496   8.697
58823SOL    HW278367   0.256   7.452   8.689
58824SOL     OW78368   9.736   7.150   8.571
58824SOL    HW178369   9.706   7.218   8.631
58824SOL    HW278370   9.719   7.068   8.617
58825SOL     OW78371  11.150   9.933   1.763
58825SOL    HW178372  11.083   9.959   1.827
58825SOL    HW278373  11.225   9.989   1.783
58826SOL     OW78374   4.470  11.971   8.641
58826SOL    HW178375   4.458  11.891   8.590
58826SOL    HW278376   4.486  11.941   8.730
58827SOL     OW78377   4.583   3.701   8.714
58827SOL    HW178378   4.633   3.722   8.794
58827SOL    HW278379   4.623   3.755   8.646
58828SOL     OW78380  11.496   2.658   5.989
58828SOL    HW178381  11.523   2.706   6.068
58828SOL    HW278382  11.568   2.597   5.973
58829SOL     OW78383  12.345   9.877   0.308
58829SOL    HW178384  12.436   9.851   0.323
58829SOL    HW278385  12.316   9.912   0.392
58830SOL     OW78386   8.246  12.786   1.652
58830SOL    HW178387   8.205  12.841   1.718
58830SOL    HW278388   8.334  12.822   1.640
58831SOL     OW78389  14.389   7.963  14.383
58831SOL    HW178390  14.463   8.018  14.410
58831SOL    HW278391  14.385   7.894  14.450
58832SOL     OW78392   6.621   9.531   3.520
58832SOL    HW178393   6.708   9.571   3.530
58832SOL    HW278394   6.599   9.498   3.607
58833SOL     OW78395   1.064   2.219   4.673
58833SOL    HW178396   1.089   2.183   4.588
58833SOL    HW278397   0.969   2.207   4.677
58834SOL     OW78398   3.809   2.891  11.809
58834SOL    HW178399   3.832   2.888  11.716
58834SOL    HW278400   3.834   2.805  11.843
58835SOL     OW78401   6.763   5.825   0.662
58835SOL    HW178402   6.800   5.868   0.740
58835SOL    HW278403   6.711   5.753   0.697
58836SOL     OW78404  10.969  13.030   7.634
58836SOL    HW178405  10.981  13.095   7.564
58836SOL    HW278406  11.021  13.064   7.707
58837SOL     OW78407   6.310   1.111  13.497
58837SOL    HW178408   6.224   1.121  13.538
58837SOL    HW278409   6.372   1.123  13.569
58838SOL     OW78410   2.341   5.924   5.457
58838SOL    HW178411   2.280   5.913   5.384
58838SOL    HW278412   2.366   5.836   5.482
58839SOL     OW78413  11.360   2.005   0.995
58839SOL    HW178414  11.343   1.925   0.945
58839SOL    HW278415  11.328   2.076   0.938
58840SOL     OW78416   0.376   0.730   7.790
58840SOL    HW178417   0.417   0.666   7.732
58840SOL    HW278418   0.438   0.803   7.793
58841SOL     OW78419   0.365   8.903   5.055
58841SOL    HW178420   0.291   8.953   5.090
58841SOL    HW278421   0.398   8.957   4.982
58842SOL     OW78422   0.206  14.149   3.589
58842SOL    HW178423   0.182  14.113   3.503
58842SOL    HW278424   0.243  14.235   3.570
58843SOL     OW78425  14.323   9.602  10.310
58843SOL    HW178426  14.290   9.634  10.394
58843SOL    HW278427  14.396   9.544  10.333
58844SOL     OW78428  10.760  14.834   3.582
58844SOL    HW178429  10.667  14.853   3.568
58844SOL    HW278430  10.806   0.041   3.547
58845SOL     OW78431   9.272   7.346   1.127
58845SOL    HW178432   9.363   7.370   1.146
58845SOL    HW278433   9.278   7.277   1.061
58846SOL     OW78434   0.118  14.732   8.877
58846SOL    HW178435   0.102  14.802   8.813
58846SOL    HW278436   0.036  14.683   8.880
58847SOL     OW78437   6.960  10.742   0.912
58847SOL    HW178438   6.970  10.655   0.951
58847SOL    HW278439   7.032  10.748   0.849
58848SOL     OW78440   5.824   6.361  10.940
58848SOL    HW178441   5.897   6.386  10.884
58848SOL    HW278442   5.754   6.424  10.918
58849SOL     OW78443   2.614   7.656   8.785
58849SOL    HW178444   2.546   7.658   8.718
58849SOL    HW278445   2.607   7.568   8.824
58850SOL     OW78446   6.078   0.542  10.569
58850SOL    HW178447   6.077   0.637  10.553
58850SOL    HW278448   6.133   0.506  10.500
58851SOL     OW78449   3.668   8.402   3.208
58851SOL    HW178450   3.592   8.346   3.192
58851SOL    HW278451   3.741   8.356   3.166
58852SOL     OW78452  10.442   5.718   7.314
58852SOL    HW178453  10.434   5.799   7.363
58852SOL    HW278454  10.473   5.654   7.379
58853SOL     OW78455   4.900   8.205   7.373
58853SOL    HW178456   4.818   8.156   7.383
58853SOL    HW278457   4.927   8.224   7.463
58854SOL     OW78458   0.278   1.553   9.448
58854SOL    HW178459   0.299   1.504   9.527
58854SOL    HW278460   0.356   1.544   9.392
58855SOL     OW78461  10.367   4.197   3.889
58855SOL    HW178462  10.363   4.209   3.984
58855SOL    HW278463  10.278   4.214   3.858
58856SOL     OW78464   5.445  10.558  10.586
58856SOL    HW178465   5.370  10.510  10.623
58856SOL    HW278466   5.435  10.548  10.491
58857SOL     OW78467   4.270   5.834   0.197
58857SOL    HW178468   4.253   5.834   0.291
58857SOL    HW278469   4.202   5.778   0.160
58858SOL     OW78470   6.701   4.136  12.889
58858SOL    HW178471   6.796   4.140  12.883
58858SOL    HW278472   6.671   4.205  12.830
58859SOL     OW78473   2.184  12.928   6.805
58859SOL    HW178474   2.239  12.943   6.882
58859SOL    HW278475   2.202  12.837   6.782
58860SOL     OW78476   3.975   7.462   9.346
58860SOL    HW178477   3.913   7.524   9.307
58860SOL    HW278478   4.025   7.428   9.272
58861SOL     OW78479  14.434   0.403   6.351
58861SOL    HW178480  14.440   0.311   6.326
58861SOL    HW278481  14.521   0.425   6.384
58862SOL     OW78482   3.672   9.223   8.951
58862SOL    HW178483   3.696   9.134   8.979
58862SOL    HW278484   3.748   9.253   8.901
58863SOL     OW78485   0.426  13.451   4.944
58863SOL    HW178486   0.499  13.472   5.002
58863SOL    HW278487   0.442  13.505   4.866
58864SOL     OW78488   8.636   7.174  13.907
58864SOL    HW178489   8.571   7.224  13.857
58864SOL    HW278490   8.587   7.101  13.944
58865SOL     OW78491   2.815   2.133  13.384
58865SOL    HW178492   2.879   2.062  13.374
58865SOL    HW278493   2.862   2.211  13.355
58866SOL     OW78494  14.555  13.233  11.494
58866SOL    HW178495  14.488  13.170  11.518
58866SOL    HW278496  14.537  13.310  11.547
58867SOL     OW78497  14.529   9.051   5.086
58867SOL    HW178498  14.586   9.111   5.038
58867SOL    HW278499  14.550   9.067   5.178
58868SOL     OW78500  14.574  10.185   0.950
58868SOL    HW178501  14.584  10.105   1.000
58868SOL    HW278502  14.577  10.255   1.016
58869SOL     OW78503   6.301   7.488   3.467
58869SOL    HW178504   6.211   7.466   3.491
58869SOL    HW278505   6.304   7.583   3.466
58870SOL     OW78506   7.513  10.322  13.775
58870SOL    HW178507   7.479  10.393  13.829
58870SOL    HW278508   7.586  10.361  13.727
58871SOL     OW78509   0.991   3.853   6.040
58871SOL    HW178510   1.039   3.934   6.026
58871SOL    HW278511   0.966   3.856   6.133
58872SOL     OW78512   9.829   3.475   9.077
58872SOL    HW178513   9.843   3.443   9.166
58872SOL    HW278514   9.831   3.396   9.023
58873SOL     OW78515   2.050   0.198   2.048
58873SOL    HW178516   2.105   0.272   2.023
58873SOL    HW278517   1.998   0.230   2.121
58874SOL     OW78518  13.180  13.350  14.154
58874SOL    HW178519  13.256  13.406  14.170
58874SOL    HW278520  13.187  13.280  14.219
58875SOL     OW78521   2.653  11.559   2.598
58875SOL    HW178522   2.594  11.550   2.672
58875SOL    HW278523   2.639  11.479   2.547
58876SOL     OW78524   5.192   1.683   7.400
58876SOL    HW178525   5.278   1.726   7.395
58876SOL    HW278526   5.170   1.685   7.493
58877SOL     OW78527   8.959  10.536   3.220
58877SOL    HW178528   9.018  10.551   3.294
58877SOL    HW278529   8.924  10.448   3.234
58878SOL     OW78530   1.523  14.243   9.168
58878SOL    HW178531   1.594  14.186   9.197
58878SOL    HW278532   1.444  14.205   9.206
58879SOL     OW78533   1.074   4.041  12.233
58879SOL    HW178534   1.107   3.966  12.183
58879SOL    HW278535   1.135   4.112  12.212
58880SOL     OW78536   7.590   3.288   5.422
58880SOL    HW178537   7.503   3.254   5.443
58880SOL    HW278538   7.612   3.346   5.495
58881SOL     OW78539   0.838   5.363   0.795
58881SOL    HW178540   0.769   5.370   0.728
58881SOL    HW278541   0.868   5.272   0.790
58882SOL     OW78542  14.398   8.773   1.760
58882SOL    HW178543  14.314   8.737   1.787
58882SOL    HW278544  14.458   8.698   1.764
58883SOL     OW78545   0.940   1.705   0.415
58883SOL    HW178546   0.889   1.657   0.480
58883SOL    HW278547   1.018   1.650   0.401
58884SOL     OW78548  12.474  14.324  11.684
58884SOL    HW178549  12.434  14.275  11.611
58884SOL    HW278550  12.457  14.416  11.663
58885SOL     OW78551  11.981   0.911  13.836
58885SOL    HW178552  12.004   0.865  13.755
58885SOL    HW278553  11.897   0.951  13.817
58886SOL     OW78554  12.947  13.232  10.247
58886SOL    HW178555  13.004  13.248  10.172
58886SOL    HW278556  12.986  13.283  10.318
58887SOL     OW78557   8.943   0.115   5.170
58887SOL    HW178558   8.894   0.181   5.122
58887SOL    HW278559   8.893   0.035   5.160
58888SOL     OW78560   3.210  14.313  11.321
58888SOL    HW178561   3.227  14.270  11.238
58888SOL    HW278562   3.137  14.263  11.359
58889SOL     OW78563   9.858  12.956   5.187
58889SOL    HW178564   9.863  12.876   5.239
58889SOL    HW278565   9.922  13.016   5.226
58890SOL     OW78566   8.577   7.935   8.029
58890SOL    HW178567   8.626   7.860   8.065
58890SOL    HW278568   8.552   7.986   8.106
58891SOL     OW78569  11.741   7.783   1.758
58891SOL    HW178570  11.794   7.704   1.747
58891SOL    HW278571  11.742   7.825   1.672
58892SOL     OW78572   9.333   9.238  11.524
58892SOL    HW178573   9.416   9.234  11.477
58892SOL    HW278574   9.272   9.188  11.469
58893SOL     OW78575  12.565   9.148   8.625
58893SOL    HW178576  12.473   9.124   8.613
58893SOL    HW278577  12.614   9.077   8.584
58894SOL     OW78578  10.584   7.078   5.051
58894SOL    HW178579  10.605   7.143   4.984
58894SOL    HW278580  10.668   7.039   5.074
58895SOL     OW78581   2.600   9.724   1.149
58895SOL    HW178582   2.585   9.637   1.113
58895SOL    HW278583   2.533   9.780   1.109
58896SOL     OW78584  13.399   1.935   0.224
58896SOL    HW178585  13.490   1.962   0.231
58896SOL    HW278586  13.402   1.846   0.189
58897SOL     OW78587   3.137   0.884   5.776
58897SOL    HW178588   3.107   0.974   5.768
58897SOL    HW278589   3.082   0.846   5.845
58898SOL     OW78590   3.569  10.676   3.930
58898SOL    HW178591   3.614  10.630   4.001
58898SOL    HW278592   3.546  10.761   3.967
58899SOL     OW78593   6.253  11.260   8.370
58899SOL    HW178594   6.338  11.244   8.329
58899SOL    HW278595   6.268  11.246   8.463
58900SOL     OW78596   8.723  11.086   5.743
58900SOL    HW178597   8.714  10.992   5.730
58900SOL    HW278598   8.728  11.122   5.654
58901SOL     OW78599   6.393  11.009   3.697
58901SOL    HW178600   6.392  11.021   3.792
58901SOL    HW278601   6.333  11.075   3.663
58902SOL     OW78602   0.083   9.331   3.307
58902SOL    HW178603   0.025   9.372   3.242
58902SOL    HW278604   0.074   9.237   3.290
58903SOL     OW78605   5.274   6.236   9.491
58903SOL    HW178606   5.257   6.191   9.573
58903SOL    HW278607   5.188   6.267   9.462
58904SOL     OW78608  11.134   8.689   7.268
58904SOL    HW178609  11.190   8.640   7.208
58904SOL    HW278610  11.163   8.780   7.258
58905SOL     OW78611   7.592  10.060   2.036
58905SOL    HW178612   7.590  10.156   2.042
58905SOL    HW278613   7.646  10.042   1.959
58906SOL     OW78614  11.984   0.420  12.033
58906SOL    HW178615  11.958   0.333  12.061
58906SOL    HW278616  12.035   0.455  12.106
58907SOL     OW78617   7.139   9.785   6.256
58907SOL    HW178618   7.206   9.717   6.262
58907SOL    HW278619   7.131   9.802   6.162
58908SOL     OW78620   2.565   9.789   2.611
58908SOL    HW178621   2.511   9.797   2.532
58908SOL    HW278622   2.556   9.698   2.637
58909SOL     OW78623   3.298   9.159  13.215
58909SOL    HW178624   3.332   9.246  13.194
58909SOL    HW278625   3.227   9.145  13.152
58910SOL     OW78626   2.596   0.172  13.059
58910SOL    HW178627   2.554   0.234  13.119
58910SOL    HW278628   2.550   0.089  13.073
58911SOL     OW78629   5.539   6.034  13.166
58911SOL    HW178630   5.630   6.051  13.140
58911SOL    HW278631   5.530   5.939  13.160
58912SOL     OW78632   0.528  14.280  10.455
58912SOL    HW178633   0.607  14.301  10.405
58912SOL    HW278634   0.538  14.329  10.536
58913SOL     OW78635   1.803   8.739   5.412
58913SOL    HW178636   1.804   8.659   5.465
58913SOL    HW278637   1.781   8.708   5.324
58914SOL     OW78638   3.061  10.977   5.228
58914SOL    HW178639   3.149  10.943   5.208
58914SOL    HW278640   3.073  11.030   5.306
58915SOL     OW78641   1.402   3.979   9.409
58915SOL    HW178642   1.462   3.905   9.410
58915SOL    HW278643   1.413   4.018   9.323
58916SOL     OW78644  14.433  10.392  14.114
58916SOL    HW178645  14.470  10.462  14.168
58916SOL    HW278646  14.356  10.363  14.162
58917SOL     OW78647   2.164  10.715  13.707
58917SOL    HW178648   2.099  10.680  13.767
58917SOL    HW278649   2.147  10.670  13.624
58918SOL     OW78650   2.362   6.944  14.223
58918SOL    HW178651   2.267   6.952  14.228
58918SOL    HW278652   2.395   7.001  14.292
58919SOL     OW78653   4.450   3.220   9.397
58919SOL    HW178654   4.459   3.245   9.489
58919SOL    HW278655   4.415   3.131   9.399
58920SOL     OW78656  12.118  12.726  14.450
58920SOL    HW178657  12.060  12.703  14.522
58920SOL    HW278658  12.079  12.686  14.373
58921SOL     OW78659  14.254   8.391   1.927
58921SOL    HW178660  14.218   8.444   1.856
58921SOL    HW278661  14.179   8.344   1.963
58922SOL     OW78662   3.853   5.252  12.300
58922SOL    HW178663   3.914   5.180  12.286
58922SOL    HW278664   3.882   5.294  12.381
58923SOL     OW78665   7.303   3.266  10.250
58923SOL    HW178666   7.308   3.271  10.346
58923SOL    HW278667   7.258   3.345  10.224
58924SOL     OW78668   0.954  12.733   7.863
58924SOL    HW178669   0.871  12.693   7.835
58924SOL    HW278670   0.992  12.766   7.782
58925SOL     OW78671  14.407   3.504   4.136
58925SOL    HW178672  14.466   3.535   4.068
58925SOL    HW278673  14.372   3.584   4.175
58926SOL     OW78674  12.934   9.381   1.108
58926SOL    HW178675  12.898   9.332   1.035
58926SOL    HW278676  12.899   9.337   1.186
58927SOL     OW78677   7.253   4.156   8.127
58927SOL    HW178678   7.185   4.218   8.151
58927SOL    HW278679   7.322   4.169   8.192
58928SOL     OW78680   8.328   3.763   1.288
58928SOL    HW178681   8.290   3.687   1.332
58928SOL    HW278682   8.423   3.752   1.299
58929SOL     OW78683  11.834   6.979   5.692
58929SOL    HW178684  11.862   6.908   5.633
58929SOL    HW278685  11.839   7.058   5.639
58930SOL     OW78686   5.047   0.734   5.333
58930SOL    HW178687   5.137   0.766   5.325
58930SOL    HW278688   5.035   0.676   5.258
58931SOL     OW78689  11.411   2.626   1.295
58931SOL    HW178690  11.485   2.567   1.308
58931SOL    HW278691  11.413   2.685   1.370
58932SOL     OW78692   0.945   8.055   0.320
58932SOL    HW178693   0.883   8.025   0.254
58932SOL    HW278694   0.963   8.146   0.297
58933SOL     OW78695  10.118   0.304   0.700
58933SOL    HW178696  10.114   0.306   0.605
58933SOL    HW278697  10.172   0.380   0.723
58934SOL     OW78698   4.336  14.423  10.198
58934SOL    HW178699   4.432  14.425  10.201
58934SOL    HW278700   4.315  14.376  10.117
58935SOL     OW78701   0.384  11.227  12.819
58935SOL    HW178702   0.342  11.297  12.869
58935SOL    HW278703   0.317  11.199  12.756
58936SOL     OW78704  11.479  13.556   9.003
58936SOL    HW178705  11.472  13.649   9.025
58936SOL    HW278706  11.510  13.514   9.083
58937SOL     OW78707   7.726   9.044   3.332
58937SOL    HW178708   7.752   9.136   3.344
58937SOL    HW278709   7.790   8.995   3.383
58938SOL     OW78710   6.485  13.293   3.776
58938SOL    HW178711   6.558  13.297   3.714
58938SOL    HW278712   6.409  13.273   3.723
58939SOL     OW78713   6.413   4.820  12.181
58939SOL    HW178714   6.495   4.781  12.213
58939SOL    HW278715   6.344   4.773  12.228
58940SOL     OW78716  13.732   2.956   7.640
58940SOL    HW178717  13.812   2.915   7.609
58940SOL    HW278718  13.735   2.946   7.735
58941SOL     OW78719  14.293   1.107   7.693
58941SOL    HW178720  14.299   1.012   7.701
58941SOL    HW278721  14.379   1.139   7.720
58942SOL     OW78722   2.269  13.288   0.441
58942SOL    HW178723   2.231  13.237   0.370
58942SOL    HW278724   2.322  13.354   0.396
58943SOL     OW78725   9.041   3.354   4.461
58943SOL    HW178726   8.970   3.290   4.450
58943SOL    HW278727   9.056   3.357   4.556
58944SOL     OW78728   6.074  10.092   3.157
58944SOL    HW178729   6.159  10.112   3.118
58944SOL    HW278730   6.088  10.010   3.204
58945SOL     OW78731   8.507  14.609   3.696
58945SOL    HW178732   8.562  14.533   3.713
58945SOL    HW278733   8.526  14.670   3.768
58946SOL     OW78734  13.895   1.157   5.303
58946SOL    HW178735  13.961   1.132   5.368
58946SOL    HW278736  13.821   1.188   5.355
58947SOL     OW78737  14.681   5.436  14.539
58947SOL    HW178738  14.643   5.459  14.624
58947SOL    HW278739  14.680   5.341  14.538
58948SOL     OW78740   7.763  10.716  10.980
58948SOL    HW178741   7.824  10.790  10.987
58948SOL    HW278742   7.788  10.658  11.052
58949SOL     OW78743  12.854   7.679  12.645
58949SOL    HW178744  12.944   7.708  12.663
58949SOL    HW278745  12.834   7.618  12.717
58950SOL     OW78746   0.467  10.919   3.435
58950SOL    HW178747   0.456  10.824   3.436
58950SOL    HW278748   0.387  10.952   3.395
58951SOL     OW78749  10.821   3.275   8.483
58951SOL    HW178750  10.881   3.318   8.422
58951SOL    HW278751  10.746   3.334   8.488
58952SOL     OW78752  12.960   1.366   5.687
58952SOL    HW178753  12.985   1.435   5.748
58952SOL    HW278754  12.868   1.382   5.669
58953SOL     OW78755  11.551  11.570  11.382
58953SOL    HW178756  11.530  11.629  11.309
58953SOL    HW278757  11.567  11.486  11.340
58954SOL     OW78758  10.750   5.527   2.711
58954SOL    HW178759  10.703   5.467   2.769
58954SOL    HW278760  10.793   5.589   2.771
58955SOL     OW78761  13.405  11.240   7.223
58955SOL    HW178762  13.437  11.173   7.283
58955SOL    HW278763  13.432  11.210   7.136
58956SOL     OW78764   2.980   2.686  11.487
58956SOL    HW178765   3.074   2.700  11.503
58956SOL    HW278766   2.941   2.773  11.501
58957SOL     OW78767   9.457   8.461   9.611
58957SOL    HW178768   9.551   8.444   9.616
58957SOL    HW278769   9.424   8.396   9.550
58958SOL     OW78770  13.077  12.655   5.809
58958SOL    HW178771  13.165  12.693   5.819
58958SOL    HW278772  13.052  12.677   5.719
58959SOL     OW78773  14.640   9.054   4.655
58959SOL    HW178774  14.673   9.088   4.572
58959SOL    HW278775  14.711   9.000   4.689
58960SOL     OW78776   7.567  14.278   3.553
58960SOL    HW178777   7.488  14.330   3.565
58960SOL    HW278778   7.573  14.224   3.631
58961SOL     OW78779  13.508   5.943   6.366
58961SOL    HW178780  13.504   5.932   6.461
58961SOL    HW278781  13.445   6.013   6.348
58962SOL     OW78782   3.957  14.312   5.356
58962SOL    HW178783   3.904  14.390   5.371
58962SOL    HW278784   3.961  14.269   5.442
58963SOL     OW78785   5.295  12.127  11.637
58963SOL    HW178786   5.357  12.198  11.655
58963SOL    HW278787   5.234  12.163  11.573
58964SOL     OW78788  10.732   0.373  13.154
58964SOL    HW178789  10.747   0.300  13.094
58964SOL    HW278790  10.803   0.434  13.137
58965SOL     OW78791   8.967  10.881   4.624
58965SOL    HW178792   9.056  10.873   4.659
58965SOL    HW278793   8.979  10.920   4.538
58966SOL     OW78794   2.787  13.529   7.275
58966SOL    HW178795   2.740  13.573   7.204
58966SOL    HW278796   2.753  13.439   7.275
58967SOL     OW78797  13.265   4.732   6.999
58967SOL    HW178798  13.245   4.671   7.070
58967SOL    HW278799  13.360   4.744   7.004
58968SOL     OW78800   6.273   2.986   9.143
58968SOL    HW178801   6.346   3.044   9.166
58968SOL    HW278802   6.203   3.046   9.115
58969SOL     OW78803  10.719   0.069   5.600
58969SOL    HW178804  10.742   0.012   5.526
58969SOL    HW278805  10.803   0.090   5.641
58970SOL     OW78806  11.458   6.816   6.603
58970SOL    HW178807  11.434   6.837   6.694
58970SOL    HW278808  11.543   6.773   6.611
58971SOL     OW78809   3.733   3.624  14.571
58971SOL    HW178810   3.668   3.669  14.625
58971SOL    HW278811   3.721   3.661  14.484
58972SOL     OW78812   4.771   9.982   1.229
58972SOL    HW178813   4.841  10.041   1.253
58972SOL    HW278814   4.807   9.931   1.156
58973SOL     OW78815   7.900  13.371  11.239
58973SOL    HW178816   7.854  13.337  11.316
58973SOL    HW278817   7.904  13.297  11.178
58974SOL     OW78818   9.845   5.981   2.170
58974SOL    HW178819   9.782   5.914   2.145
58974SOL    HW278820   9.825   6.056   2.114
58975SOL     OW78821   5.308   2.745   6.558
58975SOL    HW178822   5.310   2.839   6.538
58975SOL    HW278823   5.287   2.703   6.475
58976SOL     OW78824  10.943  11.729   7.693
58976SOL    HW178825  10.862  11.702   7.738
58976SOL    HW278826  10.945  11.824   7.704
58977SOL     OW78827  14.780   4.131  13.251
58977SOL    HW178828  14.862   4.089  13.226
58977SOL    HW278829  14.790   4.222  13.225
58978SOL     OW78830  13.534   7.440  10.053
58978SOL    HW178831  13.487   7.459  10.135
58978SOL    HW278832  13.521   7.346  10.040
58979SOL     OW78833   5.898  14.295  11.369
58979SOL    HW178834   5.865  14.225  11.313
58979SOL    HW278835   5.944  14.354  11.308
58980SOL     OW78836   0.522   5.607  13.771
58980SOL    HW178837   0.591   5.624  13.707
58980SOL    HW278838   0.464   5.544  13.728
58981SOL     OW78839   1.829   8.136   1.533
58981SOL    HW178840   1.855   8.227   1.524
58981SOL    HW278841   1.899   8.087   1.490
58982SOL     OW78842  13.653  11.629   6.240
58982SOL    HW178843  13.718  11.698   6.258
58982SOL    HW278844  13.701  11.547   6.255
58983SOL     OW78845   6.990   1.851  13.900
58983SOL    HW178846   6.926   1.904  13.948
58983SOL    HW278847   6.953   1.842  13.813
58984SOL     OW78848   1.182   9.794  10.262
58984SOL    HW178849   1.100   9.843  10.269
58984SOL    HW278850   1.172   9.720  10.321
58985SOL     OW78851   2.289   8.264  13.466
58985SOL    HW178852   2.372   8.249  13.420
58985SOL    HW278853   2.244   8.331  13.414
58986SOL     OW78854  13.961  14.185   4.323
58986SOL    HW178855  13.994  14.249   4.386
58986SOL    HW278856  13.884  14.148   4.364
58987SOL     OW78857   9.822  13.332   0.866
58987SOL    HW178858   9.822  13.237   0.880
58987SOL    HW278859   9.848  13.369   0.950
58988SOL     OW78860   1.738   6.168   3.657
58988SOL    HW178861   1.668   6.147   3.595
58988SOL    HW278862   1.806   6.209   3.603
58989SOL     OW78863   3.453   6.038  10.889
58989SOL    HW178864   3.525   6.007  10.834
58989SOL    HW278865   3.497   6.079  10.964
58990SOL     OW78866   9.772  12.240   1.305
58990SOL    HW178867   9.700  12.233   1.368
58990SOL    HW278868   9.731  12.266   1.223
58991SOL     OW78869   2.939   6.233  11.417
58991SOL    HW178870   2.926   6.210  11.325
58991SOL    HW278871   2.855   6.268  11.446
58992SOL     OW78872   2.675  10.984   5.450
58992SOL    HW178873   2.656  11.064   5.498
58992SOL    HW278874   2.670  11.009   5.357
58993SOL     OW78875   5.894   0.895   6.908
58993SOL    HW178876   5.940   0.855   6.835
58993SOL    HW278877   5.842   0.825   6.946
58994SOL     OW78878   7.235   0.830  13.107
58994SOL    HW178879   7.244   0.923  13.085
58994SOL    HW278880   7.179   0.795  13.037
58995SOL     OW78881  13.601   1.452   5.803
58995SOL    HW178882  13.695   1.467   5.813
58995SOL    HW278883  13.561   1.508   5.869
58996SOL     OW78884   7.676   9.585  13.484
58996SOL    HW178885   7.759   9.632  13.485
58996SOL    HW278886   7.636   9.605  13.569
58997SOL     OW78887   9.941   6.966   5.903
58997SOL    HW178888  10.002   6.913   5.852
58997SOL    HW278889   9.863   6.971   5.849
58998SOL     OW78890   4.733  13.885   8.809
58998SOL    HW178891   4.774  13.798   8.804
58998SOL    HW278892   4.791  13.942   8.759
58999SOL     OW78893  14.383  14.247  13.770
58999SOL    HW178894  14.354  14.264  13.859
58999SOL    HW278895  14.331  14.171  13.742
59000SOL     OW78896  10.355   0.614  12.524
59000SOL    HW178897  10.323   0.608  12.434
59000SOL    HW278898  10.358   0.524  12.555
59001SOL     OW78899   1.508   5.136   7.020
59001SOL    HW178900   1.471   5.101   6.939
59001SOL    HW278901   1.603   5.127   7.010
59002SOL     OW78902  13.177   0.838  12.418
59002SOL    HW178903  13.188   0.925  12.380
59002SOL    HW278904  13.133   0.854  12.502
59003SOL     OW78905   8.710   7.361  13.021
59003SOL    HW178906   8.707   7.269  13.046
59003SOL    HW278907   8.804   7.380  13.011
59004SOL     OW78908   9.884   7.469   3.889
59004SOL    HW178909   9.799   7.505   3.914
59004SOL    HW278910   9.924   7.442   3.972
59005SOL     OW78911   2.220   1.387   2.838
59005SOL    HW178912   2.238   1.314   2.897
59005SOL    HW278913   2.296   1.444   2.845
59006SOL     OW78914   8.947  11.913   9.207
59006SOL    HW178915   8.976  11.898   9.297
59006SOL    HW278916   8.877  11.849   9.193
59007SOL     OW78917  11.315   1.858  14.178
59007SOL    HW178918  11.327   1.950  14.156
59007SOL    HW278919  11.236   1.832  14.130
59008SOL     OW78920   5.062  14.489  13.787
59008SOL    HW178921   5.034  14.397  13.792
59008SOL    HW278922   5.003  14.535  13.847
59009SOL     OW78923  13.403   6.564   5.511
59009SOL    HW178924  13.331   6.583   5.572
59009SOL    HW278925  13.359   6.537   5.430
59010SOL     OW78926  13.785  10.803  13.777
59010SOL    HW178927  13.864  10.753  13.796
59010SOL    HW278928  13.716  10.761  13.828
59011SOL     OW78929  13.557   2.241  13.270
59011SOL    HW178930  13.580   2.198  13.352
59011SOL    HW278931  13.617   2.315  13.265
59012SOL     OW78932   1.048  10.637   7.351
59012SOL    HW178933   1.077  10.580   7.422
59012SOL    HW278934   1.055  10.583   7.272
59013SOL     OW78935   5.014  11.129   0.715
59013SOL    HW178936   4.938  11.076   0.739
59013SOL    HW278937   4.977  11.205   0.670
59014SOL     OW78938  12.988   8.794   0.840
59014SOL    HW178939  13.014   8.702   0.843
59014SOL    HW278940  12.934   8.806   0.919
59015SOL     OW78941   7.645   4.382   4.060
59015SOL    HW178942   7.638   4.383   3.965
59015SOL    HW278943   7.713   4.318   4.079
59016SOL     OW78944   8.654  14.183  10.000
59016SOL    HW178945   8.645  14.168   9.906
59016SOL    HW278946   8.564  14.182  10.033
59017SOL     OW78947   4.232  11.842   8.222
59017SOL    HW178948   4.236  11.842   8.318
59017SOL    HW278949   4.160  11.902   8.202
59018SOL     OW78950   0.787   2.251   5.894
59018SOL    HW178951   0.861   2.205   5.855
59018SOL    HW278952   0.777   2.330   5.841
59019SOL     OW78953   2.226  14.647   1.777
59019SOL    HW178954   2.137  14.610   1.774
59019SOL    HW278955   2.212  14.740   1.790
59020SOL     OW78956   9.670  13.753   4.696
59020SOL    HW178957   9.581  13.717   4.693
59020SOL    HW278958   9.717  13.706   4.628
59021SOL     OW78959   9.180  10.496   9.604
59021SOL    HW178960   9.256  10.550   9.625
59021SOL    HW278961   9.195  10.466   9.514
59022SOL     OW78962  10.941   8.939  13.492
59022SOL    HW178963  10.991   8.933  13.574
59022SOL    HW278964  10.876   8.869  13.497
59023SOL     OW78965   5.919   6.194   2.809
59023SOL    HW178966   5.950   6.147   2.887
59023SOL    HW278967   5.999   6.222   2.765
59024SOL     OW78968  10.286  11.303   8.751
59024SOL    HW178969  10.226  11.282   8.823
59024SOL    HW278970  10.340  11.374   8.786
59025SOL     OW78971   4.843   1.776   8.998
59025SOL    HW178972   4.818   1.861   8.961
59025SOL    HW278973   4.761   1.736   9.025
59026SOL     OW78974   9.458   0.001   5.711
59026SOL    HW178975   9.500   0.082   5.682
59026SOL    HW278976   9.431   0.018   5.801
59027SOL     OW78977  11.065   2.857  14.435
59027SOL    HW178978  11.005   2.785  14.453
59027SOL    HW278979  11.065   2.864  14.339
59028SOL     OW78980   1.029   4.392   0.229
59028SOL    HW178981   0.991   4.479   0.241
59028SOL    HW278982   1.049   4.387   0.135
59029SOL     OW78983   3.895  12.098   1.303
59029SOL    HW178984   3.869  12.187   1.280
59029SOL    HW278985   3.898  12.051   1.219
59030SOL     OW78986   7.487  13.937   5.758
59030SOL    HW178987   7.565  13.963   5.709
59030SOL    HW278988   7.433  13.889   5.694
59031SOL     OW78989   1.976   9.745   6.124
59031SOL    HW178990   2.026   9.664   6.140
59031SOL    HW278991   1.962   9.746   6.030
59032SOL     OW78992   9.101   9.168   1.061
59032SOL    HW178993   9.147   9.086   1.078
59032SOL    HW278994   9.018   9.141   1.022
59033SOL     OW78995   2.731   8.313   4.544
59033SOL    HW178996   2.712   8.296   4.452
59033SOL    HW278997   2.710   8.231   4.589
59034SOL     OW78998   3.746   2.285  14.582
59034SOL    HW178999   3.772   2.198  14.554
59034SOL    HW279000   3.654   2.292  14.555
59035SOL     OW79001   7.784   1.559   7.759
59035SOL    HW179002   7.841   1.494   7.717
59035SOL    HW279003   7.836   1.593   7.832
59036SOL     OW79004   6.448   5.479   8.771
59036SOL    HW179005   6.389   5.552   8.752
59036SOL    HW279006   6.407   5.433   8.844
59037SOL     OW79007   9.368  12.287   2.103
59037SOL    HW179008   9.447  12.250   2.142
59037SOL    HW279009   9.362  12.243   2.017
59038SOL     OW79010  11.025   9.337   6.631
59038SOL    HW179011  10.938   9.308   6.661
59038SOL    HW279012  11.006   9.404   6.565
59039SOL     OW79013   7.994   5.730   8.535
59039SOL    HW179014   7.910   5.767   8.563
59039SOL    HW279015   8.002   5.757   8.443
59040SOL     OW79016   9.686   7.587   0.503
59040SOL    HW179017   9.750   7.636   0.554
59040SOL    HW279018   9.723   7.499   0.495
59041SOL     OW79019  13.799   1.389   6.862
59041SOL    HW179020  13.774   1.338   6.785
59041SOL    HW279021  13.792   1.328   6.935
59042SOL     OW79022   0.774   7.982   1.995
59042SOL    HW179023   0.739   7.948   2.078
59042SOL    HW279024   0.709   8.047   1.967
59043SOL     OW79025   9.780   9.629   6.257
59043SOL    HW179026   9.689   9.645   6.233
59043SOL    HW279027   9.789   9.666   6.344
59044SOL     OW79028  13.119   4.676   1.905
59044SOL    HW179029  13.088   4.717   1.825
59044SOL    HW279030  13.060   4.602   1.918
59045SOL     OW79031   2.194   2.061   3.474
59045SOL    HW179032   2.104   2.088   3.490
59045SOL    HW279033   2.221   2.018   3.555
59046SOL     OW79034  12.470   0.821   7.457
59046SOL    HW179035  12.488   0.898   7.511
59046SOL    HW279036  12.514   0.749   7.503
59047SOL     OW79037   9.509  14.067   0.253
59047SOL    HW179038   9.577  14.106   0.198
59047SOL    HW279039   9.555  14.004   0.309
59048SOL     OW79040   1.913   2.745   9.052
59048SOL    HW179041   1.967   2.719   9.127
59048SOL    HW279042   1.958   2.706   8.976
59049SOL     OW79043   6.380  11.632   5.614
59049SOL    HW179044   6.380  11.541   5.584
59049SOL    HW279045   6.470  11.649   5.639
59050SOL     OW79046   0.523   7.312   2.421
59050SOL    HW179047   0.542   7.375   2.353
59050SOL    HW279048   0.480   7.363   2.490
59051SOL     OW79049  10.085   1.556   9.614
59051SOL    HW179050  10.152   1.538   9.680
59051SOL    HW279051  10.125   1.531   9.531
59052SOL     OW79052  10.810   8.507   6.853
59052SOL    HW179053  10.816   8.529   6.760
59052SOL    HW279054  10.735   8.447   6.859
59053SOL     OW79055   7.517  11.300   1.562
59053SOL    HW179056   7.487  11.269   1.476
59053SOL    HW279057   7.544  11.221   1.608
59054SOL     OW79058  13.025  13.342   3.113
59054SOL    HW179059  12.969  13.401   3.062
59054SOL    HW279060  12.970  13.316   3.187
59055SOL     OW79061   4.271  12.169  12.818
59055SOL    HW179062   4.189  12.164  12.867
59055SOL    HW279063   4.339  12.150  12.882
59056SOL     OW79064   7.856  10.015  12.232
59056SOL    HW179065   7.813  10.085  12.280
59056SOL    HW279066   7.832  10.030  12.141
59057SOL     OW79067   9.813   1.144  10.901
59057SOL    HW179068   9.833   1.094  10.981
59057SOL    HW279069   9.739   1.099  10.862
59058SOL     OW79070  13.600  14.663   7.824
59058SOL    HW179071  13.656  14.610   7.767
59058SOL    HW279072  13.516  14.668   7.778
59059SOL     OW79073  11.673   7.472   6.348
59059SOL    HW179074  11.631   7.389   6.325
59059SOL    HW279075  11.683   7.468   6.443
59060SOL     OW79076   1.514   0.834   9.575
59060SOL    HW179077   1.597   0.791   9.594
59060SOL    HW279078   1.525   0.871   9.488
59061SOL     OW79079   3.238   2.995   9.825
59061SOL    HW179080   3.211   2.913   9.866
59061SOL    HW279081   3.328   2.979   9.796
59062SOL     OW79082   8.383  11.580   5.318
59062SOL    HW179083   8.337  11.637   5.256
59062SOL    HW279084   8.377  11.626   5.402
59063SOL     OW79085  10.662   3.863   1.672
59063SOL    HW179086  10.603   3.909   1.732
59063SOL    HW279087  10.639   3.897   1.585
59064SOL     OW79088   1.031   0.778  12.498
59064SOL    HW179089   1.023   0.691  12.459
59064SOL    HW279090   1.081   0.828  12.433
59065SOL     OW79091   7.826  12.588  10.819
59065SOL    HW179092   7.761  12.644  10.777
59065SOL    HW279093   7.832  12.620  10.909
59066SOL     OW79094  10.822  12.426   1.686
59066SOL    HW179095  10.796  12.457   1.772
59066SOL    HW279096  10.845  12.505   1.638
59067SOL     OW79097   5.282  11.554   2.545
59067SOL    HW179098   5.302  11.461   2.533
59067SOL    HW279099   5.186  11.557   2.550
59068SOL     OW79100  10.798   4.619  14.085
59068SOL    HW179101  10.746   4.553  14.132
59068SOL    HW279102  10.869   4.641  14.145
59069SOL     OW79103   6.847   5.204  12.976
59069SOL    HW179104   6.890   5.142  13.035
59069SOL    HW279105   6.818   5.150  12.902
59070SOL     OW79106   1.695  10.774  13.394
59070SOL    HW179107   1.647  10.756  13.475
59070SOL    HW279108   1.730  10.689  13.367
59071SOL     OW79109   7.319   6.743  10.369
59071SOL    HW179110   7.292   6.835  10.366
59071SOL    HW279111   7.353   6.730  10.457
59072SOL     OW79112   8.376  13.094   4.750
59072SOL    HW179113   8.398  13.185   4.767
59072SOL    HW279114   8.355  13.092   4.656
59073SOL     OW79115  13.889   8.666  10.952
59073SOL    HW179116  13.820   8.664  10.886
59073SOL    HW279117  13.967   8.635  10.906
59074SOL     OW79118   6.428   7.817   5.070
59074SOL    HW179119   6.418   7.798   5.163
59074SOL    HW279120   6.428   7.731   5.027
59075SOL     OW79121   5.112   0.611  10.932
59075SOL    HW179122   5.167   0.684  10.903
59075SOL    HW279123   5.107   0.552  10.857
59076SOL     OW79124   1.948   4.494   4.510
59076SOL    HW179125   2.028   4.534   4.475
59076SOL    HW279126   1.907   4.452   4.434
59077SOL     OW79127   9.329   9.644   4.731
59077SOL    HW179128   9.273   9.580   4.688
59077SOL    HW279129   9.414   9.601   4.738
59078SOL     OW79130   1.998   0.224  10.598
59078SOL    HW179131   2.069   0.251  10.540
59078SOL    HW279132   1.997   0.291  10.667
59079SOL     OW79133  12.025   8.418   6.160
59079SOL    HW179134  11.966   8.493   6.161
59079SOL    HW279135  12.036   8.397   6.068
59080SOL     OW79136   1.469   7.646  13.877
59080SOL    HW179137   1.402   7.580  13.858
59080SOL    HW279138   1.453   7.671  13.967
59081SOL     OW79139  10.494   4.975   2.228
59081SOL    HW179140  10.404   4.950   2.209
59081SOL    HW279141  10.518   4.924   2.306
59082SOL     OW79142  14.675   8.262   9.882
59082SOL    HW179143  14.729   8.217   9.947
59082SOL    HW279144  14.659   8.348   9.920
59083SOL     OW79145   2.377  10.970   5.719
59083SOL    HW179146   2.350  10.878   5.717
59083SOL    HW279147   2.307  11.015   5.766
59084SOL     OW79148   5.939   5.444   6.822
59084SOL    HW179149   5.890   5.362   6.815
59084SOL    HW279150   5.907   5.498   6.750
59085SOL     OW79151   3.787  13.838   7.023
59085SOL    HW179152   3.794  13.746   6.998
59085SOL    HW279153   3.733  13.877   6.955
59086SOL     OW79154   8.031  12.889   8.054
59086SOL    HW179155   7.983  12.963   8.017
59086SOL    HW279156   8.084  12.855   7.982
59087SOL     OW79157   8.666  12.402   3.833
59087SOL    HW179158   8.673  12.347   3.911
59087SOL    HW279159   8.602  12.470   3.857
59088SOL     OW79160   4.635  10.930  11.173
59088SOL    HW179161   4.614  10.845  11.135
59088SOL    HW279162   4.551  10.976  11.178
59089SOL     OW79163  14.685   2.664   1.079
59089SOL    HW179164  14.714   2.735   1.021
59089SOL    HW279165  14.596   2.645   1.051
59090SOL     OW79166   6.518   3.032   0.946
59090SOL    HW179167   6.521   3.059   0.855
59090SOL    HW279168   6.557   2.944   0.946
59091SOL     OW79169   0.684   8.192   5.873
59091SOL    HW179170   0.598   8.172   5.911
59091SOL    HW279171   0.666   8.260   5.808
59092SOL     OW79172   2.164   2.757   6.118
59092SOL    HW179173   2.080   2.792   6.147
59092SOL    HW279174   2.159   2.759   6.023
59093SOL     OW79175   6.204   2.219   0.933
59093SOL    HW179176   6.205   2.153   0.863
59093SOL    HW279177   6.121   2.266   0.920
59094SOL     OW79178  10.978   4.491   7.581
59094SOL    HW179179  11.010   4.573   7.618
59094SOL    HW279180  10.892   4.478   7.621
59095SOL     OW79181   7.535   3.732  13.683
59095SOL    HW179182   7.457   3.753  13.631
59095SOL    HW279183   7.555   3.814  13.729
59096SOL     OW79184  11.533   8.581   7.859
59096SOL    HW179185  11.529   8.661   7.806
59096SOL    HW279186  11.612   8.536   7.829
59097SOL     OW79187   0.430  14.583  10.361
59097SOL    HW179188   0.491  14.565  10.432
59097SOL    HW279189   0.478  14.643  10.303
59098SOL     OW79190   7.773   9.919   4.412
59098SOL    HW179191   7.769   9.849   4.347
59098SOL    HW279192   7.795   9.875   4.494
59099SOL     OW79193   4.615  10.840  14.021
59099SOL    HW179194   4.586  10.862  13.933
59099SOL    HW279195   4.547  10.876  14.078
59100SOL     OW79196  13.240   2.829  14.266
59100SOL    HW179197  13.264   2.845  14.357
59100SOL    HW279198  13.304   2.764  14.235
59101SOL     OW79199  11.702  12.858   4.399
59101SOL    HW179200  11.698  12.862   4.304
59101SOL    HW279201  11.794  12.875   4.421
59102SOL     OW79202   7.349   1.256   2.065
59102SOL    HW179203   7.329   1.234   1.974
59102SOL    HW279204   7.402   1.183   2.096
59103SOL     OW79205  14.136   2.413   4.298
59103SOL    HW179206  14.070   2.385   4.235
59103SOL    HW279207  14.206   2.348   4.288
59104SOL     OW79208   9.141   1.921   4.416
59104SOL    HW179209   9.153   1.827   4.434
59104SOL    HW279210   9.047   1.935   4.427
59105SOL     OW79211  10.680   5.801   2.424
59105SOL    HW179212  10.681   5.720   2.475
59105SOL    HW279213  10.692   5.774   2.334
59106SOL     OW79214  12.573   2.817   0.665
59106SOL    HW179215  12.562   2.789   0.756
59106SOL    HW279216  12.643   2.883   0.669
59107SOL     OW79217   8.195  11.797   1.504
59107SOL    HW179218   8.147  11.864   1.552
59107SOL    HW279219   8.131  11.729   1.485
59108SOL     OW79220  13.411  11.349   4.869
59108SOL    HW179221  13.482  11.346   4.805
59108SOL    HW279222  13.418  11.436   4.909
59109SOL     OW79223   0.531   9.586  13.599
59109SOL    HW179224   0.525   9.569  13.505
59109SOL    HW279225   0.591   9.519  13.631
59110SOL     OW79226   8.808   8.119   8.340
59110SOL    HW179227   8.713   8.103   8.340
59110SOL    HW279228   8.817   8.206   8.379
59111SOL     OW79229   2.795  12.317  11.795
59111SOL    HW179230   2.758  12.400  11.767
59111SOL    HW279231   2.862  12.340  11.860
59112SOL     OW79232  14.355   6.135   8.393
59112SOL    HW179233  14.440   6.132   8.437
59112SOL    HW279234  14.293   6.109   8.461
59113SOL     OW79235  11.331  13.206   9.756
59113SOL    HW179236  11.266  13.275   9.745
59113SOL    HW279237  11.285  13.126   9.730
59114SOL     OW79238   9.779   5.861   0.357
59114SOL    HW179239   9.781   5.930   0.291
59114SOL    HW279240   9.861   5.872   0.406
59115SOL     OW79241   1.446   0.020   8.088
59115SOL    HW179242   1.475  14.854   8.004
59115SOL    HW279243   1.500  14.846   8.153
59116SOL     OW79244   3.777   0.889   0.689
59116SOL    HW179245   3.861   0.853   0.660
59116SOL    HW279246   3.716   0.868   0.618
59117SOL     OW79247   6.348   7.918  10.423
59117SOL    HW179248   6.337   7.852  10.354
59117SOL    HW279249   6.394   7.873  10.493
59118SOL     OW79250   5.694   8.944   2.062
59118SOL    HW179251   5.678   8.896   1.980
59118SOL    HW279252   5.607   8.957   2.100
59119SOL     OW79253   1.922   8.790  13.930
59119SOL    HW179254   1.983   8.739  13.876
59119SOL    HW279255   1.863   8.724  13.966
59120SOL     OW79256   8.927  12.888  11.675
59120SOL    HW179257   8.990  12.910  11.744
59120SOL    HW279258   8.964  12.811  11.632
59121SOL     OW79259   8.288   4.343   5.798
59121SOL    HW179260   8.230   4.417   5.814
59121SOL    HW279261   8.356   4.378   5.740
59122SOL     OW79262  11.588  12.926   8.487
59122SOL    HW179263  11.624  12.882   8.411
59122SOL    HW279264  11.537  12.998   8.452
59123SOL     OW79265   1.145   2.799  10.955
59123SOL    HW179266   1.128   2.838  11.041
59123SOL    HW279267   1.204   2.861  10.912
59124SOL     OW79268   7.041  10.581  11.028
59124SOL    HW179269   7.090  10.499  11.030
59124SOL    HW279270   7.108  10.649  11.041
59125SOL     OW79271  11.263  14.449  14.421
59125SOL    HW179272  11.255  14.366  14.468
59125SOL    HW279273  11.173  14.474  14.403
59126SOL     OW79274  10.065   6.591   9.599
59126SOL    HW179275  10.042   6.666   9.544
59126SOL    HW279276  10.113   6.630   9.673
59127SOL     OW79277   8.588  10.536  12.199
59127SOL    HW179278   8.531  10.609  12.173
59127SOL    HW279279   8.573  10.526  12.293
59128SOL     OW79280  12.677   8.443  14.467
59128SOL    HW179281  12.613   8.506  14.500
59128SOL    HW279282  12.706   8.396  14.545
59129SOL     OW79283   5.415   2.788   4.522
59129SOL    HW179284   5.493   2.733   4.525
59129SOL    HW279285   5.348   2.732   4.484
59130SOL     OW79286  10.626  14.018  12.463
59130SOL    HW179287  10.684  13.992  12.535
59130SOL    HW279288  10.681  14.015  12.385
59131SOL     OW79289   1.972  10.718   8.578
59131SOL    HW179290   1.982  10.749   8.668
59131SOL    HW279291   2.045  10.759   8.531
59132SOL     OW79292  11.229   3.554  11.389
59132SOL    HW179293  11.243   3.602  11.307
59132SOL    HW279294  11.284   3.477  11.381
59133SOL     OW79295   6.234  11.702  13.848
59133SOL    HW179296   6.147  11.740  13.860
59133SOL    HW279297   6.269  11.746  13.771
59134SOL     OW79298  13.667   3.467  11.930
59134SOL    HW179299  13.632   3.400  11.872
59134SOL    HW279300  13.643   3.438  12.018
59135SOL     OW79301  10.404  12.824  11.345
59135SOL    HW179302  10.454  12.902  11.370
59135SOL    HW279303  10.401  12.827  11.250
59136SOL     OW79304   2.658  14.448   5.543
59136SOL    HW179305   2.739  14.438   5.593
59136SOL    HW279306   2.623  14.359   5.536
59137SOL     OW79307   8.917  10.979  10.929
59137SOL    HW179308   8.903  10.905  10.989
59137SOL    HW279309   8.831  11.020  10.921
59138SOL     OW79310   4.715   3.112  13.188
59138SOL    HW179311   4.714   3.070  13.102
59138SOL    HW279312   4.697   3.041  13.250
59139SOL     OW79313   4.675   4.346   8.349
59139SOL    HW179314   4.660   4.266   8.400
59139SOL    HW279315   4.770   4.357   8.350
59140SOL     OW79316   8.749   1.224  12.110
59140SOL    HW179317   8.811   1.265  12.050
59140SOL    HW279318   8.804   1.189  12.180
59141SOL     OW79319  11.169   9.105   0.014
59141SOL    HW179320  11.243   9.046  14.868
59141SOL    HW279321  11.162   9.157  14.804
59142SOL     OW79322   0.449   3.416   2.040
59142SOL    HW179323   0.374   3.443   2.093
59142SOL    HW279324   0.515   3.392   2.105
59143SOL     OW79325  13.334  10.624   1.816
59143SOL    HW179326  13.345  10.662   1.729
59143SOL    HW279327  13.240  10.611   1.826
59144SOL     OW79328   8.423   0.214  12.676
59144SOL    HW179329   8.357   0.183  12.614
59144SOL    HW279330   8.423   0.148  12.745
59145SOL     OW79331   2.645   1.884   7.245
59145SOL    HW179332   2.641   1.884   7.149
59145SOL    HW279333   2.609   1.799   7.270
59146SOL     OW79334   7.024  13.072   7.875
59146SOL    HW179335   7.006  13.071   7.781
59146SOL    HW279336   6.991  13.156   7.906
59147SOL     OW79337   3.241  10.345   0.400
59147SOL    HW179338   3.204  10.345   0.312
59147SOL    HW279339   3.166  10.336   0.458
59148SOL     OW79340   9.198  11.511  10.643
59148SOL    HW179341   9.219  11.603  10.624
59148SOL    HW279342   9.128  11.489  10.581
59149SOL     OW79343  13.154  13.375   4.021
59149SOL    HW179344  13.187  13.319   3.951
59149SOL    HW279345  13.223  13.375   4.087
59150SOL     OW79346   9.110   1.874  10.499
59150SOL    HW179347   9.088   1.783  10.515
59150SOL    HW279348   9.069   1.922  10.570
59151SOL     OW79349   1.200   4.140  14.670
59151SOL    HW179350   1.247   4.212  14.711
59151SOL    HW279351   1.254   4.063  14.686
59152SOL     OW79352  12.337  14.157  14.773
59152SOL    HW179353  12.389  14.078  14.755
59152SOL    HW279354  12.293  14.176  14.691
59153SOL     OW79355  12.448   1.123   4.362
59153SOL    HW179356  12.464   1.048   4.419
59153SOL    HW279357  12.531   1.170   4.360
59154SOL     OW79358  14.521   9.120   6.999
59154SOL    HW179359  14.468   9.061   7.052
59154SOL    HW279360  14.475   9.204   7.003
59155SOL     OW79361   4.058   0.571   3.540
59155SOL    HW179362   3.983   0.541   3.488
59155SOL    HW279363   4.025   0.572   3.630
59156SOL     OW79364  10.426  10.674   5.381
59156SOL    HW179365  10.412  10.736   5.452
59156SOL    HW279366  10.489  10.717   5.323
59157SOL     OW79367   0.485  11.710   3.314
59157SOL    HW179368   0.470  11.616   3.304
59157SOL    HW279369   0.561  11.729   3.259
59158SOL     OW79370   4.610   7.071   6.442
59158SOL    HW179371   4.642   7.135   6.505
59158SOL    HW279372   4.688   7.041   6.397
59159SOL     OW79373  13.487   2.160   6.972
59159SOL    HW179374  13.520   2.142   7.060
59159SOL    HW279375  13.395   2.134   6.975
59160SOL     OW79376   4.197  10.023   4.914
59160SOL    HW179377   4.208   9.936   4.952
59160SOL    HW279378   4.189  10.008   4.820
59161SOL     OW79379   1.832   4.392   2.325
59161SOL    HW179380   1.798   4.441   2.249
59161SOL    HW279381   1.757   4.340   2.355
59162SOL     OW79382   3.629   1.546   5.000
59162SOL    HW179383   3.536   1.538   5.021
59162SOL    HW279384   3.663   1.457   5.008
59163SOL     OW79385   7.321  14.729   6.616
59163SOL    HW179386   7.362  14.642   6.621
59163SOL    HW279387   7.368  14.773   6.545
59164SOL     OW79388  12.510  13.802   2.560
59164SOL    HW179389  12.519  13.887   2.603
59164SOL    HW279390  12.421  13.801   2.526
59165SOL     OW79391   4.348  13.328   2.447
59165SOL    HW179392   4.424  13.370   2.405
59165SOL    HW279393   4.297  13.292   2.374
59166SOL     OW79394   3.823   4.520   9.426
59166SOL    HW179395   3.835   4.481   9.513
59166SOL    HW279396   3.730   4.544   9.423
59167SOL     OW79397   3.714  14.237  10.742
59167SOL    HW179398   3.782  14.246  10.676
59167SOL    HW279399   3.634  14.266  10.698
59168SOL     OW79400   9.953   5.769  14.118
59168SOL    HW179401   9.928   5.861  14.114
59168SOL    HW279402  10.009   5.763  14.196
59169SOL     OW79403   1.153  13.587  11.116
59169SOL    HW179404   1.080  13.594  11.054
59169SOL    HW279405   1.210  13.520  11.078
59170SOL     OW79406   7.280  11.869   2.714
59170SOL    HW179407   7.235  11.884   2.798
59170SOL    HW279408   7.230  11.799   2.673
59171SOL     OW79409   9.443  12.183   6.364
59171SOL    HW179410   9.530  12.171   6.403
59171SOL    HW279411   9.436  12.113   6.299
59172SOL     OW79412   5.322   6.700   6.486
59172SOL    HW179413   5.286   6.758   6.553
59172SOL    HW279414   5.262   6.707   6.412
59173SOL     OW79415  14.540   7.992   8.013
59173SOL    HW179416  14.570   7.952   8.094
59173SOL    HW279417  14.567   7.931   7.944
59174SOL     OW79418   9.254  11.632   3.230
59174SOL    HW179419   9.178  11.574   3.241
59174SOL    HW279420   9.236  11.680   3.150
59175SOL     OW79421   2.700   7.165   3.720
59175SOL    HW179422   2.730   7.251   3.691
59175SOL    HW279423   2.773   7.130   3.771
59176SOL     OW79424   7.321  14.334  12.986
59176SOL    HW179425   7.404  14.289  13.001
59176SOL    HW279426   7.316  14.345  12.891
59177SOL     OW79427   7.438   5.257   4.279
59177SOL    HW179428   7.417   5.222   4.366
59177SOL    HW279429   7.361   5.237   4.226
59178SOL     OW79430   9.698   5.569  11.505
59178SOL    HW179431   9.633   5.624  11.461
59178SOL    HW279432   9.782   5.610  11.484
59179SOL     OW79433   1.754  14.825   6.476
59179SOL    HW179434   1.754   0.025   6.542
59179SOL    HW279435   1.829  14.846   6.419
59180SOL     OW79436   9.332   8.732   7.808
59180SOL    HW179437   9.405   8.748   7.748
59180SOL    HW279438   9.261   8.701   7.751
59181SOL     OW79439  10.098   2.521   9.277
59181SOL    HW179440  10.145   2.438   9.284
59181SOL    HW279441  10.028   2.504   9.214
59182SOL     OW79442  11.040   0.423   1.331
59182SOL    HW179443  10.978   0.496   1.334
59182SOL    HW279444  10.997   0.358   1.275
59183SOL     OW79445   7.015   1.488   3.392
59183SOL    HW179446   6.935   1.533   3.420
59183SOL    HW279447   7.086   1.543   3.425
59184SOL     OW79448  11.999  11.749   1.635
59184SOL    HW179449  11.950  11.820   1.676
59184SOL    HW279450  12.014  11.687   1.706
59185SOL     OW79451  14.257  10.060   8.099
59185SOL    HW179452  14.226  10.103   8.179
59185SOL    HW279453  14.323   9.998   8.129
59186SOL     OW79454  10.975  11.562   2.235
59186SOL    HW179455  10.991  11.580   2.143
59186SOL    HW279456  10.934  11.475   2.236
59187SOL     OW79457   3.735   7.186  10.405
59187SOL    HW179458   3.803   7.244  10.371
59187SOL    HW279459   3.779   7.132  10.471
59188SOL     OW79460   9.635  10.368   0.556
59188SOL    HW179461   9.636  10.453   0.511
59188SOL    HW279462   9.664  10.305   0.490
59189SOL     OW79463  11.191   0.914  10.816
59189SOL    HW179464  11.197   0.964  10.898
59189SOL    HW279465  11.104   0.873  10.821
59190SOL     OW79466   1.981  13.063   3.352
59190SOL    HW179467   2.039  13.102   3.286
59190SOL    HW279468   1.900  13.113   3.345
59191SOL     OW79469  14.103   6.928  13.134
59191SOL    HW179470  14.121   7.009  13.087
59191SOL    HW279471  14.189   6.886  13.142
59192SOL     OW79472   0.334   6.179   8.574
59192SOL    HW179473   0.285   6.200   8.495
59192SOL    HW279474   0.353   6.086   8.566
59193SOL     OW79475   7.891   0.836  14.530
59193SOL    HW179476   7.880   0.888  14.609
59193SOL    HW279477   7.964   0.777  14.549
59194SOL     OW79478   7.449  11.094   3.595
59194SOL    HW179479   7.358  11.091   3.624
59194SOL    HW279480   7.500  11.106   3.675
59195SOL     OW79481   3.822   9.335   9.906
59195SOL    HW179482   3.877   9.412   9.889
59195SOL    HW279483   3.841   9.312   9.997
59196SOL     OW79484   1.878  12.275   7.763
59196SOL    HW179485   1.819  12.326   7.819
59196SOL    HW279486   1.883  12.325   7.681
59197SOL     OW79487  10.740  10.351   2.066
59197SOL    HW179488  10.727  10.441   2.035
59197SOL    HW279489  10.822  10.354   2.115
59198SOL     OW79490  10.633   3.877   0.408
59198SOL    HW179491  10.550   3.858   0.451
59198SOL    HW279492  10.614   3.870   0.314
59199SOL     OW79493   8.706   4.837  10.038
59199SOL    HW179494   8.760   4.901  10.085
59199SOL    HW279495   8.621   4.840  10.082
59200SOL     OW79496   2.105  10.567  11.193
59200SOL    HW179497   2.143  10.504  11.254
59200SOL    HW279498   2.132  10.537  11.106
59201SOL     OW79499  10.256   0.051  12.700
59201SOL    HW179500  10.258  14.844  12.643
59201SOL    HW279501  10.347   0.066  12.725
59202SOL     OW79502   5.991   8.506   4.636
59202SOL    HW179503   5.926   8.539   4.699
59202SOL    HW279504   6.058   8.465   4.691
59203SOL     OW79505   4.922   6.353   7.865
59203SOL    HW179506   5.005   6.306   7.877
59203SOL    HW279507   4.882   6.354   7.951
59204SOL     OW79508  10.775   8.684   3.072
59204SOL    HW179509  10.798   8.650   3.158
59204SOL    HW279510  10.855   8.675   3.020
59205SOL     OW79511   2.699   5.664   6.039
59205SOL    HW179512   2.793   5.683   6.036
59205SOL    HW279513   2.658   5.749   6.057
59206SOL     OW79514  12.466   2.735  14.608
59206SOL    HW179515  12.493   2.782  14.529
59206SOL    HW279516  12.417   2.799  14.658
59207SOL     OW79517   5.498  12.693   1.080
59207SOL    HW179518   5.501  12.711   1.174
59207SOL    HW279519   5.437  12.759   1.045
59208SOL     OW79520   4.747   2.327  12.797
59208SOL    HW179521   4.831   2.291  12.768
59208SOL    HW279522   4.769   2.380  12.874
59209SOL     OW79523  13.342   8.219  12.715
59209SOL    HW179524  13.289   8.142  12.694
59209SOL    HW279525  13.278   8.286  12.739
59210SOL     OW79526  14.075   0.394  10.605
59210SOL    HW179527  13.996   0.371  10.654
59210SOL    HW279528  14.125   0.313  10.602
59211SOL     OW79529  13.565   4.340   7.375
59211SOL    HW179530  13.659   4.329   7.364
59211SOL    HW279531  13.547   4.306   7.462
59212SOL     OW79532   0.422   1.585   6.079
59212SOL    HW179533   0.456   1.549   6.161
59212SOL    HW279534   0.497   1.628   6.038
59213SOL     OW79535   7.518   4.504   6.066
59213SOL    HW179536   7.450   4.569   6.050
59213SOL    HW279537   7.570   4.542   6.138
59214SOL     OW79538   3.975   0.941   9.146
59214SOL    HW179539   4.061   0.969   9.113
59214SOL    HW279540   3.914   0.964   9.076
59215SOL     OW79541   7.406   5.551   4.247
59215SOL    HW179542   7.483   5.581   4.295
59215SOL    HW279543   7.426   5.461   4.222
59216SOL     OW79544   1.890   3.666   3.111
59216SOL    HW179545   1.971   3.699   3.072
59216SOL    HW279546   1.832   3.742   3.113
59217SOL     OW79547  10.697  11.943  12.088
59217SOL    HW179548  10.634  11.950  12.159
59217SOL    HW279549  10.780  11.922  12.131
59218SOL     OW79550   8.609   3.646   2.625
59218SOL    HW179551   8.593   3.648   2.531
59218SOL    HW279552   8.610   3.553   2.648
59219SOL     OW79553   0.911   4.109  13.955
59219SOL    HW179554   1.002   4.134  13.974
59219SOL    HW279555   0.902   4.021  13.992
59220SOL     OW79556   9.921  12.247  11.637
59220SOL    HW179557  10.014  12.267  11.623
59220SOL    HW279558   9.880  12.333  11.648
59221SOL     OW79559   7.172  10.668   5.727
59221SOL    HW179560   7.089  10.700   5.763
59221SOL    HW279561   7.195  10.730   5.659
59222SOL     OW79562   0.169   1.645   3.995
59222SOL    HW179563   0.112   1.640   4.071
59222SOL    HW279564   0.233   1.713   4.017
59223SOL     OW79565   5.962   2.130   9.775
59223SOL    HW179566   6.033   2.101   9.833
59223SOL    HW279567   5.882   2.107   9.822
59224SOL     OW79568   6.384   2.651  12.295
59224SOL    HW179569   6.379   2.661  12.200
59224SOL    HW279570   6.438   2.724  12.324
59225SOL     OW79571   4.897  11.434   4.055
59225SOL    HW179572   4.853  11.406   4.135
59225SOL    HW279573   4.860  11.521   4.037
59226SOL     OW79574   9.079   2.920   8.895
59226SOL    HW179575   9.109   2.986   8.957
59226SOL    HW279576   9.074   2.839   8.945
59227SOL     OW79577  11.814   2.362   0.359
59227SOL    HW179578  11.849   2.277   0.331
59227SOL    HW279579  11.853   2.425   0.299
59228SOL     OW79580  11.184   2.557   7.771
59228SOL    HW179581  11.140   2.639   7.747
59228SOL    HW279582  11.255   2.549   7.707
59229SOL     OW79583   0.474  14.384   7.501
59229SOL    HW179584   0.559  14.357   7.468
59229SOL    HW279585   0.415  14.378   7.426
59230SOL     OW79586   6.081  10.211   0.298
59230SOL    HW179587   5.989  10.204   0.274
59230SOL    HW279588   6.086  10.175   0.386
59231SOL     OW79589  11.610   2.083   5.009
59231SOL    HW179590  11.690   2.091   4.957
59231SOL    HW279591  11.613   1.993   5.043
59232SOL     OW79592   9.305   7.376  13.913
59232SOL    HW179593   9.277   7.357  13.823
59232SOL    HW279594   9.379   7.436  13.903
59233SOL     OW79595   4.412   1.115  11.094
59233SOL    HW179596   4.343   1.071  11.043
59233SOL    HW279597   4.492   1.069  11.070
59234SOL     OW79598  12.207  14.016   5.434
59234SOL    HW179599  12.173  13.962   5.363
59234SOL    HW279600  12.188  13.966   5.514
59235SOL     OW79601   7.589  12.451   3.619
59235SOL    HW179602   7.538  12.383   3.576
59235SOL    HW279603   7.626  12.408   3.696
59236SOL     OW79604   0.194  11.818   7.497
59236SOL    HW179605   0.270  11.811   7.554
59236SOL    HW279606   0.158  11.730   7.494
59237SOL     OW79607   8.206  11.948   3.243
59237SOL    HW179608   8.275  11.881   3.232
59237SOL    HW279609   8.250  12.020   3.289
59238SOL     OW79610   9.780   0.988   0.400
59238SOL    HW179611   9.845   0.942   0.345
59238SOL    HW279612   9.780   1.077   0.366
59239SOL     OW79613   3.354   3.622  13.388
59239SOL    HW179614   3.264   3.596  13.371
59239SOL    HW279615   3.401   3.602  13.307
59240SOL     OW79616   2.171   4.950   6.227
59240SOL    HW179617   2.079   4.936   6.247
59240SOL    HW279618   2.206   4.863   6.210
59241SOL     OW79619   1.529   9.789   6.631
59241SOL    HW179620   1.540   9.845   6.707
59241SOL    HW279621   1.454   9.733   6.652
59242SOL     OW79622   9.009   0.391  13.793
59242SOL    HW179623   9.038   0.357  13.877
59242SOL    HW279624   8.957   0.321  13.754
59243SOL     OW79625   3.165   2.386   3.466
59243SOL    HW179626   3.229   2.321   3.437
59243SOL    HW279627   3.218   2.463   3.489
59244SOL     OW79628  12.025  11.752  13.982
59244SOL    HW179629  12.059  11.728  13.895
59244SOL    HW279630  11.936  11.782  13.965
59245SOL     OW79631   3.596   2.440  10.490
59245SOL    HW179632   3.555   2.506  10.546
59245SOL    HW279633   3.568   2.356  10.527
59246SOL     OW79634   2.396   3.349   7.630
59246SOL    HW179635   2.488   3.335   7.607
59246SOL    HW279636   2.348   3.287   7.575
59247SOL     OW79637   0.856  13.073   4.346
59247SOL    HW179638   0.769  13.068   4.385
59247SOL    HW279639   0.841  13.059   4.252
59248SOL     OW79640  10.094  14.159   7.833
59248SOL    HW179641  10.084  14.105   7.912
59248SOL    HW279642  10.170  14.121   7.788
59249SOL     OW79643   7.690   1.789   9.475
59249SOL    HW179644   7.692   1.852   9.403
59249SOL    HW279645   7.714   1.705   9.435
59250SOL     OW79646   4.007  13.055   4.333
59250SOL    HW179647   3.934  13.035   4.392
59250SOL    HW279648   4.053  13.127   4.376
59251SOL     OW79649   6.044  11.561   3.135
59251SOL    HW179650   6.109  11.630   3.129
59251SOL    HW279651   6.027  11.536   3.044
59252SOL     OW79652  10.905   7.902   0.494
59252SOL    HW179653  10.817   7.939   0.502
59252SOL    HW279654  10.922   7.864   0.580
59253SOL     OW79655  12.577   6.935  12.904
59253SOL    HW179656  12.612   6.891  12.827
59253SOL    HW279657  12.496   6.888  12.924
59254SOL     OW79658   3.458   5.611   4.531
59254SOL    HW179659   3.376   5.645   4.568
59254SOL    HW279660   3.473   5.529   4.578
59255SOL     OW79661   4.488   2.922   4.737
59255SOL    HW179662   4.400   2.931   4.700
59255SOL    HW279663   4.473   2.915   4.831
59256SOL     OW79664   6.890   8.030   6.902
59256SOL    HW179665   6.853   8.008   6.988
59256SOL    HW279666   6.826   7.997   6.839
59257SOL     OW79667   2.152   2.008  13.038
59257SOL    HW179668   2.080   2.026  12.977
59257SOL    HW279669   2.129   1.925  13.079
59258SOL     OW79670   3.916   2.285   3.092
59258SOL    HW179671   3.906   2.216   3.027
59258SOL    HW279672   3.948   2.240   3.170
59259SOL     OW79673  14.302   0.205   2.216
59259SOL    HW179674  14.380   0.154   2.236
59259SOL    HW279675  14.299   0.207   2.120
59260SOL     OW79676  14.769   2.661  14.606
59260SOL    HW179677  14.741   2.752  14.617
59260SOL    HW279678  14.813   2.639  14.687
59261SOL     OW79679  14.328   9.623  11.492
59261SOL    HW179680  14.319   9.629  11.587
59261SOL    HW279681  14.384   9.697  11.468
59262SOL     OW79682   4.051   6.243   7.014
59262SOL    HW179683   4.030   6.196   6.933
59262SOL    HW279684   4.031   6.334   6.995
59263SOL     OW79685  14.469  13.647  10.282
59263SOL    HW179686  14.545  13.652  10.339
59263SOL    HW279687  14.413  13.719  10.310
59264SOL     OW79688   0.031  10.012  13.016
59264SOL    HW179689   0.044  10.039  13.107
59264SOL    HW279690   0.070   9.925  13.010
59265SOL     OW79691  12.013  14.431  14.593
59265SOL    HW179692  11.943  14.390  14.644
59265SOL    HW279693  12.001  14.525  14.606
59266SOL     OW79694   2.283   3.206   9.905
59266SOL    HW179695   2.242   3.274   9.851
59266SOL    HW279696   2.210   3.162   9.948
59267SOL     OW79697  13.082   3.840   6.405
59267SOL    HW179698  13.046   3.771   6.350
59267SOL    HW279699  13.148   3.883   6.350
59268SOL     OW79700  13.752   3.817  10.957
59268SOL    HW179701  13.808   3.746  10.985
59268SOL    HW279702  13.801   3.897  10.978
59269SOL     OW79703   7.715   3.911   0.111
59269SOL    HW179704   7.720   3.845   0.180
59269SOL    HW279705   7.805   3.921   0.081
59270SOL     OW79706   5.694   9.246  10.866
59270SOL    HW179707   5.745   9.276  10.791
59270SOL    HW279708   5.603   9.250  10.837
59271SOL     OW79709   4.439   9.596   7.934
59271SOL    HW179710   4.437   9.580   8.028
59271SOL    HW279711   4.495   9.526   7.899
59272SOL     OW79712   2.438  14.481   3.099
59272SOL    HW179713   2.395  14.495   3.015
59272SOL    HW279714   2.404  14.396   3.129
59273SOL     OW79715  13.048   6.340   1.078
59273SOL    HW179716  13.133   6.348   1.122
59273SOL    HW279717  13.027   6.429   1.050
59274SOL     OW79718  13.405  11.840  12.029
59274SOL    HW179719  13.329  11.784  12.015
59274SOL    HW279720  13.369  11.924  12.055
59275SOL     OW79721   9.449  12.189   4.006
59275SOL    HW179722   9.397  12.261   3.973
59275SOL    HW279723   9.468  12.213   4.097
59276SOL     OW79724   5.436   5.614   5.459
59276SOL    HW179725   5.510   5.579   5.509
59276SOL    HW279726   5.374   5.644   5.526
59277SOL     OW79727   0.930  11.817   7.787
59277SOL    HW179728   1.004  11.775   7.743
59277SOL    HW279729   0.897  11.881   7.724
59278SOL     OW79730  12.469   8.407  10.300
59278SOL    HW179731  12.483   8.409  10.205
59278SOL    HW279732  12.410   8.333  10.314
59279SOL     OW79733  12.708   8.881  13.052
59279SOL    HW179734  12.647   8.807  13.050
59279SOL    HW279735  12.790   8.846  13.018
59280SOL     OW79736   3.074   4.876  14.213
59280SOL    HW179737   3.158   4.841  14.182
59280SOL    HW279738   3.008   4.822  14.168
59281SOL     OW79739   1.729  14.592   8.070
59281SOL    HW179740   1.699  14.625   7.986
59281SOL    HW279741   1.664  14.623   8.133
59282SOL     OW79742  14.725   8.897   1.533
59282SOL    HW179743  14.657   8.883   1.468
59282SOL    HW279744  14.752   8.989   1.521
59283SOL     OW79745   5.434  14.043  13.385
59283SOL    HW179746   5.375  13.986  13.337
59283SOL    HW279747   5.469  13.988  13.455
59284SOL     OW79748  13.990   2.971  12.711
59284SOL    HW179749  14.003   2.896  12.653
59284SOL    HW279750  13.904   2.957  12.750
59285SOL     OW79751   4.642  13.989   0.149
59285SOL    HW179752   4.725  13.943   0.155
59285SOL    HW279753   4.603  13.958   0.067
59286SOL     OW79754   3.391   9.261  11.584
59286SOL    HW179755   3.298   9.271  11.561
59286SOL    HW279756   3.396   9.176  11.627
59287SOL     OW79757   9.201  13.297   2.580
59287SOL    HW179758   9.161  13.366   2.633
59287SOL    HW279759   9.158  13.217   2.607
59288SOL     OW79760   9.881   0.413  10.575
59288SOL    HW179761   9.966   0.387  10.608
59288SOL    HW279762   9.899   0.451  10.489
59289SOL     OW79763   9.499   4.694  11.540
59289SOL    HW179764   9.519   4.601  11.538
59289SOL    HW279765   9.405   4.699  11.556
59290SOL     OW79766   6.861   7.819  11.098
59290SOL    HW179767   6.927   7.884  11.074
59290SOL    HW279768   6.870   7.750  11.031
59291SOL     OW79769   1.614  11.248   2.973
59291SOL    HW179770   1.529  11.279   2.942
59291SOL    HW279771   1.594  11.191   3.047
59292SOL     OW79772  12.416   9.684   8.573
59292SOL    HW179773  12.402   9.730   8.655
59292SOL    HW279774  12.335   9.634   8.559
59293SOL     OW79775  11.386  12.008   4.879
59293SOL    HW179776  11.425  12.042   4.798
59293SOL    HW279777  11.423  12.063   4.948
59294SOL     OW79778   8.144   8.849   5.559
59294SOL    HW179779   8.165   8.772   5.506
59294SOL    HW279780   8.191   8.836   5.641
59295SOL     OW79781   2.220   1.650   9.743
59295SOL    HW179782   2.275   1.594   9.688
59295SOL    HW279783   2.275   1.673   9.818
59296SOL     OW79784   9.417  14.414   9.073
59296SOL    HW179785   9.357  14.423   8.999
59296SOL    HW279786   9.503  14.405   9.033
59297SOL     OW79787  10.154   5.133  11.053
59297SOL    HW179788  10.064   5.154  11.028
59297SOL    HW279789  10.207   5.195  11.002
59298SOL     OW79790   9.129   2.186   8.113
59298SOL    HW179791   9.222   2.170   8.128
59298SOL    HW279792   9.117   2.169   8.019
59299SOL     OW79793  12.327   2.069  14.352
59299SOL    HW179794  12.281   2.079  14.269
59299SOL    HW279795  12.309   2.150  14.400
59300SOL     OW79796   3.374   8.759  13.952
59300SOL    HW179797   3.358   8.843  13.995
59300SOL    HW279798   3.377   8.780  13.859
59301SOL     OW79799  14.798  10.202   1.836
59301SOL    HW179800  14.787  10.169   1.925
59301SOL    HW279801  14.856  10.139   1.793
59302SOL     OW79802  10.457   5.301   6.932
59302SOL    HW179803  10.405   5.266   6.860
59302SOL    HW279804  10.483   5.389   6.903
59303SOL     OW79805  13.807  12.141   7.354
59303SOL    HW179806  13.878  12.107   7.408
59303SOL    HW279807  13.728  12.128   7.406
59304SOL     OW79808  12.198   1.060   5.676
59304SOL    HW179809  12.118   1.008   5.672
59304SOL    HW279810  12.167   1.148   5.701
59305SOL     OW79811  11.619   3.932   4.332
59305SOL    HW179812  11.556   3.998   4.303
59305SOL    HW279813  11.673   3.914   4.255
59306SOL     OW79814   0.820   1.173   5.709
59306SOL    HW179815   0.828   1.080   5.726
59306SOL    HW279816   0.748   1.202   5.765
59307SOL     OW79817  11.095  13.117   7.866
59307SOL    HW179818  11.179  13.122   7.911
59307SOL    HW279819  11.041  13.185   7.908
59308SOL     OW79820   0.086   6.958   2.448
59308SOL    HW179821   0.142   6.916   2.513
59308SOL    HW279822   0.008   6.984   2.496
59309SOL     OW79823   5.142   8.100   0.444
59309SOL    HW179824   5.222   8.129   0.400
59309SOL    HW279825   5.086   8.068   0.374
59310SOL     OW79826   0.189   1.446  13.279
59310SOL    HW179827   0.266   1.490  13.315
59310SOL    HW279828   0.223   1.363  13.243
59311SOL     OW79829  10.336   6.250   7.069
59311SOL    HW179830  10.371   6.338   7.050
59311SOL    HW279831  10.277   6.264   7.143
59312SOL     OW79832  13.403   9.655  10.161
59312SOL    HW179833  13.341   9.612  10.220
59312SOL    HW279834  13.462   9.704  10.218
59313SOL     OW79835  13.413   9.163   1.392
59313SOL    HW179836  13.360   9.175   1.313
59313SOL    HW279837  13.430   9.069   1.395
59314SOL     OW79838   6.018  11.730   4.250
59314SOL    HW179839   6.030  11.774   4.166
59314SOL    HW279840   5.982  11.644   4.227
59315SOL     OW79841   2.676   0.367   1.742
59315SOL    HW179842   2.660   0.461   1.754
59315SOL    HW279843   2.700   0.359   1.649
59316SOL     OW79844  12.472   0.904  12.586
59316SOL    HW179845  12.497   0.837  12.522
59316SOL    HW279846  12.534   0.975  12.571
59317SOL     OW79847   5.742   1.926   6.676
59317SOL    HW179848   5.706   1.939   6.763
59317SOL    HW279849   5.778   1.837   6.678
59318SOL     OW79850   3.029  11.494   0.926
59318SOL    HW179851   3.052  11.586   0.930
59318SOL    HW279852   3.004  11.471   1.015
59319SOL     OW79853   1.961   8.789   5.685
59319SOL    HW179854   1.899   8.717   5.684
59319SOL    HW279855   1.930   8.849   5.618
59320SOL     OW79856   2.076   7.453  10.690
59320SOL    HW179857   2.001   7.513  10.688
59320SOL    HW279858   2.085   7.424  10.599
59321SOL     OW79859   2.422  14.621  11.812
59321SOL    HW179860   2.476  14.597  11.886
59321SOL    HW279861   2.363  14.689  11.846
59322SOL     OW79862  12.461  10.042   8.211
59322SOL    HW179863  12.521  10.004   8.147
59322SOL    HW279864  12.486  10.003   8.295
59323SOL     OW79865   5.089  11.437   3.406
59323SOL    HW179866   5.032  11.372   3.445
59323SOL    HW279867   5.059  11.444   3.315
59324SOL     OW79868   8.805   6.435  14.207
59324SOL    HW179869   8.807   6.524  14.172
59324SOL    HW279870   8.895   6.404  14.200
59325SOL     OW79871   4.961   4.319   5.781
59325SOL    HW179872   5.052   4.326   5.810
59325SOL    HW279873   4.933   4.410   5.770
59326SOL     OW79874  11.908   6.027   1.076
59326SOL    HW179875  11.873   5.938   1.068
59326SOL    HW279876  11.848   6.072   1.135
59327SOL     OW79877  11.746   9.624   3.429
59327SOL    HW179878  11.803   9.627   3.352
59327SOL    HW279879  11.664   9.586   3.397
59328SOL     OW79880   3.985  13.331  13.905
59328SOL    HW179881   3.924  13.405  13.905
59328SOL    HW279882   4.066  13.367  13.942
59329SOL     OW79883  10.520   4.896   7.473
59329SOL    HW179884  10.581   4.962   7.441
59329SOL    HW279885  10.498   4.844   7.395
59330SOL     OW79886  12.772  12.921  11.204
59330SOL    HW179887  12.706  12.956  11.265
59330SOL    HW279888  12.785  12.992  11.141
59331SOL     OW79889   0.032  10.966   2.631
59331SOL    HW179890   0.080  10.889   2.598
59331SOL    HW279891   0.048  10.965   2.725
59332SOL     OW79892   1.041   5.816   4.783
59332SOL    HW179893   1.036   5.720   4.787
59332SOL    HW279894   0.954   5.846   4.808
59333SOL     OW79895   7.737   2.971  10.759
59333SOL    HW179896   7.697   3.036  10.701
59333SOL    HW279897   7.664   2.940  10.813
59334SOL     OW79898   3.380   5.806   3.233
59334SOL    HW179899   3.466   5.775   3.206
59334SOL    HW279900   3.358   5.874   3.169
59335SOL     OW79901   1.637   2.049   5.893
59335SOL    HW179902   1.677   2.049   5.806
59335SOL    HW279903   1.676   1.974   5.937
59336SOL     OW79904   2.896   2.094   7.017
59336SOL    HW179905   2.991   2.092   7.011
59336SOL    HW279906   2.873   2.011   7.060
59337SOL     OW79907  10.078   8.395   5.686
59337SOL    HW179908  10.013   8.438   5.630
59337SOL    HW279909  10.081   8.305   5.655
59338SOL     OW79910  12.173   3.041   9.172
59338SOL    HW179911  12.266   3.024   9.186
59338SOL    HW279912  12.138   3.059   9.259
59339SOL     OW79913  11.283   1.677   4.065
59339SOL    HW179914  11.267   1.771   4.060
59339SOL    HW279915  11.206   1.642   4.111
59340SOL     OW79916  12.597   6.625   7.790
59340SOL    HW179917  12.518   6.644   7.740
59340SOL    HW279918  12.570   6.559   7.854
59341SOL     OW79919   9.287   6.435  12.058
59341SOL    HW179920   9.323   6.362  12.008
59341SOL    HW279921   9.310   6.513  12.007
59342SOL     OW79922   6.893   8.042   4.171
59342SOL    HW179923   6.821   8.096   4.138
59342SOL    HW279924   6.948   8.104   4.220
59343SOL     OW79925   4.487  13.091   6.478
59343SOL    HW179926   4.431  13.158   6.518
59343SOL    HW279927   4.482  13.109   6.384
59344SOL     OW79928  13.134   7.303   6.783
59344SOL    HW179929  13.086   7.333   6.860
59344SOL    HW279930  13.186   7.228   6.814
59345SOL     OW79931   5.121   1.037  14.552
59345SOL    HW179932   5.071   0.958  14.570
59345SOL    HW279933   5.156   1.025  14.464
59346SOL     OW79934  13.092   9.205   6.123
59346SOL    HW179935  13.011   9.158   6.098
59346SOL    HW279936  13.155   9.135   6.139
59347SOL     OW79937   5.169   1.002   6.976
59347SOL    HW179938   5.180   0.941   6.903
59347SOL    HW279939   5.074   1.005   6.990
59348SOL     OW79940  14.451   7.724   9.721
59348SOL    HW179941  14.438   7.644   9.669
59348SOL    HW279942  14.370   7.733   9.772
59349SOL     OW79943   0.891   0.805   5.810
59349SOL    HW179944   0.796   0.797   5.818
59349SOL    HW279945   0.926   0.726   5.851
59350SOL     OW79946   0.005   5.509   4.974
59350SOL    HW179947   0.093   5.543   4.985
59350SOL    HW279948  14.853   5.527   4.882
59351SOL     OW79949  10.832   5.625  13.645
59351SOL    HW179950  10.927   5.610  13.636
59351SOL    HW279951  10.822   5.719  13.637
59352SOL     OW79952  13.205  12.019   4.715
59352SOL    HW179953  13.161  12.001   4.798
59352SOL    HW279954  13.294  12.045   4.741
59353SOL     OW79955  11.227  12.220  13.863
59353SOL    HW179956  11.303  12.163  13.874
59353SOL    HW279957  11.194  12.234  13.952
59354SOL     OW79958   9.500   9.682  13.028
59354SOL    HW179959   9.458   9.767  13.017
59354SOL    HW279960   9.582   9.688  12.979
59355SOL     OW79961  14.630  13.336   8.318
59355SOL    HW179962  14.633  13.246   8.348
59355SOL    HW279963  14.692  13.383   8.374
59356SOL     OW79964   5.715  10.964   3.573
59356SOL    HW179965   5.744  10.880   3.608
59356SOL    HW279966   5.780  11.027   3.605
59357SOL     OW79967   2.563  10.100  14.164
59357SOL    HW179968   2.550  10.160  14.090
59357SOL    HW279969   2.618  10.150  14.225
59358SOL     OW79970   5.802   4.068  11.420
59358SOL    HW179971   5.759   4.071  11.335
59358SOL    HW279972   5.748   4.008  11.473
59359SOL     OW79973   7.414  13.304  14.024
59359SOL    HW179974   7.504  13.277  14.043
59359SOL    HW279975   7.366  13.289  14.106
59360SOL     OW79976  11.196   1.997  12.917
59360SOL    HW179977  11.115   2.006  12.867
59360SOL    HW279978  11.172   1.942  12.992
59361SOL     OW79979   2.288   7.439  14.407
59361SOL    HW179980   2.221   7.374  14.386
59361SOL    HW279981   2.325   7.464  14.322
59362SOL     OW79982   5.426  11.135   1.856
59362SOL    HW179983   5.375  11.200   1.904
59362SOL    HW279984   5.449  11.179   1.774
59363SOL     OW79985  14.387  13.505  14.531
59363SOL    HW179986  14.455  13.572  14.522
59363SOL    HW279987  14.308  13.554  14.553
59364SOL     OW79988   1.426   0.626  12.616
59364SOL    HW179989   1.365   0.617  12.689
59364SOL    HW279990   1.423   0.719  12.593
59365SOL     OW79991   4.128   6.314  12.928
59365SOL    HW179992   4.102   6.364  13.005
59365SOL    HW279993   4.196   6.255  12.959
59366SOL     OW79994   7.249  10.984  13.042
59366SOL    HW179995   7.209  10.927  12.977
59366SOL    HW279996   7.199  10.968  13.122
59367SOL     OW79997  12.819   1.088   2.360
59367SOL    HW179998  12.858   1.159   2.411
59367SOL    HW279999  12.873   1.082   2.281
59368SOL     OW80000   4.293   2.119   1.940
59368SOL    HW180001   4.324   2.101   1.851
59368SOL    HW280002   4.301   2.035   1.986
59369SOL     OW80003   8.935   3.336   9.950
59369SOL    HW180004   8.920   3.392  10.026
59369SOL    HW280005   8.848   3.310   9.920
59370SOL     OW80006  12.564   4.807   9.596
59370SOL    HW180007  12.626   4.834   9.664
59370SOL    HW280008  12.581   4.714   9.583
59371SOL     OW80009   3.073   9.706  13.586
59371SOL    HW180010   3.086   9.800  13.571
59371SOL    HW280011   2.979   9.693  13.578
59372SOL     OW80012   3.668   5.993   0.984
59372SOL    HW180013   3.611   5.917   0.986
59372SOL    HW280014   3.648   6.041   1.064
59373SOL     OW80015  12.800   0.639  10.926
59373SOL    HW180016  12.852   0.717  10.906
59373SOL    HW280017  12.829   0.574  10.862
59374SOL     OW80018   7.852  10.529   6.189
59374SOL    HW180019   7.802  10.451   6.212
59374SOL    HW280020   7.921  10.535   6.256
59375SOL     OW80021   7.309   7.851   6.672
59375SOL    HW180022   7.305   7.930   6.725
59375SOL    HW280023   7.246   7.791   6.713
59376SOL     OW80024   1.384  12.381   6.418
59376SOL    HW180025   1.318  12.323   6.458
59376SOL    HW280026   1.355  12.391   6.327
59377SOL     OW80027   1.010   5.604   5.766
59377SOL    HW180028   1.096   5.596   5.806
59377SOL    HW280029   0.997   5.699   5.757
59378SOL     OW80030  12.673   4.927   5.564
59378SOL    HW180031  12.697   4.886   5.647
59378SOL    HW280032  12.676   5.021   5.582
59379SOL     OW80033  10.627   2.630   7.235
59379SOL    HW180034  10.629   2.725   7.237
59379SOL    HW280035  10.711   2.603   7.272
59380SOL     OW80036   8.806  13.722  11.761
59380SOL    HW180037   8.844  13.639  11.732
59380SOL    HW280038   8.871  13.788  11.736
59381SOL     OW80039  13.205   3.488   2.815
59381SOL    HW180040  13.113   3.489   2.844
59381SOL    HW280041  13.242   3.567   2.853
59382SOL     OW80042   6.548   4.397   6.747
59382SOL    HW180043   6.469   4.413   6.798
59382SOL    HW280044   6.527   4.430   6.660
59383SOL     OW80045   2.250   3.341  11.583
59383SOL    HW180046   2.299   3.285  11.522
59383SOL    HW280047   2.202   3.280  11.639
59384SOL     OW80048   2.396   5.542   8.405
59384SOL    HW180049   2.433   5.530   8.493
59384SOL    HW280050   2.466   5.585   8.356
59385SOL     OW80051   9.331   9.790   7.196
59385SOL    HW180052   9.402   9.775   7.257
59385SOL    HW280053   9.268   9.720   7.213
59386SOL     OW80054   8.992  12.042   6.235
59386SOL    HW180055   8.923  12.107   6.249
59386SOL    HW280056   9.043  12.077   6.161
59387SOL     OW80057   9.813  13.016   7.720
59387SOL    HW180058   9.857  13.007   7.804
59387SOL    HW280059   9.724  13.044   7.742
59388SOL     OW80060   8.685   9.238  12.796
59388SOL    HW180061   8.687   9.304  12.727
59388SOL    HW280062   8.695   9.287  12.878
59389SOL     OW80063   4.741   6.323   0.453
59389SOL    HW180064   4.700   6.237   0.464
59389SOL    HW280065   4.668   6.384   0.447
59390SOL     OW80066  14.483   3.670  12.788
59390SOL    HW180067  14.440   3.741  12.835
59390SOL    HW280068  14.410   3.619  12.751
59391SOL     OW80069   4.499  11.459   4.432
59391SOL    HW180070   4.525  11.545   4.464
59391SOL    HW280071   4.406  11.468   4.409
59392SOL     OW80072   3.328   2.135  12.302
59392SOL    HW180073   3.299   2.089  12.381
59392SOL    HW280074   3.302   2.076  12.230
59393SOL     OW80075  14.696   3.844  10.304
59393SOL    HW180076  14.790   3.847  10.321
59393SOL    HW280077  14.661   3.785  10.370
59394SOL     OW80078  13.181   4.392   4.749
59394SOL    HW180079  13.148   4.334   4.817
59394SOL    HW280080  13.120   4.466   4.748
59395SOL     OW80081   9.011   3.763   5.690
59395SOL    HW180082   9.087   3.705   5.689
59395SOL    HW280083   8.937   3.705   5.710
59396SOL     OW80084   3.421   0.416  10.584
59396SOL    HW180085   3.491   0.463  10.538
59396SOL    HW280086   3.457   0.328  10.599
59397SOL     OW80087   5.237   8.569   6.433
59397SOL    HW180088   5.236   8.488   6.486
59397SOL    HW280089   5.280   8.544   6.351
59398SOL     OW80090   7.775   2.402   3.344
59398SOL    HW180091   7.725   2.481   3.363
59398SOL    HW280092   7.820   2.382   3.426
59399SOL     OW80093   6.877  12.804  11.074
59399SOL    HW180094   6.828  12.882  11.099
59399SOL    HW280095   6.923  12.828  10.994
59400SOL     OW80096   1.616   5.689   4.297
59400SOL    HW180097   1.520   5.691   4.300
59400SOL    HW280098   1.643   5.714   4.386
59401SOL     OW80099   3.170   9.865   6.830
59401SOL    HW180100   3.251   9.914   6.824
59401SOL    HW280101   3.139   9.857   6.739
59402SOL     OW80102   2.177   7.926   0.097
59402SOL    HW180103   2.131   7.861   0.043
59402SOL    HW280104   2.240   7.967   0.037
59403SOL     OW80105   4.920   9.684  12.929
59403SOL    HW180106   4.944   9.770  12.894
59403SOL    HW280107   4.978   9.671  13.003
59404SOL     OW80108  10.544  10.925  12.118
59404SOL    HW180109  10.470  10.898  12.172
59404SOL    HW280110  10.506  10.986  12.055
59405SOL     OW80111   0.519   9.677   1.805
59405SOL    HW180112   0.463   9.755   1.807
59405SOL    HW280113   0.502   9.638   1.719
59406SOL     OW80114   6.815   7.086  10.436
59406SOL    HW180115   6.765   7.136  10.501
59406SOL    HW280116   6.881   7.148  10.405
59407SOL     OW80117  13.957   4.583   4.761
59407SOL    HW180118  13.866   4.585   4.788
59407SOL    HW280119  14.003   4.635   4.827
59408SOL     OW80120   6.420   6.741   9.786
59408SOL    HW180121   6.361   6.712   9.717
59408SOL    HW280122   6.410   6.676   9.856
59409SOL     OW80123   5.875   8.690   4.837
59409SOL    HW180124   5.789   8.647   4.842
59409SOL    HW280125   5.927   8.647   4.905
59410SOL     OW80126   2.638   5.220   5.482
59410SOL    HW180127   2.557   5.172   5.466
59410SOL    HW280128   2.688   5.162   5.540
59411SOL     OW80129   3.536   4.009   0.280
59411SOL    HW180130   3.485   4.085   0.308
59411SOL    HW280131   3.470   3.945   0.253
59412SOL     OW80132   1.586   8.810   9.370
59412SOL    HW180133   1.579   8.734   9.427
59412SOL    HW280134   1.608   8.882   9.429
59413SOL     OW80135   6.141  14.844   1.199
59413SOL    HW180136   6.110   0.050   1.150
59413SOL    HW280137   6.186  14.790   1.134
59414SOL     OW80138  12.110   9.311   7.570
59414SOL    HW180139  12.168   9.252   7.616
59414SOL    HW280140  12.168   9.377   7.532
59415SOL     OW80141  13.954   2.723  10.189
59415SOL    HW180142  13.941   2.679  10.106
59415SOL    HW280143  13.916   2.664  10.254
59416SOL     OW80144   2.795   5.117   5.261
59416SOL    HW180145   2.723   5.160   5.215
59416SOL    HW280146   2.752   5.054   5.318
59417SOL     OW80147   1.417   5.957  13.196
59417SOL    HW180148   1.349   6.000  13.248
59417SOL    HW280149   1.403   5.988  13.106
59418SOL     OW80150   7.400   9.466   3.529
59418SOL    HW180151   7.309   9.440   3.515
59418SOL    HW280152   7.425   9.424   3.611
59419SOL     OW80153  12.897  11.927   4.540
59419SOL    HW180154  12.971  11.867   4.545
59419SOL    HW280155  12.848  11.899   4.463
59420SOL     OW80156   4.622   5.980   6.853
59420SOL    HW180157   4.607   5.893   6.817
59420SOL    HW280158   4.613   5.969   6.948
59421SOL     OW80159   9.679  12.617   3.830
59421SOL    HW180160   9.718  12.694   3.872
59421SOL    HW280161   9.683  12.636   3.736
59422SOL     OW80162   3.864   0.683   7.112
59422SOL    HW180163   3.948   0.696   7.068
59422SOL    HW280164   3.862   0.750   7.181
59423SOL     OW80165   0.634  11.020   4.635
59423SOL    HW180166   0.650  10.945   4.579
59423SOL    HW280167   0.721  11.057   4.651
59424SOL     OW80168   9.136  13.418   0.289
59424SOL    HW180169   9.073  13.486   0.314
59424SOL    HW280170   9.185  13.400   0.370
59425SOL     OW80171   6.107   7.418  13.123
59425SOL    HW180172   6.171   7.372  13.068
59425SOL    HW280173   6.156   7.443  13.201
59426SOL     OW80174  10.595   8.884  12.313
59426SOL    HW180175  10.530   8.951  12.335
59426SOL    HW280176  10.557   8.838  12.239
59427SOL     OW80177   5.883   1.461   0.860
59427SOL    HW180178   5.846   1.443   0.946
59427SOL    HW280179   5.956   1.400   0.852
59428SOL     OW80180   0.327   5.070   2.823
59428SOL    HW180181   0.322   5.070   2.919
59428SOL    HW280182   0.236   5.074   2.794
59429SOL     OW80183  14.598   0.512   9.166
59429SOL    HW180184  14.630   0.422   9.168
59429SOL    HW280185  14.553   0.519   9.081
59430SOL     OW80186   3.322   7.495   1.358
59430SOL    HW180187   3.329   7.472   1.266
59430SOL    HW280188   3.228   7.488   1.377
59431SOL     OW80189   8.935  13.811   9.541
59431SOL    HW180190   8.938  13.812   9.445
59431SOL    HW280191   9.019  13.775   9.567
59432SOL     OW80192  10.768  13.712   5.693
59432SOL    HW180193  10.716  13.760   5.629
59432SOL    HW280194  10.759  13.620   5.668
59433SOL     OW80195  13.818   8.102  11.955
59433SOL    HW180196  13.750   8.116  12.021
59433SOL    HW280197  13.841   8.009  11.964
59434SOL     OW80198   0.935   4.954   7.490
59434SOL    HW180199   1.017   4.997   7.513
59434SOL    HW280200   0.921   4.978   7.398
59435SOL     OW80201   1.457   6.688   3.310
59435SOL    HW180202   1.537   6.730   3.280
59435SOL    HW280203   1.478   6.655   3.397
59436SOL     OW80204  10.644   6.349   1.199
59436SOL    HW180205  10.645   6.443   1.180
59436SOL    HW280206  10.657   6.307   1.113
59437SOL     OW80207  11.498   7.202   3.907
59437SOL    HW180208  11.522   7.290   3.880
59437SOL    HW280209  11.498   7.150   3.826
59438SOL     OW80210   7.290   8.343   3.183
59438SOL    HW180211   7.359   8.390   3.229
59438SOL    HW280212   7.234   8.308   3.252
59439SOL     OW80213   3.074   1.627  14.461
59439SOL    HW180214   3.158   1.626  14.508
59439SOL    HW280215   3.055   1.534  14.444
59440SOL     OW80216  14.016   9.067  10.777
59440SOL    HW180217  14.106   9.096  10.764
59440SOL    HW280218  14.009   9.051  10.871
59441SOL     OW80219   0.254   7.110   1.517
59441SOL    HW180220   0.247   7.022   1.479
59441SOL    HW280221   0.242   7.097   1.611
59442SOL     OW80222  13.852   9.690   8.435
59442SOL    HW180223  13.760   9.685   8.462
59442SOL    HW280224  13.861   9.777   8.397
59443SOL     OW80225   6.784   8.136   6.167
59443SOL    HW180226   6.759   8.159   6.077
59443SOL    HW280227   6.703   8.109   6.209
59444SOL     OW80228  14.312   9.790  13.029
59444SOL    HW180229  14.332   9.796  13.122
59444SOL    HW280230  14.384   9.835  12.985
59445SOL     OW80231   3.932   4.233   0.049
59445SOL    HW180232   3.971   4.266   0.130
59445SOL    HW280233   3.978   4.151   0.031
59446SOL     OW80234  12.268   3.804  13.569
59446SOL    HW180235  12.340   3.849  13.525
59446SOL    HW280236  12.198   3.801  13.503
59447SOL     OW80237   3.562   1.407  13.430
59447SOL    HW180238   3.567   1.312  13.420
59447SOL    HW280239   3.580   1.441  13.342
59448SOL     OW80240   6.833   4.515  12.119
59448SOL    HW180241   6.892   4.583  12.089
59448SOL    HW280242   6.888   4.456  12.170
59449SOL     OW80243  10.675  11.446   5.392
59449SOL    HW180244  10.593  11.409   5.425
59449SOL    HW280245  10.649  11.530   5.353
59450SOL     OW80246  12.229   2.078   2.119
59450SOL    HW180247  12.214   2.118   2.204
59450SOL    HW280248  12.309   2.028   2.129
59451SOL     OW80249   3.497   7.139   3.569
59451SOL    HW180250   3.530   7.188   3.494
59451SOL    HW280251   3.409   7.111   3.543
59452SOL     OW80252   2.524   0.972  13.916
59452SOL    HW180253   2.444   1.000  13.872
59452SOL    HW280254   2.533   1.032  13.990
59453SOL     OW80255  11.659  12.056  13.948
59453SOL    HW180256  11.647  12.132  14.005
59453SOL    HW280257  11.671  12.093  13.861
59454SOL     OW80258   9.961  11.672  12.689
59454SOL    HW180259   9.923  11.757  12.709
59454SOL    HW280260   9.921  11.612  12.752
59455SOL     OW80261   0.526   9.051   2.559
59455SOL    HW180262   0.431   9.057   2.552
59455SOL    HW280263   0.558   9.075   2.472
59456SOL     OW80264   3.146   5.599   5.242
59456SOL    HW180265   3.088   5.526   5.262
59456SOL    HW280266   3.140   5.610   5.147
59457SOL     OW80267   1.295   0.223   2.582
59457SOL    HW180268   1.325   0.310   2.609
59457SOL    HW280269   1.261   0.236   2.493
59458SOL     OW80270   7.614   4.525   1.924
59458SOL    HW180271   7.538   4.508   1.981
59458SOL    HW280272   7.590   4.487   1.840
59459SOL     OW80273   5.266   7.883  12.766
59459SOL    HW180274   5.230   7.902  12.853
59459SOL    HW280275   5.332   7.815  12.782
59460SOL     OW80276   0.577   0.196   3.190
59460SOL    HW180277   0.630   0.179   3.113
59460SOL    HW280278   0.638   0.233   3.254
59461SOL     OW80279  14.806  14.038   9.774
59461SOL    HW180280   0.004  14.056   9.839
59461SOL    HW280281  14.788  14.124   9.735
59462SOL     OW80282   3.528   0.494  12.026
59462SOL    HW180283   3.503   0.413  11.981
59462SOL    HW280284   3.551   0.466  12.114
59463SOL     OW80285   4.443   0.198  11.077
59463SOL    HW180286   4.478   0.238  11.157
59463SOL    HW280287   4.402   0.270  11.030
59464SOL     OW80288  14.028   3.032  14.060
59464SOL    HW180289  14.022   2.937  14.070
59464SOL    HW280290  13.951   3.055  14.008
59465SOL     OW80291   3.125   7.719  10.584
59465SOL    HW180292   3.065   7.792  10.593
59465SOL    HW280293   3.208   7.759  10.557
59466SOL     OW80294  10.547  11.590   8.426
59466SOL    HW180295  10.602  11.661   8.460
59466SOL    HW280296  10.485  11.634   8.367
59467SOL     OW80297   4.146   7.970   0.395
59467SOL    HW180298   4.223   7.929   0.356
59467SOL    HW280299   4.161   7.967   0.489
59468SOL     OW80300   6.515   6.439  11.760
59468SOL    HW180301   6.428   6.434  11.720
59468SOL    HW280302   6.506   6.503  11.830
59469SOL     OW80303   3.688   1.762  14.625
59469SOL    HW180304   3.782   1.745  14.615
59469SOL    HW280305   3.659   1.789  14.537
59470SOL     OW80306   2.454   6.134   7.066
59470SOL    HW180307   2.474   6.064   7.128
59470SOL    HW280308   2.534   6.187   7.063
59471SOL     OW80309   6.555  10.975   2.058
59471SOL    HW180310   6.642  11.001   2.090
59471SOL    HW280311   6.572  10.894   2.009
59472SOL     OW80312   4.449   0.943   3.743
59472SOL    HW180313   4.377   0.885   3.717
59472SOL    HW280314   4.413   0.997   3.814
59473SOL     OW80315  10.062  14.591   5.064
59473SOL    HW180316  10.115  14.569   5.141
59473SOL    HW280317   9.996  14.521   5.060
59474SOL     OW80318  11.365   0.753   0.685
59474SOL    HW180319  11.316   0.828   0.650
59474SOL    HW280320  11.456   0.773   0.666
59475SOL     OW80321   3.377   1.435  12.353
59475SOL    HW180322   3.311   1.504  12.339
59475SOL    HW280323   3.336   1.355  12.320
59476SOL     OW80324  11.288  13.779   9.886
59476SOL    HW180325  11.333  13.716   9.942
59476SOL    HW280326  11.200  13.744   9.875
59477SOL     OW80327  12.615   4.469   4.984
59477SOL    HW180328  12.613   4.557   4.947
59477SOL    HW280329  12.544   4.470   5.049
59478SOL     OW80330   8.533  13.506   0.620
59478SOL    HW180331   8.609  13.451   0.640
59478SOL    HW280332   8.562  13.560   0.546
59479SOL     OW80333   5.837  12.853  11.208
59479SOL    HW180334   5.824  12.914  11.280
59479SOL    HW280335   5.931  12.859  11.189
59480SOL     OW80336   8.438   8.018   4.716
59480SOL    HW180337   8.411   8.109   4.730
59480SOL    HW280338   8.356   7.968   4.719
59481SOL     OW80339   8.122   2.520   1.534
59481SOL    HW180340   8.127   2.444   1.477
59481SOL    HW280341   8.095   2.486   1.618
59482SOL     OW80342  14.351   6.032   6.810
59482SOL    HW180343  14.295   6.018   6.886
59482SOL    HW280344  14.305   5.987   6.739
59483SOL     OW80345   2.374  14.518  11.549
59483SOL    HW180346   2.445  14.455  11.561
59483SOL    HW280347   2.369  14.564  11.633
59484SOL     OW80348   9.300  10.405   7.418
59484SOL    HW180349   9.234  10.470   7.394
59484SOL    HW280350   9.313  10.418   7.512
59485SOL     OW80351   8.467  13.775   8.908
59485SOL    HW180352   8.498  13.858   8.873
59485SOL    HW280353   8.380  13.795   8.942
59486SOL     OW80354   6.777   9.106  12.311
59486SOL    HW180355   6.758   9.196  12.284
59486SOL    HW280356   6.829   9.070  12.240
59487SOL     OW80357   9.356   5.091  11.254
59487SOL    HW180358   9.409   5.097  11.334
59487SOL    HW280359   9.336   4.998  11.245
59488SOL     OW80360  14.351   9.714   9.275
59488SOL    HW180361  14.384   9.778   9.212
59488SOL    HW280362  14.404   9.727   9.353
59489SOL     OW80363   0.537   5.257  10.234
59489SOL    HW180364   0.463   5.203  10.205
59489SOL    HW280365   0.599   5.194  10.270
59490SOL     OW80366   2.440   3.090   6.928
59490SOL    HW180367   2.533   3.101   6.909
59490SOL    HW280368   2.435   3.087   7.023
59491SOL     OW80369   3.825  11.237   4.278
59491SOL    HW180370   3.809  11.179   4.203
59491SOL    HW280371   3.758  11.304   4.271
59492SOL     OW80372   3.228   5.742   8.871
59492SOL    HW180373   3.232   5.647   8.870
59492SOL    HW280374   3.305   5.769   8.920
59493SOL     OW80375  12.302  13.748   6.638
59493SOL    HW180376  12.388  13.773   6.673
59493SOL    HW280377  12.264  13.830   6.606
59494SOL     OW80378   5.736  10.392   6.360
59494SOL    HW180379   5.823  10.384   6.322
59494SOL    HW280380   5.704  10.478   6.331
59495SOL     OW80381   3.126   5.143  11.602
59495SOL    HW180382   3.100   5.206  11.669
59495SOL    HW280383   3.131   5.059  11.648
59496SOL     OW80384   9.850   8.495   0.097
59496SOL    HW180385   9.857   8.476   0.003
59496SOL    HW280386   9.757   8.512   0.111
59497SOL     OW80387   3.177   2.369  10.621
59497SOL    HW180388   3.212   2.339  10.705
59497SOL    HW280389   3.222   2.452  10.605
59498SOL     OW80390   9.470   0.375   5.031
59498SOL    HW180391   9.398   0.368   4.969
59498SOL    HW280392   9.427   0.395   5.115
59499SOL     OW80393  12.374   4.994   1.770
59499SOL    HW180394  12.459   4.953   1.757
59499SOL    HW280395  12.393   5.076   1.815
59500SOL     OW80396   4.564   0.445   6.353
59500SOL    HW180397   4.624   0.487   6.415
59500SOL    HW280398   4.606   0.456   6.268
59501SOL     OW80399   0.389   4.026   6.101
59501SOL    HW180400   0.332   4.102   6.089
59501SOL    HW280401   0.389   3.982   6.016
59502SOL     OW80402   1.913   2.809   6.278
59502SOL    HW180403   1.955   2.770   6.354
59502SOL    HW280404   1.898   2.900   6.304
59503SOL     OW80405   2.608   7.911   5.529
59503SOL    HW180406   2.663   7.838   5.555
59503SOL    HW280407   2.643   7.986   5.577
59504SOL     OW80408   0.724   5.036   1.741
59504SOL    HW180409   0.795   5.011   1.682
59504SOL    HW280410   0.766   5.094   1.805
59505SOL     OW80411  12.553  10.733   3.511
59505SOL    HW180412  12.497  10.782   3.450
59505SOL    HW280413  12.536  10.774   3.596
59506SOL     OW80414   1.408   3.082   8.208
59506SOL    HW180415   1.366   3.130   8.279
59506SOL    HW280416   1.431   3.149   8.144
59507SOL     OW80417   0.421   9.675   2.878
59507SOL    HW180418   0.384   9.752   2.834
59507SOL    HW280419   0.363   9.603   2.852
59508SOL     OW80420   1.553   3.101  12.117
59508SOL    HW180421   1.468   3.146  12.120
59508SOL    HW280422   1.613   3.160  12.163
59509SOL     OW80423   7.661   8.131  14.406
59509SOL    HW180424   7.624   8.158  14.490
59509SOL    HW280425   7.755   8.126  14.421
59510SOL     OW80426   9.030   1.612  13.637
59510SOL    HW180427   8.937   1.634  13.645
59510SOL    HW280428   9.066   1.627  13.724
59511SOL     OW80429  10.293   1.742   0.046
59511SOL    HW180430  10.324   1.783  14.834
59511SOL    HW280431  10.358   1.675   0.065
59512SOL     OW80432  10.862   4.031   3.563
59512SOL    HW180433  10.914   4.074   3.494
59512SOL    HW280434  10.834   3.948   3.525
59513SOL     OW80435   7.663   9.738   8.284
59513SOL    HW180436   7.722   9.739   8.208
59513SOL    HW280437   7.699   9.806   8.342
59514SOL     OW80438   0.264  10.367   3.191
59514SOL    HW180439   0.217  10.305   3.135
59514SOL    HW280440   0.298  10.433   3.130
59515SOL     OW80441   0.477   0.492  12.394
59515SOL    HW180442   0.430   0.409  12.390
59515SOL    HW280443   0.436   0.540  12.466
59516SOL     OW80444   8.884  13.887  10.000
59516SOL    HW180445   8.850  13.867   9.913
59516SOL    HW280446   8.947  13.816  10.018
59517SOL     OW80447   0.035  14.287   2.382
59517SOL    HW180448   0.118  14.332   2.403
59517SOL    HW280449  14.849  14.356   2.346
59518SOL     OW80450   9.456   6.470   1.041
59518SOL    HW180451   9.433   6.524   1.117
59518SOL    HW280452   9.389   6.402   1.039
59519SOL     OW80453   3.206   2.814  13.819
59519SOL    HW180454   3.129   2.838  13.768
59519SOL    HW280455   3.273   2.794  13.753
59520SOL     OW80456  14.858  12.037   2.618
59520SOL    HW180457   0.073  12.066   2.586
59520SOL    HW280458  14.835  11.963   2.561
59521SOL     OW80459  12.867  14.785  12.198
59521SOL    HW180460  12.909  14.706  12.162
59521SOL    HW280461  12.935  14.852  12.196
59522SOL     OW80462   6.807  10.412   5.555
59522SOL    HW180463   6.720  10.443   5.580
59522SOL    HW280464   6.794  10.372   5.468
59523SOL     OW80465   5.723  11.293  10.536
59523SOL    HW180466   5.724  11.388  10.546
59523SOL    HW280467   5.684  11.278  10.450
59524SOL     OW80468  10.861   1.920  10.851
59524SOL    HW180469  10.936   1.967  10.814
59524SOL    HW280470  10.791   1.933  10.788
59525SOL     OW80471  14.628   3.943   0.637
59525SOL    HW180472  14.678   3.864   0.660
59525SOL    HW280473  14.536   3.917   0.644
59526SOL     OW80474   3.363  11.462  11.158
59526SOL    HW180475   3.447  11.485  11.118
59526SOL    HW280476   3.379  11.470  11.252
59527SOL     OW80477   5.397   0.710  12.905
59527SOL    HW180478   5.422   0.681  12.993
59527SOL    HW280479   5.477   0.743  12.866
59528SOL     OW80480  11.818   8.850  12.691
59528SOL    HW180481  11.778   8.777  12.738
59528SOL    HW280482  11.863   8.901  12.758
59529SOL     OW80483   7.072   6.203   2.728
59529SOL    HW180484   7.042   6.267   2.793
59529SOL    HW280485   7.029   6.121   2.753
59530SOL     OW80486  13.269   4.341   7.740
59530SOL    HW180487  13.211   4.411   7.770
59530SOL    HW280488  13.290   4.292   7.820
59531SOL     OW80489   8.923   6.661   6.579
59531SOL    HW180490   8.894   6.581   6.534
59531SOL    HW280491   8.886   6.732   6.526
59532SOL     OW80492  11.962   7.432  11.333
59532SOL    HW180493  11.879   7.398  11.298
59532SOL    HW280494  11.989   7.498  11.270
59533SOL     OW80495   1.851  10.324   1.264
59533SOL    HW180496   1.897  10.407   1.259
59533SOL    HW280497   1.909  10.267   1.315
59534SOL     OW80498   7.108   8.690   9.712
59534SOL    HW180499   7.127   8.780   9.738
59534SOL    HW280500   7.014   8.690   9.694
59535SOL     OW80501   2.026  12.127   5.816
59535SOL    HW180502   1.949  12.169   5.779
59535SOL    HW280503   2.064  12.078   5.743
59536SOL     OW80504   9.930   4.347   2.448
59536SOL    HW180505   9.911   4.418   2.509
59536SOL    HW280506   9.962   4.390   2.369
59537SOL     OW80507   5.883  10.769  11.107
59537SOL    HW180508   5.973  10.799  11.098
59537SOL    HW280509   5.833  10.824  11.047
59538SOL     OW80510   2.834  11.546  13.341
59538SOL    HW180511   2.741  11.530  13.358
59538SOL    HW280512   2.837  11.637  13.310
59539SOL     OW80513  14.135   1.643  10.906
59539SOL    HW180514  14.198   1.582  10.867
59539SOL    HW280515  14.175   1.729  10.895
59540SOL     OW80516   7.896   7.143   5.859
59540SOL    HW180517   7.964   7.210   5.867
59540SOL    HW280518   7.896   7.098   5.944
59541SOL     OW80519   0.870   6.171   4.202
59541SOL    HW180520   0.883   6.093   4.148
59541SOL    HW280521   0.950   6.222   4.189
59542SOL     OW80522   3.763  10.904   9.820
59542SOL    HW180523   3.836  10.961   9.843
59542SOL    HW280524   3.689  10.964   9.809
59543SOL     OW80525   7.555   7.227   5.460
59543SOL    HW180526   7.550   7.286   5.535
59543SOL    HW280527   7.465   7.197   5.447
59544SOL     OW80528   4.245   7.466   3.413
59544SOL    HW180529   4.170   7.430   3.366
59544SOL    HW280530   4.309   7.484   3.345
59545SOL     OW80531   1.470  10.977   6.045
59545SOL    HW180532   1.377  10.996   6.054
59545SOL    HW280533   1.493  10.932   6.127
59546SOL     OW80534  14.768  14.521  10.731
59546SOL    HW180535  14.674  14.513  10.741
59546SOL    HW280536  14.802  14.434  10.748
59547SOL     OW80537   5.332   1.842   4.159
59547SOL    HW180538   5.336   1.755   4.198
59547SOL    HW280539   5.275   1.830   4.083
59548SOL     OW80540   0.672   0.048   2.357
59548SOL    HW180541   0.652  14.832   2.319
59548SOL    HW280542   0.721   0.094   2.289
59549SOL     OW80543   8.239  11.837  11.283
59549SOL    HW180544   8.333  11.855  11.277
59549SOL    HW280545   8.230  11.749  11.246
59550SOL     OW80546   8.855  14.355   4.027
59550SOL    HW180547   8.879  14.297   3.955
59550SOL    HW280548   8.924  14.341   4.092
59551SOL     OW80549   3.637   2.110  11.222
59551SOL    HW180550   3.584   2.142  11.149
59551SOL    HW280551   3.711   2.171  11.227
59552SOL     OW80552   1.289  11.312   1.685
59552SOL    HW180553   1.384  11.316   1.673
59552SOL    HW280554   1.255  11.381   1.628
59553SOL     OW80555   1.650   4.698  10.867
59553SOL    HW180556   1.730   4.673  10.913
59553SOL    HW280557   1.579   4.669  10.926
59554SOL     OW80558  14.588   9.746   2.384
59554SOL    HW180559  14.549   9.721   2.300
59554SOL    HW280560  14.669   9.790   2.361
59555SOL     OW80561   8.466  10.787   5.808
59555SOL    HW180562   8.392  10.770   5.867
59555SOL    HW280563   8.543  10.785   5.865
59556SOL     OW80564   1.152  12.335   8.440
59556SOL    HW180565   1.095  12.294   8.374
59556SOL    HW280566   1.237  12.344   8.396
59557SOL     OW80567   5.653   2.655  13.161
59557SOL    HW180568   5.722   2.662  13.095
59557SOL    HW280569   5.590   2.593  13.124
59558SOL     OW80570  12.854   0.672   4.539
59558SOL    HW180571  12.766   0.657   4.573
59558SOL    HW280572  12.855   0.765   4.515
59559SOL     OW80573   7.539   2.891  14.271
59559SOL    HW180574   7.522   2.886  14.365
59559SOL    HW280575   7.454   2.874  14.230
59560SOL     OW80576   8.489  14.515   4.612
59560SOL    HW180577   8.540  14.563   4.677
59560SOL    HW280578   8.466  14.433   4.655
59561SOL     OW80579  11.470  11.041  10.899
59561SOL    HW180580  11.482  11.102  10.972
59561SOL    HW280581  11.397  11.077  10.849
59562SOL     OW80582   1.750   5.491   3.888
59562SOL    HW180583   1.845   5.497   3.898
59562SOL    HW280584   1.737   5.427   3.818
59563SOL     OW80585   3.230   3.343   4.378
59563SOL    HW180586   3.186   3.400   4.316
59563SOL    HW280587   3.320   3.377   4.383
59564SOL     OW80588  11.908   5.525  11.232
59564SOL    HW180589  11.918   5.528  11.137
59564SOL    HW280590  11.921   5.433  11.255
59565SOL     OW80591   1.397   2.018   0.786
59565SOL    HW180592   1.431   2.083   0.725
59565SOL    HW280593   1.430   2.045   0.871
59566SOL     OW80594   1.669   3.704  14.739
59566SOL    HW180595   1.607   3.681  14.669
59566SOL    HW280596   1.668   3.800  14.740
59567SOL     OW80597   3.469   0.211   1.506
59567SOL    HW180598   3.408   0.144   1.474
59567SOL    HW280599   3.467   0.200   1.601
59568SOL     OW80600   5.826   3.168   5.184
59568SOL    HW180601   5.832   3.179   5.279
59568SOL    HW280602   5.740   3.129   5.170
59569SOL     OW80603   5.232   3.172  11.742
59569SOL    HW180604   5.201   3.174  11.833
59569SOL    HW280605   5.302   3.108  11.742
59570SOL     OW80606  11.745  14.811   3.483
59570SOL    HW180607  11.724  14.824   3.391
59570SOL    HW280608  11.793  14.728   3.486
59571SOL     OW80609   5.535  11.682   8.747
59571SOL    HW180610   5.525  11.736   8.669
59571SOL    HW280611   5.630  11.677   8.761
59572SOL     OW80612   1.591  14.261   7.431
59572SOL    HW180613   1.530  14.335   7.426
59572SOL    HW280614   1.674  14.298   7.400
59573SOL     OW80615   8.622  12.046   3.455
59573SOL    HW180616   8.529  12.035   3.476
59573SOL    HW280617   8.668  12.026   3.537
59574SOL     OW80618   3.204  12.118   1.494
59574SOL    HW180619   3.117  12.086   1.517
59574SOL    HW280620   3.262  12.042   1.506
59575SOL     OW80621   7.885   0.158   2.222
59575SOL    HW180622   7.886   0.230   2.285
59575SOL    HW280623   7.812   0.102   2.251
59576SOL     OW80624   0.682   4.880  12.093
59576SOL    HW180625   0.626   4.810  12.126
59576SOL    HW280626   0.771   4.852  12.113
59577SOL     OW80627   9.881   2.838  12.556
59577SOL    HW180628   9.839   2.923  12.568
59577SOL    HW280629   9.809   2.778  12.538
59578SOL     OW80630  11.093   9.637   8.092
59578SOL    HW180631  11.156   9.604   8.156
59578SOL    HW280632  11.090   9.731   8.108
59579SOL     OW80633   0.653   6.353  10.156
59579SOL    HW180634   0.661   6.403  10.075
59579SOL    HW280635   0.650   6.420  10.225
59580SOL     OW80636   4.641   2.830   6.554
59580SOL    HW180637   4.611   2.846   6.644
59580SOL    HW280638   4.587   2.757   6.524
59581SOL     OW80639   3.322   6.700   2.295
59581SOL    HW180640   3.290   6.753   2.222
59581SOL    HW280641   3.402   6.744   2.323
59582SOL     OW80642  12.060   9.765   7.027
59582SOL    HW180643  12.071   9.741   6.935
59582SOL    HW280644  12.042   9.681   7.071
59583SOL     OW80645   2.948   0.150  10.457
59583SOL    HW180646   2.991   0.177  10.376
59583SOL    HW280647   2.871   0.100  10.429
59584SOL     OW80648  10.118   2.891  12.271
59584SOL    HW180649  10.194   2.891  12.214
59584SOL    HW280650  10.151   2.859  12.355
59585SOL     OW80651   7.975   3.337   8.479
59585SOL    HW180652   7.955   3.424   8.445
59585SOL    HW280653   7.893   3.287   8.466
59586SOL     OW80654   4.133   8.717   2.870
59586SOL    HW180655   4.136   8.812   2.858
59586SOL    HW280656   4.187   8.702   2.948
59587SOL     OW80657   9.174  11.081  12.543
59587SOL    HW180658   9.107  11.092  12.476
59587SOL    HW280659   9.134  11.112  12.623
59588SOL     OW80660   9.378   4.767  12.884
59588SOL    HW180661   9.359   4.702  12.951
59588SOL    HW280662   9.402   4.715  12.807
59589SOL     OW80663   1.081   0.975   2.895
59589SOL    HW180664   1.167   1.016   2.904
59589SOL    HW280665   1.053   0.956   2.984
59590SOL     OW80666  13.452   6.618   1.992
59590SOL    HW180667  13.545   6.597   1.998
59590SOL    HW280668  13.411   6.569   2.063
59591SOL     OW80669   2.021   0.627  11.055
59591SOL    HW180670   2.113   0.651  11.043
59591SOL    HW280671   1.993   0.675  11.133
59592SOL     OW80672  12.533  11.194   7.885
59592SOL    HW180673  12.587  11.255   7.936
59592SOL    HW280674  12.584  11.113   7.883
59593SOL     OW80675   5.440   2.744  11.346
59593SOL    HW180676   5.475   2.829  11.372
59593SOL    HW280677   5.458   2.737  11.253
59594SOL     OW80678   0.314  12.813   5.338
59594SOL    HW180679   0.389  12.864   5.311
59594SOL    HW280680   0.351  12.729   5.367
59595SOL     OW80681   0.627   1.845   6.651
59595SOL    HW180682   0.717   1.864   6.624
59595SOL    HW280683   0.603   1.766   6.603
59596SOL     OW80684   9.727   8.912  12.386
59596SOL    HW180685   9.712   8.966  12.463
59596SOL    HW280686   9.720   8.973  12.312
59597SOL     OW80687  12.006   0.520  13.733
59597SOL    HW180688  12.024   0.477  13.650
59597SOL    HW280689  11.930   0.576  13.716
59598SOL     OW80690   9.691  14.186   5.881
59598SOL    HW180691   9.702  14.105   5.830
59598SOL    HW280692   9.628  14.238   5.830
59599SOL     OW80693  12.498   9.261   2.261
59599SOL    HW180694  12.555   9.335   2.282
59599SOL    HW280695  12.499   9.206   2.339
59600SOL     OW80696   6.798  10.393  11.008
59600SOL    HW180697   6.887  10.384  11.042
59600SOL    HW280698   6.804  10.460  10.941
59601SOL     OW80699   0.640  14.451   3.945
59601SOL    HW180700   0.655  14.492   4.030
59601SOL    HW280701   0.679  14.364   3.954
59602SOL     OW80702   1.375  14.506   6.582
59602SOL    HW180703   1.374  14.458   6.499
59602SOL    HW280704   1.298  14.473   6.629
59603SOL     OW80705  10.318   7.948   5.578
59603SOL    HW180706  10.371   7.958   5.657
59603SOL    HW280707  10.382   7.940   5.507
59604SOL     OW80708  11.183   3.857  11.853
59604SOL    HW180709  11.247   3.827  11.917
59604SOL    HW280710  11.126   3.781  11.839
59605SOL     OW80711   5.636   3.963  12.596
59605SOL    HW180712   5.546   3.975  12.627
59605SOL    HW280713   5.630   3.893  12.532
59606SOL     OW80714   4.848  10.766   8.308
59606SOL    HW180715   4.923  10.707   8.303
59606SOL    HW280716   4.871  10.828   8.377
59607SOL     OW80717   9.462   7.842   9.314
59607SOL    HW180718   9.475   7.815   9.405
59607SOL    HW280719   9.379   7.888   9.314
59608SOL     OW80720   6.508  13.922   0.412
59608SOL    HW180721   6.581  13.912   0.351
59608SOL    HW280722   6.528  13.862   0.484
59609SOL     OW80723   6.328   3.495   4.079
59609SOL    HW180724   6.282   3.494   3.995
59609SOL    HW280725   6.417   3.523   4.057
59610SOL     OW80726  14.030  13.193  11.843
59610SOL    HW180727  14.117  13.181  11.804
59610SOL    HW280728  14.007  13.106  11.878
59611SOL     OW80729  14.228  13.526  10.604
59611SOL    HW180730  14.198  13.566  10.685
59611SOL    HW280731  14.319  13.501  10.621
59612SOL     OW80732   4.927   6.154  10.044
59612SOL    HW180733   4.841   6.194  10.058
59612SOL    HW280734   4.943   6.163   9.950
59613SOL     OW80735   1.548   8.177   6.951
59613SOL    HW180736   1.543   8.144   6.861
59613SOL    HW280737   1.458   8.174   6.983
59614SOL     OW80738   2.787  10.788   7.147
59614SOL    HW180739   2.842  10.832   7.081
59614SOL    HW280740   2.830  10.806   7.230
59615SOL     OW80741   9.655   8.911   7.881
59615SOL    HW180742   9.741   8.890   7.919
59615SOL    HW280743   9.674   8.927   7.788
59616SOL     OW80744  13.316  14.637   7.966
59616SOL    HW180745  13.309  14.554   7.919
59616SOL    HW280746  13.258  14.626   8.042
59617SOL     OW80747   6.033   8.746  14.576
59617SOL    HW180748   5.949   8.712  14.543
59617SOL    HW280749   6.097   8.721  14.510
59618SOL     OW80750   9.347   5.780   4.722
59618SOL    HW180751   9.298   5.731   4.657
59618SOL    HW280752   9.434   5.740   4.723
59619SOL     OW80753  14.534  10.064  12.264
59619SOL    HW180754  14.457  10.026  12.222
59619SOL    HW280755  14.500  10.139  12.314
59620SOL     OW80756   0.537  10.217   8.411
59620SOL    HW180757   0.450  10.218   8.451
59620SOL    HW280758   0.551  10.125   8.387
59621SOL     OW80759  13.627  12.222  12.197
59621SOL    HW180760  13.604  12.315  12.206
59621SOL    HW280761  13.597  12.199  12.109
59622SOL     OW80762   1.738   0.709   8.968
59622SOL    HW180763   1.731   0.775   8.900
59622SOL    HW280764   1.828   0.714   8.999
59623SOL     OW80765  12.561  10.202  11.604
59623SOL    HW180766  12.612  10.234  11.529
59623SOL    HW280767  12.539  10.281  11.653
59624SOL     OW80768   3.795  14.482  12.121
59624SOL    HW180769   3.719  14.450  12.072
59624SOL    HW280770   3.861  14.497  12.054
59625SOL     OW80771  13.380  12.867   5.664
59625SOL    HW180772  13.469  12.889   5.634
59625SOL    HW280773  13.328  12.944   5.643
59626SOL     OW80774  14.712   8.144  12.590
59626SOL    HW180775  14.711   8.093  12.670
59626SOL    HW280776  14.767   8.220  12.610
59627SOL     OW80777   2.895  10.204  12.195
59627SOL    HW180778   2.976  10.239  12.159
59627SOL    HW280779   2.903  10.109  12.187
59628SOL     OW80780  10.258   7.273   0.453
59628SOL    HW180781  10.169   7.306   0.458
59628SOL    HW280782  10.262   7.228   0.369
59629SOL     OW80783   7.369   3.697   6.754
59629SOL    HW180784   7.383   3.722   6.845
59629SOL    HW280785   7.393   3.775   6.704
59630SOL     OW80786  13.874   4.270  13.487
59630SOL    HW180787  13.868   4.186  13.441
59630SOL    HW280788  13.849   4.248  13.578
59631SOL     OW80789   4.772   9.411  10.756
59631SOL    HW180790   4.765   9.318  10.737
59631SOL    HW280791   4.762   9.454  10.671
59632SOL     OW80792   8.986   7.346   6.702
59632SOL    HW180793   8.987   7.269   6.646
59632SOL    HW280794   9.001   7.312   6.790
59633SOL     OW80795   6.409  11.106   9.418
59633SOL    HW180796   6.388  11.161   9.493
59633SOL    HW280797   6.406  11.166   9.343
59634SOL     OW80798   5.838  11.758  12.472
59634SOL    HW180799   5.915  11.708  12.499
59634SOL    HW280800   5.783  11.761  12.550
59635SOL     OW80801  10.460   6.770   6.965
59635SOL    HW180802  10.414   6.751   7.047
59635SOL    HW280803  10.549   6.739   6.980
59636SOL     OW80804   2.655   2.222   1.419
59636SOL    HW180805   2.604   2.160   1.366
59636SOL    HW280806   2.697   2.167   1.485
59637SOL     OW80807   4.004   4.229   0.685
59637SOL    HW180808   4.046   4.247   0.769
59637SOL    HW280809   3.927   4.285   0.683
59638SOL     OW80810   4.512   9.082  11.698
59638SOL    HW180811   4.503   9.175  11.675
59638SOL    HW280812   4.600   9.075  11.735
59639SOL     OW80813  14.368   4.504   1.331
59639SOL    HW180814  14.280   4.479   1.358
59639SOL    HW280815  14.426   4.456   1.390
59640SOL     OW80816  10.077   7.091   2.865
59640SOL    HW180817  10.038   7.094   2.778
59640SOL    HW280818  10.039   7.166   2.911
59641SOL     OW80819   9.084   6.372   4.909
59641SOL    HW180820   9.057   6.302   4.969
59641SOL    HW280821   9.038   6.353   4.828
59642SOL     OW80822   1.201   7.008  11.399
59642SOL    HW180823   1.219   7.086  11.450
59642SOL    HW280824   1.152   6.951  11.459
59643SOL     OW80825  11.202  14.416   6.448
59643SOL    HW180826  11.276  14.373   6.406
59643SOL    HW280827  11.125  14.382   6.402
59644SOL     OW80828   9.463  13.666   0.058
59644SOL    HW180829   9.378  13.702   0.083
59644SOL    HW280830   9.523  13.741   0.060
59645SOL     OW80831  14.241   9.605   3.866
59645SOL    HW180832  14.198   9.548   3.801
59645SOL    HW280833  14.266   9.546   3.937
59646SOL     OW80834  12.170  12.548   3.766
59646SOL    HW180835  12.160  12.627   3.712
59646SOL    HW280836  12.105  12.559   3.835
59647SOL     OW80837  10.634   2.719   6.703
59647SOL    HW180838  10.654   2.806   6.668
59647SOL    HW280839  10.540   2.709   6.692
59648SOL     OW80840  11.447  12.385   6.887
59648SOL    HW180841  11.540  12.407   6.897
59648SOL    HW280842  11.432  12.388   6.793
59649SOL     OW80843   4.259   7.342  12.642
59649SOL    HW180844   4.206   7.382  12.573
59649SOL    HW280845   4.218   7.370  12.724
59650SOL     OW80846  10.281   7.658  13.335
59650SOL    HW180847  10.204   7.713  13.318
59650SOL    HW280848  10.249   7.569  13.325
59651SOL     OW80849  12.934  10.229   3.441
59651SOL    HW180850  12.888  10.269   3.515
59651SOL    HW280851  12.990  10.298   3.407
59652SOL     OW80852   5.890   3.107  11.557
59652SOL    HW180853   5.909   3.014  11.568
59652SOL    HW280854   5.820   3.125  11.620
59653SOL     OW80855  10.158   4.885  14.326
59653SOL    HW180856  10.066   4.877  14.299
59653SOL    HW280857  10.200   4.933  14.254
59654SOL     OW80858   4.310   7.335  10.849
59654SOL    HW180859   4.385   7.323  10.907
59654SOL    HW280860   4.322   7.421  10.811
59655SOL     OW80861   5.088  11.148   9.954
59655SOL    HW180862   5.047  11.158  10.040
59655SOL    HW280863   5.115  11.236   9.930
59656SOL     OW80864   0.475  11.470   4.442
59656SOL    HW180865   0.515  11.431   4.363
59656SOL    HW280866   0.503  11.412   4.513
59657SOL     OW80867   4.024   5.641  10.169
59657SOL    HW180868   3.965   5.619  10.241
59657SOL    HW280869   3.977   5.709  10.120
59658SOL     OW80870   5.052  10.588   9.251
59658SOL    HW180871   5.138  10.546   9.249
59658SOL    HW280872   4.990  10.517   9.233
59659SOL     OW80873   7.780   7.955  12.821
59659SOL    HW180874   7.741   7.888  12.877
59659SOL    HW280875   7.871   7.959  12.848
59660SOL     OW80876  13.108   8.343  12.819
59660SOL    HW180877  13.140   8.292  12.893
59660SOL    HW280878  13.020   8.309  12.803
59661SOL     OW80879   6.523   7.477   0.119
59661SOL    HW180880   6.494   7.558   0.078
59661SOL    HW280881   6.492   7.407   0.061
59662SOL     OW80882   1.897  13.020   0.664
59662SOL    HW180883   1.989  13.039   0.682
59662SOL    HW280884   1.882  13.056   0.576
59663SOL     OW80885   9.887   8.253   7.860
59663SOL    HW180886   9.954   8.255   7.928
59663SOL    HW280887   9.804   8.253   7.907
59664SOL     OW80888  13.128  12.071   0.806
59664SOL    HW180889  13.192  12.030   0.749
59664SOL    HW280890  13.088  11.999   0.854
59665SOL     OW80891   0.270   8.922  14.223
59665SOL    HW180892   0.289   8.876  14.306
59665SOL    HW280893   0.239   9.008  14.250
59666SOL     OW80894  13.597   7.633  12.631
59666SOL    HW180895  13.663   7.701  12.622
59666SOL    HW280896  13.587   7.597  12.543
59667SOL     OW80897   3.985   4.180  11.596
59667SOL    HW180898   3.972   4.267  11.558
59667SOL    HW280899   3.901   4.160  11.638
59668SOL     OW80900  10.683  10.596  11.777
59668SOL    HW180901  10.658  10.528  11.840
59668SOL    HW280902  10.680  10.552  11.692
59669SOL     OW80903   4.817  11.947  11.557
59669SOL    HW180904   4.816  11.911  11.469
59669SOL    HW280905   4.826  11.872  11.614
59670SOL     OW80906   7.628  12.284  12.922
59670SOL    HW180907   7.618  12.226  12.998
59670SOL    HW280908   7.720  12.310  12.923
59671SOL     OW80909   7.016   3.888   7.359
59671SOL    HW180910   6.923   3.876   7.341
59671SOL    HW280911   7.019   3.937   7.441
59672SOL     OW80912   8.581   4.076   0.353
59672SOL    HW180913   8.501   4.084   0.403
59672SOL    HW280914   8.570   3.995   0.303
59673SOL     OW80915   3.484   5.377   7.232
59673SOL    HW180916   3.417   5.437   7.199
59673SOL    HW280917   3.471   5.376   7.327
59674SOL     OW80918  10.108   3.766   1.281
59674SOL    HW180919  10.147   3.689   1.239
59674SOL    HW280920  10.015   3.762   1.257
59675SOL     OW80921   6.840   6.060   3.859
59675SOL    HW180922   6.763   6.090   3.907
59675SOL    HW280923   6.822   6.083   3.767
59676SOL     OW80924  11.913   8.384   3.426
59676SOL    HW180925  11.879   8.438   3.356
59676SOL    HW280926  11.845   8.384   3.493
59677SOL     OW80927  13.373   1.044   7.734
59677SOL    HW180928  13.435   1.114   7.713
59677SOL    HW280929  13.287   1.081   7.715
59678SOL     OW80930  13.575   3.264   4.496
59678SOL    HW180931  13.622   3.194   4.542
59678SOL    HW280932  13.627   3.343   4.514
59679SOL     OW80933  14.571  10.815   9.623
59679SOL    HW180934  14.630  10.855   9.559
59679SOL    HW280935  14.486  10.857   9.608
59680SOL     OW80936   9.325   1.414   8.061
59680SOL    HW180937   9.256   1.397   8.125
59680SOL    HW280938   9.279   1.420   7.977
59681SOL     OW80939   1.975   2.249   7.793
59681SOL    HW180940   1.962   2.343   7.803
59681SOL    HW280941   1.887   2.212   7.800
59682SOL     OW80942   3.201   5.551   5.641
59682SOL    HW180943   3.278   5.574   5.589
59682SOL    HW280944   3.137   5.620   5.623
59683SOL     OW80945   3.483  13.331   3.087
59683SOL    HW180946   3.423  13.404   3.077
59683SOL    HW280947   3.453  13.286   3.167
59684SOL     OW80948   8.882  11.240   0.879
59684SOL    HW180949   8.921  11.162   0.840
59684SOL    HW280950   8.943  11.310   0.858
59685SOL     OW80951   0.634   1.431   8.733
59685SOL    HW180952   0.614   1.454   8.643
59685SOL    HW280953   0.629   1.514   8.781
59686SOL     OW80954   1.319   9.425   3.109
59686SOL    HW180955   1.373   9.501   3.084
59686SOL    HW280956   1.340   9.411   3.202
59687SOL     OW80957   2.896   5.692  11.104
59687SOL    HW180958   2.852   5.630  11.161
59687SOL    HW280959   2.868   5.667  11.016
59688SOL     OW80960   1.091  13.206   6.244
59688SOL    HW180961   1.138  13.242   6.169
59688SOL    HW280962   1.011  13.168   6.207
59689SOL     OW80963   4.692  14.460   6.670
59689SOL    HW180964   4.661  14.372   6.692
59689SOL    HW280965   4.750  14.447   6.596
59690SOL     OW80966   0.757   0.059   4.201
59690SOL    HW180967   0.706  14.856   4.237
59690SOL    HW280968   0.807   0.020   4.129
59691SOL     OW80969   2.671  13.336   9.325
59691SOL    HW180970   2.639  13.323   9.414
59691SOL    HW280971   2.684  13.248   9.290
59692SOL     OW80972   4.700  14.547  14.257
59692SOL    HW180973   4.652  14.476  14.214
59692SOL    HW280974   4.633  14.599  14.300
59693SOL     OW80975   1.703  12.191   3.112
59693SOL    HW180976   1.677  12.272   3.155
59693SOL    HW280977   1.775  12.157   3.165
59694SOL     OW80978  10.609  14.794  12.115
59694SOL    HW180979  10.529  14.794  12.167
59694SOL    HW280980  10.635   0.016  12.111
59695SOL     OW80981   8.984   7.675  13.473
59695SOL    HW180982   8.957   7.766  13.456
59695SOL    HW280983   9.043   7.654  13.401
59696SOL     OW80984   5.202   8.649  10.352
59696SOL    HW180985   5.190   8.584  10.421
59696SOL    HW280986   5.287   8.627  10.313
59697SOL     OW80987   1.322   8.301   4.289
59697SOL    HW180988   1.323   8.394   4.314
59697SOL    HW280989   1.229   8.280   4.278
59698SOL     OW80990   6.045   2.800   4.565
59698SOL    HW180991   5.985   2.866   4.531
59698SOL    HW280992   6.055   2.737   4.494
59699SOL     OW80993  10.496   1.965   1.828
59699SOL    HW180994  10.567   1.903   1.810
59699SOL    HW280995  10.416   1.913   1.819
59700SOL     OW80996   2.824   2.390  12.917
59700SOL    HW180997   2.734   2.414  12.939
59700SOL    HW280998   2.832   2.410  12.824
59701SOL     OW80999   5.395  13.024   4.330
59701SOL    HW181000   5.351  13.096   4.284
59701SOL    HW281001   5.413  12.960   4.260
59702SOL     OW81002   1.069   3.716   8.280
59702SOL    HW181003   1.119   3.774   8.222
59702SOL    HW281004   1.069   3.761   8.364
59703SOL     OW81005  12.195  14.520  13.425
59703SOL    HW181006  12.290  14.510  13.421
59703SOL    HW281007  12.171  14.565  13.345
59704SOL     OW81008   7.413  14.267   4.271
59704SOL    HW181009   7.441  14.214   4.345
59704SOL    HW281010   7.483  14.331   4.259
59705SOL     OW81011   9.099   0.341  11.193
59705SOL    HW181012   9.008   0.330  11.220
59705SOL    HW281013   9.106   0.289  11.113
59706SOL     OW81014  14.071  14.283  14.117
59706SOL    HW181015  14.086  14.364  14.165
59706SOL    HW281016  14.158  14.247  14.100
59707SOL     OW81017   6.101   1.761   4.714
59707SOL    HW181018   6.091   1.849   4.678
59707SOL    HW281019   6.140   1.710   4.642
59708SOL     OW81020   5.430  12.912  12.602
59708SOL    HW181021   5.383  12.953  12.529
59708SOL    HW281022   5.473  12.985  12.647
59709SOL     OW81023  13.577   7.600   9.840
59709SOL    HW181024  13.494   7.612   9.794
59709SOL    HW281025  13.558   7.535   9.908
59710SOL     OW81026   9.794   8.497  11.322
59710SOL    HW181027   9.807   8.552  11.244
59710SOL    HW281028   9.702   8.509  11.345
59711SOL     OW81029   2.773   8.032   6.877
59711SOL    HW181030   2.680   8.009   6.879
59711SOL    HW281031   2.802   8.006   6.789
59712SOL     OW81032  13.485   2.892  11.614
59712SOL    HW181033  13.531   2.808  11.612
59712SOL    HW281034  13.543   2.952  11.567
59713SOL     OW81035  14.354  13.412   3.864
59713SOL    HW181036  14.381  13.470   3.794
59713SOL    HW281037  14.336  13.328   3.821
59714SOL     OW81038  13.816   9.895   2.164
59714SOL    HW181039  13.867   9.976   2.159
59714SOL    HW281040  13.869   9.836   2.217
59715SOL     OW81041   8.818  14.044  12.192
59715SOL    HW181042   8.877  13.977  12.225
59715SOL    HW281043   8.853  14.126  12.228
59716SOL     OW81044   5.280  12.045   8.172
59716SOL    HW181045   5.300  12.044   8.078
59716SOL    HW281046   5.261  12.137   8.191
59717SOL     OW81047   9.333   0.422   1.433
59717SOL    HW181048   9.299   0.338   1.403
59717SOL    HW281049   9.417   0.431   1.390
59718SOL     OW81050  13.260   7.810   7.195
59718SOL    HW181051  13.328   7.877   7.192
59718SOL    HW281052  13.239   7.802   7.288
59719SOL     OW81053   3.033   2.735  14.041
59719SOL    HW181054   3.106   2.761  13.985
59719SOL    HW281055   2.987   2.817  14.059
59720SOL     OW81056   5.170   7.789  11.690
59720SOL    HW181057   5.216   7.868  11.661
59720SOL    HW281058   5.079   7.818  11.703
59721SOL     OW81059  12.676   9.726   1.351
59721SOL    HW181060  12.771   9.714   1.358
59721SOL    HW281061  12.646   9.735   1.441
59722SOL     OW81062   7.364   1.498   1.002
59722SOL    HW181063   7.431   1.459   0.945
59722SOL    HW281064   7.401   1.582   1.028
59723SOL     OW81065  14.559   9.068   2.559
59723SOL    HW181066  14.573   9.149   2.510
59723SOL    HW281067  14.486   9.025   2.514
59724SOL     OW81068   2.566   3.502   4.565
59724SOL    HW181069   2.632   3.474   4.501
59724SOL    HW281070   2.573   3.438   4.636
59725SOL     OW81071   0.625   8.862  10.988
59725SOL    HW181072   0.571   8.865  10.910
59725SOL    HW281073   0.689   8.933  10.976
59726SOL     OW81074  13.382   6.810   3.208
59726SOL    HW181075  13.310   6.818   3.146
59726SOL    HW281076  13.420   6.723   3.191
59727SOL     OW81077  11.354   9.455   7.826
59727SOL    HW181078  11.387   9.381   7.877
59727SOL    HW281079  11.379   9.533   7.876
59728SOL     OW81080   1.260   4.352   1.723
59728SOL    HW181081   1.336   4.297   1.745
59728SOL    HW281082   1.289   4.441   1.743
59729SOL     OW81083   4.198   9.145   4.607
59729SOL    HW181084   4.136   9.074   4.624
59729SOL    HW281085   4.161   9.192   4.533
59730SOL     OW81086   5.618  11.965   3.936
59730SOL    HW181087   5.530  11.976   3.901
59730SOL    HW281088   5.675  11.970   3.859
59731SOL     OW81089   3.840   8.650   4.821
59731SOL    HW181090   3.839   8.742   4.849
59731SOL    HW281091   3.797   8.603   4.892
59732SOL     OW81092   7.474   0.281  11.379
59732SOL    HW181093   7.446   0.364  11.419
59732SOL    HW281094   7.532   0.241  11.444
59733SOL     OW81095   3.258   5.950   0.146
59733SOL    HW181096   3.173   5.962   0.188
59733SOL    HW281097   3.317   6.007   0.194
59734SOL     OW81098   8.488  10.579  12.466
59734SOL    HW181099   8.396  10.553  12.460
59734SOL    HW281100   8.528  10.514  12.524
59735SOL     OW81101   9.996   0.052   3.447
59735SOL    HW181102  10.033   0.049   3.536
59735SOL    HW281103   9.913   0.005   3.454
59736SOL     OW81104   9.112   9.856  12.499
59736SOL    HW181105   9.164   9.775  12.502
59736SOL    HW281106   9.111   9.886  12.590
59737SOL     OW81107  12.464   6.961  14.015
59737SOL    HW181108  12.405   6.902  14.063
59737SOL    HW281109  12.457   6.932  13.923
59738SOL     OW81110  10.791   0.182   8.864
59738SOL    HW181111  10.819   0.138   8.944
59738SOL    HW281112  10.719   0.239   8.892
59739SOL     OW81113  13.211   4.194  10.203
59739SOL    HW181114  13.177   4.283  10.214
59739SOL    HW281115  13.288   4.191  10.260
59740SOL     OW81116   8.314   2.443   0.389
59740SOL    HW181117   8.248   2.453   0.320
59740SOL    HW281118   8.287   2.505   0.456
59741SOL     OW81119   8.325  12.393  14.394
59741SOL    HW181120   8.244  12.341  14.400
59741SOL    HW281121   8.349  12.409  14.485
59742SOL     OW81122   1.100   1.506  10.596
59742SOL    HW181123   1.153   1.435  10.630
59742SOL    HW281124   1.112   1.578  10.658
59743SOL     OW81125   9.841   6.906   3.448
59743SOL    HW181126   9.826   6.915   3.542
59743SOL    HW281127   9.893   6.983   3.424
59744SOL     OW81128  10.349   6.229   7.557
59744SOL    HW181129  10.387   6.242   7.644
59744SOL    HW281130  10.412   6.270   7.497
59745SOL     OW81131   4.091   0.425   9.920
59745SOL    HW181132   4.047   0.355   9.871
59745SOL    HW281133   4.027   0.451   9.986
59746SOL     OW81134  13.101  12.478   8.580
59746SOL    HW181135  13.026  12.489   8.521
59746SOL    HW281136  13.079  12.529   8.657
59747SOL     OW81137  12.017   1.755   7.998
59747SOL    HW181138  12.002   1.801   8.081
59747SOL    HW281139  12.110   1.735   7.999
59748SOL     OW81140  12.620  13.372   1.390
59748SOL    HW181141  12.553  13.305   1.374
59748SOL    HW281142  12.684  13.358   1.320
59749SOL     OW81143   4.531  14.621  12.613
59749SOL    HW181144   4.531  14.678  12.537
59749SOL    HW281145   4.619  14.584  12.616
59750SOL     OW81146   8.710   6.637   0.301
59750SOL    HW181147   8.782   6.700   0.310
59750SOL    HW281148   8.735   6.564   0.357
59751SOL     OW81149   7.668   6.718   1.646
59751SOL    HW181150   7.665   6.783   1.715
59751SOL    HW281151   7.626   6.641   1.683
59752SOL     OW81152   6.333  12.230   0.500
59752SOL    HW181153   6.260  12.169   0.512
59752SOL    HW281154   6.308  12.308   0.550
59753SOL     OW81155   6.233   9.328   2.168
59753SOL    HW181156   6.198   9.240   2.158
59753SOL    HW281157   6.259   9.354   2.080
59754SOL     OW81158  10.210  10.375   8.053
59754SOL    HW181159  10.299  10.344   8.041
59754SOL    HW281160  10.205  10.456   8.002
59755SOL     OW81161   4.378   9.550   4.728
59755SOL    HW181162   4.410   9.562   4.818
59755SOL    HW281163   4.451   9.510   4.681
59756SOL     OW81164   1.421   9.187   1.032
59756SOL    HW181165   1.389   9.277   1.034
59756SOL    HW281166   1.393   9.150   1.116
59757SOL     OW81167  11.386   3.547   9.675
59757SOL    HW181168  11.302   3.501   9.663
59757SOL    HW281169  11.377   3.626   9.623
59758SOL     OW81170   2.140   6.078  12.464
59758SOL    HW181171   2.078   6.015  12.427
59758SOL    HW281172   2.085   6.149  12.499
59759SOL     OW81173   2.439   6.585   4.342
59759SOL    HW181174   2.422   6.641   4.266
59759SOL    HW281175   2.353   6.565   4.377
59760SOL     OW81176   9.720   8.329   7.344
59760SOL    HW181177   9.775   8.319   7.422
59760SOL    HW281178   9.643   8.275   7.362
59761SOL     OW81179   1.740  12.291  11.554
59761SOL    HW181180   1.789  12.372  11.541
59761SOL    HW281181   1.730  12.254  11.467
59762SOL     OW81182   9.235   7.646   7.385
59762SOL    HW181183   9.149   7.641   7.427
59762SOL    HW281184   9.296   7.654   7.458
59763SOL     OW81185  12.039  12.334  14.540
59763SOL    HW181186  12.080  12.390  14.475
59763SOL    HW281187  11.956  12.307  14.501
59764SOL     OW81188  10.536   0.878   0.016
59764SOL    HW181189  10.598   0.831   0.072
59764SOL    HW281190  10.457   0.887   0.069
59765SOL     OW81191  11.321   6.346   4.401
59765SOL    HW181192  11.234   6.309   4.415
59765SOL    HW281193  11.368   6.279   4.350
59766SOL     OW81194   6.544   2.715   6.372
59766SOL    HW181195   6.509   2.684   6.289
59766SOL    HW281196   6.482   2.783   6.400
59767SOL     OW81197  13.653   3.861   1.529
59767SOL    HW181198  13.740   3.833   1.500
59767SOL    HW281199  13.639   3.944   1.483
59768SOL     OW81200  13.986   9.667   6.751
59768SOL    HW181201  14.006   9.578   6.720
59768SOL    HW281202  13.915   9.697   6.694
59769SOL     OW81203   6.504   2.072   6.992
59769SOL    HW181204   6.462   1.986   7.004
59769SOL    HW281205   6.431   2.132   6.978
59770SOL     OW81206   8.285   8.286   6.681
59770SOL    HW181207   8.289   8.244   6.595
59770SOL    HW281208   8.345   8.235   6.735
59771SOL     OW81209   5.883  14.605   8.608
59771SOL    HW181210   5.806  14.563   8.569
59771SOL    HW281211   5.898  14.556   8.689
59772SOL     OW81212   1.198   2.994  13.481
59772SOL    HW181213   1.198   3.026  13.391
59772SOL    HW281214   1.254   2.916  13.479
59773SOL     OW81215   2.575  13.419   1.744
59773SOL    HW181216   2.536  13.346   1.793
59773SOL    HW281217   2.601  13.381   1.661
59774SOL     OW81218  10.121   0.744   6.656
59774SOL    HW181219  10.189   0.809   6.676
59774SOL    HW281220  10.162   0.660   6.675
59775SOL     OW81221   1.199  14.599   1.550
59775SOL    HW181222   1.265  14.573   1.484
59775SOL    HW281223   1.194  14.694   1.543
59776SOL     OW81224   6.737   5.248  10.517
59776SOL    HW181225   6.691   5.277  10.596
59776SOL    HW281226   6.828   5.241  10.545
59777SOL     OW81227   9.017   3.815   1.120
59777SOL    HW181228   8.943   3.782   1.170
59777SOL    HW281229   8.997   3.908   1.106
59778SOL     OW81230  12.055   2.878   8.234
59778SOL    HW181231  11.994   2.950   8.248
59778SOL    HW281232  12.012   2.822   8.169
59779SOL     OW81233   1.346  13.917   9.131
59779SOL    HW181234   1.267  13.900   9.183
59779SOL    HW281235   1.416  13.927   9.195
59780SOL     OW81236   2.501   0.827  11.283
59780SOL    HW181237   2.482   0.920  11.284
59780SOL    HW281238   2.427   0.786  11.327
59781SOL     OW81239   9.965   8.597   7.497
59781SOL    HW181240   9.946   8.669   7.436
59781SOL    HW281241  10.028   8.543   7.450
59782SOL     OW81242   2.428   4.645   5.251
59782SOL    HW181243   2.404   4.701   5.177
59782SOL    HW281244   2.421   4.556   5.217
59783SOL     OW81245   8.649   1.189  13.893
59783SOL    HW181246   8.629   1.178  13.986
59783SOL    HW281247   8.727   1.136  13.879
59784SOL     OW81248   2.074   6.378   2.366
59784SOL    HW181249   2.160   6.382   2.408
59784SOL    HW281250   2.018   6.433   2.422
59785SOL     OW81251   8.853   1.785   4.377
59785SOL    HW181252   8.880   1.697   4.404
59785SOL    HW281253   8.889   1.843   4.443
59786SOL     OW81254  13.489   5.543  10.743
59786SOL    HW181255  13.561   5.546  10.806
59786SOL    HW281256  13.427   5.609  10.775
59787SOL     OW81257   3.192  11.950   8.397
59787SOL    HW181258   3.192  11.983   8.487
59787SOL    HW281259   3.226  11.861   8.405
59788SOL     OW81260   0.807   0.757   9.961
59788SOL    HW181261   0.810   0.824  10.028
59788SOL    HW281262   0.718   0.762   9.926
59789SOL     OW81263  11.918   4.367   7.691
59789SOL    HW181264  11.850   4.334   7.632
59789SOL    HW281265  11.997   4.368   7.637
59790SOL     OW81266  14.814  12.493  12.122
59790SOL    HW181267   0.019  12.452  12.166
59790SOL    HW281268  14.738  12.464  12.173
59791SOL     OW81269   3.101   0.989   4.008
59791SOL    HW181270   3.124   0.968   4.098
59791SOL    HW281271   3.007   0.974   4.003
59792SOL     OW81272   8.613  14.723   5.779
59792SOL    HW181273   8.634  14.677   5.698
59792SOL    HW281274   8.556  14.664   5.827
59793SOL     OW81275  13.720  11.770  13.335
59793SOL    HW181276  13.632  11.773  13.374
59793SOL    HW281277  13.730  11.854  13.291
59794SOL     OW81278   0.954   9.805   7.298
59794SOL    HW181279   0.942   9.735   7.363
59794SOL    HW281280   0.934   9.763   7.214
59795SOL     OW81281   4.876  14.018   9.081
59795SOL    HW181282   4.903  14.078   9.150
59795SOL    HW281283   4.794  14.054   9.048
59796SOL     OW81284   4.255   6.017  13.537
59796SOL    HW181285   4.259   5.952  13.468
59796SOL    HW281286   4.307   5.981  13.608
59797SOL     OW81287   5.129  11.565   7.314
59797SOL    HW181288   5.122  11.471   7.303
59797SOL    HW281289   5.129  11.578   7.409
59798SOL     OW81290  10.769  10.697   5.060
59798SOL    HW181291  10.847  10.742   5.094
59798SOL    HW281292  10.766  10.722   4.967
59799SOL     OW81293  10.927   9.477  12.877
59799SOL    HW181294  10.877   9.528  12.813
59799SOL    HW281295  10.995   9.434  12.826
59800SOL     OW81296   4.309  12.372   3.788
59800SOL    HW181297   4.343  12.385   3.877
59800SOL    HW281298   4.250  12.297   3.795
59801SOL     OW81299  12.843   7.193   8.595
59801SOL    HW181300  12.770   7.133   8.610
59801SOL    HW281301  12.921   7.140   8.611
59802SOL     OW81302   2.468   9.721   0.861
59802SOL    HW181303   2.500   9.633   0.846
59802SOL    HW281304   2.462   9.760   0.774
59803SOL     OW81305  14.587   2.804   2.220
59803SOL    HW181306  14.498   2.785   2.192
59803SOL    HW281307  14.578   2.875   2.283
59804SOL     OW81308  14.419   8.668  14.642
59804SOL    HW181309  14.449   8.710  14.723
59804SOL    HW281310  14.492   8.614  14.614
59805SOL     OW81311  14.511   2.892   6.525
59805SOL    HW181312  14.554   2.894   6.439
59805SOL    HW281313  14.544   2.813   6.566
59806SOL     OW81314   7.376   2.313   4.300
59806SOL    HW181315   7.299   2.354   4.340
59806SOL    HW281316   7.364   2.325   4.206
59807SOL     OW81317  11.695   1.487  13.471
59807SOL    HW181318  11.676   1.569  13.516
59807SOL    HW281319  11.785   1.466  13.496
59808SOL     OW81320   2.553   8.460  14.726
59808SOL    HW181321   2.502   8.383  14.702
59808SOL    HW281322   2.615   8.429  14.791
59809SOL     OW81323  11.042   2.632   5.750
59809SOL    HW181324  10.994   2.715   5.755
59809SOL    HW281325  11.134   2.658   5.743
59810SOL     OW81326   3.727  11.686  14.440
59810SOL    HW181327   3.810  11.728  14.416
59810SOL    HW281328   3.696  11.646  14.359
59811SOL     OW81329   6.014   0.376   1.435
59811SOL    HW181330   5.982   0.390   1.346
59811SOL    HW281331   6.105   0.348   1.424
59812SOL     OW81332   0.543  10.141   2.636
59812SOL    HW181333   0.557  10.066   2.693
59812SOL    HW281334   0.463  10.121   2.588
59813SOL     OW81335   7.875   0.271   6.067
59813SOL    HW181336   7.854   0.253   6.159
59813SOL    HW281337   7.962   0.310   6.069
59814SOL     OW81338   3.180   0.321  14.252
59814SOL    HW181339   3.220   0.406  14.237
59814SOL    HW281340   3.189   0.306  14.346
59815SOL     OW81341   5.560   2.412  14.675
59815SOL    HW181342   5.517   2.488  14.714
59815SOL    HW281343   5.639   2.400  14.727
59816SOL     OW81344  14.184   1.642  11.491
59816SOL    HW181345  14.166   1.683  11.575
59816SOL    HW281346  14.129   1.563  11.490
59817SOL     OW81347  11.679  13.646   9.717
59817SOL    HW181348  11.605  13.605   9.760
59817SOL    HW281349  11.648  13.665   9.628
59818SOL     OW81350   4.747   1.337   2.312
59818SOL    HW181351   4.816   1.351   2.248
59818SOL    HW281352   4.754   1.411   2.372
59819SOL     OW81353   6.866  14.230  14.292
59819SOL    HW181354   6.818  14.206  14.212
59819SOL    HW281355   6.892  14.146  14.330
59820SOL     OW81356   9.310  14.223  10.368
59820SOL    HW181357   9.295  14.309  10.328
59820SOL    HW281358   9.384  14.186  10.319
59821SOL     OW81359   6.916   0.150   9.282
59821SOL    HW181360   6.878   0.202   9.211
59821SOL    HW281361   6.896   0.200   9.361
59822SOL     OW81362   7.953   7.411  14.570
59822SOL    HW181363   7.861   7.422  14.597
59822SOL    HW281364   7.950   7.350  14.497
59823SOL     OW81365  14.721   1.390  12.715
59823SOL    HW181366  14.773   1.332  12.659
59823SOL    HW281367  14.715   1.472  12.665
59824SOL     OW81368   9.169   3.918   4.755
59824SOL    HW181369   9.177   4.001   4.803
59824SOL    HW281370   9.246   3.916   4.699
59825SOL     OW81371   1.896  10.471   0.044
59825SOL    HW181372   1.976  10.517   0.018
59825SOL    HW281373   1.828  10.509  14.858
59826SOL     OW81374  12.779   5.574   7.037
59826SOL    HW181375  12.865   5.533   7.026
59826SOL    HW281376  12.781   5.609   7.126
59827SOL     OW81377   3.382  14.650   6.806
59827SOL    HW181378   3.348  14.677   6.891
59827SOL    HW281379   3.306  14.619   6.758
59828SOL     OW81380  14.413   5.638   1.936
59828SOL    HW181381  14.472   5.693   1.988
59828SOL    HW281382  14.334   5.691   1.925
59829SOL     OW81383  11.503  10.643   9.692
59829SOL    HW181384  11.564  10.699   9.645
59829SOL    HW281385  11.422  10.648   9.641
59830SOL     OW81386   6.885   9.199  14.535
59830SOL    HW181387   6.839   9.255  14.598
59830SOL    HW281388   6.977   9.218  14.549
59831SOL     OW81389   2.441   2.961   8.034
59831SOL    HW181390   2.467   2.981   7.944
59831SOL    HW281391   2.413   3.046   8.069
59832SOL     OW81392   1.433   6.279  13.280
59832SOL    HW181393   1.395   6.278  13.192
59832SOL    HW281394   1.521   6.243  13.270
59833SOL     OW81395   6.737   6.256  13.263
59833SOL    HW181396   6.817   6.206  13.280
59833SOL    HW281397   6.767   6.347  13.257
59834SOL     OW81398   9.032  11.964   2.588
59834SOL    HW181399   9.112  12.003   2.553
59834SOL    HW281400   9.015  11.888   2.532
59835SOL     OW81401  13.638  13.788   0.553
59835SOL    HW181402  13.568  13.853   0.549
59835SOL    HW281403  13.603  13.712   0.507
59836SOL     OW81404   4.314  14.242   9.957
59836SOL    HW181405   4.242  14.282   9.908
59836SOL    HW281406   4.393  14.263   9.907
59837SOL     OW81407   4.075   5.911  14.455
59837SOL    HW181408   4.126   5.986  14.485
59837SOL    HW281409   4.115   5.886  14.372
59838SOL     OW81410   2.379  14.055   7.852
59838SOL    HW181411   2.469  14.072   7.825
59838SOL    HW281412   2.328  14.056   7.771
59839SOL     OW81413   3.536   6.780   7.800
59839SOL    HW181414   3.509   6.709   7.743
59839SOL    HW281415   3.581   6.737   7.872
59840SOL     OW81416  13.339   0.842   1.557
59840SOL    HW181417  13.322   0.906   1.626
59840SOL    HW281418  13.409   0.881   1.505
59841SOL     OW81419   5.287   4.033   4.598
59841SOL    HW181420   5.345   4.068   4.530
59841SOL    HW281421   5.300   4.091   4.673
59842SOL     OW81422   6.066  14.765  10.071
59842SOL    HW181423   6.020  14.767   9.987
59842SOL    HW281424   6.153  14.732  10.050
59843SOL     OW81425   6.918   0.105   8.280
59843SOL    HW181426   6.831   0.092   8.318
59843SOL    HW281427   6.908   0.078   8.188
59844SOL     OW81428  12.858  10.046   4.558
59844SOL    HW181429  12.815  10.131   4.559
59844SOL    HW281430  12.818   9.998   4.630
59845SOL     OW81431  12.631  11.195   0.641
59845SOL    HW181432  12.583  11.152   0.711
59845SOL    HW281433  12.713  11.145   0.633
59846SOL     OW81434   7.876   5.389   4.809
59846SOL    HW181435   7.862   5.366   4.901
59846SOL    HW281436   7.970   5.377   4.795
59847SOL     OW81437   3.273   4.758  14.710
59847SOL    HW181438   3.265   4.843  14.754
59847SOL    HW281439   3.308   4.700  14.778
59848SOL     OW81440   0.468  12.360  12.976
59848SOL    HW181441   0.410  12.434  12.998
59848SOL    HW281442   0.552  12.400  12.956
59849SOL     OW81443   4.266   9.741  11.201
59849SOL    HW181444   4.213   9.680  11.253
59849SOL    HW281445   4.293   9.689  11.125
59850SOL     OW81446   5.976   2.415   7.037
59850SOL    HW181447   5.934   2.464   7.107
59850SOL    HW281448   6.070   2.424   7.054
59851SOL     OW81449   2.404   9.283   1.542
59851SOL    HW181450   2.356   9.340   1.602
59851SOL    HW281451   2.448   9.343   1.482
59852SOL     OW81452   1.197  12.302   0.200
59852SOL    HW181453   1.153  12.303   0.115
59852SOL    HW281454   1.212  12.209   0.218
59853SOL     OW81455   1.957   5.652  14.319
59853SOL    HW181456   2.034   5.622  14.368
59853SOL    HW281457   1.934   5.736  14.360
59854SOL     OW81458   9.997  10.566  12.355
59854SOL    HW181459  10.048  10.599  12.429
59854SOL    HW281460  10.049  10.589  12.278
59855SOL     OW81461   0.363  14.748   9.989
59855SOL    HW181462   0.443  14.748   9.937
59855SOL    HW281463   0.339  14.655   9.995
59856SOL     OW81464   4.443   6.461  13.604
59856SOL    HW181465   4.485   6.517  13.538
59856SOL    HW281466   4.494   6.380  13.603
59857SOL     OW81467   4.464  11.729   3.807
59857SOL    HW181468   4.450  11.788   3.733
59857SOL    HW281469   4.461  11.641   3.769
59858SOL     OW81470  11.986   8.190  13.853
59858SOL    HW181471  12.030   8.105  13.859
59858SOL    HW281472  11.897   8.169  13.826
59859SOL     OW81473  14.817   8.818   1.792
59859SOL    HW181474  14.770   8.845   1.713
59859SOL    HW281475  14.824   8.723   1.784
59860SOL     OW81476  10.329   3.344   3.542
59860SOL    HW181477  10.341   3.311   3.631
59860SOL    HW281478  10.329   3.439   3.552
59861SOL     OW81479   5.701   6.257   6.494
59861SOL    HW181480   5.715   6.297   6.408
59861SOL    HW281481   5.632   6.192   6.479
59862SOL     OW81482  11.699   7.020  13.803
59862SOL    HW181483  11.687   6.945  13.745
59862SOL    HW281484  11.619   7.071  13.794
59863SOL     OW81485   5.130  14.602  14.676
59863SOL    HW181486   5.041  14.632  14.657
59863SOL    HW281487   5.174  14.603  14.591
59864SOL     OW81488   2.127   4.476   6.606
59864SOL    HW181489   2.151   4.525   6.685
59864SOL    HW281490   2.038   4.505   6.586
59865SOL     OW81491   7.803   5.401  12.366
59865SOL    HW181492   7.880   5.427  12.316
59865SOL    HW281493   7.826   5.317  12.406
59866SOL     OW81494   9.798   0.047   9.475
59866SOL    HW181495   9.810   0.002   9.558
59866SOL    HW281496   9.819  14.851   9.409
59867SOL     OW81497  11.422  10.487   8.997
59867SOL    HW181498  11.474  10.409   9.013
59867SOL    HW281499  11.425  10.536   9.079
59868SOL     OW81500   4.134   6.528  14.862
59868SOL    HW181501   4.177   6.448  14.836
59868SOL    HW281502   4.109   6.513   0.084
59869SOL     OW81503   5.777   0.626   8.918
59869SOL    HW181504   5.723   0.547   8.921
59869SOL    HW281505   5.760   0.669   9.002
59870SOL     OW81506   0.144   0.235   8.482
59870SOL    HW181507   0.116   0.327   8.482
59870SOL    HW281508   0.095   0.195   8.410
59871SOL     OW81509  13.736  14.449   8.458
59871SOL    HW181510  13.747  14.539   8.490
59871SOL    HW281511  13.825  14.419   8.441
59872SOL     OW81512   9.301  12.513   2.272
59872SOL    HW181513   9.373  12.517   2.335
59872SOL    HW281514   9.317  12.432   2.223
59873SOL     OW81515   4.128   1.015   2.462
59873SOL    HW181516   4.037   1.030   2.436
59873SOL    HW281517   4.178   1.080   2.412
59874SOL     OW81518  10.025  11.233   1.552
59874SOL    HW181519  10.020  11.158   1.493
59874SOL    HW281520  10.078  11.201   1.626
59875SOL     OW81521  12.617   0.107   8.651
59875SOL    HW181522  12.568   0.046   8.707
59875SOL    HW281523  12.576   0.099   8.565
59876SOL     OW81524   6.860  11.865  11.464
59876SOL    HW181525   6.840  11.894  11.375
59876SOL    HW281526   6.950  11.834  11.459
59877SOL     OW81527   2.027   7.224   5.011
59877SOL    HW181528   2.100   7.206   4.952
59877SOL    HW281529   2.068   7.242   5.096
59878SOL     OW81530   4.062   5.220   4.936
59878SOL    HW181531   4.055   5.316   4.943
59878SOL    HW281532   4.108   5.194   5.016
59879SOL     OW81533   2.940   7.475   9.167
59879SOL    HW181534   2.955   7.456   9.260
59879SOL    HW281535   2.869   7.415   9.142
59880SOL     OW81536  11.546   2.367   5.766
59880SOL    HW181537  11.570   2.436   5.704
59880SOL    HW281538  11.594   2.388   5.846
59881SOL     OW81539   0.706   1.677   1.385
59881SOL    HW181540   0.762   1.747   1.418
59881SOL    HW281541   0.650   1.653   1.459
59882SOL     OW81542   6.649  12.961  13.952
59882SOL    HW181543   6.598  13.034  13.986
59882SOL    HW281544   6.585  12.892  13.937
59883SOL     OW81545  14.849  13.945  12.820
59883SOL    HW181546   0.019  14.027  12.789
59883SOL    HW281547  14.772  13.934  12.765
59884SOL     OW81548  11.513   5.233   3.340
59884SOL    HW181549  11.571   5.157   3.329
59884SOL    HW281550  11.559   5.305   3.296
59885SOL     OW81551  14.529   3.484   4.381
59885SOL    HW181552  14.471   3.476   4.306
59885SOL    HW281553  14.530   3.397   4.421
59886SOL     OW81554   2.871  14.199   2.072
59886SOL    HW181555   2.888  14.192   2.166
59886SOL    HW281556   2.789  14.249   2.066
59887SOL     OW81557  12.416  11.782   9.160
59887SOL    HW181558  12.454  11.850   9.104
59887SOL    HW281559  12.382  11.829   9.236
59888SOL     OW81560   5.357  11.885   6.693
59888SOL    HW181561   5.411  11.828   6.748
59888SOL    HW281562   5.354  11.968   6.742
59889SOL     OW81563   5.554  11.480   5.799
59889SOL    HW181564   5.645  11.474   5.768
59889SOL    HW281565   5.536  11.393   5.834
59890SOL     OW81566  10.170   4.909   3.469
59890SOL    HW181567  10.078   4.929   3.485
59890SOL    HW281568  10.194   4.848   3.539
59891SOL     OW81569   1.272  10.919  13.961
59891SOL    HW181570   1.211  10.888  13.894
59891SOL    HW281571   1.355  10.930  13.914
59892SOL     OW81572   8.592   9.074  13.976
59892SOL    HW181573   8.562   8.984  13.963
59892SOL    HW281574   8.684   9.065  14.002
59893SOL     OW81575   4.963   7.850   2.734
59893SOL    HW181576   4.932   7.795   2.805
59893SOL    HW281577   4.893   7.848   2.669
59894SOL     OW81578   8.298   7.472   7.060
59894SOL    HW181579   8.290   7.512   6.973
59894SOL    HW281580   8.331   7.542   7.116
59895SOL     OW81581   8.466  11.031  13.980
59895SOL    HW181582   8.556  11.012  14.007
59895SOL    HW281583   8.423  11.063  14.060
59896SOL     OW81584   4.067   5.381   1.181
59896SOL    HW181585   4.028   5.425   1.257
59896SOL    HW281586   4.160   5.400   1.187
59897SOL     OW81587   0.402   4.281   4.397
59897SOL    HW181588   0.435   4.200   4.436
59897SOL    HW281589   0.406   4.266   4.303
59898SOL     OW81590  10.223   0.006   0.359
59898SOL    HW181591  10.143  14.836   0.395
59898SOL    HW281592  10.218   0.098   0.385
59899SOL     OW81593  13.479   1.578  14.253
59899SOL    HW181594  13.435   1.612  14.175
59899SOL    HW281595  13.554   1.636  14.266
59900SOL     OW81596   4.476  11.967  13.893
59900SOL    HW181597   4.425  12.047  13.882
59900SOL    HW281598   4.527  11.960  13.812
59901SOL     OW81599   8.614   8.340  14.033
59901SOL    HW181600   8.635   8.268  14.092
59901SOL    HW281601   8.616   8.300  13.945
59902SOL     OW81602   6.239   0.216   9.485
59902SOL    HW181603   6.220   0.310   9.487
59902SOL    HW281604   6.318   0.209   9.430
59903SOL     OW81605   4.640  14.002   1.622
59903SOL    HW181606   4.602  14.087   1.604
59903SOL    HW281607   4.603  13.944   1.556
59904SOL     OW81608   6.724   6.234   7.961
59904SOL    HW181609   6.814   6.231   7.930
59904SOL    HW281610   6.679   6.292   7.900
59905SOL     OW81611  11.159   2.291  13.703
59905SOL    HW181612  11.222   2.344  13.654
59905SOL    HW281613  11.111   2.242  13.635
59906SOL     OW81614  12.746   2.254   6.063
59906SOL    HW181615  12.836   2.280   6.079
59906SOL    HW281616  12.751   2.180   6.003
59907SOL     OW81617   9.616   1.427   4.905
59907SOL    HW181618   9.673   1.502   4.919
59907SOL    HW281619   9.653   1.358   4.960
59908SOL     OW81620   8.106  12.562   5.376
59908SOL    HW181621   8.152  12.627   5.429
59908SOL    HW281622   8.101  12.601   5.289
59909SOL     OW81623   6.126   3.263   7.531
59909SOL    HW181624   6.038   3.263   7.567
59909SOL    HW281625   6.183   3.277   7.607
59910SOL     OW81626   6.096  11.731  12.142
59910SOL    HW181627   6.178  11.695  12.175
59910SOL    HW281628   6.123  11.799  12.080
59911SOL     OW81629   4.033  14.140  11.217
59911SOL    HW181630   4.103  14.097  11.266
59911SOL    HW281631   3.963  14.075  11.214
59912SOL     OW81632   7.764  11.148   0.111
59912SOL    HW181633   7.674  11.115   0.116
59912SOL    HW281634   7.761  11.231   0.159
59913SOL     OW81635   1.058   6.150  14.674
59913SOL    HW181636   1.143   6.114  14.649
59913SOL    HW281637   0.997   6.116  14.607
59914SOL     OW81638   1.696   1.588   4.752
59914SOL    HW181639   1.706   1.646   4.676
59914SOL    HW281640   1.612   1.613   4.790
59915SOL     OW81641  11.805   5.707   8.921
59915SOL    HW181642  11.810   5.633   8.982
59915SOL    HW281643  11.713   5.733   8.921
59916SOL     OW81644  14.484  12.567  12.475
59916SOL    HW181645  14.538  12.489  12.482
59916SOL    HW281646  14.401  12.542  12.517
59917SOL     OW81647  14.682   7.402   5.739
59917SOL    HW181648  14.755   7.412   5.677
59917SOL    HW281649  14.648   7.314   5.721
59918SOL     OW81650   3.921   3.238   9.712
59918SOL    HW181651   3.994   3.283   9.754
59918SOL    HW281652   3.893   3.173   9.776
59919SOL     OW81653  13.911   2.123  10.361
59919SOL    HW181654  13.999   2.151  10.386
59919SOL    HW281655  13.915   2.113  10.266
59920SOL     OW81656   1.241   4.835   4.729
59920SOL    HW181657   1.198   4.828   4.644
59920SOL    HW281658   1.261   4.744   4.753
59921SOL     OW81659  13.650   7.066  14.060
59921SOL    HW181660  13.729   7.117  14.075
59921SOL    HW281661  13.681   6.976  14.046
59922SOL     OW81662  14.376   2.434   0.284
59922SOL    HW181663  14.382   2.447   0.189
59922SOL    HW281664  14.290   2.392   0.297
59923SOL     OW81665   6.931   3.702   8.847
59923SOL    HW181666   6.964   3.616   8.821
59923SOL    HW281667   7.008   3.748   8.880
59924SOL     OW81668  10.246  11.278   5.839
59924SOL    HW181669  10.248  11.182   5.837
59924SOL    HW281670  10.153  11.300   5.846
59925SOL     OW81671   1.737   3.108  12.928
59925SOL    HW181672   1.758   3.140  12.840
59925SOL    HW281673   1.816   3.060  12.955
59926SOL     OW81674  10.341  11.656  11.155
59926SOL    HW181675  10.280  11.623  11.089
59926SOL    HW281676  10.371  11.577  11.200
59927SOL     OW81677   8.300  14.227   5.525
59927SOL    HW181678   8.312  14.175   5.604
59927SOL    HW281679   8.357  14.186   5.460
59928SOL     OW81680   8.229   9.938  13.469
59928SOL    HW181681   8.246   9.917  13.378
59928SOL    HW281682   8.237   9.855  13.515
59929SOL     OW81683   7.950   2.685  12.798
59929SOL    HW181684   8.032   2.724  12.768
59929SOL    HW281685   7.942   2.713  12.889
59930SOL     OW81686  13.783  11.292   0.507
59930SOL    HW181687  13.796  11.249   0.591
59930SOL    HW281688  13.855  11.356   0.501
59931SOL     OW81689  12.854  11.705  13.002
59931SOL    HW181690  12.760  11.719  13.014
59931SOL    HW281691  12.885  11.677  13.088
59932SOL     OW81692   6.616   4.899   1.859
59932SOL    HW181693   6.528   4.918   1.827
59932SOL    HW281694   6.664   4.869   1.782
59933SOL     OW81695   2.065   2.977   2.326
59933SOL    HW181696   2.100   2.997   2.412
59933SOL    HW281697   2.009   2.901   2.340
59934SOL     OW81698   5.223   2.575  11.381
59934SOL    HW181699   5.201   2.572  11.474
59934SOL    HW281700   5.297   2.636  11.375
59935SOL     OW81701   9.266   6.405  12.957
59935SOL    HW181702   9.339   6.423  12.898
59935SOL    HW281703   9.197   6.370  12.901
59936SOL     OW81704  11.200   9.151  11.054
59936SOL    HW181705  11.108   9.175  11.064
59936SOL    HW281706  11.247   9.233  11.067
59937SOL     OW81707   8.453  11.120   6.788
59937SOL    HW181708   8.482  11.060   6.720
59937SOL    HW281709   8.469  11.207   6.752
59938SOL     OW81710   5.933   2.163  12.904
59938SOL    HW181711   5.984   2.088  12.874
59938SOL    HW281712   5.846   2.128  12.922
59939SOL     OW81713   3.621  13.173  13.823
59939SOL    HW181714   3.677  13.132  13.888
59939SOL    HW281715   3.599  13.103  13.762
59940SOL     OW81716   2.719  14.126   0.772
59940SOL    HW181717   2.758  14.085   0.850
59940SOL    HW281718   2.632  14.088   0.767
59941SOL     OW81719   0.978  13.658  14.331
59941SOL    HW181720   0.981  13.620  14.244
59941SOL    HW281721   0.936  13.591  14.385
59942SOL     OW81722  14.561   0.686  11.404
59942SOL    HW181723  14.612   0.725  11.332
59942SOL    HW281724  14.576   0.592  11.395
59943SOL     OW81725   4.814   9.451   3.073
59943SOL    HW181726   4.803   9.490   3.160
59943SOL    HW281727   4.836   9.525   3.017
59944SOL     OW81728   9.882  12.120   7.800
59944SOL    HW181729   9.826  12.064   7.747
59944SOL    HW281730   9.900  12.068   7.879
59945SOL     OW81731   7.805  11.375   6.878
59945SOL    HW181732   7.827  11.333   6.795
59945SOL    HW281733   7.874  11.347   6.938
59946SOL     OW81734  12.332   9.932   3.193
59946SOL    HW181735  12.268   9.884   3.141
59946SOL    HW281736  12.416   9.912   3.153
59947SOL     OW81737   8.358   3.792  14.458
59947SOL    HW181738   8.388   3.704  14.437
59947SOL    HW281739   8.356   3.838  14.374
59948SOL     OW81740  13.698   7.884   8.444
59948SOL    HW181741  13.791   7.902   8.431
59948SOL    HW281742  13.682   7.805   8.392
59949SOL     OW81743   9.799   9.478   5.188
59949SOL    HW181744   9.779   9.567   5.159
59949SOL    HW281745   9.743   9.422   5.134
59950SOL     OW81746  12.592   7.837   8.593
59950SOL    HW181747  12.592   7.837   8.497
59950SOL    HW281748  12.633   7.920   8.617
59951SOL     OW81749   9.781   2.486   0.080
59951SOL    HW181750   9.876   2.497   0.076
59951SOL    HW281751   9.759   2.498   0.172
59952SOL     OW81752   6.080   6.697   3.700
59952SOL    HW181753   5.989   6.682   3.675
59952SOL    HW281754   6.082   6.680   3.794
59953SOL     OW81755   9.103   8.035   2.726
59953SOL    HW181756   9.022   8.013   2.679
59953SOL    HW281757   9.083   8.117   2.772
59954SOL     OW81758  11.886   8.335   1.491
59954SOL    HW181759  11.941   8.317   1.567
59954SOL    HW281760  11.797   8.335   1.525
59955SOL     OW81761  12.449  14.639   0.961
59955SOL    HW181762  12.399  14.561   0.987
59955SOL    HW281763  12.402  14.673   0.886
59956SOL     OW81764   7.670   4.799   1.625
59956SOL    HW181765   7.645   4.708   1.641
59956SOL    HW281766   7.759   4.794   1.589
59957SOL     OW81767   9.055  10.638   0.291
59957SOL    HW181768   9.119  10.695   0.333
59957SOL    HW281769   8.976  10.646   0.345
59958SOL     OW81770   9.005  11.857   9.756
59958SOL    HW181771   8.949  11.915   9.808
59958SOL    HW281772   9.087  11.852   9.805
59959SOL     OW81773   8.098  12.464   7.306
59959SOL    HW181774   8.016  12.513   7.298
59959SOL    HW281775   8.076  12.388   7.360
59960SOL     OW81776  10.637   0.481   6.149
59960SOL    HW181777  10.692   0.556   6.126
59960SOL    HW281778  10.612   0.496   6.240
59961SOL     OW81779   9.357  10.093  10.477
59961SOL    HW181780   9.270  10.119  10.447
59961SOL    HW281781   9.341  10.023  10.540
59962SOL     OW81782   9.869   2.946  13.240
59962SOL    HW181783   9.792   3.000  13.223
59962SOL    HW281784   9.875   2.888  13.164
59963SOL     OW81785  10.698   3.976   2.376
59963SOL    HW181786  10.724   3.892   2.340
59963SOL    HW281787  10.613   3.959   2.418
59964SOL     OW81788   3.609   8.073  10.494
59964SOL    HW181789   3.627   8.161  10.528
59964SOL    HW281790   3.686   8.022  10.519
59965SOL     OW81791  12.066  14.651  11.843
59965SOL    HW181792  12.057  14.586  11.913
59965SOL    HW281793  12.046  14.604  11.763
59966SOL     OW81794  12.113   1.377   1.259
59966SOL    HW181795  12.055   1.433   1.207
59966SOL    HW281796  12.091   1.288   1.231
59967SOL     OW81797   6.825  14.026   0.250
59967SOL    HW181798   6.800  14.113   0.216
59967SOL    HW281799   6.861  13.981   0.174
59968SOL     OW81800   7.903  14.723  14.756
59968SOL    HW181801   7.843  14.678  14.816
59968SOL    HW281802   7.964  14.768  14.814
59969SOL     OW81803   0.339  12.074   3.064
59969SOL    HW181804   0.383  12.059   2.980
59969SOL    HW281805   0.248  12.092   3.041
59970SOL     OW81806   4.908  13.151   2.420
59970SOL    HW181807   4.992  13.108   2.409
59970SOL    HW281808   4.927  13.228   2.475
59971SOL     OW81809  10.504   1.666  13.287
59971SOL    HW181810  10.531   1.723  13.359
59971SOL    HW281811  10.498   1.724  13.211
59972SOL     OW81812  10.789  13.896  12.708
59972SOL    HW181813  10.778  13.805  12.680
59972SOL    HW281814  10.881  13.902  12.736
59973SOL     OW81815   5.907   2.713   1.130
59973SOL    HW181816   5.975   2.780   1.142
59973SOL    HW281817   5.880   2.723   1.038
59974SOL     OW81818   0.831   4.689   0.986
59974SOL    HW181819   0.872   4.776   0.979
59974SOL    HW281820   0.748   4.698   0.939
59975SOL     OW81821  13.467   2.596  10.559
59975SOL    HW181822  13.492   2.561  10.473
59975SOL    HW281823  13.381   2.636  10.543
59976SOL     OW81824  13.465   2.176   7.709
59976SOL    HW181825  13.446   2.242   7.643
59976SOL    HW281826  13.520   2.220   7.773
59977SOL     OW81827   8.369  13.817   3.637
59977SOL    HW181828   8.373  13.814   3.732
59977SOL    HW281829   8.417  13.897   3.613
59978SOL     OW81830   5.046   8.090   8.467
59978SOL    HW181831   5.107   8.066   8.397
59978SOL    HW281832   5.057   8.184   8.478
59979SOL     OW81833   7.399  12.706   5.956
59979SOL    HW181834   7.391  12.669   5.868
59979SOL    HW281835   7.490  12.735   5.962
59980SOL     OW81836   0.759   4.627   0.062
59980SOL    HW181837   0.820   4.589  14.868
59980SOL    HW281838   0.673   4.612   0.024
59981SOL     OW81839   5.984   6.053   4.418
59981SOL    HW181840   5.892   6.026   4.429
59981SOL    HW281841   5.995   6.061   4.323
59982SOL     OW81842  14.096   9.769   9.665
59982SOL    HW181843  14.110   9.849   9.716
59982SOL    HW281844  14.156   9.705   9.702
59983SOL     OW81845   8.372   9.681  13.577
59983SOL    HW181846   8.398   9.722  13.660
59983SOL    HW281847   8.452   9.642  13.543
59984SOL     OW81848  13.805  10.153  13.836
59984SOL    HW181849  13.741  10.123  13.771
59984SOL    HW281850  13.776  10.115  13.919
59985SOL     OW81851  13.257  11.807   1.799
59985SOL    HW181852  13.268  11.858   1.719
59985SOL    HW281853  13.170  11.767   1.791
59986SOL     OW81854  14.122   5.875   4.444
59986SOL    HW181855  14.201   5.882   4.390
59986SOL    HW281856  14.091   5.786   4.430
59987SOL     OW81857  13.735   4.266   2.912
59987SOL    HW181858  13.741   4.185   2.963
59987SOL    HW281859  13.641   4.279   2.898
59988SOL     OW81860  10.962   4.165   8.881
59988SOL    HW181861  11.023   4.129   8.816
59988SOL    HW281862  10.991   4.255   8.894
59989SOL     OW81863   3.062  12.109   3.100
59989SOL    HW181864   2.985  12.166   3.107
59989SOL    HW281865   3.056  12.052   3.177
59990SOL     OW81866   3.204  10.836   6.798
59990SOL    HW181867   3.187  10.782   6.720
59990SOL    HW281868   3.182  10.925   6.770
59991SOL     OW81869   5.016   0.966   2.855
59991SOL    HW181870   4.965   0.905   2.802
59991SOL    HW281871   5.061   0.910   2.919
59992SOL     OW81872   9.355  14.792   3.920
59992SOL    HW181873   9.374  14.831   3.834
59992SOL    HW281874   9.355  14.698   3.904
59993SOL     OW81875  13.360   9.845  12.633
59993SOL    HW181876  13.394   9.831  12.721
59993SOL    HW281877  13.265   9.835  12.641
59994SOL     OW81878   9.670   0.827   2.833
59994SOL    HW181879   9.718   0.906   2.857
59994SOL    HW281880   9.614   0.809   2.909
59995SOL     OW81881  14.556   3.409   8.892
59995SOL    HW181882  14.504   3.362   8.826
59995SOL    HW281883  14.617   3.463   8.841
59996SOL     OW81884   0.299   7.259  12.655
59996SOL    HW181885   0.256   7.206  12.588
59996SOL    HW281886   0.235   7.266  12.726
59997SOL     OW81887   2.009  10.091   7.927
59997SOL    HW181888   2.050  10.075   7.842
59997SOL    HW281889   2.042  10.022   7.984
59998SOL     OW81890   0.060  12.712   8.623
59998SOL    HW181891   0.011  12.783   8.582
59998SOL    HW281892   0.096  12.750   8.703
59999SOL     OW81893   3.070  13.864   3.616
59999SOL    HW181894   2.981  13.832   3.603
59999SOL    HW281895   3.094  13.835   3.704
60000SOL     OW81896  13.355   2.791   2.612
60000SOL    HW181897  13.372   2.786   2.706
60000SOL    HW281898  13.436   2.827   2.575
60001SOL     OW81899  10.435   0.480  13.347
60001SOL    HW181900  10.426   0.492  13.253
60001SOL    HW281901  10.452   0.387  13.359
60002SOL     OW81902  11.454  12.782   1.087
60002SOL    HW181903  11.426  12.831   1.165
60002SOL    HW281904  11.376  12.780   1.031
60003SOL     OW81905   1.877   5.053   0.485
60003SOL    HW181906   1.802   5.052   0.426
60003SOL    HW281907   1.878   4.966   0.525
60004SOL     OW81908  14.477  11.972   5.341
60004SOL    HW181909  14.410  11.904   5.340
60004SOL    HW281910  14.428  12.054   5.349
60005SOL     OW81911  14.648   0.773   9.567
60005SOL    HW181912  14.599   0.731   9.637
60005SOL    HW281913  14.697   0.702   9.526
60006SOL     OW81914   8.355   4.802  14.245
60006SOL    HW181915   8.278   4.832  14.293
60006SOL    HW281916   8.400   4.883  14.218
60007SOL     OW81917   9.563   9.419   2.792
60007SOL    HW181918   9.521   9.460   2.717
60007SOL    HW281919   9.554   9.484   2.863
60008SOL     OW81920  10.510  11.462   7.243
60008SOL    HW181921  10.537  11.400   7.175
60008SOL    HW281922  10.451  11.412   7.299
60009SOL     OW81923   5.185  12.596   3.345
60009SOL    HW181924   5.255  12.619   3.406
60009SOL    HW281925   5.123  12.669   3.350
60010SOL     OW81926   2.931  11.264   4.048
60010SOL    HW181927   3.006  11.210   4.022
60010SOL    HW281928   2.870  11.258   3.974
60011SOL     OW81929  14.098  10.672  11.683
60011SOL    HW181930  14.009  10.697  11.658
60011SOL    HW281931  14.096  10.576  11.682
60012SOL     OW81932  11.375   0.121  12.715
60012SOL    HW181933  11.447   0.128  12.778
60012SOL    HW281934  11.390   0.038  12.671
60013SOL     OW81935   6.463   2.612   6.147
60013SOL    HW181936   6.466   2.534   6.092
60013SOL    HW281937   6.376   2.649   6.131
60014SOL     OW81938   4.448   3.736   6.915
60014SOL    HW181939   4.500   3.659   6.940
60014SOL    HW281940   4.478   3.805   6.973
60015SOL     OW81941  14.097   4.334   7.874
60015SOL    HW181942  14.133   4.414   7.912
60015SOL    HW281943  14.173   4.280   7.854
60016SOL     OW81944  11.475   5.282   9.681
60016SOL    HW181945  11.391   5.236   9.671
60016SOL    HW281946  11.474   5.350   9.614
60017SOL     OW81947   5.120   9.898   2.364
60017SOL    HW181948   5.155   9.878   2.451
60017SOL    HW281949   5.191   9.875   2.304
60018SOL     OW81950  10.063  12.989   9.639
60018SOL    HW181951  10.037  12.981   9.547
60018SOL    HW281952  10.143  13.041   9.638
60019SOL     OW81953   6.780   0.172  13.011
60019SOL    HW181954   6.751   0.256  12.975
60019SOL    HW281955   6.714   0.150  13.076
60020SOL     OW81956   9.329  13.920   9.079
60020SOL    HW181957   9.338  13.955   9.167
60020SOL    HW281958   9.284  13.989   9.030
60021SOL     OW81959   7.885   7.921   1.853
60021SOL    HW181960   7.925   7.982   1.914
60021SOL    HW281961   7.791   7.935   1.864
60022SOL     OW81962   2.469   4.400   6.980
60022SOL    HW181963   2.487   4.457   6.906
60022SOL    HW281964   2.373   4.396   6.985
60023SOL     OW81965  12.626  12.663   2.294
60023SOL    HW181966  12.564  12.612   2.346
60023SOL    HW281967  12.613  12.632   2.204
60024SOL     OW81968   1.655  12.125  13.336
60024SOL    HW181969   1.610  12.170  13.265
60024SOL    HW281970   1.742  12.104  13.300
60025SOL     OW81971  12.763  13.360   1.156
60025SOL    HW181972  12.846  13.387   1.195
60025SOL    HW281973  12.778  13.369   1.061
60026SOL     OW81974  12.020  13.584   1.846
60026SOL    HW181975  11.983  13.498   1.865
60026SOL    HW281976  12.114  13.569   1.839
60027SOL     OW81977   8.272   3.972   0.575
60027SOL    HW181978   8.259   4.061   0.607
60027SOL    HW281979   8.337   3.935   0.635
60028SOL     OW81980   6.149   9.740  14.780
60028SOL    HW181981   6.206   9.667  14.755
60028SOL    HW281982   6.185   9.815  14.734
60029SOL     OW81983  12.657  10.025   0.207
60029SOL    HW181984  12.644  10.003   0.299
60029SOL    HW281985  12.716  10.100   0.208
60030SOL     OW81986  12.874   7.643  14.858
60030SOL    HW181987  12.844   7.562  14.817
60030SOL    HW281988  12.796   7.699  14.859
60031SOL     OW81989  13.508   9.968   6.678
60031SOL    HW181990  13.447   9.896   6.692
60031SOL    HW281991  13.455  10.047   6.686
60032SOL     OW81992   1.940   9.264  13.539
60032SOL    HW181993   1.957   9.335  13.601
60032SOL    HW281994   1.945   9.184  13.592
60033SOL     OW81995   2.667   7.141   2.258
60033SOL    HW181996   2.635   7.212   2.314
60033SOL    HW281997   2.631   7.160   2.172
60034SOL     OW81998   0.799   1.693  11.829
60034SOL    HW181999   0.731   1.752  11.860
60034SOL    HW282000   0.752   1.619  11.790
60035SOL     OW82001   7.335   9.555   2.805
60035SOL    HW182002   7.288   9.595   2.731
60035SOL    HW282003   7.347   9.627   2.867
60036SOL     OW82004   4.801  14.226   5.824
60036SOL    HW182005   4.838  14.202   5.909
60036SOL    HW282006   4.876  14.251   5.771
60037SOL     OW82007   7.258  14.675  12.717
60037SOL    HW182008   7.268  14.686  12.812
60037SOL    HW282009   7.310  14.746  12.679
60038SOL     OW82010  13.499   9.900   7.978
60038SOL    HW182011  13.470   9.934   7.894
60038SOL    HW282012  13.450   9.819   7.990
60039SOL     OW82013  10.915  11.641   6.078
60039SOL    HW182014  10.875  11.576   6.136
60039SOL    HW282015  11.006  11.613   6.071
60040SOL     OW82016  14.612  14.868   7.128
60040SOL    HW182017  14.554  14.852   7.053
60040SOL    HW282018  14.567   0.065   7.179
60041SOL     OW82019   0.260   9.806   1.592
60041SOL    HW182020   0.325   9.864   1.631
60041SOL    HW282021   0.298   9.780   1.508
60042SOL     OW82022  10.914   3.539   8.658
60042SOL    HW182023  10.886   3.544   8.749
60042SOL    HW282024  10.835   3.515   8.610
60043SOL     OW82025  10.470   1.016   7.410
60043SOL    HW182026  10.447   0.925   7.389
60043SOL    HW282027  10.419   1.068   7.349
60044SOL     OW82028  10.875  10.576   7.359
60044SOL    HW182029  10.903  10.637   7.427
60044SOL    HW282030  10.826  10.629   7.297
60045SOL     OW82031   2.660   2.900   3.869
60045SOL    HW182032   2.593   2.846   3.910
60045SOL    HW282033   2.612   2.975   3.832
60046SOL     OW82034   7.590   2.593  11.720
60046SOL    HW182035   7.558   2.532  11.786
60046SOL    HW282036   7.527   2.585  11.648
60047SOL     OW82037   0.018   1.696   1.400
60047SOL    HW182038   0.055   1.783   1.414
60047SOL    HW282039  14.853   1.671   1.486
60048SOL     OW82040   1.195   9.937   8.265
60048SOL    HW182041   1.241   9.986   8.197
60048SOL    HW282042   1.264   9.890   8.312
60049SOL     OW82043   3.548   3.536  12.871
60049SOL    HW182044   3.548   3.538  12.775
60049SOL    HW282045   3.634   3.569  12.896
60050SOL     OW82046   1.441  11.903  10.615
60050SOL    HW182047   1.390  11.840  10.665
60050SOL    HW282048   1.408  11.895  10.526
60051SOL     OW82049  11.890   3.717   6.596
60051SOL    HW182050  11.964   3.737   6.653
60051SOL    HW282051  11.871   3.799   6.551
60052SOL     OW82052   4.263  14.036   1.716
60052SOL    HW182053   4.317  14.033   1.637
60052SOL    HW282054   4.184  14.084   1.690
60053SOL     OW82055  14.431   8.574   9.807
60053SOL    HW182056  14.357   8.549   9.752
60053SOL    HW282057  14.469   8.650   9.762
60054SOL     OW82058  10.385   4.317  11.882
60054SOL    HW182059  10.471   4.359  11.874
60054SOL    HW282060  10.392   4.266  11.963
60055SOL     OW82061   4.223   9.350   7.726
60055SOL    HW182062   4.145   9.301   7.753
60055SOL    HW282063   4.296   9.303   7.767
60056SOL     OW82064  13.279   8.208   1.479
60056SOL    HW182065  13.318   8.235   1.395
60056SOL    HW282066  13.237   8.125   1.459
60057SOL     OW82067  14.058  13.583  11.199
60057SOL    HW182068  14.105  13.576  11.282
60057SOL    HW282069  14.090  13.510  11.147
60058SOL     OW82070   5.998  10.866   5.222
60058SOL    HW182071   6.077  10.906   5.187
60058SOL    HW282072   6.029  10.803   5.288
60059SOL     OW82073   4.742   4.886   3.456
60059SOL    HW182074   4.767   4.933   3.377
60059SOL    HW282075   4.649   4.869   3.445
60060SOL     OW82076  11.621   7.347   3.184
60060SOL    HW182077  11.624   7.400   3.264
60060SOL    HW282078  11.639   7.258   3.213
60061SOL     OW82079  11.136   1.666  12.246
60061SOL    HW182080  11.043   1.652  12.227
60061SOL    HW282081  11.152   1.756  12.220
60062SOL     OW82082   7.378  14.490  14.394
60062SOL    HW182083   7.405  14.549  14.324
60062SOL    HW282084   7.414  14.529  14.474
60063SOL     OW82085   6.180   1.533  14.462
60063SOL    HW182086   6.272   1.513  14.477
60063SOL    HW282087   6.139   1.527  14.548
60064SOL     OW82088  12.069  14.621   2.273
60064SOL    HW182089  12.082  14.563   2.198
60064SOL    HW282090  12.058  14.563   2.348
60065SOL     OW82091   3.249   4.460   6.266
60065SOL    HW182092   3.181   4.518   6.231
60065SOL    HW282093   3.321   4.519   6.291
60066SOL     OW82094   1.877  12.924  13.114
60066SOL    HW182095   1.803  12.923  13.175
60066SOL    HW282096   1.864  13.002  13.062
60067SOL     OW82097   3.667   9.384   3.582
60067SOL    HW182098   3.724   9.345   3.648
60067SOL    HW282099   3.708   9.363   3.499
60068SOL     OW82100  13.477  11.762   8.551
60068SOL    HW182101  13.562  11.766   8.594
60068SOL    HW282102  13.497  11.747   8.459
60069SOL     OW82103   5.829   8.822  11.155
60069SOL    HW182104   5.821   8.859  11.243
60069SOL    HW282105   5.771   8.746  11.156
60070SOL     OW82106   1.696  13.868  14.158
60070SOL    HW182107   1.655  13.877  14.072
60070SOL    HW282108   1.720  13.775  14.163
60071SOL     OW82109   1.103  11.039   9.913
60071SOL    HW182110   1.127  11.125   9.878
60071SOL    HW282111   1.136  11.040  10.003
60072SOL     OW82112  12.268   0.995   0.542
60072SOL    HW182113  12.201   1.044   0.494
60072SOL    HW282114  12.246   1.009   0.634
60073SOL     OW82115   3.577   2.373  11.871
60073SOL    HW182116   3.567   2.282  11.898
60073SOL    HW282117   3.527   2.423  11.937
60074SOL     OW82118   9.166   5.659   4.218
60074SOL    HW182119   9.146   5.662   4.124
60074SOL    HW282120   9.261   5.659   4.223
60075SOL     OW82121   2.438  13.556  12.681
60075SOL    HW182122   2.359  13.608  12.667
60075SOL    HW282123   2.417  13.471  12.641
60076SOL     OW82124   6.705   5.083   0.015
60076SOL    HW182125   6.691   5.178   0.013
60076SOL    HW282126   6.618   5.046   0.000
60077SOL     OW82127  12.811   3.459  12.356
60077SOL    HW182128  12.857   3.536  12.389
60077SOL    HW282129  12.788   3.409  12.435
60078SOL     OW82130   4.945   7.987   1.642
60078SOL    HW182131   4.851   8.000   1.658
60078SOL    HW282132   4.978   8.073   1.619
60079SOL     OW82133  11.194   2.686   8.014
60079SOL    HW182134  11.122   2.746   8.033
60079SOL    HW282135  11.167   2.641   7.934
60080SOL     OW82136   5.173  11.781   2.732
60080SOL    HW182137   5.226  11.737   2.666
60080SOL    HW282138   5.088  11.738   2.729
60081SOL     OW82139   2.573   3.756   5.193
60081SOL    HW182140   2.501   3.808   5.158
60081SOL    HW282141   2.616   3.720   5.116
60082SOL     OW82142  13.151   6.294  13.913
60082SOL    HW182143  13.210   6.368  13.929
60082SOL    HW282144  13.207   6.228  13.871
60083SOL     OW82145   4.612   6.651   8.333
60083SOL    HW182146   4.633   6.671   8.425
60083SOL    HW282147   4.653   6.722   8.284
60084SOL     OW82148   8.935  11.482  11.212
60084SOL    HW182149   8.986  11.407  11.183
60084SOL    HW282150   8.850  11.471  11.170
60085SOL     OW82151  14.077   6.491   5.796
60085SOL    HW182152  14.162   6.475   5.756
60085SOL    HW282153  14.034   6.555   5.739
60086SOL     OW82154   1.403   6.742  13.515
60086SOL    HW182155   1.416   6.651  13.488
60086SOL    HW282156   1.480   6.762  13.569
60087SOL     OW82157   6.872  11.894   8.905
60087SOL    HW182158   6.950  11.887   8.960
60087SOL    HW282159   6.838  11.982   8.923
60088SOL     OW82160   3.731   9.793   3.811
60088SOL    HW182161   3.641   9.794   3.777
60088SOL    HW282162   3.786   9.775   3.735
60089SOL     OW82163  10.323  12.719  14.653
60089SOL    HW182164  10.286  12.635  14.627
60089SOL    HW282165  10.378  12.700  14.728
60090SOL     OW82166  14.274  13.706  14.201
60090SOL    HW182167  14.276  13.650  14.278
60090SOL    HW282168  14.194  13.758  14.211
60091SOL     OW82169  11.758  12.899   1.271
60091SOL    HW182170  11.701  12.943   1.208
60091SOL    HW282171  11.822  12.965   1.297
60092SOL     OW82172   1.097  13.580   7.004
60092SOL    HW182173   1.143  13.542   6.930
60092SOL    HW282174   1.142  13.545   7.081
60093SOL     OW82175   2.291   4.337   7.272
60093SOL    HW182176   2.245   4.394   7.211
60093SOL    HW282177   2.305   4.391   7.350
60094SOL     OW82178   2.996   5.080   7.113
60094SOL    HW182179   2.944   5.036   7.180
60094SOL    HW282180   3.081   5.035   7.115
60095SOL     OW82181   2.150   6.012   4.889
60095SOL    HW182182   2.125   5.945   4.825
60095SOL    HW282183   2.175   6.088   4.836
60096SOL     OW82184   0.650   8.095   8.256
60096SOL    HW182185   0.671   8.160   8.323
60096SOL    HW282186   0.734   8.053   8.236
60097SOL     OW82187  12.875  11.535   7.916
60097SOL    HW182188  12.906  11.555   7.828
60097SOL    HW282189  12.936  11.581   7.974
60098SOL     OW82190   9.668   1.513  14.464
60098SOL    HW182191   9.756   1.513  14.428
60098SOL    HW282192   9.651   1.604  14.486
60099SOL     OW82193   9.652   7.041  13.303
60099SOL    HW182194   9.634   7.124  13.259
60099SOL    HW282195   9.625   6.974  13.240
60100SOL     OW82196   9.831   4.145   6.774
60100SOL    HW182197   9.917   4.107   6.758
60100SOL    HW282198   9.849   4.228   6.818
60101SOL     OW82199   9.035   2.258   2.512
60101SOL    HW182200   9.068   2.212   2.434
60101SOL    HW282201   8.946   2.225   2.523
60102SOL     OW82202   7.696   2.469  13.432
60102SOL    HW182203   7.725   2.550  13.391
60102SOL    HW282204   7.602   2.480  13.443
60103SOL     OW82205   4.387   4.079   3.173
60103SOL    HW182206   4.316   4.094   3.235
60103SOL    HW282207   4.370   4.142   3.102
60104SOL     OW82208   4.684   3.683   2.353
60104SOL    HW182209   4.619   3.719   2.413
60104SOL    HW282210   4.727   3.614   2.403
60105SOL     OW82211   4.481  12.593  10.611
60105SOL    HW182212   4.537  12.603  10.534
60105SOL    HW282213   4.526  12.642  10.679
60106SOL     OW82214  10.052  11.208   4.288
60106SOL    HW182215   9.985  11.264   4.249
60106SOL    HW282216  10.130  11.225   4.235
60107SOL     OW82217   3.290  11.021   8.802
60107SOL    HW182218   3.225  11.067   8.749
60107SOL    HW282219   3.327  10.955   8.743
60108SOL     OW82220   3.698  12.204  14.008
60108SOL    HW182221   3.713  12.229  13.917
60108SOL    HW282222   3.610  12.166  14.008
60109SOL     OW82223   3.273   5.351   2.267
60109SOL    HW182224   3.277   5.281   2.332
60109SOL    HW282225   3.364   5.375   2.253
60110SOL     OW82226   8.972  13.172   6.026
60110SOL    HW182227   8.944  13.243   5.969
60110SOL    HW282228   8.900  13.160   6.087
60111SOL     OW82229   6.940   8.556   9.228
60111SOL    HW182230   6.993   8.525   9.301
60111SOL    HW282231   6.963   8.648   9.217
60112SOL     OW82232   1.433   7.861  11.215
60112SOL    HW182233   1.482   7.943  11.203
60112SOL    HW282234   1.489   7.794  11.176
60113SOL     OW82235   7.826   8.955  14.079
60113SOL    HW182236   7.786   8.903  14.009
60113SOL    HW282237   7.754   9.007  14.115
60114SOL     OW82238   4.147   4.254  10.639
60114SOL    HW182239   4.136   4.226  10.730
60114SOL    HW282240   4.179   4.175  10.594
60115SOL     OW82241   9.952  11.750  10.141
60115SOL    HW182242   9.966  11.773  10.049
60115SOL    HW282243   9.930  11.832  10.184
60116SOL     OW82244  14.793  14.122  13.043
60116SOL    HW182245   0.013  14.152  13.050
60116SOL    HW282246  14.801  14.030  13.017
60117SOL     OW82247   5.399  13.170  10.858
60117SOL    HW182248   5.373  13.142  10.770
60117SOL    HW282249   5.478  13.221  10.845
60118SOL     OW82250  10.077   8.142  13.865
60118SOL    HW182251  10.125   8.160  13.784
60118SOL    HW282252  10.137   8.090  13.917
60119SOL     OW82253   5.018  11.332   2.389
60119SOL    HW182254   4.938  11.309   2.436
60119SOL    HW282255   5.071  11.252   2.392
60120SOL     OW82256  14.038   0.302   1.872
60120SOL    HW182257  13.994   0.313   1.956
60120SOL    HW282258  14.122   0.263   1.895
60121SOL     OW82259   5.095   6.464   0.341
60121SOL    HW182260   5.145   6.541   0.367
60121SOL    HW282261   5.130   6.441   0.255
60122SOL     OW82262  14.204  14.776   3.047
60122SOL    HW182263  14.134  14.769   2.983
60122SOL    HW282264  14.207  14.869   3.069
60123SOL     OW82265  10.364   9.371   6.905
60123SOL    HW182266  10.363   9.429   6.981
60123SOL    HW282267  10.289   9.398   6.853
60124SOL     OW82268  10.567  11.469  14.059
60124SOL    HW182269  10.530  11.382  14.072
60124SOL    HW282270  10.554  11.487  13.966
60125SOL     OW82271   1.948   3.435   4.531
60125SOL    HW182272   1.952   3.525   4.563
60125SOL    HW282273   2.013   3.432   4.461
60126SOL     OW82274   4.388  13.979  13.442
60126SOL    HW182275   4.417  13.888  13.445
60126SOL    HW282276   4.293  13.975  13.453
60127SOL     OW82277   8.317   2.164   6.963
60127SOL    HW182278   8.342   2.256   6.967
60127SOL    HW282279   8.391   2.117   7.001
60128SOL     OW82280  10.956   9.654  11.537
60128SOL    HW182281  10.869   9.668  11.500
60128SOL    HW282282  10.990   9.578  11.489
60129SOL     OW82283   1.295   8.042   1.532
60129SOL    HW182284   1.386   8.071   1.537
60129SOL    HW282285   1.273   8.051   1.439
60130SOL     OW82286   2.098   7.286  12.689
60130SOL    HW182287   2.125   7.217  12.628
60130SOL    HW282288   2.137   7.366  12.654
60131SOL     OW82289  11.651   5.424   6.976
60131SOL    HW182290  11.682   5.336   7.000
60131SOL    HW282291  11.587   5.408   6.906
60132SOL     OW82292   4.569   1.769   5.315
60132SOL    HW182293   4.563   1.756   5.410
60132SOL    HW282294   4.663   1.765   5.297
60133SOL     OW82295   3.606   2.598   3.828
60133SOL    HW182296   3.549   2.660   3.782
60133SOL    HW282297   3.687   2.599   3.777
60134SOL     OW82298   4.841   1.197   4.944
60134SOL    HW182299   4.903   1.186   4.872
60134SOL    HW282300   4.857   1.287   4.975
60135SOL     OW82301  11.436  11.412  11.743
60135SOL    HW182302  11.358  11.450  11.703
60135SOL    HW282303  11.451  11.331  11.694
60136SOL     OW82304  11.205   6.533   0.585
60136SOL    HW182305  11.143   6.545   0.657
60136SOL    HW282306  11.149   6.520   0.508
60137SOL     OW82307  12.922  10.934  12.512
60137SOL    HW182308  12.966  10.849  12.515
60137SOL    HW282309  12.917  10.955  12.419
60138SOL     OW82310  10.486   2.497   1.851
60138SOL    HW182311  10.525   2.557   1.788
60138SOL    HW282312  10.526   2.412   1.832
60139SOL     OW82313   7.501   8.710   6.791
60139SOL    HW182314   7.437   8.643   6.816
60139SOL    HW282315   7.458   8.760   6.721
60140SOL     OW82316   9.294   5.948   8.921
60140SOL    HW182317   9.200   5.965   8.919
60140SOL    HW282318   9.333   6.031   8.949
60141SOL     OW82319   0.288   6.655  10.219
60141SOL    HW182320   0.368   6.689  10.259
60141SOL    HW282321   0.255   6.728  10.167
60142SOL     OW82322   6.442   7.076  11.892
60142SOL    HW182323   6.360   7.116  11.865
60142SOL    HW282324   6.505   7.149  11.894
60143SOL     OW82325   4.234   7.810   5.253
60143SOL    HW182326   4.277   7.860   5.183
60143SOL    HW282327   4.149   7.786   5.218
60144SOL     OW82328   8.600  13.103  10.391
60144SOL    HW182329   8.639  13.180  10.350
60144SOL    HW282330   8.596  13.038  10.321
60145SOL     OW82331   1.952   6.985   6.330
60145SOL    HW182332   1.909   7.042   6.395
60145SOL    HW282333   1.908   6.900   6.341
60146SOL     OW82334   5.285   7.417   5.711
60146SOL    HW182335   5.241   7.333   5.722
60146SOL    HW282336   5.337   7.406   5.631
60147SOL     OW82337   2.197   9.975  12.919
60147SOL    HW182338   2.290   9.954  12.930
60147SOL    HW282339   2.151   9.914  12.977
60148SOL     OW82340   0.916  10.047   5.742
60148SOL    HW182341   0.862  10.083   5.671
60148SOL    HW282342   0.862  10.057   5.820
60149SOL     OW82343   0.664   2.628   9.374
60149SOL    HW182344   0.641   2.561   9.438
60149SOL    HW282345   0.631   2.595   9.291
60150SOL     OW82346   4.025   0.507   7.761
60150SOL    HW182347   4.093   0.525   7.696
60150SOL    HW282348   3.945   0.541   7.721
60151SOL     OW82349  11.170   5.407   1.535
60151SOL    HW182350  11.187   5.400   1.441
60151SOL    HW282351  11.085   5.366   1.548
60152SOL     OW82352  14.398   0.790   5.565
60152SOL    HW182353  14.407   0.814   5.657
60152SOL    HW282354  14.453   0.713   5.554
60153SOL     OW82355   6.570   8.003   4.023
60153SOL    HW182356   6.557   8.004   3.928
60153SOL    HW282357   6.536   7.917   4.050
60154SOL     OW82358   6.138  14.117   6.785
60154SOL    HW182359   6.159  14.194   6.732
60154SOL    HW282360   6.217  14.102   6.838
60155SOL     OW82361   9.046   2.339   5.703
60155SOL    HW182362   8.974   2.295   5.658
60155SOL    HW282363   9.019   2.430   5.710
60156SOL     OW82364   5.453  11.986   7.574
60156SOL    HW182365   5.379  12.033   7.536
60156SOL    HW282366   5.460  11.906   7.523
60157SOL     OW82367   8.199   0.056  11.138
60157SOL    HW182368   8.287   0.084  11.113
60157SOL    HW282369   8.152   0.138  11.155
60158SOL     OW82370   5.690   8.170   2.106
60158SOL    HW182371   5.605   8.131   2.083
60158SOL    HW282372   5.729   8.107   2.167
60159SOL     OW82373   1.161  13.329   5.991
60159SOL    HW182374   1.140  13.249   5.943
60159SOL    HW282375   1.084  13.385   5.980
60160SOL     OW82376  10.090   4.981  10.375
60160SOL    HW182377  10.104   4.919  10.303
60160SOL    HW282378  10.158   5.047  10.363
60161SOL     OW82379   5.546  10.254   1.996
60161SOL    HW182380   5.571  10.331   1.946
60161SOL    HW282381   5.491  10.203   1.937
60162SOL     OW82382   7.318  11.765   7.485
60162SOL    HW182383   7.394  11.774   7.542
60162SOL    HW282384   7.243  11.775   7.544
60163SOL     OW82385   0.015  11.741  14.234
60163SOL    HW182386  14.813  11.799  14.261
60163SOL    HW282387  14.852  11.699  14.154
60164SOL     OW82388   2.067   4.348   5.739
60164SOL    HW182389   2.122   4.417   5.701
60164SOL    HW282390   2.111   4.266   5.715
60165SOL     OW82391  11.805   5.606  12.637
60165SOL    HW182392  11.807   5.700  12.650
60165SOL    HW282393  11.772   5.595  12.547
60166SOL     OW82394  11.526  14.306  12.079
60166SOL    HW182395  11.450  14.345  12.123
60166SOL    HW282396  11.598  14.366  12.099
60167SOL     OW82397   6.913   2.746   3.984
60167SOL    HW182398   6.895   2.761   4.077
60167SOL    HW282399   6.879   2.824   3.940
60168SOL     OW82400   9.529  11.673   9.894
60168SOL    HW182401   9.561  11.600   9.946
60168SOL    HW282402   9.603  11.734   9.889
60169SOL     OW82403   5.242   1.111  12.370
60169SOL    HW182404   5.221   1.117  12.277
60169SOL    HW282405   5.231   1.200  12.403
60170SOL     OW82406   8.246  14.155   0.225
60170SOL    HW182407   8.335  14.180   0.201
60170SOL    HW282408   8.195  14.171   0.146
60171SOL     OW82409  12.201   1.938   4.636
60171SOL    HW182410  12.239   2.024   4.658
60171SOL    HW282411  12.110   1.943   4.665
60172SOL     OW82412  13.472  14.179  13.791
60172SOL    HW182413  13.503  14.180  13.881
60172SOL    HW282414  13.499  14.264  13.756
60173SOL     OW82415  13.625   2.790   2.505
60173SOL    HW182416  13.699   2.746   2.465
60173SOL    HW282417  13.642   2.786   2.599
60174SOL     OW82418   6.284   0.676   2.764
60174SOL    HW182419   6.290   0.758   2.715
60174SOL    HW282420   6.371   0.637   2.756
60175SOL     OW82421   0.811   8.559   2.863
60175SOL    HW182422   0.732   8.549   2.810
60175SOL    HW282423   0.876   8.506   2.817
60176SOL     OW82424   0.966   1.472   8.097
60176SOL    HW182425   0.886   1.493   8.049
60176SOL    HW282426   1.004   1.399   8.048
60177SOL     OW82427   7.036  10.899  14.266
60177SOL    HW182428   7.108  10.839  14.281
60177SOL    HW282429   6.973  10.849  14.214
60178SOL     OW82430   4.346  12.752  10.081
60178SOL    HW182431   4.440  12.745  10.097
60178SOL    HW282432   4.314  12.661  10.084
60179SOL     OW82433  11.624   1.106  11.555
60179SOL    HW182434  11.682   1.098  11.480
60179SOL    HW282435  11.622   1.019  11.595
60180SOL     OW82436   1.113   8.481  11.322
60180SOL    HW182437   1.039   8.439  11.277
60180SOL    HW282438   1.138   8.418  11.389
60181SOL     OW82439   5.290  14.271   4.426
60181SOL    HW182440   5.230  14.344   4.415
60181SOL    HW282441   5.371  14.299   4.384
60182SOL     OW82442  10.220  13.851   3.963
60182SOL    HW182443  10.239  13.878   3.873
60182SOL    HW282444  10.132  13.883   3.979
60183SOL     OW82445   9.938   4.332  12.015
60183SOL    HW182446   9.889   4.368  11.940
60183SOL    HW282447   9.878   4.342  12.089
60184SOL     OW82448   1.449   0.278  13.754
60184SOL    HW182449   1.371   0.262  13.701
60184SOL    HW282450   1.522   0.267  13.693
60185SOL     OW82451   3.695   8.280   3.472
60185SOL    HW182452   3.675   8.346   3.405
60185SOL    HW282453   3.772   8.315   3.518
60186SOL     OW82454   7.641  14.104  13.963
60186SOL    HW182455   7.648  14.120  13.869
60186SOL    HW282456   7.546  14.102  13.980
60187SOL     OW82457   6.023   6.982   1.158
60187SOL    HW182458   6.062   6.995   1.244
60187SOL    HW282459   5.965   6.907   1.169
60188SOL     OW82460   7.051   6.597   3.549
60188SOL    HW182461   6.997   6.594   3.470
60188SOL    HW282462   7.074   6.505   3.565
60189SOL     OW82463  12.216   8.770   5.940
60189SOL    HW182464  12.132   8.784   5.984
60189SOL    HW282465  12.242   8.682   5.966
60190SOL     OW82466   8.631   4.130  13.557
60190SOL    HW182467   8.640   4.211  13.506
60190SOL    HW282468   8.720   4.110  13.585
60191SOL     OW82469   7.104   0.788   6.692
60191SOL    HW182470   7.113   0.815   6.784
60191SOL    HW282471   7.114   0.693   6.694
60192SOL     OW82472  11.586   9.031  10.629
60192SOL    HW182473  11.682   9.031  10.631
60192SOL    HW282474  11.564   9.017  10.537
60193SOL     OW82475   8.896  12.788   1.899
60193SOL    HW182476   8.815  12.750   1.933
60193SOL    HW282477   8.896  12.878   1.932
60194SOL     OW82478   5.580  12.931  13.653
60194SOL    HW182479   5.599  12.837  13.655
60194SOL    HW282480   5.644  12.966  13.590
60195SOL     OW82481   8.545  10.963  14.341
60195SOL    HW182482   8.633  10.924  14.336
60195SOL    HW282483   8.537  10.993  14.432
60196SOL     OW82484   2.059  10.869   5.818
60196SOL    HW182485   2.131  10.809   5.800
60196SOL    HW282486   1.983  10.829   5.775
60197SOL     OW82487  10.065   2.420   1.996
60197SOL    HW182488  10.119   2.458   1.927
60197SOL    HW282489  10.015   2.351   1.952
60198SOL     OW82490   5.264   0.557  10.369
60198SOL    HW182491   5.224   0.638  10.338
60198SOL    HW282492   5.253   0.559  10.464
60199SOL     OW82493   1.383  14.867   3.658
60199SOL    HW182494   1.301   0.016   3.703
60199SOL    HW282495   1.395   0.071   3.598
60200SOL     OW82496   7.697  11.300  14.672
60200SOL    HW182497   7.695  11.369  14.606
60200SOL    HW282498   7.690  11.346  14.755
60201SOL     OW82499   2.151  11.790   8.205
60201SOL    HW182500   2.218  11.732   8.239
60201SOL    HW282501   2.197  11.848   8.144
60202SOL     OW82502   6.589   2.571  13.830
60202SOL    HW182503   6.618   2.555  13.919
60202SOL    HW282504   6.621   2.496  13.780
60203SOL     OW82505   8.097  14.244   8.694
60203SOL    HW182506   8.185  14.210   8.675
60203SOL    HW282507   8.043  14.166   8.705
60204SOL     OW82508   5.736  13.436   7.209
60204SOL    HW182509   5.675  13.366   7.231
60204SOL    HW282510   5.706  13.511   7.260
60205SOL     OW82511  10.558  13.988   5.863
60205SOL    HW182512  10.588  13.942   5.942
60205SOL    HW282513  10.468  13.956   5.849
60206SOL     OW82514   8.035  14.746  10.997
60206SOL    HW182515   8.095  14.783  11.061
60206SOL    HW282516   8.009  14.819  10.941
60207SOL     OW82517   2.138  12.764   3.408
60207SOL    HW182518   2.205  12.702   3.380
60207SOL    HW282519   2.147  12.838   3.347
60208SOL     OW82520   5.625   8.402  13.956
60208SOL    HW182521   5.696   8.412  13.892
60208SOL    HW282522   5.554   8.362  13.907
60209SOL     OW82523   8.198   4.108   4.706
60209SOL    HW182524   8.290   4.107   4.679
60209SOL    HW282525   8.202   4.116   4.802
60210SOL     OW82526   3.589   4.201   7.092
60210SOL    HW182527   3.579   4.235   7.003
60210SOL    HW282528   3.571   4.276   7.149
60211SOL     OW82529  11.726   9.540   7.668
60211SOL    HW182530  11.639   9.573   7.646
60211SOL    HW282531  11.758   9.598   7.737
60212SOL     OW82532   9.966   5.397   3.915
60212SOL    HW182533   9.962   5.491   3.900
60212SOL    HW282534   9.991   5.360   3.831
60213SOL     OW82535   8.224   3.470  13.853
60213SOL    HW182536   8.159   3.407  13.886
60213SOL    HW282537   8.172   3.545  13.825
60214SOL     OW82538   9.091   7.894  11.531
60214SOL    HW182539   9.028   7.837  11.576
60214SOL    HW282540   9.090   7.975  11.582
60215SOL     OW82541  10.261   6.506   7.408
60215SOL    HW182542  10.176   6.542   7.434
60215SOL    HW282543  10.250   6.486   7.315
60216SOL     OW82544   6.579  14.794   2.836
60216SOL    HW182545   6.616  14.833   2.915
60216SOL    HW282546   6.637  14.822   2.766
60217SOL     OW82547  13.505   7.714  13.620
60217SOL    HW182548  13.412   7.698  13.608
60217SOL    HW282549  13.534   7.644  13.679
60218SOL     OW82550   2.224   1.100  14.157
60218SOL    HW182551   2.271   1.180  14.135
60218SOL    HW282552   2.271   1.063  14.231
60219SOL     OW82553   1.983  10.366   6.374
60219SOL    HW182554   2.076  10.387   6.386
60219SOL    HW282555   1.948  10.358   6.463
60220SOL     OW82556   5.788  14.020  10.087
60220SOL    HW182557   5.759  14.030  10.177
60220SOL    HW282558   5.813  13.928  10.080
60221SOL     OW82559   0.641   0.100   7.891
60221SOL    HW182560   0.694   0.055   7.825
60221SOL    HW282561   0.592   0.030   7.934
60222SOL     OW82562   1.282  11.162  10.093
60222SOL    HW182563   1.369  11.149  10.055
60222SOL    HW282564   1.299  11.199  10.180
60223SOL     OW82565   3.997  14.044   4.425
60223SOL    HW182566   4.027  14.084   4.344
60223SOL    HW282567   3.921  14.096   4.452
60224SOL     OW82568   8.863  12.517   0.881
60224SOL    HW182569   8.793  12.578   0.858
60224SOL    HW282570   8.820  12.451   0.936
60225SOL     OW82571  10.973   4.310  14.230
60225SOL    HW182572  11.034   4.237  14.223
60225SOL    HW282573  10.988   4.345  14.318
60226SOL     OW82574  10.315   8.857  11.016
60226SOL    HW182575  10.364   8.877  10.935
60226SOL    HW282576  10.380   8.867  11.085
60227SOL     OW82577   0.029   1.728  14.502
60227SOL    HW182578   0.012   1.821  14.517
60227SOL    HW282579  14.812   1.688  14.496
60228SOL     OW82580   4.350   1.119   2.308
60228SOL    HW182581   4.397   1.036   2.309
60228SOL    HW282582   4.416   1.183   2.283
60229SOL     OW82583   7.685  11.744   3.257
60229SOL    HW182584   7.774  11.727   3.288
60229SOL    HW282585   7.648  11.803   3.323
60230SOL     OW82586   3.693   6.265   6.100
60230SOL    HW182587   3.778   6.309   6.094
60230SOL    HW282588   3.679   6.227   6.013
60231SOL     OW82589   9.311   6.911   5.242
60231SOL    HW182590   9.249   6.841   5.221
60231SOL    HW282591   9.303   6.972   5.169
60232SOL     OW82592   1.301   8.686   7.383
60232SOL    HW182593   1.339   8.752   7.441
60232SOL    HW282594   1.376   8.651   7.334
60233SOL     OW82595  10.404   3.517  13.746
60233SOL    HW182596  10.387   3.585  13.812
60233SOL    HW282597  10.417   3.437  13.797
60234SOL     OW82598   4.048  12.997   0.454
60234SOL    HW182599   4.020  13.059   0.522
60234SOL    HW282600   3.979  12.932   0.450
60235SOL     OW82601   7.527   6.091   2.682
60235SOL    HW182602   7.514   6.168   2.626
60235SOL    HW282603   7.506   6.121   2.770
60236SOL     OW82604  14.218  14.251  10.789
60236SOL    HW182605  14.283  14.196  10.835
60236SOL    HW282606  14.271  14.312  10.738
60237SOL     OW82607  10.576  13.127   7.871
60237SOL    HW182608  10.636  13.201   7.859
60237SOL    HW282609  10.588  13.074   7.792
60238SOL     OW82610   3.273   6.667  12.904
60238SOL    HW182611   3.195   6.657  12.958
60238SOL    HW282612   3.241   6.663  12.814
60239SOL     OW82613   6.123  13.700  14.434
60239SOL    HW182614   6.178  13.655  14.369
60239SOL    HW282615   6.094  13.779  14.390
60240SOL     OW82616   7.991   9.925   2.640
60240SOL    HW182617   7.901   9.950   2.620
60240SOL    HW282618   8.040  10.007   2.637
60241SOL     OW82619   3.223  10.454  14.280
60241SOL    HW182620   3.225  10.534  14.332
60241SOL    HW282621   3.147  10.406  14.312
60242SOL     OW82622   7.406   9.299   6.022
60242SOL    HW182623   7.489   9.298   5.974
60242SOL    HW282624   7.343   9.261   5.961
60243SOL     OW82625   8.708  14.164  10.686
60243SOL    HW182626   8.751  14.084  10.715
60243SOL    HW282627   8.667  14.141  10.602
60244SOL     OW82628  11.100  14.421   8.417
60244SOL    HW182629  11.013  14.460   8.420
60244SOL    HW282630  11.106  14.382   8.330
60245SOL     OW82631   6.280   7.236   0.262
60245SOL    HW182632   6.237   7.303   0.316
60245SOL    HW282633   6.340   7.285   0.206
60246SOL     OW82634   3.670   0.580  12.768
60246SOL    HW182635   3.645   0.671  12.751
60246SOL    HW282636   3.761   0.574  12.740
60247SOL     OW82637   7.591   5.887   9.022
60247SOL    HW182638   7.562   5.861   9.110
60247SOL    HW282639   7.582   5.983   9.022
60248SOL     OW82640   2.677   2.171   8.612
60248SOL    HW182641   2.616   2.131   8.550
60248SOL    HW282642   2.622   2.215   8.676
60249SOL     OW82643   7.066  13.513  14.338
60249SOL    HW182644   7.124  13.456  14.288
60249SOL    HW282645   6.978  13.484  14.315
60250SOL     OW82646   9.785  11.617   2.688
60250SOL    HW182647   9.863  11.636   2.740
60250SOL    HW282648   9.817  11.612   2.598
60251SOL     OW82649   6.135   4.164   3.332
60251SOL    HW182650   6.199   4.150   3.401
60251SOL    HW282651   6.178   4.224   3.271
60252SOL     OW82652   2.189   9.229   2.140
60252SOL    HW182653   2.136   9.302   2.172
60252SOL    HW282654   2.155   9.210   2.053
60253SOL     OW82655   3.467   8.011   4.995
60253SOL    HW182656   3.501   8.046   4.913
60253SOL    HW282657   3.390   8.064   5.014
60254SOL     OW82658   8.182  11.299  10.065
60254SOL    HW182659   8.198  11.336  10.152
60254SOL    HW282660   8.130  11.365  10.020
60255SOL     OW82661   5.100   3.016  13.788
60255SOL    HW182662   5.038   3.088  13.798
60255SOL    HW282663   5.096   2.994  13.695
60256SOL     OW82664   5.192   2.533   8.140
60256SOL    HW182665   5.103   2.539   8.106
60256SOL    HW282666   5.248   2.557   8.066
60257SOL     OW82667   2.845   2.235   4.468
60257SOL    HW182668   2.910   2.177   4.429
60257SOL    HW282669   2.894   2.314   4.493
60258SOL     OW82670   3.751   5.136  14.622
60258SOL    HW182671   3.734   5.052  14.580
60258SOL    HW282672   3.843   5.130  14.649
60259SOL     OW82673   7.894  14.126   2.837
60259SOL    HW182674   7.841  14.163   2.908
60259SOL    HW282675   7.965  14.080   2.883
60260SOL     OW82676   5.446  13.738   0.723
60260SOL    HW182677   5.518  13.700   0.674
60260SOL    HW282678   5.483  13.818   0.762
60261SOL     OW82679   4.886  10.644   7.720
60261SOL    HW182680   4.931  10.652   7.804
60261SOL    HW282681   4.898  10.552   7.696
60262SOL     OW82682   1.040  11.226  14.844
60262SOL    HW182683   0.988  11.289  14.795
60262SOL    HW282684   0.984  11.149  14.851
60263SOL     OW82685   4.480   7.861  10.375
60263SOL    HW182686   4.437   7.788  10.418
60263SOL    HW282687   4.429   7.876  10.295
60264SOL     OW82688  14.170   9.873   3.918
60264SOL    HW182689  14.182   9.867   4.013
60264SOL    HW282690  14.190   9.785   3.886
60265SOL     OW82691   1.394   2.132   7.400
60265SOL    HW182692   1.462   2.138   7.467
60265SOL    HW282693   1.425   2.064   7.340
60266SOL     OW82694  12.730   0.869   4.773
60266SOL    HW182695  12.797   0.842   4.836
60266SOL    HW282696  12.698   0.786   4.737
60267SOL     OW82697   3.155  14.788   6.749
60267SOL    HW182698   3.190   0.003   6.720
60267SOL    HW282699   3.102  14.809   6.826
60268SOL     OW82700   5.870   3.582   0.484
60268SOL    HW182701   5.872   3.674   0.457
60268SOL    HW282702   5.947   3.571   0.539
60269SOL     OW82703  13.454   8.906   6.691
60269SOL    HW182704  13.504   8.935   6.768
60269SOL    HW282705  13.487   8.818   6.673
60270SOL     OW82706   3.473  11.617  14.108
60270SOL    HW182707   3.435  11.530  14.102
60270SOL    HW282708   3.487  11.644  14.017
60271SOL     OW82709   5.507  11.523   4.385
60271SOL    HW182710   5.432  11.470   4.413
60271SOL    HW282711   5.583  11.466   4.398
60272SOL     OW82712   0.542   9.018  13.967
60272SOL    HW182713   0.528   9.094  14.023
60272SOL    HW282714   0.547   9.053  13.878
60273SOL     OW82715   2.757  12.686  13.202
60273SOL    HW182716   2.770  12.764  13.256
60273SOL    HW282717   2.721  12.621  13.262
60274SOL     OW82718  12.098  13.728   0.887
60274SOL    HW182719  12.120  13.636   0.878
60274SOL    HW282720  12.003  13.731   0.878
60275SOL     OW82721   0.564   9.366   2.410
60275SOL    HW182722   0.588   9.288   2.360
60275SOL    HW282723   0.597   9.439   2.358
60276SOL     OW82724  12.030   9.110  11.029
60276SOL    HW182725  12.118   9.113  11.065
60276SOL    HW282726  12.032   9.037  10.967
60277SOL     OW82727   2.847   7.059   5.614
60277SOL    HW182728   2.824   6.979   5.567
60277SOL    HW282729   2.932   7.039   5.654
60278SOL     OW82730   5.780   5.685  13.105
60278SOL    HW182731   5.719   5.618  13.073
60278SOL    HW282732   5.752   5.766  13.062
60279SOL     OW82733   2.278  12.145   7.902
60279SOL    HW182734   2.369  12.157   7.874
60279SOL    HW282735   2.235  12.228   7.879
60280SOL     OW82736   5.057   5.021  14.863
60280SOL    HW182737   5.047   5.021   0.088
60280SOL    HW282738   4.969   5.042  14.830
60281SOL     OW82739  10.197  12.161   6.042
60281SOL    HW182740  10.140  12.210   6.101
60281SOL    HW282741  10.274  12.140   6.094
60282SOL     OW82742   7.265   8.830  11.907
60282SOL    HW182743   7.263   8.883  11.827
60282SOL    HW282744   7.174   8.825  11.935
60283SOL     OW82745  11.149   7.531   4.623
60283SOL    HW182746  11.124   7.442   4.647
60283SOL    HW282747  11.106   7.586   4.688
60284SOL     OW82748   4.360  13.800   4.831
60284SOL    HW182749   4.294  13.740   4.796
60284SOL    HW282750   4.312  13.881   4.847
60285SOL     OW82751   1.545   8.501  13.604
60285SOL    HW182752   1.607   8.574  13.599
60285SOL    HW282753   1.579   8.437  13.542
60286SOL     OW82754  10.716   0.577  10.144
60286SOL    HW182755  10.781   0.554  10.078
60286SOL    HW282756  10.636   0.533  10.115
60287SOL     OW82757  13.799   9.961   9.017
60287SOL    HW182758  13.778  10.047   8.981
60287SOL    HW282759  13.777   9.968   9.110
60288SOL     OW82760   3.124   2.311  14.413
60288SOL    HW182761   3.032   2.307  14.386
60288SOL    HW282762   3.127   2.267  14.498
60289SOL     OW82763   0.236   6.397   2.242
60289SOL    HW182764   0.226   6.466   2.176
60289SOL    HW282765   0.273   6.323   2.194
60290SOL     OW82766   5.027  14.511   8.269
60290SOL    HW182767   4.980  14.567   8.208
60290SOL    HW282768   5.110  14.555   8.284
60291SOL     OW82769  10.071   4.952  11.551
60291SOL    HW182770  10.159   4.973  11.582
60291SOL    HW282771  10.071   4.978  11.459
60292SOL     OW82772   4.184   1.604   0.157
60292SOL    HW182773   4.172   1.517   0.197
60292SOL    HW282774   4.230   1.586   0.075
60293SOL     OW82775   2.249  13.153  14.154
60293SOL    HW182776   2.217  13.088  14.091
60293SOL    HW282777   2.320  13.109  14.200
60294SOL     OW82778   3.726   8.025   5.110
60294SOL    HW182779   3.750   8.052   5.199
60294SOL    HW282780   3.631   8.014   5.112
60295SOL     OW82781  12.997   2.946   1.330
60295SOL    HW182782  13.014   3.037   1.305
60295SOL    HW282783  13.072   2.923   1.386
60296SOL     OW82784   5.983  12.041  14.711
60296SOL    HW182785   5.974  12.051  14.806
60296SOL    HW282786   6.033  11.961  14.699
60297SOL     OW82787  10.229  11.505  13.186
60297SOL    HW182788  10.165  11.571  13.213
60297SOL    HW282789  10.251  11.528  13.096
60298SOL     OW82790   3.020   3.205   7.554
60298SOL    HW182791   3.092   3.255   7.515
60298SOL    HW282792   3.024   3.120   7.510
60299SOL     OW82793   3.886   5.064  10.908
60299SOL    HW182794   3.936   5.078  10.988
60299SOL    HW282795   3.880   4.969  10.899
60300SOL     OW82796   8.266  13.085   0.808
60300SOL    HW182797   8.174  13.099   0.788
60300SOL    HW282798   8.310  13.096   0.723
60301SOL     OW82799   3.324   9.690  12.715
60301SOL    HW182800   3.238   9.728  12.731
60301SOL    HW282801   3.373   9.707  12.795
60302SOL     OW82802  13.146   0.770   6.573
60302SOL    HW182803  13.222   0.820   6.544
60302SOL    HW282804  13.071   0.812   6.530
60303SOL     OW82805   0.116  11.214  12.305
60303SOL    HW182806   0.184  11.245  12.246
60303SOL    HW282807   0.115  11.279  12.376
60304SOL     OW82808   1.643  12.749  12.388
60304SOL    HW182809   1.616  12.750  12.480
60304SOL    HW282810   1.733  12.717  12.390
60305SOL     OW82811   3.188   9.849   6.425
60305SOL    HW182812   3.272   9.893   6.412
60305SOL    HW282813   3.211   9.757   6.438
60306SOL     OW82814   4.121   3.005  11.817
60306SOL    HW182815   4.108   3.025  11.910
60306SOL    HW282816   4.059   3.062  11.771
60307SOL     OW82817   1.012  11.962   4.563
60307SOL    HW182818   1.062  12.014   4.500
60307SOL    HW282819   1.056  11.877   4.564
60308SOL     OW82820   8.349  13.780   7.583
60308SOL    HW182821   8.280  13.782   7.649
60308SOL    HW282822   8.304  13.756   7.502
60309SOL     OW82823  12.526   0.113   6.956
60309SOL    HW182824  12.510   0.023   6.926
60309SOL    HW282825  12.615   0.131   6.928
60310SOL     OW82826   5.101  11.133   9.481
60310SOL    HW182827   5.102  11.226   9.506
60310SOL    HW282828   5.024  11.097   9.524
60311SOL     OW82829   0.905   6.432   8.858
60311SOL    HW182830   0.896   6.338   8.871
60311SOL    HW282831   0.997   6.444   8.832
60312SOL     OW82832   9.831  11.924   8.179
60312SOL    HW182833   9.739  11.946   8.194
60312SOL    HW282834   9.879  12.004   8.200
60313SOL     OW82835   2.157   2.254   5.126
60313SOL    HW182836   2.151   2.313   5.202
60313SOL    HW282837   2.163   2.313   5.051
60314SOL     OW82838   8.864   0.334   7.571
60314SOL    HW182839   8.954   0.319   7.601
60314SOL    HW282840   8.838   0.416   7.614
60315SOL     OW82841   3.624  10.154  14.688
60315SOL    HW182842   3.557  10.171  14.622
60315SOL    HW282843   3.707  10.173  14.644
60316SOL     OW82844   1.647   9.284   2.517
60316SOL    HW182845   1.557   9.276   2.486
60316SOL    HW282846   1.686   9.198   2.501
60317SOL     OW82847  14.868   9.436   3.580
60317SOL    HW182848   0.056   9.376   3.627
60317SOL    HW282849   0.034   9.439   3.491
60318SOL     OW82850   7.779  13.406   8.678
60318SOL    HW182851   7.709  13.468   8.700
60318SOL    HW282852   7.735  13.320   8.677
60319SOL     OW82853  12.989  13.487   1.520
60319SOL    HW182854  12.931  13.522   1.587
60319SOL    HW282855  13.075  13.523   1.541
60320SOL     OW82856  11.115   2.524   6.370
60320SOL    HW182857  11.052   2.560   6.433
60320SOL    HW282858  11.142   2.600   6.317
60321SOL     OW82859   2.794   8.201   9.819
60321SOL    HW182860   2.827   8.130   9.764
60321SOL    HW282861   2.703   8.177   9.838
60322SOL     OW82862   7.523   4.301   7.562
60322SOL    HW182863   7.496   4.371   7.622
60322SOL    HW282864   7.527   4.343   7.476
60323SOL     OW82865   6.856   9.293   8.654
60323SOL    HW182866   6.819   9.356   8.592
60323SOL    HW282867   6.791   9.224   8.660
60324SOL     OW82868   2.096   8.789   4.969
60324SOL    HW182869   2.149   8.745   5.036
60324SOL    HW282870   2.160   8.825   4.908
60325SOL     OW82871  11.568   1.516   6.677
60325SOL    HW182872  11.483   1.513   6.634
60325SOL    HW282873  11.623   1.456   6.626
60326SOL     OW82874   9.011   4.868   2.629
60326SOL    HW182875   8.988   4.823   2.711
60326SOL    HW282876   8.939   4.928   2.613
60327SOL     OW82877   2.754   2.255   3.985
60327SOL    HW182878   2.806   2.188   4.028
60327SOL    HW282879   2.727   2.314   4.055
60328SOL     OW82880   2.310   7.336   5.511
60328SOL    HW182881   2.392   7.303   5.547
60328SOL    HW282882   2.263   7.371   5.587
60329SOL     OW82883   1.430  13.533   2.748
60329SOL    HW182884   1.497  13.589   2.786
60329SOL    HW282885   1.359  13.593   2.725
60330SOL     OW82886   9.242   1.198   5.675
60330SOL    HW182887   9.172   1.263   5.665
60330SOL    HW282888   9.197   1.114   5.669
60331SOL     OW82889   6.870  14.028   1.818
60331SOL    HW182890   6.959  14.025   1.852
60331SOL    HW282891   6.817  13.984   1.884
60332SOL     OW82892   9.806   2.173   8.912
60332SOL    HW182893   9.816   2.218   8.996
60332SOL    HW282894   9.867   2.218   8.853
60333SOL     OW82895  12.148  11.241   4.494
60333SOL    HW182896  12.119  11.331   4.484
60333SOL    HW282897  12.242  11.244   4.474
60334SOL     OW82898   3.653  11.828  13.678
60334SOL    HW182899   3.732  11.783  13.705
60334SOL    HW282900   3.668  11.919  13.704
60335SOL     OW82901   1.105  10.030   7.287
60335SOL    HW182902   1.033   9.967   7.299
60335SOL    HW282903   1.123  10.062   7.376
60336SOL     OW82904  11.541   3.360   9.060
60336SOL    HW182905  11.469   3.420   9.042
60336SOL    HW282906  11.611   3.389   9.002
60337SOL     OW82907   9.451  12.320  10.354
60337SOL    HW182908   9.461  12.401  10.403
60337SOL    HW282909   9.454  12.348  10.262
60338SOL     OW82910   9.227  14.015  10.002
60338SOL    HW182911   9.143  13.990  10.041
60338SOL    HW282912   9.214  14.107   9.976
60339SOL     OW82913   4.999   5.535   2.261
60339SOL    HW182914   4.927   5.481   2.295
60339SOL    HW282915   5.031   5.583   2.337
60340SOL     OW82916   4.029   6.540   8.623
60340SOL    HW182917   4.114   6.504   8.645
60340SOL    HW282918   3.972   6.463   8.614
60341SOL     OW82919  14.770   4.777  13.857
60341SOL    HW182920  14.739   4.850  13.911
60341SOL    HW282921  14.802   4.712  13.921
60342SOL     OW82922   5.696  12.283   1.442
60342SOL    HW182923   5.662  12.209   1.393
60342SOL    HW282924   5.675  12.263   1.534
60343SOL     OW82925   0.656   8.368   8.814
60343SOL    HW182926   0.745   8.401   8.808
60343SOL    HW282927   0.666   8.274   8.828
60344SOL     OW82928   5.286   2.975   0.097
60344SOL    HW182929   5.259   2.897   0.145
60344SOL    HW282930   5.352   2.943   0.035
60345SOL     OW82931   5.570   1.786  12.365
60345SOL    HW182932   5.595   1.778  12.457
60345SOL    HW282933   5.487   1.835  12.367
60346SOL     OW82934   2.319  10.410  12.378
60346SOL    HW182935   2.375  10.454  12.441
60346SOL    HW282936   2.231  10.415  12.416
60347SOL     OW82937  11.838   2.697   6.545
60347SOL    HW182938  11.772   2.722   6.480
60347SOL    HW282939  11.915   2.673   6.494
60348SOL     OW82940   4.974   3.506  11.676
60348SOL    HW182941   4.980   3.413  11.653
60348SOL    HW282942   4.925   3.509  11.757
60349SOL     OW82943   9.288   9.498   5.583
60349SOL    HW182944   9.286   9.582   5.629
60349SOL    HW282945   9.285   9.521   5.490
60350SOL     OW82946   2.511   6.318  11.041
60350SOL    HW182947   2.572   6.290  10.972
60350SOL    HW282948   2.424   6.302  11.003
60351SOL     OW82949   7.677  13.636   7.890
60351SOL    HW182950   7.738  13.600   7.954
60351SOL    HW282951   7.723  13.627   7.806
60352SOL     OW82952  12.951   2.313   2.206
60352SOL    HW182953  12.860   2.286   2.199
60352SOL    HW282954  12.948   2.408   2.211
60353SOL     OW82955   4.248  10.945   5.817
60353SOL    HW182956   4.294  10.989   5.888
60353SOL    HW282957   4.232  10.857   5.850
60354SOL     OW82958  10.390   0.196  12.344
60354SOL    HW182959  10.466   0.147  12.373
60354SOL    HW282960  10.423   0.252  12.274
60355SOL     OW82961   7.686  14.603  10.247
60355SOL    HW182962   7.694  14.543  10.322
60355SOL    HW282963   7.765  14.658  10.252
60356SOL     OW82964   3.483  12.907   1.323
60356SOL    HW182965   3.411  12.844   1.316
60356SOL    HW282966   3.511  12.921   1.233
60357SOL     OW82967   7.158   2.710   3.768
60357SOL    HW182968   7.093   2.776   3.744
60357SOL    HW282969   7.143   2.639   3.706
60358SOL     OW82970   9.938   9.270   9.990
60358SOL    HW182971   9.851   9.268  10.029
60358SOL    HW282972   9.990   9.321  10.051
60359SOL     OW82973   7.155   3.176  14.355
60359SOL    HW182974   7.088   3.108  14.358
60359SOL    HW282975   7.233   3.134  14.392
60360SOL     OW82976   6.966   8.719   3.034
60360SOL    HW182977   6.970   8.793   3.095
60360SOL    HW282978   6.880   8.680   3.051
60361SOL     OW82979  12.490  12.337   9.956
60361SOL    HW182980  12.409  12.338  10.007
60361SOL    HW282981  12.499  12.426   9.922
60362SOL     OW82982   6.992   1.832  10.282
60362SOL    HW182983   6.953   1.777  10.349
60362SOL    HW282984   7.085   1.811  10.284
60363SOL     OW82985  12.185  10.257  14.839
60363SOL    HW182986  12.235  10.236   0.048
60363SOL    HW282987  12.100  10.287   0.002
60364SOL     OW82988  10.236   1.653  14.313
60364SOL    HW182989  10.246   1.746  14.292
60364SOL    HW282990  10.160   1.650  14.371
60365SOL     OW82991   5.049   0.986   5.151
60365SOL    HW182992   4.955   0.968   5.161
60365SOL    HW282993   5.089   0.900   5.141
60366SOL     OW82994  10.202  13.762   1.912
60366SOL    HW182995  10.249  13.682   1.933
60366SOL    HW282996  10.111  13.743   1.934
60367SOL     OW82997  10.273   7.778   3.675
60367SOL    HW182998  10.272   7.777   3.770
60367SOL    HW282999  10.216   7.706   3.649
60368SOL     OW83000  12.537   6.055   5.732
60368SOL    HW183001  12.618   6.009   5.707
60368SOL    HW283002  12.560   6.099   5.814
60369SOL     OW83003   5.845   7.573   1.263
60369SOL    HW183004   5.860   7.571   1.169
60369SOL    HW283005   5.928   7.544   1.301
60370SOL     OW83006   6.899   8.802   7.530
60370SOL    HW183007   6.988   8.783   7.559
60370SOL    HW283008   6.884   8.893   7.558
60371SOL     OW83009   4.961  10.710   2.968
60371SOL    HW183010   5.055  10.724   2.956
60371SOL    HW283011   4.925  10.709   2.879
60372SOL     OW83012   8.989   4.089   7.735
60372SOL    HW183013   8.925   4.120   7.799
60372SOL    HW283014   8.950   4.009   7.699
60373SOL     OW83015   0.799   6.365   0.397
60373SOL    HW183016   0.832   6.441   0.447
60373SOL    HW283017   0.852   6.364   0.318
60374SOL     OW83018  11.228  10.641  14.300
60374SOL    HW183019  11.208  10.607  14.213
60374SOL    HW283020  11.162  10.601  14.357
60375SOL     OW83021   5.769   6.151   4.221
60375SOL    HW183022   5.755   6.095   4.296
60375SOL    HW283023   5.839   6.109   4.171
60376SOL     OW83024   7.087  14.044   5.006
60376SOL    HW183025   7.082  14.086   5.092
60376SOL    HW283026   7.034  14.100   4.950
60377SOL     OW83027   2.712   4.856  12.019
60377SOL    HW183028   2.644   4.873  12.085
60377SOL    HW283029   2.681   4.902  11.941
60378SOL     OW83030   9.297   9.988   3.435
60378SOL    HW183031   9.386  10.017   3.414
60378SOL    HW283032   9.241  10.060   3.404
60379SOL     OW83033  10.486   7.498   6.339
60379SOL    HW183034  10.463   7.590   6.355
60379SOL    HW283035  10.401   7.454   6.329
60380SOL     OW83036  10.701  10.112   6.460
60380SOL    HW183037  10.648  10.087   6.385
60380SOL    HW283038  10.662  10.193   6.492
60381SOL     OW83039  14.673   0.100  14.201
60381SOL    HW183040  14.675   0.073  14.293
60381SOL    HW283041  14.640   0.190  14.204
60382SOL     OW83042   2.007   6.455   0.170
60382SOL    HW183043   1.975   6.503   0.094
60382SOL    HW283044   1.966   6.369   0.164
60383SOL     OW83045   9.161   3.131   3.292
60383SOL    HW183046   9.162   3.046   3.335
60383SOL    HW283047   9.130   3.192   3.360
60384SOL     OW83048  10.951   3.581  14.131
60384SOL    HW183049  11.002   3.620  14.060
60384SOL    HW283050  10.861   3.606  14.113
60385SOL     OW83051   8.811   2.470  11.600
60385SOL    HW183052   8.761   2.531  11.655
60385SOL    HW283053   8.889   2.518  11.575
60386SOL     OW83054   0.565  13.516   2.929
60386SOL    HW183055   0.494  13.574   2.953
60386SOL    HW283056   0.574  13.524   2.834
60387SOL     OW83057  11.735   7.771   3.194
60387SOL    HW183058  11.645   7.801   3.207
60387SOL    HW283059  11.785   7.851   3.175
60388SOL     OW83060   0.188  14.578  11.283
60388SOL    HW183061   0.205  14.610  11.371
60388SOL    HW283062   0.097  14.602  11.265
60389SOL     OW83063   2.145   9.355   5.914
60389SOL    HW183064   2.206   9.394   5.976
60389SOL    HW283065   2.065   9.406   5.923
60390SOL     OW83066  11.214   9.625  13.485
60390SOL    HW183067  11.219   9.631  13.390
60390SOL    HW283068  11.148   9.557  13.502
60391SOL     OW83069  11.216   5.120   8.177
60391SOL    HW183070  11.148   5.069   8.133
60391SOL    HW283071  11.169   5.188   8.225
60392SOL     OW83072  10.198  14.495  13.334
60392SOL    HW183073  10.103  14.487  13.346
60392SOL    HW283074  10.236  14.435  13.397
60393SOL     OW83075   5.603   4.925   4.040
60393SOL    HW183076   5.641   4.928   3.952
60393SOL    HW283077   5.584   4.832   4.054
60394SOL     OW83078   3.275  13.198   1.369
60394SOL    HW183079   3.314  13.178   1.454
60394SOL    HW283080   3.231  13.117   1.343
60395SOL     OW83081   9.361   2.039   6.414
60395SOL    HW183082   9.325   2.088   6.488
60395SOL    HW283083   9.438   2.089   6.388
60396SOL     OW83084  10.660  14.097   1.386
60396SOL    HW183085  10.631  14.025   1.443
60396SOL    HW283086  10.754  14.081   1.374
60397SOL     OW83087   8.313  13.748   9.944
60397SOL    HW183088   8.388  13.805   9.927
60397SOL    HW283089   8.240  13.790   9.900
60398SOL     OW83090  12.092   6.891   8.897
60398SOL    HW183091  12.109   6.981   8.872
60398SOL    HW283092  12.030   6.859   8.831
60399SOL     OW83093  11.876  10.292   2.679
60399SOL    HW183094  11.806  10.336   2.727
60399SOL    HW283095  11.891  10.346   2.602
60400SOL     OW83096   2.607   5.559   7.711
60400SOL    HW183097   2.585   5.624   7.643
60400SOL    HW283098   2.528   5.506   7.720
60401SOL     OW83099   9.641   5.412   7.810
60401SOL    HW183100   9.555   5.380   7.783
60401SOL    HW283101   9.622   5.471   7.883
60402SOL     OW83102   1.540  13.612  10.295
60402SOL    HW183103   1.558  13.650  10.382
60402SOL    HW283104   1.479  13.541  10.312
60403SOL     OW83105   5.574   9.933   6.710
60403SOL    HW183106   5.590   9.904   6.800
60403SOL    HW283107   5.517   9.866   6.673
60404SOL     OW83108   2.917   9.012   9.465
60404SOL    HW183109   2.849   9.079   9.476
60404SOL    HW283110   2.975   9.025   9.539
60405SOL     OW83111  13.044  10.535   6.553
60405SOL    HW183112  13.113  10.582   6.600
60405SOL    HW283113  13.044  10.447   6.591
60406SOL     OW83114   2.484   6.697  13.380
60406SOL    HW183115   2.443   6.745  13.453
60406SOL    HW283116   2.515   6.616  13.420
60407SOL     OW83117   7.002  13.608   2.769
60407SOL    HW183118   7.043  13.629   2.853
60407SOL    HW283119   6.915  13.576   2.793
60408SOL     OW83120  12.307  10.930  14.265
60408SOL    HW183121  12.290  10.990  14.337
60408SOL    HW283122  12.220  10.909  14.229
60409SOL     OW83123   4.878   3.731   5.066
60409SOL    HW183124   4.916   3.771   4.987
60409SOL    HW283125   4.812   3.793   5.095
60410SOL     OW83126   2.516   8.674   0.515
60410SOL    HW183127   2.485   8.702   0.429
60410SOL    HW283128   2.605   8.642   0.500
60411SOL     OW83129   1.815  11.580   4.783
60411SOL    HW183130   1.877  11.613   4.718
60411SOL    HW283131   1.867  11.572   4.863
60412SOL     OW83132   8.337   4.149   3.834
60412SOL    HW183133   8.365   4.184   3.919
60412SOL    HW283134   8.300   4.224   3.788
60413SOL     OW83135   5.324   1.197  12.760
60413SOL    HW183136   5.312   1.289  12.784
60413SOL    HW283137   5.254   1.151  12.807
60414SOL     OW83138   3.379   1.918   5.430
60414SOL    HW183139   3.342   1.896   5.344
60414SOL    HW283140   3.392   1.834   5.473
60415SOL     OW83141  10.244   8.055   8.549
60415SOL    HW183142  10.151   8.066   8.526
60415SOL    HW283143  10.247   7.973   8.598
60416SOL     OW83144  13.187  11.024   3.337
60416SOL    HW183145  13.232  10.991   3.259
60416SOL    HW283146  13.143  11.103   3.307
60417SOL     OW83147   2.832  11.742   1.102
60417SOL    HW183148   2.759  11.724   1.162
60417SOL    HW283149   2.902  11.683   1.131
60418SOL     OW83150   7.474   2.634   5.482
60418SOL    HW183151   7.455   2.642   5.388
60418SOL    HW283152   7.490   2.723   5.511
60419SOL     OW83153  13.126  11.547   3.315
60419SOL    HW183154  13.065  11.600   3.264
60419SOL    HW283155  13.099  11.558   3.406
60420SOL     OW83156   0.921   4.658   5.732
60420SOL    HW183157   0.976   4.598   5.784
60420SOL    HW283158   0.943   4.745   5.765
60421SOL     OW83159  10.801   0.266   7.851
60421SOL    HW183160  10.858   0.333   7.813
60421SOL    HW283161  10.830   0.259   7.942
60422SOL     OW83162   7.193   6.167   1.407
60422SOL    HW183163   7.224   6.255   1.386
60422SOL    HW283164   7.158   6.134   1.325
60423SOL     OW83165  14.859   6.062   4.020
60423SOL    HW183166   0.003   6.121   3.946
60423SOL    HW283167   0.076   6.053   4.060
60424SOL     OW83168   7.805  13.167   3.686
60424SOL    HW183169   7.887  13.117   3.694
60424SOL    HW283170   7.755  13.119   3.620
60425SOL     OW83171   6.185  13.763   5.025
60425SOL    HW183172   6.129  13.691   4.996
60425SOL    HW283173   6.264  13.720   5.059
60426SOL     OW83174  12.533  14.050   6.088
60426SOL    HW183175  12.504  14.109   6.158
60426SOL    HW283176  12.607  14.095   6.048
60427SOL     OW83177  12.050   3.762  14.334
60427SOL    HW183178  12.114   3.690  14.335
60427SOL    HW283179  12.055   3.797  14.245
60428SOL     OW83180   7.216  11.802   8.776
60428SOL    HW183181   7.184  11.794   8.866
60428SOL    HW283182   7.178  11.884   8.744
60429SOL     OW83183   7.595   9.146  12.626
60429SOL    HW183184   7.597   9.167  12.719
60429SOL    HW283185   7.660   9.077  12.616
60430SOL     OW83186   6.119   7.552   5.352
60430SOL    HW183187   6.038   7.603   5.349
60430SOL    HW283188   6.110   7.488   5.282
60431SOL     OW83189   9.906  10.034   8.877
60431SOL    HW183190   9.870   9.961   8.927
60431SOL    HW283191   9.876  10.019   8.787
60432SOL     OW83192   8.018   7.642   1.825
60432SOL    HW183193   8.109   7.651   1.854
60432SOL    HW283194   7.972   7.713   1.870
60433SOL     OW83195  14.128  13.257   2.931
60433SOL    HW183196  14.116  13.219   3.018
60433SOL    HW283197  14.105  13.186   2.871
60434SOL     OW83198   6.317   9.469  10.551
60434SOL    HW183199   6.265   9.491  10.628
60434SOL    HW283200   6.253   9.462  10.480
60435SOL     OW83201   9.768   4.538  11.155
60435SOL    HW183202   9.754   4.547  11.061
60435SOL    HW283203   9.709   4.602  11.194
60436SOL     OW83204  10.196   9.642  12.076
60436SOL    HW183205  10.239   9.558  12.092
60436SOL    HW283206  10.132   9.625  12.008
60437SOL     OW83207  14.842  12.443  14.118
60437SOL    HW183208   0.001  12.521  14.165
60437SOL    HW283209  14.775  12.475  14.058
60438SOL     OW83210   9.272   5.543   6.247
60438SOL    HW183211   9.277   5.491   6.327
60438SOL    HW283212   9.361   5.542   6.212
60439SOL     OW83213   4.996   3.675   6.765
60439SOL    HW183214   5.022   3.753   6.715
60439SOL    HW283215   4.927   3.706   6.823
60440SOL     OW83216  14.819   7.238   0.068
60440SOL    HW183217  14.859   7.161   0.027
60440SOL    HW283218   0.010   7.262   0.138
60441SOL     OW83219  12.929   1.316  11.812
60441SOL    HW183220  12.843   1.274  11.799
60441SOL    HW283221  12.961   1.277  11.894
60442SOL     OW83222   3.874   3.505   5.180
60442SOL    HW183223   3.935   3.535   5.247
60442SOL    HW283224   3.816   3.444   5.226
60443SOL     OW83225  11.681   3.844   4.572
60443SOL    HW183226  11.670   3.750   4.558
60443SOL    HW283227  11.643   3.884   4.494
60444SOL     OW83228   5.131   1.167  12.098
60444SOL    HW183229   5.142   1.260  12.076
60444SOL    HW283230   5.042   1.146  12.070
60445SOL     OW83231   6.287  13.243   5.259
60445SOL    HW183232   6.316  13.237   5.350
60445SOL    HW283233   6.204  13.197   5.257
60446SOL     OW83234   8.863   8.359   5.710
60446SOL    HW183235   8.911   8.278   5.695
60446SOL    HW283236   8.929   8.428   5.708
60447SOL     OW83237  10.786   5.470   8.187
60447SOL    HW183238  10.873   5.436   8.167
60447SOL    HW283239  10.798   5.564   8.196
60448SOL     OW83240   3.585   5.464   0.269
60448SOL    HW183241   3.595   5.431   0.180
60448SOL    HW283242   3.653   5.420   0.320
60449SOL     OW83243   0.542   2.553  10.801
60449SOL    HW183244   0.527   2.459  10.790
60449SOL    HW283245   0.455   2.593  10.792
60450SOL     OW83246  11.394  14.305  10.177
60450SOL    HW183247  11.430  14.217  10.178
60450SOL    HW283248  11.395  14.331  10.085
60451SOL     OW83249   7.979   0.451   2.719
60451SOL    HW183250   7.891   0.470   2.750
60451SOL    HW283251   7.994   0.514   2.648
60452SOL     OW83252  11.622   5.452   0.422
60452SOL    HW183253  11.610   5.489   0.510
60452SOL    HW283254  11.635   5.529   0.366
60453SOL     OW83255   6.104   1.759   0.853
60453SOL    HW183256   6.059   1.810   0.786
60453SOL    HW283257   6.196   1.760   0.826
60454SOL     OW83258  13.124  13.888  13.061
60454SOL    HW183259  13.048  13.937  13.029
60454SOL    HW283260  13.135  13.818  12.997
60455SOL     OW83261  10.007   3.421  10.385
60455SOL    HW183262   9.930   3.382  10.426
60455SOL    HW283263   9.975   3.503  10.347
60456SOL     OW83264   9.139   3.724  13.504
60456SOL    HW183265   9.187   3.654  13.461
60456SOL    HW283266   9.193   3.802  13.492
60457SOL     OW83267   6.193   7.754   2.265
60457SOL    HW183268   6.233   7.667   2.267
60457SOL    HW283269   6.105   7.740   2.300
60458SOL     OW83270  13.680   4.900   2.427
60458SOL    HW183271  13.602   4.868   2.381
60458SOL    HW283272  13.646   4.935   2.509
60459SOL     OW83273  13.553   1.172   3.715
60459SOL    HW183274  13.590   1.087   3.689
60459SOL    HW283275  13.571   1.229   3.640
60460SOL     OW83276  14.793   3.408   4.955
60460SOL    HW183277  14.760   3.368   5.035
60460SOL    HW283278  14.864   3.351   4.927
60461SOL     OW83279  13.669   6.383   4.167
60461SOL    HW183280  13.663   6.456   4.229
60461SOL    HW283281  13.756   6.392   4.128
60462SOL     OW83282   3.316   2.241   7.173
60462SOL    HW183283   3.365   2.319   7.149
60462SOL    HW283284   3.266   2.266   7.251
60463SOL     OW83285  13.936  10.181   8.750
60463SOL    HW183286  13.961  10.244   8.682
60463SOL    HW283287  13.890  10.112   8.704
60464SOL     OW83288   8.803   7.782   4.094
60464SOL    HW183289   8.841   7.770   4.008
60464SOL    HW283290   8.842   7.862   4.127
60465SOL     OW83291  13.034   0.607  12.607
60465SOL    HW183292  13.035   0.599  12.703
60465SOL    HW283293  13.125   0.621  12.583
60466SOL     OW83294   8.847  10.053   1.328
60466SOL    HW183295   8.824   9.975   1.379
60466SOL    HW283296   8.932  10.079   1.362
60467SOL     OW83297   2.128  13.998  10.582
60467SOL    HW183298   2.097  13.952  10.660
60467SOL    HW283299   2.219  14.021  10.602
60468SOL     OW83300  12.392   7.309   4.739
60468SOL    HW183301  12.404   7.324   4.832
60468SOL    HW283302  12.403   7.215   4.727
60469SOL     OW83303  12.784   2.696  12.855
60469SOL    HW183304  12.829   2.634  12.912
60469SOL    HW283305  12.823   2.681  12.769
60470SOL     OW83306   8.496   4.433   4.535
60470SOL    HW183307   8.545   4.512   4.556
60470SOL    HW283308   8.562   4.363   4.534
60471SOL     OW83309   8.411   6.194   8.856
60471SOL    HW183310   8.356   6.272   8.859
60471SOL    HW283311   8.383   6.141   8.930
60472SOL     OW83312   2.692  12.011   9.922
60472SOL    HW183313   2.763  11.983   9.979
60472SOL    HW283314   2.665  12.095   9.958
60473SOL     OW83315   6.506   6.757   2.839
60473SOL    HW183316   6.601   6.744   2.839
60473SOL    HW283317   6.484   6.771   2.931
60474SOL     OW83318   3.454   0.239   4.152
60474SOL    HW183319   3.513   0.194   4.212
60474SOL    HW283320   3.389   0.173   4.128
60475SOL     OW83321   4.948   8.870   2.221
60475SOL    HW183322   4.963   8.784   2.180
60475SOL    HW283323   4.863   8.862   2.263
60476SOL     OW83324   5.438   0.280   6.983
60476SOL    HW183325   5.481   0.256   7.066
60476SOL    HW283326   5.432   0.375   6.986
60477SOL     OW83327   1.019  13.987   1.175
60477SOL    HW183328   1.091  13.970   1.114
60477SOL    HW283329   1.055  13.966   1.261
60478SOL     OW83330   0.602   0.179  10.240
60478SOL    HW183331   0.599   0.272  10.215
60478SOL    HW283332   0.676   0.144  10.190
60479SOL     OW83333  14.123   9.459  14.612
60479SOL    HW183334  14.078   9.530  14.657
60479SOL    HW283335  14.216   9.476  14.628
60480SOL     OW83336  13.269  12.567   7.231
60480SOL    HW183337  13.300  12.496   7.286
60480SOL    HW283338  13.264  12.643   7.290
60481SOL     OW83339   7.127  14.321  10.161
60481SOL    HW183340   7.127  14.403  10.209
60481SOL    HW283341   7.066  14.265  10.209
60482SOL     OW83342   1.936   4.311  13.393
60482SOL    HW183343   1.924   4.334  13.486
60482SOL    HW283344   1.978   4.225  13.395
60483SOL     OW83345  12.061  14.536   8.077
60483SOL    HW183346  12.006  14.459   8.089
60483SOL    HW283347  12.001  14.610   8.087
60484SOL     OW83348  12.058   8.905   2.878
60484SOL    HW183349  11.991   8.884   2.812
60484SOL    HW283350  12.116   8.967   2.834
60485SOL     OW83351  14.851  10.810   9.252
60485SOL    HW183352   0.045  10.843   9.189
60485SOL    HW283353   0.025  10.734   9.292
60486SOL     OW83354   9.649   5.858   9.977
60486SOL    HW183355   9.671   5.944   9.941
60486SOL    HW283356   9.711   5.846  10.049
60487SOL     OW83357  14.331   0.134  12.063
60487SOL    HW183358  14.344   0.085  12.144
60487SOL    HW283359  14.278   0.209  12.088
60488SOL     OW83360   0.809   0.389  14.620
60488SOL    HW183361   0.739   0.324  14.619
60488SOL    HW283362   0.864   0.364  14.694
60489SOL     OW83363  12.225   5.186  11.376
60489SOL    HW183364  12.319   5.170  11.380
60489SOL    HW283365  12.195   5.180  11.467
60490SOL     OW83366  14.042  11.125   6.764
60490SOL    HW183367  14.036  11.174   6.682
60490SOL    HW283368  14.009  11.185   6.830
60491SOL     OW83369   8.142   0.381  13.338
60491SOL    HW183370   8.204   0.395  13.409
60491SOL    HW283371   8.068   0.438  13.358
60492SOL     OW83372  14.600   4.082   9.498
60492SOL    HW183373  14.528   4.144   9.505
60492SOL    HW283374  14.649   4.092   9.579
60493SOL     OW83375   5.312   4.808   3.204
60493SOL    HW183376   5.365   4.728   3.205
60493SOL    HW283377   5.234   4.786   3.255
60494SOL     OW83378   0.832   4.786   1.255
60494SOL    HW183379   0.829   4.754   1.345
60494SOL    HW283380   0.790   4.717   1.204
60495SOL     OW83381   3.748  13.527   7.272
60495SOL    HW183382   3.729  13.618   7.249
60495SOL    HW283383   3.833  13.531   7.317
60496SOL     OW83384  11.578  12.900  11.897
60496SOL    HW183385  11.600  12.865  11.811
60496SOL    HW283386  11.645  12.966  11.914
60497SOL     OW83387   4.534  12.890   1.553
60497SOL    HW183388   4.629  12.900   1.546
60497SOL    HW283389   4.516  12.893   1.647
60498SOL     OW83390  11.551   8.222   5.203
60498SOL    HW183391  11.644   8.245   5.210
60498SOL    HW283392  11.520   8.220   5.293
60499SOL     OW83393  11.792   3.592  10.260
60499SOL    HW183394  11.729   3.662  10.242
60499SOL    HW283395  11.864   3.608  10.200
60500SOL     OW83396   9.262   5.897   5.783
60500SOL    HW183397   9.310   5.936   5.855
60500SOL    HW283398   9.189   5.850   5.824
60501SOL     OW83399   8.941   4.364   3.728
60501SOL    HW183400   8.949   4.270   3.742
60501SOL    HW283401   8.898   4.372   3.643
60502SOL     OW83402   8.457   6.486   1.308
60502SOL    HW183403   8.477   6.495   1.401
60502SOL    HW283404   8.413   6.568   1.285
60503SOL     OW83405  10.804  11.512  11.917
60503SOL    HW183406  10.749  11.443  11.953
60503SOL    HW283407  10.749  11.555  11.851
60504SOL     OW83408  13.041   5.171   9.714
60504SOL    HW183409  13.127   5.143   9.684
60504SOL    HW283410  13.059   5.232   9.786
60505SOL     OW83411  11.821   9.759   8.122
60505SOL    HW183412  11.813   9.701   8.197
60505SOL    HW283413  11.770   9.716   8.053
60506SOL     OW83414   9.927  10.892   2.286
60506SOL    HW183415   9.928  10.912   2.192
60506SOL    HW283416   9.983  10.959   2.325
60507SOL     OW83417  10.088   6.725   3.756
60507SOL    HW183418  10.015   6.776   3.722
60507SOL    HW283419  10.126   6.684   3.678
60508SOL     OW83420  13.945  11.514   7.912
60508SOL    HW183421  13.986  11.568   7.979
60508SOL    HW283422  13.921  11.575   7.843
60509SOL     OW83423  14.406   2.803   9.636
60509SOL    HW183424  14.382   2.710   9.637
60509SOL    HW283425  14.419   2.824   9.543
60510SOL     OW83426   6.376   5.307  10.881
60510SOL    HW183427   6.387   5.263  10.965
60510SOL    HW283428   6.324   5.246  10.829
60511SOL     OW83429  14.821  10.919  11.716
60511SOL    HW183430   0.014  10.991  11.717
60511SOL    HW283431  14.747  10.953  11.665
60512SOL     OW83432  13.357  14.384   2.558
60512SOL    HW183433  13.367  14.439   2.637
60512SOL    HW283434  13.409  14.306   2.577
60513SOL     OW83435   1.095  10.418  13.746
60513SOL    HW183436   1.018  10.435  13.693
60513SOL    HW283437   1.075  10.335  13.791
60514SOL     OW83438   3.216   3.592  11.759
60514SOL    HW183439   3.136   3.635  11.726
60514SOL    HW283440   3.207   3.501  11.733
60515SOL     OW83441   3.780  14.540   2.100
60515SOL    HW183442   3.856  14.531   2.158
60515SOL    HW283443   3.769  14.635   2.090
60516SOL     OW83444  13.212   7.639   2.007
60516SOL    HW183445  13.132   7.665   1.961
60516SOL    HW283446  13.203   7.545   2.021
60517SOL     OW83447   6.588  10.678  11.250
60517SOL    HW183448   6.657  10.719  11.197
60517SOL    HW283449   6.561  10.602  11.198
60518SOL     OW83450   2.102   4.843   2.842
60518SOL    HW183451   2.101   4.804   2.754
60518SOL    HW283452   2.183   4.893   2.845
60519SOL     OW83453   4.106  11.844  13.065
60519SOL    HW183454   4.091  11.762  13.018
60519SOL    HW283455   4.042  11.844  13.136
60520SOL     OW83456  11.259  11.012   4.959
60520SOL    HW183457  11.315  11.027   5.035
60520SOL    HW283458  11.193  10.950   4.989
60521SOL     OW83459   7.278   7.030  10.307
60521SOL    HW183460   7.229   7.058  10.229
60521SOL    HW283461   7.348   7.094  10.316
60522SOL     OW83462  11.214  12.116   4.193
60522SOL    HW183463  11.273  12.062   4.141
60522SOL    HW283464  11.240  12.206   4.173
60523SOL     OW83465   2.317   4.170   3.341
60523SOL    HW183466   2.238   4.199   3.296
60523SOL    HW283467   2.337   4.240   3.402
60524SOL     OW83468   0.801   7.449  14.211
60524SOL    HW183469   0.798   7.453  14.307
60524SOL    HW283470   0.730   7.507  14.183
60525SOL     OW83471   5.149  11.294  13.755
60525SOL    HW183472   5.190  11.332  13.832
60525SOL    HW283473   5.125  11.369  13.700
60526SOL     OW83474   1.835   4.889   2.766
60526SOL    HW183475   1.772   4.817   2.753
60526SOL    HW283476   1.911   4.846   2.806
60527SOL     OW83477  12.330   3.959   0.636
60527SOL    HW183478  12.400   3.931   0.577
60527SOL    HW283479  12.262   3.893   0.626
60528SOL     OW83480   2.178  14.445   8.959
60528SOL    HW183481   2.172  14.505   8.885
60528SOL    HW283482   2.269  14.452   8.988
60529SOL     OW83483   8.997   4.082   9.529
60529SOL    HW183484   9.046   4.026   9.468
60529SOL    HW283485   9.036   4.169   9.518
60530SOL     OW83486   1.320  13.572  13.427
60530SOL    HW183487   1.297  13.663  13.407
60530SOL    HW283488   1.385  13.579  13.497
60531SOL     OW83489  12.079  10.526  10.834
60531SOL    HW183490  12.091  10.565  10.921
60531SOL    HW283491  12.167  10.499  10.808
60532SOL     OW83492  14.231   5.945   3.272
60532SOL    HW183493  14.219   5.900   3.188
60532SOL    HW283494  14.179   6.026   3.263
60533SOL     OW83495  12.638   8.889   2.026
60533SOL    HW183496  12.596   8.813   2.067
60533SOL    HW283497  12.573   8.958   2.032
60534SOL     OW83498   6.481   3.328   1.465
60534SOL    HW183499   6.410   3.273   1.498
60534SOL    HW283500   6.471   3.411   1.513
60535SOL     OW83501   4.869  10.134  11.389
60535SOL    HW183502   4.956  10.166  11.366
60535SOL    HW283503   4.879  10.101  11.478
60536SOL     OW83504   6.611   9.501  11.205
60536SOL    HW183505   6.669   9.448  11.260
60536SOL    HW283506   6.531   9.511  11.257
60537SOL     OW83507   8.984   5.939   7.690
60537SOL    HW183508   9.027   5.858   7.663
60537SOL    HW283509   9.056   5.995   7.719
60538SOL     OW83510   2.657   7.287   8.485
60538SOL    HW183511   2.726   7.349   8.511
60538SOL    HW283512   2.699   7.201   8.492
60539SOL     OW83513   3.455   3.331   6.996
60539SOL    HW183514   3.465   3.419   6.960
60539SOL    HW283515   3.452   3.344   7.091
60540SOL     OW83516   0.855   5.369  10.673
60540SOL    HW183517   0.880   5.299  10.612
60540SOL    HW283518   0.781   5.411  10.631
60541SOL     OW83519   1.373  11.115   6.776
60541SOL    HW183520   1.299  11.121   6.837
60541SOL    HW283521   1.383  11.022   6.759
60542SOL     OW83522   6.701   3.892  13.778
60542SOL    HW183523   6.738   3.886  13.690
60542SOL    HW283524   6.638   3.819  13.782
60543SOL     OW83525   9.710   0.788   1.298
60543SOL    HW183526   9.686   0.696   1.305
60543SOL    HW283527   9.790   0.789   1.245
60544SOL     OW83528   1.973  13.422  13.970
60544SOL    HW183529   1.976  13.353  14.037
60544SOL    HW283530   2.049  13.404  13.914
60545SOL     OW83531   8.282   4.389   8.863
60545SOL    HW183532   8.299   4.379   8.769
60545SOL    HW283533   8.187   4.386   8.870
60546SOL     OW83534  14.263   2.075   5.372
60546SOL    HW183535  14.258   2.164   5.407
60546SOL    HW283536  14.306   2.085   5.287
60547SOL     OW83537   7.612  12.713  11.757
60547SOL    HW183538   7.617  12.805  11.782
60547SOL    HW283539   7.667  12.706  11.680
60548SOL     OW83540   6.304  12.692   5.222
60548SOL    HW183541   6.270  12.768   5.175
60548SOL    HW283542   6.375  12.659   5.167
60549SOL     OW83543   7.275   4.549  14.859
60549SOL    HW183544   7.335   4.522   0.059
60549SOL    HW283545   7.189   4.525   0.021
60550SOL     OW83546  13.254  10.058   4.685
60550SOL    HW183547  13.197   9.988   4.653
60550SOL    HW283548  13.226  10.135   4.635
60551SOL     OW83549   5.660   1.635   2.945
60551SOL    HW183550   5.721   1.659   2.875
60551SOL    HW283551   5.714   1.629   3.023
60552SOL     OW83552   7.868   2.211   4.255
60552SOL    HW183553   7.787   2.242   4.215
60552SOL    HW283554   7.891   2.278   4.319
60553SOL     OW83555   7.685   3.991   6.201
60553SOL    HW183556   7.769   3.956   6.171
60553SOL    HW283557   7.626   3.916   6.199
60554SOL     OW83558  14.117   2.467  13.750
60554SOL    HW183559  14.043   2.408  13.737
60554SOL    HW283560  14.139   2.497  13.661
60555SOL     OW83561   7.285   7.186   5.422
60555SOL    HW183562   7.252   7.263   5.467
60555SOL    HW283563   7.232   7.180   5.343
60556SOL     OW83564  11.630   6.508  12.545
60556SOL    HW183565  11.579   6.462  12.612
60556SOL    HW283566  11.683   6.440  12.503
60557SOL     OW83567  12.701   8.040   5.718
60557SOL    HW183568  12.693   8.044   5.622
60557SOL    HW283569  12.746   8.121   5.742
60558SOL     OW83570   3.889   7.605   2.015
60558SOL    HW183571   3.914   7.517   1.987
60558SOL    HW283572   3.843   7.592   2.097
60559SOL     OW83573   2.040   3.817  10.844
60559SOL    HW183574   1.951   3.832  10.812
60559SOL    HW283575   2.034   3.833  10.938
60560SOL     OW83576   3.668   2.883   5.268
60560SOL    HW183577   3.704   2.927   5.346
60560SOL    HW283578   3.698   2.793   5.276
60561SOL     OW83579  13.745  10.028  12.274
60561SOL    HW183580  13.729  10.104  12.218
60561SOL    HW283581  13.659   9.987  12.283
60562SOL     OW83582   3.762  10.904   0.491
60562SOL    HW183583   3.853  10.932   0.504
60562SOL    HW283584   3.728  10.962   0.423
60563SOL     OW83585   4.529   9.283   6.320
60563SOL    HW183586   4.615   9.282   6.279
60563SOL    HW283587   4.488   9.201   6.293
60564SOL     OW83588   4.285  12.775   6.452
60564SOL    HW183589   4.277  12.696   6.397
60564SOL    HW283590   4.358  12.756   6.510
60565SOL     OW83591   0.000   1.131   7.293
60565SOL    HW183592  14.834   1.048   7.262
60565SOL    HW283593  14.795   1.177   7.330
60566SOL     OW83594   0.229  12.966   7.948
60566SOL    HW183595   0.240  12.919   7.866
60566SOL    HW283596   0.290  12.924   8.008
60567SOL     OW83597   0.475   2.958   9.318
60567SOL    HW183598   0.472   2.863   9.305
60567SOL    HW283599   0.385   2.988   9.305
60568SOL     OW83600  11.113  10.599  10.511
60568SOL    HW183601  11.057  10.606  10.434
60568SOL    HW283602  11.165  10.521  10.496
60569SOL     OW83603   1.389  10.660   9.690
60569SOL    HW183604   1.460  10.703   9.738
60569SOL    HW283605   1.428  10.637   9.605
60570SOL     OW83606  13.236   2.793   8.046
60570SOL    HW183607  13.192   2.710   8.062
60570SOL    HW283608  13.165   2.856   8.037
60571SOL     OW83609  10.473  11.816   5.126
60571SOL    HW183610  10.415  11.891   5.132
60571SOL    HW283611  10.446  11.771   5.045
60572SOL     OW83612   3.050   2.168   2.014
60572SOL    HW183613   3.126   2.224   1.998
60572SOL    HW283614   2.984   2.198   1.951
60573SOL     OW83615   0.751   0.204  11.311
60573SOL    HW183616   0.834   0.204  11.264
60573SOL    HW283617   0.684   0.201  11.242
60574SOL     OW83618   9.975   8.102  10.481
60574SOL    HW183619   9.916   8.136  10.548
60574SOL    HW283620  10.062   8.130  10.509
60575SOL     OW83621   5.933   4.785   6.601
60575SOL    HW183622   5.978   4.712   6.644
60575SOL    HW283623   5.980   4.863   6.629
60576SOL     OW83624  13.465  10.472   4.957
60576SOL    HW183625  13.390  10.531   4.962
60576SOL    HW283626  13.517  10.505   4.883
60577SOL     OW83627   4.661   6.936   0.206
60577SOL    HW183628   4.602   6.980   0.268
60577SOL    HW283629   4.606   6.868   0.166
60578SOL     OW83630   3.450  13.748  11.247
60578SOL    HW183631   3.532  13.741  11.297
60578SOL    HW283632   3.478  13.762  11.157
60579SOL     OW83633   0.045   0.856  14.178
60579SOL    HW183634   0.091   0.925  14.225
60579SOL    HW283635   0.064   0.872  14.086
60580SOL     OW83636   2.550   6.138   5.916
60580SOL    HW183637   2.604   6.216   5.927
60580SOL    HW283638   2.463   6.166   5.944
60581SOL     OW83639   7.950   4.310   3.896
60581SOL    HW183640   7.887   4.318   3.967
60581SOL    HW283641   7.896   4.301   3.817
60582SOL     OW83642  11.923   3.851   1.020
60582SOL    HW183643  11.887   3.937   0.998
60582SOL    HW283644  12.011   3.870   1.053
60583SOL     OW83645   2.577  11.613   2.313
60583SOL    HW183646   2.594  11.601   2.406
60583SOL    HW283647   2.546  11.703   2.306
60584SOL     OW83648   0.704   8.757   1.234
60584SOL    HW183649   0.642   8.816   1.276
60584SOL    HW283650   0.731   8.803   1.155
60585SOL     OW83651   2.231   8.967   2.225
60585SOL    HW183652   2.222   9.058   2.198
60585SOL    HW283653   2.257   8.921   2.145
60586SOL     OW83654  14.137   6.122   7.820
60586SOL    HW183655  14.130   6.218   7.820
60586SOL    HW283656  14.141   6.099   7.727
60587SOL     OW83657   0.411  13.396   0.571
60587SOL    HW183658   0.318  13.410   0.554
60587SOL    HW283659   0.445  13.482   0.597
60588SOL     OW83660  13.835   1.688   9.669
60588SOL    HW183661  13.911   1.707   9.724
60588SOL    HW283662  13.873   1.655   9.587
60589SOL     OW83663   4.825   8.108   7.929
60589SOL    HW183664   4.901   8.091   7.985
60589SOL    HW283665   4.863   8.138   7.846
60590SOL     OW83666   9.802   6.832   2.188
60590SOL    HW183667   9.759   6.775   2.125
60590SOL    HW283668   9.773   6.799   2.273
60591SOL     OW83669   2.582   6.209  12.364
60591SOL    HW183670   2.675   6.186  12.358
60591SOL    HW283671   2.574   6.289  12.313
60592SOL     OW83672   8.320   5.091   3.764
60592SOL    HW183673   8.378   5.032   3.813
60592SOL    HW283674   8.233   5.074   3.799
60593SOL     OW83675   7.125   1.405   8.112
60593SOL    HW183676   7.217   1.426   8.126
60593SOL    HW283677   7.125   1.341   8.041
60594SOL     OW83678   1.537   6.364   3.718
60594SOL    HW183679   1.504   6.336   3.803
60594SOL    HW283680   1.606   6.302   3.697
60595SOL     OW83681   4.720  13.725   5.707
60595SOL    HW183682   4.651  13.678   5.754
60595SOL    HW283683   4.707  13.817   5.730
60596SOL     OW83684   3.209   8.987  10.468
60596SOL    HW183685   3.203   8.927  10.394
60596SOL    HW283686   3.294   9.030  10.458
60597SOL     OW83687  13.445   6.336   8.322
60597SOL    HW183688  13.432   6.321   8.228
60597SOL    HW283689  13.359   6.365   8.353
60598SOL     OW83690   0.179   2.875   4.592
60598SOL    HW183691   0.263   2.828   4.600
60598SOL    HW283692   0.160   2.905   4.681
60599SOL     OW83693   4.583   8.531   7.474
60599SOL    HW183694   4.571   8.569   7.561
60599SOL    HW283695   4.600   8.606   7.417
60600SOL     OW83696  10.884   4.983   7.132
60600SOL    HW183697  10.976   4.996   7.158
60600SOL    HW283698  10.890   4.949   7.043
60601SOL     OW83699   3.246  13.113  10.397
60601SOL    HW183700   3.203  13.055  10.459
60601SOL    HW283701   3.189  13.189  10.392
60602SOL     OW83702  13.032  12.312  13.260
60602SOL    HW183703  12.993  12.230  13.228
60602SOL    HW283704  13.057  12.360  13.181
60603SOL     OW83705   2.350  14.509   2.391
60603SOL    HW183706   2.443  14.491   2.404
60603SOL    HW283707   2.324  14.451   2.319
60604SOL     OW83708  11.918   7.296  10.786
60604SOL    HW183709  11.836   7.280  10.741
60604SOL    HW283710  11.952   7.209  10.808
60605SOL     OW83711   1.195   6.991   4.575
60605SOL    HW183712   1.278   6.965   4.614
60605SOL    HW283713   1.161   7.059   4.634
60606SOL     OW83714   7.071   2.841   4.402
60606SOL    HW183715   7.050   2.825   4.494
60606SOL    HW283716   6.986   2.839   4.357
60607SOL     OW83717   3.301   6.194   1.516
60607SOL    HW183718   3.391   6.215   1.491
60607SOL    HW283719   3.305   6.182   1.611
60608SOL     OW83720   2.426   1.141   8.393
60608SOL    HW183721   2.496   1.107   8.449
60608SOL    HW283722   2.468   1.209   8.341
60609SOL     OW83723   8.505   4.041   9.107
60609SOL    HW183724   8.432   4.040   9.045
60609SOL    HW283725   8.565   4.106   9.072
60610SOL     OW83726  12.281   2.789   8.114
60610SOL    HW183727  12.276   2.832   8.029
60610SOL    HW283728  12.193   2.799   8.151
60611SOL     OW83729   5.049   4.295   5.298
60611SOL    HW183730   5.114   4.310   5.367
60611SOL    HW283731   5.097   4.245   5.231
60612SOL     OW83732   4.811   2.334  11.083
60612SOL    HW183733   4.824   2.256  11.138
60612SOL    HW283734   4.746   2.386  11.131
60613SOL     OW83735  11.022   5.976  11.988
60613SOL    HW183736  11.008   5.909  11.921
60613SOL    HW283737  10.939   6.023  11.993
60614SOL     OW83738   3.594   9.769  14.638
60614SOL    HW183739   3.506   9.796  14.660
60614SOL    HW283740   3.589   9.673  14.630
60615SOL     OW83741   5.499   2.377   8.961
60615SOL    HW183742   5.493   2.421   8.876
60615SOL    HW283743   5.408   2.359   8.985
60616SOL     OW83744   4.182  14.245   2.543
60616SOL    HW183745   4.252  14.210   2.598
60616SOL    HW283746   4.159  14.172   2.485
60617SOL     OW83747   9.523   5.198   9.239
60617SOL    HW183748   9.616   5.216   9.225
60617SOL    HW283749   9.487   5.282   9.268
60618SOL     OW83750   2.459   1.679  13.270
60618SOL    HW183751   2.398   1.696  13.198
60618SOL    HW283752   2.543   1.713  13.238
60619SOL     OW83753  14.850   2.802   9.497
60619SOL    HW183754   0.057   2.748   9.517
60619SOL    HW283755  14.866   2.884   9.544
60620SOL     OW83756   7.346  13.227   6.407
60620SOL    HW183757   7.417  13.179   6.365
60620SOL    HW283758   7.267  13.178   6.385
60621SOL     OW83759  12.819   4.562   2.183
60621SOL    HW183760  12.884   4.632   2.188
60621SOL    HW283761  12.746   4.593   2.236
60622SOL     OW83762   2.081   3.381  14.679
60622SOL    HW183763   2.162   3.392  14.730
60622SOL    HW283764   2.015   3.429  14.730
60623SOL     OW83765  13.278  13.315   1.675
60623SOL    HW183766  13.256  13.331   1.583
60623SOL    HW283767  13.336  13.239   1.673
60624SOL     OW83768   3.575   1.506   8.212
60624SOL    HW183769   3.507   1.574   8.206
60624SOL    HW283770   3.655   1.555   8.233
60625SOL     OW83771  11.902  12.224   2.518
60625SOL    HW183772  11.884  12.130   2.525
60625SOL    HW283773  11.892  12.257   2.608
60626SOL     OW83774  10.899  12.884   9.998
60626SOL    HW183775  10.843  12.897   9.922
60626SOL    HW283776  10.846  12.834  10.059
60627SOL     OW83777   4.715   0.756   4.037
60627SOL    HW183778   4.677   0.721   3.956
60627SOL    HW283779   4.698   0.850   4.033
60628SOL     OW83780  11.548  13.436  12.815
60628SOL    HW183781  11.624  13.391  12.851
60628SOL    HW283782  11.543  13.519  12.863
60629SOL     OW83783  14.142   0.406   1.072
60629SOL    HW183784  14.220   0.391   1.126
60629SOL    HW283785  14.125   0.322   1.030
60630SOL     OW83786  11.120   2.402   4.056
60630SOL    HW183787  11.216   2.402   4.053
60630SOL    HW283788  11.096   2.495   4.057
60631SOL     OW83789   8.823   2.169  12.197
60631SOL    HW183790   8.752   2.174  12.261
60631SOL    HW283791   8.781   2.135  12.118
60632SOL     OW83792   1.570   5.473   8.537
60632SOL    HW183793   1.654   5.514   8.559
60632SOL    HW283794   1.508   5.511   8.600
60633SOL     OW83795   9.546   4.479   5.378
60633SOL    HW183796   9.516   4.388   5.385
60633SOL    HW283797   9.551   4.495   5.284
60634SOL     OW83798  11.464   2.556   7.652
60634SOL    HW183799  11.550   2.523   7.627
60634SOL    HW283800  11.455   2.531   7.744
60635SOL     OW83801   4.888  10.736   9.645
60635SOL    HW183802   4.841  10.679   9.707
60635SOL    HW283803   4.922  10.807   9.699
60636SOL     OW83804  11.729   0.006  11.600
60636SOL    HW183805  11.814   0.050  11.598
60636SOL    HW283806  11.667   0.076  11.622
60637SOL     OW83807   9.430  13.672   6.734
60637SOL    HW183808   9.525  13.665   6.738
60637SOL    HW283809   9.411  13.756   6.776
60638SOL     OW83810   6.131   9.589   4.114
60638SOL    HW183811   6.196   9.548   4.171
60638SOL    HW283812   6.112   9.524   4.047
60639SOL     OW83813   0.108   2.981  13.223
60639SOL    HW183814   0.168   3.056  13.218
60639SOL    HW283815   0.108   2.957  13.316
60640SOL     OW83816  12.784   0.127   9.904
60640SOL    HW183817  12.749   0.210   9.872
60640SOL    HW283818  12.802   0.142   9.996
60641SOL     OW83819  10.889   7.476   6.595
60641SOL    HW183820  10.825   7.428   6.542
60641SOL    HW283821  10.858   7.567   6.594
60642SOL     OW83822  13.309  13.037   0.298
60642SOL    HW183823  13.375  12.974   0.269
60642SOL    HW283824  13.244  12.985   0.344
60643SOL     OW83825  12.659   8.047   5.444
60643SOL    HW183826  12.568   8.022   5.431
60643SOL    HW283827  12.668   8.129   5.396
60644SOL     OW83828  12.970   3.048  10.539
60644SOL    HW183829  12.902   3.023  10.476
60644SOL    HW283830  12.984   3.141  10.523
60645SOL     OW83831   3.784   7.693   9.305
60645SOL    HW183832   3.805   7.777   9.346
60645SOL    HW283833   3.769   7.715   9.213
60646SOL     OW83834   6.184   4.122   8.357
60646SOL    HW183835   6.099   4.081   8.373
60646SOL    HW283836   6.190   4.127   8.261
60647SOL     OW83837  11.287  11.649   3.375
60647SOL    HW183838  11.246  11.725   3.417
60647SOL    HW283839  11.215  11.591   3.353
60648SOL     OW83840   5.287  10.374   5.422
60648SOL    HW183841   5.235  10.375   5.502
60648SOL    HW283842   5.358  10.436   5.438
60649SOL     OW83843  13.742   2.162   8.009
60649SOL    HW183844  13.737   2.102   7.935
60649SOL    HW283845  13.705   2.244   7.976
60650SOL     OW83846  12.151   6.957   2.711
60650SOL    HW183847  12.178   6.911   2.632
60650SOL    HW283848  12.199   6.912   2.782
60651SOL     OW83849   0.635  14.502   9.321
60651SOL    HW183850   0.668  14.587   9.291
60651SOL    HW283851   0.559  14.485   9.265
60652SOL     OW83852   5.168   9.980  11.989
60652SOL    HW183853   5.128   9.917  11.930
60652SOL    HW283854   5.232   9.929  12.039
60653SOL     OW83855   4.176   2.877   2.182
60653SOL    HW183856   4.087   2.843   2.172
60653SOL    HW283857   4.164   2.972   2.191
60654SOL     OW83858  10.688   6.858   7.248
60654SOL    HW183859  10.769   6.827   7.205
60654SOL    HW283860  10.644   6.909   7.180
60655SOL     OW83861  10.021   4.064   8.312
60655SOL    HW183862   9.976   4.072   8.396
60655SOL    HW283863   9.972   4.123   8.254
60656SOL     OW83864   5.445   6.159   5.836
60656SOL    HW183865   5.392   6.113   5.771
60656SOL    HW283866   5.394   6.154   5.916
60657SOL     OW83867   4.491  11.269   5.624
60657SOL    HW183868   4.424  11.331   5.654
60657SOL    HW283869   4.443  11.189   5.604
60658SOL     OW83870  13.897   3.754   9.925
60658SOL    HW183871  13.848   3.714   9.998
60658SOL    HW283872  13.906   3.846   9.950
60659SOL     OW83873   0.535   3.884   8.359
60659SOL    HW183874   0.482   3.884   8.279
60659SOL    HW283875   0.472   3.895   8.430
60660SOL     OW83876  13.813   7.378   2.781
60660SOL    HW183877  13.735   7.428   2.807
60660SOL    HW283878  13.781   7.291   2.760
60661SOL     OW83879   4.812   9.913   2.879
60661SOL    HW183880   4.860   9.936   2.958
60661SOL    HW283881   4.818   9.817   2.874
60662SOL     OW83882   2.367   5.843   1.654
60662SOL    HW183883   2.305   5.908   1.621
60662SOL    HW283884   2.390   5.874   1.742
60663SOL     OW83885   9.144   9.536   4.534
60663SOL    HW183886   9.073   9.600   4.526
60663SOL    HW283887   9.184   9.533   4.448
60664SOL     OW83888   0.082   9.804   4.463
60664SOL    HW183889   0.033   9.729   4.498
60664SOL    HW283890   0.174   9.782   4.480
60665SOL     OW83891   5.724   9.100   9.940
60665SOL    HW183892   5.768   9.096   9.855
60665SOL    HW283893   5.632   9.111   9.919
60666SOL     OW83894  12.276   5.432   4.282
60666SOL    HW183895  12.363   5.392   4.276
60666SOL    HW283896  12.292   5.525   4.265
60667SOL     OW83897   8.914   7.775  10.256
60667SOL    HW183898   8.919   7.767  10.161
60667SOL    HW283899   8.873   7.693  10.285
60668SOL     OW83900  14.017   6.596   1.108
60668SOL    HW183901  14.042   6.605   1.016
60668SOL    HW283902  13.924   6.573   1.106
60669SOL     OW83903  13.587   6.125   0.485
60669SOL    HW183904  13.508   6.171   0.511
60669SOL    HW283905  13.575   6.036   0.519
60670SOL     OW83906  13.706  10.118  14.119
60670SOL    HW183907  13.674  10.135  14.207
60670SOL    HW283908  13.799  10.100  14.130
60671SOL     OW83909   4.740   3.135   7.003
60671SOL    HW183910   4.751   3.098   7.091
60671SOL    HW283911   4.782   3.071   6.945
60672SOL     OW83912  11.781   0.117  10.227
60672SOL    HW183913  11.791   0.021  10.222
60672SOL    HW283914  11.809   0.139  10.315
60673SOL     OW83915   9.646   7.144  13.556
60673SOL    HW183916   9.659   7.103  13.471
60673SOL    HW283917   9.569   7.100  13.592
60674SOL     OW83918   0.941   8.647   9.103
60674SOL    HW183919   1.010   8.583   9.124
60674SOL    HW283920   0.863   8.613   9.147
60675SOL     OW83921   1.292   2.462   9.469
60675SOL    HW183922   1.334   2.473   9.384
60675SOL    HW283923   1.252   2.375   9.465
60676SOL     OW83924   3.208   5.498   0.721
60676SOL    HW183925   3.228   5.546   0.801
60676SOL    HW283926   3.292   5.463   0.692
60677SOL     OW83927   2.462   3.342  11.367
60677SOL    HW183928   2.512   3.262  11.353
60677SOL    HW283929   2.522   3.400  11.414
60678SOL     OW83930  10.093  12.456  14.008
60678SOL    HW183931  10.019  12.395  14.021
60678SOL    HW283932  10.156  12.407  13.956
60679SOL     OW83933   2.223   4.589   8.727
60679SOL    HW183934   2.314   4.571   8.701
60679SOL    HW283935   2.176   4.599   8.645
60680SOL     OW83936   5.155   4.090  12.849
60680SOL    HW183937   5.227   4.145  12.881
60680SOL    HW283938   5.088   4.097  12.917
60681SOL     OW83939  13.051  12.544   3.053
60681SOL    HW183940  13.022  12.491   3.127
60681SOL    HW283941  12.983  12.533   2.987
60682SOL     OW83942   1.232  14.790  10.154
60682SOL    HW183943   1.189  14.839  10.084
60682SOL    HW283944   1.306  14.846  10.180
60683SOL     OW83945  11.382   8.272   1.962
60683SOL    HW183946  11.383   8.229   2.047
60683SOL    HW283947  11.464   8.245   1.920
60684SOL     OW83948   8.676  10.503   1.398
60684SOL    HW183949   8.657  10.567   1.467
60684SOL    HW283950   8.700  10.423   1.446
60685SOL     OW83951   3.177  14.000  14.719
60685SOL    HW183952   3.193  13.942  14.794
60685SOL    HW283953   3.259  14.048  14.707
60686SOL     OW83954   4.294  13.482   0.104
60686SOL    HW183955   4.388  13.467   0.094
60686SOL    HW283956   4.257  13.395   0.115
60687SOL     OW83957  14.424   8.302  11.550
60687SOL    HW183958  14.454   8.357  11.477
60687SOL    HW283959  14.329   8.301  11.540
60688SOL     OW83960   4.514   3.025  10.011
60688SOL    HW183961   4.603   3.050   9.984
60688SOL    HW283962   4.492   2.952   9.952
60689SOL     OW83963   3.984  14.492   7.153
60689SOL    HW183964   4.055  14.547   7.184
60689SOL    HW283965   3.934  14.470   7.232
60690SOL     OW83966   1.925   9.424   3.800
60690SOL    HW183967   1.980   9.455   3.728
60690SOL    HW283968   1.868   9.358   3.760
60691SOL     OW83969  11.544   6.470  14.310
60691SOL    HW183970  11.518   6.513  14.392
60691SOL    HW283971  11.490   6.391  14.306
60692SOL     OW83972  13.771   2.751  14.171
60692SOL    HW183973  13.715   2.827  14.153
60692SOL    HW283974  13.838   2.756  14.103
60693SOL     OW83975   0.750   1.361   6.197
60693SOL    HW183976   0.782   1.434   6.144
60693SOL    HW283977   0.803   1.286   6.169
60694SOL     OW83978   4.973   4.165  13.046
60694SOL    HW183979   5.027   4.222  13.101
60694SOL    HW283980   4.911   4.225  13.004
60695SOL     OW83981  14.537  12.857   8.550
60695SOL    HW183982  14.567  12.942   8.581
60695SOL    HW283983  14.587  12.793   8.601
60696SOL     OW83984  14.119   6.396   2.084
60696SOL    HW183985  14.209   6.414   2.108
60696SOL    HW283986  14.095   6.318   2.134
60697SOL     OW83987   3.641   2.199  13.564
60697SOL    HW183988   3.698   2.143  13.618
60697SOL    HW283989   3.564   2.214  13.619
60698SOL     OW83990  13.515   1.095  12.706
60698SOL    HW183991  13.496   1.073  12.798
60698SOL    HW283992  13.486   1.186  12.697
60699SOL     OW83993   4.911   7.108   6.063
60699SOL    HW183994   4.894   7.120   6.156
60699SOL    HW283995   5.005   7.120   6.053
60700SOL     OW83996   1.841   6.948   4.058
60700SOL    HW183997   1.753   6.911   4.059
60700SOL    HW283998   1.837   7.024   4.116
60701SOL     OW83999   3.121  10.227   1.102
60701SOL    HW184000   3.049  10.243   1.164
60701SOL    HW284001   3.148  10.137   1.119
60702SOL     OW84002  14.381  14.143   3.913
60702SOL    HW184003  14.372  14.206   3.842
60702SOL    HW284004  14.294  14.104   3.921
60703SOL     OW84005  14.318  13.414   9.097
60703SOL    HW184006  14.340  13.378   9.011
60703SOL    HW284007  14.289  13.504   9.080
60704SOL     OW84008  13.402  12.769   0.963
60704SOL    HW184009  13.455  12.712   0.907
60704SOL    HW284010  13.420  12.857   0.930
60705SOL     OW84011   6.812   6.805   0.416
60705SOL    HW184012   6.900   6.789   0.452
60705SOL    HW284013   6.768   6.720   0.420
60706SOL     OW84014  13.868   5.357   9.963
60706SOL    HW184015  13.957   5.364   9.996
60706SOL    HW284016  13.851   5.263   9.956
60707SOL     OW84017   5.686  10.628   7.034
60707SOL    HW184018   5.772  10.594   7.010
60707SOL    HW284019   5.638  10.632   6.952
60708SOL     OW84020   5.660   4.392  11.583
60708SOL    HW184021   5.698   4.375  11.497
60708SOL    HW284022   5.663   4.487  11.593
60709SOL     OW84023  10.756   7.813   5.626
60709SOL    HW184024  10.765   7.741   5.564
60709SOL    HW284025  10.844   7.826   5.661
60710SOL     OW84026  12.460  12.657   9.565
60710SOL    HW184027  12.552  12.647   9.588
60710SOL    HW284028  12.447  12.596   9.492
60711SOL     OW84029  14.002   4.566   6.891
60711SOL    HW184030  13.951   4.487   6.905
60711SOL    HW284031  13.963   4.632   6.949
60712SOL     OW84032  14.327   6.400  11.979
60712SOL    HW184033  14.320   6.329  12.042
60712SOL    HW284034  14.397   6.373  11.919
60713SOL     OW84035   0.819   4.565   6.632
60713SOL    HW184036   0.822   4.580   6.537
60713SOL    HW284037   0.886   4.623   6.668
60714SOL     OW84038   3.926   8.686   5.262
60714SOL    HW184039   3.876   8.607   5.238
60714SOL    HW284040   4.016   8.666   5.235
60715SOL     OW84041  14.622  13.618   9.211
60715SOL    HW184042  14.675  13.615   9.291
60715SOL    HW284043  14.536  13.646   9.241
60716SOL     OW84044   3.317   1.251   7.009
60716SOL    HW184045   3.290   1.185   6.945
60716SOL    HW284046   3.337   1.201   7.088
60717SOL     OW84047   8.178  10.830   1.600
60717SOL    HW184048   8.260  10.865   1.566
60717SOL    HW284049   8.145  10.898   1.659
60718SOL     OW84050  14.226  10.310  12.508
60718SOL    HW184051  14.182  10.310  12.423
60718SOL    HW284052  14.318  10.297  12.488
60719SOL     OW84053   3.306   1.074   3.239
60719SOL    HW184054   3.263   1.000   3.196
60719SOL    HW284055   3.357   1.115   3.170
60720SOL     OW84056   3.972   9.859   0.545
60720SOL    HW184057   4.054   9.842   0.590
60720SOL    HW284058   3.941   9.943   0.580
60721SOL     OW84059  13.119  10.923   0.971
60721SOL    HW184060  13.087  11.006   0.935
60721SOL    HW284061  13.212  10.922   0.951
60722SOL     OW84062   2.820   3.403   5.533
60722SOL    HW184063   2.797   3.371   5.445
60722SOL    HW284064   2.893   3.348   5.561
60723SOL     OW84065   5.028  11.605   1.822
60723SOL    HW184066   4.992  11.542   1.884
60723SOL    HW284067   4.952  11.640   1.775
60724SOL     OW84068   9.134   0.100   0.446
60724SOL    HW184069   9.066   0.130   0.507
60724SOL    HW284070   9.089   0.096   0.361
60725SOL     OW84071  10.939   6.437   4.712
60725SOL    HW184072  10.994   6.512   4.692
60725SOL    HW284073  10.850   6.470   4.709
60726SOL     OW84074   5.698   9.252   6.942
60726SOL    HW184075   5.785   9.275   6.975
60726SOL    HW284076   5.688   9.160   6.964
60727SOL     OW84077   8.683  14.155   4.584
60727SOL    HW184078   8.703  14.212   4.510
60727SOL    HW284079   8.727  14.196   4.659
60728SOL     OW84080   1.316   0.310   3.753
60728SOL    HW184081   1.230   0.272   3.771
60728SOL    HW284082   1.327   0.301   3.658
60729SOL     OW84083   7.014   5.339   6.984
60729SOL    HW184084   7.043   5.256   6.947
60729SOL    HW284085   6.933   5.360   6.938
60730SOL     OW84086  12.079  11.477   9.652
60730SOL    HW184087  12.111  11.404   9.598
60730SOL    HW284088  12.150  11.492   9.715
60731SOL     OW84089   2.367   0.291   5.569
60731SOL    HW184090   2.419   0.212   5.586
60731SOL    HW284091   2.296   0.261   5.512
60732SOL     OW84092   0.265   9.288   6.919
60732SOL    HW184093   0.320   9.286   6.840
60732SOL    HW284094   0.186   9.239   6.894
60733SOL     OW84095  10.281   0.545   2.356
60733SOL    HW184096  10.349   0.501   2.305
60733SOL    HW284097  10.203   0.491   2.343
60734SOL     OW84098   8.203   3.836   9.978
60734SOL    HW184099   8.145   3.909   9.954
60734SOL    HW284100   8.187   3.823  10.071
60735SOL     OW84101   8.781  13.827   7.975
60735SOL    HW184102   8.752  13.906   7.929
60735SOL    HW284103   8.710  13.764   7.961
60736SOL     OW84104  10.048   1.335   8.953
60736SOL    HW184105  10.030   1.256   8.901
60736SOL    HW284106   9.976   1.394   8.933
60737SOL     OW84107   6.080   1.429  12.791
60737SOL    HW184108   6.108   1.515  12.821
60737SOL    HW284109   6.030   1.392  12.864
60738SOL     OW84110   9.091  10.724  10.306
60738SOL    HW184111   9.181  10.698  10.286
60738SOL    HW284112   9.095  10.764  10.393
60739SOL     OW84113  11.043  13.117  12.918
60739SOL    HW184114  11.034  13.105  13.013
60739SOL    HW284115  11.085  13.036  12.888
60740SOL     OW84116   4.719   4.635   4.885
60740SOL    HW184117   4.668   4.594   4.954
60740SOL    HW284118   4.656   4.646   4.813
60741SOL     OW84119   3.532  10.974  12.318
60741SOL    HW184120   3.622  11.005  12.310
60741SOL    HW284121   3.528  10.932  12.404
60742SOL     OW84122   5.667   0.301   8.327
60742SOL    HW184123   5.622   0.219   8.305
60742SOL    HW284124   5.758   0.273   8.344
60743SOL     OW84125  12.400   3.760   1.123
60743SOL    HW184126  12.386   3.694   1.191
60743SOL    HW284127  12.468   3.817   1.158
60744SOL     OW84128   6.208  14.339  11.448
60744SOL    HW184129   6.303  14.348  11.453
60744SOL    HW284130   6.192  14.297  11.363
60745SOL     OW84131  12.860   1.157   1.478
60745SOL    HW184132  12.886   1.120   1.562
60745SOL    HW284133  12.938   1.149   1.423
60746SOL     OW84134   6.085  14.322  12.300
60746SOL    HW184135   6.099  14.416  12.309
60746SOL    HW284136   6.040  14.312  12.216
60747SOL     OW84137   9.973   0.514   7.805
60747SOL    HW184138  10.049   0.457   7.792
60747SOL    HW284139   9.912   0.489   7.735
60748SOL     OW84140   1.779   3.206  12.260
60748SOL    HW184141   1.872   3.227  12.265
60748SOL    HW284142   1.737   3.269  12.318
60749SOL     OW84143   1.443   6.503  14.178
60749SOL    HW184144   1.402   6.496  14.092
60749SOL    HW284145   1.369   6.512  14.239
60750SOL     OW84146  14.543  12.689   2.841
60750SOL    HW184147  14.475  12.743   2.800
60750SOL    HW284148  14.552  12.614   2.782
60751SOL     OW84149  10.896  12.217   4.869
60751SOL    HW184150  10.828  12.274   4.908
60751SOL    HW284151  10.872  12.129   4.897
60752SOL     OW84152   8.962   1.990   3.815
60752SOL    HW184153   8.895   2.002   3.881
60752SOL    HW284154   8.918   1.944   3.744
60753SOL     OW84155  14.393   5.842  14.074
60753SOL    HW184156  14.457   5.890  14.020
60753SOL    HW284157  14.318   5.901  14.079
60754SOL     OW84158  10.522   5.988   6.642
60754SOL    HW184159  10.503   5.923   6.575
60754SOL    HW284160  10.519   5.940   6.724
60755SOL     OW84161  12.026  13.081   6.386
60755SOL    HW184162  11.945  13.121   6.419
60755SOL    HW284163  12.067  13.042   6.463
60756SOL     OW84164   7.329   3.393   0.653
60756SOL    HW184165   7.273   3.329   0.698
60756SOL    HW284166   7.418   3.370   0.680
60757SOL     OW84167   5.500   3.312   1.037
60757SOL    HW184168   5.535   3.256   1.106
60757SOL    HW284169   5.568   3.377   1.021
60758SOL     OW84170   6.151  11.159  12.346
60758SOL    HW184171   6.058  11.145  12.332
60758SOL    HW284172   6.194  11.105  12.280
60759SOL     OW84173  13.764  14.417   8.798
60759SOL    HW184174  13.691  14.360   8.822
60759SOL    HW284175  13.837  14.357   8.783
60760SOL     OW84176  14.776  10.874  12.659
60760SOL    HW184177  14.802  10.946  12.716
60760SOL    HW284178  14.817  10.894  12.575
60761SOL     OW84179   3.814   8.085   2.804
60761SOL    HW184180   3.772   8.134   2.874
60761SOL    HW284181   3.907   8.106   2.811
60762SOL     OW84182  12.048   5.431   7.509
60762SOL    HW184183  12.046   5.527   7.507
60762SOL    HW284184  12.019   5.409   7.598
60763SOL     OW84185   1.738   4.097  12.324
60763SOL    HW184186   1.828   4.127  12.310
60763SOL    HW284187   1.684   4.168  12.288
60764SOL     OW84188  10.527   4.427   5.797
60764SOL    HW184189  10.478   4.352   5.763
60764SOL    HW284190  10.617   4.412   5.768
60765SOL     OW84191   9.674   3.346   3.158
60765SOL    HW184192   9.611   3.324   3.228
60765SOL    HW284193   9.703   3.262   3.125
60766SOL     OW84194   4.203   4.239   7.548
60766SOL    HW184195   4.285   4.220   7.503
60766SOL    HW284196   4.191   4.166   7.608
60767SOL     OW84197   0.106   5.827   4.969
60767SOL    HW184198   0.170   5.765   4.935
60767SOL    HW284199   0.054   5.852   4.892
60768SOL     OW84200  13.971   0.574   4.714
60768SOL    HW184201  13.902   0.541   4.657
60768SOL    HW284202  13.931   0.648   4.760
60769SOL     OW84203   8.801  10.881   0.537
60769SOL    HW184204   8.876  10.940   0.529
60769SOL    HW284205   8.738  10.929   0.591
60770SOL     OW84206  14.639  12.129   3.079
60770SOL    HW184207  14.619  12.153   2.989
60770SOL    HW284208  14.594  12.046   3.093
60771SOL     OW84209   5.562   9.735   3.662
60771SOL    HW184210   5.558   9.695   3.749
60771SOL    HW284211   5.642   9.789   3.665
60772SOL     OW84212   8.053  13.136   3.957
60772SOL    HW184213   8.033  13.067   4.020
60772SOL    HW284214   7.985  13.202   3.972
60773SOL     OW84215   1.794  14.438  10.467
60773SOL    HW184216   1.870  14.484  10.430
60773SOL    HW284217   1.719  14.491  10.439
60774SOL     OW84218   9.090  10.313  10.100
60774SOL    HW184219   9.055  10.317  10.011
60774SOL    HW284220   9.089  10.220  10.122
60775SOL     OW84221  10.769  11.258  14.594
60775SOL    HW184222  10.717  11.178  14.597
60775SOL    HW284223  10.805  11.261  14.506
60776SOL     OW84224   1.235   4.924   5.173
60776SOL    HW184225   1.280   4.852   5.216
60776SOL    HW284226   1.243   4.997   5.234
60777SOL     OW84227   9.784   1.493   9.747
60777SOL    HW184228   9.875   1.473   9.770
60777SOL    HW284229   9.741   1.508   9.831
60778SOL     OW84230   8.032  14.402  14.606
60778SOL    HW184231   7.945  14.424  14.640
60778SOL    HW284232   8.080  14.485  14.607
60779SOL     OW84233  10.267   0.859  13.248
60779SOL    HW184234  10.247   0.806  13.171
60779SOL    HW284235  10.186   0.905  13.267
60780SOL     OW84236   8.052   4.034   9.928
60780SOL    HW184237   7.989   3.969   9.897
60780SOL    HW284238   8.000   4.114   9.940
60781SOL     OW84239   1.230  11.110   4.373
60781SOL    HW184240   1.211  11.132   4.282
60781SOL    HW284241   1.324  11.093   4.374
60782SOL     OW84242   8.895  11.727   5.757
60782SOL    HW184243   8.860  11.679   5.832
60782SOL    HW284244   8.883  11.819   5.779
60783SOL     OW84245   3.703   2.137   0.524
60783SOL    HW184246   3.762   2.067   0.495
60783SOL    HW284247   3.617   2.109   0.494
60784SOL     OW84248   7.575   2.270   9.936
60784SOL    HW184249   7.496   2.305   9.894
60784SOL    HW284250   7.557   2.276  10.030
60785SOL     OW84251  10.134   5.768  11.878
60785SOL    HW184252  10.054   5.737  11.834
60785SOL    HW284253  10.205   5.717  11.837
60786SOL     OW84254   3.522  10.164   6.024
60786SOL    HW184255   3.494  10.174   5.933
60786SOL    HW284256   3.462  10.220   6.073
60787SOL     OW84257  12.768   8.713   1.804
60787SOL    HW184258  12.825   8.772   1.755
60787SOL    HW284259  12.748   8.761   1.884
60788SOL     OW84260  11.482   6.440   3.061
60788SOL    HW184261  11.465   6.534   3.054
60788SOL    HW284262  11.529   6.429   3.143
60789SOL     OW84263   7.268   6.013   0.494
60789SOL    HW184264   7.297   5.990   0.406
60789SOL    HW284265   7.174   6.024   0.486
60790SOL     OW84266  11.307   7.823   8.700
60790SOL    HW184267  11.377   7.801   8.638
60790SOL    HW284268  11.328   7.772   8.778
60791SOL     OW84269   3.980   4.294   1.680
60791SOL    HW184270   3.901   4.310   1.731
60791SOL    HW284271   4.033   4.373   1.694
60792SOL     OW84272   9.856  14.164  13.592
60792SOL    HW184273   9.836  14.255  13.570
60792SOL    HW284274   9.840  14.116  13.511
60793SOL     OW84275   6.935   7.645   3.215
60793SOL    HW184276   6.863   7.589   3.244
60793SOL    HW284277   7.014   7.601   3.248
60794SOL     OW84278  13.285  13.008  13.791
60794SOL    HW184279  13.297  12.988  13.884
60794SOL    HW284280  13.308  13.100  13.782
60795SOL     OW84281   0.694   4.432   1.009
60795SOL    HW184282   0.690   4.401   0.919
60795SOL    HW284283   0.772   4.488   1.012
60796SOL     OW84284  12.193   3.981   3.966
60796SOL    HW184285  12.161   3.917   4.029
60796SOL    HW284286  12.254   4.036   4.015
60797SOL     OW84287   7.537  10.788  13.925
60797SOL    HW184288   7.502  10.843  13.995
60797SOL    HW284289   7.623  10.827  13.906
60798SOL     OW84290  12.895   3.388   5.811
60798SOL    HW184291  12.820   3.330   5.822
60798SOL    HW284292  12.869   3.447   5.740
60799SOL     OW84293   5.643   4.959  10.923
60799SOL    HW184294   5.707   4.912  10.977
60799SOL    HW284295   5.694   4.995  10.851
60800SOL     OW84296  14.272   2.513   5.854
60800SOL    HW184297  14.334   2.466   5.909
60800SOL    HW284298  14.300   2.605   5.858
60801SOL     OW84299  14.358   8.761  13.854
60801SOL    HW184300  14.437   8.708  13.861
60801SOL    HW284301  14.287   8.697  13.844
60802SOL     OW84302   2.200   6.802   5.592
60802SOL    HW184303   2.128   6.740   5.582
60802SOL    HW284304   2.158   6.886   5.611
60803SOL     OW84305   3.652   5.089  11.528
60803SOL    HW184306   3.670   5.166  11.581
60803SOL    HW284307   3.556   5.085  11.523
60804SOL     OW84308   1.491  10.745   4.224
60804SOL    HW184309   1.410  10.731   4.271
60804SOL    HW284310   1.526  10.657   4.210
60805SOL     OW84311  12.511  14.692  12.173
60805SOL    HW184312  12.417  14.690  12.154
60805SOL    HW284313  12.548  14.624  12.116
60806SOL     OW84314   3.400  14.145  11.147
60806SOL    HW184315   3.356  14.063  11.123
60806SOL    HW284316   3.387  14.202  11.071
60807SOL     OW84317   7.552   0.493   0.746
60807SOL    HW184318   7.619   0.449   0.797
60807SOL    HW284319   7.532   0.432   0.674
60808SOL     OW84320   1.976   6.648   5.571
60808SOL    HW184321   1.961   6.574   5.512
60808SOL    HW284322   1.944   6.724   5.523
60809SOL     OW84323   1.884   4.457   4.766
60809SOL    HW184324   1.911   4.449   4.675
60809SOL    HW284325   1.866   4.367   4.794
60810SOL     OW84326   5.323  13.510  10.469
60810SOL    HW184327   5.271  13.572  10.522
60810SOL    HW284328   5.260  13.442  10.444
60811SOL     OW84329  10.717  10.547  12.974
60811SOL    HW184330  10.798  10.516  13.014
60811SOL    HW284331  10.722  10.642  12.980
60812SOL     OW84332  11.696   6.911   2.384
60812SOL    HW184333  11.652   6.883   2.464
60812SOL    HW284334  11.637   6.977   2.347
60813SOL     OW84335   1.158   5.699   8.881
60813SOL    HW184336   1.122   5.680   8.794
60813SOL    HW284337   1.115   5.637   8.939
60814SOL     OW84338   2.191   7.547  11.137
60814SOL    HW184339   2.262   7.587  11.086
60814SOL    HW284340   2.180   7.461  11.099
60815SOL     OW84341   2.506   8.366   9.342
60815SOL    HW184342   2.538   8.294   9.287
60815SOL    HW284343   2.483   8.436   9.280
60816SOL     OW84344   0.716   5.747   1.057
60816SOL    HW184345   0.754   5.689   0.991
60816SOL    HW284346   0.714   5.694   1.137
60817SOL     OW84347   2.704   6.205   0.772
60817SOL    HW184348   2.761   6.157   0.712
60817SOL    HW284349   2.739   6.186   0.859
60818SOL     OW84350  10.076   1.364   2.943
60818SOL    HW184351  10.095   1.452   2.910
60818SOL    HW284352  10.038   1.379   3.030
60819SOL     OW84353   2.083   2.178  11.054
60819SOL    HW184354   2.080   2.100  11.110
60819SOL    HW284355   2.137   2.240  11.103
60820SOL     OW84356   4.776   9.162  10.631
60820SOL    HW184357   4.686   9.182  10.604
60820SOL    HW284358   4.830   9.195  10.560
60821SOL     OW84359   5.219  13.670   5.203
60821SOL    HW184360   5.225  13.616   5.281
60821SOL    HW284361   5.132  13.708   5.205
60822SOL     OW84362   3.978   7.768   6.331
60822SOL    HW184363   3.972   7.734   6.242
60822SOL    HW284364   4.072   7.777   6.347
60823SOL     OW84365   6.550   2.853   9.817
60823SOL    HW184366   6.637   2.813   9.812
60823SOL    HW284367   6.562   2.929   9.874
60824SOL     OW84368   8.076   5.468  12.670
60824SOL    HW184369   8.020   5.542  12.647
60824SOL    HW284370   8.141   5.465  12.600
60825SOL     OW84371  10.452   7.473  10.117
60825SOL    HW184372  10.405   7.433  10.191
60825SOL    HW284373  10.384   7.492  10.053
60826SOL     OW84374  10.380  10.830   7.348
60826SOL    HW184375  10.453  10.770   7.332
60826SOL    HW284376  10.302  10.774   7.342
60827SOL     OW84377   4.797  12.246  13.666
60827SOL    HW184378   4.778  12.276  13.754
60827SOL    HW284379   4.814  12.326  13.617
60828SOL     OW84380   2.109   4.880   1.792
60828SOL    HW184381   2.185   4.909   1.742
60828SOL    HW284382   2.119   4.785   1.800
60829SOL     OW84383  12.130   1.467  13.137
60829SOL    HW184384  12.178   1.532  13.189
60829SOL    HW284385  12.169   1.473  13.050
60830SOL     OW84386  10.884  11.172   6.929
60830SOL    HW184387  10.807  11.123   6.956
60830SOL    HW284388  10.882  11.172   6.833
60831SOL     OW84389  13.237   8.313   7.513
60831SOL    HW184390  13.228   8.258   7.591
60831SOL    HW284391  13.165   8.376   7.519
60832SOL     OW84392  10.150  14.589  11.133
60832SOL    HW184393  10.207  14.664  11.113
60832SOL    HW284394  10.188  14.517  11.083
60833SOL     OW84395  10.258   6.558   2.779
60833SOL    HW184396  10.346   6.586   2.804
60833SOL    HW284397  10.200   6.610   2.835
60834SOL     OW84398   2.507  14.047  13.642
60834SOL    HW184399   2.542  14.107  13.708
60834SOL    HW284400   2.487  14.102  13.567
60835SOL     OW84401  11.606   3.354   4.714
60835SOL    HW184402  11.645   3.409   4.782
60835SOL    HW284403  11.563   3.416   4.654
60836SOL     OW84404   8.858   6.777   7.562
60836SOL    HW184405   8.823   6.861   7.531
60836SOL    HW284406   8.926   6.800   7.624
60837SOL     OW84407  11.985   8.864   6.043
60837SOL    HW184408  11.895   8.836   6.032
60837SOL    HW284409  11.989   8.951   6.003
60838SOL     OW84410   2.016   2.105  14.700
60838SOL    HW184411   1.974   2.130  14.782
60838SOL    HW284412   1.950   2.055  14.653
60839SOL     OW84413   1.020  10.306   4.364
60839SOL    HW184414   1.045  10.310   4.456
60839SOL    HW284415   0.999  10.214   4.348
60840SOL     OW84416   4.107   8.591  10.262
60840SOL    HW184417   4.104   8.640  10.344
60840SOL    HW284418   4.189   8.543  10.264
60841SOL     OW84419   6.004  14.676   3.332
60841SOL    HW184420   6.054  14.617   3.388
60841SOL    HW284421   5.967  14.619   3.265
60842SOL     OW84422   3.684  10.555   4.150
60842SOL    HW184423   3.770  10.578   4.183
60842SOL    HW284424   3.661  10.474   4.195
60843SOL     OW84425  11.870   6.261  12.193
60843SOL    HW184426  11.892   6.171  12.217
60843SOL    HW284427  11.954   6.300  12.168
60844SOL     OW84428   9.082   8.984   7.696
60844SOL    HW184429   9.167   8.954   7.663
60844SOL    HW284430   9.090   8.980   7.791
60845SOL     OW84431   9.721  13.449  10.015
60845SOL    HW184432   9.693  13.406  10.096
60845SOL    HW284433   9.708  13.383   9.947
60846SOL     OW84434  12.370   5.205  14.855
60846SOL    HW184435  12.429   5.224   0.058
60846SOL    HW284436  12.394   5.117  14.827
60847SOL     OW84437   1.086  12.090   9.963
60847SOL    HW184438   1.094  12.125   9.875
60847SOL    HW284439   0.998  12.054   9.967
60848SOL     OW84440  14.614   2.157   9.049
60848SOL    HW184441  14.547   2.091   9.071
60848SOL    HW284442  14.696   2.119   9.080
60849SOL     OW84443   1.202   3.447  14.734
60849SOL    HW184444   1.295   3.430  14.717
60849SOL    HW284445   1.201   3.495  14.817
60850SOL     OW84446   9.463   3.288  14.737
60850SOL    HW184447   9.431   3.378  14.732
60850SOL    HW284448   9.432   3.256  14.822
60851SOL     OW84449   5.399  13.587   5.440
60851SOL    HW184450   5.360  13.553   5.520
60851SOL    HW284451   5.411  13.510   5.385
60852SOL     OW84452   7.209   0.946  13.688
60852SOL    HW184453   7.218   1.007  13.615
60852SOL    HW284454   7.299   0.919  13.708
60853SOL     OW84455   0.287   0.258  10.471
60853SOL    HW184456   0.250   0.218  10.550
60853SOL    HW284457   0.379   0.233  10.472
60854SOL     OW84458   5.584   6.568   6.545
60854SOL    HW184459   5.632   6.525   6.475
60854SOL    HW284460   5.522   6.625   6.500
60855SOL     OW84461  13.719   2.808  13.221
60855SOL    HW184462  13.711   2.801  13.316
60855SOL    HW284463  13.742   2.900  13.205
60856SOL     OW84464   5.138  11.588  12.155
60856SOL    HW184465   5.171  11.526  12.090
60856SOL    HW284466   5.104  11.661  12.104
60857SOL     OW84467  11.706  10.950  14.857
60857SOL    HW184468  11.629  10.953   0.044
60857SOL    HW284469  11.681  11.000  14.780
60858SOL     OW84470   2.061  12.407   8.932
60858SOL    HW184471   2.138  12.379   8.882
60858SOL    HW284472   2.092  12.413   9.023
60859SOL     OW84473   1.941   8.280   4.118
60859SOL    HW184474   2.021   8.239   4.150
60859SOL    HW284475   1.911   8.335   4.191
60860SOL     OW84476   8.248   6.761   0.560
60860SOL    HW184477   8.306   6.835   0.580
60860SOL    HW284478   8.301   6.683   0.581
60861SOL     OW84479   8.778  14.172   6.660
60861SOL    HW184480   8.788  14.234   6.588
60861SOL    HW284481   8.713  14.109   6.629
60862SOL     OW84482   1.998   1.541  11.833
60862SOL    HW184483   2.038   1.501  11.756
60862SOL    HW284484   1.944   1.612  11.798
60863SOL     OW84485   4.458   5.822   1.537
60863SOL    HW184486   4.496   5.878   1.604
60863SOL    HW284487   4.364   5.838   1.543
60864SOL     OW84488   1.962   8.030  10.859
60864SOL    HW184489   2.036   8.041  10.800
60864SOL    HW284490   1.963   7.937  10.881
60865SOL     OW84491   7.729  11.874  13.832
60865SOL    HW184492   7.754  11.784  13.853
60865SOL    HW284493   7.648  11.865  13.782
60866SOL     OW84494   5.678  10.231   5.526
60866SOL    HW184495   5.634  10.296   5.580
60866SOL    HW284496   5.608  10.184   5.481
60867SOL     OW84497  12.095  13.202   1.099
60867SOL    HW184498  12.071  13.209   1.006
60867SOL    HW284499  12.094  13.292   1.131
60868SOL     OW84500  11.218   8.265   8.697
60868SOL    HW184501  11.153   8.330   8.726
60868SOL    HW284502  11.168   8.184   8.689
60869SOL     OW84503   9.886   4.915   2.874
60869SOL    HW184504   9.900   4.973   2.799
60869SOL    HW284505   9.886   4.827   2.836
60870SOL     OW84506   9.866   1.594  14.714
60870SOL    HW184507   9.915   1.642  14.781
60870SOL    HW284508   9.776   1.625  14.725
60871SOL     OW84509  14.658  11.097   0.534
60871SOL    HW184510  14.677  11.136   0.448
60871SOL    HW284511  14.615  11.166   0.583
60872SOL     OW84512   5.417   0.945   2.792
60872SOL    HW184513   5.495   0.996   2.773
60872SOL    HW284514   5.432   0.908   2.879
60873SOL     OW84515  11.997   0.312   2.582
60873SOL    HW184516  12.079   0.268   2.563
60873SOL    HW284517  11.990   0.310   2.677
60874SOL     OW84518   9.906  12.375  10.625
60874SOL    HW184519   9.825  12.336  10.659
60874SOL    HW284520   9.946  12.416  10.702
60875SOL     OW84521  10.257   2.229   9.363
60875SOL    HW184522  10.333   2.210   9.419
60875SOL    HW284523  10.279   2.192   9.278
60876SOL     OW84524   3.913   8.268  13.057
60876SOL    HW184525   3.994   8.271  13.108
60876SOL    HW284526   3.910   8.179  13.022
60877SOL     OW84527   0.076   0.413   7.106
60877SOL    HW184528   0.028   0.419   7.189
60877SOL    HW284529   0.012   0.439   7.039
60878SOL     OW84530   5.017   9.933   7.453
60878SOL    HW184531   4.977   9.889   7.529
60878SOL    HW284532   5.053   9.863   7.400
60879SOL     OW84533   9.198   2.180  14.534
60879SOL    HW184534   9.126   2.148  14.480
60879SOL    HW284535   9.156   2.238  14.597
60880SOL     OW84536  14.142   7.890   8.907
60880SOL    HW184537  14.072   7.951   8.930
60880SOL    HW284538  14.132   7.817   8.968
60881SOL     OW84539  11.651   0.069  13.789
60881SOL    HW184540  11.596   0.004  13.746
60881SOL    HW284541  11.729   0.076  13.733
60882SOL     OW84542  10.575   0.814  12.373
60882SOL    HW184543  10.503   0.776  12.425
60882SOL    HW284544  10.584   0.903  12.407
60883SOL     OW84545   3.307  11.026   4.625
60883SOL    HW184546   3.368  10.979   4.568
60883SOL    HW284547   3.313  10.981   4.709
60884SOL     OW84548  12.117   8.582  14.272
60884SOL    HW184549  12.167   8.568  14.192
60884SOL    HW284550  12.071   8.500  14.287
60885SOL     OW84551  11.973   4.127  13.242
60885SOL    HW184552  11.905   4.060  13.232
60885SOL    HW284553  12.020   4.126  13.159
60886SOL     OW84554   1.696  14.248   3.953
60886SOL    HW184555   1.677  14.241   4.047
60886SOL    HW284556   1.611  14.242   3.910
60887SOL     OW84557   5.787  10.804   1.357
60887SOL    HW184558   5.708  10.816   1.410
60887SOL    HW284559   5.833  10.732   1.399
60888SOL     OW84560   0.790   7.251   7.075
60888SOL    HW184561   0.829   7.316   7.133
60888SOL    HW284562   0.859   7.230   7.013
60889SOL     OW84563   0.559   4.348  11.139
60889SOL    HW184564   0.607   4.265  11.146
60889SOL    HW284565   0.612   4.400  11.079
60890SOL     OW84566  10.057   9.231   7.485
60890SOL    HW184567  10.072   9.279   7.566
60890SOL    HW284568   9.963   9.216   7.483
60891SOL     OW84569   1.832   1.537  14.165
60891SOL    HW184570   1.871   1.618  14.198
60891SOL    HW284571   1.755   1.524  14.220
60892SOL     OW84572   7.368   6.512   3.681
60892SOL    HW184573   7.366   6.570   3.604
60892SOL    HW284574   7.296   6.543   3.736
60893SOL     OW84575   2.700   4.530   5.554
60893SOL    HW184576   2.716   4.513   5.461
60893SOL    HW284577   2.693   4.442   5.593
60894SOL     OW84578  13.237  13.050   5.187
60894SOL    HW184579  13.313  12.995   5.170
60894SOL    HW284580  13.222  13.042   5.282
60895SOL     OW84581  11.642   0.707  13.339
60895SOL    HW184582  11.686   0.657  13.270
60895SOL    HW284583  11.651   0.798  13.313
60896SOL     OW84584  14.286  11.510   9.864
60896SOL    HW184585  14.301  11.557   9.946
60896SOL    HW284586  14.333  11.427   9.874
60897SOL     OW84587   2.361   8.025   0.761
60897SOL    HW184588   2.302   7.996   0.691
60897SOL    HW284589   2.383   8.115   0.738
60898SOL     OW84590   9.985   4.388  12.328
60898SOL    HW184591   9.944   4.326  12.389
60898SOL    HW284592  10.060   4.340  12.292
60899SOL     OW84593   7.097  13.112   1.513
60899SOL    HW184594   7.055  13.195   1.532
60899SOL    HW284595   7.030  13.046   1.530
60900SOL     OW84596  10.677  12.585  11.587
60900SOL    HW184597  10.745  12.555  11.647
60900SOL    HW284598  10.600  12.532  11.608
60901SOL     OW84599   2.804   7.449   9.712
60901SOL    HW184600   2.730   7.492   9.755
60901SOL    HW284601   2.878   7.506   9.731
60902SOL     OW84602  11.513  10.442   9.926
60902SOL    HW184603  11.581  10.485   9.978
60902SOL    HW284604  11.501  10.499   9.851
60903SOL     OW84605   1.287  13.288  12.186
60903SOL    HW184606   1.313  13.241  12.265
60903SOL    HW284607   1.369  13.298  12.136
60904SOL     OW84608   0.313  13.657  13.461
60904SOL    HW184609   0.396  13.648  13.507
60904SOL    HW284610   0.306  13.577  13.409
60905SOL     OW84611  13.260   7.687  11.552
60905SOL    HW184612  13.192   7.755  11.556
60905SOL    HW284613  13.314   7.703  11.630
60906SOL     OW84614   9.948  13.602   9.194
60906SOL    HW184615  10.026  13.572   9.240
60906SOL    HW284616   9.884  13.531   9.207
60907SOL     OW84617   0.831   1.104   0.303
60907SOL    HW184618   0.915   1.151   0.305
60907SOL    HW284619   0.819   1.081   0.212
60908SOL     OW84620   6.844   3.901  13.552
60908SOL    HW184621   6.856   3.836  13.484
60908SOL    HW284622   6.922   3.956  13.548
60909SOL     OW84623   0.493  11.732   5.401
60909SOL    HW184624   0.450  11.658   5.357
60909SOL    HW284625   0.508  11.701   5.490
60910SOL     OW84626   0.967   7.868   2.834
60910SOL    HW184627   0.978   7.827   2.748
60910SOL    HW284628   0.962   7.962   2.816
60911SOL     OW84629  13.450  11.927   3.813
60911SOL    HW184630  13.415  11.965   3.893
60911SOL    HW284631  13.512  11.860   3.843
60912SOL     OW84632   8.376  10.115   4.524
60912SOL    HW184633   8.294  10.074   4.549
60912SOL    HW284634   8.373  10.118   4.428
60913SOL     OW84635   3.474   6.903   0.764
60913SOL    HW184636   3.499   6.853   0.842
60913SOL    HW284637   3.396   6.951   0.791
60914SOL     OW84638   8.455   3.927  13.258
60914SOL    HW184639   8.434   3.850  13.205
60914SOL    HW284640   8.541   3.909  13.294
60915SOL     OW84641   7.753   9.490   7.103
60915SOL    HW184642   7.769   9.511   7.195
60915SOL    HW284643   7.840   9.495   7.062
60916SOL     OW84644  11.359   1.589   1.329
60916SOL    HW184645  11.411   1.669   1.314
60916SOL    HW284646  11.406   1.521   1.281
60917SOL     OW84647  13.684   1.477  12.529
60917SOL    HW184648  13.765   1.508  12.569
60917SOL    HW284649  13.658   1.547  12.469
60918SOL     OW84650   5.587   5.421   2.862
60918SOL    HW184651   5.644   5.345   2.870
60918SOL    HW284652   5.517   5.406   2.925
60919SOL     OW84653   1.550   8.860  11.773
60919SOL    HW184654   1.524   8.882  11.863
60919SOL    HW284655   1.623   8.919  11.754
60920SOL     OW84656   7.497   7.496  12.756
60920SOL    HW184657   7.559   7.526  12.823
60920SOL    HW284658   7.517   7.403  12.746
60921SOL     OW84659  12.331   4.299   8.062
60921SOL    HW184660  12.417   4.256   8.068
60921SOL    HW284661  12.332   4.340   7.975
60922SOL     OW84662   0.313   2.449   9.488
60922SOL    HW184663   0.291   2.449   9.395
60922SOL    HW284664   0.233   2.478   9.532
60923SOL     OW84665   8.523   3.715   1.837
60923SOL    HW184666   8.555   3.701   1.926
60923SOL    HW284667   8.509   3.809   1.831
60924SOL     OW84668  12.912  13.286   4.748
60924SOL    HW184669  12.849  13.335   4.695
60924SOL    HW284670  12.860  13.250   4.820
60925SOL     OW84671   8.358   5.402  14.009
60925SOL    HW184672   8.379   5.492  14.035
60925SOL    HW284673   8.285   5.411  13.947
60926SOL     OW84674   5.464  11.802  13.019
60926SOL    HW184675   5.428  11.861  13.085
60926SOL    HW284676   5.389  11.749  12.991
60927SOL     OW84677   5.795   7.499   8.375
60927SOL    HW184678   5.745   7.499   8.293
60927SOL    HW284679   5.743   7.552   8.435
60928SOL     OW84680   8.381   2.574   5.653
60928SOL    HW184681   8.364   2.668   5.650
60928SOL    HW284682   8.452   2.565   5.718
60929SOL     OW84683   9.747   5.023   9.088
60929SOL    HW184684   9.757   4.976   9.171
60929SOL    HW284685   9.652   5.026   9.074
60930SOL     OW84686   0.141   1.582   4.757
60930SOL    HW184687   0.154   1.494   4.793
60930SOL    HW284688   0.160   1.641   4.830
60931SOL     OW84689  12.468   6.000   9.200
60931SOL    HW184690  12.498   5.918   9.239
60931SOL    HW284691  12.400   6.031   9.260
60932SOL     OW84692   6.166   0.131   9.731
60932SOL    HW184693   6.252   0.101   9.762
60932SOL    HW284694   6.182   0.157   9.640
60933SOL     OW84695  14.563   1.585   5.381
60933SOL    HW184696  14.486   1.616   5.428
60933SOL    HW284697  14.636   1.633   5.420
60934SOL     OW84698   2.293   5.131   1.824
60934SOL    HW184699   2.211   5.119   1.776
60934SOL    HW284700   2.320   5.221   1.807
60935SOL     OW84701  11.461   2.736   2.951
60935SOL    HW184702  11.368   2.751   2.968
60935SOL    HW284703  11.487   2.810   2.895
60936SOL     OW84704   9.729   6.511   0.128
60936SOL    HW184705   9.763   6.457   0.056
60936SOL    HW284706   9.658   6.562   0.089
60937SOL     OW84707  13.598  13.680   7.259
60937SOL    HW184708  13.620  13.710   7.171
60937SOL    HW284709  13.524  13.735   7.285
60938SOL     OW84710   8.706   8.100   8.845
60938SOL    HW184711   8.757   8.168   8.803
60938SOL    HW284712   8.684   8.039   8.775
60939SOL     OW84713   3.673   6.859  10.152
60939SOL    HW184714   3.598   6.854  10.092
60939SOL    HW284715   3.748   6.836  10.098
60940SOL     OW84716   0.634   9.902   6.602
60940SOL    HW184717   0.545   9.903   6.639
60940SOL    HW284718   0.664   9.812   6.615
60941SOL     OW84719   8.697   7.572   4.434
60941SOL    HW184720   8.792   7.581   4.422
60941SOL    HW284721   8.662   7.658   4.411
60942SOL     OW84722   6.796   5.916  10.059
60942SOL    HW184723   6.886   5.886  10.074
60942SOL    HW284724   6.770   5.956  10.142
60943SOL     OW84725   7.532   4.370   6.674
60943SOL    HW184726   7.600   4.307   6.700
60943SOL    HW284727   7.460   4.315   6.642
60944SOL     OW84728   7.118   4.451   1.186
60944SOL    HW184729   7.131   4.546   1.176
60944SOL    HW284730   7.155   4.413   1.107
60945SOL     OW84731   2.316   1.486   4.496
60945SOL    HW184732   2.286   1.523   4.414
60945SOL    HW284733   2.346   1.398   4.473
60946SOL     OW84734   9.015  12.439   8.475
60946SOL    HW184735   9.037  12.423   8.567
60946SOL    HW284736   8.942  12.380   8.457
60947SOL     OW84737   7.606   4.890   0.066
60947SOL    HW184738   7.598   4.854  14.848
60947SOL    HW284739   7.579   4.819   0.124
60948SOL     OW84740   8.002   0.773   6.636
60948SOL    HW184741   8.092   0.744   6.621
60948SOL    HW284742   8.010   0.845   6.699
60949SOL     OW84743  12.317   8.335   4.655
60949SOL    HW184744  12.345   8.427   4.658
60949SOL    HW284745  12.222   8.339   4.650
60950SOL     OW84746   4.360  10.358  10.725
60950SOL    HW184747   4.439  10.402  10.693
60950SOL    HW284748   4.392  10.276  10.764
60951SOL     OW84749   8.924   0.465   7.965
60951SOL    HW184750   8.829   0.472   7.980
60951SOL    HW284751   8.949   0.553   7.937
60952SOL     OW84752   4.789   4.096  11.075
60952SOL    HW184753   4.765   4.133  11.160
60952SOL    HW284754   4.856   4.155  11.041
60953SOL     OW84755   9.286   8.632   6.489
60953SOL    HW184756   9.244   8.714   6.515
60953SOL    HW284757   9.346   8.613   6.561
60954SOL     OW84758   1.531   5.032   2.236
60954SOL    HW184759   1.577   5.059   2.315
60954SOL    HW284760   1.574   4.950   2.209
60955SOL     OW84761   6.933   8.136   1.095
60955SOL    HW184762   6.973   8.222   1.089
60955SOL    HW284763   6.959   8.091   1.015
60956SOL     OW84764   7.783   3.968  11.620
60956SOL    HW184765   7.791   3.989  11.713
60956SOL    HW284766   7.689   3.970  11.603
60957SOL     OW84767   0.035   2.117   0.317
60957SOL    HW184768   0.088   2.080   0.387
60957SOL    HW284769   0.025   2.209   0.340
60958SOL     OW84770   1.844   1.999   1.451
60958SOL    HW184771   1.936   2.013   1.472
60958SOL    HW284772   1.823   2.067   1.387
60959SOL     OW84773   2.105  10.333   8.003
60959SOL    HW184774   2.034  10.273   7.982
60959SOL    HW284775   2.177  10.276   8.030
60960SOL     OW84776   9.603  14.292  11.558
60960SOL    HW184777   9.565  14.206  11.575
60960SOL    HW284778   9.595  14.302  11.463
60961SOL     OW84779  10.877   9.962  10.554
60961SOL    HW184780  10.955   9.911  10.573
60961SOL    HW284781  10.908  10.037  10.504
60962SOL     OW84782   7.140   8.332   6.733
60962SOL    HW184783   7.102   8.395   6.794
60962SOL    HW284784   7.066   8.306   6.677
60963SOL     OW84785   9.379   1.477  13.351
60963SOL    HW184786   9.374   1.571  13.367
60963SOL    HW284787   9.456   1.448  13.400
60964SOL     OW84788  11.074   6.030   8.730
60964SOL    HW184789  11.061   6.125   8.733
60964SOL    HW284790  11.093   6.012   8.638
60965SOL     OW84791   5.519   6.348   6.703
60965SOL    HW184792   5.515   6.299   6.621
60965SOL    HW284793   5.542   6.437   6.676
60966SOL     OW84794   7.364   2.596   6.980
60966SOL    HW184795   7.352   2.505   6.952
60966SOL    HW284796   7.335   2.597   7.071
60967SOL     OW84797   3.236   9.965  12.538
60967SOL    HW184798   3.278  10.037  12.586
60967SOL    HW284799   3.148   9.997  12.521
60968SOL     OW84800   7.822   1.816  10.578
60968SOL    HW184801   7.829   1.811  10.673
60968SOL    HW284802   7.856   1.903  10.555
60969SOL     OW84803   9.078   6.420   2.735
60969SOL    HW184804   9.146   6.438   2.671
60969SOL    HW284805   9.081   6.325   2.747
60970SOL     OW84806   9.861   5.154   1.780
60970SOL    HW184807   9.866   5.248   1.800
60970SOL    HW284808   9.938   5.138   1.725
60971SOL     OW84809  12.093   3.331  13.434
60971SOL    HW184810  12.134   3.250  13.464
60971SOL    HW284811  12.000   3.321  13.458
60972SOL     OW84812  13.221   1.709  10.568
60972SOL    HW184813  13.310   1.675  10.553
60972SOL    HW284814  13.165   1.632  10.561
60973SOL     OW84815   0.129   7.818   8.154
60973SOL    HW184816   0.057   7.757   8.138
60973SOL    HW284817   0.203   7.781   8.106
60974SOL     OW84818  12.894  12.464   0.276
60974SOL    HW184819  12.900  12.378   0.237
60974SOL    HW284820  12.895  12.448   0.371
60975SOL     OW84821  13.450   7.651   7.887
60975SOL    HW184822  13.506   7.601   7.828
60975SOL    HW284823  13.377   7.591   7.907
60976SOL     OW84824   6.654   1.375   4.125
60976SOL    HW184825   6.687   1.312   4.189
60976SOL    HW284826   6.733   1.417   4.090
60977SOL     OW84827   9.349  10.199   9.318
60977SOL    HW184828   9.288  10.273   9.322
60977SOL    HW284829   9.425  10.233   9.271
60978SOL     OW84830  10.863   3.957  11.711
60978SOL    HW184831  10.818   3.999  11.784
60978SOL    HW284832  10.934   3.907  11.752
60979SOL     OW84833   1.727   0.140   6.662
60979SOL    HW184834   1.648   0.195   6.665
60979SOL    HW284835   1.726   0.093   6.745
60980SOL     OW84836   4.839   2.163   3.133
60980SOL    HW184837   4.824   2.082   3.085
60980SOL    HW284838   4.888   2.137   3.210
60981SOL     OW84839  13.213   6.512  12.678
60981SOL    HW184840  13.144   6.485  12.739
60981SOL    HW284841  13.249   6.429  12.645
60982SOL     OW84842  14.088  13.363   0.165
60982SOL    HW184843  14.080  13.423   0.091
60982SOL    HW284844  14.172  13.386   0.205
60983SOL     OW84845   7.733   2.267   2.402
60983SOL    HW184846   7.777   2.198   2.352
60983SOL    HW284847   7.656   2.224   2.440
60984SOL     OW84848   6.443   7.106   1.353
60984SOL    HW184849   6.477   7.020   1.329
60984SOL    HW284850   6.363   7.088   1.402
60985SOL     OW84851   1.201   3.781   7.941
60985SOL    HW184852   1.129   3.719   7.951
60985SOL    HW284853   1.177   3.854   7.998
60986SOL     OW84854  12.179  11.335  11.999
60986SOL    HW184855  12.270  11.313  11.980
60986SOL    HW284856  12.184  11.413  12.054
60987SOL     OW84857   7.685   3.611   6.184
60987SOL    HW184858   7.691   3.597   6.089
60987SOL    HW284859   7.603   3.658   6.197
60988SOL     OW84860  12.702   5.738   1.257
60988SOL    HW184861  12.747   5.659   1.227
60988SOL    HW284862  12.630   5.749   1.195
60989SOL     OW84863  12.455   2.207   5.915
60989SOL    HW184864  12.371   2.211   5.869
60989SOL    HW284865  12.435   2.158   5.995
60990SOL     OW84866   1.032   1.299   0.284
60990SOL    HW184867   1.068   1.372   0.334
60990SOL    HW284868   1.092   1.288   0.210
60991SOL     OW84869   8.217   1.927   2.254
60991SOL    HW184870   8.142   1.908   2.198
60991SOL    HW284871   8.276   1.852   2.241
60992SOL     OW84872   8.775  14.671  13.232
60992SOL    HW184873   8.809  14.760  13.229
60992SOL    HW284874   8.852  14.615  13.220
60993SOL     OW84875   5.080   8.297   6.853
60993SOL    HW184876   5.126   8.350   6.918
60993SOL    HW284877   5.065   8.213   6.896
60994SOL     OW84878  14.005   6.427   9.793
60994SOL    HW184879  13.915   6.459   9.788
60994SOL    HW284880  13.997   6.332   9.783
60995SOL     OW84881   4.575  13.697   3.327
60995SOL    HW184882   4.573  13.633   3.398
60995SOL    HW284883   4.488  13.736   3.327
60996SOL     OW84884   5.232  13.178   7.656
60996SOL    HW184885   5.140  13.156   7.670
60996SOL    HW284886   5.243  13.262   7.702
60997SOL     OW84887   3.184   4.842   0.973
60997SOL    HW184888   3.233   4.900   0.915
60997SOL    HW284889   3.104   4.890   0.992
60998SOL     OW84890   0.869   9.551   5.874
60998SOL    HW184891   0.947   9.510   5.911
60998SOL    HW284892   0.823   9.586   5.949
60999SOL     OW84893  12.923   4.545   0.329
60999SOL    HW184894  12.858   4.485   0.365
60999SOL    HW284895  12.893   4.563   0.239
61000SOL     OW84896   8.402  14.080   5.021
61000SOL    HW184897   8.492  14.071   4.991
61000SOL    HW284898   8.349  14.076   4.942
61001SOL     OW84899   8.034   7.012   9.469
61001SOL    HW184900   8.118   6.967   9.461
61001SOL    HW284901   8.052   7.101   9.439
61002SOL     OW84902   8.557  14.488   9.413
61002SOL    HW184903   8.543  14.422   9.346
61002SOL    HW284904   8.583  14.438   9.491
61003SOL     OW84905  10.375   8.083  11.628
61003SOL    HW184906  10.345   8.044  11.546
61003SOL    HW284907  10.303   8.068  11.689
61004SOL     OW84908  14.260   8.836   3.137
61004SOL    HW184909  14.255   8.839   3.041
61004SOL    HW284910  14.176   8.800   3.164
61005SOL     OW84911   7.511   7.454   2.537
61005SOL    HW184912   7.449   7.407   2.480
61005SOL    HW284913   7.587   7.471   2.481
61006SOL     OW84914  12.740  12.296  14.065
61006SOL    HW184915  12.759  12.390  14.056
61006SOL    HW284916  12.736  12.282  14.160
61007SOL     OW84917   1.836  13.003   5.091
61007SOL    HW184918   1.884  13.067   5.038
61007SOL    HW284919   1.904  12.959   5.143
61008SOL     OW84920  11.073   4.764   9.611
61008SOL    HW184921  11.050   4.671   9.615
61008SOL    HW284922  11.100   4.779   9.520
61009SOL     OW84923  13.165   9.984   5.438
61009SOL    HW184924  13.169   9.975   5.533
61009SOL    HW284925  13.080   9.949   5.413
61010SOL     OW84926   0.985  12.492   9.121
61010SOL    HW184927   0.971  12.407   9.163
61010SOL    HW284928   1.007  12.471   9.031
61011SOL     OW84929   6.301   1.655  10.129
61011SOL    HW184930   6.378   1.685  10.178
61011SOL    HW284931   6.234   1.640  10.196
61012SOL     OW84932  12.238  10.667   5.281
61012SOL    HW184933  12.329  10.689   5.300
61012SOL    HW284934  12.237  10.572   5.273
61013SOL     OW84935   6.958   0.975   0.319
61013SOL    HW184936   6.932   0.928   0.397
61013SOL    HW284937   6.879   1.020   0.290
61014SOL     OW84938   3.779   2.300   7.151
61014SOL    HW184939   3.767   2.233   7.084
61014SOL    HW284940   3.767   2.383   7.104
61015SOL     OW84941   5.392  12.396   9.015
61015SOL    HW184942   5.481  12.432   9.013
61015SOL    HW284943   5.358  12.421   9.101
61016SOL     OW84944   1.711   4.450  12.425
61016SOL    HW184945   1.717   4.533  12.473
61016SOL    HW284946   1.802   4.428  12.403
61017SOL     OW84947   2.163   3.491  14.434
61017SOL    HW184948   2.255   3.505  14.456
61017SOL    HW284949   2.131   3.432  14.502
61018SOL     OW84950   2.723   2.910   3.075
61018SOL    HW184951   2.799   2.923   3.132
61018SOL    HW284952   2.648   2.937   3.129
61019SOL     OW84953   1.224  11.365   0.759
61019SOL    HW184954   1.309  11.323   0.744
61019SOL    HW284955   1.207  11.349   0.852
61020SOL     OW84956  12.038  12.405   9.812
61020SOL    HW184957  12.130  12.415   9.788
61020SOL    HW284958  12.034  12.433   9.904
61021SOL     OW84959   4.534   2.308   0.049
61021SOL    HW184960   4.579   2.328   0.131
61021SOL    HW284961   4.594   2.249   0.003
61022SOL     OW84962  11.444   0.150   9.938
61022SOL    HW184963  11.370   0.195   9.978
61022SOL    HW284964  11.421   0.057   9.942
61023SOL     OW84965   7.779   8.178   0.422
61023SOL    HW184966   7.706   8.121   0.444
61023SOL    HW284967   7.803   8.152   0.332
61024SOL     OW84968   0.823  13.879   9.031
61024SOL    HW184969   0.890  13.820   8.999
61024SOL    HW284970   0.863  13.966   9.026
61025SOL     OW84971  13.708   8.472   7.896
61025SOL    HW184972  13.740   8.396   7.945
61025SOL    HW284973  13.701   8.442   7.806
61026SOL     OW84974   8.701   1.532   3.478
61026SOL    HW184975   8.657   1.515   3.395
61026SOL    HW284976   8.783   1.575   3.454
61027SOL     OW84977  10.814   3.289   8.824
61027SOL    HW184978  10.783   3.200   8.842
61027SOL    HW284979  10.822   3.293   8.729
61028SOL     OW84980   2.294   0.897   8.650
61028SOL    HW184981   2.211   0.875   8.692
61028SOL    HW284982   2.271   0.913   8.558
61029SOL     OW84983   2.859   5.970   4.397
61029SOL    HW184984   2.849   5.908   4.325
61029SOL    HW284985   2.949   6.002   4.389
61030SOL     OW84986   5.521  13.383   1.658
61030SOL    HW184987   5.482  13.316   1.713
61030SOL    HW284988   5.602  13.408   1.704
61031SOL     OW84989   5.721   1.681   9.305
61031SOL    HW184990   5.682   1.638   9.381
61031SOL    HW284991   5.662   1.659   9.233
61032SOL     OW84992   2.578   2.364   9.163
61032SOL    HW184993   2.621   2.315   9.233
61032SOL    HW284994   2.570   2.300   9.092
61033SOL     OW84995   1.700  12.205  12.229
61033SOL    HW184996   1.716  12.299  12.220
61033SOL    HW284997   1.663  12.179  12.145
61034SOL     OW84998  10.203   1.640  10.543
61034SOL    HW184999  10.114   1.673  10.531
61034SOL    HW285000  10.233   1.680  10.624
61035SOL     OW85001  13.732   6.710  13.832
61035SOL    HW185002  13.769   6.786  13.788
61035SOL    HW285003  13.654   6.688  13.781
61036SOL     OW85004   1.131  12.116   5.665
61036SOL    HW185005   1.111  12.148   5.577
61036SOL    HW285006   1.226  12.113   5.669
61037SOL     OW85007   4.195   0.854   3.609
61037SOL    HW185008   4.121   0.909   3.633
61037SOL    HW285009   4.159   0.792   3.546
61038SOL     OW85010   4.141   3.473   3.665
61038SOL    HW185011   4.173   3.556   3.630
61038SOL    HW285012   4.199   3.407   3.628
61039SOL     OW85013   1.775   3.925   4.686
61039SOL    HW185014   1.693   3.877   4.697
61039SOL    HW285015   1.787   3.931   4.591
61040SOL     OW85016   0.328  11.588  10.876
61040SOL    HW185017   0.398  11.548  10.927
61040SOL    HW285018   0.373  11.638  10.808
61041SOL     OW85019   5.515  11.212   8.272
61041SOL    HW185020   5.601  11.212   8.229
61041SOL    HW285021   5.478  11.297   8.251
61042SOL     OW85022  13.823   8.429   0.819
61042SOL    HW185023  13.884   8.403   0.888
61042SOL    HW285024  13.746   8.374   0.832
61043SOL     OW85025   9.273  12.106   3.154
61043SOL    HW185026   9.256  12.021   3.114
61043SOL    HW285027   9.366  12.122   3.140
61044SOL     OW85028   0.406   0.354   1.834
61044SOL    HW185029   0.388   0.374   1.742
61044SOL    HW285030   0.342   0.285   1.856
61045SOL     OW85031   3.700   8.323  10.609
61045SOL    HW185032   3.752   8.385  10.558
61045SOL    HW285033   3.624   8.374  10.638
61046SOL     OW85034   9.035   4.732   5.863
61046SOL    HW185035   9.052   4.665   5.929
61046SOL    HW285036   8.968   4.788   5.902
61047SOL     OW85037   3.232  12.916   9.802
61047SOL    HW185038   3.211  12.845   9.742
61047SOL    HW285039   3.323  12.900   9.828
61048SOL     OW85040   1.291  11.000   3.734
61048SOL    HW185041   1.285  10.922   3.680
61048SOL    HW285042   1.225  10.986   3.803
61049SOL     OW85043   3.947   4.731  13.623
61049SOL    HW185044   4.019   4.776  13.667
61049SOL    HW285045   3.989   4.674  13.559
61050SOL     OW85046   5.823   3.819   4.527
61050SOL    HW185047   5.762   3.749   4.506
61050SOL    HW285048   5.791   3.895   4.478
61051SOL     OW85049   7.532  10.655   7.395
61051SOL    HW185050   7.611  10.655   7.340
61051SOL    HW285051   7.519  10.746   7.420
61052SOL     OW85052   3.178  10.015   9.847
61052SOL    HW185053   3.152   9.925   9.825
61052SOL    HW285054   3.097  10.066   9.838
61053SOL     OW85055   3.637  11.059  11.474
61053SOL    HW185056   3.667  11.099  11.393
61053SOL    HW285057   3.545  11.038  11.458
61054SOL     OW85058   6.211   1.157   5.899
61054SOL    HW185059   6.284   1.217   5.883
61054SOL    HW285060   6.146   1.180   5.833
61055SOL     OW85061  14.732   0.806   5.911
61055SOL    HW185062  14.702   0.736   5.853
61055SOL    HW285063  14.812   0.838   5.869
61056SOL     OW85064  12.684  12.754   1.263
61056SOL    HW185065  12.614  12.688   1.264
61056SOL    HW285066  12.764  12.703   1.274
61057SOL     OW85067  13.904   2.348  13.602
61057SOL    HW185068  13.921   2.313  13.514
61057SOL    HW285069  13.831   2.408  13.590
61058SOL     OW85070   6.277  12.459  10.195
61058SOL    HW185071   6.326  12.468  10.277
61058SOL    HW285072   6.208  12.525  10.200
61059SOL     OW85073   0.790   5.669   6.288
61059SOL    HW185074   0.885   5.670   6.276
61059SOL    HW285075   0.773   5.586   6.333
61060SOL     OW85076  10.633   8.321   2.002
61060SOL    HW185077  10.571   8.284   1.939
61060SOL    HW285078  10.605   8.284   2.086
61061SOL     OW85079   6.082   9.379   1.285
61061SOL    HW185080   6.037   9.373   1.201
61061SOL    HW285081   6.175   9.387   1.262
61062SOL     OW85082  10.979  10.260  14.206
61062SOL    HW185083  10.901  10.225  14.250
61062SOL    HW285084  11.007  10.333  14.262
61063SOL     OW85085   3.023   2.062  14.841
61063SOL    HW185086   3.094   2.096   0.026
61063SOL    HW285087   3.030   1.967  14.850
61064SOL     OW85088  11.147   0.723  12.441
61064SOL    HW185089  11.173   0.732  12.349
61064SOL    HW285090  11.225   0.745  12.491
61065SOL     OW85091   0.647  14.227   9.955
61065SOL    HW185092   0.711  14.234   9.884
61065SOL    HW285093   0.609  14.314   9.961
61066SOL     OW85094  11.087  10.418  11.143
61066SOL    HW185095  11.169  10.457  11.113
61066SOL    HW285096  11.019  10.466  11.095
61067SOL     OW85097  12.530   1.433   7.864
61067SOL    HW185098  12.520   1.435   7.959
61067SOL    HW285099  12.512   1.523   7.836
61068SOL     OW85100   6.434   8.416   9.688
61068SOL    HW185101   6.467   8.506   9.693
61068SOL    HW285102   6.476   8.372   9.761
61069SOL     OW85103  10.402   7.140   3.515
61069SOL    HW185104  10.316   7.102   3.535
61069SOL    HW285105  10.381   7.221   3.468
61070SOL     OW85106   8.602  14.422   7.568
61070SOL    HW185107   8.541  14.490   7.540
61070SOL    HW285108   8.622  14.443   7.659
61071SOL     OW85109  14.264  14.640   9.305
61071SOL    HW185110  14.268  14.649   9.400
61071SOL    HW285111  14.356  14.644   9.277
61072SOL     OW85112   1.255   0.123   7.788
61072SOL    HW185113   1.320   0.169   7.735
61072SOL    HW285114   1.247   0.036   7.747
61073SOL     OW85115   7.198  12.368  12.639
61073SOL    HW185116   7.248  12.316  12.702
61073SOL    HW285117   7.263  12.398  12.576
61074SOL     OW85118   1.003   9.876   0.196
61074SOL    HW185119   1.050   9.881   0.280
61074SOL    HW285120   0.911   9.877   0.221
61075SOL     OW85121   4.744   1.159   7.694
61075SOL    HW185122   4.674   1.094   7.706
61075SOL    HW285123   4.821   1.118   7.733
61076SOL     OW85124  13.233  10.021   1.946
61076SOL    HW185125  13.301  10.005   1.880
61076SOL    HW285126  13.228  10.116   1.953
61077SOL     OW85127  14.634   5.798  11.362
61077SOL    HW185128  14.569   5.869  11.363
61077SOL    HW285129  14.664   5.795  11.272
61078SOL     OW85130  11.894  14.393   2.413
61078SOL    HW185131  11.972  14.338   2.409
61078SOL    HW285132  11.831  14.348   2.356
61079SOL     OW85133   0.685  10.598  10.535
61079SOL    HW185134   0.660  10.613  10.626
61079SOL    HW285135   0.639  10.666  10.486
61080SOL     OW85136   4.729   1.249   5.968
61080SOL    HW185137   4.639   1.219   5.981
61080SOL    HW285138   4.762   1.267   6.056
61081SOL     OW85139   6.586   1.628   1.939
61081SOL    HW185140   6.572   1.548   1.889
61081SOL    HW285141   6.649   1.604   2.007
61082SOL     OW85142  13.217   7.962   6.170
61082SOL    HW185143  13.142   7.904   6.156
61082SOL    HW285144  13.260   7.965   6.084
61083SOL     OW85145  12.908  11.958   5.204
61083SOL    HW185146  12.853  11.886   5.174
61083SOL    HW285147  12.858  12.037   5.183
61084SOL     OW85148   0.144   5.504  12.765
61084SOL    HW185149   0.180   5.586  12.800
61084SOL    HW285150   0.073   5.481  12.826
61085SOL     OW85151   6.054   5.929   7.415
61085SOL    HW185152   6.068   6.014   7.373
61085SOL    HW285153   6.139   5.885   7.407
61086SOL     OW85154  14.305   6.972   0.269
61086SOL    HW185155  14.241   6.923   0.320
61086SOL    HW285156  14.261   7.054   0.247
61087SOL     OW85157   8.358  13.603   5.691
61087SOL    HW185158   8.406  13.563   5.763
61087SOL    HW285159   8.380  13.550   5.615
61088SOL     OW85160   7.198   0.121   3.310
61088SOL    HW185161   7.244   0.102   3.229
61088SOL    HW285162   7.265   0.113   3.378
61089SOL     OW85163   5.463  10.005  11.508
61089SOL    HW185164   5.430  10.091  11.481
61089SOL    HW285165   5.517   9.976  11.434
61090SOL     OW85166   0.464   5.915  14.508
61090SOL    HW185167   0.519   5.885  14.436
61090SOL    HW285168   0.485   6.008  14.516
61091SOL     OW85169   8.889  14.746   0.455
61091SOL    HW185170   8.854  14.697   0.530
61091SOL    HW285171   8.978  14.769   0.481
61092SOL     OW85172  12.920   8.068   1.869
61092SOL    HW185173  12.932   8.007   1.796
61092SOL    HW285174  12.995   8.128   1.862
61093SOL     OW85175   2.185  14.667   3.745
61093SOL    HW185176   2.165  14.588   3.797
61093SOL    HW285177   2.279  14.660   3.726
61094SOL     OW85178  10.972   6.967   5.640
61094SOL    HW185179  11.056   7.010   5.620
61094SOL    HW285180  10.986   6.875   5.619
61095SOL     OW85181   0.157   0.940   1.152
61095SOL    HW185182   0.180   1.023   1.193
61095SOL    HW285183   0.068   0.953   1.119
61096SOL     OW85184   3.294   5.770   2.424
61096SOL    HW185185   3.354   5.725   2.365
61096SOL    HW285186   3.351   5.819   2.484
61097SOL     OW85187   9.315   2.211  14.104
61097SOL    HW185188   9.285   2.121  14.121
61097SOL    HW285189   9.372   2.231  14.179
61098SOL     OW85190   5.468   5.586   9.000
61098SOL    HW185191   5.442   5.606   9.090
61098SOL    HW285192   5.559   5.557   9.008
61099SOL     OW85193   0.393   2.080   8.017
61099SOL    HW185194   0.319   2.075   7.956
61099SOL    HW285195   0.433   2.165   8.000
61100SOL     OW85196   6.573   5.284   2.619
61100SOL    HW185197   6.503   5.340   2.584
61100SOL    HW285198   6.527   5.218   2.671
61101SOL     OW85199  10.391  11.101   0.652
61101SOL    HW185200  10.485  11.111   0.667
61101SOL    HW285201  10.362  11.041   0.721
61102SOL     OW85202   7.328  12.856   6.854
61102SOL    HW185203   7.365  12.886   6.771
61102SOL    HW285204   7.277  12.779   6.832
61103SOL     OW85205   3.840   4.704   9.028
61103SOL    HW185206   3.774   4.635   9.027
61103SOL    HW285207   3.845   4.734   8.937
61104SOL     OW85208   0.474   9.369   7.919
61104SOL    HW185209   0.485   9.283   7.878
61104SOL    HW285210   0.439   9.425   7.850
61105SOL     OW85211  10.936  10.021  13.024
61105SOL    HW185212  10.990   9.953  13.063
61105SOL    HW285213  10.987  10.052  12.949
61106SOL     OW85214   3.948   6.263   9.402
61106SOL    HW185215   3.951   6.270   9.497
61106SOL    HW285216   4.021   6.317   9.371
61107SOL     OW85217   9.981  14.004   1.793
61107SOL    HW185218  10.012  13.990   1.883
61107SOL    HW285219   9.999  13.922   1.749
61108SOL     OW85220   2.849   3.213  13.381
61108SOL    HW185221   2.853   3.138  13.322
61108SOL    HW285222   2.900   3.281  13.338
61109SOL     OW85223   9.296  14.773   8.488
61109SOL    HW185224   9.348  14.739   8.416
61109SOL    HW285225   9.273  14.862   8.461
61110SOL     OW85226  11.281  12.520   2.697
61110SOL    HW185227  11.307  12.570   2.774
61110SOL    HW285228  11.273  12.430   2.728
61111SOL     OW85229   3.843   0.375   2.318
61111SOL    HW185230   3.809   0.457   2.356
61111SOL    HW285231   3.930   0.399   2.286
61112SOL     OW85232   6.697   5.549  10.822
61112SOL    HW185233   6.671   5.563  10.913
61112SOL    HW285234   6.760   5.477  10.826
61113SOL     OW85235  11.887  12.178   3.411
61113SOL    HW185236  11.931  12.106   3.365
61113SOL    HW285237  11.825  12.135   3.469
61114SOL     OW85238   8.011  10.799   0.614
61114SOL    HW185239   7.937  10.742   0.592
61114SOL    HW285240   8.044  10.831   0.530
61115SOL     OW85241   2.814   8.689   4.082
61115SOL    HW185242   2.865   8.742   4.021
61115SOL    HW285243   2.760   8.633   4.027
61116SOL     OW85244   9.046   3.588   1.423
61116SOL    HW185245   9.029   3.531   1.498
61116SOL    HW285246   8.961   3.599   1.381
61117SOL     OW85247   2.230   3.520  12.212
61117SOL    HW185248   2.180   3.589  12.168
61117SOL    HW285249   2.250   3.557  12.298
61118SOL     OW85250   6.163   9.773  10.704
61118SOL    HW185251   6.122   9.727  10.630
61118SOL    HW285252   6.094   9.832  10.735
61119SOL     OW85253   8.825   6.986   5.609
61119SOL    HW185254   8.785   7.031   5.535
61119SOL    HW285255   8.785   7.026   5.686
61120SOL     OW85256   2.545  13.617  10.143
61120SOL    HW185257   2.552  13.584  10.233
61120SOL    HW285258   2.622  13.581  10.098
61121SOL     OW85259   7.422  12.431  12.476
61121SOL    HW185260   7.431  12.375  12.398
61121SOL    HW285261   7.493  12.402  12.534
61122SOL     OW85262   4.059  14.568  10.788
61122SOL    HW185263   4.087  14.556  10.878
61122SOL    HW285264   4.005  14.647  10.790
61123SOL     OW85265   2.064  10.083   1.242
61123SOL    HW185266   2.102  10.134   1.314
61123SOL    HW285267   2.137  10.072   1.180
61124SOL     OW85268   8.337   4.951  14.794
61124SOL    HW185269   8.252   4.986  14.768
61124SOL    HW285270   8.349   4.980   0.014
61125SOL     OW85271   8.477   7.170  11.909
61125SOL    HW185272   8.531   7.207  11.839
61125SOL    HW285273   8.507   7.080  11.917
61126SOL     OW85274   6.271  10.398   0.185
61126SOL    HW185275   6.318  10.434   0.261
61126SOL    HW285276   6.212  10.332   0.223
61127SOL     OW85277   7.950  14.672   0.964
61127SOL    HW185278   7.857  14.688   0.949
61127SOL    HW285279   7.989  14.759   0.972
61128SOL     OW85280   3.335   4.429   9.263
61128SOL    HW185281   3.377   4.510   9.235
61128SOL    HW285282   3.322   4.379   9.183
61129SOL     OW85283   1.639  14.165   0.727
61129SOL    HW185284   1.547  14.166   0.752
61129SOL    HW285285   1.639  14.180   0.633
61130SOL     OW85286   0.026   5.687   8.377
61130SOL    HW185287   0.032   5.714   8.285
61130SOL    HW285288   0.081   5.750   8.424
61131SOL     OW85289   5.084   3.061  11.984
61131SOL    HW185290   5.171   3.022  11.996
61131SOL    HW285291   5.061   3.094  12.071
61132SOL     OW85292   7.100   8.216   3.634
61132SOL    HW185293   7.038   8.146   3.613
61132SOL    HW285294   7.139   8.189   3.717
61133SOL     OW85295   9.805  11.559  11.935
61133SOL    HW185296   9.719  11.560  11.892
61133SOL    HW285297   9.793  11.613  12.013
61134SOL     OW85298   8.303   2.859   5.162
61134SOL    HW185299   8.246   2.896   5.095
61134SOL    HW285300   8.265   2.773   5.181
61135SOL     OW85301  12.174  12.890   6.570
61135SOL    HW185302  12.193  12.798   6.588
61135SOL    HW285303  12.249  12.938   6.606
61136SOL     OW85304   7.092   9.805   1.676
61136SOL    HW185305   7.153   9.814   1.603
61136SOL    HW285306   7.145   9.819   1.754
61137SOL     OW85307   2.919   1.102   1.053
61137SOL    HW185308   2.861   1.025   1.056
61137SOL    HW285309   2.861   1.176   1.073
61138SOL     OW85310   2.337   2.729  10.662
61138SOL    HW185311   2.329   2.731  10.758
61138SOL    HW285312   2.429   2.708  10.646
61139SOL     OW85313   2.263   8.681   1.703
61139SOL    HW185314   2.229   8.604   1.748
61139SOL    HW285315   2.193   8.746   1.710
61140SOL     OW85316   4.579   6.343   1.543
61140SOL    HW185317   4.617   6.431   1.535
61140SOL    HW285318   4.654   6.288   1.568
61141SOL     OW85319   6.299   0.720   0.064
61141SOL    HW185320   6.336   0.793   0.114
61141SOL    HW285321   6.317   0.742  14.842
61142SOL     OW85322  12.000   1.020  11.915
61142SOL    HW185323  12.039   0.995  11.831
61142SOL    HW285324  11.906   1.006  11.902
61143SOL     OW85325  10.862  11.323   2.262
61143SOL    HW185326  10.840  11.306   2.354
61143SOL    HW285327  10.822  11.251   2.214
61144SOL     OW85328  14.350   7.546  14.210
61144SOL    HW185329  14.317   7.577  14.294
61144SOL    HW285330  14.278   7.564  14.149
61145SOL     OW85331   2.179   1.336  13.760
61145SOL    HW185332   2.157   1.358  13.669
61145SOL    HW285333   2.096   1.343  13.808
61146SOL     OW85334   5.280   6.172  12.001
61146SOL    HW185335   5.222   6.100  11.976
61146SOL    HW285336   5.319   6.143  12.084
61147SOL     OW85337   1.532   3.748   3.924
61147SOL    HW185338   1.511   3.655   3.919
61147SOL    HW285339   1.479   3.788   3.855
61148SOL     OW85340   9.282   9.049   1.653
61148SOL    HW185341   9.204   8.996   1.666
61148SOL    HW285342   9.274   9.120   1.717
61149SOL     OW85343  14.247  13.699  12.196
61149SOL    HW185344  14.309  13.768  12.173
61149SOL    HW285345  14.262  13.683  12.290
61150SOL     OW85346   9.907   3.913   6.515
61150SOL    HW185347   9.921   4.001   6.549
61150SOL    HW285348   9.962   3.857   6.570
61151SOL     OW85349  13.002   9.897   4.362
61151SOL    HW185350  13.089   9.937   4.368
61151SOL    HW285351  12.947   9.951   4.420
61152SOL     OW85352  12.659   5.704   5.560
61152SOL    HW185353  12.582   5.648   5.570
61152SOL    HW285354  12.721   5.652   5.509
61153SOL     OW85355  12.002  12.842  13.131
61153SOL    HW185356  12.010  12.930  13.093
61153SOL    HW285357  11.955  12.792  13.064
61154SOL     OW85358   2.422   9.705  12.093
61154SOL    HW185359   2.417   9.626  12.039
61154SOL    HW285360   2.349   9.759  12.062
61155SOL     OW85361  13.821  13.898   2.307
61155SOL    HW185362  13.879  13.943   2.246
61155SOL    HW285363  13.835  13.805   2.289
61156SOL     OW85364  11.000   0.310   8.697
61156SOL    HW185365  11.019   0.293   8.605
61156SOL    HW285366  10.915   0.270   8.712
61157SOL     OW85367  10.758   6.646  10.568
61157SOL    HW185368  10.797   6.578  10.622
61157SOL    HW285369  10.669   6.616  10.552
61158SOL     OW85370   1.504   7.694   6.684
61158SOL    HW185371   1.459   7.738   6.756
61158SOL    HW285372   1.486   7.748   6.607
61159SOL     OW85373  10.425   7.895   3.188
61159SOL    HW185374  10.333   7.904   3.166
61159SOL    HW285375  10.472   7.928   3.111
61160SOL     OW85376   9.795  12.987  10.123
61160SOL    HW185377   9.770  12.950  10.038
61160SOL    HW285378   9.890  12.998  10.117
61161SOL     OW85379   1.372   5.781   1.538
61161SOL    HW185380   1.364   5.875   1.522
61161SOL    HW285381   1.316   5.764   1.613
61162SOL     OW85382   9.320   0.203   9.116
61162SOL    HW185383   9.240   0.254   9.123
61162SOL    HW285384   9.389   0.268   9.103
61163SOL     OW85385   0.893   0.865   1.966
61163SOL    HW185386   0.823   0.801   1.983
61163SOL    HW285387   0.910   0.857   1.872
61164SOL     OW85388  13.473   1.622   8.286
61164SOL    HW185389  13.442   1.665   8.206
61164SOL    HW285390  13.565   1.649   8.293
61165SOL     OW85391  12.236  11.004  10.646
61165SOL    HW185392  12.229  10.959  10.731
61165SOL    HW285393  12.329  10.998  10.623
61166SOL     OW85394  12.865  11.072  10.088
61166SOL    HW185395  12.789  11.073  10.029
61166SOL    HW285396  12.834  11.028  10.167
61167SOL     OW85397  13.453   6.808   5.676
61167SOL    HW185398  13.360   6.824   5.691
61167SOL    HW285399  13.482   6.881   5.621
61168SOL     OW85400   1.202  13.163   8.089
61168SOL    HW185401   1.125  13.130   8.042
61168SOL    HW285402   1.227  13.090   8.147
61169SOL     OW85403   8.590   1.758   2.477
61169SOL    HW185404   8.627   1.791   2.559
61169SOL    HW285405   8.524   1.694   2.505
61170SOL     OW85406   4.650   9.626   1.869
61170SOL    HW185407   4.646   9.713   1.910
61170SOL    HW285408   4.729   9.586   1.906
61171SOL     OW85409   2.660   1.701  10.475
61171SOL    HW185410   2.668   1.649  10.554
61171SOL    HW285411   2.750   1.720  10.449
61172SOL     OW85412   2.203   0.986  11.107
61172SOL    HW185413   2.295   0.983  11.132
61172SOL    HW285414   2.191   0.909  11.051
61173SOL     OW85415   9.317   8.345   0.232
61173SOL    HW185416   9.334   8.346   0.327
61173SOL    HW285417   9.221   8.349   0.225
61174SOL     OW85418   9.726  14.415   6.830
61174SOL    HW185419   9.792  14.364   6.877
61174SOL    HW285420   9.707  14.489   6.888
61175SOL     OW85421  13.643  14.866  12.341
61175SOL    HW185422  13.598   0.075  12.371
61175SOL    HW285423  13.673   0.018  12.252
61176SOL     OW85424   0.341   8.019   1.007
61176SOL    HW185425   0.350   7.999   0.913
61176SOL    HW285426   0.354   7.935   1.050
61177SOL     OW85427  10.263   6.265   8.541
61177SOL    HW185428  10.175   6.276   8.504
61177SOL    HW285429  10.266   6.327   8.614
61178SOL     OW85430   5.751   1.080  11.045
61178SOL    HW185431   5.765   1.027  11.124
61178SOL    HW285432   5.666   1.122  11.060
61179SOL     OW85433   0.553  11.576   5.945
61179SOL    HW185434   0.463  11.607   5.940
61179SOL    HW285435   0.571  11.540   5.858
61180SOL     OW85436   4.957   7.998   5.909
61180SOL    HW185437   4.942   8.007   5.815
61180SOL    HW285438   4.935   7.906   5.928
61181SOL     OW85439  11.499   7.094  13.332
61181SOL    HW185440  11.581   7.066  13.373
61181SOL    HW285441  11.433   7.080  13.400
61182SOL     OW85442   0.496   3.183   7.105
61182SOL    HW185443   0.500   3.234   7.024
61182SOL    HW285444   0.553   3.231   7.166
61183SOL     OW85445  11.103   7.521   7.859
61183SOL    HW185446  11.061   7.533   7.774
61183SOL    HW285447  11.031   7.508   7.920
61184SOL     OW85448   8.301   9.904  14.125
61184SOL    HW185449   8.356   9.961  14.071
61184SOL    HW285450   8.363   9.854  14.178
61185SOL     OW85451   9.069  12.862  14.609
61185SOL    HW185452   9.149  12.906  14.639
61185SOL    HW285453   9.017  12.851  14.688
61186SOL     OW85454  13.849  10.933   3.673
61186SOL    HW185455  13.754  10.945   3.669
61186SOL    HW285456  13.860  10.848   3.716
61187SOL     OW85457  10.569  11.832  13.726
61187SOL    HW185458  10.568  11.737  13.718
61187SOL    HW285459  10.585  11.848  13.819
61188SOL     OW85460  10.141   2.316   7.667
61188SOL    HW185461  10.177   2.256   7.601
61188SOL    HW285462  10.181   2.401   7.646
61189SOL     OW85463  14.621  12.919   6.802
61189SOL    HW185464  14.683  12.905   6.730
61189SOL    HW285465  14.640  12.849   6.865
61190SOL     OW85466   3.210  12.150   9.534
61190SOL    HW185467   3.188  12.138   9.442
61190SOL    HW285468   3.125  12.164   9.577
61191SOL     OW85469  12.834   0.550   9.153
61191SOL    HW185470  12.793   0.597   9.081
61191SOL    HW285471  12.899   0.611   9.188
61192SOL     OW85472   3.339   9.935  10.907
61192SOL    HW185473   3.252   9.898  10.918
61192SOL    HW285474   3.397   9.859  10.897
61193SOL     OW85475   5.604   8.726   9.130
61193SOL    HW185476   5.604   8.632   9.116
61193SOL    HW285477   5.675   8.759   9.074
61194SOL     OW85478   9.334  14.686   7.088
61194SOL    HW185479   9.280  14.624   7.039
61194SOL    HW285480   9.330  14.655   7.178
61195SOL     OW85481   7.443   1.286  11.457
61195SOL    HW185482   7.402   1.366  11.424
61195SOL    HW285483   7.369   1.231  11.483
61196SOL     OW85484  11.589  12.344  12.602
61196SOL    HW185485  11.615  12.387  12.520
61196SOL    HW285486  11.495  12.358  12.607
61197SOL     OW85487  12.048  10.614  12.390
61197SOL    HW185488  12.048  10.652  12.302
61197SOL    HW285489  12.139  10.589  12.405
61198SOL     OW85490  11.133  11.769   2.087
61198SOL    HW185491  11.068  11.736   2.024
61198SOL    HW285492  11.184  11.691   2.111
61199SOL     OW85493  12.571   2.551   3.939
61199SOL    HW185494  12.623   2.613   3.991
61199SOL    HW285495  12.577   2.586   3.849
61200SOL     OW85496   6.543  13.823   5.737
61200SOL    HW185497   6.552  13.838   5.643
61200SOL    HW285498   6.532  13.911   5.774
61201SOL     OW85499   4.492  12.977   1.824
61201SOL    HW185500   4.563  13.042   1.826
61201SOL    HW285501   4.490  12.941   1.912
61202SOL     OW85502   8.656  11.792   8.094
61202SOL    HW185503   8.744  11.789   8.057
61202SOL    HW285504   8.598  11.768   8.022
61203SOL     OW85505  13.560   5.362   7.834
61203SOL    HW185506  13.474   5.403   7.826
61203SOL    HW285507  13.555   5.313   7.917
61204SOL     OW85508   7.451   7.051   6.307
61204SOL    HW185509   7.385   7.121   6.307
61204SOL    HW285510   7.409   6.979   6.259
61205SOL     OW85511  10.502   0.220   0.465
61205SOL    HW185512  10.513   0.250   0.555
61205SOL    HW285513  10.568   0.152   0.454
61206SOL     OW85514   1.069  12.070   1.298
61206SOL    HW185515   0.975  12.078   1.283
61206SOL    HW285516   1.088  12.132   1.369
61207SOL     OW85517  12.211   5.731   4.576
61207SOL    HW185518  12.301   5.735   4.609
61207SOL    HW285519  12.176   5.818   4.592
61208SOL     OW85520   7.914  12.578   8.386
61208SOL    HW185521   7.879  12.551   8.302
61208SOL    HW285522   8.008  12.561   8.380
61209SOL     OW85523  12.961   6.750   1.223
61209SOL    HW185524  12.931   6.763   1.133
61209SOL    HW285525  12.881   6.742   1.274
61210SOL     OW85526   9.897   4.427   0.183
61210SOL    HW185527   9.826   4.457   0.239
61210SOL    HW285528   9.971   4.414   0.244
61211SOL     OW85529  12.241   8.465   1.644
61211SOL    HW185530  12.268   8.475   1.735
61211SOL    HW285531  12.310   8.410   1.605
61212SOL     OW85532   7.108   6.328   3.549
61212SOL    HW185533   7.059   6.289   3.477
61212SOL    HW285534   7.187   6.274   3.557
61213SOL     OW85535   0.896  13.478   6.021
61213SOL    HW185536   0.926  13.511   6.105
61213SOL    HW285537   0.836  13.407   6.042
61214SOL     OW85538   4.356   0.996   1.571
61214SOL    HW185539   4.439   1.011   1.618
61214SOL    HW285540   4.359   1.057   1.498
61215SOL     OW85541   1.667   1.330   5.191
61215SOL    HW185542   1.746   1.302   5.145
61215SOL    HW285543   1.608   1.360   5.122
61216SOL     OW85544   8.129   7.390   8.122
61216SOL    HW185545   8.053   7.435   8.083
61216SOL    HW285546   8.186   7.371   8.047
61217SOL     OW85547   5.931  11.150   3.638
61217SOL    HW185548   5.918  11.179   3.548
61217SOL    HW285549   5.981  11.220   3.680
61218SOL     OW85550   1.803  11.020   7.575
61218SOL    HW185551   1.849  10.998   7.656
61218SOL    HW285552   1.852  10.976   7.506
61219SOL     OW85553   3.280  14.649  11.118
61219SOL    HW185554   3.254  14.564  11.085
61219SOL    HW285555   3.199  14.701  11.115
61220SOL     OW85556   4.760   9.186   2.137
61220SOL    HW185557   4.724   9.121   2.077
61220SOL    HW285558   4.823   9.138   2.191
61221SOL     OW85559   0.777   8.670   8.228
61221SOL    HW185560   0.782   8.616   8.149
61221SOL    HW285561   0.736   8.613   8.293
61222SOL     OW85562   6.945  13.265   0.276
61222SOL    HW185563   6.903  13.309   0.350
61222SOL    HW285564   6.951  13.174   0.303
61223SOL     OW85565   4.257   1.785   3.115
61223SOL    HW185566   4.348   1.760   3.099
61223SOL    HW285567   4.260   1.880   3.127
61224SOL     OW85568   9.127   6.290   4.079
61224SOL    HW185569   9.122   6.217   4.141
61224SOL    HW285570   9.139   6.248   3.994
61225SOL     OW85571   1.987  10.813   0.094
61225SOL    HW185572   2.021  10.769   0.016
61225SOL    HW285573   1.895  10.830   0.074
61226SOL     OW85574   1.636  12.056   7.732
61226SOL    HW185575   1.670  12.031   7.818
61226SOL    HW285576   1.711  12.090   7.685
61227SOL     OW85577   6.209   6.454   4.887
61227SOL    HW185578   6.297   6.483   4.861
61227SOL    HW285579   6.150   6.505   4.831
61228SOL     OW85580  14.007  13.146   6.441
61228SOL    HW185581  13.987  13.080   6.509
61228SOL    HW285582  14.098  13.130   6.418
61229SOL     OW85583   4.204  12.443   5.805
61229SOL    HW185584   4.235  12.361   5.845
61229SOL    HW285585   4.273  12.506   5.825
61230SOL     OW85586  14.812   5.701   4.353
61230SOL    HW185587  14.720   5.686   4.375
61230SOL    HW285588  14.822   5.796   4.355
61231SOL     OW85589   0.098   6.586   8.030
61231SOL    HW185590   0.060   6.505   7.998
61231SOL    HW285591   0.032   6.653   8.013
61232SOL     OW85592  13.557  13.088   0.976
61232SOL    HW185593  13.529  13.053   0.892
61232SOL    HW285594  13.638  13.135   0.957
61233SOL     OW85595   9.910  10.191   8.230
61233SOL    HW185596   9.874  10.176   8.143
61233SOL    HW285597   9.842  10.159   8.290
61234SOL     OW85598   8.485  13.767  10.745
61234SOL    HW185599   8.460  13.843  10.797
61234SOL    HW285600   8.405  13.714  10.740
61235SOL     OW85601   3.862   3.182   0.146
61235SOL    HW185602   3.819   3.193   0.231
61235SOL    HW285603   3.814   3.112   0.103
61236SOL     OW85604  12.982   8.870  12.936
61236SOL    HW185605  12.953   8.794  12.886
61236SOL    HW285606  13.053   8.836  12.991
61237SOL     OW85607  12.586  13.079  13.556
61237SOL    HW185608  12.616  13.153  13.608
61237SOL    HW285609  12.521  13.117  13.496
61238SOL     OW85610  14.167  10.474   2.278
61238SOL    HW185611  14.194  10.402   2.221
61238SOL    HW285612  14.213  10.459   2.360
61239SOL     OW85613   7.947   1.773   7.478
61239SOL    HW185614   7.867   1.801   7.434
61239SOL    HW285615   7.993   1.855   7.498
61240SOL     OW85616   7.767   2.814  11.239
61240SOL    HW185617   7.683   2.841  11.200
61240SOL    HW285618   7.768   2.719  11.229
61241SOL     OW85619   0.495  11.962  11.482
61241SOL    HW185620   0.415  12.001  11.519
61241SOL    HW285621   0.510  12.010  11.401
61242SOL     OW85622   7.506   3.002   2.028
61242SOL    HW185623   7.527   2.910   2.044
61242SOL    HW285624   7.456   3.029   2.105
61243SOL     OW85625   2.318   3.952   5.091
61243SOL    HW185626   2.340   4.010   5.164
61243SOL    HW285627   2.354   3.996   5.014
61244SOL     OW85628   1.946  14.239   6.199
61244SOL    HW185629   1.895  14.207   6.125
61244SOL    HW285630   1.883  14.289   6.251
61245SOL     OW85631  14.523  12.950   1.658
61245SOL    HW185632  14.534  13.016   1.727
61245SOL    HW285633  14.533  12.999   1.576
61246SOL     OW85634   1.549   5.888   3.358
61246SOL    HW185635   1.547   5.967   3.412
61246SOL    HW285636   1.502   5.913   3.278
61247SOL     OW85637   5.550   1.291   6.743
61247SOL    HW185638   5.456   1.278   6.756
61247SOL    HW285639   5.588   1.279   6.830
61248SOL     OW85640   3.300   6.506   8.841
61248SOL    HW185641   3.359   6.514   8.916
61248SOL    HW285642   3.220   6.468   8.878
61249SOL     OW85643   6.436   1.221   0.033
61249SOL    HW185644   6.505   1.181   0.086
61249SOL    HW285645   6.376   1.148   0.014
61250SOL     OW85646   8.936  12.849   1.228
61250SOL    HW185647   9.015  12.806   1.197
61250SOL    HW285648   8.865  12.804   1.182
61251SOL     OW85649   6.483   7.601   9.579
61251SOL    HW185650   6.536   7.666   9.534
61251SOL    HW285651   6.518   7.517   9.550
61252SOL     OW85652   6.764   7.739  14.077
61252SOL    HW185653   6.850   7.729  14.036
61252SOL    HW285654   6.782   7.787  14.159
61253SOL     OW85655  10.702   6.769   9.013
61253SOL    HW185656  10.656   6.774   8.929
61253SOL    HW285657  10.679   6.682   9.048
61254SOL     OW85658   5.511  11.631  14.396
61254SOL    HW185659   5.509  11.725  14.380
61254SOL    HW285660   5.424  11.600  14.369
61255SOL     OW85661   5.169   0.591   6.968
61255SOL    HW185662   5.210   0.676   6.952
61255SOL    HW285663   5.186   0.573   7.060
61256SOL     OW85664   9.939   7.814  13.551
61256SOL    HW185665   9.925   7.900  13.590
61256SOL    HW285666   9.851   7.785  13.526
61257SOL     OW85667   6.734   6.473   3.496
61257SOL    HW185668   6.649   6.429   3.492
61257SOL    HW285669   6.787   6.418   3.554
61258SOL     OW85670   9.432   1.401  11.974
61258SOL    HW185671   9.364   1.462  11.945
61258SOL    HW285672   9.471   1.369  11.892
61259SOL     OW85673  10.676   4.483   9.104
61259SOL    HW185674  10.689   4.569   9.144
61259SOL    HW285675  10.710   4.421   9.169
61260SOL     OW85676   3.444   2.165   6.102
61260SOL    HW185677   3.516   2.134   6.157
61260SOL    HW285678   3.410   2.087   6.060
61261SOL     OW85679   6.706   6.678   3.841
61261SOL    HW185680   6.661   6.593   3.836
61261SOL    HW285681   6.669   6.719   3.919
61262SOL     OW85682   4.662   4.956   2.966
61262SOL    HW185683   4.665   4.874   2.918
61262SOL    HW285684   4.727   5.012   2.922
61263SOL     OW85685   0.114   9.988  10.501
61263SOL    HW185686   0.144   9.983  10.411
61263SOL    HW285687   0.049  10.057  10.501
61264SOL     OW85688   6.227  11.275   5.741
61264SOL    HW185689   6.163  11.317   5.799
61264SOL    HW285690   6.193  11.186   5.729
61265SOL     OW85691   6.818   6.929   3.042
61265SOL    HW185692   6.849   6.877   3.116
61265SOL    HW285693   6.724   6.938   3.057
61266SOL     OW85694  12.518  14.540   3.008
61266SOL    HW185695  12.557  14.494   3.083
61266SOL    HW285696  12.558  14.627   3.009
61267SOL     OW85697   7.114   6.706   8.784
61267SOL    HW185698   7.139   6.783   8.732
61267SOL    HW285699   7.056   6.656   8.726
61268SOL     OW85700  12.677  12.321  14.603
61268SOL    HW185701  12.730  12.391  14.641
61268SOL    HW285702  12.587  12.352  14.613
61269SOL     OW85703   3.384   5.140   3.130
61269SOL    HW185704   3.426   5.092   3.201
61269SOL    HW285705   3.294   5.108   3.129
61270SOL     OW85706  13.787   9.778   8.814
61270SOL    HW185707  13.802   9.839   8.742
61270SOL    HW285708  13.758   9.832   8.887
61271SOL     OW85709   7.098  10.818  12.889
61271SOL    HW185710   7.012  10.805  12.849
61271SOL    HW285711   7.123  10.732  12.921
61272SOL     OW85712   2.434   6.481  12.993
61272SOL    HW185713   2.484   6.519  12.921
61272SOL    HW285714   2.402   6.557  13.042
61273SOL     OW85715  12.495   1.998   6.612
61273SOL    HW185716  12.526   2.089   6.614
61273SOL    HW285717  12.507   1.972   6.521
61274SOL     OW85718   1.922  11.051   3.422
61274SOL    HW185719   1.922  11.095   3.337
61274SOL    HW285720   1.984  10.978   3.411
61275SOL     OW85721  14.536  11.481   8.751
61275SOL    HW185722  14.473  11.551   8.770
61275SOL    HW285723  14.589  11.515   8.679
61276SOL     OW85724   2.601   4.623  12.221
61276SOL    HW185725   2.639   4.632  12.134
61276SOL    HW285726   2.578   4.713  12.246
61277SOL     OW85727  14.221   7.376  14.823
61277SOL    HW185728  14.132   7.358  14.856
61277SOL    HW285729  14.210   7.390  14.729
61278SOL     OW85730  10.079  12.975  11.514
61278SOL    HW185731  10.060  13.036  11.443
61278SOL    HW285732  10.167  13.000  11.544
61279SOL     OW85733   7.011  13.610   3.038
61279SOL    HW185734   6.945  13.662   3.083
61279SOL    HW285735   7.083  13.602   3.101
61280SOL     OW85736   1.511   4.068   5.927
61280SOL    HW185737   1.458   4.007   5.978
61280SOL    HW285738   1.559   4.118   5.992
61281SOL     OW85739   1.733   8.860  10.245
61281SOL    HW185740   1.735   8.955  10.237
61281SOL    HW285741   1.824   8.836  10.263
61282SOL     OW85742   6.647   8.920  14.321
61282SOL    HW185743   6.723   8.919  14.379
61282SOL    HW285744   6.630   9.013  14.306
61283SOL     OW85745  10.221  11.432  11.044
61283SOL    HW185746  10.178  11.445  10.960
61283SOL    HW285747  10.214  11.337  11.060
61284SOL     OW85748   9.226  13.402   2.189
61284SOL    HW185749   9.249  13.335   2.124
61284SOL    HW285750   9.275  13.479   2.162
61285SOL     OW85751  13.313  11.734   3.226
61285SOL    HW185752  13.304  11.778   3.142
61285SOL    HW285753  13.247  11.664   3.223
61286SOL     OW85754  13.110   3.532   3.398
61286SOL    HW185755  13.113   3.530   3.494
61286SOL    HW285756  13.192   3.491   3.371
61287SOL     OW85757  10.805   3.480   4.812
61287SOL    HW185758  10.869   3.471   4.883
61287SOL    HW285759  10.819   3.569   4.778
61288SOL     OW85760   0.620   7.233  14.151
61288SOL    HW185761   0.682   7.306  14.150
61288SOL    HW285762   0.577   7.236  14.066
61289SOL     OW85763  14.776   7.020  12.766
61289SOL    HW185764  14.821   7.023  12.850
61289SOL    HW285765  14.724   7.100  12.763
61290SOL     OW85766  12.810  13.141   3.562
61290SOL    HW185767  12.748  13.103   3.499
61290SOL    HW285768  12.755  13.192   3.621
61291SOL     OW85769   0.251   1.133   9.674
61291SOL    HW185770   0.268   1.102   9.585
61291SOL    HW285771   0.337   1.130   9.717
61292SOL     OW85772  12.229   7.825  12.059
61292SOL    HW185773  12.185   7.909  12.074
61292SOL    HW285774  12.157   7.761  12.051
61293SOL     OW85775   7.488   1.066   8.032
61293SOL    HW185776   7.527   1.144   7.991
61293SOL    HW285777   7.402   1.058   7.991
61294SOL     OW85778   1.132   2.137   4.426
61294SOL    HW185779   1.050   2.137   4.377
61294SOL    HW285780   1.173   2.052   4.405
61295SOL     OW85781   8.932   2.205   9.675
61295SOL    HW185782   8.852   2.210   9.726
61295SOL    HW285783   8.905   2.226   9.586
61296SOL     OW85784   2.077   9.286   2.777
61296SOL    HW185785   2.046   9.323   2.860
61296SOL    HW285786   2.025   9.207   2.765
61297SOL     OW85787  14.015   3.194  14.336
61297SOL    HW185788  14.059   3.135  14.275
61297SOL    HW285789  14.086   3.240  14.381
61298SOL     OW85790   9.087   5.794  12.510
61298SOL    HW185791   9.056   5.721  12.457
61298SOL    HW285792   9.050   5.871  12.469
61299SOL     OW85793   5.509  12.480  12.671
61299SOL    HW185794   5.576  12.427  12.716
61299SOL    HW285795   5.470  12.421  12.608
61300SOL     OW85796  11.086   6.959  13.919
61300SOL    HW185797  11.064   6.908  13.997
61300SOL    HW285798  11.013   6.942  13.859
61301SOL     OW85799   0.348   1.251  10.436
61301SOL    HW185800   0.432   1.205  10.434
61301SOL    HW285801   0.366   1.336  10.396
61302SOL     OW85802  11.524  11.621   0.721
61302SOL    HW185803  11.581  11.663   0.785
61302SOL    HW285804  11.445  11.675   0.721
61303SOL     OW85805  11.570   5.966  10.670
61303SOL    HW185806  11.592   5.905  10.741
61303SOL    HW285807  11.655   5.999  10.641
61304SOL     OW85808   3.834  12.277  14.546
61304SOL    HW185809   3.880  12.226  14.613
61304SOL    HW285810   3.822  12.215  14.473
61305SOL     OW85811  12.498   7.551  10.073
61305SOL    HW185812  12.404   7.542  10.088
61305SOL    HW285813  12.528   7.606  10.145
61306SOL     OW85814  10.264   1.987  13.189
61306SOL    HW185815  10.353   1.980  13.155
61306SOL    HW285816  10.219   2.046  13.128
61307SOL     OW85817   3.996  10.884   0.193
61307SOL    HW185818   3.930  10.851   0.132
61307SOL    HW285819   3.983  10.833   0.273
61308SOL     OW85820  14.556   1.315   6.672
61308SOL    HW185821  14.578   1.329   6.764
61308SOL    HW285822  14.528   1.401   6.640
61309SOL     OW85823   6.366   4.011   4.376
61309SOL    HW185824   6.364   4.062   4.458
61309SOL    HW285825   6.275   4.008   4.347
61310SOL     OW85826  11.749   3.734  12.511
61310SOL    HW185827  11.676   3.687  12.553
61310SOL    HW285828  11.714   3.762  12.427
61311SOL     OW85829   7.476   8.454   3.345
61311SOL    HW185830   7.437   8.537   3.373
61311SOL    HW285831   7.557   8.478   3.300
61312SOL     OW85832   3.939  10.075   9.282
61312SOL    HW185833   4.035  10.079   9.286
61312SOL    HW285834   3.921   9.998   9.228
61313SOL     OW85835   5.218   9.114   3.157
61313SOL    HW185836   5.124   9.125   3.151
61313SOL    HW285837   5.234   9.098   3.250
61314SOL     OW85838  14.606   8.108   5.578
61314SOL    HW185839  14.523   8.141   5.611
61314SOL    HW285840  14.647   8.184   5.536
61315SOL     OW85841   0.637  11.320   6.388
61315SOL    HW185842   0.620  11.385   6.320
61315SOL    HW285843   0.671  11.371   6.462
61316SOL     OW85844  10.497   8.078   9.132
61316SOL    HW185845  10.577   8.089   9.081
61316SOL    HW285846  10.439   8.148   9.101
61317SOL     OW85847   8.231   7.244  13.727
61317SOL    HW185848   8.221   7.164  13.675
61317SOL    HW285849   8.309   7.286  13.691
61318SOL     OW85850   1.067   8.093  10.715
61318SOL    HW185851   0.997   8.154  10.736
61318SOL    HW285852   1.122   8.091  10.793
61319SOL     OW85853  11.083  13.887  12.806
61319SOL    HW185854  11.120  13.972  12.829
61319SOL    HW285855  11.076  13.841  12.890
61320SOL     OW85856   3.731   4.900   5.545
61320SOL    HW185857   3.757   4.830   5.485
61320SOL    HW285858   3.638   4.913   5.528
61321SOL     OW85859   9.842  11.406   0.066
61321SOL    HW185860   9.759  11.452   0.052
61321SOL    HW285861   9.838  11.331   0.006
61322SOL     OW85862   5.900   9.021   2.340
61322SOL    HW185863   5.933   9.049   2.255
61322SOL    HW285864   5.895   9.102   2.391
61323SOL     OW85865  11.480  13.303   6.500
61323SOL    HW185866  11.508  13.218   6.534
61323SOL    HW285867  11.386  13.292   6.483
61324SOL     OW85868   9.497  12.974   6.992
61324SOL    HW185869   9.524  12.904   7.052
61324SOL    HW285870   9.553  12.962   6.915
61325SOL     OW85871  13.562   6.548   7.650
61325SOL    HW185872  13.489   6.488   7.634
61325SOL    HW285873  13.607   6.511   7.725
61326SOL     OW85874  14.251   3.799   5.189
61326SOL    HW185875  14.329   3.851   5.171
61326SOL    HW285876  14.255   3.726   5.128
61327SOL     OW85877   9.336   7.300   4.191
61327SOL    HW185878   9.361   7.373   4.247
61327SOL    HW285879   9.242   7.289   4.207
61328SOL     OW85880   5.757   2.105   0.520
61328SOL    HW185881   5.698   2.088   0.594
61328SOL    HW285882   5.699   2.106   0.443
61329SOL     OW85883   8.949  14.457   7.952
61329SOL    HW185884   8.965  14.377   7.903
61329SOL    HW285885   9.030  14.508   7.942
61330SOL     OW85886   7.685   0.957   9.349
61330SOL    HW185887   7.718   1.030   9.297
61330SOL    HW285888   7.590   0.964   9.342
61331SOL     OW85889   9.088  14.653  11.459
61331SOL    HW185890   9.182  14.649  11.442
61331SOL    HW285891   9.059  14.734  11.417
61332SOL     OW85892   3.188   5.264   3.601
61332SOL    HW185893   3.101   5.247   3.637
61332SOL    HW285894   3.248   5.229   3.667
61333SOL     OW85895   8.690   2.467   4.779
61333SOL    HW185896   8.715   2.535   4.841
61333SOL    HW285897   8.638   2.513   4.713
61334SOL     OW85898   5.799   1.421  14.289
61334SOL    HW185899   5.741   1.352  14.259
61334SOL    HW285900   5.774   1.435  14.381
61335SOL     OW85901  13.446   0.101   3.763
61335SOL    HW185902  13.419   0.056   3.843
61335SOL    HW285903  13.479   0.032   3.706
61336SOL     OW85904   4.969   2.485   1.391
61336SOL    HW185905   4.986   2.406   1.442
61336SOL    HW285906   4.879   2.475   1.360
61337SOL     OW85907   5.460   1.788   7.396
61337SOL    HW185908   5.445   1.867   7.345
61337SOL    HW285909   5.519   1.735   7.343
61338SOL     OW85910   3.654  13.868   8.203
61338SOL    HW185911   3.716  13.846   8.133
61338SOL    HW285912   3.583  13.914   8.159
61339SOL     OW85913  13.472   7.266   0.729
61339SOL    HW185914  13.504   7.179   0.755
61339SOL    HW285915  13.381   7.268   0.757
61340SOL     OW85916  12.648  11.363  10.933
61340SOL    HW185917  12.651  11.275  10.970
61340SOL    HW285918  12.557  11.391  10.944
61341SOL     OW85919  11.082   3.557   6.699
61341SOL    HW185920  11.161   3.519   6.660
61341SOL    HW285921  11.115   3.613   6.769
61342SOL     OW85922  14.768   9.517   0.097
61342SOL    HW185923  14.778   9.570   0.176
61342SOL    HW285924  14.738   9.432   0.129
61343SOL     OW85925  14.170   5.076  13.192
61343SOL    HW185926  14.222   5.017  13.247
61343SOL    HW285927  14.235   5.131  13.148
61344SOL     OW85928   2.010  13.252  14.194
61344SOL    HW185929   2.104  13.237  14.203
61344SOL    HW285930   1.981  13.271  14.283
61345SOL     OW85931   4.829  14.271   9.526
61345SOL    HW185932   4.794  14.189   9.492
61345SOL    HW285933   4.753  14.328   9.533
61346SOL     OW85934   8.734   2.531   7.858
61346SOL    HW185935   8.736   2.608   7.914
61346SOL    HW285936   8.681   2.468   7.906
61347SOL     OW85937   2.194   4.314   8.296
61347SOL    HW185938   2.131   4.386   8.289
61347SOL    HW285939   2.141   4.235   8.297
61348SOL     OW85940  13.526   3.575   0.608
61348SOL    HW185941  13.513   3.496   0.661
61348SOL    HW285942  13.612   3.608   0.636
61349SOL     OW85943   5.856   8.049   1.072
61349SOL    HW185944   5.881   8.065   0.981
61349SOL    HW285945   5.761   8.063   1.073
61350SOL     OW85946  13.851   4.847   3.378
61350SOL    HW185947  13.807   4.780   3.430
61350SOL    HW285948  13.785   4.876   3.315
61351SOL     OW85949  11.411   6.044   9.171
61351SOL    HW185950  11.366   6.041   9.087
61351SOL    HW285951  11.447   6.133   9.176
61352SOL     OW85952   4.914   4.879  13.189
61352SOL    HW185953   4.953   4.934  13.256
61352SOL    HW285954   4.837   4.840  13.231
61353SOL     OW85955   4.448   1.868  12.371
61353SOL    HW185956   4.411   1.780  12.374
61353SOL    HW285957   4.527   1.863  12.425
61354SOL     OW85958   8.763   5.191   2.922
61354SOL    HW185959   8.829   5.134   2.961
61354SOL    HW285960   8.735   5.144   2.843
61355SOL     OW85961   8.143   7.567   2.506
61355SOL    HW185962   8.062   7.543   2.553
61355SOL    HW285963   8.209   7.507   2.541
61356SOL     OW85964   6.048   1.064   5.180
61356SOL    HW185965   6.094   1.026   5.254
61356SOL    HW285966   6.103   1.042   5.104
61357SOL     OW85967   5.690  14.630   1.905
61357SOL    HW185968   5.754  14.699   1.887
61357SOL    HW285969   5.607  14.676   1.918
61358SOL     OW85970   9.031   7.381  11.615
61358SOL    HW185971   9.100   7.315  11.609
61358SOL    HW285972   8.992   7.384  11.528
61359SOL     OW85973  10.071   5.623   9.704
61359SOL    HW185974  10.066   5.571   9.624
61359SOL    HW285975  10.164   5.622   9.728
61360SOL     OW85976   3.270   5.515   1.179
61360SOL    HW185977   3.207   5.571   1.224
61360SOL    HW285978   3.302   5.455   1.247
61361SOL     OW85979  12.934   6.533   8.919
61361SOL    HW185980  12.841   6.556   8.921
61361SOL    HW285981  12.979   6.607   8.960
61362SOL     OW85982   2.514   0.659   6.263
61362SOL    HW185983   2.552   0.692   6.182
61362SOL    HW285984   2.574   0.590   6.291
61363SOL     OW85985   1.134  11.253   7.922
61363SOL    HW185986   1.075  11.205   7.979
61363SOL    HW285987   1.076  11.311   7.871
61364SOL     OW85988   1.025   0.524   2.689
61364SOL    HW185989   1.113   0.511   2.653
61364SOL    HW285990   0.995   0.606   2.650
61365SOL     OW85991   8.297  11.290  11.037
61365SOL    HW185992   8.390  11.303  11.018
61365SOL    HW285993   8.296  11.257  11.127
61366SOL     OW85994  14.489   1.889   7.309
61366SOL    HW185995  14.472   1.896   7.215
61366SOL    HW285996  14.585   1.885   7.316
61367SOL     OW85997  10.870  13.691   8.856
61367SOL    HW185998  10.949  13.671   8.806
61367SOL    HW285999  10.893  13.770   8.905
61368SOL     OW86000   3.832  10.246   0.865
61368SOL    HW186001   3.890  10.314   0.900
61368SOL    HW286002   3.757  10.294   0.831
61369SOL     OW86003   2.594  13.786  14.641
61369SOL    HW186004   2.508  13.827  14.637
61369SOL    HW286005   2.601  13.753  14.731
61370SOL     OW86006   2.831  10.106   2.372
61370SOL    HW186007   2.794  10.147   2.294
61370SOL    HW286008   2.808  10.014   2.364
61371SOL     OW86009   2.129  11.901   1.598
61371SOL    HW186010   2.056  11.842   1.616
61371SOL    HW286011   2.090  11.973   1.548
61372SOL     OW86012   0.510  14.227  14.756
61372SOL    HW186013   0.575  14.258  14.693
61372SOL    HW286014   0.440  14.190  14.702
61373SOL     OW86015  13.253  14.100  10.164
61373SOL    HW186016  13.345  14.100  10.193
61373SOL    HW286017  13.255  14.145  10.079
61374SOL     OW86018  12.458   4.568  11.731
61374SOL    HW186019  12.409   4.495  11.768
61374SOL    HW286020  12.521   4.526  11.671
61375SOL     OW86021   4.604  12.972   8.947
61375SOL    HW186022   4.571  13.059   8.926
61375SOL    HW286023   4.525  12.920   8.966
61376SOL     OW86024  10.036  13.992   3.225
61376SOL    HW186025   9.990  13.911   3.203
61376SOL    HW286026  10.111  13.994   3.165
61377SOL     OW86027  14.167  12.815   7.404
61377SOL    HW186028  14.173  12.782   7.493
61377SOL    HW286029  14.077  12.796   7.378
61378SOL     OW86030   9.587   7.021   9.149
61378SOL    HW186031   9.577   6.927   9.168
61378SOL    HW286032   9.502   7.048   9.116
61379SOL     OW86033   1.706   9.262   0.031
61379SOL    HW186034   1.670   9.200   0.094
61379SOL    HW286035   1.631   9.314   0.003
61380SOL     OW86036   3.751   8.730   6.750
61380SOL    HW186037   3.816   8.720   6.680
61380SOL    HW286038   3.793   8.691   6.827
61381SOL     OW86039   7.473   8.014   1.161
61381SOL    HW186040   7.504   7.986   1.247
61381SOL    HW286041   7.400   7.956   1.141
61382SOL     OW86042  12.550  10.731  10.208
61382SOL    HW186043  12.613  10.663  10.232
61382SOL    HW286044  12.486  10.731  10.280
61383SOL     OW86045   3.204   8.585  12.226
61383SOL    HW186046   3.252   8.644  12.284
61383SOL    HW286047   3.226   8.497  12.258
61384SOL     OW86048   7.277   4.826   6.869
61384SOL    HW186049   7.325   4.794   6.793
61384SOL    HW286050   7.190   4.786   6.862
61385SOL     OW86051   4.630  13.883  11.920
61385SOL    HW186052   4.588  13.797  11.918
61385SOL    HW286053   4.705  13.872  11.979
61386SOL     OW86054   1.102   6.545   1.939
61386SOL    HW186055   1.172   6.604   1.968
61386SOL    HW286056   1.113   6.539   1.845
61387SOL     OW86057   4.909   8.142   9.945
61387SOL    HW186058   4.898   8.235   9.968
61387SOL    HW286059   4.930   8.100  10.028
61388SOL     OW86060   3.266   8.073   0.639
61388SOL    HW186061   3.172   8.059   0.649
61388SOL    HW286062   3.303   8.046   0.723
61389SOL     OW86063   8.437   0.057  12.904
61389SOL    HW186064   8.484  14.849  12.935
61389SOL    HW286065   8.481   0.131  12.945
61390SOL     OW86066   0.207   5.266  14.465
61390SOL    HW186067   0.296   5.299  14.472
61390SOL    HW286068   0.172   5.270  14.554
61391SOL     OW86069  10.455   2.700   1.354
61391SOL    HW186070  10.461   2.644   1.277
61391SOL    HW286071  10.391   2.767   1.330
61392SOL     OW86072   3.411   8.868  10.239
61392SOL    HW186073   3.359   8.825  10.170
61392SOL    HW286074   3.468   8.799  10.272
61393SOL     OW86075   4.003   7.157   3.595
61393SOL    HW186076   4.086   7.204   3.606
61393SOL    HW286077   4.005   7.129   3.503
61394SOL     OW86078   8.039   5.783   8.262
61394SOL    HW186079   8.065   5.875   8.270
61394SOL    HW286080   8.100   5.746   8.198
61395SOL     OW86081   8.573  13.007   3.922
61395SOL    HW186082   8.482  12.978   3.917
61395SOL    HW286083   8.619  12.952   3.859
61396SOL     OW86084   2.655   1.671   4.040
61396SOL    HW186085   2.618   1.656   4.127
61396SOL    HW286086   2.616   1.753   4.011
61397SOL     OW86087  13.510  11.870   8.934
61397SOL    HW186088  13.499  11.912   8.848
61397SOL    HW286089  13.602  11.846   8.937
61398SOL     OW86090   2.385   9.152   2.510
61398SOL    HW186091   2.440   9.088   2.464
61398SOL    HW286092   2.303   9.105   2.528
61399SOL     OW86093   0.235  14.479   0.311
61399SOL    HW186094   0.207  14.566   0.341
61399SOL    HW286095   0.191  14.418   0.370
61400SOL     OW86096   9.763   1.721   0.803
61400SOL    HW186097   9.740   1.812   0.784
61400SOL    HW286098   9.688   1.670   0.770
61401SOL     OW86099   6.493   0.952   6.386
61401SOL    HW186100   6.541   0.881   6.343
61401SOL    HW286101   6.409   0.956   6.341
61402SOL     OW86102   1.996   8.586  14.646
61402SOL    HW186103   2.001   8.530  14.723
61402SOL    HW286104   1.904   8.613  14.642
61403SOL     OW86105   4.151  10.069   3.606
61403SOL    HW186106   4.152   9.978   3.635
61403SOL    HW286107   4.195  10.068   3.521
61404SOL     OW86108   9.279   4.796  12.300
61404SOL    HW186109   9.360   4.745  12.307
61404SOL    HW286110   9.224   4.745  12.240
61405SOL     OW86111   5.062   7.099  10.231
61405SOL    HW186112   5.001   7.169  10.253
61405SOL    HW286113   5.012   7.018  10.243
61406SOL     OW86114   6.173   4.289  12.832
61406SOL    HW186115   6.159   4.306  12.739
61406SOL    HW286116   6.210   4.371  12.867
61407SOL     OW86117   7.468   6.800  10.117
61407SOL    HW186118   7.458   6.805  10.212
61407SOL    HW286119   7.431   6.883  10.085
61408SOL     OW86120   7.673   1.166   9.929
61408SOL    HW186121   7.619   1.209   9.863
61408SOL    HW286122   7.759   1.156   9.887
61409SOL     OW86123   6.946  11.889   0.726
61409SOL    HW186124   6.924  11.811   0.676
61409SOL    HW286125   6.864  11.914   0.769
61410SOL     OW86126  10.514   7.489  11.365
61410SOL    HW186127  10.451   7.472  11.296
61410SOL    HW286128  10.564   7.408  11.373
61411SOL     OW86129   1.940   3.907  13.538
61411SOL    HW186130   1.874   3.967  13.505
61411SOL    HW286131   1.947   3.839  13.471
61412SOL     OW86132   7.813   5.515  11.084
61412SOL    HW186133   7.774   5.588  11.036
61412SOL    HW286134   7.902   5.544  11.104
61413SOL     OW86135   8.887   9.715   3.972
61413SOL    HW186136   8.895   9.709   4.068
61413SOL    HW286137   8.795   9.736   3.957
61414SOL     OW86138  10.287   6.948   9.908
61414SOL    HW186139  10.377   6.925   9.886
61414SOL    HW286140  10.295   7.024   9.965
61415SOL     OW86141  10.941   1.924  12.814
61415SOL    HW186142  10.933   1.970  12.730
61415SOL    HW286143  10.951   1.832  12.789
61416SOL     OW86144   8.541   5.799   8.093
61416SOL    HW186145   8.508   5.765   8.176
61416SOL    HW286146   8.560   5.891   8.111
61417SOL     OW86147   9.074   8.157   6.529
61417SOL    HW186148   9.010   8.221   6.561
61417SOL    HW286149   9.081   8.093   6.599
61418SOL     OW86150   5.683   8.143  12.761
61418SOL    HW186151   5.688   8.210  12.693
61418SOL    HW286152   5.733   8.069  12.726
61419SOL     OW86153   8.766   7.836   6.005
61419SOL    HW186154   8.730   7.924   6.003
61419SOL    HW286155   8.779   7.817   6.098
61420SOL     OW86156   3.705   1.458   5.333
61420SOL    HW186157   3.678   1.409   5.255
61420SOL    HW286158   3.800   1.446   5.336
61421SOL     OW86159   0.657   2.143   5.344
61421SOL    HW186160   0.659   2.065   5.289
61421SOL    HW286161   0.634   2.111   5.431
61422SOL     OW86162  11.815   1.901  10.812
61422SOL    HW186163  11.842   1.986  10.778
61422SOL    HW286164  11.745   1.873  10.753
61423SOL     OW86165   3.783   5.544   6.091
61423SOL    HW186166   3.694   5.530   6.058
61423SOL    HW286167   3.832   5.574   6.015
61424SOL     OW86168   9.725   3.213   5.035
61424SOL    HW186169   9.725   3.175   4.947
61424SOL    HW286170   9.722   3.137   5.093
61425SOL     OW86171   2.792   0.611  12.413
61425SOL    HW186172   2.707   0.624  12.455
61425SOL    HW286173   2.773   0.612  12.319
61426SOL     OW86174   9.068   2.099   0.004
61426SOL    HW186175   9.113   2.110   0.088
61426SOL    HW286176   9.066   2.187  14.835
61427SOL     OW86177   6.691   4.189   0.804
61427SOL    HW186178   6.764   4.243   0.775
61427SOL    HW286179   6.728   4.101   0.813
61428SOL     OW86180   3.814   7.126  12.131
61428SOL    HW186181   3.758   7.048  12.125
61428SOL    HW286182   3.759   7.198  12.102
61429SOL     OW86183  12.246   4.232  13.589
61429SOL    HW186184  12.337   4.205  13.574
61429SOL    HW286185  12.196   4.185  13.523
61430SOL     OW86186   2.631  10.478   1.013
61430SOL    HW186187   2.617  10.384   1.020
61430SOL    HW286188   2.546  10.513   0.985
61431SOL     OW86189  14.362  11.663  11.414
61431SOL    HW186190  14.448  11.683  11.451
61431SOL    HW286191  14.374  11.579  11.369
61432SOL     OW86192   0.397   6.158   4.840
61432SOL    HW186193   0.417   6.244   4.804
61432SOL    HW286194   0.348   6.114   4.770
61433SOL     OW86195   1.838   4.759   0.595
61433SOL    HW186196   1.879   4.674   0.614
61433SOL    HW286197   1.749   4.737   0.567
61434SOL     OW86198   4.231   7.304   3.656
61434SOL    HW186199   4.217   7.321   3.749
61434SOL    HW286200   4.250   7.390   3.618
61435SOL     OW86201   1.431   5.817   1.920
61435SOL    HW186202   1.497   5.759   1.957
61435SOL    HW286203   1.405   5.776   1.838
61436SOL     OW86204  14.542  14.470   2.789
61436SOL    HW186205  14.468  14.432   2.741
61436SOL    HW286206  14.544  14.422   2.871
61437SOL     OW86207   9.712  13.932   5.719
61437SOL    HW186208   9.791  13.906   5.672
61437SOL    HW286209   9.642  13.926   5.653
61438SOL     OW86210   1.404   7.432   6.605
61438SOL    HW186211   1.426   7.428   6.512
61438SOL    HW286212   1.438   7.517   6.634
61439SOL     OW86213   9.872   1.276  12.460
61439SOL    HW186214   9.919   1.347  12.503
61439SOL    HW286215   9.932   1.246  12.391
61440SOL     OW86216   3.708  11.811   6.032
61440SOL    HW186217   3.692  11.862   5.953
61440SOL    HW286218   3.722  11.722   6.001
61441SOL     OW86219   9.632   0.330  12.047
61441SOL    HW186220   9.544   0.363  12.064
61441SOL    HW286221   9.655   0.366  11.961
61442SOL     OW86222   1.611  11.577   2.766
61442SOL    HW186223   1.659  11.516   2.710
61442SOL    HW286224   1.519  11.562   2.744
61443SOL     OW86225  11.196  12.497  12.346
61443SOL    HW186226  11.259  12.448  12.294
61443SOL    HW286227  11.113  12.450  12.334
61444SOL     OW86228   3.799  10.740   6.391
61444SOL    HW186229   3.816  10.699   6.476
61444SOL    HW286230   3.839  10.827   6.397
61445SOL     OW86231   6.909   1.751   0.013
61445SOL    HW186232   6.921   1.845  14.869
61445SOL    HW286233   6.931   1.710  14.799
61446SOL     OW86234   0.745   5.555   4.818
61446SOL    HW186235   0.703   5.594   4.742
61446SOL    HW286236   0.678   5.556   4.886
61447SOL     OW86237   3.128  10.644   5.586
61447SOL    HW186238   3.205  10.687   5.549
61447SOL    HW286239   3.054  10.696   5.555
61448SOL     OW86240   3.006   4.720  12.263
61448SOL    HW186241   2.995   4.694  12.354
61448SOL    HW286242   2.998   4.815  12.264
61449SOL     OW86243  11.357   9.266  12.661
61449SOL    HW186244  11.399   9.257  12.747
61449SOL    HW286245  11.385   9.189  12.612
61450SOL     OW86246   0.587   3.953  12.253
61450SOL    HW186247   0.669   3.907  12.272
61450SOL    HW286248   0.575   3.942  12.158
61451SOL     OW86249   6.233  10.803   8.512
61451SOL    HW186250   6.278  10.857   8.447
61451SOL    HW286251   6.261  10.839   8.596
61452SOL     OW86252  12.231  10.163   6.313
61452SOL    HW186253  12.284  10.085   6.296
61452SOL    HW286254  12.281  10.212   6.379
61453SOL     OW86255   7.034   3.064   8.293
61453SOL    HW186256   6.978   2.997   8.253
61453SOL    HW286257   7.030   3.137   8.232
61454SOL     OW86258   8.324  10.628   1.474
61454SOL    HW186259   8.321  10.541   1.515
61454SOL    HW286260   8.262  10.680   1.524
61455SOL     OW86261  11.581  11.560  11.968
61455SOL    HW186262  11.626  11.637  11.935
61455SOL    HW286263  11.541  11.521  11.891
61456SOL     OW86264  13.809   9.425  10.365
61456SOL    HW186265  13.872   9.373  10.315
61456SOL    HW286266  13.749   9.361  10.403
61457SOL     OW86267   8.318   6.676  13.059
61457SOL    HW186268   8.235   6.673  13.011
61457SOL    HW286269   8.376   6.727  13.002
61458SOL     OW86270   5.911   5.144  13.527
61458SOL    HW186271   5.976   5.214  13.525
61458SOL    HW286272   5.911   5.114  13.618
61459SOL     OW86273   0.639   5.037  10.343
61459SOL    HW186274   0.637   5.064  10.435
61459SOL    HW286275   0.666   4.945  10.346
61460SOL     OW86276  11.454   9.429   3.662
61460SOL    HW186277  11.465   9.369   3.588
61460SOL    HW286278  11.359   9.438   3.671
61461SOL     OW86279  10.853   8.509   9.683
61461SOL    HW186280  10.869   8.566   9.758
61461SOL    HW286281  10.906   8.431   9.699
61462SOL     OW86282   2.437  10.933   3.798
61462SOL    HW186283   2.364  10.882   3.833
61462SOL    HW286284   2.395  11.005   3.750
61463SOL     OW86285   8.726   3.141  12.569
61463SOL    HW186286   8.762   3.209  12.626
61463SOL    HW286287   8.764   3.159  12.483
61464SOL     OW86288   3.927   9.706   7.994
61464SOL    HW186289   3.869   9.649   8.044
61464SOL    HW286290   4.012   9.662   7.997
61465SOL     OW86291  12.912   9.802  11.886
61465SOL    HW186292  12.966   9.806  11.807
61465SOL    HW286293  12.842   9.740  11.863
61466SOL     OW86294   5.565  14.633   6.686
61466SOL    HW186295   5.614  14.571   6.632
61466SOL    HW286296   5.486  14.585   6.712
61467SOL     OW86297   9.701  10.399  10.020
61467SOL    HW186298   9.663  10.311  10.007
61467SOL    HW286299   9.683  10.444   9.937
61468SOL     OW86300   1.417   0.526   7.844
61468SOL    HW186301   1.482   0.486   7.786
61468SOL    HW286302   1.367   0.452   7.879
61469SOL     OW86303   0.667   2.561   8.373
61469SOL    HW186304   0.595   2.587   8.431
61469SOL    HW286305   0.705   2.484   8.415
61470SOL     OW86306   9.327   0.148   6.451
61470SOL    HW186307   9.253   0.091   6.470
61470SOL    HW286308   9.369   0.162   6.536
61471SOL     OW86309  14.037   0.144   8.593
61471SOL    HW186310  14.018   0.132   8.686
61471SOL    HW286311  13.968   0.095   8.548
61472SOL     OW86312  14.388  12.162   5.557
61472SOL    HW186313  14.336  12.228   5.511
61472SOL    HW286314  14.399  12.197   5.646
61473SOL     OW86315  14.735  13.270   8.920
61473SOL    HW186316  14.717  13.244   8.830
61473SOL    HW286317  14.816  13.225   8.943
61474SOL     OW86318  13.641   7.262  13.007
61474SOL    HW186319  13.722   7.297  13.045
61474SOL    HW286320  13.614   7.328  12.943
61475SOL     OW86321   6.193   1.443   6.286
61475SOL    HW186322   6.118   1.385   6.298
61475SOL    HW286323   6.171   1.495   6.209
61476SOL     OW86324   6.835   3.493   8.308
61476SOL    HW186325   6.819   3.503   8.214
61476SOL    HW286326   6.775   3.423   8.335
61477SOL     OW86327   0.863   4.918   3.681
61477SOL    HW186328   0.820   4.833   3.679
61477SOL    HW286329   0.863   4.944   3.773
61478SOL     OW86330   7.318   2.704   0.209
61478SOL    HW186331   7.371   2.691   0.288
61478SOL    HW286332   7.256   2.632   0.209
61479SOL     OW86333   7.687   9.391   5.008
61479SOL    HW186334   7.755   9.440   4.962
61479SOL    HW286335   7.720   9.301   5.011
61480SOL     OW86336   0.546   4.345   3.866
61480SOL    HW186337   0.620   4.384   3.820
61480SOL    HW286338   0.580   4.328   3.954
61481SOL     OW86339   7.713   3.263   6.982
61481SOL    HW186340   7.755   3.253   6.896
61481SOL    HW286341   7.731   3.354   7.006
61482SOL     OW86342  13.435   3.794   8.351
61482SOL    HW186343  13.394   3.878   8.328
61482SOL    HW286344  13.417   3.737   8.276
61483SOL     OW86345   3.273  13.092   3.142
61483SOL    HW186346   3.205  13.026   3.130
61483SOL    HW286347   3.285  13.097   3.237
61484SOL     OW86348  10.932  14.688  13.751
61484SOL    HW186349  10.888  14.772  13.752
61484SOL    HW286350  10.862  14.623  13.750
61485SOL     OW86351   0.512  11.719   5.690
61485SOL    HW186352   0.463  11.786   5.738
61485SOL    HW286353   0.599  11.720   5.729
61486SOL     OW86354   3.037   9.254  11.621
61486SOL    HW186355   3.020   9.320  11.689
61486SOL    HW286356   2.986   9.178  11.649
61487SOL     OW86357  12.507   3.544  12.832
61487SOL    HW186358  12.491   3.450  12.839
61487SOL    HW286359  12.420   3.583  12.830
61488SOL     OW86360   1.941   8.947  13.124
61488SOL    HW186361   1.931   8.951  13.219
61488SOL    HW286362   1.970   8.858  13.106
61489SOL     OW86363   4.072   1.506   7.339
61489SOL    HW186364   4.133   1.471   7.404
61489SOL    HW286365   4.004   1.550   7.391
61490SOL     OW86366   0.363   1.907   2.595
61490SOL    HW186367   0.432   1.857   2.639
61490SOL    HW286368   0.298   1.925   2.663
61491SOL     OW86369   9.816  12.890   2.140
61491SOL    HW186370   9.724  12.907   2.119
61491SOL    HW286371   9.833  12.942   2.218
61492SOL     OW86372   4.846   3.879   2.860
61492SOL    HW186373   4.866   3.791   2.893
61492SOL    HW286374   4.767   3.905   2.909
61493SOL     OW86375  11.996   5.860  10.134
61493SOL    HW186376  11.921   5.829  10.186
61493SOL    HW286377  12.029   5.936  10.183
61494SOL     OW86378  10.273   7.658  12.188
61494SOL    HW186379  10.252   7.729  12.128
61494SOL    HW286380  10.309   7.588  12.133
61495SOL     OW86381   8.565   0.472  10.002
61495SOL    HW186382   8.564   0.381  10.031
61495SOL    HW286383   8.479   0.486   9.961
61496SOL     OW86384   3.211   5.967   8.723
61496SOL    HW186385   3.213   5.900   8.792
61496SOL    HW286386   3.280   5.941   8.662
61497SOL     OW86387   0.239  12.249  14.823
61497SOL    HW186388   0.332  12.233  14.837
61497SOL    HW286389   0.236  12.309  14.748
61498SOL     OW86390   7.540   0.604   2.609
61498SOL    HW186391   7.624   0.581   2.650
61498SOL    HW286392   7.534   0.699   2.621
61499SOL     OW86393  10.926   2.529   9.665
61499SOL    HW186394  10.904   2.490   9.750
61499SOL    HW286395  10.981   2.604   9.688
61500SOL     OW86396   4.677   2.896  13.331
61500SOL    HW186397   4.732   2.864  13.402
61500SOL    HW286398   4.588   2.878  13.360
61501SOL     OW86399   5.605   8.969  13.902
61501SOL    HW186400   5.536   9.025  13.866
61501SOL    HW286401   5.590   8.883  13.863
61502SOL     OW86402  13.847   6.800   4.668
61502SOL    HW186403  13.824   6.710   4.689
61502SOL    HW286404  13.789   6.824   4.596
61503SOL     OW86405   7.804   3.107   5.357
61503SOL    HW186406   7.798   3.151   5.272
61503SOL    HW286407   7.745   3.156   5.414
61504SOL     OW86408   8.571   0.537  11.576
61504SOL    HW186409   8.626   0.463  11.549
61504SOL    HW286410   8.632   0.611  11.579
61505SOL     OW86411  10.616   1.889   3.514
61505SOL    HW186412  10.659   1.928   3.590
61505SOL    HW286413  10.605   1.797   3.537
61506SOL     OW86414   9.968   0.688  11.540
61506SOL    HW186415   9.909   0.726  11.605
61506SOL    HW286416  10.027   0.759  11.516
61507SOL     OW86417   6.481  11.183  13.101
61507SOL    HW186418   6.437  11.253  13.150
61507SOL    HW286419   6.493  11.113  13.165
61508SOL     OW86420  14.169   7.561  10.076
61508SOL    HW186421  14.207   7.583   9.991
61508SOL    HW286422  14.079   7.594  10.072
61509SOL     OW86423  10.605   8.730  13.055
61509SOL    HW186424  10.576   8.727  12.964
61509SOL    HW286425  10.526   8.752  13.105
61510SOL     OW86426   9.221   3.432   8.881
61510SOL    HW186427   9.155   3.415   8.949
61510SOL    HW286428   9.292   3.477   8.927
61511SOL     OW86429   2.354   6.151   6.124
61511SOL    HW186430   2.295   6.078   6.105
61511SOL    HW286431   2.418   6.115   6.185
61512SOL     OW86432   2.844   1.345   9.085
61512SOL    HW186433   2.809   1.256   9.083
61512SOL    HW286434   2.860   1.367   8.994
61513SOL     OW86435   1.403   8.162   2.351
61513SOL    HW186436   1.475   8.107   2.321
61513SOL    HW286437   1.358   8.189   2.271
61514SOL     OW86438  11.474   6.027  12.111
61514SOL    HW186439  11.422   6.072  12.044
61514SOL    HW286440  11.515   6.098  12.161
61515SOL     OW86441   5.839  13.338  12.420
61515SOL    HW186442   5.820  13.426  12.389
61515SOL    HW286443   5.792  13.330  12.503
61516SOL     OW86444   3.895   8.794  13.373
61516SOL    HW186445   3.813   8.756  13.404
61516SOL    HW286446   3.885   8.888  13.389
61517SOL     OW86447   4.244   1.728   9.484
61517SOL    HW186448   4.269   1.802   9.539
61517SOL    HW286449   4.149   1.731   9.480
61518SOL     OW86450   5.895   0.408   1.194
61518SOL    HW186451   5.892   0.319   1.158
61518SOL    HW286452   5.818   0.451   1.156
61519SOL     OW86453   6.117   8.957   4.070
61519SOL    HW186454   6.112   9.040   4.116
61519SOL    HW286455   6.044   8.906   4.104
61520SOL     OW86456   1.009  12.494   0.339
61520SOL    HW186457   1.071  12.429   0.307
61520SOL    HW286458   1.050  12.578   0.322
61521SOL     OW86459   1.197   4.579   5.802
61521SOL    HW186460   1.127   4.519   5.828
61521SOL    HW286461   1.252   4.588   5.879
61522SOL     OW86462   4.684   0.628   2.944
61522SOL    HW186463   4.602   0.605   2.987
61522SOL    HW286464   4.680   0.723   2.932
61523SOL     OW86465  10.770   1.295   1.096
61523SOL    HW186466  10.787   1.226   1.032
61523SOL    HW286467  10.857   1.329   1.118
61524SOL     OW86468  12.086   1.961  13.847
61524SOL    HW186469  12.132   1.920  13.774
61524SOL    HW286470  12.115   1.912  13.924
61525SOL     OW86471  11.531   4.550   2.689
61525SOL    HW186472  11.452   4.497   2.696
61525SOL    HW286473  11.542   4.587   2.776
61526SOL     OW86474   2.956   3.736   7.507
61526SOL    HW186475   2.976   3.661   7.451
61526SOL    HW286476   3.006   3.808   7.470
61527SOL     OW86477   2.919   3.837   3.550
61527SOL    HW186478   2.931   3.932   3.543
61527SOL    HW286479   2.824   3.826   3.558
61528SOL     OW86480   4.152   8.991   0.686
61528SOL    HW186481   4.181   9.005   0.776
61528SOL    HW286482   4.232   8.994   0.634
61529SOL     OW86483   1.864   2.620   5.359
61529SOL    HW186484   1.921   2.694   5.383
61529SOL    HW286485   1.866   2.563   5.435
61530SOL     OW86486   2.290   7.235   7.074
61530SOL    HW186487   2.308   7.149   7.035
61530SOL    HW286488   2.336   7.297   7.017
61531SOL     OW86489   6.276  13.168   7.856
61531SOL    HW186490   6.360  13.213   7.856
61531SOL    HW286491   6.275  13.118   7.775
61532SOL     OW86492  13.033   7.148   4.516
61532SOL    HW186493  13.111   7.201   4.535
61532SOL    HW286494  12.961   7.212   4.516
61533SOL     OW86495  12.456   0.337   6.241
61533SOL    HW186496  12.377   0.295   6.206
61533SOL    HW286497  12.527   0.278   6.214
61534SOL     OW86498   8.067   8.464   6.521
61534SOL    HW186499   8.042   8.375   6.544
61534SOL    HW286500   8.152   8.455   6.477
61535SOL     OW86501   9.668   7.158   1.270
61535SOL    HW186502   9.627   7.240   1.243
61535SOL    HW286503   9.615   7.090   1.227
61536SOL     OW86504   0.010   4.550   5.810
61536SOL    HW186505  14.796   4.596   5.803
61536SOL    HW286506   0.057   4.574   5.730
61537SOL     OW86507   6.902   8.671  10.925
61537SOL    HW186508   6.867   8.706  11.006
61537SOL    HW286509   6.837   8.605  10.898
61538SOL     OW86510  11.376   7.895   4.450
61538SOL    HW186511  11.330   7.970   4.411
61538SOL    HW286512  11.335   7.884   4.536
61539SOL     OW86513  11.750   9.947  14.716
61539SOL    HW186514  11.741   9.969  14.808
61539SOL    HW286515  11.826   9.887  14.713
61540SOL     OW86516   6.933   3.571  12.905
61540SOL    HW186517   6.948   3.482  12.875
61540SOL    HW286518   6.838   3.581  12.905
61541SOL     OW86519  12.800  13.133   6.131
61541SOL    HW186520  12.882  13.119   6.084
61541SOL    HW286521  12.821  13.201   6.196
61542SOL     OW86522   1.523   3.076   8.823
61542SOL    HW186523   1.491   3.166   8.822
61542SOL    HW286524   1.616   3.083   8.800
61543SOL     OW86525   8.423   1.476   5.576
61543SOL    HW186526   8.400   1.569   5.573
61543SOL    HW286527   8.340   1.431   5.592
61544SOL     OW86528   1.302   8.211   6.997
61544SOL    HW186529   1.299   8.227   6.903
61544SOL    HW286530   1.241   8.139   7.012
61545SOL     OW86531   0.199   0.596   0.387
61545SOL    HW186532   0.230   0.669   0.440
61545SOL    HW286533   0.124   0.631   0.339
61546SOL     OW86534  12.939   1.149   7.125
61546SOL    HW186535  12.926   1.234   7.083
61546SOL    HW286536  12.883   1.151   7.202
61547SOL     OW86537   7.799  14.735  12.375
61547SOL    HW186538   7.867  14.790  12.415
61547SOL    HW286539   7.717  14.776  12.402
61548SOL     OW86540   9.935   1.699   2.351
61548SOL    HW186541  10.026   1.720   2.329
61548SOL    HW286542   9.896   1.671   2.268
61549SOL     OW86543   9.319  11.108   6.559
61549SOL    HW186544   9.396  11.165   6.553
61549SOL    HW286545   9.316  11.082   6.651
61550SOL     OW86546   6.528   1.638   6.057
61550SOL    HW186547   6.516   1.671   5.967
61550SOL    HW286548   6.548   1.545   6.046
61551SOL     OW86549   8.314   0.449  13.555
61551SOL    HW186550   8.343   0.523  13.608
61551SOL    HW286551   8.287   0.383  13.619
61552SOL     OW86552  14.255  13.216   9.545
61552SOL    HW186553  14.197  13.249   9.476
61552SOL    HW286554  14.215  13.133   9.571
61553SOL     OW86555  14.203   1.207   8.923
61553SOL    HW186556  14.161   1.128   8.890
61553SOL    HW286557  14.296   1.190   8.915
61554SOL     OW86558  14.283   3.693  11.228
61554SOL    HW186559  14.294   3.598  11.229
61554SOL    HW286560  14.190   3.706  11.209
61555SOL     OW86561   3.313   6.023  10.575
61555SOL    HW186562   3.222   6.041  10.553
61555SOL    HW286563   3.334   6.085  10.645
61556SOL     OW86564  10.327  11.664  11.796
61556SOL    HW186565  10.329  11.639  11.703
61556SOL    HW286566  10.419  11.680  11.817
61557SOL     OW86567   5.559   5.639   3.721
61557SOL    HW186568   5.518   5.621   3.636
61557SOL    HW286569   5.639   5.686   3.699
61558SOL     OW86570   4.175   4.961   0.675
61558SOL    HW186571   4.167   4.927   0.586
61558SOL    HW286572   4.099   5.019   0.685
61559SOL     OW86573  14.502  12.202   8.190
61559SOL    HW186574  14.497  12.136   8.122
61559SOL    HW286575  14.564  12.267   8.157
61560SOL     OW86576   2.340  12.235   9.780
61560SOL    HW186577   2.419  12.267   9.737
61560SOL    HW286578   2.272  12.298   9.757
61561SOL     OW86579   2.766   5.197   3.675
61561SOL    HW186580   2.853   5.208   3.637
61561SOL    HW286581   2.732   5.119   3.631
61562SOL     OW86582   8.548   8.097   5.942
61562SOL    HW186583   8.477   8.032   5.945
61562SOL    HW286584   8.534   8.153   6.018
61563SOL     OW86585   1.826  13.208  10.044
61563SOL    HW186586   1.789  13.189   9.958
61563SOL    HW286587   1.758  13.259  10.089
61564SOL     OW86588   7.314  11.833   1.356
61564SOL    HW186589   7.265  11.753   1.375
61564SOL    HW286590   7.280  11.897   1.418
61565SOL     OW86591  10.027   2.588   8.914
61565SOL    HW186592   9.948   2.533   8.919
61565SOL    HW286593  10.094   2.528   8.881
61566SOL     OW86594  13.754   5.332   3.771
61566SOL    HW186595  13.808   5.330   3.692
61566SOL    HW286596  13.670   5.368   3.742
61567SOL     OW86597   5.020  14.312  14.359
61567SOL    HW186598   4.932  14.287  14.332
61567SOL    HW286599   5.048  14.241  14.417
61568SOL     OW86600  10.129   7.280  11.140
61568SOL    HW186601  10.122   7.217  11.212
61568SOL    HW286602  10.127   7.227  11.061
61569SOL     OW86603  12.940  14.327   9.513
61569SOL    HW186604  12.891  14.402   9.546
61569SOL    HW286605  12.885  14.251   9.533
61570SOL     OW86606   0.336   2.170   0.852
61570SOL    HW186607   0.243   2.189   0.864
61570SOL    HW286608   0.341   2.075   0.850
61571SOL     OW86609   9.651   4.492  12.461
61571SOL    HW186610   9.636   4.513  12.553
61571SOL    HW286611   9.689   4.404  12.463
61572SOL     OW86612  13.981  12.118   1.971
61572SOL    HW186613  14.074  12.111   1.990
61572SOL    HW286614  13.975  12.186   1.903
61573SOL     OW86615   8.145   2.876   5.838
61573SOL    HW186616   8.187   2.832   5.764
61573SOL    HW286617   8.130   2.965   5.808
61574SOL     OW86618   4.416  13.601  13.904
61574SOL    HW186619   4.394  13.688  13.935
61574SOL    HW286620   4.466  13.562  13.976
61575SOL     OW86621   8.908  10.407   9.317
61575SOL    HW186622   8.854  10.350   9.372
61575SOL    HW286623   8.881  10.496   9.342
61576SOL     OW86624  13.883  14.126  11.791
61576SOL    HW186625  13.884  14.099  11.699
61576SOL    HW286626  13.974  14.117  11.820
61577SOL     OW86627   9.182   0.355   7.966
61577SOL    HW186628   9.092   0.386   7.981
61577SOL    HW286629   9.232   0.434   7.951
61578SOL     OW86630   9.014   6.315  13.641
61578SOL    HW186631   9.003   6.244  13.577
61578SOL    HW286632   9.023   6.271  13.725
61579SOL     OW86633   8.867   1.775   9.705
61579SOL    HW186634   8.815   1.817   9.774
61579SOL    HW286635   8.826   1.689   9.695
61580SOL     OW86636   5.141  10.439   6.683
61580SOL    HW186637   5.100  10.403   6.762
61580SOL    HW286638   5.234  10.419   6.693
61581SOL     OW86639   9.524  13.654   4.088
61581SOL    HW186640   9.588  13.667   4.158
61581SOL    HW286641   9.576  13.654   4.008
61582SOL     OW86642   2.971  10.945   7.758
61582SOL    HW186643   2.963  10.870   7.698
61582SOL    HW286644   2.883  10.982   7.762
61583SOL     OW86645   8.377  11.867   9.998
61583SOL    HW186646   8.355  11.910   9.916
61583SOL    HW286647   8.442  11.801   9.974
61584SOL     OW86648   9.097  10.286  11.317
61584SOL    HW186649   9.142  10.261  11.397
61584SOL    HW286650   9.158  10.265  11.247
61585SOL     OW86651   3.173   8.184   7.386
61585SOL    HW186652   3.262   8.190   7.351
61585SOL    HW286653   3.178   8.115   7.452
61586SOL     OW86654  14.794   6.706   2.802
61586SOL    HW186655  14.792   6.622   2.848
61586SOL    HW286656  14.791   6.683   2.709
61587SOL     OW86657   2.380   7.550   2.745
61587SOL    HW186658   2.376   7.458   2.716
61587SOL    HW286659   2.377   7.600   2.663
61588SOL     OW86660   3.700  13.460   1.809
61588SOL    HW186661   3.616  13.486   1.770
61588SOL    HW286662   3.749  13.421   1.737
61589SOL     OW86663  14.441  11.515   6.782
61589SOL    HW186664  14.403  11.491   6.867
61589SOL    HW286665  14.369  11.559   6.736
61590SOL     OW86666   0.233  12.574   4.939
61590SOL    HW186667   0.295  12.502   4.924
61590SOL    HW286668   0.287  12.653   4.930
61591SOL     OW86669   3.949  12.734   9.738
61591SOL    HW186670   3.897  12.745   9.818
61591SOL    HW286671   4.039  12.753   9.766
61592SOL     OW86672  11.102  13.245  14.785
61592SOL    HW186673  11.176  13.305  14.790
61592SOL    HW286674  11.138  13.165  14.747
61593SOL     OW86675   3.969   2.480  14.156
61593SOL    HW186676   3.874   2.489  14.156
61593SOL    HW286677   3.985   2.393  14.118
61594SOL     OW86678   4.636   4.934   4.113
61594SOL    HW186679   4.672   4.850   4.087
61594SOL    HW286680   4.689   4.962   4.187
61595SOL     OW86681   3.184  13.941   9.484
61595SOL    HW186682   3.116  13.963   9.549
61595SOL    HW286683   3.135  13.929   9.402
61596SOL     OW86684  10.872   3.041   7.260
61596SOL    HW186685  10.925   2.995   7.196
61596SOL    HW286686  10.865   2.981   7.334
61597SOL     OW86687  12.190   8.839   9.444
61597SOL    HW186688  12.136   8.913   9.417
61597SOL    HW286689  12.233   8.868   9.524
61598SOL     OW86690  14.026  14.500  13.926
61598SOL    HW186691  14.057  14.514  14.016
61598SOL    HW286692  14.099  14.458  13.882
61599SOL     OW86693  11.531  10.229  13.189
61599SOL    HW186694  11.479  10.295  13.143
61599SOL    HW286695  11.473  10.153  13.195
61600SOL     OW86696   5.600   1.754   2.317
61600SOL    HW186697   5.558   1.838   2.336
61600SOL    HW286698   5.592   1.704   2.398
61601SOL     OW86699  12.156   7.034   4.675
61601SOL    HW186700  12.239   7.048   4.720
61601SOL    HW286701  12.153   7.102   4.607
61602SOL     OW86702   5.254   4.245   4.758
61602SOL    HW186703   5.245   4.322   4.814
61602SOL    HW286704   5.236   4.277   4.669
61603SOL     OW86705  12.225   5.960   0.186
61603SOL    HW186706  12.147   5.971   0.240
61603SOL    HW286707  12.197   5.986   0.098
61604SOL     OW86708   8.951   6.361   9.787
61604SOL    HW186709   9.043   6.372   9.766
61604SOL    HW286710   8.930   6.272   9.759
61605SOL     OW86711   7.044  13.904   2.899
61605SOL    HW186712   6.948  13.899   2.897
61605SOL    HW286713   7.070  13.903   2.807
61606SOL     OW86714  11.053   3.225   1.281
61606SOL    HW186715  11.097   3.193   1.202
61606SOL    HW286716  11.051   3.320   1.271
61607SOL     OW86717   0.179   6.951  11.445
61607SOL    HW186718   0.115   6.955  11.516
61607SOL    HW286719   0.263   6.975  11.486
61608SOL     OW86720   2.818  11.934   0.015
61608SOL    HW186721   2.774  11.961  14.804
61608SOL    HW286722   2.831  11.840   0.005
61609SOL     OW86723  10.439   7.877  12.649
61609SOL    HW186724  10.344   7.868  12.659
61609SOL    HW286725  10.450   7.958  12.599
61610SOL     OW86726   7.004   4.294  14.413
61610SOL    HW186727   6.986   4.249  14.331
61610SOL    HW286728   7.084   4.344  14.397
61611SOL     OW86729  14.797   4.968   6.164
61611SOL    HW186730  14.840   4.889   6.196
61611SOL    HW286731  14.829   5.038   6.221
61612SOL     OW86732   2.445  13.193  11.947
61612SOL    HW186733   2.401  13.263  11.897
61612SOL    HW286734   2.405  13.197  12.034
61613SOL     OW86735   9.702  14.035   8.571
61613SOL    HW186736   9.723  14.096   8.642
61613SOL    HW286737   9.609  14.049   8.554
61614SOL     OW86738   0.026   0.073   8.307
61614SOL    HW186739  14.860  14.854   8.310
61614SOL    HW286740   0.043   0.088   8.214
61615SOL     OW86741   7.401  13.300   4.731
61615SOL    HW186742   7.348  13.378   4.718
61615SOL    HW286743   7.352  13.230   4.688
61616SOL     OW86744   0.090   3.215   4.862
61616SOL    HW186745   0.109   3.127   4.894
61616SOL    HW286746   0.164   3.237   4.806
61617SOL     OW86747   8.429   6.596   4.934
61617SOL    HW186748   8.452   6.503   4.937
61617SOL    HW286749   8.335   6.597   4.920
61618SOL     OW86750   8.140   3.691  12.255
61618SOL    HW186751   8.146   3.650  12.341
61618SOL    HW286752   8.196   3.768  12.262
61619SOL     OW86753   1.559   0.302   6.246
61619SOL    HW186754   1.567   0.208   6.263
61619SOL    HW286755   1.495   0.333   6.310
61620SOL     OW86756   3.918  10.911   7.312
61620SOL    HW186757   3.958  10.996   7.295
61620SOL    HW286758   3.909  10.907   7.407
61621SOL     OW86759   0.941  11.280  13.204
61621SOL    HW186760   0.989  11.261  13.285
61621SOL    HW286761   0.934  11.376  13.203
61622SOL     OW86762  11.359   1.790   0.233
61622SOL    HW186763  11.389   1.742   0.157
61622SOL    HW286764  11.371   1.882   0.210
61623SOL     OW86765  13.162   7.324   4.323
61623SOL    HW186766  13.109   7.286   4.254
61623SOL    HW286767  13.251   7.293   4.305
61624SOL     OW86768  12.168   9.297   6.546
61624SOL    HW186769  12.230   9.363   6.578
61624SOL    HW286770  12.083   9.325   6.581
61625SOL     OW86771   7.774   3.252  11.132
61625SOL    HW186772   7.807   3.258  11.222
61625SOL    HW286773   7.706   3.319  11.127
61626SOL     OW86774  11.965  12.629   3.928
61626SOL    HW186775  11.906  12.592   3.994
61626SOL    HW286776  11.922  12.711   3.901
61627SOL     OW86777  14.843   1.982  12.414
61627SOL    HW186778   0.022   1.910  12.375
61627SOL    HW286779  14.773   2.001  12.351
61628SOL     OW86780   6.276  10.690   7.419
61628SOL    HW186781   6.245  10.770   7.461
61628SOL    HW286782   6.206  10.626   7.433
61629SOL     OW86783  10.878   4.589   2.197
61629SOL    HW186784  10.897   4.659   2.259
61629SOL    HW286785  10.964   4.548   2.182
61630SOL     OW86786   1.284   8.067   0.265
61630SOL    HW186787   1.260   7.999   0.201
61630SOL    HW286788   1.295   8.146   0.212
61631SOL     OW86789  13.623   4.208   9.743
61631SOL    HW186790  13.623   4.303   9.759
61631SOL    HW286791  13.534   4.188   9.716
61632SOL     OW86792   1.597  13.496  11.638
61632SOL    HW186793   1.545  13.550  11.579
61632SOL    HW286794   1.550  13.414  11.645
61633SOL     OW86795  11.474  13.766  10.208
61633SOL    HW186796  11.541  13.824  10.245
61633SOL    HW286797  11.523  13.700  10.159
61634SOL     OW86798   7.032   8.499   5.789
61634SOL    HW186799   7.002   8.441   5.720
61634SOL    HW286800   6.960   8.560   5.803
61635SOL     OW86801   4.683   2.417  14.506
61635SOL    HW186802   4.631   2.359  14.561
61635SOL    HW286803   4.761   2.365  14.484
61636SOL     OW86804  10.853  14.028   2.170
61636SOL    HW186805  10.856  14.099   2.234
61636SOL    HW286806  10.785  14.055   2.108
61637SOL     OW86807  11.271   6.285  12.537
61637SOL    HW186808  11.351   6.315  12.494
61637SOL    HW286809  11.206   6.282  12.467
61638SOL     OW86810  14.022   9.229   0.207
61638SOL    HW186811  14.093   9.255   0.148
61638SOL    HW286812  14.063   9.227   0.294
61639SOL     OW86813   2.577  10.776  12.276
61639SOL    HW186814   2.569  10.696  12.224
61639SOL    HW286815   2.568  10.847  12.212
61640SOL     OW86816   4.451  13.107   3.225
61640SOL    HW186817   4.446  13.090   3.131
61640SOL    HW286818   4.543  13.093   3.247
61641SOL     OW86819  13.762   5.615   0.568
61641SOL    HW186820  13.824   5.605   0.496
61641SOL    HW286821  13.679   5.582   0.533
61642SOL     OW86822   6.807  13.633  12.453
61642SOL    HW186823   6.795  13.726  12.473
61642SOL    HW286824   6.757  13.588  12.522
61643SOL     OW86825   7.703   7.064   4.344
61643SOL    HW186826   7.776   7.011   4.377
61643SOL    HW286827   7.735   7.154   4.349
61644SOL     OW86828   0.827   9.497   2.676
61644SOL    HW186829   0.759   9.544   2.724
61644SOL    HW286830   0.907   9.546   2.694
61645SOL     OW86831  13.561  14.684   5.968
61645SOL    HW186832  13.472  14.651   5.957
61645SOL    HW286833  13.605  14.617   6.021
61646SOL     OW86834   8.086   5.311  11.378
61646SOL    HW186835   8.072   5.375  11.308
61646SOL    HW286836   8.046   5.231  11.345
61647SOL     OW86837   3.893   3.890  14.675
61647SOL    HW186838   3.874   3.890  14.582
61647SOL    HW286839   3.874   3.801  14.705
61648SOL     OW86840   8.515   3.439  10.152
61648SOL    HW186841   8.435   3.480  10.119
61648SOL    HW286842   8.553   3.504  10.212
61649SOL     OW86843   1.018   8.385   5.438
61649SOL    HW186844   0.944   8.325   5.435
61649SOL    HW286845   1.048   8.392   5.347
61650SOL     OW86846   3.666   6.396   7.077
61650SOL    HW186847   3.628   6.483   7.064
61650SOL    HW286848   3.595   6.335   7.056
61651SOL     OW86849   4.543  13.580   5.820
61651SOL    HW186850   4.452  13.556   5.801
61651SOL    HW286851   4.545  13.597   5.914
61652SOL     OW86852   5.702  11.743   5.405
61652SOL    HW186853   5.687  11.801   5.480
61652SOL    HW286854   5.793  11.759   5.380
61653SOL     OW86855  12.216   6.452   6.186
61653SOL    HW186856  12.233   6.493   6.271
61653SOL    HW286857  12.185   6.524   6.131
61654SOL     OW86858  13.097   6.232   0.128
61654SOL    HW186859  13.052   6.253   0.047
61654SOL    HW286860  13.091   6.311   0.181
61655SOL     OW86861  11.485  11.643   3.578
61655SOL    HW186862  11.448  11.564   3.618
61655SOL    HW286863  11.428  11.662   3.504
61656SOL     OW86864   3.585   2.315   7.565
61656SOL    HW186865   3.545   2.260   7.632
61656SOL    HW286866   3.594   2.258   7.489
61657SOL     OW86867  10.499   4.055   5.966
61657SOL    HW186868  10.582   4.076   5.923
61657SOL    HW286869  10.433   4.062   5.897
61658SOL     OW86870   1.016   5.106   8.354
61658SOL    HW186871   0.950   5.073   8.294
61658SOL    HW286872   1.091   5.047   8.342
61659SOL     OW86873  12.748  14.403   9.060
61659SOL    HW186874  12.722  14.367   9.145
61659SOL    HW286875  12.833  14.362   9.042
61660SOL     OW86876   5.517  12.543   6.969
61660SOL    HW186877   5.581  12.493   6.918
61660SOL    HW286878   5.547  12.634   6.962
61661SOL     OW86879  11.516  14.172   5.326
61661SOL    HW186880  11.445  14.196   5.267
61661SOL    HW286881  11.522  14.077   5.319
61662SOL     OW86882   7.893   9.228   1.814
61662SOL    HW186883   7.973   9.242   1.763
61662SOL    HW286884   7.856   9.315   1.825
61663SOL     OW86885   4.944   1.518   0.581
61663SOL    HW186886   4.873   1.461   0.611
61663SOL    HW286887   4.932   1.525   0.486
61664SOL     OW86888  13.910  12.059   4.104
61664SOL    HW186889  13.828  12.008   4.102
61664SOL    HW286890  13.978  11.995   4.084
61665SOL     OW86891   0.446   0.202  13.317
61665SOL    HW186892   0.409   0.290  13.309
61665SOL    HW286893   0.456   0.172  13.227
61666SOL     OW86894   9.098   2.229   7.544
61666SOL    HW186895   9.181   2.234   7.591
61666SOL    HW286896   9.040   2.289   7.591
61667SOL     OW86897   6.834   9.456  13.246
61667SOL    HW186898   6.800   9.511  13.175
61667SOL    HW286899   6.853   9.518  13.317
61668SOL     OW86900  13.980  10.338   1.605
61668SOL    HW186901  14.042  10.265   1.611
61668SOL    HW286902  13.910  10.316   1.665
61669SOL     OW86903   7.505   2.103   2.470
61669SOL    HW186904   7.424   2.087   2.422
61669SOL    HW286905   7.478   2.154   2.547
61670SOL     OW86906  10.957   5.524  12.862
61670SOL    HW186907  10.938   5.443  12.910
61670SOL    HW286908  10.895   5.588  12.898
61671SOL     OW86909   7.189  13.781   4.979
61671SOL    HW186910   7.222  13.731   4.904
61671SOL    HW286911   7.179  13.870   4.946
61672SOL     OW86912   2.918   8.405   8.673
61672SOL    HW186913   2.898   8.422   8.765
61672SOL    HW286914   2.925   8.491   8.633
61673SOL     OW86915   9.552  14.687  13.769
61673SOL    HW186916   9.477  14.648  13.725
61673SOL    HW286917   9.628  14.653  13.723
61674SOL     OW86918   3.355   5.082   2.838
61674SOL    HW186919   3.359   5.093   2.933
61674SOL    HW286920   3.332   4.990   2.826
61675SOL     OW86921   3.394   1.924   8.421
61675SOL    HW186922   3.395   1.837   8.460
61675SOL    HW286923   3.487   1.949   8.418
61676SOL     OW86924  12.565   1.226  11.229
61676SOL    HW186925  12.592   1.281  11.155
61676SOL    HW286926  12.601   1.140  11.208
61677SOL     OW86927  10.468  10.915   4.830
61677SOL    HW186928  10.394  10.862   4.860
61677SOL    HW286929  10.470  10.989   4.891
61678SOL     OW86930  13.444   1.216   4.978
61678SOL    HW186931  13.349   1.222   4.980
61678SOL    HW286932  13.474   1.304   4.958
61679SOL     OW86933   0.260   5.455   3.647
61679SOL    HW186934   0.288   5.376   3.601
61679SOL    HW286935   0.332   5.517   3.635
61680SOL     OW86936  14.621   7.456   0.302
61680SOL    HW186937  14.642   7.372   0.343
61680SOL    HW286938  14.548   7.436   0.244
61681SOL     OW86939   3.547   9.574   4.138
61681SOL    HW186940   3.601   9.653   4.142
61681SOL    HW286941   3.508   9.568   4.225
61682SOL     OW86942   2.505   4.255  11.351
61682SOL    HW186943   2.595   4.234  11.327
61682SOL    HW286944   2.504   4.250  11.447
61683SOL     OW86945   2.297  10.156   2.460
61683SOL    HW186946   2.316  10.164   2.367
61683SOL    HW286947   2.287  10.247   2.490
61684SOL     OW86948   6.500   7.686  14.053
61684SOL    HW186949   6.475   7.599  14.086
61684SOL    HW286950   6.594   7.692  14.069
61685SOL     OW86951   8.699  11.748   6.454
61685SOL    HW186952   8.647  11.669   6.467
61685SOL    HW286953   8.737  11.766   6.540
61686SOL     OW86954   1.772   4.638   9.417
61686SOL    HW186955   1.859   4.670   9.394
61686SOL    HW286956   1.748   4.579   9.346
61687SOL     OW86957   5.670   0.324   3.149
61687SOL    HW186958   5.720   0.325   3.230
61687SOL    HW286959   5.681   0.411   3.112
61688SOL     OW86960  14.560  10.452  10.736
61688SOL    HW186961  14.648  10.460  10.773
61688SOL    HW286962  14.518  10.384  10.789
61689SOL     OW86963  12.715  12.367   7.180
61689SOL    HW186964  12.728  12.432   7.111
61689SOL    HW286965  12.761  12.403   7.256
61690SOL     OW86966  12.246  12.487   0.898
61690SOL    HW186967  12.152  12.495   0.881
61690SOL    HW286968  12.252  12.467   0.991
61691SOL     OW86969   7.510  10.035   2.412
61691SOL    HW186970   7.447  10.093   2.369
61691SOL    HW286971   7.486  10.037   2.504
61692SOL     OW86972   8.036   5.062  11.931
61692SOL    HW186973   8.115   5.114  11.940
61692SOL    HW286974   8.046   5.017  11.847
61693SOL     OW86975  10.350  12.721   3.593
61693SOL    HW186976  10.268  12.672   3.592
61693SOL    HW286977  10.363  12.745   3.684
61694SOL     OW86978   4.694  13.056  11.595
61694SOL    HW186979   4.761  13.122  11.579
61694SOL    HW286980   4.742  12.977  11.616
61695SOL     OW86981  10.493   3.572   3.709
61695SOL    HW186982  10.401   3.601   3.705
61695SOL    HW286983  10.528   3.595   3.623
61696SOL     OW86984   9.898   2.144  13.708
61696SOL    HW186985   9.889   2.233  13.742
61696SOL    HW286986   9.989   2.121  13.726
61697SOL     OW86987  12.323  10.965   5.523
61697SOL    HW186988  12.322  10.982   5.617
61697SOL    HW286989  12.234  10.986   5.493
61698SOL     OW86990   7.419   4.972  14.139
61698SOL    HW186991   7.358   4.965  14.213
61698SOL    HW286992   7.458   4.885  14.131
61699SOL     OW86993   3.027   3.957   8.607
61699SOL    HW186994   3.096   4.007   8.650
61699SOL    HW286995   2.974   4.022   8.562
61700SOL     OW86996  10.384   0.836  12.073
61700SOL    HW186997  10.436   0.756  12.076
61700SOL    HW286998  10.437   0.898  12.023
61701SOL     OW86999  13.012   0.406   9.351
61701SOL    HW187000  12.959   0.434   9.277
61701SOL    HW287001  12.965   0.441   9.428
61702SOL     OW87002  10.507   1.082  13.076
61702SOL    HW187003  10.500   1.178  13.072
61702SOL    HW287004  10.462   1.059  13.157
61703SOL     OW87005   9.515   3.652   4.871
61703SOL    HW187006   9.428   3.669   4.908
61703SOL    HW287007   9.573   3.650   4.948
61704SOL     OW87008   9.768  10.697   2.786
61704SOL    HW187009   9.732  10.624   2.735
61704SOL    HW287010   9.724  10.775   2.751
61705SOL     OW87011   8.153  14.496  10.372
61705SOL    HW187012   8.112  14.494  10.286
61705SOL    HW287013   8.139  14.408  10.407
61706SOL     OW87014  11.393   4.053   4.182
61706SOL    HW187015  11.340   3.999   4.240
61706SOL    HW287016  11.364   4.143   4.199
61707SOL     OW87017   6.430   5.008  12.565
61707SOL    HW187018   6.380   5.008  12.484
61707SOL    HW287019   6.518   5.036  12.539
61708SOL     OW87020  11.570   0.154   0.609
61708SOL    HW187021  11.543   0.143   0.700
61708SOL    HW287022  11.662   0.182   0.614
61709SOL     OW87023  14.298   4.034   0.570
61709SOL    HW187024  14.331   4.121   0.592
61709SOL    HW287025  14.347   4.009   0.492
61710SOL     OW87026   5.858   4.446   6.846
61710SOL    HW187027   5.786   4.497   6.810
61710SOL    HW287028   5.901   4.408   6.769
61711SOL     OW87029   9.905   3.636   2.772
61711SOL    HW187030   9.824   3.670   2.808
61711SOL    HW287031   9.946   3.588   2.845
61712SOL     OW87032  12.200   5.886  11.228
61712SOL    HW187033  12.220   5.795  11.208
61712SOL    HW287034  12.119   5.882  11.280
61713SOL     OW87035  13.288   0.231   5.445
61713SOL    HW187036  13.219   0.180   5.485
61713SOL    HW287037  13.366   0.212   5.496
61714SOL     OW87038   8.188   1.588   8.888
61714SOL    HW187039   8.120   1.567   8.824
61714SOL    HW287040   8.151   1.659   8.941
61715SOL     OW87041  14.792   4.191   5.367
61715SOL    HW187042  14.712   4.202   5.417
61715SOL    HW287043  14.833   4.112   5.403
61716SOL     OW87044   9.997   9.128   5.148
61716SOL    HW187045  10.016   9.059   5.084
61716SOL    HW287046  10.052   9.201   5.121
61717SOL     OW87047   7.692   6.188   6.688
61717SOL    HW187048   7.676   6.275   6.724
61717SOL    HW287049   7.605   6.153   6.670
61718SOL     OW87050   5.727   1.152   3.932
61718SOL    HW187051   5.653   1.203   3.900
61718SOL    HW287052   5.802   1.211   3.922
61719SOL     OW87053   5.600   6.326   0.850
61719SOL    HW187054   5.597   6.421   0.849
61719SOL    HW287055   5.568   6.302   0.937
61720SOL     OW87056   3.223   8.370   3.680
61720SOL    HW187057   3.148   8.380   3.622
61720SOL    HW287058   3.294   8.416   3.637
61721SOL     OW87059   5.341  11.721  13.576
61721SOL    HW187060   5.286  11.798  13.565
61721SOL    HW287061   5.328  11.694  13.667
61722SOL     OW87062   1.036   5.307   5.164
61722SOL    HW187063   1.044   5.390   5.117
61722SOL    HW287064   1.017   5.243   5.096
61723SOL     OW87065   6.857   0.524  12.857
61723SOL    HW187066   6.779   0.479  12.888
61723SOL    HW287067   6.834   0.559  12.771
61724SOL     OW87068   0.384   1.795  14.347
61724SOL    HW187069   0.328   1.869  14.369
61724SOL    HW287070   0.364   1.729  14.413
61725SOL     OW87071   2.775   4.067   7.735
61725SOL    HW187072   2.853   4.012   7.727
61725SOL    HW287073   2.702   4.004   7.735
61726SOL     OW87074  12.746   0.917   1.708
61726SOL    HW187075  12.693   0.880   1.778
61726SOL    HW287076  12.688   0.978   1.663
61727SOL     OW87077   7.383   1.312   9.198
61727SOL    HW187078   7.444   1.357   9.139
61727SOL    HW287079   7.438   1.277   9.268
61728SOL     OW87080   2.139  10.379   3.719
61728SOL    HW187081   2.150  10.459   3.668
61728SOL    HW287082   2.229  10.349   3.736
61729SOL     OW87083   0.358   1.123   6.969
61729SOL    HW187084   0.278   1.096   6.924
61729SOL    HW287085   0.356   1.219   6.966
61730SOL     OW87086  12.161   1.227   2.176
61730SOL    HW187087  12.256   1.219   2.187
61730SOL    HW287088  12.150   1.262   2.088
61731SOL     OW87089   8.285   2.383  10.660
61731SOL    HW187090   8.287   2.317  10.729
61731SOL    HW287091   8.377   2.407  10.647
61732SOL     OW87092   6.491  14.555   7.553
61732SOL    HW187093   6.520  14.622   7.614
61732SOL    HW287094   6.410  14.589   7.516
61733SOL     OW87095  10.273   7.850   8.984
61733SOL    HW187096  10.350   7.840   9.039
61733SOL    HW287097  10.301   7.909   8.914
61734SOL     OW87098   7.206  12.873  13.342
61734SOL    HW187099   7.231  12.965  13.338
61734SOL    HW287100   7.183  12.858  13.433
61735SOL     OW87101   0.319   1.405   5.420
61735SOL    HW187102   0.405   1.399   5.378
61735SOL    HW287103   0.327   1.353   5.499
61736SOL     OW87104  12.929   8.714   9.434
61736SOL    HW187105  12.965   8.792   9.393
61736SOL    HW287106  12.892   8.664   9.361
61737SOL     OW87107  13.381   8.310  11.103
61737SOL    HW187108  13.300   8.344  11.142
61737SOL    HW287109  13.404   8.236  11.159
61738SOL     OW87110   4.230   6.264   3.672
61738SOL    HW187111   4.198   6.354   3.661
61738SOL    HW287112   4.177   6.212   3.611
61739SOL     OW87113   7.375   0.128  11.661
61739SOL    HW187114   7.403   0.220  11.668
61739SOL    HW287115   7.346   0.105  11.749
61740SOL     OW87116  13.080   6.713  14.358
61740SOL    HW187117  13.164   6.749  14.329
61740SOL    HW287118  13.098   6.621  14.375
61741SOL     OW87119  11.270   7.133  14.512
61741SOL    HW187120  11.174   7.128  14.510
61741SOL    HW287121  11.294   7.092  14.595
61742SOL     OW87122   5.287   0.204   7.425
61742SOL    HW187123   5.338   0.251   7.491
61742SOL    HW287124   5.241   0.136   7.473
61743SOL     OW87125  13.759  10.781   8.653
61743SOL    HW187126  13.692  10.794   8.586
61743SOL    HW287127  13.738  10.846   8.720
61744SOL     OW87128   4.583   3.213   0.966
61744SOL    HW187129   4.679   3.216   0.962
61744SOL    HW287130   4.563   3.199   1.059
61745SOL     OW87131  11.425   6.855  11.352
61745SOL    HW187132  11.383   6.849  11.438
61745SOL    HW287133  11.371   6.800  11.295
61746SOL     OW87134  11.604   1.738  11.893
61746SOL    HW187135  11.569   1.668  11.948
61746SOL    HW287136  11.534   1.757  11.831
61747SOL     OW87137   9.590   6.080  13.739
61747SOL    HW187138   9.512   6.120  13.701
61747SOL    HW287139   9.557   6.019  13.805
61748SOL     OW87140   1.714   1.409   6.178
61748SOL    HW187141   1.737   1.459   6.257
61748SOL    HW287142   1.641   1.353   6.206
61749SOL     OW87143   4.084  14.635   8.302
61749SOL    HW187144   4.132  14.644   8.219
61749SOL    HW287145   3.992  14.632   8.276
61750SOL     OW87146  11.869  12.238   0.082
61750SOL    HW187147  11.956  12.278   0.091
61750SOL    HW287148  11.846  12.209   0.170
61751SOL     OW87149   3.312  11.474   2.241
61751SOL    HW187150   3.371  11.475   2.316
61751SOL    HW287151   3.368  11.450   2.167
61752SOL     OW87152   9.158   7.877  10.357
61752SOL    HW187153   9.166   7.961  10.402
61752SOL    HW287154   9.064   7.867  10.340
61753SOL     OW87155  11.014  12.176  10.492
61753SOL    HW187156  10.926  12.170  10.530
61753SOL    HW287157  10.999  12.181  10.398
61754SOL     OW87158  13.789  12.440   8.089
61754SOL    HW187159  13.703  12.482   8.085
61754SOL    HW287160  13.787  12.375   8.019
61755SOL     OW87161   0.131   7.620   5.415
61755SOL    HW187162   0.179   7.696   5.449
61755SOL    HW287163   0.178   7.595   5.335
61756SOL     OW87164   5.501   3.595  10.746
61756SOL    HW187165   5.462   3.636  10.670
61756SOL    HW287166   5.486   3.501  10.734
61757SOL     OW87167   4.392   4.558   9.162
61757SOL    HW187168   4.434   4.590   9.082
61757SOL    HW287169   4.371   4.637   9.212
61758SOL     OW87170   9.731  14.141   4.805
61758SOL    HW187171   9.818  14.110   4.828
61758SOL    HW287172   9.740  14.236   4.797
61759SOL     OW87173   1.424   9.243   3.610
61759SOL    HW187174   1.481   9.186   3.559
61759SOL    HW287175   1.480   9.274   3.682
61760SOL     OW87176   9.855  11.655   4.882
61760SOL    HW187177   9.895  11.657   4.969
61760SOL    HW287178   9.927  11.633   4.823
61761SOL     OW87179   5.726   3.269  14.150
61761SOL    HW187180   5.787   3.341  14.164
61761SOL    HW287181   5.761   3.222  14.075
61762SOL     OW87182  11.009   1.821  14.639
61762SOL    HW187183  11.040   1.844  14.551
61762SOL    HW287184  10.988   1.906  14.680
61763SOL     OW87185  14.262   2.543   0.049
61763SOL    HW187186  14.279   2.467  14.863
61763SOL    HW287187  14.167   2.552   0.048
61764SOL     OW87188   1.556  10.181   3.871
61764SOL    HW187189   1.489  10.125   3.831
61764SOL    HW287190   1.639  10.138   3.851
61765SOL     OW87191   6.316   8.927  12.723
61765SOL    HW187192   6.265   8.990  12.673
61765SOL    HW287193   6.374   8.887  12.659
61766SOL     OW87194   6.874  13.553  12.788
61766SOL    HW187195   6.801  13.519  12.735
61766SOL    HW287196   6.845  13.641  12.814
61767SOL     OW87197   6.910  14.575  13.390
61767SOL    HW187198   6.844  14.547  13.327
61767SOL    HW287199   6.863  14.632  13.451
61768SOL     OW87200   8.437   5.010   0.974
61768SOL    HW187201   8.404   4.943   0.914
61768SOL    HW287202   8.489   4.962   1.038
61769SOL     OW87203  12.091   8.736   1.368
61769SOL    HW187204  12.182   8.752   1.391
61769SOL    HW287205  12.061   8.671   1.431
61770SOL     OW87206   4.670   5.117   7.983
61770SOL    HW187207   4.754   5.162   7.969
61770SOL    HW287208   4.636   5.102   7.895
61771SOL     OW87209  13.339   6.540   0.996
61771SOL    HW187210  13.387   6.604   1.048
61771SOL    HW287211  13.356   6.456   1.039
61772SOL     OW87212   2.161   5.557   4.820
61772SOL    HW187213   2.111   5.558   4.739
61772SOL    HW287214   2.228   5.624   4.809
61773SOL     OW87215   3.146   3.331   6.617
61773SOL    HW187216   3.191   3.343   6.534
61773SOL    HW287217   3.149   3.417   6.659
61774SOL     OW87218  12.131  13.587  13.395
61774SOL    HW187219  12.141  13.657  13.460
61774SOL    HW287220  12.047  13.547  13.416
61775SOL     OW87221   9.879   0.352   2.497
61775SOL    HW187222   9.876   0.418   2.426
61775SOL    HW287223   9.943   0.288   2.467
61776SOL     OW87224   5.175   8.222  12.857
61776SOL    HW187225   5.158   8.315  12.844
61776SOL    HW287226   5.270   8.213  12.853
61777SOL     OW87227  13.623   3.855   9.039
61777SOL    HW187228  13.537   3.884   9.009
61777SOL    HW287229  13.646   3.783   8.980
61778SOL     OW87230   0.696   9.057  14.367
61778SOL    HW187231   0.645   9.129  14.404
61778SOL    HW287232   0.709   8.996  14.440
61779SOL     OW87233   6.793   7.549   1.762
61779SOL    HW187234   6.764   7.468   1.720
61779SOL    HW287235   6.856   7.587   1.701
61780SOL     OW87236  13.592  11.356   4.640
61780SOL    HW187237  13.532  11.327   4.571
61780SOL    HW287238  13.659  11.287   4.644
61781SOL     OW87239   2.090   1.505   7.054
61781SOL    HW187240   2.030   1.485   6.983
61781SOL    HW287241   2.035   1.544   7.122
61782SOL     OW87242  11.034  13.249   5.887
61782SOL    HW187243  11.057  13.292   5.805
61782SOL    HW287244  11.113  13.202   5.913
61783SOL     OW87245   0.269   2.901  12.067
61783SOL    HW187246   0.312   2.968  12.014
61783SOL    HW287247   0.304   2.914  12.155
61784SOL     OW87248  10.536   9.430   4.516
61784SOL    HW187249  10.597   9.442   4.443
61784SOL    HW287250  10.559   9.499   4.578
61785SOL     OW87251   9.621   2.844  12.204
61785SOL    HW187252   9.693   2.786  12.180
61785SOL    HW287253   9.661   2.916  12.251
61786SOL     OW87254   0.874   6.669   2.875
61786SOL    HW187255   0.803   6.716   2.831
61786SOL    HW287256   0.836   6.584   2.898
61787SOL     OW87257  13.327   8.472   6.010
61787SOL    HW187258  13.286   8.491   5.925
61787SOL    HW287259  13.280   8.527   6.072
61788SOL     OW87260   0.479   0.483   2.056
61788SOL    HW187261   0.457   0.454   1.968
61788SOL    HW287262   0.404   0.456   2.110
61789SOL     OW87263   1.585  10.207   0.634
61789SOL    HW187264   1.638  10.136   0.671
61789SOL    HW287265   1.563  10.262   0.709
61790SOL     OW87266   9.063   3.925  10.797
61790SOL    HW187267   9.008   3.885  10.864
61790SOL    HW287268   9.150   3.888  10.813
61791SOL     OW87269   3.728   0.533   3.152
61791SOL    HW187270   3.649   0.482   3.170
61791SOL    HW287271   3.712   0.573   3.066
61792SOL     OW87272   7.432  12.550   4.001
61792SOL    HW187273   7.478  12.621   3.956
61792SOL    HW287274   7.410  12.586   4.087
61793SOL     OW87275   0.425  14.762   4.872
61793SOL    HW187276   0.431  14.783   4.779
61793SOL    HW287277   0.356  14.696   4.877
61794SOL     OW87278   0.100   2.944   4.885
61794SOL    HW187279   0.145   2.871   4.929
61794SOL    HW287280   0.011   2.942   4.920
61795SOL     OW87281  13.289   6.504   8.845
61795SOL    HW187282  13.352   6.569   8.874
61795SOL    HW287283  13.331   6.460   8.771
61796SOL     OW87284   2.070   6.347  12.274
61796SOL    HW187285   2.164   6.333  12.283
61796SOL    HW287286   2.037   6.348  12.364
61797SOL     OW87287  14.502   1.261   4.810
61797SOL    HW187288  14.517   1.189   4.749
61797SOL    HW287289  14.583   1.268   4.861
61798SOL     OW87290   0.270   5.665  14.340
61798SOL    HW187291   0.209   5.682  14.268
61798SOL    HW287292   0.346   5.719  14.319
61799SOL     OW87293  11.323   6.297   5.488
61799SOL    HW187294  11.245   6.301   5.432
61799SOL    HW287295  11.388   6.350   5.442
61800SOL     OW87296   4.749   9.833   1.567
61800SOL    HW187297   4.740   9.913   1.619
61800SOL    HW287298   4.659   9.810   1.543
61801SOL     OW87299   5.544   5.871   2.222
61801SOL    HW187300   5.461   5.847   2.179
61801SOL    HW287301   5.517   5.917   2.301
61802SOL     OW87302  14.624   9.697   4.369
61802SOL    HW187303  14.579   9.782   4.375
61802SOL    HW287304  14.579   9.642   4.433
61803SOL     OW87305  12.387  12.506  11.159
61803SOL    HW187306  12.407  12.448  11.085
61803SOL    HW287307  12.334  12.576  11.121
61804SOL     OW87308  12.129   0.233   4.320
61804SOL    HW187309  12.081   0.250   4.401
61804SOL    HW287310  12.061   0.218   4.254
61805SOL     OW87311   9.395  10.652  12.831
61805SOL    HW187312   9.349  10.664  12.748
61805SOL    HW287313   9.356  10.716  12.890
61806SOL     OW87314   3.080   5.720   6.749
61806SOL    HW187315   3.106   5.759   6.666
61806SOL    HW287316   3.118   5.777   6.816
61807SOL     OW87317  14.078   5.098   1.838
61807SOL    HW187318  14.029   5.103   1.920
61807SOL    HW287319  14.125   5.181   1.834
61808SOL     OW87320   7.312   4.008   4.909
61808SOL    HW187321   7.230   3.974   4.944
61808SOL    HW287322   7.310   4.101   4.928
61809SOL     OW87323  13.093  10.388   0.327
61809SOL    HW187324  13.135  10.334   0.394
61809SOL    HW287325  13.058  10.463   0.375
61810SOL     OW87326  10.623   7.286   0.905
61810SOL    HW187327  10.544   7.267   0.855
61810SOL    HW287328  10.592   7.334   0.981
61811SOL     OW87329   9.300  13.481   9.479
61811SOL    HW187330   9.242  13.507   9.407
61811SOL    HW287331   9.242  13.469   9.554
61812SOL     OW87332   4.742   2.531   2.925
61812SOL    HW187333   4.680   2.462   2.900
61812SOL    HW287334   4.687   2.598   2.966
61813SOL     OW87335   2.348   8.594  12.827
61813SOL    HW187336   2.308   8.641  12.900
61813SOL    HW287337   2.416   8.653  12.795
61814SOL     OW87338  11.981  10.771   6.917
61814SOL    HW187339  11.896  10.737   6.890
61814SOL    HW287340  12.023  10.696   6.960
61815SOL     OW87341   3.479  11.602   0.279
61815SOL    HW187342   3.492  11.520   0.232
61815SOL    HW287343   3.433  11.576   0.359
61816SOL     OW87344   6.549   3.597   6.546
61816SOL    HW187345   6.489   3.590   6.472
61816SOL    HW287346   6.587   3.509   6.555
61817SOL     OW87347   9.626  14.216   2.777
61817SOL    HW187348   9.606  14.140   2.722
61817SOL    HW287349   9.694  14.184   2.837
61818SOL     OW87350  10.131   5.428   5.170
61818SOL    HW187351  10.062   5.390   5.225
61818SOL    HW287352  10.114   5.522   5.173
61819SOL     OW87353   5.009  12.205   6.347
61819SOL    HW187354   5.071  12.132   6.339
61819SOL    HW287355   4.962  12.205   6.264
61820SOL     OW87356  11.379   4.517  10.411
61820SOL    HW187357  11.431   4.487  10.337
61820SOL    HW287358  11.359   4.608  10.390
61821SOL     OW87359   1.548   5.567   7.794
61821SOL    HW187360   1.630   5.602   7.829
61821SOL    HW287361   1.532   5.618   7.715
61822SOL     OW87362   6.313  13.131   5.839
61822SOL    HW187363   6.405  13.121   5.816
61822SOL    HW287364   6.295  13.224   5.824
61823SOL     OW87365   7.582  14.090   6.705
61823SOL    HW187366   7.624  14.010   6.672
61823SOL    HW287367   7.492  14.063   6.724
61824SOL     OW87368   7.070   6.553  10.784
61824SOL    HW187369   7.094   6.637  10.746
61824SOL    HW287370   7.147   6.526  10.835
61825SOL     OW87371   4.515   0.431   1.693
61825SOL    HW187372   4.573   0.393   1.758
61825SOL    HW287373   4.549   0.519   1.678
61826SOL     OW87374  14.308  12.127   8.592
61826SOL    HW187375  14.221  12.094   8.567
61826SOL    HW287376  14.321  12.204   8.536
61827SOL     OW87377   1.585   7.266   5.303
61827SOL    HW187378   1.643   7.190   5.314
61827SOL    HW287379   1.614   7.328   5.370
61828SOL     OW87380  11.542   4.836   6.924
61828SOL    HW187381  11.553   4.823   6.830
61828SOL    HW287382  11.467   4.780   6.947
61829SOL     OW87383   3.846  13.810   0.745
61829SOL    HW187384   3.882  13.882   0.797
61829SOL    HW287385   3.755  13.836   0.727
61830SOL     OW87386   9.615  10.532   5.718
61830SOL    HW187387   9.520  10.538   5.721
61830SOL    HW287388   9.645  10.599   5.780
61831SOL     OW87389   1.002   0.603   4.755
61831SOL    HW187390   1.002   0.690   4.794
61831SOL    HW287391   1.067   0.554   4.806
61832SOL     OW87392   3.741   4.674   6.942
61832SOL    HW187393   3.821   4.648   6.895
61832SOL    HW287394   3.773   4.708   7.026
61833SOL     OW87395   0.789   2.190   4.203
61833SOL    HW187396   0.811   2.141   4.282
61833SOL    HW287397   0.863   2.177   4.144
61834SOL     OW87398   0.204   1.614   5.278
61834SOL    HW187399   0.186   1.548   5.211
61834SOL    HW287400   0.242   1.565   5.350
61835SOL     OW87401   1.389   7.622   3.186
61835SOL    HW187402   1.453   7.633   3.115
61835SOL    HW287403   1.420   7.681   3.255
61836SOL     OW87404   5.390   2.182  11.828
61836SOL    HW187405   5.343   2.103  11.803
61836SOL    HW287406   5.476   2.173  11.788
61837SOL     OW87407   7.758   3.092   6.066
61837SOL    HW187408   7.813   3.044   6.129
61837SOL    HW287409   7.670   3.057   6.079
61838SOL     OW87410   1.874  11.658   0.345
61838SOL    HW187411   1.920  11.683   0.425
61838SOL    HW287412   1.782  11.653   0.371
61839SOL     OW87413   6.789  11.497   7.331
61839SOL    HW187414   6.702  11.500   7.370
61839SOL    HW287415   6.804  11.404   7.313
61840SOL     OW87416  13.680   3.337   5.432
61840SOL    HW187417  13.750   3.281   5.467
61840SOL    HW287418  13.689   3.419   5.480
61841SOL     OW87419  13.000   2.602  13.782
61841SOL    HW187420  13.077   2.647  13.816
61841SOL    HW287421  12.950   2.577  13.859
61842SOL     OW87422   9.095  13.270   9.400
61842SOL    HW187423   9.067  13.361   9.400
61842SOL    HW287424   9.156  13.263   9.327
61843SOL     OW87425   9.238  10.856   4.664
61843SOL    HW187426   9.282  10.828   4.584
61843SOL    HW287427   9.309  10.880   4.723
61844SOL     OW87428   8.486  13.513  14.481
61844SOL    HW187429   8.400  13.472  14.492
61844SOL    HW287430   8.537  13.448  14.432
61845SOL     OW87431   6.643  13.034   0.702
61845SOL    HW187432   6.680  13.111   0.745
61845SOL    HW287433   6.709  12.966   0.713
61846SOL     OW87434  10.070   1.378   0.564
61846SOL    HW187435  10.045   1.315   0.632
61846SOL    HW287436   9.991   1.429   0.548
61847SOL     OW87437  13.023   1.802   7.149
61847SOL    HW187438  13.024   1.749   7.070
61847SOL    HW287439  12.954   1.867   7.134
61848SOL     OW87440  11.617   0.411   5.026
61848SOL    HW187441  11.630   0.441   5.116
61848SOL    HW287442  11.544   0.463   4.993
61849SOL     OW87443   2.823  12.244   4.849
61849SOL    HW187444   2.738  12.248   4.805
61849SOL    HW287445   2.806  12.194   4.929
61850SOL     OW87446  12.425   6.989   8.194
61850SOL    HW187447  12.331   6.986   8.208
61850SOL    HW287448  12.462   7.006   8.280
61851SOL     OW87449   5.775  11.774   3.292
61851SOL    HW187450   5.690  11.813   3.311
61851SOL    HW287451   5.779  11.772   3.196
61852SOL     OW87452   8.801   7.865   1.884
61852SOL    HW187453   8.753   7.903   1.810
61852SOL    HW287454   8.737   7.859   1.954
61853SOL     OW87455   1.843   8.223   0.769
61853SOL    HW187456   1.786   8.298   0.788
61853SOL    HW287457   1.834   8.209   0.674
61854SOL     OW87458   9.758   3.070   2.107
61854SOL    HW187459   9.831   3.125   2.135
61854SOL    HW287460   9.723   3.033   2.188
61855SOL     OW87461   6.172   5.854   1.368
61855SOL    HW187462   6.083   5.854   1.403
61855SOL    HW287463   6.192   5.947   1.355
61856SOL     OW87464   6.481   0.361  12.005
61856SOL    HW187465   6.471   0.270  11.980
61856SOL    HW287466   6.556   0.362  12.064
61857SOL     OW87467   1.116  13.728  10.581
61857SOL    HW187468   1.175  13.797  10.551
61857SOL    HW287469   1.037  13.774  10.609
61858SOL     OW87470   2.205   3.396   7.331
61858SOL    HW187471   2.124   3.421   7.374
61858SOL    HW287472   2.262   3.473   7.341
61859SOL     OW87473   4.645   2.013  10.506
61859SOL    HW187474   4.636   1.927  10.464
61859SOL    HW287475   4.560   2.055  10.490
61860SOL     OW87476   0.353   6.455   6.095
61860SOL    HW187477   0.386   6.456   6.185
61860SOL    HW287478   0.300   6.534   6.087
61861SOL     OW87479   4.141   7.769  14.217
61861SOL    HW187480   4.213   7.708  14.231
61861SOL    HW287481   4.109   7.749  14.129
61862SOL     OW87482   2.998   8.095   3.587
61862SOL    HW187483   2.908   8.119   3.608
61862SOL    HW287484   3.008   8.117   3.494
61863SOL     OW87485   6.089   4.600  11.365
61863SOL    HW187486   6.135   4.646  11.435
61863SOL    HW287487   6.103   4.655  11.288
61864SOL     OW87488   8.446   2.842  13.707
61864SOL    HW187489   8.454   2.935  13.726
61864SOL    HW287490   8.521   2.822  13.650
61865SOL     OW87491   8.320  14.734  13.726
61865SOL    HW187492   8.403  14.711  13.684
61865SOL    HW287493   8.300  14.659  13.783
61866SOL     OW87494  13.286  14.793  12.296
61866SOL    HW187495  13.318   0.011  12.318
61866SOL    HW287496  13.362  14.736  12.309
61867SOL     OW87497   8.526   9.866   4.239
61867SOL    HW187498   8.450   9.923   4.251
61867SOL    HW287499   8.551   9.839   4.328
61868SOL     OW87500   2.629  11.861  12.474
61868SOL    HW187501   2.642  11.767  12.463
61868SOL    HW287502   2.707  11.901  12.437
61869SOL     OW87503   3.959  12.078   3.480
61869SOL    HW187504   3.956  11.996   3.430
61869SOL    HW287505   3.907  12.060   3.558
61870SOL     OW87506   2.615  14.653  10.814
61870SOL    HW187507   2.539  14.693  10.856
61870SOL    HW287508   2.578  14.584  10.759
61871SOL     OW87509   8.948   9.181   8.571
61871SOL    HW187510   8.918   9.115   8.509
61871SOL    HW287511   8.964   9.259   8.518
61872SOL     OW87512   4.707   6.033  11.133
61872SOL    HW187513   4.786   6.073  11.167
61872SOL    HW287514   4.638   6.062  11.192
61873SOL     OW87515   0.653  10.287   6.353
61873SOL    HW187516   0.649  10.317   6.263
61873SOL    HW287517   0.745  10.265   6.368
61874SOL     OW87518   8.245   4.939   5.452
61874SOL    HW187519   8.220   5.028   5.428
61874SOL    HW287520   8.272   4.898   5.370
61875SOL     OW87521   4.907   9.213   2.751
61875SOL    HW187522   4.889   9.121   2.771
61875SOL    HW287523   4.900   9.218   2.655
61876SOL     OW87524  10.041   9.843   1.304
61876SOL    HW187525   9.975   9.775   1.289
61876SOL    HW287526  10.019   9.878   1.391
61877SOL     OW87527   9.179   0.654   9.607
61877SOL    HW187528   9.114   0.722   9.592
61877SOL    HW287529   9.156   0.617   9.692
61878SOL     OW87530   5.781  13.850   1.920
61878SOL    HW187531   5.855  13.894   1.962
61878SOL    HW287532   5.759  13.778   1.980
61879SOL     OW87533  10.692   8.480   5.244
61879SOL    HW187534  10.611   8.526   5.223
61879SOL    HW287535  10.663   8.391   5.268
61880SOL     OW87536   4.745   1.283   6.718
61880SOL    HW187537   4.698   1.207   6.751
61880SOL    HW287538   4.694   1.310   6.641
61881SOL     OW87539   5.455   1.962   1.823
61881SOL    HW187540   5.495   2.027   1.765
61881SOL    HW287541   5.361   1.980   1.818
61882SOL     OW87542   2.967  14.529  11.576
61882SOL    HW187543   2.903  14.562  11.639
61882SOL    HW287544   3.046  14.580  11.593
61883SOL     OW87545   0.490   5.181  12.252
61883SOL    HW187546   0.562   5.189  12.315
61883SOL    HW287547   0.476   5.270  12.220
61884SOL     OW87548   7.576   2.943   3.391
61884SOL    HW187549   7.609   3.008   3.329
61884SOL    HW287550   7.583   2.860   3.344
61885SOL     OW87551  13.148   3.641   5.028
61885SOL    HW187552  13.147   3.605   4.939
61885SOL    HW287553  13.056   3.663   5.046
61886SOL     OW87554   6.136   2.571  14.819
61886SOL    HW187555   6.116   2.573   0.042
61886SOL    HW287556   6.105   2.655  14.786
61887SOL     OW87557   4.841   2.633  11.484
61887SOL    HW187558   4.838   2.724  11.453
61887SOL    HW287559   4.764   2.592  11.445
61888SOL     OW87560   4.643  14.006   4.329
61888SOL    HW187561   4.568  14.042   4.280
61888SOL    HW287562   4.625  14.029   4.420
61889SOL     OW87563  11.956  12.524   4.614
61889SOL    HW187564  11.897  12.451   4.596
61889SOL    HW287565  12.043  12.490   4.592
61890SOL     OW87566   6.795  12.698  10.018
61890SOL    HW187567   6.848  12.763   9.974
61890SOL    HW287568   6.737  12.748  10.075
61891SOL     OW87569   9.136  11.322   1.189
61891SOL    HW187570   9.217  11.274   1.202
61891SOL    HW287571   9.096  11.280   1.112
61892SOL     OW87572   8.861  10.849   2.645
61892SOL    HW187573   8.819  10.932   2.621
61892SOL    HW287574   8.804  10.814   2.714
61893SOL     OW87575   1.427  10.453   4.474
61893SOL    HW187576   1.508  10.458   4.423
61893SOL    HW287577   1.435  10.373   4.525
61894SOL     OW87578  12.957   0.045   7.760
61894SOL    HW187579  13.014  14.838   7.752
61894SOL    HW287580  12.877   0.020   7.714
61895SOL     OW87581   1.670  11.257   0.196
61895SOL    HW187582   1.583  11.295   0.186
61895SOL    HW287583   1.689  11.264   0.289
61896SOL     OW87584   5.558   5.774  14.481
61896SOL    HW187585   5.569   5.702  14.419
61896SOL    HW287586   5.482   5.823  14.448
61897SOL     OW87587  12.797   5.540  13.653
61897SOL    HW187588  12.820   5.458  13.611
61897SOL    HW287589  12.705   5.554  13.632
61898SOL     OW87590  10.269   9.191   6.420
61898SOL    HW187591  10.359   9.164   6.399
61898SOL    HW287592  10.280   9.253   6.492
61899SOL     OW87593   8.359   0.230   1.718
61899SOL    HW187594   8.267   0.208   1.729
61899SOL    HW287595   8.394   0.235   1.808
61900SOL     OW87596  14.349   9.953  11.632
61900SOL    HW187597  14.332   9.876  11.687
61900SOL    HW287598  14.426   9.994  11.672
61901SOL     OW87599   8.980   3.960  12.439
61901SOL    HW187600   9.024   3.911  12.370
61901SOL    HW287601   9.040   3.956  12.513
61902SOL     OW87602   5.331   0.938  12.628
61902SOL    HW187603   5.238   0.939  12.648
61902SOL    HW287604   5.357   1.030  12.629
61903SOL     OW87605   5.598   1.602   7.913
61903SOL    HW187606   5.572   1.590   8.004
61903SOL    HW287607   5.617   1.514   7.882
61904SOL     OW87608  10.875  13.555  14.352
61904SOL    HW187609  10.925  13.473  14.354
61904SOL    HW287610  10.796  13.535  14.402
61905SOL     OW87611   6.335   0.730   7.381
61905SOL    HW187612   6.331   0.729   7.285
61905SOL    HW287613   6.276   0.800   7.407
61906SOL     OW87614  12.933   8.329   3.869
61906SOL    HW187615  12.968   8.416   3.849
61906SOL    HW287616  12.990   8.297   3.939
61907SOL     OW87617  13.400  10.552  12.332
61907SOL    HW187618  13.354  10.545  12.248
61907SOL    HW287619  13.459  10.477  12.334
61908SOL     OW87620   1.204   8.620   3.646
61908SOL    HW187621   1.214   8.614   3.741
61908SOL    HW287622   1.214   8.530   3.615
61909SOL     OW87623   5.487  12.348  11.753
61909SOL    HW187624   5.530  12.371  11.670
61909SOL    HW287625   5.411  12.405  11.757
61910SOL     OW87626   7.827   2.352   7.624
61910SOL    HW187627   7.757   2.316   7.569
61910SOL    HW287628   7.817   2.447   7.615
61911SOL     OW87629   4.229  10.257   2.937
61911SOL    HW187630   4.154  10.273   2.995
61911SOL    HW287631   4.242  10.163   2.941
61912SOL     OW87632  11.187   4.749   4.013
61912SOL    HW187633  11.259   4.812   4.008
61912SOL    HW287634  11.182   4.710   3.926
61913SOL     OW87635   4.880   6.046   8.269
61913SOL    HW187636   4.942   6.100   8.221
61913SOL    HW287637   4.926   6.022   8.349
61914SOL     OW87638  12.123  13.518   3.270
61914SOL    HW187639  12.091  13.597   3.315
61914SOL    HW287640  12.077  13.517   3.187
61915SOL     OW87641   5.814  13.900   5.339
61915SOL    HW187642   5.777  13.812   5.341
61915SOL    HW287643   5.884  13.898   5.404
61916SOL     OW87644   7.531   3.132   4.286
61916SOL    HW187645   7.498   3.145   4.197
61916SOL    HW287646   7.619   3.170   4.284
61917SOL     OW87647   7.552   5.543  14.581
61917SOL    HW187648   7.487   5.506  14.640
61917SOL    HW287649   7.504   5.609  14.531
61918SOL     OW87650   3.624   3.237  10.841
61918SOL    HW187651   3.564   3.196  10.903
61918SOL    HW287652   3.709   3.197  10.859
61919SOL     OW87653   4.221   9.078   0.198
61919SOL    HW187654   4.135   9.043   0.221
61919SOL    HW287655   4.206   9.125   0.116
61920SOL     OW87656   0.526   4.596  13.436
61920SOL    HW187657   0.578   4.667  13.475
61920SOL    HW287658   0.551   4.519  13.487
61921SOL     OW87659  14.560   5.613   4.393
61921SOL    HW187660  14.530   5.549   4.457
61921SOL    HW287661  14.500   5.687   4.403
61922SOL     OW87662  12.356  12.174  10.769
61922SOL    HW187663  12.335  12.158  10.677
61922SOL    HW287664  12.414  12.102  10.793
61923SOL     OW87665  10.746   4.262   6.547
61923SOL    HW187666  10.714   4.241   6.459
61923SOL    HW287667  10.669   4.255   6.603
61924SOL     OW87668   9.689   7.875  14.232
61924SOL    HW187669   9.773   7.851  14.272
61924SOL    HW287670   9.680   7.969  14.248
61925SOL     OW87671   5.830   4.683  11.368
61925SOL    HW187672   5.862   4.773  11.377
61925SOL    HW287673   5.907   4.628  11.380
61926SOL     OW87674   9.105  11.548  11.860
61926SOL    HW187675   9.035  11.488  11.884
61926SOL    HW287676   9.185  11.507  11.895
61927SOL     OW87677   4.791   8.291   4.556
61927SOL    HW187678   4.753   8.365   4.509
61927SOL    HW287679   4.725   8.265   4.620
61928SOL     OW87680   1.442   8.442   2.451
61928SOL    HW187681   1.479   8.406   2.532
61928SOL    HW287682   1.422   8.365   2.398
61929SOL     OW87683   9.075  11.738   7.420
61929SOL    HW187684   9.088  11.781   7.335
61929SOL    HW287685   8.998  11.683   7.407
61930SOL     OW87686  11.941   1.722  10.223
61930SOL    HW187687  12.021   1.676  10.247
61930SOL    HW287688  11.932   1.707  10.129
61931SOL     OW87689   9.610  10.393  10.864
61931SOL    HW187690   9.622  10.488  10.875
61931SOL    HW287691   9.567  10.384  10.779
61932SOL     OW87692  10.797   9.543  14.631
61932SOL    HW187693  10.849   9.495  14.696
61932SOL    HW287694  10.711   9.501  14.634
61933SOL     OW87695  12.815  14.676   6.275
61933SOL    HW187696  12.877  14.725   6.220
61933SOL    HW287697  12.824  14.586   6.245
61934SOL     OW87698   2.097  11.565  11.912
61934SOL    HW187699   2.178  11.614  11.900
61934SOL    HW287700   2.028  11.631  11.902
61935SOL     OW87701   3.813   5.979   2.563
61935SOL    HW187702   3.732   5.959   2.518
61935SOL    HW287703   3.830   5.902   2.618
61936SOL     OW87704   6.970  11.007  11.583
61936SOL    HW187705   7.043  11.067  11.599
61936SOL    HW287706   6.931  11.039  11.501
61937SOL     OW87707  13.450  14.166   6.664
61937SOL    HW187708  13.484  14.114   6.590
61937SOL    HW287709  13.475  14.116   6.741
61938SOL     OW87710  13.663  14.265   4.546
61938SOL    HW187711  13.621  14.326   4.606
61938SOL    HW287712  13.721  14.212   4.601
61939SOL     OW87713  10.011   8.213   0.343
61939SOL    HW187714  10.009   8.220   0.248
61939SOL    HW287715  10.053   8.129   0.360
61940SOL     OW87716  13.210   0.438  11.415
61940SOL    HW187717  13.215   0.345  11.391
61940SOL    HW287718  13.152   0.440  11.491
61941SOL     OW87719   3.367  13.899   3.735
61941SOL    HW187720   3.290  13.936   3.692
61941SOL    HW287721   3.403  13.838   3.671
61942SOL     OW87722  10.449  10.602   1.090
61942SOL    HW187723  10.470  10.666   1.158
61942SOL    HW287724  10.401  10.533   1.136
61943SOL     OW87725   5.137  12.852   7.063
61943SOL    HW187726   5.106  12.767   7.093
61943SOL    HW287727   5.063  12.911   7.078
61944SOL     OW87728   5.200   2.913   0.617
61944SOL    HW187729   5.159   2.960   0.690
61944SOL    HW287730   5.288   2.950   0.612
61945SOL     OW87731  11.769  13.968   6.371
61945SOL    HW187732  11.820  13.948   6.292
61945SOL    HW287733  11.686  14.000   6.337
61946SOL     OW87734  13.002   8.742   0.369
61946SOL    HW187735  12.982   8.692   0.290
61946SOL    HW287736  13.067   8.688   0.415
61947SOL     OW87737   0.210   1.443  11.078
61947SOL    HW187738   0.292   1.414  11.038
61947SOL    HW287739   0.182   1.517  11.025
61948SOL     OW87740   2.057   3.468  11.376
61948SOL    HW187741   2.117   3.415  11.429
61948SOL    HW287742   2.113   3.506  11.307
61949SOL     OW87743  10.191   9.695   5.600
61949SOL    HW187744  10.166   9.658   5.684
61949SOL    HW287745  10.203   9.789   5.618
61950SOL     OW87746   8.393   3.546   4.636
61950SOL    HW187747   8.334   3.586   4.573
61950SOL    HW287748   8.359   3.457   4.648
61951SOL     OW87749   7.849   5.775   1.704
61951SOL    HW187750   7.877   5.691   1.739
61951SOL    HW287751   7.860   5.837   1.776
61952SOL     OW87752   6.553  13.817   2.112
61952SOL    HW187753   6.545  13.787   2.203
61952SOL    HW287754   6.583  13.740   2.063
61953SOL     OW87755  14.423   2.454  10.765
61953SOL    HW187756  14.345   2.439  10.819
61953SOL    HW287757  14.393   2.511  10.694
61954SOL     OW87758   7.925   6.292   4.764
61954SOL    HW187759   7.972   6.333   4.836
61954SOL    HW287760   7.835   6.283   4.796
61955SOL     OW87761   0.593  10.113   9.534
61955SOL    HW187762   0.557  10.069   9.611
61955SOL    HW287763   0.683  10.079   9.527
61956SOL     OW87764   7.932   8.974   1.563
61956SOL    HW187765   8.009   8.928   1.594
61956SOL    HW287766   7.869   8.967   1.635
61957SOL     OW87767  11.785   2.774   0.886
61957SOL    HW187768  11.880   2.779   0.875
61957SOL    HW287769  11.760   2.695   0.839
61958SOL     OW87770   8.087   1.327  10.751
61958SOL    HW187771   8.137   1.267  10.805
61958SOL    HW287772   8.146   1.400  10.735
61959SOL     OW87773   3.561   1.058  10.271
61959SOL    HW187774   3.574   1.071  10.177
61959SOL    HW287775   3.481   1.004  10.276
61960SOL     OW87776   6.686   9.439   5.739
61960SOL    HW187777   6.736   9.507   5.784
61960SOL    HW287778   6.659   9.379   5.808
61961SOL     OW87779   1.250   9.364   6.397
61961SOL    HW187780   1.163   9.400   6.384
61961SOL    HW287781   1.236   9.269   6.404
61962SOL     OW87782  11.650  11.998   3.869
61962SOL    HW187783  11.721  12.061   3.865
61962SOL    HW287784  11.583  12.040   3.923
61963SOL     OW87785  11.136   3.872  14.674
61963SOL    HW187786  11.129   3.885  14.580
61963SOL    HW287787  11.132   3.777  14.685
61964SOL     OW87788  14.012   7.448   4.184
61964SOL    HW187789  13.927   7.404   4.177
61964SOL    HW287790  14.071   7.395   4.130
61965SOL     OW87791   2.275  11.052   0.475
61965SOL    HW187792   2.219  11.022   0.403
61965SOL    HW287793   2.296  10.973   0.524
61966SOL     OW87794  11.410   3.158   1.648
61966SOL    HW187795  11.328   3.117   1.620
61966SOL    HW287796  11.384   3.246   1.674
61967SOL     OW87797  14.562   5.394   4.113
61967SOL    HW187798  14.640   5.387   4.168
61967SOL    HW287799  14.491   5.411   4.174
61968SOL     OW87800   6.295   2.932   3.605
61968SOL    HW187801   6.333   3.013   3.640
61968SOL    HW287802   6.251   2.960   3.525
61969SOL     OW87803  14.802  13.040   9.270
61969SOL    HW187804  14.795  13.136   9.263
61969SOL    HW287805   0.001  13.026   9.335
61970SOL     OW87806  14.342   7.645   1.968
61970SOL    HW187807  14.359   7.611   1.880
61970SOL    HW287808  14.250   7.672   1.965
61971SOL     OW87809   1.687   7.333  10.269
61971SOL    HW187810   1.626   7.264  10.244
61971SOL    HW287811   1.640   7.415  10.251
61972SOL     OW87812  11.599   4.036  11.714
61972SOL    HW187813  11.688   4.014  11.739
61972SOL    HW287814  11.577   3.973  11.645
61973SOL     OW87815   8.769   8.746   8.299
61973SOL    HW187816   8.709   8.713   8.366
61973SOL    HW287817   8.797   8.667   8.251
61974SOL     OW87818  11.286   2.347  11.109
61974SOL    HW187819  11.330   2.270  11.073
61974SOL    HW287820  11.289   2.334  11.204
61975SOL     OW87821   0.977   3.078   8.785
61975SOL    HW187822   1.011   3.156   8.742
61975SOL    HW287823   1.013   3.005   8.734
61976SOL     OW87824  13.272   0.658   0.605
61976SOL    HW187825  13.326   0.592   0.563
61976SOL    HW287826  13.321   0.684   0.683
61977SOL     OW87827  13.837   6.513   8.047
61977SOL    HW187828  13.815   6.527   8.139
61977SOL    HW287829  13.897   6.438   8.048
61978SOL     OW87830  13.593  11.241   5.100
61978SOL    HW187831  13.612  11.147   5.102
61978SOL    HW287832  13.509  11.248   5.056
61979SOL     OW87833  11.718  13.953  13.811
61979SOL    HW187834  11.677  14.033  13.778
61979SOL    HW287835  11.648  13.908  13.858
61980SOL     OW87836   5.219   2.071   2.158
61980SOL    HW187837   5.274   2.150   2.161
61980SOL    HW287838   5.281   1.999   2.150
61981SOL     OW87839   5.757  14.560   7.171
61981SOL    HW187840   5.818  14.486   7.175
61981SOL    HW287841   5.752  14.583   7.078
61982SOL     OW87842   9.092   7.224  14.001
61982SOL    HW187843   9.154   7.284  13.960
61982SOL    HW287844   9.013   7.275  14.014
61983SOL     OW87845   7.622   4.775   9.367
61983SOL    HW187846   7.702   4.813   9.330
61983SOL    HW287847   7.650   4.688   9.398
61984SOL     OW87848   5.545   2.746   7.461
61984SOL    HW187849   5.468   2.786   7.420
61984SOL    HW287850   5.603   2.819   7.480
61985SOL     OW87851   7.550  10.980  14.432
61985SOL    HW187852   7.605  10.959  14.508
61985SOL    HW287853   7.549  11.075  14.428
61986SOL     OW87854  13.599  12.723   6.678
61986SOL    HW187855  13.569  12.635   6.653
61986SOL    HW287856  13.519  12.772   6.695
61987SOL     OW87857  12.296  10.627   6.703
61987SOL    HW187858  12.282  10.721   6.716
61987SOL    HW287859  12.209  10.589   6.715
61988SOL     OW87860  10.375   4.357   1.524
61988SOL    HW187861  10.405   4.276   1.564
61988SOL    HW287862  10.454   4.411   1.516
61989SOL     OW87863   2.372  12.634   1.231
61989SOL    HW187864   2.376  12.544   1.198
61989SOL    HW287865   2.280  12.658   1.225
61990SOL     OW87866  14.567  11.698  13.649
61990SOL    HW187867  14.556  11.620  13.594
61990SOL    HW287868  14.647  11.738  13.618
61991SOL     OW87869  13.892   3.597   8.494
61991SOL    HW187870  13.856   3.537   8.430
61991SOL    HW287871  13.846   3.679   8.478
61992SOL     OW87872   9.857  13.826   0.714
61992SOL    HW187873   9.873  13.900   0.773
61992SOL    HW287874   9.821  13.757   0.770
61993SOL     OW87875   2.600   4.628   4.489
61993SOL    HW187876   2.605   4.533   4.480
61993SOL    HW287877   2.611   4.662   4.400
61994SOL     OW87878   8.598   8.296   2.877
61994SOL    HW187879   8.639   8.290   2.791
61994SOL    HW287880   8.528   8.360   2.867
61995SOL     OW87881  13.877   1.492   5.760
61995SOL    HW187882  13.882   1.500   5.665
61995SOL    HW287883  13.939   1.557   5.793
61996SOL     OW87884   4.669   8.889   5.081
61996SOL    HW187885   4.739   8.842   5.035
61996SOL    HW287886   4.594   8.830   5.077
61997SOL     OW87887   7.959  11.943   3.780
61997SOL    HW187888   7.891  11.876   3.769
61997SOL    HW287889   7.923  12.003   3.846
61998SOL     OW87890   5.851  11.603  12.248
61998SOL    HW187891   5.927  11.658  12.229
61998SOL    HW287892   5.821  11.633  12.333
61999SOL     OW87893   3.566   0.456   9.677
61999SOL    HW187894   3.600   0.491   9.594
61999SOL    HW287895   3.578   0.361   9.669
62000SOL     OW87896  14.458   7.321  13.399
62000SOL    HW187897  14.432   7.286  13.484
62000SOL    HW287898  14.495   7.247  13.352
62001SOL     OW87899   4.011   4.820  14.136
62001SOL    HW187900   4.071   4.885  14.172
62001SOL    HW287901   4.068   4.748  14.108
62002SOL     OW87902   4.487  14.605   5.249
62002SOL    HW187903   4.512  14.697   5.253
62002SOL    HW287904   4.412  14.597   5.308
62003SOL     OW87905  12.548   7.966  13.050
62003SOL    HW187906  12.528   8.029  12.982
62003SOL    HW287907  12.474   7.971  13.111
62004SOL     OW87908  14.315   0.802  10.143
62004SOL    HW187909  14.360   0.808  10.227
62004SOL    HW287910  14.277   0.714  10.143
62005SOL     OW87911   1.625  10.320   5.791
62005SOL    HW187912   1.537  10.326   5.753
62005SOL    HW287913   1.683  10.358   5.725
62006SOL     OW87914  14.271  12.138   5.073
62006SOL    HW187915  14.309  12.101   4.993
62006SOL    HW287916  14.345  12.149   5.132
62007SOL     OW87917  11.559  11.728   2.103
62007SOL    HW187918  11.500  11.673   2.053
62007SOL    HW287919  11.647  11.702   2.075
62008SOL     OW87920   8.633  11.996   6.257
62008SOL    HW187921   8.669  11.909   6.273
62008SOL    HW287922   8.553  11.999   6.309
62009SOL     OW87923   6.592   7.413   9.146
62009SOL    HW187924   6.508   7.371   9.132
62009SOL    HW287925   6.579   7.504   9.118
62010SOL     OW87926  10.417  10.471  14.784
62010SOL    HW187927  10.334  10.423  14.787
62010SOL    HW287928  10.407  10.530  14.709
62011SOL     OW87929  12.930   0.900   7.939
62011SOL    HW187930  12.970   0.817   7.912
62011SOL    HW287931  13.001   0.963   7.937
62012SOL     OW87932   2.773   2.235  14.172
62012SOL    HW187933   2.771   2.323  14.133
62012SOL    HW287934   2.681   2.208  14.173
62013SOL     OW87935   6.150  11.028   8.881
62013SOL    HW187936   6.084  10.994   8.820
62013SOL    HW287937   6.109  11.021   8.967
62014SOL     OW87938   3.362   0.089   7.253
62014SOL    HW187939   3.403   0.155   7.197
62014SOL    HW287940   3.409   0.008   7.233
62015SOL     OW87941  11.032  11.362   4.918
62015SOL    HW187942  10.938  11.353   4.935
62015SOL    HW287943  11.060  11.432   4.977
62016SOL     OW87944  10.737   2.357   0.420
62016SOL    HW187945  10.735   2.449   0.445
62016SOL    HW287946  10.828   2.331   0.432
62017SOL     OW87947   3.844   6.781   5.564
62017SOL    HW187948   3.908   6.798   5.633
62017SOL    HW287949   3.795   6.705   5.595
62018SOL     OW87950  12.382   0.282   9.402
62018SOL    HW187951  12.474   0.278   9.425
62018SOL    HW287952  12.336   0.243   9.477
62019SOL     OW87953   2.794  10.560   3.591
62019SOL    HW187954   2.822  10.594   3.506
62019SOL    HW287955   2.743  10.632   3.630
62020SOL     OW87956   1.497   2.547   9.924
62020SOL    HW187957   1.476   2.512  10.010
62020SOL    HW287958   1.422   2.524   9.869
62021SOL     OW87959  12.720   9.695   0.874
62021SOL    HW187960  12.660   9.629   0.838
62021SOL    HW287961  12.663   9.763   0.908
62022SOL     OW87962  10.886   8.139   4.113
62022SOL    HW187963  10.860   8.055   4.150
62022SOL    HW287964  10.807   8.193   4.118
62023SOL     OW87965  13.195  13.735   3.428
62023SOL    HW187966  13.256  13.675   3.387
62023SOL    HW287967  13.207  13.722   3.522
62024SOL     OW87968   2.327  11.007   7.716
62024SOL    HW187969   2.320  10.987   7.810
62024SOL    HW287970   2.315  10.923   7.673
62025SOL     OW87971   5.398   6.881   8.827
62025SOL    HW187972   5.340   6.809   8.849
62025SOL    HW287973   5.472   6.872   8.886
62026SOL     OW87974   2.900   2.275   1.797
62026SOL    HW187975   2.926   2.366   1.811
62026SOL    HW287976   2.809   2.280   1.767
62027SOL     OW87977   2.910   6.406   1.231
62027SOL    HW187978   2.846   6.455   1.180
62027SOL    HW287979   2.859   6.360   1.297
62028SOL     OW87980  12.683  14.115   4.235
62028SOL    HW187981  12.685  14.070   4.150
62028SOL    HW287982  12.760  14.172   4.233
62029SOL     OW87983   8.038  13.476   8.713
62029SOL    HW187984   7.951  13.447   8.689
62029SOL    HW287985   8.029  13.509   8.802
62030SOL     OW87986  13.444  10.570  14.679
62030SOL    HW187987  13.368  10.608  14.722
62030SOL    HW287988  13.508  10.641  14.676
62031SOL     OW87989   6.356  11.763  13.378
62031SOL    HW187990   6.446  11.794  13.376
62031SOL    HW287991   6.313  11.809  13.307
62032SOL     OW87992   6.281  12.031  13.270
62032SOL    HW187993   6.218  12.088  13.314
62032SOL    HW287994   6.365  12.052  13.311
62033SOL     OW87995  12.939   1.906   3.594
62033SOL    HW187996  12.881   1.860   3.533
62033SOL    HW287997  13.017   1.927   3.542
62034SOL     OW87998   1.538   4.425  14.454
62034SOL    HW187999   1.557   4.373  14.533
62034SOL    HW288000   1.474   4.490  14.484
62035SOL     OW88001   5.267  12.535   0.230
62035SOL    HW188002   5.261  12.629   0.246
62035SOL    HW288003   5.358  12.521   0.204
62036SOL     OW88004   3.038   4.757   9.322
62036SOL    HW188005   3.014   4.665   9.315
62036SOL    HW288006   3.113   4.767   9.265
62037SOL     OW88007   0.945   7.140  12.678
62037SOL    HW188008   1.027   7.187  12.666
62037SOL    HW288009   0.915   7.165  12.765
62038SOL     OW88010   1.282   9.683   6.625
62038SOL    HW188011   1.277   9.770   6.587
62038SOL    HW288012   1.192   9.659   6.646
62039SOL     OW88013   7.703   0.741  12.169
62039SOL    HW188014   7.721   0.694  12.251
62039SOL    HW288015   7.608   0.752  12.169
62040SOL     OW88016   9.278  14.018   5.804
62040SOL    HW188017   9.266  13.959   5.878
62040SOL    HW288018   9.243  13.971   5.729
62041SOL     OW88019   7.882  14.378   5.143
62041SOL    HW188020   7.843  14.414   5.223
62041SOL    HW288021   7.894  14.284   5.163
62042SOL     OW88022   9.374   0.534   5.528
62042SOL    HW188023   9.456   0.497   5.559
62042SOL    HW288024   9.395   0.569   5.441
62043SOL     OW88025  11.745   7.901   9.162
62043SOL    HW188026  11.656   7.933   9.178
62043SOL    HW288027  11.754   7.902   9.067
62044SOL     OW88028  11.778   4.171  10.432
62044SOL    HW188029  11.813   4.202  10.349
62044SOL    HW288030  11.820   4.226  10.498
62045SOL     OW88031   1.439   0.578   4.190
62045SOL    HW188032   1.351   0.615   4.183
62045SOL    HW288033   1.497   0.650   4.163
62046SOL     OW88034   3.084   6.288  10.582
62046SOL    HW188035   3.117   6.271  10.670
62046SOL    HW288036   3.023   6.216  10.565
62047SOL     OW88037   9.476   1.469  10.328
62047SOL    HW188038   9.533   1.545  10.317
62047SOL    HW288039   9.478   1.424  10.244
62048SOL     OW88040   0.141  14.807  14.249
62048SOL    HW188041   0.210  14.852  14.200
62048SOL    HW288042   0.113   0.001  14.315
62049SOL     OW88043   7.545   7.534  13.351
62049SOL    HW188044   7.538   7.439  13.339
62049SOL    HW288045   7.499   7.571  13.275
62050SOL     OW88046  13.731  14.741   6.515
62050SOL    HW188047  13.656  14.798   6.531
62050SOL    HW288048  13.793  14.763   6.584
62051SOL     OW88049  10.005  10.446   3.539
62051SOL    HW188050  10.059  10.462   3.617
62051SOL    HW288051   9.971  10.533   3.515
62052SOL     OW88052   7.452  11.482  14.322
62052SOL    HW188053   7.482  11.391  14.329
62052SOL    HW288054   7.440  11.496  14.228
62053SOL     OW88055   5.616   9.743   6.889
62053SOL    HW188056   5.687   9.775   6.944
62053SOL    HW288057   5.537   9.757   6.940
62054SOL     OW88058  11.159   9.899   8.603
62054SOL    HW188059  11.183   9.807   8.597
62054SOL    HW288060  11.123   9.921   8.517
62055SOL     OW88061   9.530   7.435  14.767
62055SOL    HW188062   9.611   7.466  14.727
62055SOL    HW288063   9.476   7.514  14.775
62056SOL     OW88064   3.102   3.631  12.036
62056SOL    HW188065   3.021   3.654  11.990
62056SOL    HW288066   3.170   3.635  11.968
62057SOL     OW88067   2.796   6.090  12.656
62057SOL    HW188068   2.813   6.085  12.562
62057SOL    HW288069   2.842   6.169  12.684
62058SOL     OW88070   1.213   3.849   0.827
62058SOL    HW188071   1.274   3.922   0.837
62058SOL    HW288072   1.223   3.822   0.736
62059SOL     OW88073   5.560   4.540   1.939
62059SOL    HW188074   5.564   4.636   1.937
62059SOL    HW288075   5.648   4.513   1.963
62060SOL     OW88076  10.944   0.016  14.740
62060SOL    HW188077  10.976   0.003  14.651
62060SOL    HW288078  10.897   0.100  14.737
62061SOL     OW88079   0.445   2.526   1.781
62061SOL    HW188080   0.452   2.506   1.874
62061SOL    HW288081   0.353   2.550   1.768
62062SOL     OW88082   0.414  11.285  10.800
62062SOL    HW188083   0.510  11.277  10.807
62062SOL    HW288084   0.400  11.330  10.718
62063SOL     OW88085   0.121   5.408  12.494
62063SOL    HW188086   0.090   5.451  12.573
62063SOL    HW288087   0.063   5.440  12.425
62064SOL     OW88088  12.498  14.605  14.318
62064SOL    HW188089  12.409  14.617  14.350
62064SOL    HW288090  12.490  14.602  14.223
62065SOL     OW88091   6.104  11.740   8.542
62065SOL    HW188092   6.009  11.743   8.529
62065SOL    HW288093   6.134  11.670   8.484
62066SOL     OW88094   0.206  14.426  11.951
62066SOL    HW188095   0.261  14.484  11.897
62066SOL    HW288096   0.176  14.481  12.023
62067SOL     OW88097  12.713  13.902   6.332
62067SOL    HW188098  12.752  13.966   6.272
62067SOL    HW288099  12.647  13.857   6.279
62068SOL     OW88100   9.704   9.735   8.722
62068SOL    HW188101   9.643   9.756   8.793
62068SOL    HW288102   9.695   9.807   8.660
62069SOL     OW88103  10.283  11.257   1.974
62069SOL    HW188104  10.282  11.331   1.912
62069SOL    HW288105  10.314  11.296   2.056
62070SOL     OW88106   2.875  10.340   7.110
62070SOL    HW188107   2.854  10.267   7.169
62070SOL    HW288108   2.826  10.321   7.030
62071SOL     OW88109  14.197   2.550   2.973
62071SOL    HW188110  14.107   2.575   2.952
62071SOL    HW288111  14.225   2.613   3.039
62072SOL     OW88112   9.561  10.374   9.182
62072SOL    HW188113   9.651  10.377   9.150
62072SOL    HW288114   9.558  10.439   9.252
62073SOL     OW88115  11.389  11.499   3.819
62073SOL    HW188116  11.316  11.438   3.805
62073SOL    HW288117  11.437  11.462   3.893
62074SOL     OW88118  10.523   2.677   4.897
62074SOL    HW188119  10.584   2.662   4.824
62074SOL    HW288120  10.470   2.597   4.900
62075SOL     OW88121   6.828  11.064  14.372
62075SOL    HW188122   6.912  11.020  14.358
62075SOL    HW288123   6.827  11.134  14.308
62076SOL     OW88124   1.371   1.118   5.269
62076SOL    HW188125   1.443   1.055   5.266
62076SOL    HW288126   1.319   1.100   5.191
62077SOL     OW88127   5.478   7.421   0.038
62077SOL    HW188128   5.571   7.444   0.042
62077SOL    HW288129   5.472   7.338   0.085
62078SOL     OW88130   8.558   0.782  10.027
62078SOL    HW188131   8.466   0.761  10.011
62078SOL    HW288132   8.605   0.703  10.000
62079SOL     OW88133   3.829  12.291   5.088
62079SOL    HW188134   3.913  12.253   5.061
62079SOL    HW288135   3.804  12.348   5.015
62080SOL     OW88136   3.294  13.015   6.572
62080SOL    HW188137   3.239  13.002   6.495
62080SOL    HW288138   3.384  13.006   6.539
62081SOL     OW88139   4.820   1.089  12.155
62081SOL    HW188140   4.759   1.017  12.141
62081SOL    HW288141   4.843   1.119  12.067
62082SOL     OW88142   8.902   9.449   1.770
62082SOL    HW188143   8.936   9.421   1.855
62082SOL    HW288144   8.840   9.519   1.791
62083SOL     OW88145  13.197   3.036  14.101
62083SOL    HW188146  13.213   2.958  14.152
62083SOL    HW288147  13.284   3.075  14.087
62084SOL     OW88148   8.118   3.309   5.091
62084SOL    HW188149   8.124   3.384   5.033
62084SOL    HW288150   8.104   3.346   5.178
62085SOL     OW88151  12.545  13.524  12.093
62085SOL    HW188152  12.562  13.473  12.014
62085SOL    HW288153  12.507  13.606  12.062
62086SOL     OW88154   7.546   3.178   8.952
62086SOL    HW188155   7.501   3.239   9.011
62086SOL    HW288156   7.630   3.162   8.994
62087SOL     OW88157   9.174   7.565   5.997
62087SOL    HW188158   9.129   7.646   6.021
62087SOL    HW288159   9.106   7.509   5.961
62088SOL     OW88160   4.927  12.779   1.522
62088SOL    HW188161   4.987  12.705   1.536
62088SOL    HW288162   4.874  12.753   1.446
62089SOL     OW88163   9.034   5.804   5.565
62089SOL    HW188164   9.043   5.893   5.532
62089SOL    HW288165   9.108   5.756   5.528
62090SOL     OW88166   4.172  12.338   4.391
62090SOL    HW188167   4.202  12.358   4.303
62090SOL    HW288168   4.248  12.355   4.447
62091SOL     OW88169  14.007   5.654   1.143
62091SOL    HW188170  13.966   5.592   1.202
62091SOL    HW288171  13.933   5.702   1.103
62092SOL     OW88172   2.636   7.143   5.365
62092SOL    HW188173   2.650   7.053   5.335
62092SOL    HW288174   2.658   7.197   5.289
62093SOL     OW88175   2.216   5.531  12.293
62093SOL    HW188176   2.195   5.566  12.207
62093SOL    HW288177   2.147   5.566  12.350
62094SOL     OW88178  10.089   6.327   3.233
62094SOL    HW188179  10.181   6.318   3.208
62094SOL    HW288180  10.091   6.340   3.328
62095SOL     OW88181   6.921  11.454  10.988
62095SOL    HW188182   6.895  11.533  10.942
62095SOL    HW288183   7.016  11.447  10.972
62096SOL     OW88184   9.684   3.742   3.320
62096SOL    HW188185   9.627   3.818   3.333
62096SOL    HW288186   9.751   3.750   3.388
62097SOL     OW88187   9.604   9.924   1.599
62097SOL    HW188188   9.596   9.969   1.683
62097SOL    HW288189   9.667   9.976   1.549
62098SOL     OW88190  11.170  14.626   2.387
62098SOL    HW188191  11.153  14.532   2.391
62098SOL    HW288192  11.170  14.648   2.294
62099SOL     OW88193  14.773  12.130   4.034
62099SOL    HW188194  14.768  12.070   3.960
62099SOL    HW288195  14.816  12.208   3.999
62100SOL     OW88196   0.800   5.371   9.478
62100SOL    HW188197   0.829   5.444   9.532
62100SOL    HW288198   0.704   5.377   9.480
62101SOL     OW88199   4.615   1.535   0.735
62101SOL    HW188200   4.525   1.545   0.766
62101SOL    HW288201   4.616   1.449   0.693
62102SOL     OW88202   1.928   1.018   5.223
62102SOL    HW188203   1.977   1.034   5.304
62102SOL    HW288204   1.838   1.002   5.252
62103SOL     OW88205  13.116   2.165   1.582
62103SOL    HW188206  13.206   2.166   1.614
62103SOL    HW288207  13.068   2.221   1.644
62104SOL     OW88208   6.550   6.138  13.524
62104SOL    HW188209   6.620   6.073  13.532
62104SOL    HW288210   6.475   6.089  13.490
62105SOL     OW88211  13.384   1.555  10.255
62105SOL    HW188212  13.406   1.638  10.298
62105SOL    HW288213  13.464   1.529  10.209
62106SOL     OW88214   1.292   2.985   8.948
62106SOL    HW188215   1.374   3.015   8.910
62106SOL    HW288216   1.234   2.972   8.873
62107SOL     OW88217   8.999   1.246  11.065
62107SOL    HW188218   9.023   1.338  11.082
62107SOL    HW288219   9.066   1.195  11.111
62108SOL     OW88220   9.472  14.725  14.298
62108SOL    HW188221   9.537  14.704  14.365
62108SOL    HW288222   9.448  14.640  14.260
62109SOL     OW88223   5.254  12.253   1.512
62109SOL    HW188224   5.258  12.184   1.578
62109SOL    HW288225   5.309  12.323   1.547
62110SOL     OW88226  14.506   4.041   8.910
62110SOL    HW188227  14.496   4.046   9.005
62110SOL    HW288228  14.464   3.958   8.885
62111SOL     OW88229  11.709   0.478   8.906
62111SOL    HW188230  11.787   0.441   8.866
62111SOL    HW288231  11.668   0.405   8.951
62112SOL     OW88232   1.198  14.683  14.300
62112SOL    HW188233   1.266  14.623  14.331
62112SOL    HW288234   1.172  14.731  14.379
62113SOL     OW88235  12.200  13.220   3.538
62113SOL    HW188236  12.154  13.215   3.454
62113SOL    HW288237  12.140  13.268   3.596
62114SOL     OW88238   3.876   4.008   8.939
62114SOL    HW188239   3.860   4.102   8.930
62114SOL    HW288240   3.844   3.970   8.857
62115SOL     OW88241   8.497   8.791   4.815
62115SOL    HW188242   8.479   8.736   4.738
62115SOL    HW288243   8.589   8.817   4.804
62116SOL     OW88244   9.618  11.786   3.378
62116SOL    HW188245   9.656  11.699   3.363
62116SOL    HW288246   9.589  11.815   3.292
62117SOL     OW88247   6.923  13.623   3.949
62117SOL    HW188248   6.887  13.583   4.028
62117SOL    HW288249   6.867  13.591   3.878
62118SOL     OW88250   4.222  12.429   2.140
62118SOL    HW188251   4.255  12.494   2.078
62118SOL    HW288252   4.242  12.467   2.226
62119SOL     OW88253   1.583   8.924  14.650
62119SOL    HW188254   1.512   8.950  14.592
62119SOL    HW288255   1.539   8.881  14.723
62120SOL     OW88256   3.999   2.274   9.680
62120SOL    HW188257   4.000   2.363   9.645
62120SOL    HW288258   3.959   2.284   9.767
62121SOL     OW88259   7.852  14.680   2.924
62121SOL    HW188260   7.920  14.643   2.980
62121SOL    HW288261   7.787  14.715   2.985
62122SOL     OW88262   1.127   4.709   9.188
62122SOL    HW188263   1.086   4.784   9.232
62122SOL    HW288264   1.221   4.724   9.197
62123SOL     OW88265  10.510   2.980   1.963
62123SOL    HW188266  10.452   2.905   1.972
62123SOL    HW288267  10.594   2.949   1.998
62124SOL     OW88268   2.179   1.752   9.007
62124SOL    HW188269   2.205   1.725   9.095
62124SOL    HW288270   2.231   1.697   8.948
62125SOL     OW88271   4.546   3.787   6.305
62125SOL    HW188272   4.589   3.746   6.380
62125SOL    HW288273   4.615   3.837   6.261
62126SOL     OW88274   4.115   4.823   3.047
62126SOL    HW188275   4.154   4.835   2.960
62126SOL    HW288276   4.033   4.872   3.044
62127SOL     OW88277  12.323   2.430   1.774
62127SOL    HW188278  12.281   2.371   1.835
62127SOL    HW288279  12.284   2.409   1.689
62128SOL     OW88280   5.525   0.249  11.915
62128SOL    HW188281   5.473   0.291  11.846
62128SOL    HW288282   5.466   0.242  11.989
62129SOL     OW88283   2.954   1.796   2.947
62129SOL    HW188284   3.020   1.770   2.883
62129SOL    HW288285   3.004   1.841   3.016
62130SOL     OW88286   8.253   8.692   1.820
62130SOL    HW188287   8.194   8.736   1.758
62130SOL    HW288288   8.324   8.658   1.766
62131SOL     OW88289   9.428  12.885   6.480
62131SOL    HW188290   9.394  12.972   6.498
62131SOL    HW288291   9.368  12.850   6.413
62132SOL     OW88292  13.000  12.612   6.802
62132SOL    HW188293  13.067  12.551   6.771
62132SOL    HW288294  13.016  12.618   6.897
62133SOL     OW88295   9.322  13.282  10.215
62133SOL    HW188296   9.392  13.328  10.261
62133SOL    HW288297   9.366  13.208  10.172
62134SOL     OW88298   0.357   9.840  11.810
62134SOL    HW188299   0.375   9.851  11.903
62134SOL    HW288300   0.317   9.754  11.803
62135SOL     OW88301   0.207   7.730   6.539
62135SOL    HW188302   0.226   7.797   6.473
62135SOL    HW288303   0.189   7.779   6.619
62136SOL     OW88304   7.486   8.418   2.323
62136SOL    HW188305   7.416   8.415   2.258
62136SOL    HW288306   7.449   8.379   2.402
62137SOL     OW88307   0.378  14.796   1.085
62137SOL    HW188308   0.361   0.019   1.069
62137SOL    HW288309   0.408  14.792   1.176
62138SOL     OW88310   7.385   4.168   0.982
62138SOL    HW188311   7.360   4.088   1.029
62138SOL    HW288312   7.481   4.169   0.985
62139SOL     OW88313   9.560   3.500   8.913
62139SOL    HW188314   9.587   3.536   8.828
62139SOL    HW288315   9.550   3.406   8.897
62140SOL     OW88316   0.707  11.120   5.287
62140SOL    HW188317   0.785  11.069   5.265
62140SOL    HW288318   0.724  11.206   5.247
62141SOL     OW88319  14.810   6.217   2.795
62141SOL    HW188320  14.719   6.189   2.806
62141SOL    HW288321  14.805   6.312   2.793
62142SOL     OW88322   0.197   2.013  14.393
62142SOL    HW188323   0.239   2.065  14.461
62142SOL    HW288324   0.103   2.027  14.407
62143SOL     OW88325  12.197  13.689   5.902
62143SOL    HW188326  12.177  13.742   5.825
62143SOL    HW288327  12.293  13.682   5.901
62144SOL     OW88328  11.511   3.333   7.311
62144SOL    HW188329  11.468   3.419   7.316
62144SOL    HW288330  11.553   3.321   7.396
62145SOL     OW88331   2.836   8.301   6.389
62145SOL    HW188332   2.867   8.304   6.479
62145SOL    HW288333   2.912   8.273   6.338
62146SOL     OW88334   3.412   4.929   4.813
62146SOL    HW188335   3.505   4.947   4.823
62146SOL    HW288336   3.405   4.892   4.724
62147SOL     OW88337  12.873  12.492   7.374
62147SOL    HW188338  12.891  12.584   7.394
62147SOL    HW288339  12.958  12.450   7.374
62148SOL     OW88340   2.683   8.836  11.695
62148SOL    HW188341   2.635   8.756  11.714
62148SOL    HW288342   2.685   8.841  11.600
62149SOL     OW88343   3.755   4.660   5.387
62149SOL    HW188344   3.729   4.569   5.375
62149SOL    HW288345   3.849   4.660   5.375
62150SOL     OW88346   0.276  13.622   0.325
62150SOL    HW188347   0.221  13.586   0.394
62150SOL    HW288348   0.310  13.544   0.280
62151SOL     OW88349   5.646  10.027   0.366
62151SOL    HW188350   5.629   9.933   0.367
62151SOL    HW288351   5.632  10.055   0.456
62152SOL     OW88352  10.656   7.596   6.856
62152SOL    HW188353  10.748   7.603   6.882
62152SOL    HW288354  10.619   7.529   6.914
62153SOL     OW88355   1.543   6.571  11.986
62153SOL    HW188356   1.638   6.564  11.987
62153SOL    HW288357   1.515   6.513  12.057
62154SOL     OW88358   9.778   4.592   4.775
62154SOL    HW188359   9.778   4.507   4.818
62154SOL    HW288360   9.855   4.591   4.719
62155SOL     OW88361   8.835   5.044   8.398
62155SOL    HW188362   8.928   5.024   8.395
62155SOL    HW288363   8.810   5.057   8.307
62156SOL     OW88364   7.890   7.705   6.586
62156SOL    HW188365   7.830   7.689   6.659
62156SOL    HW288366   7.834   7.710   6.509
62157SOL     OW88367  14.814  14.345   4.762
62157SOL    HW188368  14.773  14.273   4.715
62157SOL    HW288369  14.745  14.411   4.770
62158SOL     OW88370  11.275   1.013  14.699
62158SOL    HW188371  11.286   1.088  14.641
62158SOL    HW288372  11.232   0.947  14.644
62159SOL     OW88373   1.135   3.157  14.438
62159SOL    HW188374   1.099   3.229  14.490
62159SOL    HW288375   1.067   3.090  14.438
62160SOL     OW88376   6.548  11.571   3.514
62160SOL    HW188377   6.635  11.605   3.535
62160SOL    HW288378   6.563  11.479   3.491
62161SOL     OW88379   8.633  13.661  10.350
62161SOL    HW188380   8.644  13.627  10.439
62161SOL    HW288381   8.682  13.743  10.350
62162SOL     OW88382   4.207   5.126   7.077
62162SOL    HW188383   4.281   5.180   7.105
62162SOL    HW288384   4.202   5.056   7.142
62163SOL     OW88385  11.821  13.060   3.089
62163SOL    HW188386  11.795  12.980   3.134
62163SOL    HW288387  11.893  13.033   3.031
62164SOL     OW88388   6.458   6.496   1.775
62164SOL    HW188389   6.496   6.415   1.809
62164SOL    HW288390   6.521   6.564   1.798
62165SOL     OW88391   8.787   6.527   1.916
62165SOL    HW188392   8.752   6.612   1.941
62165SOL    HW288393   8.815   6.486   1.998
62166SOL     OW88394  10.560  12.223   5.895
62166SOL    HW188395  10.479  12.267   5.869
62166SOL    HW288396  10.591  12.181   5.815
62167SOL     OW88397   2.904   4.028  12.590
62167SOL    HW188398   2.859   4.068  12.515
62167SOL    HW288399   2.994   4.060  12.584
62168SOL     OW88400   8.026   6.857  14.017
62168SOL    HW188401   7.981   6.920  13.961
62168SOL    HW288402   8.111   6.842  13.974
62169SOL     OW88403   3.219   8.223   1.188
62169SOL    HW188404   3.124   8.238   1.191
62169SOL    HW288405   3.250   8.249   1.274
62170SOL     OW88406  10.161   6.621   7.954
62170SOL    HW188407  10.072   6.651   7.975
62170SOL    HW288408  10.151   6.528   7.935
62171SOL     OW88409   2.786   8.632  10.879
62171SOL    HW188410   2.835   8.703  10.836
62171SOL    HW288411   2.719   8.677  10.930
62172SOL     OW88412   2.889   0.365  12.817
62172SOL    HW188413   2.868   0.273  12.804
62172SOL    HW288414   2.956   0.384  12.751
62173SOL     OW88415  12.267   2.176   5.679
62173SOL    HW188416  12.236   2.248   5.624
62173SOL    HW288417  12.352   2.152   5.642
62174SOL     OW88418   2.474  12.055  12.400
62174SOL    HW188419   2.533  11.982  12.417
62174SOL    HW288420   2.426  12.029  12.321
62175SOL     OW88421  11.739   8.470  11.646
62175SOL    HW188422  11.674   8.485  11.714
62175SOL    HW288423  11.694   8.489  11.564
62176SOL     OW88424  11.576   6.258   3.807
62176SOL    HW188425  11.619   6.344   3.810
62176SOL    HW288426  11.551   6.240   3.898
62177SOL     OW88427   2.795  11.051   4.240
62177SOL    HW188428   2.777  10.971   4.190
62177SOL    HW288429   2.855  11.101   4.184
62178SOL     OW88430  11.967   7.508  12.446
62178SOL    HW188431  12.052   7.536  12.413
62178SOL    HW288432  11.907   7.578  12.419
62179SOL     OW88433   7.444  11.757   0.398
62179SOL    HW188434   7.423  11.776   0.490
62179SOL    HW288435   7.359  11.762   0.353
62180SOL     OW88436  10.211   6.808  10.233
62180SOL    HW188437  10.123   6.776  10.251
62180SOL    HW288438  10.200   6.902  10.219
62181SOL     OW88439  13.018   0.508   0.162
62181SOL    HW188440  12.993   0.457   0.085
62181SOL    HW288441  12.955   0.482   0.229
62182SOL     OW88442  10.134   2.867  14.366
62182SOL    HW188443  10.125   2.939  14.428
62182SOL    HW288444  10.184   2.903  14.293
62183SOL     OW88445   3.714   1.287  13.012
62183SOL    HW188446   3.711   1.371  13.056
62183SOL    HW288447   3.806   1.261  13.016
62184SOL     OW88448   4.811  10.449  13.655
62184SOL    HW188449   4.784  10.409  13.572
62184SOL    HW288450   4.847  10.535  13.629
62185SOL     OW88451   5.651   4.222   4.605
62185SOL    HW188452   5.661   4.209   4.699
62185SOL    HW288453   5.739   4.244   4.574
62186SOL     OW88454  10.557  13.855   2.321
62186SOL    HW188455  10.579  13.893   2.405
62186SOL    HW288456  10.557  13.760   2.337
62187SOL     OW88457   4.409   5.664   3.719
62187SOL    HW188458   4.492   5.694   3.681
62187SOL    HW288459   4.356   5.743   3.728
62188SOL     OW88460   1.472   6.445   4.618
62188SOL    HW188461   1.508   6.377   4.561
62188SOL    HW288462   1.468   6.405   4.704
62189SOL     OW88463   8.694  10.692   3.166
62189SOL    HW188464   8.783  10.660   3.177
62189SOL    HW288465   8.650  10.625   3.114
62190SOL     OW88466   6.664  12.292   0.811
62190SOL    HW188467   6.654  12.230   0.739
62190SOL    HW288468   6.753  12.326   0.801
62191SOL     OW88469  13.242   4.239   1.423
62191SOL    HW188470  13.324   4.194   1.401
62191SOL    HW288471  13.192   4.174   1.472
62192SOL     OW88472   4.204  11.423   3.463
62192SOL    HW188473   4.255  11.417   3.382
62192SOL    HW288474   4.205  11.333   3.497
62193SOL     OW88475   8.741  10.063   6.329
62193SOL    HW188476   8.776  10.115   6.402
62193SOL    HW288477   8.714   9.980   6.370
62194SOL     OW88478   2.701   6.567   3.308
62194SOL    HW188479   2.739   6.603   3.387
62194SOL    HW288480   2.761   6.594   3.238
62195SOL     OW88481   3.887   9.334  10.219
62195SOL    HW188482   3.881   9.379  10.304
62195SOL    HW288483   3.798   9.306  10.201
62196SOL     OW88484   6.509   4.060   8.768
62196SOL    HW188485   6.464   4.040   8.850
62196SOL    HW288486   6.595   4.019   8.778
62197SOL     OW88487   9.636   3.727   4.105
62197SOL    HW188488   9.684   3.646   4.123
62197SOL    HW288489   9.693   3.797   4.138
62198SOL     OW88490   3.471   9.928  13.769
62198SOL    HW188491   3.553   9.887  13.796
62198SOL    HW288492   3.409   9.855  13.761
62199SOL     OW88493   7.332  11.928  13.985
62199SOL    HW188494   7.317  11.994  13.918
62199SOL    HW288495   7.244  11.899  14.010
62200SOL     OW88496   4.604  11.188  13.692
62200SOL    HW188497   4.528  11.240  13.666
62200SOL    HW288498   4.567  11.109  13.730
62201SOL     OW88499  10.993  13.874  10.222
62201SOL    HW188500  11.064  13.839  10.275
62201SOL    HW288501  10.972  13.958  10.263
62202SOL     OW88502   7.864   6.129   8.966
62202SOL    HW188503   7.876   6.224   8.963
62202SOL    HW288504   7.804   6.111   8.893
62203SOL     OW88505   8.838  10.457   8.444
62203SOL    HW188506   8.836  10.499   8.359
62203SOL    HW288507   8.746  10.452   8.471
62204SOL     OW88508  14.862   1.065   1.837
62204SOL    HW188509  14.801   1.131   1.872
62204SOL    HW288510  14.830   0.982   1.872
62205SOL     OW88511   4.607   1.508   6.832
62205SOL    HW188512   4.590   1.601   6.815
62205SOL    HW288513   4.629   1.471   6.747
62206SOL     OW88514   8.571   0.915   6.859
62206SOL    HW188515   8.494   0.867   6.891
62206SOL    HW288516   8.617   0.851   6.804
62207SOL     OW88517  10.209   5.667  12.873
62207SOL    HW188518  10.119   5.668  12.906
62207SOL    HW288519  10.253   5.600  12.925
62208SOL     OW88520   2.233   6.985   9.149
62208SOL    HW188521   2.315   7.031   9.127
62208SOL    HW288522   2.188   6.975   9.065
62209SOL     OW88523  12.322   5.575   6.155
62209SOL    HW188524  12.403   5.523   6.153
62209SOL    HW288525  12.290   5.573   6.065
62210SOL     OW88526   1.139   0.085   9.976
62210SOL    HW188527   1.189   0.166   9.967
62210SOL    HW288528   1.052   0.107   9.943
62211SOL     OW88529   6.851   5.505  14.314
62211SOL    HW188530   6.882   5.506  14.405
62211SOL    HW288531   6.863   5.414  14.286
62212SOL     OW88532  11.630  10.152   7.468
62212SOL    HW188533  11.536  10.150   7.449
62212SOL    HW288534  11.669  10.196   7.392
62213SOL     OW88535  11.041   7.921   5.746
62213SOL    HW188536  11.115   7.865   5.720
62213SOL    HW288537  11.061   8.006   5.708
62214SOL     OW88538   4.256   3.962   5.982
62214SOL    HW188539   4.277   4.051   5.954
62214SOL    HW288540   4.250   3.912   5.901
62215SOL     OW88541   4.984   5.206   5.284
62215SOL    HW188542   5.013   5.236   5.198
62215SOL    HW288543   4.980   5.110   5.275
62216SOL     OW88544  13.525   9.497   5.790
62216SOL    HW188545  13.610   9.502   5.745
62216SOL    HW288546  13.475   9.569   5.753
62217SOL     OW88547   3.184   6.411  14.227
62217SOL    HW188548   3.223   6.327  14.252
62217SOL    HW288549   3.257   6.464  14.197
62218SOL     OW88550   4.113   5.828   1.694
62218SOL    HW188551   4.146   5.839   1.605
62218SOL    HW288552   4.183   5.782   1.740
62219SOL     OW88553   6.248  10.525  11.981
62219SOL    HW188554   6.265  10.538  11.888
62219SOL    HW288555   6.196  10.445  11.986
62220SOL     OW88556  11.653  11.416   3.674
62220SOL    HW188557  11.634  11.472   3.599
62220SOL    HW288558  11.588  11.441   3.740
62221SOL     OW88559   3.635   7.246  11.451
62221SOL    HW188560   3.677   7.186  11.513
62221SOL    HW288561   3.654   7.333  11.485
62222SOL     OW88562  12.960   9.737   0.755
62222SOL    HW188563  13.025   9.779   0.812
62222SOL    HW288564  12.880   9.734   0.807
62223SOL     OW88565  11.759  11.731   4.677
62223SOL    HW188566  11.727  11.647   4.709
62223SOL    HW288567  11.799  11.711   4.592
62224SOL     OW88568   5.916  13.955  13.673
62224SOL    HW188569   5.866  13.930  13.596
62224SOL    HW288570   5.863  14.023  13.715
62225SOL     OW88571  10.451  14.437   6.798
62225SOL    HW188572  10.433  14.390   6.879
62225SOL    HW288573  10.407  14.385   6.730
62226SOL     OW88574   7.540  14.702   8.121
62226SOL    HW188575   7.588  14.727   8.042
62226SOL    HW288576   7.584  14.750   8.191
62227SOL     OW88577   6.508   8.681   4.006
62227SOL    HW188578   6.432   8.662   3.951
62227SOL    HW288579   6.493   8.771   4.037
62228SOL     OW88580  14.089  10.758   8.513
62228SOL    HW188581  14.057  10.847   8.528
62228SOL    HW288582  14.033  10.703   8.568
62229SOL     OW88583   6.060  11.312  12.029
62229SOL    HW188584   6.138  11.258  12.039
62229SOL    HW288585   5.987  11.250  12.036
62230SOL     OW88586   4.946  11.671   0.099
62230SOL    HW188587   4.945  11.696   0.007
62230SOL    HW288588   4.909  11.747   0.145
62231SOL     OW88589   6.897   2.296  12.545
62231SOL    HW188590   6.966   2.312  12.481
62231SOL    HW288591   6.933   2.230  12.604
62232SOL     OW88592   6.090   1.856   2.114
62232SOL    HW188593   6.048   1.942   2.108
62232SOL    HW288594   6.180   1.871   2.084
62233SOL     OW88595  12.144   9.879  13.018
62233SOL    HW188596  12.120   9.972  13.012
62233SOL    HW288597  12.065   9.833  12.989
62234SOL     OW88598   0.118   5.317  14.738
62234SOL    HW188599   0.158   5.402  14.757
62234SOL    HW288600   0.024   5.331  14.754
62235SOL     OW88601  13.148   1.175   7.695
62235SOL    HW188602  13.091   1.178   7.773
62235SOL    HW288603  13.087   1.172   7.621
62236SOL     OW88604   5.584   5.793   6.661
62236SOL    HW188605   5.494   5.824   6.660
62236SOL    HW288606   5.590   5.740   6.741
62237SOL     OW88607  11.612   4.500   2.263
62237SOL    HW188608  11.578   4.457   2.185
62237SOL    HW288609  11.684   4.554   2.232
62238SOL     OW88610   0.400  12.851   5.897
62238SOL    HW188611   0.398  12.889   5.809
62238SOL    HW288612   0.433  12.762   5.884
62239SOL     OW88613  10.422   2.035  14.477
62239SOL    HW188614  10.495   2.090  14.448
62239SOL    HW288615  10.433   2.030  14.572
62240SOL     OW88616  13.952   2.787   7.942
62240SOL    HW188617  13.867   2.829   7.941
62240SOL    HW288618  13.948   2.727   8.017
62241SOL     OW88619   2.942   2.427  11.091
62241SOL    HW188620   2.916   2.464  11.175
62241SOL    HW288621   2.871   2.449  11.031
62242SOL     OW88622  10.257   0.621   9.801
62242SOL    HW188623  10.219   0.679   9.736
62242SOL    HW288624  10.347   0.652   9.812
62243SOL     OW88625   7.684   2.433   8.338
62243SOL    HW188626   7.769   2.442   8.296
62243SOL    HW288627   7.651   2.348   8.307
62244SOL     OW88628  11.413  10.765  13.217
62244SOL    HW188629  11.366  10.829  13.271
62244SOL    HW288630  11.364  10.684  13.229
62245SOL     OW88631  13.035   4.747  10.371
62245SOL    HW188632  13.020   4.834  10.407
62245SOL    HW288633  13.021   4.756  10.277
62246SOL     OW88634  12.163  10.712  14.586
62246SOL    HW188635  12.257  10.716  14.600
62246SOL    HW288636  12.148  10.628  14.542
62247SOL     OW88637  10.018   2.173  12.709
62247SOL    HW188638  10.045   2.265  12.718
62247SOL    HW288639  10.022   2.156  12.615
62248SOL     OW88640  13.879   7.428   6.133
62248SOL    HW188641  13.898   7.339   6.165
62248SOL    HW288642  13.940   7.484   6.180
62249SOL     OW88643   0.965  13.809   7.112
62249SOL    HW188644   1.020  13.850   7.178
62249SOL    HW288645   1.015  13.733   7.082
62250SOL     OW88646   3.060   8.968  14.089
62250SOL    HW188647   3.043   8.890  14.141
62250SOL    HW288648   2.973   9.008  14.079
62251SOL     OW88649   6.280   5.251   6.270
62251SOL    HW188650   6.244   5.336   6.292
62251SOL    HW288651   6.246   5.231   6.183
62252SOL     OW88652   7.214  11.774  12.887
62252SOL    HW188653   7.120  11.783  12.868
62252SOL    HW288654   7.254  11.765  12.800
62253SOL     OW88655  11.947   2.528  11.936
62253SOL    HW188656  11.875   2.585  11.911
62253SOL    HW288657  11.981   2.494  11.853
62254SOL     OW88658   9.212  12.848   9.800
62254SOL    HW188659   9.131  12.893   9.773
62254SOL    HW288660   9.195  12.822   9.890
62255SOL     OW88661  11.347  12.774   6.317
62255SOL    HW188662  11.327  12.681   6.318
62255SOL    HW288663  11.419  12.783   6.255
62256SOL     OW88664  13.944  11.555  14.699
62256SOL    HW188665  13.868  11.613  14.700
62256SOL    HW288666  13.914  11.475  14.742
62257SOL     OW88667   2.176  12.413   6.770
62257SOL    HW188668   2.227  12.486   6.735
62257SOL    HW288669   2.143  12.367   6.692
62258SOL     OW88670   1.163   8.310   1.108
62258SOL    HW188671   1.080   8.351   1.131
62258SOL    HW288672   1.160   8.299   1.013
62259SOL     OW88673   0.391   6.405   0.163
62259SOL    HW188674   0.357   6.386   0.076
62259SOL    HW288675   0.433   6.491   0.155
62260SOL     OW88676  12.749  14.514   9.767
62260SOL    HW188677  12.730  14.585   9.705
62260SOL    HW288678  12.774  14.558   9.848
62261SOL     OW88679   5.444   7.969  13.807
62261SOL    HW188680   5.385   7.946  13.735
62261SOL    HW288681   5.400   8.041  13.852
62262SOL     OW88682   3.882   1.535   7.525
62262SOL    HW188683   3.848   1.607   7.472
62262SOL    HW288684   3.824   1.462   7.505
62263SOL     OW88685   5.335   3.553   9.650
62263SOL    HW188686   5.244   3.582   9.645
62263SOL    HW288687   5.343   3.517   9.739
62264SOL     OW88688  10.817   3.515   2.127
62264SOL    HW188689  10.827   3.475   2.040
62264SOL    HW288690  10.905   3.544   2.150
62265SOL     OW88691   9.865   4.494   8.836
62265SOL    HW188692   9.869   4.565   8.899
62265SOL    HW288693   9.912   4.527   8.759
62266SOL     OW88694   8.575   1.656   6.795
62266SOL    HW188695   8.565   1.638   6.889
62266SOL    HW288696   8.669   1.666   6.783
62267SOL     OW88697   9.501   1.040   3.058
62267SOL    HW188698   9.516   1.027   3.152
62267SOL    HW288699   9.589   1.047   3.020
62268SOL     OW88700   0.606  13.547  14.779
62268SOL    HW188701   0.568  13.545  14.691
62268SOL    HW288702   0.537  13.512  14.835
62269SOL     OW88703   9.122   0.609  13.137
62269SOL    HW188704   9.180   0.594  13.062
62269SOL    HW288705   9.095   0.522  13.165
62270SOL     OW88706   4.769  12.648   4.463
62270SOL    HW188707   4.682  12.622   4.495
62270SOL    HW288708   4.799  12.572   4.414
62271SOL     OW88709   2.134  14.149   0.448
62271SOL    HW188710   2.194  14.208   0.493
62271SOL    HW288711   2.148  14.064   0.490
62272SOL     OW88712   8.622   2.212   4.802
62272SOL    HW188713   8.669   2.294   4.814
62272SOL    HW288714   8.610   2.204   4.708
62273SOL     OW88715  14.419   9.965  10.693
62273SOL    HW188716  14.471  10.034  10.652
62273SOL    HW288717  14.483   9.911  10.739
62274SOL     OW88718   1.915   2.406  10.606
62274SOL    HW188719   1.996   2.453  10.586
62274SOL    HW288720   1.861   2.418  10.528
62275SOL     OW88721   8.524  14.439  13.666
62275SOL    HW188722   8.543  14.452  13.573
62275SOL    HW288723   8.429  14.427  13.669
62276SOL     OW88724  13.601   0.163   2.149
62276SOL    HW188725  13.526   0.178   2.092
62276SOL    HW288726  13.569   0.105   2.218
62277SOL     OW88727   9.757  11.987   7.232
62277SOL    HW188728   9.722  11.899   7.220
62277SOL    HW288729   9.679  12.043   7.236
62278SOL     OW88730   5.091   7.682  11.445
62278SOL    HW188731   5.105   7.715  11.356
62278SOL    HW288732   5.133   7.747  11.501
62279SOL     OW88733   9.399   2.032   8.212
62279SOL    HW188734   9.442   1.991   8.137
62279SOL    HW288735   9.465   2.093   8.247
62280SOL     OW88736  10.916   9.837   3.561
62280SOL    HW188737  10.919   9.765   3.498
62280SOL    HW288738  11.005   9.872   3.561
62281SOL     OW88739   4.914  10.679  13.570
62281SOL    HW188740   4.957  10.757  13.605
62281SOL    HW288741   4.926  10.685  13.475
62282SOL     OW88742  14.696  10.808  13.346
62282SOL    HW188743  14.706  10.904  13.346
62282SOL    HW288744  14.643  10.789  13.270
62283SOL     OW88745   5.585  10.575   2.433
62283SOL    HW188746   5.670  10.588   2.476
62283SOL    HW288747   5.607  10.538   2.347
62284SOL     OW88748   8.777   1.379   3.726
62284SOL    HW188749   8.867   1.382   3.759
62284SOL    HW288750   8.781   1.425   3.642
62285SOL     OW88751   1.474   9.660   8.006
62285SOL    HW188752   1.499   9.734   8.062
62285SOL    HW288753   1.521   9.675   7.924
62286SOL     OW88754  13.548  13.475  12.891
62286SOL    HW188755  13.549  13.462  12.796
62286SOL    HW288756  13.639  13.461  12.918
62287SOL     OW88757   8.689  14.323  14.623
62287SOL    HW188758   8.699  14.333  14.717
62287SOL    HW288759   8.599  14.349  14.605
62288SOL     OW88760   7.908   4.200   0.413
62288SOL    HW188761   7.879   4.210   0.504
62288SOL    HW288762   7.901   4.288   0.375
62289SOL     OW88763   6.201  10.696   0.133
62289SOL    HW188764   6.189  10.720   0.041
62289SOL    HW288765   6.241  10.609   0.131
62290SOL     OW88766  10.596   5.986   6.239
62290SOL    HW188767  10.549   5.905   6.221
62290SOL    HW288768  10.555   6.022   6.317
62291SOL     OW88769  11.504   5.206  13.841
62291SOL    HW188770  11.497   5.290  13.795
62291SOL    HW288771  11.586   5.168  13.807
62292SOL     OW88772   7.676   5.613  11.559
62292SOL    HW188773   7.710   5.683  11.614
62292SOL    HW288774   7.581   5.625  11.559
62293SOL     OW88775   0.873   1.099  12.633
62293SOL    HW188776   0.961   1.136  12.632
62293SOL    HW288777   0.825   1.155  12.695
62294SOL     OW88778  13.909  10.937   5.624
62294SOL    HW188779  13.844  11.001   5.594
62294SOL    HW288780  13.858  10.870   5.669
62295SOL     OW88781   1.585   8.448   3.775
62295SOL    HW188782   1.572   8.541   3.754
62295SOL    HW288783   1.558   8.440   3.867
62296SOL     OW88784   8.962   9.013   0.337
62296SOL    HW188785   8.880   9.014   0.289
62296SOL    HW288786   9.021   9.068   0.286
62297SOL     OW88787  12.144  13.041   5.904
62297SOL    HW188788  12.052  13.028   5.884
62297SOL    HW288789  12.147  13.055   5.998
62298SOL     OW88790   2.152   9.122   3.333
62298SOL    HW188791   2.247   9.106   3.332
62298SOL    HW288792   2.122   9.077   3.412
62299SOL     OW88793  11.511   0.861   8.639
62299SOL    HW188794  11.516   0.780   8.588
62299SOL    HW288795  11.596   0.902   8.628
62300SOL     OW88796   5.358  12.037   4.014
62300SOL    HW188797   5.418  12.044   4.088
62300SOL    HW288798   5.346  11.943   4.001
62301SOL     OW88799   6.007   0.541  14.345
62301SOL    HW188800   5.971   0.499  14.267
62301SOL    HW288801   5.949   0.617  14.359
62302SOL     OW88802  11.959   0.809   6.319
62302SOL    HW188803  11.976   0.897   6.354
62302SOL    HW288804  12.017   0.801   6.243
62303SOL     OW88805   2.105   2.942   8.783
62303SOL    HW188806   2.146   2.884   8.848
62303SOL    HW288807   2.058   2.882   8.725
62304SOL     OW88808   4.035  11.242   5.047
62304SOL    HW188809   3.952  11.235   5.094
62304SOL    HW288810   4.099  11.264   5.115
62305SOL     OW88811   5.037   1.857  11.768
62305SOL    HW188812   5.000   1.774  11.738
62305SOL    HW288813   4.963   1.917  11.766
62306SOL     OW88814   6.168   8.278  12.814
62306SOL    HW188815   6.098   8.269  12.879
62306SOL    HW288816   6.209   8.192  12.812
62307SOL     OW88817   9.895   3.502   3.692
62307SOL    HW188818   9.808   3.541   3.685
62307SOL    HW288819   9.879   3.409   3.706
62308SOL     OW88820   9.540   7.717   4.464
62308SOL    HW188821   9.504   7.801   4.492
62308SOL    HW288822   9.596   7.689   4.536
62309SOL     OW88823  10.789   2.696   8.697
62309SOL    HW188824  10.736   2.771   8.670
62309SOL    HW288825  10.791   2.639   8.620
62310SOL     OW88826   3.396  14.176   5.428
62310SOL    HW188827   3.354  14.187   5.343
62310SOL    HW288828   3.480  14.221   5.419
62311SOL     OW88829   4.125  14.152   8.040
62311SOL    HW188830   4.100  14.143   7.948
62311SOL    HW288831   4.072  14.087   8.085
62312SOL     OW88832   9.571   9.511   4.760
62312SOL    HW188833   9.614   9.553   4.685
62312SOL    HW288834   9.574   9.417   4.740
62313SOL     OW88835   7.924  10.519  11.561
62313SOL    HW188836   7.832  10.511  11.583
62313SOL    HW288837   7.950  10.431  11.533
62314SOL     OW88838  13.886   2.355   3.218
62314SOL    HW188839  13.934   2.437   3.226
62314SOL    HW288840  13.953   2.288   3.205
62315SOL     OW88841  12.579   3.930  10.280
62315SOL    HW188842  12.613   3.841  10.281
62315SOL    HW288843  12.639   3.978  10.224
62316SOL     OW88844   9.616   2.569  10.292
62316SOL    HW188845   9.658   2.486  10.312
62316SOL    HW288846   9.689   2.630  10.279
62317SOL     OW88847  10.008  10.162  10.570
62317SOL    HW188848   9.928  10.145  10.521
62317SOL    HW288849  10.007  10.256  10.588
62318SOL     OW88850  14.577  14.054   1.896
62318SOL    HW188851  14.585  14.011   1.811
62318SOL    HW288852  14.661  14.038   1.939
62319SOL     OW88853  11.590   3.810   9.159
62319SOL    HW188854  11.527   3.753   9.114
62319SOL    HW288855  11.673   3.763   9.154
62320SOL     OW88856   7.813   2.531  11.333
62320SOL    HW188857   7.903   2.523  11.302
62320SOL    HW288858   7.812   2.482  11.415
62321SOL     OW88859   9.029  14.289   2.665
62321SOL    HW188860   9.086  14.364   2.680
62321SOL    HW288861   9.088  14.216   2.648
62322SOL     OW88862  10.591   7.583   8.266
62322SOL    HW188863  10.670   7.637   8.266
62322SOL    HW288864  10.543   7.609   8.345
62323SOL     OW88865   3.322   6.108  12.335
62323SOL    HW188866   3.284   6.024  12.308
62323SOL    HW288867   3.410   6.086  12.366
62324SOL     OW88868  14.715   0.411   1.528
62324SOL    HW188869  14.710   0.494   1.481
62324SOL    HW288870  14.657   0.423   1.604
62325SOL     OW88871   2.821   7.354   5.596
62325SOL    HW188872   2.871   7.275   5.571
62325SOL    HW288873   2.882   7.405   5.649
62326SOL     OW88874   6.795   4.802   6.689
62326SOL    HW188875   6.718   4.744   6.688
62326SOL    HW288876   6.762   4.886   6.659
62327SOL     OW88877  10.270  10.935   0.851
62327SOL    HW188878  10.253  10.890   0.934
62327SOL    HW288879  10.311  10.869   0.796
62328SOL     OW88880  13.896   3.564  14.153
62328SOL    HW188881  13.974   3.509  14.144
62328SOL    HW288882  13.823   3.504  14.142
62329SOL     OW88883  14.239   6.493   4.098
62329SOL    HW188884  14.328   6.502   4.066
62329SOL    HW288885  14.202   6.419   4.048
62330SOL     OW88886   8.175  11.754   2.205
62330SOL    HW188887   8.172  11.824   2.139
62330SOL    HW288888   8.097  11.701   2.187
62331SOL     OW88889   4.040  11.729   7.698
62331SOL    HW188890   4.135  11.734   7.703
62331SOL    HW288891   4.017  11.784   7.623
62332SOL     OW88892   6.867   3.792   2.528
62332SOL    HW188893   6.924   3.719   2.552
62332SOL    HW288894   6.866   3.848   2.605
62333SOL     OW88895  13.793  12.082   9.681
62333SOL    HW188896  13.843  12.104   9.602
62333SOL    HW288897  13.860  12.067   9.748
62334SOL     OW88898   0.786   1.085  14.412
62334SOL    HW188899   0.877   1.084  14.442
62334SOL    HW288900   0.771   1.175  14.384
62335SOL     OW88901   9.615  12.526   2.743
62335SOL    HW188902   9.589  12.617   2.730
62335SOL    HW288903   9.593  12.508   2.835
62336SOL     OW88904   4.959   0.218   4.555
62336SOL    HW188905   5.015   0.240   4.481
62336SOL    HW288906   4.893   0.287   4.557
62337SOL     OW88907   7.407   2.970   8.863
62337SOL    HW188908   7.441   3.059   8.866
62337SOL    HW288909   7.461   2.921   8.925
62338SOL     OW88910  10.306   7.947   6.785
62338SOL    HW188911  10.220   7.950   6.826
62338SOL    HW288912  10.299   7.878   6.719
62339SOL     OW88913   3.238   8.471   4.950
62339SOL    HW188914   3.248   8.495   4.858
62339SOL    HW288915   3.320   8.498   4.991
62340SOL     OW88916   1.265   6.849   0.809
62340SOL    HW188917   1.304   6.809   0.732
62340SOL    HW288918   1.270   6.782   0.877
62341SOL     OW88919   7.149   9.729   6.894
62341SOL    HW188920   7.085   9.677   6.845
62341SOL    HW288921   7.229   9.676   6.892
62342SOL     OW88922   6.844   3.462   0.102
62342SOL    HW188923   6.930   3.426   0.080
62342SOL    HW288924   6.783   3.415   0.045
62343SOL     OW88925   1.350   9.469   9.464
62343SOL    HW188926   1.307   9.423   9.536
62343SOL    HW288927   1.439   9.484   9.495
62344SOL     OW88928   5.836   0.075  11.085
62344SOL    HW188929   5.814   0.007  11.148
62344SOL    HW288930   5.770   0.143  11.098
62345SOL     OW88931   4.701   5.006   6.016
62345SOL    HW188932   4.707   5.067   5.942
62345SOL    HW288933   4.646   5.052   6.080
62346SOL     OW88934   6.286   0.401   0.691
62346SOL    HW188935   6.349   0.473   0.690
62346SOL    HW288936   6.211   0.435   0.641
62347SOL     OW88937  13.465   6.688   8.927
62347SOL    HW188938  13.555   6.659   8.910
62347SOL    HW288939  13.463   6.778   8.896
62348SOL     OW88940   1.252   0.757  11.126
62348SOL    HW188941   1.243   0.683  11.066
62348SOL    HW288942   1.171   0.807  11.116
62349SOL     OW88943   4.591   0.268   9.445
62349SOL    HW188944   4.646   0.346   9.453
62349SOL    HW288945   4.637   0.201   9.496
62350SOL     OW88946  11.789   6.869   0.009
62350SOL    HW188947  11.804   6.776   0.022
62350SOL    HW288948  11.712   6.874  14.822
62351SOL     OW88949   4.521   7.163   7.982
62351SOL    HW188950   4.538   7.070   7.968
62351SOL    HW288951   4.474   7.167   8.065
62352SOL     OW88952  10.791   3.682  14.675
62352SOL    HW188953  10.887   3.677  14.680
62352SOL    HW288954  10.766   3.613  14.613
62353SOL     OW88955   8.915   8.687   7.935
62353SOL    HW188956   8.881   8.763   7.889
62353SOL    HW288957   8.982   8.722   7.993
62354SOL     OW88958   2.715  10.482  11.181
62354SOL    HW188959   2.752  10.566  11.210
62354SOL    HW288960   2.791  10.429  11.159
62355SOL     OW88961  11.546   5.776  12.560
62355SOL    HW188962  11.532   5.687  12.526
62355SOL    HW288963  11.475   5.828  12.523
62356SOL     OW88964  13.604  13.413   7.269
62356SOL    HW188965  13.609  13.508   7.259
62356SOL    HW288966  13.618  13.379   7.181
62357SOL     OW88967   2.459   2.894  13.638
62357SOL    HW188968   2.542   2.937  13.617
62357SOL    HW288969   2.433   2.851  13.557
62358SOL     OW88970   1.178  12.951  14.318
62358SOL    HW188971   1.138  13.003  14.248
62358SOL    HW288972   1.262  12.922  14.282
62359SOL     OW88973   0.163  14.842   4.147
62359SOL    HW188974   0.084  14.858   4.095
62359SOL    HW288975   0.142  14.766   4.200
62360SOL     OW88976   4.740  10.394   4.866
62360SOL    HW188977   4.697  10.430   4.788
62360SOL    HW288978   4.827  10.368   4.836
62361SOL     OW88979   3.514   1.507   7.905
62361SOL    HW188980   3.506   1.417   7.937
62361SOL    HW288981   3.458   1.558   7.963
62362SOL     OW88982  11.783  11.208  10.733
62362SOL    HW188983  11.692  11.218  10.704
62362SOL    HW288984  11.835  11.254  10.667
62363SOL     OW88985  11.398  14.150   1.201
62363SOL    HW188986  11.392  14.095   1.122
62363SOL    HW288987  11.418  14.088   1.271
62364SOL     OW88988   7.116   5.756   7.202
62364SOL    HW188989   7.169   5.686   7.165
62364SOL    HW288990   7.035   5.755   7.152
62365SOL     OW88991  10.228   1.147   7.956
62365SOL    HW188992  10.284   1.109   8.024
62365SOL    HW288993  10.193   1.227   7.995
62366SOL     OW88994  13.285   2.091  10.337
62366SOL    HW188995  13.209   2.149  10.343
62366SOL    HW288996  13.338   2.111  10.414
62367SOL     OW88997   9.159  11.438   6.813
62367SOL    HW188998   9.239  11.482   6.840
62367SOL    HW288999   9.148  11.462   6.721
62368SOL     OW89000   8.566  11.906   4.701
62368SOL    HW189001   8.540  11.828   4.652
62368SOL    HW289002   8.653  11.885   4.735
62369SOL     OW89003   0.695   5.809   1.809
62369SOL    HW189004   0.775   5.780   1.852
62369SOL    HW289005   0.703   5.904   1.807
62370SOL     OW89006   9.818  12.234   9.763
62370SOL    HW189007   9.744  12.225   9.823
62370SOL    HW289008   9.781  12.226   9.676
62371SOL     OW89009   5.516   6.672   2.736
62371SOL    HW189010   5.420   6.667   2.735
62371SOL    HW289011   5.537   6.734   2.666
62372SOL     OW89012   1.561   2.799   0.488
62372SOL    HW189013   1.471   2.768   0.486
62372SOL    HW289014   1.569   2.846   0.571
62373SOL     OW89015   5.320   3.431   5.623
62373SOL    HW189016   5.377   3.357   5.643
62373SOL    HW289017   5.233   3.401   5.648
62374SOL     OW89018   8.887  11.101   1.920
62374SOL    HW189019   8.797  11.086   1.948
62374SOL    HW289020   8.911  11.184   1.961
62375SOL     OW89021   5.778   8.471   3.307
62375SOL    HW189022   5.779   8.391   3.255
62375SOL    HW289023   5.763   8.442   3.397
62376SOL     OW89024   9.575  13.446   7.622
62376SOL    HW189025   9.558  13.387   7.695
62376SOL    HW289026   9.566  13.391   7.544
62377SOL     OW89027   8.975  11.519  10.467
62377SOL    HW189028   8.973  11.467  10.387
62377SOL    HW289029   8.903  11.485  10.520
62378SOL     OW89030   6.656   4.281   9.482
62378SOL    HW189031   6.696   4.358   9.442
62378SOL    HW289032   6.729   4.233   9.520
62379SOL     OW89033   9.820   3.907  10.386
62379SOL    HW189034   9.867   3.971  10.439
62379SOL    HW289035   9.833   3.824  10.433
62380SOL     OW89036   2.208   9.158   4.629
62380SOL    HW189037   2.185   9.135   4.719
62380SOL    HW289038   2.151   9.104   4.574
62381SOL     OW89039   8.036   5.876   1.907
62381SOL    HW189040   8.023   5.969   1.921
62381SOL    HW289041   7.978   5.833   1.970
62382SOL     OW89042   2.678   9.272   7.405
62382SOL    HW189043   2.733   9.294   7.329
62382SOL    HW289044   2.590   9.300   7.380
62383SOL     OW89045   1.401  11.734   0.876
62383SOL    HW189046   1.361  11.716   0.791
62383SOL    HW289047   1.466  11.665   0.887
62384SOL     OW89048   5.950  12.117  10.923
62384SOL    HW189049   5.921  12.071  10.845
62384SOL    HW289050   5.955  12.049  10.990
62385SOL     OW89051  13.260  10.629  13.048
62385SOL    HW189052  13.188  10.642  13.110
62385SOL    HW289053  13.238  10.685  12.973
62386SOL     OW89054   0.758  10.520   8.312
62386SOL    HW189055   0.788  10.436   8.278
62386SOL    HW289056   0.674  10.501   8.353
62387SOL     OW89057   0.343   7.208  10.882
62387SOL    HW189058   0.267   7.233  10.936
62387SOL    HW289059   0.312   7.217  10.792
62388SOL     OW89060   1.867   5.081   6.505
62388SOL    HW189061   1.911   5.088   6.590
62388SOL    HW289062   1.800   5.148   6.507
62389SOL     OW89063   6.830   3.501  10.893
62389SOL    HW189064   6.880   3.463  10.820
62389SOL    HW289065   6.790   3.426  10.936
62390SOL     OW89066  13.331  13.397   5.636
62390SOL    HW189067  13.320  13.476   5.688
62390SOL    HW289068  13.241  13.368   5.617
62391SOL     OW89069   5.455  14.011   4.401
62391SOL    HW189070   5.375  14.061   4.418
62391SOL    HW289071   5.454  13.941   4.466
62392SOL     OW89072   5.922  14.434   4.492
62392SOL    HW189073   5.880  14.509   4.535
62392SOL    HW289074   5.867  14.418   4.415
62393SOL     OW89075   3.983   6.034   4.259
62393SOL    HW189076   3.959   6.122   4.287
62393SOL    HW289077   3.900   5.991   4.238
62394SOL     OW89078   0.222  13.882   1.607
62394SOL    HW189079   0.286  13.908   1.541
62394SOL    HW289080   0.274  13.855   1.683
62395SOL     OW89081  10.102  13.338  13.967
62395SOL    HW189082  10.076  13.426  13.995
62395SOL    HW289083  10.153  13.304  14.040
62396SOL     OW89084   7.322   7.583   2.751
62396SOL    HW189085   7.273   7.647   2.699
62396SOL    HW289086   7.412   7.590   2.719
62397SOL     OW89087  14.807   8.393   3.574
62397SOL    HW189088  14.781   8.406   3.665
62397SOL    HW289089  14.768   8.309   3.550
62398SOL     OW89090   5.871   1.014   5.491
62398SOL    HW189091   5.882   0.947   5.423
62398SOL    HW289092   5.848   1.093   5.443
62399SOL     OW89093   7.064   8.387  14.646
62399SOL    HW189094   6.996   8.320  14.653
62399SOL    HW289095   7.127   8.351  14.584
62400SOL     OW89096  11.031   0.719   6.693
62400SOL    HW189097  11.037   0.759   6.780
62400SOL    HW289098  10.980   0.782   6.642
62401SOL     OW89099  14.232  13.250  13.756
62401SOL    HW189100  14.292  13.305  13.807
62401SOL    HW289101  14.281  13.170  13.738
62402SOL     OW89102   9.205   8.120   7.326
62402SOL    HW189103   9.214   8.152   7.236
62402SOL    HW289104   9.122   8.072   7.326
62403SOL     OW89105  10.640  10.923   0.726
62403SOL    HW189106  10.605  10.900   0.812
62403SOL    HW289107  10.661  11.016   0.733
62404SOL     OW89108  11.812  12.029   5.421
62404SOL    HW189109  11.890  12.076   5.390
62404SOL    HW289110  11.796  12.064   5.509
62405SOL     OW89111   7.487   4.156   4.188
62405SOL    HW189112   7.428   4.098   4.138
62405SOL    HW289113   7.521   4.217   4.122
62406SOL     OW89114  10.618  10.607  11.309
62406SOL    HW189115  10.673  10.570  11.378
62406SOL    HW289116  10.659  10.577  11.227
62407SOL     OW89117   5.293  13.566  13.761
62407SOL    HW189118   5.279  13.603  13.848
62407SOL    HW289119   5.218  13.508  13.748
62408SOL     OW89120   7.778  12.411   4.656
62408SOL    HW189121   7.760  12.498   4.693
62408SOL    HW289122   7.700  12.360   4.679
62409SOL     OW89123   9.928  12.475   6.675
62409SOL    HW189124   9.904  12.440   6.590
62409SOL    HW289125   9.874  12.426   6.738
62410SOL     OW89126  14.796  14.385   1.858
62410SOL    HW189127  14.711  14.351   1.828
62410SOL    HW289128  14.832  14.429   1.781
62411SOL     OW89129   0.623   2.713   5.443
62411SOL    HW189130   0.604   2.789   5.499
62411SOL    HW289131   0.715   2.722   5.420
62412SOL     OW89132   1.405   1.088   8.316
62412SOL    HW189133   1.324   1.079   8.266
62412SOL    HW289134   1.395   1.171   8.363
62413SOL     OW89135   6.054   1.779   5.332
62413SOL    HW189136   6.107   1.855   5.357
62413SOL    HW289137   5.991   1.770   5.403
62414SOL     OW89138   5.627   9.335   0.083
62414SOL    HW189139   5.656   9.270   0.146
62414SOL    HW289140   5.553   9.294   0.038
62415SOL     OW89141   0.682   0.383   8.909
62415SOL    HW189142   0.765   0.430   8.916
62415SOL    HW289143   0.665   0.350   8.997
62416SOL     OW89144   0.387   7.768   1.189
62416SOL    HW189145   0.383   7.695   1.251
62416SOL    HW289146   0.375   7.846   1.243
62417SOL     OW89147  13.017  13.827   3.040
62417SOL    HW189148  13.035  13.917   3.013
62417SOL    HW289149  12.984  13.785   2.961
62418SOL     OW89150   5.995   0.509  11.994
62418SOL    HW189151   5.976   0.426  12.038
62418SOL    HW289152   5.971   0.493  11.903
62419SOL     OW89153   6.154  10.168   4.860
62419SOL    HW189154   6.158  10.260   4.836
62419SOL    HW289155   6.104  10.166   4.941
62420SOL     OW89156   1.531   4.195  10.694
62420SOL    HW189157   1.565   4.232  10.775
62420SOL    HW289158   1.605   4.195  10.634
62421SOL     OW89159   2.583  14.568   6.618
62421SOL    HW189160   2.537  14.635   6.568
62421SOL    HW289161   2.660  14.611   6.654
62422SOL     OW89162   8.302   4.716   2.727
62422SOL    HW189163   8.315   4.731   2.821
62422SOL    HW289164   8.364   4.648   2.705
62423SOL     OW89165   0.532   5.347   9.960
62423SOL    HW189166   0.477   5.269   9.956
62423SOL    HW289167   0.557   5.354  10.052
62424SOL     OW89168  12.979  13.511  13.143
62424SOL    HW189169  12.918  13.576  13.108
62424SOL    HW289170  13.062  13.529  13.099
62425SOL     OW89171   6.212   9.177  10.748
62425SOL    HW189172   6.197   9.236  10.822
62425SOL    HW289173   6.179   9.226  10.672
62426SOL     OW89174   8.818   9.819   2.163
62426SOL    HW189175   8.739   9.766   2.162
62426SOL    HW289176   8.888   9.758   2.187
62427SOL     OW89177   1.772   1.766   3.794
62427SOL    HW189178   1.680   1.761   3.768
62427SOL    HW289179   1.773   1.830   3.866
62428SOL     OW89180  10.076   6.698   1.743
62428SOL    HW189181  10.172   6.696   1.741
62428SOL    HW289182  10.055   6.715   1.835
62429SOL     OW89183   1.991   8.447   8.697
62429SOL    HW189184   1.925   8.458   8.766
62429SOL    HW289185   1.953   8.491   8.621
62430SOL     OW89186   9.675   2.558   0.889
62430SOL    HW189187   9.687   2.520   0.976
62430SOL    HW289188   9.722   2.499   0.831
62431SOL     OW89189  12.081   0.213   9.540
62431SOL    HW189190  12.081   0.187   9.632
62431SOL    HW289191  12.060   0.306   9.541
62432SOL     OW89192  13.650   3.752   0.869
62432SOL    HW189193  13.642   3.846   0.885
62432SOL    HW289194  13.703   3.746   0.790
62433SOL     OW89195   9.627   9.363   4.228
62433SOL    HW189196   9.651   9.338   4.317
62433SOL    HW289197   9.539   9.326   4.216
62434SOL     OW89198   0.827   7.679  13.866
62434SOL    HW189199   0.782   7.595  13.861
62434SOL    HW289200   0.914   7.662  13.829
62435SOL     OW89201   9.946   4.722  12.866
62435SOL    HW189202   9.994   4.791  12.820
62435SOL    HW289203   9.994   4.710  12.948
62436SOL     OW89204   0.188   6.210  12.365
62436SOL    HW189205   0.244   6.136  12.387
62436SOL    HW289206   0.187   6.213  12.270
62437SOL     OW89207   8.814  14.479   1.970
62437SOL    HW189208   8.773  14.405   1.925
62437SOL    HW289209   8.826  14.545   1.901
62438SOL     OW89210   7.500   5.895   1.977
62438SOL    HW189211   7.443   5.821   2.000
62438SOL    HW289212   7.469   5.966   2.033
62439SOL     OW89213   8.989   5.831   9.400
62439SOL    HW189214   8.945   5.888   9.338
62439SOL    HW289215   8.923   5.811   9.466
62440SOL     OW89216  13.688   7.138   9.196
62440SOL    HW189217  13.744   7.214   9.178
62440SOL    HW289218  13.691   7.129   9.291
62441SOL     OW89219   8.355  12.178   7.271
62441SOL    HW189220   8.417  12.239   7.230
62441SOL    HW289221   8.411  12.114   7.316
62442SOL     OW89222  14.292  10.362   3.449
62442SOL    HW189223  14.275  10.290   3.389
62442SOL    HW289224  14.334  10.429   3.396
62443SOL     OW89225  10.657   9.110   7.814
62443SOL    HW189226  10.725   9.151   7.868
62443SOL    HW289227  10.580   9.108   7.871
62444SOL     OW89228   6.861   2.143   4.295
62444SOL    HW189229   6.933   2.171   4.352
62444SOL    HW289230   6.785   2.141   4.353
62445SOL     OW89231   9.164  10.446   5.932
62445SOL    HW189232   9.229  10.454   6.001
62445SOL    HW289233   9.095  10.392   5.970
62446SOL     OW89234   0.534   6.878   5.682
62446SOL    HW189235   0.471   6.950   5.676
62446SOL    HW289236   0.575   6.889   5.768
62447SOL     OW89237   5.274   1.904   3.423
62447SOL    HW189238   5.291   1.961   3.497
62447SOL    HW289239   5.359   1.897   3.378
62448SOL     OW89240   9.203   0.377   8.395
62448SOL    HW189241   9.126   0.371   8.338
62448SOL    HW289242   9.277   0.360   8.338
62449SOL     OW89243  14.152  13.662  14.479
62449SOL    HW189244  14.193  13.743  14.509
62449SOL    HW289245  14.067  13.660  14.522
62450SOL     OW89246   8.500  11.307   2.957
62450SOL    HW189247   8.572  11.246   2.949
62450SOL    HW289248   8.440  11.284   2.886
62451SOL     OW89249   1.946   4.913   1.526
62451SOL    HW189250   1.992   4.851   1.469
62451SOL    HW289251   2.010   4.982   1.543
62452SOL     OW89252  14.505   6.614   0.231
62452SOL    HW189253  14.527   6.528   0.267
62452SOL    HW289254  14.586   6.643   0.189
62453SOL     OW89255   4.163   8.737   9.936
62453SOL    HW189256   4.206   8.695   9.861
62453SOL    HW289257   4.221   8.809   9.959
62454SOL     OW89258   0.158  10.556   8.708
62454SOL    HW189259   0.101  10.479   8.711
62454SOL    HW289260   0.188  10.560   8.618
62455SOL     OW89261   3.948   3.940  11.202
62455SOL    HW189262   3.997   4.017  11.231
62455SOL    HW289263   3.986   3.867  11.251
62456SOL     OW89264   9.717   5.252  12.143
62456SOL    HW189265   9.781   5.305  12.097
62456SOL    HW289266   9.654   5.315  12.179
62457SOL     OW89267  12.167   8.577   4.875
62457SOL    HW189268  12.125   8.656   4.910
62457SOL    HW289269  12.171   8.592   4.781
62458SOL     OW89270   1.677   5.657  11.075
62458SOL    HW189271   1.722   5.573  11.090
62458SOL    HW289272   1.744   5.712  11.033
62459SOL     OW89273   8.969   3.164  11.646
62459SOL    HW189274   8.927   3.096  11.698
62459SOL    HW289275   8.901   3.196  11.587
62460SOL     OW89276   0.932   3.109  14.702
62460SOL    HW189277   0.848   3.112  14.748
62460SOL    HW289278   0.935   3.191  14.653
62461SOL     OW89279   5.284  13.990  10.854
62461SOL    HW189280   5.265  14.051  10.925
62461SOL    HW289281   5.270  13.904  10.892
62462SOL     OW89282  14.619   3.020  11.833
62462SOL    HW189283  14.645   3.042  11.922
62462SOL    HW289284  14.608   2.925  11.834
62463SOL     OW89285  11.185  11.212   4.368
62463SOL    HW189286  11.254  11.257   4.416
62463SOL    HW289287  11.160  11.139   4.425
62464SOL     OW89288   3.028  10.249  12.837
62464SOL    HW189289   3.107  10.197  12.829
62464SOL    HW289290   3.025  10.302  12.757
62465SOL     OW89291   0.543   6.922   0.806
62465SOL    HW189292   0.635   6.905   0.826
62465SOL    HW289293   0.525   6.869   0.728
62466SOL     OW89294   1.760   1.714  13.799
62466SOL    HW189295   1.821   1.773  13.755
62466SOL    HW289296   1.815   1.647  13.838
62467SOL     OW89297   5.388   0.503   1.438
62467SOL    HW189298   5.346   0.417   1.433
62467SOL    HW289299   5.456   0.491   1.505
62468SOL     OW89300  14.211   0.147   5.680
62468SOL    HW189301  14.247   0.144   5.769
62468SOL    HW289302  14.118   0.128   5.691
62469SOL     OW89303   2.732   0.825   6.411
62469SOL    HW189304   2.652   0.876   6.400
62469SOL    HW289305   2.729   0.795   6.502
62470SOL     OW89306  12.279   8.936   9.690
62470SOL    HW189307  12.371   8.950   9.711
62470SOL    HW289308  12.234   9.013   9.726
62471SOL     OW89309   3.315   4.524   2.278
62471SOL    HW189310   3.243   4.562   2.329
62471SOL    HW289311   3.286   4.435   2.257
62472SOL     OW89312   1.724   0.546   5.667
62472SOL    HW189313   1.655   0.481   5.680
62472SOL    HW289314   1.769   0.517   5.587
62473SOL     OW89315   1.123   3.383  13.791
62473SOL    HW189316   1.070   3.398  13.713
62473SOL    HW289317   1.188   3.319  13.764
62474SOL     OW89318  10.550   6.350   8.478
62474SOL    HW189319  10.606   6.278   8.451
62474SOL    HW289320  10.474   6.345   8.420
62475SOL     OW89321   9.413  12.248  11.053
62475SOL    HW189322   9.347  12.192  11.011
62475SOL    HW289323   9.372  12.335  11.056
62476SOL     OW89324   3.275   5.432   8.933
62476SOL    HW189325   3.359   5.472   8.908
62476SOL    HW289326   3.298   5.343   8.960
62477SOL     OW89327   5.851   0.427   0.438
62477SOL    HW189328   5.893   0.411   0.354
62477SOL    HW289329   5.773   0.478   0.417
62478SOL     OW89330   3.222   3.566   0.998
62478SOL    HW189331   3.163   3.579   0.924
62478SOL    HW289332   3.302   3.531   0.960
62479SOL     OW89333   5.906   2.731  11.989
62479SOL    HW189334   5.938   2.804  12.043
62479SOL    HW289335   5.818   2.714  12.022
62480SOL     OW89336   6.791  13.291   6.062
62480SOL    HW189337   6.831  13.316   5.980
62480SOL    HW289338   6.855  13.313   6.129
62481SOL     OW89339   3.263  12.327   0.309
62481SOL    HW189340   3.170  12.308   0.316
62481SOL    HW289341   3.274  12.366   0.223
62482SOL     OW89342   6.344   5.075   5.683
62482SOL    HW189343   6.405   5.064   5.756
62482SOL    HW289344   6.372   5.009   5.619
62483SOL     OW89345  10.729  14.369   0.725
62483SOL    HW189346  10.677  14.421   0.663
62483SOL    HW289347  10.790  14.433   0.764
62484SOL     OW89348   1.076  14.211   2.355
62484SOL    HW189349   1.070  14.306   2.361
62484SOL    HW289350   0.988  14.180   2.374
62485SOL     OW89351  14.408  10.882   8.153
62485SOL    HW189352  14.409  10.916   8.242
62485SOL    HW289353  14.359  10.947   8.103
62486SOL     OW89354   8.076   0.807   8.104
62486SOL    HW189355   8.005   0.872   8.105
62486SOL    HW289356   8.031   0.723   8.115
62487SOL     OW89357   4.171  13.605   2.506
62487SOL    HW189358   4.237  13.584   2.440
62487SOL    HW289359   4.116  13.672   2.464
62488SOL     OW89360   8.447   8.530   1.719
62488SOL    HW189361   8.536   8.524   1.752
62488SOL    HW289362   8.457   8.538   1.624
62489SOL     OW89363   2.943  14.434   0.106
62489SOL    HW189364   2.890  14.390   0.172
62489SOL    HW289365   2.960  14.367   0.040
62490SOL     OW89366  12.619   8.490   4.715
62490SOL    HW189367  12.709   8.522   4.720
62490SOL    HW289368  12.626   8.408   4.666
62491SOL     OW89369  14.089  10.640   0.357
62491SOL    HW189370  14.076  10.548   0.381
62491SOL    HW289371  14.066  10.689   0.436
62492SOL     OW89372  13.388   2.719  12.641
62492SOL    HW189373  13.458   2.774  12.677
62492SOL    HW289374  13.423   2.630  12.648
62493SOL     OW89375  12.477   1.934  11.631
62493SOL    HW189376  12.486   1.904  11.541
62493SOL    HW289377  12.430   1.864  11.676
62494SOL     OW89378   2.331   2.759   0.110
62494SOL    HW189379   2.260   2.807   0.152
62494SOL    HW289380   2.324   2.781   0.017
62495SOL     OW89381  12.568   1.901  10.004
62495SOL    HW189382  12.516   1.906   9.924
62495SOL    HW289383  12.503   1.898  10.074
62496SOL     OW89384  11.196  11.871   7.466
62496SOL    HW189385  11.140  11.834   7.398
62496SOL    HW289386  11.253  11.798   7.492
62497SOL     OW89387  14.289   2.067   3.155
62497SOL    HW189388  14.333   2.067   3.070
62497SOL    HW289389  14.215   2.008   3.144
62498SOL     OW89390   9.130  12.160   7.691
62498SOL    HW189391   9.105  12.144   7.600
62498SOL    HW289392   9.048  12.153   7.740
62499SOL     OW89393   5.572   2.500   7.412
62499SOL    HW189394   5.561   2.594   7.428
62499SOL    HW289395   5.497   2.460   7.457
62500SOL     OW89396   0.204   7.197   6.350
62500SOL    HW189397   0.182   7.136   6.280
62500SOL    HW289398   0.161   7.279   6.325
62501SOL     OW89399   6.231  12.726  13.159
62501SOL    HW189400   6.208  12.669  13.233
62501SOL    HW289401   6.224  12.815  13.194
62502SOL     OW89402   7.591   8.508   6.597
62502SOL    HW189403   7.558   8.562   6.526
62502SOL    HW289404   7.588   8.564   6.674
62503SOL     OW89405   3.713   1.431  14.865
62503SOL    HW189406   3.639   1.462  14.813
62503SOL    HW289407   3.701   1.473   0.081
62504SOL     OW89408   9.157   0.459   2.410
62504SOL    HW189409   9.076   0.486   2.367
62504SOL    HW289410   9.157   0.363   2.403
62505SOL     OW89411   1.591   7.811   2.535
62505SOL    HW189412   1.606   7.880   2.600
62505SOL    HW289413   1.590   7.730   2.586
62506SOL     OW89414   5.331  12.473   0.952
62506SOL    HW189415   5.255  12.466   1.009
62506SOL    HW289416   5.377  12.551   0.981
62507SOL     OW89417   1.511   9.251  11.595
62507SOL    HW189418   1.440   9.231  11.535
62507SOL    HW289419   1.489   9.203  11.675
62508SOL     OW89420   7.859   0.432   5.379
62508SOL    HW189421   7.808   0.488   5.438
62508SOL    HW289422   7.949   0.439   5.411
62509SOL     OW89423   8.856   0.173   1.704
62509SOL    HW189424   8.858   0.208   1.793
62509SOL    HW289425   8.806   0.237   1.654
62510SOL     OW89426   1.292   6.528   3.676
62510SOL    HW189427   1.383   6.502   3.688
62510SOL    HW289428   1.281   6.534   3.581
62511SOL     OW89429   6.064   5.641  10.024
62511SOL    HW189430   6.125   5.681   9.962
62511SOL    HW289431   6.119   5.612  10.097
62512SOL     OW89432  11.639   3.346   2.586
62512SOL    HW189433  11.635   3.257   2.620
62512SOL    HW289434  11.671   3.336   2.496
62513SOL     OW89435   8.736  13.047  13.194
62513SOL    HW189436   8.765  13.074  13.281
62513SOL    HW289437   8.643  13.027  13.204
62514SOL     OW89438   8.921   7.480   3.960
62514SOL    HW189439   8.883   7.401   3.922
62514SOL    HW289440   9.004   7.491   3.913
62515SOL     OW89441   7.328   0.307   7.198
62515SOL    HW189442   7.240   0.270   7.206
62515SOL    HW289443   7.318   0.379   7.135
62516SOL     OW89444   2.808   5.198   4.050
62516SOL    HW189445   2.728   5.182   4.001
62516SOL    HW289446   2.786   5.271   4.108
62517SOL     OW89447   6.418  10.900   0.160
62517SOL    HW189448   6.419  10.924   0.252
62517SOL    HW289449   6.368  10.819   0.156
62518SOL     OW89450   2.421  12.580  13.394
62518SOL    HW189451   2.382  12.599  13.308
62518SOL    HW289452   2.494  12.522  13.375
62519SOL     OW89453   2.844  12.782  12.442
62519SOL    HW189454   2.863  12.785  12.536
62519SOL    HW289455   2.884  12.701  12.412
62520SOL     OW89456   5.213  13.997  10.589
62520SOL    HW189457   5.257  14.078  10.565
62520SOL    HW289458   5.260  13.967  10.667
62521SOL     OW89459   4.562  12.187   5.946
62521SOL    HW189460   4.532  12.100   5.920
62521SOL    HW289461   4.635  12.206   5.887
62522SOL     OW89462   9.362  13.634  10.155
62522SOL    HW189463   9.359  13.594  10.242
62522SOL    HW289464   9.439  13.692  10.158
62523SOL     OW89465  13.263  14.620   0.280
62523SOL    HW189466  13.329  14.567   0.238
62523SOL    HW289467  13.255  14.698   0.225
62524SOL     OW89468   1.054   0.559   1.358
62524SOL    HW189469   1.050   0.635   1.416
62524SOL    HW289470   1.078   0.487   1.416
62525SOL     OW89471  14.356  10.390   4.536
62525SOL    HW189472  14.421  10.420   4.600
62525SOL    HW289473  14.332  10.302   4.565
62526SOL     OW89474   2.498   6.755  12.120
62526SOL    HW189475   2.499   6.667  12.158
62526SOL    HW289476   2.554   6.748  12.043
62527SOL     OW89477   9.433   7.428   6.575
62527SOL    HW189478   9.392   7.351   6.534
62527SOL    HW289479   9.480   7.471   6.504
62528SOL     OW89480   6.989   7.106   8.267
62528SOL    HW189481   7.081   7.082   8.276
62528SOL    HW289482   6.988   7.201   8.281
62529SOL     OW89483  11.733  14.855  14.562
62529SOL    HW189484  11.699  14.866  14.473
62529SOL    HW289485  11.738   0.074  14.597
62530SOL     OW89486  12.317   8.145  10.370
62530SOL    HW189487  12.249   8.172  10.432
62530SOL    HW289488  12.272   8.138  10.287
62531SOL     OW89489   0.831   2.959   0.964
62531SOL    HW189490   0.768   2.957   0.891
62531SOL    HW289491   0.891   3.031   0.942
62532SOL     OW89492  12.438   4.018  12.175
62532SOL    HW189493  12.402   3.936  12.209
62532SOL    HW289494  12.532   4.012  12.193
62533SOL     OW89495  10.375  13.202  10.841
62533SOL    HW189496  10.286  13.188  10.875
62533SOL    HW289497  10.371  13.287  10.797
62534SOL     OW89498  14.307   0.231  12.818
62534SOL    HW189499  14.399   0.252  12.803
62534SOL    HW289500  14.265   0.316  12.835
62535SOL     OW89501   6.246  11.455  10.012
62535SOL    HW189502   6.293  11.387   9.965
62535SOL    HW289503   6.164  11.414  10.038
62536SOL     OW89504  10.439  13.190   7.199
62536SOL    HW189505  10.385  13.119   7.234
62536SOL    HW289506  10.508  13.201   7.264
62537SOL     OW89507  13.727  10.885   4.663
62537SOL    HW189508  13.782  10.840   4.599
62537SOL    HW289509  13.729  10.829   4.741
62538SOL     OW89510   8.149  14.740  12.777
62538SOL    HW189511   8.208  14.781  12.841
62538SOL    HW289512   8.203  14.675  12.733
62539SOL     OW89513   0.096   8.891  10.040
62539SOL    HW189514   0.099   8.805  10.082
62539SOL    HW289515   0.188   8.911  10.020
62540SOL     OW89516   3.154   8.984   4.958
62540SOL    HW189517   3.106   8.905   4.934
62540SOL    HW289518   3.094   9.032   5.016
62541SOL     OW89519  13.895   0.243   4.415
62541SOL    HW189520  13.920   0.151   4.419
62541SOL    HW289521  13.800   0.241   4.403
62542SOL     OW89522  10.516   2.982   9.852
62542SOL    HW189523  10.462   3.038   9.907
62542SOL    HW289524  10.505   2.894   9.889
62543SOL     OW89525   1.083   6.359   6.043
62543SOL    HW189526   1.088   6.434   6.102
62543SOL    HW289527   1.082   6.396   5.955
62544SOL     OW89528   0.290  11.568   5.607
62544SOL    HW189529   0.371  11.610   5.635
62544SOL    HW289530   0.272  11.502   5.674
62545SOL     OW89531   5.001   1.981  10.826
62545SOL    HW189532   4.909   1.985  10.854
62545SOL    HW289533   4.997   2.002  10.732
62546SOL     OW89534  13.922  13.649   4.676
62546SOL    HW189535  13.954  13.739   4.666
62546SOL    HW289536  13.893  13.624   4.588
62547SOL     OW89537  12.066   4.908  11.383
62547SOL    HW189538  12.063   4.869  11.470
62547SOL    HW289539  12.133   4.976  11.390
62548SOL     OW89540  12.676  14.599  13.935
62548SOL    HW189541  12.635  14.575  13.852
62548SOL    HW289542  12.614  14.660  13.975
62549SOL     OW89543   3.601   1.064   2.264
62549SOL    HW189544   3.514   1.024   2.266
62549SOL    HW289545   3.633   1.048   2.175
62550SOL     OW89546   5.812  12.324  12.962
62550SOL    HW189547   5.834  12.274  12.883
62550SOL    HW289548   5.871  12.399  12.960
62551SOL     OW89549   4.331   2.564   7.145
62551SOL    HW189550   4.280   2.570   7.226
62551SOL    HW289551   4.421   2.553   7.174
62552SOL     OW89552   8.059   3.349   7.266
62552SOL    HW189553   8.096   3.428   7.307
62552SOL    HW289554   7.965   3.367   7.261
62553SOL     OW89555   5.069   9.338   1.603
62553SOL    HW189556   5.137   9.279   1.572
62553SOL    HW289557   5.106   9.377   1.682
62554SOL     OW89558   3.662  12.924  10.001
62554SOL    HW189559   3.589  12.974   9.964
62554SOL    HW289560   3.642  12.833   9.980
62555SOL     OW89561   9.228   0.772   2.662
62555SOL    HW189562   9.195   0.803   2.577
62555SOL    HW289563   9.181   0.825   2.726
62556SOL     OW89564   4.732   1.171   7.388
62556SOL    HW189565   4.667   1.107   7.417
62556SOL    HW289566   4.680   1.244   7.353
62557SOL     OW89567  12.585   3.704  13.737
62557SOL    HW189568  12.525   3.779  13.741
62557SOL    HW289569  12.633   3.716  13.656
62558SOL     OW89570   4.890   1.779   4.648
62558SOL    HW189571   4.980   1.809   4.663
62558SOL    HW289572   4.899   1.689   4.617
62559SOL     OW89573   6.939   7.502   0.033
62559SOL    HW189574   6.902   7.503  14.815
62559SOL    HW289575   6.988   7.584   0.039
62560SOL     OW89576  14.445  10.106   8.916
62560SOL    HW189577  14.370  10.060   8.953
62560SOL    HW289578  14.410  10.149   8.838
62561SOL     OW89579   2.276   3.502   9.511
62561SOL    HW189580   2.238   3.504   9.423
62561SOL    HW289581   2.224   3.436   9.558
62562SOL     OW89582   2.855  12.804   4.515
62562SOL    HW189583   2.820  12.715   4.524
62562SOL    HW289584   2.901  12.803   4.431
62563SOL     OW89585  11.935  10.068   1.034
62563SOL    HW189586  12.024  10.102   1.040
62563SOL    HW289587  11.941   9.993   0.975
62564SOL     OW89588   2.767   7.730   7.249
62564SOL    HW189589   2.862   7.729   7.240
62564SOL    HW289590   2.751   7.725   7.343
62565SOL     OW89591  11.651  11.902   8.449
62565SOL    HW189592  11.722  11.891   8.512
62565SOL    HW289593  11.689  11.872   8.366
62566SOL     OW89594  14.226  10.166   3.266
62566SOL    HW189595  14.204  10.235   3.203
62566SOL    HW289596  14.143  10.122   3.283
62567SOL     OW89597  11.071   0.082   1.462
62567SOL    HW189598  10.984   0.043   1.468
62567SOL    HW289599  11.073   0.122   1.375
62568SOL     OW89600  13.184   5.151   5.032
62568SOL    HW189601  13.103   5.198   5.054
62568SOL    HW289602  13.238   5.216   4.988
62569SOL     OW89603   8.987  13.053  14.121
62569SOL    HW189604   8.996  13.028  14.029
62569SOL    HW289605   8.975  13.148  14.120
62570SOL     OW89606  13.913  14.662  11.622
62570SOL    HW189607  13.975  14.612  11.569
62570SOL    HW289608  13.968  14.721  11.674
62571SOL     OW89609   9.760   8.059   0.274
62571SOL    HW189610   9.840   8.062   0.325
62571SOL    HW289611   9.721   8.146   0.284
62572SOL     OW89612  10.361   0.451   5.301
62572SOL    HW189613  10.433   0.412   5.351
62572SOL    HW289614  10.304   0.490   5.368
62573SOL     OW89615  10.524   9.146   6.924
62573SOL    HW189616  10.479   9.228   6.943
62573SOL    HW289617  10.458   9.078   6.940
62574SOL     OW89618   3.289   9.056   0.924
62574SOL    HW189619   3.378   9.053   0.888
62574SOL    HW289620   3.236   9.092   0.853
62575SOL     OW89621   9.152   1.631   3.774
62575SOL    HW189622   9.222   1.566   3.781
62575SOL    HW289623   9.072   1.581   3.791
62576SOL     OW89624  14.855   9.331   9.878
62576SOL    HW189625  14.829   9.330   9.970
62576SOL    HW289626   0.054   9.397   9.873
62577SOL     OW89627   4.825   9.049  11.433
62577SOL    HW189628   4.764   9.003  11.375
62577SOL    HW289629   4.780   9.130  11.456
62578SOL     OW89630  14.494   2.368   5.354
62578SOL    HW189631  14.486   2.397   5.263
62578SOL    HW289632  14.405   2.370   5.388
62579SOL     OW89633   6.953   0.002   2.827
62579SOL    HW189634   6.928  14.850   2.737
62579SOL    HW289635   6.934  14.793   2.877
62580SOL     OW89636   7.611   1.324   3.234
62580SOL    HW189637   7.603   1.231   3.257
62580SOL    HW289638   7.701   1.333   3.203
62581SOL     OW89639  11.553   4.794   6.643
62581SOL    HW189640  11.497   4.780   6.567
62581SOL    HW289641  11.621   4.854   6.611
62582SOL     OW89642   8.245  14.700   5.819
62582SOL    HW189643   8.326  14.725   5.774
62582SOL    HW289644   8.205  14.784   5.842
62583SOL     OW89645   4.389  14.278   8.641
62583SOL    HW189646   4.451  14.320   8.702
62583SOL    HW289647   4.394  14.331   8.562
62584SOL     OW89648   3.978   6.773   1.310
62584SOL    HW189649   3.941   6.772   1.398
62584SOL    HW289650   4.019   6.859   1.302
62585SOL     OW89651  13.584   5.856   0.542
62585SOL    HW189652  13.644   5.789   0.576
62585SOL    HW289653  13.501   5.810   0.532
62586SOL     OW89654  12.547   8.928   6.611
62586SOL    HW189655  12.500   8.938   6.694
62586SOL    HW289656  12.516   9.001   6.557
62587SOL     OW89657  10.598   7.379   5.819
62587SOL    HW189658  10.595   7.391   5.914
62587SOL    HW289659  10.686   7.346   5.801
62588SOL     OW89660  11.707   9.226   2.262
62588SOL    HW189661  11.672   9.168   2.329
62588SOL    HW289662  11.685   9.314   2.292
62589SOL     OW89663  11.464   8.612   6.793
62589SOL    HW189664  11.454   8.523   6.827
62589SOL    HW289665  11.390   8.660   6.831
62590SOL     OW89666   6.771   9.537   9.085
62590SOL    HW189667   6.817   9.492   9.013
62590SOL    HW289668   6.710   9.471   9.118
62591SOL     OW89669  13.355   9.792   9.838
62591SOL    HW189670  13.348   9.745   9.920
62591SOL    HW289671  13.387   9.879   9.862
62592SOL     OW89672   9.522   4.218   5.043
62592SOL    HW189673   9.551   4.163   4.970
62592SOL    HW289674   9.436   4.250   5.016
62593SOL     OW89675   0.363  12.301   6.476
62593SOL    HW189676   0.353  12.293   6.381
62593SOL    HW289677   0.382  12.212   6.506
62594SOL     OW89678   1.215  11.562   5.999
62594SOL    HW189679   1.302  11.593   6.027
62594SOL    HW289680   1.223  11.467   5.997
62595SOL     OW89681   1.510   2.678   0.152
62595SOL    HW189682   1.537   2.715   0.067
62595SOL    HW289683   1.551   2.736   0.217
62596SOL     OW89684  12.795   7.934  13.202
62596SOL    HW189685  12.706   7.951  13.172
62596SOL    HW289686  12.786   7.917  13.296
62597SOL     OW89687  14.442   5.398  12.655
62597SOL    HW189688  14.448   5.447  12.737
62597SOL    HW289689  14.532   5.399  12.620
62598SOL     OW89690   5.125  13.159   6.545
62598SOL    HW189691   5.149  13.070   6.522
62598SOL    HW289692   5.163  13.173   6.632
62599SOL     OW89693   6.026  13.618  12.854
62599SOL    HW189694   6.071  13.695  12.818
62599SOL    HW289695   6.081  13.590  12.928
62600SOL     OW89696   1.252   1.329   5.069
62600SOL    HW189697   1.268   1.274   5.146
62600SOL    HW289698   1.160   1.315   5.048
62601SOL     OW89699  14.575   0.320  12.795
62601SOL    HW189700  14.561   0.354  12.706
62601SOL    HW289701  14.665   0.286  12.794
62602SOL     OW89702  10.552   9.049  14.128
62602SOL    HW189703  10.490   8.986  14.093
62602SOL    HW289704  10.567   9.111  14.057
62603SOL     OW89705   6.570  10.876   0.680
62603SOL    HW189706   6.641  10.904   0.738
62603SOL    HW289707   6.491  10.883   0.733
62604SOL     OW89708   6.641  13.517  12.619
62604SOL    HW189709   6.574  13.586  12.622
62604SOL    HW289710   6.594  13.439  12.588
62605SOL     OW89711  12.692   3.299   3.454
62605SOL    HW189712  12.650   3.372   3.499
62605SOL    HW289713  12.619   3.246   3.420
62606SOL     OW89714   4.562   7.629  14.481
62606SOL    HW189715   4.474   7.601  14.504
62606SOL    HW289716   4.618   7.554  14.501
62607SOL     OW89717  12.000  12.714   5.257
62607SOL    HW189718  11.906  12.702   5.270
62607SOL    HW289719  12.026  12.644   5.198
62608SOL     OW89720   2.335   9.229   8.937
62608SOL    HW189721   2.323   9.320   8.909
62608SOL    HW289722   2.303   9.228   9.028
62609SOL     OW89723  10.846   8.904   4.785
62609SOL    HW189724  10.858   8.820   4.830
62609SOL    HW289725  10.874   8.887   4.695
62610SOL     OW89726   9.227   9.789  12.863
62610SOL    HW189727   9.308   9.837  12.844
62610SOL    HW289728   9.159   9.838  12.818
62611SOL     OW89729   2.952   5.231   7.483
62611SOL    HW189730   2.941   5.153   7.537
62611SOL    HW289731   3.037   5.220   7.441
62612SOL     OW89732   7.366   4.269  12.951
62612SOL    HW189733   7.392   4.261  13.043
62612SOL    HW289734   7.357   4.364  12.937
62613SOL     OW89735   9.936   3.739   1.682
62613SOL    HW189736  10.030   3.728   1.696
62613SOL    HW289737   9.921   3.834   1.691
62614SOL     OW89738   3.940   2.654   4.702
62614SOL    HW189739   3.877   2.584   4.716
62614SOL    HW289740   3.937   2.671   4.608
62615SOL     OW89741   2.725   3.619   0.153
62615SOL    HW189742   2.649   3.571   0.185
62615SOL    HW289743   2.791   3.551   0.138
62616SOL     OW89744  10.324  12.942   9.275
62616SOL    HW189745  10.416  12.917   9.264
62616SOL    HW289746  10.282  12.915   9.194
62617SOL     OW89747   2.530   1.361   7.082
62617SOL    HW189748   2.438   1.385   7.080
62617SOL    HW289749   2.558   1.380   7.171
62618SOL     OW89750   6.008   0.054  14.512
62618SOL    HW189751   6.087   0.106  14.497
62618SOL    HW289752   5.999   0.051  14.607
62619SOL     OW89753   6.902  11.515  12.746
62619SOL    HW189754   6.863  11.497  12.832
62619SOL    HW289755   6.952  11.596  12.759
62620SOL     OW89756   1.302   7.607   8.762
62620SOL    HW189757   1.220   7.604   8.810
62620SOL    HW289758   1.335   7.696   8.776
62621SOL     OW89759   8.893   1.003   4.208
62621SOL    HW189760   8.863   1.033   4.294
62621SOL    HW289761   8.976   1.048   4.194
62622SOL     OW89762  13.631   5.710   7.418
62622SOL    HW189763  13.600   5.682   7.332
62622SOL    HW289764  13.616   5.805   7.419
62623SOL     OW89765   9.978   4.177   4.450
62623SOL    HW189766   9.975   4.263   4.409
62623SOL    HW289767   9.928   4.188   4.531
62624SOL     OW89768  11.024   8.288   4.858
62624SOL    HW189769  10.995   8.295   4.949
62624SOL    HW289770  11.097   8.226   4.861
62625SOL     OW89771  14.281   4.486   3.206
62625SOL    HW189772  14.300   4.506   3.298
62625SOL    HW289773  14.187   4.500   3.198
62626SOL     OW89774   8.224  10.193  12.139
62626SOL    HW189775   8.185  10.200  12.052
62626SOL    HW289776   8.224  10.099  12.158
62627SOL     OW89777   5.129  11.109  13.393
62627SOL    HW189778   5.176  11.118  13.475
62627SOL    HW289779   5.130  11.015  13.375
62628SOL     OW89780   9.909   2.071   6.661
62628SOL    HW189781   9.993   2.111   6.640
62628SOL    HW289782   9.932   1.996   6.716
62629SOL     OW89783   7.203   2.730  10.982
62629SOL    HW189784   7.132   2.666  10.970
62629SOL    HW289785   7.210   2.739  11.077
62630SOL     OW89786   1.045   7.798   1.605
62630SOL    HW189787   0.975   7.810   1.670
62630SOL    HW289788   1.041   7.876   1.551
62631SOL     OW89789   7.005   1.091   2.917
62631SOL    HW189790   6.999   1.183   2.942
62631SOL    HW289791   7.016   1.092   2.822
62632SOL     OW89792   6.815   4.645   0.161
62632SOL    HW189793   6.830   4.739   0.166
62632SOL    HW289794   6.824   4.615   0.252
62633SOL     OW89795   1.441   8.380  11.635
62633SOL    HW189796   1.365   8.342  11.591
62633SOL    HW289797   1.405   8.420  11.714
62634SOL     OW89798   9.135   6.200   6.946
62634SOL    HW189799   9.137   6.113   6.906
62634SOL    HW289800   9.182   6.256   6.884
62635SOL     OW89801   8.453   2.023   8.025
62635SOL    HW189802   8.375   2.028   7.970
62635SOL    HW289803   8.429   2.071   8.104
62636SOL     OW89804   0.886   5.188  13.407
62636SOL    HW189805   0.827   5.219  13.338
62636SOL    HW289806   0.956   5.253  13.408
62637SOL     OW89807   4.738   8.482  13.166
62637SOL    HW189808   4.704   8.560  13.210
62637SOL    HW289809   4.819   8.511  13.124
62638SOL     OW89810   1.438  13.421  14.768
62638SOL    HW189811   1.430  13.397  14.860
62638SOL    HW289812   1.353  13.459  14.745
62639SOL     OW89813  10.569  13.766   6.047
62639SOL    HW189814  10.486  13.806   6.073
62639SOL    HW289815  10.634  13.805   6.105
62640SOL     OW89816   1.085   7.852   6.808
62640SOL    HW189817   1.062   7.815   6.723
62640SOL    HW289818   1.124   7.780   6.856
62641SOL     OW89819  14.319   0.875   0.981
62641SOL    HW189820  14.343   0.946   1.041
62641SOL    HW289821  14.376   0.802   1.005
62642SOL     OW89822  11.400  12.613  14.037
62642SOL    HW189823  11.364  12.540  14.087
62642SOL    HW289824  11.364  12.602  13.949
62643SOL     OW89825   6.813   0.987  14.000
62643SOL    HW189826   6.867   1.065  13.992
62643SOL    HW289827   6.778   0.990  14.089
62644SOL     OW89828   7.321   0.411   3.309
62644SOL    HW189829   7.391   0.441   3.251
62644SOL    HW289830   7.291   0.329   3.269
62645SOL     OW89831  12.379  10.661   0.808
62645SOL    HW189832  12.445  10.641   0.875
62645SOL    HW289833  12.314  10.591   0.817
62646SOL     OW89834   6.889   0.704  14.000
62646SOL    HW189835   6.898   0.717  14.094
62646SOL    HW289836   6.865   0.790  13.966
62647SOL     OW89837   4.569  13.293  12.320
62647SOL    HW189838   4.574  13.362  12.254
62647SOL    HW289839   4.515  13.225  12.280
62648SOL     OW89840   0.384   1.911   8.973
62648SOL    HW189841   0.332   1.846   8.924
62648SOL    HW289842   0.347   1.909   9.062
62649SOL     OW89843   3.264   2.950   8.634
62649SOL    HW189844   3.313   2.988   8.708
62649SOL    HW289845   3.175   2.940   8.667
62650SOL     OW89846  13.582  12.056   7.521
62650SOL    HW189847  13.647  11.990   7.547
62650SOL    HW289848  13.549  12.091   7.603
62651SOL     OW89849   9.169   6.513   4.260
62651SOL    HW189850   9.161   6.436   4.204
62651SOL    HW289851   9.249   6.557   4.231
62652SOL     OW89852  11.662  12.921  12.920
62652SOL    HW189853  11.633  13.009  12.944
62652SOL    HW289854  11.746  12.934  12.876
62653SOL     OW89855   0.483  14.344  11.534
62653SOL    HW189856   0.400  14.361  11.578
62653SOL    HW289857   0.461  14.279  11.467
62654SOL     OW89858   7.141   3.400   9.591
62654SOL    HW189859   7.232   3.420   9.612
62654SOL    HW289860   7.090   3.457   9.648
62655SOL     OW89861  12.253  14.270   6.030
62655SOL    HW189862  12.288  14.300   5.946
62655SOL    HW289863  12.288  14.181   6.040
62656SOL     OW89864  11.708   0.339  11.832
62656SOL    HW189865  11.739   0.399  11.765
62656SOL    HW289866  11.787   0.307  11.874
62657SOL     OW89867   1.658   4.675  12.601
62657SOL    HW189868   1.593   4.718  12.546
62657SOL    HW289869   1.607   4.618  12.659
62658SOL     OW89870  13.243   2.222   2.898
62658SOL    HW189871  13.310   2.255   2.958
62658SOL    HW289872  13.204   2.300   2.859
62659SOL     OW89873   0.371  10.894   8.423
62659SOL    HW189874   0.401  10.920   8.336
62659SOL    HW289875   0.279  10.871   8.410
62660SOL     OW89876   3.662   2.561   8.430
62660SOL    HW189877   3.580   2.511   8.427
62660SOL    HW289878   3.718   2.517   8.365
62661SOL     OW89879  13.541  13.862  10.585
62661SOL    HW189880  13.461  13.809  10.584
62661SOL    HW289881  13.524  13.929  10.652
62662SOL     OW89882   6.852   0.666   4.571
62662SOL    HW189883   6.804   0.718   4.635
62662SOL    HW289884   6.941   0.662   4.606
62663SOL     OW89885  12.528   0.239   2.994
62663SOL    HW189886  12.549   0.244   3.087
62663SOL    HW289887  12.522   0.145   2.976
62664SOL     OW89888   0.810  10.648  11.715
62664SOL    HW189889   0.749  10.722  11.710
62664SOL    HW289890   0.775  10.594  11.786
62665SOL     OW89891  14.307   7.073  11.192
62665SOL    HW189892  14.237   7.055  11.130
62665SOL    HW289893  14.263   7.083  11.276
62666SOL     OW89894  11.710  12.467   6.893
62666SOL    HW189895  11.761  12.548   6.887
62666SOL    HW289896  11.775  12.397   6.884
62667SOL     OW89897   6.889   1.180  11.809
62667SOL    HW189898   6.871   1.253  11.750
62667SOL    HW289899   6.850   1.206  11.892
62668SOL     OW89900   4.678   0.169   9.190
62668SOL    HW189901   4.711   0.247   9.235
62668SOL    HW289902   4.690   0.188   9.097
62669SOL     OW89903   1.601   1.290  11.279
62669SOL    HW189904   1.653   1.225  11.231
62669SOL    HW289905   1.650   1.302  11.361
62670SOL     OW89906   9.374  13.156   6.475
62670SOL    HW189907   9.413  13.236   6.510
62670SOL    HW289908   9.290  13.149   6.521
62671SOL     OW89909  12.987   6.665  11.309
62671SOL    HW189910  13.018   6.711  11.231
62671SOL    HW289911  12.898   6.639  11.288
62672SOL     OW89912   8.927   8.314   3.041
62672SOL    HW189913   8.889   8.347   2.960
62672SOL    HW289914   8.936   8.391   3.097
62673SOL     OW89915  10.723   9.178   0.133
62673SOL    HW189916  10.752   9.176   0.042
62673SOL    HW289917  10.683   9.264   0.144
62674SOL     OW89918   3.583  12.453   5.387
62674SOL    HW189919   3.611  12.500   5.466
62674SOL    HW289920   3.600  12.514   5.315
62675SOL     OW89921   7.230   4.196   5.638
62675SOL    HW189922   7.210   4.262   5.571
62675SOL    HW289923   7.291   4.239   5.698
62676SOL     OW89924   2.157   1.391   3.172
62676SOL    HW189925   2.077   1.429   3.208
62676SOL    HW289926   2.203   1.465   3.131
62677SOL     OW89927  14.220  12.932  13.023
62677SOL    HW189928  14.188  12.923  13.113
62677SOL    HW289929  14.222  13.027  13.007
62678SOL     OW89930   9.574   1.880   8.011
62678SOL    HW189931   9.521   1.843   7.940
62678SOL    HW289932   9.606   1.964   7.977
62679SOL     OW89933   7.093  11.458  12.552
62679SOL    HW189934   7.039  11.474  12.474
62679SOL    HW289935   7.033  11.467  12.626
62680SOL     OW89936   6.272   9.165   0.144
62680SOL    HW189937   6.295   9.089   0.091
62680SOL    HW289938   6.183   9.147   0.175
62681SOL     OW89939   7.938   1.132   8.059
62681SOL    HW189940   7.907   1.221   8.078
62681SOL    HW289941   8.030   1.143   8.036
62682SOL     OW89942  13.891   3.313  14.572
62682SOL    HW189943  13.893   3.236  14.629
62682SOL    HW289944  13.931   3.283  14.491
62683SOL     OW89945   4.183   6.088  11.283
62683SOL    HW189946   4.136   6.068  11.364
62683SOL    HW289947   4.203   6.002  11.245
62684SOL     OW89948   3.511  12.632  14.519
62684SOL    HW189949   3.600  12.617  14.488
62684SOL    HW289950   3.455  12.600  14.447
62685SOL     OW89951   0.192   2.450   5.322
62685SOL    HW189952   0.154   2.515   5.262
62685SOL    HW289953   0.133   2.450   5.397
62686SOL     OW89954  13.669  13.322  10.235
62686SOL    HW189955  13.754  13.314  10.279
62686SOL    HW289956  13.677  13.401  10.182
62687SOL     OW89957   6.439   7.544   4.329
62687SOL    HW189958   6.399   7.517   4.412
62687SOL    HW289959   6.431   7.639   4.329
62688SOL     OW89960   6.328  12.980   6.660
62688SOL    HW189961   6.295  12.890   6.658
62688SOL    HW289962   6.253  13.033   6.635
62689SOL     OW89963   1.544   2.491  13.411
62689SOL    HW189964   1.483   2.489  13.338
62689SOL    HW289965   1.552   2.400  13.439
62690SOL     OW89966   4.103   1.154  12.686
62690SOL    HW189967   4.125   1.062  12.670
62690SOL    HW289968   4.018   1.151  12.729
62691SOL     OW89969  11.214  10.293  13.502
62691SOL    HW189970  11.133  10.293  13.450
62691SOL    HW289971  11.187  10.254  13.586
62692SOL     OW89972   2.552   9.488   9.499
62692SOL    HW189973   2.521   9.473   9.588
62692SOL    HW289974   2.491   9.438   9.444
62693SOL     OW89975   3.257   9.844  10.558
62693SOL    HW189976   3.193   9.776  10.578
62693SOL    HW289977   3.341   9.802  10.571
62694SOL     OW89978   6.591  12.689   2.961
62694SOL    HW189979   6.522  12.749   2.934
62694SOL    HW289980   6.627  12.727   3.040
62695SOL     OW89981  14.435   1.879   5.488
62695SOL    HW189982  14.414   1.951   5.428
62695SOL    HW289983  14.530   1.880   5.494
62696SOL     OW89984   9.572  11.496  14.600
62696SOL    HW189985   9.656  11.451  14.592
62696SOL    HW289986   9.563  11.514  14.694
62697SOL     OW89987  14.416   1.145   9.306
62697SOL    HW189988  14.321   1.132   9.308
62697SOL    HW289989  14.451   1.071   9.355
62698SOL     OW89990  13.873  11.554  11.150
62698SOL    HW189991  13.840  11.568  11.239
62698SOL    HW289992  13.794  11.541  11.098
62699SOL     OW89993  14.303   4.518  12.276
62699SOL    HW189994  14.266   4.429  12.277
62699SOL    HW289995  14.266   4.560  12.354
62700SOL     OW89996   3.962   7.514   7.489
62700SOL    HW189997   4.038   7.548   7.538
62700SOL    HW289998   3.979   7.539   7.398
62701SOL     OW89999   4.991   0.584  11.501
62701SOL    HW190000   5.032   0.590  11.415
62701SOL    HW290001   5.036   0.651  11.553
62702SOL     OW90002  12.498   6.503  10.423
62702SOL    HW190003  12.409   6.536  10.433
62702SOL    HW290004  12.490   6.434  10.357
62703SOL     OW90005   5.400  13.565   0.314
62703SOL    HW190006   5.415  13.605   0.228
62703SOL    HW290007   5.471  13.502   0.323
62704SOL     OW90008   0.822   9.402   0.511
62704SOL    HW190009   0.741   9.451   0.523
62704SOL    HW290010   0.858   9.393   0.599
62705SOL     OW90011   3.746   2.624   1.022
62705SOL    HW190012   3.790   2.663   0.946
62705SOL    HW290013   3.738   2.531   0.998
62706SOL     OW90014   0.690   2.100   0.539
62706SOL    HW190015   0.774   2.070   0.505
62706SOL    HW290016   0.626   2.071   0.475
62707SOL     OW90017   1.182   7.735   9.999
62707SOL    HW190018   1.106   7.752   9.944
62707SOL    HW290019   1.226   7.819  10.006
62708SOL     OW90020   8.848  13.745   2.682
62708SOL    HW190021   8.830  13.672   2.622
62708SOL    HW290022   8.848  13.823   2.626
62709SOL     OW90023   8.374   6.449  13.785
62709SOL    HW190024   8.315   6.391  13.736
62709SOL    HW290025   8.460   6.434  13.747
62710SOL     OW90026  13.676  14.762  11.328
62710SOL    HW190027  13.680  14.753  11.232
62710SOL    HW290028  13.622  14.689  11.357
62711SOL     OW90029  12.476  13.205  11.106
62711SOL    HW190030  12.474  13.244  11.193
62711SOL    HW290031  12.565  13.171  11.097
62712SOL     OW90032   0.796   8.176   4.479
62712SOL    HW190033   0.855   8.216   4.543
62712SOL    HW290034   0.712   8.169   4.524
62713SOL     OW90035   7.307  10.690   9.405
62713SOL    HW190036   7.392  10.709   9.364
62713SOL    HW290037   7.328  10.668   9.495
62714SOL     OW90038   4.501   8.749  10.478
62714SOL    HW190039   4.418   8.702  10.471
62714SOL    HW290040   4.511   8.791  10.392
62715SOL     OW90041   1.196   1.193   2.562
62715SOL    HW190042   1.256   1.260   2.529
62715SOL    HW290043   1.139   1.172   2.488
62716SOL     OW90044  13.307  13.314   0.104
62716SOL    HW190045  13.308  13.251   0.031
62716SOL    HW290046  13.342  13.264   0.178
62717SOL     OW90047  12.572  13.907   4.448
62717SOL    HW190048  12.492  13.913   4.396
62717SOL    HW290049  12.641  13.936   4.389
62718SOL     OW90050   0.179  12.849   5.575
62718SOL    HW190051   0.205  12.939   5.596
62718SOL    HW290052   0.223  12.830   5.492
62719SOL     OW90053   7.556   9.190  10.218
62719SOL    HW190054   7.473   9.158  10.252
62719SOL    HW290055   7.556   9.165  10.126
62720SOL     OW90056  10.024   9.195  12.301
62720SOL    HW190057  10.077   9.269  12.332
62720SOL    HW290058  10.030   9.131  12.372
62721SOL     OW90059  14.190   0.621   8.582
62721SOL    HW190060  14.259   0.579   8.531
62721SOL    HW290061  14.136   0.666   8.517
62722SOL     OW90062   2.126   0.790  10.690
62722SOL    HW190063   2.046   0.753  10.727
62722SOL    HW290064   2.096   0.846  10.618
62723SOL     OW90065  12.428   6.590   2.323
62723SOL    HW190066  12.383   6.527   2.378
62723SOL    HW290067  12.505   6.544   2.291
62724SOL     OW90068  11.011   5.049  12.109
62724SOL    HW190069  11.088   5.018  12.155
62724SOL    HW290070  11.005   4.994  12.031
62725SOL     OW90071  14.167   8.571   5.523
62725SOL    HW190072  14.173   8.623   5.443
62725SOL    HW290073  14.133   8.632   5.588
62726SOL     OW90074  11.988  12.365   1.011
62726SOL    HW190075  11.958  12.317   1.088
62726SOL    HW290076  11.916  12.426   0.992
62727SOL     OW90077  13.194   1.227   7.335
62727SOL    HW190078  13.242   1.163   7.283
62727SOL    HW290079  13.204   1.198   7.426
62728SOL     OW90080   2.196  12.736   8.292
62728SOL    HW190081   2.287  12.707   8.302
62728SOL    HW290082   2.146  12.677   8.348
62729SOL     OW90083   2.368  14.237   5.315
62729SOL    HW190084   2.436  14.260   5.253
62729SOL    HW290085   2.334  14.321   5.346
62730SOL     OW90086   3.592   3.531   5.283
62730SOL    HW190087   3.579   3.451   5.334
62730SOL    HW290088   3.602   3.600   5.348
62731SOL     OW90089   8.600  11.794   0.496
62731SOL    HW190090   8.583  11.764   0.585
62731SOL    HW290091   8.689  11.763   0.477
62732SOL     OW90092  13.424   1.527   8.674
62732SOL    HW190093  13.508   1.529   8.629
62732SOL    HW290094  13.433   1.593   8.743
62733SOL     OW90095  12.916   6.923   6.304
62733SOL    HW190096  12.918   7.017   6.325
62733SOL    HW290097  12.916   6.920   6.209
62734SOL     OW90098  10.698  12.178   4.046
62734SOL    HW190099  10.669  12.222   4.126
62734SOL    HW290100  10.742  12.247   3.996
62735SOL     OW90101   1.158   5.532   0.929
62735SOL    HW190102   1.242   5.496   0.902
62735SOL    HW290103   1.177   5.581   1.009
62736SOL     OW90104   6.870   6.934   8.814
62736SOL    HW190105   6.907   6.846   8.810
62736SOL    HW290106   6.907   6.972   8.893
62737SOL     OW90107   0.904   2.721  11.313
62737SOL    HW190108   0.932   2.759  11.396
62737SOL    HW290109   0.885   2.796  11.257
62738SOL     OW90110   5.224   3.614  11.694
62738SOL    HW190111   5.142   3.564  11.698
62738SOL    HW290112   5.210   3.687  11.754
62739SOL     OW90113   7.168  14.001  12.807
62739SOL    HW190114   7.107  14.071  12.833
62739SOL    HW290115   7.130  13.965  12.727
62740SOL     OW90116   5.920  11.082  11.079
62740SOL    HW190117   6.006  11.118  11.100
62740SOL    HW290118   5.876  11.073  11.163
62741SOL     OW90119   4.178   8.662   5.126
62741SOL    HW190120   4.205   8.724   5.194
62741SOL    HW290121   4.237   8.681   5.052
62742SOL     OW90122   7.321   2.455  10.345
62742SOL    HW190123   7.397   2.513  10.347
62742SOL    HW290124   7.347   2.379  10.397
62743SOL     OW90125  11.264   4.246  11.430
62743SOL    HW190126  11.283   4.282  11.517
62743SOL    HW290127  11.332   4.180  11.415
62744SOL     OW90128  11.001  14.285  10.761
62744SOL    HW190129  10.920  14.334  10.750
62744SOL    HW290130  11.008  14.270  10.855
62745SOL     OW90131   6.931  13.796   5.680
62745SOL    HW190132   7.023  13.800   5.654
62745SOL    HW290133   6.906  13.888   5.693
62746SOL     OW90134   1.173  10.007   5.789
62746SOL    HW190135   1.084  10.030   5.765
62746SOL    HW290136   1.163   9.951   5.866
62747SOL     OW90137  10.592   8.215   2.242
62747SOL    HW190138  10.662   8.152   2.259
62747SOL    HW290139  10.524   8.193   2.306
62748SOL     OW90140  10.459  13.510  11.816
62748SOL    HW190141  10.376  13.558  11.816
62748SOL    HW290142  10.469  13.481  11.725
62749SOL     OW90143   9.682  12.738   0.554
62749SOL    HW190144   9.746  12.734   0.483
62749SOL    HW290145   9.598  12.753   0.511
62750SOL     OW90146   9.184  11.070   1.528
62750SOL    HW190147   9.255  11.036   1.582
62750SOL    HW290148   9.185  11.015   1.449
62751SOL     OW90149   0.362  14.612  11.840
62751SOL    HW190150   0.351  14.705  11.821
62751SOL    HW290151   0.455  14.604  11.862
62752SOL     OW90152   3.673   0.384  13.869
62752SOL    HW190153   3.739   0.389  13.938
62752SOL    HW290154   3.711   0.431  13.795
62753SOL     OW90155   8.520   8.438   6.887
62753SOL    HW190156   8.579   8.385   6.940
62753SOL    HW290157   8.436   8.392   6.889
62754SOL     OW90158   1.987   9.034   7.149
62754SOL    HW190159   2.054   8.976   7.184
62754SOL    HW290160   1.929   8.976   7.099
62755SOL     OW90161  13.083  10.524   1.962
62755SOL    HW190162  12.999  10.569   1.954
62755SOL    HW290163  13.069  10.460   2.032
62756SOL     OW90164   7.246  10.951  14.016
62756SOL    HW190165   7.323  10.931  14.069
62756SOL    HW290166   7.192  10.872  14.021
62757SOL     OW90167  13.659   4.520   4.888
62757SOL    HW190168  13.581   4.505   4.943
62757SOL    HW290169  13.670   4.615   4.888
62758SOL     OW90170   0.918   9.293   2.520
62758SOL    HW190171   0.935   9.320   2.430
62758SOL    HW290172   0.890   9.373   2.564
62759SOL     OW90173  14.514   4.338   8.863
62759SOL    HW190174  14.507   4.244   8.876
62759SOL    HW290175  14.602   4.360   8.891
62760SOL     OW90176   2.612   9.041   6.468
62760SOL    HW190177   2.581   9.048   6.559
62760SOL    HW290178   2.682   9.107   6.463
62761SOL     OW90179   5.057  14.758   9.502
62761SOL    HW190180   5.029  14.827   9.443
62761SOL    HW290181   5.087  14.688   9.444
62762SOL     OW90182   8.823   4.886  12.483
62762SOL    HW190183   8.760   4.889  12.554
62762SOL    HW290184   8.840   4.977  12.461
62763SOL     OW90185   7.420   7.887   7.042
62763SOL    HW190186   7.429   7.973   7.085
62763SOL    HW290187   7.352   7.901   6.976
62764SOL     OW90188   4.372   5.816  10.051
62764SOL    HW190189   4.456   5.787  10.014
62764SOL    HW290190   4.389   5.905  10.083
62765SOL     OW90191   5.140   3.987   5.314
62765SOL    HW190192   5.203   4.056   5.295
62765SOL    HW290193   5.081   4.025   5.380
62766SOL     OW90194  10.745   9.384  14.301
62766SOL    HW190195  10.807   9.450  14.332
62766SOL    HW290196  10.683   9.374  14.373
62767SOL     OW90197   2.458   8.013   4.141
62767SOL    HW190198   2.522   7.944   4.126
62767SOL    HW290199   2.381   7.968   4.174
62768SOL     OW90200   4.208  13.239   3.299
62768SOL    HW190201   4.193  13.333   3.294
62768SOL    HW290202   4.292  13.225   3.254
62769SOL     OW90203  10.149   0.447   1.033
62769SOL    HW190204  10.129   0.501   0.957
62769SOL    HW290205  10.176   0.362   0.997
62770SOL     OW90206   2.018   8.945   6.540
62770SOL    HW190207   2.055   9.024   6.500
62770SOL    HW290208   1.927   8.968   6.557
62771SOL     OW90209   2.437   0.963  10.153
62771SOL    HW190210   2.453   0.901  10.082
62771SOL    HW290211   2.416   0.908  10.228
62772SOL     OW90212  13.153   7.142   7.471
62772SOL    HW190213  13.156   7.048   7.450
62772SOL    HW290214  13.186   7.148   7.561
62773SOL     OW90215   1.698   9.288   0.836
62773SOL    HW190216   1.668   9.370   0.876
62773SOL    HW290217   1.618   9.237   0.824
62774SOL     OW90218   5.185   2.451  12.389
62774SOL    HW190219   5.102   2.466  12.434
62774SOL    HW290220   5.168   2.476  12.298
62775SOL     OW90221   9.510   8.719   0.941
62775SOL    HW190222   9.580   8.772   0.902
62775SOL    HW290223   9.505   8.747   1.032
62776SOL     OW90224   3.092   7.769   7.237
62776SOL    HW190225   3.050   7.796   7.156
62776SOL    HW290226   3.186   7.774   7.219
62777SOL     OW90227  10.470   3.319   6.673
62777SOL    HW190228  10.537   3.342   6.737
62777SOL    HW290229  10.463   3.223   6.678
62778SOL     OW90230   7.774  12.747   3.350
62778SOL    HW190231   7.703  12.811   3.342
62778SOL    HW290232   7.811  12.741   3.262
62779SOL     OW90233   6.472   5.379  13.074
62779SOL    HW190234   6.484   5.291  13.110
62779SOL    HW290235   6.435   5.365  12.987
62780SOL     OW90236  11.636  10.408  13.379
62780SOL    HW190237  11.600  10.347  13.315
62780SOL    HW290238  11.598  10.380  13.462
62781SOL     OW90239  10.659   8.916   2.300
62781SOL    HW190240  10.615   8.849   2.351
62781SOL    HW290241  10.598   8.990   2.300
62782SOL     OW90242   3.785   4.191   7.515
62782SOL    HW190243   3.806   4.115   7.570
62782SOL    HW290244   3.811   4.266   7.568
62783SOL     OW90245  14.323  10.907  13.740
62783SOL    HW190246  14.282  10.937  13.821
62783SOL    HW290247  14.416  10.899  13.761
62784SOL     OW90248  13.774  13.374   4.952
62784SOL    HW190249  13.725  13.363   5.033
62784SOL    HW290250  13.709  13.403   4.888
62785SOL     OW90251   5.538  11.241   3.715
62785SOL    HW190252   5.457  11.288   3.698
62785SOL    HW290253   5.570  11.215   3.628
62786SOL     OW90254  12.352  10.511  10.419
62786SOL    HW190255  12.333  10.603  10.404
62786SOL    HW290256  12.380  10.477  10.334
62787SOL     OW90257   9.708  13.125   7.981
62787SOL    HW190258   9.616  13.125   7.954
62787SOL    HW290259   9.705  13.148   8.074
62788SOL     OW90260   7.267  13.074   3.304
62788SOL    HW190261   7.328  13.081   3.230
62788SOL    HW290262   7.241  12.982   3.303
62789SOL     OW90263   9.927  14.309   5.090
62789SOL    HW190264   9.972  14.241   5.140
62789SOL    HW290265   9.882  14.362   5.156
62790SOL     OW90266   6.384  12.531  12.832
62790SOL    HW190267   6.409  12.482  12.753
62790SOL    HW290268   6.375  12.464  12.900
62791SOL     OW90269  12.147   0.126   6.786
62791SOL    HW190270  12.096   0.046   6.774
62791SOL    HW290271  12.228   0.110   6.738
62792SOL     OW90272   4.368   7.810   6.096
62792SOL    HW190273   4.360   7.823   6.001
62792SOL    HW290274   4.462   7.802   6.110
62793SOL     OW90275   7.908   5.262   2.612
62793SOL    HW190276   7.813   5.271   2.612
62793SOL    HW290277   7.924   5.173   2.645
62794SOL     OW90278   1.052   4.308  10.537
62794SOL    HW190279   1.001   4.385  10.562
62794SOL    HW290280   1.105   4.288  10.614
62795SOL     OW90281   6.377  13.793  12.476
62795SOL    HW190282   6.399  13.778  12.568
62795SOL    HW290283   6.287  13.760  12.467
62796SOL     OW90284   4.532   5.608   9.239
62796SOL    HW190285   4.460   5.668   9.217
62796SOL    HW290286   4.544   5.556   9.159
62797SOL     OW90287   6.410   8.757  12.184
62797SOL    HW190288   6.406   8.696  12.110
62797SOL    HW290289   6.484   8.814  12.165
62798SOL     OW90290  10.490   7.760   6.363
62798SOL    HW190291  10.411   7.814   6.373
62798SOL    HW290292  10.551   7.816   6.314
62799SOL     OW90293   8.637  11.913  13.537
62799SOL    HW190294   8.696  11.925  13.611
62799SOL    HW290295   8.550  11.935  13.572
62800SOL     OW90296   5.369  10.970   2.301
62800SOL    HW190297   5.437  10.926   2.351
62800SOL    HW290298   5.354  10.914   2.225
62801SOL     OW90299  10.273   8.756  12.317
62801SOL    HW190300  10.308   8.845  12.318
62801SOL    HW290301  10.305   8.716  12.398
62802SOL     OW90302   0.761  13.219  14.134
62802SOL    HW190303   0.814  13.163  14.078
62802SOL    HW290304   0.773  13.183  14.222
62803SOL     OW90305  11.352   2.545   9.353
62803SOL    HW190306  11.386   2.623   9.308
62803SOL    HW290307  11.324   2.577   9.439
62804SOL     OW90308   3.106  11.980   4.347
62804SOL    HW190309   3.173  12.018   4.290
62804SOL    HW290310   3.071  12.054   4.396
62805SOL     OW90311  14.613  14.341  12.768
62805SOL    HW190312  14.548  14.381  12.709
62805SOL    HW290313  14.600  14.385  12.852
62806SOL     OW90314   0.627   5.026   0.779
62806SOL    HW190315   0.638   5.048   0.686
62806SOL    HW290316   0.546   5.069   0.804
62807SOL     OW90317   6.769   6.648   2.837
62807SOL    HW190318   6.832   6.702   2.884
62807SOL    HW290319   6.821   6.606   2.768
62808SOL     OW90320   5.248   1.430   6.510
62808SOL    HW190321   5.325   1.438   6.454
62808SOL    HW290322   5.249   1.339   6.539
62809SOL     OW90323   0.457   6.693  10.615
62809SOL    HW190324   0.514   6.744  10.557
62809SOL    HW290325   0.418   6.758  10.673
62810SOL     OW90326   7.308   4.344  13.707
62810SOL    HW190327   7.250   4.273  13.736
62810SOL    HW290328   7.249   4.415  13.682
62811SOL     OW90329   4.609   1.777   6.734
62811SOL    HW190330   4.603   1.868   6.761
62811SOL    HW290331   4.675   1.777   6.664
62812SOL     OW90332   2.589   4.382   5.056
62812SOL    HW190333   2.516   4.444   5.054
62812SOL    HW290334   2.585   4.337   4.972
62813SOL     OW90335  10.388   2.316   4.033
62813SOL    HW190336  10.443   2.299   3.956
62813SOL    HW290337  10.359   2.407   4.023
62814SOL     OW90338   3.256   7.610   1.805
62814SOL    HW190339   3.317   7.638   1.873
62814SOL    HW290340   3.310   7.599   1.727
62815SOL     OW90341   1.819  11.774   3.614
62815SOL    HW190342   1.811  11.748   3.706
62815SOL    HW290343   1.773  11.705   3.566
62816SOL     OW90344  10.217   1.313   1.659
62816SOL    HW190345  10.199   1.336   1.568
62816SOL    HW290346  10.246   1.222   1.655
62817SOL     OW90347   0.616   0.840  13.925
62817SOL    HW190348   0.555   0.794  13.982
62817SOL    HW290349   0.675   0.886  13.985
62818SOL     OW90350   3.616   0.881   5.672
62818SOL    HW190351   3.552   0.890   5.602
62818SOL    HW290352   3.622   0.787   5.688
62819SOL     OW90353  13.164  10.492   0.844
62819SOL    HW190354  13.187  10.399   0.840
62819SOL    HW290355  13.083  10.499   0.793
62820SOL     OW90356   5.784  11.150   5.136
62820SOL    HW190357   5.785  11.101   5.053
62820SOL    HW290358   5.759  11.239   5.110
62821SOL     OW90359   2.427   3.845   0.306
62821SOL    HW190360   2.519   3.838   0.330
62821SOL    HW290361   2.399   3.929   0.344
62822SOL     OW90362   2.020   7.131   0.976
62822SOL    HW190363   1.979   7.175   0.902
62822SOL    HW290364   1.987   7.041   0.972
62823SOL     OW90365   1.670  12.844  14.185
62823SOL    HW190366   1.659  12.789  14.262
62823SOL    HW290367   1.756  12.885  14.197
62824SOL     OW90368  14.367  12.336   5.792
62824SOL    HW190369  14.412  12.420   5.782
62824SOL    HW290370  14.274  12.357   5.780
62825SOL     OW90371   9.935   7.046   2.308
62825SOL    HW190372   9.891   6.970   2.269
62825SOL    HW290373  10.011   7.061   2.251
62826SOL     OW90374   1.717  13.045  13.336
62826SOL    HW190375   1.711  13.083  13.248
62826SOL    HW290376   1.626  13.034  13.364
62827SOL     OW90377   3.807   8.253   4.964
62827SOL    HW190378   3.759   8.187   5.013
62827SOL    HW290379   3.825   8.213   4.879
62828SOL     OW90380   0.724   3.061   0.013
62828SOL    HW190381   0.656   3.005  14.845
62828SOL    HW290382   0.745   3.019   0.096
62829SOL     OW90383   7.377   6.226   0.682
62829SOL    HW190384   7.414   6.161   0.741
62829SOL    HW290385   7.326   6.176   0.618
62830SOL     OW90386  13.497   6.482   7.055
62830SOL    HW190387  13.555   6.495   6.980
62830SOL    HW290388  13.409   6.495   7.020
62831SOL     OW90389   2.702   2.022  11.486
62831SOL    HW190390   2.659   1.980  11.561
62831SOL    HW290391   2.684   2.115  11.499
62832SOL     OW90392  14.373  14.091   8.253
62832SOL    HW190393  14.303  14.027   8.264
62832SOL    HW290394  14.448  14.053   8.300
62833SOL     OW90395   2.689   6.257  14.127
62833SOL    HW190396   2.607   6.212  14.148
62833SOL    HW290397   2.757   6.202  14.166
62834SOL     OW90398  14.125   0.741   0.346
62834SOL    HW190399  14.178   0.765   0.270
62834SOL    HW290400  14.176   0.673   0.391
62835SOL     OW90401   5.179   1.693   1.374
62835SOL    HW190402   5.107   1.632   1.359
62835SOL    HW290403   5.191   1.693   1.469
62836SOL     OW90404  14.537   4.572   5.113
62836SOL    HW190405  14.447   4.540   5.121
62836SOL    HW290406  14.529   4.660   5.078
62837SOL     OW90407   7.049   7.894   5.297
62837SOL    HW190408   7.102   7.866   5.222
62837SOL    HW290409   7.067   7.829   5.365
62838SOL     OW90410  14.480  13.907   9.050
62838SOL    HW190411  14.409  13.960   9.085
62838SOL    HW290412  14.558  13.963   9.057
62839SOL     OW90413   1.909  14.723   9.808
62839SOL    HW190414   1.922  14.667   9.732
62839SOL    HW290415   1.821  14.701   9.839
62840SOL     OW90416   8.107   5.186   9.846
62840SOL    HW190417   8.193   5.172   9.807
62840SOL    HW290418   8.069   5.257   9.793
62841SOL     OW90419  10.425  10.831  14.142
62841SOL    HW190420  10.419  10.780  14.061
62841SOL    HW290421  10.476  10.908  14.118
62842SOL     OW90422  12.674  12.139   8.784
62842SOL    HW190423  12.579  12.141   8.797
62842SOL    HW290424  12.709  12.181   8.863
62843SOL     OW90425   7.329  11.258   9.328
62843SOL    HW190426   7.353  11.167   9.306
62843SOL    HW290427   7.301  11.255   9.419
62844SOL     OW90428   9.237  10.773   6.497
62844SOL    HW190429   9.177  10.744   6.428
62844SOL    HW290430   9.182  10.826   6.555
62845SOL     OW90431   5.411  10.117  12.502
62845SOL    HW190432   5.448  10.198  12.468
62845SOL    HW290433   5.486  10.069  12.537
62846SOL     OW90434   6.893   2.527   8.268
62846SOL    HW190435   6.951   2.577   8.210
62846SOL    HW290436   6.805   2.551   8.240
62847SOL     OW90437   3.235  11.397   0.336
62847SOL    HW190438   3.251  11.491   0.332
62847SOL    HW290439   3.292  11.366   0.406
62848SOL     OW90440   1.518   1.095   2.331
62848SOL    HW190441   1.518   1.036   2.256
62848SOL    HW290442   1.450   1.160   2.312
62849SOL     OW90443   0.097   1.806  14.221
62849SOL    HW190444   0.114   1.720  14.261
62849SOL    HW290445   0.113   1.868  14.292
62850SOL     OW90446  11.682   2.078  12.929
62850SOL    HW190447  11.715   2.022  12.858
62850SOL    HW290448  11.591   2.096  12.904
62851SOL     OW90449   1.287   9.097   3.344
62851SOL    HW190450   1.235   9.105   3.264
62851SOL    HW290451   1.231   9.134   3.413
62852SOL     OW90452   2.175   6.465  11.076
62852SOL    HW190453   2.205   6.469  10.985
62852SOL    HW290454   2.221   6.390  11.113
62853SOL     OW90455  11.878   0.487  11.631
62853SOL    HW190456  11.864   0.498  11.537
62853SOL    HW290457  11.965   0.448  11.638
62854SOL     OW90458   7.800  13.139  13.085
62854SOL    HW190459   7.812  13.232  13.068
62854SOL    HW290460   7.753  13.106  13.008
62855SOL     OW90461   5.125  11.617   7.578
62855SOL    HW190462   5.155  11.703   7.609
62855SOL    HW290463   5.123  11.562   7.657
62856SOL     OW90464   6.318   6.643  11.775
62856SOL    HW190465   6.308   6.611  11.865
62856SOL    HW290466   6.230   6.643  11.740
62857SOL     OW90467   5.244   6.276   4.293
62857SOL    HW190468   5.299   6.337   4.342
62857SOL    HW290469   5.168   6.327   4.267
62858SOL     OW90470  12.268   7.280   2.193
62858SOL    HW190471  12.179   7.310   2.173
62858SOL    HW290472  12.255   7.203   2.249
62859SOL     OW90473   8.598   0.310  10.320
62859SOL    HW190474   8.620   0.245  10.387
62859SOL    HW290475   8.534   0.266  10.264
62860SOL     OW90476   0.823  13.157  11.718
62860SOL    HW190477   0.748  13.202  11.757
62860SOL    HW290478   0.827  13.191  11.629
62861SOL     OW90479   0.123  11.626  13.093
62861SOL    HW190480   0.056  11.616  13.025
62861SOL    HW290481   0.076  11.664  13.167
62862SOL     OW90482   2.248   6.954  14.553
62862SOL    HW190483   2.224   6.872  14.595
62862SOL    HW290484   2.194   6.957  14.473
62863SOL     OW90485   0.720   7.321   9.052
62863SOL    HW190486   0.764   7.386   8.997
62863SOL    HW290487   0.636   7.362   9.074
62864SOL     OW90488  13.142   2.632   1.320
62864SOL    HW190489  13.089   2.578   1.262
62864SOL    HW290490  13.158   2.712   1.270
62865SOL     OW90491   3.613  14.140   3.701
62865SOL    HW190492   3.569  14.191   3.769
62865SOL    HW290493   3.638  14.058   3.745
62866SOL     OW90494   6.716   9.706  11.021
62866SOL    HW190495   6.646   9.770  11.012
62866SOL    HW290496   6.699   9.662  11.104
62867SOL     OW90497  11.417  11.235   9.733
62867SOL    HW190498  11.472  11.308   9.706
62867SOL    HW290499  11.328  11.269   9.729
62868SOL     OW90500  13.738   0.604   0.430
62868SOL    HW190501  13.800   0.617   0.502
62868SOL    HW290502  13.692   0.688   0.422
62869SOL     OW90503   3.664  14.792   0.666
62869SOL    HW190504   3.595  14.857   0.677
62869SOL    HW290505   3.745  14.842   0.678
62870SOL     OW90506   0.063   4.213   2.203
62870SOL    HW190507   0.062   4.207   2.108
62870SOL    HW290508   0.097   4.300   2.222
62871SOL     OW90509   4.261   3.604   1.361
62871SOL    HW190510   4.192   3.666   1.384
62871SOL    HW290511   4.227   3.519   1.390
62872SOL     OW90512   1.507  13.983   7.228
62872SOL    HW190513   1.578  13.993   7.165
62872SOL    HW290514   1.547  14.006   7.312
62873SOL     OW90515  12.553   1.239   8.670
62873SOL    HW190516  12.515   1.255   8.757
62873SOL    HW290517  12.642   1.275   8.677
62874SOL     OW90518  12.160  12.140   5.136
62874SOL    HW190519  12.196  12.157   5.049
62874SOL    HW290520  12.141  12.046   5.135
62875SOL     OW90521   0.899  12.369   1.808
62875SOL    HW190522   0.928  12.432   1.874
62875SOL    HW290523   0.851  12.421   1.744
62876SOL     OW90524  13.892  11.592   7.656
62876SOL    HW190525  13.839  11.605   7.576
62876SOL    HW290526  13.981  11.616   7.630
62877SOL     OW90527   9.444   6.957   0.411
62877SOL    HW190528   9.437   7.052   0.420
62877SOL    HW290529   9.360   6.923   0.443
62878SOL     OW90530  11.356   5.915   2.728
62878SOL    HW190531  11.407   5.918   2.809
62878SOL    HW290532  11.265   5.915   2.758
62879SOL     OW90533  12.376  11.826  13.165
62879SOL    HW190534  12.308  11.759  13.173
62879SOL    HW290535  12.397  11.849  13.256
62880SOL     OW90536   8.988  12.172   3.648
62880SOL    HW190537   9.041  12.099   3.681
62880SOL    HW290538   9.004  12.172   3.554
62881SOL     OW90539   0.469   8.191   3.470
62881SOL    HW190540   0.448   8.281   3.494
62881SOL    HW290541   0.553   8.173   3.513
62882SOL     OW90542   5.370   7.148   0.747
62882SOL    HW190543   5.385   7.174   0.838
62882SOL    HW290544   5.447   7.094   0.725
62883SOL     OW90545   2.298   7.299   1.340
62883SOL    HW190546   2.263   7.291   1.251
62883SOL    HW290547   2.283   7.213   1.380
62884SOL     OW90548   9.941   6.974  13.643
62884SOL    HW190549  10.012   7.011  13.591
62884SOL    HW290550   9.865   7.030  13.624
62885SOL     OW90551   4.556  10.936   2.367
62885SOL    HW190552   4.539  10.867   2.432
62885SOL    HW290553   4.473  10.947   2.322
62886SOL     OW90554   5.033   6.853   2.569
62886SOL    HW190555   4.991   6.939   2.568
62886SOL    HW290556   5.122   6.870   2.600
62887SOL     OW90557   7.299  10.746  11.101
62887SOL    HW190558   7.300  10.736  11.196
62887SOL    HW290559   7.339  10.665  11.068
62888SOL     OW90560   6.035   4.671   7.592
62888SOL    HW190561   5.948   4.708   7.578
62888SOL    HW290562   6.054   4.622   7.512
62889SOL     OW90563  11.918  10.431   7.722
62889SOL    HW190564  11.831  10.423   7.763
62889SOL    HW290565  11.921  10.359   7.659
62890SOL     OW90566   5.034   4.929   1.617
62890SOL    HW190567   5.084   4.849   1.634
62890SOL    HW290568   4.964   4.901   1.558
62891SOL     OW90569  14.191  11.624   5.590
62891SOL    HW190570  14.272  11.607   5.638
62891SOL    HW290571  14.142  11.684   5.646
62892SOL     OW90572  12.238   3.572  14.303
62892SOL    HW190573  12.281   3.566  14.217
62892SOL    HW290574  12.301   3.532  14.364
62893SOL     OW90575  10.514   5.649   8.787
62893SOL    HW190576  10.474   5.602   8.860
62893SOL    HW290577  10.581   5.704   8.828
62894SOL     OW90578  10.081   4.162   1.154
62894SOL    HW190579  10.081   4.258   1.153
62894SOL    HW290580  10.141   4.137   1.083
62895SOL     OW90581   5.965  12.712   1.501
62895SOL    HW190582   5.975  12.692   1.594
62895SOL    HW290583   5.871  12.727   1.490
62896SOL     OW90584   4.205  13.995   5.194
62896SOL    HW190585   4.256  13.918   5.219
62896SOL    HW290586   4.263  14.069   5.209
62897SOL     OW90587  10.314  14.041   2.121
62897SOL    HW190588  10.281  13.972   2.179
62897SOL    HW290589  10.388  14.000   2.075
62898SOL     OW90590  12.926  10.237  14.428
62898SOL    HW190591  12.978  10.179  14.485
62898SOL    HW290592  12.950  10.209  14.339
62899SOL     OW90593   2.779   4.360  12.138
62899SOL    HW190594   2.814   4.437  12.092
62899SOL    HW290595   2.857   4.308  12.158
62900SOL     OW90596   4.884  14.574   1.330
62900SOL    HW190597   4.896  14.647   1.392
62900SOL    HW290598   4.959  14.581   1.271
62901SOL     OW90599  14.066  10.658  10.179
62901SOL    HW190600  14.128  10.611  10.124
62901SOL    HW290601  14.061  10.745  10.140
62902SOL     OW90602   8.341   7.662   4.511
62902SOL    HW190603   8.392   7.645   4.432
62902SOL    HW290604   8.260   7.613   4.497
62903SOL     OW90605   3.177   9.822   4.370
62903SOL    HW190606   3.218   9.826   4.456
62903SOL    HW290607   3.084   9.808   4.388
62904SOL     OW90608   6.317   8.792   5.507
62904SOL    HW190609   6.363   8.717   5.545
62904SOL    HW290610   6.386   8.847   5.470
62905SOL     OW90611   0.429   7.143   4.259
62905SOL    HW190612   0.509   7.189   4.285
62905SOL    HW290613   0.395   7.105   4.341
62906SOL     OW90614   8.749  10.466  13.635
62906SOL    HW190615   8.679  10.464  13.700
62906SOL    HW290616   8.719  10.528  13.569
62907SOL     OW90617   3.253   4.249   9.088
62907SOL    HW190618   3.254   4.185   9.017
62907SOL    HW290619   3.168   4.238   9.130
62908SOL     OW90620   2.359  14.544  12.767
62908SOL    HW190621   2.402  14.510  12.689
62908SOL    HW290622   2.290  14.479  12.787
62909SOL     OW90623  10.322  10.061   8.049
62909SOL    HW190624  10.346   9.970   8.070
62909SOL    HW290625  10.254  10.083   8.113
62910SOL     OW90626  10.372   1.457  13.403
62910SOL    HW190627  10.295   1.510  13.385
62910SOL    HW290628  10.446   1.518  13.398
62911SOL     OW90629   1.721  12.395   9.403
62911SOL    HW190630   1.763  12.352   9.329
62911SOL    HW290631   1.655  12.333   9.433
62912SOL     OW90632   4.277   0.666   6.362
62912SOL    HW190633   4.354   0.720   6.347
62912SOL    HW290634   4.286   0.594   6.299
62913SOL     OW90635   9.437   9.249   1.143
62913SOL    HW190636   9.362   9.255   1.202
62913SOL    HW290637   9.425   9.322   1.082
62914SOL     OW90638  13.045   7.957  13.071
62914SOL    HW190639  13.080   7.882  13.119
62914SOL    HW290640  12.954   7.965  13.101
62915SOL     OW90641   0.407  14.750   2.026
62915SOL    HW190642   0.495  14.763   1.991
62915SOL    HW290643   0.400  14.656   2.040
62916SOL     OW90644   6.790   2.334   5.320
62916SOL    HW190645   6.736   2.267   5.362
62916SOL    HW290646   6.822   2.293   5.240
62917SOL     OW90647  12.204   2.205  12.589
62917SOL    HW190648  12.259   2.272  12.630
62917SOL    HW290649  12.243   2.190  12.503
62918SOL     OW90650   1.265   4.305   9.639
62918SOL    HW190651   1.180   4.267   9.618
62918SOL    HW290652   1.249   4.354   9.720
62919SOL     OW90653   4.178  13.567   8.113
62919SOL    HW190654   4.233  13.631   8.068
62919SOL    HW290655   4.109  13.545   8.050
62920SOL     OW90656   1.092   6.283  11.749
62920SOL    HW190657   1.074   6.251  11.838
62920SOL    HW290658   1.076   6.207  11.693
62921SOL     OW90659  14.184  10.238   2.777
62921SOL    HW190660  14.180  10.318   2.726
62921SOL    HW290661  14.094  10.221   2.803
62922SOL     OW90662  11.526  12.224  10.550
62922SOL    HW190663  11.537  12.215  10.645
62922SOL    HW290664  11.593  12.287  10.524
62923SOL     OW90665   0.789   9.782   4.089
62923SOL    HW190666   0.727   9.835   4.138
62923SOL    HW290667   0.736   9.712   4.050
62924SOL     OW90668   8.475   9.833   7.732
62924SOL    HW190669   8.548   9.869   7.682
62924SOL    HW290670   8.490   9.738   7.731
62925SOL     OW90671  11.021   9.217   6.054
62925SOL    HW190672  10.979   9.158   5.992
62925SOL    HW290673  10.970   9.298   6.049
62926SOL     OW90674  11.351   5.708   0.155
62926SOL    HW190675  11.444   5.686   0.164
62926SOL    HW290676  11.351   5.797   0.122
62927SOL     OW90677  12.596   7.908   0.581
62927SOL    HW190678  12.596   7.824   0.534
62927SOL    HW290679  12.567   7.971   0.516
62928SOL     OW90680   7.172   2.085   2.853
62928SOL    HW190681   7.135   2.073   2.941
62928SOL    HW290682   7.147   2.174   2.829
62929SOL     OW90683   2.748   9.205  11.114
62929SOL    HW190684   2.837   9.171  11.104
62929SOL    HW290685   2.712   9.204  11.025
62930SOL     OW90686   4.548  11.103   3.938
62930SOL    HW190687   4.615  11.125   3.873
62930SOL    HW290688   4.557  11.009   3.952
62931SOL     OW90689   2.222  10.961   3.282
62931SOL    HW190690   2.195  10.920   3.364
62931SOL    HW290691   2.152  10.939   3.220
62932SOL     OW90692   9.049  10.340   7.733
62932SOL    HW190693   9.031  10.249   7.758
62932SOL    HW290694   9.016  10.347   7.643
62933SOL     OW90695   7.123  13.870   6.790
62933SOL    HW190696   7.070  13.833   6.860
62933SOL    HW290697   7.207  13.892   6.831
62934SOL     OW90698   2.762   4.531   8.874
62934SOL    HW190699   2.755   4.453   8.819
62934SOL    HW290700   2.814   4.592   8.822
62935SOL     OW90701   9.681   3.664   9.733
62935SOL    HW190702   9.589   3.640   9.739
62935SOL    HW290703   9.683   3.738   9.672
62936SOL     OW90704   9.410   8.834  10.043
62936SOL    HW190705   9.332   8.867   9.999
62936SOL    HW290706   9.456   8.913  10.073
62937SOL     OW90707   3.090   4.416   8.874
62937SOL    HW190708   3.052   4.357   8.940
62937SOL    HW290709   3.048   4.390   8.792
62938SOL     OW90710   2.783   8.759  14.135
62938SOL    HW190711   2.840   8.782  14.209
62938SOL    HW290712   2.695   8.776  14.166
62939SOL     OW90713   4.795   7.879  13.751
62939SOL    HW190714   4.885   7.872  13.782
62939SOL    HW290715   4.802   7.921  13.666
62940SOL     OW90716   3.543   7.108   9.864
62940SOL    HW190717   3.578   7.116   9.775
62940SOL    HW290718   3.605   7.157   9.918
62941SOL     OW90719   0.533   6.687   1.069
62941SOL    HW190720   0.539   6.779   1.094
62941SOL    HW290721   0.439   6.671   1.060
62942SOL     OW90722   4.032  10.336  11.078
62942SOL    HW190723   4.067  10.296  11.158
62942SOL    HW290724   3.943  10.303  11.071
62943SOL     OW90725   4.629   1.884   4.710
62943SOL    HW190726   4.698   1.854   4.651
62943SOL    HW290727   4.549   1.845   4.676
62944SOL     OW90728  10.388  12.909   7.579
62944SOL    HW190729  10.308  12.869   7.614
62944SOL    HW290730  10.442  12.835   7.552
62945SOL     OW90731   7.008   2.181   9.797
62945SOL    HW190732   6.957   2.120   9.743
62945SOL    HW290733   7.067   2.225   9.736
62946SOL     OW90734   8.356  14.365   4.805
62946SOL    HW190735   8.296  14.403   4.869
62946SOL    HW290736   8.333  14.272   4.803
62947SOL     OW90737   6.709  14.220   1.686
62947SOL    HW190738   6.767  14.165   1.738
62947SOL    HW290739   6.635  14.163   1.664
62948SOL     OW90740   1.461  10.180   7.131
62948SOL    HW190741   1.525  10.226   7.184
62948SOL    HW290742   1.402  10.139   7.194
62949SOL     OW90743   2.579   8.146   3.033
62949SOL    HW190744   2.665   8.157   2.990
62949SOL    HW290745   2.546   8.235   3.042
62950SOL     OW90746   3.408  12.255   8.287
62950SOL    HW190747   3.499  12.278   8.269
62950SOL    HW290748   3.405  12.160   8.275
62951SOL     OW90749   5.036   7.332  13.474
62951SOL    HW190750   4.986   7.345  13.555
62951SOL    HW290751   4.986   7.379  13.408
62952SOL     OW90752   0.200   4.637   7.567
62952SOL    HW190753   0.221   4.608   7.478
62952SOL    HW290754   0.104   4.632   7.572
62953SOL     OW90755   0.133  10.409   9.440
62953SOL    HW190756   0.130  10.463   9.518
62953SOL    HW290757   0.049  10.423   9.397
62954SOL     OW90758   9.578  12.182   2.809
62954SOL    HW190759   9.526  12.194   2.729
62954SOL    HW290760   9.668  12.195   2.781
62955SOL     OW90761   9.836   9.604   9.970
62955SOL    HW190762   9.758   9.572   9.925
62955SOL    HW290763   9.824   9.577  10.062
62956SOL     OW90764   1.580   0.801   0.391
62956SOL    HW190765   1.497   0.825   0.432
62956SOL    HW290766   1.563   0.803   0.297
62957SOL     OW90767   5.678  13.292   6.587
62957SOL    HW190768   5.644  13.205   6.563
62957SOL    HW290769   5.659  13.347   6.511
62958SOL     OW90770   6.053   5.050  14.745
62958SOL    HW190771   6.111   5.091  14.681
62958SOL    HW290772   5.972   5.101  14.741
62959SOL     OW90773   2.331   1.398   3.925
62959SOL    HW190774   2.281   1.480   3.932
62959SOL    HW290775   2.366   1.399   3.836
62960SOL     OW90776   6.658   7.703  10.365
62960SOL    HW190777   6.691   7.791  10.386
62960SOL    HW290778   6.598   7.717  10.292
62961SOL     OW90779  11.875   6.730   8.401
62961SOL    HW190780  11.893   6.766   8.314
62961SOL    HW290781  11.798   6.674   8.388
62962SOL     OW90782   4.283   2.534  10.997
62962SOL    HW190783   4.360   2.477  11.004
62962SOL    HW290784   4.249   2.539  11.086
62963SOL     OW90785   2.612   8.342  12.418
62963SOL    HW190786   2.543   8.356  12.353
62963SOL    HW290787   2.679   8.405  12.395
62964SOL     OW90788   9.659   4.913   3.605
62964SOL    HW190789   9.667   4.834   3.657
62964SOL    HW290790   9.565   4.921   3.588
62965SOL     OW90791   1.278  12.850   0.914
62965SOL    HW190792   1.288  12.943   0.934
62965SOL    HW290793   1.266  12.847   0.819
62966SOL     OW90794   4.072   3.498   9.512
62966SOL    HW190795   4.099   3.553   9.586
62966SOL    HW290796   3.979   3.520   9.499
62967SOL     OW90797   9.478  13.923  13.437
62967SOL    HW190798   9.459  14.007  13.478
62967SOL    HW290799   9.403  13.907  13.380
62968SOL     OW90800   9.021  13.141   4.419
62968SOL    HW190801   8.992  13.092   4.496
62968SOL    HW290802   9.113  13.162   4.438
62969SOL     OW90803   1.177  10.480  12.695
62969SOL    HW190804   1.149  10.530  12.772
62969SOL    HW290805   1.271  10.495  12.689
62970SOL     OW90806  11.597   0.169   2.038
62970SOL    HW190807  11.592   0.083   1.996
62970SOL    HW290808  11.514   0.211   2.017
62971SOL     OW90809   1.100   2.983   4.473
62971SOL    HW190810   1.020   3.021   4.438
62971SOL    HW290811   1.072   2.899   4.511
62972SOL     OW90812   6.965   9.405  10.033
62972SOL    HW190813   7.042   9.413   9.977
62972SOL    HW290814   6.910   9.341   9.989
62973SOL     OW90815   5.942   2.365   8.148
62973SOL    HW190816   6.029   2.349   8.186
62973SOL    HW290817   5.891   2.406   8.217
62974SOL     OW90818   3.954   8.097   3.138
62974SOL    HW190819   4.021   8.144   3.188
62974SOL    HW290820   3.878   8.094   3.197
62975SOL     OW90821  12.295   0.264   5.420
62975SOL    HW190822  12.363   0.260   5.352
62975SOL    HW290823  12.334   0.318   5.488
62976SOL     OW90824   9.167   1.981  11.298
62976SOL    HW190825   9.151   1.892  11.269
62976SOL    HW290826   9.252   1.977  11.342
62977SOL     OW90827   9.540   9.477  11.218
62977SOL    HW190828   9.591   9.541  11.269
62977SOL    HW290829   9.482   9.531  11.163
62978SOL     OW90830   9.022   4.464   7.009
62978SOL    HW190831   9.020   4.474   6.914
62978SOL    HW290832   9.115   4.465   7.031
62979SOL     OW90833  12.166   4.658   1.041
62979SOL    HW190834  12.230   4.727   1.024
62979SOL    HW290835  12.193   4.620   1.125
62980SOL     OW90836  10.390   6.265   4.857
62980SOL    HW190837  10.408   6.294   4.946
62980SOL    HW290838  10.305   6.222   4.862
62981SOL     OW90839   5.741   1.215   4.905
62981SOL    HW190840   5.658   1.225   4.859
62981SOL    HW290841   5.723   1.152   4.975
62982SOL     OW90842   5.894   7.948   5.742
62982SOL    HW190843   5.877   8.005   5.817
62982SOL    HW290844   5.825   7.882   5.746
62983SOL     OW90845  11.523   8.986   0.718
62983SOL    HW190846  11.618   8.971   0.721
62983SOL    HW290847  11.513   9.078   0.740
62984SOL     OW90848   2.635  10.459   8.724
62984SOL    HW190849   2.673  10.476   8.810
62984SOL    HW290850   2.603  10.369   8.729
62985SOL     OW90851   4.218   3.185   8.935
62985SOL    HW190852   4.198   3.266   8.889
62985SOL    HW290853   4.246   3.213   9.022
62986SOL     OW90854  13.475   0.437  14.827
62986SOL    HW190855  13.481   0.444  14.732
62986SOL    HW290856  13.390   0.394  14.842
62987SOL     OW90857  12.344   1.818   1.723
62987SOL    HW190858  12.348   1.732   1.681
62987SOL    HW290859  12.386   1.878   1.661
62988SOL     OW90860   9.814  10.792   8.636
62988SOL    HW190861   9.835  10.882   8.609
62988SOL    HW290862   9.719  10.792   8.645
62989SOL     OW90863   7.043   4.333  11.406
62989SOL    HW190864   6.998   4.409  11.369
62989SOL    HW290865   7.133   4.362  11.419
62990SOL     OW90866   1.801   6.474  10.616
62990SOL    HW190867   1.837   6.509  10.697
62990SOL    HW290868   1.811   6.545  10.552
62991SOL     OW90869   8.153   6.656   4.862
62991SOL    HW190870   8.077   6.606   4.892
62991SOL    HW290871   8.146   6.656   4.766
62992SOL     OW90872   1.571   9.658   2.784
62992SOL    HW190873   1.524   9.605   2.719
62992SOL    HW290874   1.525   9.642   2.866
62993SOL     OW90875  14.071   9.631   1.002
62993SOL    HW190876  14.054   9.613   0.909
62993SOL    HW290877  14.130   9.707   1.000
62994SOL     OW90878  14.497  12.864   1.221
62994SOL    HW190879  14.425  12.882   1.160
62994SOL    HW290880  14.471  12.785   1.268
62995SOL     OW90881  14.130   1.472   4.211
62995SOL    HW190882  14.184   1.550   4.203
62995SOL    HW290883  14.052   1.491   4.159
62996SOL     OW90884  11.028  11.682  12.768
62996SOL    HW190885  11.044  11.724  12.853
62996SOL    HW290886  11.115  11.678  12.727
62997SOL     OW90887   2.493  11.259   9.849
62997SOL    HW190888   2.418  11.251   9.789
62997SOL    HW290889   2.570  11.258   9.791
62998SOL     OW90890   9.452   9.004  11.826
62998SOL    HW190891   9.465   9.026  11.918
62998SOL    HW290892   9.357   9.000  11.815
62999SOL     OW90893   2.880   6.919   9.803
62999SOL    HW190894   2.895   6.868   9.724
62999SOL    HW290895   2.811   6.872   9.850
63000SOL     OW90896  11.572  14.437  14.145
63000SOL    HW190897  11.545  14.497  14.214
63000SOL    HW290898  11.667  14.427  14.158
63001SOL     OW90899   3.631  11.173   5.594
63001SOL    HW190900   3.597  11.085   5.612
63001SOL    HW290901   3.697  11.160   5.527
63002SOL     OW90902   1.002  11.414   2.517
63002SOL    HW190903   0.951  11.472   2.574
63002SOL    HW290904   0.958  11.419   2.432
63003SOL     OW90905   8.693   5.003   3.316
63003SOL    HW190906   8.715   4.910   3.313
63003SOL    HW290907   8.619   5.008   3.377
63004SOL     OW90908  13.890   3.442   1.275
63004SOL    HW190909  13.895   3.525   1.323
63004SOL    HW290910  13.870   3.468   1.185
63005SOL     OW90911   8.420   3.067   0.889
63005SOL    HW190912   8.397   3.072   0.796
63005SOL    HW290913   8.503   3.021   0.891
63006SOL     OW90914   1.595  12.340   6.693
63006SOL    HW190915   1.525  12.291   6.650
63006SOL    HW290916   1.580  12.431   6.666
63007SOL     OW90917  13.449   8.938   4.031
63007SOL    HW190918  13.494   9.021   4.044
63007SOL    HW290919  13.393   8.953   3.954
63008SOL     OW90920   6.240   8.696  13.295
63008SOL    HW190921   6.183   8.707  13.219
63008SOL    HW290922   6.180   8.675  13.367
63009SOL     OW90923   1.489   5.552   6.300
63009SOL    HW190924   1.471   5.487   6.367
63009SOL    HW290925   1.552   5.612   6.341
63010SOL     OW90926  11.563   2.856   4.084
63010SOL    HW190927  11.619   2.864   4.161
63010SOL    HW290928  11.570   2.764   4.059
63011SOL     OW90929   0.848   3.582  11.121
63011SOL    HW190930   0.808   3.650  11.175
63011SOL    HW290931   0.829   3.500  11.167
63012SOL     OW90932   1.500  10.356  13.383
63012SOL    HW190933   1.436  10.315  13.441
63012SOL    HW290934   1.468  10.446  13.374
63013SOL     OW90935   8.799   2.856  12.509
63013SOL    HW190936   8.771   2.936  12.554
63013SOL    HW290937   8.826   2.798  12.580
63014SOL     OW90938  10.240  14.565  11.887
63014SOL    HW190939  10.322  14.610  11.867
63014SOL    HW290940  10.183  14.634  11.923
63015SOL     OW90941  10.644  12.401   1.217
63015SOL    HW190942  10.713  12.466   1.228
63015SOL    HW290943  10.673  12.326   1.269
63016SOL     OW90944  14.365   9.276   0.994
63016SOL    HW190945  14.392   9.303   1.082
63016SOL    HW290946  14.385   9.352   0.939
63017SOL     OW90947   2.298   7.503  12.548
63017SOL    HW190948   2.341   7.570  12.494
63017SOL    HW290949   2.366   7.438  12.564
63018SOL     OW90950   5.426   2.151  12.119
63018SOL    HW190951   5.401   2.112  12.035
63018SOL    HW290952   5.506   2.105  12.144
63019SOL     OW90953   5.641  14.356   7.468
63019SOL    HW190954   5.644  14.261   7.478
63019SOL    HW290955   5.600  14.370   7.383
63020SOL     OW90956   2.149   4.699   9.912
63020SOL    HW190957   2.201   4.640   9.858
63020SOL    HW290958   2.153   4.783   9.866
63021SOL     OW90959   5.051  13.239   4.667
63021SOL    HW190960   5.081  13.329   4.651
63021SOL    HW290961   5.131  13.189   4.678
63022SOL     OW90962   4.703  13.575   6.584
63022SOL    HW190963   4.750  13.492   6.577
63022SOL    HW290964   4.698  13.592   6.678
63023SOL     OW90965   2.037   2.978  12.211
63023SOL    HW190966   2.125   2.945  12.198
63023SOL    HW290967   2.048   3.073  12.219
63024SOL     OW90968   1.956   6.665  12.242
63024SOL    HW190969   2.022   6.722  12.281
63024SOL    HW290970   1.978   6.578  12.275
63025SOL     OW90971  12.014   9.609  12.938
63025SOL    HW190972  11.922   9.631  12.950
63025SOL    HW290973  12.019   9.573  12.849
63026SOL     OW90974   1.484   1.113  10.136
63026SOL    HW190975   1.515   1.054  10.204
63026SOL    HW290976   1.391   1.093  10.126
63027SOL     OW90977   1.739  13.751   7.422
63027SOL    HW190978   1.693  13.832   7.444
63027SOL    HW290979   1.762  13.712   7.506
63028SOL     OW90980   5.860  12.953   7.971
63028SOL    HW190981   5.775  12.957   8.014
63028SOL    HW290982   5.915  12.901   8.030
63029SOL     OW90983   4.730   9.152   4.878
63029SOL    HW190984   4.766   9.232   4.840
63029SOL    HW290985   4.678   9.182   4.953
63030SOL     OW90986  11.720   7.879   5.403
63030SOL    HW190987  11.808   7.842   5.396
63030SOL    HW290988  11.691   7.889   5.312
63031SOL     OW90989   1.089   4.859   4.933
63031SOL    HW190990   1.159   4.859   4.869
63031SOL    HW290991   1.131   4.887   5.015
63032SOL     OW90992   3.654   5.840  12.113
63032SOL    HW190993   3.723   5.786  12.076
63032SOL    HW290994   3.649   5.917  12.055
63033SOL     OW90995   0.914  13.097  13.240
63033SOL    HW190996   0.987  13.115  13.181
63033SOL    HW290997   0.844  13.155  13.211
63034SOL     OW90998   2.424  12.562   4.073
63034SOL    HW190999   2.426  12.648   4.114
63034SOL    HW291000   2.341  12.524   4.103
63035SOL     OW91001   2.125  10.011   2.635
63035SOL    HW191002   2.142  10.040   2.725
63035SOL    HW291003   2.193  10.055   2.583
63036SOL     OW91004  11.243  12.740  11.496
63036SOL    HW191005  11.195  12.737  11.413
63036SOL    HW291006  11.188  12.691  11.557
63037SOL     OW91007   4.370   5.698  13.405
63037SOL    HW191008   4.419   5.754  13.344
63037SOL    HW291009   4.278   5.720  13.388
63038SOL     OW91010  12.984   2.087   7.419
63038SOL    HW191011  13.043   2.037   7.362
63038SOL    HW291012  12.917   2.024   7.446
63039SOL     OW91013   5.325  10.274   7.112
63039SOL    HW191014   5.269  10.223   7.171
63039SOL    HW291015   5.310  10.365   7.138
63040SOL     OW91016   4.891  10.060   8.855
63040SOL    HW191017   4.956  10.065   8.925
63040SOL    HW291018   4.808  10.082   8.898
63041SOL     OW91019   4.921   3.629  14.800
63041SOL    HW191020   4.995   3.684  14.824
63041SOL    HW291021   4.953   3.539  14.808
63042SOL     OW91022   5.549  13.616  11.974
63042SOL    HW191023   5.611  13.633  11.903
63042SOL    HW291024   5.581  13.668  12.047
63043SOL     OW91025   4.589  14.033  10.706
63043SOL    HW191026   4.585  14.126  10.727
63043SOL    HW291027   4.518  13.994  10.756
63044SOL     OW91028  11.752   4.089   8.522
63044SOL    HW191029  11.778   3.998   8.513
63044SOL    HW291030  11.699   4.092   8.602
63045SOL     OW91031   5.748   7.206  10.273
63045SOL    HW191032   5.779   7.140  10.335
63045SOL    HW291033   5.699   7.157  10.208
63046SOL     OW91034  11.207  12.051  12.832
63046SOL    HW191035  11.240  12.022  12.747
63046SOL    HW291036  11.264  12.124  12.856
63047SOL     OW91037  10.060  13.013  10.017
63047SOL    HW191038  10.016  13.082   9.968
63047SOL    HW291039  10.056  12.936   9.959
63048SOL     OW91040   4.440  12.160  10.302
63048SOL    HW191041   4.445  12.255  10.292
63048SOL    HW291042   4.531  12.133  10.310
63049SOL     OW91043  11.710   2.126   1.264
63049SOL    HW191044  11.745   2.062   1.326
63049SOL    HW291045  11.617   2.132   1.286
63050SOL     OW91046   2.847  13.132   2.612
63050SOL    HW191047   2.820  13.207   2.560
63050SOL    HW291048   2.872  13.066   2.548
63051SOL     OW91049  13.197  11.757   3.912
63051SOL    HW191050  13.212  11.705   3.992
63051SOL    HW291051  13.237  11.704   3.842
63052SOL     OW91052   0.428   6.013   6.670
63052SOL    HW191053   0.523   6.016   6.683
63052SOL    HW291054   0.396   6.095   6.707
63053SOL     OW91055   2.149   7.589   6.220
63053SOL    HW191056   2.228   7.640   6.239
63053SOL    HW291057   2.173   7.536   6.144
63054SOL     OW91058  12.379   1.854  10.236
63054SOL    HW191059  12.341   1.878  10.320
63054SOL    HW291060  12.388   1.759  10.240
63055SOL     OW91061  10.835  14.586   8.127
63055SOL    HW191062  10.898  14.537   8.073
63055SOL    HW291063  10.875  14.672   8.138
63056SOL     OW91064   3.508   8.232  14.390
63056SOL    HW191065   3.577   8.297  14.399
63056SOL    HW291066   3.428   8.283  14.381
63057SOL     OW91067   2.652  12.449  11.425
63057SOL    HW191068   2.671  12.542  11.414
63057SOL    HW291069   2.727  12.404  11.385
63058SOL     OW91070   7.231  12.889   2.494
63058SOL    HW191071   7.161  12.952   2.478
63058SOL    HW291072   7.310  12.932   2.461
63059SOL     OW91073   0.654  13.794   5.576
63059SOL    HW191074   0.567  13.757   5.592
63059SOL    HW291075   0.713  13.719   5.579
63060SOL     OW91076   3.949   9.817  14.339
63060SOL    HW191077   4.036   9.778  14.330
63060SOL    HW291078   3.890   9.742  14.339
63061SOL     OW91079  11.649  10.038   6.629
63061SOL    HW191080  11.649  10.123   6.585
63061SOL    HW291081  11.631  10.059   6.721
63062SOL     OW91082  13.029   2.788  13.192
63062SOL    HW191083  13.058   2.839  13.268
63062SOL    HW291084  13.110   2.763  13.147
63063SOL     OW91085   1.919  13.542  12.004
63063SOL    HW191086   1.861  13.483  11.956
63063SOL    HW291087   1.972  13.484  12.059
63064SOL     OW91088   7.722   3.397   6.356
63064SOL    HW191089   7.695   3.445   6.435
63064SOL    HW291090   7.708   3.459   6.285
63065SOL     OW91091   1.456   7.896   7.302
63065SOL    HW191092   1.400   7.837   7.352
63065SOL    HW291093   1.535   7.845   7.285
63066SOL     OW91094   9.766   8.242  12.296
63066SOL    HW191095   9.679   8.208  12.315
63066SOL    HW291096   9.760   8.336  12.312
63067SOL     OW91097  12.901  11.509   7.030
63067SOL    HW191098  12.882  11.476   7.118
63067SOL    HW291099  12.982  11.465   7.004
63068SOL     OW91100  11.555  11.571   5.394
63068SOL    HW191101  11.629  11.623   5.426
63068SOL    HW291102  11.495  11.566   5.469
63069SOL     OW91103   7.716  10.459   9.977
63069SOL    HW191104   7.623  10.483   9.972
63069SOL    HW291105   7.752  10.487   9.893
63070SOL     OW91106   1.791   1.422   8.864
63070SOL    HW191107   1.761   1.332   8.874
63070SOL    HW291108   1.729   1.461   8.801
63071SOL     OW91109   0.916   7.173  12.986
63071SOL    HW191110   0.849   7.230  13.024
63071SOL    HW291111   0.999   7.216  13.005
63072SOL     OW91112   8.429   8.322   7.832
63072SOL    HW191113   8.493   8.289   7.769
63072SOL    HW291114   8.366   8.251   7.842
63073SOL     OW91115   0.558   2.365   1.583
63073SOL    HW191116   0.476   2.316   1.581
63073SOL    HW291117   0.547   2.427   1.655
63074SOL     OW91118  13.061  11.138   5.585
63074SOL    HW191119  13.073  11.186   5.502
63074SOL    HW291120  13.083  11.048   5.563
63075SOL     OW91121   9.574   5.627   4.686
63075SOL    HW191122   9.576   5.602   4.593
63075SOL    HW291123   9.539   5.551   4.731
63076SOL     OW91124   5.407   6.422   2.083
63076SOL    HW191125   5.417   6.518   2.082
63076SOL    HW291126   5.463   6.394   2.155
63077SOL     OW91127   0.255   7.933   9.268
63077SOL    HW191128   0.284   7.977   9.347
63077SOL    HW291129   0.159   7.935   9.273
63078SOL     OW91130   5.412   9.896   6.369
63078SOL    HW191131   5.429   9.839   6.294
63078SOL    HW291132   5.412   9.837   6.445
63079SOL     OW91133   8.573  14.491   0.831
63079SOL    HW191134   8.572  14.426   0.902
63079SOL    HW291135   8.632  14.559   0.863
63080SOL     OW91136   1.999   8.264   7.509
63080SOL    HW191137   1.978   8.336   7.450
63080SOL    HW291138   2.094   8.253   7.502
63081SOL     OW91139   1.255  13.963   7.107
63081SOL    HW191140   1.348  13.950   7.123
63081SOL    HW291141   1.247  14.054   7.079
63082SOL     OW91142  12.662   9.182  11.705
63082SOL    HW191143  12.657   9.189  11.800
63082SOL    HW291144  12.644   9.089  11.687
63083SOL     OW91145  10.801  14.864   4.269
63083SOL    HW191146  10.811   0.033   4.182
63083SOL    HW291147  10.864   0.040   4.324
63084SOL     OW91148   8.776   5.158   5.779
63084SOL    HW191149   8.826   5.228   5.820
63084SOL    HW291150   8.770   5.183   5.687
63085SOL     OW91151   3.375   3.479   4.148
63085SOL    HW191152   3.283   3.492   4.172
63085SOL    HW291153   3.414   3.566   4.153
63086SOL     OW91154   2.911   7.395  12.062
63086SOL    HW191155   2.829   7.443  12.058
63086SOL    HW291156   2.927   7.365  11.972
63087SOL     OW91157   2.671  14.373  12.201
63087SOL    HW191158   2.589  14.330  12.226
63087SOL    HW291159   2.730  14.301  12.178
63088SOL     OW91160   9.682   4.539  10.873
63088SOL    HW191161   9.643   4.604  10.816
63088SOL    HW291162   9.615   4.471  10.882
63089SOL     OW91163   3.084   3.011  11.873
63089SOL    HW191164   3.022   3.083  11.863
63089SOL    HW291165   3.121   3.000  11.785
63090SOL     OW91166   8.614   8.221   5.299
63090SOL    HW191167   8.558   8.241   5.374
63090SOL    HW291168   8.659   8.141   5.324
63091SOL     OW91169   8.143   5.492   4.750
63091SOL    HW191170   8.065   5.538   4.719
63091SOL    HW291171   8.217   5.545   4.719
63092SOL     OW91172   5.231   5.828   8.922
63092SOL    HW191173   5.216   5.734   8.928
63092SOL    HW291174   5.213   5.861   9.010
63093SOL     OW91175   4.203   3.316   5.490
63093SOL    HW191176   4.292   3.351   5.485
63093SOL    HW291177   4.148   3.385   5.452
63094SOL     OW91178  13.596   2.825   0.678
63094SOL    HW191179  13.564   2.747   0.724
63094SOL    HW291180  13.659   2.864   0.737
63095SOL     OW91181   6.818   2.522   3.803
63095SOL    HW191182   6.843   2.590   3.866
63095SOL    HW291183   6.783   2.570   3.728
63096SOL     OW91184   8.091   6.553   2.077
63096SOL    HW191185   8.051   6.582   2.158
63096SOL    HW291186   8.017   6.533   2.019
63097SOL     OW91187   4.612   5.875   3.746
63097SOL    HW191188   4.695   5.831   3.727
63097SOL    HW291189   4.615   5.956   3.695
63098SOL     OW91190  13.927  10.439   4.219
63098SOL    HW191191  13.999  10.502   4.220
63098SOL    HW291192  13.959  10.365   4.271
63099SOL     OW91193   4.430   3.842   5.198
63099SOL    HW191194   4.496   3.885   5.144
63099SOL    HW291195   4.448   3.872   5.287
63100SOL     OW91196   7.983   5.884   1.460
63100SOL    HW191197   7.954   5.852   1.545
63100SOL    HW291198   8.061   5.936   1.479
63101SOL     OW91199  14.243   8.019   1.980
63101SOL    HW191200  14.322   8.036   1.929
63101SOL    HW291201  14.212   7.933   1.951
63102SOL     OW91202  14.303   2.926  11.700
63102SOL    HW191203  14.261   2.877  11.771
63102SOL    HW291204  14.369   2.866  11.666
63103SOL     OW91205   3.538   7.027  10.329
63103SOL    HW191206   3.570   7.116  10.345
63103SOL    HW291207   3.605   6.987  10.273
63104SOL     OW91208  10.642   9.004  10.734
63104SOL    HW191209  10.550   9.026  10.717
63104SOL    HW291210  10.687   9.088  10.736
63105SOL     OW91211   4.870   2.984   5.111
63105SOL    HW191212   4.885   3.009   5.019
63105SOL    HW291213   4.881   3.066   5.160
63106SOL     OW91214  10.248   6.953  13.181
63106SOL    HW191215  10.155   6.939  13.164
63106SOL    HW291216  10.250   7.013  13.256
63107SOL     OW91217   4.109   5.186   9.328
63107SOL    HW191218   4.201   5.168   9.309
63107SOL    HW291219   4.110   5.239   9.407
63108SOL     OW91220   9.623   0.939   0.833
63108SOL    HW191221   9.656   1.029   0.827
63108SOL    HW291222   9.553   0.944   0.898
63109SOL     OW91223   9.246   2.620   5.290
63109SOL    HW191224   9.209   2.687   5.347
63109SOL    HW291225   9.197   2.541   5.312
63110SOL     OW91226   2.365  13.183   4.796
63110SOL    HW191227   2.439  13.212   4.743
63110SOL    HW291228   2.291  13.184   4.736
63111SOL     OW91229  12.074   4.250   8.221
63111SOL    HW191230  12.058   4.217   8.133
63111SOL    HW291231  12.163   4.220   8.242
63112SOL     OW91232   9.009   8.739   6.215
63112SOL    HW191233   8.923   8.776   6.232
63112SOL    HW291234   9.020   8.673   6.284
63113SOL     OW91235   9.626  11.013   7.621
63113SOL    HW191236   9.711  10.970   7.616
63113SOL    HW291237   9.581  10.969   7.693
63114SOL     OW91238   2.315  11.408   8.126
63114SOL    HW191239   2.280  11.320   8.138
63114SOL    HW291240   2.244  11.457   8.084
63115SOL     OW91241   6.973   3.276  13.920
63115SOL    HW191242   7.066   3.271  13.898
63115SOL    HW291243   6.935   3.329  13.849
63116SOL     OW91244   0.744  10.258   6.944
63116SOL    HW191245   0.799  10.181   6.961
63116SOL    HW291246   0.784  10.300   6.867
63117SOL     OW91247   2.485   0.478   4.019
63117SOL    HW191248   2.404   0.433   3.996
63117SOL    HW291249   2.542   0.409   4.053
63118SOL     OW91250   8.745   0.930   1.030
63118SOL    HW191251   8.815   0.971   0.979
63118SOL    HW291252   8.679   0.998   1.040
63119SOL     OW91253  11.151   4.245   6.612
63119SOL    HW191254  11.134   4.159   6.651
63119SOL    HW291255  11.134   4.233   6.519
63120SOL     OW91256   2.042  11.328   7.386
63120SOL    HW191257   2.075  11.264   7.449
63120SOL    HW291258   1.969  11.284   7.343
63121SOL     OW91259   9.572  13.909  10.343
63121SOL    HW191260   9.518  13.972  10.294
63121SOL    HW291261   9.584  13.836  10.283
63122SOL     OW91262  12.865   5.767   8.573
63122SOL    HW191263  12.779   5.728   8.589
63122SOL    HW291264  12.912   5.753   8.655
63123SOL     OW91265   6.852   4.910   0.164
63123SOL    HW191266   6.929   4.967   0.167
63123SOL    HW291267   6.784   4.965   0.124
63124SOL     OW91268   2.449   6.460  11.941
63124SOL    HW191269   2.524   6.405  11.917
63124SOL    HW291270   2.429   6.509  11.862
63125SOL     OW91271   7.836   6.503   7.700
63125SOL    HW191272   7.913   6.463   7.658
63125SOL    HW291273   7.801   6.561   7.633
63126SOL     OW91274  14.338   5.735   5.342
63126SOL    HW191275  14.394   5.774   5.408
63126SOL    HW291276  14.251   5.731   5.383
63127SOL     OW91277  12.388   5.119   7.519
63127SOL    HW191278  12.348   5.158   7.597
63127SOL    HW291279  12.476   5.093   7.547
63128SOL     OW91280   5.167   0.215  11.522
63128SOL    HW191281   5.095   0.269  11.554
63128SOL    HW291282   5.130   0.128  11.510
63129SOL     OW91283  13.486   9.115   0.881
63129SOL    HW191284  13.475   9.072   0.966
63129SOL    HW291285  13.567   9.166   0.891
63130SOL     OW91286   7.217  14.115   3.946
63130SOL    HW191287   7.310  14.089   3.945
63130SOL    HW291288   7.170  14.035   3.923
63131SOL     OW91289   9.819   5.929   1.507
63131SOL    HW191290   9.811   5.949   1.414
63131SOL    HW291291   9.740   5.966   1.546
63132SOL     OW91292   2.808   8.762   7.137
63132SOL    HW191293   2.720   8.758   7.175
63132SOL    HW291294   2.794   8.751   7.043
63133SOL     OW91295   7.479   8.156  13.571
63133SOL    HW191296   7.487   8.204  13.654
63133SOL    HW291297   7.544   8.197  13.514
63134SOL     OW91298  14.370   2.781   0.699
63134SOL    HW191299  14.394   2.706   0.753
63134SOL    HW291300  14.395   2.858   0.750
63135SOL     OW91301   2.431   7.123   9.024
63135SOL    HW191302   2.414   7.213   8.997
63135SOL    HW291303   2.450   7.077   8.943
63136SOL     OW91304  14.809   5.191   1.009
63136SOL    HW191305  14.823   5.175   0.916
63136SOL    HW291306  14.804   5.104   1.048
63137SOL     OW91307   9.110   5.673   7.733
63137SOL    HW191308   9.063   5.632   7.661
63137SOL    HW291309   9.192   5.624   7.741
63138SOL     OW91310   2.280   9.090   7.138
63138SOL    HW191311   2.199   9.090   7.189
63138SOL    HW291312   2.261   9.035   7.062
63139SOL     OW91313   6.760  13.878  12.548
63139SOL    HW191314   6.779  13.874  12.642
63139SOL    HW291315   6.668  13.904  12.544
63140SOL     OW91316   0.169  13.467  10.835
63140SOL    HW191317   0.231  13.427  10.897
63140SOL    HW291318   0.088  13.478  10.885
63141SOL     OW91319  14.590   7.129   5.703
63141SOL    HW191320  14.552   7.051   5.664
63141SOL    HW291321  14.684   7.122   5.686
63142SOL     OW91322   0.304  11.992   8.397
63142SOL    HW191323   0.228  11.935   8.404
63142SOL    HW291324   0.291  12.042   8.317
63143SOL     OW91325   1.962   6.470  11.645
63143SOL    HW191326   1.904   6.530  11.598
63143SOL    HW291327   1.998   6.414  11.576
63144SOL     OW91328  11.696   3.047   9.096
63144SOL    HW191329  11.679   2.984   9.026
63144SOL    HW291330  11.653   3.128   9.067
63145SOL     OW91331   7.313   7.680  11.218
63145SOL    HW191332   7.266   7.711  11.141
63145SOL    HW291333   7.293   7.744  11.286
63146SOL     OW91334  14.733   9.877   0.761
63146SOL    HW191335  14.768   9.964   0.740
63146SOL    HW291336  14.658   9.866   0.703
63147SOL     OW91337   0.122  11.575   3.894
63147SOL    HW191338   0.215  11.588   3.915
63147SOL    HW291339   0.082  11.660   3.912
63148SOL     OW91340   5.783   3.071   4.198
63148SOL    HW191341   5.865   3.043   4.158
63148SOL    HW291342   5.730   3.104   4.125
63149SOL     OW91343   9.314   7.412  10.894
63149SOL    HW191344   9.226   7.423  10.929
63149SOL    HW291345   9.301   7.364  10.812
63150SOL     OW91346   8.921   9.674  14.645
63150SOL    HW191347   8.974   9.730  14.588
63150SOL    HW291348   8.844   9.727  14.666
63151SOL     OW91349   3.330  12.944   5.436
63151SOL    HW191350   3.366  12.891   5.507
63151SOL    HW291351   3.396  13.011   5.419
63152SOL     OW91352  10.845   5.743   3.568
63152SOL    HW191353  10.875   5.802   3.638
63152SOL    HW291354  10.750   5.745   3.573
63153SOL     OW91355   1.346   6.064  10.580
63153SOL    HW191356   1.293   6.103  10.510
63153SOL    HW291357   1.436   6.080  10.553
63154SOL     OW91358  13.273   0.308  11.705
63154SOL    HW191359  13.199   0.368  11.712
63154SOL    HW291360  13.335   0.353  11.648
63155SOL     OW91361   0.697   2.210   1.378
63155SOL    HW191362   0.691   2.292   1.428
63155SOL    HW291363   0.651   2.228   1.296
63156SOL     OW91364   3.022   3.095  11.146
63156SOL    HW191365   2.975   3.174  11.172
63156SOL    HW291366   3.058   3.115  11.060
63157SOL     OW91367   9.890  10.561   6.921
63157SOL    HW191368   9.855  10.493   6.863
63157SOL    HW291369   9.896  10.639   6.865
63158SOL     OW91370  14.178   7.229  12.812
63158SOL    HW191371  14.207   7.280  12.888
63158SOL    HW291372  14.123   7.159  12.850
63159SOL     OW91373   2.493  10.135   7.704
63159SOL    HW191374   2.558  10.205   7.694
63159SOL    HW291375   2.502  10.106   7.795
63160SOL     OW91376   7.888   9.105   2.613
63160SOL    HW191377   7.955   9.038   2.596
63160SOL    HW291378   7.896   9.123   2.707
63161SOL     OW91379   5.608   3.047   4.554
63161SOL    HW191380   5.592   3.141   4.552
63161SOL    HW291381   5.542   3.011   4.494
63162SOL     OW91382   2.653  10.886   1.036
63162SOL    HW191383   2.710  10.890   1.113
63162SOL    HW291384   2.580  10.831   1.064
63163SOL     OW91385  13.972  11.915  14.793
63163SOL    HW191386  13.929  12.000  14.808
63163SOL    HW291387  13.919  11.874  14.725
63164SOL     OW91388   4.738   8.302  13.967
63164SOL    HW191389   4.785   8.273  13.889
63164SOL    HW291390   4.720   8.221  14.015
63165SOL     OW91391   1.849   2.118   2.303
63165SOL    HW191392   1.876   2.121   2.395
63165SOL    HW291393   1.792   2.041   2.297
63166SOL     OW91394  10.821   8.879   0.677
63166SOL    HW191395  10.887   8.940   0.708
63166SOL    HW291396  10.746   8.935   0.653
63167SOL     OW91397  12.681   3.869  14.351
63167SOL    HW191398  12.662   3.775  14.353
63167SOL    HW291399  12.695   3.888  14.258
63168SOL     OW91400   7.467   3.670   0.428
63168SOL    HW191401   7.408   3.602   0.395
63168SOL    HW291402   7.417   3.752   0.417
63169SOL     OW91403   4.525  11.562   7.737
63169SOL    HW191404   4.540  11.503   7.664
63169SOL    HW291405   4.429  11.566   7.746
63170SOL     OW91406   5.312   2.925  12.956
63170SOL    HW191407   5.267   2.861  13.012
63170SOL    HW291408   5.264   3.006  12.970
63171SOL     OW91409   3.801   6.097  13.285
63171SOL    HW191410   3.804   6.125  13.377
63171SOL    HW291411   3.707   6.095  13.264
63172SOL     OW91412  13.594   6.981  12.888
63172SOL    HW191413  13.537   7.017  12.820
63172SOL    HW291414  13.672   7.036  12.886
63173SOL     OW91415   9.342   0.170  10.519
63173SOL    HW191416   9.253   0.200  10.500
63173SOL    HW291417   9.375   0.135  10.436
63174SOL     OW91418  10.084   0.759  14.709
63174SOL    HW191419  10.078   0.673  14.750
63174SOL    HW291420   9.993   0.782  14.688
63175SOL     OW91421   0.523  14.163   2.733
63175SOL    HW191422   0.507  14.069   2.718
63175SOL    HW291423   0.474  14.183   2.812
63176SOL     OW91424  11.744   6.362   1.622
63176SOL    HW191425  11.787   6.402   1.546
63176SOL    HW291426  11.815   6.345   1.684
63177SOL     OW91427  13.298   8.995  10.563
63177SOL    HW191428  13.243   9.054  10.512
63177SOL    HW291429  13.253   8.986  10.647
63178SOL     OW91430   3.543   3.169  10.352
63178SOL    HW191431   3.565   3.125  10.269
63178SOL    HW291432   3.509   3.099  10.408
63179SOL     OW91433  14.008   7.463  11.678
63179SOL    HW191434  14.004   7.493  11.768
63179SOL    HW291435  14.092   7.417  11.671
63180SOL     OW91436   0.283   8.214  13.842
63180SOL    HW191437   0.332   8.132  13.842
63180SOL    HW291438   0.331   8.270  13.903
63181SOL     OW91439   3.270   4.598   0.903
63181SOL    HW191440   3.237   4.685   0.924
63181SOL    HW291441   3.328   4.577   0.977
63182SOL     OW91442   0.455   2.860   7.619
63182SOL    HW191443   0.527   2.901   7.666
63182SOL    HW291444   0.428   2.787   7.674
63183SOL     OW91445   8.244   8.554  12.653
63183SOL    HW191446   8.212   8.487  12.713
63183SOL    HW291447   8.175   8.562  12.588
63184SOL     OW91448   6.786   5.905   4.739
63184SOL    HW191449   6.785   5.858   4.822
63184SOL    HW291450   6.731   5.853   4.681
63185SOL     OW91451   3.405  11.459   2.583
63185SOL    HW191452   3.439  11.542   2.548
63185SOL    HW291453   3.342  11.484   2.650
63186SOL     OW91454   7.629  11.190   3.759
63186SOL    HW191455   7.672  11.108   3.737
63186SOL    HW291456   7.682  11.228   3.829
63187SOL     OW91457  13.946   0.296   2.189
63187SOL    HW191458  13.883   0.322   2.257
63187SOL    HW291459  14.028   0.285   2.236
63188SOL     OW91460   2.314   3.808  13.854
63188SOL    HW191461   2.308   3.719  13.819
63188SOL    HW291462   2.255   3.860  13.799
63189SOL     OW91463  13.814   5.395   4.622
63189SOL    HW191464  13.879   5.423   4.687
63189SOL    HW291465  13.825   5.300   4.617
63190SOL     OW91466   7.381  14.582  11.583
63190SOL    HW191467   7.291  14.601  11.559
63190SOL    HW291468   7.391  14.488  11.569
63191SOL     OW91469   7.033  10.062  13.484
63191SOL    HW191470   6.941  10.064  13.510
63191SOL    HW291471   7.080  10.030  13.562
63192SOL     OW91472   5.813   1.123   6.072
63192SOL    HW191473   5.875   1.052   6.086
63192SOL    HW291474   5.750   1.088   6.008
63193SOL     OW91475   8.101  13.675   0.803
63193SOL    HW191476   8.044  13.607   0.766
63193SOL    HW291477   8.041  13.736   0.846
63194SOL     OW91478  13.943  13.692  12.254
63194SOL    HW191479  13.868  13.698  12.194
63194SOL    HW291480  14.018  13.676  12.196
63195SOL     OW91481  11.396   8.465   8.079
63195SOL    HW191482  11.426   8.497   7.994
63195SOL    HW291483  11.425   8.374   8.083
63196SOL     OW91484   8.023  11.180   6.002
63196SOL    HW191485   7.972  11.221   5.932
63196SOL    HW291486   7.959  11.130   6.052
63197SOL     OW91487   0.781  11.774   4.158
63197SOL    HW191488   0.752  11.863   4.177
63197SOL    HW291489   0.872  11.771   4.187
63198SOL     OW91490  11.883  12.611   8.268
63198SOL    HW191491  11.943  12.636   8.338
63198SOL    HW291492  11.806  12.667   8.282
63199SOL     OW91493  10.773  12.679   5.978
63199SOL    HW191494  10.770  12.663   5.884
63199SOL    HW291495  10.690  12.644   6.011
63200SOL     OW91496   6.136   6.037  12.742
63200SOL    HW191497   6.122   5.954  12.788
63200SOL    HW291498   6.227   6.032  12.712
63201SOL     OW91499   6.722  10.027  10.310
63201SOL    HW191500   6.696   9.940  10.340
63201SOL    HW291501   6.818  10.027  10.316
63202SOL     OW91502   4.485   3.428  12.314
63202SOL    HW191503   4.563   3.406  12.364
63202SOL    HW291504   4.498   3.520  12.289
63203SOL     OW91505   8.557   6.834   0.521
63203SOL    HW191506   8.598   6.759   0.476
63203SOL    HW291507   8.614   6.850   0.596
63204SOL     OW91508  13.112   3.399   9.689
63204SOL    HW191509  13.033   3.379   9.738
63204SOL    HW291510  13.095   3.364   9.601
63205SOL     OW91511  14.460   7.174  10.184
63205SOL    HW191512  14.554   7.176  10.200
63205SOL    HW291513  14.437   7.266  10.168
63206SOL     OW91514   0.954  14.027   2.066
63206SOL    HW191515   0.893  14.100   2.067
63206SOL    HW291516   1.040  14.068   2.059
63207SOL     OW91517  12.816   9.680   6.502
63207SOL    HW191518  12.745   9.641   6.451
63207SOL    HW291519  12.896   9.657   6.454
63208SOL     OW91520   3.988  13.079   4.786
63208SOL    HW191521   4.029  13.149   4.837
63208SOL    HW291522   3.931  13.034   4.849
63209SOL     OW91523   8.623   4.483   1.404
63209SOL    HW191524   8.556   4.545   1.377
63209SOL    HW291525   8.626   4.491   1.500
63210SOL     OW91526   6.029   1.885  11.172
63210SOL    HW191527   5.962   1.953  11.163
63210SOL    HW291528   5.980   1.802  11.170
63211SOL     OW91529   9.779   0.488   4.765
63211SOL    HW191530   9.740   0.516   4.848
63211SOL    HW291531   9.708   0.497   4.702
63212SOL     OW91532   0.520   1.523   4.064
63212SOL    HW191533   0.499   1.449   4.006
63212SOL    HW291534   0.582   1.487   4.127
63213SOL     OW91535   2.985  10.390  13.408
63213SOL    HW191536   3.079  10.397  13.388
63213SOL    HW291537   2.951  10.329  13.342
63214SOL     OW91538   0.222   9.576   9.206
63214SOL    HW191539   0.281   9.627   9.150
63214SOL    HW291540   0.281   9.523   9.260
63215SOL     OW91541  13.916   4.963   4.899
63215SOL    HW191542  13.940   4.953   4.807
63215SOL    HW291543  13.846   4.900   4.912
63216SOL     OW91544   6.353  12.220   4.902
63216SOL    HW191545   6.302  12.141   4.920
63216SOL    HW291546   6.323  12.249   4.816
63217SOL     OW91547   0.523  14.677   0.870
63217SOL    HW191548   0.601  14.732   0.856
63217SOL    HW291549   0.474  14.722   0.939
63218SOL     OW91550  11.623   5.403  12.616
63218SOL    HW191551  11.706   5.447  12.633
63218SOL    HW291552  11.561   5.442  12.678
63219SOL     OW91553   0.001   8.257   9.419
63219SOL    HW191554   0.020   8.307   9.498
63219SOL    HW291555  14.795   8.301   9.381
63220SOL     OW91556   7.943   6.045  13.372
63220SOL    HW191557   7.915   6.094  13.448
63220SOL    HW291558   8.029   6.080  13.350
63221SOL     OW91559   5.234   2.279  12.633
63221SOL    HW191560   5.329   2.292  12.637
63221SOL    HW291561   5.210   2.306  12.544
63222SOL     OW91562  10.400   6.052   8.618
63222SOL    HW191563  10.353   6.134   8.604
63222SOL    HW291564  10.384   6.031   8.711
63223SOL     OW91565   1.194  10.527   6.289
63223SOL    HW191566   1.232  10.597   6.341
63223SOL    HW291567   1.101  10.528   6.312
63224SOL     OW91568   4.963   2.370   2.953
63224SOL    HW191569   4.888   2.430   2.948
63224SOL    HW291570   4.971   2.351   3.047
63225SOL     OW91571   1.911   8.142   2.372
63225SOL    HW191572   1.937   8.132   2.280
63225SOL    HW291573   1.851   8.216   2.372
63226SOL     OW91574   5.422  13.101   8.464
63226SOL    HW191575   5.502  13.149   8.488
63226SOL    HW291576   5.429  13.090   8.369
63227SOL     OW91577   0.173  10.932   2.921
63227SOL    HW191578   0.224  10.887   2.989
63227SOL    HW291579   0.232  10.934   2.845
63228SOL     OW91580   8.904   9.136  14.679
63228SOL    HW191581   8.898   9.220  14.724
63228SOL    HW291582   8.930   9.074  14.747
63229SOL     OW91583   1.350   9.723  12.195
63229SOL    HW191584   1.357   9.698  12.287
63229SOL    HW291585   1.257   9.737  12.181
63230SOL     OW91586  13.173   5.973   3.213
63230SOL    HW191587  13.254   6.006   3.174
63230SOL    HW291588  13.175   6.006   3.303
63231SOL     OW91589   5.013   8.440   9.018
63231SOL    HW191590   5.072   8.384   8.967
63231SOL    HW291591   4.992   8.512   8.959
63232SOL     OW91592   0.513  13.220   0.756
63232SOL    HW191593   0.455  13.144   0.745
63232SOL    HW291594   0.486  13.280   0.687
63233SOL     OW91595   6.507   9.688   4.285
63233SOL    HW191596   6.602   9.673   4.292
63233SOL    HW291597   6.497   9.783   4.288
63234SOL     OW91598   6.095  10.848  13.750
63234SOL    HW191599   6.109  10.763  13.708
63234SOL    HW291600   6.030  10.892  13.696
63235SOL     OW91601   5.946   7.042  12.518
63235SOL    HW191602   5.866   7.041  12.571
63235SOL    HW291603   6.008   6.988  12.568
63236SOL     OW91604   6.480  12.668  12.535
63236SOL    HW191605   6.456  12.589  12.584
63236SOL    HW291606   6.575  12.661  12.526
63237SOL     OW91607   9.544  11.296  10.461
63237SOL    HW191608   9.499  11.211  10.456
63237SOL    HW291609   9.510  11.336  10.541
63238SOL     OW91610   0.903  10.553  12.836
63238SOL    HW191611   0.835  10.602  12.883
63238SOL    HW291612   0.938  10.492  12.900
63239SOL     OW91613  13.735   2.945   7.908
63239SOL    HW191614  13.641   2.926   7.902
63239SOL    HW291615  13.744   2.999   7.986
63240SOL     OW91616   9.822  10.200   2.178
63240SOL    HW191617   9.781  10.207   2.092
63240SOL    HW291618   9.750  10.216   2.240
63241SOL     OW91619  12.473  10.031  10.368
63241SOL    HW191620  12.564  10.002  10.370
63241SOL    HW291621  12.458  10.067  10.456
63242SOL     OW91622   8.335  12.817  10.126
63242SOL    HW191623   8.386  12.745  10.089
63242SOL    HW291624   8.287  12.778  10.199
63243SOL     OW91625   2.530   5.691   9.903
63243SOL    HW191626   2.497   5.681   9.813
63243SOL    HW291627   2.505   5.781   9.927
63244SOL     OW91628   8.709  11.034  12.602
63244SOL    HW191629   8.781  10.995  12.553
63244SOL    HW291630   8.631  10.986  12.573
63245SOL     OW91631   6.079  13.176  13.545
63245SOL    HW191632   5.985  13.165  13.532
63245SOL    HW291633   6.105  13.100  13.597
63246SOL     OW91634   6.988   9.511   0.226
63246SOL    HW191635   7.001   9.555   0.310
63246SOL    HW291636   7.076   9.488   0.196
63247SOL     OW91637   2.984  10.791  11.112
63247SOL    HW191638   3.015  10.854  11.177
63247SOL    HW291639   3.046  10.719  11.116
63248SOL     OW91640   8.746  13.255   8.379
63248SOL    HW191641   8.717  13.164   8.374
63248SOL    HW291642   8.668  13.303   8.407
63249SOL     OW91643   9.548   9.202   3.573
63249SOL    HW191644   9.515   9.198   3.483
63249SOL    HW291645   9.472   9.228   3.625
63250SOL     OW91646   8.102   2.222   2.499
63250SOL    HW191647   8.177   2.187   2.548
63250SOL    HW291648   8.057   2.278   2.562
63251SOL     OW91649   9.275   4.576   2.082
63251SOL    HW191650   9.343   4.511   2.069
63251SOL    HW291651   9.219   4.539   2.151
63252SOL     OW91652  13.294  10.362  10.284
63252SOL    HW191653  13.303  10.286  10.341
63252SOL    HW291654  13.200  10.379  10.281
63253SOL     OW91655   4.728  14.234  14.665
63253SOL    HW191656   4.717  14.328  14.680
63253SOL    HW291657   4.790  14.206  14.733
63254SOL     OW91658   6.815  12.546   1.330
63254SOL    HW191659   6.764  12.465   1.319
63254SOL    HW291660   6.749  12.615   1.334
63255SOL     OW91661   2.737   1.224  10.780
63255SOL    HW191662   2.730   1.229  10.875
63255SOL    HW291663   2.822   1.183  10.764
63256SOL     OW91664  13.704   3.875   7.866
63256SOL    HW191665  13.691   3.938   7.938
63256SOL    HW291666  13.690   3.790   7.906
63257SOL     OW91667   7.370   6.289  10.612
63257SOL    HW191668   7.364   6.372  10.658
63257SOL    HW291669   7.453   6.294  10.563
63258SOL     OW91670   1.486   2.666  14.401
63258SOL    HW191671   1.421   2.617  14.351
63258SOL    HW291672   1.446   2.678  14.487
63259SOL     OW91673   4.775   2.761   9.584
63259SOL    HW191674   4.724   2.839   9.605
63259SOL    HW291675   4.726   2.688   9.623
63260SOL     OW91676  14.593   7.403  14.341
63260SOL    HW191677  14.666   7.397  14.279
63260SOL    HW291678  14.524   7.448  14.293
63261SOL     OW91679   1.349  10.471  10.512
63261SOL    HW191680   1.286  10.450  10.443
63261SOL    HW291681   1.433  10.477  10.467
63262SOL     OW91682   0.434   8.214   8.151
63262SOL    HW191683   0.380   8.204   8.229
63262SOL    HW291684   0.522   8.187   8.179
63263SOL     OW91685  10.799   2.991   3.005
63263SOL    HW191686  10.892   3.013   3.002
63263SOL    HW291687  10.790   2.936   3.083
63264SOL     OW91688   9.433   4.589   6.717
63264SOL    HW191689   9.349   4.553   6.687
63264SOL    HW291690   9.490   4.584   6.640
63265SOL     OW91691  12.548   1.702   9.411
63265SOL    HW191692  12.618   1.644   9.379
63265SOL    HW291693  12.471   1.646   9.413
63266SOL     OW91694   6.668  13.358  11.370
63266SOL    HW191695   6.596  13.295  11.371
63266SOL    HW291696   6.745  13.307  11.393
63267SOL     OW91697   0.073   1.450  12.335
63267SOL    HW191698   0.157   1.491  12.355
63267SOL    HW291699   0.060   1.466  12.241
63268SOL     OW91700   0.568   7.709   6.868
63268SOL    HW191701   0.499   7.644   6.877
63268SOL    HW291702   0.647   7.664   6.899
63269SOL     OW91703   3.415   0.174  14.833
63269SOL    HW191704   3.341   0.151   0.019
63269SOL    HW291705   3.396   0.263  14.803
63270SOL     OW91706  13.282   3.360   8.413
63270SOL    HW191707  13.365   3.334   8.453
63270SOL    HW291708  13.284   3.321   8.326
63271SOL     OW91709   2.648  12.310   8.787
63271SOL    HW191710   2.742  12.292   8.792
63271SOL    HW291711   2.630  12.317   8.693
63272SOL     OW91712   4.276   6.171  13.109
63272SOL    HW191713   4.186   6.182  13.140
63272SOL    HW291714   4.330   6.184  13.188
63273SOL     OW91715   7.323   2.459  14.748
63273SOL    HW191716   7.313   2.461  14.653
63273SOL    HW291717   7.305   2.368  14.772
63274SOL     OW91718   5.007   3.451  13.577
63274SOL    HW191719   4.988   3.478  13.487
63274SOL    HW291720   5.075   3.385  13.568
63275SOL     OW91721   4.725   8.329   9.667
63275SOL    HW191722   4.777   8.345   9.746
63275SOL    HW291723   4.781   8.357   9.595
63276SOL     OW91724   3.898   4.555   3.935
63276SOL    HW191725   3.981   4.549   3.982
63276SOL    HW291726   3.866   4.644   3.954
63277SOL     OW91727   6.802   3.829  10.828
63277SOL    HW191728   6.754   3.816  10.910
63277SOL    HW291729   6.845   3.745  10.811
63278SOL     OW91730  10.405   8.485   1.011
63278SOL    HW191731  10.500   8.478   1.000
63278SOL    HW291732  10.384   8.576   0.990
63279SOL     OW91733   9.956   4.989   1.142
63279SOL    HW191734   9.891   4.990   1.212
63279SOL    HW291735   9.904   4.997   1.062
63280SOL     OW91736   0.432   7.544   3.569
63280SOL    HW191737   0.342   7.571   3.589
63280SOL    HW291738   0.424   7.452   3.544
63281SOL     OW91739  13.151  14.018   9.173
63281SOL    HW191740  13.207  13.966   9.231
63281SOL    HW291741  13.126  14.094   9.225
63282SOL     OW91742   6.181   8.735   4.929
63282SOL    HW191743   6.159   8.660   4.873
63282SOL    HW291744   6.158   8.812   4.877
63283SOL     OW91745  10.413   4.705  11.514
63283SOL    HW191746  10.346   4.689  11.581
63283SOL    HW291747  10.476   4.635  11.525
63284SOL     OW91748   5.199   0.519   9.454
63284SOL    HW191749   5.282   0.552   9.419
63284SOL    HW291750   5.166   0.461   9.386
63285SOL     OW91751   3.834   3.124   3.397
63285SOL    HW191752   3.871   3.085   3.318
63285SOL    HW291753   3.749   3.080   3.408
63286SOL     OW91754  11.201   8.587   0.582
63286SOL    HW191755  11.126   8.624   0.536
63286SOL    HW291756  11.254   8.663   0.607
63287SOL     OW91757  13.146   0.505   2.763
63287SOL    HW191758  13.103   0.572   2.817
63287SOL    HW291759  13.075   0.467   2.711
63288SOL     OW91760   6.098  11.621   4.876
63288SOL    HW191761   6.168  11.561   4.902
63288SOL    HW291762   6.095  11.686   4.946
63289SOL     OW91763  13.847  10.124   4.435
63289SOL    HW191764  13.923  10.176   4.410
63289SOL    HW291765  13.773  10.184   4.427
63290SOL     OW91766   0.989   0.594  13.154
63290SOL    HW191767   0.946   0.626  13.234
63290SOL    HW291768   1.033   0.671  13.118
63291SOL     OW91769  12.810   2.422   0.097
63291SOL    HW191770  12.858   2.372   0.031
63291SOL    HW291771  12.845   2.391   0.180
63292SOL     OW91772   0.868   2.029   7.153
63292SOL    HW191773   0.957   2.010   7.123
63292SOL    HW291774   0.841   1.949   7.197
63293SOL     OW91775   9.080   0.039   4.544
63293SOL    HW191776   9.032  14.868   4.472
63293SOL    HW291777   9.136  14.839   4.578
63294SOL     OW91778   9.872  11.710  10.904
63294SOL    HW191779   9.779  11.692  10.891
63294SOL    HW291780   9.913  11.623  10.907
63295SOL     OW91781   1.439   1.021   1.580
63295SOL    HW191782   1.425   1.017   1.485
63295SOL    HW291783   1.445   0.929   1.607
63296SOL     OW91784   1.063   1.074  14.472
63296SOL    HW191785   1.132   1.021  14.512
63296SOL    HW291786   1.109   1.128  14.408
63297SOL     OW91787   5.980   1.594   9.270
63297SOL    HW191788   5.937   1.592   9.185
63297SOL    HW291789   5.916   1.632   9.330
63298SOL     OW91790  12.817   7.347  11.577
63298SOL    HW191791  12.871   7.275  11.611
63298SOL    HW291792  12.862   7.374  11.497
63299SOL     OW91793   9.713   1.305   6.257
63299SOL    HW191794   9.799   1.308   6.215
63299SOL    HW291795   9.654   1.270   6.190
63300SOL     OW91796   7.225   3.720   3.642
63300SOL    HW191797   7.312   3.759   3.632
63300SOL    HW291798   7.203   3.733   3.734
63301SOL     OW91799   1.427   6.464   0.195
63301SOL    HW191800   1.460   6.446   0.107
63301SOL    HW291801   1.351   6.520   0.181
63302SOL     OW91802   4.910  10.875   8.761
63302SOL    HW191803   4.815  10.866   8.762
63302SOL    HW291804   4.939  10.837   8.844
63303SOL     OW91805  14.038   0.864  14.281
63303SOL    HW191806  13.948   0.834  14.293
63303SOL    HW291807  14.062   0.906  14.364
63304SOL     OW91808  11.383  11.520   5.591
63304SOL    HW191809  11.290  11.536   5.604
63304SOL    HW291810  11.395  11.427   5.613
63305SOL     OW91811  10.325  10.089   0.551
63305SOL    HW191812  10.253  10.142   0.519
63305SOL    HW291813  10.316  10.091   0.646
63306SOL     OW91814   4.927   6.665   9.635
63306SOL    HW191815   4.887   6.592   9.589
63306SOL    HW291816   4.942   6.632   9.724
63307SOL     OW91817  14.064   3.699   1.232
63307SOL    HW191818  14.095   3.615   1.199
63307SOL    HW291819  14.102   3.764   1.173
63308SOL     OW91820   9.051   3.387   8.089
63308SOL    HW191821   9.031   3.448   8.160
63308SOL    HW291822   9.137   3.414   8.057
63309SOL     OW91823   2.949   1.743   7.624
63309SOL    HW191824   2.862   1.783   7.621
63309SOL    HW291825   2.976   1.735   7.533
63310SOL     OW91826   8.106  14.070  11.204
63310SOL    HW191827   8.179  14.119  11.240
63310SOL    HW291828   8.138  13.980  11.196
63311SOL     OW91829   5.050   8.225   2.115
63311SOL    HW191830   4.990   8.167   2.067
63311SOL    HW291831   5.068   8.296   2.054
63312SOL     OW91832   6.649   8.957  13.890
63312SOL    HW191833   6.680   8.972  13.801
63312SOL    HW291834   6.728   8.941  13.941
63313SOL     OW91835   2.754   2.978  11.286
63313SOL    HW191836   2.772   3.063  11.246
63313SOL    HW291837   2.776   2.914  11.217
63314SOL     OW91838   1.613   5.233  14.760
63314SOL    HW191839   1.626   5.142  14.732
63314SOL    HW291840   1.688   5.279  14.723
63315SOL     OW91841   4.902   5.273  11.960
63315SOL    HW191842   4.995   5.294  11.949
63315SOL    HW291843   4.858   5.357  11.953
63316SOL     OW91844  14.403   7.625  12.107
63316SOL    HW191845  14.465   7.697  12.095
63316SOL    HW291846  14.334   7.661  12.162
63317SOL     OW91847  10.004  13.528   8.210
63317SOL    HW191848  10.025  13.604   8.265
63317SOL    HW291849   9.910  13.517   8.220
63318SOL     OW91850  14.050  12.947   3.159
63318SOL    HW191851  14.072  13.000   3.235
63318SOL    HW291852  14.132  12.936   3.112
63319SOL     OW91853   5.143  13.317  10.428
63319SOL    HW191854   5.169  13.225  10.429
63319SOL    HW291855   5.069  13.321  10.489
63320SOL     OW91856   8.122   7.103   9.821
63320SOL    HW191857   8.079   7.149   9.894
63320SOL    HW291858   8.076   7.020   9.815
63321SOL     OW91859   1.383   1.174   8.655
63321SOL    HW191860   1.420   1.168   8.567
63321SOL    HW291861   1.347   1.087   8.672
63322SOL     OW91862   1.097   4.664  13.765
63322SOL    HW191863   1.083   4.685  13.673
63322SOL    HW291864   1.179   4.707  13.787
63323SOL     OW91865  13.854  13.081   5.949
63323SOL    HW191866  13.937  13.123   5.968
63323SOL    HW291867  13.839  13.023   6.023
63324SOL     OW91868   0.448   4.797   4.612
63324SOL    HW191869   0.529   4.793   4.561
63324SOL    HW291870   0.395   4.725   4.579
63325SOL     OW91871  11.143   4.179   2.173
63325SOL    HW191872  11.080   4.113   2.203
63325SOL    HW291873  11.147   4.168   2.078
63326SOL     OW91874   9.966  10.200   0.960
63326SOL    HW191875   9.992  10.232   0.874
63326SOL    HW291876   9.908  10.126   0.941
63327SOL     OW91877  11.475  11.172   0.204
63327SOL    HW191878  11.464  11.240   0.138
63327SOL    HW291879  11.530  11.212   0.271
63328SOL     OW91880  12.408   9.221  10.883
63328SOL    HW191881  12.361   9.139  10.866
63328SOL    HW291882  12.388   9.275  10.807
63329SOL     OW91883  10.636   3.347  11.460
63329SOL    HW191884  10.731   3.348  11.447
63329SOL    HW291885  10.602   3.295  11.388
63330SOL     OW91886   3.943   4.344  13.659
63330SOL    HW191887   3.965   4.330  13.567
63330SOL    HW291888   4.027   4.344  13.705
63331SOL     OW91889   7.982   6.336  10.924
63331SOL    HW191890   7.990   6.398  10.851
63331SOL    HW291891   8.069   6.332  10.962
63332SOL     OW91892  14.252   1.894  13.913
63332SOL    HW191893  14.264   1.836  13.838
63332SOL    HW291894  14.306   1.970  13.893
63333SOL     OW91895  14.762   6.586  11.001
63333SOL    HW191896  14.772   6.605  11.094
63333SOL    HW291897  14.700   6.513  10.998
63334SOL     OW91898  12.381  12.581   4.659
63334SOL    HW191899  12.387  12.672   4.688
63334SOL    HW291900  12.454  12.537   4.702
63335SOL     OW91901  13.211   5.308   6.538
63335SOL    HW191902  13.160   5.342   6.465
63335SOL    HW291903  13.178   5.355   6.615
63336SOL     OW91904   6.399   7.203  13.121
63336SOL    HW191905   6.404   7.108  13.117
63336SOL    HW291906   6.362   7.229  13.037
63337SOL     OW91907   2.333  11.409   7.631
63337SOL    HW191908   2.404  11.468   7.656
63337SOL    HW291909   2.374  11.322   7.628
63338SOL     OW91910  14.260   8.453  12.132
63338SOL    HW191911  14.176   8.434  12.089
63338SOL    HW291912  14.238   8.459  12.225
63339SOL     OW91913   5.785   8.742  10.257
63339SOL    HW191914   5.856   8.679  10.270
63339SOL    HW291915   5.720   8.719  10.324
63340SOL     OW91916   2.174   2.907   4.530
63340SOL    HW191917   2.155   2.816   4.509
63340SOL    HW291918   2.110   2.957   4.479
63341SOL     OW91919   2.576   0.579   0.459
63341SOL    HW191920   2.531   0.526   0.524
63341SOL    HW291921   2.663   0.540   0.452
63342SOL     OW91922   0.538  10.211  13.469
63342SOL    HW191923   0.583  10.153  13.408
63342SOL    HW291924   0.456  10.166  13.488
63343SOL     OW91925  13.568   2.025   7.510
63343SOL    HW191926  13.511   2.062   7.579
63343SOL    HW291927  13.596   1.941   7.545
63344SOL     OW91928   5.829  10.802   3.931
63344SOL    HW191929   5.753  10.804   3.991
63344SOL    HW291930   5.792  10.778   3.846
63345SOL     OW91931   8.244  10.887  11.353
63345SOL    HW191932   8.220  10.857  11.265
63345SOL    HW291933   8.161  10.916  11.392
63346SOL     OW91934   4.705   2.719   7.611
63346SOL    HW191935   4.740   2.634   7.583
63346SOL    HW291936   4.763   2.746   7.682
63347SOL     OW91937   4.372   0.305   6.847
63347SOL    HW191938   4.310   0.377   6.834
63347SOL    HW291939   4.446   0.327   6.791
63348SOL     OW91940   1.236  13.074  12.038
63348SOL    HW191941   1.187  13.120  11.970
63348SOL    HW291942   1.261  13.142  12.100
63349SOL     OW91943   0.269  14.651  14.866
63349SOL    HW191944   0.268  14.710   0.072
63349SOL    HW291945   0.242  14.567   0.031
63350SOL     OW91946   7.066  10.317   8.781
63350SOL    HW191947   7.035  10.406   8.764
63350SOL    HW291948   7.043  10.268   8.702
63351SOL     OW91949  13.060  11.471   5.423
63351SOL    HW191950  13.100  11.468   5.336
63351SOL    HW291951  13.002  11.547   5.420
63352SOL     OW91952   7.772   7.675   2.034
63352SOL    HW191953   7.679   7.670   2.058
63352SOL    HW291954   7.777   7.751   1.976
63353SOL     OW91955   9.637   5.937   4.908
63353SOL    HW191956   9.640   5.965   4.999
63353SOL    HW291957   9.554   5.890   4.900
63354SOL     OW91958   2.859  10.826   8.401
63354SOL    HW191959   2.768  10.833   8.371
63354SOL    HW291960   2.856  10.762   8.472
63355SOL     OW91961   5.066   9.326   6.225
63355SOL    HW191962   5.092   9.405   6.272
63355SOL    HW291963   5.147   9.276   6.216
63356SOL     OW91964   7.399   0.625  10.047
63356SOL    HW191965   7.483   0.622  10.000
63356SOL    HW291966   7.333   0.614   9.978
63357SOL     OW91967  14.205   4.037   4.770
63357SOL    HW191968  14.120   4.021   4.729
63357SOL    HW291969  14.227   3.953   4.811
63358SOL     OW91970   8.565   7.817  12.706
63358SOL    HW191971   8.525   7.810  12.619
63358SOL    HW291972   8.591   7.727  12.727
63359SOL     OW91973  10.002   9.943  10.802
63359SOL    HW191974  10.001   9.990  10.719
63359SOL    HW291975   9.910   9.936  10.827
63360SOL     OW91976   4.888  14.684   3.848
63360SOL    HW191977   4.978  14.716   3.848
63360SOL    HW291978   4.861  14.688   3.756
63361SOL     OW91979   4.834  11.757  10.819
63361SOL    HW191980   4.810  11.785  10.907
63361SOL    HW291981   4.862  11.666  10.829
63362SOL     OW91982   7.870   6.178   1.438
63362SOL    HW191983   7.953   6.133   1.452
63362SOL    HW291984   7.806   6.108   1.427
63363SOL     OW91985   8.908  13.380   5.883
63363SOL    HW191986   8.971  13.422   5.824
63363SOL    HW291987   8.835  13.441   5.888
63364SOL     OW91988   9.364  13.158   7.129
63364SOL    HW191989   9.407  13.083   7.087
63364SOL    HW291990   9.436  13.215   7.154
63365SOL     OW91991  10.810  13.722   1.070
63365SOL    HW191992  10.837  13.732   0.979
63365SOL    HW291993  10.742  13.788   1.083
63366SOL     OW91994  14.164  12.142  14.021
63366SOL    HW191995  14.096  12.083  14.051
63366SOL    HW291996  14.177  12.120  13.929
63367SOL     OW91997   7.387   7.097   1.521
63367SOL    HW191998   7.441   7.027   1.485
63367SOL    HW291999   7.312   7.053   1.559
63368SOL     OW92000  13.892   3.187   0.188
63368SOL    HW192001  13.858   3.237   0.263
63368SOL    HW292002  13.987   3.190   0.199
63369SOL     OW92003  13.960  12.064   0.665
63369SOL    HW192004  13.890  12.022   0.616
63369SOL    HW292005  14.040  12.041   0.617
63370SOL     OW92006   6.630   0.748   4.709
63370SOL    HW192007   6.645   0.807   4.782
63370SOL    HW292008   6.558   0.787   4.659
63371SOL     OW92009  13.608  14.690   8.115
63371SOL    HW192010  13.591  14.674   8.022
63371SOL    HW292011  13.521  14.707   8.152
63372SOL     OW92012  14.155   5.397   8.762
63372SOL    HW192013  14.196   5.424   8.844
63372SOL    HW292014  14.077   5.348   8.790
63373SOL     OW92015   2.348   4.065   7.570
63373SOL    HW192016   2.382   4.151   7.592
63373SOL    HW292017   2.253   4.073   7.581
63374SOL     OW92018  13.862   0.670   5.028
63374SOL    HW192019  13.782   0.711   5.060
63374SOL    HW292020  13.869   0.588   5.078
63375SOL     OW92021   5.079   2.829   3.764
63375SOL    HW192022   5.142   2.899   3.783
63375SOL    HW292023   5.024   2.825   3.842
63376SOL     OW92024  13.150   5.740   0.089
63376SOL    HW192025  13.152   5.722   0.183
63376SOL    HW292026  13.115   5.829   0.083
63377SOL     OW92027   6.297  14.480   0.625
63377SOL    HW192028   6.340  14.461   0.542
63377SOL    HW292029   6.343  14.426   0.689
63378SOL     OW92030  13.690   5.289  14.197
63378SOL    HW192031  13.746   5.354  14.154
63378SOL    HW292032  13.626   5.341  14.246
63379SOL     OW92033  11.370   1.042  11.433
63379SOL    HW192034  11.441   1.105  11.426
63379SOL    HW292035  11.411   0.964  11.470
63380SOL     OW92036  10.306  13.042   2.109
63380SOL    HW192037  10.215  13.067   2.091
63380SOL    HW292038  10.326  12.976   2.042
63381SOL     OW92039  12.098   1.400  14.159
63381SOL    HW192040  12.145   1.375  14.239
63381SOL    HW292041  12.019   1.346  14.161
63382SOL     OW92042   4.776   0.986   8.261
63382SOL    HW192043   4.852   0.981   8.204
63382SOL    HW292044   4.724   0.908   8.239
63383SOL     OW92045   8.950   3.912   3.501
63383SOL    HW192046   8.907   3.976   3.559
63383SOL    HW292047   8.985   3.846   3.561
63384SOL     OW92048   3.082   2.893   4.498
63384SOL    HW192049   3.138   2.856   4.567
63384SOL    HW292050   2.996   2.855   4.514
63385SOL     OW92051   4.437   2.468   8.130
63385SOL    HW192052   4.524   2.435   8.109
63385SOL    HW292053   4.386   2.390   8.152
63386SOL     OW92054  10.257  13.778   5.044
63386SOL    HW192055  10.217  13.697   5.076
63386SOL    HW292056  10.334  13.749   4.995
63387SOL     OW92057  11.076   3.014  14.030
63387SOL    HW192058  11.086   3.049  13.942
63387SOL    HW292059  11.044   3.088  14.082
63388SOL     OW92060  13.988  14.599   8.806
63388SOL    HW192061  13.901  14.559   8.801
63388SOL    HW292062  13.991  14.638   8.894
63389SOL     OW92063  10.071  12.318  12.546
63389SOL    HW192064  10.120  12.240  12.519
63389SOL    HW292065   9.980  12.297  12.526
63390SOL     OW92066  12.761   6.616   2.535
63390SOL    HW192067  12.670   6.628   2.561
63390SOL    HW292068  12.808   6.606   2.618
63391SOL     OW92069  12.139  12.122   8.998
63391SOL    HW192070  12.109  12.180   8.928
63391SOL    HW292071  12.235  12.127   8.994
63392SOL     OW92072   9.337   5.481  12.242
63392SOL    HW192073   9.407   5.492  12.177
63392SOL    HW292074   9.309   5.390  12.232
63393SOL     OW92075   3.195   1.646  12.287
63393SOL    HW192076   3.229   1.655  12.198
63393SOL    HW292077   3.100   1.644  12.276
63394SOL     OW92078  11.037  13.978  14.285
63394SOL    HW192079  11.032  13.887  14.315
63394SOL    HW292080  11.004  14.029  14.359
63395SOL     OW92081  10.662   7.316   5.515
63395SOL    HW192082  10.586   7.258   5.516
63395SOL    HW292083  10.721   7.280   5.582
63396SOL     OW92084  10.763   4.973   7.361
63396SOL    HW192085  10.785   4.886   7.394
63396SOL    HW292086  10.812   4.980   7.279
63397SOL     OW92087   9.029  14.151   0.272
63397SOL    HW192088   9.101  14.213   0.259
63397SOL    HW292089   9.034  14.093   0.197
63398SOL     OW92090   7.783  14.860   7.759
63398SOL    HW192091   7.827  14.851   7.675
63398SOL    HW292092   7.772  14.771   7.791
63399SOL     OW92093   1.210   9.680   2.001
63399SOL    HW192094   1.176   9.715   2.083
63399SOL    HW292095   1.302   9.708   2.000
63400SOL     OW92096   3.343  14.293   7.817
63400SOL    HW192097   3.427  14.248   7.810
63400SOL    HW292098   3.280  14.222   7.832
63401SOL     OW92099  13.044  12.980   9.929
63401SOL    HW192100  12.969  13.038   9.941
63401SOL    HW292101  13.056  12.976   9.834
63402SOL     OW92102   8.862   9.452  14.815
63402SOL    HW192103   8.891   9.518  14.753
63402SOL    HW292104   8.934   9.444   0.008
63403SOL     OW92105   2.022   2.458   8.337
63403SOL    HW192106   2.088   2.389   8.333
63403SOL    HW292107   1.960   2.428   8.403
63404SOL     OW92108   4.331  10.029  13.487
63404SOL    HW192109   4.366  10.118  13.488
63404SOL    HW292110   4.272  10.026  13.562
63405SOL     OW92111   9.571   1.638   3.010
63405SOL    HW192112   9.607   1.648   3.098
63405SOL    HW292113   9.521   1.718   2.995
63406SOL     OW92114   2.771  10.705   0.311
63406SOL    HW192115   2.769  10.776   0.247
63406SOL    HW292116   2.678  10.689   0.332
63407SOL     OW92117   1.723   6.837   2.512
63407SOL    HW192118   1.806   6.866   2.474
63407SOL    HW292119   1.745   6.807   2.600
63408SOL     OW92120   0.908   1.144  12.350
63408SOL    HW192121   0.890   1.120  12.441
63408SOL    HW292122   0.909   1.060  12.303
63409SOL     OW92123   1.625  13.514   3.340
63409SOL    HW192124   1.536  13.540   3.362
63409SOL    HW292125   1.666  13.496   3.425
63410SOL     OW92126   5.954  11.009   3.090
63410SOL    HW192127   5.965  10.980   3.180
63410SOL    HW292128   6.043  11.024   3.058
63411SOL     OW92129  14.429  12.239   1.800
63411SOL    HW192130  14.349  12.186   1.797
63411SOL    HW292131  14.500  12.176   1.789
63412SOL     OW92132   9.140  13.537   0.635
63412SOL    HW192133   9.234  13.519   0.644
63412SOL    HW292134   9.136  13.632   0.623
63413SOL     OW92135   5.254   0.443  11.137
63413SOL    HW192136   5.223   0.508  11.073
63413SOL    HW292137   5.305   0.381  11.086
63414SOL     OW92138   6.309   8.881   8.872
63414SOL    HW192139   6.291   8.824   8.797
63414SOL    HW292140   6.399   8.910   8.859
63415SOL     OW92141   9.839   3.342  11.950
63415SOL    HW192142   9.917   3.299  11.915
63415SOL    HW292143   9.866   3.432  11.967
63416SOL     OW92144   8.866   2.495   1.655
63416SOL    HW192145   8.775   2.519   1.639
63416SOL    HW292146   8.910   2.578   1.672
63417SOL     OW92147   7.029  12.901   3.957
63417SOL    HW192148   7.001  12.933   3.871
63417SOL    HW292149   6.976  12.822   3.971
63418SOL     OW92150   6.384  12.342   9.986
63418SOL    HW192151   6.383  12.258  10.031
63418SOL    HW292152   6.329  12.399  10.040
63419SOL     OW92153  11.907   6.800  11.569
63419SOL    HW192154  11.880   6.871  11.628
63419SOL    HW292155  11.961   6.843  11.503
63420SOL     OW92156   6.866  13.038   0.465
63420SOL    HW192157   6.784  13.042   0.416
63420SOL    HW292158   6.853  12.967   0.528
63421SOL     OW92159   9.075   5.764   5.238
63421SOL    HW192160   9.112   5.678   5.257
63421SOL    HW292161   9.151   5.821   5.224
63422SOL     OW92162   5.485   3.633  11.592
63422SOL    HW192163   5.414   3.602  11.648
63422SOL    HW292164   5.555   3.569  11.603
63423SOL     OW92165   3.119  12.691  11.212
63423SOL    HW192166   3.194  12.748  11.196
63423SOL    HW292167   3.157  12.604  11.221
63424SOL     OW92168   2.365  12.445   1.530
63424SOL    HW192169   2.449  12.423   1.491
63424SOL    HW292170   2.337  12.365   1.576
63425SOL     OW92171   6.585   3.030   2.032
63425SOL    HW192172   6.513   3.022   1.970
63425SOL    HW292173   6.614   3.121   2.024
63426SOL     OW92174   9.359   9.584   9.469
63426SOL    HW192175   9.392   9.502   9.506
63426SOL    HW292176   9.264   9.573   9.469
63427SOL     OW92177  11.177  12.569   9.060
63427SOL    HW192178  11.112  12.583   8.991
63427SOL    HW292179  11.155  12.482   9.096
63428SOL     OW92180   1.731   8.934  10.557
63428SOL    HW192181   1.798   9.000  10.540
63428SOL    HW292182   1.677   8.971  10.627
63429SOL     OW92183   0.023  14.164   8.796
63429SOL    HW192184  14.850  14.232   8.745
63429SOL    HW292185   0.018  14.085   8.741
63430SOL     OW92186   0.482   0.731   0.278
63430SOL    HW192187   0.425   0.739   0.355
63430SOL    HW292188   0.548   0.799   0.289
63431SOL     OW92189   6.235   8.128   1.457
63431SOL    HW192190   6.140   8.137   1.449
63431SOL    HW292191   6.271   8.187   1.391
63432SOL     OW92192   7.995   9.423   9.501
63432SOL    HW192193   7.904   9.450   9.491
63432SOL    HW292194   7.991   9.327   9.510
63433SOL     OW92195   7.215   2.952  13.136
63433SOL    HW192196   7.260   2.913  13.061
63433SOL    HW292197   7.207   3.045  13.112
63434SOL     OW92198   6.295  12.741   8.226
63434SOL    HW192199   6.360  12.711   8.163
63434SOL    HW292200   6.345  12.789   8.292
63435SOL     OW92201  11.476  10.441   8.211
63435SOL    HW192202  11.381  10.444   8.222
63435SOL    HW292203  11.511  10.468   8.296
63436SOL     OW92204   2.465  10.428   4.251
63436SOL    HW192205   2.464  10.524   4.245
63436SOL    HW292206   2.448  10.410   4.343
63437SOL     OW92207  13.003  14.245  13.296
63437SOL    HW192208  12.988  14.259  13.389
63437SOL    HW292209  13.089  14.203  13.291
63438SOL     OW92210  14.293  14.046   2.330
63438SOL    HW192211  14.376  14.082   2.297
63438SOL    HW292212  14.234  14.121   2.335
63439SOL     OW92213   3.473   5.826   8.236
63439SOL    HW192214   3.481   5.823   8.141
63439SOL    HW292215   3.434   5.742   8.260
63440SOL     OW92216   1.866   7.831   4.140
63440SOL    HW192217   1.932   7.829   4.209
63440SOL    HW292218   1.887   7.755   4.085
63441SOL     OW92219   1.472   1.452   6.765
63441SOL    HW192220   1.514   1.404   6.693
63441SOL    HW292221   1.482   1.544   6.741
63442SOL     OW92222  13.177  12.153   4.470
63442SOL    HW192223  13.084  12.171   4.457
63442SOL    HW292224  13.181  12.103   4.552
63443SOL     OW92225  13.398   5.001  10.572
63443SOL    HW192226  13.380   4.957  10.488
63443SOL    HW292227  13.384   5.094  10.553
63444SOL     OW92228   3.153   6.378  10.124
63444SOL    HW192229   3.200   6.460  10.142
63444SOL    HW292230   3.173   6.322  10.200
63445SOL     OW92231  10.653   5.311  10.919
63445SOL    HW192232  10.721   5.298  10.985
63445SOL    HW292233  10.580   5.348  10.968
63446SOL     OW92234  14.032  10.950  11.144
63446SOL    HW192235  14.089  11.026  11.136
63446SOL    HW292236  14.063  10.890  11.076
63447SOL     OW92237   9.009   9.792   5.122
63447SOL    HW192238   8.971   9.793   5.211
63447SOL    HW292239   9.046   9.880   5.111
63448SOL     OW92240   9.080  13.564   4.235
63448SOL    HW192241   9.101  13.626   4.165
63448SOL    HW292242   9.041  13.618   4.304
63449SOL     OW92243   0.327   4.301   5.324
63449SOL    HW192244   0.351   4.329   5.235
63449SOL    HW292245   0.245   4.348   5.342
63450SOL     OW92246   8.600   7.826  10.648
63450SOL    HW192247   8.540   7.787  10.584
63450SOL    HW292248   8.548   7.893  10.692
63451SOL     OW92249   8.179   8.964   7.145
63451SOL    HW192250   8.216   8.889   7.099
63451SOL    HW292251   8.254   9.004   7.189
63452SOL     OW92252  11.342   5.300   1.097
63452SOL    HW192253  11.318   5.294   1.004
63452SOL    HW292254  11.280   5.242   1.141
63453SOL     OW92255   5.178   9.162  10.536
63453SOL    HW192256   5.234   9.234  10.507
63453SOL    HW292257   5.099   9.170  10.483
63454SOL     OW92258   6.553  12.417  14.689
63454SOL    HW192259   6.596  12.333  14.705
63454SOL    HW292260   6.481  12.420  14.752
63455SOL     OW92261   9.413  13.514   0.609
63455SOL    HW192262   9.472  13.522   0.533
63455SOL    HW292263   9.469  13.481   0.679
63456SOL     OW92264   8.337   5.543   6.917
63456SOL    HW192265   8.419   5.532   6.964
63456SOL    HW292266   8.302   5.454   6.908
63457SOL     OW92267   5.079  12.367   7.627
63457SOL    HW192268   5.075  12.367   7.532
63457SOL    HW292269   5.136  12.440   7.650
63458SOL     OW92270   5.919  14.813   0.585
63458SOL    HW192271   5.842  14.768   0.550
63458SOL    HW292272   5.948  14.759   0.658
63459SOL     OW92273  10.367  12.876  13.902
63459SOL    HW192274  10.355  12.784  13.877
63459SOL    HW292275  10.352  12.877  13.996
63460SOL     OW92276   0.682   0.374   8.342
63460SOL    HW192277   0.589   0.374   8.367
63460SOL    HW292278   0.697   0.286   8.306
63461SOL     OW92279   2.362   6.473   6.866
63461SOL    HW192280   2.450   6.458   6.900
63461SOL    HW292281   2.343   6.564   6.888
63462SOL     OW92282   9.209   2.567  14.698
63462SOL    HW192283   9.151   2.636  14.730
63462SOL    HW292284   9.297   2.600  14.717
63463SOL     OW92285   8.114   8.192   2.346
63463SOL    HW192286   8.151   8.264   2.296
63463SOL    HW292287   8.183   8.126   2.348
63464SOL     OW92288   6.969  10.564   8.813
63464SOL    HW192289   7.037  10.630   8.798
63464SOL    HW292290   6.889  10.614   8.828
63465SOL     OW92291   7.465  14.034   3.209
63465SOL    HW192292   7.468  14.030   3.304
63465SOL    HW292293   7.456  13.942   3.181
63466SOL     OW92294  14.593   7.818   0.362
63466SOL    HW192295  14.502   7.846   0.353
63466SOL    HW292296  14.591   7.753   0.432
63467SOL     OW92297   5.971  12.552   3.836
63467SOL    HW192298   5.900  12.501   3.874
63467SOL    HW292299   6.034  12.486   3.805
63468SOL     OW92300   1.056  12.531   7.292
63468SOL    HW192301   1.069  12.524   7.386
63468SOL    HW292302   1.142  12.514   7.254
63469SOL     OW92303   7.183  12.081  13.530
63469SOL    HW192304   7.244  12.061  13.459
63469SOL    HW292305   7.233  12.061  13.610
63470SOL     OW92306   4.233   0.807   1.401
63470SOL    HW192307   4.172   0.874   1.433
63470SOL    HW292308   4.299   0.800   1.471
63471SOL     OW92309   8.357  13.213   2.022
63471SOL    HW192310   8.300  13.212   2.099
63471SOL    HW292311   8.435  13.165   2.050
63472SOL     OW92312  10.729   2.648   4.696
63472SOL    HW192313  10.735   2.562   4.655
63472SOL    HW292314  10.721   2.709   4.622
63473SOL     OW92315  10.747   9.303  11.303
63473SOL    HW192316  10.731   9.387  11.260
63473SOL    HW292317  10.717   9.237  11.241
63474SOL     OW92318   0.302   7.653   2.041
63474SOL    HW192319   0.249   7.581   2.007
63474SOL    HW292320   0.249   7.731   2.028
63475SOL     OW92321   8.944   9.053  12.922
63475SOL    HW192322   9.008   9.124  12.931
63475SOL    HW292323   8.863   9.097  12.896
63476SOL     OW92324  10.038  11.253  13.645
63476SOL    HW192325  10.076  11.336  13.615
63476SOL    HW292326  10.017  11.269  13.737
63477SOL     OW92327   8.990  12.732   1.642
63477SOL    HW192328   8.915  12.747   1.584
63477SOL    HW292329   8.952  12.728   1.730
63478SOL     OW92330   3.272   7.077   0.223
63478SOL    HW192331   3.218   7.045   0.295
63478SOL    HW292332   3.360   7.084   0.260
63479SOL     OW92333   1.515   3.090  13.626
63479SOL    HW192334   1.602   3.094  13.664
63479SOL    HW292335   1.524   3.131  13.540
63480SOL     OW92336   0.552   8.705   3.248
63480SOL    HW192337   0.487   8.773   3.226
63480SOL    HW292338   0.569   8.661   3.165
63481SOL     OW92339   8.730   0.327   4.495
63481SOL    HW192340   8.645   0.361   4.524
63481SOL    HW292341   8.711   0.281   4.414
63482SOL     OW92342   6.083   8.845   6.365
63482SOL    HW192343   6.128   8.855   6.448
63482SOL    HW292344   5.998   8.888   6.378
63483SOL     OW92345   3.922  14.191   2.075
63483SOL    HW192346   3.901  14.127   2.143
63483SOL    HW292347   3.999  14.237   2.108
63484SOL     OW92348   5.566  14.162   8.587
63484SOL    HW192349   5.607  14.082   8.553
63484SOL    HW292350   5.475  14.137   8.603
63485SOL     OW92351  10.367   4.641  13.014
63485SOL    HW192352  10.384   4.616  13.105
63485SOL    HW292353  10.454   4.649  12.975
63486SOL     OW92354   6.800   6.489  10.755
63486SOL    HW192355   6.758   6.524  10.676
63486SOL    HW292356   6.879   6.542  10.766
63487SOL     OW92357   4.368  13.717   5.488
63487SOL    HW192358   4.359  13.803   5.531
63487SOL    HW292359   4.378  13.738   5.396
63488SOL     OW92360   9.576  10.318  13.841
63488SOL    HW192361   9.605  10.301  13.931
63488SOL    HW292362   9.566  10.413  13.837
63489SOL     OW92363   1.664   7.734  11.024
63489SOL    HW192364   1.599   7.746  10.955
63489SOL    HW292365   1.673   7.640  11.033
63490SOL     OW92366  12.504   2.004   9.408
63490SOL    HW192367  12.591   2.026   9.375
63490SOL    HW292368  12.496   1.910   9.391
63491SOL     OW92369   2.692  12.556   4.458
63491SOL    HW192370   2.637  12.576   4.534
63491SOL    HW292371   2.631  12.524   4.392
63492SOL     OW92372   5.412   2.961   9.004
63492SOL    HW192373   5.364   2.961   9.087
63492SOL    HW292374   5.494   2.916   9.024
63493SOL     OW92375   1.425   0.169   6.678
63493SOL    HW192376   1.405   0.107   6.608
63493SOL    HW292377   1.376   0.137   6.753
63494SOL     OW92378  13.743   2.243   0.794
63494SOL    HW192379  13.661   2.239   0.745
63494SOL    HW292380  13.756   2.155   0.828
63495SOL     OW92381   0.518   4.684   0.591
63495SOL    HW192382   0.430   4.716   0.571
63495SOL    HW292383   0.569   4.702   0.512
63496SOL     OW92384  11.362   4.102  14.357
63496SOL    HW192385  11.366   4.080  14.450
63496SOL    HW292386  11.421   4.040  14.315
63497SOL     OW92387   3.982   0.325   4.902
63497SOL    HW192388   3.915   0.264   4.931
63497SOL    HW292389   4.063   0.274   4.905
63498SOL     OW92390   7.362   2.130   4.661
63498SOL    HW192391   7.403   2.052   4.698
63498SOL    HW292392   7.320   2.100   4.581
63499SOL     OW92393   1.156   5.742   4.518
63499SOL    HW192394   1.089   5.801   4.550
63499SOL    HW292395   1.193   5.703   4.598
63500SOL     OW92396  10.318   2.707  12.138
63500SOL    HW192397  10.348   2.661  12.060
63500SOL    HW292398  10.309   2.798  12.110
63501SOL     OW92399  11.551   1.956  11.153
63501SOL    HW192400  11.629   1.992  11.110
63501SOL    HW292401  11.581   1.872  11.189
63502SOL     OW92402   9.586   6.887   1.714
63502SOL    HW192403   9.577   6.980   1.735
63502SOL    HW292404   9.680   6.871   1.719
63503SOL     OW92405   3.319  14.625   4.892
63503SOL    HW192406   3.226  14.622   4.911
63503SOL    HW292407   3.348  14.711   4.921
63504SOL     OW92408  10.293   0.628  14.255
63504SOL    HW192409  10.213   0.671  14.285
63504SOL    HW292410  10.331   0.591  14.334
63505SOL     OW92411  13.739  12.800  13.977
63505SOL    HW192412  13.787  12.871  14.020
63505SOL    HW292413  13.764  12.721  14.026
63506SOL     OW92414   9.219   2.095   5.366
63506SOL    HW192415   9.128   2.114   5.342
63506SOL    HW292416   9.233   2.143   5.447
63507SOL     OW92417   5.663   0.797   0.948
63507SOL    HW192418   5.582   0.848   0.946
63507SOL    HW292419   5.685   0.791   1.041
63508SOL     OW92420   2.721   1.228   5.591
63508SOL    HW192421   2.749   1.222   5.500
63508SOL    HW292422   2.700   1.320   5.605
63509SOL     OW92423   4.995   6.011   3.855
63509SOL    HW192424   5.029   6.014   3.765
63509SOL    HW292425   5.012   6.098   3.890
63510SOL     OW92426   8.965  14.449  10.401
63510SOL    HW192427   8.883  14.422  10.360
63510SOL    HW292428   8.960  14.416  10.491
63511SOL     OW92429   7.272  10.364   8.994
63511SOL    HW192430   7.206  10.383   9.060
63511SOL    HW292431   7.227  10.309   8.930
63512SOL     OW92432   0.419  13.124   6.033
63512SOL    HW192433   0.407  13.050   5.974
63512SOL    HW292434   0.362  13.192   5.999
63513SOL     OW92435  10.088   8.931  10.721
63513SOL    HW192436  10.053   8.899  10.638
63513SOL    HW292437  10.012   8.963  10.769
63514SOL     OW92438   7.894   3.793   1.981
63514SOL    HW192439   7.853   3.752   1.905
63514SOL    HW292440   7.983   3.756   1.983
63515SOL     OW92441   2.602   9.072   5.443
63515SOL    HW192442   2.648   9.155   5.444
63515SOL    HW292443   2.589   9.053   5.350
63516SOL     OW92444  12.858  12.957  12.109
63516SOL    HW192445  12.863  12.952  12.014
63516SOL    HW292446  12.765  12.955  12.129
63517SOL     OW92447  11.496  12.122   9.526
63517SOL    HW192448  11.452  12.136   9.610
63517SOL    HW292449  11.432  12.074   9.473
63518SOL     OW92450   2.662   6.321   2.664
63518SOL    HW192451   2.634   6.355   2.749
63518SOL    HW292452   2.744   6.367   2.645
63519SOL     OW92453  12.435   6.021  10.810
63519SOL    HW192454  12.438   6.071  10.728
63519SOL    HW292455  12.498   6.065  10.867
63520SOL     OW92456   9.108   6.175   9.168
63520SOL    HW192457   9.139   6.142   9.252
63520SOL    HW292458   9.171   6.243   9.144
63521SOL     OW92459   7.339   9.108   8.592
63521SOL    HW192460   7.259   9.160   8.595
63521SOL    HW292461   7.337   9.066   8.506
63522SOL     OW92462  12.652   9.171  10.730
63522SOL    HW192463  12.598   9.206  10.660
63522SOL    HW292464  12.589   9.136  10.794
63523SOL     OW92465   7.514  10.902   7.710
63523SOL    HW192466   7.447  10.843   7.678
63523SOL    HW292467   7.467  10.982   7.734
63524SOL     OW92468   5.431   2.935  14.697
63524SOL    HW192469   5.445   2.841  14.709
63524SOL    HW292470   5.416   2.945  14.603
63525SOL     OW92471   4.466   9.845   4.792
63525SOL    HW192472   4.533   9.893   4.840
63525SOL    HW292473   4.389   9.848   4.849
63526SOL     OW92474  11.492  11.264  13.803
63526SOL    HW192475  11.429  11.254  13.732
63526SOL    HW292476  11.546  11.185  13.799
63527SOL     OW92477   4.195   3.415  12.816
63527SOL    HW192478   4.250   3.471  12.871
63527SOL    HW292479   4.197   3.330  12.860
63528SOL     OW92480   9.584   2.470   8.723
63528SOL    HW192481   9.563   2.545   8.668
63528SOL    HW292482   9.645   2.417   8.671
63529SOL     OW92483  12.916   6.337  14.822
63529SOL    HW192484  12.838   6.285  14.802
63529SOL    HW292485  12.920   6.402  14.751
63530SOL     OW92486  10.423   6.851   9.597
63530SOL    HW192487  10.472   6.882   9.521
63530SOL    HW292488  10.477   6.875   9.672
63531SOL     OW92489   6.743   6.020  10.301
63531SOL    HW192490   6.676   6.036  10.367
63531SOL    HW292491   6.797   6.099  10.303
63532SOL     OW92492   8.362  11.408   9.517
63532SOL    HW192493   8.358  11.501   9.497
63532SOL    HW292494   8.392  11.367   9.436
63533SOL     OW92495   1.333  10.766   0.271
63533SOL    HW192496   1.413  10.813   0.292
63533SOL    HW292497   1.265  10.810   0.323
63534SOL     OW92498   7.172  13.895   5.515
63534SOL    HW192499   7.193  13.987   5.498
63534SOL    HW292500   7.166  13.855   5.428
63535SOL     OW92501   3.605   0.556   0.959
63535SOL    HW192502   3.510   0.570   0.964
63535SOL    HW292503   3.625   0.503   1.036
63536SOL     OW92504   4.868   8.565  13.936
63536SOL    HW192505   4.916   8.496  13.982
63536SOL    HW292506   4.915   8.645  13.956
63537SOL     OW92507   4.062  10.918  13.544
63537SOL    HW192508   4.097  10.853  13.606
63537SOL    HW292509   3.967  10.912  13.555
63538SOL     OW92510   9.002   7.060   0.703
63538SOL    HW192511   8.937   7.104   0.757
63538SOL    HW292512   9.021   7.122   0.633
63539SOL     OW92513   6.100   0.552   6.337
63539SOL    HW192514   6.185   0.587   6.365
63539SOL    HW292515   6.117   0.459   6.321
63540SOL     OW92516   5.281   5.274   3.553
63540SOL    HW192517   5.256   5.275   3.645
63540SOL    HW292518   5.346   5.204   3.546
63541SOL     OW92519   2.546   2.359   6.102
63541SOL    HW192520   2.516   2.324   6.186
63541SOL    HW292521   2.609   2.428   6.125
63542SOL     OW92522   2.339   1.140   5.583
63542SOL    HW192523   2.386   1.136   5.499
63542SOL    HW292524   2.339   1.233   5.606
63543SOL     OW92525  14.435  10.406   0.281
63543SOL    HW192526  14.378  10.376   0.352
63543SOL    HW292527  14.517  10.359   0.295
63544SOL     OW92528  12.871  14.337   3.822
63544SOL    HW192529  12.807  14.297   3.764
63544SOL    HW292530  12.830  14.418   3.851
63545SOL     OW92531   1.995  12.668   0.392
63545SOL    HW192532   2.069  12.609   0.373
63545SOL    HW292533   1.978  12.655   0.485
63546SOL     OW92534   0.728   3.408   5.028
63546SOL    HW192535   0.644   3.430   5.069
63546SOL    HW292536   0.770   3.493   5.013
63547SOL     OW92537   7.100   0.381   3.974
63547SOL    HW192538   7.185   0.362   4.014
63547SOL    HW292539   7.103   0.475   3.954
63548SOL     OW92540  11.970   0.870   5.710
63548SOL    HW192541  11.909   0.867   5.783
63548SOL    HW292542  12.003   0.780   5.703
63549SOL     OW92543  12.252  10.302   3.194
63549SOL    HW192544  12.225  10.385   3.155
63549SOL    HW292545  12.238  10.238   3.125
63550SOL     OW92546   5.158   5.023   6.561
63550SOL    HW192547   5.100   5.078   6.614
63550SOL    HW292548   5.110   5.010   6.479
63551SOL     OW92549   1.855  10.809   2.703
63551SOL    HW192550   1.798  10.857   2.643
63551SOL    HW292551   1.821  10.831   2.790
63552SOL     OW92552   0.434  14.729   2.472
63552SOL    HW192553   0.482  14.727   2.390
63552SOL    HW292554   0.401  14.819   2.478
63553SOL     OW92555   9.965  10.148   0.625
63553SOL    HW192556   9.997  10.058   0.618
63553SOL    HW292557   9.903  10.157   0.552
63554SOL     OW92558  13.044   1.743   5.396
63554SOL    HW192559  13.021   1.836   5.401
63554SOL    HW292560  13.133   1.738   5.429
63555SOL     OW92561   5.881  14.753   0.240
63555SOL    HW192562   5.909  14.716   0.157
63555SOL    HW292563   5.962  14.784   0.281
63556SOL     OW92564   1.003   8.202  13.402
63556SOL    HW192565   1.011   8.293  13.373
63556SOL    HW292566   0.981   8.153  13.323
63557SOL     OW92567  13.753   0.856   7.434
63557SOL    HW192568  13.659   0.848   7.453
63557SOL    HW292569  13.777   0.942   7.469
63558SOL     OW92570  11.275   9.250   4.095
63558SOL    HW192571  11.205   9.217   4.151
63558SOL    HW292572  11.352   9.201   4.122
63559SOL     OW92573   5.626  12.958   5.412
63559SOL    HW192574   5.532  12.943   5.421
63559SOL    HW292575   5.645  13.030   5.472
63560SOL     OW92576  12.487  14.364  12.646
63560SOL    HW192577  12.547  14.293  12.621
63560SOL    HW292578  12.447  14.391  12.563
63561SOL     OW92579   7.534   4.568   7.399
63561SOL    HW192580   7.513   4.655   7.365
63561SOL    HW292581   7.580   4.524   7.327
63562SOL     OW92582  14.248  10.170   4.637
63562SOL    HW192583  14.245  10.075   4.624
63562SOL    HW292584  14.266  10.181   4.730
63563SOL     OW92585   2.774   3.003  14.500
63563SOL    HW192586   2.852   2.948  14.489
63563SOL    HW292587   2.714   2.974  14.432
63564SOL     OW92588   8.858   8.115  10.691
63564SOL    HW192589   8.931   8.055  10.677
63564SOL    HW292590   8.899   8.202  10.692
63565SOL     OW92591   7.468   1.954   2.955
63565SOL    HW192592   7.434   1.997   3.033
63565SOL    HW292593   7.552   1.997   2.939
63566SOL     OW92594   2.991  12.748   9.311
63566SOL    HW192595   3.048  12.687   9.356
63566SOL    HW292596   3.050  12.810   9.268
63567SOL     OW92597   8.925   6.466  13.091
63567SOL    HW192598   8.938   6.525  13.166
63567SOL    HW292599   8.936   6.378  13.128
63568SOL     OW92600   6.537   5.213   8.284
63568SOL    HW192601   6.551   5.160   8.363
63568SOL    HW292602   6.484   5.158   8.227
63569SOL     OW92603   5.096   0.914   2.398
63569SOL    HW192604   5.136   0.863   2.327
63569SOL    HW292605   5.082   1.001   2.359
63570SOL     OW92606   0.653   9.283   8.210
63570SOL    HW192607   0.687   9.194   8.199
63570SOL    HW292608   0.618   9.306   8.125
63571SOL     OW92609  10.854   4.861  10.394
63571SOL    HW192610  10.801   4.864  10.474
63571SOL    HW292611  10.896   4.947  10.391
63572SOL     OW92612   6.016   4.428  10.234
63572SOL    HW192613   6.071   4.466  10.304
63572SOL    HW292614   6.065   4.352  10.204
63573SOL     OW92615   7.347  12.426  14.333
63573SOL    HW192616   7.252  12.420  14.345
63573SOL    HW292617   7.371  12.345  14.287
63574SOL     OW92618  13.704   0.079   6.928
63574SOL    HW192619  13.661   0.160   6.953
63574SOL    HW292620  13.761   0.104   6.854
63575SOL     OW92621  13.287   9.964   5.924
63575SOL    HW192622  13.287  10.052   5.961
63575SOL    HW292623  13.264   9.976   5.832
63576SOL     OW92624   7.101   4.674   8.442
63576SOL    HW192625   7.120   4.729   8.517
63576SOL    HW292626   7.037   4.610   8.474
63577SOL     OW92627   7.131  10.621  12.191
63577SOL    HW192628   7.062  10.582  12.139
63577SOL    HW292629   7.211  10.576  12.163
63578SOL     OW92630  11.469   0.009  10.266
63578SOL    HW192631  11.533   0.069  10.305
63578SOL    HW292632  11.515  14.794  10.263
63579SOL     OW92633   4.890  13.397   7.825
63579SOL    HW192634   4.848  13.382   7.910
63579SOL    HW292635   4.856  13.328   7.768
63580SOL     OW92636   5.460  12.937  13.181
63580SOL    HW192637   5.424  12.856  13.217
63580SOL    HW292638   5.525  12.909  13.117
63581SOL     OW92639  10.883   5.910  12.357
63581SOL    HW192640  10.818   5.901  12.287
63581SOL    HW292641  10.889   6.004  12.373
63582SOL     OW92642   3.707  10.573   0.213
63582SOL    HW192643   3.616  10.570   0.242
63582SOL    HW292644   3.757  10.537   0.286
63583SOL     OW92645  12.801  10.465   9.949
63583SOL    HW192646  12.886  10.423   9.946
63583SOL    HW292647  12.740  10.400   9.914
63584SOL     OW92648   6.105  10.738   5.433
63584SOL    HW192649   6.046  10.685   5.488
63584SOL    HW292650   6.191  10.698   5.445
63585SOL     OW92651   5.051   8.583  13.370
63585SOL    HW192652   5.084   8.506  13.416
63585SOL    HW292653   5.054   8.559  13.277
63586SOL     OW92654   7.588   5.762   4.101
63586SOL    HW192655   7.645   5.783   4.175
63586SOL    HW292656   7.529   5.695   4.135
63587SOL     OW92657  14.442   3.325  13.976
63587SOL    HW192658  14.378   3.260  14.005
63587SOL    HW292659  14.496   3.278  13.912
63588SOL     OW92660  12.340   5.415  13.536
63588SOL    HW192661  12.363   5.350  13.602
63588SOL    HW292662  12.413   5.477  13.536
63589SOL     OW92663   2.530   5.110  11.270
63589SOL    HW192664   2.600   5.045  11.270
63589SOL    HW292665   2.510   5.125  11.178
63590SOL     OW92666  11.262   6.011   0.832
63590SOL    HW192667  11.346   6.055   0.844
63590SOL    HW292668  11.213   6.031   0.911
63591SOL     OW92669   7.576   3.979   0.688
63591SOL    HW192670   7.639   3.949   0.753
63591SOL    HW292671   7.519   3.904   0.673
63592SOL     OW92672  13.388   9.262   6.702
63592SOL    HW192673  13.432   9.245   6.785
63592SOL    HW292674  13.301   9.222   6.713
63593SOL     OW92675  14.276  10.535   3.867
63593SOL    HW192676  14.322  10.469   3.815
63593SOL    HW292677  14.195  10.492   3.895
63594SOL     OW92678   9.155  10.833   7.892
63594SOL    HW192679   9.095  10.903   7.863
63594SOL    HW292680   9.208  10.815   7.815
63595SOL     OW92681   0.596   3.849   1.583
63595SOL    HW192682   0.657   3.917   1.554
63595SOL    HW292683   0.634   3.815   1.664
63596SOL     OW92684   8.190   7.328   3.615
63596SOL    HW192685   8.159   7.297   3.530
63596SOL    HW292686   8.143   7.411   3.629
63597SOL     OW92687   0.445   5.978  12.061
63597SOL    HW192688   0.475   5.896  12.023
63597SOL    HW292689   0.481   6.046  12.003
63598SOL     OW92690  14.233   7.279   9.172
63598SOL    HW192691  14.286   7.210   9.212
63598SOL    HW292692  14.288   7.357   9.176
63599SOL     OW92693  12.734   8.734   5.884
63599SOL    HW192694  12.736   8.735   5.980
63599SOL    HW292695  12.669   8.667   5.862
63600SOL     OW92696   0.836   5.062   3.116
63600SOL    HW192697   0.871   5.139   3.161
63600SOL    HW292698   0.885   5.058   3.034
63601SOL     OW92699   8.708   1.902   8.682
63601SOL    HW192700   8.648   1.878   8.753
63601SOL    HW292701   8.666   1.868   8.603
63602SOL     OW92702   6.844   8.912   4.182
63602SOL    HW192703   6.775   8.975   4.160
63602SOL    HW292704   6.824   8.885   4.272
63603SOL     OW92705   9.164   1.807   4.043
63603SOL    HW192706   9.160   1.789   3.949
63603SOL    HW292707   9.161   1.721   4.084
63604SOL     OW92708   4.987   1.583   5.274
63604SOL    HW192709   5.022   1.572   5.362
63604SOL    HW292710   4.927   1.658   5.281
63605SOL     OW92711  11.344  14.012   3.523
63605SOL    HW192712  11.277  14.037   3.587
63605SOL    HW292713  11.406  14.086   3.523
63606SOL     OW92714  10.384  11.391  10.697
63606SOL    HW192715  10.387  11.478  10.659
63606SOL    HW292716  10.291  11.365  10.691
63607SOL     OW92717   2.404   4.924  10.451
63607SOL    HW192718   2.319   4.914  10.408
63607SOL    HW292719   2.389   4.990  10.519
63608SOL     OW92720   0.694  11.732   3.894
63608SOL    HW192721   0.664  11.823   3.886
63608SOL    HW292722   0.757  11.734   3.965
63609SOL     OW92723  10.758   2.569   2.622
63609SOL    HW192724  10.693   2.610   2.565
63609SOL    HW292725  10.841   2.577   2.573
63610SOL     OW92726   1.209   1.837  12.829
63610SOL    HW192727   1.199   1.861  12.737
63610SOL    HW292728   1.226   1.919  12.874
63611SOL     OW92729   3.905  12.674   3.190
63611SOL    HW192730   3.901  12.581   3.215
63611SOL    HW292731   3.913  12.721   3.272
63612SOL     OW92732   2.393  12.277   7.022
63612SOL    HW192733   2.312  12.314   6.988
63612SOL    HW292734   2.381  12.276   7.117
63613SOL     OW92735   3.839   5.768   5.606
63613SOL    HW192736   3.902   5.833   5.636
63613SOL    HW292737   3.803   5.804   5.525
63614SOL     OW92738   9.956  13.003   9.403
63614SOL    HW192739   9.920  13.029   9.318
63614SOL    HW292740   9.929  12.911   9.412
63615SOL     OW92741   0.214   1.221   1.933
63615SOL    HW192742   0.210   1.267   1.849
63615SOL    HW292743   0.139   1.161   1.931
63616SOL     OW92744   8.408   4.227  13.685
63616SOL    HW192745   8.480   4.165  13.681
63616SOL    HW292746   8.332   4.178  13.652
63617SOL     OW92747   4.447   8.347   7.173
63617SOL    HW192748   4.467   8.253   7.173
63617SOL    HW292749   4.403   8.362   7.256
63618SOL     OW92750  11.820   2.376   4.260
63618SOL    HW192751  11.801   2.357   4.168
63618SOL    HW292752  11.803   2.470   4.269
63619SOL     OW92753   4.502   1.063   9.502
63619SOL    HW192754   4.574   1.001   9.488
63619SOL    HW292755   4.514   1.092   9.593
63620SOL     OW92756   1.867   3.217   9.570
63620SOL    HW192757   1.810   3.142   9.553
63620SOL    HW292758   1.829   3.259   9.647
63621SOL     OW92759  12.614  10.787   7.637
63621SOL    HW192760  12.609  10.784   7.541
63621SOL    HW292761  12.560  10.713   7.666
63622SOL     OW92762   1.544  13.062   2.237
63622SOL    HW192763   1.519  13.004   2.165
63622SOL    HW292764   1.473  13.126   2.242
63623SOL     OW92765   5.729   7.514   5.632
63623SOL    HW192766   5.679   7.433   5.645
63623SOL    HW292767   5.787   7.519   5.708
63624SOL     OW92768   0.020   8.131   9.162
63624SOL    HW192769  14.824   8.190   9.124
63624SOL    HW292770  14.862   8.120   9.253
63625SOL     OW92771   4.313   9.678   6.502
63625SOL    HW192772   4.377   9.608   6.512
63625SOL    HW292773   4.228   9.633   6.504
63626SOL     OW92774  10.739   2.067  13.670
63626SOL    HW192775  10.794   1.990  13.653
63626SOL    HW292776  10.775   2.106  13.749
63627SOL     OW92777   6.691  10.232   1.153
63627SOL    HW192778   6.663  10.312   1.108
63627SOL    HW292779   6.627  10.166   1.126
63628SOL     OW92780   1.262   3.580   8.538
63628SOL    HW192781   1.266   3.676   8.539
63628SOL    HW292782   1.171   3.559   8.558
63629SOL     OW92783  14.815   9.039   2.449
63629SOL    HW192784  14.728   9.050   2.488
63629SOL    HW292785  14.841   8.950   2.474
63630SOL     OW92786  12.365   9.203   9.512
63630SOL    HW192787  12.454   9.220   9.543
63630SOL    HW292788  12.376   9.145   9.437
63631SOL     OW92789  12.111  14.654  10.963
63631SOL    HW192790  12.170  14.592  11.005
63631SOL    HW292791  12.134  14.651  10.870
63632SOL     OW92792   1.371  12.966  14.118
63632SOL    HW192793   1.464  12.947  14.129
63632SOL    HW292794   1.365  13.005  14.031
63633SOL     OW92795  14.868   8.999  12.225
63633SOL    HW192796   0.044   8.919  12.251
63633SOL    HW292797  14.787   8.968  12.184
63634SOL     OW92798   5.469   2.352   0.293
63634SOL    HW192799   5.432   2.271   0.256
63634SOL    HW292800   5.404   2.419   0.273
63635SOL     OW92801   6.584   6.729   1.807
63635SOL    HW192802   6.509   6.743   1.750
63635SOL    HW292803   6.648   6.795   1.781
63636SOL     OW92804   9.628   1.832   6.299
63636SOL    HW192805   9.690   1.759   6.292
63636SOL    HW292806   9.674   1.898   6.350
63637SOL     OW92807   1.819   7.620   0.884
63637SOL    HW192808   1.767   7.552   0.841
63637SOL    HW292809   1.786   7.621   0.974
63638SOL     OW92810   1.651   5.026  12.485
63638SOL    HW192811   1.633   5.120  12.491
63638SOL    HW292812   1.719   5.019  12.419
63639SOL     OW92813   3.114   6.872   7.552
63639SOL    HW192814   3.058   6.944   7.582
63639SOL    HW292815   3.052   6.802   7.531
63640SOL     OW92816   1.635   4.029   9.267
63640SOL    HW192817   1.628   3.946   9.313
63640SOL    HW292818   1.717   4.022   9.218
63641SOL     OW92819  12.714   9.098   8.096
63641SOL    HW192820  12.761   9.165   8.047
63641SOL    HW292821  12.626   9.134   8.108
63642SOL     OW92822   8.904  13.525  14.477
63642SOL    HW192823   8.866  13.522  14.389
63642SOL    HW292824   8.913  13.619  14.496
63643SOL     OW92825   0.849   7.315   0.230
63643SOL    HW192826   0.903   7.370   0.287
63643SOL    HW292827   0.909   7.289   0.159
63644SOL     OW92828   5.684   3.514   6.930
63644SOL    HW192829   5.770   3.474   6.946
63644SOL    HW292830   5.662   3.556   7.013
63645SOL     OW92831   3.101  14.631  11.995
63645SOL    HW192832   3.092  14.662  12.085
63645SOL    HW292833   3.177  14.678  11.961
63646SOL     OW92834   1.268  12.081  12.064
63646SOL    HW192835   1.189  12.121  12.101
63646SOL    HW292836   1.327  12.072  12.139
63647SOL     OW92837  14.334   0.178   8.395
63647SOL    HW192838  14.308   0.109   8.334
63647SOL    HW292839  14.260   0.238   8.398
63648SOL     OW92840  11.064   7.277   8.573
63648SOL    HW192841  11.020   7.342   8.519
63648SOL    HW292842  11.017   7.279   8.656
63649SOL     OW92843   8.081   5.167   7.135
63649SOL    HW192844   8.156   5.123   7.094
63649SOL    HW292845   8.005   5.128   7.092
63650SOL     OW92846   5.023  10.577   7.384
63650SOL    HW192847   5.063  10.513   7.444
63650SOL    HW292848   5.054  10.550   7.297
63651SOL     OW92849  13.518   2.994   0.241
63651SOL    HW192850  13.474   2.962   0.319
63651SOL    HW292851  13.570   2.920   0.210
63652SOL     OW92852  13.001  14.744   8.757
63652SOL    HW192853  13.016  14.760   8.664
63652SOL    HW292854  12.929  14.680   8.760
63653SOL     OW92855  10.854  12.399   7.089
63653SOL    HW192856  10.815  12.325   7.042
63653SOL    HW292857  10.860  12.371   7.180
63654SOL     OW92858   5.349   8.435   3.968
63654SOL    HW192859   5.329   8.515   4.018
63654SOL    HW292860   5.322   8.364   4.025
63655SOL     OW92861   5.920   2.334   7.870
63655SOL    HW192862   6.003   2.363   7.834
63655SOL    HW292863   5.933   2.334   7.965
63656SOL     OW92864  11.783   7.389   9.861
63656SOL    HW192865  11.833   7.403   9.781
63656SOL    HW292866  11.780   7.474   9.904
63657SOL     OW92867   2.797   1.333   8.799
63657SOL    HW192868   2.806   1.238   8.810
63657SOL    HW292869   2.733   1.343   8.729
63658SOL     OW92870   7.209   1.583  13.225
63658SOL    HW192871   7.157   1.647  13.275
63658SOL    HW292872   7.217   1.623  13.138
63659SOL     OW92873   7.849   4.237  14.708
63659SOL    HW192874   7.921   4.235  14.771
63659SOL    HW292875   7.770   4.237  14.761
63660SOL     OW92876   7.136  13.476   5.075
63660SOL    HW192877   7.145  13.381   5.072
63660SOL    HW292878   7.099  13.499   4.990
63661SOL     OW92879  14.063  10.275   4.442
63661SOL    HW192880  14.137  10.223   4.473
63661SOL    HW292881  14.027  10.315   4.521
63662SOL     OW92882   5.170  14.284   0.558
63662SOL    HW192883   5.164  14.204   0.610
63662SOL    HW292884   5.180  14.354   0.623
63663SOL     OW92885   8.474  11.786  11.636
63663SOL    HW192886   8.558  11.827  11.615
63663SOL    HW292887   8.412  11.858  11.638
63664SOL     OW92888   4.555   2.389   6.926
63664SOL    HW192889   4.646   2.390   6.897
63664SOL    HW292890   4.543   2.475   6.968
63665SOL     OW92891  13.997   8.586  13.975
63665SOL    HW192892  13.963   8.674  13.964
63665SOL    HW292893  14.053   8.572  13.898
63666SOL     OW92894   1.409  10.362   9.586
63666SOL    HW192895   1.445  10.281   9.549
63666SOL    HW292896   1.468  10.431   9.554
63667SOL     OW92897  11.020   5.716   6.260
63667SOL    HW192898  10.928   5.692   6.264
63667SOL    HW292899  11.044   5.705   6.168
63668SOL     OW92900   8.504  14.024   8.830
63668SOL    HW192901   8.514  14.119   8.842
63668SOL    HW292902   8.410  14.011   8.816
63669SOL     OW92903  12.696  12.048  14.718
63669SOL    HW192904  12.754  11.972  14.711
63669SOL    HW292905  12.623  12.028  14.660
63670SOL     OW92906   9.619   6.263   1.267
63670SOL    HW192907   9.674   6.313   1.206
63670SOL    HW292908   9.660   6.177   1.272
63671SOL     OW92909   3.068   5.249   8.190
63671SOL    HW192910   3.128   5.198   8.245
63671SOL    HW292911   3.082   5.215   8.102
63672SOL     OW92912   5.001   4.032   4.625
63672SOL    HW192913   4.961   4.119   4.631
63672SOL    HW292914   5.089   4.049   4.593
63673SOL     OW92915   5.131  12.647   6.719
63673SOL    HW192916   5.210  12.603   6.687
63673SOL    HW292917   5.066  12.630   6.651
63674SOL     OW92918   4.214  11.988   6.211
63674SOL    HW192919   4.288  11.973   6.153
63674SOL    HW292920   4.138  11.997   6.153
63675SOL     OW92921   1.879   5.261  13.564
63675SOL    HW192922   1.920   5.208  13.633
63675SOL    HW292923   1.869   5.200  13.490
63676SOL     OW92924   9.089   5.442  13.392
63676SOL    HW192925   9.110   5.421  13.300
63676SOL    HW292926   9.105   5.536  13.399
63677SOL     OW92927   9.177   5.518   9.187
63677SOL    HW192928   9.091   5.561   9.194
63677SOL    HW292929   9.230   5.579   9.136
63678SOL     OW92930  14.465   6.592   7.902
63678SOL    HW192931  14.466   6.684   7.927
63678SOL    HW292932  14.556   6.569   7.886
63679SOL     OW92933  14.011   5.017   4.271
63679SOL    HW192934  13.999   5.110   4.253
63679SOL    HW292935  14.007   5.010   4.366
63680SOL     OW92936   7.920  10.113  14.798
63680SOL    HW192937   7.859  10.042  14.818
63680SOL    HW292938   8.006  10.071  14.795
63681SOL     OW92939   3.490  12.859   7.391
63681SOL    HW192940   3.448  12.912   7.459
63681SOL    HW292941   3.501  12.773   7.430
63682SOL     OW92942   1.779   3.014   6.910
63682SOL    HW192943   1.854   2.959   6.886
63682SOL    HW292944   1.814   3.073   6.977
63683SOL     OW92945   3.295   3.605  12.604
63683SOL    HW192946   3.385   3.574  12.590
63683SOL    HW292947   3.288   3.684  12.551
63684SOL     OW92948   5.676  10.634   0.434
63684SOL    HW192949   5.735  10.603   0.503
63684SOL    HW292950   5.600  10.577   0.440
63685SOL     OW92951   3.751   3.991   6.997
63685SOL    HW192952   3.701   4.049   7.054
63685SOL    HW292953   3.823   3.959   7.052
63686SOL     OW92954   7.525   6.733   2.473
63686SOL    HW192955   7.567   6.692   2.398
63686SOL    HW292956   7.553   6.824   2.469
63687SOL     OW92957   4.900  11.299  14.613
63687SOL    HW192958   4.946  11.373  14.652
63687SOL    HW292959   4.873  11.331  14.527
63688SOL     OW92960   1.983  13.931   7.712
63688SOL    HW192961   1.925  13.979   7.652
63688SOL    HW292962   2.069  13.971   7.700
63689SOL     OW92963   8.662   4.164   8.908
63689SOL    HW192964   8.674   4.073   8.878
63689SOL    HW292965   8.647   4.214   8.828
63690SOL     OW92966   2.942  10.520  13.664
63690SOL    HW192967   2.962  10.612  13.643
63690SOL    HW292968   2.925  10.479  13.580
63691SOL     OW92969   1.137   7.390   2.070
63691SOL    HW192970   1.090   7.443   2.006
63691SOL    HW292971   1.138   7.444   2.149
63692SOL     OW92972   0.659   6.916   4.173
63692SOL    HW192973   0.712   6.966   4.111
63692SOL    HW292974   0.595   6.871   4.119
63693SOL     OW92975  11.448  13.950   7.611
63693SOL    HW192976  11.536  13.961   7.577
63693SOL    HW292977  11.391  13.992   7.546
63694SOL     OW92978   4.178   1.846  10.461
63694SOL    HW192979   4.114   1.906  10.497
63694SOL    HW292980   4.259   1.897  10.454
63695SOL     OW92981  10.139   1.929   4.094
63695SOL    HW192982  10.083   1.918   4.018
63695SOL    HW292983  10.087   1.898   4.168
63696SOL     OW92984  12.681  13.148   2.974
63696SOL    HW192985  12.648  13.077   3.030
63696SOL    HW292986  12.745  13.105   2.918
63697SOL     OW92987  13.182   5.851   2.569
63697SOL    HW192988  13.275   5.853   2.545
63697SOL    HW292989  13.140   5.904   2.501
63698SOL     OW92990   9.057   6.015   0.382
63698SOL    HW192991   9.128   5.953   0.362
63698SOL    HW292992   8.998   5.966   0.439
63699SOL     OW92993   9.970   2.371   8.356
63699SOL    HW192994  10.034   2.346   8.289
63699SOL    HW292995   9.953   2.290   8.404
63700SOL     OW92996   6.713   4.213   4.341
63700SOL    HW192997   6.675   4.144   4.395
63700SOL    HW292998   6.690   4.294   4.386
63701SOL     OW92999   1.254   7.454  13.927
63701SOL    HW193000   1.219   7.370  13.897
63701SOL    HW293001   1.240   7.453  14.022
63702SOL     OW93002  14.311   8.884   4.185
63702SOL    HW193003  14.364   8.865   4.108
63702SOL    HW293004  14.238   8.822   4.181
63703SOL     OW93005   6.365  12.994  12.944
63703SOL    HW193006   6.351  13.089  12.941
63703SOL    HW293007   6.307  12.960  12.876
63704SOL     OW93008   4.361   6.495   4.012
63704SOL    HW193009   4.396   6.437   4.080
63704SOL    HW293010   4.428   6.563   4.003
63705SOL     OW93011   2.602   5.253   9.632
63705SOL    HW193012   2.651   5.270   9.712
63705SOL    HW293013   2.649   5.300   9.564
63706SOL     OW93014  14.421   2.680   7.645
63706SOL    HW193015  14.404   2.586   7.652
63706SOL    HW293016  14.475   2.700   7.721
63707SOL     OW93017   5.081   3.368  11.342
63707SOL    HW193018   5.134   3.396  11.416
63707SOL    HW293019   5.142   3.363  11.269
63708SOL     OW93020   6.535   1.832   4.659
63708SOL    HW193021   6.464   1.767   4.653
63708SOL    HW293022   6.565   1.842   4.569
63709SOL     OW93023   4.459  10.395   0.699
63709SOL    HW193024   4.480  10.335   0.627
63709SOL    HW293025   4.472  10.482   0.661
63710SOL     OW93026  12.425   1.615  12.189
63710SOL    HW193027  12.489   1.559  12.233
63710SOL    HW293028  12.477   1.669  12.130
63711SOL     OW93029   9.282   8.353  12.572
63711SOL    HW193030   9.232   8.349  12.491
63711SOL    HW293031   9.356   8.410  12.551
63712SOL     OW93032  10.676  11.748  11.307
63712SOL    HW193033  10.766  11.759  11.275
63712SOL    HW293034  10.623  11.744  11.228
63713SOL     OW93035  11.772   0.555   6.086
63713SOL    HW193036  11.773   0.599   6.000
63713SOL    HW293037  11.762   0.627   6.148
63714SOL     OW93038  10.341   6.192   5.112
63714SOL    HW193039  10.274   6.125   5.100
63714SOL    HW293040  10.331   6.221   5.203
63715SOL     OW93041   6.322   9.727   7.766
63715SOL    HW193042   6.380   9.698   7.696
63715SOL    HW293043   6.318   9.652   7.826
63716SOL     OW93044   7.306  13.571   0.256
63716SOL    HW193045   7.283  13.643   0.314
63716SOL    HW293046   7.232  13.564   0.195
63717SOL     OW93047   9.520   1.213   0.170
63717SOL    HW193048   9.505   1.184   0.260
63717SOL    HW293049   9.570   1.293   0.179
63718SOL     OW93050  11.267   6.354  13.001
63718SOL    HW193051  11.302   6.289  13.062
63718SOL    HW293052  11.210   6.304  12.943
63719SOL     OW93053   9.833   3.922   4.782
63719SOL    HW193054   9.802   3.853   4.841
63719SOL    HW293055   9.926   3.903   4.770
63720SOL     OW93056   2.399  10.730   4.504
63720SOL    HW193057   2.404  10.820   4.536
63720SOL    HW293058   2.487  10.695   4.515
63721SOL     OW93059  12.347  12.804   4.868
63721SOL    HW193060  12.263  12.783   4.827
63721SOL    HW293061  12.354  12.744   4.942
63722SOL     OW93062   4.014   5.304  11.107
63722SOL    HW193063   3.955   5.378  11.125
63722SOL    HW293064   3.991   5.239  11.173
63723SOL     OW93065  12.895   1.624   6.883
63723SOL    HW193066  12.981   1.665   6.876
63723SOL    HW293067  12.835   1.696   6.904
63724SOL     OW93068  10.000   8.424  14.250
63724SOL    HW193069   9.980   8.437  14.157
63724SOL    HW293070  10.090   8.452  14.260
63725SOL     OW93071  11.336  14.345  11.877
63725SOL    HW193072  11.254  14.314  11.916
63725SOL    HW293073  11.402  14.330  11.945
63726SOL     OW93074   1.341   8.470   2.043
63726SOL    HW193075   1.418   8.479   2.099
63726SOL    HW293076   1.353   8.537   1.975
63727SOL     OW93077   2.841  11.864  12.757
63727SOL    HW193078   2.772  11.844  12.821
63727SOL    HW293079   2.882  11.779  12.739
63728SOL     OW93080   4.873   2.533  10.617
63728SOL    HW193081   4.924   2.523  10.537
63728SOL    HW293082   4.813   2.605  10.599
63729SOL     OW93083   0.807   6.715   6.409
63729SOL    HW193084   0.897   6.708   6.438
63729SOL    HW293085   0.769   6.629   6.428
63730SOL     OW93086   3.672  10.158  11.514
63730SOL    HW193087   3.709  10.212  11.445
63730SOL    HW293088   3.742  10.147  11.578
63731SOL     OW93089   3.537   7.885   1.386
63731SOL    HW193090   3.504   7.833   1.313
63731SOL    HW293091   3.614   7.836   1.417
63732SOL     OW93092  14.442   2.161  13.335
63732SOL    HW193093  14.433   2.144  13.429
63732SOL    HW293094  14.531   2.195  13.326
63733SOL     OW93095   6.199  10.978   5.555
63733SOL    HW193096   6.130  11.014   5.610
63733SOL    HW293097   6.159  10.902   5.513
63734SOL     OW93098   0.477   5.821  12.783
63734SOL    HW193099   0.483   5.857  12.872
63734SOL    HW293100   0.519   5.888  12.728
63735SOL     OW93101   9.017   2.382  14.713
63735SOL    HW193102   8.940   2.417  14.667
63735SOL    HW293103   9.084   2.449  14.701
63736SOL     OW93104  13.683   7.907   0.089
63736SOL    HW193105  13.725   7.855   0.021
63736SOL    HW293106  13.685   7.997   0.055
63737SOL     OW93107  11.693   9.347   4.443
63737SOL    HW193108  11.761   9.412   4.459
63737SOL    HW293109  11.624   9.369   4.506
63738SOL     OW93110  11.157   2.630   8.294
63738SOL    HW193111  11.062   2.642   8.305
63738SOL    HW293112  11.169   2.624   8.200
63739SOL     OW93113  14.092  13.532   7.703
63739SOL    HW193114  14.145  13.489   7.635
63739SOL    HW293115  14.066  13.615   7.664
63740SOL     OW93116  13.304   4.592   6.768
63740SOL    HW193117  13.266   4.617   6.852
63740SOL    HW293118  13.342   4.674   6.734
63741SOL     OW93119   7.312   3.140  10.933
63741SOL    HW193120   7.245   3.071  10.927
63741SOL    HW293121   7.276   3.202  10.997
63742SOL     OW93122   9.770   6.316   8.753
63742SOL    HW193123   9.820   6.339   8.831
63742SOL    HW293124   9.834   6.322   8.681
63743SOL     OW93125  14.613   6.470   2.191
63743SOL    HW193126  14.684   6.438   2.137
63743SOL    HW293127  14.656   6.506   2.269
63744SOL     OW93128   6.776   1.403   5.486
63744SOL    HW193129   6.711   1.335   5.466
63744SOL    HW293130   6.835   1.402   5.411
63745SOL     OW93131   0.240  13.594   3.353
63745SOL    HW193132   0.197  13.588   3.438
63745SOL    HW293133   0.303  13.521   3.352
63746SOL     OW93134   8.258   1.329   8.303
63746SOL    HW193135   8.199   1.351   8.375
63746SOL    HW293136   8.342   1.311   8.345
63747SOL     OW93137   4.659  11.718  13.002
63747SOL    HW193138   4.600  11.661  13.051
63747SOL    HW293139   4.651  11.803  13.045
63748SOL     OW93140   6.169   6.505   8.125
63748SOL    HW193141   6.260   6.535   8.121
63748SOL    HW293142   6.130   6.536   8.044
63749SOL     OW93143   7.287   4.318   4.595
63749SOL    HW193144   7.270   4.364   4.677
63749SOL    HW293145   7.215   4.343   4.538
63750SOL     OW93146   2.364   4.430   9.084
63750SOL    HW193147   2.402   4.518   9.088
63750SOL    HW293148   2.269   4.446   9.087
63751SOL     OW93149   0.294   6.553   1.192
63751SOL    HW193150   0.263   6.630   1.145
63751SOL    HW293151   0.347   6.587   1.264
63752SOL     OW93152   2.821   3.296   2.292
63752SOL    HW193153   2.858   3.291   2.381
63752SOL    HW293154   2.889   3.261   2.236
63753SOL     OW93155   5.123   7.870   9.544
63753SOL    HW193156   5.210   7.862   9.506
63753SOL    HW293157   5.108   7.964   9.551
63754SOL     OW93158  10.203   7.344   3.393
63754SOL    HW193159  10.181   7.287   3.319
63754SOL    HW293160  10.129   7.404   3.400
63755SOL     OW93161   5.513  11.273   7.567
63755SOL    HW193162   5.479  11.210   7.504
63755SOL    HW293163   5.558  11.339   7.515
63756SOL     OW93164   1.940  10.801   9.924
63756SOL    HW193165   1.855  10.790   9.967
63756SOL    HW293166   1.919  10.804   9.830
63757SOL     OW93167  12.391   1.085  10.144
63757SOL    HW193168  12.480   1.112  10.121
63757SOL    HW293169  12.364   1.147  10.212
63758SOL     OW93170   2.998   2.053   1.263
63758SOL    HW193171   2.953   2.135   1.285
63758SOL    HW293172   3.061   2.040   1.334
63759SOL     OW93173   4.542   5.428  10.194
63759SOL    HW193174   4.457   5.400  10.159
63759SOL    HW293175   4.544   5.393  10.283
63760SOL     OW93176   5.641   6.777  11.362
63760SOL    HW193177   5.633   6.826  11.444
63760SOL    HW293178   5.727   6.734  11.369
63761SOL     OW93179   1.794   0.206   1.079
63761SOL    HW193180   1.812   0.237   1.168
63761SOL    HW293181   1.802   0.284   1.024
63762SOL     OW93182   9.231   0.688   4.916
63762SOL    HW193183   9.286   0.741   4.858
63762SOL    HW293184   9.204   0.614   4.863
63763SOL     OW93185  13.318   4.869   0.508
63763SOL    HW193186  13.320   4.902   0.598
63763SOL    HW293187  13.225   4.861   0.488
63764SOL     OW93188   8.785   2.442  12.632
63764SOL    HW193189   8.809   2.397  12.712
63764SOL    HW293190   8.787   2.535  12.655
63765SOL     OW93191   8.266  10.376   9.526
63765SOL    HW193192   8.214  10.438   9.577
63765SOL    HW293193   8.206  10.341   9.461
63766SOL     OW93194   0.211   2.895  13.491
63766SOL    HW193195   0.285   2.842  13.463
63766SOL    HW293196   0.179   2.852  13.570
63767SOL     OW93197   0.801   6.567   6.918
63767SOL    HW193198   0.726   6.530   6.965
63767SOL    HW293199   0.842   6.625   6.981
63768SOL     OW93200   2.426   9.614   6.086
63768SOL    HW193201   2.431   9.629   5.992
63768SOL    HW293202   2.398   9.523   6.094
63769SOL     OW93203  13.445   0.021  11.491
63769SOL    HW193204  13.517   0.045  11.550
63769SOL    HW293205  13.455  14.797  11.479
63770SOL     OW93206  14.021   4.905   7.242
63770SOL    HW193207  14.021   5.000   7.252
63770SOL    HW293208  13.930   4.879   7.253
63771SOL     OW93209   1.803  13.355   2.741
63771SOL    HW193210   1.790  13.380   2.649
63771SOL    HW293211   1.881  13.300   2.740
63772SOL     OW93212   2.354   9.485   6.539
63772SOL    HW193213   2.417   9.468   6.469
63772SOL    HW293214   2.324   9.574   6.523
63773SOL     OW93215   4.943   5.593   4.194
63773SOL    HW193216   4.965   5.682   4.221
63773SOL    HW293217   5.026   5.556   4.163
63774SOL     OW93218   2.616   1.651   2.952
63774SOL    HW193219   2.536   1.693   2.983
63774SOL    HW293220   2.662   1.719   2.903
63775SOL     OW93221   1.704   5.891   0.125
63775SOL    HW193222   1.616   5.928   0.136
63775SOL    HW293223   1.692   5.797   0.141
63776SOL     OW93224   7.992  11.060   7.289
63776SOL    HW193225   7.987  11.093   7.200
63776SOL    HW293226   8.060  11.113   7.331
63777SOL     OW93227  12.777   6.050  13.637
63777SOL    HW193228  12.868   6.077  13.626
63777SOL    HW293229  12.783   5.958  13.663
63778SOL     OW93230   9.941   2.018  14.627
63778SOL    HW193231   9.885   2.034  14.703
63778SOL    HW293232   9.888   2.043  14.551
63779SOL     OW93233  11.474   2.788   1.485
63779SOL    HW193234  11.462   2.880   1.460
63779SOL    HW293235  11.540   2.791   1.554
63780SOL     OW93236   4.564   2.472   2.557
63780SOL    HW193237   4.528   2.471   2.646
63780SOL    HW293238   4.611   2.389   2.549
63781SOL     OW93239  12.770   4.958   9.804
63781SOL    HW193240  12.794   4.997   9.720
63781SOL    HW293241  12.814   5.012   9.869
63782SOL     OW93242  10.568   2.935   4.076
63782SOL    HW193243  10.599   2.879   4.006
63782SOL    HW293244  10.569   2.879   4.154
63783SOL     OW93245  12.242  11.956   2.228
63783SOL    HW193246  12.219  12.046   2.204
63783SOL    HW293247  12.332  11.945   2.197
63784SOL     OW93248  10.884   3.242  14.366
63784SOL    HW193249  10.900   3.335  14.383
63784SOL    HW293250  10.789   3.236  14.354
63785SOL     OW93251  11.501   3.219   5.737
63785SOL    HW193252  11.534   3.300   5.775
63785SOL    HW293253  11.420   3.244   5.694
63786SOL     OW93254   2.100  10.456  10.858
63786SOL    HW193255   2.158  10.435  10.931
63786SOL    HW293256   2.062  10.372  10.832
63787SOL     OW93257   0.682   5.145   7.094
63787SOL    HW193258   0.663   5.192   7.013
63787SOL    HW293259   0.622   5.183   7.159
63788SOL     OW93260  12.761  14.201   2.298
63788SOL    HW193261  12.790  14.123   2.344
63788SOL    HW293262  12.692  14.238   2.353
63789SOL     OW93263  10.079   3.320   3.812
63789SOL    HW193264  10.164   3.364   3.808
63789SOL    HW293265  10.061   3.294   3.722
63790SOL     OW93266   8.680   2.563   9.600
63790SOL    HW193267   8.724   2.528   9.522
63790SOL    HW293268   8.627   2.490   9.631
63791SOL     OW93269   3.042   8.614   7.592
63791SOL    HW193270   3.085   8.699   7.597
63791SOL    HW293271   2.964   8.630   7.539
63792SOL     OW93272   1.122   6.127   9.245
63792SOL    HW193273   1.038   6.126   9.200
63792SOL    HW293274   1.167   6.048   9.215
63793SOL     OW93275   2.126   1.650  10.345
63793SOL    HW193276   2.184   1.727  10.339
63793SOL    HW293277   2.050   1.681  10.393
63794SOL     OW93278   8.721   9.200  13.336
63794SOL    HW193279   8.794   9.140  13.353
63794SOL    HW293280   8.648   9.142  13.312
63795SOL     OW93281   5.317   6.432   5.427
63795SOL    HW193282   5.394   6.380   5.401
63795SOL    HW293283   5.350   6.521   5.436
63796SOL     OW93284   8.055  14.138   6.186
63796SOL    HW193285   8.069  14.103   6.098
63796SOL    HW293286   8.104  14.220   6.187
63797SOL     OW93287   8.320  12.927   9.512
63797SOL    HW193288   8.287  12.839   9.532
63797SOL    HW293289   8.379  12.914   9.438
63798SOL     OW93290   2.761  14.247  14.742
63798SOL    HW193291   2.690  14.196  14.779
63798SOL    HW293292   2.729  14.275  14.656
63799SOL     OW93293   5.138   1.410   5.907
63799SOL    HW193294   5.054   1.383   5.868
63799SOL    HW293295   5.114   1.477   5.971
63800SOL     OW93296  11.778   1.123   2.840
63800SOL    HW193297  11.861   1.100   2.798
63800SOL    HW293298  11.713   1.115   2.770
63801SOL     OW93299  11.722   8.661   3.581
63801SOL    HW193300  11.657   8.667   3.651
63801SOL    HW293301  11.797   8.619   3.623
63802SOL     OW93302  13.750   5.492  14.634
63802SOL    HW193303  13.837   5.527  14.651
63802SOL    HW293304  13.762   5.432  14.560
63803SOL     OW93305   9.172  11.759  12.381
63803SOL    HW193306   9.130  11.762  12.295
63803SOL    HW293307   9.150  11.673  12.416
63804SOL     OW93308   3.245   4.567  14.324
63804SOL    HW193309   3.201   4.629  14.267
63804SOL    HW293310   3.335   4.598  14.328
63805SOL     OW93311   0.495  11.708   4.767
63805SOL    HW193312   0.584  11.712   4.730
63805SOL    HW293313   0.438  11.696   4.692
63806SOL     OW93314   2.284   5.305  10.897
63806SOL    HW193315   2.216   5.354  10.852
63806SOL    HW293316   2.366   5.349  10.874
63807SOL     OW93317   8.957   5.129  14.144
63807SOL    HW193318   8.894   5.163  14.207
63807SOL    HW293319   8.905   5.106  14.067
63808SOL     OW93320   3.419  14.146  12.432
63808SOL    HW193321   3.425  14.172  12.340
63808SOL    HW293322   3.489  14.195  12.476
63809SOL     OW93323   6.173   7.034   8.488
63809SOL    HW193324   6.120   6.958   8.463
63809SOL    HW293325   6.174   7.090   8.411
63810SOL     OW93326  13.486   9.943   7.270
63810SOL    HW193327  13.529   9.877   7.216
63810SOL    HW293328  13.549  10.015   7.275
63811SOL     OW93329   9.789   4.922   7.931
63811SOL    HW193330   9.765   4.929   8.024
63811SOL    HW293331   9.816   5.010   7.907
63812SOL     OW93332   5.392   6.380   5.723
63812SOL    HW193333   5.442   6.302   5.750
63812SOL    HW293334   5.374   6.366   5.630
63813SOL     OW93335  14.685  10.925  14.329
63813SOL    HW193336  14.767  10.938  14.378
63813SOL    HW293337  14.712  10.885  14.247
63814SOL     OW93338   5.894   7.208  11.213
63814SOL    HW193339   5.852   7.130  11.248
63814SOL    HW293340   5.833   7.279  11.230
63815SOL     OW93341   4.729   4.816   7.767
63815SOL    HW193342   4.698   4.890   7.715
63815SOL    HW293343   4.766   4.755   7.703
63816SOL     OW93344  11.868   6.111   3.109
63816SOL    HW193345  11.837   6.104   3.200
63816SOL    HW293346  11.897   6.202   3.101
63817SOL     OW93347   9.975   0.934   5.553
63817SOL    HW193348  10.067   0.921   5.530
63817SOL    HW293349   9.964   1.030   5.554
63818SOL     OW93350   8.227   8.366   5.544
63818SOL    HW193351   8.269   8.284   5.570
63818SOL    HW293352   8.144   8.339   5.503
63819SOL     OW93353  10.586   8.079   0.496
63819SOL    HW193354  10.606   8.097   0.588
63819SOL    HW293355  10.497   8.112   0.484
63820SOL     OW93356  12.076  10.255   1.322
63820SOL    HW193357  12.147  10.319   1.312
63820SOL    HW293358  12.120  10.170   1.311
63821SOL     OW93359   6.047   2.155  13.802
63821SOL    HW193360   6.111   2.092  13.836
63821SOL    HW293361   6.075   2.171  13.712
63822SOL     OW93362  11.172   8.161   5.637
63822SOL    HW193363  11.229   8.140   5.563
63822SOL    HW293364  11.212   8.239   5.676
63823SOL     OW93365  14.419  13.685  11.180
63823SOL    HW193366  14.403  13.614  11.118
63823SOL    HW293367  14.455  13.641  11.257
63824SOL     OW93368   4.261  10.839   8.945
63824SOL    HW193369   4.178  10.845   8.899
63824SOL    HW293370   4.291  10.750   8.930
63825SOL     OW93371   9.918   7.452   4.416
63825SOL    HW193372   9.842   7.421   4.367
63825SOL    HW293373   9.881   7.503   4.488
63826SOL     OW93374   5.565   7.899   2.814
63826SOL    HW193375   5.495   7.964   2.828
63826SOL    HW293376   5.526   7.835   2.754
63827SOL     OW93377  13.200  13.028   5.556
63827SOL    HW193378  13.122  12.973   5.545
63827SOL    HW293379  13.165  13.116   5.567
63828SOL     OW93380  10.809   6.114   3.733
63828SOL    HW193381  10.820   6.093   3.641
63828SOL    HW293382  10.733   6.172   3.735
63829SOL     OW93383   0.590   2.654  14.029
63829SOL    HW193384   0.568   2.623  14.117
63829SOL    HW293385   0.685   2.665  14.030
63830SOL     OW93386  12.591  12.862   4.750
63830SOL    HW193387  12.654  12.896   4.813
63830SOL    HW293388  12.522  12.822   4.804
63831SOL     OW93389   8.318  10.411  12.729
63831SOL    HW193390   8.262  10.488  12.714
63831SOL    HW293391   8.379  10.438  12.797
63832SOL     OW93392   2.844   2.799  10.422
63832SOL    HW193393   2.780   2.865  10.449
63832SOL    HW293394   2.804   2.754  10.348
63833SOL     OW93395   3.663   4.095   7.835
63833SOL    HW193396   3.739   4.038   7.838
63833SOL    HW293397   3.608   4.058   7.765
63834SOL     OW93398   8.815   8.382   0.771
63834SOL    HW193399   8.867   8.321   0.824
63834SOL    HW293400   8.799   8.335   0.690
63835SOL     OW93401   2.972   9.807   0.841
63835SOL    HW193402   3.058   9.822   0.880
63835SOL    HW293403   2.989   9.753   0.764
63836SOL     OW93404   4.899   2.498   0.591
63836SOL    HW193405   4.812   2.457   0.596
63836SOL    HW293406   4.885   2.589   0.617
63837SOL     OW93407   7.044  11.723  11.322
63837SOL    HW193408   7.093  11.658  11.372
63837SOL    HW293409   7.077  11.714  11.233
63838SOL     OW93410  11.976   3.050  10.147
63838SOL    HW193411  11.958   3.056  10.053
63838SOL    HW293412  11.912   3.108  10.187
63839SOL     OW93413   1.675   7.702   4.480
63839SOL    HW193414   1.613   7.706   4.553
63839SOL    HW293415   1.676   7.791   4.444
63840SOL     OW93416  13.120  13.328   9.819
63840SOL    HW193417  13.155  13.391   9.882
63840SOL    HW293418  13.029  13.316   9.845
63841SOL     OW93419   2.613  10.584   7.648
63841SOL    HW193420   2.566  10.668   7.651
63841SOL    HW293421   2.698  10.606   7.610
63842SOL     OW93422   3.962   3.192  11.141
63842SOL    HW193423   3.991   3.103  11.121
63842SOL    HW293424   4.022   3.248  11.093
63843SOL     OW93425   7.804  12.353   6.337
63843SOL    HW193426   7.837  12.280   6.388
63843SOL    HW293427   7.882  12.392   6.297
63844SOL     OW93428  13.862  11.743   5.866
63844SOL    HW193429  13.950  11.730   5.830
63844SOL    HW293430  13.874  11.737   5.960
63845SOL     OW93431   0.080   0.389   3.125
63845SOL    HW193432   0.071   0.476   3.088
63845SOL    HW293433   0.173   0.382   3.147
63846SOL     OW93434  13.108  12.415  12.314
63846SOL    HW193435  13.029  12.468  12.323
63846SOL    HW293436  13.083  12.329  12.347
63847SOL     OW93437   0.421   5.211  10.621
63847SOL    HW193438   0.513   5.183  10.626
63847SOL    HW293439   0.379   5.145  10.566
63848SOL     OW93440  10.082  11.610   1.131
63848SOL    HW193441  10.000  11.658   1.134
63848SOL    HW293442  10.059  11.520   1.157
63849SOL     OW93443  10.393  12.450   4.727
63849SOL    HW193444  10.351  12.376   4.772
63849SOL    HW293445  10.338  12.525   4.749
63850SOL     OW93446   5.857  10.470  14.314
63850SOL    HW193447   5.791  10.520  14.266
63850SOL    HW293448   5.813  10.387  14.336
63851SOL     OW93449   1.620   8.584   1.753
63851SOL    HW193450   1.596   8.599   1.662
63851SOL    HW293451   1.606   8.668   1.796
63852SOL     OW93452  13.707   9.603  11.635
63852SOL    HW193453  13.747   9.516  11.635
63852SOL    HW293454  13.720   9.635  11.546
63853SOL     OW93455  13.556   4.350   1.800
63853SOL    HW193456  13.552   4.346   1.705
63853SOL    HW293457  13.464   4.357   1.828
63854SOL     OW93458   9.073  10.574  11.153
63854SOL    HW193459   9.085  10.493  11.204
63854SOL    HW293460   9.162  10.609  11.145
63855SOL     OW93461  11.078   8.159   8.285
63855SOL    HW193462  11.112   8.242   8.317
63855SOL    HW293463  11.057   8.175   8.193
63856SOL     OW93464   2.987   3.717   1.720
63856SOL    HW193465   3.037   3.675   1.650
63856SOL    HW293466   2.898   3.683   1.709
63857SOL     OW93467  13.963   2.353   6.973
63857SOL    HW193468  13.907   2.423   6.938
63857SOL    HW293469  13.915   2.320   7.049
63858SOL     OW93470  12.768   9.241   9.862
63858SOL    HW193471  12.820   9.205   9.789
63858SOL    HW293472  12.738   9.326   9.830
63859SOL     OW93473   4.150   8.204   4.393
63859SOL    HW193474   4.087   8.264   4.354
63859SOL    HW293475   4.224   8.259   4.419
63860SOL     OW93476   8.042   3.830  14.248
63860SOL    HW193477   8.024   3.824  14.342
63860SOL    HW293478   8.115   3.891  14.241
63861SOL     OW93479  10.901  10.957   8.560
63861SOL    HW193480  10.908  10.951   8.465
63861SOL    HW293481  10.929  10.871   8.592
63862SOL     OW93482   5.998  14.217   6.010
63862SOL    HW193483   5.912  14.176   6.018
63862SOL    HW293484   6.061  14.146   6.022
63863SOL     OW93485   7.683   9.100  13.376
63863SOL    HW193486   7.703   9.170  13.437
63863SOL    HW293487   7.640   9.143  13.302
63864SOL     OW93488   4.225  14.173   9.081
63864SOL    HW193489   4.188  14.118   9.012
63864SOL    HW293490   4.265  14.112   9.142
63865SOL     OW93491  13.073   5.824  12.385
63865SOL    HW193492  13.045   5.774  12.462
63865SOL    HW293493  13.108   5.759  12.325
63866SOL     OW93494  10.057   3.810   5.551
63866SOL    HW193495   9.968   3.783   5.573
63866SOL    HW293496  10.077   3.763   5.469
63867SOL     OW93497   7.604   7.148  14.343
63867SOL    HW193498   7.529   7.089  14.341
63867SOL    HW293499   7.584   7.208  14.416
63868SOL     OW93500  12.192  14.085  10.765
63868SOL    HW193501  12.206  13.999  10.725
63868SOL    HW293502  12.098  14.100  10.757
63869SOL     OW93503   9.261  13.886   8.475
63869SOL    HW193504   9.317  13.871   8.551
63869SOL    HW293505   9.233  13.977   8.482
63870SOL     OW93506  10.970  13.854   1.690
63870SOL    HW193507  10.933  13.923   1.746
63870SOL    HW293508  10.893  13.806   1.658
63871SOL     OW93509   9.735   9.493   0.261
63871SOL    HW193510   9.678   9.437   0.314
63871SOL    HW293511   9.675   9.542   0.205
63872SOL     OW93512   0.737   0.222   1.315
63872SOL    HW193513   0.690   0.284   1.371
63872SOL    HW293514   0.814   0.198   1.365
63873SOL     OW93515   3.113   2.464   1.754
63873SOL    HW193516   3.172   2.431   1.821
63873SOL    HW293517   3.118   2.559   1.762
63874SOL     OW93518  10.789   5.144  10.058
63874SOL    HW193519  10.825   5.057  10.072
63874SOL    HW293520  10.801   5.161   9.965
63875SOL     OW93521  13.702   0.014  10.777
63875SOL    HW193522  13.667   0.066  10.705
63875SOL    HW293523  13.779   0.063  10.807
63876SOL     OW93524  11.718   0.214   9.058
63876SOL    HW193525  11.647   0.252   9.110
63876SOL    HW293526  11.768   0.162   9.120
63877SOL     OW93527  10.797   4.406   6.212
63877SOL    HW193528  10.876   4.458   6.226
63877SOL    HW293529  10.742   4.462   6.157
63878SOL     OW93530   6.867   7.897  12.578
63878SOL    HW193531   6.948   7.945  12.593
63878SOL    HW293532   6.799   7.952  12.616
63879SOL     OW93533   8.055  10.823   8.563
63879SOL    HW193534   8.107  10.877   8.623
63879SOL    HW293535   8.116  10.797   8.494
63880SOL     OW93536   7.779  13.283   2.828
63880SOL    HW193537   7.849  13.271   2.893
63880SOL    HW293538   7.789  13.373   2.797
63881SOL     OW93539   1.988  14.629   3.558
63881SOL    HW193540   1.917  14.682   3.594
63881SOL    HW293541   2.062  14.645   3.617
63882SOL     OW93542  10.431   7.606   4.318
63882SOL    HW193543  10.433   7.702   4.309
63882SOL    HW293544  10.524   7.581   4.321
63883SOL     OW93545  10.286   6.278   3.460
63883SOL    HW193546  10.315   6.209   3.401
63883SOL    HW293547  10.217   6.237   3.513
63884SOL     OW93548   6.943  11.537   0.407
63884SOL    HW193549   7.035  11.514   0.395
63884SOL    HW293550   6.896  11.454   0.398
63885SOL     OW93551   6.810  13.428   8.534
63885SOL    HW193552   6.753  13.503   8.521
63885SOL    HW293553   6.875  13.435   8.464
63886SOL     OW93554  10.842  14.073   8.806
63886SOL    HW193555  10.863  14.019   8.730
63886SOL    HW293556  10.878  14.159   8.785
63887SOL     OW93557  10.304   2.363   7.339
63887SOL    HW193558  10.309   2.435   7.402
63887SOL    HW293559  10.394   2.351   7.309
63888SOL     OW93560  13.392  14.023   4.655
63888SOL    HW193561  13.345  14.034   4.572
63888SOL    HW293562  13.423  14.110   4.678
63889SOL     OW93563   8.824   6.453   8.452
63889SOL    HW193564   8.835   6.536   8.498
63889SOL    HW293565   8.850   6.471   8.362
63890SOL     OW93566   2.164  12.315   2.207
63890SOL    HW193567   2.113  12.234   2.209
63890SOL    HW293568   2.189  12.325   2.115
63891SOL     OW93569  14.419   0.932   8.063
63891SOL    HW193570  14.501   0.908   8.019
63891SOL    HW293571  14.414   1.027   8.053
63892SOL     OW93572  12.605  11.726   9.633
63892SOL    HW193573  12.515  11.755   9.651
63892SOL    HW293574  12.658  11.804   9.647
63893SOL     OW93575   7.124   5.176  10.345
63893SOL    HW193576   7.147   5.226  10.267
63893SOL    HW293577   7.085   5.095  10.311
63894SOL     OW93578  12.555   7.198   3.400
63894SOL    HW193579  12.581   7.247   3.322
63894SOL    HW293580  12.572   7.257   3.473
63895SOL     OW93581  13.428   7.959   4.288
63895SOL    HW193582  13.400   7.870   4.265
63895SOL    HW293583  13.452   7.999   4.204
63896SOL     OW93584  10.793   2.741  10.301
63896SOL    HW193585  10.752   2.696  10.375
63896SOL    HW293586  10.775   2.685  10.226
63897SOL     OW93587   6.477   1.699  12.128
63897SOL    HW193588   6.509   1.611  12.145
63897SOL    HW293589   6.474   1.741  12.214
63898SOL     OW93590   4.676   8.812  12.504
63898SOL    HW193591   4.766   8.845  12.505
63898SOL    HW293592   4.676   8.740  12.567
63899SOL     OW93593   2.891   1.713   0.841
63899SOL    HW193594   2.808   1.677   0.810
63899SOL    HW293595   2.879   1.808   0.835
63900SOL     OW93596   4.731   4.110   7.914
63900SOL    HW193597   4.766   4.060   7.987
63900SOL    HW293598   4.700   4.192   7.953
63901SOL     OW93599  10.963  11.383   8.839
63901SOL    HW193600  10.975  11.343   8.753
63901SOL    HW293601  11.050  11.414   8.864
63902SOL     OW93602   9.585   3.550  13.769
63902SOL    HW193603   9.535   3.470  13.782
63902SOL    HW293604   9.663   3.539  13.823
63903SOL     OW93605   7.391  11.658   3.469
63903SOL    HW193606   7.436  11.735   3.433
63903SOL    HW293607   7.354  11.613   3.394
63904SOL     OW93608  10.892  10.091   8.235
63904SOL    HW193609  10.975  10.133   8.213
63904SOL    HW293610  10.903  10.062   8.326
63905SOL     OW93611   5.277  13.554   2.835
63905SOL    HW193612   5.195  13.531   2.878
63905SOL    HW293613   5.302  13.637   2.875
63906SOL     OW93614   2.409   1.215   4.390
63906SOL    HW193615   2.371   1.209   4.303
63906SOL    HW293616   2.368   1.143   4.439
63907SOL     OW93617  12.065   4.759  13.048
63907SOL    HW193618  12.121   4.803  12.985
63907SOL    HW293619  12.123   4.741  13.122
63908SOL     OW93620   2.707  11.241   9.646
63908SOL    HW193621   2.656  11.271   9.570
63908SOL    HW293622   2.778  11.305   9.653
63909SOL     OW93623   2.124  12.447   9.189
63909SOL    HW193624   2.141  12.541   9.181
63909SOL    HW293625   2.132  12.429   9.283
63910SOL     OW93626  12.785  14.667  14.492
63910SOL    HW193627  12.878  14.672  14.468
63910SOL    HW293628  12.742  14.636  14.413
63911SOL     OW93629   0.530   0.814   9.826
63911SOL    HW193630   0.517   0.768   9.909
63911SOL    HW293631   0.451   0.867   9.815
63912SOL     OW93632   0.814   9.844  12.285
63912SOL    HW193633   0.755   9.847  12.210
63912SOL    HW293634   0.765   9.795  12.352
63913SOL     OW93635   0.349   7.196  14.862
63913SOL    HW193636   0.424   7.234   0.036
63913SOL    HW293637   0.360   7.101   0.003
63914SOL     OW93638   6.138   3.552  10.419
63914SOL    HW193639   6.230   3.553  10.391
63914SOL    HW293640   6.140   3.505  10.503
63915SOL     OW93641  10.298   9.610  10.091
63915SOL    HW193642  10.357   9.559  10.147
63915SOL    HW293643  10.236   9.650  10.152
63916SOL     OW93644   3.452   8.209   1.685
63916SOL    HW193645   3.454   8.222   1.590
63916SOL    HW293646   3.542   8.188   1.709
63917SOL     OW93647   8.073   3.230   8.962
63917SOL    HW193648   8.134   3.157   8.960
63917SOL    HW293649   8.089   3.277   8.880
63918SOL     OW93650  13.387   8.393   3.952
63918SOL    HW193651  13.378   8.377   4.045
63918SOL    HW293652  13.441   8.321   3.920
63919SOL     OW93653  11.346   5.134   4.530
63919SOL    HW193654  11.298   5.091   4.460
63919SOL    HW293655  11.433   5.095   4.528
63920SOL     OW93656  10.184  12.091   1.587
63920SOL    HW193657  10.132  12.170   1.598
63920SOL    HW293658  10.271  12.124   1.563
63921SOL     OW93659   8.080   4.434  12.790
63921SOL    HW193660   8.005   4.492  12.803
63921SOL    HW293661   8.112   4.455  12.703
63922SOL     OW93662  13.225  10.399   2.387
63922SOL    HW193663  13.300  10.348   2.418
63922SOL    HW293664  13.260  10.486   2.371
63923SOL     OW93665   9.620  11.759   4.505
63923SOL    HW193666   9.614  11.672   4.465
63923SOL    HW293667   9.568  11.815   4.447
63924SOL     OW93668  10.580  13.004  13.030
63924SOL    HW193669  10.524  12.931  13.004
63924SOL    HW293670  10.521  13.080  13.034
63925SOL     OW93671   6.089   0.063   3.209
63925SOL    HW193672   6.063  14.852   3.255
63925SOL    HW293673   6.175   0.043   3.174
63926SOL     OW93674  14.641   4.946   7.636
63926SOL    HW193675  14.557   4.943   7.590
63926SOL    HW293676  14.680   5.029   7.611
63927SOL     OW93677  10.852   9.614  12.182
63927SOL    HW193678  10.786   9.678  12.208
63927SOL    HW293679  10.876   9.639  12.093
63928SOL     OW93680   6.267  11.935   0.199
63928SOL    HW193681   6.316  11.939   0.281
63928SOL    HW293682   6.219  12.017   0.195
63929SOL     OW93683   8.837  10.850   3.772
63929SOL    HW193684   8.746  10.857   3.802
63929SOL    HW293685   8.862  10.939   3.751
63930SOL     OW93686   6.359   1.891   7.385
63930SOL    HW193687   6.341   1.847   7.302
63930SOL    HW293688   6.373   1.983   7.362
63931SOL     OW93689  12.039   0.235  11.751
63931SOL    HW193690  12.020   0.165  11.814
63931SOL    HW293691  12.032   0.192  11.666
63932SOL     OW93692  13.870   3.036  13.561
63932SOL    HW193693  13.924   3.074  13.491
63932SOL    HW293694  13.922   3.047  13.640
63933SOL     OW93695   0.769   4.699   7.947
63933SOL    HW193696   0.728   4.636   8.006
63933SOL    HW293697   0.699   4.762   7.927
63934SOL     OW93698   0.988  14.102   6.787
63934SOL    HW193699   1.012  14.129   6.699
63934SOL    HW293700   1.037  14.161   6.845
63935SOL     OW93701  11.975   1.974  11.580
63935SOL    HW193702  11.925   1.998  11.658
63935SOL    HW293703  11.927   2.015  11.508
63936SOL     OW93704  12.543   0.143  12.782
63936SOL    HW193705  12.553   0.060  12.736
63936SOL    HW293706  12.622   0.193  12.759
63937SOL     OW93707   1.513   2.799  11.228
63937SOL    HW193708   1.602   2.814  11.262
63937SOL    HW293709   1.519   2.716  11.181
63938SOL     OW93710  13.960  11.314  11.352
63938SOL    HW193711  13.871  11.280  11.351
63938SOL    HW293712  13.991  11.303  11.262
63939SOL     OW93713   5.932  13.114   9.733
63939SOL    HW193714   6.025  13.092   9.727
63939SOL    HW293715   5.904  13.073   9.815
63940SOL     OW93716   5.131  13.981   1.953
63940SOL    HW193717   5.140  14.000   1.860
63940SOL    HW293718   5.137  13.886   1.959
63941SOL     OW93719   9.610   0.295  10.285
63941SOL    HW193720   9.515   0.295  10.298
63941SOL    HW293721   9.631   0.383  10.256
63942SOL     OW93722  13.801  12.293   7.826
63942SOL    HW193723  13.820  12.340   7.745
63942SOL    HW293724  13.876  12.236   7.839
63943SOL     OW93725   2.384  12.831   4.736
63943SOL    HW193726   2.316  12.889   4.699
63943SOL    HW293727   2.387  12.854   4.829
63944SOL     OW93728   6.817  10.921   5.239
63944SOL    HW193729   6.909  10.943   5.252
63944SOL    HW293730   6.782  10.908   5.327
63945SOL     OW93731   7.567   8.455   9.717
63945SOL    HW193732   7.607   8.372   9.692
63945SOL    HW293733   7.508   8.477   9.645
63946SOL     OW93734  10.366  11.415  14.290
63946SOL    HW193735  10.334  11.396  14.202
63946SOL    HW293736  10.290  11.399  14.347
63947SOL     OW93737  13.330  13.287   6.015
63947SOL    HW193738  13.332  13.192   6.026
63947SOL    HW293739  13.241  13.305   5.982
63948SOL     OW93740   7.061   2.418   3.415
63948SOL    HW193741   7.136   2.472   3.389
63948SOL    HW293742   7.084   2.386   3.502
63949SOL     OW93743  10.435  12.710  12.325
63949SOL    HW193744  10.382  12.631  12.315
63949SOL    HW293745  10.511  12.695  12.267
63950SOL     OW93746   4.503   0.914   2.325
63950SOL    HW193747   4.574   0.970   2.294
63950SOL    HW293748   4.532   0.825   2.305
63951SOL     OW93749   0.860   0.790   1.201
63951SOL    HW193750   0.901   0.746   1.276
63951SOL    HW293751   0.922   0.860   1.178
63952SOL     OW93752  11.939   5.782  11.323
63952SOL    HW193753  11.943   5.700  11.274
63952SOL    HW293754  11.970   5.759  11.411
63953SOL     OW93755  13.064   1.728  14.123
63953SOL    HW193756  12.985   1.723  14.177
63953SOL    HW293757  13.034   1.769  14.042
63954SOL     OW93758   5.301   2.913   2.408
63954SOL    HW193759   5.266   2.890   2.494
63954SOL    HW293760   5.396   2.911   2.419
63955SOL     OW93761  11.956  11.602   7.620
63955SOL    HW193762  11.925  11.511   7.612
63955SOL    HW293763  11.981  11.611   7.711
63956SOL     OW93764   4.472  12.907  11.906
63956SOL    HW193765   4.561  12.874  11.917
63956SOL    HW293766   4.468  12.938  11.816
63957SOL     OW93767  10.088  12.181   7.600
63957SOL    HW193768  10.063  12.118   7.533
63957SOL    HW293769  10.024  12.167   7.670
63958SOL     OW93770  13.144   2.340   9.900
63958SOL    HW193771  13.184   2.425   9.884
63958SOL    HW293772  13.075   2.357   9.964
63959SOL     OW93773   9.400   3.228   0.142
63959SOL    HW193774   9.408   3.289   0.215
63959SOL    HW293775   9.361   3.149   0.180
63960SOL     OW93776  14.686  12.049   1.399
63960SOL    HW193777  14.640  12.133   1.404
63960SOL    HW293778  14.775  12.072   1.373
63961SOL     OW93779   9.235   3.466   0.962
63961SOL    HW193780   9.229   3.534   1.030
63961SOL    HW293781   9.267   3.513   0.885
63962SOL     OW93782  14.628   9.483  10.585
63962SOL    HW193783  14.604   9.495  10.677
63962SOL    HW293784  14.560   9.425  10.550
63963SOL     OW93785   8.311   9.215   0.078
63963SOL    HW193786   8.318   9.311   0.080
63963SOL    HW293787   8.321   9.192  14.855
63964SOL     OW93788  12.486   3.339   6.899
63964SOL    HW193789  12.536   3.421   6.899
63964SOL    HW293790  12.501   3.302   6.812
63965SOL     OW93791  10.949   8.459  10.325
63965SOL    HW193792  10.943   8.512  10.405
63965SOL    HW293793  11.028   8.490  10.281
63966SOL     OW93794  10.476  11.114  14.847
63966SOL    HW193795  10.436  11.166   0.047
63966SOL    HW293796  10.455  11.023  14.869
63967SOL     OW93797   5.153   3.283   2.146
63967SOL    HW193798   5.090   3.325   2.204
63967SOL    HW293799   5.111   3.201   2.120
63968SOL     OW93800   3.165  14.692   5.944
63968SOL    HW193801   3.225  14.634   5.897
63968SOL    HW293802   3.176  14.669   6.036
63969SOL     OW93803   3.606   7.911   0.998
63969SOL    HW193804   3.682   7.964   1.021
63969SOL    HW293805   3.534   7.949   1.049
63970SOL     OW93806  12.942  13.523   2.434
63970SOL    HW193807  12.869  13.566   2.479
63970SOL    HW293808  12.928  13.542   2.342
63971SOL     OW93809  12.282   7.357   9.249
63971SOL    HW193810  12.326   7.343   9.332
63971SOL    HW293811  12.276   7.270   9.209
63972SOL     OW93812   9.135  12.532   5.782
63972SOL    HW193813   9.197  12.589   5.828
63972SOL    HW293814   9.180  12.448   5.776
63973SOL     OW93815   4.750   8.643   3.466
63973SOL    HW193816   4.801   8.692   3.531
63973SOL    HW293817   4.811   8.579   3.431
63974SOL     OW93818   2.540   9.811  14.220
63974SOL    HW193819   2.557   9.895  14.264
63974SOL    HW293820   2.462   9.778  14.264
63975SOL     OW93821   5.438   3.308   4.559
63975SOL    HW193822   5.423   3.351   4.643
63975SOL    HW293823   5.360   3.327   4.507
63976SOL     OW93824   9.979   4.095   5.543
63976SOL    HW193825  10.058   4.054   5.578
63976SOL    HW293826   9.921   4.103   5.618
63977SOL     OW93827  13.380  13.222   8.060
63977SOL    HW193828  13.369  13.185   7.973
63977SOL    HW293829  13.310  13.287   8.069
63978SOL     OW93830   7.724   9.526   6.560
63978SOL    HW193831   7.688   9.503   6.474
63978SOL    HW293832   7.702   9.618   6.571
63979SOL     OW93833  12.232  10.683   7.386
63979SOL    HW193834  12.240  10.742   7.461
63979SOL    HW293835  12.294  10.612   7.404
63980SOL     OW93836   7.851   8.025   1.354
63980SOL    HW193837   7.889   7.981   1.430
63980SOL    HW293838   7.757   8.013   1.363
63981SOL     OW93839  10.921  13.817  13.283
63981SOL    HW193840  10.913  13.908  13.311
63981SOL    HW293841  10.962  13.822  13.197
63982SOL     OW93842   1.974  10.021  11.950
63982SOL    HW193843   1.974  10.067  11.866
63982SOL    HW293844   1.892  10.050  11.992
63983SOL     OW93845  14.591   2.801   5.220
63983SOL    HW193846  14.514   2.850   5.191
63983SOL    HW293847  14.656   2.868   5.239
63984SOL     OW93848  13.973   0.649   9.467
63984SOL    HW193849  14.035   0.642   9.394
63984SOL    HW293850  13.887   0.636   9.427
63985SOL     OW93851   6.865   5.744   2.609
63985SOL    HW193852   6.828   5.710   2.690
63985SOL    HW293853   6.830   5.832   2.601
63986SOL     OW93854  14.486   6.677   0.970
63986SOL    HW193855  14.535   6.616   1.026
63986SOL    HW293856  14.544   6.752   0.958
63987SOL     OW93857  13.733  14.753  14.203
63987SOL    HW193858  13.824  14.730  14.219
63987SOL    HW293859  13.736  14.820  14.135
63988SOL     OW93860   7.657   9.012  10.973
63988SOL    HW193861   7.700   8.987  10.891
63988SOL    HW293862   7.599   8.939  10.993
63989SOL     OW93863   8.947  14.389   3.191
63989SOL    HW193864   8.972  14.364   3.280
63989SOL    HW293865   8.858  14.356   3.180
63990SOL     OW93866  11.195  12.161   7.719
63990SOL    HW193867  11.265  12.181   7.657
63990SOL    HW293868  11.115  12.173   7.668
63991SOL     OW93869   4.782   0.117   8.656
63991SOL    HW193870   4.707   0.061   8.635
63991SOL    HW293871   4.855   0.056   8.667
63992SOL     OW93872  13.316   9.179   7.546
63992SOL    HW193873  13.384   9.129   7.592
63992SOL    HW293874  13.338   9.271   7.562
63993SOL     OW93875   7.904  14.241   6.392
63993SOL    HW193876   7.898  14.336   6.381
63993SOL    HW293877   7.964  14.213   6.323
63994SOL     OW93878   8.401   6.139   8.206
63994SOL    HW193879   8.442   6.226   8.209
63994SOL    HW293880   8.474   6.079   8.188
63995SOL     OW93881   9.707   2.898   5.184
63995SOL    HW193882   9.649   2.950   5.241
63995SOL    HW293883   9.663   2.814   5.176
63996SOL     OW93884  11.211   4.298  13.968
63996SOL    HW193885  11.184   4.376  14.016
63996SOL    HW293886  11.204   4.227  14.031
63997SOL     OW93887  13.147   7.393   8.245
63997SOL    HW193888  13.195   7.313   8.268
63997SOL    HW293889  13.055   7.368   8.253
63998SOL     OW93890   1.313   8.878   6.723
63998SOL    HW193891   1.319   8.920   6.809
63998SOL    HW293892   1.262   8.940   6.670
63999SOL     OW93893   9.528   3.432  14.233
63999SOL    HW193894   9.438   3.415  14.205
63999SOL    HW293895   9.563   3.345  14.253
64000SOL     OW93896   2.937   5.763  10.368
64000SOL    HW193897   2.970   5.849  10.343
64000SOL    HW293898   2.842   5.773  10.371
64001SOL     OW93899  12.359   7.834   5.953
64001SOL    HW193900  12.300   7.791   5.890
64001SOL    HW293901  12.392   7.910   5.907
64002SOL     OW93902   4.994   0.951   8.079
64002SOL    HW193903   5.084   0.955   8.047
64002SOL    HW293904   4.983   0.861   8.111
64003SOL     OW93905   2.799   1.945   0.708
64003SOL    HW193906   2.719   1.969   0.755
64003SOL    HW293907   2.798   2.000   0.629
64004SOL     OW93908   5.846   9.990   6.593
64004SOL    HW193909   5.812  10.045   6.522
64004SOL    HW293910   5.768   9.956   6.636
64005SOL     OW93911   4.916   4.446  13.863
64005SOL    HW193912   4.982   4.380  13.843
64005SOL    HW293913   4.836   4.413  13.822
64006SOL     OW93914   6.208  12.207   0.816
64006SOL    HW193915   6.245  12.290   0.784
64006SOL    HW293916   6.199  12.153   0.737
64007SOL     OW93917   3.134   5.787  14.415
64007SOL    HW193918   3.229   5.787  14.425
64007SOL    HW293919   3.118   5.743  14.331
64008SOL     OW93920   0.413  12.548   7.925
64008SOL    HW193921   0.409  12.558   8.020
64008SOL    HW293922   0.504  12.565   7.903
64009SOL     OW93923  13.115   0.612   1.219
64009SOL    HW193924  13.108   0.654   1.133
64009SOL    HW293925  13.079   0.676   1.280
64010SOL     OW93926  10.256   7.221  13.915
64010SOL    HW193927  10.307   7.290  13.872
64010SOL    HW293928  10.299   7.210  14.000
64011SOL     OW93929  13.322  12.868   2.158
64011SOL    HW193930  13.280  12.782   2.146
64011SOL    HW293931  13.388  12.853   2.225
64012SOL     OW93932  13.036   5.875   5.818
64012SOL    HW193933  12.940   5.871   5.822
64012SOL    HW293934  13.062   5.787   5.790
64013SOL     OW93935   2.341  10.263  14.303
64013SOL    HW193936   2.307  10.175  14.318
64013SOL    HW293937   2.372  10.261  14.212
64014SOL     OW93938  11.456   3.331  10.065
64014SOL    HW193939  11.406   3.255  10.093
64014SOL    HW293940  11.511   3.352  10.140
64015SOL     OW93941   2.113  10.736   1.155
64015SOL    HW193942   2.063  10.804   1.200
64015SOL    HW293943   2.068  10.724   1.072
64016SOL     OW93944  14.744   0.968   7.616
64016SOL    HW193945  14.787   1.048   7.588
64016SOL    HW293946  14.791   0.943   7.696
64017SOL     OW93947   9.248   0.733   8.758
64017SOL    HW193948   9.267   0.698   8.845
64017SOL    HW293949   9.215   0.658   8.708
64018SOL     OW93950   6.675   7.633   8.977
64018SOL    HW193951   6.761   7.668   9.002
64018SOL    HW293952   6.627   7.709   8.945
64019SOL     OW93953   4.758  11.672   5.926
64019SOL    HW193954   4.763  11.738   5.995
64019SOL    HW293955   4.845  11.632   5.925
64020SOL     OW93956   0.961   8.861   6.307
64020SOL    HW193957   0.995   8.850   6.218
64020SOL    HW293958   0.898   8.789   6.318
64021SOL     OW93959  12.090   4.330   0.346
64021SOL    HW193960  12.119   4.420   0.329
64021SOL    HW293961  12.003   4.326   0.306
64022SOL     OW93962   1.141  12.028  12.682
64022SOL    HW193963   1.080  11.970  12.727
64022SOL    HW293964   1.190  12.071  12.752
64023SOL     OW93965   6.806   6.287   0.082
64023SOL    HW193966   6.819   6.366   0.134
64023SOL    HW293967   6.775   6.221   0.144
64024SOL     OW93968  14.663  11.132   2.249
64024SOL    HW193969  14.726  11.203   2.253
64024SOL    HW293970  14.705  11.059   2.294
64025SOL     OW93971   4.547   5.157   1.704
64025SOL    HW193972   4.510   5.072   1.682
64025SOL    HW293973   4.634   5.157   1.664
64026SOL     OW93974   2.115  14.389  13.199
64026SOL    HW193975   2.203  14.386  13.234
64026SOL    HW293976   2.118  14.458  13.132
64027SOL     OW93977   7.555   7.761   6.572
64027SOL    HW193978   7.621   7.814   6.529
64027SOL    HW293979   7.486   7.823   6.597
64028SOL     OW93980   4.257  13.511   2.198
64028SOL    HW193981   4.298  13.479   2.118
64028SOL    HW293982   4.330  13.540   2.253
64029SOL     OW93983   2.053   6.955  11.098
64029SOL    HW193984   2.002   6.874  11.096
64029SOL    HW293985   2.093   6.956  11.184
64030SOL     OW93986   7.776  12.168   7.316
64030SOL    HW193987   7.749  12.253   7.280
64030SOL    HW293988   7.730  12.162   7.400
64031SOL     OW93989   4.212   1.601  10.057
64031SOL    HW193990   4.144   1.620   9.992
64031SOL    HW293991   4.274   1.673  10.049
64032SOL     OW93992   0.297   4.251   6.943
64032SOL    HW193993   0.379   4.201   6.948
64032SOL    HW293994   0.307   4.320   7.009
64033SOL     OW93995  10.127   2.478   0.343
64033SOL    HW193996  10.166   2.556   0.384
64033SOL    HW293997  10.155   2.405   0.399
64034SOL     OW93998  11.346   2.175  10.692
64034SOL    HW193999  11.434   2.201  10.720
64034SOL    HW294000  11.311   2.253  10.647
64035SOL     OW94001   0.191   3.272  14.679
64035SOL    HW194002   0.210   3.348  14.623
64035SOL    HW294003   0.277   3.234  14.697
64036SOL     OW94004   5.459   6.108  12.757
64036SOL    HW194005   5.457   6.013  12.760
64036SOL    HW294006   5.524   6.129  12.690
64037SOL     OW94007   5.615   2.387   4.343
64037SOL    HW194008   5.625   2.450   4.272
64037SOL    HW294009   5.531   2.344   4.324
64038SOL     OW94010  12.913   9.849   2.435
64038SOL    HW194011  12.933   9.933   2.392
64038SOL    HW294012  12.941   9.783   2.372
64039SOL     OW94013   2.006   4.567  11.420
64039SOL    HW194014   2.076   4.524  11.370
64039SOL    HW294015   1.981   4.502  11.486
64040SOL     OW94016  12.059   3.383   9.816
64040SOL    HW194017  12.078   3.367   9.723
64040SOL    HW294018  12.047   3.477   9.822
64041SOL     OW94019   7.462   8.952  13.215
64041SOL    HW194020   7.477   8.861  13.191
64041SOL    HW294021   7.461   8.999  13.131
64042SOL     OW94022  10.644  11.079   7.320
64042SOL    HW194023  10.609  11.100   7.407
64042SOL    HW294024  10.715  11.142   7.307
64043SOL     OW94025   7.807   4.828  13.065
64043SOL    HW194026   7.884   4.883  13.052
64043SOL    HW294027   7.832   4.767  13.135
64044SOL     OW94028  14.635   9.470  14.099
64044SOL    HW194029  14.663   9.402  14.160
64044SOL    HW294030  14.559   9.510  14.141
64045SOL     OW94031   1.905   7.560   4.485
64045SOL    HW194032   1.857   7.480   4.505
64045SOL    HW294033   1.839   7.628   4.483
64046SOL     OW94034  13.687   1.311   8.952
64046SOL    HW194035  13.777   1.283   8.971
64046SOL    HW294036  13.667   1.268   8.869
64047SOL     OW94037  12.290   8.891   0.001
64047SOL    HW194038  12.349   8.847  14.808
64047SOL    HW294039  12.205   8.852  14.853
64048SOL     OW94040   4.058   2.137   4.367
64048SOL    HW194041   4.089   2.182   4.289
64048SOL    HW294042   3.993   2.196   4.405
64049SOL     OW94043  14.123   8.074  12.670
64049SOL    HW194044  14.210   8.092  12.705
64049SOL    HW294045  14.064   8.081  12.746
64050SOL     OW94046   1.525  10.727   0.726
64050SOL    HW194047   1.571  10.775   0.657
64050SOL    HW294048   1.489  10.650   0.682
64051SOL     OW94049   3.749   5.263  10.076
64051SOL    HW194050   3.821   5.321  10.051
64051SOL    HW294051   3.671   5.317  10.065
64052SOL     OW94052   0.235   5.367   5.750
64052SOL    HW194053   0.264   5.425   5.820
64052SOL    HW294054   0.228   5.281   5.792
64053SOL     OW94055  11.728  12.788   5.345
64053SOL    HW194056  11.716  12.737   5.264
64053SOL    HW294057  11.655  12.761   5.401
64054SOL     OW94058  13.286  14.635   5.878
64054SOL    HW194059  13.209  14.655   5.932
64054SOL    HW294060  13.277  14.692   5.801
64055SOL     OW94061   9.433   2.812   8.804
64055SOL    HW194062   9.472   2.840   8.722
64055SOL    HW294063   9.405   2.893   8.846
64056SOL     OW94064  14.085   3.666  13.268
64056SOL    HW194065  14.157   3.608  13.240
64056SOL    HW294066  14.006   3.616  13.247
64057SOL     OW94067   2.315  13.443   3.355
64057SOL    HW194068   2.265  13.363   3.342
64057SOL    HW294069   2.291  13.499   3.281
64058SOL     OW94070   7.050   5.833  10.073
64058SOL    HW194071   7.098   5.865  10.150
64058SOL    HW294072   7.111   5.845  10.001
64059SOL     OW94073   7.728   9.226   6.112
64059SOL    HW194074   7.757   9.137   6.130
64059SOL    HW294075   7.806   9.271   6.080
64060SOL     OW94076  10.942   0.560   2.267
64060SOL    HW194077  10.900   0.574   2.182
64060SOL    HW294078  11.020   0.508   2.247
64061SOL     OW94079   9.971   5.512   9.027
64061SOL    HW194080   9.988   5.426   8.988
64061SOL    HW294081   9.941   5.566   8.955
64062SOL     OW94082   2.805   6.828   1.226
64062SOL    HW194083   2.730   6.868   1.181
64062SOL    HW294084   2.822   6.748   1.176
64063SOL     OW94085   7.830   9.941   1.399
64063SOL    HW194086   7.890   9.939   1.474
64063SOL    HW294087   7.860   9.871   1.342
64064SOL     OW94088   3.806   3.400   3.913
64064SOL    HW194089   3.894   3.436   3.926
64064SOL    HW294090   3.812   3.352   3.830
64065SOL     OW94091   0.333   9.174   2.178
64065SOL    HW194092   0.318   9.095   2.230
64065SOL    HW294093   0.372   9.141   2.096
64066SOL     OW94094  10.671  12.540   3.572
64066SOL    HW194095  10.614  12.479   3.620
64066SOL    HW294096  10.637  12.627   3.593
64067SOL     OW94097  13.273   8.812   8.592
64067SOL    HW194098  13.181   8.787   8.585
64067SOL    HW294099  13.301   8.824   8.502
64068SOL     OW94100   8.768   5.009   6.834
64068SOL    HW194101   8.847   5.062   6.822
64068SOL    HW294102   8.790   4.949   6.905
64069SOL     OW94103   2.245  12.567   4.382
64069SOL    HW194104   2.165  12.552   4.432
64069SOL    HW294105   2.234  12.517   4.302
64070SOL     OW94106  13.812   7.519  10.540
64070SOL    HW194107  13.724   7.492  10.511
64070SOL    HW294108  13.850   7.562  10.463
64071SOL     OW94109   9.066   0.610   5.473
64071SOL    HW194110   9.111   0.690   5.444
64071SOL    HW294111   9.128   0.568   5.533
64072SOL     OW94112  12.232   8.955  12.185
64072SOL    HW194113  12.272   8.869  12.179
64072SOL    HW294114  12.141   8.942  12.158
64073SOL     OW94115   3.276  10.135  12.790
64073SOL    HW194116   3.292  10.230  12.787
64073SOL    HW294117   3.346  10.101  12.846
64074SOL     OW94118  10.912   3.207   0.054
64074SOL    HW194119  10.975   3.188  14.854
64074SOL    HW294120  10.835   3.241   0.008
64075SOL     OW94121  11.186   8.476  14.638
64075SOL    HW194122  11.234   8.515  14.711
64075SOL    HW294123  11.101   8.452  14.676
64076SOL     OW94124  10.635   5.299  12.508
64076SOL    HW194125  10.571   5.304  12.580
64076SOL    HW294126  10.671   5.388  12.503
64077SOL     OW94127   7.766   4.024   7.988
64077SOL    HW194128   7.770   4.119   7.982
64077SOL    HW294129   7.729   4.006   8.075
64078SOL     OW94130  13.237   9.630   2.036
64078SOL    HW194131  13.304   9.621   2.103
64078SOL    HW294132  13.155   9.637   2.084
64079SOL     OW94133   9.617  12.583  14.823
64079SOL    HW194134   9.543  12.623  14.778
64079SOL    HW294135   9.646  12.650   0.016
64080SOL     OW94136  11.128   9.939   8.061
64080SOL    HW194137  11.111  10.003   8.130
64080SOL    HW294138  11.048   9.939   8.008
64081SOL     OW94139   5.926   9.102   1.103
64081SOL    HW194140   5.962   9.054   1.028
64081SOL    HW294141   5.972   9.067   1.179
64082SOL     OW94142  10.355   4.309   8.204
64082SOL    HW194143  10.332   4.398   8.178
64082SOL    HW294144  10.398   4.319   8.289
64083SOL     OW94145  14.759  11.142  13.439
64083SOL    HW194146  14.793  11.132  13.350
64083SOL    HW294147  14.664  11.133  13.429
64084SOL     OW94148   0.569  12.559   1.228
64084SOL    HW194149   0.530  12.478   1.261
64084SOL    HW294150   0.543  12.563   1.136
64085SOL     OW94151   2.257   3.498   2.071
64085SOL    HW194152   2.350   3.511   2.055
64085SOL    HW294153   2.246   3.402   2.075
64086SOL     OW94154   5.064  11.262   8.378
64086SOL    HW194155   5.149  11.307   8.378
64086SOL    HW294156   5.080  11.181   8.426
64087SOL     OW94157   7.839   9.638   2.466
64087SOL    HW194158   7.912   9.645   2.404
64087SOL    HW294159   7.867   9.570   2.528
64088SOL     OW94160   8.135   2.229   8.384
64088SOL    HW194161   8.079   2.172   8.436
64088SOL    HW294162   8.149   2.306   8.439
64089SOL     OW94163   6.745   1.688   6.233
64089SOL    HW194164   6.664   1.662   6.189
64089SOL    HW294165   6.777   1.607   6.273
64090SOL     OW94166   5.823   6.569   3.244
64090SOL    HW194167   5.908   6.528   3.229
64090SOL    HW294168   5.837   6.661   3.224
64091SOL     OW94169  13.754  13.485   8.076
64091SOL    HW194170  13.688  13.445   8.020
64091SOL    HW294171  13.835  13.479   8.026
64092SOL     OW94172  13.274   6.475  11.883
64092SOL    HW194173  13.303   6.529  11.956
64092SOL    HW294174  13.194   6.433  11.914
64093SOL     OW94175   7.648   6.861  12.674
64093SOL    HW194176   7.595   6.894  12.601
64093SOL    HW294177   7.590   6.803  12.723
64094SOL     OW94178   3.932   6.774   0.050
64094SOL    HW194179   3.989   6.700   0.028
64094SOL    HW294180   3.846   6.734   0.062
64095SOL     OW94181   8.874  10.281   7.499
64095SOL    HW194182   8.801  10.269   7.560
64095SOL    HW294183   8.908  10.192   7.484
64096SOL     OW94184   0.349  13.231   2.927
64096SOL    HW194185   0.306  13.278   2.999
64096SOL    HW294186   0.277  13.186   2.882
64097SOL     OW94187   6.795  12.363  11.956
64097SOL    HW194188   6.719  12.307  11.944
64097SOL    HW294189   6.867  12.314  11.915
64098SOL     OW94190  14.112   6.394   3.382
64098SOL    HW194191  14.176   6.427   3.319
64098SOL    HW294192  14.165   6.361   3.455
64099SOL     OW94193   8.893  11.266   8.160
64099SOL    HW194194   8.967  11.248   8.218
64099SOL    HW294195   8.933  11.277   8.073
64100SOL     OW94196   8.679   7.707   8.150
64100SOL    HW194197   8.656   7.639   8.086
64100SOL    HW294198   8.683   7.660   8.233
64101SOL     OW94199   0.914  14.758   5.454
64101SOL    HW194200   0.917  14.682   5.512
64101SOL    HW294201   0.825  14.757   5.418
64102SOL     OW94202   4.007  10.053   3.236
64102SOL    HW194203   3.936   9.999   3.271
64102SOL    HW294204   4.051   9.997   3.173
64103SOL     OW94205  12.664  13.309   9.341
64103SOL    HW194206  12.575  13.345   9.338
64103SOL    HW294207  12.709  13.352   9.268
64104SOL     OW94208   4.800  13.295  13.821
64104SOL    HW194209   4.789  13.372  13.765
64104SOL    HW294210   4.782  13.221  13.763
64105SOL     OW94211   5.599  14.816   5.138
64105SOL    HW194212   5.685  14.812   5.178
64105SOL    HW294213   5.608   0.012   5.068
64106SOL     OW94214   9.087   7.501  13.703
64106SOL    HW194215   9.088   7.406  13.691
64106SOL    HW294216   9.064   7.536  13.616
64107SOL     OW94217  12.983   2.088   8.365
64107SOL    HW194218  12.926   2.016   8.392
64107SOL    HW294219  13.072   2.052   8.371
64108SOL     OW94220  12.969   7.443   5.300
64108SOL    HW194221  13.025   7.409   5.369
64108SOL    HW294222  12.999   7.533   5.287
64109SOL     OW94223   1.629  11.347   3.323
64109SOL    HW194224   1.612  11.296   3.401
64109SOL    HW294225   1.546  11.347   3.275
64110SOL     OW94226   0.193  11.516   0.377
64110SOL    HW194227   0.185  11.611   0.382
64110SOL    HW294228   0.197  11.498   0.283
64111SOL     OW94229  11.658   5.545   2.777
64111SOL    HW194230  11.582   5.591   2.813
64111SOL    HW294231  11.625   5.458   2.756
64112SOL     OW94232   6.890  11.867   9.229
64112SOL    HW194233   6.794  11.867   9.228
64112SOL    HW294234   6.913  11.791   9.283
64113SOL     OW94235   2.003   5.163  10.538
64113SOL    HW194236   1.920   5.155  10.585
64113SOL    HW294237   1.987   5.123  10.452
64114SOL     OW94238   5.220   3.028  13.242
64114SOL    HW194239   5.297   2.988  13.201
64114SOL    HW294240   5.251   3.114  13.272
64115SOL     OW94241   5.698   7.500   8.050
64115SOL    HW194242   5.629   7.449   8.006
64115SOL    HW294243   5.654   7.581   8.077
64116SOL     OW94244   5.942   2.823   2.802
64116SOL    HW194245   6.008   2.789   2.862
64116SOL    HW294246   5.864   2.834   2.857
64117SOL     OW94247   5.304   4.096   8.133
64117SOL    HW194248   5.231   4.138   8.179
64117SOL    HW294249   5.264   4.022   8.088
64118SOL     OW94250   0.548   1.176  14.168
64118SOL    HW194251   0.640   1.184  14.193
64118SOL    HW294252   0.506   1.130  14.241
64119SOL     OW94253   4.758  14.310   5.424
64119SOL    HW194254   4.776  14.216   5.421
64119SOL    HW294255   4.692  14.320   5.492
64120SOL     OW94256  11.416   7.697  14.463
64120SOL    HW194257  11.396   7.603  14.465
64120SOL    HW294258  11.368   7.733  14.537
64121SOL     OW94259   3.196   9.057  10.747
64121SOL    HW194260   3.270   9.057  10.808
64121SOL    HW294261   3.233   9.028  10.664
64122SOL     OW94262   8.260  10.283   5.532
64122SOL    HW194263   8.320  10.236   5.589
64122SOL    HW294264   8.232  10.359   5.584
64123SOL     OW94265  14.222   4.853   8.596
64123SOL    HW194266  14.304   4.825   8.556
64123SOL    HW294267  14.212   4.797   8.673
64124SOL     OW94268   4.637  12.637  14.736
64124SOL    HW194269   4.704  12.591  14.788
64124SOL    HW294270   4.567  12.573  14.726
64125SOL     OW94271   6.744   7.514   2.672
64125SOL    HW194272   6.802   7.585   2.645
64125SOL    HW294273   6.748   7.451   2.600
64126SOL     OW94274   5.506  14.823   1.659
64126SOL    HW194275   5.569  14.821   1.587
64126SOL    HW294276   5.504   0.045   1.687
64127SOL     OW94277  14.250  12.220  11.484
64127SOL    HW194278  14.219  12.287  11.423
64127SOL    HW294279  14.303  12.161  11.431
64128SOL     OW94280   6.574   8.955   1.425
64128SOL    HW194281   6.564   9.004   1.507
64128SOL    HW294282   6.509   8.993   1.366
64129SOL     OW94283  11.353   6.455   6.582
64129SOL    HW194284  11.444   6.466   6.553
64129SOL    HW294285  11.344   6.361   6.596
64130SOL     OW94286   7.454   6.487  13.214
64130SOL    HW194287   7.443   6.579  13.238
64130SOL    HW294288   7.547   6.478  13.194
64131SOL     OW94289   8.629   7.008  12.288
64131SOL    HW194290   8.721   6.981  12.291
64131SOL    HW294291   8.603   6.996  12.197
64132SOL     OW94292   8.375  14.668   2.058
64132SOL    HW194293   8.420  14.704   2.135
64132SOL    HW294294   8.446  14.638   2.001
64133SOL     OW94295  12.810  12.012  11.444
64133SOL    HW194296  12.878  12.025  11.511
64133SOL    HW294297  12.807  11.917  11.432
64134SOL     OW94298  10.487   9.175   8.890
64134SOL    HW194299  10.397   9.204   8.876
64134SOL    HW294300  10.484   9.080   8.879
64135SOL     OW94301  12.094   1.767   2.043
64135SOL    HW194302  12.148   1.696   2.078
64135SOL    HW294303  12.153   1.842   2.038
64136SOL     OW94304   1.595  10.007   0.998
64136SOL    HW194305   1.684  10.033   1.024
64136SOL    HW294306   1.547  10.000   1.081
64137SOL     OW94307  10.195   2.342   2.763
64137SOL    HW194308  10.135   2.280   2.721
64137SOL    HW294309  10.145   2.423   2.770
64138SOL     OW94310  12.831  14.657  14.160
64138SOL    HW194311  12.857  14.566  14.172
64138SOL    HW294312  12.800  14.661  14.070
64139SOL     OW94313   4.953   0.477   0.462
64139SOL    HW194314   4.926   0.395   0.503
64139SOL    HW294315   5.042   0.462   0.432
64140SOL     OW94316   4.220  14.696  12.509
64140SOL    HW194317   4.306  14.657  12.492
64140SOL    HW294318   4.240  14.777  12.557
64141SOL     OW94319   6.920   4.104  11.446
64141SOL    HW194320   6.950   4.058  11.367
64141SOL    HW294321   6.972   4.185  11.447
64142SOL     OW94322   2.888   1.543  10.139
64142SOL    HW194323   2.962   1.484  10.156
64142SOL    HW294324   2.928   1.629  10.128
64143SOL     OW94325  13.082   7.259  11.436
64143SOL    HW194326  13.140   7.326  11.472
64143SOL    HW294327  13.103   7.180  11.485
64144SOL     OW94328   1.687   7.507  12.641
64144SOL    HW194329   1.727   7.452  12.709
64144SOL    HW294330   1.674   7.592  12.684
64145SOL     OW94331   7.107  12.988   7.071
64145SOL    HW194332   7.140  12.898   7.066
64145SOL    HW294333   7.178  13.037   7.115
64146SOL     OW94334   5.935   6.318  12.040
64146SOL    HW194335   5.841   6.314  12.023
64146SOL    HW294336   5.942   6.334  12.134
64147SOL     OW94337   6.175  13.233   2.772
64147SOL    HW194338   6.140  13.154   2.729
64147SOL    HW294339   6.146  13.305   2.716
64148SOL     OW94340   9.146   5.053  10.771
64148SOL    HW194341   9.208   5.074  10.841
64148SOL    HW294342   9.109   5.137  10.746
64149SOL     OW94343  10.759   4.107  14.785
64149SOL    HW194344  10.663   4.103  14.791
64149SOL    HW294345  10.788   4.019  14.809
64150SOL     OW94346   7.058   4.650   5.688
64150SOL    HW194347   6.987   4.633   5.749
64150SOL    HW294348   7.017   4.699   5.617
64151SOL     OW94349  10.008  11.118   6.352
64151SOL    HW194350  10.075  11.051   6.363
64151SOL    HW294351  10.054  11.191   6.312
64152SOL     OW94352   9.092   0.277   3.308
64152SOL    HW194353   9.018   0.302   3.254
64152SOL    HW294354   9.088   0.181   3.312
64153SOL     OW94355   7.197   6.234   8.422
64153SOL    HW194356   7.262   6.263   8.486
64153SOL    HW294357   7.213   6.140   8.413
64154SOL     OW94358  11.406   0.920  13.849
64154SOL    HW194359  11.432   0.845  13.904
64154SOL    HW294360  11.312   0.906  13.834
64155SOL     OW94361  10.038   3.669   4.824
64155SOL    HW194362   9.947   3.653   4.850
64155SOL    HW294363  10.071   3.584   4.797
64156SOL     OW94364  12.196   1.671   2.947
64156SOL    HW194365  12.115   1.633   2.982
64156SOL    HW294366  12.218   1.741   3.008
64157SOL     OW94367   8.993   1.711  14.488
64157SOL    HW194368   8.967   1.652  14.417
64157SOL    HW294369   8.911   1.751  14.517
64158SOL     OW94370   4.181   7.099   9.256
64158SOL    HW194371   4.212   7.185   9.226
64158SOL    HW294372   4.087   7.110   9.267
64159SOL     OW94373  11.126  10.709  12.671
64159SOL    HW194374  11.166  10.719  12.757
64159SOL    HW294375  11.198  10.684  12.614
64160SOL     OW94376   4.631   0.795  11.819
64160SOL    HW194377   4.548   0.795  11.865
64160SOL    HW294378   4.633   0.877  11.770
64161SOL     OW94379  11.858   9.506  10.365
64161SOL    HW194380  11.807   9.439  10.410
64161SOL    HW294381  11.920   9.537  10.431
64162SOL     OW94382   6.522   5.728   8.404
64162SOL    HW194383   6.535   5.771   8.319
64162SOL    HW294384   6.606   5.689   8.424
64163SOL     OW94385   0.326  14.662   9.595
64163SOL    HW194386   0.286  14.620   9.519
64163SOL    HW294387   0.270  14.737   9.614
64164SOL     OW94388   3.631   3.617   3.911
64164SOL    HW194389   3.711   3.581   3.871
64164SOL    HW294390   3.626   3.574   3.997
64165SOL     OW94391  11.774   5.553   1.907
64165SOL    HW194392  11.723   5.517   1.834
64165SOL    HW294393  11.710   5.597   1.962
64166SOL     OW94394  11.656   9.221  14.776
64166SOL    HW194395  11.714   9.179  14.839
64166SOL    HW294396  11.643   9.156  14.707
64167SOL     OW94397  14.275   3.307   6.162
64167SOL    HW194398  14.198   3.260   6.130
64167SOL    HW294399  14.241   3.369   6.226
64168SOL     OW94400   9.183   7.803   9.804
64168SOL    HW194401   9.189   7.777   9.896
64168SOL    HW294402   9.272   7.829   9.780
64169SOL     OW94403   5.663   1.993   8.015
64169SOL    HW194404   5.663   1.898   8.002
64169SOL    HW294405   5.751   2.013   8.046
64170SOL     OW94406   1.593   0.491   9.798
64170SOL    HW194407   1.499   0.505   9.807
64170SOL    HW294408   1.622   0.561   9.739
64171SOL     OW94409   9.302   0.941   9.193
64171SOL    HW194410   9.360   1.013   9.218
64171SOL    HW294411   9.271   0.965   9.105
64172SOL     OW94412  13.785   1.254  12.393
64172SOL    HW194413  13.768   1.336  12.440
64172SOL    HW294414  13.861   1.217  12.437
64173SOL     OW94415   2.959  10.346   6.432
64173SOL    HW194416   3.032  10.361   6.492
64173SOL    HW294417   2.902  10.285   6.480
64174SOL     OW94418   3.824  12.366   7.274
64174SOL    HW194419   3.815  12.440   7.214
64174SOL    HW294420   3.918  12.355   7.286
64175SOL     OW94421  13.914  12.423   4.495
64175SOL    HW194422  13.954  12.386   4.574
64175SOL    HW294423  13.922  12.354   4.429
64176SOL     OW94424   0.367   4.295  13.543
64176SOL    HW194425   0.458   4.324  13.547
64176SOL    HW294426   0.352   4.252  13.628
64177SOL     OW94427   8.241   3.993   6.339
64177SOL    HW194428   8.253   3.955   6.426
64177SOL    HW294429   8.231   3.917   6.281
64178SOL     OW94430   3.017   3.462   2.055
64178SOL    HW194431   2.922   3.466   2.047
64178SOL    HW294432   3.035   3.372   2.083
64179SOL     OW94433   8.191   0.461   1.465
64179SOL    HW194434   8.223   0.387   1.413
64179SOL    HW294435   8.125   0.422   1.523
64180SOL     OW94436   9.320  13.548   7.267
64180SOL    HW194437   9.370  13.532   7.187
64180SOL    HW294438   9.231  13.519   7.245
64181SOL     OW94439  14.167   0.973   1.439
64181SOL    HW194440  14.101   0.969   1.369
64181SOL    HW294441  14.157   1.061   1.475
64182SOL     OW94442  12.314   8.492   0.575
64182SOL    HW194443  12.222   8.467   0.579
64182SOL    HW294444  12.321   8.548   0.498
64183SOL     OW94445   9.108  10.770   5.185
64183SOL    HW194446   9.075  10.682   5.168
64183SOL    HW294447   9.053  10.828   5.132
64184SOL     OW94448   4.694   3.010  11.037
64184SOL    HW194449   4.630   2.977  11.100
64184SOL    HW294450   4.696   2.944  10.968
64185SOL     OW94451   9.779   1.269   1.833
64185SOL    HW194452   9.839   1.195   1.827
64185SOL    HW294453   9.700   1.233   1.873
64186SOL     OW94454  13.324   6.041   4.725
64186SOL    HW194455  13.342   6.031   4.819
64186SOL    HW294456  13.325   6.135   4.710
64187SOL     OW94457   6.181  10.110   4.551
64187SOL    HW194458   6.225  10.129   4.635
64187SOL    HW294459   6.141  10.193   4.526
64188SOL     OW94460   9.657   3.784  11.000
64188SOL    HW194461   9.714   3.859  11.019
64188SOL    HW294462   9.704   3.709  11.038
64189SOL     OW94463   6.887   3.023  14.601
64189SOL    HW194464   6.905   3.010  14.508
64189SOL    HW294465   6.901   2.937  14.641
64190SOL     OW94466   8.548   7.648   6.309
64190SOL    HW194467   8.519   7.615   6.224
64190SOL    HW294468   8.640   7.673   6.295
64191SOL     OW94469   4.696  13.656  14.392
64191SOL    HW194470   4.724  13.610  14.312
64191SOL    HW294471   4.605  13.630  14.404
64192SOL     OW94472  11.947   3.744  11.743
64192SOL    HW194473  12.020   3.692  11.709
64192SOL    HW294474  11.876   3.681  11.756
64193SOL     OW94475  14.194   2.709   5.038
64193SOL    HW194476  14.189   2.677   4.948
64193SOL    HW294477  14.181   2.804   5.031
64194SOL     OW94478  10.603   9.784   4.526
64194SOL    HW194479  10.573   9.713   4.582
64194SOL    HW294480  10.642   9.847   4.587
64195SOL     OW94481   0.752  10.158  10.123
64195SOL    HW194482   0.778  10.075  10.084
64195SOL    HW294483   0.817  10.174  10.192
64196SOL     OW94484  14.130   6.020  13.517
64196SOL    HW194485  14.212   6.067  13.527
64196SOL    HW294486  14.119   5.972  13.599
64197SOL     OW94487   7.347   4.705   0.316
64197SOL    HW194488   7.380   4.730   0.402
64197SOL    HW294489   7.311   4.617   0.329
64198SOL     OW94490  12.577   6.956  14.449
64198SOL    HW194491  12.482   6.950  14.442
64198SOL    HW294492  12.593   6.997  14.534
64199SOL     OW94493  10.477   1.081   5.586
64199SOL    HW194494  10.565   1.088   5.550
64199SOL    HW294495  10.420   1.118   5.518
64200SOL     OW94496   7.086  14.526   5.459
64200SOL    HW194497   7.102  14.502   5.550
64200SOL    HW294498   7.142  14.468   5.408
64201SOL     OW94499   8.863  11.799  11.788
64201SOL    HW194500   8.921  11.779  11.862
64201SOL    HW294501   8.805  11.867  11.822
64202SOL     OW94502   1.515   8.409  12.804
64202SOL    HW194503   1.545   8.476  12.742
64202SOL    HW294504   1.489   8.336  12.749
64203SOL     OW94505   5.214   5.136   7.392
64203SOL    HW194506   5.142   5.147   7.454
64203SOL    HW294507   5.270   5.212   7.406
64204SOL     OW94508  12.057   8.186  10.845
64204SOL    HW194509  12.026   8.261  10.896
64204SOL    HW294510  12.108   8.134  10.906
64205SOL     OW94511   6.166   4.723   6.110
64205SOL    HW194512   6.140   4.754   6.197
64205SOL    HW294513   6.154   4.799   6.053
64206SOL     OW94514   2.844   4.847   6.500
64206SOL    HW194515   2.890   4.923   6.464
64206SOL    HW294516   2.873   4.842   6.591
64207SOL     OW94517   6.260   5.218   0.358
64207SOL    HW194518   6.311   5.286   0.314
64207SOL    HW294519   6.231   5.160   0.288
64208SOL     OW94520   6.462   0.487   6.931
64208SOL    HW194521   6.429   0.574   6.954
64208SOL    HW294522   6.411   0.427   6.985
64209SOL     OW94523   4.850  13.892  13.344
64209SOL    HW194524   4.864  13.895  13.249
64209SOL    HW294525   4.755  13.886  13.354
64210SOL     OW94526  11.298   4.459  13.682
64210SOL    HW194527  11.282   4.526  13.747
64210SOL    HW294528  11.318   4.507  13.602
64211SOL     OW94529   9.644   3.694  10.059
64211SOL    HW194530   9.627   3.671   9.968
64211SOL    HW294531   9.560   3.726  10.092
64212SOL     OW94532   9.714  12.072  11.566
64212SOL    HW194533   9.755  12.017  11.499
64212SOL    HW294534   9.785  12.130  11.596
64213SOL     OW94535   6.989   7.422   9.229
64213SOL    HW194536   6.926   7.362   9.191
64213SOL    HW294537   7.010   7.384   9.315
64214SOL     OW94538  14.014   1.420  11.421
64214SOL    HW194539  13.976   1.475  11.352
64214SOL    HW294540  13.974   1.334  11.407
64215SOL     OW94541  10.845  13.908   3.955
64215SOL    HW194542  10.814  13.985   4.004
64215SOL    HW294543  10.766  13.870   3.918
64216SOL     OW94544   3.136   9.821   3.867
64216SOL    HW194545   3.199   9.786   3.929
64216SOL    HW294546   3.054   9.776   3.888
64217SOL     OW94547   0.101  12.077   6.703
64217SOL    HW194548   0.082  12.171   6.696
64217SOL    HW294549   0.177  12.073   6.761
64218SOL     OW94550  13.507   9.215   5.883
64218SOL    HW194551  13.501   9.310   5.884
64218SOL    HW294552  13.482   9.189   5.795
64219SOL     OW94553   8.639  14.867   6.612
64219SOL    HW194554   8.623   0.005   6.706
64219SOL    HW294555   8.683  14.783   6.602
64220SOL     OW94556  10.355   1.514   2.757
64220SOL    HW194557  10.280   1.548   2.808
64220SOL    HW294558  10.322   1.434   2.717
64221SOL     OW94559  12.391   6.094   2.403
64221SOL    HW194560  12.481   6.063   2.399
64221SOL    HW294561  12.358   6.083   2.314
64222SOL     OW94562   5.818  14.797   4.828
64222SOL    HW194563   5.828  14.712   4.871
64222SOL    HW294564   5.732  14.828   4.856
64223SOL     OW94565   1.746   3.343   6.883
64223SOL    HW194566   1.786   3.298   6.957
64223SOL    HW294567   1.689   3.277   6.844
64224SOL     OW94568   9.781   8.873   0.928
64224SOL    HW194569   9.790   8.968   0.940
64224SOL    HW294570   9.853   8.836   0.979
64225SOL     OW94571  13.066  10.987   9.950
64225SOL    HW194572  12.983  10.998   9.998
64225SOL    HW294573  13.126  10.953  10.016
64226SOL     OW94574   4.976   4.872   1.905
64226SOL    HW194575   5.058   4.918   1.894
64226SOL    HW294576   5.001   4.788   1.944
64227SOL     OW94577   6.196  13.609  13.401
64227SOL    HW194578   6.127  13.547  13.422
64227SOL    HW294579   6.154  13.695  13.406
64228SOL     OW94580  10.097   8.080   7.245
64228SOL    HW194581  10.090   8.014   7.314
64228SOL    HW294582  10.007   8.111   7.232
64229SOL     OW94583   6.285   7.354   0.675
64229SOL    HW194584   6.320   7.440   0.650
64229SOL    HW294585   6.271   7.360   0.769
64230SOL     OW94586   8.222   0.538   5.485
64230SOL    HW194587   8.270   0.606   5.439
64230SOL    HW294588   8.285   0.465   5.490
64231SOL     OW94589   5.051   4.724   2.334
64231SOL    HW194590   5.062   4.636   2.300
64231SOL    HW294591   5.082   4.720   2.424
64232SOL     OW94592   1.090   9.533  13.864
64232SOL    HW194593   1.152   9.546  13.793
64232SOL    HW294594   1.043   9.616  13.872
64233SOL     OW94595  13.581   7.272  14.721
64233SOL    HW194596  13.626   7.189  14.704
64233SOL    HW294597  13.605   7.328  14.646
64234SOL     OW94598   1.914   2.505   7.783
64234SOL    HW194599   1.986   2.551   7.740
64234SOL    HW294600   1.901   2.552   7.866
64235SOL     OW94601   0.613   5.723   4.648
64235SOL    HW194602   0.561   5.791   4.690
64235SOL    HW294603   0.555   5.684   4.583
64236SOL     OW94604  13.184   3.194  12.970
64236SOL    HW194605  13.156   3.185  12.878
64236SOL    HW294606  13.164   3.109  13.009
64237SOL     OW94607   4.538   6.400   8.902
64237SOL    HW194608   4.509   6.437   8.819
64237SOL    HW294609   4.468   6.422   8.963
64238SOL     OW94610  11.078   7.435  11.052
64238SOL    HW194611  11.078   7.400  11.141
64238SOL    HW294612  11.105   7.527  11.063
64239SOL     OW94613   6.052  10.708   8.944
64239SOL    HW194614   6.118  10.647   8.978
64239SOL    HW294615   6.044  10.774   9.013
64240SOL     OW94616  14.354   8.681  11.012
64240SOL    HW194617  14.445   8.687  10.982
64240SOL    HW294618  14.338   8.765  11.056
64241SOL     OW94619   4.550   6.832   6.655
64241SOL    HW194620   4.607   6.903   6.685
64241SOL    HW294621   4.547   6.843   6.560
64242SOL     OW94622   1.335  11.815   8.234
64242SOL    HW194623   1.413  11.866   8.216
64242SOL    HW294624   1.278  11.874   8.283
64243SOL     OW94625   2.932   8.993   2.575
64243SOL    HW194626   3.004   9.054   2.558
64243SOL    HW294627   2.939   8.928   2.505
64244SOL     OW94628  11.528   6.331  13.792
64244SOL    HW194629  11.528   6.340  13.887
64244SOL    HW294630  11.447   6.284  13.772
64245SOL     OW94631   0.141   8.441  10.194
64245SOL    HW194632   0.133   8.356  10.236
64245SOL    HW294633   0.222   8.478  10.229
64246SOL     OW94634  12.181   3.657  10.410
64246SOL    HW194635  12.209   3.597  10.341
64246SOL    HW294636  12.258   3.669  10.464
64247SOL     OW94637   2.046   6.209  11.482
64247SOL    HW194638   2.022   6.197  11.390
64247SOL    HW294639   2.052   6.120  11.516
64248SOL     OW94640   2.008   6.219  10.907
64248SOL    HW194641   1.964   6.196  10.825
64248SOL    HW294642   1.960   6.295  10.939
64249SOL     OW94643   9.444   7.265   3.032
64249SOL    HW194644   9.393   7.192   2.998
64249SOL    HW294645   9.395   7.343   3.007
64250SOL     OW94646  14.044   3.770   6.760
64250SOL    HW194647  13.992   3.750   6.839
64250SOL    HW294648  14.012   3.856   6.732
64251SOL     OW94649   2.094  11.895  12.040
64251SOL    HW194650   2.131  11.983  12.034
64251SOL    HW294651   2.096  11.862  11.950
64252SOL     OW94652   5.952   9.133   9.696
64252SOL    HW194653   5.941   9.149   9.602
64252SOL    HW294654   5.897   9.199   9.738
64253SOL     OW94655  13.978  11.853   8.773
64253SOL    HW194656  14.053  11.909   8.795
64253SOL    HW294657  14.015  11.765   8.768
64254SOL     OW94658   9.060  14.540  13.690
64254SOL    HW194659   9.005  14.462  13.699
64254SOL    HW294660   9.011  14.609  13.734
64255SOL     OW94661  10.141  10.206  11.769
64255SOL    HW194662  10.088  10.256  11.831
64255SOL    HW294663  10.147  10.262  11.692
64256SOL     OW94664   7.025  13.910   9.281
64256SOL    HW194665   7.035  13.858   9.360
64256SOL    HW294666   7.050  13.999   9.306
64257SOL     OW94667   7.862   9.550  10.374
64257SOL    HW194668   7.853   9.540  10.280
64257SOL    HW294669   7.786   9.504  10.411
64258SOL     OW94670  13.151   6.935  13.549
64258SOL    HW194671  13.217   6.868  13.533
64258SOL    HW294672  13.201   7.016  13.561
64259SOL     OW94673   6.235  13.706  14.707
64259SOL    HW194674   6.204  13.697  14.617
64259SOL    HW294675   6.187  13.781  14.742
64260SOL     OW94676   9.290  12.299   7.853
64260SOL    HW194677   9.358  12.319   7.789
64260SOL    HW294678   9.229  12.241   7.807
64261SOL     OW94679   6.103   7.101   4.872
64261SOL    HW194680   6.111   7.194   4.854
64261SOL    HW294681   6.140   7.090   4.960
64262SOL     OW94682  14.791   8.445  14.102
64262SOL    HW194683   0.015   8.436  14.119
64262SOL    HW294684  14.754   8.361  14.131
64263SOL     OW94685   8.148   1.158   2.620
64263SOL    HW194686   8.206   1.081   2.617
64263SOL    HW294687   8.068   1.130   2.575
64264SOL     OW94688  10.434   8.262   4.036
64264SOL    HW194689  10.422   8.176   3.996
64264SOL    HW294690  10.391   8.323   3.976
64265SOL     OW94691   0.964   1.460  14.249
64265SOL    HW194692   0.939   1.553  14.252
64265SOL    HW294693   0.895   1.416  14.299
64266SOL     OW94694  14.797  13.209  13.978
64266SOL    HW194695  14.819  13.133  13.925
64266SOL    HW294696  14.864  13.212  14.046
64267SOL     OW94697  12.140  13.030   7.911
64267SOL    HW194698  12.168  13.036   8.002
64267SOL    HW294699  12.222  13.021   7.861
64268SOL     OW94700  12.292  11.572   1.649
64268SOL    HW194701  12.204  11.533   1.657
64268SOL    HW294702  12.297  11.634   1.722
64269SOL     OW94703  13.099   7.809   6.497
64269SOL    HW194704  13.135   7.786   6.411
64269SOL    HW294705  13.176   7.836   6.548
64270SOL     OW94706   7.706   2.028   9.141
64270SOL    HW194707   7.791   2.045   9.182
64270SOL    HW294708   7.721   2.043   9.047
64271SOL     OW94709  11.438  14.287  10.462
64271SOL    HW194710  11.359  14.319  10.506
64271SOL    HW294711  11.422  14.304  10.369
64272SOL     OW94712   0.992  11.870   3.295
64272SOL    HW194713   1.061  11.872   3.362
64272SOL    HW294714   0.976  11.962   3.275
64273SOL     OW94715   7.262  12.854  10.004
64273SOL    HW194716   7.187  12.819  10.053
64273SOL    HW294717   7.315  12.899  10.071
64274SOL     OW94718   0.555  10.749   8.557
64274SOL    HW194719   0.520  10.660   8.548
64274SOL    HW294720   0.496  10.804   8.507
64275SOL     OW94721   2.413  13.873  10.442
64275SOL    HW194722   2.399  13.954  10.393
64275SOL    HW294723   2.428  13.902  10.532
64276SOL     OW94724   2.697   0.991   8.179
64276SOL    HW194725   2.688   1.065   8.120
64276SOL    HW294726   2.686   0.914   8.124
64277SOL     OW94727   1.508   9.300   3.896
64277SOL    HW194728   1.580   9.255   3.940
64277SOL    HW294729   1.430   9.275   3.947
64278SOL     OW94730   2.929  10.498   9.120
64278SOL    HW194731   3.014  10.540   9.111
64278SOL    HW294732   2.943  10.408   9.089
64279SOL     OW94733   5.248   2.364   3.528
64279SOL    HW194734   5.304   2.316   3.466
64279SOL    HW294735   5.224   2.444   3.481
64280SOL     OW94736   2.133  10.895  10.562
64280SOL    HW194737   2.162  10.813  10.603
64280SOL    HW294738   2.214  10.938  10.533
64281SOL     OW94739   2.353   8.799   5.956
64281SOL    HW194740   2.352   8.865   6.026
64281SOL    HW294741   2.305   8.725   5.993
64282SOL     OW94742   8.549   2.418  14.332
64282SOL    HW194743   8.608   2.477  14.377
64282SOL    HW294744   8.593   2.398  14.249
64283SOL     OW94745   3.871   5.012  14.013
64283SOL    HW194746   3.876   5.085  14.074
64283SOL    HW294747   3.928   4.945  14.050
64284SOL     OW94748   9.174   9.086  12.436
64284SOL    HW194749   9.154   9.143  12.362
64284SOL    HW294750   9.269   9.072  12.430
64285SOL     OW94751   3.082  14.247   9.362
64285SOL    HW194752   3.145  14.186   9.322
64285SOL    HW294753   3.105  14.247   9.455
64286SOL     OW94754   0.046   0.459  11.701
64286SOL    HW194755   0.139   0.437  11.699
64286SOL    HW294756   0.042   0.544  11.744
64287SOL     OW94757  10.578   2.200   8.357
64287SOL    HW194758  10.624   2.270   8.310
64287SOL    HW294759  10.497   2.241   8.387
64288SOL     OW94760   7.231   7.618   9.089
64288SOL    HW194761   7.262   7.579   9.007
64288SOL    HW294762   7.241   7.712   9.077
64289SOL     OW94763  11.478   4.772  10.254
64289SOL    HW194764  11.507   4.751  10.165
64289SOL    HW294765  11.468   4.867  10.254
64290SOL     OW94766  14.386  11.669  12.732
64290SOL    HW194767  14.412  11.696  12.820
64290SOL    HW294768  14.449  11.602  12.708
64291SOL     OW94769   9.348   1.216   2.540
64291SOL    HW194770   9.387   1.139   2.581
64291SOL    HW294771   9.414   1.285   2.549
64292SOL     OW94772   8.262   6.341   7.139
64292SOL    HW194773   8.179   6.292   7.134
64292SOL    HW294774   8.236   6.432   7.150
64293SOL     OW94775   9.594  11.177   2.176
64293SOL    HW194776   9.606  11.270   2.195
64293SOL    HW294777   9.512  11.172   2.127
64294SOL     OW94778   4.568   0.289   0.626
64294SOL    HW194779   4.557   0.336   0.709
64294SOL    HW294780   4.506   0.330   0.567
64295SOL     OW94781   9.917   0.698   9.428
64295SOL    HW194782   9.842   0.707   9.369
64295SOL    HW294783   9.878   0.689   9.515
64296SOL     OW94784  12.022   2.564   7.035
64296SOL    HW194785  11.964   2.639   7.023
64296SOL    HW294786  11.964   2.491   7.058
64297SOL     OW94787   5.600   4.513   5.166
64297SOL    HW194788   5.510   4.532   5.140
64297SOL    HW294789   5.596   4.507   5.262
64298SOL     OW94790  14.864   4.291   4.813
64298SOL    HW194791   0.012   4.209   4.858
64298SOL    HW294792   0.028   4.359   4.871
64299SOL     OW94793   4.130  10.896  12.189
64299SOL    HW194794   4.190  10.825  12.211
64299SOL    HW294795   4.057  10.853  12.144
64300SOL     OW94796   1.180   0.579   5.335
64300SOL    HW194797   1.256   0.629   5.305
64300SOL    HW294798   1.113   0.594   5.269
64301SOL     OW94799  12.382   4.134   0.830
64301SOL    HW194800  12.290   4.160   0.837
64301SOL    HW294801  12.380   4.058   0.772
64302SOL     OW94802   0.751  12.248   1.216
64302SOL    HW194803   0.764  12.340   1.194
64302SOL    HW294804   0.742  12.203   1.131
64303SOL     OW94805   9.444   4.159   0.524
64303SOL    HW194806   9.434   4.134   0.615
64303SOL    HW294807   9.358   4.143   0.484
64304SOL     OW94808  12.311  12.421   1.164
64304SOL    HW194809  12.228  12.410   1.212
64304SOL    HW294810  12.335  12.332   1.137
64305SOL     OW94811  10.139  13.314   6.307
64305SOL    HW194812  10.079  13.276   6.371
64305SOL    HW294813  10.191  13.377   6.358
64306SOL     OW94814  10.264  13.026   7.355
64306SOL    HW194815  10.184  13.070   7.383
64306SOL    HW294816  10.292  12.976   7.432
64307SOL     OW94817  13.910   3.025   4.506
64307SOL    HW194818  13.864   2.996   4.584
64307SOL    HW294819  13.904   2.951   4.446
64308SOL     OW94820   8.473  13.523   2.106
64308SOL    HW194821   8.406  13.535   2.174
64308SOL    HW294822   8.423  13.509   2.026
64309SOL     OW94823  12.225  11.220  14.588
64309SOL    HW194824  12.159  11.279  14.624
64309SOL    HW294825  12.178  11.139  14.570
64310SOL     OW94826   2.370   1.439  11.124
64310SOL    HW194827   2.466   1.439  11.122
64310SOL    HW294828   2.346   1.531  11.131
64311SOL     OW94829   6.066   4.850  13.532
64311SOL    HW194830   5.975   4.873  13.549
64311SOL    HW294831   6.062   4.784  13.462
64312SOL     OW94832   1.765   3.673   4.418
64312SOL    HW194833   1.714   3.742   4.461
64312SOL    HW294834   1.835   3.652   4.480
64313SOL     OW94835   6.791   7.272   3.476
64313SOL    HW194836   6.877   7.239   3.451
64313SOL    HW294837   6.735   7.195   3.479
64314SOL     OW94838   9.607   8.232  13.050
64314SOL    HW194839   9.611   8.145  13.011
64314SOL    HW294840   9.663   8.286  12.994
64315SOL     OW94841   7.359  14.130   1.440
64315SOL    HW194842   7.275  14.085   1.441
64315SOL    HW294843   7.424  14.061   1.429
64316SOL     OW94844   1.635   3.963   5.513
64316SOL    HW194845   1.547   3.927   5.522
64316SOL    HW294846   1.648   4.014   5.593
64317SOL     OW94847  13.437  11.335  11.960
64317SOL    HW194848  13.511  11.396  11.962
64317SOL    HW294849  13.404  11.335  12.049
64318SOL     OW94850   7.952   0.612  14.300
64318SOL    HW194851   8.037   0.586  14.336
64318SOL    HW294852   7.927   0.539  14.244
64319SOL     OW94853   3.904   1.578   4.813
64319SOL    HW194854   3.951   1.638   4.755
64319SOL    HW294855   3.851   1.636   4.869
64320SOL     OW94856  10.716   4.240   2.445
64320SOL    HW194857  10.699   4.147   2.430
64320SOL    HW294858  10.706   4.251   2.539
64321SOL     OW94859   0.485  10.656  13.564
64321SOL    HW194860   0.417  10.669  13.630
64321SOL    HW294861   0.456  10.579  13.514
64322SOL     OW94862   8.971   2.383   1.875
64322SOL    HW194863   8.922   2.393   1.957
64322SOL    HW294864   8.906   2.399   1.807
64323SOL     OW94865  12.287  14.061   2.455
64323SOL    HW194866  12.267  13.991   2.517
64323SOL    HW294867  12.378  14.085   2.474
64324SOL     OW94868  13.601   3.284   8.355
64324SOL    HW194869  13.548   3.222   8.404
64324SOL    HW294870  13.658   3.325   8.421
64325SOL     OW94871   7.737  10.132   0.321
64325SOL    HW194872   7.759  10.075   0.247
64325SOL    HW294873   7.728  10.073   0.395
64326SOL     OW94874   9.469   9.502   3.607
64326SOL    HW194875   9.412   9.571   3.574
64326SOL    HW294876   9.533   9.489   3.537
64327SOL     OW94877   2.740   4.637  11.331
64327SOL    HW194878   2.733   4.729  11.304
64327SOL    HW294879   2.785   4.640  11.415
64328SOL     OW94880   0.899   9.136  11.838
64328SOL    HW194881   0.949   9.070  11.885
64328SOL    HW294882   0.915   9.117  11.745
64329SOL     OW94883  10.072   9.522  13.533
64329SOL    HW194884  10.018   9.519  13.455
64329SOL    HW294885  10.103   9.431  13.544
64330SOL     OW94886  13.023  13.288   6.263
64330SOL    HW194887  13.070  13.371   6.267
64330SOL    HW294888  13.060  13.236   6.335
64331SOL     OW94889   8.069   6.663   7.074
64331SOL    HW194890   8.057   6.605   6.999
64331SOL    HW294891   8.006   6.632   7.139
64332SOL     OW94892   4.691   9.420  11.169
64332SOL    HW194893   4.746   9.471  11.109
64332SOL    HW294894   4.655   9.350  11.114
64333SOL     OW94895   0.422   5.100   8.148
64333SOL    HW194896   0.451   5.096   8.057
64333SOL    HW294897   0.458   5.022   8.189
64334SOL     OW94898   4.443   5.036   6.632
64334SOL    HW194899   4.367   5.089   6.606
64334SOL    HW294900   4.519   5.086   6.599
64335SOL     OW94901   0.284   4.994  14.539
64335SOL    HW194902   0.261   5.081  14.505
64335SOL    HW294903   0.373   5.004  14.572
64336SOL     OW94904   0.556  14.533   7.175
64336SOL    HW194905   0.599  14.540   7.090
64336SOL    HW294906   0.462  14.530   7.154
64337SOL     OW94907   3.279  11.988   1.200
64337SOL    HW194908   3.355  11.965   1.147
64337SOL    HW294909   3.309  11.982   1.291
64338SOL     OW94910   4.285   5.428   4.586
64338SOL    HW194911   4.258   5.471   4.667
64338SOL    HW294912   4.354   5.484   4.551
64339SOL     OW94913   9.788   9.289  14.523
64339SOL    HW194914   9.845   9.343  14.467
64339SOL    HW294915   9.783   9.338  14.605
64340SOL     OW94916   0.360  12.949   4.279
64340SOL    HW194917   0.329  12.976   4.192
64340SOL    HW294918   0.302  12.877   4.303
64341SOL     OW94919   0.187   7.587  11.201
64341SOL    HW194920   0.117   7.590  11.135
64341SOL    HW294921   0.144   7.553  11.280
64342SOL     OW94922  11.233   4.417  12.661
64342SOL    HW194923  11.235   4.429  12.756
64342SOL    HW294924  11.177   4.488  12.629
64343SOL     OW94925   2.558  10.098   7.964
64343SOL    HW194926   2.620  10.170   7.976
64343SOL    HW294927   2.614  10.021   7.946
64344SOL     OW94928  11.902   3.199   0.240
64344SOL    HW194929  11.823   3.157   0.274
64344SOL    HW294930  11.908   3.169   0.149
64345SOL     OW94931  11.544   2.441   7.214
64345SOL    HW194932  11.475   2.436   7.281
64345SOL    HW294933  11.497   2.440   7.131
64346SOL     OW94934   9.923   9.477  14.345
64346SOL    HW194935   9.888   9.498  14.258
64346SOL    HW294936   9.931   9.561  14.389
64347SOL     OW94937  11.162   7.752  11.436
64347SOL    HW194938  11.241   7.798  11.465
64347SOL    HW294939  11.111   7.819  11.391
64348SOL     OW94940  13.513  12.017   8.688
64348SOL    HW194941  13.595  12.065   8.680
64348SOL    HW294942  13.511  11.958   8.612
64349SOL     OW94943  10.039   6.952  10.725
64349SOL    HW194944  10.071   6.865  10.750
64349SOL    HW294945  10.056   6.957  10.631
64350SOL     OW94946   7.016   8.099   0.854
64350SOL    HW194947   7.079   8.171   0.851
64350SOL    HW294948   6.956   8.117   0.782
64351SOL     OW94949   1.511   7.770   3.377
64351SOL    HW194950   1.560   7.803   3.453
64351SOL    HW294951   1.578   7.732   3.321
64352SOL     OW94952   1.473   7.140   9.367
64352SOL    HW194953   1.558   7.132   9.411
64352SOL    HW294954   1.490   7.110   9.278
64353SOL     OW94955   2.267  13.661   5.952
64353SOL    HW194956   2.241  13.641   6.042
64353SOL    HW294957   2.362  13.658   5.953
64354SOL     OW94958   3.680   2.611  11.704
64354SOL    HW194959   3.769   2.582  11.722
64354SOL    HW294960   3.626   2.566  11.769
64355SOL     OW94961   0.156  11.812   2.755
64355SOL    HW194962   0.113  11.821   2.670
64355SOL    HW294963   0.201  11.728   2.750
64356SOL     OW94964   3.849  11.830   0.364
64356SOL    HW194965   3.849  11.916   0.321
64356SOL    HW294966   3.821  11.770   0.295
64357SOL     OW94967   5.815   7.294  14.673
64357SOL    HW194968   5.903   7.256  14.674
64357SOL    HW294969   5.764   7.236  14.616
64358SOL     OW94970   9.685   4.775  10.024
64358SOL    HW194971   9.757   4.718   9.999
64358SOL    HW294972   9.606   4.721  10.012
64359SOL     OW94973   1.328   6.339   8.157
64359SOL    HW194974   1.236   6.353   8.180
64359SOL    HW294975   1.348   6.253   8.193
64360SOL     OW94976   8.006  14.703  13.556
64360SOL    HW194977   7.993  14.715  13.462
64360SOL    HW294978   8.059  14.778  13.583
64361SOL     OW94979  14.855  10.621   8.909
64361SOL    HW194980   0.064  10.628   8.855
64361SOL    HW294981  14.790  10.674   8.862
64362SOL     OW94982   2.824   6.576   6.001
64362SOL    HW194983   2.878   6.619   6.067
64362SOL    HW294984   2.790   6.647   5.947
64363SOL     OW94985   3.733   3.469  10.120
64363SOL    HW194986   3.726   3.526  10.196
64363SOL    HW294987   3.749   3.529  10.047
64364SOL     OW94988   5.112  11.523  13.519
64364SOL    HW194989   5.034  11.560  13.561
64364SOL    HW294990   5.140  11.591  13.457
64365SOL     OW94991   4.386   1.374   2.637
64365SOL    HW194992   4.448   1.310   2.602
64365SOL    HW294993   4.337   1.403   2.560
64366SOL     OW94994   7.560   0.123   7.886
64366SOL    HW194995   7.507   0.146   7.810
64366SOL    HW294996   7.640   0.086   7.850
64367SOL     OW94997   8.867   3.406  11.588
64367SOL    HW194998   8.961   3.409  11.568
64367SOL    HW294999   8.857   3.460  11.666
64368SOL     OW95000   0.988  11.231   5.186
64368SOL    HW195001   0.988  11.135   5.181
64368SOL    HW295002   1.081  11.255   5.178
64369SOL     OW95003   7.537   1.342   7.849
64369SOL    HW195004   7.626   1.311   7.834
64369SOL    HW295005   7.487   1.309   7.774
64370SOL     OW95006   2.932   5.341   4.282
64370SOL    HW195007   2.935   5.248   4.258
64370SOL    HW295008   3.009   5.353   4.339
64371SOL     OW95009   4.780  14.273   8.899
64371SOL    HW195010   4.780  14.245   8.808
64371SOL    HW295011   4.872  14.285   8.921
64372SOL     OW95012   7.171  12.361   9.279
64372SOL    HW195013   7.193  12.269   9.266
64372SOL    HW295014   7.254  12.402   9.304
64373SOL     OW95015   3.499  14.246  12.197
64373SOL    HW195016   3.507  14.216  12.106
64373SOL    HW295017   3.449  14.328  12.190
64374SOL     OW95018  13.281   0.547   6.029
64374SOL    HW195019  13.232   0.485   6.082
64374SOL    HW295020  13.214   0.596   5.981
64375SOL     OW95021   7.097  13.420  12.593
64375SOL    HW195022   7.021  13.474  12.616
64375SOL    HW295023   7.089  13.408  12.498
64376SOL     OW95024   0.833   7.687   2.141
64376SOL    HW195025   0.767   7.682   2.071
64376SOL    HW295026   0.830   7.778   2.170
64377SOL     OW95027   6.446   6.797   3.162
64377SOL    HW195028   6.442   6.748   3.245
64377SOL    HW295029   6.430   6.888   3.187
64378SOL     OW95030   4.548  10.864  12.756
64378SOL    HW195031   4.528  10.830  12.669
64378SOL    HW295032   4.610  10.935  12.741
64379SOL     OW95033  11.286   3.452   7.597
64379SOL    HW195034  11.258   3.458   7.689
64379SOL    HW295035  11.205   3.460   7.547
64380SOL     OW95036  10.541  14.712  11.608
64380SOL    HW195037  10.472  14.647  11.592
64380SOL    HW295038  10.533  14.733  11.701
64381SOL     OW95039  14.856   5.973   4.379
64381SOL    HW195040   0.066   5.996   4.331
64381SOL    HW295041  14.826   6.056   4.416
64382SOL     OW95042   7.729   1.325   5.793
64382SOL    HW195043   7.729   1.242   5.744
64382SOL    HW295044   7.768   1.303   5.877
64383SOL     OW95045   2.820  11.602   9.948
64383SOL    HW195046   2.838  11.509   9.931
64383SOL    HW295047   2.744  11.622   9.892
64384SOL     OW95048  11.375  12.971   0.801
64384SOL    HW195049  11.388  12.995   0.893
64384SOL    HW295050  11.287  12.935   0.797
64385SOL     OW95051   2.221   4.670  12.286
64385SOL    HW195052   2.297   4.615  12.269
64385SOL    HW295053   2.208   4.720  12.205
64386SOL     OW95054   0.316   2.436  14.375
64386SOL    HW195055   0.294   2.384  14.299
64386SOL    HW295056   0.236   2.484  14.396
64387SOL     OW95057   3.622  10.079   3.578
64387SOL    HW195058   3.594  10.133   3.652
64387SOL    HW295059   3.561  10.005   3.578
64388SOL     OW95060   0.990  11.857  12.836
64388SOL    HW195061   0.895  11.855  12.835
64388SOL    HW295062   1.013  11.887  12.924
64389SOL     OW95063   6.897   5.965  12.552
64389SOL    HW195064   6.869   6.015  12.475
64389SOL    HW295065   6.976   5.919  12.523
64390SOL     OW95066   4.830   8.299  13.698
64390SOL    HW195067   4.919   8.266  13.690
64390SOL    HW295068   4.809   8.332  13.611
64391SOL     OW95069  10.648   4.850   8.714
64391SOL    HW195070  10.606   4.766   8.732
64391SOL    HW295071  10.739   4.837   8.741
64392SOL     OW95072  12.345   0.528  12.393
64392SOL    HW195073  12.316   0.565  12.475
64392SOL    HW295074  12.418   0.584  12.365
64393SOL     OW95075   7.851   8.646   6.504
64393SOL    HW195076   7.785   8.594   6.549
64393SOL    HW295077   7.933   8.600   6.519
64394SOL     OW95078   0.625  11.096   0.889
64394SOL    HW195079   0.545  11.044   0.881
64394SOL    HW295080   0.635  11.111   0.983
64395SOL     OW95081   9.770   0.061   7.013
64395SOL    HW195082   9.741   0.006   7.086
64395SOL    HW295083   9.758   0.005   6.936
64396SOL     OW95084   7.877   3.711   8.870
64396SOL    HW195085   7.959   3.661   8.870
64396SOL    HW295086   7.810   3.645   8.849
64397SOL     OW95087  10.204   8.682   6.235
64397SOL    HW195088  10.250   8.741   6.294
64397SOL    HW295089  10.144   8.738   6.186
64398SOL     OW95090  11.885   9.664  11.583
64398SOL    HW195091  11.975   9.696  11.594
64398SOL    HW295092  11.850   9.659  11.671
64399SOL     OW95093   8.023  14.016   1.746
64399SOL    HW195094   7.998  14.102   1.712
64399SOL    HW295095   8.094  13.987   1.689
64400SOL     OW95096   4.794   2.634  11.795
64400SOL    HW195097   4.861   2.698  11.819
64400SOL    HW295098   4.800   2.629  11.700
64401SOL     OW95099   9.443   0.498  12.120
64401SOL    HW195100   9.354   0.471  12.143
64401SOL    HW295101   9.481   0.527  12.203
64402SOL     OW95102   9.903   9.070   1.526
64402SOL    HW195103   9.938   9.095   1.441
64402SOL    HW295104   9.913   9.149   1.580
64403SOL     OW95105   4.138   7.589  13.488
64403SOL    HW195106   4.100   7.666  13.529
64403SOL    HW295107   4.112   7.516  13.545
64404SOL     OW95108   7.905  11.608  13.350
64404SOL    HW195109   7.868  11.621  13.262
64404SOL    HW295110   7.842  11.552  13.395
64405SOL     OW95111  11.228  10.165   7.884
64405SOL    HW195112  11.200  10.149   7.794
64405SOL    HW295113  11.177  10.102   7.936
64406SOL     OW95114   8.024  12.806   7.092
64406SOL    HW195115   7.989  12.719   7.075
64406SOL    HW295116   8.083  12.822   7.017
64407SOL     OW95117  11.765   1.193   9.234
64407SOL    HW195118  11.840   1.208   9.176
64407SOL    HW295119  11.718   1.121   9.193
64408SOL     OW95120  14.334  13.656   4.295
64408SOL    HW195121  14.418  13.691   4.265
64408SOL    HW295122  14.283  13.645   4.215
64409SOL     OW95123   1.468  11.414   0.117
64409SOL    HW195124   1.483  11.506   0.138
64409SOL    HW295125   1.403  11.416   0.047
64410SOL     OW95126   7.759   7.643  13.978
64410SOL    HW195127   7.771   7.712  14.043
64410SOL    HW295128   7.768   7.562  14.027
64411SOL     OW95129   7.208   6.505  13.428
64411SOL    HW195130   7.241   6.550  13.506
64411SOL    HW295131   7.279   6.447  13.401
64412SOL     OW95132  11.922   4.067   1.458
64412SOL    HW195133  11.962   4.149   1.487
64412SOL    HW295134  11.950   4.058   1.367
64413SOL     OW95135   3.996  11.331  11.093
64413SOL    HW195136   4.011  11.381  11.014
64413SOL    HW295137   3.952  11.391  11.153
64414SOL     OW95138   9.653   8.599  13.617
64414SOL    HW195139   9.670   8.693  13.608
64414SOL    HW295140   9.558   8.592  13.612
64415SOL     OW95141   9.762   7.837  11.603
64415SOL    HW195142   9.698   7.812  11.671
64415SOL    HW295143   9.716   7.823  11.521
64416SOL     OW95144   9.218   9.257   9.915
64416SOL    HW195145   9.275   9.332   9.899
64416SOL    HW295146   9.174   9.278   9.997
64417SOL     OW95147   1.237   3.219   6.580
64417SOL    HW195148   1.269   3.291   6.635
64417SOL    HW295149   1.261   3.245   6.491
64418SOL     OW95150   5.047   0.280  10.589
64418SOL    HW195151   5.111   0.315  10.650
64418SOL    HW295152   4.993   0.220  10.642
64419SOL     OW95153   8.863  11.725   0.412
64419SOL    HW195154   8.901  11.690   0.331
64419SOL    HW295155   8.859  11.820   0.397
64420SOL     OW95156   2.277   9.294   1.789
64420SOL    HW195157   2.355   9.246   1.817
64420SOL    HW295158   2.271   9.368   1.850
64421SOL     OW95159   6.768   5.524  10.189
64421SOL    HW195160   6.701   5.460  10.214
64421SOL    HW295161   6.732   5.608  10.216
64422SOL     OW95162   5.946   3.446   1.895
64422SOL    HW195163   5.946   3.533   1.936
64422SOL    HW295164   6.012   3.397   1.943
64423SOL     OW95165   4.124   2.991  11.373
64423SOL    HW195166   4.216   3.015  11.365
64423SOL    HW295167   4.096   2.974  11.283
64424SOL     OW95168  10.401   4.489   4.290
64424SOL    HW195169  10.316   4.534   4.298
64424SOL    HW295170  10.466   4.558   4.298
64425SOL     OW95171   2.450   6.768  11.365
64425SOL    HW195172   2.461   6.674  11.378
64425SOL    HW295173   2.373   6.775  11.309
64426SOL     OW95174  11.013  13.412   8.807
64426SOL    HW195175  11.006  13.354   8.732
64426SOL    HW295176  10.924  13.420   8.841
64427SOL     OW95177  14.218  14.183   9.482
64427SOL    HW195178  14.246  14.121   9.549
64427SOL    HW295179  14.299  14.215   9.443
64428SOL     OW95180   4.820  12.743   9.534
64428SOL    HW195181   4.808  12.800   9.458
64428SOL    HW295182   4.835  12.656   9.496
64429SOL     OW95183   0.985  12.125  10.738
64429SOL    HW195184   1.011  12.122  10.646
64429SOL    HW295185   1.001  12.216  10.764
64430SOL     OW95186  13.575  13.373   5.958
64430SOL    HW195187  13.489  13.357   5.997
64430SOL    HW295188  13.632  13.392   6.033
64431SOL     OW95189   0.946   3.121  13.338
64431SOL    HW195190   0.919   3.066  13.265
64431SOL    HW295191   0.864   3.155  13.374
64432SOL     OW95192   8.458   3.769  12.486
64432SOL    HW195193   8.548   3.737  12.495
64432SOL    HW295194   8.436   3.803  12.573
64433SOL     OW95195  10.282   1.125  11.326
64433SOL    HW195196  10.331   1.198  11.364
64433SOL    HW295197  10.301   1.130  11.232
64434SOL     OW95198   2.794   9.952  14.155
64434SOL    HW195199   2.838   9.964  14.071
64434SOL    HW295200   2.712  10.000  14.147
64435SOL     OW95201   3.202   9.728  10.226
64435SOL    HW195202   3.107   9.715  10.229
64435SOL    HW295203   3.222   9.738  10.133
64436SOL     OW95204  11.515   7.785  10.182
64436SOL    HW195205  11.545   7.791  10.272
64436SOL    HW295206  11.429   7.827  10.182
64437SOL     OW95207   4.917  11.782  10.252
64437SOL    HW195208   4.978  11.819  10.316
64437SOL    HW295209   4.843  11.751  10.304
64438SOL     OW95210   7.506   7.891   2.523
64438SOL    HW195211   7.478   7.973   2.481
64438SOL    HW295212   7.452   7.824   2.482
64439SOL     OW95213   0.778   0.339   4.953
64439SOL    HW195214   0.737   0.380   4.876
64439SOL    HW295215   0.809   0.254   4.921
64440SOL     OW95216   6.049   3.374   3.146
64440SOL    HW195217   6.018   3.435   3.079
64440SOL    HW295218   5.976   3.314   3.160
64441SOL     OW95219   8.854   9.557  11.721
64441SOL    HW195220   8.901   9.527  11.643
64441SOL    HW295221   8.802   9.632  11.691
64442SOL     OW95222  12.568   7.296  14.827
64442SOL    HW195223  12.644   7.342  14.791
64442SOL    HW295224  12.493   7.338  14.785
64443SOL     OW95225   0.481   5.753  13.270
64443SOL    HW195226   0.519   5.679  13.222
64443SOL    HW295227   0.556   5.807  13.295
64444SOL     OW95228   5.199   1.144   4.500
64444SOL    HW195229   5.250   1.082   4.550
64444SOL    HW295230   5.247   1.155   4.418
64445SOL     OW95231   3.377   7.340  10.950
64445SOL    HW195232   3.301   7.337  10.891
64445SOL    HW295233   3.385   7.251  10.984
64446SOL     OW95234  10.271   2.321   2.278
64446SOL    HW195235  10.329   2.290   2.347
64446SOL    HW295236  10.189   2.344   2.323
64447SOL     OW95237   6.368   9.975   8.498
64447SOL    HW195238   6.459   9.949   8.509
64447SOL    HW295239   6.356   9.982   8.404
64448SOL     OW95240   0.683  11.982  11.981
64448SOL    HW195241   0.651  11.904  12.026
64448SOL    HW295242   0.752  12.016  12.037
64449SOL     OW95243  13.058  10.101   2.515
64449SOL    HW195244  13.049  10.177   2.574
64449SOL    HW295245  13.058  10.025   2.574
64450SOL     OW95246   0.203   6.385  11.587
64450SOL    HW195247   0.162   6.339  11.661
64450SOL    HW295248   0.136   6.386  11.519
64451SOL     OW95249   2.703   2.701   7.567
64451SOL    HW195250   2.793   2.710   7.534
64451SOL    HW295251   2.712   2.642   7.642
64452SOL     OW95252   2.721   2.919  13.553
64452SOL    HW195253   2.760   2.951  13.634
64452SOL    HW295254   2.697   2.828  13.572
64453SOL     OW95255  12.613   1.651  10.067
64453SOL    HW195256  12.550   1.632   9.997
64453SOL    HW295257  12.634   1.744  10.056
64454SOL     OW95258   3.255   6.969   6.584
64454SOL    HW195259   3.281   6.880   6.561
64454SOL    HW295260   3.272   6.976   6.678
64455SOL     OW95261   9.087  11.391  13.067
64455SOL    HW195262   8.992  11.386  13.072
64455SOL    HW295263   9.118  11.305  13.096
64456SOL     OW95264  11.788  13.238   2.209
64456SOL    HW195265  11.831  13.237   2.295
64456SOL    HW295266  11.715  13.298   2.220
64457SOL     OW95267   3.410   3.098   0.839
64457SOL    HW195268   3.357   3.113   0.918
64457SOL    HW295269   3.434   3.006   0.844
64458SOL     OW95270   5.061  14.614   2.227
64458SOL    HW195271   5.154  14.635   2.233
64458SOL    HW295272   5.032  14.605   2.318
64459SOL     OW95273   4.316  10.632   3.588
64459SOL    HW195274   4.354  10.551   3.621
64459SOL    HW295275   4.281  10.610   3.502
64460SOL     OW95276   0.373   0.092   8.678
64460SOL    HW195277   0.282   0.064   8.666
64460SOL    HW295278   0.374   0.131   8.765
64461SOL     OW95279   5.569   2.876   0.208
64461SOL    HW195280   5.527   2.957   0.236
64461SOL    HW295281   5.633   2.856   0.277
64462SOL     OW95282   9.446  14.330   3.384
64462SOL    HW195283   9.474  14.265   3.318
64462SOL    HW295284   9.460  14.286   3.468
64463SOL     OW95285   9.621  10.454   4.835
64463SOL    HW195286   9.695  10.439   4.776
64463SOL    HW295287   9.631  10.387   4.903
64464SOL     OW95288   2.838   2.086   1.578
64464SOL    HW195289   2.889   2.010   1.550
64464SOL    HW295290   2.876   2.110   1.663
64465SOL     OW95291  10.525   8.008   1.599
64465SOL    HW195292  10.579   8.016   1.678
64465SOL    HW295293  10.588   8.001   1.527
64466SOL     OW95294   4.909   0.457  13.081
64466SOL    HW195295   4.815   0.456  13.063
64466SOL    HW295296   4.949   0.476  12.997
64467SOL     OW95297   3.150   7.558   0.936
64467SOL    HW195298   3.079   7.506   0.973
64467SOL    HW295299   3.165   7.520   0.849
64468SOL     OW95300   6.242  12.809   0.394
64468SOL    HW195301   6.234  12.715   0.377
64468SOL    HW295302   6.333  12.829   0.375
64469SOL     OW95303   5.771  12.288  13.533
64469SOL    HW195304   5.802  12.359  13.477
64469SOL    HW295305   5.786  12.209  13.481
64470SOL     OW95306  13.117   1.893   2.217
64470SOL    HW195307  13.108   1.974   2.167
64470SOL    HW295308  13.208   1.893   2.247
64471SOL     OW95309  11.034  12.776   4.753
64471SOL    HW195310  10.983  12.722   4.692
64471SOL    HW295311  11.103  12.717   4.784
64472SOL     OW95312   7.296   1.391   1.485
64472SOL    HW195313   7.386   1.409   1.513
64472SOL    HW295314   7.306   1.344   1.403
64473SOL     OW95315   3.346  11.368   0.943
64473SOL    HW195316   3.339  11.285   0.990
64473SOL    HW295317   3.362  11.433   1.011
64474SOL     OW95318  14.534  10.962   3.842
64474SOL    HW195319  14.629  10.962   3.826
64474SOL    HW295320  14.522  10.901   3.915
64475SOL     OW95321   5.297   0.550   2.722
64475SOL    HW195322   5.202   0.563   2.733
64475SOL    HW295323   5.324   0.622   2.666
64476SOL     OW95324  12.899   7.946   2.130
64476SOL    HW195325  12.871   7.970   2.041
64476SOL    HW295326  12.847   7.869   2.152
64477SOL     OW95327   8.129   6.766  10.359
64477SOL    HW195328   8.072   6.834  10.324
64477SOL    HW295329   8.165   6.804  10.439
64478SOL     OW95330  14.565   7.216   6.290
64478SOL    HW195331  14.496   7.257   6.342
64478SOL    HW295332  14.588   7.282   6.224
64479SOL     OW95333  13.166  13.376  10.969
64479SOL    HW195334  13.183  13.366  11.063
64479SOL    HW295335  13.071  13.383  10.962
64480SOL     OW95336  10.550   1.357   6.244
64480SOL    HW195337  10.477   1.295   6.245
64480SOL    HW295338  10.516   1.432   6.195
64481SOL     OW95339   5.838   9.690  12.600
64481SOL    HW195340   5.876   9.691  12.513
64481SOL    HW295341   5.878   9.764  12.645
64482SOL     OW95342   9.459  10.504   7.113
64482SOL    HW195343   9.374  10.471   7.083
64482SOL    HW295344   9.458  10.597   7.091
64483SOL     OW95345   3.196  10.372   4.752
64483SOL    HW195346   3.225  10.317   4.825
64483SOL    HW295347   3.267  10.367   4.688
64484SOL     OW95348  13.142   2.165   6.694
64484SOL    HW195349  13.140   2.247   6.643
64484SOL    HW295350  13.057   2.125   6.677
64485SOL     OW95351   0.925   4.181   3.951
64485SOL    HW195352   0.857   4.151   3.891
64485SOL    HW295353   0.901   4.143   4.036
64486SOL     OW95354   3.558  10.228  10.603
64486SOL    HW195355   3.567  10.132  10.606
64486SOL    HW295356   3.464  10.243  10.615
64487SOL     OW95357   6.900  11.885   5.028
64487SOL    HW195358   6.986  11.872   4.988
64487SOL    HW295359   6.871  11.970   4.993
64488SOL     OW95360   5.994   6.393  12.933
64488SOL    HW195361   5.918   6.336  12.944
64488SOL    HW295362   6.032   6.399  13.020
64489SOL     OW95363   8.828   0.279   3.140
64489SOL    HW195364   8.895   0.217   3.113
64489SOL    HW295365   8.766   0.281   3.066
64490SOL     OW95366   1.335   9.965  14.476
64490SOL    HW195367   1.402   9.929  14.535
64490SOL    HW295368   1.380  10.035  14.429
64491SOL     OW95369   8.012   4.545   5.388
64491SOL    HW195370   8.065   4.624   5.376
64491SOL    HW295371   7.986   4.520   5.299
64492SOL     OW95372   1.030   6.810  10.187
64492SOL    HW195373   0.962   6.779  10.246
64492SOL    HW295374   0.984   6.867  10.125
64493SOL     OW95375  10.294   3.509   0.872
64493SOL    HW195376  10.381   3.493   0.908
64493SOL    HW295377  10.252   3.423   0.872
64494SOL     OW95378  10.696   4.466  10.271
64494SOL    HW195379  10.770   4.471  10.211
64494SOL    HW295380  10.731   4.419  10.347
64495SOL     OW95381  10.766   3.801   3.449
64495SOL    HW195382  10.711   3.760   3.382
64495SOL    HW295383  10.840   3.741   3.459
64496SOL     OW95384   2.141   7.325   8.475
64496SOL    HW195385   2.232   7.342   8.451
64496SOL    HW295386   2.093   7.399   8.439
64497SOL     OW95387  12.558   2.191   6.288
64497SOL    HW195388  12.625   2.225   6.229
64497SOL    HW295389  12.570   2.241   6.369
64498SOL     OW95390   8.090   3.247   4.352
64498SOL    HW195391   8.136   3.164   4.350
64498SOL    HW295392   8.044   3.247   4.436
64499SOL     OW95393   3.892   8.966  12.465
64499SOL    HW195394   3.893   8.895  12.529
64499SOL    HW295395   3.897   8.922  12.380
64500SOL     OW95396   3.683   9.703   5.690
64500SOL    HW195397   3.725   9.676   5.771
64500SOL    HW295398   3.755   9.708   5.627
64501SOL     OW95399   9.231   3.897   3.895
64501SOL    HW195400   9.324   3.890   3.917
64501SOL    HW295401   9.197   3.809   3.904
64502SOL     OW95402  11.427   5.053   9.408
64502SOL    HW195403  11.448   5.090   9.322
64502SOL    HW295404  11.386   5.125   9.456
64503SOL     OW95405  11.281   9.688  11.404
64503SOL    HW195406  11.217   9.733  11.350
64503SOL    HW295407  11.366   9.716  11.370
64504SOL     OW95408  11.584   6.685  12.285
64504SOL    HW195409  11.624   6.670  12.199
64504SOL    HW295410  11.578   6.781  12.292
64505SOL     OW95411  11.850   2.856  12.553
64505SOL    HW195412  11.867   2.793  12.483
64505SOL    HW295413  11.874   2.810  12.634
64506SOL     OW95414   7.849   6.449  10.509
64506SOL    HW195415   7.767   6.494  10.527
64506SOL    HW295416   7.823   6.368  10.465
64507SOL     OW95417  10.506   2.261  12.068
64507SOL    HW195418  10.411   2.252  12.061
64507SOL    HW295419  10.519   2.346  12.110
64508SOL     OW95420  12.131   1.236   2.660
64508SOL    HW195421  12.047   1.227   2.615
64508SOL    HW295422  12.195   1.204   2.597
64509SOL     OW95423   1.836   5.056   3.652
64509SOL    HW195424   1.849   5.063   3.557
64509SOL    HW295425   1.819   4.963   3.668
64510SOL     OW95426   7.277   6.768   8.981
64510SOL    HW195427   7.362   6.732   8.954
64510SOL    HW295428   7.224   6.766   8.902
64511SOL     OW95429  12.547   6.336   5.353
64511SOL    HW195430  12.593   6.358   5.434
64511SOL    HW295431  12.479   6.274   5.379
64512SOL     OW95432   5.391   1.350  13.027
64512SOL    HW195433   5.303   1.313  13.031
64512SOL    HW295434   5.430   1.329  13.112
64513SOL     OW95435   3.550  13.488   2.183
64513SOL    HW195436   3.575  13.439   2.262
64513SOL    HW295437   3.586  13.436   2.111
64514SOL     OW95438  11.496   6.351  11.262
64514SOL    HW195439  11.514   6.435  11.304
64514SOL    HW295440  11.576   6.300  11.276
64515SOL     OW95441   4.752  11.866   1.082
64515SOL    HW195442   4.691  11.918   1.133
64515SOL    HW295443   4.838  11.900   1.105
64516SOL     OW95444   7.744   6.565   0.453
64516SOL    HW195445   7.683   6.522   0.513
64516SOL    HW295446   7.715   6.539   0.366
64517SOL     OW95447  10.423   5.804   1.484
64517SOL    HW195448  10.407   5.878   1.426
64517SOL    HW295449  10.513   5.816   1.513
64518SOL     OW95450   4.511   3.876   3.486
64518SOL    HW195451   4.441   3.866   3.551
64518SOL    HW295452   4.535   3.786   3.463
64519SOL     OW95453   9.808   8.213  10.682
64519SOL    HW195454   9.714   8.198  10.693
64519SOL    HW295455   9.814   8.292  10.628
64520SOL     OW95456  10.264   1.109   9.457
64520SOL    HW195457  10.318   1.032   9.437
64520SOL    HW295458  10.196   1.108   9.389
64521SOL     OW95459  13.329  13.572   5.091
64521SOL    HW195460  13.350  13.564   5.184
64521SOL    HW295461  13.296  13.486   5.066
64522SOL     OW95462   3.181  11.784   7.109
64522SOL    HW195463   3.268  11.790   7.148
64522SOL    HW295464   3.132  11.856   7.147
64523SOL     OW95465  14.547   4.361  14.395
64523SOL    HW195466  14.458   4.348  14.427
64523SOL    HW295467  14.540   4.349  14.300
64524SOL     OW95468   6.178   8.529   5.872
64524SOL    HW195469   6.184   8.466   5.944
64524SOL    HW295470   6.218   8.609   5.908
64525SOL     OW95471   6.092   4.021   2.294
64525SOL    HW195472   6.171   3.973   2.272
64525SOL    HW295473   6.115   4.070   2.373
64526SOL     OW95474   7.163  13.785   5.265
64526SOL    HW195475   7.145  13.789   5.171
64526SOL    HW295476   7.206  13.700   5.278
64527SOL     OW95477   8.557   3.062   7.309
64527SOL    HW195478   8.540   3.004   7.234
64527SOL    HW295479   8.532   3.011   7.385
64528SOL     OW95480   0.501   1.232   4.938
64528SOL    HW195481   0.438   1.163   4.917
64528SOL    HW295482   0.509   1.284   4.858
64529SOL     OW95483  14.286   5.793   7.050
64529SOL    HW195484  14.356   5.801   6.985
64529SOL    HW295485  14.239   5.714   7.025
64530SOL     OW95486  12.702  12.828   1.995
64530SOL    HW195487  12.786  12.809   2.037
64530SOL    HW295488  12.684  12.919   2.021
64531SOL     OW95489   3.298   9.490  12.988
64531SOL    HW195490   3.324   9.476  13.078
64531SOL    HW295491   3.380   9.489  12.939
64532SOL     OW95492   8.430   3.116   6.099
64532SOL    HW195493   8.419   3.115   6.004
64532SOL    HW295494   8.372   3.185   6.130
64533SOL     OW95495   4.792   3.856  11.927
64533SOL    HW195496   4.755   3.941  11.905
64533SOL    HW295497   4.835   3.869  12.011
64534SOL     OW95498   6.471   7.284   3.408
64534SOL    HW195499   6.408   7.355   3.418
64534SOL    HW295500   6.499   7.263   3.497
64535SOL     OW95501  14.772   6.728   4.537
64535SOL    HW195502  14.688   6.767   4.513
64535SOL    HW295503  14.835   6.800   4.527
64536SOL     OW95504   4.570   1.364   7.309
64536SOL    HW195505   4.589   1.383   7.218
64536SOL    HW295506   4.499   1.300   7.306
64537SOL     OW95507   2.429  11.494   0.738
64537SOL    HW195508   2.494  11.518   0.672
64537SOL    HW295509   2.402  11.406   0.715
64538SOL     OW95510   8.803   6.099   1.198
64538SOL    HW195511   8.893   6.070   1.183
64538SOL    HW295512   8.762   6.027   1.247
64539SOL     OW95513   0.690   6.569   6.662
64539SOL    HW195514   0.634   6.643   6.639
64539SOL    HW295515   0.718   6.587   6.752
64540SOL     OW95516   0.363  12.250   5.580
64540SOL    HW195517   0.437  12.266   5.521
64540SOL    HW295518   0.342  12.158   5.568
64541SOL     OW95519   2.228   9.727   6.958
64541SOL    HW195520   2.199   9.816   6.977
64541SOL    HW295521   2.170   9.670   7.009
64542SOL     OW95522   5.930  12.820   5.842
64542SOL    HW195523   6.017  12.835   5.805
64542SOL    HW295524   5.877  12.792   5.767
64543SOL     OW95525   5.131   4.932  11.826
64543SOL    HW195526   5.126   4.838  11.843
64543SOL    HW295527   5.042   4.958  11.802
64544SOL     OW95528   7.234   3.439   8.728
64544SOL    HW195529   7.256   3.449   8.821
64544SOL    HW295530   7.153   3.388   8.728
64545SOL     OW95531  13.457   0.033  11.057
64545SOL    HW195532  13.486  14.854  11.134
64545SOL    HW295533  13.537   0.072  11.022
64546SOL     OW95534  13.025   3.897   1.740
64546SOL    HW195535  12.951   3.945   1.703
64546SOL    HW295536  12.991   3.856   1.819
64547SOL     OW95537   8.038   2.097   5.999
64547SOL    HW195538   8.038   2.002   5.987
64547SOL    HW295539   8.043   2.109   6.094
64548SOL     OW95540  10.199   4.494   1.661
64548SOL    HW195541  10.234   4.583   1.670
64548SOL    HW295542  10.264   4.447   1.610
64549SOL     OW95543   3.468   5.114   4.445
64549SOL    HW195544   3.459   5.193   4.392
64549SOL    HW295545   3.500   5.145   4.530
64550SOL     OW95546  13.254   8.961   6.276
64550SOL    HW195547  13.286   8.947   6.187
64550SOL    HW295548  13.323   9.009   6.320
64551SOL     OW95549   5.734  13.419  13.540
64551SOL    HW195550   5.663  13.407  13.603
64551SOL    HW295551   5.703  13.376  13.460
64552SOL     OW95552   6.482   8.929  11.443
64552SOL    HW195553   6.555   8.950  11.500
64552SOL    HW295554   6.505   8.968  11.359
64553SOL     OW95555   7.418   1.741   1.615
64553SOL    HW195556   7.474   1.664   1.600
64553SOL    HW295557   7.438   1.799   1.542
64554SOL     OW95558   8.759  13.953  14.223
64554SOL    HW195559   8.743  13.909  14.307
64554SOL    HW295560   8.729  14.043  14.236
64555SOL     OW95561   5.602  12.813  14.214
64555SOL    HW195562   5.614  12.734  14.268
64555SOL    HW295563   5.648  12.881  14.262
64556SOL     OW95564   7.832  10.168   3.841
64556SOL    HW195565   7.853  10.133   3.754
64556SOL    HW295566   7.738  10.186   3.837
64557SOL     OW95567   3.984  10.556   7.879
64557SOL    HW195568   4.075  10.530   7.890
64557SOL    HW295569   3.946  10.489   7.822
64558SOL     OW95570  10.074   3.497   2.207
64558SOL    HW195571  10.131   3.512   2.131
64558SOL    HW295572  10.129   3.513   2.283
64559SOL     OW95573   2.197   3.834   5.663
64559SOL    HW195574   2.137   3.833   5.737
64559SOL    HW295575   2.150   3.790   5.592
64560SOL     OW95576   3.988   7.776  11.228
64560SOL    HW195577   4.052   7.825  11.176
64560SOL    HW295578   3.984   7.823  11.311
64561SOL     OW95579  14.477   6.841   8.007
64561SOL    HW195580  14.432   6.881   7.933
64561SOL    HW295581  14.419   6.857   8.082
64562SOL     OW95582   3.843  10.887   3.653
64562SOL    HW195583   3.833  10.806   3.603
64562SOL    HW295584   3.850  10.956   3.586
64563SOL     OW95585   4.796   8.657   5.850
64563SOL    HW195586   4.704   8.660   5.826
64563SOL    HW295587   4.841   8.705   5.781
64564SOL     OW95588   5.361   6.030   1.704
64564SOL    HW195589   5.358   5.944   1.747
64564SOL    HW295590   5.417   6.016   1.628
64565SOL     OW95591  10.657  10.216   0.717
64565SOL    HW195592  10.660  10.135   0.667
64565SOL    HW295593  10.632  10.283   0.652
64566SOL     OW95594  13.030  14.128   9.882
64566SOL    HW195595  12.966  14.196   9.901
64566SOL    HW295596  12.981  14.046   9.888
64567SOL     OW95597   6.945  12.734  12.732
64567SOL    HW195598   7.035  12.756  12.706
64567SOL    HW295599   6.946  12.640  12.746
64568SOL     OW95600   8.295   7.185   7.415
64568SOL    HW195601   8.215   7.134   7.423
64568SOL    HW295602   8.273   7.271   7.451
64569SOL     OW95603   3.340   2.829   0.609
64569SOL    HW195604   3.389   2.836   0.691
64569SOL    HW295605   3.355   2.740   0.579
64570SOL     OW95606  11.486  14.434   3.903
64570SOL    HW195607  11.527  14.491   3.838
64570SOL    HW295608  11.535  14.351   3.895
64571SOL     OW95609  10.790   8.551   8.435
64571SOL    HW195610  10.712   8.534   8.382
64571SOL    HW295611  10.784   8.489   8.508
64572SOL     OW95612   3.737   5.873  11.618
64572SOL    HW195613   3.761   5.961  11.590
64572SOL    HW295614   3.816   5.839  11.661
64573SOL     OW95615   4.238   3.041   7.440
64573SOL    HW195616   4.254   2.993   7.522
64573SOL    HW295617   4.221   3.131   7.468
64574SOL     OW95618   7.003   4.505  10.982
64574SOL    HW195619   7.002   4.427  11.037
64574SOL    HW295620   7.021   4.471  10.894
64575SOL     OW95621   5.953  14.034   1.156
64575SOL    HW195622   5.982  14.116   1.195
64575SOL    HW295623   6.034  13.985   1.141
64576SOL     OW95624   0.760   6.400   2.936
64576SOL    HW195625   0.762   6.350   3.018
64576SOL    HW295626   0.675   6.380   2.897
64577SOL     OW95627   4.655   7.327   5.411
64577SOL    HW195628   4.604   7.353   5.488
64577SOL    HW295629   4.713   7.258   5.442
64578SOL     OW95630  11.012   1.325   6.456
64578SOL    HW195631  10.917   1.327   6.445
64578SOL    HW295632  11.026   1.349   6.548
64579SOL     OW95633   8.591   6.006   7.354
64579SOL    HW195634   8.684   6.027   7.341
64579SOL    HW295635   8.544   6.084   7.323
64580SOL     OW95636  12.543   0.825   3.117
64580SOL    HW195637  12.531   0.749   3.060
64580SOL    HW295638  12.476   0.887   3.089
64581SOL     OW95639   1.012   3.137   0.464
64581SOL    HW195640   0.971   3.212   0.421
64581SOL    HW295641   1.065   3.096   0.396
64582SOL     OW95642  14.339   7.393   3.300
64582SOL    HW195643  14.314   7.453   3.370
64582SOL    HW295644  14.320   7.441   3.219
64583SOL     OW95645   3.402   6.959  12.228
64583SOL    HW195646   3.344   6.883  12.236
64583SOL    HW295647   3.382   7.013  12.305
64584SOL     OW95648  13.650  12.732   5.832
64584SOL    HW195649  13.648  12.811   5.780
64584SOL    HW295650  13.684  12.664   5.773
64585SOL     OW95651   2.458  10.055  13.856
64585SOL    HW195652   2.516  10.116  13.812
64585SOL    HW295653   2.411  10.109  13.920
64586SOL     OW95654   1.859   4.378  13.655
64586SOL    HW195655   1.779   4.326  13.652
64586SOL    HW295656   1.900   4.355  13.738
64587SOL     OW95657  11.937   5.854  10.708
64587SOL    HW195658  11.887   5.930  10.678
64587SOL    HW295659  11.933   5.859  10.804
64588SOL     OW95660  14.552   4.122   8.595
64588SOL    HW195661  14.554   4.114   8.690
64588SOL    HW295662  14.536   4.033   8.563
64589SOL     OW95663   3.129  12.126   3.767
64589SOL    HW195664   3.116  12.106   3.674
64589SOL    HW295665   3.217  12.094   3.787
64590SOL     OW95666   8.248   3.209   6.547
64590SOL    HW195667   8.279   3.229   6.635
64590SOL    HW295668   8.173   3.268   6.534
64591SOL     OW95669   4.769  12.904   8.273
64591SOL    HW195670   4.692  12.936   8.322
64591SOL    HW295671   4.843  12.926   8.329
64592SOL     OW95672   6.225  12.726  10.817
64592SOL    HW195673   6.280  12.698  10.744
64592SOL    HW295674   6.262  12.681  10.893
64593SOL     OW95675  14.029   3.015  11.869
64593SOL    HW195676  14.086   2.945  11.900
64593SOL    HW295677  14.023   3.076  11.942
64594SOL     OW95678  11.636   1.828   5.105
64594SOL    HW195679  11.644   1.874   5.189
64594SOL    HW295680  11.643   1.736   5.128
64595SOL     OW95681   1.945   3.133   5.898
64595SOL    HW195682   1.865   3.162   5.853
64595SOL    HW295683   1.995   3.213   5.912
64596SOL     OW95684   9.488   0.618   1.851
64596SOL    HW195685   9.442   0.585   1.929
64596SOL    HW295686   9.571   0.570   1.850
64597SOL     OW95687   9.676  10.431   0.842
64597SOL    HW195688   9.698  10.511   0.794
64597SOL    HW295689   9.720  10.361   0.794
64598SOL     OW95690   0.869   2.027   4.413
64598SOL    HW195691   0.836   2.037   4.502
64598SOL    HW295692   0.880   1.933   4.402
64599SOL     OW95693  10.252   0.872  10.488
64599SOL    HW195694  10.165   0.867  10.526
64599SOL    HW295695  10.238   0.900  10.397
64600SOL     OW95696   0.658   8.624  12.977
64600SOL    HW195697   0.666   8.576  13.060
64600SOL    HW295698   0.720   8.581  12.919
64601SOL     OW95699  13.437   8.614   8.426
64601SOL    HW195700  13.348   8.609   8.460
64601SOL    HW295701  13.461   8.524   8.408
64602SOL     OW95702   0.405   0.907   0.890
64602SOL    HW195703   0.421   0.978   0.828
64602SOL    HW295704   0.429   0.943   0.975
64603SOL     OW95705  14.769   2.335   0.410
64603SOL    HW195706  14.700   2.273   0.387
64603SOL    HW295707  14.736   2.420   0.379
64604SOL     OW95708   0.967   8.529  14.029
64604SOL    HW195709   0.975   8.614  14.072
64604SOL    HW295710   1.026   8.472  14.078
64605SOL     OW95711  11.586   5.483   9.855
64605SOL    HW195712  11.581   5.405   9.800
64605SOL    HW295713  11.665   5.528   9.825
64606SOL     OW95714   7.479  11.076   2.405
64606SOL    HW195715   7.555  11.124   2.373
64606SOL    HW295716   7.408  11.140   2.404
64607SOL     OW95717   0.155   5.970   2.434
64607SOL    HW195718   0.159   6.065   2.437
64607SOL    HW295719   0.197   5.946   2.351
64608SOL     OW95720   8.923   5.115   0.671
64608SOL    HW195721   8.842   5.128   0.720
64608SOL    HW295722   8.992   5.128   0.737
64609SOL     OW95723  14.598   2.929  12.736
64609SOL    HW195724  14.661   2.988  12.777
64609SOL    HW295725  14.538   2.987  12.689
64610SOL     OW95726   2.937   3.203   8.483
64610SOL    HW195727   2.999   3.144   8.439
64610SOL    HW295728   2.940   3.177   8.575
64611SOL     OW95729   3.334   9.470  14.410
64611SOL    HW195730   3.382   9.495  14.332
64611SOL    HW295731   3.244   9.497  14.393
64612SOL     OW95732   6.641   4.139   4.778
64612SOL    HW195733   6.619   4.229   4.753
64612SOL    HW295734   6.618   4.133   4.870
64613SOL     OW95735   4.207  13.665  12.824
64613SOL    HW195736   4.172  13.582  12.792
64613SOL    HW295737   4.302  13.657  12.811
64614SOL     OW95738   3.717  10.198   4.058
64614SOL    HW195739   3.695  10.125   4.115
64614SOL    HW295740   3.633  10.230   4.025
64615SOL     OW95741  13.910  14.001   7.153
64615SOL    HW195742  13.969  14.075   7.162
64615SOL    HW295743  13.856  14.003   7.232
64616SOL     OW95744   3.095   8.462   1.079
64616SOL    HW195745   3.172   8.501   1.035
64616SOL    HW295746   3.113   8.473   1.172
64617SOL     OW95747   9.941  12.613   8.513
64617SOL    HW195748  10.019  12.561   8.493
64617SOL    HW295749   9.962  12.655   8.597
64618SOL     OW95750   8.440  14.163   6.571
64618SOL    HW195751   8.488  14.081   6.559
64618SOL    HW295752   8.355  14.148   6.530
64619SOL     OW95753  12.242   1.344   7.754
64619SOL    HW195754  12.294   1.266   7.736
64619SOL    HW295755  12.307   1.411   7.777
64620SOL     OW95756   7.107   6.170   4.621
64620SOL    HW195757   7.188   6.120   4.625
64620SOL    HW295758   7.128   6.253   4.664
64621SOL     OW95759  12.422  11.429  11.673
64621SOL    HW195760  12.466  11.348  11.647
64621SOL    HW295761  12.471  11.459  11.750
64622SOL     OW95762  14.144   0.637  14.409
64622SOL    HW195763  14.118   0.706  14.349
64622SOL    HW295764  14.214   0.675  14.461
64623SOL     OW95765  11.413   1.168   5.822
64623SOL    HW195766  11.381   1.229   5.756
64623SOL    HW295767  11.367   1.193   5.902
64624SOL     OW95768   1.951   2.881   3.710
64624SOL    HW195769   1.895   2.936   3.765
64624SOL    HW295770   1.893   2.811   3.680
64625SOL     OW95771   1.268   8.777  13.775
64625SOL    HW195772   1.323   8.825  13.837
64625SOL    HW295773   1.198   8.837  13.753
64626SOL     OW95774   5.421  12.340   3.026
64626SOL    HW195775   5.354  12.359   3.091
64626SOL    HW295776   5.438  12.424   2.983
64627SOL     OW95777  14.296   2.150   6.127
64627SOL    HW195778  14.258   2.196   6.052
64627SOL    HW295779  14.289   2.058   6.104
64628SOL     OW95780   7.272   1.351   0.109
64628SOL    HW195781   7.230   1.349   0.023
64628SOL    HW295782   7.334   1.423   0.103
64629SOL     OW95783   7.243  10.945   2.221
64629SOL    HW195784   7.206  11.005   2.157
64629SOL    HW295785   7.219  10.983   2.306
64630SOL     OW95786   5.235  10.517  13.240
64630SOL    HW195787   5.163  10.470  13.283
64630SOL    HW295788   5.265  10.581  13.305
64631SOL     OW95789   4.707  12.485   1.218
64631SOL    HW195790   4.741  12.479   1.308
64631SOL    HW295791   4.617  12.455   1.225
64632SOL     OW95792  14.677   3.975  12.242
64632SOL    HW195793  14.632   3.970  12.158
64632SOL    HW295794  14.619   4.028  12.297
64633SOL     OW95795   5.015   1.052   7.744
64633SOL    HW195796   5.048   1.119   7.804
64633SOL    HW295797   5.076   0.979   7.755
64634SOL     OW95798  10.463   9.593  12.211
64634SOL    HW195799  10.514   9.668  12.182
64634SOL    HW295800  10.379   9.630  12.238
64635SOL     OW95801  10.782   9.160   4.741
64635SOL    HW195802  10.755   9.218   4.812
64635SOL    HW295803  10.797   9.075   4.784
64636SOL     OW95804   1.046   0.867  14.026
64636SOL    HW195805   0.951   0.858  14.026
64636SOL    HW295806   1.061   0.958  14.055
64637SOL     OW95807   4.830  12.997  10.271
64637SOL    HW195808   4.770  13.008  10.197
64637SOL    HW295809   4.793  13.051  10.341
64638SOL     OW95810   4.017  14.649   0.337
64638SOL    HW195811   4.069  14.634   0.258
64638SOL    HW295812   4.070  14.611   0.407
64639SOL     OW95813   5.818   2.957  13.425
64639SOL    HW195814   5.815   2.981  13.332
64639SOL    HW295815   5.791   2.866  13.427
64640SOL     OW95816  12.559   9.641  10.420
64640SOL    HW195817  12.582   9.549  10.429
64640SOL    HW295818  12.467   9.646  10.445
64641SOL     OW95819   7.933   8.088   6.874
64641SOL    HW195820   7.934   7.992   6.877
64641SOL    HW295821   7.963   8.110   6.786
64642SOL     OW95822   3.357   5.215  13.833
64642SOL    HW195823   3.386   5.147  13.772
64642SOL    HW295824   3.268   5.189  13.856
64643SOL     OW95825   0.144  14.643   0.877
64643SOL    HW195826   0.179  14.670   0.793
64643SOL    HW295827   0.058  14.683   0.882
64644SOL     OW95828   3.787   7.124  13.682
64644SOL    HW195829   3.858   7.081  13.633
64644SOL    HW295830   3.792   7.215  13.655
64645SOL     OW95831   6.214   1.990   8.772
64645SOL    HW195832   6.125   1.998   8.738
64645SOL    HW295833   6.267   2.046   8.716
64646SOL     OW95834  11.796  10.383   6.642
64646SOL    HW195835  11.721  10.442   6.635
64646SOL    HW295836  11.787  10.342   6.728
64647SOL     OW95837   3.269   4.765   1.227
64647SOL    HW195838   3.321   4.687   1.206
64647SOL    HW295839   3.256   4.808   1.143
64648SOL     OW95840   3.737   8.603   1.432
64648SOL    HW195841   3.719   8.534   1.369
64648SOL    HW295842   3.667   8.667   1.418
64649SOL     OW95843  12.192   8.415  12.195
64649SOL    HW195844  12.217   8.407  12.288
64649SOL    HW295845  12.138   8.338  12.178
64650SOL     OW95846  13.371   0.316  10.094
64650SOL    HW195847  13.445   0.268  10.131
64650SOL    HW295848  13.328   0.253  10.036
64651SOL     OW95849   7.776   9.947   8.416
64651SOL    HW195850   7.783   9.973   8.508
64651SOL    HW295851   7.843  10.000   8.371
64652SOL     OW95852  10.020   7.931   9.852
64652SOL    HW195853  10.091   7.903   9.909
64652SOL    HW295854   9.940   7.917   9.903
64653SOL     OW95855   4.402  14.315  11.222
64653SOL    HW195856   4.419  14.233  11.268
64653SOL    HW295857   4.321  14.299  11.174
64654SOL     OW95858  13.986   0.269   7.638
64654SOL    HW195859  13.997   0.198   7.701
64654SOL    HW295860  14.075   0.287   7.606
64655SOL     OW95861  12.559   1.044   7.584
64655SOL    HW195862  12.613   1.066   7.660
64655SOL    HW295863  12.575   1.114   7.521
64656SOL     OW95864   4.515   4.063   2.396
64656SOL    HW195865   4.468   3.990   2.436
64656SOL    HW295866   4.463   4.140   2.418
64657SOL     OW95867   6.504  12.748  13.286
64657SOL    HW195868   6.464  12.715  13.205
64657SOL    HW295869   6.464  12.833  13.300
64658SOL     OW95870   5.391  10.667  14.152
64658SOL    HW195871   5.439  10.612  14.090
64658SOL    HW295872   5.427  10.754  14.140
64659SOL     OW95873  12.911  12.693   0.542
64659SOL    HW195874  12.913  12.713   0.448
64659SOL    HW295875  12.950  12.771   0.583
64660SOL     OW95876  13.326  13.665  12.614
64660SOL    HW195877  13.403  13.633  12.660
64660SOL    HW295878  13.361  13.712  12.538
64661SOL     OW95879   3.411   2.987  13.447
64661SOL    HW195880   3.396   3.072  13.489
64661SOL    HW295881   3.388   3.001  13.355
64662SOL     OW95882   4.647  13.778  10.350
64662SOL    HW195883   4.737  13.780  10.382
64662SOL    HW295884   4.641  13.852  10.290
64663SOL     OW95885   6.420   1.330   5.858
64663SOL    HW195886   6.480   1.356   5.928
64663SOL    HW295887   6.386   1.412   5.824
64664SOL     OW95888   4.506   1.614   8.722
64664SOL    HW195889   4.504   1.519   8.735
64664SOL    HW295890   4.599   1.637   8.728
64665SOL     OW95891   6.389  11.528   0.217
64665SOL    HW195892   6.418  11.437   0.210
64665SOL    HW295893   6.454  11.570   0.272
64666SOL     OW95894  12.485   2.072   5.569
64666SOL    HW195895  12.538   2.003   5.609
64666SOL    HW295896  12.521   2.082   5.481
64667SOL     OW95897   7.840   7.385   2.935
64667SOL    HW195898   7.834   7.471   2.975
64667SOL    HW295899   7.879   7.329   3.002
64668SOL     OW95900  10.633   9.561   2.534
64668SOL    HW195901  10.697   9.494   2.557
64668SOL    HW295902  10.553   9.511   2.513
64669SOL     OW95903   5.576   8.919  13.348
64669SOL    HW195904   5.572   8.998  13.294
64669SOL    HW295905   5.667   8.890  13.340
64670SOL     OW95906   9.916  10.700   3.465
64670SOL    HW195907   9.963  10.782   3.483
64670SOL    HW295908   9.824  10.723   3.475
64671SOL     OW95909   4.835  11.014  14.634
64671SOL    HW195910   4.823  10.979  14.546
64671SOL    HW295911   4.857  11.107  14.619
64672SOL     OW95912   9.303   7.587   0.550
64672SOL    HW195913   9.320   7.577   0.457
64672SOL    HW295914   9.208   7.598   0.557
64673SOL     OW95915   2.421   0.348   3.690
64673SOL    HW195916   2.476   0.331   3.766
64673SOL    HW295917   2.406   0.262   3.651
64674SOL     OW95918   0.343   1.592  10.622
64674SOL    HW195919   0.419   1.599  10.565
64674SOL    HW295920   0.350   1.667  10.681
64675SOL     OW95921   9.463   7.450   4.411
64675SOL    HW195922   9.533   7.392   4.440
64675SOL    HW295923   9.498   7.538   4.420
64676SOL     OW95924  13.096   2.949   2.447
64676SOL    HW195925  13.150   3.000   2.506
64676SOL    HW295926  13.006   2.972   2.469
64677SOL     OW95927   7.767   7.647   3.052
64677SOL    HW195928   7.839   7.689   3.097
64677SOL    HW295929   7.689   7.694   3.081
64678SOL     OW95930  12.393   5.947  11.474
64678SOL    HW195931  12.464   6.011  11.471
64678SOL    HW295932  12.349   5.963  11.558
64679SOL     OW95933   8.087   2.641   5.115
64679SOL    HW195934   7.999   2.666   5.142
64679SOL    HW295935   8.105   2.697   5.039
64680SOL     OW95936  11.480   7.638   1.588
64680SOL    HW195937  11.450   7.675   1.671
64680SOL    HW295938  11.471   7.543   1.600
64681SOL     OW95939   0.427   4.111  10.498
64681SOL    HW195940   0.522   4.115  10.482
64681SOL    HW295941   0.413   4.172  10.570
64682SOL     OW95942  11.059   0.450   6.733
64682SOL    HW195943  11.146   0.420   6.759
64682SOL    HW295944  11.074   0.540   6.703
64683SOL     OW95945  12.982   3.693   2.004
64683SOL    HW195946  13.072   3.672   2.029
64683SOL    HW295947  12.952   3.754   2.071
64684SOL     OW95948  10.152   6.993  12.792
64684SOL    HW195949  10.109   7.040  12.720
64684SOL    HW295950  10.110   7.026  12.871
64685SOL     OW95951   2.725   4.985   9.531
64685SOL    HW195952   2.743   5.041   9.456
64685SOL    HW295953   2.725   5.045   9.606
64686SOL     OW95954  14.389   7.750  11.323
64686SOL    HW195955  14.445   7.775  11.397
64686SOL    HW295956  14.356   7.833  11.289
64687SOL     OW95957  11.621   2.979  12.643
64687SOL    HW195958  11.704   2.939  12.618
64687SOL    HW295959  11.596   3.031  12.566
64688SOL     OW95960  14.116   4.595  10.155
64688SOL    HW195961  14.057   4.629  10.088
64688SOL    HW295962  14.083   4.508  10.175
64689SOL     OW95963   5.408   0.014   9.140
64689SOL    HW195964   5.421   0.048   9.051
64689SOL    HW295965   5.313   0.012   9.152
64690SOL     OW95966   9.780  11.083   1.354
64690SOL    HW195967   9.730  11.065   1.433
64690SOL    HW295968   9.868  11.049   1.372
64691SOL     OW95969   9.340   7.423   5.313
64691SOL    HW195970   9.284   7.450   5.240
64691SOL    HW295971   9.326   7.328   5.320
64692SOL     OW95972   9.976   1.958   9.382
64692SOL    HW195973   9.891   1.943   9.423
64692SOL    HW295974   9.979   1.898   9.308
64693SOL     OW95975   6.616  13.725   1.638
64693SOL    HW195976   6.547  13.660   1.654
64693SOL    HW295977   6.568  13.805   1.614
64694SOL     OW95978   1.689   0.812   1.015
64694SOL    HW195979   1.742   0.883   1.050
64694SOL    HW295980   1.671   0.836   0.924
64695SOL     OW95981   8.031   3.039   9.688
64695SOL    HW195982   7.978   3.025   9.767
64695SOL    HW295983   7.997   2.976   9.625
64696SOL     OW95984  14.212  12.421   2.058
64696SOL    HW195985  14.232  12.332   2.087
64696SOL    HW295986  14.142  12.410   1.994
64697SOL     OW95987  14.067  10.640   8.979
64697SOL    HW195988  14.157  10.618   8.954
64697SOL    HW295989  14.075  10.724   9.025
64698SOL     OW95990  12.676  12.047   6.338
64698SOL    HW195991  12.709  12.134   6.359
64698SOL    HW295992  12.710  11.991   6.408
64699SOL     OW95993   6.495   1.961  11.265
64699SOL    HW195994   6.417   1.973  11.319
64699SOL    HW295995   6.475   1.885  11.211
64700SOL     OW95996   5.107  10.363   5.634
64700SOL    HW195997   5.107  10.287   5.692
64700SOL    HW295998   5.030  10.350   5.578
64701SOL     OW95999   8.650   5.893   2.787
64701SOL    HW196000   8.587   5.895   2.714
64701SOL    HW296001   8.721   5.838   2.754
64702SOL     OW96002   8.448   8.713  10.826
64702SOL    HW196003   8.395   8.637  10.850
64702SOL    HW296004   8.533   8.699  10.868
64703SOL     OW96005   5.600   8.286   9.742
64703SOL    HW196006   5.511   8.263   9.714
64703SOL    HW296007   5.656   8.222   9.698
64704SOL     OW96008   3.164   2.142   6.962
64704SOL    HW196009   3.186   2.051   6.982
64704SOL    HW296010   3.214   2.194   7.025
64705SOL     OW96011   3.143  12.623   6.421
64705SOL    HW196012   3.215  12.643   6.361
64705SOL    HW296013   3.184  12.575   6.493
64706SOL     OW96014   4.758  11.028  12.719
64706SOL    HW196015   4.827  10.993  12.774
64706SOL    HW296016   4.798  11.103  12.675
64707SOL     OW96017  14.848   3.829   2.837
64707SOL    HW196018  14.842   3.823   2.741
64707SOL    HW296019   0.073   3.825   2.854
64708SOL     OW96020   8.693   8.364   8.635
64708SOL    HW196021   8.614   8.397   8.591
64708SOL    HW296022   8.763   8.378   8.571
64709SOL     OW96023   8.403   4.521   0.086
64709SOL    HW196024   8.426   4.490   0.174
64709SOL    HW296025   8.469   4.588   0.066
64710SOL     OW96026   3.576   4.328   0.185
64710SOL    HW196027   3.655   4.381   0.187
64710SOL    HW296028   3.545   4.328   0.276
64711SOL     OW96029   7.887  12.190  13.681
64711SOL    HW196030   7.929  12.246  13.617
64711SOL    HW296031   7.958  12.160  13.737
64712SOL     OW96032  14.615   8.061   4.456
64712SOL    HW196033  14.672   8.089   4.528
64712SOL    HW296034  14.640   8.117   4.383
64713SOL     OW96035  13.288  14.315  13.506
64713SOL    HW196036  13.343  14.241  13.481
64713SOL    HW296037  13.284  14.370  13.428
64714SOL     OW96038   3.419   4.692  11.104
64714SOL    HW196039   3.405   4.744  11.025
64714SOL    HW296040   3.441   4.604  11.072
64715SOL     OW96041   2.441  14.124   7.273
64715SOL    HW196042   2.524  14.105   7.230
64715SOL    HW296043   2.412  14.207   7.235
64716SOL     OW96044  14.583   0.577   5.520
64716SOL    HW196045  14.601   0.601   5.611
64716SOL    HW296046  14.646   0.508   5.500
64717SOL     OW96047  10.432   7.157   0.689
64717SOL    HW196048  10.462   7.070   0.663
64717SOL    HW296049  10.383   7.190   0.614
64718SOL     OW96050  14.746   4.310   3.285
64718SOL    HW196051  14.800   4.282   3.211
64718SOL    HW296052  14.678   4.365   3.247
64719SOL     OW96053   0.412   0.420   2.601
64719SOL    HW196054   0.342   0.374   2.555
64719SOL    HW296055   0.489   0.410   2.545
64720SOL     OW96056   2.980   2.231   2.301
64720SOL    HW196057   2.955   2.168   2.233
64720SOL    HW296058   3.047   2.286   2.259
64721SOL     OW96059   1.006   4.644   1.814
64721SOL    HW196060   0.921   4.680   1.841
64721SOL    HW296061   0.991   4.550   1.808
64722SOL     OW96062   5.184  12.639  10.834
64722SOL    HW196063   5.196  12.575  10.764
64722SOL    HW296064   5.218  12.596  10.912
64723SOL     OW96065  14.026   2.774   1.873
64723SOL    HW196066  14.020   2.678   1.877
64723SOL    HW296067  13.936   2.804   1.886
64724SOL     OW96068  10.859   2.659  14.434
64724SOL    HW196069  10.790   2.657  14.367
64724SOL    HW296070  10.911   2.581  14.418
64725SOL     OW96071  13.795   0.998  13.512
64725SOL    HW196072  13.865   0.970  13.571
64725SOL    HW296073  13.768   1.083  13.547
64726SOL     OW96074   6.691   9.116   2.745
64726SOL    HW196075   6.605   9.158   2.751
64726SOL    HW296076   6.677   9.027   2.777
64727SOL     OW96077   3.017  13.154  10.781
64727SOL    HW196078   3.025  13.105  10.863
64727SOL    HW296079   2.927  13.184  10.779
64728SOL     OW96080   0.038  12.881  11.787
64728SOL    HW196081   0.008  12.818  11.854
64728SOL    HW296082  14.829  12.933  11.768
64729SOL     OW96083   8.222   8.678   7.043
64729SOL    HW196084   8.261   8.629   6.971
64729SOL    HW296085   8.142   8.629   7.065
64730SOL     OW96086   8.873   4.980   4.386
64730SOL    HW196087   8.811   5.051   4.369
64730SOL    HW296088   8.818   4.904   4.402
64731SOL     OW96089   7.423   4.697  10.371
64731SOL    HW196090   7.354   4.728  10.430
64731SOL    HW296091   7.484   4.771  10.364
64732SOL     OW96092   5.775   7.294  10.641
64732SOL    HW196093   5.769   7.389  10.639
64732SOL    HW296094   5.687   7.264  10.617
64733SOL     OW96095   5.369   1.455  12.019
64733SOL    HW196096   5.378   1.482  12.110
64733SOL    HW296097   5.276   1.461  12.001
64734SOL     OW96098   2.706  12.049   6.901
64734SOL    HW196099   2.621  12.046   6.944
64734SOL    HW296100   2.766  12.010   6.965
64735SOL     OW96101  14.849  10.312  13.002
64735SOL    HW196102  14.859  10.219  13.021
64735SOL    HW296103  14.775  10.340  13.057
64736SOL     OW96104   2.538   0.320   1.455
64736SOL    HW196105   2.631   0.304   1.441
64736SOL    HW296106   2.508   0.244   1.505
64737SOL     OW96107   4.393   4.211  12.825
64737SOL    HW196108   4.403   4.273  12.898
64737SOL    HW296109   4.363   4.266  12.752
64738SOL     OW96110   7.278   8.235  11.694
64738SOL    HW196111   7.221   8.189  11.755
64738SOL    HW296112   7.304   8.169  11.630
64739SOL     OW96113   0.036  14.316   7.138
64739SOL    HW196114   0.010  14.232   7.176
64739SOL    HW296115   0.102  14.293   7.073
64740SOL     OW96116   3.404   5.825  14.366
64740SOL    HW196117   3.400   5.915  14.398
64740SOL    HW296118   3.494   5.798  14.381
64741SOL     OW96119   7.584  13.218   8.963
64741SOL    HW196120   7.498  13.205   8.923
64741SOL    HW296121   7.603  13.136   9.008
64742SOL     OW96122   7.948   5.518   8.747
64742SOL    HW196123   7.861   5.499   8.783
64742SOL    HW296124   7.934   5.590   8.685
64743SOL     OW96125   3.204   2.207   6.264
64743SOL    HW196126   3.250   2.270   6.208
64743SOL    HW296127   3.268   2.185   6.332
64744SOL     OW96128   7.675   6.250  11.235
64744SOL    HW196129   7.702   6.303  11.310
64744SOL    HW296130   7.581   6.234  11.249
64745SOL     OW96131   8.645   3.669   7.781
64745SOL    HW196132   8.706   3.641   7.849
64745SOL    HW296133   8.699   3.681   7.703
64746SOL     OW96134  11.732  14.499   6.408
64746SOL    HW196135  11.740  14.429   6.473
64746SOL    HW296136  11.732  14.453   6.324
64747SOL     OW96137  10.178  12.630  10.395
64747SOL    HW196138  10.188  12.688  10.319
64747SOL    HW296139  10.102  12.576  10.374
64748SOL     OW96140   2.762   4.237   7.297
64748SOL    HW196141   2.736   4.146   7.310
64748SOL    HW296142   2.794   4.265   7.382
64749SOL     OW96143  10.038   3.648   0.764
64749SOL    HW196144   9.975   3.683   0.828
64749SOL    HW296145  10.104   3.605   0.817
64750SOL     OW96146  14.260  12.011   2.940
64750SOL    HW196147  14.253  11.916   2.933
64750SOL    HW296148  14.206  12.034   3.016
64751SOL     OW96149   5.972   0.302   7.548
64751SOL    HW196150   5.980   0.327   7.640
64751SOL    HW296151   6.060   0.274   7.522
64752SOL     OW96152  14.800   0.474   8.212
64752SOL    HW196153  14.782   0.515   8.128
64752SOL    HW296154   0.023   0.491   8.228
64753SOL     OW96155  13.425  14.109  10.690
64753SOL    HW196156  13.427  14.201  10.716
64753SOL    HW296157  13.332  14.085  10.695
64754SOL     OW96158   2.999  11.386  13.547
64754SOL    HW196159   2.969  11.295  13.548
64754SOL    HW296160   2.938  11.430  13.488
64755SOL     OW96161  12.111  14.631   7.548
64755SOL    HW196162  12.042  14.570   7.574
64755SOL    HW296163  12.098  14.643   7.453
64756SOL     OW96164  12.178  11.423   2.801
64756SOL    HW196165  12.137  11.500   2.838
64756SOL    HW296166  12.266  11.422   2.839
64757SOL     OW96167  10.101  11.701   2.732
64757SOL    HW196168  10.176  11.753   2.761
64757SOL    HW296169  10.139  11.632   2.677
64758SOL     OW96170  12.035  11.692  13.512
64758SOL    HW196171  12.105  11.752  13.538
64758SOL    HW296172  12.055  11.671  13.420
64759SOL     OW96173  13.936  13.912  10.338
64759SOL    HW196174  13.908  13.861  10.262
64759SOL    HW296175  13.977  13.849  10.396
64760SOL     OW96176   8.615   8.383   8.274
64760SOL    HW196177   8.622   8.287   8.273
64760SOL    HW296178   8.701   8.414   8.245
64761SOL     OW96179  14.720   8.774   6.776
64761SOL    HW196180  14.777   8.704   6.745
64761SOL    HW296181  14.762   8.804   6.857
64762SOL     OW96182   5.963  12.275   0.952
64762SOL    HW196183   5.976  12.184   0.979
64762SOL    HW296184   6.048  12.302   0.918
64763SOL     OW96185   9.509  11.425   4.289
64763SOL    HW196186   9.437  11.447   4.348
64763SOL    HW296187   9.575  11.492   4.305
64764SOL     OW96188   9.507   1.862  14.015
64764SOL    HW196189   9.438   1.871  13.948
64764SOL    HW296190   9.584   1.901  13.974
64765SOL     OW96191   9.953  14.677   1.760
64765SOL    HW196192  10.035  14.725   1.761
64765SOL    HW296193   9.902  14.714   1.832
64766SOL     OW96194  12.812   4.662  11.085
64766SOL    HW196195  12.746   4.667  11.016
64766SOL    HW296196  12.853   4.749  11.086
64767SOL     OW96197  12.297   9.835   1.717
64767SOL    HW196198  12.255   9.909   1.674
64767SOL    HW296199  12.340   9.873   1.794
64768SOL     OW96200  14.736  11.958   8.125
64768SOL    HW196201  14.754  12.051   8.133
64768SOL    HW296202  14.787  11.930   8.049
64769SOL     OW96203   5.606   0.681   7.579
64769SOL    HW196204   5.534   0.644   7.631
64769SOL    HW296205   5.676   0.696   7.642
64770SOL     OW96206   9.195   2.178   0.240
64770SOL    HW196207   9.278   2.139   0.213
64770SOL    HW296208   9.215   2.220   0.324
64771SOL     OW96209   3.984   7.082   5.195
64771SOL    HW196210   3.998   7.130   5.113
64771SOL    HW296211   3.987   6.990   5.170
64772SOL     OW96212  11.910   6.526   6.347
64772SOL    HW196213  11.839   6.590   6.357
64772SOL    HW296214  11.952   6.550   6.264
64773SOL     OW96215  13.134  13.702  12.020
64773SOL    HW196216  13.164  13.678  11.933
64773SOL    HW296217  13.151  13.796  12.026
64774SOL     OW96218   1.609   2.018  11.249
64774SOL    HW196219   1.607   2.011  11.345
64774SOL    HW296220   1.588   2.110  11.231
64775SOL     OW96221  12.780   6.851   4.508
64775SOL    HW196222  12.710   6.785   4.507
64775SOL    HW296223  12.851   6.809   4.557
64776SOL     OW96224   4.374  11.441   9.628
64776SOL    HW196225   4.445  11.382   9.655
64776SOL    HW296226   4.320  11.389   9.569
64777SOL     OW96227  11.489  13.633   6.784
64777SOL    HW196228  11.445  13.687   6.718
64777SOL    HW296229  11.575  13.674   6.794
64778SOL     OW96230   3.619  12.594   5.156
64778SOL    HW196231   3.595  12.686   5.159
64778SOL    HW296232   3.549  12.552   5.106
64779SOL     OW96233  14.215   6.931   0.698
64779SOL    HW196234  14.233   6.838   0.709
64779SOL    HW296235  14.189   6.940   0.606
64780SOL     OW96236   8.998   7.061   3.833
64780SOL    HW196237   9.015   6.994   3.768
64780SOL    HW296238   9.059   7.043   3.904
64781SOL     OW96239  12.675   7.587  11.364
64781SOL    HW196240  12.770   7.579  11.376
64781SOL    HW296241  12.665   7.612  11.272
64782SOL     OW96242   7.234   4.382   7.830
64782SOL    HW196243   7.229   4.403   7.737
64782SOL    HW296244   7.246   4.466   7.873
64783SOL     OW96245   3.594  10.990   6.572
64783SOL    HW196246   3.549  10.939   6.640
64783SOL    HW296247   3.550  10.966   6.491
64784SOL     OW96248  10.226   5.996   0.329
64784SOL    HW196249  10.285   5.923   0.348
64784SOL    HW296250  10.163   5.994   0.400
64785SOL     OW96251   9.972   3.679   6.081
64785SOL    HW196252   9.966   3.586   6.102
64785SOL    HW296253  10.055   3.688   6.034
64786SOL     OW96254   2.413  11.905   8.023
64786SOL    HW196255   2.414  11.994   7.986
64786SOL    HW296256   2.360  11.854   7.961
64787SOL     OW96257   2.495  10.011  13.496
64787SOL    HW196258   2.513   9.928  13.451
64787SOL    HW296259   2.442   9.987  13.572
64788SOL     OW96260   0.451   4.734   1.075
64788SOL    HW196261   0.527   4.690   1.036
64788SOL    HW296262   0.478   4.825   1.086
64789SOL     OW96263  12.698   0.912   4.204
64789SOL    HW196264  12.699   0.824   4.167
64789SOL    HW296265  12.712   0.898   4.298
64790SOL     OW96266   4.915   5.065  12.548
64790SOL    HW196267   4.917   5.076  12.643
64790SOL    HW296268   4.893   5.152  12.514
64791SOL     OW96269   0.026  11.051   8.422
64791SOL    HW196270   0.053  11.099   8.500
64791SOL    HW296271   0.017  11.118   8.354
64792SOL     OW96272   0.670   4.306  13.111
64792SOL    HW196273   0.581   4.275  13.131
64792SOL    HW296274   0.705   4.239  13.053
64793SOL     OW96275   0.720   6.290  14.841
64793SOL    HW196276   0.813   6.292  14.820
64793SOL    HW296277   0.704   6.371   0.020
64794SOL     OW96278   9.317   4.283   7.793
64794SOL    HW196279   9.315   4.193   7.761
64794SOL    HW296280   9.325   4.275   7.888
64795SOL     OW96281   9.106   9.686   6.270
64795SOL    HW196282   9.132   9.757   6.211
64795SOL    HW296283   9.181   9.627   6.270
64796SOL     OW96284   8.252   4.074   7.994
64796SOL    HW196285   8.214   4.141   7.936
64796SOL    HW296286   8.229   4.103   8.082
64797SOL     OW96287   6.719   8.082   9.129
64797SOL    HW196288   6.706   8.174   9.107
64797SOL    HW296289   6.631   8.044   9.125
64798SOL     OW96290   0.504  10.011   4.863
64798SOL    HW196291   0.447  10.027   4.937
64798SOL    HW296292   0.461   9.941   4.813
64799SOL     OW96293  13.004   7.692   0.210
64799SOL    HW196294  13.018   7.607   0.252
64799SOL    HW296295  12.942   7.673   0.139
64800SOL     OW96296   9.000   0.680   7.845
64800SOL    HW196297   9.020   0.731   7.923
64800SOL    HW296298   9.039   0.729   7.773
64801SOL     OW96299   8.239   9.332  10.959
64801SOL    HW196300   8.164   9.273  10.965
64801SOL    HW296301   8.205   9.412  10.919
64802SOL     OW96302   6.234   6.130   3.081
64802SOL    HW196303   6.284   6.141   3.000
64802SOL    HW296304   6.301   6.116   3.148
64803SOL     OW96305  10.542  13.449   4.088
64803SOL    HW196306  10.511  13.539   4.099
64803SOL    HW296307  10.506  13.401   4.162
64804SOL     OW96308   3.763  11.423  11.249
64804SOL    HW196309   3.719  11.420  11.334
64804SOL    HW296310   3.787  11.332  11.231
64805SOL     OW96311  12.493   6.894   4.311
64805SOL    HW196312  12.438   6.837   4.258
64805SOL    HW296313  12.570   6.840   4.332
64806SOL     OW96314   6.981  11.919   3.287
64806SOL    HW196315   6.893  11.886   3.268
64806SOL    HW296316   6.975  11.955   3.375
64807SOL     OW96317   4.723  12.845  11.979
64807SOL    HW196318   4.744  12.927  12.025
64807SOL    HW296319   4.779  12.846  11.902
64808SOL     OW96320  14.662  12.121   1.766
64808SOL    HW196321  14.754  12.140   1.786
64808SOL    HW296322  14.665  12.072   1.684
64809SOL     OW96323  11.807   0.423   1.183
64809SOL    HW196324  11.850   0.421   1.097
64809SOL    HW296325  11.713   0.422   1.162
64810SOL     OW96326   7.755   2.696   7.052
64810SOL    HW196327   7.773   2.729   6.964
64810SOL    HW296328   7.770   2.771   7.110
64811SOL     OW96329  10.975   9.810  12.618
64811SOL    HW196330  10.971   9.882  12.681
64811SOL    HW296331  11.046   9.834  12.558
64812SOL     OW96332   4.382  12.610   0.491
64812SOL    HW196333   4.468  12.608   0.449
64812SOL    HW296334   4.400  12.628   0.583
64813SOL     OW96335   2.263   0.997   3.401
64813SOL    HW196336   2.327   1.049   3.353
64813SOL    HW296337   2.189   0.988   3.342
64814SOL     OW96338   5.714   5.070  12.878
64814SOL    HW196339   5.655   5.000  12.906
64814SOL    HW296340   5.785   5.068  12.942
64815SOL     OW96341   8.262  14.541   8.819
64815SOL    HW196342   8.248  14.633   8.796
64815SOL    HW296343   8.202  14.493   8.763
64816SOL     OW96344  14.727   2.557   0.253
64816SOL    HW196345  14.719   2.505   0.173
64816SOL    HW296346  14.770   2.637   0.225
64817SOL     OW96347   7.198   8.923   2.579
64817SOL    HW196348   7.251   8.864   2.632
64817SOL    HW296349   7.238   8.921   2.492
64818SOL     OW96350   6.657   0.999   1.533
64818SOL    HW196351   6.616   1.064   1.591
64818SOL    HW296352   6.704   1.052   1.468
64819SOL     OW96353   0.436   6.392   6.362
64819SOL    HW196354   0.511   6.351   6.404
64819SOL    HW296355   0.369   6.324   6.360
64820SOL     OW96356   8.761  12.276   2.303
64820SOL    HW196357   8.826  12.261   2.234
64820SOL    HW296358   8.691  12.213   2.284
64821SOL     OW96359  10.162  12.335   6.694
64821SOL    HW196360  10.080  12.385   6.698
64821SOL    HW296361  10.145  12.267   6.629
64822SOL     OW96362   0.586  13.175   2.812
64822SOL    HW196363   0.506  13.214   2.847
64822SOL    HW296364   0.657  13.223   2.854
64823SOL     OW96365   7.208   0.525   7.078
64823SOL    HW196366   7.163   0.599   7.119
64823SOL    HW296367   7.273   0.566   7.021
64824SOL     OW96368  13.405   1.519   7.335
64824SOL    HW196369  13.369   1.607   7.326
64824SOL    HW296370  13.355   1.479   7.407
64825SOL     OW96371  14.750   8.441   1.981
64825SOL    HW196372  14.803   8.405   2.052
64825SOL    HW296373  14.667   8.394   1.987
64826SOL     OW96374  10.098   2.730   4.306
64826SOL    HW196375  10.089   2.758   4.215
64826SOL    HW296376  10.062   2.641   4.307
64827SOL     OW96377   8.873   3.368  14.439
64827SOL    HW196378   8.905   3.302  14.378
64827SOL    HW296379   8.840   3.439  14.384
64828SOL     OW96380   7.629   3.430   9.454
64828SOL    HW196381   7.692   3.374   9.408
64828SOL    HW296382   7.632   3.513   9.408
64829SOL     OW96383  11.779   4.774  11.568
64829SOL    HW196384  11.698   4.741  11.529
64829SOL    HW296385  11.750   4.836  11.634
64830SOL     OW96386   3.196  13.648  14.540
64830SOL    HW196387   3.241  13.621  14.620
64830SOL    HW296388   3.266  13.651  14.474
64831SOL     OW96389   7.301   6.461  12.167
64831SOL    HW196390   7.362   6.481  12.237
64831SOL    HW296391   7.322   6.372  12.140
64832SOL     OW96392   9.298   9.396  10.993
64832SOL    HW196393   9.349   9.318  11.017
64832SOL    HW296394   9.245   9.413  11.070
64833SOL     OW96395   5.039   8.117  14.617
64833SOL    HW196396   5.053   8.211  14.608
64833SOL    HW296397   5.013   8.105  14.708
64834SOL     OW96398   0.529   6.921   6.974
64834SOL    HW196399   0.581   6.919   6.894
64834SOL    HW296400   0.487   7.007   6.974
64835SOL     OW96401   8.470   1.464   2.302
64835SOL    HW196402   8.441   1.473   2.211
64835SOL    HW296403   8.431   1.382   2.332
64836SOL     OW96404   7.922   6.066   8.417
64836SOL    HW196405   7.890   6.155   8.429
64836SOL    HW296406   7.964   6.066   8.331
64837SOL     OW96407   7.346   3.105   9.748
64837SOL    HW196408   7.350   3.146   9.835
64837SOL    HW296409   7.261   3.132   9.713
64838SOL     OW96410   1.592  12.771  13.000
64838SOL    HW196411   1.656  12.708  12.966
64838SOL    HW296412   1.591  12.841  12.934
64839SOL     OW96413  11.734   7.691   9.345
64839SOL    HW196414  11.727   7.773   9.296
64839SOL    HW296415  11.815   7.699   9.395
64840SOL     OW96416  14.278  13.573  11.501
64840SOL    HW196417  14.339  13.637  11.538
64840SOL    HW296418  14.225  13.545  11.576
64841SOL     OW96419   4.705   0.442  13.341
64841SOL    HW196420   4.722   0.351  13.365
64841SOL    HW296421   4.638   0.471  13.403
64842SOL     OW96422   2.573   7.345   0.842
64842SOL    HW196423   2.550   7.293   0.919
64842SOL    HW296424   2.668   7.338   0.836
64843SOL     OW96425   6.632   6.562   2.314
64843SOL    HW196426   6.714   6.514   2.316
64843SOL    HW296427   6.627   6.598   2.225
64844SOL     OW96428  14.560   3.416   6.212
64844SOL    HW196429  14.480   3.366   6.197
64844SOL    HW296430  14.626   3.350   6.233
64845SOL     OW96431  11.870   1.092   9.960
64845SOL    HW196432  11.913   1.074   9.876
64845SOL    HW296433  11.791   1.038   9.959
64846SOL     OW96434   9.597   8.023   0.505
64846SOL    HW196435   9.523   7.966   0.486
64846SOL    HW296436   9.643   8.033   0.421
64847SOL     OW96437  14.538   7.735   2.148
64847SOL    HW196438  14.466   7.776   2.197
64847SOL    HW296439  14.498   7.712   2.064
64848SOL     OW96440  12.450   8.680  13.520
64848SOL    HW196441  12.405   8.750  13.472
64848SOL    HW296442  12.421   8.599  13.478
64849SOL     OW96443   5.607   5.842   7.826
64849SOL    HW196444   5.533   5.888   7.786
64849SOL    HW296445   5.593   5.852   7.920
64850SOL     OW96446  11.961   7.312   1.259
64850SOL    HW196447  12.017   7.319   1.337
64850SOL    HW296448  11.910   7.232   1.273
64851SOL     OW96449   9.238   4.905   5.822
64851SOL    HW196450   9.157   4.867   5.787
64851SOL    HW296451   9.217   4.925   5.913
64852SOL     OW96452   4.461   3.270   8.129
64852SOL    HW196453   4.484   3.302   8.216
64852SOL    HW296454   4.484   3.177   8.131
64853SOL     OW96455  13.937   7.412  12.748
64853SOL    HW196456  13.911   7.322  12.727
64853SOL    HW296457  14.030   7.416  12.725
64854SOL     OW96458   3.289   3.184  10.089
64854SOL    HW196459   3.357   3.234  10.044
64854SOL    HW296460   3.262   3.240  10.162
64855SOL     OW96461   2.089   7.241   5.890
64855SOL    HW196462   2.085   7.178   5.962
64855SOL    HW296463   2.146   7.311   5.922
64856SOL     OW96464   9.527   3.304   3.933
64856SOL    HW196465   9.464   3.349   3.990
64856SOL    HW296466   9.611   3.347   3.951
64857SOL     OW96467   6.079  14.660   2.939
64857SOL    HW196468   6.059  14.752   2.956
64857SOL    HW296469   6.174  14.659   2.926
64858SOL     OW96470   3.085  11.630  11.304
64858SOL    HW196471   3.108  11.548  11.259
64858SOL    HW296472   3.155  11.690  11.280
64859SOL     OW96473  12.776   8.356  12.844
64859SOL    HW196474  12.814   8.268  12.843
64859SOL    HW296475  12.713   8.354  12.916
64860SOL     OW96476  12.603   3.684  10.942
64860SOL    HW196477  12.657   3.610  10.915
64860SOL    HW296478  12.580   3.728  10.860
64861SOL     OW96479  13.943   8.032   8.330
64861SOL    HW196480  14.005   7.964   8.358
64861SOL    HW296481  13.959   8.104   8.391
64862SOL     OW96482  12.971   7.421   6.351
64862SOL    HW196483  12.953   7.401   6.443
64862SOL    HW296484  13.051   7.474   6.353
64863SOL     OW96485   3.767   5.472   0.801
64863SOL    HW196486   3.748   5.402   0.739
64863SOL    HW296487   3.845   5.442   0.848
64864SOL     OW96488   6.527  13.417   1.383
64864SOL    HW196489   6.506  13.492   1.327
64864SOL    HW296490   6.483  13.435   1.465
64865SOL     OW96491   6.812   9.352   8.209
64865SOL    HW196492   6.867   9.304   8.146
64865SOL    HW296493   6.776   9.425   8.158
64866SOL     OW96494   0.410   4.215   8.677
64866SOL    HW196495   0.320   4.240   8.698
64866SOL    HW296496   0.454   4.208   8.761
64867SOL     OW96497   6.117   9.085  14.613
64867SOL    HW196498   6.115   9.038  14.530
64867SOL    HW296499   6.092   9.174  14.591
64868SOL     OW96500   0.397   5.575   9.966
64868SOL    HW196501   0.455   5.503   9.941
64868SOL    HW296502   0.359   5.547  10.050
64869SOL     OW96503  10.696   9.688   3.656
64869SOL    HW196504  10.759   9.749   3.619
64869SOL    HW296505  10.617   9.700   3.603
64870SOL     OW96506  14.001  12.485  14.445
64870SOL    HW196507  14.067  12.510  14.380
64870SOL    HW296508  13.924  12.536  14.422
64871SOL     OW96509   0.814   5.117  10.092
64871SOL    HW196510   0.826   5.200  10.139
64871SOL    HW296511   0.816   5.141  10.000
64872SOL     OW96512   2.959   5.024   3.377
64872SOL    HW196513   2.981   5.047   3.467
64872SOL    HW296514   2.975   4.930   3.371
64873SOL     OW96515  12.268   6.462   8.170
64873SOL    HW196516  12.306   6.463   8.258
64873SOL    HW296517  12.174   6.452   8.185
64874SOL     OW96518  12.506   3.902   5.033
64874SOL    HW196519  12.522   3.961   4.959
64874SOL    HW296520  12.424   3.858   5.013
64875SOL     OW96521  12.778   2.623   3.037
64875SOL    HW196522  12.768   2.708   2.992
64875SOL    HW296523  12.769   2.644   3.130
64876SOL     OW96524   0.814  12.303   3.046
64876SOL    HW196525   0.731  12.283   3.090
64876SOL    HW296526   0.873  12.327   3.118
64877SOL     OW96527   9.723  10.483  11.771
64877SOL    HW196528   9.804  10.534  11.767
64877SOL    HW296529   9.672  10.513  11.695
64878SOL     OW96530   2.886   8.273   2.098
64878SOL    HW196531   2.879   8.182   2.128
64878SOL    HW296532   2.845   8.272   2.011
64879SOL     OW96533   4.500  14.087  12.799
64879SOL    HW196534   4.453  14.134  12.730
64879SOL    HW296535   4.454  14.004  12.807
64880SOL     OW96536   0.647  12.739   3.554
64880SOL    HW196537   0.599  12.680   3.613
64880SOL    HW296538   0.739  12.723   3.575
64881SOL     OW96539   9.683   4.120  13.147
64881SOL    HW196540   9.734   4.060  13.093
64881SOL    HW296541   9.748   4.178  13.187
64882SOL     OW96542   3.515   5.663   6.313
64882SOL    HW196543   3.575   5.648   6.385
64882SOL    HW296544   3.474   5.578   6.298
64883SOL     OW96545   5.261  11.640   3.502
64883SOL    HW196546   5.220  11.566   3.458
64883SOL    HW296547   5.332  11.667   3.443
64884SOL     OW96548  13.194   1.770  10.831
64884SOL    HW196549  13.197   1.757  10.736
64884SOL    HW296550  13.265   1.714  10.865
64885SOL     OW96551   1.879   0.956   0.809
64885SOL    HW196552   1.862   0.932   0.718
64885SOL    HW296553   1.931   0.883   0.843
64886SOL     OW96554  13.417  13.471  10.311
64886SOL    HW196555  13.457  13.558  10.314
64886SOL    HW296556  13.476  13.420  10.255
64887SOL     OW96557   4.035   0.117   9.105
64887SOL    HW196558   4.110   0.162   9.065
64887SOL    HW296559   4.050   0.024   9.087
64888SOL     OW96560   5.016   1.373   8.404
64888SOL    HW196561   5.012   1.454   8.352
64888SOL    HW296562   5.097   1.382   8.455
64889SOL     OW96563   2.117  13.412  12.178
64889SOL    HW196564   2.179  13.482  12.160
64889SOL    HW296565   2.125  13.396  12.272
64890SOL     OW96566   2.139   1.433   0.579
64890SOL    HW196567   2.098   1.428   0.666
64890SOL    HW296568   2.091   1.504   0.535
64891SOL     OW96569   4.610   4.478   4.652
64891SOL    HW196570   4.588   4.386   4.665
64891SOL    HW296571   4.552   4.525   4.712
64892SOL     OW96572   2.204  13.986   4.128
64892SOL    HW196573   2.226  14.034   4.207
64892SOL    HW296574   2.249  14.033   4.058
64893SOL     OW96575  12.521  13.461   2.469
64893SOL    HW196576  12.476  13.387   2.509
64893SOL    HW296577  12.558  13.509   2.543
64894SOL     OW96578   2.497   6.067   4.911
64894SOL    HW196579   2.536   6.092   4.994
64894SOL    HW296580   2.434   6.136   4.892
64895SOL     OW96581  10.321  14.766   5.267
64895SOL    HW196582  10.281  14.812   5.340
64895SOL    HW296583  10.296  14.817   5.190
64896SOL     OW96584   1.554   0.861  13.882
64896SOL    HW196585   1.568   0.862  13.977
64896SOL    HW296586   1.458   0.859  13.873
64897SOL     OW96587   7.283   0.432  12.735
64897SOL    HW196588   7.363   0.438  12.787
64897SOL    HW296589   7.242   0.518  12.745
64898SOL     OW96590   1.353   1.335   9.375
64898SOL    HW196591   1.373   1.411   9.429
64898SOL    HW296592   1.409   1.344   9.298
64899SOL     OW96593  11.399   5.990   7.354
64899SOL    HW196594  11.351   5.940   7.288
64899SOL    HW296595  11.489   5.959   7.347
64900SOL     OW96596   6.791   2.049   4.963
64900SOL    HW196597   6.847   1.983   4.922
64900SOL    HW296598   6.848   2.091   5.028
64901SOL     OW96599  13.404   1.730  11.757
64901SOL    HW196600  13.395   1.671  11.683
64901SOL    HW296601  13.338   1.798  11.741
64902SOL     OW96602   9.953   8.633   9.978
64902SOL    HW196603   9.886   8.700   9.986
64902SOL    HW296604  10.007   8.643  10.057
64903SOL     OW96605   9.578  14.473   0.450
64903SOL    HW196606   9.524  14.397   0.474
64903SOL    HW296607   9.528  14.515   0.380
64904SOL     OW96608   0.629  11.234  13.896
64904SOL    HW196609   0.690  11.165  13.869
64904SOL    HW296610   0.684  11.311  13.909
64905SOL     OW96611  10.627  10.688   1.330
64905SOL    HW196612  10.683  10.681   1.253
64905SOL    HW296613  10.609  10.598   1.355
64906SOL     OW96614   3.110  13.306   1.955
64906SOL    HW196615   3.037  13.361   1.986
64906SOL    HW296616   3.125  13.335   1.865
64907SOL     OW96617   1.058   6.281  12.023
64907SOL    HW196618   1.051   6.287  12.119
64907SOL    HW296619   1.058   6.187  12.005
64908SOL     OW96620  12.767   7.456   0.368
64908SOL    HW196621  12.727   7.400   0.302
64908SOL    HW296622  12.859   7.462   0.343
64909SOL     OW96623  13.300   3.627   6.454
64909SOL    HW196624  13.204   3.629   6.454
64909SOL    HW296625  13.323   3.573   6.379
64910SOL     OW96626  13.626  10.581   5.182
64910SOL    HW196627  13.619  10.492   5.150
64910SOL    HW296628  13.711  10.584   5.225
64911SOL     OW96629   0.268   1.286  12.617
64911SOL    HW196630   0.175   1.271  12.604
64911SOL    HW296631   0.310   1.246  12.540
64912SOL     OW96632  10.456   7.506   8.031
64912SOL    HW196633  10.500   7.533   8.112
64912SOL    HW296634  10.455   7.410   8.036
64913SOL     OW96635   8.550   4.591   4.827
64913SOL    HW196636   8.505   4.582   4.742
64913SOL    HW296637   8.634   4.631   4.805
64914SOL     OW96638  11.270  14.038   3.261
64914SOL    HW196639  11.174  14.040   3.257
64914SOL    HW296640  11.291  14.042   3.354
64915SOL     OW96641  13.489   8.751  11.339
64915SOL    HW196642  13.468   8.841  11.313
64915SOL    HW296643  13.570   8.730  11.292
64916SOL     OW96644   7.139   7.823  12.093
64916SOL    HW196645   7.078   7.805  12.165
64916SOL    HW296646   7.222   7.842  12.137
64917SOL     OW96647  10.886  13.821   9.311
64917SOL    HW196648  10.954  13.754   9.300
64917SOL    HW296649  10.894  13.876   9.232
64918SOL     OW96650   3.576   1.620  12.998
64918SOL    HW196651   3.633   1.690  12.966
64918SOL    HW296652   3.491   1.662  13.009
64919SOL     OW96653  10.645  11.963   6.789
64919SOL    HW196654  10.551  11.974   6.783
64919SOL    HW296655  10.658  11.892   6.852
64920SOL     OW96656   6.051  10.475  10.987
64920SOL    HW196657   5.961  10.500  11.010
64920SOL    HW296658   6.089  10.445  11.070
64921SOL     OW96659   9.130   1.237   9.875
64921SOL    HW196660   9.168   1.179   9.941
64921SOL    HW296661   9.206   1.270   9.826
64922SOL     OW96662   5.396   7.530   2.427
64922SOL    HW196663   5.415   7.478   2.505
64922SOL    HW296664   5.305   7.511   2.406
64923SOL     OW96665   0.748   5.446   3.455
64923SOL    HW196666   0.834   5.487   3.445
64923SOL    HW296667   0.753   5.366   3.403
64924SOL     OW96668  13.319  12.435   3.968
64924SOL    HW196669  13.399  12.385   3.954
64924SOL    HW296670  13.304  12.482   3.886
64925SOL     OW96671   7.103   3.357  11.397
64925SOL    HW196672   7.060   3.442  11.397
64925SOL    HW296673   7.045   3.301  11.450
64926SOL     OW96674   7.950   0.234   1.182
64926SOL    HW196675   7.962   0.295   1.109
64926SOL    HW296676   7.875   0.180   1.155
64927SOL     OW96677   9.672   8.821  11.815
64927SOL    HW196678   9.607   8.885  11.845
64927SOL    HW296679   9.740   8.823  11.882
64928SOL     OW96680   9.428  10.770   4.166
64928SOL    HW196681   9.490  10.749   4.096
64928SOL    HW296682   9.342  10.745   4.130
64929SOL     OW96683   5.370   4.761   9.518
64929SOL    HW196684   5.411   4.839   9.480
64929SOL    HW296685   5.359   4.701   9.444
64930SOL     OW96686   2.122   0.612   7.873
64930SOL    HW196687   2.159   0.600   7.786
64930SOL    HW296688   2.164   0.692   7.906
64931SOL     OW96689  10.629   4.255   0.837
64931SOL    HW196690  10.637   4.284   0.746
64931SOL    HW296691  10.659   4.164   0.836
64932SOL     OW96692   7.787   3.284   2.146
64932SOL    HW196693   7.800   3.197   2.183
64932SOL    HW296694   7.693   3.301   2.159
64933SOL     OW96695   8.865  14.664   8.848
64933SOL    HW196696   8.935  14.690   8.788
64933SOL    HW296697   8.882  14.714   8.928
64934SOL     OW96698   2.178   0.810  12.410
64934SOL    HW196699   2.123   0.823  12.487
64934SOL    HW296700   2.122   0.832  12.336
64935SOL     OW96701   7.585  14.466   2.714
64935SOL    HW196702   7.665  14.422   2.745
64935SOL    HW296703   7.546  14.502   2.793
64936SOL     OW96704   2.879  12.244  12.817
64936SOL    HW196705   2.829  12.173  12.777
64936SOL    HW296706   2.814  12.293  12.868
64937SOL     OW96707   9.577   6.734   3.623
64937SOL    HW196708   9.556   6.812   3.570
64937SOL    HW296709   9.613   6.672   3.560
64938SOL     OW96710  14.168  11.849  11.343
64938SOL    HW196711  14.227  11.819  11.412
64938SOL    HW296712  14.206  11.932  11.314
64939SOL     OW96713   7.414   2.506  13.457
64939SOL    HW196714   7.441   2.585  13.410
64939SOL    HW296715   7.435   2.525  13.549
64940SOL     OW96716  12.567   2.919   5.751
64940SOL    HW196717  12.478   2.886   5.766
64940SOL    HW296718  12.594   2.953   5.836
64941SOL     OW96719   9.993   6.267  10.779
64941SOL    HW196720   9.912   6.315  10.795
64941SOL    HW296721  10.041   6.273  10.862
64942SOL     OW96722   1.839  10.075   4.444
64942SOL    HW196723   1.929  10.077   4.476
64942SOL    HW296724   1.843  10.021   4.365
64943SOL     OW96725   8.457   3.530   7.411
64943SOL    HW196726   8.547   3.503   7.396
64943SOL    HW296727   8.445   3.607   7.355
64944SOL     OW96728   2.942  14.818  13.948
64944SOL    HW196729   3.021   0.002  13.947
64944SOL    HW296730   2.880  14.866  14.003
64945SOL     OW96731   2.379   8.609  10.472
64945SOL    HW196732   2.464   8.598  10.516
64945SOL    HW296733   2.387   8.692  10.426
64946SOL     OW96734  14.673  11.656   4.993
64946SOL    HW196735  14.615  11.732   4.985
64946SOL    HW296736  14.721  11.671   5.075
64947SOL     OW96737   3.845  13.006   0.186
64947SOL    HW196738   3.892  13.090   0.187
64947SOL    HW296739   3.914  12.941   0.199
64948SOL     OW96740   5.786  11.547   3.675
64948SOL    HW196741   5.732  11.617   3.638
64948SOL    HW296742   5.762  11.469   3.625
64949SOL     OW96743   0.169   9.859   0.900
64949SOL    HW196744   0.237   9.917   0.865
64949SOL    HW296745   0.098   9.919   0.924
64950SOL     OW96746   1.923   7.882   2.198
64950SOL    HW196747   1.883   7.797   2.218
64950SOL    HW296748   1.971   7.904   2.278
64951SOL     OW96749  12.967  10.851   2.694
64951SOL    HW196750  12.938  10.906   2.767
64951SOL    HW296751  12.969  10.910   2.619
64952SOL     OW96752  11.521  14.294   2.860
64952SOL    HW196753  11.508  14.351   2.785
64952SOL    HW296754  11.432  14.268   2.886
64953SOL     OW96755   2.279  13.669   7.464
64953SOL    HW196756   2.230  13.619   7.399
64953SOL    HW296757   2.308  13.748   7.416
64954SOL     OW96758   3.473  11.067   1.972
64954SOL    HW196759   3.449  11.088   2.062
64954SOL    HW296760   3.523  11.143   1.942
64955SOL     OW96761   8.456  14.632   5.480
64955SOL    HW196762   8.415  14.572   5.542
64955SOL    HW296763   8.548  14.603   5.477
64956SOL     OW96764   5.294  10.489   4.367
64956SOL    HW196765   5.325  10.579   4.377
64956SOL    HW296766   5.306  10.470   4.274
64957SOL     OW96767   9.191  14.105   9.437
64957SOL    HW196768   9.191  14.180   9.497
64957SOL    HW296769   9.204  14.144   9.350
64958SOL     OW96770   5.802   5.552  13.524
64958SOL    HW196771   5.779   5.460  13.510
64958SOL    HW296772   5.879   5.567  13.470
64959SOL     OW96773   2.981  10.797   4.645
64959SOL    HW196774   2.892  10.817   4.674
64959SOL    HW296775   2.978  10.807   4.550
64960SOL     OW96776  10.007   2.011   2.962
64960SOL    HW196777  10.088   1.960   2.969
64960SOL    HW296778   9.945   1.965   3.019
64961SOL     OW96779   1.338   7.799  13.366
64961SOL    HW196780   1.318   7.877  13.315
64961SOL    HW296781   1.398   7.748  13.311
64962SOL     OW96782   4.841   1.173   3.276
64962SOL    HW196783   4.896   1.181   3.198
64962SOL    HW296784   4.792   1.092   3.263
64963SOL     OW96785  11.090  10.556   7.150
64963SOL    HW196786  11.052  10.624   7.095
64963SOL    HW296787  11.015  10.500   7.173
64964SOL     OW96788   5.258   8.949  12.964
64964SOL    HW196789   5.195   9.017  12.938
64964SOL    HW296790   5.256   8.886  12.892
64965SOL     OW96791   7.269  11.400   7.631
64965SOL    HW196792   7.299  11.491   7.637
64965SOL    HW296793   7.204  11.401   7.560
64966SOL     OW96794  12.609   4.709   3.681
64966SOL    HW196795  12.588   4.758   3.761
64966SOL    HW296796  12.547   4.742   3.616
64967SOL     OW96797   3.221   1.230  12.203
64967SOL    HW196798   3.299   1.178  12.225
64967SOL    HW296799   3.201   1.204  12.113
64968SOL     OW96800   0.506   3.979   7.100
64968SOL    HW196801   0.566   3.971   7.174
64968SOL    HW296802   0.432   4.030   7.134
64969SOL     OW96803  14.129  14.671   3.739
64969SOL    HW196804  14.056  14.609   3.746
64969SOL    HW296805  14.086  14.756   3.726
64970SOL     OW96806   7.869  13.366   9.788
64970SOL    HW196807   7.855  13.273   9.808
64970SOL    HW296808   7.872  13.409   9.873
64971SOL     OW96809   1.723   1.442   1.520
64971SOL    HW196810   1.681   1.356   1.523
64971SOL    HW296811   1.754   1.450   1.430
64972SOL     OW96812   7.771  11.419   1.797
64972SOL    HW196813   7.780  11.329   1.766
64972SOL    HW296814   7.696  11.454   1.750
64973SOL     OW96815  13.541   4.620   1.041
64973SOL    HW196816  13.541   4.528   1.067
64973SOL    HW296817  13.601   4.624   0.966
64974SOL     OW96818   6.283  10.824   1.087
64974SOL    HW196819   6.277  10.730   1.103
64974SOL    HW296820   6.201  10.859   1.121
64975SOL     OW96821  12.623   0.087   5.953
64975SOL    HW196822  12.594   0.143   5.881
64975SOL    HW296823  12.663   0.012   5.909
64976SOL     OW96824  11.719   9.637   8.762
64976SOL    HW196825  11.766   9.721   8.764
64976SOL    HW296826  11.683   9.628   8.851
64977SOL     OW96827  13.108   9.593   3.851
64977SOL    HW196828  13.065   9.611   3.767
64977SOL    HW296829  13.158   9.672   3.869
64978SOL     OW96830  14.796   4.327  11.638
64978SOL    HW196831  14.740   4.401  11.617
64978SOL    HW296832   0.015   4.360  11.627
64979SOL     OW96833   0.121  10.968  12.435
64979SOL    HW196834   0.112  10.903  12.365
64979SOL    HW296835   0.142  11.049  12.389
64980SOL     OW96836  12.549  10.992  13.845
64980SOL    HW196837  12.557  10.959  13.934
64980SOL    HW296838  12.494  10.928  13.800
64981SOL     OW96839   2.872   5.014   5.999
64981SOL    HW196840   2.864   4.926   6.034
64981SOL    HW296841   2.789   5.031   5.956
64982SOL     OW96842   3.960  13.468   9.645
64982SOL    HW196843   4.025  13.416   9.598
64982SOL    HW296844   3.878  13.448   9.601
64983SOL     OW96845   9.952  10.570   4.099
64983SOL    HW196846  10.021  10.607   4.044
64983SOL    HW296847   9.932  10.485   4.059
64984SOL     OW96848  12.698   1.897   1.763
64984SOL    HW196849  12.632   1.957   1.799
64984SOL    HW296850  12.703   1.920   1.670
64985SOL     OW96851   8.768  10.732   0.228
64985SOL    HW196852   8.721  10.741   0.311
64985SOL    HW296853   8.818  10.812   0.220
64986SOL     OW96854   3.020   8.774  13.099
64986SOL    HW196855   3.097   8.823  13.128
64986SOL    HW296856   3.010   8.704  13.163
64987SOL     OW96857   4.169  12.122   1.488
64987SOL    HW196858   4.097  12.087   1.435
64987SOL    HW296859   4.243  12.126   1.428
64988SOL     OW96860   5.503  13.075   4.754
64988SOL    HW196861   5.497  13.131   4.831
64988SOL    HW296862   5.446  13.117   4.689
64989SOL     OW96863   5.904  11.278   0.622
64989SOL    HW196864   5.891  11.185   0.601
64989SOL    HW296865   5.890  11.323   0.539
64990SOL     OW96866   4.858   0.602   9.129
64990SOL    HW196867   4.768   0.633   9.141
64990SOL    HW296868   4.912   0.671   9.169
64991SOL     OW96869  13.338  13.577   2.684
64991SOL    HW196870  13.286  13.568   2.604
64991SOL    HW296871  13.396  13.501   2.684
64992SOL     OW96872  13.466   9.323   9.546
64992SOL    HW196873  13.456   9.353   9.456
64992SOL    HW296874  13.496   9.400   9.594
64993SOL     OW96875   6.159  14.061   4.935
64993SOL    HW196876   6.167  14.005   5.012
64993SOL    HW296877   6.066  14.081   4.929
64994SOL     OW96878   8.400  10.372   3.770
64994SOL    HW196879   8.353  10.450   3.741
64994SOL    HW296880   8.472  10.405   3.823
64995SOL     OW96881   9.662  11.970  14.136
64995SOL    HW196882   9.724  11.992  14.067
64995SOL    HW296883   9.699  12.008  14.215
64996SOL     OW96884   9.884   4.124   0.169
64996SOL    HW196885   9.916   4.204   0.211
64996SOL    HW296886   9.835   4.079   0.237
64997SOL     OW96887  12.016  14.297   1.575
64997SOL    HW196888  11.969  14.216   1.596
64997SOL    HW296889  12.099  14.289   1.621
64998SOL     OW96890   8.235   0.236   0.169
64998SOL    HW196891   8.287   0.317   0.176
64998SOL    HW296892   8.297   0.170   0.138
64999SOL     OW96893   5.352   9.750   1.069
64999SOL    HW196894   5.349   9.698   1.149
64999SOL    HW296895   5.366   9.840   1.099
65000SOL     OW96896   5.663   6.586   9.867
65000SOL    HW196897   5.715   6.662   9.840
65000SOL    HW296898   5.613   6.563   9.789
65001SOL     OW96899   7.370   7.791  14.109
65001SOL    HW196900   7.320   7.855  14.159
65001SOL    HW296901   7.348   7.808  14.018
65002SOL     OW96902  10.121   6.437  13.638
65002SOL    HW196903  10.056   6.412  13.572
65002SOL    HW296904  10.121   6.533  13.637
65003SOL     OW96905   3.574  11.891   7.330
65003SOL    HW196906   3.563  11.974   7.375
65003SOL    HW296907   3.485  11.863   7.309
65004SOL     OW96908   3.734  14.393  14.208
65004SOL    HW196909   3.784  14.312  14.220
65004SOL    HW296910   3.714  14.422  14.297
65005SOL     OW96911  13.259   4.006   8.343
65005SOL    HW196912  13.164   3.996   8.350
65005SOL    HW296913  13.277   4.089   8.387
65006SOL     OW96914  11.070   8.729   8.676
65006SOL    HW196915  11.121   8.795   8.723
65006SOL    HW296916  11.120   8.712   8.596
65007SOL     OW96917   4.869  12.252  12.436
65007SOL    HW196918   4.912  12.223  12.356
65007SOL    HW296919   4.902  12.193  12.504
65008SOL     OW96920   5.338  14.221   5.705
65008SOL    HW196921   5.390  14.153   5.662
65008SOL    HW296922   5.387  14.301   5.691
65009SOL     OW96923   3.290   7.319   9.548
65009SOL    HW196924   3.267   7.351   9.461
65009SOL    HW296925   3.218   7.261   9.572
65010SOL     OW96926   3.579   4.276   4.030
65010SOL    HW196927   3.659   4.224   4.025
65010SOL    HW296928   3.569   4.295   4.124
65011SOL     OW96929   2.718   5.285  14.238
65011SOL    HW196930   2.801   5.325  14.214
65011SOL    HW296931   2.665   5.357  14.273
65012SOL     OW96932  13.169   1.178  13.088
65012SOL    HW196933  13.138   1.220  13.007
65012SOL    HW296934  13.263   1.168  13.076
65013SOL     OW96935   3.478   9.237  12.693
65013SOL    HW196936   3.478   9.331  12.710
65013SOL    HW296937   3.413   9.225  12.624
65014SOL     OW96938  11.331  10.652   1.309
65014SOL    HW196939  11.382  10.619   1.383
65014SOL    HW296940  11.366  10.739   1.292
65015SOL     OW96941  14.787   7.030   1.320
65015SOL    HW196942  14.783   7.123   1.296
65015SOL    HW296943  14.842   6.990   1.252
65016SOL     OW96944   5.070  13.869   8.085
65016SOL    HW196945   5.116  13.893   8.004
65016SOL    HW296946   5.001  13.935   8.093
65017SOL     OW96947   7.236  12.251   4.109
65017SOL    HW196948   7.293  12.316   4.149
65017SOL    HW296949   7.292  12.174   4.097
65018SOL     OW96950   7.377   7.863  12.806
65018SOL    HW196951   7.282   7.852  12.811
65018SOL    HW296952   7.392   7.954  12.833
65019SOL     OW96953   8.788   6.047   6.380
65019SOL    HW196954   8.765   5.955   6.387
65019SOL    HW296955   8.795   6.077   6.471
65020SOL     OW96956   6.744   4.044   1.207
65020SOL    HW196957   6.824   4.085   1.175
65020SOL    HW296958   6.749   3.954   1.175
65021SOL     OW96959  12.364   2.676   4.964
65021SOL    HW196960  12.290   2.625   4.932
65021SOL    HW296961  12.435   2.612   4.972
65022SOL     OW96962   7.953   7.742  11.550
65022SOL    HW196963   7.954   7.773  11.459
65022SOL    HW296964   7.968   7.648  11.544
65023SOL     OW96965   0.880   1.406   3.226
65023SOL    HW196966   0.798   1.437   3.265
65023SOL    HW296967   0.927   1.486   3.201
65024SOL     OW96968  13.618  12.739   4.655
65024SOL    HW196969  13.585  12.799   4.722
65024SOL    HW296970  13.700  12.706   4.690
65025SOL     OW96971  12.368   8.573   2.203
65025SOL    HW196972  12.348   8.575   2.109
65025SOL    HW296973  12.385   8.481   2.222
65026SOL     OW96974   8.918   7.025  11.103
65026SOL    HW196975   8.888   7.009  11.014
65026SOL    HW296976   8.935   6.938  11.139
65027SOL     OW96977  12.129  13.656  10.726
65027SOL    HW196978  12.173  13.571  10.727
65027SOL    HW296979  12.047  13.642  10.772
65028SOL     OW96980  10.391   8.533   2.432
65028SOL    HW196981  10.361   8.477   2.360
65028SOL    HW296982  10.446   8.476   2.485
65029SOL     OW96983   8.388   7.387   0.401
65029SOL    HW196984   8.461   7.401   0.462
65029SOL    HW296985   8.350   7.474   0.390
65030SOL     OW96986  13.223   3.395   0.231
65030SOL    HW196987  13.275   3.467   0.268
65030SOL    HW296988  13.286   3.343   0.182
65031SOL     OW96989  10.658  12.206  10.293
65031SOL    HW196990  10.622  12.191  10.206
65031SOL    HW296991  10.581  12.223  10.348
65032SOL     OW96992   5.907   4.816   6.104
65032SOL    HW196993   5.856   4.777   6.033
65032SOL    HW296994   5.843   4.862   6.158
65033SOL     OW96995   3.494   3.501   7.527
65033SOL    HW196996   3.450   3.579   7.561
65033SOL    HW296997   3.585   3.509   7.556
65034SOL     OW96998   4.611   0.058   1.899
65034SOL    HW196999   4.573   0.050   1.987
65034SOL    HW297000   4.644   0.147   1.896
65035SOL     OW97001   9.365   4.127  11.224
65035SOL    HW197002   9.349   4.220  11.239
65035SOL    HW297003   9.291   4.099  11.169
65036SOL     OW97004  14.458  13.502  12.003
65036SOL    HW197005  14.463  13.465  12.091
65036SOL    HW297006  14.364  13.504  11.983
65037SOL     OW97007   9.386   2.553   4.883
65037SOL    HW197008   9.402   2.466   4.920
65037SOL    HW297009   9.296   2.574   4.908
65038SOL     OW97010  13.223  13.445   0.931
65038SOL    HW197011  13.226  13.406   1.019
65038SOL    HW297012  13.248  13.374   0.873
65039SOL     OW97013  10.219  13.072   6.247
65039SOL    HW197014  10.193  13.141   6.307
65039SOL    HW297015  10.282  13.113   6.188
65040SOL     OW97016   5.083  10.119   7.043
65040SOL    HW197017   5.151  10.076   7.094
65040SOL    HW297018   5.002  10.098   7.090
65041SOL     OW97019   6.395  10.830  14.090
65041SOL    HW197020   6.468  10.797  14.037
65041SOL    HW297021   6.433  10.843  14.177
65042SOL     OW97022  12.536   4.220   5.295
65042SOL    HW197023  12.478   4.145   5.307
65042SOL    HW297024  12.478   4.296   5.297
65043SOL     OW97025  11.880   0.071   5.060
65043SOL    HW197026  11.964   0.055   5.015
65043SOL    HW297027  11.841   0.145   5.014
65044SOL     OW97028   7.733   5.202  12.624
65044SOL    HW197029   7.678   5.268  12.667
65044SOL    HW297030   7.744   5.133  12.690
65045SOL     OW97031  10.208   2.484  10.285
65045SOL    HW197032  10.256   2.551  10.237
65045SOL    HW297033  10.254   2.477  10.369
65046SOL     OW97034  13.239   8.038   4.484
65046SOL    HW197035  13.303   8.016   4.551
65046SOL    HW297036  13.283   8.020   4.401
65047SOL     OW97037   8.896  11.695  12.977
65047SOL    HW197038   8.891  11.790  12.963
65047SOL    HW297039   8.990  11.676  12.980
65048SOL     OW97040   2.253   6.135   9.516
65048SOL    HW197041   2.185   6.068   9.506
65048SOL    HW297042   2.312   6.099   9.582
65049SOL     OW97043   0.109   3.968   9.888
65049SOL    HW197044   0.092   4.056   9.921
65049SOL    HW297045   0.177   3.980   9.822
65050SOL     OW97046  14.408   4.463   9.105
65050SOL    HW197047  14.410   4.434   9.014
65050SOL    HW297048  14.478   4.412   9.148
65051SOL     OW97049  13.628   1.166  14.407
65051SOL    HW197050  13.539   1.157  14.443
65051SOL    HW297051  13.671   1.229  14.465
65052SOL     OW97052   8.223   3.212  10.632
65052SOL    HW197053   8.148   3.208  10.691
65052SOL    HW297054   8.251   3.304  10.635
65053SOL     OW97055   0.535   6.659   9.013
65053SOL    HW197056   0.627   6.634   9.005
65053SOL    HW297057   0.492   6.619   8.938
65054SOL     OW97058   9.155   6.501   9.657
65054SOL    HW197059   9.240   6.543   9.649
65054SOL    HW297060   9.093   6.572   9.668
65055SOL     OW97061   1.851   2.311  12.136
65055SOL    HW197062   1.847   2.287  12.043
65055SOL    HW297063   1.798   2.390  12.143
65056SOL     OW97064  11.384   6.146   8.224
65056SOL    HW197065  11.342   6.209   8.166
65056SOL    HW297066  11.465   6.123   8.179
65057SOL     OW97067  12.006   2.698   4.472
65057SOL    HW197068  11.959   2.700   4.389
65057SOL    HW297069  11.939   2.716   4.538
65058SOL     OW97070  10.415   0.503  13.083
65058SOL    HW197071  10.390   0.591  13.054
65058SOL    HW297072  10.479   0.474  13.018
65059SOL     OW97073   8.704   2.000   9.752
65059SOL    HW197074   8.618   1.966   9.778
65059SOL    HW297075   8.710   2.085   9.797
65060SOL     OW97076   6.985  12.721   4.307
65060SOL    HW197077   6.955  12.656   4.242
65060SOL    HW297078   6.913  12.726   4.369
65061SOL     OW97079   4.564  14.770   4.002
65061SOL    HW197080   4.564  14.724   4.087
65061SOL    HW297081   4.629  14.839   4.012
65062SOL     OW97082   3.539  12.529   1.068
65062SOL    HW197083   3.592  12.476   1.008
65062SOL    HW297084   3.450  12.496   1.058
65063SOL     OW97085   6.958   9.357   3.181
65063SOL    HW197086   6.916   9.316   3.106
65063SOL    HW297087   7.015   9.289   3.217
65064SOL     OW97088  11.161   1.125  12.377
65064SOL    HW197089  11.148   1.220  12.377
65064SOL    HW297090  11.247   1.113  12.417
65065SOL     OW97091  14.184  12.827   9.903
65065SOL    HW197092  14.277  12.829   9.882
65065SOL    HW297093  14.181  12.838   9.998
65066SOL     OW97094  12.867   7.645   8.264
65066SOL    HW197095  12.782   7.605   8.247
65066SOL    HW297096  12.888   7.620   8.354
65067SOL     OW97097  12.711   1.124   6.867
65067SOL    HW197098  12.769   1.181   6.918
65067SOL    HW297099  12.708   1.165   6.780
65068SOL     OW97100  14.154   7.366   2.082
65068SOL    HW197101  14.138   7.278   2.047
65068SOL    HW297102  14.237   7.358   2.130
65069SOL     OW97103   8.772   4.825   1.393
65069SOL    HW197104   8.778   4.743   1.441
65069SOL    HW297105   8.853   4.872   1.414
65070SOL     OW97106   7.813   8.613  14.005
65070SOL    HW197107   7.726   8.585  13.978
65070SOL    HW297108   7.836   8.683  13.945
65071SOL     OW97109  14.656  12.157   6.906
65071SOL    HW197110  14.712  12.112   6.968
65071SOL    HW297111  14.597  12.209   6.960
65072SOL     OW97112   6.488  13.579  14.729
65072SOL    HW197113   6.462  13.493  14.697
65072SOL    HW297114   6.406  13.628  14.737
65073SOL     OW97115  11.669   8.710   1.640
65073SOL    HW197116  11.744   8.767   1.658
65073SOL    HW297117  11.644   8.674   1.725
65074SOL     OW97118   0.226   1.483   8.335
65074SOL    HW197119   0.237   1.457   8.244
65074SOL    HW297120   0.269   1.414   8.386
65075SOL     OW97121   3.773   6.658   2.193
65075SOL    HW197122   3.727   6.720   2.250
65075SOL    HW297123   3.714   6.583   2.187
65076SOL     OW97124  13.582  12.787   2.562
65076SOL    HW197125  13.506  12.758   2.511
65076SOL    HW297126  13.580  12.733   2.641
65077SOL     OW97127  10.133   6.879   8.734
65077SOL    HW197128  10.211   6.928   8.759
65077SOL    HW297129  10.094   6.929   8.663
65078SOL     OW97130   2.484   7.234   4.403
65078SOL    HW197131   2.466   7.260   4.313
65078SOL    HW297132   2.543   7.159   4.396
65079SOL     OW97133   4.533   1.562   7.498
65079SOL    HW197134   4.561   1.490   7.442
65079SOL    HW297135   4.576   1.639   7.460
65080SOL     OW97136   7.110   1.448   6.748
65080SOL    HW197137   7.018   1.472   6.733
65080SOL    HW297138   7.117   1.359   6.713
65081SOL     OW97139   5.210   0.563   1.751
65081SOL    HW197140   5.289   0.617   1.763
65081SOL    HW297141   5.138   0.625   1.756
65082SOL     OW97142   9.025   5.994  10.075
65082SOL    HW197143   9.031   5.923  10.140
65082SOL    HW297144   9.026   6.074  10.128
65083SOL     OW97145   8.128  12.738   3.805
65083SOL    HW197146   8.116  12.681   3.729
65083SOL    HW297147   8.102  12.684   3.880
65084SOL     OW97148   4.408   6.956  10.798
65084SOL    HW197149   4.455   6.895  10.740
65084SOL    HW297150   4.422   6.921  10.886
65085SOL     OW97151   4.790   6.859   3.934
65085SOL    HW197152   4.838   6.909   3.868
65085SOL    HW297153   4.838   6.777   3.942
65086SOL     OW97154  10.351   0.011   7.240
65086SOL    HW197155  10.265   0.032   7.276
65086SOL    HW297156  10.411   0.023   7.314
65087SOL     OW97157   5.647   1.754  10.264
65087SOL    HW197158   5.704   1.831  10.271
65087SOL    HW297159   5.559   1.790  10.260
65088SOL     OW97160   9.133   0.811   7.660
65088SOL    HW197161   9.123   0.876   7.590
65088SOL    HW297162   9.222   0.823   7.693
65089SOL     OW97163   4.773   8.079   3.773
65089SOL    HW197164   4.752   8.060   3.682
65089SOL    HW297165   4.729   8.162   3.791
65090SOL     OW97166   7.141   9.169   0.509
65090SOL    HW197167   7.210   9.103   0.500
65090SOL    HW297168   7.061   9.124   0.482
65091SOL     OW97169  13.890   2.528  12.955
65091SOL    HW197170  13.953   2.458  12.937
65091SOL    HW297171  13.941   2.608  12.952
65092SOL     OW97172   4.537   8.361   3.030
65092SOL    HW197173   4.562   8.319   3.113
65092SOL    HW297174   4.608   8.340   2.970
65093SOL     OW97175  14.280   4.521   6.332
65093SOL    HW197176  14.289   4.464   6.255
65093SOL    HW297177  14.261   4.461   6.404
65094SOL     OW97178  11.972   3.399   7.711
65094SOL    HW197179  11.938   3.487   7.729
65094SOL    HW297180  11.956   3.350   7.791
65095SOL     OW97181   3.884   7.867   1.097
65095SOL    HW197182   3.951   7.871   1.029
65095SOL    HW297183   3.844   7.780   1.085
65096SOL     OW97184   3.481  11.338   0.194
65096SOL    HW197185   3.493  11.270   0.260
65096SOL    HW297186   3.425  11.298   0.128
65097SOL     OW97187  11.400   7.054   2.899
65097SOL    HW197188  11.337   6.985   2.879
65097SOL    HW297189  11.346   7.129   2.924
65098SOL     OW97190   3.606  13.149  10.295
65098SOL    HW197191   3.659  13.228  10.302
65098SOL    HW297192   3.537  13.171  10.233
65099SOL     OW97193  11.811   9.951  11.311
65099SOL    HW197194  11.741   9.994  11.360
65099SOL    HW297195  11.871   9.919  11.379
65100SOL     OW97196   6.992  10.184   9.629
65100SOL    HW197197   6.939  10.145   9.699
65100SOL    HW297198   6.933  10.248   9.588
65101SOL     OW97199  10.760   7.651   2.574
65101SOL    HW197200  10.855   7.647   2.565
65101SOL    HW297201  10.736   7.736   2.537
65102SOL     OW97202  10.777  13.176   5.845
65102SOL    HW197203  10.867  13.208   5.856
65102SOL    HW297204  10.740  13.181   5.933
65103SOL     OW97205  13.241   4.462   1.699
65103SOL    HW197206  13.256   4.368   1.689
65103SOL    HW297207  13.251   4.479   1.793
65104SOL     OW97208  13.952   1.207   4.545
65104SOL    HW197209  14.017   1.230   4.479
65104SOL    HW297210  13.905   1.289   4.562
65105SOL     OW97211   4.560   1.877  14.316
65105SOL    HW197212   4.608   1.894  14.235
65105SOL    HW297213   4.628   1.874  14.384
65106SOL     OW97214  11.645  11.477   4.710
65106SOL    HW197215  11.564  11.456   4.664
65106SOL    HW297216  11.619  11.490   4.801
65107SOL     OW97217   3.159   3.014   7.082
65107SOL    HW197218   3.229   2.960   7.120
65107SOL    HW297219   3.204   3.088   7.042
65108SOL     OW97220  12.541  12.428  12.691
65108SOL    HW197221  12.447  12.418  12.708
65108SOL    HW297222  12.566  12.508  12.738
65109SOL     OW97223  10.123  14.360   8.948
65109SOL    HW197224  10.150  14.294   8.884
65109SOL    HW297225  10.032  14.339   8.967
65110SOL     OW97226   7.469  10.511   9.990
65110SOL    HW197227   7.447  10.433  10.042
65110SOL    HW297228   7.388  10.561   9.987
65111SOL     OW97229  11.738   6.977   8.824
65111SOL    HW197230  11.680   6.914   8.867
65111SOL    HW297231  11.770   7.032   8.896
65112SOL     OW97232   2.651  10.463   9.986
65112SOL    HW197233   2.621  10.402  10.053
65112SOL    HW297234   2.594  10.444   9.910
65113SOL     OW97235   0.503   7.223   1.469
65113SOL    HW197236   0.485   7.291   1.404
65113SOL    HW297237   0.417   7.200   1.504
65114SOL     OW97238   2.090  11.065   5.225
65114SOL    HW197239   2.118  11.021   5.306
65114SOL    HW297240   2.120  11.007   5.155
65115SOL     OW97241   0.842  12.953  11.340
65115SOL    HW197242   0.852  12.908  11.423
65115SOL    HW297243   0.754  12.992  11.344
65116SOL     OW97244   1.396   2.855   8.654
65116SOL    HW197245   1.465   2.889   8.711
65116SOL    HW297246   1.391   2.918   8.582
65117SOL     OW97247   0.851   8.313   0.168
65117SOL    HW197248   0.873   8.305   0.075
65117SOL    HW297249   0.756   8.297   0.172
65118SOL     OW97250   9.145  13.503  11.606
65118SOL    HW197251   9.058  13.513  11.568
65118SOL    HW297252   9.203  13.489  11.531
65119SOL     OW97253   2.859   5.417   2.831
65119SOL    HW197254   2.918   5.371   2.890
65119SOL    HW297255   2.772   5.385   2.855
65120SOL     OW97256   9.045   9.722   9.258
65120SOL    HW197257   9.140   9.723   9.249
65120SOL    HW297258   9.025   9.633   9.289
65121SOL     OW97259   4.528  10.641   6.025
65121SOL    HW197260   4.588  10.682   5.963
65121SOL    HW297261   4.521  10.551   5.995
65122SOL     OW97262   6.201  11.113  13.839
65122SOL    HW197263   6.165  11.025  13.843
65122SOL    HW297264   6.249  11.124  13.922
65123SOL     OW97265   0.938   1.425   7.638
65123SOL    HW197266   0.903   1.472   7.713
65123SOL    HW297267   0.861   1.384   7.598
65124SOL     OW97268   6.458  11.670   1.667
65124SOL    HW197269   6.428  11.616   1.740
65124SOL    HW297270   6.393  11.741   1.661
65125SOL     OW97271   4.667  13.128  13.654
65125SOL    HW197272   4.650  13.148  13.562
65125SOL    HW297273   4.589  13.158  13.700
65126SOL     OW97274  14.818  10.476   3.492
65126SOL    HW197275  14.764  10.488   3.414
65126SOL    HW297276  14.853  10.564   3.510
65127SOL     OW97277   8.189  10.005   3.051
65127SOL    HW197278   8.214   9.928   3.102
65127SOL    HW297279   8.181   9.972   2.961
65128SOL     OW97280  14.274   3.611  10.335
65128SOL    HW197281  14.202   3.553  10.362
65128SOL    HW297282  14.243   3.653  10.255
65129SOL     OW97283  14.104   1.303   9.233
65129SOL    HW197284  14.143   1.216   9.225
65129SOL    HW297285  14.170   1.362   9.196
65130SOL     OW97286   0.056   9.964   1.704
65130SOL    HW197287   0.132   9.925   1.660
65130SOL    HW297288  14.850   9.925   1.660
65131SOL     OW97289  10.414   6.241   5.761
65131SOL    HW197290  10.386   6.291   5.685
65131SOL    HW297291  10.435   6.307   5.827
65132SOL     OW97292  13.909   1.182   8.980
65132SOL    HW197293  13.953   1.250   9.032
65132SOL    HW297294  13.948   1.100   9.010
65133SOL     OW97295   6.406   1.114  14.464
65133SOL    HW197296   6.430   1.082  14.378
65133SOL    HW297297   6.486   1.106  14.516
65134SOL     OW97298   4.044   7.952   4.353
65134SOL    HW197299   3.980   8.000   4.302
65134SOL    HW297300   4.105   8.019   4.385
65135SOL     OW97301  14.619   2.547   9.757
65135SOL    HW197302  14.639   2.459   9.791
65135SOL    HW297303  14.594   2.532   9.666
65136SOL     OW97304   3.776   1.798  12.782
65136SOL    HW197305   3.804   1.708  12.763
65136SOL    HW297306   3.721   1.822  12.707
65137SOL     OW97307  11.435   1.017  11.061
65137SOL    HW197308  11.346   1.024  11.095
65137SOL    HW297309  11.441   1.088  10.996
65138SOL     OW97310   6.527   4.878  11.328
65138SOL    HW197311   6.591   4.875  11.257
65138SOL    HW297312   6.442   4.873  11.284
65139SOL     OW97313   5.952   2.615   1.623
65139SOL    HW197314   5.973   2.664   1.702
65139SOL    HW297315   5.890   2.672   1.576
65140SOL     OW97316   5.772   9.579  11.028
65140SOL    HW197317   5.732   9.499  11.063
65140SOL    HW297318   5.733   9.589  10.941
65141SOL     OW97319   2.057  12.569  14.170
65141SOL    HW197320   2.031  12.477  14.176
65141SOL    HW297321   1.992  12.609  14.113
65142SOL     OW97322   2.794   7.871   3.307
65142SOL    HW197323   2.812   7.864   3.401
65142SOL    HW297324   2.794   7.780   3.276
65143SOL     OW97325  13.822  12.826   0.509
65143SOL    HW197326  13.770  12.867   0.579
65143SOL    HW297327  13.898  12.790   0.554
65144SOL     OW97328   8.594  13.877  12.185
65144SOL    HW197329   8.568  13.896  12.095
65144SOL    HW297330   8.683  13.913  12.192
65145SOL     OW97331  10.445   5.250   5.068
65145SOL    HW197332  10.481   5.232   4.982
65145SOL    HW297333  10.353   5.274   5.051
65146SOL     OW97334  13.018   7.441   0.296
65146SOL    HW197335  13.114   7.440   0.295
65146SOL    HW297336  12.993   7.348   0.295
65147SOL     OW97337  13.475  12.331  13.293
65147SOL    HW197338  13.512  12.259  13.243
65147SOL    HW297339  13.489  12.307  13.385
65148SOL     OW97340   2.260   8.924  11.637
65148SOL    HW197341   2.233   8.855  11.698
65148SOL    HW297342   2.342   8.957  11.673
65149SOL     OW97343   0.755   6.533   4.077
65149SOL    HW197344   0.777   6.488   4.158
65149SOL    HW297345   0.805   6.614   4.079
65150SOL     OW97346   7.178   3.783   3.380
65150SOL    HW197347   7.169   3.768   3.474
65150SOL    HW297348   7.195   3.877   3.371
65151SOL     OW97349  14.578   6.377  10.948
65151SOL    HW197350  14.589   6.414  10.861
65151SOL    HW297351  14.485   6.353  10.953
65152SOL     OW97352   7.026  10.696   7.686
65152SOL    HW197353   7.009  10.689   7.780
65152SOL    HW297354   6.951  10.743   7.651
65153SOL     OW97355   4.957   3.561  10.234
65153SOL    HW197356   4.877   3.538  10.282
65153SOL    HW297357   4.927   3.620  10.165
65154SOL     OW97358  12.215  10.799   3.135
65154SOL    HW197359  12.144  10.820   3.196
65154SOL    HW297360  12.222  10.875   3.078
65155SOL     OW97361  14.711   8.046   0.259
65155SOL    HW197362  14.657   7.969   0.275
65155SOL    HW297363  14.649   8.115   0.238
65156SOL     OW97364   2.570   7.752  14.316
65156SOL    HW197365   2.479   7.734  14.292
65156SOL    HW297366   2.616   7.759  14.232
65157SOL     OW97367   6.082   9.905  14.167
65157SOL    HW197368   6.070   9.877  14.076
65157SOL    HW297369   6.072  10.001  14.163
65158SOL     OW97370   9.108   3.248   8.664
65158SOL    HW197371   9.135   3.299   8.740
65158SOL    HW297372   9.013   3.254   8.663
65159SOL     OW97373   0.313   1.548  12.279
65159SOL    HW197374   0.352   1.567  12.194
65159SOL    HW297375   0.379   1.576  12.342
65160SOL     OW97376   7.282   4.549  12.889
65160SOL    HW197377   7.239   4.540  12.974
65160SOL    HW297378   7.346   4.618  12.902
65161SOL     OW97379  11.372   5.576  14.787
65161SOL    HW197380  11.388   5.650  14.729
65161SOL    HW297381  11.339   5.615  14.867
65162SOL     OW97382  11.826   7.511  11.700
65162SOL    HW197383  11.856   7.425  11.674
65162SOL    HW297384  11.810   7.504  11.794
65163SOL     OW97385   4.870  14.456  11.950
65163SOL    HW197386   4.942  14.445  11.888
65163SOL    HW297387   4.825  14.371  11.950
65164SOL     OW97388  11.072  11.006   9.951
65164SOL    HW197389  11.078  10.914   9.977
65164SOL    HW297390  11.162  11.038   9.954
65165SOL     OW97391   7.638  10.558   7.859
65165SOL    HW197392   7.631  10.638   7.911
65165SOL    HW297393   7.682  10.495   7.916
65166SOL     OW97394   6.669   3.897   1.747
65166SOL    HW197395   6.708   3.955   1.813
65166SOL    HW297396   6.667   3.950   1.667
65167SOL     OW97397  11.232   4.672  11.590
65167SOL    HW197398  11.261   4.582  11.606
65167SOL    HW297399  11.235   4.682  11.495
65168SOL     OW97400   4.253   3.109   2.916
65168SOL    HW197401   4.182   3.064   2.870
65168SOL    HW297402   4.215   3.133   3.000
65169SOL     OW97403  14.709   7.668  12.631
65169SOL    HW197404  14.647   7.732  12.667
65169SOL    HW297405  14.663   7.630  12.556
65170SOL     OW97406   9.865   2.867   6.204
65170SOL    HW197407   9.844   2.858   6.111
65170SOL    HW297408   9.820   2.794   6.246
65171SOL     OW97409   1.935   3.435   3.272
65171SOL    HW197410   2.010   3.387   3.237
65171SOL    HW297411   1.916   3.502   3.206
65172SOL     OW97412   3.739   1.697   8.428
65172SOL    HW197413   3.752   1.609   8.462
65172SOL    HW297414   3.697   1.745   8.500
65173SOL     OW97415  13.895   9.734   5.051
65173SOL    HW197416  13.912   9.645   5.082
65173SOL    HW297417  13.977   9.780   5.066
65174SOL     OW97418   5.176   2.854   1.664
65174SOL    HW197419   5.179   2.830   1.757
65174SOL    HW297420   5.238   2.926   1.656
65175SOL     OW97421   0.381   6.006   3.132
65175SOL    HW197422   0.356   6.088   3.175
65175SOL    HW297423   0.304   5.950   3.142
65176SOL     OW97424   9.178   4.541   9.637
65176SOL    HW197425   9.155   4.607   9.571
65176SOL    HW297426   9.260   4.574   9.675
65177SOL     OW97427   9.497   6.196   7.179
65177SOL    HW197428   9.417   6.142   7.176
65177SOL    HW297429   9.478   6.262   7.246
65178SOL     OW97430   9.087  12.690   2.872
65178SOL    HW197431   9.023  12.728   2.933
65178SOL    HW297432   9.042  12.689   2.788
65179SOL     OW97433   9.462  14.669   2.630
65179SOL    HW197434   9.493  14.595   2.682
65179SOL    HW297435   9.372  14.683   2.660
65180SOL     OW97436   3.488  13.344  14.137
65180SOL    HW197437   3.575  13.339  14.176
65180SOL    HW297438   3.501  13.391  14.055
65181SOL     OW97439  14.439   9.740   7.515
65181SOL    HW197440  14.428   9.727   7.421
65181SOL    HW297441  14.526   9.778   7.524
65182SOL     OW97442   7.263   7.581   6.139
65182SOL    HW197443   7.179   7.537   6.123
65182SOL    HW297444   7.265   7.652   6.075
65183SOL     OW97445   2.386   8.381  12.253
65183SOL    HW197446   2.326   8.454  12.268
65183SOL    HW297447   2.346   8.307  12.298
65184SOL     OW97448   2.309  10.006   8.833
65184SOL    HW197449   2.217  10.002   8.809
65184SOL    HW297450   2.311   9.975   8.924
65185SOL     OW97451   8.208   3.777  14.010
65185SOL    HW197452   8.165   3.747  14.090
65185SOL    HW297453   8.151   3.747  13.940
65186SOL     OW97454  12.892   6.895   0.375
65186SOL    HW197455  12.923   6.950   0.448
65186SOL    HW297456  12.941   6.814   0.384
65187SOL     OW97457   8.912   4.052   8.725
65187SOL    HW197458   8.877   3.963   8.733
65187SOL    HW297459   8.928   4.063   8.631
65188SOL     OW97460   1.411   8.902   0.638
65188SOL    HW197461   1.453   8.963   0.699
65188SOL    HW297462   1.483   8.851   0.601
65189SOL     OW97463   2.397   9.167  13.819
65189SOL    HW197464   2.358   9.202  13.739
65189SOL    HW297465   2.338   9.195  13.889
65190SOL     OW97466   1.253   7.348   8.030
65190SOL    HW197467   1.293   7.387   7.952
65190SOL    HW297468   1.270   7.254   8.021
65191SOL     OW97469   6.096  14.400  10.667
65191SOL    HW197470   6.001  14.403  10.656
65191SOL    HW297471   6.119  14.487  10.700
65192SOL     OW97472   9.089  10.559   2.048
65192SOL    HW197473   9.148  10.561   1.973
65192SOL    HW297474   9.007  10.595   2.016
65193SOL     OW97475   0.926   1.644   8.678
65193SOL    HW197476   0.926   1.549   8.666
65193SOL    HW297477   0.881   1.677   8.601
65194SOL     OW97478  13.927   3.335   8.692
65194SOL    HW197479  13.832   3.331   8.696
65194SOL    HW297480  13.949   3.422   8.726
65195SOL     OW97481   0.277   6.137  13.786
65195SOL    HW197482   0.284   6.232  13.801
65195SOL    HW297483   0.366   6.105  13.797
65196SOL     OW97484   2.331   3.815   8.737
65196SOL    HW197485   2.296   3.893   8.694
65196SOL    HW297486   2.337   3.840   8.830
65197SOL     OW97487   0.631  12.620  10.165
65197SOL    HW197488   0.696  12.584  10.104
65197SOL    HW297489   0.680  12.634  10.247
65198SOL     OW97490  13.337   3.548   6.207
65198SOL    HW197491  13.349   3.455   6.185
65198SOL    HW297492  13.357   3.595   6.126
65199SOL     OW97493   7.184   6.465  10.042
65199SOL    HW197494   7.208   6.396  10.105
65199SOL    HW297495   7.256   6.466   9.979
65200SOL     OW97496  13.042   5.483  12.506
65200SOL    HW197497  13.051   5.406  12.562
65200SOL    HW297498  13.130   5.500  12.474
65201SOL     OW97499   4.284  12.813   2.254
65201SOL    HW197500   4.291  12.856   2.339
65201SOL    HW297501   4.360  12.846   2.205
65202SOL     OW97502   2.304   4.734   3.044
65202SOL    HW197503   2.310   4.682   2.963
65202SOL    HW297504   2.213   4.762   3.048
65203SOL     OW97505   1.885   3.210   6.440
65203SOL    HW197506   1.830   3.134   6.456
65203SOL    HW297507   1.824   3.280   6.418
65204SOL     OW97508  10.009   2.187  11.257
65204SOL    HW197509  10.057   2.256  11.211
65204SOL    HW297510   9.944   2.156  11.194
65205SOL     OW97511  11.343   7.506   8.552
65205SOL    HW197512  11.297   7.422   8.550
65205SOL    HW297513  11.295   7.558   8.617
65206SOL     OW97514   2.560   7.321  11.647
65206SOL    HW197515   2.565   7.338  11.553
65206SOL    HW297516   2.588   7.231  11.657
65207SOL     OW97517   1.820   7.961   4.889
65207SOL    HW197518   1.833   7.869   4.867
65207SOL    HW297519   1.745   7.961   4.949
65208SOL     OW97520   3.687  11.265   7.103
65208SOL    HW197521   3.744  11.281   7.028
65208SOL    HW297522   3.635  11.189   7.078
65209SOL     OW97523   7.890   4.365  11.836
65209SOL    HW197524   7.896   4.424  11.911
65209SOL    HW297525   7.977   4.367  11.796
65210SOL     OW97526  11.188  13.213   1.867
65210SOL    HW197527  11.274  13.247   1.842
65210SOL    HW297528  11.182  13.129   1.822
65211SOL     OW97529   4.520   9.537   0.849
65211SOL    HW197530   4.458   9.474   0.811
65211SOL    HW297531   4.476   9.570   0.927
65212SOL     OW97532  12.844   5.225   1.353
65212SOL    HW197533  12.873   5.144   1.394
65212SOL    HW297534  12.922   5.258   1.308
65213SOL     OW97535  10.323   7.660   8.364
65213SOL    HW197536  10.350   7.637   8.453
65213SOL    HW297537  10.342   7.583   8.312
65214SOL     OW97538  12.018  11.726  11.345
65214SOL    HW197539  12.083  11.659  11.325
65214SOL    HW297540  11.944  11.705  11.287
65215SOL     OW97541   0.826   0.182  12.878
65215SOL    HW197542   0.856   0.261  12.923
65215SOL    HW297543   0.779   0.215  12.801
65216SOL     OW97544   0.909   7.945   7.462
65216SOL    HW197545   0.871   8.022   7.417
65216SOL    HW297546   0.990   7.977   7.500
65217SOL     OW97547  10.810   2.952   2.001
65217SOL    HW197548  10.838   3.021   2.062
65217SOL    HW297549  10.838   2.984   1.915
65218SOL     OW97550  11.620  13.095   1.162
65218SOL    HW197551  11.670  13.125   1.086
65218SOL    HW297552  11.529  13.093   1.131
65219SOL     OW97553   4.758  14.065   9.369
65219SOL    HW197554   4.775  13.973   9.351
65219SOL    HW297555   4.729  14.102   9.286
65220SOL     OW97556   0.135   7.873  10.759
65220SOL    HW197557   0.105   7.963  10.742
65220SOL    HW297558   0.082   7.844  10.833
65221SOL     OW97559  12.737   2.037  12.391
65221SOL    HW197560  12.704   2.050  12.303
65221SOL    HW297561  12.691   2.101  12.444
65222SOL     OW97562   2.870   5.191   8.848
65222SOL    HW197563   2.866   5.127   8.918
65222SOL    HW297564   2.963   5.209   8.837
65223SOL     OW97565   9.446   6.176   3.838
65223SOL    HW197566   9.436   6.107   3.904
65223SOL    HW297567   9.466   6.255   3.889
65224SOL     OW97568   7.178   7.449   8.519
65224SOL    HW197569   7.208   7.417   8.604
65224SOL    HW297570   7.165   7.543   8.531
65225SOL     OW97571   9.089  13.866   1.816
65225SOL    HW197572   9.047  13.948   1.843
65225SOL    HW297573   9.027  13.797   1.840
65226SOL     OW97574   3.632   1.222   5.180
65226SOL    HW197575   3.720   1.194   5.203
65226SOL    HW297576   3.640   1.252   5.089
65227SOL     OW97577   5.513   0.398   5.696
65227SOL    HW197578   5.418   0.392   5.701
65227SOL    HW297579   5.543   0.307   5.700
65228SOL     OW97580   9.681  10.123   8.369
65228SOL    HW197581   9.684  10.050   8.430
65228SOL    HW297582   9.588  10.144   8.361
65229SOL     OW97583   2.582  10.251   8.320
65229SOL    HW197584   2.574  10.156   8.307
65229SOL    HW297585   2.492  10.280   8.336
65230SOL     OW97586   8.791   1.965   5.132
65230SOL    HW197587   8.732   2.040   5.126
65230SOL    HW297588   8.754   1.901   5.070
65231SOL     OW97589   2.451   9.916   0.590
65231SOL    HW197590   2.461  10.011   0.584
65231SOL    HW297591   2.540   9.883   0.590
65232SOL     OW97592   3.405   1.178  12.680
65232SOL    HW197593   3.322   1.223  12.695
65232SOL    HW297594   3.437   1.156  12.767
65233SOL     OW97595   1.311  10.833   1.117
65233SOL    HW197596   1.301  10.840   1.023
65233SOL    HW297597   1.395  10.790   1.130
65234SOL     OW97598   8.553   0.420  12.549
65234SOL    HW197599   8.523   0.345  12.602
65234SOL    HW297600   8.648   0.410  12.546
65235SOL     OW97601  10.577   6.121   7.043
65235SOL    HW197602  10.499   6.162   7.080
65235SOL    HW297603  10.628   6.194   7.008
65236SOL     OW97604   8.045   8.684  12.447
65236SOL    HW197605   8.038   8.760  12.391
65236SOL    HW297606   7.954   8.657  12.462
65237SOL     OW97607   2.238   1.773   7.894
65237SOL    HW197608   2.285   1.857   7.897
65237SOL    HW297609   2.159   1.788   7.946
65238SOL     OW97610   6.746  13.258   3.750
65238SOL    HW197611   6.758  13.180   3.696
65238SOL    HW297612   6.789  13.236   3.833
65239SOL     OW97613   5.984   2.544  13.299
65239SOL    HW197614   6.055   2.482  13.316
65239SOL    HW297615   5.984   2.603  13.375
65240SOL     OW97616   7.386  10.223  14.094
65240SOL    HW197617   7.304  10.266  14.121
65240SOL    HW297618   7.407  10.264  14.010
65241SOL     OW97619   1.770   2.331   3.419
65241SOL    HW197620   1.860   2.364   3.425
65241SOL    HW297621   1.760   2.303   3.328
65242SOL     OW97622  10.036   2.263   3.060
65242SOL    HW197623  10.062   2.208   2.987
65242SOL    HW297624   9.952   2.226   3.090
65243SOL     OW97625   3.201   6.694  12.292
65243SOL    HW197626   3.132   6.636  12.261
65243SOL    HW297627   3.157   6.778  12.307
65244SOL     OW97628   5.368   4.253   2.136
65244SOL    HW197629   5.454   4.264   2.094
65244SOL    HW297630   5.367   4.320   2.205
65245SOL     OW97631  14.821   4.829  12.651
65245SOL    HW197632   0.011   4.803  12.720
65245SOL    HW297633   0.000   4.815  12.570
65246SOL     OW97634   6.323   8.813   0.160
65246SOL    HW197635   6.298   8.831   0.251
65246SOL    HW297636   6.240   8.795   0.116
65247SOL     OW97637   7.326  13.283  14.281
65247SOL    HW197638   7.233  13.293  14.304
65247SOL    HW297639   7.346  13.192  14.300
65248SOL     OW97640  12.352   0.990   3.035
65248SOL    HW197641  12.337   0.996   3.129
65248SOL    HW297642  12.265   1.000   2.996
65249SOL     OW97643   5.520   9.867  10.460
65249SOL    HW197644   5.581   9.926  10.505
65249SOL    HW297645   5.438   9.915  10.457
65250SOL     OW97646   6.337  11.823   7.518
65250SOL    HW197647   6.374  11.911   7.529
65250SOL    HW297648   6.373  11.792   7.434
65251SOL     OW97649  11.344  10.269  14.279
65251SOL    HW197650  11.326  10.341  14.219
65251SOL    HW297651  11.437  10.280  14.302
65252SOL     OW97652   0.071   3.096  11.293
65252SOL    HW197653   0.154   3.048  11.293
65252SOL    HW297654   0.074   3.148  11.373
65253SOL     OW97655   0.237   2.143   4.509
65253SOL    HW197656   0.284   2.173   4.431
65253SOL    HW297657   0.146   2.167   4.493
65254SOL     OW97658   8.044   6.553  14.199
65254SOL    HW197659   8.071   6.631  14.248
65254SOL    HW297660   8.114   6.539  14.135
65255SOL     OW97661  11.566  14.043   6.812
65255SOL    HW197662  11.516  14.020   6.890
65255SOL    HW297663  11.517  14.116   6.773
65256SOL     OW97664   6.221   8.878   0.765
65256SOL    HW197665   6.171   8.806   0.804
65256SOL    HW297666   6.306   8.875   0.808
65257SOL     OW97667   1.379   2.021  14.664
65257SOL    HW197668   1.373   2.018  14.569
65257SOL    HW297669   1.319   2.091  14.690
65258SOL     OW97670   6.674   0.551   0.773
65258SOL    HW197671   6.655   0.460   0.748
65258SOL    HW297672   6.647   0.556   0.865
65259SOL     OW97673   5.776   6.840   4.875
65259SOL    HW197674   5.718   6.882   4.811
65259SOL    HW297675   5.745   6.749   4.879
65260SOL     OW97676  10.681   8.100   5.548
65260SOL    HW197677  10.744   8.143   5.605
65260SOL    HW297678  10.620   8.056   5.607
65261SOL     OW97679   4.335   9.634  13.466
65261SOL    HW197680   4.324   9.568  13.534
65261SOL    HW297681   4.371   9.710  13.511
65262SOL     OW97682   0.699   6.607  11.561
65262SOL    HW197683   0.625   6.662  11.533
65262SOL    HW297684   0.718   6.552  11.485
65263SOL     OW97685  14.139   9.892  14.839
65263SOL    HW197686  14.110   9.981  14.819
65263SOL    HW297687  14.234   9.899  14.850
65264SOL     OW97688  14.263   6.510  12.400
65264SOL    HW197689  14.168   6.511  12.409
65264SOL    HW297690  14.286   6.601  12.379
65265SOL     OW97691  13.527   8.113  11.269
65265SOL    HW197692  13.546   8.197  11.310
65265SOL    HW297693  13.583   8.051  11.314
65266SOL     OW97694   5.258   7.533   1.674
65266SOL    HW197695   5.348   7.509   1.655
65266SOL    HW297696   5.248   7.620   1.633
65267SOL     OW97697  13.380   4.153   4.926
65267SOL    HW197698  13.376   4.063   4.956
65267SOL    HW297699  13.341   4.151   4.838
65268SOL     OW97700   2.681   6.470  13.337
65268SOL    HW197701   2.737   6.429  13.402
65268SOL    HW297702   2.742   6.506  13.272
65269SOL     OW97703   4.163   3.228   9.563
65269SOL    HW197704   4.248   3.272   9.555
65269SOL    HW297705   4.101   3.299   9.579
65270SOL     OW97706  14.190   5.717  11.308
65270SOL    HW197707  14.219   5.626  11.304
65270SOL    HW297708  14.132   5.721  11.383
65271SOL     OW97709   4.393  12.655  12.898
65271SOL    HW197710   4.350  12.672  12.982
65271SOL    HW297711   4.329  12.605  12.847
65272SOL     OW97712  11.824   1.394  12.363
65272SOL    HW197713  11.773   1.474  12.371
65272SOL    HW297714  11.899   1.407  12.421
65273SOL     OW97715   7.785   3.977  13.645
65273SOL    HW197716   7.849   3.969  13.716
65273SOL    HW297717   7.704   3.941  13.681
65274SOL     OW97718   0.217   0.957   3.061
65274SOL    HW197719   0.214   0.987   3.152
65274SOL    HW297720   0.223   0.862   3.067
65275SOL     OW97721   4.619   2.532  11.380
65275SOL    HW197722   4.558   2.554  11.451
65275SOL    HW297723   4.583   2.577  11.303
65276SOL     OW97724  14.812  11.478  12.318
65276SOL    HW197725  14.861  11.466  12.238
65276SOL    HW297726  14.808  11.573  12.330
65277SOL     OW97727   5.866   7.497  14.377
65277SOL    HW197728   5.875   7.592  14.390
65277SOL    HW297729   5.776   7.477  14.404
65278SOL     OW97730   5.443  14.850   1.225
65278SOL    HW197731   5.456  14.755   1.227
65278SOL    HW297732   5.422   0.000   1.134
65279SOL     OW97733   3.191   9.015  13.649
65279SOL    HW197734   3.238   9.074  13.590
65279SOL    HW297735   3.220   9.042  13.737
65280SOL     OW97736  14.556  10.284  13.174
65280SOL    HW197737  14.623  10.220  13.196
65280SOL    HW297738  14.598  10.369  13.190
65281SOL     OW97739   6.953   8.401   9.804
65281SOL    HW197740   6.957   8.390   9.899
65281SOL    HW297741   7.041   8.428   9.779
65282SOL     OW97742  14.318   0.567   2.744
65282SOL    HW197743  14.256   0.635   2.770
65282SOL    HW297744  14.395   0.583   2.799
65283SOL     OW97745  11.201  12.389  14.106
65283SOL    HW197746  11.109  12.405  14.087
65283SOL    HW297747  11.208  12.397  14.201
65284SOL     OW97748   6.735   2.157  11.039
65284SOL    HW197749   6.791   2.212  11.092
65284SOL    HW297750   6.790   2.130  10.965
65285SOL     OW97751   0.821  14.364   3.670
65285SOL    HW197752   0.766  14.412   3.609
65285SOL    HW297753   0.771  14.363   3.752
65286SOL     OW97754  14.621   1.364   5.968
65286SOL    HW197755  14.658   1.304   5.903
65286SOL    HW297756  14.692   1.425   5.987
65287SOL     OW97757  11.353  14.289  13.737
65287SOL    HW197758  11.390  14.280  13.825
65287SOL    HW297759  11.304  14.371  13.740
65288SOL     OW97760   3.371   6.959   8.380
65288SOL    HW197761   3.337   7.041   8.416
65288SOL    HW297762   3.293   6.909   8.358
65289SOL     OW97763  12.541   5.134  10.231
65289SOL    HW197764  12.613   5.091  10.279
65289SOL    HW297765  12.520   5.074  10.160
65290SOL     OW97766   0.414   0.526   3.832
65290SOL    HW197767   0.382   0.495   3.747
65290SOL    HW297768   0.475   0.459   3.861
65291SOL     OW97769   9.367   1.700  11.947
65291SOL    HW197770   9.440   1.715  11.888
65291SOL    HW297771   9.392   1.742  12.029
65292SOL     OW97772  10.829  11.389   7.871
65292SOL    HW197773  10.924  11.389   7.873
65292SOL    HW297774  10.804  11.481   7.879
65293SOL     OW97775  10.720   7.689  11.412
65293SOL    HW197776  10.655   7.634  11.369
65293SOL    HW297777  10.732   7.648  11.498
65294SOL     OW97778   0.524   5.898   4.849
65294SOL    HW197779   0.457   5.962   4.824
65294SOL    HW297780   0.500   5.872   4.938
65295SOL     OW97781   4.553   4.280   7.080
65295SOL    HW197782   4.515   4.366   7.061
65295SOL    HW297783   4.612   4.295   7.153
65296SOL     OW97784   1.351  11.413   5.513
65296SOL    HW197785   1.348  11.476   5.440
65296SOL    HW297786   1.361  11.468   5.591
65297SOL     OW97787   0.869   7.827   7.221
65297SOL    HW197788   0.846   7.739   7.253
65297SOL    HW297789   0.917   7.867   7.294
65298SOL     OW97790   0.085   1.495  10.238
65298SOL    HW197791   0.079   1.432  10.309
65298SOL    HW297792   0.158   1.464  10.184
65299SOL     OW97793   5.551  11.136   9.956
65299SOL    HW197794   5.592  11.053   9.982
65299SOL    HW297795   5.616  11.178   9.900
65300SOL     OW97796  11.404  11.517  10.211
65300SOL    HW197797  11.333  11.511  10.147
65300SOL    HW297798  11.432  11.609  10.207
65301SOL     OW97799  10.859   9.270   3.871
65301SOL    HW197800  10.871   9.352   3.823
65301SOL    HW297801  10.851   9.203   3.803
65302SOL     OW97802   1.441   1.772   4.036
65302SOL    HW197803   1.461   1.792   3.944
65302SOL    HW297804   1.439   1.676   4.040
65303SOL     OW97805   9.785   9.891   9.928
65303SOL    HW197806   9.824   9.941   9.857
65303SOL    HW297807   9.828   9.806   9.923
65304SOL     OW97808  13.727  11.601  14.290
65304SOL    HW197809  13.808  11.555  14.310
65304SOL    HW297810  13.681  11.605  14.374
65305SOL     OW97811  13.209  10.127  10.587
65305SOL    HW197812  13.207  10.035  10.611
65305SOL    HW297813  13.300  10.145  10.565
65306SOL     OW97814   1.806   1.698  12.081
65306SOL    HW197815   1.750   1.769  12.114
65306SOL    HW297816   1.762   1.618  12.109
65307SOL     OW97817  13.310   4.370  11.102
65307SOL    HW197818  13.228   4.415  11.081
65307SOL    HW297819  13.374   4.410  11.043
65308SOL     OW97820   9.846  13.279   4.379
65308SOL    HW197821   9.908  13.309   4.445
65308SOL    HW297822   9.762  13.316   4.407
65309SOL     OW97823  10.664   9.518   1.530
65309SOL    HW197824  10.607   9.445   1.506
65309SOL    HW297825  10.718   9.484   1.602
65310SOL     OW97826   3.324   7.005  14.819
65310SOL    HW197827   3.275   6.941  14.768
65310SOL    HW297828   3.308   6.980   0.040
65311SOL     OW97829   7.910  13.498   5.512
65311SOL    HW197830   7.831  13.457   5.476
65311SOL    HW297831   7.913  13.584   5.469
65312SOL     OW97832   3.450   7.407  14.261
65312SOL    HW197833   3.514   7.455  14.315
65312SOL    HW297834   3.487   7.410  14.173
65313SOL     OW97835   1.627  10.185   6.228
65313SOL    HW197836   1.599  10.190   6.136
65313SOL    HW297837   1.698  10.120   6.228
65314SOL     OW97838  14.404   2.208  11.211
65314SOL    HW197839  14.395   2.283  11.152
65314SOL    HW297840  14.487   2.223  11.257
65315SOL     OW97841   5.335  11.356   4.491
65315SOL    HW197842   5.318  11.264   4.472
65315SOL    HW297843   5.280  11.376   4.566
65316SOL     OW97844   4.186  14.630   0.946
65316SOL    HW197845   4.244  14.668   1.013
65316SOL    HW297846   4.212  14.538   0.942
65317SOL     OW97847   2.035   9.822   4.833
65317SOL    HW197848   2.017   9.903   4.880
65317SOL    HW297849   1.950   9.793   4.800
65318SOL     OW97850  12.054  11.422   1.528
65318SOL    HW197851  12.024  11.501   1.574
65318SOL    HW297852  11.985  11.358   1.544
65319SOL     OW97853   7.518   6.266  10.874
65319SOL    HW197854   7.599   6.310  10.899
65319SOL    HW297855   7.467   6.334  10.828
65320SOL     OW97856   9.667  10.567  12.940
65320SOL    HW197857   9.641  10.506  13.009
65320SOL    HW297858   9.584  10.595  12.901
65321SOL     OW97859   8.508   2.509  11.666
65321SOL    HW197860   8.461   2.582  11.626
65321SOL    HW297861   8.515   2.444  11.596
65322SOL     OW97862   8.283  11.430   0.686
65322SOL    HW197863   8.235  11.364   0.735
65322SOL    HW297864   8.371  11.429   0.724
65323SOL     OW97865   7.513   3.296  10.823
65323SOL    HW197866   7.452   3.237  10.867
65323SOL    HW297867   7.532   3.253  10.739
65324SOL     OW97868  11.544   1.781   4.140
65324SOL    HW197869  11.483   1.708   4.127
65324SOL    HW297870  11.531   1.807   4.232
65325SOL     OW97871   1.322  13.996   0.027
65325SOL    HW197872   1.243  14.020   0.074
65325SOL    HW297873   1.384  13.970   0.095
65326SOL     OW97874   2.634   6.662   0.701
65326SOL    HW197875   2.682   6.605   0.641
65326SOL    HW297876   2.552   6.615   0.719
65327SOL     OW97877  14.731   8.240   8.386
65327SOL    HW197878  14.649   8.271   8.424
65327SOL    HW297879  14.733   8.146   8.405
65328SOL     OW97880   7.254   0.667  11.295
65328SOL    HW197881   7.319   0.733  11.271
65328SOL    HW297882   7.235   0.620  11.214
65329SOL     OW97883   3.035   1.839  14.194
65329SOL    HW197884   3.030   1.934  14.182
65329SOL    HW297885   2.969   1.803  14.136
65330SOL     OW97886   3.395   6.353   7.128
65330SOL    HW197887   3.386   6.404   7.208
65330SOL    HW297888   3.354   6.269   7.147
65331SOL     OW97889   2.042   7.772  14.774
65331SOL    HW197890   2.065   7.682  14.750
65331SOL    HW297891   1.995   7.806  14.698
65332SOL     OW97892   8.219   6.402   9.613
65332SOL    HW197893   8.177   6.331   9.661
65332SOL    HW297894   8.305   6.411   9.654
65333SOL     OW97895   1.273  10.762   6.426
65333SOL    HW197896   1.188  10.804   6.419
65333SOL    HW297897   1.282  10.738   6.518
65334SOL     OW97898   2.025   0.182  14.513
65334SOL    HW197899   1.947   0.224  14.550
65334SOL    HW297900   1.995   0.095  14.487
65335SOL     OW97901  13.623  13.869   1.028
65335SOL    HW197902  13.608  13.823   1.111
65335SOL    HW297903  13.539  13.861   0.982
65336SOL     OW97904   7.412   4.305   2.512
65336SOL    HW197905   7.416   4.283   2.605
65336SOL    HW297906   7.367   4.389   2.509
65337SOL     OW97907   1.960   3.587   7.737
65337SOL    HW197908   2.049   3.610   7.764
65337SOL    HW297909   1.904   3.622   7.805
65338SOL     OW97910   2.518   3.189   9.572
65338SOL    HW197911   2.590   3.165   9.514
65338SOL    HW297912   2.465   3.251   9.521
65339SOL     OW97913   1.173   2.065   9.377
65339SOL    HW197914   1.142   2.155   9.390
65339SOL    HW297915   1.225   2.047   9.455
65340SOL     OW97916  10.459  11.637   5.332
65340SOL    HW197917  10.443  11.690   5.410
65340SOL    HW297918  10.470  11.701   5.261
65341SOL     OW97919  13.317   2.986   9.771
65341SOL    HW197920  13.280   3.074   9.773
65341SOL    HW297921  13.395   2.992   9.827
65342SOL     OW97922   3.661   9.787   5.100
65342SOL    HW197923   3.593   9.730   5.137
65342SOL    HW297924   3.636   9.875   5.127
65343SOL     OW97925   5.963   6.469  10.579
65343SOL    HW197926   5.997   6.479  10.490
65343SOL    HW297927   5.873   6.437  10.568
65344SOL     OW97928  12.703  11.326   1.058
65344SOL    HW197929  12.609  11.336   1.044
65344SOL    HW297930  12.740  11.322   0.970
65345SOL     OW97931   0.471  11.777   7.603
65345SOL    HW197932   0.457  11.791   7.697
65345SOL    HW297933   0.496  11.685   7.596
65346SOL     OW97934   7.282   8.429   2.157
65346SOL    HW197935   7.225   8.363   2.116
65346SOL    HW297936   7.230   8.461   2.231
65347SOL     OW97937   1.751   0.164   3.117
65347SOL    HW197938   1.828   0.127   3.073
65347SOL    HW297939   1.737   0.107   3.193
65348SOL     OW97940  12.975   4.325   4.339
65348SOL    HW197941  13.013   4.408   4.311
65348SOL    HW297942  12.971   4.271   4.260
65349SOL     OW97943   4.088   9.074   8.768
65349SOL    HW197944   4.128   8.988   8.755
65349SOL    HW297945   4.161   9.136   8.757
65350SOL     OW97946  12.737  13.840   0.226
65350SOL    HW197947  12.825  13.841   0.264
65350SOL    HW297948  12.689  13.908   0.274
65351SOL     OW97949   8.453  10.794  13.638
65351SOL    HW197950   8.543  10.807  13.666
65351SOL    HW297951   8.429  10.708  13.672
65352SOL     OW97952  12.584   0.560  11.759
65352SOL    HW197953  12.615   0.633  11.813
65352SOL    HW297954  12.520   0.600  11.700
65353SOL     OW97955   6.170  13.928  12.024
65353SOL    HW197956   6.079  13.949  12.041
65353SOL    HW297957   6.198  13.876  12.099
65354SOL     OW97958   7.382  10.303  10.113
65354SOL    HW197959   7.346  10.215  10.114
65354SOL    HW297960   7.417  10.317  10.201
65355SOL     OW97961  13.719   1.969   7.786
65355SOL    HW197962  13.686   1.879   7.778
65355SOL    HW297963  13.742   1.995   7.697
65356SOL     OW97964   2.164   0.439   1.994
65356SOL    HW197965   2.177   0.466   1.903
65356SOL    HW297966   2.109   0.507   2.032
65357SOL     OW97967   0.524  14.111   3.595
65357SOL    HW197968   0.615  14.116   3.566
65357SOL    HW297969   0.522  14.163   3.675
65358SOL     OW97970  10.938  11.019   1.976
65358SOL    HW197971  11.007  10.996   2.038
65358SOL    HW297972  10.870  10.953   1.990
65359SOL     OW97973   4.215   5.423   8.337
65359SOL    HW197974   4.242   5.514   8.334
65359SOL    HW297975   4.132   5.424   8.385
65360SOL     OW97976   4.959   9.269  12.796
65360SOL    HW197977   5.008   9.350  12.781
65360SOL    HW297978   4.994   9.235  12.878
65361SOL     OW97979   7.417   6.442   7.866
65361SOL    HW197980   7.354   6.422   7.936
65361SOL    HW297981   7.484   6.373   7.873
65362SOL     OW97982  14.571   7.118  10.485
65362SOL    HW197983  14.573   7.050  10.552
65362SOL    HW297984  14.617   7.080  10.410
65363SOL     OW97985   1.412   5.217  11.833
65363SOL    HW197986   1.438   5.309  11.836
65363SOL    HW297987   1.339   5.214  11.772
65364SOL     OW97988   3.797  13.762   1.444
65364SOL    HW197989   3.722  13.723   1.400
65364SOL    HW297990   3.758  13.833   1.496
65365SOL     OW97991   8.368   4.271  10.179
65365SOL    HW197992   8.360   4.251  10.086
65365SOL    HW297993   8.350   4.187  10.223
65366SOL     OW97994   2.998  11.981   0.999
65366SOL    HW197995   2.943  11.905   1.018
65366SOL    HW297996   2.996  12.034   1.078
65367SOL     OW97997   4.979   4.207   8.498
65367SOL    HW197998   5.037   4.270   8.540
65367SOL    HW297999   4.936   4.162   8.571
65368SOL     OW98000  11.583   4.817   9.674
65368SOL    HW198001  11.528   4.850   9.603
65368SOL    HW298002  11.609   4.895   9.723
65369SOL     OW98003   6.372   3.494   7.174
65369SOL    HW198004   6.447   3.489   7.233
65369SOL    HW298005   6.306   3.543   7.224
65370SOL     OW98006   3.399   5.900   4.223
65370SOL    HW198007   3.333   5.862   4.165
65370SOL    HW298008   3.426   5.981   4.179
65371SOL     OW98009   8.756   7.912  14.352
65371SOL    HW198010   8.760   7.858  14.273
65371SOL    HW298011   8.712   7.857  14.416
65372SOL     OW98012  14.376   2.213   9.586
65372SOL    HW198013  14.336   2.217   9.499
65372SOL    HW298014  14.316   2.262   9.642
65373SOL     OW98015   5.178   5.609  10.091
65373SOL    HW198016   5.097   5.658  10.074
65373SOL    HW298017   5.148   5.526  10.129
65374SOL     OW98018   7.485  11.986   5.352
65374SOL    HW198019   7.519  11.919   5.293
65374SOL    HW298020   7.548  11.990   5.423
65375SOL     OW98021   6.724   6.564   0.709
65375SOL    HW198022   6.806   6.516   0.693
65375SOL    HW298023   6.739   6.610   0.792
65376SOL     OW98024  10.360   5.178  11.345
65376SOL    HW198025  10.408   5.202  11.424
65376SOL    HW298026  10.306   5.103  11.371
65377SOL     OW98027  14.693   5.296  12.436
65377SOL    HW198028  14.753   5.287  12.362
65377SOL    HW298029  14.719   5.377  12.479
65378SOL     OW98030   9.807  11.175   9.506
65378SOL    HW198031   9.727  11.146   9.550
65378SOL    HW298032   9.788  11.165   9.413
65379SOL     OW98033  12.730  14.425   7.985
65379SOL    HW198034  12.737  14.369   7.908
65379SOL    HW298035  12.683  14.502   7.954
65380SOL     OW98036  13.003   7.378   2.557
65380SOL    HW198037  13.032   7.379   2.648
65380SOL    HW298038  12.908   7.382   2.561
65381SOL     OW98039   7.095  11.637   1.044
65381SOL    HW198040   7.104  11.731   1.031
65381SOL    HW298041   7.185  11.603   1.037
65382SOL     OW98042   4.402   0.959  13.325
65382SOL    HW198043   4.493   0.930  13.327
65382SOL    HW298044   4.392   1.014  13.402
65383SOL     OW98045  14.131   4.380   1.492
65383SOL    HW198046  14.182   4.352   1.568
65383SOL    HW298047  14.050   4.414   1.529
65384SOL     OW98048  13.053  10.844  10.813
65384SOL    HW198049  13.119  10.899  10.770
65384SOL    HW298050  12.976  10.901  10.822
65385SOL     OW98051  12.894   5.084  13.619
65385SOL    HW198052  12.861   5.171  13.644
65385SOL    HW298053  12.943   5.099  13.538
65386SOL     OW98054   7.889  13.508   0.760
65386SOL    HW198055   7.897  13.493   0.666
65386SOL    HW298056   7.805  13.553   0.770
65387SOL     OW98057  13.068   4.681  14.336
65387SOL    HW198058  13.069   4.707  14.428
65387SOL    HW298059  13.159   4.692  14.307
65388SOL     OW98060  12.262  12.170  13.729
65388SOL    HW198061  12.192  12.180  13.793
65388SOL    HW298062  12.330  12.230  13.759
65389SOL     OW98063   8.567  10.566   6.618
65389SOL    HW198064   8.492  10.621   6.640
65389SOL    HW298065   8.544  10.479   6.652
65390SOL     OW98066   0.337  13.154  11.383
65390SOL    HW198067   0.376  13.202  11.455
65390SOL    HW298068   0.389  13.178  11.306
65391SOL     OW98069  14.792   2.234  10.863
65391SOL    HW198070  14.861   2.300  10.868
65391SOL    HW298071  14.801   2.184  10.944
65392SOL     OW98072   8.888   2.442   0.453
65392SOL    HW198073   8.856   2.388   0.381
65392SOL    HW298074   8.822   2.431   0.522
65393SOL     OW98075   9.461  10.919   5.606
65393SOL    HW198076   9.405  10.858   5.558
65393SOL    HW298077   9.413  10.936   5.688
65394SOL     OW98078   2.305  10.116   6.080
65394SOL    HW198079   2.266  10.203   6.084
65394SOL    HW298080   2.382  10.121   6.137
65395SOL     OW98081  11.167   1.210   5.339
65395SOL    HW198082  11.103   1.270   5.302
65395SOL    HW298083  11.164   1.133   5.282
65396SOL     OW98084   7.038   1.514   7.113
65396SOL    HW198085   7.038   1.435   7.166
65396SOL    HW298086   7.119   1.509   7.062
65397SOL     OW98087  10.606  10.828   0.970
65397SOL    HW198088  10.518  10.812   1.004
65397SOL    HW298089  10.665  10.794   1.038
65398SOL     OW98090   8.376   1.180   2.927
65398SOL    HW198091   8.384   1.212   2.837
65398SOL    HW298092   8.416   1.249   2.980
65399SOL     OW98093   1.757  10.120   6.599
65399SOL    HW198094   1.664  10.141   6.587
65399SOL    HW298095   1.761  10.025   6.592
65400SOL     OW98096   1.301   2.315   5.945
65400SOL    HW198097   1.322   2.375   5.874
65400SOL    HW298098   1.319   2.365   6.025
65401SOL     OW98099  10.115   1.385   3.297
65401SOL    HW198100  10.050   1.321   3.269
65401SOL    HW298101  10.199   1.344   3.277
65402SOL     OW98102   1.651  13.061   7.936
65402SOL    HW198103   1.575  13.006   7.957
65402SOL    HW298104   1.725  13.018   7.979
65403SOL     OW98105  10.579   5.890  12.420
65403SOL    HW198106  10.510   5.941  12.463
65403SOL    HW298107  10.625   5.847  12.492
65404SOL     OW98108   4.356   0.019   6.873
65404SOL    HW198109   4.355   0.113   6.890
65404SOL    HW298110   4.313   0.010   6.788
65405SOL     OW98111  10.907   9.821   8.769
65405SOL    HW198112  10.958   9.880   8.713
65405SOL    HW298113  10.872   9.755   8.709
65406SOL     OW98114  13.961   1.177   6.408
65406SOL    HW198115  13.967   1.104   6.470
65406SOL    HW298116  13.970   1.136   6.322
65407SOL     OW98117   0.446   2.690   0.151
65407SOL    HW198118   0.387   2.639   0.207
65407SOL    HW298119   0.402   2.774   0.140
65408SOL     OW98120   6.628  13.396   5.507
65408SOL    HW198121   6.689  13.465   5.481
65408SOL    HW298122   6.682  13.331   5.553
65409SOL     OW98123  14.369   6.287  12.762
65409SOL    HW198124  14.424   6.308  12.837
65409SOL    HW298125  14.351   6.193  12.771
65410SOL     OW98126   2.622  11.529   6.575
65410SOL    HW198127   2.636  11.468   6.503
65410SOL    HW298128   2.657  11.612   6.544
65411SOL     OW98129   7.801   3.483  14.500
65411SOL    HW198130   7.779   3.558  14.555
65411SOL    HW298131   7.803   3.518  14.411
65412SOL     OW98132   0.001  14.650   3.084
65412SOL    HW198133   0.046  14.729   3.054
65412SOL    HW298134   0.003  14.591   3.008
65413SOL     OW98135  14.383   4.108  11.119
65413SOL    HW198136  14.475   4.088  11.103
65413SOL    HW298137  14.362   4.065  11.202
65414SOL     OW98138   5.467   0.064   8.889
65414SOL    HW198139   5.461  14.853   8.838
65414SOL    HW298140   5.512   0.126   8.831
65415SOL     OW98141   7.176   2.878   7.115
65415SOL    HW198142   7.271   2.871   7.112
65415SOL    HW298143   7.154   2.943   7.049
65416SOL     OW98144   8.432   4.591  10.529
65416SOL    HW198145   8.433   4.658  10.460
65416SOL    HW298146   8.340   4.584  10.555
65417SOL     OW98147   6.624   2.538   0.064
65417SOL    HW198148   6.545   2.557   0.014
65417SOL    HW298149   6.682   2.494   0.002
65418SOL     OW98150   0.247   6.110   6.134
65418SOL    HW198151   0.192   6.174   6.088
65418SOL    HW298152   0.335   6.123   6.097
65419SOL     OW98153   3.381   8.001   2.354
65419SOL    HW198154   3.387   8.017   2.260
65419SOL    HW298155   3.461   8.041   2.390
65420SOL     OW98156  13.777   6.159   1.267
65420SOL    HW198157  13.751   6.094   1.333
65420SOL    HW298158  13.844   6.211   1.310
65421SOL     OW98159   4.477   2.464   4.947
65421SOL    HW198160   4.442   2.438   5.032
65421SOL    HW298161   4.550   2.404   4.931
65422SOL     OW98162  11.740   3.076   6.090
65422SOL    HW198163  11.664   3.073   6.147
65422SOL    HW298164  11.757   3.169   6.077
65423SOL     OW98165   1.430  13.885   0.612
65423SOL    HW198166   1.504  13.865   0.554
65423SOL    HW298167   1.353  13.866   0.559
65424SOL     OW98168   1.767   7.589  14.540
65424SOL    HW198169   1.760   7.513  14.598
65424SOL    HW298170   1.856   7.584  14.504
65425SOL     OW98171  12.073   0.291   8.146
65425SOL    HW198172  12.054   0.214   8.093
65425SOL    HW298173  12.024   0.362   8.104
65426SOL     OW98174   8.380  14.659   0.527
65426SOL    HW198175   8.416  14.570   0.534
65426SOL    HW298176   8.286  14.648   0.539
65427SOL     OW98177   6.186   6.056   0.691
65427SOL    HW198178   6.256   5.992   0.702
65427SOL    HW298179   6.106   6.008   0.715
65428SOL     OW98180   7.780   0.996  12.229
65428SOL    HW198181   7.775   0.906  12.196
65428SOL    HW298182   7.690   1.017  12.254
65429SOL     OW98183  12.975  13.786  11.373
65429SOL    HW198184  13.059  13.741  11.385
65429SOL    HW298185  12.926  13.766  11.453
65430SOL     OW98186  12.240   4.012   4.888
65430SOL    HW198187  12.329   4.041   4.869
65430SOL    HW298188  12.237   3.921   4.861
65431SOL     OW98189  10.819   3.885   3.013
65431SOL    HW198190  10.755   3.935   2.963
65431SOL    HW298191  10.904   3.919   2.984
65432SOL     OW98192  14.783   0.447   7.355
65432SOL    HW198193  14.787   0.381   7.425
65432SOL    HW298194  14.813   0.528   7.397
65433SOL     OW98195   4.174  11.786  14.682
65433SOL    HW198196   4.245  11.835  14.641
65433SOL    HW298197   4.213  11.700  14.700
65434SOL     OW98198   6.718   9.385  14.691
65434SOL    HW198199   6.710   9.480  14.689
65434SOL    HW298200   6.631   9.354  14.716
65435SOL     OW98201  12.341  11.331  10.632
65435SOL    HW198202  12.314  11.248  10.592
65435SOL    HW298203  12.400  11.305  10.703
65436SOL     OW98204  12.188  12.463  14.341
65436SOL    HW198205  12.214  12.540  14.392
65436SOL    HW298206  12.189  12.493  14.250
65437SOL     OW98207   3.530   8.639  12.927
65437SOL    HW198208   3.572   8.590  12.998
65437SOL    HW298209   3.532   8.730  12.956
65438SOL     OW98210   4.129   7.995   0.056
65438SOL    HW198211   4.082   7.916   0.081
65438SOL    HW298212   4.147   7.983  14.832
65439SOL     OW98213   3.035   6.835  11.125
65439SOL    HW198214   3.069   6.821  11.037
65439SOL    HW298215   3.009   6.927  11.127
65440SOL     OW98216   6.403  14.240  13.400
65440SOL    HW198217   6.324  14.249  13.454
65440SOL    HW298218   6.438  14.328  13.393
65441SOL     OW98219  10.521   9.276  12.436
65441SOL    HW198220  10.593   9.298  12.377
65441SOL    HW298221  10.539   9.326  12.515
65442SOL     OW98222  11.371   6.462   8.370
65442SOL    HW198223  11.338   6.457   8.281
65442SOL    HW298224  11.318   6.399   8.419
65443SOL     OW98225   8.153   6.088  11.113
65443SOL    HW198226   8.156   5.997  11.083
65443SOL    HW298227   8.064   6.099  11.148
65444SOL     OW98228   3.376   6.195   4.554
65444SOL    HW198229   3.292   6.238   4.543
65444SOL    HW298230   3.412   6.233   4.634
65445SOL     OW98231   1.792   4.118   2.836
65445SOL    HW198232   1.770   4.146   2.747
65445SOL    HW298233   1.810   4.024   2.828
65446SOL     OW98234   7.981  11.390   3.749
65446SOL    HW198235   7.996  11.475   3.790
65446SOL    HW298236   8.034  11.392   3.669
65447SOL     OW98237   3.938   4.613   6.674
65447SOL    HW198238   4.023   4.653   6.693
65447SOL    HW298239   3.931   4.542   6.738
65448SOL     OW98240   7.342   7.449   9.936
65448SOL    HW198241   7.345   7.442   9.841
65448SOL    HW298242   7.266   7.504   9.953
65449SOL     OW98243   6.584  13.101  10.927
65449SOL    HW198244   6.523  13.030  10.945
65449SOL    HW298245   6.624  13.121  11.011
65450SOL     OW98246  14.019   6.670   7.601
65450SOL    HW198247  13.926   6.685   7.583
65450SOL    HW298248  14.065   6.728   7.540
65451SOL     OW98249  13.671   3.439   6.719
65451SOL    HW198250  13.609   3.390   6.773
65451SOL    HW298251  13.701   3.375   6.654
65452SOL     OW98252   2.138  10.746   2.347
65452SOL    HW198253   2.084  10.675   2.312
65452SOL    HW298254   2.078  10.798   2.400
65453SOL     OW98255   3.718   3.300  12.010
65453SOL    HW198256   3.677   3.217  11.984
65453SOL    HW298257   3.749   3.285  12.099
65454SOL     OW98258   2.587  13.131   8.118
65454SOL    HW198259   2.504  13.178   8.103
65454SOL    HW298260   2.630  13.179   8.189
65455SOL     OW98261   3.171   7.267  10.612
65455SOL    HW198262   3.259   7.231  10.604
65455SOL    HW298263   3.123   7.201  10.663
65456SOL     OW98264   2.701   3.072   6.872
65456SOL    HW198265   2.735   3.075   6.962
65456SOL    HW298266   2.778   3.052   6.819
65457SOL     OW98267  10.012  10.480   7.565
65457SOL    HW198268  10.042  10.391   7.551
65457SOL    HW298269   9.980  10.509   7.480
65458SOL     OW98270   0.492   3.637   7.007
65458SOL    HW198271   0.504   3.655   6.914
65458SOL    HW298272   0.468   3.544   7.011
65459SOL     OW98273   9.012   6.530   1.282
65459SOL    HW198274   9.072   6.581   1.335
65459SOL    HW298275   8.925   6.549   1.319
65460SOL     OW98276   8.668   7.476  10.772
65460SOL    HW198277   8.624   7.476  10.687
65460SOL    HW298278   8.711   7.391  10.778
65461SOL     OW98279  10.582   9.273   1.406
65461SOL    HW198280  10.648   9.214   1.441
65461SOL    HW298281  10.499   9.227   1.419
65462SOL     OW98282  12.079  13.126   0.572
65462SOL    HW198283  12.158  13.074   0.560
65462SOL    HW298284  12.007  13.064   0.559
65463SOL     OW98285   1.808   2.460  14.778
65463SOL    HW198286   1.724   2.462  14.731
65463SOL    HW298287   1.858   2.531  14.739
65464SOL     OW98288   9.313   4.160   3.679
65464SOL    HW198289   9.221   4.136   3.675
65464SOL    HW298290   9.318   4.242   3.630
65465SOL     OW98291   9.780  11.997  12.435
65465SOL    HW198292   9.761  11.982  12.528
65465SOL    HW298293   9.724  12.071  12.411
65466SOL     OW98294   7.819  14.244   4.729
65466SOL    HW198295   7.908  14.277   4.737
65466SOL    HW298296   7.822  14.158   4.771
65467SOL     OW98297   5.088  10.238  13.592
65467SOL    HW198298   5.034  10.198  13.660
65467SOL    HW298299   5.162  10.276  13.639
65468SOL     OW98300   1.418   4.706   2.403
65468SOL    HW198301   1.416   4.662   2.488
65468SOL    HW298302   1.505   4.747   2.400
65469SOL     OW98303  12.124  14.515   4.780
65469SOL    HW198304  12.093  14.481   4.696
65469SOL    HW298305  12.102  14.447   4.843
65470SOL     OW98306   1.217   3.291   3.942
65470SOL    HW198307   1.278   3.264   3.874
65470SOL    HW298308   1.270   3.294   4.022
65471SOL     OW98309  11.531   6.179   1.369
65471SOL    HW198310  11.525   6.174   1.464
65471SOL    HW298311  11.461   6.238   1.343
65472SOL     OW98312  10.200   3.379  11.302
65472SOL    HW198313  10.254   3.412  11.374
65472SOL    HW298314  10.264   3.347  11.238
65473SOL     OW98315   8.035   9.805   3.904
65473SOL    HW198316   8.058   9.897   3.920
65473SOL    HW298317   7.979   9.808   3.826
65474SOL     OW98318   6.185   8.396   9.930
65474SOL    HW198319   6.187   8.378   9.836
65474SOL    HW298320   6.188   8.492   9.937
65475SOL     OW98321  14.189   2.803   0.141
65475SOL    HW198322  14.242   2.731   0.105
65475SOL    HW298323  14.241   2.882   0.124
65476SOL     OW98324  11.133  14.657   4.637
65476SOL    HW198325  11.118  14.568   4.606
65476SOL    HW298326  11.049  14.701   4.622
65477SOL     OW98327   3.331   1.246   9.565
65477SOL    HW198328   3.417   1.270   9.599
65477SOL    HW298329   3.296   1.326   9.526
65478SOL     OW98330   5.513  10.479   6.767
65478SOL    HW198331   5.472  10.563   6.789
65478SOL    HW298332   5.602  10.503   6.740
65479SOL     OW98333   8.332   5.004   7.954
65479SOL    HW198334   8.300   4.914   7.953
65479SOL    HW298335   8.325   5.031   8.046
65480SOL     OW98336  11.305  12.666   5.673
65480SOL    HW198337  11.303  12.576   5.641
65480SOL    HW298338  11.215  12.684   5.700
65481SOL     OW98339  13.534  13.953   8.661
65481SOL    HW198340  13.556  13.923   8.572
65481SOL    HW298341  13.526  14.048   8.653
65482SOL     OW98342  10.801   0.143   1.194
65482SOL    HW198343  10.891   0.134   1.163
65482SOL    HW298344  10.802   0.101   1.280
65483SOL     OW98345   5.466   8.287   1.522
65483SOL    HW198346   5.502   8.321   1.440
65483SOL    HW298347   5.375   8.264   1.500
65484SOL     OW98348   1.193   3.752   7.091
65484SOL    HW198349   1.260   3.708   7.040
65484SOL    HW298350   1.141   3.800   7.026
65485SOL     OW98351  10.821   6.646   9.944
65485SOL    HW198352  10.890   6.594   9.901
65485SOL    HW298353  10.744   6.590   9.939
65486SOL     OW98354   0.861   6.125  13.257
65486SOL    HW198355   0.950   6.105  13.229
65486SOL    HW298356   0.821   6.169  13.181
65487SOL     OW98357   8.965  13.966   0.712
65487SOL    HW198358   8.871  13.968   0.730
65487SOL    HW298359   9.006  13.966   0.799
65488SOL     OW98360  12.163  14.531  10.418
65488SOL    HW198361  12.238  14.474  10.400
65488SOL    HW298362  12.198  14.619  10.416
65489SOL     OW98363   5.813   5.471   1.622
65489SOL    HW198364   5.726   5.442   1.594
65489SOL    HW298365   5.822   5.438   1.711
65490SOL     OW98366   4.200  12.812   3.699
65490SOL    HW198367   4.287  12.840   3.727
65490SOL    HW298368   4.215  12.729   3.653
65491SOL     OW98369   2.291   7.516   9.682
65491SOL    HW198370   2.312   7.456   9.611
65491SOL    HW298371   2.242   7.462   9.744
65492SOL     OW98372  11.313   7.707  14.755
65492SOL    HW198373  11.271   7.622  14.750
65492SOL    HW298374  11.276   7.748  14.834
65493SOL     OW98375   9.598   2.081   5.220
65493SOL    HW198376   9.600   2.176   5.214
65493SOL    HW298377   9.568   2.063   5.309
65494SOL     OW98378  13.123   7.402   2.195
65494SOL    HW198379  13.082   7.329   2.148
65494SOL    HW298380  13.209   7.368   2.221
65495SOL     OW98381   4.992   7.772   8.656
65495SOL    HW198382   5.002   7.753   8.749
65495SOL    HW298383   5.078   7.753   8.619
65496SOL     OW98384   4.885   0.577  11.097
65496SOL    HW198385   4.845   0.661  11.121
65496SOL    HW298386   4.959   0.601  11.041
65497SOL     OW98387   3.291   0.404   9.200
65497SOL    HW198388   3.231   0.465   9.243
65497SOL    HW298389   3.357   0.384   9.267
65498SOL     OW98390   5.993   9.967   6.085
65498SOL    HW198391   5.926   9.955   6.018
65498SOL    HW298392   5.960   9.918   6.161
65499SOL     OW98393   9.751   1.268   9.978
65499SOL    HW198394   9.657   1.281   9.984
65499SOL    HW298395   9.762   1.204   9.908
65500SOL     OW98396   7.976  13.619  10.882
65500SOL    HW198397   7.949  13.708  10.902
65500SOL    HW298398   7.992  13.579  10.968
65501SOL     OW98399  10.476   0.437  10.093
65501SOL    HW198400  10.498   0.357  10.141
65501SOL    HW298401  10.391   0.464  10.128
65502SOL     OW98402   9.803   2.237  11.735
65502SOL    HW198403   9.791   2.190  11.652
65502SOL    HW298404   9.716   2.270  11.756
65503SOL     OW98405   4.250   1.185  13.908
65503SOL    HW198406   4.221   1.096  13.928
65503SOL    HW298407   4.341   1.175  13.881
65504SOL     OW98408  10.534  11.323  13.015
65504SOL    HW198409  10.488  11.388  12.961
65504SOL    HW298410  10.492  11.329  13.101
65505SOL     OW98411  12.337  13.398   1.364
65505SOL    HW198412  12.349  13.313   1.323
65505SOL    HW298413  12.250  13.426   1.336
65506SOL     OW98414  11.574  13.955  12.996
65506SOL    HW198415  11.643  14.019  13.017
65506SOL    HW298416  11.492  14.002  13.010
65507SOL     OW98417   2.733  12.177  10.805
65507SOL    HW198418   2.736  12.098  10.860
65507SOL    HW298419   2.780  12.243  10.856
65508SOL     OW98420   3.132   5.138   0.227
65508SOL    HW198421   3.044   5.102   0.214
65508SOL    HW298422   3.157   5.172   0.141
65509SOL     OW98423   3.830   1.113  10.333
65509SOL    HW198424   3.866   1.050  10.270
65509SOL    HW298425   3.736   1.110  10.319
65510SOL     OW98426  14.658  10.042   7.902
65510SOL    HW198427  14.713  10.054   7.979
65510SOL    HW298428  14.579  10.092   7.921
65511SOL     OW98429   7.336  11.836   4.826
65511SOL    HW198430   7.249  11.874   4.840
65511SOL    HW298431   7.323  11.742   4.835
65512SOL     OW98432   7.533  14.862   2.043
65512SOL    HW198433   7.467  14.858   1.974
65512SOL    HW298434   7.611   0.026   1.999
65513SOL     OW98435   0.877  10.506  13.595
65513SOL    HW198436   0.825  10.427  13.608
65513SOL    HW298437   0.884  10.514  13.500
65514SOL     OW98438  10.111   5.328  10.316
65514SOL    HW198439  10.062   5.329  10.398
65514SOL    HW298440  10.203   5.331  10.344
65515SOL     OW98441  12.441   5.565  10.351
65515SOL    HW198442  12.384   5.629  10.309
65515SOL    HW298443  12.389   5.529  10.422
65516SOL     OW98444  14.150   0.138   9.719
65516SOL    HW198445  14.180   0.182   9.799
65516SOL    HW298446  14.195   0.185   9.648
65517SOL     OW98447  12.049  13.499   1.272
65517SOL    HW198448  11.965  13.468   1.239
65517SOL    HW298449  12.042  13.492   1.367
65518SOL     OW98450   0.287  13.796   2.111
65518SOL    HW198451   0.289  13.884   2.148
65518SOL    HW298452   0.361  13.750   2.151
65519SOL     OW98453  14.516  13.688  13.391
65519SOL    HW198454  14.511  13.724  13.480
65519SOL    HW298455  14.518  13.765  13.334
65520SOL     OW98456   8.273   8.569   4.383
65520SOL    HW198457   8.186   8.609   4.388
65520SOL    HW298458   8.262   8.497   4.321
65521SOL     OW98459  11.596   8.769  14.419
65521SOL    HW198460  11.665   8.719  14.374
65521SOL    HW298461  11.620   8.860  14.404
65522SOL     OW98462  10.757  11.760  12.692
65522SOL    HW198463  10.739  11.672  12.660
65522SOL    HW298464  10.852  11.763  12.705
65523SOL     OW98465   7.636   8.684  11.594
65523SOL    HW198466   7.638   8.760  11.537
65523SOL    HW298467   7.714   8.633  11.570
65524SOL     OW98468   0.900   4.800   4.108
65524SOL    HW198469   0.906   4.784   4.202
65524SOL    HW298470   0.907   4.713   4.069
65525SOL     OW98471   5.753   2.227   6.327
65525SOL    HW198472   5.753   2.304   6.384
65525SOL    HW298473   5.843   2.196   6.329
65526SOL     OW98474  14.740  11.049   7.113
65526SOL    HW198475  14.814  11.066   7.172
65526SOL    HW298476  14.706  10.964   7.141
65527SOL     OW98477   9.944   0.996   7.171
65527SOL    HW198478   9.965   0.971   7.261
65527SOL    HW298479   9.928   1.090   7.176
65528SOL     OW98480  10.360   8.113   8.792
65528SOL    HW198481  10.331   8.133   8.703
65528SOL    HW298482  10.286   8.139   8.847
65529SOL     OW98483   1.501  10.323  10.869
65529SOL    HW198484   1.539  10.236  10.884
65529SOL    HW298485   1.489  10.359  10.957
65530SOL     OW98486   7.823   1.068   5.101
65530SOL    HW198487   7.894   1.054   5.038
65530SOL    HW298488   7.749   1.098   5.048
65531SOL     OW98489  12.204  12.171   9.650
65531SOL    HW198490  12.150  12.104   9.607
65531SOL    HW298491  12.182  12.252   9.604
65532SOL     OW98492   7.546   3.691   5.108
65532SOL    HW198493   7.485   3.750   5.152
65532SOL    HW298494   7.575   3.740   5.031
65533SOL     OW98495   3.444   4.115  11.539
65533SOL    HW198496   3.402   4.198  11.516
65533SOL    HW298497   3.441   4.111  11.635
65534SOL     OW98498  11.760   3.462   4.085
65534SOL    HW198499  11.691   3.524   4.064
65534SOL    HW298500  11.715   3.387   4.123
65535SOL     OW98501   9.085   5.161   2.338
65535SOL    HW198502   9.012   5.181   2.396
65535SOL    HW298503   9.087   5.066   2.332
65536SOL     OW98504  11.088  13.773  13.060
65536SOL    HW198505  11.175  13.788  13.098
65536SOL    HW298506  11.081  13.677  13.055
65537SOL     OW98507   6.216   6.170  11.258
65537SOL    HW198508   6.222   6.244  11.198
65537SOL    HW298509   6.136   6.124  11.231
65538SOL     OW98510   6.258   0.989  11.490
65538SOL    HW198511   6.343   1.011  11.451
65538SOL    HW298512   6.198   1.055  11.454
65539SOL     OW98513   2.921   5.323   3.507
65539SOL    HW198514   2.870   5.403   3.499
65539SOL    HW298515   2.892   5.269   3.433
65540SOL     OW98516  11.234  12.650  10.103
65540SOL    HW198517  11.208  12.670  10.013
65540SOL    HW298518  11.164  12.593  10.136
65541SOL     OW98519   6.365   3.822   7.283
65541SOL    HW198520   6.341   3.732   7.302
65541SOL    HW298521   6.300   3.875   7.329
65542SOL     OW98522   6.316   2.359   0.654
65542SOL    HW198523   6.308   2.299   0.580
65542SOL    HW298524   6.289   2.307   0.730
65543SOL     OW98525   1.407   4.951   5.834
65543SOL    HW198526   1.413   4.980   5.743
65543SOL    HW298527   1.368   5.026   5.880
65544SOL     OW98528  13.928  11.043   8.477
65544SOL    HW198529  13.930  11.090   8.394
65544SOL    HW298530  13.836  11.021   8.490
65545SOL     OW98531   7.149   7.327  14.436
65545SOL    HW198532   7.131   7.270  14.362
65545SOL    HW298533   7.103   7.286  14.510
65546SOL     OW98534   3.681   5.245   1.934
65546SOL    HW198535   3.757   5.297   1.959
65546SOL    HW298536   3.675   5.255   1.839
65547SOL     OW98537   7.793  10.490   2.718
65547SOL    HW198538   7.870  10.435   2.707
65547SOL    HW298539   7.821  10.577   2.689
65548SOL     OW98540  10.553  13.904   7.205
65548SOL    HW198541  10.648  13.912   7.195
65548SOL    HW298542  10.519  13.899   7.115
65549SOL     OW98543   5.255  13.906   6.370
65549SOL    HW198544   5.316  13.838   6.341
65549SOL    HW298545   5.175  13.859   6.392
65550SOL     OW98546   5.304   6.441  12.054
65550SOL    HW198547   5.359   6.428  12.131
65550SOL    HW298548   5.287   6.352  12.022
65551SOL     OW98549   1.960   3.404  10.456
65551SOL    HW198550   1.881   3.446  10.488
65551SOL    HW298551   1.937   3.311  10.450
65552SOL     OW98552   6.897  10.393  12.799
65552SOL    HW198553   6.833  10.341  12.848
65552SOL    HW298554   6.863  10.394  12.710
65553SOL     OW98555  10.567   1.362  10.530
65553SOL    HW198556  10.558   1.424  10.457
65553SOL    HW298557  10.484   1.315  10.532
65554SOL     OW98558   4.611   7.020   7.641
65554SOL    HW198559   4.558   6.966   7.700
65554SOL    HW298560   4.592   6.986   7.554
65555SOL     OW98561  12.364  10.267  10.524
65555SOL    HW198562  12.283  10.246  10.569
65555SOL    HW298563  12.354  10.358  10.497
65556SOL     OW98564   9.059   8.987   9.528
65556SOL    HW198565   9.129   8.939   9.483
65556SOL    HW298566   9.002   8.919   9.563
65557SOL     OW98567  14.378   7.867  11.843
65557SOL    HW198568  14.459   7.897  11.884
65557SOL    HW298569  14.326   7.947  11.831
65558SOL     OW98570  14.799   5.645   6.273
65558SOL    HW198571  14.805   5.616   6.364
65558SOL    HW298572  14.833   5.571   6.222
65559SOL     OW98573   0.119   2.185   3.840
65559SOL    HW198574   0.116   2.192   3.745
65559SOL    HW298575   0.152   2.096   3.857
65560SOL     OW98576   8.661   1.521  12.245
65560SOL    HW198577   8.611   1.441  12.231
65560SOL    HW298578   8.619   1.563  12.321
65561SOL     OW98579   4.969   4.654   4.824
65561SOL    HW198580   4.881   4.657   4.860
65561SOL    HW298581   4.959   4.676   4.732
65562SOL     OW98582  10.042   1.660   7.041
65562SOL    HW198583  10.025   1.571   7.009
65562SOL    HW298584  10.124   1.685   6.999
65563SOL     OW98585   0.162   7.718  12.226
65563SOL    HW198586   0.243   7.698  12.273
65563SOL    HW298587   0.191   7.744  12.138
65564SOL     OW98588   4.177   1.316  11.030
65564SOL    HW198589   4.253   1.277  11.073
65564SOL    HW298590   4.212   1.356  10.950
65565SOL     OW98591  14.448   7.425   0.102
65565SOL    HW198592  14.406   7.408   0.018
65565SOL    HW298593  14.376   7.447   0.161
65566SOL     OW98594  13.907  10.395  10.750
65566SOL    HW198595  13.830  10.427  10.702
65566SOL    HW298596  13.924  10.308  10.714
65567SOL     OW98597   0.250   4.441   9.514
65567SOL    HW198598   0.155   4.453   9.514
65567SOL    HW298599   0.286   4.525   9.488
65568SOL     OW98600  10.564   8.464   8.326
65568SOL    HW198601  10.509   8.396   8.363
65568SOL    HW298602  10.534   8.473   8.235
65569SOL     OW98603   8.778   0.791   3.303
65569SOL    HW198604   8.773   0.706   3.260
65569SOL    HW298605   8.749   0.854   3.237
65570SOL     OW98606   8.759   6.852   9.577
65570SOL    HW198607   8.770   6.827   9.486
65570SOL    HW298608   8.720   6.775   9.619
65571SOL     OW98609   3.711   9.485   8.378
65571SOL    HW198610   3.787   9.480   8.319
65571SOL    HW298611   3.721   9.569   8.423
65572SOL     OW98612   2.919   3.526  12.821
65572SOL    HW198613   2.895   3.601  12.767
65572SOL    HW298614   2.987   3.480  12.772
65573SOL     OW98615  10.640  10.410   0.963
65573SOL    HW198616  10.638  10.345   0.892
65573SOL    HW298617  10.568  10.469   0.943
65574SOL     OW98618  12.387   3.948  12.833
65574SOL    HW198619  12.368   4.028  12.882
65574SOL    HW298620  12.342   3.960  12.749
65575SOL     OW98621   2.973   4.698   1.881
65575SOL    HW198622   3.063   4.666   1.882
65575SOL    HW298623   2.981   4.793   1.880
65576SOL     OW98624   8.263   3.037   7.841
65576SOL    HW198625   8.229   3.100   7.904
65576SOL    HW298626   8.294   2.964   7.895
65577SOL     OW98627   2.048  13.808   0.261
65577SOL    HW198628   1.986  13.879   0.245
65577SOL    HW298629   2.093  13.832   0.342
65578SOL     OW98630  11.206  11.713   8.686
65578SOL    HW198631  11.189  11.620   8.672
65578SOL    HW298632  11.290  11.730   8.643
65579SOL     OW98633  11.001  10.450   3.206
65579SOL    HW198634  10.997  10.544   3.188
65579SOL    HW298635  10.934  10.412   3.148
65580SOL     OW98636  11.298   4.830   2.158
65580SOL    HW198637  11.365   4.786   2.210
65580SOL    HW298638  11.273   4.765   2.092
65581SOL     OW98639   0.788   9.676   6.121
65581SOL    HW198640   0.792   9.727   6.202
65581SOL    HW298641   0.695   9.652   6.113
65582SOL     OW98642   1.757   0.594   3.311
65582SOL    HW198643   1.738   0.650   3.386
65582SOL    HW298644   1.811   0.647   3.253
65583SOL     OW98645   2.859   1.386   2.274
65583SOL    HW198646   2.900   1.311   2.317
65583SOL    HW298647   2.765   1.369   2.280
65584SOL     OW98648   8.349  13.309  11.086
65584SOL    HW198649   8.314  13.244  11.025
65584SOL    HW298650   8.394  13.257  11.153
65585SOL     OW98651   3.685   0.581   7.905
65585SOL    HW198652   3.693   0.545   7.993
65585SOL    HW298653   3.711   0.508   7.848
65586SOL     OW98654  11.959   3.497  13.878
65586SOL    HW198655  11.901   3.459  13.812
65586SOL    HW298656  11.901   3.515  13.952
65587SOL     OW98657   7.648  10.981   4.549
65587SOL    HW198658   7.606  10.896   4.554
65587SOL    HW298659   7.577  11.043   4.533
65588SOL     OW98660   8.332   0.795   8.852
65588SOL    HW198661   8.279   0.771   8.776
65588SOL    HW298662   8.366   0.711   8.884
65589SOL     OW98663   8.078   5.133   1.109
65589SOL    HW198664   8.153   5.074   1.104
65589SOL    HW298665   8.064   5.163   1.019
65590SOL     OW98666  14.372   7.946   0.671
65590SOL    HW198667  14.425   7.906   0.741
65590SOL    HW298668  14.293   7.892   0.667
65591SOL     OW98669   3.638   1.900  12.474
65591SOL    HW198670   3.582   1.852  12.534
65591SOL    HW298671   3.716   1.845  12.463
65592SOL     OW98672  14.050   8.017   4.979
65592SOL    HW198673  14.133   7.993   5.021
65592SOL    HW298674  14.061   8.109   4.955
65593SOL     OW98675  13.808   8.821  11.447
65593SOL    HW198676  13.802   8.811  11.352
65593SOL    HW298677  13.760   8.746  11.483
65594SOL     OW98678   0.993   4.762   4.358
65594SOL    HW198679   1.012   4.669   4.349
65594SOL    HW298680   1.078   4.805   4.354
65595SOL     OW98681   2.489  12.242  11.526
65595SOL    HW198682   2.564  12.298  11.510
65595SOL    HW298683   2.430  12.259  11.452
65596SOL     OW98684   5.824  10.426   3.569
65596SOL    HW198685   5.842  10.434   3.662
65596SOL    HW298686   5.910  10.412   3.529
65597SOL     OW98687   7.953   6.228   2.596
65597SOL    HW198688   7.881   6.165   2.598
65597SOL    HW298689   7.916   6.307   2.637
65598SOL     OW98690   6.323   2.502  11.617
65598SOL    HW198691   6.269   2.427  11.641
65598SOL    HW298692   6.333   2.496  11.522
65599SOL     OW98693   5.172   3.191   0.174
65599SOL    HW198694   5.119   3.145   0.240
65599SOL    HW298695   5.225   3.123   0.134
65600SOL     OW98696   6.950  14.768   4.055
65600SOL    HW198697   6.992  14.727   4.130
65600SOL    HW298698   6.927  14.856   4.086
65601SOL     OW98699  13.651  10.646  10.221
65601SOL    HW198700  13.664  10.656  10.315
65601SOL    HW298701  13.684  10.728  10.183
65602SOL     OW98702  13.070  13.287   6.578
65602SOL    HW198703  12.982  13.287   6.615
65602SOL    HW298704  13.094  13.195   6.573
65603SOL     OW98705   1.951  11.204   5.022
65603SOL    HW198706   2.013  11.265   4.981
65603SOL    HW298707   2.003  11.157   5.087
65604SOL     OW98708   3.291  13.320  14.537
65604SOL    HW198709   3.261  13.392  14.593
65604SOL    HW298710   3.210  13.281  14.503
65605SOL     OW98711  10.371  14.666  13.953
65605SOL    HW198712  10.285  14.683  13.916
65605SOL    HW298713  10.370  14.573  13.975
65606SOL     OW98714  14.261   0.762   9.031
65606SOL    HW198715  14.186   0.795   8.981
65606SOL    HW298716  14.324   0.834   9.029
65607SOL     OW98717   7.373   6.489   2.635
65607SOL    HW198718   7.430   6.428   2.588
65607SOL    HW298719   7.361   6.448   2.721
65608SOL     OW98720  13.218   9.834  13.851
65608SOL    HW198721  13.252   9.847  13.763
65608SOL    HW298722  13.160   9.909  13.865
65609SOL     OW98723   4.998   1.378   7.065
65609SOL    HW198724   4.989   1.444   7.133
65609SOL    HW298725   4.968   1.297   7.106
65610SOL     OW98726   4.569   7.575  10.051
65610SOL    HW198727   4.512   7.522   9.996
65610SOL    HW298728   4.637   7.608   9.991
65611SOL     OW98729   9.280   7.261  14.346
65611SOL    HW198730   9.340   7.298  14.281
65611SOL    HW298731   9.335   7.247  14.423
65612SOL     OW98732   0.352  14.835  14.535
65612SOL    HW198733   0.364   0.055  14.501
65612SOL    HW298734   0.441  14.799  14.538
65613SOL     OW98735  13.523   5.788   9.643
65613SOL    HW198736  13.493   5.711   9.692
65613SOL    HW298737  13.579   5.752   9.574
65614SOL     OW98738   7.889   3.021  12.649
65614SOL    HW198739   7.968   3.030  12.703
65614SOL    HW298740   7.818   3.011  12.712
65615SOL     OW98741   7.960  13.849   3.266
65615SOL    HW198742   7.894  13.780   3.260
65615SOL    HW298743   7.915  13.923   3.306
65616SOL     OW98744   0.279  11.408  14.213
65616SOL    HW198745   0.370  11.377  14.209
65616SOL    HW298746   0.286  11.503  14.213
65617SOL     OW98747   2.775   6.321   8.706
65617SOL    HW198748   2.856   6.314   8.655
65617SOL    HW298749   2.712   6.361   8.646
65618SOL     OW98750   3.286   2.583  11.016
65618SOL    HW198751   3.292   2.571  11.111
65618SOL    HW298752   3.307   2.497  10.980
65619SOL     OW98753   7.362  10.110  11.303
65619SOL    HW198754   7.398  10.085  11.388
65619SOL    HW298755   7.290  10.049  11.288
65620SOL     OW98756  10.998  10.830   5.118
65620SOL    HW198757  10.995  10.911   5.169
65620SOL    HW298758  11.026  10.763   5.181
65621SOL     OW98759   1.149   5.426  13.092
65621SOL    HW198760   1.155   5.500  13.152
65621SOL    HW298761   1.220   5.367  13.120
65622SOL     OW98762   3.830   3.149  13.946
65622SOL    HW198763   3.908   3.150  13.891
65622SOL    HW298764   3.797   3.239  13.944
65623SOL     OW98765   3.213   3.469  14.677
65623SOL    HW198766   3.232   3.560  14.653
65623SOL    HW298767   3.266   3.453  14.755
65624SOL     OW98768   9.463   0.883   0.414
65624SOL    HW198769   9.538   0.932   0.379
65624SOL    HW298770   9.482   0.792   0.393
65625SOL     OW98771   0.522   5.502   5.584
65625SOL    HW198772   0.478   5.511   5.669
65625SOL    HW298773   0.610   5.538   5.598
65626SOL     OW98774   5.807   4.334  10.489
65626SOL    HW198775   5.798   4.272  10.416
65626SOL    HW298776   5.771   4.416  10.455
65627SOL     OW98777  11.702   5.760  14.586
65627SOL    HW198778  11.759   5.684  14.598
65627SOL    HW298779  11.701   5.774  14.491
65628SOL     OW98780   4.914   3.323   5.450
65628SOL    HW198781   4.833   3.272   5.448
65628SOL    HW298782   4.947   3.320   5.360
65629SOL     OW98783  11.311   3.612   5.880
65629SOL    HW198784  11.342   3.686   5.932
65629SOL    HW298785  11.278   3.550   5.945
65630SOL     OW98786  14.308   4.870  13.880
65630SOL    HW198787  14.306   4.935  13.951
65630SOL    HW298788  14.245   4.803  13.908
65631SOL     OW98789   9.342   6.290  10.887
65631SOL    HW198790   9.294   6.209  10.871
65631SOL    HW298791   9.307   6.352  10.823
65632SOL     OW98792   2.441   9.647   7.698
65632SOL    HW198793   2.497   9.649   7.776
65632SOL    HW298794   2.462   9.564   7.656
65633SOL     OW98795   8.190   7.936   0.061
65633SOL    HW198796   8.242   7.857   0.046
65633SOL    HW298797   8.243   8.007   0.024
65634SOL     OW98798   7.108  14.023   0.917
65634SOL    HW198799   7.156  13.981   0.988
65634SOL    HW298800   7.124  13.967   0.840
65635SOL     OW98801  10.713   9.258   2.532
65635SOL    HW198802  10.748   9.212   2.608
65635SOL    HW298803  10.623   9.226   2.524
65636SOL     OW98804   0.684  13.639   3.791
65636SOL    HW198805   0.658  13.681   3.708
65636SOL    HW298806   0.617  13.572   3.806
65637SOL     OW98807   5.534   0.981   4.269
65637SOL    HW198808   5.591   0.952   4.198
65637SOL    HW298809   5.574   0.945   4.348
65638SOL     OW98810  10.892  10.666   8.024
65638SOL    HW198811  10.968  10.662   7.966
65638SOL    HW298812  10.913  10.737   8.085
65639SOL     OW98813  10.023   2.410  13.865
65639SOL    HW198814   9.929   2.414  13.850
65639SOL    HW298815  10.059   2.479  13.809
65640SOL     OW98816   4.370   3.941   4.090
65640SOL    HW198817   4.387   3.847   4.099
65640SOL    HW298818   4.454   3.983   4.113
65641SOL     OW98819   4.664   2.197  11.599
65641SOL    HW198820   4.654   2.279  11.648
65641SOL    HW298821   4.710   2.224  11.519
65642SOL     OW98822   8.690   3.880  13.397
65642SOL    HW198823   8.777   3.912  13.373
65642SOL    HW298824   8.699   3.849  13.487
65643SOL     OW98825  13.329  14.533  13.758
65643SOL    HW198826  13.400  14.474  13.732
65643SOL    HW298827  13.273  14.537  13.681
65644SOL     OW98828  14.667   0.269  12.018
65644SOL    HW198829  14.747   0.301  12.061
65644SOL    HW298830  14.655   0.328  11.944
65645SOL     OW98831   4.203  11.948  11.306
65645SOL    HW198832   4.202  11.956  11.401
65645SOL    HW298833   4.217  11.855  11.289
65646SOL     OW98834   0.252   9.304   9.311
65646SOL    HW198835   0.278   9.212   9.313
65646SOL    HW298836   0.265   9.334   9.401
65647SOL     OW98837  12.690   6.781   1.348
65647SOL    HW198838  12.665   6.725   1.422
65647SOL    HW298839  12.624   6.762   1.281
65648SOL     OW98840   9.954   4.582   5.083
65648SOL    HW198841   9.905   4.663   5.083
65648SOL    HW298842   9.974   4.565   5.175
65649SOL     OW98843   2.018   5.870   4.685
65649SOL    HW198844   2.079   5.832   4.621
65649SOL    HW298845   1.951   5.804   4.696
65650SOL     OW98846   3.105   9.489   0.810
65650SOL    HW198847   3.179   9.485   0.870
65650SOL    HW298848   3.140   9.529   0.730
65651SOL     OW98849   0.590  10.885   4.917
65651SOL    HW198850   0.513  10.940   4.907
65651SOL    HW298851   0.662  10.939   4.884
65652SOL     OW98852  12.415  13.494   8.228
65652SOL    HW198853  12.430  13.577   8.273
65652SOL    HW298854  12.375  13.518   8.144
65653SOL     OW98855   6.290   3.310   5.784
65653SOL    HW198856   6.380   3.343   5.789
65653SOL    HW298857   6.236   3.385   5.808
65654SOL     OW98858   9.897   9.800   9.050
65654SOL    HW198859   9.848   9.724   9.081
65654SOL    HW298860   9.905   9.856   9.127
65655SOL     OW98861  10.912   5.234   9.180
65655SOL    HW198862  10.919   5.151   9.228
65655SOL    HW298863  10.822   5.236   9.149
65656SOL     OW98864   1.516   8.481   9.323
65656SOL    HW198865   1.567   8.400   9.330
65656SOL    HW298866   1.477   8.477   9.236
65657SOL     OW98867   5.298   0.081   3.064
65657SOL    HW198868   5.321   0.171   3.084
65657SOL    HW298869   5.328   0.031   3.140
65658SOL     OW98870  12.473  10.447   2.086
65658SOL    HW198871  12.394  10.434   2.034
65658SOL    HW298872  12.541  10.396   2.041
65659SOL     OW98873   5.664   0.341   3.650
65659SOL    HW198874   5.734   0.281   3.623
65659SOL    HW298875   5.646   0.393   3.572
65660SOL     OW98876   3.450  11.330  10.154
65660SOL    HW198877   3.364  11.301  10.185
65660SOL    HW298878   3.472  11.270  10.083
65661SOL     OW98879   9.271  14.304   9.774
65661SOL    HW198880   9.176  14.294   9.769
65661SOL    HW298881   9.285  14.359   9.851
65662SOL     OW98882   4.299  10.602  10.229
65662SOL    HW198883   4.319  10.523  10.179
65662SOL    HW298884   4.232  10.575  10.292
65663SOL     OW98885   0.412   3.271   8.429
65663SOL    HW198886   0.436   3.240   8.516
65663SOL    HW298887   0.494   3.265   8.378
65664SOL     OW98888  11.055  14.283   0.418
65664SOL    HW198889  11.107  14.350   0.463
65664SOL    HW298890  10.967  14.293   0.455
65665SOL     OW98891  14.391   2.410   8.602
65665SOL    HW198892  14.455   2.383   8.668
65665SOL    HW298893  14.356   2.493   8.636
65666SOL     OW98894   2.893  10.647  13.262
65666SOL    HW198895   2.924  10.578  13.204
65666SOL    HW298896   2.822  10.606  13.312
65667SOL     OW98897  13.855  13.815   0.350
65667SOL    HW198898  13.869  13.905   0.321
65667SOL    HW298899  13.806  13.823   0.432
65668SOL     OW98900   9.946   9.717  10.568
65668SOL    HW198901  10.038   9.742  10.571
65668SOL    HW298902   9.922   9.701  10.659
65669SOL     OW98903  11.442   0.464   4.768
65669SOL    HW198904  11.531   0.468   4.732
65669SOL    HW298905  11.404   0.385   4.729
65670SOL     OW98906   8.511  13.345   8.536
65670SOL    HW198907   8.477  13.338   8.625
65670SOL    HW298908   8.437  13.379   8.485
65671SOL     OW98909   7.874  14.049  11.384
65671SOL    HW198910   7.938  14.031  11.315
65671SOL    HW298911   7.789  14.042  11.341
65672SOL     OW98912   4.770  11.935   0.175
65672SOL    HW198913   4.767  11.989   0.255
65672SOL    HW298914   4.710  11.863   0.192
65673SOL     OW98915   3.465   2.054  13.792
65673SOL    HW198916   3.457   2.147  13.772
65673SOL    HW298917   3.542   2.048  13.848
65674SOL     OW98918  10.410   5.255   7.443
65674SOL    HW198919  10.462   5.270   7.364
65674SOL    HW298920  10.328   5.217   7.411
65675SOL     OW98921   8.457   2.513  12.090
65675SOL    HW198922   8.540   2.473  12.062
65675SOL    HW298923   8.438   2.578  12.024
65676SOL     OW98924   2.195   2.130   4.356
65676SOL    HW198925   2.285   2.121   4.325
65676SOL    HW298926   2.200   2.109   4.449
65677SOL     OW98927  10.212   5.025   3.990
65677SOL    HW198928  10.178   5.029   3.900
65677SOL    HW298929  10.243   5.114   4.007
65678SOL     OW98930  13.134  13.422   3.527
65678SOL    HW198931  13.174  13.466   3.452
65678SOL    HW298932  13.056  13.380   3.490
65679SOL     OW98933  13.634  14.783   2.012
65679SOL    HW198934  13.665  14.801   1.923
65679SOL    HW298935  13.629  14.868   2.054
65680SOL     OW98936   0.601  13.495   2.644
65680SOL    HW198937   0.604  13.515   2.550
65680SOL    HW298938   0.680  13.443   2.660
65681SOL     OW98939   8.875   0.407   9.683
65681SOL    HW198940   8.914   0.481   9.730
65681SOL    HW298941   8.893   0.424   9.591
65682SOL     OW98942   0.578   9.936  12.151
65682SOL    HW198943   0.531   9.978  12.078
65682SOL    HW298944   0.524   9.861  12.173
65683SOL     OW98945   7.335   0.545   7.373
65683SOL    HW198946   7.396   0.504   7.435
65683SOL    HW298947   7.326   0.482   7.302
65684SOL     OW98948  11.241  14.580   6.823
65684SOL    HW198949  11.169  14.611   6.767
65684SOL    HW298950  11.216  14.607   6.911
65685SOL     OW98951   1.085  11.638  12.172
65685SOL    HW198952   1.037  11.702  12.121
65685SOL    HW298953   1.153  11.606  12.113
65686SOL     OW98954  14.763   1.526   5.142
65686SOL    HW198955  14.726   1.536   5.230
65686SOL    HW298956  14.845   1.479   5.155
65687SOL     OW98957  14.848   0.995   8.159
65687SOL    HW198958  14.780   1.014   8.224
65687SOL    HW298959   0.024   1.078   8.147
65688SOL     OW98960   0.939  13.469  13.380
65688SOL    HW198961   0.933  13.462  13.284
65688SOL    HW298962   0.884  13.398  13.413
65689SOL     OW98963   2.025   0.344   4.821
65689SOL    HW198964   2.075   0.298   4.754
65689SOL    HW298965   1.955   0.283   4.845
65690SOL     OW98966   6.888   3.605  13.997
65690SOL    HW198967   6.843   3.545  14.056
65690SOL    HW298968   6.900   3.554  13.917
65691SOL     OW98969  10.186   5.507   5.717
65691SOL    HW198970  10.109   5.557   5.694
65691SOL    HW298971  10.175   5.423   5.673
65692SOL     OW98972  12.924   5.077   4.757
65692SOL    HW198973  12.895   5.166   4.778
65692SOL    HW298974  12.944   5.080   4.663
65693SOL     OW98975  14.766   5.839   8.952
65693SOL    HW198976  14.797   5.799   8.871
65693SOL    HW298977  14.839   5.895   8.980
65694SOL     OW98978   1.240   6.607   4.628
65694SOL    HW198979   1.313   6.544   4.624
65694SOL    HW298980   1.202   6.606   4.540
65695SOL     OW98981  13.159   9.389   3.311
65695SOL    HW198982  13.177   9.354   3.224
65695SOL    HW298983  13.065   9.406   3.311
65696SOL     OW98984  11.348   3.248   2.526
65696SOL    HW198985  11.427   3.194   2.522
65696SOL    HW298986  11.290   3.201   2.585
65697SOL     OW98987   1.009   6.818   8.865
65697SOL    HW198988   1.046   6.864   8.941
65697SOL    HW298989   1.078   6.821   8.799
65698SOL     OW98990   0.081   4.553   9.159
65698SOL    HW198991   0.160   4.506   9.132
65698SOL    HW298992   0.031   4.490   9.210
65699SOL     OW98993   7.471  13.073   3.090
65699SOL    HW198994   7.503  13.161   3.069
65699SOL    HW298995   7.437  13.040   3.007
65700SOL     OW98996   5.477  14.416  11.319
65700SOL    HW198997   5.432  14.334  11.342
65700SOL    HW298998   5.537  14.391  11.249
65701SOL     OW98999  14.352   8.877  13.392
65701SOL    HW199000  14.352   8.912  13.482
65701SOL    HW299001  14.439   8.836  13.383
65702SOL     OW99002   3.829   9.323   7.742
65702SOL    HW199003   3.892   9.325   7.814
65702SOL    HW299004   3.866   9.263   7.678
65703SOL     OW99005   2.046   0.049   7.305
65703SOL    HW199006   2.035   0.118   7.239
65703SOL    HW299007   1.963   0.048   7.353
65704SOL     OW99008  14.408   7.017  14.092
65704SOL    HW199009  14.388   7.110  14.099
65704SOL    HW299010  14.349   6.975  14.155
65705SOL     OW99011   8.900   6.416  12.073
65705SOL    HW199012   8.890   6.475  11.998
65705SOL    HW299013   8.976   6.452  12.120
65706SOL     OW99014   6.554  10.450   4.281
65706SOL    HW199015   6.595  10.536   4.275
65706SOL    HW299016   6.567  10.411   4.195
65707SOL     OW99017   4.427   8.896   7.392
65707SOL    HW199018   4.344   8.849   7.387
65707SOL    HW299019   4.490   8.841   7.345
65708SOL     OW99020   9.194   4.321   5.112
65708SOL    HW199021   9.231   4.408   5.127
65708SOL    HW299022   9.099   4.335   5.113
65709SOL     OW99023  11.873   6.614  12.363
65709SOL    HW199024  11.856   6.534  12.413
65709SOL    HW299025  11.795   6.668  12.376
65710SOL     OW99026   1.117  13.172   0.345
65710SOL    HW199027   1.070  13.230   0.405
65710SOL    HW299028   1.104  13.085   0.381
65711SOL     OW99029  12.489   2.415   9.484
65711SOL    HW199030  12.569   2.466   9.470
65711SOL    HW299031  12.505   2.365   9.565
65712SOL     OW99032   1.180  14.405  14.754
65712SOL    HW199033   1.269  14.437  14.742
65712SOL    HW299034   1.153  14.377  14.666
65713SOL     OW99035   5.034  10.356  14.788
65713SOL    HW199036   5.039  10.293  14.716
65713SOL    HW299037   5.056  10.440  14.748
65714SOL     OW99038  14.522  14.114   0.521
65714SOL    HW199039  14.470  14.087   0.597
65714SOL    HW299040  14.600  14.060   0.525
65715SOL     OW99041   2.880   8.191  11.266
65715SOL    HW199042   2.937   8.122  11.301
65715SOL    HW299043   2.792   8.155  11.274
65716SOL     OW99044   1.463   1.943  10.892
65716SOL    HW199045   1.505   1.866  10.855
65716SOL    HW299046   1.530   2.011  10.887
65717SOL     OW99047   3.702   4.073  14.281
65717SOL    HW199048   3.653   4.115  14.211
65717SOL    HW299049   3.738   4.146  14.332
65718SOL     OW99050   7.121   2.704   3.227
65718SOL    HW199051   7.196   2.646   3.239
65718SOL    HW299052   7.157   2.779   3.179
65719SOL     OW99053   2.136   7.338  10.458
65719SOL    HW199054   2.085   7.349  10.378
65719SOL    HW299055   2.138   7.243  10.472
65720SOL     OW99056   0.249   6.847   1.437
65720SOL    HW199057   0.208   6.823   1.520
65720SOL    HW299058   0.307   6.774   1.417
65721SOL     OW99059  10.944   8.212  11.820
65721SOL    HW199060  10.866   8.183  11.868
65721SOL    HW299061  10.940   8.163  11.737
65722SOL     OW99062  12.531  13.097   1.630
65722SOL    HW199063  12.599  13.138   1.683
65722SOL    HW299064  12.574  13.078   1.546
65723SOL     OW99065   4.343  11.902  13.192
65723SOL    HW199066   4.262  11.904  13.140
65723SOL    HW299067   4.413  11.906  13.127
65724SOL     OW99068   8.954   6.585   5.569
65724SOL    HW199069   9.032   6.560   5.519
65724SOL    HW299070   8.915   6.655   5.518
65725SOL     OW99071   3.314  12.281   9.955
65725SOL    HW199072   3.330  12.187   9.955
65725SOL    HW299073   3.253  12.296  10.027
65726SOL     OW99074   1.233  14.376   2.166
65726SOL    HW199075   1.200  14.376   2.256
65726SOL    HW299076   1.190  14.301   2.125
65727SOL     OW99077  13.092   2.329  12.480
65727SOL    HW199078  13.065   2.259  12.539
65727SOL    HW299079  13.161   2.289  12.426
65728SOL     OW99080   1.026  14.863   0.586
65728SOL    HW199081   1.117  14.852   0.558
65728SOL    HW299082   1.006  14.783   0.635
65729SOL     OW99083   7.997  11.328  13.727
65729SOL    HW199084   7.976  11.322  13.634
65729SOL    HW299085   8.059  11.400  13.733
65730SOL     OW99086   9.956  14.172  13.118
65730SOL    HW199087  10.010  14.094  13.109
65730SOL    HW299088  10.004  14.240  13.071
65731SOL     OW99089   4.818   5.919   4.722
65731SOL    HW199090   4.809   5.833   4.762
65731SOL    HW299091   4.765   5.915   4.642
65732SOL     OW99092   7.954  11.480   2.591
65732SOL    HW199093   7.952  11.510   2.682
65732SOL    HW299094   8.044  11.492   2.563
65733SOL     OW99095   3.132   2.803   4.029
65733SOL    HW199096   3.111   2.772   4.117
65733SOL    HW299097   3.058   2.774   3.975
65734SOL     OW99098   6.749  11.466   6.419
65734SOL    HW199099   6.732  11.460   6.513
65734SOL    HW299100   6.733  11.558   6.398
65735SOL     OW99101   9.350   3.586  11.512
65735SOL    HW199102   9.419   3.586  11.578
65735SOL    HW299103   9.306   3.671  11.524
65736SOL     OW99104  14.862   1.518  14.280
65736SOL    HW199105  14.769   1.541  14.281
65736SOL    HW299106   0.017   1.514  14.373
65737SOL     OW99107   8.600  10.808  10.407
65737SOL    HW199108   8.556  10.814  10.323
65737SOL    HW299109   8.647  10.725  10.404
65738SOL     OW99110   6.885   6.812  12.619
65738SOL    HW199111   6.805   6.859  12.594
65738SOL    HW299112   6.904   6.755  12.544
65739SOL     OW99113   1.789   9.068  13.760
65739SOL    HW199114   1.752   9.026  13.838
65739SOL    HW299115   1.723   9.054  13.691
65740SOL     OW99116  11.581  14.112  10.275
65740SOL    HW199117  11.566  14.093  10.368
65740SOL    HW299118  11.632  14.037  10.243
65741SOL     OW99119  13.093   5.345   9.112
65741SOL    HW199120  13.141   5.267   9.140
65741SOL    HW299121  13.077   5.394   9.193
65742SOL     OW99122  11.985  10.867   5.679
65742SOL    HW199123  12.032  10.807   5.621
65742SOL    HW299124  11.936  10.809   5.739
65743SOL     OW99125   8.061  10.012  12.777
65743SOL    HW199126   8.087  10.078  12.841
65743SOL    HW299127   7.966  10.012  12.780
65744SOL     OW99128  14.038  14.231   7.190
65744SOL    HW199129  14.025  14.300   7.255
65744SOL    HW299130  13.972  14.249   7.123
65745SOL     OW99131   5.617   7.225  13.210
65745SOL    HW199132   5.606   7.269  13.294
65745SOL    HW299133   5.711   7.208  13.204
65746SOL     OW99134   9.951   4.944   7.125
65746SOL    HW199135  10.009   4.888   7.075
65746SOL    HW299136   9.875   4.889   7.145
65747SOL     OW99137   0.860   9.264  12.161
65747SOL    HW199138   0.911   9.200  12.113
65747SOL    HW299139   0.880   9.348  12.118
65748SOL     OW99140   7.121  12.965   4.962
65748SOL    HW199141   7.045  12.970   4.904
65748SOL    HW299142   7.151  12.875   4.955
65749SOL     OW99143   3.523   0.438  11.315
65749SOL    HW199144   3.443   0.489  11.329
65749SOL    HW299145   3.492   0.353  11.284
65750SOL     OW99146  12.341  14.770  10.341
65750SOL    HW199147  12.407  14.710  10.307
65750SOL    HW299148  12.379  14.805  10.422
65751SOL     OW99149   9.218   6.533   6.176
65751SOL    HW199150   9.234   6.619   6.137
65751SOL    HW299151   9.129   6.511   6.148
65752SOL     OW99152   7.875   1.603   9.901
65752SOL    HW199153   7.820   1.674   9.934
65752SOL    HW299154   7.851   1.595   9.809
65753SOL     OW99155   6.905  12.005   1.724
65753SOL    HW199156   6.971  12.072   1.735
65753SOL    HW299157   6.828  12.052   1.691
65754SOL     OW99158   5.852   4.240   6.115
65754SOL    HW199159   5.834   4.179   6.187
65754SOL    HW299160   5.947   4.237   6.103
65755SOL     OW99161   2.968  14.695   0.022
65755SOL    HW199162   2.935  14.613   0.060
65755SOL    HW299163   2.966  14.758   0.094
65756SOL     OW99164   9.527  11.443   5.057
65756SOL    HW199165   9.534  11.404   5.144
65756SOL    HW299166   9.576  11.383   5.000
65757SOL     OW99167   8.061   6.120   4.616
65757SOL    HW199168   8.147   6.162   4.611
65757SOL    HW299169   8.006   6.185   4.661
65758SOL     OW99170   1.708   5.273   0.506
65758SOL    HW199171   1.782   5.214   0.516
65758SOL    HW299172   1.688   5.303   0.595
65759SOL     OW99173   6.760   2.192  12.311
65759SOL    HW199174   6.785   2.259  12.375
65759SOL    HW299175   6.669   2.212  12.289
65760SOL     OW99176   2.217   3.170   7.472
65760SOL    HW199177   2.210   3.231   7.399
65760SOL    HW299178   2.260   3.092   7.435
65761SOL     OW99179   9.372   4.743   6.098
65761SOL    HW199180   9.296   4.801   6.106
65761SOL    HW299181   9.402   4.756   6.008
65762SOL     OW99182   7.211   1.891   7.889
65762SOL    HW199183   7.135   1.899   7.946
65762SOL    HW299184   7.221   1.796   7.876
65763SOL     OW99185   9.550  11.199   4.620
65763SOL    HW199186   9.628  11.218   4.567
65763SOL    HW299187   9.580  11.209   4.711
65764SOL     OW99188   5.071   8.688  11.068
65764SOL    HW199189   4.993   8.706  11.120
65764SOL    HW299190   5.058   8.737  10.987
65765SOL     OW99191  12.715  10.734   8.365
65765SOL    HW199192  12.646  10.796   8.341
65765SOL    HW299193  12.678  10.648   8.348
65766SOL     OW99194   4.924   8.652   8.820
65766SOL    HW199195   4.967   8.633   8.736
65766SOL    HW299196   4.903   8.745   8.816
65767SOL     OW99197   4.928   9.993   3.118
65767SOL    HW199198   4.940   9.978   3.212
65767SOL    HW299199   5.016   9.985   3.081
65768SOL     OW99200   5.978   2.369   9.637
65768SOL    HW199201   5.967   2.286   9.684
65768SOL    HW299202   6.041   2.418   9.688
65769SOL     OW99203   8.235  12.744   3.093
65769SOL    HW199204   8.284  12.738   3.011
65769SOL    HW299205   8.231  12.838   3.112
65770SOL     OW99206   6.368  11.811  13.643
65770SOL    HW199207   6.367  11.815  13.547
65770SOL    HW299208   6.461  11.800  13.665
65771SOL     OW99209  13.899   8.305   0.354
65771SOL    HW199210  13.868   8.287   0.265
65771SOL    HW299211  13.940   8.391   0.349
65772SOL     OW99212   1.037   9.597   4.096
65772SOL    HW199213   1.024   9.572   4.004
65772SOL    HW299214   0.960   9.651   4.117
65773SOL     OW99215   4.625   7.498  13.382
65773SOL    HW199216   4.545   7.550  13.374
65773SOL    HW299217   4.630   7.475  13.475
65774SOL     OW99218  11.857  11.902   5.872
65774SOL    HW199219  11.829  11.829   5.817
65774SOL    HW299220  11.949  11.885   5.889
65775SOL     OW99221   9.862  13.967   7.067
65775SOL    HW199222   9.876  14.008   7.152
65775SOL    HW299223   9.850  14.040   7.007
65776SOL     OW99224   7.303   8.352  12.748
65776SOL    HW199225   7.300   8.294  12.824
65776SOL    HW299226   7.281   8.296  12.673
65777SOL     OW99227   1.691  14.702   9.120
65777SOL    HW199228   1.627  14.690   9.050
65777SOL    HW299229   1.689  14.620   9.169
65778SOL     OW99230   7.693   1.988   2.162
65778SOL    HW199231   7.751   1.978   2.237
65778SOL    HW299232   7.712   2.075   2.126
65779SOL     OW99233   5.537  12.107  11.315
65779SOL    HW199234   5.572  12.107  11.404
65779SOL    HW299235   5.599  12.160  11.265
65780SOL     OW99236   6.956   7.066   7.211
65780SOL    HW199237   7.034   7.119   7.196
65780SOL    HW299238   6.982   6.977   7.185
65781SOL     OW99239   3.957   2.881  11.565
65781SOL    HW199240   4.003   2.928  11.496
65781SOL    HW299241   3.938   2.795  11.528
65782SOL     OW99242   9.260  11.444  12.691
65782SOL    HW199243   9.295  11.453  12.779
65782SOL    HW299244   9.333  11.412  12.639
65783SOL     OW99245   4.030   1.647  11.240
65783SOL    HW199246   3.987   1.563  11.254
65783SOL    HW299247   4.014   1.696  11.321
65784SOL     OW99248  11.794   4.912   3.569
65784SOL    HW199249  11.794   4.927   3.474
65784SOL    HW299250  11.796   5.000   3.606
65785SOL     OW99251  11.143   4.588   1.076
65785SOL    HW199252  11.141   4.626   0.988
65785SOL    HW299253  11.089   4.509   1.069
65786SOL     OW99254   0.940  10.867   6.788
65786SOL    HW199255   0.976  10.858   6.877
65786SOL    HW299256   0.858  10.915   6.800
65787SOL     OW99257  14.395   2.943  10.527
65787SOL    HW199258  14.315   2.905  10.562
65787SOL    HW299259  14.463   2.879  10.549
65788SOL     OW99260   1.518   0.429   3.893
65788SOL    HW199261   1.495   0.415   3.985
65788SOL    HW299262   1.437   0.410   3.846
65789SOL     OW99263   5.507  12.660  10.847
65789SOL    HW199264   5.462  12.583  10.881
65789SOL    HW299265   5.563  12.689  10.919
65790SOL     OW99266  13.808  10.843  10.041
65790SOL    HW199267  13.730  10.830   9.987
65790SOL    HW299268  13.881  10.836   9.979
65791SOL     OW99269   3.940   6.414   4.868
65791SOL    HW199270   3.964   6.424   4.776
65791SOL    HW299271   4.005   6.354   4.904
65792SOL     OW99272   6.712   9.916   2.679
65792SOL    HW199273   6.674   9.879   2.600
65792SOL    HW299274   6.668  10.001   2.689
65793SOL     OW99275   8.317   6.661   7.192
65793SOL    HW199276   8.368   6.699   7.120
65793SOL    HW299277   8.226   6.682   7.171
65794SOL     OW99278   3.219  14.661  14.132
65794SOL    HW199279   3.213  14.749  14.096
65794SOL    HW299280   3.297  14.624  14.091
65795SOL     OW99281   8.506   1.187   1.753
65795SOL    HW199282   8.523   1.202   1.846
65795SOL    HW299283   8.502   1.092   1.745
65796SOL     OW99284  13.580   4.246   7.626
65796SOL    HW199285  13.569   4.156   7.654
65796SOL    HW299286  13.626   4.288   7.698
65797SOL     OW99287   6.681  10.784  13.324
65797SOL    HW199288   6.729  10.817  13.248
65797SOL    HW299289   6.749  10.762  13.388
65798SOL     OW99290  10.181   5.959   1.170
65798SOL    HW199291  10.121   6.033   1.182
65798SOL    HW299292  10.178   5.939   1.077
65799SOL     OW99293   6.235   9.451   1.606
65799SOL    HW199294   6.241   9.415   1.517
65799SOL    HW299295   6.326   9.466   1.631
65800SOL     OW99296   3.553  12.489   0.565
65800SOL    HW199297   3.501  12.408   0.566
65800SOL    HW299298   3.500  12.552   0.613
65801SOL     OW99299  13.282  13.659   6.067
65801SOL    HW199300  13.278  13.573   6.108
65801SOL    HW299301  13.193  13.675   6.035
65802SOL     OW99302   1.397   3.049   7.647
65802SOL    HW199303   1.369   3.027   7.735
65802SOL    HW299304   1.490   3.071   7.656
65803SOL     OW99305   3.101   7.457   2.117
65803SOL    HW199306   3.046   7.480   2.042
65803SOL    HW299307   3.105   7.537   2.169
65804SOL     OW99308   8.666  13.110  13.731
65804SOL    HW199309   8.688  13.103  13.824
65804SOL    HW299310   8.702  13.030  13.692
65805SOL     OW99311  14.178   6.040  12.971
65805SOL    HW199312  14.210   6.009  13.055
65805SOL    HW299313  14.162   5.961  12.920
65806SOL     OW99314  11.969   8.776  11.040
65806SOL    HW199315  11.970   8.694  11.090
65806SOL    HW299316  11.996   8.843  11.103
65807SOL     OW99317  10.226  12.920   9.010
65807SOL    HW199318  10.175  12.842   9.031
65807SOL    HW299319  10.163  12.993   9.018
65808SOL     OW99320   2.148   7.425   2.393
65808SOL    HW199321   2.136   7.343   2.345
65808SOL    HW299322   2.147   7.492   2.325
65809SOL     OW99323  12.484  11.658  13.603
65809SOL    HW199324  12.541  11.619  13.669
65809SOL    HW299325  12.418  11.591  13.586
65810SOL     OW99326   3.568   7.631   5.544
65810SOL    HW199327   3.631   7.626   5.472
65810SOL    HW299328   3.489   7.588   5.510
65811SOL     OW99329   4.902  13.352   9.421
65811SOL    HW199330   4.952  13.415   9.472
65811SOL    HW299331   4.921  13.267   9.462
65812SOL     OW99332   4.230   8.894   6.401
65812SOL    HW199333   4.265   8.945   6.474
65812SOL    HW299334   4.306   8.850   6.363
65813SOL     OW99335   0.427   4.885  11.479
65813SOL    HW199336   0.495   4.904  11.544
65813SOL    HW299337   0.471   4.830  11.414
65814SOL     OW99338   8.943   7.507   0.488
65814SOL    HW199339   8.852   7.479   0.479
65814SOL    HW299340   8.937   7.595   0.525
65815SOL     OW99341  11.922  12.342  11.980
65815SOL    HW199342  11.974  12.282  11.927
65815SOL    HW299343  11.930  12.309  12.069
65816SOL     OW99344   0.004  14.353   8.584
65816SOL    HW199345   0.066  14.284   8.562
65816SOL    HW299346   0.027  14.426   8.527
65817SOL     OW99347   5.761   8.213   8.915
65817SOL    HW199348   5.797   8.290   8.871
65817SOL    HW299349   5.785   8.139   8.858
65818SOL     OW99350   3.903   4.647  12.964
65818SOL    HW199351   3.814   4.673  12.943
65818SOL    HW299352   3.903   4.634  13.059
65819SOL     OW99353   3.157  11.723   5.938
65819SOL    HW199354   3.181  11.714   6.030
65819SOL    HW299355   3.062  11.709   5.937
65820SOL     OW99356   4.437  14.716   9.497
65820SOL    HW199357   4.380  14.664   9.554
65820SOL    HW299358   4.474  14.783   9.554
65821SOL     OW99359   9.939  14.620   2.478
65821SOL    HW199360   9.959  14.703   2.521
65821SOL    HW299361   9.844  14.620   2.469
65822SOL     OW99362   7.124  11.473   0.045
65822SOL    HW199363   7.175  11.520  14.849
65822SOL    HW299364   7.189  11.419   0.091
65823SOL     OW99365   9.619   7.430   0.887
65823SOL    HW199366   9.533   7.462   0.860
65823SOL    HW299367   9.679   7.501   0.863
65824SOL     OW99368  11.169   4.057   3.336
65824SOL    HW199369  11.211   4.065   3.250
65824SOL    HW299370  11.076   4.042   3.316
65825SOL     OW99371  11.987   0.822   0.549
65825SOL    HW199372  12.008   0.870   0.469
65825SOL    HW299373  11.926   0.754   0.521
65826SOL     OW99374   3.970   4.232   0.405
65826SOL    HW199375   4.064   4.239   0.420
65826SOL    HW299376   3.932   4.228   0.493
65827SOL     OW99377  14.560   6.974  14.817
65827SOL    HW199378  14.484   6.929  14.780
65827SOL    HW299379  14.595   6.913   0.012
65828SOL     OW99380  11.933   1.343   9.656
65828SOL    HW199381  11.921   1.406   9.584
65828SOL    HW299382  11.849   1.298   9.663
65829SOL     OW99383   6.872   9.066   6.039
65829SOL    HW199384   6.921   9.136   6.083
65829SOL    HW299385   6.866   8.996   6.104
65830SOL     OW99386   3.833   4.434   5.735
65830SOL    HW199387   3.869   4.398   5.816
65830SOL    HW299388   3.834   4.529   5.747
65831SOL     OW99389   7.839   9.482  11.241
65831SOL    HW199390   7.790   9.494  11.159
65831SOL    HW299391   7.803   9.402  11.278
65832SOL     OW99392  14.786   4.357  10.364
65832SOL    HW199393  14.711   4.410  10.337
65832SOL    HW299394  14.751   4.300  10.433
65833SOL     OW99395   3.271  11.003  14.727
65833SOL    HW199396   3.330  11.061  14.679
65833SOL    HW299397   3.264  11.042  14.814
65834SOL     OW99398   8.665   8.267   1.404
65834SOL    HW199399   8.667   8.238   1.312
65834SOL    HW299400   8.574   8.293   1.419
65835SOL     OW99401   4.531  14.154   7.059
65835SOL    HW199402   4.451  14.122   7.017
65835SOL    HW299403   4.501  14.218   7.123
65836SOL     OW99404   5.915   1.216   1.113
65836SOL    HW199405   5.882   1.139   1.159
65836SOL    HW299406   5.842   1.278   1.114
65837SOL     OW99407   6.493   8.053   3.776
65837SOL    HW199408   6.400   8.038   3.757
65837SOL    HW299409   6.538   7.981   3.733
65838SOL     OW99410   5.348  12.378   5.897
65838SOL    HW199411   5.395  12.407   5.975
65838SOL    HW299412   5.264  12.347   5.929
65839SOL     OW99413   2.473  12.468  13.778
65839SOL    HW199414   2.486  12.390  13.832
65839SOL    HW299415   2.535  12.458  13.706
65840SOL     OW99416   6.397  10.506   8.719
65840SOL    HW199417   6.309  10.485   8.688
65840SOL    HW299418   6.413  10.442   8.789
65841SOL     OW99419   2.523   0.653   2.259
65841SOL    HW199420   2.576   0.632   2.182
65841SOL    HW299421   2.446   0.597   2.252
65842SOL     OW99422   4.681  12.656   8.801
65842SOL    HW199423   4.684  12.690   8.712
65842SOL    HW299424   4.773  12.643   8.825
65843SOL     OW99425   0.994   3.202   3.229
65843SOL    HW199426   1.059   3.269   3.251
65843SOL    HW299427   0.913   3.233   3.269
65844SOL     OW99428   5.814   3.430   5.524
65844SOL    HW199429   5.895   3.476   5.502
65844SOL    HW299430   5.762   3.495   5.572
65845SOL     OW99431   2.929  12.881  14.497
65845SOL    HW199432   3.023  12.891  14.486
65845SOL    HW299433   2.895  12.875  14.407
65846SOL     OW99434  14.098   2.228   8.841
65846SOL    HW199435  14.034   2.167   8.877
65846SOL    HW299436  14.179   2.178   8.836
65847SOL     OW99437   1.125  14.186   8.837
65847SOL    HW199438   1.093  14.163   8.749
65847SOL    HW299439   1.050  14.171   8.894
65848SOL     OW99440   7.623   4.301   8.558
65848SOL    HW199441   7.579   4.269   8.637
65848SOL    HW299442   7.552   4.338   8.504
65849SOL     OW99443  10.584  12.243   8.587
65849SOL    HW199444  10.629  12.214   8.507
65849SOL    HW299445  10.615  12.333   8.600
65850SOL     OW99446   7.604   5.988   8.246
65850SOL    HW199447   7.610   5.943   8.162
65850SOL    HW299448   7.669   5.944   8.301
65851SOL     OW99449   1.564  14.182   9.618
65851SOL    HW199450   1.600  14.191   9.706
65851SOL    HW299451   1.514  14.263   9.604
65852SOL     OW99452   6.652  12.510  10.304
65852SOL    HW199453   6.669  12.591  10.256
65852SOL    HW299454   6.672  12.440  10.242
65853SOL     OW99455  13.219   6.822   6.997
65853SOL    HW199456  13.282   6.751   6.992
65853SOL    HW299457  13.257   6.891   6.942
65854SOL     OW99458   1.259  10.354   4.998
65854SOL    HW199459   1.235  10.411   4.924
65854SOL    HW299460   1.185  10.293   5.006
65855SOL     OW99461   1.479   6.690   8.005
65855SOL    HW199462   1.448   6.659   7.920
65855SOL    HW299463   1.504   6.781   7.989
65856SOL     OW99464   7.461   6.339   7.312
65856SOL    HW199465   7.439   6.392   7.388
65856SOL    HW299466   7.391   6.273   7.308
65857SOL     OW99467   9.686   7.137  12.560
65857SOL    HW199468   9.750   7.136  12.631
65857SOL    HW299469   9.651   7.048  12.558
65858SOL     OW99470  11.807   4.875  12.562
65858SOL    HW199471  11.872   4.945  12.556
65858SOL    HW299472  11.842   4.805  12.507
65859SOL     OW99473   2.707   7.614   2.613
65859SOL    HW199474   2.629   7.650   2.656
65859SOL    HW299475   2.685   7.522   2.599
65860SOL     OW99476  10.400  13.124  13.771
65860SOL    HW199477  10.438  13.050  13.820
65860SOL    HW299478  10.421  13.105  13.679
65861SOL     OW99479   0.814   0.162   9.855
65861SOL    HW199480   0.807   0.119   9.940
65861SOL    HW299481   0.737   0.132   9.807
65862SOL     OW99482   3.899   6.742   1.573
65862SOL    HW199483   3.855   6.694   1.643
65862SOL    HW299484   3.973   6.785   1.616
65863SOL     OW99485   0.369   9.492  13.092
65863SOL    HW199486   0.285   9.488  13.139
65863SOL    HW299487   0.435   9.489  13.161
65864SOL     OW99488   4.345   3.607  13.454
65864SOL    HW199489   4.339   3.584  13.547
65864SOL    HW299490   4.325   3.700  13.451
65865SOL     OW99491  11.755  10.097  10.608
65865SOL    HW199492  11.732  10.160  10.676
65865SOL    HW299493  11.740  10.011  10.649
65866SOL     OW99494  14.033  10.123  13.653
65866SOL    HW199495  14.011  10.061  13.583
65866SOL    HW299496  13.951  10.136  13.700
65867SOL     OW99497   9.069   9.804   8.546
65867SOL    HW199498   8.998   9.744   8.567
65867SOL    HW299499   9.087   9.849   8.629
65868SOL     OW99500  13.458  11.448   2.942
65868SOL    HW199501  13.546  11.464   2.976
65868SOL    HW299502  13.417  11.392   3.008
65869SOL     OW99503   4.168  10.781  10.050
65869SOL    HW199504   4.242  10.725  10.071
65869SOL    HW299505   4.151  10.764   9.957
65870SOL     OW99506   2.024   5.832   7.093
65870SOL    HW199507   1.992   5.744   7.113
65870SOL    HW299508   2.098   5.845   7.151
65871SOL     OW99509   7.017  12.130  13.055
65871SOL    HW199510   7.048  12.180  13.130
65871SOL    HW299511   7.046  12.040  13.072
65872SOL     OW99512   9.597   6.487   6.141
65872SOL    HW199513   9.580   6.560   6.080
65872SOL    HW299514   9.511   6.445   6.152
65873SOL     OW99515   6.473   1.295  11.885
65873SOL    HW199516   6.467   1.226  11.819
65873SOL    HW299517   6.432   1.259  11.963
65874SOL     OW99518  11.646  12.331  14.834
65874SOL    HW199519  11.643  12.423  14.860
65874SOL    HW299520  11.716  12.293   0.019
65875SOL     OW99521   9.030   7.117   3.211
65875SOL    HW199522   9.102   7.058   3.188
65875SOL    HW299523   9.068   7.205   3.204
65876SOL     OW99524  13.004   0.585   7.072
65876SOL    HW199525  13.020   0.506   7.123
65876SOL    HW299526  12.968   0.648   7.134
65877SOL     OW99527  10.109   8.701  10.911
65877SOL    HW199528  10.170   8.761  10.953
65877SOL    HW299529  10.076   8.750  10.835
65878SOL     OW99530   8.867   8.753   6.927
65878SOL    HW199531   8.930   8.808   6.973
65878SOL    HW299532   8.917   8.674   6.904
65879SOL     OW99533  11.724  11.438   6.584
65879SOL    HW199534  11.690  11.365   6.532
65879SOL    HW299535  11.646  11.476   6.625
65880SOL     OW99536   3.595   1.851  11.207
65880SOL    HW199537   3.616   1.940  11.235
65880SOL    HW299538   3.501   1.843  11.221
65881SOL     OW99539  10.848  12.232   0.999
65881SOL    HW199540  10.889  12.315   0.973
65881SOL    HW299541  10.875  12.220   1.090
65882SOL     OW99542   4.438  12.034   9.128
65882SOL    HW199543   4.430  12.130   9.133
65882SOL    HW299544   4.419  12.004   9.217
65883SOL     OW99545  11.673   8.270   1.097
65883SOL    HW199546  11.739   8.244   1.032
65883SOL    HW299547  11.624   8.190   1.115
65884SOL     OW99548   5.505   2.260  10.579
65884SOL    HW199549   5.537   2.348  10.599
65884SOL    HW299550   5.583   2.211  10.553
65885SOL     OW99551   6.000  10.653   6.448
65885SOL    HW199552   5.946  10.598   6.391
65885SOL    HW299553   6.090  10.636   6.418
65886SOL     OW99554  12.967   4.550   4.765
65886SOL    HW199555  12.894   4.538   4.826
65886SOL    HW299556  12.927   4.545   4.678
65887SOL     OW99557   1.111   7.383   6.082
65887SOL    HW199558   1.061   7.302   6.087
65887SOL    HW299559   1.203   7.354   6.083
65888SOL     OW99560   7.968   2.542   1.065
65888SOL    HW199561   8.028   2.575   1.132
65888SOL    HW299562   8.018   2.476   1.017
65889SOL     OW99563   9.849   2.170   5.491
65889SOL    HW199564   9.898   2.090   5.470
65889SOL    HW299565   9.786   2.142   5.558
65890SOL     OW99566  12.668  10.015  13.897
65890SOL    HW199567  12.663  10.046  13.806
65890SOL    HW299568  12.621   9.931  13.896
65891SOL     OW99569   6.317   7.702  11.150
65891SOL    HW199570   6.273   7.623  11.182
65891SOL    HW299571   6.247   7.755  11.114
65892SOL     OW99572   7.655   7.707   1.284
65892SOL    HW199573   7.711   7.767   1.234
65892SOL    HW299574   7.716   7.654   1.335
65893SOL     OW99575  10.988   3.349   6.100
65893SOL    HW199576  11.038   3.429   6.083
65893SOL    HW299577  10.911   3.379   6.149
65894SOL     OW99578   6.653   0.197  12.674
65894SOL    HW199579   6.644   0.131  12.742
65894SOL    HW299580   6.710   0.156  12.609
65895SOL     OW99581  11.784   6.778   7.390
65895SOL    HW199582  11.872   6.805   7.366
65895SOL    HW299583  11.728   6.813   7.320
65896SOL     OW99584   3.511   9.543  14.210
65896SOL    HW199585   3.464   9.569  14.131
65896SOL    HW299586   3.571   9.474  14.181
65897SOL     OW99587  11.718  11.622  14.678
65897SOL    HW199588  11.669  11.579  14.608
65897SOL    HW299589  11.758  11.698  14.636
65898SOL     OW99590   4.449   2.599  11.583
65898SOL    HW199591   4.409   2.676  11.624
65898SOL    HW299592   4.375   2.545  11.557
65899SOL     OW99593   8.878   8.229   6.869
65899SOL    HW199594   8.811   8.252   6.934
65899SOL    HW299595   8.882   8.133   6.873
65900SOL     OW99596   0.070  10.546   6.271
65900SOL    HW199597   0.146  10.501   6.235
65900SOL    HW299598   0.089  10.639   6.259
65901SOL     OW99599  10.914   9.991   9.596
65901SOL    HW199600  10.984  10.021   9.538
65901SOL    HW299601  10.884   9.908   9.557
65902SOL     OW99602   6.016   6.172  11.671
65902SOL    HW199603   5.953   6.101  11.681
65902SOL    HW299604   6.092   6.131  11.628
65903SOL     OW99605  14.389   0.396   5.362
65903SOL    HW199606  14.444   0.475   5.360
65903SOL    HW299607  14.339   0.400   5.281
65904SOL     OW99608  10.058   9.146   3.358
65904SOL    HW199609   9.962   9.143   3.359
65904SOL    HW299610  10.085   9.078   3.421
65905SOL     OW99611   8.961   6.732   4.013
65905SOL    HW199612   8.991   6.650   3.974
65905SOL    HW299613   9.042   6.781   4.032
65906SOL     OW99614   2.197   5.211   9.190
65906SOL    HW199615   2.250   5.255   9.256
65906SOL    HW299616   2.127   5.168   9.239
65907SOL     OW99617   5.695   6.786  10.646
65907SOL    HW199618   5.707   6.836  10.727
65907SOL    HW299619   5.783   6.756  10.623
65908SOL     OW99620  10.437  12.664   0.057
65908SOL    HW199621  10.491  12.719   0.114
65908SOL    HW299622  10.435  12.579   0.101
65909SOL     OW99623   0.175   8.235   5.040
65909SOL    HW199624   0.191   8.253   5.133
65909SOL    HW299625   0.080   8.223   5.035
65910SOL     OW99626   0.881  13.346   2.968
65910SOL    HW199627   0.947  13.394   3.018
65910SOL    HW299628   0.802  13.351   3.022
65911SOL     OW99629  11.428   6.778   1.371
65911SOL    HW199630  11.489   6.707   1.390
65911SOL    HW299631  11.391   6.802   1.457
65912SOL     OW99632   5.453   4.615   6.023
65912SOL    HW199633   5.360   4.606   6.042
65912SOL    HW299634   5.456   4.661   5.938
65913SOL     OW99635   3.612   2.645   6.335
65913SOL    HW199636   3.646   2.698   6.407
65913SOL    HW299637   3.609   2.704   6.260
65914SOL     OW99638   3.891  12.643   0.673
65914SOL    HW199639   3.877  12.673   0.583
65914SOL    HW299640   3.961  12.699   0.706
65915SOL     OW99641  11.097   0.712   7.120
65915SOL    HW199642  11.188   0.732   7.098
65915SOL    HW299643  11.046   0.780   7.076
65916SOL     OW99644   1.697  10.111  13.886
65916SOL    HW199645   1.711  10.112  13.980
65916SOL    HW299646   1.743  10.032  13.856
65917SOL     OW99647   6.511   3.737  14.171
65917SOL    HW199648   6.478   3.734  14.081
65917SOL    HW299649   6.437   3.708  14.225
65918SOL     OW99650   5.122   0.720   0.508
65918SOL    HW199651   5.117   0.813   0.530
65918SOL    HW299652   5.081   0.676   0.583
65919SOL     OW99653   5.839  12.121   6.635
65919SOL    HW199654   5.906  12.080   6.580
65919SOL    HW299655   5.876  12.207   6.656
65920SOL     OW99656   4.164  14.786   5.145
65920SOL    HW199657   4.169  14.694   5.118
65920SOL    HW299658   4.244  14.825   5.111
65921SOL     OW99659   7.614  12.388   6.533
65921SOL    HW199660   7.597  12.295   6.516
65921SOL    HW299661   7.680  12.412   6.469
65922SOL     OW99662   2.618  13.138  12.274
65922SOL    HW199663   2.591  13.104  12.360
65922SOL    HW299664   2.688  13.079  12.246
65923SOL     OW99665   4.756   9.561   6.500
65923SOL    HW199666   4.824   9.494   6.500
65923SOL    HW299667   4.797   9.636   6.455
65924SOL     OW99668  13.457  11.420   9.161
65924SOL    HW199669  13.396  11.469   9.216
65924SOL    HW299670  13.494  11.354   9.218
65925SOL     OW99671   7.833   9.757   1.170
65925SOL    HW199672   7.788   9.818   1.112
65925SOL    HW299673   7.924   9.786   1.170
65926SOL     OW99674  12.217  12.274   0.161
65926SOL    HW199675  12.159  12.242   0.092
65926SOL    HW299676  12.163  12.334   0.212
65927SOL     OW99677   4.778  13.430   5.852
65927SOL    HW199678   4.752  13.383   5.931
65927SOL    HW299679   4.713  13.500   5.843
65928SOL     OW99680   0.835   8.012   6.628
65928SOL    HW199681   0.833   8.060   6.710
65928SOL    HW299682   0.756   7.958   6.629
65929SOL     OW99683   0.772   3.620   8.915
65929SOL    HW199684   0.766   3.600   9.008
65929SOL    HW299685   0.822   3.548   8.878
65930SOL     OW99686   8.815   1.305   1.009
65930SOL    HW199687   8.809   1.306   1.104
65930SOL    HW299688   8.874   1.232   0.989
65931SOL     OW99689   6.354   8.479   3.615
65931SOL    HW199690   6.272   8.441   3.584
65931SOL    HW299691   6.372   8.550   3.554
65932SOL     OW99692   6.619   8.270   2.016
65932SOL    HW199693   6.709   8.285   2.045
65932SOL    HW299694   6.600   8.180   2.043
65933SOL     OW99695   2.129   3.861   1.411
65933SOL    HW199696   2.219   3.844   1.440
65933SOL    HW299697   2.075   3.805   1.467
65934SOL     OW99698   8.151   9.513   5.007
65934SOL    HW199699   8.216   9.504   4.937
65934SOL    HW299700   8.203   9.526   5.086
65935SOL     OW99701   1.774   7.427   3.287
65935SOL    HW199702   1.687   7.439   3.324
65935SOL    HW299703   1.827   7.495   3.328
65936SOL     OW99704   0.308   2.844   5.154
65936SOL    HW199705   0.376   2.858   5.220
65936SOL    HW299706   0.352   2.796   5.084
65937SOL     OW99707  10.827   3.758   4.414
65937SOL    HW199708  10.887   3.683   4.410
65937SOL    HW299709  10.771   3.749   4.336
65938SOL     OW99710   1.289   5.339  12.302
65938SOL    HW199711   1.381   5.316  12.290
65938SOL    HW299712   1.290   5.433  12.319
65939SOL     OW99713   8.236   5.749  10.214
65939SOL    HW199714   8.203   5.838  10.203
65939SOL    HW299715   8.321   5.760  10.257
65940SOL     OW99716  14.832  10.858   6.362
65940SOL    HW199717  14.799  10.774   6.395
65940SOL    HW299718  14.852  10.908   6.441
65941SOL     OW99719  13.519   3.962  14.032
65941SOL    HW199720  13.471   4.041  14.005
65941SOL    HW299721  13.544   3.921  13.949
65942SOL     OW99722   4.785   6.868   4.633
65942SOL    HW199723   4.761   6.806   4.565
65942SOL    HW299724   4.875   6.845   4.657
65943SOL     OW99725   5.462   8.609   9.698
65943SOL    HW199726   5.425   8.593   9.784
65943SOL    HW299727   5.450   8.702   9.682
65944SOL     OW99728  13.998   2.101  11.421
65944SOL    HW199729  14.009   2.008  11.406
65944SOL    HW299730  13.921   2.125  11.369
65945SOL     OW99731   4.361  10.218   7.985
65945SOL    HW199732   4.441  10.228   7.932
65945SOL    HW299733   4.373  10.135   8.030
65946SOL     OW99734   1.415   7.183   0.474
65946SOL    HW199735   1.374   7.262   0.510
65946SOL    HW299736   1.453   7.139   0.550
65947SOL     OW99737   9.938  11.719   0.445
65947SOL    HW199738   9.860  11.774   0.453
65947SOL    HW299739   9.956  11.690   0.535
65948SOL     OW99740   9.296   5.913   0.135
65948SOL    HW199741   9.222   5.858   0.162
65948SOL    HW299742   9.374   5.860   0.156
65949SOL     OW99743  13.746  10.540   1.372
65949SOL    HW199744  13.715  10.452   1.350
65949SOL    HW299745  13.785  10.572   1.290
65950SOL     OW99746   2.520  12.913  10.949
65950SOL    HW199747   2.431  12.937  10.974
65950SOL    HW299748   2.568  12.908  11.032
65951SOL     OW99749   3.796   3.715   3.575
65951SOL    HW199750   3.875   3.758   3.542
65951SOL    HW299751   3.758   3.672   3.499
65952SOL     OW99752   1.193  11.793   1.631
65952SOL    HW199753   1.169  11.827   1.717
65952SOL    HW299754   1.117  11.810   1.575
65953SOL     OW99755   2.229   4.769   6.736
65953SOL    HW199756   2.321   4.741   6.735
65953SOL    HW299757   2.225   4.840   6.673
65954SOL     OW99758  10.324   8.284   3.624
65954SOL    HW199759  10.255   8.218   3.617
65954SOL    HW299760  10.326   8.325   3.537
65955SOL     OW99761   4.112   1.313   2.220
65955SOL    HW199762   4.057   1.340   2.293
65955SOL    HW299763   4.080   1.226   2.196
65956SOL     OW99764   7.415   5.511  14.163
65956SOL    HW199765   7.382   5.595  14.130
65956SOL    HW299766   7.350   5.447  14.134
65957SOL     OW99767   7.487  12.513   3.198
65957SOL    HW199768   7.570  12.465   3.186
65957SOL    HW299769   7.503  12.569   3.274
65958SOL     OW99770  14.516  11.433  14.369
65958SOL    HW199771  14.552  11.350  14.336
65958SOL    HW299772  14.556  11.443  14.455
65959SOL     OW99773   6.251  13.333   2.298
65959SOL    HW199774   6.170  13.324   2.247
65959SOL    HW299775   6.297  13.406   2.257
65960SOL     OW99776  12.469  13.181  13.855
65960SOL    HW199777  12.561  13.180  13.881
65960SOL    HW299778  12.465  13.242  13.782
65961SOL     OW99779   2.909  12.513   6.905
65961SOL    HW199780   2.945  12.511   6.994
65961SOL    HW299781   2.876  12.425   6.891
65962SOL     OW99782  11.859   4.805   6.023
65962SOL    HW199783  11.779   4.778   6.067
65962SOL    HW299784  11.832   4.826   5.933
65963SOL     OW99785  10.952  14.430  11.044
65963SOL    HW199786  10.960  14.478  10.961
65963SOL    HW299787  10.987  14.491  11.110
65964SOL     OW99788   8.559   9.044   0.954
65964SOL    HW199789   8.471   9.080   0.968
65964SOL    HW299790   8.581   9.070   0.865
65965SOL     OW99791   6.174  11.383  13.871
65965SOL    HW199792   6.205  11.443  13.803
65965SOL    HW299793   6.186  11.296  13.833
65966SOL     OW99794  11.992   9.659   2.811
65966SOL    HW199795  12.019   9.580   2.765
65966SOL    HW299796  11.898   9.648   2.824
65967SOL     OW99797   8.945  10.354   4.566
65967SOL    HW199798   8.956  10.416   4.638
65967SOL    HW299799   9.002  10.281   4.589
65968SOL     OW99800   2.835   7.013   5.100
65968SOL    HW199801   2.873   6.961   5.171
65968SOL    HW299802   2.911   7.041   5.049
65969SOL     OW99803   4.487  12.601   6.496
65969SOL    HW199804   4.441  12.525   6.532
65969SOL    HW299805   4.570  12.603   6.543
65970SOL     OW99806   9.714  13.859   4.941
65970SOL    HW199807   9.707  13.798   4.868
65970SOL    HW299808   9.781  13.922   4.913
65971SOL     OW99809   3.874   2.782  10.022
65971SOL    HW199810   3.846   2.729  10.096
65971SOL    HW299811   3.858   2.873  10.049
65972SOL     OW99812   7.268   3.106   0.311
65972SOL    HW199813   7.232   3.078   0.396
65972SOL    HW299814   7.206   3.073   0.247
65973SOL     OW99815   0.379   1.826   3.317
65973SOL    HW199816   0.443   1.815   3.247
65973SOL    HW299817   0.295   1.837   3.271
65974SOL     OW99818  11.895  11.304   1.844
65974SOL    HW199819  11.890  11.212   1.817
65974SOL    HW299820  11.866  11.304   1.935
65975SOL     OW99821   5.688   1.508   0.683
65975SOL    HW199822   5.748   1.499   0.758
65975SOL    HW299823   5.711   1.435   0.625
65976SOL     OW99824  12.620   4.994   4.388
65976SOL    HW199825  12.527   4.968   4.384
65976SOL    HW299826  12.640   5.023   4.299
65977SOL     OW99827  11.281   2.435  10.590
65977SOL    HW199828  11.268   2.526  10.564
65977SOL    HW299829  11.209   2.418  10.652
65978SOL     OW99830   8.452   5.263   4.161
65978SOL    HW199831   8.438   5.186   4.216
65978SOL    HW299832   8.365   5.287   4.129
65979SOL     OW99833   1.956   0.170   8.276
65979SOL    HW199834   1.948   0.155   8.182
65979SOL    HW299835   1.892   0.239   8.296
65980SOL     OW99836   2.884  10.984   6.032
65980SOL    HW199837   2.798  10.972   5.991
65980SOL    HW299838   2.873  10.950   6.120
65981SOL     OW99839   5.330   2.100   5.093
65981SOL    HW199840   5.238   2.096   5.120
65981SOL    HW299841   5.363   2.182   5.130
65982SOL     OW99842  11.376  11.304  11.211
65982SOL    HW199843  11.364  11.380  11.153
65982SOL    HW299844  11.297  11.303  11.265
65983SOL     OW99845  13.520  12.506  12.206
65983SOL    HW199846  13.573  12.550  12.139
65983SOL    HW299847  13.521  12.566  12.280
65984SOL     OW99848   3.265   3.629   5.991
65984SOL    HW199849   3.271   3.719   5.960
65984SOL    HW299850   3.274   3.575   5.913
65985SOL     OW99851  14.343  11.941  13.865
65985SOL    HW199852  14.281  11.870  13.884
65985SOL    HW299853  14.428  11.897  13.860
65986SOL     OW99854  11.213  10.367   3.362
65986SOL    HW199855  11.239  10.286   3.318
65986SOL    HW299856  11.158  10.412   3.298
65987SOL     OW99857  12.188  10.361  11.435
65987SOL    HW199858  12.148  10.349  11.522
65987SOL    HW299859  12.132  10.311  11.376
65988SOL     OW99860   3.390   3.368   8.802
65988SOL    HW199861   3.352   3.384   8.889
65988SOL    HW299862   3.478   3.335   8.820
65989SOL     OW99863  12.934  11.283   6.498
65989SOL    HW199864  13.027  11.275   6.476
65989SOL    HW299865  12.926  11.242   6.584
65990SOL     OW99866  13.192   9.684   7.409
65990SOL    HW199867  13.211   9.599   7.372
65990SOL    HW299868  13.119   9.718   7.356
65991SOL     OW99869   8.771   5.066  11.403
65991SOL    HW199870   8.688   5.100  11.437
65991SOL    HW299871   8.747   4.991  11.349
65992SOL     OW99872   7.791   9.765  12.642
65992SOL    HW199873   7.884   9.744  12.631
65992SOL    HW299874   7.746   9.685  12.614
65993SOL     OW99875   8.063  12.577  11.971
65993SOL    HW199876   7.976  12.570  12.010
65993SOL    HW299877   8.123  12.582  12.045
65994SOL     OW99878   4.839   1.189   5.467
65994SOL    HW199879   4.911   1.136   5.432
65994SOL    HW299880   4.804   1.234   5.391
65995SOL     OW99881   6.041   7.822   9.785
65995SOL    HW199882   5.976   7.802   9.718
65995SOL    HW299883   6.104   7.750   9.781
65996SOL     OW99884   9.322  11.283   6.033
65996SOL    HW199885   9.335  11.370   5.995
65996SOL    HW299886   9.305  11.300   6.126
65997SOL     OW99887   9.517   1.961   1.250
65997SOL    HW199888   9.582   1.967   1.319
65997SOL    HW299889   9.434   1.947   1.295
65998SOL     OW99890   3.548   3.628   2.910
65998SOL    HW199891   3.493   3.577   2.969
65998SOL    HW299892   3.499   3.710   2.896
65999SOL     OW99893   1.814   8.758   6.355
65999SOL    HW199894   1.852   8.679   6.392
65999SOL    HW299895   1.778   8.806   6.430
66000SOL     OW99896   1.518   7.454   9.528
66000SOL    HW199897   1.553   7.389   9.589
66000SOL    HW299898   1.592   7.478   9.473
66001SOL     OW99899  10.873   4.916   2.047
66001SOL    HW199900  10.897   4.984   1.984
66001SOL    HW299901  10.856   4.964   2.128
66002SOL     OW99902   5.192   7.339   9.764
66002SOL    HW199903   5.265   7.317   9.822
66002SOL    HW299904   5.136   7.261   9.766
66003SOL     OW99905  12.883  13.940   0.971
66003SOL    HW199906  12.858  13.877   1.038
66003SOL    HW299907  12.944  13.999   1.016
66004SOL     OW99908  11.201  10.641   3.471
66004SOL    HW199909  11.207  10.546   3.461
66004SOL    HW299910  11.208  10.656   3.565
66005SOL     OW99911   1.756   7.154  13.042
66005SOL    HW199912   1.808   7.220  12.996
66005SOL    HW299913   1.686   7.205  13.084
66006SOL     OW99914  12.207   3.643   0.777
66006SOL    HW199915  12.139   3.592   0.821
66006SOL    HW299916  12.163   3.725   0.753
66007SOL     OW99917  12.393   6.213   8.664
66007SOL    HW199918  12.320   6.259   8.623
66007SOL    HW299919  12.355   6.131   8.697
66008SOL     OW99920   5.534  14.441   6.967
66008SOL    HW199921   5.494  14.521   7.001
66008SOL    HW299922   5.615  14.471   6.925
66009SOL     OW99923   9.451   7.975   8.338
66009SOL    HW199924   9.511   7.943   8.405
66009SOL    HW299925   9.399   7.899   8.313
66010SOL     OW99926  12.935  10.547   0.730
66010SOL    HW199927  12.923  10.636   0.762
66010SOL    HW299928  12.846  10.514   0.717
66011SOL     OW99929   1.884   4.368   6.491
66011SOL    HW199930   1.906   4.447   6.443
66011SOL    HW299931   1.959   4.310   6.478
66012SOL     OW99932  11.621   5.060   9.781
66012SOL    HW199933  11.703   5.088   9.821
66012SOL    HW299934  11.584   5.140   9.744
66013SOL     OW99935   3.363   3.924  13.952
66013SOL    HW199936   3.442   3.950  14.000
66013SOL    HW299937   3.291   3.961  14.003
66014SOL     OW99938   5.487   3.792   5.471
66014SOL    HW199939   5.391   3.796   5.477
66014SOL    HW299940   5.504   3.770   5.379
66015SOL     OW99941   0.666   6.055   1.299
66015SOL    HW199942   0.607   6.026   1.230
66015SOL    HW299943   0.656   5.990   1.369
66016SOL     OW99944   0.373   9.844   1.308
66016SOL    HW199945   0.398   9.847   1.216
66016SOL    HW299946   0.290   9.891   1.312
66017SOL     OW99947   6.590  10.638  10.569
66017SOL    HW199948   6.594  10.611  10.477
66017SOL    HW299949   6.522  10.582  10.607
66018SOL     OW99950  12.235   1.934  11.321
66018SOL    HW199951  12.247   2.027  11.338
66018SOL    HW299952  12.175   1.929  11.247
66019SOL     OW99953   6.374  13.298   6.550
66019SOL    HW199954   6.461  13.320   6.516
66019SOL    HW299955   6.355  13.212   6.514
66020SOL     OW99956   9.597   0.723  11.514
66020SOL    HW199957   9.653   0.727  11.592
66020SOL    HW299958   9.603   0.810  11.475
66021SOL     OW99959   2.267   3.340   2.610
66021SOL    HW199960   2.274   3.430   2.642
66021SOL    HW299961   2.356   3.318   2.582
66022SOL     OW99962   7.070   1.694   5.155
66022SOL    HW199963   7.076   1.775   5.205
66022SOL    HW299964   7.033   1.631   5.217
66023SOL     OW99965   5.408   0.120  11.371
66023SOL    HW199966   5.376   0.133  11.282
66023SOL    HW299967   5.340   0.159  11.426
66024SOL     OW99968   8.850   8.833  13.162
66024SOL    HW199969   8.871   8.768  13.095
66024SOL    HW299970   8.934   8.859  13.199
66025SOL     OW99971   6.083   9.663   1.702
66025SOL    HW199972   6.128   9.713   1.769
66025SOL    HW299973   6.131   9.580   1.697
66026SOL     OW99974   6.613  13.862   9.167
66026SOL    HW199975   6.543  13.808   9.131
66026SOL    HW299976   6.671  13.801   9.211
66027SOL     OW99977   0.211   7.165   9.692
66027SOL    HW199978   0.156   7.122   9.757
66027SOL    HW299979   0.166   7.152   9.609
66028SOL     OW99980   2.718  13.315  13.052
66028SOL    HW199981   2.766  13.364  13.119
66028SOL    HW299982   2.769  13.235  13.040
66029SOL     OW99983   1.358   4.006  11.412
66029SOL    HW199984   1.384   4.069  11.345
66029SOL    HW299985   1.419   3.933  11.402
66030SOL     OW99986  10.240  14.369   0.798
66030SOL    HW199987  10.147  14.347   0.800
66030SOL    HW299988  10.269  14.359   0.889
66031SOL     OW99989   7.374   1.164   4.781
66031SOL    HW199990   7.305   1.144   4.845
66031SOL    HW299991   7.435   1.221   4.829
66032SOL     OW99992  11.922   2.831   2.113
66032SOL    HW199993  11.981   2.778   2.060
66032SOL    HW299994  11.894   2.901   2.054
66033SOL     OW99995   9.418  12.654   7.785
66033SOL    HW199996   9.458  12.571   7.758
66033SOL    HW299997   9.452  12.718   7.723
66034SOL     OW99998   1.818   1.068   8.979
66034SOL    HW199999   1.876   1.125   8.929
66034SOL    HW2    0   1.871   1.037   9.052
66035SOL     OW    1   3.786   6.613  14.677
66035SOL    HW1    2   3.701   6.584  14.644
66035SOL    HW2    3   3.780   6.600  14.772
66036SOL     OW    4  14.211   7.606   2.272
66036SOL    HW1    5  14.179   7.582   2.185
66036SOL    HW2    6  14.137   7.590   2.330
66037SOL     OW    7   0.293   2.433   0.524
66037SOL    HW1    8   0.304   2.339   0.516
66037SOL    HW2    9   0.274   2.463   0.435
66038SOL     OW   10   6.281   4.421  13.580
66038SOL    HW1   11   6.362   4.394  13.536
66038SOL    HW2   12   6.212   4.403  13.516
66039SOL     OW   13  12.557  11.993   4.919
66039SOL    HW1   14  12.501  12.024   4.991
66039SOL    HW2   15  12.563  12.068   4.860
66040SOL     OW   16  14.259   8.808   3.460
66040SOL    HW1   17  14.286   8.716   3.462
66040SOL    HW2   18  14.163   8.805   3.463
66041SOL     OW   19  10.881   3.990  12.898
66041SOL    HW1   20  10.879   3.916  12.837
66041SOL    HW2   21  10.819   3.965  12.967
66042SOL     OW   22   1.859   5.790  14.079
66042SOL    HW1   23   1.864   5.744  13.996
66042SOL    HW2   24   1.890   5.727  14.144
66043SOL     OW   25   2.217   4.483  12.920
66043SOL    HW1   26   2.191   4.431  12.996
66043SOL    HW2   27   2.139   4.486  12.865
66044SOL     OW   28   1.569   3.121   0.057
66044SOL    HW1   29   1.529   3.205   0.079
66044SOL    HW2   30   1.621   3.139  14.849
66045SOL     OW   31  12.612   1.968   2.267
66045SOL    HW1   32  12.691   1.919   2.287
66045SOL    HW2   33  12.552   1.949   2.339
66046SOL     OW   34   7.393   0.684   0.491
66046SOL    HW1   35   7.438   0.686   0.575
66046SOL    HW2   36   7.315   0.632   0.506
66047SOL     OW   37  12.518  12.505   6.891
66047SOL    HW1   38  12.508  12.419   6.850
66047SOL    HW2   39  12.612  12.511   6.910
66048SOL     OW   40   3.085   8.206   6.319
66048SOL    HW1   41   3.144   8.133   6.339
66048SOL    HW2   42   3.129   8.252   6.247
66049SOL     OW   43  13.595   4.916   1.023
66049SOL    HW1   44  13.536   4.846   1.051
66049SOL    HW2   45  13.662   4.872   0.971
66050SOL     OW   46  11.957  10.609  11.621
66050SOL    HW1   47  11.987  10.609  11.712
66050SOL    HW2   48  11.882  10.668  11.620
66051SOL     OW   49   8.233   0.845   0.407
66051SOL    HW1   50   8.143   0.812   0.408
66051SOL    HW2   51   8.225   0.937   0.433
66052SOL     OW   52   0.251  12.910   1.894
66052SOL    HW1   53   0.320  12.961   1.852
66052SOL    HW2   54   0.246  12.944   1.983
66053SOL     OW   55   3.031  10.724   9.837
66053SOL    HW1   56   3.096  10.703   9.770
66053SOL    HW2   57   2.973  10.648   9.839
66054SOL     OW   58   9.269  14.668  10.171
66054SOL    HW1   59   9.339  14.664  10.236
66054SOL    HW2   60   9.222  14.586  10.182
66055SOL     OW   61   7.083  11.885  13.158
66055SOL    HW1   62   7.122  11.805  13.124
66055SOL    HW2   63   7.110  11.888  13.250
66056SOL     OW   64  13.899  14.169   3.110
66056SOL    HW1   65  13.945  14.253   3.117
66056SOL    HW2   66  13.967  14.103   3.125
66057SOL     OW   67   8.091   6.231  10.643
66057SOL    HW1   68   8.062   6.322  10.632
66057SOL    HW2   69   8.019   6.188  10.688
66058SOL     OW   70  10.116  14.694   7.370
66058SOL    HW1   71  10.095  14.719   7.280
66058SOL    HW2   72  10.126  14.777   7.416
66059SOL     OW   73  11.227   8.121   3.079
66059SOL    HW1   74  11.183   8.205   3.065
66059SOL    HW2   75  11.262   8.126   3.168
66060SOL     OW   76   9.121   2.825   4.741
66060SOL    HW1   77   9.113   2.731   4.753
66060SOL    HW2   78   9.093   2.840   4.650
66061SOL     OW   79  12.576   6.049   6.590
66061SOL    HW1   80  12.518   6.086   6.657
66061SOL    HW2   81  12.563   5.954   6.598
66062SOL     OW   82   2.002   1.218  11.520
66062SOL    HW1   83   2.005   1.196  11.426
66062SOL    HW2   84   1.914   1.192  11.548
66063SOL     OW   85  10.163   3.671   6.573
66063SOL    HW1   86  10.137   3.704   6.487
66063SOL    HW2   87  10.104   3.598   6.589
66064SOL     OW   88   7.389  14.337   5.600
66064SOL    HW1   89   7.435  14.325   5.517
66064SOL    HW2   90   7.452  14.310   5.666
66065SOL     OW   91   5.136  10.308   3.857
66065SOL    HW1   92   5.182  10.264   3.929
66065SOL    HW2   93   5.205  10.332   3.796
66066SOL     OW   94   7.621   7.984  11.506
66066SOL    HW1   95   7.577   8.024  11.581
66066SOL    HW2   96   7.616   8.050  11.437
66067SOL     OW   97  13.979   7.753   0.330
66067SOL    HW1   98  14.016   7.841   0.338
66067SOL    HW2   99  14.035   7.709   0.266
66068SOL     OW  100  10.354  13.269   7.952
66068SOL    HW1  101  10.429  13.233   7.905
66068SOL    HW2  102  10.278  13.232   7.907
66069SOL     OW  103   0.930  10.770   3.511
66069SOL    HW1  104   0.871  10.845   3.518
66069SOL    HW2  105   0.935  10.752   3.417
66070SOL     OW  106   3.881   9.075   0.939
66070SOL    HW1  107   3.870   9.051   0.847
66070SOL    HW2  108   3.826   9.014   0.987
66071SOL     OW  109   0.154   0.086  12.570
66071SOL    HW1  110   0.083   0.074  12.508
66071SOL    HW2  111   0.148   0.178  12.596
66072SOL     OW  112  14.099  13.588   6.619
66072SOL    HW1  113  14.142  13.624   6.541
66072SOL    HW2  114  14.168  13.587   6.685
66073SOL     OW  115  12.529   4.325  14.004
66073SOL    HW1  116  12.609   4.377  14.006
66073SOL    HW2  117  12.483   4.348  14.085
66074SOL     OW  118   4.793   3.831   8.063
66074SOL    HW1  119   4.705   3.810   8.032
66074SOL    HW2  120   4.779   3.874   8.147
66075SOL     OW  121  12.056   8.313   4.817
66075SOL    HW1  122  12.101   8.395   4.838
66075SOL    HW2  123  12.033   8.322   4.724
66076SOL     OW  124   2.685   1.498   3.345
66076SOL    HW1  125   2.751   1.537   3.287
66076SOL    HW2  126   2.603   1.508   3.297
66077SOL     OW  127   8.682   8.094  10.945
66077SOL    HW1  128   8.612   8.099  10.879
66077SOL    HW2  129   8.762   8.085  10.893
66078SOL     OW  130   4.838   7.094  10.800
66078SOL    HW1  131   4.832   7.186  10.825
66078SOL    HW2  132   4.929   7.084  10.769
66079SOL     OW  133  12.600   6.636  10.894
66079SOL    HW1  134  12.532   6.666  10.833
66079SOL    HW2  135  12.581   6.682  10.976
66080SOL     OW  136  12.473   6.739   1.179
66080SOL    HW1  137  12.401   6.690   1.140
66080SOL    HW2  138  12.529   6.762   1.104
66081SOL     OW  139  11.850  10.613   3.390
66081SOL    HW1  140  11.912  10.590   3.460
66081SOL    HW2  141  11.772  10.563   3.409
66082SOL     OW  142  10.619   7.111  11.684
66082SOL    HW1  143  10.540   7.161  11.666
66082SOL    HW2  144  10.646   7.077  11.598
66083SOL     OW  145  10.245   4.830  12.306
66083SOL    HW1  146  10.191   4.755  12.328
66083SOL    HW2  147  10.279   4.861  12.390
66084SOL     OW  148   0.514   8.661  11.975
66084SOL    HW1  149   0.552   8.651  12.062
66084SOL    HW2  150   0.444   8.725  11.986
66085SOL     OW  151   8.894   0.843   7.433
66085SOL    HW1  152   8.951   0.895   7.488
66085SOL    HW2  153   8.950   0.774   7.397
66086SOL     OW  154  10.762   2.829   4.501
66086SOL    HW1  155  10.838   2.861   4.453
66086SOL    HW2  156  10.739   2.900   4.561
66087SOL     OW  157   6.339  12.940   1.209
66087SOL    HW1  158   6.385  13.012   1.251
66087SOL    HW2  159   6.267  12.919   1.268
66088SOL     OW  160   5.755  11.182   2.088
66088SOL    HW1  161   5.692  11.246   2.055
66088SOL    HW2  162   5.721  11.156   2.174
66089SOL     OW  163   7.396   3.797  11.092
66089SOL    HW1  164   7.359   3.883  11.113
66089SOL    HW2  165   7.447   3.773  11.169
66090SOL     OW  166  10.515   9.457   9.173
66090SOL    HW1  167  10.565   9.539   9.181
66090SOL    HW2  168  10.566   9.404   9.112
66091SOL     OW  169   3.397  10.940   2.911
66091SOL    HW1  170   3.350  11.017   2.944
66091SOL    HW2  171   3.423  10.965   2.822
66092SOL     OW  172   8.624   7.047   2.806
66092SOL    HW1  173   8.586   6.973   2.759
66092SOL    HW2  174   8.681   7.006   2.872
66093SOL     OW  175   6.459  12.537   3.766
66093SOL    HW1  176   6.463  12.570   3.856
66093SOL    HW2  177   6.457  12.616   3.711
66094SOL     OW  178   8.423   9.105  13.424
66094SOL    HW1  179   8.350   9.044  13.413
66094SOL    HW2  180   8.478   9.065  13.491
66095SOL     OW  181  12.361   5.728   4.805
66095SOL    HW1  182  12.329   5.668   4.872
66095SOL    HW2  183  12.387   5.807   4.853
66096SOL     OW  184  13.484  13.682   2.935
66096SOL    HW1  185  13.458  13.674   2.843
66096SOL    HW2  186  13.404  13.663   2.984
66097SOL     OW  187   3.637   4.362   0.685
66097SOL    HW1  188   3.575   4.424   0.724
66097SOL    HW2  189   3.654   4.298   0.754
66098SOL     OW  190   0.982  13.907  12.482
66098SOL    HW1  191   1.051  13.845  12.459
66098SOL    HW2  192   0.932  13.917  12.401
66099SOL     OW  193   7.671   7.469  10.608
66099SOL    HW1  194   7.766   7.459  10.603
66099SOL    HW2  195   7.659   7.560  10.638
66100SOL     OW  196   1.127   6.639  13.504
66100SOL    HW1  197   1.143   6.733  13.497
66100SOL    HW2  198   1.113   6.609  13.414
66101SOL     OW  199  13.467   3.228   4.243
66101SOL    HW1  200  13.382   3.193   4.270
66101SOL    HW2  201  13.507   3.260   4.324
66102SOL     OW  202   4.321   0.314  12.067
66102SOL    HW1  203   4.395   0.372  12.089
66102SOL    HW2  204   4.346   0.274  11.984
66103SOL     OW  205   7.269  10.529  12.665
66103SOL    HW1  206   7.194  10.551  12.610
66103SOL    HW2  207   7.238  10.543  12.755
66104SOL     OW  208   1.512   1.743   6.230
66104SOL    HW1  209   1.514   1.746   6.135
66104SOL    HW2  210   1.571   1.812   6.258
66105SOL     OW  211  13.085  12.154   3.682
66105SOL    HW1  212  13.048  12.221   3.624
66105SOL    HW2  213  13.010  12.102   3.710
66106SOL     OW  214  11.944   6.715   3.615
66106SOL    HW1  215  12.019   6.768   3.641
66106SOL    HW2  216  11.943   6.642   3.677
66107SOL     OW  217  14.027   0.601  12.080
66107SOL    HW1  218  14.078   0.657  12.138
66107SOL    HW2  219  13.938   0.635  12.087
66108SOL     OW  220   6.612   5.490   7.291
66108SOL    HW1  221   6.663   5.561   7.331
66108SOL    HW2  222   6.547   5.468   7.358
66109SOL     OW  223  13.514   4.432   0.725
66109SOL    HW1  224  13.590   4.388   0.763
66109SOL    HW2  225  13.535   4.441   0.632
66110SOL     OW  226   7.785   7.661  10.071
66110SOL    HW1  227   7.791   7.755  10.088
66110SOL    HW2  228   7.756   7.654   9.980
66111SOL     OW  229   6.832   5.004   6.917
66111SOL    HW1  230   6.838   4.909   6.909
66111SOL    HW2  231   6.739   5.021   6.924
66112SOL     OW  232   6.780   1.480   2.754
66112SOL    HW1  233   6.694   1.455   2.788
66112SOL    HW2  234   6.771   1.574   2.736
66113SOL     OW  235   1.436  10.788  10.664
66113SOL    HW1  236   1.482  10.714  10.624
66113SOL    HW2  237   1.405  10.840  10.590
66114SOL     OW  238   3.347   1.772   3.767
66114SOL    HW1  239   3.321   1.745   3.679
66114SOL    HW2  240   3.333   1.693   3.820
66115SOL     OW  241  14.562   4.032   6.580
66115SOL    HW1  242  14.648   4.010   6.545
66115SOL    HW2  243  14.547   4.122   6.553
66116SOL     OW  244  14.328  13.896  11.612
66116SOL    HW1  245  14.383  13.932  11.542
66116SOL    HW2  246  14.356  13.942  11.691
66117SOL     OW  247  13.648  13.201   5.411
66117SOL    HW1  248  13.723  13.260   5.404
66117SOL    HW2  249  13.572  13.258   5.413
66118SOL     OW  250   1.263  14.075   2.634
66118SOL    HW1  251   1.263  14.144   2.567
66118SOL    HW2  252   1.355  14.065   2.659
66119SOL     OW  253   3.481  10.863  12.544
66119SOL    HW1  254   3.497  10.892  12.634
66119SOL    HW2  255   3.395  10.822  12.547
66120SOL     OW  256   3.381   6.991  13.069
66120SOL    HW1  257   3.435   6.957  12.997
66120SOL    HW2  258   3.443   7.005  13.141
66121SOL     OW  259   4.252  13.621   9.504
66121SOL    HW1  260   4.240  13.555   9.435
66121SOL    HW2  261   4.328  13.590   9.554
66122SOL     OW  262   1.087   9.839  12.192
66122SOL    HW1  263   0.994   9.836  12.214
66122SOL    HW2  264   1.089   9.853  12.098
66123SOL     OW  265  14.797  14.416  11.487
66123SOL    HW1  266   0.007  14.375  11.453
66123SOL    HW2  267  14.804  14.507  11.459
66124SOL     OW  268  13.800   3.267  10.272
66124SOL    HW1  269  13.738   3.196  10.253
66124SOL    HW2  270  13.748   3.332  10.319
66125SOL     OW  271  13.733  12.425  13.012
66125SOL    HW1  272  13.692  12.403  12.928
66125SOL    HW2  273  13.684  12.500  13.044
66126SOL     OW  274   6.059   5.602   7.952
66126SOL    HW1  275   6.081   5.637   8.038
66126SOL    HW2  276   6.000   5.667   7.913
66127SOL     OW  277   5.415  14.138  10.060
66127SOL    HW1  278   5.460  14.161   9.979
66127SOL    HW2  279   5.331  14.102  10.031
66128SOL     OW  280  11.635   6.327   2.344
66128SOL    HW1  281  11.556   6.359   2.389
66128SOL    HW2  282  11.702   6.326   2.412
66129SOL     OW  283   3.935   3.391  14.375
66129SOL    HW1  284   3.932   3.396  14.471
66129SOL    HW2  285   3.880   3.316  14.354
66130SOL     OW  286  12.481   8.027   0.283
66130SOL    HW1  287  12.394   8.061   0.300
66130SOL    HW2  288  12.468   7.933   0.272
66131SOL     OW  289   2.149  14.029   0.840
66131SOL    HW1  290   2.219  13.970   0.814
66131SOL    HW2  291   2.069  13.987   0.808
66132SOL     OW  292   8.809   9.174  11.384
66132SOL    HW1  293   8.794   9.264  11.358
66132SOL    HW2  294   8.722   9.136  11.391
66133SOL     OW  295   0.953   7.975   9.621
66133SOL    HW1  296   0.990   7.893   9.588
66133SOL    HW2  297   0.890   8.001   9.553
66134SOL     OW  298  13.541   8.561   0.215
66134SOL    HW1  299  13.485   8.583   0.289
66134SOL    HW2  300  13.512   8.618   0.145
66135SOL     OW  301  14.021   1.057   6.656
66135SOL    HW1  302  14.025   1.152   6.650
66135SOL    HW2  303  14.060   1.036   6.741
66136SOL     OW  304  14.241  11.254  11.403
66136SOL    HW1  305  14.242  11.170  11.447
66136SOL    HW2  306  14.148  11.277  11.398
66137SOL     OW  307   6.081   0.969   8.545
66137SOL    HW1  308   6.058   1.030   8.475
66137SOL    HW2  309   6.124   1.024   8.611
66138SOL     OW  310   5.902   7.325  13.990
66138SOL    HW1  311   5.859   7.408  13.971
66138SOL    HW2  312   5.936   7.296  13.905
66139SOL     OW  313  12.516  13.845  12.898
66139SOL    HW1  314  12.506  13.775  12.834
66139SOL    HW2  315  12.545  13.800  12.978
66140SOL     OW  316   6.458   2.931   4.831
66140SOL    HW1  317   6.480   3.020   4.857
66140SOL    HW2  318   6.443   2.936   4.737
66141SOL     OW  319  12.627  14.578   7.500
66141SOL    HW1  320  12.639  14.484   7.486
66141SOL    HW2  321  12.546  14.598   7.453
66142SOL     OW  322  10.532  13.137   4.241
66142SOL    HW1  323  10.499  13.220   4.277
66142SOL    HW2  324  10.535  13.152   4.147
66143SOL     OW  325   6.589  13.518  11.811
66143SOL    HW1  326   6.557  13.452  11.873
66143SOL    HW2  327   6.510  13.549  11.767
66144SOL     OW  328   4.988   8.669   2.028
66144SOL    HW1  329   4.943   8.613   2.091
66144SOL    HW2  330   5.058   8.614   1.993
66145SOL     OW  331   1.726   6.867   7.411
66145SOL    HW1  332   1.630   6.869   7.419
66145SOL    HW2  333   1.755   6.950   7.449
66146SOL     OW  334   0.595  10.171   5.061
66146SOL    HW1  335   0.573  10.125   4.980
66146SOL    HW2  336   0.610  10.262   5.033
66147SOL     OW  337   4.247   5.054   5.075
66147SOL    HW1  338   4.217   5.027   5.161
66147SOL    HW2  339   4.337   5.085   5.090
66148SOL     OW  340   9.771   5.206   3.943
66148SOL    HW1  341   9.854   5.251   3.924
66148SOL    HW2  342   9.704   5.267   3.913
66149SOL     OW  343   3.149   3.986   0.801
66149SOL    HW1  344   3.106   3.929   0.739
66149SOL    HW2  345   3.220   4.027   0.751
66150SOL     OW  346  13.568   0.899   1.846
66150SOL    HW1  347  13.619   0.875   1.769
66150SOL    HW2  348  13.520   0.820   1.870
66151SOL     OW  349  10.035   1.188  11.374
66151SOL    HW1  350  10.038   1.280  11.349
66151SOL    HW2  351  10.121   1.154  11.352
66152SOL     OW  352  14.761   3.572   0.066
66152SOL    HW1  353  14.693   3.629   0.030
66152SOL    HW2  354  14.756   3.585   0.161
66153SOL     OW  355   8.310   1.855   9.326
66153SOL    HW1  356   8.311   1.937   9.375
66153SOL    HW2  357   8.365   1.795   9.377
66154SOL     OW  358   3.135  14.627  10.637
66154SOL    HW1  359   3.226  14.626  10.668
66154SOL    HW2  360   3.119  14.718  10.613
66155SOL     OW  361  13.304  12.574  12.809
66155SOL    HW1  362  13.329  12.575  12.716
66155SOL    HW2  363  13.307  12.482  12.834
66156SOL     OW  364   4.054   1.271   1.740
66156SOL    HW1  365   4.145   1.277   1.768
66156SOL    HW2  366   4.018   1.358   1.756
66157SOL     OW  367   8.629  14.536   1.152
66157SOL    HW1  368   8.613  14.442   1.161
66157SOL    HW2  369   8.561  14.578   1.204
66158SOL     OW  370   8.831   7.807   7.684
66158SOL    HW1  371   8.859   7.844   7.601
66158SOL    HW2  372   8.813   7.883   7.739
66159SOL     OW  373   0.014   0.231   1.372
66159SOL    HW1  374   0.068   0.290   1.320
66159SOL    HW2  375  14.825   0.288   1.421
66160SOL     OW  376  11.423   9.465   9.011
66160SOL    HW1  377  11.415   9.553   8.976
66160SOL    HW2  378  11.414   9.408   8.935
66161SOL     OW  379  14.522   4.482   5.915
66161SOL    HW1  380  14.576   4.492   5.993
66161SOL    HW2  381  14.519   4.387   5.900
66162SOL     OW  382  11.776  10.676   1.485
66162SOL    HW1  383  11.787  10.614   1.413
66162SOL    HW2  384  11.865  10.688   1.520
66163SOL     OW  385   3.345   1.985  14.713
66163SOL    HW1  386   3.267   2.039  14.724
66163SOL    HW2  387   3.418   2.046  14.721
66164SOL     OW  388   6.870  12.390   0.312
66164SOL    HW1  389   6.944  12.377   0.372
66164SOL    HW2  390   6.834  12.302   0.300
66165SOL     OW  391   6.822   6.109  11.900
66165SOL    HW1  392   6.758   6.046  11.867
66165SOL    HW2  393   6.770   6.185  11.925
66166SOL     OW  394   8.458   7.543   8.817
66166SOL    HW1  395   8.403   7.548   8.738
66166SOL    HW2  396   8.472   7.634   8.842
66167SOL     OW  397   9.196   0.791   4.120
66167SOL    HW1  398   9.225   0.703   4.096
66167SOL    HW2  399   9.174   0.832   4.037
66168SOL     OW  400   3.052   6.222   1.389
66168SOL    HW1  401   3.130   6.213   1.443
66168SOL    HW2  402   3.016   6.307   1.412
66169SOL     OW  403   0.481   9.657   6.532
66169SOL    HW1  404   0.420   9.592   6.497
66169SOL    HW2  405   0.452   9.671   6.622
66170SOL     OW  406   5.437   2.947   9.980
66170SOL    HW1  407   5.403   3.036   9.968
66170SOL    HW2  408   5.401   2.897   9.907
66171SOL     OW  409   3.087   9.954  11.290
66171SOL    HW1  410   3.080  10.045  11.319
66171SOL    HW2  411   3.181   9.936  11.292
66172SOL     OW  412  13.368  11.570   5.418
66172SOL    HW1  413  13.429  11.515   5.466
66172SOL    HW2  414  13.282  11.531   5.433
66173SOL     OW  415   2.257   9.670  14.808
66173SOL    HW1  416   2.176   9.641  14.767
66173SOL    HW2  417   2.326   9.625  14.759
66174SOL     OW  418   0.479  13.211  12.924
66174SOL    HW1  419   0.501  13.119  12.913
66174SOL    HW2  420   0.384  13.213  12.925
66175SOL     OW  421  11.784   2.107   2.721
66175SOL    HW1  422  11.786   2.195   2.758
66175SOL    HW2  423  11.691   2.086   2.714
66176SOL     OW  424   9.847   7.544   6.263
66176SOL    HW1  425   9.808   7.621   6.222
66176SOL    HW2  426   9.924   7.525   6.210
66177SOL     OW  427   4.759   6.042   9.579
66177SOL    HW1  428   4.667   6.054   9.603
66177SOL    HW2  429   4.760   6.043   9.483
66178SOL     OW  430  11.311  12.618   0.067
66178SOL    HW1  431  11.358  12.550   0.019
66178SOL    HW2  432  11.226  12.623   0.023
66179SOL     OW  433   7.278  12.153   0.837
66179SOL    HW1  434   7.293  12.241   0.873
66179SOL    HW2  435   7.250  12.101   0.912
66180SOL     OW  436  14.470   1.794  12.098
66180SOL    HW1  437  14.421   1.743  12.034
66180SOL    HW2  438  14.481   1.880  12.056
66181SOL     OW  439   3.148   1.615   0.397
66181SOL    HW1  440   3.223   1.588   0.450
66181SOL    HW2  441   3.091   1.661   0.459
66182SOL     OW  442   0.346   8.489   7.727
66182SOL    HW1  443   0.251   8.491   7.716
66182SOL    HW2  444   0.380   8.468   7.640
66183SOL     OW  445   0.834  10.092   2.473
66183SOL    HW1  446   0.766  10.081   2.539
66183SOL    HW2  447   0.916  10.074   2.519
66184SOL     OW  448  11.332   8.185   1.141
66184SOL    HW1  449  11.349   8.194   1.235
66184SOL    HW2  450  11.274   8.109   1.135
66185SOL     OW  451   6.596   4.076   5.686
66185SOL    HW1  452   6.504   4.051   5.684
66185SOL    HW2  453   6.623   4.078   5.594
66186SOL     OW  454  12.900  13.823   6.057
66186SOL    HW1  455  12.917  13.765   5.983
66186SOL    HW2  456  12.834  13.777   6.109
66187SOL     OW  457  11.751   7.015  10.678
66187SOL    HW1  458  11.845   7.005  10.693
66187SOL    HW2  459  11.712   6.937  10.718
66188SOL     OW  460   3.786  12.748   3.433
66188SOL    HW1  461   3.706  12.768   3.385
66188SOL    HW2  462   3.825  12.833   3.452
66189SOL     OW  463   8.977   7.084   6.583
66189SOL    HW1  464   8.997   7.073   6.676
66189SOL    HW2  465   9.040   7.027   6.538
66190SOL     OW  466   4.009  10.520   5.408
66190SOL    HW1  467   3.920  10.496   5.432
66190SOL    HW2  468   4.034  10.587   5.471
66191SOL     OW  469   8.470  13.604  14.157
66191SOL    HW1  470   8.455  13.510  14.169
66191SOL    HW2  471   8.549  13.609  14.104
66192SOL     OW  472  13.908   8.189  14.681
66192SOL    HW1  473  13.888   8.095  14.680
66192SOL    HW2  474  13.873   8.221  14.598
66193SOL     OW  475  10.399  13.724   4.777
66193SOL    HW1  476  10.365  13.705   4.689
66193SOL    HW2  477  10.452  13.648   4.799
66194SOL     OW  478   8.362   0.568   9.001
66194SOL    HW1  479   8.343   0.486   8.955
66194SOL    HW2  480   8.429   0.545   9.065
66195SOL     OW  481   7.809   2.835   4.700
66195SOL    HW1  482   7.772   2.864   4.783
66195SOL    HW2  483   7.780   2.744   4.692
66196SOL     OW  484   1.233   9.993   9.947
66196SOL    HW1  485   1.322   9.970   9.922
66196SOL    HW2  486   1.182   9.982   9.866
66197SOL     OW  487   8.363  11.563   4.548
66197SOL    HW1  488   8.286  11.520   4.511
66197SOL    HW2  489   8.361  11.651   4.512
66198SOL     OW  490   3.271   7.349   3.086
66198SOL    HW1  491   3.178   7.368   3.099
66198SOL    HW2  492   3.294   7.289   3.157
66199SOL     OW  493   0.678   1.538  10.590
66199SOL    HW1  494   0.698   1.600  10.660
66199SOL    HW2  495   0.751   1.547  10.529
66200SOL     OW  496   7.525   9.682   5.830
66200SOL    HW1  497   7.491   9.755   5.881
66200SOL    HW2  498   7.463   9.671   5.758
66201SOL     OW  499   1.977  12.596   7.159
66201SOL    HW1  500   1.901  12.539   7.164
66201SOL    HW2  501   1.966  12.644   7.077
66202SOL     OW  502   3.803  13.019  12.064
66202SOL    HW1  503   3.766  12.955  12.125
66202SOL    HW2  504   3.727  13.064  12.027
66203SOL     OW  505  13.988  13.041   0.393
66203SOL    HW1  506  13.924  13.111   0.410
66203SOL    HW2  507  13.950  12.964   0.435
66204SOL     OW  508  13.586   8.031   1.437
66204SOL    HW1  509  13.644   8.103   1.412
66204SOL    HW2  510  13.498   8.062   1.415
66205SOL     OW  511   0.195   1.865   5.379
66205SOL    HW1  512   0.127   1.887   5.443
66205SOL    HW2  513   0.183   1.771   5.364
66206SOL     OW  514   4.175   1.011   0.266
66206SOL    HW1  515   4.250   1.063   0.295
66206SOL    HW2  516   4.135   1.063   0.196
66207SOL     OW  517  11.126  14.216   1.222
66207SOL    HW1  518  11.104  14.213   1.129
66207SOL    HW2  519  11.222  14.206   1.224
66208SOL     OW  520  12.696   3.155   1.752
66208SOL    HW1  521  12.668   3.175   1.842
66208SOL    HW2  522  12.649   3.218   1.698
66209SOL     OW  523   9.470   5.898  14.407
66209SOL    HW1  524   9.500   5.920  14.319
66209SOL    HW2  525   9.396   5.957  14.422
66210SOL     OW  526  11.094  14.867  10.935
66210SOL    HW1  527  11.027   0.044  10.984
66210SOL    HW2  528  11.170  14.866  10.993
66211SOL     OW  529  13.478  13.843  13.502
66211SOL    HW1  530  13.477  13.785  13.425
66211SOL    HW2  531  13.435  13.792  13.570
66212SOL     OW  532   2.408   5.428  12.598
66212SOL    HW1  533   2.394   5.468  12.513
66212SOL    HW2  534   2.476   5.482  12.639
66213SOL     OW  535   5.956   5.628  11.572
66213SOL    HW1  536   5.967   5.534  11.588
66213SOL    HW2  537   5.866   5.647  11.600
66214SOL     OW  538   5.583   3.889  12.251
66214SOL    HW1  539   5.665   3.840  12.262
66214SOL    HW2  540   5.524   3.852  12.316
66215SOL     OW  541   0.650   9.686   1.340
66215SOL    HW1  542   0.654   9.669   1.246
66215SOL    HW2  543   0.556   9.693   1.359
66216SOL     OW  544   0.720   1.986  10.418
66216SOL    HW1  545   0.816   1.986  10.422
66216SOL    HW2  546   0.697   2.069  10.377
66217SOL     OW  547   2.306   8.590  13.389
66217SOL    HW1  548   2.377   8.562  13.331
66217SOL    HW2  549   2.348   8.654  13.448
66218SOL     OW  550   7.084   9.019   4.085
66218SOL    HW1  551   7.095   9.110   4.112
66218SOL    HW2  552   6.998   8.993   4.120
66219SOL     OW  553   5.659  14.866  13.495
66219SOL    HW1  554   5.622   0.060  13.435
66219SOL    HW2  555   5.748   0.027  13.511
66220SOL     OW  556   3.515  10.803   7.069
66220SOL    HW1  557   3.429  10.762   7.065
66220SOL    HW2  558   3.551  10.776   7.153
66221SOL     OW  559   5.112  11.839   7.178
66221SOL    HW1  560   5.109  11.768   7.242
66221SOL    HW2  561   5.055  11.810   7.107
66222SOL     OW  562  12.168  12.699  12.172
66222SOL    HW1  563  12.204  12.706  12.083
66222SOL    HW2  564  12.086  12.748  12.168
66223SOL     OW  565   5.790  13.598   6.886
66223SOL    HW1  566   5.815  13.669   6.827
66223SOL    HW2  567   5.757  13.643   6.964
66224SOL     OW  568   2.211  14.562  10.388
66224SOL    HW1  569   2.123  14.526  10.389
66224SOL    HW2  570   2.236  14.565  10.481
66225SOL     OW  571  13.792   7.085  10.636
66225SOL    HW1  572  13.744   7.165  10.656
66225SOL    HW2  573  13.724   7.018  10.628
66226SOL     OW  574  13.512   6.069   8.337
66226SOL    HW1  575  13.420   6.093   8.353
66226SOL    HW2  576  13.521   5.982   8.375
66227SOL     OW  577   3.110   0.811  11.740
66227SOL    HW1  578   3.130   0.830  11.649
66227SOL    HW2  579   3.177   0.747  11.767
66228SOL     OW  580   8.382  10.536  13.033
66228SOL    HW1  581   8.344  10.610  13.079
66228SOL    HW2  582   8.411  10.477  13.103
66229SOL     OW  583   6.689  11.117  14.607
66229SOL    HW1  584   6.746  11.096  14.533
66229SOL    HW2  585   6.713  11.205  14.633
66230SOL     OW  586  14.625   9.951   6.732
66230SOL    HW1  587  14.691   9.956   6.802
66230SOL    HW2  588  14.541   9.952   6.779
66231SOL     OW  589   6.062   2.043  12.002
66231SOL    HW1  590   6.046   1.961  11.956
66231SOL    HW2  591   6.143   2.076  11.964
66232SOL     OW  592   3.767   4.789   0.153
66232SOL    HW1  593   3.832   4.721   0.134
66232SOL    HW2  594   3.714   4.794   0.073
66233SOL     OW  595  11.909  12.376  11.561
66233SOL    HW1  596  11.978  12.376  11.628
66233SOL    HW2  597  11.952  12.344  11.482
66234SOL     OW  598   8.814   9.963   6.089
66234SOL    HW1  599   8.805  10.027   6.159
66234SOL    HW2  600   8.820   9.879   6.135
66235SOL     OW  601   1.488   2.242  11.355
66235SOL    HW1  602   1.513   2.266  11.444
66235SOL    HW2  603   1.406   2.193  11.365
66236SOL     OW  604  12.873  12.210   4.705
66236SOL    HW1  605  12.915  12.294   4.688
66236SOL    HW2  606  12.929  12.145   4.662
66237SOL     OW  607   3.551   6.327   2.174
66237SOL    HW1  608   3.525   6.376   2.253
66237SOL    HW2  609   3.498   6.365   2.104
66238SOL     OW  610  11.384   7.009   4.426
66238SOL    HW1  611  11.421   7.094   4.450
66238SOL    HW2  612  11.410   6.996   4.334
66239SOL     OW  613   5.720  14.111  13.793
66239SOL    HW1  614   5.693  14.199  13.765
66239SOL    HW2  615   5.729  14.118  13.888
66240SOL     OW  616  13.225   1.773   0.838
66240SOL    HW1  617  13.218   1.799   0.746
66240SOL    HW2  618  13.239   1.855   0.885
66241SOL     OW  619   1.916   1.877  13.660
66241SOL    HW1  620   1.882   1.961  13.628
66241SOL    HW2  621   2.003   1.871  13.621
66242SOL     OW  622   5.025  11.178   3.587
66242SOL    HW1  623   5.002  11.147   3.674
66242SOL    HW2  624   5.049  11.099   3.539
66243SOL     OW  625   1.305   9.997   0.551
66243SOL    HW1  626   1.300  10.087   0.520
66243SOL    HW2  627   1.318  10.004   0.645
66244SOL     OW  628  14.801   1.535   1.175
66244SOL    HW1  629  14.806   1.440   1.183
66244SOL    HW2  630  14.858   1.569   1.243
66245SOL     OW  631   3.799   3.083   4.663
66245SOL    HW1  632   3.875   3.032   4.635
66245SOL    HW2  633   3.835   3.148   4.723
66246SOL     OW  634   5.554   0.619   4.375
66246SOL    HW1  635   5.623   0.554   4.387
66246SOL    HW2  636   5.597   0.703   4.394
66247SOL     OW  637  10.259   1.540   7.926
66247SOL    HW1  638  10.166   1.540   7.901
66247SOL    HW2  639  10.264   1.600   8.000
66248SOL     OW  640  12.215  13.190   9.215
66248SOL    HW1  641  12.308  13.166   9.219
66248SOL    HW2  642  12.211  13.254   9.144
66249SOL     OW  643   9.170  14.095  11.530
66249SOL    HW1  644   9.128  14.168  11.576
66249SOL    HW2  645   9.263  14.109  11.543
66250SOL     OW  646   5.978   2.486  10.226
66250SOL    HW1  647   5.967   2.420  10.294
66250SOL    HW2  648   5.996   2.437  10.146
66251SOL     OW  649  13.736   4.235  14.008
66251SOL    HW1  650  13.666   4.269  14.064
66251SOL    HW2  651  13.778   4.168  14.061
66252SOL     OW  652  13.958  13.859  12.486
66252SOL    HW1  653  13.949  13.799  12.561
66252SOL    HW2  654  13.952  13.802  12.409
66253SOL     OW  655   6.599  10.722   2.249
66253SOL    HW1  656   6.583  10.628   2.248
66253SOL    HW2  657   6.535  10.758   2.188
66254SOL     OW  658  10.239   5.050  13.328
66254SOL    HW1  659  10.258   5.074  13.419
66254SOL    HW2  660  10.157   5.001  13.333
66255SOL     OW  661   8.064   8.390  12.153
66255SOL    HW1  662   8.059   8.387  12.249
66255SOL    HW2  663   8.120   8.465  12.134
66256SOL     OW  664   7.718   2.861   1.564
66256SOL    HW1  665   7.786   2.927   1.574
66256SOL    HW2  666   7.766   2.778   1.560
66257SOL     OW  667   5.924   5.460   0.675
66257SOL    HW1  668   5.991   5.432   0.613
66257SOL    HW2  669   5.962   5.536   0.719
66258SOL     OW  670  11.158   1.693  13.514
66258SOL    HW1  671  11.243   1.690  13.471
66258SOL    HW2  672  11.179   1.689  13.608
66259SOL     OW  673   1.231  13.253   8.876
66259SOL    HW1  674   1.142  13.288   8.875
66259SOL    HW2  675   1.276  13.302   8.945
66260SOL     OW  676   9.612   7.992   5.626
66260SOL    HW1  677   9.683   7.955   5.677
66260SOL    HW2  678   9.640   8.082   5.608
66261SOL     OW  679   9.022  14.296   8.883
66261SOL    HW1  680   8.935  14.321   8.854
66261SOL    HW2  681   9.013  14.284   8.978
66262SOL     OW  682  12.091   3.243   6.382
66262SOL    HW1  683  12.022   3.177   6.390
66262SOL    HW2  684  12.087   3.293   6.464
66263SOL     OW  685   7.855   7.035   3.091
66263SOL    HW1  686   7.929   6.978   3.111
66263SOL    HW2  687   7.877   7.118   3.134
66264SOL     OW  688   6.767   4.828   8.644
66264SOL    HW1  689   6.823   4.802   8.717
66264SOL    HW2  690   6.693   4.769   8.649
66265SOL     OW  691   1.048  11.211   0.276
66265SOL    HW1  692   1.101  11.288   0.295
66265SOL    HW2  693   1.083  11.177   0.194
66266SOL     OW  694   1.861   8.773   4.259
66266SOL    HW1  695   1.896   8.845   4.205
66266SOL    HW2  696   1.937   8.739   4.306
66267SOL     OW  697   5.400  13.885   5.362
66267SOL    HW1  698   5.393  13.793   5.388
66267SOL    HW2  699   5.317  13.924   5.389
66268SOL     OW  700   4.187  12.890  11.935
66268SOL    HW1  701   4.161  12.897  11.843
66268SOL    HW2  702   4.282  12.901  11.934
66269SOL     OW  703   3.067   3.886   4.162
66269SOL    HW1  704   3.112   3.837   4.093
66269SOL    HW2  705   3.087   3.838   4.242
66270SOL     OW  706  10.852   7.400   3.533
66270SOL    HW1  707  10.825   7.492   3.527
66270SOL    HW2  708  10.784   7.352   3.487
66271SOL     OW  709   8.327   4.376   2.537
66271SOL    HW1  710   8.263   4.369   2.608
66271SOL    HW2  711   8.411   4.391   2.581
66272SOL     OW  712   1.201  13.500   4.436
66272SOL    HW1  713   1.145  13.451   4.496
66272SOL    HW2  714   1.187  13.592   4.459
66273SOL     OW  715   4.420   2.647  14.631
66273SOL    HW1  716   4.383   2.693  14.556
66273SOL    HW2  717   4.514   2.664  14.626
66274SOL     OW  718   6.618   0.297   7.592
66274SOL    HW1  719   6.697   0.302   7.645
66274SOL    HW2  720   6.599   0.388   7.568
66275SOL     OW  721  13.041   6.228  14.155
66275SOL    HW1  722  13.078   6.305  14.200
66275SOL    HW2  723  13.073   6.236  14.065
66276SOL     OW  724   7.421  12.857  14.787
66276SOL    HW1  725   7.338  12.826  14.821
66276SOL    HW2  726   7.431  12.945  14.823
66277SOL     OW  727  13.256   8.707   1.825
66277SOL    HW1  728  13.227   8.754   1.903
66277SOL    HW2  729  13.344   8.676   1.846
66278SOL     OW  730  14.691  11.076   8.196
66278SOL    HW1  731  14.609  11.117   8.223
66278SOL    HW2  732  14.755  11.147   8.193
66279SOL     OW  733   7.673   5.072   8.360
66279SOL    HW1  734   7.669   5.067   8.456
66279SOL    HW2  735   7.678   4.980   8.332
66280SOL     OW  736  12.107  10.923  12.019
66280SOL    HW1  737  12.153  10.936  11.937
66280SOL    HW2  738  12.074  11.010  12.043
66281SOL     OW  739   4.488  11.485   8.145
66281SOL    HW1  740   4.575  11.519   8.167
66281SOL    HW2  741   4.504  11.419   8.078
66282SOL     OW  742   8.946   6.928   5.903
66282SOL    HW1  743   8.864   6.977   5.914
66282SOL    HW2  744   8.921   6.852   5.851
66283SOL     OW  745   7.938   7.720  12.582
66283SOL    HW1  746   7.976   7.788  12.638
66283SOL    HW2  747   7.847   7.747  12.570
66284SOL     OW  748   3.587   6.810   9.167
66284SOL    HW1  749   3.595   6.829   9.261
66284SOL    HW2  750   3.510   6.860   9.140
66285SOL     OW  751  12.973   2.248  14.770
66285SOL    HW1  752  12.916   2.189  14.820
66285SOL    HW2  753  12.921   2.271  14.693
66286SOL     OW  754   7.005   4.257  11.107
66286SOL    HW1  755   6.965   4.180  11.066
66286SOL    HW2  756   7.099   4.248  11.091
66287SOL     OW  757  13.332   1.641   4.156
66287SOL    HW1  758  13.301   1.617   4.069
66287SOL    HW2  759  13.389   1.716   4.142
66288SOL     OW  760  14.106   0.281  11.135
66288SOL    HW1  761  14.134   0.291  11.044
66288SOL    HW2  762  14.076   0.190  11.141
66289SOL     OW  763   2.516  14.057  11.325
66289SOL    HW1  764   2.450  14.037  11.391
66289SOL    HW2  765   2.582  14.110  11.371
66290SOL     OW  766  12.654   9.460   8.072
66290SOL    HW1  767  12.722   9.439   8.136
66290SOL    HW2  768  12.664   9.394   8.004
66291SOL     OW  769   0.280  12.710  12.103
66291SOL    HW1  770   0.197  12.708  12.055
66291SOL    HW2  771   0.347  12.721  12.035
66292SOL     OW  772   4.921  13.021   0.980
66292SOL    HW1  773   4.901  12.942   0.929
66292SOL    HW2  774   4.835  13.057   1.003
66293SOL     OW  775   3.288   8.074   5.981
66293SOL    HW1  776   3.373   8.048   5.945
66293SOL    HW2  777   3.227   8.007   5.951
66294SOL     OW  778  14.637   3.266  12.557
66294SOL    HW1  779  14.711   3.268  12.617
66294SOL    HW2  780  14.575   3.331  12.592
66295SOL     OW  781   4.023   0.176   0.194
66295SOL    HW1  782   4.025   0.119   0.271
66295SOL    HW2  783   3.932   0.205   0.188
66296SOL     OW  784   2.445   1.890   6.517
66296SOL    HW1  785   2.358   1.903   6.481
66296SOL    HW2  786   2.479   1.978   6.531
66297SOL     OW  787   4.732   2.239  10.298
66297SOL    HW1  788   4.822   2.232  10.265
66297SOL    HW2  789   4.718   2.158  10.347
66298SOL     OW  790   2.519   9.177  11.259
66298SOL    HW1  791   2.453   9.149  11.195
66298SOL    HW2  792   2.600   9.182  11.210
66299SOL     OW  793  11.303  10.879  14.027
66299SOL    HW1  794  11.235  10.815  14.004
66299SOL    HW2  795  11.369  10.869  13.959
66300SOL     OW  796  11.428   6.288   4.635
66300SOL    HW1  797  11.511   6.256   4.603
66300SOL    HW2  798  11.386   6.327   4.559
66301SOL     OW  799   1.218   1.383  10.118
66301SOL    HW1  800   1.249   1.425  10.198
66301SOL    HW2  801   1.288   1.324  10.092
66302SOL     OW  802   7.464   6.855   7.889
66302SOL    HW1  803   7.379   6.836   7.927
66302SOL    HW2  804   7.473   6.791   7.818
66303SOL     OW  805  12.460   2.256  11.199
66303SOL    HW1  806  12.379   2.233  11.245
66303SOL    HW2  807  12.461   2.352  11.199
66304SOL     OW  808   1.159  10.488   2.043
66304SOL    HW1  809   1.148  10.508   1.950
66304SOL    HW2  810   1.232  10.426   2.046
66305SOL     OW  811  12.330   0.500   6.935
66305SOL    HW1  812  12.339   0.415   6.979
66305SOL    HW2  813  12.402   0.552   6.970
66306SOL     OW  814   4.725   3.467   5.002
66306SOL    HW1  815   4.788   3.538   5.008
66306SOL    HW2  816   4.758   3.411   4.932
66307SOL     OW  817  11.616   7.426   8.589
66307SOL    HW1  818  11.521   7.431   8.585
66307SOL    HW2  819  11.634   7.363   8.658
66308SOL     OW  820  13.833   4.568  12.951
66308SOL    HW1  821  13.790   4.562  12.866
66308SOL    HW2  822  13.799   4.649  12.989
66309SOL     OW  823  12.587   2.037   7.551
66309SOL    HW1  824  12.677   2.010   7.570
66309SOL    HW2  825  12.544   2.039   7.636
66310SOL     OW  826  14.448   7.804  12.652
66310SOL    HW1  827  14.378   7.776  12.592
66310SOL    HW2  828  14.419   7.889  12.685
66311SOL     OW  829   3.830   9.786   2.313
66311SOL    HW1  830   3.797   9.805   2.401
66311SOL    HW2  831   3.777   9.712   2.283
66312SOL     OW  832  13.193   9.175  10.999
66312SOL    HW1  833  13.139   9.181  11.078
66312SOL    HW2  834  13.177   9.257  10.953
66313SOL     OW  835   4.875   6.820  14.314
66313SOL    HW1  836   4.937   6.892  14.300
66313SOL    HW2  837   4.911   6.748  14.262
66314SOL     OW  838   4.563  12.017   7.696
66314SOL    HW1  839   4.641  12.040   7.747
66314SOL    HW2  840   4.543  11.927   7.722
66315SOL     OW  841   8.743   7.585   0.176
66315SOL    HW1  842   8.698   7.572   0.093
66315SOL    HW2  843   8.805   7.656   0.159
66316SOL     OW  844  14.315   4.677   1.924
66316SOL    HW1  845  14.281   4.754   1.970
66316SOL    HW2  846  14.237   4.625   1.904
66317SOL     OW  847  10.686   9.307   4.955
66317SOL    HW1  848  10.637   9.302   5.037
66317SOL    HW2  849  10.727   9.394   4.957
66318SOL     OW  850   6.114  12.761  11.099
66318SOL    HW1  851   6.081  12.762  11.009
66318SOL    HW2  852   6.202  12.725  11.093
66319SOL     OW  853  13.760  10.709  10.488
66319SOL    HW1  854  13.849  10.675  10.476
66319SOL    HW2  855  13.729  10.668  10.569
66320SOL     OW  856  12.377   7.688   9.361
66320SOL    HW1  857  12.318   7.693   9.435
66320SOL    HW2  858  12.326   7.721   9.287
66321SOL     OW  859  10.671   9.074  12.627
66321SOL    HW1  860  10.616   9.047  12.700
66321SOL    HW2  861  10.610   9.095  12.557
66322SOL     OW  862   0.035   6.476  13.839
66322SOL    HW1  863   0.055   6.501  13.749
66322SOL    HW2  864   0.103   6.413  13.863
66323SOL     OW  865   5.514   7.094  11.839
66323SOL    HW1  866   5.523   7.016  11.894
66323SOL    HW2  867   5.537   7.167  11.897
66324SOL     OW  868   4.805   7.606  12.904
66324SOL    HW1  869   4.750   7.582  12.978
66324SOL    HW2  870   4.844   7.690  12.928
66325SOL     OW  871   4.716   7.086   5.876
66325SOL    HW1  872   4.743   6.994   5.874
66325SOL    HW2  873   4.774   7.126   5.940
66326SOL     OW  874  13.651  12.555  12.541
66326SOL    HW1  875  13.648  12.641  12.500
66326SOL    HW2  876  13.716  12.507  12.490
66327SOL     OW  877  10.853  13.754  10.036
66327SOL    HW1  878  10.797  13.701  10.092
66327SOL    HW2  879  10.912  13.799  10.096
66328SOL     OW  880   1.092  11.023   3.394
66328SOL    HW1  881   1.167  11.076   3.422
66328SOL    HW2  882   1.021  11.050   3.452
66329SOL     OW  883   6.705   9.437   2.883
66329SOL    HW1  884   6.782   9.389   2.853
66329SOL    HW2  885   6.732   9.476   2.966
66330SOL     OW  886  10.788   9.415  10.349
66330SOL    HW1  887  10.797   9.324  10.321
66330SOL    HW2  888  10.853   9.463  10.297
66331SOL     OW  889   5.007  12.549   8.330
66331SOL    HW1  890   4.984  12.521   8.241
66331SOL    HW2  891   5.014  12.468   8.380
66332SOL     OW  892  14.244   0.740   5.034
66332SOL    HW1  893  14.275   0.748   5.124
66332SOL    HW2  894  14.196   0.821   5.018
66333SOL     OW  895   4.163   6.886  11.425
66333SOL    HW1  896   4.095   6.871  11.359
66333SOL    HW2  897   4.133   6.962  11.474
66334SOL     OW  898   4.639   1.507   8.256
66334SOL    HW1  899   4.690   1.426   8.260
66334SOL    HW2  900   4.575   1.491   8.186
66335SOL     OW  901   9.654   4.183   8.597
66335SOL    HW1  902   9.593   4.228   8.538
66335SOL    HW2  903   9.652   4.235   8.677
66336SOL     OW  904   1.836   3.599   9.478
66336SOL    HW1  905   1.930   3.613   9.478
66336SOL    HW2  906   1.813   3.589   9.570
66337SOL     OW  907   2.934   5.306   3.066
66337SOL    HW1  908   3.029   5.304   3.079
66337SOL    HW2  909   2.898   5.272   3.148
66338SOL     OW  910  12.054   3.905   0.421
66338SOL    HW1  911  12.119   3.835   0.407
66338SOL    HW2  912  12.079   3.974   0.359
66339SOL     OW  913   6.326   0.066   1.377
66339SOL    HW1  914   6.323   0.161   1.367
66339SOL    HW2  915   6.258   0.034   1.317
66340SOL     OW  916  14.325   0.916  10.530
66340SOL    HW1  917  14.366   0.929  10.616
66340SOL    HW2  918  14.233   0.940  10.543
66341SOL     OW  919   2.904   9.143  13.143
66341SOL    HW1  920   2.944   9.228  13.157
66341SOL    HW2  921   2.914   9.097  13.226
66342SOL     OW  922   5.459   9.178  12.345
66342SOL    HW1  923   5.410   9.132  12.412
66342SOL    HW2  924   5.423   9.267  12.345
66343SOL     OW  925   5.966   7.255   1.852
66343SOL    HW1  926   5.908   7.269   1.777
66343SOL    HW2  927   6.054   7.266   1.817
66344SOL     OW  928   0.636   3.223  10.123
66344SOL    HW1  929   0.548   3.213  10.085
66344SOL    HW2  930   0.626   3.291  10.189
66345SOL     OW  931  13.211   4.177   7.457
66345SOL    HW1  932  13.232   4.265   7.428
66345SOL    HW2  933  13.234   4.175   7.550
66346SOL     OW  934   9.407   7.271   4.913
66346SOL    HW1  935   9.354   7.226   4.978
66346SOL    HW2  936   9.356   7.348   4.890
66347SOL     OW  937   4.556   2.993   8.211
66347SOL    HW1  938   4.636   3.039   8.185
66347SOL    HW2  939   4.550   2.919   8.150
66348SOL     OW  940   4.563   8.871   8.835
66348SOL    HW1  941   4.607   8.956   8.825
66348SOL    HW2  942   4.582   8.824   8.754
66349SOL     OW  943  10.478  14.476   3.810
66349SOL    HW1  944  10.497  14.561   3.848
66349SOL    HW2  945  10.470  14.493   3.716
66350SOL     OW  946   5.847   4.841  12.174
66350SOL    HW1  947   5.784   4.907  12.201
66350SOL    HW2  948   5.906   4.887  12.114
66351SOL     OW  949   9.724  13.221   0.130
66351SOL    HW1  950   9.678  13.200   0.049
66351SOL    HW2  951   9.663  13.276   0.179
66352SOL     OW  952  10.077   1.862   5.427
66352SOL    HW1  953  10.056   1.776   5.390
66352SOL    HW2  954  10.021   1.870   5.504
66353SOL     OW  955   7.001  14.573  10.884
66353SOL    HW1  956   7.048  14.635  10.828
66353SOL    HW2  957   6.972  14.626  10.959
66354SOL     OW  958   8.173   8.606   3.303
66354SOL    HW1  959   8.132   8.596   3.218
66354SOL    HW2  960   8.257   8.561   3.295
66355SOL     OW  961  14.694  12.895  12.190
66355SOL    HW1  962  14.653  12.938  12.115
66355SOL    HW2  963  14.622  12.875  12.250
66356SOL     OW  964   9.083   5.596   6.687
66356SOL    HW1  965   9.017   5.543   6.732
66356SOL    HW2  966   9.055   5.595   6.595
66357SOL     OW  967   6.735   7.253  13.494
66357SOL    HW1  968   6.657   7.224  13.446
66357SOL    HW2  969   6.749   7.185  13.560
66358SOL     OW  970  13.093  11.908   1.491
66358SOL    HW1  971  13.143  11.847   1.437
66358SOL    HW2  972  13.037  11.955   1.430
66359SOL     OW  973   8.982   4.336  14.712
66359SOL    HW1  974   8.981   4.340  14.616
66359SOL    HW2  975   8.929   4.259  14.733
66360SOL     OW  976   7.751  10.342   5.853
66360SOL    HW1  977   7.689  10.408   5.884
66360SOL    HW2  978   7.698  10.265   5.836
66361SOL     OW  979   1.437   7.789   1.549
66361SOL    HW1  980   1.479   7.746   1.475
66361SOL    HW2  981   1.394   7.866   1.511
66362SOL     OW  982  14.577   6.778   1.237
66362SOL    HW1  983  14.648   6.832   1.271
66362SOL    HW2  984  14.571   6.705   1.299
66363SOL     OW  985   0.783  13.655  13.809
66363SOL    HW1  986   0.760  13.606  13.887
66363SOL    HW2  987   0.815  13.739  13.841
66364SOL     OW  988  10.805  10.175   2.690
66364SOL    HW1  989  10.722  10.168   2.642
66364SOL    HW2  990  10.784  10.230   2.765
66365SOL     OW  991   3.969   8.442   4.373
66365SOL    HW1  992   3.986   8.503   4.445
66365SOL    HW2  993   3.954   8.498   4.297
66366SOL     OW  994  14.867   6.343  10.581
66366SOL    HW1  995   0.007   6.262  10.631
66366SOL    HW2  996  14.836   6.316  10.495
66367SOL     OW  997  12.628   0.497  11.101
66367SOL    HW1  998  12.667   0.554  11.035
66367SOL    HW2  999  12.694   0.430  11.118
66368SOL     OW 1000   5.852   3.634  11.313
66368SOL    HW1 1001   5.879   3.718  11.350
66368SOL    HW2 1002   5.904   3.626  11.233
66369SOL     OW 1003   7.624  14.029  11.282
66369SOL    HW1 1004   7.576  14.009  11.201
66369SOL    HW2 1005   7.566  14.001  11.352
66370SOL     OW 1006  10.068  10.534  10.894
66370SOL    HW1 1007  10.077  10.574  10.808
66370SOL    HW2 1008  10.067  10.440  10.877
66371SOL     OW 1009  13.823   5.540   9.532
66371SOL    HW1 1010  13.817   5.560   9.625
66371SOL    HW2 1011  13.916   5.528   9.515
66372SOL     OW 1012   6.269  13.867   8.073
66372SOL    HW1 1013   6.212  13.869   7.996
66372SOL    HW2 1014   6.292  13.958   8.088
66373SOL     OW 1015   0.294  12.875  12.329
66373SOL    HW1 1016   0.297  12.847  12.238
66373SOL    HW2 1017   0.229  12.945  12.331
66374SOL     OW 1018   2.939   1.041   5.013
66374SOL    HW1 1019   3.019   1.092   5.013
66374SOL    HW2 1020   2.951   0.978   4.941
66375SOL     OW 1021   6.693  14.509  14.587
66375SOL    HW1 1022   6.706  14.593  14.543
66375SOL    HW2 1023   6.778  14.465  14.580
66376SOL     OW 1024   3.570  13.325  13.573
66376SOL    HW1 1025   3.572  13.420  13.586
66376SOL    HW2 1026   3.492  13.297  13.620
66377SOL     OW 1027  11.720  11.725   5.725
66377SOL    HW1 1028  11.732  11.723   5.630
66377SOL    HW2 1029  11.626  11.743   5.737
66378SOL     OW 1030   9.549   2.393   5.819
66378SOL    HW1 1031   9.643   2.377   5.828
66378SOL    HW2 1032   9.513   2.361   5.902
66379SOL     OW 1033   9.075   3.214   7.230
66379SOL    HW1 1034   9.132   3.173   7.164
66379SOL    HW2 1035   9.011   3.146   7.251
66380SOL     OW 1036  10.244   3.393  14.096
66380SOL    HW1 1037  10.325   3.404  14.048
66380SOL    HW2 1038  10.193   3.332  14.043
66381SOL     OW 1039  10.589   3.606  13.474
66381SOL    HW1 1040  10.511   3.661  13.468
66381SOL    HW2 1041  10.652   3.659  13.522
66382SOL     OW 1042   4.456   2.204   4.229
66382SOL    HW1 1043   4.533   2.259   4.219
66382SOL    HW2 1044   4.384   2.259   4.198
66383SOL     OW 1045   8.928   3.390   0.452
66383SOL    HW1 1046   8.951   3.390   0.359
66383SOL    HW2 1047   8.899   3.479   0.470
66384SOL     OW 1048  12.743  14.707   5.920
66384SOL    HW1 1049  12.820  14.672   5.964
66384SOL    HW2 1050  12.758  14.688   5.827
66385SOL     OW 1051   0.082  13.368   6.383
66385SOL    HW1 1052  14.861  13.363   6.351
66385SOL    HW2 1053   0.128  13.300   6.334
66386SOL     OW 1054   7.166   9.204  13.279
66386SOL    HW1 1055   7.144   9.245  13.196
66386SOL    HW2 1056   7.258   9.225  13.293
66387SOL     OW 1057   1.909   3.843   7.520
66387SOL    HW1 1058   1.873   3.810   7.438
66387SOL    HW2 1059   1.975   3.908   7.494
66388SOL     OW 1060   4.295   7.609  10.806
66388SOL    HW1 1061   4.226   7.598  10.740
66388SOL    HW2 1062   4.336   7.692  10.782
66389SOL     OW 1063  13.772   7.066   7.149
66389SOL    HW1 1064  13.756   6.976   7.120
66389SOL    HW2 1065  13.751   7.120   7.074
66390SOL     OW 1066   3.247  10.267   5.582
66390SOL    HW1 1067   3.286  10.279   5.495
66390SOL    HW2 1068   3.319  10.231   5.635
66391SOL     OW 1069   5.127   4.093   7.448
66391SOL    HW1 1070   5.126   4.181   7.410
66391SOL    HW2 1071   5.180   4.102   7.527
66392SOL     OW 1072   9.007   0.521   3.964
66392SOL    HW1 1073   9.101   0.529   3.947
66392SOL    HW2 1074   8.965   0.544   3.882
66393SOL     OW 1075  11.453   5.008   5.906
66393SOL    HW1 1076  11.411   5.082   5.862
66393SOL    HW2 1077  11.380   4.951   5.929
66394SOL     OW 1078   8.351   5.871   5.567
66394SOL    HW1 1079   8.375   5.779   5.564
66394SOL    HW2 1080   8.287   5.877   5.638
66395SOL     OW 1081   2.794   6.022   8.863
66395SOL    HW1 1082   2.829   6.067   8.786
66395SOL    HW2 1083   2.699   6.027   8.853
66396SOL     OW 1084   2.126   1.070   3.827
66396SOL    HW1 1085   2.187   1.122   3.879
66396SOL    HW2 1086   2.139   0.980   3.857
66397SOL     OW 1087  13.967   1.871   1.820
66397SOL    HW1 1088  13.948   1.961   1.847
66397SOL    HW2 1089  14.011   1.880   1.736
66398SOL     OW 1090  14.853  10.040   1.011
66398SOL    HW1 1091  14.830  10.117   0.960
66398SOL    HW2 1092   0.060  10.066   1.062
66399SOL     OW 1093   7.458  14.304   5.103
66399SOL    HW1 1094   7.444  14.211   5.086
66399SOL    HW2 1095   7.545  14.323   5.069
66400SOL     OW 1096   6.703   4.513   5.549
66400SOL    HW1 1097   6.720   4.583   5.613
66400SOL    HW2 1098   6.608   4.513   5.538
66401SOL     OW 1099   0.783   4.406  14.593
66401SOL    HW1 1100   0.815   4.352  14.665
66401SOL    HW2 1101   0.853   4.401  14.527
66402SOL     OW 1102   0.342  14.205   4.657
66402SOL    HW1 1103   0.275  14.138   4.639
66402SOL    HW2 1104   0.307  14.253   4.732
66403SOL     OW 1105   5.696   0.461  11.882
66403SOL    HW1 1106   5.667   0.481  11.971
66403SOL    HW2 1107   5.675   0.368  11.869
66404SOL     OW 1108   9.859  11.800   3.578
66404SOL    HW1 1109   9.784  11.751   3.543
66404SOL    HW2 1110   9.917  11.812   3.502
66405SOL     OW 1111  12.150   2.844   9.554
66405SOL    HW1 1112  12.058   2.821   9.549
66405SOL    HW2 1113  12.152   2.921   9.612
66406SOL     OW 1114  10.080   9.924   6.916
66406SOL    HW1 1115  10.123   9.970   6.988
66406SOL    HW2 1116  10.058   9.992   6.853
66407SOL     OW 1117   6.962   7.352   0.939
66407SOL    HW1 1118   6.926   7.367   1.026
66407SOL    HW2 1119   6.965   7.256   0.931
66408SOL     OW 1120   9.909   9.851   6.535
66408SOL    HW1 1121   9.839   9.849   6.600
66408SOL    HW2 1122   9.910   9.941   6.503
66409SOL     OW 1123  10.889  12.848  12.487
66409SOL    HW1 1124  10.982  12.829  12.496
66409SOL    HW2 1125  10.862  12.800  12.409
66410SOL     OW 1126   5.280  14.029   6.900
66410SOL    HW1 1127   5.256  13.938   6.917
66410SOL    HW2 1128   5.275  14.039   6.805
66411SOL     OW 1129  10.015  10.804  10.954
66411SOL    HW1 1130  10.042  10.713  10.939
66411SOL    HW2 1131   9.925  10.807  10.922
66412SOL     OW 1132  14.601  10.118   3.227
66412SOL    HW1 1133  14.556  10.177   3.168
66412SOL    HW2 1134  14.664  10.173   3.273
66413SOL     OW 1135   6.904  10.658   5.720
66413SOL    HW1 1136   6.898  10.600   5.644
66413SOL    HW2 1137   6.865  10.608   5.791
66414SOL     OW 1138   7.419   5.183  10.502
66414SOL    HW1 1139   7.473   5.248  10.547
66414SOL    HW2 1140   7.349   5.234  10.460
66415SOL     OW 1141   8.783  10.767   5.711
66415SOL    HW1 1142   8.871  10.750   5.678
66415SOL    HW2 1143   8.783  10.733   5.800
66416SOL     OW 1144   5.355  14.203   9.257
66416SOL    HW1 1145   5.310  14.131   9.214
66416SOL    HW2 1146   5.358  14.178   9.350
66417SOL     OW 1147   0.279   3.207  13.180
66417SOL    HW1 1148   0.351   3.145  13.172
66417SOL    HW2 1149   0.312   3.287  13.138
66418SOL     OW 1150   4.109  12.119   7.726
66418SOL    HW1 1151   4.192  12.139   7.683
66418SOL    HW2 1152   4.050  12.097   7.654
66419SOL     OW 1153   7.097  11.969   2.392
66419SOL    HW1 1154   7.142  12.036   2.444
66419SOL    HW2 1155   7.004  11.995   2.396
66420SOL     OW 1156   3.477   5.856   7.949
66420SOL    HW1 1157   3.463   5.763   7.928
66420SOL    HW2 1158   3.392   5.897   7.931
66421SOL     OW 1159   4.078   5.517  13.885
66421SOL    HW1 1160   4.045   5.428  13.894
66421SOL    HW2 1161   4.015   5.571  13.933
66422SOL     OW 1162   3.761   1.100   8.320
66422SOL    HW1 1163   3.811   1.026   8.287
66422SOL    HW2 1164   3.744   1.154   8.243
66423SOL     OW 1165   2.880  11.705   0.640
66423SOL    HW1 1166   2.944  11.635   0.641
66423SOL    HW2 1167   2.921  11.775   0.588
66424SOL     OW 1168  14.017  13.398   8.911
66424SOL    HW1 1169  14.066  13.397   8.829
66424SOL    HW2 1170  14.061  13.464   8.964
66425SOL     OW 1171  11.607   7.268  10.719
66425SOL    HW1 1172  11.554   7.305  10.649
66425SOL    HW2 1173  11.636   7.183  10.685
66426SOL     OW 1174   2.093   9.208  10.033
66426SOL    HW1 1175   2.055   9.128   9.996
66426SOL    HW2 1176   2.180   9.181  10.063
66427SOL     OW 1177  12.707  13.257  14.003
66427SOL    HW1 1178  12.717  13.333  13.945
66427SOL    HW2 1179  12.663  13.292  14.080
66428SOL     OW 1180  14.071   3.985   2.352
66428SOL    HW1 1181  14.112   3.909   2.392
66428SOL    HW2 1182  14.076   3.969   2.258
66429SOL     OW 1183   3.030   2.691   3.673
66429SOL    HW1 1184   2.961   2.669   3.610
66429SOL    HW2 1185   2.995   2.663   3.758
66430SOL     OW 1186  12.913  12.223   4.359
66430SOL    HW1 1187  12.929  12.317   4.368
66430SOL    HW2 1188  12.922  12.206   4.265
66431SOL     OW 1189   3.137  13.529   9.366
66431SOL    HW1 1190   3.105  13.445   9.398
66431SOL    HW2 1191   3.140  13.585   9.444
66432SOL     OW 1192   4.020   8.448   8.144
66432SOL    HW1 1193   3.970   8.366   8.137
66432SOL    HW2 1194   4.050   8.451   8.234
66433SOL     OW 1195   5.779   5.480   7.897
66433SOL    HW1 1196   5.866   5.469   7.933
66433SOL    HW2 1197   5.777   5.572   7.868
66434SOL     OW 1198   4.590   1.317  11.530
66434SOL    HW1 1199   4.524   1.254  11.501
66434SOL    HW2 1200   4.630   1.348  11.449
66435SOL     OW 1201   3.338   4.550   3.316
66435SOL    HW1 1202   3.414   4.493   3.328
66435SOL    HW2 1203   3.358   4.628   3.366
66436SOL     OW 1204   6.553  11.108  12.081
66436SOL    HW1 1205   6.517  11.184  12.126
66436SOL    HW2 1206   6.502  11.102  12.000
66437SOL     OW 1207  12.916  10.419  12.166
66437SOL    HW1 1208  12.915  10.329  12.134
66437SOL    HW2 1209  12.965  10.414  12.248
66438SOL     OW 1210  14.303   4.099   9.910
66438SOL    HW1 1211  14.300   4.066   9.820
66438SOL    HW2 1212  14.390   4.138   9.919
66439SOL     OW 1213  12.493   8.467   6.490
66439SOL    HW1 1214  12.446   8.550   6.480
66439SOL    HW2 1215  12.488   8.427   6.403
66440SOL     OW 1216   9.420  13.502   5.145
66440SOL    HW1 1217   9.485  13.565   5.115
66440SOL    HW2 1218   9.383  13.541   5.225
66441SOL     OW 1219   9.466   1.250   9.977
66441SOL    HW1 1220   9.418   1.185   9.925
66441SOL    HW2 1221   9.449   1.224  10.068
66442SOL     OW 1222  12.092  11.780   5.840
66442SOL    HW1 1223  12.184  11.775   5.864
66442SOL    HW2 1224  12.091  11.767   5.745
66443SOL     OW 1225   2.862   4.458   3.657
66443SOL    HW1 1226   2.826   4.416   3.578
66443SOL    HW2 1227   2.901   4.387   3.707
66444SOL     OW 1228   6.554  10.151  13.176
66444SOL    HW1 1229   6.489  10.220  13.165
66444SOL    HW2 1230   6.506  10.078  13.215
66445SOL     OW 1231  14.694   6.793   3.182
66445SOL    HW1 1232  14.772   6.739   3.192
66445SOL    HW2 1233  14.707   6.839   3.099
66446SOL     OW 1234  10.206  13.967   6.609
66446SOL    HW1 1235  10.122  13.990   6.649
66446SOL    HW2 1236  10.260  14.045   6.621
66447SOL     OW 1237  12.337  11.415  13.320
66447SOL    HW1 1238  12.397  11.347  13.289
66447SOL    HW2 1239  12.347  11.415  13.415
66448SOL     OW 1240  10.132   3.377   1.917
66448SOL    HW1 1241  10.224   3.381   1.942
66448SOL    HW2 1242  10.108   3.285   1.924
66449SOL     OW 1243  10.529  10.540   1.903
66449SOL    HW1 1244  10.607  10.590   1.927
66449SOL    HW2 1245  10.466  10.559   1.972
66450SOL     OW 1246  11.654   5.296   8.461
66450SOL    HW1 1247  11.633   5.247   8.382
66450SOL    HW2 1248  11.625   5.385   8.443
66451SOL     OW 1249  13.720   3.865  10.408
66451SOL    HW1 1250  13.779   3.804  10.363
66451SOL    HW2 1251  13.769   3.893  10.485
66452SOL     OW 1252   8.391  14.366   9.191
66452SOL    HW1 1253   8.366  14.293   9.248
66452SOL    HW2 1254   8.364  14.338   9.103
66453SOL     OW 1255   9.871   1.813   3.132
66453SOL    HW1 1256   9.935   1.849   3.194
66453SOL    HW2 1257   9.792   1.801   3.185
66454SOL     OW 1258  13.478   9.795   4.271
66454SOL    HW1 1259  13.551   9.854   4.289
66454SOL    HW2 1260  13.453   9.760   4.356
66455SOL     OW 1261  10.364   5.061  13.836
66455SOL    HW1 1262  10.429   5.120  13.797
66455SOL    HW2 1263  10.284   5.114  13.842
66456SOL     OW 1264   8.793   2.200   4.461
66456SOL    HW1 1265   8.705   2.173   4.487
66456SOL    HW2 1266   8.819   2.137   4.394
66457SOL     OW 1267   6.193   6.603   8.821
66457SOL    HW1 1268   6.175   6.522   8.773
66457SOL    HW2 1269   6.288   6.614   8.815
66458SOL     OW 1270   0.271   7.314   0.274
66458SOL    HW1 1271   0.249   7.332   0.183
66458SOL    HW2 1272   0.364   7.293   0.273
66459SOL     OW 1273   0.786  14.375   7.585
66459SOL    HW1 1274   0.824  14.460   7.608
66459SOL    HW2 1275   0.770  14.381   7.491
66460SOL     OW 1276   4.912   0.369   5.226
66460SOL    HW1 1277   4.960   0.298   5.184
66460SOL    HW2 1278   4.918   0.442   5.165
66461SOL     OW 1279  11.253   0.305   3.959
66461SOL    HW1 1280  11.213   0.379   4.005
66461SOL    HW2 1281  11.230   0.320   3.867
66462SOL     OW 1282  11.172   4.303   4.606
66462SOL    HW1 1283  11.081   4.276   4.594
66462SOL    HW2 1284  11.188   4.293   4.700
66463SOL     OW 1285   5.717   8.183  11.190
66463SOL    HW1 1286   5.645   8.225  11.144
66463SOL    HW2 1287   5.781   8.253  11.204
66464SOL     OW 1288  10.388   7.678  14.656
66464SOL    HW1 1289  10.467   7.637  14.690
66464SOL    HW2 1290  10.407   7.693  14.563
66465SOL     OW 1291  13.801  14.544  10.797
66465SOL    HW1 1292  13.892  14.548  10.768
66465SOL    HW2 1293  13.751  14.525  10.718
66466SOL     OW 1294   3.088   4.847  10.650
66466SOL    HW1 1295   3.165   4.819  10.601
66466SOL    HW2 1296   3.019   4.853  10.584
66467SOL     OW 1297   9.279   4.508   4.516
66467SOL    HW1 1298   9.225   4.430   4.532
66467SOL    HW2 1299   9.323   4.489   4.433
66468SOL     OW 1300  14.743   9.284  14.312
66468SOL    HW1 1301  14.690   9.244  14.381
66468SOL    HW2 1302  14.808   9.336  14.358
66469SOL     OW 1303   5.402   5.405  10.071
66469SOL    HW1 1304   5.488   5.408  10.028
66469SOL    HW2 1305   5.359   5.485  10.043
66470SOL     OW 1306   1.095   9.925   7.564
66470SOL    HW1 1307   1.063   9.862   7.500
66470SOL    HW2 1308   1.105   9.875   7.645
66471SOL     OW 1309   7.141  12.465   3.937
66471SOL    HW1 1310   7.214  12.515   3.901
66471SOL    HW2 1311   7.182  12.396   3.988
66472SOL     OW 1312   7.842   6.207   7.606
66472SOL    HW1 1313   7.930   6.173   7.624
66472SOL    HW2 1314   7.855   6.270   7.535
66473SOL     OW 1315   3.277  10.862   3.882
66473SOL    HW1 1316   3.361  10.891   3.918
66473SOL    HW2 1317   3.223  10.941   3.879
66474SOL     OW 1318   5.590   0.787  11.435
66474SOL    HW1 1319   5.528   0.723  11.400
66474SOL    HW2 1320   5.588   0.772  11.530
66475SOL     OW 1321   3.098  13.743   0.344
66475SOL    HW1 1322   3.005  13.756   0.322
66475SOL    HW2 1323   3.104  13.650   0.364
66476SOL     OW 1324   7.884  10.685   9.286
66476SOL    HW1 1325   7.874  10.769   9.240
66476SOL    HW2 1326   7.809  10.633   9.258
66477SOL     OW 1327   8.788   7.532   8.591
66477SOL    HW1 1328   8.724   7.490   8.534
66477SOL    HW2 1329   8.866   7.477   8.585
66478SOL     OW 1330   7.029   3.144   3.034
66478SOL    HW1 1331   7.123   3.135   3.051
66478SOL    HW2 1332   6.991   3.161   3.120
66479SOL     OW 1333   2.310  13.001   5.496
66479SOL    HW1 1334   2.244  13.071   5.506
66479SOL    HW2 1335   2.380  13.026   5.556
66480SOL     OW 1336   3.282   3.155   7.979
66480SOL    HW1 1337   3.289   3.196   8.065
66480SOL    HW2 1338   3.355   3.093   7.977
66481SOL     OW 1339   6.612   3.408  13.859
66481SOL    HW1 1340   6.582   3.320  13.837
66481SOL    HW2 1341   6.551   3.439  13.926
66482SOL     OW 1342   6.438   4.123   9.868
66482SOL    HW1 1343   6.370   4.056   9.877
66482SOL    HW2 1344   6.410   4.193   9.927
66483SOL     OW 1345   6.762   1.117  14.557
66483SOL    HW1 1346   6.854   1.091  14.543
66483SOL    HW2 1347   6.768   1.209  14.582
66484SOL     OW 1348   6.101  14.769  13.475
66484SOL    HW1 1349   6.179  14.748  13.526
66484SOL    HW2 1350   6.070  14.684  13.443
66485SOL     OW 1351  12.655   3.493   0.501
66485SOL    HW1 1352  12.565   3.481   0.532
66485SOL    HW2 1353  12.685   3.573   0.544
66486SOL     OW 1354  13.290   0.748   8.999
66486SOL    HW1 1355  13.205   0.793   9.000
66486SOL    HW2 1356  13.352   0.814   8.968
66487SOL     OW 1357   3.146  14.223   9.646
66487SOL    HW1 1358   3.173  14.281   9.717
66487SOL    HW2 1359   3.114  14.144   9.690
66488SOL     OW 1360  10.606   0.249  11.462
66488SOL    HW1 1361  10.540   0.180  11.468
66488SOL    HW2 1362  10.562   0.320  11.415
66489SOL     OW 1363   3.961   9.778   1.215
66489SOL    HW1 1364   3.870   9.754   1.233
66489SOL    HW2 1365   3.966   9.783   1.119
66490SOL     OW 1366   7.276   3.493  10.584
66490SOL    HW1 1367   7.359   3.490  10.536
66490SOL    HW2 1368   7.291   3.559  10.652
66491SOL     OW 1369   8.482   8.635  14.779
66491SOL    HW1 1370   8.445   8.583  14.708
66491SOL    HW2 1371   8.491   8.723  14.742
66492SOL     OW 1372   9.430  12.680   0.318
66492SOL    HW1 1373   9.367  12.625   0.364
66492SOL    HW2 1374   9.399  12.769   0.334
66493SOL     OW 1375  14.770  12.628  12.758
66493SOL    HW1 1376  14.780  12.539  12.724
66493SOL    HW2 1377  14.745  12.680  12.682
66494SOL     OW 1378   5.275  14.659  12.985
66494SOL    HW1 1379   5.257  14.752  12.972
66494SOL    HW2 1380   5.369  14.654  12.999
66495SOL     OW 1381  13.119   6.172   7.908
66495SOL    HW1 1382  13.183   6.191   7.976
66495SOL    HW2 1383  13.164   6.110   7.850
66496SOL     OW 1384   1.665   3.522   8.716
66496SOL    HW1 1385   1.578   3.559   8.698
66496SOL    HW2 1386   1.708   3.588   8.770
66497SOL     OW 1387  10.370   4.908  13.606
66497SOL    HW1 1388  10.462   4.881  13.611
66497SOL    HW2 1389  10.359   4.968  13.679
66498SOL     OW 1390  11.274   9.446   2.566
66498SOL    HW1 1391  11.203   9.500   2.532
66498SOL    HW2 1392  11.333   9.508   2.609
66499SOL     OW 1393  10.353  14.102   2.634
66499SOL    HW1 1394  10.357  14.011   2.606
66499SOL    HW2 1395  10.430  14.143   2.594
66500SOL     OW 1396   6.713  11.803  12.172
66500SOL    HW1 1397   6.625  11.772  12.153
66500SOL    HW2 1398   6.767  11.768  12.100
66501SOL     OW 1399  14.471   1.641   0.839
66501SOL    HW1 1400  14.522   1.665   0.916
66501SOL    HW2 1401  14.445   1.724   0.800
66502SOL     OW 1402   9.688  10.982  12.952
66502SOL    HW1 1403   9.738  11.018  13.026
66502SOL    HW2 1404   9.708  10.888  12.954
66503SOL     OW 1405   2.388  14.261   0.562
66503SOL    HW1 1406   2.377  14.309   0.644
66503SOL    HW2 1407   2.468  14.296   0.523
66504SOL     OW 1408   5.767  13.300   3.417
66504SOL    HW1 1409   5.837  13.355   3.382
66504SOL    HW2 1410   5.768  13.318   3.511
66505SOL     OW 1411  10.304   1.033  13.884
66505SOL    HW1 1412  10.310   1.017  13.790
66505SOL    HW2 1413  10.362   0.967  13.922
66506SOL     OW 1414   0.576  10.304  12.824
66506SOL    HW1 1415   0.650  10.342  12.775
66506SOL    HW2 1416   0.573  10.355  12.905
66507SOL     OW 1417  11.294   0.109   5.063
66507SOL    HW1 1418  11.360   0.164   5.103
66507SOL    HW2 1419  11.318   0.105   4.970
66508SOL     OW 1420   9.549   3.119   9.960
66508SOL    HW1 1421   9.535   3.160   9.875
66508SOL    HW2 1422   9.487   3.163  10.018
66509SOL     OW 1423   1.996   5.798   3.169
66509SOL    HW1 1424   1.912   5.756   3.189
66509SOL    HW2 1425   2.061   5.731   3.189
66510SOL     OW 1426   1.462   7.007   5.540
66510SOL    HW1 1427   1.530   7.075   5.540
66510SOL    HW2 1428   1.382   7.053   5.512
66511SOL     OW 1429   7.432   7.134   1.983
66511SOL    HW1 1430   7.472   7.121   2.069
66511SOL    HW2 1431   7.363   7.068   1.979
66512SOL     OW 1432  12.039  10.078   0.275
66512SOL    HW1 1433  12.036  10.120   0.361
66512SOL    HW2 1434  12.129  10.089   0.246
66513SOL     OW 1435  11.062   6.948   0.339
66513SOL    HW1 1436  11.101   6.960   0.253
66513SOL    HW2 1437  11.045   6.854   0.344
66514SOL     OW 1438   1.914   7.809   0.474
66514SOL    HW1 1439   1.934   7.715   0.464
66514SOL    HW2 1440   1.887   7.837   0.386
66515SOL     OW 1441   1.122   1.838   9.946
66515SOL    HW1 1442   1.175   1.903   9.993
66515SOL    HW2 1443   1.148   1.754   9.983
66516SOL     OW 1444   1.737  12.506   5.649
66516SOL    HW1 1445   1.730  12.582   5.706
66516SOL    HW2 1446   1.812  12.525   5.592
66517SOL     OW 1447   9.781   7.952  10.047
66517SOL    HW1 1448   9.723   7.919  10.115
66517SOL    HW2 1449   9.848   8.001  10.095
66518SOL     OW 1450  14.424  10.525   5.046
66518SOL    HW1 1451  14.367  10.588   5.001
66518SOL    HW2 1452  14.509  10.569   5.050
66519SOL     OW 1453  12.793   4.236  13.134
66519SOL    HW1 1454  12.742   4.227  13.054
66519SOL    HW2 1455  12.813   4.329  13.140
66520SOL     OW 1456   0.448  14.347  13.706
66520SOL    HW1 1457   0.521  14.396  13.670
66520SOL    HW2 1458   0.420  14.289  13.635
66521SOL     OW 1459   2.542   8.414   1.688
66521SOL    HW1 1460   2.545   8.425   1.593
66521SOL    HW2 1461   2.520   8.501   1.722
66522SOL     OW 1462   3.777   1.333   5.831
66522SOL    HW1 1463   3.725   1.362   5.756
66522SOL    HW2 1464   3.803   1.244   5.809
66523SOL     OW 1465   9.101   1.127   2.771
66523SOL    HW1 1466   9.115   1.220   2.787
66523SOL    HW2 1467   9.100   1.088   2.859
66524SOL     OW 1468   7.512   5.391   9.906
66524SOL    HW1 1469   7.592   5.356   9.945
66524SOL    HW2 1470   7.474   5.446   9.974
66525SOL     OW 1471  10.685   6.696  13.453
66525SOL    HW1 1472  10.604   6.691  13.504
66525SOL    HW2 1473  10.753   6.707  13.519
66526SOL     OW 1474   9.146   2.588   0.258
66526SOL    HW1 1475   9.173   2.639   0.335
66526SOL    HW2 1476   9.151   2.496   0.287
66527SOL     OW 1477   3.257   7.868   6.806
66527SOL    HW1 1478   3.211   7.824   6.878
66527SOL    HW2 1479   3.228   7.959   6.810
66528SOL     OW 1480  11.125   1.944   1.135
66528SOL    HW1 1481  11.132   1.851   1.157
66528SOL    HW2 1482  11.212   1.968   1.104
66529SOL     OW 1483  10.803   3.559   9.915
66529SOL    HW1 1484  10.761   3.645   9.917
66529SOL    HW2 1485  10.817   3.537  10.007
66530SOL     OW 1486  13.699  12.270   4.772
66530SOL    HW1 1487  13.731  12.181   4.785
66530SOL    HW2 1488  13.775  12.319   4.741
66531SOL     OW 1489   6.406   8.989   4.071
66531SOL    HW1 1490   6.460   9.011   3.995
66531SOL    HW2 1491   6.316   9.004   4.042
66532SOL     OW 1492  13.631  13.680   1.316
66532SOL    HW1 1493  13.664  13.604   1.267
66532SOL    HW2 1494  13.710  13.724   1.348
66533SOL     OW 1495   2.647  10.737   9.735
66533SOL    HW1 1496   2.717  10.671   9.743
66533SOL    HW2 1497   2.684  10.816   9.775
66534SOL     OW 1498  11.233   0.771   5.809
66534SOL    HW1 1499  11.240   0.736   5.720
66534SOL    HW2 1500  11.148   0.814   5.811
66535SOL     OW 1501  14.708  12.224  13.583
66535SOL    HW1 1502  14.727  12.220  13.677
66535SOL    HW2 1503  14.618  12.255  13.578
66536SOL     OW 1504   7.880   5.057   5.615
66536SOL    HW1 1505   7.882   5.063   5.519
66536SOL    HW2 1506   7.801   5.008   5.634
66537SOL     OW 1507   6.465   6.196  12.469
66537SOL    HW1 1508   6.518   6.145  12.407
66537SOL    HW2 1509   6.385   6.216  12.420
66538SOL     OW 1510   3.127   8.387  11.880
66538SOL    HW1 1511   3.203   8.434  11.915
66538SOL    HW2 1512   3.079   8.358  11.958
66539SOL     OW 1513  12.854   7.330  10.165
66539SOL    HW1 1514  12.761   7.339  10.148
66539SOL    HW2 1515  12.864   7.241  10.198
66540SOL     OW 1516  12.981   5.126   4.490
66540SOL    HW1 1517  12.923   5.189   4.448
66540SOL    HW2 1518  13.064   5.173   4.502
66541SOL     OW 1519   1.331   6.922   7.448
66541SOL    HW1 1520   1.282   6.949   7.370
66541SOL    HW2 1521   1.364   6.835   7.427
66542SOL     OW 1522  10.655   3.391   4.470
66542SOL    HW1 1523  10.620   3.396   4.559
66542SOL    HW2 1524  10.748   3.412   4.479
66543SOL     OW 1525  13.498   6.073   2.100
66543SOL    HW1 1526  13.551   6.135   2.051
66543SOL    HW2 1527  13.410   6.110   2.098
66544SOL     OW 1528   6.781   2.419  14.381
66544SOL    HW1 1529   6.742   2.453  14.462
66544SOL    HW2 1530   6.872   2.402  14.403
66545SOL     OW 1531  10.218   3.938  13.971
66545SOL    HW1 1532  10.245   3.977  14.054
66545SOL    HW2 1533  10.127   3.912  13.986
66546SOL     OW 1534   5.905   9.616  12.952
66546SOL    HW1 1535   5.846   9.689  12.934
66546SOL    HW2 1536   5.924   9.622  13.046
66547SOL     OW 1537  11.346   8.795  13.591
66547SOL    HW1 1538  11.398   8.742  13.531
66547SOL    HW2 1539  11.255   8.781  13.563
66548SOL     OW 1540   6.890   6.350  12.980
66548SOL    HW1 1541   6.796   6.350  12.960
66548SOL    HW2 1542   6.899   6.415  13.050
66549SOL     OW 1543   9.605   1.340   8.114
66549SOL    HW1 1544   9.515   1.369   8.098
66549SOL    HW2 1545   9.649   1.353   8.030
66550SOL     OW 1546   7.944   7.281   9.955
66550SOL    HW1 1547   8.007   7.353   9.956
66550SOL    HW2 1548   7.896   7.290  10.038
66551SOL     OW 1549   0.010   8.452   4.378
66551SOL    HW1 1550   0.018   8.383   4.443
66551SOL    HW2 1551   0.042   8.531   4.422
66552SOL     OW 1552  13.317  14.063   4.381
66552SOL    HW1 1553  13.236  14.064   4.329
66552SOL    HW2 1554  13.344  14.154   4.386
66553SOL     OW 1555   9.162   7.618   1.720
66553SOL    HW1 1556   9.142   7.538   1.672
66553SOL    HW2 1557   9.189   7.680   1.653
66554SOL     OW 1558   5.783  11.763   0.629
66554SOL    HW1 1559   5.728  11.685   0.627
66554SOL    HW2 1560   5.726  11.833   0.599
66555SOL     OW 1561  13.674   0.849  11.045
66555SOL    HW1 1562  13.690   0.837  10.951
66555SOL    HW2 1563  13.606   0.916  11.049
66556SOL     OW 1564   0.933  14.200   8.204
66556SOL    HW1 1565   1.002  14.258   8.173
66556SOL    HW2 1566   0.964  14.112   8.185
66557SOL     OW 1567   3.580   7.659   1.073
66557SOL    HW1 1568   3.586   7.734   1.013
66557SOL    HW2 1569   3.669   7.648   1.106
66558SOL     OW 1570   5.359   3.624   3.905
66558SOL    HW1 1571   5.316   3.704   3.873
66558SOL    HW2 1572   5.327   3.555   3.847
66559SOL     OW 1573   3.103   6.444  14.504
66559SOL    HW1 1574   3.029   6.384  14.492
66559SOL    HW2 1575   3.152   6.438  14.422
66560SOL     OW 1576  11.274  12.605  12.827
66560SOL    HW1 1577  11.330  12.581  12.753
66560SOL    HW2 1578  11.192  12.557  12.811
66561SOL     OW 1579   9.816  11.534   8.547
66561SOL    HW1 1580   9.843  11.591   8.475
66561SOL    HW2 1581   9.735  11.494   8.516
66562SOL     OW 1582   2.226   1.029  12.133
66562SOL    HW1 1583   2.231   1.060  12.223
66562SOL    HW2 1584   2.317   1.007  12.110
66563SOL     OW 1585  11.384   9.103  14.263
66563SOL    HW1 1586  11.417   9.099  14.173
66563SOL    HW2 1587  11.403   9.192  14.291
66564SOL     OW 1588  14.520   6.716  13.444
66564SOL    HW1 1589  14.434   6.676  13.451
66564SOL    HW2 1590  14.555   6.682  13.361
66565SOL     OW 1591  11.268   4.027  10.424
66565SOL    HW1 1592  11.182   3.992  10.448
66565SOL    HW2 1593  11.306   4.056  10.507
66566SOL     OW 1594   8.550   6.617   7.565
66566SOL    HW1 1595   8.645   6.631   7.567
66566SOL    HW2 1596   8.528   6.590   7.655
66567SOL     OW 1597   4.132  14.572   4.771
66567SOL    HW1 1598   4.068  14.640   4.790
66567SOL    HW2 1599   4.094  14.525   4.696
66568SOL     OW 1600   0.040   6.845   9.788
66568SOL    HW1 1601   0.130   6.836   9.758
66568SOL    HW2 1602   0.039   6.804   9.874
66569SOL     OW 1603  14.745   1.498   9.242
66569SOL    HW1 1604  14.733   1.567   9.307
66569SOL    HW2 1605  14.840   1.483   9.240
66570SOL     OW 1606   9.996   9.481   1.854
66570SOL    HW1 1607   9.985   9.503   1.947
66570SOL    HW2 1608  10.071   9.533   1.825
66571SOL     OW 1609   7.357   3.910   5.605
66571SOL    HW1 1610   7.262   3.915   5.598
66571SOL    HW2 1611   7.390   3.969   5.537
66572SOL     OW 1612   0.723   9.049  10.636
66572SOL    HW1 1613   0.729   8.954  10.645
66572SOL    HW2 1614   0.653   9.075  10.697
66573SOL     OW 1615   6.126   7.493  14.256
66573SOL    HW1 1616   6.136   7.536  14.171
66573SOL    HW2 1617   6.032   7.473  14.262
66574SOL     OW 1618   3.291   7.028   2.338
66574SOL    HW1 1619   3.271   6.962   2.272
66574SOL    HW2 1620   3.254   7.109   2.304
66575SOL     OW 1621   4.303   8.643  12.616
66575SOL    HW1 1622   4.363   8.570  12.630
66575SOL    HW2 1623   4.221   8.614  12.656
66576SOL     OW 1624  14.343   6.304   1.197
66576SOL    HW1 1625  14.387   6.265   1.272
66576SOL    HW2 1626  14.252   6.276   1.205
66577SOL     OW 1627  11.064   7.953  12.655
66577SOL    HW1 1628  11.050   7.876  12.600
66577SOL    HW2 1629  10.998   7.946  12.724
66578SOL     OW 1630  12.366  14.181   9.689
66578SOL    HW1 1631  12.390  14.106   9.635
66578SOL    HW2 1632  12.310  14.145   9.757
66579SOL     OW 1633   0.557  14.597   1.799
66579SOL    HW1 1634   0.475  14.621   1.756
66579SOL    HW2 1635   0.580  14.513   1.760
66580SOL     OW 1636  13.622   2.636  11.276
66580SOL    HW1 1637  13.590   2.615  11.363
66580SOL    HW2 1638  13.660   2.554  11.244
66581SOL     OW 1639  10.195   4.805   7.845
66581SOL    HW1 1640  10.159   4.884   7.806
66581SOL    HW2 1641  10.289   4.820   7.847
66582SOL     OW 1642  10.875   2.236  13.862
66582SOL    HW1 1643  10.823   2.306  13.821
66582SOL    HW2 1644  10.958   2.278  13.883
66583SOL     OW 1645  13.373   9.629   4.104
66583SOL    HW1 1646  13.431   9.614   4.030
66583SOL    HW2 1647  13.418   9.693   4.158
66584SOL     OW 1648   7.706   8.239   6.559
66584SOL    HW1 1649   7.680   8.325   6.593
66584SOL    HW2 1650   7.801   8.240   6.563
66585SOL     OW 1651   2.757   2.139  14.745
66585SOL    HW1 1652   2.712   2.055  14.754
66585SOL    HW2 1653   2.845   2.123  14.777
66586SOL     OW 1654   0.052   4.402   5.270
66586SOL    HW1 1655  14.842   4.454   5.282
66586SOL    HW2 1656   0.027   4.313   5.294
66587SOL     OW 1657   0.455   3.605  10.910
66587SOL    HW1 1658   0.475   3.588  10.818
66587SOL    HW2 1659   0.362   3.627  10.911
66588SOL     OW 1660  13.026   6.312   5.879
66588SOL    HW1 1661  13.022   6.349   5.967
66588SOL    HW2 1662  12.944   6.339   5.838
66589SOL     OW 1663   6.714   5.173   8.764
66589SOL    HW1 1664   6.696   5.267   8.767
66589SOL    HW2 1665   6.808   5.167   8.746
66590SOL     OW 1666  12.011   4.194   4.143
66590SOL    HW1 1667  11.945   4.263   4.157
66590SOL    HW2 1668  12.048   4.215   4.057
66591SOL     OW 1669  11.709   4.672   9.141
66591SOL    HW1 1670  11.721   4.762   9.171
66591SOL    HW2 1671  11.796   4.644   9.114
66592SOL     OW 1672   1.342   5.072   9.048
66592SOL    HW1 1673   1.301   5.082   9.134
66592SOL    HW2 1674   1.420   5.019   9.065
66593SOL     OW 1675   5.267   3.724  11.429
66593SOL    HW1 1676   5.358   3.710  11.456
66593SOL    HW2 1677   5.216   3.707  11.509
66594SOL     OW 1678  13.444   8.958   4.341
66594SOL    HW1 1679  13.363   8.949   4.291
66594SOL    HW2 1680  13.418   8.942   4.432
66595SOL     OW 1681  13.753  14.560   2.027
66595SOL    HW1 1682  13.701  14.640   2.033
66595SOL    HW2 1683  13.713  14.501   2.091
66596SOL     OW 1684  14.607  14.362   8.892
66596SOL    HW1 1685  14.599  14.314   8.974
66596SOL    HW2 1686  14.534  14.425   8.895
66597SOL     OW 1687  11.010  12.072   9.972
66597SOL    HW1 1688  10.970  11.988   9.951
66597SOL    HW2 1689  11.000  12.124   9.892
66598SOL     OW 1690   6.581   4.181   3.111
66598SOL    HW1 1691   6.572   4.158   3.018
66598SOL    HW2 1692   6.672   4.159   3.132
66599SOL     OW 1693   1.682  12.071   5.893
66599SOL    HW1 1694   1.599  12.102   5.930
66599SOL    HW2 1695   1.712  12.144   5.838
66600SOL     OW 1696  10.450  12.714   1.657
66600SOL    HW1 1697  10.395  12.656   1.709
66600SOL    HW2 1698  10.522  12.658   1.628
66601SOL     OW 1699   8.209   5.783   1.713
66601SOL    HW1 1700   8.160   5.817   1.787
66601SOL    HW2 1701   8.252   5.704   1.746
66602SOL     OW 1702   7.058   6.924   6.485
66602SOL    HW1 1703   7.140   6.874   6.485
66602SOL    HW2 1704   7.068   6.985   6.412
66603SOL     OW 1705  11.061   0.812  10.585
66603SOL    HW1 1706  11.123   0.873  10.627
66603SOL    HW2 1707  10.997   0.793  10.654
66604SOL     OW 1708  11.001   6.632  13.945
66604SOL    HW1 1709  11.083   6.590  13.920
66604SOL    HW2 1710  11.026   6.700  14.007
66605SOL     OW 1711  10.250   3.992   1.372
66605SOL    HW1 1712  10.233   4.071   1.321
66605SOL    HW2 1713  10.195   3.925   1.332
66606SOL     OW 1714  13.557   3.206  10.878
66606SOL    HW1 1715  13.580   3.191  10.787
66606SOL    HW2 1716  13.484   3.147  10.895
66607SOL     OW 1717   7.274   1.926   7.380
66607SOL    HW1 1718   7.194   1.974   7.399
66607SOL    HW2 1719   7.333   1.991   7.342
66608SOL     OW 1720  10.733   0.737   1.063
66608SOL    HW1 1721  10.674   0.725   0.988
66608SOL    HW2 1722  10.691   0.804   1.116
66609SOL     OW 1723   2.653   4.169   3.542
66609SOL    HW1 1724   2.623   4.081   3.521
66609SOL    HW2 1725   2.573   4.222   3.542
66610SOL     OW 1726   5.458  10.200   2.300
66610SOL    HW1 1727   5.460  10.263   2.227
66610SOL    HW2 1728   5.417  10.122   2.263
66611SOL     OW 1729   3.316   0.624   2.374
66611SOL    HW1 1730   3.331   0.559   2.306
66611SOL    HW2 1731   3.372   0.596   2.446
66612SOL     OW 1732   3.149   3.231  13.257
66612SOL    HW1 1733   3.217   3.263  13.317
66612SOL    HW2 1734   3.198   3.187  13.187
66613SOL     OW 1735  13.249   7.781   5.730
66613SOL    HW1 1736  13.278   7.820   5.648
66613SOL    HW2 1737  13.265   7.848   5.796
66614SOL     OW 1738  13.334  11.157   7.605
66614SOL    HW1 1739  13.259  11.202   7.565
66614SOL    HW2 1740  13.340  11.194   7.693
66615SOL     OW 1741  12.254   9.607  13.089
66615SOL    HW1 1742  12.172   9.645  13.059
66615SOL    HW2 1743  12.252   9.517  13.058
66616SOL     OW 1744   9.995   2.011   9.082
66616SOL    HW1 1745  10.070   2.068   9.101
66616SOL    HW2 1746  10.022   1.961   9.005
66617SOL     OW 1747   5.852   3.393   4.561
66617SOL    HW1 1748   5.849   3.483   4.593
66617SOL    HW2 1749   5.940   3.385   4.523
66618SOL     OW 1750  12.156  10.453  13.463
66618SOL    HW1 1751  12.251  10.444  13.467
66618SOL    HW2 1752  12.123  10.373  13.503
66619SOL     OW 1753   4.587   1.067   4.952
66619SOL    HW1 1754   4.602   1.033   4.864
66619SOL    HW2 1755   4.664   1.122   4.970
66620SOL     OW 1756  11.816  10.885   2.339
66620SOL    HW1 1757  11.831  10.833   2.418
66620SOL    HW2 1758  11.747  10.838   2.292
66621SOL     OW 1759   6.540  11.692  14.151
66621SOL    HW1 1760   6.513  11.779  14.124
66621SOL    HW2 1761   6.479  11.669  14.222
66622SOL     OW 1762   6.877  13.142   0.018
66622SOL    HW1 1763   6.969  13.119   0.005
66622SOL    HW2 1764   6.876  13.189   0.102
66623SOL     OW 1765  13.541   1.132  12.299
66623SOL    HW1 1766  13.616   1.182  12.332
66623SOL    HW2 1767  13.466   1.190  12.312
66624SOL     OW 1768   4.334   9.451   9.507
66624SOL    HW1 1769   4.391   9.493   9.571
66624SOL    HW2 1770   4.250   9.496   9.514
66625SOL     OW 1771  13.833   8.246  11.715
66625SOL    HW1 1772  13.843   8.195  11.795
66625SOL    HW2 1773  13.873   8.192  11.647
66626SOL     OW 1774  13.280   7.799   3.233
66626SOL    HW1 1775  13.375   7.787   3.232
66626SOL    HW2 1776  13.247   7.728   3.178
66627SOL     OW 1777   8.941  14.556   2.846
66627SOL    HW1 1778   8.929  14.610   2.924
66627SOL    HW2 1779   9.036  14.553   2.833
66628SOL     OW 1780   3.870  10.860   0.869
66628SOL    HW1 1781   3.817  10.905   0.935
66628SOL    HW2 1782   3.930  10.927   0.836
66629SOL     OW 1783  13.357  11.243  13.903
66629SOL    HW1 1784  13.280  11.256  13.849
66629SOL    HW2 1785  13.340  11.162  13.951
66630SOL     OW 1786   5.851  13.427   9.342
66630SOL    HW1 1787   5.906  13.363   9.387
66630SOL    HW2 1788   5.824  13.383   9.261
66631SOL     OW 1789  10.965  13.552  14.679
66631SOL    HW1 1790  10.905  13.570  14.607
66631SOL    HW2 1791  11.005  13.468  14.656
66632SOL     OW 1792  14.863   8.317  11.048
66632SOL    HW1 1793   0.055   8.244  11.043
66632SOL    HW2 1794   0.001   8.349  11.139
66633SOL     OW 1795   4.571  11.493   6.930
66633SOL    HW1 1796   4.559  11.412   6.981
66633SOL    HW2 1797   4.639  11.471   6.866
66634SOL     OW 1798   9.356   0.078  10.241
66634SOL    HW1 1799   9.428   0.050  10.185
66634SOL    HW2 1800   9.326  14.867  10.283
66635SOL     OW 1801   5.928   3.073  10.194
66635SOL    HW1 1802   6.014   3.116  10.192
66635SOL    HW2 1803   5.937   3.005  10.261
66636SOL     OW 1804   4.611  14.587   3.787
66636SOL    HW1 1805   4.688  14.543   3.750
66636SOL    HW2 1806   4.642  14.627   3.868
66637SOL     OW 1807   6.671   8.514   8.150
66637SOL    HW1 1808   6.754   8.556   8.128
66637SOL    HW2 1809   6.612   8.541   8.080
66638SOL     OW 1810   2.773   0.627   4.057
66638SOL    HW1 1811   2.835   0.655   3.990
66638SOL    HW2 1812   2.687   0.654   4.022
66639SOL     OW 1813   3.668  13.565  10.534
66639SOL    HW1 1814   3.620  13.533  10.457
66639SOL    HW2 1815   3.613  13.541  10.608
66640SOL     OW 1816  12.715   6.413  10.763
66640SOL    HW1 1817  12.679   6.489  10.809
66640SOL    HW2 1818  12.794   6.391  10.812
66641SOL     OW 1819   3.096   1.117  14.039
66641SOL    HW1 1820   3.077   1.026  14.018
66641SOL    HW2 1821   3.191   1.125  14.028
66642SOL     OW 1822   0.746   7.307   5.237
66642SOL    HW1 1823   0.688   7.371   5.195
66642SOL    HW2 1824   0.688   7.257   5.294
66643SOL     OW 1825   3.997   7.381   5.605
66643SOL    HW1 1826   3.938   7.389   5.530
66643SOL    HW2 1827   4.082   7.409   5.573
66644SOL     OW 1828   9.951   9.553   2.125
66644SOL    HW1 1829  10.010   9.614   2.169
66644SOL    HW2 1830   9.893   9.522   2.194
66645SOL     OW 1831   4.298  12.947  11.334
66645SOL    HW1 1832   4.282  12.993  11.252
66645SOL    HW2 1833   4.268  12.858  11.318
66646SOL     OW 1834   0.913  13.489   6.842
66646SOL    HW1 1835   0.843  13.541   6.880
66646SOL    HW2 1836   0.987  13.499   6.902
66647SOL     OW 1837   1.681  12.708   5.295
66647SOL    HW1 1838   1.596  12.751   5.307
66647SOL    HW2 1839   1.698  12.716   5.201
66648SOL     OW 1840  14.773   7.159  11.491
66648SOL    HW1 1841  14.832   7.211  11.437
66648SOL    HW2 1842  14.829   7.125  11.561
66649SOL     OW 1843   1.759  13.529   8.809
66649SOL    HW1 1844   1.720  13.585   8.875
66649SOL    HW2 1845   1.805  13.461   8.858
66650SOL     OW 1846   7.287   8.113   7.374
66650SOL    HW1 1847   7.211   8.058   7.355
66650SOL    HW2 1848   7.309   8.093   7.465
66651SOL     OW 1849   3.579   8.075   7.521
66651SOL    HW1 1850   3.496   8.086   7.566
66651SOL    HW2 1851   3.636   8.032   7.585
66652SOL     OW 1852   0.202   9.468   1.016
66652SOL    HW1 1853   0.135   9.442   1.079
66652SOL    HW2 1854   0.179   9.421   0.936
66653SOL     OW 1855   6.078   4.329  12.297
66653SOL    HW1 1856   5.985   4.352  12.290
66653SOL    HW2 1857   6.118   4.363  12.217
66654SOL     OW 1858   5.219   7.845   4.431
66654SOL    HW1 1859   5.284   7.868   4.497
66654SOL    HW2 1860   5.135   7.857   4.475
66655SOL     OW 1861   4.622   1.426  12.844
66655SOL    HW1 1862   4.642   1.436  12.751
66655SOL    HW2 1863   4.614   1.515  12.877
66656SOL     OW 1864  11.588  14.156  13.682
66656SOL    HW1 1865  11.501  14.185  13.710
66656SOL    HW2 1866  11.603  14.201  13.599
66657SOL     OW 1867   1.708  10.598   7.993
66657SOL    HW1 1868   1.654  10.676   7.983
66657SOL    HW2 1869   1.798  10.631   7.990
66658SOL     OW 1870  12.820  10.242   0.208
66658SOL    HW1 1871  12.915  10.250   0.195
66658SOL    HW2 1872  12.798  10.314   0.266
66659SOL     OW 1873   8.995   6.913   4.618
66659SOL    HW1 1874   9.031   6.978   4.557
66659SOL    HW2 1875   8.910   6.889   4.580
66660SOL     OW 1876   5.788  13.072   6.793
66660SOL    HW1 1877   5.836  13.134   6.738
66660SOL    HW2 1878   5.800  13.105   6.882
66661SOL     OW 1879  13.839   9.963   8.603
66661SOL    HW1 1880  13.883   9.924   8.527
66661SOL    HW2 1881  13.768  10.015   8.565
66662SOL     OW 1882  11.657  11.317   0.370
66662SOL    HW1 1883  11.743  11.325   0.412
66662SOL    HW2 1884  11.603  11.384   0.412
66663SOL     OW 1885   0.499   9.027  13.333
66663SOL    HW1 1886   0.409   9.054  13.312
66663SOL    HW2 1887   0.489   8.967  13.407
66664SOL     OW 1888   8.331   1.423  13.337
66664SOL    HW1 1889   8.349   1.410  13.244
66664SOL    HW2 1890   8.404   1.380  13.381
66665SOL     OW 1891  10.151   8.074   3.589
66665SOL    HW1 1892  10.126   8.043   3.677
66665SOL    HW2 1893  10.092   8.026   3.530
66666SOL     OW 1894  11.102   4.486   4.371
66666SOL    HW1 1895  11.169   4.432   4.413
66666SOL    HW2 1896  11.025   4.479   4.429
66667SOL     OW 1897   4.991  10.703   4.151
66667SOL    HW1 1898   5.009  10.775   4.211
66667SOL    HW2 1899   4.896  10.699   4.145
66668SOL     OW 1900   2.443   5.965   7.561
66668SOL    HW1 1901   2.392   6.009   7.630
66668SOL    HW2 1902   2.475   6.036   7.506
66669SOL     OW 1903  14.079   7.293   4.492
66669SOL    HW1 1904  14.092   7.222   4.429
66669SOL    HW2 1905  14.167   7.311   4.526
66670SOL     OW 1906   8.623   1.337  13.063
66670SOL    HW1 1907   8.670   1.347  13.146
66670SOL    HW2 1908   8.681   1.375  12.997
66671SOL     OW 1909   6.820   5.805  14.307
66671SOL    HW1 1910   6.735   5.827  14.268
66671SOL    HW2 1911   6.829   5.711  14.294
66672SOL     OW 1912  14.249  11.684   3.184
66672SOL    HW1 1913  14.203  11.756   3.228
66672SOL    HW2 1914  14.242  11.610   3.244
66673SOL     OW 1915   4.329  11.105   4.332
66673SOL    HW1 1916   4.255  11.166   4.328
66673SOL    HW2 1917   4.395  11.144   4.274
66674SOL     OW 1918   2.479   7.144  13.259
66674SOL    HW1 1919   2.566   7.137  13.298
66674SOL    HW2 1920   2.478   7.231  13.219
66675SOL     OW 1921  12.180   2.823  10.069
66675SOL    HW1 1922  12.136   2.772  10.001
66675SOL    HW2 1923  12.110   2.844  10.132
66676SOL     OW 1924   9.345   2.203  11.177
66676SOL    HW1 1925   9.372   2.112  11.167
66676SOL    HW2 1926   9.401   2.251  11.115
66677SOL     OW 1927   6.833  14.352  10.972
66677SOL    HW1 1928   6.824  14.415  11.044
66677SOL    HW2 1929   6.835  14.406  10.893
66678SOL     OW 1930  11.613   4.330   9.894
66678SOL    HW1 1931  11.626   4.391   9.821
66678SOL    HW2 1932  11.701   4.305   9.920
66679SOL     OW 1933   5.979   1.233   7.700
66679SOL    HW1 1934   5.893   1.195   7.717
66679SOL    HW2 1935   5.965   1.328   7.703
66680SOL     OW 1936   0.840   1.103   3.089
66680SOL    HW1 1937   0.885   1.134   3.168
66680SOL    HW2 1938   0.815   1.184   3.043
66681SOL     OW 1939   8.396   4.142   2.400
66681SOL    HW1 1940   8.319   4.086   2.387
66681SOL    HW2 1941   8.363   4.218   2.448
66682SOL     OW 1942   8.493   8.095   3.881
66682SOL    HW1 1943   8.406   8.128   3.902
66682SOL    HW2 1944   8.541   8.098   3.964
66683SOL     OW 1945   7.615   9.036   2.547
66683SOL    HW1 1946   7.617   9.049   2.452
66683SOL    HW2 1947   7.702   9.064   2.576
66684SOL     OW 1948   7.666  10.113   1.538
66684SOL    HW1 1949   7.591  10.065   1.501
66684SOL    HW2 1950   7.735  10.103   1.473
66685SOL     OW 1951   7.194   4.452   5.548
66685SOL    HW1 1952   7.112   4.451   5.499
66685SOL    HW2 1953   7.185   4.525   5.609
66686SOL     OW 1954   9.636  12.574  11.871
66686SOL    HW1 1955   9.684  12.639  11.923
66686SOL    HW2 1956   9.568  12.542  11.930
66687SOL     OW 1957   1.065   1.691  11.784
66687SOL    HW1 1958   1.065   1.709  11.690
66687SOL    HW2 1959   0.975   1.711  11.812
66688SOL     OW 1960  10.251   7.343  10.271
66688SOL    HW1 1961  10.169   7.358  10.224
66688SOL    HW2 1962  10.225   7.338  10.363
66689SOL     OW 1963  11.443   1.536   9.055
66689SOL    HW1 1964  11.534   1.512   9.071
66689SOL    HW2 1965  11.449   1.611   8.995
66690SOL     OW 1966   9.881  12.118   9.434
66690SOL    HW1 1967   9.791  12.116   9.401
66690SOL    HW2 1968   9.913  12.205   9.410
66691SOL     OW 1969   1.547   1.317   1.081
66691SOL    HW1 1970   1.488   1.387   1.110
66691SOL    HW2 1971   1.488   1.243   1.062
66692SOL     OW 1972   0.104  11.673   2.015
66692SOL    HW1 1973   0.078  11.583   1.995
66692SOL    HW2 1974   0.036  11.727   1.975
66693SOL     OW 1975   6.901   8.482  13.573
66693SOL    HW1 1976   6.869   8.393  13.560
66693SOL    HW2 1977   6.923   8.513  13.485
66694SOL     OW 1978   2.902   9.533   4.479
66694SOL    HW1 1979   2.983   9.485   4.464
66694SOL    HW2 1980   2.917   9.618   4.436
66695SOL     OW 1981   2.546  12.625  12.146
66695SOL    HW1 1982   2.470  12.657  12.097
66695SOL    HW2 1983   2.569  12.697  12.205
66696SOL     OW 1984   7.710   9.118   8.451
66696SOL    HW1 1985   7.768   9.125   8.375
66696SOL    HW2 1986   7.623   9.109   8.414
66697SOL     OW 1987   8.619   4.403   2.164
66697SOL    HW1 1988   8.630   4.346   2.241
66697SOL    HW2 1989   8.653   4.351   2.091
66698SOL     OW 1990  10.591   4.536  11.817
66698SOL    HW1 1991  10.563   4.626  11.834
66698SOL    HW2 1992  10.680   4.545  11.781
66699SOL     OW 1993   0.648   3.050   4.612
66699SOL    HW1 1994   0.702   3.063   4.534
66699SOL    HW2 1995   0.688   3.106   4.678
66700SOL     OW 1996   6.713   3.159  13.033
66700SOL    HW1 1997   6.733   3.251  13.016
66700SOL    HW2 1998   6.777   3.110  12.981
66701SOL     OW 1999   1.973  11.591  10.804
66701SOL    HW1 2000   1.961  11.498  10.825
66701SOL    HW2 2001   2.030  11.591  10.728
66702SOL     OW 2002  13.717   8.395  12.511
66702SOL    HW1 2003  13.730   8.445  12.592
66702SOL    HW2 2004  13.805   8.378  12.479
66703SOL     OW 2005  12.113   4.840   2.720
66703SOL    HW1 2006  12.037   4.836   2.778
66703SOL    HW2 2007  12.181   4.880   2.773
66704SOL     OW 2008   3.964   0.010   6.729
66704SOL    HW1 2009   3.976  14.807   6.791
66704SOL    HW2 2010   3.888   0.057   6.763
66705SOL     OW 2011   2.204   9.482  12.379
66705SOL    HW1 2012   2.165   9.475  12.291
66705SOL    HW2 2013   2.137   9.526  12.431
66706SOL     OW 2014   5.419  11.471  11.916
66706SOL    HW1 2015   5.323  11.462  11.917
66706SOL    HW2 2016   5.434  11.558  11.881
66707SOL     OW 2017  14.330  11.417   7.792
66707SOL    HW1 2018  14.311  11.506   7.764
66707SOL    HW2 2019  14.355  11.424   7.884
66708SOL     OW 2020   5.142  14.689   3.931
66708SOL    HW1 2021   5.158  14.608   3.884
66708SOL    HW2 2022   5.222  14.740   3.920
66709SOL     OW 2023   8.790   7.738  14.125
66709SOL    HW1 2024   8.868   7.690  14.152
66709SOL    HW2 2025   8.748   7.682  14.060
66710SOL     OW 2026   6.256  14.463   3.660
66710SOL    HW1 2027   6.294  14.397   3.601
66710SOL    HW2 2028   6.229  14.413   3.737
66711SOL     OW 2029  12.003   0.743   7.203
66711SOL    HW1 2030  12.024   0.835   7.218
66711SOL    HW2 2031  11.925   0.744   7.147
66712SOL     OW 2032   5.979  14.864   6.629
66712SOL    HW1 2033   5.899  14.862   6.682
66712SOL    HW2 2034   5.962   0.061   6.563
66713SOL     OW 2035  13.519   7.339  11.278
66713SOL    HW1 2036  13.432   7.361  11.311
66713SOL    HW2 2037  13.556   7.423  11.251
66714SOL     OW 2038   5.958   1.812  13.675
66714SOL    HW1 2039   5.981   1.863  13.753
66714SOL    HW2 2040   5.897   1.746  13.707
66715SOL     OW 2041   3.522   1.879  13.566
66715SOL    HW1 2042   3.429   1.858  13.569
66715SOL    HW2 2043   3.527   1.968  13.601
66716SOL     OW 2044   9.816  11.354   6.397
66716SOL    HW1 2045   9.898  11.309   6.374
66716SOL    HW2 2046   9.844  11.433   6.443
66717SOL     OW 2047  10.955   2.909   1.506
66717SOL    HW1 2048  10.869   2.885   1.541
66717SOL    HW2 2049  10.935   2.975   1.440
66718SOL     OW 2050   2.139  13.328   4.938
66718SOL    HW1 2051   2.223  13.345   4.895
66718SOL    HW2 2052   2.107  13.415   4.962
66719SOL     OW 2053   8.627   9.105   9.997
66719SOL    HW1 2054   8.652   9.087   9.906
66719SOL    HW2 2055   8.655   9.195  10.012
66720SOL     OW 2056   1.976  10.792  11.467
66720SOL    HW1 2057   1.892  10.771  11.508
66720SOL    HW2 2058   1.953  10.821  11.378
66721SOL     OW 2059   3.463   8.192   6.546
66721SOL    HW1 2060   3.402   8.255   6.585
66721SOL    HW2 2061   3.462   8.117   6.606
66722SOL     OW 2062   3.617   1.618   7.663
66722SOL    HW1 2063   3.535   1.605   7.615
66722SOL    HW2 2064   3.607   1.565   7.742
66723SOL     OW 2065  12.600   3.301   6.204
66723SOL    HW1 2066  12.607   3.386   6.247
66723SOL    HW2 2067  12.526   3.258   6.247
66724SOL     OW 2068   1.066   6.395  13.058
66724SOL    HW1 2069   1.002   6.443  13.005
66724SOL    HW2 2070   1.140   6.381  12.999
66725SOL     OW 2071   9.091   2.168  12.974
66725SOL    HW1 2072   9.071   2.078  12.997
66725SOL    HW2 2073   9.166   2.163  12.915
66726SOL     OW 2074  13.329  10.139   6.997
66726SOL    HW1 2075  13.305  10.051   7.026
66726SOL    HW2 2076  13.282  10.197   7.057
66727SOL     OW 2077   6.949   5.609   1.356
66727SOL    HW1 2078   7.042   5.598   1.379
66727SOL    HW2 2079   6.919   5.521   1.333
66728SOL     OW 2080  10.714   1.446   9.274
66728SOL    HW1 2081  10.807   1.467   9.268
66728SOL    HW2 2082  10.712   1.350   9.278
66729SOL     OW 2083   8.735   3.491   9.649
66729SOL    HW1 2084   8.824   3.462   9.628
66729SOL    HW2 2085   8.720   3.567   9.593
66730SOL     OW 2086  10.827   9.993   3.857
66730SOL    HW1 2087  10.873   9.958   3.780
66730SOL    HW2 2088  10.765   9.925   3.881
66731SOL     OW 2089   4.945   3.672   6.419
66731SOL    HW1 2090   4.874   3.706   6.474
66731SOL    HW2 2091   4.919   3.695   6.330
66732SOL     OW 2092   1.095   0.228   0.340
66732SOL    HW1 2093   1.063   0.151   0.293
66732SOL    HW2 2094   1.019   0.286   0.347
66733SOL     OW 2095  11.641   8.303   3.611
66733SOL    HW1 2096  11.551   8.335   3.620
66733SOL    HW2 2097  11.631   8.216   3.572
66734SOL     OW 2098   6.352   1.144   0.786
66734SOL    HW1 2099   6.323   1.220   0.836
66734SOL    HW2 2100   6.356   1.073   0.851
66735SOL     OW 2101   7.053  14.300  13.388
66735SOL    HW1 2102   7.016  14.388  13.396
66735SOL    HW2 2103   7.144  14.315  13.364
66736SOL     OW 2104   2.509   3.568   8.179
66736SOL    HW1 2105   2.473   3.484   8.206
66736SOL    HW2 2106   2.569   3.547   8.108
66737SOL     OW 2107  10.038   1.080   1.104
66737SOL    HW1 2108   9.995   1.053   1.022
66737SOL    HW2 2109  10.083   1.001   1.135
66738SOL     OW 2110   5.951  13.608   2.419
66738SOL    HW1 2111   5.886  13.678   2.411
66738SOL    HW2 2112   5.942  13.558   2.338
66739SOL     OW 2113   5.660   7.549   5.294
66739SOL    HW1 2114   5.603   7.521   5.223
66739SOL    HW2 2115   5.679   7.469   5.343
66740SOL     OW 2116   7.794  11.351   0.701
66740SOL    HW1 2117   7.818  11.355   0.794
66740SOL    HW2 2118   7.786  11.258   0.682
66741SOL     OW 2119  12.792   1.461   9.787
66741SOL    HW1 2120  12.761   1.375   9.814
66741SOL    HW2 2121  12.846   1.444   9.709
66742SOL     OW 2122   3.269   8.096  10.698
66742SOL    HW1 2123   3.176   8.110  10.714
66742SOL    HW2 2124   3.304   8.185  10.685
66743SOL     OW 2125   6.647  11.473  14.624
66743SOL    HW1 2126   6.601  11.397  14.662
66743SOL    HW2 2127   6.594  11.548  14.650
66744SOL     OW 2128   2.941   0.585  10.183
66744SOL    HW1 2129   2.862   0.603  10.131
66744SOL    HW2 2130   2.930   0.494  10.212
66745SOL     OW 2131  10.487   9.471   3.183
66745SOL    HW1 2132  10.456   9.403   3.242
66745SOL    HW2 2133  10.548   9.426   3.124
66746SOL     OW 2134   6.686  12.763   2.218
66746SOL    HW1 2135   6.770  12.811   2.218
66746SOL    HW2 2136   6.686  12.714   2.300
66747SOL     OW 2137   9.534  14.232   9.425
66747SOL    HW1 2138   9.462  14.295   9.425
66747SOL    HW2 2139   9.556  14.221   9.518
66748SOL     OW 2140   3.259   8.847   4.146
66748SOL    HW1 2141   3.232   8.935   4.171
66748SOL    HW2 2142   3.218   8.790   4.211
66749SOL     OW 2143   3.838  13.581  13.052
66749SOL    HW1 2144   3.770  13.513  13.051
66749SOL    HW2 2145   3.791  13.660  13.078
66750SOL     OW 2146   5.278   1.642   1.116
66750SOL    HW1 2147   5.270   1.654   1.211
66750SOL    HW2 2148   5.371   1.628   1.101
66751SOL     OW 2149  10.441  13.649  12.474
66751SOL    HW1 2150  10.514  13.587  12.470
66751SOL    HW2 2151  10.364  13.594  12.493
66752SOL     OW 2152   8.645  12.747  11.535
66752SOL    HW1 2153   8.715  12.774  11.595
66752SOL    HW2 2154   8.676  12.773  11.449
66753SOL     OW 2155   6.111   5.144   9.835
66753SOL    HW1 2156   6.204   5.165   9.848
66753SOL    HW2 2157   6.097   5.160   9.741
66754SOL     OW 2158  13.229  12.137   4.010
66754SOL    HW1 2159  13.323  12.130   4.025
66754SOL    HW2 2160  13.219  12.206   3.944
66755SOL     OW 2161   1.392   0.734   1.600
66755SOL    HW1 2162   1.413   0.702   1.512
66755SOL    HW2 2163   1.408   0.659   1.657
66756SOL     OW 2164   5.566   4.537  13.057
66756SOL    HW1 2165   5.519   4.540  13.140
66756SOL    HW2 2166   5.658   4.529  13.081
66757SOL     OW 2167  12.029   3.777  10.572
66757SOL    HW1 2168  12.074   3.737  10.498
66757SOL    HW2 2169  11.982   3.851  10.534
66758SOL     OW 2170   1.716   0.752  14.519
66758SOL    HW1 2171   1.673   0.667  14.514
66758SOL    HW2 2172   1.781   0.742  14.589
66759SOL     OW 2173   9.440   9.289   9.538
66759SOL    HW1 2174   9.521   9.239   9.535
66759SOL    HW2 2175   9.377   9.232   9.582
66760SOL     OW 2176  10.860   5.901  11.298
66760SOL    HW1 2177  10.918   5.824  11.291
66760SOL    HW2 2178  10.915   5.969  11.337
66761SOL     OW 2179   6.783  12.868  14.168
66761SOL    HW1 2180   6.737  12.876  14.084
66761SOL    HW2 2181   6.850  12.802  14.152
66762SOL     OW 2182  12.891  10.742   7.585
66762SOL    HW1 2183  12.946  10.819   7.598
66762SOL    HW2 2184  12.803  10.770   7.609
66763SOL     OW 2185  14.152  11.903   2.451
66763SOL    HW1 2186  14.232  11.867   2.414
66763SOL    HW2 2187  14.105  11.827   2.486
66764SOL     OW 2188   6.980   4.385  12.704
66764SOL    HW1 2189   6.885   4.397  12.695
66764SOL    HW2 2190   7.018   4.466  12.669
66765SOL     OW 2191   6.270  10.474   6.703
66765SOL    HW1 2192   6.296  10.472   6.611
66765SOL    HW2 2193   6.328  10.411   6.746
66766SOL     OW 2194   0.764   5.769   9.078
66766SOL    HW1 2195   0.678   5.762   9.120
66766SOL    HW2 2196   0.745   5.790   8.987
66767SOL     OW 2197   9.701   1.116   7.334
66767SOL    HW1 2198   9.658   1.172   7.399
66767SOL    HW2 2199   9.741   1.178   7.272
66768SOL     OW 2200   7.890   4.148   4.956
66768SOL    HW1 2201   7.797   4.167   4.941
66768SOL    HW2 2202   7.936   4.223   4.918
66769SOL     OW 2203   0.449  12.595   5.870
66769SOL    HW1 2204   0.398  12.525   5.829
66769SOL    HW2 2205   0.467  12.563   5.958
66770SOL     OW 2206   1.184   5.063   7.567
66770SOL    HW1 2207   1.216   5.153   7.571
66770SOL    HW2 2208   1.261   5.011   7.542
66771SOL     OW 2209   7.507   0.739   1.602
66771SOL    HW1 2210   7.534   0.829   1.587
66771SOL    HW2 2211   7.571   0.686   1.554
66772SOL     OW 2212   2.658   4.088   6.659
66772SOL    HW1 2213   2.581   4.085   6.603
66772SOL    HW2 2214   2.626   4.120   6.743
66773SOL     OW 2215  10.530   8.638   9.948
66773SOL    HW1 2216  10.563   8.589   9.874
66773SOL    HW2 2217  10.440   8.606   9.960
66774SOL     OW 2218  12.053   8.895  11.302
66774SOL    HW1 2219  11.980   8.954  11.318
66774SOL    HW2 2220  12.027   8.813  11.344
66775SOL     OW 2221   3.064   2.967   5.452
66775SOL    HW1 2222   2.992   2.964   5.515
66775SOL    HW2 2223   3.100   2.878   5.452
66776SOL     OW 2224   6.371   9.670   4.850
66776SOL    HW1 2225   6.396   9.680   4.942
66776SOL    HW2 2226   6.343   9.757   4.823
66777SOL     OW 2227   5.439   7.430   8.262
66777SOL    HW1 2228   5.484   7.511   8.286
66777SOL    HW2 2229   5.509   7.366   8.249
66778SOL     OW 2230  10.406  11.060   8.672
66778SOL    HW1 2231  10.407  11.013   8.755
66778SOL    HW2 2232  10.393  11.152   8.696
66779SOL     OW 2233  12.920   5.084  12.131
66779SOL    HW1 2234  12.882   5.062  12.046
66779SOL    HW2 2235  13.000   5.133  12.110
66780SOL     OW 2236   0.200   0.302  14.615
66780SOL    HW1 2237   0.225   0.349  14.694
66780SOL    HW2 2238   0.187   0.212  14.644
66781SOL     OW 2239   4.372  10.067   7.526
66781SOL    HW1 2240   4.457  10.024   7.520
66781SOL    HW2 2241   4.392  10.159   7.545
66782SOL     OW 2242   9.958   9.493  10.205
66782SOL    HW1 2243  10.003   9.571  10.238
66782SOL    HW2 2244   9.965   9.429  10.276
66783SOL     OW 2245   7.496   3.093   7.768
66783SOL    HW1 2246   7.544   3.029   7.715
66783SOL    HW2 2247   7.411   3.052   7.785
66784SOL     OW 2248   1.261   7.717   1.749
66784SOL    HW1 2249   1.172   7.736   1.717
66784SOL    HW2 2250   1.317   7.727   1.672
66785SOL     OW 2251   8.833   1.803   3.642
66785SOL    HW1 2252   8.784   1.752   3.706
66785SOL    HW2 2253   8.767   1.834   3.579
66786SOL     OW 2254   7.462   4.796  10.884
66786SOL    HW1 2255   7.383   4.743  10.894
66786SOL    HW2 2256   7.442   4.855  10.811
66787SOL     OW 2257  12.151  10.180   2.947
66787SOL    HW1 2258  12.090  10.253   2.943
66787SOL    HW2 2259  12.167  10.158   2.855
66788SOL     OW 2260   6.947  11.249   4.716
66788SOL    HW1 2261   6.864  11.264   4.762
66788SOL    HW2 2262   6.982  11.337   4.703
66789SOL     OW 2263   0.366  11.535   9.058
66789SOL    HW1 2264   0.365  11.613   9.002
66789SOL    HW2 2265   0.276  11.503   9.057
66790SOL     OW 2266  12.827   5.707   9.881
66790SOL    HW1 2267  12.822   5.799   9.855
66790SOL    HW2 2268  12.896   5.704   9.947
66791SOL     OW 2269   1.835   9.685   2.886
66791SOL    HW1 2270   1.745   9.679   2.856
66791SOL    HW2 2271   1.887   9.659   2.810
66792SOL     OW 2272   3.738   5.294   9.632
66792SOL    HW1 2273   3.828   5.327   9.637
66792SOL    HW2 2274   3.725   5.272   9.540
66793SOL     OW 2275   1.371   7.677   9.475
66793SOL    HW1 2276   1.451   7.714   9.438
66793SOL    HW2 2277   1.397   7.592   9.509
66794SOL     OW 2278   3.905  13.831   4.835
66794SOL    HW1 2279   3.847  13.785   4.774
66794SOL    HW2 2280   3.861  13.824   4.919
66795SOL     OW 2281   9.491   5.460   8.259
66795SOL    HW1 2282   9.395   5.454   8.255
66795SOL    HW2 2283   9.519   5.371   8.278
66796SOL     OW 2284  13.833   3.607   2.483
66796SOL    HW1 2285  13.843   3.512   2.470
66796SOL    HW2 2286  13.884   3.626   2.561
66797SOL     OW 2287   5.144  10.574   0.964
66797SOL    HW1 2288   5.224  10.581   1.015
66797SOL    HW2 2289   5.099  10.657   0.978
66798SOL     OW 2290   5.657   1.972  12.181
66798SOL    HW1 2291   5.721   1.933  12.123
66798SOL    HW2 2292   5.625   1.899  12.235
66799SOL     OW 2293   0.904  11.880  14.460
66799SOL    HW1 2294   0.873  11.801  14.416
66799SOL    HW2 2295   0.912  11.945  14.391
66800SOL     OW 2296   6.881   8.083   8.032
66800SOL    HW1 2297   6.807   8.114   8.085
66800SOL    HW2 2298   6.926   8.162   8.005
66801SOL     OW 2299  10.422   2.879   0.509
66801SOL    HW1 2300  10.401   2.912   0.597
66801SOL    HW2 2301  10.517   2.862   0.512
66802SOL     OW 2302   9.004  10.791  10.582
66802SOL    HW1 2303   9.047  10.864  10.625
66802SOL    HW2 2304   8.910  10.811  10.586
66803SOL     OW 2305  10.390   5.030  14.210
66803SOL    HW1 2306  10.468   4.981  14.239
66803SOL    HW2 2307  10.388   5.016  14.115
66804SOL     OW 2308   1.276   8.344   5.735
66804SOL    HW1 2309   1.196   8.395   5.723
66804SOL    HW2 2310   1.262   8.265   5.683
66805SOL     OW 2311   7.682  14.753   0.978
66805SOL    HW1 2312   7.670  14.820   0.910
66805SOL    HW2 2313   7.654  14.797   1.059
66806SOL     OW 2314   4.115   8.254  12.512
66806SOL    HW1 2315   4.121   8.189  12.582
66806SOL    HW2 2316   4.201   8.297  12.512
66807SOL     OW 2317  12.923   7.243   0.751
66807SOL    HW1 2318  12.903   7.238   0.845
66807SOL    HW2 2319  12.886   7.327   0.724
66808SOL     OW 2320  10.236   5.659   0.901
66808SOL    HW1 2321  10.245   5.576   0.854
66808SOL    HW2 2322  10.283   5.645   0.983
66809SOL     OW 2323  12.180   2.122   9.885
66809SOL    HW1 2324  12.240   2.193   9.908
66809SOL    HW2 2325  12.145   2.093   9.969
66810SOL     OW 2326   7.776  10.044   7.172
66810SOL    HW1 2327   7.725  10.091   7.238
66810SOL    HW2 2328   7.711  10.007   7.113
66811SOL     OW 2329  10.528  11.857  11.878
66811SOL    HW1 2330  10.583  11.875  11.802
66811SOL    HW2 2331  10.587  11.863  11.953
66812SOL     OW 2332   1.077  10.941   0.068
66812SOL    HW1 2333   1.168  10.969   0.080
66812SOL    HW2 2334   1.082  10.873   0.001
66813SOL     OW 2335   3.243   7.144   3.266
66813SOL    HW1 2336   3.305   7.080   3.302
66813SOL    HW2 2337   3.174   7.151   3.333
66814SOL     OW 2338   2.389   0.944   3.904
66814SOL    HW1 2339   2.417   0.968   3.992
66814SOL    HW2 2340   2.450   0.875   3.877
66815SOL     OW 2341  11.669  10.331   1.833
66815SOL    HW1 2342  11.604  10.401   1.844
66815SOL    HW2 2343  11.731  10.345   1.904
66816SOL     OW 2344  10.312  14.581  10.044
66816SOL    HW1 2345  10.314  14.657  10.102
66816SOL    HW2 2346  10.378  14.522  10.080
66817SOL     OW 2347   1.576  13.942  11.403
66817SOL    HW1 2348   1.512  13.890  11.451
66817SOL    HW2 2349   1.656  13.888  11.403
66818SOL     OW 2350  13.697   0.171  14.103
66818SOL    HW1 2351  13.648   0.169  14.185
66818SOL    HW2 2352  13.666   0.249  14.057
66819SOL     OW 2353  14.355   8.051  12.393
66819SOL    HW1 2354  14.448   8.036  12.377
66819SOL    HW2 2355  14.348   8.146  12.406
66820SOL     OW 2356   4.964   6.112   9.153
66820SOL    HW1 2357   4.875   6.082   9.173
66820SOL    HW2 2358   4.962   6.131   9.059
66821SOL     OW 2359   1.614  14.808   0.505
66821SOL    HW1 2360   1.649   0.010   0.557
66821SOL    HW2 2361   1.691  14.753   0.486
66822SOL     OW 2362   0.463   5.696   1.730
66822SOL    HW1 2363   0.478   5.603   1.713
66822SOL    HW2 2364   0.546   5.728   1.765
66823SOL     OW 2365   8.245   2.398  11.530
66823SOL    HW1 2366   8.293   2.346  11.465
66823SOL    HW2 2367   8.163   2.350  11.543
66824SOL     OW 2368  13.778  12.427   9.553
66824SOL    HW1 2369  13.763  12.334   9.534
66824SOL    HW2 2370  13.802  12.466   9.469
66825SOL     OW 2371   0.463   6.637  11.351
66825SOL    HW1 2372   0.460   6.544  11.372
66825SOL    HW2 2373   0.440   6.642  11.259
66826SOL     OW 2374   0.629  12.599  14.310
66826SOL    HW1 2375   0.644  12.562  14.397
66826SOL    HW2 2376   0.670  12.685  14.312
66827SOL     OW 2377  11.063   8.838  10.618
66827SOL    HW1 2378  11.082   8.891  10.540
66827SOL    HW2 2379  11.114   8.878  10.688
66828SOL     OW 2380   9.304  13.834  11.450
66828SOL    HW1 2381   9.245  13.909  11.448
66828SOL    HW2 2382   9.310  13.810  11.543
66829SOL     OW 2383  11.031  14.683   3.493
66829SOL    HW1 2384  11.084  14.605   3.507
66829SOL    HW2 2385  11.043  14.735   3.572
66830SOL     OW 2386   3.944   6.242  10.389
66830SOL    HW1 2387   3.880   6.311  10.374
66830SOL    HW2 2388   3.902   6.183  10.453
66831SOL     OW 2389  13.691   7.671   4.674
66831SOL    HW1 2390  13.703   7.748   4.729
66831SOL    HW2 2391  13.771   7.619   4.687
66832SOL     OW 2392   1.778   6.416   9.752
66832SOL    HW1 2393   1.825   6.411   9.668
66832SOL    HW2 2394   1.816   6.492   9.796
66833SOL     OW 2395   1.391  13.706  11.105
66833SOL    HW1 2396   1.297  13.698  11.124
66833SOL    HW2 2397   1.403  13.655  11.025
66834SOL     OW 2398   5.766   7.704   0.801
66834SOL    HW1 2399   5.833   7.771   0.785
66834SOL    HW2 2400   5.722   7.693   0.717
66835SOL     OW 2401  13.364   1.511  13.437
66835SOL    HW1 2402  13.353   1.599  13.472
66835SOL    HW2 2403  13.382   1.524  13.344
66836SOL     OW 2404   6.235  14.361   8.546
66836SOL    HW1 2405   6.257  14.274   8.580
66836SOL    HW2 2406   6.249  14.420   8.620
66837SOL     OW 2407   3.817  11.149   6.593
66837SOL    HW1 2408   3.792  11.222   6.536
66837SOL    HW2 2409   3.743  11.088   6.587
66838SOL     OW 2410   4.847   7.301   7.812
66838SOL    HW1 2411   4.802   7.366   7.759
66838SOL    HW2 2412   4.938   7.331   7.815
66839SOL     OW 2413   1.725   7.522  11.532
66839SOL    HW1 2414   1.676   7.476  11.601
66839SOL    HW2 2415   1.706   7.472  11.453
66840SOL     OW 2416  13.511   9.051  10.081
66840SOL    HW1 2417  13.465   9.123  10.123
66840SOL    HW2 2418  13.456   8.975  10.097
66841SOL     OW 2419   6.694   4.620   8.078
66841SOL    HW1 2420   6.775   4.569   8.078
66841SOL    HW2 2421   6.703   4.681   8.151
66842SOL     OW 2422  10.135   3.086   1.952
66842SOL    HW1 2423  10.056   3.033   1.942
66842SOL    HW2 2424  10.179   3.049   2.028
66843SOL     OW 2425   7.889   5.373   9.266
66843SOL    HW1 2426   7.961   5.346   9.322
66843SOL    HW2 2427   7.875   5.465   9.288
66844SOL     OW 2428  12.246   9.899  14.412
66844SOL    HW1 2429  12.341   9.894  14.409
66844SOL    HW2 2430  12.228   9.977  14.464
66845SOL     OW 2431   1.557  10.667  11.974
66845SOL    HW1 2432   1.553  10.715  11.891
66845SOL    HW2 2433   1.473  10.684  12.016
66846SOL     OW 2434   4.205   1.521   5.466
66846SOL    HW1 2435   4.209   1.611   5.499
66846SOL    HW2 2436   4.257   1.470   5.529
66847SOL     OW 2437   0.374  11.599  11.712
66847SOL    HW1 2438   0.408  11.514  11.686
66847SOL    HW2 2439   0.379  11.599  11.808
66848SOL     OW 2440   5.662  12.998   1.313
66848SOL    HW1 2441   5.680  12.992   1.219
66848SOL    HW2 2442   5.572  13.032   1.318
66849SOL     OW 2443  10.116   5.225  14.126
66849SOL    HW1 2444  10.048   5.159  14.141
66849SOL    HW2 2445  10.105   5.287  14.198
66850SOL     OW 2446   7.089   6.206   5.438
66850SOL    HW1 2447   7.061   6.259   5.363
66850SOL    HW2 2448   7.019   6.141   5.450
66851SOL     OW 2449   0.614   5.880   6.312
66851SOL    HW1 2450   0.538   5.823   6.324
66851SOL    HW2 2451   0.687   5.820   6.300
66852SOL     OW 2452   9.754  13.608   3.495
66852SOL    HW1 2453   9.672  13.643   3.461
66852SOL    HW2 2454   9.746  13.513   3.484
66853SOL     OW 2455   0.202   8.031   2.836
66853SOL    HW1 2456   0.249   7.975   2.898
66853SOL    HW2 2457   0.155   8.093   2.892
66854SOL     OW 2458   7.793   3.302   4.018
66854SOL    HW1 2459   7.749   3.262   3.942
66854SOL    HW2 2460   7.748   3.265   4.093
66855SOL     OW 2461  10.486   4.529  10.650
66855SOL    HW1 2462  10.582   4.531  10.657
66855SOL    HW2 2463  10.458   4.615  10.679
66856SOL     OW 2464  14.062   0.943   4.674
66856SOL    HW1 2465  13.993   0.877   4.665
66856SOL    HW2 2466  14.036   1.013   4.615
66857SOL     OW 2467  12.461   5.526  11.631
66857SOL    HW1 2468  12.466   5.432  11.615
66857SOL    HW2 2469  12.552   5.556  11.624
66858SOL     OW 2470  14.275   3.810   5.641
66858SOL    HW1 2471  14.203   3.767   5.596
66858SOL    HW2 2472  14.348   3.807   5.578
66859SOL     OW 2473   1.442   1.961   4.516
66859SOL    HW1 2474   1.440   1.886   4.576
66859SOL    HW2 2475   1.458   2.036   4.573
66860SOL     OW 2476   3.976   0.017   3.715
66860SOL    HW1 2477   3.991  14.814   3.775
66860SOL    HW2 2478   4.029   0.088   3.751
66861SOL     OW 2479  12.801   8.077   9.376
66861SOL    HW1 2480  12.874   8.092   9.437
66861SOL    HW2 2481  12.831   8.007   9.319
66862SOL     OW 2482   0.870   9.202   7.079
66862SOL    HW1 2483   0.880   9.110   7.102
66862SOL    HW2 2484   0.959   9.232   7.060
66863SOL     OW 2485   4.086   4.205  14.057
66863SOL    HW1 2486   4.084   4.263  14.133
66863SOL    HW2 2487   4.146   4.134  14.082
66864SOL     OW 2488   0.894   8.408  12.078
66864SOL    HW1 2489   0.917   8.322  12.042
66864SOL    HW2 2490   0.936   8.410  12.164
66865SOL     OW 2491   3.146   2.692   7.218
66865SOL    HW1 2492   3.157   2.634   7.142
66865SOL    HW2 2493   3.212   2.760   7.207
66866SOL     OW 2494   3.769   8.592  12.027
66866SOL    HW1 2495   3.839   8.536  11.994
66866SOL    HW2 2496   3.713   8.533  12.076
66867SOL     OW 2497   9.081  13.164   9.103
66867SOL    HW1 2498   9.001  13.117   9.127
66867SOL    HW2 2499   9.148  13.124   9.158
66868SOL     OW 2500  12.262   0.987   0.128
66868SOL    HW1 2501  12.290   0.922   0.192
66868SOL    HW2 2502  12.276   0.945   0.043
66869SOL     OW 2503   9.597  11.427  10.958
66869SOL    HW1 2504   9.635  11.462  11.039
66869SOL    HW2 2505   9.515  11.386  10.986
66870SOL     OW 2506   0.029   2.319   6.174
66870SOL    HW1 2507   0.005   2.386   6.110
66870SOL    HW2 2508   0.102   2.357   6.223
66871SOL     OW 2509   9.283   6.199   8.303
66871SOL    HW1 2510   9.351   6.144   8.264
66871SOL    HW2 2511   9.218   6.137   8.335
66872SOL     OW 2512   9.007  11.702   3.563
66872SOL    HW1 2513   8.998  11.719   3.469
66872SOL    HW2 2514   9.048  11.616   3.568
66873SOL     OW 2515   5.291   9.151   6.627
66873SOL    HW1 2516   5.318   9.215   6.561
66873SOL    HW2 2517   5.241   9.086   6.578
66874SOL     OW 2518  14.719  12.255   2.497
66874SOL    HW1 2519  14.785  12.321   2.519
66874SOL    HW2 2520  14.743  12.178   2.547
66875SOL     OW 2521   4.696   5.355  13.129
66875SOL    HW1 2522   4.617   5.409  13.135
66875SOL    HW2 2523   4.668   5.267  13.154
66876SOL     OW 2524   3.585   6.376  14.118
66876SOL    HW1 2525   3.516   6.442  14.109
66876SOL    HW2 2526   3.651   6.401  14.054
66877SOL     OW 2527   0.521   7.882   3.548
66877SOL    HW1 2528   0.476   7.929   3.618
66877SOL    HW2 2529   0.596   7.937   3.525
66878SOL     OW 2530   3.190   2.052  10.012
66878SOL    HW1 2531   3.253   1.980  10.011
66878SOL    HW2 2532   3.127   2.031   9.942
66879SOL     OW 2533   3.017   7.442   6.546
66879SOL    HW1 2534   3.104   7.414   6.518
66879SOL    HW2 2535   2.994   7.380   6.616
66880SOL     OW 2536   4.733   3.163  14.538
66880SOL    HW1 2537   4.724   3.239  14.596
66880SOL    HW2 2538   4.750   3.090  14.597
66881SOL     OW 2539  12.244  10.723  11.737
66881SOL    HW1 2540  12.273  10.742  11.648
66881SOL    HW2 2541  12.215  10.808  11.771
66882SOL     OW 2542   0.635   4.827   5.564
66882SOL    HW1 2543   0.702   4.856   5.626
66882SOL    HW2 2544   0.684   4.797   5.488
66883SOL     OW 2545   5.546   7.563   4.249
66883SOL    HW1 2546   5.559   7.657   4.242
66883SOL    HW2 2547   5.629   7.530   4.285
66884SOL     OW 2548  13.055   1.255  14.740
66884SOL    HW1 2549  13.036   1.174  14.693
66884SOL    HW2 2550  13.056   1.322  14.672
66885SOL     OW 2551   9.575   4.084   1.376
66885SOL    HW1 2552   9.574   4.174   1.410
66885SOL    HW2 2553   9.660   4.075   1.333
66886SOL     OW 2554  11.491   8.199  12.312
66886SOL    HW1 2555  11.570   8.156  12.346
66886SOL    HW2 2556  11.420   8.161  12.364
66887SOL     OW 2557  11.767   0.179   7.693
66887SOL    HW1 2558  11.753   0.092   7.655
66887SOL    HW2 2559  11.860   0.180   7.715
66888SOL     OW 2560   5.388   5.951   3.796
66888SOL    HW1 2561   5.473   5.962   3.840
66888SOL    HW2 2562   5.407   5.893   3.722
66889SOL     OW 2563   2.582   2.793   9.870
66889SOL    HW1 2564   2.501   2.831   9.836
66889SOL    HW2 2565   2.585   2.705   9.831
66890SOL     OW 2566   8.748   6.061   5.426
66890SOL    HW1 2567   8.826   6.104   5.460
66890SOL    HW2 2568   8.713   6.013   5.502
66891SOL     OW 2569   2.225   2.519   1.363
66891SOL    HW1 2570   2.295   2.536   1.426
66891SOL    HW2 2571   2.223   2.597   1.307
66892SOL     OW 2572   4.924   9.945  12.863
66892SOL    HW1 2573   4.914   9.986  12.949
66892SOL    HW2 2574   4.842   9.964  12.818
66893SOL     OW 2575   7.566   0.758   0.714
66893SOL    HW1 2576   7.637   0.759   0.650
66893SOL    HW2 2577   7.556   0.666   0.738
66894SOL     OW 2578   1.076   3.330  11.347
66894SOL    HW1 2579   0.989   3.297  11.368
66894SOL    HW2 2580   1.104   3.374  11.427
66895SOL     OW 2581   5.729  14.269  14.204
66895SOL    HW1 2582   5.673  14.345  14.211
66895SOL    HW2 2583   5.671  14.198  14.176
66896SOL     OW 2584   2.790   2.578   4.390
66896SOL    HW1 2585   2.808   2.668   4.363
66896SOL    HW2 2586   2.697   2.565   4.367
66897SOL     OW 2587  14.191   5.517   0.964
66897SOL    HW1 2588  14.133   5.573   1.015
66897SOL    HW2 2589  14.161   5.428   0.984
66898SOL     OW 2590  12.157  11.086  11.116
66898SOL    HW1 2591  12.089  11.116  11.177
66898SOL    HW2 2592  12.127  11.117  11.030
66899SOL     OW 2593   3.855   4.511  12.089
66899SOL    HW1 2594   3.934   4.456  12.098
66899SOL    HW2 2595   3.847   4.555  12.174
66900SOL     OW 2596   4.513   4.614   6.611
66900SOL    HW1 2597   4.496   4.674   6.684
66900SOL    HW2 2598   4.451   4.542   6.624
66901SOL     OW 2599  10.025  14.446  10.308
66901SOL    HW1 2600  10.076  14.487  10.378
66901SOL    HW2 2601   9.934  14.454  10.338
66902SOL     OW 2602  13.459   4.892  10.023
66902SOL    HW1 2603  13.462   4.899  10.118
66902SOL    HW2 2604  13.378   4.936   9.998
66903SOL     OW 2605   0.201   8.644   3.103
66903SOL    HW1 2606   0.192   8.581   3.175
66903SOL    HW2 2607   0.233   8.592   3.030
66904SOL     OW 2608  13.493  10.184   4.920
66904SOL    HW1 2609  13.456  10.219   5.002
66904SOL    HW2 2610  13.429  10.206   4.853
66905SOL     OW 2611  11.025  12.499   2.575
66905SOL    HW1 2612  11.118  12.506   2.598
66905SOL    HW2 2613  11.001  12.587   2.547
66906SOL     OW 2614  12.039   4.441   2.574
66906SOL    HW1 2615  11.955   4.458   2.616
66906SOL    HW2 2616  12.043   4.505   2.503
66907SOL     OW 2617   3.460   8.910  14.424
66907SOL    HW1 2618   3.538   8.949  14.463
66907SOL    HW2 2619   3.492   8.837  14.371
66908SOL     OW 2620  12.156  13.689  11.500
66908SOL    HW1 2621  12.092  13.752  11.534
66908SOL    HW2 2622  12.157  13.704  11.406
66909SOL     OW 2623   8.259   6.952  10.506
66909SOL    HW1 2624   8.340   6.921  10.464
66909SOL    HW2 2625   8.289   7.001  10.582
66910SOL     OW 2626   3.117   1.878   7.016
66910SOL    HW1 2627   3.177   1.822   6.968
66910SOL    HW2 2628   3.036   1.827   7.022
66911SOL     OW 2629  11.441   2.259   7.008
66911SOL    HW1 2630  11.386   2.198   6.959
66911SOL    HW2 2631  11.524   2.261   6.959
66912SOL     OW 2632   2.059  10.422   7.581
66912SOL    HW1 2633   2.076  10.489   7.515
66912SOL    HW2 2634   2.096  10.341   7.544
66913SOL     OW 2635   2.101   0.160   4.593
66913SOL    HW1 2636   2.171   0.193   4.536
66913SOL    HW2 2637   2.146   0.116   4.665
66914SOL     OW 2638   8.172   6.123   8.620
66914SOL    HW1 2639   8.245   6.062   8.624
66914SOL    HW2 2640   8.119   6.093   8.546
66915SOL     OW 2641   5.878   7.418   9.687
66915SOL    HW1 2642   5.827   7.356   9.636
66915SOL    HW2 2643   5.893   7.374   9.770
66916SOL     OW 2644  14.086   9.342   9.683
66916SOL    HW1 2645  14.095   9.382   9.596
66916SOL    HW2 2646  13.997   9.306   9.684
66917SOL     OW 2647   7.479  11.123  12.942
66917SOL    HW1 2648   7.425  11.064  12.996
66917SOL    HW2 2649   7.516  11.067  12.874
66918SOL     OW 2650  13.574   6.746  11.556
66918SOL    HW1 2651  13.658   6.711  11.584
66918SOL    HW2 2652  13.593   6.835  11.527
66919SOL     OW 2653   8.274  14.862   4.101
66919SOL    HW1 2654   8.315   0.012   4.185
66919SOL    HW2 2655   8.183   0.020   4.111
66920SOL     OW 2656   9.554   9.852  11.603
66920SOL    HW1 2657   9.551   9.945  11.580
66920SOL    HW2 2658   9.570   9.851  11.698
66921SOL     OW 2659   4.429  12.987  11.653
66921SOL    HW1 2660   4.512  12.990  11.606
66921SOL    HW2 2661   4.381  13.064  11.622
66922SOL     OW 2662  12.931   3.689  12.460
66922SOL    HW1 2663  12.859   3.753  12.460
66922SOL    HW2 2664  12.960   3.686  12.551
66923SOL     OW 2665   9.762   2.298  10.332
66923SOL    HW1 2666   9.825   2.280  10.262
66923SOL    HW2 2667   9.699   2.226  10.327
66924SOL     OW 2668  11.698   1.110   6.251
66924SOL    HW1 2669  11.756   1.079   6.181
66924SOL    HW2 2670  11.610   1.103   6.213
66925SOL     OW 2671   3.464   4.928   1.329
66925SOL    HW1 2672   3.498   4.926   1.240
66925SOL    HW2 2673   3.370   4.910   1.320
66926SOL     OW 2674   3.515  10.153   7.134
66926SOL    HW1 2675   3.518  10.238   7.091
66926SOL    HW2 2676   3.605  10.121   7.133
66927SOL     OW 2677   7.844  11.960   7.726
66927SOL    HW1 2678   7.864  11.872   7.693
66927SOL    HW2 2679   7.786  11.997   7.660
66928SOL     OW 2680   4.229  13.592   5.066
66928SOL    HW1 2681   4.204  13.603   4.975
66928SOL    HW2 2682   4.146  13.586   5.114
66929SOL     OW 2683   0.632   7.025   1.615
66929SOL    HW1 2684   0.628   7.029   1.711
66929SOL    HW2 2685   0.599   7.110   1.586
66930SOL     OW 2686   0.102   6.293   0.121
66930SOL    HW1 2687   0.054   6.300   0.038
66930SOL    HW2 2688   0.191   6.322   0.100
66931SOL     OW 2689   9.615  10.099  10.690
66931SOL    HW1 2690   9.592  10.014  10.652
66931SOL    HW2 2691   9.533  10.132  10.727
66932SOL     OW 2692  11.953   1.292   2.315
66932SOL    HW1 2693  12.032   1.267   2.266
66932SOL    HW2 2694  11.884   1.296   2.249
66933SOL     OW 2695  12.046  12.666   9.951
66933SOL    HW1 2696  12.046  12.693   9.859
66933SOL    HW2 2697  12.114  12.719   9.991
66934SOL     OW 2698   4.420  10.090  11.999
66934SOL    HW1 2699   4.327  10.091  12.021
66934SOL    HW2 2700   4.438   9.999  11.975
66935SOL     OW 2701  12.768   4.464   0.937
66935SOL    HW1 2702  12.758   4.416   1.019
66935SOL    HW2 2703  12.755   4.556   0.960
66936SOL     OW 2704   5.550   6.129   9.472
66936SOL    HW1 2705   5.547   6.042   9.432
66936SOL    HW2 2706   5.460   6.161   9.465
66937SOL     OW 2707  12.335   8.376   0.038
66937SOL    HW1 2708  12.245   8.347   0.026
66937SOL    HW2 2709  12.350   8.440  14.838
66938SOL     OW 2710   6.262   4.245  14.354
66938SOL    HW1 2711   6.296   4.332  14.375
66938SOL    HW2 2712   6.315   4.185  14.406
66939SOL     OW 2713   3.841  11.978  12.130
66939SOL    HW1 2714   3.908  12.003  12.194
66939SOL    HW2 2715   3.796  11.904  12.172
66940SOL     OW 2716  13.951   1.308  12.173
66940SOL    HW1 2717  13.935   1.242  12.106
66940SOL    HW2 2718  13.880   1.298  12.236
66941SOL     OW 2719   7.247   9.327   5.472
66941SOL    HW1 2720   7.308   9.258   5.446
66941SOL    HW2 2721   7.286   9.364   5.551
66942SOL     OW 2722  13.683   1.202   5.458
66942SOL    HW1 2723  13.636   1.134   5.409
66942SOL    HW2 2724  13.634   1.210   5.540
66943SOL     OW 2725   6.553   7.372  12.795
66943SOL    HW1 2726   6.601   7.300  12.753
66943SOL    HW2 2727   6.618   7.417  12.848
66944SOL     OW 2728  11.323  11.200   2.444
66944SOL    HW1 2729  11.276  11.221   2.363
66944SOL    HW2 2730  11.309  11.276   2.501
66945SOL     OW 2731   4.050  14.272   3.925
66945SOL    HW1 2732   4.058  14.346   3.864
66945SOL    HW2 2733   4.108  14.206   3.888
66946SOL     OW 2734  13.853   8.120   3.301
66946SOL    HW1 2735  13.813   8.166   3.227
66946SOL    HW2 2736  13.779   8.095   3.356
66947SOL     OW 2737   9.881   1.835  12.682
66947SOL    HW1 2738   9.811   1.897  12.701
66947SOL    HW2 2739   9.921   1.816  12.767
66948SOL     OW 2740  13.868   8.758  12.904
66948SOL    HW1 2741  13.831   8.795  12.824
66948SOL    HW2 2742  13.799   8.770  12.970
66949SOL     OW 2743  13.408   9.596   9.387
66949SOL    HW1 2744  13.420   9.664   9.320
66949SOL    HW2 2745  13.403   9.645   9.470
66950SOL     OW 2746   3.613  12.733   2.130
66950SOL    HW1 2747   3.667  12.766   2.202
66950SOL    HW2 2748   3.580  12.812   2.087
66951SOL     OW 2749   8.219   9.510  11.989
66951SOL    HW1 2750   8.154   9.579  12.001
66951SOL    HW2 2751   8.303   9.555  11.987
66952SOL     OW 2752  10.889   2.448   7.581
66952SOL    HW1 2753  10.938   2.402   7.649
66952SOL    HW2 2754  10.898   2.393   7.504
66953SOL     OW 2755  12.907   9.803  13.870
66953SOL    HW1 2756  12.847   9.742  13.912
66953SOL    HW2 2757  12.970   9.748  13.823
66954SOL     OW 2758   7.394   7.636   5.193
66954SOL    HW1 2759   7.482   7.605   5.169
66954SOL    HW2 2760   7.337   7.562   5.172
66955SOL     OW 2761   0.613   8.781   0.599
66955SOL    HW1 2762   0.688   8.831   0.567
66955SOL    HW2 2763   0.537   8.821   0.557
66956SOL     OW 2764  12.462   7.449   0.667
66956SOL    HW1 2765  12.511   7.372   0.636
66956SOL    HW2 2766  12.475   7.448   0.762
66957SOL     OW 2767   1.662   3.008   8.247
66957SOL    HW1 2768   1.720   2.966   8.184
66957SOL    HW2 2769   1.574   2.993   8.213
66958SOL     OW 2770   4.526  14.389   0.189
66958SOL    HW1 2771   4.465  14.315   0.200
66958SOL    HW2 2772   4.603  14.364   0.241
66959SOL     OW 2773  14.698   6.125   5.528
66959SOL    HW1 2774  14.733   6.123   5.618
66959SOL    HW2 2775  14.625   6.187   5.532
66960SOL     OW 2776   8.417   7.913   4.095
66960SOL    HW1 2777   8.400   7.819   4.087
66960SOL    HW2 2778   8.332   7.950   4.118
66961SOL     OW 2779  14.199   8.319   4.346
66961SOL    HW1 2780  14.197   8.286   4.257
66961SOL    HW2 2781  14.114   8.362   4.358
66962SOL     OW 2782   5.450   1.980   2.837
66962SOL    HW1 2783   5.532   1.984   2.788
66962SOL    HW2 2784   5.427   2.072   2.853
66963SOL     OW 2785   7.060   8.592   3.302
66963SOL    HW1 2786   6.995   8.638   3.357
66963SOL    HW2 2787   7.053   8.500   3.328
66964SOL     OW 2788  10.794  12.983  14.460
66964SOL    HW1 2789  10.747  13.065  14.442
66964SOL    HW2 2790  10.834  12.960  14.376
66965SOL     OW 2791   7.903   3.630   3.518
66965SOL    HW1 2792   7.907   3.534   3.517
66965SOL    HW2 2793   7.981   3.656   3.567
66966SOL     OW 2794   3.205  14.595   1.603
66966SOL    HW1 2795   3.244  14.512   1.633
66966SOL    HW2 2796   3.137  14.568   1.541
66967SOL     OW 2797   5.950   3.147  11.022
66967SOL    HW1 2798   5.981   3.129  11.111
66967SOL    HW2 2799   6.030   3.166  10.973
66968SOL     OW 2800  14.536   3.266   9.293
66968SOL    HW1 2801  14.459   3.300   9.247
66968SOL    HW2 2802  14.552   3.180   9.252
66969SOL     OW 2803   8.849   5.235   3.250
66969SOL    HW1 2804   8.901   5.170   3.203
66969SOL    HW2 2805   8.765   5.193   3.265
66970SOL     OW 2806   5.474   3.211   2.447
66970SOL    HW1 2807   5.400   3.203   2.506
66970SOL    HW2 2808   5.518   3.125   2.452
66971SOL     OW 2809   4.335   2.989  13.856
66971SOL    HW1 2810   4.408   2.956  13.908
66971SOL    HW2 2811   4.375   3.015  13.773
66972SOL     OW 2812  13.329  12.524  10.515
66972SOL    HW1 2813  13.256  12.555  10.462
66972SOL    HW2 2814  13.295  12.523  10.605
66973SOL     OW 2815   9.762   2.315   6.146
66973SOL    HW1 2816   9.856   2.318   6.165
66973SOL    HW2 2817   9.753   2.248   6.079
66974SOL     OW 2818   7.061   6.789   4.148
66974SOL    HW1 2819   6.998   6.720   4.170
66974SOL    HW2 2820   7.006   6.863   4.119
66975SOL     OW 2821   0.632   3.143   3.577
66975SOL    HW1 2822   0.717   3.147   3.621
66975SOL    HW2 2823   0.652   3.148   3.484
66976SOL     OW 2824   3.467   8.168  12.883
66976SOL    HW1 2825   3.458   8.260  12.905
66976SOL    HW2 2826   3.532   8.166  12.813
66977SOL     OW 2827  11.810  14.232   5.581
66977SOL    HW1 2828  11.787  14.315   5.539
66977SOL    HW2 2829  11.837  14.257   5.670
66978SOL     OW 2830   6.949   8.687   1.583
66978SOL    HW1 2831   6.932   8.633   1.660
66978SOL    HW2 2832   6.876   8.667   1.524
66979SOL     OW 2833  10.234   2.109   5.440
66979SOL    HW1 2834  10.169   2.169   5.477
66979SOL    HW2 2835  10.182   2.037   5.404
66980SOL     OW 2836  11.531   1.595   6.914
66980SOL    HW1 2837  11.493   1.520   6.960
66980SOL    HW2 2838  11.547   1.563   6.825
66981SOL     OW 2839   0.921  11.732   9.898
66981SOL    HW1 2840   0.948  11.770   9.814
66981SOL    HW2 2841   0.828  11.755   9.906
66982SOL     OW 2842  13.988  12.554   1.068
66982SOL    HW1 2843  13.897  12.525   1.066
66982SOL    HW2 2844  13.989  12.635   1.017
66983SOL     OW 2845  12.361  10.423   7.424
66983SOL    HW1 2846  12.340  10.399   7.515
66983SOL    HW2 2847  12.444  10.378   7.406
66984SOL     OW 2848   4.986  12.478  13.007
66984SOL    HW1 2849   4.953  12.550  12.953
66984SOL    HW2 2850   5.081  12.482  12.997
66985SOL     OW 2851   3.234   7.504   4.358
66985SOL    HW1 2852   3.208   7.493   4.450
66985SOL    HW2 2853   3.214   7.595   4.339
66986SOL     OW 2854   1.448   3.932   6.901
66986SOL    HW1 2855   1.531   3.980   6.899
66986SOL    HW2 2856   1.381   3.999   6.889
66987SOL     OW 2857   0.791   1.484   7.876
66987SOL    HW1 2858   0.717   1.538   7.847
66987SOL    HW2 2859   0.750   1.402   7.906
66988SOL     OW 2860   2.430   4.317   7.617
66988SOL    HW1 2861   2.359   4.356   7.667
66988SOL    HW2 2862   2.482   4.392   7.588
66989SOL     OW 2863   7.240   2.179   5.206
66989SOL    HW1 2864   7.227   2.207   5.297
66989SOL    HW2 2865   7.225   2.259   5.154
66990SOL     OW 2866   8.783   4.637  13.305
66990SOL    HW1 2867   8.795   4.545  13.328
66990SOL    HW2 2868   8.871   4.668  13.284
66991SOL     OW 2869   8.371  12.060   4.303
66991SOL    HW1 2870   8.320  12.138   4.324
66991SOL    HW2 2871   8.400  12.073   4.213
66992SOL     OW 2872   0.410   5.906   5.086
66992SOL    HW1 2873   0.431   5.891   5.179
66992SOL    HW2 2874   0.320   5.937   5.086
66993SOL     OW 2875   4.476  11.021   9.638
66993SOL    HW1 2876   4.547  11.022   9.703
66993SOL    HW2 2877   4.462  10.928   9.620
66994SOL     OW 2878  12.596   2.712   7.743
66994SOL    HW1 2879  12.678   2.740   7.781
66994SOL    HW2 2880  12.606   2.728   7.649
66995SOL     OW 2881   4.021   1.701   8.000
66995SOL    HW1 2882   3.997   1.648   7.924
66995SOL    HW2 2883   3.948   1.691   8.060
66996SOL     OW 2884   1.139   5.692   8.133
66996SOL    HW1 2885   1.071   5.754   8.107
66996SOL    HW2 2886   1.106   5.651   8.213
66997SOL     OW 2887  12.988   9.985   3.448
66997SOL    HW1 2888  13.052   9.966   3.517
66997SOL    HW2 2889  12.970  10.078   3.457
66998SOL     OW 2890   8.541   8.365   5.777
66998SOL    HW1 2891   8.537   8.269   5.782
66998SOL    HW2 2892   8.601   8.390   5.847
66999SOL     OW 2893   8.274  11.168   5.134
66999SOL    HW1 2894   8.264  11.213   5.050
66999SOL    HW2 2895   8.216  11.092   5.128
67000SOL     OW 2896   6.671   2.353   8.644
67000SOL    HW1 2897   6.734   2.419   8.614
67000SOL    HW2 2898   6.587   2.398   8.644
67001SOL     OW 2899   1.419   4.104   9.682
67001SOL    HW1 2900   1.379   4.187   9.656
67001SOL    HW2 2901   1.401   4.045   9.609
67002SOL     OW 2902   7.363   0.962  11.405
67002SOL    HW1 2903   7.319   1.001  11.481
67002SOL    HW2 2904   7.364   1.032  11.340
67003SOL     OW 2905   4.587   3.580   6.076
67003SOL    HW1 2906   4.580   3.649   6.142
67003SOL    HW2 2907   4.570   3.499   6.124
67004SOL     OW 2908  14.147   2.585   7.422
67004SOL    HW1 2909  14.129   2.675   7.450
67004SOL    HW2 2910  14.242   2.578   7.425
67005SOL     OW 2911   3.919   0.550  11.151
67005SOL    HW1 2912   3.984   0.618  11.170
67005SOL    HW2 2913   3.867   0.544  11.231
67006SOL     OW 2914   4.469  10.845   9.868
67006SOL    HW1 2915   4.479  10.809   9.956
67006SOL    HW2 2916   4.392  10.901   9.873
67007SOL     OW 2917  11.529   8.298  13.717
67007SOL    HW1 2918  11.539   8.356  13.642
67007SOL    HW2 2919  11.605   8.240  13.714
67008SOL     OW 2920   1.730   7.260   2.954
67008SOL    HW1 2921   1.791   7.291   2.887
67008SOL    HW2 2922   1.785   7.225   3.023
67009SOL     OW 2923   0.676  14.622   3.143
67009SOL    HW1 2924   0.769  14.607   3.125
67009SOL    HW2 2925   0.632  14.603   3.060
67010SOL     OW 2926  14.758   1.720  10.492
67010SOL    HW1 2927  14.852   1.709  10.504
67010SOL    HW2 2928  14.743   1.703  10.399
67011SOL     OW 2929   9.799   3.722   5.885
67011SOL    HW1 2930   9.859   3.691   5.953
67011SOL    HW2 2931   9.727   3.658   5.885
67012SOL     OW 2932   7.143   7.007   9.375
67012SOL    HW1 2933   7.100   6.959   9.304
67012SOL    HW2 2934   7.074   7.018   9.440
67013SOL     OW 2935   1.501  11.277   7.618
67013SOL    HW1 2936   1.450  11.217   7.672
67013SOL    HW2 2937   1.493  11.243   7.529
67014SOL     OW 2938   0.308   6.504  12.386
67014SOL    HW1 2939   0.214   6.486  12.390
67014SOL    HW2 2940   0.332   6.486  12.295
67015SOL     OW 2941  14.064   1.143   5.771
67015SOL    HW1 2942  14.007   1.160   5.846
67015SOL    HW2 2943  14.012   1.088   5.712
67016SOL     OW 2944  11.464   2.813   8.120
67016SOL    HW1 2945  11.373   2.783   8.118
67016SOL    HW2 2946  11.458   2.907   8.103
67017SOL     OW 2947   6.262   6.904   3.710
67017SOL    HW1 2948   6.228   6.818   3.734
67017SOL    HW2 2949   6.219   6.925   3.627
67018SOL     OW 2950   1.494   3.598   5.817
67018SOL    HW1 2951   1.420   3.635   5.865
67018SOL    HW2 2952   1.509   3.513   5.857
67019SOL     OW 2953   3.661   3.303   8.781
67019SOL    HW1 2954   3.637   3.344   8.698
67019SOL    HW2 2955   3.757   3.300   8.779
67020SOL     OW 2956   6.816  11.040   5.517
67020SOL    HW1 2957   6.845  11.021   5.606
67020SOL    HW2 2958   6.727  11.006   5.512
67021SOL     OW 2959   1.280   2.676  14.661
67021SOL    HW1 2960   1.233   2.760  14.660
67021SOL    HW2 2961   1.212   2.611  14.640
67022SOL     OW 2962   3.365   1.539  10.506
67022SOL    HW1 2963   3.428   1.470  10.525
67022SOL    HW2 2964   3.299   1.531  10.575
67023SOL     OW 2965  12.430   0.569  14.617
67023SOL    HW1 2966  12.441   0.634  14.547
67023SOL    HW2 2967  12.481   0.494  14.588
67024SOL     OW 2968   1.243   0.170   8.589
67024SOL    HW1 2969   1.329   0.203   8.563
67024SOL    HW2 2970   1.233   0.198   8.680
67025SOL     OW 2971   5.904  11.088  13.685
67025SOL    HW1 2972   5.809  11.073  13.687
67025SOL    HW2 2973   5.918  11.161  13.744
67026SOL     OW 2974  12.311   7.774   7.218
67026SOL    HW1 2975  12.366   7.737   7.287
67026SOL    HW2 2976  12.296   7.701   7.158
67027SOL     OW 2977  10.974   8.627   9.916
67027SOL    HW1 2978  11.005   8.709   9.955
67027SOL    HW2 2979  11.037   8.608   9.847
67028SOL     OW 2980   0.908   6.832   1.137
67028SOL    HW1 2981   0.923   6.771   1.065
67028SOL    HW2 2982   0.857   6.782   1.201
67029SOL     OW 2983   6.423   7.002  12.598
67029SOL    HW1 2984   6.442   6.950  12.676
67029SOL    HW2 2985   6.340   7.046  12.618
67030SOL     OW 2986   2.197   3.240   6.823
67030SOL    HW1 2987   2.245   3.163   6.794
67030SOL    HW2 2988   2.199   3.236   6.918
67031SOL     OW 2989  10.391  11.317   4.318
67031SOL    HW1 2990  10.358  11.279   4.399
67031SOL    HW2 2991  10.441  11.394   4.346
67032SOL     OW 2992  11.377   8.025   2.486
67032SOL    HW1 2993  11.391   7.933   2.463
67032SOL    HW2 2994  11.439   8.042   2.557
67033SOL     OW 2995  10.541  13.154   3.984
67033SOL    HW1 2996  10.492  13.231   3.955
67033SOL    HW2 2997  10.530  13.090   3.914
67034SOL     OW 2998  14.327   1.159   2.102
67034SOL    HW1 2999  14.263   1.196   2.042
67034SOL    HW2 3000  14.312   1.065   2.099
67035SOL     OW 3001   7.992  11.353   0.027
67035SOL    HW1 3002   8.000  11.289  14.827
67035SOL    HW2 3003   7.898  11.374   0.030
67036SOL     OW 3004   0.438   4.428   4.936
67036SOL    HW1 3005   0.358   4.478   4.953
67036SOL    HW2 3006   0.502   4.493   4.908
67037SOL     OW 3007  13.676   7.669   1.057
67037SOL    HW1 3008  13.629   7.672   0.973
67037SOL    HW2 3009  13.688   7.576   1.075
67038SOL     OW 3010   5.086   6.073   3.189
67038SOL    HW1 3011   5.085   6.012   3.263
67038SOL    HW2 3012   5.171   6.060   3.148
67039SOL     OW 3013   2.174   9.914   3.702
67039SOL    HW1 3014   2.257   9.896   3.745
67039SOL    HW2 3015   2.197   9.929   3.611
67040SOL     OW 3016   9.625  13.557   2.338
67040SOL    HW1 3017   9.711  13.524   2.365
67040SOL    HW2 3018   9.562  13.501   2.384
67041SOL     OW 3019   5.883  14.720   2.186
67041SOL    HW1 3020   5.899  14.771   2.265
67041SOL    HW2 3021   5.889  14.783   2.115
67042SOL     OW 3022   4.371  11.002   0.599
67042SOL    HW1 3023   4.398  11.042   0.517
67042SOL    HW2 3024   4.311  10.932   0.573
67043SOL     OW 3025   5.171   6.998   0.109
67043SOL    HW1 3026   5.080   7.028   0.104
67043SOL    HW2 3027   5.197   7.014   0.199
67044SOL     OW 3028   8.896  13.416   6.790
67044SOL    HW1 3029   8.820  13.359   6.777
67044SOL    HW2 3030   8.969  13.370   6.748
67045SOL     OW 3031  11.781   2.261  14.055
67045SOL    HW1 3032  11.811   2.347  14.085
67045SOL    HW2 3033  11.819   2.199  14.117
67046SOL     OW 3034   4.001   8.252   6.981
67046SOL    HW1 3035   3.976   8.244   7.073
67046SOL    HW2 3036   3.928   8.299   6.941
67047SOL     OW 3037  12.357  10.275  14.387
67047SOL    HW1 3038  12.273  10.229  14.381
67047SOL    HW2 3039  12.422  10.206  14.377
67048SOL     OW 3040  14.664   0.649   3.268
67048SOL    HW1 3041  14.609   0.581   3.231
67048SOL    HW2 3042  14.729   0.602   3.321
67049SOL     OW 3043  13.383   4.201  11.742
67049SOL    HW1 3044  13.476   4.180  11.731
67049SOL    HW2 3045  13.364   4.176  11.832
67050SOL     OW 3046   8.796   5.242  11.853
67050SOL    HW1 3047   8.755   5.170  11.805
67050SOL    HW2 3048   8.749   5.320  11.822
67051SOL     OW 3049   0.743  10.161  12.063
67051SOL    HW1 3050   0.679  10.229  12.086
67051SOL    HW2 3051   0.710  10.082  12.105
67052SOL     OW 3052  14.259   1.635   6.849
67052SOL    HW1 3053  14.315   1.598   6.917
67052SOL    HW2 3054  14.174   1.592   6.860
67053SOL     OW 3055   6.383   3.420  14.858
67053SOL    HW1 3056   6.297   3.425  14.816
67053SOL    HW2 3057   6.373   3.354   0.057
67054SOL     OW 3058   1.229  13.191   4.415
67054SOL    HW1 3059   1.252  13.243   4.338
67054SOL    HW2 3060   1.274  13.234   4.488
67055SOL     OW 3061   9.006   5.080   3.064
67055SOL    HW1 3062   8.982   4.997   3.105
67055SOL    HW2 3063   9.095   5.066   3.031
67056SOL     OW 3064  12.246   5.865  14.221
67056SOL    HW1 3065  12.180   5.898  14.161
67056SOL    HW2 3066  12.229   5.910  14.304
67057SOL     OW 3067  11.334   7.643  10.951
67057SOL    HW1 3068  11.327   7.568  10.891
67057SOL    HW2 3069  11.247   7.683  10.950
67058SOL     OW 3070   4.340  11.043   5.583
67058SOL    HW1 3071   4.387  10.974   5.536
67058SOL    HW2 3072   4.308  11.000   5.663
67059SOL     OW 3073   5.383   3.427   0.787
67059SOL    HW1 3074   5.357   3.362   0.852
67059SOL    HW2 3075   5.479   3.421   0.784
67060SOL     OW 3076   8.922   5.258   2.558
67060SOL    HW1 3077   8.999   5.243   2.613
67060SOL    HW2 3078   8.854   5.204   2.598
67061SOL     OW 3079   2.215  14.533  14.502
67061SOL    HW1 3080   2.135  14.504  14.545
67061SOL    HW2 3081   2.217  14.628  14.517
67062SOL     OW 3082  10.372   7.399   8.315
67062SOL    HW1 3083  10.466   7.394   8.294
67062SOL    HW2 3084  10.365   7.359   8.401
67063SOL     OW 3085   4.720  12.832   1.313
67063SOL    HW1 3086   4.688  12.805   1.227
67063SOL    HW2 3087   4.685  12.920   1.324
67064SOL     OW 3088   4.460  12.412   4.369
67064SOL    HW1 3089   4.551  12.389   4.349
67064SOL    HW2 3090   4.439  12.362   4.447
67065SOL     OW 3091   2.261   9.566   5.573
67065SOL    HW1 3092   2.249   9.476   5.544
67065SOL    HW2 3093   2.183   9.585   5.626
67066SOL     OW 3094   2.168   0.150   5.374
67066SOL    HW1 3095   2.155   0.057   5.358
67066SOL    HW2 3096   2.211   0.182   5.295
67067SOL     OW 3097   2.195   5.113   3.944
67067SOL    HW1 3098   2.139   5.070   3.880
67067SOL    HW2 3099   2.219   5.197   3.904
67068SOL     OW 3100  10.613  11.746  10.004
67068SOL    HW1 3101  10.590  11.738  10.097
67068SOL    HW2 3102  10.571  11.671   9.962
67069SOL     OW 3103   0.688   0.360   0.848
67069SOL    HW1 3104   0.730   0.304   0.914
67069SOL    HW2 3105   0.688   0.307   0.769
67070SOL     OW 3106   8.684   9.485   6.205
67070SOL    HW1 3107   8.649   9.507   6.291
67070SOL    HW2 3108   8.610   9.447   6.158
67071SOL     OW 3109   6.718   8.997   3.546
67071SOL    HW1 3110   6.674   8.934   3.489
67071SOL    HW2 3111   6.783   8.946   3.593
67072SOL     OW 3112   7.857   9.135  14.784
67072SOL    HW1 3113   7.772   9.115  14.822
67072SOL    HW2 3114   7.874   9.226  14.807
67073SOL     OW 3115  13.955   0.951   8.520
67073SOL    HW1 3116  14.027   0.914   8.469
67073SOL    HW2 3117  13.950   1.042   8.490
67074SOL     OW 3118   0.372   3.560   2.877
67074SOL    HW1 3119   0.419   3.478   2.867
67074SOL    HW2 3120   0.280   3.538   2.859
67075SOL     OW 3121  11.778   3.694   7.652
67075SOL    HW1 3122  11.743   3.773   7.610
67075SOL    HW2 3123  11.766   3.625   7.587
67076SOL     OW 3124  14.158   6.181   6.297
67076SOL    HW1 3125  14.119   6.266   6.319
67076SOL    HW2 3126  14.245   6.203   6.263
67077SOL     OW 3127   7.642  13.193   1.492
67077SOL    HW1 3128   7.548  13.201   1.511
67077SOL    HW2 3129   7.646  13.140   1.412
67078SOL     OW 3130  12.858   2.653  12.596
67078SOL    HW1 3131  12.878   2.581  12.536
67078SOL    HW2 3132  12.864   2.731  12.542
67079SOL     OW 3133  10.489  14.849   3.026
67079SOL    HW1 3134  10.451   0.049   3.079
67079SOL    HW2 3135  10.425  14.835   2.956
67080SOL     OW 3136   1.934   8.697   0.251
67080SOL    HW1 3137   1.927   8.604   0.271
67080SOL    HW2 3138   2.023   8.721   0.279
67081SOL     OW 3139  12.690  12.128   8.356
67081SOL    HW1 3140  12.684  12.069   8.282
67081SOL    HW2 3141  12.689  12.216   8.318
67082SOL     OW 3142   7.271   3.478   3.241
67082SOL    HW1 3143   7.232   3.452   3.157
67082SOL    HW2 3144   7.275   3.574   3.236
67083SOL     OW 3145  13.158   7.593  14.145
67083SOL    HW1 3146  13.117   7.509  14.123
67083SOL    HW2 3147  13.174   7.634  14.060
67084SOL     OW 3148   8.580   9.015   3.199
67084SOL    HW1 3149   8.597   8.992   3.107
67084SOL    HW2 3150   8.635   9.092   3.215
67085SOL     OW 3151   8.561   7.343   4.338
67085SOL    HW1 3152   8.581   7.285   4.411
67085SOL    HW2 3153   8.616   7.420   4.353
67086SOL     OW 3154  12.259  12.798  13.367
67086SOL    HW1 3155  12.247  12.719  13.316
67086SOL    HW2 3156  12.182  12.803  13.424
67087SOL     OW 3157  11.193   0.592   8.954
67087SOL    HW1 3158  11.162   0.502   8.969
67087SOL    HW2 3159  11.268   0.582   8.895
67088SOL     OW 3160   6.607   5.182   9.732
67088SOL    HW1 3161   6.647   5.122   9.795
67088SOL    HW2 3162   6.659   5.262   9.740
67089SOL     OW 3163   3.006   5.488   0.359
67089SOL    HW1 3164   3.062   5.489   0.281
67089SOL    HW2 3165   2.933   5.430   0.335
67090SOL     OW 3166   6.707   8.398  12.927
67090SOL    HW1 3167   6.724   8.321  12.872
67090SOL    HW2 3168   6.656   8.364  13.000
67091SOL     OW 3169   5.481   8.507  14.483
67091SOL    HW1 3170   5.499   8.520  14.390
67091SOL    HW2 3171   5.392   8.540  14.495
67092SOL     OW 3172   9.985  11.517   2.039
67092SOL    HW1 3173  10.017  11.470   2.116
67092SOL    HW2 3174   9.913  11.463   2.006
67093SOL     OW 3175   1.320   9.290   7.264
67093SOL    HW1 3176   1.244   9.325   7.310
67093SOL    HW2 3177   1.339   9.208   7.309
67094SOL     OW 3178   8.912   0.117   3.889
67094SOL    HW1 3179   8.886   0.104   3.798
67094SOL    HW2 3180   8.858   0.190   3.920
67095SOL     OW 3181   9.562  11.636   1.104
67095SOL    HW1 3182   9.473  11.647   1.135
67095SOL    HW2 3183   9.557  11.564   1.041
67096SOL     OW 3184   5.479   3.066   0.783
67096SOL    HW1 3185   5.554   3.082   0.839
67096SOL    HW2 3186   5.405   3.056   0.843
67097SOL     OW 3187   2.946   3.734   9.212
67097SOL    HW1 3188   2.956   3.639   9.211
67097SOL    HW2 3189   2.875   3.750   9.273
67098SOL     OW 3190   4.931   0.711  13.623
67098SOL    HW1 3191   4.912   0.640  13.684
67098SOL    HW2 3192   4.969   0.780  13.679
67099SOL     OW 3193   4.990  10.674   7.101
67099SOL    HW1 3194   4.984  10.751   7.158
67099SOL    HW2 3195   5.084  10.663   7.086
67100SOL     OW 3196   8.705  12.186   4.795
67100SOL    HW1 3197   8.740  12.139   4.720
67100SOL    HW2 3198   8.776  12.187   4.859
67101SOL     OW 3199  13.973   2.772   6.833
67101SOL    HW1 3200  13.968   2.680   6.806
67101SOL    HW2 3201  13.909   2.817   6.778
67102SOL     OW 3202   2.732  12.234  13.391
67102SOL    HW1 3203   2.732  12.193  13.305
67102SOL    HW2 3204   2.751  12.163  13.452
67103SOL     OW 3205   6.225   6.599   0.229
67103SOL    HW1 3206   6.149   6.615   0.285
67103SOL    HW2 3207   6.229   6.504   0.220
67104SOL     OW 3208   2.678   4.138   8.277
67104SOL    HW1 3209   2.699   4.102   8.191
67104SOL    HW2 3210   2.601   4.193   8.262
67105SOL     OW 3211   6.424   7.626   8.703
67105SOL    HW1 3212   6.383   7.626   8.617
67105SOL    HW2 3213   6.457   7.536   8.714
67106SOL     OW 3214  14.103   4.251  11.522
67106SOL    HW1 3215  14.145   4.223  11.603
67106SOL    HW2 3216  14.169   4.302  11.476
67107SOL     OW 3217   5.686   2.682   2.011
67107SOL    HW1 3218   5.613   2.714   2.064
67107SOL    HW2 3219   5.678   2.729   1.928
67108SOL     OW 3220  14.265   9.026   0.301
67108SOL    HW1 3221  14.179   9.004   0.337
67108SOL    HW2 3222  14.311   8.943   0.294
67109SOL     OW 3223  10.256   0.579  11.960
67109SOL    HW1 3224  10.228   0.501  11.913
67109SOL    HW2 3225  10.201   0.649  11.925
67110SOL     OW 3226  11.910   3.282   1.107
67110SOL    HW1 3227  11.898   3.376   1.121
67110SOL    HW2 3228  12.003   3.266   1.122
67111SOL     OW 3229   0.392   9.981  14.488
67111SOL    HW1 3230   0.441   9.998  14.408
67111SOL    HW2 3231   0.312   9.938  14.459
67112SOL     OW 3232  10.493   2.166   4.266
67112SOL    HW1 3233  10.570   2.153   4.210
67112SOL    HW2 3234  10.430   2.210   4.210
67113SOL     OW 3235  13.978   4.064   1.954
67113SOL    HW1 3236  13.918   4.077   2.028
67113SOL    HW2 3237  13.936   3.996   1.901
67114SOL     OW 3238  12.089   3.045   0.639
67114SOL    HW1 3239  12.076   3.121   0.581
67114SOL    HW2 3240  12.016   2.987   0.619
67115SOL     OW 3241   8.629   1.866   6.118
67115SOL    HW1 3242   8.698   1.826   6.065
67115SOL    HW2 3243   8.610   1.949   6.075
67116SOL     OW 3244  11.350  12.684   2.367
67116SOL    HW1 3245  11.367  12.637   2.448
67116SOL    HW2 3246  11.434  12.686   2.322
67117SOL     OW 3247  13.667   5.907   2.916
67117SOL    HW1 3248  13.596   5.855   2.879
67117SOL    HW2 3249  13.651   5.905   3.011
67118SOL     OW 3250  12.752  10.267   7.969
67118SOL    HW1 3251  12.809  10.229   8.036
67118SOL    HW2 3252  12.716  10.191   7.922
67119SOL     OW 3253  11.810   5.343  10.169
67119SOL    HW1 3254  11.900   5.333  10.200
67119SOL    HW2 3255  11.757   5.326  10.247
67120SOL     OW 3256   2.597  10.194   0.992
67120SOL    HW1 3257   2.546  10.119   1.022
67120SOL    HW2 3258   2.672  10.156   0.947
67121SOL     OW 3259   4.635   9.784   0.878
67121SOL    HW1 3260   4.587   9.703   0.858
67121SOL    HW2 3261   4.587   9.823   0.951
67122SOL     OW 3262  14.773  13.438   5.733
67122SOL    HW1 3263  14.727  13.398   5.659
67122SOL    HW2 3264  14.843  13.490   5.692
67123SOL     OW 3265   5.757   3.754   0.922
67123SOL    HW1 3266   5.667   3.744   0.955
67123SOL    HW2 3267   5.746   3.765   0.828
67124SOL     OW 3268   6.105  13.615  11.298
67124SOL    HW1 3269   6.133  13.690  11.350
67124SOL    HW2 3270   6.012  13.631  11.281
67125SOL     OW 3271   1.831   5.492   7.434
67125SOL    HW1 3272   1.859   5.562   7.493
67125SOL    HW2 3273   1.895   5.422   7.447
67126SOL     OW 3274   4.088   3.999  13.458
67126SOL    HW1 3275   4.042   3.983  13.541
67126SOL    HW2 3276   4.022   3.985  13.391
67127SOL     OW 3277   4.751  11.177   4.299
67127SOL    HW1 3278   4.810  11.171   4.374
67127SOL    HW2 3279   4.771  11.261   4.259
67128SOL     OW 3280  11.945   7.173  13.194
67128SOL    HW1 3281  11.920   7.208  13.109
67128SOL    HW2 3282  12.038   7.151  13.185
67129SOL     OW 3283   9.829  12.750   4.359
67129SOL    HW1 3284   9.856  12.816   4.423
67129SOL    HW2 3285   9.747  12.784   4.323
67130SOL     OW 3286  10.973   9.886  10.071
67130SOL    HW1 3287  11.047   9.890  10.132
67130SOL    HW2 3288  11.004   9.932   9.993
67131SOL     OW 3289   2.828   9.627  14.724
67131SOL    HW1 3290   2.864   9.551  14.771
67131SOL    HW2 3291   2.898   9.651  14.663
67132SOL     OW 3292  14.237   0.378   4.255
67132SOL    HW1 3293  14.184   0.306   4.289
67132SOL    HW2 3294  14.220   0.451   4.315
67133SOL     OW 3295   6.960  10.416   0.358
67133SOL    HW1 3296   6.917  10.356   0.297
67133SOL    HW2 3297   7.032  10.454   0.308
67134SOL     OW 3298  13.132   9.690   0.996
67134SOL    HW1 3299  13.060   9.697   1.058
67134SOL    HW2 3300  13.190   9.763   1.019
67135SOL     OW 3301   4.373   4.222   5.289
67135SOL    HW1 3302   4.328   4.282   5.349
67135SOL    HW2 3303   4.302   4.171   5.249
67136SOL     OW 3304   5.120   3.929  13.694
67136SOL    HW1 3305   5.119   3.897  13.604
67136SOL    HW2 3306   5.109   3.850  13.747
67137SOL     OW 3307  14.784   4.667   3.675
67137SOL    HW1 3308  14.789   4.752   3.719
67137SOL    HW2 3309  14.850   4.613   3.720
67138SOL     OW 3310  11.534   4.426   4.881
67138SOL    HW1 3311  11.443   4.425   4.853
67138SOL    HW2 3312  11.582   4.388   4.807
67139SOL     OW 3313   0.859   5.522  13.032
67139SOL    HW1 3314   0.828   5.478  13.111
67139SOL    HW2 3315   0.953   5.536  13.048
67140SOL     OW 3316   9.790  13.511   7.278
67140SOL    HW1 3317   9.773  13.546   7.366
67140SOL    HW2 3318   9.827  13.424   7.293
67141SOL     OW 3319  12.099   3.768   6.753
67141SOL    HW1 3320  12.175   3.710   6.754
67141SOL    HW2 3321  12.132   3.851   6.717
67142SOL     OW 3322   4.434   3.683  14.326
67142SOL    HW1 3323   4.447   3.649  14.414
67142SOL    HW2 3324   4.346   3.654  14.301
67143SOL     OW 3325   5.108   1.697   2.296
67143SOL    HW1 3326   5.112   1.696   2.200
67143SOL    HW2 3327   5.039   1.634   2.317
67144SOL     OW 3328   0.575   4.747  12.985
67144SOL    HW1 3329   0.671   4.755  12.988
67144SOL    HW2 3330   0.557   4.662  13.026
67145SOL     OW 3331   9.735  14.077  14.784
67145SOL    HW1 3332   9.701  14.162  14.811
67145SOL    HW2 3333   9.695  14.061  14.698
67146SOL     OW 3334  14.194  10.093  13.029
67146SOL    HW1 3335  14.209  10.161  12.964
67146SOL    HW2 3336  14.231  10.127  13.110
67147SOL     OW 3337   2.132   4.158  10.476
67147SOL    HW1 3338   2.119   4.082  10.533
67147SOL    HW2 3339   2.066   4.221  10.505
67148SOL     OW 3340  14.288   2.730   1.100
67148SOL    HW1 3341  14.280   2.724   1.196
67148SOL    HW2 3342  14.227   2.799   1.075
67149SOL     OW 3343   5.763  12.260   3.098
67149SOL    HW1 3344   5.755  12.349   3.063
67149SOL    HW2 3345   5.673  12.234   3.117
67150SOL     OW 3346  11.728   4.923  11.788
67150SOL    HW1 3347  11.691   5.003  11.752
67150SOL    HW2 3348  11.653   4.865  11.799
67151SOL     OW 3349  10.354   2.330  10.502
67151SOL    HW1 3350  10.323   2.251  10.458
67151SOL    HW2 3351  10.437   2.351  10.459
67152SOL     OW 3352   4.288   0.811  14.585
67152SOL    HW1 3353   4.284   0.900  14.621
67152SOL    HW2 3354   4.197   0.791  14.561
67153SOL     OW 3355   1.430  10.095  11.161
67153SOL    HW1 3356   1.504  10.095  11.222
67153SOL    HW2 3357   1.354  10.077  11.215
67154SOL     OW 3358  13.529  13.638   2.380
67154SOL    HW1 3359  13.437  13.661   2.366
67154SOL    HW2 3360  13.578  13.706   2.333
67155SOL     OW 3361  13.059   0.354   7.224
67155SOL    HW1 3362  13.143   0.355   7.270
67155SOL    HW2 3363  13.015   0.274   7.255
67156SOL     OW 3364  11.622  10.677   7.402
67156SOL    HW1 3365  11.595  10.755   7.353
67156SOL    HW2 3366  11.703  10.703   7.446
67157SOL     OW 3367  12.089   5.106   3.058
67157SOL    HW1 3368  12.111   5.075   3.145
67157SOL    HW2 3369  12.023   5.044   3.026
67158SOL     OW 3370   4.699  10.642   1.707
67158SOL    HW1 3371   4.612  10.675   1.685
67158SOL    HW2 3372   4.689  10.547   1.709
67159SOL     OW 3373  12.909   8.400   5.207
67159SOL    HW1 3374  12.925   8.414   5.301
67159SOL    HW2 3375  12.813   8.397   5.199
67160SOL     OW 3376  14.009  13.494   4.916
67160SOL    HW1 3377  14.000  13.536   4.830
67160SOL    HW2 3378  13.933  13.437   4.924
67161SOL     OW 3379  11.671   9.050   5.255
67161SOL    HW1 3380  11.628   9.135   5.247
67161SOL    HW2 3381  11.662   9.027   5.348
67162SOL     OW 3382   2.633   1.666   9.780
67162SOL    HW1 3383   2.654   1.752   9.815
67162SOL    HW2 3384   2.718   1.625   9.763
67163SOL     OW 3385   9.284   2.467  11.680
67163SOL    HW1 3386   9.250   2.404  11.616
67163SOL    HW2 3387   9.206   2.511  11.714
67164SOL     OW 3388   1.456   2.998   9.267
67164SOL    HW1 3389   1.424   2.910   9.287
67164SOL    HW2 3390   1.523   2.985   9.200
67165SOL     OW 3391   0.081   9.935   4.999
67165SOL    HW1 3392   0.030   9.856   4.984
67165SOL    HW2 3393   0.074   9.984   4.916
67166SOL     OW 3394   0.711  13.478   8.886
67166SOL    HW1 3395   0.634  13.511   8.841
67166SOL    HW2 3396   0.678  13.407   8.941
67167SOL     OW 3397   3.640  13.926   9.533
67167SOL    HW1 3398   3.561  13.963   9.573
67167SOL    HW2 3399   3.687  14.002   9.499
67168SOL     OW 3400  11.448   6.185  13.140
67168SOL    HW1 3401  11.502   6.145  13.072
67168SOL    HW2 3402  11.501   6.255  13.176
67169SOL     OW 3403  12.231   4.396  11.147
67169SOL    HW1 3404  12.297   4.380  11.080
67169SOL    HW2 3405  12.229   4.491  11.157
67170SOL     OW 3406  13.020  13.950   5.447
67170SOL    HW1 3407  13.072  14.023   5.414
67170SOL    HW2 3408  12.934  13.961   5.407
67171SOL     OW 3409   8.655  12.944   7.405
67171SOL    HW1 3410   8.582  12.898   7.446
67171SOL    HW2 3411   8.633  13.037   7.415
67172SOL     OW 3412   7.463   0.529  12.905
67172SOL    HW1 3413   7.475   0.615  12.947
67172SOL    HW2 3414   7.424   0.475  12.974
67173SOL     OW 3415   4.331   9.194  10.312
67173SOL    HW1 3416   4.263   9.176  10.377
67173SOL    HW2 3417   4.282   9.220  10.234
67174SOL     OW 3418  12.201   2.006   5.881
67174SOL    HW1 3419  12.155   1.942   5.827
67174SOL    HW2 3420  12.230   2.074   5.819
67175SOL     OW 3421   3.948   6.780   8.983
67175SOL    HW1 3422   4.026   6.827   8.954
67175SOL    HW2 3423   3.881   6.801   8.918
67176SOL     OW 3424   7.272  10.047  10.089
67176SOL    HW1 3425   7.341  10.016  10.030
67176SOL    HW2 3426   7.226   9.968  10.116
67177SOL     OW 3427   8.917   0.131   2.548
67177SOL    HW1 3428   8.926   0.046   2.591
67177SOL    HW2 3429   8.979   0.128   2.476
67178SOL     OW 3430   3.683   0.316   8.731
67178SOL    HW1 3431   3.655   0.225   8.737
67178SOL    HW2 3432   3.765   0.313   8.681
67179SOL     OW 3433   3.248   8.395   6.624
67179SOL    HW1 3434   3.197   8.441   6.557
67179SOL    HW2 3435   3.290   8.465   6.674
67180SOL     OW 3436   7.960  12.378   0.545
67180SOL    HW1 3437   7.947  12.409   0.456
67180SOL    HW2 3438   7.875  12.343   0.571
67181SOL     OW 3439  14.178   8.784  10.063
67181SOL    HW1 3440  14.122   8.860  10.079
67181SOL    HW2 3441  14.265   8.812  10.089
67182SOL     OW 3442   9.874   4.753   0.940
67182SOL    HW1 3443   9.801   4.700   0.973
67182SOL    HW2 3444   9.842   4.843   0.942
67183SOL     OW 3445   5.289   2.577   6.021
67183SOL    HW1 3446   5.332   2.586   5.936
67183SOL    HW2 3447   5.266   2.484   6.027
67184SOL     OW 3448   7.744   6.984  11.367
67184SOL    HW1 3449   7.804   6.909  11.360
67184SOL    HW2 3450   7.801   7.060  11.360
67185SOL     OW 3451  14.757  11.993   5.815
67185SOL    HW1 3452  14.832  11.943   5.848
67185SOL    HW2 3453  14.791  12.082   5.803
67186SOL     OW 3454   8.444   0.992  13.825
67186SOL    HW1 3455   8.520   0.935  13.808
67186SOL    HW2 3456   8.482   1.073  13.857
67187SOL     OW 3457   1.646  14.284  14.422
67187SOL    HW1 3458   1.566  14.251  14.382
67187SOL    HW2 3459   1.712  14.218  14.399
67188SOL     OW 3460   1.499   3.823   0.939
67188SOL    HW1 3461   1.458   3.869   1.012
67188SOL    HW2 3462   1.588   3.807   0.968
67189SOL     OW 3463   6.794   3.047   2.224
67189SOL    HW1 3464   6.772   2.958   2.195
67189SOL    HW2 3465   6.870   3.071   2.171
67190SOL     OW 3466   0.881   6.670  14.328
67190SOL    HW1 3467   0.884   6.587  14.375
67190SOL    HW2 3468   0.917   6.734  14.390
67191SOL     OW 3469   3.945   8.049   1.972
67191SOL    HW1 3470   3.880   8.004   1.919
67191SOL    HW2 3471   3.932   8.142   1.951
67192SOL     OW 3472  12.241   0.117   4.792
67192SOL    HW1 3473  12.202   0.204   4.789
67192SOL    HW2 3474  12.200   0.069   4.720
67193SOL     OW 3475   3.398   8.885  12.720
67193SOL    HW1 3476   3.442   8.929  12.647
67193SOL    HW2 3477   3.442   8.919  12.798
67194SOL     OW 3478   4.227   0.594  12.251
67194SOL    HW1 3479   4.166   0.665  12.232
67194SOL    HW2 3480   4.274   0.580  12.169
67195SOL     OW 3481   2.249   0.648   4.112
67195SOL    HW1 3482   2.342   0.642   4.086
67195SOL    HW2 3483   2.216   0.559   4.101
67196SOL     OW 3484   8.494  10.426  11.510
67196SOL    HW1 3485   8.509  10.419  11.416
67196SOL    HW2 3486   8.401  10.442  11.519
67197SOL     OW 3487   5.288   5.362  13.622
67197SOL    HW1 3488   5.287   5.325  13.711
67197SOL    HW2 3489   5.365   5.419  13.621
67198SOL     OW 3490  10.326  11.954   5.789
67198SOL    HW1 3491  10.250  12.004   5.762
67198SOL    HW2 3492  10.389  12.020   5.818
67199SOL     OW 3493   8.411   3.120  10.959
67199SOL    HW1 3494   8.359   3.070  10.895
67199SOL    HW2 3495   8.410   3.209  10.925
67200SOL     OW 3496   4.054   3.402  13.127
67200SOL    HW1 3497   3.989   3.444  13.182
67200SOL    HW2 3498   4.136   3.408  13.178
67201SOL     OW 3499  12.934   7.883   9.229
67201SOL    HW1 3500  12.865   7.833   9.185
67201SOL    HW2 3501  13.011   7.872   9.175
67202SOL     OW 3502   7.876   9.074   0.715
67202SOL    HW1 3503   7.840   9.156   0.748
67202SOL    HW2 3504   7.970   9.082   0.727
67203SOL     OW 3505   5.708  14.573  11.410
67203SOL    HW1 3506   5.748  14.486  11.419
67203SOL    HW2 3507   5.614  14.555  11.406
67204SOL     OW 3508  10.127   2.851   6.294
67204SOL    HW1 3509  10.035   2.873   6.280
67204SOL    HW2 3510  10.175   2.927   6.262
67205SOL     OW 3511   8.104   2.861  11.617
67205SOL    HW1 3512   8.052   2.821  11.547
67205SOL    HW2 3513   8.050   2.851  11.695
67206SOL     OW 3514   4.004  12.334   2.329
67206SOL    HW1 3515   3.939  12.286   2.278
67206SOL    HW2 3516   4.075  12.353   2.267
67207SOL     OW 3517   5.951   1.810   9.907
67207SOL    HW1 3518   6.015   1.849   9.967
67207SOL    HW2 3519   5.959   1.862   9.827
67208SOL     OW 3520  10.034   3.964   2.733
67208SOL    HW1 3521   9.991   4.029   2.788
67208SOL    HW2 3522  10.051   4.010   2.650
67209SOL     OW 3523   7.973   1.522  13.593
67209SOL    HW1 3524   8.017   1.554  13.514
67209SOL    HW2 3525   7.892   1.482  13.560
67210SOL     OW 3526  14.528  13.910   3.943
67210SOL    HW1 3527  14.549  13.868   3.859
67210SOL    HW2 3528  14.481  13.990   3.918
67211SOL     OW 3529   7.335   3.148   2.228
67211SOL    HW1 3530   7.285   3.199   2.165
67211SOL    HW2 3531   7.278   3.142   2.305
67212SOL     OW 3532   9.154   5.547   9.889
67212SOL    HW1 3533   9.167   5.553   9.795
67212SOL    HW2 3534   9.110   5.463   9.902
67213SOL     OW 3535   4.524  12.956   0.482
67213SOL    HW1 3536   4.547  13.049   0.479
67213SOL    HW2 3537   4.441  12.954   0.530
67214SOL     OW 3538  11.857   1.826   5.382
67214SOL    HW1 3539  11.932   1.788   5.335
67214SOL    HW2 3540  11.800   1.751   5.400
67215SOL     OW 3541  11.215  12.591   0.716
67215SOL    HW1 3542  11.247  12.666   0.666
67215SOL    HW2 3543  11.210  12.520   0.652
67216SOL     OW 3544   3.610  14.413  11.888
67216SOL    HW1 3545   3.650  14.341  11.838
67216SOL    HW2 3546   3.539  14.444  11.832
67217SOL     OW 3547   7.551   5.931   1.152
67217SOL    HW1 3548   7.641   5.923   1.183
67217SOL    HW2 3549   7.511   5.996   1.210
67218SOL     OW 3550   8.248   4.261   0.309
67218SOL    HW1 3551   8.263   4.249   0.403
67218SOL    HW2 3552   8.170   4.317   0.304
67219SOL     OW 3553   3.496   3.477   7.257
67219SOL    HW1 3554   3.523   3.563   7.224
67219SOL    HW2 3555   3.511   3.482   7.351
67220SOL     OW 3556  10.771   6.468  14.788
67220SOL    HW1 3557  10.686   6.441  14.823
67220SOL    HW2 3558  10.793   6.548  14.835
67221SOL     OW 3559  13.154   3.122  11.789
67221SOL    HW1 3560  13.170   3.042  11.739
67221SOL    HW2 3561  13.094   3.094  11.858
67222SOL     OW 3562   1.264   1.127  10.969
67222SOL    HW1 3563   1.184   1.165  10.931
67222SOL    HW2 3564   1.281   1.180  11.047
67223SOL     OW 3565   1.269   5.348  13.673
67223SOL    HW1 3566   1.359   5.380  13.678
67223SOL    HW2 3567   1.272   5.261  13.714
67224SOL     OW 3568   6.401  13.893   4.827
67224SOL    HW1 3569   6.381  13.903   4.734
67224SOL    HW2 3570   6.318  13.909   4.871
67225SOL     OW 3571  13.254   8.283  10.238
67225SOL    HW1 3572  13.227   8.194  10.263
67225SOL    HW2 3573  13.172   8.328  10.219
67226SOL     OW 3574   6.512   1.851  13.706
67226SOL    HW1 3575   6.598   1.828  13.673
67226SOL    HW2 3576   6.451   1.795  13.657
67227SOL     OW 3577  14.232   3.535   0.035
67227SOL    HW1 3578  14.281   3.588   0.098
67227SOL    HW2 3579  14.291   3.523  14.831
67228SOL     OW 3580   3.021   6.791   4.021
67228SOL    HW1 3581   2.962   6.726   4.060
67228SOL    HW2 3582   3.100   6.787   4.074
67229SOL     OW 3583   7.310  14.323   5.925
67229SOL    HW1 3584   7.378  14.368   5.874
67229SOL    HW2 3585   7.355  14.246   5.962
67230SOL     OW 3586   3.047   1.785  11.133
67230SOL    HW1 3587   3.009   1.822  11.213
67230SOL    HW2 3588   3.050   1.859  11.072
67231SOL     OW 3589   2.396  11.705   4.190
67231SOL    HW1 3590   2.434  11.746   4.267
67231SOL    HW2 3591   2.350  11.628   4.223
67232SOL     OW 3592   3.414  13.474   0.372
67232SOL    HW1 3593   3.498  13.428   0.371
67232SOL    HW2 3594   3.427  13.550   0.314
67233SOL     OW 3595   2.293  10.033   9.421
67233SOL    HW1 3596   2.342  10.080   9.488
67233SOL    HW2 3597   2.329   9.945   9.422
67234SOL     OW 3598   5.919  14.847   5.244
67234SOL    HW1 3599   5.978  14.776   5.218
67234SOL    HW2 3600   5.968   0.057   5.223
67235SOL     OW 3601  11.502   0.032   9.642
67235SOL    HW1 3602  11.475  14.832   9.702
67235SOL    HW2 3603  11.512  14.858   9.557
67236SOL     OW 3604  13.179  14.576  13.024
67236SOL    HW1 3605  13.183  14.493  12.976
67236SOL    HW2 3606  13.155  14.641  12.957
67237SOL     OW 3607   1.768   0.012   1.956
67237SOL    HW1 3608   1.766  14.842   2.043
67237SOL    HW2 3609   1.700  14.837   1.907
67238SOL     OW 3610   9.398  11.078  13.421
67238SOL    HW1 3611   9.459  11.150  13.436
67238SOL    HW2 3612   9.347  11.073  13.502
67239SOL     OW 3613   9.440   8.966   4.450
67239SOL    HW1 3614   9.492   8.943   4.527
67239SOL    HW2 3615   9.361   8.911   4.458
67240SOL     OW 3616   9.949   5.425   6.668
67240SOL    HW1 3617   9.988   5.512   6.674
67240SOL    HW2 3618  10.017   5.372   6.627
67241SOL     OW 3619   7.159  10.538   0.176
67241SOL    HW1 3620   7.108  10.565   0.100
67241SOL    HW2 3621   7.219  10.610   0.192
67242SOL     OW 3622   4.179   3.402   2.618
67242SOL    HW1 3623   4.243   3.451   2.567
67242SOL    HW2 3624   4.220   3.393   2.705
67243SOL     OW 3625   2.826   3.373   4.104
67243SOL    HW1 3626   2.823   3.279   4.087
67243SOL    HW2 3627   2.833   3.413   4.018
67244SOL     OW 3628  11.765  11.081   7.878
67244SOL    HW1 3629  11.812  10.998   7.881
67244SOL    HW2 3630  11.791  11.126   7.958
67245SOL     OW 3631  12.230   0.950  11.212
67245SOL    HW1 3632  12.192   0.864  11.229
67245SOL    HW2 3633  12.278   0.939  11.129
67246SOL     OW 3634   6.630  12.415  13.109
67246SOL    HW1 3635   6.651  12.463  13.029
67246SOL    HW2 3636   6.666  12.327  13.094
67247SOL     OW 3637   0.163   8.586   9.346
67247SOL    HW1 3638   0.211   8.578   9.264
67247SOL    HW2 3639   0.074   8.612   9.319
67248SOL     OW 3640   3.505   5.977   2.461
67248SOL    HW1 3641   3.440   6.036   2.422
67248SOL    HW2 3642   3.532   5.921   2.389
67249SOL     OW 3643   7.271   7.246   3.670
67249SOL    HW1 3644   7.219   7.175   3.708
67249SOL    HW2 3645   7.207   7.314   3.649
67250SOL     OW 3646   6.619   9.691   1.754
67250SOL    HW1 3647   6.705   9.651   1.738
67250SOL    HW2 3648   6.631   9.782   1.728
67251SOL     OW 3649   6.732   2.277   8.140
67251SOL    HW1 3650   6.820   2.267   8.102
67251SOL    HW2 3651   6.717   2.372   8.139
67252SOL     OW 3652  12.616   5.230  12.629
67252SOL    HW1 3653  12.626   5.172  12.554
67252SOL    HW2 3654  12.538   5.283  12.608
67253SOL     OW 3655   9.614   5.113  13.553
67253SOL    HW1 3656   9.602   5.102  13.647
67253SOL    HW2 3657   9.563   5.191  13.531
67254SOL     OW 3658   8.237  13.092  12.706
67254SOL    HW1 3659   8.196  13.067  12.623
67254SOL    HW2 3660   8.326  13.058  12.700
67255SOL     OW 3661   6.435   2.973  13.984
67255SOL    HW1 3662   6.374   2.905  13.956
67255SOL    HW2 3663   6.382   3.033  14.037
67256SOL     OW 3664  13.871  13.232   9.628
67256SOL    HW1 3665  13.932  13.186   9.571
67256SOL    HW2 3666  13.786  13.192   9.610
67257SOL     OW 3667  12.960   5.140   0.871
67257SOL    HW1 3668  13.011   5.216   0.901
67257SOL    HW2 3669  12.946   5.156   0.778
67258SOL     OW 3670  10.969  10.714   9.297
67258SOL    HW1 3671  10.950  10.805   9.320
67258SOL    HW2 3672  10.903  10.663   9.344
67259SOL     OW 3673  12.481   5.040   5.810
67259SOL    HW1 3674  12.569   5.079   5.811
67259SOL    HW2 3675  12.491   4.960   5.861
67260SOL     OW 3676  14.031   3.802   0.517
67260SOL    HW1 3677  14.094   3.733   0.496
67260SOL    HW2 3678  14.050   3.825   0.608
67261SOL     OW 3679  13.114   1.777   6.815
67261SOL    HW1 3680  13.158   1.750   6.735
67261SOL    HW2 3681  13.182   1.776   6.882
67262SOL     OW 3682  14.246  11.864   6.777
67262SOL    HW1 3683  14.311  11.918   6.733
67262SOL    HW2 3684  14.297  11.803   6.830
67263SOL     OW 3685   9.840  12.791   3.071
67263SOL    HW1 3686   9.747  12.776   3.083
67263SOL    HW2 3687   9.872  12.714   3.024
67264SOL     OW 3688  13.717   4.315   0.454
67264SOL    HW1 3689  13.782   4.362   0.402
67264SOL    HW2 3690  13.748   4.324   0.544
67265SOL     OW 3691   3.851   7.320   1.304
67265SOL    HW1 3692   3.855   7.228   1.328
67265SOL    HW2 3693   3.760   7.335   1.279
67266SOL     OW 3694  10.707   4.919   8.426
67266SOL    HW1 3695  10.696   4.881   8.513
67266SOL    HW2 3696  10.801   4.930   8.416
67267SOL     OW 3697   4.068   4.061   9.474
67267SOL    HW1 3698   3.999   4.126   9.488
67267SOL    HW2 3699   4.114   4.091   9.396
67268SOL     OW 3700   0.074   1.233   8.338
67268SOL    HW1 3701  14.867   1.251   8.392
67268SOL    HW2 3702   0.101   1.318   8.304
67269SOL     OW 3703   2.365   6.561   8.128
67269SOL    HW1 3704   2.290   6.572   8.069
67269SOL    HW2 3705   2.439   6.546   8.069
67270SOL     OW 3706   0.643  14.723   3.836
67270SOL    HW1 3707   0.649  14.636   3.875
67270SOL    HW2 3708   0.599  14.709   3.753
67271SOL     OW 3709   9.494   4.576   7.636
67271SOL    HW1 3710   9.413   4.600   7.682
67271SOL    HW2 3711   9.560   4.636   7.671
67272SOL     OW 3712   7.645  14.621   7.856
67272SOL    HW1 3713   7.683  14.537   7.828
67272SOL    HW2 3714   7.559  14.624   7.814
67273SOL     OW 3715  13.027   4.735   1.603
67273SOL    HW1 3716  12.974   4.657   1.583
67273SOL    HW2 3717  13.112   4.717   1.563
67274SOL     OW 3718   9.410   2.648  10.456
67274SOL    HW1 3719   9.336   2.599  10.420
67274SOL    HW2 3720   9.479   2.640  10.390
67275SOL     OW 3721   4.381  11.054  11.852
67275SOL    HW1 3722   4.429  10.984  11.896
67275SOL    HW2 3723   4.414  11.135  11.892
67276SOL     OW 3724   3.171   6.234   1.146
67276SOL    HW1 3725   3.141   6.240   1.237
67276SOL    HW2 3726   3.200   6.322   1.124
67277SOL     OW 3727  11.535   5.057   3.115
67277SOL    HW1 3728  11.446   5.029   3.136
67277SOL    HW2 3729  11.524   5.127   3.051
67278SOL     OW 3730  13.766  11.313   7.046
67278SOL    HW1 3731  13.852  11.346   7.021
67278SOL    HW2 3732  13.770  11.305   7.141
67279SOL     OW 3733   9.701   5.634   1.397
67279SOL    HW1 3734   9.742   5.548   1.387
67279SOL    HW2 3735   9.663   5.632   1.485
67280SOL     OW 3736   8.759  13.893   4.592
67280SOL    HW1 3737   8.741  13.986   4.576
67280SOL    HW2 3738   8.676  13.858   4.625
67281SOL     OW 3739   3.542   5.601   9.894
67281SOL    HW1 3740   3.488   5.524   9.912
67281SOL    HW2 3741   3.632   5.567   9.888
67282SOL     OW 3742  13.568   2.475  12.187
67282SOL    HW1 3743  13.495   2.415  12.202
67282SOL    HW2 3744  13.628   2.425  12.131
67283SOL     OW 3745   9.377   5.516   4.370
67283SOL    HW1 3746   9.451   5.456   4.361
67283SOL    HW2 3747   9.301   5.459   4.381
67284SOL     OW 3748   9.776   6.424  10.821
67284SOL    HW1 3749   9.815   6.496  10.871
67284SOL    HW2 3750   9.685   6.421  10.852
67285SOL     OW 3751  14.511  12.024   4.220
67285SOL    HW1 3752  14.578  12.058   4.281
67285SOL    HW2 3753  14.438  12.086   4.228
67286SOL     OW 3754   2.336   1.898   1.843
67286SOL    HW1 3755   2.255   1.943   1.867
67286SOL    HW2 3756   2.331   1.814   1.888
67287SOL     OW 3757   5.857   5.739   1.116
67287SOL    HW1 3758   5.849   5.650   1.150
67287SOL    HW2 3759   5.847   5.795   1.193
67288SOL     OW 3760  13.605   6.008  14.396
67288SOL    HW1 3761  13.628   5.974  14.483
67288SOL    HW2 3762  13.658   6.088  14.388
67289SOL     OW 3763   3.750  11.357   7.812
67289SOL    HW1 3764   3.814  11.291   7.839
67289SOL    HW2 3765   3.681  11.307   7.770
67290SOL     OW 3766   2.601  13.770   2.156
67290SOL    HW1 3767   2.618  13.732   2.069
67290SOL    HW2 3768   2.541  13.843   2.138
67291SOL     OW 3769  11.245   5.491   3.160
67291SOL    HW1 3770  11.154   5.477   3.185
67291SOL    HW2 3771  11.264   5.581   3.188
67292SOL     OW 3772   6.148  14.817   8.809
67292SOL    HW1 3773   6.084  14.862   8.864
67292SOL    HW2 3774   6.104  14.808   8.724
67293SOL     OW 3775   5.553  11.041   6.451
67293SOL    HW1 3776   5.612  11.114   6.471
67293SOL    HW2 3777   5.575  11.015   6.362
67294SOL     OW 3778   9.945   5.186   5.208
67294SOL    HW1 3779  10.023   5.133   5.190
67294SOL    HW2 3780   9.950   5.204   5.302
67295SOL     OW 3781  11.262   3.912   6.495
67295SOL    HW1 3782  11.294   3.855   6.565
67295SOL    HW2 3783  11.173   3.935   6.521
67296SOL     OW 3784  14.651   8.234   1.682
67296SOL    HW1 3785  14.563   8.240   1.720
67296SOL    HW2 3786  14.671   8.140   1.682
67297SOL     OW 3787   9.409   1.772   3.394
67297SOL    HW1 3788   9.356   1.701   3.359
67297SOL    HW2 3789   9.351   1.817   3.455
67298SOL     OW 3790   7.211   7.697   2.192
67298SOL    HW1 3791   7.132   7.647   2.211
67298SOL    HW2 3792   7.201   7.726   2.102
67299SOL     OW 3793   2.891  10.633   8.004
67299SOL    HW1 3794   2.923  10.630   7.914
67299SOL    HW2 3795   2.800  10.662   7.997
67300SOL     OW 3796   2.769   2.373  13.813
67300SOL    HW1 3797   2.804   2.455  13.779
67300SOL    HW2 3798   2.845   2.316  13.822
67301SOL     OW 3799  12.091  13.121   4.531
67301SOL    HW1 3800  12.106  13.052   4.467
67301SOL    HW2 3801  12.133  13.089   4.612
67302SOL     OW 3802   0.951   2.087   7.938
67302SOL    HW1 3803   0.959   2.171   7.984
67302SOL    HW2 3804   0.878   2.043   7.982
67303SOL     OW 3805  12.200  12.247   4.256
67303SOL    HW1 3806  12.203  12.298   4.176
67303SOL    HW2 3807  12.147  12.170   4.234
67304SOL     OW 3808   7.310  13.165   2.427
67304SOL    HW1 3809   7.219  13.138   2.442
67304SOL    HW2 3810   7.322  13.241   2.483
67305SOL     OW 3811   2.579  10.298   1.446
67305SOL    HW1 3812   2.600  10.390   1.429
67305SOL    HW2 3813   2.657  10.264   1.490
67306SOL     OW 3814  10.909   4.811   6.838
67306SOL    HW1 3815  10.897   4.847   6.750
67306SOL    HW2 3816  10.983   4.859   6.875
67307SOL     OW 3817  13.294   3.508   3.134
67307SOL    HW1 3818  13.339   3.591   3.117
67307SOL    HW2 3819  13.202   3.526   3.115
67308SOL     OW 3820   6.372  10.321   6.921
67308SOL    HW1 3821   6.375  10.278   7.006
67308SOL    HW2 3822   6.382  10.250   6.857
67309SOL     OW 3823  11.383  10.882   2.085
67309SOL    HW1 3824  11.449  10.881   2.154
67309SOL    HW2 3825  11.429  10.917   2.009
67310SOL     OW 3826  13.660  10.023  10.346
67310SOL    HW1 3827  13.721  10.090  10.375
67310SOL    HW2 3828  13.680   9.947  10.400
67311SOL     OW 3829  10.560   4.444   5.137
67311SOL    HW1 3830  10.484   4.495   5.166
67311SOL    HW2 3831  10.526   4.387   5.068
67312SOL     OW 3832  10.492   1.479  14.306
67312SOL    HW1 3833  10.554   1.543  14.271
67312SOL    HW2 3834  10.409   1.498  14.262
67313SOL     OW 3835   7.944   8.051  11.137
67313SOL    HW1 3836   7.858   8.013  11.115
67313SOL    HW2 3837   7.949   8.131  11.085
67314SOL     OW 3838   0.117   4.321   8.628
67314SOL    HW1 3839   0.037   4.366   8.599
67314SOL    HW2 3840   0.093   4.228   8.631
67315SOL     OW 3841  12.037  12.930   0.273
67315SOL    HW1 3842  12.015  12.888   0.356
67315SOL    HW2 3843  12.000  13.018   0.280
67316SOL     OW 3844   6.118   8.938   4.762
67316SOL    HW1 3845   6.029   8.903   4.770
67316SOL    HW2 3846   6.106   9.032   4.754
67317SOL     OW 3847   4.734  14.851   6.484
67317SOL    HW1 3848   4.681   0.050   6.523
67317SOL    HW2 3849   4.700  14.841   6.395
67318SOL     OW 3850  14.005   6.475  11.507
67318SOL    HW1 3851  13.971   6.479  11.417
67318SOL    HW2 3852  14.082   6.418  11.500
67319SOL     OW 3853  14.731  12.335  12.887
67319SOL    HW1 3854  14.817  12.335  12.929
67319SOL    HW2 3855  14.677  12.391  12.943
67320SOL     OW 3856  12.695   5.492   6.784
67320SOL    HW1 3857  12.761   5.558   6.762
67320SOL    HW2 3858  12.680   5.505   6.878
67321SOL     OW 3859   6.151   2.648   3.259
67321SOL    HW1 3860   6.201   2.652   3.340
67321SOL    HW2 3861   6.064   2.617   3.286
67322SOL     OW 3862  10.997   3.139   2.878
67322SOL    HW1 3863  10.920   3.117   2.826
67322SOL    HW2 3864  11.002   3.235   2.875
67323SOL     OW 3865   7.524   5.223   5.589
67323SOL    HW1 3866   7.431   5.217   5.611
67323SOL    HW2 3867   7.550   5.132   5.572
67324SOL     OW 3868  13.701  12.514   1.088
67324SOL    HW1 3869  13.675  12.572   1.017
67324SOL    HW2 3870  13.646  12.436   1.077
67325SOL     OW 3871   5.637  14.111  11.898
67325SOL    HW1 3872   5.584  14.149  11.968
67325SOL    HW2 3873   5.687  14.186  11.863
67326SOL     OW 3874  12.831  10.876   6.271
67326SOL    HW1 3875  12.814  10.957   6.222
67326SOL    HW2 3876  12.817  10.806   6.208
67327SOL     OW 3877   3.607   4.981   2.045
67327SOL    HW1 3878   3.538   4.944   1.990
67327SOL    HW2 3879   3.624   5.068   2.008
67328SOL     OW 3880   4.805   3.856   0.270
67328SOL    HW1 3881   4.789   3.859   0.176
67328SOL    HW2 3882   4.849   3.939   0.290
67329SOL     OW 3883  12.614  14.019   5.634
67329SOL    HW1 3884  12.551  13.990   5.700
67329SOL    HW2 3885  12.565  14.019   5.552
67330SOL     OW 3886  10.593   2.233   1.813
67330SOL    HW1 3887  10.559   2.144   1.824
67330SOL    HW2 3888  10.641   2.251   1.893
67331SOL     OW 3889  10.231   7.008   7.208
67331SOL    HW1 3890  10.305   6.996   7.267
67331SOL    HW2 3891  10.250   7.089   7.161
67332SOL     OW 3892   7.820  11.693   8.381
67332SOL    HW1 3893   7.815  11.633   8.307
67332SOL    HW2 3894   7.742  11.747   8.373
67333SOL     OW 3895  14.190   9.201   2.312
67333SOL    HW1 3896  14.270   9.249   2.291
67333SOL    HW2 3897  14.201   9.176   2.404
67334SOL     OW 3898  12.771   0.984   0.795
67334SOL    HW1 3899  12.856   1.004   0.758
67334SOL    HW2 3900  12.740   0.908   0.745
67335SOL     OW 3901   5.646  10.581   9.084
67335SOL    HW1 3902   5.649  10.617   8.995
67335SOL    HW2 3903   5.723  10.619   9.127
67336SOL     OW 3904   9.006   1.279  11.467
67336SOL    HW1 3905   9.099   1.286  11.487
67336SOL    HW2 3906   8.973   1.212  11.527
67337SOL     OW 3907   0.761   9.546  12.617
67337SOL    HW1 3908   0.803   9.482  12.560
67337SOL    HW2 3909   0.727   9.613  12.557
67338SOL     OW 3910  11.283   2.757   6.730
67338SOL    HW1 3911  11.301   2.727   6.819
67338SOL    HW2 3912  11.313   2.685   6.674
67339SOL     OW 3913  11.231   3.920  10.893
67339SOL    HW1 3914  11.193   3.874  10.967
67339SOL    HW2 3915  11.261   3.851  10.834
67340SOL     OW 3916  13.960   0.587   4.381
67340SOL    HW1 3917  13.898   0.645   4.337
67340SOL    HW2 3918  13.912   0.504   4.390
67341SOL     OW 3919  14.569   6.877  13.938
67341SOL    HW1 3920  14.508   6.928  13.991
67341SOL    HW2 3921  14.608   6.815  14.000
67342SOL     OW 3922   9.989   8.989  12.779
67342SOL    HW1 3923  10.043   8.910  12.772
67342SOL    HW2 3924   9.938   8.976  12.859
67343SOL     OW 3925  14.344  10.529  12.906
67343SOL    HW1 3926  14.354  10.577  12.824
67343SOL    HW2 3927  14.432  10.528  12.944
67344SOL     OW 3928   4.546   5.908  10.818
67344SOL    HW1 3929   4.486   5.955  10.876
67344SOL    HW2 3930   4.610   5.868  10.876
67345SOL     OW 3931  13.429   4.219  12.007
67345SOL    HW1 3932  13.355   4.264  12.047
67345SOL    HW2 3933  13.444   4.142  12.063
67346SOL     OW 3934   6.304   0.009   0.043
67346SOL    HW1 3935   6.217   0.028   0.077
67346SOL    HW2 3936   6.302   0.043  14.823
67347SOL     OW 3937   2.781   3.578   8.896
67347SOL    HW1 3938   2.829   3.624   8.826
67347SOL    HW2 3939   2.711   3.532   8.850
67348SOL     OW 3940  10.360   0.720   1.548
67348SOL    HW1 3941  10.393   0.790   1.492
67348SOL    HW2 3942  10.356   0.758   1.636
67349SOL     OW 3943   0.814   9.725   7.703
67349SOL    HW1 3944   0.737   9.739   7.757
67349SOL    HW2 3945   0.812   9.797   7.639
67350SOL     OW 3946   2.149   3.787  14.081
67350SOL    HW1 3947   2.121   3.702  14.047
67350SOL    HW2 3948   2.232   3.805  14.037
67351SOL     OW 3949   0.752   8.648   9.668
67351SOL    HW1 3950   0.736   8.699   9.588
67351SOL    HW2 3951   0.821   8.587   9.644
67352SOL     OW 3952   5.459   5.594   9.536
67352SOL    HW1 3953   5.548   5.571   9.562
67352SOL    HW2 3954   5.404   5.562   9.608
67353SOL     OW 3955   2.073   6.264   5.901
67353SOL    HW1 3956   1.994   6.315   5.914
67353SOL    HW2 3957   2.118   6.306   5.828
67354SOL     OW 3958  11.841   9.088   9.136
67354SOL    HW1 3959  11.830   9.183   9.126
67354SOL    HW2 3960  11.897   9.064   9.062
67355SOL     OW 3961   3.705  13.890   4.307
67355SOL    HW1 3962   3.634  13.831   4.285
67355SOL    HW2 3963   3.689  13.968   4.253
67356SOL     OW 3964  14.663  14.559   1.499
67356SOL    HW1 3965  14.644  14.536   1.408
67356SOL    HW2 3966  14.588  14.525   1.548
67357SOL     OW 3967   6.051   6.361   3.942
67357SOL    HW1 3968   5.973   6.400   3.903
67357SOL    HW2 3969   6.025   6.270   3.960
67358SOL     OW 3970   0.133   3.824   1.388
67358SOL    HW1 3971   0.076   3.841   1.313
67358SOL    HW2 3972   0.189   3.901   1.393
67359SOL     OW 3973   0.815  10.969  11.812
67359SOL    HW1 3974   0.841  11.041  11.869
67359SOL    HW2 3975   0.876  10.898  11.834
67360SOL     OW 3976   8.831   1.310  14.763
67360SOL    HW1 3977   8.782   1.391  14.752
67360SOL    HW2 3978   8.814   1.284  14.854
67361SOL     OW 3979   6.128   3.705   6.454
67361SOL    HW1 3980   6.063   3.635   6.458
67361SOL    HW2 3981   6.212   3.660   6.451
67362SOL     OW 3982   1.414   8.137   5.896
67362SOL    HW1 3983   1.473   8.070   5.860
67362SOL    HW2 3984   1.345   8.146   5.831
67363SOL     OW 3985   0.691  14.609  12.235
67363SOL    HW1 3986   0.660  14.538  12.292
67363SOL    HW2 3987   0.682  14.688  12.288
67364SOL     OW 3988   9.033   6.079   3.449
67364SOL    HW1 3989   8.980   6.157   3.433
67364SOL    HW2 3990   8.972   6.006   3.438
67365SOL     OW 3991   7.823   3.705   5.164
67365SOL    HW1 3992   7.730   3.717   5.142
67365SOL    HW2 3993   7.864   3.788   5.143
67366SOL     OW 3994  13.945  10.094  11.068
67366SOL    HW1 3995  14.039  10.115  11.073
67366SOL    HW2 3996  13.942  10.002  11.041
67367SOL     OW 3997   4.743   2.896   0.294
67367SOL    HW1 3998   4.715   2.964   0.356
67367SOL    HW2 3999   4.822   2.859   0.333
67368SOL     OW 4000   1.037   4.369   7.099
67368SOL    HW1 4001   1.004   4.302   7.040
67368SOL    HW2 4002   1.007   4.343   7.186
67369SOL     OW 4003  11.496   5.021  10.115
67369SOL    HW1 4004  11.477   4.970  10.037
67369SOL    HW2 4005  11.478   5.112  10.090
67370SOL     OW 4006  13.660   9.772   4.935
67370SOL    HW1 4007  13.629   9.832   5.003
67370SOL    HW2 4008  13.741   9.736   4.971
67371SOL     OW 4009   7.525  10.758   0.475
67371SOL    HW1 4010   7.454  10.788   0.418
67371SOL    HW2 4011   7.564  10.684   0.429
67372SOL     OW 4012  11.443  10.017  14.824
67372SOL    HW1 4013  11.459  10.016  14.729
67372SOL    HW2 4014  11.380   9.945  14.838
67373SOL     OW 4015  12.617   6.869   0.948
67373SOL    HW1 4016  12.712   6.884   0.951
67373SOL    HW2 4017  12.605   6.810   0.874
67374SOL     OW 4018   4.664   9.819   6.834
67374SOL    HW1 4019   4.708   9.903   6.843
67374SOL    HW2 4020   4.589   9.825   6.893
67375SOL     OW 4021  14.521  13.443  10.627
67375SOL    HW1 4022  14.548  13.413  10.714
67375SOL    HW2 4023  14.490  13.365  10.583
67376SOL     OW 4024   8.761  11.390   7.054
67376SOL    HW1 4025   8.733  11.298   7.055
67376SOL    HW2 4026   8.679  11.439   7.048
67377SOL     OW 4027   0.954   8.684   7.045
67377SOL    HW1 4028   0.951   8.591   7.024
67377SOL    HW2 4029   1.045   8.710   7.028
67378SOL     OW 4030   6.875   3.523  14.577
67378SOL    HW1 4031   6.883   3.467  14.501
67378SOL    HW2 4032   6.865   3.463  14.651
67379SOL     OW 4033   9.649   2.014   9.105
67379SOL    HW1 4034   9.644   2.039   9.197
67379SOL    HW2 4035   9.735   2.043   9.077
67380SOL     OW 4036   0.552   0.396  11.240
67380SOL    HW1 4037   0.588   0.450  11.310
67380SOL    HW2 4038   0.460   0.383  11.263
67381SOL     OW 4039  14.439   3.540  12.044
67381SOL    HW1 4040  14.493   3.589  11.982
67381SOL    HW2 4041  14.464   3.575  12.130
67382SOL     OW 4042   5.584  10.632  13.890
67382SOL    HW1 4043   5.631  10.594  13.964
67382SOL    HW2 4044   5.630  10.713  13.870
67383SOL     OW 4045   2.470   4.050  10.664
67383SOL    HW1 4046   2.534   4.051  10.736
67383SOL    HW2 4047   2.518   4.013  10.590
67384SOL     OW 4048  14.105   1.486   7.559
67384SOL    HW1 4049  14.016   1.487   7.593
67384SOL    HW2 4050  14.139   1.573   7.578
67385SOL     OW 4051   5.181   6.051  11.747
67385SOL    HW1 4052   5.273   6.043  11.771
67385SOL    HW2 4053   5.182   6.103  11.666
67386SOL     OW 4054   1.135   3.466   9.356
67386SOL    HW1 4055   1.211   3.428   9.399
67386SOL    HW2 4056   1.075   3.393   9.343
67387SOL     OW 4057   5.043   3.863   1.273
67387SOL    HW1 4058   5.063   3.909   1.191
67387SOL    HW2 4059   4.948   3.850   1.270
67388SOL     OW 4060   5.097   1.146   6.501
67388SOL    HW1 4061   5.146   1.120   6.579
67388SOL    HW2 4062   5.138   1.097   6.430
67389SOL     OW 4063   0.000   8.550   8.166
67389SOL    HW1 4064   0.039   8.598   8.093
67389SOL    HW2 4065  14.844   8.466   8.129
67390SOL     OW 4066   4.495  10.466   4.239
67390SOL    HW1 4067   4.570  10.523   4.257
67390SOL    HW2 4068   4.464  10.439   4.325
67391SOL     OW 4069  13.317   8.517   2.361
67391SOL    HW1 4070  13.286   8.430   2.388
67391SOL    HW2 4071  13.333   8.508   2.267
67392SOL     OW 4072   6.503  13.841  14.529
67392SOL    HW1 4073   6.419  13.838  14.575
67392SOL    HW2 4074   6.512  13.933  14.502
67393SOL     OW 4075   2.428   9.334   2.266
67393SOL    HW1 4076   2.350   9.295   2.228
67393SOL    HW2 4077   2.481   9.260   2.294
67394SOL     OW 4078  11.988   0.629   9.179
67394SOL    HW1 4079  12.044   0.554   9.196
67394SOL    HW2 4080  11.978   0.631   9.084
67395SOL     OW 4081   4.512  12.951   5.431
67395SOL    HW1 4082   4.464  12.946   5.513
67395SOL    HW2 4083   4.447  12.928   5.364
67396SOL     OW 4084   0.104  13.144   8.132
67396SOL    HW1 4085   0.163  13.206   8.089
67396SOL    HW2 4086   0.082  13.080   8.065
67397SOL     OW 4087   8.689   7.167   0.618
67397SOL    HW1 4088   8.681   7.255   0.580
67397SOL    HW2 4089   8.687   7.109   0.542
67398SOL     OW 4090   3.221   8.622   6.818
67398SOL    HW1 4091   3.201   8.641   6.910
67398SOL    HW2 4092   3.303   8.669   6.801
67399SOL     OW 4093   9.779   6.211  11.113
67399SOL    HW1 4094   9.814   6.195  11.200
67399SOL    HW2 4095   9.780   6.126  11.069
67400SOL     OW 4096   5.919   5.509   3.586
67400SOL    HW1 4097   5.967   5.475   3.662
67400SOL    HW2 4098   5.851   5.444   3.569
67401SOL     OW 4099  11.462   2.814   4.751
67401SOL    HW1 4100  11.529   2.862   4.703
67401SOL    HW2 4101  11.383   2.867   4.741
67402SOL     OW 4102   8.819  14.546   0.034
67402SOL    HW1 4103   8.901  14.550   0.084
67402SOL    HW2 4104   8.813  14.631  14.861
67403SOL     OW 4105   3.653   2.790   6.729
67403SOL    HW1 4106   3.691   2.820   6.647
67403SOL    HW2 4107   3.563   2.821   6.727
67404SOL     OW 4108   0.234   1.039  12.826
67404SOL    HW1 4109   0.186   1.102  12.880
67404SOL    HW2 4110   0.299   1.093  12.780
67405SOL     OW 4111  11.177   6.066  14.255
67405SOL    HW1 4112  11.121   6.070  14.177
67405SOL    HW2 4113  11.186   5.972  14.273
67406SOL     OW 4114   9.248  12.119   6.555
67406SOL    HW1 4115   9.311  12.171   6.504
67406SOL    HW2 4116   9.232  12.170   6.634
67407SOL     OW 4117   1.082   8.069   3.794
67407SOL    HW1 4118   1.080   8.078   3.699
67407SOL    HW2 4119   1.042   7.984   3.812
67408SOL     OW 4120  13.314   3.502  10.506
67408SOL    HW1 4121  13.271   3.544  10.581
67408SOL    HW2 4122  13.395   3.552  10.494
67409SOL     OW 4123   9.541   5.488   0.040
67409SOL    HW1 4124   9.457   5.490   0.087
67409SOL    HW2 4125   9.518   5.498  14.818
67410SOL     OW 4126   8.249  11.175   1.975
67410SOL    HW1 4127   8.200  11.093   1.980
67410SOL    HW2 4128   8.195  11.232   1.920
67411SOL     OW 4129   9.406   9.146   9.169
67411SOL    HW1 4130   9.328   9.203   9.168
67411SOL    HW2 4131   9.465   9.185   9.105
67412SOL     OW 4132   0.919   2.976  13.110
67412SOL    HW1 4133   0.880   2.890  13.126
67412SOL    HW2 4134   0.861   3.017  13.045
67413SOL     OW 4135   6.927   9.789   8.747
67413SOL    HW1 4136   6.898   9.749   8.665
67413SOL    HW2 4137   6.860   9.766   8.810
67414SOL     OW 4138   3.585   0.464  12.984
67414SOL    HW1 4139   3.650   0.467  13.054
67414SOL    HW2 4140   3.632   0.494  12.906
67415SOL     OW 4141  12.972   6.625  12.330
67415SOL    HW1 4142  12.928   6.651  12.249
67415SOL    HW2 4143  12.993   6.532  12.317
67416SOL     OW 4144   4.800  10.153   0.887
67416SOL    HW1 4145   4.760  10.072   0.857
67416SOL    HW2 4146   4.726  10.212   0.904
67417SOL     OW 4147  11.129   5.756   7.188
67417SOL    HW1 4148  11.224   5.757   7.182
67417SOL    HW2 4149  11.104   5.848   7.191
67418SOL     OW 4150  12.845  11.304  12.317
67418SOL    HW1 4151  12.895  11.380  12.349
67418SOL    HW2 4152  12.761  11.311  12.361
67419SOL     OW 4153   6.695   5.396   3.109
67419SOL    HW1 4154   6.627   5.434   3.165
67419SOL    HW2 4155   6.759   5.360   3.170
67420SOL     OW 4156   1.170   0.638  10.723
67420SOL    HW1 4157   1.233   0.635  10.651
67420SOL    HW2 4158   1.146   0.731  10.729
67421SOL     OW 4159   0.784  13.533   7.197
67421SOL    HW1 4160   0.761  13.614   7.152
67421SOL    HW2 4161   0.857  13.558   7.255
67422SOL     OW 4162   2.196  11.027   4.657
67422SOL    HW1 4163   2.259  11.092   4.689
67422SOL    HW2 4164   2.228  11.003   4.570
67423SOL     OW 4165  10.229   0.918   0.688
67423SOL    HW1 4166  10.195   0.854   0.625
67423SOL    HW2 4167  10.300   0.962   0.643
67424SOL     OW 4168   9.609   8.227   9.433
67424SOL    HW1 4169   9.515   8.211   9.425
67424SOL    HW2 4170   9.623   8.309   9.387
67425SOL     OW 4171  12.152   3.454   2.756
67425SOL    HW1 4172  12.136   3.441   2.849
67425SOL    HW2 4173  12.133   3.369   2.716
67426SOL     OW 4174   3.462   5.934   2.735
67426SOL    HW1 4175   3.553   5.905   2.742
67426SOL    HW2 4176   3.461   5.992   2.659
67427SOL     OW 4177  13.283  14.171   8.683
67427SOL    HW1 4178  13.276  14.198   8.774
67427SOL    HW2 4179  13.338  14.239   8.642
67428SOL     OW 4180  12.237  13.091  14.357
67428SOL    HW1 4181  12.273  13.003  14.366
67428SOL    HW2 4182  12.245  13.110  14.263
67429SOL     OW 4183  10.597   9.894   5.968
67429SOL    HW1 4184  10.589   9.953   6.044
67429SOL    HW2 4185  10.508   9.882   5.937
67430SOL     OW 4186   3.925   9.564   8.943
67430SOL    HW1 4187   4.019   9.549   8.940
67430SOL    HW2 4188   3.900   9.548   9.034
67431SOL     OW 4189   3.157   2.755   9.896
67431SOL    HW1 4190   3.086   2.746   9.833
67431SOL    HW2 4191   3.120   2.723   9.978
67432SOL     OW 4192   2.646   8.445   2.539
67432SOL    HW1 4193   2.618   8.370   2.592
67432SOL    HW2 4194   2.658   8.409   2.451
67433SOL     OW 4195   0.905   7.111   2.984
67433SOL    HW1 4196   0.977   7.061   3.024
67433SOL    HW2 4197   0.935   7.202   2.986
67434SOL     OW 4198   0.556   8.960   2.072
67434SOL    HW1 4199   0.476   8.921   2.037
67434SOL    HW2 4200   0.597   9.003   1.997
67435SOL     OW 4201   2.846   6.881  12.865
67435SOL    HW1 4202   2.800   6.893  12.783
67435SOL    HW2 4203   2.803   6.940  12.926
67436SOL     OW 4204   6.385  12.893  14.232
67436SOL    HW1 4205   6.313  12.947  14.199
67436SOL    HW2 4206   6.441  12.878  14.156
67437SOL     OW 4207  14.356   1.504  10.524
67437SOL    HW1 4208  14.446   1.498  10.493
67437SOL    HW2 4209  14.351   1.443  10.597
67438SOL     OW 4210   2.977  11.644   2.925
67438SOL    HW1 4211   2.993  11.611   3.013
67438SOL    HW2 4212   3.020  11.730   2.923
67439SOL     OW 4213   3.693   7.664   8.502
67439SOL    HW1 4214   3.734   7.596   8.449
67439SOL    HW2 4215   3.602   7.636   8.511
67440SOL     OW 4216   0.884   2.463  13.545
67440SOL    HW1 4217   0.847   2.384  13.584
67440SOL    HW2 4218   0.939   2.501  13.614
67441SOL     OW 4219   9.995  12.437   4.766
67441SOL    HW1 4220  10.014  12.402   4.679
67441SOL    HW2 4221   9.908  12.403   4.787
67442SOL     OW 4222  14.551   2.577  11.366
67442SOL    HW1 4223  14.527   2.526  11.289
67442SOL    HW2 4224  14.508   2.661  11.354
67443SOL     OW 4225   3.107  10.261   0.179
67443SOL    HW1 4226   3.132  10.299   0.095
67443SOL    HW2 4227   3.017  10.290   0.193
67444SOL     OW 4228   1.107  14.407   9.343
67444SOL    HW1 4229   1.190  14.424   9.298
67444SOL    HW2 4230   1.098  14.312   9.340
67445SOL     OW 4231   5.321   7.978   5.333
67445SOL    HW1 4232   5.393   7.935   5.380
67445SOL    HW2 4233   5.362   8.019   5.257
67446SOL     OW 4234   8.471  12.537   2.317
67446SOL    HW1 4235   8.381  12.564   2.295
67446SOL    HW2 4236   8.488  12.579   2.401
67447SOL     OW 4237  12.428   2.163   2.565
67447SOL    HW1 4238  12.361   2.222   2.599
67447SOL    HW2 4239  12.483   2.220   2.511
67448SOL     OW 4240  12.391   7.431   0.173
67448SOL    HW1 4241  12.433   7.355   0.133
67448SOL    HW2 4242  12.342   7.396   0.247
67449SOL     OW 4243  11.905   3.380   8.936
67449SOL    HW1 4244  11.929   3.316   8.869
67449SOL    HW2 4245  11.898   3.330   9.016
67450SOL     OW 4246  13.824   6.481  14.242
67450SOL    HW1 4247  13.869   6.517  14.166
67450SOL    HW2 4248  13.891   6.426  14.285
67451SOL     OW 4249   9.370  10.655   9.702
67451SOL    HW1 4250   9.381  10.749   9.709
67451SOL    HW2 4251   9.354  10.625   9.791
67452SOL     OW 4252   9.408   8.441   3.201
67452SOL    HW1 4253   9.386   8.359   3.245
67452SOL    HW2 4254   9.472   8.417   3.134
67453SOL     OW 4255   2.107  12.966   9.243
67453SOL    HW1 4256   2.080  12.876   9.224
67453SOL    HW2 4257   2.025  13.014   9.254
67454SOL     OW 4258   7.010   9.852   0.280
67454SOL    HW1 4259   7.037   9.767   0.247
67454SOL    HW2 4260   7.087   9.908   0.268
67455SOL     OW 4261  14.532   0.454  13.474
67455SOL    HW1 4262  14.488   0.369  13.480
67455SOL    HW2 4263  14.530   0.488  13.563
67456SOL     OW 4264   8.624   4.787   0.100
67456SOL    HW1 4265   8.672   4.743   0.171
67456SOL    HW2 4266   8.691   4.814   0.038
67457SOL     OW 4267   5.464  12.927  12.200
67457SOL    HW1 4268   5.403  12.913  12.272
67457SOL    HW2 4269   5.417  12.987  12.141
67458SOL     OW 4270   8.628   8.949   4.122
67458SOL    HW1 4271   8.619   8.858   4.095
67458SOL    HW2 4272   8.674   8.945   4.206
67459SOL     OW 4273  13.609  10.031  13.668
67459SOL    HW1 4274  13.673  10.032  13.596
67459SOL    HW2 4275  13.547   9.963  13.644
67460SOL     OW 4276   1.814   3.903  11.998
67460SOL    HW1 4277   1.816   3.961  11.922
67460SOL    HW2 4278   1.730   3.923  12.041
67461SOL     OW 4279  14.552   8.419   8.840
67461SOL    HW1 4280  14.476   8.457   8.884
67461SOL    HW2 4281  14.620   8.487   8.845
67462SOL     OW 4282   9.043   6.578  11.478
67462SOL    HW1 4283   8.978   6.525  11.525
67462SOL    HW2 4284   9.116   6.586  11.540
67463SOL     OW 4285  12.844   3.880   4.827
67463SOL    HW1 4286  12.821   3.793   4.795
67463SOL    HW2 4287  12.891   3.921   4.754
67464SOL     OW 4288   5.763  11.240   1.172
67464SOL    HW1 4289   5.832  11.230   1.106
67464SOL    HW2 4290   5.699  11.172   1.150
67465SOL     OW 4291  13.822   0.600  11.052
67465SOL    HW1 4292  13.752   0.664  11.062
67465SOL    HW2 4293  13.823   0.580  10.958
67466SOL     OW 4294  10.623  14.303  13.159
67466SOL    HW1 4295  10.534  14.270  13.169
67466SOL    HW2 4296  10.614  14.398  13.168
67467SOL     OW 4297   8.030  14.078  13.359
67467SOL    HW1 4298   7.975  14.040  13.428
67467SOL    HW2 4299   8.110  14.026  13.362
67468SOL     OW 4300   6.196   7.851  10.785
67468SOL    HW1 4301   6.144   7.772  10.794
67468SOL    HW2 4302   6.270   7.826  10.729
67469SOL     OW 4303   2.587  13.202  10.638
67469SOL    HW1 4304   2.614  13.175  10.725
67469SOL    HW2 4305   2.666  13.195  10.585
67470SOL     OW 4306   4.680  10.705  12.350
67470SOL    HW1 4307   4.663  10.762  12.275
67470SOL    HW2 4308   4.602  10.714  12.405
67471SOL     OW 4309  14.628   9.606  10.330
67471SOL    HW1 4310  14.630   9.551  10.409
67471SOL    HW2 4311  14.613   9.695  10.364
67472SOL     OW 4312  10.636   2.068  11.683
67472SOL    HW1 4313  10.617   1.988  11.636
67472SOL    HW2 4314  10.570   2.072  11.752
67473SOL     OW 4315   8.367   3.527   6.611
67473SOL    HW1 4316   8.379   3.574   6.693
67473SOL    HW2 4317   8.290   3.473   6.625
67474SOL     OW 4318   2.610   6.203   2.236
67474SOL    HW1 4319   2.626   6.109   2.243
67474SOL    HW2 4320   2.634   6.237   2.322
67475SOL     OW 4321  11.219  10.179   4.872
67475SOL    HW1 4322  11.148  10.196   4.934
67475SOL    HW2 4323  11.204  10.088   4.843
67476SOL     OW 4324  12.101   2.525   3.891
67476SOL    HW1 4325  12.156   2.492   3.963
67476SOL    HW2 4326  12.158   2.587   3.845
67477SOL     OW 4327  10.747  13.596   3.261
67477SOL    HW1 4328  10.784  13.644   3.335
67477SOL    HW2 4329  10.654  13.617   3.263
67478SOL     OW 4330   5.942  13.469  14.194
67478SOL    HW1 4331   5.917  13.510  14.111
67478SOL    HW2 4332   5.876  13.401  14.207
67479SOL     OW 4333  11.959  14.376   9.807
67479SOL    HW1 4334  11.904  14.453   9.819
67479SOL    HW2 4335  11.904  14.314   9.759
67480SOL     OW 4336  13.021   4.388   6.544
67480SOL    HW1 4337  13.030   4.473   6.503
67480SOL    HW2 4338  12.995   4.407   6.634
67481SOL     OW 4339   4.643  14.070   4.622
67481SOL    HW1 4340   4.570  14.114   4.667
67481SOL    HW2 4341   4.717  14.130   4.633
67482SOL     OW 4342   6.505   2.815   3.343
67482SOL    HW1 4343   6.578   2.849   3.292
67482SOL    HW2 4344   6.431   2.872   3.319
67483SOL     OW 4345   7.935   9.443   4.852
67483SOL    HW1 4346   7.938   9.351   4.826
67483SOL    HW2 4347   8.007   9.453   4.914
67484SOL     OW 4348  11.284  13.044   6.952
67484SOL    HW1 4349  11.339  13.038   7.030
67484SOL    HW2 4350  11.218  12.976   6.963
67485SOL     OW 4351   3.984   4.659   8.497
67485SOL    HW1 4352   3.907   4.607   8.520
67485SOL    HW2 4353   4.057   4.597   8.500
67486SOL     OW 4354  13.069   5.330  12.159
67486SOL    HW1 4355  12.977   5.350  12.176
67486SOL    HW2 4356  13.093   5.387  12.086
67487SOL     OW 4357   5.391  13.476   0.839
67487SOL    HW1 4358   5.309  13.448   0.798
67487SOL    HW2 4359   5.412  13.559   0.795
67488SOL     OW 4360   9.668   4.249   1.830
67488SOL    HW1 4361   9.688   4.162   1.864
67488SOL    HW2 4362   9.608   4.287   1.894
67489SOL     OW 4363  12.538   7.618   9.810
67489SOL    HW1 4364  12.531   7.582   9.899
67489SOL    HW2 4365  12.587   7.553   9.761
67490SOL     OW 4366  12.552   6.977   2.244
67490SOL    HW1 4367  12.510   6.970   2.330
67490SOL    HW2 4368  12.646   6.981   2.264
67491SOL     OW 4369   9.406   7.997  11.744
67491SOL    HW1 4370   9.446   8.083  11.738
67491SOL    HW2 4371   9.314   8.015  11.765
67492SOL     OW 4372   6.936   2.525  10.210
67492SOL    HW1 4373   6.930   2.583  10.286
67492SOL    HW2 4374   6.949   2.438  10.248
67493SOL     OW 4375   1.242   8.658   6.971
67493SOL    HW1 4376   1.287   8.596   6.913
67493SOL    HW2 4377   1.306   8.727   6.986
67494SOL     OW 4378  11.201   5.497  12.477
67494SOL    HW1 4379  11.295   5.497  12.461
67494SOL    HW2 4380  11.168   5.573  12.428
67495SOL     OW 4381   2.216   7.616   1.177
67495SOL    HW1 4382   2.293   7.574   1.214
67495SOL    HW2 4383   2.251   7.687   1.123
67496SOL     OW 4384   6.343  11.354   0.966
67496SOL    HW1 4385   6.305  11.406   1.037
67496SOL    HW2 4386   6.302  11.267   0.975
67497SOL     OW 4387   3.043   1.736  10.006
67497SOL    HW1 4388   3.023   1.808  10.065
67497SOL    HW2 4389   3.068   1.779   9.924
67498SOL     OW 4390   0.585   6.038   9.566
67498SOL    HW1 4391   0.621   6.065   9.651
67498SOL    HW2 4392   0.619   6.102   9.504
67499SOL     OW 4393   8.001  10.519  10.402
67499SOL    HW1 4394   7.947  10.566  10.465
67499SOL    HW2 4395   8.015  10.581  10.331
67500SOL     OW 4396   5.185   2.092   3.702
67500SOL    HW1 4397   5.273   2.124   3.678
67500SOL    HW2 4398   5.168   2.133   3.787
67501SOL     OW 4399  13.654   9.783   3.815
67501SOL    HW1 4400  13.667   9.755   3.724
67501SOL    HW2 4401  13.725   9.845   3.831
67502SOL     OW 4402   6.533   9.664   0.000
67502SOL    HW1 4403   6.484   9.706   0.071
67502SOL    HW2 4404   6.466   9.630  14.811
67503SOL     OW 4405   2.311   1.637   9.212
67503SOL    HW1 4406   2.354   1.721   9.232
67503SOL    HW2 4407   2.377   1.587   9.164
67504SOL     OW 4408   5.286   6.752   9.481
67504SOL    HW1 4409   5.225   6.826   9.479
67504SOL    HW2 4410   5.249   6.693   9.548
67505SOL     OW 4411  11.911  11.384  10.543
67505SOL    HW1 4412  11.899  11.472  10.580
67505SOL    HW2 4413  11.908  11.398  10.448
67506SOL     OW 4414  11.431  10.899   9.073
67506SOL    HW1 4415  11.385  10.982   9.075
67506SOL    HW2 4416  11.522  10.922   9.057
67507SOL     OW 4417  10.640  11.377   6.147
67507SOL    HW1 4418  10.572  11.337   6.201
67507SOL    HW2 4419  10.596  11.399   6.065
67508SOL     OW 4420  12.666  14.124   1.573
67508SOL    HW1 4421  12.706  14.173   1.644
67508SOL    HW2 4422  12.709  14.156   1.493
67509SOL     OW 4423   5.421  12.966   3.333
67509SOL    HW1 4424   5.514  12.975   3.355
67509SOL    HW2 4425   5.417  12.978   3.238
67510SOL     OW 4426  13.617  12.354  11.310
67510SOL    HW1 4427  13.596  12.278  11.256
67510SOL    HW2 4428  13.708  12.376  11.286
67511SOL     OW 4429  11.034  10.476   4.720
67511SOL    HW1 4430  11.014  10.567   4.699
67511SOL    HW2 4431  11.112  10.456   4.668
67512SOL     OW 4432   9.242   3.626   6.781
67512SOL    HW1 4433   9.265   3.535   6.760
67512SOL    HW2 4434   9.216   3.664   6.697
67513SOL     OW 4435  11.620   7.062   5.183
67513SOL    HW1 4436  11.688   7.112   5.139
67513SOL    HW2 4437  11.667   7.017   5.254
67514SOL     OW 4438   7.816   5.135   2.867
67514SOL    HW1 4439   7.905   5.169   2.873
67514SOL    HW2 4440   7.825   5.041   2.885
67515SOL     OW 4441   8.096  12.641  13.538
67515SOL    HW1 4442   8.160  12.654  13.468
67515SOL    HW2 4443   8.147  12.650  13.619
67516SOL     OW 4444   0.603   6.226   9.397
67516SOL    HW1 4445   0.668   6.288   9.363
67516SOL    HW2 4446   0.532   6.280   9.430
67517SOL     OW 4447  10.397   9.619   3.771
67517SOL    HW1 4448  10.477   9.617   3.823
67517SOL    HW2 4449  10.427   9.628   3.681
67518SOL     OW 4450  12.694   3.815   3.911
67518SOL    HW1 4451  12.642   3.758   3.855
67518SOL    HW2 4452  12.649   3.812   3.996
67519SOL     OW 4453   2.293  13.468  14.738
67519SOL    HW1 4454   2.321  13.377  14.733
67519SOL    HW2 4455   2.325  13.498  14.823
67520SOL     OW 4456   5.900  12.548   2.756
67520SOL    HW1 4457   5.983  12.522   2.718
67520SOL    HW2 4458   5.915  12.544   2.851
67521SOL     OW 4459   6.271   9.790   6.967
67521SOL    HW1 4460   6.279   9.697   6.988
67521SOL    HW2 4461   6.350   9.830   7.004
67522SOL     OW 4462   9.033  11.521   7.665
67522SOL    HW1 4463   9.064  11.432   7.651
67522SOL    HW2 4464   9.070  11.571   7.592
67523SOL     OW 4465  10.312  12.223   4.874
67523SOL    HW1 4466  10.371  12.254   4.942
67523SOL    HW2 4467  10.273  12.143   4.910
67524SOL     OW 4468  11.681  10.449   8.019
67524SOL    HW1 4469  11.608  10.428   8.077
67524SOL    HW2 4470  11.682  10.378   7.955
67525SOL     OW 4471   3.829   5.341  14.851
67525SOL    HW1 4472   3.738   5.334   0.011
67525SOL    HW2 4473   3.851   5.254  14.818
67526SOL     OW 4474   5.958   0.583  10.294
67526SOL    HW1 4475   6.053   0.588  10.287
67526SOL    HW2 4476   5.934   0.500  10.252
67527SOL     OW 4477  11.744  13.190  14.189
67527SOL    HW1 4478  11.814  13.137  14.153
67527SOL    HW2 4479  11.789  13.262  14.234
67528SOL     OW 4480  11.573   9.975   4.072
67528SOL    HW1 4481  11.497   9.956   4.128
67528SOL    HW2 4482  11.585   9.895   4.020
67529SOL     OW 4483   5.010   1.244  12.654
67529SOL    HW1 4484   5.019   1.314  12.589
67529SOL    HW2 4485   4.983   1.168  12.604
67530SOL     OW 4486   0.411   6.576  12.892
67530SOL    HW1 4487   0.499   6.601  12.918
67530SOL    HW2 4488   0.378   6.651  12.842
67531SOL     OW 4489   5.499   4.463   0.149
67531SOL    HW1 4490   5.591   4.438   0.161
67531SOL    HW2 4491   5.468   4.486   0.236
67532SOL     OW 4492  11.492   1.844   8.626
67532SOL    HW1 4493  11.510   1.937   8.618
67532SOL    HW2 4494  11.402   1.834   8.594
67533SOL     OW 4495   9.323  13.320   6.924
67533SOL    HW1 4496   9.412  13.353   6.925
67533SOL    HW2 4497   9.318  13.263   7.000
67534SOL     OW 4498   1.755   0.105   2.416
67534SOL    HW1 4499   1.772   0.188   2.461
67534SOL    HW2 4500   1.771   0.038   2.482
67535SOL     OW 4501  10.100   3.306   7.703
67535SOL    HW1 4502  10.170   3.367   7.725
67535SOL    HW2 4503  10.142   3.240   7.649
67536SOL     OW 4504  13.556  12.138   1.763
67536SOL    HW1 4505  13.553  12.100   1.675
67536SOL    HW2 4506  13.530  12.067   1.821
67537SOL     OW 4507   5.676   2.430   2.160
67537SOL    HW1 4508   5.663   2.501   2.096
67537SOL    HW2 4509   5.672   2.350   2.108
67538SOL     OW 4510  11.052  12.593   7.113
67538SOL    HW1 4511  10.964  12.559   7.130
67538SOL    HW2 4512  11.090  12.531   7.051
67539SOL     OW 4513   7.181  11.713   4.004
67539SOL    HW1 4514   7.211  11.623   3.991
67539SOL    HW2 4515   7.261  11.763   4.017
67540SOL     OW 4516  13.302   2.232   3.340
67540SOL    HW1 4517  13.381   2.191   3.374
67540SOL    HW2 4518  13.325   2.260   3.251
67541SOL     OW 4519   4.793   9.539   2.755
67541SOL    HW1 4520   4.825   9.450   2.774
67541SOL    HW2 4521   4.833   9.594   2.822
67542SOL     OW 4522   4.100  12.320   2.604
67542SOL    HW1 4523   4.101  12.363   2.519
67542SOL    HW2 4524   4.181  12.268   2.607
67543SOL     OW 4525   0.192   3.163   3.290
67543SOL    HW1 4526   0.271   3.209   3.261
67543SOL    HW2 4527   0.129   3.232   3.311
67544SOL     OW 4528  11.450   7.934   8.927
67544SOL    HW1 4529  11.444   7.854   8.979
67544SOL    HW2 4530  11.359   7.953   8.902
67545SOL     OW 4531   6.828   9.819  13.260
67545SOL    HW1 4532   6.845   9.908  13.230
67545SOL    HW2 4533   6.831   9.767  13.179
67546SOL     OW 4534   0.641   7.532  13.453
67546SOL    HW1 4535   0.695   7.600  13.494
67546SOL    HW2 4536   0.699   7.456  13.447
67547SOL     OW 4537   3.345  12.074  11.367
67547SOL    HW1 4538   3.384  12.131  11.300
67547SOL    HW2 4539   3.415  12.064  11.433
67548SOL     OW 4540   8.505  10.317  12.078
67548SOL    HW1 4541   8.418  10.302  12.115
67548SOL    HW2 4542   8.542  10.388  12.132
67549SOL     OW 4543   8.182  14.669   7.424
67549SOL    HW1 4544   8.161  14.642   7.513
67549SOL    HW2 4545   8.274  14.694   7.427
67550SOL     OW 4546  10.323   9.613  12.637
67550SOL    HW1 4547  10.268   9.658  12.573
67550SOL    HW2 4548  10.382   9.681  12.670
67551SOL     OW 4549  10.828  12.390  13.692
67551SOL    HW1 4550  10.747  12.430  13.660
67551SOL    HW2 4551  10.867  12.456  13.749
67552SOL     OW 4552   8.929  13.752   4.402
67552SOL    HW1 4553   8.928  13.796   4.317
67552SOL    HW2 4554   8.867  13.800   4.455
67553SOL     OW 4555   0.460  12.519   4.701
67553SOL    HW1 4556   0.435  12.597   4.751
67553SOL    HW2 4557   0.470  12.450   4.766
67554SOL     OW 4558   3.218   3.815   8.366
67554SOL    HW1 4559   3.306   3.837   8.334
67554SOL    HW2 4560   3.167   3.895   8.350
67555SOL     OW 4561   3.678  11.804   7.803
67555SOL    HW1 4562   3.724  11.781   7.722
67555SOL    HW2 4563   3.733  11.870   7.845
67556SOL     OW 4564   9.452  10.411   2.213
67556SOL    HW1 4565   9.367  10.453   2.222
67556SOL    HW2 4566   9.452  10.374   2.125
67557SOL     OW 4567   9.036   8.493   0.534
67557SOL    HW1 4568   9.011   8.564   0.475
67557SOL    HW2 4569   9.092   8.534   0.600
67558SOL     OW 4570   9.222  11.673  11.193
67558SOL    HW1 4571   9.164  11.735  11.149
67558SOL    HW2 4572   9.268  11.629  11.123
67559SOL     OW 4573   3.825   6.573   8.261
67559SOL    HW1 4574   3.732   6.574   8.282
67559SOL    HW2 4575   3.839   6.489   8.218
67560SOL     OW 4576   0.888  11.888   0.538
67560SOL    HW1 4577   0.841  11.814   0.577
67560SOL    HW2 4578   0.959  11.906   0.599
67561SOL     OW 4579   7.284   8.750  14.780
67561SOL    HW1 4580   7.332   8.685  14.832
67561SOL    HW2 4581   7.205   8.704  14.752
67562SOL     OW 4582   7.577   5.561   9.146
67562SOL    HW1 4583   7.530   5.635   9.107
67562SOL    HW2 4584   7.656   5.599   9.184
67563SOL     OW 4585  13.945   6.400  12.681
67563SOL    HW1 4586  13.965   6.308  12.702
67563SOL    HW2 4587  14.027   6.446  12.697
67564SOL     OW 4588  11.662   4.430   6.201
67564SOL    HW1 4589  11.598   4.360   6.212
67564SOL    HW2 4590  11.743   4.394   6.238
67565SOL     OW 4591   4.537   4.055  13.765
67565SOL    HW1 4592   4.448   4.078  13.791
67565SOL    HW2 4593   4.539   3.960  13.766
67566SOL     OW 4594   0.908   5.753   5.092
67566SOL    HW1 4595   0.832   5.702   5.122
67566SOL    HW2 4596   0.878   5.794   5.011
67567SOL     OW 4597   7.734   1.224   4.178
67567SOL    HW1 4598   7.803   1.199   4.116
67567SOL    HW2 4599   7.652   1.206   4.132
67568SOL     OW 4600  13.322   4.738  12.664
67568SOL    HW1 4601  13.330   4.718  12.571
67568SOL    HW2 4602  13.227   4.739  12.680
67569SOL     OW 4603   1.033   3.526  13.523
67569SOL    HW1 4604   0.958   3.551  13.469
67569SOL    HW2 4605   1.070   3.449  13.478
67570SOL     OW 4606   2.180  14.372  14.259
67570SOL    HW1 4607   2.169  14.418  14.342
67570SOL    HW2 4608   2.230  14.293  14.281
67571SOL     OW 4609   6.772   8.761   3.267
67571SOL    HW1 4610   6.800   8.757   3.358
67571SOL    HW2 4611   6.798   8.848   3.238
67572SOL     OW 4612   3.584  10.318   4.341
67572SOL    HW1 4613   3.649  10.292   4.406
67572SOL    HW2 4614   3.524  10.244   4.334
67573SOL     OW 4615   7.065   3.968   2.190
67573SOL    HW1 4616   7.041   4.039   2.130
67573SOL    HW2 4617   7.130   4.007   2.248
67574SOL     OW 4618   5.839   6.970   1.775
67574SOL    HW1 4619   5.798   7.050   1.807
67574SOL    HW2 4620   5.921   6.964   1.825
67575SOL     OW 4621   4.262   7.053   4.939
67575SOL    HW1 4622   4.321   7.074   5.011
67575SOL    HW2 4623   4.316   7.066   4.860
67576SOL     OW 4624   7.401  11.799   2.455
67576SOL    HW1 4625   7.365  11.807   2.544
67576SOL    HW2 4626   7.340  11.742   2.410
67577SOL     OW 4627  12.152   4.227   2.924
67577SOL    HW1 4628  12.232   4.230   2.871
67577SOL    HW2 4629  12.117   4.316   2.918
67578SOL     OW 4630   8.503   6.078  12.820
67578SOL    HW1 4631   8.512   6.163  12.863
67578SOL    HW2 4632   8.447   6.096  12.744
67579SOL     OW 4633  13.145  14.679   2.833
67579SOL    HW1 4634  13.192  14.754   2.797
67579SOL    HW2 4635  13.071  14.717   2.881
67580SOL     OW 4636  12.559   3.792  10.701
67580SOL    HW1 4637  12.512   3.854  10.645
67580SOL    HW2 4638  12.651   3.802  10.676
67581SOL     OW 4639   2.852   4.978   4.393
67581SOL    HW1 4640   2.903   5.037   4.450
67581SOL    HW2 4641   2.764   5.016   4.393
67582SOL     OW 4642  12.781  13.365   1.994
67582SOL    HW1 4643  12.771  13.289   1.937
67582SOL    HW2 4644  12.693  13.402   2.000
67583SOL     OW 4645   1.460  13.508   4.662
67583SOL    HW1 4646   1.413  13.570   4.607
67583SOL    HW2 4647   1.552  13.536   4.658
67584SOL     OW 4648   8.951   5.165   7.374
67584SOL    HW1 4649   9.024   5.223   7.393
67584SOL    HW2 4650   8.976   5.080   7.412
67585SOL     OW 4651   0.635  11.308  10.557
67585SOL    HW1 4652   0.672  11.338  10.640
67585SOL    HW2 4653   0.663  11.375  10.494
67586SOL     OW 4654  12.860   0.276   8.424
67586SOL    HW1 4655  12.805   0.208   8.385
67586SOL    HW2 4656  12.799   0.332   8.471
67587SOL     OW 4657   7.688  14.212   1.317
67587SOL    HW1 4658   7.727  14.230   1.403
67587SOL    HW2 4659   7.674  14.117   1.316
67588SOL     OW 4660   2.623  14.427   6.856
67588SOL    HW1 4661   2.685  14.477   6.911
67588SOL    HW2 4662   2.604  14.486   6.783
67589SOL     OW 4663   9.240   7.467   9.378
67589SOL    HW1 4664   9.186   7.509   9.311
67589SOL    HW2 4665   9.316   7.434   9.331
67590SOL     OW 4666  14.313   2.374   1.089
67590SOL    HW1 4667  14.334   2.346   1.178
67590SOL    HW2 4668  14.233   2.426   1.099
67591SOL     OW 4669   5.718  10.476  14.806
67591SOL    HW1 4670   5.779  10.411  14.770
67591SOL    HW2 4671   5.774  10.548  14.834
67592SOL     OW 4672   9.505   5.773   4.216
67592SOL    HW1 4673   9.523   5.681   4.198
67592SOL    HW2 4674   9.592   5.812   4.229
67593SOL     OW 4675   7.955   4.054   2.904
67593SOL    HW1 4676   7.964   4.141   2.942
67593SOL    HW2 4677   7.873   4.058   2.854
67594SOL     OW 4678  11.336  10.479   2.848
67594SOL    HW1 4679  11.349  10.411   2.782
67594SOL    HW2 4680  11.422  10.490   2.888
67595SOL     OW 4681   2.163  10.393   5.315
67595SOL    HW1 4682   2.088  10.355   5.269
67595SOL    HW2 4683   2.232  10.396   5.250
67596SOL     OW 4684   0.700  12.153   6.748
67596SOL    HW1 4685   0.642  12.226   6.770
67596SOL    HW2 4686   0.778  12.194   6.711
67597SOL     OW 4687  14.097   5.513   1.467
67597SOL    HW1 4688  14.184   5.485   1.440
67597SOL    HW2 4689  14.112   5.570   1.543
67598SOL     OW 4690   4.994  12.554   4.847
67598SOL    HW1 4691   4.947  12.471   4.848
67598SOL    HW2 4692   5.085  12.531   4.867
67599SOL     OW 4693   1.498  11.934   3.025
67599SOL    HW1 4694   1.508  11.844   3.054
67599SOL    HW2 4695   1.556  11.984   3.083
67600SOL     OW 4696   5.046   6.419   8.902
67600SOL    HW1 4697   5.055   6.507   8.864
67600SOL    HW2 4698   5.106   6.419   8.976
67601SOL     OW 4699  13.789  13.161   0.835
67601SOL    HW1 4700  13.771  13.255   0.831
67601SOL    HW2 4701  13.752  13.127   0.753
67602SOL     OW 4702   9.901  13.295  10.398
67602SOL    HW1 4703   9.965  13.290  10.469
67602SOL    HW2 4704   9.933  13.233  10.332
67603SOL     OW 4705  14.483   2.331   6.581
67603SOL    HW1 4706  14.449   2.405   6.632
67603SOL    HW2 4707  14.565   2.362   6.545
67604SOL     OW 4708   7.312  10.108   2.914
67604SOL    HW1 4709   7.289  10.133   3.004
67604SOL    HW2 4710   7.242  10.047   2.888
67605SOL     OW 4711  10.835   7.732  14.831
67605SOL    HW1 4712  10.847   7.715   0.055
67605SOL    HW2 4713  10.772   7.666  14.803
67606SOL     OW 4714   6.429   4.875  10.959
67606SOL    HW1 4715   6.369   4.900  11.030
67606SOL    HW2 4716   6.511   4.854  11.004
67607SOL     OW 4717   2.343  10.930  13.855
67607SOL    HW1 4718   2.322  10.953  13.765
67607SOL    HW2 4719   2.373  10.840  13.851
67608SOL     OW 4720   9.409  13.035   8.062
67608SOL    HW1 4721   9.354  12.975   8.011
67608SOL    HW2 4722   9.419  12.991   8.146
67609SOL     OW 4723   5.490  10.411  14.350
67609SOL    HW1 4724   5.492  10.469  14.426
67609SOL    HW2 4725   5.568  10.357  14.359
67610SOL     OW 4726   7.146   2.219   6.681
67610SOL    HW1 4727   7.118   2.138   6.638
67610SOL    HW2 4728   7.076   2.281   6.663
67611SOL     OW 4729  14.844   1.118   6.131
67611SOL    HW1 4730  14.818   1.031   6.161
67611SOL    HW2 4731  14.808   1.125   6.043
67612SOL     OW 4732   7.663   0.039   0.314
67612SOL    HW1 4733   7.673   0.126   0.275
67612SOL    HW2 4734   7.747  14.866   0.298
67613SOL     OW 4735  11.956  13.461   2.693
67613SOL    HW1 4736  12.046  13.436   2.671
67613SOL    HW2 4737  11.957  13.557   2.692
67614SOL     OW 4738  12.722  12.952   8.890
67614SOL    HW1 4739  12.629  12.937   8.907
67614SOL    HW2 4740  12.732  12.938   8.795
67615SOL     OW 4741   1.006   2.423   5.712
67615SOL    HW1 4742   0.914   2.447   5.699
67615SOL    HW2 4743   1.018   2.426   5.806
67616SOL     OW 4744   6.977   4.853   9.269
67616SOL    HW1 4745   7.016   4.919   9.212
67616SOL    HW2 4746   6.934   4.903   9.339
67617SOL     OW 4747   0.224   2.254  11.779
67617SOL    HW1 4748   0.163   2.280  11.709
67617SOL    HW2 4749   0.302   2.224  11.732
67618SOL     OW 4750  14.500  14.491   4.341
67618SOL    HW1 4751  14.546  14.454   4.265
67618SOL    HW2 4752  14.415  14.447   4.341
67619SOL     OW 4753   4.897   2.188   2.386
67619SOL    HW1 4754   4.961   2.118   2.396
67619SOL    HW2 4755   4.816   2.154   2.424
67620SOL     OW 4756  12.813  14.852   9.496
67620SOL    HW1 4757  12.879  14.857   9.565
67620SOL    HW2 4758  12.736  14.814   9.539
67621SOL     OW 4759   2.739   3.528  10.705
67621SOL    HW1 4760   2.800   3.536  10.779
67621SOL    HW2 4761   2.665   3.583  10.729
67622SOL     OW 4762  11.620   6.542   6.501
67622SOL    HW1 4763  11.608   6.550   6.406
67622SOL    HW2 4764  11.621   6.447   6.517
67623SOL     OW 4765   0.080   5.231  11.534
67623SOL    HW1 4766   0.131   5.164  11.490
67623SOL    HW2 4767   0.140   5.269  11.599
67624SOL     OW 4768   2.940   4.997  11.961
67624SOL    HW1 4769   2.851   4.969  11.986
67624SOL    HW2 4770   2.976   4.923  11.914
67625SOL     OW 4771   8.538   1.136   0.254
67625SOL    HW1 4772   8.587   1.167   0.331
67625SOL    HW2 4773   8.573   1.050   0.236
67626SOL     OW 4774   9.377   3.882  11.043
67626SOL    HW1 4775   9.471   3.866  11.048
67626SOL    HW2 4776   9.358   3.881  10.950
67627SOL     OW 4777  10.589   8.149   4.392
67627SOL    HW1 4778  10.521   8.101   4.344
67627SOL    HW2 4779  10.572   8.129   4.484
67628SOL     OW 4780   0.219  12.496   3.333
67628SOL    HW1 4781   0.293  12.437   3.321
67628SOL    HW2 4782   0.198  12.528   3.245
67629SOL     OW 4783   1.369   7.997   8.528
67629SOL    HW1 4784   1.431   7.949   8.472
67629SOL    HW2 4785   1.422   8.065   8.570
67630SOL     OW 4786  11.644  12.027  10.869
67630SOL    HW1 4787  11.576  12.094  10.866
67630SOL    HW2 4788  11.604  11.954  10.915
67631SOL     OW 4789   2.098  10.542   6.666
67631SOL    HW1 4790   2.134  10.544   6.578
67631SOL    HW2 4791   2.015  10.496   6.657
67632SOL     OW 4792  11.661  13.441   6.372
67632SOL    HW1 4793  11.682  13.361   6.324
67632SOL    HW2 4794  11.580  13.421   6.420
67633SOL     OW 4795   8.196   9.371   1.386
67633SOL    HW1 4796   8.252   9.427   1.440
67633SOL    HW2 4797   8.249   9.351   1.309
67634SOL     OW 4798   4.330   6.366   3.015
67634SOL    HW1 4799   4.340   6.332   3.104
67634SOL    HW2 4800   4.318   6.289   2.960
67635SOL     OW 4801   6.005   8.290  10.257
67635SOL    HW1 4802   5.989   8.299  10.163
67635SOL    HW2 4803   6.057   8.210  10.265
67636SOL     OW 4804  13.797   0.807  12.494
67636SOL    HW1 4805  13.723   0.867  12.480
67636SOL    HW2 4806  13.766   0.747  12.563
67637SOL     OW 4807   8.030   5.919  10.539
67637SOL    HW1 4808   7.984   5.984  10.592
67637SOL    HW2 4809   8.013   5.946  10.449
67638SOL     OW 4810  12.473   9.063   9.207
67638SOL    HW1 4811  12.559   9.091   9.174
67638SOL    HW2 4812  12.493   9.017   9.288
67639SOL     OW 4813   1.423   5.499   0.384
67639SOL    HW1 4814   1.498   5.451   0.348
67639SOL    HW2 4815   1.447   5.516   0.475
67640SOL     OW 4816  12.399  14.860   7.744
67640SOL    HW1 4817  12.487  14.843   7.711
67640SOL    HW2 4818  12.345  14.867   7.666
67641SOL     OW 4819  12.410  10.864   2.554
67641SOL    HW1 4820  12.460  10.932   2.510
67641SOL    HW2 4821  12.356  10.825   2.485
67642SOL     OW 4822  10.267   4.281  13.286
67642SOL    HW1 4823  10.193   4.336  13.313
67642SOL    HW2 4824  10.308   4.254  13.369
67643SOL     OW 4825   3.446   6.253   2.726
67643SOL    HW1 4826   3.526   6.248   2.779
67643SOL    HW2 4827   3.435   6.346   2.706
67644SOL     OW 4828  11.069  12.018   5.911
67644SOL    HW1 4829  11.144  12.011   5.970
67644SOL    HW2 4830  11.033  12.105   5.927
67645SOL     OW 4831   9.836   0.291   8.670
67645SOL    HW1 4832   9.799   0.379   8.674
67645SOL    HW2 4833   9.896   0.288   8.745
67646SOL     OW 4834  12.011   1.163   3.887
67646SOL    HW1 4835  12.089   1.182   3.833
67646SOL    HW2 4836  11.973   1.249   3.905
67647SOL     OW 4837   3.235   8.253  13.955
67647SOL    HW1 4838   3.225   8.234  13.862
67647SOL    HW2 4839   3.259   8.346  13.958
67648SOL     OW 4840  10.051  12.227   3.727
67648SOL    HW1 4841  10.115  12.298   3.736
67648SOL    HW2 4842  10.091  12.166   3.665
67649SOL     OW 4843   1.657   2.203   4.443
67649SOL    HW1 4844   1.637   2.232   4.354
67649SOL    HW2 4845   1.738   2.251   4.466
67650SOL     OW 4846  14.146  14.627   7.041
67650SOL    HW1 4847  14.141  14.653   6.949
67650SOL    HW2 4848  14.086  14.553   7.048
67651SOL     OW 4849   6.328  14.855   3.927
67651SOL    HW1 4850   6.388   0.008   3.856
67651SOL    HW2 4851   6.318   0.066   3.978
67652SOL     OW 4852   0.234   9.750   8.067
67652SOL    HW1 4853   0.308   9.707   8.110
67652SOL    HW2 4854   0.156   9.711   8.107
67653SOL     OW 4855   8.828   0.506   0.019
67653SOL    HW1 4856   8.816   0.599  14.868
67653SOL    HW2 4857   8.922   0.493   0.021
67654SOL     OW 4858   4.132  12.840  11.074
67654SOL    HW1 4859   4.194  12.774  11.043
67654SOL    HW2 4860   4.049  12.793  11.085
67655SOL     OW 4861   3.555   6.273   1.466
67655SOL    HW1 4862   3.631   6.223   1.496
67655SOL    HW2 4863   3.587   6.364   1.463
67656SOL     OW 4864   9.499   3.202   6.015
67656SOL    HW1 4865   9.464   3.117   5.988
67656SOL    HW2 4866   9.531   3.188   6.104
67657SOL     OW 4867   7.531  13.294  10.865
67657SOL    HW1 4868   7.555  13.252  10.782
67657SOL    HW2 4869   7.610  13.339  10.893
67658SOL     OW 4870   4.362   5.753   0.665
67658SOL    HW1 4871   4.457   5.766   0.664
67658SOL    HW2 4872   4.333   5.781   0.579
67659SOL     OW 4873   9.050  13.002   9.476
67659SOL    HW1 4874   9.074  13.094   9.474
67659SOL    HW2 4875   8.968  13.000   9.526
67660SOL     OW 4876  13.706   3.969   0.469
67660SOL    HW1 4877  13.780   4.003   0.519
67660SOL    HW2 4878  13.742   3.951   0.382
67661SOL     OW 4879   1.972   5.240   2.892
67661SOL    HW1 4880   2.016   5.175   2.947
67661SOL    HW2 4881   1.901   5.273   2.947
67662SOL     OW 4882  14.581  13.973   8.374
67662SOL    HW1 4883  14.554  13.939   8.459
67662SOL    HW2 4884  14.675  13.952   8.368
67663SOL     OW 4885   7.371   1.302   8.593
67663SOL    HW1 4886   7.317   1.288   8.670
67663SOL    HW2 4887   7.461   1.289   8.624
67664SOL     OW 4888   3.525  14.312   0.395
67664SOL    HW1 4889   3.540  14.361   0.476
67664SOL    HW2 4890   3.577  14.358   0.329
67665SOL     OW 4891  10.155   9.305   5.001
67665SOL    HW1 4892  10.181   9.216   4.977
67665SOL    HW2 4893  10.214   9.361   4.950
67666SOL     OW 4894   7.144   3.934  10.884
67666SOL    HW1 4895   7.069   3.986  10.855
67666SOL    HW2 4896   7.198   3.995  10.935
67667SOL     OW 4897   1.322   5.865  13.816
67667SOL    HW1 4898   1.409   5.849  13.852
67667SOL    HW2 4899   1.337   5.884  13.724
67668SOL     OW 4900   2.834  11.413  10.628
67668SOL    HW1 4901   2.898  11.415  10.556
67668SOL    HW2 4902   2.839  11.324  10.662
67669SOL     OW 4903  13.041   5.343  10.849
67669SOL    HW1 4904  12.963   5.303  10.811
67669SOL    HW2 4905  13.040   5.433  10.818
67670SOL     OW 4906   7.379  10.233   7.772
67670SOL    HW1 4907   7.402  10.321   7.741
67670SOL    HW2 4908   7.461  10.184   7.769
67671SOL     OW 4909   6.066   5.398  14.772
67671SOL    HW1 4910   6.002   5.336  14.740
67671SOL    HW2 4911   6.041   5.413  14.864
67672SOL     OW 4912   6.019   5.885   2.960
67672SOL    HW1 4913   6.072   5.906   2.883
67672SOL    HW2 4914   6.083   5.873   3.031
67673SOL     OW 4915   7.663   4.412  14.294
67673SOL    HW1 4916   7.629   4.328  14.324
67673SOL    HW2 4917   7.716   4.390  14.217
67674SOL     OW 4918  10.315  13.206  13.331
67674SOL    HW1 4919  10.324  13.168  13.244
67674SOL    HW2 4920  10.262  13.142  13.379
67675SOL     OW 4921   9.450   7.975  11.115
67675SOL    HW1 4922   9.419   7.974  11.205
67675SOL    HW2 4923   9.545   7.988  11.123
67676SOL     OW 4924  10.273  11.910  11.292
67676SOL    HW1 4925  10.194  11.949  11.254
67676SOL    HW2 4926  10.284  11.828  11.245
67677SOL     OW 4927   8.573   2.957   2.354
67677SOL    HW1 4928   8.558   3.018   2.282
67677SOL    HW2 4929   8.502   2.975   2.416
67678SOL     OW 4930   8.217  13.994  12.796
67678SOL    HW1 4931   8.163  13.917  12.780
67678SOL    HW2 4932   8.161  14.069  12.776
67679SOL     OW 4933   8.882   7.105   8.140
67679SOL    HW1 4934   8.815   7.060   8.089
67679SOL    HW2 4935   8.861   7.198   8.130
67680SOL     OW 4936   7.620  12.852  11.395
67680SOL    HW1 4937   7.553  12.783  11.393
67680SOL    HW2 4938   7.689  12.818  11.451
67681SOL     OW 4939   0.772  11.514  10.385
67681SOL    HW1 4940   0.758  11.552  10.299
67681SOL    HW2 4941   0.867  11.501  10.391
67682SOL     OW 4942   3.001   8.377   5.728
67682SOL    HW1 4943   2.992   8.446   5.793
67682SOL    HW2 4944   3.081   8.399   5.680
67683SOL     OW 4945   9.298   6.016  12.382
67683SOL    HW1 4946   9.249   6.083  12.430
67683SOL    HW2 4947   9.254   5.934  12.404
67684SOL     OW 4948   1.998   9.470   8.421
67684SOL    HW1 4949   1.954   9.448   8.338
67684SOL    HW2 4950   2.043   9.390   8.446
67685SOL     OW 4951   7.454   7.999   8.310
67685SOL    HW1 4952   7.386   7.944   8.270
67685SOL    HW2 4953   7.497   8.042   8.236
67686SOL     OW 4954  10.256   1.224  14.708
67686SOL    HW1 4955  10.274   1.296  14.646
67686SOL    HW2 4956  10.279   1.145  14.659
67687SOL     OW 4957  11.790  10.167   1.234
67687SOL    HW1 4958  11.842  10.153   1.312
67687SOL    HW2 4959  11.839  10.125   1.164
67688SOL     OW 4960  11.821   2.067  11.390
67688SOL    HW1 4961  11.741   2.118  11.383
67688SOL    HW2 4962  11.871   2.089  11.311
67689SOL     OW 4963   6.658  11.947   8.052
67689SOL    HW1 4964   6.603  12.025   8.047
67689SOL    HW2 4965   6.597  11.877   8.077
67690SOL     OW 4966  12.960   8.998   3.459
67690SOL    HW1 4967  12.908   8.943   3.517
67690SOL    HW2 4968  12.896   9.040   3.402
67691SOL     OW 4969   7.497  14.815   1.505
67691SOL    HW1 4970   7.576  14.766   1.526
67691SOL    HW2 4971   7.441  14.753   1.458
67692SOL     OW 4972   6.642   9.167  14.145
67692SOL    HW1 4973   6.704   9.155  14.073
67692SOL    HW2 4974   6.649   9.260  14.168
67693SOL     OW 4975  11.909  13.994  12.423
67693SOL    HW1 4976  11.895  13.921  12.363
67693SOL    HW2 4977  11.988  13.970  12.472
67694SOL     OW 4978   0.894  13.022   9.379
67694SOL    HW1 4979   0.915  13.087   9.445
67694SOL    HW2 4980   0.968  12.961   9.381
67695SOL     OW 4981  13.628   5.978   2.332
67695SOL    HW1 4982  13.572   5.998   2.257
67695SOL    HW2 4983  13.606   6.044   2.397
67696SOL     OW 4984   4.369   2.221  13.626
67696SOL    HW1 4985   4.461   2.196  13.628
67696SOL    HW2 4986   4.326   2.159  13.685
67697SOL     OW 4987   9.478  12.347   6.120
67697SOL    HW1 4988   9.447  12.289   6.190
67697SOL    HW2 4989   9.460  12.435   6.152
67698SOL     OW 4990   5.940   9.541   4.429
67698SOL    HW1 4991   5.919   9.578   4.516
67698SOL    HW2 4992   5.931   9.615   4.369
67699SOL     OW 4993   1.875   9.099   5.040
67699SOL    HW1 4994   1.852   9.016   4.997
67699SOL    HW2 4995   1.965   9.087   5.070
67700SOL     OW 4996  10.878   8.176  12.279
67700SOL    HW1 4997  10.787   8.202  12.269
67700SOL    HW2 4998  10.928   8.257  12.268
67701SOL     OW 4999   6.866   2.806   5.546
67701SOL    HW1 5000   6.813   2.815   5.467
67701SOL    HW2 5001   6.807   2.767   5.611
67702SOL     OW 5002  13.165  11.752   0.654
67702SOL    HW1 5003  13.191  11.800   0.576
67702SOL    HW2 5004  13.072  11.770   0.664
67703SOL     OW 5005   7.426   7.752   0.860
67703SOL    HW1 5006   7.467   7.702   0.930
67703SOL    HW2 5007   7.368   7.690   0.817
67704SOL     OW 5008   6.106  14.782  14.130
67704SOL    HW1 5009   6.193  14.818  14.147
67704SOL    HW2 5010   6.113  14.745  14.042
67705SOL     OW 5011  14.816   9.733   4.909
67705SOL    HW1 5012  14.726   9.742   4.879
67705SOL    HW2 5013  14.818   9.649   4.955
67706SOL     OW 5014   4.893   7.621  14.590
67706SOL    HW1 5015   4.883   7.714  14.571
67706SOL    HW2 5016   4.966   7.616  14.652
67707SOL     OW 5017   7.682   7.154   3.387
67707SOL    HW1 5018   7.640   7.237   3.362
67707SOL    HW2 5019   7.765   7.180   3.426
67708SOL     OW 5020   1.531   1.359  10.756
67708SOL    HW1 5021   1.559   1.286  10.811
67708SOL    HW2 5022   1.609   1.382  10.706
67709SOL     OW 5023  12.161   2.658  10.332
67709SOL    HW1 5024  12.184   2.584  10.276
67709SOL    HW2 5025  12.077   2.689  10.298
67710SOL     OW 5026   5.884  14.401  10.314
67710SOL    HW1 5027   5.802  14.354  10.295
67710SOL    HW2 5028   5.866  14.450  10.394
67711SOL     OW 5029   8.811   2.201  14.176
67711SOL    HW1 5030   8.878   2.142  14.143
67711SOL    HW2 5031   8.855   2.286  14.181
67712SOL     OW 5032   0.551  12.155  14.177
67712SOL    HW1 5033   0.606  12.077  14.184
67712SOL    HW2 5034   0.566  12.203  14.258
67713SOL     OW 5035   5.382   8.601   4.610
67713SOL    HW1 5036   5.398   8.548   4.688
67713SOL    HW2 5037   5.459   8.587   4.555
67714SOL     OW 5038   0.045   8.664   3.922
67714SOL    HW1 5039   0.132   8.689   3.951
67714SOL    HW2 5040   0.049   8.664   3.827
67715SOL     OW 5041   5.697   1.993   6.925
67715SOL    HW1 5042   5.615   2.033   6.954
67715SOL    HW2 5043   5.762   2.024   6.988
67716SOL     OW 5044   7.048   4.942  10.197
67716SOL    HW1 5045   7.080   4.854  10.219
67716SOL    HW2 5046   6.958   4.927  10.168
67717SOL     OW 5047   4.228   3.130   4.074
67717SOL    HW1 5048   4.143   3.161   4.104
67717SOL    HW2 5049   4.291   3.193   4.109
67718SOL     OW 5050   6.282   6.207  12.897
67718SOL    HW1 5051   6.228   6.155  12.837
67718SOL    HW2 5052   6.353   6.242  12.842
67719SOL     OW 5053   2.571   6.793   6.155
67719SOL    HW1 5054   2.519   6.784   6.075
67719SOL    HW2 5055   2.536   6.725   6.214
67720SOL     OW 5056  13.960   9.459   1.914
67720SOL    HW1 5057  14.021   9.520   1.955
67720SOL    HW2 5058  13.890   9.448   1.979
67721SOL     OW 5059   5.363   3.681  10.526
67721SOL    HW1 5060   5.273   3.679  10.557
67721SOL    HW2 5061   5.370   3.763  10.476
67722SOL     OW 5062  13.493   6.549   3.092
67722SOL    HW1 5063  13.486   6.514   3.003
67722SOL    HW2 5064  13.587   6.554   3.109
67723SOL     OW 5065   5.033  13.308  13.371
67723SOL    HW1 5066   5.015  13.237  13.432
67723SOL    HW2 5067   5.004  13.275  13.286
67724SOL     OW 5068   3.365   4.760  12.597
67724SOL    HW1 5069   3.394   4.823  12.663
67724SOL    HW2 5070   3.322   4.691  12.646
67725SOL     OW 5071   3.612  11.697   4.962
67725SOL    HW1 5072   3.589  11.677   4.871
67725SOL    HW2 5073   3.533  11.679   5.012
67726SOL     OW 5074   6.788  11.442   5.707
67726SOL    HW1 5075   6.835  11.384   5.646
67726SOL    HW2 5076   6.853  11.465   5.773
67727SOL     OW 5077  13.777   6.022   3.923
67727SOL    HW1 5078  13.805   5.935   3.951
67727SOL    HW2 5079  13.703   6.044   3.980
67728SOL     OW 5080   3.258   7.194   0.857
67728SOL    HW1 5081   3.229   7.268   0.803
67728SOL    HW2 5082   3.353   7.199   0.856
67729SOL     OW 5083   4.330   3.066   0.855
67729SOL    HW1 5084   4.310   3.069   0.762
67729SOL    HW2 5085   4.418   3.104   0.861
67730SOL     OW 5086   9.306   8.049  12.323
67730SOL    HW1 5087   9.227   8.016  12.365
67730SOL    HW2 5088   9.293   8.032  12.230
67731SOL     OW 5089   2.667   9.213   9.348
67731SOL    HW1 5090   2.698   9.188   9.435
67731SOL    HW2 5091   2.573   9.230   9.360
67732SOL     OW 5092   0.071   6.807  14.553
67732SOL    HW1 5093   0.147   6.826  14.499
67732SOL    HW2 5094   0.065   6.712  14.554
67733SOL     OW 5095   1.339   8.348   9.996
67733SOL    HW1 5096   1.427   8.311   9.994
67733SOL    HW2 5097   1.346   8.425  10.052
67734SOL     OW 5098   8.872   6.204   0.297
67734SOL    HW1 5099   8.914   6.275   0.247
67734SOL    HW2 5100   8.944   6.148   0.325
67735SOL     OW 5101   5.907  13.511   8.366
67735SOL    HW1 5102   5.899  13.461   8.284
67735SOL    HW2 5103   5.851  13.465   8.428
67736SOL     OW 5104  13.849  10.805  12.772
67736SOL    HW1 5105  13.901  10.751  12.831
67736SOL    HW2 5106  13.831  10.885  12.821
67737SOL     OW 5107   7.970  13.602  14.831
67737SOL    HW1 5108   8.011  13.558   0.036
67737SOL    HW2 5109   8.037  13.601  14.763
67738SOL     OW 5110  13.953   1.736   4.470
67738SOL    HW1 5111  13.961   1.802   4.539
67738SOL    HW2 5112  14.030   1.750   4.415
67739SOL     OW 5113   3.635  13.347   0.245
67739SOL    HW1 5114   3.701  13.416   0.256
67739SOL    HW2 5115   3.660  13.279   0.308
67740SOL     OW 5116   9.080   7.693   4.767
67740SOL    HW1 5117   9.003   7.724   4.815
67740SOL    HW2 5118   9.097   7.761   4.703
67741SOL     OW 5119  12.340   8.315   0.826
67741SOL    HW1 5120  12.387   8.394   0.800
67741SOL    HW2 5121  12.266   8.347   0.877
67742SOL     OW 5122   5.463   2.828   3.897
67742SOL    HW1 5123   5.420   2.883   3.831
67742SOL    HW2 5124   5.391   2.780   3.938
67743SOL     OW 5125   0.324   0.794  12.538
67743SOL    HW1 5126   0.411   0.830  12.558
67743SOL    HW2 5127   0.289   0.853  12.472
67744SOL     OW 5128  14.030  13.219   3.209
67744SOL    HW1 5129  13.994  13.238   3.295
67744SOL    HW2 5130  13.956  13.184   3.159
67745SOL     OW 5131   4.639   7.268   7.560
67745SOL    HW1 5132   4.604   7.345   7.605
67745SOL    HW2 5133   4.615   7.195   7.617
67746SOL     OW 5134   8.047   7.091   3.395
67746SOL    HW1 5135   8.091   7.146   3.331
67746SOL    HW2 5136   8.058   7.002   3.363
67747SOL     OW 5137  12.616  13.340  10.203
67747SOL    HW1 5138  12.588  13.343  10.111
67747SOL    HW2 5139  12.664  13.421  10.217
67748SOL     OW 5140   3.192  12.383   5.301
67748SOL    HW1 5141   3.260  12.338   5.351
67748SOL    HW2 5142   3.124  12.403   5.365
67749SOL     OW 5143   4.632   9.394   0.215
67749SOL    HW1 5144   4.558   9.334   0.219
67749SOL    HW2 5145   4.593   9.481   0.221
67750SOL     OW 5146  12.397  13.258   9.896
67750SOL    HW1 5147  12.357  13.259   9.983
67750SOL    HW2 5148  12.432  13.169   9.888
67751SOL     OW 5149  14.017   6.590   4.253
67751SOL    HW1 5150  14.041   6.682   4.262
67751SOL    HW2 5151  14.100   6.544   4.241
67752SOL     OW 5152  13.463   1.376  12.694
67752SOL    HW1 5153  13.513   1.405  12.771
67752SOL    HW2 5154  13.505   1.421  12.620
67753SOL     OW 5155   4.009  13.779   2.389
67753SOL    HW1 5156   3.975  13.788   2.300
67753SOL    HW2 5157   3.935  13.745   2.439
67754SOL     OW 5158  12.457   5.959   4.894
67754SOL    HW1 5159  12.541   5.943   4.937
67754SOL    HW2 5160  12.415   6.026   4.947
67755SOL     OW 5161   2.479   3.125  14.136
67755SOL    HW1 5162   2.526   3.190  14.189
67755SOL    HW2 5163   2.388   3.153  14.141
67756SOL     OW 5164   9.366   6.993  12.414
67756SOL    HW1 5165   9.368   7.088  12.422
67756SOL    HW2 5166   9.341   6.962  12.501
67757SOL     OW 5167   0.629   9.744   5.655
67757SOL    HW1 5168   0.719   9.767   5.680
67757SOL    HW2 5169   0.577   9.762   5.734
67758SOL     OW 5170   0.899   9.529   9.839
67758SOL    HW1 5171   0.952   9.569   9.908
67758SOL    HW2 5172   0.962   9.483   9.783
67759SOL     OW 5173   7.098  13.496   0.059
67759SOL    HW1 5174   7.004  13.495   0.037
67759SOL    HW2 5175   7.125  13.404   0.055
67760SOL     OW 5176   4.812   8.564   3.094
67760SOL    HW1 5177   4.736   8.622   3.100
67760SOL    HW2 5178   4.830   8.560   3.000
67761SOL     OW 5179  12.980   0.951  12.593
67761SOL    HW1 5180  12.942   0.950  12.681
67761SOL    HW2 5181  13.021   1.037  12.585
67762SOL     OW 5182   7.310   2.592   7.239
67762SOL    HW1 5183   7.319   2.681   7.273
67762SOL    HW2 5184   7.373   2.540   7.289
67763SOL     OW 5185   4.747   1.954   2.296
67763SOL    HW1 5186   4.782   1.901   2.224
67763SOL    HW2 5187   4.693   2.020   2.252
67764SOL     OW 5188   0.613   0.725   2.678
67764SOL    HW1 5189   0.552   0.726   2.752
67764SOL    HW2 5190   0.695   0.757   2.715
67765SOL     OW 5191  14.058   4.997   9.617
67765SOL    HW1 5192  14.044   4.948   9.698
67765SOL    HW2 5193  13.972   5.033   9.596
67766SOL     OW 5194   9.639   6.420  13.853
67766SOL    HW1 5195   9.630   6.325  13.859
67766SOL    HW2 5196   9.627   6.440  13.760
67767SOL     OW 5197   2.519   8.044  11.529
67767SOL    HW1 5198   2.425   8.031  11.543
67767SOL    HW2 5199   2.561   8.004  11.605
67768SOL     OW 5200  14.098   4.857   0.855
67768SOL    HW1 5201  14.038   4.788   0.826
67768SOL    HW2 5202  14.130   4.896   0.773
67769SOL     OW 5203   0.852   4.332  13.764
67769SOL    HW1 5204   0.855   4.245  13.803
67769SOL    HW2 5205   0.944   4.353  13.748
67770SOL     OW 5206   2.444   9.483  14.478
67770SOL    HW1 5207   2.518   9.429  14.450
67770SOL    HW2 5208   2.415   9.442  14.559
67771SOL     OW 5209   0.592   4.258   8.486
67771SOL    HW1 5210   0.576   4.192   8.419
67771SOL    HW2 5211   0.510   4.260   8.537
67772SOL     OW 5212  11.597   4.264   2.911
67772SOL    HW1 5213  11.685   4.285   2.880
67772SOL    HW2 5214  11.557   4.348   2.932
67773SOL     OW 5215  12.581   4.317   3.779
67773SOL    HW1 5216  12.643   4.249   3.806
67773SOL    HW2 5217  12.522   4.272   3.718
67774SOL     OW 5218   6.993   9.577   4.345
67774SOL    HW1 5219   6.928   9.637   4.381
67774SOL    HW2 5220   6.943   9.502   4.312
67775SOL     OW 5221   7.021   7.661   8.069
67775SOL    HW1 5222   6.974   7.721   8.010
67775SOL    HW2 5223   7.062   7.598   8.010
67776SOL     OW 5224   3.510   4.407   7.295
67776SOL    HW1 5225   3.459   4.485   7.273
67776SOL    HW2 5226   3.582   4.440   7.348
67777SOL     OW 5227   1.701  13.568  12.326
67777SOL    HW1 5228   1.682  13.652  12.368
67777SOL    HW2 5229   1.642  13.506  12.369
67778SOL     OW 5230  12.499   6.831   3.113
67778SOL    HW1 5231  12.537   6.752   3.152
67778SOL    HW2 5232  12.575   6.885   3.089
67779SOL     OW 5233  10.160   4.037  10.321
67779SOL    HW1 5234  10.151   3.943  10.338
67779SOL    HW2 5235  10.117   4.079  10.396
67780SOL     OW 5236  11.406  10.134   9.328
67780SOL    HW1 5237  11.400  10.173   9.415
67780SOL    HW2 5238  11.344  10.183   9.275
67781SOL     OW 5239  13.881   3.282  10.889
67781SOL    HW1 5240  13.787   3.300  10.894
67781SOL    HW2 5241  13.908   3.318  10.805
67782SOL     OW 5242   6.519  13.810  11.937
67782SOL    HW1 5243   6.566  13.727  11.928
67782SOL    HW2 5244   6.455  13.794  12.007
67783SOL     OW 5245   4.538   2.015  14.728
67783SOL    HW1 5246   4.599   2.069  14.778
67783SOL    HW2 5247   4.585   1.993  14.648
67784SOL     OW 5248   7.079   0.390   5.378
67784SOL    HW1 5249   7.126   0.317   5.418
67784SOL    HW2 5250   7.063   0.451   5.450
67785SOL     OW 5251   4.040  11.916   9.057
67785SOL    HW1 5252   4.131  11.947   9.056
67785SOL    HW2 5253   4.046  11.822   9.070
67786SOL     OW 5254   3.797   5.453   1.285
67786SOL    HW1 5255   3.739   5.382   1.258
67786SOL    HW2 5256   3.776   5.525   1.226
67787SOL     OW 5257   1.990  11.988   4.144
67787SOL    HW1 5258   1.953  12.075   4.129
67787SOL    HW2 5259   2.017  11.958   4.057
67788SOL     OW 5260  12.946  13.137   0.435
67788SOL    HW1 5261  13.005  13.173   0.368
67788SOL    HW2 5262  12.859  13.169   0.409
67789SOL     OW 5263  11.788   7.179   6.356
67789SOL    HW1 5264  11.861   7.188   6.418
67789SOL    HW2 5265  11.721   7.133   6.406
67790SOL     OW 5266  13.596  11.340   0.805
67790SOL    HW1 5267  13.642  11.399   0.865
67790SOL    HW2 5268  13.565  11.269   0.861
67791SOL     OW 5269   3.390  11.350  12.995
67791SOL    HW1 5270   3.338  11.288  12.945
67791SOL    HW2 5271   3.408  11.304  13.078
67792SOL     OW 5272  10.649   1.599  11.747
67792SOL    HW1 5273  10.634   1.582  11.654
67792SOL    HW2 5274  10.564   1.625  11.781
67793SOL     OW 5275   9.948  14.609   4.282
67793SOL    HW1 5276   9.870  14.657   4.255
67793SOL    HW2 5277   9.915  14.540   4.340
67794SOL     OW 5278  11.954  11.158   8.832
67794SOL    HW1 5279  12.009  11.225   8.793
67794SOL    HW2 5280  11.867  11.198   8.838
67795SOL     OW 5281   9.415   3.694   4.254
67795SOL    HW1 5282   9.486   3.709   4.191
67795SOL    HW2 5283   9.404   3.599   4.255
67796SOL     OW 5284   4.203   8.032   6.203
67796SOL    HW1 5285   4.223   8.015   6.295
67796SOL    HW2 5286   4.251   7.964   6.155
67797SOL     OW 5287   9.201   4.880  13.963
67797SOL    HW1 5288   9.165   4.819  13.898
67797SOL    HW2 5289   9.193   4.966  13.922
67798SOL     OW 5290  12.210  12.633  13.983
67798SOL    HW1 5291  12.281  12.568  13.979
67798SOL    HW2 5292  12.136  12.591  13.940
67799SOL     OW 5293  11.609   5.041   4.542
67799SOL    HW1 5294  11.590   5.011   4.631
67799SOL    HW2 5295  11.682   5.101   4.553
67800SOL     OW 5296  11.280  10.316   1.717
67800SOL    HW1 5297  11.192  10.323   1.679
67800SOL    HW2 5298  11.338  10.346   1.647
67801SOL     OW 5299   8.479  11.406   8.343
67801SOL    HW1 5300   8.514  11.485   8.383
67801SOL    HW2 5301   8.556  11.355   8.320
67802SOL     OW 5302  12.912  12.225   4.989
67802SOL    HW1 5303  12.870  12.207   4.905
67802SOL    HW2 5304  13.004  12.239   4.968
67803SOL     OW 5305  11.057   4.530   6.250
67803SOL    HW1 5306  11.122   4.584   6.294
67803SOL    HW2 5307  11.006   4.591   6.196
67804SOL     OW 5308  11.923  12.794   8.683
67804SOL    HW1 5309  11.867  12.849   8.737
67804SOL    HW2 5310  11.890  12.705   8.696
67805SOL     OW 5311  12.790   6.488   5.782
67805SOL    HW1 5312  12.816   6.580   5.775
67805SOL    HW2 5313  12.740   6.470   5.702
67806SOL     OW 5314   8.604  11.192   0.821
67806SOL    HW1 5315   8.698  11.202   0.836
67806SOL    HW2 5316   8.576  11.277   0.788
67807SOL     OW 5317   1.175   0.526  10.974
67807SOL    HW1 5318   1.148   0.545  10.884
67807SOL    HW2 5319   1.148   0.435  10.989
67808SOL     OW 5320  10.674   0.452   5.811
67808SOL    HW1 5321  10.602   0.397   5.840
67808SOL    HW2 5322  10.724   0.472   5.890
67809SOL     OW 5323   3.812   7.600   7.778
67809SOL    HW1 5324   3.853   7.672   7.730
67809SOL    HW2 5325   3.719   7.622   7.781
67810SOL     OW 5326  14.442  12.841  13.190
67810SOL    HW1 5327  14.415  12.852  13.098
67810SOL    HW2 5328  14.406  12.918  13.234
67811SOL     OW 5329   2.384   2.653   4.585
67811SOL    HW1 5330   2.434   2.687   4.659
67811SOL    HW2 5331   2.412   2.707   4.511
67812SOL     OW 5332   9.081   2.109   0.813
67812SOL    HW1 5333   9.007   2.166   0.833
67812SOL    HW2 5334   9.156   2.153   0.853
67813SOL     OW 5335   8.167   7.650   9.317
67813SOL    HW1 5336   8.239   7.710   9.337
67813SOL    HW2 5337   8.175   7.580   9.382
67814SOL     OW 5338   1.905   0.218   5.443
67814SOL    HW1 5339   1.888   0.159   5.516
67814SOL    HW2 5340   1.996   0.200   5.418
67815SOL     OW 5341   0.749  13.177   0.628
67815SOL    HW1 5342   0.674  13.222   0.669
67815SOL    HW2 5343   0.818  13.184   0.694
67816SOL     OW 5344   3.652   8.365  11.688
67816SOL    HW1 5345   3.570   8.391  11.729
67816SOL    HW2 5346   3.710   8.440  11.698
67817SOL     OW 5347  13.336   4.788   8.256
67817SOL    HW1 5348  13.428   4.815   8.261
67817SOL    HW2 5349  13.307   4.817   8.170
67818SOL     OW 5350   4.178   5.269  10.335
67818SOL    HW1 5351   4.257   5.307  10.374
67818SOL    HW2 5352   4.114   5.270  10.406
67819SOL     OW 5353   1.543   4.389   5.756
67819SOL    HW1 5354   1.511   4.381   5.846
67819SOL    HW2 5355   1.597   4.469   5.758
67820SOL     OW 5356   1.067  11.427   4.283
67820SOL    HW1 5357   1.162  11.430   4.273
67820SOL    HW2 5358   1.046  11.505   4.334
67821SOL     OW 5359  14.442  13.771  14.769
67821SOL    HW1 5360  14.495  13.742  14.696
67821SOL    HW2 5361  14.367  13.816  14.729
67822SOL     OW 5362   1.347   1.773   0.687
67822SOL    HW1 5363   1.380   1.854   0.726
67822SOL    HW2 5364   1.308   1.725   0.760
67823SOL     OW 5365  13.294  14.396   2.282
67823SOL    HW1 5366  13.307  14.384   2.376
67823SOL    HW2 5367  13.207  14.435   2.275
67824SOL     OW 5368   8.768   2.491   9.132
67824SOL    HW1 5369   8.676   2.495   9.105
67824SOL    HW2 5370   8.800   2.408   9.097
67825SOL     OW 5371   6.714  12.933   3.096
67825SOL    HW1 5372   6.672  12.899   3.175
67825SOL    HW2 5373   6.807  12.918   3.110
67826SOL     OW 5374   4.142   0.946  11.591
67826SOL    HW1 5375   4.084   0.889  11.642
67826SOL    HW2 5376   4.145   1.028  11.641
67827SOL     OW 5377   7.182   7.098  10.945
67827SOL    HW1 5378   7.270   7.133  10.958
67827SOL    HW2 5379   7.163   7.114  10.853
67828SOL     OW 5380  10.037   4.592   8.339
67828SOL    HW1 5381  10.013   4.557   8.254
67828SOL    HW2 5382   9.956   4.630   8.374
67829SOL     OW 5383  12.491   4.772  11.972
67829SOL    HW1 5384  12.449   4.735  11.894
67829SOL    HW2 5385  12.563   4.712  11.992
67830SOL     OW 5386   9.853  14.863  13.906
67830SOL    HW1 5387   9.940  14.824  13.913
67830SOL    HW2 5388   9.810  14.843  13.989
67831SOL     OW 5389  13.267  11.541   4.074
67831SOL    HW1 5390  13.332  11.494   4.021
67831SOL    HW2 5391  13.305  11.543   4.162
67832SOL     OW 5392  11.330  12.639  13.772
67832SOL    HW1 5393  11.291  12.558  13.739
67832SOL    HW2 5394  11.285  12.709  13.723
67833SOL     OW 5395   0.811   0.504   0.212
67833SOL    HW1 5396   0.717   0.497   0.195
67833SOL    HW2 5397   0.837   0.584   0.167
67834SOL     OW 5398   3.191  13.474  10.128
67834SOL    HW1 5399   3.110  13.451  10.082
67834SOL    HW2 5400   3.242  13.393  10.128
67835SOL     OW 5401  10.584   4.927  10.303
67835SOL    HW1 5402  10.673   4.937  10.336
67835SOL    HW2 5403  10.587   4.849  10.248
67836SOL     OW 5404   8.975  13.015   9.961
67836SOL    HW1 5405   8.936  13.035   9.876
67836SOL    HW2 5406   8.914  12.954  10.002
67837SOL     OW 5407  14.773   4.754   2.828
67837SOL    HW1 5408  14.811   4.763   2.916
67837SOL    HW2 5409  14.807   4.671   2.796
67838SOL     OW 5410  11.596   6.232  10.751
67838SOL    HW1 5411  11.563   6.258  10.837
67838SOL    HW2 5412  11.549   6.151  10.731
67839SOL     OW 5413   6.959  10.103   8.939
67839SOL    HW1 5414   6.989  10.183   8.896
67839SOL    HW2 5415   7.033  10.075   8.993
67840SOL     OW 5416   1.789  10.250   4.106
67840SOL    HW1 5417   1.839  10.279   4.030
67840SOL    HW2 5418   1.698  10.272   4.084
67841SOL     OW 5419  11.028  14.816  13.477
67841SOL    HW1 5420  11.059  14.726  13.462
67841SOL    HW2 5421  11.038  14.829  13.571
67842SOL     OW 5422   6.385   8.447   6.916
67842SOL    HW1 5423   6.432   8.363   6.915
67842SOL    HW2 5424   6.365   8.464   6.824
67843SOL     OW 5425  12.682   0.932   9.171
67843SOL    HW1 5426  12.716   0.855   9.126
67843SOL    HW2 5427  12.750   0.998   9.160
67844SOL     OW 5428  12.193  14.158   4.546
67844SOL    HW1 5429  12.202  14.242   4.500
67844SOL    HW2 5430  12.271  14.108   4.521
67845SOL     OW 5431  13.429  12.592   3.061
67845SOL    HW1 5432  13.473  12.626   2.984
67845SOL    HW2 5433  13.356  12.652   3.075
67846SOL     OW 5434  13.153   4.099  14.572
67846SOL    HW1 5435  13.156   4.097  14.477
67846SOL    HW2 5436  13.241   4.128  14.598
67847SOL     OW 5437   5.533  14.561   2.412
67847SOL    HW1 5438   5.609  14.528   2.365
67847SOL    HW2 5439   5.473  14.486   2.417
67848SOL     OW 5440   7.271   9.072   1.607
67848SOL    HW1 5441   7.185   9.043   1.578
67848SOL    HW2 5442   7.279   9.162   1.575
67849SOL     OW 5443  14.482   2.835  11.246
67849SOL    HW1 5444  14.491   2.907  11.309
67849SOL    HW2 5445  14.564   2.836  11.197
67850SOL     OW 5446   7.733   5.336   7.056
67850SOL    HW1 5447   7.720   5.250   7.098
67850SOL    HW2 5448   7.665   5.391   7.094
67851SOL     OW 5449  12.840   6.939   8.382
67851SOL    HW1 5450  12.907   6.902   8.324
67851SOL    HW2 5451  12.782   6.865   8.402
67852SOL     OW 5452   5.314  13.774   1.271
67852SOL    HW1 5453   5.329  13.683   1.248
67852SOL    HW2 5454   5.257  13.770   1.348
67853SOL     OW 5455   7.647   9.124   0.350
67853SOL    HW1 5456   7.662   9.066   0.275
67853SOL    HW2 5457   7.629   9.065   0.423
67854SOL     OW 5458   4.206   8.579   7.977
67854SOL    HW1 5459   4.156   8.655   7.948
67854SOL    HW2 5460   4.145   8.529   8.032
67855SOL     OW 5461  12.959  10.504   7.162
67855SOL    HW1 5462  12.897  10.568   7.125
67855SOL    HW2 5463  12.946  10.511   7.257
67856SOL     OW 5464   4.110   1.664  10.651
67856SOL    HW1 5465   4.131   1.711  10.570
67856SOL    HW2 5466   4.053   1.723  10.700
67857SOL     OW 5467  12.071   5.000   6.580
67857SOL    HW1 5468  12.109   4.923   6.621
67857SOL    HW2 5469  12.106   5.074   6.629
67858SOL     OW 5470   3.244  13.385   8.582
67858SOL    HW1 5471   3.335  13.403   8.607
67858SOL    HW2 5472   3.234  13.425   8.496
67859SOL     OW 5473  11.742   5.575   8.185
67859SOL    HW1 5474  11.800   5.571   8.260
67859SOL    HW2 5475  11.654   5.585   8.223
67860SOL     OW 5476   8.766   2.827   0.082
67860SOL    HW1 5477   8.791   2.757   0.142
67860SOL    HW2 5478   8.830   2.896   0.096
67861SOL     OW 5479  11.165   8.478   2.665
67861SOL    HW1 5480  11.125   8.551   2.619
67861SOL    HW2 5481  11.244   8.457   2.615
67862SOL     OW 5482   3.590  10.571   3.697
67862SOL    HW1 5483   3.575  10.620   3.778
67862SOL    HW2 5484   3.668  10.611   3.659
67863SOL     OW 5485   8.313   1.796   2.637
67863SOL    HW1 5486   8.218   1.809   2.641
67863SOL    HW2 5487   8.325   1.730   2.569
67864SOL     OW 5488   8.574   2.510   0.942
67864SOL    HW1 5489   8.629   2.436   0.968
67864SOL    HW2 5490   8.592   2.578   1.007
67865SOL     OW 5491  11.696   5.443  14.647
67865SOL    HW1 5492  11.697   5.473  14.738
67865SOL    HW2 5493  11.771   5.486  14.607
67866SOL     OW 5494   3.809   1.330  12.449
67866SOL    HW1 5495   3.752   1.344  12.374
67866SOL    HW2 5496   3.752   1.346  12.525
67867SOL     OW 5497   8.867  11.116  12.918
67867SOL    HW1 5498   8.775  11.110  12.893
67867SOL    HW2 5499   8.869  11.185  12.985
67868SOL     OW 5500   2.440   3.531   7.190
67868SOL    HW1 5501   2.494   3.551   7.266
67868SOL    HW2 5502   2.479   3.452   7.152
67869SOL     OW 5503   8.537   0.460  13.362
67869SOL    HW1 5504   8.453   0.443  13.405
67869SOL    HW2 5505   8.514   0.486  13.273
67870SOL     OW 5506   1.879  11.504  12.222
67870SOL    HW1 5507   1.864  11.471  12.133
67870SOL    HW2 5508   1.887  11.599  12.212
67871SOL     OW 5509  12.431   5.337  13.283
67871SOL    HW1 5510  12.381   5.384  13.350
67871SOL    HW2 5511  12.372   5.270  13.250
67872SOL     OW 5512   5.231  12.715  12.330
67872SOL    HW1 5513   5.280  12.646  12.284
67872SOL    HW2 5514   5.266  12.714  12.419
67873SOL     OW 5515   8.287   6.107   9.076
67873SOL    HW1 5516   8.304   6.197   9.104
67873SOL    HW2 5517   8.313   6.054   9.151
67874SOL     OW 5518   7.435  10.445  12.393
67874SOL    HW1 5519   7.358  10.425  12.447
67874SOL    HW2 5520   7.482  10.362  12.387
67875SOL     OW 5521   8.094   7.219   1.641
67875SOL    HW1 5522   8.103   7.218   1.736
67875SOL    HW2 5523   8.056   7.305   1.621
67876SOL     OW 5524   7.530  12.273   0.077
67876SOL    HW1 5525   7.589  12.348   0.088
67876SOL    HW2 5526   7.505  12.275  14.855
67877SOL     OW 5527   0.196   0.910   4.676
67877SOL    HW1 5528   0.135   0.844   4.708
67877SOL    HW2 5529   0.195   0.901   4.581
67878SOL     OW 5530   3.117   5.999   4.395
67878SOL    HW1 5531   3.153   6.042   4.473
67878SOL    HW2 5532   3.157   5.912   4.394
67879SOL     OW 5533   9.889   8.461   3.798
67879SOL    HW1 5534   9.955   8.514   3.753
67879SOL    HW2 5535   9.806   8.490   3.761
67880SOL     OW 5536   7.877   1.955   0.157
67880SOL    HW1 5537   7.893   1.932   0.249
67880SOL    HW2 5538   7.834   2.040   0.161
67881SOL     OW 5539   1.857   5.951   3.442
67881SOL    HW1 5540   1.949   5.967   3.420
67881SOL    HW2 5541   1.809   6.019   3.394
67882SOL     OW 5542  10.993  11.242   1.260
67882SOL    HW1 5543  10.902  11.222   1.237
67882SOL    HW2 5544  10.988  11.326   1.305
67883SOL     OW 5545   8.999  11.464   9.258
67883SOL    HW1 5546   8.975  11.443   9.348
67883SOL    HW2 5547   9.083  11.509   9.265
67884SOL     OW 5548  14.077  10.727  12.355
67884SOL    HW1 5549  14.060  10.805  12.408
67884SOL    HW2 5550  14.172  10.728  12.342
67885SOL     OW 5551   6.751  13.482   2.825
67885SOL    HW1 5552   6.709  13.510   2.907
67885SOL    HW2 5553   6.688  13.505   2.757
67886SOL     OW 5554   7.388   2.657   0.924
67886SOL    HW1 5555   7.365   2.654   1.016
67886SOL    HW2 5556   7.452   2.587   0.912
67887SOL     OW 5557   7.819  14.610   6.813
67887SOL    HW1 5558   7.746  14.670   6.795
67887SOL    HW2 5559   7.874  14.615   6.735
67888SOL     OW 5560  14.825   7.439   5.509
67888SOL    HW1 5561  14.766   7.427   5.435
67888SOL    HW2 5562   0.018   7.505   5.480
67889SOL     OW 5563   4.898  13.090  13.983
67889SOL    HW1 5564   4.854  13.066  14.065
67889SOL    HW2 5565   4.851  13.167  13.952
67890SOL     OW 5566   7.005   7.159  12.086
67890SOL    HW1 5567   6.945   7.137  12.157
67890SOL    HW2 5568   7.056   7.080  12.072
67891SOL     OW 5569   3.444  12.008   6.349
67891SOL    HW1 5570   3.363  12.057   6.359
67891SOL    HW2 5571   3.482  12.005   6.437
67892SOL     OW 5572   5.914  14.673   4.609
67892SOL    HW1 5573   5.910  14.732   4.684
67892SOL    HW2 5574   5.910  14.731   4.533
67893SOL     OW 5575   8.485   9.070   8.494
67893SOL    HW1 5576   8.484   9.046   8.402
67893SOL    HW2 5577   8.569   9.040   8.527
67894SOL     OW 5578   9.786   5.429  11.219
67894SOL    HW1 5579   9.697   5.395  11.207
67894SOL    HW2 5580   9.777   5.523  11.206
67895SOL     OW 5581   7.063  12.056   9.796
67895SOL    HW1 5582   7.002  11.990   9.830
67895SOL    HW2 5583   7.073  12.033   9.703
67896SOL     OW 5584   6.072   0.487  12.847
67896SOL    HW1 5585   6.100   0.573  12.818
67896SOL    HW2 5586   6.007   0.459  12.782
67897SOL     OW 5587   5.350  13.171  11.663
67897SOL    HW1 5588   5.420  13.106  11.653
67897SOL    HW2 5589   5.342  13.211  11.576
67898SOL     OW 5590   1.464   8.672   1.169
67898SOL    HW1 5591   1.476   8.613   1.094
67898SOL    HW2 5592   1.463   8.614   1.245
67899SOL     OW 5593  13.366  10.119   8.047
67899SOL    HW1 5594  13.299  10.105   7.980
67899SOL    HW2 5595  13.422  10.042   8.042
67900SOL     OW 5596   7.520   7.078   4.736
67900SOL    HW1 5597   7.615   7.071   4.727
67900SOL    HW2 5598   7.494   7.000   4.784
67901SOL     OW 5599   5.637   4.788   1.316
67901SOL    HW1 5600   5.658   4.710   1.368
67901SOL    HW2 5601   5.541   4.796   1.323
67902SOL     OW 5602  10.924   0.684   4.074
67902SOL    HW1 5603  10.914   0.775   4.101
67902SOL    HW2 5604  10.877   0.634   4.141
67903SOL     OW 5605   9.077  10.650   2.958
67903SOL    HW1 5606   9.042  10.574   3.004
67903SOL    HW2 5607   9.032  10.725   2.997
67904SOL     OW 5608   1.355   6.906   3.998
67904SOL    HW1 5609   1.427   6.895   4.060
67904SOL    HW2 5610   1.314   6.820   3.992
67905SOL     OW 5611   8.596   6.610  11.223
67905SOL    HW1 5612   8.589   6.524  11.264
67905SOL    HW2 5613   8.647   6.662  11.285
67906SOL     OW 5614   4.840   5.864  13.007
67906SOL    HW1 5615   4.766   5.813  13.040
67906SOL    HW2 5616   4.837   5.946  13.056
67907SOL     OW 5617  12.590  13.641   1.719
67907SOL    HW1 5618  12.594  13.700   1.644
67907SOL    HW2 5619  12.547  13.562   1.686
67908SOL     OW 5620  12.827  11.797  12.180
67908SOL    HW1 5621  12.887  11.865  12.210
67908SOL    HW2 5622  12.826  11.807  12.084
67909SOL     OW 5623   8.690   2.247   2.038
67909SOL    HW1 5624   8.690   2.298   1.956
67909SOL    HW2 5625   8.755   2.291   2.093
67910SOL     OW 5626  11.393   3.575  14.584
67910SOL    HW1 5627  11.310   3.528  14.574
67910SOL    HW2 5628  11.453   3.511  14.621
67911SOL     OW 5629  12.355   7.918   2.297
67911SOL    HW1 5630  12.375   7.976   2.224
67911SOL    HW2 5631  12.408   7.951   2.370
67912SOL     OW 5632   9.501   1.610   9.110
67912SOL    HW1 5633   9.494   1.633   9.017
67912SOL    HW2 5634   9.547   1.526   9.110
67913SOL     OW 5635   2.718   2.603   5.219
67913SOL    HW1 5636   2.662   2.654   5.277
67913SOL    HW2 5637   2.763   2.669   5.166
67914SOL     OW 5638  10.650   2.871   0.927
67914SOL    HW1 5639  10.714   2.823   0.980
67914SOL    HW2 5640  10.598   2.804   0.884
67915SOL     OW 5641   2.919   6.078  14.191
67915SOL    HW1 5642   2.995   6.107  14.140
67915SOL    HW2 5643   2.871   6.021  14.132
67916SOL     OW 5644   5.455  10.382  10.836
67916SOL    HW1 5645   5.519  10.323  10.796
67916SOL    HW2 5646   5.375  10.370  10.784
67917SOL     OW 5647  12.641  14.118  14.303
67917SOL    HW1 5648  12.552  14.083  14.306
67917SOL    HW2 5649  12.635  14.202  14.348
67918SOL     OW 5650  10.252   8.798   4.746
67918SOL    HW1 5651  10.206   8.864   4.694
67918SOL    HW2 5652  10.201   8.718   4.734
67919SOL     OW 5653  13.030  11.052   3.037
67919SOL    HW1 5654  12.998  10.975   3.084
67919SOL    HW2 5655  13.031  11.121   3.103
67920SOL     OW 5656   7.516  12.253  13.943
67920SOL    HW1 5657   7.453  12.322  13.961
67920SOL    HW2 5658   7.533  12.259  13.849
67921SOL     OW 5659   5.489  14.138  12.725
67921SOL    HW1 5660   5.585  14.143  12.718
67921SOL    HW2 5661   5.462  14.228  12.744
67922SOL     OW 5662   5.273   0.823   4.978
67922SOL    HW1 5663   5.219   0.876   4.919
67922SOL    HW2 5664   5.272   0.736   4.939
67923SOL     OW 5665   2.430   4.442   1.677
67923SOL    HW1 5666   2.421   4.510   1.745
67923SOL    HW2 5667   2.512   4.463   1.633
67924SOL     OW 5668   8.599  10.603   3.825
67924SOL    HW1 5669   8.595  10.571   3.735
67924SOL    HW2 5670   8.572  10.695   3.819
67925SOL     OW 5671   4.323   4.939  11.034
67925SOL    HW1 5672   4.391   4.931  10.967
67925SOL    HW2 5673   4.270   5.014  11.005
67926SOL     OW 5674  13.441  12.581  11.518
67926SOL    HW1 5675  13.467  12.497  11.555
67926SOL    HW2 5676  13.347  12.572  11.502
67927SOL     OW 5677  11.083   6.311  12.330
67927SOL    HW1 5678  11.086   6.299  12.235
67927SOL    HW2 5679  10.990   6.310  12.352
67928SOL     OW 5680   8.197  10.378   7.756
67928SOL    HW1 5681   8.196  10.358   7.849
67928SOL    HW2 5682   8.104  10.377   7.731
67929SOL     OW 5683   5.022   5.860   4.467
67929SOL    HW1 5684   5.100   5.806   4.453
67929SOL    HW2 5685   5.012   5.909   4.385
67930SOL     OW 5686   4.630   0.965  14.320
67930SOL    HW1 5687   4.641   1.055  14.290
67930SOL    HW2 5688   4.719   0.931  14.329
67931SOL     OW 5689  14.134   5.882   1.194
67931SOL    HW1 5690  14.089   5.799   1.181
67931SOL    HW2 5691  14.122   5.929   1.112
67932SOL     OW 5692  13.729   0.928   0.875
67932SOL    HW1 5693  13.753   0.918   0.967
67932SOL    HW2 5694  13.741   0.840   0.838
67933SOL     OW 5695   7.269   9.259  11.996
67933SOL    HW1 5696   7.241   9.325  12.060
67933SOL    HW2 5697   7.253   9.175  12.040
67934SOL     OW 5698   8.367   5.994   4.567
67934SOL    HW1 5699   8.376   6.071   4.623
67934SOL    HW2 5700   8.296   5.944   4.606
67935SOL     OW 5701  14.344   6.779   0.031
67935SOL    HW1 5702  14.394   6.754   0.109
67935SOL    HW2 5703  14.298   6.859   0.057
67936SOL     OW 5704  11.058  11.618   9.980
67936SOL    HW1 5705  11.074  11.526   9.963
67936SOL    HW2 5706  11.145  11.655   9.998
67937SOL     OW 5707   0.162  13.900   8.178
67937SOL    HW1 5708   0.252  13.898   8.146
67937SOL    HW2 5709   0.117  13.962   8.121
67938SOL     OW 5710  13.253  12.494   3.377
67938SOL    HW1 5711  13.277  12.586   3.386
67938SOL    HW2 5712  13.329  12.446   3.410
67939SOL     OW 5713   3.013   8.154  12.199
67939SOL    HW1 5714   2.974   8.088  12.257
67939SOL    HW2 5715   2.939   8.205  12.166
67940SOL     OW 5716   6.876   9.355   0.482
67940SOL    HW1 5717   6.961   9.390   0.456
67940SOL    HW2 5718   6.816   9.430   0.476
67941SOL     OW 5719   3.583  10.097   2.690
67941SOL    HW1 5720   3.593  10.053   2.606
67941SOL    HW2 5721   3.668  10.138   2.706
67942SOL     OW 5722   8.064  14.416   5.712
67942SOL    HW1 5723   8.033  14.501   5.681
67942SOL    HW2 5724   8.034  14.353   5.646
67943SOL     OW 5725  12.731   2.741   2.325
67943SOL    HW1 5726  12.673   2.671   2.297
67943SOL    HW2 5727  12.684   2.821   2.305
67944SOL     OW 5728   4.470  11.142   4.902
67944SOL    HW1 5729   4.483  11.097   4.818
67944SOL    HW2 5730   4.421  11.079   4.956
67945SOL     OW 5731  13.963  11.560  11.438
67945SOL    HW1 5732  13.995  11.472  11.416
67945SOL    HW2 5733  14.038  11.604  11.478
67946SOL     OW 5734  11.023   0.439   7.018
67946SOL    HW1 5735  11.067   0.521   7.039
67946SOL    HW2 5736  10.984   0.453   6.932
67947SOL     OW 5737  13.620   2.203   9.661
67947SOL    HW1 5738  13.600   2.213   9.568
67947SOL    HW2 5739  13.677   2.277   9.682
67948SOL     OW 5740   8.822   5.087  12.961
67948SOL    HW1 5741   8.841   5.045  12.877
67948SOL    HW2 5742   8.753   5.150  12.942
67949SOL     OW 5743  11.426   8.728  10.561
67949SOL    HW1 5744  11.447   8.636  10.578
67949SOL    HW2 5745  11.508   8.766  10.530
67950SOL     OW 5746  10.006   0.258   1.163
67950SOL    HW1 5747  10.091   0.277   1.124
67950SOL    HW2 5748   9.962   0.343   1.168
67951SOL     OW 5749  13.441   4.864   2.321
67951SOL    HW1 5750  13.387   4.929   2.366
67951SOL    HW2 5751  13.397   4.781   2.338
67952SOL     OW 5752   2.542   3.729   1.783
67952SOL    HW1 5753   2.459   3.737   1.737
67952SOL    HW2 5754   2.571   3.819   1.797
67953SOL     OW 5755  13.794   0.321   5.507
67953SOL    HW1 5756  13.700   0.316   5.525
67953SOL    HW2 5757  13.802   0.391   5.443
67954SOL     OW 5758   1.886   5.404  11.901
67954SOL    HW1 5759   1.848   5.341  11.839
67954SOL    HW2 5760   1.937   5.350  11.961
67955SOL     OW 5761  11.374   9.752  12.991
67955SOL    HW1 5762  11.282   9.729  12.976
67955SOL    HW2 5763  11.423   9.693  12.934
67956SOL     OW 5764  12.469   2.742   9.097
67956SOL    HW1 5765  12.388   2.720   9.144
67956SOL    HW2 5766  12.494   2.828   9.132
67957SOL     OW 5767   5.164  10.940   4.619
67957SOL    HW1 5768   5.150  10.983   4.704
67957SOL    HW2 5769   5.084  10.958   4.570
67958SOL     OW 5770   5.766   2.041  10.288
67958SOL    HW1 5771   5.775   2.103  10.215
67958SOL    HW2 5772   5.736   2.094  10.361
67959SOL     OW 5773   6.286  13.493   5.143
67959SOL    HW1 5774   6.348  13.536   5.202
67959SOL    HW2 5775   6.265  13.410   5.186
67960SOL     OW 5776  12.016   8.471   0.613
67960SOL    HW1 5777  11.962   8.497   0.687
67960SOL    HW2 5778  11.978   8.388   0.583
67961SOL     OW 5779  14.017  12.326   1.576
67961SOL    HW1 5780  13.925  12.302   1.563
67961SOL    HW2 5781  14.057  12.317   1.490
67962SOL     OW 5782   2.319  13.789  12.579
67962SOL    HW1 5783   2.280  13.847  12.514
67962SOL    HW2 5784   2.394  13.749  12.535
67963SOL     OW 5785   7.768  10.070   2.949
67963SOL    HW1 5786   7.798  10.028   2.868
67963SOL    HW2 5787   7.846  10.072   3.004
67964SOL     OW 5788   3.555  11.334   6.765
67964SOL    HW1 5789   3.553  11.263   6.829
67964SOL    HW2 5790   3.471  11.329   6.720
67965SOL     OW 5791   4.970   5.602   8.512
67965SOL    HW1 5792   5.061   5.620   8.536
67965SOL    HW2 5793   4.958   5.649   8.429
67966SOL     OW 5794   8.940   9.985   9.386
67966SOL    HW1 5795   8.877  10.032   9.330
67966SOL    HW2 5796   8.959   9.904   9.337
67967SOL     OW 5797  14.540   4.882   2.897
67967SOL    HW1 5798  14.617   4.843   2.857
67967SOL    HW2 5799  14.466   4.838   2.855
67968SOL     OW 5800  11.758   7.927   4.666
67968SOL    HW1 5801  11.769   7.925   4.571
67968SOL    HW2 5802  11.705   7.849   4.686
67969SOL     OW 5803   9.311  11.767  10.843
67969SOL    HW1 5804   9.225  11.807  10.829
67969SOL    HW2 5805   9.292  11.682  10.882
67970SOL     OW 5806  14.392   1.166  13.192
67970SOL    HW1 5807  14.434   1.081  13.181
67970SOL    HW2 5808  14.420   1.195  13.279
67971SOL     OW 5809  10.830   3.064   1.178
67971SOL    HW1 5810  10.785   3.098   1.255
67971SOL    HW2 5811  10.920   3.094   1.187
67972SOL     OW 5812  14.546   7.320  11.487
67972SOL    HW1 5813  14.589   7.381  11.547
67972SOL    HW2 5814  14.604   7.243  11.484
67973SOL     OW 5815   8.840   4.673   0.247
67973SOL    HW1 5816   8.816   4.595   0.297
67973SOL    HW2 5817   8.872   4.640   0.164
67974SOL     OW 5818   1.394  10.829   5.023
67974SOL    HW1 5819   1.352  10.815   5.107
67974SOL    HW2 5820   1.485  10.849   5.044
67975SOL     OW 5821   7.642  13.458   4.483
67975SOL    HW1 5822   7.677  13.510   4.555
67975SOL    HW2 5823   7.684  13.372   4.494
67976SOL     OW 5824   7.121  14.752   3.773
67976SOL    HW1 5825   7.058  14.712   3.832
67976SOL    HW2 5826   7.120  14.845   3.795
67977SOL     OW 5827   5.205   3.802   2.125
67977SOL    HW1 5828   5.165   3.816   2.210
67977SOL    HW2 5829   5.140   3.752   2.075
67978SOL     OW 5830  11.651  14.218   0.603
67978SOL    HW1 5831  11.663  14.178   0.516
67978SOL    HW2 5832  11.705  14.297   0.600
67979SOL     OW 5833   6.990  12.915  10.479
67979SOL    HW1 5834   7.070  12.888  10.524
67979SOL    HW2 5835   6.923  12.854  10.512
67980SOL     OW 5836   5.351   3.007   4.901
67980SOL    HW1 5837   5.410   3.030   4.829
67980SOL    HW2 5838   5.326   2.916   4.884
67981SOL     OW 5839   2.245  11.598   1.658
67981SOL    HW1 5840   2.283  11.684   1.676
67981SOL    HW2 5841   2.159  11.617   1.620
67982SOL     OW 5842   7.202   0.981  14.214
67982SOL    HW1 5843   7.187   1.074  14.229
67982SOL    HW2 5844   7.190   0.969  14.120
67983SOL     OW 5845   0.457   8.055   7.909
67983SOL    HW1 5846   0.451   8.113   7.985
67983SOL    HW2 5847   0.519   7.986   7.936
67984SOL     OW 5848   8.070  14.259   3.208
67984SOL    HW1 5849   7.988  14.214   3.192
67984SOL    HW2 5850   8.134  14.213   3.153
67985SOL     OW 5851  12.999   4.967   9.149
67985SOL    HW1 5852  13.025   4.887   9.194
67985SOL    HW2 5853  13.078   4.997   9.104
67986SOL     OW 5854  13.327   3.870  10.256
67986SOL    HW1 5855  13.361   3.906  10.338
67986SOL    HW2 5856  13.404   3.862  10.199
67987SOL     OW 5857   0.821   0.448   3.238
67987SOL    HW1 5858   0.731   0.471   3.261
67987SOL    HW2 5859   0.830   0.473   3.146
67988SOL     OW 5860  14.350   6.166   1.648
67988SOL    HW1 5861  14.270   6.141   1.603
67988SOL    HW2 5862  14.341   6.131   1.736
67989SOL     OW 5863  13.021   9.322   6.841
67989SOL    HW1 5864  13.107   9.348   6.874
67989SOL    HW2 5865  13.019   9.355   6.751
67990SOL     OW 5866  14.767   0.703  12.778
67990SOL    HW1 5867  14.812   0.647  12.841
67990SOL    HW2 5868  14.717   0.764  12.831
67991SOL     OW 5869  11.421   3.816   6.014
67991SOL    HW1 5870  11.457   3.862   5.939
67991SOL    HW2 5871  11.394   3.885   6.075
67992SOL     OW 5872   2.911   5.033   9.048
67992SOL    HW1 5873   2.877   5.073   9.128
67992SOL    HW2 5874   2.855   4.956   9.034
67993SOL     OW 5875  11.145  11.439  12.077
67993SOL    HW1 5876  11.108  11.511  12.027
67993SOL    HW2 5877  11.211  11.401  12.019
67994SOL     OW 5878  12.062  12.697  10.547
67994SOL    HW1 5879  11.978  12.709  10.591
67994SOL    HW2 5880  12.124  12.678  10.617
67995SOL     OW 5881   7.859   0.537   2.074
67995SOL    HW1 5882   7.827   0.585   1.997
67995SOL    HW2 5883   7.780   0.511   2.120
67996SOL     OW 5884  10.854   0.492  14.421
67996SOL    HW1 5885  10.850   0.555  14.349
67996SOL    HW2 5886  10.788   0.426  14.400
67997SOL     OW 5887   5.821   8.877   5.034
67997SOL    HW1 5888   5.852   8.967   5.044
67997SOL    HW2 5889   5.862   8.846   4.953
67998SOL     OW 5890   5.640   2.299   3.120
67998SOL    HW1 5891   5.688   2.348   3.187
67998SOL    HW2 5892   5.598   2.366   3.067
67999SOL     OW 5893   6.940   2.076   2.433
67999SOL    HW1 5894   7.002   2.033   2.491
67999SOL    HW2 5895   6.867   2.015   2.427
68000SOL     OW 5896  11.396  13.625   1.730
68000SOL    HW1 5897  11.335  13.674   1.785
68000SOL    HW2 5898  11.376  13.533   1.747
68001SOL     OW 5899  14.821   3.909   0.299
68001SOL    HW1 5900  14.822   3.944   0.388
68001SOL    HW2 5901   0.041   3.921   0.267
68002SOL     OW 5902   6.869   8.154   9.713
68002SOL    HW1 5903   6.896   8.227   9.769
68002SOL    HW2 5904   6.840   8.196   9.632
68003SOL     OW 5905   4.318   2.683   3.338
68003SOL    HW1 5906   4.302   2.719   3.251
68003SOL    HW2 5907   4.253   2.613   3.347
68004SOL     OW 5908  13.950  11.342   8.884
68004SOL    HW1 5909  14.014  11.277   8.852
68004SOL    HW2 5910  13.875  11.289   8.911
68005SOL     OW 5911   0.613   1.474  13.947
68005SOL    HW1 5912   0.694   1.469  13.895
68005SOL    HW2 5913   0.637   1.529  14.022
68006SOL     OW 5914  11.202  12.540   6.021
68006SOL    HW1 5915  11.144  12.603   6.065
68006SOL    HW2 5916  11.163  12.529   5.934
68007SOL     OW 5917  14.108   2.420   6.458
68007SOL    HW1 5918  14.015   2.425   6.480
68007SOL    HW2 5919  14.153   2.464   6.530
68008SOL     OW 5920  10.213   8.594  11.505
68008SOL    HW1 5921  10.291   8.538  11.506
68008SOL    HW2 5922  10.213   8.633  11.417
68009SOL     OW 5923   0.089  12.579  13.185
68009SOL    HW1 5924   0.093  12.607  13.094
68009SOL    HW2 5925   0.146  12.502  13.190
68010SOL     OW 5926  13.771   3.565   8.985
68010SOL    HW1 5927  13.686   3.531   9.015
68010SOL    HW2 5928  13.750   3.614   8.905
68011SOL     OW 5929  14.788   2.924   3.264
68011SOL    HW1 5930  14.740   2.917   3.346
68011SOL    HW2 5931  14.760   3.007   3.226
68012SOL     OW 5932  12.384  12.165   1.347
68012SOL    HW1 5933  12.321  12.107   1.304
68012SOL    HW2 5934  12.332  12.238   1.379
68013SOL     OW 5935  10.818  14.191   7.036
68013SOL    HW1 5936  10.841  14.245   7.112
68013SOL    HW2 5937  10.900  14.179   6.989
68014SOL     OW 5938   4.577   7.515  10.609
68014SOL    HW1 5939   4.626   7.506  10.527
68014SOL    HW2 5940   4.495   7.556  10.583
68015SOL     OW 5941   7.426   4.311  12.001
68015SOL    HW1 5942   7.341   4.268  11.990
68015SOL    HW2 5943   7.454   4.287  12.089
68016SOL     OW 5944  12.815  13.496   5.445
68016SOL    HW1 5945  12.753  13.553   5.398
68016SOL    HW2 5946  12.766  13.415   5.460
68017SOL     OW 5947   1.542   4.892   0.052
68017SOL    HW1 5948   1.477   4.944   0.099
68017SOL    HW2 5949   1.495   4.813   0.025
68018SOL     OW 5950   0.207   6.418   3.418
68018SOL    HW1 5951   0.159   6.485   3.369
68018SOL    HW2 5952   0.226   6.459   3.502
68019SOL     OW 5953   9.651  10.180  13.449
68019SOL    HW1 5954   9.565  10.209  13.479
68019SOL    HW2 5955   9.713  10.238  13.493
68020SOL     OW 5956   5.693  10.497   1.918
68020SOL    HW1 5957   5.662  10.562   1.855
68020SOL    HW2 5958   5.787  10.510   1.922
68021SOL     OW 5959  12.588  14.717   3.711
68021SOL    HW1 5960  12.572  14.803   3.674
68021SOL    HW2 5961  12.506  14.670   3.700
68022SOL     OW 5962  10.919   5.504   8.729
68022SOL    HW1 5963  10.969   5.426   8.706
68022SOL    HW2 5964  10.937   5.517   8.822
68023SOL     OW 5965   6.897   1.619  10.480
68023SOL    HW1 5966   6.812   1.602  10.520
68023SOL    HW2 5967   6.960   1.582  10.542
68024SOL     OW 5968   1.397   8.690   2.554
68024SOL    HW1 5969   1.351   8.733   2.481
68024SOL    HW2 5970   1.417   8.602   2.521
68025SOL     OW 5971  13.279   3.760   6.905
68025SOL    HW1 5972  13.314   3.794   6.823
68025SOL    HW2 5973  13.354   3.757   6.964
68026SOL     OW 5974   8.303   9.291   4.341
68026SOL    HW1 5975   8.228   9.325   4.293
68026SOL    HW2 5976   8.369   9.273   4.273
68027SOL     OW 5977  12.986   1.411   3.916
68027SOL    HW1 5978  12.937   1.491   3.896
68027SOL    HW2 5979  12.937   1.342   3.872
68028SOL     OW 5980   5.223  10.028   5.012
68028SOL    HW1 5981   5.297   9.977   5.045
68028SOL    HW2 5982   5.229  10.111   5.059
68029SOL     OW 5983   0.327   9.123  12.496
68029SOL    HW1 5984   0.291   9.041  12.463
68029SOL    HW2 5985   0.307   9.123  12.589
68030SOL     OW 5986  10.618   2.412   2.196
68030SOL    HW1 5987  10.559   2.343   2.166
68030SOL    HW2 5988  10.601   2.485   2.137
68031SOL     OW 5989   9.887  10.438  11.079
68031SOL    HW1 5990   9.821  10.486  11.028
68031SOL    HW2 5991   9.970  10.459  11.037
68032SOL     OW 5992  12.369  13.924  10.219
68032SOL    HW1 5993  12.289  13.919  10.271
68032SOL    HW2 5994  12.436  13.952  10.281
68033SOL     OW 5995  10.245  13.615   9.318
68033SOL    HW1 5996  10.216  13.662   9.396
68033SOL    HW2 5997  10.340  13.608   9.328
68034SOL     OW 5998  12.839   4.332  14.422
68034SOL    HW1 5999  12.802   4.274  14.356
68034SOL    HW2 6000  12.868   4.273  14.492
68035SOL     OW 6001   6.421   8.691   3.123
68035SOL    HW1 6002   6.424   8.781   3.156
68035SOL    HW2 6003   6.388   8.639   3.196
68036SOL     OW 6004   4.265   2.732   6.213
68036SOL    HW1 6005   4.176   2.703   6.190
68036SOL    HW2 6006   4.281   2.807   6.157
68037SOL     OW 6007   6.680   1.714   8.191
68037SOL    HW1 6008   6.776   1.717   8.202
68037SOL    HW2 6009   6.668   1.688   8.100
68038SOL     OW 6010   4.461  14.859  11.313
68038SOL    HW1 6011   4.368  14.841  11.304
68038SOL    HW2 6012   4.503  14.791  11.259
68039SOL     OW 6013  13.852  13.958   4.122
68039SOL    HW1 6014  13.788  13.997   4.181
68039SOL    HW2 6015  13.932  14.007   4.137
68040SOL     OW 6016   7.532  11.839   5.769
68040SOL    HW1 6017   7.566  11.859   5.682
68040SOL    HW2 6018   7.523  11.924   5.812
68041SOL     OW 6019  13.772   9.205  14.484
68041SOL    HW1 6020  13.690   9.163  14.458
68041SOL    HW2 6021  13.778   9.191  14.579
68042SOL     OW 6022   3.239   3.585  10.128
68042SOL    HW1 6023   3.148   3.584  10.156
68042SOL    HW2 6024   3.284   3.529  10.192
68043SOL     OW 6025  13.148   2.134   7.727
68043SOL    HW1 6026  13.240   2.113   7.711
68043SOL    HW2 6027  13.121   2.187   7.652
68044SOL     OW 6028   2.012   5.647  10.462
68044SOL    HW1 6029   2.030   5.662  10.555
68044SOL    HW2 6030   2.099   5.631  10.424
68045SOL     OW 6031  11.685   3.772   6.885
68045SOL    HW1 6032  11.639   3.795   6.804
68045SOL    HW2 6033  11.766   3.824   6.883
68046SOL     OW 6034  12.786   5.272   0.236
68046SOL    HW1 6035  12.839   5.202   0.273
68046SOL    HW2 6036  12.836   5.352   0.256
68047SOL     OW 6037   2.042  10.637   7.401
68047SOL    HW1 6038   1.997  10.707   7.354
68047SOL    HW2 6039   2.081  10.582   7.332
68048SOL     OW 6040  12.708   6.262   6.497
68048SOL    HW1 6041  12.683   6.337   6.551
68048SOL    HW2 6042  12.665   6.188   6.538
68049SOL     OW 6043   0.864   6.787   7.120
68049SOL    HW1 6044   0.884   6.732   7.197
68049SOL    HW2 6045   0.778   6.824   7.139
68050SOL     OW 6046   3.924  14.819  11.164
68050SOL    HW1 6047   3.865   0.002  11.218
68050SOL    HW2 6048   3.888  14.825  11.076
68051SOL     OW 6049   4.264   7.876  12.326
68051SOL    HW1 6050   4.350   7.885  12.365
68051SOL    HW2 6051   4.257   7.951  12.266
68052SOL     OW 6052  14.011   5.163   7.267
68052SOL    HW1 6053  13.956   5.239   7.248
68052SOL    HW2 6054  14.091   5.178   7.216
68053SOL     OW 6055   2.849   0.261   1.246
68053SOL    HW1 6056   2.822   0.170   1.236
68053SOL    HW2 6057   2.926   0.257   1.303
68054SOL     OW 6058   4.917   9.950   8.212
68054SOL    HW1 6059   4.901   9.879   8.274
68054SOL    HW2 6060   5.012   9.951   8.201
68055SOL     OW 6061  14.230   5.784  12.552
68055SOL    HW1 6062  14.288   5.829  12.492
68055SOL    HW2 6063  14.146   5.831  12.545
68056SOL     OW 6064   2.785  12.511   0.324
68056SOL    HW1 6065   2.773  12.593   0.372
68056SOL    HW2 6066   2.862  12.526   0.269
68057SOL     OW 6067   0.971   2.880  13.634
68057SOL    HW1 6068   0.935   2.830  13.560
68057SOL    HW2 6069   1.039   2.935  13.595
68058SOL     OW 6070   1.443   3.354   0.156
68058SOL    HW1 6071   1.396   3.285   0.203
68058SOL    HW2 6072   1.392   3.433   0.172
68059SOL     OW 6073   3.753  14.531   6.065
68059SOL    HW1 6074   3.805  14.580   6.129
68059SOL    HW2 6075   3.721  14.597   6.004
68060SOL     OW 6076   9.141   6.839   8.527
68060SOL    HW1 6077   9.172   6.924   8.559
68060SOL    HW2 6078   9.169   6.837   8.436
68061SOL     OW 6079   5.371   2.750   5.070
68061SOL    HW1 6080   5.280   2.774   5.089
68061SOL    HW2 6081   5.420   2.832   5.079
68062SOL     OW 6082  13.102  10.832   4.074
68062SOL    HW1 6083  13.015  10.871   4.078
68062SOL    HW2 6084  13.117  10.816   3.981
68063SOL     OW 6085  12.403   6.889   2.445
68063SOL    HW1 6086  12.386   6.795   2.437
68063SOL    HW2 6087  12.472   6.895   2.511
68064SOL     OW 6088   5.771  10.487   4.246
68064SOL    HW1 6089   5.734  10.402   4.269
68064SOL    HW2 6090   5.860  10.467   4.216
68065SOL     OW 6091  12.348   4.425   5.406
68065SOL    HW1 6092  12.372   4.517   5.412
68065SOL    HW2 6093  12.255   4.426   5.383
68066SOL     OW 6094  14.364   4.302   3.830
68066SOL    HW1 6095  14.407   4.354   3.763
68066SOL    HW2 6096  14.436   4.275   3.889
68067SOL     OW 6097  11.055   0.270  11.152
68067SOL    HW1 6098  11.130   0.211  11.163
68067SOL    HW2 6099  10.979   0.215  11.171
68068SOL     OW 6100  10.614   6.793   8.523
68068SOL    HW1 6101  10.665   6.783   8.443
68068SOL    HW2 6102  10.604   6.703   8.556
68069SOL     OW 6103   0.300   6.027  11.533
68069SOL    HW1 6104   0.264   6.095  11.590
68069SOL    HW2 6105   0.251   5.948  11.556
68070SOL     OW 6106   0.721   1.737  10.754
68070SOL    HW1 6107   0.648   1.795  10.734
68070SOL    HW2 6108   0.740   1.753  10.846
68071SOL     OW 6109   6.593   9.342   7.579
68071SOL    HW1 6110   6.516   9.382   7.537
68071SOL    HW2 6111   6.666   9.399   7.553
68072SOL     OW 6112  12.259   3.588   8.712
68072SOL    HW1 6113  12.163   3.586   8.709
68072SOL    HW2 6114  12.282   3.678   8.690
68073SOL     OW 6115   0.873  10.405   0.352
68073SOL    HW1 6116   0.804  10.407   0.419
68073SOL    HW2 6117   0.853  10.479   0.294
68074SOL     OW 6118  13.712   9.779  13.232
68074SOL    HW1 6119  13.807   9.775  13.223
68074SOL    HW2 6120  13.690   9.870  13.214
68075SOL     OW 6121   6.813  13.073   6.211
68075SOL    HW1 6122   6.769  13.155   6.188
68075SOL    HW2 6123   6.759  13.035   6.280
68076SOL     OW 6124   6.127  10.416   7.489
68076SOL    HW1 6125   6.041  10.412   7.532
68076SOL    HW2 6126   6.187  10.378   7.554
68077SOL     OW 6127   4.883  12.215  10.849
68077SOL    HW1 6128   4.827  12.158  10.797
68077SOL    HW2 6129   4.944  12.156  10.893
68078SOL     OW 6130   9.748   5.847  13.715
68078SOL    HW1 6131   9.830   5.892  13.739
68078SOL    HW2 6132   9.685   5.917  13.702
68079SOL     OW 6133   5.995   6.315  14.236
68079SOL    HW1 6134   5.965   6.395  14.278
68079SOL    HW2 6135   6.025   6.260  14.309
68080SOL     OW 6136   5.117  10.671   3.561
68080SOL    HW1 6137   5.057  10.597   3.574
68080SOL    HW2 6138   5.090  10.711   3.479
68081SOL     OW 6139  10.085   0.193  13.801
68081SOL    HW1 6140  10.002   0.161  13.837
68081SOL    HW2 6141  10.110   0.129  13.735
68082SOL     OW 6142   7.560  13.897  14.229
68082SOL    HW1 6143   7.588  13.988  14.219
68082SOL    HW2 6144   7.498  13.899  14.302
68083SOL     OW 6145   5.484   7.062   7.566
68083SOL    HW1 6146   5.497   6.987   7.507
68083SOL    HW2 6147   5.391   7.060   7.587
68084SOL     OW 6148  10.879   7.880   8.733
68084SOL    HW1 6149  10.815   7.810   8.734
68084SOL    HW2 6150  10.827   7.960   8.730
68085SOL     OW 6151   5.173  10.323   2.220
68085SOL    HW1 6152   5.216  10.406   2.197
68085SOL    HW2 6153   5.132  10.294   2.139
68086SOL     OW 6154   0.368  10.587   5.344
68086SOL    HW1 6155   0.374  10.607   5.250
68086SOL    HW2 6156   0.365  10.492   5.347
68087SOL     OW 6157  12.880   5.929   4.653
68087SOL    HW1 6158  12.948   5.954   4.590
68087SOL    HW2 6159  12.817   5.880   4.601
68088SOL     OW 6160   2.965  10.581  12.150
68088SOL    HW1 6161   2.911  10.523  12.203
68088SOL    HW2 6162   2.943  10.669  12.180
68089SOL     OW 6163  12.350   8.743  13.177
68089SOL    HW1 6164  12.362   8.797  13.255
68089SOL    HW2 6165  12.432   8.753  13.129
68090SOL     OW 6166  11.322   3.309  12.956
68090SOL    HW1 6167  11.391   3.252  12.921
68090SOL    HW2 6168  11.344   3.319  13.048
68091SOL     OW 6169   3.357   0.704  13.312
68091SOL    HW1 6170   3.422   0.765  13.349
68091SOL    HW2 6171   3.277   0.723  13.362
68092SOL     OW 6172   2.865   6.633  14.585
68092SOL    HW1 6173   2.890   6.699  14.520
68092SOL    HW2 6174   2.933   6.566  14.580
68093SOL     OW 6175   8.577   4.457   8.378
68093SOL    HW1 6176   8.533   4.512   8.443
68093SOL    HW2 6177   8.507   4.430   8.319
68094SOL     OW 6178   0.513   3.928   7.860
68094SOL    HW1 6179   0.527   3.941   7.767
68094SOL    HW2 6180   0.594   3.887   7.891
68095SOL     OW 6181   5.504   1.809  10.780
68095SOL    HW1 6182   5.559   1.886  10.764
68095SOL    HW2 6183   5.566   1.736  10.785
68096SOL     OW 6184  12.917   4.077   5.776
68096SOL    HW1 6185  12.850   4.072   5.707
68096SOL    HW2 6186  12.874   4.127   5.846
68097SOL     OW 6187   3.148  13.006   2.149
68097SOL    HW1 6188   3.231  13.054   2.152
68097SOL    HW2 6189   3.170  12.918   2.178
68098SOL     OW 6190   6.385   4.242   6.148
68098SOL    HW1 6191   6.333   4.228   6.068
68098SOL    HW2 6192   6.401   4.336   6.149
68099SOL     OW 6193   0.526   6.888   1.961
68099SOL    HW1 6194   0.442   6.863   1.998
68099SOL    HW2 6195   0.566   6.944   2.027
68100SOL     OW 6196   3.311   7.956   1.815
68100SOL    HW1 6197   3.233   8.003   1.788
68100SOL    HW2 6198   3.384   8.014   1.792
68101SOL     OW 6199   2.428   0.652   6.742
68101SOL    HW1 6200   2.515   0.619   6.719
68101SOL    HW2 6201   2.421   0.636   6.836
68102SOL     OW 6202   3.308   9.682  11.413
68102SOL    HW1 6203   3.253   9.607  11.393
68102SOL    HW2 6204   3.271   9.718  11.494
68103SOL     OW 6205  12.854  12.586   0.806
68103SOL    HW1 6206  12.921  12.628   0.860
68103SOL    HW2 6207  12.843  12.643   0.730
68104SOL     OW 6208  12.181   7.213   1.110
68104SOL    HW1 6209  12.173   7.223   1.015
68104SOL    HW2 6210  12.129   7.285   1.146
68105SOL     OW 6211  13.402   0.224   6.503
68105SOL    HW1 6212  13.345   0.298   6.524
68105SOL    HW2 6213  13.485   0.263   6.479
68106SOL     OW 6214   1.509   7.741  12.059
68106SOL    HW1 6215   1.442   7.702  12.115
68106SOL    HW2 6216   1.489   7.706  11.972
68107SOL     OW 6217  12.150   4.981   2.369
68107SOL    HW1 6218  12.095   4.999   2.445
68107SOL    HW2 6219  12.229   4.942   2.406
68108SOL     OW 6220   7.267   1.417  11.059
68108SOL    HW1 6221   7.234   1.506  11.047
68108SOL    HW2 6222   7.353   1.417  11.018
68109SOL     OW 6223   8.578   6.748  12.898
68109SOL    HW1 6224   8.665   6.710  12.895
68109SOL    HW2 6225   8.522   6.685  12.853
68110SOL     OW 6226   9.714  12.687   3.533
68110SOL    HW1 6227   9.724  12.616   3.470
68110SOL    HW2 6228   9.630  12.728   3.511
68111SOL     OW 6229  10.964   9.265   1.666
68111SOL    HW1 6230  10.997   9.178   1.686
68111SOL    HW2 6231  11.038   9.310   1.625
68112SOL     OW 6232   7.005   5.426   7.717
68112SOL    HW1 6233   7.042   5.418   7.805
68112SOL    HW2 6234   6.911   5.424   7.730
68113SOL     OW 6235  13.069   9.117   1.431
68113SOL    HW1 6236  13.120   9.124   1.350
68113SOL    HW2 6237  13.012   9.041   1.418
68114SOL     OW 6238   5.562  12.098   6.614
68114SOL    HW1 6239   5.524  12.113   6.701
68114SOL    HW2 6240   5.657  12.103   6.629
68115SOL     OW 6241   3.502   3.522  10.532
68115SOL    HW1 6242   3.573   3.530  10.596
68115SOL    HW2 6243   3.546   3.532  10.447
68116SOL     OW 6244   7.594  11.789  11.509
68116SOL    HW1 6245   7.546  11.748  11.580
68116SOL    HW2 6246   7.541  11.866  11.486
68117SOL     OW 6247   4.545   3.846  14.812
68117SOL    HW1 6248   4.496   3.908  14.758
68117SOL    HW2 6249   4.620   3.896  14.843
68118SOL     OW 6250  12.381   7.590   3.163
68118SOL    HW1 6251  12.345   7.501   3.159
68118SOL    HW2 6252  12.435   7.591   3.242
68119SOL     OW 6253   5.138   4.159   2.016
68119SOL    HW1 6254   5.180   4.110   1.946
68119SOL    HW2 6255   5.211   4.190   2.070
68120SOL     OW 6256   1.196  12.704   8.005
68120SOL    HW1 6257   1.140  12.686   8.082
68120SOL    HW2 6258   1.134  12.731   7.937
68121SOL     OW 6259   4.421   1.938   4.338
68121SOL    HW1 6260   4.444   1.999   4.269
68121SOL    HW2 6261   4.385   1.992   4.408
68122SOL     OW 6262   3.182   6.811  14.677
68122SOL    HW1 6263   3.093   6.828  14.646
68122SOL    HW2 6264   3.232   6.793  14.597
68123SOL     OW 6265  12.789  11.297   5.989
68123SOL    HW1 6266  12.864  11.304   5.930
68123SOL    HW2 6267  12.773  11.386   6.018
68124SOL     OW 6268   8.473   1.909   7.678
68124SOL    HW1 6269   8.505   1.999   7.685
68124SOL    HW2 6270   8.462   1.895   7.584
68125SOL     OW 6271   9.354  11.176   3.206
68125SOL    HW1 6272   9.391  11.119   3.273
68125SOL    HW2 6273   9.386  11.263   3.228
68126SOL     OW 6274   7.409   2.937   4.650
68126SOL    HW1 6275   7.457   2.889   4.717
68126SOL    HW2 6276   7.439   2.900   4.567
68127SOL     OW 6277   3.346  12.531  10.369
68127SOL    HW1 6278   3.283  12.572  10.310
68127SOL    HW2 6279   3.397  12.603  10.405
68128SOL     OW 6280   7.171   3.560  14.025
68128SOL    HW1 6281   7.090   3.610  14.017
68128SOL    HW2 6282   7.184   3.550  14.120
68129SOL     OW 6283   8.272  13.935  13.320
68129SOL    HW1 6284   8.269  13.859  13.263
68129SOL    HW2 6285   8.271  13.899  13.409
68130SOL     OW 6286   4.271  14.097   6.248
68130SOL    HW1 6287   4.326  14.175   6.242
68130SOL    HW2 6288   4.313  14.043   6.315
68131SOL     OW 6289  13.932   0.786  13.139
68131SOL    HW1 6290  13.863   0.796  13.205
68131SOL    HW2 6291  13.971   0.873  13.132
68132SOL     OW 6292   7.979  11.283   4.059
68132SOL    HW1 6293   8.026  11.202   4.041
68132SOL    HW2 6294   7.953  11.315   3.972
68133SOL     OW 6295   6.642  14.397   0.685
68133SOL    HW1 6296   6.696  14.463   0.641
68133SOL    HW2 6297   6.622  14.333   0.616
68134SOL     OW 6298  10.766   2.324  14.507
68134SOL    HW1 6299  10.837   2.386  14.486
68134SOL    HW2 6300  10.729   2.357  14.589
68135SOL     OW 6301  13.429   3.550   0.328
68135SOL    HW1 6302  13.429   3.568   0.423
68135SOL    HW2 6303  13.478   3.623   0.290
68136SOL     OW 6304  10.087   5.611   8.474
68136SOL    HW1 6305  10.152   5.545   8.450
68136SOL    HW2 6306  10.139   5.685   8.505
68137SOL     OW 6307  14.031   7.634   8.611
68137SOL    HW1 6308  14.115   7.595   8.590
68137SOL    HW2 6309  13.995   7.664   8.528
68138SOL     OW 6310   1.210  11.288   5.918
68138SOL    HW1 6311   1.138  11.276   5.856
68138SOL    HW2 6312   1.216  11.205   5.965
68139SOL     OW 6313   1.733  12.759  11.341
68139SOL    HW1 6314   1.681  12.828  11.299
68139SOL    HW2 6315   1.781  12.804  11.411
68140SOL     OW 6316  11.647   2.770   1.858
68140SOL    HW1 6317  11.706   2.734   1.791
68140SOL    HW2 6318  11.636   2.861   1.832
68141SOL     OW 6319   7.596   5.471   1.323
68141SOL    HW1 6320   7.557   5.414   1.389
68141SOL    HW2 6321   7.682   5.495   1.360
68142SOL     OW 6322   9.156   3.561   4.945
68142SOL    HW1 6323   9.066   3.586   4.924
68142SOL    HW2 6324   9.192   3.638   4.990
68143SOL     OW 6325   8.662   1.568   1.620
68143SOL    HW1 6326   8.713   1.649   1.620
68143SOL    HW2 6327   8.714   1.507   1.672
68144SOL     OW 6328  12.148   4.203   3.579
68144SOL    HW1 6329  12.097   4.282   3.600
68144SOL    HW2 6330  12.124   4.141   3.647
68145SOL     OW 6331   9.321   1.537   3.256
68145SOL    HW1 6332   9.413   1.536   3.229
68145SOL    HW2 6333   9.302   1.446   3.281
68146SOL     OW 6334  11.131   8.551   8.053
68146SOL    HW1 6335  11.044   8.517   8.076
68146SOL    HW2 6336  11.191   8.498   8.105
68147SOL     OW 6337   5.782   7.527   5.986
68147SOL    HW1 6338   5.856   7.503   5.931
68147SOL    HW2 6339   5.815   7.520   6.075
68148SOL     OW 6340   2.187   8.973  14.220
68148SOL    HW1 6341   2.153   9.054  14.259
68148SOL    HW2 6342   2.211   8.919  14.296
68149SOL     OW 6343   5.754   0.233  14.820
68149SOL    HW1 6344   5.824   0.168  14.806
68149SOL    HW2 6345   5.759   0.253   0.044
68150SOL     OW 6346   2.485   9.680   9.163
68150SOL    HW1 6347   2.420   9.619   9.197
68150SOL    HW2 6348   2.529   9.632   9.094
68151SOL     OW 6349   5.105   9.874  11.344
68151SOL    HW1 6350   5.034   9.867  11.280
68151SOL    HW2 6351   5.126   9.968  11.346
68152SOL     OW 6352   2.391   4.446  12.287
68152SOL    HW1 6353   2.431   4.377  12.233
68152SOL    HW2 6354   2.464   4.503  12.311
68153SOL     OW 6355  11.497   0.622   3.603
68153SOL    HW1 6356  11.486   0.529   3.624
68153SOL    HW2 6357  11.587   0.641   3.629
68154SOL     OW 6358   8.772   2.238   2.569
68154SOL    HW1 6359   8.714   2.289   2.514
68154SOL    HW2 6360   8.727   2.233   2.653
68155SOL     OW 6361  13.627  11.903   9.886
68155SOL    HW1 6362  13.659  11.871   9.802
68155SOL    HW2 6363  13.652  11.996   9.887
68156SOL     OW 6364   2.197   4.669  10.536
68156SOL    HW1 6365   2.244   4.586  10.524
68156SOL    HW2 6366   2.162   4.689  10.449
68157SOL     OW 6367   5.119   5.715   5.155
68157SOL    HW1 6368   5.166   5.764   5.222
68157SOL    HW2 6369   5.185   5.656   5.118
68158SOL     OW 6370   9.376   8.689  13.555
68158SOL    HW1 6371   9.349   8.620  13.494
68158SOL    HW2 6372   9.326   8.671  13.635
68159SOL     OW 6373   5.130  12.590   1.087
68159SOL    HW1 6374   5.047  12.637   1.081
68159SOL    HW2 6375   5.197  12.658   1.078
68160SOL     OW 6376   7.057  13.384  12.001
68160SOL    HW1 6377   7.012  13.338  11.929
68160SOL    HW2 6378   7.030  13.475  11.991
68161SOL     OW 6379   7.795   2.396   1.719
68161SOL    HW1 6380   7.806   2.437   1.633
68161SOL    HW2 6381   7.730   2.327   1.704
68162SOL     OW 6382   7.628   6.067   7.537
68162SOL    HW1 6383   7.700   6.106   7.586
68162SOL    HW2 6384   7.637   6.103   7.448
68163SOL     OW 6385   3.741   5.198  10.392
68163SOL    HW1 6386   3.739   5.164  10.303
68163SOL    HW2 6387   3.690   5.135  10.443
68164SOL     OW 6388   5.997   9.746  13.667
68164SOL    HW1 6389   5.982   9.656  13.636
68164SOL    HW2 6390   5.913   9.789  13.658
68165SOL     OW 6391   1.018   9.861   5.028
68165SOL    HW1 6392   1.008   9.834   4.937
68165SOL    HW2 6393   0.980   9.789   5.079
68166SOL     OW 6394   6.410   0.744   7.037
68166SOL    HW1 6395   6.323   0.773   7.011
68166SOL    HW2 6396   6.470   0.800   6.987
68167SOL     OW 6397   6.409   3.332   8.205
68167SOL    HW1 6398   6.414   3.361   8.296
68167SOL    HW2 6399   6.315   3.322   8.188
68168SOL     OW 6400   1.396  12.112   0.356
68168SOL    HW1 6401   1.351  12.155   0.429
68168SOL    HW2 6402   1.477  12.162   0.345
68169SOL     OW 6403   3.151   5.516   6.398
68169SOL    HW1 6404   3.166   5.458   6.323
68169SOL    HW2 6405   3.083   5.473   6.449
68170SOL     OW 6406   7.910   5.790   3.047
68170SOL    HW1 6407   7.824   5.749   3.048
68170SOL    HW2 6408   7.968   5.726   3.088
68171SOL     OW 6409   1.994   4.514  12.802
68171SOL    HW1 6410   1.952   4.593  12.769
68171SOL    HW2 6411   1.956   4.443  12.751
68172SOL     OW 6412   9.922   1.834   8.513
68172SOL    HW1 6413   9.905   1.838   8.607
68172SOL    HW2 6414   9.887   1.750   8.485
68173SOL     OW 6415   7.168  12.670   6.746
68173SOL    HW1 6416   7.083  12.710   6.760
68173SOL    HW2 6417   7.181  12.613   6.822
68174SOL     OW 6418   1.092   0.237   4.753
68174SOL    HW1 6419   1.035   0.285   4.692
68174SOL    HW2 6420   1.031   0.189   4.809
68175SOL     OW 6421   4.326  11.866  10.043
68175SOL    HW1 6422   4.418  11.858  10.068
68175SOL    HW2 6423   4.278  11.838  10.121
68176SOL     OW 6424   7.080  14.450   7.322
68176SOL    HW1 6425   7.083  14.522   7.259
68176SOL    HW2 6426   7.057  14.373   7.269
68177SOL     OW 6427   4.194  12.239  13.170
68177SOL    HW1 6428   4.197  12.314  13.229
68177SOL    HW2 6429   4.283  12.228  13.139
68178SOL     OW 6430   7.975   6.055   5.492
68178SOL    HW1 6431   8.037   6.118   5.530
68178SOL    HW2 6432   7.903   6.051   5.555
68179SOL     OW 6433   5.183   7.318   8.310
68179SOL    HW1 6434   5.132   7.397   8.326
68179SOL    HW2 6435   5.274   7.346   8.322
68180SOL     OW 6436   9.807   6.256   9.588
68180SOL    HW1 6437   9.778   6.167   9.569
68180SOL    HW2 6438   9.897   6.260   9.556
68181SOL     OW 6439   2.039   2.327   1.392
68181SOL    HW1 6440   2.082   2.242   1.404
68181SOL    HW2 6441   2.110   2.389   1.380
68182SOL     OW 6442   4.408   5.316   0.937
68182SOL    HW1 6443   4.502   5.301   0.939
68182SOL    HW2 6444   4.383   5.298   0.847
68183SOL     OW 6445   5.795  12.915   3.579
68183SOL    HW1 6446   5.809  12.826   3.547
68183SOL    HW2 6447   5.831  12.913   3.668
68184SOL     OW 6448   7.471  11.682  13.897
68184SOL    HW1 6449   7.533  11.681  13.824
68184SOL    HW2 6450   7.436  11.771  13.897
68185SOL     OW 6451   7.744  12.702   7.896
68185SOL    HW1 6452   7.761  12.796   7.886
68185SOL    HW2 6453   7.718  12.692   7.988
68186SOL     OW 6454  12.496   5.068  11.195
68186SOL    HW1 6455  12.515   4.989  11.145
68186SOL    HW2 6456  12.478   5.135  11.128
68187SOL     OW 6457  12.547  10.881   4.534
68187SOL    HW1 6458  12.460  10.895   4.571
68187SOL    HW2 6459  12.575  10.967   4.505
68188SOL     OW 6460   7.105   9.042   8.181
68188SOL    HW1 6461   7.010   9.051   8.175
68188SOL    HW2 6462   7.134   9.123   8.225
68189SOL     OW 6463  10.098  12.923   3.076
68189SOL    HW1 6464  10.011  12.884   3.079
68189SOL    HW2 6465  10.152  12.866   3.131
68190SOL     OW 6466   6.606   6.040  13.214
68190SOL    HW1 6467   6.645   6.120  13.248
68190SOL    HW2 6468   6.594   6.056  13.121
68191SOL     OW 6469   4.594   7.462  12.251
68191SOL    HW1 6470   4.596   7.392  12.186
68191SOL    HW2 6471   4.624   7.421  12.332
68192SOL     OW 6472  11.560   4.482   9.261
68192SOL    HW1 6473  11.609   4.469   9.342
68192SOL    HW2 6474  11.607   4.553   9.216
68193SOL     OW 6475   9.973   9.744   0.959
68193SOL    HW1 6476   9.996   9.827   1.002
68193SOL    HW2 6477   9.880   9.754   0.938
68194SOL     OW 6478  13.957   8.172  10.149
68194SOL    HW1 6479  13.980   8.238  10.083
68194SOL    HW2 6480  14.024   8.104  10.138
68195SOL     OW 6481  10.166   3.531   9.209
68195SOL    HW1 6482  10.120   3.609   9.239
68195SOL    HW2 6483  10.128   3.460   9.262
68196SOL     OW 6484  11.091   8.379   4.591
68196SOL    HW1 6485  11.063   8.333   4.670
68196SOL    HW2 6486  11.089   8.312   4.523
68197SOL     OW 6487   6.774  14.618   8.759
68197SOL    HW1 6488   6.828  14.565   8.701
68197SOL    HW2 6489   6.702  14.648   8.704
68198SOL     OW 6490   6.303   1.063  14.044
68198SOL    HW1 6491   6.391   1.101  14.043
68198SOL    HW2 6492   6.317   0.971  14.065
68199SOL     OW 6493  11.640  12.767  11.442
68199SOL    HW1 6494  11.582  12.737  11.372
68199SOL    HW2 6495  11.589  12.752  11.522
68200SOL     OW 6496   5.208   8.436  11.747
68200SOL    HW1 6497   5.294   8.474  11.767
68200SOL    HW2 6498   5.197   8.367  11.813
68201SOL     OW 6499   6.998   2.244   8.076
68201SOL    HW1 6500   6.982   2.164   8.026
68201SOL    HW2 6501   7.074   2.223   8.130
68202SOL     OW 6502   8.191   8.987   8.218
68202SOL    HW1 6503   8.259   9.051   8.197
68202SOL    HW2 6504   8.235   8.921   8.271
68203SOL     OW 6505  14.659   6.756  14.452
68203SOL    HW1 6506  14.665   6.851  14.443
68203SOL    HW2 6507  14.671   6.740  14.545
68204SOL     OW 6508   6.193   7.960   8.268
68204SOL    HW1 6509   6.102   7.986   8.284
68204SOL    HW2 6510   6.232   7.952   8.355
68205SOL     OW 6511  11.073   5.283  14.693
68205SOL    HW1 6512  11.145   5.296  14.631
68205SOL    HW2 6513  10.994   5.304  14.642
68206SOL     OW 6514   9.888   6.545  10.590
68206SOL    HW1 6515   9.822   6.536  10.521
68206SOL    HW2 6516   9.873   6.470  10.647
68207SOL     OW 6517  14.068  10.460   5.272
68207SOL    HW1 6518  14.153  10.498   5.292
68207SOL    HW2 6519  14.079  10.421   5.185
68208SOL     OW 6520  12.315  14.274  11.972
68208SOL    HW1 6521  12.265  14.311  11.899
68208SOL    HW2 6522  12.391  14.233  11.931
68209SOL     OW 6523   1.696  12.384   8.742
68209SOL    HW1 6524   1.652  12.433   8.812
68209SOL    HW2 6525   1.707  12.296   8.778
68210SOL     OW 6526  10.275   0.360  14.746
68210SOL    HW1 6527  10.326   0.322  14.675
68210SOL    HW2 6528  10.249   0.285  14.800
68211SOL     OW 6529   4.085   6.367   1.925
68211SOL    HW1 6530   4.097   6.461   1.942
68211SOL    HW2 6531   4.095   6.326   2.010
68212SOL     OW 6532   8.821   4.684   3.282
68212SOL    HW1 6533   8.796   4.679   3.374
68212SOL    HW2 6534   8.742   4.660   3.234
68213SOL     OW 6535   8.476  13.588   1.437
68213SOL    HW1 6536   8.558  13.608   1.392
68213SOL    HW2 6537   8.434  13.673   1.448
68214SOL     OW 6538   7.807   7.718   9.045
68214SOL    HW1 6539   7.728   7.666   9.028
68214SOL    HW2 6540   7.877   7.653   9.052
68215SOL     OW 6541   4.106  10.153   7.568
68215SOL    HW1 6542   4.162  10.082   7.538
68215SOL    HW2 6543   4.068  10.121   7.650
68216SOL     OW 6544   0.761  13.381   8.592
68216SOL    HW1 6545   0.724  13.292   8.591
68216SOL    HW2 6546   0.742  13.413   8.680
68217SOL     OW 6547   2.257   6.593  11.678
68217SOL    HW1 6548   2.177   6.603  11.729
68217SOL    HW2 6549   2.235   6.528  11.611
68218SOL     OW 6550   9.786  11.995  13.877
68218SOL    HW1 6551   9.822  12.014  13.791
68218SOL    HW2 6552   9.767  11.901  13.874
68219SOL     OW 6553   5.757   6.198   9.023
68219SOL    HW1 6554   5.786   6.114   8.986
68219SOL    HW2 6555   5.665   6.204   8.998
68220SOL     OW 6556  10.716   6.664   6.935
68220SOL    HW1 6557  10.760   6.631   6.857
68220SOL    HW2 6558  10.777   6.728   6.972
68221SOL     OW 6559  11.260   3.159   0.400
68221SOL    HW1 6560  11.293   3.229   0.457
68221SOL    HW2 6561  11.206   3.205   0.335
68222SOL     OW 6562   2.018  10.280   7.242
68222SOL    HW1 6563   1.933  10.304   7.279
68222SOL    HW2 6564   2.012  10.305   7.150
68223SOL     OW 6565   1.968   5.548   2.469
68223SOL    HW1 6566   1.907   5.621   2.459
68223SOL    HW2 6567   1.944   5.509   2.553
68224SOL     OW 6568   6.621   3.743   2.188
68224SOL    HW1 6569   6.596   3.749   2.095
68224SOL    HW2 6570   6.690   3.810   2.198
68225SOL     OW 6571  13.813  11.609   0.146
68225SOL    HW1 6572  13.758  11.621   0.069
68225SOL    HW2 6573  13.903  11.609   0.113
68226SOL     OW 6574   7.155  12.600   2.476
68226SOL    HW1 6575   7.159  12.693   2.495
68226SOL    HW2 6576   7.244  12.568   2.488
68227SOL     OW 6577   6.748   1.617   3.377
68227SOL    HW1 6578   6.730   1.598   3.285
68227SOL    HW2 6579   6.675   1.577   3.424
68228SOL     OW 6580   3.893   1.157  14.007
68228SOL    HW1 6581   3.901   1.213  13.930
68228SOL    HW2 6582   3.869   1.071  13.973
68229SOL     OW 6583   9.706   3.647   2.496
68229SOL    HW1 6584   9.800   3.650   2.479
68229SOL    HW2 6585   9.687   3.732   2.536
68230SOL     OW 6586   6.574   3.285   4.148
68230SOL    HW1 6587   6.512   3.215   4.165
68230SOL    HW2 6588   6.547   3.356   4.206
68231SOL     OW 6589   0.400   2.451   4.265
68231SOL    HW1 6590   0.395   2.546   4.250
68231SOL    HW2 6591   0.351   2.413   4.193
68232SOL     OW 6592   0.417   5.583   5.854
68232SOL    HW1 6593   0.417   5.560   5.947
68232SOL    HW2 6594   0.462   5.667   5.850
68233SOL     OW 6595  10.654   1.242  14.413
68233SOL    HW1 6596  10.614   1.221  14.498
68233SOL    HW2 6597  10.601   1.314  14.379
68234SOL     OW 6598   5.574  12.020  12.505
68234SOL    HW1 6599   5.502  11.959  12.492
68234SOL    HW2 6600   5.639  11.994  12.440
68235SOL     OW 6601  13.563   9.650   2.275
68235SOL    HW1 6602  13.518   9.721   2.230
68235SOL    HW2 6603  13.505   9.575   2.265
68236SOL     OW 6604   5.831   4.188   9.988
68236SOL    HW1 6605   5.763   4.211  10.051
68236SOL    HW2 6606   5.796   4.217   9.904
68237SOL     OW 6607  13.766  10.842   8.312
68237SOL    HW1 6608  13.750  10.936   8.302
68237SOL    HW2 6609  13.856  10.829   8.282
68238SOL     OW 6610  11.815  10.303  13.827
68238SOL    HW1 6611  11.822  10.222  13.877
68238SOL    HW2 6612  11.781  10.275  13.742
68239SOL     OW 6613  14.802   9.331   2.064
68239SOL    HW1 6614  14.824   9.330   1.971
68239SOL    HW2 6615  14.782   9.240   2.085
68240SOL     OW 6616  10.121   5.206  13.855
68240SOL    HW1 6617  10.138   5.227  13.947
68240SOL    HW2 6618  10.030   5.176  13.853
68241SOL     OW 6619   0.498   7.498   9.404
68241SOL    HW1 6620   0.512   7.584   9.444
68241SOL    HW2 6621   0.531   7.435   9.468
68242SOL     OW 6622   1.815   2.396   7.236
68242SOL    HW1 6623   1.840   2.461   7.170
68242SOL    HW2 6624   1.865   2.421   7.314
68243SOL     OW 6625   0.860   0.090   8.522
68243SOL    HW1 6626   0.893   0.140   8.447
68243SOL    HW2 6627   0.810   0.154   8.573
68244SOL     OW 6628   5.600  14.815   4.029
68244SOL    HW1 6629   5.608  14.738   3.974
68244SOL    HW2 6630   5.587   0.018   3.967
68245SOL     OW 6631   0.984   1.080   2.393
68245SOL    HW1 6632   0.913   1.020   2.418
68245SOL    HW2 6633   1.009   1.052   2.305
68246SOL     OW 6634  10.706   4.071   8.629
68246SOL    HW1 6635  10.629   4.100   8.677
68246SOL    HW2 6636  10.749   4.008   8.687
68247SOL     OW 6637   8.090  13.834   9.825
68247SOL    HW1 6638   8.056  13.823   9.736
68247SOL    HW2 6639   8.039  13.772   9.877
68248SOL     OW 6640   0.765   8.675   0.001
68248SOL    HW1 6641   0.726   8.763  14.865
68248SOL    HW2 6642   0.756   8.650   0.093
68249SOL     OW 6643   9.424   5.989   3.595
68249SOL    HW1 6644   9.345   5.941   3.620
68249SOL    HW2 6645   9.420   6.069   3.646
68250SOL     OW 6646  12.815   3.473   3.769
68250SOL    HW1 6647  12.751   3.413   3.733
68250SOL    HW2 6648  12.763   3.544   3.808
68251SOL     OW 6649   5.105   3.413   5.119
68251SOL    HW1 6650   5.108   3.420   5.024
68251SOL    HW2 6651   5.146   3.329   5.139
68252SOL     OW 6652  12.579   9.853   5.445
68252SOL    HW1 6653  12.597   9.825   5.355
68252SOL    HW2 6654  12.492   9.894   5.439
68253SOL     OW 6655  10.858   0.715   6.405
68253SOL    HW1 6656  10.807   0.752   6.333
68253SOL    HW2 6657  10.918   0.653   6.363
68254SOL     OW 6658  12.937   0.132   2.135
68254SOL    HW1 6659  12.938   0.067   2.064
68254SOL    HW2 6660  12.845   0.155   2.145
68255SOL     OW 6661   4.027  11.726   1.362
68255SOL    HW1 6662   4.043  11.714   1.456
68255SOL    HW2 6663   4.093  11.789   1.334
68256SOL     OW 6664   3.434   1.780   4.670
68256SOL    HW1 6665   3.464   1.691   4.689
68256SOL    HW2 6666   3.355   1.768   4.618
68257SOL     OW 6667   7.227  12.479  10.528
68257SOL    HW1 6668   7.191  12.390  10.531
68257SOL    HW2 6669   7.174  12.524  10.462
68258SOL     OW 6670   5.608  11.222   3.470
68258SOL    HW1 6671   5.549  11.239   3.396
68258SOL    HW2 6672   5.683  11.178   3.431
68259SOL     OW 6673   3.427  12.021   2.144
68259SOL    HW1 6674   3.431  12.100   2.089
68259SOL    HW2 6675   3.339  12.021   2.180
68260SOL     OW 6676  11.954  10.049   5.828
68260SOL    HW1 6677  12.009   9.979   5.864
68260SOL    HW2 6678  11.928  10.100   5.905
68261SOL     OW 6679   1.350  14.572   4.104
68261SOL    HW1 6680   1.344  14.626   4.183
68261SOL    HW2 6681   1.443  14.553   4.095
68262SOL     OW 6682  14.341   4.590   4.790
68262SOL    HW1 6683  14.279   4.606   4.861
68262SOL    HW2 6684  14.400   4.523   4.825
68263SOL     OW 6685  14.729   4.681   4.642
68263SOL    HW1 6686  14.640   4.717   4.640
68263SOL    HW2 6687  14.732   4.630   4.723
68264SOL     OW 6688   3.906   2.157   6.336
68264SOL    HW1 6689   3.962   2.209   6.394
68264SOL    HW2 6690   3.921   2.066   6.364
68265SOL     OW 6691   4.288   7.446   9.684
68265SOL    HW1 6692   4.217   7.449   9.748
68265SOL    HW2 6693   4.271   7.366   9.633
68266SOL     OW 6694   2.745  14.487   5.110
68266SOL    HW1 6695   2.789  14.538   5.178
68266SOL    HW2 6696   2.710  14.553   5.050
68267SOL     OW 6697  10.078   2.826   1.445
68267SOL    HW1 6698  10.046   2.737   1.430
68267SOL    HW2 6699  10.057   2.844   1.537
68268SOL     OW 6700  10.339   2.687   8.622
68268SOL    HW1 6701  10.398   2.749   8.578
68268SOL    HW2 6702  10.398   2.628   8.669
68269SOL     OW 6703  11.029   2.481   1.325
68269SOL    HW1 6704  10.969   2.417   1.364
68269SOL    HW2 6705  11.066   2.528   1.401
68270SOL     OW 6706  11.387   6.147  13.509
68270SOL    HW1 6707  11.478   6.120  13.500
68270SOL    HW2 6708  11.342   6.103  13.436
68271SOL     OW 6709  13.073   1.287   0.867
68271SOL    HW1 6710  13.163   1.271   0.841
68271SOL    HW2 6711  13.046   1.363   0.815
68272SOL     OW 6712  12.565   1.442  13.187
68272SOL    HW1 6713  12.480   1.457  13.145
68272SOL    HW2 6714  12.553   1.361  13.237
68273SOL     OW 6715  14.419   5.890   0.673
68273SOL    HW1 6716  14.463   5.931   0.598
68273SOL    HW2 6717  14.476   5.816   0.696
68274SOL     OW 6718   5.689   0.310   2.685
68274SOL    HW1 6719   5.657   0.357   2.609
68274SOL    HW2 6720   5.784   0.305   2.673
68275SOL     OW 6721  10.369  14.261   0.998
68275SOL    HW1 6722  10.448  14.217   1.032
68275SOL    HW2 6723  10.318  14.191   0.958
68276SOL     OW 6724  11.892   3.341  10.037
68276SOL    HW1 6725  11.929   3.414  10.087
68276SOL    HW2 6726  11.939   3.342   9.954
68277SOL     OW 6727   7.861   4.696   5.795
68277SOL    HW1 6728   7.771   4.698   5.828
68277SOL    HW2 6729   7.852   4.700   5.700
68278SOL     OW 6730  14.841   5.926   7.646
68278SOL    HW1 6731  14.825   5.895   7.557
68278SOL    HW2 6732  14.758   5.966   7.672
68279SOL     OW 6733   7.387   2.218  11.440
68279SOL    HW1 6734   7.382   2.127  11.467
68279SOL    HW2 6735   7.352   2.268  11.514
68280SOL     OW 6736   5.832   1.732   7.877
68280SOL    HW1 6737   5.895   1.703   7.943
68280SOL    HW2 6738   5.749   1.694   7.904
68281SOL     OW 6739   4.327   0.775   9.187
68281SOL    HW1 6740   4.287   0.848   9.139
68281SOL    HW2 6741   4.296   0.785   9.276
68282SOL     OW 6742  12.532   5.308   6.361
68282SOL    HW1 6743  12.612   5.266   6.393
68282SOL    HW2 6744  12.521   5.384   6.418
68283SOL     OW 6745  12.139   9.138   7.999
68283SOL    HW1 6746  12.075   9.066   8.002
68283SOL    HW2 6747  12.108   9.200   8.065
68284SOL     OW 6748   9.137  14.736  13.478
68284SOL    HW1 6749   9.119  14.689  13.559
68284SOL    HW2 6750   9.058  14.788  13.462
68285SOL     OW 6751  13.860  11.633   6.821
68285SOL    HW1 6752  13.819  11.675   6.746
68285SOL    HW2 6753  13.815  11.670   6.897
68286SOL     OW 6754   4.929   8.226   7.644
68286SOL    HW1 6755   4.934   8.301   7.703
68286SOL    HW2 6756   5.007   8.174   7.664
68287SOL     OW 6757   2.288   6.518   4.670
68287SOL    HW1 6758   2.318   6.528   4.761
68287SOL    HW2 6759   2.368   6.513   4.619
68288SOL     OW 6760  14.775   1.382  12.980
68288SOL    HW1 6761  14.802   1.399  12.889
68288SOL    HW2 6762  14.679   1.383  12.976
68289SOL     OW 6763   0.391  13.446   1.225
68289SOL    HW1 6764   0.482  13.444   1.252
68289SOL    HW2 6765   0.352  13.518   1.276
68290SOL     OW 6766  11.600   6.067  14.392
68290SOL    HW1 6767  11.622   6.097  14.480
68290SOL    HW2 6768  11.540   6.133  14.358
68291SOL     OW 6769  10.859   7.774   2.130
68291SOL    HW1 6770  10.913   7.825   2.070
68291SOL    HW2 6771  10.796   7.836   2.164
68292SOL     OW 6772   8.825  14.311   1.394
68292SOL    HW1 6773   8.851  14.330   1.484
68292SOL    HW2 6774   8.730  14.303   1.397
68293SOL     OW 6775   5.626  11.298  11.742
68293SOL    HW1 6776   5.693  11.353  11.783
68293SOL    HW2 6777   5.543  11.337  11.770
68294SOL     OW 6778  11.078   0.234   6.170
68294SOL    HW1 6779  11.006   0.268   6.223
68294SOL    HW2 6780  11.081   0.140   6.190
68295SOL     OW 6781  12.812   6.278  14.434
68295SOL    HW1 6782  12.892   6.228  14.451
68295SOL    HW2 6783  12.839   6.369  14.445
68296SOL     OW 6784   3.842   3.713   1.870
68296SOL    HW1 6785   3.899   3.750   1.938
68296SOL    HW2 6786   3.900   3.701   1.795
68297SOL     OW 6787   5.679  10.958  11.928
68297SOL    HW1 6788   5.592  10.982  11.896
68297SOL    HW2 6789   5.670  10.869  11.960
68298SOL     OW 6790  14.222  13.999   6.668
68298SOL    HW1 6791  14.260  14.087   6.672
68298SOL    HW2 6792  14.285  13.944   6.714
68299SOL     OW 6793  11.133   9.902   8.963
68299SOL    HW1 6794  11.057   9.872   8.912
68299SOL    HW2 6795  11.107   9.889   9.054
68300SOL     OW 6796   7.552   8.598   4.271
68300SOL    HW1 6797   7.626   8.571   4.324
68300SOL    HW2 6798   7.477   8.554   4.311
68301SOL     OW 6799   9.968  14.717   3.140
68301SOL    HW1 6800   9.948  14.634   3.184
68301SOL    HW2 6801   9.911  14.718   3.063
68302SOL     OW 6802   0.465   1.953  12.761
68302SOL    HW1 6803   0.389   1.904  12.791
68302SOL    HW2 6804   0.538   1.891  12.766
68303SOL     OW 6805   2.032  10.404   9.247
68303SOL    HW1 6806   1.958  10.384   9.189
68303SOL    HW2 6807   2.109  10.373   9.200
68304SOL     OW 6808  11.071   9.053   0.711
68304SOL    HW1 6809  11.159   9.087   0.726
68304SOL    HW2 6810  11.014   9.104   0.768
68305SOL     OW 6811   4.099   3.409  11.879
68305SOL    HW1 6812   4.043   3.396  11.955
68305SOL    HW2 6813   4.134   3.497  11.889
68306SOL     OW 6814   8.882  14.277  11.120
68306SOL    HW1 6815   8.930  14.194  11.126
68306SOL    HW2 6816   8.881  14.310  11.210
68307SOL     OW 6817   2.306  12.540   3.312
68307SOL    HW1 6818   2.303  12.567   3.221
68307SOL    HW2 6819   2.217  12.510   3.332
68308SOL     OW 6820   6.648  14.140  10.426
68308SOL    HW1 6821   6.685  14.225  10.449
68308SOL    HW2 6822   6.591  14.118  10.499
68309SOL     OW 6823   3.392   6.530   2.024
68309SOL    HW1 6824   3.462   6.572   1.973
68309SOL    HW2 6825   3.314   6.581   2.004
68310SOL     OW 6826   4.495  14.422  10.530
68310SOL    HW1 6827   4.537  14.366  10.594
68310SOL    HW2 6828   4.474  14.502  10.579
68311SOL     OW 6829   3.450  12.084   7.129
68311SOL    HW1 6830   3.545  12.083   7.140
68311SOL    HW2 6831   3.427  11.992   7.113
68312SOL     OW 6832   3.305  10.560   9.605
68312SOL    HW1 6833   3.317  10.643   9.651
68312SOL    HW2 6834   3.265  10.585   9.521
68313SOL     OW 6835   6.486   3.500  13.484
68313SOL    HW1 6836   6.406   3.454  13.511
68313SOL    HW2 6837   6.553   3.432  13.482
68314SOL     OW 6838   7.472   7.515  13.867
68314SOL    HW1 6839   7.563   7.489  13.866
68314SOL    HW2 6840   7.459   7.560  13.783
68315SOL     OW 6841  10.596  14.113   8.571
68315SOL    HW1 6842  10.597  14.204   8.601
68315SOL    HW2 6843  10.644  14.115   8.488
68316SOL     OW 6844  12.875   5.491   5.445
68316SOL    HW1 6845  12.871   5.534   5.359
68316SOL    HW2 6846  12.966   5.504   5.474
68317SOL     OW 6847  12.755  10.018   5.588
68317SOL    HW1 6848  12.711   9.961   5.525
68317SOL    HW2 6849  12.758   9.966   5.669
68318SOL     OW 6850  12.723   0.110   1.067
68318SOL    HW1 6851  12.652   0.052   1.091
68318SOL    HW2 6852  12.680   0.194   1.048
68319SOL     OW 6853   6.701   8.932  11.616
68319SOL    HW1 6854   6.752   8.989  11.673
68319SOL    HW2 6855   6.664   8.866  11.674
68320SOL     OW 6856  12.852  11.203   9.006
68320SOL    HW1 6857  12.797  11.233   9.078
68320SOL    HW2 6858  12.940  11.231   9.029
68321SOL     OW 6859   5.499   7.741  13.602
68321SOL    HW1 6860   5.455   7.807  13.655
68321SOL    HW2 6861   5.459   7.658  13.629
68322SOL     OW 6862   4.484   3.974   4.829
68322SOL    HW1 6863   4.398   4.011   4.848
68322SOL    HW2 6864   4.470   3.880   4.825
68323SOL     OW 6865  12.489  14.369   3.529
68323SOL    HW1 6866  12.437  14.385   3.608
68323SOL    HW2 6867  12.571  14.332   3.561
68324SOL     OW 6868  10.908   5.883   9.125
68324SOL    HW1 6869  10.985   5.920   9.166
68324SOL    HW2 6870  10.869   5.827   9.192
68325SOL     OW 6871  10.925   0.255   9.126
68325SOL    HW1 6872  10.927   0.173   9.174
68325SOL    HW2 6873  10.905   0.321   9.192
68326SOL     OW 6874   5.226   2.005   9.702
68326SOL    HW1 6875   5.194   1.923   9.739
68326SOL    HW2 6876   5.290   1.978   9.636
68327SOL     OW 6877   9.570  10.749   3.954
68327SOL    HW1 6878   9.661  10.772   3.970
68327SOL    HW2 6879   9.552  10.781   3.865
68328SOL     OW 6880   2.749   4.872  11.179
68328SOL    HW1 6881   2.732   4.858  11.086
68328SOL    HW2 6882   2.804   4.950  11.182
68329SOL     OW 6883   1.790   6.704  10.467
68329SOL    HW1 6884   1.839   6.787  10.471
68329SOL    HW2 6885   1.712   6.719  10.520
68330SOL     OW 6886   8.912   5.317  11.422
68330SOL    HW1 6887   9.004   5.321  11.395
68330SOL    HW2 6888   8.878   5.239  11.379
68331SOL     OW 6889   6.865   7.866   0.245
68331SOL    HW1 6890   6.886   7.841   0.155
68331SOL    HW2 6891   6.884   7.787   0.296
68332SOL     OW 6892  14.335  10.531   5.586
68332SOL    HW1 6893  14.374  10.618   5.593
68332SOL    HW2 6894  14.306  10.511   5.675
68333SOL     OW 6895  10.516   5.111  11.122
68333SOL    HW1 6896  10.470   5.043  11.073
68333SOL    HW2 6897  10.452   5.142  11.187
68334SOL     OW 6898  14.754   2.194   5.469
68334SOL    HW1 6899  14.775   2.149   5.387
68334SOL    HW2 6900  14.688   2.259   5.445
68335SOL     OW 6901   3.511  13.603   0.841
68335SOL    HW1 6902   3.424  13.564   0.832
68335SOL    HW2 6903   3.500  13.673   0.905
68336SOL     OW 6904  13.086   3.673   1.192
68336SOL    HW1 6905  13.043   3.610   1.135
68336SOL    HW2 6906  13.078   3.636   1.280
68337SOL     OW 6907  13.047  11.548  11.526
68337SOL    HW1 6908  13.105  11.534  11.451
68337SOL    HW2 6909  13.039  11.462  11.567
68338SOL     OW 6910   1.078   8.155   7.641
68338SOL    HW1 6911   1.053   8.201   7.721
68338SOL    HW2 6912   1.134   8.216   7.594
68339SOL     OW 6913  10.283  14.831   2.808
68339SOL    HW1 6914  10.336  14.818   2.730
68339SOL    HW2 6915  10.201  14.868   2.776
68340SOL     OW 6916   2.787   3.488  14.506
68340SOL    HW1 6917   2.847   3.416  14.528
68340SOL    HW2 6918   2.703   3.460  14.542
68341SOL     OW 6919  11.332   9.142   4.984
68341SOL    HW1 6920  11.392   9.070   5.000
68341SOL    HW2 6921  11.294   9.162   5.070
68342SOL     OW 6922   2.015   9.429   0.637
68342SOL    HW1 6923   2.014   9.386   0.722
68342SOL    HW2 6924   1.965   9.510   0.649
68343SOL     OW 6925  13.933   8.071   2.223
68343SOL    HW1 6926  13.949   7.982   2.254
68343SOL    HW2 6927  13.838   8.080   2.223
68344SOL     OW 6928   7.212  10.010   8.257
68344SOL    HW1 6929   7.286  10.069   8.274
68344SOL    HW2 6930   7.191   9.974   8.343
68345SOL     OW 6931   0.039  10.960   8.040
68345SOL    HW1 6932   0.022  10.881   7.988
68345SOL    HW2 6933  14.823  10.986   8.073
68346SOL     OW 6934  12.984   5.726  14.180
68346SOL    HW1 6935  13.055   5.665  14.165
68346SOL    HW2 6936  12.935   5.726  14.097
68347SOL     OW 6937  13.557  12.316   9.244
68347SOL    HW1 6938  13.524  12.400   9.277
68347SOL    HW2 6939  13.652  12.326   9.247
68348SOL     OW 6940  13.086   9.973   6.386
68348SOL    HW1 6941  13.033  10.047   6.417
68348SOL    HW2 6942  13.040   9.942   6.308
68349SOL     OW 6943   6.188  13.584  13.086
68349SOL    HW1 6944   6.269  13.537  13.104
68349SOL    HW2 6945   6.153  13.606  13.173
68350SOL     OW 6946   2.494   1.557  12.165
68350SOL    HW1 6947   2.553   1.625  12.132
68350SOL    HW2 6948   2.408   1.580  12.131
68351SOL     OW 6949   5.636  12.900   5.960
68351SOL    HW1 6950   5.627  12.976   6.017
68351SOL    HW2 6951   5.572  12.915   5.890
68352SOL     OW 6952   5.560   9.021   6.981
68352SOL    HW1 6953   5.518   8.989   6.901
68352SOL    HW2 6954   5.547   8.950   7.044
68353SOL     OW 6955  10.745   9.326  14.037
68353SOL    HW1 6956  10.662   9.332  13.990
68353SOL    HW2 6957  10.722   9.334  14.129
68354SOL     OW 6958   6.233   3.806  13.337
68354SOL    HW1 6959   6.211   3.742  13.405
68354SOL    HW2 6960   6.153   3.811  13.284
68355SOL     OW 6961   8.144  12.827   0.072
68355SOL    HW1 6962   8.238  12.814   0.082
68355SOL    HW2 6963   8.117  12.868   0.155
68356SOL     OW 6964   5.357   1.002  12.070
68356SOL    HW1 6965   5.418   1.068  12.104
68356SOL    HW2 6966   5.273   1.048  12.063
68357SOL     OW 6967   1.155   3.114   5.171
68357SOL    HW1 6968   1.178   3.101   5.079
68357SOL    HW2 6969   1.093   3.187   5.170
68358SOL     OW 6970   1.959  12.881   7.825
68358SOL    HW1 6971   1.886  12.820   7.817
68358SOL    HW2 6972   1.954  12.935   7.747
68359SOL     OW 6973   5.347   0.103   1.425
68359SOL    HW1 6974   5.319   0.040   1.491
68359SOL    HW2 6975   5.378   0.049   1.352
68360SOL     OW 6976   4.717   6.103  14.683
68360SOL    HW1 6977   4.639   6.062  14.646
68360SOL    HW2 6978   4.775   6.117  14.608
68361SOL     OW 6979   2.686  12.038   4.137
68361SOL    HW1 6980   2.653  11.986   4.064
68361SOL    HW2 6981   2.753  11.983   4.178
68362SOL     OW 6982  13.431   3.302  13.651
68362SOL    HW1 6983  13.458   3.222  13.605
68362SOL    HW2 6984  13.336   3.297  13.653
68363SOL     OW 6985   4.131   9.244   2.807
68363SOL    HW1 6986   4.064   9.284   2.863
68363SOL    HW2 6987   4.207   9.301   2.815
68364SOL     OW 6988   3.875  13.332   8.812
68364SOL    HW1 6989   3.888  13.422   8.844
68364SOL    HW2 6990   3.827  13.343   8.730
68365SOL     OW 6991   8.246   0.729   6.564
68365SOL    HW1 6992   8.230   0.739   6.470
68365SOL    HW2 6993   8.276   0.815   6.593
68366SOL     OW 6994   6.829   8.610   0.917
68366SOL    HW1 6995   6.901   8.648   0.865
68366SOL    HW2 6996   6.762   8.589   0.852
68367SOL     OW 6997   7.896  11.444   6.160
68367SOL    HW1 6998   7.827  11.508   6.175
68367SOL    HW2 6999   7.860  11.385   6.094
68368SOL     OW 7000   7.168  13.820   9.495
68368SOL    HW1 7001   7.251  13.862   9.472
68368SOL    HW2 7002   7.167  13.819   9.591
68369SOL     OW 7003  10.363   7.977   4.974
68369SOL    HW1 7004  10.269   7.994   4.981
68369SOL    HW2 7005  10.371   7.914   4.902
68370SOL     OW 7006  13.528  13.633   4.477
68370SOL    HW1 7007  13.492  13.697   4.415
68370SOL    HW2 7008  13.617  13.616   4.444
68371SOL     OW 7009  11.776   6.582   0.036
68371SOL    HW1 7010  11.847   6.525   0.066
68371SOL    HW2 7011  11.780   6.577  14.810
68372SOL     OW 7012   4.910   7.495   0.457
68372SOL    HW1 7013   4.980   7.476   0.396
68372SOL    HW2 7014   4.909   7.420   0.517
68373SOL     OW 7015   6.570   3.844   9.417
68373SOL    HW1 7016   6.659   3.831   9.385
68373SOL    HW2 7017   6.544   3.758   9.449
68374SOL     OW 7018   7.485  10.518   6.189
68374SOL    HW1 7019   7.432  10.584   6.234
68374SOL    HW2 7020   7.471  10.438   6.240
68375SOL     OW 7021  11.081  13.876  14.654
68375SOL    HW1 7022  11.073  13.782  14.636
68375SOL    HW2 7023  11.018  13.892  14.724
68376SOL     OW 7024   4.588   5.920   8.873
68376SOL    HW1 7025   4.507   5.934   8.923
68376SOL    HW2 7026   4.652   5.891   8.938
68377SOL     OW 7027  11.593   4.056  12.626
68377SOL    HW1 7028  11.563   3.981  12.575
68377SOL    HW2 7029  11.526   4.068  12.694
68378SOL     OW 7030   5.176   8.817   6.840
68378SOL    HW1 7031   5.213   8.894   6.884
68378SOL    HW2 7032   5.245   8.751   6.846
68379SOL     OW 7033   3.999   3.043  13.706
68379SOL    HW1 7034   4.019   2.970  13.647
68379SOL    HW2 7035   4.070   3.043  13.769
68380SOL     OW 7036   8.157   8.869   7.938
68380SOL    HW1 7037   8.184   8.845   7.849
68380SOL    HW2 7038   8.168   8.789   7.989
68381SOL     OW 7039   9.771  11.792  10.625
68381SOL    HW1 7040   9.685  11.833  10.620
68381SOL    HW2 7041   9.807  11.822  10.708
68382SOL     OW 7042   2.637  10.945   5.821
68382SOL    HW1 7043   2.551  10.930   5.782
68382SOL    HW2 7044   2.649  11.039   5.817
68383SOL     OW 7045  10.456   3.737   4.726
68383SOL    HW1 7046  10.404   3.672   4.678
68383SOL    HW2 7047  10.450   3.817   4.672
68384SOL     OW 7048   0.018   9.298  11.666
68384SOL    HW1 7049   0.071   9.222  11.639
68384SOL    HW2 7050  14.797   9.267  11.660
68385SOL     OW 7051   5.921  12.284   9.823
68385SOL    HW1 7052   5.982  12.326   9.762
68385SOL    HW2 7053   5.918  12.343   9.898
68386SOL     OW 7054   7.136   5.392  14.798
68386SOL    HW1 7055   7.173   5.424   0.010
68386SOL    HW2 7056   7.105   5.304  14.818
68387SOL     OW 7057   9.350   8.458   1.078
68387SOL    HW1 7058   9.420   8.523   1.082
68387SOL    HW2 7059   9.395   8.375   1.063
68388SOL     OW 7060   2.130  12.187  11.384
68388SOL    HW1 7061   2.207  12.221  11.339
68388SOL    HW2 7062   2.092  12.125  11.322
68389SOL     OW 7063   7.708   2.615   2.241
68389SOL    HW1 7064   7.792   2.659   2.226
68389SOL    HW2 7065   7.658   2.631   2.161
68390SOL     OW 7066   5.421   6.305   7.179
68390SOL    HW1 7067   5.510   6.293   7.211
68390SOL    HW2 7068   5.423   6.274   7.088
68391SOL     OW 7069   7.149  13.968   1.848
68391SOL    HW1 7070   7.232  14.011   1.830
68391SOL    HW2 7071   7.164  13.876   1.827
68392SOL     OW 7072   9.454  14.104  12.351
68392SOL    HW1 7073   9.541  14.102  12.392
68392SOL    HW2 7074   9.430  14.196  12.351
68393SOL     OW 7075  13.313  10.241   0.451
68393SOL    HW1 7076  13.353  10.196   0.376
68393SOL    HW2 7077  13.268  10.171   0.499
68394SOL     OW 7078   3.429   7.172   4.972
68394SOL    HW1 7079   3.396   7.109   5.035
68394SOL    HW2 7080   3.406   7.257   5.010
68395SOL     OW 7081  12.018   1.703   5.148
68395SOL    HW1 7082  12.010   1.614   5.114
68395SOL    HW2 7083  12.098   1.737   5.108
68396SOL     OW 7084  14.533  10.741   7.163
68396SOL    HW1 7085  14.481  10.696   7.230
68396SOL    HW2 7086  14.618  10.756   7.205
68397SOL     OW 7087  12.956   5.002   8.820
68397SOL    HW1 7088  13.051   4.995   8.819
68397SOL    HW2 7089  12.937   5.055   8.898
68398SOL     OW 7090   3.212   6.892   0.898
68398SOL    HW1 7091   3.183   6.858   0.813
68398SOL    HW2 7092   3.154   6.967   0.915
68399SOL     OW 7093  12.430   1.218  10.820
68399SOL    HW1 7094  12.440   1.270  10.741
68399SOL    HW2 7095  12.462   1.275  10.890
68400SOL     OW 7096  10.058   7.735  10.693
68400SOL    HW1 7097   9.993   7.665  10.700
68400SOL    HW2 7098  10.140   7.689  10.677
68401SOL     OW 7099   2.698   6.290   4.356
68401SOL    HW1 7100   2.727   6.378   4.334
68401SOL    HW2 7101   2.680   6.248   4.271
68402SOL     OW 7102   1.699   2.177   6.906
68402SOL    HW1 7103   1.703   2.273   6.899
68402SOL    HW2 7104   1.771   2.156   6.966
68403SOL     OW 7105   0.358  11.118   5.884
68403SOL    HW1 7106   0.447  11.134   5.854
68403SOL    HW2 7107   0.365  11.110   5.979
68404SOL     OW 7108   0.404   8.815   0.405
68404SOL    HW1 7109   0.458   8.778   0.336
68404SOL    HW2 7110   0.321   8.835   0.362
68405SOL     OW 7111  10.279   0.413   5.846
68405SOL    HW1 7112  10.267   0.389   5.754
68405SOL    HW2 7113  10.368   0.384   5.867
68406SOL     OW 7114   0.900  10.961   4.327
68406SOL    HW1 7115   0.937  10.961   4.415
68406SOL    HW2 7116   0.971  10.933   4.271
68407SOL     OW 7117   4.280   9.977   2.922
68407SOL    HW1 7118   4.373   9.966   2.902
68407SOL    HW2 7119   4.263   9.915   2.993
68408SOL     OW 7120   0.547  10.302  14.273
68408SOL    HW1 7121   0.453  10.317  14.269
68408SOL    HW2 7122   0.556  10.206  14.279
68409SOL     OW 7123   5.062  14.617   5.579
68409SOL    HW1 7124   4.999  14.684   5.554
68409SOL    HW2 7125   5.103  14.590   5.497
68410SOL     OW 7126  14.731   5.219   2.859
68410SOL    HW1 7127  14.751   5.214   2.952
68410SOL    HW2 7128  14.635   5.225   2.855
68411SOL     OW 7129  11.730  12.425   3.697
68411SOL    HW1 7130  11.731  12.404   3.790
68411SOL    HW2 7131  11.645  12.396   3.666
68412SOL     OW 7132   0.926   7.095   1.075
68412SOL    HW1 7133   0.926   7.000   1.087
68412SOL    HW2 7134   0.975   7.109   0.994
68413SOL     OW 7135   4.677  12.759   0.630
68413SOL    HW1 7136   4.657  12.826   0.565
68413SOL    HW2 7137   4.707  12.684   0.578
68414SOL     OW 7138   8.160   6.153   9.721
68414SOL    HW1 7139   8.253   6.143   9.699
68414SOL    HW2 7140   8.131   6.064   9.741
68415SOL     OW 7141  13.438   1.876   0.640
68415SOL    HW1 7142  13.465   1.967   0.653
68415SOL    HW2 7143  13.394   1.876   0.555
68416SOL     OW 7144  13.373   9.853  13.608
68416SOL    HW1 7145  13.423   9.799  13.546
68416SOL    HW2 7146  13.317   9.907  13.554
68417SOL     OW 7147   0.043   5.104  12.641
68417SOL    HW1 7148  14.848   5.036  12.623
68417SOL    HW2 7149   0.029   5.170  12.573
68418SOL     OW 7150   1.653  13.157   5.477
68418SOL    HW1 7151   1.660  13.068   5.511
68418SOL    HW2 7152   1.670  13.148   5.383
68419SOL     OW 7153   7.770   0.283   9.667
68419SOL    HW1 7154   7.825   0.289   9.746
68419SOL    HW2 7155   7.822   0.230   9.606
68420SOL     OW 7156   6.262   9.777   6.373
68420SOL    HW1 7157   6.316   9.847   6.410
68420SOL    HW2 7158   6.207   9.749   6.446
68421SOL     OW 7159   1.304  10.426   6.917
68421SOL    HW1 7160   1.382  10.371   6.906
68421SOL    HW2 7161   1.234  10.377   6.874
68422SOL     OW 7162   4.629  12.241   9.410
68422SOL    HW1 7163   4.688  12.263   9.338
68422SOL    HW2 7164   4.624  12.145   9.408
68423SOL     OW 7165  10.401   3.599  12.674
68423SOL    HW1 7166  10.371   3.525  12.727
68423SOL    HW2 7167  10.343   3.671  12.696
68424SOL     OW 7168  14.851   2.252  12.503
68424SOL    HW1 7169   0.024   2.273  12.420
68424SOL    HW2 7170  14.841   2.156  12.501
68425SOL     OW 7171   2.218   3.442   6.571
68425SOL    HW1 7172   2.164   3.370   6.604
68425SOL    HW2 7173   2.305   3.425   6.606
68426SOL     OW 7174   3.886   8.887   8.077
68426SOL    HW1 7175   3.947   8.949   8.115
68426SOL    HW2 7176   3.936   8.842   8.009
68427SOL     OW 7177   5.280  11.352  12.914
68427SOL    HW1 7178   5.270  11.412  12.988
68427SOL    HW2 7179   5.375  11.338  12.908
68428SOL     OW 7180   0.844  13.650   2.438
68428SOL    HW1 7181   0.810  13.712   2.502
68428SOL    HW2 7182   0.769  13.596   2.414
68429SOL     OW 7183  13.105   8.422   2.666
68429SOL    HW1 7184  13.191   8.406   2.705
68429SOL    HW2 7185  13.120   8.496   2.607
68430SOL     OW 7186   3.311  13.737   7.950
68430SOL    HW1 7187   3.367  13.664   7.976
68430SOL    HW2 7188   3.372  13.806   7.925
68431SOL     OW 7189  10.858   5.530  13.172
68431SOL    HW1 7190  10.805   5.451  13.182
68431SOL    HW2 7191  10.805   5.588  13.118
68432SOL     OW 7192  12.267   2.205   0.636
68432SOL    HW1 7193  12.180   2.168   0.649
68432SOL    HW2 7194  12.267   2.237   0.545
68433SOL     OW 7195  14.787   2.400   1.540
68433SOL    HW1 7196  14.706   2.446   1.563
68433SOL    HW2 7197  14.827   2.455   1.472
68434SOL     OW 7198   2.876  13.471   2.537
68434SOL    HW1 7199   2.913  13.390   2.503
68434SOL    HW2 7200   2.843  13.517   2.460
68435SOL     OW 7201   8.996   3.916   9.113
68435SOL    HW1 7202   9.070   3.942   9.168
68435SOL    HW2 7203   9.031   3.915   9.024
68436SOL     OW 7204   5.091   6.526  13.178
68436SOL    HW1 7205   5.186   6.539  13.175
68436SOL    HW2 7206   5.055   6.599  13.128
68437SOL     OW 7207  13.330   4.110   2.151
68437SOL    HW1 7208  13.385   4.160   2.210
68437SOL    HW2 7209  13.386   4.039   2.119
68438SOL     OW 7210   0.342  12.102  14.403
68438SOL    HW1 7211   0.318  12.174  14.345
68438SOL    HW2 7212   0.391  12.042  14.347
68439SOL     OW 7213   9.973   0.860   7.419
68439SOL    HW1 7214  10.055   0.873   7.467
68439SOL    HW2 7215   9.964   0.765   7.413
68440SOL     OW 7216   2.945   3.629   5.100
68440SOL    HW1 7217   2.952   3.694   5.170
68440SOL    HW2 7218   3.012   3.564   5.121
68441SOL     OW 7219   9.091  11.518  12.478
68441SOL    HW1 7220   9.158  11.489  12.540
68441SOL    HW2 7221   9.099  11.457  12.405
68442SOL     OW 7222   0.043   6.090   1.216
68442SOL    HW1 7223   0.058   6.092   1.122
68442SOL    HW2 7224   0.046   6.182   1.243
68443SOL     OW 7225   2.244   0.063  10.744
68443SOL    HW1 7226   2.157   0.074  10.707
68443SOL    HW2 7227   2.230   0.066  10.839
68444SOL     OW 7228   5.225   2.929   2.687
68444SOL    HW1 7229   5.275   2.908   2.765
68444SOL    HW2 7230   5.134   2.908   2.711
68445SOL     OW 7231   1.266   8.772   3.982
68445SOL    HW1 7232   1.187   8.826   3.987
68445SOL    HW2 7233   1.234   8.682   3.975
68446SOL     OW 7234   7.068   4.844  11.824
68446SOL    HW1 7235   7.087   4.936  11.804
68446SOL    HW2 7236   6.984   4.827  11.781
68447SOL     OW 7237  11.172   6.018  14.587
68447SOL    HW1 7238  11.162   6.067  14.505
68447SOL    HW2 7239  11.195   6.083  14.652
68448SOL     OW 7240  12.525   8.141   8.941
68448SOL    HW1 7241  12.506   8.051   8.966
68448SOL    HW2 7242  12.440   8.178   8.915
68449SOL     OW 7243   8.829   3.623   9.884
68449SOL    HW1 7244   8.825   3.716   9.859
68449SOL    HW2 7245   8.776   3.579   9.818
68450SOL     OW 7246   2.028   8.315   6.648
68450SOL    HW1 7247   1.952   8.345   6.698
68450SOL    HW2 7248   2.065   8.394   6.609
68451SOL     OW 7249   8.150   3.906   7.282
68451SOL    HW1 7250   8.102   3.867   7.208
68451SOL    HW2 7251   8.091   3.896   7.357
68452SOL     OW 7252   1.868   4.827  10.506
68452SOL    HW1 7253   1.794   4.820  10.446
68452SOL    HW2 7254   1.937   4.870  10.455
68453SOL     OW 7255   1.332   9.847   4.790
68453SOL    HW1 7256   1.326   9.786   4.864
68453SOL    HW2 7257   1.418   9.828   4.751
68454SOL     OW 7258   5.582   0.910   0.228
68454SOL    HW1 7259   5.522   0.837   0.239
68454SOL    HW2 7260   5.569   0.939   0.138
68455SOL     OW 7261  10.441   1.107   3.422
68455SOL    HW1 7262  10.490   1.182   3.387
68455SOL    HW2 7263  10.370   1.147   3.473
68456SOL     OW 7264  10.135  11.453   8.025
68456SOL    HW1 7265  10.074  11.394   8.068
68456SOL    HW2 7266  10.213  11.452   8.080
68457SOL     OW 7267  12.453   7.120   0.426
68457SOL    HW1 7268  12.475   7.094   0.337
68457SOL    HW2 7269  12.529   7.170   0.456
68458SOL     OW 7270   5.904   8.885  12.825
68458SOL    HW1 7271   5.923   8.801  12.784
68458SOL    HW2 7272   5.856   8.863  12.905
68459SOL     OW 7273   1.734   2.781   3.566
68459SOL    HW1 7274   1.752   2.847   3.499
68459SOL    HW2 7275   1.663   2.819   3.618
68460SOL     OW 7276   3.833  11.294  12.011
68460SOL    HW1 7277   3.883  11.215  12.032
68460SOL    HW2 7278   3.751  11.262  11.975
68461SOL     OW 7279   4.090  10.364   8.804
68461SOL    HW1 7280   4.131  10.292   8.852
68461SOL    HW2 7281   4.056  10.423   8.872
68462SOL     OW 7282   9.128   0.956   2.484
68462SOL    HW1 7283   9.170   1.010   2.417
68462SOL    HW2 7284   9.091   1.019   2.546
68463SOL     OW 7285   4.846  11.562   1.072
68463SOL    HW1 7286   4.769  11.609   1.102
68463SOL    HW2 7287   4.887  11.621   1.008
68464SOL     OW 7288  11.433  13.605  12.454
68464SOL    HW1 7289  11.400  13.536  12.511
68464SOL    HW2 7290  11.362  13.622  12.392
68465SOL     OW 7291   0.651  11.209  14.271
68465SOL    HW1 7292   0.574  11.192  14.218
68465SOL    HW2 7293   0.624  11.190  14.361
68466SOL     OW 7294   2.877  11.963   7.133
68466SOL    HW1 7295   2.936  11.935   7.202
68466SOL    HW2 7296   2.789  11.944   7.167
68467SOL     OW 7297   2.399   8.263  14.161
68467SOL    HW1 7298   2.389   8.303  14.247
68467SOL    HW2 7299   2.424   8.173  14.178
68468SOL     OW 7300   9.262   5.882   7.614
68468SOL    HW1 7301   9.356   5.875   7.602
68468SOL    HW2 7302   9.237   5.802   7.660
68469SOL     OW 7303  10.961  10.676   0.847
68469SOL    HW1 7304  10.904  10.643   0.778
68469SOL    HW2 7305  10.945  10.618   0.922
68470SOL     OW 7306  13.926   0.232   6.431
68470SOL    HW1 7307  14.002   0.276   6.391
68470SOL    HW2 7308  13.854   0.294   6.419
68471SOL     OW 7309  12.388  12.096   8.767
68471SOL    HW1 7310  12.356  12.019   8.719
68471SOL    HW2 7311  12.340  12.169   8.729
68472SOL     OW 7312  14.218   3.595   1.928
68472SOL    HW1 7313  14.196   3.670   1.984
68472SOL    HW2 7314  14.201   3.625   1.839
68473SOL     OW 7315   7.791   0.617  12.410
68473SOL    HW1 7316   7.849   0.566  12.353
68473SOL    HW2 7317   7.730   0.552  12.447
68474SOL     OW 7318   0.305  10.479  10.609
68474SOL    HW1 7319   0.356  10.521  10.679
68474SOL    HW2 7320   0.265  10.552  10.561
68475SOL     OW 7321  13.771   2.299   2.823
68475SOL    HW1 7322  13.681   2.315   2.795
68475SOL    HW2 7323  13.824   2.345   2.758
68476SOL     OW 7324   6.340   8.779   2.120
68476SOL    HW1 7325   6.281   8.720   2.167
68476SOL    HW2 7326   6.408   8.801   2.183
68477SOL     OW 7327   5.812  10.475  12.851
68477SOL    HW1 7328   5.823  10.555  12.903
68477SOL    HW2 7329   5.866  10.489  12.774
68478SOL     OW 7330   0.902   5.254   3.877
68478SOL    HW1 7331   0.960   5.182   3.903
68478SOL    HW2 7332   0.825   5.243   3.932
68479SOL     OW 7333   2.980  11.601  14.155
68479SOL    HW1 7334   2.952  11.654  14.229
68479SOL    HW2 7335   3.009  11.665  14.090
68480SOL     OW 7336   3.372   6.831   5.910
68480SOL    HW1 7337   3.444   6.877   5.866
68480SOL    HW2 7338   3.409   6.804   5.994
68481SOL     OW 7339   3.016   7.218  10.829
68481SOL    HW1 7340   2.929   7.207  10.866
68481SOL    HW2 7341   3.076   7.189  10.898
68482SOL     OW 7342   1.638  12.855  14.652
68482SOL    HW1 7343   1.730  12.866  14.626
68482SOL    HW2 7344   1.643  12.812  14.737
68483SOL     OW 7345   9.314   1.278  14.868
68483SOL    HW1 7346   9.350   1.328  14.795
68483SOL    HW2 7347   9.387   1.267   0.059
68484SOL     OW 7348   0.478  10.238   7.041
68484SOL    HW1 7349   0.453  10.300   6.973
68484SOL    HW2 7350   0.574  10.242   7.043
68485SOL     OW 7351   1.858  14.693   1.594
68485SOL    HW1 7352   1.810  14.754   1.649
68485SOL    HW2 7353   1.839  14.721   1.504
68486SOL     OW 7354   9.314   3.024   5.431
68486SOL    HW1 7355   9.232   3.073   5.423
68486SOL    HW2 7356   9.299   2.964   5.504
68487SOL     OW 7357   2.186   9.564   2.215
68487SOL    HW1 7358   2.267   9.515   2.232
68487SOL    HW2 7359   2.164   9.603   2.299
68488SOL     OW 7360  14.217  12.581   9.542
68488SOL    HW1 7361  14.260  12.667   9.546
68488SOL    HW2 7362  14.265  12.528   9.606
68489SOL     OW 7363   2.438  11.277   8.397
68489SOL    HW1 7364   2.460  11.353   8.450
68489SOL    HW2 7365   2.486  11.289   8.315
68490SOL     OW 7366   1.287  12.117   0.677
68490SOL    HW1 7367   1.323  12.156   0.756
68490SOL    HW2 7368   1.214  12.173   0.653
68491SOL     OW 7369   9.460  12.382   2.951
68491SOL    HW1 7370   9.503  12.304   2.916
68491SOL    HW2 7371   9.398  12.408   2.883
68492SOL     OW 7372   3.831  12.243  10.020
68492SOL    HW1 7373   3.742  12.209  10.018
68492SOL    HW2 7374   3.852  12.260   9.928
68493SOL     OW 7375  12.349   1.195  14.151
68493SOL    HW1 7376  12.298   1.202  14.070
68493SOL    HW2 7377  12.410   1.269  14.147
68494SOL     OW 7378   2.382   6.978   0.661
68494SOL    HW1 7379   2.343   7.044   0.603
68494SOL    HW2 7380   2.334   6.988   0.744
68495SOL     OW 7381   2.787   0.362   0.851
68495SOL    HW1 7382   2.774   0.305   0.776
68495SOL    HW2 7383   2.725   0.330   0.917
68496SOL     OW 7384  12.571  10.925   5.177
68496SOL    HW1 7385  12.563  10.836   5.212
68496SOL    HW2 7386  12.578  10.981   5.254
68497SOL     OW 7387   9.354   8.337   9.393
68497SOL    HW1 7388   9.262   8.321   9.371
68497SOL    HW2 7389   9.380   8.409   9.335
68498SOL     OW 7390   9.350   1.241   2.892
68498SOL    HW1 7391   9.316   1.181   2.825
68498SOL    HW2 7392   9.391   1.183   2.956
68499SOL     OW 7393   9.068   8.696  11.162
68499SOL    HW1 7394   9.105   8.707  11.250
68499SOL    HW2 7395   8.974   8.685  11.176
68500SOL     OW 7396   5.560  13.961  10.778
68500SOL    HW1 7397   5.479  13.953  10.828
68500SOL    HW2 7398   5.577  13.873  10.745
68501SOL     OW 7399   1.333  11.139   7.794
68501SOL    HW1 7400   1.266  11.082   7.757
68501SOL    HW2 7401   1.285  11.206   7.843
68502SOL     OW 7402  12.185   0.560   2.921
68502SOL    HW1 7403  12.180   0.629   2.856
68502SOL    HW2 7404  12.181   0.605   3.005
68503SOL     OW 7405   8.613  12.606  11.948
68503SOL    HW1 7406   8.653  12.541  11.890
68503SOL    HW2 7407   8.656  12.689  11.924
68504SOL     OW 7408   3.051  13.704   9.196
68504SOL    HW1 7409   3.083  13.626   9.243
68504SOL    HW2 7410   3.041  13.675   9.105
68505SOL     OW 7411   6.004  14.483  14.547
68505SOL    HW1 7412   5.922  14.490  14.595
68505SOL    HW2 7413   5.997  14.548  14.477
68506SOL     OW 7414  14.429   7.161   6.951
68506SOL    HW1 7415  14.493   7.171   7.021
68506SOL    HW2 7416  14.470   7.202   6.875
68507SOL     OW 7417  14.742  11.535   7.613
68507SOL    HW1 7418  14.700  11.616   7.583
68507SOL    HW2 7419  14.798  11.509   7.540
68508SOL     OW 7420   0.034   1.504  12.072
68508SOL    HW1 7421   0.120   1.530  12.039
68508SOL    HW2 7422  14.847   1.509  11.995
68509SOL     OW 7423   9.403   3.060  12.198
68509SOL    HW1 7424   9.481   3.026  12.154
68509SOL    HW2 7425   9.361   2.982  12.236
68510SOL     OW 7426   6.898   9.668   5.810
68510SOL    HW1 7427   6.933   9.741   5.758
68510SOL    HW2 7428   6.911   9.695   5.901
68511SOL     OW 7429   6.175   3.155   7.278
68511SOL    HW1 7430   6.167   3.190   7.367
68511SOL    HW2 7431   6.231   3.078   7.288
68512SOL     OW 7432  14.078   5.254   5.493
68512SOL    HW1 7433  14.072   5.173   5.443
68512SOL    HW2 7434  14.059   5.323   5.429
68513SOL     OW 7435   7.317  13.109   7.211
68513SOL    HW1 7436   7.350  13.041   7.269
68513SOL    HW2 7437   7.303  13.185   7.267
68514SOL     OW 7438   1.026   8.621  12.004
68514SOL    HW1 7439   1.038   8.668  12.087
68514SOL    HW2 7440   1.001   8.532  12.030
68515SOL     OW 7441   3.347   0.444  14.759
68515SOL    HW1 7442   3.255   0.442  14.787
68515SOL    HW2 7443   3.367   0.537  14.752
68516SOL     OW 7444   0.868   0.411   0.474
68516SOL    HW1 7445   0.828   0.477   0.530
68516SOL    HW2 7446   0.854   0.443   0.385
68517SOL     OW 7447   3.773   4.275   2.792
68517SOL    HW1 7448   3.816   4.289   2.708
68517SOL    HW2 7449   3.795   4.353   2.843
68518SOL     OW 7450   3.400   1.479   0.528
68518SOL    HW1 7451   3.369   1.399   0.486
68518SOL    HW2 7452   3.494   1.480   0.510
68519SOL     OW 7453   1.766   9.381  11.391
68519SOL    HW1 7454   1.720   9.453  11.348
68519SOL    HW2 7455   1.699   9.338  11.445
68520SOL     OW 7456   9.632   4.044   0.962
68520SOL    HW1 7457   9.708   4.076   0.913
68520SOL    HW2 7458   9.616   3.957   0.927
68521SOL     OW 7459  14.284   9.923  12.339
68521SOL    HW1 7460  14.232  10.002  12.358
68521SOL    HW2 7461  14.219   9.857  12.316
68522SOL     OW 7462  12.589  11.211   1.475
68522SOL    HW1 7463  12.619  11.278   1.413
68522SOL    HW2 7464  12.499  11.236   1.495
68523SOL     OW 7465   0.231  14.338   6.908
68523SOL    HW1 7466   0.266  14.403   6.970
68523SOL    HW2 7467   0.238  14.381   6.823
68524SOL     OW 7468  11.467   3.590   0.642
68524SOL    HW1 7469  11.413   3.599   0.721
68524SOL    HW2 7470  11.519   3.511   0.657
68525SOL     OW 7471   4.119   8.312   3.712
68525SOL    HW1 7472   4.168   8.260   3.649
68525SOL    HW2 7473   4.169   8.393   3.721
68526SOL     OW 7474   4.128   9.155   7.395
68526SOL    HW1 7475   4.104   9.219   7.328
68526SOL    HW2 7476   4.210   9.117   7.364
68527SOL     OW 7477  14.242   7.512   4.776
68527SOL    HW1 7478  14.211   7.469   4.855
68527SOL    HW2 7479  14.277   7.442   4.722
68528SOL     OW 7480   2.444  14.770  14.040
68528SOL    HW1 7481   2.489  14.802  14.118
68528SOL    HW2 7482   2.424  14.679  14.060
68529SOL     OW 7483   9.104   1.988  10.223
68529SOL    HW1 7484   9.175   1.927  10.201
68529SOL    HW2 7485   9.054   1.942  10.291
68530SOL     OW 7486   2.268  10.414   7.124
68530SOL    HW1 7487   2.282  10.508   7.133
68530SOL    HW2 7488   2.218  10.405   7.043
68531SOL     OW 7489   8.697  10.618  14.086
68531SOL    HW1 7490   8.620  10.675  14.078
68531SOL    HW2 7491   8.675  10.541  14.033
68532SOL     OW 7492   1.435  11.159   4.898
68532SOL    HW1 7493   1.365  11.214   4.863
68532SOL    HW2 7494   1.419  11.072   4.861
68533SOL     OW 7495   0.111   6.810  11.884
68533SOL    HW1 7496   0.111   6.726  11.930
68533SOL    HW2 7497   0.173   6.799  11.813
68534SOL     OW 7498   4.618  10.435   8.581
68534SOL    HW1 7499   4.645  10.476   8.663
68534SOL    HW2 7500   4.597  10.508   8.523
68535SOL     OW 7501   6.617  10.606  10.069
68535SOL    HW1 7502   6.658  10.524  10.096
68535SOL    HW2 7503   6.523  10.591  10.082
68536SOL     OW 7504   3.585   6.139   7.716
68536SOL    HW1 7505   3.600   6.222   7.671
68536SOL    HW2 7506   3.671   6.114   7.750
68537SOL     OW 7507   0.221   9.412   9.581
68537SOL    HW1 7508   0.271   9.477   9.532
68537SOL    HW2 7509   0.200   9.456   9.664
68538SOL     OW 7510  14.142  14.709   0.292
68538SOL    HW1 7511  14.064  14.655   0.306
68538SOL    HW2 7512  14.184  14.712   0.378
68539SOL     OW 7513  14.634   6.435   5.870
68539SOL    HW1 7514  14.560   6.376   5.853
68539SOL    HW2 7515  14.643   6.486   5.789
68540SOL     OW 7516  10.006   8.802   0.605
68540SOL    HW1 7517  10.020   8.736   0.537
68540SOL    HW2 7518   9.978   8.752   0.682
68541SOL     OW 7519   6.894  14.154  11.177
68541SOL    HW1 7520   6.818  14.165  11.234
68541SOL    HW2 7521   6.876  14.212  11.103
68542SOL     OW 7522   0.659  11.245   7.072
68542SOL    HW1 7523   0.681  11.324   7.121
68542SOL    HW2 7524   0.738  11.191   7.078
68543SOL     OW 7525   3.220   1.076   9.342
68543SOL    HW1 7526   3.267   1.129   9.406
68543SOL    HW2 7527   3.180   1.139   9.283
68544SOL     OW 7528   7.509  11.743   7.935
68544SOL    HW1 7529   7.515  11.829   7.977
68544SOL    HW2 7530   7.497  11.681   8.007
68545SOL     OW 7531  11.050   0.046   0.164
68545SOL    HW1 7532  10.981   0.079   0.107
68545SOL    HW2 7533  11.087  14.841   0.117
68546SOL     OW 7534   6.275   3.335  13.534
68546SOL    HW1 7535   6.238   3.286  13.461
68546SOL    HW2 7536   6.312   3.268  13.592
68547SOL     OW 7537   7.501   2.494  13.724
68547SOL    HW1 7538   7.596   2.484  13.725
68547SOL    HW2 7539   7.477   2.512  13.816
68548SOL     OW 7540  13.282   9.041   4.669
68548SOL    HW1 7541  13.340   8.970   4.695
68548SOL    HW2 7542  13.223   9.002   4.605
68549SOL     OW 7543  13.643   8.265   0.544
68549SOL    HW1 7544  13.607   8.204   0.480
68549SOL    HW2 7545  13.738   8.253   0.537
68550SOL     OW 7546   9.458   6.348   3.291
68550SOL    HW1 7547   9.388   6.324   3.351
68550SOL    HW2 7548   9.478   6.439   3.311
68551SOL     OW 7549  12.665   4.288  14.869
68551SOL    HW1 7550  12.756   4.316  14.858
68551SOL    HW2 7551  12.651   4.225  14.799
68552SOL     OW 7552   5.569   1.177  12.141
68552SOL    HW1 7553   5.658   1.201  12.115
68552SOL    HW2 7554   5.578   1.149  12.232
68553SOL     OW 7555   9.896   4.363   5.440
68553SOL    HW1 7556   9.890   4.283   5.493
68553SOL    HW2 7557   9.833   4.349   5.369
68554SOL     OW 7558   0.046   7.565  14.743
68554SOL    HW1 7559  14.838   7.521  14.775
68554SOL    HW2 7560   0.118   7.523  14.790
68555SOL     OW 7561   3.825   2.340   0.689
68555SOL    HW1 7562   3.916   2.326   0.663
68555SOL    HW2 7563   3.773   2.300   0.619
68556SOL     OW 7564   2.812   0.163   0.660
68556SOL    HW1 7565   2.762   0.181   0.580
68556SOL    HW2 7566   2.775   0.080   0.692
68557SOL     OW 7567  13.790  13.786   8.825
68557SOL    HW1 7568  13.784  13.805   8.918
68557SOL    HW2 7569  13.699  13.787   8.795
68558SOL     OW 7570   7.453   2.369   2.884
68558SOL    HW1 7571   7.510   2.439   2.852
68558SOL    HW2 7572   7.504   2.327   2.954
68559SOL     OW 7573  11.431   4.610  14.303
68559SOL    HW1 7574  11.406   4.583  14.392
68559SOL    HW2 7575  11.474   4.533  14.266
68560SOL     OW 7576   2.648  14.416   4.062
68560SOL    HW1 7577   2.580  14.427   3.996
68560SOL    HW2 7578   2.661  14.504   4.098
68561SOL     OW 7579   3.308   3.487  13.703
68561SOL    HW1 7580   3.319   3.433  13.781
68561SOL    HW2 7581   3.394   3.526  13.688
68562SOL     OW 7582   5.918   0.979   4.445
68562SOL    HW1 7583   5.922   0.938   4.532
68562SOL    HW2 7584   5.961   0.916   4.387
68563SOL     OW 7585  13.489   8.079   6.269
68563SOL    HW1 7586  13.563   8.024   6.243
68563SOL    HW2 7587  13.414   8.019   6.274
68564SOL     OW 7588   9.821   4.549  10.332
68564SOL    HW1 7589   9.748   4.592  10.288
68564SOL    HW2 7590   9.898   4.576  10.282
68565SOL     OW 7591  10.270   4.875   9.154
68565SOL    HW1 7592  10.290   4.783   9.142
68565SOL    HW2 7593  10.182   4.877   9.192
68566SOL     OW 7594   0.070   5.991   1.634
68566SOL    HW1 7595   0.003   5.922   1.640
68566SOL    HW2 7596   0.130   5.973   1.707
68567SOL     OW 7597   6.041  14.459  13.283
68567SOL    HW1 7598   5.981  14.390  13.311
68567SOL    HW2 7599   5.998  14.500  13.209
68568SOL     OW 7600   9.533   7.039  11.658
68568SOL    HW1 7601   9.549   7.103  11.589
68568SOL    HW2 7602   9.466   7.079  11.713
68569SOL     OW 7603   3.347  11.985   3.234
68569SOL    HW1 7604   3.326  11.942   3.151
68569SOL    HW2 7605   3.393  12.065   3.208
68570SOL     OW 7606   6.506   6.080   7.426
68570SOL    HW1 7607   6.483   6.057   7.336
68570SOL    HW2 7608   6.588   6.130   7.418
68571SOL     OW 7609   1.241   7.181   5.527
68571SOL    HW1 7610   1.254   7.275   5.519
68571SOL    HW2 7611   1.147   7.168   5.515
68572SOL     OW 7612   7.902   3.463   0.795
68572SOL    HW1 7613   7.877   3.406   0.868
68572SOL    HW2 7614   7.993   3.440   0.778
68573SOL     OW 7615   3.979   3.241   0.748
68573SOL    HW1 7616   3.918   3.290   0.693
68573SOL    HW2 7617   4.031   3.308   0.791
68574SOL     OW 7618   7.070   4.648  11.516
68574SOL    HW1 7619   7.161   4.656  11.488
68574SOL    HW2 7620   7.074   4.605  11.601
68575SOL     OW 7621   5.833  13.604  11.408
68575SOL    HW1 7622   5.876  13.619  11.492
68575SOL    HW2 7623   5.773  13.678  11.397
68576SOL     OW 7624  14.640  14.154   5.024
68576SOL    HW1 7625  14.633  14.247   5.043
68576SOL    HW2 7626  14.572  14.112   5.077
68577SOL     OW 7627  10.552  13.102  10.503
68577SOL    HW1 7628  10.597  13.035  10.452
68577SOL    HW2 7629  10.461  13.073  10.507
68578SOL     OW 7630   8.407   6.901  10.265
68578SOL    HW1 7631   8.372   6.819  10.230
68578SOL    HW2 7632   8.371   6.969  10.208
68579SOL     OW 7633  10.975   3.069   6.162
68579SOL    HW1 7634  10.995   3.159   6.138
68579SOL    HW2 7635  10.887   3.054   6.128
68580SOL     OW 7636   9.108  12.180   9.174
68580SOL    HW1 7637   9.144  12.195   9.086
68580SOL    HW2 7638   9.071  12.092   9.169
68581SOL     OW 7639   7.726   3.981   7.289
68581SOL    HW1 7640   7.659   3.986   7.357
68581SOL    HW2 7641   7.786   4.053   7.309
68582SOL     OW 7642   2.116  13.214  14.608
68582SOL    HW1 7643   2.058  13.244  14.538
68582SOL    HW2 7644   2.191  13.176  14.562
68583SOL     OW 7645   4.882   1.168  11.910
68583SOL    HW1 7646   4.880   1.105  11.838
68583SOL    HW2 7647   4.858   1.252  11.869
68584SOL     OW 7648  12.555  11.170   7.599
68584SOL    HW1 7649  12.643  11.136   7.580
68584SOL    HW2 7650  12.561  11.204   7.688
68585SOL     OW 7651   9.299   0.871  10.953
68585SOL    HW1 7652   9.312   0.911  11.039
68585SOL    HW2 7653   9.381   0.822  10.937
68586SOL     OW 7654   7.521  14.333   8.501
68586SOL    HW1 7655   7.577  14.317   8.577
68586SOL    HW2 7656   7.544  14.422   8.474
68587SOL     OW 7657   8.388   2.704  11.903
68587SOL    HW1 7658   8.345   2.635  11.852
68587SOL    HW2 7659   8.361   2.785  11.861
68588SOL     OW 7660   6.159   3.815  11.642
68588SOL    HW1 7661   6.130   3.893  11.689
68588SOL    HW2 7662   6.230   3.779  11.696
68589SOL     OW 7663   1.491  12.248   7.949
68589SOL    HW1 7664   1.494  12.326   8.003
68589SOL    HW2 7665   1.583  12.222   7.939
68590SOL     OW 7666   5.427  13.901   2.065
68590SOL    HW1 7667   5.385  13.975   2.109
68590SOL    HW2 7668   5.360  13.869   2.004
68591SOL     OW 7669   6.518   6.958   2.637
68591SOL    HW1 7670   6.499   7.032   2.693
68591SOL    HW2 7671   6.483   6.882   2.684
68592SOL     OW 7672   4.452   8.337   0.422
68592SOL    HW1 7673   4.487   8.297   0.502
68592SOL    HW2 7674   4.420   8.423   0.450
68593SOL     OW 7675   1.099  13.182   7.118
68593SOL    HW1 7676   1.101  13.142   7.031
68593SOL    HW2 7677   1.021  13.237   7.117
68594SOL     OW 7678  10.852   0.828   0.140
68594SOL    HW1 7679  10.833   0.748   0.091
68594SOL    HW2 7680  10.944   0.847   0.123
68595SOL     OW 7681   9.269   6.467  13.514
68595SOL    HW1 7682   9.186   6.447  13.471
68595SOL    HW2 7683   9.245   6.516  13.592
68596SOL     OW 7684   1.007   2.735   3.886
68596SOL    HW1 7685   1.032   2.664   3.827
68596SOL    HW2 7686   0.994   2.692   3.971
68597SOL     OW 7687   1.888   9.817   7.772
68597SOL    HW1 7688   1.951   9.769   7.826
68597SOL    HW2 7689   1.932   9.830   7.688
68598SOL     OW 7690   2.058  13.449   4.138
68598SOL    HW1 7691   2.072  13.355   4.133
68598SOL    HW2 7692   1.964  13.460   4.153
68599SOL     OW 7693   5.210   2.510   4.217
68599SOL    HW1 7694   5.207   2.541   4.308
68599SOL    HW2 7695   5.120   2.482   4.198
68600SOL     OW 7696  12.114   3.664   6.296
68600SOL    HW1 7697  12.210   3.664   6.299
68600SOL    HW2 7698  12.090   3.755   6.280
68601SOL     OW 7699   2.595   4.812   2.408
68601SOL    HW1 7700   2.530   4.764   2.459
68601SOL    HW2 7701   2.543   4.862   2.344
68602SOL     OW 7702  11.231  10.240  14.748
68602SOL    HW1 7703  11.213  10.182  14.675
68602SOL    HW2 7704  11.305  10.200  14.794
68603SOL     OW 7705   9.741   1.098  11.858
68603SOL    HW1 7706   9.772   1.081  11.947
68603SOL    HW2 7707   9.803   1.162  11.823
68604SOL     OW 7708   9.837   0.265   7.243
68604SOL    HW1 7709   9.767   0.240   7.302
68604SOL    HW2 7710   9.805   0.241   7.156
68605SOL     OW 7711   3.195   8.818   9.629
68605SOL    HW1 7712   3.182   8.808   9.535
68605SOL    HW2 7713   3.142   8.895   9.652
68606SOL     OW 7714   5.478   9.396   3.200
68606SOL    HW1 7715   5.527   9.316   3.178
68606SOL    HW2 7716   5.545   9.464   3.204
68607SOL     OW 7717  11.833   6.311   8.649
68607SOL    HW1 7718  11.893   6.375   8.610
68607SOL    HW2 7719  11.750   6.326   8.603
68608SOL     OW 7720   7.765   5.741  14.469
68608SOL    HW1 7721   7.733   5.829  14.490
68608SOL    HW2 7722   7.810   5.713  14.549
68609SOL     OW 7723  11.741  12.407  14.076
68609SOL    HW1 7724  11.672  12.342  14.087
68609SOL    HW2 7725  11.726  12.444  13.990
68610SOL     OW 7726   6.507   4.604  14.128
68610SOL    HW1 7727   6.474   4.514  14.129
68610SOL    HW2 7728   6.552   4.613  14.044
68611SOL     OW 7729  10.527   7.522   6.043
68611SOL    HW1 7730  10.439   7.543   6.011
68611SOL    HW2 7731  10.519   7.525   6.139
68612SOL     OW 7732   0.784  11.876   9.288
68612SOL    HW1 7733   0.728  11.799   9.281
68612SOL    HW2 7734   0.810  11.895   9.198
68613SOL     OW 7735  13.735   6.631  11.895
68613SOL    HW1 7736  13.748   6.662  11.806
68613SOL    HW2 7737  13.824   6.628  11.932
68614SOL     OW 7738   6.371   8.609   9.455
68614SOL    HW1 7739   6.398   8.547   9.523
68614SOL    HW2 7740   6.322   8.676   9.502
68615SOL     OW 7741   2.712   1.974  14.191
68615SOL    HW1 7742   2.755   1.999  14.272
68615SOL    HW2 7743   2.713   1.878  14.191
68616SOL     OW 7744   4.750   2.992  13.915
68616SOL    HW1 7745   4.814   3.063  13.909
68616SOL    HW2 7746   4.803   2.912  13.908
68617SOL     OW 7747  12.060   2.909  10.656
68617SOL    HW1 7748  12.032   2.900  10.565
68617SOL    HW2 7749  12.102   2.995  10.659
68618SOL     OW 7750   9.631  14.529   6.597
68618SOL    HW1 7751   9.550  14.549   6.643
68618SOL    HW2 7752   9.653  14.440   6.624
68619SOL     OW 7753   6.337   1.682   0.669
68619SOL    HW1 7754   6.310   1.596   0.637
68619SOL    HW2 7755   6.398   1.714   0.602
68620SOL     OW 7756   0.510  10.901  13.172
68620SOL    HW1 7757   0.418  10.878  13.183
68620SOL    HW2 7758   0.519  10.924  13.080
68621SOL     OW 7759   9.614   7.315   7.971
68621SOL    HW1 7760   9.543   7.376   7.949
68621SOL    HW2 7761   9.685   7.371   8.002
68622SOL     OW 7762   1.758   4.010   2.114
68622SOL    HW1 7763   1.749   3.915   2.108
68622SOL    HW2 7764   1.703   4.044   2.043
68623SOL     OW 7765  12.783   6.796   7.042
68623SOL    HW1 7766  12.786   6.824   6.950
68623SOL    HW2 7767  12.709   6.736   7.045
68624SOL     OW 7768   4.247   0.405  10.549
68624SOL    HW1 7769   4.224   0.316  10.522
68624SOL    HW2 7770   4.266   0.451  10.467
68625SOL     OW 7771   6.551   2.789  11.924
68625SOL    HW1 7772   6.472   2.807  11.975
68625SOL    HW2 7773   6.595   2.719  11.971
68626SOL     OW 7774   2.306   1.385   5.977
68626SOL    HW1 7775   2.242   1.361   5.910
68626SOL    HW2 7776   2.342   1.302   6.006
68627SOL     OW 7777   7.230  12.881   2.120
68627SOL    HW1 7778   7.136  12.897   2.113
68627SOL    HW2 7779   7.270  12.968   2.119
68628SOL     OW 7780   9.468   3.970   2.639
68628SOL    HW1 7781   9.452   3.876   2.642
68628SOL    HW2 7782   9.558   3.978   2.606
68629SOL     OW 7783  10.396   0.372   8.212
68629SOL    HW1 7784  10.403   0.357   8.118
68629SOL    HW2 7785  10.318   0.323   8.238
68630SOL     OW 7786   2.559   7.372  13.110
68630SOL    HW1 7787   2.595   7.460  13.109
68630SOL    HW2 7788   2.595   7.331  13.031
68631SOL     OW 7789  11.569   2.384   5.435
68631SOL    HW1 7790  11.474   2.395   5.425
68631SOL    HW2 7791  11.595   2.333   5.358
68632SOL     OW 7792  12.569   8.164  12.618
68632SOL    HW1 7793  12.609   8.244  12.582
68632SOL    HW2 7794  12.483   8.159  12.576
68633SOL     OW 7795  13.623   1.102  13.881
68633SOL    HW1 7796  13.661   1.088  13.968
68633SOL    HW2 7797  13.536   1.062  13.887
68634SOL     OW 7798  11.261  11.534  10.764
68634SOL    HW1 7799  11.232  11.623  10.745
68634SOL    HW2 7800  11.349  11.529  10.727
68635SOL     OW 7801   0.668   1.948   4.619
68635SOL    HW1 7802   0.585   1.915   4.583
68635SOL    HW2 7803   0.703   1.874   4.669
68636SOL     OW 7804   6.624   0.277   9.533
68636SOL    HW1 7805   6.576   0.306   9.610
68636SOL    HW2 7806   6.641   0.357   9.483
68637SOL     OW 7807   6.414   6.834   6.893
68637SOL    HW1 7808   6.440   6.806   6.981
68637SOL    HW2 7809   6.319   6.834   6.894
68638SOL     OW 7810  11.811   8.927   2.349
68638SOL    HW1 7811  11.853   8.984   2.284
68638SOL    HW2 7812  11.723   8.963   2.360
68639SOL     OW 7813   7.226   2.218   1.475
68639SOL    HW1 7814   7.135   2.219   1.443
68639SOL    HW2 7815   7.271   2.280   1.418
68640SOL     OW 7816  14.302   7.158  11.486
68640SOL    HW1 7817  14.392   7.186  11.468
68640SOL    HW2 7818  14.256   7.238  11.511
68641SOL     OW 7819  11.914   9.909   2.358
68641SOL    HW1 7820  11.905   9.889   2.451
68641SOL    HW2 7821  12.007   9.924   2.346
68642SOL     OW 7822   2.989   5.139   9.636
68642SOL    HW1 7823   3.018   5.226   9.663
68642SOL    HW2 7824   3.053   5.111   9.570
68643SOL     OW 7825  12.472   8.970   8.278
68643SOL    HW1 7826  12.407   8.979   8.208
68643SOL    HW2 7827  12.513   9.056   8.285
68644SOL     OW 7828   3.717  10.736   1.505
68644SOL    HW1 7829   3.736  10.742   1.412
68644SOL    HW2 7830   3.756  10.653   1.533
68645SOL     OW 7831   7.461  12.241   7.908
68645SOL    HW1 7832   7.495  12.234   7.997
68645SOL    HW2 7833   7.518  12.305   7.865
68646SOL     OW 7834   7.069   5.603   9.357
68646SOL    HW1 7835   6.997   5.562   9.308
68646SOL    HW2 7836   7.060   5.696   9.337
68647SOL     OW 7837   1.956   0.833   8.539
68647SOL    HW1 7838   1.970   0.750   8.493
68647SOL    HW2 7839   2.041   0.877   8.534
68648SOL     OW 7840   9.952  10.469   8.193
68648SOL    HW1 7841   9.997  10.401   8.143
68648SOL    HW2 7842  10.017  10.499   8.257
68649SOL     OW 7843   8.102   8.759  11.985
68649SOL    HW1 7844   8.170   8.725  12.042
68649SOL    HW2 7845   8.037   8.688  11.980
68650SOL     OW 7846   4.104  10.890   6.523
68650SOL    HW1 7847   4.130  10.982   6.511
68650SOL    HW2 7848   4.040  10.893   6.594
68651SOL     OW 7849   8.348   6.558  10.623
68651SOL    HW1 7850   8.350   6.480  10.679
68651SOL    HW2 7851   8.269   6.605  10.651
68652SOL     OW 7852   7.921   7.296  13.056
68652SOL    HW1 7853   7.918   7.206  13.023
68652SOL    HW2 7854   7.884   7.349  12.986
68653SOL     OW 7855   4.353  14.412  12.391
68653SOL    HW1 7856   4.362  14.373  12.304
68653SOL    HW2 7857   4.266  14.385  12.420
68654SOL     OW 7858   1.046   0.614   6.438
68654SOL    HW1 7859   1.109   0.578   6.500
68654SOL    HW2 7860   0.978   0.547   6.432
68655SOL     OW 7861   8.661  12.049   0.390
68655SOL    HW1 7862   8.618  11.969   0.420
68655SOL    HW2 7863   8.721  12.019   0.321
68656SOL     OW 7864   8.429   0.029   6.230
68656SOL    HW1 7865   8.356  14.841   6.209
68656SOL    HW2 7866   8.395   0.087   6.299
68657SOL     OW 7867   4.461  12.670   6.098
68657SOL    HW1 7868   4.471  12.575   6.102
68657SOL    HW2 7869   4.542  12.704   6.136
68658SOL     OW 7870   7.936   3.542   8.318
68658SOL    HW1 7871   7.872   3.610   8.342
68658SOL    HW2 7872   7.904   3.510   8.233
68659SOL     OW 7873   8.191   0.676   0.639
68659SOL    HW1 7874   8.257   0.708   0.577
68659SOL    HW2 7875   8.206   0.727   0.718
68660SOL     OW 7876   4.228   5.709   5.794
68660SOL    HW1 7877   4.244   5.793   5.836
68660SOL    HW2 7878   4.313   5.682   5.761
68661SOL     OW 7879  11.004  11.506   3.807
68661SOL    HW1 7880  10.922  11.457   3.799
68661SOL    HW2 7881  11.071  11.445   3.776
68662SOL     OW 7882  12.968   8.588   5.563
68662SOL    HW1 7883  12.949   8.681   5.552
68662SOL    HW2 7884  12.990   8.578   5.656
68663SOL     OW 7885   1.144   2.357   0.781
68663SOL    HW1 7886   1.098   2.275   0.763
68663SOL    HW2 7887   1.222   2.331   0.829
68664SOL     OW 7888  10.121   9.055   9.977
68664SOL    HW1 7889  10.056   9.126   9.975
68664SOL    HW2 7890  10.205   9.099   9.964
68665SOL     OW 7891   9.713   4.747   7.725
68665SOL    HW1 7892   9.728   4.812   7.795
68665SOL    HW2 7893   9.762   4.670   7.754
68666SOL     OW 7894   4.390   7.831   9.611
68666SOL    HW1 7895   4.446   7.755   9.630
68666SOL    HW2 7896   4.368   7.822   9.519
68667SOL     OW 7897  10.464   9.730  11.516
68667SOL    HW1 7898  10.424   9.792  11.456
68667SOL    HW2 7899  10.540   9.696  11.469
68668SOL     OW 7900  13.520  12.924   9.770
68668SOL    HW1 7901  13.535  13.018   9.772
68668SOL    HW2 7902  13.582  12.888   9.833
68669SOL     OW 7903  12.557   8.955   4.577
68669SOL    HW1 7904  12.490   9.001   4.527
68669SOL    HW2 7905  12.558   8.999   4.662
68670SOL     OW 7906   7.915   7.387   0.259
68670SOL    HW1 7907   7.824   7.377   0.289
68670SOL    HW2 7908   7.952   7.300   0.266
68671SOL     OW 7909   0.434  13.903  14.254
68671SOL    HW1 7910   0.393  13.939  14.333
68671SOL    HW2 7911   0.392  13.951  14.182
68672SOL     OW 7912   7.718   1.045   6.371
68672SOL    HW1 7913   7.740   1.064   6.463
68672SOL    HW2 7914   7.769   0.967   6.350
68673SOL     OW 7915   5.569   9.733   0.814
68673SOL    HW1 7916   5.526   9.813   0.784
68673SOL    HW2 7917   5.581   9.746   0.908
68674SOL     OW 7918   0.509   5.874   5.999
68674SOL    HW1 7919   0.556   5.955   6.019
68674SOL    HW2 7920   0.574   5.805   6.009
68675SOL     OW 7921   4.797   3.108   3.960
68675SOL    HW1 7922   4.785   3.164   4.037
68675SOL    HW2 7923   4.872   3.147   3.915
68676SOL     OW 7924   9.405   2.436   4.249
68676SOL    HW1 7925   9.423   2.490   4.326
68676SOL    HW2 7926   9.311   2.446   4.234
68677SOL     OW 7927   9.705   8.650  12.400
68677SOL    HW1 7928   9.701   8.743  12.379
68677SOL    HW2 7929   9.798   8.631  12.411
68678SOL     OW 7930   8.074   3.230   1.013
68678SOL    HW1 7931   8.012   3.167   0.975
68678SOL    HW2 7932   8.124   3.178   1.076
68679SOL     OW 7933   8.219   9.910  12.585
68679SOL    HW1 7934   8.137   9.937  12.627
68679SOL    HW2 7935   8.276   9.986  12.593
68680SOL     OW 7936  12.109   9.746   8.417
68680SOL    HW1 7937  12.068   9.828   8.446
68680SOL    HW2 7938  12.169   9.772   8.348
68681SOL     OW 7939   2.139  14.297   0.869
68681SOL    HW1 7940   2.055  14.301   0.822
68681SOL    HW2 7941   2.164  14.205   0.864
68682SOL     OW 7942  13.944  13.495   0.523
68682SOL    HW1 7943  13.911  13.569   0.574
68682SOL    HW2 7944  13.950  13.530   0.433
68683SOL     OW 7945   5.096   6.651   5.176
68683SOL    HW1 7946   5.114   6.731   5.128
68683SOL    HW2 7947   5.000   6.647   5.182
68684SOL     OW 7948  13.153   2.868  13.721
68684SOL    HW1 7949  13.059   2.859  13.703
68684SOL    HW2 7950  13.195   2.805  13.662
68685SOL     OW 7951   8.232  14.142   1.486
68685SOL    HW1 7952   8.156  14.086   1.468
68685SOL    HW2 7953   8.265  14.166   1.399
68686SOL     OW 7954   5.623   4.255   2.026
68686SOL    HW1 7955   5.646   4.273   1.935
68686SOL    HW2 7956   5.641   4.162   2.039
68687SOL     OW 7957   5.197   4.481   3.614
68687SOL    HW1 7958   5.248   4.557   3.584
68687SOL    HW2 7959   5.118   4.482   3.560
68688SOL     OW 7960  12.034   6.192  13.004
68688SOL    HW1 7961  12.060   6.102  12.985
68688SOL    HW2 7962  11.960   6.183  13.064
68689SOL     OW 7963  12.111   5.334   0.348
68689SOL    HW1 7964  12.104   5.326   0.444
68689SOL    HW2 7965  12.025   5.309   0.316
68690SOL     OW 7966  11.473   5.370  11.778
68690SOL    HW1 7967  11.418   5.319  11.837
68690SOL    HW2 7968  11.518   5.432  11.835
68691SOL     OW 7969   0.486   1.112   7.318
68691SOL    HW1 7970   0.486   1.037   7.259
68691SOL    HW2 7971   0.540   1.177   7.273
68692SOL     OW 7972   6.739  12.841   1.811
68692SOL    HW1 7973   6.647  12.824   1.832
68692SOL    HW2 7974   6.741  12.935   1.789
68693SOL     OW 7975   3.978  10.040   1.918
68693SOL    HW1 7976   3.912   9.982   1.956
68693SOL    HW2 7977   4.059  10.017   1.965
68694SOL     OW 7978   2.021   1.735   2.170
68694SOL    HW1 7979   2.085   1.776   2.228
68694SOL    HW2 7980   1.940   1.783   2.184
68695SOL     OW 7981   7.427  10.692  12.284
68695SOL    HW1 7982   7.495  10.704  12.219
68695SOL    HW2 7983   7.435  10.601  12.312
68696SOL     OW 7984   7.064  11.235   4.428
68696SOL    HW1 7985   6.989  11.228   4.369
68696SOL    HW2 7986   7.136  11.264   4.372
68697SOL     OW 7987   3.768   1.441   2.871
68697SOL    HW1 7988   3.783   1.496   2.947
68697SOL    HW2 7989   3.849   1.391   2.861
68698SOL     OW 7990   3.818  14.135   9.445
68698SOL    HW1 7991   3.875  14.093   9.510
68698SOL    HW2 7992   3.856  14.110   9.361
68699SOL     OW 7993  12.329   5.601   5.370
68699SOL    HW1 7994  12.348   5.607   5.464
68699SOL    HW2 7995  12.271   5.675   5.353
68700SOL     OW 7996   9.170   3.438   3.102
68700SOL    HW1 7997   9.219   3.359   3.080
68700SOL    HW2 7998   9.081   3.408   3.119
68701SOL     OW 7999  14.390  13.395   5.351
68701SOL    HW1 8000  14.305  13.377   5.311
68701SOL    HW2 8001  14.428  13.465   5.297
68702SOL     OW 8002  12.851   0.798  12.388
68702SOL    HW1 8003  12.869   0.725  12.447
68702SOL    HW2 8004  12.871   0.876  12.441
68703SOL     OW 8005   6.490   7.669   2.889
68703SOL    HW1 8006   6.493   7.617   2.809
68703SOL    HW2 8007   6.559   7.735   2.878
68704SOL     OW 8008   2.500   7.976   0.461
68704SOL    HW1 8009   2.465   7.895   0.424
68704SOL    HW2 8010   2.471   8.044   0.400
68705SOL     OW 8011  11.403   4.969   0.436
68705SOL    HW1 8012  11.324   4.918   0.416
68705SOL    HW2 8013  11.476   4.913   0.409
68706SOL     OW 8014   9.864   6.315  12.704
68706SOL    HW1 8015   9.860   6.366  12.785
68706SOL    HW2 8016   9.831   6.229  12.727
68707SOL     OW 8017  11.544   5.294  12.114
68707SOL    HW1 8018  11.599   5.242  12.056
68707SOL    HW2 8019  11.458   5.252  12.111
68708SOL     OW 8020   0.709   0.565  12.274
68708SOL    HW1 8021   0.694   0.596  12.185
68708SOL    HW2 8022   0.625   0.531  12.303
68709SOL     OW 8023   9.476  11.470   7.045
68709SOL    HW1 8024   9.566  11.492   7.067
68709SOL    HW2 8025   9.483  11.397   6.984
68710SOL     OW 8026   1.190   4.164   4.149
68710SOL    HW1 8027   1.191   4.257   4.168
68710SOL    HW2 8028   1.097   4.141   4.143
68711SOL     OW 8029   6.067  11.261  13.143
68711SOL    HW1 8030   6.047  11.190  13.082
68711SOL    HW2 8031   6.050  11.341  13.094
68712SOL     OW 8032   9.957   7.605  14.248
68712SOL    HW1 8033   9.948   7.552  14.328
68712SOL    HW2 8034  10.026   7.668  14.269
68713SOL     OW 8035   9.454   8.846  11.224
68713SOL    HW1 8036   9.379   8.905  11.216
68713SOL    HW2 8037   9.472   8.843  11.318
68714SOL     OW 8038  11.009   5.186   0.818
68714SOL    HW1 8039  11.077   5.245   0.850
68714SOL    HW2 8040  10.935   5.243   0.799
68715SOL     OW 8041   7.218   2.951  12.808
68715SOL    HW1 8042   7.222   2.943  12.713
68715SOL    HW2 8043   7.148   3.014  12.824
68716SOL     OW 8044   3.481  11.890  10.802
68716SOL    HW1 8045   3.502  11.920  10.714
68716SOL    HW2 8046   3.562  11.906  10.852
68717SOL     OW 8047   8.517   7.460  12.319
68717SOL    HW1 8048   8.476   7.389  12.270
68717SOL    HW2 8049   8.468   7.538  12.294
68718SOL     OW 8050  10.106   0.304   7.259
68718SOL    HW1 8051  10.114   0.355   7.178
68718SOL    HW2 8052  10.012   0.287   7.268
68719SOL     OW 8053  11.308   1.317  10.026
68719SOL    HW1 8054  11.357   1.257   9.970
68719SOL    HW2 8055  11.364   1.394  10.035
68720SOL     OW 8056   7.941  11.679   1.531
68720SOL    HW1 8057   7.991  11.666   1.611
68720SOL    HW2 8058   7.850  11.668   1.557
68721SOL     OW 8059   6.867   6.067   8.467
68721SOL    HW1 8060   6.942   6.115   8.500
68721SOL    HW2 8061   6.854   6.101   8.378
68722SOL     OW 8062  10.627  11.002   2.338
68722SOL    HW1 8063  10.610  11.068   2.270
68722SOL    HW2 8064  10.612  10.919   2.294
68723SOL     OW 8065   5.669  12.500   2.939
68723SOL    HW1 8066   5.613  12.531   2.868
68723SOL    HW2 8067   5.642  12.549   3.016
68724SOL     OW 8068   8.074   2.782   3.798
68724SOL    HW1 8069   8.089   2.844   3.870
68724SOL    HW2 8070   8.162   2.766   3.762
68725SOL     OW 8071   5.924   5.013   7.551
68725SOL    HW1 8072   5.957   5.095   7.588
68725SOL    HW2 8073   5.867   4.977   7.619
68726SOL     OW 8074   3.503   8.420   7.512
68726SOL    HW1 8075   3.480   8.329   7.528
68726SOL    HW2 8076   3.498   8.462   7.598
68727SOL     OW 8077   3.138   6.207  11.597
68727SOL    HW1 8078   3.065   6.232  11.541
68727SOL    HW2 8079   3.200   6.279  11.588
68728SOL     OW 8080   1.093   0.634   9.994
68728SOL    HW1 8081   1.178   0.592  10.008
68728SOL    HW2 8082   1.061   0.597   9.912
68729SOL     OW 8083   4.284   4.752   4.233
68729SOL    HW1 8084   4.315   4.824   4.179
68729SOL    HW2 8085   4.362   4.721   4.279
68730SOL     OW 8086   4.020  12.332  12.543
68730SOL    HW1 8087   3.926  12.319  12.533
68730SOL    HW2 8088   4.038  12.414  12.498
68731SOL     OW 8089  14.840  14.505   4.515
68731SOL    HW1 8090  14.827  14.458   4.598
68731SOL    HW2 8091  14.849  14.436   4.449
68732SOL     OW 8092   8.841   1.312   9.892
68732SOL    HW1 8093   8.930   1.280   9.908
68732SOL    HW2 8094   8.823   1.370   9.966
68733SOL     OW 8095   7.772   6.294  14.357
68733SOL    HW1 8096   7.718   6.343  14.296
68733SOL    HW2 8097   7.752   6.332  14.443
68734SOL     OW 8098   8.999  10.564   9.815
68734SOL    HW1 8099   8.948  10.488   9.842
68734SOL    HW2 8100   9.065  10.529   9.755
68735SOL     OW 8101  10.747  12.319   7.973
68735SOL    HW1 8102  10.735  12.233   7.933
68735SOL    HW2 8103  10.664  12.364   7.959
68736SOL     OW 8104  11.368   8.691   5.456
68736SOL    HW1 8105  11.378   8.786   5.457
68736SOL    HW2 8106  11.275   8.676   5.471
68737SOL     OW 8107   7.032   5.395   9.685
68737SOL    HW1 8108   7.103   5.400   9.621
68737SOL    HW2 8109   7.061   5.449   9.758
68738SOL     OW 8110  13.939  12.236   8.272
68738SOL    HW1 8111  13.999  12.287   8.327
68738SOL    HW2 8112  13.885  12.301   8.229
68739SOL     OW 8113   9.288  11.997   2.383
68739SOL    HW1 8114   9.320  11.932   2.446
68739SOL    HW2 8115   9.324  11.969   2.299
68740SOL     OW 8116   5.554  14.085  14.099
68740SOL    HW1 8117   5.570  13.993  14.081
68740SOL    HW2 8118   5.470  14.104  14.057
68741SOL     OW 8119   9.512  14.717   6.878
68741SOL    HW1 8120   9.465  14.689   6.956
68741SOL    HW2 8121   9.461  14.683   6.804
68742SOL     OW 8122   1.031  14.330  14.247
68742SOL    HW1 8123   0.939  14.317  14.272
68742SOL    HW2 8124   1.056  14.246  14.208
68743SOL     OW 8125  13.952   1.523  13.769
68743SOL    HW1 8126  14.040   1.506  13.803
68743SOL    HW2 8127  13.911   1.437  13.765
68744SOL     OW 8128   5.926   3.350   7.322
68744SOL    HW1 8129   5.965   3.280   7.374
68744SOL    HW2 8130   5.884   3.407   7.386
68745SOL     OW 8131   8.153   0.917  10.656
68745SOL    HW1 8132   8.191   0.941  10.740
68745SOL    HW2 8133   8.080   0.978  10.645
68746SOL     OW 8134  10.344  10.188   7.579
68746SOL    HW1 8135  10.333  10.131   7.656
68746SOL    HW2 8136  10.405  10.141   7.523
68747SOL     OW 8137   9.972   7.274   0.598
68747SOL    HW1 8138   9.947   7.182   0.588
68747SOL    HW2 8139   9.892   7.323   0.582
68748SOL     OW 8140   3.721  10.050   8.049
68748SOL    HW1 8141   3.644   9.993   8.043
68748SOL    HW2 8142   3.786  10.009   7.992
68749SOL     OW 8143   4.079   1.760   4.701
68749SOL    HW1 8144   4.067   1.841   4.652
68749SOL    HW2 8145   4.127   1.786   4.780
68750SOL     OW 8146   4.467   6.369  12.961
68750SOL    HW1 8147   4.541   6.318  12.927
68750SOL    HW2 8148   4.497   6.400  13.047
68751SOL     OW 8149   9.646   4.316   8.848
68751SOL    HW1 8150   9.714   4.381   8.829
68751SOL    HW2 8151   9.577   4.366   8.891
68752SOL     OW 8152   1.558  13.244  11.068
68752SOL    HW1 8153   1.621  13.272  11.134
68752SOL    HW2 8154   1.607  13.243  10.986
68753SOL     OW 8155   9.302   8.149  14.843
68753SOL    HW1 8156   9.375   8.115   0.025
68753SOL    HW2 8157   9.237   8.176   0.039
68754SOL     OW 8158   8.799   4.470   0.431
68754SOL    HW1 8159   8.851   4.392   0.448
68754SOL    HW2 8160   8.789   4.512   0.516
68755SOL     OW 8161   6.192  14.711   6.693
68755SOL    HW1 8162   6.099  14.725   6.680
68755SOL    HW2 8163   6.214  14.637   6.636
68756SOL     OW 8164  13.200   7.480  12.313
68756SOL    HW1 8165  13.273   7.439  12.359
68756SOL    HW2 8166  13.216   7.574  12.320
68757SOL     OW 8167  12.249  13.465   2.628
68757SOL    HW1 8168  12.262  13.383   2.580
68757SOL    HW2 8169  12.290  13.532   2.573
68758SOL     OW 8170   1.519  13.546   7.997
68758SOL    HW1 8171   1.432  13.557   7.959
68758SOL    HW2 8172   1.509  13.472   8.058
68759SOL     OW 8173  12.485  11.706  11.475
68759SOL    HW1 8174  12.571  11.717  11.434
68759SOL    HW2 8175  12.477  11.612  11.490
68760SOL     OW 8176   2.633  12.067  14.695
68760SOL    HW1 8177   2.549  12.023  14.678
68760SOL    HW2 8178   2.622  12.106  14.781
68761SOL     OW 8179   5.772   4.255   7.370
68761SOL    HW1 8180   5.678   4.247   7.385
68761SOL    HW2 8181   5.780   4.318   7.298
68762SOL     OW 8182   4.153  12.851   4.456
68762SOL    HW1 8183   4.193  12.774   4.414
68762SOL    HW2 8184   4.094  12.886   4.390
68763SOL     OW 8185  14.719   5.422   7.779
68763SOL    HW1 8186  14.653   5.354   7.769
68763SOL    HW2 8187  14.670   5.503   7.791
68764SOL     OW 8188   9.367   2.796   4.185
68764SOL    HW1 8189   9.410   2.761   4.263
68764SOL    HW2 8190   9.434   2.851   4.143
68765SOL     OW 8191   4.669   4.830   2.637
68765SOL    HW1 8192   4.666   4.773   2.560
68765SOL    HW2 8193   4.761   4.826   2.666
68766SOL     OW 8194   4.047  10.944   4.144
68766SOL    HW1 8195   4.069  11.033   4.174
68766SOL    HW2 8196   4.108  10.927   4.072
68767SOL     OW 8197   5.642   9.599  12.771
68767SOL    HW1 8198   5.704   9.632  12.705
68767SOL    HW2 8199   5.674   9.511  12.791
68768SOL     OW 8200  10.977  11.490  13.842
68768SOL    HW1 8201  10.892  11.448  13.824
68768SOL    HW2 8202  11.041  11.419  13.831
68769SOL     OW 8203   6.057   8.522   9.087
68769SOL    HW1 8204   5.991   8.506   9.155
68769SOL    HW2 8205   6.133   8.555   9.136
68770SOL     OW 8206   6.270   1.771   1.179
68770SOL    HW1 8207   6.200   1.779   1.244
68770SOL    HW2 8208   6.283   1.861   1.146
68771SOL     OW 8209  11.326  11.633  14.552
68771SOL    HW1 8210  11.312  11.686  14.631
68771SOL    HW2 8211  11.317  11.543  14.582
68772SOL     OW 8212   4.458   9.786  12.212
68772SOL    HW1 8213   4.441   9.724  12.141
68772SOL    HW2 8214   4.553   9.792  12.216
68773SOL     OW 8215  13.916   8.470   6.020
68773SOL    HW1 8216  13.901   8.440   5.930
68773SOL    HW2 8217  13.891   8.562   6.020
68774SOL     OW 8218  13.296   0.201  13.110
68774SOL    HW1 8219  13.372   0.143  13.101
68774SOL    HW2 8220  13.308   0.243  13.194
68775SOL     OW 8221  12.194   5.939  13.770
68775SOL    HW1 8222  12.253   5.986  13.828
68775SOL    HW2 8223  12.247   5.919  13.692
68776SOL     OW 8224   0.427   4.401   3.503
68776SOL    HW1 8225   0.393   4.450   3.578
68776SOL    HW2 8226   0.403   4.454   3.427
68777SOL     OW 8227   9.308   1.385   4.552
68777SOL    HW1 8228   9.325   1.291   4.546
68777SOL    HW2 8229   9.280   1.398   4.643
68778SOL     OW 8230   5.283   3.683   6.270
68778SOL    HW1 8231   5.362   3.735   6.264
68778SOL    HW2 8232   5.302   3.617   6.337
68779SOL     OW 8233   9.938   8.908   2.690
68779SOL    HW1 8234   9.939   8.995   2.650
68779SOL    HW2 8235   9.999   8.914   2.764
68780SOL     OW 8236   1.024  13.766   8.352
68780SOL    HW1 8237   1.095  13.705   8.333
68780SOL    HW2 8238   1.066  13.836   8.402
68781SOL     OW 8239   4.749   1.075  13.673
68781SOL    HW1 8240   4.813   1.129  13.628
68781SOL    HW2 8241   4.794   1.046  13.753
68782SOL     OW 8242   2.494  14.081   6.546
68782SOL    HW1 8243   2.423  14.145   6.545
68782SOL    HW2 8244   2.574  14.133   6.544
68783SOL     OW 8245   2.905   3.798   1.046
68783SOL    HW1 8246   2.971   3.804   0.978
68783SOL    HW2 8247   2.842   3.733   1.014
68784SOL     OW 8248   1.474   2.568   6.387
68784SOL    HW1 8249   1.498   2.635   6.323
68784SOL    HW2 8250   1.404   2.607   6.439
68785SOL     OW 8251  11.371   5.668  11.853
68785SOL    HW1 8252  11.416   5.639  11.774
68785SOL    HW2 8253  11.431   5.645  11.924
68786SOL     OW 8254  10.375   6.663  12.517
68786SOL    HW1 8255  10.392   6.755  12.541
68786SOL    HW2 8256  10.281   6.652  12.533
68787SOL     OW 8257  11.661   4.088  10.974
68787SOL    HW1 8258  11.741   4.142  10.968
68787SOL    HW2 8259  11.599   4.143  11.021
68788SOL     OW 8260  12.468   7.564   3.721
68788SOL    HW1 8261  12.555   7.540   3.749
68788SOL    HW2 8262  12.472   7.659   3.710
68789SOL     OW 8263   8.192  13.467   6.517
68789SOL    HW1 8264   8.268  13.456   6.574
68789SOL    HW2 8265   8.147  13.543   6.552
68790SOL     OW 8266   8.041  12.145   8.116
68790SOL    HW1 8267   7.967  12.205   8.132
68790SOL    HW2 8268   8.026  12.072   8.175
68791SOL     OW 8269   7.526   1.005  12.016
68791SOL    HW1 8270   7.432   0.988  12.008
68791SOL    HW2 8271   7.561   0.984  11.930
68792SOL     OW 8272   6.559  10.154   2.721
68792SOL    HW1 8273   6.472  10.161   2.684
68792SOL    HW2 8274   6.563  10.225   2.786
68793SOL     OW 8275   0.915  14.720  10.890
68793SOL    HW1 8276   0.874  14.782  10.828
68793SOL    HW2 8277   0.993  14.688  10.845
68794SOL     OW 8278   1.938   4.000   1.108
68794SOL    HW1 8279   1.949   4.096   1.111
68794SOL    HW2 8280   2.005   3.971   1.046
68795SOL     OW 8281   6.220   9.546   7.069
68795SOL    HW1 8282   6.132   9.521   7.097
68795SOL    HW2 8283   6.239   9.488   6.995
68796SOL     OW 8284   4.524  14.380  14.146
68796SOL    HW1 8285   4.479  14.358  14.064
68796SOL    HW2 8286   4.535  14.296  14.190
68797SOL     OW 8287   8.380   1.562  11.415
68797SOL    HW1 8288   8.352   1.652  11.430
68797SOL    HW2 8289   8.318   1.527  11.352
68798SOL     OW 8290  11.715   0.827  10.808
68798SOL    HW1 8291  11.623   0.812  10.829
68798SOL    HW2 8292  11.745   0.890  10.873
68799SOL     OW 8293  12.036   5.445   1.977
68799SOL    HW1 8294  12.089   5.504   1.924
68799SOL    HW2 8295  11.946   5.470   1.958
68800SOL     OW 8296   9.676  12.802   0.136
68800SOL    HW1 8297   9.605  12.837   0.190
68800SOL    HW2 8298   9.741  12.770   0.199
68801SOL     OW 8299   4.597   6.479   8.112
68801SOL    HW1 8300   4.692   6.465   8.115
68801SOL    HW2 8301   4.580   6.540   8.184
68802SOL     OW 8302  13.077   7.396   7.623
68802SOL    HW1 8303  13.145   7.376   7.687
68802SOL    HW2 8304  13.126   7.429   7.547
68803SOL     OW 8305  12.113   7.957  11.018
68803SOL    HW1 8306  12.038   7.994  11.063
68803SOL    HW2 8307  12.076   7.907  10.945
68804SOL     OW 8308   6.519   7.817  10.611
68804SOL    HW1 8309   6.576   7.752  10.571
68804SOL    HW2 8310   6.575   7.861  10.676
68805SOL     OW 8311   8.664  10.919   7.680
68805SOL    HW1 8312   8.648  10.927   7.774
68805SOL    HW2 8313   8.653  10.825   7.662
68806SOL     OW 8314   6.660  11.517   1.564
68806SOL    HW1 8315   6.614  11.593   1.600
68806SOL    HW2 8316   6.671  11.537   1.471
68807SOL     OW 8317   1.700   5.102  10.420
68807SOL    HW1 8318   1.721   5.182  10.372
68807SOL    HW2 8319   1.735   5.031  10.366
68808SOL     OW 8320   3.866   2.620   6.737
68808SOL    HW1 8321   3.931   2.659   6.679
68808SOL    HW2 8322   3.797   2.686   6.744
68809SOL     OW 8323  11.000   0.440   1.736
68809SOL    HW1 8324  11.072   0.414   1.679
68809SOL    HW2 8325  10.977   0.360   1.783
68810SOL     OW 8326  10.406   9.254  10.770
68810SOL    HW1 8327  10.396   9.238  10.676
68810SOL    HW2 8328  10.321   9.233  10.808
68811SOL     OW 8329   2.332   7.568   5.327
68811SOL    HW1 8330   2.385   7.646   5.310
68811SOL    HW2 8331   2.361   7.538   5.413
68812SOL     OW 8332   3.827   9.147   8.341
68812SOL    HW1 8333   3.735   9.120   8.346
68812SOL    HW2 8334   3.853   9.161   8.432
68813SOL     OW 8335   8.944   2.021   9.263
68813SOL    HW1 8336   8.856   2.059   9.261
68813SOL    HW2 8337   8.962   2.009   9.357
68814SOL     OW 8338   2.709   0.944   4.155
68814SOL    HW1 8339   2.763   0.876   4.195
68814SOL    HW2 8340   2.638   0.959   4.218
68815SOL     OW 8341   6.871   1.412  12.403
68815SOL    HW1 8342   6.896   1.362  12.325
68815SOL    HW2 8343   6.784   1.446  12.384
68816SOL     OW 8344  14.627   1.713   1.042
68816SOL    HW1 8345  14.581   1.739   1.122
68816SOL    HW2 8346  14.680   1.638   1.068
68817SOL     OW 8347  10.539  13.919   9.832
68817SOL    HW1 8348  10.564  13.907   9.924
68817SOL    HW2 8349  10.532  14.014   9.820
68818SOL     OW 8350   6.126   4.810  14.160
68818SOL    HW1 8351   6.198   4.812  14.096
68818SOL    HW2 8352   6.168   4.830  14.244
68819SOL     OW 8353   3.673  13.478  11.633
68819SOL    HW1 8354   3.676  13.512  11.722
68819SOL    HW2 8355   3.582  13.491  11.606
68820SOL     OW 8356   5.343   3.200  13.964
68820SOL    HW1 8357   5.409   3.145  13.923
68820SOL    HW2 8358   5.261   3.152  13.953
68821SOL     OW 8359  11.950   5.732  12.976
68821SOL    HW1 8360  11.896   5.792  12.925
68821SOL    HW2 8361  11.952   5.771  13.064
68822SOL     OW 8362  10.915   4.716   4.085
68822SOL    HW1 8363  10.907   4.621   4.095
68822SOL    HW2 8364  11.010   4.732   4.084
68823SOL     OW 8365  11.504   6.852   0.511
68823SOL    HW1 8366  11.450   6.836   0.434
68823SOL    HW2 8367  11.588   6.882   0.476
68824SOL     OW 8368   0.342   6.868   5.250
68824SOL    HW1 8369   0.362   6.830   5.336
68824SOL    HW2 8370   0.321   6.793   5.195
68825SOL     OW 8371  14.512  14.675   7.963
68825SOL    HW1 8372  14.479  14.731   7.893
68825SOL    HW2 8373  14.531  14.735   8.035
68826SOL     OW 8374   5.484   3.425  12.635
68826SOL    HW1 8375   5.565   3.476  12.641
68826SOL    HW2 8376   5.511   3.335  12.654
68827SOL     OW 8377   2.453   4.050  14.676
68827SOL    HW1 8378   2.360   4.071  14.673
68827SOL    HW2 8379   2.465   4.003  14.759
68828SOL     OW 8380   0.213   7.576   4.816
68828SOL    HW1 8381   0.216   7.663   4.776
68828SOL    HW2 8382   0.139   7.533   4.774
68829SOL     OW 8383   4.812   5.191   3.321
68829SOL    HW1 8384   4.814   5.098   3.295
68829SOL    HW2 8385   4.890   5.202   3.375
68830SOL     OW 8386   7.763   6.589   7.432
68830SOL    HW1 8387   7.770   6.558   7.341
68830SOL    HW2 8388   7.708   6.667   7.426
68831SOL     OW 8389   4.554   3.935   7.791
68831SOL    HW1 8390   4.608   3.995   7.843
68831SOL    HW2 8391   4.518   3.990   7.721
68832SOL     OW 8392   6.792   9.922   1.096
68832SOL    HW1 8393   6.698   9.923   1.076
68832SOL    HW2 8394   6.829   9.994   1.046
68833SOL     OW 8395   8.512  12.529   4.041
68833SOL    HW1 8396   8.422  12.500   4.030
68833SOL    HW2 8397   8.508  12.624   4.035
68834SOL     OW 8398   6.030   1.510   2.581
68834SOL    HW1 8399   6.105   1.461   2.615
68834SOL    HW2 8400   6.064   1.559   2.506
68835SOL     OW 8401  10.180   2.797  10.284
68835SOL    HW1 8402  10.132   2.782  10.365
68835SOL    HW2 8403  10.112   2.807  10.217
68836SOL     OW 8404  13.362   1.930   6.389
68836SOL    HW1 8405  13.368   1.948   6.483
68836SOL    HW2 8406  13.439   1.876   6.370
68837SOL     OW 8407  13.680   6.922   0.095
68837SOL    HW1 8408  13.687   6.863   0.170
68837SOL    HW2 8409  13.618   6.990   0.122
68838SOL     OW 8410  14.663   9.675   5.899
68838SOL    HW1 8411  14.677   9.637   5.986
68838SOL    HW2 8412  14.578   9.718   5.905
68839SOL     OW 8413  11.404   9.880   8.080
68839SOL    HW1 8414  11.421   9.876   8.174
68839SOL    HW2 8415  11.313   9.911   8.073
68840SOL     OW 8416   7.502  11.334   6.139
68840SOL    HW1 8417   7.494  11.244   6.106
68840SOL    HW2 8418   7.585  11.334   6.188
68841SOL     OW 8419  14.504   1.298   3.143
68841SOL    HW1 8420  14.538   1.385   3.166
68841SOL    HW2 8421  14.474   1.308   3.053
68842SOL     OW 8422   7.924   8.652   0.765
68842SOL    HW1 8423   7.833   8.643   0.795
68842SOL    HW2 8424   7.921   8.728   0.706
68843SOL     OW 8425  10.258   1.401   4.289
68843SOL    HW1 8426  10.308   1.482   4.299
68843SOL    HW2 8427  10.237   1.396   4.196
68844SOL     OW 8428  10.105   6.636   8.840
68844SOL    HW1 8429  10.138   6.669   8.923
68844SOL    HW2 8430  10.117   6.709   8.779
68845SOL     OW 8431   9.359   6.079   4.767
68845SOL    HW1 8432   9.285   6.128   4.732
68845SOL    HW2 8433   9.369   6.005   4.707
68846SOL     OW 8434   2.389   4.777  10.939
68846SOL    HW1 8435   2.419   4.688  10.960
68846SOL    HW2 8436   2.469   4.829  10.936
68847SOL     OW 8437  11.537   8.065   5.693
68847SOL    HW1 8438  11.590   8.000   5.646
68847SOL    HW2 8439  11.521   8.025   5.778
68848SOL     OW 8440   8.494   8.469  12.602
68848SOL    HW1 8441   8.543   8.494  12.680
68848SOL    HW2 8442   8.409   8.511  12.613
68849SOL     OW 8443  12.367   5.495   9.968
68849SOL    HW1 8444  12.445   5.542   9.939
68849SOL    HW2 8445  12.298   5.561   9.967
68850SOL     OW 8446   4.957   9.357   6.604
68850SOL    HW1 8447   4.971   9.300   6.529
68850SOL    HW2 8448   4.924   9.300   6.673
68851SOL     OW 8449  13.145   2.028   9.684
68851SOL    HW1 8450  13.061   1.983   9.670
68851SOL    HW2 8451  13.166   2.011   9.776
68852SOL     OW 8452   1.618   4.982   9.124
68852SOL    HW1 8453   1.623   4.990   9.219
68852SOL    HW2 8454   1.608   4.888   9.109
68853SOL     OW 8455  11.803  14.662  10.703
68853SOL    HW1 8456  11.778  14.570  10.716
68853SOL    HW2 8457  11.898  14.661  10.707
68854SOL     OW 8458   4.270  13.789   7.979
68854SOL    HW1 8459   4.295  13.881   7.970
68854SOL    HW2 8460   4.217  13.771   7.901
68855SOL     OW 8461   1.200   8.045   4.211
68855SOL    HW1 8462   1.292   8.020   4.204
68855SOL    HW2 8463   1.180   8.036   4.304
68856SOL     OW 8464   0.375   7.889  13.783
68856SOL    HW1 8465   0.376   7.935  13.699
68856SOL    HW2 8466   0.467   7.877  13.804
68857SOL     OW 8467   6.347   0.412   5.711
68857SOL    HW1 8468   6.286   0.455   5.651
68857SOL    HW2 8469   6.409   0.481   5.736
68858SOL     OW 8470   6.512  13.244   6.971
68858SOL    HW1 8471   6.437  13.184   6.973
68858SOL    HW2 8472   6.574  13.202   6.911
68859SOL     OW 8473   8.046   3.672  13.817
68859SOL    HW1 8474   7.953   3.690  13.833
68859SOL    HW2 8475   8.058   3.692  13.724
68860SOL     OW 8476  10.482  14.246  12.466
68860SOL    HW1 8477  10.560  14.297  12.489
68860SOL    HW2 8478  10.517  14.166  12.426
68861SOL     OW 8479  13.770   8.580   3.176
68861SOL    HW1 8480  13.716   8.602   3.252
68861SOL    HW2 8481  13.809   8.664   3.150
68862SOL     OW 8482  11.971   7.840   7.574
68862SOL    HW1 8483  12.015   7.883   7.501
68862SOL    HW2 8484  12.039   7.784   7.613
68863SOL     OW 8485  12.487  10.658   4.346
68863SOL    HW1 8486  12.581  10.637   4.340
68863SOL    HW2 8487  12.483  10.738   4.398
68864SOL     OW 8488  14.393   8.994   9.921
68864SOL    HW1 8489  14.450   9.071   9.917
68864SOL    HW2 8490  14.315   9.025   9.968
68865SOL     OW 8491  10.775  10.779   3.742
68865SOL    HW1 8492  10.686  10.789   3.708
68865SOL    HW2 8493  10.825  10.742   3.670
68866SOL     OW 8494   2.033   6.809   9.676
68866SOL    HW1 8495   2.065   6.875   9.614
68866SOL    HW2 8496   2.079   6.729   9.653
68867SOL     OW 8497   4.402  14.747   3.043
68867SOL    HW1 8498   4.386  14.670   2.988
68867SOL    HW2 8499   4.315  14.776   3.069
68868SOL     OW 8500  11.815  12.349  13.351
68868SOL    HW1 8501  11.755  12.413  13.389
68868SOL    HW2 8502  11.880  12.402  13.305
68869SOL     OW 8503   1.896   7.211   2.383
68869SOL    HW1 8504   1.838   7.270   2.334
68869SOL    HW2 8505   1.966   7.268   2.415
68870SOL     OW 8506   9.650   1.332   4.293
68870SOL    HW1 8507   9.718   1.284   4.246
68870SOL    HW2 8508   9.659   1.306   4.385
68871SOL     OW 8509   8.632   5.783  14.784
68871SOL    HW1 8510   8.713   5.834  14.788
68871SOL    HW2 8511   8.583   5.821  14.711
68872SOL     OW 8512  14.766   6.648  11.265
68872SOL    HW1 8513  14.700   6.679  11.327
68872SOL    HW2 8514  14.835   6.715  11.268
68873SOL     OW 8515  11.623   5.453   7.682
68873SOL    HW1 8516  11.617   5.491   7.769
68873SOL    HW2 8517  11.546   5.486   7.635
68874SOL     OW 8518   2.242   0.309   0.267
68874SOL    HW1 8519   2.198   0.282   0.348
68874SOL    HW2 8520   2.222   0.402   0.259
68875SOL     OW 8521   2.004  13.371   3.488
68875SOL    HW1 8522   2.035  13.405   3.404
68875SOL    HW2 8523   1.917  13.409   3.499
68876SOL     OW 8524   4.039   5.991   6.248
68876SOL    HW1 8525   4.053   6.022   6.158
68876SOL    HW2 8526   3.963   5.934   6.242
68877SOL     OW 8527   3.585   6.843  12.944
68877SOL    HW1 8528   3.656   6.896  12.980
68877SOL    HW2 8529   3.628   6.771  12.899
68878SOL     OW 8530   8.988  11.702   7.849
68878SOL    HW1 8531   9.006  11.627   7.793
68878SOL    HW2 8532   8.915  11.747   7.805
68879SOL     OW 8533   2.233  10.183   5.022
68879SOL    HW1 8534   2.295  10.158   4.953
68879SOL    HW2 8535   2.266  10.139   5.101
68880SOL     OW 8536   9.405  10.058  14.059
68880SOL    HW1 8537   9.458  10.012  13.993
68880SOL    HW2 8538   9.364   9.988  14.110
68881SOL     OW 8539   1.581  13.050  12.003
68881SOL    HW1 8540   1.521  13.005  12.063
68881SOL    HW2 8541   1.567  13.143  12.021
68882SOL     OW 8542   0.503   0.371  10.058
68882SOL    HW1 8543   0.516   0.300   9.994
68882SOL    HW2 8544   0.429   0.342  10.111
68883SOL     OW 8545   9.624   9.924  13.549
68883SOL    HW1 8546   9.719   9.921  13.537
68883SOL    HW2 8547   9.597  10.002  13.501
68884SOL     OW 8548   8.834   0.666   9.531
68884SOL    HW1 8549   8.819   0.705   9.617
68884SOL    HW2 8550   8.803   0.732   9.469
68885SOL     OW 8551   1.963   2.675  12.095
68885SOL    HW1 8552   1.949   2.729  12.173
68885SOL    HW2 8553   1.910   2.597  12.110
68886SOL     OW 8554   1.023   6.510  14.178
68886SOL    HW1 8555   0.962   6.576  14.212
68886SOL    HW2 8556   1.016   6.518  14.082
68887SOL     OW 8557  10.335  13.911   0.035
68887SOL    HW1 8558  10.255  13.963   0.043
68887SOL    HW2 8559  10.406  13.974   0.048
68888SOL     OW 8560  13.706   2.255   0.083
68888SOL    HW1 8561  13.715   2.321   0.151
68888SOL    HW2 8562  13.648   2.295   0.018
68889SOL     OW 8563   5.149   8.446   1.080
68889SOL    HW1 8564   5.222   8.385   1.083
68889SOL    HW2 8565   5.146   8.484   1.167
68890SOL     OW 8566   7.477   5.840   7.595
68890SOL    HW1 8567   7.463   5.801   7.509
68890SOL    HW2 8568   7.504   5.930   7.576
68891SOL     OW 8569  13.327  10.780   9.608
68891SOL    HW1 8570  13.352  10.725   9.683
68891SOL    HW2 8571  13.273  10.849   9.646
68892SOL     OW 8572   5.472   0.262   9.613
68892SOL    HW1 8573   5.523   0.283   9.535
68892SOL    HW2 8574   5.503   0.175   9.638
68893SOL     OW 8575   7.328  13.850   0.799
68893SOL    HW1 8576   7.292  13.789   0.735
68893SOL    HW2 8577   7.355  13.794   0.872
68894SOL     OW 8578   0.143   3.910  13.188
68894SOL    HW1 8579   0.208   3.953  13.244
68894SOL    HW2 8580   0.168   3.935  13.099
68895SOL     OW 8581   8.743   5.252  10.328
68895SOL    HW1 8582   8.786   5.313  10.269
68895SOL    HW2 8583   8.803   5.245  10.403
68896SOL     OW 8584  11.647  10.427  14.603
68896SOL    HW1 8585  11.573  10.455  14.549
68896SOL    HW2 8586  11.718  10.487  14.580
68897SOL     OW 8587  13.718  13.574   2.820
68897SOL    HW1 8588  13.643  13.588   2.878
68897SOL    HW2 8589  13.756  13.661   2.809
68898SOL     OW 8590   6.139  14.564   4.338
68898SOL    HW1 8591   6.098  14.551   4.423
68898SOL    HW2 8592   6.112  14.488   4.286
68899SOL     OW 8593   8.437   4.268  13.951
68899SOL    HW1 8594   8.445   4.275  13.856
68899SOL    HW2 8595   8.436   4.174  13.968
68900SOL     OW 8596   7.691   6.312   8.774
68900SOL    HW1 8597   7.617   6.264   8.811
68900SOL    HW2 8598   7.702   6.275   8.687
68901SOL     OW 8599  12.479  11.088  13.493
68901SOL    HW1 8600  12.396  11.120  13.528
68901SOL    HW2 8601  12.478  11.116  13.401
68902SOL     OW 8602   4.285  14.492  11.699
68902SOL    HW1 8603   4.229  14.545  11.642
68902SOL    HW2 8604   4.350  14.455  11.640
68903SOL     OW 8605   0.569  10.347   6.094
68903SOL    HW1 8606   0.489  10.341   6.042
68903SOL    HW2 8607   0.623  10.411   6.047
68904SOL     OW 8608   4.188   3.544  11.412
68904SOL    HW1 8609   4.160   3.453  11.419
68904SOL    HW2 8610   4.262   3.550  11.473
68905SOL     OW 8611   0.051  11.440  14.785
68905SOL    HW1 8612   0.062  11.529  14.751
68905SOL    HW2 8613   0.073  11.383  14.712
68906SOL     OW 8614   7.291   9.383  10.260
68906SOL    HW1 8615   7.330   9.296  10.260
68906SOL    HW2 8616   7.330   9.428  10.335
68907SOL     OW 8617   6.273   1.848   3.217
68907SOL    HW1 8618   6.233   1.798   3.288
68907SOL    HW2 8619   6.367   1.848   3.236
68908SOL     OW 8620   2.967  12.338   7.207
68908SOL    HW1 8621   2.886  12.303   7.245
68908SOL    HW2 8622   3.026  12.346   7.282
68909SOL     OW 8623  10.256   0.024  10.084
68909SOL    HW1 8624  10.207   0.105  10.067
68909SOL    HW2 8625  10.309   0.012  10.005
68910SOL     OW 8626   1.324  12.520  14.780
68910SOL    HW1 8627   1.391  12.453  14.767
68910SOL    HW2 8628   1.327  12.572  14.699
68911SOL     OW 8629  10.735   9.569  11.143
68911SOL    HW1 8630  10.806   9.599  11.086
68911SOL    HW2 8631  10.659   9.562  11.085
68912SOL     OW 8632  12.144  10.699   8.924
68912SOL    HW1 8633  12.229  10.656   8.932
68912SOL    HW2 8634  12.163  10.786   8.889
68913SOL     OW 8635   4.146   9.377   1.041
68913SOL    HW1 8636   4.142   9.439   0.968
68913SOL    HW2 8637   4.239   9.355   1.048
68914SOL     OW 8638  12.964   5.846  11.431
68914SOL    HW1 8639  12.899   5.858  11.362
68914SOL    HW2 8640  13.026   5.783  11.394
68915SOL     OW 8641   0.540  14.565   2.919
68915SOL    HW1 8642   0.585  14.549   2.836
68915SOL    HW2 8643   0.484  14.488   2.931
68916SOL     OW 8644  10.891  11.900   3.318
68916SOL    HW1 8645  10.798  11.918   3.303
68916SOL    HW2 8646  10.893  11.812   3.355
68917SOL     OW 8647   6.786  13.922  10.308
68917SOL    HW1 8648   6.738  13.994  10.350
68917SOL    HW2 8649   6.718  13.862  10.278
68918SOL     OW 8650   9.919   4.667   4.153
68918SOL    HW1 8651   9.882   4.690   4.068
68918SOL    HW2 8652   9.880   4.729   4.215
68919SOL     OW 8653   8.968   1.201   2.140
68919SOL    HW1 8654   8.938   1.180   2.228
68919SOL    HW2 8655   8.997   1.292   2.145
68920SOL     OW 8656  14.522   9.957  12.958
68920SOL    HW1 8657  14.476  10.041  12.966
68920SOL    HW2 8658  14.602   9.979  12.909
68921SOL     OW 8659   1.823   5.693   9.902
68921SOL    HW1 8660   1.802   5.599   9.901
68921SOL    HW2 8661   1.740   5.737   9.886
68922SOL     OW 8662  12.885   8.520   3.448
68922SOL    HW1 8663  12.957   8.457   3.439
68922SOL    HW2 8664  12.864   8.518   3.541
68923SOL     OW 8665  10.953   2.449   9.190
68923SOL    HW1 8666  10.935   2.479   9.101
68923SOL    HW2 8667  11.047   2.431   9.190
68924SOL     OW 8668   2.114   5.929  11.172
68924SOL    HW1 8669   2.181   5.917  11.240
68924SOL    HW2 8670   2.031   5.913  11.216
68925SOL     OW 8671   5.813  10.799  12.658
68925SOL    HW1 8672   5.817  10.759  12.571
68925SOL    HW2 8673   5.732  10.849  12.659
68926SOL     OW 8674   5.064   9.740  13.744
68926SOL    HW1 8675   5.028   9.651  13.748
68926SOL    HW2 8676   5.143   9.736  13.799
68927SOL     OW 8677  10.978   9.147  12.123
68927SOL    HW1 8678  10.955   9.186  12.207
68927SOL    HW2 8679  10.906   9.172  12.065
68928SOL     OW 8680   4.063  13.008  14.118
68928SOL    HW1 8681   4.087  13.072  14.185
68928SOL    HW2 8682   4.142  12.995  14.067
68929SOL     OW 8683   7.190   6.697  13.955
68929SOL    HW1 8684   7.277   6.724  13.984
68929SOL    HW2 8685   7.160   6.769  13.900
68930SOL     OW 8686  10.796   0.199  11.252
68930SOL    HW1 8687  10.710   0.158  11.237
68930SOL    HW2 8688  10.791   0.231  11.342
68931SOL     OW 8689  10.159  14.655  12.933
68931SOL    HW1 8690  10.102  14.656  12.857
68931SOL    HW2 8691  10.100  14.662  13.008
68932SOL     OW 8692  12.659   0.881   3.387
68932SOL    HW1 8693  12.620   0.845   3.307
68932SOL    HW2 8694  12.741   0.834   3.397
68933SOL     OW 8695  11.759   8.079  13.331
68933SOL    HW1 8696  11.711   8.082  13.249
68933SOL    HW2 8697  11.794   7.990  13.335
68934SOL     OW 8698   5.908  10.861   2.210
68934SOL    HW1 8699   5.885  10.771   2.235
68934SOL    HW2 8700   5.946  10.899   2.288
68935SOL     OW 8701   7.638   1.866   5.088
68935SOL    HW1 8702   7.548   1.894   5.104
68935SOL    HW2 8703   7.651   1.879   4.994
68936SOL     OW 8704   6.683   6.596   3.205
68936SOL    HW1 8705   6.689   6.543   3.284
68936SOL    HW2 8706   6.685   6.687   3.236
68937SOL     OW 8707   9.299   8.119   1.296
68937SOL    HW1 8708   9.323   8.210   1.282
68937SOL    HW2 8709   9.259   8.117   1.383
68938SOL     OW 8710   4.709   3.635   1.700
68938SOL    HW1 8711   4.745   3.662   1.615
68938SOL    HW2 8712   4.696   3.718   1.747
68939SOL     OW 8713   7.448   1.822   7.049
68939SOL    HW1 8714   7.451   1.899   6.991
68939SOL    HW2 8715   7.355   1.803   7.058
68940SOL     OW 8716  12.925   0.569   9.570
68940SOL    HW1 8717  12.924   0.618   9.652
68940SOL    HW2 8718  12.964   0.629   9.506
68941SOL     OW 8719   7.864   4.241   6.221
68941SOL    HW1 8720   7.947   4.203   6.192
68941SOL    HW2 8721   7.816   4.167   6.258
68942SOL     OW 8722   4.862   7.526   3.669
68942SOL    HW1 8723   4.867   7.573   3.752
68942SOL    HW2 8724   4.876   7.593   3.602
68943SOL     OW 8725   3.807  13.176   6.700
68943SOL    HW1 8726   3.832  13.122   6.775
68943SOL    HW2 8727   3.817  13.119   6.624
68944SOL     OW 8728  10.994  10.334   7.803
68944SOL    HW1 8729  11.087  10.314   7.815
68944SOL    HW2 8730  10.953  10.249   7.787
68945SOL     OW 8731  14.326   5.301  14.507
68945SOL    HW1 8732  14.342   5.367  14.439
68945SOL    HW2 8733  14.376   5.224  14.478
68946SOL     OW 8734   4.591   2.267  10.737
68946SOL    HW1 8735   4.664   2.220  10.696
68946SOL    HW2 8736   4.526   2.277  10.666
68947SOL     OW 8737  10.937   8.766   7.663
68947SOL    HW1 8738  10.921   8.825   7.589
68947SOL    HW2 8739  10.905   8.813   7.740
68948SOL     OW 8740   8.821  12.281   6.844
68948SOL    HW1 8741   8.734  12.271   6.804
68948SOL    HW2 8742   8.806  12.337   6.920
68949SOL     OW 8743   3.581  14.752   3.036
68949SOL    HW1 8744   3.574  14.765   2.942
68949SOL    HW2 8745   3.588  14.841   3.072
68950SOL     OW 8746  12.470  10.291  13.761
68950SOL    HW1 8747  12.544  10.332  13.806
68950SOL    HW2 8748  12.397  10.353  13.772
68951SOL     OW 8749  11.063  10.155  10.467
68951SOL    HW1 8750  11.125  10.224  10.444
68951SOL    HW2 8751  11.040  10.173  10.558
68952SOL     OW 8752  10.536  11.941   8.273
68952SOL    HW1 8753  10.472  11.872   8.290
68952SOL    HW2 8754  10.502  11.988   8.197
68953SOL     OW 8755   1.429   9.053   2.169
68953SOL    HW1 8756   1.515   9.073   2.132
68953SOL    HW2 8757   1.422   9.111   2.245
68954SOL     OW 8758   6.042   3.755  14.149
68954SOL    HW1 8759   6.027   3.789  14.061
68954SOL    HW2 8760   5.979   3.802  14.204
68955SOL     OW 8761   9.891  12.567   0.942
68955SOL    HW1 8762   9.874  12.507   0.869
68955SOL    HW2 8763   9.974  12.610   0.918
68956SOL     OW 8764  14.195   6.792  14.248
68956SOL    HW1 8765  14.268   6.757  14.299
68956SOL    HW2 8766  14.142   6.839  14.312
68957SOL     OW 8767   9.917   6.067  11.960
68957SOL    HW1 8768   9.850   6.018  11.912
68957SOL    HW2 8769   9.868   6.117  12.025
68958SOL     OW 8770   0.687   3.909   2.490
68958SOL    HW1 8771   0.626   3.840   2.467
68958SOL    HW2 8772   0.639   3.990   2.475
68959SOL     OW 8773  14.479   9.775  12.575
68959SOL    HW1 8774  14.451   9.826  12.498
68959SOL    HW2 8775  14.423   9.697  12.574
68960SOL     OW 8776  13.962   2.009   8.956
68960SOL    HW1 8777  14.031   1.962   8.908
68960SOL    HW2 8778  13.881   1.968   8.925
68961SOL     OW 8779   4.244   4.266   8.895
68961SOL    HW1 8780   4.294   4.315   8.830
68961SOL    HW2 8781   4.182   4.215   8.844
68962SOL     OW 8782  12.735   8.357  12.527
68962SOL    HW1 8783  12.753   8.386  12.616
68962SOL    HW2 8784  12.799   8.404  12.473
68963SOL     OW 8785  10.037   9.587   2.657
68963SOL    HW1 8786   9.945   9.588   2.632
68963SOL    HW2 8787  10.036   9.601   2.752
68964SOL     OW 8788   4.413   8.721  11.942
68964SOL    HW1 8789   4.387   8.805  11.904
68964SOL    HW2 8790   4.331   8.680  11.971
68965SOL     OW 8791   9.789  13.476  12.428
68965SOL    HW1 8792   9.853  13.540  12.459
68965SOL    HW2 8793   9.798  13.401  12.487
68966SOL     OW 8794  13.865   7.655   6.581
68966SOL    HW1 8795  13.923   7.687   6.649
68966SOL    HW2 8796  13.808   7.729   6.561
68967SOL     OW 8797  14.376   6.082   3.993
68967SOL    HW1 8798  14.410   6.075   3.904
68967SOL    HW2 8799  14.432   6.024   4.044
68968SOL     OW 8800   7.953   3.871   7.882
68968SOL    HW1 8801   7.889   3.933   7.917
68968SOL    HW2 8802   7.900   3.799   7.848
68969SOL     OW 8803  13.472   6.011  10.524
68969SOL    HW1 8804  13.404   6.001  10.457
68969SOL    HW2 8805  13.516   6.093  10.501
68970SOL     OW 8806   9.101   0.287  14.026
68970SOL    HW1 8807   9.171   0.232  13.992
68970SOL    HW2 8808   9.133   0.316  14.112
68971SOL     OW 8809   1.529   6.470   9.944
68971SOL    HW1 8810   1.468   6.529   9.900
68971SOL    HW2 8811   1.520   6.387   9.897
68972SOL     OW 8812   9.316  11.851   4.306
68972SOL    HW1 8813   9.224  11.851   4.280
68972SOL    HW2 8814   9.315  11.832   4.400
68973SOL     OW 8815  13.007   6.630   3.835
68973SOL    HW1 8816  12.973   6.713   3.870
68973SOL    HW2 8817  12.960   6.620   3.751
68974SOL     OW 8818   1.144   0.668   5.607
68974SOL    HW1 8819   1.147   0.637   5.516
68974SOL    HW2 8820   1.110   0.757   5.601
68975SOL     OW 8821   8.589   6.465   8.833
68975SOL    HW1 8822   8.632   6.383   8.807
68975SOL    HW2 8823   8.643   6.534   8.793
68976SOL     OW 8824   9.214  10.754  12.650
68976SOL    HW1 8825   9.143  10.784  12.706
68976SOL    HW2 8826   9.239  10.830  12.598
68977SOL     OW 8827   6.772   7.801   2.101
68977SOL    HW1 8828   6.744   7.720   2.059
68977SOL    HW2 8829   6.732   7.798   2.188
68978SOL     OW 8830  12.318  10.516   5.686
68978SOL    HW1 8831  12.303  10.464   5.765
68978SOL    HW2 8832  12.324  10.450   5.616
68979SOL     OW 8833   6.318   8.647   1.192
68979SOL    HW1 8834   6.326   8.627   1.099
68979SOL    HW2 8835   6.406   8.632   1.227
68980SOL     OW 8836  14.792   5.801   9.477
68980SOL    HW1 8837  14.821   5.859   9.547
68980SOL    HW2 8838  14.697   5.801   9.483
68981SOL     OW 8839   0.027   3.706   1.741
68981SOL    HW1 8840   0.057   3.789   1.702
68981SOL    HW2 8841  14.804   3.721   1.759
68982SOL     OW 8842  12.257   1.305   3.082
68982SOL    HW1 8843  12.226   1.215   3.094
68982SOL    HW2 8844  12.352   1.299   3.091
68983SOL     OW 8845  14.151  11.675   2.812
68983SOL    HW1 8846  14.143  11.610   2.742
68983SOL    HW2 8847  14.101  11.750   2.780
68984SOL     OW 8848   5.292   5.870  14.773
68984SOL    HW1 8849   5.248   5.855  14.689
68984SOL    HW2 8850   5.312   5.964  14.772
68985SOL     OW 8851   8.519  12.526  11.082
68985SOL    HW1 8852   8.480  12.462  11.141
68985SOL    HW2 8853   8.457  12.532  11.009
68986SOL     OW 8854   8.352   0.325   4.071
68986SOL    HW1 8855   8.283   0.355   4.131
68986SOL    HW2 8856   8.421   0.392   4.079
68987SOL     OW 8857   0.330   8.706   9.786
68987SOL    HW1 8858   0.388   8.631   9.779
68987SOL    HW2 8859   0.319   8.720   9.880
68988SOL     OW 8860   1.799  12.043   3.856
68988SOL    HW1 8861   1.872  11.982   3.865
68988SOL    HW2 8862   1.752  12.013   3.779
68989SOL     OW 8863  11.627   9.793  12.221
68989SOL    HW1 8864  11.670   9.824  12.301
68989SOL    HW2 8865  11.691   9.734  12.181
68990SOL     OW 8866   0.130  10.124  13.255
68990SOL    HW1 8867   0.160  10.194  13.313
68990SOL    HW2 8868   0.209  10.074  13.235
68991SOL     OW 8869   2.757  10.296   9.310
68991SOL    HW1 8870   2.668  10.328   9.320
68991SOL    HW2 8871   2.808  10.372   9.283
68992SOL     OW 8872   7.199   6.877   0.153
68992SOL    HW1 8873   7.125   6.927   0.188
68992SOL    HW2 8874   7.191   6.887   0.058
68993SOL     OW 8875   5.941   4.921   9.652
68993SOL    HW1 8876   5.854   4.955   9.630
68993SOL    HW2 8877   5.926   4.860   9.724
68994SOL     OW 8878   5.896  11.551   0.083
68994SOL    HW1 8879   5.956  11.624   0.098
68994SOL    HW2 8880   5.837  11.582   0.013
68995SOL     OW 8881  13.254   7.090  11.214
68995SOL    HW1 8882  13.224   7.146  11.287
68995SOL    HW2 8883  13.187   7.101  11.147
68996SOL     OW 8884  13.616   4.278   4.655
68996SOL    HW1 8885  13.690   4.260   4.712
68996SOL    HW2 8886  13.656   4.298   4.570
68997SOL     OW 8887   0.766   0.452  10.221
68997SOL    HW1 8888   0.737   0.433  10.310
68997SOL    HW2 8889   0.686   0.456  10.170
68998SOL     OW 8890   2.294   0.576   1.145
68998SOL    HW1 8891   2.262   0.519   1.216
68998SOL    HW2 8892   2.326   0.654   1.190
68999SOL     OW 8893   3.370  11.297   4.581
68999SOL    HW1 8894   3.446  11.316   4.636
68999SOL    HW2 8895   3.350  11.205   4.597
69000SOL     OW 8896  11.917  13.965  13.648
69000SOL    HW1 8897  11.845  13.961  13.711
69000SOL    HW2 8898  11.906  14.049  13.605
69001SOL     OW 8899  14.408   0.496   7.951
69001SOL    HW1 8900  14.436   0.467   8.038
69001SOL    HW2 8901  14.314   0.480   7.950
69002SOL     OW 8902   0.494   1.980   1.548
69002SOL    HW1 8903   0.584   1.953   1.564
69002SOL    HW2 8904   0.487   1.986   1.453
69003SOL     OW 8905   5.716   7.476   3.514
69003SOL    HW1 8906   5.780   7.519   3.571
69003SOL    HW2 8907   5.759   7.395   3.486
69004SOL     OW 8908   6.327  13.613  13.806
69004SOL    HW1 8909   6.373  13.639  13.726
69004SOL    HW2 8910   6.235  13.612  13.781
69005SOL     OW 8911   7.290  14.514  11.831
69005SOL    HW1 8912   7.364  14.479  11.881
69005SOL    HW2 8913   7.328  14.586  11.780
69006SOL     OW 8914  10.901   6.819   3.974
69006SOL    HW1 8915  10.966   6.761   3.934
69006SOL    HW2 8916  10.841   6.761   4.020
69007SOL     OW 8917   2.225  13.661   5.094
69007SOL    HW1 8918   2.267  13.575   5.096
69007SOL    HW2 8919   2.298  13.723   5.091
69008SOL     OW 8920   7.723  11.086   6.043
69008SOL    HW1 8921   7.733  11.100   6.137
69008SOL    HW2 8922   7.754  10.996   6.029
69009SOL     OW 8923   5.423   7.963   9.858
69009SOL    HW1 8924   5.409   8.033   9.794
69009SOL    HW2 8925   5.336   7.931   9.879
69010SOL     OW 8926   1.192   9.442   7.473
69010SOL    HW1 8927   1.167   9.376   7.537
69010SOL    HW2 8928   1.272   9.481   7.508
69011SOL     OW 8929   4.838   5.599   8.748
69011SOL    HW1 8930   4.895   5.614   8.673
69011SOL    HW2 8931   4.751   5.586   8.710
69012SOL     OW 8932   7.325   5.824  10.501
69012SOL    HW1 8933   7.404   5.813  10.448
69012SOL    HW2 8934   7.341   5.904  10.550
69013SOL     OW 8935   9.029   6.631   5.018
69013SOL    HW1 8936   9.062   6.544   4.994
69013SOL    HW2 8937   9.047   6.638   5.112
69014SOL     OW 8938   9.675   4.271  12.847
69014SOL    HW1 8939   9.755   4.231  12.812
69014SOL    HW2 8940   9.705   4.323  12.921
69015SOL     OW 8941   9.084   2.163   4.074
69015SOL    HW1 8942   9.030   2.194   4.001
69015SOL    HW2 8943   9.106   2.073   4.051
69016SOL     OW 8944   8.704  12.087   3.740
69016SOL    HW1 8945   8.709  11.992   3.752
69016SOL    HW2 8946   8.794  12.115   3.725
69017SOL     OW 8947  14.307  14.790   5.923
69017SOL    HW1 8948  14.349  14.718   5.971
69017SOL    HW2 8949  14.379  14.848   5.901
69018SOL     OW 8950  12.071   8.123  11.757
69018SOL    HW1 8951  12.079   8.051  11.694
69018SOL    HW2 8952  11.989   8.166  11.735
69019SOL     OW 8953   0.335  10.145  10.921
69019SOL    HW1 8954   0.421  10.185  10.911
69019SOL    HW2 8955   0.348  10.071  10.980
69020SOL     OW 8956  13.369   1.835   5.975
69020SOL    HW1 8957  13.278   1.815   6.000
69020SOL    HW2 8958  13.365   1.848   5.880
69021SOL     OW 8959   7.009  11.242   1.783
69021SOL    HW1 8960   6.988  11.215   1.693
69021SOL    HW2 8961   7.068  11.317   1.771
69022SOL     OW 8962   8.180  11.903   4.444
69022SOL    HW1 8963   8.136  11.929   4.363
69022SOL    HW2 8964   8.274  11.908   4.423
69023SOL     OW 8965   6.423   8.190   2.300
69023SOL    HW1 8966   6.361   8.239   2.353
69023SOL    HW2 8967   6.404   8.216   2.210
69024SOL     OW 8968   5.635   2.791   1.756
69024SOL    HW1 8969   5.621   2.822   1.667
69024SOL    HW2 8970   5.561   2.824   1.806
69025SOL     OW 8971  14.001  13.091   0.118
69025SOL    HW1 8972  13.998  13.052   0.205
69025SOL    HW2 8973  14.035  13.179   0.131
69026SOL     OW 8974   5.782   2.546   8.640
69026SOL    HW1 8975   5.722   2.619   8.627
69026SOL    HW2 8976   5.726   2.468   8.640
69027SOL     OW 8977   6.360   7.903  12.303
69027SOL    HW1 8978   6.335   7.827  12.356
69027SOL    HW2 8979   6.283   7.959  12.304
69028SOL     OW 8980  13.316   1.291  12.276
69028SOL    HW1 8981  13.314   1.315  12.184
69028SOL    HW2 8982  13.297   1.372  12.323
69029SOL     OW 8983   8.422   5.018   5.672
69029SOL    HW1 8984   8.327   5.008   5.679
69029SOL    HW2 8985   8.443   4.983   5.586
69030SOL     OW 8986   1.097   9.546  10.515
69030SOL    HW1 8987   1.083   9.480  10.447
69030SOL    HW2 8988   1.018   9.601  10.510
69031SOL     OW 8989   4.587   2.163   1.046
69031SOL    HW1 8990   4.503   2.206   1.063
69031SOL    HW2 8991   4.652   2.231   1.064
69032SOL     OW 8992   0.126   4.473   2.265
69032SOL    HW1 8993   0.129   4.546   2.327
69032SOL    HW2 8994   0.207   4.482   2.214
69033SOL     OW 8995   3.502   6.076  10.337
69033SOL    HW1 8996   3.468   5.988  10.350
69033SOL    HW2 8997   3.496   6.117  10.424
69034SOL     OW 8998  12.774  12.499   4.594
69034SOL    HW1 8999  12.866  12.493   4.620
69034SOL    HW2 9000  12.758  12.593   4.584
69035SOL     OW 9001  11.920  12.273   8.885
69035SOL    HW1 9002  11.827  12.290   8.871
69035SOL    HW2 9003  11.945  12.212   8.816
69036SOL     OW 9004  10.286   5.222   5.799
69036SOL    HW1 9005  10.213   5.252   5.853
69036SOL    HW2 9006  10.262   5.247   5.710
69037SOL     OW 9007   6.766   4.180   6.499
69037SOL    HW1 9008   6.845   4.144   6.538
69037SOL    HW2 9009   6.774   4.275   6.511
69038SOL     OW 9010   6.056   9.047   5.824
69038SOL    HW1 9011   6.070   8.996   5.904
69038SOL    HW2 9012   6.066   8.983   5.753
69039SOL     OW 9013   3.601   9.213   5.039
69039SOL    HW1 9014   3.653   9.233   5.117
69039SOL    HW2 9015   3.574   9.298   5.005
69040SOL     OW 9016   1.732   4.527  12.957
69040SOL    HW1 9017   1.709   4.438  12.982
69040SOL    HW2 9018   1.814   4.518  12.907
69041SOL     OW 9019   0.388   3.672  13.166
69041SOL    HW1 9020   0.357   3.648  13.254
69041SOL    HW2 9021   0.458   3.734  13.182
69042SOL     OW 9022   3.945  11.272   4.526
69042SOL    HW1 9023   3.911  11.319   4.450
69042SOL    HW2 9024   3.954  11.181   4.496
69043SOL     OW 9025  12.985   1.838  11.251
69043SOL    HW1 9026  12.940   1.904  11.304
69043SOL    HW2 9027  12.986   1.875  11.162
69044SOL     OW 9028   5.753   2.758   6.420
69044SOL    HW1 9029   5.827   2.795   6.372
69044SOL    HW2 9030   5.676   2.795   6.377
69045SOL     OW 9031   9.851  10.176  11.105
69045SOL    HW1 9032   9.913  10.123  11.155
69045SOL    HW2 9033   9.886  10.265  11.111
69046SOL     OW 9034   6.254   8.396   4.560
69046SOL    HW1 9035   6.193   8.399   4.486
69046SOL    HW2 9036   6.308   8.474   4.548
69047SOL     OW 9037  14.584  14.736   3.955
69047SOL    HW1 9038  14.590  14.790   3.876
69047SOL    HW2 9039  14.641  14.661   3.936
69048SOL     OW 9040  13.907  12.567   0.073
69048SOL    HW1 9041  13.848  12.496   0.050
69048SOL    HW2 9042  13.958  12.583  14.863
69049SOL     OW 9043  12.069  14.586  12.398
69049SOL    HW1 9044  11.991  14.598  12.453
69049SOL    HW2 9045  12.052  14.505  12.350
69050SOL     OW 9046   1.677  10.250  11.871
69050SOL    HW1 9047   1.739  10.318  11.842
69050SOL    HW2 9048   1.598  10.299  11.895
69051SOL     OW 9049   1.947   3.133  14.271
69051SOL    HW1 9050   1.854   3.149  14.292
69051SOL    HW2 9051   1.945   3.077  14.194
69052SOL     OW 9052   3.195  12.553   5.830
69052SOL    HW1 9053   3.142  12.503   5.892
69052SOL    HW2 9054   3.228  12.489   5.768
69053SOL     OW 9055   0.564  13.240   4.213
69053SOL    HW1 9056   0.478  13.243   4.171
69053SOL    HW2 9057   0.615  13.306   4.166
69054SOL     OW 9058  13.606  14.466   0.982
69054SOL    HW1 9059  13.571  14.419   0.907
69054SOL    HW2 9060  13.700  14.471   0.965
69055SOL     OW 9061   9.481   5.616   2.011
69055SOL    HW1 9062   9.452   5.615   2.102
69055SOL    HW2 9063   9.549   5.684   2.007
69056SOL     OW 9064   8.589   4.291   8.669
69056SOL    HW1 9065   8.506   4.318   8.629
69056SOL    HW2 9066   8.637   4.248   8.599
69057SOL     OW 9067   1.312   5.672  14.034
69057SOL    HW1 9068   1.405   5.659  14.050
69057SOL    HW2 9069   1.308   5.738  13.964
69058SOL     OW 9070   5.326   3.428   0.272
69058SOL    HW1 9071   5.344   3.381   0.354
69058SOL    HW2 9072   5.273   3.367   0.221
69059SOL     OW 9073  11.675   1.661  10.208
69059SOL    HW1 9074  11.760   1.683  10.246
69059SOL    HW2 9075  11.664   1.725  10.137
69060SOL     OW 9076   6.675  12.177   7.759
69060SOL    HW1 9077   6.768  12.196   7.753
69060SOL    HW2 9078   6.645  12.227   7.835
69061SOL     OW 9079   6.725   0.408  12.501
69061SOL    HW1 9080   6.717   0.325  12.549
69061SOL    HW2 9081   6.666   0.468  12.547
69062SOL     OW 9082  11.962   3.024  11.772
69062SOL    HW1 9083  11.920   2.939  11.758
69062SOL    HW2 9084  11.906   3.086  11.725
69063SOL     OW 9085   4.503   4.081  13.487
69063SOL    HW1 9086   4.498   4.173  13.461
69063SOL    HW2 9087   4.521   4.083  13.581
69064SOL     OW 9088   4.861   4.410   0.325
69064SOL    HW1 9089   4.942   4.400   0.375
69064SOL    HW2 9090   4.817   4.326   0.333
69065SOL     OW 9091   0.247   5.765  10.330
69065SOL    HW1 9092   0.256   5.672  10.309
69065SOL    HW2 9093   0.155   5.775  10.355
69066SOL     OW 9094   0.909  10.893   1.126
69066SOL    HW1 9095   0.994  10.909   1.167
69066SOL    HW2 9096   0.895  10.968   1.069
69067SOL     OW 9097   1.924   8.913   7.536
69067SOL    HW1 9098   1.904   8.820   7.546
69067SOL    HW2 9099   2.019   8.918   7.545
69068SOL     OW 9100   3.885   0.912   8.513
69068SOL    HW1 9101   3.931   0.928   8.430
69068SOL    HW2 9102   3.946   0.942   8.580
69069SOL     OW 9103   8.017   2.542  13.120
69069SOL    HW1 9104   8.084   2.475  13.107
69069SOL    HW2 9105   8.061   2.609  13.173
69070SOL     OW 9106   6.718  12.363  10.872
69070SOL    HW1 9107   6.664  12.313  10.810
69070SOL    HW2 9108   6.767  12.423  10.817
69071SOL     OW 9109  11.037  10.993   0.364
69071SOL    HW1 9110  10.972  11.063   0.373
69071SOL    HW2 9111  11.005  10.939   0.292
69072SOL     OW 9112   1.277   6.296   1.534
69072SOL    HW1 9113   1.243   6.318   1.448
69072SOL    HW2 9114   1.214   6.232   1.569
69073SOL     OW 9115   5.695   6.483   5.345
69073SOL    HW1 9116   5.632   6.542   5.305
69073SOL    HW2 9117   5.736   6.438   5.271
69074SOL     OW 9118   0.296  12.124  11.549
69074SOL    HW1 9119   0.334  12.197  11.597
69074SOL    HW2 9120   0.202  12.140  11.552
69075SOL     OW 9121   9.488   2.547   3.949
69075SOL    HW1 9122   9.465   2.536   4.041
69075SOL    HW2 9123   9.434   2.482   3.903
69076SOL     OW 9124   7.283   3.863   9.211
69076SOL    HW1 9125   7.314   3.953   9.212
69076SOL    HW2 9126   7.188   3.870   9.198
69077SOL     OW 9127   9.899   7.830  11.250
69077SOL    HW1 9128   9.935   7.742  11.236
69077SOL    HW2 9129   9.974   7.888  11.240
69078SOL     OW 9130   2.514   0.766   7.441
69078SOL    HW1 9131   2.471   0.848   7.415
69078SOL    HW2 9132   2.607   0.780   7.420
69079SOL     OW 9133   4.060   1.240   6.475
69079SOL    HW1 9134   4.121   1.281   6.536
69079SOL    HW2 9135   4.014   1.174   6.527
69080SOL     OW 9136   0.217   3.431  14.068
69080SOL    HW1 9137   0.278   3.486  14.019
69080SOL    HW2 9138   0.213   3.350  14.018
69081SOL     OW 9139   8.871   0.367  10.797
69081SOL    HW1 9140   8.894   0.276  10.818
69081SOL    HW2 9141   8.858   0.367  10.703
69082SOL     OW 9142   9.954   9.286  12.786
69082SOL    HW1 9143   9.938   9.194  12.762
69082SOL    HW2 9144  10.049   9.292  12.796
69083SOL     OW 9145   2.941   8.636  13.963
69083SOL    HW1 9146   2.877   8.677  14.022
69083SOL    HW2 9147   2.954   8.701  13.894
69084SOL     OW 9148   5.308   6.613  11.117
69084SOL    HW1 9149   5.336   6.704  11.126
69084SOL    HW2 9150   5.268   6.608  11.031
69085SOL     OW 9151  12.809  11.053   5.729
69085SOL    HW1 9152  12.876  11.101   5.681
69085SOL    HW2 9153  12.763  11.119   5.780
69086SOL     OW 9154   2.511   1.049   2.505
69086SOL    HW1 9155   2.422   1.070   2.477
69086SOL    HW2 9156   2.566   1.072   2.430
69087SOL     OW 9157   2.846   7.984  13.788
69087SOL    HW1 9158   2.930   7.966  13.830
69087SOL    HW2 9159   2.868   7.999  13.696
69088SOL     OW 9160  14.417  11.205   7.620
69088SOL    HW1 9161  14.367  11.124   7.609
69088SOL    HW2 9162  14.358  11.264   7.667
69089SOL     OW 9163   3.158  12.430   7.375
69089SOL    HW1 9164   3.117  12.406   7.458
69089SOL    HW2 9165   3.217  12.502   7.397
69090SOL     OW 9166   2.555   3.195   2.279
69090SOL    HW1 9167   2.637   3.232   2.247
69090SOL    HW2 9168   2.502   3.184   2.200
69091SOL     OW 9169  10.320   3.030  10.861
69091SOL    HW1 9170  10.348   2.964  10.924
69091SOL    HW2 9171  10.396   3.042  10.804
69092SOL     OW 9172   3.094   3.890  10.735
69092SOL    HW1 9173   3.031   3.946  10.781
69092SOL    HW2 9174   3.153   3.950  10.690
69093SOL     OW 9175  13.940   5.899   5.018
69093SOL    HW1 9176  13.859   5.937   5.054
69093SOL    HW2 9177  13.910   5.819   4.973
69094SOL     OW 9178  14.520  12.159   0.333
69094SOL    HW1 9179  14.572  12.181   0.410
69094SOL    HW2 9180  14.537  12.230   0.271
69095SOL     OW 9181   8.757   3.938   4.434
69095SOL    HW1 9182   8.802   3.903   4.511
69095SOL    HW2 9183   8.705   3.864   4.402
69096SOL     OW 9184  13.126   3.158  12.387
69096SOL    HW1 9185  13.160   3.070  12.406
69096SOL    HW2 9186  13.052   3.143  12.328
69097SOL     OW 9187   5.995  14.396   4.198
69097SOL    HW1 9188   6.063  14.345   4.154
69097SOL    HW2 9189   5.931  14.331   4.228
69098SOL     OW 9190   5.399  10.272  12.199
69098SOL    HW1 9191   5.394  10.249  12.107
69098SOL    HW2 9192   5.309  10.293  12.224
69099SOL     OW 9193   4.949   3.457  11.981
69099SOL    HW1 9194   4.926   3.376  11.936
69099SOL    HW2 9195   4.865   3.497  12.003
69100SOL     OW 9196  14.669   9.102   2.116
69100SOL    HW1 9197  14.698   9.019   2.153
69100SOL    HW2 9198  14.659   9.085   2.022
69101SOL     OW 9199   6.225   5.913   1.875
69101SOL    HW1 9200   6.169   5.959   1.812
69101SOL    HW2 9201   6.302   5.887   1.824
69102SOL     OW 9202  10.239   7.244   9.965
69102SOL    HW1 9203  10.213   7.319  10.018
69102SOL    HW2 9204  10.326   7.267   9.931
69103SOL     OW 9205   2.681   1.371  10.566
69103SOL    HW1 9206   2.710   1.313  10.636
69103SOL    HW2 9207   2.761   1.393  10.518
69104SOL     OW 9208   9.985   8.140   9.247
69104SOL    HW1 9209   9.898   8.107   9.267
69104SOL    HW2 9210  10.045   8.085   9.297
69105SOL     OW 9211   7.870   8.905   5.519
69105SOL    HW1 9212   7.950   8.940   5.480
69105SOL    HW2 9213   7.887   8.810   5.526
69106SOL     OW 9214   7.590   9.893  10.724
69106SOL    HW1 9215   7.509   9.927  10.686
69106SOL    HW2 9216   7.598   9.804  10.689
69107SOL     OW 9217   7.440   0.754   7.247
69107SOL    HW1 9218   7.420   0.819   7.314
69107SOL    HW2 9219   7.426   0.669   7.290
69108SOL     OW 9220   9.291  10.726   0.893
69108SOL    HW1 9221   9.291  10.640   0.851
69108SOL    HW2 9222   9.284  10.707   0.987
69109SOL     OW 9223  13.710   6.409   2.567
69109SOL    HW1 9224  13.701   6.493   2.611
69109SOL    HW2 9225  13.792   6.373   2.599
69110SOL     OW 9226   7.969  11.077   9.330
69110SOL    HW1 9227   7.938  11.167   9.323
69110SOL    HW2 9228   7.968  11.044   9.240
69111SOL     OW 9229   4.192   7.119   2.242
69111SOL    HW1 9230   4.279   7.099   2.276
69111SOL    HW2 9231   4.173   7.047   2.181
69112SOL     OW 9232   7.566   9.148   3.118
69112SOL    HW1 9233   7.614   9.145   3.201
69112SOL    HW2 9234   7.474   9.143   3.143
69113SOL     OW 9235   9.619  10.676   6.554
69113SOL    HW1 9236   9.577  10.593   6.531
69113SOL    HW2 9237   9.596  10.735   6.482
69114SOL     OW 9238   4.439   4.673   4.767
69114SOL    HW1 9239   4.380   4.741   4.800
69114SOL    HW2 9240   4.407   4.654   4.679
69115SOL     OW 9241  11.353   2.488  14.603
69115SOL    HW1 9242  11.438   2.466  14.640
69115SOL    HW2 9243  11.370   2.561  14.543
69116SOL     OW 9244   3.990   0.587   4.789
69116SOL    HW1 9245   3.899   0.592   4.759
69116SOL    HW2 9246   3.997   0.502   4.831
69117SOL     OW 9247  10.632  12.611   0.714
69117SOL    HW1 9248  10.633  12.525   0.671
69117SOL    HW2 9249  10.679  12.669   0.654
69118SOL     OW 9250   5.981   2.763   9.749
69118SOL    HW1 9251   5.996   2.846   9.705
69118SOL    HW2 9252   5.967   2.786   9.841
69119SOL     OW 9253   0.992   5.527  13.532
69119SOL    HW1 9254   0.999   5.622  13.544
69119SOL    HW2 9255   0.915   5.515  13.477
69120SOL     OW 9256   1.738   2.001  12.362
69120SOL    HW1 9257   1.827   2.020  12.332
69120SOL    HW2 9258   1.692   1.970  12.284
69121SOL     OW 9259   9.508   2.021   6.065
69121SOL    HW1 9260   9.441   1.977   6.011
69121SOL    HW2 9261   9.516   1.965   6.142
69122SOL     OW 9262   6.703  10.931   3.032
69122SOL    HW1 9263   6.773  10.904   2.973
69122SOL    HW2 9264   6.623  10.921   2.981
69123SOL     OW 9265  13.354   7.859   8.304
69123SOL    HW1 9266  13.292   7.932   8.298
69123SOL    HW2 9267  13.299   7.781   8.309
69124SOL     OW 9268  10.381   5.123  12.952
69124SOL    HW1 9269  10.343   5.038  12.931
69124SOL    HW2 9270  10.452   5.103  13.013
69125SOL     OW 9271   6.949   8.943   0.470
69125SOL    HW1 9272   7.034   8.898   0.472
69125SOL    HW2 9273   6.893   8.887   0.417
69126SOL     OW 9274   5.401  10.684   2.695
69126SOL    HW1 9275   5.451  10.603   2.699
69126SOL    HW2 9276   5.457  10.745   2.646
69127SOL     OW 9277   2.050   1.593   8.463
69127SOL    HW1 9278   2.004   1.621   8.384
69127SOL    HW2 9279   2.134   1.559   8.431
69128SOL     OW 9280  11.616  10.074  13.983
69128SOL    HW1 9281  11.546  10.067  13.918
69128SOL    HW2 9282  11.670   9.996  13.969
69129SOL     OW 9283   1.914  13.994   0.067
69129SOL    HW1 9284   1.870  14.028  14.859
69129SOL    HW2 9285   1.935  13.903   0.045
69130SOL     OW 9286   6.343   4.300   8.801
69130SOL    HW1 9287   6.398   4.222   8.807
69130SOL    HW2 9288   6.253   4.266   8.810
69131SOL     OW 9289   3.462   1.012  14.061
69131SOL    HW1 9290   3.494   1.021  14.151
69131SOL    HW2 9291   3.494   0.926  14.033
69132SOL     OW 9292   9.780  10.161  13.096
69132SOL    HW1 9293   9.715  10.231  13.085
69132SOL    HW2 9294   9.750  10.091  13.038
69133SOL     OW 9295   4.120   9.082   2.115
69133SOL    HW1 9296   4.092   9.055   2.202
69133SOL    HW2 9297   4.057   9.149   2.089
69134SOL     OW 9298  13.271  14.568  14.539
69134SOL    HW1 9299  13.268  14.522  14.623
69134SOL    HW2 9300  13.297  14.657  14.561
69135SOL     OW 9301   5.783  13.568  13.989
69135SOL    HW1 9302   5.821  13.655  13.981
69135SOL    HW2 9303   5.688  13.582  13.984
69136SOL     OW 9304  13.879  10.055   0.421
69136SOL    HW1 9305  13.880   9.960   0.432
69136SOL    HW2 9306  13.962  10.075   0.377
69137SOL     OW 9307   9.909   2.258   0.363
69137SOL    HW1 9308   9.951   2.335   0.401
69137SOL    HW2 9309   9.977   2.216   0.311
69138SOL     OW 9310   9.404   4.187   6.209
69138SOL    HW1 9311   9.402   4.156   6.118
69138SOL    HW2 9312   9.399   4.282   6.202
69139SOL     OW 9313   8.028   9.262   5.891
69139SOL    HW1 9314   7.994   9.225   5.810
69139SOL    HW2 9315   8.041   9.187   5.948
69140SOL     OW 9316   7.468   9.063  13.770
69140SOL    HW1 9317   7.546   9.117  13.785
69140SOL    HW2 9318   7.488   9.014  13.690
69141SOL     OW 9319  13.672   8.854   8.885
69141SOL    HW1 9320  13.642   8.866   8.795
69141SOL    HW2 9321  13.592   8.837   8.935
69142SOL     OW 9322   7.952   2.666   5.837
69142SOL    HW1 9323   7.919   2.743   5.790
69142SOL    HW2 9324   8.035   2.695   5.875
69143SOL     OW 9325   2.254  14.277   9.636
69143SOL    HW1 9326   2.303  14.229   9.704
69143SOL    HW2 9327   2.316  14.343   9.605
69144SOL     OW 9328   3.144   2.547   5.683
69144SOL    HW1 9329   3.051   2.557   5.664
69144SOL    HW2 9330   3.157   2.452   5.689
69145SOL     OW 9331   9.318   0.924  11.949
69145SOL    HW1 9332   9.351   0.932  12.038
69145SOL    HW2 9333   9.245   0.863  11.956
69146SOL     OW 9334   6.128   2.351  11.132
69146SOL    HW1 9335   6.156   2.416  11.196
69146SOL    HW2 9336   6.085   2.283  11.184
69147SOL     OW 9337  14.494   2.117   0.006
69147SOL    HW1 9338  14.516   2.088   0.095
69147SOL    HW2 9339  14.480   2.036  14.827
69148SOL     OW 9340   8.756   2.224   8.422
69148SOL    HW1 9341   8.813   2.148   8.428
69148SOL    HW2 9342   8.690   2.210   8.490
69149SOL     OW 9343   4.638  13.200   0.912
69149SOL    HW1 9344   4.702  13.196   0.841
69149SOL    HW2 9345   4.658  13.282   0.957
69150SOL     OW 9346   8.708   4.695  14.574
69150SOL    HW1 9347   8.765   4.751  14.628
69150SOL    HW2 9348   8.748   4.608  14.579
69151SOL     OW 9349   5.919   4.919   1.042
69151SOL    HW1 9350   5.901   5.005   1.079
69151SOL    HW2 9351   5.888   4.924   0.952
69152SOL     OW 9352  14.661  14.354  14.666
69152SOL    HW1 9353  14.669  14.264  14.636
69152SOL    HW2 9354  14.731  14.401  14.621
69153SOL     OW 9355   2.835  10.344   2.238
69153SOL    HW1 9356   2.856  10.413   2.301
69153SOL    HW2 9357   2.855  10.382   2.153
69154SOL     OW 9358  14.522   3.998   4.562
69154SOL    HW1 9359  14.453   4.063   4.569
69154SOL    HW2 9360  14.602   4.045   4.585
69155SOL     OW 9361  13.339   5.096   4.721
69155SOL    HW1 9362  13.312   5.151   4.648
69155SOL    HW2 9363  13.297   5.012   4.705
69156SOL     OW 9364  12.208   6.497   4.725
69156SOL    HW1 9365  12.188   6.412   4.763
69156SOL    HW2 9366  12.140   6.556   4.759
69157SOL     OW 9367   4.138   8.959   5.031
69157SOL    HW1 9368   4.135   8.888   4.968
69157SOL    HW2 9369   4.194   8.927   5.102
69158SOL     OW 9370   6.616  14.175  10.065
69158SOL    HW1 9371   6.673  14.251  10.076
69158SOL    HW2 9372   6.565  14.172  10.145
69159SOL     OW 9373  12.521   3.914   6.840
69159SOL    HW1 9374  12.592   3.886   6.782
69159SOL    HW2 9375  12.565   3.955   6.914
69160SOL     OW 9376   9.173   4.012   7.194
69160SOL    HW1 9377   9.145   3.947   7.129
69160SOL    HW2 9378   9.100   4.074   7.198
69161SOL     OW 9379   8.155   6.847  12.279
69161SOL    HW1 9380   8.180   6.755  12.287
69161SOL    HW2 9381   8.220   6.894  12.332
69162SOL     OW 9382   9.731   6.488   1.125
69162SOL    HW1 9383   9.781   6.517   1.049
69162SOL    HW2 9384   9.640   6.492   1.096
69163SOL     OW 9385   5.106  13.593   3.218
69163SOL    HW1 9386   5.105  13.688   3.201
69163SOL    HW2 9387   5.014  13.570   3.230
69164SOL     OW 9388  11.506   9.285   5.988
69164SOL    HW1 9389  11.565   9.225   5.941
69164SOL    HW2 9390  11.564   9.347   6.031
69165SOL     OW 9391  14.090  12.388   5.769
69165SOL    HW1 9392  14.016  12.328   5.777
69165SOL    HW2 9393  14.056  12.472   5.803
69166SOL     OW 9394  12.321   5.040  13.790
69166SOL    HW1 9395  12.352   5.009  13.705
69166SOL    HW2 9396  12.333   4.965  13.849
69167SOL     OW 9397  10.172  11.160  11.096
69167SOL    HW1 9398  10.132  11.121  11.174
69167SOL    HW2 9399  10.223  11.089  11.057
69168SOL     OW 9400   2.567  13.606  13.699
69168SOL    HW1 9401   2.515  13.637  13.773
69168SOL    HW2 9402   2.612  13.684  13.667
69169SOL     OW 9403   6.823   2.582   1.501
69169SOL    HW1 9404   6.879   2.521   1.549
69169SOL    HW2 9405   6.740   2.535   1.492
69170SOL     OW 9406   0.015   0.837  13.123
69170SOL    HW1 9407  14.846   0.887  13.195
69170SOL    HW2 9408  14.841   0.870  13.044
69171SOL     OW 9409  12.887   0.758   4.973
69171SOL    HW1 9410  12.796   0.747   5.002
69171SOL    HW2 9411  12.922   0.669   4.973
69172SOL     OW 9412   2.927   0.623   7.767
69172SOL    HW1 9413   2.906   0.559   7.699
69172SOL    HW2 9414   3.023   0.632   7.763
69173SOL     OW 9415  12.569   4.115   0.172
69173SOL    HW1 9416  12.479   4.109   0.142
69173SOL    HW2 9417  12.606   4.190   0.125
69174SOL     OW 9418   0.267   6.850  10.018
69174SOL    HW1 9419   0.177   6.878  10.038
69174SOL    HW2 9420   0.322   6.904  10.075
69175SOL     OW 9421   9.981   7.486   3.342
69175SOL    HW1 9422   9.911   7.497   3.278
69175SOL    HW2 9423   9.941   7.508   3.426
69176SOL     OW 9424   9.156   0.097   1.023
69176SOL    HW1 9425   9.172   0.020   0.967
69176SOL    HW2 9426   9.159   0.171   0.962
69177SOL     OW 9427  14.108   6.795   8.112
69177SOL    HW1 9428  14.072   6.797   8.023
69177SOL    HW2 9429  14.040   6.753   8.165
69178SOL     OW 9430   1.597   6.086  10.510
69178SOL    HW1 9431   1.665   6.028  10.475
69178SOL    HW2 9432   1.630   6.174  10.493
69179SOL     OW 9433   1.953   5.736  13.103
69179SOL    HW1 9434   2.010   5.773  13.171
69179SOL    HW2 9435   1.999   5.753  13.021
69180SOL     OW 9436  14.502  13.698   8.261
69180SOL    HW1 9437  14.488  13.702   8.166
69180SOL    HW2 9438  14.575  13.758   8.277
69181SOL     OW 9439   1.973   1.314   6.072
69181SOL    HW1 9440   1.961   1.223   6.102
69181SOL    HW2 9441   1.930   1.367   6.139
69182SOL     OW 9442   6.973  14.393   7.915
69182SOL    HW1 9443   6.989  14.309   7.958
69182SOL    HW2 9444   6.992  14.458   7.982
69183SOL     OW 9445   0.422  14.485  10.774
69183SOL    HW1 9446   0.496  14.457  10.827
69183SOL    HW2 9447   0.462  14.522  10.695
69184SOL     OW 9448  13.079   6.466   0.278
69184SOL    HW1 9449  13.028   6.543   0.253
69184SOL    HW2 9450  13.073   6.463   0.374
69185SOL     OW 9451   7.293   6.031   6.234
69185SOL    HW1 9452   7.234   6.077   6.293
69185SOL    HW2 9453   7.339   5.968   6.289
69186SOL     OW 9454   4.502   4.499  12.453
69186SOL    HW1 9455   4.447   4.550  12.511
69186SOL    HW2 9456   4.524   4.559  12.381
69187SOL     OW 9457   8.650   7.640  13.699
69187SOL    HW1 9458   8.614   7.706  13.640
69187SOL    HW2 9459   8.584   7.632  13.768
69188SOL     OW 9460  10.177   9.282   2.715
69188SOL    HW1 9461  10.122   9.361   2.710
69188SOL    HW2 9462  10.195   9.272   2.808
69189SOL     OW 9463   8.817  10.504   4.296
69189SOL    HW1 9464   8.834  10.411   4.306
69189SOL    HW2 9465   8.785  10.513   4.206
69190SOL     OW 9466   3.075   7.153  13.798
69190SOL    HW1 9467   3.158   7.107  13.787
69190SOL    HW2 9468   3.009   7.091  13.767
69191SOL     OW 9469   3.590  14.176   7.822
69191SOL    HW1 9470   3.650  14.101   7.825
69191SOL    HW2 9471   3.646  14.252   7.836
69192SOL     OW 9472   4.615   0.493  13.656
69192SOL    HW1 9473   4.710   0.481  13.662
69192SOL    HW2 9474   4.600   0.579  13.695
69193SOL     OW 9475  10.602   1.395   2.624
69193SOL    HW1 9476  10.678   1.452   2.634
69193SOL    HW2 9477  10.603   1.339   2.702
69194SOL     OW 9478   4.331   1.534   7.046
69194SOL    HW1 9479   4.411   1.486   7.070
69194SOL    HW2 9480   4.346   1.623   7.076
69195SOL     OW 9481   5.512   7.497   2.999
69195SOL    HW1 9482   5.533   7.492   3.093
69195SOL    HW2 9483   5.595   7.479   2.955
69196SOL     OW 9484   3.513   8.844   6.162
69196SOL    HW1 9485   3.600   8.842   6.202
69196SOL    HW2 9486   3.529   8.842   6.067
69197SOL     OW 9487   3.273   4.084  14.770
69197SOL    HW1 9488   3.354   4.043  14.739
69197SOL    HW2 9489   3.206   4.054  14.709
69198SOL     OW 9490  11.096  12.615   8.779
69198SOL    HW1 9491  11.157  12.567   8.723
69198SOL    HW2 9492  11.150  12.682   8.821
69199SOL     OW 9493  13.385  12.729   3.392
69199SOL    HW1 9494  13.444  12.797   3.361
69199SOL    HW2 9495  13.326  12.774   3.453
69200SOL     OW 9496   6.403   0.593  12.578
69200SOL    HW1 9497   6.385   0.502  12.554
69200SOL    HW2 9498   6.325   0.620  12.628
69201SOL     OW 9499  14.031   1.388   0.146
69201SOL    HW1 9500  14.100   1.454   0.140
69201SOL    HW2 9501  14.011   1.368   0.055
69202SOL     OW 9502  13.771   2.960   0.476
69202SOL    HW1 9503  13.829   2.940   0.402
69202SOL    HW2 9504  13.689   2.916   0.455
69203SOL     OW 9505   0.401   3.416   5.628
69203SOL    HW1 9506   0.438   3.498   5.660
69203SOL    HW2 9507   0.474   3.370   5.586
69204SOL     OW 9508   9.838   3.237   8.922
69204SOL    HW1 9509   9.844   3.279   8.836
69204SOL    HW2 9510   9.902   3.166   8.919
69205SOL     OW 9511  14.684   1.655  13.965
69205SOL    HW1 9512  14.768   1.673  14.006
69205SOL    HW2 9513  14.638   1.599  14.028
69206SOL     OW 9514   0.539   8.058   3.753
69206SOL    HW1 9515   0.537   8.010   3.836
69206SOL    HW2 9516   0.604   8.126   3.766
69207SOL     OW 9517   4.304  14.378  12.683
69207SOL    HW1 9518   4.361  14.448  12.651
69207SOL    HW2 9519   4.259  14.346  12.605
69208SOL     OW 9520  13.935  11.277   3.215
69208SOL    HW1 9521  13.974  11.338   3.152
69208SOL    HW2 9522  13.864  11.326   3.255
69209SOL     OW 9523   0.318   1.306  14.582
69209SOL    HW1 9524   0.280   1.218  14.578
69209SOL    HW2 9525   0.392   1.304  14.522
69210SOL     OW 9526  10.622   0.916  13.915
69210SOL    HW1 9527  10.569   0.867  13.978
69210SOL    HW2 9528  10.704   0.868  13.910
69211SOL     OW 9529  10.352   0.867  12.638
69211SOL    HW1 9530  10.413   0.904  12.703
69211SOL    HW2 9531  10.374   0.774  12.636
69212SOL     OW 9532   7.154   9.084  11.801
69212SOL    HW1 9533   7.172   9.178  11.812
69212SOL    HW2 9534   7.218   9.055  11.736
69213SOL     OW 9535   8.530   8.274   4.282
69213SOL    HW1 9536   8.442   8.291   4.248
69213SOL    HW2 9537   8.575   8.231   4.209
69214SOL     OW 9538   1.309   2.553   8.342
69214SOL    HW1 9539   1.273   2.634   8.307
69214SOL    HW2 9540   1.391   2.579   8.384
69215SOL     OW 9541   1.427   3.860   2.121
69215SOL    HW1 9542   1.478   3.887   2.198
69215SOL    HW2 9543   1.480   3.792   2.080
69216SOL     OW 9544   0.006   0.888   3.865
69216SOL    HW1 9545   0.043   0.874   3.952
69216SOL    HW2 9546   0.010   0.802   3.823
69217SOL     OW 9547   2.739   8.479   3.616
69217SOL    HW1 9548   2.712   8.387   3.605
69217SOL    HW2 9549   2.706   8.503   3.702
69218SOL     OW 9550   7.131   8.084  13.936
69218SOL    HW1 9551   7.061   8.104  13.875
69218SOL    HW2 9552   7.167   8.169  13.961
69219SOL     OW 9553  11.132  11.964  12.032
69219SOL    HW1 9554  11.137  11.900  11.961
69219SOL    HW2 9555  11.117  12.048  11.988
69220SOL     OW 9556  11.842   8.923   6.938
69220SOL    HW1 9557  11.754   8.941   6.970
69220SOL    HW2 9558  11.834   8.923   6.842
69221SOL     OW 9559  13.291   6.580   5.854
69221SOL    HW1 9560  13.360   6.523   5.822
69221SOL    HW2 9561  13.220   6.569   5.791
69222SOL     OW 9562  10.944  13.661   0.842
69222SOL    HW1 9563  10.957  13.718   0.765
69222SOL    HW2 9564  11.019  13.602   0.842
69223SOL     OW 9565   7.864   1.831  10.847
69223SOL    HW1 9566   7.903   1.888  10.912
69223SOL    HW2 9567   7.908   1.747  10.860
69224SOL     OW 9568  12.242   5.066   1.356
69224SOL    HW1 9569  12.245   5.132   1.425
69224SOL    HW2 9570  12.242   4.982   1.402
69225SOL     OW 9571   7.505   9.492  14.300
69225SOL    HW1 9572   7.446   9.417  14.289
69225SOL    HW2 9573   7.446   9.567  14.310
69226SOL     OW 9574   6.478   9.242  12.735
69226SOL    HW1 9575   6.396   9.231  12.688
69226SOL    HW2 9576   6.530   9.166  12.711
69227SOL     OW 9577   0.409  12.411   8.416
69227SOL    HW1 9578   0.353  12.485   8.443
69227SOL    HW2 9579   0.479  12.410   8.481
69228SOL     OW 9580  10.075   5.684   4.046
69228SOL    HW1 9581  10.084   5.664   4.140
69228SOL    HW2 9582  10.035   5.771   4.044
69229SOL     OW 9583   6.106  14.579   6.990
69229SOL    HW1 9584   6.155  14.595   6.909
69229SOL    HW2 9585   6.103  14.665   7.033
69230SOL     OW 9586   6.225  13.456   7.074
69230SOL    HW1 9587   6.213  13.367   7.108
69230SOL    HW2 9588   6.169  13.510   7.130
69231SOL     OW 9589   0.532   3.588   9.369
69231SOL    HW1 9590   0.458   3.608   9.427
69231SOL    HW2 9591   0.530   3.493   9.359
69232SOL     OW 9592   7.413   7.338   0.888
69232SOL    HW1 9593   7.491   7.283   0.892
69232SOL    HW2 9594   7.350   7.288   0.835
69233SOL     OW 9595  13.473  12.537   8.672
69233SOL    HW1 9596  13.470  12.448   8.707
69233SOL    HW2 9597  13.529  12.530   8.595
69234SOL     OW 9598   6.176   4.993   5.957
69234SOL    HW1 9599   6.198   4.970   5.867
69234SOL    HW2 9600   6.085   5.021   5.953
69235SOL     OW 9601  14.333  12.138   7.441
69235SOL    HW1 9602  14.266  12.186   7.392
69235SOL    HW2 9603  14.412  12.191   7.431
69236SOL     OW 9604   6.527  12.592   4.079
69236SOL    HW1 9605   6.589  12.620   4.011
69236SOL    HW2 9606   6.457  12.657   4.076
69237SOL     OW 9607   6.795   8.654   5.815
69237SOL    HW1 9608   6.736   8.603   5.870
69237SOL    HW2 9609   6.737   8.702   5.756
69238SOL     OW 9610   9.474  10.219   7.341
69238SOL    HW1 9611   9.492  10.171   7.422
69238SOL    HW2 9612   9.406  10.282   7.366
69239SOL     OW 9613  12.671   2.001   4.171
69239SOL    HW1 9614  12.677   1.976   4.079
69239SOL    HW2 9615  12.667   1.918   4.219
69240SOL     OW 9616   0.380   6.124  11.283
69240SOL    HW1 9617   0.337   6.115  11.368
69240SOL    HW2 9618   0.349   6.049  11.233
69241SOL     OW 9619   1.677  13.132  13.069
69241SOL    HW1 9620   1.602  13.190  13.087
69241SOL    HW2 9621   1.652  13.084  12.991
69242SOL     OW 9622   9.500  13.128  12.738
69242SOL    HW1 9623   9.432  13.182  12.698
69242SOL    HW2 9624   9.468  13.112  12.827
69243SOL     OW 9625   3.047  13.653   7.144
69243SOL    HW1 9626   3.008  13.568   7.164
69243SOL    HW2 9627   2.996  13.686   7.069
69244SOL     OW 9628   9.409   4.728   3.941
69244SOL    HW1 9629   9.358   4.708   4.019
69244SOL    HW2 9630   9.374   4.669   3.874
69245SOL     OW 9631   4.564  12.275   2.935
69245SOL    HW1 9632   4.599  12.292   3.022
69245SOL    HW2 9633   4.473  12.251   2.950
69246SOL     OW 9634   1.604   5.622  14.323
69246SOL    HW1 9635   1.611   5.700  14.379
69246SOL    HW2 9636   1.664   5.559  14.363
69247SOL     OW 9637   5.399   2.611  14.520
69247SOL    HW1 9638   5.463   2.680  14.498
69247SOL    HW2 9639   5.381   2.624  14.613
69248SOL     OW 9640   7.814   9.784   7.462
69248SOL    HW1 9641   7.846   9.713   7.517
69248SOL    HW2 9642   7.737   9.818   7.508
69249SOL     OW 9643   2.197  10.716   6.209
69249SOL    HW1 9644   2.158  10.742   6.125
69249SOL    HW2 9645   2.183  10.791   6.267
69250SOL     OW 9646  13.082  10.097  13.141
69250SOL    HW1 9647  13.029  10.077  13.218
69250SOL    HW2 9648  13.022  10.141  13.081
69251SOL     OW 9649   8.201   9.022   1.823
69251SOL    HW1 9650   8.249   8.969   1.887
69251SOL    HW2 9651   8.145   9.079   1.876
69252SOL     OW 9652  12.778  13.446  12.339
69252SOL    HW1 9653  12.779  13.538  12.312
69252SOL    HW2 9654  12.687  13.430  12.365
69253SOL     OW 9655   8.560  14.274   1.022
69253SOL    HW1 9656   8.599  14.211   1.081
69253SOL    HW2 9657   8.480  14.232   0.991
69254SOL     OW 9658   8.876   6.551   6.915
69254SOL    HW1 9659   8.969   6.559   6.894
69254SOL    HW2 9660   8.844   6.642   6.919
69255SOL     OW 9661   3.074  10.523   2.584
69255SOL    HW1 9662   3.128  10.510   2.662
69255SOL    HW2 9663   3.003  10.461   2.593
69256SOL     OW 9664  14.442   4.315   4.352
69256SOL    HW1 9665  14.538   4.316   4.347
69256SOL    HW2 9666  14.423   4.283   4.440
69257SOL     OW 9667  14.488   1.744  11.124
69257SOL    HW1 9668  14.465   1.680  11.056
69257SOL    HW2 9669  14.547   1.696  11.182
69258SOL     OW 9670   7.328   9.551  11.591
69258SOL    HW1 9671   7.342   9.569  11.498
69258SOL    HW2 9672   7.270   9.622  11.620
69259SOL     OW 9673   5.780  11.580   2.378
69259SOL    HW1 9674   5.687  11.563   2.397
69259SOL    HW2 9675   5.790  11.554   2.287
69260SOL     OW 9676   5.537   7.728   5.617
69260SOL    HW1 9677   5.510   7.711   5.708
69260SOL    HW2 9678   5.624   7.687   5.610
69261SOL     OW 9679   6.156   5.624   2.084
69261SOL    HW1 9680   6.243   5.645   2.051
69261SOL    HW2 9681   6.168   5.543   2.134
69262SOL     OW 9682  10.013   9.264   0.987
69262SOL    HW1 9683  10.075   9.239   0.918
69262SOL    HW2 9684   9.931   9.221   0.963
69263SOL     OW 9685  13.843  14.339   5.165
69263SOL    HW1 9686  13.778  14.400   5.130
69263SOL    HW2 9687  13.837  14.263   5.107
69264SOL     OW 9688  11.730   2.970  13.796
69264SOL    HW1 9689  11.804   2.967  13.857
69264SOL    HW2 9690  11.658   2.930  13.843
69265SOL     OW 9691  14.627   2.334  11.690
69265SOL    HW1 9692  14.622   2.358  11.783
69265SOL    HW2 9693  14.541   2.358  11.654
69266SOL     OW 9694   9.737  12.118   3.936
69266SOL    HW1 9695   9.733  12.214   3.937
69266SOL    HW2 9696   9.647  12.091   3.923
69267SOL     OW 9697   2.002   3.778  11.131
69267SOL    HW1 9698   2.056   3.700  11.147
69267SOL    HW2 9699   2.062   3.852  11.144
69268SOL     OW 9700  14.611  12.897  13.879
69268SOL    HW1 9701  14.676  12.847  13.928
69268SOL    HW2 9702  14.556  12.830  13.838
69269SOL     OW 9703  11.022   7.128   3.403
69269SOL    HW1 9704  11.044   7.055   3.462
69269SOL    HW2 9705  10.931   7.149   3.424
69270SOL     OW 9706  14.249   7.371   5.990
69270SOL    HW1 9707  14.214   7.334   5.909
69270SOL    HW2 9708  14.233   7.465   5.982
69271SOL     OW 9709  11.897   4.573  10.107
69271SOL    HW1 9710  11.927   4.658  10.074
69271SOL    HW2 9711  11.876   4.589  10.199
69272SOL     OW 9712  11.504   6.106   7.796
69272SOL    HW1 9713  11.422   6.059   7.780
69272SOL    HW2 9714  11.520   6.155   7.716
69273SOL     OW 9715   5.943   3.651  13.630
69273SOL    HW1 9716   5.865   3.701  13.606
69273SOL    HW2 9717   5.959   3.674  13.721
69274SOL     OW 9718   1.304   9.929  13.046
69274SOL    HW1 9719   1.215   9.895  13.048
69274SOL    HW2 9720   1.343   9.888  12.968
69275SOL     OW 9721   5.152   0.492  12.907
69275SOL    HW1 9722   5.178   0.427  12.841
69275SOL    HW2 9723   5.176   0.576  12.867
69276SOL     OW 9724   3.946   4.608   0.085
69276SOL    HW1 9725   3.932   4.537   0.147
69276SOL    HW2 9726   3.959   4.564   0.000
69277SOL     OW 9727   1.750   3.827   0.176
69277SOL    HW1 9728   1.818   3.794   0.234
69277SOL    HW2 9729   1.749   3.765   0.103
69278SOL     OW 9730  14.809   5.711  10.672
69278SOL    HW1 9731  14.812   5.751  10.586
69278SOL    HW2 9732  14.766   5.776  10.728
69279SOL     OW 9733  14.412   5.999   2.210
69279SOL    HW1 9734  14.343   5.933   2.199
69279SOL    HW2 9735  14.443   5.986   2.299
69280SOL     OW 9736   3.516   4.727  11.653
69280SOL    HW1 9737   3.424   4.704  11.640
69280SOL    HW2 9738   3.554   4.726  11.566
69281SOL     OW 9739   7.908  11.339   2.847
69281SOL    HW1 9740   7.989  11.390   2.841
69281SOL    HW2 9741   7.874  11.359   2.934
69282SOL     OW 9742  10.604   0.307   4.769
69282SOL    HW1 9743  10.586   0.247   4.842
69282SOL    HW2 9744  10.691   0.343   4.789
69283SOL     OW 9745  12.152  13.271   7.807
69283SOL    HW1 9746  12.093  13.326   7.858
69283SOL    HW2 9747  12.131  13.181   7.834
69284SOL     OW 9748  10.332  12.914   5.175
69284SOL    HW1 9749  10.258  12.854   5.187
69284SOL    HW2 9750  10.385  12.904   5.254
69285SOL     OW 9751   2.713   9.867   3.470
69285SOL    HW1 9752   2.705   9.936   3.537
69285SOL    HW2 9753   2.733   9.915   3.390
69286SOL     OW 9754   2.383   8.626  11.516
69286SOL    HW1 9755   2.410   8.651  11.604
69286SOL    HW2 9756   2.288   8.614  11.522
69287SOL     OW 9757   1.063   7.725   6.068
69287SOL    HW1 9758   1.054   7.634   6.041
69287SOL    HW2 9759   0.976   7.748   6.102
69288SOL     OW 9760   6.402   9.763  13.987
69288SOL    HW1 9761   6.307   9.756  13.981
69288SOL    HW2 9762   6.434   9.741  13.899
69289SOL     OW 9763   9.590  13.000   3.245
69289SOL    HW1 9764   9.685  13.001   3.251
69289SOL    HW2 9765   9.569  12.914   3.209
69290SOL     OW 9766   2.823  14.643   6.732
69290SOL    HW1 9767   2.892  14.709   6.737
69290SOL    HW2 9768   2.802  14.624   6.824
69291SOL     OW 9769   0.800  13.367   6.389
69291SOL    HW1 9770   0.813  13.320   6.472
69291SOL    HW2 9771   0.773  13.299   6.327
69292SOL     OW 9772  13.974   2.245  13.329
69292SOL    HW1 9773  13.941   2.163  13.294
69292SOL    HW2 9774  13.926   2.313  13.282
69293SOL     OW 9775   3.727  14.214   2.962
69293SOL    HW1 9776   3.750  14.203   3.054
69293SOL    HW2 9777   3.698  14.305   2.955
69294SOL     OW 9778   2.043  13.445   7.631
69294SOL    HW1 9779   2.060  13.453   7.725
69294SOL    HW2 9780   1.992  13.522   7.609
69295SOL     OW 9781   1.312   0.132   2.001
69295SOL    HW1 9782   1.264   0.066   2.051
69295SOL    HW2 9783   1.371   0.082   1.945
69296SOL     OW 9784   2.254   4.671  14.741
69296SOL    HW1 9785   2.179   4.720  14.774
69296SOL    HW2 9786   2.318   4.673  14.813
69297SOL     OW 9787  11.300  11.769  10.064
69297SOL    HW1 9788  11.345  11.799   9.984
69297SOL    HW2 9789  11.263  11.848  10.102
69298SOL     OW 9790   5.419   7.860   4.637
69298SOL    HW1 9791   5.413   7.765   4.649
69298SOL    HW2 9792   5.511   7.875   4.616
69299SOL     OW 9793   2.423  11.579   6.891
69299SOL    HW1 9794   2.513  11.547   6.896
69299SOL    HW2 9795   2.419  11.649   6.956
69300SOL     OW 9796   9.825   5.877   7.594
69300SOL    HW1 9797   9.772   5.805   7.560
69300SOL    HW2 9798   9.762   5.945   7.617
69301SOL     OW 9799   8.681   0.350  14.576
69301SOL    HW1 9800   8.649   0.432  14.537
69301SOL    HW2 9801   8.640   0.347  14.663
69302SOL     OW 9802  11.805   8.472   1.280
69302SOL    HW1 9803  11.834   8.419   1.354
69302SOL    HW2 9804  11.763   8.410   1.220
69303SOL     OW 9805   5.278  13.866   3.723
69303SOL    HW1 9806   5.222  13.816   3.664
69303SOL    HW2 9807   5.292  13.808   3.798
69304SOL     OW 9808   4.062   4.323   2.112
69304SOL    HW1 9809   4.114   4.264   2.168
69304SOL    HW2 9810   4.102   4.315   2.025
69305SOL     OW 9811   5.830   4.513  13.135
69305SOL    HW1 9812   5.825   4.598  13.178
69305SOL    HW2 9813   5.919   4.482  13.152
69306SOL     OW 9814   9.491   5.249  12.603
69306SOL    HW1 9815   9.456   5.322  12.551
69306SOL    HW2 9816   9.581   5.274  12.622
69307SOL     OW 9817  13.307   3.685   0.940
69307SOL    HW1 9818  13.216   3.671   0.911
69307SOL    HW2 9819  13.311   3.779   0.957
69308SOL     OW 9820   2.192   5.405   4.068
69308SOL    HW1 9821   2.214   5.466   4.138
69308SOL    HW2 9822   2.226   5.321   4.097
69309SOL     OW 9823   6.189   9.487   2.382
69309SOL    HW1 9824   6.229   9.569   2.356
69309SOL    HW2 9825   6.216   9.424   2.315
69310SOL     OW 9826  12.182   2.442  14.493
69310SOL    HW1 9827  12.104   2.467  14.443
69310SOL    HW2 9828  12.242   2.405  14.427
69311SOL     OW 9829   3.647   2.949   7.113
69311SOL    HW1 9830   3.713   2.892   7.152
69311SOL    HW2 9831   3.690   2.987   7.037
69312SOL     OW 9832   4.567   7.664   3.545
69312SOL    HW1 9833   4.512   7.595   3.582
69312SOL    HW2 9834   4.602   7.626   3.464
69313SOL     OW 9835  14.491   5.692  10.637
69313SOL    HW1 9836  14.537   5.611  10.658
69313SOL    HW2 9837  14.529   5.721  10.554
69314SOL     OW 9838  11.009   6.137   2.708
69314SOL    HW1 9839  11.049   6.202   2.650
69314SOL    HW2 9840  10.987   6.064   2.650
69315SOL     OW 9841  10.004   1.361   3.725
69315SOL    HW1 9842  10.014   1.451   3.757
69315SOL    HW2 9843   9.934   1.367   3.660
69316SOL     OW 9844   0.327   4.762   2.887
69316SOL    HW1 9845   0.324   4.834   2.823
69316SOL    HW2 9846   0.237   4.752   2.916
69317SOL     OW 9847   1.704  11.156   1.007
69317SOL    HW1 9848   1.699  11.076   1.060
69317SOL    HW2 9849   1.657  11.222   1.058
69318SOL     OW 9850   7.147   0.753   3.510
69318SOL    HW1 9851   7.182   0.668   3.535
69318SOL    HW2 9852   7.094   0.780   3.585
69319SOL     OW 9853   1.214   8.584  14.387
69319SOL    HW1 9854   1.150   8.520  14.418
69319SOL    HW2 9855   1.194   8.664  14.436
69320SOL     OW 9856   5.729  10.698  13.482
69320SOL    HW1 9857   5.823  10.705  13.495
69320SOL    HW2 9858   5.718  10.701  13.387
69321SOL     OW 9859  10.005  10.027   1.662
69321SOL    HW1 9860  10.055  10.048   1.741
69321SOL    HW2 9861  10.003   9.931   1.658
69322SOL     OW 9862   7.959  11.882  11.011
69322SOL    HW1 9863   8.012  11.840  10.943
69322SOL    HW2 9864   7.875  11.899  10.969
69323SOL     OW 9865  11.724   0.594   6.810
69323SOL    HW1 9866  11.683   0.549   6.736
69323SOL    HW2 9867  11.809   0.623   6.777
69324SOL     OW 9868   3.136   6.733   8.646
69324SOL    HW1 9869   3.167   6.651   8.686
69324SOL    HW2 9870   3.201   6.798   8.673
69325SOL     OW 9871   9.646  12.019   9.350
69325SOL    HW1 9872   9.635  11.927   9.323
69325SOL    HW2 9873   9.565  12.061   9.322
69326SOL     OW 9874   6.702   3.944  13.278
69326SOL    HW1 9875   6.745   3.861  13.294
69326SOL    HW2 9876   6.614   3.933  13.313
69327SOL     OW 9877  12.557  11.484  11.900
69327SOL    HW1 9878  12.653  11.481  11.900
69327SOL    HW2 9879  12.535  11.562  11.952
69328SOL     OW 9880  10.837   4.302   3.053
69328SOL    HW1 9881  10.838   4.367   3.124
69328SOL    HW2 9882  10.907   4.330   2.994
69329SOL     OW 9883  10.530   0.303   9.527
69329SOL    HW1 9884  10.473   0.226   9.520
69329SOL    HW2 9885  10.486   0.371   9.476
69330SOL     OW 9886  10.041   4.832   9.298
69330SOL    HW1 9887   9.991   4.911   9.319
69330SOL    HW2 9888   9.973   4.767   9.279
69331SOL     OW 9889  13.737   8.073   3.605
69331SOL    HW1 9890  13.823   8.040   3.632
69331SOL    HW2 9891  13.682   7.995   3.598
69332SOL     OW 9892   7.167  10.891  10.925
69332SOL    HW1 9893   7.235  10.906  10.860
69332SOL    HW2 9894   7.207  10.832  10.989
69333SOL     OW 9895  10.102  12.639   3.538
69333SOL    HW1 9896  10.031  12.679   3.587
69333SOL    HW2 9897  10.080  12.654   3.446
69334SOL     OW 9898  10.128   2.021   2.399
69334SOL    HW1 9899  10.110   1.936   2.359
69334SOL    HW2 9900  10.222   2.035   2.386
69335SOL     OW 9901  13.965   1.154  14.545
69335SOL    HW1 9902  14.022   1.176  14.619
69335SOL    HW2 9903  13.886   1.205  14.560
69336SOL     OW 9904  10.208   7.418   6.278
69336SOL    HW1 9905  10.148   7.397   6.349
69336SOL    HW2 9906  10.185   7.357   6.208
69337SOL     OW 9907   5.303   1.062   7.215
69337SOL    HW1 9908   5.248   1.027   7.146
69337SOL    HW2 9909   5.245   1.073   7.290
69338SOL     OW 9910  11.282   7.846   1.683
69338SOL    HW1 9911  11.340   7.921   1.667
69338SOL    HW2 9912  11.194   7.883   1.683
69339SOL     OW 9913   2.720  12.863   5.338
69339SOL    HW1 9914   2.625  12.848   5.343
69339SOL    HW2 9915   2.729  12.945   5.289
69340SOL     OW 9916  12.346   2.496   4.105
69340SOL    HW1 9917  12.410   2.496   4.034
69340SOL    HW2 9918  12.351   2.584   4.143
69341SOL     OW 9919  13.848  13.980   7.796
69341SOL    HW1 9920  13.843  14.073   7.774
69341SOL    HW2 9921  13.762  13.945   7.772
69342SOL     OW 9922  11.134   1.613   5.592
69342SOL    HW1 9923  11.055   1.655   5.560
69342SOL    HW2 9924  11.189   1.601   5.514
69343SOL     OW 9925  11.025   1.721   8.694
69343SOL    HW1 9926  10.979   1.672   8.626
69343SOL    HW2 9927  11.027   1.662   8.769
69344SOL     OW 9928  14.061   3.537   6.619
69344SOL    HW1 9929  14.049   3.632   6.620
69344SOL    HW2 9930  14.067   3.512   6.711
69345SOL     OW 9931  13.553  13.816   2.159
69345SOL    HW1 9932  13.479  13.787   2.107
69345SOL    HW2 9933  13.524  13.899   2.197
69346SOL     OW 9934  11.691  10.845   9.067
69346SOL    HW1 9935  11.669  10.753   9.074
69346SOL    HW2 9936  11.786  10.847   9.059
69347SOL     OW 9937   4.679  13.286   5.638
69347SOL    HW1 9938   4.714  13.344   5.705
69347SOL    HW2 9939   4.616  13.340   5.590
69348SOL     OW 9940  10.320   2.392   8.372
69348SOL    HW1 9941  10.289   2.312   8.331
69348SOL    HW2 9942  10.340   2.367   8.462
69349SOL     OW 9943  10.705  13.597   2.892
69349SOL    HW1 9944  10.725  13.509   2.925
69349SOL    HW2 9945  10.610  13.602   2.895
69350SOL     OW 9946   4.203   7.927   0.719
69350SOL    HW1 9947   4.279   7.955   0.769
69350SOL    HW2 9948   4.147   7.881   0.782
69351SOL     OW 9949   9.835  10.905   9.478
69351SOL    HW1 9950   9.811  10.997   9.471
69351SOL    HW2 9951   9.755  10.857   9.457
69352SOL     OW 9952  11.109   2.317   9.841
69352SOL    HW1 9953  11.162   2.396   9.852
69352SOL    HW2 9954  11.093   2.287   9.930
69353SOL     OW 9955   0.133   5.415   1.873
69353SOL    HW1 9956   0.182   5.392   1.794
69353SOL    HW2 9957   0.178   5.492   1.907
69354SOL     OW 9958   4.381   6.664   9.858
69354SOL    HW1 9959   4.362   6.749   9.819
69354SOL    HW2 9960   4.454   6.681   9.918
69355SOL     OW 9961   0.546   4.752  10.354
69355SOL    HW1 9962   0.486   4.678  10.357
69355SOL    HW2 9963   0.630   4.716  10.380
69356SOL     OW 9964   2.351   9.151  10.087
69356SOL    HW1 9965   2.396   9.097  10.021
69356SOL    HW2 9966   2.419   9.173  10.150
69357SOL     OW 9967   8.076  10.048   9.180
69357SOL    HW1 9968   8.150   9.987   9.191
69357SOL    HW2 9969   8.081  10.074   9.088
69358SOL     OW 9970   7.241   5.553  11.967
69358SOL    HW1 9971   7.274   5.486  12.026
69358SOL    HW2 9972   7.315   5.613  11.954
69359SOL     OW 9973   5.138  11.376   4.116
69359SOL    HW1 9974   5.187  11.379   4.034
69359SOL    HW2 9975   5.047  11.392   4.090
69360SOL     OW 9976   2.484   5.463  11.176
69360SOL    HW1 9977   2.532   5.401  11.120
69360SOL    HW2 9978   2.406   5.414  11.203
69361SOL     OW 9979  11.994   5.559  14.035
69361SOL    HW1 9980  11.928   5.491  14.020
69361SOL    HW2 9981  12.007   5.598  13.949
69362SOL     OW 9982  11.146   4.043   8.709
69362SOL    HW1 9983  11.159   4.112   8.644
69362SOL    HW2 9984  11.106   3.971   8.660
69363SOL     OW 9985   2.492  10.206   8.782
69363SOL    HW1 9986   2.520  10.221   8.872
69363SOL    HW2 9987   2.439  10.127   8.785
69364SOL     OW 9988   6.362  10.729   1.844
69364SOL    HW1 9989   6.445  10.724   1.891
69364SOL    HW2 9990   6.319  10.806   1.881
69365SOL     OW 9991   3.519   3.482   4.392
69365SOL    HW1 9992   3.585   3.521   4.334
69365SOL    HW2 9993   3.568   3.418   4.445
69366SOL     OW 9994   2.761   0.786   1.592
69366SOL    HW1 9995   2.764   0.709   1.649
69366SOL    HW2 9996   2.833   0.841   1.622
69367SOL     OW 9997   5.496  13.035   3.640
69367SOL    HW1 9998   5.591  13.030   3.633
69367SOL    HW2 9999   5.470  13.093   3.569
69368SOL     OW10000   3.240   9.419   0.014
69368SOL    HW110001   3.288   9.411   0.097
69368SOL    HW210002   3.272   9.347  14.831
69369SOL     OW10003   2.725   7.624   1.539
69369SOL    HW110004   2.685   7.687   1.480
69369SOL    HW210005   2.762   7.677   1.609
69370SOL     OW10006  13.425   2.802   4.868
69370SOL    HW110007  13.469   2.870   4.920
69370SOL    HW210008  13.394   2.848   4.790
69371SOL     OW10009   5.271   2.768   4.777
69371SOL    HW110010   5.298   2.698   4.836
69371SOL    HW210011   5.344   2.775   4.715
69372SOL     OW10012  11.637   1.103   5.615
69372SOL    HW110013  11.567   1.153   5.573
69372SOL    HW210014  11.613   1.102   5.708
69373SOL     OW10015   0.082   6.221  11.192
69373SOL    HW110016   0.053   6.145  11.242
69373SOL    HW210017   0.063   6.296  11.248
69374SOL     OW10018   8.861  14.693  10.494
69374SOL    HW110019   8.909  14.774  10.480
69374SOL    HW210020   8.917  14.625  10.456
69375SOL     OW10021   7.713   2.499   7.414
69375SOL    HW110022   7.769   2.559   7.463
69375SOL    HW210023   7.746   2.502   7.324
69376SOL     OW10024   8.493   1.609   6.131
69376SOL    HW110025   8.540   1.550   6.190
69376SOL    HW210026   8.552   1.684   6.121
69377SOL     OW10027   6.856  14.352  11.566
69377SOL    HW110028   6.847  14.438  11.608
69377SOL    HW210029   6.767  14.326  11.545
69378SOL     OW10030   5.117   2.531   3.341
69378SOL    HW110031   5.050   2.468   3.366
69378SOL    HW210032   5.125   2.589   3.417
69379SOL     OW10033   5.107  12.106   3.966
69379SOL    HW110034   5.193  12.075   3.994
69379SOL    HW210035   5.124  12.153   3.884
69380SOL     OW10036   0.965  13.881  12.772
69380SOL    HW110037   0.992  13.795  12.804
69380SOL    HW210038   0.985  13.879  12.678
69381SOL     OW10039   7.261  11.034   1.096
69381SOL    HW110040   7.194  11.070   1.153
69381SOL    HW210041   7.222  11.034   1.008
69382SOL     OW10042   4.095   5.742  13.044
69382SOL    HW110043   4.135   5.828  13.036
69382SOL    HW210044   4.129   5.692  12.969
69383SOL     OW10045  11.996   7.426   9.354
69383SOL    HW110046  12.074   7.433   9.300
69383SOL    HW210047  11.979   7.516   9.383
69384SOL     OW10048  13.680   6.857   7.990
69384SOL    HW110049  13.760   6.812   7.964
69384SOL    HW210050  13.621   6.845   7.915
69385SOL     OW10051   4.302   9.968   5.950
69385SOL    HW110052   4.222   9.938   5.992
69385SOL    HW210053   4.315   9.908   5.877
69386SOL     OW10054  13.614  11.229  14.312
69386SOL    HW110055  13.550  11.181  14.259
69386SOL    HW210056  13.667  11.162  14.354
69387SOL     OW10057  14.793  11.684   9.654
69387SOL    HW110058  14.843  11.734   9.589
69387SOL    HW210059  14.859  11.635   9.703
69388SOL     OW10060   8.678  14.852   3.012
69388SOL    HW110061   8.709  14.783   2.954
69388SOL    HW210062   8.723   0.061   2.981
69389SOL     OW10063   8.748  13.627   5.890
69389SOL    HW110064   8.717  13.681   5.962
69389SOL    HW210065   8.829  13.669   5.861
69390SOL     OW10066   9.541  14.230   9.699
69390SOL    HW110067   9.458  14.277   9.706
69390SOL    HW210068   9.539  14.166   9.771
69391SOL     OW10069   9.254   1.180   5.988
69391SOL    HW110070   9.210   1.247   6.041
69391SOL    HW210071   9.252   1.215   5.899
69392SOL     OW10072   1.228   7.164  10.136
69392SOL    HW110073   1.284   7.239  10.113
69392SOL    HW210074   1.169   7.154  10.061
69393SOL     OW10075   3.378   2.564   4.784
69393SOL    HW110076   3.417   2.490   4.831
69393SOL    HW210077   3.438   2.637   4.800
69394SOL     OW10078   1.163  12.296  13.622
69394SOL    HW110079   1.069  12.311  13.607
69394SOL    HW210080   1.201  12.383  13.621
69395SOL     OW10081   0.109   4.559   3.861
69395SOL    HW110082   0.188   4.515   3.830
69395SOL    HW210083   0.110   4.548   3.956
69396SOL     OW10084   1.221   3.263   7.268
69396SOL    HW110085   1.280   3.207   7.319
69396SOL    HW210086   1.236   3.351   7.303
69397SOL     OW10087  14.731   8.614  14.607
69397SOL    HW110088  14.798   8.555  14.641
69397SOL    HW210089  14.664   8.556  14.571
69398SOL     OW10090   7.826   6.559   9.542
69398SOL    HW110091   7.785   6.615   9.608
69398SOL    HW210092   7.795   6.594   9.459
69399SOL     OW10093   7.127   0.819   5.539
69399SOL    HW110094   7.055   0.881   5.552
69399SOL    HW210095   7.179   0.826   5.618
69400SOL     OW10096  14.479  10.716   3.956
69400SOL    HW110097  14.389  10.684   3.950
69400SOL    HW210098  14.532  10.636   3.956
69401SOL     OW10099   8.913  11.376  10.843
69401SOL    HW110100   8.828  11.408  10.813
69401SOL    HW210101   8.948  11.328  10.768
69402SOL     OW10102   2.808  10.892   6.276
69402SOL    HW110103   2.794  10.813   6.329
69402SOL    HW210104   2.731  10.946   6.293
69403SOL     OW10105  11.645  13.285   3.702
69403SOL    HW110106  11.703  13.210   3.716
69403SOL    HW210107  11.703  13.360   3.698
69404SOL     OW10108  10.063   4.618   5.350
69404SOL    HW110109   9.992   4.562   5.382
69404SOL    HW210110  10.033   4.707   5.368
69405SOL     OW10111  13.791   2.492  10.965
69405SOL    HW110112  13.785   2.414  10.910
69405SOL    HW210113  13.768   2.564  10.906
69406SOL     OW10114  11.118   7.721  12.480
69406SOL    HW110115  11.139   7.760  12.395
69406SOL    HW210116  11.161   7.636  12.479
69407SOL     OW10117   8.276   1.764  12.444
69407SOL    HW110118   8.217   1.741  12.515
69407SOL    HW210119   8.219   1.774  12.368
69408SOL     OW10120  11.092   5.189  11.367
69408SOL    HW110121  11.070   5.096  11.374
69408SOL    HW210122  11.041   5.230  11.438
69409SOL     OW10123   7.690  13.995   4.272
69409SOL    HW110124   7.667  14.061   4.337
69409SOL    HW210125   7.785  13.999   4.265
69410SOL     OW10126   2.389  14.007   0.265
69410SOL    HW110127   2.300  14.034   0.239
69410SOL    HW210128   2.433  14.089   0.288
69411SOL     OW10129   6.755  14.177   3.734
69411SOL    HW110130   6.709  14.235   3.796
69411SOL    HW210131   6.771  14.232   3.657
69412SOL     OW10132   1.124   6.504   1.675
69412SOL    HW110133   1.193   6.555   1.632
69412SOL    HW210134   1.045   6.524   1.625
69413SOL     OW10135   2.795   6.733   2.213
69413SOL    HW110136   2.816   6.689   2.131
69413SOL    HW210137   2.712   6.778   2.195
69414SOL     OW10138   5.757   4.874   7.720
69414SOL    HW110139   5.713   4.944   7.768
69414SOL    HW210140   5.686   4.825   7.678
69415SOL     OW10141  12.114   9.535   1.045
69415SOL    HW110142  12.076   9.451   1.069
69415SOL    HW210143  12.083   9.551   0.956
69416SOL     OW10144   8.548  11.594  11.868
69416SOL    HW110145   8.636  11.587  11.830
69416SOL    HW210146   8.502  11.656  11.811
69417SOL     OW10147  12.353   9.334  10.635
69417SOL    HW110148  12.284   9.392  10.666
69417SOL    HW210149  12.352   9.345  10.539
69418SOL     OW10150   0.301   6.158   8.234
69418SOL    HW110151   0.375   6.200   8.190
69418SOL    HW210152   0.253   6.230   8.275
69419SOL     OW10153  10.572  14.204  10.518
69419SOL    HW110154  10.500  14.143  10.530
69419SOL    HW210155  10.645  14.150  10.487
69420SOL     OW10156   3.471   1.775  10.569
69420SOL    HW110157   3.431   1.844  10.515
69420SOL    HW210158   3.411   1.701  10.561
69421SOL     OW10159   2.077   2.852   2.710
69421SOL    HW110160   1.997   2.896   2.681
69421SOL    HW210161   2.090   2.883   2.800
69422SOL     OW10162   7.410  14.649   1.096
69422SOL    HW110163   7.413  14.685   1.007
69422SOL    HW210164   7.388  14.723   1.152
69423SOL     OW10165   3.797   0.450   4.007
69423SOL    HW110166   3.796   0.384   4.076
69423SOL    HW210167   3.795   0.533   4.053
69424SOL     OW10168   6.773  10.820  10.477
69424SOL    HW110169   6.815  10.757  10.418
69424SOL    HW210170   6.710  10.767  10.527
69425SOL     OW10171   3.330   4.240   6.139
69425SOL    HW110172   3.316   4.247   6.045
69425SOL    HW210173   3.302   4.325   6.174
69426SOL     OW10174   8.376   8.759   3.014
69426SOL    HW110175   8.284   8.762   3.040
69426SOL    HW210176   8.423   8.800   3.087
69427SOL     OW10177   6.830  11.702  14.199
69427SOL    HW110178   6.740  11.700  14.167
69427SOL    HW210179   6.821  11.701  14.294
69428SOL     OW10180   9.285   3.394  14.135
69428SOL    HW110181   9.254   3.485  14.131
69428SOL    HW210182   9.289   3.366  14.044
69429SOL     OW10183  10.145  13.571  14.114
69429SOL    HW110184  10.165  13.541  14.202
69429SOL    HW210185  10.228  13.606  14.081
69430SOL     OW10186  11.718   5.535   3.682
69430SOL    HW110187  11.784   5.467   3.674
69430SOL    HW210188  11.639   5.489   3.710
69431SOL     OW10189  11.606   8.370  13.978
69431SOL    HW110190  11.611   8.352  13.884
69431SOL    HW210191  11.598   8.466  13.983
69432SOL     OW10192   2.195   3.959  11.167
69432SOL    HW110193   2.249   3.915  11.233
69432SOL    HW210194   2.250   4.032  11.137
69433SOL     OW10195   7.245   5.055   0.010
69433SOL    HW110196   7.215   4.978   0.058
69433SOL    HW210197   7.178   5.070  14.813
69434SOL     OW10198   1.302   2.329   2.354
69434SOL    HW110199   1.256   2.311   2.272
69434SOL    HW210200   1.336   2.418   2.343
69435SOL     OW10201   0.971   3.723   4.148
69435SOL    HW110202   1.046   3.768   4.109
69435SOL    HW210203   0.895   3.760   4.104
69436SOL     OW10204  10.199   9.590   4.212
69436SOL    HW110205  10.105   9.574   4.221
69436SOL    HW210206  10.233   9.512   4.170
69437SOL     OW10207  11.350  12.366   1.497
69437SOL    HW110208  11.348  12.356   1.401
69437SOL    HW210209  11.357  12.460   1.511
69438SOL     OW10210   6.065   8.725  14.092
69438SOL    HW110211   6.071   8.818  14.071
69438SOL    HW210212   6.033   8.722  14.182
69439SOL     OW10213   7.310  12.929   1.761
69439SOL    HW110214   7.278  12.890   1.680
69439SOL    HW210215   7.392  12.883   1.779
69440SOL     OW10216   9.821  14.086   1.388
69440SOL    HW110217   9.774  14.024   1.444
69440SOL    HW210218   9.904  14.102   1.433
69441SOL     OW10219  14.587  11.892  10.131
69441SOL    HW110220  14.582  11.808  10.175
69441SOL    HW210221  14.495  11.918  10.118
69442SOL     OW10222   7.977  12.721   4.624
69442SOL    HW110223   8.025  12.651   4.668
69442SOL    HW210224   7.885  12.701   4.641
69443SOL     OW10225  14.620  14.857   9.986
69443SOL    HW110226  14.691  14.854  10.051
69443SOL    HW210227  14.577  14.772   9.994
69444SOL     OW10228   8.470   0.735   3.264
69444SOL    HW110229   8.474   0.827   3.288
69444SOL    HW210230   8.376   0.715   3.263
69445SOL     OW10231   6.342  13.931   8.911
69445SOL    HW110232   6.355  13.881   8.992
69445SOL    HW210233   6.298  13.869   8.852
69446SOL     OW10234   0.219  14.115   6.680
69446SOL    HW110235   0.214  14.048   6.612
69446SOL    HW210236   0.285  14.177   6.649
69447SOL     OW10237   0.137  13.801   5.483
69447SOL    HW110238   0.182  13.749   5.416
69447SOL    HW210239   0.061  13.838   5.438
69448SOL     OW10240   5.548  14.743  10.244
69448SOL    HW110241   5.539  14.782  10.157
69448SOL    HW210242   5.600  14.806  10.294
69449SOL     OW10243   1.931   3.847  14.340
69449SOL    HW110244   1.898   3.933  14.317
69449SOL    HW210245   1.969   3.813  14.258
69450SOL     OW10246  11.971   7.917  13.671
69450SOL    HW110247  12.025   7.914  13.750
69450SOL    HW210248  11.882   7.936  13.703
69451SOL     OW10249   3.017   8.282  10.718
69451SOL    HW110250   2.922   8.286  10.733
69451SOL    HW210251   3.055   8.287  10.806
69452SOL     OW10252   7.929  14.134   5.267
69452SOL    HW110253   7.990  14.093   5.206
69452SOL    HW210254   7.888  14.061   5.313
69453SOL     OW10255   0.288   5.633   2.869
69453SOL    HW110256   0.210   5.633   2.924
69453SOL    HW210257   0.286   5.718   2.824
69454SOL     OW10258  14.722   3.075   4.764
69454SOL    HW110259  14.799   3.125   4.791
69454SOL    HW210260  14.721   3.000   4.824
69455SOL     OW10261   5.661  12.299   9.978
69455SOL    HW110262   5.613  12.324  10.056
69455SOL    HW210263   5.704  12.216  10.001
69456SOL     OW10264   2.243   7.037   3.521
69456SOL    HW110265   2.215   6.965   3.579
69456SOL    HW210266   2.244   6.998   3.434
69457SOL     OW10267   9.108   5.617  12.280
69457SOL    HW110268   9.051   5.544  12.302
69457SOL    HW210269   9.195   5.579  12.275
69458SOL     OW10270   5.297   2.329  11.517
69458SOL    HW110271   5.314   2.419  11.545
69458SOL    HW210272   5.302   2.332  11.421
69459SOL     OW10273  11.463  12.351   0.353
69459SOL    HW110274  11.552  12.382   0.336
69459SOL    HW210275  11.438  12.304   0.273
69460SOL     OW10276  13.983  14.096  10.722
69460SOL    HW110277  13.976  14.174  10.667
69460SOL    HW210278  14.076  14.087  10.739
69461SOL     OW10279  10.692   5.074  11.637
69461SOL    HW110280  10.764   5.128  11.603
69461SOL    HW210281  10.734   4.994  11.668
69462SOL     OW10282  10.710  12.485   8.920
69462SOL    HW110283  10.754  12.497   8.836
69462SOL    HW210284  10.617  12.481   8.897
69463SOL     OW10285   1.930   6.436   6.408
69463SOL    HW110286   1.876   6.479   6.474
69463SOL    HW210287   2.019   6.466   6.426
69464SOL     OW10288   6.885   0.106   4.302
69464SOL    HW110289   6.893   0.181   4.243
69464SOL    HW210290   6.880   0.145   4.390
69465SOL     OW10291   6.078   2.430   2.153
69465SOL    HW110292   6.135   2.425   2.230
69465SOL    HW210293   6.039   2.518   2.158
69466SOL     OW10294   1.734  12.740   5.041
69466SOL    HW110295   1.704  12.712   4.954
69466SOL    HW210296   1.759  12.832   5.028
69467SOL     OW10297  10.726  10.192   9.693
69467SOL    HW110298  10.792  10.130   9.662
69467SOL    HW210299  10.646  10.165   9.648
69468SOL     OW10300   8.823   0.893   8.014
69468SOL    HW110301   8.801   0.800   8.008
69468SOL    HW210302   8.740   0.935   8.035
69469SOL     OW10303  14.195   9.616   2.498
69469SOL    HW110304  14.189   9.697   2.548
69469SOL    HW210305  14.117   9.566   2.523
69470SOL     OW10306   5.780   2.934  14.587
69470SOL    HW110307   5.839   2.989  14.638
69470SOL    HW210308   5.781   2.849  14.631
69471SOL     OW10309  10.757   9.646  12.669
69471SOL    HW110310  10.821   9.699  12.622
69471SOL    HW210311  10.711   9.709  12.725
69472SOL     OW10312   2.246  13.359  10.454
69472SOL    HW110313   2.258  13.287  10.392
69472SOL    HW210314   2.151  13.370  10.459
69473SOL     OW10315   3.773   2.768   8.865
69473SOL    HW110316   3.856   2.723   8.878
69473SOL    HW210317   3.772   2.837   8.931
69474SOL     OW10318  13.466  10.908   8.924
69474SOL    HW110319  13.407  10.893   8.998
69474SOL    HW210320  13.458  10.828   8.871
69475SOL     OW10321   9.306   3.821   0.994
69475SOL    HW110322   9.356   3.876   1.054
69475SOL    HW210323   9.222   3.808   1.036
69476SOL     OW10324   2.507  12.387   5.643
69476SOL    HW110325   2.560  12.431   5.710
69476SOL    HW210326   2.559  12.392   5.563
69477SOL     OW10327  11.451   9.814  13.378
69477SOL    HW110328  11.540   9.797  13.409
69477SOL    HW210329  11.418   9.729  13.350
69478SOL     OW10330   0.007   3.267  13.061
69478SOL    HW110331  14.831   3.292  13.141
69478SOL    HW210332   0.099   3.262  13.086
69479SOL     OW10333   2.484   5.532  11.905
69479SOL    HW110334   2.491   5.580  11.987
69479SOL    HW210335   2.398   5.491  11.907
69480SOL     OW10336  12.283   8.538  14.049
69480SOL    HW110337  12.283   8.586  13.966
69480SOL    HW210338  12.316   8.451  14.026
69481SOL     OW10339  11.537   7.780   0.359
69481SOL    HW110340  11.620   7.824   0.374
69481SOL    HW210341  11.552   7.689   0.384
69482SOL     OW10342   5.921  14.595  11.830
69482SOL    HW110343   6.006  14.554  11.815
69482SOL    HW210344   5.922  14.675  11.777
69483SOL     OW10345  11.743   9.384   3.100
69483SOL    HW110346  11.725   9.326   3.174
69483SOL    HW210347  11.657   9.398   3.060
69484SOL     OW10348   4.773   7.769  13.227
69484SOL    HW110349   4.790   7.721  13.146
69484SOL    HW210350   4.756   7.859  13.199
69485SOL     OW10351   1.759   2.950  10.326
69485SOL    HW110352   1.721   3.032  10.355
69485SOL    HW210353   1.751   2.952  10.230
69486SOL     OW10354  10.730   0.287   2.171
69486SOL    HW110355  10.746   0.335   2.090
69486SOL    HW210356  10.799   0.220   2.174
69487SOL     OW10357  11.363   9.898   6.324
69487SOL    HW110358  11.383   9.891   6.418
69487SOL    HW210359  11.447   9.912   6.282
69488SOL     OW10360   5.591  11.170   2.661
69488SOL    HW110361   5.545  11.114   2.724
69488SOL    HW210362   5.627  11.241   2.713
69489SOL     OW10363   0.742   6.985  14.518
69489SOL    HW110364   0.813   6.922  14.533
69489SOL    HW210365   0.780   7.070  14.541
69490SOL     OW10366   8.071  11.338  12.170
69490SOL    HW110367   8.077  11.245  12.194
69490SOL    HW210368   7.999  11.372  12.222
69491SOL     OW10369   4.764   3.937   6.957
69491SOL    HW110370   4.801   4.012   6.911
69491SOL    HW210371   4.675   3.963   6.978
69492SOL     OW10372   4.854  11.871  10.000
69492SOL    HW110373   4.796  11.940  10.031
69492SOL    HW210374   4.875  11.821  10.079
69493SOL     OW10375   7.535   8.734   6.378
69493SOL    HW110376   7.591   8.811   6.390
69493SOL    HW210377   7.589   8.672   6.329
69494SOL     OW10378   2.750   5.430   9.444
69494SOL    HW110379   2.686   5.485   9.398
69494SOL    HW210380   2.802   5.391   9.374
69495SOL     OW10381  13.220   7.554   9.466
69495SOL    HW110382  13.125   7.541   9.455
69495SOL    HW210383  13.239   7.635   9.420
69496SOL     OW10384   1.926  12.953  12.212
69496SOL    HW110385   1.992  13.017  12.187
69496SOL    HW210386   1.897  12.915  12.128
69497SOL     OW10387  13.822  13.471   3.844
69497SOL    HW110388  13.807  13.429   3.929
69497SOL    HW210389  13.916  13.459   3.828
69498SOL     OW10390   5.253   0.376   0.593
69498SOL    HW110391   5.237   0.417   0.508
69498SOL    HW210392   5.315   0.435   0.636
69499SOL     OW10393   5.973  11.004   8.671
69499SOL    HW110394   5.904  11.067   8.650
69499SOL    HW210395   5.938  10.920   8.643
69500SOL     OW10396   2.483   3.611   2.071
69500SOL    HW110397   2.500   3.650   1.985
69500SOL    HW210398   2.466   3.687   2.128
69501SOL     OW10399   8.363   7.131   1.435
69501SOL    HW110400   8.318   7.058   1.478
69501SOL    HW210401   8.424   7.163   1.501
69502SOL     OW10402   1.500   1.317   4.701
69502SOL    HW110403   1.459   1.257   4.639
69502SOL    HW210404   1.552   1.376   4.648
69503SOL     OW10405  11.935   8.867   1.644
69503SOL    HW110406  11.971   8.781   1.623
69503SOL    HW210407  11.915   8.906   1.558
69504SOL     OW10408   2.359  10.153  12.287
69504SOL    HW110409   2.343  10.150  12.193
69504SOL    HW210410   2.348  10.245  12.311
69505SOL     OW10411  10.265   5.509  11.319
69505SOL    HW110412  10.324   5.501  11.244
69505SOL    HW210413  10.197   5.443  11.303
69506SOL     OW10414   2.945  10.259  10.526
69506SOL    HW110415   3.027  10.252  10.477
69506SOL    HW210416   2.877  10.255  10.459
69507SOL     OW10417  14.222   9.323  13.215
69507SOL    HW110418  14.197   9.233  13.195
69507SOL    HW210419  14.247   9.321  13.308
69508SOL     OW10420   6.529  12.770   8.462
69508SOL    HW110421   6.574  12.699   8.417
69508SOL    HW210422   6.522  12.740   8.553
69509SOL     OW10423  14.364   8.901   6.225
69509SOL    HW110424  14.368   8.890   6.320
69509SOL    HW210425  14.346   8.995   6.213
69510SOL     OW10426  14.643   1.759  12.346
69510SOL    HW110427  14.551   1.748  12.321
69510SOL    HW210428  14.690   1.761  12.263
69511SOL     OW10429  14.633  12.873  11.670
69511SOL    HW110430  14.626  12.790  11.717
69511SOL    HW210431  14.690  12.854  11.596
69512SOL     OW10432   8.340   4.450   4.285
69512SOL    HW110433   8.386   4.391   4.345
69512SOL    HW210434   8.249   4.446   4.313
69513SOL     OW10435   9.134   7.399   1.525
69513SOL    HW110436   9.212   7.370   1.571
69513SOL    HW210437   9.112   7.326   1.467
69514SOL     OW10438   1.289   0.882   7.203
69514SOL    HW110439   1.348   0.950   7.235
69514SOL    HW210440   1.211   0.889   7.258
69515SOL     OW10441   5.185   1.133   9.920
69515SOL    HW110442   5.113   1.102   9.864
69515SOL    HW210443   5.158   1.220   9.947
69516SOL     OW10444   5.189  11.824  14.574
69516SOL    HW110445   5.129  11.891  14.606
69516SOL    HW210446   5.132  11.754  14.543
69517SOL     OW10447   7.010   8.519   6.911
69517SOL    HW110448   6.997   8.465   6.989
69517SOL    HW210449   7.032   8.606   6.945
69518SOL     OW10450   8.736  12.373   1.063
69518SOL    HW110451   8.778  12.431   1.125
69518SOL    HW210452   8.661  12.337   1.110
69519SOL     OW10453   6.567   0.521   3.126
69519SOL    HW110454   6.586   0.612   3.150
69519SOL    HW210455   6.490   0.498   3.178
69520SOL     OW10456   7.136   7.624   6.730
69520SOL    HW110457   7.149   7.577   6.648
69520SOL    HW210458   7.044   7.610   6.751
69521SOL     OW10459  14.300   3.919   6.584
69521SOL    HW110460  14.391   3.947   6.588
69521SOL    HW210461  14.304   3.827   6.559
69522SOL     OW10462   1.239   4.779  10.996
69522SOL    HW110463   1.242   4.854  11.054
69522SOL    HW210464   1.248   4.817  10.908
69523SOL     OW10465   4.527   8.232   1.036
69523SOL    HW110466   4.606   8.261   1.081
69523SOL    HW210467   4.482   8.313   1.012
69524SOL     OW10468  11.208   1.484   1.697
69524SOL    HW110469  11.165   1.509   1.779
69524SOL    HW210470  11.294   1.528   1.701
69525SOL     OW10471   2.997  11.565   1.197
69525SOL    HW110472   3.004  11.474   1.226
69525SOL    HW210473   3.050  11.615   1.259
69526SOL     OW10474   7.435   3.413   9.636
69526SOL    HW110475   7.498   3.423   9.565
69526SOL    HW210476   7.476   3.351   9.696
69527SOL     OW10477   5.915   7.090   0.418
69527SOL    HW110478   5.972   7.061   0.489
69527SOL    HW210479   5.829   7.099   0.459
69528SOL     OW10480   8.585   3.697   8.832
69528SOL    HW110481   8.551   3.767   8.775
69528SOL    HW210482   8.585   3.735   8.919
69529SOL     OW10483  13.015   1.905   1.526
69529SOL    HW110484  13.061   1.984   1.499
69529SOL    HW210485  13.022   1.904   1.622
69530SOL     OW10486  12.795  10.190   1.285
69530SOL    HW110487  12.711  10.145   1.286
69530SOL    HW210488  12.835  10.168   1.370
69531SOL     OW10489  12.591  12.290   3.937
69531SOL    HW110490  12.496  12.290   3.948
69531SOL    HW210491  12.612  12.377   3.903
69532SOL     OW10492   6.604   4.688   6.285
69532SOL    HW110493   6.612   4.782   6.302
69532SOL    HW210494   6.682   4.667   6.233
69533SOL     OW10495   7.178   6.859  13.275
69533SOL    HW110496   7.183   6.952  13.254
69533SOL    HW210497   7.101   6.851  13.330
69534SOL     OW10498   2.805   1.013   6.025
69534SOL    HW110499   2.793   1.071   5.950
69534SOL    HW210500   2.873   1.054   6.078
69535SOL     OW10501  10.186   7.698  13.588
69535SOL    HW110502  10.098   7.735  13.579
69535SOL    HW210503  10.222   7.701  13.500
69536SOL     OW10504   2.042  12.609  10.723
69536SOL    HW110505   2.125  12.652  10.741
69536SOL    HW210506   1.990  12.623  10.802
69537SOL     OW10507  13.801   6.512   4.726
69537SOL    HW110508  13.824   6.430   4.770
69537SOL    HW210509  13.732   6.487   4.664
69538SOL     OW10510   6.117   7.126   9.323
69538SOL    HW110511   6.125   7.065   9.396
69538SOL    HW210512   6.064   7.080   9.258
69539SOL     OW10513   2.517  10.596  14.199
69539SOL    HW110514   2.557  10.553  14.274
69539SOL    HW210515   2.486  10.680  14.233
69540SOL     OW10516   0.422  10.418   3.404
69540SOL    HW110517   0.358  10.413   3.334
69540SOL    HW210518   0.410  10.338   3.455
69541SOL     OW10519   1.378   3.910   3.768
69541SOL    HW110520   1.409   3.901   3.678
69541SOL    HW210521   1.430   3.980   3.806
69542SOL     OW10522  13.279  12.416  11.218
69542SOL    HW110523  13.243  12.328  11.214
69542SOL    HW210524  13.327  12.418  11.301
69543SOL     OW10525  12.942   2.273  11.352
69543SOL    HW110526  12.972   2.273  11.261
69543SOL    HW210527  13.019   2.248  11.403
69544SOL     OW10528  10.384   9.946   3.274
69544SOL    HW110529  10.441   9.876   3.243
69544SOL    HW210530  10.366   9.923   3.366
69545SOL     OW10531   8.081  13.772   5.725
69545SOL    HW110532   8.112  13.716   5.797
69545SOL    HW210533   8.119  13.858   5.744
69546SOL     OW10534   7.484  13.979  11.503
69546SOL    HW110535   7.510  14.003  11.592
69546SOL    HW210536   7.408  14.035  11.485
69547SOL     OW10537  10.374   3.383   9.945
69547SOL    HW110538  10.400   3.460   9.894
69547SOL    HW210539  10.290   3.357   9.907
69548SOL     OW10540   6.348  11.128  14.056
69548SOL    HW110541   6.281  11.181  14.100
69548SOL    HW210542   6.386  11.076  14.127
69549SOL     OW10543  12.990   2.308   8.143
69549SOL    HW110544  12.965   2.221   8.174
69549SOL    HW210545  12.960   2.311   8.052
69550SOL     OW10546  13.065   6.245  10.148
69550SOL    HW110547  13.150   6.276  10.180
69550SOL    HW210548  13.061   6.154  10.176
69551SOL     OW10549   4.574   0.546   6.044
69551SOL    HW110550   4.612   0.632   6.058
69551SOL    HW210551   4.608   0.517   5.959
69552SOL     OW10552  10.586  12.508  11.909
69552SOL    HW110553  10.529  12.530  11.836
69552SOL    HW210554  10.532  12.455  11.968
69553SOL     OW10555   4.768   1.525  12.194
69553SOL    HW110556   4.683   1.501  12.158
69553SOL    HW210557   4.809   1.579  12.126
69554SOL     OW10558   7.821   4.690   6.487
69554SOL    HW110559   7.891   4.754   6.474
69554SOL    HW210560   7.854   4.610   6.444
69555SOL     OW10561  10.607   1.088   8.240
69555SOL    HW110562  10.514   1.067   8.234
69555SOL    HW210563  10.645   1.016   8.291
69556SOL     OW10564   3.854   3.968   2.341
69556SOL    HW110565   3.810   3.888   2.311
69556SOL    HW210566   3.837   3.971   2.435
69557SOL     OW10567   6.472  11.706  14.612
69557SOL    HW110568   6.463  11.762  14.535
69557SOL    HW210569   6.390  11.718  14.660
69558SOL     OW10570   6.228   8.677  10.302
69558SOL    HW110571   6.253   8.636  10.220
69558SOL    HW210572   6.309   8.718  10.334
69559SOL     OW10573   3.190   5.356   3.135
69559SOL    HW110574   3.201   5.407   3.215
69559SOL    HW210575   3.244   5.278   3.149
69560SOL     OW10576  13.273   3.430   6.797
69560SOL    HW110577  13.345   3.367   6.806
69560SOL    HW210578  13.303   3.491   6.730
69561SOL     OW10579   0.062   8.250   2.107
69561SOL    HW110580   0.126   8.311   2.070
69561SOL    HW210581   0.040   8.191   2.035
69562SOL     OW10582   7.188   5.191  11.079
69562SOL    HW110583   7.100   5.199  11.116
69562SOL    HW210584   7.210   5.098  11.090
69563SOL     OW10585  13.162   8.166   5.146
69563SOL    HW110586  13.218   8.165   5.069
69563SOL    HW210587  13.092   8.104   5.126
69564SOL     OW10588   4.106   9.336  11.522
69564SOL    HW110589   4.013   9.316  11.535
69564SOL    HW210590   4.132   9.279  11.449
69565SOL     OW10591   1.882   0.677  12.407
69565SOL    HW110592   1.848   0.602  12.455
69565SOL    HW210593   1.891   0.746  12.473
69566SOL     OW10594  12.672   1.507   2.757
69566SOL    HW110595  12.590   1.463   2.778
69566SOL    HW210596  12.673   1.511   2.661
69567SOL     OW10597   0.175   1.299   4.865
69567SOL    HW110598   0.108   1.280   4.799
69567SOL    HW210599   0.224   1.218   4.874
69568SOL     OW10600   8.483   4.020   9.868
69568SOL    HW110601   8.445   3.965   9.937
69568SOL    HW210602   8.413   4.082   9.846
69569SOL     OW10603  12.587  12.969  12.170
69569SOL    HW110604  12.541  13.034  12.117
69569SOL    HW210605  12.517  12.913  12.204
69570SOL     OW10606  12.877   5.438  11.186
69570SOL    HW110607  12.888   5.520  11.138
69570SOL    HW210608  12.820   5.385  11.131
69571SOL     OW10609   4.450  10.597  13.145
69571SOL    HW110610   4.504  10.630  13.074
69571SOL    HW210611   4.454  10.666  13.212
69572SOL     OW10612  13.758   9.924   6.202
69572SOL    HW110613  13.698   9.958   6.269
69572SOL    HW210614  13.823   9.993   6.191
69573SOL     OW10615   3.275   9.165   1.367
69573SOL    HW110616   3.278   9.257   1.340
69573SOL    HW210617   3.214   9.124   1.307
69574SOL     OW10618   4.796   2.389   6.496
69574SOL    HW110619   4.732   2.417   6.431
69574SOL    HW210620   4.833   2.470   6.531
69575SOL     OW10621   7.574  10.538   7.078
69575SOL    HW110622   7.501  10.529   7.138
69575SOL    HW210623   7.650  10.552   7.134
69576SOL     OW10624   9.215   6.223   1.622
69576SOL    HW110625   9.250   6.134   1.624
69576SOL    HW210626   9.134   6.218   1.674
69577SOL     OW10627   9.384   2.775   6.214
69577SOL    HW110628   9.381   2.681   6.230
69577SOL    HW210629   9.456   2.807   6.267
69578SOL     OW10630  12.479   2.618   1.117
69578SOL    HW110631  12.405   2.571   1.155
69578SOL    HW210632  12.502   2.684   1.182
69579SOL     OW10633  11.303   2.429   6.071
69579SOL    HW110634  11.221   2.435   6.022
69579SOL    HW210635  11.322   2.519   6.098
69580SOL     OW10636   4.914   8.179  11.800
69580SOL    HW110637   4.957   8.215  11.723
69580SOL    HW210638   4.960   8.219  11.874
69581SOL     OW10639   6.132   1.205  13.271
69581SOL    HW110640   6.201   1.168  13.326
69581SOL    HW210641   6.097   1.130  13.223
69582SOL     OW10642  11.643   9.825   4.378
69582SOL    HW110643  11.662   9.791   4.291
69582SOL    HW210644  11.659   9.919   4.371
69583SOL     OW10645   8.058   9.686   2.233
69583SOL    HW110646   8.037   9.638   2.153
69583SOL    HW210647   8.096   9.768   2.202
69584SOL     OW10648   7.875  13.968   3.586
69584SOL    HW110649   7.970  13.983   3.579
69584SOL    HW210650   7.837  14.055   3.591
69585SOL     OW10651   1.122   2.472   1.067
69585SOL    HW110652   1.050   2.419   1.101
69585SOL    HW210653   1.133   2.443   0.977
69586SOL     OW10654   2.410   2.522   3.352
69586SOL    HW110655   2.502   2.520   3.378
69586SOL    HW210656   2.404   2.461   3.279
69587SOL     OW10657   8.989   1.902   6.835
69587SOL    HW110658   9.012   1.915   6.743
69587SOL    HW210659   9.072   1.878   6.878
69588SOL     OW10660   5.277  14.511  13.958
69588SOL    HW110661   5.197  14.488  13.911
69588SOL    HW210662   5.261  14.599  13.991
69589SOL     OW10663   8.929  11.039   1.665
69589SOL    HW110664   9.018  11.029   1.632
69589SOL    HW210665   8.939  11.067   1.756
69590SOL     OW10666  10.405   8.221   4.733
69590SOL    HW110667  10.429   8.225   4.826
69590SOL    HW210668  10.432   8.306   4.698
69591SOL     OW10669   9.439   8.168   7.943
69591SOL    HW110670   9.411   8.199   7.857
69591SOL    HW210671   9.442   8.073   7.934
69592SOL     OW10672   5.051  10.572  14.613
69592SOL    HW110673   5.132  10.605  14.574
69592SOL    HW210674   4.982  10.596  14.552
69593SOL     OW10675  11.932   2.387  13.320
69593SOL    HW110676  11.908   2.363  13.409
69593SOL    HW210677  11.879   2.330  13.264
69594SOL     OW10678  13.199   7.428   0.016
69594SOL    HW110679  13.119   7.400   0.062
69594SOL    HW210680  13.227   7.507   0.061
69595SOL     OW10681   0.370   5.262   8.693
69595SOL    HW110682   0.379   5.231   8.784
69595SOL    HW210683   0.420   5.198   8.642
69596SOL     OW10684   7.757  11.930   3.596
69596SOL    HW110685   7.664  11.951   3.592
69596SOL    HW210686   7.762  11.855   3.656
69597SOL     OW10687   3.723   3.821   1.547
69597SOL    HW110688   3.681   3.736   1.562
69597SOL    HW210689   3.667   3.864   1.482
69598SOL     OW10690   2.351  14.143  10.666
69598SOL    HW110691   2.285  14.193  10.713
69598SOL    HW210692   2.373  14.197  10.589
69599SOL     OW10693  11.073   2.365  10.723
69599SOL    HW110694  11.066   2.455  10.753
69599SOL    HW210695  11.008   2.317  10.775
69600SOL     OW10696   1.779  12.980  13.949
69600SOL    HW110697   1.739  13.046  13.892
69600SOL    HW210698   1.723  12.903  13.940
69601SOL     OW10699  10.663   2.392  14.772
69601SOL    HW110700  10.621   2.444  14.840
69601SOL    HW210701  10.643   2.302  14.795
69602SOL     OW10702  13.257   8.314   9.924
69602SOL    HW110703  13.305   8.341  10.002
69602SOL    HW210704  13.325   8.292   9.860
69603SOL     OW10705   9.244  10.039  11.254
69603SOL    HW110706   9.332  10.035  11.216
69603SOL    HW210707   9.254  10.003  11.342
69604SOL     OW10708   5.507   3.801   4.904
69604SOL    HW110709   5.448   3.807   4.828
69604SOL    HW210710   5.454   3.829   4.978
69605SOL     OW10711   6.389  13.616   5.513
69605SOL    HW110712   6.438  13.643   5.436
69605SOL    HW210713   6.302  13.595   5.480
69606SOL     OW10714   8.923   3.351   1.985
69606SOL    HW110715   8.925   3.429   1.929
69606SOL    HW210716   9.010   3.350   2.027
69607SOL     OW10717   3.198   2.718   0.017
69607SOL    HW110718   3.171   2.759   0.099
69607SOL    HW210719   3.140   2.755  14.821
69608SOL     OW10720   6.201   0.994   4.978
69608SOL    HW110721   6.277   1.043   5.011
69608SOL    HW210722   6.239   0.916   4.937
69609SOL     OW10723  10.543   2.388  13.590
69609SOL    HW110724  10.509   2.464  13.544
69609SOL    HW210725  10.545   2.319  13.524
69610SOL     OW10726   7.287   2.470   8.079
69610SOL    HW110727   7.294   2.376   8.059
69610SOL    HW210728   7.341   2.482   8.157
69611SOL     OW10729   7.775  10.425   6.733
69611SOL    HW110730   7.852  10.469   6.768
69611SOL    HW210731   7.741  10.374   6.806
69612SOL     OW10732   0.429   5.086   4.888
69612SOL    HW110733   0.352   5.069   4.834
69612SOL    HW210734   0.402   5.063   4.977
69613SOL     OW10735   4.946   0.489   6.586
69613SOL    HW110736   4.922   0.550   6.656
69613SOL    HW210737   4.950   0.404   6.629
69614SOL     OW10738   9.516   6.775  14.836
69614SOL    HW110739   9.567   6.805   0.042
69614SOL    HW210740   9.445   6.838  14.829
69615SOL     OW10741   2.433   3.263   5.157
69615SOL    HW110742   2.399   3.344   5.196
69615SOL    HW210743   2.383   3.253   5.076
69616SOL     OW10744  10.169   2.781   3.092
69616SOL    HW110745  10.168   2.686   3.080
69616SOL    HW210746  10.209   2.794   3.178
69617SOL     OW10747   4.102   7.639   8.660
69617SOL    HW110748   4.112   7.549   8.692
69617SOL    HW210749   4.164   7.645   8.587
69618SOL     OW10750  14.154   0.321   3.576
69618SOL    HW110751  14.131   0.357   3.662
69618SOL    HW210752  14.106   0.238   3.571
69619SOL     OW10753   5.718   5.541   9.596
69619SOL    HW110754   5.787   5.583   9.544
69619SOL    HW210755   5.756   5.531   9.683
69620SOL     OW10756   4.677   5.031   4.923
69620SOL    HW110757   4.761   5.077   4.913
69620SOL    HW210758   4.633   5.043   4.839
69621SOL     OW10759  14.615  11.594  13.248
69621SOL    HW110760  14.696  11.642  13.259
69621SOL    HW210761  14.550  11.660  13.225
69622SOL     OW10762   7.191   3.886   6.463
69622SOL    HW110763   7.243   3.917   6.389
69622SOL    HW210764   7.254   3.844   6.521
69623SOL     OW10765  14.543   3.545  10.168
69623SOL    HW110766  14.479   3.475  10.175
69623SOL    HW210767  14.566   3.566  10.258
69624SOL     OW10768   5.420  12.287  14.856
69624SOL    HW110769   5.348  12.347  14.836
69624SOL    HW210770   5.492  12.343   0.014
69625SOL     OW10771  10.025  13.839   0.494
69625SOL    HW110772  10.021  13.860   0.587
69625SOL    HW210773   9.940  13.801   0.474
69626SOL     OW10774   1.999  10.618  14.608
69626SOL    HW110775   1.964  10.694  14.560
69626SOL    HW210776   2.068  10.583  14.551
69627SOL     OW10777  11.968   2.506   6.032
69627SOL    HW110778  11.982   2.562   6.108
69627SOL    HW210779  12.031   2.435   6.043
69628SOL     OW10780  13.146   3.680   7.771
69628SOL    HW110781  13.126   3.588   7.754
69628SOL    HW210782  13.123   3.724   7.689
69629SOL     OW10783   5.385   7.806   1.679
69629SOL    HW110784   5.391   7.901   1.681
69629SOL    HW210785   5.452   7.776   1.741
69630SOL     OW10786  13.998  13.783   1.043
69630SOL    HW110787  13.971  13.795   0.952
69630SOL    HW210788  13.982  13.869   1.083
69631SOL     OW10789   4.549   5.808  14.255
69631SOL    HW110790   4.502   5.800  14.338
69631SOL    HW210791   4.636   5.774  14.273
69632SOL     OW10792   4.498   3.059   8.473
69632SOL    HW110793   4.567   3.057   8.539
69632SOL    HW210794   4.537   3.014   8.397
69633SOL     OW10795  10.786   4.589  13.564
69633SOL    HW110796  10.817   4.662  13.617
69633SOL    HW210797  10.763   4.628  13.480
69634SOL     OW10798   7.232   1.310  10.676
69634SOL    HW110799   7.182   1.314  10.758
69634SOL    HW210800   7.224   1.219  10.648
69635SOL     OW10801   5.619  14.548   4.472
69635SOL    HW110802   5.625  14.543   4.567
69635SOL    HW210803   5.575  14.467   4.446
69636SOL     OW10804   9.222   9.626  12.498
69636SOL    HW110805   9.315   9.612  12.482
69636SOL    HW210806   9.180   9.609  12.414
69637SOL     OW10807  11.222   0.386  13.082
69637SOL    HW110808  11.213   0.325  13.009
69637SOL    HW210809  11.135   0.426  13.091
69638SOL     OW10810  11.246   9.466  11.566
69638SOL    HW110811  11.325   9.414  11.555
69638SOL    HW210812  11.251   9.533  11.498
69639SOL     OW10813   9.998   8.015  13.102
69639SOL    HW110814  10.080   7.991  13.060
69639SOL    HW210815   9.998   8.111  13.103
69640SOL     OW10816  14.034   4.307  10.067
69640SOL    HW110817  14.046   4.219  10.030
69640SOL    HW210818  13.939   4.317  10.074
69641SOL     OW10819  12.004   5.570   5.161
69641SOL    HW110820  12.012   5.570   5.256
69641SOL    HW210821  11.961   5.654   5.141
69642SOL     OW10822   6.076   0.132  12.794
69642SOL    HW110823   6.130   0.085  12.731
69642SOL    HW210824   6.100   0.224  12.782
69643SOL     OW10825   0.023   9.494   5.071
69643SOL    HW110826  14.838   9.416   5.085
69643SOL    HW210827   0.095   9.463   5.016
69644SOL     OW10828  10.827   4.102  11.266
69644SOL    HW110829  10.840   4.101  11.172
69644SOL    HW210830  10.864   4.185  11.295
69645SOL     OW10831   1.742   9.800   0.129
69645SOL    HW110832   1.809   9.753   0.078
69645SOL    HW210833   1.791   9.840   0.201
69646SOL     OW10834   8.474   0.118   9.720
69646SOL    HW110835   8.518   0.193   9.680
69646SOL    HW210836   8.450   0.063   9.646
69647SOL     OW10837   7.191   9.531  14.727
69647SOL    HW110838   7.210   9.599  14.791
69647SOL    HW210839   7.111   9.490  14.759
69648SOL     OW10840   6.851   9.814   3.597
69648SOL    HW110841   6.765   9.799   3.635
69648SOL    HW210842   6.875   9.903   3.625
69649SOL     OW10843   9.273   7.004   0.706
69649SOL    HW110844   9.178   7.003   0.714
69649SOL    HW210845   9.292   6.943   0.634
69650SOL     OW10846  13.937   6.832   2.655
69650SOL    HW110847  14.032   6.827   2.665
69650SOL    HW210848  13.924   6.869   2.568
69651SOL     OW10849   1.778   8.050  14.376
69651SOL    HW110850   1.749   8.130  14.419
69651SOL    HW210851   1.788   8.074  14.284
69652SOL     OW10852   4.583  11.087   2.127
69652SOL    HW110853   4.586  11.023   2.198
69652SOL    HW210854   4.533  11.160   2.164
69653SOL     OW10855   8.782   2.771  13.906
69653SOL    HW110856   8.840   2.846  13.921
69653SOL    HW210857   8.699   2.796  13.946
69654SOL     OW10858   7.497   2.082  11.037
69654SOL    HW110859   7.508   2.094  11.131
69654SOL    HW210860   7.586   2.083  11.001
69655SOL     OW10861   4.221   0.982   7.209
69655SOL    HW110862   4.135   0.988   7.166
69655SOL    HW210863   4.279   0.947   7.142
69656SOL     OW10864   1.201  13.304   1.240
69656SOL    HW110865   1.238  13.245   1.306
69656SOL    HW210866   1.207  13.391   1.280
69657SOL     OW10867   7.073   7.700   4.881
69657SOL    HW110868   7.005   7.722   4.816
69657SOL    HW210869   7.081   7.605   4.876
69658SOL     OW10870  12.415  14.006   4.099
69658SOL    HW110871  12.386  13.915   4.099
69658SOL    HW210872  12.501  14.003   4.056
69659SOL     OW10873   3.779   1.697   7.272
69659SOL    HW110874   3.685   1.684   7.258
69659SOL    HW210875   3.785   1.781   7.317
69660SOL     OW10876   5.446  13.131  14.756
69660SOL    HW110877   5.516  13.185  14.793
69660SOL    HW210878   5.365  13.173  14.784
69661SOL     OW10879   3.557   8.270   5.232
69661SOL    HW110880   3.486   8.214   5.262
69661SOL    HW210881   3.636   8.227   5.265
69662SOL     OW10882  10.907  11.565  10.923
69662SOL    HW110883  10.953  11.644  10.897
69662SOL    HW210884  10.856  11.539  10.846
69663SOL     OW10885   0.082   2.277  10.446
69663SOL    HW110886   0.076   2.370  10.421
69663SOL    HW210887   0.009   2.264  10.506
69664SOL     OW10888   4.827   5.446  13.614
69664SOL    HW110889   4.910   5.437  13.568
69664SOL    HW210890   4.771   5.494  13.554
69665SOL     OW10891   0.923   4.269  13.325
69665SOL    HW110892   0.855   4.204  13.303
69665SOL    HW210893   0.874   4.349  13.342
69666SOL     OW10894   3.671   6.214   1.723
69666SOL    HW110895   3.723   6.137   1.698
69666SOL    HW210896   3.706   6.240   1.808
69667SOL     OW10897   1.090  11.328   4.601
69667SOL    HW110898   1.111  11.314   4.509
69667SOL    HW210899   0.995  11.334   4.604
69668SOL     OW10900  11.446   6.456  12.342
69668SOL    HW110901  11.520   6.515  12.328
69668SOL    HW210902  11.372   6.500  12.300
69669SOL     OW10903   8.653   3.881   8.629
69669SOL    HW110904   8.591   3.952   8.643
69669SOL    HW210905   8.647   3.861   8.535
69670SOL     OW10906  13.924   7.923   3.781
69670SOL    HW110907  13.885   7.958   3.861
69670SOL    HW210908  14.011   7.892   3.808
69671SOL     OW10909   9.579  14.024   4.156
69671SOL    HW110910   9.637  14.099   4.153
69671SOL    HW210911   9.552  14.011   4.065
69672SOL     OW10912   9.629  13.082   5.083
69672SOL    HW110913   9.557  13.083   5.146
69672SOL    HW210914   9.700  13.037   5.129
69673SOL     OW10915   5.687   0.290  12.545
69673SOL    HW110916   5.704   0.196  12.546
69673SOL    HW210917   5.612   0.300  12.488
69674SOL     OW10918   7.123  13.491  11.091
69674SOL    HW110919   7.065  13.481  11.016
69674SOL    HW210920   7.164  13.576  11.079
69675SOL     OW10921   9.823   5.771   0.762
69675SOL    HW110922   9.819   5.775   0.858
69675SOL    HW210923   9.915   5.751   0.744
69676SOL     OW10924   2.660   6.657   9.181
69676SOL    HW110925   2.572   6.692   9.168
69676SOL    HW210926   2.718   6.721   9.140
69677SOL     OW10927  10.296  13.139   9.620
69677SOL    HW110928  10.373  13.085   9.634
69677SOL    HW210929  10.322  13.226   9.649
69678SOL     OW10930   4.508   1.459   9.067
69678SOL    HW110931   4.510   1.402   8.991
69678SOL    HW210932   4.438   1.424   9.122
69679SOL     OW10933   6.417   9.921   5.437
69679SOL    HW110934   6.329   9.888   5.457
69679SOL    HW210935   6.470   9.842   5.427
69680SOL     OW10936   1.807   3.970   7.087
69680SOL    HW110937   1.864   3.896   7.068
69680SOL    HW210938   1.867   4.044   7.097
69681SOL     OW10939   2.075   4.988   0.853
69681SOL    HW110940   2.090   4.979   0.759
69681SOL    HW210941   2.021   4.913   0.876
69682SOL     OW10942   5.617   7.244   9.221
69682SOL    HW110943   5.665   7.283   9.148
69682SOL    HW210944   5.639   7.298   9.296
69683SOL     OW10945  13.210  12.708  13.165
69683SOL    HW110946  13.243  12.683  13.079
69683SOL    HW210947  13.232  12.635  13.222
69684SOL     OW10948   2.097  12.164   8.260
69684SOL    HW110949   2.131  12.208   8.337
69684SOL    HW210950   2.002  12.159   8.274
69685SOL     OW10951   8.969   5.610  11.809
69685SOL    HW110952   8.983   5.524  11.848
69685SOL    HW210953   8.969   5.671  11.883
69686SOL     OW10954   9.014   3.506  13.098
69686SOL    HW110955   9.102   3.468  13.105
69686SOL    HW210956   8.965   3.462  13.168
69687SOL     OW10957   2.729  12.715  11.410
69687SOL    HW110958   2.819  12.683  11.409
69687SOL    HW210959   2.737  12.805  11.442
69688SOL     OW10960   6.670  14.503  13.566
69688SOL    HW110961   6.703  14.549  13.643
69688SOL    HW210962   6.595  14.453  13.598
69689SOL     OW10963   6.317  11.040   3.178
69689SOL    HW110964   6.295  11.125   3.216
69689SOL    HW210965   6.399  11.015   3.220
69690SOL     OW10966   9.247   4.612   0.442
69690SOL    HW110967   9.232   4.651   0.529
69690SOL    HW210968   9.334   4.573   0.449
69691SOL     OW10969   1.490   9.262  13.871
69691SOL    HW110970   1.445   9.330  13.922
69691SOL    HW210971   1.581   9.264  13.902
69692SOL     OW10972  10.768   6.014   7.958
69692SOL    HW110973  10.762   6.030   8.052
69692SOL    HW210974  10.742   5.922   7.948
69693SOL     OW10975   5.418   7.540   9.916
69693SOL    HW110976   5.351   7.554   9.849
69693SOL    HW210977   5.496   7.583   9.881
69694SOL     OW10978   7.988  13.896   4.207
69694SOL    HW110979   7.957  13.871   4.121
69694SOL    HW210980   8.057  13.961   4.191
69695SOL     OW10981   5.245   3.859   4.215
69695SOL    HW110982   5.310   3.804   4.170
69695SOL    HW210983   5.186   3.796   4.257
69696SOL     OW10984   8.574  12.157   2.035
69696SOL    HW110985   8.633  12.103   2.088
69696SOL    HW210986   8.534  12.217   2.097
69697SOL     OW10987   5.266   7.775   8.512
69697SOL    HW110988   5.343   7.777   8.455
69697SOL    HW210989   5.269   7.688   8.552
69698SOL     OW10990   2.648   8.553  11.620
69698SOL    HW110991   2.625   8.537  11.712
69698SOL    HW210992   2.676   8.467  11.588
69699SOL     OW10993  12.530   6.602   3.495
69699SOL    HW110994  12.474   6.526   3.478
69699SOL    HW210995  12.567   6.625   3.409
69700SOL     OW10996   8.299   3.898   0.240
69700SOL    HW110997   8.394   3.906   0.241
69700SOL    HW210998   8.281   3.820   0.293
69701SOL     OW10999   1.675   1.216  13.193
69701SOL    HW111000   1.644   1.132  13.225
69701SOL    HW211001   1.656   1.215  13.099
69702SOL     OW11002  11.133   2.722   3.414
69702SOL    HW111003  11.154   2.666   3.488
69702SOL    HW211004  11.071   2.786   3.449
69703SOL     OW11005  14.713   8.978   9.591
69703SOL    HW111006  14.689   8.927   9.668
69703SOL    HW211007  14.722   9.068   9.624
69704SOL     OW11008   0.028  13.975   9.242
69704SOL    HW111009  14.819  14.007   9.197
69704SOL    HW211010  14.865  13.936   9.323
69705SOL     OW11011   3.118   6.517   2.218
69705SOL    HW111012   3.044   6.578   2.209
69705SOL    HW211013   3.193   6.573   2.240
69706SOL     OW11014  14.634  13.187   6.381
69706SOL    HW111015  14.669  13.187   6.292
69706SOL    HW211016  14.550  13.232   6.374
69707SOL     OW11017   7.477  13.938  12.210
69707SOL    HW111018   7.556  13.988  12.229
69707SOL    HW211019   7.436  13.985  12.138
69708SOL     OW11020   9.106   3.399   9.355
69708SOL    HW111021   9.160   3.476   9.335
69708SOL    HW211022   9.031   3.433   9.403
69709SOL     OW11023   9.693   6.665   1.976
69709SOL    HW111024   9.745   6.707   1.907
69709SOL    HW211025   9.688   6.574   1.949
69710SOL     OW11026  13.626   7.034   0.352
69710SOL    HW111027  13.597   7.018   0.441
69710SOL    HW211028  13.547   7.059   0.304
69711SOL     OW11029   0.085   6.072   0.588
69711SOL    HW111030   0.082   6.154   0.538
69711SOL    HW211031   0.178   6.055   0.601
69712SOL     OW11032   1.796   4.882  12.952
69712SOL    HW111033   1.855   4.843  12.889
69712SOL    HW211034   1.802   4.825  13.029
69713SOL     OW11035   3.258   1.749  12.542
69713SOL    HW111036   3.227   1.727  12.454
69713SOL    HW211037   3.230   1.676  12.597
69714SOL     OW11038   6.803  14.017   1.459
69714SOL    HW111039   6.726  14.068   1.486
69714SOL    HW211040   6.853  14.076   1.404
69715SOL     OW11041  14.623  13.838  12.964
69715SOL    HW111042  14.617  13.878  12.878
69715SOL    HW211043  14.695  13.776  12.957
69716SOL     OW11044   7.638   9.102  14.201
69716SOL    HW111045   7.630   9.147  14.285
69716SOL    HW211046   7.563   9.133  14.150
69717SOL     OW11047   6.874   1.964  12.906
69717SOL    HW111048   6.828   1.885  12.935
69717SOL    HW211049   6.886   2.015  12.985
69718SOL     OW11050   1.381   7.922   0.519
69718SOL    HW111051   1.377   7.978   0.442
69718SOL    HW211052   1.471   7.929   0.549
69719SOL     OW11053   3.541   9.009   5.860
69719SOL    HW111054   3.559   9.096   5.825
69719SOL    HW211055   3.608   8.952   5.821
69720SOL     OW11056   1.294   9.203   9.091
69720SOL    HW111057   1.215   9.234   9.134
69720SOL    HW211058   1.310   9.117   9.130
69721SOL     OW11059   4.042   3.827  12.650
69721SOL    HW111060   4.106   3.847  12.718
69721SOL    HW211061   4.086   3.761  12.595
69722SOL     OW11062   8.911  13.521   3.811
69722SOL    HW111063   8.879  13.579   3.881
69722SOL    HW211064   8.838  13.517   3.749
69723SOL     OW11065  12.524   1.301   1.920
69723SOL    HW111066  12.523   1.262   1.833
69723SOL    HW211067  12.541   1.394   1.905
69724SOL     OW11068   5.860   5.907  10.474
69724SOL    HW111069   5.873   5.996  10.442
69724SOL    HW211070   5.867   5.852  10.395
69725SOL     OW11071   6.086   8.680  10.617
69725SOL    HW111072   6.130   8.610  10.568
69725SOL    HW211073   6.154   8.746  10.630
69726SOL     OW11074  13.009   8.434  10.325
69726SOL    HW111075  12.952   8.358  10.325
69726SOL    HW211076  12.995   8.475  10.411
69727SOL     OW11077   4.822  12.287   2.304
69727SOL    HW111078   4.747  12.346   2.306
69727SOL    HW211079   4.783  12.200   2.301
69728SOL     OW11080   9.008   5.766   3.132
69728SOL    HW111081   9.038   5.841   3.184
69728SOL    HW211082   8.936   5.728   3.183
69729SOL     OW11083  10.700   9.274  10.755
69729SOL    HW111084  10.606   9.272  10.776
69729SOL    HW211085  10.713   9.356  10.708
69730SOL     OW11086  14.164   9.520   4.890
69730SOL    HW111087  14.222   9.455   4.851
69730SOL    HW211088  14.107   9.548   4.819
69731SOL     OW11089   9.711   1.880   1.466
69731SOL    HW111090   9.790   1.918   1.429
69731SOL    HW211091   9.710   1.909   1.557
69732SOL     OW11092  11.102   7.378  13.542
69732SOL    HW111093  11.102   7.313  13.612
69732SOL    HW211094  11.165   7.444  13.571
69733SOL     OW11095  14.215   0.207   3.027
69733SOL    HW111096  14.163   0.230   3.104
69733SOL    HW211097  14.283   0.273   3.023
69734SOL     OW11098   4.953   1.228  14.477
69734SOL    HW111099   5.005   1.305  14.453
69734SOL    HW211100   5.017   1.159  14.490
69735SOL     OW11101   9.375  12.685   7.391
69735SOL    HW111102   9.337  12.668   7.304
69735SOL    HW211103   9.309  12.654   7.453
69736SOL     OW11104  13.613   4.024   0.995
69736SOL    HW111105  13.708   4.023   0.987
69736SOL    HW211106  13.586   4.105   0.951
69737SOL     OW11107   2.903   1.292  14.042
69737SOL    HW111108   2.983   1.239  14.034
69737SOL    HW211109   2.837   1.241  13.995
69738SOL     OW11110  11.217  12.789   9.369
69738SOL    HW111111  11.208  12.698   9.397
69738SOL    HW211112  11.173  12.793   9.284
69739SOL     OW11113  13.347  13.169   7.445
69739SOL    HW111114  13.402  13.166   7.367
69739SOL    HW211115  13.342  13.078   7.474
69740SOL     OW11116   2.928   5.765   2.539
69740SOL    HW111117   2.918   5.670   2.541
69740SOL    HW211118   2.983   5.785   2.615
69741SOL     OW11119   5.150  11.210   1.224
69741SOL    HW111120   5.088  11.255   1.166
69741SOL    HW211121   5.122  11.234   1.312
69742SOL     OW11122   0.526   1.970  10.137
69742SOL    HW111123   0.568   1.917  10.070
69742SOL    HW211124   0.532   2.060  10.104
69743SOL     OW11125   1.267   7.527   9.831
69743SOL    HW111126   1.351   7.573   9.841
69743SOL    HW211127   1.208   7.573   9.891
69744SOL     OW11128   8.819   3.364   8.929
69744SOL    HW111129   8.830   3.458   8.946
69744SOL    HW211130   8.878   3.322   8.992
69745SOL     OW11131   6.399  10.964  11.024
69745SOL    HW111132   6.456  11.025  11.071
69745SOL    HW211133   6.443  10.950  10.940
69746SOL     OW11134   0.663   3.526   3.181
69746SOL    HW111135   0.593   3.555   3.240
69746SOL    HW211136   0.695   3.606   3.140
69747SOL     OW11137   7.545  13.350  14.447
69747SOL    HW111138   7.577  13.439  14.460
69747SOL    HW211139   7.475  13.359  14.382
69748SOL     OW11140   1.572   8.589  10.085
69748SOL    HW111141   1.619   8.653  10.139
69748SOL    HW211142   1.529   8.531  10.148
69749SOL     OW11143   2.324   5.962   7.838
69749SOL    HW111144   2.393   5.908   7.876
69749SOL    HW211145   2.243   5.925   7.871
69750SOL     OW11146  12.416  11.477   0.116
69750SOL    HW111147  12.369  11.546   0.164
69750SOL    HW211148  12.477  11.525   0.060
69751SOL     OW11149   8.406  11.019   5.612
69751SOL    HW111150   8.419  10.980   5.526
69751SOL    HW211151   8.418  10.947   5.673
69752SOL     OW11152  13.396  11.307  11.249
69752SOL    HW111153  13.306  11.328  11.273
69752SOL    HW211154  13.389  11.268  11.161
69753SOL     OW11155   2.502  10.355   9.375
69753SOL    HW111156   2.453  10.393   9.302
69753SOL    HW211157   2.442  10.360   9.449
69754SOL     OW11158  13.445  10.544  11.652
69754SOL    HW111159  13.385  10.536  11.726
69754SOL    HW211160  13.415  10.478  11.590
69755SOL     OW11161   3.631  12.550  10.897
69755SOL    HW111162   3.610  12.560  10.990
69755SOL    HW211163   3.716  12.591  10.886
69756SOL     OW11164   4.062  10.238  10.021
69756SOL    HW111165   4.139  10.246  10.077
69756SOL    HW211166   4.041  10.327   9.994
69757SOL     OW11167   1.793   9.128  14.449
69757SOL    HW111168   1.717   9.098  14.498
69757SOL    HW211169   1.833   9.047  14.416
69758SOL     OW11170  11.461   3.381  11.676
69758SOL    HW111171  11.479   3.369  11.582
69758SOL    HW211172  11.524   3.322  11.719
69759SOL     OW11173  14.842   4.538  10.697
69759SOL    HW111174  14.865   4.601  10.765
69759SOL    HW211175  14.783   4.585  10.638
69760SOL     OW11176  13.425   6.597  13.144
69760SOL    HW111177  13.458   6.683  13.118
69760SOL    HW211178  13.395   6.557  13.063
69761SOL     OW11179  13.230   5.237   8.131
69761SOL    HW111180  13.146   5.260   8.091
69761SOL    HW211181  13.241   5.144   8.111
69762SOL     OW11182   8.685  12.874   4.126
69762SOL    HW111183   8.665  12.893   4.034
69762SOL    HW211184   8.773  12.909   4.140
69763SOL     OW11185   2.943   3.833   4.811
69763SOL    HW111186   2.894   3.770   4.864
69763SOL    HW211187   2.961   3.786   4.729
69764SOL     OW11188   7.025   4.201  14.115
69764SOL    HW111189   7.067   4.196  14.029
69764SOL    HW211190   7.031   4.113  14.150
69765SOL     OW11191   8.703  11.605  14.032
69765SOL    HW111192   8.780  11.656  14.010
69765SOL    HW211193   8.718  11.577  14.123
69766SOL     OW11194   8.058   9.050   6.073
69766SOL    HW111195   7.982   9.022   6.123
69766SOL    HW211196   8.114   8.972   6.069
69767SOL     OW11197   6.012   4.625  14.327
69767SOL    HW111198   6.089   4.626  14.382
69767SOL    HW211199   6.034   4.681  14.253
69768SOL     OW11200  14.766   4.930  10.697
69768SOL    HW111201  14.753   4.917  10.791
69768SOL    HW211202  14.813   5.014  10.691
69769SOL     OW11203  14.574   0.038   3.167
69769SOL    HW111204  14.646   0.076   3.218
69769SOL    HW211205  14.576   0.085   3.084
69770SOL     OW11206   0.269   7.845  12.596
69770SOL    HW111207   0.248   7.752  12.598
69770SOL    HW211208   0.193   7.888  12.635
69771SOL     OW11209  10.332   9.923  14.486
69771SOL    HW111210  10.404   9.981  14.510
69771SOL    HW211211  10.356   9.838  14.523
69772SOL     OW11212   6.368  12.428   3.321
69772SOL    HW111213   6.400  12.462   3.237
69772SOL    HW211214   6.314  12.498   3.356
69773SOL     OW11215   0.530   6.193  11.915
69773SOL    HW111216   0.467   6.209  11.845
69773SOL    HW211217   0.594   6.263  11.907
69774SOL     OW11218  10.583   1.528   4.988
69774SOL    HW111219  10.500   1.481   5.002
69774SOL    HW211220  10.576   1.605   5.045
69775SOL     OW11221   7.367   5.005   3.980
69775SOL    HW111222   7.338   5.050   3.900
69775SOL    HW211223   7.321   5.050   4.051
69776SOL     OW11224   3.263   4.250  13.182
69776SOL    HW111225   3.265   4.157  13.162
69776SOL    HW211226   3.321   4.260  13.257
69777SOL     OW11227  10.186  11.168   3.305
69777SOL    HW111228  10.228  11.141   3.223
69777SOL    HW211229  10.249  11.228   3.346
69778SOL     OW11230  11.343  11.982   8.329
69778SOL    HW111231  11.402  12.037   8.277
69778SOL    HW211232  11.340  11.899   8.282
69779SOL     OW11233  13.585   6.009  13.198
69779SOL    HW111234  13.539   6.081  13.155
69779SOL    HW211235  13.593   6.037  13.289
69780SOL     OW11236   0.814  12.424   5.884
69780SOL    HW111237   0.882  12.362   5.858
69780SOL    HW211238   0.767  12.379   5.954
69781SOL     OW11239  12.082   0.147  14.702
69781SOL    HW111240  12.153   0.166  14.763
69781SOL    HW211241  12.083   0.052  14.691
69782SOL     OW11242   3.644   3.348   1.204
69782SOL    HW111243   3.713   3.346   1.137
69782SOL    HW211244   3.615   3.439   1.206
69783SOL     OW11245   1.863   8.616   3.843
69783SOL    HW111246   1.825   8.530   3.824
69783SOL    HW211247   1.939   8.597   3.897
69784SOL     OW11248  12.928  13.504   2.153
69784SOL    HW111249  12.896  13.428   2.104
69784SOL    HW211250  12.996  13.541   2.098
69785SOL     OW11251  14.801   9.090   3.872
69785SOL    HW111252  14.797   9.042   3.790
69785SOL    HW211253  14.711   9.088   3.905
69786SOL     OW11254   3.777   9.734   4.090
69786SOL    HW111255   3.835   9.806   4.114
69786SOL    HW211256   3.753   9.751   3.999
69787SOL     OW11257   9.201   3.650   4.026
69787SOL    HW111258   9.128   3.589   4.011
69787SOL    HW211259   9.208   3.656   4.121
69788SOL     OW11260   6.744  14.568   1.040
69788SOL    HW111261   6.686  14.573   1.116
69788SOL    HW211262   6.809  14.637   1.055
69789SOL     OW11263   4.327   8.018   2.165
69789SOL    HW111264   4.285   8.077   2.227
69789SOL    HW211265   4.255   7.970   2.124
69790SOL     OW11266   8.703  11.934  14.593
69790SOL    HW111267   8.760  11.869  14.553
69790SOL    HW211268   8.621  11.888  14.608
69791SOL     OW11269  14.568  13.591   1.216
69791SOL    HW111270  14.474  13.600   1.205
69791SOL    HW211271  14.606  13.640   1.144
69792SOL     OW11272   4.986   8.646  13.092
69792SOL    HW111273   4.934   8.704  13.036
69792SOL    HW211274   5.036   8.593  13.031
69793SOL     OW11275   6.412  10.271   5.579
69793SOL    HW111276   6.404  10.339   5.646
69793SOL    HW211277   6.448  10.196   5.625
69794SOL     OW11278  11.862   3.066   3.285
69794SOL    HW111279  11.828   3.121   3.356
69794SOL    HW211280  11.790   3.008   3.263
69795SOL     OW11281   2.865   5.129   2.753
69795SOL    HW111282   2.883   5.056   2.812
69795SOL    HW211283   2.795   5.097   2.696
69796SOL     OW11284  14.285   5.130   9.632
69796SOL    HW111285  14.310   5.079   9.709
69796SOL    HW211286  14.199   5.095   9.607
69797SOL     OW11287   0.247  14.560   4.839
69797SOL    HW111288   0.204  14.477   4.863
69797SOL    HW211289   0.180  14.607   4.788
69798SOL     OW11290  10.652   1.610   8.560
69798SOL    HW111291  10.562   1.590   8.535
69798SOL    HW211292  10.676   1.685   8.505
69799SOL     OW11293  14.833   4.000  12.781
69799SOL    HW111294  14.847   3.915  12.740
69799SOL    HW211295  14.759   4.038  12.733
69800SOL     OW11296   7.980   1.297  11.419
69800SOL    HW111297   7.967   1.353  11.495
69800SOL    HW211298   7.891   1.279  11.387
69801SOL     OW11299   0.105   6.841   6.391
69801SOL    HW111300   0.031   6.891   6.425
69801SOL    HW211301   0.104   6.759   6.441
69802SOL     OW11302   9.481  14.773   2.270
69802SOL    HW111303   9.515  14.712   2.336
69802SOL    HW211304   9.477  14.857   2.315
69803SOL     OW11305   9.231  14.237   6.391
69803SOL    HW111306   9.197  14.318   6.353
69803SOL    HW211307   9.233  14.255   6.486
69804SOL     OW11308  13.373  11.872   6.549
69804SOL    HW111309  13.437  11.866   6.479
69804SOL    HW211310  13.395  11.801   6.609
69805SOL     OW11311  11.825   2.606  12.708
69805SOL    HW111312  11.731   2.613  12.694
69805SOL    HW211313  11.856   2.553  12.634
69806SOL     OW11314   3.667   3.987  11.129
69806SOL    HW111315   3.761   3.968  11.123
69806SOL    HW211316   3.662   4.060  11.191
69807SOL     OW11317   4.396   6.704   7.540
69807SOL    HW111318   4.433   6.762   7.474
69807SOL    HW211319   4.467   6.645   7.563
69808SOL     OW11320  11.755   2.672  11.233
69808SOL    HW111321  11.719   2.584  11.222
69808SOL    HW211322  11.707   2.726  11.170
69809SOL     OW11323   5.045  11.365   5.168
69809SOL    HW111324   4.989  11.421   5.222
69809SOL    HW211325   5.132  11.374   5.206
69810SOL     OW11326   0.761   0.696   4.636
69810SOL    HW111327   0.843   0.672   4.680
69810SOL    HW211328   0.750   0.789   4.656
69811SOL     OW11329  14.268   5.865   6.603
69811SOL    HW111330  14.331   5.793   6.595
69811SOL    HW211331  14.183   5.824   6.591
69812SOL     OW11332  14.834   7.200  10.605
69812SOL    HW111333  14.836   7.292  10.629
69812SOL    HW211334  14.755   7.191  10.552
69813SOL     OW11335  12.225  13.354  14.439
69813SOL    HW111336  12.234  13.265  14.407
69813SOL    HW211337  12.216  13.344  14.534
69814SOL     OW11338   2.601   8.512   5.612
69814SOL    HW111339   2.654   8.491   5.535
69814SOL    HW211340   2.564   8.599   5.593
69815SOL     OW11341  14.433   2.738   4.529
69815SOL    HW111342  14.439   2.796   4.453
69815SOL    HW211343  14.357   2.683   4.511
69816SOL     OW11344  11.475   6.977  11.958
69816SOL    HW111345  11.400   6.932  11.996
69816SOL    HW211346  11.436   7.046  11.903
69817SOL     OW11347   8.198   3.514   5.336
69817SOL    HW111348   8.141   3.544   5.406
69817SOL    HW211349   8.191   3.582   5.268
69818SOL     OW11350   0.744  11.259  11.127
69818SOL    HW111351   0.670  11.224  11.176
69818SOL    HW211352   0.820  11.213  11.162
69819SOL     OW11353  14.180  12.915  10.154
69819SOL    HW111354  14.219  12.997  10.184
69819SOL    HW211355  14.140  12.876  10.232
69820SOL     OW11356  11.297   3.767   4.120
69820SOL    HW111357  11.206   3.746   4.098
69820SOL    HW211358  11.291   3.808   4.206
69821SOL     OW11359  10.375   2.745   1.974
69821SOL    HW111360  10.355   2.693   2.052
69821SOL    HW211361  10.416   2.683   1.914
69822SOL     OW11362   0.932   2.234   8.974
69822SOL    HW111363   0.879   2.280   9.040
69822SOL    HW211364   0.877   2.232   8.896
69823SOL     OW11365  11.061   0.915   4.354
69823SOL    HW111366  10.993   0.910   4.287
69823SOL    HW211367  11.132   0.964   4.312
69824SOL     OW11368   7.485   3.096   7.031
69824SOL    HW111369   7.481   3.008   6.993
69824SOL    HW211370   7.563   3.135   6.992
69825SOL     OW11371  10.239   3.698   7.315
69825SOL    HW111372  10.202   3.621   7.360
69825SOL    HW211373  10.244   3.765   7.383
69826SOL     OW11374   0.004   2.298   5.022
69826SOL    HW111375  14.861   2.257   4.937
69826SOL    HW211376   0.042   2.384   5.003
69827SOL     OW11377  14.402  10.765   8.839
69827SOL    HW111378  14.328  10.819   8.867
69827SOL    HW211379  14.377  10.676   8.864
69828SOL     OW11380  12.256   3.180   8.678
69828SOL    HW111381  12.164   3.205   8.672
69828SOL    HW211382  12.275   3.138   8.594
69829SOL     OW11383   7.737   7.083   7.274
69829SOL    HW111384   7.680   7.114   7.344
69829SOL    HW211385   7.738   7.155   7.210
69830SOL     OW11386  10.860   8.617  11.911
69830SOL    HW111387  10.953   8.635  11.897
69830SOL    HW211388  10.836   8.672  11.986
69831SOL     OW11389  12.184   0.778  13.280
69831SOL    HW111390  12.106   0.726  13.301
69831SOL    HW211391  12.256   0.714  13.281
69832SOL     OW11392  12.508   5.173   4.829
69832SOL    HW111393  12.564   5.176   4.751
69832SOL    HW211394  12.552   5.231   4.892
69833SOL     OW11395   7.688  11.463  13.428
69833SOL    HW111396   7.648  11.417  13.501
69833SOL    HW211397   7.620  11.465  13.360
69834SOL     OW11398   9.872   8.869   2.147
69834SOL    HW111399   9.928   8.791   2.143
69834SOL    HW211400   9.912   8.930   2.085
69835SOL     OW11401   0.657   1.929  11.024
69835SOL    HW111402   0.734   1.982  11.046
69835SOL    HW211403   0.684   1.839  11.039
69836SOL     OW11404   5.145   9.363   5.751
69836SOL    HW111405   5.080   9.339   5.685
69836SOL    HW211406   5.202   9.427   5.707
69837SOL     OW11407  11.026   1.256   6.192
69837SOL    HW111408  11.063   1.274   6.279
69837SOL    HW211409  11.007   1.343   6.156
69838SOL     OW11410   9.459   7.628  12.604
69838SOL    HW111411   9.479   7.699  12.543
69838SOL    HW211412   9.516   7.556  12.575
69839SOL     OW11413   4.275  13.181   0.084
69839SOL    HW111414   4.311  13.110   0.137
69839SOL    HW211415   4.266  13.143  14.866
69840SOL     OW11416   5.552   3.066  13.847
69840SOL    HW111417   5.639   3.103  13.854
69840SOL    HW211418   5.550   3.024  13.761
69841SOL     OW11419   0.916   3.686   9.386
69841SOL    HW111420   0.969   3.761   9.361
69841SOL    HW211421   0.975   3.611   9.381
69842SOL     OW11422  11.596   0.918   9.766
69842SOL    HW111423  11.576   0.825   9.760
69842SOL    HW211424  11.632   0.941   9.680
69843SOL     OW11425   9.968  13.927  12.073
69843SOL    HW111426   9.883  13.908  12.035
69843SOL    HW211427  10.020  13.848  12.056
69844SOL     OW11428   6.491  14.570   3.775
69844SOL    HW111429   6.498  14.540   3.866
69844SOL    HW211430   6.406  14.538   3.746
69845SOL     OW11431   6.956   6.001   2.132
69845SOL    HW111432   6.869   5.965   2.113
69845SOL    HW211433   6.989   5.948   2.204
69846SOL     OW11434   6.233  11.823   2.039
69846SOL    HW111435   6.194  11.827   1.952
69846SOL    HW211436   6.257  11.913   2.059
69847SOL     OW11437  10.427  12.673   2.138
69847SOL    HW111438  10.378  12.657   2.218
69847SOL    HW211439  10.364  12.712   2.078
69848SOL     OW11440   2.319  13.627   8.977
69848SOL    HW111441   2.363  13.667   8.902
69848SOL    HW211442   2.375  13.650   9.052
69849SOL     OW11443   5.113   6.265   3.688
69849SOL    HW111444   5.079   6.187   3.645
69849SOL    HW211445   5.201   6.276   3.652
69850SOL     OW11446   1.209   4.270  13.257
69850SOL    HW111447   1.233   4.209  13.328
69850SOL    HW211448   1.115   4.281  13.265
69851SOL     OW11449   0.033   8.121  10.635
69851SOL    HW111450   0.046   8.216  10.644
69851SOL    HW211451  14.823   8.103  10.684
69852SOL     OW11452  14.042   3.207  10.173
69852SOL    HW111453  13.965   3.228  10.226
69852SOL    HW211454  14.007   3.168  10.094
69853SOL     OW11455   8.140   9.013   0.850
69853SOL    HW111456   8.160   8.983   0.939
69853SOL    HW211457   8.214   8.981   0.798
69854SOL     OW11458   3.242  14.077   1.761
69854SOL    HW111459   3.167  14.097   1.706
69854SOL    HW211460   3.203  14.049   1.845
69855SOL     OW11461  12.686  13.778  14.445
69855SOL    HW111462  12.749  13.822  14.502
69855SOL    HW211463  12.733  13.762  14.363
69856SOL     OW11464   8.142   2.055  13.308
69856SOL    HW111465   8.121   2.036  13.400
69856SOL    HW211466   8.146   2.151  13.304
69857SOL     OW11467   6.141  14.376  10.211
69857SOL    HW111468   6.058  14.347  10.250
69857SOL    HW211469   6.157  14.314  10.140
69858SOL     OW11470   7.289  12.980   5.631
69858SOL    HW111471   7.369  12.958   5.584
69858SOL    HW211472   7.235  12.901   5.626
69859SOL     OW11473  11.564   4.506   3.720
69859SOL    HW111474  11.623   4.477   3.650
69859SOL    HW211475  11.571   4.437   3.787
69860SOL     OW11476   9.035   1.926   1.144
69860SOL    HW111477   9.067   2.015   1.128
69860SOL    HW211478   9.061   1.878   1.065
69861SOL     OW11479  14.049  13.542   1.761
69861SOL    HW111480  13.960  13.568   1.738
69861SOL    HW211481  14.078  13.490   1.686
69862SOL     OW11482  11.375  14.468  10.823
69862SOL    HW111483  11.289  14.488  10.787
69862SOL    HW211484  11.363  14.472  10.918
69863SOL     OW11485   7.874   3.570   4.086
69863SOL    HW111486   7.795   3.623   4.100
69863SOL    HW211487   7.840   3.482   4.069
69864SOL     OW11488  14.238   0.731  11.208
69864SOL    HW111489  14.272   0.645  11.235
69864SOL    HW211490  14.158   0.742  11.259
69865SOL     OW11491   5.505   5.560   0.763
69865SOL    HW111492   5.431   5.511   0.798
69865SOL    HW211493   5.580   5.504   0.779
69866SOL     OW11494  13.940   7.196   3.003
69866SOL    HW111495  13.997   7.132   2.961
69866SOL    HW211496  13.971   7.281   2.972
69867SOL     OW11497   1.591  10.001   0.403
69867SOL    HW111498   1.516  10.043   0.445
69867SOL    HW211499   1.624  10.067   0.342
69868SOL     OW11500   3.667   0.720  11.539
69868SOL    HW111501   3.720   0.783  11.589
69868SOL    HW211502   3.655   0.647  11.599
69869SOL     OW11503  14.365   3.813   0.688
69869SOL    HW111504  14.367   3.743   0.624
69869SOL    HW211505  14.326   3.887   0.642
69870SOL     OW11506   8.172   6.248  13.711
69870SOL    HW111507   8.086   6.290  13.718
69870SOL    HW211508   8.162   6.185  13.640
69871SOL     OW11509   9.736   3.860  13.927
69871SOL    HW111510   9.765   3.774  13.958
69871SOL    HW211511   9.776   3.869  13.841
69872SOL     OW11512  12.589   0.272   7.394
69872SOL    HW111513  12.495   0.288   7.394
69872SOL    HW211514  12.609   0.242   7.483
69873SOL     OW11515   4.607  11.453   1.835
69873SOL    HW111516   4.670  11.407   1.890
69873SOL    HW211517   4.641  11.542   1.828
69874SOL     OW11518   2.071  11.171   6.576
69874SOL    HW111519   2.073  11.216   6.661
69874SOL    HW211520   1.979  11.147   6.564
69875SOL     OW11521   3.210  13.284  10.686
69875SOL    HW111522   3.265  13.283  10.765
69875SOL    HW211523   3.130  13.237  10.713
69876SOL     OW11524   3.943  12.020   7.231
69876SOL    HW111525   3.994  12.100   7.214
69876SOL    HW211526   3.859  12.037   7.189
69877SOL     OW11527   7.505  11.594   0.694
69877SOL    HW111528   7.569  11.617   0.760
69877SOL    HW211529   7.426  11.643   0.718
69878SOL     OW11530   5.266   1.063   2.160
69878SOL    HW111531   5.175   1.063   2.129
69878SOL    HW211532   5.263   1.107   2.244
69879SOL     OW11533   5.544   0.038   8.274
69879SOL    HW111534   5.451   0.059   8.269
69879SOL    HW211535   5.551  14.847   8.348
69880SOL     OW11536   5.839   8.798  13.386
69880SOL    HW111537   5.864   8.721  13.335
69880SOL    HW211538   5.916   8.854  13.385
69881SOL     OW11539   0.521  11.455   5.129
69881SOL    HW111540   0.460  11.447   5.203
69881SOL    HW211541   0.607  11.437   5.167
69882SOL     OW11542   4.249   8.145   3.476
69882SOL    HW111543   4.182   8.080   3.497
69882SOL    HW211544   4.328   8.093   3.461
69883SOL     OW11545   5.690   0.951  10.409
69883SOL    HW111546   5.738   0.868  10.418
69883SOL    HW211547   5.636   0.956  10.488
69884SOL     OW11548   4.466   4.618   5.777
69884SOL    HW111549   4.476   4.713   5.769
69884SOL    HW211550   4.548   4.583   5.743
69885SOL     OW11551   7.455  14.576   2.921
69885SOL    HW111552   7.465  14.540   3.010
69885SOL    HW211553   7.372  14.541   2.891
69886SOL     OW11554   5.307   4.175   5.250
69886SOL    HW111555   5.382   4.206   5.301
69886SOL    HW211556   5.334   4.186   5.158
69887SOL     OW11557  10.963  12.543  12.062
69887SOL    HW111558  10.970  12.453  12.030
69887SOL    HW211559  10.938  12.594  11.986
69888SOL     OW11560  10.784  13.017   1.779
69888SOL    HW111561  10.870  12.975   1.784
69888SOL    HW211562  10.766  13.046   1.868
69889SOL     OW11563   9.591   2.721   0.560
69889SOL    HW111564   9.657   2.746   0.625
69889SOL    HW211565   9.510   2.716   0.609
69890SOL     OW11566   0.345  10.561   7.719
69890SOL    HW111567   0.428  10.558   7.670
69890SOL    HW211568   0.315  10.470   7.719
69891SOL     OW11569  14.610  10.980   8.901
69891SOL    HW111570  14.519  10.965   8.926
69891SOL    HW211571  14.606  11.051   8.837
69892SOL     OW11572  13.100  12.714   2.618
69892SOL    HW111573  13.058  12.648   2.563
69892SOL    HW211574  13.141  12.774   2.555
69893SOL     OW11575  12.028   8.153   7.727
69893SOL    HW111576  11.979   8.074   7.748
69893SOL    HW211577  12.027   8.157   7.631
69894SOL     OW11578   5.624  12.673  12.528
69894SOL    HW111579   5.579  12.602  12.574
69894SOL    HW211580   5.554  12.728  12.492
69895SOL     OW11581  11.864   2.473  10.635
69895SOL    HW111582  11.896   2.443  10.549
69895SOL    HW211583  11.771   2.488  10.622
69896SOL     OW11584   0.343  11.798   6.669
69896SOL    HW111585   0.261  11.808   6.621
69896SOL    HW211586   0.322  11.734   6.738
69897SOL     OW11587   5.255   2.515   9.938
69897SOL    HW111588   5.301   2.537   9.857
69897SOL    HW211589   5.246   2.420   9.935
69898SOL     OW11590   3.423  11.666  10.459
69898SOL    HW111591   3.454  11.586  10.416
69898SOL    HW211592   3.503  11.708  10.492
69899SOL     OW11593   9.862   9.067  14.861
69899SOL    HW111594   9.802   9.002   0.029
69899SOL    HW211595   9.933   9.015  14.824
69900SOL     OW11596  13.987  10.656   2.545
69900SOL    HW111597  13.895  10.646   2.523
69900SOL    HW211598  14.007  10.746   2.522
69901SOL     OW11599  13.108  13.568  13.389
69901SOL    HW111600  13.200  13.567  13.364
69901SOL    HW211601  13.064  13.519  13.320
69902SOL     OW11602   8.653  14.119  13.391
69902SOL    HW111603   8.719  14.164  13.338
69902SOL    HW211604   8.570  14.153  13.358
69903SOL     OW11605   7.670   4.086   2.773
69903SOL    HW111606   7.662   4.097   2.679
69903SOL    HW211607   7.633   4.166   2.810
69904SOL     OW11608   2.265   8.534   8.671
69904SOL    HW111609   2.171   8.520   8.669
69904SOL    HW211610   2.300   8.457   8.714
69905SOL     OW11611   6.285  14.094   7.479
69905SOL    HW111612   6.277  14.056   7.567
69905SOL    HW211613   6.370  14.137   7.479
69906SOL     OW11614   2.061  13.570  14.638
69906SOL    HW111615   1.981  13.528  14.605
69906SOL    HW211616   2.123  13.497  14.647
69907SOL     OW11617   9.129   9.562   5.072
69907SOL    HW111618   9.071   9.495   5.036
69907SOL    HW211619   9.075   9.640   5.079
69908SOL     OW11620  14.322   8.914   0.612
69908SOL    HW111621  14.359   8.995   0.576
69908SOL    HW211622  14.393   8.851   0.606
69909SOL     OW11623   1.521   2.349  14.373
69909SOL    HW111624   1.605   2.385  14.403
69909SOL    HW211625   1.470   2.339  14.453
69910SOL     OW11626  12.487  12.028   6.875
69910SOL    HW111627  12.530  11.973   6.809
69910SOL    HW211628  12.432  11.968   6.924
69911SOL     OW11629   3.815   4.456   9.759
69911SOL    HW111630   3.880   4.511   9.801
69911SOL    HW211631   3.731   4.499   9.778
69912SOL     OW11632  12.375   9.908   6.854
69912SOL    HW111633  12.458   9.943   6.823
69912SOL    HW211634  12.325   9.984   6.882
69913SOL     OW11635   0.860   1.457   0.586
69913SOL    HW111636   0.841   1.363   0.585
69913SOL    HW211637   0.790   1.496   0.533
69914SOL     OW11638   9.070   6.077  13.451
69914SOL    HW111639   8.977   6.057  13.438
69914SOL    HW211640   9.112   6.057  13.367
69915SOL     OW11641   6.793   1.442  11.958
69915SOL    HW111642   6.854   1.442  11.883
69915SOL    HW211643   6.744   1.523  11.950
69916SOL     OW11644   3.115   6.731   9.020
69916SOL    HW111645   3.026   6.766   9.027
69916SOL    HW211646   3.104   6.636   9.021
69917SOL     OW11647   8.089  14.482   1.799
69917SOL    HW111648   8.072  14.458   1.707
69917SOL    HW211649   8.126  14.570   1.794
69918SOL     OW11650  13.273  12.395   8.398
69918SOL    HW111651  13.216  12.401   8.475
69918SOL    HW211652  13.343  12.457   8.416
69919SOL     OW11653  13.883   4.430   2.740
69919SOL    HW111654  13.817   4.394   2.800
69919SOL    HW211655  13.966   4.398   2.775
69920SOL     OW11656   7.338   7.064   4.508
69920SOL    HW111657   7.386   7.082   4.427
69920SOL    HW211658   7.403   7.078   4.578
69921SOL     OW11659   7.290   7.935   2.316
69921SOL    HW111660   7.270   7.841   2.316
69921SOL    HW211661   7.335   7.950   2.233
69922SOL     OW11662  11.541   6.812   9.451
69922SOL    HW111663  11.575   6.722   9.450
69922SOL    HW211664  11.618   6.867   9.454
69923SOL     OW11665   7.165   0.546   9.132
69923SOL    HW111666   7.139   0.634   9.103
69923SOL    HW211667   7.135   0.541   9.222
69924SOL     OW11668   7.506   8.420   7.576
69924SOL    HW111669   7.498   8.516   7.575
69924SOL    HW211670   7.439   8.390   7.514
69925SOL     OW11671  13.057   9.301   5.839
69925SOL    HW111672  13.089   9.383   5.878
69925SOL    HW211673  13.082   9.233   5.902
69926SOL     OW11674   0.733   1.912   5.535
69926SOL    HW111675   0.816   1.870   5.556
69926SOL    HW211676   0.715   1.886   5.444
69927SOL     OW11677  12.354   3.317   5.397
69927SOL    HW111678  12.309   3.373   5.459
69927SOL    HW211679  12.353   3.367   5.315
69928SOL     OW11680   4.180  13.179   2.273
69928SOL    HW111681   4.210  13.191   2.183
69928SOL    HW211682   4.086  13.163   2.265
69929SOL     OW11683  14.739  13.711   6.649
69929SOL    HW111684  14.750  13.804   6.666
69929SOL    HW211685  14.652  13.703   6.610
69930SOL     OW11686   7.628  12.672   3.834
69930SOL    HW111687   7.689  12.645   3.766
69930SOL    HW211688   7.647  12.765   3.848
69931SOL     OW11689   1.154   1.212   3.877
69931SOL    HW111690   1.210   1.204   3.954
69931SOL    HW211691   1.214   1.206   3.803
69932SOL     OW11692   1.684   1.136  10.817
69932SOL    HW111693   1.699   1.049  10.781
69932SOL    HW211694   1.641   1.121  10.901
69933SOL     OW11695   9.649   9.613   0.950
69933SOL    HW111696   9.569   9.663   0.969
69933SOL    HW211697   9.686   9.656   0.873
69934SOL     OW11698  10.891   6.691  13.662
69934SOL    HW111699  10.924   6.614  13.615
69934SOL    HW211700  10.945   6.696  13.741
69935SOL     OW11701   2.322  10.777   8.765
69935SOL    HW111702   2.384  10.848   8.747
69935SOL    HW211703   2.342  10.710   8.700
69936SOL     OW11704  12.307  10.251   4.336
69936SOL    HW111705  12.235  10.237   4.398
69936SOL    HW211706  12.323  10.164   4.298
69937SOL     OW11707   3.154   4.168   1.566
69937SOL    HW111708   3.136   4.247   1.618
69937SOL    HW211709   3.073   4.153   1.518
69938SOL     OW11710  11.088   8.011  12.987
69938SOL    HW111711  11.099   8.105  12.970
69938SOL    HW211712  11.070   7.973  12.901
69939SOL     OW11713  12.571   5.359   7.344
69939SOL    HW111714  12.502   5.385   7.283
69939SOL    HW211715  12.530   5.290   7.397
69940SOL     OW11716   5.371  11.975   0.086
69940SOL    HW111717   5.326  11.892   0.099
69940SOL    HW211718   5.439  11.956   0.022
69941SOL     OW11719  14.050   1.765   3.163
69941SOL    HW111720  14.102   1.688   3.143
69941SOL    HW211721  14.065   1.780   3.257
69942SOL     OW11722   4.678  10.202   2.521
69942SOL    HW111723   4.749  10.265   2.512
69942SOL    HW211724   4.713  10.135   2.580
69943SOL     OW11725   8.084  10.432   4.021
69943SOL    HW111726   8.109  10.523   4.034
69943SOL    HW211727   7.991  10.436   3.997
69944SOL     OW11728   8.682   1.755   7.174
69944SOL    HW111729   8.641   1.672   7.151
69944SOL    HW211730   8.774   1.744   7.148
69945SOL     OW11731  14.006   0.863  10.990
69945SOL    HW111732  13.978   0.850  11.081
69945SOL    HW211733  13.940   0.817  10.938
69946SOL     OW11734   7.209   0.077  10.350
69946SOL    HW111735   7.150   0.148  10.321
69946SOL    HW211736   7.150   0.008  10.379
69947SOL     OW11737   4.739   0.935   0.639
69947SOL    HW111738   4.725   0.847   0.605
69947SOL    HW211739   4.689   0.992   0.581
69948SOL     OW11740   0.436   9.088   0.627
69948SOL    HW111741   0.376   9.161   0.611
69948SOL    HW211742   0.378   9.015   0.651
69949SOL     OW11743   2.425  13.961   5.400
69949SOL    HW111744   2.377  14.043   5.390
69949SOL    HW211745   2.509  13.986   5.438
69950SOL     OW11746   8.833  12.894   5.993
69950SOL    HW111747   8.895  12.965   6.011
69950SOL    HW211748   8.750  12.939   5.977
69951SOL     OW11749   1.845   4.792  14.041
69951SOL    HW111750   1.832   4.725  14.108
69951SOL    HW211751   1.937   4.816  14.047
69952SOL     OW11752  10.955   0.059   9.328
69952SOL    HW111753  10.936   0.137   9.381
69952SOL    HW211754  11.044   0.035   9.352
69953SOL     OW11755   1.306   1.389   4.298
69953SOL    HW111756   1.217   1.416   4.273
69953SOL    HW211757   1.336   1.336   4.224
69954SOL     OW11758   6.291  12.982   4.849
69954SOL    HW111759   6.251  12.910   4.898
69954SOL    HW211760   6.271  12.963   4.757
69955SOL     OW11761  10.231   7.716   8.001
69955SOL    HW111762  10.287   7.785   7.965
69955SOL    HW211763  10.292   7.655   8.042
69956SOL     OW11764   1.673   0.136  11.464
69956SOL    HW111765   1.745   0.078  11.441
69956SOL    HW211766   1.647   0.176  11.381
69957SOL     OW11767  10.320   6.404  10.388
69957SOL    HW111768  10.303   6.310  10.396
69957SOL    HW211769  10.338   6.416  10.294
69958SOL     OW11770   8.033   2.899  10.524
69958SOL    HW111771   8.103   2.846  10.561
69958SOL    HW211772   7.968   2.905  10.593
69959SOL     OW11773   8.793   3.208   4.999
69959SOL    HW111774   8.792   3.272   5.070
69959SOL    HW211775   8.712   3.222   4.951
69960SOL     OW11776   6.715  10.908   3.665
69960SOL    HW111777   6.722  10.814   3.654
69960SOL    HW211778   6.621  10.924   3.676
69961SOL     OW11779   2.207   0.503   6.634
69961SOL    HW111780   2.283   0.560   6.645
69961SOL    HW211781   2.145   0.556   6.583
69962SOL     OW11782   1.011   0.126   1.320
69962SOL    HW111783   1.068   0.140   1.245
69962SOL    HW211784   1.013   0.209   1.368
69963SOL     OW11785   5.277   5.391   3.299
69963SOL    HW111786   5.279   5.331   3.374
69963SOL    HW211787   5.215   5.459   3.325
69964SOL     OW11788  13.784   3.144  13.982
69964SOL    HW111789  13.810   3.170  14.070
69964SOL    HW211790  13.727   3.215  13.952
69965SOL     OW11791   7.977  14.584   6.591
69965SOL    HW111792   8.051  14.527   6.609
69965SOL    HW211793   7.951  14.563   6.502
69966SOL     OW11794   2.240   5.171  14.146
69966SOL    HW111795   2.265   5.234  14.078
69966SOL    HW211796   2.321   5.153  14.192
69967SOL     OW11797   0.112   8.790   8.490
69967SOL    HW111798   0.189   8.784   8.433
69967SOL    HW211799   0.145   8.826   8.572
69968SOL     OW11800  13.164  13.195   8.973
69968SOL    HW111801  13.136  13.268   9.028
69968SOL    HW211802  13.249  13.170   9.008
69969SOL     OW11803   1.117   3.728   4.723
69969SOL    HW111804   1.206   3.697   4.741
69969SOL    HW211805   1.126   3.823   4.719
69970SOL     OW11806  13.278   0.822   7.839
69970SOL    HW111807  13.322   0.905   7.824
69970SOL    HW211808  13.240   0.830   7.926
69971SOL     OW11809   9.246  10.224  11.562
69971SOL    HW111810   9.203  10.297  11.607
69971SOL    HW211811   9.288  10.174  11.632
69972SOL     OW11812   8.751   3.349   8.504
69972SOL    HW111813   8.701   3.390   8.575
69972SOL    HW211814   8.838   3.389   8.509
69973SOL     OW11815   4.295   6.694  13.689
69973SOL    HW111816   4.309   6.601  13.669
69973SOL    HW211817   4.200   6.703  13.691
69974SOL     OW11818   2.964   6.591  14.257
69974SOL    HW111819   2.971   6.626  14.168
69974SOL    HW211820   3.028   6.520  14.260
69975SOL     OW11821   6.828   0.143   9.663
69975SOL    HW111822   6.781   0.132   9.746
69975SOL    HW211823   6.763   0.179   9.603
69976SOL     OW11824  10.972   7.193  12.412
69976SOL    HW111825  11.058   7.158  12.388
69976SOL    HW211826  10.971   7.282  12.376
69977SOL     OW11827  14.410   9.335  10.534
69977SOL    HW111828  14.418   9.288  10.452
69977SOL    HW211829  14.321   9.317  10.564
69978SOL     OW11830   7.536   2.420   0.851
69978SOL    HW111831   7.536   2.357   0.923
69978SOL    HW211832   7.628   2.427   0.825
69979SOL     OW11833   1.965   5.887  12.330
69979SOL    HW111834   2.013   5.907  12.250
69979SOL    HW211835   1.995   5.800  12.355
69980SOL     OW11836   3.458  11.651   5.332
69980SOL    HW111837   3.432  11.686   5.247
69980SOL    HW211838   3.376  11.628   5.375
69981SOL     OW11839  10.649   6.551   2.692
69981SOL    HW111840  10.729   6.576   2.645
69981SOL    HW211841  10.654   6.455   2.697
69982SOL     OW11842   6.889   6.657  12.888
69982SOL    HW111843   6.905   6.712  12.811
69982SOL    HW211844   6.956   6.684  12.951
69983SOL     OW11845   8.496   4.934  12.968
69983SOL    HW111846   8.580   4.898  12.940
69983SOL    HW211847   8.503   5.027  12.950
69984SOL     OW11848   7.959  12.130   5.626
69984SOL    HW111849   7.902  12.114   5.701
69984SOL    HW211850   7.987  12.221   5.636
69985SOL     OW11851   8.527   5.610  13.210
69985SOL    HW111852   8.597   5.639  13.268
69985SOL    HW211853   8.465   5.565  13.267
69986SOL     OW11854   2.773  10.663   5.704
69986SOL    HW111855   2.795  10.592   5.764
69986SOL    HW211856   2.729  10.728   5.759
69987SOL     OW11857   7.814  10.463   4.027
69987SOL    HW111858   7.730  10.470   3.982
69987SOL    HW211859   7.793  10.475   4.120
69988SOL     OW11860   1.731   7.084   7.788
69988SOL    HW111861   1.810   7.121   7.828
69988SOL    HW211862   1.755   6.993   7.769
69989SOL     OW11863  11.759  13.000  10.648
69989SOL    HW111864  11.682  12.965  10.692
69989SOL    HW211865  11.773  12.941  10.574
69990SOL     OW11866   1.549   0.289   3.329
69990SOL    HW111867   1.534   0.369   3.278
69990SOL    HW211868   1.645   0.281   3.333
69991SOL     OW11869   7.100   3.091  11.757
69991SOL    HW111870   7.172   3.029  11.747
69991SOL    HW211871   7.122   3.142  11.835
69992SOL     OW11872   9.851   2.255  13.064
69992SOL    HW111873   9.790   2.221  13.130
69992SOL    HW211874   9.795   2.297  12.999
69993SOL     OW11875   1.404   2.061   2.046
69993SOL    HW111876   1.456   2.087   2.122
69993SOL    HW211877   1.455   2.090   1.971
69994SOL     OW11878  11.266   3.844   0.087
69994SOL    HW111879  11.281   3.894   0.167
69994SOL    HW211880  11.207   3.773   0.113
69995SOL     OW11881  14.055   1.103   7.476
69995SOL    HW111882  14.083   1.028   7.424
69995SOL    HW211883  14.129   1.122   7.534
69996SOL     OW11884  11.597  14.021   0.797
69996SOL    HW111885  11.607  14.062   0.711
69996SOL    HW211886  11.664  14.062   0.852
69997SOL     OW11887  14.186   9.875   1.056
69997SOL    HW111888  14.216   9.916   0.975
69997SOL    HW211889  14.248   9.905   1.123
69998SOL     OW11890  14.022  13.504  10.094
69998SOL    HW111891  14.082  13.578  10.082
69998SOL    HW211892  14.044  13.471  10.182
69999SOL     OW11893  12.093   1.312   6.321
69999SOL    HW111894  12.141   1.312   6.404
69999SOL    HW211895  12.046   1.395   6.321
70000SOL     OW11896   5.457   8.520   5.937
70000SOL    HW111897   5.423   8.609   5.946
70000SOL    HW211898   5.382   8.469   5.907
70001SOL     OW11899  10.934   1.652   5.120
70001SOL    HW111900  10.972   1.670   5.034
70001SOL    HW211901  10.928   1.738   5.161
70002SOL     OW11902   5.632   1.344   9.683
70002SOL    HW111903   5.616   1.373   9.773
70002SOL    HW211904   5.655   1.251   9.692
70003SOL     OW11905  12.297   8.768   5.194
70003SOL    HW111906  12.330   8.769   5.104
70003SOL    HW211907  12.214   8.720   5.189
70004SOL     OW11908  14.130  13.317  14.693
70004SOL    HW111909  14.060  13.263  14.729
70004SOL    HW211910  14.176  13.260  14.631
70005SOL     OW11911   2.275   5.216   2.108
70005SOL    HW111912   2.282   5.309   2.128
70005SOL    HW211913   2.337   5.202   2.036
70006SOL     OW11914  14.210  12.506   4.144
70006SOL    HW111915  14.128  12.461   4.124
70006SOL    HW211916  14.260  12.503   4.063
70007SOL     OW11917   0.425   3.451   0.158
70007SOL    HW111918   0.330   3.448   0.169
70007SOL    HW211919   0.459   3.453   0.247
70008SOL     OW11920  11.941   0.868  10.147
70008SOL    HW111921  11.906   0.939  10.092
70008SOL    HW211922  11.914   0.788  10.102
70009SOL     OW11923   1.089   0.758  14.291
70009SOL    HW111924   1.167   0.807  14.320
70009SOL    HW211925   1.089   0.768  14.196
70010SOL     OW11926   8.008   0.504   5.148
70010SOL    HW111927   7.977   0.472   5.233
70010SOL    HW211928   8.022   0.598   5.161
70011SOL     OW11929  11.343   3.987   6.198
70011SOL    HW111930  11.294   3.989   6.280
70011SOL    HW211931  11.304   4.057   6.145
70012SOL     OW11932   1.391  14.811   8.520
70012SOL    HW111933   1.478  14.839   8.547
70012SOL    HW211934   1.342   0.022   8.506
70013SOL     OW11935   4.734  11.183   6.467
70013SOL    HW111936   4.728  11.181   6.563
70013SOL    HW211937   4.798  11.115   6.446
70014SOL     OW11938  14.460  10.227   7.993
70014SOL    HW111939  14.406  10.271   7.928
70014SOL    HW211940  14.400  10.167   8.038
70015SOL     OW11941   1.875   8.054  12.014
70015SOL    HW111942   1.903   7.975  11.969
70015SOL    HW211943   1.902   8.126  11.957
70016SOL     OW11944   3.619  10.472  11.594
70016SOL    HW111945   3.661  10.422  11.524
70016SOL    HW211946   3.639  10.564  11.574
70017SOL     OW11947  11.739  13.989   2.221
70017SOL    HW111948  11.679  14.032   2.161
70017SOL    HW211949  11.826  14.014   2.190
70018SOL     OW11950   7.926  12.645   3.624
70018SOL    HW111951   8.006  12.601   3.597
70018SOL    HW211952   7.896  12.691   3.546
70019SOL     OW11953   9.619   1.002   2.108
70019SOL    HW111954   9.610   0.974   2.199
70019SOL    HW211955   9.681   0.940   2.070
70020SOL     OW11956   8.555   4.513  10.149
70020SOL    HW111957   8.516   4.427  10.163
70020SOL    HW211958   8.629   4.496  10.090
70021SOL     OW11959  12.355  13.707  10.064
70021SOL    HW111960  12.366  13.780  10.125
70021SOL    HW211961  12.273  13.725  10.019
70022SOL     OW11962  13.390  11.798  13.742
70022SOL    HW111963  13.375  11.704  13.750
70022SOL    HW211964  13.356  11.835  13.824
70023SOL     OW11965   0.495  12.960   5.183
70023SOL    HW111966   0.539  13.043   5.199
70023SOL    HW211967   0.416  12.985   5.133
70024SOL     OW11968  11.782   5.067  12.033
70024SOL    HW111969  11.862   5.051  11.984
70024SOL    HW211970  11.722   4.998  12.004
70025SOL     OW11971  11.506   8.388   3.853
70025SOL    HW111972  11.592   8.345   3.850
70025SOL    HW211973  11.443   8.316   3.843
70026SOL     OW11974   4.635   1.725  10.869
70026SOL    HW111975   4.609   1.676  10.947
70026SOL    HW211976   4.584   1.687  10.798
70027SOL     OW11977  10.472   9.297  12.919
70027SOL    HW111978  10.432   9.257  12.842
70027SOL    HW211979  10.560   9.324  12.890
70028SOL     OW11980   7.885   6.965   6.711
70028SOL    HW111981   7.912   7.053   6.736
70028SOL    HW211982   7.792   6.973   6.689
70029SOL     OW11983  13.686  13.889   2.540
70029SOL    HW111984  13.614  13.827   2.530
70029SOL    HW211985  13.726  13.894   2.453
70030SOL     OW11986  14.804  14.162  14.507
70030SOL    HW111987  14.843  14.104  14.441
70030SOL    HW211988  14.801  14.248  14.465
70031SOL     OW11989   5.950   0.588  14.710
70031SOL    HW111990   5.979   0.674  14.742
70031SOL    HW211991   6.031   0.546  14.679
70032SOL     OW11992   7.426  11.524   1.703
70032SOL    HW111993   7.449  11.433   1.687
70032SOL    HW211994   7.356  11.520   1.769
70033SOL     OW11995   9.947  11.547   6.554
70033SOL    HW111996   9.992  11.469   6.587
70033SOL    HW211997  10.017  11.613   6.548
70034SOL     OW11998   5.933   0.616   2.383
70034SOL    HW111999   5.952   0.628   2.476
70034SOL    HW212000   6.010   0.572   2.348
70035SOL     OW12001   2.619  11.781  10.142
70035SOL    HW112002   2.633  11.698  10.098
70035SOL    HW212003   2.616  11.846  10.071
70036SOL     OW12004  10.336  14.638  12.640
70036SOL    HW112005  10.298  14.586  12.569
70036SOL    HW212006  10.358  14.574  12.707
70037SOL     OW12007  14.219   4.472  14.043
70037SOL    HW112008  14.269   4.396  14.012
70037SOL    HW212009  14.144   4.477  13.983
70038SOL     OW12010   3.640   6.122  14.206
70038SOL    HW112011   3.643   6.217  14.198
70038SOL    HW212012   3.638   6.106  14.300
70039SOL     OW12013   1.042   0.335   1.535
70039SOL    HW112014   1.116   0.379   1.577
70039SOL    HW212015   0.990   0.301   1.608
70040SOL     OW12016  13.085  14.134   3.525
70040SOL    HW112017  13.052  14.155   3.612
70040SOL    HW212018  13.080  14.217   3.477
70041SOL     OW12019  12.395   3.487   0.583
70041SOL    HW112020  12.339   3.430   0.635
70041SOL    HW212021  12.383   3.574   0.620
70042SOL     OW12022   2.635   6.900  12.320
70042SOL    HW112023   2.596   6.831  12.265
70042SOL    HW212024   2.588   6.980  12.295
70043SOL     OW12025   5.300   7.760   2.755
70043SOL    HW112026   5.207   7.775   2.739
70043SOL    HW212027   5.343   7.784   2.674
70044SOL     OW12028  10.589   9.393  13.153
70044SOL    HW112029  10.633   9.309  13.168
70044SOL    HW212030  10.524   9.374  13.085
70045SOL     OW12031  12.498   6.626  13.498
70045SOL    HW112032  12.550   6.576  13.435
70045SOL    HW212033  12.538   6.713  13.500
70046SOL     OW12034   3.027   6.925  13.108
70046SOL    HW112035   2.990   6.915  13.020
70046SOL    HW212036   3.122   6.927  13.093
70047SOL     OW12037   9.798   4.555  14.439
70047SOL    HW112038   9.759   4.486  14.493
70047SOL    HW212039   9.723   4.602  14.403
70048SOL     OW12040  11.555   9.730   3.078
70048SOL    HW112041  11.611   9.795   3.119
70048SOL    HW212042  11.470   9.773   3.068
70049SOL     OW12043   7.164   2.544  11.945
70049SOL    HW112044   7.209   2.626  11.925
70049SOL    HW212045   7.199   2.518  12.031
70050SOL     OW12046   3.134  12.918   9.151
70050SOL    HW112047   3.172  12.832   9.136
70050SOL    HW212048   3.175  12.974   9.085
70051SOL     OW12049   9.748  12.812  13.917
70051SOL    HW112050   9.784  12.885  13.866
70051SOL    HW212051   9.822  12.753  13.929
70052SOL     OW12052   7.606   3.470  11.423
70052SOL    HW112053   7.608   3.381  11.458
70052SOL    HW212054   7.600   3.458  11.328
70053SOL     OW12055  11.666   8.155   0.672
70053SOL    HW112056  11.628   8.154   0.584
70053SOL    HW212057  11.603   8.204   0.725
70054SOL     OW12058  13.069   5.240  12.661
70054SOL    HW112059  13.023   5.230  12.744
70054SOL    HW212060  13.030   5.173  12.604
70055SOL     OW12061  12.882   0.188   4.604
70055SOL    HW112062  12.949   0.208   4.538
70055SOL    HW212063  12.818   0.135   4.558
70056SOL     OW12064   0.503   8.620  13.943
70056SOL    HW112065   0.546   8.563  13.879
70056SOL    HW212066   0.440   8.670  13.893
70057SOL     OW12067  11.381   0.288   0.195
70057SOL    HW112068  11.407   0.217   0.254
70057SOL    HW212069  11.461   0.338   0.180
70058SOL     OW12070   6.638  11.830  11.086
70058SOL    HW112071   6.562  11.863  11.134
70058SOL    HW212072   6.713  11.868  11.132
70059SOL     OW12073   3.349   0.418   3.407
70059SOL    HW112074   3.267   0.427   3.358
70059SOL    HW212075   3.321   0.396   3.496
70060SOL     OW12076   4.537  14.122   8.442
70060SOL    HW112077   4.478  14.158   8.508
70060SOL    HW212078   4.510  14.164   8.360
70061SOL     OW12079  10.992   4.690   6.045
70061SOL    HW112080  10.967   4.782   6.056
70061SOL    HW212081  10.952   4.664   5.962
70062SOL     OW12082   9.075  14.293   3.412
70062SOL    HW112083   8.992  14.318   3.453
70062SOL    HW212084   9.061  14.203   3.384
70063SOL     OW12085   3.046   7.926   1.211
70063SOL    HW112086   3.047   7.889   1.300
70063SOL    HW212087   3.117   7.990   1.211
70064SOL     OW12088  11.386   7.897   2.152
70064SOL    HW112089  11.412   7.900   2.060
70064SOL    HW212090  11.348   7.810   2.163
70065SOL     OW12091   2.707   3.976   0.642
70065SOL    HW112092   2.699   3.984   0.737
70065SOL    HW212093   2.710   3.881   0.626
70066SOL     OW12094  12.194   6.123   3.430
70066SOL    HW112095  12.180   6.066   3.506
70066SOL    HW212096  12.107   6.152   3.406
70067SOL     OW12097  12.901   2.563   2.790
70067SOL    HW112098  12.847   2.637   2.819
70067SOL    HW212099  12.969   2.603   2.736
70068SOL     OW12100  11.892   5.844   2.511
70068SOL    HW112101  11.802   5.858   2.484
70068SOL    HW212102  11.886   5.807   2.600
70069SOL     OW12103   5.867   3.820   1.721
70069SOL    HW112104   5.890   3.892   1.780
70069SOL    HW212105   5.788   3.783   1.758
70070SOL     OW12106   4.890  11.907   2.055
70070SOL    HW112107   4.962  11.931   2.113
70070SOL    HW212108   4.878  11.983   1.998
70071SOL     OW12109  13.182  14.629   9.594
70071SOL    HW112110  13.227  14.698   9.643
70071SOL    HW212111  13.201  14.648   9.502
70072SOL     OW12112  11.518   5.213   4.962
70072SOL    HW112113  11.486   5.166   4.885
70072SOL    HW212114  11.602   5.250   4.934
70073SOL     OW12115   6.444   1.851  13.088
70073SOL    HW112116   6.444   1.942  13.118
70073SOL    HW212117   6.391   1.852  13.009
70074SOL     OW12118   4.786   8.606   8.182
70074SOL    HW112119   4.732   8.610   8.104
70074SOL    HW212120   4.798   8.513   8.200
70075SOL     OW12121  12.050   6.552  11.622
70075SOL    HW112122  11.999   6.623  11.584
70075SOL    HW212123  11.990   6.507  11.681
70076SOL     OW12124   5.383  11.881   3.684
70076SOL    HW112125   5.323  11.834   3.625
70076SOL    HW212126   5.355  11.972   3.678
70077SOL     OW12127  13.432   8.471   3.087
70077SOL    HW112128  13.399   8.560   3.087
70077SOL    HW212129  13.520   8.477   3.051
70078SOL     OW12130  12.953   4.333   3.689
70078SOL    HW112131  12.913   4.395   3.750
70078SOL    HW212132  12.963   4.252   3.740
70079SOL     OW12133  11.142   3.664  10.239
70079SOL    HW112134  11.188   3.729  10.186
70079SOL    HW212135  11.210   3.628  10.297
70080SOL     OW12136  12.899   7.181   3.613
70080SOL    HW112137  12.978   7.126   3.609
70080SOL    HW212138  12.918   7.246   3.681
70081SOL     OW12139   1.048   1.646   4.483
70081SOL    HW112140   0.978   1.647   4.548
70081SOL    HW212141   1.128   1.664   4.534
70082SOL     OW12142   6.541  13.300  13.763
70082SOL    HW112143   6.598  13.367  13.726
70082SOL    HW212144   6.531  13.325  13.855
70083SOL     OW12145  11.634   5.806  14.340
70083SOL    HW112146  11.612   5.894  14.371
70083SOL    HW212147  11.556   5.777  14.293
70084SOL     OW12148   0.993  13.754   0.162
70084SOL    HW112149   0.928  13.702   0.210
70084SOL    HW212150   1.006  13.706   0.080
70085SOL     OW12151   5.086   2.012  12.448
70085SOL    HW112152   5.050   1.987  12.363
70085SOL    HW212153   5.148   2.083  12.428
70086SOL     OW12154  14.232  10.321   0.488
70086SOL    HW112155  14.278  10.387   0.540
70086SOL    HW212156  14.150  10.364   0.462
70087SOL     OW12157   3.988  11.032   9.898
70087SOL    HW112158   4.056  11.044   9.832
70087SOL    HW212159   4.034  10.992   9.972
70088SOL     OW12160  14.591  10.174  12.637
70088SOL    HW112161  14.583  10.086  12.672
70088SOL    HW212162  14.603  10.230  12.714
70089SOL     OW12163  10.129   9.120  13.901
70089SOL    HW112164  10.214   9.088  13.931
70089SOL    HW212165  10.092   9.163  13.977
70090SOL     OW12166   4.700   7.976   6.184
70090SOL    HW112167   4.768   8.002   6.246
70090SOL    HW212168   4.715   8.029   6.106
70091SOL     OW12169   1.329   7.490  11.481
70091SOL    HW112170   1.252   7.546  11.471
70091SOL    HW212171   1.387   7.539  11.539
70092SOL     OW12172  12.566   6.960  11.855
70092SOL    HW112173  12.659   6.968  11.873
70092SOL    HW212174  12.529   6.920  11.933
70093SOL     OW12175   3.030   8.687   5.391
70093SOL    HW112176   3.088   8.643   5.329
70093SOL    HW212177   2.967   8.733   5.336
70094SOL     OW12178   1.051  10.499   6.709
70094SOL    HW112179   1.076  10.458   6.792
70094SOL    HW212180   1.000  10.431   6.663
70095SOL     OW12181   7.907  11.738  10.107
70095SOL    HW112182   7.886  11.765  10.017
70095SOL    HW212183   7.986  11.788  10.129
70096SOL     OW12184   6.424   3.083  14.771
70096SOL    HW112185   6.444   3.156  14.713
70096SOL    HW212186   6.335   3.099  14.800
70097SOL     OW12187   7.589   9.734  11.199
70097SOL    HW112188   7.674   9.744  11.156
70097SOL    HW212189   7.529   9.789  11.148
70098SOL     OW12190  14.369   1.725   9.813
70098SOL    HW112191  14.453   1.741   9.855
70098SOL    HW212192  14.388   1.727   9.719
70099SOL     OW12193  10.530  12.466  12.837
70099SOL    HW112194  10.536  12.397  12.903
70099SOL    HW212195  10.594  12.532  12.864
70100SOL     OW12196  14.307   7.945   1.091
70100SOL    HW112197  14.290   7.878   1.157
70100SOL    HW212198  14.223   7.956   1.045
70101SOL     OW12199   9.125  14.085   5.045
70101SOL    HW112200   9.054  14.076   5.108
70101SOL    HW212201   9.097  14.155   4.986
70102SOL     OW12202  12.933   9.386   5.591
70102SOL    HW112203  13.016   9.377   5.545
70102SOL    HW212204  12.955   9.370   5.683
70103SOL     OW12205  13.258   7.919  11.093
70103SOL    HW112206  13.287   7.973  11.019
70103SOL    HW212207  13.340   7.884  11.129
70104SOL     OW12208   9.317   7.553  11.292
70104SOL    HW112209   9.322   7.583  11.382
70104SOL    HW212210   9.383   7.604  11.245
70105SOL     OW12211   4.616   0.587   3.844
70105SOL    HW112212   4.643   0.516   3.786
70105SOL    HW212213   4.539   0.626   3.800
70106SOL     OW12214   4.406   0.169   9.188
70106SOL    HW112215   4.499   0.175   9.166
70106SOL    HW212216   4.364   0.237   9.135
70107SOL     OW12217   1.791  12.637   9.303
70107SOL    HW112218   1.707  12.656   9.263
70107SOL    HW212219   1.779  12.551   9.345
70108SOL     OW12220   4.156  10.143   8.965
70108SOL    HW112221   4.181  10.107   9.050
70108SOL    HW212222   4.221  10.108   8.904
70109SOL     OW12223  13.355   3.860  12.966
70109SOL    HW112224  13.436   3.826  12.928
70109SOL    HW212225  13.333   3.797  13.035
70110SOL     OW12226  14.636  13.759   1.423
70110SOL    HW112227  14.723  13.730   1.450
70110SOL    HW212228  14.617  13.710   1.343
70111SOL     OW12229   2.127   1.740   0.611
70111SOL    HW112230   2.174   1.739   0.695
70111SOL    HW212231   2.164   1.814   0.563
70112SOL     OW12232  12.378   9.084  14.397
70112SOL    HW112233  12.365   9.106  14.489
70112SOL    HW212234  12.387   8.989  14.396
70113SOL     OW12235  13.163   6.591   9.949
70113SOL    HW112236  13.119   6.634  10.023
70113SOL    HW212237  13.254   6.581   9.977
70114SOL     OW12238  12.558  14.154   8.326
70114SOL    HW112239  12.625  14.201   8.276
70114SOL    HW212240  12.480  14.209   8.318
70115SOL     OW12241   1.226  14.082  13.362
70115SOL    HW112242   1.132  14.098  13.365
70115SOL    HW212243   1.261  14.152  13.308
70116SOL     OW12244   0.878   9.832  10.660
70116SOL    HW112245   0.785   9.845  10.679
70116SOL    HW212246   0.917   9.818  10.746
70117SOL     OW12247  12.523   2.811  13.248
70117SOL    HW112248  12.617   2.794  13.256
70117SOL    HW212249  12.508   2.811  13.153
70118SOL     OW12250  12.975   4.239   4.605
70118SOL    HW112251  13.060   4.278   4.626
70118SOL    HW212252  12.960   4.261   4.513
70119SOL     OW12253  13.583  10.037   6.416
70119SOL    HW112254  13.508  10.057   6.360
70119SOL    HW212255  13.544   9.996   6.493
70120SOL     OW12256   4.407   1.457   1.471
70120SOL    HW112257   4.435   1.396   1.402
70120SOL    HW212258   4.406   1.543   1.427
70121SOL     OW12259  10.685   4.890   8.131
70121SOL    HW112260  10.696   4.898   8.226
70121SOL    HW212261  10.770   4.862   8.099
70122SOL     OW12262   0.514  11.526   1.707
70122SOL    HW112263   0.609  11.528   1.692
70122SOL    HW212264   0.487  11.439   1.678
70123SOL     OW12265  10.486   8.596  11.457
70123SOL    HW112266  10.571   8.622  11.419
70123SOL    HW212267  10.491   8.501  11.462
70124SOL     OW12268   2.750   7.081   5.878
70124SOL    HW112269   2.786   7.103   5.792
70124SOL    HW212270   2.822   7.100   5.939
70125SOL     OW12271   3.992  11.053   1.173
70125SOL    HW112272   4.037  11.113   1.233
70125SOL    HW212273   3.989  10.970   1.220
70126SOL     OW12274   3.556   9.500  12.692
70126SOL    HW112275   3.478   9.555  12.686
70126SOL    HW212276   3.626   9.554  12.655
70127SOL     OW12277  11.703   6.304   6.880
70127SOL    HW112278  11.685   6.397   6.895
70127SOL    HW212279  11.639   6.277   6.814
70128SOL     OW12280   7.016   4.217   7.932
70128SOL    HW112281   7.029   4.133   7.888
70128SOL    HW212282   7.089   4.271   7.902
70129SOL     OW12283   9.376   8.775   5.591
70129SOL    HW112284   9.289   8.800   5.621
70129SOL    HW212285   9.384   8.682   5.613
70130SOL     OW12286   5.053   0.359   6.370
70130SOL    HW112287   5.108   0.320   6.438
70130SOL    HW212288   4.994   0.417   6.418
70131SOL     OW12289   8.005  10.464   3.647
70131SOL    HW112290   8.035  10.377   3.673
70131SOL    HW212291   7.921  10.449   3.605
70132SOL     OW12292   8.861   9.121   0.971
70132SOL    HW112293   8.784   9.164   0.933
70132SOL    HW212294   8.870   9.040   0.920
70133SOL     OW12295   9.121   7.972   6.231
70133SOL    HW112296   9.083   8.014   6.308
70133SOL    HW212297   9.215   7.965   6.251
70134SOL     OW12298   8.737  11.474   1.480
70134SOL    HW112299   8.649  11.492   1.513
70134SOL    HW212300   8.735  11.382   1.454
70135SOL     OW12301  11.336   6.010  10.546
70135SOL    HW112302  11.281   6.077  10.587
70135SOL    HW212303  11.413   6.003  10.603
70136SOL     OW12304  12.056  13.380   9.747
70136SOL    HW112305  12.005  13.300   9.761
70136SOL    HW212306  11.989  13.449   9.742
70137SOL     OW12307   2.001   4.637   7.586
70137SOL    HW112308   2.065   4.627   7.516
70137SOL    HW212309   1.978   4.547   7.611
70138SOL     OW12310  13.684  12.125  11.046
70138SOL    HW112311  13.772  12.143  11.079
70138SOL    HW212312  13.636  12.092  11.122
70139SOL     OW12313  14.719   2.535   8.821
70139SOL    HW112314  14.720   2.457   8.765
70139SOL    HW212315  14.807   2.542   8.856
70140SOL     OW12316   4.124   9.425   4.373
70140SOL    HW112317   4.146   9.363   4.304
70140SOL    HW212318   4.034   9.402   4.398
70141SOL     OW12319  11.725   9.718  14.086
70141SOL    HW112320  11.815   9.729  14.118
70141SOL    HW212321  11.724   9.764  14.002
70142SOL     OW12322  13.328  14.459   9.310
70142SOL    HW112323  13.341  14.436   9.402
70142SOL    HW212324  13.282  14.383   9.273
70143SOL     OW12325   3.139   1.142   0.876
70143SOL    HW112326   3.060   1.118   0.925
70143SOL    HW212327   3.204   1.158   0.944
70144SOL     OW12328   4.781  14.200  11.956
70144SOL    HW112329   4.816  14.175  11.871
70144SOL    HW212330   4.842  14.163  12.020
70145SOL     OW12331   9.374   6.982   5.643
70145SOL    HW112332   9.423   6.900   5.645
70145SOL    HW212333   9.283   6.955   5.630
70146SOL     OW12334   8.218  13.097  13.890
70146SOL    HW112335   8.267  13.101  13.972
70146SOL    HW212336   8.283  13.114  13.822
70147SOL     OW12337   8.697   7.493   0.986
70147SOL    HW112338   8.736   7.539   0.912
70147SOL    HW212339   8.653   7.418   0.947
70148SOL     OW12340   2.160   6.055   1.683
70148SOL    HW112341   2.120   5.968   1.677
70148SOL    HW212342   2.112   6.099   1.752
70149SOL     OW12343   8.622   8.808   6.472
70149SOL    HW112344   8.605   8.891   6.516
70149SOL    HW212345   8.625   8.830   6.379
70150SOL     OW12346   1.275   6.305  14.317
70150SOL    HW112347   1.289   6.230  14.375
70150SOL    HW212348   1.322   6.283  14.237
70151SOL     OW12349  11.474  12.541   5.056
70151SOL    HW112350  11.563  12.573   5.074
70151SOL    HW212351  11.420  12.621   5.054
70152SOL     OW12352   4.926   8.834   0.904
70152SOL    HW112353   4.846   8.818   0.855
70152SOL    HW212354   4.921   8.926   0.930
70153SOL     OW12355  14.156   1.239   1.468
70153SOL    HW112356  14.087   1.256   1.404
70153SOL    HW212357  14.208   1.319   1.470
70154SOL     OW12358  10.321   2.415   5.757
70154SOL    HW112359  10.250   2.360   5.725
70154SOL    HW212360  10.278   2.498   5.778
70155SOL     OW12361  13.527   7.455  11.878
70155SOL    HW112362  13.615   7.448  11.915
70155SOL    HW212363  13.472   7.405  11.938
70156SOL     OW12364   3.482  10.935   2.274
70156SOL    HW112365   3.396  10.896   2.259
70156SOL    HW212366   3.542  10.861   2.281
70157SOL     OW12367   4.014   3.574   1.118
70157SOL    HW112368   4.047   3.528   1.196
70157SOL    HW212369   4.090   3.580   1.060
70158SOL     OW12370   7.546   3.728   2.363
70158SOL    HW112371   7.628   3.682   2.348
70158SOL    HW212372   7.555   3.810   2.313
70159SOL     OW12373  13.870   6.900  13.699
70159SOL    HW112374  13.935   6.937  13.758
70159SOL    HW212375  13.883   6.948  13.617
70160SOL     OW12376  10.058  13.740  14.711
70160SOL    HW112377  10.029  13.831  14.704
70160SOL    HW212378   9.980  13.688  14.691
70161SOL     OW12379   3.582   6.160  14.466
70161SOL    HW112380   3.648   6.133  14.530
70161SOL    HW212381   3.498   6.138  14.507
70162SOL     OW12382  12.943   7.675   8.528
70162SOL    HW112383  13.034   7.653   8.550
70162SOL    HW212384  12.895   7.661   8.609
70163SOL     OW12385  14.227   2.894   7.252
70163SOL    HW112386  14.206   2.806   7.219
70163SOL    HW212387  14.239   2.947   7.173
70164SOL     OW12388   8.791   4.236   7.546
70164SOL    HW112389   8.854   4.229   7.618
70164SOL    HW212390   8.760   4.147   7.533
70165SOL     OW12391   3.879   1.669   6.318
70165SOL    HW112392   3.915   1.598   6.371
70165SOL    HW212393   3.810   1.628   6.266
70166SOL     OW12394  13.464  14.365  13.155
70166SOL    HW112395  13.418  14.431  13.206
70166SOL    HW212396  13.549  14.357  13.197
70167SOL     OW12397   3.234   7.536  13.501
70167SOL    HW112398   3.167   7.501  13.559
70167SOL    HW212399   3.247   7.467  13.435
70168SOL     OW12400   5.744   0.558   1.409
70168SOL    HW112401   5.695   0.513   1.341
70168SOL    HW212402   5.830   0.515   1.408
70169SOL     OW12403  14.447   9.351  11.566
70169SOL    HW112404  14.368   9.362  11.618
70169SOL    HW212405  14.458   9.436  11.522
70170SOL     OW12406   1.379   3.887   6.086
70170SOL    HW112407   1.312   3.909   6.152
70170SOL    HW212408   1.329   3.873   6.006
70171SOL     OW12409   9.309   4.916   0.695
70171SOL    HW112410   9.358   4.979   0.748
70171SOL    HW212411   9.373   4.848   0.673
70172SOL     OW12412   6.737   7.372   8.847
70172SOL    HW112413   6.821   7.362   8.891
70172SOL    HW212414   6.708   7.460   8.871
70173SOL     OW12415  11.844  10.605   8.370
70173SOL    HW112416  11.936  10.613   8.394
70173SOL    HW212417  11.845  10.577   8.279
70174SOL     OW12418   3.725  12.566   9.912
70174SOL    HW112419   3.634  12.538   9.915
70174SOL    HW212420   3.760  12.542   9.998
70175SOL     OW12421   4.674  14.533  14.670
70175SOL    HW112422   4.634  14.576  14.595
70175SOL    HW212423   4.617  14.554  14.744
70176SOL     OW12424   2.608  13.368   8.311
70176SOL    HW112425   2.562  13.327   8.385
70176SOL    HW212426   2.673  13.425   8.352
70177SOL     OW12427   6.376   3.763   7.893
70177SOL    HW112428   6.351   3.671   7.899
70177SOL    HW212429   6.402   3.774   7.801
70178SOL     OW12430   6.166   8.446  14.325
70178SOL    HW112431   6.154   8.369  14.381
70178SOL    HW212432   6.260   8.451  14.310
70179SOL     OW12433  14.751   8.829   7.418
70179SOL    HW112434  14.676   8.863   7.371
70179SOL    HW212435  14.753   8.879   7.500
70180SOL     OW12436  13.750   3.962   4.319
70180SOL    HW112437  13.789   4.044   4.349
70180SOL    HW212438  13.657   3.980   4.312
70181SOL     OW12439  12.172   4.344   7.559
70181SOL    HW112440  12.217   4.423   7.589
70181SOL    HW212441  12.175   4.350   7.463
70182SOL     OW12442   3.250   3.175   6.858
70182SOL    HW112443   3.332   3.199   6.901
70182SOL    HW212444   3.225   3.253   6.808
70183SOL     OW12445  13.364  12.808   4.142
70183SOL    HW112446  13.390  12.851   4.223
70183SOL    HW212447  13.324  12.726   4.169
70184SOL     OW12448   6.526  10.331   3.265
70184SOL    HW112449   6.480  10.257   3.226
70184SOL    HW212450   6.507  10.405   3.207
70185SOL     OW12451   5.575   3.500   8.492
70185SOL    HW112452   5.532   3.420   8.525
70185SOL    HW212453   5.620   3.472   8.413
70186SOL     OW12454   6.020  11.594  14.357
70186SOL    HW112455   5.962  11.534  14.309
70186SOL    HW212456   6.083  11.537  14.401
70187SOL     OW12457  12.104   1.641   0.443
70187SOL    HW112458  12.092   1.630   0.537
70187SOL    HW212459  12.187   1.598   0.424
70188SOL     OW12460  10.805  11.769   9.138
70188SOL    HW112461  10.815  11.859   9.107
70188SOL    HW212462  10.816  11.716   9.060
70189SOL     OW12463  10.896  10.633   3.965
70189SOL    HW112464  10.904  10.554   3.911
70189SOL    HW212465  10.858  10.698   3.906
70190SOL     OW12466   8.603  10.201  14.279
70190SOL    HW112467   8.515  10.170  14.256
70190SOL    HW212468   8.648  10.209  14.195
70191SOL     OW12469   6.276   5.524   0.677
70191SOL    HW112470   6.244   5.481   0.756
70191SOL    HW212471   6.312   5.452   0.624
70192SOL     OW12472  13.963  13.010  10.433
70192SOL    HW112473  13.909  12.992  10.510
70192SOL    HW212474  13.903  13.004  10.359
70193SOL     OW12475  12.353  13.226   2.532
70193SOL    HW112476  12.329  13.184   2.450
70193SOL    HW212477  12.309  13.176   2.600
70194SOL     OW12478   0.792  11.411   9.040
70194SOL    HW112479   0.792  11.415   8.945
70194SOL    HW212480   0.862  11.349   9.062
70195SOL     OW12481   1.279   7.867   5.968
70195SOL    HW112482   1.193   7.829   5.990
70195SOL    HW212483   1.259   7.956   5.940
70196SOL     OW12484   1.008   4.402   5.859
70196SOL    HW112485   0.950   4.376   5.788
70196SOL    HW212486   0.949   4.422   5.932
70197SOL     OW12487  12.656  14.742   0.645
70197SOL    HW112488  12.742  14.701   0.655
70197SOL    HW212489  12.659  14.781   0.557
70198SOL     OW12490   0.857  13.039   1.718
70198SOL    HW112491   0.857  12.968   1.655
70198SOL    HW212492   0.895  13.113   1.671
70199SOL     OW12493   9.156   8.603   1.242
70199SOL    HW112494   9.223   8.550   1.198
70199SOL    HW212495   9.074   8.561   1.219
70200SOL     OW12496   2.009   8.812   1.309
70200SOL    HW112497   2.019   8.812   1.404
70200SOL    HW212498   2.035   8.900   1.282
70201SOL     OW12499   7.314   1.190   6.130
70201SOL    HW112500   7.397   1.185   6.178
70201SOL    HW212501   7.336   1.166   6.040
70202SOL     OW12502   0.238  10.924   0.685
70202SOL    HW112503   0.193  10.846   0.651
70202SOL    HW212504   0.201  10.997   0.635
70203SOL     OW12505  12.289   4.563   1.545
70203SOL    HW112506  12.365   4.507   1.527
70203SOL    HW212507  12.258   4.535   1.631
70204SOL     OW12508   4.911  12.646   3.911
70204SOL    HW112509   4.960  12.687   3.981
70204SOL    HW212510   4.906  12.554   3.935
70205SOL     OW12511   3.408   5.487   9.341
70205SOL    HW112512   3.327   5.528   9.310
70205SOL    HW212513   3.458   5.559   9.379
70206SOL     OW12514   6.898   9.657   6.667
70206SOL    HW112515   6.851   9.574   6.672
70206SOL    HW212516   6.988   9.633   6.643
70207SOL     OW12517  11.095   3.449  12.898
70207SOL    HW112518  11.119   3.528  12.849
70207SOL    HW212519  11.173   3.393  12.892
70208SOL     OW12520  11.012   2.141   6.083
70208SOL    HW112521  11.083   2.183   6.131
70208SOL    HW212522  10.993   2.200   6.010
70209SOL     OW12523   7.800   7.430   1.043
70209SOL    HW112524   7.849   7.412   0.963
70209SOL    HW212525   7.867   7.439   1.110
70210SOL     OW12526  12.044   8.418  11.621
70210SOL    HW112527  12.097   8.490  11.656
70210SOL    HW212528  11.955   8.435  11.653
70211SOL     OW12529   2.501  11.144   3.513
70211SOL    HW112530   2.458  11.155   3.597
70211SOL    HW212531   2.436  11.172   3.448
70212SOL     OW12532   8.983  12.203  12.055
70212SOL    HW112533   8.910  12.143  12.072
70212SOL    HW212534   8.943  12.290  12.051
70213SOL     OW12535   0.811   4.086  12.951
70213SOL    HW112536   0.803   3.996  12.919
70213SOL    HW212537   0.824   4.138  12.871
70214SOL     OW12538   6.272   8.722   6.630
70214SOL    HW112539   6.220   8.667   6.689
70214SOL    HW212540   6.282   8.669   6.550
70215SOL     OW12541   1.658   9.586  11.214
70215SOL    HW112542   1.626   9.565  11.126
70215SOL    HW212543   1.671   9.681  11.213
70216SOL     OW12544   4.969  13.869  14.764
70216SOL    HW112545   5.056  13.900  14.737
70216SOL    HW212546   4.956  13.906  14.851
70217SOL     OW12547  11.120   1.521  11.900
70217SOL    HW112548  11.051   1.523  11.834
70217SOL    HW212549  11.125   1.611  11.933
70218SOL     OW12550   9.129  14.145  13.110
70218SOL    HW112551   9.087  14.063  13.083
70218SOL    HW212552   9.132  14.198  13.030
70219SOL     OW12553   6.068   8.981  13.100
70219SOL    HW112554   6.008   9.029  13.043
70219SOL    HW212555   6.155   9.010  13.073
70220SOL     OW12556   5.471   9.808  14.633
70220SOL    HW112557   5.533   9.798  14.705
70220SOL    HW212558   5.385   9.794  14.673
70221SOL     OW12559   4.366  14.510  13.925
70221SOL    HW112560   4.382  14.566  14.001
70221SOL    HW212561   4.352  14.572  13.853
70222SOL     OW12562   5.055   1.107  10.652
70222SOL    HW112563   5.113   1.083  10.724
70222SOL    HW212564   4.984   1.043  10.656
70223SOL     OW12565  14.071   4.045   5.194
70223SOL    HW112566  14.110   3.967   5.154
70223SOL    HW212567  14.023   4.087   5.122
70224SOL     OW12568   3.522   4.483   4.501
70224SOL    HW112569   3.470   4.443   4.432
70224SOL    HW212570   3.580   4.544   4.455
70225SOL     OW12571   9.877  12.636  13.140
70225SOL    HW112572   9.900  12.636  13.233
70225SOL    HW212573   9.852  12.727  13.122
70226SOL     OW12574   2.426  12.352  14.754
70226SOL    HW112575   2.479  12.313  14.824
70226SOL    HW212576   2.374  12.279  14.720
70227SOL     OW12577   1.418  11.328  10.605
70227SOL    HW112578   1.511  11.338  10.585
70227SOL    HW212579   1.414  11.262  10.674
70228SOL     OW12580  14.254  13.630   6.965
70228SOL    HW112581  14.346  13.616   6.945
70228SOL    HW212582  14.225  13.696   6.902
70229SOL     OW12583   0.621   6.529   9.891
70229SOL    HW112584   0.657   6.536   9.803
70229SOL    HW212585   0.596   6.619   9.914
70230SOL     OW12586  12.856  12.299   3.488
70230SOL    HW112587  12.826  12.315   3.578
70230SOL    HW212588  12.868  12.386   3.451
70231SOL     OW12589   7.058   1.621   2.334
70231SOL    HW112590   7.125   1.603   2.401
70231SOL    HW212591   7.099   1.596   2.252
70232SOL     OW12592   6.012  14.330   7.485
70232SOL    HW112593   6.063  14.376   7.419
70232SOL    HW212594   5.925  14.322   7.446
70233SOL     OW12595   8.072   6.000  10.191
70233SOL    HW112596   8.064   6.095  10.184
70233SOL    HW212597   7.989   5.966  10.157
70234SOL     OW12598   7.067   6.392   0.503
70234SOL    HW112599   7.104   6.449   0.436
70234SOL    HW212600   7.110   6.419   0.584
70235SOL     OW12601  12.365   4.272   9.011
70235SOL    HW112602  12.350   4.279   8.916
70235SOL    HW212603  12.400   4.357   9.036
70236SOL     OW12604   1.609   9.970   6.803
70236SOL    HW112605   1.578   9.918   6.876
70236SOL    HW212606   1.703   9.980   6.819
70237SOL     OW12607   4.269   9.908  13.918
70237SOL    HW112608   4.299   9.994  13.946
70237SOL    HW212609   4.218   9.925  13.838
70238SOL     OW12610  14.451   9.541   1.974
70238SOL    HW112611  14.370   9.572   2.016
70238SOL    HW212612  14.503   9.506   2.047
70239SOL     OW12613   5.330  12.747   2.053
70239SOL    HW112614   5.271  12.804   2.004
70239SOL    HW212615   5.286  12.662   2.054
70240SOL     OW12616   1.630   2.593   9.666
70240SOL    HW112617   1.596   2.579   9.754
70240SOL    HW212618   1.582   2.669   9.633
70241SOL     OW12619   6.127  10.422  14.618
70241SOL    HW112620   6.151  10.478  14.545
70241SOL    HW212621   6.185  10.450  14.690
70242SOL     OW12622   1.726   0.930   5.379
70242SOL    HW112623   1.739   0.868   5.451
70242SOL    HW212624   1.690   1.008   5.421
70243SOL     OW12625   7.726   4.790   4.086
70243SOL    HW112626   7.694   4.874   4.054
70243SOL    HW212627   7.658   4.761   4.148
70244SOL     OW12628  13.997  10.177  14.822
70244SOL    HW112629  13.933  10.248  14.831
70244SOL    HW212630  13.987  10.146  14.732
70245SOL     OW12631  14.451   5.091  10.973
70245SOL    HW112632  14.512   5.020  10.991
70245SOL    HW212633  14.428   5.126  11.059
70246SOL     OW12634   3.399   2.650  12.034
70246SOL    HW112635   3.468   2.672  12.097
70246SOL    HW212636   3.324   2.625  12.088
70247SOL     OW12637   2.030  14.086  10.018
70247SOL    HW112638   1.940  14.060  10.037
70247SOL    HW212639   2.075  14.005   9.996
70248SOL     OW12640  13.970   0.052   6.648
70248SOL    HW112641  13.999   0.118   6.712
70248SOL    HW212642  13.957   0.101   6.567
70249SOL     OW12643   6.104   8.413   4.309
70249SOL    HW112644   6.126   8.350   4.241
70249SOL    HW212645   6.118   8.499   4.269
70250SOL     OW12646  12.015   9.664   3.523
70250SOL    HW112647  11.969   9.682   3.606
70250SOL    HW212648  11.953   9.693   3.456
70251SOL     OW12649   9.870  11.641  13.430
70251SOL    HW112650   9.858  11.606  13.342
70251SOL    HW212651   9.833  11.574  13.488
70252SOL     OW12652  12.097   1.136  12.198
70252SOL    HW112653  12.189   1.133  12.225
70252SOL    HW212654  12.088   1.221  12.153
70253SOL     OW12655   1.849   9.507   7.635
70253SOL    HW112656   1.892   9.579   7.588
70253SOL    HW212657   1.767   9.545   7.666
70254SOL     OW12658   4.160   6.156  11.714
70254SOL    HW112659   4.129   6.158  11.805
70254SOL    HW212660   4.122   6.234  11.674
70255SOL     OW12661   4.418   5.204   0.615
70255SOL    HW112662   4.409   5.137   0.547
70255SOL    HW212663   4.336   5.253   0.613
70256SOL     OW12664   9.847   3.946  10.131
70256SOL    HW112665   9.842   3.934  10.225
70256SOL    HW212666   9.757   3.961  10.103
70257SOL     OW12667   0.192   7.252   7.378
70257SOL    HW112668   0.267   7.310   7.394
70257SOL    HW212669   0.183   7.203   7.460
70258SOL     OW12670   0.678  13.639  12.469
70258SOL    HW112671   0.745  13.603  12.411
70258SOL    HW212672   0.712  13.627  12.557
70259SOL     OW12673  10.505  13.938   4.921
70259SOL    HW112674  10.599  13.940   4.908
70259SOL    HW212675  10.475  13.862   4.871
70260SOL     OW12676   5.987  11.495   4.623
70260SOL    HW112677   6.000  11.578   4.578
70260SOL    HW212678   6.016  11.510   4.713
70261SOL     OW12679   5.901   2.938   6.676
70261SOL    HW112680   5.968   2.870   6.686
70261SOL    HW212681   5.826   2.906   6.726
70262SOL     OW12682   3.476   9.337   2.594
70262SOL    HW112683   3.497   9.392   2.518
70262SOL    HW212684   3.443   9.398   2.660
70263SOL     OW12685  12.596   6.489   4.209
70263SOL    HW112686  12.554   6.574   4.225
70263SOL    HW212687  12.586   6.476   4.115
70264SOL     OW12688   0.909   5.593   9.575
70264SOL    HW112689   0.913   5.601   9.670
70264SOL    HW212690   0.856   5.667   9.547
70265SOL     OW12691  10.579   3.216   2.065
70265SOL    HW112692  10.548   3.140   2.015
70265SOL    HW212693  10.555   3.291   2.011
70266SOL     OW12694   3.124   0.140   8.037
70266SOL    HW112695   3.148   0.219   7.988
70266SOL    HW212696   3.073   0.172   8.111
70267SOL     OW12697  11.322  13.577   3.721
70267SOL    HW112698  11.322  13.500   3.778
70267SOL    HW212699  11.230  13.602   3.715
70268SOL     OW12700   6.338  10.575  10.100
70268SOL    HW112701   6.313  10.613  10.184
70268SOL    HW212702   6.309  10.638  10.034
70269SOL     OW12703   0.152   9.804  13.572
70269SOL    HW112704   0.106   9.721  13.579
70269SOL    HW212705   0.223   9.787  13.509
70270SOL     OW12706  13.561   5.621   2.286
70270SOL    HW112707  13.598   5.623   2.197
70270SOL    HW212708  13.466   5.624   2.273
70271SOL     OW12709   8.439  13.496   9.995
70271SOL    HW112710   8.371  13.437  10.030
70271SOL    HW212711   8.390  13.569   9.957
70272SOL     OW12712   8.636   2.378   5.383
70272SOL    HW112713   8.551   2.337   5.365
70272SOL    HW212714   8.693   2.345   5.313
70273SOL     OW12715  14.864   6.045  11.407
70273SOL    HW112716  14.856   5.961  11.361
70273SOL    HW212717  14.806   6.037  11.482
70274SOL     OW12718   2.165   8.384  12.787
70274SOL    HW112719   2.250   8.425  12.800
70274SOL    HW212720   2.121   8.440  12.723
70275SOL     OW12721   5.234  14.277   8.894
70275SOL    HW112722   5.150  14.295   8.938
70275SOL    HW212723   5.269  14.201   8.940
70276SOL     OW12724  14.654   4.552   1.681
70276SOL    HW112725  14.604   4.511   1.752
70276SOL    HW212726  14.609   4.635   1.666
70277SOL     OW12727  10.890   6.440   6.071
70277SOL    HW112728  10.803   6.448   6.032
70277SOL    HW212729  10.938   6.385   6.009
70278SOL     OW12730   7.677  10.392  12.784
70278SOL    HW112731   7.750  10.372  12.842
70278SOL    HW212732   7.616  10.320  12.797
70279SOL     OW12733   5.196   0.899  13.376
70279SOL    HW112734   5.202   0.832  13.308
70279SOL    HW212735   5.236   0.859  13.453
70280SOL     OW12736   8.839   8.610   9.767
70280SOL    HW112737   8.877   8.523   9.780
70280SOL    HW212738   8.763   8.613   9.825
70281SOL     OW12739   7.411   5.572   8.862
70281SOL    HW112740   7.352   5.510   8.818
70281SOL    HW212741   7.393   5.560   8.955
70282SOL     OW12742  14.268  13.097   6.383
70282SOL    HW112743  14.322  13.134   6.453
70282SOL    HW212744  14.275  13.161   6.312
70283SOL     OW12745  10.365   2.352   6.604
70283SOL    HW112746  10.460   2.354   6.620
70283SOL    HW212747  10.353   2.406   6.526
70284SOL     OW12748   3.761  11.691   2.114
70284SOL    HW112749   3.684  11.735   2.151
70284SOL    HW212750   3.813  11.761   2.076
70285SOL     OW12751   2.945   2.692  12.697
70285SOL    HW112752   3.037   2.716  12.703
70285SOL    HW212753   2.940   2.633  12.622
70286SOL     OW12754   4.078   6.643   5.869
70286SOL    HW112755   4.055   6.736   5.868
70286SOL    HW212756   4.113   6.626   5.782
70287SOL     OW12757  12.169   2.479  11.749
70287SOL    HW112758  12.248   2.459  11.699
70287SOL    HW212759  12.167   2.575  11.753
70288SOL     OW12760   4.956   2.894   2.764
70288SOL    HW112761   4.877   2.852   2.797
70288SOL    HW212762   4.971   2.853   2.678
70289SOL     OW12763   9.622   1.606  11.088
70289SOL    HW112764   9.576   1.680  11.128
70289SOL    HW212765   9.553   1.541  11.073
70290SOL     OW12766  14.863   1.712   2.442
70290SOL    HW112767  14.803   1.739   2.512
70290SOL    HW212768  14.815   1.644   2.394
70291SOL     OW12769   5.645   8.558   4.839
70291SOL    HW112770   5.560   8.559   4.882
70291SOL    HW212771   5.681   8.472   4.858
70292SOL     OW12772  11.783   8.085   4.358
70292SOL    HW112773  11.771   7.990   4.353
70292SOL    HW212774  11.714   8.121   4.302
70293SOL     OW12775   4.680   2.305   4.026
70293SOL    HW112776   4.682   2.243   3.953
70293SOL    HW212777   4.756   2.361   4.012
70294SOL     OW12778  12.813   7.559   6.074
70294SOL    HW112779  12.726   7.596   6.063
70294SOL    HW212780  12.855   7.616   6.139
70295SOL     OW12781  13.661   9.584   6.464
70295SOL    HW112782  13.731   9.560   6.403
70295SOL    HW212783  13.586   9.534   6.434
70296SOL     OW12784  10.739   1.669   6.088
70296SOL    HW112785  10.644   1.657   6.082
70296SOL    HW212786  10.749   1.758   6.123
70297SOL     OW12787  12.693   3.384  11.197
70297SOL    HW112788  12.731   3.451  11.255
70297SOL    HW212789  12.766   3.326  11.176
70298SOL     OW12790   4.937   6.983   5.279
70298SOL    HW112791   4.937   7.075   5.253
70298SOL    HW212792   4.888   6.939   5.209
70299SOL     OW12793  10.395  13.693  11.372
70299SOL    HW112794  10.477  13.674  11.326
70299SOL    HW212795  10.365  13.776  11.335
70300SOL     OW12796   4.534  11.531  14.518
70300SOL    HW112797   4.444  11.530  14.549
70300SOL    HW212798   4.576  11.601  14.568
70301SOL     OW12799   4.029  12.224   6.060
70301SOL    HW112800   4.042  12.249   5.969
70301SOL    HW212801   4.001  12.133   6.056
70302SOL     OW12802   0.965  12.118   1.798
70302SOL    HW112803   0.944  12.208   1.821
70302SOL    HW212804   0.882  12.081   1.766
70303SOL     OW12805   9.664  14.332  14.819
70303SOL    HW112806   9.576  14.366  14.806
70303SOL    HW212807   9.698  14.383   0.023
70304SOL     OW12808  13.104   8.111  13.724
70304SOL    HW112809  13.015   8.091  13.752
70304SOL    HW212810  13.144   8.155  13.800
70305SOL     OW12811   2.590   1.882   2.383
70305SOL    HW112812   2.658   1.863   2.448
70305SOL    HW212813   2.613   1.968   2.349
70306SOL     OW12814   5.139   1.931   6.113
70306SOL    HW112815   5.170   1.981   6.189
70306SOL    HW212816   5.045   1.948   6.110
70307SOL     OW12817   1.017   1.988   1.354
70307SOL    HW112818   1.065   1.907   1.369
70307SOL    HW212819   1.077   2.042   1.302
70308SOL     OW12820  10.879   7.475  13.422
70308SOL    HW112821  10.952   7.427  13.462
70308SOL    HW212822  10.922   7.544  13.370
70309SOL     OW12823  12.111   5.308   0.629
70309SOL    HW112824  12.168   5.353   0.691
70309SOL    HW212825  12.029   5.356   0.632
70310SOL     OW12826   1.130  10.470   7.557
70310SOL    HW112827   1.130  10.375   7.545
70310SOL    HW212828   1.174  10.484   7.641
70311SOL     OW12829  13.787   1.241   1.116
70311SOL    HW112830  13.820   1.157   1.147
70311SOL    HW212831  13.698   1.222   1.086
70312SOL     OW12832   4.253   1.032   0.972
70312SOL    HW112833   4.280   1.000   0.886
70312SOL    HW212834   4.180   0.975   0.998
70313SOL     OW12835  10.445   6.526  11.386
70313SOL    HW112836  10.454   6.488  11.474
70313SOL    HW212837  10.475   6.616  11.396
70314SOL     OW12838   2.306   8.956   5.111
70314SOL    HW112839   2.297   8.866   5.145
70314SOL    HW212840   2.236   9.005   5.155
70315SOL     OW12841   1.313   8.029   2.578
70315SOL    HW112842   1.332   8.091   2.507
70315SOL    HW212843   1.276   7.953   2.533
70316SOL     OW12844  10.029   5.042   6.365
70316SOL    HW112845   9.960   5.002   6.311
70316SOL    HW212846  10.110   5.020   6.320
70317SOL     OW12847  12.691   0.976   0.131
70317SOL    HW112848  12.619   1.017   0.083
70317SOL    HW212849  12.770   1.019   0.099
70318SOL     OW12850   2.396   0.993   5.108
70318SOL    HW112851   2.345   0.933   5.162
70318SOL    HW212852   2.348   0.998   5.025
70319SOL     OW12853   3.043   7.160   4.927
70319SOL    HW112854   3.031   7.186   4.836
70319SOL    HW212855   3.043   7.243   4.975
70320SOL     OW12856   8.609   5.951  13.408
70320SOL    HW112857   8.626   5.919  13.319
70320SOL    HW212858   8.545   5.890  13.444
70321SOL     OW12859   0.439   6.955   3.522
70321SOL    HW112860   0.410   6.975   3.611
70321SOL    HW212861   0.364   6.909   3.482
70322SOL     OW12862   9.702   5.958  11.226
70322SOL    HW112863   9.704   5.993  11.315
70322SOL    HW212864   9.642   6.016  11.179
70323SOL     OW12865  12.465   6.427   9.746
70323SOL    HW112866  12.531   6.414   9.815
70323SOL    HW212867  12.399   6.483   9.786
70324SOL     OW12868  12.700   3.887  12.526
70324SOL    HW112869  12.685   3.841  12.608
70324SOL    HW212870  12.633   3.955  12.524
70325SOL     OW12871   8.438  11.658   6.218
70325SOL    HW112872   8.391  11.734   6.183
70325SOL    HW212873   8.425  11.590   6.152
70326SOL     OW12874   8.999   5.786   0.554
70326SOL    HW112875   9.059   5.824   0.618
70326SOL    HW212876   9.041   5.704   0.527
70327SOL     OW12877  14.181   8.820  12.127
70327SOL    HW112878  14.204   8.903  12.169
70327SOL    HW212879  14.266   8.777  12.112
70328SOL     OW12880   8.808   8.125   7.306
70328SOL    HW112881   8.833   8.037   7.280
70328SOL    HW212882   8.879   8.181   7.275
70329SOL     OW12883   8.422   3.208  13.090
70329SOL    HW112884   8.395   3.267  13.019
70329SOL    HW212885   8.412   3.120  13.054
70330SOL     OW12886   0.479   5.500   3.437
70330SOL    HW112887   0.454   5.592   3.445
70330SOL    HW212888   0.575   5.501   3.439
70331SOL     OW12889  13.722   7.600   8.117
70331SOL    HW112890  13.730   7.671   8.054
70331SOL    HW212891  13.648   7.625   8.173
70332SOL     OW12892   1.493   6.807   5.732
70332SOL    HW112893   1.491   6.829   5.639
70332SOL    HW212894   1.584   6.782   5.749
70333SOL     OW12895   5.559   5.147   9.840
70333SOL    HW112896   5.566   5.242   9.846
70333SOL    HW212897   5.510   5.122   9.918
70334SOL     OW12898   5.450   6.158   7.475
70334SOL    HW112899   5.478   6.152   7.384
70334SOL    HW212900   5.531   6.146   7.526
70335SOL     OW12901  12.263  13.598   8.011
70335SOL    HW112902  12.178  13.555   7.997
70335SOL    HW212903  12.241  13.679   8.058
70336SOL     OW12904   9.597   5.216   8.330
70336SOL    HW112905   9.641   5.194   8.412
70336SOL    HW212906   9.639   5.160   8.265
70337SOL     OW12907   2.512   1.019   4.758
70337SOL    HW112908   2.429   1.013   4.805
70337SOL    HW212909   2.529   1.113   4.750
70338SOL     OW12910   3.580  13.266   5.143
70338SOL    HW112911   3.527  13.187   5.148
70338SOL    HW212912   3.611  13.279   5.233
70339SOL     OW12913  10.641   5.567   9.037
70339SOL    HW112914  10.618   5.635   9.100
70339SOL    HW212915  10.565   5.509   9.034
70340SOL     OW12916   7.757   7.291   2.282
70340SOL    HW112917   7.790   7.319   2.197
70340SOL    HW212918   7.775   7.365   2.340
70341SOL     OW12919   7.478  10.596   0.073
70341SOL    HW112920   7.495  10.591   0.167
70341SOL    HW212921   7.469  10.505   0.045
70342SOL     OW12922   6.425   7.107   6.809
70342SOL    HW112923   6.473   7.125   6.890
70342SOL    HW212924   6.425   7.012   6.802
70343SOL     OW12925  13.873  14.585   5.530
70343SOL    HW112926  13.793  14.598   5.580
70343SOL    HW212927  13.941  14.573   5.596
70344SOL     OW12928   0.209  10.190   8.036
70344SOL    HW112929   0.294  10.217   8.069
70344SOL    HW212930   0.168  10.271   8.005
70345SOL     OW12931   2.500   1.439   0.648
70345SOL    HW112932   2.461   1.481   0.724
70345SOL    HW212933   2.444   1.364   0.629
70346SOL     OW12934   5.204   2.856   8.145
70346SOL    HW112935   5.210   2.762   8.163
70346SOL    HW212936   5.112   2.871   8.123
70347SOL     OW12937  14.418   8.803  14.200
70347SOL    HW112938  14.475   8.819  14.124
70347SOL    HW212939  14.355   8.875  14.198
70348SOL     OW12940   4.098   7.200   6.012
70348SOL    HW112941   4.082   7.179   5.920
70348SOL    HW212942   4.150   7.280   6.010
70349SOL     OW12943   7.449   7.394   7.145
70349SOL    HW112944   7.539   7.370   7.125
70349SOL    HW212945   7.403   7.310   7.150
70350SOL     OW12946   4.441   4.679  13.312
70350SOL    HW112947   4.410   4.749  13.255
70350SOL    HW212948   4.419   4.598  13.265
70351SOL     OW12949   7.469  10.949  14.144
70351SOL    HW112950   7.451  11.042  14.150
70351SOL    HW212951   7.520  10.929  14.222
70352SOL     OW12952   4.052  10.567   0.249
70352SOL    HW112953   4.033  10.508   0.323
70352SOL    HW212954   4.004  10.529   0.176
70353SOL     OW12955   5.336   2.769  10.430
70353SOL    HW112956   5.323   2.788  10.337
70353SOL    HW212957   5.388   2.688  10.431
70354SOL     OW12958  11.538  11.517   4.983
70354SOL    HW112959  11.582  11.464   5.050
70354SOL    HW212960  11.555  11.607   5.009
70355SOL     OW12961   4.676  14.013   7.747
70355SOL    HW112962   4.704  13.940   7.692
70355SOL    HW212963   4.673  13.977   7.835
70356SOL     OW12964   2.233  10.836   9.606
70356SOL    HW112965   2.236  10.917   9.655
70356SOL    HW212966   2.165  10.784   9.648
70357SOL     OW12967  11.039   7.336  11.303
70357SOL    HW112968  10.949   7.341  11.334
70357SOL    HW212969  11.092   7.348  11.381
70358SOL     OW12970  11.507   0.728   4.152
70358SOL    HW112971  11.506   0.659   4.085
70358SOL    HW212972  11.572   0.791   4.121
70359SOL     OW12973  11.410  11.789   3.830
70359SOL    HW112974  11.425  11.695   3.821
70359SOL    HW212975  11.473  11.829   3.769
70360SOL     OW12976  12.280   5.335  14.152
70360SOL    HW112977  12.194   5.311  14.186
70360SOL    HW212978  12.280   5.431  14.154
70361SOL     OW12979   2.816   1.728   1.493
70361SOL    HW112980   2.840   1.635   1.491
70361SOL    HW212981   2.895   1.774   1.464
70362SOL     OW12982  14.693   3.400  11.639
70362SOL    HW112983  14.616   3.345  11.651
70362SOL    HW212984  14.759   3.362  11.698
70363SOL     OW12985   3.326  13.808   5.200
70363SOL    HW112986   3.377  13.729   5.178
70363SOL    HW212987   3.257  13.776   5.259
70364SOL     OW12988   5.328  12.783  14.570
70364SOL    HW112989   5.234  12.772  14.578
70364SOL    HW212990   5.362  12.694  14.558
70365SOL     OW12991   2.213  14.434   3.925
70365SOL    HW112992   2.177  14.463   4.009
70365SOL    HW212993   2.183  14.344   3.916
70366SOL     OW12994   4.322   8.033  12.022
70366SOL    HW112995   4.235   7.994  12.012
70366SOL    HW212996   4.382   7.958  12.017
70367SOL     OW12997   0.142  13.482  10.115
70367SOL    HW112998   0.109  13.564  10.079
70367SOL    HW212999   0.129  13.418  10.045
70368SOL     OW13000   7.108  11.125   3.415
70368SOL    HW113001   7.014  11.108   3.411
70368SOL    HW213002   7.121  11.202   3.360
70369SOL     OW13003   3.668  12.759   1.497
70369SOL    HW113004   3.646  12.666   1.491
70369SOL    HW213005   3.594  12.804   1.455
70370SOL     OW13006   3.752  10.206   8.547
70370SOL    HW113007   3.810  10.161   8.610
70370SOL    HW213008   3.755  10.151   8.469
70371SOL     OW13009  13.349   1.348   7.637
70371SOL    HW113010  13.269   1.295   7.643
70371SOL    HW213011  13.416   1.288   7.605
70372SOL     OW13012   9.971   3.482  14.670
70372SOL    HW113013   9.969   3.392  14.638
70372SOL    HW213014  10.016   3.476  14.754
70373SOL     OW13015  11.949   7.077  10.457
70373SOL    HW113016  12.019   7.024  10.419
70373SOL    HW213017  11.971   7.083  10.550
70374SOL     OW13018  12.209   4.090   0.322
70374SOL    HW113019  12.153   4.166   0.339
70374SOL    HW213020  12.273   4.091   0.394
70375SOL     OW13021   9.525   6.449   8.707
70375SOL    HW113022   9.604   6.396   8.713
70375SOL    HW213023   9.556   6.539   8.720
70376SOL     OW13024   5.091   6.983   3.749
70376SOL    HW113025   5.165   7.004   3.806
70376SOL    HW213026   5.081   6.888   3.756
70377SOL     OW13027  14.521  11.883   3.048
70377SOL    HW113028  14.518  11.861   3.141
70377SOL    HW213029  14.492  11.803   3.004
70378SOL     OW13030  11.420   0.103   3.480
70378SOL    HW113031  11.446   0.022   3.436
70378SOL    HW213032  11.324   0.100   3.482
70379SOL     OW13033   6.334  12.911   2.913
70379SOL    HW113034   6.384  12.950   2.842
70379SOL    HW213035   6.254  12.879   2.871
70380SOL     OW13036   8.874  10.220   2.597
70380SOL    HW113037   8.855  10.178   2.513
70380SOL    HW213038   8.826  10.167   2.661
70381SOL     OW13039  13.503   4.369   5.254
70381SOL    HW113040  13.467   4.406   5.173
70381SOL    HW213041  13.449   4.292   5.272
70382SOL     OW13042   1.445  12.324   4.865
70382SOL    HW113043   1.490  12.406   4.848
70382SOL    HW213044   1.464  12.304   4.957
70383SOL     OW13045   8.129   5.971  12.676
70383SOL    HW113046   8.111   5.956  12.768
70383SOL    HW213047   8.049   6.010  12.641
70384SOL     OW13048   3.610   9.979  12.623
70384SOL    HW113049   3.550  10.009  12.555
70384SOL    HW213050   3.631   9.889  12.599
70385SOL     OW13051   0.017  12.293   7.338
70385SOL    HW113052  14.814  12.352   7.318
70385SOL    HW213053   0.026  12.297   7.433
70386SOL     OW13054  10.439   3.834   7.203
70386SOL    HW113055  10.361   3.780   7.212
70386SOL    HW213056  10.451   3.843   7.108
70387SOL     OW13057   8.753   6.089  11.248
70387SOL    HW113058   8.716   6.014  11.294
70387SOL    HW213059   8.824   6.053  11.195
70388SOL     OW13060  11.493   5.463   6.310
70388SOL    HW113061  11.462   5.402   6.243
70388SOL    HW213062  11.584   5.437   6.326
70389SOL     OW13063   1.658   8.683   5.869
70389SOL    HW113064   1.580   8.720   5.827
70389SOL    HW213065   1.650   8.707   5.961
70390SOL     OW13066   8.959   6.193  10.257
70390SOL    HW113067   8.890   6.221  10.196
70390SOL    HW213068   8.985   6.274  10.301
70391SOL     OW13069   8.361   9.987   5.150
70391SOL    HW113070   8.445   9.948   5.126
70391SOL    HW213071   8.295   9.928   5.114
70392SOL     OW13072   1.286   7.908  14.637
70392SOL    HW113073   1.250   7.977  14.581
70392SOL    HW213074   1.294   7.832  14.579
70393SOL     OW13075  10.054   4.306   4.884
70393SOL    HW113076   9.976   4.361   4.882
70393SOL    HW213077  10.047   4.258   4.966
70394SOL     OW13078   5.108   6.265   1.196
70394SOL    HW113079   5.141   6.353   1.215
70394SOL    HW213080   5.175   6.206   1.229
70395SOL     OW13081  13.724   7.329   7.525
70395SOL    HW113082  13.633   7.326   7.553
70395SOL    HW213083  13.762   7.248   7.558
70396SOL     OW13084   9.640  10.440   2.783
70396SOL    HW113085   9.589  10.361   2.802
70396SOL    HW213086   9.651  10.439   2.688
70397SOL     OW13087  12.136  12.496  12.684
70397SOL    HW113088  12.052  12.466  12.647
70397SOL    HW213089  12.167  12.422  12.735
70398SOL     OW13090   2.769  13.097   9.207
70398SOL    HW113091   2.770  13.058   9.120
70398SOL    HW213092   2.861  13.106   9.230
70399SOL     OW13093   1.936   9.272  11.213
70399SOL    HW113094   2.024   9.307  11.202
70399SOL    HW213095   1.895   9.331  11.277
70400SOL     OW13096   4.995   0.400  11.282
70400SOL    HW113097   5.079   0.390  11.236
70400SOL    HW213098   4.950   0.469  11.234
70401SOL     OW13099   9.264   8.332  11.250
70401SOL    HW113100   9.314   8.364  11.174
70401SOL    HW213101   9.324   8.273  11.295
70402SOL     OW13102   0.334   4.496  14.790
70402SOL    HW113103   0.411   4.488  14.733
70402SOL    HW213104   0.334   4.588  14.816
70403SOL     OW13105  14.455  13.660  11.723
70403SOL    HW113106  14.540  13.663  11.768
70403SOL    HW213107  14.436  13.752  11.704
70404SOL     OW13108   0.876  13.846  10.681
70404SOL    HW113109   0.813  13.827  10.612
70404SOL    HW213110   0.823  13.850  10.761
70405SOL     OW13111   6.281  12.396  14.136
70405SOL    HW113112   6.250  12.421  14.049
70405SOL    HW213113   6.274  12.476  14.188
70406SOL     OW13114  12.564  10.282   9.964
70406SOL    HW113115  12.562  10.191   9.994
70406SOL    HW213116  12.504  10.283   9.889
70407SOL     OW13117  10.830   0.452  10.521
70407SOL    HW113118  10.880   0.383  10.478
70407SOL    HW213119  10.865   0.533  10.485
70408SOL     OW13120   8.792   0.279  11.945
70408SOL    HW113121   8.846   0.339  11.894
70408SOL    HW213122   8.707   0.278  11.899
70409SOL     OW13123   0.858   9.392   6.827
70409SOL    HW113124   0.792   9.430   6.769
70409SOL    HW213125   0.808   9.334   6.885
70410SOL     OW13126   1.946   0.811  12.187
70410SOL    HW113127   1.923   0.792  12.096
70410SOL    HW213128   1.912   0.737  12.236
70411SOL     OW13129  14.587   1.431   8.199
70411SOL    HW113130  14.602   1.388   8.283
70411SOL    HW213131  14.673   1.431   8.157
70412SOL     OW13132   0.111   8.561  13.334
70412SOL    HW113133   0.027   8.593  13.302
70412SOL    HW213134   0.167   8.559  13.256
70413SOL     OW13135   0.720  11.981   7.675
70413SOL    HW113136   0.700  11.989   7.768
70413SOL    HW213137   0.635  11.973   7.632
70414SOL     OW13138   5.470   2.710   8.207
70414SOL    HW113139   5.513   2.790   8.176
70414SOL    HW213140   5.427   2.674   8.129
70415SOL     OW13141   1.437  10.677   3.778
70415SOL    HW113142   1.486  10.729   3.842
70415SOL    HW213143   1.358  10.728   3.761
70416SOL     OW13144   3.792   2.867  10.663
70416SOL    HW113145   3.770   2.926  10.591
70416SOL    HW213146   3.798   2.781  10.623
70417SOL     OW13147   0.881   6.348   3.720
70417SOL    HW113148   0.819   6.339   3.648
70417SOL    HW213149   0.878   6.441   3.743
70418SOL     OW13150  10.895   4.682  12.790
70418SOL    HW113151  10.957   4.675  12.863
70418SOL    HW213152  10.947   4.662  12.712
70419SOL     OW13153  11.385  14.729   6.226
70419SOL    HW113154  11.398  14.680   6.307
70419SOL    HW213155  11.316  14.682   6.180
70420SOL     OW13156  11.563   4.416   0.537
70420SOL    HW113157  11.625   4.476   0.578
70420SOL    HW213158  11.525   4.465   0.465
70421SOL     OW13159   0.235  10.594   1.515
70421SOL    HW113160   0.198  10.555   1.435
70421SOL    HW213161   0.242  10.687   1.495
70422SOL     OW13162  12.849  12.219   7.894
70422SOL    HW113163  12.768  12.261   7.921
70422SOL    HW213164  12.821  12.136   7.856
70423SOL     OW13165  13.495   5.076   4.328
70423SOL    HW113166  13.423   5.014   4.313
70423SOL    HW213167  13.548   5.069   4.248
70424SOL     OW13168   1.840   4.695  13.145
70424SOL    HW113169   1.789   4.639  13.087
70424SOL    HW213170   1.813   4.669  13.233
70425SOL     OW13171   0.477  11.718   6.331
70425SOL    HW113172   0.533  11.653   6.286
70425SOL    HW213173   0.511  11.721   6.420
70426SOL     OW13174   1.328   8.032  13.193
70426SOL    HW113175   1.390   8.053  13.123
70426SOL    HW213176   1.361   8.078  13.270
70427SOL     OW13177  13.530  14.014   6.196
70427SOL    HW113178  13.446  14.059   6.204
70427SOL    HW213179  13.596  14.084   6.201
70428SOL     OW13180   4.551   1.440   9.579
70428SOL    HW113181   4.623   1.489   9.619
70428SOL    HW213182   4.517   1.385   9.649
70429SOL     OW13183   0.905   8.082   8.397
70429SOL    HW113184   0.965   8.091   8.471
70429SOL    HW213185   0.942   8.139   8.329
70430SOL     OW13186  13.422   2.138  10.088
70430SOL    HW113187  13.393   2.120  10.178
70430SOL    HW213188  13.346   2.115  10.034
70431SOL     OW13189   2.580   2.813   6.441
70431SOL    HW113190   2.500   2.838   6.395
70431SOL    HW213191   2.568   2.847   6.530
70432SOL     OW13192   8.841   4.412   8.421
70432SOL    HW113193   8.747   4.426   8.432
70432SOL    HW213194   8.856   4.419   8.327
70433SOL     OW13195   9.864  10.836   4.007
70433SOL    HW113196   9.888  10.749   4.039
70433SOL    HW213197   9.947  10.885   4.006
70434SOL     OW13198   9.075  10.017   7.385
70434SOL    HW113199   9.157  10.047   7.346
70434SOL    HW213200   9.016  10.005   7.310
70435SOL     OW13201   1.461   6.575   5.028
70435SOL    HW113202   1.413   6.614   4.955
70435SOL    HW213203   1.409   6.599   5.105
70436SOL     OW13204   8.770   8.314  13.153
70436SOL    HW113205   8.770   8.254  13.079
70436SOL    HW213206   8.763   8.257  13.230
70437SOL     OW13207   0.961  12.305   4.282
70437SOL    HW113208   0.931  12.395   4.269
70437SOL    HW213209   1.056  12.312   4.279
70438SOL     OW13210   3.536   2.542   3.450
70438SOL    HW113211   3.443   2.530   3.468
70438SOL    HW213212   3.543   2.632   3.419
70439SOL     OW13213   2.871  14.265   1.625
70439SOL    HW113214   2.813  14.323   1.576
70439SOL    HW213215   2.913  14.322   1.690
70440SOL     OW13216   1.602  14.787   7.291
70440SOL    HW113217   1.633  14.830   7.371
70440SOL    HW213218   1.681  14.753   7.250
70441SOL     OW13219   2.100   7.455   0.615
70441SOL    HW113220   2.098   7.453   0.520
70441SOL    HW213221   2.115   7.547   0.637
70442SOL     OW13222   3.801   1.785   1.674
70442SOL    HW113223   3.833   1.870   1.702
70442SOL    HW213224   3.766   1.800   1.586
70443SOL     OW13225   9.363  13.886   1.702
70443SOL    HW113226   9.290  13.862   1.758
70443SOL    HW213227   9.394  13.804   1.665
70444SOL     OW13228   5.107   4.256   8.269
70444SOL    HW113229   5.158   4.335   8.290
70444SOL    HW213230   5.056   4.240   8.349
70445SOL     OW13231   6.439  13.011   8.499
70445SOL    HW113232   6.477  12.925   8.486
70445SOL    HW213233   6.499  13.055   8.559
70446SOL     OW13234   3.814  11.779  14.103
70446SOL    HW113235   3.819  11.816  14.015
70446SOL    HW213236   3.852  11.692  14.095
70447SOL     OW13237  13.969  11.923   2.159
70447SOL    HW113238  14.033  11.974   2.208
70447SOL    HW213239  13.964  11.966   2.073
70448SOL     OW13240   6.456   1.470   8.324
70448SOL    HW113241   6.428   1.529   8.254
70448SOL    HW213242   6.551   1.467   8.316
70449SOL     OW13243   2.528  13.079   2.477
70449SOL    HW113244   2.444  13.093   2.434
70449SOL    HW213245   2.529  12.986   2.498
70450SOL     OW13246  10.700   3.423   6.855
70450SOL    HW113247  10.688   3.490   6.922
70450SOL    HW213248  10.766   3.460   6.797
70451SOL     OW13249   3.835  11.776   5.161
70451SOL    HW113250   3.753  11.747   5.122
70451SOL    HW213251   3.870  11.838   5.098
70452SOL     OW13252   5.226   4.703  12.573
70452SOL    HW113253   5.196   4.762  12.643
70452SOL    HW213254   5.168   4.628  12.579
70453SOL     OW13255   9.271  11.249   9.669
70453SOL    HW113256   9.257  11.343   9.682
70453SOL    HW213257   9.230  11.230   9.584
70454SOL     OW13258  14.735  13.411   9.990
70454SOL    HW113259  14.653  13.363  10.002
70454SOL    HW213260  14.781  13.362   9.922
70455SOL     OW13261   0.290   6.364  14.758
70455SOL    HW113262   0.283   6.429  14.688
70455SOL    HW213263   0.255   6.284  14.719
70456SOL     OW13264   0.403  13.850   0.875
70456SOL    HW113265   0.342  13.904   0.925
70456SOL    HW213266   0.444  13.911   0.813
70457SOL     OW13267  13.264  11.608  12.979
70457SOL    HW113268  13.307  11.693  12.965
70457SOL    HW213269  13.189  11.610  12.920
70458SOL     OW13270   8.841  10.349   5.435
70458SOL    HW113271   8.930  10.314   5.445
70458SOL    HW213272   8.850  10.442   5.455
70459SOL     OW13273   3.281   8.188   0.216
70459SOL    HW113274   3.211   8.133   0.180
70459SOL    HW213275   3.343   8.127   0.255
70460SOL     OW13276  12.774   6.318   8.092
70460SOL    HW113277  12.802   6.293   8.004
70460SOL    HW213278  12.856   6.322   8.142
70461SOL     OW13279  12.726  13.590   7.778
70461SOL    HW113280  12.750  13.648   7.850
70461SOL    HW213281  12.635  13.566   7.796
70462SOL     OW13282  14.315   9.038  11.806
70462SOL    HW113283  14.404   9.073  11.817
70462SOL    HW213284  14.328   8.945  11.786
70463SOL     OW13285   3.975   6.656  14.501
70463SOL    HW113286   4.028   6.580  14.523
70463SOL    HW213287   3.904   6.656  14.564
70464SOL     OW13288   8.310   4.907   2.466
70464SOL    HW113289   8.276   4.838   2.523
70464SOL    HW213290   8.386   4.868   2.423
70465SOL     OW13291   2.599   7.619   9.818
70465SOL    HW113292   2.580   7.693   9.875
70465SOL    HW213293   2.551   7.546   9.856
70466SOL     OW13294   0.764  10.970  11.542
70466SOL    HW113295   0.841  10.932  11.500
70466SOL    HW213296   0.774  10.949  11.635
70467SOL     OW13297   3.861  10.033   1.039
70467SOL    HW113298   3.875  10.117   0.995
70467SOL    HW213299   3.808  10.055   1.116
70468SOL     OW13300   0.959   2.468  14.228
70468SOL    HW113301   0.943   2.494  14.319
70468SOL    HW213302   1.025   2.399  14.234
70469SOL     OW13303  10.398  11.093  11.956
70469SOL    HW113304  10.322  11.048  11.994
70469SOL    HW213305  10.375  11.186  11.960
70470SOL     OW13306   4.815   0.226  11.382
70470SOL    HW113307   4.854   0.141  11.358
70470SOL    HW213308   4.873   0.291  11.342
70471SOL     OW13309  13.315   2.799  13.072
70471SOL    HW113310  13.326   2.715  13.118
70471SOL    HW213311  13.259   2.778  12.998
70472SOL     OW13312   8.200   9.125   5.095
70472SOL    HW113313   8.175   9.212   5.064
70472SOL    HW213314   8.294   9.121   5.081
70473SOL     OW13315  14.800   0.973   2.972
70473SOL    HW113316   0.021   0.970   3.003
70473SOL    HW213317  14.752   1.016   3.043
70474SOL     OW13318   1.627   3.822   2.968
70474SOL    HW113319   1.535   3.801   2.955
70474SOL    HW213320   1.630   3.873   3.048
70475SOL     OW13321   4.607   7.762   0.352
70475SOL    HW113322   4.513   7.748   0.350
70475SOL    HW213323   4.621   7.839   0.296
70476SOL     OW13324   2.490   5.041  12.443
70476SOL    HW113325   2.395   5.029  12.438
70476SOL    HW213326   2.504   5.077  12.531
70477SOL     OW13327  13.048  10.089   1.262
70477SOL    HW113328  12.980  10.144   1.222
70477SOL    HW213329  13.099  10.150   1.316
70478SOL     OW13330   5.434   9.625   3.441
70478SOL    HW113331   5.490   9.657   3.512
70478SOL    HW213332   5.488   9.564   3.393
70479SOL     OW13333   3.903   3.662   6.014
70479SOL    HW113334   3.903   3.741   5.960
70479SOL    HW213335   3.995   3.638   6.022
70480SOL     OW13336   3.016   6.683   0.440
70480SOL    HW113337   2.939   6.725   0.401
70480SOL    HW213338   3.007   6.591   0.415
70481SOL     OW13339   5.376   6.885  11.137
70481SOL    HW113340   5.305   6.940  11.101
70481SOL    HW213341   5.456   6.922  11.099
70482SOL     OW13342   7.457   7.233   9.640
70482SOL    HW113343   7.449   7.257   9.548
70482SOL    HW213344   7.551   7.242   9.659
70483SOL     OW13345   5.046   4.634  13.037
70483SOL    HW113346   4.986   4.701  13.070
70483SOL    HW213347   4.997   4.587  12.970
70484SOL     OW13348  14.420  13.397   0.710
70484SOL    HW113349  14.452  13.332   0.648
70484SOL    HW213350  14.488  13.465   0.711
70485SOL     OW13351  10.059   3.190  13.672
70485SOL    HW113352   9.975   3.237  13.668
70485SOL    HW213353  10.121   3.248  13.629
70486SOL     OW13354   9.167   5.007   8.957
70486SOL    HW113355   9.189   4.972   9.043
70486SOL    HW213356   9.073   5.024   8.961
70487SOL     OW13357   3.295   0.014   9.645
70487SOL    HW113358   3.275   0.010   9.739
70487SOL    HW213359   3.340   0.098   9.634
70488SOL     OW13360   8.391  12.009   0.517
70488SOL    HW113361   8.335  11.931   0.515
70488SOL    HW213362   8.479  11.975   0.536
70489SOL     OW13363  12.257   8.338  11.852
70489SOL    HW113364  12.205   8.260  11.831
70489SOL    HW213365  12.338   8.326  11.803
70490SOL     OW13366   3.447   0.234   2.913
70490SOL    HW113367   3.371   0.259   2.966
70490SOL    HW213368   3.417   0.158   2.862
70491SOL     OW13369   5.573   0.823  12.709
70491SOL    HW113370   5.533   0.884  12.647
70491SOL    HW213371   5.657   0.800  12.669
70492SOL     OW13372  14.288   2.462   2.117
70492SOL    HW113373  14.324   2.434   2.202
70492SOL    HW213374  14.365   2.466   2.060
70493SOL     OW13375   6.746   4.192   5.345
70493SOL    HW113376   6.786   4.245   5.414
70493SOL    HW213377   6.681   4.250   5.305
70494SOL     OW13378  11.760   2.012   6.609
70494SOL    HW113379  11.761   1.933   6.663
70494SOL    HW213380  11.842   2.009   6.561
70495SOL     OW13381  14.038  13.640   2.414
70495SOL    HW113382  13.966  13.597   2.369
70495SOL    HW213383  14.111  13.635   2.352
70496SOL     OW13384   7.728  11.860  12.434
70496SOL    HW113385   7.696  11.830  12.519
70496SOL    HW213386   7.653  11.850  12.375
70497SOL     OW13387   4.705  12.607   1.650
70497SOL    HW113388   4.616  12.575   1.665
70497SOL    HW213389   4.735  12.561   1.571
70498SOL     OW13390   5.063  11.928  10.428
70498SOL    HW113391   5.134  11.976  10.385
70498SOL    HW213392   5.035  11.985  10.500
70499SOL     OW13393  10.582  13.305  11.004
70499SOL    HW113394  10.664  13.344  10.972
70499SOL    HW213395  10.581  13.218  10.966
70500SOL     OW13396  10.681   8.121   0.759
70500SOL    HW113397  10.655   8.208   0.791
70500SOL    HW213398  10.777   8.125   0.756
70501SOL     OW13399   2.547   9.617  11.360
70501SOL    HW113400   2.579   9.567  11.285
70501SOL    HW213401   2.608   9.690  11.369
70502SOL     OW13402   1.950   3.224  13.332
70502SOL    HW113403   2.015   3.156  13.313
70502SOL    HW213404   1.935   3.217  13.426
70503SOL     OW13405   1.159  11.604  13.855
70503SOL    HW113406   1.188  11.569  13.939
70503SOL    HW213407   1.234  11.593  13.797
70504SOL     OW13408   9.338  14.543  13.697
70504SOL    HW113409   9.311  14.482  13.628
70504SOL    HW213410   9.256  14.583  13.726
70505SOL     OW13411   0.468  14.825   3.287
70505SOL    HW113412   0.521  14.753   3.252
70505SOL    HW213413   0.502   0.033   3.243
70506SOL     OW13414  12.306  11.138   2.537
70506SOL    HW113415  12.302  11.044   2.556
70506SOL    HW213416  12.215  11.167   2.541
70507SOL     OW13417   0.185   9.776  11.016
70507SOL    HW113418   0.258   9.835  11.032
70507SOL    HW213419   0.207   9.732  10.934
70508SOL     OW13420   0.584  10.683   6.539
70508SOL    HW113421   0.595  10.770   6.577
70508SOL    HW213422   0.540  10.699   6.455
70509SOL     OW13423   9.250   6.512   0.644
70509SOL    HW113424   9.269   6.516   0.551
70509SOL    HW213425   9.173   6.569   0.656
70510SOL     OW13426  12.637   1.318   1.598
70510SOL    HW113427  12.612   1.227   1.584
70510SOL    HW213428  12.719   1.328   1.550
70511SOL     OW13429   1.485  11.406   2.125
70511SOL    HW113430   1.473  11.349   2.049
70511SOL    HW213431   1.396  11.431   2.150
70512SOL     OW13432  12.271   7.913  12.489
70512SOL    HW113433  12.334   7.886  12.556
70512SOL    HW213434  12.300   8.001  12.463
70513SOL     OW13435   9.506   4.032   5.260
70513SOL    HW113436   9.544   3.949   5.232
70513SOL    HW213437   9.484   4.078   5.179
70514SOL     OW13438  13.842   8.047   2.519
70514SOL    HW113439  13.819   7.990   2.592
70514SOL    HW213440  13.773   8.112   2.515
70515SOL     OW13441  13.973   6.724   3.303
70515SOL    HW113442  14.014   6.743   3.388
70515SOL    HW213443  14.015   6.786   3.243
70516SOL     OW13444   3.826   5.238  14.167
70516SOL    HW113445   3.847   5.327  14.197
70516SOL    HW213446   3.746   5.216  14.215
70517SOL     OW13447   7.789   0.403  10.596
70517SOL    HW113448   7.722   0.450  10.547
70517SOL    HW213449   7.750   0.318  10.617
70518SOL     OW13450   2.181   9.117   3.708
70518SOL    HW113451   2.108   9.118   3.646
70518SOL    HW213452   2.159   9.183   3.773
70519SOL     OW13453  12.619   4.100   4.189
70519SOL    HW113454  12.627   4.004   4.193
70519SOL    HW213455  12.536   4.115   4.145
70520SOL     OW13456   1.866   3.097   0.368
70520SOL    HW113457   1.782   3.077   0.327
70520SOL    HW213458   1.892   3.180   0.330
70521SOL     OW13459  13.458   3.293   0.407
70521SOL    HW113460  13.437   3.381   0.377
70521SOL    HW213461  13.431   3.236   0.335
70522SOL     OW13462   9.925   0.881   1.565
70522SOL    HW113463   9.850   0.872   1.508
70522SOL    HW213464   9.966   0.795   1.566
70523SOL     OW13465   8.272  13.594   4.252
70523SOL    HW113466   8.365  13.611   4.237
70523SOL    HW213467   8.252  13.519   4.196
70524SOL     OW13468   8.474  12.430  13.501
70524SOL    HW113469   8.483  12.461  13.411
70524SOL    HW213470   8.534  12.357  13.508
70525SOL     OW13471   0.248  11.955  10.055
70525SOL    HW113472   0.236  12.041  10.016
70525SOL    HW213473   0.177  11.949  10.120
70526SOL     OW13474   3.888   6.104  10.628
70526SOL    HW113475   3.818   6.042  10.647
70526SOL    HW213476   3.967   6.050  10.624
70527SOL     OW13477   9.108   0.463  12.854
70527SOL    HW113478   9.038   0.516  12.816
70527SOL    HW213479   9.179   0.524  12.871
70528SOL     OW13480   7.653   7.961   2.746
70528SOL    HW113481   7.693   8.043   2.717
70528SOL    HW213482   7.605   7.930   2.670
70529SOL     OW13483   9.300   1.156   2.197
70529SOL    HW113484   9.315   1.062   2.190
70529SOL    HW213485   9.230   1.175   2.135
70530SOL     OW13486   2.660  12.249   2.610
70530SOL    HW113487   2.751  12.226   2.589
70530SOL    HW213488   2.618  12.260   2.525
70531SOL     OW13489  14.541   7.538   7.717
70531SOL    HW113490  14.451   7.514   7.695
70531SOL    HW213491  14.580   7.457   7.749
70532SOL     OW13492   6.443   2.277   3.770
70532SOL    HW113493   6.519   2.225   3.742
70532SOL    HW213494   6.418   2.326   3.691
70533SOL     OW13495   3.199  14.397  10.488
70533SOL    HW113496   3.163  14.479  10.524
70533SOL    HW213497   3.291  14.416  10.474
70534SOL     OW13498  10.814   3.560   0.144
70534SOL    HW113499  10.786   3.483   0.095
70534SOL    HW213500  10.812   3.532   0.235
70535SOL     OW13501  11.586   1.024   6.598
70535SOL    HW113502  11.619   1.113   6.614
70535SOL    HW213503  11.505   1.037   6.549
70536SOL     OW13504   3.623   2.174  13.292
70536SOL    HW113505   3.595   2.086  13.267
70536SOL    HW213506   3.601   2.181  13.385
70537SOL     OW13507  10.139  12.546   1.124
70537SOL    HW113508  10.234  12.552   1.107
70537SOL    HW213509  10.120  12.453   1.125
70538SOL     OW13510   5.329  10.678   6.066
70538SOL    HW113511   5.242  10.649   6.095
70538SOL    HW213512   5.343  10.760   6.113
70539SOL     OW13513  10.272   5.626  13.983
70539SOL    HW113514  10.208   5.615  14.054
70539SOL    HW213515  10.255   5.552  13.924
70540SOL     OW13516   9.206   7.024   1.985
70540SOL    HW113517   9.115   7.021   2.015
70540SOL    HW213518   9.241   6.937   2.008
70541SOL     OW13519   9.807  13.372   2.940
70541SOL    HW113520   9.892  13.344   2.974
70541SOL    HW213521   9.747  13.302   2.965
70542SOL     OW13522  10.418  11.302  13.249
70542SOL    HW113523  10.490  11.339  13.300
70542SOL    HW213524  10.345  11.297  13.311
70543SOL     OW13525  11.891  12.682   1.284
70543SOL    HW113526  11.831  12.624   1.237
70543SOL    HW213527  11.842  12.764   1.293
70544SOL     OW13528   2.136   8.672  13.794
70544SOL    HW113529   2.224   8.711  13.796
70544SOL    HW213530   2.151   8.578  13.804
70545SOL     OW13531   4.950   6.809  13.812
70545SOL    HW113532   4.960   6.722  13.852
70545SOL    HW213533   4.855   6.818  13.798
70546SOL     OW13534   8.273   2.539   0.864
70546SOL    HW113535   8.226   2.456   0.876
70546SOL    HW213536   8.365   2.517   0.877
70547SOL     OW13537   6.773   7.383  14.117
70547SOL    HW113538   6.864   7.391  14.146
70547SOL    HW213539   6.724   7.364  14.197
70548SOL     OW13540  12.998  12.013   6.088
70548SOL    HW113541  13.016  12.020   5.994
70548SOL    HW213542  12.992  12.104   6.118
70549SOL     OW13543   3.650  12.442  12.900
70549SOL    HW113544   3.593  12.379  12.854
70549SOL    HW213545   3.696  12.389  12.965
70550SOL     OW13546   8.851  10.494  14.542
70550SOL    HW113547   8.833  10.458  14.629
70550SOL    HW213548   8.944  10.517  14.544
70551SOL     OW13549  14.723   9.794  13.123
70551SOL    HW113550  14.632   9.822  13.126
70551SOL    HW213551  14.772   9.873  13.099
70552SOL     OW13552   0.092  12.400  10.613
70552SOL    HW113553   0.035  12.474  10.593
70552SOL    HW213554   0.180  12.432  10.594
70553SOL     OW13555  14.832   9.717   1.611
70553SOL    HW113556  14.751   9.697   1.657
70553SOL    HW213557   0.027   9.657   1.648
70554SOL     OW13558   9.551   9.897   6.308
70554SOL    HW113559   9.513   9.861   6.228
70554SOL    HW213560   9.620   9.956   6.277
70555SOL     OW13561  13.173   0.503  10.037
70555SOL    HW113562  13.241   0.440  10.062
70555SOL    HW213563  13.221   0.578  10.003
70556SOL     OW13564  13.985   8.343  12.066
70556SOL    HW113565  13.914   8.377  12.119
70556SOL    HW213566  13.948   8.265  12.024
70557SOL     OW13567   6.801   0.200   2.115
70557SOL    HW113568   6.872   0.201   2.051
70557SOL    HW213569   6.842   0.219   2.199
70558SOL     OW13570  11.420   0.436  11.583
70558SOL    HW113571  11.436   0.388  11.664
70558SOL    HW213572  11.336   0.480  11.597
70559SOL     OW13573   0.875   8.259   8.993
70559SOL    HW113574   0.900   8.188   8.933
70559SOL    HW213575   0.955   8.311   9.002
70560SOL     OW13576   0.477  14.535   8.217
70560SOL    HW113577   0.386  14.504   8.227
70560SOL    HW213578   0.507  14.494   8.136
70561SOL     OW13579   5.783   9.729   5.705
70561SOL    HW113580   5.747   9.771   5.627
70561SOL    HW213581   5.857   9.678   5.672
70562SOL     OW13582   2.716   0.164  12.028
70562SOL    HW113583   2.729   0.259  12.023
70562SOL    HW213584   2.781   0.129  11.967
70563SOL     OW13585  12.897  12.014  12.549
70563SOL    HW113586  12.905  12.070  12.626
70563SOL    HW213587  12.977  11.961  12.549
70564SOL     OW13588   1.568   5.619  13.072
70564SOL    HW113589   1.510   5.632  13.147
70564SOL    HW213590   1.597   5.528  13.079
70565SOL     OW13591   8.207   9.456   4.096
70565SOL    HW113592   8.199   9.515   4.021
70565SOL    HW213593   8.301   9.452   4.113
70566SOL     OW13594  10.780   0.831  14.631
70566SOL    HW113595  10.850   0.865  14.575
70566SOL    HW213596  10.753   0.906  14.684
70567SOL     OW13597  13.720  14.003   2.962
70567SOL    HW113598  13.792  14.042   3.012
70567SOL    HW213599  13.677  13.944   3.024
70568SOL     OW13600   1.024   5.113  14.179
70568SOL    HW113601   1.032   5.116  14.084
70568SOL    HW213602   0.963   5.041  14.196
70569SOL     OW13603   2.057  10.202   8.997
70569SOL    HW113604   2.055  10.153   8.914
70569SOL    HW213605   2.073  10.135   9.063
70570SOL     OW13606   1.944   9.228   7.495
70570SOL    HW113607   1.860   9.247   7.538
70570SOL    HW213608   1.932   9.141   7.458
70571SOL     OW13609   4.131   5.322   7.494
70571SOL    HW113610   4.165   5.397   7.543
70571SOL    HW213611   4.036   5.324   7.509
70572SOL     OW13612   2.632  14.094   1.823
70572SOL    HW113613   2.629  14.179   1.780
70572SOL    HW213614   2.618  14.114   1.916
70573SOL     OW13615   1.744  13.616  13.646
70573SOL    HW113616   1.790  13.687  13.691
70573SOL    HW213617   1.807  13.582  13.583
70574SOL     OW13618  13.285   6.753   9.161
70574SOL    HW113619  13.380   6.751   9.156
70574SOL    HW213620  13.266   6.771   9.254
70575SOL     OW13621   9.324  10.824   6.036
70575SOL    HW113622   9.392  10.889   6.057
70575SOL    HW213623   9.242  10.871   6.053
70576SOL     OW13624   3.731   7.359   0.595
70576SOL    HW113625   3.785   7.436   0.611
70576SOL    HW213626   3.785   7.285   0.622
70577SOL     OW13627   5.013   6.900  14.630
70577SOL    HW113628   4.953   6.899  14.705
70577SOL    HW213629   4.955   6.906  14.554
70578SOL     OW13630  10.036  10.528  14.318
70578SOL    HW113631  10.069  10.451  14.366
70578SOL    HW213632   9.961  10.557  14.369
70579SOL     OW13633  12.127   1.934   6.841
70579SOL    HW113634  12.155   1.861   6.786
70579SOL    HW213635  12.098   1.893   6.922
70580SOL     OW13636   8.231   2.801   2.145
70580SOL    HW113637   8.271   2.715   2.138
70580SOL    HW213638   8.238   2.825   2.237
70581SOL     OW13639   9.276   3.491  13.186
70581SOL    HW113640   9.257   3.583  13.204
70581SOL    HW213641   9.332   3.463  13.258
70582SOL     OW13642   1.524   7.556   5.111
70582SOL    HW113643   1.605   7.534   5.157
70582SOL    HW213644   1.515   7.489   5.044
70583SOL     OW13645   2.128   4.714   0.436
70583SOL    HW113646   2.099   4.778   0.371
70583SOL    HW213647   2.127   4.761   0.519
70584SOL     OW13648   8.310   0.810   2.775
70584SOL    HW113649   8.217   0.786   2.778
70584SOL    HW213650   8.349   0.759   2.846
70585SOL     OW13651   6.437   8.281   9.311
70585SOL    HW113652   6.508   8.345   9.310
70585SOL    HW213653   6.367   8.322   9.260
70586SOL     OW13654   9.161   5.922  10.706
70586SOL    HW113655   9.096   5.922  10.777
70586SOL    HW213656   9.117   5.963  10.632
70587SOL     OW13657   6.386   1.691  13.552
70587SOL    HW113658   6.397   1.612  13.605
70587SOL    HW213659   6.293   1.694  13.532
70588SOL     OW13660  12.738  11.589   6.078
70588SOL    HW113661  12.747  11.684   6.081
70588SOL    HW213662  12.730  11.563   6.170
70589SOL     OW13663   1.242   4.189   8.414
70589SOL    HW113664   1.158   4.155   8.384
70589SOL    HW213665   1.283   4.226   8.335
70590SOL     OW13666   3.448   2.439   7.038
70590SOL    HW113667   3.525   2.496   7.043
70590SOL    HW213668   3.480   2.360   6.994
70591SOL     OW13669   7.176   3.047   4.184
70591SOL    HW113670   7.221   2.963   4.180
70591SOL    HW213671   7.229   3.106   4.130
70592SOL     OW13672  10.394  10.178  14.647
70592SOL    HW113673  10.456  10.213  14.584
70592SOL    HW213674  10.311  10.220  14.626
70593SOL     OW13675  10.542   1.480   5.387
70593SOL    HW113676  10.515   1.521   5.469
70593SOL    HW213677  10.600   1.544   5.346
70594SOL     OW13678  11.115   8.995   2.415
70594SOL    HW113679  11.100   9.043   2.497
70594SOL    HW213680  11.047   9.026   2.356
70595SOL     OW13681   1.647  14.065   4.415
70595SOL    HW113682   1.605  14.039   4.333
70595SOL    HW213683   1.610  14.150   4.435
70596SOL     OW13684   1.648  14.231  14.100
70596SOL    HW113685   1.709  14.233  14.026
70596SOL    HW213686   1.682  14.161  14.156
70597SOL     OW13687   9.577   3.799   0.884
70597SOL    HW113688   9.574   3.789   0.789
70597SOL    HW213689   9.487   3.783   0.913
70598SOL     OW13690   2.213   3.631   3.440
70598SOL    HW113691   2.275   3.676   3.383
70598SOL    HW213692   2.196   3.548   3.396
70599SOL     OW13693  11.080   0.222  11.498
70599SOL    HW113694  11.051   0.286  11.433
70599SOL    HW213695  11.000   0.175  11.521
70600SOL     OW13696   0.999   3.997  10.501
70600SOL    HW113697   0.999   4.083  10.460
70600SOL    HW213698   1.080   3.994  10.552
70601SOL     OW13699   3.993   8.751   6.414
70601SOL    HW113700   4.082   8.779   6.393
70601SOL    HW213701   4.004   8.675   6.471
70602SOL     OW13702   1.674   0.962   4.917
70602SOL    HW113703   1.705   1.017   4.845
70602SOL    HW213704   1.715   0.877   4.902
70603SOL     OW13705   4.314   1.357   6.213
70603SOL    HW113706   4.308   1.421   6.285
70603SOL    HW213707   4.254   1.391   6.147
70604SOL     OW13708  12.710   9.639  12.445
70604SOL    HW113709  12.750   9.725  12.454
70604SOL    HW213710  12.679   9.617  12.533
70605SOL     OW13711  14.644  10.422   2.617
70605SOL    HW113712  14.633  10.513   2.588
70605SOL    HW213713  14.615  10.369   2.542
70606SOL     OW13714   9.029   6.561  14.661
70606SOL    HW113715   9.001   6.579  14.751
70606SOL    HW213716   8.949   6.533  14.616
70607SOL     OW13717   3.280   9.288   3.964
70607SOL    HW113718   3.301   9.230   3.891
70607SOL    HW213719   3.196   9.328   3.940
70608SOL     OW13720   1.964  11.713   4.583
70608SOL    HW113721   1.915  11.795   4.571
70608SOL    HW213722   2.000  11.694   4.496
70609SOL     OW13723   1.287   7.537   5.283
70609SOL    HW113724   1.364   7.558   5.228
70609SOL    HW213725   1.270   7.444   5.265
70610SOL     OW13726   3.467   9.844  10.277
70610SOL    HW113727   3.379   9.828  10.244
70610SOL    HW213728   3.517   9.766  10.252
70611SOL     OW13729   5.175   4.577  11.589
70611SOL    HW113730   5.147   4.627  11.666
70611SOL    HW213731   5.195   4.490  11.624
70612SOL     OW13732   3.704   7.376  13.560
70612SOL    HW113733   3.661   7.461  13.549
70612SOL    HW213734   3.697   7.335  13.474
70613SOL     OW13735   7.249   6.054  13.421
70613SOL    HW113736   7.344   6.063  13.412
70613SOL    HW213737   7.237   6.003  13.501
70614SOL     OW13738  10.340  10.615   3.226
70614SOL    HW113739  10.400  10.615   3.301
70614SOL    HW213740  10.269  10.556   3.252
70615SOL     OW13741   8.756   9.601  12.076
70615SOL    HW113742   8.688   9.645  12.025
70615SOL    HW213743   8.794   9.669  12.130
70616SOL     OW13744  11.406   4.987   8.756
70616SOL    HW113745  11.492   5.008   8.722
70616SOL    HW213746  11.372   4.920   8.697
70617SOL     OW13747   9.835  13.408   6.494
70617SOL    HW113748   9.801  13.319   6.494
70617SOL    HW213749   9.882  13.416   6.576
70618SOL     OW13750   1.605   4.360   3.835
70618SOL    HW113751   1.543   4.367   3.908
70618SOL    HW213752   1.550   4.365   3.757
70619SOL     OW13753   7.146   4.436   8.233
70619SOL    HW113754   7.165   4.524   8.201
70619SOL    HW213755   7.051   4.429   8.227
70620SOL     OW13756   9.052   0.067   7.987
70620SOL    HW113757   9.138   0.074   7.945
70620SOL    HW213758   8.996   0.124   7.935
70621SOL     OW13759  10.504   7.564  13.885
70621SOL    HW113760  10.575   7.622  13.858
70621SOL    HW213761  10.542   7.511  13.956
70622SOL     OW13762  10.049  12.356   5.789
70622SOL    HW113763  10.069  12.448   5.769
70622SOL    HW213764  10.033  12.355   5.883
70623SOL     OW13765   2.730   2.014   0.254
70623SOL    HW113766   2.711   1.939   0.197
70623SOL    HW213767   2.739   2.087   0.193
70624SOL     OW13768  10.690  11.812  12.954
70624SOL    HW113769  10.723  11.819  12.865
70624SOL    HW213770  10.675  11.902  12.982
70625SOL     OW13771   4.851   1.674  14.230
70625SOL    HW113772   4.877   1.645  14.143
70625SOL    HW213773   4.885   1.763  14.237
70626SOL     OW13774   6.789  13.792   8.363
70626SOL    HW113775   6.741  13.875   8.364
70626SOL    HW213776   6.776  13.757   8.275
70627SOL     OW13777   9.086   1.762   9.849
70627SOL    HW113778   9.013   1.768   9.787
70627SOL    HW213779   9.067   1.829   9.915
70628SOL     OW13780   7.210   8.551   1.793
70628SOL    HW113781   7.218   8.526   1.701
70628SOL    HW213782   7.125   8.519   1.820
70629SOL     OW13783  14.599   8.051   2.517
70629SOL    HW113784  14.525   7.990   2.521
70629SOL    HW213785  14.663   8.007   2.460
70630SOL     OW13786   8.977  13.948  11.688
70630SOL    HW113787   9.046  13.990  11.636
70630SOL    HW213788   9.022  13.907  11.761
70631SOL     OW13789   0.746  12.949   2.742
70631SOL    HW113790   0.709  12.866   2.772
70631SOL    HW213791   0.694  13.017   2.785
70632SOL     OW13792  13.944   8.027  11.534
70632SOL    HW113793  13.988   8.018  11.450
70632SOL    HW213794  13.932   7.936  11.564
70633SOL     OW13795   3.624   2.701  14.624
70633SOL    HW113796   3.627   2.741  14.537
70633SOL    HW213797   3.544   2.648  14.623
70634SOL     OW13798  11.605   8.338   9.632
70634SOL    HW113799  11.590   8.254   9.674
70634SOL    HW213800  11.589   8.322   9.539
70635SOL     OW13801   6.929   8.699   5.035
70635SOL    HW113802   6.869   8.750   5.090
70635SOL    HW213803   6.872   8.658   4.970
70636SOL     OW13804  13.109   8.908   5.357
70636SOL    HW113805  13.143   8.841   5.298
70636SOL    HW213806  13.059   8.966   5.299
70637SOL     OW13807  11.685   6.780   3.941
70637SOL    HW113808  11.625   6.769   4.015
70637SOL    HW213809  11.772   6.788   3.983
70638SOL     OW13810  14.623   1.645   2.159
70638SOL    HW113811  14.589   1.694   2.085
70638SOL    HW213812  14.675   1.575   2.120
70639SOL     OW13813  14.139  11.051   1.767
70639SOL    HW113814  14.159  10.963   1.799
70639SOL    HW213815  14.148  11.107   1.844
70640SOL     OW13816   8.494  12.260   0.323
70640SOL    HW113817   8.539  12.310   0.255
70640SOL    HW213818   8.536  12.174   0.322
70641SOL     OW13819   9.740  14.786   6.549
70641SOL    HW113820   9.686  14.709   6.532
70641SOL    HW213821   9.705  14.853   6.491
70642SOL     OW13822   8.852  14.298   1.671
70642SOL    HW113823   8.920  14.233   1.690
70642SOL    HW213824   8.804  14.307   1.753
70643SOL     OW13825  12.617  10.570   4.076
70643SOL    HW113826  12.604  10.601   4.165
70643SOL    HW213827  12.549  10.504   4.063
70644SOL     OW13828  11.914   8.765  14.501
70644SOL    HW113829  11.888   8.729  14.416
70644SOL    HW213830  11.838   8.749  14.558
70645SOL     OW13831   5.949   8.220   1.421
70645SOL    HW113832   5.946   8.273   1.341
70645SOL    HW213833   5.939   8.284   1.492
70646SOL     OW13834  14.015   5.264  13.738
70646SOL    HW113835  14.034   5.345  13.691
70646SOL    HW213836  14.033   5.284  13.830
70647SOL     OW13837  10.738   3.118  14.073
70647SOL    HW113838  10.697   3.137  14.158
70647SOL    HW213839  10.742   3.203  14.029
70648SOL     OW13840  11.561   4.884   8.223
70648SOL    HW113841  11.618   4.807   8.229
70648SOL    HW213842  11.491   4.857   8.162
70649SOL     OW13843  13.933   8.143   6.667
70649SOL    HW113844  13.941   8.189   6.751
70649SOL    HW213845  13.851   8.176   6.630
70650SOL     OW13846   1.351   8.381   8.721
70650SOL    HW113847   1.328   8.303   8.772
70650SOL    HW213848   1.394   8.439   8.783
70651SOL     OW13849  12.570   2.874  10.460
70651SOL    HW113850  12.482   2.851  10.490
70651SOL    HW213851  12.612   2.790  10.444
70652SOL     OW13852  12.344   9.796   7.931
70652SOL    HW113853  12.406   9.730   7.900
70652SOL    HW213854  12.261   9.748   7.937
70653SOL     OW13855   5.736   5.912   2.970
70653SOL    HW113856   5.690   5.923   3.054
70653SOL    HW213857   5.815   5.862   2.993
70654SOL     OW13858   9.225   0.686   8.328
70654SOL    HW113859   9.189   0.602   8.354
70654SOL    HW213860   9.292   0.706   8.394
70655SOL     OW13861   0.178   5.413   6.421
70655SOL    HW113862   0.182   5.329   6.373
70655SOL    HW213863   0.267   5.427   6.452
70656SOL     OW13864   4.266   2.284  13.071
70656SOL    HW113865   4.313   2.360  13.035
70656SOL    HW213866   4.182   2.320  13.099
70657SOL     OW13867   5.774   4.707  12.517
70657SOL    HW113868   5.768   4.802  12.525
70657SOL    HW213869   5.688   4.676  12.544
70658SOL     OW13870   1.991   3.784   6.359
70658SOL    HW113871   2.071   3.833   6.377
70658SOL    HW213872   1.993   3.712   6.423
70659SOL     OW13873   5.530  10.453   3.615
70659SOL    HW113874   5.537  10.496   3.700
70659SOL    HW213875   5.617  10.464   3.576
70660SOL     OW13876   4.736  10.597   3.977
70660SOL    HW113877   4.739  10.566   4.068
70660SOL    HW213878   4.645  10.582   3.950
70661SOL     OW13879   3.691   6.914   1.452
70661SOL    HW113880   3.679   6.846   1.518
70661SOL    HW213881   3.636   6.887   1.379
70662SOL     OW13882   1.629   2.911   0.241
70662SOL    HW113883   1.593   2.889   0.327
70662SOL    HW213884   1.583   2.991   0.215
70663SOL     OW13885   4.627   1.521   5.547
70663SOL    HW113886   4.623   1.433   5.584
70663SOL    HW213887   4.598   1.510   5.457
70664SOL     OW13888   2.738  10.351   5.871
70664SOL    HW113889   2.820  10.325   5.913
70664SOL    HW213890   2.682  10.379   5.943
70665SOL     OW13891   7.136   0.797  14.397
70665SOL    HW113892   7.168   0.862  14.335
70665SOL    HW213893   7.215   0.761  14.437
70666SOL     OW13894   2.440   2.985   2.904
70666SOL    HW113895   2.460   2.953   2.991
70666SOL    HW213896   2.502   2.941   2.846
70667SOL     OW13897   1.647   6.392   8.984
70667SOL    HW113898   1.578   6.372   9.048
70667SOL    HW213899   1.634   6.485   8.964
70668SOL     OW13900   0.814   2.981   0.648
70668SOL    HW113901   0.796   3.070   0.620
70668SOL    HW213902   0.727   2.943   0.663
70669SOL     OW13903  11.247   3.781   5.403
70669SOL    HW113904  11.342   3.785   5.420
70669SOL    HW213905  11.219   3.703   5.451
70670SOL     OW13906  14.783   2.636  12.639
70670SOL    HW113907  14.762   2.683  12.558
70670SOL    HW213908  14.775   2.703  12.707
70671SOL     OW13909   1.825   5.088  13.344
70671SOL    HW113910   1.809   5.001  13.379
70671SOL    HW213911   1.746   5.108  13.293
70672SOL     OW13912  13.574   9.492   4.957
70672SOL    HW113913  13.601   9.584   4.963
70672SOL    HW213914  13.582   9.470   4.864
70673SOL     OW13915  13.003   0.676  10.510
70673SOL    HW113916  12.942   0.749  10.519
70673SOL    HW213917  13.073   0.710  10.454
70674SOL     OW13918  10.456   4.318   4.898
70674SOL    HW113919  10.393   4.293   4.830
70674SOL    HW213920  10.474   4.237   4.945
70675SOL     OW13921   4.622  10.674  12.929
70675SOL    HW113922   4.708  10.697  12.965
70675SOL    HW213923   4.600  10.747  12.871
70676SOL     OW13924   0.536  11.289   4.628
70676SOL    HW113925   0.493  11.312   4.711
70676SOL    HW213926   0.551  11.195   4.635
70677SOL     OW13927   9.859   5.453   7.644
70677SOL    HW113928   9.777   5.448   7.693
70677SOL    HW213929   9.856   5.538   7.601
70678SOL     OW13930   7.259  12.835   9.091
70678SOL    HW113931   7.170  12.872   9.090
70678SOL    HW213932   7.247  12.743   9.068
70679SOL     OW13933  14.333  14.385  14.501
70679SOL    HW113934  14.406  14.378  14.439
70679SOL    HW213935  14.266  14.326  14.466
70680SOL     OW13936   4.062   8.131   7.619
70680SOL    HW113937   4.102   8.047   7.641
70680SOL    HW213938   4.105   8.194   7.676
70681SOL     OW13939  10.295   5.573   4.482
70681SOL    HW113940  10.335   5.628   4.415
70681SOL    HW213941  10.277   5.490   4.438
70682SOL     OW13942  13.401  11.267   4.485
70682SOL    HW113943  13.398  11.348   4.434
70682SOL    HW213944  13.311  11.254   4.515
70683SOL     OW13945  10.093   2.892  13.637
70683SOL    HW113946  10.087   2.967  13.696
70683SOL    HW213947  10.185   2.866  13.639
70684SOL     OW13948  10.977   5.929   9.489
70684SOL    HW113949  11.020   5.917   9.573
70684SOL    HW213950  11.038   5.892   9.425
70685SOL     OW13951   6.358   5.591  11.132
70685SOL    HW113952   6.445   5.581  11.094
70685SOL    HW213953   6.298   5.577  11.058
70686SOL     OW13954   4.470   3.965   1.835
70686SOL    HW113955   4.374   3.957   1.839
70686SOL    HW213956   4.502   3.895   1.891
70687SOL     OW13957  14.153  11.494   8.399
70687SOL    HW113958  14.223  11.535   8.450
70687SOL    HW213959  14.135  11.412   8.444
70688SOL     OW13960  11.768   8.804   6.458
70688SOL    HW113961  11.717   8.801   6.539
70688SOL    HW213962  11.849   8.849   6.483
70689SOL     OW13963   0.821  11.330   9.602
70689SOL    HW113964   0.727  11.340   9.615
70689SOL    HW213965   0.857  11.322   9.690
70690SOL     OW13966  12.862   4.579   5.668
70690SOL    HW113967  12.821   4.494   5.685
70690SOL    HW213968  12.949   4.571   5.707
70691SOL     OW13969   6.823  11.604   8.430
70691SOL    HW113970   6.780  11.600   8.345
70691SOL    HW213971   6.882  11.529   8.431
70692SOL     OW13972  12.598  12.370   7.953
70692SOL    HW113973  12.527  12.334   8.006
70692SOL    HW213974  12.611  12.459   7.986
70693SOL     OW13975   2.532  10.180   7.137
70693SOL    HW113976   2.592  10.108   7.116
70693SOL    HW213977   2.528  10.180   7.232
70694SOL     OW13978  10.103   6.908   5.110
70694SOL    HW113979  10.181   6.955   5.139
70694SOL    HW213980  10.110   6.822   5.152
70695SOL     OW13981  13.783   1.304  13.767
70695SOL    HW113982  13.790   1.279  13.675
70695SOL    HW213983  13.729   1.235  13.806
70696SOL     OW13984  11.111  13.086   8.829
70696SOL    HW113985  11.165  13.092   8.907
70696SOL    HW213986  11.022  13.072   8.863
70697SOL     OW13987   0.666   2.929   7.783
70697SOL    HW113988   0.634   2.903   7.870
70697SOL    HW213989   0.739   2.988   7.801
70698SOL     OW13990  10.691   9.495   3.392
70698SOL    HW113991  10.656   9.555   3.458
70698SOL    HW213992  10.617   9.479   3.333
70699SOL     OW13993  13.815   4.840   8.042
70699SOL    HW113994  13.780   4.887   8.118
70699SOL    HW213995  13.744   4.839   7.978
70700SOL     OW13996   6.370  10.329   2.863
70700SOL    HW113997   6.297  10.380   2.828
70700SOL    HW213998   6.433  10.394   2.894
70701SOL     OW13999   7.752  12.927  11.161
70701SOL    HW114000   7.699  12.922  11.240
70701SOL    HW214001   7.698  12.887  11.093
70702SOL     OW14002  11.180  11.456  13.090
70702SOL    HW114003  11.269  11.456  13.055
70702SOL    HW214004  11.188  11.502  13.174
70703SOL     OW14005   8.318   6.221   4.744
70703SOL    HW114006   8.400   6.241   4.788
70703SOL    HW214007   8.251   6.264   4.797
70704SOL     OW14008   7.784   8.335   7.672
70704SOL    HW114009   7.692   8.353   7.652
70704SOL    HW214010   7.784   8.245   7.705
70705SOL     OW14011  11.280   4.998  14.107
70705SOL    HW114012  11.244   4.963  14.188
70705SOL    HW214013  11.209   4.991  14.043
70706SOL     OW14014  10.666  12.046  12.348
70706SOL    HW114015  10.626  11.979  12.404
70706SOL    HW214016  10.726  12.093  12.406
70707SOL     OW14017   4.073   2.170   1.734
70707SOL    HW114018   4.124   2.141   1.809
70707SOL    HW214019   4.130   2.232   1.689
70708SOL     OW14020   6.243   2.183   6.046
70708SOL    HW114021   6.262   2.135   6.126
70708SOL    HW214022   6.166   2.236   6.067
70709SOL     OW14023   7.353   6.720   2.144
70709SOL    HW114024   7.310   6.805   2.157
70709SOL    HW214025   7.360   6.683   2.232
70710SOL     OW14026   1.617   0.489   3.087
70710SOL    HW114027   1.541   0.545   3.069
70710SOL    HW214028   1.665   0.534   3.157
70711SOL     OW14029  10.521   7.278  14.558
70711SOL    HW114030  10.593   7.216  14.542
70711SOL    HW214031  10.492   7.258  14.647
70712SOL     OW14032   9.335  12.189   6.934
70712SOL    HW114033   9.254  12.216   6.891
70712SOL    HW214034   9.332  12.233   7.020
70713SOL     OW14035   1.907   4.200  11.893
70713SOL    HW114036   1.990   4.233  11.927
70713SOL    HW214037   1.841   4.242  11.947
70714SOL     OW14038   3.454   4.770  13.876
70714SOL    HW114039   3.525   4.829  13.904
70714SOL    HW214040   3.411   4.816  13.804
70715SOL     OW14041  12.595   2.368   1.745
70715SOL    HW114042  12.662   2.422   1.702
70715SOL    HW214043  12.515   2.421   1.741
70716SOL     OW14044  13.338  11.669  10.736
70716SOL    HW114045  13.371  11.713  10.814
70716SOL    HW214046  13.416  11.632  10.694
70717SOL     OW14047  13.106  13.394  10.455
70717SOL    HW114048  13.090  13.426  10.543
70717SOL    HW214049  13.174  13.327  10.466
70718SOL     OW14050   8.923   0.970   1.963
70718SOL    HW114051   8.942   1.040   2.026
70718SOL    HW214052   8.957   1.004   1.880
70719SOL     OW14053   3.186   1.066   6.853
70719SOL    HW114054   3.141   1.034   6.775
70719SOL    HW214055   3.116   1.081   6.917
70720SOL     OW14056  10.442  12.181  11.386
70720SOL    HW114057  10.446  12.187  11.482
70720SOL    HW214058  10.393  12.100  11.370
70721SOL     OW14059   9.517   0.558  13.180
70721SOL    HW114060   9.482   0.639  13.144
70721SOL    HW214061   9.445   0.495  13.172
70722SOL     OW14062  14.596  10.288  10.178
70722SOL    HW114063  14.599  10.324  10.266
70722SOL    HW214064  14.502  10.273  10.162
70723SOL     OW14065  12.209  10.131   0.772
70723SOL    HW114066  12.245  10.203   0.823
70723SOL    HW214067  12.242  10.052   0.816
70724SOL     OW14068   1.416   2.680   2.129
70724SOL    HW114069   1.446   2.592   2.106
70724SOL    HW214070   1.355   2.703   2.059
70725SOL     OW14071  14.264   5.215   7.105
70725SOL    HW114072  14.310   5.157   7.046
70725SOL    HW214073  14.326   5.285   7.125
70726SOL     OW14074   3.879   1.130  11.492
70726SOL    HW114075   3.861   1.095  11.405
70726SOL    HW214076   3.855   1.223  11.486
70727SOL     OW14077  14.292   6.247   4.893
70727SOL    HW114078  14.376   6.211   4.863
70727SOL    HW214079  14.226   6.189   4.854
70728SOL     OW14080  12.358   2.803   2.634
70728SOL    HW114081  12.272   2.847   2.633
70728SOL    HW214082  12.339   2.713   2.607
70729SOL     OW14083   8.568   0.158   2.258
70729SOL    HW114084   8.563   0.182   2.351
70729SOL    HW214085   8.566   0.063   2.258
70730SOL     OW14086   1.287  12.879  13.633
70730SOL    HW114087   1.192  12.871  13.641
70730SOL    HW214088   1.309  12.960  13.680
70731SOL     OW14089   5.794  12.901   8.852
70731SOL    HW114090   5.701  12.909   8.870
70731SOL    HW214091   5.807  12.807   8.837
70732SOL     OW14092   3.342  14.828   8.159
70732SOL    HW114093   3.264  14.836   8.213
70732SOL    HW214094   3.330   0.020   8.088
70733SOL     OW14095   7.355   8.567  10.162
70733SOL    HW114096   7.396   8.652  10.144
70733SOL    HW214097   7.376   8.514  10.085
70734SOL     OW14098   1.293   0.555  11.748
70734SOL    HW114099   1.358   0.487  11.738
70734SOL    HW214100   1.213   0.519  11.709
70735SOL     OW14101   8.997  11.538   3.295
70735SOL    HW114102   8.927  11.477   3.272
70735SOL    HW214103   9.029  11.507   3.380
70736SOL     OW14104  12.020   0.804  12.882
70736SOL    HW114105  12.105   0.841  12.860
70736SOL    HW214106  12.021   0.717  12.843
70737SOL     OW14107   9.412  12.811  14.428
70737SOL    HW114108   9.425  12.906  14.429
70737SOL    HW214109   9.393  12.791  14.336
70738SOL     OW14110   1.868   3.923   7.781
70738SOL    HW114111   1.929   3.994   7.801
70738SOL    HW214112   1.906   3.880   7.704
70739SOL     OW14113  13.570   7.360   5.641
70739SOL    HW114114  13.632   7.383   5.572
70739SOL    HW214115  13.511   7.435   5.646
70740SOL     OW14116   2.324  11.519   8.880
70740SOL    HW114117   2.388  11.582   8.846
70740SOL    HW214118   2.364  11.434   8.865
70741SOL     OW14119  12.511  13.078   0.690
70741SOL    HW114120  12.525  13.124   0.773
70741SOL    HW214121  12.522  12.986   0.711
70742SOL     OW14122   0.484   9.758   3.574
70742SOL    HW114123   0.428   9.686   3.543
70742SOL    HW214124   0.486   9.820   3.500
70743SOL     OW14125   0.721   3.340  11.837
70743SOL    HW114126   0.665   3.370  11.908
70743SOL    HW214127   0.663   3.334  11.761
70744SOL     OW14128   7.211   7.003   5.676
70744SOL    HW114129   7.128   6.958   5.662
70744SOL    HW214130   7.187   7.092   5.701
70745SOL     OW14131  13.799   8.966  14.702
70745SOL    HW114132  13.847   8.911  14.764
70745SOL    HW214133  13.811   9.055  14.733
70746SOL     OW14134   1.205  11.454   9.875
70746SOL    HW114135   1.296  11.466   9.904
70746SOL    HW214136   1.203  11.366   9.840
70747SOL     OW14137  13.872  11.652  12.334
70747SOL    HW114138  13.841  11.576  12.384
70747SOL    HW214139  13.932  11.616  12.269
70748SOL     OW14140   7.764   1.318   7.524
70748SOL    HW114141   7.739   1.410   7.525
70748SOL    HW214142   7.859   1.319   7.537
70749SOL     OW14143  10.463  11.443  11.323
70749SOL    HW114144  10.435  11.369  11.376
70749SOL    HW214145  10.556  11.430  11.310
70750SOL     OW14146   7.628  10.476   1.760
70750SOL    HW114147   7.588  10.454   1.676
70750SOL    HW214148   7.569  10.542   1.798
70751SOL     OW14149   4.433   9.192  12.054
70751SOL    HW114150   4.500   9.136  12.014
70751SOL    HW214151   4.419   9.155  12.141
70752SOL     OW14152   6.528   4.236   7.156
70752SOL    HW114153   6.616   4.267   7.136
70752SOL    HW214154   6.474   4.266   7.083
70753SOL     OW14155   4.318   1.462   2.358
70753SOL    HW114156   4.258   1.531   2.386
70753SOL    HW214157   4.265   1.404   2.304
70754SOL     OW14158   3.217   4.078   3.645
70754SOL    HW114159   3.143   4.057   3.702
70754SOL    HW214160   3.246   4.164   3.675
70755SOL     OW14161   2.861   9.122   2.821
70755SOL    HW114162   2.829   9.058   2.884
70755SOL    HW214163   2.864   9.075   2.738
70756SOL     OW14164   2.800   5.177   7.904
70756SOL    HW114165   2.721   5.226   7.928
70756SOL    HW214166   2.871   5.240   7.912
70757SOL     OW14167  14.342   7.118   4.972
70757SOL    HW114168  14.283   7.193   4.973
70757SOL    HW214169  14.417   7.146   5.024
70758SOL     OW14170  13.589   8.302   0.139
70758SOL    HW114171  13.570   8.387   0.178
70758SOL    HW214172  13.684   8.300   0.130
70759SOL     OW14173  10.923   4.929   0.858
70759SOL    HW114174  10.920   4.862   0.789
70759SOL    HW214175  10.952   5.008   0.813
70760SOL     OW14176   0.236  13.823   8.579
70760SOL    HW114177   0.302  13.880   8.541
70760SOL    HW214178   0.272  13.735   8.570
70761SOL     OW14179   9.398   5.827   6.237
70761SOL    HW114180   9.406   5.866   6.324
70761SOL    HW214181   9.453   5.748   6.241
70762SOL     OW14182   3.818  12.451  12.156
70762SOL    HW114183   3.856  12.385  12.097
70762SOL    HW214184   3.893  12.504  12.184
70763SOL     OW14185   2.850   7.332   8.069
70763SOL    HW114186   2.915   7.338   8.139
70763SOL    HW214187   2.897   7.294   7.996
70764SOL     OW14188   9.224   5.616  13.203
70764SOL    HW114189   9.240   5.691  13.145
70764SOL    HW214190   9.311   5.577  13.217
70765SOL     OW14191   1.874   3.279  11.074
70765SOL    HW114192   1.929   3.286  10.996
70765SOL    HW214193   1.785   3.276  11.040
70766SOL     OW14194  12.667  13.261   8.106
70766SOL    HW114195  12.714  13.334   8.066
70766SOL    HW214196  12.730  13.189   8.106
70767SOL     OW14197   4.267  14.597   8.747
70767SOL    HW114198   4.313  14.604   8.831
70767SOL    HW214199   4.232  14.508   8.746
70768SOL     OW14200   2.298  14.005   1.593
70768SOL    HW114201   2.358  13.964   1.655
70768SOL    HW214202   2.339  13.993   1.507
70769SOL     OW14203   0.761   6.311  10.891
70769SOL    HW114204   0.772   6.349  10.804
70769SOL    HW214205   0.843   6.266  10.909
70770SOL     OW14206   8.934   2.007   8.416
70770SOL    HW114207   8.988   2.032   8.491
70770SOL    HW214208   8.972   1.925   8.385
70771SOL     OW14209   3.933  14.424   4.627
70771SOL    HW114210   3.992  14.420   4.552
70771SOL    HW214211   3.912  14.332   4.645
70772SOL     OW14212   9.104   6.142   4.620
70772SOL    HW114213   9.059   6.059   4.607
70772SOL    HW214214   9.037   6.209   4.608
70773SOL     OW14215   1.377  10.849   7.856
70773SOL    HW114216   1.391  10.806   7.772
70773SOL    HW214217   1.440  10.922   7.855
70774SOL     OW14218   9.151   3.922  10.245
70774SOL    HW114219   9.096   3.915  10.323
70774SOL    HW214220   9.155   4.015  10.227
70775SOL     OW14221   1.750   9.435   4.437
70775SOL    HW114222   1.742   9.428   4.342
70775SOL    HW214223   1.825   9.493   4.451
70776SOL     OW14224  14.524   7.001   8.903
70776SOL    HW114225  14.471   7.076   8.874
70776SOL    HW214226  14.575   6.977   8.827
70777SOL     OW14227   1.933  11.470  13.719
70777SOL    HW114228   1.882  11.507  13.647
70777SOL    HW214229   1.888  11.500  13.798
70778SOL     OW14230   9.070   8.873   3.754
70778SOL    HW114231   9.145   8.913   3.709
70778SOL    HW214232   9.043   8.801   3.698
70779SOL     OW14233   6.383  11.633   9.540
70779SOL    HW114234   6.371  11.610   9.632
70779SOL    HW214235   6.383  11.729   9.539
70780SOL     OW14236   5.558   5.461   3.917
70780SOL    HW114237   5.563   5.534   3.855
70780SOL    HW214238   5.544   5.384   3.862
70781SOL     OW14239  13.639  14.403  12.249
70781SOL    HW114240  13.686  14.408  12.165
70781SOL    HW214241  13.637  14.493  12.281
70782SOL     OW14242   4.969   1.911  12.220
70782SOL    HW114243   5.020   1.919  12.140
70782SOL    HW214244   4.886   1.874  12.192
70783SOL     OW14245  14.081   5.708   5.482
70783SOL    HW114246  13.986   5.696   5.488
70783SOL    HW214247  14.111   5.702   5.573
70784SOL     OW14248   6.615   7.462   0.483
70784SOL    HW114249   6.695   7.443   0.434
70784SOL    HW214250   6.574   7.377   0.495
70785SOL     OW14251   7.311  13.096   4.594
70785SOL    HW114252   7.217  13.096   4.579
70785SOL    HW214253   7.333  13.004   4.606
70786SOL     OW14254   1.539   8.157   1.499
70786SOL    HW114255   1.508   8.190   1.583
70786SOL    HW214256   1.632   8.137   1.514
70787SOL     OW14257   5.636  11.359  10.255
70787SOL    HW114258   5.710  11.327  10.204
70787SOL    HW214259   5.570  11.382  10.190
70788SOL     OW14260   1.358   4.004   9.942
70788SOL    HW114261   1.365   4.038   9.853
70788SOL    HW214262   1.399   4.070   9.997
70789SOL     OW14263  14.591   4.264   2.191
70789SOL    HW114264  14.619   4.351   2.163
70789SOL    HW214265  14.498   4.275   2.214
70790SOL     OW14266   9.014   2.597  11.077
70790SOL    HW114267   9.004   2.502  11.088
70790SOL    HW214268   9.016   2.610  10.982
70791SOL     OW14269   2.458   6.338   1.197
70791SOL    HW114270   2.463   6.428   1.166
70791SOL    HW214271   2.364   6.319   1.202
70792SOL     OW14272   6.490   5.886   0.597
70792SOL    HW114273   6.441   5.829   0.656
70792SOL    HW214274   6.580   5.852   0.602
70793SOL     OW14275  14.011  13.075   9.479
70793SOL    HW114276  14.024  13.054   9.387
70793SOL    HW214277  13.988  12.992   9.520
70794SOL     OW14278   1.425   3.299  14.146
70794SOL    HW114279   1.511   3.306  14.187
70794SOL    HW214280   1.444   3.279  14.054
70795SOL     OW14281  11.462   5.325  10.054
70795SOL    HW114282  11.514   5.396  10.018
70795SOL    HW214283  11.373   5.361  10.059
70796SOL     OW14284  11.519   7.345   7.610
70796SOL    HW114285  11.432   7.344   7.651
70796SOL    HW214286  11.507   7.301   7.526
70797SOL     OW14287  12.836   5.901   9.539
70797SOL    HW114288  12.770   5.969   9.525
70797SOL    HW214289  12.834   5.849   9.459
70798SOL     OW14290   6.037  14.254   1.988
70798SOL    HW114291   6.067  14.329   2.038
70798SOL    HW214292   6.036  14.284   1.897
70799SOL     OW14293   4.551  13.122   5.838
70799SOL    HW114294   4.589  13.182   5.775
70799SOL    HW214295   4.584  13.152   5.923
70800SOL     OW14296   2.379  14.471   0.737
70800SOL    HW114297   2.424  14.553   0.756
70800SOL    HW214298   2.355  14.436   0.822
70801SOL     OW14299   4.742   6.724   1.561
70801SOL    HW114300   4.724   6.712   1.468
70801SOL    HW214301   4.809   6.659   1.582
70802SOL     OW14302  11.880   1.266   3.223
70802SOL    HW114303  11.798   1.228   3.194
70802SOL    HW214304  11.874   1.265   3.319
70803SOL     OW14305   7.444   6.712   1.266
70803SOL    HW114306   7.493   6.630   1.253
70803SOL    HW214307   7.439   6.751   1.179
70804SOL     OW14308  13.520   5.036   2.091
70804SOL    HW114309  13.437   5.067   2.127
70804SOL    HW214310  13.534   4.951   2.133
70805SOL     OW14311  10.799  11.442  11.532
70805SOL    HW114312  10.778  11.524  11.577
70805SOL    HW214313  10.894  11.435  11.537
70806SOL     OW14314  13.539   5.845   1.874
70806SOL    HW114315  13.561   5.930   1.912
70806SOL    HW214316  13.461   5.817   1.923
70807SOL     OW14317  11.132  11.840  12.983
70807SOL    HW114318  11.157  11.881  13.065
70807SOL    HW214319  11.143  11.909  12.917
70808SOL     OW14320   1.186   3.295   8.700
70808SOL    HW114321   1.224   3.314   8.614
70808SOL    HW214322   1.261   3.268   8.754
70809SOL     OW14323  10.093   6.916  13.879
70809SOL    HW114324  10.169   6.959  13.840
70809SOL    HW214325  10.031   6.906  13.807
70810SOL     OW14326   7.456  14.799   4.812
70810SOL    HW114327   7.468  14.710   4.844
70810SOL    HW214328   7.404  14.842   4.879
70811SOL     OW14329   0.772   2.260   0.203
70811SOL    HW114330   0.721   2.281   0.126
70811SOL    HW214331   0.709   2.258   0.275
70812SOL     OW14332  14.807   4.433   9.428
70812SOL    HW114333  14.811   4.375   9.504
70812SOL    HW214334  14.788   4.519   9.464
70813SOL     OW14335   2.235  11.416  13.853
70813SOL    HW114336   2.304  11.437  13.790
70813SOL    HW214337   2.153  11.426  13.804
70814SOL     OW14338   2.221   5.250  12.280
70814SOL    HW114339   2.270   5.332  12.288
70814SOL    HW214340   2.183   5.236  12.367
70815SOL     OW14341  12.297   0.632   5.394
70815SOL    HW114342  12.225   0.693   5.378
70815SOL    HW214343  12.295   0.573   5.318
70816SOL     OW14344   4.948  11.239   0.173
70816SOL    HW114345   4.993  11.175   0.118
70816SOL    HW214346   4.863  11.251   0.131
70817SOL     OW14347  14.337   3.584  14.151
70817SOL    HW114348  14.389   3.626  14.083
70817SOL    HW214349  14.397   3.521  14.192
70818SOL     OW14350  13.650  13.971   0.166
70818SOL    HW114351  13.695  13.891   0.195
70818SOL    HW214352  13.632  13.956   0.073
70819SOL     OW14353   4.629  12.532  13.846
70819SOL    HW114354   4.629  12.627  13.861
70819SOL    HW214355   4.600  12.522  13.755
70820SOL     OW14356  10.954   8.781  14.460
70820SOL    HW114357  10.966   8.852  14.398
70820SOL    HW214358  11.028   8.788  14.520
70821SOL     OW14359   0.284   5.852  12.505
70821SOL    HW114360   0.270   5.785  12.439
70821SOL    HW214361   0.377   5.874  12.498
70822SOL     OW14362   9.302   1.883  13.844
70822SOL    HW114363   9.321   1.976  13.846
70822SOL    HW214364   9.219   1.874  13.890
70823SOL     OW14365   2.894   4.721   4.338
70823SOL    HW114366   2.956   4.716   4.410
70823SOL    HW214367   2.876   4.815   4.328
70824SOL     OW14368  14.476  12.832  14.735
70824SOL    HW114369  14.404  12.769  14.738
70824SOL    HW214370  14.539  12.798  14.799
70825SOL     OW14371  12.204   7.416   5.973
70825SOL    HW114372  12.151   7.486   6.011
70825SOL    HW214373  12.179   7.413   5.881
70826SOL     OW14374  11.487   1.898   9.104
70826SOL    HW114375  11.409   1.953   9.117
70826SOL    HW214376  11.560   1.953   9.133
70827SOL     OW14377  10.110   9.326   7.227
70827SOL    HW114378  10.112   9.304   7.320
70827SOL    HW214379  10.042   9.269   7.190
70828SOL     OW14380   2.322   4.413   9.575
70828SOL    HW114381   2.265   4.371   9.639
70828SOL    HW214382   2.291   4.381   9.491
70829SOL     OW14383  12.676   7.183   9.307
70829SOL    HW114384  12.636   7.196   9.221
70829SOL    HW214385  12.673   7.088   9.321
70830SOL     OW14386   3.090   1.974   5.526
70830SOL    HW114387   3.049   2.035   5.588
70830SOL    HW214388   3.178   2.007   5.513
70831SOL     OW14389   8.138   5.911   4.990
70831SOL    HW114390   8.118   5.900   4.897
70831SOL    HW214391   8.057   5.886   5.035
70832SOL     OW14392   2.077   6.949  14.301
70832SOL    HW114393   2.056   6.855  14.305
70832SOL    HW214394   2.037   6.979  14.220
70833SOL     OW14395   2.996   4.190  12.176
70833SOL    HW114396   3.003   4.210  12.083
70833SOL    HW214397   2.983   4.096  12.180
70834SOL     OW14398  13.601  10.962   9.363
70834SOL    HW114399  13.523  11.018   9.365
70834SOL    HW214400  13.670  11.019   9.330
70835SOL     OW14401   6.185  14.343   3.896
70835SOL    HW114402   6.138  14.413   3.940
70835SOL    HW214403   6.120  14.273   3.885
70836SOL     OW14404   0.842   9.632  14.461
70836SOL    HW114405   0.828   9.548  14.418
70836SOL    HW214406   0.936   9.648  14.454
70837SOL     OW14407  13.621   2.340   1.254
70837SOL    HW114408  13.549   2.376   1.305
70837SOL    HW214409  13.609   2.246   1.258
70838SOL     OW14410  13.950   7.707   2.870
70838SOL    HW114411  13.931   7.768   2.942
70838SOL    HW214412  13.894   7.737   2.798
70839SOL     OW14413   6.708   8.019   9.388
70839SOL    HW114414   6.686   8.025   9.295
70839SOL    HW214415   6.759   8.099   9.406
70840SOL     OW14416   8.558  12.347   8.302
70840SOL    HW114417   8.597  12.432   8.324
70840SOL    HW214418   8.508  12.363   8.222
70841SOL     OW14419   3.206   9.565   6.836
70841SOL    HW114420   3.130   9.548   6.893
70841SOL    HW214421   3.197   9.658   6.812
70842SOL     OW14422  12.233   6.825   0.637
70842SOL    HW114423  12.220   6.911   0.596
70842SOL    HW214424  12.175   6.766   0.590
70843SOL     OW14425   1.848   3.010   5.220
70843SOL    HW114426   1.824   3.012   5.312
70843SOL    HW214427   1.768   3.038   5.174
70844SOL     OW14428  10.105   2.031   8.722
70844SOL    HW114429  10.063   2.115   8.706
70844SOL    HW214430  10.033   1.971   8.738
70845SOL     OW14431   7.050   6.224   3.867
70845SOL    HW114432   6.977   6.163   3.873
70845SOL    HW214433   7.118   6.176   3.819
70846SOL     OW14434   9.660   8.941  13.553
70846SOL    HW114435   9.646   8.993  13.632
70846SOL    HW214436   9.581   8.953  13.501
70847SOL     OW14437   2.824   6.130  12.340
70847SOL    HW114438   2.866   6.148  12.256
70847SOL    HW214439   2.891   6.084  12.390
70848SOL     OW14440   5.692  10.554  12.242
70848SOL    HW114441   5.639  10.599  12.308
70848SOL    HW214442   5.674  10.601  12.161
70849SOL     OW14443   4.351   1.454   1.065
70849SOL    HW114444   4.279   1.408   1.110
70849SOL    HW214445   4.412   1.384   1.041
70850SOL     OW14446   3.712  14.104   0.409
70850SOL    HW114447   3.675  14.046   0.342
70850SOL    HW214448   3.645  14.172   0.421
70851SOL     OW14449   0.893   2.417   9.651
70851SOL    HW114450   0.803   2.434   9.623
70851SOL    HW214451   0.925   2.502   9.682
70852SOL     OW14452   8.800   7.363   5.442
70852SOL    HW114453   8.867   7.392   5.505
70852SOL    HW214454   8.722   7.412   5.466
70853SOL     OW14455   6.603   3.884   2.557
70853SOL    HW114456   6.692   3.851   2.550
70853SOL    HW214457   6.612   3.980   2.555
70854SOL     OW14458  11.075   4.829   5.512
70854SOL    HW114459  11.004   4.766   5.528
70854SOL    HW214460  11.041   4.886   5.443
70855SOL     OW14461   5.562   1.550   2.011
70855SOL    HW114462   5.640   1.579   2.060
70855SOL    HW214463   5.541   1.464   2.048
70856SOL     OW14464   0.866   7.856   6.184
70856SOL    HW114465   0.837   7.809   6.262
70856SOL    HW214466   0.892   7.943   6.216
70857SOL     OW14467  14.776  12.899   2.064
70857SOL    HW114468  14.789  12.810   2.096
70857SOL    HW214469  14.822  12.902   1.980
70858SOL     OW14470   0.545   8.165  10.282
70858SOL    HW114471   0.629   8.121  10.287
70858SOL    HW214472   0.486   8.101  10.242
70859SOL     OW14473   4.793   6.116   7.495
70859SOL    HW114474   4.765   6.134   7.585
70859SOL    HW214475   4.885   6.142   7.494
70860SOL     OW14476   2.468  10.481  11.747
70860SOL    HW114477   2.428  10.557  11.704
70860SOL    HW214478   2.559  10.507  11.760
70861SOL     OW14479   9.042  14.665   8.610
70861SOL    HW114480   9.015  14.582   8.571
70861SOL    HW214481   9.136  14.670   8.593
70862SOL     OW14482   8.758  13.684  12.455
70862SOL    HW114483   8.815  13.637  12.515
70862SOL    HW214484   8.806  13.687  12.372
70863SOL     OW14485   3.474  11.736   2.515
70863SOL    HW114486   3.403  11.752   2.576
70863SOL    HW214487   3.552  11.772   2.558
70864SOL     OW14488   2.779   5.119   6.252
70864SOL    HW114489   2.826   5.097   6.171
70864SOL    HW214490   2.708   5.176   6.224
70865SOL     OW14491  10.909   4.987   5.943
70865SOL    HW114492  10.986   5.028   5.904
70865SOL    HW214493  10.863   5.060   5.985
70866SOL     OW14494  11.534   7.885  12.401
70866SOL    HW114495  11.612   7.886  12.457
70866SOL    HW214496  11.460   7.896  12.461
70867SOL     OW14497  10.991  10.553   1.198
70867SOL    HW114498  11.019  10.620   1.261
70867SOL    HW214499  11.073  10.524   1.157
70868SOL     OW14500   2.394   3.445  14.013
70868SOL    HW114501   2.306   3.461  13.978
70868SOL    HW214502   2.437   3.393  13.945
70869SOL     OW14503  14.589  10.219  14.550
70869SOL    HW114504  14.542  10.296  14.517
70869SOL    HW214505  14.661  10.256  14.602
70870SOL     OW14506   7.665  14.164   7.821
70870SOL    HW114507   7.640  14.114   7.743
70870SOL    HW214508   7.629  14.115   7.894
70871SOL     OW14509   9.116  10.750   3.451
70871SOL    HW114510   9.031  10.728   3.488
70871SOL    HW214511   9.097  10.782   3.363
70872SOL     OW14512   3.670   2.768  13.684
70872SOL    HW114513   3.697   2.853  13.718
70872SOL    HW214514   3.750   2.714  13.689
70873SOL     OW14515  11.573   9.467  13.369
70873SOL    HW114516  11.653   9.418  13.388
70873SOL    HW214517  11.602   9.541  13.317
70874SOL     OW14518   9.786  14.139  12.060
70874SOL    HW114519   9.790  14.229  12.094
70874SOL    HW214520   9.872  14.102  12.081
70875SOL     OW14521  11.128  13.957   4.682
70875SOL    HW114522  11.037  13.951   4.653
70875SOL    HW214523  11.153  13.868   4.705
70876SOL     OW14524   2.295  10.239  14.011
70876SOL    HW114525   2.291  10.268  13.920
70876SOL    HW214526   2.212  10.265  14.049
70877SOL     OW14527  14.376  11.731   1.691
70877SOL    HW114528  14.433  11.768   1.623
70877SOL    HW214529  14.387  11.790   1.766
70878SOL     OW14530   2.641   0.247   5.170
70878SOL    HW114531   2.688   0.168   5.142
70878SOL    HW214532   2.649   0.247   5.266
70879SOL     OW14533  11.839   4.584  12.019
70879SOL    HW114534  11.904   4.514  12.008
70879SOL    HW214535  11.767   4.559  11.960
70880SOL     OW14536   8.043  10.937   5.175
70880SOL    HW114537   7.990  10.869   5.135
70880SOL    HW214538   8.049  10.912   5.267
70881SOL     OW14539  11.806   7.077   1.349
70881SOL    HW114540  11.718   7.088   1.384
70881SOL    HW214541  11.857   7.044   1.424
70882SOL     OW14542   7.651   7.270  12.651
70882SOL    HW114543   7.741   7.299  12.669
70882SOL    HW214544   7.634   7.202  12.715
70883SOL     OW14545   5.705  14.746   8.103
70883SOL    HW114546   5.669  14.811   8.164
70883SOL    HW214547   5.659  14.664   8.125
70884SOL     OW14548   3.671   1.844   5.667
70884SOL    HW114549   3.652   1.774   5.729
70884SOL    HW214550   3.669   1.924   5.719
70885SOL     OW14551   7.476  11.973   1.795
70885SOL    HW114552   7.416  11.926   1.852
70885SOL    HW214553   7.442  12.062   1.791
70886SOL     OW14554   5.948   2.168  10.648
70886SOL    HW114555   5.970   2.251  10.690
70886SOL    HW214556   6.006   2.103  10.688
70887SOL     OW14557   5.172   8.451   8.734
70887SOL    HW114558   5.126   8.368   8.722
70887SOL    HW214559   5.142   8.506   8.662
70888SOL     OW14560  13.252   7.613  10.489
70888SOL    HW114561  13.209   7.602  10.574
70888SOL    HW214562  13.346   7.614  10.510
70889SOL     OW14563  14.778   5.794  11.118
70889SOL    HW114564  14.711   5.814  11.053
70889SOL    HW214565  14.859   5.785  11.067
70890SOL     OW14566  13.911  12.191  12.116
70890SOL    HW114567  13.865  12.115  12.152
70890SOL    HW214568  13.891  12.189  12.022
70891SOL     OW14569   9.550  13.800   3.157
70891SOL    HW114570   9.490  13.741   3.203
70891SOL    HW214571   9.635  13.784   3.199
70892SOL     OW14572   4.719   9.055  14.414
70892SOL    HW114573   4.644   9.002  14.439
70892SOL    HW214574   4.709   9.136  14.464
70893SOL     OW14575  14.152   6.575   3.813
70893SOL    HW114576  14.213   6.621   3.870
70893SOL    HW214577  14.200   6.497   3.785
70894SOL     OW14578   3.630   5.255   1.167
70894SOL    HW114579   3.555   5.255   1.108
70894SOL    HW214580   3.701   5.217   1.116
70895SOL     OW14581  11.511   1.673   5.518
70895SOL    HW114582  11.432   1.669   5.464
70895SOL    HW214583  11.525   1.766   5.535
70896SOL     OW14584  12.946  12.171   0.236
70896SOL    HW114585  13.014  12.119   0.194
70896SOL    HW214586  12.880  12.184   0.168
70897SOL     OW14587  14.499   7.977   6.565
70897SOL    HW114588  14.455   7.903   6.524
70897SOL    HW214589  14.466   7.977   6.655
70898SOL     OW14590   2.152  12.041   7.108
70898SOL    HW114591   2.125  12.095   7.034
70898SOL    HW214592   2.096  11.963   7.102
70899SOL     OW14593   5.740  12.755   9.242
70899SOL    HW114594   5.794  12.749   9.321
70899SOL    HW214595   5.803  12.767   9.171
70900SOL     OW14596   4.184  13.129   0.814
70900SOL    HW114597   4.220  13.217   0.823
70900SOL    HW214598   4.117  13.122   0.882
70901SOL     OW14599   2.116   2.693   8.447
70901SOL    HW114600   2.058   2.692   8.523
70901SOL    HW214601   2.068   2.643   8.381
70902SOL     OW14602  10.163   1.552   8.350
70902SOL    HW114603  10.199   1.466   8.330
70902SOL    HW214604  10.068   1.542   8.340
70903SOL     OW14605  11.230  11.456   8.886
70903SOL    HW114606  11.217  11.453   8.981
70903SOL    HW214607  11.240  11.550   8.867
70904SOL     OW14608   3.448   7.336  11.875
70904SOL    HW114609   3.463   7.372  11.787
70904SOL    HW214610   3.435   7.243  11.861
70905SOL     OW14611  10.511   2.294  11.507
70905SOL    HW114612  10.469   2.217  11.468
70905SOL    HW214613  10.531   2.267  11.596
70906SOL     OW14614   5.016   8.291   6.371
70906SOL    HW114615   5.083   8.243   6.420
70906SOL    HW214616   5.039   8.278   6.279
70907SOL     OW14617   5.960   2.219   1.282
70907SOL    HW114618   5.987   2.243   1.371
70907SOL    HW214619   5.972   2.299   1.231
70908SOL     OW14620  13.618   8.037   9.687
70908SOL    HW114621  13.636   7.943   9.688
70908SOL    HW214622  13.677   8.072   9.620
70909SOL     OW14623   5.138  14.859   9.189
70909SOL    HW114624   5.089  14.777   9.183
70909SOL    HW214625   5.072   0.055   9.214
70910SOL     OW14626   6.904   8.944  12.563
70910SOL    HW114627   6.992   8.907  12.554
70910SOL    HW214628   6.891   8.993  12.482
70911SOL     OW14629  11.483   9.972   0.309
70911SOL    HW114630  11.436   9.969   0.225
70911SOL    HW214631  11.476  10.064   0.336
70912SOL     OW14632   3.650   1.269   4.929
70912SOL    HW114633   3.714   1.211   4.886
70912SOL    HW214634   3.571   1.260   4.875
70913SOL     OW14635   3.527  13.417   3.699
70913SOL    HW114636   3.450  13.363   3.680
70913SOL    HW214637   3.492  13.498   3.736
70914SOL     OW14638   8.161   0.168   1.897
70914SOL    HW114639   8.143   0.256   1.930
70914SOL    HW214640   8.185   0.118   1.974
70915SOL     OW14641  10.657   1.865  11.470
70915SOL    HW114642  10.658   1.942  11.414
70915SOL    HW214643  10.749   1.853  11.495
70916SOL     OW14644   0.029   2.761   4.413
70916SOL    HW114645  14.832   2.717   4.466
70916SOL    HW214646   0.083   2.807   4.477
70917SOL     OW14647   0.660   9.940  12.746
70917SOL    HW114648   0.573   9.980  12.739
70917SOL    HW214649   0.703   9.963  12.664
70918SOL     OW14650   3.002   7.648   1.298
70918SOL    HW114651   3.044   7.681   1.219
70918SOL    HW214652   2.909   7.643   1.275
70919SOL     OW14653   1.037  13.526  12.534
70919SOL    HW114654   0.975  13.469  12.579
70919SOL    HW214655   1.116  13.523  12.588
70920SOL     OW14656   1.220   3.757   5.842
70920SOL    HW114657   1.258   3.729   5.759
70920SOL    HW214658   1.155   3.823   5.817
70921SOL     OW14659   5.362  13.097  10.594
70921SOL    HW114660   5.350  13.015  10.641
70921SOL    HW214661   5.360  13.072  10.501
70922SOL     OW14662   6.872   7.203   5.485
70922SOL    HW114663   6.880   7.139   5.414
70922SOL    HW214664   6.960   7.238   5.495
70923SOL     OW14665   6.579   5.378  13.432
70923SOL    HW114666   6.645   5.422  13.379
70923SOL    HW214667   6.499   5.385  13.382
70924SOL     OW14668   8.593  11.703  13.311
70924SOL    HW114669   8.616  11.711  13.218
70924SOL    HW214670   8.658  11.755  13.357
70925SOL     OW14671   0.641   6.041   5.748
70925SOL    HW114672   0.677   6.108   5.689
70925SOL    HW214673   0.583   6.089   5.807
70926SOL     OW14674   8.052  10.110   3.996
70926SOL    HW114675   7.988  10.149   3.937
70926SOL    HW214676   8.035  10.150   4.081
70927SOL     OW14677  10.888   2.015   6.328
70927SOL    HW114678  10.866   2.056   6.245
70927SOL    HW214679  10.950   2.076   6.368
70928SOL     OW14680  11.166  11.740  12.334
70928SOL    HW114681  11.152  11.824  12.376
70928SOL    HW214682  11.102  11.737  12.263
70929SOL     OW14683   3.578  14.551   1.026
70929SOL    HW114684   3.667  14.520   1.007
70929SOL    HW214685   3.591  14.624   1.087
70930SOL     OW14686   3.121  12.334  12.749
70930SOL    HW114687   3.131  12.299  12.660
70930SOL    HW214688   3.031  12.314  12.772
70931SOL     OW14689   2.289  12.113   1.433
70931SOL    HW114690   2.373  12.159   1.428
70931SOL    HW214691   2.307  12.028   1.391
70932SOL     OW14692   0.692  12.026   8.910
70932SOL    HW114693   0.674  11.932   8.912
70932SOL    HW214694   0.776  12.035   8.956
70933SOL     OW14695   6.644  13.788  14.219
70933SOL    HW114696   6.709  13.731  14.179
70933SOL    HW214697   6.663  13.784  14.313
70934SOL     OW14698   9.299  11.304   2.955
70934SOL    HW114699   9.328  11.391   2.983
70934SOL    HW214700   9.307  11.249   3.033
70935SOL     OW14701   2.458   0.500   7.363
70935SOL    HW114702   2.467   0.587   7.403
70935SOL    HW214703   2.364   0.489   7.350
70936SOL     OW14704  13.191   9.388   6.314
70936SOL    HW114705  13.143   9.335   6.251
70936SOL    HW214706  13.278   9.398   6.275
70937SOL     OW14707   0.991  14.764  11.197
70937SOL    HW114708   1.058  14.825  11.165
70937SOL    HW214709   0.916  14.780  11.140
70938SOL     OW14710   2.196   7.210   4.785
70938SOL    HW114711   2.148   7.176   4.709
70938SOL    HW214712   2.288   7.203   4.760
70939SOL     OW14713   2.318   9.016   4.215
70939SOL    HW114714   2.403   9.059   4.209
70939SOL    HW214715   2.329   8.933   4.170
70940SOL     OW14716  12.448   3.894  11.429
70940SOL    HW114717  12.461   3.802  11.452
70940SOL    HW214718  12.361   3.896  11.389
70941SOL     OW14719   4.893   0.043   3.210
70941SOL    HW114720   4.938  14.831   3.186
70941SOL    HW214721   4.855   0.075   3.129
70942SOL     OW14722   6.156   0.591  11.640
70942SOL    HW114723   6.109   0.520  11.685
70942SOL    HW214724   6.246   0.581  11.670
70943SOL     OW14725   0.926  13.536  14.724
70943SOL    HW114726   0.906  13.629  14.738
70943SOL    HW214727   0.845  13.491  14.747
70944SOL     OW14728   9.993   3.082   3.256
70944SOL    HW114729   9.962   3.171   3.268
70944SOL    HW214730  10.034   3.083   3.169
70945SOL     OW14731  10.704  10.005   1.456
70945SOL    HW114732  10.641  10.055   1.405
70945SOL    HW214733  10.689   9.914   1.429
70946SOL     OW14734   9.285   9.491  13.721
70946SOL    HW114735   9.375   9.460  13.718
70946SOL    HW214736   9.257   9.491  13.630
70947SOL     OW14737   5.331   8.214   9.413
70947SOL    HW114738   5.300   8.304   9.404
70947SOL    HW214739   5.263   8.161   9.372
70948SOL     OW14740   5.901   6.183   4.963
70948SOL    HW114741   5.908   6.237   5.041
70948SOL    HW214742   5.992   6.165   4.938
70949SOL     OW14743   6.043   4.992  13.046
70949SOL    HW114744   6.123   4.979  12.995
70949SOL    HW214745   6.067   5.057  13.112
70950SOL     OW14746   3.954  13.058   2.445
70950SOL    HW114747   3.918  13.139   2.409
70950SOL    HW214748   3.913  13.051   2.531
70951SOL     OW14749   0.264   4.513  12.602
70951SOL    HW114750   0.212   4.586  12.637
70951SOL    HW214751   0.245   4.513  12.508
70952SOL     OW14752   9.076  13.787   1.205
70952SOL    HW114753   9.138  13.728   1.160
70952SOL    HW214754   9.095  13.775   1.298
70953SOL     OW14755   2.099  11.109   9.294
70953SOL    HW114756   2.082  11.145   9.381
70953SOL    HW214757   2.041  11.157   9.235
70954SOL     OW14758   9.442   1.315   3.417
70954SOL    HW114759   9.479   1.397   3.449
70954SOL    HW214760   9.508   1.249   3.437
70955SOL     OW14761  11.704   3.541   8.514
70955SOL    HW114762  11.609   3.533   8.520
70955SOL    HW214763  11.721   3.570   8.424
70956SOL     OW14764   1.931   7.924  11.223
70956SOL    HW114765   1.855   7.883  11.264
70956SOL    HW214766   1.914   8.018  11.227
70957SOL     OW14767   8.150  14.148   0.483
70957SOL    HW114768   8.098  14.068   0.488
70957SOL    HW214769   8.186  14.148   0.394
70958SOL     OW14770   6.090   0.010   9.153
70958SOL    HW114771   6.010  14.855   9.199
70958SOL    HW214772   6.136   0.067   9.215
70959SOL     OW14773   0.621  10.820  12.135
70959SOL    HW114774   0.529  10.828  12.111
70959SOL    HW214775   0.652  10.910  12.144
70960SOL     OW14776   2.800  14.169   9.985
70960SOL    HW114777   2.709  14.196   9.996
70960SOL    HW214778   2.848  14.223  10.047
70961SOL     OW14779  10.093   6.278  12.189
70961SOL    HW114780  10.102   6.215  12.118
70961SOL    HW214781  10.109   6.363  12.148
70962SOL     OW14782  13.796  13.298   4.066
70962SOL    HW114783  13.838  13.240   4.130
70962SOL    HW214784  13.760  13.370   4.119
70963SOL     OW14785   1.271  10.419   4.225
70963SOL    HW114786   1.279  10.410   4.320
70963SOL    HW214787   1.350  10.378   4.190
70964SOL     OW14788   9.986   4.202   5.147
70964SOL    HW114789   9.896   4.230   5.161
70964SOL    HW214790   9.989   4.113   5.182
70965SOL     OW14791   4.924   1.720   1.004
70965SOL    HW114792   4.854   1.732   0.939
70965SOL    HW214793   4.971   1.803   1.003
70966SOL     OW14794  14.738   8.828  13.759
70966SOL    HW114795  14.697   8.751  13.718
70966SOL    HW214796  14.773   8.879  13.686
70967SOL     OW14797   4.151  14.809   5.589
70967SOL    HW114798   4.092  14.863   5.536
70967SOL    HW214799   4.224  14.867   5.611
70968SOL     OW14800   0.417   9.741   4.725
70968SOL    HW114801   0.374   9.809   4.674
70968SOL    HW214802   0.357   9.666   4.721
70969SOL     OW14803   6.722   0.577   2.090
70969SOL    HW114804   6.729   0.640   2.018
70969SOL    HW214805   6.786   0.509   2.069
70970SOL     OW14806   9.759   6.840  14.690
70970SOL    HW114807   9.763   6.936  14.698
70970SOL    HW214808   9.687   6.814  14.746
70971SOL     OW14809   4.542   2.990  11.485
70971SOL    HW114810   4.633   2.981  11.515
70971SOL    HW214811   4.489   2.959  11.558
70972SOL     OW14812  11.214  10.407   6.400
70972SOL    HW114813  11.172  10.331   6.359
70972SOL    HW214814  11.218  10.473   6.330
70973SOL     OW14815   0.703  14.000  11.191
70973SOL    HW114816   0.768  14.069  11.203
70973SOL    HW214817   0.619  14.041  11.215
70974SOL     OW14818   3.787   8.627   3.284
70974SOL    HW114819   3.729   8.557   3.255
70974SOL    HW214820   3.766   8.639   3.377
70975SOL     OW14821  11.467  12.897   3.053
70975SOL    HW114822  11.432  12.816   3.090
70975SOL    HW214823  11.391  12.944   3.020
70976SOL     OW14824  10.622   3.058   5.384
70976SOL    HW114825  10.581   3.088   5.466
70976SOL    HW214826  10.696   3.005   5.413
70977SOL     OW14827  11.500   6.071   9.434
70977SOL    HW114828  11.459   6.139   9.488
70977SOL    HW214829  11.484   6.099   9.344
70978SOL     OW14830   0.290   5.822   2.224
70978SOL    HW114831   0.319   5.745   2.272
70978SOL    HW214832   0.369   5.855   2.182
70979SOL     OW14833   1.571  11.349   9.539
70979SOL    HW114834   1.608  11.362   9.451
70979SOL    HW214835   1.528  11.432   9.559
70980SOL     OW14836  12.670   4.108   1.621
70980SOL    HW114837  12.734   4.107   1.550
70980SOL    HW214838  12.586   4.094   1.577
70981SOL     OW14839   8.533   2.922   9.774
70981SOL    HW114840   8.615   2.962   9.744
70981SOL    HW214841   8.470   2.942   9.705
70982SOL     OW14842  11.424   3.788  10.389
70982SOL    HW114843  11.466   3.803  10.473
70982SOL    HW214844  11.361   3.859  10.380
70983SOL     OW14845   7.541   6.442   2.871
70983SOL    HW114846   7.610   6.389   2.911
70983SOL    HW214847   7.468   6.438   2.933
70984SOL     OW14848   6.059  10.560   3.935
70984SOL    HW114849   6.089  10.614   4.009
70984SOL    HW214850   6.089  10.608   3.858
70985SOL     OW14851   4.728  10.396   1.912
70985SOL    HW114852   4.793  10.334   1.880
70985SOL    HW214853   4.774  10.480   1.917
70986SOL     OW14854  10.068  12.543   4.343
70986SOL    HW114855  10.006  12.491   4.292
70986SOL    HW214856  10.134  12.479   4.372
70987SOL     OW14857  11.001  12.863   0.141
70987SOL    HW114858  10.966  12.918   0.211
70987SOL    HW214859  10.974  12.774   0.164
70988SOL     OW14860   2.680   6.963   2.967
70988SOL    HW114861   2.609   6.928   3.020
70988SOL    HW214862   2.691   7.053   2.997
70989SOL     OW14863   2.948   5.507   6.612
70989SOL    HW114864   2.863   5.548   6.595
70989SOL    HW214865   2.996   5.572   6.662
70990SOL     OW14866   1.054   4.416   6.461
70990SOL    HW114867   1.144   4.384   6.470
70990SOL    HW214868   1.007   4.373   6.533
70991SOL     OW14869   7.817   8.205  10.682
70991SOL    HW114870   7.890   8.228  10.625
70991SOL    HW214871   7.858   8.190  10.767
70992SOL     OW14872   8.585   0.904   2.038
70992SOL    HW114873   8.644   0.951   2.096
70992SOL    HW214874   8.642   0.852   1.982
70993SOL     OW14875   0.981  14.847   9.495
70993SOL    HW114876   0.898   0.023   9.479
70993SOL    HW214877   0.957  14.754   9.495
70994SOL     OW14878  14.726  13.607   2.267
70994SOL    HW114879  14.636  13.586   2.289
70994SOL    HW214880  14.747  13.684   2.319
70995SOL     OW14881  11.306  11.836   1.313
70995SOL    HW114882  11.313  11.902   1.382
70995SOL    HW214883  11.294  11.887   1.232
70996SOL     OW14884   1.864  13.994   8.929
70996SOL    HW114885   1.792  13.991   8.866
70996SOL    HW214886   1.929  13.933   8.895
70997SOL     OW14887  14.388   3.656   3.701
70997SOL    HW114888  14.305   3.616   3.677
70997SOL    HW214889  14.450   3.626   3.634
70998SOL     OW14890   7.645   5.031   3.984
70998SOL    HW114891   7.663   5.123   3.968
70998SOL    HW214892   7.551   5.027   4.003
70999SOL     OW14893  14.553   5.477   0.576
70999SOL    HW114894  14.543   5.386   0.550
70999SOL    HW214895  14.495   5.488   0.650
71000SOL     OW14896   0.284  12.644   8.460
71000SOL    HW114897   0.290  12.738   8.443
71000SOL    HW214898   0.225  12.636   8.534
71001SOL     OW14899   5.301   7.126   8.471
71001SOL    HW114900   5.249   7.171   8.404
71001SOL    HW214901   5.390   7.156   8.457
71002SOL     OW14902   5.819  13.988  11.257
71002SOL    HW114903   5.784  14.038  11.182
71002SOL    HW214904   5.744  13.938  11.290
71003SOL     OW14905   9.429   8.709   9.436
71003SOL    HW114906   9.434   8.663   9.352
71003SOL    HW214907   9.499   8.671   9.489
71004SOL     OW14908   7.282   2.641   2.109
71004SOL    HW114909   7.198   2.655   2.064
71004SOL    HW214910   7.264   2.572   2.172
71005SOL     OW14911  12.516   4.898  14.227
71005SOL    HW114912  12.441   4.867  14.177
71005SOL    HW214913  12.585   4.835  14.208
71006SOL     OW14914   8.001  13.788   7.117
71006SOL    HW114915   8.041  13.866   7.153
71006SOL    HW214916   8.064  13.755   7.053
71007SOL     OW14917   8.634   2.075  14.320
71007SOL    HW114918   8.663   2.096  14.409
71007SOL    HW214919   8.689   2.128  14.263
71008SOL     OW14920   2.653  14.202   4.562
71008SOL    HW114921   2.710  14.270   4.596
71008SOL    HW214922   2.592  14.249   4.505
71009SOL     OW14923  11.328   1.296   7.620
71009SOL    HW114924  11.410   1.257   7.647
71009SOL    HW214925  11.351   1.385   7.594
71010SOL     OW14926  13.375   6.428  13.966
71010SOL    HW114927  13.443   6.362  13.957
71010SOL    HW214928  13.403   6.483  14.039
71011SOL     OW14929  11.581  14.260  12.653
71011SOL    HW114930  11.488  14.238  12.665
71011SOL    HW214931  11.601  14.232  12.564
71012SOL     OW14932   0.128   5.695   3.814
71012SOL    HW114933   0.132   5.604   3.785
71012SOL    HW214934   0.210   5.734   3.783
71013SOL     OW14935   6.906   5.625   5.734
71013SOL    HW114936   6.826   5.613   5.683
71013SOL    HW214937   6.885   5.695   5.796
71014SOL     OW14938   7.269  13.241   3.945
71014SOL    HW114939   7.209  13.210   4.012
71014SOL    HW214940   7.356  13.225   3.981
71015SOL     OW14941   0.248  13.014  10.360
71015SOL    HW114942   0.184  13.083  10.375
71015SOL    HW214943   0.290  13.038  10.277
71016SOL     OW14944  13.110   9.459  11.513
71016SOL    HW114945  13.149   9.537  11.551
71016SOL    HW214946  13.016   9.467  11.531
71017SOL     OW14947   0.159  11.345  13.461
71017SOL    HW114948   0.231  11.356  13.524
71017SOL    HW214949   0.181  11.265  13.414
71018SOL     OW14950  14.747   9.152   7.942
71018SOL    HW114951  14.750   9.242   7.973
71018SOL    HW214952  14.676   9.112   7.992
71019SOL     OW14953  10.132   6.028   6.143
71019SOL    HW114954  10.093   6.115   6.147
71019SOL    HW214955  10.151   6.006   6.234
71020SOL     OW14956   5.722   3.178  10.763
71020SOL    HW114957   5.747   3.239  10.833
71020SOL    HW214958   5.698   3.235  10.690
71021SOL     OW14959   5.299  12.768  11.408
71021SOL    HW114960   5.331  12.691  11.455
71021SOL    HW214961   5.376  12.804  11.366
71022SOL     OW14962  11.717  13.877  10.216
71022SOL    HW114963  11.803  13.850  10.247
71022SOL    HW214964  11.735  13.928  10.137
71023SOL     OW14965   6.984  13.740   6.096
71023SOL    HW114966   6.962  13.820   6.144
71023SOL    HW214967   6.904  13.720   6.047
71024SOL     OW14968   1.975  14.505   2.432
71024SOL    HW114969   2.014  14.455   2.503
71024SOL    HW214970   1.960  14.592   2.470
71025SOL     OW14971  14.548   0.023  11.872
71025SOL    HW114972  14.490   0.068  11.933
71025SOL    HW214973  14.631   0.015  11.919
71026SOL     OW14974   1.535   6.346   4.884
71026SOL    HW114975   1.490   6.408   4.941
71026SOL    HW214976   1.624   6.382   4.875
71027SOL     OW14977   1.622   3.601  12.209
71027SOL    HW114978   1.612   3.696  12.206
71027SOL    HW214979   1.696   3.583  12.151
71028SOL     OW14980   9.856  13.071   0.831
71028SOL    HW114981   9.825  13.043   0.917
71028SOL    HW214982   9.809  13.015   0.769
71029SOL     OW14983   8.892   7.257   3.537
71029SOL    HW114984   8.987   7.245   3.546
71029SOL    HW214985   8.860   7.260   3.627
71030SOL     OW14986   6.243   9.516   9.740
71030SOL    HW114987   6.201   9.529   9.825
71030SOL    HW214988   6.326   9.564   9.746
71031SOL     OW14989   5.807  13.911   1.538
71031SOL    HW114990   5.732  13.933   1.594
71031SOL    HW214991   5.779  13.934   1.450
71032SOL     OW14992   3.537  10.672  13.354
71032SOL    HW114993   3.463  10.640  13.406
71032SOL    HW214994   3.498  10.695  13.270
71033SOL     OW14995  13.526   1.145   0.547
71033SOL    HW114996  13.478   1.104   0.619
71033SOL    HW214997  13.514   1.239   0.560
71034SOL     OW14998   7.738   7.275   7.832
71034SOL    HW114999   7.654   7.236   7.854
71034SOL    HW215000   7.717   7.343   7.768
71035SOL     OW15001   3.641  14.541   1.853
71035SOL    HW115002   3.674  14.455   1.824
71035SOL    HW215003   3.679  14.554   1.940
71036SOL     OW15004  11.256   4.551   7.799
71036SOL    HW115005  11.345   4.555   7.836
71036SOL    HW215006  11.210   4.625   7.839
71037SOL     OW15007  12.652   6.725  11.146
71037SOL    HW115008  12.643   6.645  11.198
71037SOL    HW215009  12.645   6.796  11.209
71038SOL     OW15010  11.379   3.508  10.657
71038SOL    HW115011  11.412   3.420  10.676
71038SOL    HW215012  11.381   3.515  10.562
71039SOL     OW15013   3.427  14.106   9.508
71039SOL    HW115014   3.339  14.071   9.492
71039SOL    HW215015   3.430  14.186   9.455
71040SOL     OW15016  11.540   6.843   5.035
71040SOL    HW115017  11.545   6.936   5.058
71040SOL    HW215018  11.628   6.823   5.001
71041SOL     OW15019  11.082   0.720  14.211
71041SOL    HW115020  11.003   0.672  14.235
71041SOL    HW215021  11.072   0.737  14.117
71042SOL     OW15022   0.033  13.186   0.867
71042SOL    HW115023  14.836  13.232   0.917
71042SOL    HW215024   0.085  13.140   0.933
71043SOL     OW15025   7.416   2.711   3.630
71043SOL    HW115026   7.378   2.795   3.603
71043SOL    HW215027   7.381   2.696   3.718
71044SOL     OW15028  11.778   9.003  10.220
71044SOL    HW115029  11.833   9.041  10.289
71044SOL    HW215030  11.815   8.916  10.205
71045SOL     OW15031   1.689   6.246  12.389
71045SOL    HW115032   1.649   6.332  12.380
71045SOL    HW215033   1.657   6.196  12.313
71046SOL     OW15034   8.825  11.151   0.256
71046SOL    HW115035   8.849  11.081   0.195
71046SOL    HW215036   8.860  11.231   0.215
71047SOL     OW15037   9.872  13.221   2.512
71047SOL    HW115038   9.808  13.199   2.445
71047SOL    HW215039   9.822  13.265   2.580
71048SOL     OW15040   6.347   7.414   9.692
71048SOL    HW115041   6.263   7.459   9.690
71048SOL    HW215042   6.407   7.473   9.646
71049SOL     OW15043  13.903   1.527   4.089
71049SOL    HW115044  13.824   1.475   4.075
71049SOL    HW215045  13.939   1.541   4.001
71050SOL     OW15046   8.540  10.827  10.145
71050SOL    HW115047   8.539  10.923  10.138
71050SOL    HW215048   8.604  10.799  10.079
71051SOL     OW15049  10.065   6.716   2.504
71051SOL    HW115050  10.118   6.751   2.576
71051SOL    HW215051  10.129   6.693   2.437
71052SOL     OW15052   0.059  11.622   5.475
71052SOL    HW115053   0.132  11.616   5.537
71052SOL    HW215054   0.072  11.548   5.415
71053SOL     OW15055   8.440   4.349  12.687
71053SOL    HW115056   8.393   4.269  12.710
71053SOL    HW215057   8.378   4.420  12.704
71054SOL     OW15058  13.209  13.356   1.955
71054SOL    HW115059  13.256  13.367   1.872
71054SOL    HW215060  13.214  13.262   1.974
71055SOL     OW15061   8.456   2.994   0.214
71055SOL    HW115062   8.463   2.899   0.205
71055SOL    HW215063   8.459   3.027   0.124
71056SOL     OW15064   6.348   9.220  13.515
71056SOL    HW115065   6.329   9.126  13.516
71056SOL    HW215066   6.442   9.225  13.498
71057SOL     OW15067   8.422   5.465   9.804
71057SOL    HW115068   8.331   5.474   9.832
71057SOL    HW215069   8.447   5.377   9.832
71058SOL     OW15070   4.377   3.809   3.235
71058SOL    HW115071   4.440   3.828   3.305
71058SOL    HW215072   4.369   3.891   3.187
71059SOL     OW15073   3.255   1.479  10.018
71059SOL    HW115074   3.211   1.545  10.071
71059SOL    HW215075   3.324   1.444  10.074
71060SOL     OW15076   4.710  11.683  11.075
71060SOL    HW115077   4.765  11.605  11.063
71060SOL    HW215078   4.621  11.652  11.061
71061SOL     OW15079  12.227   4.332  10.698
71061SOL    HW115080  12.282   4.360  10.624
71061SOL    HW215081  12.267   4.250  10.727
71062SOL     OW15082   1.094   4.980  10.452
71062SOL    HW115083   1.165   4.922  10.422
71062SOL    HW215084   1.135   5.066  10.459
71063SOL     OW15085   9.666  10.625   0.349
71063SOL    HW115086   9.735  10.591   0.292
71063SOL    HW215087   9.690  10.717   0.364
71064SOL     OW15088   4.017  11.720  10.074
71064SOL    HW115089   3.927  11.753  10.083
71064SOL    HW215090   4.041  11.740   9.984
71065SOL     OW15091   4.681   4.124  12.791
71065SOL    HW115092   4.586   4.132  12.791
71065SOL    HW215093   4.712   4.201  12.839
71066SOL     OW15094   0.544   5.895   2.133
71066SOL    HW115095   0.550   5.800   2.124
71066SOL    HW215096   0.581   5.929   2.051
71067SOL     OW15097  14.248  12.104  14.366
71067SOL    HW115098  14.237  12.178  14.425
71067SOL    HW215099  14.159  12.076  14.347
71068SOL     OW15100  10.055   1.975   1.814
71068SOL    HW115101  10.103   1.901   1.775
71068SOL    HW215102  10.049   1.952   1.907
71069SOL     OW15103   9.310  11.788   3.002
71069SOL    HW115104   9.239  11.843   2.968
71069SOL    HW215105   9.322  11.721   2.935
71070SOL     OW15106   2.521   0.875   8.906
71070SOL    HW115107   2.539   0.969   8.913
71070SOL    HW215108   2.427   0.869   8.887
71071SOL     OW15109   6.203   1.779  11.588
71071SOL    HW115110   6.241   1.753  11.671
71071SOL    HW215111   6.192   1.697  11.539
71072SOL     OW15112   7.623  14.715   6.434
71072SOL    HW115113   7.602  14.647   6.369
71072SOL    HW215114   7.638  14.794   6.381
71073SOL     OW15115   3.837   9.077   5.939
71073SOL    HW115116   3.815   9.151   5.884
71073SOL    HW215117   3.790   9.093   6.021
71074SOL     OW15118   4.663   5.577   9.504
71074SOL    HW115119   4.713   5.496   9.492
71074SOL    HW215120   4.620   5.592   9.420
71075SOL     OW15121  12.959   9.713   9.649
71075SOL    HW115122  13.019   9.781   9.618
71075SOL    HW215123  12.918   9.678   9.570
71076SOL     OW15124   4.187  10.529   1.731
71076SOL    HW115125   4.207  10.441   1.763
71076SOL    HW215126   4.246  10.541   1.657
71077SOL     OW15127   3.772   3.174   9.189
71077SOL    HW115128   3.753   3.268   9.196
71077SOL    HW215129   3.852   3.162   9.240
71078SOL     OW15130   1.599   7.026   1.723
71078SOL    HW115131   1.585   7.111   1.682
71078SOL    HW215132   1.513   6.985   1.724
71079SOL     OW15133   7.180   9.754   4.708
71079SOL    HW115134   7.183   9.687   4.640
71079SOL    HW215135   7.137   9.712   4.782
71080SOL     OW15136  12.676   7.059   4.664
71080SOL    HW115137  12.726   7.136   4.641
71080SOL    HW215138  12.722   6.986   4.622
71081SOL     OW15139   6.411  11.944   2.295
71081SOL    HW115140   6.458  11.866   2.264
71081SOL    HW215141   6.477  12.013   2.294
71082SOL     OW15142   5.245   1.217   6.744
71082SOL    HW115143   5.157   1.249   6.762
71082SOL    HW215144   5.254   1.137   6.796
71083SOL     OW15145  12.594   4.774   7.189
71083SOL    HW115146  12.666   4.775   7.252
71083SOL    HW215147  12.528   4.719   7.230
71084SOL     OW15148  11.118  11.350   5.730
71084SOL    HW115149  11.052  11.316   5.669
71084SOL    HW215150  11.106  11.445   5.728
71085SOL     OW15151   7.316   1.672  12.771
71085SOL    HW115152   7.407   1.703  12.762
71085SOL    HW215153   7.300   1.621  12.692
71086SOL     OW15154   6.186  11.167  11.070
71086SOL    HW115155   6.273  11.177  11.108
71086SOL    HW215156   6.172  11.073  11.066
71087SOL     OW15157   2.463   2.349  12.177
71087SOL    HW115158   2.453   2.254  12.172
71087SOL    HW215159   2.409   2.375  12.252
71088SOL     OW15160   2.693   5.854   8.099
71088SOL    HW115161   2.767   5.849   8.038
71088SOL    HW215162   2.617   5.868   8.044
71089SOL     OW15163   1.932  11.883  13.650
71089SOL    HW115164   1.847  11.873  13.608
71089SOL    HW215165   1.941  11.977  13.666
71090SOL     OW15166  14.755   6.276   2.419
71090SOL    HW115167  14.844   6.276   2.454
71090SOL    HW215168  14.764   6.241   2.330
71091SOL     OW15169   8.032   6.310   0.695
71091SOL    HW115170   8.066   6.251   0.627
71091SOL    HW215171   8.108   6.330   0.749
71092SOL     OW15172  11.660   1.561   5.173
71092SOL    HW115173  11.596   1.501   5.135
71092SOL    HW215174  11.640   1.561   5.266
71093SOL     OW15175  11.185   1.296  13.278
71093SOL    HW115176  11.266   1.318  13.323
71093SOL    HW215177  11.213   1.244  13.202
71094SOL     OW15178  13.827   4.299   7.338
71094SOL    HW115179  13.845   4.302   7.244
71094SOL    HW215180  13.901   4.250   7.375
71095SOL     OW15181   0.348   4.299   1.036
71095SOL    HW115182   0.416   4.263   0.979
71095SOL    HW215183   0.311   4.371   0.985
71096SOL     OW15184   3.426   9.168   2.245
71096SOL    HW115185   3.506   9.221   2.239
71096SOL    HW215186   3.439   9.097   2.183
71097SOL     OW15187   0.490  10.113   6.462
71097SOL    HW115188   0.550  10.072   6.523
71097SOL    HW215189   0.535  10.193   6.434
71098SOL     OW15190   0.970   3.282  11.798
71098SOL    HW115191   0.874   3.290  11.795
71098SOL    HW215192   1.000   3.370  11.822
71099SOL     OW15193   1.468   3.226   6.930
71099SOL    HW115194   1.374   3.214   6.943
71099SOL    HW215195   1.508   3.146   6.965
71100SOL     OW15196  11.343   1.806   6.916
71100SOL    HW115197  11.405   1.741   6.882
71100SOL    HW215198  11.335   1.786   7.009
71101SOL     OW15199   0.293   6.916  14.105
71101SOL    HW115200   0.246   6.964  14.173
71101SOL    HW215201   0.228   6.856  14.068
71102SOL     OW15202   5.452  14.704   3.304
71102SOL    HW115203   5.482  14.696   3.214
71102SOL    HW215204   5.487  14.787   3.335
71103SOL     OW15205   9.804   3.537  12.545
71103SOL    HW115206   9.810   3.496  12.459
71103SOL    HW215207   9.711   3.530  12.568
71104SOL     OW15208  11.838   7.223  13.659
71104SOL    HW115209  11.814   7.134  13.688
71104SOL    HW215210  11.865   7.212  13.568
71105SOL     OW15211   1.064   7.206  11.778
71105SOL    HW115212   0.986   7.190  11.725
71105SOL    HW215213   1.045   7.289  11.823
71106SOL     OW15214   2.384   0.969   4.187
71106SOL    HW115215   2.317   0.916   4.231
71106SOL    HW215216   2.336   1.042   4.148
71107SOL     OW15217   1.522   2.796  14.749
71107SOL    HW115218   1.473   2.876  14.767
71107SOL    HW215219   1.459   2.737  14.708
71108SOL     OW15220  12.277   6.753   7.756
71108SOL    HW115221  12.242   6.664   7.756
71108SOL    HW215222  12.235   6.795   7.831
71109SOL     OW15223  13.298   0.352  10.528
71109SOL    HW115224  13.300   0.329  10.621
71109SOL    HW215225  13.260   0.276  10.485
71110SOL     OW15226   3.181  13.126   8.619
71110SOL    HW115227   3.192  13.218   8.597
71110SOL    HW215228   3.126  13.091   8.550
71111SOL     OW15229   8.467   9.333   9.156
71111SOL    HW115230   8.467   9.237   9.164
71111SOL    HW215231   8.470   9.349   9.062
71112SOL     OW15232  14.612  14.264   1.423
71112SOL    HW115233  14.702  14.233   1.439
71112SOL    HW215234  14.616  14.307   1.337
71113SOL     OW15235  12.873  14.694   9.271
71113SOL    HW115236  12.843  14.748   9.344
71113SOL    HW215237  12.800  14.694   9.209
71114SOL     OW15238   0.255   7.583   5.097
71114SOL    HW115239   0.244   7.560   5.005
71114SOL    HW215240   0.303   7.509   5.135
71115SOL     OW15241  13.814   5.536  14.302
71115SOL    HW115242  13.803   5.566  14.212
71115SOL    HW215243  13.730   5.553  14.344
71116SOL     OW15244   8.596  12.656   1.914
71116SOL    HW115245   8.618  12.609   1.994
71116SOL    HW215246   8.658  12.624   1.849
71117SOL     OW15247   3.456   3.892   2.821
71117SOL    HW115248   3.374   3.939   2.808
71117SOL    HW215249   3.524   3.955   2.794
71118SOL     OW15250  11.817   9.335  13.287
71118SOL    HW115251  11.847   9.246  13.304
71118SOL    HW215252  11.857   9.358  13.203
71119SOL     OW15253   8.507   4.744  13.606
71119SOL    HW115254   8.470   4.659  13.579
71119SOL    HW215255   8.435   4.788  13.651
71120SOL     OW15256   4.666  10.083   6.977
71120SOL    HW115257   4.696  10.157   6.925
71120SOL    HW215258   4.741  10.060   7.032
71121SOL     OW15259  13.513   4.915   2.819
71121SOL    HW115260  13.593   4.923   2.870
71121SOL    HW215261  13.469   5.000   2.829
71122SOL     OW15262  12.920  12.607  14.441
71122SOL    HW115263  12.873  12.665  14.381
71122SOL    HW215264  12.872  12.613  14.523
71123SOL     OW15265   4.735   4.339   4.980
71123SOL    HW115266   4.662   4.279   4.963
71123SOL    HW215267   4.751   4.381   4.896
71124SOL     OW15268  11.940   6.049   2.311
71124SOL    HW115269  11.933   5.960   2.346
71124SOL    HW215270  12.034   6.066   2.305
71125SOL     OW15271  10.550   9.977  10.218
71125SOL    HW115272  10.479  10.016  10.168
71125SOL    HW215273  10.571  10.042  10.285
71126SOL     OW15274  10.216   1.355  10.757
71126SOL    HW115275  10.177   1.432  10.716
71126SOL    HW215276  10.305   1.382  10.780
71127SOL     OW15277  11.411   5.616  13.131
71127SOL    HW115278  11.327   5.588  13.094
71127SOL    HW215279  11.429   5.552  13.200
71128SOL     OW15280   3.818  10.632   3.543
71128SOL    HW115281   3.825  10.670   3.456
71128SOL    HW215282   3.861  10.546   3.535
71129SOL     OW15283   1.554  12.978  11.666
71129SOL    HW115284   1.546  13.020  11.751
71129SOL    HW215285   1.521  12.889  11.680
71130SOL     OW15286   7.515   2.836   5.148
71130SOL    HW115287   7.560   2.838   5.232
71130SOL    HW215288   7.434   2.788   5.165
71131SOL     OW15289   7.113   0.799   2.707
71131SOL    HW115290   7.056   0.778   2.632
71131SOL    HW215291   7.077   0.880   2.742
71132SOL     OW15292  12.458   8.125   6.477
71132SOL    HW115293  12.389   8.090   6.533
71132SOL    HW215294  12.419   8.127   6.389
71133SOL     OW15295  12.069  14.851   5.276
71133SOL    HW115296  12.098  14.842   5.186
71133SOL    HW215297  12.083  14.764   5.314
71134SOL     OW15298   7.698   9.448   6.297
71134SOL    HW115299   7.768   9.404   6.344
71134SOL    HW215300   7.672   9.386   6.229
71135SOL     OW15301  10.725   7.727  14.262
71135SOL    HW115302  10.739   7.761  14.173
71135SOL    HW215303  10.766   7.791  14.319
71136SOL     OW15304   8.200   4.418   6.576
71136SOL    HW115305   8.271   4.457   6.627
71136SOL    HW215306   8.245   4.362   6.513
71137SOL     OW15307   6.095   9.303   3.608
71137SOL    HW115308   6.071   9.394   3.590
71137SOL    HW215309   6.011   9.258   3.614
71138SOL     OW15310   7.230   6.388  11.144
71138SOL    HW115311   7.168   6.318  11.165
71138SOL    HW215312   7.303   6.375  11.205
71139SOL     OW15313  13.962   3.871   4.988
71139SOL    HW115314  13.973   3.820   5.069
71139SOL    HW215315  14.020   3.829   4.925
71140SOL     OW15316   8.264   2.868  10.871
71140SOL    HW115317   8.299   2.814  10.941
71140SOL    HW215318   8.174   2.836  10.858
71141SOL     OW15319   6.937   9.482   8.861
71141SOL    HW115320   7.013   9.533   8.835
71141SOL    HW215321   6.924   9.419   8.790
71142SOL     OW15322   6.612   6.237   1.524
71142SOL    HW115323   6.628   6.180   1.449
71142SOL    HW215324   6.535   6.199   1.567
71143SOL     OW15325   1.355  11.586  12.052
71143SOL    HW115326   1.327  11.596  11.961
71143SOL    HW215327   1.430  11.527  12.048
71144SOL     OW15328   5.724   8.125  10.512
71144SOL    HW115329   5.697   8.184  10.442
71144SOL    HW215330   5.816   8.104  10.492
71145SOL     OW15331   6.274   6.529   3.614
71145SOL    HW115332   6.195   6.563   3.655
71145SOL    HW215333   6.343   6.546   3.678
71146SOL     OW15334  11.840  10.442   0.871
71146SOL    HW115335  11.905  10.406   0.932
71146SOL    HW215336  11.803  10.517   0.918
71147SOL     OW15337   0.357   5.071   1.980
71147SOL    HW115338   0.294   5.085   1.910
71147SOL    HW215339   0.410   5.151   1.980
71148SOL     OW15340   3.125   2.082   0.758
71148SOL    HW115341   3.164   2.085   0.846
71148SOL    HW215342   3.031   2.085   0.773
71149SOL     OW15343  11.959  13.457   0.256
71149SOL    HW115344  11.929  13.508   0.180
71149SOL    HW215345  11.969  13.522   0.325
71150SOL     OW15346   8.855   8.383   8.842
71150SOL    HW115347   8.800   8.400   8.918
71150SOL    HW215348   8.794   8.383   8.768
71151SOL     OW15349   3.029   3.628   5.562
71151SOL    HW115350   2.957   3.566   5.553
71151SOL    HW215351   3.048   3.657   5.473
71152SOL     OW15352   1.492  13.193   6.536
71152SOL    HW115353   1.502  13.174   6.442
71152SOL    HW215354   1.538  13.276   6.549
71153SOL     OW15355   0.437   9.925   2.133
71153SOL    HW115356   0.355   9.940   2.085
71153SOL    HW215357   0.449   9.830   2.130
71154SOL     OW15358   8.353   5.107   0.158
71154SOL    HW115359   8.304   5.143   0.232
71154SOL    HW215360   8.440   5.147   0.165
71155SOL     OW15361   9.780   3.368   6.356
71155SOL    HW115362   9.858   3.410   6.394
71155SOL    HW215363   9.810   3.280   6.332
71156SOL     OW15364   4.506   8.256  11.021
71156SOL    HW115365   4.520   8.219  11.108
71156SOL    HW215366   4.443   8.327  11.035
71157SOL     OW15367   2.513   7.478  14.554
71157SOL    HW115368   2.477   7.453  14.639
71157SOL    HW215369   2.443   7.459  14.492
71158SOL     OW15370   0.133  14.653   8.473
71158SOL    HW115371   0.134  14.726   8.534
71158SOL    HW215372   0.064  14.674   8.410
71159SOL     OW15373   2.328   6.743  10.794
71159SOL    HW115374   2.378   6.794  10.731
71159SOL    HW215375   2.274   6.807  10.840
71160SOL     OW15376   8.762   4.109   9.845
71160SOL    HW115377   8.667   4.104   9.855
71160SOL    HW215378   8.785   4.024   9.805
71161SOL     OW15379   0.256   3.001  10.085
71161SOL    HW115380   0.278   2.954  10.005
71161SOL    HW215381   0.241   3.092  10.057
71162SOL     OW15382   6.155   5.566   1.777
71162SOL    HW115383   6.152   5.471   1.783
71162SOL    HW215384   6.076   5.596   1.821
71163SOL     OW15385  13.013   9.649  12.875
71163SOL    HW115386  13.017   9.718  12.809
71163SOL    HW215387  12.977   9.574  12.828
71164SOL     OW15388   6.034   3.627   9.190
71164SOL    HW115389   6.126   3.614   9.168
71164SOL    HW215390   5.993   3.649   9.106
71165SOL     OW15391   7.187  13.689   0.633
71165SOL    HW115392   7.102  13.663   0.596
71165SOL    HW215393   7.248  13.621   0.603
71166SOL     OW15394  10.340  11.910  13.952
71166SOL    HW115395  10.408  11.871  14.007
71166SOL    HW215396  10.287  11.962  14.012
71167SOL     OW15397   3.262  13.528  11.933
71167SOL    HW115398   3.337  13.485  11.892
71167SOL    HW215399   3.301  13.591  11.994
71168SOL     OW15400   3.606   3.543  12.050
71168SOL    HW115401   3.525   3.560  12.002
71168SOL    HW215402   3.640   3.461  12.013
71169SOL     OW15403  13.218   8.937   5.850
71169SOL    HW115404  13.247   8.858   5.804
71169SOL    HW215405  13.124   8.942   5.832
71170SOL     OW15406  10.625   1.365   1.929
71170SOL    HW115407  10.533   1.351   1.906
71170SOL    HW215408  10.663   1.406   1.852
71171SOL     OW15409   1.999   4.247   1.200
71171SOL    HW115410   1.960   4.332   1.222
71171SOL    HW215411   2.015   4.206   1.284
71172SOL     OW15412  12.117   2.233  11.600
71172SOL    HW115413  12.093   2.266  11.687
71172SOL    HW215414  12.082   2.143  11.598
71173SOL     OW15415   9.540   9.602   0.115
71173SOL    HW115416   9.478   9.532   0.091
71173SOL    HW215417   9.531   9.667   0.045
71174SOL     OW15418   6.191  14.402  13.505
71174SOL    HW115419   6.152  14.421  13.420
71174SOL    HW215420   6.117  14.397  13.565
71175SOL     OW15421  11.984   8.864  12.103
71175SOL    HW115422  11.919   8.935  12.109
71175SOL    HW215423  11.944   8.791  12.151
71176SOL     OW15424   3.350   5.831   0.793
71176SOL    HW115425   3.434   5.801   0.758
71176SOL    HW215426   3.323   5.761   0.852
71177SOL     OW15427  10.190   0.871   7.564
71177SOL    HW115428  10.168   0.962   7.584
71177SOL    HW215429  10.185   0.825   7.648
71178SOL     OW15430  10.017   7.034   6.283
71178SOL    HW115431   9.949   7.091   6.320
71178SOL    HW215432   9.976   6.948   6.278
71179SOL     OW15433   0.676  12.729  10.443
71179SOL    HW115434   0.600  12.782  10.419
71179SOL    HW215435   0.747  12.792  10.453
71180SOL     OW15436   1.763   1.650   6.371
71180SOL    HW115437   1.680   1.663   6.325
71180SOL    HW215438   1.827   1.632   6.302
71181SOL     OW15439   2.057   2.924   7.922
71181SOL    HW115440   2.116   2.980   7.871
71181SOL    HW215441   2.115   2.860   7.964
71182SOL     OW15442  12.107  10.162   4.524
71182SOL    HW115443  12.158  10.137   4.601
71182SOL    HW215444  12.018  10.170   4.557
71183SOL     OW15445  13.456   1.414   3.391
71183SOL    HW115446  13.460   1.476   3.318
71183SOL    HW215447  13.400   1.343   3.360
71184SOL     OW15448   5.586  13.492  10.808
71184SOL    HW115449   5.558  13.427  10.743
71184SOL    HW215450   5.670  13.459  10.839
71185SOL     OW15451   4.403   4.261   9.996
71185SOL    HW115452   4.412   4.332  10.059
71185SOL    HW215453   4.339   4.293   9.933
71186SOL     OW15454   8.579  12.677  12.641
71186SOL    HW115455   8.484  12.671  12.638
71186SOL    HW215456   8.599  12.699  12.732
71187SOL     OW15457   4.324   6.126   3.958
71187SOL    HW115458   4.349   6.208   3.916
71187SOL    HW215459   4.242   6.147   4.003
71188SOL     OW15460  14.374   1.104   3.871
71188SOL    HW115461  14.460   1.065   3.891
71188SOL    HW215462  14.314   1.030   3.877
71189SOL     OW15463   0.090  12.763   0.516
71189SOL    HW115464   0.044  12.821   0.455
71189SOL    HW215465   0.144  12.708   0.460
71190SOL     OW15466   9.377   2.492  13.399
71190SOL    HW115467   9.465   2.489  13.359
71190SOL    HW215468   9.392   2.473  13.491
71191SOL     OW15469  10.032   4.884  12.680
71191SOL    HW115470   9.977   4.844  12.613
71191SOL    HW215471   9.985   4.965  12.703
71192SOL     OW15472   9.279   1.061   8.939
71192SOL    HW115473   9.192   1.101   8.946
71192SOL    HW215474   9.340   1.134   8.938
71193SOL     OW15475  11.688   6.720   3.517
71193SOL    HW115476  11.771   6.688   3.553
71193SOL    HW215477  11.708   6.807   3.483
71194SOL     OW15478  11.438   2.101  12.798
71194SOL    HW115479  11.369   2.075  12.859
71194SOL    HW215480  11.419   2.193  12.777
71195SOL     OW15481   8.454   4.798   5.020
71195SOL    HW115482   8.541   4.794   5.062
71195SOL    HW215483   8.467   4.756   4.935
71196SOL     OW15484   0.049   6.406   1.227
71196SOL    HW115485   0.105   6.445   1.161
71196SOL    HW215486   0.038   6.475   1.293
71197SOL     OW15487   8.104  11.580   1.089
71197SOL    HW115488   8.128  11.665   1.126
71197SOL    HW215489   8.105  11.520   1.163
71198SOL     OW15490  10.905   6.778  10.190
71198SOL    HW115491  10.997   6.802  10.198
71198SOL    HW215492  10.901   6.723  10.112
71199SOL     OW15493  13.721   9.187   8.493
71199SOL    HW115494  13.793   9.133   8.526
71199SOL    HW215495  13.747   9.210   8.404
71200SOL     OW15496   3.591   7.316   0.851
71200SOL    HW115497   3.577   7.372   0.927
71200SOL    HW215498   3.576   7.374   0.776
71201SOL     OW15499   7.660  11.498   9.569
71201SOL    HW115500   7.716  11.422   9.586
71201SOL    HW215501   7.584  11.486   9.626
71202SOL     OW15502  11.356  10.581   7.179
71202SOL    HW115503  11.263  10.564   7.164
71202SOL    HW215504  11.366  10.675   7.162
71203SOL     OW15505  11.331  11.678   9.084
71203SOL    HW115506  11.351  11.771   9.091
71203SOL    HW215507  11.235  11.674   9.088
71204SOL     OW15508   0.292   2.878   6.859
71204SOL    HW115509   0.349   2.805   6.885
71204SOL    HW215510   0.212   2.835   6.828
71205SOL     OW15511   4.787   3.130  10.142
71205SOL    HW115512   4.800   3.124  10.237
71205SOL    HW215513   4.692   3.140  10.132
71206SOL     OW15514   5.874   9.907   0.989
71206SOL    HW115515   5.797   9.910   1.045
71206SOL    HW215516   5.884   9.815   0.966
71207SOL     OW15517   3.273  12.675   1.227
71207SOL    HW115518   3.310  12.613   1.290
71207SOL    HW215519   3.282  12.632   1.142
71208SOL     OW15520  13.289   6.351   1.207
71208SOL    HW115521  13.315   6.426   1.261
71208SOL    HW215522  13.370   6.306   1.187
71209SOL     OW15523   9.218   3.468  14.868
71209SOL    HW115524   9.167   3.425  14.800
71209SOL    HW215525   9.267   3.397   0.040
71210SOL     OW15526  12.685   7.855  14.332
71210SOL    HW115527  12.633   7.777  14.315
71210SOL    HW215528  12.625   7.928  14.317
71211SOL     OW15529   8.021   5.134  14.168
71211SOL    HW115530   7.938   5.091  14.145
71211SOL    HW215531   7.994   5.213  14.216
71212SOL     OW15532   0.930   0.351   9.277
71212SOL    HW115533   0.969   0.392   9.200
71212SOL    HW215534   1.001   0.351   9.342
71213SOL     OW15535   2.893   7.258  13.056
71213SOL    HW115536   2.949   7.311  12.998
71213SOL    HW215537   2.874   7.316  13.129
71214SOL     OW15538   5.542  13.344   6.036
71214SOL    HW115539   5.586  13.426   6.060
71214SOL    HW215540   5.477  13.370   5.971
71215SOL     OW15541  11.815   6.616   1.915
71215SOL    HW115542  11.804   6.560   1.838
71215SOL    HW215543  11.774   6.568   1.987
71216SOL     OW15544   8.446   1.834   1.141
71216SOL    HW115545   8.452   1.739   1.132
71216SOL    HW215546   8.534   1.861   1.165
71217SOL     OW15547   1.094   6.782   3.068
71217SOL    HW115548   1.166   6.777   3.005
71217SOL    HW215549   1.023   6.731   3.029
71218SOL     OW15550   3.388   8.197  12.044
71218SOL    HW115551   3.456   8.181  12.110
71218SOL    HW215552   3.366   8.290  12.054
71219SOL     OW15553  14.196   1.931   1.624
71219SOL    HW115554  14.204   1.839   1.597
71219SOL    HW215555  14.134   1.969   1.562
71220SOL     OW15556   8.365   6.807   0.839
71220SOL    HW115557   8.300   6.873   0.863
71220SOL    HW215558   8.447   6.840   0.875
71221SOL     OW15559  14.584  12.415  11.322
71221SOL    HW115560  14.532  12.474  11.377
71221SOL    HW215561  14.616  12.348  11.382
71222SOL     OW15562   4.170  11.698   7.127
71222SOL    HW115563   4.218  11.778   7.148
71222SOL    HW215564   4.235  11.640   7.088
71223SOL     OW15565   0.299  11.208   0.213
71223SOL    HW115566   0.224  11.266   0.201
71223SOL    HW215567   0.300  11.189   0.307
71224SOL     OW15568  14.552   4.906   5.543
71224SOL    HW115569  14.471   4.943   5.578
71224SOL    HW215570  14.524   4.826   5.499
71225SOL     OW15571   1.354  13.070  10.968
71225SOL    HW115572   1.333  13.126  10.893
71225SOL    HW215573   1.432  13.110  11.007
71226SOL     OW15574   0.799   0.435  11.504
71226SOL    HW115575   0.763   0.352  11.475
71226SOL    HW215576   0.743   0.501  11.463
71227SOL     OW15577  14.845  12.987  13.760
71227SOL    HW115578  14.754  12.976  13.789
71227SOL    HW215579  14.841  12.972  13.666
71228SOL     OW15580   0.627   6.155   3.958
71228SOL    HW115581   0.628   6.216   3.884
71228SOL    HW215582   0.719   6.131   3.970
71229SOL     OW15583   7.825   6.181   0.868
71229SOL    HW115584   7.904   6.228   0.845
71229SOL    HW215585   7.804   6.129   0.791
71230SOL     OW15586   2.275  13.638   8.102
71230SOL    HW115587   2.274  13.601   8.014
71230SOL    HW215588   2.338  13.710   8.098
71231SOL     OW15589   1.078   3.505  14.257
71231SOL    HW115590   1.109   3.531  14.170
71231SOL    HW215591   0.994   3.463  14.241
71232SOL     OW15592  12.227   2.439   2.938
71232SOL    HW115593  12.154   2.443   3.000
71232SOL    HW215594  12.287   2.375   2.975
71233SOL     OW15595   0.907   2.754   1.297
71233SOL    HW115596   0.903   2.849   1.288
71233SOL    HW215597   0.889   2.737   1.390
71234SOL     OW15598   9.372   7.300  12.494
71234SOL    HW115599   9.433   7.360  12.537
71234SOL    HW215600   9.313   7.271  12.564
71235SOL     OW15601   6.971   0.011   5.977
71235SOL    HW115602   6.967   0.086   6.037
71235SOL    HW215603   6.907  14.819   6.012
71236SOL     OW15604   5.343  10.860   9.317
71236SOL    HW115605   5.297  10.860   9.401
71236SOL    HW215606   5.322  10.944   9.278
71237SOL     OW15607   7.443   9.505  12.166
71237SOL    HW115608   7.505   9.508  12.094
71237SOL    HW215609   7.489   9.546  12.240
71238SOL     OW15610   3.238   9.029   0.272
71238SOL    HW115611   3.321   9.010   0.314
71238SOL    HW215612   3.248   8.998   0.182
71239SOL     OW15613  13.178   9.419   9.368
71239SOL    HW115614  13.249   9.478   9.394
71239SOL    HW215615  13.204   9.387   9.281
71240SOL     OW15616  14.763  14.762  14.707
71240SOL    HW115617  14.700  14.742  14.775
71240SOL    HW215618  14.790  14.677  14.673
71241SOL     OW15619   2.573   5.715  11.459
71241SOL    HW115620   2.617   5.712  11.544
71241SOL    HW215621   2.605   5.795  11.418
71242SOL     OW15622   1.643  13.843   6.357
71242SOL    HW115623   1.707  13.804   6.417
71242SOL    HW215624   1.629  13.777   6.290
71243SOL     OW15625  11.832  10.878  12.804
71243SOL    HW115626  11.807  10.802  12.857
71243SOL    HW215627  11.867  10.941  12.867
71244SOL     OW15628  13.691   0.984  12.147
71244SOL    HW115629  13.639   1.049  12.195
71244SOL    HW215630  13.688   1.013  12.056
71245SOL     OW15631   9.393   6.053   6.638
71245SOL    HW115632   9.309   6.081   6.675
71245SOL    HW215633   9.390   6.084   6.547
71246SOL     OW15634  12.514   1.675  12.494
71246SOL    HW115635  12.435   1.622  12.498
71246SOL    HW215636  12.483   1.763  12.473
71247SOL     OW15637  14.643   5.334   8.548
71247SOL    HW115638  14.630   5.374   8.635
71247SOL    HW215639  14.647   5.240   8.565
71248SOL     OW15640   0.080   6.140  12.847
71248SOL    HW115641   0.158   6.124  12.795
71248SOL    HW215642   0.007   6.114  12.790
71249SOL     OW15643  11.070  11.621   1.702
71249SOL    HW115644  11.134  11.552   1.681
71249SOL    HW215645  10.985  11.579   1.686
71250SOL     OW15646   3.699   7.811  14.329
71250SOL    HW115647   3.768   7.866  14.291
71250SOL    HW215648   3.722   7.722  14.301
71251SOL     OW15649  10.668   3.980   1.426
71251SOL    HW115650  10.686   4.062   1.381
71251SOL    HW215651  10.641   3.920   1.356
71252SOL     OW15652   5.335   6.194  13.065
71252SOL    HW115653   5.414   6.149  13.094
71252SOL    HW215654   5.348   6.207  12.971
71253SOL     OW15655   6.584   2.367   9.863
71253SOL    HW115656   6.678   2.378   9.855
71253SOL    HW215657   6.547   2.431   9.801
71254SOL     OW15658   7.752   2.156  10.920
71254SOL    HW115659   7.728   2.115  10.837
71254SOL    HW215660   7.724   2.247  10.912
71255SOL     OW15661  13.556   0.342   3.885
71255SOL    HW115662  13.579   0.391   3.806
71255SOL    HW215663  13.518   0.260   3.851
71256SOL     OW15664  10.543  10.922  13.867
71256SOL    HW115665  10.467  10.900  13.814
71256SOL    HW215666  10.599  10.845  13.862
71257SOL     OW15667   7.887   9.784   3.193
71257SOL    HW115668   7.947   9.742   3.255
71257SOL    HW215669   7.914   9.876   3.192
71258SOL     OW15670   8.873   0.561  12.013
71258SOL    HW115671   8.964   0.541  12.036
71258SOL    HW215672   8.879   0.643  11.964
71259SOL     OW15673   2.702   0.144  14.797
71259SOL    HW115674   2.757   0.178  14.726
71259SOL    HW215675   2.622   0.197  14.794
71260SOL     OW15676   7.945   3.088  12.378
71260SOL    HW115677   8.037   3.074  12.357
71260SOL    HW215678   7.940   3.077  12.473
71261SOL     OW15679   2.812   2.265   8.354
71261SOL    HW115680   2.771   2.245   8.438
71261SOL    HW215681   2.814   2.360   8.350
71262SOL     OW15682   9.651   1.115   5.354
71262SOL    HW115683   9.680   1.205   5.363
71262SOL    HW215684   9.556   1.122   5.340
71263SOL     OW15685   0.178   8.239   1.105
71263SOL    HW115686   0.179   8.237   1.201
71263SOL    HW215687   0.245   8.176   1.079
71264SOL     OW15688   0.717  14.487  11.456
71264SOL    HW115689   0.680  14.561  11.408
71264SOL    HW215690   0.643  14.429  11.471
71265SOL     OW15691   2.213  13.485  10.840
71265SOL    HW115692   2.304  13.514  10.843
71265SOL    HW215693   2.163  13.558  10.877
71266SOL     OW15694   7.567   6.318   2.511
71266SOL    HW115695   7.545   6.339   2.421
71266SOL    HW215696   7.659   6.340   2.519
71267SOL     OW15697   8.408  10.008   9.369
71267SOL    HW115698   8.458   9.935   9.406
71267SOL    HW215699   8.324  10.006   9.415
71268SOL     OW15700  10.359   5.289   0.251
71268SOL    HW115701  10.265   5.292   0.236
71268SOL    HW215702  10.373   5.211   0.304
71269SOL     OW15703   5.639   2.547  11.756
71269SOL    HW115704   5.656   2.454  11.738
71269SOL    HW215705   5.723   2.580  11.789
71270SOL     OW15706   5.576  13.735   6.571
71270SOL    HW115707   5.548  13.808   6.516
71270SOL    HW215708   5.636  13.686   6.515
71271SOL     OW15709   6.525  11.902  14.439
71271SOL    HW115710   6.552  11.993  14.455
71271SOL    HW215711   6.493  11.902  14.349
71272SOL     OW15712   0.507  12.522   8.858
71272SOL    HW115713   0.521  12.464   8.933
71272SOL    HW215714   0.432  12.576   8.883
71273SOL     OW15715   3.023   0.975   5.284
71273SOL    HW115716   2.993   0.991   5.194
71273SOL    HW215717   2.944   0.947   5.330
71274SOL     OW15718   7.557   1.649   8.662
71274SOL    HW115719   7.552   1.568   8.610
71274SOL    HW215720   7.530   1.718   8.601
71275SOL     OW15721  11.468  12.525  10.175
71275SOL    HW115722  11.465  12.435  10.143
71275SOL    HW215723  11.382  12.561  10.153
71276SOL     OW15724   7.792   8.624   4.423
71276SOL    HW115725   7.773   8.607   4.515
71276SOL    HW215726   7.863   8.688   4.423
71277SOL     OW15727   2.475   8.854   3.458
71277SOL    HW115728   2.505   8.850   3.549
71277SOL    HW215729   2.532   8.792   3.412
71278SOL     OW15730  10.229   8.640   9.752
71278SOL    HW115731  10.165   8.711   9.744
71278SOL    HW215732  10.298   8.663   9.690
71279SOL     OW15733   2.411  10.831  14.286
71279SOL    HW115734   2.421  10.921  14.253
71279SOL    HW215735   2.323  10.829  14.323
71280SOL     OW15736   5.233   0.384   6.745
71280SOL    HW115737   5.209   0.456   6.803
71280SOL    HW215738   5.313   0.413   6.703
71281SOL     OW15739  10.079   2.266   5.639
71281SOL    HW115740  10.007   2.329   5.645
71281SOL    HW215741  10.049   2.190   5.688
71282SOL     OW15742   4.329   2.049   8.450
71282SOL    HW115743   4.247   2.007   8.476
71282SOL    HW215744   4.316   2.141   8.469
71283SOL     OW15745   6.079   5.060   2.559
71283SOL    HW115746   6.002   5.066   2.616
71283SOL    HW215747   6.102   4.967   2.560
71284SOL     OW15748   0.700   4.925   3.292
71284SOL    HW115749   0.758   4.957   3.223
71284SOL    HW215750   0.612   4.948   3.263
71285SOL     OW15751  11.429   8.304  13.279
71285SOL    HW115752  11.449   8.325  13.188
71285SOL    HW215753  11.339   8.270  13.276
71286SOL     OW15754   3.854   7.593   1.129
71286SOL    HW115755   3.865   7.546   1.212
71286SOL    HW215756   3.878   7.530   1.062
71287SOL     OW15757   2.233   4.097   4.075
71287SOL    HW115758   2.183   4.101   3.993
71287SOL    HW215759   2.227   4.186   4.110
71288SOL     OW15760   8.169   8.607   5.419
71288SOL    HW115761   8.211   8.597   5.334
71288SOL    HW215762   8.188   8.526   5.466
71289SOL     OW15763  13.276   1.237   8.049
71289SOL    HW115764  13.297   1.329   8.030
71289SOL    HW215765  13.357   1.190   8.029
71290SOL     OW15766   2.799   2.667   1.558
71290SOL    HW115767   2.758   2.688   1.642
71290SOL    HW215768   2.759   2.729   1.497
71291SOL     OW15769   5.733  12.264  11.217
71291SOL    HW115770   5.684  12.346  11.228
71291SOL    HW215771   5.764  12.266  11.127
71292SOL     OW15772  11.006   4.542   5.212
71292SOL    HW115773  10.923   4.587   5.195
71292SOL    HW215774  11.010   4.473   5.146
71293SOL     OW15775   6.491  14.722   0.367
71293SOL    HW115776   6.414  14.667   0.354
71293SOL    HW215777   6.538  14.681   0.440
71294SOL     OW15778   3.756   3.533   2.647
71294SOL    HW115779   3.733   3.590   2.573
71294SOL    HW215780   3.690   3.551   2.714
71295SOL     OW15781  13.898  10.123  11.909
71295SOL    HW115782  13.843  10.136  11.831
71295SOL    HW215783  13.842  10.148  11.982
71296SOL     OW15784   5.831   8.277   5.786
71296SOL    HW115785   5.861   8.211   5.724
71296SOL    HW215786   5.855   8.243   5.872
71297SOL     OW15787   2.012   8.928  12.596
71297SOL    HW115788   1.955   8.946  12.521
71297SOL    HW215789   2.065   9.007  12.605
71298SOL     OW15790   6.531  13.849   2.383
71298SOL    HW115791   6.554  13.936   2.351
71298SOL    HW215792   6.575  13.842   2.468
71299SOL     OW15793   4.733   2.765  10.539
71299SOL    HW115794   4.713   2.801  10.453
71299SOL    HW215795   4.789   2.831  10.580
71300SOL     OW15796   2.589  11.199   5.971
71300SOL    HW115797   2.590  11.176   6.064
71300SOL    HW215798   2.623  11.289   5.969
71301SOL     OW15799   9.400   8.664   4.584
71301SOL    HW115800   9.329   8.727   4.589
71301SOL    HW215801   9.418   8.641   4.675
71302SOL     OW15802   1.528  13.945  12.062
71302SOL    HW115803   1.545  13.876  11.998
71302SOL    HW215804   1.463  14.002  12.020
71303SOL     OW15805   2.978   2.552  11.713
71303SOL    HW115806   2.969   2.599  11.630
71303SOL    HW215807   3.069   2.522  11.713
71304SOL     OW15808   6.875   8.596   0.324
71304SOL    HW115809   6.888   8.515   0.373
71304SOL    HW215810   6.941   8.593   0.255
71305SOL     OW15811  11.658  13.985   1.423
71305SOL    HW115812  11.563  13.974   1.421
71305SOL    HW215813  11.692  13.895   1.416
71306SOL     OW15814  13.428   5.612   4.476
71306SOL    HW115815  13.456   5.695   4.515
71306SOL    HW215816  13.483   5.602   4.398
71307SOL     OW15817   8.593  13.185   3.065
71307SOL    HW115818   8.670  13.196   3.120
71307SOL    HW215819   8.605  13.249   2.994
71308SOL     OW15820  11.608   6.049   9.725
71308SOL    HW115821  11.541   6.085   9.667
71308SOL    HW215822  11.679   6.023   9.667
71309SOL     OW15823  13.668  12.639  12.003
71309SOL    HW115824  13.737  12.654  11.938
71309SOL    HW215825  13.647  12.726  12.036
71310SOL     OW15826   6.247  13.464  12.611
71310SOL    HW115827   6.324  13.431  12.564
71310SOL    HW215828   6.204  13.523  12.549
71311SOL     OW15829   4.784  12.108  13.334
71311SOL    HW115830   4.801  12.201  13.319
71311SOL    HW215831   4.862  12.064  13.302
71312SOL     OW15832   0.304  14.317   7.267
71312SOL    HW115833   0.220  14.353   7.295
71312SOL    HW215834   0.293  14.222   7.272
71313SOL     OW15835  10.068  12.787  11.278
71313SOL    HW115836  10.091  12.805  11.186
71313SOL    HW215837  10.112  12.856  11.327
71314SOL     OW15838   4.894  13.845  13.840
71314SOL    HW115839   4.857  13.905  13.905
71314SOL    HW215840   4.970  13.891  13.806
71315SOL     OW15841   5.165   5.487  11.101
71315SOL    HW115842   5.226   5.551  11.064
71315SOL    HW215843   5.119   5.535  11.170
71316SOL     OW15844   1.650   1.885   6.532
71316SOL    HW115845   1.648   1.923   6.445
71316SOL    HW215846   1.712   1.812   6.526
71317SOL     OW15847   7.604  13.802  14.500
71317SOL    HW115848   7.534  13.868  14.498
71317SOL    HW215849   7.685  13.853  14.503
71318SOL     OW15850   5.607   3.573   3.281
71318SOL    HW115851   5.553   3.507   3.238
71318SOL    HW215852   5.620   3.641   3.215
71319SOL     OW15853  12.823   4.059  14.495
71319SOL    HW115854  12.898   4.003  14.515
71319SOL    HW215855  12.765   4.003  14.442
71320SOL     OW15856  11.413   2.767   9.226
71320SOL    HW115857  11.333   2.766   9.174
71320SOL    HW215858  11.422   2.858   9.254
71321SOL     OW15859   7.921   0.505  13.389
71321SOL    HW115860   7.876   0.426  13.416
71321SOL    HW215861   7.856   0.554  13.339
71322SOL     OW15862  13.340   4.568   5.995
71322SOL    HW115863  13.357   4.619   5.916
71322SOL    HW215864  13.357   4.629   6.067
71323SOL     OW15865   6.203  13.674   9.728
71323SOL    HW115866   6.229  13.767   9.731
71323SOL    HW215867   6.196  13.648   9.819
71324SOL     OW15868   2.745   8.377  10.754
71324SOL    HW115869   2.741   8.470  10.776
71324SOL    HW215870   2.654   8.348  10.753
71325SOL     OW15871   9.881   1.177   7.981
71325SOL    HW115872   9.862   1.245   7.917
71325SOL    HW215873   9.954   1.212   8.032
71326SOL     OW15874   6.931  12.255   7.682
71326SOL    HW115875   7.014  12.207   7.678
71326SOL    HW215876   6.956  12.347   7.687
71327SOL     OW15877   7.587   7.317   6.862
71327SOL    HW115878   7.619   7.301   6.774
71327SOL    HW215879   7.493   7.301   6.858
71328SOL     OW15880   8.802   7.684   0.803
71328SOL    HW115881   8.801   7.765   0.853
71328SOL    HW215882   8.772   7.709   0.716
71329SOL     OW15883   6.402   7.130   2.448
71329SOL    HW115884   6.437   7.068   2.511
71329SOL    HW215885   6.315   7.097   2.426
71330SOL     OW15886   1.617   5.065  13.137
71330SOL    HW115887   1.575   5.148  13.113
71330SOL    HW215888   1.626   5.019  13.054
71331SOL     OW15889  14.441   5.513  14.095
71331SOL    HW115890  14.375   5.514  14.164
71331SOL    HW215891  14.496   5.590  14.112
71332SOL     OW15892   6.313   6.551   3.084
71332SOL    HW115893   6.384   6.489   3.099
71332SOL    HW215894   6.353   6.638   3.094
71333SOL     OW15895   4.126  14.810   3.042
71333SOL    HW115896   4.057  14.859   2.996
71333SOL    HW215897   4.096  14.720   3.042
71334SOL     OW15898   5.552   6.561   0.940
71334SOL    HW115899   5.537   6.589   1.030
71334SOL    HW215900   5.467   6.573   0.897
71335SOL     OW15901  12.440   8.837   7.174
71335SOL    HW115902  12.432   8.853   7.080
71335SOL    HW215903  12.525   8.874   7.199
71336SOL     OW15904   5.031   9.516  11.539
71336SOL    HW115905   4.945   9.498  11.501
71336SOL    HW215906   5.020   9.600  11.583
71337SOL     OW15907   8.718   8.626   3.156
71337SOL    HW115908   8.723   8.699   3.218
71337SOL    HW215909   8.809   8.603   3.138
71338SOL     OW15910  10.634   3.248   0.003
71338SOL    HW115911  10.607   3.173  14.819
71338SOL    HW215912  10.612   3.324  14.819
71339SOL     OW15913   1.057   9.577   6.092
71339SOL    HW115914   1.098   9.659   6.119
71339SOL    HW215915   0.964   9.589   6.111
71340SOL     OW15916   0.483   1.054   7.585
71340SOL    HW115917   0.575   1.033   7.572
71340SOL    HW215918   0.452   1.082   7.499
71341SOL     OW15919   0.483   1.018   0.631
71341SOL    HW115920   0.458   1.107   0.604
71341SOL    HW215921   0.541   0.987   0.560
71342SOL     OW15922   0.375  14.771   2.829
71342SOL    HW115923   0.445  14.714   2.861
71342SOL    HW215924   0.324  14.714   2.770
71343SOL     OW15925   6.177  11.999  14.056
71343SOL    HW115926   6.168  11.926  14.118
71343SOL    HW215927   6.149  11.963  13.972
71344SOL     OW15928   4.917  13.085   6.834
71344SOL    HW115929   5.008  13.059   6.816
71344SOL    HW215930   4.866  13.007   6.811
71345SOL     OW15931   2.897   2.761   3.904
71345SOL    HW115932   2.870   2.726   3.989
71345SOL    HW215933   2.819   2.805   3.870
71346SOL     OW15934   5.246  13.284   1.159
71346SOL    HW115935   5.187  13.305   1.231
71346SOL    HW215936   5.288  13.367   1.137
71347SOL     OW15937   5.337   2.586   2.655
71347SOL    HW115938   5.373   2.674   2.660
71347SOL    HW215939   5.249   2.594   2.694
71348SOL     OW15940  10.240   6.548  14.537
71348SOL    HW115941  10.157   6.520  14.497
71348SOL    HW215942  10.301   6.552  14.463
71349SOL     OW15943  11.928  12.885  12.144
71349SOL    HW115944  11.924  12.981  12.149
71349SOL    HW215945  11.845  12.855  12.182
71350SOL     OW15946   6.990   5.879   4.050
71350SOL    HW115947   6.917   5.890   3.991
71350SOL    HW215948   7.045   5.956   4.037
71351SOL     OW15949   0.911   7.162  13.921
71351SOL    HW115950   0.940   7.092  13.979
71351SOL    HW215951   0.820   7.141  13.901
71352SOL     OW15952   9.950   7.098   7.320
71352SOL    HW115953   9.966   7.192   7.323
71352SOL    HW215954  10.027   7.061   7.278
71353SOL     OW15955   4.506   4.000   5.402
71353SOL    HW115956   4.472   4.080   5.363
71353SOL    HW215957   4.526   4.024   5.493
71354SOL     OW15958   1.465  14.835  12.784
71354SOL    HW115959   1.456  14.825  12.879
71354SOL    HW215960   1.431  14.754  12.747
71355SOL     OW15961   0.990   7.947   0.569
71355SOL    HW115962   1.065   7.996   0.602
71355SOL    HW215963   0.968   7.989   0.486
71356SOL     OW15964  13.001   1.023   1.666
71356SOL    HW115965  12.922   0.971   1.682
71356SOL    HW215966  13.067   0.986   1.725
71357SOL     OW15967   5.749  11.768   6.631
71357SOL    HW115968   5.700  11.708   6.688
71357SOL    HW215969   5.830  11.786   6.678
71358SOL     OW15970  12.123   2.149   6.092
71358SOL    HW115971  12.169   2.104   6.163
71358SOL    HW215972  12.127   2.088   6.018
71359SOL     OW15973   3.024  11.387   6.572
71359SOL    HW115974   3.053  11.379   6.481
71359SOL    HW215975   3.019  11.481   6.587
71360SOL     OW15976  11.670   1.936   7.252
71360SOL    HW115977  11.613   2.004   7.216
71360SOL    HW215978  11.632   1.854   7.221
71361SOL     OW15979  10.098  14.071   2.885
71361SOL    HW115980  10.151  14.124   2.944
71361SOL    HW215981  10.149  13.991   2.873
71362SOL     OW15982   4.139   6.390  14.126
71362SOL    HW115983   4.159   6.363  14.036
71362SOL    HW215984   4.044   6.394  14.129
71363SOL     OW15985   1.586   8.396   5.781
71363SOL    HW115986   1.529   8.344   5.839
71363SOL    HW215987   1.656   8.427   5.838
71364SOL     OW15988  10.421  10.483  10.963
71364SOL    HW115989  10.363  10.544  11.008
71364SOL    HW215990  10.408  10.501  10.870
71365SOL     OW15991   4.478   5.245  11.683
71365SOL    HW115992   4.457   5.338  11.679
71365SOL    HW215993   4.399   5.202  11.649
71366SOL     OW15994   7.225   2.509  10.600
71366SOL    HW115995   7.254   2.499  10.510
71366SOL    HW215996   7.130   2.523  10.593
71367SOL     OW15997  14.678   2.212   4.195
71367SOL    HW115998  14.599   2.184   4.149
71367SOL    HW215999  14.746   2.152   4.163
71368SOL     OW16000   4.643   7.086   9.473
71368SOL    HW116001   4.558   7.131   9.466
71368SOL    HW216002   4.707   7.158   9.474
71369SOL     OW16003   2.231   6.259   4.787
71369SOL    HW116004   2.176   6.337   4.793
71369SOL    HW216005   2.313   6.284   4.828
71370SOL     OW16006   6.277   7.276   4.644
71370SOL    HW116007   6.300   7.368   4.628
71370SOL    HW216008   6.312   7.258   4.731
71371SOL     OW16009   5.601  13.751  13.842
71371SOL    HW116010   5.648  13.730  13.762
71371SOL    HW216011   5.546  13.826  13.819
71372SOL     OW16012   9.923  14.779  11.785
71372SOL    HW116013   9.909  14.824  11.701
71372SOL    HW216014   9.941  14.850  11.847
71373SOL     OW16015   4.422   4.953   8.177
71373SOL    HW116016   4.463   5.039   8.168
71373SOL    HW216017   4.488   4.891   8.146
71374SOL     OW16018  14.624  10.132   6.075
71374SOL    HW116019  14.673  10.214   6.073
71374SOL    HW216020  14.552  10.148   6.136
71375SOL     OW16021   0.592   2.146   9.139
71375SOL    HW116022   0.545   2.125   9.220
71375SOL    HW216023   0.657   2.077   9.130
71376SOL     OW16024  13.064   2.773  14.762
71376SOL    HW116025  13.079   2.680  14.743
71376SOL    HW216026  13.098   2.785  14.850
71377SOL     OW16027  11.186   0.194  12.905
71377SOL    HW116028  11.218   0.164  12.820
71377SOL    HW216029  11.107   0.245  12.885
71378SOL     OW16030  14.849   2.857   7.910
71378SOL    HW116031  14.778   2.918   7.890
71378SOL    HW216032   0.059   2.906   7.890
71379SOL     OW16033   3.619   5.711   3.182
71379SOL    HW116034   3.676   5.764   3.238
71379SOL    HW216035   3.645   5.733   3.093
71380SOL     OW16036  12.658  10.257   5.153
71380SOL    HW116037  12.727  10.270   5.219
71380SOL    HW216038  12.681  10.174   5.111
71381SOL     OW16039  12.173  14.169  13.656
71381SOL    HW116040  12.079  14.165  13.670
71381SOL    HW216041  12.187  14.128  13.571
71382SOL     OW16042   5.652   0.613  14.271
71382SOL    HW116043   5.722   0.672  14.300
71382SOL    HW216044   5.609   0.585  14.351
71383SOL     OW16045  13.244  13.786   9.847
71383SOL    HW116046  13.279  13.743   9.926
71383SOL    HW216047  13.298  13.865   9.837
71384SOL     OW16048  13.215  14.523   7.518
71384SOL    HW116049  13.137  14.513   7.464
71384SOL    HW216050  13.264  14.442   7.506
71385SOL     OW16051  12.663   3.791  12.017
71385SOL    HW116052  12.603   3.824  11.950
71385SOL    HW216053  12.667   3.862  12.081
71386SOL     OW16054   7.899   4.648   8.392
71386SOL    HW116055   7.813   4.685   8.371
71386SOL    HW216056   7.952   4.724   8.418
71387SOL     OW16057   2.172  12.405   2.964
71387SOL    HW116058   2.118  12.416   3.042
71387SOL    HW216059   2.170  12.311   2.947
71388SOL     OW16060   8.662   9.667   0.099
71388SOL    HW116061   8.676   9.704   0.012
71388SOL    HW216062   8.599   9.726   0.141
71389SOL     OW16063   9.170  12.170   5.218
71389SOL    HW116064   9.209  12.161   5.304
71389SOL    HW216065   9.178  12.084   5.178
71390SOL     OW16066  13.343   6.215   5.336
71390SOL    HW116067  13.295   6.296   5.317
71390SOL    HW216068  13.275   6.154   5.367
71391SOL     OW16069  14.069   2.323  12.888
71391SOL    HW116070  14.085   2.280  12.804
71391SOL    HW216071  14.156   2.329  12.928
71392SOL     OW16072   2.723   0.544  10.857
71392SOL    HW116073   2.746   0.513  10.944
71392SOL    HW216074   2.803   0.585  10.824
71393SOL     OW16075  11.860   5.353   3.067
71393SOL    HW116076  11.946   5.393   3.054
71393SOL    HW216077  11.858   5.281   3.005
71394SOL     OW16078   2.736  10.539  10.576
71394SOL    HW116079   2.771  10.609  10.631
71394SOL    HW216080   2.807  10.516  10.516
71395SOL     OW16081  12.259   6.851   8.476
71395SOL    HW116082  12.197   6.884   8.411
71395SOL    HW216083  12.305   6.780   8.432
71396SOL     OW16084   8.653  11.693  11.388
71396SOL    HW116085   8.619  11.779  11.364
71396SOL    HW216086   8.662  11.697  11.484
71397SOL     OW16087  12.576  11.760   3.714
71397SOL    HW116088  12.609  11.710   3.639
71397SOL    HW216089  12.491  11.794   3.685
71398SOL     OW16090   4.441   8.263   8.801
71398SOL    HW116091   4.398   8.348   8.789
71398SOL    HW216092   4.476   8.266   8.890
71399SOL     OW16093   9.349   2.877  14.650
71399SOL    HW116094   9.306   2.836  14.725
71399SOL    HW216095   9.291   2.950  14.626
71400SOL     OW16096   1.256   5.893   3.476
71400SOL    HW116097   1.341   5.890   3.434
71400SOL    HW216098   1.229   5.984   3.470
71401SOL     OW16099   0.115  13.289   6.642
71401SOL    HW116100   0.104  13.374   6.685
71401SOL    HW216101   0.144  13.310   6.553
71402SOL     OW16102   4.090   4.907   3.493
71402SOL    HW116103   4.010   4.856   3.501
71402SOL    HW216104   4.097   4.927   3.400
71403SOL     OW16105   4.713  12.746   5.475
71403SOL    HW116106   4.683  12.685   5.408
71403SOL    HW216107   4.671  12.829   5.452
71404SOL     OW16108   9.058   7.821   6.006
71404SOL    HW116109   8.963   7.803   6.006
71404SOL    HW216110   9.070   7.885   6.076
71405SOL     OW16111   1.394   9.469   5.386
71405SOL    HW116112   1.403   9.500   5.476
71405SOL    HW216113   1.331   9.529   5.346
71406SOL     OW16114   7.298   8.970   3.067
71406SOL    HW116115   7.309   8.878   3.091
71406SOL    HW216116   7.311   8.972   2.972
71407SOL     OW16117   7.596   4.762   5.057
71407SOL    HW116118   7.506   4.755   5.025
71407SOL    HW216119   7.635   4.832   5.005
71408SOL     OW16120  13.818   8.647  13.458
71408SOL    HW116121  13.766   8.679  13.531
71408SOL    HW216122  13.895   8.703  13.457
71409SOL     OW16123  12.848  11.076   7.024
71409SOL    HW116124  12.905  11.153   7.028
71409SOL    HW216125  12.901  11.011   6.978
71410SOL     OW16126   2.125  13.534   5.745
71410SOL    HW116127   2.142  13.582   5.827
71410SOL    HW216128   2.037  13.500   5.755
71411SOL     OW16129   9.799   4.497  13.444
71411SOL    HW116130   9.756   4.559  13.385
71411SOL    HW216131   9.762   4.517  13.530
71412SOL     OW16132  10.852  14.313   5.599
71412SOL    HW116133  10.835  14.298   5.692
71412SOL    HW216134  10.921  14.379   5.597
71413SOL     OW16135  13.511   2.403   2.717
71413SOL    HW116136  13.429   2.442   2.748
71413SOL    HW216137  13.564   2.478   2.689
71414SOL     OW16138  10.634   9.189  11.075
71414SOL    HW116139  10.677   9.253  11.019
71414SOL    HW216140  10.672   9.105  11.049
71415SOL     OW16141  14.412   7.396   9.745
71415SOL    HW116142  14.409   7.410   9.839
71415SOL    HW216143  14.320   7.394   9.717
71416SOL     OW16144   8.340  14.854   9.908
71416SOL    HW116145   8.265   0.035   9.938
71416SOL    HW216146   8.392   0.046   9.857
71417SOL     OW16147  11.987  13.418  10.047
71417SOL    HW116148  11.989  13.370  10.130
71417SOL    HW216149  12.074  13.407  10.010
71418SOL     OW16150   9.682   3.643   1.568
71418SOL    HW116151   9.613   3.708   1.555
71418SOL    HW216152   9.732   3.676   1.643
71419SOL     OW16153   9.441   8.457   1.818
71419SOL    HW116154   9.388   8.428   1.893
71419SOL    HW216155   9.397   8.537   1.788
71420SOL     OW16156   9.780   7.596  12.348
71420SOL    HW116157   9.848   7.563  12.408
71420SOL    HW216158   9.827   7.619  12.268
71421SOL     OW16159   4.415  10.910   9.365
71421SOL    HW116160   4.509  10.918   9.347
71421SOL    HW216161   4.411  10.853   9.442
71422SOL     OW16162  10.330  14.692   3.353
71422SOL    HW116163  10.267  14.626   3.325
71422SOL    HW216164  10.288  14.737   3.426
71423SOL     OW16165   8.608   7.913   2.426
71423SOL    HW116166   8.595   7.818   2.420
71423SOL    HW216167   8.529   7.946   2.469
71424SOL     OW16168   0.332   4.459  12.043
71424SOL    HW116169   0.315   4.399  12.115
71424SOL    HW216170   0.292   4.418  11.967
71425SOL     OW16171  14.351   9.401  14.260
71425SOL    HW116172  14.266   9.444  14.269
71425SOL    HW216173  14.374   9.372  14.348
71426SOL     OW16174  10.629   1.921  14.783
71426SOL    HW116175  10.549   1.973  14.796
71426SOL    HW216176  10.624   1.892  14.692
71427SOL     OW16177   4.892   9.185   3.575
71427SOL    HW116178   4.847   9.255   3.528
71427SOL    HW216179   4.850   9.183   3.661
71428SOL     OW16180  13.725   0.472   5.237
71428SOL    HW116181  13.691   0.393   5.195
71428SOL    HW216182  13.820   0.463   5.232
71429SOL     OW16183   3.672   0.136   5.145
71429SOL    HW116184   3.715   0.055   5.172
71429SOL    HW216185   3.695   0.200   5.212
71430SOL     OW16186   9.199   7.823   1.541
71430SOL    HW116187   9.155   7.783   1.467
71430SOL    HW216188   9.199   7.917   1.521
71431SOL     OW16189   5.015   2.493  11.004
71431SOL    HW116190   5.090   2.436  10.991
71431SOL    HW216191   4.941   2.434  11.015
71432SOL     OW16192   4.875   4.567  10.234
71432SOL    HW116193   4.930   4.618  10.294
71432SOL    HW216194   4.917   4.578  10.149
71433SOL     OW16195   0.550   8.547  11.381
71433SOL    HW116196   0.542   8.633  11.340
71433SOL    HW216197   0.536   8.564  11.474
71434SOL     OW16198   1.915  11.538   7.528
71434SOL    HW116199   1.960  11.475   7.472
71434SOL    HW216200   1.885  11.487   7.603
71435SOL     OW16201   3.263   3.663  10.674
71435SOL    HW116202   3.216   3.738  10.709
71435SOL    HW216203   3.337   3.701  10.627
71436SOL     OW16204   9.896   3.705   7.614
71436SOL    HW116205   9.874   3.656   7.535
71436SOL    HW216206   9.819   3.697   7.670
71437SOL     OW16207   8.989   5.104   9.459
71437SOL    HW116208   8.956   5.194   9.453
71437SOL    HW216209   8.924   5.052   9.413
71438SOL     OW16210   0.931   3.821   6.321
71438SOL    HW116211   0.945   3.727   6.334
71438SOL    HW216212   0.859   3.842   6.381
71439SOL     OW16213  12.105  12.395   2.401
71439SOL    HW116214  12.042  12.336   2.443
71439SOL    HW216215  12.155  12.432   2.474
71440SOL     OW16216   8.458   4.892  14.542
71440SOL    HW116217   8.536   4.840  14.559
71440SOL    HW216218   8.410   4.891  14.625
71441SOL     OW16219   8.991   3.388  10.766
71441SOL    HW116220   8.901   3.417  10.780
71441SOL    HW216221   9.024   3.369  10.854
71442SOL     OW16222  13.389  11.811   5.182
71442SOL    HW116223  13.453  11.857   5.236
71442SOL    HW216224  13.306  11.822   5.228
71443SOL     OW16225  11.475  11.068   7.484
71443SOL    HW116226  11.447  11.058   7.575
71443SOL    HW216227  11.550  11.128   7.488
71444SOL     OW16228   7.405   9.299  14.115
71444SOL    HW116229   7.311   9.291  14.125
71444SOL    HW216230   7.418   9.334  14.027
71445SOL     OW16231   0.627   4.450   5.277
71445SOL    HW116232   0.634   4.354   5.280
71445SOL    HW216233   0.668   4.480   5.357
71446SOL     OW16234   6.579   3.023  10.029
71446SOL    HW116235   6.562   3.090  10.096
71446SOL    HW216236   6.643   2.965  10.070
71447SOL     OW16237  14.665  10.729   8.744
71447SOL    HW116238  14.575  10.761   8.750
71447SOL    HW216239  14.701  10.771   8.667
71448SOL     OW16240   0.589   6.201   0.505
71448SOL    HW116241   0.677   6.230   0.479
71448SOL    HW216242   0.576   6.239   0.592
71449SOL     OW16243   4.170   6.924   5.465
71449SOL    HW116244   4.103   6.974   5.419
71449SOL    HW216245   4.229   6.893   5.396
71450SOL     OW16246  12.123  10.313   8.966
71450SOL    HW116247  12.071  10.369   8.907
71450SOL    HW216248  12.213  10.342   8.953
71451SOL     OW16249   9.094   5.461   0.791
71451SOL    HW116250   9.105   5.366   0.780
71451SOL    HW216251   9.102   5.475   0.885
71452SOL     OW16252   7.999   7.687  14.650
71452SOL    HW116253   7.980   7.602  14.611
71452SOL    HW216254   8.058   7.729  14.587
71453SOL     OW16255   8.656  13.707   2.016
71453SOL    HW116256   8.593  13.636   2.022
71453SOL    HW216257   8.672  13.733   2.107
71454SOL     OW16258   6.502  13.024   1.004
71454SOL    HW116259   6.554  12.953   0.965
71454SOL    HW216260   6.458  12.983   1.079
71455SOL     OW16261   5.862   2.943  10.828
71455SOL    HW116262   5.892   2.971  10.915
71455SOL    HW216263   5.829   3.024  10.788
71456SOL     OW16264   8.679  14.570   8.679
71456SOL    HW116265   8.746  14.509   8.647
71456SOL    HW216266   8.725  14.624   8.744
71457SOL     OW16267   4.398   8.224   6.842
71457SOL    HW116268   4.415   8.135   6.812
71457SOL    HW216269   4.483   8.268   6.835
71458SOL     OW16270  13.180  14.503   3.183
71458SOL    HW116271  13.222  14.572   3.132
71458SOL    HW216272  13.198  14.422   3.135
71459SOL     OW16273   3.821  13.900   8.881
71459SOL    HW116274   3.780  13.896   8.968
71459SOL    HW216275   3.763  13.957   8.831
71460SOL     OW16276   6.341  10.014   4.371
71460SOL    HW116277   6.306  10.050   4.452
71460SOL    HW216278   6.286  10.052   4.302
71461SOL     OW16279   3.620   9.095   6.404
71461SOL    HW116280   3.586   9.037   6.472
71461SOL    HW216281   3.568   9.175   6.413
71462SOL     OW16282   4.054   7.679   4.266
71462SOL    HW116283   4.008   7.665   4.184
71462SOL    HW216284   4.023   7.764   4.297
71463SOL     OW16285  11.259   6.593   4.796
71463SOL    HW116286  11.282   6.506   4.826
71463SOL    HW216287  11.276   6.650   4.872
71464SOL     OW16288   8.875  12.216  11.265
71464SOL    HW116289   8.914  12.288  11.316
71464SOL    HW216290   8.909  12.137  11.306
71465SOL     OW16291   4.677   9.523  14.074
71465SOL    HW116292   4.687   9.617  14.087
71465SOL    HW216293   4.760   9.496  14.035
71466SOL     OW16294  11.742  10.066   8.243
71466SOL    HW116295  11.666  10.124   8.244
71466SOL    HW216296  11.707   9.982   8.210
71467SOL     OW16297  12.482  11.952   0.919
71467SOL    HW116298  12.575  11.947   0.897
71467SOL    HW216299  12.438  11.959   0.834
71468SOL     OW16300  14.206   3.086  14.833
71468SOL    HW116301  14.200   3.168  14.784
71468SOL    HW216302  14.258   3.109   0.040
71469SOL     OW16303   4.512   0.677   8.470
71469SOL    HW116304   4.474   0.764   8.480
71469SOL    HW216305   4.516   0.642   8.558
71470SOL     OW16306   2.602  14.575  12.008
71470SOL    HW116307   2.670  14.639  11.989
71470SOL    HW216308   2.641  14.515  12.072
71471SOL     OW16309   0.946   1.056   1.242
71471SOL    HW116310   0.868   1.060   1.298
71471SOL    HW216311   0.940   1.135   1.188
71472SOL     OW16312  13.838   3.428   2.788
71472SOL    HW116313  13.860   3.379   2.867
71472SOL    HW216314  13.890   3.388   2.719
71473SOL     OW16315   6.127  14.651  10.443
71473SOL    HW116316   6.221  14.662  10.456
71473SOL    HW216317   6.120  14.572  10.388
71474SOL     OW16318   2.202   6.198   5.480
71474SOL    HW116319   2.146   6.155   5.544
71474SOL    HW216320   2.276   6.138   5.469
71475SOL     OW16321   4.455  10.257  11.101
71475SOL    HW116322   4.451  10.201  11.023
71475SOL    HW216323   4.464  10.195  11.174
71476SOL     OW16324   6.081   1.503   7.225
71476SOL    HW116325   6.138   1.462   7.290
71476SOL    HW216326   5.992   1.494   7.261
71477SOL     OW16327   9.621   3.913   9.388
71477SOL    HW116328   9.699   3.962   9.415
71477SOL    HW216329   9.649   3.863   9.311
71478SOL     OW16330  13.774   0.706  12.098
71478SOL    HW116331  13.753   0.688  12.006
71478SOL    HW216332  13.730   0.789  12.117
71479SOL     OW16333   3.630   7.616  12.951
71479SOL    HW116334   3.602   7.703  12.922
71479SOL    HW216335   3.721   7.629  12.978
71480SOL     OW16336   8.296  12.458  13.706
71480SOL    HW116337   8.335  12.482  13.622
71480SOL    HW216338   8.370  12.450  13.766
71481SOL     OW16339   4.003  10.815   5.608
71481SOL    HW116340   3.908  10.826   5.603
71481SOL    HW216341   4.023  10.827   5.701
71482SOL     OW16342   3.451   8.812   3.459
71482SOL    HW116343   3.372   8.805   3.513
71482SOL    HW216344   3.523   8.800   3.521
71483SOL     OW16345   2.661   4.995  14.060
71483SOL    HW116346   2.619   5.000  14.145
71483SOL    HW216347   2.589   4.996  13.997
71484SOL     OW16348   0.886   4.134  11.239
71484SOL    HW116349   0.950   4.067  11.214
71484SOL    HW216350   0.809   4.115  11.186
71485SOL     OW16351   3.342   8.844   8.375
71485SOL    HW116352   3.252   8.818   8.396
71485SOL    HW216353   3.395   8.768   8.398
71486SOL     OW16354  14.420   2.485  10.250
71486SOL    HW116355  14.406   2.568  10.206
71486SOL    HW216356  14.347   2.478  10.312
71487SOL     OW16357   7.845   4.630  12.298
71487SOL    HW116358   7.840   4.572  12.375
71487SOL    HW216359   7.938   4.648  12.287
71488SOL     OW16360   9.159  11.539   9.750
71488SOL    HW116361   9.064  11.535   9.748
71488SOL    HW216362   9.185  11.555   9.659
71489SOL     OW16363   5.370   5.998   6.757
71489SOL    HW116364   5.423   5.960   6.828
71489SOL    HW216365   5.330   6.075   6.797
71490SOL     OW16366   2.146  11.363   3.155
71490SOL    HW116367   2.191  11.347   3.073
71490SOL    HW216368   2.056  11.333   3.140
71491SOL     OW16369   0.300  11.387   5.821
71491SOL    HW116370   0.288  11.388   5.916
71491SOL    HW216371   0.352  11.308   5.804
71492SOL     OW16372  10.899  14.829   6.439
71492SOL    HW116373  10.932  14.744   6.469
71492SOL    HW216374  10.953  14.849   6.362
71493SOL     OW16375   7.013   3.954   9.107
71493SOL    HW116376   7.004   4.048   9.123
71493SOL    HW216377   6.935   3.931   9.056
71494SOL     OW16378   1.539   0.484  10.635
71494SOL    HW116379   1.551   0.577  10.655
71494SOL    HW216380   1.621   0.443  10.662
71495SOL     OW16381   4.843   6.233   1.527
71495SOL    HW116382   4.813   6.146   1.502
71495SOL    HW216383   4.873   6.222   1.617
71496SOL     OW16384   8.753  12.722   1.072
71496SOL    HW116385   8.660  12.706   1.091
71496SOL    HW216386   8.753  12.764   0.986
71497SOL     OW16387   4.180   2.535   2.735
71497SOL    HW116388   4.103   2.561   2.786
71497SOL    HW216389   4.144   2.509   2.650
71498SOL     OW16390   5.989  14.769   7.302
71498SOL    HW116391   5.954  14.833   7.241
71498SOL    HW216392   5.932  14.776   7.379
71499SOL     OW16393   5.618   0.575  13.512
71499SOL    HW116394   5.636   0.565  13.605
71499SOL    HW216395   5.649   0.493  13.473
71500SOL     OW16396  14.219   1.774   8.944
71500SOL    HW116397  14.192   1.802   8.856
71500SOL    HW216398  14.307   1.739   8.931
71501SOL     OW16399  12.383   8.156   9.220
71501SOL    HW116400  12.425   8.240   9.237
71501SOL    HW216401  12.449   8.091   9.244
71502SOL     OW16402   2.880   5.769   7.668
71502SOL    HW116403   2.826   5.824   7.613
71502SOL    HW216404   2.842   5.681   7.660
71503SOL     OW16405   5.670   1.119   8.493
71503SOL    HW116406   5.589   1.163   8.521
71503SOL    HW216407   5.715   1.185   8.439
71504SOL     OW16408   8.055   7.830  11.815
71504SOL    HW116409   8.142   7.867  11.800
71504SOL    HW216410   8.011   7.838  11.730
71505SOL     OW16411   0.350  12.513   1.434
71505SOL    HW116412   0.335  12.519   1.528
71505SOL    HW216413   0.410  12.439   1.424
71506SOL     OW16414   9.005  13.403   1.847
71506SOL    HW116415   9.098  13.378   1.845
71506SOL    HW216416   8.961  13.336   1.795
71507SOL     OW16417  11.275   4.461   6.857
71507SOL    HW116418  11.303   4.458   6.766
71507SOL    HW216419  11.183   4.485   6.854
71508SOL     OW16420   8.048  11.255  10.922
71508SOL    HW116421   8.066  11.232  10.831
71508SOL    HW216422   8.135  11.265  10.962
71509SOL     OW16423   6.441   6.188  11.974
71509SOL    HW116424   6.520   6.241  11.961
71509SOL    HW216425   6.413   6.165  11.885
71510SOL     OW16426   7.536   8.753   1.741
71510SOL    HW116427   7.597   8.813   1.785
71510SOL    HW216428   7.505   8.695   1.810
71511SOL     OW16429   8.494   6.045  10.965
71511SOL    HW116430   8.580   6.045  10.923
71511SOL    HW216431   8.434   6.015  10.897
71512SOL     OW16432   3.532  14.656   9.072
71512SOL    HW116433   3.485  14.698   9.000
71512SOL    HW216434   3.525  14.719   9.144
71513SOL     OW16435  11.007  11.851   8.606
71513SOL    HW116436  11.074  11.815   8.664
71513SOL    HW216437  10.947  11.897   8.665
71514SOL     OW16438  13.443   4.156  14.668
71514SOL    HW116439  13.506   4.151  14.596
71514SOL    HW216440  13.437   4.066  14.701
71515SOL     OW16441  14.630  13.699   4.637
71515SOL    HW116442  14.675  13.776   4.601
71515SOL    HW216443  14.660  13.626   4.584
71516SOL     OW16444   1.651  10.849   5.171
71516SOL    HW116445   1.632  10.785   5.240
71516SOL    HW216446   1.733  10.818   5.132
71517SOL     OW16447  14.359   0.031  14.264
71517SOL    HW116448  14.338  14.851  14.185
71517SOL    HW216449  14.304   0.109  14.259
71518SOL     OW16450   9.196  14.060   8.873
71518SOL    HW116451   9.162  14.149   8.876
71518SOL    HW216452   9.121  14.005   8.898
71519SOL     OW16453  13.526  14.463  14.492
71519SOL    HW116454  13.556  14.394  14.432
71519SOL    HW216455  13.440  14.487  14.458
71520SOL     OW16456   8.080  14.640  14.109
71520SOL    HW116457   8.078  14.544  14.104
71520SOL    HW216458   8.066  14.660  14.201
71521SOL     OW16459   0.624  14.055   1.774
71521SOL    HW116460   0.564  14.042   1.848
71521SOL    HW216461   0.667  13.970   1.763
71522SOL     OW16462   5.471  13.975   5.619
71522SOL    HW116463   5.470  13.972   5.523
71522SOL    HW216464   5.385  13.941   5.645
71523SOL     OW16465   5.807   8.449  12.126
71523SOL    HW116466   5.748   8.475  12.197
71523SOL    HW216467   5.811   8.526  12.069
71524SOL     OW16468   0.270   6.792  12.837
71524SOL    HW116469   0.255   6.811  12.744
71524SOL    HW216470   0.236   6.868  12.883
71525SOL     OW16471  11.543   5.730  13.612
71525SOL    HW116472  11.519   5.778  13.532
71525SOL    HW216473  11.595   5.793  13.662
71526SOL     OW16474   9.633   9.609  12.131
71526SOL    HW116475   9.663   9.546  12.066
71526SOL    HW216476   9.703   9.674  12.137
71527SOL     OW16477   4.724   1.867  14.551
71527SOL    HW116478   4.698   1.812  14.624
71527SOL    HW216479   4.820   1.858  14.547
71528SOL     OW16480  14.331   4.660  13.539
71528SOL    HW116481  14.393   4.631  13.472
71528SOL    HW216482  14.381   4.661  13.620
71529SOL     OW16483   4.800   8.465  12.771
71529SOL    HW116484   4.831   8.445  12.682
71529SOL    HW216485   4.840   8.549  12.791
71530SOL     OW16486   8.218   9.719  10.621
71530SOL    HW116487   8.126   9.733  10.595
71530SOL    HW216488   8.268   9.774  10.561
71531SOL     OW16489  11.607  14.160   9.848
71531SOL    HW116490  11.616  14.101   9.773
71531SOL    HW216491  11.523  14.136   9.887
71532SOL     OW16492   3.948   7.720  13.686
71532SOL    HW116493   3.898   7.660  13.742
71532SOL    HW216494   3.954   7.800  13.738
71533SOL     OW16495  14.811  12.976   4.258
71533SOL    HW116496  14.760  13.044   4.302
71533SOL    HW216497  14.850  12.925   4.329
71534SOL     OW16498  14.440  14.683   0.382
71534SOL    HW116499  14.452  14.590   0.364
71534SOL    HW216500  14.426  14.723   0.297
71535SOL     OW16501  11.547  13.514   5.041
71535SOL    HW116502  11.606  13.590   5.046
71535SOL    HW216503  11.606  13.440   5.029
71536SOL     OW16504   6.739   1.369  10.868
71536SOL    HW116505   6.749   1.355  10.774
71536SOL    HW216506   6.812   1.425  10.892
71537SOL     OW16507   4.810   1.973   8.164
71537SOL    HW116508   4.886   1.971   8.107
71537SOL    HW216509   4.788   2.066   8.173
71538SOL     OW16510   0.350   2.004   0.096
71538SOL    HW116511   0.329   1.923   0.143
71538SOL    HW216512   0.444   2.014   0.107
71539SOL     OW16513   1.125   6.523   2.821
71539SOL    HW116514   1.200   6.580   2.804
71539SOL    HW216515   1.054   6.583   2.843
71540SOL     OW16516   7.238  13.125  12.959
71540SOL    HW116517   7.281  13.200  12.998
71540SOL    HW216518   7.144  13.146  12.962
71541SOL     OW16519  13.926  11.930   3.056
71541SOL    HW116520  13.944  12.007   3.001
71541SOL    HW216521  13.958  11.955   3.143
71542SOL     OW16522  10.104   4.616   0.898
71542SOL    HW116523  10.092   4.541   0.955
71542SOL    HW216524  10.022   4.665   0.905
71543SOL     OW16525   8.185  10.003   8.180
71543SOL    HW116526   8.201   9.941   8.109
71543SOL    HW216527   8.089  10.011   8.183
71544SOL     OW16528   0.169   8.465  10.820
71544SOL    HW116529   0.086   8.512  10.817
71544SOL    HW216530   0.177   8.435  10.911
71545SOL     OW16531   5.558  10.552   7.880
71545SOL    HW116532   5.495  10.621   7.902
71545SOL    HW216533   5.511  10.495   7.819
71546SOL     OW16534   4.496   8.463   4.713
71546SOL    HW116535   4.435   8.494   4.646
71546SOL    HW216536   4.575   8.515   4.699
71547SOL     OW16537  10.536   7.094  13.105
71547SOL    HW116538  10.631   7.094  13.118
71547SOL    HW216539  10.501   7.141  13.181
71548SOL     OW16540   7.863   6.487   1.930
71548SOL    HW116541   7.818   6.567   1.958
71548SOL    HW216542   7.826   6.418   1.985
71549SOL     OW16543  14.860   5.025   6.801
71549SOL    HW116544  14.856   4.930   6.816
71549SOL    HW216545   0.024   5.034   6.712
71550SOL     OW16546   4.937   7.903   8.992
71550SOL    HW116547   5.023   7.864   8.976
71550SOL    HW216548   4.875   7.832   8.973
71551SOL     OW16549   6.443   4.261   3.789
71551SOL    HW116550   6.383   4.313   3.843
71551SOL    HW216551   6.504   4.222   3.851
71552SOL     OW16552   3.764  10.648  12.904
71552SOL    HW116553   3.782  10.618  12.993
71552SOL    HW216554   3.850  10.668  12.867
71553SOL     OW16555  14.121   6.209  11.253
71553SOL    HW116556  14.048   6.149  11.265
71553SOL    HW216557  14.197   6.153  11.239
71554SOL     OW16558   1.336   5.619  10.006
71554SOL    HW116559   1.377   5.705   9.995
71554SOL    HW216560   1.337   5.580   9.919
71555SOL     OW16561  10.189  13.403   9.167
71555SOL    HW116562  10.199  13.487   9.212
71555SOL    HW216563  10.217  13.338   9.232
71556SOL     OW16564   0.054   1.576   3.236
71556SOL    HW116565   0.047   1.628   3.156
71556SOL    HW216566   0.134   1.525   3.224
71557SOL     OW16567   3.921   9.299   3.477
71557SOL    HW116568   3.926   9.214   3.520
71557SOL    HW216569   3.921   9.278   3.384
71558SOL     OW16570   8.864   7.938  11.884
71558SOL    HW116571   8.939   7.997  11.872
71558SOL    HW216572   8.879   7.867  11.822
71559SOL     OW16573   5.109   1.779   3.643
71559SOL    HW116574   5.129   1.737   3.559
71559SOL    HW216575   5.145   1.867   3.634
71560SOL     OW16576   8.584   0.393   6.086
71560SOL    HW116577   8.633   0.370   6.165
71560SOL    HW216578   8.620   0.335   6.018
71561SOL     OW16579  11.164  10.089   5.458
71561SOL    HW116580  11.216  10.009   5.462
71561SOL    HW216581  11.133  10.102   5.548
71562SOL     OW16582  14.778   9.245   1.794
71562SOL    HW116583  14.823   9.270   1.713
71562SOL    HW216584  14.701   9.197   1.764
71563SOL     OW16585  14.416   7.255   0.617
71563SOL    HW116586  14.412   7.176   0.670
71563SOL    HW216587  14.467   7.230   0.540
71564SOL     OW16588   5.892   7.728  13.384
71564SOL    HW116589   5.883   7.701  13.292
71564SOL    HW216590   5.975   7.690  13.412
71565SOL     OW16591  11.560   8.906  12.994
71565SOL    HW116592  11.618   8.840  12.958
71565SOL    HW216593  11.569   8.898  13.089
71566SOL     OW16594   9.089   5.110   6.914
71566SOL    HW116595   9.055   5.059   6.988
71566SOL    HW216596   9.152   5.052   6.873
71567SOL     OW16597   3.025  10.021   1.430
71567SOL    HW116598   3.065  10.107   1.443
71567SOL    HW216599   2.934  10.032   1.458
71568SOL     OW16600   5.228   9.358  13.138
71568SOL    HW116601   5.201   9.432  13.193
71568SOL    HW216602   5.259   9.292  13.201
71569SOL     OW16603  11.419  13.678   7.612
71569SOL    HW116604  11.371  13.632   7.544
71569SOL    HW216605  11.429  13.767   7.579
71570SOL     OW16606   7.261   9.012  12.703
71570SOL    HW116607   7.272   9.074  12.630
71570SOL    HW216608   7.244   8.928  12.660
71571SOL     OW16609   1.741   5.443   2.639
71571SOL    HW116610   1.725   5.462   2.732
71571SOL    HW216611   1.722   5.350   2.630
71572SOL     OW16612   7.541  13.109  11.399
71572SOL    HW116613   7.520  13.105  11.492
71572SOL    HW216614   7.567  13.020  11.376
71573SOL     OW16615   4.396   1.132   1.341
71573SOL    HW116616   4.470   1.192   1.337
71573SOL    HW216617   4.324   1.177   1.296
71574SOL     OW16618   7.944   6.400   5.911
71574SOL    HW116619   7.954   6.394   5.816
71574SOL    HW216620   8.019   6.352   5.946
71575SOL     OW16621   3.410  13.265   6.024
71575SOL    HW116622   3.355  13.195   6.057
71575SOL    HW216623   3.421  13.246   5.931
71576SOL     OW16624  10.237   8.629  13.704
71576SOL    HW116625  10.150   8.623  13.664
71576SOL    HW216626  10.252   8.542  13.741
71577SOL     OW16627   7.591  14.452   4.562
71577SOL    HW116628   7.579  14.418   4.651
71577SOL    HW216629   7.508  14.431   4.518
71578SOL     OW16630   2.065   3.320  11.936
71578SOL    HW116631   2.036   3.292  11.849
71578SOL    HW216632   2.100   3.408  11.923
71579SOL     OW16633   6.240  11.487   9.373
71579SOL    HW116634   6.297  11.515   9.445
71579SOL    HW216635   6.295  11.427   9.322
71580SOL     OW16636  13.084   9.760  12.618
71580SOL    HW116637  13.031   9.839  12.623
71580SOL    HW216638  13.046   9.710  12.546
71581SOL     OW16639  10.639   3.738   3.212
71581SOL    HW116640  10.557   3.784   3.229
71581SOL    HW216641  10.697   3.805   3.175
71582SOL     OW16642   3.060   1.855   9.578
71582SOL    HW116643   3.089   1.937   9.620
71582SOL    HW216644   2.965   1.856   9.589
71583SOL     OW16645   6.511   9.791  13.009
71583SOL    HW116646   6.555   9.772  12.926
71583SOL    HW216647   6.504   9.707  13.053
71584SOL     OW16648   3.002   6.004   0.313
71584SOL    HW116649   2.963   6.075   0.262
71584SOL    HW216650   3.078   6.043   0.356
71585SOL     OW16651  13.077  10.096   9.344
71585SOL    HW116652  13.020  10.168   9.370
71585SOL    HW216653  13.163  10.136   9.331
71586SOL     OW16654   7.854   6.406  11.396
71586SOL    HW116655   7.838   6.448  11.480
71586SOL    HW216656   7.911   6.467  11.349
71587SOL     OW16657  10.704   8.828  10.098
71587SOL    HW116658  10.631   8.772  10.069
71587SOL    HW216659  10.687   8.912  10.056
71588SOL     OW16660   2.524   2.672   2.677
71588SOL    HW116661   2.584   2.746   2.688
71588SOL    HW216662   2.451   2.708   2.627
71589SOL     OW16663  14.052  10.394   1.998
71589SOL    HW116664  14.104  10.457   1.947
71589SOL    HW216665  14.023  10.444   2.075
71590SOL     OW16666   7.670  14.075   9.769
71590SOL    HW116667   7.745  14.130   9.792
71590SOL    HW216668   7.669  14.006   9.836
71591SOL     OW16669   8.927   2.360  13.308
71591SOL    HW116670   8.911   2.270  13.280
71591SOL    HW216671   8.925   2.411  13.228
71592SOL     OW16672   4.551   3.231   0.164
71592SOL    HW116673   4.613   3.208   0.233
71592SOL    HW216674   4.516   3.148   0.134
71593SOL     OW16675   1.162   7.111  10.970
71593SOL    HW116676   1.101   7.122  11.044
71593SOL    HW216677   1.112   7.138  10.894
71594SOL     OW16678   8.803  10.996   6.814
71594SOL    HW116679   8.802  10.931   6.744
71594SOL    HW216680   8.804  11.080   6.768
71595SOL     OW16681  14.515   0.726  12.431
71595SOL    HW116682  14.534   0.677  12.351
71595SOL    HW216683  14.547   0.669  12.501
71596SOL     OW16684   7.348   3.494   7.716
71596SOL    HW116685   7.310   3.512   7.802
71596SOL    HW216686   7.401   3.571   7.696
71597SOL     OW16687   3.747   3.229   2.836
71597SOL    HW116688   3.698   3.204   2.758
71597SOL    HW216689   3.813   3.291   2.805
71598SOL     OW16690   4.648   3.032   6.068
71598SOL    HW116691   4.730   3.055   6.025
71598SOL    HW216692   4.674   2.986   6.147
71599SOL     OW16693  12.356  11.246  14.098
71599SOL    HW116694  12.305  11.288  14.167
71599SOL    HW216695  12.293  11.193  14.051
71600SOL     OW16696   7.502  14.331  12.465
71600SOL    HW116697   7.594  14.312  12.449
71600SOL    HW216698   7.470  14.368  12.383
71601SOL     OW16699   3.180   7.500  10.418
71601SOL    HW116700   3.266   7.467  10.446
71601SOL    HW216701   3.149   7.552  10.493
71602SOL     OW16702   2.956   6.739  13.288
71602SOL    HW116703   2.990   6.788  13.213
71602SOL    HW216704   2.946   6.649  13.255
71603SOL     OW16705   3.611   9.975   9.597
71603SOL    HW116706   3.578   9.930   9.675
71603SOL    HW216707   3.533   9.996   9.546
71604SOL     OW16708   9.013  14.025   4.009
71604SOL    HW116709   9.099  13.984   4.022
71604SOL    HW216710   8.969  14.016   4.094
71605SOL     OW16711   5.534  12.307  13.674
71605SOL    HW116712   5.484  12.226  13.671
71605SOL    HW216713   5.608  12.292  13.614
71606SOL     OW16714   8.594   1.004   4.138
71606SOL    HW116715   8.614   0.933   4.077
71606SOL    HW216716   8.644   1.079   4.105
71607SOL     OW16717   3.865   5.611   9.070
71607SOL    HW116718   3.882   5.667   9.146
71607SOL    HW216719   3.771   5.618   9.055
71608SOL     OW16720  11.180   7.685   1.900
71608SOL    HW116721  11.225   7.732   1.830
71608SOL    HW216722  11.249   7.665   1.964
71609SOL     OW16723   8.964   4.456   5.054
71609SOL    HW116724   8.909   4.530   5.079
71609SOL    HW216725   9.031   4.495   4.997
71610SOL     OW16726   0.822   5.808   9.930
71610SOL    HW116727   0.867   5.891   9.949
71610SOL    HW216728   0.730   5.827   9.947
71611SOL     OW16729   9.513   0.537  12.394
71611SOL    HW116730   9.515   0.574  12.482
71611SOL    HW216731   9.603   0.547  12.362
71612SOL     OW16732  14.068  10.926   2.041
71612SOL    HW116733  14.081  10.859   2.107
71612SOL    HW216734  14.108  11.005   2.078
71613SOL     OW16735   9.235   2.128   5.096
71613SOL    HW116736   9.285   2.208   5.114
71613SOL    HW216737   9.249   2.072   5.172
71614SOL     OW16738   6.120   2.574   0.246
71614SOL    HW116739   6.105   2.524   0.326
71614SOL    HW216740   6.214   2.587   0.242
71615SOL     OW16741   8.570   9.853   4.996
71615SOL    HW116742   8.498   9.844   4.933
71615SOL    HW216743   8.636   9.903   4.949
71616SOL     OW16744   3.589   8.600  10.334
71616SOL    HW116745   3.516   8.538  10.329
71616SOL    HW216746   3.619   8.609  10.244
71617SOL     OW16747  14.611   7.800  12.123
71617SOL    HW116748  14.635   7.845  12.042
71617SOL    HW216749  14.641   7.858  12.193
71618SOL     OW16750  11.545   1.974  14.420
71618SOL    HW116751  11.620   1.921  14.393
71618SOL    HW216752  11.514   1.932  14.501
71619SOL     OW16753   6.890   9.085  11.761
71619SOL    HW116754   6.885   9.164  11.815
71619SOL    HW216755   6.981   9.058  11.768
71620SOL     OW16756   2.798   0.449   1.505
71620SOL    HW116757   2.797   0.523   1.444
71620SOL    HW216758   2.890   0.423   1.509
71621SOL     OW16759   9.050   2.750   0.807
71621SOL    HW116760   9.065   2.690   0.880
71621SOL    HW216761   9.113   2.821   0.820
71622SOL     OW16762   4.661   8.243   6.095
71622SOL    HW116763   4.665   8.336   6.072
71622SOL    HW216764   4.678   8.241   6.189
71623SOL     OW16765   2.236   9.847   2.072
71623SOL    HW116766   2.222   9.830   2.166
71623SOL    HW216767   2.149   9.871   2.040
71624SOL     OW16768   1.132   1.830   3.342
71624SOL    HW116769   1.174   1.829   3.256
71624SOL    HW216770   1.039   1.826   3.323
71625SOL     OW16771   1.706   2.862   5.681
71625SOL    HW116772   1.629   2.889   5.731
71625SOL    HW216773   1.674   2.851   5.592
71626SOL     OW16774   5.073   4.976   8.573
71626SOL    HW116775   5.042   5.047   8.517
71626SOL    HW216776   5.162   4.958   8.542
71627SOL     OW16777   3.030   4.644  12.586
71627SOL    HW116778   3.052   4.733  12.560
71627SOL    HW216779   3.113   4.606  12.615
71628SOL     OW16780  14.571   0.629  10.201
71628SOL    HW116781  14.552   0.712  10.156
71628SOL    HW216782  14.485   0.599  10.232
71629SOL     OW16783   4.516   7.089   4.429
71629SOL    HW116784   4.536   7.146   4.355
71629SOL    HW216785   4.500   7.003   4.390
71630SOL     OW16786  10.930   4.088   7.828
71630SOL    HW116787  10.986   4.040   7.889
71630SOL    HW216788  10.987   4.154   7.789
71631SOL     OW16789   2.167  12.041   9.818
71631SOL    HW116790   2.235  12.107   9.805
71631SOL    HW216791   2.162  12.031   9.913
71632SOL     OW16792   7.634   0.368  14.221
71632SOL    HW116793   7.651   0.395  14.311
71632SOL    HW216794   7.716   0.328  14.192
71633SOL     OW16795  11.315   2.333   6.451
71633SOL    HW116796  11.252   2.395   6.414
71633SOL    HW216797  11.400   2.375   6.438
71634SOL     OW16798   4.562  12.408   7.212
71634SOL    HW116799   4.486  12.447   7.169
71634SOL    HW216800   4.618  12.378   7.141
71635SOL     OW16801  13.254   4.309   6.782
71635SOL    HW116802  13.160   4.302   6.793
71635SOL    HW216803  13.272   4.403   6.788
71636SOL     OW16804   6.983   9.407  11.367
71636SOL    HW116805   6.971   9.446  11.281
71636SOL    HW216806   6.896   9.374  11.392
71637SOL     OW16807   8.109   6.003   6.394
71637SOL    HW116808   8.145   5.941   6.457
71637SOL    HW216809   8.141   6.089   6.422
71638SOL     OW16810   2.913   7.908   7.066
71638SOL    HW116811   2.836   7.874   7.112
71638SOL    HW216812   2.877   7.948   6.986
71639SOL     OW16813  12.469   8.996   0.167
71639SOL    HW116814  12.455   8.935   0.240
71639SOL    HW216815  12.407   8.969   0.100
71640SOL     OW16816   2.037   0.524   0.174
71640SOL    HW116817   2.078   0.598   0.131
71640SOL    HW216818   1.980   0.563   0.240
71641SOL     OW16819   7.271  13.451  13.026
71641SOL    HW116820   7.281  13.507  12.949
71641SOL    HW216821   7.176  13.439  13.035
71642SOL     OW16822  11.593   1.341   4.581
71642SOL    HW116823  11.587   1.408   4.648
71642SOL    HW216824  11.638   1.268   4.623
71643SOL     OW16825   0.009   1.573   0.881
71643SOL    HW116826   0.002   1.499   0.821
71643SOL    HW216827  14.858   1.537   0.967
71644SOL     OW16828  13.791  13.089   1.925
71644SOL    HW116829  13.883  13.097   1.901
71644SOL    HW216830  13.758  13.018   1.870
71645SOL     OW16831  10.350   1.333   8.349
71645SOL    HW116832  10.369   1.349   8.442
71645SOL    HW216833  10.333   1.239   8.344
71646SOL     OW16834   0.547   6.659   3.658
71646SOL    HW116835   0.529   6.647   3.565
71646SOL    HW216836   0.617   6.724   3.662
71647SOL     OW16837   1.927  11.785   8.033
71647SOL    HW116838   1.960  11.843   7.965
71647SOL    HW216839   2.000  11.775   8.094
71648SOL     OW16840   7.980   5.477   4.361
71648SOL    HW116841   8.004   5.563   4.397
71648SOL    HW216842   7.908   5.496   4.301
71649SOL     OW16843  13.431   8.966  13.167
71649SOL    HW116844  13.406   9.058  13.158
71649SOL    HW216845  13.491   8.950  13.094
71650SOL     OW16846  11.299   3.571   1.184
71650SOL    HW116847  11.369   3.515   1.152
71650SOL    HW216848  11.326   3.660   1.159
71651SOL     OW16849  14.538  12.460   5.483
71651SOL    HW116850  14.537  12.544   5.530
71651SOL    HW216851  14.599  12.475   5.410
71652SOL     OW16852  11.835   4.427   0.237
71652SOL    HW116853  11.749   4.464   0.255
71652SOL    HW216854  11.819   4.356   0.176
71653SOL     OW16855   2.738   1.511   5.456
71653SOL    HW116856   2.799   1.570   5.412
71653SOL    HW216857   2.705   1.561   5.531
71654SOL     OW16858  14.432  10.262   5.223
71654SOL    HW116859  14.401  10.342   5.267
71654SOL    HW216860  14.500  10.292   5.163
71655SOL     OW16861  14.485  13.971   8.625
71655SOL    HW116862  14.545  14.005   8.692
71655SOL    HW216863  14.399  13.974   8.666
71656SOL     OW16864  13.745   1.976  12.486
71656SOL    HW116865  13.764   1.927  12.405
71656SOL    HW216866  13.791   2.059  12.475
71657SOL     OW16867  11.482   9.880   1.874
71657SOL    HW116868  11.475   9.929   1.792
71657SOL    HW216869  11.564   9.831   1.866
71658SOL     OW16870   2.859   5.872  11.479
71658SOL    HW116871   2.858   5.784  11.515
71658SOL    HW216872   2.932   5.872  11.417
71659SOL     OW16873   3.754   0.332   5.312
71659SOL    HW116874   3.791   0.352   5.398
71659SOL    HW216875   3.813   0.376   5.251
71660SOL     OW16876  10.300   8.976   6.869
71660SOL    HW116877  10.238   9.019   6.810
71660SOL    HW216878  10.353   8.921   6.812
71661SOL     OW16879   4.443   8.080   5.477
71661SOL    HW116880   4.463   7.988   5.465
71661SOL    HW216881   4.476   8.100   5.565
71662SOL     OW16882   7.365   5.419   7.441
71662SOL    HW116883   7.450   5.438   7.400
71662SOL    HW216884   7.302   5.426   7.369
71663SOL     OW16885   1.065  10.716   2.789
71663SOL    HW116886   1.066  10.638   2.845
71663SOL    HW216887   1.082  10.684   2.701
71664SOL     OW16888  14.234   4.833   3.704
71664SOL    HW116889  14.325   4.860   3.697
71664SOL    HW216890  14.238   4.740   3.729
71665SOL     OW16891  13.070   3.240   1.381
71665SOL    HW116892  13.148   3.295   1.375
71665SOL    HW216893  13.085   3.185   1.458
71666SOL     OW16894  11.664   1.154   3.097
71666SOL    HW116895  11.685   1.157   3.004
71666SOL    HW216896  11.624   1.068   3.111
71667SOL     OW16897   8.666  11.556   3.130
71667SOL    HW116898   8.711  11.628   3.175
71667SOL    HW216899   8.642  11.496   3.200
71668SOL     OW16900   4.155   4.571   4.041
71668SOL    HW116901   4.205   4.608   3.969
71668SOL    HW216902   4.193   4.610   4.120
71669SOL     OW16903  14.022  10.473   9.221
71669SOL    HW116904  13.961  10.522   9.165
71669SOL    HW216905  14.080  10.540   9.257
71670SOL     OW16906  12.458   1.147  13.790
71670SOL    HW116907  12.411   1.206  13.732
71670SOL    HW216908  12.486   1.075  13.734
71671SOL     OW16909  11.418  11.727   8.526
71671SOL    HW116910  11.452  11.805   8.482
71671SOL    HW216911  11.403  11.665   8.455
71672SOL     OW16912  14.702   2.966  13.930
71672SOL    HW116913  14.640   2.895  13.917
71672SOL    HW216914  14.786   2.931  13.898
71673SOL     OW16915   0.749   9.115   2.719
71673SOL    HW116916   0.670   9.084   2.675
71673SOL    HW216917   0.789   9.176   2.657
71674SOL     OW16918   7.780   1.794  14.819
71674SOL    HW116919   7.726   1.866  14.785
71674SOL    HW216920   7.828   1.833   0.022
71675SOL     OW16921  12.427  13.803   5.198
71675SOL    HW116922  12.363  13.732   5.204
71675SOL    HW216923  12.502  13.771   5.248
71676SOL     OW16924   0.520   2.654  12.258
71676SOL    HW116925   0.578   2.583  12.285
71676SOL    HW216926   0.579   2.725  12.234
71677SOL     OW16927  11.378  13.435   2.508
71677SOL    HW116928  11.462  13.438   2.554
71677SOL    HW216929  11.368  13.521   2.469
71678SOL     OW16930  12.930  10.364   7.684
71678SOL    HW116931  12.968  10.445   7.717
71678SOL    HW216932  12.887  10.325   7.759
71679SOL     OW16933  13.962   9.717  14.721
71679SOL    HW116934  13.947   9.719  14.626
71679SOL    HW216935  14.038   9.774  14.734
71680SOL     OW16936   0.254  13.314   4.746
71680SOL    HW116937   0.206  13.244   4.791
71680SOL    HW216938   0.318  13.344   4.810
71681SOL     OW16939  13.497   9.378   1.529
71681SOL    HW116940  13.425   9.392   1.591
71681SOL    HW216941  13.471   9.300   1.479
71682SOL     OW16942  10.830  14.318  10.381
71682SOL    HW116943  10.852  14.375  10.307
71682SOL    HW216944  10.735  14.327  10.391
71683SOL     OW16945   8.018   8.091  13.678
71683SOL    HW116946   7.938   8.116  13.633
71683SOL    HW216947   7.998   8.104  13.771
71684SOL     OW16948   7.500  12.973   8.827
71684SOL    HW116949   7.410  12.987   8.800
71684SOL    HW216950   7.553  13.018   8.761
71685SOL     OW16951  11.473   3.088   6.363
71685SOL    HW116952  11.535   3.157   6.389
71685SOL    HW216953  11.444   3.050   6.446
71686SOL     OW16954   5.957   7.430   9.318
71686SOL    HW116955   6.035   7.470   9.356
71686SOL    HW216956   5.974   7.336   9.323
71687SOL     OW16957  11.082   4.794  14.862
71687SOL    HW116958  10.989   4.817   0.001
71687SOL    HW216959  11.115   4.853  14.794
71688SOL     OW16960   7.552   9.292   5.755
71688SOL    HW116961   7.557   9.206   5.715
71688SOL    HW216962   7.471   9.330   5.720
71689SOL     OW16963   4.319   5.674   1.259
71689SOL    HW116964   4.300   5.582   1.278
71689SOL    HW216965   4.375   5.671   1.182
71690SOL     OW16966   4.782   7.246   8.340
71690SOL    HW116967   4.858   7.190   8.322
71690SOL    HW216968   4.760   7.284   8.255
71691SOL     OW16969   2.810  11.369   8.296
71691SOL    HW116970   2.746  11.313   8.253
71691SOL    HW216971   2.890  11.358   8.244
71692SOL     OW16972   7.021   9.521  14.067
71692SOL    HW116973   7.113   9.547  14.071
71692SOL    HW216974   6.997   9.500  14.157
71693SOL     OW16975   2.120  10.240   3.185
71693SOL    HW116976   2.205  10.279   3.165
71693SOL    HW216977   2.062  10.274   3.117
71694SOL     OW16978  14.866  14.576  10.482
71694SOL    HW116979   0.015  14.666  10.508
71694SOL    HW216980  14.830  14.535  10.560
71695SOL     OW16981   3.056   6.495   0.066
71695SOL    HW116982   3.013   6.579   0.050
71695SOL    HW216983   3.002   6.431   0.021
71696SOL     OW16984   5.836   8.328  11.658
71696SOL    HW116985   5.749   8.366  11.667
71696SOL    HW216986   5.879   8.346  11.742
71697SOL     OW16987   6.737   7.515  12.935
71697SOL    HW116988   6.814   7.492  12.987
71697SOL    HW216989   6.707   7.597  12.973
71698SOL     OW16990   4.667   4.118  11.881
71698SOL    HW116991   4.649   4.149  11.792
71698SOL    HW216992   4.710   4.192  11.924
71699SOL     OW16993   8.790  10.418   7.262
71699SOL    HW116994   8.832  10.391   7.344
71699SOL    HW216995   8.863  10.444   7.206
71700SOL     OW16996   6.076  12.733   2.488
71700SOL    HW116997   6.010  12.780   2.539
71700SOL    HW216998   6.108  12.665   2.547
71701SOL     OW16999   8.363   4.043   1.370
71701SOL    HW117000   8.337   3.974   1.309
71701SOL    HW217001   8.455   4.025   1.389
71702SOL     OW17002   7.840   2.338  13.188
71702SOL    HW117003   7.897   2.414  13.176
71702SOL    HW217004   7.797   2.352  13.272
71703SOL     OW17005  14.321  10.340   4.884
71703SOL    HW117006  14.357  10.400   4.950
71703SOL    HW217007  14.262  10.395   4.832
71704SOL     OW17008  12.272  10.875   1.605
71704SOL    HW117009  12.338  10.807   1.618
71704SOL    HW217010  12.320  10.957   1.614
71705SOL     OW17011   7.835  14.681   9.355
71705SOL    HW117012   7.788  14.704   9.436
71705SOL    HW217013   7.897  14.753   9.342
71706SOL     OW17014  11.349   3.490  12.385
71706SOL    HW117015  11.275   3.431  12.397
71706SOL    HW217016  11.426   3.435  12.401
71707SOL     OW17017  12.543   5.434   7.686
71707SOL    HW117018  12.483   5.391   7.746
71707SOL    HW217019  12.487   5.476   7.621
71708SOL     OW17020  12.279   4.800   9.315
71708SOL    HW117021  12.310   4.726   9.366
71708SOL    HW217022  12.275   4.768   9.225
71709SOL     OW17023   1.671  14.488   9.280
71709SOL    HW117024   1.638  14.484   9.370
71709SOL    HW217025   1.638  14.408   9.239
71710SOL     OW17026   6.940   0.851   1.775
71710SOL    HW117027   6.930   0.831   1.682
71710SOL    HW217028   6.974   0.940   1.777
71711SOL     OW17029   8.302   4.331   8.594
71711SOL    HW117030   8.225   4.276   8.578
71711SOL    HW217031   8.270   4.420   8.582
71712SOL     OW17032   9.596   2.954   1.177
71712SOL    HW117033   9.658   2.881   1.181
71712SOL    HW217034   9.514   2.918   1.210
71713SOL     OW17035   5.972  11.178   4.556
71713SOL    HW117036   6.030  11.107   4.586
71713SOL    HW217037   6.023  11.222   4.488
71714SOL     OW17038  14.021   0.462  10.337
71714SOL    HW117039  13.926   0.467  10.325
71714SOL    HW217040  14.033   0.443  10.430
71715SOL     OW17041   8.953  10.202   9.118
71715SOL    HW117042   8.960  10.267   9.188
71715SOL    HW217043   8.868  10.160   9.132
71716SOL     OW17044   4.664   2.017   2.017
71716SOL    HW117045   4.740   2.050   1.969
71716SOL    HW217046   4.681   1.924   2.029
71717SOL     OW17047   8.998   1.420   3.861
71717SOL    HW117048   8.967   1.421   3.952
71717SOL    HW217049   9.039   1.334   3.852
71718SOL     OW17050   2.787   1.146   4.529
71718SOL    HW117051   2.775   1.233   4.567
71718SOL    HW217052   2.816   1.163   4.440
71719SOL     OW17053   6.442  11.041  14.602
71719SOL    HW117054   6.535  11.061  14.615
71719SOL    HW217055   6.398  11.081  14.677
71720SOL     OW17056   7.562   2.810   8.665
71720SOL    HW117057   7.513   2.891   8.677
71720SOL    HW217058   7.510   2.759   8.603
71721SOL     OW17059   2.555  13.175   5.100
71721SOL    HW117060   2.512  13.188   5.184
71721SOL    HW217061   2.648  13.168   5.121
71722SOL     OW17062  11.998  12.634  14.203
71722SOL    HW117063  11.937  12.561  14.185
71722SOL    HW217064  12.050  12.641  14.123
71723SOL     OW17065  12.903   1.757  13.884
71723SOL    HW117066  12.949   1.701  13.821
71723SOL    HW217067  12.817   1.714  13.895
71724SOL     OW17068   3.209   9.632   8.981
71724SOL    HW117069   3.246   9.644   9.069
71724SOL    HW217070   3.169   9.716   8.960
71725SOL     OW17071   9.607   1.674   0.398
71725SOL    HW117072   9.525   1.638   0.432
71725SOL    HW217073   9.621   1.754   0.448
71726SOL     OW17074  11.251   9.491   5.848
71726SOL    HW117075  11.265   9.585   5.836
71726SOL    HW217076  11.243   9.479   5.942
71727SOL     OW17077  14.085   3.628   6.214
71727SOL    HW117078  14.102   3.549   6.265
71727SOL    HW217079  14.125   3.699   6.266
71728SOL     OW17080  11.499   4.979  10.824
71728SOL    HW117081  11.537   5.050  10.773
71728SOL    HW217082  11.438   5.023  10.884
71729SOL     OW17083   1.588  10.876   0.289
71729SOL    HW117084   1.553  10.963   0.267
71729SOL    HW217085   1.638  10.890   0.369
71730SOL     OW17086  11.821  14.641   9.889
71730SOL    HW117087  11.800  14.680   9.804
71730SOL    HW217088  11.827  14.716   9.948
71731SOL     OW17089   5.557   9.261   5.698
71731SOL    HW117090   5.513   9.177   5.707
71731SOL    HW217091   5.649   9.243   5.716
71732SOL     OW17092   8.305   2.322   1.263
71732SOL    HW117093   8.320   2.269   1.184
71732SOL    HW217094   8.351   2.404   1.246
71733SOL     OW17095   3.338   4.667   4.902
71733SOL    HW117096   3.414   4.614   4.881
71733SOL    HW217097   3.357   4.752   4.862
71734SOL     OW17098   0.655   3.702   2.246
71734SOL    HW117099   0.594   3.740   2.309
71734SOL    HW217100   0.620   3.727   2.161
71735SOL     OW17101   9.355   9.044   9.641
71735SOL    HW117102   9.359   8.954   9.673
71735SOL    HW217103   9.346   9.035   9.546
71736SOL     OW17104  10.809   9.397   9.371
71736SOL    HW117105  10.811   9.438   9.458
71736SOL    HW217106  10.798   9.304   9.389
71737SOL     OW17107   9.408  12.185  12.527
71737SOL    HW117108   9.368  12.255  12.476
71737SOL    HW217109   9.444  12.229  12.604
71738SOL     OW17110   9.762   7.087   6.110
71738SOL    HW117111   9.826   7.082   6.039
71738SOL    HW217112   9.710   7.166   6.089
71739SOL     OW17113  10.149  11.752  13.274
71739SOL    HW117114  10.075  11.787  13.323
71739SOL    HW217115  10.207  11.827  13.262
71740SOL     OW17116   0.015  13.738  10.024
71740SOL    HW117117   0.104  13.765  10.046
71740SOL    HW217118  14.829  13.803  10.066
71741SOL     OW17119  14.020   2.240   7.717
71741SOL    HW117120  13.929   2.263   7.699
71741SOL    HW217121  14.048   2.301   7.784
71742SOL     OW17122   2.092  14.138  11.346
71742SOL    HW117123   2.136  14.211  11.390
71742SOL    HW217124   1.999  14.160  11.349
71743SOL     OW17125   4.915   3.322   6.393
71743SOL    HW117126   4.997   3.317   6.345
71743SOL    HW217127   4.872   3.401   6.360
71744SOL     OW17128   7.561   3.150  10.286
71744SOL    HW117129   7.483   3.190  10.247
71744SOL    HW217130   7.635   3.192  10.243
71745SOL     OW17131   0.922   8.670   8.811
71745SOL    HW117132   1.002   8.707   8.774
71745SOL    HW217133   0.925   8.691   8.904
71746SOL     OW17134   7.066  11.863   0.058
71746SOL    HW117135   7.084  11.862   0.152
71746SOL    HW217136   7.149  11.889   0.017
71747SOL     OW17137   3.978   0.067  14.756
71747SOL    HW117138   4.014   0.140  14.806
71747SOL    HW217139   3.938   0.010  14.821
71748SOL     OW17140   2.548   4.294   0.350
71748SOL    HW117141   2.639   4.324   0.348
71748SOL    HW217142   2.508   4.332   0.272
71749SOL     OW17143  12.354  10.057   0.543
71749SOL    HW117144  12.282  10.084   0.599
71749SOL    HW217145  12.376  10.135   0.493
71750SOL     OW17146   0.231   6.523  13.399
71750SOL    HW117147   0.321   6.552  13.413
71750SOL    HW217148   0.211   6.550  13.309
71751SOL     OW17149   9.127   7.975   5.761
71751SOL    HW117150   9.098   7.916   5.830
71751SOL    HW217151   9.196   7.926   5.715
71752SOL     OW17152   4.845   6.285   1.264
71752SOL    HW117153   4.931   6.274   1.224
71752SOL    HW217154   4.860   6.269   1.357
71753SOL     OW17155   5.439  13.185   1.319
71753SOL    HW117156   5.488  13.262   1.349
71753SOL    HW217157   5.364  13.221   1.273
71754SOL     OW17158   2.782  13.893   2.478
71754SOL    HW117159   2.789  13.897   2.573
71754SOL    HW217160   2.691  13.868   2.462
71755SOL     OW17161   8.725  12.706   4.501
71755SOL    HW117162   8.792  12.691   4.434
71755SOL    HW217163   8.733  12.631   4.560
71756SOL     OW17164  13.752   7.015   6.066
71756SOL    HW117165  13.671   6.969   6.086
71756SOL    HW217166  13.729   7.072   5.993
71757SOL     OW17167   3.993   9.477  11.741
71757SOL    HW117168   3.907   9.506  11.710
71757SOL    HW217169   4.045   9.469  11.662
71758SOL     OW17170   4.682   1.113   0.385
71758SOL    HW117171   4.716   1.040   0.334
71758SOL    HW217172   4.755   1.174   0.391
71759SOL     OW17173   1.799  11.938   9.208
71759SOL    HW117174   1.860  11.866   9.226
71759SOL    HW217175   1.770  11.923   9.118
71760SOL     OW17176   4.955  14.437   0.487
71760SOL    HW117177   5.022  14.370   0.499
71760SOL    HW217178   4.997  14.519   0.512
71761SOL     OW17179   5.588   1.998  11.684
71761SOL    HW117180   5.567   1.944  11.607
71761SOL    HW217181   5.610   1.935  11.752
71762SOL     OW17182   8.509   5.570  14.416
71762SOL    HW117183   8.479   5.493  14.464
71762SOL    HW217184   8.441   5.636  14.429
71763SOL     OW17185  14.035  12.387   1.872
71763SOL    HW117186  13.941  12.392   1.892
71763SOL    HW217187  14.039  12.394   1.776
71764SOL     OW17188   5.056  13.275   8.892
71764SOL    HW117189   5.108  13.350   8.861
71764SOL    HW217190   4.993  13.313   8.953
71765SOL     OW17191  13.870   9.649   3.283
71765SOL    HW117192  13.849   9.638   3.190
71765SOL    HW217193  13.961   9.679   3.283
71766SOL     OW17194   5.520   4.115  11.287
71766SOL    HW117195   5.472   4.057  11.229
71766SOL    HW217196   5.494   4.088  11.375
71767SOL     OW17197   6.589   6.727   7.196
71767SOL    HW117198   6.502   6.693   7.219
71767SOL    HW217199   6.612   6.785   7.269
71768SOL     OW17200  12.123   9.411   1.370
71768SOL    HW117201  12.204   9.455   1.395
71768SOL    HW217202  12.133   9.394   1.276
71769SOL     OW17203   0.614   9.894   2.727
71769SOL    HW117204   0.692   9.861   2.681
71769SOL    HW217205   0.542   9.844   2.689
71770SOL     OW17206   1.497   7.579  11.276
71770SOL    HW117207   1.498   7.505  11.214
71770SOL    HW217208   1.440   7.549  11.347
71771SOL     OW17209   6.013   3.045  14.172
71771SOL    HW117210   6.017   2.950  14.157
71771SOL    HW217211   5.920   3.063  14.186
71772SOL     OW17212   2.063   3.594   6.123
71772SOL    HW117213   2.061   3.652   6.199
71772SOL    HW217214   2.009   3.518   6.149
71773SOL     OW17215   4.282   3.111   3.304
71773SOL    HW117216   4.218   3.128   3.236
71773SOL    HW217217   4.345   3.183   3.296
71774SOL     OW17218   1.497  14.488  14.177
71774SOL    HW117219   1.559  14.416  14.166
71774SOL    HW217220   1.476  14.516  14.088
71775SOL     OW17221   1.724  10.574   7.602
71775SOL    HW117222   1.681  10.643   7.551
71775SOL    HW217223   1.653  10.535   7.654
71776SOL     OW17224   9.301   2.594  11.178
71776SOL    HW117225   9.232   2.636  11.126
71776SOL    HW217226   9.264   2.509  11.203
71777SOL     OW17227   9.036   4.646   4.111
71777SOL    HW117228   9.010   4.562   4.075
71777SOL    HW217229   8.966   4.706   4.086
71778SOL     OW17230   9.860  10.554  11.335
71778SOL    HW117231   9.856  10.515  11.248
71778SOL    HW217232   9.877  10.647  11.319
71779SOL     OW17233   3.973   4.956   7.254
71779SOL    HW117234   4.020   5.040   7.261
71779SOL    HW217235   3.892   4.978   7.208
71780SOL     OW17236  11.977  11.562   6.051
71780SOL    HW117237  11.916  11.523   5.989
71780SOL    HW217238  11.973  11.505   6.128
71781SOL     OW17239   4.740   8.108   4.949
71781SOL    HW117240   4.698   8.102   5.035
71781SOL    HW217241   4.675   8.073   4.888
71782SOL     OW17242   2.074   7.451   4.789
71782SOL    HW117243   2.126   7.372   4.803
71782SOL    HW217244   2.105   7.486   4.706
71783SOL     OW17245  11.230   3.538   1.537
71783SOL    HW117246  11.165   3.502   1.477
71783SOL    HW217247  11.195   3.623   1.562
71784SOL     OW17248   1.128  10.806  10.593
71784SOL    HW117249   1.099  10.724  10.632
71784SOL    HW217250   1.182  10.779  10.519
71785SOL     OW17251   5.768  11.588   0.874
71785SOL    HW117252   5.745  11.575   0.966
71785SOL    HW217253   5.790  11.681   0.868
71786SOL     OW17254   3.559   7.233   3.921
71786SOL    HW117255   3.611   7.198   3.849
71786SOL    HW217256   3.622   7.242   3.993
71787SOL     OW17257   9.731   9.100   3.892
71787SOL    HW117258   9.695   9.187   3.907
71787SOL    HW217259   9.808   9.096   3.948
71788SOL     OW17260   8.695  10.502   0.885
71788SOL    HW117261   8.694  10.459   0.971
71788SOL    HW217262   8.612  10.549   0.881
71789SOL     OW17263   3.458   9.617   2.984
71789SOL    HW117264   3.413   9.674   3.046
71789SOL    HW217265   3.540   9.662   2.965
71790SOL     OW17266   4.260  14.159  11.648
71790SOL    HW117267   4.300  14.245  11.635
71790SOL    HW217268   4.276  14.112  11.567
71791SOL     OW17269  13.549   6.986  13.445
71791SOL    HW117270  13.625   6.928  13.436
71791SOL    HW217271  13.561   7.052  13.377
71792SOL     OW17272  10.594   8.327  10.605
71792SOL    HW117273  10.539   8.386  10.656
71792SOL    HW217274  10.590   8.363  10.516
71793SOL     OW17275   4.404   1.219   0.744
71793SOL    HW117276   4.486   1.208   0.695
71793SOL    HW217277   4.432   1.229   0.835
71794SOL     OW17278   9.734  11.417   4.812
71794SOL    HW117279   9.778  11.501   4.828
71794SOL    HW217280   9.782  11.355   4.866
71795SOL     OW17281  10.629  11.844   8.502
71795SOL    HW117282  10.595  11.886   8.423
71795SOL    HW217283  10.596  11.897   8.574
71796SOL     OW17284   4.915   5.031   9.338
71796SOL    HW117285   5.010   5.037   9.341
71796SOL    HW217286   4.893   4.963   9.402
71797SOL     OW17287   4.769  11.306   9.330
71797SOL    HW117288   4.786  11.250   9.255
71797SOL    HW217289   4.690  11.269   9.370
71798SOL     OW17290   0.987   7.603   4.896
71798SOL    HW117291   0.976   7.607   4.801
71798SOL    HW217292   1.017   7.514   4.913
71799SOL     OW17293   2.358  11.736   7.086
71799SOL    HW117294   2.265  11.725   7.072
71799SOL    HW217295   2.369  11.829   7.107
71800SOL     OW17296  13.187   4.900  13.728
71800SOL    HW117297  13.179   4.928  13.636
71800SOL    HW217298  13.117   4.836  13.740
71801SOL     OW17299   6.868   2.184   7.232
71801SOL    HW117300   6.797   2.197   7.294
71801SOL    HW217301   6.917   2.265   7.233
71802SOL     OW17302   6.900   0.576   8.847
71802SOL    HW117303   6.832   0.553   8.910
71802SOL    HW217304   6.917   0.495   8.799
71803SOL     OW17305  10.079   7.113  13.428
71803SOL    HW117306  10.154   7.141  13.480
71803SOL    HW217307  10.027   7.192  13.416
71804SOL     OW17308   6.620  14.604   2.331
71804SOL    HW117309   6.618  14.699   2.320
71804SOL    HW217310   6.698  14.588   2.384
71805SOL     OW17311   5.702   4.396   2.238
71805SOL    HW117312   5.758   4.322   2.262
71805SOL    HW217313   5.658   4.367   2.157
71806SOL     OW17314   9.600  11.896   6.664
71806SOL    HW117315   9.596  11.862   6.753
71806SOL    HW217316   9.515  11.936   6.650
71807SOL     OW17317   9.261   5.209   0.566
71807SOL    HW117318   9.207   5.242   0.494
71807SOL    HW217319   9.284   5.120   0.540
71808SOL     OW17320   3.244  12.650   5.467
71808SOL    HW117321   3.260  12.561   5.497
71808SOL    HW217322   3.312  12.702   5.510
71809SOL     OW17323   3.357   2.834   2.376
71809SOL    HW117324   3.323   2.768   2.436
71809SOL    HW217325   3.286   2.897   2.366
71810SOL     OW17326  10.866   2.177   6.682
71810SOL    HW117327  10.915   2.243   6.730
71810SOL    HW217328  10.777   2.182   6.719
71811SOL     OW17329   5.366   1.847   0.910
71811SOL    HW117330   5.352   1.788   0.983
71811SOL    HW217331   5.293   1.908   0.914
71812SOL     OW17332   8.321   3.238  10.059
71812SOL    HW117333   8.391   3.302  10.071
71812SOL    HW217334   8.252   3.267  10.120
71813SOL     OW17335   1.516   7.050  14.038
71813SOL    HW117336   1.470   6.982  13.989
71813SOL    HW217337   1.606   7.019  14.043
71814SOL     OW17338  14.851   0.466   0.829
71814SOL    HW117339   0.068   0.451   0.866
71814SOL    HW217340  14.856   0.433   0.739
71815SOL     OW17341   5.489   9.303  11.706
71815SOL    HW117342   5.473   9.255  11.625
71815SOL    HW217343   5.420   9.369  11.709
71816SOL     OW17344   9.602   2.612   2.122
71816SOL    HW117345   9.510   2.585   2.126
71816SOL    HW217346   9.613   2.643   2.032
71817SOL     OW17347   6.601   2.212   5.521
71817SOL    HW117348   6.556   2.165   5.450
71817SOL    HW217349   6.545   2.198   5.597
71818SOL     OW17350  13.976   9.426   2.598
71818SOL    HW117351  13.943   9.379   2.521
71818SOL    HW217352  13.988   9.358   2.664
71819SOL     OW17353  12.709  13.295  10.458
71819SOL    HW117354  12.663  13.212  10.449
71819SOL    HW217355  12.701  13.336  10.372
71820SOL     OW17356   9.954   0.019  10.003
71820SOL    HW117357  10.037  14.841  10.003
71820SOL    HW217358   9.944   0.049  10.093
71821SOL     OW17359   0.789   0.360   4.213
71821SOL    HW117360   0.715   0.323   4.165
71821SOL    HW217361   0.754   0.438   4.255
71822SOL     OW17362  12.074  11.293   2.571
71822SOL    HW117363  11.988  11.331   2.552
71822SOL    HW217364  12.090  11.316   2.663
71823SOL     OW17365  10.046   6.340   6.101
71823SOL    HW117366  10.015   6.305   6.184
71823SOL    HW217367   9.985   6.306   6.036
71824SOL     OW17368  13.765   1.682   3.109
71824SOL    HW117369  13.796   1.592   3.114
71824SOL    HW217370  13.845   1.735   3.117
71825SOL     OW17371  13.731   3.018  12.796
71825SOL    HW117372  13.672   2.971  12.855
71825SOL    HW217373  13.683   3.097  12.773
71826SOL     OW17374   5.405  11.503  10.424
71826SOL    HW117375   5.434  11.414  10.405
71826SOL    HW217376   5.313  11.505  10.396
71827SOL     OW17377  10.520   8.107  10.890
71827SOL    HW117378  10.505   8.073  10.978
71827SOL    HW217379  10.458   8.180  10.882
71828SOL     OW17380   2.738  11.949   2.456
71828SOL    HW117381   2.791  12.028   2.462
71828SOL    HW217382   2.752  11.903   2.538
71829SOL     OW17383  14.366   7.084  13.823
71829SOL    HW117384  14.394   7.045  13.906
71829SOL    HW217385  14.383   7.015  13.759
71830SOL     OW17386   5.178  10.945   7.477
71830SOL    HW117387   5.091  10.908   7.490
71830SOL    HW217388   5.238  10.876   7.505
71831SOL     OW17389  13.880   9.933   1.416
71831SOL    HW117390  13.798   9.898   1.450
71831SOL    HW217391  13.943   9.862   1.427
71832SOL     OW17392   4.495   3.229  10.984
71832SOL    HW117393   4.558   3.284  11.030
71832SOL    HW217394   4.549   3.168  10.934
71833SOL     OW17395   1.435   7.582  11.712
71833SOL    HW117396   1.476   7.501  11.743
71833SOL    HW217397   1.341   7.567  11.722
71834SOL     OW17398   7.862  10.920   9.130
71834SOL    HW117399   7.796  10.990   9.131
71834SOL    HW217400   7.850  10.877   9.045
71835SOL     OW17401   6.674   0.680  14.605
71835SOL    HW117402   6.751   0.701  14.657
71835SOL    HW217403   6.641   0.598  14.644
71836SOL     OW17404  10.303   4.009  11.192
71836SOL    HW117405  10.360   4.083  11.171
71836SOL    HW217406  10.314   3.948  11.119
71837SOL     OW17407   7.521  13.369  11.293
71837SOL    HW117408   7.524  13.278  11.324
71837SOL    HW217409   7.461  13.367  11.219
71838SOL     OW17410   9.959   8.630  14.039
71838SOL    HW117411   9.899   8.688  14.086
71838SOL    HW217412   9.905   8.591  13.970
71839SOL     OW17413   4.145   7.270  14.857
71839SOL    HW117414   4.233   7.294  14.827
71839SOL    HW217415   4.091   7.346  14.837
71840SOL     OW17416   7.444   9.387   8.618
71840SOL    HW117417   7.437   9.309   8.563
71840SOL    HW217418   7.488   9.451   8.562
71841SOL     OW17419   1.596   4.555   7.856
71841SOL    HW117420   1.536   4.627   7.878
71841SOL    HW217421   1.559   4.518   7.775
71842SOL     OW17422  13.341   3.622   8.172
71842SOL    HW117423  13.410   3.559   8.153
71842SOL    HW217424  13.263   3.568   8.188
71843SOL     OW17425   7.617   2.442  10.974
71843SOL    HW117426   7.560   2.505  11.018
71843SOL    HW217427   7.622   2.473  10.883
71844SOL     OW17428   1.398   2.418  14.591
71844SOL    HW117429   1.372   2.510  14.598
71844SOL    HW217430   1.468   2.407  14.655
71845SOL     OW17431   2.272   1.971   7.229
71845SOL    HW117432   2.237   1.925   7.153
71845SOL    HW217433   2.209   1.954   7.299
71846SOL     OW17434  11.365  10.691   8.571
71846SOL    HW117435  11.414  10.638   8.508
71846SOL    HW217436  11.380  10.649   8.655
71847SOL     OW17437  11.500   4.099   8.021
71847SOL    HW117438  11.540   4.149   7.950
71847SOL    HW217439  11.571   4.085   8.083
71848SOL     OW17440  10.345   1.303   2.521
71848SOL    HW117441  10.438   1.317   2.541
71848SOL    HW217442  10.310   1.262   2.600
71849SOL     OW17443   1.516   0.035   2.619
71849SOL    HW117444   1.429   0.067   2.642
71849SOL    HW217445   1.526   0.056   2.526
71850SOL     OW17446   9.624  13.059  11.193
71850SOL    HW117447   9.629  13.153  11.179
71850SOL    HW217448   9.564  13.049  11.267
71851SOL     OW17449   9.747  13.554  13.453
71851SOL    HW117450   9.718  13.645  13.447
71851SOL    HW217451   9.757  13.537  13.546
71852SOL     OW17452  14.136  13.739  11.803
71852SOL    HW117453  14.126  13.799  11.876
71852SOL    HW217454  14.211  13.772  11.754
71853SOL     OW17455  13.880   7.080   2.133
71853SOL    HW117456  13.863   6.987   2.114
71853SOL    HW217457  13.963   7.098   2.089
71854SOL     OW17458   8.161  12.902   7.596
71854SOL    HW117459   8.097  12.973   7.587
71854SOL    HW217460   8.116  12.826   7.560
71855SOL     OW17461   3.065   8.169  11.028
71855SOL    HW117462   3.008   8.178  11.104
71855SOL    HW217463   3.104   8.082  11.038
71856SOL     OW17464  14.527   6.585   6.912
71856SOL    HW117465  14.563   6.505   6.949
71856SOL    HW217466  14.552   6.582   6.820
71857SOL     OW17467   4.465   6.561   5.676
71857SOL    HW117468   4.372   6.584   5.669
71857SOL    HW217469   4.479   6.545   5.770
71858SOL     OW17470   0.119  13.689  10.509
71858SOL    HW117471   0.035  13.647  10.488
71858SOL    HW217472   0.104  13.731  10.594
71859SOL     OW17473  12.496  14.797   2.135
71859SOL    HW117474  12.511  14.711   2.095
71859SOL    HW217475  12.403  14.815   2.118
71860SOL     OW17476   9.141   6.950   6.397
71860SOL    HW117477   9.181   7.035   6.380
71860SOL    HW217478   9.205   6.887   6.366
71861SOL     OW17479   4.657   4.253   2.632
71861SOL    HW117480   4.573   4.210   2.648
71861SOL    HW217481   4.709   4.186   2.586
71862SOL     OW17482   8.357   1.005   4.814
71862SOL    HW117483   8.297   1.001   4.739
71862SOL    HW217484   8.299   1.007   4.890
71863SOL     OW17485  10.802   6.988   9.342
71863SOL    HW117486  10.860   7.041   9.397
71863SOL    HW217487  10.851   6.976   9.261
71864SOL     OW17488   7.724  10.127   5.215
71864SOL    HW117489   7.781  10.198   5.184
71864SOL    HW217490   7.735  10.129   5.310
71865SOL     OW17491  11.248   2.611  14.004
71865SOL    HW117492  11.291   2.533  13.968
71865SOL    HW217493  11.206   2.652  13.928
71866SOL     OW17494   9.874   5.460  12.016
71866SOL    HW117495   9.841   5.545  12.044
71866SOL    HW217496   9.963   5.455  12.052
71867SOL     OW17497   2.645  14.655   3.192
71867SOL    HW117498   2.575  14.590   3.194
71867SOL    HW217499   2.669  14.662   3.099
71868SOL     OW17500   4.418   6.834  11.309
71868SOL    HW117501   4.331   6.837  11.349
71868SOL    HW217502   4.464   6.765  11.357
71869SOL     OW17503  10.786   7.743   3.286
71869SOL    HW117504  10.805   7.826   3.241
71869SOL    HW217505  10.792   7.677   3.218
71870SOL     OW17506   4.716   3.839   4.307
71870SOL    HW117507   4.680   3.914   4.260
71870SOL    HW217508   4.657   3.827   4.381
71871SOL     OW17509  13.396   7.350  13.322
71871SOL    HW117510  13.320   7.294  13.307
71871SOL    HW217511  13.471   7.292  13.319
71872SOL     OW17512  14.574   3.329   5.458
71872SOL    HW117513  14.552   3.355   5.548
71872SOL    HW217514  14.526   3.247   5.445
71873SOL     OW17515   0.491  11.007   0.463
71873SOL    HW117516   0.524  11.091   0.493
71873SOL    HW217517   0.541  10.942   0.513
71874SOL     OW17518   3.460   5.238   7.902
71874SOL    HW117519   3.408   5.270   7.828
71874SOL    HW217520   3.410   5.264   7.980
71875SOL     OW17521   5.454   4.917   4.897
71875SOL    HW117522   5.521   4.860   4.935
71875SOL    HW217523   5.392   4.932   4.968
71876SOL     OW17524   1.373   5.594   5.005
71876SOL    HW117525   1.310   5.593   5.077
71876SOL    HW217526   1.365   5.508   4.965
71877SOL     OW17527   3.797  11.179   2.856
71877SOL    HW117528   3.781  11.086   2.870
71877SOL    HW217529   3.723  11.209   2.803
71878SOL     OW17530  12.923   5.828   6.344
71878SOL    HW117531  12.938   5.897   6.279
71878SOL    HW217532  12.829   5.829   6.359
71879SOL     OW17533   0.683   7.601  12.470
71879SOL    HW117534   0.765   7.619  12.424
71879SOL    HW217535   0.674   7.673  12.533
71880SOL     OW17536   2.610   0.585  14.592
71880SOL    HW117537   2.557   0.664  14.601
71880SOL    HW217538   2.671   0.588  14.666
71881SOL     OW17539   2.625   9.803   7.323
71881SOL    HW117540   2.602   9.752   7.246
71881SOL    HW217541   2.545   9.805   7.375
71882SOL     OW17542   3.058   0.878  12.980
71882SOL    HW117543   3.054   0.801  12.924
71882SOL    HW217544   3.094   0.846  13.063
71883SOL     OW17545  14.054  10.078   9.077
71883SOL    HW117546  14.131  10.028   9.049
71883SOL    HW217547  13.980  10.018   9.065
71884SOL     OW17548   6.336  10.921   6.941
71884SOL    HW117549   6.285  10.872   6.877
71884SOL    HW217550   6.355  10.858   7.010
71885SOL     OW17551  10.562   8.324  13.432
71885SOL    HW117552  10.604   8.402  13.396
71885SOL    HW217553  10.635   8.266  13.454
71886SOL     OW17554  11.550   3.323   8.739
71886SOL    HW117555  11.506   3.358   8.662
71886SOL    HW217556  11.488   3.258   8.774
71887SOL     OW17557  12.306  10.834   7.721
71887SOL    HW117558  12.359  10.812   7.798
71887SOL    HW217559  12.271  10.749   7.692
71888SOL     OW17560  11.771   4.303  13.946
71888SOL    HW117561  11.836   4.320  14.014
71888SOL    HW217562  11.732   4.388  13.928
71889SOL     OW17563   2.689   3.297   5.311
71889SOL    HW117564   2.601   3.307   5.276
71889SOL    HW217565   2.746   3.303   5.235
71890SOL     OW17566   2.403   3.843  12.347
71890SOL    HW117567   2.409   3.749  12.331
71890SOL    HW217568   2.494   3.872  12.357
71891SOL     OW17569   4.947  10.221   2.878
71891SOL    HW117570   4.923  10.248   2.966
71891SOL    HW217571   4.872  10.247   2.824
71892SOL     OW17572   9.927   6.185   7.717
71892SOL    HW117573   9.861   6.147   7.775
71892SOL    HW217574  10.010   6.148   7.747
71893SOL     OW17575   8.115  10.842   3.363
71893SOL    HW117576   8.167  10.908   3.318
71893SOL    HW217577   8.062  10.891   3.426
71894SOL     OW17578   5.056  12.909   4.336
71894SOL    HW117579   5.002  12.893   4.413
71894SOL    HW217580   5.048  12.830   4.284
71895SOL     OW17581  11.811  10.802  13.788
71895SOL    HW117582  11.862  10.742  13.734
71895SOL    HW217583  11.825  10.772  13.878
71896SOL     OW17584  13.406  10.296   0.027
71896SOL    HW117585  13.400  10.386   0.059
71896SOL    HW217586  13.450  10.304  14.812
71897SOL     OW17587  14.648  14.171   0.975
71897SOL    HW117588  14.714  14.145   1.039
71897SOL    HW217589  14.676  14.259   0.946
71898SOL     OW17590   4.379  13.860   6.390
71898SOL    HW117591   4.401  13.914   6.465
71898SOL    HW217592   4.447  13.879   6.325
71899SOL     OW17593  13.958   8.112  13.801
71899SOL    HW117594  13.968   8.039  13.740
71899SOL    HW217595  13.965   8.071  13.887
71900SOL     OW17596   3.943   2.597  10.566
71900SOL    HW117597   3.970   2.530  10.629
71900SOL    HW217598   3.877   2.554  10.512
71901SOL     OW17599   6.878   0.084   7.303
71901SOL    HW117600   6.836   0.019   7.359
71901SOL    HW217601   6.874   0.047   7.215
71902SOL     OW17602   3.194  13.654  11.038
71902SOL    HW117603   3.273  13.611  11.072
71902SOL    HW217604   3.190  13.628  10.947
71903SOL     OW17605   5.402   5.871  12.437
71903SOL    HW117606   5.374   5.876  12.346
71903SOL    HW217607   5.344   5.931  12.484
71904SOL     OW17608   7.264   0.931   6.514
71904SOL    HW117609   7.307   0.860   6.466
71904SOL    HW217610   7.201   0.888   6.571
71905SOL     OW17611  13.316   4.760   1.024
71905SOL    HW117612  13.313   4.777   1.118
71905SOL    HW217613  13.389   4.699   1.013
71906SOL     OW17614   4.779  11.041  13.400
71906SOL    HW117615   4.812  11.130  13.415
71906SOL    HW217616   4.683  11.050  13.403
71907SOL     OW17617  11.605   5.778  12.215
71907SOL    HW117618  11.574   5.720  12.145
71907SOL    HW217619  11.546   5.853  12.210
71908SOL     OW17620   7.539  12.245   8.152
71908SOL    HW117621   7.458  12.209   8.189
71908SOL    HW217622   7.543  12.335   8.184
71909SOL     OW17623   1.533   1.441  14.026
71909SOL    HW117624   1.539   1.371  14.091
71909SOL    HW217625   1.601   1.419  13.962
71910SOL     OW17626   9.749   1.964   7.020
71910SOL    HW117627   9.762   2.011   6.937
71910SOL    HW217628   9.837   1.938   7.048
71911SOL     OW17629   7.720   4.812   6.966
71911SOL    HW117630   7.705   4.752   6.893
71911SOL    HW217631   7.633   4.838   6.995
71912SOL     OW17632  13.618  11.444  13.168
71912SOL    HW117633  13.566  11.483  13.238
71912SOL    HW217634  13.636  11.516  13.108
71913SOL     OW17635   5.459  12.516   7.651
71913SOL    HW117636   5.434  12.502   7.560
71913SOL    HW217637   5.528  12.452   7.667
71914SOL     OW17638  14.045   8.901   4.324
71914SOL    HW117639  14.086   8.967   4.269
71914SOL    HW217640  14.054   8.935   4.413
71915SOL     OW17641  14.528   0.590   2.954
71915SOL    HW117642  14.601   0.552   2.906
71915SOL    HW217643  14.543   0.685   2.950
71916SOL     OW17644   0.797  12.256  12.414
71916SOL    HW117645   0.885  12.233  12.443
71916SOL    HW217646   0.784  12.346  12.446
71917SOL     OW17647   4.835   2.716  14.061
71917SOL    HW117648   4.855   2.631  14.100
71917SOL    HW217649   4.764   2.750  14.115
71918SOL     OW17650   1.416   8.095  13.746
71918SOL    HW117651   1.359   8.077  13.821
71918SOL    HW217652   1.386   8.180  13.714
71919SOL     OW17653   1.401   1.868  13.594
71919SOL    HW117654   1.322   1.860  13.647
71919SOL    HW217655   1.391   1.952  13.549
71920SOL     OW17656   9.324   5.937   1.039
71920SOL    HW117657   9.306   6.029   1.059
71920SOL    HW217658   9.293   5.890   1.116
71921SOL     OW17659   3.350   0.899   1.771
71921SOL    HW117660   3.359   0.991   1.796
71921SOL    HW217661   3.436   0.862   1.785
71922SOL     OW17662   9.609  10.072   8.953
71922SOL    HW117663   9.692  10.117   8.936
71922SOL    HW217664   9.601  10.073   9.048
71923SOL     OW17665   1.076   9.668  14.253
71923SOL    HW117666   1.079   9.573  14.262
71923SOL    HW217667   1.015   9.683  14.180
71924SOL     OW17668   7.042  13.845   8.420
71924SOL    HW117669   6.963  13.809   8.379
71924SOL    HW217670   7.028  13.833   8.514
71925SOL     OW17671  14.090   4.423   3.578
71925SOL    HW117672  14.104   4.516   3.561
71925SOL    HW217673  14.164   4.380   3.536
71926SOL     OW17674   4.960   0.153   1.851
71926SOL    HW117675   5.047   0.142   1.811
71926SOL    HW217676   4.967   0.109   1.935
71927SOL     OW17677   0.903   1.537   6.031
71927SOL    HW117678   0.959   1.614   6.017
71927SOL    HW217679   0.960   1.462   6.013
71928SOL     OW17680   3.883  14.426   6.328
71928SOL    HW117681   3.814  14.395   6.269
71928SOL    HW217682   3.927  14.347   6.358
71929SOL     OW17683   9.123   1.247  14.138
71929SOL    HW117684   9.052   1.283  14.085
71929SOL    HW217685   9.158   1.175  14.086
71930SOL     OW17686  12.062   2.014   8.376
71930SOL    HW117687  12.083   1.955   8.304
71930SOL    HW217688  11.980   1.981   8.412
71931SOL     OW17689   0.481   3.230  12.057
71931SOL    HW117690   0.456   3.167  11.989
71931SOL    HW217691   0.521   3.176  12.125
71932SOL     OW17692  10.979   0.553   5.510
71932SOL    HW117693  10.908   0.492   5.530
71932SOL    HW217694  10.937   0.639   5.505
71933SOL     OW17695   2.487  10.748   4.235
71933SOL    HW117696   2.453  10.764   4.323
71933SOL    HW217697   2.408  10.745   4.180
71934SOL     OW17698   7.336  11.489   8.667
71934SOL    HW117699   7.265  11.441   8.711
71934SOL    HW217700   7.291  11.542   8.600
71935SOL     OW17701  10.514   3.501   1.035
71935SOL    HW117702  10.541   3.592   1.029
71935SOL    HW217703  10.572   3.463   1.102
71936SOL     OW17704  12.782   8.635   9.658
71936SOL    HW117705  12.823   8.684   9.730
71936SOL    HW217706  12.827   8.666   9.579
71937SOL     OW17707   0.929  12.562  14.297
71937SOL    HW117708   1.014  12.594  14.326
71937SOL    HW217709   0.888  12.528  14.376
71938SOL     OW17710  11.212   1.644  11.513
71938SOL    HW117711  11.150   1.572  11.518
71938SOL    HW217712  11.212   1.671  11.421
71939SOL     OW17713   3.134   3.124   0.366
71939SOL    HW117714   3.094   3.210   0.352
71939SOL    HW217715   3.104   3.097   0.452
71940SOL     OW17716  12.943  13.596   8.913
71940SOL    HW117717  13.037  13.576   8.922
71940SOL    HW217718  12.938  13.690   8.925
71941SOL     OW17719  11.785  10.782   6.364
71941SOL    HW117720  11.708  10.727   6.354
71941SOL    HW217721  11.838  10.763   6.286
71942SOL     OW17722   1.535  11.474  14.123
71942SOL    HW117723   1.572  11.405  14.178
71942SOL    HW217724   1.573  11.555  14.157
71943SOL     OW17725  11.876   7.089  11.003
71943SOL    HW117726  11.858   7.161  11.064
71943SOL    HW217727  11.792   7.072  10.961
71944SOL     OW17728   4.347  12.377   6.589
71944SOL    HW117729   4.284  12.448   6.595
71944SOL    HW217730   4.307  12.313   6.530
71945SOL     OW17731   9.830   8.485   6.498
71945SOL    HW117732   9.737   8.469   6.483
71945SOL    HW217733   9.856   8.419   6.562
71946SOL     OW17734  14.552   6.213  12.321
71946SOL    HW117735  14.523   6.262  12.398
71946SOL    HW217736  14.556   6.122  12.351
71947SOL     OW17737   8.224   6.766   9.876
71947SOL    HW117738   8.204   6.683   9.919
71947SOL    HW217739   8.180   6.761   9.791
71948SOL     OW17740   3.957   9.561   3.420
71948SOL    HW117741   3.928   9.476   3.452
71948SOL    HW217742   3.978   9.547   3.327
71949SOL     OW17743   7.267  14.687   6.191
71949SOL    HW117744   7.270  14.675   6.096
71949SOL    HW217745   7.262  14.598   6.227
71950SOL     OW17746   2.394   4.163  11.113
71950SOL    HW117747   2.407   4.180  11.206
71950SOL    HW217748   2.479   4.182  11.073
71951SOL     OW17749   9.032   2.553  11.449
71951SOL    HW117750   9.093   2.513  11.387
71951SOL    HW217751   9.013   2.639  11.410
71952SOL     OW17752   6.036   8.185   6.578
71952SOL    HW117753   6.044   8.091   6.564
71952SOL    HW217754   5.960   8.211   6.525
71953SOL     OW17755   6.092   2.703   6.823
71953SOL    HW117756   6.020   2.681   6.764
71953SOL    HW217757   6.153   2.630   6.814
71954SOL     OW17758   9.565   7.622   1.264
71954SOL    HW117759   9.553   7.593   1.354
71954SOL    HW217760   9.645   7.674   1.265
71955SOL     OW17761  10.077   3.018  14.079
71955SOL    HW117762  10.084   3.110  14.051
71955SOL    HW217763  10.167   2.995  14.105
71956SOL     OW17764  10.485   6.825   8.166
71956SOL    HW117765  10.453   6.908   8.202
71956SOL    HW217766  10.459   6.760   8.231
71957SOL     OW17767   4.311   3.379  13.274
71957SOL    HW117768   4.383   3.356  13.215
71957SOL    HW217769   4.345   3.454  13.324
71958SOL     OW17770  12.402   6.301   3.489
71958SOL    HW117771  12.317   6.263   3.467
71958SOL    HW217772  12.460   6.225   3.499
71959SOL     OW17773   8.387   3.698  13.111
71959SOL    HW117774   8.387   3.628  13.046
71959SOL    HW217775   8.307   3.684  13.162
71960SOL     OW17776   6.141   5.052  10.450
71960SOL    HW117777   6.094   5.073  10.370
71960SOL    HW217778   6.152   4.957  10.447
71961SOL     OW17779   6.380   5.664   7.356
71961SOL    HW117780   6.387   5.638   7.264
71961SOL    HW217781   6.390   5.582   7.405
71962SOL     OW17782   0.286   4.037   5.317
71962SOL    HW117783   0.355   3.986   5.360
71962SOL    HW217784   0.309   4.128   5.335
71963SOL     OW17785   5.280   9.840   3.619
71963SOL    HW117786   5.194   9.818   3.655
71963SOL    HW217787   5.334   9.764   3.638
71964SOL     OW17788   6.928  12.331  11.411
71964SOL    HW117789   6.886  12.322  11.325
71964SOL    HW217790   7.004  12.274  11.407
71965SOL     OW17791  10.544  11.925  13.456
71965SOL    HW117792  10.560  11.892  13.544
71965SOL    HW217793  10.628  11.915  13.411
71966SOL     OW17794   4.334   6.313  10.683
71966SOL    HW117795   4.276   6.359  10.621
71966SOL    HW217796   4.281   6.242  10.718
71967SOL     OW17797   9.357   9.578   1.937
71967SOL    HW117798   9.405   9.538   1.865
71967SOL    HW217799   9.419   9.578   2.010
71968SOL     OW17800   5.000   8.827   1.289
71968SOL    HW117801   5.053   8.877   1.227
71968SOL    HW217802   4.957   8.893   1.342
71969SOL     OW17803   2.723   0.082   8.266
71969SOL    HW117804   2.728   0.000   8.217
71969SOL    HW217805   2.799   0.132   8.237
71970SOL     OW17806  11.881   5.724   0.479
71970SOL    HW117807  11.811   5.785   0.457
71970SOL    HW217808  11.920   5.760   0.559
71971SOL     OW17809  14.462  13.689   0.384
71971SOL    HW117810  14.556  13.700   0.376
71971SOL    HW217811  14.433  13.661   0.297
71972SOL     OW17812   7.517   7.707   2.118
71972SOL    HW117813   7.552   7.712   2.207
71972SOL    HW217814   7.482   7.618   2.112
71973SOL     OW17815   5.584   0.564  12.151
71973SOL    HW117816   5.536   0.602  12.224
71973SOL    HW217817   5.674   0.597  12.161
71974SOL     OW17818   5.989  10.136   6.291
71974SOL    HW117819   5.900  10.116   6.321
71974SOL    HW217820   5.987  10.119   6.197
71975SOL     OW17821   8.876   1.638   2.549
71975SOL    HW117822   8.782   1.649   2.529
71975SOL    HW217823   8.918   1.635   2.463
71976SOL     OW17824  12.789  12.866   5.270
71976SOL    HW117825  12.848  12.870   5.194
71976SOL    HW217826  12.754  12.955   5.277
71977SOL     OW17827   1.779   1.122   7.909
71977SOL    HW117828   1.736   1.042   7.880
71977SOL    HW217829   1.819   1.158   7.830
71978SOL     OW17830   0.485  13.114   3.285
71978SOL    HW117831   0.478  13.072   3.199
71978SOL    HW217832   0.452  13.049   3.346
71979SOL     OW17833  10.174   9.959   5.752
71979SOL    HW117834  10.163  10.054   5.764
71979SOL    HW217835  10.089   9.930   5.717
71980SOL     OW17836   2.538   1.582  11.786
71980SOL    HW117837   2.460   1.630  11.757
71980SOL    HW217838   2.506   1.524  11.855
71981SOL     OW17839   9.370   2.817  14.053
71981SOL    HW117840   9.457   2.777  14.060
71981SOL    HW217841   9.309   2.745  14.069
71982SOL     OW17842   0.669  11.618   9.189
71982SOL    HW117843   0.731  11.553   9.158
71982SOL    HW217844   0.586  11.571   9.198
71983SOL     OW17845   7.357   3.908   0.294
71983SOL    HW117846   7.400   3.955   0.366
71983SOL    HW217847   7.388   3.952   0.215
71984SOL     OW17848  11.477  11.106   0.599
71984SOL    HW117849  11.485  11.197   0.626
71984SOL    HW217850  11.394  11.102   0.552
71985SOL     OW17851   6.995   4.712   4.323
71985SOL    HW117852   6.909   4.680   4.297
71985SOL    HW217853   7.040   4.634   4.357
71986SOL     OW17854   5.973   3.043   4.431
71986SOL    HW117855   5.920   3.081   4.361
71986SOL    HW217856   5.941   3.086   4.510
71987SOL     OW17857   5.461   5.140  14.684
71987SOL    HW117858   5.481   5.093  14.765
71987SOL    HW217859   5.382   5.097  14.651
71988SOL     OW17860   9.357  10.413   9.914
71988SOL    HW117861   9.263  10.422   9.898
71988SOL    HW217862   9.379  10.326   9.880
71989SOL     OW17863   0.693  14.536   3.464
71989SOL    HW117864   0.718  14.628   3.459
71989SOL    HW217865   0.665  14.514   3.375
71990SOL     OW17866  10.860   5.331   2.302
71990SOL    HW117867  10.825   5.398   2.361
71990SOL    HW217868  10.783   5.297   2.256
71991SOL     OW17869   2.319   5.267   4.544
71991SOL    HW117870   2.285   5.192   4.593
71991SOL    HW217871   2.406   5.282   4.582
71992SOL     OW17872   9.492   6.429  10.488
71992SOL    HW117873   9.558   6.453  10.423
71992SOL    HW217874   9.465   6.513  10.527
71993SOL     OW17875  14.858   2.527   5.959
71993SOL    HW117876  14.849   2.480   5.876
71993SOL    HW217877   0.026   2.611   5.934
71994SOL     OW17878   8.064  12.042  13.896
71994SOL    HW117879   8.114  12.122  13.912
71994SOL    HW217880   8.085  11.986  13.971
71995SOL     OW17881  10.171   9.418   8.858
71995SOL    HW117882  10.089   9.448   8.897
71995SOL    HW217883  10.173   9.324   8.876
71996SOL     OW17884   7.710  13.872   6.555
71996SOL    HW117885   7.738  13.809   6.489
71996SOL    HW217886   7.616  13.855   6.566
71997SOL     OW17887   4.177   3.097   5.288
71997SOL    HW117888   4.173   3.167   5.354
71997SOL    HW217889   4.252   3.121   5.234
71998SOL     OW17890   6.966  14.542   9.301
71998SOL    HW117891   6.947  14.635   9.293
71998SOL    HW217892   7.021  14.535   9.379
71999SOL     OW17893   2.108  11.623   6.991
71999SOL    HW117894   2.142  11.614   6.902
71999SOL    HW217895   2.115  11.535   7.028
72000SOL     OW17896  12.699   7.486   9.004
72000SOL    HW117897  12.720   7.407   8.954
72000SOL    HW217898  12.604   7.480   9.018
72001SOL     OW17899  11.838   2.041  10.118
72001SOL    HW117900  11.817   1.958  10.076
72001SOL    HW217901  11.791   2.107  10.067
72002SOL     OW17902  14.837   9.255  11.135
72002SOL    HW117903  14.781   9.177  11.132
72002SOL    HW217904  14.857   9.273  11.043
72003SOL     OW17905   5.719   6.943   7.746
72003SOL    HW117906   5.692   6.990   7.667
72003SOL    HW217907   5.705   7.006   7.816
72004SOL     OW17908   9.986   1.019   6.307
72004SOL    HW117909  10.022   1.073   6.236
72004SOL    HW217910  10.043   0.943   6.311
72005SOL     OW17911   4.431   6.940   8.981
72005SOL    HW117912   4.466   6.857   9.015
72005SOL    HW217913   4.423   6.926   8.887
72006SOL     OW17914  12.978   3.413   2.642
72006SOL    HW117915  13.056   3.378   2.684
72006SOL    HW217916  12.987   3.385   2.550
72007SOL     OW17917   4.268   1.419   7.582
72007SOL    HW117918   4.329   1.489   7.605
72007SOL    HW217919   4.322   1.357   7.532
72008SOL     OW17920   8.267   2.205   5.862
72008SOL    HW117921   8.185   2.178   5.903
72008SOL    HW217922   8.258   2.300   5.850
72009SOL     OW17923   0.562   2.017  14.222
72009SOL    HW117924   0.547   1.942  14.280
72009SOL    HW217925   0.587   2.088  14.280
72010SOL     OW17926   1.754   5.630   1.506
72010SOL    HW117927   1.837   5.616   1.461
72010SOL    HW217928   1.752   5.564   1.574
72011SOL     OW17929   5.275   6.347  12.374
72011SOL    HW117930   5.328   6.384  12.445
72011SOL    HW217931   5.331   6.278  12.337
72012SOL     OW17932   6.438   3.129   5.255
72012SOL    HW117933   6.422   3.113   5.162
72012SOL    HW217934   6.383   3.205   5.276
72013SOL     OW17935   3.086   4.992   8.672
72013SOL    HW117936   3.167   4.949   8.643
72013SOL    HW217937   3.113   5.081   8.695
72014SOL     OW17938   7.582   8.077   8.080
72014SOL    HW117939   7.561   8.170   8.073
72014SOL    HW217940   7.672   8.069   8.049
72015SOL     OW17941  12.601   8.683   1.591
72015SOL    HW117942  12.688   8.680   1.551
72015SOL    HW217943  12.614   8.654   1.681
72016SOL     OW17944   9.898  11.262  13.883
72016SOL    HW117945   9.883  11.180  13.930
72016SOL    HW217946   9.849  11.327  13.934
72017SOL     OW17947   9.554   9.898   3.554
72017SOL    HW117948   9.516   9.916   3.640
72017SOL    HW217949   9.565   9.984   3.514
72018SOL     OW17950  13.625   2.189   5.883
72018SOL    HW117951  13.617   2.106   5.929
72018SOL    HW217952  13.554   2.243   5.919
72019SOL     OW17953  13.522   7.511   9.219
72019SOL    HW117954  13.439   7.500   9.173
72019SOL    HW217955  13.588   7.479   9.158
72020SOL     OW17956  12.622   5.518   6.518
72020SOL    HW117957  12.574   5.601   6.517
72020SOL    HW217958  12.619   5.491   6.610
72021SOL     OW17959  13.816   6.671   2.256
72021SOL    HW117960  13.809   6.576   2.264
72021SOL    HW217961  13.726   6.703   2.261
72022SOL     OW17962  11.104   8.655   8.352
72022SOL    HW117963  11.038   8.701   8.300
72022SOL    HW217964  11.186   8.702   8.334
72023SOL     OW17965   0.302   4.922   7.639
72023SOL    HW117966   0.251   4.911   7.719
72023SOL    HW217967   0.251   4.876   7.572
72024SOL     OW17968   3.978   3.020   6.108
72024SOL    HW117969   3.917   3.083   6.147
72024SOL    HW217970   4.063   3.064   6.112
72025SOL     OW17971   5.270   5.541   6.075
72025SOL    HW117972   5.291   5.474   6.140
72025SOL    HW217973   5.350   5.593   6.068
72026SOL     OW17974  14.851   3.845   2.536
72026SOL    HW117975   0.019   3.758   2.523
72026SOL    HW217976   0.054   3.905   2.520
72027SOL     OW17977   4.803  14.051   5.000
72027SOL    HW117978   4.794  13.969   4.951
72027SOL    HW217979   4.893  14.078   4.985
72028SOL     OW17980   8.055   5.278  13.567
72028SOL    HW117981   7.982   5.263  13.507
72028SOL    HW217982   8.121   5.214  13.542
72029SOL     OW17983  10.874   5.937   0.902
72029SOL    HW117984  10.893   5.861   0.846
72029SOL    HW217985  10.922   5.919   0.983
72030SOL     OW17986  10.358  10.122   3.686
72030SOL    HW117987  10.330  10.075   3.764
72030SOL    HW217988  10.343  10.214   3.705
72031SOL     OW17989  12.592   2.396  12.899
72031SOL    HW117990  12.542   2.473  12.872
72031SOL    HW217991  12.527   2.338  12.939
72032SOL     OW17992  13.560   0.735   7.231
72032SOL    HW117993  13.606   0.687   7.162
72032SOL    HW217994  13.535   0.818   7.190
72033SOL     OW17995   2.052   2.571  14.372
72033SOL    HW117996   2.035   2.504  14.438
72033SOL    HW217997   1.982   2.635  14.385
72034SOL     OW17998   3.503   2.709  10.405
72034SOL    HW117999   3.476   2.800  10.417
72034SOL    HW218000   3.497   2.670  10.493
72035SOL     OW18001   5.659   2.258   6.754
72035SOL    HW118002   5.690   2.173   6.721
72035SOL    HW218003   5.650   2.312   6.676
72036SOL     OW18004  11.230   0.594  11.228
72036SOL    HW118005  11.295   0.526  11.247
72036SOL    HW218006  11.223   0.596  11.133
72037SOL     OW18007  14.762   2.866   8.656
72037SOL    HW118008  14.673   2.832   8.663
72037SOL    HW218009  14.760   2.927   8.582
72038SOL     OW18010  13.845   3.044   2.496
72038SOL    HW118011  13.796   3.124   2.516
72038SOL    HW218012  13.937   3.073   2.493
72039SOL     OW18013   4.108   6.733   9.458
72039SOL    HW118014   4.135   6.686   9.537
72039SOL    HW218015   4.189   6.768   9.422
72040SOL     OW18016  12.726   2.054   1.442
72040SOL    HW118017  12.797   1.993   1.461
72040SOL    HW218018  12.718   2.053   1.347
72041SOL     OW18019   9.866   5.542   5.026
72041SOL    HW118020   9.846   5.606   4.958
72041SOL    HW218021   9.800   5.558   5.094
72042SOL     OW18022   2.508  14.147   2.936
72042SOL    HW118023   2.472  14.059   2.944
72042SOL    HW218024   2.473  14.194   3.012
72043SOL     OW18025   7.831   8.472   6.289
72043SOL    HW118026   7.738   8.458   6.271
72043SOL    HW218027   7.833   8.549   6.346
72044SOL     OW18028   2.386   9.444  12.034
72044SOL    HW118029   2.457   9.380  12.029
72044SOL    HW218030   2.309   9.392  12.054
72045SOL     OW18031   2.854  12.152   1.222
72045SOL    HW118032   2.768  12.134   1.260
72045SOL    HW218033   2.904  12.193   1.293
72046SOL     OW18034   0.613  14.609   2.640
72046SOL    HW118035   0.542  14.644   2.587
72046SOL    HW218036   0.670  14.563   2.578
72047SOL     OW18037   1.420   1.615   5.447
72047SOL    HW118038   1.422   1.656   5.360
72047SOL    HW218039   1.344   1.557   5.445
72048SOL     OW18040   4.549  12.809   4.334
72048SOL    HW118041   4.579  12.876   4.396
72048SOL    HW218042   4.461  12.835   4.310
72049SOL     OW18043  14.801   5.811  13.176
72049SOL    HW118044  14.754   5.851  13.249
72049SOL    HW218045  14.820   5.721  13.206
72050SOL     OW18046   3.597  14.768  11.381
72050SOL    HW118047   3.509  14.745  11.352
72050SOL    HW218048   3.643  14.684  11.386
72051SOL     OW18049   1.245   8.683   9.170
72051SOL    HW118050   1.199   8.689   9.254
72051SOL    HW218051   1.337   8.694   9.193
72052SOL     OW18052  10.924  14.548  12.647
72052SOL    HW118053  11.010  14.509  12.632
72052SOL    HW218054  10.903  14.592  12.565
72053SOL     OW18055   6.314   4.536  10.818
72053SOL    HW118056   6.340   4.584  10.897
72053SOL    HW218057   6.296   4.604  10.754
72054SOL     OW18058  12.335   3.610  14.031
72054SOL    HW118059  12.388   3.589  13.954
72054SOL    HW218060  12.374   3.689  14.067
72055SOL     OW18061   1.070  14.139   0.676
72055SOL    HW118062   1.090  14.141   0.583
72055SOL    HW218063   1.041  14.228   0.697
72056SOL     OW18064  12.809   3.563  11.375
72056SOL    HW118065  12.767   3.643  11.343
72056SOL    HW218066  12.881   3.595  11.429
72057SOL     OW18067  10.308   3.040   6.752
72057SOL    HW118068  10.251   2.992   6.692
72057SOL    HW218069  10.397   3.019   6.723
72058SOL     OW18070   1.003  10.712   9.548
72058SOL    HW118071   1.057  10.658   9.491
72058SOL    HW218072   1.029  10.688   9.636
72059SOL     OW18073   6.283  10.174   5.899
72059SOL    HW118074   6.319  10.086   5.904
72059SOL    HW218075   6.209  10.167   5.838
72060SOL     OW18076  10.232   1.309  13.930
72060SOL    HW118077  10.259   1.218  13.936
72060SOL    HW218078  10.166   1.310  13.860
72061SOL     OW18079  13.747   9.285   0.402
72061SOL    HW118080  13.837   9.300   0.430
72061SOL    HW218081  13.695   9.295   0.483
72062SOL     OW18082   5.024   1.280   3.816
72062SOL    HW118083   5.096   1.340   3.797
72062SOL    HW218084   5.020   1.222   3.739
72063SOL     OW18085   8.648   3.059  14.163
72063SOL    HW118086   8.654   3.081  14.256
72063SOL    HW218087   8.573   3.109  14.131
72064SOL     OW18088   2.713  13.976   9.151
72064SOL    HW118089   2.694  14.064   9.184
72064SOL    HW218090   2.730  13.988   9.057
72065SOL     OW18091   9.429   7.852  12.060
72065SOL    HW118092   9.397   7.772  12.102
72065SOL    HW218093   9.520   7.834  12.039
72066SOL     OW18094  10.804   9.091  11.802
72066SOL    HW118095  10.717   9.066  11.771
72066SOL    HW218096  10.796   9.184  11.824
72067SOL     OW18097   4.880   9.984   7.774
72067SOL    HW118098   4.875  10.041   7.697
72067SOL    HW218099   4.866   9.896   7.739
72068SOL     OW18100  13.262   2.499   2.771
72068SOL    HW118101  13.200   2.461   2.709
72068SOL    HW218102  13.211   2.512   2.852
72069SOL     OW18103   6.010   6.608  10.311
72069SOL    HW118104   6.046   6.555  10.240
72069SOL    HW218105   6.087   6.645  10.355
72070SOL     OW18106   9.112   2.639  11.824
72070SOL    HW118107   9.047   2.705  11.850
72070SOL    HW218108   9.196   2.676  11.852
72071SOL     OW18109   4.968   2.836   9.420
72071SOL    HW118110   4.916   2.798   9.491
72071SOL    HW218111   5.007   2.760   9.376
72072SOL     OW18112  11.670   6.655  11.529
72072SOL    HW118113  11.702   6.566  11.546
72072SOL    HW218114  11.746   6.711  11.544
72073SOL     OW18115  11.553   9.293   5.258
72073SOL    HW118116  11.475   9.331   5.218
72073SOL    HW218117  11.544   9.312   5.351
72074SOL     OW18118   8.954   0.280  14.590
72074SOL    HW118119   8.962   0.186  14.572
72074SOL    HW218120   8.860   0.297  14.585
72075SOL     OW18121   8.533   3.251   2.309
72075SOL    HW118122   8.605   3.222   2.252
72075SOL    HW218123   8.461   3.269   2.248
72076SOL     OW18124   6.236  14.327   5.656
72076SOL    HW118125   6.325  14.362   5.656
72076SOL    HW218126   6.217  14.311   5.563
72077SOL     OW18127   0.772  10.960   2.014
72077SOL    HW118128   0.785  10.896   2.083
72077SOL    HW218129   0.794  11.044   2.054
72078SOL     OW18130  13.992   2.242   3.591
72078SOL    HW118131  14.060   2.205   3.647
72078SOL    HW218132  13.994   2.336   3.610
72079SOL     OW18133   9.833   5.456   0.019
72079SOL    HW118134   9.850   5.448   0.113
72079SOL    HW218135   9.739   5.439   0.011
72080SOL     OW18136  10.295   9.987  10.665
72080SOL    HW118137  10.284  10.054  10.598
72080SOL    HW218138  10.311  10.036  10.745
72081SOL     OW18139  12.088   0.858  11.701
72081SOL    HW118140  12.173   0.813  11.696
72081SOL    HW218141  12.032   0.797  11.748
72082SOL     OW18142  14.065   2.499   5.618
72082SOL    HW118143  14.004   2.573   5.612
72082SOL    HW218144  14.113   2.515   5.699
72083SOL     OW18145   1.076  14.534   5.948
72083SOL    HW118146   1.092  14.548   5.855
72083SOL    HW218147   0.984  14.557   5.960
72084SOL     OW18148  12.995   0.957   2.100
72084SOL    HW118149  12.907   0.989   2.085
72084SOL    HW218150  13.021   0.915   2.018
72085SOL     OW18151   3.424   5.566   7.869
72085SOL    HW118152   3.479   5.501   7.824
72085SOL    HW218153   3.370   5.514   7.928
72086SOL     OW18154  11.121   7.003  11.433
72086SOL    HW118155  11.087   7.024  11.346
72086SOL    HW218156  11.141   7.087  11.473
72087SOL     OW18157  14.167   9.435   0.700
72087SOL    HW118158  14.105   9.506   0.715
72087SOL    HW218159  14.252   9.471   0.724
72088SOL     OW18160   5.081  13.186   4.356
72088SOL    HW118161   5.043  13.212   4.440
72088SOL    HW218162   5.082  13.090   4.358
72089SOL     OW18163   6.257  10.718   3.787
72089SOL    HW118164   6.194  10.789   3.776
72089SOL    HW218165   6.319  10.751   3.852
72090SOL     OW18166   9.276   6.980  10.190
72090SOL    HW118167   9.193   6.978  10.142
72090SOL    HW218168   9.341   7.005  10.125
72091SOL     OW18169   9.980   5.529   3.413
72091SOL    HW118170  10.057   5.584   3.398
72091SOL    HW218171   9.971   5.478   3.332
72092SOL     OW18172   9.263  13.220   7.396
72092SOL    HW118173   9.174  13.253   7.395
72092SOL    HW218174   9.284  13.203   7.304
72093SOL     OW18175   4.971   2.449   2.451
72093SOL    HW118176   4.972   2.354   2.455
72093SOL    HW218177   5.017   2.471   2.370
72094SOL     OW18178   4.018  12.552  14.526
72094SOL    HW118179   3.936  12.507  14.547
72094SOL    HW218180   4.063  12.493  14.466
72095SOL     OW18181   5.267  12.377  11.267
72095SOL    HW118182   5.358  12.405  11.277
72095SOL    HW218183   5.245  12.400  11.177
72096SOL     OW18184   3.628   4.301  14.535
72096SOL    HW118185   3.660   4.272  14.621
72096SOL    HW218186   3.704   4.292  14.477
72097SOL     OW18187   3.369   5.571   3.789
72097SOL    HW118188   3.427   5.505   3.827
72097SOL    HW218189   3.286   5.559   3.837
72098SOL     OW18190  14.298   3.116  14.033
72098SOL    HW118191  14.209   3.094  14.062
72098SOL    HW218192  14.326   3.040  13.983
72099SOL     OW18193   1.878  11.503   8.568
72099SOL    HW118194   1.931  11.526   8.645
72099SOL    HW218195   1.933  11.441   8.519
72100SOL     OW18196   9.386  11.301  11.039
72100SOL    HW118197   9.323  11.237  11.073
72100SOL    HW218198   9.344  11.386  11.051
72101SOL     OW18199   4.296  14.864   0.020
72101SOL    HW118200   4.380  14.860   0.067
72101SOL    HW218201   4.272   0.087   0.022
72102SOL     OW18202  14.121  14.378  11.627
72102SOL    HW118203  14.156  14.444  11.567
72102SOL    HW218204  14.102  14.302  11.572
72103SOL     OW18205  12.098   2.341   2.132
72103SOL    HW118206  12.103   2.305   2.043
72103SOL    HW218207  12.170   2.298   2.179
72104SOL     OW18208   9.294  12.516   9.956
72104SOL    HW118209   9.215  12.504   9.903
72104SOL    HW218210   9.290  12.607   9.986
72105SOL     OW18211   5.653   1.925  13.760
72105SOL    HW118212   5.698   2.000  13.799
72105SOL    HW218213   5.686   1.849  13.808
72106SOL     OW18214   9.855   1.096  12.107
72106SOL    HW118215   9.827   1.070  12.195
72106SOL    HW218216   9.939   1.051  12.094
72107SOL     OW18217   1.239   4.835   0.140
72107SOL    HW118218   1.175   4.794   0.198
72107SOL    HW218219   1.255   4.921   0.180
72108SOL     OW18220   9.172   8.954  10.536
72108SOL    HW118221   9.236   8.885  10.555
72108SOL    HW218222   9.212   9.034  10.571
72109SOL     OW18223  14.228   8.682  11.569
72109SOL    HW118224  14.195   8.661  11.656
72109SOL    HW218225  14.181   8.761  11.543
72110SOL     OW18226   1.633   9.209   4.952
72110SOL    HW118227   1.586   9.260   5.018
72110SOL    HW218228   1.714   9.182   4.996
72111SOL     OW18229   9.978   6.468  11.992
72111SOL    HW118230   9.982   6.420  11.910
72111SOL    HW218231   9.929   6.411  12.051
72112SOL     OW18232   0.707  11.961   8.323
72112SOL    HW118233   0.670  12.050   8.317
72112SOL    HW218234   0.757  11.961   8.404
72113SOL     OW18235  14.560   5.769  11.759
72113SOL    HW118236  14.528   5.764  11.849
72113SOL    HW218237  14.484   5.748  11.705
72114SOL     OW18238   0.089   9.224  12.054
72114SOL    HW118239   0.005   9.201  12.094
72114SOL    HW218240   0.154   9.188  12.114
72115SOL     OW18241   1.807  14.714   7.088
72115SOL    HW118242   1.880  14.703   7.149
72115SOL    HW218243   1.825  14.653   7.017
72116SOL     OW18244  13.718  11.243   1.482
72116SOL    HW118245  13.690  11.199   1.562
72116SOL    HW218246  13.711  11.337   1.502
72117SOL     OW18247   9.892  10.270   9.877
72117SOL    HW118248   9.962  10.324   9.913
72117SOL    HW218249   9.817  10.287   9.935
72118SOL     OW18250   4.738   8.165   2.618
72118SOL    HW118251   4.646   8.166   2.592
72118SOL    HW218252   4.772   8.083   2.582
72119SOL     OW18253  11.272   6.918  10.396
72119SOL    HW118254  11.222   6.878  10.324
72119SOL    HW218255  11.352   6.867  10.401
72120SOL     OW18256   0.698   8.134   2.387
72120SOL    HW118257   0.792   8.138   2.405
72120SOL    HW218258   0.660   8.205   2.438
72121SOL     OW18259   4.440   0.939  14.832
72121SOL    HW118260   4.516   0.959   0.016
72121SOL    HW218261   4.415   1.022  14.793
72122SOL     OW18262   1.577   6.504  14.784
72122SOL    HW118263   1.597   6.591  14.820
72122SOL    HW218264   1.503   6.519  14.726
72123SOL     OW18265   1.625   9.179   0.344
72123SOL    HW118266   1.700   9.146   0.295
72123SOL    HW218267   1.664   9.221   0.421
72124SOL     OW18268  14.604  11.390   0.619
72124SOL    HW118269  14.587  11.415   0.529
72124SOL    HW218270  14.636  11.470   0.661
72125SOL     OW18271   9.375   6.650  10.970
72125SOL    HW118272   9.408   6.700  10.896
72125SOL    HW218273   9.345   6.567  10.931
72126SOL     OW18274   5.494   0.563   7.084
72126SOL    HW118275   5.446   0.643   7.060
72126SOL    HW218276   5.551   0.591   7.156
72127SOL     OW18277   3.301   9.103   9.144
72127SOL    HW118278   3.371   9.169   9.144
72127SOL    HW218279   3.322   9.046   9.218
72128SOL     OW18280   5.842  12.157  12.729
72128SOL    HW118281   5.846  12.197  12.642
72128SOL    HW218282   5.922  12.104  12.734
72129SOL     OW18283   5.491   2.439   1.960
72129SOL    HW118284   5.469   2.529   1.982
72129SOL    HW218285   5.531   2.444   1.873
72130SOL     OW18286   2.058  10.498   0.273
72130SOL    HW118287   2.020  10.417   0.238
72130SOL    HW218288   2.092  10.544   0.197
72131SOL     OW18289  10.266   9.051   4.913
72131SOL    HW118290  10.325   8.979   4.890
72131SOL    HW218291  10.308   9.128   4.875
72132SOL     OW18292   6.282   6.688   2.697
72132SOL    HW118293   6.369   6.707   2.731
72132SOL    HW218294   6.293   6.609   2.645
72133SOL     OW18295  11.316  14.711   4.410
72133SOL    HW118296  11.267  14.704   4.492
72133SOL    HW218297  11.344  14.802   4.407
72134SOL     OW18298   9.754   6.545   8.167
72134SOL    HW118299   9.696   6.614   8.136
72134SOL    HW218300   9.761   6.484   8.093
72135SOL     OW18301   6.612  10.457   1.513
72135SOL    HW118302   6.595  10.521   1.444
72135SOL    HW218303   6.636  10.509   1.589
72136SOL     OW18304   6.051  11.931   4.762
72136SOL    HW118305   5.963  11.893   4.768
72136SOL    HW218306   6.104  11.864   4.720
72137SOL     OW18307   5.383  12.603  10.120
72137SOL    HW118308   5.390  12.685  10.169
72137SOL    HW218309   5.292  12.601  10.090
72138SOL     OW18310   0.588  10.452   9.839
72138SOL    HW118311   0.566  10.532   9.886
72138SOL    HW218312   0.679  10.435   9.862
72139SOL     OW18313  14.247   0.551   0.565
72139SOL    HW118314  14.298   0.566   0.644
72139SOL    HW218315  14.156   0.546   0.595
72140SOL     OW18316  11.795  10.533   3.968
72140SOL    HW118317  11.709  10.514   4.005
72140SOL    HW218318  11.828  10.607   4.020
72141SOL     OW18319   9.657   4.667   6.880
72141SOL    HW118320   9.621   4.639   6.965
72141SOL    HW218321   9.590   4.640   6.817
72142SOL     OW18322   4.278  12.073   5.234
72142SOL    HW118323   4.241  11.986   5.251
72142SOL    HW218324   4.349  12.082   5.298
72143SOL     OW18325   2.892   3.505   3.619
72143SOL    HW118326   2.864   3.580   3.566
72143SOL    HW218327   2.941   3.450   3.558
72144SOL     OW18328   9.646   2.046   8.629
72144SOL    HW118329   9.671   2.056   8.721
72144SOL    HW218330   9.562   2.091   8.622
72145SOL     OW18331   9.392   3.666   0.052
72145SOL    HW118332   9.442   3.622   0.121
72145SOL    HW218333   9.307   3.623   0.052
72146SOL     OW18334   3.266   1.173   7.327
72146SOL    HW118335   3.238   1.124   7.405
72146SOL    HW218336   3.317   1.246   7.362
72147SOL     OW18337   2.687   6.508   0.290
72147SOL    HW118338   2.766   6.472   0.251
72147SOL    HW218339   2.674   6.457   0.370
72148SOL     OW18340   1.434   6.955  12.473
72148SOL    HW118341   1.348   6.976  12.438
72148SOL    HW218342   1.493   6.961  12.397
72149SOL     OW18343  12.098   5.265  12.069
72149SOL    HW118344  12.096   5.216  11.987
72149SOL    HW218345  12.056   5.206  12.132
72150SOL     OW18346  13.016  10.308   6.702
72150SOL    HW118347  12.958  10.324   6.777
72150SOL    HW218348  13.053  10.221   6.719
72151SOL     OW18349  13.559  13.399   3.200
72151SOL    HW118350  13.647  13.396   3.164
72151SOL    HW218351  13.555  13.483   3.247
72152SOL     OW18352   8.847   4.038  12.087
72152SOL    HW118353   8.882   4.054  12.175
72152SOL    HW218354   8.764   4.084  12.085
72153SOL     OW18355   4.930  10.660   1.494
72153SOL    HW118356   4.878  10.657   1.574
72153SOL    HW218357   4.974  10.575   1.492
72154SOL     OW18358   2.129   5.137   3.578
72154SOL    HW118359   2.100   5.071   3.641
72154SOL    HW218360   2.169   5.206   3.632
72155SOL     OW18361  11.045   9.118  12.922
72155SOL    HW118362  11.002   9.056  12.863
72155SOL    HW218363  11.073   9.190  12.865
72156SOL     OW18364  13.813   6.511   6.154
72156SOL    HW118365  13.800   6.493   6.247
72156SOL    HW218366  13.727   6.537   6.122
72157SOL     OW18367   2.120   9.790  13.095
72157SOL    HW118368   2.050   9.837  13.141
72157SOL    HW218369   2.193   9.790  13.157
72158SOL     OW18370  12.155  10.247  13.240
72158SOL    HW118371  12.171  10.330  13.195
72158SOL    HW218372  12.092  10.269  13.309
72159SOL     OW18373   7.493   7.526   9.660
72159SOL    HW118374   7.470   7.537   9.567
72159SOL    HW218375   7.470   7.436   9.681
72160SOL     OW18376   8.515   6.596   9.712
72160SOL    HW118377   8.491   6.662   9.777
72160SOL    HW218378   8.548   6.522   9.763
72161SOL     OW18379   8.968  12.823   3.111
72161SOL    HW118380   8.898  12.814   3.175
72161SOL    HW218381   9.047  12.833   3.164
72162SOL     OW18382  14.387   0.245   9.601
72162SOL    HW118383  14.399   0.210   9.689
72162SOL    HW218384  14.406   0.339   9.610
72163SOL     OW18385   6.582  14.839  12.162
72163SOL    HW118386   6.648  14.836  12.093
72163SOL    HW218387   6.501  14.859  12.117
72164SOL     OW18388   8.501   6.271   7.254
72164SOL    HW118389   8.412   6.267   7.218
72164SOL    HW218390   8.545   6.338   7.202
72165SOL     OW18391   5.202   2.831  11.682
72165SOL    HW118392   5.283   2.875  11.711
72165SOL    HW218393   5.196   2.854  11.589
72166SOL     OW18394  13.392   8.240   1.974
72166SOL    HW118395  13.363   8.189   1.898
72166SOL    HW218396  13.329   8.218   2.042
72167SOL     OW18397   9.246  12.354   9.375
72167SOL    HW118398   9.198  12.309   9.306
72167SOL    HW218399   9.181  12.366   9.445
72168SOL     OW18400   1.138   8.051  14.224
72168SOL    HW118401   1.098   7.968  14.251
72168SOL    HW218402   1.067   8.115  14.227
72169SOL     OW18403  11.954  11.538   2.298
72169SOL    HW118404  11.908  11.524   2.381
72169SOL    HW218405  12.037  11.492   2.309
72170SOL     OW18406  10.843   8.811   4.254
72170SOL    HW118407  10.799   8.735   4.215
72170SOL    HW218408  10.936   8.798   4.234
72171SOL     OW18409   3.332   7.871   7.551
72171SOL    HW118410   3.239   7.875   7.528
72171SOL    HW218411   3.332   7.840   7.642
72172SOL     OW18412   0.007  13.177   4.004
72172SOL    HW118413  14.824  13.119   3.949
72172SOL    HW218414   0.050  13.119   4.066
72173SOL     OW18415  13.245   1.700   8.125
72173SOL    HW118416  13.173   1.688   8.187
72173SOL    HW218417  13.207   1.751   8.053
72174SOL     OW18418   4.865   2.659  11.159
72174SOL    HW118419   4.913   2.741  11.168
72174SOL    HW218420   4.919   2.605  11.102
72175SOL     OW18421   9.709  14.030   0.591
72175SOL    HW118422   9.719  13.940   0.620
72175SOL    HW218423   9.799  14.061   0.578
72176SOL     OW18424   5.279   3.543  13.846
72176SOL    HW118425   5.343   3.529  13.776
72176SOL    HW218426   5.302   3.477  13.912
72177SOL     OW18427   6.817  13.635   5.517
72177SOL    HW118428   6.856  13.706   5.568
72177SOL    HW218429   6.887  13.570   5.508
72178SOL     OW18430   4.499  13.620   2.288
72178SOL    HW118431   4.524  13.646   2.377
72178SOL    HW218432   4.564  13.662   2.232
72179SOL     OW18433   4.603   5.752   9.891
72179SOL    HW118434   4.573   5.670   9.852
72179SOL    HW218435   4.671   5.783   9.831
72180SOL     OW18436   2.785   9.328   0.956
72180SOL    HW118437   2.791   9.340   0.861
72180SOL    HW218438   2.850   9.389   0.992
72181SOL     OW18439   2.584   4.637   1.352
72181SOL    HW118440   2.632   4.712   1.316
72181SOL    HW218441   2.636   4.609   1.427
72182SOL     OW18442   7.614  10.773   8.042
72182SOL    HW118443   7.575  10.859   8.059
72182SOL    HW218444   7.679  10.761   8.111
72183SOL     OW18445   9.791   4.919  11.560
72183SOL    HW118446   9.874   4.953  11.595
72183SOL    HW218447   9.814   4.834  11.522
72184SOL     OW18448  14.470   0.893   3.239
72184SOL    HW118449  14.521   0.814   3.257
72184SOL    HW218450  14.535   0.959   3.219
72185SOL     OW18451   4.240   5.674   5.258
72185SOL    HW118452   4.221   5.582   5.279
72185SOL    HW218453   4.302   5.702   5.325
72186SOL     OW18454   1.816  12.256  10.744
72186SOL    HW118455   1.735  12.285  10.787
72186SOL    HW218456   1.791  12.179  10.694
72187SOL     OW18457   4.416   9.861  14.371
72187SOL    HW118458   4.485   9.822  14.424
72187SOL    HW218459   4.462   9.905  14.300
72188SOL     OW18460   4.451   9.621   7.566
72188SOL    HW118461   4.369   9.601   7.609
72188SOL    HW218462   4.428   9.627   7.473
72189SOL     OW18463  12.297   2.669   2.311
72189SOL    HW118464  12.207   2.669   2.344
72189SOL    HW218465  12.304   2.751   2.261
72190SOL     OW18466   4.543   2.575   3.873
72190SOL    HW118467   4.575   2.532   3.953
72190SOL    HW218468   4.485   2.510   3.833
72191SOL     OW18469   5.128   3.481  13.048
72191SOL    HW118470   5.149   3.499  12.956
72191SOL    HW218471   5.084   3.396  13.046
72192SOL     OW18472   9.916   6.857   9.492
72192SOL    HW118473   9.972   6.897   9.558
72192SOL    HW218474   9.835   6.837   9.539
72193SOL     OW18475  11.375  10.341  13.998
72193SOL    HW118476  11.347  10.282  13.929
72193SOL    HW218477  11.467  10.319  14.013
72194SOL     OW18478   6.878  14.130  14.019
72194SOL    HW118479   6.939  14.058  14.036
72194SOL    HW218480   6.917  14.205  14.065
72195SOL     OW18481  10.781  12.725  14.565
72195SOL    HW118482  10.777  12.820  14.553
72195SOL    HW218483  10.822  12.692  14.485
72196SOL     OW18484   3.322   0.635   8.718
72196SOL    HW118485   3.349   0.640   8.810
72196SOL    HW218486   3.364   0.556   8.684
72197SOL     OW18487   4.988   0.090   4.146
72197SOL    HW118488   5.074   0.088   4.189
72197SOL    HW218489   4.937   0.023   4.190
72198SOL     OW18490  12.895   5.437  14.720
72198SOL    HW118491  12.800   5.442  14.732
72198SOL    HW218492  12.907   5.390  14.637
72199SOL     OW18493   8.566   6.662   5.291
72199SOL    HW118494   8.632   6.731   5.301
72199SOL    HW218495   8.613   6.591   5.248
72200SOL     OW18496   0.553   4.737   9.337
72200SOL    HW118497   0.484   4.685   9.297
72200SOL    HW218498   0.617   4.750   9.267
72201SOL     OW18499   0.655  10.652   1.988
72201SOL    HW118500   0.590  10.718   1.965
72201SOL    HW218501   0.680  10.673   2.078
72202SOL     OW18502   2.149  13.961  10.302
72202SOL    HW118503   2.150  13.969  10.398
72202SOL    HW218504   2.058  13.978  10.278
72203SOL     OW18505   4.475  13.131  10.343
72203SOL    HW118506   4.408  13.186  10.302
72203SOL    HW218507   4.448  13.041  10.323
72204SOL     OW18508   7.374   9.082   5.410
72204SOL    HW118509   7.313   9.070   5.337
72204SOL    HW218510   7.433   9.007   5.405
72205SOL     OW18511   0.899   2.927   9.913
72205SOL    HW118512   0.870   2.876   9.989
72205SOL    HW218513   0.993   2.939   9.926
72206SOL     OW18514   4.951   4.159   1.459
72206SOL    HW118515   4.981   4.212   1.533
72206SOL    HW218516   5.003   4.189   1.385
72207SOL     OW18517  11.258   0.623   3.177
72207SOL    HW118518  11.276   0.680   3.252
72207SOL    HW218519  11.262   0.681   3.102
72208SOL     OW18520   2.928  10.398  12.575
72208SOL    HW118521   2.899  10.315  12.538
72208SOL    HW218522   2.848  10.447  12.589
72209SOL     OW18523   3.636   4.289   9.860
72209SOL    HW118524   3.707   4.342   9.823
72209SOL    HW218525   3.567   4.290   9.793
72210SOL     OW18526   6.311   2.922  14.345
72210SOL    HW118527   6.281   2.984  14.279
72210SOL    HW218528   6.357   2.854  14.295
72211SOL     OW18529  10.829   6.058   3.476
72211SOL    HW118530  10.752   6.097   3.436
72211SOL    HW218531  10.869   6.007   3.405
72212SOL     OW18532   6.471  11.458   2.131
72212SOL    HW118533   6.554  11.497   2.158
72212SOL    HW218534   6.406  11.495   2.191
72213SOL     OW18535   5.367   1.811  12.078
72213SOL    HW118536   5.348   1.790  12.169
72213SOL    HW218537   5.304   1.879  12.055
72214SOL     OW18538   7.058   3.962   6.840
72214SOL    HW118539   7.059   3.905   6.917
72214SOL    HW218540   6.967   3.990   6.831
72215SOL     OW18541   4.553   2.925   5.505
72215SOL    HW118542   4.483   2.901   5.444
72215SOL    HW218543   4.573   2.844   5.551
72216SOL     OW18544  13.550   9.073  14.414
72216SOL    HW118545  13.548   8.984  14.448
72216SOL    HW218546  13.458   9.096  14.401
72217SOL     OW18547  12.319   0.340   0.365
72217SOL    HW118548  12.225   0.351   0.349
72217SOL    HW218549  12.329   0.358   0.459
72218SOL     OW18550   8.185  13.979   3.502
72218SOL    HW118551   8.246  13.909   3.528
72218SOL    HW218552   8.198  14.047   3.569
72219SOL     OW18553   1.378   0.825   6.350
72219SOL    HW118554   1.391   0.817   6.445
72219SOL    HW218555   1.442   0.765   6.312
72220SOL     OW18556   8.121   8.911  11.773
72220SOL    HW118557   8.133   8.832  11.826
72220SOL    HW218558   8.059   8.964  11.822
72221SOL     OW18559   3.038   2.428   4.491
72221SOL    HW118560   3.045   2.437   4.586
72221SOL    HW218561   2.961   2.481   4.468
72222SOL     OW18562  14.573   2.096   3.036
72222SOL    HW118563  14.663   2.125   3.053
72222SOL    HW218564  14.539   2.160   2.973
72223SOL     OW18565  12.209   2.565   5.799
72223SOL    HW118566  12.161   2.515   5.733
72223SOL    HW218567  12.240   2.499   5.861
72224SOL     OW18568   8.850   3.275  12.350
72224SOL    HW118569   8.941   3.284  12.379
72224SOL    HW218570   8.855   3.279  12.255
72225SOL     OW18571  14.789  11.568   8.912
72225SOL    HW118572  14.770  11.515   8.835
72225SOL    HW218573  14.778  11.658   8.882
72226SOL     OW18574  13.505  11.755  10.273
72226SOL    HW118575  13.428  11.806  10.300
72226SOL    HW218576  13.510  11.684  10.336
72227SOL     OW18577   5.651  14.655  13.696
72227SOL    HW118578   5.646  14.735  13.643
72227SOL    HW218579   5.561  14.625  13.704
72228SOL     OW18580   1.770   1.780   5.566
72228SOL    HW118581   1.866   1.782   5.563
72228SOL    HW218582   1.744   1.741   5.482
72229SOL     OW18583  14.518   8.905   7.335
72229SOL    HW118584  14.502   8.951   7.418
72229SOL    HW218585  14.446   8.933   7.278
72230SOL     OW18586   3.647   9.159  12.410
72230SOL    HW118587   3.709   9.106  12.361
72230SOL    HW218588   3.608   9.098  12.472
72231SOL     OW18589   4.928  10.674   0.572
72231SOL    HW118590   4.910  10.586   0.540
72231SOL    HW218591   5.015  10.669   0.610
72232SOL     OW18592  13.801   0.600   3.028
72232SOL    HW118593  13.893   0.626   3.038
72232SOL    HW218594  13.803   0.529   2.964
72233SOL     OW18595   5.267   9.581  13.346
72233SOL    HW118596   5.181   9.553  13.378
72233SOL    HW218597   5.328   9.555  13.414
72234SOL     OW18598   1.071  12.830   6.709
72234SOL    HW118599   1.097  12.760   6.649
72234SOL    HW218600   1.064  12.907   6.653
72235SOL     OW18601   4.857  13.690   8.025
72235SOL    HW118602   4.931  13.749   8.039
72235SOL    HW218603   4.856  13.633   8.102
72236SOL     OW18604   3.054   6.975  10.560
72236SOL    HW118605   3.028   6.996  10.470
72236SOL    HW218606   3.139   6.932  10.551
72237SOL     OW18607   1.994   8.761   8.128
72237SOL    HW118608   2.007   8.683   8.183
72237SOL    HW218609   2.076   8.768   8.079
72238SOL     OW18610   0.567   7.592   2.645
72238SOL    HW118611   0.487   7.618   2.600
72238SOL    HW218612   0.578   7.657   2.715
72239SOL     OW18613   9.260   5.823   1.274
72239SOL    HW118614   9.327   5.859   1.332
72239SOL    HW218615   9.251   5.732   1.302
72240SOL     OW18616  14.057  12.473   9.353
72240SOL    HW118617  14.117  12.513   9.415
72240SOL    HW218618  14.113  12.435   9.285
72241SOL     OW18619   9.523  11.700  11.655
72241SOL    HW118620   9.597  11.752  11.686
72241SOL    HW218621   9.456  11.765  11.632
72242SOL     OW18622   3.231  14.199   8.745
72242SOL    HW118623   3.227  14.264   8.675
72242SOL    HW218624   3.324  14.181   8.756
72243SOL     OW18625   8.052  11.013   6.458
72243SOL    HW118626   8.059  11.025   6.553
72243SOL    HW218627   8.116  10.945   6.438
72244SOL     OW18628   7.868  14.146   6.924
72244SOL    HW118629   7.912  14.077   6.875
72244SOL    HW218630   7.903  14.228   6.888
72245SOL     OW18631   6.444   9.914   3.510
72245SOL    HW118632   6.473   9.937   3.422
72245SOL    HW218633   6.376   9.978   3.531
72246SOL     OW18634   8.233  12.459  14.819
72246SOL    HW118635   8.259  12.422   0.034
72246SOL    HW218636   8.183  12.537  14.842
72247SOL     OW18637  10.507   2.754  11.676
72247SOL    HW118638  10.582   2.811  11.691
72247SOL    HW218639  10.497   2.706  11.759
72248SOL     OW18640  12.359   4.684   1.901
72248SOL    HW118641  12.295   4.626   1.859
72248SOL    HW218642  12.349   4.767   1.854
72249SOL     OW18643   4.557  14.580   1.554
72249SOL    HW118644   4.599  14.585   1.640
72249SOL    HW218645   4.528  14.489   1.547
72250SOL     OW18646   4.342  10.538  14.023
72250SOL    HW118647   4.381  10.519  13.938
72250SOL    HW218648   4.414  10.531  14.086
72251SOL     OW18649   8.218  11.405   4.176
72251SOL    HW118650   8.219  11.416   4.271
72251SOL    HW218651   8.131  11.373   4.156
72252SOL     OW18652   8.768   9.352   7.241
72252SOL    HW118653   8.756   9.261   7.269
72252SOL    HW218654   8.683   9.377   7.205
72253SOL     OW18655   5.733  13.052  11.402
72253SOL    HW118656   5.809  13.018  11.449
72253SOL    HW218657   5.755  13.143  11.383
72254SOL     OW18658   5.929   0.096  13.527
72254SOL    HW118659   5.989   0.027  13.499
72254SOL    HW218660   5.943   0.104  13.621
72255SOL     OW18661  10.215   1.328  10.204
72255SOL    HW118662  10.153   1.287  10.145
72255SOL    HW218663  10.177   1.414  10.224
72256SOL     OW18664   5.728  13.227  12.717
72256SOL    HW118665   5.750  13.162  12.649
72256SOL    HW218666   5.809  13.275  12.731
72257SOL     OW18667   4.046   3.044   4.565
72257SOL    HW118668   4.046   2.972   4.502
72257SOL    HW218669   4.051   3.123   4.511
72258SOL     OW18670   7.270   9.195   2.870
72258SOL    HW118671   7.279   9.232   2.958
72258SOL    HW218672   7.197   9.243   2.831
72259SOL     OW18673   6.944  14.363  13.755
72259SOL    HW118674   6.950  14.425  13.683
72259SOL    HW218675   6.868  14.309  13.735
72260SOL     OW18676   1.042  12.671   2.941
72260SOL    HW118677   1.119  12.642   2.891
72260SOL    HW218678   0.989  12.719   2.878
72261SOL     OW18679  12.093  11.841   3.453
72261SOL    HW118680  12.061  11.818   3.540
72261SOL    HW218681  12.157  11.773   3.432
72262SOL     OW18682   9.475  11.120   3.466
72262SOL    HW118683   9.555  11.089   3.425
72262SOL    HW218684   9.445  11.046   3.518
72263SOL     OW18685  11.790   4.459   5.944
72263SOL    HW118686  11.790   4.463   6.039
72263SOL    HW218687  11.735   4.532   5.916
72264SOL     OW18688  11.183   7.086  10.755
72264SOL    HW118689  11.171   7.149  10.684
72264SOL    HW218690  11.124   7.013  10.732
72265SOL     OW18691   8.132  14.211  10.431
72265SOL    HW118692   8.074  14.195  10.505
72265SOL    HW218693   8.081  14.183  10.355
72266SOL     OW18694   4.976   7.224  11.442
72266SOL    HW118695   4.902   7.198  11.387
72266SOL    HW218696   5.033   7.147  11.446
72267SOL     OW18697   2.701   1.233   3.414
72267SOL    HW118698   2.747   1.198   3.338
72267SOL    HW218699   2.685   1.325   3.393
72268SOL     OW18700  12.291   1.189  10.380
72268SOL    HW118701  12.215   1.179  10.323
72268SOL    HW218702  12.290   1.111  10.435
72269SOL     OW18703   7.569  10.599   8.283
72269SOL    HW118704   7.556  10.511   8.317
72269SOL    HW218705   7.522  10.600   8.199
72270SOL     OW18706  10.500  11.868  11.001
72270SOL    HW118707  10.523  11.782  11.036
72270SOL    HW218708  10.446  11.908  11.068
72271SOL     OW18709  12.061   3.686   7.464
72271SOL    HW118710  12.112   3.653   7.539
72271SOL    HW218711  12.109   3.763   7.434
72272SOL     OW18712   7.711   2.182   2.902
72272SOL    HW118713   7.776   2.177   2.832
72272SOL    HW218714   7.751   2.135   2.975
72273SOL     OW18715   0.831   3.230  11.490
72273SOL    HW118716   0.795   3.145  11.515
72273SOL    HW218717   0.803   3.290  11.559
72274SOL     OW18718   6.995   1.798   2.053
72274SOL    HW118719   7.035   1.885   2.056
72274SOL    HW218720   7.065   1.738   2.076
72275SOL     OW18721   6.291   9.606   6.144
72275SOL    HW118722   6.262   9.650   6.064
72275SOL    HW218723   6.263   9.664   6.214
72276SOL     OW18724   6.342   5.566   7.096
72276SOL    HW118725   6.429   5.527   7.093
72276SOL    HW218726   6.316   5.576   7.004
72277SOL     OW18727   1.599   1.090   0.301
72277SOL    HW118728   1.602   0.995   0.288
72277SOL    HW218729   1.585   1.101   0.395
72278SOL     OW18730   4.999  12.466   0.503
72278SOL    HW118731   5.076  12.492   0.554
72278SOL    HW218732   4.934  12.440   0.569
72279SOL     OW18733   2.469  13.835   5.152
72279SOL    HW118734   2.529  13.901   5.117
72279SOL    HW218735   2.465  13.854   5.246
72280SOL     OW18736   2.090   9.749   5.238
72280SOL    HW118737   2.088   9.825   5.296
72280SOL    HW218738   2.008   9.703   5.255
72281SOL     OW18739   9.028   7.792   7.048
72281SOL    HW118740   9.119   7.766   7.060
72281SOL    HW218741   9.003   7.752   6.964
72282SOL     OW18742  10.786  10.953   3.260
72282SOL    HW118743  10.855  10.887   3.257
72282SOL    HW218744  10.798  10.995   3.345
72283SOL     OW18745   4.048   3.732  10.360
72283SOL    HW118746   4.062   3.709  10.268
72283SOL    HW218747   4.035   3.827  10.359
72284SOL     OW18748   4.802   6.054  12.607
72284SOL    HW118749   4.769   5.994  12.540
72284SOL    HW218750   4.879   6.094  12.567
72285SOL     OW18751   9.589  10.244   3.175
72285SOL    HW118752   9.642  10.305   3.124
72285SOL    HW218753   9.650  10.175   3.201
72286SOL     OW18754   7.695  13.582  11.220
72286SOL    HW118755   7.757  13.513  11.199
72286SOL    HW218756   7.612  13.537  11.233
72287SOL     OW18757   6.892  14.614  11.692
72287SOL    HW118758   6.948  14.584  11.763
72287SOL    HW218759   6.938  14.691  11.656
72288SOL     OW18760   0.018   9.372  13.027
72288SOL    HW118761  14.807   9.413  13.058
72288SOL    HW218762  14.865   9.280  13.014
72289SOL     OW18763   1.209   9.888  11.318
72289SOL    HW118764   1.287   9.877  11.372
72289SOL    HW218765   1.137   9.862  11.376
72290SOL     OW18766   7.125  14.063  11.264
72290SOL    HW118767   7.056  14.114  11.222
72290SOL    HW218768   7.090  13.974  11.268
72291SOL     OW18769  14.512  13.557   7.883
72291SOL    HW118770  14.569  13.599   7.948
72291SOL    HW218771  14.532  13.464   7.890
72292SOL     OW18772  11.133   7.303  10.564
72292SOL    HW118773  11.071   7.357  10.613
72292SOL    HW218774  11.208   7.361  10.548
72293SOL     OW18775   7.204  14.217   7.131
72293SOL    HW118776   7.283  14.242   7.179
72293SOL    HW218777   7.210  14.263   7.047
72294SOL     OW18778   2.932  12.767   5.184
72294SOL    HW118779   3.006  12.755   5.244
72294SOL    HW218780   2.858  12.790   5.241
72295SOL     OW18781  10.656   3.416  12.834
72295SOL    HW118782  10.565   3.390  12.822
72295SOL    HW218783  10.705   3.333  12.832
72296SOL     OW18784   8.992   1.319   5.664
72296SOL    HW118785   8.926   1.255   5.690
72296SOL    HW218786   8.948   1.372   5.597
72297SOL     OW18787   9.056  11.875  11.099
72297SOL    HW118788   8.995  11.841  11.163
72297SOL    HW218789   9.002  11.930  11.041
72298SOL     OW18790  10.461  13.961   7.899
72298SOL    HW118791  10.430  13.877   7.866
72298SOL    HW218792  10.556  13.957   7.887
72299SOL     OW18793   0.635   3.723   4.643
72299SOL    HW118794   0.545   3.706   4.615
72299SOL    HW218795   0.669   3.637   4.668
72300SOL     OW18796   3.501  12.039   6.619
72300SOL    HW118797   3.428  12.057   6.678
72300SOL    HW218798   3.531  11.952   6.643
72301SOL     OW18799   4.916   3.004  10.635
72301SOL    HW118800   4.997   3.025  10.682
72301SOL    HW218801   4.945   2.958  10.556
72302SOL     OW18802   8.528  10.353   9.031
72302SOL    HW118803   8.486  10.435   9.059
72302SOL    HW218804   8.621  10.376   9.020
72303SOL     OW18805   2.640   3.842   6.111
72303SOL    HW118806   2.734   3.855   6.120
72303SOL    HW218807   2.632   3.771   6.047
72304SOL     OW18808   6.567   9.962   3.946
72304SOL    HW118809   6.535  10.025   4.010
72304SOL    HW218810   6.656   9.991   3.927
72305SOL     OW18811  14.105   6.510   5.267
72305SOL    HW118812  14.128   6.516   5.174
72305SOL    HW218813  14.080   6.418   5.279
72306SOL     OW18814   5.228   9.543   6.932
72306SOL    HW118815   5.186   9.483   6.870
72306SOL    HW218816   5.191   9.629   6.911
72307SOL     OW18817   7.141   3.241   2.665
72307SOL    HW118818   7.198   3.182   2.715
72307SOL    HW218819   7.194   3.319   2.650
72308SOL     OW18820  10.581   8.716   0.230
72308SOL    HW118821  10.582   8.709   0.326
72308SOL    HW218822  10.662   8.761   0.208
72309SOL     OW18823   1.997   3.203   0.029
72309SOL    HW118824   1.952   3.236  14.821
72309SOL    HW218825   1.952   3.121   0.049
72310SOL     OW18826  11.219   6.601   1.258
72310SOL    HW118827  11.275   6.666   1.300
72310SOL    HW218828  11.158   6.653   1.205
72311SOL     OW18829  10.115   9.287   5.872
72311SOL    HW118830  10.039   9.239   5.904
72311SOL    HW218831  10.115   9.272   5.777
72312SOL     OW18832  13.287   6.505  12.350
72312SOL    HW118833  13.284   6.584  12.403
72312SOL    HW218834  13.314   6.436  12.410
72313SOL     OW18835  13.236   8.397   4.206
72313SOL    HW118836  13.190   8.479   4.189
72313SOL    HW218837  13.232   8.386   4.301
72314SOL     OW18838   0.923   9.748  13.902
72314SOL    HW118839   0.919   9.826  13.957
72314SOL    HW218840   0.880   9.774  13.821
72315SOL     OW18841   8.284   3.062   7.256
72315SOL    HW118842   8.315   3.127   7.319
72315SOL    HW218843   8.197   3.092   7.230
72316SOL     OW18844  11.821   4.502   0.820
72316SOL    HW118845  11.751   4.441   0.795
72316SOL    HW218846  11.901   4.462   0.785
72317SOL     OW18847   0.023   0.176  14.055
72317SOL    HW118848  14.863   0.133  13.975
72317SOL    HW218849  14.854   0.124  14.126
72318SOL     OW18850  13.420  13.275   2.975
72318SOL    HW118851  13.461  13.334   3.038
72318SOL    HW218852  13.470  13.194   2.982
72319SOL     OW18853   9.244   3.151   4.306
72319SOL    HW118854   9.164   3.183   4.347
72319SOL    HW218855   9.213   3.100   4.231
72320SOL     OW18856  11.329   7.880  12.569
72320SOL    HW118857  11.253   7.827  12.547
72320SOL    HW218858  11.293   7.959  12.609
72321SOL     OW18859   6.104   2.848  11.482
72321SOL    HW118860   6.156   2.920  11.446
72321SOL    HW218861   6.151   2.822  11.561
72322SOL     OW18862  11.649  12.256   3.293
72322SOL    HW118863  11.669  12.204   3.370
72322SOL    HW218864  11.697  12.213   3.222
72323SOL     OW18865   6.643   5.377  14.861
72323SOL    HW118866   6.694   5.447  14.821
72323SOL    HW218867   6.559   5.377  14.814
72324SOL     OW18868  13.867  14.656  14.533
72324SOL    HW118869  13.851  14.735  14.585
72324SOL    HW218870  13.896  14.590  14.595
72325SOL     OW18871   8.637   3.094   8.154
72325SOL    HW118872   8.709   3.067   8.211
72325SOL    HW218873   8.577   3.019   8.156
72326SOL     OW18874  11.658   3.323   7.830
72326SOL    HW118875  11.671   3.406   7.876
72326SOL    HW218876  11.733   3.270   7.854
72327SOL     OW18877  12.312  14.077   6.263
72327SOL    HW118878  12.281  14.113   6.346
72327SOL    HW218879  12.256  14.000   6.248
72328SOL     OW18880  14.793   3.862   1.222
72328SOL    HW118881  14.753   3.851   1.308
72328SOL    HW218882  14.735   3.815   1.163
72329SOL     OW18883   1.498   3.839   4.793
72329SOL    HW118884   1.505   3.798   4.707
72329SOL    HW218885   1.537   3.776   4.853
72330SOL     OW18886   3.651  12.943  13.634
72330SOL    HW118887   3.563  12.925  13.667
72330SOL    HW218888   3.706  12.877  13.675
72331SOL     OW18889  11.085   4.542   5.778
72331SOL    HW118890  11.059   4.459   5.737
72331SOL    HW218891  11.038   4.609   5.729
72332SOL     OW18892  12.193   7.996   3.257
72332SOL    HW118893  12.288   8.007   3.263
72332SOL    HW218894  12.162   8.007   3.346
72333SOL     OW18895  13.872   6.106   0.582
72333SOL    HW118896  13.799   6.052   0.611
72333SOL    HW218897  13.891   6.075   0.493
72334SOL     OW18898   9.614  12.213  13.899
72334SOL    HW118899   9.541  12.197  13.959
72334SOL    HW218900   9.661  12.130  13.897
72335SOL     OW18901   1.045   8.943   9.815
72335SOL    HW118902   1.128   8.966   9.857
72335SOL    HW218903   1.011   9.026   9.783
72336SOL     OW18904   9.448  14.604  14.048
72336SOL    HW118905   9.501  14.605  13.969
72336SOL    HW218906   9.384  14.534  14.033
72337SOL     OW18907   8.391   7.651   2.700
72337SOL    HW118908   8.445   7.720   2.738
72337SOL    HW218909   8.341   7.616   2.775
72338SOL     OW18910   5.378  14.842  13.594
72338SOL    HW118911   5.363   0.003  13.505
72338SOL    HW218912   5.459   0.015  13.621
72339SOL     OW18913   9.126  11.018  10.735
72339SOL    HW118914   9.048  11.013  10.791
72339SOL    HW218915   9.198  11.029  10.797
72340SOL     OW18916   2.413   6.231   0.831
72340SOL    HW118917   2.383   6.140   0.835
72340SOL    HW218918   2.509   6.224   0.828
72341SOL     OW18919   7.710   5.976   6.875
72341SOL    HW118920   7.616   5.958   6.881
72341SOL    HW218921   7.716   6.070   6.860
72342SOL     OW18922   3.251  13.727   0.942
72342SOL    HW118923   3.329  13.756   0.989
72342SOL    HW218924   3.184  13.793   0.962
72343SOL     OW18925   7.633   5.847   5.441
72343SOL    HW118926   7.717   5.840   5.394
72343SOL    HW218927   7.570   5.873   5.374
72344SOL     OW18928   4.764   5.056   2.344
72344SOL    HW118929   4.772   4.978   2.289
72344SOL    HW218930   4.811   5.034   2.424
72345SOL     OW18931   2.046  14.160  12.140
72345SOL    HW118932   1.952  14.165  12.153
72345SOL    HW218933   2.080  14.122  12.221
72346SOL     OW18934   1.650   8.639  10.892
72346SOL    HW118935   1.593   8.562  10.888
72346SOL    HW218936   1.703   8.635  10.813
72347SOL     OW18937   3.979   5.458  11.734
72347SOL    HW118938   3.903   5.431  11.683
72347SOL    HW218939   4.000   5.382  11.788
72348SOL     OW18940   7.857   3.475   5.006
72348SOL    HW118941   7.834   3.546   5.065
72348SOL    HW218942   7.952   3.483   4.994
72349SOL     OW18943   0.760   8.305  11.052
72349SOL    HW118944   0.815   8.300  10.974
72349SOL    HW218945   0.692   8.369  11.029
72350SOL     OW18946   3.042  12.054   0.098
72350SOL    HW118947   3.101  11.980   0.082
72350SOL    HW218948   2.954  12.019   0.083
72351SOL     OW18949  13.379   0.714   7.436
72351SOL    HW118950  13.444   0.745   7.498
72351SOL    HW218951  13.429   0.692   7.357
72352SOL     OW18952  12.546   7.925   6.753
72352SOL    HW118953  12.590   8.005   6.725
72352SOL    HW218954  12.575   7.858   6.690
72353SOL     OW18955   0.820   7.185  11.632
72353SOL    HW118956   0.851   7.119  11.571
72353SOL    HW218957   0.795   7.136  11.710
72354SOL     OW18958   0.290   4.261   6.057
72354SOL    HW118959   0.243   4.339   6.085
72354SOL    HW218960   0.253   4.239   5.972
72355SOL     OW18961  14.432   6.291   7.685
72355SOL    HW118962  14.432   6.239   7.605
72355SOL    HW218963  14.495   6.360   7.669
72356SOL     OW18964   0.806   7.359   8.033
72356SOL    HW118965   0.769   7.315   7.957
72356SOL    HW218966   0.874   7.300   8.064
72357SOL     OW18967   8.280   5.295  11.594
72357SOL    HW118968   8.247   5.228  11.533
72357SOL    HW218969   8.232   5.374  11.570
72358SOL     OW18970   0.471   7.380   5.350
72358SOL    HW118971   0.526   7.390   5.428
72358SOL    HW218972   0.497   7.452   5.293
72359SOL     OW18973   8.415  12.992  10.761
72359SOL    HW118974   8.406  13.081  10.727
72359SOL    HW218975   8.417  13.003  10.856
72360SOL     OW18976   9.961  11.034  14.856
72360SOL    HW118977  10.036  11.010   0.040
72360SOL    HW218978   9.895  10.967   0.007
72361SOL     OW18979  14.461   1.680   2.966
72361SOL    HW118980  14.476   1.587   2.948
72361SOL    HW218981  14.544   1.711   3.001
72362SOL     OW18982  11.062  13.030   9.715
72362SOL    HW118983  11.118  13.032   9.638
72362SOL    HW218984  11.002  12.957   9.700
72363SOL     OW18985  14.164  10.798   3.310
72363SOL    HW118986  14.157  10.801   3.406
72363SOL    HW218987  14.096  10.858   3.280
72364SOL     OW18988   7.822  11.725   4.516
72364SOL    HW118989   7.730  11.713   4.539
72364SOL    HW218990   7.862  11.764   4.594
72365SOL     OW18991  12.250  11.722   4.493
72365SOL    HW118992  12.191  11.647   4.500
72365SOL    HW218993  12.306  11.702   4.418
72366SOL     OW18994   7.407   6.806  11.252
72366SOL    HW118995   7.312   6.811  11.266
72366SOL    HW218996   7.427   6.883  11.198
72367SOL     OW18997   3.349   6.028   6.723
72367SOL    HW118998   3.371   5.935   6.722
72367SOL    HW218999   3.397   6.063   6.799
72368SOL     OW19000   9.813  12.602   9.785
72368SOL    HW119001   9.758  12.524   9.787
72368SOL    HW219002   9.767  12.663   9.728
72369SOL     OW19003  13.395   6.846   9.807
72369SOL    HW119004  13.394   6.769   9.864
72369SOL    HW219005  13.308   6.885   9.818
72370SOL     OW19006   7.506  12.315   7.012
72370SOL    HW119007   7.552  12.357   7.085
72370SOL    HW219008   7.492  12.386   6.949
72371SOL     OW19009  11.564  10.281   4.663
72371SOL    HW119010  11.619  10.324   4.729
72371SOL    HW219011  11.584  10.188   4.674
72372SOL     OW19012   3.831   9.577  13.825
72372SOL    HW119013   3.853   9.485  13.845
72372SOL    HW219014   3.816   9.616  13.911
72373SOL     OW19015   6.820   0.058   5.200
72373SOL    HW119016   6.805   0.071   5.294
72373SOL    HW219017   6.752  14.866   5.173
72374SOL     OW19018   5.279  14.389  12.183
72374SOL    HW119019   5.186  14.388  12.207
72374SOL    HW219020   5.280  14.412  12.091
72375SOL     OW19021  13.100   1.166   8.962
72375SOL    HW119022  13.093   1.089   8.906
72375SOL    HW219023  13.168   1.219   8.920
72376SOL     OW19024   7.800   4.511   2.668
72376SOL    HW119025   7.869   4.577   2.659
72376SOL    HW219026   7.740   4.530   2.596
72377SOL     OW19027  12.459  11.893   9.911
72377SOL    HW119028  12.418  11.974   9.879
72377SOL    HW219029  12.386  11.844   9.949
72378SOL     OW19030  12.534   6.074  12.141
72378SOL    HW119031  12.574   6.017  12.074
72378SOL    HW219032  12.584   6.055  12.221
72379SOL     OW19033   4.163  11.749   2.866
72379SOL    HW119034   4.126  11.718   2.948
72379SOL    HW219035   4.235  11.806   2.893
72380SOL     OW19036   6.807   8.529   9.599
72380SOL    HW119037   6.836   8.494   9.683
72380SOL    HW219038   6.883   8.522   9.542
72381SOL     OW19039   3.593   5.346   3.063
72381SOL    HW119040   3.526   5.287   3.098
72381SOL    HW219041   3.574   5.350   2.969
72382SOL     OW19042   5.239   0.879   9.655
72382SOL    HW119043   5.171   0.845   9.714
72382SOL    HW219044   5.193   0.940   9.597
72383SOL     OW19045   4.130  12.643   3.042
72383SOL    HW119046   4.039  12.642   3.073
72383SOL    HW219047   4.156  12.551   3.042
72384SOL     OW19048  14.726  12.900   5.636
72384SOL    HW119049  14.787  12.828   5.617
72384SOL    HW219050  14.762  12.975   5.590
72385SOL     OW19051   8.247  12.714  13.310
72385SOL    HW119052   8.270  12.798  13.350
72385SOL    HW219053   8.331  12.672  13.291
72386SOL     OW19054   5.778   0.492   9.988
72386SOL    HW119055   5.785   0.454  10.076
72386SOL    HW219056   5.865   0.483   9.951
72387SOL     OW19057   8.566   1.308   1.525
72387SOL    HW119058   8.577   1.269   1.611
72387SOL    HW219059   8.545   1.399   1.542
72388SOL     OW19060   8.809   1.765   5.389
72388SOL    HW119061   8.716   1.748   5.400
72388SOL    HW219062   8.814   1.821   5.312
72389SOL     OW19063   2.193   8.040  14.247
72389SOL    HW119064   2.175   7.956  14.288
72389SOL    HW219065   2.285   8.035  14.222
72390SOL     OW19066  13.018  10.243   5.961
72390SOL    HW119067  13.039  10.333   5.939
72390SOL    HW219068  13.079  10.220   6.031
72391SOL     OW19069  13.753   9.420  13.317
72391SOL    HW119070  13.785   9.349  13.260
72391SOL    HW219071  13.826   9.437  13.377
72392SOL     OW19072   5.244   2.629   5.372
72392SOL    HW119073   5.275   2.710   5.332
72392SOL    HW219074   5.183   2.592   5.308
72393SOL     OW19075  12.504  10.004  14.459
72393SOL    HW119076  12.556  10.067  14.409
72393SOL    HW219077  12.484  10.049  14.541
72394SOL     OW19078  13.201  12.428   6.710
72394SOL    HW119079  13.189  12.365   6.782
72394SOL    HW219080  13.295  12.443   6.706
72395SOL     OW19081   0.376  14.254   9.495
72395SOL    HW119082   0.287  14.231   9.468
72395SOL    HW219083   0.364  14.328   9.554
72396SOL     OW19084  14.476   3.781   4.715
72396SOL    HW119085  14.514   3.855   4.669
72396SOL    HW219086  14.549   3.720   4.726
72397SOL     OW19087   0.239  10.130   8.502
72397SOL    HW119088   0.271  10.189   8.571
72397SOL    HW219089   0.198  10.058   8.550
72398SOL     OW19090  12.315   2.809  10.499
72398SOL    HW119091  12.262   2.871  10.549
72398SOL    HW219092  12.253   2.772  10.435
72399SOL     OW19093   9.044   7.634   5.347
72399SOL    HW119094   9.036   7.614   5.440
72399SOL    HW219095   9.125   7.684   5.339
72400SOL     OW19096  13.658   9.438   7.033
72400SOL    HW119097  13.683   9.511   7.089
72400SOL    HW219098  13.629   9.479   6.951
72401SOL     OW19099   8.888   5.488   8.578
72401SOL    HW119100   8.887   5.393   8.589
72401SOL    HW219101   8.825   5.504   8.508
72402SOL     OW19102   9.723   6.743   7.785
72402SOL    HW119103   9.741   6.665   7.733
72402SOL    HW219104   9.788   6.740   7.855
72403SOL     OW19105  11.343   2.691  14.390
72403SOL    HW119106  11.269   2.752  14.398
72403SOL    HW219107  11.402   2.732  14.328
72404SOL     OW19108   5.208  13.942  13.266
72404SOL    HW119109   5.229  13.999  13.192
72404SOL    HW219110   5.183  13.859  13.225
72405SOL     OW19111   4.995   1.592  11.711
72405SOL    HW119112   5.064   1.632  11.658
72405SOL    HW219113   4.989   1.502  11.678
72406SOL     OW19114   1.056  14.653  10.617
72406SOL    HW119115   1.011  14.569  10.607
72406SOL    HW219116   1.139  14.641  10.569
72407SOL     OW19117  14.236  13.339   6.544
72407SOL    HW119118  14.209  13.420   6.588
72407SOL    HW219119  14.155  13.305   6.506
72408SOL     OW19120   7.224   4.421  10.293
72408SOL    HW119121   7.205   4.358  10.223
72408SOL    HW219122   7.182   4.502  10.264
72409SOL     OW19123  11.559   1.857  10.034
72409SOL    HW119124  11.479   1.886   9.990
72409SOL    HW219125  11.629   1.908   9.991
72410SOL     OW19126  13.735  12.187   8.612
72410SOL    HW119127  13.787  12.127   8.558
72410SOL    HW219128  13.752  12.274   8.574
72411SOL     OW19129   6.101   1.156  11.332
72411SOL    HW119130   6.101   1.246  11.362
72411SOL    HW219131   6.067   1.160  11.242
72412SOL     OW19132   5.201  10.161   7.640
72412SOL    HW119133   5.226  10.094   7.576
72412SOL    HW219134   5.105  10.158   7.639
72413SOL     OW19135   0.853  13.297   5.083
72413SOL    HW119136   0.818  13.244   5.154
72413SOL    HW219137   0.917  13.355   5.126
72414SOL     OW19138   6.151   9.506   8.853
72414SOL    HW119139   6.077   9.455   8.821
72414SOL    HW219140   6.223   9.484   8.794
72415SOL     OW19141   0.491  11.433   9.341
72415SOL    HW119142   0.492  11.338   9.328
72415SOL    HW219143   0.439  11.466   9.268
72416SOL     OW19144  13.327  12.884   3.880
72416SOL    HW119145  13.346  12.853   3.969
72416SOL    HW219146  13.243  12.930   3.888
72417SOL     OW19147   6.495   2.294  11.148
72417SOL    HW119148   6.555   2.232  11.106
72417SOL    HW219149   6.436   2.239  11.200
72418SOL     OW19150   3.505   9.868   6.903
72418SOL    HW119151   3.583   9.820   6.878
72418SOL    HW219152   3.469   9.901   6.821
72419SOL     OW19153   3.577   5.849   1.587
72419SOL    HW119154   3.640   5.916   1.562
72419SOL    HW219155   3.597   5.830   1.678
72420SOL     OW19156  13.674   4.591   0.263
72420SOL    HW119157  13.617   4.638   0.324
72420SOL    HW219158  13.684   4.504   0.301
72421SOL     OW19159  14.040  14.364   4.517
72421SOL    HW119160  13.964  14.422   4.519
72421SOL    HW219161  14.056  14.343   4.609
72422SOL     OW19162   0.973   4.387   8.469
72422SOL    HW119163   0.988   4.295   8.446
72422SOL    HW219164   1.029   4.402   8.545
72423SOL     OW19165   6.827  10.015   3.820
72423SOL    HW119166   6.885  10.091   3.831
72423SOL    HW219167   6.775  10.036   3.743
72424SOL     OW19168   0.399  14.679  12.990
72424SOL    HW119169   0.405  14.768  13.023
72424SOL    HW219170   0.436  14.625  13.060
72425SOL     OW19171  11.925  13.080   1.315
72425SOL    HW119172  11.879  13.161   1.292
72425SOL    HW219173  12.017  13.099   1.293
72426SOL     OW19174   0.139   8.005  14.131
72426SOL    HW119175   0.128   8.099  14.124
72426SOL    HW219176   0.062   7.975  14.180
72427SOL     OW19177   7.450  14.809   2.536
72427SOL    HW119178   7.459  14.867   2.460
72427SOL    HW219179   7.438  14.722   2.498
72428SOL     OW19180  10.633   2.161   9.834
72428SOL    HW119181  10.543   2.146   9.803
72428SOL    HW219182  10.640   2.108   9.914
72429SOL     OW19183   9.242   1.168  11.184
72429SOL    HW119184   9.265   1.077  11.203
72429SOL    HW219185   9.291   1.218  11.249
72430SOL     OW19186   1.853   0.978   2.680
72430SOL    HW119187   1.854   1.061   2.632
72430SOL    HW219188   1.856   0.911   2.612
72431SOL     OW19189   2.668  14.313   6.570
72431SOL    HW119190   2.722  14.341   6.496
72431SOL    HW219191   2.620  14.393   6.595
72432SOL     OW19192  11.736   8.440   7.706
72432SOL    HW119193  11.822   8.464   7.671
72432SOL    HW219194  11.752   8.362   7.758
72433SOL     OW19195   5.141  14.099   3.427
72433SOL    HW119196   5.134  14.166   3.359
72433SOL    HW219197   5.190  14.142   3.497
72434SOL     OW19198   6.281  13.726   6.673
72434SOL    HW119199   6.287  13.784   6.749
72434SOL    HW219200   6.320  13.644   6.702
72435SOL     OW19201   9.367  10.543  10.650
72435SOL    HW119202   9.317  10.611  10.604
72435SOL    HW219203   9.401  10.487  10.581
72436SOL     OW19204   6.274   4.923  14.362
72436SOL    HW119205   6.296   4.831  14.376
72436SOL    HW219206   6.352   4.960  14.320
72437SOL     OW19207   4.516   3.302  13.103
72437SOL    HW119208   4.580   3.232  13.112
72437SOL    HW219209   4.449   3.267  13.044
72438SOL     OW19210   9.872  10.831  14.298
72438SOL    HW119211   9.851  10.924  14.306
72438SOL    HW219212   9.961  10.829  14.263
72439SOL     OW19213   2.047   8.121   6.442
72439SOL    HW119214   2.055   8.184   6.514
72439SOL    HW219215   1.973   8.153   6.391
72440SOL     OW19216   3.026   0.012  12.297
72440SOL    HW119217   2.946   0.023  12.350
72440SOL    HW219218   3.035   0.095  12.251
72441SOL     OW19219  10.398   1.074   1.917
72441SOL    HW119220  10.486   1.069   1.954
72441SOL    HW219221  10.380   1.168   1.912
72442SOL     OW19222  12.648   6.386   2.259
72442SOL    HW119223  12.619   6.315   2.201
72442SOL    HW219224  12.744   6.379   2.259
72443SOL     OW19225  13.341   8.545   9.462
72443SOL    HW119226  13.436   8.546   9.461
72443SOL    HW219227  13.315   8.586   9.380
72444SOL     OW19228   9.784   5.384   7.370
72444SOL    HW119229   9.838   5.305   7.361
72444SOL    HW219230   9.824   5.432   7.443
72445SOL     OW19231   9.169   1.449   2.667
72445SOL    HW119232   9.141   1.384   2.603
72445SOL    HW219233   9.264   1.441   2.671
72446SOL     OW19234   0.658   9.234   8.583
72446SOL    HW119235   0.613   9.153   8.559
72446SOL    HW219236   0.650   9.290   8.506
72447SOL     OW19237  13.145   7.683   1.601
72447SOL    HW119238  13.070   7.731   1.636
72447SOL    HW219239  13.133   7.686   1.506
72448SOL     OW19240   2.295  11.834   3.326
72448SOL    HW119241   2.242  11.811   3.402
72448SOL    HW219242   2.382  11.852   3.362
72449SOL     OW19243   2.420   3.478  11.143
72449SOL    HW119244   2.435   3.441  11.229
72449SOL    HW219245   2.508   3.496  11.109
72450SOL     OW19246   9.937   6.041  14.101
72450SOL    HW119247  10.015   6.092  14.081
72450SOL    HW219248   9.881   6.100  14.151
72451SOL     OW19249   0.907  12.164  13.339
72451SOL    HW119250   0.892  12.181  13.432
72451SOL    HW219251   0.968  12.232  13.311
72452SOL     OW19252   0.806   4.045  13.205
72452SOL    HW119253   0.794   4.078  13.116
72452SOL    HW219254   0.806   3.950  13.197
72453SOL     OW19255  11.242   5.429  11.502
72453SOL    HW119256  11.250   5.340  11.468
72453SOL    HW219257  11.225   5.418  11.595
72454SOL     OW19258   7.348   2.784  10.466
72454SOL    HW119259   7.427   2.748  10.508
72454SOL    HW219260   7.303   2.830  10.536
72455SOL     OW19261  10.255   1.683  11.430
72455SOL    HW119262  10.271   1.753  11.493
72455SOL    HW219263  10.311   1.705  11.355
72456SOL     OW19264  13.758   5.785   8.617
72456SOL    HW119265  13.805   5.740   8.687
72456SOL    HW219266  13.792   5.874   8.618
72457SOL     OW19267   4.551   4.716   0.598
72457SOL    HW119268   4.632   4.766   0.584
72457SOL    HW219269   4.538   4.716   0.692
72458SOL     OW19270   0.514   2.462   1.231
72458SOL    HW119271   0.599   2.479   1.191
72458SOL    HW219272   0.476   2.392   1.179
72459SOL     OW19273  14.627   5.422   1.506
72459SOL    HW119274  14.639   5.379   1.591
72459SOL    HW219275  14.701   5.482   1.499
72460SOL     OW19276   9.722   9.770   7.147
72460SOL    HW119277   9.725   9.688   7.098
72460SOL    HW219278   9.680   9.832   7.087
72461SOL     OW19279   1.539   3.224   1.541
72461SOL    HW119280   1.537   3.227   1.636
72461SOL    HW219281   1.592   3.300   1.516
72462SOL     OW19282   8.080   0.225   6.531
72462SOL    HW119283   8.036   0.145   6.558
72462SOL    HW219284   8.062   0.287   6.602
72463SOL     OW19285  12.344  10.557   4.666
72463SOL    HW119286  12.251  10.549   4.687
72463SOL    HW219287  12.350  10.636   4.612
72464SOL     OW19288   6.117  13.401   9.975
72464SOL    HW119289   6.183  13.336   9.998
72464SOL    HW219290   6.143  13.433   9.889
72465SOL     OW19291  11.213   8.344   0.726
72465SOL    HW119292  11.203   8.425   0.677
72465SOL    HW219293  11.133   8.337   0.778
72466SOL     OW19294   7.513  12.533  14.519
72466SOL    HW119295   7.467  12.514  14.436
72466SOL    HW219296   7.491  12.624  14.538
72467SOL     OW19297   6.742   7.699   7.575
72467SOL    HW119298   6.726   7.714   7.668
72467SOL    HW219299   6.705   7.613   7.558
72468SOL     OW19300  11.019   1.308   9.841
72468SOL    HW119301  11.112   1.330   9.838
72468SOL    HW219302  10.985   1.358   9.915
72469SOL     OW19303   5.772  14.389   1.801
72469SOL    HW119304   5.863  14.398   1.773
72469SOL    HW219305   5.752  14.473   1.843
72470SOL     OW19306  10.181   2.662   3.595
72470SOL    HW119307  10.109   2.674   3.658
72470SOL    HW219308  10.247   2.725   3.623
72471SOL     OW19309  10.213   9.846  13.951
72471SOL    HW119310  10.255   9.879  14.031
72471SOL    HW219311  10.267   9.771  13.925
72472SOL     OW19312  12.592   5.548   2.052
72472SOL    HW119313  12.665   5.498   2.018
72472SOL    HW219314  12.622   5.581   2.136
72473SOL     OW19315   6.296   3.996  10.396
72473SOL    HW119316   6.201   3.998  10.402
72473SOL    HW219317   6.326   4.024  10.482
72474SOL     OW19318   1.576  11.606   6.391
72474SOL    HW119319   1.514  11.671   6.424
72474SOL    HW219320   1.653  11.656   6.367
72475SOL     OW19321   4.944  12.391   9.992
72475SOL    HW119322   4.940  12.447   9.915
72475SOL    HW219323   4.871  12.330   9.982
72476SOL     OW19324  12.252   6.428   7.621
72476SOL    HW119325  12.230   6.417   7.713
72476SOL    HW219326  12.304   6.350   7.599
72477SOL     OW19327   8.794  11.318   3.872
72477SOL    HW119328   8.820  11.263   3.946
72477SOL    HW219329   8.712  11.358   3.901
72478SOL     OW19330  14.480   0.375  11.364
72478SOL    HW119331  14.390   0.401  11.344
72478SOL    HW219332  14.530   0.401  11.286
72479SOL     OW19333  10.348  13.688   6.649
72479SOL    HW119334  10.303  13.749   6.709
72479SOL    HW219335  10.375  13.743   6.576
72480SOL     OW19336   9.097   0.076  14.311
72480SOL    HW119337   9.142  14.867  14.342
72480SOL    HW219338   9.161   0.120  14.255
72481SOL     OW19339   9.282   3.189   8.466
72481SOL    HW119340   9.280   3.097   8.439
72481SOL    HW219341   9.198   3.204   8.507
72482SOL     OW19342  11.144   6.790   3.522
72482SOL    HW119343  11.175   6.749   3.603
72482SOL    HW219344  11.212   6.853   3.499
72483SOL     OW19345   1.199   2.817   9.805
72483SOL    HW119346   1.278   2.865   9.781
72483SOL    HW219347   1.223   2.771   9.885
72484SOL     OW19348  13.985   0.669  10.575
72484SOL    HW119349  14.039   0.594  10.599
72484SOL    HW219350  13.895   0.639  10.584
72485SOL     OW19351   2.055   3.891   1.781
72485SOL    HW119352   2.019   3.837   1.711
72485SOL    HW219353   2.142   3.915   1.750
72486SOL     OW19354   4.580   9.906  10.747
72486SOL    HW119355   4.623   9.919  10.831
72486SOL    HW219356   4.608   9.818  10.719
72487SOL     OW19357   2.696   7.576   5.105
72487SOL    HW119358   2.658   7.663   5.109
72487SOL    HW219359   2.724   7.557   5.194
72488SOL     OW19360  14.570   9.736  13.675
72488SOL    HW119361  14.585   9.643  13.663
72488SOL    HW219362  14.574   9.749  13.770
72489SOL     OW19363  13.203   8.770   1.086
72489SOL    HW119364  13.265   8.768   1.159
72489SOL    HW219365  13.216   8.855   1.046
72490SOL     OW19366   6.214   3.276   1.928
72490SOL    HW119367   6.231   3.339   1.997
72490SOL    HW219368   6.300   3.257   1.891
72491SOL     OW19369   0.682   4.883  11.343
72491SOL    HW119370   0.689   4.931  11.260
72491SOL    HW219371   0.675   4.951  11.410
72492SOL     OW19372  10.772   4.755   0.313
72492SOL    HW119373  10.850   4.717   0.272
72492SOL    HW219374  10.715   4.681   0.331
72493SOL     OW19375   5.824  11.884   8.821
72493SOL    HW119376   5.815  11.922   8.909
72493SOL    HW219377   5.736  11.890   8.783
72494SOL     OW19378   0.494   5.851  10.999
72494SOL    HW119379   0.531   5.868  11.086
72494SOL    HW219380   0.455   5.934  10.973
72495SOL     OW19381   1.964   8.879   1.569
72495SOL    HW119382   1.958   8.974   1.556
72495SOL    HW219383   1.965   8.867   1.664
72496SOL     OW19384   8.007  10.804  13.102
72496SOL    HW119385   7.923  10.765  13.079
72496SOL    HW219386   8.011  10.885  13.051
72497SOL     OW19387  11.348  14.066  13.092
72497SOL    HW119388  11.323  13.974  13.099
72497SOL    HW219389  11.395  14.084  13.174
72498SOL     OW19390  10.100   9.884  12.895
72498SOL    HW119391  10.148   9.913  12.817
72498SOL    HW219392  10.102   9.788  12.890
72499SOL     OW19393   4.322   3.397   2.859
72499SOL    HW119394   4.397   3.443   2.895
72499SOL    HW219395   4.341   3.304   2.875
72500SOL     OW19396   4.656   8.969   0.709
72500SOL    HW119397   4.702   9.044   0.672
72500SOL    HW219398   4.600   8.938   0.638
72501SOL     OW19399  12.595  14.715   7.020
72501SOL    HW119400  12.683  14.746   7.044
72501SOL    HW219401  12.610  14.634   6.972
72502SOL     OW19402  11.882  14.244  13.393
72502SOL    HW119403  11.893  14.248  13.488
72502SOL    HW219404  11.970  14.259  13.358
72503SOL     OW19405   9.899   4.077   3.369
72503SOL    HW119406   9.829   4.141   3.359
72503SOL    HW219407   9.959   4.116   3.432
72504SOL     OW19408   7.085  10.888   9.458
72504SOL    HW119409   7.153  10.821   9.446
72504SOL    HW219410   7.044  10.897   9.372
72505SOL     OW19411  12.359   7.991   9.571
72505SOL    HW119412  12.371   7.932   9.645
72505SOL    HW219413  12.424   7.963   9.506
72506SOL     OW19414  10.183  14.807   1.480
72506SOL    HW119415  10.101  14.855   1.468
72506SOL    HW219416  10.179  14.736   1.417
72507SOL     OW19417  13.800   3.825   6.471
72507SOL    HW119418  13.764   3.766   6.537
72507SOL    HW219419  13.751   3.804   6.391
72508SOL     OW19420   2.041  11.492  12.909
72508SOL    HW119421   2.095  11.565  12.878
72508SOL    HW219422   2.055  11.423  12.845
72509SOL     OW19423   2.698   9.790   0.611
72509SOL    HW119424   2.780   9.764   0.653
72509SOL    HW219425   2.719   9.793   0.517
72510SOL     OW19426   3.896   3.924  14.403
72510SOL    HW119427   3.829   3.984  14.370
72510SOL    HW219428   3.915   3.867  14.329
72511SOL     OW19429   7.905   3.688   4.561
72511SOL    HW119430   7.854   3.631   4.618
72511SOL    HW219431   7.921   3.636   4.482
72512SOL     OW19432   0.300   7.788   3.401
72512SOL    HW119433   0.379   7.798   3.455
72512SOL    HW219434   0.235   7.844   3.444
72513SOL     OW19435   6.965  14.548   3.461
72513SOL    HW119436   6.960  14.490   3.537
72513SOL    HW219437   6.984  14.634   3.497
72514SOL     OW19438  12.479   4.956  13.148
72514SOL    HW119439  12.391   4.972  13.181
72514SOL    HW219440  12.492   5.024  13.082
72515SOL     OW19441  10.338   8.230   0.392
72515SOL    HW119442  10.379   8.283   0.324
72515SOL    HW219443  10.245   8.254   0.388
72516SOL     OW19444  10.013   3.675   0.151
72516SOL    HW119445  10.006   3.594   0.099
72516SOL    HW219446  10.057   3.737   0.093
72517SOL     OW19447  12.267   7.184   2.599
72517SOL    HW119448  12.362   7.188   2.605
72517SOL    HW219449  12.240   7.127   2.670
72518SOL     OW19450   7.281  13.540   5.312
72518SOL    HW119451   7.239  13.539   5.226
72518SOL    HW219452   7.367  13.502   5.298
72519SOL     OW19453   4.136  10.738   3.316
72519SOL    HW119454   4.174  10.654   3.338
72519SOL    HW219455   4.043  10.720   3.301
72520SOL     OW19456   3.719   2.205   7.989
72520SOL    HW119457   3.700   2.232   7.899
72520SOL    HW219458   3.790   2.264   8.017
72521SOL     OW19459   6.080  14.002   7.893
72521SOL    HW119460   6.062  14.009   7.799
72521SOL    HW219461   6.087  14.092   7.924
72522SOL     OW19462   5.232  10.235   4.404
72522SOL    HW119463   5.270  10.322   4.398
72522SOL    HW219464   5.193  10.232   4.491
72523SOL     OW19465   9.795   5.572   3.145
72523SOL    HW119466   9.851   5.499   3.172
72523SOL    HW219467   9.726   5.575   3.211
72524SOL     OW19468   1.235   1.020   0.623
72524SOL    HW119469   1.147   1.050   0.642
72524SOL    HW219470   1.256   0.960   0.694
72525SOL     OW19471   4.620  11.387   8.512
72525SOL    HW119472   4.705  11.419   8.484
72525SOL    HW219473   4.637  11.296   8.539
72526SOL     OW19474  11.565   8.697   4.112
72526SOL    HW119475  11.490   8.753   4.091
72526SOL    HW219476  11.598   8.731   4.195
72527SOL     OW19477   7.419  11.783   3.815
72527SOL    HW119478   7.346  11.816   3.762
72527SOL    HW219479   7.417  11.688   3.803
72528SOL     OW19480  11.718  11.137   4.510
72528SOL    HW119481  11.809  11.110   4.501
72528SOL    HW219482  11.676  11.065   4.557
72529SOL     OW19483   2.292  13.900  12.117
72529SOL    HW119484   2.211  13.922  12.071
72529SOL    HW219485   2.361  13.942  12.066
72530SOL     OW19486   4.724  12.818   8.546
72530SOL    HW119487   4.786  12.866   8.600
72530SOL    HW219488   4.663  12.885   8.514
72531SOL     OW19489   6.312  12.153   8.992
72531SOL    HW119490   6.250  12.131   8.922
72531SOL    HW219491   6.346  12.239   8.969
72532SOL     OW19492  12.267   0.106   0.032
72532SOL    HW119493  12.347   0.092  14.851
72532SOL    HW219494  12.255   0.026   0.083
72533SOL     OW19495   4.946   8.330   5.971
72533SOL    HW119496   4.993   8.291   6.045
72533SOL    HW219497   4.855   8.306   5.986
72534SOL     OW19498   3.512   3.891  10.936
72534SOL    HW119499   3.453   3.860  11.004
72534SOL    HW219500   3.582   3.935  10.983
72535SOL     OW19501  13.818   7.376   8.489
72535SOL    HW119502  13.905   7.381   8.528
72535SOL    HW219503  13.834   7.372   8.395
72536SOL     OW19504   0.320   0.183  14.368
72536SOL    HW119505   0.290   0.207  14.281
72536SOL    HW219506   0.281   0.249  14.426
72537SOL     OW19507   2.027   4.252   3.936
72537SOL    HW119508   1.975   4.186   3.891
72537SOL    HW219509   1.965   4.322   3.957
72538SOL     OW19510  11.434  11.960   3.409
72538SOL    HW119511  11.345  11.949   3.444
72538SOL    HW219512  11.422  11.966   3.315
72539SOL     OW19513   5.055   8.464   5.479
72539SOL    HW119514   5.054   8.498   5.389
72539SOL    HW219515   4.985   8.512   5.524
72540SOL     OW19516   8.259  13.177   7.929
72540SOL    HW119517   8.325  13.226   7.978
72540SOL    HW219518   8.197  13.147   7.996
72541SOL     OW19519   1.945  14.687  10.418
72541SOL    HW119520   1.953  14.707  10.511
72541SOL    HW219521   2.021  14.728  10.378
72542SOL     OW19522   7.206   8.339  13.935
72542SOL    HW119523   7.247   8.413  13.980
72542SOL    HW219524   7.195   8.370  13.844
72543SOL     OW19525   9.606   9.231  11.741
72543SOL    HW119526   9.579   9.151  11.786
72543SOL    HW219527   9.552   9.233  11.662
72544SOL     OW19528   2.828   3.288  10.232
72544SOL    HW119529   2.878   3.342  10.171
72544SOL    HW219530   2.789   3.220  10.178
72545SOL     OW19531   8.243   7.101  12.554
72545SOL    HW119532   8.309   7.039  12.523
72545SOL    HW219533   8.285   7.186  12.548
72546SOL     OW19534  11.351   2.014  12.549
72546SOL    HW119535  11.368   2.045  12.638
72546SOL    HW219536  11.278   2.068  12.519
72547SOL     OW19537   8.262   5.452  10.160
72547SOL    HW119538   8.290   5.543  10.173
72547SOL    HW219539   8.343   5.401  10.161
72548SOL     OW19540   0.379   4.680   9.542
72548SOL    HW119541   0.327   4.759   9.554
72548SOL    HW219542   0.446   4.704   9.478
72549SOL     OW19543   0.385  10.552   6.001
72549SOL    HW119544   0.433  10.535   5.920
72549SOL    HW219545   0.406  10.643   6.022
72550SOL     OW19546  13.905  11.036   1.505
72550SOL    HW119547  13.855  11.118   1.506
72550SOL    HW219548  13.996  11.063   1.523
72551SOL     OW19549   6.343  13.868   6.889
72551SOL    HW119550   6.374  13.959   6.884
72551SOL    HW219551   6.341  13.849   6.983
72552SOL     OW19552   6.776   6.435   9.574
72552SOL    HW119553   6.710   6.491   9.534
72552SOL    HW219554   6.753   6.434   9.667
72553SOL     OW19555  12.955   9.698  10.549
72553SOL    HW119556  12.926   9.789  10.557
72553SOL    HW219557  12.877   9.646  10.571
72554SOL     OW19558   2.139  13.286   2.315
72554SOL    HW119559   2.141  13.373   2.276
72554SOL    HW219560   2.172  13.228   2.246
72555SOL     OW19561   3.810   4.814  12.606
72555SOL    HW119562   3.892   4.767  12.594
72555SOL    HW219563   3.775   4.782  12.689
72556SOL     OW19564   0.697   2.112   0.824
72556SOL    HW119565   0.752   2.109   0.745
72556SOL    HW219566   0.653   2.197   0.819
72557SOL     OW19567   4.145  12.884   7.196
72557SOL    HW119568   4.106  12.823   7.133
72557SOL    HW219569   4.168  12.830   7.271
72558SOL     OW19570   0.021   5.517   1.459
72558SOL    HW119571   0.104   5.561   1.477
72558SOL    HW219572  14.838   5.585   1.416
72559SOL     OW19573  13.066  12.383   9.959
72559SOL    HW119574  13.120  12.314   9.920
72559SOL    HW219575  13.059  12.359  10.051
72560SOL     OW19576   8.403  14.512  14.808
72560SOL    HW119577   8.452  14.535   0.017
72560SOL    HW219578   8.312  14.534  14.829
72561SOL     OW19579   5.659   6.185   2.206
72561SOL    HW119580   5.638   6.249   2.274
72561SOL    HW219581   5.651   6.100   2.251
72562SOL     OW19582  13.995   5.599   9.021
72562SOL    HW119583  14.025   5.596   9.112
72562SOL    HW219584  13.929   5.529   9.015
72563SOL     OW19585  13.677   4.545   8.866
72563SOL    HW119586  13.726   4.621   8.898
72563SOL    HW219587  13.692   4.545   8.772
72564SOL     OW19588   9.757   3.594  13.992
72564SOL    HW119589   9.836   3.563  14.038
72564SOL    HW219590   9.685   3.548  14.035
72565SOL     OW19591  11.237  10.192  11.796
72565SOL    HW119592  11.292  10.114  11.802
72565SOL    HW219593  11.251  10.224  11.707
72566SOL     OW19594  13.452  14.586   7.338
72566SOL    HW119595  13.417  14.497   7.336
72566SOL    HW219596  13.547  14.573   7.343
72567SOL     OW19597  14.840  12.015  12.736
72567SOL    HW119598  14.844  12.065  12.817
72567SOL    HW219599   0.060  11.987  12.719
72568SOL     OW19600  11.633  14.705   0.352
72568SOL    HW119601  11.543  14.685   0.379
72568SOL    HW219602  11.623  14.761   0.276
72569SOL     OW19603   9.600   1.790   7.622
72569SOL    HW119604   9.645   1.775   7.538
72569SOL    HW219605   9.526   1.847   7.599
72570SOL     OW19606   9.445  10.658   9.985
72570SOL    HW119607   9.514  10.655  10.052
72570SOL    HW219608   9.431  10.566   9.962
72571SOL     OW19609  12.536   9.394   4.532
72571SOL    HW119610  12.471   9.460   4.554
72571SOL    HW219611  12.490   9.332   4.476
72572SOL     OW19612   3.519   7.776   1.790
72572SOL    HW119613   3.444   7.835   1.785
72572SOL    HW219614   3.483   7.690   1.769
72573SOL     OW19615   9.146   3.288   2.806
72573SOL    HW119616   9.066   3.323   2.843
72573SOL    HW219617   9.138   3.193   2.818
72574SOL     OW19618  11.865   0.784   5.045
72574SOL    HW119619  11.779   0.770   5.085
72574SOL    HW219620  11.927   0.775   5.118
72575SOL     OW19621   4.168   4.045  12.108
72575SOL    HW119622   4.188   4.077  12.196
72575SOL    HW219623   4.226   3.969  12.096
72576SOL     OW19624   9.308   3.637   8.203
72576SOL    HW119625   9.385   3.684   8.236
72576SOL    HW219626   9.308   3.555   8.252
72577SOL     OW19627   8.839   1.528   4.597
72577SOL    HW119628   8.801   1.601   4.648
72577SOL    HW219629   8.934   1.539   4.606
72578SOL     OW19630  13.838   0.357   2.904
72578SOL    HW119631  13.901   0.287   2.888
72578SOL    HW219632  13.754   0.320   2.877
72579SOL     OW19633   5.479  14.137   4.850
72579SOL    HW119634   5.526  14.193   4.912
72579SOL    HW219635   5.528  14.055   4.849
72580SOL     OW19636   7.947   4.789   1.517
72580SOL    HW119637   8.002   4.777   1.439
72580SOL    HW219638   7.957   4.708   1.566
72581SOL     OW19639  12.497   7.089  10.980
72581SOL    HW119640  12.543   7.160  11.023
72581SOL    HW219641  12.566   7.040  10.935
72582SOL     OW19642  11.663   8.127  14.536
72582SOL    HW119643  11.645   8.101  14.626
72582SOL    HW219644  11.588   8.094  14.486
72583SOL     OW19645  12.637  13.379   3.256
72583SOL    HW119646  12.549  13.351   3.281
72583SOL    HW219647  12.635  13.381   3.160
72584SOL     OW19648  14.607   1.678   7.999
72584SOL    HW119649  14.677   1.661   7.936
72584SOL    HW219650  14.527   1.652   7.953
72585SOL     OW19651   3.326  14.396   0.805
72585SOL    HW119652   3.363  14.453   0.872
72585SOL    HW219653   3.389  14.325   0.796
72586SOL     OW19654   1.708   6.930  11.402
72586SOL    HW119655   1.620   6.935  11.440
72586SOL    HW219656   1.764   6.970  11.468
72587SOL     OW19657   3.639   5.306  13.014
72587SOL    HW119658   3.674   5.280  12.929
72587SOL    HW219659   3.658   5.400  13.019
72588SOL     OW19660  13.447   6.428  14.588
72588SOL    HW119661  13.412   6.380  14.513
72588SOL    HW219662  13.461   6.517  14.555
72589SOL     OW19663   7.613  14.166   4.463
72589SOL    HW119664   7.620  14.113   4.543
72589SOL    HW219665   7.649  14.251   4.488
72590SOL     OW19666  10.474   7.654  14.372
72590SOL    HW119667  10.396   7.652  14.315
72590SOL    HW219668  10.539   7.702  14.321
72591SOL     OW19669   4.528   7.601   9.265
72591SOL    HW119670   4.438   7.596   9.234
72591SOL    HW219671   4.520   7.605   9.361
72592SOL     OW19672  11.374  11.269   5.670
72592SOL    HW119673  11.289  11.291   5.709
72592SOL    HW219674  11.438  11.295   5.736
72593SOL     OW19675   7.239   6.282  10.254
72593SOL    HW119676   7.312   6.284  10.316
72593SOL    HW219677   7.198   6.196  10.267
72594SOL     OW19678   3.229  14.436   2.940
72594SOL    HW119679   3.286  14.510   2.962
72594SOL    HW219680   3.289  14.363   2.927
72595SOL     OW19681  10.380   0.651   8.160
72595SOL    HW119682  10.370   0.565   8.201
72595SOL    HW219683  10.351   0.713   8.227
72596SOL     OW19684   1.313   7.200  12.651
72596SOL    HW119685   1.403   7.215  12.624
72596SOL    HW219686   1.279   7.136  12.588
72597SOL     OW19687  11.004  10.281   4.206
72597SOL    HW119688  11.030  10.285   4.298
72597SOL    HW219689  11.008  10.187   4.185
72598SOL     OW19690   7.464  14.728   5.604
72598SOL    HW119691   7.414  14.706   5.525
72598SOL    HW219692   7.535  14.664   5.605
72599SOL     OW19693   1.723   2.967   3.368
72599SOL    HW119694   1.766   3.046   3.336
72599SOL    HW219695   1.759   2.896   3.314
72600SOL     OW19696   6.006   3.123  13.102
72600SOL    HW119697   6.022   3.216  13.084
72600SOL    HW219698   6.065   3.077  13.042
72601SOL     OW19699   1.121  11.702  13.280
72601SOL    HW119700   1.139  11.619  13.237
72601SOL    HW219701   1.144  11.769  13.216
72602SOL     OW19702   9.144   1.389   7.345
72602SOL    HW119703   9.152   1.484   7.336
72602SOL    HW219704   9.179   1.370   7.432
72603SOL     OW19705   0.032   6.862  11.227
72603SOL    HW119706  14.832   6.924  11.207
72603SOL    HW219707   0.081   6.904  11.299
72604SOL     OW19708  12.229  13.316   5.350
72604SOL    HW119709  12.162  13.282   5.291
72604SOL    HW219710  12.197  13.295   5.438
72605SOL     OW19711  13.528  13.357  12.628
72605SOL    HW119712  13.560  13.268  12.611
72605SOL    HW219713  13.523  13.398  12.542
72606SOL     OW19714   8.323   1.437  11.141
72606SOL    HW119715   8.329   1.348  11.175
72606SOL    HW219716   8.233   1.463  11.158
72607SOL     OW19717  14.496   0.982   7.190
72607SOL    HW119718  14.476   0.969   7.283
72607SOL    HW219719  14.451   0.911   7.145
72608SOL     OW19720  13.987   6.379  13.497
72608SOL    HW119721  14.047   6.317  13.456
72608SOL    HW219722  14.035   6.462  13.499
72609SOL     OW19723  10.397  11.680  13.021
72609SOL    HW119724  10.449  11.697  13.100
72609SOL    HW219725  10.318  11.732  13.033
72610SOL     OW19726  12.407   8.801  13.848
72610SOL    HW119727  12.431   8.764  13.764
72610SOL    HW219728  12.451   8.746  13.913
72611SOL     OW19729  10.344  10.824  12.906
72611SOL    HW119730  10.378  10.896  12.960
72611SOL    HW219731  10.413  10.808  12.842
72612SOL     OW19732   9.954  13.333  10.806
72612SOL    HW119733  10.006  13.391  10.751
72612SOL    HW219734  10.018  13.281  10.854
72613SOL     OW19735   3.769   5.313   5.024
72613SOL    HW119736   3.770   5.409   5.017
72613SOL    HW219737   3.835   5.293   5.090
72614SOL     OW19738  14.532   1.456   0.666
72614SOL    HW119739  14.525   1.527   0.729
72614SOL    HW219740  14.461   1.396   0.689
72615SOL     OW19741  10.567  10.271   5.046
72615SOL    HW119742  10.636  10.315   5.096
72615SOL    HW219743  10.510  10.341   5.015
72616SOL     OW19744   9.197  14.783   2.380
72616SOL    HW119745   9.256  14.816   2.448
72616SOL    HW219746   9.191  14.689   2.397
72617SOL     OW19747   1.180  14.179   1.990
72617SOL    HW119748   1.270  14.155   1.965
72617SOL    HW219749   1.140  14.210   1.909
72618SOL     OW19750   0.070   3.772   4.645
72618SOL    HW119751   0.051   3.858   4.608
72618SOL    HW219752   0.004   3.759   4.712
72619SOL     OW19753   3.022   9.634  14.093
72619SOL    HW119754   2.929   9.645  14.072
72619SOL    HW219755   3.045   9.550  14.055
72620SOL     OW19756   6.545   9.669  11.979
72620SOL    HW119757   6.638   9.664  12.001
72620SOL    HW219758   6.520   9.760  11.998
72621SOL     OW19759   0.183   4.085  14.556
72621SOL    HW119760   0.095   4.088  14.520
72621SOL    HW219761   0.211   4.177  14.560
72622SOL     OW19762  10.485   2.709  13.962
72622SOL    HW119763  10.397   2.712  14.002
72622SOL    HW219764  10.490   2.623  13.921
72623SOL     OW19765   4.200  12.392  14.376
72623SOL    HW119766   4.267  12.457  14.394
72623SOL    HW219767   4.207  12.329  14.447
72624SOL     OW19768   5.402   2.938   4.248
72624SOL    HW119769   5.368   2.888   4.174
72624SOL    HW219770   5.480   2.891   4.276
72625SOL     OW19771  14.572  12.309   3.273
72625SOL    HW119772  14.603  12.236   3.220
72625SOL    HW219773  14.500  12.346   3.223
72626SOL     OW19774  11.530   5.824  11.146
72626SOL    HW119775  11.563   5.743  11.183
72626SOL    HW219776  11.479   5.863  11.217
72627SOL     OW19777  13.994   7.880  10.984
72627SOL    HW119778  14.053   7.810  10.955
72627SOL    HW219779  14.045   7.960  10.976
72628SOL     OW19780  10.212   7.849  11.963
72628SOL    HW119781  10.212   7.943  11.948
72628SOL    HW219782  10.127   7.819  11.929
72629SOL     OW19783   6.577   1.373   2.162
72629SOL    HW119784   6.523   1.430   2.107
72629SOL    HW219785   6.575   1.288   2.118
72630SOL     OW19786  10.073  14.809   7.117
72630SOL    HW119787  10.009   0.009   7.132
72630SOL    HW219788  10.095  14.817   7.024
72631SOL     OW19789  10.397  14.522   2.373
72631SOL    HW119790  10.357  14.443   2.335
72631SOL    HW219791  10.476  14.490   2.416
72632SOL     OW19792   9.300   8.502   2.038
72632SOL    HW119793   9.286   8.581   1.986
72632SOL    HW219794   9.361   8.528   2.107
72633SOL     OW19795   0.073   9.293   2.481
72633SOL    HW119796   0.076   9.198   2.467
72633SOL    HW219797   0.153   9.327   2.441
72634SOL     OW19798  12.165   5.187   6.774
72634SOL    HW119799  12.152   5.171   6.868
72634SOL    HW219800  12.260   5.190   6.763
72635SOL     OW19801   5.055   1.028   7.360
72635SOL    HW119802   4.983   1.052   7.302
72635SOL    HW219803   5.050   0.933   7.367
72636SOL     OW19804   5.902  13.222   5.868
72636SOL    HW119805   5.844  13.173   5.810
72636SOL    HW219806   5.945  13.155   5.921
72637SOL     OW19807   8.149   7.066  11.416
72637SOL    HW119808   8.088   7.052  11.488
72637SOL    HW219809   8.177   7.157  11.425
72638SOL     OW19810   6.370   6.486  13.553
72638SOL    HW119811   6.446   6.512  13.604
72638SOL    HW219812   6.406   6.462  13.467
72639SOL     OW19813   5.168   7.774   4.150
72639SOL    HW119814   5.189   7.825   4.228
72639SOL    HW219815   5.101   7.826   4.105
72640SOL     OW19816   7.825   4.133   8.745
72640SOL    HW119817   7.846   4.066   8.809
72640SOL    HW219818   7.731   4.148   8.756
72641SOL     OW19819  10.706   0.161   1.588
72641SOL    HW119820  10.728   0.252   1.572
72641SOL    HW219821  10.679   0.159   1.680
72642SOL     OW19822  10.529  10.845  12.706
72642SOL    HW119823  10.505  10.935  12.685
72642SOL    HW219824  10.553  10.806  12.621
72643SOL     OW19825  10.024   9.844   8.262
72643SOL    HW119826   9.993   9.753   8.261
72643SOL    HW219827  10.012   9.874   8.172
72644SOL     OW19828  14.355  11.797   3.714
72644SOL    HW119829  14.384  11.729   3.654
72644SOL    HW219830  14.272  11.765   3.749
72645SOL     OW19831   2.410   2.538   8.863
72645SOL    HW119832   2.408   2.461   8.806
72645SOL    HW219833   2.500   2.570   8.857
72646SOL     OW19834   7.542   4.730  12.988
72646SOL    HW119835   7.637   4.744  12.987
72646SOL    HW219836   7.521   4.710  13.079
72647SOL     OW19837   9.767   8.822  10.026
72647SOL    HW119838   9.771   8.881  10.101
72647SOL    HW219839   9.724   8.873   9.957
72648SOL     OW19840   0.070   9.217   8.419
72648SOL    HW119841   0.032   9.230   8.332
72648SOL    HW219842  14.866   9.190   8.473
72649SOL     OW19843   8.071   1.980   7.589
72649SOL    HW119844   8.164   1.960   7.591
72649SOL    HW219845   8.065   2.068   7.626
72650SOL     OW19846   8.459   7.396   9.056
72650SOL    HW119847   8.530   7.333   9.056
72650SOL    HW219848   8.458   7.431   8.966
72651SOL     OW19849   6.667   0.964   3.791
72651SOL    HW119850   6.631   1.035   3.737
72651SOL    HW219851   6.608   0.960   3.867
72652SOL     OW19852  10.631  12.768   3.694
72652SOL    HW119853  10.658  12.707   3.763
72652SOL    HW219854  10.627  12.853   3.737
72653SOL     OW19855   6.170   4.417  11.138
72653SOL    HW119856   6.113   4.488  11.169
72653SOL    HW219857   6.150   4.410  11.045
72654SOL     OW19858   3.577   2.615  10.961
72654SOL    HW119859   3.638   2.689  10.961
72654SOL    HW219860   3.491   2.655  10.975
72655SOL     OW19861   8.144   8.684   9.430
72655SOL    HW119862   8.055   8.706   9.402
72655SOL    HW219863   8.192   8.673   9.349
72656SOL     OW19864   7.626  13.804  11.837
72656SOL    HW119865   7.698  13.826  11.778
72656SOL    HW219866   7.597  13.717  11.808
72657SOL     OW19867   9.719   7.673   3.339
72657SOL    HW119868   9.646   7.664   3.279
72657SOL    HW219869   9.692   7.743   3.399
72658SOL     OW19870   5.342  13.324  12.432
72658SOL    HW119871   5.350  13.418  12.421
72658SOL    HW219872   5.356  13.309  12.525
72659SOL     OW19873  14.723   9.315   8.238
72659SOL    HW119874  14.673   9.396   8.227
72659SOL    HW219875  14.660   9.245   8.224
72660SOL     OW19876   4.083   4.857  12.300
72660SOL    HW119877   4.055   4.857  12.208
72660SOL    HW219878   4.156   4.795  12.303
72661SOL     OW19879   2.462   0.031   5.005
72661SOL    HW119880   2.378   0.059   5.042
72661SOL    HW219881   2.527   0.057   5.070
72662SOL     OW19882   3.252   0.333   9.518
72662SOL    HW119883   3.198   0.412   9.512
72662SOL    HW219884   3.272   0.324   9.612
72663SOL     OW19885   9.067  11.776  10.453
72663SOL    HW119886   9.020  11.695  10.470
72663SOL    HW219887   9.100  11.766  10.363
72664SOL     OW19888  14.085   0.952   2.335
72664SOL    HW119889  14.021   1.024   2.339
72664SOL    HW219890  14.099   0.927   2.426
72665SOL     OW19891  10.973   5.536   6.767
72665SOL    HW119892  10.927   5.552   6.849
72665SOL    HW219893  11.003   5.623   6.738
72666SOL     OW19894   5.678   9.225   1.321
72666SOL    HW119895   5.647   9.314   1.302
72666SOL    HW219896   5.767   9.223   1.285
72667SOL     OW19897  10.072   2.247  11.528
72667SOL    HW119898   9.981   2.272  11.541
72667SOL    HW219899  10.083   2.244  11.433
72668SOL     OW19900   1.364   8.343   3.665
72668SOL    HW119901   1.425   8.332   3.593
72668SOL    HW219902   1.419   8.362   3.741
72669SOL     OW19903  14.455   0.288   6.852
72669SOL    HW119904  14.396   0.335   6.792
72669SOL    HW219905  14.432   0.320   6.939
72670SOL     OW19906   2.499  13.625   4.462
72670SOL    HW119907   2.524  13.595   4.375
72670SOL    HW219908   2.463  13.547   4.505
72671SOL     OW19909  10.387   9.667   7.814
72671SOL    HW119910  10.321   9.693   7.749
72671SOL    HW219911  10.352   9.587   7.853
72672SOL     OW19912   9.174   6.000  11.982
72672SOL    HW119913   9.245   5.947  12.018
72672SOL    HW219914   9.094   5.953  12.005
72673SOL     OW19915   3.710   6.420   9.613
72673SOL    HW119916   3.694   6.341   9.664
72673SOL    HW219917   3.784   6.462   9.658
72674SOL     OW19918  14.018  11.034   4.148
72674SOL    HW119919  14.002  10.941   4.131
72674SOL    HW219920  14.070  11.035   4.228
72675SOL     OW19921  12.439   6.145   8.252
72675SOL    HW119922  12.367   6.082   8.256
72675SOL    HW219923  12.447   6.167   8.160
72676SOL     OW19924   0.124   7.294  14.074
72676SOL    HW119925   0.112   7.237  14.150
72676SOL    HW219926   0.162   7.374  14.110
72677SOL     OW19927   3.675  10.545  12.075
72677SOL    HW119928   3.673  10.576  11.984
72677SOL    HW219929   3.596  10.491  12.083
72678SOL     OW19930  11.564   5.118  11.667
72678SOL    HW119931  11.484   5.123  11.615
72678SOL    HW219932  11.587   5.209  11.686
72679SOL     OW19933   5.715   2.422   3.349
72679SOL    HW119934   5.763   2.354   3.395
72679SOL    HW219935   5.698   2.489   3.416
72680SOL     OW19936   5.512  14.266   5.981
72680SOL    HW119937   5.522  14.297   5.891
72680SOL    HW219938   5.419  14.247   5.990
72681SOL     OW19939   6.243   6.578  14.333
72681SOL    HW119940   6.273   6.532  14.255
72681SOL    HW219941   6.221   6.666  14.302
72682SOL     OW19942   1.009  12.816   1.983
72682SOL    HW119943   1.067  12.888   2.008
72682SOL    HW219944   1.043  12.786   1.898
72683SOL     OW19945  14.136   9.857  10.335
72683SOL    HW119946  14.128   9.770  10.296
72683SOL    HW219947  14.052   9.872  10.378
72684SOL     OW19948  10.201   0.578  10.183
72684SOL    HW119949  10.111   0.549  10.171
72684SOL    HW219950  10.212   0.587  10.277
72685SOL     OW19951   9.524  10.916  14.156
72685SOL    HW119952   9.604  10.964  14.138
72685SOL    HW219953   9.533  10.888  14.247
72686SOL     OW19954   6.703  14.585   5.935
72686SOL    HW119955   6.726  14.658   5.993
72686SOL    HW219956   6.618  14.609   5.898
72687SOL     OW19957   6.205  10.943   9.366
72687SOL    HW119958   6.129  10.972   9.416
72687SOL    HW219959   6.280  10.981   9.412
72688SOL     OW19960   8.202   8.491   1.010
72688SOL    HW119961   8.283   8.448   1.035
72688SOL    HW219962   8.197   8.569   1.065
72689SOL     OW19963   5.650   5.741  12.431
72689SOL    HW119964   5.562   5.777  12.417
72689SOL    HW219965   5.694   5.754  12.347
72690SOL     OW19966   1.015   1.029  10.510
72690SOL    HW119967   1.025   0.938  10.539
72690SOL    HW219968   1.104   1.056  10.485
72691SOL     OW19969  13.900   0.963   1.783
72691SOL    HW119970  13.877   0.909   1.707
72691SOL    HW219971  13.989   0.994   1.765
72692SOL     OW19972   0.496  13.155  14.174
72692SOL    HW119973   0.501  13.168  14.269
72692SOL    HW219974   0.585  13.175  14.142
72693SOL     OW19975   2.737   2.219   3.360
72693SOL    HW119976   2.794   2.292   3.384
72693SOL    HW219977   2.654   2.260   3.336
72694SOL     OW19978   8.343   8.238  13.785
72694SOL    HW119979   8.349   8.326  13.748
72694SOL    HW219980   8.433   8.215  13.807
72695SOL     OW19981   0.132  10.692   1.740
72695SOL    HW119982   0.185  10.624   1.699
72695SOL    HW219983   0.044  10.654   1.746
72696SOL     OW19984  10.656   4.542   1.490
72696SOL    HW119985  10.734   4.597   1.484
72696SOL    HW219986  10.621   4.539   1.401
72697SOL     OW19987   1.274   7.313   7.242
72697SOL    HW119988   1.205   7.319   7.308
72697SOL    HW219989   1.293   7.403   7.218
72698SOL     OW19990  11.735   0.588   7.504
72698SOL    HW119991  11.776   0.502   7.503
72698SOL    HW219992  11.677   0.588   7.427
72699SOL     OW19993   0.817  10.647   8.062
72699SOL    HW119994   0.778  10.616   8.144
72699SOL    HW219995   0.802  10.576   8.000
72700SOL     OW19996   3.687  13.918   5.844
72700SOL    HW119997   3.601  13.924   5.804
72700SOL    HW219998   3.673  13.941   5.936
72701SOL     OW19999  10.255   1.204   0.118
72701SOL    HW120000  10.172   1.163   0.143
72701SOL    HW220001  10.252   1.207   0.022
72702SOL     OW20002   8.829  14.725   5.157
72702SOL    HW120003   8.847  14.631   5.165
72702SOL    HW220004   8.737  14.729   5.130
72703SOL     OW20005   7.380  10.504  11.038
72703SOL    HW120006   7.423  10.469  11.116
72703SOL    HW220007   7.397  10.438  10.970
72704SOL     OW20008  12.124   5.319   9.291
72704SOL    HW120009  12.160   5.316   9.379
72704SOL    HW220010  12.037   5.281   9.299
72705SOL     OW20011  13.506  11.827  13.490
72705SOL    HW120012  13.449  11.788  13.556
72705SOL    HW220013  13.543  11.904  13.533
72706SOL     OW20014  11.290   5.144   6.682
72706SOL    HW120015  11.237   5.091   6.623
72706SOL    HW220016  11.229   5.210   6.715
72707SOL     OW20017  11.093   6.010   7.897
72707SOL    HW120018  11.004   6.014   7.932
72707SOL    HW220019  11.081   5.991   7.804
72708SOL     OW20020   3.907   2.714   4.020
72708SOL    HW120021   3.935   2.795   3.976
72708SOL    HW220022   3.855   2.744   4.094
72709SOL     OW20023   5.576   3.983   7.686
72709SOL    HW120024   5.547   4.072   7.667
72709SOL    HW220025   5.607   3.986   7.776
72710SOL     OW20026   0.291   8.415   0.923
72710SOL    HW120027   0.376   8.371   0.931
72710SOL    HW220028   0.232   8.364   0.977
72711SOL     OW20029   2.205   3.706   2.224
72711SOL    HW120030   2.214   3.639   2.157
72711SOL    HW220031   2.122   3.687   2.268
72712SOL     OW20032   7.155   6.502   3.256
72712SOL    HW120033   7.182   6.425   3.207
72712SOL    HW220034   7.081   6.537   3.206
72713SOL     OW20035  11.952  12.588  13.856
72713SOL    HW120036  11.870  12.604  13.902
72713SOL    HW220037  11.955  12.493  13.845
72714SOL     OW20038   7.012   4.937   1.238
72714SOL    HW120039   6.992   5.017   1.189
72714SOL    HW220040   6.976   4.953   1.326
72715SOL     OW20041  14.666  11.704   2.284
72715SOL    HW120042  14.750  11.695   2.241
72715SOL    HW220043  14.674  11.653   2.365
72716SOL     OW20044   3.621   5.039   3.970
72716SOL    HW120045   3.535   5.068   3.999
72716SOL    HW220046   3.644   5.099   3.900
72717SOL     OW20047   5.439  13.821   9.009
72717SOL    HW120048   5.413  13.731   8.990
72717SOL    HW220049   5.491  13.848   8.933
72718SOL     OW20050  10.585  13.584  14.049
72718SOL    HW120051  10.604  13.544  13.964
72718SOL    HW220052  10.492  13.607  14.044
72719SOL     OW20053   6.785  14.407  10.144
72719SOL    HW120054   6.833  14.331  10.177
72719SOL    HW220055   6.852  14.476  10.135
72720SOL     OW20056  11.870  13.670   7.934
72720SOL    HW120057  11.799  13.670   7.870
72720SOL    HW220058  11.878  13.762   7.961
72721SOL     OW20059   5.441  13.336   2.873
72721SOL    HW120060   5.394  13.419   2.871
72721SOL    HW220061   5.524  13.354   2.828
72722SOL     OW20062  10.553  11.812   7.932
72722SOL    HW120063  10.475  11.816   7.877
72722SOL    HW220064  10.530  11.865   8.009
72723SOL     OW20065   4.256  12.830  12.689
72723SOL    HW120066   4.217  12.917  12.700
72723SOL    HW220067   4.239  12.808  12.597
72724SOL     OW20068   0.360  14.368   3.535
72724SOL    HW120069   0.367  14.463   3.526
72724SOL    HW220070   0.401  14.349   3.620
72725SOL     OW20071  13.568  13.892   9.491
72725SOL    HW120072  13.585  13.955   9.422
72725SOL    HW220073  13.648  13.891   9.543
72726SOL     OW20074  11.338   1.864   5.018
72726SOL    HW120075  11.286   1.918   5.078
72726SOL    HW220076  11.388   1.806   5.075
72727SOL     OW20077  12.727   6.084  12.929
72727SOL    HW120078  12.658   6.148  12.945
72727SOL    HW220079  12.696   6.034  12.853
72728SOL     OW20080   6.900   0.141   7.571
72728SOL    HW120081   6.819   0.093   7.588
72728SOL    HW220082   6.906   0.145   7.476
72729SOL     OW20083   0.756   5.949   2.360
72729SOL    HW120084   0.706   5.934   2.280
72729SOL    HW220085   0.779   5.862   2.392
72730SOL     OW20086   9.990   5.898   7.991
72730SOL    HW120087  10.015   5.814   7.953
72730SOL    HW220088   9.922   5.876   8.055
72731SOL     OW20089   9.882  10.535  10.454
72731SOL    HW120090   9.878  10.527  10.359
72731SOL    HW220091   9.831  10.461  10.486
72732SOL     OW20092  10.435   2.679  14.466
72732SOL    HW120093  10.502   2.653  14.403
72732SOL    HW220094  10.419   2.600  14.518
72733SOL     OW20095   5.426  12.136   4.571
72733SOL    HW120096   5.455  12.048   4.594
72733SOL    HW220097   5.332  12.128   4.557
72734SOL     OW20098  10.184  10.617   7.899
72734SOL    HW120099  10.201  10.618   7.805
72734SOL    HW220100  10.214  10.702   7.930
72735SOL     OW20101   8.464   1.708  13.758
72735SOL    HW120102   8.438   1.634  13.813
72735SOL    HW220103   8.421   1.691  13.674
72736SOL     OW20104  11.751  10.802  11.609
72736SOL    HW120105  11.713  10.782  11.523
72736SOL    HW220106  11.680  10.844  11.658
72737SOL     OW20107  13.979   3.828   4.287
72737SOL    HW120108  13.910   3.893   4.298
72737SOL    HW220109  13.933   3.747   4.264
72738SOL     OW20110   3.730  11.547   5.894
72738SOL    HW120111   3.646  11.511   5.921
72738SOL    HW220112   3.786  11.469   5.884
72739SOL     OW20113   8.032   5.104   7.634
72739SOL    HW120114   8.082   5.084   7.555
72739SOL    HW220115   8.093   5.152   7.690
72740SOL     OW20116   7.346   2.479  12.151
72740SOL    HW120117   7.392   2.415  12.205
72740SOL    HW220118   7.350   2.560  12.202
72741SOL     OW20119  13.083   9.574   9.103
72741SOL    HW120120  13.041   9.660   9.096
72741SOL    HW220121  13.134   9.565   9.023
72742SOL     OW20122   8.976   3.492   8.465
72742SOL    HW120123   8.975   3.503   8.370
72742SOL    HW220124   9.053   3.541   8.493
72743SOL     OW20125  12.141   6.618  13.717
72743SOL    HW120126  12.111   6.701  13.755
72743SOL    HW220127  12.233   6.613  13.741
72744SOL     OW20128   1.191  10.919   9.060
72744SOL    HW120129   1.105  10.960   9.054
72744SOL    HW220130   1.185  10.861   9.136
72745SOL     OW20131   8.968   9.954  13.791
72745SOL    HW120132   8.972   9.884  13.726
72745SOL    HW220133   9.042   9.937  13.849
72746SOL     OW20134   7.781  10.036   5.800
72746SOL    HW120135   7.692  10.070   5.811
72746SOL    HW220136   7.769   9.945   5.774
72747SOL     OW20137   5.593   1.528  10.835
72747SOL    HW120138   5.630   1.477  10.763
72747SOL    HW220139   5.500   1.533  10.815
72748SOL     OW20140  10.561  11.093  14.122
72748SOL    HW120141  10.615  11.132  14.053
72748SOL    HW220142  10.595  11.130  14.203
72749SOL     OW20143   7.671   4.299   0.589
72749SOL    HW120144   7.733   4.231   0.618
72749SOL    HW220145   7.688   4.373   0.648
72750SOL     OW20146   4.365  11.603   1.240
72750SOL    HW120147   4.375  11.674   1.304
72750SOL    HW220148   4.270  11.593   1.231
72751SOL     OW20149  11.461   2.235  14.784
72751SOL    HW120150  11.366   2.235  14.769
72751SOL    HW220151  11.471   2.222   0.008
72752SOL     OW20152   2.809   7.870   5.883
72752SOL    HW120153   2.814   7.964   5.901
72752SOL    HW220154   2.828   7.828   5.968
72753SOL     OW20155   7.922   1.850  13.705
72753SOL    HW120156   7.905   1.760  13.675
72753SOL    HW220157   7.999   1.842  13.762
72754SOL     OW20158   5.431  13.118  13.373
72754SOL    HW120159   5.343  13.080  13.372
72754SOL    HW220160   5.482  13.061  13.315
72755SOL     OW20161   7.642  13.332   7.653
72755SOL    HW120162   7.577  13.290   7.709
72755SOL    HW220163   7.671  13.409   7.704
72756SOL     OW20164  11.611   8.734   0.529
72756SOL    HW120165  11.538   8.779   0.571
72756SOL    HW220166  11.576   8.649   0.502
72757SOL     OW20167   0.755   8.720  14.309
72757SOL    HW120168   0.839   8.736  14.266
72757SOL    HW220169   0.690   8.746  14.244
72758SOL     OW20170   6.017   2.177   0.421
72758SOL    HW120171   5.926   2.185   0.450
72758SOL    HW220172   6.015   2.110   0.353
72759SOL     OW20173   1.473  14.204  13.515
72759SOL    HW120174   1.413  14.254  13.460
72759SOL    HW220175   1.500  14.130  13.460
72760SOL     OW20176  14.128   1.366  12.621
72760SOL    HW120177  14.217   1.355  12.653
72760SOL    HW220178  14.098   1.278  12.601
72761SOL     OW20179  14.260   9.110   3.195
72761SOL    HW120180  14.295   9.094   3.283
72761SOL    HW220181  14.238   9.023   3.162
72762SOL     OW20182  11.691   0.286   1.542
72762SOL    HW120183  11.786   0.284   1.545
72762SOL    HW220184  11.663   0.212   1.596
72763SOL     OW20185  11.209   1.659   9.166
72763SOL    HW120186  11.278   1.604   9.129
72763SOL    HW220187  11.255   1.728   9.212
72764SOL     OW20188  13.682   0.033  11.620
72764SOL    HW120189  13.723   0.057  11.537
72764SOL    HW220190  13.733  14.828  11.651
72765SOL     OW20191  13.226  11.912   8.630
72765SOL    HW120192  13.215  12.007   8.632
72765SOL    HW220193  13.285  11.896   8.556
72766SOL     OW20194   7.998   8.725   2.378
72766SOL    HW120195   7.979   8.776   2.299
72766SOL    HW220196   7.949   8.643   2.366
72767SOL     OW20197   0.692  11.049   6.340
72767SOL    HW120198   0.635  11.015   6.409
72767SOL    HW220199   0.671  11.142   6.335
72768SOL     OW20200   0.177   9.737   7.804
72768SOL    HW120201   0.082   9.731   7.796
72768SOL    HW220202   0.193   9.727   7.898
72769SOL     OW20203   4.595   5.323   3.199
72769SOL    HW120204   4.661   5.270   3.245
72769SOL    HW220205   4.610   5.303   3.106
72770SOL     OW20206   3.489   4.667   7.715
72770SOL    HW120207   3.412   4.655   7.771
72770SOL    HW220208   3.562   4.631   7.767
72771SOL     OW20209   4.082   2.912  11.102
72771SOL    HW120210   4.074   2.895  11.008
72771SOL    HW220211   4.172   2.886  11.122
72772SOL     OW20212  14.851  12.759   1.423
72772SOL    HW120213   0.045  12.693   1.394
72772SOL    HW220214  14.772  12.739   1.373
72773SOL     OW20215  14.062  14.855  11.739
72773SOL    HW120216  14.156  14.842  11.752
72773SOL    HW220217  14.056   0.050  11.669
72774SOL     OW20218   3.366  13.976   8.566
72774SOL    HW120219   3.272  13.971   8.547
72774SOL    HW220220   3.372  13.964   8.660
72775SOL     OW20221   4.844  10.853   9.997
72775SOL    HW120222   4.882  10.843  10.084
72775SOL    HW220223   4.843  10.765   9.960
72776SOL     OW20224   9.961  10.363   7.840
72776SOL    HW120225   9.988  10.418   7.766
72776SOL    HW220226  10.041  10.348   7.889
72777SOL     OW20227   7.762  13.260  11.430
72777SOL    HW120228   7.730  13.349  11.416
72777SOL    HW220229   7.687  13.204  11.409
72778SOL     OW20230   5.129  10.162  11.616
72778SOL    HW120231   5.122  10.155  11.521
72778SOL    HW220232   5.162  10.077  11.644
72779SOL     OW20233   1.607   3.697  10.684
72779SOL    HW120234   1.692   3.653  10.692
72779SOL    HW220235   1.550   3.649  10.743
72780SOL     OW20236  14.466  12.172   9.385
72780SOL    HW120237  14.492  12.093   9.431
72780SOL    HW220238  14.508  12.165   9.300
72781SOL     OW20239  12.125  11.685   2.899
72781SOL    HW120240  12.067  11.711   2.827
72781SOL    HW220241  12.107  11.750   2.968
72782SOL     OW20242   0.113   2.725  14.324
72782SOL    HW120243   0.027   2.703  14.360
72782SOL    HW220244   0.129   2.814  14.354
72783SOL     OW20245   6.199   5.187   3.111
72783SOL    HW120246   6.293   5.170   3.110
72783SOL    HW220247   6.163   5.134   3.041
72784SOL     OW20248  11.366   1.293   8.171
72784SOL    HW120249  11.433   1.316   8.106
72784SOL    HW220250  11.398   1.330   8.253
72785SOL     OW20251   4.526  12.944  14.440
72785SOL    HW120252   4.552  12.853  14.455
72785SOL    HW220253   4.608  12.990  14.423
72786SOL     OW20254  13.752   3.688   2.874
72786SOL    HW120255  13.814   3.749   2.833
72786SOL    HW220256  13.771   3.603   2.834
72787SOL     OW20257  10.829   7.136  13.076
72787SOL    HW120258  10.881   7.112  12.999
72787SOL    HW220259  10.826   7.231  13.074
72788SOL     OW20260   7.060  10.889   5.982
72788SOL    HW120261   6.980  10.849   6.016
72788SOL    HW220262   7.038  10.916   5.893
72789SOL     OW20263   8.489   6.939  13.874
72789SOL    HW120264   8.435   6.859  13.877
72789SOL    HW220265   8.493   6.961  13.781
72790SOL     OW20266   9.213   3.752  10.524
72790SOL    HW120267   9.220   3.702  10.605
72790SOL    HW220268   9.207   3.686  10.455
72791SOL     OW20269   3.008  14.027   1.641
72791SOL    HW120270   2.967  14.110   1.617
72791SOL    HW220271   2.935  13.968   1.655
72792SOL     OW20272   6.622   7.736   3.279
72792SOL    HW120273   6.636   7.642   3.267
72792SOL    HW220274   6.541   7.754   3.231
72793SOL     OW20275   3.933  12.837   1.468
72793SOL    HW120276   3.839  12.839   1.448
72793SOL    HW220277   3.945  12.755   1.516
72794SOL     OW20278  13.254   0.640  13.402
72794SOL    HW120279  13.210   0.576  13.457
72794SOL    HW220280  13.206   0.638  13.319
72795SOL     OW20281   2.995   3.188   4.727
72795SOL    HW120282   3.018   3.218   4.815
72795SOL    HW220283   3.078   3.164   4.687
72796SOL     OW20284   5.732   3.837   0.632
72796SOL    HW120285   5.691   3.916   0.668
72796SOL    HW220286   5.814   3.868   0.593
72797SOL     OW20287   5.884   9.604   1.502
72797SOL    HW120288   5.943   9.614   1.577
72797SOL    HW220289   5.817   9.542   1.533
72798SOL     OW20290   7.418  12.049   4.059
72798SOL    HW120291   7.474  11.996   4.003
72798SOL    HW220292   7.473  12.073   4.133
72799SOL     OW20293   8.827   6.182  11.963
72799SOL    HW120294   8.856   6.202  11.874
72799SOL    HW220295   8.867   6.250  12.017
72800SOL     OW20296   3.881  11.699   4.883
72800SOL    HW120297   3.791  11.723   4.907
72800SOL    HW220298   3.873  11.616   4.837
72801SOL     OW20299  12.517  12.758  13.649
72801SOL    HW120300  12.564  12.796  13.723
72801SOL    HW220301  12.544  12.810  13.573
72802SOL     OW20302  10.231   0.756   7.801
72802SOL    HW120303  10.313   0.793   7.770
72802SOL    HW220304  10.241   0.662   7.789
72803SOL     OW20305  13.986   1.586   6.877
72803SOL    HW120306  13.954   1.625   6.796
72803SOL    HW220307  13.936   1.505   6.886
72804SOL     OW20308  12.709   4.891  13.685
72804SOL    HW120309  12.786   4.926  13.642
72804SOL    HW220310  12.645   4.963  13.681
72805SOL     OW20311  10.275   1.837  10.729
72805SOL    HW120312  10.316   1.888  10.798
72805SOL    HW220313  10.233   1.902  10.673
72806SOL     OW20314  14.254   4.384   6.569
72806SOL    HW120315  14.226   4.324   6.639
72806SOL    HW220316  14.219   4.469   6.596
72807SOL     OW20317  11.618   2.724   2.639
72807SOL    HW120318  11.692   2.718   2.579
72807SOL    HW220319  11.610   2.636   2.675
72808SOL     OW20320   4.466  13.818   2.932
72808SOL    HW120321   4.458  13.905   2.972
72808SOL    HW220322   4.435  13.830   2.842
72809SOL     OW20323   7.467  11.515   2.380
72809SOL    HW120324   7.543  11.499   2.437
72809SOL    HW220325   7.500  11.497   2.292
72810SOL     OW20326   9.473   7.690  11.098
72810SOL    HW120327   9.521   7.667  11.019
72810SOL    HW220328   9.492   7.784  11.111
72811SOL     OW20329   1.120  11.646   7.691
72811SOL    HW120330   1.205  11.689   7.679
72811SOL    HW220331   1.129  11.562   7.647
72812SOL     OW20332   0.276   4.374   9.043
72812SOL    HW120333   0.357   4.327   9.061
72812SOL    HW220334   0.292   4.416   8.958
72813SOL     OW20335  12.442  12.524  11.985
72813SOL    HW120336  12.368  12.584  11.996
72813SOL    HW220337  12.481  12.519  12.073
72814SOL     OW20338  11.648   5.714   2.226
72814SOL    HW120339  11.670   5.646   2.289
72814SOL    HW220340  11.732   5.739   2.188
72815SOL     OW20341   4.758   8.433   8.783
72815SOL    HW120342   4.709   8.409   8.862
72815SOL    HW220343   4.788   8.522   8.800
72816SOL     OW20344   5.355   1.701   8.792
72816SOL    HW120345   5.340   1.790   8.822
72816SOL    HW220346   5.450   1.688   8.802
72817SOL     OW20347   3.667   3.321   5.900
72817SOL    HW120348   3.744   3.267   5.922
72817SOL    HW220349   3.655   3.378   5.976
72818SOL     OW20350  14.621   1.607  14.657
72818SOL    HW120351  14.611   1.655  14.739
72818SOL    HW220352  14.602   1.672  14.589
72819SOL     OW20353   6.153   8.168   0.829
72819SOL    HW120354   6.062   8.177   0.799
72819SOL    HW220355   6.205   8.180   0.750
72820SOL     OW20356   0.715  10.422   0.784
72820SOL    HW120357   0.623  10.434   0.809
72820SOL    HW220358   0.731  10.329   0.797
72821SOL     OW20359  12.975  11.234  10.326
72821SOL    HW120360  13.059  11.279  10.320
72821SOL    HW220361  12.944  11.228  10.235
72822SOL     OW20362   6.354   7.515   1.758
72822SOL    HW120363   6.334   7.554   1.673
72822SOL    HW220364   6.331   7.582   1.822
72823SOL     OW20365  11.903   5.052   6.333
72823SOL    HW120366  11.976   4.992   6.318
72823SOL    HW220367  11.934   5.111   6.402
72824SOL     OW20368   1.857  13.745  12.942
72824SOL    HW120369   1.891  13.678  13.001
72824SOL    HW220370   1.933  13.770  12.889
72825SOL     OW20371  11.701   2.354   8.217
72825SOL    HW120372  11.788   2.388   8.236
72825SOL    HW220373  11.643   2.428   8.234
72826SOL     OW20374  14.838   2.879  10.953
72826SOL    HW120375  14.846   2.818  10.879
72826SOL    HW220376  14.759   2.929  10.934
72827SOL     OW20377  14.048   1.723   9.859
72827SOL    HW120378  14.093   1.734   9.943
72827SOL    HW220379  14.084   1.642   9.823
72828SOL     OW20380  10.741  11.015   8.032
72828SOL    HW120381  10.664  11.057   8.069
72828SOL    HW220382  10.728  10.922   8.047
72829SOL     OW20383   0.565   1.201  11.881
72829SOL    HW120384   0.655   1.205  11.849
72829SOL    HW220385   0.558   1.115  11.922
72830SOL     OW20386  13.051  10.006   2.144
72830SOL    HW120387  13.098  10.060   2.207
72830SOL    HW220388  13.101  10.015   2.063
72831SOL     OW20389  11.992   6.241  14.138
72831SOL    HW120390  12.039   6.306  14.086
72831SOL    HW220391  11.998   6.273  14.228
72832SOL     OW20392  12.847   9.225  11.476
72832SOL    HW120393  12.876   9.310  11.511
72832SOL    HW220394  12.798   9.185  11.548
72833SOL     OW20395   6.589   3.194  10.217
72833SOL    HW120396   6.597   3.283  10.182
72833SOL    HW220397   6.658   3.188  10.283
72834SOL     OW20398   5.089  10.573   2.515
72834SOL    HW120399   5.134  10.499   2.556
72834SOL    HW220400   5.157  10.614   2.461
72835SOL     OW20401  14.563   6.545   3.092
72835SOL    HW120402  14.568   6.636   3.120
72835SOL    HW220403  14.579   6.548   2.997
72836SOL     OW20404   7.457   3.968  12.007
72836SOL    HW120405   7.545   3.938  12.026
72836SOL    HW220406   7.411   3.962  12.091
72837SOL     OW20407  10.970  12.678  10.939
72837SOL    HW120408  10.928  12.593  10.948
72837SOL    HW220409  10.921  12.735  10.999
72838SOL     OW20410   9.656   2.800   8.032
72838SOL    HW120411   9.747   2.818   8.009
72838SOL    HW220412   9.644   2.707   8.013
72839SOL     OW20413  12.551   8.534  12.445
72839SOL    HW120414  12.622   8.592  12.417
72839SOL    HW220415  12.595   8.455  12.476
72840SOL     OW20416  13.289   2.259   7.483
72840SOL    HW120417  13.266   2.174   7.446
72840SOL    HW220418  13.224   2.319   7.445
72841SOL     OW20419   5.023  10.418  13.401
72841SOL    HW120420   5.050  10.351  13.464
72841SOL    HW220421   4.930  10.431  13.418
72842SOL     OW20422  12.680  12.637   3.004
72842SOL    HW120423  12.685  12.655   2.910
72842SOL    HW220424  12.588  12.620   3.021
72843SOL     OW20425   5.874   9.344   5.537
72843SOL    HW120426   5.940   9.277   5.520
72843SOL    HW220427   5.830   9.315   5.617
72844SOL     OW20428  14.240   4.469   7.582
72844SOL    HW120429  14.201   4.552   7.554
72844SOL    HW220430  14.170   4.405   7.571
72845SOL     OW20431   3.289   7.058  12.527
72845SOL    HW120432   3.350   7.026  12.594
72845SOL    HW220433   3.272   7.149  12.552
72846SOL     OW20434  11.350  12.103   6.893
72846SOL    HW120435  11.270  12.151   6.871
72846SOL    HW220436  11.420  12.169   6.886
72847SOL     OW20437   8.100   5.901   9.780
72847SOL    HW120438   8.113   5.815   9.819
72847SOL    HW220439   8.016   5.895   9.735
72848SOL     OW20440   8.190   1.854  10.573
72848SOL    HW120441   8.190   1.874  10.666
72848SOL    HW220442   8.245   1.922  10.534
72849SOL     OW20443  12.021   4.732   4.860
72849SOL    HW120444  12.056   4.751   4.773
72849SOL    HW220445  11.932   4.702   4.844
72850SOL     OW20446  12.809   2.286  10.247
72850SOL    HW120447  12.777   2.249  10.165
72850SOL    HW220448  12.737   2.273  10.309
72851SOL     OW20449   8.518   4.900   3.549
72851SOL    HW120450   8.463   4.827   3.579
72851SOL    HW220451   8.551   4.940   3.630
72852SOL     OW20452   2.665  11.788  11.399
72852SOL    HW120453   2.678  11.806  11.306
72852SOL    HW220454   2.595  11.848  11.425
72853SOL     OW20455  10.931  12.183  13.339
72853SOL    HW120456  11.011  12.161  13.387
72853SOL    HW220457  10.902  12.266  13.377
72854SOL     OW20458   2.756  13.341  14.691
72854SOL    HW120459   2.785  13.274  14.629
72854SOL    HW220460   2.819  13.412  14.681
72855SOL     OW20461  10.690  10.650   6.184
72855SOL    HW120462  10.605  10.693   6.171
72855SOL    HW220463  10.719  10.679   6.270
72856SOL     OW20464  12.804  13.189   5.641
72856SOL    HW120465  12.786  13.119   5.704
72856SOL    HW220466  12.720  13.207   5.600
72857SOL     OW20467   6.627   5.769  12.163
72857SOL    HW120468   6.711   5.813  12.146
72857SOL    HW220469   6.606   5.725  12.081
72858SOL     OW20470  13.858   2.359   4.508
72858SOL    HW120471  13.944   2.327   4.482
72858SOL    HW220472  13.812   2.374   4.425
72859SOL     OW20473   3.072  10.828  14.609
72859SOL    HW120474   3.049  10.912  14.569
72859SOL    HW220475   3.145  10.848  14.668
72860SOL     OW20476  14.186   7.536   3.588
72860SOL    HW120477  14.101   7.535   3.545
72860SOL    HW220478  14.175   7.481   3.666
72861SOL     OW20479   0.444   6.198  10.055
72861SOL    HW120480   0.381   6.185  10.126
72861SOL    HW220481   0.513   6.252  10.093
72862SOL     OW20482   7.237  11.877   6.922
72862SOL    HW120483   7.202  11.858   7.009
72862SOL    HW220484   7.263  11.969   6.926
72863SOL     OW20485   3.288   0.128   4.840
72863SOL    HW120486   3.239   0.058   4.797
72863SOL    HW220487   3.223   0.198   4.852
72864SOL     OW20488   3.047   3.377   0.314
72864SOL    HW120489   3.108   3.449   0.297
72864SOL    HW220490   3.001   3.365   0.231
72865SOL     OW20491  12.873  12.307   5.252
72865SOL    HW120492  12.792  12.260   5.271
72865SOL    HW220493  12.894  12.282   5.162
72866SOL     OW20494   9.828   7.546   5.649
72866SOL    HW120495   9.819   7.634   5.686
72866SOL    HW220496   9.913   7.516   5.680
72867SOL     OW20497  10.244   1.629  10.277
72867SOL    HW120498  10.159   1.601  10.243
72867SOL    HW220499  10.232   1.633  10.372
72868SOL     OW20500  14.335  10.667  11.422
72868SOL    HW120501  14.272  10.596  11.416
72868SOL    HW220502  14.285  10.746  11.403
72869SOL     OW20503   9.478  12.588  13.513
72869SOL    HW120504   9.474  12.497  13.542
72869SOL    HW220505   9.498  12.583  13.419
72870SOL     OW20506  10.089   1.442   4.046
72870SOL    HW120507  10.118   1.494   3.970
72870SOL    HW220508  10.036   1.503   4.098
72871SOL     OW20509   1.964   0.923   7.338
72871SOL    HW120510   2.018   0.978   7.394
72871SOL    HW220511   1.992   0.944   7.249
72872SOL     OW20512   3.356   4.985   7.699
72872SOL    HW120513   3.424   5.048   7.676
72872SOL    HW220514   3.304   4.976   7.620
72873SOL     OW20515   7.600   6.773   0.773
72873SOL    HW120516   7.531   6.720   0.814
72873SOL    HW220517   7.676   6.715   0.770
72874SOL     OW20518   2.532  12.960   7.185
72874SOL    HW120519   2.589  12.886   7.209
72874SOL    HW220520   2.528  13.013   7.265
72875SOL     OW20521   5.996  12.931  12.582
72875SOL    HW120522   6.020  12.849  12.539
72875SOL    HW220523   6.080  12.972  12.604
72876SOL     OW20524   4.831  12.339   7.110
72876SOL    HW120525   4.905  12.309   7.058
72876SOL    HW220526   4.793  12.260   7.147
72877SOL     OW20527   1.454  14.296   3.826
72877SOL    HW120528   1.434  14.212   3.866
72877SOL    HW220529   1.369  14.329   3.796
72878SOL     OW20530   9.625  14.420   1.083
72878SOL    HW120531   9.707  14.418   1.034
72878SOL    HW220532   9.646  14.378   1.166
72879SOL     OW20533  12.691   1.341   5.567
72879SOL    HW120534  12.741   1.355   5.486
72879SOL    HW220535  12.650   1.256   5.555
72880SOL     OW20536   7.459   8.445   1.149
72880SOL    HW120537   7.535   8.388   1.163
72880SOL    HW220538   7.384   8.385   1.155
72881SOL     OW20539   5.392  12.802   1.305
72881SOL    HW120540   5.305  12.805   1.264
72881SOL    HW220541   5.380  12.846   1.389
72882SOL     OW20542  11.232   9.313  13.957
72882SOL    HW120543  11.302   9.312  14.023
72882SOL    HW220544  11.214   9.406  13.943
72883SOL     OW20545   8.055   9.939   6.240
72883SOL    HW120546   8.031   9.871   6.177
72883SOL    HW220547   8.092   9.892   6.314
72884SOL     OW20548   8.809   5.217   1.793
72884SOL    HW120549   8.899   5.234   1.819
72884SOL    HW220550   8.795   5.124   1.810
72885SOL     OW20551  14.322   1.137   5.069
72885SOL    HW120552  14.388   1.165   5.005
72885SOL    HW220553  14.255   1.094   5.017
72886SOL     OW20554  13.925   2.612   2.984
72886SOL    HW120555  13.857   2.674   3.009
72886SOL    HW220556  13.891   2.527   3.013
72887SOL     OW20557   3.715   1.845   1.423
72887SOL    HW120558   3.773   1.896   1.367
72887SOL    HW220559   3.647   1.907   1.451
72888SOL     OW20560   5.385  12.684  13.308
72888SOL    HW120561   5.452  12.664  13.373
72888SOL    HW220562   5.317  12.619  13.322
72889SOL     OW20563  11.459   1.483  14.710
72889SOL    HW120564  11.423   1.483  14.798
72889SOL    HW220565  11.391   1.524  14.656
72890SOL     OW20566   7.272   9.143   5.019
72890SOL    HW120567   7.184   9.113   5.043
72890SOL    HW220568   7.257   9.207   4.950
72891SOL     OW20569   1.156   2.917  10.124
72891SOL    HW120570   1.181   2.829  10.096
72891SOL    HW220571   1.221   2.940  10.192
72892SOL     OW20572  10.947  11.358   4.470
72892SOL    HW120573  10.961  11.318   4.384
72892SOL    HW220574  11.004  11.309   4.529
72893SOL     OW20575   2.446   5.888   2.638
72893SOL    HW120576   2.353   5.879   2.659
72893SOL    HW220577   2.456   5.980   2.612
72894SOL     OW20578   7.257   1.496   6.971
72894SOL    HW120579   7.218   1.500   6.883
72894SOL    HW220580   7.334   1.440   6.960
72895SOL     OW20581   3.937   1.562   1.723
72895SOL    HW120582   3.881   1.637   1.702
72895SOL    HW220583   3.985   1.589   1.801
72896SOL     OW20584   1.101  10.280   6.853
72896SOL    HW120585   1.096  10.219   6.779
72896SOL    HW220586   1.100  10.223   6.930
72897SOL     OW20587   0.243   2.661  12.653
72897SOL    HW120588   0.263   2.599  12.722
72897SOL    HW220589   0.184   2.724  12.694
72898SOL     OW20590   5.068   1.269   8.841
72898SOL    HW120591   5.078   1.364   8.838
72898SOL    HW220592   4.973   1.255   8.836
72899SOL     OW20593   5.102   8.760   3.811
72899SOL    HW120594   5.168   8.829   3.818
72899SOL    HW220595   5.119   8.702   3.885
72900SOL     OW20596   7.923  14.702  12.966
72900SOL    HW120597   7.973  14.686  13.046
72900SOL    HW220598   7.988  14.732  12.903
72901SOL     OW20599   9.765   7.011   4.771
72901SOL    HW120600   9.714   7.084   4.736
72901SOL    HW220601   9.710   6.934   4.757
72902SOL     OW20602  13.623   0.178   0.698
72902SOL    HW120603  13.541   0.223   0.718
72902SOL    HW220604  13.671   0.176   0.781
72903SOL     OW20605  13.263   6.742   2.469
72903SOL    HW120606  13.222   6.728   2.383
72903SOL    HW220607  13.189   6.762   2.527
72904SOL     OW20608  13.596  10.752   8.074
72904SOL    HW120609  13.614  10.766   8.167
72904SOL    HW220610  13.534  10.679   8.072
72905SOL     OW20611  14.000   6.808   9.944
72905SOL    HW120612  13.974   6.900   9.953
72905SOL    HW220613  14.015   6.779  10.034
72906SOL     OW20614  13.055   2.643   3.725
72906SOL    HW120615  12.998   2.622   3.651
72906SOL    HW220616  13.017   2.597   3.799
72907SOL     OW20617  12.236  13.449   0.127
72907SOL    HW120618  12.184  13.487   0.198
72907SOL    HW220619  12.294  13.387   0.170
72908SOL     OW20620   6.259   1.365   3.323
72908SOL    HW120621   6.266   1.287   3.268
72908SOL    HW220622   6.349   1.397   3.333
72909SOL     OW20623  14.072   5.452   6.726
72909SOL    HW120624  13.993   5.501   6.703
72909SOL    HW220625  14.112   5.430   6.642
72910SOL     OW20626   3.400   6.959   5.153
72910SOL    HW120627   3.481   6.954   5.203
72910SOL    HW220628   3.337   6.999   5.213
72911SOL     OW20629   5.899  12.488  12.158
72911SOL    HW120630   5.947  12.546  12.218
72911SOL    HW220631   5.950  12.408  12.156
72912SOL     OW20632   6.750   8.063   9.958
72912SOL    HW120633   6.679   8.000   9.947
72912SOL    HW220634   6.798   8.059   9.875
72913SOL     OW20635   0.214   1.215   9.293
72913SOL    HW120636   0.276   1.254   9.354
72913SOL    HW220637   0.130   1.217   9.338
72914SOL     OW20638   7.418   7.516  10.973
72914SOL    HW120639   7.416   7.608  10.948
72914SOL    HW220640   7.511   7.495  10.980
72915SOL     OW20641   9.400   8.952  13.423
72915SOL    HW120642   9.384   8.867  13.464
72915SOL    HW220643   9.346   9.014  13.473
72916SOL     OW20644   0.724   4.211   7.414
72916SOL    HW120645   0.690   4.222   7.503
72916SOL    HW220646   0.652   4.240   7.358
72917SOL     OW20647   0.293  13.697  14.045
72917SOL    HW120648   0.208  13.740  14.051
72917SOL    HW220649   0.282  13.633  13.974
72918SOL     OW20650   7.084   5.658  10.322
72918SOL    HW120651   6.994   5.674  10.293
72918SOL    HW220652   7.102   5.727  10.385
72919SOL     OW20653   2.880  10.669   3.036
72919SOL    HW120654   2.823  10.745   3.021
72919SOL    HW220655   2.913  10.681   3.125
72920SOL     OW20656   9.394  14.111   7.629
72920SOL    HW120657   9.356  14.046   7.570
72920SOL    HW220658   9.379  14.195   7.585
72921SOL     OW20659   8.313   4.841  12.642
72921SOL    HW120660   8.343   4.810  12.727
72921SOL    HW220661   8.280   4.763  12.597
72922SOL     OW20662   0.829   4.048  10.012
72922SOL    HW120663   0.887   4.066   9.939
72922SOL    HW220664   0.881   3.995  10.072
72923SOL     OW20665   9.398   3.186   9.029
72923SOL    HW120666   9.303   3.183   9.033
72923SOL    HW220667   9.420   3.153   8.942
72924SOL     OW20668   5.763  11.381  14.151
72924SOL    HW120669   5.795  11.390  14.061
72924SOL    HW220670   5.720  11.465  14.169
72925SOL     OW20671   2.425   5.343   6.893
72925SOL    HW120672   2.340   5.348   6.936
72925SOL    HW220673   2.487   5.326   6.964
72926SOL     OW20674   8.599   1.545   8.322
72926SOL    HW120675   8.668   1.546   8.388
72926SOL    HW220676   8.628   1.608   8.255
72927SOL     OW20677   0.593   1.950  10.642
72927SOL    HW120678   0.641   1.952  10.560
72927SOL    HW220679   0.636   2.016  10.697
72928SOL     OW20680   4.605   5.660   7.090
72928SOL    HW120681   4.688   5.706   7.100
72928SOL    HW220682   4.563   5.667   7.176
72929SOL     OW20683  12.501  14.413  10.519
72929SOL    HW120684  12.448  14.359  10.461
72929SOL    HW220685  12.525  14.356  10.592
72930SOL     OW20686   6.354   9.785   7.470
72930SOL    HW120687   6.417   9.756   7.404
72930SOL    HW220688   6.395   9.862   7.510
72931SOL     OW20689   5.665   3.535   4.909
72931SOL    HW120690   5.640   3.625   4.888
72931SOL    HW220691   5.605   3.509   4.979
72932SOL     OW20692  13.588   7.751   2.882
72932SOL    HW120693  13.500   7.780   2.908
72932SOL    HW220694  13.640   7.761   2.962
72933SOL     OW20695   1.947  14.730  13.174
72933SOL    HW120696   1.937  14.714  13.081
72933SOL    HW220697   2.042  14.735  13.187
72934SOL     OW20698   4.456  14.201   2.137
72934SOL    HW120699   4.527  14.212   2.201
72934SOL    HW220700   4.405  14.127   2.170
72935SOL     OW20701  14.766  13.425  10.276
72935SOL    HW120702  14.814  13.452  10.198
72935SOL    HW220703  14.678  13.404  10.245
72936SOL     OW20704   4.890  12.366   3.913
72936SOL    HW120705   4.797  12.367   3.936
72936SOL    HW220706   4.921  12.281   3.943
72937SOL     OW20707   3.411   7.692   2.372
72937SOL    HW120708   3.434   7.678   2.464
72937SOL    HW220709   3.407   7.787   2.362
72938SOL     OW20710   3.348  10.252   3.258
72938SOL    HW120711   3.443  10.241   3.261
72938SOL    HW220712   3.318  10.227   3.346
72939SOL     OW20713   3.355   3.818   1.271
72939SOL    HW120714   3.322   3.862   1.193
72939SOL    HW220715   3.287   3.754   1.294
72940SOL     OW20716  13.005  10.333   3.719
72940SOL    HW120717  13.028  10.302   3.807
72940SOL    HW220718  12.910  10.324   3.714
72941SOL     OW20719  10.713   6.656   5.497
72941SOL    HW120720  10.764   6.575   5.490
72941SOL    HW220721  10.654   6.640   5.571
72942SOL     OW20722   6.917   6.599   8.638
72942SOL    HW120723   6.836   6.561   8.671
72942SOL    HW220724   6.939   6.546   8.561
72943SOL     OW20725   5.798   7.469   7.725
72943SOL    HW120726   5.779   7.425   7.642
72943SOL    HW220727   5.837   7.553   7.698
72944SOL     OW20728   2.042   6.185   3.583
72944SOL    HW120729   2.059   6.139   3.501
72944SOL    HW220730   2.047   6.117   3.650
72945SOL     OW20731   7.456   3.764   8.091
72945SOL    HW120732   7.373   3.802   8.063
72945SOL    HW220733   7.518   3.785   8.022
72946SOL     OW20734  12.753   6.834   3.848
72946SOL    HW120735  12.672   6.793   3.818
72946SOL    HW220736  12.768   6.798   3.935
72947SOL     OW20737   9.215   4.878   4.523
72947SOL    HW120738   9.296   4.906   4.565
72947SOL    HW220739   9.213   4.928   4.441
72948SOL     OW20740   8.919  11.827  14.793
72948SOL    HW120741   8.948  11.916  14.813
72948SOL    HW220742   8.841  11.839  14.739
72949SOL     OW20743   7.884  12.249   0.120
72949SOL    HW120744   7.848  12.170   0.162
72949SOL    HW220745   7.967  12.219   0.081
72950SOL     OW20746   8.096   8.805   3.078
72950SOL    HW120747   8.058   8.789   2.992
72950SOL    HW220748   8.059   8.889   3.106
72951SOL     OW20749   4.275   2.369   6.809
72951SOL    HW120750   4.360   2.378   6.851
72951SOL    HW220751   4.216   2.419   6.865
72952SOL     OW20752   5.275   1.379   0.937
72952SOL    HW120753   5.310   1.346   1.020
72952SOL    HW220754   5.345   1.435   0.902
72953SOL     OW20755  12.470   3.452  10.438
72953SOL    HW120756  12.420   3.381  10.396
72953SOL    HW220757  12.551   3.410  10.468
72954SOL     OW20758   9.638  11.692  12.813
72954SOL    HW120759   9.556  11.672  12.768
72954SOL    HW220760   9.679  11.606  12.827
72955SOL     OW20761  11.469   7.311  14.184
72955SOL    HW120762  11.479   7.375  14.254
72955SOL    HW220763  11.402   7.250  14.215
72956SOL     OW20764  10.133   0.801   6.371
72956SOL    HW120765  10.102   0.766   6.455
72956SOL    HW220766  10.227   0.782   6.370
72957SOL     OW20767   8.137   4.371  10.991
72957SOL    HW120768   8.081   4.448  10.980
72957SOL    HW220769   8.214   4.390  10.938
72958SOL     OW20770  14.670   6.233   4.635
72958SOL    HW120771  14.762   6.235   4.661
72958SOL    HW220772  14.622   6.216   4.717
72959SOL     OW20773  10.671  13.393   3.824
72959SOL    HW120774  10.644  13.442   3.902
72959SOL    HW220775  10.764  13.379   3.836
72960SOL     OW20776   1.758   0.809   5.632
72960SOL    HW120777   1.742   0.726   5.677
72960SOL    HW220778   1.790   0.868   5.701
72961SOL     OW20779   0.695   8.049  13.537
72961SOL    HW120780   0.610   8.091  13.537
72961SOL    HW220781   0.730   8.065  13.625
72962SOL     OW20782  10.752  14.838  14.084
72962SOL    HW120783  10.794   0.052  14.064
72962SOL    HW220784  10.661  14.861  14.104
72963SOL     OW20785   0.035   8.799   0.099
72963SOL    HW120786  14.815   8.812   0.130
72963SOL    HW220787   0.088   8.857   0.154
72964SOL     OW20788   8.949   8.751   4.331
72964SOL    HW120789   8.977   8.753   4.240
72964SOL    HW220790   8.981   8.666   4.364
72965SOL     OW20791   2.219   9.246  10.799
72965SOL    HW120792   2.173   9.328  10.780
72965SOL    HW220793   2.156   9.178  10.776
72966SOL     OW20794  14.641   7.790   7.835
72966SOL    HW120795  14.602   7.704   7.820
72966SOL    HW220796  14.736   7.775   7.830
72967SOL     OW20797   4.946   2.147   7.518
72967SOL    HW120798   4.905   2.120   7.436
72967SOL    HW220799   5.002   2.220   7.494
72968SOL     OW20800   3.683   3.855   3.809
72968SOL    HW120801   3.748   3.818   3.750
72968SOL    HW220802   3.649   3.780   3.858
72969SOL     OW20803  13.983   9.947  11.555
72969SOL    HW120804  14.021   9.901  11.480
72969SOL    HW220805  13.892   9.964  11.529
72970SOL     OW20806  10.047  13.626  14.401
72970SOL    HW120807  10.110  13.556  14.419
72970SOL    HW220808  10.101  13.701  14.376
72971SOL     OW20809  13.823  12.416   4.189
72971SOL    HW120810  13.744  12.400   4.241
72971SOL    HW220811  13.805  12.497   4.141
72972SOL     OW20812   6.947  10.548   3.203
72972SOL    HW120813   6.880  10.481   3.191
72972SOL    HW220814   6.906  10.629   3.173
72973SOL     OW20815   2.589   8.616   8.547
72973SOL    HW120816   2.679   8.643   8.561
72973SOL    HW220817   2.544   8.640   8.628
72974SOL     OW20818   1.174  14.503   4.457
72974SOL    HW120819   1.102  14.452   4.492
72974SOL    HW220820   1.236  14.512   4.530
72975SOL     OW20821   5.967   6.576   2.078
72975SOL    HW120822   6.027   6.612   2.143
72975SOL    HW220823   5.903   6.645   2.064
72976SOL     OW20824   0.547   7.870   8.842
72976SOL    HW120825   0.606   7.840   8.774
72976SOL    HW220826   0.460   7.842   8.813
72977SOL     OW20827  11.350   5.940  13.813
72977SOL    HW120828  11.331   5.861  13.762
72977SOL    HW220829  11.441   5.929  13.841
72978SOL     OW20830   0.435  13.940  13.812
72978SOL    HW120831   0.367  13.895  13.762
72978SOL    HW220832   0.415  13.921  13.903
72979SOL     OW20833  14.193  13.917  10.839
72979SOL    HW120834  14.198  13.889  10.930
72979SOL    HW220835  14.151  13.843  10.793
72980SOL     OW20836  12.539   0.562   5.887
72980SOL    HW120837  12.595   0.541   5.962
72980SOL    HW220838  12.564   0.651   5.863
72981SOL     OW20839  13.186   8.601   0.550
72981SOL    HW120840  13.197   8.644   0.635
72981SOL    HW220841  13.267   8.551   0.538
72982SOL     OW20842   3.758   9.204  12.716
72982SOL    HW120843   3.670   9.241  12.712
72982SOL    HW220844   3.816   9.280  12.716
72983SOL     OW20845   0.205   7.061   7.190
72983SOL    HW120846   0.141   6.993   7.211
72983SOL    HW220847   0.201   7.122   7.263
72984SOL     OW20848   4.027   5.729   3.321
72984SOL    HW120849   4.019   5.635   3.303
72984SOL    HW220850   3.938   5.762   3.314
72985SOL     OW20851   4.765   1.760   2.043
72985SOL    HW120852   4.686   1.724   2.084
72985SOL    HW220853   4.827   1.687   2.043
72986SOL     OW20854   3.725   4.948   7.173
72986SOL    HW120855   3.657   5.015   7.171
72986SOL    HW220856   3.678   4.866   7.184
72987SOL     OW20857   2.728  10.197   6.910
72987SOL    HW120858   2.653  10.250   6.938
72987SOL    HW220859   2.698  10.107   6.920
72988SOL     OW20860   4.464   3.104  13.617
72988SOL    HW120861   4.526   3.142  13.554
72988SOL    HW220862   4.380   3.104  13.570
72989SOL     OW20863   6.781   8.052  14.440
72989SOL    HW120864   6.810   7.994  14.369
72989SOL    HW220865   6.693   8.079  14.415
72990SOL     OW20866   6.411  14.088  11.042
72990SOL    HW120867   6.434  14.027  11.112
72990SOL    HW220868   6.493  14.101  10.994
72991SOL     OW20869   8.260   1.447   2.684
72991SOL    HW120870   8.353   1.425   2.683
72991SOL    HW220871   8.240   1.470   2.593
72992SOL     OW20872   9.832   4.419   6.800
72992SOL    HW120873   9.903   4.482   6.788
72992SOL    HW220874   9.766   4.445   6.735
72993SOL     OW20875  12.970   7.557   4.761
72993SOL    HW120876  12.989   7.467   4.787
72993SOL    HW220877  12.932   7.596   4.840
72994SOL     OW20878  14.348  10.544   4.314
72994SOL    HW120879  14.328  10.478   4.380
72994SOL    HW220880  14.432  10.516   4.277
72995SOL     OW20881   4.382  11.768   2.627
72995SOL    HW120882   4.448  11.710   2.664
72995SOL    HW220883   4.321  11.785   2.699
72996SOL     OW20884   5.727  13.756   1.160
72996SOL    HW120885   5.799  13.797   1.112
72996SOL    HW220886   5.748  13.663   1.161
72997SOL     OW20887  13.547  12.105  11.971
72997SOL    HW120888  13.515  12.040  11.909
72997SOL    HW220889  13.641  12.109  11.954
72998SOL     OW20890   8.562   1.311   7.224
72998SOL    HW120891   8.565   1.226   7.179
72998SOL    HW220892   8.645   1.317   7.269
72999SOL     OW20893   7.336   3.594  11.503
72999SOL    HW120894   7.343   3.524  11.438
72999SOL    HW220895   7.349   3.551  11.587
73000SOL     OW20896   4.938  13.025   3.609
73000SOL    HW120897   4.915  13.107   3.564
73000SOL    HW220898   4.990  13.053   3.684
73001SOL     OW20899   0.024   1.895   0.170
73001SOL    HW120900   0.044   1.962   0.236
73001SOL    HW220901   0.053   1.932   0.087
73002SOL     OW20902   6.418  14.478  12.762
73002SOL    HW120903   6.498  14.506  12.806
73002SOL    HW220904   6.446  14.454  12.674
73003SOL     OW20905  12.553   2.471  13.389
73003SOL    HW120906  12.595   2.548  13.427
73003SOL    HW220907  12.466   2.501  13.364
73004SOL     OW20908  10.177  13.246   2.378
73004SOL    HW120909  10.085  13.231   2.356
73004SOL    HW220910  10.178  13.261   2.472
73005SOL     OW20911   5.412  14.494   9.720
73005SOL    HW120912   5.429  14.477   9.812
73005SOL    HW220913   5.441  14.415   9.675
73006SOL     OW20914   1.792  12.342  14.015
73006SOL    HW120915   1.762  12.292  13.939
73006SOL    HW220916   1.762  12.431  13.999
73007SOL     OW20917  13.271  11.034  11.117
73007SOL    HW120918  13.345  10.976  11.100
73007SOL    HW220919  13.210  10.981  11.168
73008SOL     OW20920  13.278   4.526  12.310
73008SOL    HW120921  13.253   4.520  12.402
73008SOL    HW220922  13.362   4.574  12.312
73009SOL     OW20923   3.128  13.256   8.227
73009SOL    HW120924   3.109  13.241   8.134
73009SOL    HW220925   3.203  13.315   8.227
73010SOL     OW20926  11.664   2.609  10.015
73010SOL    HW120927  11.630   2.686  10.059
73010SOL    HW220928  11.636   2.536  10.070
73011SOL     OW20929   6.799   7.818   2.400
73011SOL    HW120930   6.854   7.747   2.433
73011SOL    HW220931   6.737   7.835   2.471
73012SOL     OW20932   9.887   7.297  12.685
73012SOL    HW120933   9.932   7.379  12.666
73012SOL    HW220934   9.844   7.312  12.769
73013SOL     OW20935   6.786  11.209  13.291
73013SOL    HW120936   6.710  11.193  13.347
73013SOL    HW220937   6.852  11.244  13.351
73014SOL     OW20938   0.510   9.563   9.250
73014SOL    HW120939   0.483   9.648   9.285
73014SOL    HW220940   0.504   9.503   9.324
73015SOL     OW20941  11.782   2.009  10.402
73015SOL    HW120942  11.873   1.986  10.424
73015SOL    HW220943  11.785   2.034  10.310
73016SOL     OW20944   7.668  14.169  13.659
73016SOL    HW120945   7.582  14.164  13.617
73016SOL    HW220946   7.718  14.230  13.605
73017SOL     OW20947   1.734   1.738   9.287
73017SOL    HW120948   1.667   1.695   9.234
73017SOL    HW220949   1.807   1.752   9.226
73018SOL     OW20950   0.303   9.705   2.349
73018SOL    HW120951   0.308   9.624   2.298
73018SOL    HW220952   0.221   9.697   2.398
73019SOL     OW20953  12.144  13.758   1.509
73019SOL    HW120954  12.101  13.802   1.583
73019SOL    HW220955  12.145  13.666   1.534
73020SOL     OW20956  12.836   2.980  10.991
73020SOL    HW120957  12.782   3.004  11.066
73020SOL    HW220958  12.799   2.897  10.960
73021SOL     OW20959  11.958   8.236  12.214
73021SOL    HW120960  11.951   8.141  12.209
73021SOL    HW220961  11.928   8.267  12.129
73022SOL     OW20962  11.087  12.536   7.643
73022SOL    HW120963  11.141  12.486   7.582
73022SOL    HW220964  11.061  12.614   7.594
73023SOL     OW20965  12.991  11.538   4.646
73023SOL    HW120966  13.065  11.487   4.679
73023SOL    HW220967  12.946  11.569   4.725
73024SOL     OW20968  14.527  13.977   6.585
73024SOL    HW120969  14.622  13.982   6.594
73024SOL    HW220970  14.504  14.055   6.534
73025SOL     OW20971  13.360   2.085   9.288
73025SOL    HW120972  13.384   2.118   9.201
73025SOL    HW220973  13.432   2.113   9.345
73026SOL     OW20974   4.603  12.492  12.580
73026SOL    HW120975   4.658  12.506  12.503
73026SOL    HW220976   4.532  12.555  12.572
73027SOL     OW20977  12.780   5.572   0.276
73027SOL    HW120978  12.861   5.545   0.232
73027SOL    HW220979  12.767   5.663   0.249
73028SOL     OW20980  14.626   3.148   3.117
73028SOL    HW120981  14.693   3.178   3.056
73028SOL    HW220982  14.543   3.170   3.075
73029SOL     OW20983   1.226  12.635   6.582
73029SOL    HW120984   1.315  12.612   6.557
73029SOL    HW220985   1.229  12.647   6.677
73030SOL     OW20986   3.653  11.828  14.667
73030SOL    HW120987   3.672  11.907  14.617
73030SOL    HW220988   3.650  11.758  14.602
73031SOL     OW20989  14.186   1.250   3.677
73031SOL    HW120990  14.259   1.233   3.736
73031SOL    HW220991  14.215   1.322   3.621
73032SOL     OW20992   0.141   0.519  10.878
73032SOL    HW120993   0.108   0.495  10.792
73032SOL    HW220994   0.129   0.614  10.883
73033SOL     OW20995   5.366  12.773   5.536
73033SOL    HW120996   5.348  12.756   5.443
73033SOL    HW220997   5.317  12.705   5.582
73034SOL     OW20998  13.029   4.298  13.327
73034SOL    HW120999  13.015   4.368  13.390
73034SOL    HW221000  12.958   4.309  13.264
73035SOL     OW21001  14.697   6.645  10.470
73035SOL    HW121002  14.654   6.709  10.412
73035SOL    HW221003  14.635   6.632  10.542
73036SOL     OW21004   2.211  12.520   7.049
73036SOL    HW121005   2.169  12.495   6.967
73036SOL    HW221006   2.138  12.535   7.109
73037SOL     OW21007  12.519   2.065   8.083
73037SOL    HW121008  12.490   2.021   8.163
73037SOL    HW221009  12.586   2.126   8.113
73038SOL     OW21010  14.319   7.600  11.868
73038SOL    HW121011  14.366   7.575  11.948
73038SOL    HW221012  14.351   7.688  11.848
73039SOL     OW21013  13.047   9.926   8.183
73039SOL    HW121014  13.001   9.846   8.206
73039SOL    HW221015  13.129   9.923   8.233
73040SOL     OW21016  13.006  14.480   7.919
73040SOL    HW121017  13.058  14.465   7.998
73040SOL    HW221018  12.921  14.441   7.939
73041SOL     OW21019   4.368   7.186  12.937
73041SOL    HW121020   4.392   7.236  12.859
73041SOL    HW221021   4.366   7.095  12.907
73042SOL     OW21022   1.037   9.452   8.705
73042SOL    HW121023   1.110   9.391   8.716
73042SOL    HW221024   0.965   9.412   8.753
73043SOL     OW21025  11.853  10.507   6.145
73043SOL    HW121026  11.866  10.434   6.205
73043SOL    HW221027  11.855  10.467   6.058
73044SOL     OW21028   6.722  12.574   8.044
73044SOL    HW121029   6.785  12.518   8.089
73044SOL    HW221030   6.772  12.652   8.021
73045SOL     OW21031   7.887   0.735   7.482
73045SOL    HW121032   7.960   0.702   7.535
73045SOL    HW221033   7.880   0.827   7.507
73046SOL     OW21034   8.252  14.278   9.647
73046SOL    HW121035   8.227  14.314   9.732
73046SOL    HW221036   8.320  14.213   9.667
73047SOL     OW21037   1.760  14.156   4.795
73047SOL    HW121038   1.846  14.120   4.815
73047SOL    HW221039   1.714  14.154   4.879
73048SOL     OW21040   3.526  11.676   2.997
73048SOL    HW121041   3.544  11.712   2.910
73048SOL    HW221042   3.609  11.640   3.026
73049SOL     OW21043  11.264   1.034   7.026
73049SOL    HW121044  11.172   1.052   7.042
73049SOL    HW221045  11.270   1.020   6.932
73050SOL     OW21046   4.479   8.474   9.549
73050SOL    HW121047   4.512   8.558   9.517
73050SOL    HW221048   4.546   8.445   9.611
73051SOL     OW21049  13.875   3.748   7.452
73051SOL    HW121050  13.851   3.686   7.383
73051SOL    HW221051  13.966   3.725   7.474
73052SOL     OW21052   5.509  12.545   7.356
73052SOL    HW121053   5.596  12.579   7.335
73052SOL    HW221054   5.449  12.614   7.327
73053SOL     OW21055  13.315   3.052   9.249
73053SOL    HW121056  13.260   3.051   9.171
73053SOL    HW221057  13.253   3.039   9.321
73054SOL     OW21058   2.517  11.345  10.823
73054SOL    HW121059   2.555  11.413  10.879
73054SOL    HW221060   2.592  11.300  10.786
73055SOL     OW21061   4.453   8.309  12.726
73055SOL    HW121062   4.433   8.305  12.633
73055SOL    HW221063   4.539   8.267  12.735
73056SOL     OW21064   6.795  12.336  12.616
73056SOL    HW121065   6.873  12.385  12.644
73056SOL    HW221066   6.791  12.349  12.521
73057SOL     OW21067  14.136   3.063   1.714
73057SOL    HW121068  14.205   2.998   1.703
73057SOL    HW221069  14.103   3.048   1.803
73058SOL     OW21070  13.944   1.152  14.024
73058SOL    HW121071  13.872   1.124  14.081
73058SOL    HW221072  13.912   1.230  13.981
73059SOL     OW21073   8.832   2.104   3.311
73059SOL    HW121074   8.921   2.115   3.277
73059SOL    HW221075   8.821   2.177   3.373
73060SOL     OW21076   9.954   5.684  11.419
73060SOL    HW121077  10.003   5.616  11.371
73060SOL    HW221078  10.020   5.726  11.474
73061SOL     OW21079  14.569   6.803   4.073
73061SOL    HW121080  14.653   6.770   4.107
73061SOL    HW221081  14.593   6.868   4.008
73062SOL     OW21082  10.424   1.269  11.852
73062SOL    HW121083  10.429   1.261  11.757
73062SOL    HW221084  10.510   1.303  11.878
73063SOL     OW21085   5.529   6.346   2.679
73063SOL    HW121086   5.554   6.438   2.685
73063SOL    HW221087   5.611   6.298   2.686
73064SOL     OW21088   9.432  13.540   9.220
73064SOL    HW121089   9.432  13.489   9.139
73064SOL    HW221090   9.426  13.475   9.290
73065SOL     OW21091   5.441   1.122  14.315
73065SOL    HW121092   5.498   1.076  14.253
73065SOL    HW221093   5.441   1.213  14.285
73066SOL     OW21094   3.860   5.529  13.385
73066SOL    HW121095   3.877   5.608  13.437
73066SOL    HW221096   3.852   5.459  13.450
73067SOL     OW21097  14.145  13.185   8.684
73067SOL    HW121098  14.095  13.177   8.603
73067SOL    HW221099  14.094  13.137   8.749
73068SOL     OW21100   8.848   7.343   5.165
73068SOL    HW121101   8.808   7.426   5.140
73068SOL    HW221102   8.886   7.359   5.251
73069SOL     OW21103   9.736   2.229   4.961
73069SOL    HW121104   9.705   2.262   5.046
73069SOL    HW221105   9.814   2.178   4.982
73070SOL     OW21106  12.830  11.042   0.564
73070SOL    HW121107  12.830  10.952   0.533
73070SOL    HW221108  12.911  11.050   0.615
73071SOL     OW21109  10.830   2.902  13.712
73071SOL    HW121110  10.831   2.863  13.799
73071SOL    HW221111  10.771   2.847  13.661
73072SOL     OW21112   3.712   5.622   6.521
73072SOL    HW121113   3.713   5.617   6.616
73072SOL    HW221114   3.777   5.558   6.492
73073SOL     OW21115  11.845  13.968  14.130
73073SOL    HW121116  11.756  13.971  14.095
73073SOL    HW221117  11.844  14.028  14.204
73074SOL     OW21118   1.092  11.627  12.439
73074SOL    HW121119   1.111  11.621  12.345
73074SOL    HW221120   1.166  11.674  12.476
73075SOL     OW21121   6.882   0.504   7.328
73075SOL    HW121122   6.953   0.552   7.372
73075SOL    HW221123   6.812   0.500   7.393
73076SOL     OW21124   4.410   4.452   5.981
73076SOL    HW121125   4.403   4.498   5.897
73076SOL    HW221126   4.502   4.463   6.006
73077SOL     OW21127   1.795   4.334   0.603
73077SOL    HW121128   1.763   4.295   0.522
73077SOL    HW221129   1.825   4.421   0.577
73078SOL     OW21130   4.011   9.965   3.976
73078SOL    HW121131   3.985   9.955   4.068
73078SOL    HW221132   3.939  10.014   3.936
73079SOL     OW21133   3.158   1.588  10.261
73079SOL    HW121134   3.124   1.674  10.288
73079SOL    HW221135   3.228   1.569  10.323
73080SOL     OW21136  13.162  10.047   3.007
73080SOL    HW121137  13.240  10.009   2.967
73080SOL    HW221138  13.147  10.128   2.957
73081SOL     OW21139   4.383   6.163   8.783
73081SOL    HW121140   4.387   6.169   8.687
73081SOL    HW221141   4.473   6.178   8.811
73082SOL     OW21142   9.191   9.547  12.976
73082SOL    HW121143   9.272   9.552  13.026
73082SOL    HW221144   9.188   9.628  12.926
73083SOL     OW21145  12.862  12.209  10.211
73083SOL    HW121146  12.833  12.159  10.287
73083SOL    HW221147  12.807  12.287  10.211
73084SOL     OW21148  12.641   3.652  13.228
73084SOL    HW121149  12.625   3.562  13.199
73084SOL    HW221150  12.553   3.686  13.246
73085SOL     OW21151  10.990   7.008   7.826
73085SOL    HW121152  10.956   6.934   7.876
73085SOL    HW221153  11.078   7.022   7.861
73086SOL     OW21154  11.182  11.705   4.716
73086SOL    HW121155  11.107  11.668   4.671
73086SOL    HW221156  11.218  11.633   4.768
73087SOL     OW21157   1.363   3.882   5.535
73087SOL    HW121158   1.352   3.788   5.517
73087SOL    HW221159   1.361   3.923   5.448
73088SOL     OW21160   2.494  12.533  14.543
73088SOL    HW121161   2.491  12.476  14.620
73088SOL    HW221162   2.450  12.483  14.475
73089SOL     OW21163   6.750  10.458   9.766
73089SOL    HW121164   6.761  10.468   9.671
73089SOL    HW221165   6.733  10.365   9.778
73090SOL     OW21166   2.542   3.491   5.552
73090SOL    HW121167   2.625   3.447   5.534
73090SOL    HW221168   2.505   3.443   5.626
73091SOL     OW21169   5.092   0.932  13.735
73091SOL    HW121170   5.118   0.874  13.807
73091SOL    HW221171   5.130   1.017  13.758
73092SOL     OW21172  10.916   6.989  11.222
73092SOL    HW121173  10.832   7.022  11.190
73092SOL    HW221174  10.938   6.916  11.163
73093SOL     OW21175   9.460   0.640  12.658
73093SOL    HW121176   9.465   0.546  12.676
73093SOL    HW221177   9.500   0.681  12.735
73094SOL     OW21178   0.546  12.472  12.423
73094SOL    HW121179   0.566  12.560  12.454
73094SOL    HW221180   0.473  12.443  12.477
73095SOL     OW21181   5.602  10.576  10.958
73095SOL    HW121182   5.595  10.660  10.914
73095SOL    HW221183   5.548  10.517  10.906
73096SOL     OW21184  11.842   9.311  11.502
73096SOL    HW121185  11.789   9.389  11.489
73096SOL    HW221186  11.874   9.289  11.414
73097SOL     OW21187  13.263  14.575  14.237
73097SOL    HW121188  13.259  14.534  14.150
73097SOL    HW221189  13.319  14.652  14.224
73098SOL     OW21190   2.506   7.373   0.422
73098SOL    HW121191   2.458   7.388   0.504
73098SOL    HW221192   2.530   7.281   0.425
73099SOL     OW21193  10.314  12.106   8.548
73099SOL    HW121194  10.358  12.169   8.491
73099SOL    HW221195  10.347  12.126   8.636
73100SOL     OW21196   4.283  13.425   3.831
73100SOL    HW121197   4.302  13.343   3.785
73100SOL    HW221198   4.206  13.460   3.787
73101SOL     OW21199   2.663   8.091  14.405
73101SOL    HW121200   2.662   8.186  14.392
73101SOL    HW221201   2.734   8.076  14.467
73102SOL     OW21202   0.830  10.269   5.458
73102SOL    HW121203   0.841  10.253   5.364
73102SOL    HW221204   0.767  10.202   5.486
73103SOL     OW21205  14.705  14.490   3.473
73103SOL    HW121206  14.642  14.562   3.477
73103SOL    HW221207  14.689  14.439   3.552
73104SOL     OW21208   6.606   4.318   2.333
73104SOL    HW121209   6.517   4.352   2.344
73104SOL    HW221210   6.659   4.395   2.314
73105SOL     OW21211  14.527  13.144  13.746
73105SOL    HW121212  14.512  13.236  13.770
73105SOL    HW221213  14.574  13.107  13.820
73106SOL     OW21214   5.920   4.511  13.635
73106SOL    HW121215   5.883   4.581  13.688
73106SOL    HW221216   5.944   4.553  13.552
73107SOL     OW21217  10.298   2.879   1.276
73107SOL    HW121218  10.219   2.848   1.319
73107SOL    HW221219  10.313   2.967   1.312
73108SOL     OW21220   2.297   1.160   6.836
73108SOL    HW121221   2.315   1.254   6.837
73108SOL    HW221222   2.203   1.153   6.820
73109SOL     OW21223   6.241   5.568   9.382
73109SOL    HW121224   6.336   5.577   9.381
73109SOL    HW221225   6.214   5.602   9.467
73110SOL     OW21226   8.466   7.799   0.824
73110SOL    HW121227   8.438   7.712   0.796
73110SOL    HW221228   8.556   7.806   0.792
73111SOL     OW21229  12.658  10.490   0.690
73111SOL    HW121230  12.635  10.562   0.630
73111SOL    HW221231  12.618  10.515   0.773
73112SOL     OW21232   6.763   7.187  12.718
73112SOL    HW121233   6.741   7.136  12.796
73112SOL    HW221234   6.755   7.125  12.646
73113SOL     OW21235   7.849   1.818   5.508
73113SOL    HW121236   7.830   1.859   5.424
73113SOL    HW221237   7.940   1.790   5.502
73114SOL     OW21238   0.803   2.151  13.599
73114SOL    HW121239   0.738   2.150  13.528
73114SOL    HW221240   0.751   2.145  13.679
73115SOL     OW21241   5.250  12.498   0.670
73115SOL    HW121242   5.331  12.464   0.634
73115SOL    HW221243   5.273  12.529   0.758
73116SOL     OW21244   4.912  13.695   6.006
73116SOL    HW121245   4.940  13.645   6.083
73116SOL    HW221246   4.930  13.638   5.932
73117SOL     OW21247   2.460   1.385   7.788
73117SOL    HW121248   2.425   1.443   7.720
73117SOL    HW221249   2.471   1.441   7.864
73118SOL     OW21250   1.152   2.111   2.900
73118SOL    HW121251   1.188   2.186   2.853
73118SOL    HW221252   1.177   2.035   2.848
73119SOL     OW21253   9.477   6.960   2.284
73119SOL    HW121254   9.466   6.865   2.286
73119SOL    HW221255   9.522   6.977   2.201
73120SOL     OW21256   6.431  10.887   8.266
73120SOL    HW121257   6.502  10.872   8.204
73120SOL    HW221258   6.353  10.854   8.222
73121SOL     OW21259   1.229   0.190  10.601
73121SOL    HW121260   1.191   0.124  10.543
73121SOL    HW221261   1.312   0.152  10.630
73122SOL     OW21262   7.659   1.954   4.187
73122SOL    HW121263   7.708   2.036   4.184
73122SOL    HW221264   7.587   1.966   4.125
73123SOL     OW21265  12.080   9.664  14.705
73123SOL    HW121266  12.017   9.656  14.633
73123SOL    HW221267  12.069   9.754  14.736
73124SOL     OW21268  10.706   3.488   4.002
73124SOL    HW121269  10.620   3.529   4.009
73124SOL    HW221270  10.703   3.416   4.066
73125SOL     OW21271   7.935   5.779  13.563
73125SOL    HW121272   7.925   5.873  13.580
73125SOL    HW221273   8.030   5.768  13.553
73126SOL     OW21274   1.693   6.515   1.618
73126SOL    HW121275   1.721   6.429   1.649
73126SOL    HW221276   1.773   6.567   1.617
73127SOL     OW21277   2.055  14.429   5.830
73127SOL    HW121278   2.049  14.524   5.840
73127SOL    HW221279   2.059  14.395   5.919
73128SOL     OW21280  12.990  14.623   5.425
73128SOL    HW121281  12.930  14.626   5.352
73128SOL    HW221282  13.075  14.604   5.386
73129SOL     OW21283   0.184   1.653   1.827
73129SOL    HW121284   0.239   1.727   1.801
73129SOL    HW221285   0.227   1.618   1.905
73130SOL     OW21286   3.755  13.846  12.839
73130SOL    HW121287   3.827  13.818  12.782
73130SOL    HW221288   3.680  13.794  12.809
73131SOL     OW21289   6.752  10.700  12.307
73131SOL    HW121290   6.756  10.725  12.215
73131SOL    HW221291   6.764  10.605  12.306
73132SOL     OW21292   5.067  14.056   2.573
73132SOL    HW121293   5.139  13.993   2.570
73132SOL    HW221294   5.108  14.137   2.603
73133SOL     OW21295   5.597   7.697   9.805
73133SOL    HW121296   5.688   7.710   9.781
73133SOL    HW221297   5.566   7.783   9.833
73134SOL     OW21298  12.859  13.069   0.150
73134SOL    HW121299  12.771  13.062   0.188
73134SOL    HW221300  12.861  13.156   0.111
73135SOL     OW21301  10.898   1.714  13.424
73135SOL    HW121302  10.862   1.628  13.446
73135SOL    HW221303  10.985   1.714  13.462
73136SOL     OW21304   2.535   4.257   8.555
73136SOL    HW121305   2.554   4.278   8.464
73136SOL    HW221306   2.568   4.168   8.567
73137SOL     OW21307   3.436  11.440   7.782
73137SOL    HW121308   3.511  11.439   7.841
73137SOL    HW221309   3.373  11.497   7.826
73138SOL     OW21310  14.297  13.689   1.175
73138SOL    HW121311  14.261  13.761   1.123
73138SOL    HW221312  14.269  13.708   1.265
73139SOL     OW21313  12.728  12.376   9.679
73139SOL    HW121314  12.635  12.358   9.688
73139SOL    HW221315  12.770  12.316   9.740
73140SOL     OW21316  10.960   2.570  13.624
73140SOL    HW121317  11.014   2.630  13.676
73140SOL    HW221318  11.022   2.526  13.567
73141SOL     OW21319   7.307   7.793  10.968
73141SOL    HW121320   7.245   7.863  10.989
73141SOL    HW221321   7.376   7.836  10.918
73142SOL     OW21322   2.559   5.045   4.662
73142SOL    HW121323   2.647   5.064   4.696
73142SOL    HW221324   2.504   5.039   4.739
73143SOL     OW21325   2.272  10.781  12.320
73143SOL    HW121326   2.352  10.731  12.307
73143SOL    HW221327   2.208  10.738  12.262
73144SOL     OW21328  12.314  14.535   5.181
73144SOL    HW121329  12.334  14.568   5.093
73144SOL    HW221330  12.255  14.461   5.166
73145SOL     OW21331   2.561   1.380   6.719
73145SOL    HW121332   2.498   1.416   6.781
73145SOL    HW221333   2.533   1.413   6.634
73146SOL     OW21334  13.957   3.819  12.300
73146SOL    HW121335  13.870   3.779  12.305
73146SOL    HW221336  13.988   3.798  12.212
73147SOL     OW21337   4.505   8.560  12.835
73147SOL    HW121338   4.589   8.566  12.792
73147SOL    HW221339   4.466   8.480  12.800
73148SOL     OW21340   2.119   9.257   1.574
73148SOL    HW121341   2.164   9.299   1.500
73148SOL    HW221342   2.179   9.268   1.648
73149SOL     OW21343   6.662   4.028   4.514
73149SOL    HW121344   6.685   4.058   4.602
73149SOL    HW221345   6.586   3.971   4.527
73150SOL     OW21346  13.629   5.035   3.661
73150SOL    HW121347  13.644   4.985   3.742
73150SOL    HW221348  13.716   5.059   3.632
73151SOL     OW21349  13.946   1.976   4.672
73151SOL    HW121350  13.944   2.069   4.691
73151SOL    HW221351  13.860   1.944   4.700
73152SOL     OW21352   9.715   6.017  10.403
73152SOL    HW121353   9.626   6.014  10.439
73152SOL    HW221354   9.763   6.072  10.465
73153SOL     OW21355   8.036   1.629  10.925
73153SOL    HW121356   7.995   1.564  10.983
73153SOL    HW221357   8.120   1.589  10.902
73154SOL     OW21358  13.976   3.464   1.570
73154SOL    HW121359  13.966   3.410   1.648
73154SOL    HW221360  14.004   3.403   1.502
73155SOL     OW21361  14.799   2.725   1.525
73155SOL    HW121362  14.720   2.695   1.569
73155SOL    HW221363  14.855   2.757   1.595
73156SOL     OW21364  12.461   3.372  13.432
73156SOL    HW121365  12.459   3.276  13.430
73156SOL    HW221366  12.476   3.397  13.340
73157SOL     OW21367  11.137  14.119   3.673
73157SOL    HW121368  11.112  14.173   3.597
73157SOL    HW221369  11.092  14.160   3.747
73158SOL     OW21370   7.374   0.895  12.683
73158SOL    HW121371   7.290   0.871  12.722
73158SOL    HW221372   7.421   0.813  12.673
73159SOL     OW21373   8.468   0.105   5.654
73159SOL    HW121374   8.451   0.196   5.679
73159SOL    HW221375   8.521   0.070   5.726
73160SOL     OW21376  13.387   6.453   9.296
73160SOL    HW121377  13.341   6.492   9.371
73160SOL    HW221378  13.328   6.468   9.222
73161SOL     OW21379   1.914  11.111   9.854
73161SOL    HW121380   1.972  11.058   9.909
73161SOL    HW221381   1.860  11.160   9.917
73162SOL     OW21382   8.294   5.536   2.034
73162SOL    HW121383   8.349   5.460   2.054
73162SOL    HW221384   8.352   5.598   1.992
73163SOL     OW21385   8.645  13.422   6.545
73163SOL    HW121386   8.639  13.327   6.549
73163SOL    HW221387   8.578  13.447   6.481
73164SOL     OW21388  11.239  10.012  14.367
73164SOL    HW121389  11.236   9.933  14.313
73164SOL    HW221390  11.297  10.071  14.319
73165SOL     OW21391   9.536   7.522   8.950
73165SOL    HW121392   9.519   7.567   8.867
73165SOL    HW221393   9.469   7.556   9.009
73166SOL     OW21394   1.923   0.830   6.065
73166SOL    HW121395   2.007   0.805   6.027
73166SOL    HW221396   1.940   0.838   6.159
73167SOL     OW21397   2.314  11.180   9.661
73167SOL    HW121398   2.231  11.132   9.667
73167SOL    HW221399   2.359  11.140   9.587
73168SOL     OW21400  11.382   2.263   4.594
73168SOL    HW121401  11.475   2.241   4.605
73168SOL    HW221402  11.335   2.192   4.636
73169SOL     OW21403   1.425   3.086   2.420
73169SOL    HW121404   1.363   3.029   2.466
73169SOL    HW221405   1.373   3.126   2.350
73170SOL     OW21406  11.078   3.488   1.328
73170SOL    HW121407  11.164   3.497   1.287
73170SOL    HW221408  11.043   3.577   1.330
73171SOL     OW21409   4.412  13.309  11.862
73171SOL    HW121410   4.365  13.353  11.932
73171SOL    HW221411   4.442  13.226  11.900
73172SOL     OW21412  10.580  14.834  13.548
73172SOL    HW121413  10.514   0.033  13.543
73172SOL    HW221414  10.580  14.805  13.639
73173SOL     OW21415   3.043   8.598   8.237
73173SOL    HW121416   2.999   8.668   8.286
73173SOL    HW221417   3.002   8.598   8.151
73174SOL     OW21418  10.540   7.777  11.087
73174SOL    HW121419  10.596   7.851  11.108
73174SOL    HW221420  10.597   7.714  11.042
73175SOL     OW21421   4.685   0.119   2.900
73175SOL    HW121422   4.698   0.203   2.857
73175SOL    HW221423   4.590   0.108   2.904
73176SOL     OW21424   9.610  12.170   9.945
73176SOL    HW121425   9.645  12.091   9.985
73176SOL    HW221426   9.585  12.144   9.857
73177SOL     OW21427   4.085   6.141   4.859
73177SOL    HW121428   4.130   6.058   4.873
73177SOL    HW221429   4.052   6.136   4.769
73178SOL     OW21430   7.074  14.820  13.677
73178SOL    HW121431   7.059  14.862  13.592
73178SOL    HW221432   7.091  14.729  13.656
73179SOL     OW21433   0.603   7.527   5.116
73179SOL    HW121434   0.574   7.614   5.142
73179SOL    HW221435   0.560   7.512   5.032
73180SOL     OW21436   8.352   6.719  14.845
73180SOL    HW121437   8.373   6.663   0.050
73180SOL    HW221438   8.321   6.801   0.014
73181SOL     OW21439  14.183   8.380   8.621
73181SOL    HW121440  14.232   8.407   8.543
73181SOL    HW221441  14.242   8.319   8.666
73182SOL     OW21442   7.445   8.126   6.578
73182SOL    HW121443   7.413   8.147   6.666
73182SOL    HW221444   7.537   8.153   6.579
73183SOL     OW21445   1.554   2.133   3.597
73183SOL    HW121446   1.491   2.176   3.654
73183SOL    HW221447   1.553   2.184   3.516
73184SOL     OW21448   2.595   3.331  13.184
73184SOL    HW121449   2.691   3.335  13.187
73184SOL    HW221450   2.570   3.403  13.125
73185SOL     OW21451   7.338  13.886   0.083
73185SOL    HW121452   7.331  13.793   0.105
73185SOL    HW221453   7.310  13.932   0.161
73186SOL     OW21454   2.986   5.651   1.748
73186SOL    HW121455   2.966   5.612   1.833
73186SOL    HW221456   3.060   5.600   1.714
73187SOL     OW21457  11.327   9.032  14.636
73187SOL    HW121458  11.419   9.008  14.646
73187SOL    HW221459  11.329   9.127  14.620
73188SOL     OW21460   6.293   4.984  12.811
73188SOL    HW121461   6.319   5.068  12.848
73188SOL    HW221462   6.348   4.974  12.733
73189SOL     OW21463  10.313   4.289   4.143
73189SOL    HW121464  10.224   4.320   4.127
73189SOL    HW221465  10.355   4.360   4.192
73190SOL     OW21466  11.609   6.103   3.284
73190SOL    HW121467  11.597   6.126   3.376
73190SOL    HW221468  11.523   6.115   3.244
73191SOL     OW21469   5.174   5.641  13.924
73191SOL    HW121470   5.081   5.619  13.935
73191SOL    HW221471   5.184   5.656  13.830
73192SOL     OW21472   1.344  11.558   2.479
73192SOL    HW121473   1.249  11.550   2.471
73192SOL    HW221474   1.363  11.647   2.449
73193SOL     OW21475   8.168   2.261   9.986
73193SOL    HW121476   8.239   2.309  10.029
73193SOL    HW221477   8.105   2.328   9.960
73194SOL     OW21478   7.061   5.340  13.960
73194SOL    HW121479   7.135   5.279  13.953
73194SOL    HW221480   6.985   5.288  13.935
73195SOL     OW21481  12.451   5.504   1.760
73195SOL    HW121482  12.422   5.451   1.685
73195SOL    HW221483  12.530   5.459   1.791
73196SOL     OW21484  12.936   5.282   5.074
73196SOL    HW121485  12.884   5.219   5.124
73196SOL    HW221486  12.883   5.362   5.073
73197SOL     OW21487   6.924  14.161  11.846
73197SOL    HW121488   6.949  14.112  11.767
73197SOL    HW221489   6.977  14.123  11.916
73198SOL     OW21490   3.441   5.517   1.827
73198SOL    HW121491   3.510   5.584   1.818
73198SOL    HW221492   3.437   5.499   1.921
73199SOL     OW21493   6.940  11.188   8.746
73199SOL    HW121494   6.993  11.132   8.688
73199SOL    HW221495   6.989  11.270   8.752
73200SOL     OW21496   4.771  12.840   1.772
73200SOL    HW121497   4.843  12.859   1.712
73200SOL    HW221498   4.737  12.755   1.743
73201SOL     OW21499   4.253   5.424   9.503
73201SOL    HW121500   4.325   5.360   9.496
73201SOL    HW221501   4.266   5.464   9.589
73202SOL     OW21502  14.557  11.968  12.766
73202SOL    HW121503  14.531  12.059  12.783
73202SOL    HW221504  14.640  11.975  12.720
73203SOL     OW21505  12.334  12.328   2.868
73203SOL    HW121506  12.281  12.254   2.898
73203SOL    HW221507  12.422  12.308   2.898
73204SOL     OW21508   5.693   6.080   2.754
73204SOL    HW121509   5.677   6.019   2.826
73204SOL    HW221510   5.767   6.133   2.783
73205SOL     OW21511  11.674   4.849  12.802
73205SOL    HW121512  11.714   4.807  12.878
73205SOL    HW221513  11.748   4.872  12.745
73206SOL     OW21514   3.788   4.439   4.360
73206SOL    HW121515   3.765   4.530   4.343
73206SOL    HW221516   3.880   4.442   4.388
73207SOL     OW21517  10.590   2.798   3.362
73207SOL    HW121518  10.590   2.760   3.274
73207SOL    HW221519  10.598   2.892   3.347
73208SOL     OW21520   4.362   5.927  10.429
73208SOL    HW121521   4.391   5.995  10.490
73208SOL    HW221522   4.369   5.846  10.479
73209SOL     OW21523   6.813  10.490   0.050
73209SOL    HW121524   6.890  10.539   0.021
73209SOL    HW221525   6.768  10.466  14.839
73210SOL     OW21526  12.424  13.949   2.251
73210SOL    HW121527  12.352  13.968   2.310
73210SOL    HW221528  12.461  13.867   2.284
73211SOL     OW21529   2.540   7.748   2.902
73211SOL    HW121530   2.487   7.788   2.971
73211SOL    HW221531   2.483   7.681   2.865
73212SOL     OW21532  10.336   5.878  12.706
73212SOL    HW121533  10.334   5.784  12.724
73212SOL    HW221534  10.254   5.895  12.659
73213SOL     OW21535  13.764   0.770  14.280
73213SOL    HW121536  13.729   0.681  14.273
73213SOL    HW221537  13.714   0.810  14.350
73214SOL     OW21538  10.984  11.143   3.315
73214SOL    HW121539  10.949  11.220   3.360
73214SOL    HW221540  10.911  11.111   3.262
73215SOL     OW21541   1.310   2.012   8.185
73215SOL    HW121542   1.359   1.988   8.264
73215SOL    HW221543   1.250   1.939   8.170
73216SOL     OW21544  12.472   4.928  10.046
73216SOL    HW121545  12.528   4.910   9.971
73216SOL    HW221546  12.383   4.934  10.010
73217SOL     OW21547  11.241   4.235   7.166
73217SOL    HW121548  11.188   4.309   7.195
73217SOL    HW221549  11.297   4.215   7.242
73218SOL     OW21550   1.808   3.847   8.327
73218SOL    HW121551   1.830   3.757   8.351
73218SOL    HW221552   1.718   3.842   8.294
73219SOL     OW21553   1.790   3.810   8.022
73219SOL    HW121554   1.697   3.831   8.012
73219SOL    HW221555   1.831   3.850   7.945
73220SOL     OW21556  13.448  13.429   8.418
73220SOL    HW121557  13.472  13.337   8.430
73220SOL    HW221558  13.528  13.471   8.388
73221SOL     OW21559  14.046   4.255   1.781
73221SOL    HW121560  14.127   4.286   1.821
73221SOL    HW221561  14.022   4.177   1.831
73222SOL     OW21562  11.267  13.556   7.388
73222SOL    HW121563  11.190  13.529   7.339
73222SOL    HW221564  11.331  13.487   7.372
73223SOL     OW21565   9.111   2.919  11.919
73223SOL    HW121566   9.023   2.909  11.885
73223SOL    HW221567   9.099   2.960  12.005
73224SOL     OW21568   1.130   4.063   7.428
73224SOL    HW121569   1.186   4.013   7.488
73224SOL    HW221570   1.061   4.002   7.403
73225SOL     OW21571   6.463   5.598   2.768
73225SOL    HW121572   6.383   5.567   2.811
73225SOL    HW221573   6.491   5.673   2.821
73226SOL     OW21574   2.256   3.988  11.573
73226SOL    HW121575   2.211   3.987  11.658
73226SOL    HW221576   2.261   4.080  11.550
73227SOL     OW21577   8.676   7.877  10.365
73227SOL    HW121578   8.679   7.826  10.446
73227SOL    HW221579   8.763   7.867  10.326
73228SOL     OW21580   3.414   0.759   5.472
73228SOL    HW121581   3.374   0.794   5.393
73228SOL    HW221582   3.342   0.723   5.523
73229SOL     OW21583   9.651  12.226   2.103
73229SOL    HW121584   9.671  12.278   2.025
73229SOL    HW221585   9.669  12.136   2.078
73230SOL     OW21586   2.267  10.882   6.508
73230SOL    HW121587   2.279  10.834   6.590
73230SOL    HW221588   2.172  10.884   6.495
73231SOL     OW21589   8.167  13.441   9.365
73231SOL    HW121590   8.128  13.521   9.330
73231SOL    HW221591   8.202  13.395   9.289
73232SOL     OW21592  11.392   1.350   6.284
73232SOL    HW121593  11.397   1.404   6.205
73232SOL    HW221594  11.417   1.262   6.254
73233SOL     OW21595   0.461  10.240   0.967
73233SOL    HW121596   0.453  10.209   0.876
73233SOL    HW221597   0.459  10.335   0.959
73234SOL     OW21598  10.486  14.868  14.132
73234SOL    HW121599  10.493  14.858  14.227
73234SOL    HW221600  10.392   0.012  14.116
73235SOL     OW21601  10.024   6.511   4.371
73235SOL    HW121602   9.998   6.549   4.455
73235SOL    HW221603   9.942   6.480   4.332
73236SOL     OW21604   4.901   7.403   3.271
73236SOL    HW121605   4.986   7.358   3.275
73236SOL    HW221606   4.896   7.437   3.182
73237SOL     OW21607   7.378  14.796   5.869
73237SOL    HW121608   7.297  14.840   5.843
73237SOL    HW221609   7.417  14.767   5.787
73238SOL     OW21610   9.208  12.443   5.071
73238SOL    HW121611   9.210  12.371   5.134
73238SOL    HW221612   9.122  12.482   5.082
73239SOL     OW21613   7.025   1.852  11.088
73239SOL    HW121614   6.931   1.846  11.074
73239SOL    HW221615   7.038   1.938  11.127
73240SOL     OW21616  11.081   2.557   8.558
73240SOL    HW121617  11.122   2.594   8.481
73240SOL    HW221618  11.054   2.469   8.532
73241SOL     OW21619  12.855  14.243  14.525
73241SOL    HW121620  12.909  14.316  14.496
73241SOL    HW221621  12.765  14.270  14.506
73242SOL     OW21622   3.933   7.911   8.207
73242SOL    HW121623   4.022   7.918   8.171
73242SOL    HW221624   3.945   7.925   8.301
73243SOL     OW21625  12.583  10.745   1.424
73243SOL    HW121626  12.489  10.737   1.409
73243SOL    HW221627  12.591  10.813   1.491
73244SOL     OW21628   3.993   2.999   2.859
73244SOL    HW121629   3.976   3.041   2.774
73244SOL    HW221630   3.910   2.958   2.882
73245SOL     OW21631  12.152   9.079   6.369
73245SOL    HW121632  12.188   9.136   6.437
73245SOL    HW221633  12.193   9.109   6.289
73246SOL     OW21634  14.662   1.340  14.707
73246SOL    HW121635  14.633   1.431  14.708
73246SOL    HW221636  14.581   1.290  14.718
73247SOL     OW21637   1.166   7.540   4.415
73247SOL    HW121638   1.149   7.570   4.326
73247SOL    HW221639   1.256   7.510   4.414
73248SOL     OW21640   0.806   1.970  14.401
73248SOL    HW121641   0.860   1.935  14.472
73248SOL    HW221642   0.716   1.964  14.433
73249SOL     OW21643  11.103  10.011   6.798
73249SOL    HW121644  11.173  10.049   6.852
73249SOL    HW221645  11.118  10.047   6.711
73250SOL     OW21646   0.238   4.663   5.365
73250SOL    HW121647   0.227   4.570   5.384
73250SOL    HW221648   0.157   4.688   5.321
73251SOL     OW21649  14.141  13.629  10.894
73251SOL    HW121650  14.051  13.660  10.896
73251SOL    HW221651  14.136  13.538  10.924
73252SOL     OW21652   8.150  10.490  13.414
73252SOL    HW121653   8.196  10.555  13.361
73252SOL    HW221654   8.126  10.536  13.494
73253SOL     OW21655  13.786   5.905   5.448
73253SOL    HW121656  13.738   5.881   5.527
73253SOL    HW221657  13.798   5.822   5.401
73254SOL     OW21658  14.786   9.268  14.693
73254SOL    HW121659  14.869   9.306  14.721
73254SOL    HW221660  14.810   9.200  14.631
73255SOL     OW21661  10.192   3.008   9.921
73255SOL    HW121662  10.225   2.931   9.875
73255SOL    HW221663  10.270   3.048   9.959
73256SOL     OW21664   0.962   2.468   4.707
73256SOL    HW121665   0.881   2.446   4.661
73256SOL    HW221666   1.007   2.384   4.719
73257SOL     OW21667   8.917  13.084  11.924
73257SOL    HW121668   8.831  13.126  11.922
73257SOL    HW221669   8.963  13.119  11.848
73258SOL     OW21670  10.641   6.656  14.269
73258SOL    HW121671  10.718   6.630  14.321
73258SOL    HW221672  10.641   6.752  14.272
73259SOL     OW21673  11.211  11.275   3.223
73259SOL    HW121674  11.175  11.199   3.267
73259SOL    HW221675  11.205  11.345   3.288
73260SOL     OW21676   1.978  13.995   3.971
73260SOL    HW121677   1.925  14.073   3.986
73260SOL    HW221678   2.032  13.987   4.049
73261SOL     OW21679   6.829   2.512  12.291
73261SOL    HW121680   6.917   2.475  12.299
73261SOL    HW221681   6.830   2.589  12.348
73262SOL     OW21682  11.251   2.143  14.525
73262SOL    HW121683  11.313   2.215  14.539
73262SOL    HW221684  11.290   2.069  14.570
73263SOL     OW21685  13.664   2.798   0.143
73263SOL    HW121686  13.749   2.790   0.185
73263SOL    HW221687  13.605   2.748   0.200
73264SOL     OW21688   9.612   0.590   4.544
73264SOL    HW121689   9.659   0.589   4.461
73264SOL    HW221690   9.606   0.683   4.567
73265SOL     OW21691   8.544   2.773   0.829
73265SOL    HW121692   8.552   2.681   0.853
73265SOL    HW221693   8.502   2.772   0.743
73266SOL     OW21694  13.181   4.149  11.031
73266SOL    HW121695  13.099   4.151  11.080
73266SOL    HW221696  13.229   4.226  11.063
73267SOL     OW21697  10.027   2.629   4.970
73267SOL    HW121698   9.996   2.708   4.925
73267SOL    HW221699   9.957   2.565   4.956
73268SOL     OW21700   5.832   0.621  11.641
73268SOL    HW121701   5.822   0.570  11.721
73268SOL    HW221702   5.743   0.624  11.603
73269SOL     OW21703   5.207  10.787   2.869
73269SOL    HW121704   5.235  10.780   2.960
73269SOL    HW221705   5.269  10.733   2.821
73270SOL     OW21706   7.783  10.884  10.615
73270SOL    HW121707   7.781  10.968  10.570
73270SOL    HW221708   7.787  10.907  10.708
73271SOL     OW21709  10.965  12.228   7.577
73271SOL    HW121710  10.967  12.261   7.487
73271SOL    HW221711  10.886  12.267   7.615
73272SOL     OW21712   3.466   6.879   0.383
73272SOL    HW121713   3.547   6.865   0.432
73272SOL    HW221714   3.397   6.848   0.441
73273SOL     OW21715   9.795  11.176   1.773
73273SOL    HW121716   9.751  11.248   1.819
73273SOL    HW221717   9.888  11.193   1.785
73274SOL     OW21718   5.845   7.760   1.467
73274SOL    HW121719   5.868   7.846   1.431
73274SOL    HW221720   5.863   7.699   1.395
73275SOL     OW21721  13.211  10.689   7.199
73275SOL    HW121722  13.183  10.646   7.280
73275SOL    HW221723  13.143  10.666   7.135
73276SOL     OW21724   0.472  11.724   0.817
73276SOL    HW121725   0.528  11.715   0.740
73276SOL    HW221726   0.391  11.679   0.793
73277SOL     OW21727   1.873   3.550   2.706
73277SOL    HW121728   1.903   3.561   2.616
73277SOL    HW221729   1.920   3.472   2.737
73278SOL     OW21730   4.285  12.986   5.220
73278SOL    HW121731   4.210  12.929   5.237
73278SOL    HW221732   4.246  13.073   5.208
73279SOL     OW21733   9.276   8.519   8.034
73279SOL    HW121734   9.353   8.572   8.011
73279SOL    HW221735   9.260   8.466   7.957
73280SOL     OW21736   2.537   3.389  10.149
73280SOL    HW121737   2.572   3.470  10.185
73280SOL    HW221738   2.581   3.380  10.064
73281SOL     OW21739   8.547  11.147   1.909
73281SOL    HW121740   8.594  11.230   1.921
73281SOL    HW221741   8.455  11.170   1.921
73282SOL     OW21742  10.702   2.675   9.182
73282SOL    HW121743  10.756   2.654   9.106
73282SOL    HW221744  10.765   2.679   9.255
73283SOL     OW21745  11.025   2.511   2.564
73283SOL    HW121746  11.061   2.556   2.488
73283SOL    HW221747  11.096   2.455   2.595
73284SOL     OW21748   1.782  10.056   3.719
73284SOL    HW121749   1.774  10.021   3.631
73284SOL    HW221750   1.821   9.985   3.770
73285SOL     OW21751   9.581  13.497   0.826
73285SOL    HW121752   9.629  13.574   0.855
73285SOL    HW221753   9.645  13.426   0.825
73286SOL     OW21754  14.760   9.332   4.234
73286SOL    HW121755  14.750   9.403   4.172
73286SOL    HW221756  14.693   9.268   4.209
73287SOL     OW21757   4.818  11.932   3.340
73287SOL    HW121758   4.792  11.919   3.431
73287SOL    HW221759   4.817  12.027   3.329
73288SOL     OW21760   7.886   6.844  14.287
73288SOL    HW121761   7.931   6.817  14.207
73288SOL    HW221762   7.956   6.854  14.352
73289SOL     OW21763   1.229   6.857   2.394
73289SOL    HW121764   1.318   6.888   2.412
73289SOL    HW221765   1.217   6.784   2.455
73290SOL     OW21766   7.870  14.233  11.137
73290SOL    HW121767   7.916  14.313  11.161
73290SOL    HW221768   7.931  14.162  11.158
73291SOL     OW21769   7.755   2.599   8.548
73291SOL    HW121770   7.711   2.550   8.478
73291SOL    HW221771   7.686   2.653   8.586
73292SOL     OW21772  11.088   8.561   5.986
73292SOL    HW121773  11.143   8.638   5.998
73292SOL    HW221774  11.150   8.489   5.974
73293SOL     OW21775   5.099   7.382   7.301
73293SOL    HW121776   5.084   7.290   7.278
73293SOL    HW221777   5.031   7.401   7.366
73294SOL     OW21778   3.052   8.501  11.001
73294SOL    HW121779   3.048   8.469  11.091
73294SOL    HW221780   2.966   8.539  10.985
73295SOL     OW21781  14.026   0.610   8.346
73295SOL    HW121782  13.955   0.581   8.288
73295SOL    HW221783  14.094   0.543   8.336
73296SOL     OW21784  12.636   1.074  14.004
73296SOL    HW121785  12.705   1.122  13.958
73296SOL    HW221786  12.562   1.076  13.945
73297SOL     OW21787   8.997   8.015  14.170
73297SOL    HW121788   9.034   7.955  14.235
73297SOL    HW221789   8.955   7.958  14.106
73298SOL     OW21790   9.413  14.697  14.674
73298SOL    HW121791   9.478  14.761  14.643
73298SOL    HW221792   9.332  14.747  14.684
73299SOL     OW21793  14.456   2.990   6.887
73299SOL    HW121794  14.391   2.981   6.957
73299SOL    HW221795  14.431   3.070   6.841
73300SOL     OW21796  10.104   3.127  12.899
73300SOL    HW121797  10.058   3.208  12.916
73300SOL    HW221798  10.038   3.058  12.911
73301SOL     OW21799   2.800   5.411   3.857
73301SOL    HW121800   2.873   5.462   3.821
73301SOL    HW221801   2.783   5.344   3.790
73302SOL     OW21802  14.028  11.864   6.562
73302SOL    HW121803  14.106  11.881   6.510
73302SOL    HW221804  14.046  11.904   6.647
73303SOL     OW21805   6.440  14.624   5.336
73303SOL    HW121806   6.498  14.652   5.406
73303SOL    HW221807   6.353  14.652   5.363
73304SOL     OW21808  10.634  10.616   2.716
73304SOL    HW121809  10.541  10.600   2.733
73304SOL    HW221810  10.635  10.698   2.667
73305SOL     OW21811   1.532   0.537   4.638
73305SOL    HW121812   1.542   0.540   4.543
73305SOL    HW221813   1.498   0.623   4.661
73306SOL     OW21814  11.059   6.808  12.223
73306SOL    HW121815  11.121   6.842  12.287
73306SOL    HW221816  10.990   6.874  12.219
73307SOL     OW21817   3.243  12.530   8.620
73307SOL    HW121818   3.223  12.474   8.545
73307SOL    HW221819   3.160  12.574   8.639
73308SOL     OW21820   7.410   8.498   8.410
73308SOL    HW121821   7.453   8.581   8.429
73308SOL    HW221822   7.394   8.459   8.497
73309SOL     OW21823  13.851   9.961   6.490
73309SOL    HW121824  13.804  10.027   6.541
73309SOL    HW221825  13.820   9.877   6.523
73310SOL     OW21826   3.317   2.965   8.237
73310SOL    HW121827   3.243   2.905   8.231
73310SOL    HW221828   3.291   3.028   8.305
73311SOL     OW21829   8.367  14.639   4.419
73311SOL    HW121830   8.356  14.565   4.360
73311SOL    HW221831   8.407  14.601   4.497
73312SOL     OW21832   8.778   8.005   7.859
73312SOL    HW121833   8.773   8.100   7.869
73312SOL    HW221834   8.692   7.974   7.887
73313SOL     OW21835  10.055   3.397   6.110
73313SOL    HW121836  10.111   3.336   6.158
73313SOL    HW221837   9.990   3.342   6.067
73314SOL     OW21838   2.267   6.084  10.579
73314SOL    HW121839   2.251   6.003  10.628
73314SOL    HW221840   2.180   6.117  10.559
73315SOL     OW21841   1.474   2.475   6.925
73315SOL    HW121842   1.566   2.471   6.897
73315SOL    HW221843   1.455   2.569   6.928
73316SOL     OW21844   9.946   8.524  11.546
73316SOL    HW121845   9.900   8.537  11.463
73316SOL    HW221846  10.039   8.533  11.524
73317SOL     OW21847   1.354  13.365  14.286
73317SOL    HW121848   1.413  13.369  14.360
73317SOL    HW221849   1.342  13.456  14.259
73318SOL     OW21850   8.571   2.825  12.713
73318SOL    HW121851   8.506   2.878  12.668
73318SOL    HW221852   8.520   2.759  12.761
73319SOL     OW21853  13.835   0.737   5.661
73319SOL    HW121854  13.890   0.660   5.644
73319SOL    HW221855  13.784   0.748   5.580
73320SOL     OW21856   7.625   6.663   6.526
73320SOL    HW121857   7.537   6.625   6.526
73320SOL    HW221858   7.647   6.671   6.433
73321SOL     OW21859   7.489   1.237  14.411
73321SOL    HW121860   7.518   1.250  14.321
73321SOL    HW221861   7.473   1.143  14.418
73322SOL     OW21862   3.734   5.153   9.026
73322SOL    HW121863   3.727   5.075   9.081
73322SOL    HW221864   3.804   5.204   9.066
73323SOL     OW21865   0.961   3.328   5.192
73323SOL    HW121866   0.986   3.414   5.159
73323SOL    HW221867   0.866   3.323   5.177
73324SOL     OW21868   1.823   7.478  12.385
73324SOL    HW121869   1.813   7.441  12.472
73324SOL    HW221870   1.910   7.518  12.386
73325SOL     OW21871   0.649   9.348  13.700
73325SOL    HW121872   0.614   9.261  13.720
73325SOL    HW221873   0.733   9.351  13.746
73326SOL     OW21874   1.988   8.332   3.786
73326SOL    HW121875   2.024   8.414   3.751
73326SOL    HW221876   2.046   8.264   3.753
73327SOL     OW21877  11.460  10.780   5.299
73327SOL    HW121878  11.405  10.746   5.229
73327SOL    HW221879  11.399  10.811   5.365
73328SOL     OW21880  14.307   1.667   6.134
73328SOL    HW121881  14.287   1.727   6.062
73328SOL    HW221882  14.348   1.591   6.092
73329SOL     OW21883  10.253   5.417   8.428
73329SOL    HW121884  10.332   5.447   8.473
73329SOL    HW221885  10.249   5.323   8.446
73330SOL     OW21886   3.159   4.878  10.259
73330SOL    HW121887   3.075   4.844  10.229
73330SOL    HW221888   3.135   4.952  10.316
73331SOL     OW21889  12.763   5.128   6.271
73331SOL    HW121890  12.781   5.207   6.322
73331SOL    HW221891  12.697   5.155   6.208
73332SOL     OW21892   5.892   2.324   5.463
73332SOL    HW121893   5.889   2.231   5.442
73332SOL    HW221894   5.825   2.364   5.408
73333SOL     OW21895   0.643  13.022  10.636
73333SOL    HW121896   0.599  12.993  10.556
73333SOL    HW221897   0.642  13.117  10.632
73334SOL     OW21898  14.551   7.494   6.761
73334SOL    HW121899  14.558   7.400   6.747
73334SOL    HW221900  14.527   7.503   6.853
73335SOL     OW21901   3.113   2.834  10.384
73335SOL    HW121902   3.137   2.927  10.378
73335SOL    HW221903   3.018   2.835  10.392
73336SOL     OW21904   9.247  12.932   1.306
73336SOL    HW121905   9.323  12.961   1.257
73336SOL    HW221906   9.273  12.849   1.345
73337SOL     OW21907   5.962  10.485   5.816
73337SOL    HW121908   5.952  10.400   5.859
73337SOL    HW221909   6.035  10.473   5.755
73338SOL     OW21910   2.910   2.219   7.756
73338SOL    HW121911   2.921   2.124   7.762
73338SOL    HW221912   2.827   2.236   7.799
73339SOL     OW21913   8.217  10.610   8.037
73339SOL    HW121914   8.200  10.524   7.999
73339SOL    HW221915   8.231  10.667   7.962
73340SOL     OW21916  11.175   3.519   7.909
73340SOL    HW121917  11.225   3.580   7.964
73340SOL    HW221918  11.159   3.567   7.828
73341SOL     OW21919   6.241   3.637  14.248
73341SOL    HW121920   6.246   3.683  14.332
73341SOL    HW221921   6.164   3.673  14.205
73342SOL     OW21922  10.778   1.027  10.769
73342SOL    HW121923  10.787   1.037  10.863
73342SOL    HW221924  10.695   0.980  10.758
73343SOL     OW21925   8.741   5.918  12.428
73343SOL    HW121926   8.832   5.946  12.414
73343SOL    HW221927   8.714   5.964  12.508
73344SOL     OW21928   4.718   3.359   2.843
73344SOL    HW121929   4.803   3.328   2.811
73344SOL    HW221930   4.669   3.280   2.863
73345SOL     OW21931  12.489  10.393   2.972
73345SOL    HW121932  12.495  10.360   3.061
73345SOL    HW221933  12.412  10.451   2.973
73346SOL     OW21934   4.489   3.785  12.006
73346SOL    HW121935   4.555   3.850  12.029
73346SOL    HW221936   4.427   3.787  12.080
73347SOL     OW21937   2.157  13.990   3.125
73347SOL    HW121938   2.164  13.924   3.194
73347SOL    HW221939   2.154  13.939   3.044
73348SOL     OW21940   0.508   3.477   1.788
73348SOL    HW121941   0.504   3.483   1.884
73348SOL    HW221942   0.590   3.521   1.765
73349SOL     OW21943   3.132   0.607  14.587
73349SOL    HW121944   3.062   0.671  14.570
73349SOL    HW221945   3.153   0.571  14.501
73350SOL     OW21946   4.585   0.685   9.188
73350SOL    HW121947   4.502   0.732   9.192
73350SOL    HW221948   4.563   0.594   9.210
73351SOL     OW21949   7.180   7.511   4.500
73351SOL    HW121950   7.106   7.537   4.555
73351SOL    HW221951   7.157   7.424   4.468
73352SOL     OW21952   1.380   8.819  10.378
73352SOL    HW121953   1.461   8.770  10.395
73352SOL    HW221954   1.310   8.758  10.402
73353SOL     OW21955  13.457  14.344   9.532
73353SOL    HW121956  13.522  14.306   9.592
73353SOL    HW221957  13.374  14.304   9.558
73354SOL     OW21958   9.014  12.986  12.142
73354SOL    HW121959   8.992  13.015  12.054
73354SOL    HW221960   9.003  13.064  12.197
73355SOL     OW21961  10.186   0.343   8.704
73355SOL    HW121962  10.171   0.286   8.779
73355SOL    HW221963  10.156   0.292   8.629
73356SOL     OW21964  11.806   3.652   9.121
73356SOL    HW121965  11.777   3.613   9.039
73356SOL    HW221966  11.877   3.595   9.151
73357SOL     OW21967   9.375   8.218   3.336
73357SOL    HW121968   9.316   8.142   3.331
73357SOL    HW221969   9.458   8.182   3.366
73358SOL     OW21970   7.250  13.532  13.322
73358SOL    HW121971   7.231  13.618  13.286
73358SOL    HW221972   7.279  13.479  13.247
73359SOL     OW21973   2.453   3.701   6.341
73359SOL    HW121974   2.459   3.727   6.249
73359SOL    HW221975   2.522   3.635   6.352
73360SOL     OW21976   6.915  11.700   3.948
73360SOL    HW121977   6.901  11.735   3.860
73360SOL    HW221978   7.010  11.702   3.960
73361SOL     OW21979   5.316   3.785  13.427
73361SOL    HW121980   5.345   3.827  13.345
73361SOL    HW221981   5.366   3.703  13.430
73362SOL     OW21982  12.342   7.746  11.664
73362SOL    HW121983  12.431   7.772  11.637
73362SOL    HW221984  12.355   7.695  11.743
73363SOL     OW21985  13.398   9.815   8.740
73363SOL    HW121986  13.425   9.904   8.719
73363SOL    HW221987  13.322   9.826   8.798
73364SOL     OW21988   0.892   6.310   6.874
73364SOL    HW121989   0.861   6.385   6.925
73364SOL    HW221990   0.833   6.305   6.799
73365SOL     OW21991  10.430  10.737   4.391
73365SOL    HW121992  10.490  10.663   4.395
73365SOL    HW221993  10.433  10.765   4.299
73366SOL     OW21994  11.157  11.144   8.002
73366SOL    HW121995  11.102  11.091   7.944
73366SOL    HW221996  11.095  11.181   8.065
73367SOL     OW21997   2.026   0.003  14.155
73367SOL    HW121998   2.080   0.074  14.190
73367SOL    HW221999   2.065  14.852  14.070
73368SOL     OW22000   7.238   4.127   1.314
73368SOL    HW122001   7.233   4.033   1.334
73368SOL    HW222002   7.175   4.167   1.374
73369SOL     OW22003   2.354   2.617  12.877
73369SOL    HW122004   2.309   2.554  12.820
73369SOL    HW222005   2.303   2.697  12.868
73370SOL     OW22006   9.232   2.794   6.942
73370SOL    HW122007   9.308   2.737   6.927
73370SOL    HW222008   9.198   2.767   7.027
73371SOL     OW22009   2.197  14.522   1.015
73371SOL    HW122010   2.172  14.445   0.964
73371SOL    HW222011   2.261  14.490   1.078
73372SOL     OW22012  10.830   0.375  10.820
73372SOL    HW122013  10.796   0.458  10.786
73372SOL    HW222014  10.753   0.330  10.854
73373SOL     OW22015   4.730  11.422   6.709
73373SOL    HW122016   4.685  11.390   6.632
73373SOL    HW222017   4.718  11.517   6.706
73374SOL     OW22018   8.514  10.525   4.408
73374SOL    HW122019   8.487  10.501   4.319
73374SOL    HW222020   8.562  10.449   4.440
73375SOL     OW22021  11.500   1.074   1.500
73375SOL    HW122022  11.573   1.134   1.483
73375SOL    HW222023  11.536   1.008   1.560
73376SOL     OW22024   4.350  11.966  14.507
73376SOL    HW122025   4.413  11.922  14.451
73376SOL    HW222026   4.268  11.967  14.456
73377SOL     OW22027   8.291  10.634  10.107
73377SOL    HW122028   8.380  10.612  10.136
73377SOL    HW222029   8.302  10.713  10.055
73378SOL     OW22030   1.926  13.420   6.178
73378SOL    HW122031   1.889  13.376   6.101
73378SOL    HW222032   2.020  13.413   6.167
73379SOL     OW22033  14.501   6.608   1.450
73379SOL    HW122034  14.495   6.513   1.454
73379SOL    HW222035  14.428   6.639   1.503
73380SOL     OW22036   2.294  11.847   7.430
73380SOL    HW122037   2.361  11.847   7.498
73380SOL    HW222038   2.323  11.914   7.368
73381SOL     OW22039   3.664   1.375  11.455
73381SOL    HW122040   3.607   1.432  11.403
73381SOL    HW222041   3.605   1.316  11.500
73382SOL     OW22042   0.927   3.496   0.882
73382SOL    HW122043   0.950   3.589   0.887
73382SOL    HW222044   0.846   3.489   0.934
73383SOL     OW22045   5.205   3.681  12.343
73383SOL    HW122046   5.194   3.628  12.264
73383SOL    HW222047   5.298   3.671  12.365
73384SOL     OW22048  11.867  12.064   1.236
73384SOL    HW122049  11.772  12.062   1.220
73384SOL    HW222050  11.880  12.003   1.309
73385SOL     OW22051   8.144   8.396   4.738
73385SOL    HW122052   8.052   8.400   4.710
73385SOL    HW222053   8.163   8.484   4.770
73386SOL     OW22054  12.712  11.803   5.112
73386SOL    HW122055  12.631  11.791   5.161
73386SOL    HW222056  12.704  11.743   5.037
73387SOL     OW22057  12.789   8.819   4.922
73387SOL    HW122058  12.791   8.907   4.883
73387SOL    HW222059  12.752   8.833   5.010
73388SOL     OW22060   1.166   7.218   2.708
73388SOL    HW122061   1.140   7.310   2.713
73388SOL    HW222062   1.183   7.193   2.799
73389SOL     OW22063  10.528   9.854   7.528
73389SOL    HW122064  10.455   9.884   7.473
73389SOL    HW222065  10.527   9.758   7.518
73390SOL     OW22066  12.372  12.449   6.609
73390SOL    HW122067  12.439  12.510   6.638
73390SOL    HW222068  12.394  12.366   6.653
73391SOL     OW22069   2.301   1.440   7.208
73391SOL    HW122070   2.230   1.462   7.147
73391SOL    HW222071   2.330   1.524   7.243
73392SOL     OW22072   5.077   3.160   8.009
73392SOL    HW122073   5.046   3.070   8.007
73392SOL    HW222074   5.005   3.209   8.048
73393SOL     OW22075   9.163  13.598   0.065
73393SOL    HW122076   9.164  13.642   0.150
73393SOL    HW222077   9.114  13.517   0.080
73394SOL     OW22078  13.690   9.195   9.211
73394SOL    HW122079  13.739   9.205   9.129
73394SOL    HW222080  13.613   9.250   9.199
73395SOL     OW22081   9.107  14.024   1.012
73395SOL    HW122082   9.101  13.947   1.068
73395SOL    HW222083   9.152  14.089   1.065
73396SOL     OW22084   4.162   9.978  11.981
73396SOL    HW122085   4.173   9.899  11.927
73396SOL    HW222086   4.068   9.997  11.976
73397SOL     OW22087   2.557   1.528  11.370
73397SOL    HW122088   2.606   1.557  11.447
73397SOL    HW222089   2.620   1.475  11.321
73398SOL     OW22090  12.129   3.455   5.520
73398SOL    HW122091  12.084   3.392   5.576
73398SOL    HW222092  12.092   3.440   5.433
73399SOL     OW22093   9.302   4.889   1.995
73399SOL    HW122094   9.337   4.934   2.072
73399SOL    HW222095   9.225   4.842   2.028
73400SOL     OW22096   0.786  10.266   8.262
73400SOL    HW122097   0.808  10.195   8.201
73400SOL    HW222098   0.797  10.227   8.348
73401SOL     OW22099  10.920   1.470  10.057
73401SOL    HW122100  10.892   1.560  10.076
73401SOL    HW222101  10.958   1.439  10.139
73402SOL     OW22102   6.464  10.017   7.596
73402SOL    HW122103   6.550   9.985   7.623
73402SOL    HW222104   6.477  10.111   7.582
73403SOL     OW22105  13.438   5.543   1.009
73403SOL    HW122106  13.472   5.613   1.064
73403SOL    HW222107  13.516   5.508   0.964
73404SOL     OW22108  12.521  10.397  14.560
73404SOL    HW122109  12.470  10.378  14.481
73404SOL    HW222110  12.493  10.330  14.622
73405SOL     OW22111  10.295   6.503   0.232
73405SOL    HW122112  10.207   6.543   0.232
73405SOL    HW222113  10.278   6.409   0.236
73406SOL     OW22114  12.051   5.690   7.548
73406SOL    HW122115  12.064   5.740   7.468
73406SOL    HW222116  12.017   5.753   7.611
73407SOL     OW22117   8.167  10.233   6.777
73407SOL    HW122118   8.195  10.156   6.728
73407SOL    HW222119   8.103  10.276   6.720
73408SOL     OW22120   0.889   3.861  14.065
73408SOL    HW122121   0.977   3.850  14.031
73408SOL    HW222122   0.892   3.824  14.153
73409SOL     OW22123  10.689  11.396  13.319
73409SOL    HW122124  10.711  11.445  13.399
73409SOL    HW222125  10.668  11.464  13.255
73410SOL     OW22126   1.490   7.248  13.187
73410SOL    HW122127   1.537   7.174  13.225
73410SOL    HW222128   1.411   7.209  13.150
73411SOL     OW22129   1.384   9.796  13.835
73411SOL    HW122130   1.417   9.734  13.770
73411SOL    HW222131   1.364   9.875  13.785
73412SOL     OW22132  13.059   5.722   7.403
73412SOL    HW122133  13.051   5.726   7.498
73412SOL    HW222134  13.144   5.681   7.388
73413SOL     OW22135  13.253  12.356   4.302
73413SOL    HW122136  13.258  12.276   4.353
73413SOL    HW222137  13.228  12.328   4.215
73414SOL     OW22138   2.296   0.007  11.852
73414SOL    HW122139   2.349  14.861  11.930
73414SOL    HW222140   2.288   0.102  11.849
73415SOL     OW22141   1.948   1.363  14.368
73415SOL    HW122142   1.960   1.430  14.302
73415SOL    HW222143   1.879   1.396  14.425
73416SOL     OW22144   0.842  10.838   0.231
73416SOL    HW122145   0.815  10.751   0.201
73416SOL    HW222146   0.918  10.860   0.177
73417SOL     OW22147   7.992  10.386   2.265
73417SOL    HW122148   8.037  10.426   2.340
73417SOL    HW222149   7.899  10.407   2.280
73418SOL     OW22150  10.504  13.583   1.047
73418SOL    HW122151  10.483  13.568   0.955
73418SOL    HW222152  10.572  13.650   1.045
73419SOL     OW22153  10.659  12.910  11.094
73419SOL    HW122154  10.681  12.942  11.006
73419SOL    HW222155  10.574  12.950  11.113
73420SOL     OW22156   9.167   3.406   5.940
73420SOL    HW122157   9.216   3.328   5.915
73420SOL    HW222158   9.086   3.373   5.977
73421SOL     OW22159   1.286   7.857  11.457
73421SOL    HW122160   1.360   7.856  11.518
73421SOL    HW222161   1.327   7.871  11.371
73422SOL     OW22162   4.963   8.363   4.111
73422SOL    HW122163   4.955   8.300   4.183
73422SOL    HW222164   4.918   8.321   4.038
73423SOL     OW22165   2.208   8.643   8.994
73423SOL    HW122166   2.131   8.697   9.010
73423SOL    HW222167   2.251   8.684   8.919
73424SOL     OW22168   3.048   1.335   6.683
73424SOL    HW122169   2.985   1.371   6.745
73424SOL    HW222170   3.129   1.382   6.701
73425SOL     OW22171   7.557   4.530   6.404
73425SOL    HW122172   7.594   4.594   6.344
73425SOL    HW222173   7.630   4.473   6.426
73426SOL     OW22174   6.413  11.108   3.976
73426SOL    HW122175   6.318  11.120   3.979
73426SOL    HW222176   6.444  11.151   4.056
73427SOL     OW22177   3.759  14.368   9.715
73427SOL    HW122178   3.683  14.315   9.735
73427SOL    HW222179   3.728  14.432   9.650
73428SOL     OW22180   3.299   8.748   6.355
73428SOL    HW122181   3.227   8.801   6.322
73428SOL    HW222182   3.359   8.738   6.281
73429SOL     OW22183  10.765   5.833   7.643
73429SOL    HW122184  10.748   5.775   7.569
73429SOL    HW222185  10.681   5.874   7.661
73430SOL     OW22186  11.406   6.070   2.511
73430SOL    HW122187  11.376   6.159   2.496
73430SOL    HW222188  11.358   6.042   2.589
73431SOL     OW22189   1.746  13.529   4.444
73431SOL    HW122190   1.820  13.589   4.448
73431SOL    HW222191   1.690  13.564   4.374
73432SOL     OW22192   7.401   6.809  12.274
73432SOL    HW122193   7.371   6.883  12.222
73432SOL    HW222194   7.329   6.790  12.334
73433SOL     OW22195  13.605  14.039   5.176
73433SOL    HW122196  13.534  13.983   5.146
73433SOL    HW222197  13.684  13.988   5.160
73434SOL     OW22198  14.581   5.285  13.331
73434SOL    HW122199  14.602   5.207  13.280
73434SOL    HW222200  14.526   5.338  13.273
73435SOL     OW22201  10.553  13.866  11.903
73435SOL    HW122202  10.504  13.798  11.857
73435SOL    HW222203  10.605  13.818  11.967
73436SOL     OW22204   2.960   7.650   4.795
73436SOL    HW122205   2.989   7.563   4.821
73436SOL    HW222206   2.865   7.646   4.798
73437SOL     OW22207   8.956   2.657   2.005
73437SOL    HW122208   9.038   2.645   1.956
73437SOL    HW222209   8.970   2.736   2.056
73438SOL     OW22210   6.629   0.036  12.426
73438SOL    HW122211   6.621   0.013  12.333
73438SOL    HW222212   6.716   0.074  12.434
73439SOL     OW22213   1.579   5.261   9.075
73439SOL    HW122214   1.534   5.282   8.993
73439SOL    HW222215   1.614   5.173   9.062
73440SOL     OW22216  12.891   1.807   1.125
73440SOL    HW122217  12.796   1.817   1.135
73440SOL    HW222218  12.922   1.897   1.112
73441SOL     OW22219   8.793  13.316  10.607
73441SOL    HW122220   8.829  13.229  10.591
73441SOL    HW222221   8.847  13.374  10.554
73442SOL     OW22222   7.651   0.194  11.787
73442SOL    HW122223   7.599   0.113  11.783
73442SOL    HW222224   7.590   0.259  11.821
73443SOL     OW22225   5.216   9.700   0.825
73443SOL    HW122226   5.245   9.728   0.912
73443SOL    HW222227   5.191   9.780   0.780
73444SOL     OW22228   2.387   3.112   0.811
73444SOL    HW122229   2.339   3.188   0.844
73444SOL    HW222230   2.406   3.133   0.719
73445SOL     OW22231   1.466   8.103   9.556
73445SOL    HW122232   1.539   8.079   9.613
73445SOL    HW222233   1.411   8.159   9.611
73446SOL     OW22234   5.124   8.917   1.853
73446SOL    HW122235   5.046   8.880   1.812
73446SOL    HW222236   5.140   8.861   1.929
73447SOL     OW22237   0.663  12.836   0.795
73447SOL    HW122238   0.598  12.879   0.740
73447SOL    HW222239   0.623  12.832   0.881
73448SOL     OW22240   8.019  13.573   4.531
73448SOL    HW122241   8.042  13.629   4.605
73448SOL    HW222242   7.944  13.617   4.490
73449SOL     OW22243  14.536   9.226   9.920
73449SOL    HW122244  14.619   9.220   9.872
73449SOL    HW222245  14.474   9.261   9.856
73450SOL     OW22246   2.899   1.690   7.022
73450SOL    HW122247   2.807   1.672   7.043
73450SOL    HW222248   2.936   1.604   7.000
73451SOL     OW22249   2.017   5.908   6.602
73451SOL    HW122250   2.045   5.919   6.511
73451SOL    HW222251   2.092   5.867   6.645
73452SOL     OW22252  11.663  11.151   7.234
73452SOL    HW122253  11.646  11.244   7.250
73452SOL    HW222254  11.729  11.128   7.299
73453SOL     OW22255  10.719   1.957   6.066
73453SOL    HW122256  10.774   2.034   6.051
73453SOL    HW222257  10.643   1.991   6.114
73454SOL     OW22258  10.773  14.777   0.663
73454SOL    HW122259  10.723  14.836   0.719
73454SOL    HW222260  10.766  14.816   0.575
73455SOL     OW22261   0.656   9.088  13.027
73455SOL    HW122262   0.639   9.022  13.095
73455SOL    HW222263   0.677   9.036  12.949
73456SOL     OW22264  11.804   5.098   5.674
73456SOL    HW122265  11.875   5.142   5.626
73456SOL    HW222266  11.735   5.087   5.609
73457SOL     OW22267   1.783   3.057  13.627
73457SOL    HW122268   1.837   2.992  13.671
73457SOL    HW222269   1.839   3.134  13.620
73458SOL     OW22270   2.581   2.539  11.458
73458SOL    HW122271   2.652   2.493  11.413
73458SOL    HW222272   2.518   2.560  11.389
73459SOL     OW22273   3.520   7.457   8.798
73459SOL    HW122274   3.608   7.464   8.832
73459SOL    HW222275   3.524   7.499   8.712
73460SOL     OW22276   2.281   1.702   1.997
73460SOL    HW122277   2.202   1.718   2.049
73460SOL    HW222278   2.269   1.615   1.960
73461SOL     OW22279   2.892   5.539  13.677
73461SOL    HW122280   2.915   5.510  13.589
73461SOL    HW222281   2.801   5.510  13.688
73462SOL     OW22282   4.535   3.156   2.919
73462SOL    HW122283   4.440   3.154   2.933
73462SOL    HW222284   4.571   3.105   2.992
73463SOL     OW22285  14.589  12.850   0.921
73463SOL    HW122286  14.646  12.912   0.966
73463SOL    HW222287  14.501  12.872   0.951
73464SOL     OW22288  14.708  14.805   4.791
73464SOL    HW122289  14.759  14.841   4.863
73464SOL    HW222290  14.753  14.836   4.712
73465SOL     OW22291   6.232  10.048  10.871
73465SOL    HW122292   6.259  10.138  10.856
73465SOL    HW222293   6.194  10.020  10.787
73466SOL     OW22294   8.094   3.599   9.099
73466SOL    HW122295   8.143   3.620   9.020
73466SOL    HW222296   8.114   3.671   9.160
73467SOL     OW22297   0.573   1.695  12.862
73467SOL    HW122298   0.567   1.601  12.878
73467SOL    HW222299   0.658   1.721  12.897
73468SOL     OW22300   9.458   1.099   1.481
73468SOL    HW122301   9.553   1.093   1.469
73468SOL    HW222302   9.426   1.013   1.454
73469SOL     OW22303   1.794   0.574   1.602
73469SOL    HW122304   1.753   0.544   1.521
73469SOL    HW222305   1.853   0.644   1.574
73470SOL     OW22306   9.451   0.673   9.587
73470SOL    HW122307   9.363   0.688   9.554
73470SOL    HW222308   9.444   0.685   9.682
73471SOL     OW22309   5.630   1.611  12.589
73471SOL    HW122310   5.536   1.612  12.604
73471SOL    HW222311   5.669   1.609  12.676
73472SOL     OW22312   1.061   3.567   1.434
73472SOL    HW122313   1.066   3.472   1.441
73472SOL    HW222314   0.973   3.585   1.403
73473SOL     OW22315   2.652   3.165  12.657
73473SOL    HW122316   2.694   3.130  12.736
73473SOL    HW222317   2.681   3.256  12.652
73474SOL     OW22318   7.794   4.380  11.065
73474SOL    HW122319   7.881   4.411  11.039
73474SOL    HW222320   7.744   4.378  10.983
73475SOL     OW22321  11.349  12.087   4.441
73475SOL    HW122322  11.343  11.992   4.447
73475SOL    HW222323  11.359  12.105   4.347
73476SOL     OW22324  11.717  14.170   4.113
73476SOL    HW122325  11.625  14.142   4.111
73476SOL    HW222326  11.715  14.256   4.154
73477SOL     OW22327   0.450  14.313   0.125
73477SOL    HW122328   0.365  14.294   0.165
73477SOL    HW222329   0.438  14.292   0.032
73478SOL     OW22330  13.299   5.990  14.017
73478SOL    HW122331  13.305   5.897  14.039
73478SOL    HW222332  13.340   6.035  14.090
73479SOL     OW22333   6.319  12.139   1.335
73479SOL    HW122334   6.377  12.074   1.295
73479SOL    HW222335   6.297  12.198   1.263
73480SOL     OW22336  14.311   3.000  14.318
73480SOL    HW122337  14.363   3.041  14.387
73480SOL    HW222338  14.366   3.006  14.240
73481SOL     OW22339   6.861   3.569  10.393
73481SOL    HW122340   6.940   3.516  10.384
73481SOL    HW222341   6.792   3.516  10.353
73482SOL     OW22342  14.427   1.960   3.911
73482SOL    HW122343  14.361   1.991   3.850
73482SOL    HW222344  14.457   1.877   3.873
73483SOL     OW22345   7.246   7.539   7.853
73483SOL    HW122346   7.279   7.465   7.904
73483SOL    HW222347   7.220   7.500   7.769
73484SOL     OW22348   4.473   8.722   6.957
73484SOL    HW122349   4.515   8.637   6.974
73484SOL    HW222350   4.394   8.721   7.011
73485SOL     OW22351   4.741  10.450   6.142
73485SOL    HW122352   4.748  10.453   6.047
73485SOL    HW222353   4.660  10.403   6.159
73486SOL     OW22354   0.872  10.439   5.075
73486SOL    HW122355   0.785  10.420   5.040
73486SOL    HW222356   0.895  10.525   5.038
73487SOL     OW22357   2.731   5.009   0.627
73487SOL    HW122358   2.765   4.940   0.570
73487SOL    HW222359   2.776   4.996   0.710
73488SOL     OW22360   2.357   5.046   7.015
73488SOL    HW122361   2.417   5.002   6.954
73488SOL    HW222362   2.412   5.072   7.089
73489SOL     OW22363  10.321   0.904   6.036
73489SOL    HW122364  10.291   0.814   6.025
73489SOL    HW222365  10.407   0.896   6.077
73490SOL     OW22366   3.104  10.854   1.150
73490SOL    HW122367   3.024  10.810   1.120
73490SOL    HW222368   3.175  10.803   1.110
73491SOL     OW22369   7.994   1.377   7.687
73491SOL    HW122370   8.040   1.296   7.710
73491SOL    HW222371   8.064   1.437   7.660
73492SOL     OW22372   3.193   7.015  14.350
73492SOL    HW122373   3.167   6.980  14.265
73492SOL    HW222374   3.260   6.954  14.382
73493SOL     OW22375  14.632   8.621  13.655
73493SOL    HW122376  14.699   8.561  13.686
73493SOL    HW222377  14.550   8.574  13.670
73494SOL     OW22378  12.279   6.537   0.710
73494SOL    HW122379  12.196   6.570   0.745
73494SOL    HW222380  12.336   6.529   0.787
73495SOL     OW22381   2.196  11.190  12.794
73495SOL    HW122382   2.196  11.098  12.822
73495SOL    HW222383   2.138  11.192  12.717
73496SOL     OW22384   4.265   7.846   1.499
73496SOL    HW122385   4.306   7.760   1.489
73496SOL    HW222386   4.235   7.848   1.590
73497SOL     OW22387   0.901   3.899   3.217
73497SOL    HW122388   0.806   3.889   3.229
73497SOL    HW222389   0.937   3.815   3.246
73498SOL     OW22390   3.011   1.960   7.776
73498SOL    HW122391   3.106   1.956   7.767
73498SOL    HW222392   2.980   1.875   7.743
73499SOL     OW22393   9.811  12.180   5.861
73499SOL    HW122394   9.767  12.154   5.780
73499SOL    HW222395   9.745  12.166   5.929
73500SOL     OW22396   0.912   7.424   7.239
73500SOL    HW122397   0.846   7.485   7.272
73500SOL    HW222398   0.981   7.425   7.305
73501SOL     OW22399   3.834   7.077   8.611
73501SOL    HW122400   3.857   7.028   8.532
73501SOL    HW222401   3.764   7.136   8.582
73502SOL     OW22402   5.914  13.827   0.467
73502SOL    HW122403   5.925  13.818   0.562
73502SOL    HW222404   5.950  13.914   0.447
73503SOL     OW22405   6.096   4.073   5.461
73503SOL    HW122406   6.048   4.031   5.390
73503SOL    HW222407   6.105   4.164   5.434
73504SOL     OW22408   2.888  11.296   6.828
73504SOL    HW122409   2.844  11.215   6.802
73504SOL    HW222410   2.949  11.314   6.757
73505SOL     OW22411   7.566   8.347   4.640
73505SOL    HW122412   7.546   8.440   4.635
73505SOL    HW222413   7.507   8.313   4.707
73506SOL     OW22414   1.140   5.038   7.113
73506SOL    HW122415   1.185   5.012   7.193
73506SOL    HW222416   1.120   4.955   7.069
73507SOL     OW22417  13.222  11.585   2.147
73507SOL    HW122418  13.292  11.520   2.155
73507SOL    HW222419  13.236  11.644   2.220
73508SOL     OW22420  13.249  12.912   2.910
73508SOL    HW122421  13.298  12.906   2.828
73508SOL    HW222422  13.208  12.998   2.906
73509SOL     OW22423   6.322  14.619   8.733
73509SOL    HW122424   6.255  14.685   8.753
73509SOL    HW222425   6.309  14.551   8.799
73510SOL     OW22426   5.292   3.578   7.423
73510SOL    HW122427   5.267   3.595   7.332
73510SOL    HW222428   5.241   3.640   7.474
73511SOL     OW22429  13.308   2.922   4.191
73511SOL    HW122430  13.227   2.872   4.187
73511SOL    HW222431  13.282   3.007   4.225
73512SOL     OW22432  12.002   6.099  11.824
73512SOL    HW122433  11.984   6.193  11.811
73512SOL    HW222434  12.062   6.096  11.898
73513SOL     OW22435  14.361  11.679   7.932
73513SOL    HW122436  14.295  11.619   7.965
73513SOL    HW222437  14.406  11.711   8.010
73514SOL     OW22438   9.107   2.101  11.017
73514SOL    HW122439   9.179   2.111  10.954
73514SOL    HW222440   9.149   2.107  11.103
73515SOL     OW22441   4.642  11.366   4.657
73515SOL    HW122442   4.558  11.347   4.699
73515SOL    HW222443   4.622  11.371   4.564
73516SOL     OW22444  12.389   4.815   7.663
73516SOL    HW122445  12.295   4.802   7.650
73516SOL    HW222446  12.430   4.737   7.626
73517SOL     OW22447   7.237  12.455   4.474
73517SOL    HW122448   7.169  12.388   4.483
73517SOL    HW222449   7.248  12.491   4.562
73518SOL     OW22450   9.153   0.681  11.596
73518SOL    HW122451   9.183   0.697  11.506
73518SOL    HW222452   9.117   0.765  11.624
73519SOL     OW22453   5.859  11.947   9.909
73519SOL    HW122454   5.876  11.995   9.990
73519SOL    HW222455   5.765  11.952   9.897
73520SOL     OW22456  10.263   9.188   1.489
73520SOL    HW122457  10.194   9.171   1.425
73520SOL    HW222458  10.267   9.108   1.542
73521SOL     OW22459   5.359  13.623   0.018
73521SOL    HW122460   5.287  13.629  14.825
73521SOL    HW222461   5.384  13.714   0.035
73522SOL     OW22462  10.054  11.296   6.639
73522SOL    HW122463   9.969  11.283   6.681
73522SOL    HW222464  10.116  11.303   6.712
73523SOL     OW22465  14.500  10.726  14.473
73523SOL    HW122466  14.564  10.671  14.518
73523SOL    HW222467  14.548  10.806  14.451
73524SOL     OW22468  14.055   9.105  11.052
73524SOL    HW122469  14.044   9.023  11.099
73524SOL    HW222470  14.094   9.165  11.116
73525SOL     OW22471  13.077  13.248   7.978
73525SOL    HW122472  13.065  13.154   7.993
73525SOL    HW222473  13.019  13.290   8.042
73526SOL     OW22474   9.965   4.521   5.839
73526SOL    HW122475  10.028   4.593   5.846
73526SOL    HW222476  10.018   4.442   5.844
73527SOL     OW22477   3.071   7.740  11.750
73527SOL    HW122478   3.113   7.819  11.785
73527SOL    HW222479   3.125   7.668  11.784
73528SOL     OW22480  13.749   8.008  14.511
73528SOL    HW122481  13.779   8.041  14.427
73528SOL    HW222482  13.656   8.030  14.514
73529SOL     OW22483   4.383   6.360   0.931
73529SOL    HW122484   4.378   6.412   0.850
73529SOL    HW222485   4.477   6.345   0.943
73530SOL     OW22486   3.338   7.333   5.185
73530SOL    HW122487   3.253   7.308   5.223
73530SOL    HW222488   3.315   7.398   5.118
73531SOL     OW22489   4.642   3.724   5.850
73531SOL    HW122490   4.620   3.672   5.928
73531SOL    HW222491   4.642   3.662   5.778
73532SOL     OW22492  13.646  13.315   7.003
73532SOL    HW122493  13.692  13.239   6.966
73532SOL    HW222494  13.605  13.357   6.928
73533SOL     OW22495   4.855   7.276   0.634
73533SOL    HW122496   4.839   7.353   0.688
73533SOL    HW222497   4.856   7.203   0.696
73534SOL     OW22498   5.978   5.662  10.579
73534SOL    HW122499   6.072   5.659  10.563
73534SOL    HW222500   5.953   5.752  10.561
73535SOL     OW22501   7.461   6.345   6.125
73535SOL    HW122502   7.402   6.278   6.091
73535SOL    HW222503   7.468   6.325   6.219
73536SOL     OW22504  12.288   1.895   3.089
73536SOL    HW122505  12.257   1.944   3.014
73536SOL    HW222506  12.323   1.961   3.149
73537SOL     OW22507   5.942   2.666  13.886
73537SOL    HW122508   5.857   2.624  13.902
73537SOL    HW222509   6.005   2.594  13.888
73538SOL     OW22510  13.177   3.184   2.583
73538SOL    HW122511  13.263   3.203   2.545
73538SOL    HW222512  13.115   3.229   2.526
73539SOL     OW22513   1.249   8.230  10.954
73539SOL    HW122514   1.288   8.306  10.997
73539SOL    HW222515   1.157   8.231  10.983
73540SOL     OW22516   2.437   4.366  11.905
73540SOL    HW122517   2.472   4.352  11.817
73540SOL    HW222518   2.357   4.416  11.891
73541SOL     OW22519   1.613  13.742   2.765
73541SOL    HW122520   1.679  13.697   2.817
73541SOL    HW222521   1.611  13.694   2.682
73542SOL     OW22522   7.294   2.664   2.627
73542SOL    HW122523   7.250   2.699   2.550
73542SOL    HW222524   7.323   2.741   2.675
73543SOL     OW22525   9.040   3.628   0.360
73543SOL    HW122526   9.134   3.624   0.378
73543SOL    HW222527   9.028   3.708   0.309
73544SOL     OW22528   3.520   1.293   7.657
73544SOL    HW122529   3.447   1.346   7.689
73544SOL    HW222530   3.567   1.267   7.736
73545SOL     OW22531   3.643   6.382   7.598
73545SOL    HW122532   3.726   6.428   7.610
73545SOL    HW222533   3.642   6.358   7.505
73546SOL     OW22534  14.643   0.749   6.411
73546SOL    HW122535  14.595   0.825   6.443
73546SOL    HW222536  14.732   0.761   6.443
73547SOL     OW22537   9.870  10.961  13.495
73547SOL    HW122538   9.865  10.884  13.438
73547SOL    HW222539   9.846  11.034  13.438
73548SOL     OW22540   0.134   1.341   1.025
73548SOL    HW122541   0.219   1.331   1.069
73548SOL    HW222542   0.074   1.287   1.077
73549SOL     OW22543   0.867  12.610   2.733
73549SOL    HW122544   0.838  12.521   2.756
73549SOL    HW222545   0.796  12.666   2.765
73550SOL     OW22546   6.549  10.283   5.114
73550SOL    HW122547   6.523  10.370   5.083
73550SOL    HW222548   6.510  10.223   5.051
73551SOL     OW22549   6.132  10.164  14.285
73551SOL    HW122550   6.040  10.154  14.312
73551SOL    HW222551   6.133  10.246  14.237
73552SOL     OW22552  10.614   6.099  14.588
73552SOL    HW122553  10.605   6.012  14.549
73552SOL    HW222554  10.530   6.142  14.570
73553SOL     OW22555   0.037   3.529  12.872
73553SOL    HW122556   0.084   3.452  12.905
73553SOL    HW222557  14.815   3.505  12.879
73554SOL     OW22558  12.463   5.361   1.508
73554SOL    HW122559  12.525   5.318   1.449
73554SOL    HW222560  12.401   5.292   1.533
73555SOL     OW22561  13.067   9.104   0.094
73555SOL    HW122562  13.154   9.066   0.109
73555SOL    HW222563  13.013   9.070   0.166
73556SOL     OW22564   3.893   9.044  13.198
73556SOL    HW122565   3.813   9.055  13.249
73556SOL    HW222566   3.882   9.104  13.124
73557SOL     OW22567   7.766  10.039   2.271
73557SOL    HW122568   7.717  10.063   2.350
73557SOL    HW222569   7.699  10.026   2.204
73558SOL     OW22570   6.919   3.728  13.354
73558SOL    HW122571   7.014   3.717  13.360
73558SOL    HW222572   6.888   3.649  13.310
73559SOL     OW22573  13.515  13.416   8.761
73559SOL    HW122574  13.481  13.331   8.734
73559SOL    HW222575  13.610  13.403   8.769
73560SOL     OW22576   8.925   1.910   1.397
73560SOL    HW122577   8.966   1.883   1.316
73560SOL    HW222578   8.885   1.995   1.377
73561SOL     OW22579  11.765  10.473   9.670
73561SOL    HW122580  11.671  10.482   9.684
73561SOL    HW222581  11.787  10.389   9.709
73562SOL     OW22582   3.312   3.490   3.573
73562SOL    HW122583   3.402   3.523   3.565
73562SOL    HW222584   3.264   3.562   3.613
73563SOL     OW22585   3.059  13.649   4.907
73563SOL    HW122586   3.022  13.639   4.819
73563SOL    HW222587   3.136  13.705   4.896
73564SOL     OW22588   6.674  14.744   5.540
73564SOL    HW122589   6.697  14.821   5.488
73564SOL    HW222590   6.758  14.715   5.577
73565SOL     OW22591  13.963   7.657   4.392
73565SOL    HW122592  13.980   7.630   4.302
73565SOL    HW222593  13.874   7.692   4.391
73566SOL     OW22594   4.166   0.447   9.281
73566SOL    HW122595   4.136   0.534   9.309
73566SOL    HW222596   4.091   0.390   9.298
73567SOL     OW22597   2.028  10.401   2.379
73567SOL    HW122598   1.986  10.469   2.433
73567SOL    HW222599   2.113  10.388   2.419
73568SOL     OW22600   9.522   4.143   9.203
73568SOL    HW122601   9.605   4.110   9.237
73568SOL    HW222602   9.487   4.071   9.151
73569SOL     OW22603   2.993   6.979  11.961
73569SOL    HW122604   3.012   7.065  11.924
73569SOL    HW222605   2.948   6.999  12.044
73570SOL     OW22606   4.927   1.736  10.040
73570SOL    HW122607   4.960   1.802   9.979
73570SOL    HW222608   4.913   1.783  10.122
73571SOL     OW22609   6.185  13.940  10.097
73571SOL    HW122610   6.181  13.853  10.058
73571SOL    HW222611   6.132  13.933  10.177
73572SOL     OW22612   1.508  12.073   7.489
73572SOL    HW122613   1.546  11.993   7.454
73572SOL    HW222614   1.526  12.069   7.583
73573SOL     OW22615   2.838   1.071   9.548
73573SOL    HW122616   2.862   1.164   9.558
73573SOL    HW222617   2.766   1.059   9.610
73574SOL     OW22618  10.245  12.681  11.522
73574SOL    HW122619  10.296  12.742  11.469
73574SOL    HW222620  10.171  12.732  11.554
73575SOL     OW22621  10.536  11.657  10.654
73575SOL    HW122622  10.611  11.716  10.644
73575SOL    HW222623  10.493  11.686  10.734
73576SOL     OW22624   8.160  12.533   9.253
73576SOL    HW122625   8.118  12.474   9.190
73576SOL    HW222626   8.123  12.619   9.233
73577SOL     OW22627   5.156   4.500  14.578
73577SOL    HW122628   5.167   4.406  14.563
73577SOL    HW222629   5.217   4.520  14.649
73578SOL     OW22630   0.516   9.399   9.469
73578SOL    HW122631   0.525   9.304   9.465
73578SOL    HW222632   0.485   9.416   9.558
73579SOL     OW22633   7.700   8.197   7.021
73579SOL    HW122634   7.631   8.132   7.036
73579SOL    HW222635   7.763   8.152   6.965
73580SOL     OW22636  11.992   4.057   5.030
73580SOL    HW122637  12.018   3.987   4.970
73580SOL    HW222638  12.074   4.089   5.067
73581SOL     OW22639   7.158  11.315   7.912
73581SOL    HW122640   7.063  11.320   7.911
73581SOL    HW222641   7.183  11.307   7.820
73582SOL     OW22642   1.819   5.435  11.113
73582SOL    HW122643   1.902   5.462  11.152
73582SOL    HW222644   1.839   5.424  11.020
73583SOL     OW22645   5.257   4.340   0.328
73583SOL    HW122646   5.315   4.406   0.366
73583SOL    HW222647   5.299   4.315   0.246
73584SOL     OW22648   0.815  10.830   6.041
73584SOL    HW122649   0.794  10.922   6.027
73584SOL    HW222650   0.837  10.824   6.134
73585SOL     OW22651   2.530   2.576  14.244
73585SOL    HW122652   2.575   2.660  14.232
73585SOL    HW222653   2.523   2.540  14.156
73586SOL     OW22654   5.590  14.447   0.641
73586SOL    HW122655   5.539  14.407   0.571
73586SOL    HW222656   5.679  14.413   0.628
73587SOL     OW22657  11.883   2.561  13.673
73587SOL    HW122658  11.844   2.516  13.598
73587SOL    HW222659  11.946   2.499  13.708
73588SOL     OW22660   3.078   9.928   1.179
73588SOL    HW122661   2.986   9.947   1.160
73588SOL    HW222662   3.091   9.958   1.269
73589SOL     OW22663  10.942   7.426   9.495
73589SOL    HW122664  11.009   7.358   9.491
73589SOL    HW222665  10.982   7.498   9.544
73590SOL     OW22666   3.467  11.490   5.994
73590SOL    HW122667   3.428  11.404   5.978
73590SOL    HW222668   3.397  11.553   5.975
73591SOL     OW22669   4.521  11.056   7.669
73591SOL    HW122670   4.608  11.056   7.707
73591SOL    HW222671   4.530  11.010   7.586
73592SOL     OW22672   0.282   9.441  12.132
73592SOL    HW122673   0.226   9.509  12.168
73592SOL    HW222674   0.305   9.386  12.207
73593SOL     OW22675   9.920   8.883   5.857
73593SOL    HW122676   9.964   8.886   5.772
73593SOL    HW222677   9.848   8.822   5.845
73594SOL     OW22678  10.721  10.651   0.663
73594SOL    HW122679  10.754  10.648   0.573
73594SOL    HW222680  10.703  10.744   0.679
73595SOL     OW22681  10.804  11.587   0.467
73595SOL    HW122682  10.722  11.621   0.503
73595SOL    HW222683  10.862  11.578   0.543
73596SOL     OW22684  14.481   4.745   2.178
73596SOL    HW122685  14.402   4.799   2.186
73596SOL    HW222686  14.472   4.678   2.246
73597SOL     OW22687  13.792   3.063   9.735
73597SOL    HW122688  13.865   3.072   9.673
73597SOL    HW222689  13.722   3.115   9.697
73598SOL     OW22690   1.445  10.728  14.171
73598SOL    HW122691   1.540  10.742  14.171
73598SOL    HW222692   1.433  10.642  14.211
73599SOL     OW22693  11.702   2.989  13.059
73599SOL    HW122694  11.736   3.065  13.106
73599SOL    HW222695  11.688   2.924  13.128
73600SOL     OW22696   9.667  11.299   8.932
73600SOL    HW122697   9.606  11.372   8.924
73600SOL    HW222698   9.736  11.331   8.990
73601SOL     OW22699   4.297   3.594  10.065
73601SOL    HW122700   4.356   3.598   9.990
73601SOL    HW222701   4.342   3.642  10.134
73602SOL     OW22702   9.574  12.066   3.051
73602SOL    HW122703   9.630  12.108   3.116
73602SOL    HW222704   9.582  12.121   2.973
73603SOL     OW22705   3.040   6.019   4.935
73603SOL    HW122706   2.953   6.028   4.975
73603SOL    HW222707   3.087   6.098   4.963
73604SOL     OW22708  10.836  12.343   5.270
73604SOL    HW122709  10.908  12.379   5.322
73604SOL    HW222710  10.824  12.405   5.198
73605SOL     OW22711  10.979   1.168  14.742
73605SOL    HW122712  11.044   1.106  14.708
73605SOL    HW222713  10.914   1.114  14.786
73606SOL     OW22714   0.346   2.670  12.918
73606SOL    HW122715   0.312   2.758  12.935
73606SOL    HW222716   0.350   2.628  13.005
73607SOL     OW22717  10.285   6.124  11.748
73607SOL    HW122718  10.248   6.099  11.833
73607SOL    HW222719  10.379   6.108  11.758
73608SOL     OW22720  14.813   0.744   2.416
73608SOL    HW122721  14.768   0.676   2.366
73608SOL    HW222722   0.025   0.758   2.369
73609SOL     OW22723   8.612   6.889   3.207
73609SOL    HW122724   8.651   6.823   3.150
73609SOL    HW222725   8.685   6.926   3.255
73610SOL     OW22726   8.473   9.923  13.090
73610SOL    HW122727   8.444   9.923  12.999
73610SOL    HW222728   8.411   9.866  13.135
73611SOL     OW22729   3.016   8.952   8.503
73611SOL    HW122730   2.969   8.925   8.425
73611SOL    HW222731   3.076   8.879   8.522
73612SOL     OW22732  13.749   2.098  13.790
73612SOL    HW122733  13.771   2.172  13.846
73612SOL    HW222734  13.818   2.034  13.807
73613SOL     OW22735  11.465   3.689   1.817
73613SOL    HW122736  11.459   3.681   1.912
73613SOL    HW222737  11.552   3.657   1.796
73614SOL     OW22738   5.507  11.576   3.135
73614SOL    HW122739   5.483  11.627   3.057
73614SOL    HW222740   5.455  11.496   3.128
73615SOL     OW22741  14.366  10.790   2.038
73615SOL    HW122742  14.391  10.882   2.042
73615SOL    HW222743  14.271  10.791   2.050
73616SOL     OW22744  13.365   3.814   6.638
73616SOL    HW122745  13.307   3.884   6.608
73616SOL    HW222746  13.363   3.749   6.568
73617SOL     OW22747  10.580   6.225   4.260
73617SOL    HW122748  10.585   6.147   4.314
73617SOL    HW222749  10.577   6.297   4.323
73618SOL     OW22750   8.861  14.214   4.798
73618SOL    HW122751   8.920  14.281   4.763
73618SOL    HW222752   8.807  14.261   4.862
73619SOL     OW22753   3.871  10.613  14.646
73619SOL    HW122754   3.795  10.559  14.667
73619SOL    HW222755   3.880  10.606  14.552
73620SOL     OW22756   8.764  14.342   6.441
73620SOL    HW122757   8.843  14.336   6.387
73620SOL    HW222758   8.695  14.365   6.380
73621SOL     OW22759  10.675   6.084  13.740
73621SOL    HW122760  10.765   6.117  13.738
73621SOL    HW222761  10.672   6.020  13.669
73622SOL     OW22762   9.327   5.730   7.955
73622SOL    HW122763   9.276   5.654   7.929
73622SOL    HW222764   9.289   5.757   8.039
73623SOL     OW22765   6.700   8.313  11.394
73623SOL    HW122766   6.670   8.326  11.305
73623SOL    HW222767   6.620   8.300  11.445
73624SOL     OW22768   6.145   9.949   2.770
73624SOL    HW122769   6.087   9.875   2.788
73624SOL    HW222770   6.231   9.910   2.758
73625SOL     OW22771   3.485   3.166  13.692
73625SOL    HW122772   3.536   3.086  13.674
73625SOL    HW222773   3.549   3.237  13.683
73626SOL     OW22774  10.766  14.768   3.085
73626SOL    HW122775  10.799  14.817   3.161
73626SOL    HW222776  10.679  14.806   3.069
73627SOL     OW22777   1.169   7.540  13.234
73627SOL    HW122778   1.085   7.575  13.207
73627SOL    HW222779   1.165   7.539  13.329
73628SOL     OW22780   1.614   7.809  10.389
73628SOL    HW122781   1.535   7.838  10.435
73628SOL    HW222782   1.582   7.760  10.313
73629SOL     OW22783   6.642  11.906   1.858
73629SOL    HW122784   6.559  11.945   1.832
73629SOL    HW222785   6.709  11.964   1.821
73630SOL     OW22786  14.055   3.286   5.710
73630SOL    HW122787  14.075   3.207   5.660
73630SOL    HW222788  13.982   3.326   5.663
73631SOL     OW22789   9.834   4.314   4.656
73631SOL    HW122790   9.759   4.366   4.628
73631SOL    HW222791   9.826   4.310   4.751
73632SOL     OW22792   6.183   6.820   0.951
73632SOL    HW122793   6.182   6.725   0.940
73632SOL    HW222794   6.146   6.834   1.039
73633SOL     OW22795  13.982   4.577  12.325
73633SOL    HW122796  13.966   4.590  12.418
73633SOL    HW222797  13.896   4.587  12.284
73634SOL     OW22798   5.647  12.802   8.526
73634SOL    HW122799   5.661  12.795   8.620
73634SOL    HW222800   5.671  12.892   8.504
73635SOL     OW22801   7.504   5.528   3.530
73635SOL    HW122802   7.533   5.460   3.470
73635SOL    HW222803   7.490   5.605   3.475
73636SOL     OW22804   6.760  10.211   9.890
73636SOL    HW122805   6.849  10.174   9.899
73636SOL    HW222806   6.739  10.244   9.977
73637SOL     OW22807   9.260   9.844   8.960
73637SOL    HW122808   9.355   9.833   8.959
73637SOL    HW222809   9.241   9.883   9.045
73638SOL     OW22810   2.018  12.920   3.585
73638SOL    HW122811   2.003  12.995   3.528
73638SOL    HW222812   2.046  12.850   3.526
73639SOL     OW22813   5.173   7.345   3.705
73639SOL    HW122814   5.183   7.359   3.611
73639SOL    HW222815   5.150   7.431   3.739
73640SOL     OW22816   8.810   0.414  10.503
73640SOL    HW122817   8.737   0.422  10.442
73640SOL    HW222818   8.884   0.453  10.458
73641SOL     OW22819   3.784  12.092  11.161
73641SOL    HW122820   3.759  12.184  11.161
73641SOL    HW222821   3.869  12.090  11.117
73642SOL     OW22822   5.094   1.656   6.012
73642SOL    HW122823   5.142   1.737   6.032
73642SOL    HW222824   5.017   1.659   6.069
73643SOL     OW22825   3.476   1.743  10.198
73643SOL    HW122826   3.409   1.763  10.262
73643SOL    HW222827   3.557   1.776  10.236
73644SOL     OW22828  13.894   5.944   4.176
73644SOL    HW122829  13.862   6.028   4.210
73644SOL    HW222830  13.983   5.963   4.147
73645SOL     OW22831   2.092   3.686  12.010
73645SOL    HW122832   2.079   3.732  11.927
73645SOL    HW222833   2.016   3.629  12.018
73646SOL     OW22834   1.750  13.880   3.583
73646SOL    HW122835   1.832  13.869   3.535
73646SOL    HW222836   1.717  13.965   3.554
73647SOL     OW22837  14.689  11.539   8.242
73647SOL    HW122838  14.625  11.602   8.208
73647SOL    HW222839  14.766  11.592   8.264
73648SOL     OW22840   5.745   9.487   4.950
73648SOL    HW122841   5.687   9.492   4.874
73648SOL    HW222842   5.823   9.442   4.918
73649SOL     OW22843   4.458   4.476   1.974
73649SOL    HW122844   4.371   4.458   1.940
73649SOL    HW222845   4.495   4.389   1.993
73650SOL     OW22846  14.210   6.426  14.717
73650SOL    HW122847  14.211   6.506  14.665
73650SOL    HW222848  14.302   6.409  14.737
73651SOL     OW22849  12.911   7.947   1.107
73651SOL    HW122850  12.842   7.988   1.159
73651SOL    HW222851  12.956   8.020   1.065
73652SOL     OW22852   8.902   3.268   7.871
73652SOL    HW122853   8.966   3.325   7.829
73652SOL    HW222854   8.937   3.253   7.959
73653SOL     OW22855  12.026   7.305   4.792
73653SOL    HW122856  12.051   7.305   4.700
73653SOL    HW222857  12.085   7.369   4.833
73654SOL     OW22858   0.327  13.754  10.742
73654SOL    HW122859   0.232  13.762  10.730
73654SOL    HW222860   0.347  13.666  10.711
73655SOL     OW22861   8.201   2.351  13.084
73655SOL    HW122862   8.245   2.411  13.023
73655SOL    HW222863   8.233   2.264  13.059
73656SOL     OW22864   4.175  10.293   0.752
73656SOL    HW122865   4.234  10.352   0.705
73656SOL    HW222866   4.216  10.207   0.744
73657SOL     OW22867   1.936  10.567   5.454
73657SOL    HW122868   1.921  10.622   5.530
73657SOL    HW222869   2.030  10.573   5.437
73658SOL     OW22870   5.701   9.674  10.382
73658SOL    HW122871   5.716   9.722  10.300
73658SOL    HW222872   5.639   9.728  10.430
73659SOL     OW22873  11.413   9.743  14.015
73659SOL    HW122874  11.385   9.785  14.096
73659SOL    HW222875  11.459   9.665  14.044
73660SOL     OW22876   0.741   8.474   7.306
73660SOL    HW122877   0.743   8.450   7.213
73660SOL    HW222878   0.812   8.423   7.344
73661SOL     OW22879   5.192   5.765  10.536
73661SOL    HW122880   5.259   5.745  10.471
73661SOL    HW222881   5.120   5.704  10.517
73662SOL     OW22882   7.210   1.783   0.118
73662SOL    HW122883   7.148   1.806   0.187
73662SOL    HW222884   7.155   1.743   0.050
73663SOL     OW22885   1.238   8.216   7.997
73663SOL    HW122886   1.253   8.298   8.045
73663SOL    HW222887   1.162   8.234   7.942
73664SOL     OW22888  11.428   7.282  10.118
73664SOL    HW122889  11.394   7.236  10.195
73664SOL    HW222890  11.363   7.350  10.100
73665SOL     OW22891   9.724   4.251   3.789
73665SOL    HW122892   9.634   4.282   3.795
73665SOL    HW222893   9.760   4.296   3.713
73666SOL     OW22894   3.447  13.277   5.723
73666SOL    HW122895   3.445  13.264   5.628
73666SOL    HW222896   3.527  13.329   5.738
73667SOL     OW22897  13.939   6.947  12.006
73667SOL    HW122898  13.908   7.011  12.070
73667SOL    HW222899  13.925   6.990  11.921
73668SOL     OW22900   8.910   9.414  13.656
73668SOL    HW122901   8.929   9.449  13.569
73668SOL    HW222902   8.901   9.492  13.712
73669SOL     OW22903   9.963   4.294  14.279
73669SOL    HW122904  10.010   4.301  14.362
73669SOL    HW222905   9.955   4.200  14.264
73670SOL     OW22906  11.291   0.646   2.875
73670SOL    HW122907  11.365   0.611   2.825
73670SOL    HW222908  11.223   0.660   2.810
73671SOL     OW22909   0.653  10.399   2.577
73671SOL    HW122910   0.576  10.449   2.602
73671SOL    HW222911   0.625  10.308   2.581
73672SOL     OW22912  10.885   7.260   7.848
73672SOL    HW122913  10.946   7.188   7.832
73672SOL    HW222914  10.909   7.327   7.784
73673SOL     OW22915   1.937   1.084   1.962
73673SOL    HW122916   1.952   1.170   1.923
73673SOL    HW222917   1.961   1.095   2.054
73674SOL     OW22918   7.799   0.711  11.161
73674SOL    HW122919   7.827   0.728  11.251
73674SOL    HW222920   7.872   0.742  11.107
73675SOL     OW22921   6.398  11.560   7.290
73675SOL    HW122922   6.459  11.536   7.360
73675SOL    HW222923   6.426  11.646   7.261
73676SOL     OW22924  10.921   4.849   8.806
73676SOL    HW122925  10.990   4.909   8.779
73676SOL    HW222926  10.964   4.786   8.863
73677SOL     OW22927  10.884   9.465   9.632
73677SOL    HW122928  10.956   9.454   9.695
73677SOL    HW222929  10.807   9.429   9.677
73678SOL     OW22930   8.348   9.610   5.776
73678SOL    HW122931   8.261   9.650   5.769
73678SOL    HW222932   8.365   9.574   5.689
73679SOL     OW22933   3.675   6.837   3.592
73679SOL    HW122934   3.680   6.746   3.565
73679SOL    HW222935   3.715   6.886   3.520
73680SOL     OW22936  14.435   6.391  11.442
73680SOL    HW122937  14.508   6.343  11.403
73680SOL    HW222938  14.416   6.461  11.379
73681SOL     OW22939   0.548   5.894   5.344
73681SOL    HW122940   0.513   5.805   5.351
73681SOL    HW222941   0.489   5.947   5.397
73682SOL     OW22942   8.919   3.910   5.458
73682SOL    HW122943   8.932   3.850   5.532
73682SOL    HW222944   9.007   3.946   5.441
73683SOL     OW22945   6.181   7.283  11.958
73683SOL    HW122946   6.191   7.228  11.881
73683SOL    HW222947   6.200   7.372  11.928
73684SOL     OW22948   7.206   1.299   4.591
73684SOL    HW122949   7.251   1.381   4.570
73684SOL    HW222950   7.273   1.243   4.630
73685SOL     OW22951   7.234  11.324   2.672
73685SOL    HW122952   7.142  11.337   2.694
73685SOL    HW222953   7.267  11.264   2.739
73686SOL     OW22954  12.855   3.104   6.857
73686SOL    HW122955  12.828   3.150   6.777
73686SOL    HW222956  12.796   3.028   6.861
73687SOL     OW22957   1.453   5.023   5.588
73687SOL    HW122958   1.488   4.958   5.526
73687SOL    HW222959   1.479   5.107   5.552
73688SOL     OW22960   4.798   9.530  11.409
73688SOL    HW122961   4.767   9.492  11.327
73688SOL    HW222962   4.777   9.623  11.402
73689SOL     OW22963   6.744   4.714  12.484
73689SOL    HW122964   6.700   4.668  12.413
73689SOL    HW222965   6.836   4.688  12.475
73690SOL     OW22966  13.397  13.039  12.729
73690SOL    HW122967  13.464  12.997  12.784
73690SOL    HW222968  13.376  13.120  12.775
73691SOL     OW22969   9.792   0.619   5.443
73691SOL    HW122970   9.711   0.650   5.403
73691SOL    HW222971   9.861   0.662   5.393
73692SOL     OW22972  14.086   3.118   8.112
73692SOL    HW122973  14.140   3.167   8.174
73692SOL    HW222974  14.112   3.151   8.026
73693SOL     OW22975   2.373  12.004  13.160
73693SOL    HW122976   2.328  11.923  13.134
73693SOL    HW222977   2.361  12.063  13.085
73694SOL     OW22978   8.299   8.434   6.384
73694SOL    HW122979   8.342   8.513   6.416
73694SOL    HW222980   8.294   8.445   6.290
73695SOL     OW22981   5.178   3.814   7.997
73695SOL    HW122982   5.120   3.889   7.988
73695SOL    HW222983   5.138   3.746   7.943
73696SOL     OW22984   6.984   4.226  13.546
73696SOL    HW122985   7.056   4.285  13.568
73696SOL    HW222986   6.949   4.196  13.630
73697SOL     OW22987   3.944   9.943   4.704
73697SOL    HW122988   3.889   9.878   4.659
73697SOL    HW222989   3.949   9.911   4.795
73698SOL     OW22990   5.352  10.997  11.369
73698SOL    HW122991   5.419  11.063  11.349
73698SOL    HW222992   5.274  11.048  11.389
73699SOL     OW22993   1.672  12.960   4.385
73699SOL    HW122994   1.751  12.994   4.427
73699SOL    HW222995   1.660  12.873   4.424
73700SOL     OW22996   8.854   9.754   6.268
73700SOL    HW122997   8.801   9.679   6.296
73700SOL    HW222998   8.944   9.721   6.268
73701SOL     OW22999   6.372   2.536   3.111
73701SOL    HW123000   6.318   2.582   3.175
73701SOL    HW223001   6.440   2.598   3.087
73702SOL     OW23002   9.048  13.891  13.826
73702SOL    HW123003   8.989  13.954  13.869
73702SOL    HW223004   9.120  13.944  13.793
73703SOL     OW23005   5.209   7.606   0.551
73703SOL    HW123006   5.158   7.598   0.471
73703SOL    HW223007   5.291   7.646   0.524
73704SOL     OW23008   5.696   8.231   0.624
73704SOL    HW123009   5.636   8.304   0.613
73704SOL    HW223010   5.641   8.158   0.650
73705SOL     OW23011   0.166   3.419   1.422
73705SOL    HW123012   0.205   3.491   1.372
73705SOL    HW223013   0.193   3.436   1.512
73706SOL     OW23014   1.044   0.185  11.595
73706SOL    HW123015   0.950   0.168  11.588
73706SOL    HW223016   1.084   0.098  11.591
73707SOL     OW23017   9.945   5.636  13.875
73707SOL    HW123018   9.941   5.661  13.968
73707SOL    HW223019   9.864   5.672  13.838
73708SOL     OW23020   6.019   2.190   6.372
73708SOL    HW123021   6.084   2.122   6.354
73708SOL    HW223022   5.984   2.167   6.458
73709SOL     OW23023   7.765   8.402   7.200
73709SOL    HW123024   7.727   8.328   7.152
73709SOL    HW223025   7.690   8.458   7.221
73710SOL     OW23026   8.310   0.925  11.853
73710SOL    HW123027   8.327   0.994  11.917
73710SOL    HW223028   8.223   0.894  11.874
73711SOL     OW23029   9.103   5.030  14.521
73711SOL    HW123030   9.159   5.067  14.589
73711SOL    HW223031   9.017   5.023  14.562
73712SOL     OW23032   9.185   6.899   8.237
73712SOL    HW123033   9.148   6.874   8.152
73712SOL    HW223034   9.279   6.883   8.228
73713SOL     OW23035   6.629  12.756   6.143
73713SOL    HW123036   6.616  12.815   6.218
73713SOL    HW223037   6.694  12.693   6.174
73714SOL     OW23038  12.536   0.574   2.699
73714SOL    HW123039  12.626   0.592   2.726
73714SOL    HW223040  12.538   0.483   2.668
73715SOL     OW23041   3.349   5.875   4.783
73715SOL    HW123042   3.367   5.921   4.865
73715SOL    HW223043   3.429   5.887   4.732
73716SOL     OW23044  14.157   2.950   0.900
73716SOL    HW123045  14.245   2.984   0.884
73716SOL    HW223046  14.135   2.901   0.821
73717SOL     OW23047   1.362  12.556   4.394
73717SOL    HW123048   1.410  12.626   4.348
73717SOL    HW223049   1.425  12.521   4.456
73718SOL     OW23050   4.256  10.638   7.769
73718SOL    HW123051   4.233  10.546   7.759
73718SOL    HW223052   4.329  10.651   7.708
73719SOL     OW23053   0.750   7.592  10.242
73719SOL    HW123054   0.728   7.657  10.310
73719SOL    HW223055   0.770   7.512  10.291
73720SOL     OW23056   5.757   0.791   5.315
73720SOL    HW123057   5.671   0.820   5.343
73720SOL    HW223058   5.772   0.710   5.364
73721SOL     OW23059  11.596   6.122   8.069
73721SOL    HW123060  11.547   6.143   7.990
73721SOL    HW223061  11.676   6.080   8.038
73722SOL     OW23062   8.082  11.981  10.607
73722SOL    HW123063   8.029  12.060  10.594
73722SOL    HW223064   8.106  11.954  10.518
73723SOL     OW23065  11.907  11.086   2.924
73723SOL    HW123066  11.972  11.142   2.967
73723SOL    HW223067  11.895  11.013   2.985
73724SOL     OW23068   6.445   1.282   7.987
73724SOL    HW123069   6.372   1.259   7.929
73724SOL    HW223070   6.501   1.204   7.985
73725SOL     OW23071   9.761   1.437  12.220
73725SOL    HW123072   9.831   1.500  12.239
73725SOL    HW223073   9.680   1.485  12.236
73726SOL     OW23074  12.045  13.746   3.435
73726SOL    HW123075  12.076  13.836   3.423
73726SOL    HW223076  11.950  13.751   3.421
73727SOL     OW23077   5.296  12.036   5.430
73727SOL    HW123078   5.340  11.960   5.470
73727SOL    HW223079   5.324  12.035   5.339
73728SOL     OW23080  10.750  14.349   7.893
73728SOL    HW123081  10.664  14.337   7.934
73728SOL    HW223082  10.784  14.260   7.883
73729SOL     OW23083  12.619   3.904   1.813
73729SOL    HW123084  12.616   3.977   1.751
73729SOL    HW223085  12.691   3.926   1.872
73730SOL     OW23086  10.171   4.785   1.111
73730SOL    HW123087  10.088   4.831   1.123
73730SOL    HW223088  10.154   4.724   1.038
73731SOL     OW23089   7.523   6.118  13.408
73731SOL    HW123090   7.564   6.172  13.475
73731SOL    HW223091   7.527   6.171  13.329
73732SOL     OW23092   7.153   3.464  13.517
73732SOL    HW123093   7.124   3.379  13.484
73732SOL    HW223094   7.166   3.517  13.438
73733SOL     OW23095   1.211   0.132   1.092
73733SOL    HW123096   1.236   0.212   1.138
73733SOL    HW223097   1.249   0.062   1.145
73734SOL     OW23098   7.862  14.219  14.060
73734SOL    HW123099   7.791  14.197  14.000
73734SOL    HW223100   7.820  14.226  14.146
73735SOL     OW23101  10.528   9.684   2.776
73735SOL    HW123102  10.462   9.753   2.771
73735SOL    HW223103  10.546   9.661   2.685
73736SOL     OW23104  13.120   4.418   3.118
73736SOL    HW123105  13.067   4.340   3.138
73736SOL    HW223106  13.057   4.490   3.117
73737SOL     OW23107   2.663  14.760  14.214
73737SOL    HW123108   2.651  14.710  14.295
73737SOL    HW223109   2.752  14.739  14.186
73738SOL     OW23110   5.901   1.253   0.617
73738SOL    HW123111   5.950   1.252   0.699
73738SOL    HW223112   5.943   1.321   0.564
73739SOL     OW23113   5.943   0.685   7.498
73739SOL    HW123114   5.909   0.602   7.465
73739SOL    HW223115   5.926   0.748   7.429
73740SOL     OW23116  13.248   9.608  10.396
73740SOL    HW123117  13.213   9.697  10.383
73740SOL    HW223118  13.172   9.557  10.424
73741SOL     OW23119  11.674  14.760   7.000
73741SOL    HW123120  11.699  14.671   7.024
73741SOL    HW223121  11.634  14.751   6.913
73742SOL     OW23122   9.333   4.427  10.422
73742SOL    HW123123   9.264   4.378  10.377
73742SOL    HW223124   9.351   4.376  10.501
73743SOL     OW23125  12.711   1.444   3.670
73743SOL    HW123126  12.646   1.438   3.600
73743SOL    HW223127  12.794   1.419   3.628
73744SOL     OW23128  14.574   0.547  12.636
73744SOL    HW123129  14.653   0.585  12.673
73744SOL    HW223130  14.503   0.579  12.692
73745SOL     OW23131  11.264   5.248   7.300
73745SOL    HW123132  11.291   5.273   7.211
73745SOL    HW223133  11.168   5.249   7.296
73746SOL     OW23134   9.674   4.592   1.036
73746SOL    HW123135   9.674   4.497   1.020
73746SOL    HW223136   9.675   4.600   1.132
73747SOL     OW23137  13.420   3.270  11.267
73747SOL    HW123138  13.514   3.278  11.250
73747SOL    HW223139  13.390   3.361  11.278
73748SOL     OW23140   5.581   8.504   4.431
73748SOL    HW123141   5.665   8.461   4.448
73748SOL    HW223142   5.597   8.559   4.354
73749SOL     OW23143  13.341   3.418  12.642
73749SOL    HW123144  13.337   3.413  12.546
73749SOL    HW223145  13.424   3.464  12.659
73750SOL     OW23146  10.819   9.388   8.758
73750SOL    HW123147  10.825   9.295   8.738
73750SOL    HW223148  10.898   9.427   8.720
73751SOL     OW23149  10.941  12.540  13.897
73751SOL    HW123150  10.907  12.614  13.947
73751SOL    HW223151  10.955  12.471  13.963
73752SOL     OW23152   9.709   0.097   5.343
73752SOL    HW123153   9.663   0.066   5.265
73752SOL    HW223154   9.795   0.124   5.310
73753SOL     OW23155   8.957  14.643   4.230
73753SOL    HW123156   8.996  14.614   4.312
73753SOL    HW223157   8.923  14.730   4.250
73754SOL     OW23158   2.236  13.173   4.350
73754SOL    HW123159   2.183  13.163   4.271
73754SOL    HW223160   2.292  13.096   4.350
73755SOL     OW23161   0.445   5.220   3.621
73755SOL    HW123162   0.490   5.300   3.650
73755SOL    HW223163   0.515   5.159   3.602
73756SOL     OW23164  10.116   3.796  10.413
73756SOL    HW123165  10.047   3.743  10.453
73756SOL    HW223166  10.188   3.793  10.477
73757SOL     OW23167   7.322   5.930   5.775
73757SOL    HW123168   7.296   5.982   5.699
73757SOL    HW223169   7.391   5.872   5.742
73758SOL     OW23170   6.672   7.572   3.820
73758SOL    HW123171   6.600   7.520   3.856
73758SOL    HW223172   6.749   7.542   3.869
73759SOL     OW23173  13.843   5.573   4.401
73759SOL    HW123174  13.932   5.585   4.368
73759SOL    HW223175  13.855   5.524   4.483
73760SOL     OW23176  11.308   1.676   6.208
73760SOL    HW123177  11.231   1.620   6.220
73760SOL    HW223178  11.283   1.760   6.246
73761SOL     OW23179   4.357   4.483  11.090
73761SOL    HW123180   4.306   4.564  11.098
73761SOL    HW223181   4.296   4.421  11.049
73762SOL     OW23182   0.890   1.526   5.553
73762SOL    HW123183   0.926   1.605   5.513
73762SOL    HW223184   0.937   1.517   5.636
73763SOL     OW23185   3.694   9.281   7.115
73763SOL    HW123186   3.712   9.355   7.172
73763SOL    HW223187   3.612   9.244   7.149
73764SOL     OW23188  14.529   6.771   1.944
73764SOL    HW123189  14.523   6.806   2.033
73764SOL    HW223190  14.620   6.742   1.936
73765SOL     OW23191   9.177   8.259  14.616
73765SOL    HW123192   9.142   8.190  14.559
73765SOL    HW223193   9.232   8.212  14.678
73766SOL     OW23194  12.271  12.400   4.010
73766SOL    HW123195  12.344  12.428   4.066
73766SOL    HW223196  12.270  12.464   3.939
73767SOL     OW23197   6.353   3.789  12.459
73767SOL    HW123198   6.368   3.811  12.367
73767SOL    HW223199   6.413   3.845  12.508
73768SOL     OW23200   5.023   5.381  10.185
73768SOL    HW123201   4.936   5.408  10.156
73768SOL    HW223202   5.046   5.309  10.127
73769SOL     OW23203   1.166   5.418   1.464
73769SOL    HW123204   1.093   5.416   1.402
73769SOL    HW223205   1.131   5.377   1.543
73770SOL     OW23206  12.374   8.443  10.889
73770SOL    HW123207  12.341   8.511  10.949
73770SOL    HW223208  12.389   8.367  10.946
73771SOL     OW23209   5.061   3.059   8.919
73771SOL    HW123210   5.101   3.078   9.004
73771SOL    HW223211   5.023   3.143   8.892
73772SOL     OW23212   3.876   5.788  13.523
73772SOL    HW123213   3.797   5.828  13.486
73772SOL    HW223214   3.850   5.761  13.611
73773SOL     OW23215   9.086  14.557   1.415
73773SOL    HW123216   9.030  14.480   1.425
73773SOL    HW223217   9.152  14.530   1.350
73774SOL     OW23218  12.241   6.016  11.715
73774SOL    HW123219  12.147   6.020  11.730
73774SOL    HW223220  12.272   5.946  11.774
73775SOL     OW23221   5.791  14.015   7.195
73775SOL    HW123222   5.864  14.002   7.256
73775SOL    HW223223   5.728  14.067   7.244
73776SOL     OW23224  14.526  14.588  11.510
73776SOL    HW123225  14.568  14.502  11.522
73776SOL    HW223226  14.585  14.650  11.552
73777SOL     OW23227   1.429   5.399   6.570
73777SOL    HW123228   1.370   5.469   6.596
73777SOL    HW223229   1.377   5.319   6.581
73778SOL     OW23230   0.297   8.738  10.710
73778SOL    HW123231   0.243   8.713  10.635
73778SOL    HW223232   0.364   8.670  10.716
73779SOL     OW23233   1.716   1.439   7.856
73779SOL    HW123234   1.701   1.533   7.855
73779SOL    HW223235   1.810   1.429   7.873
73780SOL     OW23236  13.169   6.402  13.248
73780SOL    HW123237  13.223   6.429  13.322
73780SOL    HW223238  13.094   6.360  13.288
73781SOL     OW23239   7.168   7.409   1.749
73781SOL    HW123240   7.250   7.407   1.798
73781SOL    HW223241   7.124   7.327   1.772
73782SOL     OW23242   5.533   8.653   1.345
73782SOL    HW123243   5.511   8.643   1.437
73782SOL    HW223244   5.454   8.691   1.306
73783SOL     OW23245   2.558  10.765   5.022
73783SOL    HW123246   2.599  10.737   4.940
73783SOL    HW223247   2.569  10.860   5.025
73784SOL     OW23248   5.105  12.699  12.861
73784SOL    HW123249   5.191  12.741  12.864
73784SOL    HW223250   5.089  12.683  12.769
73785SOL     OW23251   9.709   5.008   8.170
73785SOL    HW123252   9.802   4.989   8.184
73785SOL    HW223253   9.664   4.930   8.202
73786SOL     OW23254   5.321   9.201   4.282
73786SOL    HW123255   5.243   9.162   4.243
73786SOL    HW223256   5.377   9.224   4.207
73787SOL     OW23257   2.106   8.294  14.048
73787SOL    HW123258   2.104   8.371  14.106
73787SOL    HW223259   2.170   8.236  14.089
73788SOL     OW23260   0.300   7.643   6.054
73788SOL    HW123261   0.329   7.714   5.997
73788SOL    HW223262   0.366   7.640   6.123
73789SOL     OW23263   8.617   5.861  12.011
73789SOL    HW123264   8.622   5.896  11.923
73789SOL    HW223265   8.692   5.899  12.057
73790SOL     OW23266  10.287   6.750   7.200
73790SOL    HW123267  10.250   6.691   7.266
73790SOL    HW223268  10.244   6.834   7.218
73791SOL     OW23269  13.383   1.763   3.519
73791SOL    HW123270  13.390   1.809   3.436
73791SOL    HW223271  13.369   1.832   3.584
73792SOL     OW23272  12.725   6.566  10.532
73792SOL    HW123273  12.762   6.498  10.589
73792SOL    HW223274  12.639   6.533  10.508
73793SOL     OW23275   6.249   7.431   3.049
73793SOL    HW123276   6.269   7.338   3.036
73793SOL    HW223277   6.331   7.469   3.081
73794SOL     OW23278   5.605   2.452  10.816
73794SOL    HW123279   5.652   2.535  10.815
73794SOL    HW223280   5.513   2.476  10.824
73795SOL     OW23281   7.611   1.575   7.547
73795SOL    HW123282   7.546   1.645   7.552
73795SOL    HW223283   7.641   1.564   7.637
73796SOL     OW23284   1.094   5.802  12.466
73796SOL    HW123285   1.116   5.731  12.405
73796SOL    HW223286   1.065   5.758  12.545
73797SOL     OW23287   8.669  13.686   6.703
73797SOL    HW123288   8.696  13.688   6.794
73797SOL    HW223289   8.745  13.651   6.656
73798SOL     OW23290  14.120   1.252   7.895
73798SOL    HW123291  14.132   1.181   7.832
73798SOL    HW223292  14.202   1.255   7.945
73799SOL     OW23293   5.028  10.074  13.832
73799SOL    HW123294   5.047   9.980  13.829
73799SOL    HW223295   4.998  10.090  13.921
73800SOL     OW23296  13.471   9.283  13.690
73800SOL    HW123297  13.484   9.279  13.595
73800SOL    HW223298  13.519   9.208  13.724
73801SOL     OW23299   1.990   4.544   0.578
73801SOL    HW123300   2.013   4.452   0.567
73801SOL    HW223301   2.032   4.588   0.504
73802SOL     OW23302   4.172   2.823   8.813
73802SOL    HW123303   4.198   2.806   8.723
73802SOL    HW223304   4.235   2.888   8.845
73803SOL     OW23305   0.072   8.764   5.266
73803SOL    HW123306   0.140   8.725   5.322
73803SOL    HW223307   0.014   8.809   5.328
73804SOL     OW23308   3.709   7.133   4.367
73804SOL    HW123309   3.684   7.168   4.453
73804SOL    HW223310   3.787   7.184   4.343
73805SOL     OW23311   4.383   6.993   4.683
73805SOL    HW123312   4.301   6.980   4.635
73805SOL    HW223313   4.434   7.053   4.628
73806SOL     OW23314   1.609  12.113   2.585
73806SOL    HW123315   1.668  12.116   2.660
73806SOL    HW223316   1.522  12.121   2.622
73807SOL     OW23317  10.963   1.384  11.470
73807SOL    HW123318  10.908   1.306  11.468
73807SOL    HW223319  10.928   1.439  11.399
73808SOL     OW23320  14.287   7.211  12.550
73808SOL    HW123321  14.259   7.234  12.639
73808SOL    HW223322  14.296   7.295  12.505
73809SOL     OW23323   3.875  12.520   3.546
73809SOL    HW123324   3.859  12.604   3.504
73809SOL    HW223325   3.961  12.493   3.515
73810SOL     OW23326   1.416  14.354  12.553
73810SOL    HW123327   1.404  14.312  12.638
73810SOL    HW223328   1.394  14.446  12.569
73811SOL     OW23329   8.878  11.396   1.704
73811SOL    HW123330   8.970  11.423   1.706
73811SOL    HW223331   8.847  11.419   1.617
73812SOL     OW23332   3.410  12.575  13.884
73812SOL    HW123333   3.421  12.667  13.857
73812SOL    HW223334   3.466  12.566  13.961
73813SOL     OW23335   8.023   0.287   4.707
73813SOL    HW123336   8.105   0.247   4.737
73813SOL    HW223337   8.006   0.357   4.770
73814SOL     OW23338  13.862   2.346   6.571
73814SOL    HW123339  13.887   2.275   6.630
73814SOL    HW223340  13.769   2.333   6.556
73815SOL     OW23341   0.570   3.686   5.093
73815SOL    HW123342   0.566   3.692   5.188
73815SOL    HW223343   0.519   3.608   5.071
73816SOL     OW23344  12.933   1.101   3.200
73816SOL    HW123345  12.907   1.033   3.139
73816SOL    HW223346  12.960   1.054   3.279
73817SOL     OW23347  11.493   0.876   6.192
73817SOL    HW123348  11.556   0.828   6.246
73817SOL    HW223349  11.472   0.817   6.121
73818SOL     OW23350   7.563   5.065  11.808
73818SOL    HW123351   7.517   4.993  11.850
73818SOL    HW223352   7.495   5.110  11.757
73819SOL     OW23353  13.022   2.244   3.887
73819SOL    HW123354  13.092   2.276   3.829
73819SOL    HW223355  13.058   2.165   3.927
73820SOL     OW23356   3.388   2.623   6.107
73820SOL    HW123357   3.314   2.585   6.059
73820SOL    HW223358   3.386   2.579   6.192
73821SOL     OW23359   5.452   9.090   0.953
73821SOL    HW123360   5.545   9.107   0.936
73821SOL    HW223361   5.451   9.057   1.044
73822SOL     OW23362  10.752   8.130  12.566
73822SOL    HW123363  10.833   8.153  12.521
73822SOL    HW223364  10.722   8.050  12.523
73823SOL     OW23365   1.412  12.503  12.484
73823SOL    HW123366   1.470  12.576  12.503
73823SOL    HW223367   1.352  12.536  12.417
73824SOL     OW23368   1.921  13.233  14.809
73824SOL    HW123369   1.929  13.139  14.826
73824SOL    HW223370   1.997  13.254  14.754
73825SOL     OW23371   7.931   8.053   7.826
73825SOL    HW123372   8.000   8.022   7.767
73825SOL    HW223373   7.850   8.023   7.784
73826SOL     OW23374  13.436   5.931   5.723
73826SOL    HW123375  13.414   6.019   5.694
73826SOL    HW223376  13.421   5.932   5.817
73827SOL     OW23377   7.936  11.855   6.507
73827SOL    HW123378   7.956  11.777   6.558
73827SOL    HW223379   7.855  11.834   6.460
73828SOL     OW23380  11.289  12.899   1.811
73828SOL    HW123381  11.317  12.956   1.740
73828SOL    HW223382  11.317  12.944   1.891
73829SOL     OW23383   7.728   7.701  13.709
73829SOL    HW123384   7.668   7.651  13.653
73829SOL    HW223385   7.708   7.672  13.798
73830SOL     OW23386   1.995   4.018  13.996
73830SOL    HW123387   2.051   3.942  14.011
73830SOL    HW223388   1.975   4.051  14.083
73831SOL     OW23389   7.432   6.491   6.502
73831SOL    HW123390   7.477   6.413   6.469
73831SOL    HW223391   7.355   6.457   6.546
73832SOL     OW23392   9.693   2.954   4.883
73832SOL    HW123393   9.724   2.937   4.972
73832SOL    HW223394   9.772   2.954   4.829
73833SOL     OW23395   0.018  11.454  10.804
73833SOL    HW123396   0.051  11.502  10.729
73833SOL    HW223397   0.097  11.415  10.844
73834SOL     OW23398   0.117   4.197   4.481
73834SOL    HW123399   0.106   4.291   4.489
73834SOL    HW223400   0.188   4.175   4.540
73835SOL     OW23401  13.796  12.006   1.699
73835SOL    HW123402  13.761  12.011   1.610
73835SOL    HW223403  13.740  12.064   1.750
73836SOL     OW23404  11.574   6.266   0.359
73836SOL    HW123405  11.624   6.347   0.371
73836SOL    HW223406  11.515   6.263   0.434
73837SOL     OW23407   0.002   7.778   0.614
73837SOL    HW123408  14.802   7.739   0.562
73837SOL    HW223409   0.076   7.718   0.603
73838SOL     OW23410  11.270   1.493   2.700
73838SOL    HW123411  11.203   1.500   2.768
73838SOL    HW223412  11.352   1.487   2.748
73839SOL     OW23413   5.870   8.160   5.072
73839SOL    HW123414   5.823   8.236   5.037
73839SOL    HW223415   5.951   8.156   5.021
73840SOL     OW23416   0.647   9.530  14.115
73840SOL    HW123417   0.593   9.578  14.177
73840SOL    HW223418   0.629   9.437  14.133
73841SOL     OW23419  13.533   4.651   7.502
73841SOL    HW123420  13.629   4.652   7.505
73841SOL    HW223421  13.510   4.559   7.515
73842SOL     OW23422   5.146   7.410  11.553
73842SOL    HW123423   5.100   7.353  11.491
73842SOL    HW223424   5.128   7.499  11.521
73843SOL     OW23425   6.355  12.911   9.235
73843SOL    HW123426   6.328  13.002   9.228
73843SOL    HW223427   6.435  12.914   9.288
73844SOL     OW23428   9.758   5.474   6.419
73844SOL    HW123429   9.771   5.498   6.511
73844SOL    HW223430   9.839   5.499   6.375
73845SOL     OW23431   9.670   5.383   5.488
73845SOL    HW123432   9.608   5.420   5.551
73845SOL    HW223433   9.626   5.304   5.455
73846SOL     OW23434  14.773   0.419   8.477
73846SOL    HW123435  14.753   0.464   8.395
73846SOL    HW223436  14.722   0.338   8.473
73847SOL     OW23437   1.559   0.934  14.721
73847SOL    HW123438   1.539   0.845  14.692
73847SOL    HW223439   1.608   0.973  14.648
73848SOL     OW23440   6.302   7.849   1.409
73848SOL    HW123441   6.382   7.849   1.357
73848SOL    HW223442   6.295   7.939   1.442
73849SOL     OW23443  14.525   5.214   5.767
73849SOL    HW123444  14.506   5.123   5.791
73849SOL    HW223445  14.483   5.226   5.682
73850SOL     OW23446   1.780   2.935   7.790
73850SOL    HW123447   1.865   2.917   7.829
73850SOL    HW223448   1.769   3.030   7.799
73851SOL     OW23449   4.832   3.806  13.844
73851SOL    HW123450   4.905   3.753  13.812
73851SOL    HW223451   4.843   3.808  13.939
73852SOL     OW23452   1.042   1.545   3.478
73852SOL    HW123453   1.040   1.569   3.385
73852SOL    HW223454   0.975   1.601   3.518
73853SOL     OW23455   0.841   7.040   7.735
73853SOL    HW123456   0.893   7.035   7.655
73853SOL    HW223457   0.801   7.127   7.733
73854SOL     OW23458  14.093  13.157  10.643
73854SOL    HW123459  14.061  13.094  10.579
73854SOL    HW223460  14.015  13.205  10.671
73855SOL     OW23461  13.128   8.474   1.223
73855SOL    HW123462  13.209   8.524   1.225
73855SOL    HW223463  13.154   8.383   1.241
73856SOL     OW23464   2.456   5.764  13.167
73856SOL    HW123465   2.490   5.801  13.086
73856SOL    HW223466   2.529   5.715  13.204
73857SOL     OW23467  12.271   3.813   9.220
73857SOL    HW123468  12.204   3.821   9.152
73857SOL    HW223469  12.325   3.891   9.210
73858SOL     OW23470  10.101   8.872   9.718
73858SOL    HW123471  10.112   8.895   9.811
73858SOL    HW223472  10.047   8.942   9.683
73859SOL     OW23473  13.948   4.085   0.554
73859SOL    HW123474  14.009   4.015   0.529
73859SOL    HW223475  13.976   4.112   0.642
73860SOL     OW23476   0.812   4.200  11.506
73860SOL    HW123477   0.861   4.178  11.427
73860SOL    HW223478   0.754   4.272  11.479
73861SOL     OW23479   3.583   0.337   3.271
73861SOL    HW123480   3.555   0.248   3.289
73861SOL    HW223481   3.536   0.390   3.336
73862SOL     OW23482   3.061  10.110   2.097
73862SOL    HW123483   3.022  10.120   2.184
73862SOL    HW223484   3.116  10.188   2.087
73863SOL     OW23485  10.614  10.029   5.474
73863SOL    HW123486  10.644   9.944   5.508
73863SOL    HW223487  10.679  10.053   5.409
73864SOL     OW23488   1.898   2.332   4.525
73864SOL    HW123489   1.983   2.290   4.512
73864SOL    HW223490   1.903   2.370   4.612
73865SOL     OW23491  10.731   6.207   7.748
73865SOL    HW123492  10.825   6.206   7.729
73865SOL    HW223493  10.717   6.133   7.807
73866SOL     OW23494   3.223  14.158   8.088
73866SOL    HW123495   3.173  14.136   8.166
73866SOL    HW223496   3.184  14.103   8.019
73867SOL     OW23497   8.862  13.893   0.229
73867SOL    HW123498   8.768  13.897   0.213
73867SOL    HW223499   8.877  13.954   0.301
73868SOL     OW23500   7.024   1.005  14.535
73868SOL    HW123501   7.009   0.926  14.483
73868SOL    HW223502   7.118   1.024  14.523
73869SOL     OW23503  13.035  12.823  12.319
73869SOL    HW123504  13.060  12.885  12.388
73869SOL    HW223505  12.974  12.873  12.264
73870SOL     OW23506   1.054   2.243  10.364
73870SOL    HW123507   0.997   2.252  10.288
73870SOL    HW223508   1.050   2.150  10.386
73871SOL     OW23509  12.936  14.181   2.796
73871SOL    HW123510  13.008  14.158   2.854
73871SOL    HW223511  12.976  14.233   2.727
73872SOL     OW23512   3.097   0.185  11.094
73872SOL    HW123513   3.021   0.243  11.085
73872SOL    HW223514   3.172   0.244  11.099
73873SOL     OW23515  10.981  12.075   4.324
73873SOL    HW123516  11.049  12.112   4.267
73873SOL    HW223517  11.026  12.058   4.407
73874SOL     OW23518   7.407  10.240  14.395
73874SOL    HW123519   7.433  10.313  14.339
73874SOL    HW223520   7.319  10.263  14.425
73875SOL     OW23521   9.688   8.245   0.672
73875SOL    HW123522   9.782   8.227   0.678
73875SOL    HW223523   9.656   8.184   0.606
73876SOL     OW23524   3.231  11.220  10.286
73876SOL    HW123525   3.247  11.126  10.298
73876SOL    HW223526   3.234  11.257  10.374
73877SOL     OW23527   5.552  14.319   3.091
73877SOL    HW123528   5.545  14.333   3.185
73877SOL    HW223529   5.524  14.402   3.052
73878SOL     OW23530  12.865  10.213  10.647
73878SOL    HW123531  12.954  10.230  10.679
73878SOL    HW223532  12.815  10.290  10.672
73879SOL     OW23533   4.956   7.472   1.870
73879SOL    HW123534   4.960   7.568   1.867
73879SOL    HW223535   4.983   7.444   1.783
73880SOL     OW23536   1.924   1.837   9.139
73880SOL    HW123537   1.907   1.919   9.093
73880SOL    HW223538   2.008   1.808   9.105
73881SOL     OW23539  11.260   2.080   9.171
73881SOL    HW123540  11.310   2.121   9.242
73881SOL    HW223541  11.169   2.087   9.200
73882SOL     OW23542   8.430   0.039   8.447
73882SOL    HW123543   8.472  14.844   8.504
73882SOL    HW223544   8.446   0.123   8.489
73883SOL     OW23545   4.174   2.284   6.220
73883SOL    HW123546   4.176   2.192   6.194
73883SOL    HW223547   4.095   2.319   6.179
73884SOL     OW23548   2.386   5.409   2.363
73884SOL    HW123549   2.394   5.313   2.367
73884SOL    HW223550   2.297   5.424   2.333
73885SOL     OW23551   9.141  14.179  14.334
73885SOL    HW123552   9.106  14.140  14.254
73885SOL    HW223553   9.075  14.162  14.401
73886SOL     OW23554  14.818   6.873  11.630
73886SOL    HW123555  14.838   6.955  11.676
73886SOL    HW223556   0.024   6.818  11.646
73887SOL     OW23557   3.991   7.509   3.250
73887SOL    HW123558   4.059   7.575   3.235
73887SOL    HW223559   3.909   7.558   3.245
73888SOL     OW23560   1.564   5.683   3.783
73888SOL    HW123561   1.634   5.693   3.718
73888SOL    HW223562   1.584   5.602   3.829
73889SOL     OW23563   4.300  14.851   7.742
73889SOL    HW123564   4.331   0.041   7.673
73889SOL    HW223565   4.273   0.039   7.814
73890SOL     OW23566   7.620  12.951   9.121
73890SOL    HW123567   7.681  12.900   9.175
73890SOL    HW223568   7.575  12.885   9.068
73891SOL     OW23569   6.526  11.912   4.776
73891SOL    HW123570   6.544  12.000   4.743
73891SOL    HW223571   6.492  11.864   4.701
73892SOL     OW23572  13.140  11.905   0.401
73892SOL    HW123573  13.162  11.974   0.338
73892SOL    HW223574  13.047  11.920   0.420
73893SOL     OW23575   2.196   4.819   7.645
73893SOL    HW123576   2.222   4.787   7.732
73893SOL    HW223577   2.109   4.781   7.631
73894SOL     OW23578  14.605   7.873   9.978
73894SOL    HW123579  14.530   7.932   9.974
73894SOL    HW223580  14.639   7.871   9.888
73895SOL     OW23581   3.288   3.035   6.221
73895SOL    HW123582   3.311   3.045   6.129
73895SOL    HW223583   3.221   2.967   6.221
73896SOL     OW23584   9.834   9.092   2.462
73896SOL    HW123585   9.913   9.128   2.420
73896SOL    HW223586   9.821   9.147   2.539
73897SOL     OW23587   9.826  13.771  11.602
73897SOL    HW123588   9.781  13.829  11.540
73897SOL    HW223589   9.918  13.774  11.574
73898SOL     OW23590   4.795  13.843   6.423
73898SOL    HW123591   4.760  13.835   6.512
73898SOL    HW223592   4.874  13.790   6.424
73899SOL     OW23593  10.655  11.453   7.516
73899SOL    HW123594  10.657  11.535   7.566
73899SOL    HW223595  10.609  11.476   7.435
73900SOL     OW23596   0.686   1.508   3.376
73900SOL    HW123597   0.699   1.452   3.453
73900SOL    HW223598   0.594   1.533   3.380
73901SOL     OW23599   0.126   0.359  12.698
73901SOL    HW123600   0.175   0.412  12.761
73901SOL    HW223601   0.118   0.415  12.621
73902SOL     OW23602   8.896   2.468   6.928
73902SOL    HW123603   8.899   2.563   6.941
73902SOL    HW223604   8.810   2.442   6.960
73903SOL     OW23605  12.709  13.371  12.843
73903SOL    HW123606  12.754  13.453  12.825
73903SOL    HW223607  12.775  13.317  12.886
73904SOL     OW23608  11.834  13.262  12.794
73904SOL    HW123609  11.852  13.355  12.781
73904SOL    HW223610  11.879  13.218  12.722
73905SOL     OW23611   3.913   0.309  11.815
73905SOL    HW123612   3.889   0.315  11.908
73905SOL    HW223613   3.904   0.217  11.793
73906SOL     OW23614   9.485   0.350   4.538
73906SOL    HW123615   9.518   0.439   4.547
73906SOL    HW223616   9.395   0.355   4.571
73907SOL     OW23617   9.395  13.040  10.442
73907SOL    HW123618   9.339  12.988  10.386
73907SOL    HW223619   9.480  13.041  10.398
73908SOL     OW23620   7.240   8.136   3.893
73908SOL    HW123621   7.327   8.173   3.877
73908SOL    HW223622   7.251   8.042   3.882
73909SOL     OW23623   1.204   1.822   5.743
73909SOL    HW123624   1.200   1.885   5.815
73909SOL    HW223625   1.285   1.844   5.696
73910SOL     OW23626   6.727  13.485   6.823
73910SOL    HW123627   6.687  13.448   6.902
73910SOL    HW223628   6.686  13.571   6.813
73911SOL     OW23629   5.347   0.874   7.593
73911SOL    HW123630   5.365   0.782   7.611
73911SOL    HW223631   5.316   0.875   7.502
73912SOL     OW23632   1.352  11.739  12.478
73912SOL    HW123633   1.372  11.660  12.528
73912SOL    HW223634   1.368  11.811  12.540
73913SOL     OW23635   3.569  13.024   6.867
73913SOL    HW123636   3.594  13.005   6.958
73913SOL    HW223637   3.603  12.950   6.817
73914SOL     OW23638   9.132  14.005   0.049
73914SOL    HW123639   9.081  13.925   0.035
73914SOL    HW223640   9.138  14.046  14.832
73915SOL     OW23641  10.399   6.122  13.583
73915SOL    HW123642  10.406   6.061  13.509
73915SOL    HW223643  10.463   6.090  13.646
73916SOL     OW23644   2.652   8.077   1.876
73916SOL    HW123645   2.725   8.018   1.857
73916SOL    HW223646   2.605   8.085   1.792
73917SOL     OW23647   7.385   3.594  14.836
73917SOL    HW123648   7.325   3.542  14.783
73917SOL    HW223649   7.331   3.627   0.038
73918SOL     OW23650  11.631   6.136  14.673
73918SOL    HW123651  11.642   6.044  14.698
73918SOL    HW223652  11.624   6.183  14.756
73919SOL     OW23653   1.577   5.800   9.848
73919SOL    HW123654   1.595   5.876   9.792
73919SOL    HW223655   1.514   5.833   9.913
73920SOL     OW23656  14.768   1.789  13.289
73920SOL    HW123657  14.821   1.738  13.229
73920SOL    HW223658  14.678   1.778  13.258
73921SOL     OW23659   9.272   0.018   5.477
73921SOL    HW123660   9.196  14.844   5.515
73921SOL    HW223661   9.343   0.005   5.540
73922SOL     OW23662  13.419  13.759   8.402
73922SOL    HW123663  13.450  13.676   8.439
73922SOL    HW223664  13.498  13.812   8.392
73923SOL     OW23665   8.725  14.373   5.003
73923SOL    HW123666   8.635  14.367   5.036
73923SOL    HW223667   8.777  14.397   5.080
73924SOL     OW23668  10.328  13.133   3.240
73924SOL    HW123669  10.380  13.093   3.170
73924SOL    HW223670  10.384  13.126   3.318
73925SOL     OW23671   7.956  11.705   7.658
73925SOL    HW123672   7.903  11.630   7.631
73925SOL    HW223673   8.039  11.693   7.613
73926SOL     OW23674   1.913  11.910   5.921
73926SOL    HW123675   1.960  11.993   5.914
73926SOL    HW223676   1.821  11.934   5.912
73927SOL     OW23677   5.387  10.668   4.931
73927SOL    HW123678   5.470  10.641   4.891
73927SOL    HW223679   5.324  10.601   4.903
73928SOL     OW23680  12.661  10.304   1.934
73928SOL    HW123681  12.710  10.221   1.929
73928SOL    HW223682  12.703  10.360   1.870
73929SOL     OW23683   1.112   7.361   4.989
73929SOL    HW123684   1.035   7.304   4.988
73929SOL    HW223685   1.124   7.383   5.081
73930SOL     OW23686   4.248   5.470   3.605
73930SOL    HW123687   4.316   5.528   3.640
73930SOL    HW223688   4.292   5.386   3.595
73931SOL     OW23689  11.115   2.052  11.931
73931SOL    HW123690  11.027   2.081  11.907
73931SOL    HW223691  11.156   2.129  11.970
73932SOL     OW23692  14.064  11.736   0.145
73932SOL    HW123693  14.029  11.798   0.081
73932SOL    HW223694  14.145  11.703   0.105
73933SOL     OW23695   7.718   4.641   6.190
73933SOL    HW123696   7.808   4.610   6.181
73933SOL    HW223697   7.700   4.688   6.108
73934SOL     OW23698  11.125   1.158   8.185
73934SOL    HW123699  11.207   1.206   8.181
73934SOL    HW223700  11.079   1.194   8.261
73935SOL     OW23701  12.652  10.831  12.498
73935SOL    HW123702  12.735  10.879  12.505
73935SOL    HW223703  12.622  10.846  12.409
73936SOL     OW23704   1.369   6.209   2.640
73936SOL    HW123705   1.289   6.235   2.594
73936SOL    HW223706   1.362   6.251   2.726
73937SOL     OW23707   7.853  10.297   8.088
73937SOL    HW123708   7.759  10.316   8.098
73937SOL    HW223709   7.896  10.368   8.134
73938SOL     OW23710  13.919   8.684   9.545
73938SOL    HW123711  13.829   8.704   9.571
73938SOL    HW223712  13.969   8.685   9.627
73939SOL     OW23713  14.794   2.757   9.840
73939SOL    HW123714  14.762   2.689   9.781
73939SOL    HW223715  14.737   2.753   9.916
73940SOL     OW23716   0.554  11.751  13.488
73940SOL    HW123717   0.496  11.803  13.432
73940SOL    HW223718   0.604  11.698  13.426
73941SOL     OW23719  14.486   4.734   7.051
73941SOL    HW123720  14.443   4.716   6.967
73941SOL    HW223721  14.558   4.672   7.055
73942SOL     OW23722  11.774   1.821   2.726
73942SOL    HW123723  11.818   1.904   2.744
73942SOL    HW223724  11.696   1.846   2.676
73943SOL     OW23725  11.488   1.436   0.357
73943SOL    HW123726  11.516   1.499   0.291
73943SOL    HW223727  11.434   1.487   0.418
73944SOL     OW23728  10.707  12.400  12.250
73944SOL    HW123729  10.690  12.338  12.179
73944SOL    HW223730  10.700  12.486  12.209
73945SOL     OW23731   1.749  13.346  11.854
73945SOL    HW123732   1.808  13.280  11.819
73945SOL    HW223733   1.723  13.398  11.778
73946SOL     OW23734   8.325   5.073   8.217
73946SOL    HW123735   8.322   5.027   8.301
73946SOL    HW223736   8.292   5.161   8.237
73947SOL     OW23737  12.769   5.568   7.760
73947SOL    HW123738  12.705   5.506   7.726
73947SOL    HW223739  12.731   5.600   7.842
73948SOL     OW23740  13.608  12.073   1.227
73948SOL    HW123741  13.514  12.074   1.248
73948SOL    HW223742  13.615  12.014   1.152
73949SOL     OW23743   9.695   5.966   3.644
73949SOL    HW123744   9.706   5.886   3.694
73949SOL    HW223745   9.605   5.963   3.612
73950SOL     OW23746  10.193   8.937   4.070
73950SOL    HW123747  10.172   8.905   4.157
73950SOL    HW223748  10.215   9.030   4.083
73951SOL     OW23749   4.849   4.122   7.639
73951SOL    HW123750   4.793   4.155   7.710
73951SOL    HW223751   4.874   4.201   7.590
73952SOL     OW23752   7.670  11.268   2.339
73952SOL    HW123753   7.706  11.349   2.377
73952SOL    HW223754   7.703  11.268   2.249
73953SOL     OW23755   1.188  13.519   5.002
73953SOL    HW123756   1.189  13.515   5.098
73953SOL    HW223757   1.205  13.429   4.974
73954SOL     OW23758   4.675   7.246  12.783
73954SOL    HW123759   4.688   7.315  12.718
73954SOL    HW223760   4.763   7.214  12.803
73955SOL     OW23761   2.398   1.088  10.627
73955SOL    HW123762   2.334   1.080  10.698
73955SOL    HW223763   2.345   1.109  10.550
73956SOL     OW23764  10.567  12.388  14.520
73956SOL    HW123765  10.632  12.390  14.589
73956SOL    HW223766  10.505  12.320  14.546
73957SOL     OW23767   7.727   1.024  11.788
73957SOL    HW123768   7.699   1.004  11.699
73957SOL    HW223769   7.707   0.945  11.838
73958SOL     OW23770   6.482   0.024   4.788
73958SOL    HW123771   6.459  14.862   4.701
73958SOL    HW223772   6.416   0.091   4.807
73959SOL     OW23773   4.738  14.096  14.424
73959SOL    HW123774   4.765  14.016  14.468
73959SOL    HW223775   4.750  14.166  14.489
73960SOL     OW23776  14.235   7.962   7.705
73960SOL    HW123777  14.142   7.939   7.696
73960SOL    HW223778  14.245   7.984   7.797
73961SOL     OW23779  12.164   0.007  13.946
73961SOL    HW123780  12.069   0.007  13.958
73961SOL    HW223781  12.178   0.057  13.866
73962SOL     OW23782  12.091   5.559  10.272
73962SOL    HW123783  12.063   5.502  10.344
73962SOL    HW223784  12.111   5.643  10.313
73963SOL     OW23785  14.344   7.868  10.516
73963SOL    HW123786  14.344   7.893  10.423
73963SOL    HW223787  14.426   7.902  10.550
73964SOL     OW23788   5.375   9.675  13.082
73964SOL    HW123789   5.311   9.730  13.038
73964SOL    HW223790   5.328   9.635  13.155
73965SOL     OW23791  13.209   4.190   1.737
73965SOL    HW123792  13.124   4.218   1.769
73965SOL    HW223793  13.240   4.126   1.802
73966SOL     OW23794  12.372   7.591   7.996
73966SOL    HW123795  12.318   7.545   8.060
73966SOL    HW223796  12.454   7.610   8.042
73967SOL     OW23797   6.667  11.559   2.487
73967SOL    HW123798   6.598  11.625   2.476
73967SOL    HW223799   6.744  11.598   2.447
73968SOL     OW23800   9.835   2.092   2.764
73968SOL    HW123801   9.893   2.046   2.825
73968SOL    HW223802   9.851   2.185   2.781
73969SOL     OW23803  14.492   8.090   0.488
73969SOL    HW123804  14.438   8.038   0.548
73969SOL    HW223805  14.578   8.049   0.492
73970SOL     OW23806   7.078   6.875   9.146
73970SOL    HW123807   7.141   6.835   9.086
73970SOL    HW223808   7.039   6.947   9.096
73971SOL     OW23809   9.731   0.986  12.374
73971SOL    HW123810   9.733   1.059  12.435
73971SOL    HW223811   9.654   0.935  12.400
73972SOL     OW23812   6.698   3.317   4.499
73972SOL    HW123813   6.631   3.321   4.430
73972SOL    HW223814   6.760   3.387   4.475
73973SOL     OW23815  11.187   1.933   8.154
73973SOL    HW123816  11.156   2.021   8.176
73973SOL    HW223817  11.122   1.874   8.191
73974SOL     OW23818   0.143  10.380   4.030
73974SOL    HW123819   0.171  10.402   3.941
73974SOL    HW223820   0.182  10.447   4.085
73975SOL     OW23821   2.388   8.345   8.805
73975SOL    HW123822   2.383   8.253   8.780
73975SOL    HW223823   2.472   8.353   8.850
73976SOL     OW23824  10.734   1.601   3.835
73976SOL    HW123825  10.657   1.585   3.780
73976SOL    HW223826  10.776   1.516   3.844
73977SOL     OW23827   8.211  11.202   1.664
73977SOL    HW123828   8.168  11.145   1.728
73977SOL    HW223829   8.226  11.145   1.588
73978SOL     OW23830   9.802   7.193   9.073
73978SOL    HW123831   9.865   7.154   9.013
73978SOL    HW223832   9.739   7.123   9.092
73979SOL     OW23833   4.785  12.204   2.567
73979SOL    HW123834   4.745  12.278   2.613
73979SOL    HW223835   4.812  12.240   2.482
73980SOL     OW23836   7.452   4.762  11.209
73980SOL    HW123837   7.384   4.824  11.181
73980SOL    HW223838   7.534   4.811  11.202
73981SOL     OW23839   5.249  13.767  11.836
73981SOL    HW123840   5.302  13.844  11.814
73981SOL    HW223841   5.242  13.769  11.931
73982SOL     OW23842   4.735   0.315   1.836
73982SOL    HW123843   4.802   0.249   1.820
73982SOL    HW223844   4.771   0.369   1.907
73983SOL     OW23845  10.472  12.507   7.661
73983SOL    HW123846  10.387  12.463   7.652
73983SOL    HW223847  10.467  12.551   7.745
73984SOL     OW23848   3.229   4.380   4.651
73984SOL    HW123849   3.227   4.450   4.716
73984SOL    HW223850   3.160   4.404   4.588
73985SOL     OW23851   4.271  13.874  13.190
73985SOL    HW123852   4.241  13.965  13.184
73985SOL    HW223853   4.194  13.823  13.167
73986SOL     OW23854   3.240  14.110  10.484
73986SOL    HW123855   3.236  14.069  10.570
73986SOL    HW223856   3.163  14.168  10.482
73987SOL     OW23857   5.908  11.928  13.217
73987SOL    HW123858   5.845  11.891  13.156
73987SOL    HW223859   5.921  11.860  13.283
73988SOL     OW23860  12.272   7.693   2.444
73988SOL    HW123861  12.301   7.765   2.387
73988SOL    HW223862  12.191   7.662   2.403
73989SOL     OW23863  14.004   3.217   3.577
73989SOL    HW123864  13.958   3.291   3.615
73989SOL    HW223865  13.942   3.179   3.515
73990SOL     OW23866   9.787   3.764   5.606
73990SOL    HW123867   9.788   3.740   5.699
73990SOL    HW223868   9.778   3.859   5.605
73991SOL     OW23869   9.317  14.231   7.021
73991SOL    HW123870   9.388  14.221   6.957
73991SOL    HW223871   9.271  14.147   7.019
73992SOL     OW23872  10.439   6.007   3.167
73992SOL    HW123873  10.479   5.986   3.083
73992SOL    HW223874  10.345   6.005   3.150
73993SOL     OW23875   5.245   3.188  12.985
73993SOL    HW123876   5.237   3.174  13.079
73993SOL    HW223877   5.158   3.218  12.958
73994SOL     OW23878   4.416   6.520   5.950
73994SOL    HW123879   4.398   6.612   5.972
73994SOL    HW223880   4.466   6.487   6.024
73995SOL     OW23881  13.553   5.478  11.670
73995SOL    HW123882  13.569   5.389  11.638
73995SOL    HW223883  13.551   5.531  11.590
73996SOL     OW23884   4.349  10.397   6.581
73996SOL    HW123885   4.299  10.455   6.523
73996SOL    HW223886   4.414  10.455   6.622
73997SOL     OW23887   8.332   2.541   2.152
73997SOL    HW123888   8.289   2.467   2.197
73997SOL    HW223889   8.425   2.517   2.151
73998SOL     OW23890   4.162   7.455   5.151
73998SOL    HW123891   4.245   7.412   5.173
73998SOL    HW223892   4.186   7.521   5.087
73999SOL     OW23893   8.205   1.681  14.325
73999SOL    HW123894   8.178   1.773  14.331
73999SOL    HW223895   8.124   1.634  14.303
74000SOL     OW23896   0.966   3.847  10.241
74000SOL    HW123897   1.051   3.813  10.267
74000SOL    HW223898   0.934   3.894  10.318
74001SOL     OW23899  14.051   0.530  13.109
74001SOL    HW123900  14.018   0.620  13.100
74001SOL    HW223901  14.024   0.504  13.197
74002SOL     OW23902  12.088   0.542  10.748
74002SOL    HW123903  12.116   0.485  10.820
74002SOL    HW223904  11.993   0.542  10.754
74003SOL     OW23905   5.939  14.313  12.049
74003SOL    HW123906   5.895  14.280  11.971
74003SOL    HW223907   6.026  14.339  12.018
74004SOL     OW23908  10.776   2.860  14.143
74004SOL    HW123909  10.775   2.955  14.130
74004SOL    HW223910  10.784   2.824  14.054
74005SOL     OW23911  10.040   6.703  11.330
74005SOL    HW123912  10.080   6.661  11.406
74005SOL    HW223913  10.087   6.787  11.321
74006SOL     OW23914   2.593  14.795  11.439
74006SOL    HW123915   2.633  14.760  11.519
74006SOL    HW223916   2.535  14.725  11.409
74007SOL     OW23917   4.992  12.983  11.151
74007SOL    HW123918   5.004  12.889  11.165
74007SOL    HW223919   4.897  12.995  11.149
74008SOL     OW23920   1.998  14.533   7.198
74008SOL    HW123921   1.992  14.513   7.105
74008SOL    HW223922   2.079  14.583   7.208
74009SOL     OW23923   1.882   0.278  13.405
74009SOL    HW123924   1.966   0.309  13.438
74009SOL    HW223925   1.870   0.326  13.323
74010SOL     OW23926   7.993  14.050   5.929
74010SOL    HW123927   7.985  13.955   5.922
74010SOL    HW223928   7.937  14.084   5.859
74011SOL     OW23929  11.885   1.940   3.937
74011SOL    HW123930  11.823   1.871   3.960
74011SOL    HW223931  11.833   2.005   3.889
74012SOL     OW23932   4.595   1.531   0.073
74012SOL    HW123933   4.568   1.543   0.164
74012SOL    HW223934   4.537   1.462   0.040
74013SOL     OW23935   3.204   1.426   3.376
74013SOL    HW123936   3.206   1.375   3.295
74013SOL    HW223937   3.111   1.439   3.395
74014SOL     OW23938   8.109   4.145   6.166
74014SOL    HW123939   8.171   4.095   6.220
74014SOL    HW223940   8.133   4.122   6.076
74015SOL     OW23941   6.227   9.896  13.616
74015SOL    HW123942   6.260   9.963  13.675
74015SOL    HW223943   6.138   9.878  13.647
74016SOL     OW23944  13.349  12.765  10.053
74016SOL    HW123945  13.360  12.860  10.049
74016SOL    HW223946  13.439  12.731  10.054
74017SOL     OW23947   9.512   5.778   0.217
74017SOL    HW123948   9.489   5.685   0.214
74017SOL    HW223949   9.597   5.780   0.261
74018SOL     OW23950  10.043  14.078   8.667
74018SOL    HW123951  10.055  13.985   8.650
74018SOL    HW223952   9.948  14.090   8.671
74019SOL     OW23953   1.925   8.385   1.435
74019SOL    HW123954   1.993   8.423   1.380
74019SOL    HW223955   1.845   8.394   1.384
74020SOL     OW23956  13.714   0.650  11.832
74020SOL    HW123957  13.787   0.669  11.774
74020SOL    HW223958  13.664   0.582  11.787
74021SOL     OW23959  11.230   4.951   7.448
74021SOL    HW123960  11.216   5.009   7.523
74021SOL    HW223961  11.308   4.985   7.405
74022SOL     OW23962   3.249   5.910   3.658
74022SOL    HW123963   3.283   5.939   3.743
74022SOL    HW223964   3.322   5.919   3.598
74023SOL     OW23965   8.646   0.825   8.859
74023SOL    HW123966   8.565   0.834   8.909
74023SOL    HW223967   8.695   0.905   8.879
74024SOL     OW23968   4.104   3.934   4.761
74024SOL    HW123969   4.171   3.922   4.828
74024SOL    HW223970   4.027   3.888   4.796
74025SOL     OW23971   9.869   2.008   5.136
74025SOL    HW123972   9.904   1.923   5.162
74025SOL    HW223973   9.774   2.000   5.149
74026SOL     OW23974   6.144   7.282  11.310
74026SOL    HW123975   6.140   7.310  11.219
74026SOL    HW223976   6.074   7.217  11.318
74027SOL     OW23977   8.959   6.230   8.010
74027SOL    HW123978   8.993   6.315   8.039
74027SOL    HW223979   9.035   6.185   7.975
74028SOL     OW23980  10.035  14.294   0.094
74028SOL    HW123981  10.026  14.306  14.869
74028SOL    HW223982  10.119  14.335   0.116
74029SOL     OW23983   2.590   1.667   3.556
74029SOL    HW123984   2.580   1.732   3.487
74029SOL    HW223985   2.659   1.608   3.523
74030SOL     OW23986   3.200   9.302  14.594
74030SOL    HW123987   3.244   9.387  14.594
74030SOL    HW223988   3.177   9.286  14.503
74031SOL     OW23989  14.019  11.370  13.981
74031SOL    HW123990  13.953  11.361  14.049
74031SOL    HW223991  13.970  11.375  13.900
74032SOL     OW23992   8.208  10.662   4.065
74032SOL    HW123993   8.195  10.732   4.130
74032SOL    HW223994   8.298  10.634   4.078
74033SOL     OW23995   7.752  13.354   3.329
74033SOL    HW123996   7.659  13.371   3.341
74033SOL    HW223997   7.768  13.275   3.380
74034SOL     OW23998   9.965  14.371  12.362
74034SOL    HW123999  10.052  14.360  12.323
74034SOL    HW224000   9.964  14.309  12.434
74035SOL     OW24001   3.817   5.286   0.308
74035SOL    HW124002   3.847   5.333   0.230
74035SOL    HW224003   3.820   5.193   0.283
74036SOL     OW24004   2.962  12.895  11.266
74036SOL    HW124005   3.018  12.823  11.238
74036SOL    HW224006   2.993  12.971  11.218
74037SOL     OW24007   2.210  12.854   4.113
74037SOL    HW124008   2.136  12.854   4.051
74037SOL    HW224009   2.276  12.909   4.071
74038SOL     OW24010   7.254   0.555  13.663
74038SOL    HW124011   7.309   0.630  13.686
74038SOL    HW224012   7.199   0.587  13.592
74039SOL     OW24013  13.463   8.080  14.466
74039SOL    HW124014  13.384   8.073  14.519
74039SOL    HW224015  13.432   8.101  14.378
74040SOL     OW24016  11.978   4.121  13.892
74040SOL    HW124017  11.913   4.187  13.916
74040SOL    HW224018  12.040   4.121  13.965
74041SOL     OW24019   6.318   0.231   4.972
74041SOL    HW124020   6.333   0.173   5.047
74041SOL    HW224021   6.370   0.309   4.991
74042SOL     OW24022   7.088  10.552   6.102
74042SOL    HW124023   7.070  10.550   6.008
74042SOL    HW224024   7.107  10.461   6.125
74043SOL     OW24025  13.595   9.020   8.240
74043SOL    HW124026  13.686   8.997   8.258
74043SOL    HW224027  13.548   8.936   8.243
74044SOL     OW24028   3.349   0.122  12.361
74044SOL    HW124029   3.335   0.074  12.442
74044SOL    HW224030   3.443   0.114  12.345
74045SOL     OW24031   6.115  12.938   1.371
74045SOL    HW124032   6.042  12.999   1.383
74045SOL    HW224033   6.088  12.860   1.420
74046SOL     OW24034   5.538   9.967   3.495
74046SOL    HW124035   5.546  10.035   3.561
74046SOL    HW224036   5.479   9.902   3.532
74047SOL     OW24037   3.426   9.720  11.880
74047SOL    HW124038   3.447   9.628  11.867
74047SOL    HW224039   3.404   9.727  11.973
74048SOL     OW24040  14.093  14.476   4.097
74048SOL    HW124041  14.183  14.467   4.065
74048SOL    HW224042  14.084  14.570   4.115
74049SOL     OW24043   9.392  12.674  14.663
74049SOL    HW124044   9.346  12.621  14.598
74049SOL    HW224045   9.435  12.743  14.612
74050SOL     OW24046  11.311   3.766   3.297
74050SOL    HW124047  11.224   3.801   3.281
74050SOL    HW224048  11.345   3.818   3.370
74051SOL     OW24049   1.207   6.062   3.021
74051SOL    HW124050   1.289   6.022   3.050
74051SOL    HW224051   1.234   6.137   2.968
74052SOL     OW24052  14.653   1.342  13.718
74052SOL    HW124053  14.589   1.411  13.733
74052SOL    HW224054  14.735   1.388  13.701
74053SOL     OW24055   8.537   5.687   4.867
74053SOL    HW124056   8.600   5.633   4.818
74053SOL    HW224057   8.557   5.668   4.959
74054SOL     OW24058   8.500  14.405  14.070
74054SOL    HW124059   8.524  14.312  14.070
74054SOL    HW224060   8.519  14.434  14.159
74055SOL     OW24061   5.274   0.745   5.747
74055SOL    HW124062   5.215   0.669   5.752
74055SOL    HW224063   5.224   0.810   5.697
74056SOL     OW24064   3.294   0.370  11.101
74056SOL    HW124065   3.343   0.302  11.148
74056SOL    HW224066   3.320   0.360  11.009
74057SOL     OW24067   9.254   5.690  14.576
74057SOL    HW124068   9.185   5.676  14.640
74057SOL    HW224069   9.208   5.714  14.496
74058SOL     OW24070  10.528   2.964   6.600
74058SOL    HW124071  10.484   2.897   6.547
74058SOL    HW224072  10.560   3.028   6.536
74059SOL     OW24073  14.694   2.298  12.264
74059SOL    HW124074  14.627   2.361  12.241
74059SOL    HW224075  14.649   2.214  12.266
74060SOL     OW24076  10.484   5.723  14.602
74060SOL    HW124077  10.473   5.794  14.538
74060SOL    HW224078  10.569   5.684  14.581
74061SOL     OW24079  12.657  12.254  14.346
74061SOL    HW124080  12.565  12.279  14.353
74061SOL    HW224081  12.690  12.258  14.436
74062SOL     OW24082  11.661  10.977   5.027
74062SOL    HW124083  11.644  10.905   4.966
74062SOL    HW224084  11.576  10.999   5.063
74063SOL     OW24085   5.106  12.884   9.464
74063SOL    HW124086   5.076  12.928   9.384
74063SOL    HW224087   5.043  12.910   9.531
74064SOL     OW24088   8.783  12.792   3.308
74064SOL    HW124089   8.708  12.779   3.367
74064SOL    HW224090   8.853  12.742   3.349
74065SOL     OW24091   4.613   1.958   7.458
74065SOL    HW124092   4.589   1.962   7.550
74065SOL    HW224093   4.704   1.927   7.458
74066SOL     OW24094   2.148  10.569   9.968
74066SOL    HW124095   2.149  10.528   9.882
74066SOL    HW224096   2.086  10.641   9.959
74067SOL     OW24097  12.506   8.831  11.003
74067SOL    HW124098  12.413   8.848  10.988
74067SOL    HW224099  12.531   8.769  10.935
74068SOL     OW24100   1.364   6.818  13.962
74068SOL    HW124101   1.300   6.831  13.892
74068SOL    HW224102   1.326   6.748  14.015
74069SOL     OW24103   9.498  12.094   1.125
74069SOL    HW124104   9.552  12.038   1.180
74069SOL    HW224105   9.480  12.041   1.047
74070SOL     OW24106  10.908   4.472   6.575
74070SOL    HW124107  10.992   4.444   6.540
74070SOL    HW224108  10.857   4.391   6.582
74071SOL     OW24109   0.971  13.432   5.718
74071SOL    HW124110   1.042  13.396   5.665
74071SOL    HW224111   0.947  13.361   5.777
74072SOL     OW24112   6.309   9.669  10.993
74072SOL    HW124113   6.219   9.641  10.978
74072SOL    HW224114   6.301   9.749  11.045
74073SOL     OW24115   3.787  11.575  10.877
74073SOL    HW124116   3.800  11.481  10.863
74073SOL    HW224117   3.708  11.580  10.931
74074SOL     OW24118   9.660   9.758   7.690
74074SOL    HW124119   9.567   9.779   7.693
74074SOL    HW224120   9.663   9.662   7.683
74075SOL     OW24121  13.181  13.629   4.358
74075SOL    HW124122  13.210  13.543   4.386
74075SOL    HW224123  13.261  13.675   4.334
74076SOL     OW24124  11.277   2.054   7.877
74076SOL    HW124125  11.261   1.973   7.927
74076SOL    HW224126  11.370   2.050   7.856
74077SOL     OW24127   8.800   7.287  14.104
74077SOL    HW124128   8.747   7.239  14.039
74077SOL    HW224129   8.761   7.374  14.107
74078SOL     OW24130  13.719   5.402   4.222
74078SOL    HW124131  13.767   5.476   4.259
74078SOL    HW224132  13.653   5.381   4.287
74079SOL     OW24133   0.973  13.812   3.017
74079SOL    HW124134   1.056  13.805   3.064
74079SOL    HW224135   0.968  13.905   2.993
74080SOL     OW24136   3.033   9.783  12.755
74080SOL    HW124137   2.952   9.821  12.723
74080SOL    HW224138   3.072   9.852  12.809
74081SOL     OW24139   8.889   6.424  11.624
74081SOL    HW124140   8.819   6.390  11.568
74081SOL    HW224141   8.842   6.476  11.690
74082SOL     OW24142   1.734  12.457   7.911
74082SOL    HW124143   1.665  12.514   7.880
74082SOL    HW224144   1.756  12.491   7.998
74083SOL     OW24145  11.248  12.620  13.480
74083SOL    HW124146  11.230  12.587  13.391
74083SOL    HW224147  11.239  12.543  13.536
74084SOL     OW24148  14.408   4.123   2.992
74084SOL    HW124149  14.392   4.156   2.903
74084SOL    HW224150  14.496   4.154   3.014
74085SOL     OW24151   0.989   0.272   5.788
74085SOL    HW124152   1.003   0.240   5.699
74085SOL    HW224153   1.049   0.220   5.841
74086SOL     OW24154   9.981  12.868   4.169
74086SOL    HW124155   9.935  12.829   4.243
74086SOL    HW224156  10.025  12.795   4.126
74087SOL     OW24157   1.610  10.500   1.408
74087SOL    HW124158   1.692  10.459   1.381
74087SOL    HW224159   1.567  10.523   1.325
74088SOL     OW24160   5.774   7.070  12.102
74088SOL    HW124161   5.799   7.084  12.011
74088SOL    HW224162   5.781   7.156  12.143
74089SOL     OW24163   6.097  13.464   4.034
74089SOL    HW124164   6.031  13.519   3.992
74089SOL    HW224165   6.178  13.484   3.985
74090SOL     OW24166  11.629   9.702   8.467
74090SOL    HW124167  11.640   9.656   8.384
74090SOL    HW224168  11.674   9.647   8.532
74091SOL     OW24169   6.560   4.703   0.133
74091SOL    HW124170   6.643   4.656   0.137
74091SOL    HW224171   6.540   4.723   0.225
74092SOL     OW24172  11.428  14.778   4.102
74092SOL    HW124173  11.519  14.787   4.076
74092SOL    HW224174  11.426  14.697   4.154
74093SOL     OW24175   3.967   5.545  12.726
74093SOL    HW124176   4.027   5.613  12.696
74093SOL    HW224177   3.892   5.593  12.761
74094SOL     OW24178  11.177   8.655  10.447
74094SOL    HW124179  11.136   8.729  10.492
74094SOL    HW224180  11.269   8.660  10.472
74095SOL     OW24181   3.135   5.360   7.201
74095SOL    HW124182   3.137   5.336   7.294
74095SOL    HW224183   3.187   5.440   7.196
74096SOL     OW24184   4.600  12.153  12.223
74096SOL    HW124185   4.516  12.197  12.210
74096SOL    HW224186   4.584  12.094  12.297
74097SOL     OW24187   6.391   6.011  12.690
74097SOL    HW124188   6.424   5.921  12.689
74097SOL    HW224189   6.426   6.049  12.610
74098SOL     OW24190   0.535   4.906  14.668
74098SOL    HW124191   0.617   4.938  14.706
74098SOL    HW224192   0.563   4.848  14.597
74099SOL     OW24193   9.527   3.211   2.004
74099SOL    HW124194   9.599   3.156   2.034
74099SOL    HW224195   9.569   3.275   1.945
74100SOL     OW24196   2.549   2.062  12.180
74100SOL    HW124197   2.553   2.081  12.087
74100SOL    HW224198   2.631   2.097  12.215
74101SOL     OW24199   4.789   1.586   2.762
74101SOL    HW124200   4.765   1.497   2.738
74101SOL    HW224201   4.880   1.580   2.790
74102SOL     OW24202  12.614   7.870   6.151
74102SOL    HW124203  12.641   7.861   6.060
74102SOL    HW224204  12.573   7.786   6.173
74103SOL     OW24205   2.622   8.134   6.426
74103SOL    HW124206   2.706   8.179   6.431
74103SOL    HW224207   2.611   8.113   6.334
74104SOL     OW24208   0.189   2.538   7.466
74104SOL    HW124209   0.243   2.615   7.482
74104SOL    HW224210   0.114   2.549   7.524
74105SOL     OW24211   0.831   8.463  14.405
74105SOL    HW124212   0.806   8.548  14.368
74105SOL    HW224213   0.766   8.447  14.474
74106SOL     OW24214  10.706   5.117   5.068
74106SOL    HW124215  10.709   5.119   4.973
74106SOL    HW224216  10.658   5.037   5.089
74107SOL     OW24217  11.315   4.640  11.073
74107SOL    HW124218  11.408   4.659  11.059
74107SOL    HW224219  11.292   4.579  11.004
74108SOL     OW24220  12.859   3.052   4.253
74108SOL    HW124221  12.769   3.072   4.279
74108SOL    HW224222  12.904   3.137   4.258
74109SOL     OW24223  13.772   8.677   5.361
74109SOL    HW124224  13.820   8.738   5.305
74109SOL    HW224225  13.694   8.653   5.310
74110SOL     OW24226  14.357   6.562   2.626
74110SOL    HW124227  14.265   6.556   2.600
74110SOL    HW224228  14.403   6.503   2.566
74111SOL     OW24229  10.491   7.922  12.001
74111SOL    HW124230  10.479   7.962  12.087
74111SOL    HW224231  10.411   7.870  11.988
74112SOL     OW24232   7.561   5.683  13.008
74112SOL    HW124233   7.590   5.596  12.980
74112SOL    HW224234   7.486   5.703  12.952
74113SOL     OW24235  13.142   9.080   6.570
74113SOL    HW124236  13.150   9.010   6.635
74113SOL    HW224237  13.221   9.074   6.517
74114SOL     OW24238   5.231  12.628   9.467
74114SOL    HW124239   5.183  12.711   9.465
74114SOL    HW224240   5.247  12.612   9.560
74115SOL     OW24241   8.397  10.983  11.936
74115SOL    HW124242   8.371  10.899  11.898
74115SOL    HW224243   8.346  10.990  12.017
74116SOL     OW24244   3.913   5.353   8.221
74116SOL    HW124245   3.976   5.300   8.269
74116SOL    HW224246   3.961   5.386   8.146
74117SOL     OW24247   9.746   6.057   6.341
74117SOL    HW124248   9.805   6.130   6.360
74117SOL    HW224249   9.722   6.069   6.250
74118SOL     OW24250  13.935   4.283  10.770
74118SOL    HW124251  13.885   4.256  10.847
74118SOL    HW224252  13.897   4.368  10.745
74119SOL     OW24253   8.362  13.564   2.567
74119SOL    HW124254   8.392  13.641   2.520
74119SOL    HW224255   8.438  13.506   2.568
74120SOL     OW24256  13.145  10.614   7.466
74120SOL    HW124257  13.063  10.639   7.509
74120SOL    HW224258  13.213  10.655   7.520
74121SOL     OW24259  12.064   7.653   2.000
74121SOL    HW124260  12.120   7.612   2.066
74121SOL    HW224261  11.975   7.638   2.031
74122SOL     OW24262   2.975   8.508   4.582
74122SOL    HW124263   2.909   8.462   4.633
74122SOL    HW224264   2.954   8.486   4.491
74123SOL     OW24265   4.738   4.649  13.284
74123SOL    HW124266   4.645   4.653  13.306
74123SOL    HW224267   4.741   4.662  13.189
74124SOL     OW24268   3.435  12.788   5.637
74124SOL    HW124269   3.477  12.866   5.673
74124SOL    HW224270   3.448  12.720   5.703
74125SOL     OW24271   4.553   9.590  11.771
74125SOL    HW124272   4.590   9.504  11.795
74125SOL    HW224273   4.478   9.569  11.716
74126SOL     OW24274   9.929  11.902   2.651
74126SOL    HW124275   9.980  11.829   2.687
74126SOL    HW224276   9.928  11.967   2.722
74127SOL     OW24277  13.974   0.109  13.346
74127SOL    HW124278  14.027   0.046  13.394
74127SOL    HW224279  13.885   0.096  13.379
74128SOL     OW24280   9.557   5.526  12.105
74128SOL    HW124281   9.520   5.518  12.017
74128SOL    HW224282   9.630   5.588  12.095
74129SOL     OW24283  10.410   4.422  10.378
74129SOL    HW124284  10.412   4.461  10.465
74129SOL    HW224285  10.501   4.424  10.348
74130SOL     OW24286   1.873  12.934   8.060
74130SOL    HW124287   1.907  12.854   8.100
74130SOL    HW224288   1.896  12.925   7.967
74131SOL     OW24289   0.217   0.996   8.528
74131SOL    HW124290   0.208   1.031   8.616
74131SOL    HW224291   0.156   1.048   8.475
74132SOL     OW24292  12.575   2.380  10.824
74132SOL    HW124293  12.612   2.345  10.905
74132SOL    HW224294  12.649   2.383  10.763
74133SOL     OW24295   6.670   0.717   1.197
74133SOL    HW124296   6.698   0.701   1.287
74133SOL    HW224297   6.720   0.794   1.170
74134SOL     OW24298   4.854   5.628   5.995
74134SOL    HW124299   4.835   5.598   5.906
74134SOL    HW224300   4.807   5.712   6.003
74135SOL     OW24301  13.313   3.703   2.922
74135SOL    HW124302  13.264   3.782   2.898
74135SOL    HW224303  13.394   3.709   2.871
74136SOL     OW24304  13.975   1.490  13.215
74136SOL    HW124305  14.057   1.470  13.260
74136SOL    HW224306  13.933   1.557  13.269
74137SOL     OW24307   9.099  11.219   0.332
74137SOL    HW124308   9.066  11.224   0.242
74137SOL    HW224309   9.045  11.283   0.379
74138SOL     OW24310   7.646   2.770  13.924
74138SOL    HW124311   7.704   2.825  13.976
74138SOL    HW224312   7.590   2.831  13.876
74139SOL     OW24313  13.236   0.822   5.411
74139SOL    HW124314  13.226   0.909   5.449
74139SOL    HW224315  13.285   0.772   5.476
74140SOL     OW24316   6.716   8.886   0.986
74140SOL    HW124317   6.777   8.813   0.980
74140SOL    HW224318   6.765   8.956   1.030
74141SOL     OW24319   3.534   6.792  13.696
74141SOL    HW124320   3.542   6.840  13.778
74141SOL    HW224321   3.485   6.850  13.638
74142SOL     OW24322   3.477   7.679  11.636
74142SOL    HW124323   3.477   7.585  11.619
74142SOL    HW224324   3.523   7.717  11.562
74143SOL     OW24325   9.347   9.518   6.327
74143SOL    HW124326   9.378   9.558   6.408
74143SOL    HW224327   9.424   9.514   6.271
74144SOL     OW24328  12.781  14.185   5.923
74144SOL    HW124329  12.805  14.101   5.884
74144SOL    HW224330  12.802  14.250   5.855
74145SOL     OW24331   6.272   9.981   5.182
74145SOL    HW124332   6.214  10.058   5.176
74145SOL    HW224333   6.327   9.998   5.258
74146SOL     OW24334  13.050   5.533  13.204
74146SOL    HW124335  13.144   5.529  13.188
74146SOL    HW224336  13.043   5.563  13.295
74147SOL     OW24337   5.171   8.870   0.827
74147SOL    HW124338   5.080   8.850   0.846
74147SOL    HW224339   5.203   8.792   0.781
74148SOL     OW24340   7.533   4.956  10.398
74148SOL    HW124341   7.488   5.037  10.422
74148SOL    HW224342   7.622   4.967  10.431
74149SOL     OW24343   1.805   5.711   4.710
74149SOL    HW124344   1.812   5.620   4.682
74149SOL    HW224345   1.712   5.732   4.704
74150SOL     OW24346  14.209   7.624   6.681
74150SOL    HW124347  14.248   7.549   6.725
74150SOL    HW224348  14.142   7.655   6.741
74151SOL     OW24349  14.462  13.215  10.376
74151SOL    HW124350  14.370  13.190  10.366
74151SOL    HW224351  14.479  13.273  10.302
74152SOL     OW24352  10.771  14.243   8.405
74152SOL    HW124353  10.776  14.203   8.318
74152SOL    HW224354  10.739  14.332   8.388
74153SOL     OW24355   6.991   8.877   3.666
74153SOL    HW124356   6.988   8.846   3.756
74153SOL    HW224357   7.066   8.833   3.627
74154SOL     OW24358  12.867  10.135  14.024
74154SOL    HW124359  12.831  10.220  14.048
74154SOL    HW224360  12.789  10.081  14.007
74155SOL     OW24361   3.463   8.986   2.053
74155SOL    HW124362   3.496   8.898   2.072
74155SOL    HW224363   3.475   8.996   1.958
74156SOL     OW24364   8.280   9.290  12.134
74156SOL    HW124365   8.254   9.365  12.080
74156SOL    HW224366   8.320   9.329  12.211
74157SOL     OW24367   0.786  14.239   2.097
74157SOL    HW124368   0.693  14.248   2.081
74157SOL    HW224369   0.828  14.285   2.025
74158SOL     OW24370   6.151   0.712  12.679
74158SOL    HW124371   6.196   0.787  12.640
74158SOL    HW224372   6.086   0.686  12.613
74159SOL     OW24373   5.829   3.216   6.020
74159SOL    HW124374   5.835   3.286   6.086
74159SOL    HW224375   5.917   3.208   5.985
74160SOL     OW24376   5.654  12.063   5.873
74160SOL    HW124377   5.747  12.061   5.849
74160SOL    HW224378   5.646  12.000   5.945
74161SOL     OW24379   3.505  12.992   1.967
74161SOL    HW124380   3.587  13.024   1.930
74161SOL    HW224381   3.460  12.950   1.893
74162SOL     OW24382   3.124  11.435  13.778
74162SOL    HW124383   3.081  11.411  13.696
74162SOL    HW224384   3.157  11.524  13.762
74163SOL     OW24385   3.293   7.011   4.715
74163SOL    HW124386   3.318   6.966   4.796
74163SOL    HW224387   3.227   7.075   4.742
74164SOL     OW24388   3.329   3.503  10.905
74164SOL    HW124389   3.302   3.563  10.837
74164SOL    HW224390   3.346   3.420  10.860
74165SOL     OW24391  14.469   3.699  13.908
74165SOL    HW124392  14.420   3.634  13.859
74165SOL    HW224393  14.450   3.782  13.864
74166SOL     OW24394   7.355  14.457   9.137
74166SOL    HW124395   7.303  14.397   9.083
74166SOL    HW224396   7.445  14.435   9.116
74167SOL     OW24397   2.368   4.932   1.575
74167SOL    HW124398   2.447   4.877   1.577
74167SOL    HW224399   2.325   4.908   1.493
74168SOL     OW24400   1.226  13.964   5.569
74168SOL    HW124401   1.187  14.050   5.586
74168SOL    HW224402   1.171  13.903   5.619
74169SOL     OW24403   5.381   4.417   2.361
74169SOL    HW124404   5.354   4.508   2.349
74169SOL    HW224405   5.368   4.401   2.455
74170SOL     OW24406  14.071   8.228   1.579
74170SOL    HW124407  14.111   8.157   1.529
74170SOL    HW224408  14.006   8.185   1.634
74171SOL     OW24409  13.102   4.951  10.752
74171SOL    HW124410  13.184   4.901  10.750
74171SOL    HW224411  13.041   4.895  10.800
74172SOL     OW24412   7.477   8.685   3.729
74172SOL    HW124413   7.525   8.767   3.737
74172SOL    HW224414   7.431   8.675   3.812
74173SOL     OW24415   9.404  13.639  13.889
74173SOL    HW124416   9.482  13.672  13.844
74173SOL    HW224417   9.430  13.553  13.922
74174SOL     OW24418   6.266   7.982  11.371
74174SOL    HW124419   6.200   8.011  11.307
74174SOL    HW224420   6.343   7.962  11.318
74175SOL     OW24421   1.782   8.495  10.680
74175SOL    HW124422   1.749   8.406  10.672
74175SOL    HW224423   1.837   8.507  10.603
74176SOL     OW24424   6.433   5.225   9.201
74176SOL    HW124425   6.435   5.131   9.214
74176SOL    HW224426   6.521   5.255   9.226
74177SOL     OW24427  12.628   5.503  14.098
74177SOL    HW124428  12.564   5.549  14.044
74177SOL    HW224429  12.699   5.481  14.037
74178SOL     OW24430   1.473   4.632   6.393
74178SOL    HW124431   1.515   4.657   6.311
74178SOL    HW224432   1.488   4.537   6.398
74179SOL     OW24433   2.569  14.268  10.911
74179SOL    HW124434   2.510  14.282  10.837
74179SOL    HW224435   2.514  14.224  10.977
74180SOL     OW24436   7.141   1.360   2.637
74180SOL    HW124437   7.072   1.357   2.704
74180SOL    HW224438   7.134   1.276   2.593
74181SOL     OW24439   2.493   3.286   9.284
74181SOL    HW124440   2.401   3.297   9.258
74181SOL    HW224441   2.523   3.374   9.304
74182SOL     OW24442   5.754   9.879   1.464
74182SOL    HW124443   5.688   9.868   1.395
74182SOL    HW224444   5.793   9.793   1.473
74183SOL     OW24445   3.458   7.693   0.112
74183SOL    HW124446   3.490   7.610   0.147
74183SOL    HW224447   3.537   7.745   0.099
74184SOL     OW24448   5.112  13.689   1.446
74184SOL    HW124449   5.063  13.732   1.517
74184SOL    HW224450   5.047  13.675   1.377
74185SOL     OW24451   4.730   3.957  10.837
74185SOL    HW124452   4.754   4.001  10.919
74185SOL    HW224453   4.676   4.021  10.791
74186SOL     OW24454   6.184  10.285   3.970
74186SOL    HW124455   6.130  10.235   3.908
74186SOL    HW224456   6.222  10.355   3.918
74187SOL     OW24457   9.285   1.497   1.604
74187SOL    HW124458   9.244   1.423   1.558
74187SOL    HW224459   9.367   1.460   1.639
74188SOL     OW24460   6.186   7.459  12.357
74188SOL    HW124461   6.245   7.405  12.304
74188SOL    HW224462   6.130   7.503  12.294
74189SOL     OW24463   5.210   2.519   8.841
74189SOL    HW124464   5.168   2.504   8.926
74189SOL    HW224465   5.215   2.614   8.833
74190SOL     OW24466  13.261   4.375   1.162
74190SOL    HW124467  13.241   4.346   1.251
74190SOL    HW224468  13.219   4.461   1.155
74191SOL     OW24469   6.280   8.906   9.928
74191SOL    HW124470   6.370   8.892   9.955
74191SOL    HW224471   6.273   9.001   9.918
74192SOL     OW24472  11.666   7.780   2.219
74192SOL    HW124473  11.603   7.835   2.173
74192SOL    HW224474  11.641   7.787   2.311
74193SOL     OW24475   0.343  10.216   5.438
74193SOL    HW124476   0.381  10.217   5.526
74193SOL    HW224477   0.250  10.198   5.454
74194SOL     OW24478   8.565  13.158   6.502
74194SOL    HW124479   8.530  13.107   6.428
74194SOL    HW224480   8.516  13.126   6.578
74195SOL     OW24481   6.447  14.392   7.227
74195SOL    HW124482   6.515  14.459   7.224
74195SOL    HW224483   6.464  14.344   7.308
74196SOL     OW24484   7.614   0.371   2.139
74196SOL    HW124485   7.532   0.389   2.185
74196SOL    HW224486   7.587   0.353   2.049
74197SOL     OW24487  13.428  14.108  13.417
74197SOL    HW124488  13.386  14.091  13.333
74197SOL    HW224489  13.415  14.028  13.467
74198SOL     OW24490   4.920   3.168   8.259
74198SOL    HW124491   4.884   3.253   8.284
74198SOL    HW224492   4.976   3.143   8.332
74199SOL     OW24493   2.098   0.496   2.467
74199SOL    HW124494   2.132   0.407   2.458
74199SOL    HW224495   2.049   0.495   2.550
74200SOL     OW24496   5.935   2.393   1.912
74200SOL    HW124497   5.898   2.481   1.905
74200SOL    HW224498   5.992   2.396   1.989
74201SOL     OW24499   5.981   4.278   9.501
74201SOL    HW124500   6.040   4.237   9.564
74201SOL    HW224501   5.898   4.232   9.514
74202SOL     OW24502  13.235   9.173  13.979
74202SOL    HW124503  13.162   9.176  14.041
74202SOL    HW224504  13.193   9.182  13.893
74203SOL     OW24505   6.464  13.985  13.657
74203SOL    HW124506   6.374  13.956  13.646
74203SOL    HW224507   6.487  13.961  13.747
74204SOL     OW24508   3.317   6.468  10.747
74204SOL    HW124509   3.300   6.527  10.674
74204SOL    HW224510   3.410   6.479  10.766
74205SOL     OW24511   4.637   6.067  11.898
74205SOL    HW124512   4.635   6.141  11.959
74205SOL    HW224513   4.721   6.076  11.852
74206SOL     OW24514   9.911   9.961  13.582
74206SOL    HW124515   9.979   9.909  13.540
74206SOL    HW224516   9.958  10.029  13.630
74207SOL     OW24517   9.407  12.639   3.803
74207SOL    HW124518   9.490  12.625   3.848
74207SOL    HW224519   9.359  12.700   3.860
74208SOL     OW24520   3.679   8.701   2.919
74208SOL    HW124521   3.625   8.624   2.907
74208SOL    HW224522   3.618   8.769   2.950
74209SOL     OW24523   7.143   5.558   4.332
74209SOL    HW124524   7.108   5.623   4.271
74209SOL    HW224525   7.237   5.559   4.317
74210SOL     OW24526   9.836   5.795  12.790
74210SOL    HW124527   9.915   5.848  12.802
74210SOL    HW224528   9.851   5.748  12.708
74211SOL     OW24529   6.538  10.268   7.526
74211SOL    HW124530   6.617  10.322   7.524
74211SOL    HW224531   6.478  10.315   7.584
74212SOL     OW24532   3.392   2.160   6.438
74212SOL    HW124533   3.377   2.204   6.521
74212SOL    HW224534   3.487   2.155   6.430
74213SOL     OW24535   1.743   1.507  14.522
74213SOL    HW124536   1.668   1.448  14.524
74213SOL    HW224537   1.707   1.591  14.494
74214SOL     OW24538  10.595   9.736   0.466
74214SOL    HW124539  10.599   9.737   0.370
74214SOL    HW224540  10.516   9.684   0.485
74215SOL     OW24541  14.843   9.646  14.444
74215SOL    HW124542  14.770   9.635  14.384
74215SOL    HW224543  14.806   9.627  14.530
74216SOL     OW24544   3.123  13.948   1.019
74216SOL    HW124545   3.141  13.992   1.102
74216SOL    HW224546   3.141  14.014   0.952
74217SOL     OW24547   2.563  12.991   4.345
74217SOL    HW124548   2.499  12.919   4.350
74217SOL    HW224549   2.598  12.998   4.434
74218SOL     OW24550   0.829  12.325   8.754
74218SOL    HW124551   0.875  12.403   8.784
74218SOL    HW224552   0.845  12.260   8.823
74219SOL     OW24553   0.510  12.922   9.068
74219SOL    HW124554   0.514  13.002   9.119
74219SOL    HW224555   0.522  12.852   9.132
74220SOL     OW24556  13.517   7.302  11.627
74220SOL    HW124557  13.500   7.354  11.706
74220SOL    HW224558  13.608   7.321  11.605
74221SOL     OW24559  13.340  11.261   3.085
74221SOL    HW124560  13.295  11.194   3.034
74221SOL    HW224561  13.277  11.285   3.153
74222SOL     OW24562   1.389   7.505   2.300
74222SOL    HW124563   1.358   7.590   2.331
74222SOL    HW224564   1.311   7.450   2.296
74223SOL     OW24565   3.457   6.936   6.316
74223SOL    HW124566   3.443   7.013   6.371
74223SOL    HW224567   3.447   6.862   6.375
74224SOL     OW24568  14.434   5.518   0.817
74224SOL    HW124569  14.351   5.507   0.863
74224SOL    HW224570  14.480   5.436   0.831
74225SOL     OW24571   4.873  12.110  10.143
74225SOL    HW124572   4.950  12.160  10.169
74225SOL    HW224573   4.818  12.172  10.096
74226SOL     OW24574   7.461   2.167   9.644
74226SOL    HW124575   7.499   2.091   9.688
74226SOL    HW224576   7.369   2.142   9.629
74227SOL     OW24577   9.336   7.502   8.130
74227SOL    HW124578   9.244   7.502   8.156
74227SOL    HW224579   9.381   7.455   8.200
74228SOL     OW24580   7.055  11.495  10.086
74228SOL    HW124581   6.964  11.522  10.100
74228SOL    HW224582   7.093  11.564  10.031
74229SOL     OW24583  11.692   3.794  13.640
74229SOL    HW124584  11.723   3.866  13.695
74229SOL    HW224585  11.716   3.819  13.551
74230SOL     OW24586  14.312   1.300  11.621
74230SOL    HW124587  14.330   1.364  11.552
74230SOL    HW224588  14.246   1.242  11.583
74231SOL     OW24589  12.713  14.703  11.449
74231SOL    HW124590  12.671  14.747  11.524
74231SOL    HW224591  12.758  14.773  11.402
74232SOL     OW24592  13.252   8.019  10.091
74232SOL    HW124593  13.244   7.923  10.093
74232SOL    HW224594  13.173   8.049  10.046
74233SOL     OW24595   6.706   1.655   0.557
74233SOL    HW124596   6.772   1.601   0.599
74233SOL    HW224597   6.679   1.717   0.626
74234SOL     OW24598  13.214   4.548   9.528
74234SOL    HW124599  13.232   4.578   9.438
74234SOL    HW224600  13.270   4.603   9.583
74235SOL     OW24601   2.946   5.834  12.826
74235SOL    HW124602   3.006   5.811  12.755
74235SOL    HW224603   2.871   5.873  12.781
74236SOL     OW24604   9.168   8.163   4.151
74236SOL    HW124605   9.174   8.131   4.241
74236SOL    HW224606   9.126   8.249   4.159
74237SOL     OW24607   1.094  14.750   8.664
74237SOL    HW124608   1.168  14.766   8.607
74237SOL    HW224609   1.086  14.830   8.717
74238SOL     OW24610   7.340   7.393   6.787
74238SOL    HW124611   7.330   7.473   6.839
74238SOL    HW224612   7.389   7.421   6.709
74239SOL     OW24613  12.096   2.725   0.348
74239SOL    HW124614  12.038   2.747   0.274
74239SOL    HW224615  12.178   2.771   0.329
74240SOL     OW24616  10.630   5.250  11.979
74240SOL    HW124617  10.640   5.318  11.912
74240SOL    HW224618  10.536   5.231  11.980
74241SOL     OW24619   6.585   9.783   3.728
74241SOL    HW124620   6.520   9.823   3.670
74241SOL    HW224621   6.585   9.838   3.806
74242SOL     OW24622   8.674   2.459  14.056
74242SOL    HW124623   8.704   2.549  14.066
74242SOL    HW224624   8.601   2.466  13.994
74243SOL     OW24625   4.150  14.479   2.365
74243SOL    HW124626   4.116  14.426   2.437
74243SOL    HW224627   4.244  14.485   2.382
74244SOL     OW24628   9.560  10.810  11.745
74244SOL    HW124629   9.561  10.765  11.829
74244SOL    HW224630   9.548  10.741  11.680
74245SOL     OW24631  13.796   2.114   5.051
74245SOL    HW124632  13.745   2.036   5.072
74245SOL    HW224633  13.755   2.150   4.972
74246SOL     OW24634   3.373  14.832   5.087
74246SOL    HW124635   3.403  14.860   5.173
74246SOL    HW224636   3.359   0.044   5.039
74247SOL     OW24637   3.173  14.184   0.168
74247SOL    HW124638   3.158  14.270   0.206
74247SOL    HW224639   3.112  14.180   0.094
74248SOL     OW24640  13.958   5.553   5.137
74248SOL    HW124641  13.948   5.600   5.054
74248SOL    HW224642  13.898   5.597   5.197
74249SOL     OW24643   5.569   7.561  11.824
74249SOL    HW124644   5.633   7.607  11.770
74249SOL    HW224645   5.497   7.541  11.765
74250SOL     OW24646   3.197   9.629   3.414
74250SOL    HW124647   3.225   9.542   3.388
74250SOL    HW224648   3.273   9.685   3.396
74251SOL     OW24649  14.672  12.821  10.427
74251SOL    HW124650  14.731  12.762  10.473
74251SOL    HW224651  14.706  12.909  10.445
74252SOL     OW24652   7.025   8.600  14.307
74252SOL    HW124653   6.948   8.572  14.357
74252SOL    HW224654   7.005   8.574  14.217
74253SOL     OW24655   3.151  12.082   8.636
74253SOL    HW124656   3.196  12.065   8.719
74253SOL    HW224657   3.063  12.048   8.649
74254SOL     OW24658   4.040   0.097   2.567
74254SOL    HW124659   4.071   0.007   2.575
74254SOL    HW224660   4.071   0.126   2.482
74255SOL     OW24661   8.476   8.542   7.369
74255SOL    HW124662   8.415   8.486   7.321
74255SOL    HW224663   8.544   8.563   7.305
74256SOL     OW24664   0.315  12.581   6.432
74256SOL    HW124665   0.366  12.507   6.464
74256SOL    HW224666   0.355  12.658   6.472
74257SOL     OW24667   3.450  14.537  10.246
74257SOL    HW124668   3.452  14.531  10.342
74257SOL    HW224669   3.517  14.474  10.217
74258SOL     OW24670  10.314   5.295   5.348
74258SOL    HW124671  10.246   5.322   5.286
74258SOL    HW224672  10.386   5.265   5.293
74259SOL     OW24673   4.529   3.872   0.638
74259SOL    HW124674   4.452   3.924   0.661
74259SOL    HW224675   4.496   3.782   0.634
74260SOL     OW24676   3.769   4.923   9.182
74260SOL    HW124677   3.779   4.884   9.095
74260SOL    HW224678   3.759   4.848   9.241
74261SOL     OW24679   5.357  11.404   7.812
74261SOL    HW124680   5.408  11.474   7.772
74261SOL    HW224681   5.363  11.332   7.749
74262SOL     OW24682  10.640  13.418   4.620
74262SOL    HW124683  10.578  13.346   4.608
74262SOL    HW224684  10.671  13.437   4.532
74263SOL     OW24685  14.167  13.502  13.967
74263SOL    HW124686  14.182  13.555  14.045
74263SOL    HW224687  14.086  13.454  13.985
74264SOL     OW24688   5.270  11.415   9.223
74264SOL    HW124689   5.181  11.440   9.199
74264SOL    HW224690   5.326  11.480   9.180
74265SOL     OW24691   9.656   2.078   5.651
74265SOL    HW124692   9.585   2.104   5.592
74265SOL    HW224693   9.646   1.983   5.660
74266SOL     OW24694   9.496  11.403  14.271
74266SOL    HW124695   9.488  11.334  14.336
74266SOL    HW224696   9.542  11.473  14.316
74267SOL     OW24697   8.134   9.190   4.524
74267SOL    HW124698   8.177   9.231   4.450
74267SOL    HW224699   8.149   9.250   4.597
74268SOL     OW24700   0.943   5.553   4.349
74268SOL    HW124701   0.985   5.635   4.321
74268SOL    HW224702   1.017   5.494   4.366
74269SOL     OW24703  12.111   2.661  13.529
74269SOL    HW124704  12.149   2.732  13.580
74269SOL    HW224705  12.040   2.628  13.584
74270SOL     OW24706   5.298  11.870   8.407
74270SOL    HW124707   5.283  11.935   8.338
74270SOL    HW224708   5.256  11.791   8.374
74271SOL     OW24709   8.666   3.294   9.915
74271SOL    HW124710   8.627   3.351   9.981
74271SOL    HW224711   8.618   3.314   9.834
74272SOL     OW24712   6.465   8.097   5.053
74272SOL    HW124713   6.435   8.007   5.064
74272SOL    HW224714   6.385   8.150   5.057
74273SOL     OW24715   2.246   3.658   0.333
74273SOL    HW124716   2.199   3.671   0.416
74273SOL    HW224717   2.310   3.729   0.331
74274SOL     OW24718   1.013   5.644  12.684
74274SOL    HW124719   1.020   5.551  12.704
74274SOL    HW224720   0.929   5.671  12.721
74275SOL     OW24721   4.397  10.545   1.527
74275SOL    HW124722   4.422  10.638   1.527
74275SOL    HW224723   4.385  10.523   1.435
74276SOL     OW24724   7.500   0.867   4.543
74276SOL    HW124725   7.536   0.930   4.605
74276SOL    HW224726   7.568   0.860   4.475
74277SOL     OW24727  11.560   1.477  10.674
74277SOL    HW124728  11.563   1.524  10.590
74277SOL    HW224729  11.646   1.435  10.681
74278SOL     OW24730   7.875   9.991   0.994
74278SOL    HW124731   7.804  10.049   0.966
74278SOL    HW224732   7.887   9.931   0.921
74279SOL     OW24733  12.384  10.352   8.897
74279SOL    HW124734  12.421  10.264   8.902
74279SOL    HW224735  12.447  10.401   8.844
74280SOL     OW24736   6.179   3.892   8.068
74280SOL    HW124737   6.252   3.859   8.015
74280SOL    HW224738   6.200   3.984   8.082
74281SOL     OW24739   1.863   3.558   8.435
74281SOL    HW124740   1.838   3.509   8.513
74281SOL    HW224741   1.949   3.522   8.411
74282SOL     OW24742   7.324   8.413   0.497
74282SOL    HW124743   7.257   8.414   0.428
74282SOL    HW224744   7.360   8.324   0.493
74283SOL     OW24745   5.813   7.514   4.284
74283SOL    HW124746   5.896   7.467   4.272
74283SOL    HW224747   5.823   7.559   4.368
74284SOL     OW24748   4.731  10.034   4.836
74284SOL    HW124749   4.658  10.073   4.884
74284SOL    HW224750   4.744  10.092   4.761
74285SOL     OW24751  13.719   6.755  13.432
74285SOL    HW124752  13.814   6.745  13.432
74285SOL    HW224753  13.685   6.674  13.469
74286SOL     OW24754  11.088   5.089   7.669
74286SOL    HW124755  11.052   5.146   7.601
74286SOL    HW224756  11.149   5.146   7.717
74287SOL     OW24757   9.931   5.161   7.318
74287SOL    HW124758   9.890   5.088   7.270
74287SOL    HW224759  10.024   5.150   7.303
74288SOL     OW24760   4.006   6.741  13.681
74288SOL    HW124761   3.930   6.685  13.668
74288SOL    HW224762   4.013   6.751  13.776
74289SOL     OW24763   7.917   7.505   2.185
74289SOL    HW124764   7.852   7.564   2.147
74289SOL    HW224765   7.967   7.473   2.110
74290SOL     OW24766   1.040   3.527  12.026
74290SOL    HW124767   1.109   3.524  12.092
74290SOL    HW224768   0.963   3.558  12.073
74291SOL     OW24769   8.937  13.736  10.332
74291SOL    HW124770   8.982  13.727  10.248
74291SOL    HW224771   8.933  13.831  10.348
74292SOL     OW24772   1.548   9.223   8.471
74292SOL    HW124773   1.535   9.303   8.420
74292SOL    HW224774   1.480   9.163   8.440
74293SOL     OW24775   1.584  14.360   4.478
74293SOL    HW124776   1.496  14.326   4.458
74293SOL    HW224777   1.568  14.434   4.537
74294SOL     OW24778  10.096  11.850  10.781
74294SOL    HW124779  10.048  11.788  10.835
74294SOL    HW224780  10.029  11.909  10.747
74295SOL     OW24781   3.446   5.017  11.025
74295SOL    HW124782   3.408   4.949  10.970
74295SOL    HW224783   3.537   5.023  10.997
74296SOL     OW24784  11.778   6.506  10.260
74296SOL    HW124785  11.765   6.418  10.295
74296SOL    HW224786  11.800   6.560  10.336
74297SOL     OW24787  11.047  13.585  12.816
74297SOL    HW124788  10.967  13.603  12.767
74297SOL    HW224789  11.021  13.518  12.880
74298SOL     OW24790   8.439  14.526  10.921
74298SOL    HW124791   8.493  14.484  10.854
74298SOL    HW224792   8.398  14.599  10.875
74299SOL     OW24793   0.066  11.879   5.296
74299SOL    HW124794   0.105  11.856   5.212
74299SOL    HW224795   0.142  11.894   5.353
74300SOL     OW24796  11.793  11.644  11.567
74300SOL    HW124797  11.855  11.656  11.495
74300SOL    HW224798  11.730  11.580  11.535
74301SOL     OW24799  11.328   7.447  11.892
74301SOL    HW124800  11.410   7.405  11.919
74301SOL    HW224801  11.348   7.541  11.892
74302SOL     OW24802  12.869   2.398   0.839
74302SOL    HW124803  12.962   2.405   0.859
74302SOL    HW224804  12.833   2.347   0.911
74303SOL     OW24805   8.035   2.471   9.068
74303SOL    HW124806   8.076   2.483   9.153
74303SOL    HW224807   7.941   2.484   9.084
74304SOL     OW24808   6.542  12.582   0.261
74304SOL    HW124809   6.634  12.610   0.266
74304SOL    HW224810   6.504  12.635   0.192
74305SOL     OW24811  14.451  11.435   2.021
74305SOL    HW124812  14.385  11.463   2.085
74305SOL    HW224813  14.400  11.415   1.942
74306SOL     OW24814  11.599  11.319  12.728
74306SOL    HW124815  11.652  11.242  12.708
74306SOL    HW224816  11.625  11.344  12.817
74307SOL     OW24817   6.855   3.962   0.832
74307SOL    HW124818   6.873   3.882   0.784
74307SOL    HW224819   6.929   3.972   0.891
74308SOL     OW24820   8.146   2.874   8.239
74308SOL    HW124821   8.086   2.799   8.242
74308SOL    HW224822   8.089   2.950   8.254
74309SOL     OW24823  10.489   6.611   1.175
74309SOL    HW124824  10.423   6.669   1.138
74309SOL    HW224825  10.439   6.540   1.216
74310SOL     OW24826  10.821   1.553   9.582
74310SOL    HW124827  10.760   1.559   9.655
74310SOL    HW224828  10.765   1.543   9.504
74311SOL     OW24829   8.698  13.866  13.488
74311SOL    HW124830   8.633  13.811  13.444
74311SOL    HW224831   8.681  13.954  13.456
74312SOL     OW24832   4.108   8.400  10.579
74312SOL    HW124833   4.022   8.407  10.621
74312SOL    HW224834   4.158   8.343  10.636
74313SOL     OW24835   3.342   3.238   7.233
74313SOL    HW124836   3.321   3.175   7.302
74313SOL    HW224837   3.363   3.318   7.280
74314SOL     OW24838   9.353   9.404   4.961
74314SOL    HW124839   9.286   9.452   5.010
74314SOL    HW224840   9.313   9.389   4.876
74315SOL     OW24841   4.382   2.443   5.201
74315SOL    HW124842   4.288   2.459   5.193
74315SOL    HW224843   4.420   2.529   5.211
74316SOL     OW24844  11.881  12.758  13.663
74316SOL    HW124845  11.867  12.710  13.581
74316SOL    HW224846  11.906  12.691  13.726
74317SOL     OW24847   4.656   0.092   7.695
74317SOL    HW124848   4.575   0.126   7.655
74317SOL    HW224849   4.681   0.161   7.757
74318SOL     OW24850   6.328  11.478  10.794
74318SOL    HW124851   6.263  11.427  10.843
74318SOL    HW224852   6.349  11.422  10.719
74319SOL     OW24853   5.381   3.549   7.131
74319SOL    HW124854   5.361   3.456   7.120
74319SOL    HW224855   5.309   3.594   7.087
74320SOL     OW24856   7.769   7.489   2.473
74320SOL    HW124857   7.824   7.500   2.551
74320SOL    HW224858   7.766   7.576   2.434
74321SOL     OW24859   9.696  13.002  13.701
74321SOL    HW124860   9.654  13.057  13.635
74321SOL    HW224861   9.636  12.929  13.714
74322SOL     OW24862   1.979   1.867   0.191
74322SOL    HW124863   1.915   1.915   0.243
74322SOL    HW224864   1.938   1.781   0.176
74323SOL     OW24865  10.709   1.470   4.253
74323SOL    HW124866  10.710   1.542   4.316
74323SOL    HW224867  10.617   1.452   4.237
74324SOL     OW24868   0.321   8.284   3.808
74324SOL    HW124869   0.406   8.246   3.785
74324SOL    HW224870   0.342   8.361   3.861
74325SOL     OW24871  14.338   5.379   2.175
74325SOL    HW124872  14.266   5.431   2.139
74325SOL    HW224873  14.401   5.443   2.207
74326SOL     OW24874   1.535  13.896   5.874
74326SOL    HW124875   1.468  13.909   5.941
74326SOL    HW224876   1.603  13.960   5.894
74327SOL     OW24877   8.884   0.061   3.594
74327SOL    HW124878   8.892  14.855   3.537
74327SOL    HW224879   8.842   0.128   3.540
74328SOL     OW24880   0.363   6.108  13.181
74328SOL    HW124881   0.280   6.060  13.174
74328SOL    HW224882   0.388   6.100  13.273
74329SOL     OW24883   9.909   6.770   1.452
74329SOL    HW124884   9.819   6.743   1.432
74329SOL    HW224885   9.899   6.846   1.509
74330SOL     OW24886  12.401  14.218   7.838
74330SOL    HW124887  12.405  14.257   7.750
74330SOL    HW224888  12.312  14.236   7.868
74331SOL     OW24889   1.115  12.446   9.864
74331SOL    HW124890   1.056  12.376   9.894
74331SOL    HW224891   1.202  12.407   9.865
74332SOL     OW24892  11.848  12.555   7.477
74332SOL    HW124893  11.798  12.572   7.397
74332SOL    HW224894  11.932  12.598   7.462
74333SOL     OW24895  11.575  11.723   4.182
74333SOL    HW124896  11.551  11.674   4.261
74333SOL    HW224897  11.606  11.807   4.216
74334SOL     OW24898  12.983   0.586   0.467
74334SOL    HW124899  13.023   0.617   0.387
74334SOL    HW224900  12.964   0.493   0.450
74335SOL     OW24901  12.657   3.508   7.539
74335SOL    HW124902  12.571   3.466   7.552
74335SOL    HW224903  12.720   3.437   7.550
74336SOL     OW24904   7.875   1.301   3.142
74336SOL    HW124905   7.944   1.236   3.137
74336SOL    HW224906   7.905   1.374   3.088
74337SOL     OW24907   0.747   6.291  11.559
74337SOL    HW124908   0.760   6.314  11.467
74337SOL    HW224909   0.680   6.222  11.557
74338SOL     OW24910   5.413  14.862   6.186
74338SOL    HW124911   5.501  14.860   6.150
74338SOL    HW224912   5.423  14.834   6.276
74339SOL     OW24913  14.229   1.143   8.333
74339SOL    HW124914  14.253   1.234   8.349
74339SOL    HW224915  14.180   1.145   8.251
74340SOL     OW24916   4.873  14.571   8.941
74340SOL    HW124917   4.847  14.663   8.953
74340SOL    HW224918   4.936  14.555   9.011
74341SOL     OW24919   6.527  10.857  12.400
74341SOL    HW124920   6.582  10.779  12.396
74341SOL    HW224921   6.500  10.863  12.492
74342SOL     OW24922  13.182   6.409   8.416
74342SOL    HW124923  13.095   6.407   8.376
74342SOL    HW224924  13.168   6.374   8.504
74343SOL     OW24925  12.128  11.133   7.445
74343SOL    HW124926  12.200  11.073   7.464
74343SOL    HW224927  12.142  11.158   7.353
74344SOL     OW24928   8.775   5.474   9.326
74344SOL    HW124929   8.824   5.438   9.401
74344SOL    HW224930   8.688   5.434   9.334
74345SOL     OW24931   3.440   7.735   4.193
74345SOL    HW124932   3.376   7.668   4.219
74345SOL    HW224933   3.386   7.808   4.160
74346SOL     OW24934  10.722   2.162  12.352
74346SOL    HW124935  10.637   2.125  12.376
74346SOL    HW224936  10.731   2.143  12.259
74347SOL     OW24937   9.924   1.645   4.156
74347SOL    HW124938   9.853   1.673   4.099
74347SOL    HW224939   9.914   1.699   4.235
74348SOL     OW24940  14.641   3.100  10.598
74348SOL    HW124941  14.594   3.028  10.557
74348SOL    HW224942  14.680   3.148  10.524
74349SOL     OW24943  12.385   7.839   1.730
74349SOL    HW124944  12.360   7.917   1.680
74349SOL    HW224945  12.463   7.867   1.779
74350SOL     OW24946  11.803  14.737   6.287
74350SOL    HW124947  11.825  14.799   6.356
74350SOL    HW224948  11.786  14.655   6.332
74351SOL     OW24949   5.410  11.419   8.074
74351SOL    HW124950   5.502  11.445   8.088
74351SOL    HW224951   5.407  11.391   7.983
74352SOL     OW24952  13.388   2.497  14.363
74352SOL    HW124953  13.422   2.540  14.285
74352SOL    HW224954  13.354   2.569  14.417
74353SOL     OW24955   2.315   2.761   0.424
74353SOL    HW124956   2.381   2.753   0.493
74353SOL    HW224957   2.235   2.728   0.464
74354SOL     OW24958  11.231  13.667   6.951
74354SOL    HW124959  11.187  13.601   6.898
74354SOL    HW224960  11.244  13.741   6.892
74355SOL     OW24961  14.712   3.056   5.577
74355SOL    HW124962  14.650   3.119   5.612
74355SOL    HW224963  14.714   2.985   5.642
74356SOL     OW24964  10.525   0.524   8.674
74356SOL    HW124965  10.556   0.473   8.600
74356SOL    HW224966  10.595   0.587   8.691
74357SOL     OW24967   0.369   1.568   2.025
74357SOL    HW124968   0.361   1.620   2.105
74357SOL    HW224969   0.356   1.477   2.053
74358SOL     OW24970   7.204   4.652   0.778
74358SOL    HW124971   7.183   4.740   0.746
74358SOL    HW224972   7.171   4.594   0.709
74359SOL     OW24973   8.889   7.256   2.518
74359SOL    HW124974   8.911   7.348   2.508
74359SOL    HW224975   8.921   7.232   2.604
74360SOL     OW24976   4.944   0.740   1.696
74360SOL    HW124977   4.883   0.774   1.760
74360SOL    HW224978   4.898   0.667   1.654
74361SOL     OW24979   2.407   8.800  13.791
74361SOL    HW124980   2.391   8.842  13.707
74361SOL    HW224981   2.388   8.867  13.856
74362SOL     OW24982   8.430   6.655   3.172
74362SOL    HW124983   8.444   6.570   3.214
74362SOL    HW224984   8.516   6.697   3.175
74363SOL     OW24985  14.372   0.578  13.176
74363SOL    HW124986  14.440   0.518  13.147
74363SOL    HW224987  14.361   0.639  13.103
74364SOL     OW24988   0.051   0.416   0.117
74364SOL    HW124989  14.834   0.375   0.117
74364SOL    HW224990   0.035   0.506   0.144
74365SOL     OW24991   8.296   5.395   8.988
74365SOL    HW124992   8.231   5.450   8.945
74365SOL    HW224993   8.251   5.311   9.001
74366SOL     OW24994   7.055   0.373  13.604
74366SOL    HW124995   6.986   0.432  13.636
74366SOL    HW224996   7.137   0.419  13.624
74367SOL     OW24997  11.924   9.510  14.239
74367SOL    HW124998  11.904   9.528  14.147
74367SOL    HW224999  11.998   9.567  14.259
74368SOL     OW25000  10.845  10.407   1.416
74368SOL    HW125001  10.890  10.476   1.368
74368SOL    HW225002  10.871  10.420   1.507
74369SOL     OW25003   1.972   9.765   1.168
74369SOL    HW125004   2.022   9.812   1.235
74369SOL    HW225005   2.005   9.676   1.171
74370SOL     OW25006   9.545   6.380   4.414
74370SOL    HW125007   9.453   6.356   4.424
74370SOL    HW225008   9.548   6.474   4.432
74371SOL     OW25009   7.323  13.940  10.643
74371SOL    HW125010   7.382  13.884  10.694
74371SOL    HW225011   7.238  13.897  10.649
74372SOL     OW25012   0.898   6.611  11.929
74372SOL    HW125013   0.891   6.570  12.015
74372SOL    HW225014   0.849   6.554  11.871
74373SOL     OW25015   4.693  12.043  10.343
74373SOL    HW125016   4.703  11.961  10.393
74373SOL    HW225017   4.768  12.044  10.284
74374SOL     OW25018   0.785   9.215  12.443
74374SOL    HW125019   0.849   9.278  12.475
74374SOL    HW225020   0.776   9.234  12.350
74375SOL     OW25021   7.137   2.501   0.198
74375SOL    HW125022   7.117   2.408   0.202
74375SOL    HW225023   7.062   2.544   0.240
74376SOL     OW25024   6.184   1.315  14.075
74376SOL    HW125025   6.246   1.242  14.067
74376SOL    HW225026   6.149   1.307  14.164
74377SOL     OW25027   9.616   1.966   0.753
74377SOL    HW125028   9.525   1.943   0.735
74377SOL    HW225029   9.639   2.028   0.684
74378SOL     OW25030   7.743  13.707   1.109
74378SOL    HW125031   7.806  13.637   1.089
74378SOL    HW225032   7.726  13.697   1.203
74379SOL     OW25033   9.194  12.084  10.973
74379SOL    HW125034   9.157  12.014  11.026
74379SOL    HW225035   9.139  12.087  10.895
74380SOL     OW25036   8.327   7.090   4.136
74380SOL    HW125037   8.354   7.181   4.134
74380SOL    HW225038   8.343   7.062   4.227
74381SOL     OW25039  11.870  14.197  14.308
74381SOL    HW125040  11.915  14.143  14.374
74381SOL    HW225041  11.793  14.231  14.354
74382SOL     OW25042  12.566   3.750  11.724
74382SOL    HW125043  12.576   3.662  11.762
74382SOL    HW225044  12.506   3.737  11.650
74383SOL     OW25045  12.374   5.602   8.278
74383SOL    HW125046  12.444   5.646   8.326
74383SOL    HW225047  12.417   5.531   8.230
74384SOL     OW25048  14.621   5.021   3.427
74384SOL    HW125049  14.638   4.955   3.359
74384SOL    HW225050  14.534   5.000   3.460
74385SOL     OW25051  13.683   9.711  13.877
74385SOL    HW125052  13.614   9.645  13.883
74385SOL    HW225053  13.648   9.788  13.922
74386SOL     OW25054  10.706   4.054   0.614
74386SOL    HW125055  10.690   3.987   0.547
74386SOL    HW225056  10.640   4.121   0.597
74387SOL     OW25057   1.528   4.813   1.180
74387SOL    HW125058   1.558   4.896   1.217
74387SOL    HW225059   1.439   4.832   1.149
74388SOL     OW25060   4.692  10.148   3.042
74388SOL    HW125061   4.665  10.176   3.130
74388SOL    HW225062   4.785  10.130   3.049
74389SOL     OW25063   6.312   1.351   0.961
74389SOL    HW125064   6.230   1.396   0.982
74389SOL    HW225065   6.334   1.302   1.040
74390SOL     OW25066   5.708  12.774   7.272
74390SOL    HW125067   5.723  12.866   7.295
74390SOL    HW225068   5.667  12.777   7.186
74391SOL     OW25069  10.425   6.540   1.494
74391SOL    HW125070  10.354   6.605   1.491
74391SOL    HW225071  10.455   6.541   1.584
74392SOL     OW25072   6.019   3.751   8.248
74392SOL    HW125073   5.927   3.752   8.222
74392SOL    HW225074   6.061   3.818   8.193
74393SOL     OW25075   6.809  13.877  10.587
74393SOL    HW125076   6.789  13.918  10.503
74393SOL    HW225077   6.731  13.826  10.608
74394SOL     OW25078   1.796   5.519   3.571
74394SOL    HW125079   1.739   5.456   3.614
74394SOL    HW225080   1.746   5.601   3.571
74395SOL     OW25081   9.751   6.205   2.028
74395SOL    HW125082   9.811   6.279   2.027
74395SOL    HW225083   9.671   6.238   2.068
74396SOL     OW25084   7.549   9.119   2.144
74396SOL    HW125085   7.463   9.077   2.132
74396SOL    HW225086   7.602   9.052   2.187
74397SOL     OW25087   3.522   2.063   0.163
74397SOL    HW125088   3.594   2.006   0.136
74397SOL    HW225089   3.505   2.119   0.087
74398SOL     OW25090   5.070   8.712  14.262
74398SOL    HW125091   4.981   8.741  14.279
74398SOL    HW225092   5.066   8.616  14.267
74399SOL     OW25093  11.558   2.121  13.919
74399SOL    HW125094  11.611   2.171  13.981
74399SOL    HW225095  11.600   2.036  13.916
74400SOL     OW25096  13.570   7.964   6.855
74400SOL    HW125097  13.649   8.015   6.873
74400SOL    HW225098  13.505   8.028   6.827
74401SOL     OW25099   5.450   4.232   7.659
74401SOL    HW125100   5.429   4.323   7.640
74401SOL    HW225101   5.367   4.194   7.688
74402SOL     OW25102   1.190  10.104  10.195
74402SOL    HW125103   1.202  10.070  10.107
74402SOL    HW225104   1.107  10.152  10.191
74403SOL     OW25105   5.894   8.368  13.854
74403SOL    HW125106   5.913   8.274  13.855
74403SOL    HW225107   5.974   8.410  13.884
74404SOL     OW25108   5.659   0.097   2.981
74404SOL    HW125109   5.591   0.118   2.916
74404SOL    HW225110   5.663   0.174   3.037
74405SOL     OW25111   9.626   0.576   4.957
74405SOL    HW125112   9.616   0.648   5.018
74405SOL    HW225113   9.585   0.501   5.001
74406SOL     OW25114   6.846   0.010  10.129
74406SOL    HW125115   6.839   0.031  10.222
74406SOL    HW225116   6.897  14.799  10.126
74407SOL     OW25117  11.126   8.227   8.032
74407SOL    HW125118  11.144   8.168   7.959
74407SOL    HW225119  11.136   8.314   7.995
74408SOL     OW25120   6.747   2.789   7.641
74408SOL    HW125121   6.704   2.752   7.564
74408SOL    HW225122   6.755   2.716   7.702
74409SOL     OW25123  13.470  10.163   3.832
74409SOL    HW125124  13.523  10.178   3.754
74409SOL    HW225125  13.413  10.239   3.837
74410SOL     OW25126   4.458   4.779  14.055
74410SOL    HW125127   4.517   4.800  13.983
74410SOL    HW225128   4.439   4.864  14.095
74411SOL     OW25129   0.568   1.170   9.682
74411SOL    HW125130   0.636   1.235   9.700
74411SOL    HW225131   0.616   1.089   9.668
74412SOL     OW25132   8.954  12.219  12.431
74412SOL    HW125133   8.956  12.206  12.336
74412SOL    HW225134   9.022  12.160  12.464
74413SOL     OW25135  10.180   3.212   0.216
74413SOL    HW125136  10.136   3.130   0.240
74413SOL    HW225137  10.201   3.252   0.301
74414SOL     OW25138   6.765  10.093   3.530
74414SOL    HW125139   6.846  10.136   3.503
74414SOL    HW225140   6.744  10.034   3.458
74415SOL     OW25141   9.908   5.859   6.457
74415SOL    HW125142   9.864   5.924   6.403
74415SOL    HW225143   9.841   5.828   6.518
74416SOL     OW25144   9.642   8.877   9.749
74416SOL    HW125145   9.687   8.847   9.670
74416SOL    HW225146   9.606   8.797   9.787
74417SOL     OW25147   8.713  11.671   7.658
74417SOL    HW125148   8.752  11.663   7.571
74417SOL    HW225149   8.633  11.619   7.653
74418SOL     OW25150  11.155  13.124  14.301
74418SOL    HW125151  11.166  13.111  14.207
74418SOL    HW225152  11.205  13.053  14.341
74419SOL     OW25153  11.598   7.938   2.984
74419SOL    HW125154  11.652   7.972   3.055
74419SOL    HW225155  11.531   7.885   3.028
74420SOL     OW25156   3.323  10.889   9.049
74420SOL    HW125157   3.320  10.939   8.967
74420SOL    HW225158   3.359  10.950   9.113
74421SOL     OW25159  14.540   0.988   1.795
74421SOL    HW125160  14.460   0.941   1.819
74421SOL    HW225161  14.611   0.928   1.820
74422SOL     OW25162   2.669   9.796  11.837
74422SOL    HW125163   2.734   9.729  11.816
74422SOL    HW225164   2.587   9.764  11.800
74423SOL     OW25165   2.586  13.925   4.163
74423SOL    HW125166   2.641  13.850   4.141
74423SOL    HW225167   2.497  13.897   4.140
74424SOL     OW25168   9.759  12.341   1.042
74424SOL    HW125169   9.739  12.284   0.967
74424SOL    HW225170   9.809  12.413   1.005
74425SOL     OW25171   0.083   3.491   4.588
74425SOL    HW125172  14.859   3.476   4.602
74425SOL    HW225173   0.098   3.580   4.621
74426SOL     OW25174   3.616   6.957   5.296
74426SOL    HW125175   3.684   6.901   5.260
74426SOL    HW225176   3.656   6.998   5.373
74427SOL     OW25177   6.890   1.107   4.617
74427SOL    HW125178   6.841   1.064   4.548
74427SOL    HW225179   6.877   1.201   4.602
74428SOL     OW25180   4.603   5.816   0.347
74428SOL    HW125181   4.667   5.886   0.334
74428SOL    HW225182   4.526   5.861   0.384
74429SOL     OW25183   9.084   3.825   8.847
74429SOL    HW125184   9.174   3.797   8.830
74429SOL    HW225185   9.033   3.788   8.775
74430SOL     OW25186   3.721   6.580   3.545
74430SOL    HW125187   3.752   6.549   3.460
74430SOL    HW225188   3.798   6.576   3.602
74431SOL     OW25189   2.158   5.925   1.122
74431SOL    HW125190   2.175   5.947   1.030
74431SOL    HW225191   2.074   5.965   1.141
74432SOL     OW25192   4.532   7.524  13.734
74432SOL    HW125193   4.478   7.501  13.809
74432SOL    HW225194   4.496   7.607  13.702
74433SOL     OW25195   4.413  14.403   9.106
74433SOL    HW125196   4.440  14.432   9.193
74433SOL    HW225197   4.364  14.323   9.122
74434SOL     OW25198  10.433   2.728   9.936
74434SOL    HW125199  10.378   2.650   9.922
74434SOL    HW225200  10.450   2.729  10.030
74435SOL     OW25201   6.965  10.214   8.214
74435SOL    HW125202   6.954  10.136   8.269
74435SOL    HW225203   7.035  10.190   8.153
74436SOL     OW25204  13.763   4.465   9.851
74436SOL    HW125205  13.763   4.399   9.920
74436SOL    HW225206  13.816   4.537   9.887
74437SOL     OW25207   8.477  14.228   0.070
74437SOL    HW125208   8.414  14.229  14.868
74437SOL    HW225209   8.494  14.321   0.087
74438SOL     OW25210  12.305  10.773  10.335
74438SOL    HW125211  12.342  10.860  10.326
74438SOL    HW225212  12.215  10.781  10.304
74439SOL     OW25213   6.957   5.701   0.232
74439SOL    HW125214   6.992   5.612   0.224
74439SOL    HW225215   6.974   5.725   0.322
74440SOL     OW25216  11.999   6.171  10.804
74440SOL    HW125217  12.020   6.104  10.869
74440SOL    HW225218  12.024   6.253  10.847
74441SOL     OW25219   6.806   9.906  13.946
74441SOL    HW125220   6.753   9.883  14.021
74441SOL    HW225221   6.882   9.952  13.983
74442SOL     OW25222  14.617  12.759   6.080
74442SOL    HW125223  14.547  12.705   6.117
74442SOL    HW225224  14.692  12.700   6.073
74443SOL     OW25225   6.144   4.839   5.541
74443SOL    HW125226   6.070   4.896   5.559
74443SOL    HW225227   6.130   4.762   5.597
74444SOL     OW25228   7.608   3.460  11.108
74444SOL    HW125229   7.628   3.550  11.135
74444SOL    HW225230   7.565   3.469  11.023
74445SOL     OW25231   3.814   2.695  12.129
74445SOL    HW125232   3.863   2.767  12.169
74445SOL    HW225233   3.725   2.706  12.161
74446SOL     OW25234   9.654   1.645  10.260
74446SOL    HW125235   9.685   1.598  10.182
74446SOL    HW225236   9.680   1.736  10.245
74447SOL     OW25237   8.199   9.235   2.490
74447SOL    HW125238   8.138   9.249   2.417
74447SOL    HW225239   8.243   9.153   2.468
74448SOL     OW25240   0.346   5.898   8.840
74448SOL    HW125241   0.339   5.809   8.876
74448SOL    HW225242   0.386   5.948   8.911
74449SOL     OW25243   8.432   1.788   5.882
74449SOL    HW125244   8.391   1.702   5.874
74449SOL    HW225245   8.525   1.769   5.888
74450SOL     OW25246   6.287  14.189   4.668
74450SOL    HW125247   6.214  14.150   4.621
74450SOL    HW225248   6.277  14.156   4.758
74451SOL     OW25249   6.644  11.069  10.441
74451SOL    HW125250   6.681  10.981  10.432
74451SOL    HW225251   6.710  11.127  10.404
74452SOL     OW25252  11.624  14.071   3.235
74452SOL    HW125253  11.574  14.028   3.165
74452SOL    HW225254  11.590  14.031   3.316
74453SOL     OW25255   3.639   1.747   0.546
74453SOL    HW125256   3.590   1.743   0.464
74453SOL    HW225257   3.701   1.819   0.533
74454SOL     OW25258   1.877  11.367  11.986
74454SOL    HW125259   1.896  11.274  11.994
74454SOL    HW225260   1.951  11.401  11.935
74455SOL     OW25261   8.983  10.365  13.745
74455SOL    HW125262   8.918  10.296  13.733
74455SOL    HW225263   8.934  10.440  13.777
74456SOL     OW25264  13.377  14.713   2.339
74456SOL    HW125265  13.359  14.628   2.379
74456SOL    HW225266  13.304  14.726   2.278
74457SOL     OW25267   9.941   9.158   6.799
74457SOL    HW125268   9.895   9.228   6.753
74457SOL    HW225269   9.992   9.113   6.731
74458SOL     OW25270  11.929   6.518  13.990
74458SOL    HW125271  11.999   6.569  14.032
74458SOL    HW225272  11.864   6.584  13.965
74459SOL     OW25273  11.655   7.429  10.160
74459SOL    HW125274  11.583   7.366  10.157
74459SOL    HW225275  11.732   7.377  10.184
74460SOL     OW25276  12.396   9.134  14.649
74460SOL    HW125277  12.474   9.188  14.663
74460SOL    HW225278  12.328   9.177  14.702
74461SOL     OW25279   6.315  10.406  10.469
74461SOL    HW125280   6.261  10.479  10.439
74461SOL    HW225281   6.270  10.328  10.437
74462SOL     OW25282   9.962   9.137  13.268
74462SOL    HW125283   9.913   9.185  13.335
74462SOL    HW225284   9.931   9.172  13.185
74463SOL     OW25285   7.760   1.301   8.369
74463SOL    HW125286   7.786   1.221   8.323
74463SOL    HW225287   7.842   1.347   8.386
74464SOL     OW25288  12.091   5.956  12.865
74464SOL    HW125289  12.168   5.931  12.814
74464SOL    HW225290  12.044   5.874  12.879
74465SOL     OW25291   0.266  12.676   0.326
74465SOL    HW125292   0.256  12.682   0.231
74465SOL    HW225293   0.316  12.595   0.340
74466SOL     OW25294  12.533   9.912  11.619
74466SOL    HW125295  12.589   9.903  11.696
74466SOL    HW225296  12.530  10.006  11.602
74467SOL     OW25297  14.757  14.777  13.147
74467SOL    HW125298  14.740   0.000  13.164
74467SOL    HW225299  14.680  14.732  13.182
74468SOL     OW25300   2.571  11.304   8.137
74468SOL    HW125301   2.487  11.343   8.112
74468SOL    HW225302   2.635  11.344   8.079
74469SOL     OW25303   5.244   0.766   0.250
74469SOL    HW125304   5.209   0.840   0.200
74469SOL    HW225305   5.197   0.771   0.334
74470SOL     OW25306   8.566   8.091   4.491
74470SOL    HW125307   8.532   8.054   4.573
74470SOL    HW225308   8.515   8.170   4.477
74471SOL     OW25309   0.531   8.044   5.196
74471SOL    HW125310   0.570   8.092   5.123
74471SOL    HW225311   0.588   7.968   5.208
74472SOL     OW25312   9.666  10.202  14.290
74472SOL    HW125313   9.617  10.132  14.246
74472SOL    HW225314   9.755  10.167  14.297
74473SOL     OW25315   8.856   7.106   4.338
74473SOL    HW125316   8.849   7.022   4.384
74473SOL    HW225317   8.790   7.100   4.269
74474SOL     OW25318   9.186   0.735   4.598
74474SOL    HW125319   9.146   0.797   4.537
74474SOL    HW225320   9.254   0.786   4.643
74475SOL     OW25321   5.476   1.007   4.914
74475SOL    HW125322   5.415   0.951   4.963
74475SOL    HW225323   5.545   1.028   4.978
74476SOL     OW25324   8.267   8.484   7.650
74476SOL    HW125325   8.348   8.529   7.625
74476SOL    HW225326   8.295   8.420   7.716
74477SOL     OW25327  10.999  14.759  13.080
74477SOL    HW125328  11.070  14.819  13.105
74477SOL    HW225329  11.032  14.672  13.103
74478SOL     OW25330  14.056   1.256   0.400
74478SOL    HW125331  14.058   1.304   0.317
74478SOL    HW225332  13.967   1.222   0.406
74479SOL     OW25333   0.528   7.066   7.530
74479SOL    HW125334   0.514   7.019   7.448
74479SOL    HW225335   0.600   7.126   7.511
74480SOL     OW25336  13.942  12.985   9.993
74480SOL    HW125337  13.931  12.999   9.899
74480SOL    HW225338  14.025  12.938  10.001
74481SOL     OW25339  11.517   5.493   8.680
74481SOL    HW125340  11.463   5.570   8.695
74481SOL    HW225341  11.463   5.419   8.707
74482SOL     OW25342   3.153  10.791  13.272
74482SOL    HW125343   3.067  10.750  13.281
74482SOL    HW225344   3.215  10.719  13.286
74483SOL     OW25345  12.051  10.906  14.159
74483SOL    HW125346  12.005  10.982  14.195
74483SOL    HW225347  11.981  10.850  14.125
74484SOL     OW25348   2.490   1.682   0.139
74484SOL    HW125349   2.529   1.675   0.052
74484SOL    HW225350   2.554   1.642   0.198
74485SOL     OW25351   3.507  10.204   5.746
74485SOL    HW125352   3.501  10.112   5.722
74485SOL    HW225353   3.600  10.226   5.735
74486SOL     OW25354   3.200   5.148   7.376
74486SOL    HW125355   3.227   5.138   7.285
74486SOL    HW225356   3.193   5.058   7.409
74487SOL     OW25357  10.207  12.493  13.630
74487SOL    HW125358  10.264  12.484  13.554
74487SOL    HW225359  10.161  12.575  13.616
74488SOL     OW25360   8.069   4.615   1.678
74488SOL    HW125361   8.024   4.597   1.761
74488SOL    HW225362   8.135   4.545   1.672
74489SOL     OW25363  11.147   0.135  13.319
74489SOL    HW125364  11.145   0.223  13.355
74489SOL    HW225365  11.101   0.081  13.383
74490SOL     OW25366   9.132   3.232   0.700
74490SOL    HW125367   9.158   3.316   0.661
74490SOL    HW225368   9.098   3.256   0.787
74491SOL     OW25369   0.122  13.998   5.192
74491SOL    HW125370   0.189  14.062   5.216
74491SOL    HW225371   0.087  14.029   5.109
74492SOL     OW25372  13.656   9.413   1.038
74492SOL    HW125373  13.676   9.468   0.962
74492SOL    HW225374  13.563   9.391   1.028
74493SOL     OW25375   3.405   1.858   8.715
74493SOL    HW125376   3.330   1.838   8.658
74493SOL    HW225377   3.372   1.925   8.775
74494SOL     OW25378   0.917  10.151  11.826
74494SOL    HW125379   0.863  10.180  11.900
74494SOL    HW225380   1.001  10.130  11.865
74495SOL     OW25381  10.524   6.717   5.710
74495SOL    HW125382  10.553   6.711   5.801
74495SOL    HW225383  10.467   6.794   5.708
74496SOL     OW25384   2.376   7.471  14.803
74496SOL    HW125385   2.396   7.525   0.010
74496SOL    HW225386   2.370   7.382  14.837
74497SOL     OW25387  14.075   1.135  12.455
74497SOL    HW125388  14.164   1.149  12.424
74497SOL    HW225389  14.028   1.097  12.380
74498SOL     OW25390   2.906  13.479  12.097
74498SOL    HW125391   2.812  13.465  12.112
74498SOL    HW225392   2.933  13.537  12.168
74499SOL     OW25393   9.132  10.398  11.707
74499SOL    HW125394   9.125  10.424  11.799
74499SOL    HW225395   9.088  10.468  11.660
74500SOL     OW25396   9.082   7.273   0.533
74500SOL    HW125397   9.035   7.356   0.533
74500SOL    HW225398   9.151   7.284   0.598
74501SOL     OW25399  11.121   8.549   4.057
74501SOL    HW125400  11.035   8.509   4.047
74501SOL    HW225401  11.111   8.610   4.129
74502SOL     OW25402   7.193   6.395  14.440
74502SOL    HW125403   7.277   6.438  14.423
74502SOL    HW225404   7.182   6.401  14.535
74503SOL     OW25405   4.298   7.266  11.894
74503SOL    HW125406   4.297   7.176  11.861
74503SOL    HW225407   4.221   7.307  11.854
74504SOL     OW25408   5.591   2.424   1.201
74504SOL    HW125409   5.497   2.407   1.193
74504SOL    HW225410   5.597   2.515   1.230
74505SOL     OW25411   0.701  14.717   4.731
74505SOL    HW125412   0.728  14.663   4.805
74505SOL    HW225413   0.614  14.748   4.755
74506SOL     OW25414   6.947   9.055   6.827
74506SOL    HW125415   6.866   9.039   6.876
74506SOL    HW225416   6.967   8.972   6.785
74507SOL     OW25417  13.521   2.302  13.958
74507SOL    HW125418  13.515   2.207  13.970
74507SOL    HW225419  13.606   2.325  13.993
74508SOL     OW25420   9.502   3.411  10.306
74508SOL    HW125421   9.434   3.440  10.368
74508SOL    HW225422   9.454   3.393  10.225
74509SOL     OW25423   3.528  13.969  14.813
74509SOL    HW125424   3.514  13.984  14.719
74509SOL    HW225425   3.479  14.039  14.856
74510SOL     OW25426   9.672   0.285   6.196
74510SOL    HW125427   9.629   0.342   6.259
74510SOL    HW225428   9.640   0.314   6.111
74511SOL     OW25429   8.798   9.474   8.218
74511SOL    HW125430   8.743   9.552   8.209
74511SOL    HW225431   8.738   9.406   8.247
74512SOL     OW25432   9.186   9.971   8.741
74512SOL    HW125433   9.200   9.936   8.829
74512SOL    HW225434   9.255  10.036   8.730
74513SOL     OW25435   7.768   8.040  12.550
74513SOL    HW125436   7.757   8.008  12.640
74513SOL    HW225437   7.767   7.961  12.496
74514SOL     OW25438   8.597   7.145   6.104
74514SOL    HW125439   8.569   7.114   6.190
74514SOL    HW225440   8.537   7.103   6.042
74515SOL     OW25441   7.164   1.239   2.281
74515SOL    HW125442   7.171   1.323   2.328
74515SOL    HW225443   7.246   1.234   2.231
74516SOL     OW25444  11.931   0.582   8.656
74516SOL    HW125445  11.991   0.610   8.587
74516SOL    HW225446  11.889   0.503   8.621
74517SOL     OW25447   4.936   1.087   5.836
74517SOL    HW125448   4.947   0.997   5.868
74517SOL    HW225449   4.844   1.108   5.853
74518SOL     OW25450  12.821   7.387   8.798
74518SOL    HW125451  12.774   7.446   8.739
74518SOL    HW225452  12.840   7.310   8.745
74519SOL     OW25453  14.187  12.317   8.087
74519SOL    HW125454  14.183  12.398   8.138
74519SOL    HW225455  14.273  12.280   8.106
74520SOL     OW25456   8.178   0.618  11.435
74520SOL    HW125457   8.187   0.524  11.446
74520SOL    HW225458   8.235   0.656  11.502
74521SOL     OW25459  11.166   6.469   5.659
74521SOL    HW125460  11.190   6.395   5.604
74521SOL    HW225461  11.150   6.432   5.745
74522SOL     OW25462   6.605  13.030   9.356
74522SOL    HW125463   6.698  13.051   9.360
74522SOL    HW225464   6.567  13.100   9.303
74523SOL     OW25465   9.341   2.802   9.164
74523SOL    HW125466   9.307   2.868   9.225
74523SOL    HW225467   9.427   2.834   9.139
74524SOL     OW25468  13.300  11.690   2.386
74524SOL    HW125469  13.341  11.657   2.467
74524SOL    HW225470  13.324  11.783   2.384
74525SOL     OW25471  13.740   6.897   8.756
74525SOL    HW125472  13.697   6.886   8.841
74525SOL    HW225473  13.738   6.991   8.740
74526SOL     OW25474  11.681   2.850   1.129
74526SOL    HW125475  11.706   2.804   1.049
74526SOL    HW225476  11.585   2.845   1.129
74527SOL     OW25477   5.044   8.831   4.163
74527SOL    HW125478   5.063   8.924   4.152
74527SOL    HW225479   4.950   8.828   4.182
74528SOL     OW25480   5.984  11.920   7.940
74528SOL    HW125481   6.043  11.985   7.902
74528SOL    HW225482   6.037  11.841   7.949
74529SOL     OW25483   5.759   2.643  14.595
74529SOL    HW125484   5.767   2.561  14.643
74529SOL    HW225485   5.753   2.617  14.503
74530SOL     OW25486  11.627  12.008  12.384
74530SOL    HW125487  11.624  12.098  12.418
74530SOL    HW225488  11.571  11.958  12.444
74531SOL     OW25489   7.151  11.790  13.456
74531SOL    HW125490   7.240  11.812  13.427
74531SOL    HW225491   7.158  11.780  13.551
74532SOL     OW25492  13.026   2.919   6.578
74532SOL    HW125493  13.073   2.899   6.659
74532SOL    HW225494  12.935   2.929   6.604
74533SOL     OW25495   7.528  13.151   4.403
74533SOL    HW125496   7.445  13.150   4.451
74533SOL    HW225497   7.592  13.182   4.467
74534SOL     OW25498   3.605   0.551  14.451
74534SOL    HW125499   3.547   0.623  14.426
74534SOL    HW225500   3.581   0.479  14.393
74535SOL     OW25501   6.550  14.325   6.513
74535SOL    HW125502   6.604  14.265   6.565
74535SOL    HW225503   6.565  14.411   6.552
74536SOL     OW25504   7.440   9.925   0.143
74536SOL    HW125505   7.474   9.895   0.227
74536SOL    HW225506   7.366   9.981   0.165
74537SOL     OW25507   2.668   5.449   8.028
74537SOL    HW125508   2.727   5.523   8.019
74537SOL    HW225509   2.586   5.487   8.058
74538SOL     OW25510   4.840  10.612   5.600
74538SOL    HW125511   4.842  10.619   5.504
74538SOL    HW225512   4.913  10.667   5.629
74539SOL     OW25513   2.097  13.015   6.199
74539SOL    HW125514   2.008  12.982   6.183
74539SOL    HW225515   2.099  13.034   6.293
74540SOL     OW25516  11.650  11.095   1.957
74540SOL    HW125517  11.723  11.082   2.017
74540SOL    HW225518  11.672  11.042   1.880
74541SOL     OW25519   2.644   0.910   2.951
74541SOL    HW125520   2.637   1.004   2.934
74541SOL    HW225521   2.706   0.878   2.885
74542SOL     OW25522   0.857   6.159  11.320
74542SOL    HW125523   0.765   6.159  11.291
74542SOL    HW225524   0.891   6.244  11.292
74543SOL     OW25525  12.600  10.368  12.328
74543SOL    HW125526  12.636  10.447  12.289
74543SOL    HW225527  12.605  10.302  12.259
74544SOL     OW25528  14.254   8.737   2.164
74544SOL    HW125529  14.234   8.731   2.070
74544SOL    HW225530  14.207   8.664   2.203
74545SOL     OW25531  12.470   9.335   3.840
74545SOL    HW125532  12.426   9.251   3.835
74545SOL    HW225533  12.476   9.364   3.749
74546SOL     OW25534   7.427  14.165  13.479
74546SOL    HW125535   7.385  14.249  13.499
74546SOL    HW225536   7.359  14.100  13.496
74547SOL     OW25537  13.055   9.423   9.753
74547SOL    HW125538  13.103   9.426   9.835
74547SOL    HW225539  13.047   9.515   9.726
74548SOL     OW25540  13.575  13.909  12.826
74548SOL    HW125541  13.618  13.885  12.744
74548SOL    HW225542  13.483  13.919  12.803
74549SOL     OW25543   0.133  10.085   3.126
74549SOL    HW125544   0.228  10.089   3.126
74549SOL    HW225545   0.112  10.003   3.080
74550SOL     OW25546   2.814   1.252  13.630
74550SOL    HW125547   2.764   1.212  13.701
74550SOL    HW225548   2.750   1.303  13.581
74551SOL     OW25549   5.381   7.806   1.413
74551SOL    HW125550   5.392   7.711   1.410
74551SOL    HW225551   5.392   7.829   1.505
74552SOL     OW25552   0.749   7.742   2.448
74552SOL    HW125553   0.828   7.736   2.502
74552SOL    HW225554   0.687   7.681   2.488
74553SOL     OW25555   8.356   9.528   1.602
74553SOL    HW125556   8.369   9.570   1.687
74553SOL    HW225557   8.437   9.545   1.553
74554SOL     OW25558   6.971   9.557  11.134
74554SOL    HW125559   6.912   9.532  11.063
74554SOL    HW225560   7.047   9.596  11.091
74555SOL     OW25561   0.249   1.824   6.939
74555SOL    HW125562   0.216   1.776   7.014
74555SOL    HW225563   0.180   1.887   6.918
74556SOL     OW25564   8.285   8.362   4.203
74556SOL    HW125565   8.302   8.393   4.114
74556SOL    HW225566   8.211   8.301   4.192
74557SOL     OW25567   7.135  11.476   2.261
74557SOL    HW125568   7.069  11.467   2.193
74557SOL    HW225569   7.157  11.570   2.261
74558SOL     OW25570   6.474  12.450   2.557
74558SOL    HW125571   6.403  12.439   2.495
74558SOL    HW225572   6.441  12.413   2.639
74559SOL     OW25573   7.245   6.769  14.743
74559SOL    HW125574   7.162   6.723  14.734
74559SOL    HW225575   7.232   6.851  14.695
74560SOL     OW25576   5.544   2.863   7.147
74560SOL    HW125577   5.481   2.793   7.131
74560SOL    HW225578   5.495   2.944   7.135
74561SOL     OW25579   1.361   7.445   1.246
74561SOL    HW125580   1.365   7.471   1.338
74561SOL    HW225581   1.325   7.522   1.201
74562SOL     OW25582  12.163   2.396  12.330
74562SOL    HW125583  12.222   2.329  12.365
74562SOL    HW225584  12.218   2.447  12.270
74563SOL     OW25585  13.991   4.451   0.939
74563SOL    HW125586  14.080   4.459   0.907
74563SOL    HW225587  13.993   4.489   1.026
74564SOL     OW25588  10.941   6.859  11.691
74564SOL    HW125589  11.023   6.829  11.730
74564SOL    HW225590  10.957   6.951  11.670
74565SOL     OW25591  14.130   4.007  10.959
74565SOL    HW125592  14.105   4.013  10.867
74565SOL    HW225593  14.203   4.069  10.968
74566SOL     OW25594   4.534   8.739  14.135
74566SOL    HW125595   4.609   8.779  14.091
74566SOL    HW225596   4.468   8.731  14.067
74567SOL     OW25597   9.481   9.886   6.980
74567SOL    HW125598   9.473   9.836   6.899
74567SOL    HW225599   9.402   9.865   7.030
74568SOL     OW25600   5.360  11.315  12.477
74568SOL    HW125601   5.374  11.267  12.396
74568SOL    HW225602   5.418  11.390  12.471
74569SOL     OW25603   0.028  12.332   6.685
74569SOL    HW125604  14.852  12.406   6.725
74569SOL    HW225605   0.069  12.369   6.607
74570SOL     OW25606   7.988   9.541   2.881
74570SOL    HW125607   8.019   9.596   2.809
74570SOL    HW225608   8.009   9.452   2.855
74571SOL     OW25609  12.188   9.357  13.764
74571SOL    HW125610  12.203   9.268  13.732
74571SOL    HW225611  12.148   9.403  13.690
74572SOL     OW25612  11.436   1.257   9.000
74572SOL    HW125613  11.362   1.226   8.947
74572SOL    HW225614  11.425   1.352   9.003
74573SOL     OW25615   7.839   6.829  13.559
74573SOL    HW125616   7.839   6.805  13.467
74573SOL    HW225617   7.785   6.908  13.564
74574SOL     OW25618  14.499   5.963   1.427
74574SOL    HW125619  14.407   5.971   1.452
74574SOL    HW225620  14.533   5.891   1.481
74575SOL     OW25621   7.390   9.396   6.829
74575SOL    HW125622   7.360   9.339   6.758
74575SOL    HW225623   7.476   9.361   6.853
74576SOL     OW25624   4.695  12.679   6.235
74576SOL    HW125625   4.790  12.676   6.224
74576SOL    HW225626   4.681  12.663   6.328
74577SOL     OW25627  12.637  11.613   9.159
74577SOL    HW125628  12.595  11.528   9.149
74577SOL    HW225629  12.566  11.676   9.149
74578SOL     OW25630   4.492   7.900  14.491
74578SOL    HW125631   4.549   7.936  14.559
74578SOL    HW225632   4.496   7.805  14.503
74579SOL     OW25633   9.501   3.879   1.535
74579SOL    HW125634   9.446   3.927   1.596
74579SOL    HW225635   9.530   3.945   1.472
74580SOL     OW25636   1.574   4.107  11.883
74580SOL    HW125637   1.618   4.097  11.799
74580SOL    HW225638   1.506   4.039  11.883
74581SOL     OW25639   1.405   6.621  10.722
74581SOL    HW125640   1.330   6.597  10.777
74581SOL    HW225641   1.367   6.672  10.651
74582SOL     OW25642  14.068  10.902   1.295
74582SOL    HW125643  14.147  10.907   1.348
74582SOL    HW225644  14.002  10.951   1.344
74583SOL     OW25645   0.637   6.883   5.961
74583SOL    HW125646   0.630   6.795   5.998
74583SOL    HW225647   0.728   6.888   5.929
74584SOL     OW25648   3.324   1.574   5.087
74584SOL    HW125649   3.241   1.606   5.122
74584SOL    HW225650   3.319   1.479   5.097
74585SOL     OW25651   0.381   9.171   5.932
74585SOL    HW125652   0.372   9.081   5.963
74585SOL    HW225653   0.300   9.189   5.884
74586SOL     OW25654   3.261   4.370   7.084
74586SOL    HW125655   3.319   4.429   7.132
74586SOL    HW225656   3.191   4.351   7.145
74587SOL     OW25657   8.657   7.656   7.237
74587SOL    HW125658   8.727   7.712   7.269
74587SOL    HW225659   8.613   7.624   7.316
74588SOL     OW25660   1.903  10.765   9.216
74588SOL    HW125661   1.983  10.759   9.166
74588SOL    HW225662   1.913  10.702   9.287
74589SOL     OW25663   1.352  11.777   7.634
74589SOL    HW125664   1.439  11.755   7.667
74589SOL    HW225665   1.363  11.784   7.539
74590SOL     OW25666   2.112   3.990   9.652
74590SOL    HW125667   2.166   4.037   9.717
74590SOL    HW225668   2.035   4.046   9.640
74591SOL     OW25669   7.555   5.682   4.688
74591SOL    HW125670   7.496   5.657   4.759
74591SOL    HW225671   7.602   5.758   4.723
74592SOL     OW25672   1.744   4.624   2.635
74592SOL    HW125673   1.706   4.673   2.562
74592SOL    HW225674   1.677   4.560   2.657
74593SOL     OW25675   4.887  10.361   2.503
74593SOL    HW125676   4.959  10.298   2.504
74593SOL    HW225677   4.925  10.441   2.467
74594SOL     OW25678   9.749   1.630   2.786
74594SOL    HW125679   9.712   1.619   2.873
74594SOL    HW225680   9.747   1.725   2.771
74595SOL     OW25681   4.858  11.956   2.696
74595SOL    HW125682   4.846  12.045   2.663
74595SOL    HW225683   4.909  11.912   2.628
74596SOL     OW25684   7.694   0.570  14.717
74596SOL    HW125685   7.779   0.548  14.754
74596SOL    HW225686   7.636   0.498  14.741
74597SOL     OW25687  12.829   4.943  11.100
74597SOL    HW125688  12.796   5.033  11.099
74597SOL    HW225689  12.899   4.943  11.034
74598SOL     OW25690  12.673  14.831   0.401
74598SOL    HW125691  12.608  14.836   0.332
74598SOL    HW225692  12.704   0.051   0.412
74599SOL     OW25693   5.101  12.244  13.673
74599SOL    HW125694   5.008  12.265  13.659
74599SOL    HW225695   5.116  12.266  13.765
74600SOL     OW25696   0.008   6.963   4.408
74600SOL    HW125697   0.006   6.976   4.313
74600SOL    HW225698  14.809   7.021   4.442
74601SOL     OW25699  14.369   8.800   0.211
74601SOL    HW125700  14.427   8.780   0.137
74601SOL    HW225701  14.321   8.719   0.226
74602SOL     OW25702  10.152   7.787   2.092
74602SOL    HW125703  10.096   7.807   2.017
74602SOL    HW225704  10.173   7.872   2.130
74603SOL     OW25705   2.970   5.413  12.766
74603SOL    HW125706   2.979   5.382  12.856
74603SOL    HW225707   2.907   5.353  12.727
74604SOL     OW25708   1.318  12.182   1.971
74604SOL    HW125709   1.326  12.168   1.877
74604SOL    HW225710   1.248  12.122   1.998
74605SOL     OW25711   2.975   4.607   5.619
74605SOL    HW125712   2.985   4.701   5.603
74605SOL    HW225713   2.881   4.593   5.618
74606SOL     OW25714  11.456   7.137  12.456
74606SOL    HW125715  11.428   7.155  12.546
74606SOL    HW225716  11.532   7.192  12.443
74607SOL     OW25717  13.299   0.706   9.881
74607SOL    HW125718  13.297   0.659   9.797
74607SOL    HW225719  13.208   0.723   9.902
74608SOL     OW25720   9.565   9.796   8.949
74608SOL    HW125721   9.602   9.756   9.028
74608SOL    HW225722   9.596   9.887   8.952
74609SOL     OW25723   8.198  11.709   3.431
74609SOL    HW125724   8.269  11.689   3.369
74609SOL    HW225725   8.143  11.773   3.385
74610SOL     OW25726   1.141   3.110  11.655
74610SOL    HW125727   1.217   3.165  11.640
74610SOL    HW225728   1.070   3.171  11.677
74611SOL     OW25729  12.709   6.542  10.212
74611SOL    HW125730  12.800   6.567  10.229
74611SOL    HW225731  12.682   6.493  10.290
74612SOL     OW25732  14.493   8.256  13.571
74612SOL    HW125733  14.572   8.223  13.614
74612SOL    HW225734  14.422   8.205  13.609
74613SOL     OW25735   4.316   6.418   7.536
74613SOL    HW125736   4.401   6.456   7.561
74613SOL    HW225737   4.280   6.480   7.472
74614SOL     OW25738  11.347   0.617  13.939
74614SOL    HW125739  11.369   0.539  13.991
74614SOL    HW225740  11.389   0.602  13.855
74615SOL     OW25741   8.689  11.039   2.950
74615SOL    HW125742   8.731  11.092   2.882
74615SOL    HW225743   8.603  11.016   2.913
74616SOL     OW25744  13.503   2.446  12.523
74616SOL    HW125745  13.593   2.472  12.542
74616SOL    HW225746  13.499   2.354  12.547
74617SOL     OW25747  12.873   8.024  13.819
74617SOL    HW125748  12.859   7.935  13.785
74617SOL    HW225749  12.872   8.013  13.914
74618SOL     OW25750   1.106   8.275  12.577
74618SOL    HW125751   1.085   8.199  12.631
74618SOL    HW225752   1.170   8.242  12.514
74619SOL     OW25753  10.243  12.107  13.064
74619SOL    HW125754  10.267  12.015  13.056
74619SOL    HW225755  10.264  12.145  12.978
74620SOL     OW25756   9.213   7.989  12.045
74620SOL    HW125757   9.202   7.973  11.952
74620SOL    HW225758   9.301   7.956  12.065
74621SOL     OW25759   3.940  14.688   6.269
74621SOL    HW125760   3.933  14.593   6.283
74621SOL    HW225761   4.011  14.715   6.327
74622SOL     OW25762   3.176   6.194   4.170
74622SOL    HW125763   3.169   6.153   4.256
74622SOL    HW225764   3.119   6.142   4.114
74623SOL     OW25765   0.424   9.325   5.184
74623SOL    HW125766   0.376   9.253   5.225
74623SOL    HW225767   0.510   9.288   5.165
74624SOL     OW25768  14.495  14.259  11.784
74624SOL    HW125769  14.474  14.237  11.874
74624SOL    HW225770  14.579  14.217  11.767
74625SOL     OW25771   2.416   8.516   6.505
74625SOL    HW125772   2.453   8.520   6.417
74625SOL    HW225773   2.430   8.425   6.533
74626SOL     OW25774   1.899   5.203   6.206
74626SOL    HW125775   1.898   5.296   6.228
74626SOL    HW225776   1.873   5.159   6.287
74627SOL     OW25777   9.031   6.959   6.811
74627SOL    HW125778   9.094   6.910   6.864
74627SOL    HW225779   8.959   6.898   6.797
74628SOL     OW25780   1.778  10.167   9.396
74628SOL    HW125781   1.794  10.158   9.302
74628SOL    HW225782   1.866  10.172   9.435
74629SOL     OW25783   9.903   6.039   1.768
74629SOL    HW125784   9.916   5.987   1.688
74629SOL    HW225785   9.857   6.117   1.738
74630SOL     OW25786   4.471   3.199   3.548
74630SOL    HW125787   4.494   3.235   3.462
74630SOL    HW225788   4.525   3.120   3.556
74631SOL     OW25789  10.932   5.687   0.733
74631SOL    HW125790  10.942   5.644   0.649
74631SOL    HW225791  10.860   5.641   0.776
74632SOL     OW25792   5.579   5.538  14.648
74632SOL    HW125793   5.579   5.630  14.623
74632SOL    HW225794   5.504   5.530  14.708
74633SOL     OW25795   6.038  11.963   5.623
74633SOL    HW125796   6.027  11.951   5.717
74633SOL    HW225797   6.066  12.054   5.613
74634SOL     OW25798  14.859  13.787   3.393
74634SOL    HW125799  14.785  13.787   3.332
74634SOL    HW225800   0.055  13.731   3.351
74635SOL     OW25801   7.739   5.910   8.002
74635SOL    HW125802   7.748   5.822   7.965
74635SOL    HW225803   7.824   5.951   7.989
74636SOL     OW25804  12.615  14.405   0.586
74636SOL    HW125805  12.578  14.487   0.553
74636SOL    HW225806  12.543  14.343   0.581
74637SOL     OW25807   3.414   3.687  11.916
74637SOL    HW125808   3.338   3.664  11.863
74637SOL    HW225809   3.442   3.772  11.882
74638SOL     OW25810  14.389   7.559   8.067
74638SOL    HW125811  14.350   7.625   8.009
74638SOL    HW225812  14.315   7.525   8.117
74639SOL     OW25813  12.735   5.848  12.758
74639SOL    HW125814  12.812   5.821  12.707
74639SOL    HW225815  12.739   5.794  12.837
74640SOL     OW25816   7.058  10.946  11.863
74640SOL    HW125817   7.137  10.986  11.898
74640SOL    HW225818   7.069  10.948  11.768
74641SOL     OW25819   1.106  10.042  12.455
74641SOL    HW125820   1.149  10.117  12.496
74641SOL    HW225821   1.017  10.043  12.489
74642SOL     OW25822  10.791  13.614  12.723
74642SOL    HW125823  10.758  13.638  12.809
74642SOL    HW225824  10.744  13.533  12.701
74643SOL     OW25825  14.208   0.929  11.996
74643SOL    HW125826  14.216   0.836  12.019
74643SOL    HW225827  14.213   0.931  11.901
74644SOL     OW25828   7.068  12.533   7.316
74644SOL    HW125829   7.077  12.605   7.255
74644SOL    HW225830   7.110  12.563   7.396
74645SOL     OW25831   3.668   8.988  14.637
74645SOL    HW125832   3.645   8.942  14.718
74645SOL    HW225833   3.763   9.000  14.642
74646SOL     OW25834   5.790   8.356   0.937
74646SOL    HW125835   5.697   8.370   0.955
74646SOL    HW225836   5.791   8.282   0.876
74647SOL     OW25837   4.599  10.436  12.791
74647SOL    HW125838   4.513  10.457  12.827
74647SOL    HW225839   4.659  10.495  12.837
74648SOL     OW25840   4.555   8.053   4.771
74648SOL    HW125841   4.561   7.958   4.758
74648SOL    HW225842   4.555   8.090   4.683
74649SOL     OW25843  11.360   9.648   4.412
74649SOL    HW125844  11.357   9.569   4.357
74649SOL    HW225845  11.428   9.629   4.477
74650SOL     OW25846   8.588   4.328  14.664
74650SOL    HW125847   8.508   4.373  14.637
74650SOL    HW225848   8.578   4.239  14.629
74651SOL     OW25849  13.008   9.837   0.514
74651SOL    HW125850  12.995   9.819   0.608
74651SOL    HW225851  12.939   9.787   0.471
74652SOL     OW25852  10.163  10.248   8.279
74652SOL    HW125853  10.072  10.222   8.270
74652SOL    HW225854  10.189  10.279   8.193
74653SOL     OW25855   8.406   2.706  12.920
74653SOL    HW125856   8.326   2.697  12.869
74653SOL    HW225857   8.428   2.617  12.947
74654SOL     OW25858   4.429   6.224   0.269
74654SOL    HW125859   4.453   6.229   0.361
74654SOL    HW225860   4.352   6.279   0.261
74655SOL     OW25861  13.244   0.344   3.766
74655SOL    HW125862  13.214   0.389   3.845
74655SOL    HW225863  13.214   0.253   3.778
74656SOL     OW25864  11.387   2.295  13.292
74656SOL    HW125865  11.378   2.387  13.268
74656SOL    HW225866  11.364   2.246  13.213
74657SOL     OW25867  13.815   0.815   8.265
74657SOL    HW125868  13.789   0.736   8.219
74657SOL    HW225869  13.868   0.785   8.339
74658SOL     OW25870  12.299   1.143   0.795
74658SOL    HW125871  12.271   1.229   0.763
74658SOL    HW225872  12.348   1.162   0.874
74659SOL     OW25873  11.501   5.419   6.736
74659SOL    HW125874  11.408   5.436   6.723
74659SOL    HW225875  11.521   5.350   6.673
74660SOL     OW25876  10.969   5.787   9.930
74660SOL    HW125877  10.992   5.863   9.982
74660SOL    HW225878  11.016   5.714   9.972
74661SOL     OW25879  10.427   7.758   1.372
74661SOL    HW125880  10.384   7.817   1.433
74661SOL    HW225881  10.458   7.814   1.301
74662SOL     OW25882   1.160  13.311  14.470
74662SOL    HW125883   1.198  13.395  14.492
74662SOL    HW225884   1.213  13.278  14.397
74663SOL     OW25885   1.618   1.891  12.149
74663SOL    HW125886   1.529   1.909  12.182
74663SOL    HW225887   1.630   1.955  12.079
74664SOL     OW25888   7.584   8.661  13.822
74664SOL    HW125889   7.502   8.702  13.795
74664SOL    HW225890   7.622   8.628  13.740
74665SOL     OW25891   2.325   3.816  11.391
74665SOL    HW125892   2.319   3.885  11.457
74665SOL    HW225893   2.310   3.735  11.440
74666SOL     OW25894   2.163   6.252   1.341
74666SOL    HW125895   2.165   6.220   1.250
74666SOL    HW225896   2.077   6.226   1.373
74667SOL     OW25897   8.846   0.201   5.970
74667SOL    HW125898   8.909   0.245   6.026
74667SOL    HW225899   8.880   0.210   5.882
74668SOL     OW25900   7.401  13.473   9.429
74668SOL    HW125901   7.491  13.493   9.455
74668SOL    HW225902   7.375  13.548   9.375
74669SOL     OW25903   2.579   8.948   6.770
74669SOL    HW125904   2.595   8.874   6.712
74669SOL    HW225905   2.552   8.909   6.853
74670SOL     OW25906   0.697   9.129   5.196
74670SOL    HW125907   0.784   9.089   5.192
74670SOL    HW225908   0.705   9.200   5.259
74671SOL     OW25909   9.736  13.666   0.948
74671SOL    HW125910   9.809  13.624   0.994
74671SOL    HW225911   9.710  13.737   1.005
74672SOL     OW25912   8.014   0.265  13.589
74672SOL    HW125913   8.003   0.293  13.498
74672SOL    HW225914   8.079   0.196  13.585
74673SOL     OW25915   1.504  13.011  14.462
74673SOL    HW125916   1.557  12.951  14.513
74673SOL    HW225917   1.497  13.090  14.516
74674SOL     OW25918   3.147  12.798   6.122
74674SOL    HW125919   3.066  12.757   6.093
74674SOL    HW225920   3.207  12.726   6.137
74675SOL     OW25921  12.660  13.265  12.141
74675SOL    HW125922  12.658  13.357  12.165
74675SOL    HW225923  12.694  13.265  12.051
74676SOL     OW25924   7.595   5.551  12.294
74676SOL    HW125925   7.664   5.485  12.302
74676SOL    HW225926   7.605   5.606  12.372
74677SOL     OW25927   8.235   5.237  11.844
74677SOL    HW125928   8.241   5.263  11.752
74677SOL    HW225929   8.311   5.182  11.859
74678SOL     OW25930   1.164   5.675  14.325
74678SOL    HW125931   1.202   5.691  14.238
74678SOL    HW225932   1.089   5.735  14.330
74679SOL     OW25933  12.165   9.506   7.945
74679SOL    HW125934  12.120   9.424   7.927
74679SOL    HW225935  12.243   9.480   7.995
74680SOL     OW25936   4.691  11.668  12.744
74680SOL    HW125937   4.680  11.662  12.839
74680SOL    HW225938   4.612  11.713  12.714
74681SOL     OW25939   2.104   6.352   9.630
74681SOL    HW125940   2.160   6.282   9.596
74681SOL    HW225941   2.101   6.338   9.725
74682SOL     OW25942  14.559   8.634   9.518
74682SOL    HW125943  14.633   8.652   9.575
74682SOL    HW225944  14.492   8.698   9.545
74683SOL     OW25945   6.852   6.012   6.768
74683SOL    HW125946   6.920   5.987   6.706
74683SOL    HW225947   6.782   5.949   6.754
74684SOL     OW25948   7.234   0.788   4.572
74684SOL    HW125949   7.328   0.795   4.558
74684SOL    HW225950   7.198   0.868   4.534
74685SOL     OW25951   5.535   8.301  11.001
74685SOL    HW125952   5.446   8.275  11.023
74685SOL    HW225953   5.530   8.394  10.981
74686SOL     OW25954  14.796   6.781   7.994
74686SOL    HW125955  14.713   6.803   8.037
74686SOL    HW225956  14.848   6.861   8.002
74687SOL     OW25957   1.290   9.603   7.212
74687SOL    HW125958   1.370   9.573   7.170
74687SOL    HW225959   1.294   9.567   7.301
74688SOL     OW25960  12.583  12.949   3.103
74688SOL    HW125961  12.534  12.910   3.031
74688SOL    HW225962  12.640  12.879   3.133
74689SOL     OW25963  11.687   3.893   5.194
74689SOL    HW125964  11.694   3.824   5.128
74689SOL    HW225965  11.677   3.974   5.144
74690SOL     OW25966   4.265   6.237   7.804
74690SOL    HW125967   4.225   6.317   7.771
74690SOL    HW225968   4.359   6.255   7.802
74691SOL     OW25969  14.012   0.320  11.815
74691SOL    HW125970  14.108   0.319  11.821
74691SOL    HW225971  13.993   0.279  11.731
74692SOL     OW25972  12.196   4.793  13.518
74692SOL    HW125973  12.151   4.708  13.521
74692SOL    HW225974  12.127   4.857  13.534
74693SOL     OW25975   6.549  12.100   7.082
74693SOL    HW125976   6.500  12.165   7.032
74693SOL    HW225977   6.540  12.127   7.173
74694SOL     OW25978   4.684  10.083   5.692
74694SOL    HW125979   4.710  10.175   5.689
74694SOL    HW225980   4.655  10.069   5.782
74695SOL     OW25981   2.751   0.476  13.900
74695SOL    HW125982   2.802   0.553  13.873
74695SOL    HW225983   2.722   0.436  13.819
74696SOL     OW25984   3.620  11.294   1.102
74696SOL    HW125985   3.635  11.367   1.161
74696SOL    HW225986   3.539  11.254   1.133
74697SOL     OW25987   8.572   4.329  10.933
74697SOL    HW125988   8.491   4.381  10.927
74697SOL    HW225989   8.632   4.371  10.873
74698SOL     OW25990  12.037   5.224   7.314
74698SOL    HW125991  12.034   5.292   7.382
74698SOL    HW225992  12.117   5.174   7.334
74699SOL     OW25993   0.552   6.968   0.310
74699SOL    HW125994   0.536   7.049   0.359
74699SOL    HW225995   0.628   6.988   0.255
74700SOL     OW25996   8.419  13.490  10.452
74700SOL    HW125997   8.435  13.494  10.546
74700SOL    HW225998   8.494  13.536  10.414
74701SOL     OW25999   3.204   8.998   2.375
74701SOL    HW126000   3.279   9.039   2.333
74701SOL    HW226001   3.128   9.031   2.327
74702SOL     OW26002  12.446   1.469  14.066
74702SOL    HW126003  12.378   1.533  14.046
74702SOL    HW226004  12.528   1.513  14.044
74703SOL     OW26005  10.029   3.405  11.077
74703SOL    HW126006  10.073   3.387  11.161
74703SOL    HW226007  10.020   3.319  11.036
74704SOL     OW26008   4.123  13.925   5.814
74704SOL    HW126009   4.197  13.928   5.875
74704SOL    HW226010   4.162  13.939   5.728
74705SOL     OW26011  14.826  14.548   9.599
74705SOL    HW126012   0.004  14.546   9.516
74705SOL    HW226013  14.734  14.546   9.573
74706SOL     OW26014  13.997   8.804  14.577
74706SOL    HW126015  13.969   8.895  14.569
74706SOL    HW226016  14.058   8.792  14.504
74707SOL     OW26017  14.179   4.066   9.010
74707SOL    HW126018  14.191   4.141   8.952
74707SOL    HW226019  14.242   4.080   9.081
74708SOL     OW26020   3.531  11.470   7.530
74708SOL    HW126021   3.558  11.391   7.483
74708SOL    HW226022   3.513  11.440   7.619
74709SOL     OW26023   5.981  11.715   9.301
74709SOL    HW126024   6.026  11.788   9.257
74709SOL    HW226025   6.047  11.647   9.309
74710SOL     OW26026   2.423  11.513   5.768
74710SOL    HW126027   2.426  11.541   5.676
74710SOL    HW226028   2.441  11.419   5.765
74711SOL     OW26029   4.095   2.447   1.617
74711SOL    HW126030   4.080   2.420   1.527
74711SOL    HW226031   4.021   2.504   1.638
74712SOL     OW26032   9.224  11.662   2.304
74712SOL    HW126033   9.165  11.695   2.236
74712SOL    HW226034   9.305  11.712   2.292
74713SOL     OW26035   5.645   4.632   6.753
74713SOL    HW126036   5.556   4.655   6.778
74713SOL    HW226037   5.643   4.627   6.658
74714SOL     OW26038   9.843   8.856   2.967
74714SOL    HW126039   9.753   8.872   2.938
74714SOL    HW226040   9.896   8.916   2.914
74715SOL     OW26041  12.318   1.559   9.384
74715SOL    HW126042  12.258   1.626   9.350
74715SOL    HW226043  12.280   1.535   9.469
74716SOL     OW26044   0.207   3.881   3.545
74716SOL    HW126045   0.278   3.945   3.536
74716SOL    HW226046   0.220   3.844   3.632
74717SOL     OW26047  12.175  12.920  14.055
74717SOL    HW126048  12.188  12.840  14.003
74717SOL    HW226049  12.261  12.939  14.092
74718SOL     OW26050   2.904   1.587  10.953
74718SOL    HW126051   2.939   1.506  10.990
74718SOL    HW226052   2.981   1.638  10.928
74719SOL     OW26053   8.995   9.092   6.956
74719SOL    HW126054   9.077   9.082   6.908
74719SOL    HW226055   8.981   9.186   6.961
74720SOL     OW26056   7.452   3.469   8.117
74720SOL    HW126057   7.412   3.554   8.099
74720SOL    HW226058   7.517   3.487   8.186
74721SOL     OW26059   3.853   6.553  11.757
74721SOL    HW126060   3.908   6.478  11.738
74721SOL    HW226061   3.880   6.581  11.844
74722SOL     OW26062  12.243  11.921   0.236
74722SOL    HW126063  12.286  11.980   0.297
74722SOL    HW226064  12.276  11.948   0.150
74723SOL     OW26065   5.088  13.446  11.244
74723SOL    HW126066   5.042  13.458  11.327
74723SOL    HW226067   5.116  13.355  11.245
74724SOL     OW26068   1.340   9.216   5.577
74724SOL    HW126069   1.363   9.236   5.668
74724SOL    HW226070   1.280   9.286   5.552
74725SOL     OW26071   0.660   5.680   3.850
74725SOL    HW126072   0.697   5.707   3.934
74725SOL    HW226073   0.654   5.761   3.800
74726SOL     OW26074   0.528   9.496   5.582
74726SOL    HW126075   0.451   9.520   5.531
74726SOL    HW226076   0.562   9.579   5.615
74727SOL     OW26077   4.598  11.969   9.369
74727SOL    HW126078   4.644  11.895   9.408
74727SOL    HW226079   4.508  11.960   9.400
74728SOL     OW26080   0.890   3.332   1.989
74728SOL    HW126081   0.912   3.375   1.906
74728SOL    HW226082   0.875   3.241   1.966
74729SOL     OW26083  11.616   8.464   7.453
74729SOL    HW126084  11.693   8.425   7.412
74729SOL    HW226085  11.643   8.483   7.543
74730SOL     OW26086   2.550   0.701   3.839
74730SOL    HW126087   2.524   0.630   3.898
74730SOL    HW226088   2.525   0.670   3.752
74731SOL     OW26089   1.763   9.563   1.273
74731SOL    HW126090   1.798   9.644   1.309
74731SOL    HW226091   1.839   9.506   1.264
74732SOL     OW26092   0.521  13.839   8.789
74732SOL    HW126093   0.564  13.878   8.865
74732SOL    HW226094   0.431  13.873   8.793
74733SOL     OW26095  12.203   9.896  10.539
74733SOL    HW126096  12.253   9.929  10.614
74733SOL    HW226097  12.121   9.944  10.542
74734SOL     OW26098  11.947  13.136   6.978
74734SOL    HW126099  11.928  13.221   7.019
74734SOL    HW226100  11.993  13.158   6.898
74735SOL     OW26101   5.937   4.966   8.115
74735SOL    HW126102   5.995   4.934   8.046
74735SOL    HW226103   5.856   4.917   8.104
74736SOL     OW26104   2.242  12.715  14.299
74736SOL    HW126105   2.324  12.699  14.253
74736SOL    HW226106   2.176  12.671  14.244
74737SOL     OW26107  13.139   7.686   2.653
74737SOL    HW126108  13.112   7.602   2.616
74737SOL    HW226109  13.069   7.709   2.714
74738SOL     OW26110   2.831   2.910   9.993
74738SOL    HW126111   2.766   2.851   9.956
74738SOL    HW226112   2.782   2.963  10.056
74739SOL     OW26113   8.716  13.057  14.327
74739SOL    HW126114   8.785  13.094  14.381
74739SOL    HW226115   8.754  13.052  14.239
74740SOL     OW26116  14.020   8.739   9.307
74740SOL    HW126117  13.943   8.766   9.256
74740SOL    HW226118  13.990   8.741   9.398
74741SOL     OW26119   6.871  12.966   1.594
74741SOL    HW126120   6.899  12.958   1.686
74741SOL    HW226121   6.812  12.892   1.581
74742SOL     OW26122   1.722   9.841  11.474
74742SOL    HW126123   1.746   9.756  11.511
74742SOL    HW226124   1.765   9.905  11.530
74743SOL     OW26125   2.441   2.789   4.344
74743SOL    HW126126   2.452   2.739   4.263
74743SOL    HW226127   2.465   2.878   4.320
74744SOL     OW26128   8.498  11.938  13.819
74744SOL    HW126129   8.422  11.995  13.803
74744SOL    HW226130   8.561  11.994  13.863
74745SOL     OW26131  13.819   1.193   7.046
74745SOL    HW126132  13.764   1.132   6.998
74745SOL    HW226133  13.773   1.205   7.129
74746SOL     OW26134   4.728  12.227  11.462
74746SOL    HW126135   4.737  12.153  11.522
74746SOL    HW226136   4.768  12.301  11.508
74747SOL     OW26137   1.270   3.129  11.257
74747SOL    HW126138   1.212   3.205  11.266
74747SOL    HW226139   1.218   3.055  11.289
74748SOL     OW26140  14.421   1.861   5.161
74748SOL    HW126141  14.369   1.940   5.147
74748SOL    HW226142  14.488   1.886   5.224
74749SOL     OW26143   5.407   3.425   5.235
74749SOL    HW126144   5.435   3.396   5.148
74749SOL    HW226145   5.312   3.419   5.233
74750SOL     OW26146   2.139   1.152  12.706
74750SOL    HW126147   2.103   1.205  12.778
74750SOL    HW226148   2.157   1.067  12.747
74751SOL     OW26149  11.987   6.308  13.831
74751SOL    HW126150  11.973   6.391  13.877
74751SOL    HW226151  12.081   6.290  13.842
74752SOL     OW26152   0.531   9.087   4.298
74752SOL    HW126153   0.513   9.071   4.205
74752SOL    HW226154   0.467   9.034   4.344
74753SOL     OW26155  12.340   7.280   6.589
74753SOL    HW126156  12.262   7.275   6.534
74753SOL    HW226157  12.312   7.327   6.668
74754SOL     OW26158   8.578   0.503   3.523
74754SOL    HW126159   8.554   0.476   3.434
74754SOL    HW226160   8.571   0.599   3.521
74755SOL     OW26161  10.647   8.586   9.491
74755SOL    HW126162  10.572   8.634   9.527
74755SOL    HW226163  10.687   8.543   9.567
74756SOL     OW26164   3.958  11.210   7.916
74756SOL    HW126165   4.039  11.212   7.865
74756SOL    HW226166   3.940  11.116   7.928
74757SOL     OW26167   7.962   4.538  14.103
74757SOL    HW126168   7.948   4.630  14.123
74757SOL    HW226169   8.055   4.532  14.084
74758SOL     OW26170  14.645   0.417  10.026
74758SOL    HW126171  14.732   0.458  10.025
74758SOL    HW226172  14.590   0.479  10.073
74759SOL     OW26173  12.056  14.671   6.834
74759SOL    HW126174  12.134  14.654   6.782
74759SOL    HW226175  12.010  14.587   6.838
74760SOL     OW26176  13.958  11.311   2.752
74760SOL    HW126177  13.921  11.369   2.685
74760SOL    HW226178  13.898  11.236   2.755
74761SOL     OW26179   2.925   9.714  10.175
74761SOL    HW126180   2.857   9.654  10.206
74761SOL    HW226181   2.964   9.668  10.100
74762SOL     OW26182   9.715  13.713   7.603
74762SOL    HW126183   9.644  13.650   7.606
74762SOL    HW226184   9.675  13.796   7.629
74763SOL     OW26185  14.698  11.192  14.640
74763SOL    HW126186  14.610  11.160  14.617
74763SOL    HW226187  14.702  11.185  14.735
74764SOL     OW26188   6.394   1.878   2.105
74764SOL    HW126189   6.421   1.793   2.140
74764SOL    HW226190   6.455   1.941   2.143
74765SOL     OW26191  12.285  14.218   1.167
74765SOL    HW126192  12.222  14.231   1.238
74765SOL    HW226193  12.277  14.126   1.144
74766SOL     OW26194  12.112   3.215  13.056
74766SOL    HW126195  12.136   3.140  13.111
74766SOL    HW226196  12.177   3.214  12.986
74767SOL     OW26197   6.731   1.418   5.754
74767SOL    HW126198   6.770   1.342   5.797
74767SOL    HW226199   6.735   1.397   5.660
74768SOL     OW26200   1.348  14.505   1.342
74768SOL    HW126201   1.436  14.479   1.316
74768SOL    HW226202   1.292  14.436   1.307
74769SOL     OW26203   9.265   5.176  14.344
74769SOL    HW126204   9.185   5.132  14.371
74769SOL    HW226205   9.237   5.240  14.278
74770SOL     OW26206  10.986   9.421   5.319
74770SOL    HW126207  10.941   9.366   5.255
74770SOL    HW226208  11.057   9.366   5.353
74771SOL     OW26209   7.823  10.503  11.159
74771SOL    HW126210   7.745  10.487  11.211
74771SOL    HW226211   7.834  10.424  11.106
74772SOL     OW26212   3.628  10.744  11.498
74772SOL    HW126213   3.677  10.807  11.550
74772SOL    HW226214   3.645  10.769  11.407
74773SOL     OW26215   0.065  14.082  10.264
74773SOL    HW126216   0.147  14.064  10.310
74773SOL    HW226217  14.867  14.050  10.323
74774SOL     OW26218  10.755  11.074   2.719
74774SOL    HW126219  10.759  11.100   2.627
74774SOL    HW226220  10.821  11.006   2.727
74775SOL     OW26221   1.294   6.317  10.111
74775SOL    HW126222   1.348   6.393  10.130
74775SOL    HW226223   1.350   6.259  10.060
74776SOL     OW26224   1.872   1.689  10.938
74776SOL    HW126225   1.843   1.779  10.947
74776SOL    HW226226   1.858   1.650  11.024
74777SOL     OW26227   1.404   9.378   1.757
74777SOL    HW126228   1.367   9.317   1.693
74777SOL    HW226229   1.440   9.321   1.825
74778SOL     OW26230   9.210  11.518  10.924
74778SOL    HW126231   9.116  11.512  10.942
74778SOL    HW226232   9.217  11.515  10.829
74779SOL     OW26233   1.250  11.211   3.540
74779SOL    HW126234   1.257  11.132   3.594
74779SOL    HW226235   1.172  11.256   3.573
74780SOL     OW26236  11.919   6.072   9.440
74780SOL    HW126237  11.994   6.028   9.399
74780SOL    HW226238  11.850   6.006   9.441
74781SOL     OW26239   2.374   3.641   2.486
74781SOL    HW126240   2.325   3.633   2.405
74781SOL    HW226241   2.359   3.731   2.516
74782SOL     OW26242   0.300   2.719   4.293
74782SOL    HW126243   0.345   2.799   4.267
74782SOL    HW226244   0.214   2.748   4.323
74783SOL     OW26245  13.875   2.681  11.825
74783SOL    HW126246  13.939   2.727  11.771
74783SOL    HW226247  13.872   2.733  11.906
74784SOL     OW26248   8.609   8.366   3.144
74784SOL    HW126249   8.645   8.454   3.153
74784SOL    HW226250   8.583   8.360   3.052
74785SOL     OW26251   9.282   3.489  10.442
74785SOL    HW126252   9.236   3.445  10.513
74785SOL    HW226253   9.223   3.480  10.367
74786SOL     OW26254  10.489   3.215  13.078
74786SOL    HW126255  10.565   3.163  13.052
74786SOL    HW226256  10.526   3.298  13.108
74787SOL     OW26257   0.618   5.046  11.887
74787SOL    HW126258   0.679   5.119  11.901
74787SOL    HW226259   0.651   4.976  11.944
74788SOL     OW26260   2.173  10.835   4.856
74788SOL    HW126261   2.115  10.775   4.810
74788SOL    HW226262   2.192  10.904   4.793
74789SOL     OW26263   2.525  10.432  11.357
74789SOL    HW126264   2.492  10.518  11.331
74789SOL    HW226265   2.601  10.417  11.300
74790SOL     OW26266   7.018  11.690   6.823
74790SOL    HW126267   7.104  11.706   6.784
74790SOL    HW226268   7.034  11.620   6.886
74791SOL     OW26269   6.025   1.626  10.618
74791SOL    HW126270   6.067   1.677  10.687
74791SOL    HW226271   5.977   1.557  10.666
74792SOL     OW26272  12.866   1.586  11.585
74792SOL    HW126273  12.838   1.497  11.563
74792SOL    HW226274  12.946   1.599  11.535
74793SOL     OW26275  12.869   2.504   8.402
74793SOL    HW126276  12.915   2.443   8.343
74793SOL    HW226277  12.903   2.590   8.378
74794SOL     OW26278  14.588   3.651   6.346
74794SOL    HW126279  14.582   3.582   6.281
74794SOL    HW226280  14.580   3.605   6.430
74795SOL     OW26281  10.817  12.900   3.067
74795SOL    HW126282  10.825  12.864   2.979
74795SOL    HW226283  10.744  12.962   3.062
74796SOL     OW26284   6.672   6.829   9.487
74796SOL    HW126285   6.627   6.744   9.488
74796SOL    HW226286   6.731   6.825   9.562
74797SOL     OW26287   8.534   7.842  14.802
74797SOL    HW126288   8.604   7.789  14.765
74797SOL    HW226289   8.506   7.794   0.011
74798SOL     OW26290  10.565   2.668   5.414
74798SOL    HW126291  10.620   2.607   5.364
74798SOL    HW226292  10.616   2.689   5.492
74799SOL     OW26293   8.777   4.980   2.561
74799SOL    HW126294   8.749   4.900   2.517
74799SOL    HW226295   8.695   5.021   2.590
74800SOL     OW26296  11.138   2.285   5.267
74800SOL    HW126297  11.115   2.377   5.252
74800SOL    HW226298  11.226   2.288   5.305
74801SOL     OW26299   8.356  12.341  12.084
74801SOL    HW126300   8.424  12.304  12.028
74801SOL    HW226301   8.303  12.266  12.110
74802SOL     OW26302   9.011   9.096   2.773
74802SOL    HW126303   8.953   9.085   2.849
74802SOL    HW226304   9.098   9.112   2.812
74803SOL     OW26305  14.227  12.561  11.439
74803SOL    HW126306  14.250  12.488  11.497
74803SOL    HW226307  14.298  12.623  11.448
74804SOL     OW26308   6.948  14.606  10.063
74804SOL    HW126309   6.908  14.618   9.977
74804SOL    HW226310   7.042  14.621  10.048
74805SOL     OW26311   5.302  12.705   7.309
74805SOL    HW126312   5.251  12.765   7.363
74805SOL    HW226313   5.250  12.693   7.229
74806SOL     OW26314  10.078   4.462   2.236
74806SOL    HW126315  10.091   4.392   2.172
74806SOL    HW226316  10.118   4.539   2.196
74807SOL     OW26317   5.262   5.797   9.668
74807SOL    HW126318   5.181   5.802   9.618
74807SOL    HW226319   5.289   5.706   9.661
74808SOL     OW26320   7.648   7.756   3.823
74808SOL    HW126321   7.648   7.830   3.884
74808SOL    HW226322   7.706   7.691   3.865
74809SOL     OW26323   5.194  11.657   8.158
74809SOL    HW126324   5.145  11.738   8.169
74809SOL    HW226325   5.142  11.606   8.095
74810SOL     OW26326  13.450  10.447   3.547
74810SOL    HW126327  13.359  10.420   3.559
74810SOL    HW226328  13.497  10.366   3.528
74811SOL     OW26329   3.831   5.007   1.626
74811SOL    HW126330   3.836   5.074   1.558
74811SOL    HW226331   3.784   4.934   1.584
74812SOL     OW26332   1.630  12.087  14.357
74812SOL    HW126333   1.666  12.011  14.312
74812SOL    HW226334   1.705  12.124  14.405
74813SOL     OW26335   6.639  10.368  14.728
74813SOL    HW126336   6.580  10.348  14.656
74813SOL    HW226337   6.589  10.348  14.807
74814SOL     OW26338  11.382  11.441   2.800
74814SOL    HW126339  11.340  11.417   2.718
74814SOL    HW226340  11.321  11.411   2.868
74815SOL     OW26341  12.060   3.141   3.067
74815SOL    HW126342  11.977   3.107   3.099
74815SOL    HW226343  12.049   3.236   3.067
74816SOL     OW26344   2.430  10.129   9.637
74816SOL    HW126345   2.455  10.038   9.654
74816SOL    HW226346   2.509  10.180   9.658
74817SOL     OW26347   6.573  14.398  12.149
74817SOL    HW126348   6.641  14.461  12.123
74817SOL    HW226349   6.492  14.448  12.148
74818SOL     OW26350   5.658   7.903   9.399
74818SOL    HW126351   5.687   7.976   9.344
74818SOL    HW226352   5.728   7.838   9.391
74819SOL     OW26353  10.865  12.728  11.884
74819SOL    HW126354  10.793  12.729  11.821
74819SOL    HW226355  10.901  12.817  11.881
74820SOL     OW26356   6.995   8.464  11.964
74820SOL    HW126357   6.952   8.463  11.879
74820SOL    HW226358   7.088   8.464  11.944
74821SOL     OW26359   7.475   7.783  13.049
74821SOL    HW126360   7.440   7.708  13.099
74821SOL    HW226361   7.431   7.778  12.964
74822SOL     OW26362  12.769   5.761   7.588
74822SOL    HW126363  12.749   5.712   7.508
74822SOL    HW226364  12.754   5.697   7.658
74823SOL     OW26365   5.855  10.863   6.536
74823SOL    HW126366   5.818  10.898   6.455
74823SOL    HW226367   5.908  10.788   6.508
74824SOL     OW26368   3.642  14.812  10.693
74824SOL    HW126369   3.623   0.027  10.652
74824SOL    HW226370   3.697  14.767  10.629
74825SOL     OW26371  13.579   9.877   2.807
74825SOL    HW126372  13.565   9.794   2.855
74825SOL    HW226373  13.510   9.878   2.741
74826SOL     OW26374  14.294   1.450   8.449
74826SOL    HW126375  14.330   1.431   8.536
74826SOL    HW226376  14.332   1.535   8.426
74827SOL     OW26377   3.809  10.250   2.339
74827SOL    HW126378   3.813  10.323   2.400
74827SOL    HW226379   3.739  10.194   2.373
74828SOL     OW26380   3.810   6.791   6.146
74828SOL    HW126381   3.896   6.832   6.132
74828SOL    HW226382   3.749   6.846   6.097
74829SOL     OW26383   0.425   3.763   0.918
74829SOL    HW126384   0.380   3.784   0.836
74829SOL    HW226385   0.369   3.799   0.986
74830SOL     OW26386  11.984   8.140   4.040
74830SOL    HW126387  12.045   8.086   3.989
74830SOL    HW226388  11.917   8.166   3.977
74831SOL     OW26389  10.973  10.804  14.184
74831SOL    HW126390  10.890  10.772  14.218
74831SOL    HW226391  10.990  10.748  14.107
74832SOL     OW26392   5.335   7.924   5.947
74832SOL    HW126393   5.386   7.946   5.869
74832SOL    HW226394   5.330   7.828   5.947
74833SOL     OW26395  14.781  12.188  13.846
74833SOL    HW126396  14.751  12.276  13.869
74833SOL    HW226397  14.752  12.133  13.919
74834SOL     OW26398  11.140   7.955   4.585
74834SOL    HW126399  11.169   8.027   4.641
74834SOL    HW226400  11.047   7.945   4.605
74835SOL     OW26401  12.472  13.737   6.176
74835SOL    HW126402  12.411  13.804   6.145
74835SOL    HW226403  12.415  13.668   6.211
74836SOL     OW26404  11.823  13.047   4.971
74836SOL    HW126405  11.892  13.008   5.026
74836SOL    HW226406  11.850  13.026   4.882
74837SOL     OW26407  12.454   8.021   8.004
74837SOL    HW126408  12.416   8.069   7.931
74837SOL    HW226409  12.548   8.041   7.999
74838SOL     OW26410   0.141  12.546  12.908
74838SOL    HW126411   0.098  12.553  12.823
74838SOL    HW226412   0.173  12.455  12.910
74839SOL     OW26413   8.715   2.718   1.068
74839SOL    HW126414   8.751   2.719   0.979
74839SOL    HW226415   8.702   2.811   1.089
74840SOL     OW26416   7.105  10.734   6.768
74840SOL    HW126417   7.078  10.685   6.845
74840SOL    HW226418   7.098  10.671   6.696
74841SOL     OW26419  10.737  14.267   6.150
74841SOL    HW126420  10.719  14.237   6.239
74841SOL    HW226421  10.714  14.360   6.151
74842SOL     OW26422   1.936  12.244   0.330
74842SOL    HW126423   1.848  12.207   0.337
74842SOL    HW226424   1.959  12.267   0.420
74843SOL     OW26425   7.394   8.890   0.282
74843SOL    HW126426   7.373   8.802   0.251
74843SOL    HW226427   7.384   8.946   0.205
74844SOL     OW26428   0.278   8.797  14.488
74844SOL    HW126429   0.305   8.866  14.548
74844SOL    HW226430   0.182   8.798  14.492
74845SOL     OW26431   2.969  13.118   6.509
74845SOL    HW126432   3.016  13.037   6.530
74845SOL    HW226433   2.877  13.096   6.520
74846SOL     OW26434   3.380   7.253   2.851
74846SOL    HW126435   3.321   7.227   2.780
74846SOL    HW226436   3.325   7.251   2.929
74847SOL     OW26437   4.355   9.387   7.232
74847SOL    HW126438   4.362   9.295   7.258
74847SOL    HW226439   4.274   9.417   7.273
74848SOL     OW26440   0.763   8.056   9.451
74848SOL    HW126441   0.774   8.151   9.445
74848SOL    HW226442   0.669   8.042   9.436
74849SOL     OW26443  11.365   6.898   9.934
74849SOL    HW126444  11.431   6.954   9.894
74849SOL    HW226445  11.410   6.854  10.006
74850SOL     OW26446  13.987   5.030   8.940
74850SOL    HW126447  13.996   4.942   8.903
74850SOL    HW226448  14.076   5.054   8.966
74851SOL     OW26449  11.564   4.269   1.590
74851SOL    HW126450  11.652   4.253   1.624
74851SOL    HW226451  11.570   4.247   1.497
74852SOL     OW26452   6.239  13.171   8.173
74852SOL    HW126453   6.235  13.258   8.213
74852SOL    HW226454   6.261  13.187   8.081
74853SOL     OW26455  14.362   7.875   6.231
74853SOL    HW126456  14.276   7.913   6.214
74853SOL    HW226457  14.352   7.827   6.313
74854SOL     OW26458   3.871  13.614   6.597
74854SOL    HW126459   3.900  13.656   6.677
74854SOL    HW226460   3.799  13.557   6.625
74855SOL     OW26461  13.158   5.141   3.205
74855SOL    HW126462  13.155   5.211   3.271
74855SOL    HW226463  13.066   5.120   3.188
74856SOL     OW26464   8.299  13.220   5.371
74856SOL    HW126465   8.233  13.259   5.429
74856SOL    HW226466   8.363  13.290   5.358
74857SOL     OW26467  13.995  12.247   2.310
74857SOL    HW126468  13.930  12.318   2.308
74857SOL    HW226469  13.975  12.199   2.391
74858SOL     OW26470   6.104   8.190   1.958
74858SOL    HW126471   6.160   8.266   1.975
74858SOL    HW226472   6.128   8.127   2.025
74859SOL     OW26473   4.141   9.934   8.018
74859SOL    HW126474   4.099   9.853   7.990
74859SOL    HW226475   4.091   9.962   8.095
74860SOL     OW26476  11.172  13.007   8.317
74860SOL    HW126477  11.122  13.062   8.256
74860SOL    HW226478  11.119  12.927   8.325
74861SOL     OW26479  12.231   2.738   8.961
74861SOL    HW126480  12.322   2.756   8.983
74861SOL    HW226481  12.216   2.648   8.989
74862SOL     OW26482   9.566   2.528   0.306
74862SOL    HW126483   9.515   2.602   0.275
74862SOL    HW226484   9.645   2.568   0.344
74863SOL     OW26485  13.212   5.407  12.880
74863SOL    HW126486  13.256   5.392  12.963
74863SOL    HW226487  13.190   5.319  12.848
74864SOL     OW26488  12.301  13.468  11.267
74864SOL    HW126489  12.373  13.422  11.311
74864SOL    HW226490  12.344  13.535  11.214
74865SOL     OW26491   6.022  10.996   6.178
74865SOL    HW126492   5.958  10.931   6.208
74865SOL    HW226493   6.081  11.007   6.253
74866SOL     OW26494  11.544   2.600   5.223
74866SOL    HW126495  11.624   2.548   5.217
74866SOL    HW226496  11.549   2.660   5.148
74867SOL     OW26497  14.129  12.351   8.455
74867SOL    HW126498  14.104  12.356   8.548
74867SOL    HW226499  14.217  12.388   8.452
74868SOL     OW26500  11.449   1.872   1.642
74868SOL    HW126501  11.371   1.851   1.590
74868SOL    HW226502  11.510   1.910   1.578
74869SOL     OW26503   2.277  10.694   5.721
74869SOL    HW126504   2.332  10.674   5.797
74869SOL    HW226505   2.258  10.609   5.682
74870SOL     OW26506   7.040   1.065   8.644
74870SOL    HW126507   7.008   0.976   8.660
74870SOL    HW226508   7.088   1.088   8.724
74871SOL     OW26509   3.697  13.959   9.912
74871SOL    HW126510   3.666  13.903   9.840
74871SOL    HW226511   3.759  14.018   9.872
74872SOL     OW26512   4.204  14.173   3.382
74872SOL    HW126513   4.113  14.157   3.409
74872SOL    HW226514   4.206  14.146   3.290
74873SOL     OW26515  12.862  11.625   8.294
74873SOL    HW126516  12.780  11.578   8.305
74873SOL    HW226517  12.867  11.682   8.371
74874SOL     OW26518   6.982  10.196   9.282
74874SOL    HW126519   7.001  10.271   9.226
74874SOL    HW226520   6.910  10.151   9.238
74875SOL     OW26521  13.453  14.296   4.373
74875SOL    HW126522  13.529  14.304   4.431
74875SOL    HW226523  13.412  14.383   4.375
74876SOL     OW26524   5.555   7.312  11.984
74876SOL    HW126525   5.583   7.385  11.930
74876SOL    HW226526   5.574   7.340  12.074
74877SOL     OW26527   3.285   7.173   7.347
74877SOL    HW126528   3.368   7.132   7.371
74877SOL    HW226529   3.293   7.263   7.378
74878SOL     OW26530   3.971  11.517   7.049
74878SOL    HW126531   4.046  11.561   7.090
74878SOL    HW226532   3.895  11.562   7.085
74879SOL     OW26533   4.178  10.772   0.650
74879SOL    HW126534   4.260  10.737   0.685
74879SOL    HW226535   4.116  10.699   0.658
74880SOL     OW26536   6.013   5.219   6.527
74880SOL    HW126537   6.012   5.305   6.485
74880SOL    HW226538   5.973   5.161   6.463
74881SOL     OW26539   0.951   6.339   9.938
74881SOL    HW126540   1.037   6.316   9.903
74881SOL    HW226541   0.959   6.431   9.964
74882SOL     OW26542  11.748   5.124   6.782
74882SOL    HW126543  11.676   5.150   6.724
74882SOL    HW226544  11.821   5.180   6.756
74883SOL     OW26545  12.224  13.819   8.173
74883SOL    HW126546  12.301  13.876   8.173
74883SOL    HW226547  12.151  13.878   8.152
74884SOL     OW26548  11.597  14.599   5.375
74884SOL    HW126549  11.657  14.584   5.302
74884SOL    HW226550  11.631  14.676   5.419
74885SOL     OW26551  12.149  14.672   6.201
74885SOL    HW126552  12.065  14.694   6.161
74885SOL    HW226553  12.156  14.577   6.192
74886SOL     OW26554   1.930   3.380   2.117
74886SOL    HW126555   2.013   3.336   2.102
74886SOL    HW226556   1.953   3.464   2.158
74887SOL     OW26557   4.786   5.860   4.037
74887SOL    HW126558   4.772   5.770   4.009
74887SOL    HW226559   4.776   5.912   3.956
74888SOL     OW26560   8.279   0.877   6.327
74888SOL    HW126561   8.272   0.970   6.351
74888SOL    HW226562   8.356   0.873   6.270
74889SOL     OW26563   4.583   0.752   7.944
74889SOL    HW126564   4.673   0.764   7.914
74889SOL    HW226565   4.582   0.787   8.033
74890SOL     OW26566   4.132   1.963  10.182
74890SOL    HW126567   4.224   1.984  10.166
74890SOL    HW226568   4.083   2.032  10.138
74891SOL     OW26569   4.474   0.555   4.353
74891SOL    HW126570   4.445   0.552   4.262
74891SOL    HW226571   4.546   0.492   4.358
74892SOL     OW26572   5.352  13.546   4.077
74892SOL    HW126573   5.323  13.637   4.076
74892SOL    HW226574   5.365  13.524   3.984
74893SOL     OW26575   7.161   2.840   2.916
74893SOL    HW126576   7.247   2.799   2.920
74893SOL    HW226577   7.155   2.873   2.826
74894SOL     OW26578   3.107   3.365   3.022
74894SOL    HW126579   3.099   3.288   2.966
74894SOL    HW226580   3.105   3.330   3.111
74895SOL     OW26581   0.079   0.531   9.208
74895SOL    HW126582   0.082   0.435   9.215
74895SOL    HW226583   0.079   0.548   9.114
74896SOL     OW26584   8.461   8.894   6.266
74896SOL    HW126585   8.532   8.950   6.235
74896SOL    HW226586   8.389   8.954   6.283
74897SOL     OW26587   0.436   0.949  10.146
74897SOL    HW126588   0.371   0.969  10.079
74897SOL    HW226589   0.391   0.891  10.207
74898SOL     OW26590   7.246  10.094   1.336
74898SOL    HW126591   7.257   9.998   1.335
74898SOL    HW226592   7.164  10.108   1.384
74899SOL     OW26593  10.799  11.918   5.612
74899SOL    HW126594  10.796  11.854   5.683
74899SOL    HW226595  10.813  11.866   5.533
74900SOL     OW26596   2.346   6.872   9.839
74900SOL    HW126597   2.290   6.794   9.849
74900SOL    HW226598   2.422   6.840   9.791
74901SOL     OW26599  14.193  13.978   7.622
74901SOL    HW126600  14.221  14.066   7.646
74901SOL    HW226601  14.272  13.936   7.587
74902SOL     OW26602  13.964   4.026   1.574
74902SOL    HW126603  13.997   4.113   1.598
74902SOL    HW226604  13.917   4.041   1.492
74903SOL     OW26605   7.852   2.191   5.844
74903SOL    HW126606   7.774   2.152   5.883
74903SOL    HW226607   7.921   2.177   5.909
74904SOL     OW26608  11.934   7.371   9.626
74904SOL    HW126609  11.989   7.402   9.554
74904SOL    HW226610  11.844   7.387   9.597
74905SOL     OW26611  10.276   4.812   5.628
74905SOL    HW126612  10.190   4.853   5.638
74905SOL    HW226613  10.338   4.884   5.639
74906SOL     OW26614   9.960  13.121  11.181
74906SOL    HW126615   9.947  13.044  11.126
74906SOL    HW226616   9.884  13.121  11.239
74907SOL     OW26617   4.962  11.909   6.158
74907SOL    HW126618   4.914  11.859   6.224
74907SOL    HW226619   5.053  11.905   6.186
74908SOL     OW26620  14.711   8.393   5.557
74908SOL    HW126621  14.639   8.442   5.516
74908SOL    HW226622  14.693   8.397   5.651
74909SOL     OW26623   4.848   1.192   8.042
74909SOL    HW126624   4.905   1.233   7.977
74909SOL    HW226625   4.877   1.101   8.046
74910SOL     OW26626  14.864  12.869   7.788
74910SOL    HW126627   0.034  12.940   7.839
74910SOL    HW226628  14.770  12.889   7.790
74911SOL     OW26629   6.028   6.775   7.201
74911SOL    HW126630   5.937   6.752   7.222
74911SOL    HW226631   6.071   6.782   7.286
74912SOL     OW26632  13.312   6.366   3.235
74912SOL    HW126633  13.250   6.340   3.167
74912SOL    HW226634  13.346   6.450   3.205
74913SOL     OW26635   0.739  11.720   8.164
74913SOL    HW126636   0.718  11.799   8.214
74913SOL    HW226637   0.827  11.696   8.193
74914SOL     OW26638  10.196   5.227   3.262
74914SOL    HW126639  10.229   5.204   3.349
74914SOL    HW226640  10.232   5.159   3.205
74915SOL     OW26641   7.209  12.094   5.832
74915SOL    HW126642   7.150  12.157   5.791
74915SOL    HW226643   7.186  12.010   5.792
74916SOL     OW26644  14.583  11.628   3.935
74916SOL    HW126645  14.519  11.689   3.971
74916SOL    HW226646  14.666  11.677   3.935
74917SOL     OW26647   9.829  13.784   8.423
74917SOL    HW126648   9.776  13.770   8.345
74917SOL    HW226649   9.814  13.876   8.446
74918SOL     OW26650  12.602   4.586   1.663
74918SOL    HW126651  12.608   4.541   1.747
74918SOL    HW226652  12.547   4.529   1.609
74919SOL     OW26653   7.704   6.997  12.277
74919SOL    HW126654   7.628   7.008  12.333
74919SOL    HW226655   7.733   7.086  12.257
74920SOL     OW26656   0.322  11.304   7.968
74920SOL    HW126657   0.324  11.280   7.875
74920SOL    HW226658   0.410  11.284   8.000
74921SOL     OW26659   2.911  11.733  11.494
74921SOL    HW126660   2.967  11.718  11.418
74921SOL    HW226661   2.822  11.720  11.461
74922SOL     OW26662   5.419   9.517   6.268
74922SOL    HW126663   5.415   9.481   6.179
74922SOL    HW226664   5.510   9.544   6.279
74923SOL     OW26665   7.699   0.180  11.520
74923SOL    HW126666   7.681   0.190  11.614
74923SOL    HW226667   7.764   0.110  11.516
74924SOL     OW26668   6.738   3.638   3.810
74924SOL    HW126669   6.779   3.552   3.813
74924SOL    HW226670   6.714   3.657   3.900
74925SOL     OW26671   0.374   1.032   8.815
74925SOL    HW126672   0.303   1.091   8.792
74925SOL    HW226673   0.385   1.042   8.910
74926SOL     OW26674   9.589   6.917  10.143
74926SOL    HW126675   9.543   6.978  10.084
74926SOL    HW226676   9.547   6.931  10.228
74927SOL     OW26677   2.847   4.410   0.941
74927SOL    HW126678   2.760   4.374   0.954
74927SOL    HW226679   2.843   4.497   0.979
74928SOL     OW26680  12.332  12.062   1.653
74928SOL    HW126681  12.338  12.053   1.558
74928SOL    HW226682  12.315  12.155   1.667
74929SOL     OW26683   9.208  13.805   9.819
74929SOL    HW126684   9.218  13.880   9.879
74929SOL    HW226685   9.230  13.841   9.733
74930SOL     OW26686  11.747   7.440  12.007
74930SOL    HW126687  11.823   7.382  12.005
74930SOL    HW226688  11.679   7.393  11.960
74931SOL     OW26689   0.192   7.493   8.011
74931SOL    HW126690   0.129   7.433   7.971
74931SOL    HW226691   0.154   7.580   8.000
74932SOL     OW26692   9.836   3.604   6.747
74932SOL    HW126693   9.824   3.579   6.838
74932SOL    HW226694   9.918   3.654   6.746
74933SOL     OW26695   9.202   4.560  14.831
74933SOL    HW126696   9.232   4.641   0.003
74933SOL    HW226697   9.154   4.589  14.754
74934SOL     OW26698   2.929   0.281   3.787
74934SOL    HW126699   2.858   0.248   3.843
74934SOL    HW226700   2.987   0.327   3.847
74935SOL     OW26701   7.718   8.264   9.636
74935SOL    HW126702   7.811   8.277   9.618
74935SOL    HW226703   7.707   8.169   9.637
74936SOL     OW26704   0.585   7.247   7.262
74936SOL    HW126705   0.643   7.190   7.211
74936SOL    HW226706   0.559   7.316   7.201
74937SOL     OW26707  12.491  14.012   5.388
74937SOL    HW126708  12.475  13.924   5.356
74937SOL    HW226709  12.417  14.063   5.356
74938SOL     OW26710   8.711   3.160   2.993
74938SOL    HW126711   8.704   3.085   3.052
74938SOL    HW226712   8.620   3.184   2.974
74939SOL     OW26713   4.498  14.445   8.410
74939SOL    HW126714   4.516  14.515   8.474
74939SOL    HW226715   4.522  14.483   8.326
74940SOL     OW26716  10.677  10.405  14.842
74940SOL    HW126717  10.720  10.491  14.850
74940SOL    HW226718  10.590  10.425  14.808
74941SOL     OW26719   1.244   9.610   9.695
74941SOL    HW126720   1.224   9.653   9.778
74941SOL    HW226721   1.266   9.682   9.636
74942SOL     OW26722   9.808   2.049   6.417
74942SOL    HW126723   9.856   2.038   6.499
74942SOL    HW226724   9.775   2.139   6.420
74943SOL     OW26725  11.805   5.927  10.359
74943SOL    HW126726  11.792   5.891  10.447
74943SOL    HW226727  11.816   6.021  10.372
74944SOL     OW26728  10.142   6.204   9.071
74944SOL    HW126729  10.159   6.196   8.977
74944SOL    HW226730  10.110   6.118   9.097
74945SOL     OW26731   5.368   8.420   2.135
74945SOL    HW126732   5.318   8.382   2.207
74945SOL    HW226733   5.435   8.355   2.115
74946SOL     OW26734  14.734  12.352   7.809
74946SOL    HW126735  14.667  12.374   7.744
74946SOL    HW226736  14.684  12.332   7.888
74947SOL     OW26737   4.608   8.618   5.399
74947SOL    HW126738   4.558   8.689   5.358
74947SOL    HW226739   4.551   8.541   5.391
74948SOL     OW26740  12.635  13.467   6.953
74948SOL    HW126741  12.669  13.489   6.867
74948SOL    HW226742  12.705  13.416   6.994
74949SOL     OW26743   6.835  12.162  12.825
74949SOL    HW126744   6.918  12.189  12.864
74949SOL    HW226745   6.819  12.227  12.756
74950SOL     OW26746  10.134  10.877  14.165
74950SOL    HW126747  10.096  10.911  14.084
74950SOL    HW226748  10.222  10.914  14.167
74951SOL     OW26749   6.031   5.605   1.502
74951SOL    HW126750   5.952   5.559   1.532
74951SOL    HW226751   6.043   5.675   1.566
74952SOL     OW26752   2.846   4.730   6.051
74952SOL    HW126753   2.769   4.737   6.106
74952SOL    HW226754   2.822   4.666   5.984
74953SOL     OW26755   4.443   0.581   7.770
74953SOL    HW126756   4.409   0.536   7.847
74953SOL    HW226757   4.509   0.641   7.804
74954SOL     OW26758   3.120   1.071   2.596
74954SOL    HW126759   3.199   1.019   2.582
74954SOL    HW226760   3.130   1.107   2.684
74955SOL     OW26761   1.256  11.432   7.123
74955SOL    HW126762   1.266  11.521   7.091
74955SOL    HW226763   1.328  11.383   7.082
74956SOL     OW26764   1.092  10.650   8.065
74956SOL    HW126765   1.001  10.630   8.087
74956SOL    HW226766   1.129  10.687   8.145
74957SOL     OW26767   7.071   2.375  14.116
74957SOL    HW126768   7.075   2.309  14.047
74957SOL    HW226769   6.993   2.427  14.095
74958SOL     OW26770   5.199   3.368   8.944
74958SOL    HW126771   5.174   3.461   8.945
74958SOL    HW226772   5.138   3.327   9.004
74959SOL     OW26773   6.484   1.355   7.585
74959SOL    HW126774   6.475   1.260   7.573
74959SOL    HW226775   6.566   1.377   7.541
74960SOL     OW26776   0.512  11.261  12.448
74960SOL    HW126777   0.606  11.251  12.432
74960SOL    HW226778   0.496  11.214  12.530
74961SOL     OW26779   6.696   8.221   0.026
74961SOL    HW126780   6.682   8.275   0.104
74961SOL    HW226781   6.628   8.154   0.030
74962SOL     OW26782   4.192   5.180  12.089
74962SOL    HW126783   4.287   5.182  12.098
74962SOL    HW226784   4.159   5.161  12.177
74963SOL     OW26785  14.631   1.192   7.423
74963SOL    HW126786  14.577   1.114   7.426
74963SOL    HW226787  14.573   1.261   7.392
74964SOL     OW26788   9.473   3.594   5.321
74964SOL    HW126789   9.464   3.503   5.348
74964SOL    HW226790   9.564   3.617   5.339
74965SOL     OW26791   6.366   1.967  12.663
74965SOL    HW126792   6.398   2.057  12.660
74965SOL    HW226793   6.270   1.976  12.666
74966SOL     OW26794   7.543  13.297   2.968
74966SOL    HW126795   7.623  13.267   2.924
74966SOL    HW226796   7.504  13.360   2.906
74967SOL     OW26797  12.737  13.651  13.180
74967SOL    HW126798  12.757  13.703  13.257
74967SOL    HW226799  12.687  13.577  13.213
74968SOL     OW26800   4.694   2.217   4.557
74968SOL    HW126801   4.756   2.161   4.510
74968SOL    HW226802   4.708   2.195   4.649
74969SOL     OW26803   6.606   1.573  12.411
74969SOL    HW126804   6.514   1.587  12.435
74969SOL    HW226805   6.602   1.550  12.318
74970SOL     OW26806   2.327  12.241   6.450
74970SOL    HW126807   2.249  12.278   6.492
74970SOL    HW226808   2.390  12.230   6.520
74971SOL     OW26809  13.748   9.565  12.414
74971SOL    HW126810  13.746   9.514  12.495
74971SOL    HW226811  13.772   9.501  12.346
74972SOL     OW26812  11.539   1.827   4.427
74972SOL    HW126813  11.552   1.913   4.466
74972SOL    HW226814  11.620   1.780   4.443
74973SOL     OW26815   9.568   4.588   2.859
74973SOL    HW126816   9.593   4.637   2.938
74973SOL    HW226817   9.651   4.552   2.827
74974SOL     OW26818   1.841  10.406  11.359
74974SOL    HW126819   1.819  10.499  11.360
74974SOL    HW226820   1.880  10.389  11.445
74975SOL     OW26821   7.037   1.082   2.629
74975SOL    HW126822   6.958   1.135   2.617
74975SOL    HW226823   7.042   1.026   2.551
74976SOL     OW26824  11.938  12.625   0.830
74976SOL    HW126825  12.007  12.673   0.784
74976SOL    HW226826  11.904  12.687   0.894
74977SOL     OW26827   4.542  12.307   8.356
74977SOL    HW126828   4.534  12.391   8.401
74977SOL    HW226829   4.588  12.251   8.419
74978SOL     OW26830   5.060   1.693   4.102
74978SOL    HW126831   5.001   1.643   4.159
74978SOL    HW226832   5.092   1.628   4.039
74979SOL     OW26833   0.234  14.670   1.400
74979SOL    HW126834   0.207  14.628   1.318
74979SOL    HW226835   0.260  14.759   1.374
74980SOL     OW26836  12.386   4.906   4.830
74980SOL    HW126837  12.453   4.973   4.844
74980SOL    HW226838  12.434   4.823   4.833
74981SOL     OW26839  12.453  12.040   7.329
74981SOL    HW126840  12.462  12.129   7.296
74981SOL    HW226841  12.536  11.997   7.305
74982SOL     OW26842   2.768   8.777   0.017
74982SOL    HW126843   2.855   8.780  14.846
74982SOL    HW226844   2.759   8.862   0.060
74983SOL     OW26845   1.783  11.365  13.373
74983SOL    HW126846   1.868  11.375  13.331
74983SOL    HW226847   1.724  11.338  13.303
74984SOL     OW26848   8.087   0.505   3.590
74984SOL    HW126849   8.111   0.493   3.682
74984SOL    HW226850   8.130   0.432   3.545
74985SOL     OW26851   6.959   3.897   7.855
74985SOL    HW126852   7.047   3.928   7.833
74985SOL    HW226853   6.957   3.807   7.824
74986SOL     OW26854   7.209  13.402   6.761
74986SOL    HW126855   7.212  13.475   6.699
74986SOL    HW226856   7.117  13.394   6.785
74987SOL     OW26857   8.896  14.050  12.829
74987SOL    HW126858   8.811  14.049  12.873
74987SOL    HW226859   8.956  14.010  12.891
74988SOL     OW26860   9.288   7.194   1.680
74988SOL    HW126861   9.291   7.147   1.597
74988SOL    HW226862   9.370   7.242   1.684
74989SOL     OW26863  14.324   5.136  12.822
74989SOL    HW126864  14.299   5.051  12.857
74989SOL    HW226865  14.307   5.130  12.728
74990SOL     OW26866   1.221   2.460   7.028
74990SOL    HW126867   1.188   2.372   7.009
74990SOL    HW226868   1.289   2.475   6.962
74991SOL     OW26869  14.350  11.354   7.000
74991SOL    HW126870  14.314  11.266   7.008
74991SOL    HW226871  14.412  11.362   7.072
74992SOL     OW26872   7.618   8.853  14.622
74992SOL    HW126873   7.587   8.763  14.633
74992SOL    HW226874   7.630   8.862  14.527
74993SOL     OW26875   3.862   0.350   6.388
74993SOL    HW126876   3.820   0.348   6.475
74993SOL    HW226877   3.942   0.400   6.401
74994SOL     OW26878   4.520   3.276  14.215
74994SOL    HW126879   4.607   3.283  14.175
74994SOL    HW226880   4.524   3.334  14.292
74995SOL     OW26881   2.244   2.539  14.628
74995SOL    HW126882   2.311   2.526  14.561
74995SOL    HW226883   2.288   2.519  14.710
74996SOL     OW26884  10.828   9.910  11.058
74996SOL    HW126885  10.867   9.823  11.047
74996SOL    HW226886  10.855   9.938  11.145
74997SOL     OW26887   7.294  14.660   5.213
74997SOL    HW126888   7.272  14.664   5.120
74997SOL    HW226889   7.251  14.736   5.251
74998SOL     OW26890   9.316  14.393   9.516
74998SOL    HW126891   9.308  14.488   9.510
74998SOL    HW226892   9.322  14.375   9.610
74999SOL     OW26893  11.494   3.072   2.821
74999SOL    HW126894  11.482   3.104   2.910
74999SOL    HW226895  11.405   3.063   2.787
75000SOL     OW26896   2.416   8.396   5.738
75000SOL    HW126897   2.490   8.442   5.699
75000SOL    HW226898   2.344   8.459   5.734
75001SOL     OW26899   3.539   7.047   2.477
75001SOL    HW126900   3.455   7.038   2.432
75001SOL    HW226901   3.575   7.130   2.444
75002SOL     OW26902   4.552   2.231   3.230
75002SOL    HW126903   4.499   2.268   3.160
75002SOL    HW226904   4.640   2.226   3.194
75003SOL     OW26905  12.544   2.955   4.853
75003SOL    HW126906  12.595   2.885   4.811
75003SOL    HW226907  12.474   2.909   4.899
75004SOL     OW26908  13.598  13.167   9.486
75004SOL    HW126909  13.556  13.227   9.424
75004SOL    HW226910  13.613  13.087   9.436
75005SOL     OW26911   9.256   0.166   4.304
75005SOL    HW126912   9.198   0.154   4.378
75005SOL    HW226913   9.205   0.139   4.228
75006SOL     OW26914  12.964  10.958   0.198
75006SOL    HW126915  12.920  11.037   0.166
75006SOL    HW226916  12.893  10.895   0.211
75007SOL     OW26917   8.664  10.198   5.084
75007SOL    HW126918   8.676  10.293   5.078
75007SOL    HW226919   8.645  10.182   5.176
75008SOL     OW26920   7.589  12.647   7.628
75008SOL    HW126921   7.578  12.568   7.574
75008SOL    HW226922   7.651  12.620   7.696
75009SOL     OW26923   1.451   1.040   1.244
75009SOL    HW126924   1.357   1.044   1.265
75009SOL    HW226925   1.456   1.061   1.151
75010SOL     OW26926  10.179   7.192  12.029
75010SOL    HW126927  10.113   7.146  12.080
75010SOL    HW226928  10.256   7.195  12.086
75011SOL     OW26929  13.016  12.934   7.647
75011SOL    HW126930  12.930  12.974   7.634
75011SOL    HW226931  12.997  12.846   7.679
75012SOL     OW26932  14.611   2.988  10.831
75012SOL    HW126933  14.570   2.916  10.782
75012SOL    HW226934  14.611   3.061  10.770
75013SOL     OW26935  12.477   8.207   8.498
75013SOL    HW126936  12.513   8.134   8.548
75013SOL    HW226937  12.499   8.187   8.407
75014SOL     OW26938  13.794  14.194   6.190
75014SOL    HW126939  13.797  14.242   6.273
75014SOL    HW226940  13.882  14.207   6.153
75015SOL     OW26941   6.055   1.904  12.292
75015SOL    HW126942   6.064   1.939  12.203
75015SOL    HW226943   5.998   1.828  12.282
75016SOL     OW26944   2.807   2.130  12.387
75016SOL    HW126945   2.730   2.151  12.438
75016SOL    HW226946   2.827   2.211  12.339
75017SOL     OW26947  10.580   1.778  14.502
75017SOL    HW126948  10.604   1.816  14.417
75017SOL    HW226949  10.597   1.685  14.492
75018SOL     OW26950   5.616   0.569   9.713
75018SOL    HW126951   5.553   0.627   9.671
75018SOL    HW226952   5.589   0.567   9.805
75019SOL     OW26953   6.297   9.077   1.329
75019SOL    HW126954   6.287   9.034   1.414
75019SOL    HW226955   6.334   9.163   1.351
75020SOL     OW26956   5.058  14.637   1.819
75020SOL    HW126957   5.148  14.650   1.789
75020SOL    HW226958   5.046  14.701   1.890
75021SOL     OW26959   3.764  13.917   4.574
75021SOL    HW126960   3.751  13.891   4.483
75021SOL    HW226961   3.729  13.843   4.625
75022SOL     OW26962  14.124  10.137   8.377
75022SOL    HW126963  14.058  10.190   8.423
75022SOL    HW226964  14.207  10.182   8.394
75023SOL     OW26965   3.891  12.425   4.229
75023SOL    HW126966   3.972  12.379   4.207
75023SOL    HW226967   3.843  12.429   4.146
75024SOL     OW26968   1.845  11.200   7.244
75024SOL    HW126969   1.800  11.275   7.205
75024SOL    HW226970   1.806  11.124   7.201
75025SOL     OW26971   3.368   2.844  10.176
75025SOL    HW126972   3.334   2.797  10.251
75025SOL    HW226973   3.305   2.915  10.161
75026SOL     OW26974   6.997   7.280  13.709
75026SOL    HW126975   7.085   7.286  13.746
75026SOL    HW226976   7.010   7.246  13.620
75027SOL     OW26977   9.323  13.679  11.229
75027SOL    HW126978   9.303  13.714  11.142
75027SOL    HW226979   9.308  13.752  11.289
75028SOL     OW26980  14.133  13.073   2.495
75028SOL    HW126981  14.132  13.166   2.473
75028SOL    HW226982  14.086  13.031   2.423
75029SOL     OW26983  11.292   7.538   5.037
75029SOL    HW126984  11.382   7.510   5.022
75029SOL    HW226985  11.293   7.580   5.123
75030SOL     OW26986  13.352  12.127   8.275
75030SOL    HW126987  13.334  12.210   8.320
75030SOL    HW226988  13.447  12.128   8.260
75031SOL     OW26989  11.098  12.271   3.903
75031SOL    HW126990  11.019  12.305   3.945
75031SOL    HW226991  11.098  12.178   3.923
75032SOL     OW26992   6.213  13.128   9.765
75032SOL    HW126993   6.291  13.079   9.791
75032SOL    HW226994   6.245  13.216   9.747
75033SOL     OW26995   8.588   2.643   5.423
75033SOL    HW126996   8.604   2.560   5.378
75033SOL    HW226997   8.531   2.620   5.497
75034SOL     OW26998   9.517   2.105   0.972
75034SOL    HW126999   9.579   2.063   0.911
75034SOL    HW227000   9.531   2.059   1.055
75035SOL     OW27001  11.310   0.358   3.169
75035SOL    HW127002  11.304   0.453   3.174
75035SOL    HW227003  11.402   0.340   3.147
75036SOL     OW27004  13.989   4.096   5.909
75036SOL    HW127005  14.060   4.047   5.950
75036SOL    HW227006  14.019   4.109   5.819
75037SOL     OW27007   2.981   1.341   7.571
75037SOL    HW127008   2.999   1.392   7.650
75037SOL    HW227009   3.042   1.375   7.506
75038SOL     OW27010  13.133   5.198  11.513
75038SOL    HW127011  13.108   5.287  11.538
75038SOL    HW227012  13.087   5.181  11.431
75039SOL     OW27013  11.278  12.489  10.636
75039SOL    HW127014  11.216  12.493  10.563
75039SOL    HW227015  11.280  12.397  10.661
75040SOL     OW27016   4.796   1.022   4.499
75040SOL    HW127017   4.728   0.975   4.547
75040SOL    HW227018   4.793   1.111   4.534
75041SOL     OW27019   6.219  12.510   0.912
75041SOL    HW127020   6.205  12.586   0.857
75041SOL    HW227021   6.314  12.495   0.909
75042SOL     OW27022   9.282   5.073   3.046
75042SOL    HW127023   9.353   5.101   2.988
75042SOL    HW227024   9.264   5.148   3.102
75043SOL     OW27025   3.773   2.151   6.855
75043SOL    HW127026   3.826   2.218   6.811
75043SOL    HW227027   3.760   2.083   6.789
75044SOL     OW27028   4.946   3.407  10.551
75044SOL    HW127029   4.881   3.465  10.512
75044SOL    HW227030   4.898   3.358  10.618
75045SOL     OW27031  14.738   1.421   1.623
75045SOL    HW127032  14.643   1.421   1.613
75045SOL    HW227033  14.767   1.338   1.586
75046SOL     OW27034   1.539   1.575   0.273
75046SOL    HW127035   1.553   1.491   0.230
75046SOL    HW227036   1.484   1.554   0.349
75047SOL     OW27037  13.538   6.123  12.417
75047SOL    HW127038  13.547   6.177  12.339
75047SOL    HW227039  13.607   6.154  12.476
75048SOL     OW27040   6.828   9.729   8.440
75048SOL    HW127041   6.887   9.758   8.370
75048SOL    HW227042   6.832   9.634   8.437
75049SOL     OW27043   2.482   4.544  14.423
75049SOL    HW127044   2.471   4.473  14.487
75049SOL    HW227045   2.411   4.605  14.443
75050SOL     OW27046   2.978  11.891   6.680
75050SOL    HW127047   2.937  11.952   6.618
75050SOL    HW227048   2.928  11.902   6.761
75051SOL     OW27049  14.645  12.055   7.736
75051SOL    HW127050  14.644  12.040   7.642
75051SOL    HW227051  14.738  12.049   7.760
75052SOL     OW27052   3.601   2.064   5.488
75052SOL    HW127053   3.660   1.989   5.494
75052SOL    HW227054   3.520   2.029   5.452
75053SOL     OW27055   7.702   9.425   1.858
75053SOL    HW127056   7.661   9.424   1.771
75053SOL    HW227057   7.637   9.384   1.915
75054SOL     OW27058   0.864  10.418   9.925
75054SOL    HW127059   0.899  10.421   9.835
75054SOL    HW227060   0.881  10.328   9.954
75055SOL     OW27061  12.802   4.826  14.593
75055SOL    HW127062  12.808   4.850  14.501
75055SOL    HW227063  12.708   4.828  14.612
75056SOL     OW27064   7.517  13.526   2.782
75056SOL    HW127065   7.610  13.535   2.760
75056SOL    HW227066   7.500  13.599   2.842
75057SOL     OW27067   5.852   1.183   9.474
75057SOL    HW127068   5.815   1.165   9.560
75057SOL    HW227069   5.776   1.186   9.415
75058SOL     OW27070   8.736   1.875   3.219
75058SOL    HW127071   8.671   1.916   3.162
75058SOL    HW227072   8.791   1.948   3.249
75059SOL     OW27073   2.009   4.181   7.887
75059SOL    HW127074   2.094   4.144   7.911
75059SOL    HW227075   1.950   4.155   7.958
75060SOL     OW27076   3.292  11.826  12.636
75060SOL    HW127077   3.380  11.860  12.624
75060SOL    HW227078   3.299  11.763  12.708
75061SOL     OW27079  14.148   6.554  10.976
75061SOL    HW127080  14.062   6.541  10.938
75061SOL    HW227081  14.170   6.645  10.954
75062SOL     OW27082   2.294   0.861  14.571
75062SOL    HW127083   2.357   0.825  14.633
75062SOL    HW227084   2.247   0.785  14.537
75063SOL     OW27085   0.196  11.820  11.740
75063SOL    HW127086   0.253  11.882  11.785
75063SOL    HW227087   0.256  11.754  11.705
75064SOL     OW27088   0.505   8.042   9.412
75064SOL    HW127089   0.444   8.048   9.486
75064SOL    HW227090   0.460   8.087   9.340
75065SOL     OW27091  11.932   8.185   9.806
75065SOL    HW127092  12.008   8.211   9.857
75065SOL    HW227093  11.859   8.235   9.843
75066SOL     OW27094   6.856   3.865  11.560
75066SOL    HW127095   6.835   3.845  11.468
75066SOL    HW227096   6.876   3.959  11.559
75067SOL     OW27097   9.053  11.461   4.485
75067SOL    HW127098   8.981  11.524   4.492
75067SOL    HW227099   9.018  11.380   4.522
75068SOL     OW27100   8.682  14.469   8.997
75068SOL    HW127101   8.652  14.521   9.072
75068SOL    HW227102   8.763  14.512   8.969
75069SOL     OW27103   7.951   0.151   9.505
75069SOL    HW127104   7.969   0.100   9.426
75069SOL    HW227105   8.034   0.149   9.553
75070SOL     OW27106  10.495   7.322  11.892
75070SOL    HW127107  10.499   7.226  11.902
75070SOL    HW227108  10.587   7.349  11.887
75071SOL     OW27109  10.067   1.926   2.087
75071SOL    HW127110  10.039   1.834   2.083
75071SOL    HW227111  10.162   1.922   2.090
75072SOL     OW27112   7.086  12.757  12.385
75072SOL    HW127113   7.102  12.851  12.394
75072SOL    HW227114   7.166  12.715  12.417
75073SOL     OW27115   9.578  11.802   6.921
75073SOL    HW127116   9.587  11.809   7.016
75073SOL    HW227117   9.484  11.803   6.906
75074SOL     OW27118  12.479   3.950   3.229
75074SOL    HW127119  12.391   3.915   3.222
75074SOL    HW227120  12.468   4.045   3.220
75075SOL     OW27121   7.901   8.558   1.684
75075SOL    HW127122   7.827   8.587   1.630
75075SOL    HW227123   7.899   8.463   1.678
75076SOL     OW27124   1.347   8.955  10.701
75076SOL    HW127125   1.270   8.937  10.647
75076SOL    HW227126   1.317   8.946  10.791
75077SOL     OW27127   7.186   9.828   1.411
75077SOL    HW127128   7.105   9.851   1.364
75077SOL    HW227129   7.189   9.733   1.409
75078SOL     OW27130   5.677   3.343  10.552
75078SOL    HW127131   5.706   3.351  10.461
75078SOL    HW227132   5.717   3.418  10.596
75079SOL     OW27133  14.087   0.908  14.536
75079SOL    HW127134  14.026   0.979  14.555
75079SOL    HW227135  14.080   0.849  14.612
75080SOL     OW27136  11.424  10.172   6.797
75080SOL    HW127137  11.440  10.241   6.861
75080SOL    HW227138  11.376  10.215   6.727
75081SOL     OW27139   0.840   3.408   0.362
75081SOL    HW127140   0.803   3.493   0.338
75081SOL    HW227141   0.924   3.429   0.402
75082SOL     OW27142   5.297  12.241   2.508
75082SOL    HW127143   5.226  12.276   2.562
75082SOL    HW227144   5.263  12.158   2.476
75083SOL     OW27145   9.408   8.248   4.121
75083SOL    HW127146   9.450   8.176   4.169
75083SOL    HW227147   9.315   8.233   4.133
75084SOL     OW27148   9.605  10.045  13.799
75084SOL    HW127149   9.543  10.114  13.776
75084SOL    HW227150   9.613   9.992  13.720
75085SOL     OW27151  11.655   0.090   1.339
75085SOL    HW127152  11.665   0.170   1.390
75085SOL    HW227153  11.743   0.051   1.339
75086SOL     OW27154   3.452  10.190  13.102
75086SOL    HW127155   3.455  10.286  13.101
75086SOL    HW227156   3.486  10.164  13.016
75087SOL     OW27157   7.176   1.287  13.278
75087SOL    HW127158   7.189   1.380  13.260
75087SOL    HW227159   7.081   1.276  13.278
75088SOL     OW27160   4.770  14.667   9.567
75088SOL    HW127161   4.720  14.743   9.599
75088SOL    HW227162   4.785  14.685   9.474
75089SOL     OW27163  11.800   7.209  10.237
75089SOL    HW127164  11.741   7.138  10.212
75089SOL    HW227165  11.854   7.172  10.308
75090SOL     OW27166   5.619   3.757   7.523
75090SOL    HW127167   5.559   3.778   7.452
75090SOL    HW227168   5.610   3.830   7.584
75091SOL     OW27169   3.927  11.961   1.033
75091SOL    HW127170   3.952  12.042   0.990
75091SOL    HW227171   4.010  11.925   1.065
75092SOL     OW27172   9.800  13.913  10.867
75092SOL    HW127173   9.720  13.899  10.817
75092SOL    HW227174   9.771  13.952  10.949
75093SOL     OW27175   1.641   3.275   4.255
75093SOL    HW127176   1.636   3.189   4.213
75093SOL    HW227177   1.669   3.255   4.345
75094SOL     OW27178  12.296   8.426   5.056
75094SOL    HW127179  12.380   8.396   5.021
75094SOL    HW227180  12.266   8.491   4.994
75095SOL     OW27181   0.437   7.073   5.958
75095SOL    HW127182   0.503   7.015   5.996
75095SOL    HW227183   0.380   7.095   6.032
75096SOL     OW27184  13.115  12.142   5.333
75096SOL    HW127185  13.144  12.172   5.247
75096SOL    HW227186  13.025  12.111   5.319
75097SOL     OW27187   4.991   3.088   4.898
75097SOL    HW127188   5.071   3.085   4.951
75097SOL    HW227189   5.015   3.043   4.817
75098SOL     OW27190   0.173   7.965   9.997
75098SOL    HW127191   0.224   8.019   9.936
75098SOL    HW227192   0.183   7.876   9.963
75099SOL     OW27193   1.393   2.618   3.605
75099SOL    HW127194   1.434   2.554   3.664
75099SOL    HW227195   1.449   2.695   3.611
75100SOL     OW27196   1.796   5.968   3.822
75100SOL    HW127197   1.767   6.028   3.752
75100SOL    HW227198   1.739   5.892   3.812
75101SOL     OW27199   7.673   3.164  13.999
75101SOL    HW127200   7.606   3.182  13.933
75101SOL    HW227201   7.713   3.249  14.016
75102SOL     OW27202  13.468   6.904   2.044
75102SOL    HW127203  13.463   6.811   2.022
75102SOL    HW227204  13.493   6.947   1.962
75103SOL     OW27205   6.189  11.112   0.993
75103SOL    HW127206   6.192  11.089   1.086
75103SOL    HW227207   6.153  11.035   0.950
75104SOL     OW27208   1.999   3.732  12.304
75104SOL    HW127209   2.034   3.757  12.219
75104SOL    HW227210   2.001   3.813  12.355
75105SOL     OW27211   5.818  12.623   9.505
75105SOL    HW127212   5.724  12.642   9.500
75105SOL    HW227213   5.858  12.706   9.532
75106SOL     OW27214  12.256   7.899   6.202
75106SOL    HW127215  12.315   7.851   6.260
75106SOL    HW227216  12.287   7.879   6.114
75107SOL     OW27217  10.573  13.283   0.902
75107SOL    HW127218  10.530  13.197   0.900
75107SOL    HW227219  10.661  13.266   0.936
75108SOL     OW27220   6.124   7.439   0.076
75108SOL    HW127221   6.112   7.436  14.851
75108SOL    HW227222   6.077   7.363   0.109
75109SOL     OW27223   8.146   6.635   2.554
75109SOL    HW127224   8.076   6.658   2.493
75109SOL    HW227225   8.116   6.668   2.639
75110SOL     OW27226   6.956   4.911  10.494
75110SOL    HW127227   6.877   4.927  10.443
75110SOL    HW227228   6.959   4.983  10.557
75111SOL     OW27229   0.680   2.350  14.169
75111SOL    HW127230   0.771   2.339  14.143
75111SOL    HW227231   0.631   2.286  14.117
75112SOL     OW27232   7.264   7.701   0.293
75112SOL    HW127233   7.235   7.611   0.281
75112SOL    HW227234   7.211   7.733   0.367
75113SOL     OW27235   0.811   2.977   5.203
75113SOL    HW127236   0.825   2.994   5.110
75113SOL    HW227237   0.895   2.944   5.234
75114SOL     OW27238  14.444   7.393   8.990
75114SOL    HW127239  14.466   7.422   9.079
75114SOL    HW227240  14.519   7.421   8.937
75115SOL     OW27241   0.155  13.842  11.980
75115SOL    HW127242   0.246  13.867  11.968
75115SOL    HW227243   0.153  13.797  12.064
75116SOL     OW27244  10.999  11.589   2.525
75116SOL    HW127245  11.019  11.626   2.438
75116SOL    HW227246  10.932  11.647   2.561
75117SOL     OW27247   9.205   6.936  11.589
75117SOL    HW127248   9.269   6.898  11.529
75117SOL    HW227249   9.141   6.979  11.532
75118SOL     OW27250   9.521   9.431   9.229
75118SOL    HW127251   9.574   9.383   9.293
75118SOL    HW227252   9.453   9.474   9.281
75119SOL     OW27253  14.353  11.882   5.879
75119SOL    HW127254  14.313  11.967   5.900
75119SOL    HW227255  14.435  11.906   5.835
75120SOL     OW27256   2.175   1.351  12.234
75120SOL    HW127257   2.253   1.361  12.289
75120SOL    HW227258   2.108   1.317  12.294
75121SOL     OW27259  13.220   2.961  11.558
75121SOL    HW127260  13.232   3.011  11.478
75121SOL    HW227261  13.308   2.936  11.585
75122SOL     OW27262   4.284   3.580   8.999
75122SOL    HW127263   4.340   3.572   8.922
75122SOL    HW227264   4.209   3.523   8.981
75123SOL     OW27265   9.656   9.236  12.479
75123SOL    HW127266   9.684   9.303  12.541
75123SOL    HW227267   9.575   9.201  12.516
75124SOL     OW27268   1.356   9.985  10.858
75124SOL    HW127269   1.316  10.052  10.913
75124SOL    HW227270   1.305   9.906  10.875
75125SOL     OW27271   9.719  14.766  14.132
75125SOL    HW127272   9.702  14.850  14.174
75125SOL    HW227273   9.633  14.725  14.125
75126SOL     OW27274   8.663   0.331   1.603
75126SOL    HW127275   8.691   0.414   1.564
75126SOL    HW227276   8.569   0.344   1.620
75127SOL     OW27277   0.173   6.440   9.318
75127SOL    HW127278   0.155   6.350   9.289
75127SOL    HW227279   0.247   6.468   9.264
75128SOL     OW27280  11.591  14.428  10.654
75128SOL    HW127281  11.525  14.460  10.715
75128SOL    HW227282  11.544  14.371  10.594
75129SOL     OW27283  12.664   0.446  13.239
75129SOL    HW127284  12.701   0.415  13.156
75129SOL    HW227285  12.617   0.370  13.274
75130SOL     OW27286   3.119  11.347   2.033
75130SOL    HW127287   3.070  11.306   2.104
75130SOL    HW227288   3.200  11.377   2.074
75131SOL     OW27289   6.124  12.437   0.108
75131SOL    HW127290   6.108  12.508   0.046
75131SOL    HW227291   6.037  12.405   0.131
75132SOL     OW27292   9.809  13.311  13.894
75132SOL    HW127293   9.904  13.300  13.896
75132SOL    HW227294   9.777  13.263  13.970
75133SOL     OW27295   2.692   3.525   9.696
75133SOL    HW127296   2.770   3.578   9.715
75133SOL    HW227297   2.716   3.437   9.723
75134SOL     OW27298   0.562  12.730   9.300
75134SOL    HW127299   0.657  12.740   9.305
75134SOL    HW227300   0.536  12.694   9.385
75135SOL     OW27301   0.942  12.452   8.147
75135SOL    HW127302   0.984  12.411   8.071
75135SOL    HW227303   1.015  12.483   8.201
75136SOL     OW27304   4.391  11.778   6.545
75136SOL    HW127305   4.346  11.772   6.629
75136SOL    HW227306   4.419  11.688   6.526
75137SOL     OW27307  11.025  13.199   2.080
75137SOL    HW127308  11.021  13.289   2.112
75137SOL    HW227309  11.104  13.196   2.026
75138SOL     OW27310   4.240   5.506   9.078
75138SOL    HW127311   4.217   5.515   8.986
75138SOL    HW227312   4.288   5.424   9.084
75139SOL     OW27313   1.343   5.128   9.717
75139SOL    HW127314   1.357   5.144   9.811
75139SOL    HW227315   1.431   5.114   9.682
75140SOL     OW27316   7.203   5.103   2.210
75140SOL    HW127317   7.172   5.048   2.138
75140SOL    HW227318   7.129   5.109   2.270
75141SOL     OW27319   4.245  11.468   8.298
75141SOL    HW127320   4.219  11.540   8.354
75141SOL    HW227321   4.324  11.498   8.254
75142SOL     OW27322  11.150   2.145   5.720
75142SOL    HW127323  11.227   2.159   5.665
75142SOL    HW227324  11.145   2.050   5.730
75143SOL     OW27325   7.630   1.475   5.419
75143SOL    HW127326   7.540   1.458   5.391
75143SOL    HW227327   7.664   1.389   5.443
75144SOL     OW27328   4.769   1.380  11.737
75144SOL    HW127329   4.765   1.447  11.806
75144SOL    HW227330   4.678   1.372  11.706
75145SOL     OW27331   8.837   0.220   7.333
75145SOL    HW127332   8.911   0.229   7.274
75145SOL    HW227333   8.860   0.272   7.410
75146SOL     OW27334   1.109   3.456   6.815
75146SOL    HW127335   1.153   3.423   6.893
75146SOL    HW227336   1.029   3.403   6.809
75147SOL     OW27337  12.585  12.547   3.556
75147SOL    HW127338  12.668  12.591   3.575
75147SOL    HW227339  12.596  12.512   3.467
75148SOL     OW27340   7.243   3.807  14.315
75148SOL    HW127341   7.325   3.848  14.341
75148SOL    HW227342   7.240   3.725  14.365
75149SOL     OW27343  14.408   5.570   7.296
75149SOL    HW127344  14.318   5.589   7.268
75149SOL    HW227345  14.461   5.588   7.219
75150SOL     OW27346  12.713  12.226   0.067
75150SOL    HW127347  12.692  12.198  14.847
75150SOL    HW227348  12.634  12.271   0.097
75151SOL     OW27349  13.519  14.703   5.294
75151SOL    HW127350  13.438  14.664   5.262
75151SOL    HW227351  13.545  14.765   5.226
75152SOL     OW27352   2.295  10.290   0.623
75152SOL    HW127353   2.377  10.241   0.624
75152SOL    HW227354   2.229  10.226   0.594
75153SOL     OW27355   8.296  12.458  11.345
75153SOL    HW127356   8.271  12.526  11.283
75153SOL    HW227357   8.335  12.506  11.418
75154SOL     OW27358   0.680   0.355  11.014
75154SOL    HW127359   0.636   0.374  11.097
75154SOL    HW227360   0.681   0.439  10.968
75155SOL     OW27361   7.147   4.048   2.540
75155SOL    HW127362   7.233   4.049   2.581
75155SOL    HW227363   7.142   3.965   2.494
75156SOL     OW27364   3.001  13.764   6.074
75156SOL    HW127365   3.057  13.840   6.092
75156SOL    HW227366   2.979  13.728   6.160
75157SOL     OW27367  11.566   9.562  14.255
75157SOL    HW127368  11.616   9.622  14.200
75157SOL    HW227369  11.613   9.562  14.339
75158SOL     OW27370   3.527   1.395  10.858
75158SOL    HW127371   3.537   1.375  10.765
75158SOL    HW227372   3.599   1.455  10.877
75159SOL     OW27373  13.551   0.378  11.225
75159SOL    HW127374  13.500   0.408  11.150
75159SOL    HW227375  13.637   0.356  11.188
75160SOL     OW27376  10.123  13.457  10.609
75160SOL    HW127377  10.091  13.512  10.538
75160SOL    HW227378  10.141  13.373  10.568
75161SOL     OW27379   1.270   5.604  12.582
75161SOL    HW127380   1.179   5.574  12.592
75161SOL    HW227381   1.289   5.649  12.664
75162SOL     OW27382   5.293   6.796  13.565
75162SOL    HW127383   5.387   6.804  13.550
75162SOL    HW227384   5.272   6.871  13.620
75163SOL     OW27385   9.143   9.121  10.139
75163SOL    HW127386   9.104   9.063  10.205
75163SOL    HW227387   9.146   9.067  10.060
75164SOL     OW27388   2.597   9.506  12.767
75164SOL    HW127389   2.640   9.425  12.796
75164SOL    HW227390   2.649   9.535  12.692
75165SOL     OW27391   5.063  12.408   9.226
75165SOL    HW127392   5.148  12.429   9.264
75165SOL    HW227393   5.080  12.402   9.132
75166SOL     OW27394   5.575   8.583   2.762
75166SOL    HW127395   5.601   8.640   2.835
75166SOL    HW227396   5.483   8.605   2.746
75167SOL     OW27397  14.786  14.069   0.246
75167SOL    HW127398  14.732  14.110   0.180
75167SOL    HW227399  14.789  13.976   0.221
75168SOL     OW27400   4.698   8.642  10.662
75168SOL    HW127401   4.614   8.610  10.695
75168SOL    HW227402   4.675   8.701  10.590
75169SOL     OW27403   1.756   0.717   4.877
75169SOL    HW127404   1.690   0.658   4.913
75169SOL    HW227405   1.800   0.667   4.809
75170SOL     OW27406   3.701  11.972   0.078
75170SOL    HW127407   3.647  12.051   0.080
75170SOL    HW227408   3.692  11.939  14.858
75171SOL     OW27409   9.882  11.163   4.006
75171SOL    HW127410   9.825  11.196   4.075
75171SOL    HW227411   9.823  11.126   3.940
75172SOL     OW27412   2.373   4.714  12.923
75172SOL    HW127413   2.433   4.704  12.997
75172SOL    HW227414   2.316   4.637  12.928
75173SOL     OW27415  12.477  13.254   6.352
75173SOL    HW127416  12.522  13.170   6.347
75173SOL    HW227417  12.425  13.249   6.433
75174SOL     OW27418   5.251   5.090  14.288
75174SOL    HW127419   5.161   5.059  14.292
75174SOL    HW227420   5.253   5.165  14.348
75175SOL     OW27421   5.394   4.681   4.719
75175SOL    HW127422   5.414   4.771   4.693
75175SOL    HW227423   5.470   4.654   4.770
75176SOL     OW27424  10.864   7.845  12.849
75176SOL    HW127425  10.891   7.847  12.941
75176SOL    HW227426  10.793   7.909  12.843
75177SOL     OW27427  10.386  14.766  12.276
75177SOL    HW127428  10.316  14.787  12.338
75177SOL    HW227429  10.373  14.674  12.256
75178SOL     OW27430   0.526  14.477   4.879
75178SOL    HW127431   0.432  14.493   4.872
75178SOL    HW227432   0.552  14.449   4.791
75179SOL     OW27433   2.361   5.276   9.408
75179SOL    HW127434   2.372   5.329   9.487
75179SOL    HW227435   2.409   5.195   9.426
75180SOL     OW27436   1.052   5.950   8.407
75180SOL    HW127437   1.105   5.992   8.476
75180SOL    HW227438   1.047   6.016   8.338
75181SOL     OW27439   3.753   2.931  14.104
75181SOL    HW127440   3.804   2.873  14.047
75181SOL    HW227441   3.758   3.017  14.061
75182SOL     OW27442  14.285   6.648   9.446
75182SOL    HW127443  14.327   6.734   9.455
75182SOL    HW227444  14.191   6.668   9.442
75183SOL     OW27445   9.320   7.362  13.600
75183SOL    HW127446   9.268   7.362  13.519
75183SOL    HW227447   9.348   7.453  13.610
75184SOL     OW27448   1.246   1.719   9.352
75184SOL    HW127449   1.316   1.657   9.331
75184SOL    HW227450   1.291   1.802   9.368
75185SOL     OW27451   6.161   1.612   9.704
75185SOL    HW127452   6.174   1.677   9.773
75185SOL    HW227453   6.070   1.583   9.714
75186SOL     OW27454  11.938   2.127  11.846
75186SOL    HW127455  11.919   2.033  11.853
75186SOL    HW227456  11.854   2.169  11.866
75187SOL     OW27457  10.324   1.809   0.736
75187SOL    HW127458  10.229   1.800   0.733
75187SOL    HW227459  10.350   1.822   0.645
75188SOL     OW27460   0.053  14.806   9.383
75188SOL    HW127461   0.138  14.776   9.351
75188SOL    HW227462  14.868  14.811   9.304
75189SOL     OW27463   0.286   3.883  11.722
75189SOL    HW127464   0.242   3.885  11.637
75189SOL    HW227465   0.374   3.917  11.704
75190SOL     OW27466  10.013   1.348   5.777
75190SOL    HW127467  10.107   1.368   5.785
75190SOL    HW227468   9.971   1.434   5.770
75191SOL     OW27469  14.597   7.651  13.998
75191SOL    HW127470  14.553   7.649  14.083
75191SOL    HW227471  14.690   7.656  14.020
75192SOL     OW27472   4.557   1.348   1.259
75192SOL    HW127473   4.550   1.286   1.186
75192SOL    HW227474   4.644   1.385   1.252
75193SOL     OW27475  11.658   5.327   0.791
75193SOL    HW127476  11.741   5.373   0.776
75193SOL    HW227477  11.597   5.395   0.819
75194SOL     OW27478   1.758   4.931  14.754
75194SOL    HW127479   1.737   4.880  14.676
75194SOL    HW227480   1.686   4.913  14.815
75195SOL     OW27481  14.463  12.317   2.364
75195SOL    HW127482  14.547  12.312   2.408
75195SOL    HW227483  14.429  12.227   2.366
75196SOL     OW27484   5.727   5.655  10.767
75196SOL    HW127485   5.812   5.689  10.739
75196SOL    HW227486   5.665   5.723  10.740
75197SOL     OW27487  10.746   4.734  14.456
75197SOL    HW127488  10.704   4.652  14.479
75197SOL    HW227489  10.827   4.708  14.413
75198SOL     OW27490  10.367  11.825   0.154
75198SOL    HW127491  10.408  11.765   0.092
75198SOL    HW227492  10.274  11.803   0.151
75199SOL     OW27493   3.462   2.707   4.137
75199SOL    HW127494   3.399   2.748   4.197
75199SOL    HW227495   3.466   2.766   4.062
75200SOL     OW27496   8.629   2.155  10.309
75200SOL    HW127497   8.632   2.245  10.276
75200SOL    HW227498   8.616   2.164  10.403
75201SOL     OW27499   3.301   5.371  12.104
75201SOL    HW127500   3.383   5.339  12.067
75201SOL    HW227501   3.249   5.292  12.119
75202SOL     OW27502  12.149   5.937   9.348
75202SOL    HW127503  12.161   5.846   9.377
75202SOL    HW227504  12.218   5.985   9.392
75203SOL     OW27505  14.625  10.842  10.879
75203SOL    HW127506  14.599  10.760  10.921
75203SOL    HW227507  14.549  10.868  10.828
75204SOL     OW27508  11.560   0.664  11.134
75204SOL    HW127509  11.599   0.581  11.106
75204SOL    HW227510  11.486   0.676  11.075
75205SOL     OW27511  10.481   2.626   0.835
75205SOL    HW127512  10.523   2.553   0.879
75205SOL    HW227513  10.476   2.600   0.743
75206SOL     OW27514   3.707  12.037   2.283
75206SOL    HW127515   3.623  12.027   2.238
75206SOL    HW227516   3.772  12.032   2.213
75207SOL     OW27517   6.180  12.280  10.920
75207SOL    HW127518   6.098  12.229  10.917
75207SOL    HW227519   6.178  12.323  11.006
75208SOL     OW27520   4.548   7.294  12.019
75208SOL    HW127521   4.466   7.269  11.976
75208SOL    HW227522   4.587   7.359  11.961
75209SOL     OW27523  14.817  12.706   3.722
75209SOL    HW127524  14.755  12.720   3.793
75209SOL    HW227525   0.029  12.746   3.752
75210SOL     OW27526   8.566   6.362  12.806
75210SOL    HW127527   8.585   6.445  12.761
75210SOL    HW227528   8.506   6.386  12.877
75211SOL     OW27529  13.018  13.560   6.151
75211SOL    HW127530  13.024  13.589   6.242
75211SOL    HW227531  12.924  13.547   6.136
75212SOL     OW27532  10.361   0.628  10.972
75212SOL    HW127533  10.401   0.601  10.889
75212SOL    HW227534  10.267   0.614  10.958
75213SOL     OW27535   1.890   7.686   6.204
75213SOL    HW127536   1.983   7.667   6.204
75213SOL    HW227537   1.881   7.761   6.145
75214SOL     OW27538  11.508  12.124   4.676
75214SOL    HW127539  11.442  12.124   4.606
75214SOL    HW227540  11.584  12.083   4.637
75215SOL     OW27541   2.672   3.331  12.116
75215SOL    HW127542   2.609   3.297  12.053
75215SOL    HW227543   2.741   3.369  12.063
75216SOL     OW27544  12.875  10.964  14.706
75216SOL    HW127545  12.849  11.053  14.682
75216SOL    HW227546  12.953  10.976  14.761
75217SOL     OW27547   1.050  12.119   9.676
75217SOL    HW127548   1.005  12.092   9.596
75217SOL    HW227549   1.133  12.156   9.646
75218SOL     OW27550   7.137   5.636   1.902
75218SOL    HW127551   7.135   5.722   1.861
75218SOL    HW227552   7.172   5.577   1.835
75219SOL     OW27553  10.528  12.757   3.397
75219SOL    HW127554  10.577  12.832   3.432
75219SOL    HW227555  10.468  12.732   3.468
75220SOL     OW27556   1.372  11.370   2.933
75220SOL    HW127557   1.340  11.436   2.995
75220SOL    HW227558   1.308  11.370   2.862
75221SOL     OW27559   1.828   7.048   5.338
75221SOL    HW127560   1.915   7.010   5.327
75221SOL    HW227561   1.771   6.995   5.281
75222SOL     OW27562   5.393   4.992   0.030
75222SOL    HW127563   5.351   5.072   0.059
75222SOL    HW227564   5.467   4.981   0.090
75223SOL     OW27565   7.215  11.104   6.945
75223SOL    HW127566   7.264  11.031   6.909
75223SOL    HW227567   7.244  11.180   6.895
75224SOL     OW27568   1.432   6.059   1.519
75224SOL    HW127569   1.411   6.144   1.556
75224SOL    HW227570   1.461   6.078   1.430
75225SOL     OW27571  12.181  13.877   4.943
75225SOL    HW127572  12.276  13.887   4.948
75225SOL    HW227573  12.147  13.934   5.013
75226SOL     OW27574   2.701  12.065   7.626
75226SOL    HW127575   2.700  11.991   7.565
75226SOL    HW227576   2.786  12.106   7.613
75227SOL     OW27577   0.329  12.314  13.602
75227SOL    HW127578   0.368  12.376  13.665
75227SOL    HW227579   0.322  12.232  13.650
75228SOL     OW27580   9.035   1.677   1.805
75228SOL    HW127581   9.040   1.681   1.901
75228SOL    HW227582   9.077   1.758   1.776
75229SOL     OW27583  12.688   8.112   1.202
75229SOL    HW127584  12.596   8.088   1.197
75229SOL    HW227585  12.705   8.163   1.123
75230SOL     OW27586   5.520   0.990   2.021
75230SOL    HW127587   5.533   1.073   1.976
75230SOL    HW227588   5.475   1.013   2.102
75231SOL     OW27589   9.241   7.975   9.329
75231SOL    HW127590   9.206   8.064   9.320
75231SOL    HW227591   9.183   7.933   9.393
75232SOL     OW27592   9.875   4.034   1.283
75232SOL    HW127593   9.869   4.090   1.361
75232SOL    HW227594   9.959   4.057   1.244
75233SOL     OW27595   9.346  13.082  13.047
75233SOL    HW127596   9.263  13.117  13.015
75233SOL    HW227597   9.362  13.129  13.129
75234SOL     OW27598   5.397   7.305   9.027
75234SOL    HW127599   5.335   7.343   9.089
75234SOL    HW227600   5.428   7.225   9.069
75235SOL     OW27601   3.637  13.806   6.495
75235SOL    HW127602   3.657  13.720   6.460
75235SOL    HW227603   3.668  13.867   6.429
75236SOL     OW27604   7.801   0.386  10.145
75236SOL    HW127605   7.814   0.480  10.151
75236SOL    HW227606   7.830   0.351  10.230
75237SOL     OW27607   9.513  10.019   0.304
75237SOL    HW127608   9.491  10.037   0.212
75237SOL    HW227609   9.527   9.924   0.306
75238SOL     OW27610   7.144  11.725  10.330
75238SOL    HW127611   7.202  11.691  10.398
75238SOL    HW227612   7.080  11.656  10.316
75239SOL     OW27613   3.786   2.231   1.302
75239SOL    HW127614   3.726   2.260   1.234
75239SOL    HW227615   3.729   2.193   1.369
75240SOL     OW27616  10.207  12.723   8.307
75240SOL    HW127617  10.175  12.813   8.309
75240SOL    HW227618  10.244  12.709   8.394
75241SOL     OW27619  12.789  12.876   4.912
75241SOL    HW127620  12.763  12.785   4.928
75241SOL    HW227621  12.862  12.890   4.973
75242SOL     OW27622  13.107   5.030   6.948
75242SOL    HW127623  13.016   5.007   6.931
75242SOL    HW227624  13.103   5.113   6.995
75243SOL     OW27625  10.526   6.908   9.349
75243SOL    HW127626  10.481   6.984   9.311
75243SOL    HW227627  10.616   6.938   9.362
75244SOL     OW27628   8.659   5.357   7.442
75244SOL    HW127629   8.696   5.430   7.391
75244SOL    HW227630   8.565   5.363   7.428
75245SOL     OW27631   1.653  10.576  14.791
75245SOL    HW127632   1.605  10.560   0.002
75245SOL    HW227633   1.586  10.597  14.726
75246SOL     OW27634   4.901  12.999   9.970
75246SOL    HW127635   4.966  13.030  10.033
75246SOL    HW227636   4.913  12.904   9.969
75247SOL     OW27637   8.170   2.446   8.818
75247SOL    HW127638   8.120   2.470   8.896
75247SOL    HW227639   8.255   2.488   8.830
75248SOL     OW27640   8.613   8.281   2.570
75248SOL    HW127641   8.590   8.347   2.505
75248SOL    HW227642   8.709   8.282   2.573
75249SOL     OW27643   7.160  11.014   1.599
75249SOL    HW127644   7.073  10.976   1.604
75249SOL    HW227645   7.146  11.108   1.593
75250SOL     OW27646  11.399   4.510   8.926
75250SOL    HW127647  11.476   4.455   8.913
75250SOL    HW227648  11.432   4.600   8.917
75251SOL     OW27649  14.246   4.400  13.347
75251SOL    HW127650  14.257   4.417  13.253
75251SOL    HW227651  14.242   4.487  13.387
75252SOL     OW27652   9.793  10.269  12.736
75252SOL    HW127653   9.739  10.311  12.669
75252SOL    HW227654   9.870  10.325  12.744
75253SOL     OW27655   6.780   4.732  11.768
75253SOL    HW127656   6.762   4.640  11.785
75253SOL    HW227657   6.767   4.775  11.853
75254SOL     OW27658   1.578  11.413   2.387
75254SOL    HW127659   1.507  11.464   2.427
75254SOL    HW227660   1.546  11.393   2.299
75255SOL     OW27661  13.222   5.865   2.840
75255SOL    HW127662  13.157   5.930   2.866
75255SOL    HW227663  13.236   5.881   2.746
75256SOL     OW27664   6.694   2.620  13.120
75256SOL    HW127665   6.782   2.596  13.148
75256SOL    HW227666   6.677   2.563  13.045
75257SOL     OW27667   0.150  10.495   0.486
75257SOL    HW127668   0.072  10.523   0.438
75257SOL    HW227669   0.179  10.416   0.441
75258SOL     OW27670  13.734   6.620   8.888
75258SOL    HW127671  13.780   6.576   8.959
75258SOL    HW227672  13.793   6.611   8.812
75259SOL     OW27673   7.854  14.244   3.617
75259SOL    HW127674   7.777  14.276   3.571
75259SOL    HW227675   7.840  14.267   3.708
75260SOL     OW27676  11.809   1.922   8.484
75260SOL    HW127677  11.779   1.842   8.526
75260SOL    HW227678  11.778   1.992   8.542
75261SOL     OW27679   5.229   9.211  12.833
75261SOL    HW127680   5.205   9.204  12.740
75261SOL    HW227681   5.300   9.275  12.834
75262SOL     OW27682   3.741  12.289  12.502
75262SOL    HW127683   3.706  12.303  12.414
75262SOL    HW227684   3.674  12.327  12.560
75263SOL     OW27685  11.549   5.541   8.390
75263SOL    HW127686  11.517   5.527   8.479
75263SOL    HW227687  11.529   5.633   8.372
75264SOL     OW27688  11.701   7.289  14.415
75264SOL    HW127689  11.657   7.364  14.376
75264SOL    HW227690  11.793   7.298  14.388
75265SOL     OW27691   5.241  12.760   5.897
75265SOL    HW127692   5.176  12.773   5.828
75265SOL    HW227693   5.200  12.797   5.976
75266SOL     OW27694   6.748   3.221   5.751
75266SOL    HW127695   6.815   3.192   5.690
75266SOL    HW227696   6.751   3.157   5.823
75267SOL     OW27697   6.174   6.553   0.928
75267SOL    HW127698   6.121   6.491   0.878
75267SOL    HW227699   6.212   6.502   0.999
75268SOL     OW27700  12.950   5.781  13.659
75268SOL    HW127701  12.884   5.714  13.649
75268SOL    HW227702  12.976   5.778  13.751
75269SOL     OW27703   7.824   8.686   7.690
75269SOL    HW127704   7.736   8.681   7.728
75269SOL    HW227705   7.809   8.673   7.596
75270SOL     OW27706   8.144   0.711   9.061
75270SOL    HW127707   8.091   0.671   9.130
75270SOL    HW227708   8.226   0.662   9.062
75271SOL     OW27709   0.081  12.904   1.012
75271SOL    HW127710   0.001  12.948   1.043
75271SOL    HW227711   0.116  12.861   1.090
75272SOL     OW27712  11.225   6.130   5.693
75272SOL    HW127713  11.277   6.098   5.767
75272SOL    HW227714  11.289   6.170   5.634
75273SOL     OW27715  10.955  14.620   7.033
75273SOL    HW127716  11.000  14.565   7.097
75273SOL    HW227717  11.008  14.700   7.028
75274SOL     OW27718  13.781   7.545  10.120
75274SOL    HW127719  13.816   7.468  10.164
75274SOL    HW227720  13.717   7.511  10.058
75275SOL     OW27721  13.563   6.895  10.660
75275SOL    HW127722  13.484   6.901  10.607
75275SOL    HW227723  13.533   6.912  10.749
75276SOL     OW27724   6.228   2.139   3.374
75276SOL    HW127725   6.300   2.193   3.340
75276SOL    HW227726   6.272   2.065   3.417
75277SOL     OW27727   3.955  10.971   6.271
75277SOL    HW127728   4.020  11.012   6.328
75277SOL    HW227729   3.921  11.044   6.219
75278SOL     OW27730   4.841  10.215   1.563
75278SOL    HW127731   4.869  10.305   1.576
75278SOL    HW227732   4.747  10.220   1.552
75279SOL     OW27733   6.152  13.441   1.897
75279SOL    HW127734   6.225  13.468   1.953
75279SOL    HW227735   6.156  13.501   1.822
75280SOL     OW27736  11.983   2.281   6.375
75280SOL    HW127737  11.962   2.224   6.301
75280SOL    HW227738  11.954   2.232   6.452
75281SOL     OW27739   0.586   9.886  13.431
75281SOL    HW127740   0.521   9.910  13.365
75281SOL    HW227741   0.622   9.803  13.401
75282SOL     OW27742   2.950   4.946   1.101
75282SOL    HW127743   2.964   5.040   1.111
75282SOL    HW227744   2.966   4.909   1.187
75283SOL     OW27745  11.785   7.041   4.392
75283SOL    HW127746  11.857   7.034   4.330
75283SOL    HW227747  11.755   6.951   4.405
75284SOL     OW27748  12.398  12.455   9.111
75284SOL    HW127749  12.476  12.460   9.056
75284SOL    HW227750  12.343  12.528   9.082
75285SOL     OW27751   2.666  13.588  14.479
75285SOL    HW127752   2.640  13.661  14.535
75285SOL    HW227753   2.586  13.535  14.470
75286SOL     OW27754  11.311  10.222  11.104
75286SOL    HW127755  11.271  10.232  11.018
75286SOL    HW227756  11.311  10.128  11.121
75287SOL     OW27757  10.113   3.603   5.804
75287SOL    HW127758  10.145   3.627   5.716
75287SOL    HW227759  10.126   3.682   5.857
75288SOL     OW27760  10.021   1.186  12.969
75288SOL    HW127761  10.006   1.226  13.055
75288SOL    HW227762  10.116   1.177  12.963
75289SOL     OW27763   2.446   6.995  14.737
75289SOL    HW127764   2.402   6.984  14.653
75289SOL    HW227765   2.528   6.946  14.728
75290SOL     OW27766   5.229   3.364  12.520
75290SOL    HW127767   5.284   3.386  12.595
75290SOL    HW227768   5.291   3.334  12.453
75291SOL     OW27769   9.503   4.181   3.238
75291SOL    HW127770   9.411   4.198   3.221
75291SOL    HW227771   9.535   4.141   3.156
75292SOL     OW27772   8.943   5.290   4.577
75292SOL    HW127773   8.877   5.359   4.567
75292SOL    HW227774   8.899   5.210   4.548
75293SOL     OW27775   0.865   8.808   9.401
75293SOL    HW127776   0.954   8.771   9.396
75293SOL    HW227777   0.876   8.899   9.372
75294SOL     OW27778   7.087  10.681   6.481
75294SOL    HW127779   6.999  10.685   6.443
75294SOL    HW227780   7.144  10.658   6.407
75295SOL     OW27781  10.688   3.012  12.999
75295SOL    HW127782  10.764   3.035  13.053
75295SOL    HW227783  10.726   2.994  12.912
75296SOL     OW27784   1.745   4.402   5.179
75296SOL    HW127785   1.678   4.432   5.241
75296SOL    HW227786   1.828   4.433   5.217
75297SOL     OW27787   1.916  10.312   5.226
75297SOL    HW127788   1.909  10.368   5.148
75297SOL    HW227789   1.851  10.243   5.210
75298SOL     OW27790   7.813   7.353   5.360
75298SOL    HW127791   7.907   7.334   5.371
75298SOL    HW227792   7.771   7.267   5.363
75299SOL     OW27793   5.260   6.308  13.935
75299SOL    HW127794   5.348   6.342  13.947
75299SOL    HW227795   5.249   6.303  13.840
75300SOL     OW27796   8.059  12.770   9.161
75300SOL    HW127797   8.049  12.753   9.068
75300SOL    HW227798   8.133  12.831   9.166
75301SOL     OW27799  11.447   2.541   0.886
75301SOL    HW127800  11.416   2.451   0.896
75301SOL    HW227801  11.469   2.548   0.793
75302SOL     OW27802  12.319   4.088   8.219
75302SOL    HW127803  12.414   4.079   8.221
75302SOL    HW227804  12.297   4.092   8.126
75303SOL     OW27805   3.653  14.201  11.268
75303SOL    HW127806   3.565  14.180  11.238
75303SOL    HW227807   3.710  14.139  11.222
75304SOL     OW27808   8.557   1.412  13.771
75304SOL    HW127809   8.465   1.431  13.790
75304SOL    HW227810   8.574   1.329  13.814
75305SOL     OW27811  12.770   2.429   4.158
75305SOL    HW127812  12.716   2.386   4.091
75305SOL    HW227813  12.789   2.360   4.221
75306SOL     OW27814   1.846   6.497  10.276
75306SOL    HW127815   1.830   6.563  10.344
75306SOL    HW227816   1.940   6.502  10.259
75307SOL     OW27817   6.072   2.632   3.758
75307SOL    HW127818   6.002   2.680   3.803
75307SOL    HW227819   6.140   2.621   3.824
75308SOL     OW27820  13.254   2.523  12.354
75308SOL    HW127821  13.340   2.495  12.385
75308SOL    HW227822  13.195   2.502  12.427
75309SOL     OW27823   2.830   1.969   5.974
75309SOL    HW127824   2.904   2.001   6.026
75309SOL    HW227825   2.778   1.918   6.036
75310SOL     OW27826  13.020  12.444   2.180
75310SOL    HW127827  12.926  12.429   2.175
75310SOL    HW227828  13.059  12.365   2.143
75311SOL     OW27829   5.949   1.581  11.042
75311SOL    HW127830   5.949   1.546  10.953
75311SOL    HW227831   5.887   1.654  11.039
75312SOL     OW27832   2.123   3.970  13.739
75312SOL    HW127833   2.052   3.941  13.681
75312SOL    HW227834   2.078   4.016  13.811
75313SOL     OW27835   9.683   5.428  12.654
75313SOL    HW127836   9.739   5.482  12.711
75313SOL    HW227837   9.638   5.491  12.598
75314SOL     OW27838  14.276   4.165  11.725
75314SOL    HW127839  14.267   4.072  11.744
75314SOL    HW227840  14.367   4.175  11.694
75315SOL     OW27841   2.229  14.061   5.742
75315SOL    HW127842   2.314  14.023   5.766
75315SOL    HW227843   2.252  14.146   5.704
75316SOL     OW27844   9.015  11.813   6.943
75316SOL    HW127845   8.968  11.732   6.962
75316SOL    HW227846   8.946  11.876   6.922
75317SOL     OW27847   2.743  14.396   6.273
75317SOL    HW127848   2.741  14.475   6.328
75317SOL    HW227849   2.765  14.429   6.186
75318SOL     OW27850  10.657   5.501   3.413
75318SOL    HW127851  10.599   5.575   3.430
75318SOL    HW227852  10.659   5.493   3.318
75319SOL     OW27853   3.988   8.949   3.276
75319SOL    HW127854   3.899   8.924   3.251
75319SOL    HW227855   4.040   8.871   3.260
75320SOL     OW27856   0.362   4.329  14.329
75320SOL    HW127857   0.307   4.343  14.407
75320SOL    HW227858   0.441   4.288  14.363
75321SOL     OW27859  10.743   0.917   0.530
75321SOL    HW127860  10.726   0.825   0.548
75321SOL    HW227861  10.686   0.964   0.592
75322SOL     OW27862   8.282   9.002  11.034
75322SOL    HW127863   8.201   9.033  11.076
75322SOL    HW227864   8.258   8.918  10.995
75323SOL     OW27865   5.620   3.265   7.241
75323SOL    HW127866   5.637   3.332   7.174
75323SOL    HW227867   5.620   3.183   7.193
75324SOL     OW27868   4.100   1.927  13.191
75324SOL    HW127869   4.020   1.914  13.142
75324SOL    HW227870   4.138   1.839  13.200
75325SOL     OW27871   7.398   0.569   6.878
75325SOL    HW127872   7.406   0.664   6.886
75325SOL    HW227873   7.470   0.544   6.820
75326SOL     OW27874  14.072   8.331   1.320
75326SOL    HW127875  14.042   8.342   1.410
75326SOL    HW227876  14.168   8.335   1.326
75327SOL     OW27877   1.767   0.172   3.613
75327SOL    HW127878   1.787   0.226   3.536
75327SOL    HW227879   1.848   0.124   3.630
75328SOL     OW27880  10.553   9.742   3.179
75328SOL    HW127881  10.618   9.705   3.120
75328SOL    HW227882  10.518   9.666   3.227
75329SOL     OW27883   1.485  11.088   9.642
75329SOL    HW127884   1.529  11.097   9.726
75329SOL    HW227885   1.533  11.147   9.583
75330SOL     OW27886   2.688   6.399   6.371
75330SOL    HW127887   2.767   6.391   6.317
75330SOL    HW227888   2.683   6.316   6.419
75331SOL     OW27889   0.238   2.666  10.003
75331SOL    HW127890   0.291   2.606  10.054
75331SOL    HW227891   0.147   2.641  10.022
75332SOL     OW27892   4.979  11.376   5.671
75332SOL    HW127893   4.901  11.322   5.656
75332SOL    HW227894   5.052  11.322   5.641
75333SOL     OW27895   0.671   6.258   3.170
75333SOL    HW127896   0.584   6.252   3.211
75333SOL    HW227897   0.729   6.213   3.232
75334SOL     OW27898   1.841   2.350  11.848
75334SOL    HW127899   1.747   2.356  11.830
75334SOL    HW227900   1.881   2.414  11.789
75335SOL     OW27901   4.030   7.651   8.380
75335SOL    HW127902   4.005   7.729   8.429
75335SOL    HW227903   4.025   7.677   8.289
75336SOL     OW27904   7.384  10.778   4.706
75336SOL    HW127905   7.368  10.723   4.783
75336SOL    HW227906   7.377  10.868   4.740
75337SOL     OW27907   8.314  12.416   5.834
75337SOL    HW127908   8.312  12.511   5.826
75337SOL    HW227909   8.374  12.387   5.765
75338SOL     OW27910   0.901  10.321   6.575
75338SOL    HW127911   0.940  10.259   6.512
75338SOL    HW227912   0.844  10.267   6.630
75339SOL     OW27913   0.144  11.264   9.683
75339SOL    HW127914   0.229  11.248   9.725
75339SOL    HW227915   0.109  11.340   9.730
75340SOL     OW27916   8.185   8.807   8.734
75340SOL    HW127917   8.161   8.822   8.643
75340SOL    HW227918   8.241   8.729   8.731
75341SOL     OW27919   0.202   4.451   6.746
75341SOL    HW127920   0.242   4.376   6.790
75341SOL    HW227921   0.129   4.475   6.803
75342SOL     OW27922   3.758  12.848   7.732
75342SOL    HW127923   3.812  12.787   7.783
75342SOL    HW227924   3.680  12.861   7.785
75343SOL     OW27925  11.293  11.406  14.681
75343SOL    HW127926  11.284  11.311  14.680
75343SOL    HW227927  11.265  11.432  14.769
75344SOL     OW27928  11.442   2.062  13.441
75344SOL    HW127929  11.357   2.021  13.457
75344SOL    HW227930  11.422   2.137  13.386
75345SOL     OW27931  10.913  13.254   6.773
75345SOL    HW127932  11.008  13.259   6.764
75345SOL    HW227933  10.892  13.324   6.836
75346SOL     OW27934   6.337   7.140  14.347
75346SOL    HW127935   6.258   7.173  14.302
75346SOL    HW227936   6.409   7.165  14.289
75347SOL     OW27937  13.033   0.111   9.363
75347SOL    HW127938  12.976   0.067   9.426
75347SOL    HW227939  13.037   0.201   9.393
75348SOL     OW27940  12.572  11.421  11.301
75348SOL    HW127941  12.643  11.391  11.358
75348SOL    HW227942  12.521  11.341  11.284
75349SOL     OW27943  14.688  13.687   0.956
75349SOL    HW127944  14.630  13.738   0.899
75349SOL    HW227945  14.775  13.722   0.940
75350SOL     OW27946  11.914   5.373   7.764
75350SOL    HW127947  11.821   5.389   7.749
75350SOL    HW227948  11.929   5.403   7.854
75351SOL     OW27949  10.971   6.715   6.115
75351SOL    HW127950  10.968   6.755   6.028
75351SOL    HW227951  10.934   6.628   6.102
75352SOL     OW27952  10.956   0.694   5.167
75352SOL    HW127953  10.933   0.612   5.211
75352SOL    HW227954  10.906   0.693   5.086
75353SOL     OW27955   4.828   6.414   9.560
75353SOL    HW127956   4.746   6.423   9.511
75353SOL    HW227957   4.885   6.362   9.502
75354SOL     OW27958   0.903   3.554   3.706
75354SOL    HW127959   0.844   3.600   3.765
75354SOL    HW227960   0.988   3.554   3.751
75355SOL     OW27961   0.755   3.889   4.035
75355SOL    HW127962   0.732   3.931   3.952
75355SOL    HW227963   0.730   3.953   4.102
75356SOL     OW27964   4.462   1.982  11.632
75356SOL    HW127965   4.394   1.998  11.698
75356SOL    HW227966   4.514   2.063  11.632
75357SOL     OW27967   2.451   4.378  14.639
75357SOL    HW127968   2.406   4.418  14.713
75357SOL    HW227969   2.523   4.329  14.678
75358SOL     OW27970  11.516   2.046   2.734
75358SOL    HW127971  11.508   2.047   2.829
75358SOL    HW227972  11.426   2.037   2.702
75359SOL     OW27973  12.472   5.170   3.892
75359SOL    HW127974  12.538   5.127   3.837
75359SOL    HW227975  12.420   5.222   3.830
75360SOL     OW27976   7.410   6.896   1.068
75360SOL    HW127977   7.423   6.906   0.973
75360SOL    HW227978   7.333   6.949   1.087
75361SOL     OW27979  14.625   9.043   8.159
75361SOL    HW127980  14.537   9.027   8.190
75361SOL    HW227981  14.680   8.983   8.209
75362SOL     OW27982   3.035   9.896   0.448
75362SOL    HW127983   2.960   9.951   0.425
75362SOL    HW227984   3.100   9.914   0.379
75363SOL     OW27985  10.626   0.681   9.122
75363SOL    HW127986  10.700   0.652   9.070
75363SOL    HW227987  10.557   0.617   9.105
75364SOL     OW27988  13.564   7.676   8.305
75364SOL    HW127989  13.511   7.749   8.337
75364SOL    HW227990  13.538   7.602   8.360
75365SOL     OW27991   8.667   9.397   1.147
75365SOL    HW127992   8.654   9.320   1.203
75365SOL    HW227993   8.614   9.465   1.189
75366SOL     OW27994  14.530  13.332   1.340
75366SOL    HW127995  14.554  13.402   1.280
75366SOL    HW227996  14.435  13.334   1.343
75367SOL     OW27997   3.743   7.667   3.246
75367SOL    HW127998   3.676   7.599   3.242
75367SOL    HW227999   3.705   7.740   3.198
75368SOL     OW28000   1.965   0.131   9.510
75368SOL    HW128001   1.888   0.100   9.464
75368SOL    HW228002   1.933   0.160   9.596
75369SOL     OW28003  13.440   7.995   4.690
75369SOL    HW128004  13.502   8.067   4.706
75369SOL    HW228005  13.431   7.952   4.775
75370SOL     OW28006  11.472  12.332  11.116
75370SOL    HW128007  11.425  12.415  11.111
75370SOL    HW228008  11.554  12.349  11.069
75371SOL     OW28009   6.542   9.536   6.956
75371SOL    HW128010   6.598   9.614   6.961
75371SOL    HW228011   6.596   9.466   6.992
75372SOL     OW28012  11.997  11.770   2.617
75372SOL    HW128013  12.090  11.747   2.611
75372SOL    HW228014  11.985  11.838   2.551
75373SOL     OW28015   9.917   5.501   5.599
75373SOL    HW128016   9.842   5.453   5.634
75373SOL    HW228017   9.887   5.592   5.595
75374SOL     OW28018   0.702  14.015   6.316
75374SOL    HW128019   0.797  14.028   6.317
75374SOL    HW228020   0.669  14.082   6.256
75375SOL     OW28021   0.436  14.689   5.283
75375SOL    HW128022   0.343  14.668   5.294
75375SOL    HW228023   0.481  14.607   5.301
75376SOL     OW28024  14.106  12.919  14.821
75376SOL    HW128025  14.070  12.990   0.005
75376SOL    HW228026  14.035  12.895  14.762
75377SOL     OW28027   9.205  13.639  12.379
75377SOL    HW128028   9.295  13.669  12.372
75377SOL    HW228029   9.207  13.548  12.350
75378SOL     OW28030  11.692   3.549   0.036
75378SOL    HW128031  11.642   3.467   0.041
75378SOL    HW228032  11.644   3.609   0.093
75379SOL     OW28033   9.853   9.273  13.056
75379SOL    HW128034   9.880   9.271  12.965
75379SOL    HW228035   9.775   9.329  13.057
75380SOL     OW28036  10.015  13.319   3.991
75380SOL    HW128037   9.999  13.407   3.959
75380SOL    HW228038   9.928  13.286   4.015
75381SOL     OW28039  11.190   4.003   5.229
75381SOL    HW128040  11.225   3.917   5.250
75381SOL    HW228041  11.108   3.985   5.183
75382SOL     OW28042   1.885   3.375   1.155
75382SOL    HW128043   1.841   3.290   1.155
75382SOL    HW228044   1.904   3.393   1.063
75383SOL     OW28045  12.805   3.784   6.816
75383SOL    HW128046  12.810   3.752   6.726
75383SOL    HW228047  12.886   3.835   6.828
75384SOL     OW28048   8.127  12.319   5.113
75384SOL    HW128049   8.177  12.252   5.161
75384SOL    HW228050   8.060  12.348   5.174
75385SOL     OW28051  13.340   8.386   2.819
75385SOL    HW128052  13.348   8.398   2.913
75385SOL    HW228053  13.397   8.312   2.799
75386SOL     OW28054  14.372   5.116  11.506
75386SOL    HW128055  14.389   5.044  11.567
75386SOL    HW228056  14.286   5.095  11.468
75387SOL     OW28057   2.068  12.982  11.894
75387SOL    HW128058   1.988  12.948  11.933
75387SOL    HW228059   2.112  13.028  11.966
75388SOL     OW28060  12.866   0.677   2.168
75388SOL    HW128061  12.832   0.733   2.098
75388SOL    HW228062  12.892   0.596   2.124
75389SOL     OW28063  10.431  10.601  14.522
75389SOL    HW128064  10.478  10.682  14.539
75389SOL    HW228065  10.381  10.619  14.442
75390SOL     OW28066   8.281   7.336  10.873
75390SOL    HW128067   8.347   7.283  10.828
75390SOL    HW228068   8.246   7.393  10.805
75391SOL     OW28069   7.363   5.924  14.745
75391SOL    HW128070   7.303   5.992  14.774
75391SOL    HW228071   7.438   5.972  14.708
75392SOL     OW28072   9.276   8.837   1.401
75392SOL    HW128073   9.219   8.873   1.468
75392SOL    HW228074   9.249   8.745   1.392
75393SOL     OW28075   1.599   4.300  12.709
75393SOL    HW128076   1.690   4.314  12.684
75393SOL    HW228077   1.603   4.269  12.799
75394SOL     OW28078  10.859   1.412  10.354
75394SOL    HW128079  10.851   1.386  10.446
75394SOL    HW228080  10.844   1.331  10.305
75395SOL     OW28081  14.016   1.255  11.689
75395SOL    HW128082  14.065   1.177  11.665
75395SOL    HW228083  14.057   1.286  11.769
75396SOL     OW28084  10.112   5.086   3.745
75396SOL    HW128085  10.047   5.024   3.715
75396SOL    HW228086  10.088   5.169   3.704
75397SOL     OW28087  13.471  12.762  13.946
75397SOL    HW128088  13.562  12.779  13.919
75397SOL    HW228089  13.440  12.697  13.883
75398SOL     OW28090   4.228   0.368   7.584
75398SOL    HW128091   4.226   0.444   7.526
75398SOL    HW228092   4.142   0.327   7.573
75399SOL     OW28093   0.046  12.126   1.655
75399SOL    HW128094  14.869  12.144   1.574
75399SOL    HW228095   0.132  12.166   1.643
75400SOL     OW28096  10.264  13.022   0.732
75400SOL    HW128097  10.198  12.956   0.708
75400SOL    HW228098  10.223  13.072   0.802
75401SOL     OW28099   7.029   8.373   6.047
75401SOL    HW128100   7.013   8.419   5.964
75401SOL    HW228101   6.982   8.425   6.112
75402SOL     OW28102   1.511   6.994   7.118
75402SOL    HW128103   1.532   6.902   7.130
75402SOL    HW228104   1.448   7.014   7.187
75403SOL     OW28105  14.823   7.665   9.655
75403SOL    HW128106  14.766   7.588   9.658
75403SOL    HW228107  14.766   7.738   9.679
75404SOL     OW28108  12.634  10.001   3.830
75404SOL    HW128109  12.670   9.964   3.911
75404SOL    HW228110  12.586  10.078   3.858
75405SOL     OW28111   2.177  14.403   4.231
75405SOL    HW128112   2.269  14.398   4.206
75405SOL    HW228113   2.159  14.317   4.270
75406SOL     OW28114   8.010   1.049   1.149
75406SOL    HW128115   7.950   0.978   1.173
75406SOL    HW228116   8.087   1.004   1.115
75407SOL     OW28117   5.929   9.188   9.439
75407SOL    HW128118   5.869   9.245   9.392
75407SOL    HW228119   5.934   9.109   9.386
75408SOL     OW28120   0.739   9.974   7.227
75408SOL    HW128121   0.675   9.904   7.215
75408SOL    HW228122   0.819   9.930   7.254
75409SOL     OW28123   6.618   0.169   4.040
75409SOL    HW128124   6.535   0.206   4.070
75409SOL    HW228125   6.682   0.238   4.054
75410SOL     OW28126   7.137   4.009  12.688
75410SOL    HW128127   7.157   3.973  12.601
75410SOL    HW228128   7.177   3.947  12.749
75411SOL     OW28129   3.065  14.123   8.967
75411SOL    HW128130   3.133  14.139   8.901
75411SOL    HW228131   2.990  14.090   8.918
75412SOL     OW28132   7.940   9.216   0.358
75412SOL    HW128133   7.875   9.158   0.396
75412SOL    HW228134   7.968   9.172   0.278
75413SOL     OW28135   1.627   1.746   0.009
75413SOL    HW128136   1.620   1.831  14.835
75413SOL    HW228137   1.721   1.730   0.016
75414SOL     OW28138  14.653   9.183  11.523
75414SOL    HW128139  14.698   9.245  11.465
75414SOL    HW228140  14.571   9.226  11.546
75415SOL     OW28141  13.306   8.568  13.167
75415SOL    HW128142  13.260   8.651  13.155
75415SOL    HW228143  13.237   8.503  13.172
75416SOL     OW28144   2.217   0.863   2.690
75416SOL    HW128145   2.217   0.951   2.727
75416SOL    HW228146   2.224   0.805   2.766
75417SOL     OW28147   4.743   9.986  12.306
75417SOL    HW128148   4.830   9.997  12.269
75417SOL    HW228149   4.756   9.990  12.401
75418SOL     OW28150   5.260   0.554   3.013
75418SOL    HW128151   5.271   0.500   2.935
75418SOL    HW228152   5.241   0.492   3.083
75419SOL     OW28153   2.103   9.563   5.011
75419SOL    HW128154   2.085   9.633   4.949
75419SOL    HW228155   2.121   9.608   5.094
75420SOL     OW28156   2.058   5.718  10.733
75420SOL    HW128157   2.129   5.671  10.777
75420SOL    HW228158   2.074   5.810  10.754
75421SOL     OW28159   1.398  14.412   8.028
75421SOL    HW128160   1.303  14.417   8.022
75421SOL    HW228161   1.419  14.443   8.116
75422SOL     OW28162   9.247  10.776   7.542
75422SOL    HW128163   9.292  10.852   7.506
75422SOL    HW228164   9.317  10.713   7.558
75423SOL     OW28165  12.499  14.276  13.999
75423SOL    HW128166  12.449  14.351  14.031
75423SOL    HW228167  12.461  14.255  13.914
75424SOL     OW28168   6.474  12.893  13.568
75424SOL    HW128169   6.406  12.954  13.596
75424SOL    HW228170   6.556  12.935  13.594
75425SOL     OW28171  12.694   1.932  12.677
75425SOL    HW128172  12.706   1.919  12.583
75425SOL    HW228173  12.652   2.019  12.684
75426SOL     OW28174   3.548   3.114   3.526
75426SOL    HW128175   3.565   3.197   3.480
75426SOL    HW228176   3.551   3.137   3.619
75427SOL     OW28177   1.156  11.041   1.200
75427SOL    HW128178   1.210  11.093   1.142
75427SOL    HW228179   1.198  10.955   1.203
75428SOL     OW28180  11.716   2.663   7.585
75428SOL    HW128181  11.695   2.689   7.495
75428SOL    HW228182  11.778   2.591   7.576
75429SOL     OW28183   7.793   9.263   8.670
75429SOL    HW128184   7.781   9.231   8.581
75429SOL    HW228185   7.752   9.197   8.726
75430SOL     OW28186   3.840  11.473   1.925
75430SOL    HW128187   3.806  11.552   1.968
75430SOL    HW228188   3.914  11.446   1.980
75431SOL     OW28189  11.691   3.051   3.894
75431SOL    HW128190  11.678   2.966   3.853
75431SOL    HW228191  11.685   3.033   3.988
75432SOL     OW28192  11.992   6.074   7.718
75432SOL    HW128193  12.058   6.093   7.651
75432SOL    HW228194  12.034   6.007   7.773
75433SOL     OW28195   0.094   0.309   3.698
75433SOL    HW128196   0.167   0.349   3.649
75433SOL    HW228197   0.136   0.240   3.751
75434SOL     OW28198  13.621   5.145   8.011
75434SOL    HW128199  13.664   5.102   8.085
75434SOL    HW228200  13.693   5.175   7.955
75435SOL     OW28201  10.239   0.566   0.743
75435SOL    HW128202  10.251   0.599   0.654
75435SOL    HW228203  10.211   0.642   0.794
75436SOL     OW28204   0.773   3.435   9.863
75436SOL    HW128205   0.845   3.460   9.920
75436SOL    HW228206   0.749   3.347   9.892
75437SOL     OW28207   6.838   4.865   7.242
75437SOL    HW128208   6.810   4.799   7.306
75437SOL    HW228209   6.816   4.948   7.283
75438SOL     OW28210   1.324  14.387   1.786
75438SOL    HW128211   1.306  14.461   1.844
75438SOL    HW228212   1.241  14.371   1.740
75439SOL     OW28213  12.384  11.028   5.000
75439SOL    HW128214  12.425  10.963   5.057
75439SOL    HW228215  12.426  11.111   5.025
75440SOL     OW28216   7.063  14.150   3.317
75440SOL    HW128217   7.063  14.067   3.365
75440SOL    HW228218   7.136  14.200   3.354
75441SOL     OW28219   1.781  12.245   5.691
75441SOL    HW128220   1.731  12.325   5.708
75441SOL    HW228221   1.751  12.215   5.606
75442SOL     OW28222   3.941   5.958   8.976
75442SOL    HW128223   3.977   6.038   8.937
75442SOL    HW228224   3.908   5.985   9.061
75443SOL     OW28225   3.984  12.903  11.412
75443SOL    HW128226   3.892  12.928  11.418
75443SOL    HW228227   3.989  12.842  11.339
75444SOL     OW28228  10.347  10.132   8.939
75444SOL    HW128229  10.319  10.044   8.965
75444SOL    HW228230  10.275  10.166   8.887
75445SOL     OW28231  13.004   9.865   3.075
75445SOL    HW128232  13.071   9.934   3.069
75445SOL    HW228233  12.931   9.899   3.024
75446SOL     OW28234  13.672  10.584   2.855
75446SOL    HW128235  13.765  10.565   2.842
75446SOL    HW228236  13.672  10.669   2.900
75447SOL     OW28237   5.662   7.841  13.975
75447SOL    HW128238   5.600   7.914  13.974
75447SOL    HW228239   5.748   7.883  13.983
75448SOL     OW28240  10.942  11.934  12.219
75448SOL    HW128241  11.013  11.932  12.154
75448SOL    HW228242  10.896  11.851  12.205
75449SOL     OW28243   7.664   5.362   2.918
75449SOL    HW128244   7.722   5.292   2.886
75449SOL    HW228245   7.690   5.374   3.009
75450SOL     OW28246  10.965   4.537  11.198
75450SOL    HW128247  11.009   4.453  11.196
75450SOL    HW228248  10.904   4.530  11.271
75451SOL     OW28249   3.142   4.632   1.472
75451SOL    HW128250   3.197   4.680   1.410
75451SOL    HW228251   3.204   4.590   1.532
75452SOL     OW28252   0.961  14.274   6.287
75452SOL    HW128253   0.976  14.273   6.381
75452SOL    HW228254   0.973  14.183   6.260
75453SOL     OW28255   4.949   2.659   3.028
75453SOL    HW128256   4.925   2.657   3.120
75453SOL    HW228257   4.877   2.614   2.983
75454SOL     OW28258  10.019   3.695   2.503
75454SOL    HW128259  10.002   3.679   2.596
75454SOL    HW228260  10.109   3.665   2.490
75455SOL     OW28261   6.220   9.132  10.416
75455SOL    HW128262   6.308   9.105  10.444
75455SOL    HW228263   6.168   9.052  10.419
75456SOL     OW28264   9.919   8.341   1.883
75456SOL    HW128265   9.997   8.395   1.867
75456SOL    HW228266   9.942   8.287   1.958
75457SOL     OW28267   9.583  12.017  10.744
75457SOL    HW128268   9.665  11.991  10.785
75457SOL    HW228269   9.517  12.005  10.812
75458SOL     OW28270   4.994   4.652   3.969
75458SOL    HW128271   5.063   4.675   3.906
75458SOL    HW228272   4.935   4.595   3.919
75459SOL     OW28273  10.505  14.695   8.171
75459SOL    HW128274  10.548  14.751   8.107
75459SOL    HW228275  10.412  14.699   8.148
75460SOL     OW28276   1.651   5.501  12.035
75460SOL    HW128277   1.605   5.479  11.953
75460SOL    HW228278   1.742   5.512  12.008
75461SOL     OW28279   2.914   3.327   9.620
75461SOL    HW128280   3.000   3.367   9.636
75461SOL    HW228281   2.903   3.331   9.525
75462SOL     OW28282  14.636   1.927   5.320
75462SOL    HW128283  14.664   2.002   5.267
75462SOL    HW228284  14.716   1.877   5.335
75463SOL     OW28285  13.159   1.574   6.601
75463SOL    HW128286  13.129   1.505   6.661
75463SOL    HW228287  13.081   1.596   6.550
75464SOL     OW28288   7.396   2.060   6.884
75464SOL    HW128289   7.449   2.071   6.805
75464SOL    HW228290   7.319   2.010   6.854
75465SOL     OW28291   4.775  13.597  11.928
75465SOL    HW128292   4.867  13.571  11.925
75465SOL    HW228293   4.758  13.636  11.842
75466SOL     OW28294   8.060   1.487  11.230
75466SOL    HW128295   8.040   1.428  11.302
75466SOL    HW228296   7.996   1.466  11.163
75467SOL     OW28297  11.831  12.682   6.799
75467SOL    HW128298  11.798  12.639   6.720
75467SOL    HW228299  11.761  12.743   6.824
75468SOL     OW28300   1.082  10.802  11.032
75468SOL    HW128301   1.147  10.781  10.965
75468SOL    HW228302   1.086  10.897  11.041
75469SOL     OW28303   6.786  12.425   6.958
75469SOL    HW128304   6.770  12.423   7.052
75469SOL    HW228305   6.737  12.350   6.924
75470SOL     OW28306  12.435   6.018   1.195
75470SOL    HW128307  12.446   6.113   1.196
75470SOL    HW228308  12.344   6.005   1.168
75471SOL     OW28309   5.473   0.388   8.779
75471SOL    HW128310   5.532   0.389   8.855
75471SOL    HW228311   5.526   0.352   8.708
75472SOL     OW28312  13.069   2.829   2.678
75472SOL    HW128313  13.148   2.820   2.624
75472SOL    HW228314  13.000   2.850   2.615
75473SOL     OW28315   5.144   1.207  14.153
75473SOL    HW128316   5.110   1.292  14.181
75473SOL    HW228317   5.183   1.170  14.232
75474SOL     OW28318   0.907   7.128   1.872
75474SOL    HW128319   0.826   7.162   1.911
75474SOL    HW228320   0.889   7.035   1.859
75475SOL     OW28321   9.724   7.401  10.990
75475SOL    HW128322   9.709   7.329  10.929
75475SOL    HW228323   9.673   7.379  11.067
75476SOL     OW28324  14.628  10.700   2.590
75476SOL    HW128325  14.637  10.790   2.557
75476SOL    HW228326  14.659  10.705   2.681
75477SOL     OW28327   7.973   7.981   3.471
75477SOL    HW128328   8.053   7.929   3.468
75477SOL    HW228329   7.907   7.923   3.508
75478SOL     OW28330  14.188   4.873   9.216
75478SOL    HW128331  14.234   4.921   9.147
75478SOL    HW228332  14.255   4.819   9.258
75479SOL     OW28333   1.923   8.853   2.686
75479SOL    HW128334   2.002   8.802   2.667
75479SOL    HW228335   1.949   8.910   2.759
75480SOL     OW28336   0.522   5.903  13.052
75480SOL    HW128337   0.479   5.855  13.123
75480SOL    HW228338   0.481   5.990  13.054
75481SOL     OW28339   0.910   9.475   1.694
75481SOL    HW128340   0.998   9.454   1.724
75481SOL    HW228341   0.922   9.526   1.614
75482SOL     OW28342   6.882   7.803   4.733
75482SOL    HW128343   6.817   7.806   4.804
75482SOL    HW228344   6.919   7.891   4.732
75483SOL     OW28345   7.479   0.451   7.568
75483SOL    HW128346   7.414   0.480   7.632
75483SOL    HW228347   7.555   0.507   7.584
75484SOL     OW28348  14.097   2.139  10.723
75484SOL    HW128349  14.191   2.149  10.711
75484SOL    HW228350  14.070   2.077  10.655
75485SOL     OW28351  10.258   6.659   5.133
75485SOL    HW128352  10.326   6.710   5.089
75485SOL    HW228353  10.306   6.602   5.193
75486SOL     OW28354   2.321  12.333  10.501
75486SOL    HW128355   2.280  12.359  10.584
75486SOL    HW228356   2.256  12.358  10.434
75487SOL     OW28357   4.117   9.075   5.403
75487SOL    HW128358   4.057   9.087   5.330
75487SOL    HW228359   4.061   9.054   5.478
75488SOL     OW28360  11.012   4.247   0.199
75488SOL    HW128361  10.922   4.262   0.171
75488SOL    HW228362  11.007   4.169   0.255
75489SOL     OW28363   9.169   5.306   7.612
75489SOL    HW128364   9.201   5.315   7.522
75489SOL    HW228365   9.077   5.333   7.607
75490SOL     OW28366   1.577   3.535   4.288
75490SOL    HW128367   1.649   3.591   4.315
75490SOL    HW228368   1.615   3.448   4.281
75491SOL     OW28369   9.931  13.185   8.220
75491SOL    HW128370   9.930  13.279   8.203
75491SOL    HW228371   9.840  13.164   8.243
75492SOL     OW28372   1.066   3.996   0.003
75492SOL    HW128373   1.116   3.987  14.791
75492SOL    HW228374   1.035   3.908   0.022
75493SOL     OW28375   7.739  11.180  11.376
75493SOL    HW128376   7.826  11.139  11.365
75493SOL    HW228377   7.748  11.266  11.336
75494SOL     OW28378  10.013   1.518  10.184
75494SOL    HW128379   9.932   1.528  10.234
75494SOL    HW228380   9.984   1.488  10.097
75495SOL     OW28381  11.216   0.418   1.546
75495SOL    HW128382  11.278   0.485   1.517
75495SOL    HW228383  11.150   0.414   1.476
75496SOL     OW28384   0.022   2.176  11.119
75496SOL    HW128385   0.010   2.086  11.148
75496SOL    HW228386   0.111   2.199  11.148
75497SOL     OW28387  12.059  14.250   0.358
75497SOL    HW128388  11.993  14.293   0.412
75497SOL    HW228389  12.138  14.304   0.370
75498SOL     OW28390   4.382  11.141  14.087
75498SOL    HW128391   4.300  11.114  14.129
75498SOL    HW228392   4.451  11.103  14.142
75499SOL     OW28393   3.386   9.613   8.755
75499SOL    HW128394   3.325   9.582   8.823
75499SOL    HW228395   3.473   9.604   8.794
75500SOL     OW28396   6.994   3.612   4.048
75500SOL    HW128397   7.015   3.683   4.108
75500SOL    HW228398   6.898   3.603   4.054
75501SOL     OW28399  11.080   1.904  13.164
75501SOL    HW128400  11.099   1.942  13.249
75501SOL    HW228401  10.998   1.944  13.137
75502SOL     OW28402   8.830   2.518   8.442
75502SOL    HW128403   8.770   2.592   8.452
75502SOL    HW228404   8.775   2.441   8.456
75503SOL     OW28405   6.338   4.402   1.137
75503SOL    HW128406   6.411   4.384   1.077
75503SOL    HW228407   6.340   4.329   1.199
75504SOL     OW28408   6.714   1.860   7.935
75504SOL    HW128409   6.740   1.817   7.854
75504SOL    HW228410   6.625   1.892   7.918
75505SOL     OW28411   5.577   4.990  11.818
75505SOL    HW128412   5.637   4.973  11.745
75505SOL    HW228413   5.494   5.011  11.777
75506SOL     OW28414   3.235   9.446   5.459
75506SOL    HW128415   3.193   9.408   5.536
75506SOL    HW228416   3.309   9.496   5.494
75507SOL     OW28417  14.009   3.160   8.486
75507SOL    HW128418  13.946   3.117   8.428
75507SOL    HW228419  13.956   3.221   8.538
75508SOL     OW28420  10.534   4.746   4.318
75508SOL    HW128421  10.475   4.769   4.247
75508SOL    HW228422  10.605   4.698   4.276
75509SOL     OW28423   8.711   6.967   7.336
75509SOL    HW128424   8.678   7.050   7.371
75509SOL    HW228425   8.643   6.903   7.357
75510SOL     OW28426   0.188   9.495   2.997
75510SOL    HW128427   0.113   9.501   3.056
75510SOL    HW228428   0.160   9.435   2.928
75511SOL     OW28429   9.086  14.244   0.565
75511SOL    HW128430   9.153  14.224   0.500
75511SOL    HW228431   9.123  14.214   0.648
75512SOL     OW28432  14.264   3.857   8.328
75512SOL    HW128433  14.206   3.926   8.296
75512SOL    HW228434  14.250   3.784   8.267
75513SOL     OW28435   1.045  10.666   4.511
75513SOL    HW128436   0.979  10.632   4.450
75513SOL    HW228437   1.122  10.681   4.458
75514SOL     OW28438   5.344   5.005  11.651
75514SOL    HW128439   5.269   4.967  11.697
75514SOL    HW228440   5.374   4.936  11.592
75515SOL     OW28441   0.721   7.842   7.615
75515SOL    HW128442   0.749   7.873   7.701
75515SOL    HW228443   0.792   7.868   7.556
75516SOL     OW28444   7.380  13.040  10.532
75516SOL    HW128445   7.374  13.106  10.601
75516SOL    HW228446   7.375  12.956  10.579
75517SOL     OW28447   2.693   3.849   0.343
75517SOL    HW128448   2.772   3.880   0.387
75517SOL    HW228449   2.723   3.825   0.255
75518SOL     OW28450   8.427   2.876   7.098
75518SOL    HW128451   8.365   2.938   7.137
75518SOL    HW228452   8.417   2.797   7.150
75519SOL     OW28453   5.603  13.792  12.200
75519SOL    HW128454   5.655  13.839  12.265
75519SOL    HW228455   5.525  13.846  12.188
75520SOL     OW28456   0.336   3.977   8.566
75520SOL    HW128457   0.378   4.054   8.603
75520SOL    HW228458   0.255   3.966   8.616
75521SOL     OW28459   0.834  14.730  14.509
75521SOL    HW128460   0.861  14.661  14.570
75521SOL    HW228461   0.763  14.775  14.554
75522SOL     OW28462   3.505   6.139   8.990
75522SOL    HW128463   3.489   6.200   9.063
75522SOL    HW228464   3.500   6.194   8.912
75523SOL     OW28465   6.724   2.844   1.766
75523SOL    HW128466   6.772   2.762   1.781
75523SOL    HW228467   6.632   2.819   1.770
75524SOL     OW28468   2.492   4.090   4.356
75524SOL    HW128469   2.419   4.042   4.395
75524SOL    HW228470   2.565   4.028   4.355
75525SOL     OW28471   8.851  10.563  10.991
75525SOL    HW128472   8.904  10.582  10.914
75525SOL    HW228473   8.913  10.561  11.063
75526SOL     OW28474  14.623  10.207  11.752
75526SOL    HW128475  14.634  10.302  11.745
75526SOL    HW228476  14.540  10.196  11.799
75527SOL     OW28477  12.610   3.186  12.371
75527SOL    HW128478  12.598   3.093  12.391
75527SOL    HW228479  12.641   3.224  12.452
75528SOL     OW28480  11.743   6.627   1.068
75528SOL    HW128481  11.686   6.570   1.119
75528SOL    HW228482  11.734   6.596   0.978
75529SOL     OW28483  14.067  13.854   1.693
75529SOL    HW128484  13.990  13.802   1.668
75529SOL    HW228485  14.100  13.812   1.772
75530SOL     OW28486  14.344   3.370   2.582
75530SOL    HW128487  14.298   3.426   2.645
75530SOL    HW228488  14.339   3.282   2.620
75531SOL     OW28489   3.552   0.496   3.872
75531SOL    HW128490   3.597   0.440   3.935
75531SOL    HW228491   3.606   0.492   3.793
75532SOL     OW28492   2.404   0.262   6.392
75532SOL    HW128493   2.416   0.319   6.468
75532SOL    HW228494   2.390   0.322   6.319
75533SOL     OW28495   7.805  14.501   9.720
75533SOL    HW128496   7.892  14.495   9.682
75533SOL    HW228497   7.818  14.483   9.813
75534SOL     OW28498  12.289   8.026   4.154
75534SOL    HW128499  12.367   7.979   4.122
75534SOL    HW228500  12.237   7.959   4.198
75535SOL     OW28501  11.095   3.793   3.134
75535SOL    HW128502  11.010   3.829   3.106
75535SOL    HW228503  11.137   3.764   3.054
75536SOL     OW28504  13.581   3.320   1.856
75536SOL    HW128505  13.582   3.250   1.922
75536SOL    HW228506  13.490   3.321   1.825
75537SOL     OW28507   1.487  11.320  14.602
75537SOL    HW128508   1.493  11.415  14.609
75537SOL    HW228509   1.578  11.290  14.610
75538SOL     OW28510   0.793  10.309  12.432
75538SOL    HW128511   0.711  10.281  12.391
75538SOL    HW228512   0.840  10.354  12.362
75539SOL     OW28513   5.816   1.395   1.634
75539SOL    HW128514   5.810   1.489   1.652
75539SOL    HW228515   5.844   1.356   1.716
75540SOL     OW28516   2.530   1.787   4.660
75540SOL    HW128517   2.477   1.824   4.730
75540SOL    HW228518   2.565   1.864   4.613
75541SOL     OW28519   7.651  10.222  14.183
75541SOL    HW128520   7.664  10.127  14.185
75541SOL    HW228521   7.560  10.233  14.156
75542SOL     OW28522   7.129   1.676   6.330
75542SOL    HW128523   7.054   1.618   6.346
75542SOL    HW228524   7.203   1.616   6.324
75543SOL     OW28525   3.310  14.083   7.047
75543SOL    HW128526   3.326  14.066   7.140
75543SOL    HW228527   3.337  14.173   7.034
75544SOL     OW28528   3.748   2.553   9.126
75544SOL    HW128529   3.756   2.516   9.214
75544SOL    HW228530   3.804   2.630   9.127
75545SOL     OW28531   5.466   2.060  13.594
75545SOL    HW128532   5.439   2.140  13.640
75545SOL    HW228533   5.544   2.031  13.640
75546SOL     OW28534  13.922  12.353   2.652
75546SOL    HW128535  14.014  12.353   2.679
75546SOL    HW228536  13.908  12.266   2.614
75547SOL     OW28537   9.331   0.549   7.065
75547SOL    HW128538   9.351   0.619   7.128
75547SOL    HW228539   9.235   0.550   7.059
75548SOL     OW28540   6.010   2.211   3.248
75548SOL    HW128541   6.095   2.189   3.284
75548SOL    HW228542   6.027   2.282   3.186
75549SOL     OW28543   3.406   7.183  14.618
75549SOL    HW128544   3.485   7.148  14.577
75549SOL    HW228545   3.395   7.129  14.697
75550SOL     OW28546   2.295   9.940  14.135
75550SOL    HW128547   2.339   9.873  14.082
75550SOL    HW228548   2.276  10.011  14.073
75551SOL     OW28549   0.994  13.139   3.571
75551SOL    HW128550   0.913  13.089   3.579
75551SOL    HW228551   1.004  13.154   3.477
75552SOL     OW28552   7.535   9.666   1.570
75552SOL    HW128553   7.629   9.684   1.562
75552SOL    HW228554   7.530   9.581   1.614
75553SOL     OW28555   4.676  12.098   1.211
75553SOL    HW128556   4.761  12.139   1.193
75553SOL    HW228557   4.615  12.171   1.221
75554SOL     OW28558   0.825  14.796  11.888
75554SOL    HW128559   0.854  14.869  11.942
75554SOL    HW228560   0.895  14.731  11.895
75555SOL     OW28561   5.803   0.790   3.815
75555SOL    HW128562   5.888   0.831   3.835
75555SOL    HW228563   5.824   0.699   3.797
75556SOL     OW28564  10.572  14.424   9.583
75556SOL    HW128565  10.614  14.474   9.652
75556SOL    HW228566  10.566  14.335   9.617
75557SOL     OW28567   1.992  11.828   7.093
75557SOL    HW128568   2.032  11.756   7.044
75557SOL    HW228569   1.994  11.799   7.184
75558SOL     OW28570  12.299  13.559   5.188
75558SOL    HW128571  12.230  13.542   5.123
75558SOL    HW228572  12.283  13.496   5.258
75559SOL     OW28573   4.238   8.662  13.301
75559SOL    HW128574   4.184   8.739  13.284
75559SOL    HW228575   4.311   8.670  13.240
75560SOL     OW28576   8.490   0.317   9.341
75560SOL    HW128577   8.400   0.337   9.366
75560SOL    HW228578   8.542   0.341   9.417
75561SOL     OW28579   6.773   4.555   8.485
75561SOL    HW128580   6.820   4.519   8.560
75561SOL    HW228581   6.759   4.479   8.428
75562SOL     OW28582   6.008   2.405   6.745
75562SOL    HW128583   5.953   2.394   6.822
75562SOL    HW228584   5.968   2.476   6.696
75563SOL     OW28585   1.583   8.615   9.558
75563SOL    HW128586   1.546   8.573   9.480
75563SOL    HW228587   1.509   8.623   9.618
75564SOL     OW28588  11.348   3.079  14.191
75564SOL    HW128589  11.383   3.129  14.264
75564SOL    HW228590  11.259   3.113  14.179
75565SOL     OW28591   8.749   5.418   4.405
75565SOL    HW128592   8.678   5.482   4.397
75565SOL    HW228593   8.828   5.466   4.380
75566SOL     OW28594  13.568  11.468   7.270
75566SOL    HW128595  13.504  11.533   7.240
75566SOL    HW228596  13.537  11.386   7.233
75567SOL     OW28597   1.764   8.261  14.835
75567SOL    HW128598   1.837   8.199  14.830
75567SOL    HW228599   1.734   8.271  14.744
75568SOL     OW28600  13.254   6.547   6.962
75568SOL    HW128601  13.204   6.487   7.019
75568SOL    HW228602  13.187   6.590   6.909
75569SOL     OW28603   0.083   0.363  13.232
75569SOL    HW128604   0.178   0.367  13.238
75569SOL    HW228605   0.052   0.367  13.323
75570SOL     OW28606   9.028  10.000   3.232
75570SOL    HW128607   9.008  10.066   3.166
75570SOL    HW228608   9.102   9.952   3.197
75571SOL     OW28609   5.022  11.483   9.186
75571SOL    HW128610   4.964  11.421   9.141
75571SOL    HW228611   4.983  11.569   9.171
75572SOL     OW28612   9.518   6.471   0.737
75572SOL    HW128613   9.542   6.444   0.648
75572SOL    HW228614   9.428   6.502   0.729
75573SOL     OW28615   9.414  14.544   5.191
75573SOL    HW128616   9.480  14.549   5.261
75573SOL    HW228617   9.439  14.467   5.140
75574SOL     OW28618   1.062   5.865  13.941
75574SOL    HW128619   1.151   5.862  13.906
75574SOL    HW228620   1.014   5.800  13.890
75575SOL     OW28621   8.250   0.435   8.497
75575SOL    HW128622   8.174   0.420   8.440
75575SOL    HW228623   8.229   0.387   8.578
75576SOL     OW28624   3.901   2.643   1.645
75576SOL    HW128625   3.835   2.662   1.580
75576SOL    HW228626   3.870   2.685   1.725
75577SOL     OW28627   3.561   7.059  11.018
75577SOL    HW128628   3.619   7.133  10.998
75577SOL    HW228629   3.512   7.087  11.095
75578SOL     OW28630  11.015   9.286  11.396
75578SOL    HW128631  10.921   9.297  11.380
75578SOL    HW228632  11.057   9.327  11.320
75579SOL     OW28633   6.508   8.504   5.522
75579SOL    HW128634   6.441   8.505   5.591
75579SOL    HW228635   6.568   8.435   5.548
75580SOL     OW28636   9.286  12.600  11.656
75580SOL    HW128637   9.271  12.670  11.720
75580SOL    HW228638   9.208  12.545  11.663
75581SOL     OW28639   0.721   3.440  14.057
75581SOL    HW128640   0.805   3.416  14.016
75581SOL    HW228641   0.733   3.420  14.149
75582SOL     OW28642   0.940  12.033  13.048
75582SOL    HW128643   0.855  12.075  13.033
75582SOL    HW228644   0.931  11.991  13.133
75583SOL     OW28645   8.593  13.978   3.297
75583SOL    HW128646   8.530  14.033   3.249
75583SOL    HW228647   8.556  13.890   3.291
75584SOL     OW28648   8.923  13.647   1.891
75584SOL    HW128649   8.942  13.565   1.846
75584SOL    HW228650   8.848  13.627   1.946
75585SOL     OW28651   3.901  12.400  13.804
75585SOL    HW128652   3.829  12.348  13.769
75585SOL    HW228653   3.915  12.469  13.739
75586SOL     OW28654   1.225  14.455   9.697
75586SOL    HW128655   1.291  14.492   9.756
75586SOL    HW228656   1.162  14.526   9.684
75587SOL     OW28657  12.711   2.207   6.793
75587SOL    HW128658  12.725   2.292   6.834
75587SOL    HW228659  12.668   2.226   6.710
75588SOL     OW28660   9.204  10.694   4.040
75588SOL    HW128661   9.176  10.708   3.950
75588SOL    HW228662   9.241  10.606   4.041
75589SOL     OW28663   8.691   4.788  11.345
75589SOL    HW128664   8.700   4.700  11.382
75589SOL    HW228665   8.737   4.784  11.261
75590SOL     OW28666   1.006  14.612   9.926
75590SOL    HW128667   1.081  14.604   9.984
75590SOL    HW228668   1.041  14.650   9.846
75591SOL     OW28669   9.367  14.205  13.235
75591SOL    HW128670   9.443  14.155  13.204
75591SOL    HW228671   9.296  14.180  13.177
75592SOL     OW28672  13.657  11.803   5.577
75592SOL    HW128673  13.565  11.777   5.572
75592SOL    HW228674  13.698  11.733   5.629
75593SOL     OW28675   1.186  10.147  11.899
75593SOL    HW128676   1.226  10.221  11.946
75593SOL    HW228677   1.250  10.076  11.908
75594SOL     OW28678   4.419   0.064   5.585
75594SOL    HW128679   4.426   0.114   5.504
75594SOL    HW228680   4.507   0.029   5.599
75595SOL     OW28681  12.340   9.903  11.412
75595SOL    HW128682  12.382   9.929  11.330
75595SOL    HW228683  12.410   9.910  11.477
75596SOL     OW28684   1.580   4.992   0.355
75596SOL    HW128685   1.517   4.979   0.426
75596SOL    HW228686   1.537   5.053   0.296
75597SOL     OW28687  12.563   0.662   6.942
75597SOL    HW128688  12.597   0.589   6.994
75597SOL    HW228689  12.537   0.727   7.006
75598SOL     OW28690  13.728   6.668   2.645
75598SOL    HW128691  13.653   6.720   2.616
75598SOL    HW228692  13.800   6.731   2.650
75599SOL     OW28693   1.446   0.711  13.221
75599SOL    HW128694   1.393   0.740  13.147
75599SOL    HW228695   1.389   0.655  13.272
75600SOL     OW28696   6.450   2.754   1.770
75600SOL    HW128697   6.439   2.727   1.678
75600SOL    HW228698   6.433   2.675   1.820
75601SOL     OW28699  10.747  14.561   3.505
75601SOL    HW128700  10.797  14.502   3.562
75601SOL    HW228701  10.782  14.648   3.526
75602SOL     OW28702   1.368   3.557   2.622
75602SOL    HW128703   1.394   3.548   2.713
75602SOL    HW228704   1.281   3.518   2.617
75603SOL     OW28705   3.194   6.538   5.600
75603SOL    HW128706   3.127   6.535   5.668
75603SOL    HW228707   3.147   6.565   5.521
75604SOL     OW28708  14.208   0.517  14.768
75604SOL    HW128709  14.216   0.430  14.728
75604SOL    HW228710  14.253   0.509  14.852
75605SOL     OW28711   6.888  14.168   9.782
75605SOL    HW128712   6.946  14.161   9.857
75605SOL    HW228713   6.836  14.087   9.784
75606SOL     OW28714   8.776   1.366   8.677
75606SOL    HW128715   8.820   1.395   8.757
75606SOL    HW228716   8.757   1.447   8.630
75607SOL     OW28717   9.149   3.943  14.653
75607SOL    HW128718   9.239   3.950  14.683
75607SOL    HW228719   9.125   4.032  14.628
75608SOL     OW28720   3.926   3.340   2.531
75608SOL    HW128721   3.867   3.395   2.582
75608SOL    HW228722   4.014   3.371   2.553
75609SOL     OW28723   3.279   1.774  13.587
75609SOL    HW128724   3.183   1.779  13.589
75609SOL    HW228725   3.298   1.698  13.532
75610SOL     OW28726   1.881   7.875   9.358
75610SOL    HW128727   1.944   7.861   9.287
75610SOL    HW228728   1.930   7.923   9.425
75611SOL     OW28729   6.793   1.200   1.396
75611SOL    HW128730   6.739   1.263   1.445
75611SOL    HW228731   6.858   1.255   1.351
75612SOL     OW28732   1.118   0.914   9.193
75612SOL    HW128733   1.184   0.917   9.124
75612SOL    HW228734   1.109   1.004   9.222
75613SOL     OW28735   5.799  13.746   3.773
75613SOL    HW128736   5.775  13.838   3.761
75613SOL    HW228737   5.820  13.715   3.685
75614SOL     OW28738   9.850   2.953   3.456
75614SOL    HW128739   9.904   3.013   3.507
75614SOL    HW228740   9.881   2.966   3.366
75615SOL     OW28741   3.514  13.902  13.367
75615SOL    HW128742   3.451  13.857  13.311
75615SOL    HW228743   3.597  13.856  13.350
75616SOL     OW28744  12.064   6.131   7.293
75616SOL    HW128745  11.992   6.111   7.353
75616SOL    HW228746  12.142   6.132   7.348
75617SOL     OW28747  12.140  14.091   8.119
75617SOL    HW128748  12.117  14.166   8.174
75617SOL    HW228749  12.159  14.130   8.033
75618SOL     OW28750  13.839   6.441   4.410
75618SOL    HW128751  13.883   6.443   4.496
75618SOL    HW228752  13.897   6.491   4.353
75619SOL     OW28753   4.594  12.646  11.367
75619SOL    HW128754   4.550  12.652  11.451
75619SOL    HW228755   4.617  12.737  11.345
75620SOL     OW28756   9.261  14.387   8.820
75620SOL    HW128757   9.175  14.360   8.850
75620SOL    HW228758   9.252  14.480   8.798
75621SOL     OW28759   7.071  14.835  12.539
75621SOL    HW128760   7.146   0.005  12.584
75621SOL    HW228761   7.088  14.741  12.543
75622SOL     OW28762   2.817   6.393   8.969
75622SOL    HW128763   2.734   6.358   9.001
75622SOL    HW228764   2.804   6.401   8.874
75623SOL     OW28765   2.193   2.760   9.514
75623SOL    HW128766   2.262   2.709   9.557
75623SOL    HW228767   2.224   2.850   9.517
75624SOL     OW28768   8.715   6.273  11.469
75624SOL    HW128769   8.719   6.225  11.386
75624SOL    HW228770   8.622   6.269  11.494
75625SOL     OW28771   8.689   1.197   8.142
75625SOL    HW128772   8.661   1.106   8.135
75625SOL    HW228773   8.663   1.223   8.231
75626SOL     OW28774  10.068   6.333   9.459
75626SOL    HW128775  10.140   6.312   9.399
75626SOL    HW228776  10.107   6.391   9.524
75627SOL     OW28777   7.748  13.554  11.494
75627SOL    HW128778   7.748  13.588  11.405
75627SOL    HW228779   7.760  13.630  11.550
75628SOL     OW28780   9.529   5.745  12.847
75628SOL    HW128781   9.623   5.727  12.850
75628SOL    HW228782   9.494   5.705  12.926
75629SOL     OW28783   6.873  11.298   7.871
75629SOL    HW128784   6.909  11.245   7.801
75629SOL    HW228785   6.818  11.363   7.826
75630SOL     OW28786   8.607   4.666   4.132
75630SOL    HW128787   8.641   4.705   4.212
75630SOL    HW228788   8.523   4.710   4.118
75631SOL     OW28789   5.491   0.883  11.868
75631SOL    HW128790   5.461   0.905  11.956
75631SOL    HW228791   5.442   0.942  11.811
75632SOL     OW28792  13.426   4.494   4.695
75632SOL    HW128793  13.340   4.467   4.725
75632SOL    HW228794  13.487   4.440   4.745
75633SOL     OW28795  10.292  14.506  12.255
75633SOL    HW128796  10.230  14.535  12.188
75633SOL    HW228797  10.298  14.411  12.243
75634SOL     OW28798   2.301   0.720  11.039
75634SOL    HW128799   2.366   0.785  11.015
75634SOL    HW228800   2.341   0.636  11.017
75635SOL     OW28801   5.507   1.443   1.415
75635SOL    HW128802   5.546   1.528   1.392
75635SOL    HW228803   5.581   1.384   1.425
75636SOL     OW28804   0.503   9.078  10.777
75636SOL    HW128805   0.453   9.019  10.832
75636SOL    HW228806   0.487   9.165  10.814
75637SOL     OW28807   2.283   5.720   2.040
75637SOL    HW128808   2.371   5.694   2.068
75637SOL    HW228809   2.264   5.800   2.090
75638SOL     OW28810   6.095  12.282  13.159
75638SOL    HW128811   6.097  12.198  13.112
75638SOL    HW228812   6.013  12.280  13.208
75639SOL     OW28813   2.810   2.871   3.358
75639SOL    HW128814   2.738   2.824   3.402
75639SOL    HW228815   2.862   2.907   3.430
75640SOL     OW28816  10.449  12.272  12.393
75640SOL    HW128817  10.541  12.247  12.382
75640SOL    HW228818  10.450  12.338  12.462
75641SOL     OW28819   9.885   7.558  10.405
75641SOL    HW128820   9.911   7.650  10.412
75641SOL    HW228821   9.882   7.527  10.496
75642SOL     OW28822  11.094   4.076  13.210
75642SOL    HW128823  11.095   4.097  13.116
75642SOL    HW228824  11.062   3.986  13.214
75643SOL     OW28825  13.974  11.350   3.537
75643SOL    HW128826  13.975  11.344   3.632
75643SOL    HW228827  14.011  11.266   3.508
75644SOL     OW28828   6.533   8.692   9.687
75644SOL    HW128829   6.467   8.760   9.674
75644SOL    HW228830   6.577   8.716   9.768
75645SOL     OW28831   5.530   0.199   7.213
75645SOL    HW128832   5.578   0.120   7.186
75645SOL    HW228833   5.468   0.167   7.278
75646SOL     OW28834  12.118   9.776   0.501
75646SOL    HW128835  12.040   9.827   0.523
75646SOL    HW228836  12.123   9.781   0.405
75647SOL     OW28837  12.750   7.389   8.443
75647SOL    HW128838  12.728   7.458   8.506
75647SOL    HW228839  12.799   7.325   8.494
75648SOL     OW28840   7.932  10.788  12.640
75648SOL    HW128841   7.893  10.859  12.590
75648SOL    HW228842   7.857  10.740  12.676
75649SOL     OW28843  14.526   8.010   5.848
75649SOL    HW128844  14.470   8.066   5.901
75649SOL    HW228845  14.498   8.025   5.758
75650SOL     OW28846   9.722   4.557  13.694
75650SOL    HW128847   9.816   4.559  13.711
75650SOL    HW228848   9.685   4.617  13.759
75651SOL     OW28849   4.428  14.729   7.112
75651SOL    HW128850   4.393  14.645   7.082
75651SOL    HW228851   4.436  14.782   7.033
75652SOL     OW28852   3.167   1.116   8.789
75652SOL    HW128853   3.231   1.104   8.719
75652SOL    HW228854   3.082   1.097   8.748
75653SOL     OW28855   4.154   4.670   3.265
75653SOL    HW128856   4.245   4.644   3.257
75653SOL    HW228857   4.143   4.741   3.202
75654SOL     OW28858  10.801   8.187  13.485
75654SOL    HW128859  10.831   8.132  13.412
75654SOL    HW228860  10.790   8.125  13.558
75655SOL     OW28861  10.774   2.992  14.682
75655SOL    HW128862  10.720   2.929  14.730
75655SOL    HW228863  10.794   2.949  14.599
75656SOL     OW28864   8.201   9.241   4.789
75656SOL    HW128865   8.269   9.173   4.785
75656SOL    HW228866   8.248   9.322   4.771
75657SOL     OW28867  13.531  13.293   6.424
75657SOL    HW128868  13.527  13.243   6.505
75657SOL    HW228869  13.623  13.315   6.413
75658SOL     OW28870   6.286   7.123   1.119
75658SOL    HW128871   6.344   7.088   1.187
75658SOL    HW228872   6.237   7.047   1.087
75659SOL     OW28873   3.561   0.732   1.814
75659SOL    HW128874   3.657   0.734   1.815
75659SOL    HW228875   3.538   0.686   1.894
75660SOL     OW28876  14.273  13.959   5.965
75660SOL    HW128877  14.350  13.922   5.922
75660SOL    HW228878  14.199  13.914   5.924
75661SOL     OW28879   6.908  13.460   6.283
75661SOL    HW128880   6.845  13.523   6.248
75661SOL    HW228881   6.871  13.432   6.366
75662SOL     OW28882   7.322   8.640   2.645
75662SOL    HW128883   7.371   8.586   2.708
75662SOL    HW228884   7.238   8.596   2.636
75663SOL     OW28885   3.382  10.453  14.554
75663SOL    HW128886   3.333  10.381  14.515
75663SOL    HW228887   3.358  10.530  14.501
75664SOL     OW28888   0.347   4.640   4.219
75664SOL    HW128889   0.339   4.731   4.248
75664SOL    HW228890   0.264   4.600   4.243
75665SOL     OW28891  10.145   8.801  11.271
75665SOL    HW128892  10.154   8.865  11.200
75665SOL    HW228893  10.066   8.828  11.318
75666SOL     OW28894   4.081   5.541   5.615
75666SOL    HW128895   4.135   5.603   5.663
75666SOL    HW228896   3.991   5.561   5.643
75667SOL     OW28897   9.318   7.193   6.458
75667SOL    HW128898   9.401   7.183   6.411
75667SOL    HW228899   9.255   7.221   6.391
75668SOL     OW28900  10.913   0.410   3.539
75668SOL    HW128901  10.875   0.493   3.513
75668SOL    HW228902  10.982   0.394   3.474
75669SOL     OW28903   1.266   8.296  12.963
75669SOL    HW128904   1.357   8.265  12.963
75669SOL    HW228905   1.246   8.310  13.055
75670SOL     OW28906   7.999  13.414   6.969
75670SOL    HW128907   8.067  13.347   6.976
75670SOL    HW228908   7.944  13.400   7.046
75671SOL     OW28909  11.160   2.755   9.098
75671SOL    HW128910  11.143   2.669   9.060
75671SOL    HW228911  11.125   2.818   9.034
75672SOL     OW28912  14.700   3.346   1.495
75672SOL    HW128913  14.715   3.440   1.490
75672SOL    HW228914  14.764   3.315   1.559
75673SOL     OW28915   9.931   7.309  13.327
75673SOL    HW128916   9.839   7.335  13.325
75673SOL    HW228917   9.964   7.331  13.240
75674SOL     OW28918   8.473  13.986   6.223
75674SOL    HW128919   8.418  13.965   6.299
75674SOL    HW228920   8.563  13.985   6.258
75675SOL     OW28921   1.225   2.856   2.516
75675SOL    HW128922   1.163   2.783   2.521
75675SOL    HW228923   1.192   2.919   2.580
75676SOL     OW28924   0.063   8.972   4.349
75676SOL    HW128925   0.152   8.936   4.351
75676SOL    HW228926   0.014   8.920   4.413
75677SOL     OW28927   5.765   8.463   4.057
75677SOL    HW128928   5.760   8.385   4.113
75677SOL    HW228929   5.733   8.534   4.112
75678SOL     OW28930   5.611   8.955  10.898
75678SOL    HW128931   5.678   8.993  10.841
75678SOL    HW228932   5.654   8.943  10.982
75679SOL     OW28933  12.648   0.837  13.045
75679SOL    HW128934  12.589   0.901  13.083
75679SOL    HW228935  12.598   0.755  13.044
75680SOL     OW28936   7.599   1.516   8.370
75680SOL    HW128937   7.646   1.433   8.369
75680SOL    HW228938   7.661   1.580   8.335
75681SOL     OW28939  13.352   2.924   1.376
75681SOL    HW128940  13.403   2.867   1.318
75681SOL    HW228941  13.311   2.863   1.438
75682SOL     OW28942   3.771   0.074  11.484
75682SOL    HW128943   3.797   0.107  11.398
75682SOL    HW228944   3.714  14.869  11.465
75683SOL     OW28945  10.547   7.487   5.087
75683SOL    HW128946  10.481   7.420   5.104
75683SOL    HW228947  10.532   7.513   4.996
75684SOL     OW28948   2.466  11.964   0.702
75684SOL    HW128949   2.388  11.933   0.656
75684SOL    HW228950   2.431  12.019   0.772
75685SOL     OW28951  14.111   8.756  13.349
75685SOL    HW128952  14.195   8.800  13.343
75685SOL    HW228953  14.060   8.810  13.411
75686SOL     OW28954   3.088  12.114   9.274
75686SOL    HW128955   3.018  12.171   9.242
75686SOL    HW228956   3.169  12.158   9.246
75687SOL     OW28957   0.968   1.278   1.042
75687SOL    HW128958   0.900   1.295   0.977
75687SOL    HW228959   1.050   1.279   0.992
75688SOL     OW28960   0.551  12.755   5.637
75688SOL    HW128961   0.500  12.698   5.695
75688SOL    HW228962   0.538  12.718   5.550
75689SOL     OW28963   9.041   4.131  12.897
75689SOL    HW128964   9.034   4.210  12.950
75689SOL    HW228965   9.015   4.159  12.809
75690SOL     OW28966  10.529   0.108   1.878
75690SOL    HW128967  10.517   0.016   1.855
75690SOL    HW228968  10.597   0.108   1.945
75691SOL     OW28969   2.287  14.294   1.573
75691SOL    HW128970   2.195  14.318   1.585
75691SOL    HW228971   2.290  14.200   1.592
75692SOL     OW28972   7.931   2.489   7.911
75692SOL    HW128973   7.903   2.453   7.996
75692SOL    HW228974   7.948   2.581   7.929
75693SOL     OW28975   8.519   1.266   8.915
75693SOL    HW128976   8.564   1.338   8.958
75693SOL    HW228977   8.426   1.284   8.926
75694SOL     OW28978   1.797  11.176   6.566
75694SOL    HW128979   1.767  11.194   6.655
75694SOL    HW228980   1.722  11.136   6.523
75695SOL     OW28981   6.026   7.306   4.548
75695SOL    HW128982   6.005   7.215   4.527
75695SOL    HW228983   6.106   7.300   4.600
75696SOL     OW28984   6.519   3.740   4.276
75696SOL    HW128985   6.581   3.811   4.256
75696SOL    HW228986   6.441   3.784   4.308
75697SOL     OW28987  10.844  10.223   5.785
75697SOL    HW128988  10.790  10.153   5.749
75697SOL    HW228989  10.800  10.304   5.757
75698SOL     OW28990  10.332  14.508  11.601
75698SOL    HW128991  10.299  14.419  11.608
75698SOL    HW228992  10.296  14.553  11.677
75699SOL     OW28993   0.173   5.427   9.311
75699SOL    HW128994   0.195   5.508   9.357
75699SOL    HW228995   0.154   5.454   9.221
75700SOL     OW28996   7.009  11.767   1.778
75700SOL    HW128997   6.942  11.700   1.796
75700SOL    HW228998   6.960  11.849   1.775
75701SOL     OW28999   0.735   0.911   9.656
75701SOL    HW129000   0.668   0.859   9.700
75701SOL    HW229001   0.744   0.870   9.570
75702SOL     OW29002   4.202   5.443   1.801
75702SOL    HW129003   4.221   5.408   1.714
75702SOL    HW229004   4.287   5.471   1.835
75703SOL     OW29005   5.037  10.044   5.874
75703SOL    HW129006   4.987  10.097   5.935
75703SOL    HW229007   4.985   9.963   5.864
75704SOL     OW29008  10.679   3.922   9.225
75704SOL    HW129009  10.657   3.838   9.186
75704SOL    HW229010  10.702   3.978   9.151
75705SOL     OW29011   7.649  11.331   2.056
75705SOL    HW129012   7.650  11.241   2.023
75705SOL    HW229013   7.667  11.385   1.979
75706SOL     OW29014  10.456  11.035   7.132
75706SOL    HW129015  10.528  11.038   7.196
75706SOL    HW229016  10.386  10.987   7.177
75707SOL     OW29017   7.045   0.572   5.559
75707SOL    HW129018   7.088   0.654   5.537
75707SOL    HW229019   7.078   0.551   5.646
75708SOL     OW29020   0.671   9.692   3.282
75708SOL    HW129021   0.731   9.661   3.214
75708SOL    HW229022   0.587   9.701   3.238
75709SOL     OW29023   7.983  11.521   8.773
75709SOL    HW129024   7.915  11.559   8.829
75709SOL    HW229025   7.953  11.432   8.756
75710SOL     OW29026  10.943  14.579   0.517
75710SOL    HW129027  10.925  14.656   0.571
75710SOL    HW229028  10.888  14.591   0.439
75711SOL     OW29029   3.147   0.553   5.849
75711SOL    HW129030   3.103   0.516   5.773
75711SOL    HW229031   3.152   0.647   5.831
75712SOL     OW29032  10.688  14.855   2.247
75712SOL    HW129033  10.689   0.027   2.333
75712SOL    HW229034  10.736   0.047   2.191
75713SOL     OW29035  12.234   0.048  14.222
75713SOL    HW129036  12.219   0.011  14.135
75713SOL    HW229037  12.148   0.050  14.263
75714SOL     OW29038  10.079  10.925  11.723
75714SOL    HW129039  10.082  11.001  11.781
75714SOL    HW229040   9.986  10.915  11.701
75715SOL     OW29041   4.421   3.825   9.065
75715SOL    HW129042   4.395   3.839   9.156
75715SOL    HW229043   4.360   3.760   9.033
75716SOL     OW29044  12.024   6.982  13.646
75716SOL    HW129045  12.088   7.019  13.585
75716SOL    HW229046  11.985   6.909  13.598
75717SOL     OW29047   3.212  14.711  12.248
75717SOL    HW129048   3.266  14.699  12.327
75717SOL    HW229049   3.159  14.789  12.267
75718SOL     OW29050  13.402   9.222   2.501
75718SOL    HW129051  13.492   9.232   2.472
75718SOL    HW229052  13.370   9.311   2.514
75719SOL     OW29053   7.343   7.084   7.148
75719SOL    HW129054   7.259   7.119   7.118
75719SOL    HW229055   7.392   7.068   7.067
75720SOL     OW29056   5.864   3.027   1.333
75720SOL    HW129057   5.940   2.972   1.314
75720SOL    HW229058   5.901   3.110   1.363
75721SOL     OW29059  14.269   1.902   4.570
75721SOL    HW129060  14.324   1.974   4.601
75721SOL    HW229061  14.207   1.888   4.641
75722SOL     OW29062   1.687  10.738  11.457
75722SOL    HW129063   1.614  10.678  11.475
75722SOL    HW229064   1.654  10.795  11.387
75723SOL     OW29065   3.726   7.711   4.193
75723SOL    HW129066   3.735   7.682   4.284
75723SOL    HW229067   3.633   7.705   4.174
75724SOL     OW29068   5.045   5.319   8.792
75724SOL    HW129069   4.953   5.329   8.769
75724SOL    HW229070   5.091   5.318   8.708
75725SOL     OW29071   1.670  11.383   3.744
75725SOL    HW129072   1.765  11.381   3.740
75725SOL    HW229073   1.642  11.313   3.684
75726SOL     OW29074   5.791   6.581  13.654
75726SOL    HW129075   5.698   6.562  13.658
75726SOL    HW229076   5.822   6.570  13.744
75727SOL     OW29077  11.008  10.780   8.758
75727SOL    HW129078  10.997  10.688   8.734
75727SOL    HW229079  11.068  10.779   8.832
75728SOL     OW29080  14.185   3.930   1.467
75728SOL    HW129081  14.240   3.988   1.520
75728SOL    HW229082  14.096   3.944   1.500
75729SOL     OW29083  12.318   6.872   4.987
75729SOL    HW129084  12.250   6.821   4.944
75729SOL    HW229085  12.285   6.962   4.987
75730SOL     OW29086   8.601   8.210   7.622
75730SOL    HW129087   8.674   8.258   7.661
75730SOL    HW229088   8.642   8.135   7.578
75731SOL     OW29089   6.532  14.168   2.944
75731SOL    HW129090   6.497  14.243   2.896
75731SOL    HW229091   6.455  14.127   2.984
75732SOL     OW29092   7.284  10.677   6.270
75732SOL    HW129093   7.243  10.627   6.200
75732SOL    HW229094   7.234  10.759   6.273
75733SOL     OW29095   1.956  12.477  11.469
75733SOL    HW129096   2.004  12.398  11.494
75733SOL    HW229097   1.954  12.530  11.549
75734SOL     OW29098  13.846   9.941   2.699
75734SOL    HW129099  13.759   9.905   2.713
75734SOL    HW229100  13.886   9.943   2.786
75735SOL     OW29101  11.866   4.517  12.823
75735SOL    HW129102  11.907   4.483  12.744
75735SOL    HW229103  11.905   4.465  12.894
75736SOL     OW29104  14.181   1.367   2.796
75736SOL    HW129105  14.177   1.380   2.890
75736SOL    HW229106  14.220   1.280   2.785
75737SOL     OW29107  13.464  12.881   4.443
75737SOL    HW129108  13.509  12.832   4.512
75737SOL    HW229109  13.530  12.890   4.374
75738SOL     OW29110   9.265   5.212  12.227
75738SOL    HW129111   9.291   5.225  12.136
75738SOL    HW229112   9.319   5.140  12.257
75739SOL     OW29113   0.034   7.098   5.595
75739SOL    HW129114   0.047   7.031   5.528
75739SOL    HW229115   0.110   7.155   5.587
75740SOL     OW29116   1.749   1.754   1.360
75740SOL    HW129117   1.732   1.846   1.382
75740SOL    HW229118   1.822   1.729   1.417
75741SOL     OW29119   1.543   2.308  12.967
75741SOL    HW129120   1.509   2.220  12.951
75741SOL    HW229121   1.633   2.306  12.934
75742SOL     OW29122   9.042   5.286  10.763
75742SOL    HW129123   8.953   5.300  10.730
75742SOL    HW229124   9.092   5.360  10.729
75743SOL     OW29125   5.895   5.493   9.826
75743SOL    HW129126   5.943   5.421   9.786
75743SOL    HW229127   5.950   5.519   9.901
75744SOL     OW29128  10.555  14.314   4.128
75744SOL    HW129129  10.548  14.408   4.110
75744SOL    HW229130  10.476  14.293   4.178
75745SOL     OW29131  10.636   2.056  11.241
75745SOL    HW129132  10.599   2.144  11.250
75745SOL    HW229133  10.636   2.039  11.147
75746SOL     OW29134  12.812   7.082  10.277
75746SOL    HW129135  12.723   7.078  10.312
75746SOL    HW229136  12.854   7.002  10.308
75747SOL     OW29137   3.357  11.722   3.813
75747SOL    HW129138   3.326  11.757   3.896
75747SOL    HW229139   3.420  11.786   3.781
75748SOL     OW29140  11.275   4.588  14.547
75748SOL    HW129141  11.265   4.675  14.585
75748SOL    HW229142  11.263   4.528  14.620
75749SOL     OW29143  13.578   7.235  12.166
75749SOL    HW129144  13.511   7.229  12.234
75749SOL    HW229145  13.539   7.194  12.089
75750SOL     OW29146  10.871  10.710  13.509
75750SOL    HW129147  10.894  10.750  13.593
75750SOL    HW229148  10.853  10.784  13.451
75751SOL     OW29149   3.047   6.811   3.147
75751SOL    HW129150   3.125   6.757   3.155
75751SOL    HW229151   2.974   6.750   3.155
75752SOL     OW29152  14.743   9.521   0.422
75752SOL    HW129153  14.790   9.454   0.473
75752SOL    HW229154  14.682   9.560   0.484
75753SOL     OW29155   9.356   9.726   5.724
75753SOL    HW129156   9.400   9.693   5.802
75753SOL    HW229157   9.386   9.817   5.716
75754SOL     OW29158   3.511  10.948   7.390
75754SOL    HW129159   3.466  11.002   7.326
75754SOL    HW229160   3.596  10.928   7.351
75755SOL     OW29161  12.951  10.503  11.558
75755SOL    HW129162  12.986  10.450  11.630
75755SOL    HW229163  12.987  10.463  11.479
75756SOL     OW29164  10.975   5.278   7.106
75756SOL    HW129165  10.928   5.346   7.058
75756SOL    HW229166  11.003   5.216   7.039
75757SOL     OW29167   8.579  11.901   2.934
75757SOL    HW129168   8.545  11.991   2.931
75757SOL    HW229169   8.673  11.911   2.949
75758SOL     OW29170   9.455   4.680  11.073
75758SOL    HW129171   9.398   4.706  11.146
75758SOL    HW229172   9.544   4.694  11.106
75759SOL     OW29173   7.319  12.605   4.693
75759SOL    HW129174   7.380  12.673   4.662
75759SOL    HW229175   7.278  12.644   4.770
75760SOL     OW29176   7.375   6.301   6.819
75760SOL    HW129177   7.337   6.321   6.734
75760SOL    HW229178   7.377   6.385   6.865
75761SOL     OW29179   7.549   4.566  12.739
75761SOL    HW129180   7.572   4.656  12.714
75761SOL    HW229181   7.569   4.562  12.833
75762SOL     OW29182  10.600   1.606  11.456
75762SOL    HW129183  10.611   1.571  11.368
75762SOL    HW229184  10.614   1.700  11.447
75763SOL     OW29185  14.206   3.599   1.650
75763SOL    HW129186  14.127   3.561   1.613
75763SOL    HW229187  14.275   3.536   1.628
75764SOL     OW29188   9.150   4.947   3.834
75764SOL    HW129189   9.142   5.004   3.910
75764SOL    HW229190   9.111   4.864   3.861
75765SOL     OW29191   4.605  13.433  11.275
75765SOL    HW129192   4.551  13.369  11.321
75765SOL    HW229193   4.695  13.400  11.286
75766SOL     OW29194   0.714   2.185   2.862
75766SOL    HW129195   0.774   2.254   2.836
75766SOL    HW229196   0.768   2.120   2.906
75767SOL     OW29197  12.297   0.469   9.894
75767SOL    HW129198  12.226   0.477   9.830
75767SOL    HW229199  12.311   0.375   9.902
75768SOL     OW29200   6.901  12.549   4.068
75768SOL    HW129201   6.873  12.605   3.996
75768SOL    HW229202   6.991  12.524   4.045
75769SOL     OW29203  10.906   7.379   4.067
75769SOL    HW129204  10.820   7.372   4.026
75769SOL    HW229205  10.964   7.406   3.995
75770SOL     OW29206  13.735   9.464   6.704
75770SOL    HW129207  13.658   9.516   6.724
75770SOL    HW229208  13.731   9.450   6.609
75771SOL     OW29209   9.568   8.300   2.985
75771SOL    HW129210   9.502   8.294   2.916
75771SOL    HW229211   9.651   8.305   2.939
75772SOL     OW29212   5.716  14.280   6.621
75772SOL    HW129213   5.772  14.352   6.593
75772SOL    HW229214   5.761  14.242   6.695
75773SOL     OW29215   8.197   3.461   3.214
75773SOL    HW129216   8.225   3.536   3.267
75773SOL    HW229217   8.162   3.500   3.134
75774SOL     OW29218   0.337   7.528   6.857
75774SOL    HW129219   0.335   7.451   6.801
75774SOL    HW229220   0.255   7.574   6.838
75775SOL     OW29221  14.717   2.033  11.934
75775SOL    HW129222  14.729   1.956  11.990
75775SOL    HW229223  14.792   2.089  11.954
75776SOL     OW29224   9.957  11.826   9.831
75776SOL    HW129225   9.972  11.909   9.786
75776SOL    HW229226   9.962  11.760   9.762
75777SOL     OW29227   0.712  11.028   6.834
75777SOL    HW129228   0.707  10.978   6.916
75777SOL    HW229229   0.740  11.116   6.861
75778SOL     OW29230  11.001   7.966  12.002
75778SOL    HW129231  11.054   7.992  11.927
75778SOL    HW229232  10.942   7.898  11.968
75779SOL     OW29233   2.230   9.430   9.546
75779SOL    HW129234   2.284   9.430   9.625
75779SOL    HW229235   2.171   9.355   9.557
75780SOL     OW29236   0.712   2.196  13.859
75780SOL    HW129237   0.797   2.188  13.903
75780SOL    HW229238   0.703   2.290  13.841
75781SOL     OW29239   7.236  12.647  14.469
75781SOL    HW129240   7.157  12.644  14.524
75781SOL    HW229241   7.276  12.561  14.481
75782SOL     OW29242  12.087   6.443   3.355
75782SOL    HW129243  12.078   6.495   3.434
75782SOL    HW229244  12.082   6.506   3.283
75783SOL     OW29245  12.336   0.598   2.002
75783SOL    HW129246  12.332   0.620   1.909
75783SOL    HW229247  12.245   0.603   2.031
75784SOL     OW29248  11.006  12.319  14.511
75784SOL    HW129249  11.049  12.276  14.585
75784SOL    HW229250  10.944  12.254  14.478
75785SOL     OW29251   9.574   5.035   5.951
75785SOL    HW129252   9.521   5.054   5.874
75785SOL    HW229253   9.565   4.940   5.963
75786SOL     OW29254   5.414   3.292   2.197
75786SOL    HW129255   5.320   3.277   2.184
75786SOL    HW229256   5.431   3.257   2.285
75787SOL     OW29257   4.767   5.700   4.425
75787SOL    HW129258   4.781   5.635   4.494
75787SOL    HW229259   4.847   5.753   4.427
75788SOL     OW29260  13.897  14.795   3.212
75788SOL    HW129261  13.880   0.005   3.162
75788SOL    HW229262  13.979  14.813   3.258
75789SOL     OW29263  12.997   6.508   2.802
75789SOL    HW129264  12.994   6.493   2.897
75789SOL    HW229265  12.966   6.426   2.764
75790SOL     OW29266   4.055   4.776   4.378
75790SOL    HW129267   4.104   4.830   4.440
75790SOL    HW229268   4.122   4.733   4.325
75791SOL     OW29269   4.091   7.195   7.406
75791SOL    HW129270   3.999   7.174   7.417
75791SOL    HW229271   4.116   7.236   7.489
75792SOL     OW29272   2.836   3.660  10.022
75792SOL    HW129273   2.756   3.707   9.999
75792SOL    HW229274   2.882   3.648   9.938
75793SOL     OW29275   9.649  14.658   7.986
75793SOL    HW129276   9.647  14.607   7.905
75793SOL    HW229277   9.716  14.725   7.970
75794SOL     OW29278   4.748   0.929   8.572
75794SOL    HW129279   4.775   0.843   8.541
75794SOL    HW229280   4.770   0.988   8.500
75795SOL     OW29281   5.555  10.427   9.286
75795SOL    HW129282   5.559  10.512   9.330
75795SOL    HW229283   5.578  10.447   9.195
75796SOL     OW29284  11.501   3.133   4.858
75796SOL    HW129285  11.543   3.187   4.790
75796SOL    HW229286  11.408   3.152   4.848
75797SOL     OW29287  12.856  12.262   2.925
75797SOL    HW129288  12.893  12.247   3.012
75797SOL    HW229289  12.869  12.179   2.879
75798SOL     OW29290   2.170   8.989   6.898
75798SOL    HW129291   2.087   9.033   6.879
75798SOL    HW229292   2.167   8.909   6.846
75799SOL     OW29293   3.445  10.173   6.540
75799SOL    HW129294   3.459  10.240   6.474
75799SOL    HW229295   3.395  10.218   6.609
75800SOL     OW29296  14.261  10.640   9.298
75800SOL    HW129297  14.254  10.672   9.388
75800SOL    HW229298  14.284  10.717   9.247
75801SOL     OW29299  10.470  11.629   9.005
75801SOL    HW129300  10.502  11.671   8.925
75801SOL    HW229301  10.480  11.536   8.988
75802SOL     OW29302   0.808   6.548   0.616
75802SOL    HW129303   0.809   6.473   0.675
75802SOL    HW229304   0.898   6.582   0.619
75803SOL     OW29305  14.735   6.210   0.827
75803SOL    HW129306  14.682   6.140   0.866
75803SOL    HW229307  14.707   6.213   0.735
75804SOL     OW29308  12.535   8.210   2.488
75804SOL    HW129309  12.590   8.229   2.564
75804SOL    HW229310  12.447   8.235   2.515
75805SOL     OW29311   1.487  11.247   8.852
75805SOL    HW129312   1.486  11.341   8.834
75805SOL    HW229313   1.402  11.216   8.823
75806SOL     OW29314  11.607   4.108   5.039
75806SOL    HW129315  11.588   4.194   5.077
75806SOL    HW229316  11.676   4.125   4.976
75807SOL     OW29317   9.616  10.377  12.517
75807SOL    HW129318   9.528  10.379  12.480
75807SOL    HW229319   9.673  10.359  12.443
75808SOL     OW29320   5.843   7.704   9.354
75808SOL    HW129321   5.783   7.691   9.281
75808SOL    HW229322   5.930   7.686   9.317
75809SOL     OW29323  13.452   3.984   5.920
75809SOL    HW129324  13.453   4.013   5.829
75809SOL    HW229325  13.545   3.980   5.944
75810SOL     OW29326  14.488   4.641  14.456
75810SOL    HW129327  14.516   4.689  14.378
75810SOL    HW229328  14.483   4.550  14.427
75811SOL     OW29329   1.104   0.072  10.361
75811SOL    HW129330   1.156   0.012  10.308
75811SOL    HW229331   1.088   0.147  10.304
75812SOL     OW29332  14.145   0.751   3.631
75812SOL    HW129333  14.234   0.786   3.642
75812SOL    HW229334  14.090   0.828   3.620
75813SOL     OW29335   6.964  13.086  12.916
75813SOL    HW129336   6.869  13.095  12.917
75813SOL    HW229337   6.980  12.992  12.924
75814SOL     OW29338   4.936  11.296   4.717
75814SOL    HW129339   4.905  11.351   4.645
75814SOL    HW229340   4.885  11.325   4.792
75815SOL     OW29341   6.499   1.051   3.350
75815SOL    HW129342   6.482   1.052   3.444
75815SOL    HW229343   6.575   1.108   3.339
75816SOL     OW29344   9.387  10.915   1.605
75816SOL    HW129345   9.394  10.896   1.699
75816SOL    HW229346   9.368  10.830   1.565
75817SOL     OW29347   6.438   8.074   9.494
75817SOL    HW129348   6.533   8.070   9.500
75817SOL    HW229349   6.420   8.158   9.451
75818SOL     OW29350   4.562   0.256   3.994
75818SOL    HW129351   4.531   0.217   3.912
75818SOL    HW229352   4.652   0.223   4.003
75819SOL     OW29353   1.718  10.120   0.041
75819SOL    HW129354   1.785  10.053   0.032
75819SOL    HW229355   1.636  10.072   0.052
75820SOL     OW29356   5.853   7.427  11.836
75820SOL    HW129357   5.821   7.338  11.850
75820SOL    HW229358   5.831   7.447  11.745
75821SOL     OW29359   9.650   5.074   8.564
75821SOL    HW129360   9.719   5.015   8.534
75821SOL    HW229361   9.593   5.019   8.617
75822SOL     OW29362   3.715   5.163   4.254
75822SOL    HW129363   3.620   5.175   4.255
75822SOL    HW229364   3.732   5.110   4.176
75823SOL     OW29365   6.550   7.716  13.776
75823SOL    HW129366   6.461   7.696  13.747
75823SOL    HW229367   6.545   7.712  13.872
75824SOL     OW29368   2.188   7.336  11.412
75824SOL    HW129369   2.157   7.315  11.323
75824SOL    HW229370   2.195   7.251  11.456
75825SOL     OW29371   8.588   5.844   4.533
75825SOL    HW129372   8.519   5.910   4.539
75825SOL    HW229373   8.636   5.853   4.615
75826SOL     OW29374  12.266   9.300   6.170
75826SOL    HW129375  12.352   9.273   6.203
75826SOL    HW229376  12.260   9.261   6.083
75827SOL     OW29377  10.095   7.831  14.190
75827SOL    HW129378  10.161   7.771  14.156
75827SOL    HW229379  10.073   7.888  14.116
75828SOL     OW29380   4.817   5.120   1.720
75828SOL    HW129381   4.753   5.070   1.771
75828SOL    HW229382   4.895   5.063   1.717
75829SOL     OW29383   2.334   9.253  11.459
75829SOL    HW129384   2.397   9.231  11.391
75829SOL    HW229385   2.362   9.338  11.492
75830SOL     OW29386   9.649   5.692   3.917
75830SOL    HW129387   9.670   5.774   3.962
75830SOL    HW229388   9.732   5.663   3.880
75831SOL     OW29389   0.499  12.380   4.162
75831SOL    HW129390   0.522  12.300   4.209
75831SOL    HW229391   0.534  12.451   4.216
75832SOL     OW29392   3.199   9.937   7.465
75832SOL    HW129393   3.127   9.976   7.515
75832SOL    HW229394   3.246   9.883   7.529
75833SOL     OW29395  14.219   6.655   6.386
75833SOL    HW129396  14.200   6.708   6.310
75833SOL    HW229397  14.157   6.685   6.453
75834SOL     OW29398   8.050   6.190   1.210
75834SOL    HW129399   7.959   6.170   1.232
75834SOL    HW229400   8.077   6.253   1.277
75835SOL     OW29401  13.585  10.703   5.483
75835SOL    HW129402  13.524  10.658   5.541
75835SOL    HW229403  13.573  10.661   5.398
75836SOL     OW29404  11.672   7.322   0.565
75836SOL    HW129405  11.736   7.318   0.635
75836SOL    HW229406  11.596   7.275   0.599
75837SOL     OW29407  12.194  11.596   9.166
75837SOL    HW129408  12.157  11.608   9.254
75837SOL    HW229409  12.261  11.663   9.158
75838SOL     OW29410  13.726   4.098   3.136
75838SOL    HW129411  13.700   4.189   3.147
75838SOL    HW229412  13.670   4.050   3.197
75839SOL     OW29413  13.764  11.404   6.344
75839SOL    HW129414  13.697  11.351   6.387
75839SOL    HW229415  13.806  11.345   6.283
75840SOL     OW29416   7.641   0.177  10.580
75840SOL    HW129417   7.551   0.200  10.557
75840SOL    HW229418   7.640   0.081  10.587
75841SOL     OW29419  13.313   7.392   6.168
75841SOL    HW129420  13.371   7.401   6.093
75841SOL    HW229421  13.225   7.384   6.129
75842SOL     OW29422  11.289   3.502  11.093
75842SOL    HW129423  11.384   3.495  11.096
75842SOL    HW229424  11.268   3.508  11.000
75843SOL     OW29425   3.566   5.343   3.518
75843SOL    HW129426   3.590   5.403   3.447
75843SOL    HW229427   3.482   5.376   3.550
75844SOL     OW29428   6.060   6.208   7.403
75844SOL    HW129429   6.004   6.271   7.448
75844SOL    HW229430   6.133   6.193   7.462
75845SOL     OW29431  11.034   6.451  14.864
75845SOL    HW129432  11.031   6.376   0.054
75845SOL    HW229433  10.943   6.471  14.845
75846SOL     OW29434   0.389  13.318  13.467
75846SOL    HW129435   0.296  13.305  13.483
75846SOL    HW229436   0.422  13.354  13.549
75847SOL     OW29437  12.329   5.166  12.851
75847SOL    HW129438  12.285   5.163  12.936
75847SOL    HW229439  12.372   5.252  12.849
75848SOL     OW29440   7.433  14.797  10.693
75848SOL    HW129441   7.384  14.868  10.735
75848SOL    HW229442   7.482  14.757  10.765
75849SOL     OW29443   7.548  14.385   9.675
75849SOL    HW129444   7.513  14.386   9.764
75849SOL    HW229445   7.641  14.409   9.685
75850SOL     OW29446   9.825   9.624   4.353
75850SOL    HW129447   9.868   9.698   4.311
75850SOL    HW229448   9.752   9.662   4.401
75851SOL     OW29449   4.291  13.898   0.973
75851SOL    HW129450   4.281  13.907   0.878
75851SOL    HW229451   4.202  13.899   1.007
75852SOL     OW29452   2.127  10.803  13.252
75852SOL    HW129453   2.163  10.807  13.164
75852SOL    HW229454   2.192  10.847  13.307
75853SOL     OW29455   7.487   5.634   8.064
75853SOL    HW129456   7.418   5.698   8.051
75853SOL    HW229457   7.525   5.621   7.977
75854SOL     OW29458   0.923   8.062  11.357
75854SOL    HW129459   0.868   7.998  11.313
75854SOL    HW229460   0.929   8.135  11.296
75855SOL     OW29461   4.044   8.319   3.333
75855SOL    HW129462   4.131   8.358   3.334
75855SOL    HW229463   3.984   8.392   3.320
75856SOL     OW29464   4.780   0.531   4.863
75856SOL    HW129465   4.786   0.620   4.898
75856SOL    HW229466   4.696   0.498   4.896
75857SOL     OW29467   0.639   3.454  10.271
75857SOL    HW129468   0.573   3.521  10.286
75857SOL    HW229469   0.671   3.431  10.358
75858SOL     OW29470   3.827   6.541   1.753
75858SOL    HW129471   3.898   6.559   1.814
75858SOL    HW229472   3.848   6.456   1.715
75859SOL     OW29473   2.941   8.416  14.168
75859SOL    HW129474   2.941   8.508  14.144
75859SOL    HW229475   2.902   8.372  14.092
75860SOL     OW29476   6.764   4.699  14.165
75860SOL    HW129477   6.684   4.654  14.193
75860SOL    HW229478   6.780   4.764  14.232
75861SOL     OW29479   4.033   7.280   3.096
75861SOL    HW129480   4.127   7.265   3.105
75861SOL    HW229481   4.016   7.357   3.149
75862SOL     OW29482  11.546  11.221  11.548
75862SOL    HW129483  11.634  11.227  11.587
75862SOL    HW229484  11.559  11.248  11.457
75863SOL     OW29485  12.029   3.827  13.432
75863SOL    HW129486  11.988   3.742  13.447
75863SOL    HW229487  12.018   3.874  13.514
75864SOL     OW29488   3.428   2.922   0.112
75864SOL    HW129489   3.402   2.835   0.080
75864SOL    HW229490   3.431   2.912   0.208
75865SOL     OW29491   0.087  14.237  13.703
75865SOL    HW129492   0.011  14.213  13.651
75865SOL    HW229493   0.159  14.188  13.664
75866SOL     OW29494   4.515   2.190  11.308
75866SOL    HW129495   4.496   2.179  11.401
75866SOL    HW229496   4.458   2.126  11.264
75867SOL     OW29497  11.604  10.772   2.235
75867SOL    HW129498  11.575  10.688   2.269
75867SOL    HW229499  11.570  10.837   2.297
75868SOL     OW29500  12.905  14.379   4.381
75868SOL    HW129501  12.813  14.395   4.360
75868SOL    HW229502  12.945  14.359   4.296
75869SOL     OW29503   8.818   4.328  11.063
75869SOL    HW129504   8.744   4.298  11.010
75869SOL    HW229505   8.812   4.277  11.144
75870SOL     OW29506  11.589   3.957   1.111
75870SOL    HW129507  11.635   3.970   1.028
75870SOL    HW229508  11.644   3.896   1.160
75871SOL     OW29509   1.391  11.020   8.246
75871SOL    HW129510   1.407  11.044   8.337
75871SOL    HW229511   1.362  11.101   8.205
75872SOL     OW29512   9.405  10.983   9.737
75872SOL    HW129513   9.348  10.967   9.813
75872SOL    HW229514   9.377  11.068   9.704
75873SOL     OW29515   8.398   2.821  10.278
75873SOL    HW129516   8.487   2.851  10.296
75873SOL    HW229517   8.360   2.891  10.224
75874SOL     OW29518   6.457   1.139   8.324
75874SOL    HW129519   6.463   1.234   8.333
75874SOL    HW229520   6.503   1.105   8.400
75875SOL     OW29521   6.277   2.819  12.010
75875SOL    HW129522   6.209   2.886  12.005
75875SOL    HW229523   6.249   2.751  11.948
75876SOL     OW29524   9.421  13.588  10.681
75876SOL    HW129525   9.391  13.675  10.655
75876SOL    HW229526   9.501  13.605  10.731
75877SOL     OW29527   8.964  11.111   3.391
75877SOL    HW129528   8.870  11.124   3.379
75877SOL    HW229529   8.988  11.171   3.462
75878SOL     OW29530   5.962  11.857  11.046
75878SOL    HW129531   5.880  11.819  11.016
75878SOL    HW229532   6.018  11.781  11.065
75879SOL     OW29533   1.775   4.332   7.549
75879SOL    HW129534   1.758   4.239   7.562
75879SOL    HW229535   1.790   4.340   7.454
75880SOL     OW29536   8.034   6.498  10.709
75880SOL    HW129537   7.985   6.496  10.627
75880SOL    HW229538   8.073   6.585  10.712
75881SOL     OW29539   8.135  12.507  13.157
75881SOL    HW129540   8.053  12.554  13.144
75881SOL    HW229541   8.175  12.549  13.233
75882SOL     OW29542   3.000   1.907  14.570
75882SOL    HW129543   2.996   1.831  14.512
75882SOL    HW229544   3.061   1.882  14.639
75883SOL     OW29545  12.635   8.646   2.163
75883SOL    HW129546  12.627   8.652   2.259
75883SOL    HW229547  12.556   8.600   2.136
75884SOL     OW29548   1.605  14.470   3.667
75884SOL    HW129549   1.686  14.513   3.695
75884SOL    HW229550   1.587  14.405   3.736
75885SOL     OW29551   5.683  13.721  14.485
75885SOL    HW129552   5.667  13.730  14.391
75885SOL    HW229553   5.732  13.639  14.493
75886SOL     OW29554   3.061  11.193   7.944
75886SOL    HW129555   3.109  11.155   7.871
75886SOL    HW229556   2.973  11.155   7.938
75887SOL     OW29557   5.017   1.759  12.523
75887SOL    HW129558   5.048   1.849  12.527
75887SOL    HW229559   5.022   1.728  12.613
75888SOL     OW29560  12.449   6.262  10.220
75888SOL    HW129561  12.400   6.193  10.175
75888SOL    HW229562  12.410   6.343  10.188
75889SOL     OW29563  11.179   7.609   9.327
75889SOL    HW129564  11.142   7.649   9.406
75889SOL    HW229565  11.103   7.584   9.275
75890SOL     OW29566   2.122   7.695   8.137
75890SOL    HW129567   2.131   7.669   8.045
75890SOL    HW229568   2.055   7.763   8.137
75891SOL     OW29569  11.587   1.844   5.879
75891SOL    HW129570  11.675   1.820   5.909
75891SOL    HW229571  11.579   1.937   5.901
75892SOL     OW29572   9.267   4.064  11.785
75892SOL    HW129573   9.313   3.998  11.837
75892SOL    HW229574   9.329   4.136  11.777
75893SOL     OW29575   3.391   2.290   6.678
75893SOL    HW129576   3.409   2.227   6.747
75893SOL    HW229577   3.448   2.365   6.697
75894SOL     OW29578  14.087   8.748   7.089
75894SOL    HW129579  14.137   8.701   7.156
75894SOL    HW229580  14.144   8.747   7.012
75895SOL     OW29581  14.481   3.249   4.207
75895SOL    HW129582  14.393   3.249   4.169
75895SOL    HW229583  14.518   3.333   4.180
75896SOL     OW29584  11.212   0.070   1.710
75896SOL    HW129585  11.270   0.142   1.683
75896SOL    HW229586  11.148   0.064   1.639
75897SOL     OW29587   9.300  10.037  13.750
75897SOL    HW129588   9.305   9.944  13.773
75897SOL    HW229589   9.241  10.075  13.814
75898SOL     OW29590   1.789   9.379   9.436
75898SOL    HW129591   1.805   9.291   9.471
75898SOL    HW229592   1.785   9.366   9.341
75899SOL     OW29593   5.237   8.007   8.727
75899SOL    HW129594   5.288   7.951   8.670
75899SOL    HW229595   5.161   8.034   8.674
75900SOL     OW29596   8.961  12.670   3.517
75900SOL    HW129597   8.983  12.591   3.566
75900SOL    HW229598   9.032  12.731   3.537
75901SOL     OW29599  14.708  12.269  13.202
75901SOL    HW129600  14.652  12.329  13.154
75901SOL    HW229601  14.728  12.314  13.284
75902SOL     OW29602   1.554   2.632  11.859
75902SOL    HW129603   1.513   2.713  11.891
75902SOL    HW229604   1.621   2.663  11.798
75903SOL     OW29605   1.838   1.354   4.821
75903SOL    HW129606   1.857   1.382   4.910
75903SOL    HW229607   1.792   1.428   4.781
75904SOL     OW29608   6.501   4.603   0.962
75904SOL    HW129609   6.444   4.528   0.948
75904SOL    HW229610   6.573   4.570   1.016
75905SOL     OW29611  11.244   2.239   8.073
75905SOL    HW129612  11.335   2.264   8.089
75905SOL    HW229613  11.250   2.173   8.004
75906SOL     OW29614   2.579   6.518  11.202
75906SOL    HW129615   2.675   6.515  11.201
75906SOL    HW229616   2.554   6.454  11.135
75907SOL     OW29617   5.779   4.358  12.264
75907SOL    HW129618   5.773   4.329  12.355
75907SOL    HW229619   5.748   4.448  12.266
75908SOL     OW29620   3.545  13.874   7.619
75908SOL    HW129621   3.514  13.791   7.583
75908SOL    HW229622   3.574  13.852   7.707
75909SOL     OW29623  13.952   1.207   8.683
75909SOL    HW129624  14.042   1.174   8.684
75909SOL    HW229625  13.928   1.213   8.775
75910SOL     OW29626   3.995   9.107   4.296
75910SOL    HW129627   3.936   9.167   4.251
75910SOL    HW229628   3.967   9.020   4.267
75911SOL     OW29629   5.710   0.299  11.206
75911SOL    HW129630   5.672   0.311  11.119
75911SOL    HW229631   5.738   0.387  11.232
75912SOL     OW29632   2.730   2.951  10.952
75912SOL    HW129633   2.788   2.893  10.902
75912SOL    HW229634   2.772   3.037  10.947
75913SOL     OW29635   4.030  12.033  11.072
75913SOL    HW129636   4.069  11.979  11.004
75913SOL    HW229637   4.078  12.010  11.152
75914SOL     OW29638  12.514   8.783   9.077
75914SOL    HW129639  12.521   8.689   9.058
75914SOL    HW229640  12.458   8.788   9.155
75915SOL     OW29641   2.995   0.606  10.821
75915SOL    HW129642   2.995   0.511  10.836
75915SOL    HW229643   3.067   0.621  10.760
75916SOL     OW29644   8.365  12.867   5.951
75916SOL    HW129645   8.317  12.944   5.982
75916SOL    HW229646   8.353  12.802   6.019
75917SOL     OW29647   9.044   0.757   6.397
75917SOL    HW129648   8.970   0.703   6.368
75917SOL    HW229649   9.093   0.776   6.316
75918SOL     OW29650   7.507  10.645  13.689
75918SOL    HW129651   7.515  10.702  13.766
75918SOL    HW229652   7.586  10.592  13.690
75919SOL     OW29653  12.417   7.506  11.302
75919SOL    HW129654  12.500   7.522  11.347
75919SOL    HW229655  12.383   7.593  11.281
75920SOL     OW29656   7.350   0.316   4.103
75920SOL    HW129657   7.397   0.377   4.159
75920SOL    HW229658   7.308   0.255   4.164
75921SOL     OW29659  11.172   8.724   3.204
75921SOL    HW129660  11.138   8.722   3.115
75921SOL    HW229661  11.104   8.681   3.257
75922SOL     OW29662   3.272  10.566   3.231
75922SOL    HW129663   3.302  10.606   3.312
75922SOL    HW229664   3.295  10.473   3.239
75923SOL     OW29665   7.070   1.381   0.289
75923SOL    HW129666   7.103   1.467   0.315
75923SOL    HW229667   7.140   1.344   0.235
75924SOL     OW29668   9.299  14.029   5.407
75924SOL    HW129669   9.286  14.124   5.415
75924SOL    HW229670   9.234  13.991   5.467
75925SOL     OW29671   6.419  14.838   7.976
75925SOL    HW129672   6.512  14.860   7.975
75925SOL    HW229673   6.374   0.052   7.960
75926SOL     OW29674   5.347   1.747   6.445
75926SOL    HW129675   5.380   1.690   6.375
75926SOL    HW229676   5.254   1.756   6.426
75927SOL     OW29677   9.639   3.112   0.602
75927SOL    HW129678   9.730   3.138   0.618
75927SOL    HW229679   9.620   3.047   0.670
75928SOL     OW29680   4.148   6.574   7.367
75928SOL    HW129681   4.094   6.503   7.333
75928SOL    HW229682   4.133   6.647   7.308
75929SOL     OW29683   8.202  10.188   6.190
75929SOL    HW129684   8.114  10.149   6.189
75929SOL    HW229685   8.255  10.126   6.240
75930SOL     OW29686   8.924   0.961   8.304
75930SOL    HW129687   8.887   0.936   8.219
75930SOL    HW229688   8.850   0.952   8.365
75931SOL     OW29689   4.264   7.342   7.613
75931SOL    HW129690   4.309   7.315   7.694
75931SOL    HW229691   4.213   7.419   7.639
75932SOL     OW29692   3.626   7.332   3.323
75932SOL    HW129693   3.587   7.298   3.243
75932SOL    HW229694   3.709   7.284   3.331
75933SOL     OW29695   5.449   3.983   8.321
75933SOL    HW129696   5.424   4.061   8.273
75933SOL    HW229697   5.416   3.910   8.268
75934SOL     OW29698   1.159   9.527   1.797
75934SOL    HW129699   1.241   9.481   1.775
75934SOL    HW229700   1.184   9.589   1.866
75935SOL     OW29701  14.088  12.959   9.240
75935SOL    HW129702  14.177  12.960   9.277
75935SOL    HW229703  14.077  13.045   9.200
75936SOL     OW29704   8.282   4.667  11.396
75936SOL    HW129705   8.197   4.701  11.367
75936SOL    HW229706   8.330   4.743  11.427
75937SOL     OW29707  13.781   4.856  11.508
75937SOL    HW129708  13.721   4.883  11.577
75937SOL    HW229709  13.855   4.817  11.555
75938SOL     OW29710   3.344   9.592   4.359
75938SOL    HW129711   3.292   9.664   4.324
75938SOL    HW229712   3.284   9.543   4.415
75939SOL     OW29713   3.054   4.271   4.380
75939SOL    HW129714   2.973   4.320   4.397
75939SOL    HW229715   3.081   4.300   4.293
75940SOL     OW29716   2.928   2.080  11.769
75940SOL    HW129717   3.018   2.068  11.799
75940SOL    HW229718   2.897   2.157  11.816
75941SOL     OW29719   0.976  11.092   8.955
75941SOL    HW129720   0.982  11.153   9.028
75941SOL    HW229721   0.890  11.108   8.917
75942SOL     OW29722  14.092  14.392   1.228
75942SOL    HW129723  14.038  14.446   1.286
75942SOL    HW229724  14.035  14.373   1.153
75943SOL     OW29725   6.441   1.753  11.112
75943SOL    HW129726   6.474   1.673  11.072
75943SOL    HW229727   6.349   1.736  11.129
75944SOL     OW29728   8.329   2.992  12.578
75944SOL    HW129729   8.268   3.009  12.506
75944SOL    HW229730   8.386   3.069  12.579
75945SOL     OW29731   5.908   6.097   7.092
75945SOL    HW129732   5.897   6.100   6.996
75945SOL    HW229733   5.920   6.005   7.112
75946SOL     OW29734  12.792  11.710  14.810
75946SOL    HW129735  12.735  11.762  14.866
75946SOL    HW229736  12.843  11.657   0.001
75947SOL     OW29737  10.306   2.084   7.553
75947SOL    HW129738  10.402   2.085   7.547
75947SOL    HW229739  10.280   2.002   7.511
75948SOL     OW29740  12.742   5.941  12.353
75948SOL    HW129741  12.828   5.949  12.313
75948SOL    HW229742  12.739   5.851  12.385
75949SOL     OW29743  11.277  10.130   9.800
75949SOL    HW129744  11.266  10.214   9.755
75949SOL    HW229745  11.355  10.092   9.759
75950SOL     OW29746   4.278  12.557   3.583
75950SOL    HW129747   4.280  12.482   3.642
75950SOL    HW229748   4.223  12.528   3.510
75951SOL     OW29749  11.172   9.741  11.149
75951SOL    HW129750  11.189   9.835  11.143
75951SOL    HW229751  11.090   9.728  11.100
75952SOL     OW29752  10.103   7.106   8.096
75952SOL    HW129753  10.035   7.063   8.148
75952SOL    HW229754  10.078   7.089   8.006
75953SOL     OW29755   0.748  12.278   8.214
75953SOL    HW129756   0.764  12.269   8.308
75953SOL    HW229757   0.812  12.343   8.185
75954SOL     OW29758   6.067   0.318  13.106
75954SOL    HW129759   5.986   0.282  13.142
75954SOL    HW229760   6.039   0.367  13.028
75955SOL     OW29761   3.058   1.135  11.365
75955SOL    HW129762   2.994   1.085  11.314
75955SOL    HW229763   3.004   1.191  11.422
75956SOL     OW29764  13.591  12.573   7.428
75956SOL    HW129765  13.573  12.651   7.480
75956SOL    HW229766  13.505  12.532   7.416
75957SOL     OW29767  11.033  11.601   8.315
75957SOL    HW129768  10.976  11.530   8.344
75957SOL    HW229769  10.982  11.681   8.331
75958SOL     OW29770   1.629   1.975  11.710
75958SOL    HW129771   1.546   2.015  11.683
75958SOL    HW229772   1.629   1.889  11.668
75959SOL     OW29773   5.391   6.144   0.829
75959SOL    HW129774   5.356   6.095   0.902
75959SOL    HW229775   5.478   6.172   0.859
75960SOL     OW29776  14.475   0.111   6.306
75960SOL    HW129777  14.404   0.057   6.269
75960SOL    HW229778  14.504   0.062   6.383
75961SOL     OW29779  12.883  12.782   6.191
75961SOL    HW129780  12.881  12.724   6.115
75961SOL    HW229781  12.852  12.866   6.157
75962SOL     OW29782  12.420   4.413   0.553
75962SOL    HW129783  12.462   4.339   0.508
75962SOL    HW229784  12.440   4.398   0.646
75963SOL     OW29785  10.775   8.429   4.771
75963SOL    HW129786  10.845   8.381   4.815
75963SOL    HW229787  10.807   8.442   4.682
75964SOL     OW29788  10.289   3.299   2.808
75964SOL    HW129789  10.209   3.247   2.812
75964SOL    HW229790  10.296   3.340   2.894
75965SOL     OW29791   2.396  10.663   1.183
75965SOL    HW129792   2.305  10.692   1.184
75965SOL    HW229793   2.439  10.716   1.250
75966SOL     OW29794  14.360   8.152   2.781
75966SOL    HW129795  14.445   8.112   2.762
75966SOL    HW229796  14.307   8.132   2.704
75967SOL     OW29797   1.955   7.243   0.713
75967SOL    HW129798   2.004   7.321   0.686
75967SOL    HW229799   1.977   7.177   0.648
75968SOL     OW29800   8.821   3.666   4.236
75968SOL    HW129801   8.794   3.575   4.245
75968SOL    HW229802   8.915   3.665   4.255
75969SOL     OW29803   0.703   3.261  13.620
75969SOL    HW129804   0.687   3.231  13.531
75969SOL    HW229805   0.751   3.189  13.661
75970SOL     OW29806   3.411   7.469  13.023
75970SOL    HW129807   3.359   7.522  12.962
75970SOL    HW229808   3.499   7.505  13.018
75971SOL     OW29809   4.844   8.217  14.354
75971SOL    HW129810   4.824   8.145  14.294
75971SOL    HW229811   4.898   8.177  14.422
75972SOL     OW29812   6.441  11.788   5.046
75972SOL    HW129813   6.463  11.845   4.972
75972SOL    HW229814   6.526  11.763   5.082
75973SOL     OW29815  12.069   9.386   9.196
75973SOL    HW129816  12.111   9.307   9.162
75973SOL    HW229817  11.978   9.380   9.165
75974SOL     OW29818   9.897  14.120  11.139
75974SOL    HW129819   9.975  14.128  11.194
75974SOL    HW229820   9.861  14.209  11.134
75975SOL     OW29821  13.005   5.187   1.995
75975SOL    HW129822  12.949   5.220   2.065
75975SOL    HW229823  12.951   5.121   1.951
75976SOL     OW29824   9.689  10.070   6.954
75976SOL    HW129825   9.736  10.104   7.030
75976SOL    HW229826   9.610  10.030   6.990
75977SOL     OW29827   3.137   3.151   3.745
75977SOL    HW129828   3.184   3.068   3.747
75977SOL    HW229829   3.150   3.187   3.833
75978SOL     OW29830   5.475   4.152  12.089
75978SOL    HW129831   5.486   4.221  12.024
75978SOL    HW229832   5.533   4.082  12.060
75979SOL     OW29833   8.308  14.715   1.576
75979SOL    HW129834   8.268  14.728   1.662
75979SOL    HW229835   8.402  14.728   1.591
75980SOL     OW29836  11.446   6.983  13.097
75980SOL    HW129837  11.442   7.035  13.177
75980SOL    HW229838  11.536   6.951  13.094
75981SOL     OW29839   0.077   9.973  13.942
75981SOL    HW129840  14.854   9.970  13.919
75981SOL    HW229841   0.119   9.911  13.883
75982SOL     OW29842   1.145   2.233  11.092
75982SOL    HW129843   1.099   2.309  11.126
75982SOL    HW229844   1.159   2.252  10.999
75983SOL     OW29845   3.358  13.537   6.667
75983SOL    HW129846   3.326  13.516   6.755
75983SOL    HW229847   3.385  13.453   6.630
75984SOL     OW29848   2.778   0.083  12.874
75984SOL    HW129849   2.710   0.044  12.819
75984SOL    HW229850   2.735   0.099  12.958
75985SOL     OW29851  13.392   5.777  13.321
75985SOL    HW129852  13.476   5.802  13.358
75985SOL    HW229853  13.362   5.855  13.275
75986SOL     OW29854   5.851  14.798  11.442
75986SOL    HW129855   5.782  14.864  11.447
75986SOL    HW229856   5.804  14.715  11.438
75987SOL     OW29857   8.463   0.661   2.132
75987SOL    HW129858   8.374   0.628   2.139
75987SOL    HW229859   8.460   0.747   2.174
75988SOL     OW29860  10.061   8.782  13.290
75988SOL    HW129861  10.082   8.873  13.268
75988SOL    HW229862  10.023   8.787  13.378
75989SOL     OW29863  12.755   4.960   3.889
75989SOL    HW129864  12.690   4.893   3.910
75989SOL    HW229865  12.734   4.987   3.799
75990SOL     OW29866  12.170   5.064   4.211
75990SOL    HW129867  12.171   5.101   4.123
75990SOL    HW229868  12.100   4.999   4.209
75991SOL     OW29869   4.925  11.808  12.731
75991SOL    HW129870   4.919  11.862  12.810
75991SOL    HW229871   4.865  11.736  12.747
75992SOL     OW29872   6.376  13.933   6.422
75992SOL    HW129873   6.380  14.022   6.387
75992SOL    HW229874   6.423  13.937   6.505
75993SOL     OW29875   3.575  12.495   1.505
75993SOL    HW129876   3.503  12.453   1.459
75993SOL    HW229877   3.572  12.458   1.593
75994SOL     OW29878   2.988  13.288  14.443
75994SOL    HW129879   2.965  13.345  14.370
75994SOL    HW229880   2.928  13.214  14.436
75995SOL     OW29881   7.156   5.478   0.210
75995SOL    HW129882   7.209   5.552   0.240
75995SOL    HW229883   7.218   5.404   0.206
75996SOL     OW29884  13.337   0.610  12.926
75996SOL    HW129885  13.271   0.647  12.985
75996SOL    HW229886  13.295   0.610  12.840
75997SOL     OW29887  12.699   2.988   5.995
75997SOL    HW129888  12.733   3.061   6.047
75997SOL    HW229889  12.743   2.910   6.030
75998SOL     OW29890   6.366   3.793   8.716
75998SOL    HW129891   6.388   3.723   8.655
75998SOL    HW229892   6.411   3.769   8.798
75999SOL     OW29893   1.877  14.174   5.439
75999SOL    HW129894   1.879  14.206   5.349
75999SOL    HW229895   1.901  14.081   5.433
76000SOL     OW29896   7.780   4.937   7.377
76000SOL    HW129897   7.805   4.950   7.285
76000SOL    HW229898   7.786   5.024   7.415
76001SOL     OW29899  11.878   4.823   9.980
76001SOL    HW129900  11.910   4.796   9.894
76001SOL    HW229901  11.866   4.917   9.972
76002SOL     OW29902  14.319   3.271   8.250
76002SOL    HW129903  14.319   3.276   8.345
76002SOL    HW229904  14.340   3.360   8.221
76003SOL     OW29905  14.372  13.941   3.588
76003SOL    HW129906  14.283  13.975   3.580
76003SOL    HW229907  14.418  13.976   3.512
76004SOL     OW29908  12.727   1.537   8.559
76004SOL    HW129909  12.808   1.499   8.592
76004SOL    HW229910  12.728   1.517   8.465
76005SOL     OW29911   2.493   7.484   0.189
76005SOL    HW129912   2.577   7.529   0.186
76005SOL    HW229913   2.496   7.434   0.271
76006SOL     OW29914   7.071   9.001  10.623
76006SOL    HW129915   7.022   8.947  10.685
76006SOL    HW229916   7.017   9.080  10.614
76007SOL     OW29917   6.533   1.723  10.257
76007SOL    HW129918   6.583   1.656  10.211
76007SOL    HW229919   6.592   1.799  10.260
76008SOL     OW29920  10.601   7.935   9.751
76008SOL    HW129921  10.593   7.846   9.783
76008SOL    HW229922  10.522   7.979   9.783
76009SOL     OW29923   3.287   4.919   3.920
76009SOL    HW129924   3.343   4.841   3.915
76009SOL    HW229925   3.294   4.959   3.834
76010SOL     OW29926  10.050  12.682  11.758
76010SOL    HW129927  10.020  12.622  11.690
76010SOL    HW229928  10.105  12.628  11.815
76011SOL     OW29929   7.970   4.616  10.989
76011SOL    HW129930   8.004   4.686  11.044
76011SOL    HW229931   7.882   4.645  10.965
76012SOL     OW29932   4.570  10.135  14.771
76012SOL    HW129933   4.489  10.180  14.793
76012SOL    HW229934   4.639  10.189  14.808
76013SOL     OW29935  12.293   4.984   2.084
76013SOL    HW129936  12.298   5.046   2.157
76013SOL    HW229937  12.284   5.039   2.006
76014SOL     OW29938   6.323  10.362   2.042
76014SOL    HW129939   6.283  10.389   1.959
76014SOL    HW229940   6.353  10.272   2.025
76015SOL     OW29941   0.426  11.162  14.064
76015SOL    HW129942   0.490  11.200  14.003
76015SOL    HW229943   0.374  11.103  14.011
76016SOL     OW29944  10.904  13.610  12.199
76016SOL    HW129945  10.919  13.547  12.128
76016SOL    HW229946  10.945  13.570  12.276
76017SOL     OW29947  11.001  13.380   7.908
76017SOL    HW129948  11.012  13.452   7.970
76017SOL    HW229949  11.049  13.408   7.830
76018SOL     OW29950   7.394   5.719  12.758
76018SOL    HW129951   7.482   5.743  12.729
76018SOL    HW229952   7.335   5.761  12.695
76019SOL     OW29953   2.738   3.016   2.080
76019SOL    HW129954   2.741   3.000   2.174
76019SOL    HW229955   2.645   3.031   2.061
76020SOL     OW29956   3.028   0.771   7.240
76020SOL    HW129957   3.029   0.720   7.322
76020SOL    HW229958   3.119   0.767   7.209
76021SOL     OW29959   9.686   5.737   8.880
76021SOL    HW129960   9.613   5.703   8.828
76021SOL    HW229961   9.691   5.830   8.856
76022SOL     OW29962  12.629  12.358   4.376
76022SOL    HW129963  12.667  12.272   4.356
76022SOL    HW229964  12.675  12.386   4.455
76023SOL     OW29965   7.441  14.484   0.704
76023SOL    HW129966   7.404  14.567   0.735
76023SOL    HW229967   7.527  14.480   0.745
76024SOL     OW29968  11.816  10.259   3.206
76024SOL    HW129969  11.852  10.333   3.158
76024SOL    HW229970  11.722  10.279   3.215
76025SOL     OW29971   7.694   0.312   0.178
76025SOL    HW129972   7.675   0.252   0.106
76025SOL    HW229973   7.652   0.394   0.153
76026SOL     OW29974   4.694   0.370   4.577
76026SOL    HW129975   4.677   0.464   4.571
76026SOL    HW229976   4.715   0.355   4.669
76027SOL     OW29977  13.718   5.999   3.413
76027SOL    HW129978  13.732   6.019   3.505
76027SOL    HW229979  13.644   6.053   3.388
76028SOL     OW29980  14.732   0.976   8.677
76028SOL    HW129981  14.738   1.071   8.690
76028SOL    HW229982  14.762   0.939   8.760
76029SOL     OW29983  10.754  14.262   6.425
76029SOL    HW129984  10.679  14.239   6.480
76029SOL    HW229985  10.749  14.357   6.415
76030SOL     OW29986  10.944   7.894   1.264
76030SOL    HW129987  10.936   7.877   1.170
76030SOL    HW229988  11.020   7.842   1.291
76031SOL     OW29989   2.968  14.132  11.307
76031SOL    HW129990   2.986  14.095  11.221
76031SOL    HW229991   2.961  14.056  11.365
76032SOL     OW29992   7.229   0.842  12.035
76032SOL    HW129993   7.165   0.834  11.964
76032SOL    HW229994   7.176   0.842  12.115
76033SOL     OW29995   9.160   7.044  14.192
76033SOL    HW129996   9.201   7.100  14.258
76033SOL    HW229997   9.140   7.104  14.120
76034SOL     OW29998   4.063   9.097  13.871
76034SOL    HW129999   4.021   9.018  13.904
76034SOL    HW230000   4.147   9.067  13.836
76035SOL     OW30001   1.861  13.483   1.519
76035SOL    HW130002   1.844  13.509   1.428
76035SOL    HW230003   1.916  13.406   1.512
76036SOL     OW30004   6.558   3.910   7.122
76036SOL    HW130005   6.548   4.004   7.104
76036SOL    HW230006   6.487   3.889   7.182
76037SOL     OW30007   1.237  14.817  11.065
76037SOL    HW130008   1.317  14.802  11.015
76037SOL    HW230009   1.252  14.773  11.149
76038SOL     OW30010   6.518  14.824   7.305
76038SOL    HW130011   6.428  14.836   7.334
76038SOL    HW230012   6.569  14.821   7.386
76039SOL     OW30013  13.684   2.524  13.895
76039SOL    HW130014  13.730   2.605  13.874
76039SOL    HW230015  13.596   2.537  13.860
76040SOL     OW30016   5.723  14.656   7.407
76040SOL    HW130017   5.733  14.628   7.316
76040SOL    HW230018   5.630  14.676   7.416
76041SOL     OW30019  12.580   3.997   2.523
76041SOL    HW130020  12.529   3.969   2.447
76041SOL    HW230021  12.520   3.989   2.597
76042SOL     OW30022  10.277   9.955   8.341
76042SOL    HW130023  10.219   9.886   8.374
76042SOL    HW230024  10.224  10.034   8.342
76043SOL     OW30025  12.023   4.943  10.685
76043SOL    HW130026  11.967   4.911  10.614
76043SOL    HW230027  11.964   4.992  10.742
76044SOL     OW30028   8.897   4.207  11.897
76044SOL    HW130029   8.807   4.230  11.875
76044SOL    HW230030   8.890   4.146  11.970
76045SOL     OW30031   2.662   0.298   0.464
76045SOL    HW130032   2.607   0.338   0.532
76045SOL    HW230033   2.600   0.272   0.396
76046SOL     OW30034  14.159   1.432   2.336
76046SOL    HW130035  14.197   1.516   2.362
76046SOL    HW230036  14.221   1.366   2.368
76047SOL     OW30037  10.852  14.579   6.115
76047SOL    HW130038  10.883  14.646   6.053
76047SOL    HW230039  10.792  14.626   6.173
76048SOL     OW30040  10.987   5.103   4.001
76048SOL    HW130041  11.082   5.113   3.992
76048SOL    HW230042  10.967   5.024   3.952
76049SOL     OW30043   2.909  10.431   0.235
76049SOL    HW130044   2.951  10.491   0.174
76049SOL    HW230045   2.829  10.477   0.262
76050SOL     OW30046   6.757   5.642   9.028
76050SOL    HW130047   6.775   5.695   8.951
76050SOL    HW230048   6.720   5.704   9.091
76051SOL     OW30049   1.848   4.185  14.792
76051SOL    HW130050   1.926   4.240  14.793
76051SOL    HW230051   1.879   4.100  14.759
76052SOL     OW30052  14.358   8.648  10.287
76052SOL    HW130053  14.370   8.578  10.223
76052SOL    HW230054  14.440   8.652  10.335
76053SOL     OW30055   1.926   2.518   6.536
76053SOL    HW130056   1.957   2.455   6.601
76053SOL    HW230057   1.836   2.537   6.562
76054SOL     OW30058   2.019  10.599   8.065
76054SOL    HW130059   2.058  10.514   8.042
76054SOL    HW230060   1.980  10.584   8.151
76055SOL     OW30061   6.820   0.440   5.681
76055SOL    HW130062   6.799   0.528   5.711
76055SOL    HW230063   6.885   0.452   5.613
76056SOL     OW30064  11.082   8.473   1.998
76056SOL    HW130065  11.063   8.481   2.091
76056SOL    HW230066  11.106   8.561   1.970
76057SOL     OW30067   2.535  10.184   6.214
76057SOL    HW130068   2.553  10.235   6.135
76057SOL    HW230069   2.620  10.154   6.243
76058SOL     OW30070   6.183   3.580  13.489
76058SOL    HW130071   6.117   3.600  13.555
76058SOL    HW230072   6.210   3.490  13.507
76059SOL     OW30073  12.444   6.223   7.560
76059SOL    HW130074  12.490   6.294   7.515
76059SOL    HW230075  12.513   6.163   7.587
76060SOL     OW30076   1.171   1.802  13.714
76060SOL    HW130077   1.124   1.718  13.716
76060SOL    HW230078   1.115   1.861  13.764
76061SOL     OW30079   6.059   1.062   3.612
76061SOL    HW130080   6.012   0.996   3.561
76061SOL    HW230081   6.006   1.141   3.604
76062SOL     OW30082   4.632   8.079   9.634
76062SOL    HW130083   4.705   8.050   9.579
76062SOL    HW230084   4.662   8.161   9.672
76063SOL     OW30085  10.841  13.960   0.591
76063SOL    HW130086  10.916  13.910   0.622
76063SOL    HW230087  10.779  13.894   0.561
76064SOL     OW30088  11.124   4.414  12.906
76064SOL    HW130089  11.102   4.321  12.915
76064SOL    HW230090  11.066   4.459  12.967
76065SOL     OW30091  13.496  10.616   7.133
76065SOL    HW130092  13.409  10.656   7.141
76065SOL    HW230093  13.510  10.571   7.216
76066SOL     OW30094   7.551   8.450   6.243
76066SOL    HW130095   7.497   8.467   6.166
76066SOL    HW230096   7.520   8.366   6.276
76067SOL     OW30097  13.138   6.102   5.735
76067SOL    HW130098  13.103   6.180   5.779
76067SOL    HW230099  13.105   6.029   5.787
76068SOL     OW30100   6.355   2.588  12.731
76068SOL    HW130101   6.405   2.565  12.653
76068SOL    HW230102   6.383   2.525  12.797
76069SOL     OW30103   2.350  12.307  11.231
76069SOL    HW130104   2.281  12.372  11.219
76069SOL    HW230105   2.424  12.340  11.179
76070SOL     OW30106   7.044   1.425   7.454
76070SOL    HW130107   7.106   1.381   7.396
76070SOL    HW230108   7.098   1.462   7.523
76071SOL     OW30109  14.356   4.531  10.057
76071SOL    HW130110  14.283   4.577  10.099
76071SOL    HW230111  14.351   4.442  10.092
76072SOL     OW30112   1.260   5.188  13.174
76072SOL    HW130113   1.234   5.096  13.166
76072SOL    HW230114   1.298   5.194  13.262
76073SOL     OW30115  11.943   7.639   9.839
76073SOL    HW130116  11.880   7.709   9.827
76073SOL    HW230117  12.028   7.683   9.846
76074SOL     OW30118   7.828   1.942   5.278
76074SOL    HW130119   7.857   2.021   5.232
76074SOL    HW230120   7.777   1.893   5.214
76075SOL     OW30121   6.282   9.111   9.255
76075SOL    HW130122   6.340   9.104   9.330
76075SOL    HW230123   6.194   9.102   9.292
76076SOL     OW30124   5.817   3.780  14.523
76076SOL    HW130125   5.787   3.840  14.455
76076SOL    HW230126   5.767   3.700  14.508
76077SOL     OW30127  10.733  12.159  11.075
76077SOL    HW130128  10.799  12.123  11.016
76077SOL    HW230129  10.661  12.185  11.017
76078SOL     OW30130   6.666   0.242   6.558
76078SOL    HW130131   6.602   0.235   6.629
76078SOL    HW230132   6.737   0.295   6.594
76079SOL     OW30133   5.885   8.762   1.049
76079SOL    HW130134   5.883   8.685   0.992
76079SOL    HW230135   5.793   8.778   1.072
76080SOL     OW30136   5.061   6.779   9.127
76080SOL    HW130137   5.142   6.729   9.129
76080SOL    HW230138   5.083   6.863   9.169
76081SOL     OW30139   3.248  12.530   2.509
76081SOL    HW130140   3.196  12.476   2.449
76081SOL    HW230141   3.283  12.469   2.573
76082SOL     OW30142   5.850  11.846   3.047
76082SOL    HW130143   5.893  11.786   2.986
76082SOL    HW230144   5.897  11.929   3.036
76083SOL     OW30145   2.980   3.257  13.626
76083SOL    HW130146   3.050   3.194  13.646
76083SOL    HW230147   2.949   3.230  13.539
76084SOL     OW30148   5.191  12.854   7.530
76084SOL    HW130149   5.177  12.819   7.618
76084SOL    HW230150   5.150  12.940   7.531
76085SOL     OW30151  11.437   4.056  11.399
76085SOL    HW130152  11.393   4.002  11.465
76085SOL    HW230153  11.427   4.007  11.317
76086SOL     OW30154  10.795   3.304  13.090
76086SOL    HW130155  10.823   3.273  13.004
76086SOL    HW230156  10.812   3.398  13.089
76087SOL     OW30157  13.640   3.667  14.564
76087SOL    HW130158  13.601   3.581  14.581
76087SOL    HW230159  13.686   3.688  14.645
76088SOL     OW30160   2.369  11.980   2.926
76088SOL    HW130161   2.309  12.050   2.901
76088SOL    HW230162   2.451  12.002   2.882
76089SOL     OW30163   9.587  14.602   9.348
76089SOL    HW130164   9.627  14.601   9.435
76089SOL    HW230165   9.493  14.602   9.364
76090SOL     OW30166   0.482   9.998   5.217
76090SOL    HW130167   0.391  10.012   5.191
76090SOL    HW230168   0.532  10.063   5.168
76091SOL     OW30169   6.211   8.680  12.859
76091SOL    HW130170   6.212   8.775  12.853
76091SOL    HW230171   6.302   8.656  12.875
76092SOL     OW30172   2.083   5.215  14.811
76092SOL    HW130173   2.130   5.281  14.760
76092SOL    HW230174   2.087   5.136  14.757
76093SOL     OW30175   0.461   1.059  13.862
76093SOL    HW130176   0.463   1.119  13.936
76093SOL    HW230177   0.498   0.978  13.896
76094SOL     OW30178  12.771   2.548   8.080
76094SOL    HW130179  12.736   2.624   8.033
76094SOL    HW230180  12.761   2.476   8.019
76095SOL     OW30181   5.970   2.365   2.488
76095SOL    HW130182   5.995   2.273   2.501
76095SOL    HW230183   5.958   2.399   2.577
76096SOL     OW30184   3.013   5.282   6.937
76096SOL    HW130185   3.004   5.196   6.977
76096SOL    HW230186   3.100   5.312   6.964
76097SOL     OW30187  10.649   8.538   9.212
76097SOL    HW130188  10.659   8.543   9.307
76097SOL    HW230189  10.565   8.580   9.194
76098SOL     OW30190  14.538   1.101   4.542
76098SOL    HW130191  14.563   1.175   4.487
76098SOL    HW230192  14.619   1.077   4.588
76099SOL     OW30193  11.851   1.544   9.482
76099SOL    HW130194  11.867   1.575   9.392
76099SOL    HW230195  11.758   1.561   9.497
76100SOL     OW30196   9.771  13.527  10.391
76100SOL    HW130197   9.823  13.588  10.443
76100SOL    HW230198   9.816  13.443  10.401
76101SOL     OW30199  14.078   0.201  14.387
76101SOL    HW130200  14.151   0.257  14.360
76101SOL    HW230201  14.000   0.255  14.373
76102SOL     OW30202  10.451  14.003   0.407
76102SOL    HW130203  10.360  13.993   0.378
76102SOL    HW230204  10.450  14.083   0.461
76103SOL     OW30205   0.502   7.091   5.280
76103SOL    HW130206   0.468   7.149   5.212
76103SOL    HW230207   0.459   7.007   5.264
76104SOL     OW30208   4.003  14.742   8.514
76104SOL    HW130209   4.004  14.837   8.503
76104SOL    HW230210   4.051  14.709   8.439
76105SOL     OW30211   7.492  12.302  14.665
76105SOL    HW130212   7.509  12.380  14.612
76105SOL    HW230213   7.552  12.236  14.630
76106SOL     OW30214  13.035   2.410   8.638
76106SOL    HW130215  13.055   2.409   8.732
76106SOL    HW230216  12.995   2.324   8.621
76107SOL     OW30217   1.787  11.482  14.587
76107SOL    HW130218   1.776  11.476  14.682
76107SOL    HW230219   1.794  11.576  14.569
76108SOL     OW30220   6.077  12.172   9.449
76108SOL    HW130221   6.048  12.263   9.443
76108SOL    HW230222   6.083  12.142   9.358
76109SOL     OW30223   7.951  13.438  14.221
76109SOL    HW130224   7.865  13.456  14.184
76109SOL    HW230225   7.932  13.388  14.301
76110SOL     OW30226   9.359   8.620  10.819
76110SOL    HW130227   9.297   8.679  10.862
76110SOL    HW230228   9.349   8.536  10.863
76111SOL     OW30229   1.223   7.884   6.275
76111SOL    HW130230   1.244   7.857   6.185
76111SOL    HW230231   1.140   7.842   6.294
76112SOL     OW30232  11.020   6.676   0.295
76112SOL    HW130233  11.042   6.601   0.350
76112SOL    HW230234  10.931   6.657   0.264
76113SOL     OW30235   2.711   4.552   6.534
76113SOL    HW130236   2.685   4.645   6.530
76113SOL    HW230237   2.662   4.511   6.462
76114SOL     OW30238   1.275   7.874  13.623
76114SOL    HW130239   1.362   7.908  13.647
76114SOL    HW230240   1.289   7.831  13.538
76115SOL     OW30241   8.270   8.531  10.313
76115SOL    HW130242   8.257   8.613  10.265
76115SOL    HW230243   8.361   8.507  10.296
76116SOL     OW30244  13.542  12.178   4.002
76116SOL    HW130245  13.578  12.116   4.066
76116SOL    HW230246  13.614  12.239   3.985
76117SOL     OW30247  10.054  10.271   1.217
76117SOL    HW130248   9.998  10.238   1.147
76117SOL    HW230249  10.109  10.196   1.241
76118SOL     OW30250   6.305  14.278  12.461
76118SOL    HW130251   6.247  14.278  12.385
76118SOL    HW230252   6.283  14.197  12.508
76119SOL     OW30253  12.166   6.347   7.103
76119SOL    HW130254  12.116   6.357   7.022
76119SOL    HW230255  12.134   6.266   7.141
76120SOL     OW30256   8.238   8.116  12.129
76120SOL    HW130257   8.153   8.155  12.108
76120SOL    HW230258   8.302   8.180  12.097
76121SOL     OW30259  11.311  11.765   2.566
76121SOL    HW130260  11.284  11.697   2.628
76121SOL    HW230261  11.401  11.741   2.543
76122SOL     OW30262   3.837   5.743   2.678
76122SOL    HW130263   3.787   5.707   2.751
76122SOL    HW230264   3.854   5.667   2.622
76123SOL     OW30265  13.341  13.919  13.792
76123SOL    HW130266  13.393  13.998  13.803
76123SOL    HW230267  13.250  13.949  13.798
76124SOL     OW30268  11.145  14.330   6.800
76124SOL    HW130269  11.213  14.273   6.764
76124SOL    HW230270  11.194  14.395   6.851
76125SOL     OW30271   3.929   0.626   8.668
76125SOL    HW130272   3.987   0.696   8.638
76125SOL    HW230273   3.852   0.672   8.703
76126SOL     OW30274   5.674   6.612   4.630
76126SOL    HW130275   5.746   6.588   4.689
76126SOL    HW230276   5.608   6.544   4.644
76127SOL     OW30277  12.266   1.202  11.640
76127SOL    HW130278  12.185   1.252  11.652
76127SOL    HW230279  12.298   1.229  11.554
76128SOL     OW30280   1.337   5.575  14.523
76128SOL    HW130281   1.284   5.616  14.456
76128SOL    HW230282   1.370   5.494  14.483
76129SOL     OW30283   1.839   3.677  14.015
76129SOL    HW130284   1.898   3.642  14.081
76129SOL    HW230285   1.816   3.764  14.046
76130SOL     OW30286  14.852   5.929   6.000
76130SOL    HW130287  14.795   5.857   6.026
76130SOL    HW230288   0.067   5.887   5.985
76131SOL     OW30289   5.613   3.735   8.622
76131SOL    HW130290   5.561   3.716   8.701
76131SOL    HW230291   5.617   3.652   8.575
76132SOL     OW30292  10.612  11.643  14.335
76132SOL    HW130293  10.582  11.569  14.388
76132SOL    HW230294  10.602  11.614  14.245
76133SOL     OW30295  12.865   4.742   1.213
76133SOL    HW130296  12.906   4.656   1.219
76133SOL    HW230297  12.875   4.767   1.121
76134SOL     OW30298  11.112   3.324  10.267
76134SOL    HW130299  11.117   3.285  10.354
76134SOL    HW230300  11.163   3.405  10.273
76135SOL     OW30301   4.944  13.187   4.982
76135SOL    HW130302   5.005  13.204   4.911
76135SOL    HW230303   4.985  13.117   5.034
76136SOL     OW30304   7.263   4.261   6.559
76136SOL    HW130305   7.303   4.303   6.483
76136SOL    HW230306   7.173   4.242   6.531
76137SOL     OW30307   5.833   9.700   4.632
76137SOL    HW130308   5.895   9.770   4.653
76137SOL    HW230309   5.747   9.740   4.643
76138SOL     OW30310  12.698  11.419   1.321
76138SOL    HW130311  12.671  11.392   1.233
76138SOL    HW230312  12.793  11.413   1.320
76139SOL     OW30313   4.059  14.427   2.758
76139SOL    HW130314   4.036  14.396   2.846
76139SOL    HW230315   4.077  14.348   2.708
76140SOL     OW30316   5.432  14.820   2.785
76140SOL    HW130317   5.473  14.832   2.699
76140SOL    HW230318   5.414   0.039   2.815
76141SOL     OW30319   0.302   4.463   7.127
76141SOL    HW130320   0.258   4.469   7.212
76141SOL    HW230321   0.369   4.531   7.130
76142SOL     OW30322   6.865  13.606   9.832
76142SOL    HW130323   6.836  13.664   9.902
76142SOL    HW230324   6.948  13.570   9.864
76143SOL     OW30325   5.671  11.522   8.151
76143SOL    HW130326   5.736  11.483   8.092
76143SOL    HW230327   5.720  11.537   8.232
76144SOL     OW30328  10.913   1.074   1.872
76144SOL    HW130329  10.979   1.112   1.813
76144SOL    HW230330  10.944   0.985   1.888
76145SOL     OW30331   5.163   6.220   7.891
76145SOL    HW130332   5.186   6.272   7.814
76145SOL    HW230333   5.229   6.244   7.956
76146SOL     OW30334   3.006  11.409   8.092
76146SOL    HW130335   3.045  11.329   8.056
76146SOL    HW230336   3.040  11.478   8.036
76147SOL     OW30337   1.140  13.920   4.926
76147SOL    HW130338   1.165  13.922   5.019
76147SOL    HW230339   1.213  13.959   4.880
76148SOL     OW30340  10.050   0.695  14.363
76148SOL    HW130341  10.009   0.713  14.448
76148SOL    HW230342   9.977   0.690  14.301
76149SOL     OW30343   3.235   2.168   4.636
76149SOL    HW130344   3.205   2.257   4.659
76149SOL    HW230345   3.330   2.175   4.630
76150SOL     OW30346   7.683   8.825   9.055
76150SOL    HW130347   7.762   8.871   9.026
76150SOL    HW230348   7.658   8.868   9.136
76151SOL     OW30349   8.110   0.291  14.413
76151SOL    HW130350   8.062   0.311  14.332
76151SOL    HW230351   8.194   0.336  14.403
76152SOL     OW30352   8.249   7.175   6.165
76152SOL    HW130353   8.277   7.089   6.197
76152SOL    HW230354   8.159   7.160   6.134
76153SOL     OW30355   6.195   1.592   8.957
76153SOL    HW130356   6.112   1.623   8.995
76153SOL    HW230357   6.201   1.637   8.873
76154SOL     OW30358   4.037   3.813   3.474
76154SOL    HW130359   4.097   3.802   3.548
76154SOL    HW230360   3.990   3.894   3.494
76155SOL     OW30361   6.055   7.421   3.562
76155SOL    HW130362   6.055   7.374   3.645
76155SOL    HW230363   5.999   7.369   3.505
76156SOL     OW30364   2.495   2.455  14.488
76156SOL    HW130365   2.571   2.457  14.547
76156SOL    HW230366   2.524   2.502  14.410
76157SOL     OW30367   5.009   7.155   8.506
76157SOL    HW130368   5.020   7.224   8.441
76157SOL    HW230369   5.086   7.163   8.562
76158SOL     OW30370  13.495  10.127  10.549
76158SOL    HW130371  13.480  10.034  10.564
76158SOL    HW230372  13.541  10.131  10.465
76159SOL     OW30373  14.244  13.440  12.535
76159SOL    HW130374  14.231  13.345  12.535
76159SOL    HW230375  14.212  13.468  12.621
76160SOL     OW30376   6.962   5.452   2.342
76160SOL    HW130377   6.895   5.475   2.406
76160SOL    HW230378   7.044   5.482   2.380
76161SOL     OW30379   7.558  12.642   7.156
76161SOL    HW130380   7.595  12.687   7.232
76161SOL    HW230381   7.609  12.675   7.082
76162SOL     OW30382   6.819  12.538  14.742
76162SOL    HW130383   6.727  12.529  14.716
76162SOL    HW230384   6.843  12.452  14.775
76163SOL     OW30385   0.269   4.749  14.121
76163SOL    HW130386   0.265   4.729  14.214
76163SOL    HW230387   0.304   4.838  14.116
76164SOL     OW30388  13.203   3.276   7.505
76164SOL    HW130389  13.269   3.345   7.517
76164SOL    HW230390  13.200   3.262   7.410
76165SOL     OW30391   4.521  13.554   4.844
76165SOL    HW130392   4.579  13.516   4.909
76165SOL    HW230393   4.500  13.641   4.878
76166SOL     OW30394   3.289   5.568  11.679
76166SOL    HW130395   3.253   5.544  11.593
76166SOL    HW230396   3.336   5.650  11.663
76167SOL     OW30397   0.293   6.290   1.691
76167SOL    HW130398   0.372   6.336   1.662
76167SOL    HW230399   0.291   6.211   1.637
76168SOL     OW30400  14.807   0.278   4.770
76168SOL    HW130401  14.859   0.324   4.836
76168SOL    HW230402  14.739   0.340   4.745
76169SOL     OW30403   1.403  12.134   5.691
76169SOL    HW130404   1.414  12.223   5.724
76169SOL    HW230405   1.463  12.129   5.616
76170SOL     OW30406   4.087   9.509   0.177
76170SOL    HW130407   4.126   9.572   0.237
76170SOL    HW230408   4.097   9.424   0.221
76171SOL     OW30409  11.890   9.271   2.657
76171SOL    HW130410  11.886   9.271   2.753
76171SOL    HW230411  11.903   9.363   2.634
76172SOL     OW30412  13.164  11.228   5.829
76172SOL    HW130413  13.217  11.308   5.820
76172SOL    HW230414  13.141  11.204   5.740
76173SOL     OW30415   3.918   3.251   3.697
76173SOL    HW130416   4.011   3.229   3.689
76173SOL    HW230417   3.873   3.181   3.649
76174SOL     OW30418   7.777   3.082   2.551
76174SOL    HW130419   7.835   3.140   2.601
76174SOL    HW230420   7.837   3.026   2.501
76175SOL     OW30421  11.869   6.178   9.996
76175SOL    HW130422  11.964   6.179   9.983
76175SOL    HW230423  11.850   6.261  10.039
76176SOL     OW30424   9.195   3.349   5.126
76176SOL    HW130425   9.181   3.412   5.055
76176SOL    HW230426   9.164   3.265   5.090
76177SOL     OW30427   9.004   7.318  10.018
76177SOL    HW130428   9.022   7.392   9.960
76177SOL    HW230429   8.997   7.357  10.105
76178SOL     OW30430   0.897  14.081   2.981
76178SOL    HW130431   0.881  14.144   2.911
76178SOL    HW230432   0.821  14.022   2.978
76179SOL     OW30433  10.777   5.165  10.331
76179SOL    HW130434  10.685   5.146  10.351
76179SOL    HW230435  10.786   5.143  10.238
76180SOL     OW30436   1.193   6.760   7.646
76180SOL    HW130437   1.217   6.798   7.562
76180SOL    HW230438   1.099   6.779   7.655
76181SOL     OW30439   0.165   6.269   2.467
76181SOL    HW130440   0.232   6.291   2.532
76181SOL    HW230441   0.181   6.330   2.395
76182SOL     OW30442   6.742  10.418   2.765
76182SOL    HW130443   6.798  10.388   2.837
76182SOL    HW230444   6.794  10.403   2.686
76183SOL     OW30445   5.748   5.759   8.184
76183SOL    HW130446   5.842   5.741   8.187
76183SOL    HW230447   5.740   5.836   8.128
76184SOL     OW30448   5.512  12.690   6.080
76184SOL    HW130449   5.558  12.770   6.052
76184SOL    HW230450   5.556  12.620   6.033
76185SOL     OW30451   5.323   9.732  12.021
76185SOL    HW130452   5.400   9.710  12.074
76185SOL    HW230453   5.248   9.709  12.077
76186SOL     OW30454   4.515  11.101  14.809
76186SOL    HW130455   4.492  11.009  14.822
76186SOL    HW230456   4.502  11.142   0.025
76187SOL     OW30457  13.923   8.795   8.675
76187SOL    HW130458  13.969   8.717   8.706
76187SOL    HW230459  13.830   8.771   8.680
76188SOL     OW30460   2.971   2.555  13.108
76188SOL    HW130461   2.948   2.646  13.091
76188SOL    HW230462   2.930   2.506  13.036
76189SOL     OW30463   4.148   2.960   1.387
76189SOL    HW130464   4.124   3.016   1.460
76189SOL    HW230465   4.068   2.912   1.367
76190SOL     OW30466  10.531   1.545   7.930
76190SOL    HW130467  10.561   1.531   7.840
76190SOL    HW230468  10.436   1.554   7.923
76191SOL     OW30469   8.054   9.283   6.981
76191SOL    HW130470   8.030   9.225   7.054
76191SOL    HW230471   7.996   9.257   6.909
76192SOL     OW30472   4.848   4.447  12.472
76192SOL    HW130473   4.810   4.485  12.551
76192SOL    HW230474   4.822   4.355  12.475
76193SOL     OW30475   9.028   1.356   2.893
76193SOL    HW130476   9.087   1.404   2.836
76193SOL    HW230477   8.940   1.377   2.860
76194SOL     OW30478  11.420  11.077   5.168
76194SOL    HW130479  11.461  11.029   5.239
76194SOL    HW230480  11.395  11.161   5.207
76195SOL     OW30481   7.338   8.128  12.927
76195SOL    HW130482   7.414   8.151  12.982
76195SOL    HW230483   7.266   8.118  12.989
76196SOL     OW30484   0.232   3.489  14.517
76196SOL    HW130485   0.310   3.536  14.547
76196SOL    HW230486   0.162   3.555  14.520
76197SOL     OW30487  13.533   7.460   5.972
76197SOL    HW130488  13.488   7.522   5.915
76197SOL    HW230489  13.613   7.438   5.924
76198SOL     OW30490   0.974   0.262   4.040
76198SOL    HW130491   0.935   0.325   4.100
76198SOL    HW230492   1.010   0.194   4.096
76199SOL     OW30493   7.151  12.649  10.900
76199SOL    HW130494   7.211  12.575  10.907
76199SOL    HW230495   7.182  12.711  10.966
76200SOL     OW30496   3.079   0.578   2.538
76200SOL    HW130497   3.107   0.499   2.583
76200SOL    HW230498   3.133   0.582   2.459
76201SOL     OW30499   3.788   1.012   3.759
76201SOL    HW130500   3.695   1.037   3.757
76201SOL    HW230501   3.834   1.090   3.729
76202SOL     OW30502  11.754   5.942   4.021
76202SOL    HW130503  11.666   5.907   4.036
76202SOL    HW230504  11.788   5.962   4.108
76203SOL     OW30505  13.612   3.851   9.515
76203SOL    HW130506  13.529   3.865   9.470
76203SOL    HW230507  13.640   3.764   9.486
76204SOL     OW30508  10.207   2.452   8.723
76204SOL    HW130509  10.293   2.410   8.727
76204SOL    HW230510  10.226   2.542   8.695
76205SOL     OW30511   5.545   6.400   7.706
76205SOL    HW130512   5.452   6.414   7.691
76205SOL    HW230513   5.574   6.479   7.752
76206SOL     OW30514   1.397  11.544   8.194
76206SOL    HW130515   1.482  11.574   8.228
76206SOL    HW230516   1.352  11.624   8.169
76207SOL     OW30517  12.622   5.239   8.323
76207SOL    HW130518  12.712   5.261   8.298
76207SOL    HW230519  12.591   5.314   8.373
76208SOL     OW30520  11.239   9.847   9.876
76208SOL    HW130521  11.313   9.862   9.935
76208SOL    HW230522  11.203   9.934   9.860
76209SOL     OW30523   4.623  12.100   3.768
76209SOL    HW130524   4.535  12.108   3.803
76209SOL    HW230525   4.647  12.189   3.741
76210SOL     OW30526  11.552   5.451  13.636
76210SOL    HW130527  11.540   5.545  13.628
76210SOL    HW230528  11.646   5.438  13.626
76211SOL     OW30529   4.723  12.723   4.149
76211SOL    HW130530   4.652  12.760   4.202
76211SOL    HW230531   4.782  12.683   4.212
76212SOL     OW30532   1.224  14.774   1.810
76212SOL    HW130533   1.152  14.809   1.758
76212SOL    HW230534   1.203  14.681   1.821
76213SOL     OW30535   4.642   2.962   2.404
76213SOL    HW130536   4.680   2.968   2.316
76213SOL    HW230537   4.651   2.870   2.428
76214SOL     OW30538   1.565  12.477  12.846
76214SOL    HW130539   1.595  12.458  12.935
76214SOL    HW230540   1.629  12.432  12.790
76215SOL     OW30541   9.209   5.360   6.468
76215SOL    HW130542   9.131   5.379   6.520
76215SOL    HW230543   9.223   5.266   6.478
76216SOL     OW30544  10.855  10.561   4.209
76216SOL    HW130545  10.886  10.470   4.201
76216SOL    HW230546  10.882  10.602   4.127
76217SOL     OW30547   1.716  13.409  10.432
76217SOL    HW130548   1.623  13.432  10.431
76217SOL    HW230549   1.718  13.316  10.407
76218SOL     OW30550   6.559  10.250  12.258
76218SOL    HW130551   6.522  10.259  12.346
76218SOL    HW230552   6.515  10.173  12.222
76219SOL     OW30553   6.836  11.258  14.151
76219SOL    HW130554   6.768  11.317  14.117
76219SOL    HW230555   6.891  11.239  14.076
76220SOL     OW30556  13.492   9.123  11.952
76220SOL    HW130557  13.487   9.168  11.868
76220SOL    HW230558  13.446   9.040  11.938
76221SOL     OW30559   3.206  10.608  10.901
76221SOL    HW130560   3.179  10.603  10.993
76221SOL    HW230561   3.289  10.560  10.897
76222SOL     OW30562   4.073   7.149   1.622
76222SOL    HW130563   4.011   7.221   1.608
76222SOL    HW230564   4.030   7.093   1.687
76223SOL     OW30565   3.329   9.090  12.420
76223SOL    HW130566   3.362   9.147  12.350
76223SOL    HW230567   3.282   9.149  12.479
76224SOL     OW30568   6.306   2.282  14.390
76224SOL    HW130569   6.390   2.235  14.386
76224SOL    HW230570   6.262   2.248  14.467
76225SOL     OW30571  13.212   6.152   4.329
76225SOL    HW130572  13.297   6.134   4.289
76225SOL    HW230573  13.165   6.205   4.264
76226SOL     OW30574  10.331  11.126  12.737
76226SOL    HW130575  10.294  11.213  12.721
76226SOL    HW230576  10.422  11.142  12.761
76227SOL     OW30577  11.890   5.926   3.779
76227SOL    HW130578  11.849   5.935   3.865
76227SOL    HW230579  11.982   5.909   3.798
76228SOL     OW30580  11.877   6.265   2.828
76228SOL    HW130581  11.865   6.331   2.895
76228SOL    HW230582  11.791   6.224   2.818
76229SOL     OW30583   2.136  13.022   0.002
76229SOL    HW130584   2.190  13.026  14.793
76229SOL    HW230585   2.110  12.930   0.008
76230SOL     OW30586   9.619   9.974   5.354
76230SOL    HW130587   9.667   9.892   5.354
76230SOL    HW230588   9.604   9.993   5.261
76231SOL     OW30589  14.463   6.053   3.353
76231SOL    HW130590  14.514   6.065   3.273
76231SOL    HW230591  14.384   6.008   3.325
76232SOL     OW30592   4.984   3.848   9.012
76232SOL    HW130593   5.034   3.925   8.985
76232SOL    HW230594   4.925   3.880   9.080
76233SOL     OW30595   5.198   9.360  12.390
76233SOL    HW130596   5.185   9.395  12.302
76233SOL    HW230597   5.132   9.291  12.398
76234SOL     OW30598   8.262   8.721  11.234
76234SOL    HW130599   8.198   8.733  11.164
76234SOL    HW230600   8.281   8.627  11.232
76235SOL     OW30601   1.674  11.738  13.844
76235SOL    HW130602   1.684  11.653  13.886
76235SOL    HW230603   1.677  11.720  13.750
76236SOL     OW30604  14.073   8.977   7.395
76236SOL    HW130605  14.160   8.996   7.431
76236SOL    HW230606  14.088   8.962   7.302
76237SOL     OW30607   0.404   2.826   4.023
76237SOL    HW130608   0.359   2.900   4.064
76237SOL    HW230609   0.380   2.750   4.076
76238SOL     OW30610  11.208  10.934  13.543
76238SOL    HW130611  11.139  10.916  13.607
76238SOL    HW230612  11.269  10.860  13.552
76239SOL     OW30613  14.356   5.694   9.146
76239SOL    HW130614  14.405   5.634   9.202
76239SOL    HW230615  14.396   5.780   9.161
76240SOL     OW30616   8.345   6.541   9.941
76240SOL    HW130617   8.438   6.558   9.932
76240SOL    HW230618   8.340   6.447   9.958
76241SOL     OW30619  12.950   6.453  11.709
76241SOL    HW130620  12.992   6.531  11.672
76241SOL    HW230621  12.909   6.409  11.635
76242SOL     OW30622   2.291   2.099   5.298
76242SOL    HW130623   2.258   2.016   5.264
76242SOL    HW230624   2.253   2.165   5.240
76243SOL     OW30625  13.343   2.616   3.777
76243SOL    HW130626  13.386   2.598   3.694
76243SOL    HW230627  13.253   2.638   3.754
76244SOL     OW30628   5.802   4.038  14.014
76244SOL    HW130629   5.709   4.039  14.038
76244SOL    HW230630   5.819   4.125  13.979
76245SOL     OW30631   2.066  11.981   7.626
76245SOL    HW130632   2.158  12.001   7.646
76245SOL    HW230633   2.053  12.013   7.537
76246SOL     OW30634   7.742  10.985   1.524
76246SOL    HW130635   7.724  10.942   1.440
76246SOL    HW230636   7.657  10.991   1.567
76247SOL     OW30637  10.849   5.982  14.294
76247SOL    HW130638  10.756   5.981  14.272
76247SOL    HW230639  10.853   5.960  14.387
76248SOL     OW30640   7.665   6.641  11.865
76248SOL    HW130641   7.615   6.639  11.947
76248SOL    HW230642   7.613   6.694  11.805
76249SOL     OW30643   3.097  12.891   6.396
76249SOL    HW130644   3.089  12.800   6.423
76249SOL    HW230645   3.091  12.888   6.300
76250SOL     OW30646  11.049  10.186   9.388
76250SOL    HW130647  10.959  10.175   9.356
76250SOL    HW230648  11.041  10.242   9.465
76251SOL     OW30649   8.887   4.119   0.342
76251SOL    HW130650   8.793   4.109   0.353
76251SOL    HW230651   8.897   4.193   0.281
76252SOL     OW30652   6.625   2.171   7.792
76252SOL    HW130653   6.710   2.130   7.774
76252SOL    HW230654   6.618   2.240   7.726
76253SOL     OW30655  11.495   8.488   0.530
76253SOL    HW130656  11.417   8.496   0.584
76253SOL    HW230657  11.507   8.393   0.519
76254SOL     OW30658   1.166   0.659   0.449
76254SOL    HW130659   1.071   0.668   0.458
76254SOL    HW230660   1.192   0.610   0.526
76255SOL     OW30661  14.383  10.075  13.835
76255SOL    HW130662  14.348  10.036  13.755
76255SOL    HW230663  14.469  10.033  13.848
76256SOL     OW30664  13.560  13.667   6.342
76256SOL    HW130665  13.597  13.719   6.271
76256SOL    HW230666  13.616  13.589   6.347
76257SOL     OW30667   2.596   5.573  12.730
76257SOL    HW130668   2.656   5.519  12.782
76257SOL    HW230669   2.593   5.657  12.777
76258SOL     OW30670  11.974   2.834   7.661
76258SOL    HW130671  12.057   2.857   7.619
76258SOL    HW230672  11.978   2.739   7.672
76259SOL     OW30673  14.363   2.736   1.360
76259SOL    HW130674  14.457   2.717   1.359
76259SOL    HW230675  14.355   2.816   1.412
76260SOL     OW30676  13.342  10.683   0.875
76260SOL    HW130677  13.329  10.729   0.792
76260SOL    HW230678  13.286  10.606   0.870
76261SOL     OW30679  12.305   7.821  10.196
76261SOL    HW130680  12.396   7.813  10.223
76261SOL    HW230681  12.293   7.915  10.182
76262SOL     OW30682   0.888   5.192   6.782
76262SOL    HW130683   0.964   5.136   6.796
76262SOL    HW230684   0.864   5.222   6.870
76263SOL     OW30685  11.275  10.968  13.034
76263SOL    HW130686  11.281  10.897  12.971
76263SOL    HW230687  11.264  10.924  13.118
76264SOL     OW30688   7.821   3.291   9.304
76264SOL    HW130689   7.811   3.263   9.213
76264SOL    HW230690   7.915   3.303   9.315
76265SOL     OW30691  12.284   3.171   8.952
76265SOL    HW130692  12.256   3.171   8.861
76265SOL    HW230693  12.225   3.109   8.996
76266SOL     OW30694   1.609   2.131  13.470
76266SOL    HW130695   1.636   2.114  13.379
76266SOL    HW230696   1.692   2.138  13.518
76267SOL     OW30697   8.648   8.627   9.959
76267SOL    HW130698   8.683   8.677  10.033
76267SOL    HW230699   8.574   8.680   9.928
76268SOL     OW30700  11.514  12.389  13.566
76268SOL    HW130701  11.503  12.386  13.471
76268SOL    HW230702  11.427  12.410  13.600
76269SOL     OW30703   7.615   0.239   7.211
76269SOL    HW130704   7.643   0.284   7.132
76269SOL    HW230705   7.520   0.248   7.211
76270SOL     OW30706  14.023   7.543   7.798
76270SOL    HW130707  13.934   7.541   7.764
76270SOL    HW230708  14.059   7.456   7.777
76271SOL     OW30709   5.879   5.708   9.427
76271SOL    HW130710   5.963   5.738   9.461
76271SOL    HW230711   5.883   5.727   9.333
76272SOL     OW30712   1.176  12.027   5.251
76272SOL    HW130713   1.096  12.034   5.199
76272SOL    HW230714   1.237  11.980   5.195
76273SOL     OW30715  13.347   4.132  13.918
76273SOL    HW130716  13.381   4.131  13.828
76273SOL    HW230717  13.252   4.140  13.907
76274SOL     OW30718   1.232   7.809  11.859
76274SOL    HW130719   1.313   7.843  11.820
76274SOL    HW230720   1.205   7.739  11.799
76275SOL     OW30721   2.283   8.580   0.618
76275SOL    HW130722   2.318   8.581   0.707
76275SOL    HW230723   2.360   8.596   0.563
76276SOL     OW30724  13.111  14.244   7.597
76276SOL    HW130725  13.023  14.233   7.562
76276SOL    HW230726  13.102  14.231   7.691
76277SOL     OW30727  10.771   6.716  11.112
76277SOL    HW130728  10.678   6.734  11.125
76277SOL    HW230729  10.806   6.705  11.200
76278SOL     OW30730   9.567   0.543   0.869
76278SOL    HW130731   9.617   0.536   0.951
76278SOL    HW230732   9.488   0.492   0.885
76279SOL     OW30733  12.398   9.149   2.641
76279SOL    HW130734  12.347   9.220   2.601
76279SOL    HW230735  12.443   9.107   2.569
76280SOL     OW30736   1.994   8.150   2.107
76280SOL    HW130737   2.017   8.067   2.148
76280SOL    HW230738   1.940   8.125   2.032
76281SOL     OW30739   1.118   3.172   0.023
76281SOL    HW130740   1.037   3.157  14.845
76281SOL    HW230741   1.157   3.249  14.850
76282SOL     OW30742  12.322   3.211  11.113
76282SOL    HW130743  12.351   3.150  11.046
76282SOL    HW230744  12.349   3.297  11.080
76283SOL     OW30745   4.834  14.598  12.403
76283SOL    HW130746   4.904  14.656  12.432
76283SOL    HW230747   4.793  14.567  12.484
76284SOL     OW30748   0.556   1.593  12.449
76284SOL    HW130749   0.585   1.502  12.440
76284SOL    HW230750   0.506   1.594  12.531
76285SOL     OW30751  12.274   7.163   4.106
76285SOL    HW130752  12.366   7.182   4.125
76285SOL    HW230753  12.243   7.241   4.060
76286SOL     OW30754   3.355   8.779   7.770
76286SOL    HW130755   3.426   8.843   7.775
76286SOL    HW230756   3.399   8.694   7.777
76287SOL     OW30757  13.588   5.751  11.116
76287SOL    HW130758  13.550   5.663  11.107
76287SOL    HW230759  13.619   5.755  11.206
76288SOL     OW30760   1.089  12.272  14.576
76288SOL    HW130761   1.148  12.306  14.509
76288SOL    HW230762   1.089  12.177  14.562
76289SOL     OW30763   3.357   0.675  12.374
76289SOL    HW130764   3.354   0.653  12.467
76289SOL    HW230765   3.321   0.597  12.330
76290SOL     OW30766   6.546   3.383   9.632
76290SOL    HW130767   6.538   3.307   9.575
76290SOL    HW230768   6.574   3.346   9.716
76291SOL     OW30769  11.729  12.272   8.316
76291SOL    HW130770  11.816  12.262   8.279
76291SOL    HW230771  11.742  12.263   8.411
76292SOL     OW30772   7.368   6.252   0.333
76292SOL    HW130773   7.355   6.344   0.357
76292SOL    HW230774   7.289   6.208   0.365
76293SOL     OW30775   2.939   0.698  12.631
76293SOL    HW130776   2.892   0.669  12.553
76293SOL    HW230777   2.961   0.789  12.614
76294SOL     OW30778   0.362   1.609  13.012
76294SOL    HW130779   0.359   1.608  13.107
76294SOL    HW230780   0.425   1.678  12.990
76295SOL     OW30781   2.257   2.871   4.790
76295SOL    HW130782   2.313   2.948   4.792
76295SOL    HW230783   2.226   2.866   4.700
76296SOL     OW30784   4.977   8.802   3.257
76296SOL    HW130785   5.049   8.796   3.195
76296SOL    HW230786   5.017   8.835   3.338
76297SOL     OW30787   9.180   1.133  10.647
76297SOL    HW130788   9.106   1.193  10.661
76297SOL    HW230789   9.245   1.159  10.712
76298SOL     OW30790  11.165   0.689  10.235
76298SOL    HW130791  11.121   0.658  10.155
76298SOL    HW230792  11.125   0.774  10.252
76299SOL     OW30793   6.220  10.779   6.752
76299SOL    HW130794   6.273  10.704   6.777
76299SOL    HW230795   6.154  10.744   6.692
76300SOL     OW30796   1.760   2.703  11.678
76300SOL    HW130797   1.738   2.625  11.627
76300SOL    HW230798   1.735   2.777  11.622
76301SOL     OW30799   8.986   9.360   8.049
76301SOL    HW130800   8.970   9.271   8.081
76301SOL    HW230801   8.932   9.415   8.106
76302SOL     OW30802   6.044   7.448   9.057
76302SOL    HW130803   6.006   7.433   9.143
76302SOL    HW230804   6.007   7.532   9.028
76303SOL     OW30805   2.499   1.214   2.859
76303SOL    HW130806   2.412   1.184   2.887
76303SOL    HW230807   2.521   1.284   2.920
76304SOL     OW30808   9.599   6.966   6.569
76304SOL    HW130809   9.608   6.973   6.664
76304SOL    HW230810   9.686   6.937   6.539
76305SOL     OW30811  10.447   1.772   6.330
76305SOL    HW130812  10.534   1.809   6.342
76305SOL    HW230813  10.405   1.783   6.415
76306SOL     OW30814  12.759   4.108   5.560
76306SOL    HW130815  12.664   4.120   5.566
76306SOL    HW230816  12.789   4.183   5.509
76307SOL     OW30817   3.616  11.854  13.356
76307SOL    HW130818   3.631  11.880  13.265
76307SOL    HW230819   3.554  11.920  13.390
76308SOL     OW30820   6.263   3.342   6.223
76308SOL    HW130821   6.315   3.387   6.157
76308SOL    HW230822   6.328   3.303   6.282
76309SOL     OW30823  14.360   9.891  13.622
76309SOL    HW130824  14.285   9.832  13.616
76309SOL    HW230825  14.435   9.833  13.639
76310SOL     OW30826   6.268   9.092   1.874
76310SOL    HW130827   6.175   9.078   1.857
76310SOL    HW230828   6.276   9.086   1.969
76311SOL     OW30829  13.179   8.458  10.862
76311SOL    HW130830  13.125   8.379  10.861
76311SOL    HW230831  13.268   8.427  10.846
76312SOL     OW30832   0.136  12.019  12.981
76312SOL    HW130833   0.081  12.011  13.059
76312SOL    HW230834   0.224  11.997  13.011
76313SOL     OW30835   7.787  10.868  13.600
76313SOL    HW130836   7.706  10.861  13.549
76313SOL    HW230837   7.848  10.912  13.541
76314SOL     OW30838   2.914  14.679  14.172
76314SOL    HW130839   3.005  14.668  14.200
76314SOL    HW230840   2.919  14.695  14.078
76315SOL     OW30841   5.448   3.228   4.240
76315SOL    HW130842   5.522   3.257   4.293
76315SOL    HW230843   5.449   3.133   4.246
76316SOL     OW30844  11.907   4.728   9.384
76316SOL    HW130845  11.921   4.656   9.445
76316SOL    HW230846  11.982   4.724   9.324
76317SOL     OW30847   3.120   0.651   9.066
76317SOL    HW130848   3.212   0.627   9.081
76317SOL    HW230849   3.124   0.718   8.998
76318SOL     OW30850   2.052   9.672   4.051
76318SOL    HW130851   2.093   9.586   4.043
76318SOL    HW230852   2.095   9.713   4.126
76319SOL     OW30853   4.905   6.556  14.226
76319SOL    HW130854   4.859   6.478  14.259
76319SOL    HW230855   4.920   6.537  14.133
76320SOL     OW30856  11.589   5.002  12.404
76320SOL    HW130857  11.629   4.971  12.485
76320SOL    HW230858  11.607   4.934  12.340
76321SOL     OW30859   6.917   9.838   5.573
76321SOL    HW130860   6.922   9.931   5.553
76321SOL    HW230861   6.992   9.799   5.529
76322SOL     OW30862   5.497   3.051  10.852
76322SOL    HW130863   5.564   3.100  10.804
76322SOL    HW230864   5.475   2.978  10.793
76323SOL     OW30865  13.494  13.086  10.212
76323SOL    HW130866  13.522  13.177  10.202
76323SOL    HW230867  13.427  13.074  10.144
76324SOL     OW30868   4.781   3.959   1.316
76324SOL    HW130869   4.703   4.012   1.302
76324SOL    HW230870   4.839   4.015   1.368
76325SOL     OW30871   0.472   9.610   8.753
76325SOL    HW130872   0.538   9.549   8.784
76325SOL    HW230873   0.422   9.634   8.831
76326SOL     OW30874   4.479   7.576   9.536
76326SOL    HW130875   4.555   7.527   9.567
76326SOL    HW230876   4.407   7.547   9.594
76327SOL     OW30877   2.977   9.643  12.242
76327SOL    HW130878   3.065   9.669  12.269
76327SOL    HW230879   2.991   9.591  12.163
76328SOL     OW30880  12.564   9.751   8.156
76328SOL    HW130881  12.601   9.717   8.238
76328SOL    HW230882  12.627   9.727   8.089
76329SOL     OW30883   6.127   4.573   6.469
76329SOL    HW130884   6.106   4.508   6.536
76329SOL    HW230885   6.107   4.529   6.387
76330SOL     OW30886  13.009   3.308   4.550
76330SOL    HW130887  12.976   3.219   4.562
76330SOL    HW230888  12.945   3.363   4.595
76331SOL     OW30889  10.380   2.269   8.597
76331SOL    HW130890  10.455   2.322   8.624
76331SOL    HW230891  10.382   2.193   8.656
76332SOL     OW30892   6.491   1.161   2.416
76332SOL    HW130893   6.516   1.096   2.350
76332SOL    HW230894   6.518   1.122   2.499
76333SOL     OW30895   2.717   9.941   7.051
76333SOL    HW130896   2.656   9.874   7.081
76333SOL    HW230897   2.789   9.892   7.011
76334SOL     OW30898   1.353   5.965   7.588
76334SOL    HW130899   1.379   6.028   7.655
76334SOL    HW230900   1.344   6.017   7.508
76335SOL     OW30901   8.764   0.302  12.256
76335SOL    HW130902   8.719   0.385  12.242
76335SOL    HW230903   8.763   0.259  12.170
76336SOL     OW30904   9.200  11.769  14.015
76336SOL    HW130905   9.270  11.760  14.080
76336SOL    HW230906   9.240  11.819  13.944
76337SOL     OW30907  12.043   9.510   0.320
76337SOL    HW130908  12.074   9.566   0.250
76337SOL    HW230909  12.112   9.444   0.331
76338SOL     OW30910  12.489  11.600   8.210
76338SOL    HW130911  12.538  11.542   8.268
76338SOL    HW230912  12.412  11.549   8.184
76339SOL     OW30913   9.738   9.252   9.245
76339SOL    HW130914   9.727   9.157   9.247
76339SOL    HW230915   9.833   9.265   9.237
76340SOL     OW30916   3.229  10.013   0.240
76340SOL    HW130917   3.196  10.102   0.244
76340SOL    HW230918   3.208   9.983   0.151
76341SOL     OW30919  11.252   4.658   6.392
76341SOL    HW130920  11.291   4.592   6.449
76341SOL    HW230921  11.317   4.728   6.389
76342SOL     OW30922   5.931  13.704   9.340
76342SOL    HW130923   6.022  13.692   9.368
76342SOL    HW230924   5.903  13.617   9.311
76343SOL     OW30925   5.823  13.985   9.592
76343SOL    HW130926   5.797  13.953   9.678
76343SOL    HW230927   5.744  13.978   9.539
76344SOL     OW30928   3.806  11.143  12.704
76344SOL    HW130929   3.736  11.131  12.640
76344SOL    HW230930   3.764  11.191  12.776
76345SOL     OW30931   3.954   2.937   7.557
76345SOL    HW130932   3.979   2.861   7.505
76345SOL    HW230933   4.034   2.960   7.605
76346SOL     OW30934   4.134   7.003  10.206
76346SOL    HW130935   4.099   7.085  10.240
76346SOL    HW230936   4.061   6.941  10.212
76347SOL     OW30937   7.931   2.400   3.568
76347SOL    HW130938   7.924   2.322   3.623
76347SOL    HW230939   8.009   2.445   3.600
76348SOL     OW30940  10.823  14.569   2.867
76348SOL    HW130941  10.855  14.615   2.790
76348SOL    HW230942  10.808  14.638   2.931
76349SOL     OW30943  10.575  14.691   3.989
76349SOL    HW130944  10.648  14.631   3.998
76349SOL    HW230945  10.611  14.766   3.940
76350SOL     OW30946   1.339   1.266  11.212
76350SOL    HW130947   1.431   1.273  11.235
76350SOL    HW230948   1.313   1.178  11.241
76351SOL     OW30949  14.290  12.015   6.186
76351SOL    HW130950  14.323  11.925   6.187
76351SOL    HW230951  14.346  12.061   6.124
76352SOL     OW30952   3.172   2.887   9.589
76352SOL    HW130953   3.082   2.912   9.570
76352SOL    HW230954   3.182   2.901   9.683
76353SOL     OW30955   5.978   0.293   2.655
76353SOL    HW130956   6.051   0.315   2.597
76353SOL    HW230957   6.012   0.226   2.714
76354SOL     OW30958   3.432   6.604  12.170
76354SOL    HW130959   3.398   6.611  12.081
76354SOL    HW230960   3.361   6.635  12.226
76355SOL     OW30961   9.193  14.192  10.910
76355SOL    HW130962   9.184  14.286  10.896
76355SOL    HW230963   9.135  14.152  10.845
76356SOL     OW30964  12.446   4.376  10.999
76356SOL    HW130965  12.483   4.305  10.946
76356SOL    HW230966  12.492   4.371  11.082
76357SOL     OW30967   9.067   9.917  10.594
76357SOL    HW130968   9.154   9.910  10.633
76357SOL    HW230969   9.014   9.960  10.662
76358SOL     OW30970   2.107   4.092   0.608
76358SOL    HW130971   2.141   4.085   0.697
76358SOL    HW230972   2.091   4.001   0.582
76359SOL     OW30973   9.450  13.459   1.066
76359SOL    HW130974   9.374  13.404   1.082
76359SOL    HW230975   9.476  13.439   0.976
76360SOL     OW30976  11.726  12.023   4.560
76360SOL    HW130977  11.814  12.051   4.583
76360SOL    HW230978  11.732  11.928   4.548
76361SOL     OW30979   9.405   5.762  11.150
76361SOL    HW130980   9.402   5.814  11.070
76361SOL    HW230981   9.375   5.822  11.218
76362SOL     OW30982   4.151   2.555  12.365
76362SOL    HW130983   4.193   2.623  12.418
76362SOL    HW230984   4.209   2.544  12.290
76363SOL     OW30985   4.004   5.624   4.721
76363SOL    HW130986   4.087   5.576   4.724
76363SOL    HW230987   3.949   5.571   4.664
76364SOL     OW30988  13.080  11.001   0.634
76364SOL    HW130989  13.145  10.980   0.702
76364SOL    HW230990  13.132  11.012   0.555
76365SOL     OW30991  12.481   9.244   0.575
76365SOL    HW130992  12.521   9.330   0.559
76365SOL    HW230993  12.541   9.201   0.635
76366SOL     OW30994  13.012  12.119   8.089
76366SOL    HW130995  12.953  12.169   8.033
76366SOL    HW230996  12.958  12.048   8.123
76367SOL     OW30997   9.759  12.505  12.866
76367SOL    HW130998   9.729  12.529  12.954
76367SOL    HW230999   9.690  12.537  12.808
76368SOL     OW31000   0.730   2.567   1.120
76368SOL    HW131001   0.695   2.633   1.061
76368SOL    HW231002   0.792   2.615   1.175
76369SOL     OW31003  13.016  13.866  10.581
76369SOL    HW131004  13.034  13.958  10.599
76369SOL    HW231005  13.099  13.822  10.598
76370SOL     OW31006   4.855  12.143   1.876
76370SOL    HW131007   4.853  12.239   1.885
76370SOL    HW231008   4.940  12.125   1.835
76371SOL     OW31009   3.750  14.369  10.974
76371SOL    HW131010   3.746  14.309  10.900
76371SOL    HW231011   3.836  14.351  11.014
76372SOL     OW31012   0.167   5.898   9.138
76372SOL    HW131013   0.253   5.876   9.174
76372SOL    HW231014   0.186   5.936   9.052
76373SOL     OW31015   1.859   0.184   0.203
76373SOL    HW131016   1.777   0.138   0.220
76373SOL    HW231017   1.871   0.241   0.279
76374SOL     OW31018   2.744  12.546   9.309
76374SOL    HW131019   2.652  12.534   9.335
76374SOL    HW231020   2.747  12.636   9.276
76375SOL     OW31021  11.219   2.152   2.274
76375SOL    HW131022  11.175   2.125   2.193
76375SOL    HW231023  11.150   2.155   2.339
76376SOL     OW31024  13.262   8.161   7.143
76376SOL    HW131025  13.198   8.158   7.072
76376SOL    HW231026  13.211   8.147   7.222
76377SOL     OW31027  10.521  14.028   4.228
76377SOL    HW131028  10.503  13.940   4.261
76377SOL    HW231029  10.500  14.085   4.301
76378SOL     OW31030   2.734   6.761   3.852
76378SOL    HW131031   2.709   6.732   3.940
76378SOL    HW231032   2.734   6.857   3.859
76379SOL     OW31033  14.051   0.778   0.822
76379SOL    HW131034  14.039   0.729   0.903
76379SOL    HW231035  14.044   0.870   0.847
76380SOL     OW31036   8.480   3.250   4.459
76380SOL    HW131037   8.499   3.156   4.459
76380SOL    HW231038   8.385   3.256   4.468
76381SOL     OW31039   2.967   1.879   2.037
76381SOL    HW131040   2.964   1.877   1.942
76381SOL    HW231041   2.943   1.791   2.064
76382SOL     OW31042   8.228  13.094  11.619
76382SOL    HW131043   8.137  13.093  11.649
76382SOL    HW231044   8.279  13.114  11.698
76383SOL     OW31045   3.286  10.235  12.376
76383SOL    HW131046   3.377  10.238  12.346
76383SOL    HW231047   3.236  10.218  12.296
76384SOL     OW31048   5.632   4.267   9.402
76384SOL    HW131049   5.691   4.225   9.340
76384SOL    HW231050   5.613   4.353   9.363
76385SOL     OW31051   1.510   6.722   7.062
76385SOL    HW131052   1.554   6.712   6.978
76385SOL    HW231053   1.542   6.647   7.114
76386SOL     OW31054  13.990  11.121   1.126
76386SOL    HW131055  14.016  11.028   1.130
76386SOL    HW231056  14.067  11.166   1.092
76387SOL     OW31057  10.734  11.019   4.868
76387SOL    HW131058  10.654  10.966   4.864
76387SOL    HW231059  10.799  10.968   4.820
76388SOL     OW31060  12.100   5.497   5.992
76388SOL    HW131061  12.130   5.583   5.964
76388SOL    HW231062  12.008   5.494   5.966
76389SOL     OW31063  14.596  12.653  11.793
76389SOL    HW131064  14.546  12.668  11.872
76389SOL    HW231065  14.629  12.563  11.801
76390SOL     OW31066   5.392   7.623  10.705
76390SOL    HW131067   5.465   7.598  10.648
76390SOL    HW231068   5.321   7.563  10.680
76391SOL     OW31069  12.537   8.541   9.718
76391SOL    HW131070  12.536   8.457   9.671
76391SOL    HW231071  12.621   8.580   9.694
76392SOL     OW31072   8.356   4.691   7.929
76392SOL    HW131073   8.372   4.599   7.910
76392SOL    HW231074   8.266   4.706   7.900
76393SOL     OW31075  11.775  14.073  11.639
76393SOL    HW131076  11.777  14.153  11.691
76393SOL    HW231077  11.768  14.003  11.704
76394SOL     OW31078  11.716  11.103   3.346
76394SOL    HW131079  11.713  11.079   3.439
76394SOL    HW231080  11.680  11.027   3.301
76395SOL     OW31081  12.928   4.730   2.873
76395SOL    HW131082  12.912   4.820   2.900
76395SOL    HW231083  12.990   4.737   2.800
76396SOL     OW31084   5.459  14.023   0.436
76396SOL    HW131085   5.541  14.055   0.398
76396SOL    HW231086   5.485  13.980   0.517
76397SOL     OW31087  13.386   5.787   9.112
76397SOL    HW131088  13.373   5.882   9.118
76397SOL    HW231089  13.479   5.774   9.131
76398SOL     OW31090   3.138   4.775   5.047
76398SOL    HW131091   3.141   4.866   5.017
76398SOL    HW231092   3.213   4.734   5.005
76399SOL     OW31093   0.590   5.381  12.823
76399SOL    HW131094   0.547   5.302  12.791
76399SOL    HW231095   0.533   5.413  12.893
76400SOL     OW31096   1.879   1.295   8.559
76400SOL    HW131097   1.793   1.252   8.557
76400SOL    HW231098   1.861   1.386   8.535
76401SOL     OW31099  14.569  14.422   8.128
76401SOL    HW131100  14.530  14.360   8.067
76401SOL    HW231101  14.598  14.367   8.202
76402SOL     OW31102  12.129  10.010   8.779
76402SOL    HW131103  12.166  10.046   8.859
76402SOL    HW231104  12.073  10.080   8.744
76403SOL     OW31105   3.754   1.067   2.790
76403SOL    HW131106   3.833   1.108   2.756
76403SOL    HW231107   3.781   1.026   2.872
76404SOL     OW31108   1.600   8.053  11.112
76404SOL    HW131109   1.633   8.012  11.032
76404SOL    HW231110   1.646   8.137  11.116
76405SOL     OW31111   0.370   0.064  11.101
76405SOL    HW131112   0.402   0.083  11.013
76405SOL    HW231113   0.338  14.844  11.096
76406SOL     OW31114   9.537  13.839   7.962
76406SOL    HW131115   9.569  13.893   8.034
76406SOL    HW231116   9.574  13.879   7.883
76407SOL     OW31117   4.652   1.153   9.097
76407SOL    HW131118   4.676   1.088   9.030
76407SOL    HW231119   4.736   1.178   9.136
76408SOL     OW31120   8.759   8.662  14.752
76408SOL    HW131121   8.800   8.576  14.759
76408SOL    HW231122   8.684   8.658  14.812
76409SOL     OW31123  14.717   1.700  11.499
76409SOL    HW131124  14.628   1.663  11.498
76409SOL    HW231125  14.714   1.768  11.565
76410SOL     OW31126   7.410   8.320   9.118
76410SOL    HW131127   7.368   8.366   9.046
76410SOL    HW231128   7.447   8.389   9.172
76411SOL     OW31129   2.220  10.778   5.226
76411SOL    HW131130   2.279  10.783   5.301
76411SOL    HW231131   2.276  10.795   5.150
76412SOL     OW31132   6.358  10.430   6.457
76412SOL    HW131133   6.306  10.351   6.445
76412SOL    HW231134   6.441  10.399   6.494
76413SOL     OW31135   2.455  10.982  12.968
76413SOL    HW131136   2.386  10.919  12.944
76413SOL    HW231137   2.535  10.929  12.973
76414SOL     OW31138   4.973   4.489   0.053
76414SOL    HW131139   4.979   4.557   0.120
76414SOL    HW231140   4.950   4.537  14.843
76415SOL     OW31141   0.741   6.436   8.417
76415SOL    HW131142   0.776   6.426   8.328
76415SOL    HW231143   0.663   6.490   8.406
76416SOL     OW31144  14.316  14.612  14.640
76416SOL    HW131145  14.323  14.542  14.575
76416SOL    HW231146  14.337  14.692  14.591
76417SOL     OW31147  11.358  12.812   9.682
76417SOL    HW131148  11.341  12.883   9.620
76417SOL    HW231149  11.387  12.739   9.627
76418SOL     OW31150   6.850   1.153   4.279
76418SOL    HW131151   6.939   1.120   4.288
76418SOL    HW231152   6.814   1.105   4.204
76419SOL     OW31153   3.480   5.343   4.327
76419SOL    HW131154   3.497   5.392   4.246
76419SOL    HW231155   3.492   5.408   4.397
76420SOL     OW31156   1.534   2.278  14.099
76420SOL    HW131157   1.550   2.352  14.041
76420SOL    HW231158   1.536   2.315  14.187
76421SOL     OW31159   3.340   6.914   8.687
76421SOL    HW131160   3.408   6.857   8.723
76421SOL    HW231161   3.375   7.002   8.698
76422SOL     OW31162   4.172  14.002   4.902
76422SOL    HW131163   4.076  14.005   4.895
76422SOL    HW231164   4.190  14.026   4.992
76423SOL     OW31165  10.788   3.492   6.241
76423SOL    HW131166  10.706   3.443   6.247
76423SOL    HW231167  10.800   3.528   6.329
76424SOL     OW31168  14.414   6.198   0.339
76424SOL    HW131169  14.333   6.249   0.338
76424SOL    HW231170  14.386   6.109   0.318
76425SOL     OW31171   1.075   2.510  14.582
76425SOL    HW131172   1.028   2.573  14.528
76425SOL    HW231173   1.084   2.432  14.526
76426SOL     OW31174   0.881  12.816   1.527
76426SOL    HW131175   0.889  12.854   1.440
76426SOL    HW231176   0.841  12.730   1.512
76427SOL     OW31177   7.418  11.701   2.898
76427SOL    HW131178   7.509  11.699   2.928
76427SOL    HW231179   7.420  11.758   2.821
76428SOL     OW31180   9.110   0.056   4.068
76428SOL    HW131181   9.137  14.846   4.022
76428SOL    HW231182   9.029   0.083   4.024
76429SOL     OW31183  14.106  11.209   2.303
76429SOL    HW131184  14.179  11.159   2.267
76429SOL    HW231185  14.121  11.210   2.397
76430SOL     OW31186   6.326  10.393  11.522
76430SOL    HW131187   6.294  10.425  11.438
76430SOL    HW231188   6.307  10.300  11.522
76431SOL     OW31189   2.076  12.142   7.379
76431SOL    HW131190   1.992  12.155   7.336
76431SOL    HW231191   2.141  12.147   7.308
76432SOL     OW31192   5.691  11.323   9.110
76432SOL    HW131193   5.736  11.405   9.128
76432SOL    HW231194   5.633  11.311   9.184
76433SOL     OW31195   0.173  14.483  13.709
76433SOL    HW131196   0.263  14.456  13.724
76433SOL    HW231197   0.121  14.405  13.731
76434SOL     OW31198   9.283   8.761  13.174
76434SOL    HW131199   9.361   8.759  13.230
76434SOL    HW231200   9.287   8.679  13.124
76435SOL     OW31201  10.668  12.156   5.640
76435SOL    HW131202  10.659  12.189   5.551
76435SOL    HW231203  10.718  12.075   5.632
76436SOL     OW31204   5.378   5.665   2.388
76436SOL    HW131205   5.409   5.577   2.370
76436SOL    HW231206   5.416   5.688   2.473
76437SOL     OW31207   8.643  13.692   6.366
76437SOL    HW131208   8.573  13.627   6.368
76437SOL    HW231209   8.715  13.651   6.414
76438SOL     OW31210  12.773   6.839   1.908
76438SOL    HW131211  12.721   6.920   1.906
76438SOL    HW231212  12.864   6.868   1.897
76439SOL     OW31213   8.848   7.415   9.245
76439SOL    HW131214   8.919   7.477   9.262
76439SOL    HW231215   8.882   7.356   9.178
76440SOL     OW31216   3.148  13.416   4.024
76440SOL    HW131217   3.118  13.361   3.952
76440SOL    HW231218   3.189  13.354   4.085
76441SOL     OW31219   7.201   1.316   5.743
76441SOL    HW131220   7.235   1.375   5.811
76441SOL    HW231221   7.184   1.373   5.668
76442SOL     OW31222   3.252   8.890  13.233
76442SOL    HW131223   3.308   8.872  13.158
76442SOL    HW231224   3.272   8.981  13.257
76443SOL     OW31225   2.141  11.539   7.742
76443SOL    HW131226   2.073  11.484   7.704
76443SOL    HW231227   2.223  11.502   7.708
76444SOL     OW31228   4.277  14.538   2.863
76444SOL    HW131229   4.308  14.467   2.919
76444SOL    HW231230   4.187  14.512   2.839
76445SOL     OW31231   6.424   8.329   6.623
76445SOL    HW131232   6.357   8.276   6.668
76445SOL    HW231233   6.506   8.283   6.640
76446SOL     OW31234   0.097   7.018   4.971
76446SOL    HW131235   0.044   7.065   5.035
76446SOL    HW231236   0.084   6.925   4.991
76447SOL     OW31237  14.496  11.968   6.771
76447SOL    HW131238  14.543  12.050   6.759
76447SOL    HW231239  14.548  11.903   6.724
76448SOL     OW31240   7.839   2.201   9.330
76448SOL    HW131241   7.882   2.172   9.411
76448SOL    HW231242   7.752   2.161   9.333
76449SOL     OW31243   7.394   1.864   9.623
76449SOL    HW131244   7.396   1.815   9.540
76449SOL    HW231245   7.324   1.927   9.611
76450SOL     OW31246   5.778   1.040   1.566
76450SOL    HW131247   5.755   0.947   1.565
76450SOL    HW231248   5.844   1.048   1.634
76451SOL     OW31249  11.943   7.209  12.075
76451SOL    HW131250  11.944   7.139  12.010
76451SOL    HW231251  12.007   7.272  12.043
76452SOL     OW31252   6.006   2.248  14.514
76452SOL    HW131253   6.000   2.290  14.428
76452SOL    HW231254   5.975   2.159  14.499
76453SOL     OW31255   6.570  12.047   8.696
76453SOL    HW131256   6.541  12.025   8.784
76453SOL    HW231257   6.664  12.058   8.704
76454SOL     OW31258   2.483   8.229  13.738
76454SOL    HW131259   2.512   8.263  13.654
76454SOL    HW231260   2.480   8.305  13.796
76455SOL     OW31261  13.042  11.887   3.640
76455SOL    HW131262  13.120  11.940   3.628
76455SOL    HW231263  13.026  11.848   3.554
76456SOL     OW31264  11.180  13.721  11.519
76456SOL    HW131265  11.112  13.783  11.543
76456SOL    HW231266  11.169  13.649  11.580
76457SOL     OW31267  13.436   2.942  13.463
76457SOL    HW131268  13.375   2.871  13.481
76457SOL    HW231269  13.411   2.975  13.377
76458SOL     OW31270  13.797  13.698   5.548
76458SOL    HW131271  13.808  13.696   5.643
76458SOL    HW231272  13.768  13.610   5.526
76459SOL     OW31273  13.726   9.035   4.329
76459SOL    HW131274  13.785   8.960   4.338
76459SOL    HW231275  13.640   9.000   4.355
76460SOL     OW31276   4.402   5.910   9.061
76460SOL    HW131277   4.326   5.876   9.014
76460SOL    HW231278   4.405   5.859   9.142
76461SOL     OW31279   5.293  13.401   1.877
76461SOL    HW131280   5.346  13.323   1.859
76461SOL    HW231281   5.315  13.461   1.806
76462SOL     OW31282   1.443   0.621   3.246
76462SOL    HW131283   1.497   0.700   3.241
76462SOL    HW231284   1.367   0.641   3.192
76463SOL     OW31285   4.193   8.309  12.817
76463SOL    HW131286   4.178   8.321  12.911
76463SOL    HW231287   4.288   8.308  12.808
76464SOL     OW31288   4.159   1.003  11.334
76464SOL    HW131289   4.172   0.962  11.420
76464SOL    HW231290   4.152   1.096  11.353
76465SOL     OW31291  12.721   5.739   4.844
76465SOL    HW131292  12.807   5.711   4.874
76465SOL    HW231293  12.695   5.674   4.779
76466SOL     OW31294   4.841   8.734   4.913
76466SOL    HW131295   4.897   8.809   4.891
76466SOL    HW231296   4.799   8.711   4.830
76467SOL     OW31297   5.141   3.728   2.394
76467SOL    HW131298   5.103   3.752   2.478
76467SOL    HW231299   5.161   3.635   2.402
76468SOL     OW31300   4.959   2.259   9.390
76468SOL    HW131301   4.918   2.174   9.382
76468SOL    HW231302   4.958   2.277   9.484
76469SOL     OW31303   6.847   4.727  11.052
76469SOL    HW131304   6.924   4.694  11.006
76469SOL    HW231305   6.789   4.651  11.061
76470SOL     OW31306   5.079  11.515   0.606
76470SOL    HW131307   5.129  11.473   0.677
76470SOL    HW231308   5.049  11.442   0.552
76471SOL     OW31309   1.458  11.123   7.385
76471SOL    HW131310   1.412  11.054   7.433
76471SOL    HW231311   1.455  11.094   7.294
76472SOL     OW31312   3.995   3.152   4.221
76472SOL    HW131313   3.900   3.159   4.223
76472SOL    HW231314   4.014   3.070   4.268
76473SOL     OW31315   1.204   1.604   0.059
76473SOL    HW131316   1.143   1.674   0.079
76473SOL    HW231317   1.283   1.648   0.028
76474SOL     OW31318   4.453   9.523   6.824
76474SOL    HW131319   4.547   9.522   6.846
76474SOL    HW231320   4.451   9.541   6.730
76475SOL     OW31321   3.057  11.068  14.502
76475SOL    HW131322   3.152  11.071  14.490
76475SOL    HW231323   3.027  11.156  14.479
76476SOL     OW31324   7.141  13.429   8.476
76476SOL    HW131325   7.109  13.391   8.394
76476SOL    HW231326   7.162  13.520   8.453
76477SOL     OW31327   6.880  13.893   4.366
76477SOL    HW131328   6.923  13.895   4.280
76477SOL    HW231329   6.899  13.806   4.400
76478SOL     OW31330  14.381   1.522   7.803
76478SOL    HW131331  14.357   1.593   7.743
76478SOL    HW231332  14.382   1.444   7.748
76479SOL     OW31333   0.887   8.427   1.097
76479SOL    HW131334   0.833   8.403   1.172
76479SOL    HW231335   0.911   8.518   1.113
76480SOL     OW31336   4.146   5.260   5.685
76480SOL    HW131337   4.134   5.355   5.679
76480SOL    HW231338   4.064   5.224   5.651
76481SOL     OW31339  10.071   6.104   3.617
76481SOL    HW131340   9.981   6.136   3.627
76481SOL    HW231341  10.064   6.009   3.630
76482SOL     OW31342   5.083  12.639   3.603
76482SOL    HW131343   5.081  12.562   3.660
76482SOL    HW231344   4.991  12.650   3.576
76483SOL     OW31345  11.699  13.200   6.260
76483SOL    HW131346  11.714  13.150   6.341
76483SOL    HW231347  11.686  13.133   6.193
76484SOL     OW31348   2.717  11.428   0.023
76484SOL    HW131349   2.784  11.423   0.091
76484SOL    HW231350   2.707  11.337  14.863
76485SOL     OW31351   4.756   6.366   3.960
76485SOL    HW131352   4.709   6.327   4.033
76485SOL    HW231353   4.693   6.365   3.888
76486SOL     OW31354   3.971  11.181   7.198
76486SOL    HW131355   3.964  11.220   7.285
76486SOL    HW231356   3.940  11.249   7.138
76487SOL     OW31357   3.461   7.895   9.579
76487SOL    HW131358   3.467   7.914   9.485
76487SOL    HW231359   3.432   7.977   9.618
76488SOL     OW31360   9.482  12.757   2.779
76488SOL    HW131361   9.400  12.709   2.765
76488SOL    HW231362   9.455  12.848   2.788
76489SOL     OW31363   7.480   4.076  13.312
76489SOL    HW131364   7.402   4.079  13.367
76489SOL    HW231365   7.554   4.081  13.373
76490SOL     OW31366  11.789  10.124   9.150
76490SOL    HW131367  11.723  10.063   9.183
76490SOL    HW231368  11.739  10.196   9.112
76491SOL     OW31369  13.966   2.510   5.033
76491SOL    HW131370  13.883   2.462   5.041
76491SOL    HW231371  14.003   2.508   5.121
76492SOL     OW31372   0.967   6.133   8.223
76492SOL    HW131373   1.004   6.221   8.213
76492SOL    HW231374   0.961   6.098   8.134
76493SOL     OW31375   7.330   2.766   9.909
76493SOL    HW131376   7.249   2.813   9.892
76493SOL    HW231377   7.303   2.693   9.966
76494SOL     OW31378   0.464  12.669  13.051
76494SOL    HW131379   0.543  12.722  13.063
76494SOL    HW231380   0.428  12.697  12.967
76495SOL     OW31381  14.054   0.509  11.515
76495SOL    HW131382  13.988   0.555  11.568
76495SOL    HW231383  14.138   0.535  11.555
76496SOL     OW31384   0.760  13.735   8.378
76496SOL    HW131385   0.855  13.730   8.381
76496SOL    HW231386   0.738  13.809   8.435
76497SOL     OW31387   9.911   6.333   9.016
76497SOL    HW131388   9.871   6.360   9.099
76497SOL    HW231389   9.991   6.287   9.042
76498SOL     OW31390  12.037   6.952   1.841
76498SOL    HW131391  12.097   6.986   1.775
76498SOL    HW231392  12.086   6.958   1.923
76499SOL     OW31393   3.526   9.354  10.769
76499SOL    HW131394   3.466   9.423  10.798
76499SOL    HW231395   3.491   9.326  10.684
76500SOL     OW31396   7.671  11.621   6.178
76500SOL    HW131397   7.715  11.642   6.096
76500SOL    HW231398   7.579  11.613   6.154
76501SOL     OW31399  13.425  11.513   4.311
76501SOL    HW131400  13.419  11.575   4.383
76501SOL    HW231401  13.511  11.528   4.272
76502SOL     OW31402   2.045  13.115   7.686
76502SOL    HW131403   1.957  13.141   7.713
76502SOL    HW231404   2.031  13.052   7.615
76503SOL     OW31405   8.608   9.471   3.355
76503SOL    HW131406   8.566   9.468   3.270
76503SOL    HW231407   8.647   9.558   3.361
76504SOL     OW31408  13.671   5.748   5.684
76504SOL    HW131409  13.583   5.786   5.686
76504SOL    HW231410  13.712   5.778   5.765
76505SOL     OW31411   0.593   1.676   6.999
76505SOL    HW131412   0.685   1.678   6.974
76505SOL    HW231413   0.563   1.766   6.987
76506SOL     OW31414   0.018   8.813   3.301
76506SOL    HW131415  14.850   8.726   3.286
76506SOL    HW231416   0.103   8.795   3.343
76507SOL     OW31417  13.862   5.997  13.318
76507SOL    HW131418  13.799   5.952  13.261
76507SOL    HW231419  13.881   6.079  13.272
76508SOL     OW31420   2.853   8.679   6.499
76508SOL    HW131421   2.906   8.741   6.550
76508SOL    HW231422   2.914   8.610   6.474
76509SOL     OW31423  10.259   2.056   4.673
76509SOL    HW131424  10.175   2.022   4.643
76509SOL    HW231425  10.238   2.114   4.745
76510SOL     OW31426   9.046   5.653  14.751
76510SOL    HW131427   8.969   5.596  14.748
76510SOL    HW231428   9.059   5.672  14.844
76511SOL     OW31429   3.937  13.656  14.747
76511SOL    HW131430   4.015  13.683  14.699
76511SOL    HW231431   3.929  13.562  14.730
76512SOL     OW31432   8.500   0.472   8.400
76512SOL    HW131433   8.408   0.458   8.423
76512SOL    HW231434   8.532   0.534   8.465
76513SOL     OW31435   2.079   2.594   1.656
76513SOL    HW131436   1.987   2.570   1.661
76513SOL    HW231437   2.119   2.524   1.605
76514SOL     OW31438   6.260  10.129  14.850
76514SOL    HW131439   6.270  10.074  14.772
76514SOL    HW231440   6.319  10.203  14.835
76515SOL     OW31441  10.128   5.661   2.365
76515SOL    HW131442  10.173   5.638   2.284
76515SOL    HW231443  10.048   5.608   2.363
76516SOL     OW31444  13.376  10.176   2.905
76516SOL    HW131445  13.451  10.235   2.903
76516SOL    HW231446  13.393  10.118   2.980
76517SOL     OW31447   2.081   6.094  13.088
76517SOL    HW131448   2.127   6.126  13.010
76517SOL    HW231449   2.030   6.169  13.118
76518SOL     OW31450   2.730   3.852   4.555
76518SOL    HW131451   2.736   3.819   4.466
76518SOL    HW231452   2.647   3.816   4.588
76519SOL     OW31453   7.639   9.099   7.768
76519SOL    HW131454   7.611   9.034   7.834
76519SOL    HW231455   7.723   9.066   7.737
76520SOL     OW31456  13.672   6.972   1.510
76520SOL    HW131457  13.646   7.043   1.452
76520SOL    HW231458  13.739   7.011   1.567
76521SOL     OW31459  10.970   2.886  13.459
76521SOL    HW131460  10.945   2.883  13.551
76521SOL    HW231461  10.895   2.848  13.412
76522SOL     OW31462   4.628   1.822   9.645
76522SOL    HW131463   4.541   1.823   9.683
76522SOL    HW231464   4.614   1.837   9.551
76523SOL     OW31465   8.505   1.299  14.542
76523SOL    HW131466   8.459   1.308  14.458
76523SOL    HW231467   8.442   1.332  14.607
76524SOL     OW31468  13.625  11.349  12.771
76524SOL    HW131469  13.540  11.334  12.812
76524SOL    HW231470  13.627  11.442  12.751
76525SOL     OW31471  14.281   9.330  11.935
76525SOL    HW131472  14.261   9.372  11.851
76525SOL    HW231473  14.321   9.246  11.911
76526SOL     OW31474   8.216  14.181  11.954
76526SOL    HW131475   8.198  14.259  11.901
76526SOL    HW231476   8.251  14.118  11.892
76527SOL     OW31477  10.033  12.028  10.221
76527SOL    HW131478  10.053  12.101  10.279
76527SOL    HW231479  10.116  11.984  10.208
76528SOL     OW31480  13.659   5.177   5.830
76528SOL    HW131481  13.616   5.204   5.748
76528SOL    HW231482  13.753   5.176   5.808
76529SOL     OW31483   9.755   2.538   2.333
76529SOL    HW131484   9.688   2.550   2.266
76529SOL    HW231485   9.838   2.539   2.285
76530SOL     OW31486   5.676  10.878   2.687
76530SOL    HW131487   5.769  10.880   2.709
76530SOL    HW231488   5.631  10.909   2.766
76531SOL     OW31489  12.778   4.896   7.391
76531SOL    HW131490  12.767   4.916   7.485
76531SOL    HW231491  12.772   4.982   7.348
76532SOL     OW31492  12.272   7.063   4.377
76532SOL    HW131493  12.272   7.085   4.284
76532SOL    HW231494  12.345   7.001   4.387
76533SOL     OW31495   1.354   2.820  11.589
76533SOL    HW131496   1.437   2.833  11.636
76533SOL    HW231497   1.378   2.769  11.512
76534SOL     OW31498   8.807   9.637   7.493
76534SOL    HW131499   8.852   9.560   7.527
76534SOL    HW231500   8.831   9.641   7.401
76535SOL     OW31501   2.687  13.085  11.895
76535SOL    HW131502   2.674  13.010  11.954
76535SOL    HW231503   2.604  13.132  11.896
76536SOL     OW31504   4.642   3.211   4.234
76536SOL    HW131505   4.591   3.272   4.288
76536SOL    HW231506   4.673   3.265   4.160
76537SOL     OW31507  13.846   0.615   3.709
76537SOL    HW131508  13.847   0.658   3.623
76537SOL    HW231509  13.927   0.564   3.711
76538SOL     OW31510   6.704  11.744   7.595
76538SOL    HW131511   6.639  11.809   7.566
76538SOL    HW231512   6.754  11.789   7.662
76539SOL     OW31513   2.223  13.804  14.863
76539SOL    HW131514   2.142  13.778  14.820
76539SOL    HW231515   2.194  13.853   0.071
76540SOL     OW31516  11.514   3.014   2.519
76540SOL    HW131517  11.587   2.998   2.459
76540SOL    HW231518  11.514   2.939   2.578
76541SOL     OW31519   6.599   9.854   8.251
76541SOL    HW131520   6.616   9.849   8.345
76541SOL    HW231521   6.512   9.894   8.244
76542SOL     OW31522  12.022   0.563   8.317
76542SOL    HW131523  12.041   0.479   8.359
76542SOL    HW231524  11.933   0.553   8.284
76543SOL     OW31525   9.293   2.898  11.485
76543SOL    HW131526   9.351   2.949  11.542
76543SOL    HW231527   9.330   2.810  11.484
76544SOL     OW31528   2.515  10.653   1.804
76544SOL    HW131529   2.579  10.723   1.790
76544SOL    HW231530   2.439  10.679   1.753
76545SOL     OW31531  10.721   6.050   5.713
76545SOL    HW131532  10.700   6.099   5.792
76545SOL    HW231533  10.801   6.092   5.680
76546SOL     OW31534   7.917   9.703   5.332
76546SOL    HW131535   7.920   9.722   5.238
76546SOL    HW231536   7.978   9.631   5.343
76547SOL     OW31537   9.086   3.175   3.727
76547SOL    HW131538   9.157   3.237   3.744
76547SOL    HW231539   9.109   3.097   3.777
76548SOL     OW31540  10.988  14.092  13.403
76548SOL    HW131541  11.053  14.063  13.467
76548SOL    HW231542  11.040  14.138  13.337
76549SOL     OW31543   8.120   2.688   6.567
76549SOL    HW131544   8.036   2.653   6.536
76549SOL    HW231545   8.178   2.682   6.492
76550SOL     OW31546  12.757   9.069   0.264
76550SOL    HW131547  12.752   9.161   0.290
76550SOL    HW231548  12.718   9.022   0.337
76551SOL     OW31549   8.063  12.477   7.884
76551SOL    HW131550   8.110  12.393   7.887
76551SOL    HW231551   8.131  12.543   7.878
76552SOL     OW31552   0.413  11.110  12.227
76552SOL    HW131553   0.501  11.113  12.189
76552SOL    HW231554   0.420  11.163  12.306
76553SOL     OW31555   8.986   2.742  14.751
76553SOL    HW131556   8.990   2.810  14.684
76553SOL    HW231557   8.909   2.764  14.803
76554SOL     OW31558  13.559   2.441  11.712
76554SOL    HW131559  13.584   2.518  11.662
76554SOL    HW231560  13.611   2.370  11.675
76555SOL     OW31561  12.991  13.687   9.286
76555SOL    HW131562  12.983  13.592   9.279
76555SOL    HW231563  13.041  13.713   9.209
76556SOL     OW31564   5.479   5.713   0.509
76556SOL    HW131565   5.458   5.647   0.575
76556SOL    HW231566   5.539   5.669   0.449
76557SOL     OW31567   1.485   4.614  12.838
76557SOL    HW131568   1.436   4.532  12.842
76557SOL    HW231569   1.556   4.603  12.901
76558SOL     OW31570   1.970  12.145   3.236
76558SOL    HW131571   1.971  12.096   3.154
76558SOL    HW231572   2.057  12.131   3.273
76559SOL     OW31573   4.832  14.261   4.670
76559SOL    HW131574   4.776  14.327   4.712
76559SOL    HW231575   4.859  14.303   4.587
76560SOL     OW31576  12.928   7.772   3.484
76560SOL    HW131577  12.882   7.711   3.542
76560SOL    HW231578  13.010   7.727   3.463
76561SOL     OW31579   9.450   5.392   0.438
76561SOL    HW131580   9.424   5.433   0.355
76561SOL    HW231581   9.392   5.316   0.445
76562SOL     OW31582   4.583   9.140   5.320
76562SOL    HW131583   4.667   9.102   5.347
76562SOL    HW231584   4.520   9.106   5.384
76563SOL     OW31585   9.192  11.354   8.403
76563SOL    HW131586   9.211  11.307   8.484
76563SOL    HW231587   9.258  11.324   8.342
76564SOL     OW31588  10.526  11.840   6.297
76564SOL    HW131589  10.547  11.832   6.390
76564SOL    HW231590  10.597  11.795   6.252
76565SOL     OW31591   8.394   6.707  13.694
76565SOL    HW131592   8.384   6.630  13.751
76565SOL    HW231593   8.340   6.687  13.618
76566SOL     OW31594   0.739  11.951  13.604
76566SOL    HW131595   0.673  11.902  13.556
76566SOL    HW231596   0.803  11.885  13.630
76567SOL     OW31597   4.129  14.653   3.792
76567SOL    HW131598   4.151  14.679   3.882
76567SOL    HW231599   4.210  14.663   3.743
76568SOL     OW31600  14.485   7.872   7.023
76568SOL    HW131601  14.574   7.846   7.045
76568SOL    HW231602  14.446   7.899   7.107
76569SOL     OW31603  12.436  13.691  13.396
76569SOL    HW131604  12.387  13.745  13.458
76569SOL    HW231605  12.417  13.601  13.422
76570SOL     OW31606  11.856   1.503   0.626
76570SOL    HW131607  11.879   1.471   0.539
76570SOL    HW231608  11.830   1.594   0.612
76571SOL     OW31609  12.093   0.294   1.192
76571SOL    HW131610  12.011   0.331   1.225
76571SOL    HW231611  12.071   0.204   1.168
76572SOL     OW31612  14.447   5.725  13.673
76572SOL    HW131613  14.501   5.730  13.594
76572SOL    HW231614  14.495   5.776  13.739
76573SOL     OW31615   8.195  12.637   9.489
76573SOL    HW131616   8.115  12.683   9.513
76573SOL    HW231617   8.169  12.578   9.418
76574SOL     OW31618   4.106  13.631  10.374
76574SOL    HW131619   4.032  13.687  10.349
76574SOL    HW231620   4.101  13.626  10.469
76575SOL     OW31621  14.405   9.578   7.759
76575SOL    HW131622  14.355   9.561   7.839
76575SOL    HW231623  14.437   9.668   7.770
76576SOL     OW31624   1.822   6.807  12.480
76576SOL    HW131625   1.827   6.880  12.418
76576SOL    HW231626   1.839   6.729  12.427
76577SOL     OW31627   0.219   4.984   8.338
76577SOL    HW131628   0.279   4.946   8.273
76577SOL    HW231629   0.205   5.073   8.308
76578SOL     OW31630   8.631   1.474   9.060
76578SOL    HW131631   8.554   1.493   9.114
76578SOL    HW231632   8.705   1.505   9.112
76579SOL     OW31633   2.710   1.817  11.307
76579SOL    HW131634   2.690   1.899  11.353
76579SOL    HW231635   2.637   1.805  11.246
76580SOL     OW31636   5.919  14.481  14.144
76580SOL    HW131637   5.862  14.478  14.067
76580SOL    HW231638   5.889  14.409  14.199
76581SOL     OW31639  12.034   1.189   0.959
76581SOL    HW131640  12.088   1.195   0.880
76581SOL    HW231641  11.966   1.256   0.946
76582SOL     OW31642   0.408   6.386  12.160
76582SOL    HW131643   0.450   6.315  12.112
76582SOL    HW231644   0.429   6.465  12.111
76583SOL     OW31645  12.157   6.983   8.227
76583SOL    HW131646  12.081   7.015   8.275
76583SOL    HW231647  12.129   6.977   8.136
76584SOL     OW31648   8.901   2.258   9.051
76584SOL    HW131649   8.988   2.286   9.080
76584SOL    HW231650   8.918   2.206   8.973
76585SOL     OW31651   2.734   0.444  10.406
76585SOL    HW131652   2.702   0.527  10.441
76585SOL    HW231653   2.708   0.445  10.314
76586SOL     OW31654   7.223  14.198   9.044
76586SOL    HW131655   7.260  14.164   9.126
76586SOL    HW231656   7.143  14.147   9.031
76587SOL     OW31657   6.511   6.873   0.372
76587SOL    HW131658   6.487   6.835   0.288
76587SOL    HW231659   6.573   6.943   0.350
76588SOL     OW31660   7.748   7.129   1.803
76588SOL    HW131661   7.684   7.066   1.772
76588SOL    HW231662   7.759   7.190   1.730
76589SOL     OW31663   8.027   1.072  12.190
76589SOL    HW131664   7.940   1.044  12.220
76589SOL    HW231665   8.079   1.076  12.270
76590SOL     OW31666  13.567   0.275  12.243
76590SOL    HW131667  13.587   0.361  12.281
76590SOL    HW231668  13.649   0.246  12.204
76591SOL     OW31669  13.649  14.268  14.314
76591SOL    HW131670  13.687  14.188  14.350
76591SOL    HW231671  13.721  14.331  14.314
76592SOL     OW31672   8.531   7.687   3.179
76592SOL    HW131673   8.551   7.744   3.254
76592SOL    HW231674   8.477   7.742   3.122
76593SOL     OW31675   8.395   0.664   7.743
76593SOL    HW131676   8.442   0.615   7.676
76593SOL    HW231677   8.366   0.597   7.806
76594SOL     OW31678   4.825   6.677   5.215
76594SOL    HW131679   4.769   6.754   5.223
76594SOL    HW231680   4.773   6.605   5.252
76595SOL     OW31681   4.678   4.800   9.084
76595SOL    HW131682   4.730   4.756   9.018
76595SOL    HW231683   4.620   4.858   9.034
76596SOL     OW31684   3.034   6.267   8.520
76596SOL    HW131685   2.982   6.287   8.442
76596SOL    HW231686   3.115   6.316   8.509
76597SOL     OW31687   0.590   6.223  14.050
76597SOL    HW131688   0.612   6.316  14.045
76597SOL    HW231689   0.501   6.221  14.085
76598SOL     OW31690  11.864   9.072  13.339
76598SOL    HW131691  11.905   9.024  13.411
76598SOL    HW231692  11.771   9.073  13.362
76599SOL     OW31693  10.621   0.644   1.625
76599SOL    HW131694  10.527   0.651   1.611
76599SOL    HW231695  10.657   0.719   1.577
76600SOL     OW31696  13.394   8.049   8.844
76600SOL    HW131697  13.449   8.122   8.814
76600SOL    HW231698  13.381   7.995   8.766
76601SOL     OW31699  12.878  12.024  14.019
76601SOL    HW131700  12.928  12.088  14.070
76601SOL    HW231701  12.795  12.068  14.000
76602SOL     OW31702  13.151   7.757  13.242
76602SOL    HW131703  13.232   7.706  13.239
76602SOL    HW231704  13.082   7.691  13.250
76603SOL     OW31705   4.940   6.052   7.188
76603SOL    HW131706   5.001   6.055   7.114
76603SOL    HW231707   4.984   6.102   7.257
76604SOL     OW31708   8.669  11.034   5.441
76604SOL    HW131709   8.610  11.050   5.367
76604SOL    HW231710   8.757  11.043   5.405
76605SOL     OW31711   8.353   7.514  13.718
76605SOL    HW131712   8.331   7.501  13.811
76605SOL    HW231713   8.344   7.608  13.705
76606SOL     OW31714   0.923   0.634   6.983
76606SOL    HW131715   1.000   0.676   6.945
76606SOL    HW231716   0.937   0.541   6.969
76607SOL     OW31717  13.312  12.510   2.704
76607SOL    HW131718  13.279  12.432   2.748
76607SOL    HW231719  13.234  12.562   2.685
76608SOL     OW31720  14.304   6.421   6.627
76608SOL    HW131721  14.316   6.443   6.535
76608SOL    HW231722  14.391   6.430   6.666
76609SOL     OW31723  10.759   1.126  11.766
76609SOL    HW131724  10.825   1.155  11.829
76609SOL    HW231725  10.790   1.040  11.736
76610SOL     OW31726  10.730   4.508   8.492
76610SOL    HW131727  10.717   4.558   8.411
76610SOL    HW231728  10.819   4.531   8.520
76611SOL     OW31729   2.462   0.351   4.646
76611SOL    HW131730   2.409   0.358   4.726
76611SOL    HW231731   2.443   0.432   4.598
76612SOL     OW31732   7.107   3.079   3.899
76612SOL    HW131733   7.047   3.052   3.829
76612SOL    HW231734   7.052   3.094   3.975
76613SOL     OW31735   6.144   9.704  13.919
76613SOL    HW131736   6.102   9.640  13.976
76613SOL    HW231737   6.095   9.699  13.836
76614SOL     OW31738   8.440   7.670  14.364
76614SOL    HW131739   8.408   7.760  14.364
76614SOL    HW231740   8.361   7.616  14.366
76615SOL     OW31741  10.387   7.434  13.087
76615SOL    HW131742  10.332   7.444  13.164
76615SOL    HW231743  10.468   7.394  13.119
76616SOL     OW31744   8.419   9.231  12.850
76616SOL    HW131745   8.427   9.184  12.933
76616SOL    HW231746   8.507   9.228  12.812
76617SOL     OW31747  14.699   8.844   5.788
76617SOL    HW131748  14.682   8.822   5.879
76617SOL    HW231749  14.618   8.821   5.742
76618SOL     OW31750   6.496  12.493   0.899
76618SOL    HW131751   6.508  12.513   0.992
76618SOL    HW231752   6.571  12.438   0.877
76619SOL     OW31753   2.688   4.100   1.155
76619SOL    HW131754   2.753   4.041   1.194
76619SOL    HW231755   2.681   4.172   1.218
76620SOL     OW31756   4.534   9.779   1.128
76620SOL    HW131757   4.463   9.750   1.185
76620SOL    HW231758   4.600   9.710   1.135
76621SOL     OW31759   8.561   7.325  11.076
76621SOL    HW131760   8.571   7.292  10.987
76621SOL    HW231761   8.639   7.296  11.122
76622SOL     OW31762   9.212   1.412   7.792
76622SOL    HW131763   9.119   1.423   7.809
76622SOL    HW231764   9.241   1.496   7.757
76623SOL     OW31765   3.355   8.047   3.040
76623SOL    HW131766   3.338   8.137   3.013
76623SOL    HW231767   3.282   8.025   3.098
76624SOL     OW31768  13.860   6.947   6.495
76624SOL    HW131769  13.800   7.011   6.456
76624SOL    HW231770  13.947   6.976   6.469
76625SOL     OW31771  10.753   3.149   0.937
76625SOL    HW131772  10.791   3.142   1.025
76625SOL    HW231773  10.762   3.061   0.901
76626SOL     OW31774  11.569  12.256   4.098
76626SOL    HW131775  11.586  12.305   4.017
76626SOL    HW231776  11.477  12.274   4.117
76627SOL     OW31777   0.792   8.419  13.517
76627SOL    HW131778   0.857   8.461  13.460
76627SOL    HW231779   0.772   8.336  13.473
76628SOL     OW31780   3.398   2.798  13.641
76628SOL    HW131781   3.395   2.859  13.567
76628SOL    HW231782   3.491   2.783  13.655
76629SOL     OW31783   5.134   8.233   7.186
76629SOL    HW131784   5.065   8.237   7.252
76629SOL    HW231785   5.108   8.163   7.127
76630SOL     OW31786   9.477   1.644   1.156
76630SOL    HW131787   9.453   1.734   1.135
76630SOL    HW231788   9.569   1.636   1.129
76631SOL     OW31789   7.430  13.180   0.438
76631SOL    HW131790   7.356  13.120   0.433
76631SOL    HW231791   7.452  13.198   0.347
76632SOL     OW31792  11.448  13.599   5.486
76632SOL    HW131793  11.512  13.669   5.487
76632SOL    HW231794  11.409  13.603   5.399
76633SOL     OW31795   3.107   5.741   4.988
76633SOL    HW131796   3.089   5.830   4.960
76633SOL    HW231797   3.080   5.686   4.914
76634SOL     OW31798   6.408   7.357   8.898
76634SOL    HW131799   6.317   7.355   8.869
76634SOL    HW231800   6.458   7.327   8.823
76635SOL     OW31801   3.238  14.585   9.366
76635SOL    HW131802   3.274  14.498   9.349
76635SOL    HW231803   3.254  14.599   9.460
76636SOL     OW31804  13.570   9.671   7.435
76636SOL    HW131805  13.499   9.625   7.480
76636SOL    HW231806  13.581   9.752   7.483
76637SOL     OW31807   7.551   3.975  13.793
76637SOL    HW131808   7.468   3.947  13.831
76637SOL    HW231809   7.567   4.061  13.833
76638SOL     OW31810   3.214   0.359   3.958
76638SOL    HW131811   3.281   0.306   4.003
76638SOL    HW231812   3.189   0.425   4.023
76639SOL     OW31813   3.303   3.036   7.727
76639SOL    HW131814   3.335   2.961   7.777
76639SOL    HW231815   3.208   3.036   7.741
76640SOL     OW31816  14.566  10.139   0.014
76640SOL    HW131817  14.513  10.176  14.813
76640SOL    HW231818  14.646  10.108  14.840
76641SOL     OW31819   5.390   2.290   4.181
76641SOL    HW131820   5.375   2.247   4.096
76641SOL    HW231821   5.368   2.382   4.165
76642SOL     OW31822  14.021   5.562  14.615
76642SOL    HW131823  14.071   5.585  14.537
76642SOL    HW231824  14.019   5.466  14.616
76643SOL     OW31825  13.059  11.389   2.862
76643SOL    HW131826  13.030  11.371   2.772
76643SOL    HW231827  12.980  11.419   2.907
76644SOL     OW31828   7.873  14.303   2.360
76644SOL    HW131829   7.837  14.305   2.448
76644SOL    HW231830   7.908  14.391   2.346
76645SOL     OW31831  11.537   1.850  14.676
76645SOL    HW131832  11.466   1.796  14.710
76645SOL    HW231833  11.606   1.788  14.653
76646SOL     OW31834  12.538   8.535   3.435
76646SOL    HW131835  12.481   8.586   3.377
76646SOL    HW231836  12.627   8.553   3.404
76647SOL     OW31837  13.925  13.578   0.263
76647SOL    HW131838  13.918  13.667   0.297
76647SOL    HW231839  14.015  13.573   0.229
76648SOL     OW31840  13.573   4.885  12.672
76648SOL    HW131841  13.592   4.936  12.750
76648SOL    HW231842  13.481   4.859  12.683
76649SOL     OW31843  13.435   5.337   8.298
76649SOL    HW131844  13.396   5.419   8.270
76649SOL    HW231845  13.398   5.271   8.240
76650SOL     OW31846   9.595   6.587   7.492
76650SOL    HW131847   9.505   6.620   7.484
76650SOL    HW231848   9.600   6.514   7.430
76651SOL     OW31849   0.735   2.599   2.336
76651SOL    HW131850   0.674   2.664   2.301
76651SOL    HW231851   0.750   2.628   2.426
76652SOL     OW31852   5.388  10.093  14.363
76652SOL    HW131853   5.315  10.125  14.415
76652SOL    HW231854   5.435  10.172  14.337
76653SOL     OW31855   8.436   7.000   5.627
76653SOL    HW131856   8.481   6.917   5.635
76653SOL    HW231857   8.431   7.033   5.717
76654SOL     OW31858   6.267  11.175   3.518
76654SOL    HW131859   6.287  11.252   3.466
76654SOL    HW231860   6.192  11.201   3.572
76655SOL     OW31861   1.614  10.852  11.759
76655SOL    HW131862   1.600  10.930  11.813
76655SOL    HW231863   1.688  10.876  11.702
76656SOL     OW31864  12.860  14.023  12.939
76656SOL    HW131865  12.799  14.043  12.868
76656SOL    HW231866  12.823  14.067  13.016
76657SOL     OW31867   6.851  11.028   3.399
76657SOL    HW131868   6.770  11.058   3.359
76657SOL    HW231869   6.823  10.975   3.474
76658SOL     OW31870   4.162   8.470   5.539
76658SOL    HW131871   4.198   8.447   5.625
76658SOL    HW231872   4.157   8.565   5.539
76659SOL     OW31873  14.079  14.453   7.784
76659SOL    HW131874  14.157  14.499   7.752
76659SOL    HW231875  14.114  14.373   7.823
76660SOL     OW31876  12.433   1.906   6.009
76660SOL    HW131877  12.361   1.916   5.947
76660SOL    HW231878  12.510   1.940   5.963
76661SOL     OW31879   9.364   6.326   7.523
76661SOL    HW131880   9.313   6.401   7.553
76661SOL    HW231881   9.376   6.341   7.429
76662SOL     OW31882   0.415  13.913  13.379
76662SOL    HW131883   0.392  13.824  13.405
76662SOL    HW231884   0.370  13.926  13.295
76663SOL     OW31885  14.622   2.662   1.716
76663SOL    HW131886  14.644   2.674   1.809
76663SOL    HW231887  14.545   2.606   1.717
76664SOL     OW31888  14.809   9.073   5.670
76664SOL    HW131889  14.771   8.994   5.708
76664SOL    HW231890  14.756   9.145   5.704
76665SOL     OW31891  12.129   7.922  10.681
76665SOL    HW131892  12.155   8.014  10.689
76665SOL    HW231893  12.074   7.919  10.602
76666SOL     OW31894  13.771   6.097   0.997
76666SOL    HW131895  13.770   6.128   1.088
76666SOL    HW231896  13.741   6.172   0.946
76667SOL     OW31897   8.997   1.927   2.960
76667SOL    HW131898   9.037   1.859   2.906
76667SOL    HW231899   8.958   1.988   2.898
76668SOL     OW31900   1.651  10.793   7.799
76668SOL    HW131901   1.645  10.698   7.788
76668SOL    HW231902   1.647  10.827   7.709
76669SOL     OW31903   5.485  11.001   2.866
76669SOL    HW131904   5.415  10.959   2.916
76669SOL    HW231905   5.559  11.003   2.926
76670SOL     OW31906  13.188   3.392  13.163
76670SOL    HW131907  13.108   3.445  13.162
76670SOL    HW231908  13.167   3.315  13.111
76671SOL     OW31909  13.891   3.727   9.386
76671SOL    HW131910  13.923   3.748   9.474
76671SOL    HW231911  13.883   3.811   9.342
76672SOL     OW31912   2.129   8.567   3.674
76672SOL    HW131913   2.209   8.515   3.673
76672SOL    HW231914   2.160   8.658   3.677
76673SOL     OW31915   2.637  13.616   3.674
76673SOL    HW131916   2.618  13.655   3.759
76673SOL    HW231917   2.624  13.522   3.687
76674SOL     OW31918   0.086   8.648   7.085
76674SOL    HW131919   0.005   8.699   7.078
76674SOL    HW231920   0.116   8.638   6.995
76675SOL     OW31921   7.422   6.413   3.174
76675SOL    HW131922   7.358   6.441   3.109
76675SOL    HW231923   7.399   6.323   3.195
76676SOL     OW31924   6.263   0.447  12.134
76676SOL    HW131925   6.304   0.398  12.063
76676SOL    HW231926   6.237   0.530  12.093
76677SOL     OW31927   4.244  12.405   0.376
76677SOL    HW131928   4.304  12.349   0.327
76677SOL    HW231929   4.301  12.462   0.428
76678SOL     OW31930   2.553  13.828   6.693
76678SOL    HW131931   2.499  13.904   6.668
76678SOL    HW231932   2.617  13.821   6.623
76679SOL     OW31933   5.037  12.781   2.252
76679SOL    HW131934   4.994  12.723   2.314
76679SOL    HW231935   4.978  12.856   2.245
76680SOL     OW31936  10.739  12.218   6.939
76680SOL    HW131937  10.740  12.128   6.969
76680SOL    HW231938  10.668  12.222   6.875
76681SOL     OW31939  11.640   2.685   7.288
76681SOL    HW131940  11.637   2.592   7.264
76681SOL    HW231941  11.550   2.707   7.310
76682SOL     OW31942  12.256  12.621  10.758
76682SOL    HW131943  12.204  12.555  10.803
76682SOL    HW231944  12.279  12.685  10.826
76683SOL     OW31945  14.272   3.804   3.047
76683SOL    HW131946  14.289   3.875   2.986
76683SOL    HW231947  14.191   3.829   3.091
76684SOL     OW31948   3.789   5.298   5.765
76684SOL    HW131949   3.808   5.245   5.687
76684SOL    HW231950   3.694   5.293   5.775
76685SOL     OW31951  14.147   9.317  12.416
76685SOL    HW131952  14.126   9.379  12.345
76685SOL    HW231953  14.100   9.351  12.492
76686SOL     OW31954   8.193   0.156   4.873
76686SOL    HW131955   8.227   0.204   4.948
76686SOL    HW231956   8.266   0.154   4.811
76687SOL     OW31957   3.304  13.544  14.762
76687SOL    HW131958   3.275  13.613  14.821
76687SOL    HW231959   3.351  13.483  14.819
76688SOL     OW31960  13.896   7.012   0.367
76688SOL    HW131961  13.805   6.982   0.361
76688SOL    HW231962  13.894   7.101   0.332
76689SOL     OW31963  11.304   5.687   8.224
76689SOL    HW131964  11.394   5.717   8.236
76689SOL    HW231965  11.255   5.767   8.204
76690SOL     OW31966  12.000  10.954   0.448
76690SOL    HW131967  12.066  11.018   0.420
76690SOL    HW231968  11.917  10.992   0.418
76691SOL     OW31969   4.925   0.266   6.791
76691SOL    HW131970   4.979   0.210   6.735
76691SOL    HW231971   4.949   0.241   6.881
76692SOL     OW31972  13.920  14.136   8.063
76692SOL    HW131973  13.878  14.104   7.984
76692SOL    HW231974  13.891  14.226   8.072
76693SOL     OW31975  10.809   5.759   6.451
76693SOL    HW131976  10.724   5.784   6.487
76693SOL    HW231977  10.873   5.791   6.516
76694SOL     OW31978   2.848  10.542   9.820
76694SOL    HW131979   2.777  10.527   9.883
76694SOL    HW231980   2.837  10.472   9.755
76695SOL     OW31981  10.238  12.491   5.325
76695SOL    HW131982  10.280  12.418   5.371
76695SOL    HW231983  10.303  12.561   5.325
76696SOL     OW31984   9.279   2.173   6.625
76696SOL    HW131985   9.196   2.218   6.645
76696SOL    HW231986   9.320   2.159   6.710
76697SOL     OW31987  13.271   2.902   3.484
76697SOL    HW131988  13.336   2.912   3.414
76697SOL    HW231989  13.317   2.930   3.563
76698SOL     OW31990   6.289   2.171   5.401
76698SOL    HW131991   6.264   2.148   5.312
76698SOL    HW231992   6.239   2.112   5.457
76699SOL     OW31993   0.458  10.794   5.493
76699SOL    HW131994   0.430  10.720   5.439
76699SOL    HW231995   0.488  10.860   5.431
76700SOL     OW31996  10.312   3.665  14.022
76700SOL    HW131997  10.229   3.705  13.996
76700SOL    HW231998  10.287   3.598  14.086
76701SOL     OW31999   3.681   5.069   5.879
76701SOL    HW132000   3.656   5.034   5.964
76701SOL    HW232001   3.610   5.128   5.856
76702SOL     OW32002   5.804  12.348   4.269
76702SOL    HW132003   5.842  12.430   4.300
76702SOL    HW232004   5.728  12.334   4.326
76703SOL     OW32005   2.653  13.878   8.635
76703SOL    HW132006   2.578  13.928   8.602
76703SOL    HW232007   2.709  13.867   8.559
76704SOL     OW32008  12.911   3.180  10.160
76704SOL    HW132009  12.822   3.162  10.130
76704SOL    HW232010  12.965   3.167  10.082
76705SOL     OW32011  11.543   4.664   7.557
76705SOL    HW132012  11.456   4.669   7.517
76705SOL    HW232013  11.593   4.733   7.514
76706SOL     OW32014   9.749  11.189  11.815
76706SOL    HW132015   9.682  11.124  11.836
76706SOL    HW232016   9.827  11.159  11.862
76707SOL     OW32017  10.335   7.150   7.831
76707SOL    HW132018  10.315   7.058   7.848
76707SOL    HW232019  10.276   7.174   7.759
76708SOL     OW32020   4.971   2.019   2.035
76708SOL    HW132021   5.055   2.009   2.079
76708SOL    HW232022   4.919   2.073   2.094
76709SOL     OW32023   4.308   0.507  10.283
76709SOL    HW132024   4.393   0.468  10.301
76709SOL    HW232025   4.321   0.557  10.202
76710SOL     OW32026  11.159  14.658   0.033
76710SOL    HW132027  11.141  14.572   0.071
76710SOL    HW232028  11.162  14.644  14.809
76711SOL     OW32029  11.000   7.861   2.490
76711SOL    HW132030  11.024   7.781   2.536
76711SOL    HW232031  11.054   7.929   2.530
76712SOL     OW32032   0.827   5.349   2.027
76712SOL    HW132033   0.881   5.334   2.104
76712SOL    HW232034   0.858   5.284   1.964
76713SOL     OW32035  13.679   4.637   6.017
76713SOL    HW132036  13.639   4.550   6.018
76713SOL    HW232037  13.611   4.696   6.049
76714SOL     OW32038   1.251  12.225  13.183
76714SOL    HW132039   1.345  12.243  13.177
76714SOL    HW232040   1.240  12.182  13.268
76715SOL     OW32041  12.321   2.552  13.681
76715SOL    HW132042  12.366   2.636  13.675
76715SOL    HW232043  12.306   2.526  13.590
76716SOL     OW32044   8.524  11.698   7.326
76716SOL    HW132045   8.453  11.743   7.281
76716SOL    HW232046   8.502  11.605   7.319
76717SOL     OW32047  13.563   3.844   3.087
76717SOL    HW132048  13.525   3.772   3.036
76717SOL    HW232049  13.624   3.886   3.027
76718SOL     OW32050   7.735   6.465   1.413
76718SOL    HW132051   7.792   6.393   1.440
76718SOL    HW232052   7.793   6.541   1.412
76719SOL     OW32053  14.584   6.147   6.865
76719SOL    HW132054  14.634   6.158   6.784
76719SOL    HW232055  14.497   6.120   6.837
76720SOL     OW32056   3.495   1.787   2.211
76720SOL    HW132057   3.494   1.848   2.285
76720SOL    HW232058   3.514   1.702   2.251
76721SOL     OW32059   6.216  10.917   2.711
76721SOL    HW132060   6.260  10.978   2.770
76721SOL    HW232061   6.286  10.884   2.654
76722SOL     OW32062  10.335  14.701  13.244
76722SOL    HW132063  10.276  14.775  13.258
76722SOL    HW232064  10.282  14.624  13.261
76723SOL     OW32065  12.352   6.093   9.418
76723SOL    HW132066  12.377   6.049   9.499
76723SOL    HW232067  12.391   6.180   9.424
76724SOL     OW32068  14.635  13.583   0.691
76724SOL    HW132069  14.567  13.648   0.710
76724SOL    HW232070  14.681  13.571   0.774
76725SOL     OW32071   8.868  10.479   0.111
76725SOL    HW132072   8.845  10.553   0.167
76725SOL    HW232073   8.941  10.511   0.057
76726SOL     OW32074   8.401   8.642   4.614
76726SOL    HW132075   8.341   8.632   4.541
76726SOL    HW232076   8.488   8.626   4.577
76727SOL     OW32077   1.160   1.204  11.555
76727SOL    HW132078   1.214   1.251  11.618
76727SOL    HW232079   1.129   1.126  11.602
76728SOL     OW32080   7.758   3.913   4.217
76728SOL    HW132081   7.739   3.823   4.191
76728SOL    HW232082   7.777   3.907   4.311
76729SOL     OW32083  11.144   8.259  10.118
76729SOL    HW132084  11.195   8.326  10.164
76729SOL    HW232085  11.068   8.307  10.083
76730SOL     OW32086  10.547   4.721   9.837
76730SOL    HW132087  10.580   4.729   9.747
76730SOL    HW232088  10.552   4.810   9.872
76731SOL     OW32089   3.559   8.972  11.998
76731SOL    HW132090   3.635   9.008  12.044
76731SOL    HW232091   3.498   9.046  11.991
76732SOL     OW32092   7.830   3.273   3.469
76732SOL    HW132093   7.770   3.228   3.528
76732SOL    HW232094   7.894   3.316   3.526
76733SOL     OW32095   5.536   7.823   5.277
76733SOL    HW132096   5.619   7.870   5.287
76733SOL    HW232097   5.550   7.741   5.326
76734SOL     OW32098   8.021   0.294   4.440
76734SOL    HW132099   8.001   0.275   4.532
76734SOL    HW232100   7.971   0.229   4.391
76735SOL     OW32101   0.595  13.921   6.753
76735SOL    HW132102   0.552  13.928   6.838
76735SOL    HW232103   0.689  13.927   6.772
76736SOL     OW32104  13.818   7.734  10.764
76736SOL    HW132105  13.858   7.816  10.734
76736SOL    HW232106  13.892   7.676  10.782
76737SOL     OW32107   5.347   5.761   1.824
76737SOL    HW132108   5.309   5.675   1.808
76737SOL    HW232109   5.361   5.765   1.919
76738SOL     OW32110   7.691  14.476  14.086
76738SOL    HW132111   7.769  14.433  14.051
76738SOL    HW232112   7.710  14.488  14.179
76739SOL     OW32113   0.169   1.659  13.516
76739SOL    HW132114   0.254   1.638  13.477
76739SOL    HW232115   0.158   1.752  13.501
76740SOL     OW32116   7.244   6.673   0.951
76740SOL    HW132117   7.240   6.596   1.009
76740SOL    HW232118   7.279   6.743   1.006
76741SOL     OW32119  13.021   6.972  14.551
76741SOL    HW132120  13.107   7.005  14.577
76741SOL    HW232121  13.038   6.888  14.510
76742SOL     OW32122  13.319   1.573   2.012
76742SOL    HW132123  13.404   1.556   2.052
76742SOL    HW232124  13.323   1.666   1.987
76743SOL     OW32125   8.736   6.846   0.739
76743SOL    HW132126   8.740   6.767   0.793
76743SOL    HW232127   8.692   6.911   0.795
76744SOL     OW32128  13.152  12.896  12.906
76744SOL    HW132129  13.212  12.946  12.850
76744SOL    HW232130  13.149  12.945  12.988
76745SOL     OW32131  13.507  10.307  11.157
76745SOL    HW132132  13.502  10.233  11.096
76745SOL    HW232133  13.497  10.385  11.102
76746SOL     OW32134   9.788  12.969  13.004
76746SOL    HW132135   9.807  12.941  13.094
76746SOL    HW232136   9.693  12.962  12.996
76747SOL     OW32137   5.691  13.808  14.766
76747SOL    HW132138   5.596  13.815  14.781
76747SOL    HW232139   5.698  13.780  14.675
76748SOL     OW32140   9.520  13.416   0.196
76748SOL    HW132141   9.513  13.494   0.142
76748SOL    HW232142   9.486  13.346   0.141
76749SOL     OW32143   8.830  14.653   1.760
76749SOL    HW132144   8.892  14.723   1.743
76749SOL    HW232145   8.762  14.663   1.693
76750SOL     OW32146   1.935   7.414   7.409
76750SOL    HW132147   1.897   7.362   7.338
76750SOL    HW232148   1.969   7.349   7.470
76751SOL     OW32149   0.121   8.253   1.373
76751SOL    HW132150   0.081   8.317   1.432
76751SOL    HW232151   0.162   8.189   1.432
76752SOL     OW32152   6.211   6.193   2.219
76752SOL    HW132153   6.130   6.242   2.233
76752SOL    HW232154   6.182   6.105   2.194
76753SOL     OW32155   0.235  12.173   2.468
76753SOL    HW132156   0.243  12.125   2.385
76753SOL    HW232157   0.316  12.154   2.515
76754SOL     OW32158  12.531   8.260   1.811
76754SOL    HW132159  12.604   8.317   1.785
76754SOL    HW232160  12.559   8.172   1.784
76755SOL     OW32161   4.566  10.006   1.410
76755SOL    HW132162   4.618  10.005   1.330
76755SOL    HW232163   4.540   9.915   1.423
76756SOL     OW32164   9.373   5.391   7.079
76756SOL    HW132165   9.433   5.429   7.143
76756SOL    HW232166   9.401   5.427   6.995
76757SOL     OW32167   7.026   1.062   5.761
76757SOL    HW132168   7.106   1.111   5.741
76757SOL    HW232169   6.984   1.114   5.830
76758SOL     OW32170   3.544  10.108  10.257
76758SOL    HW132171   3.523  10.015  10.254
76758SOL    HW232172   3.459  10.152  10.246
76759SOL     OW32173  13.516  10.750  14.427
76759SOL    HW132174  13.490  10.725  14.339
76759SOL    HW232175  13.460  10.697  14.485
76760SOL     OW32176  11.608  13.906  12.338
76760SOL    HW132177  11.682  13.862  12.295
76760SOL    HW232178  11.536  13.899  12.276
76761SOL     OW32179  14.643  13.677  12.236
76761SOL    HW132180  14.652  13.699  12.144
76761SOL    HW232181  14.693  13.596  12.246
76762SOL     OW32182   8.331   8.826   3.436
76762SOL    HW132183   8.282   8.766   3.380
76762SOL    HW232184   8.267   8.854   3.502
76763SOL     OW32185   8.563  10.768   9.292
76763SOL    HW132186   8.597  10.751   9.204
76763SOL    HW232187   8.632  10.818   9.335
76764SOL     OW32188   3.473   7.159  11.250
76764SOL    HW132189   3.401   7.218  11.271
76764SOL    HW232190   3.535   7.171  11.322
76765SOL     OW32191   3.605   9.898   0.025
76765SOL    HW132192   3.668   9.845   0.074
76765SOL    HW232193   3.607   9.860  14.806
76766SOL     OW32194  14.374   0.770  14.743
76766SOL    HW132195  14.409   0.822  14.816
76766SOL    HW232196  14.291   0.736  14.775
76767SOL     OW32197   9.276   4.239   1.174
76767SOL    HW132198   9.226   4.201   1.246
76767SOL    HW232199   9.339   4.172   1.149
76768SOL     OW32200   7.582  11.864   9.572
76768SOL    HW132201   7.510  11.858   9.510
76768SOL    HW232202   7.661  11.869   9.517
76769SOL     OW32203   5.384  11.152  12.247
76769SOL    HW132204   5.415  11.211  12.179
76769SOL    HW232205   5.298  11.122  12.216
76770SOL     OW32206   5.100   0.974  12.719
76770SOL    HW132207   5.043   1.045  12.749
76770SOL    HW232208   5.101   0.913  12.793
76771SOL     OW32209   7.308   6.938  11.628
76771SOL    HW132210   7.322   7.019  11.579
76771SOL    HW232211   7.219   6.945  11.662
76772SOL     OW32212   9.107   7.863   9.544
76772SOL    HW132213   9.137   7.830   9.629
76772SOL    HW232214   9.016   7.835   9.539
76773SOL     OW32215   7.006   8.468   8.989
76773SOL    HW132216   6.967   8.511   9.065
76773SOL    HW232217   6.969   8.380   8.989
76774SOL     OW32218  13.825   3.108   2.072
76774SOL    HW132219  13.745   3.110   2.020
76774SOL    HW232220  13.812   3.036   2.133
76775SOL     OW32221  10.245   9.454   6.567
76775SOL    HW132222  10.151   9.465   6.549
76775SOL    HW232223  10.265   9.520   6.633
76776SOL     OW32224  12.830  13.886   9.811
76776SOL    HW132225  12.885  13.851   9.741
76776SOL    HW232226  12.877  13.865   9.892
76777SOL     OW32227   2.978  12.826   1.100
76777SOL    HW132228   2.904  12.871   1.141
76777SOL    HW232229   2.985  12.743   1.147
76778SOL     OW32230   1.513  14.709  10.979
76778SOL    HW132231   1.576  14.753  11.037
76778SOL    HW232232   1.558  14.701  10.895
76779SOL     OW32233   2.201   5.674  12.066
76779SOL    HW132234   2.120   5.710  12.029
76779SOL    HW232235   2.260   5.748  12.072
76780SOL     OW32236  14.616   7.371   4.512
76780SOL    HW132237  14.648   7.289   4.550
76780SOL    HW232238  14.679   7.392   4.443
76781SOL     OW32239  11.449   9.412   3.027
76781SOL    HW132240  11.362   9.395   3.063
76781SOL    HW232241  11.437   9.486   2.968
76782SOL     OW32242   4.611   1.436   6.185
76782SOL    HW132243   4.536   1.377   6.193
76782SOL    HW232244   4.686   1.379   6.169
76783SOL     OW32245  11.162   0.922   6.062
76783SOL    HW132246  11.177   0.828   6.062
76783SOL    HW232247  11.108   0.938   5.984
76784SOL     OW32248   4.186  14.713   9.789
76784SOL    HW132249   4.152  14.758   9.712
76784SOL    HW232250   4.127  14.638   9.800
76785SOL     OW32251   6.286  11.099   4.835
76785SOL    HW132252   6.367  11.143   4.862
76785SOL    HW232253   6.219  11.168   4.839
76786SOL     OW32254   5.697   2.057  12.934
76786SOL    HW132255   5.658   2.014  12.857
76786SOL    HW232256   5.633   2.124  12.959
76787SOL     OW32257  12.380  10.756   9.794
76787SOL    HW132258  12.426  10.790   9.871
76787SOL    HW232259  12.334  10.679   9.826
76788SOL     OW32260   1.746  10.483   8.622
76788SOL    HW132261   1.724  10.530   8.703
76788SOL    HW232262   1.774  10.551   8.561
76789SOL     OW32263  14.046   3.793   0.846
76789SOL    HW132264  14.123   3.793   0.904
76789SOL    HW232265  14.047   3.707   0.805
76790SOL     OW32266   2.469   9.103  11.669
76790SOL    HW132267   2.467   9.197  11.650
76790SOL    HW232268   2.509   9.063  11.591
76791SOL     OW32269   2.916   8.003   5.354
76791SOL    HW132270   2.875   8.002   5.267
76791SOL    HW232271   2.894   8.089   5.390
76792SOL     OW32272   9.724   2.026  14.809
76792SOL    HW132273   9.645   1.975  14.789
76792SOL    HW232274   9.704   2.114  14.779
76793SOL     OW32275   3.850   9.219  11.065
76793SOL    HW132276   3.871   9.312  11.053
76793SOL    HW232277   3.909   9.173  11.005
76794SOL     OW32278   5.073   4.931  13.915
76794SOL    HW132279   5.051   4.838  13.919
76794SOL    HW232280   5.093   4.955  14.006
76795SOL     OW32281   4.999   1.492   7.326
76795SOL    HW132282   5.078   1.544   7.334
76795SOL    HW232283   5.010   1.420   7.388
76796SOL     OW32284   5.142   7.589   0.286
76796SOL    HW132285   5.216   7.637   0.249
76796SOL    HW232286   5.065   7.632   0.248
76797SOL     OW32287   3.864   2.615   3.667
76797SOL    HW132288   3.888   2.704   3.692
76797SOL    HW232289   3.821   2.625   3.581
76798SOL     OW32290   5.393  14.517  13.708
76798SOL    HW132291   5.362  14.516  13.798
76798SOL    HW232292   5.316  14.498  13.655
76799SOL     OW32293  13.662   7.696   2.418
76799SOL    HW132294  13.635   7.756   2.348
76799SOL    HW232295  13.581   7.656   2.449
76800SOL     OW32296   7.714  12.385   3.177
76800SOL    HW132297   7.747  12.414   3.262
76800SOL    HW232298   7.792  12.350   3.133
76801SOL     OW32299   8.629  12.036   1.249
76801SOL    HW132300   8.560  12.004   1.307
76801SOL    HW232301   8.613  12.130   1.241
76802SOL     OW32302  10.190   3.831   5.961
76802SOL    HW132303  10.151   3.913   5.991
76802SOL    HW232304  10.234   3.796   6.038
76803SOL     OW32305  14.179   9.384  11.696
76803SOL    HW132306  14.116   9.452  11.672
76803SOL    HW232307  14.151   9.307  11.645
76804SOL     OW32308   1.872   7.631  10.599
76804SOL    HW132309   1.787   7.656  10.635
76804SOL    HW232310   1.861   7.638  10.504
76805SOL     OW32311   2.909   3.563  10.946
76805SOL    HW132312   2.946   3.639  10.990
76805SOL    HW232313   2.976   3.495  10.956
76806SOL     OW32314  13.136   5.692   3.183
76806SOL    HW132315  13.157   5.777   3.221
76806SOL    HW232316  13.066   5.658   3.239
76807SOL     OW32317   7.602  14.019   3.755
76807SOL    HW132318   7.605  13.959   3.830
76807SOL    HW232319   7.569  14.101   3.792
76808SOL     OW32320   9.265   7.320   7.484
76808SOL    HW132321   9.303   7.405   7.464
76808SOL    HW232322   9.317   7.288   7.558
76809SOL     OW32323   5.503   5.619   3.219
76809SOL    HW132324   5.580   5.648   3.268
76809SOL    HW232325   5.533   5.612   3.129
76810SOL     OW32326   4.975   5.008  13.686
76810SOL    HW132327   5.021   4.988  13.768
76810SOL    HW232328   4.969   4.924  13.641
76811SOL     OW32329  12.212   5.631   1.873
76811SOL    HW132330  12.300   5.604   1.844
76811SOL    HW232331  12.228   5.711   1.922
76812SOL     OW32332   5.452   9.722   8.013
76812SOL    HW132333   5.440   9.700   7.920
76812SOL    HW232334   5.383   9.674   8.058
76813SOL     OW32335   1.603   9.926  11.802
76813SOL    HW132336   1.673   9.988  11.782
76813SOL    HW232337   1.646   9.840  11.802
76814SOL     OW32338   0.295  12.152  12.755
76814SOL    HW132339   0.268  12.127  12.843
76814SOL    HW232340   0.371  12.097  12.736
76815SOL     OW32341  12.994  11.412   7.473
76815SOL    HW132342  12.931  11.453   7.415
76815SOL    HW232343  13.074  11.406   7.421
76816SOL     OW32344  10.624  13.030   8.703
76816SOL    HW132345  10.548  13.057   8.650
76816SOL    HW232346  10.660  12.955   8.655
76817SOL     OW32347   7.693   9.693  14.458
76817SOL    HW132348   7.624   9.629  14.443
76817SOL    HW232349   7.713   9.728  14.371
76818SOL     OW32350   5.539  12.574   0.595
76818SOL    HW132351   5.555  12.546   0.685
76818SOL    HW232352   5.593  12.516   0.541
76819SOL     OW32353   8.894   0.768   2.373
76819SOL    HW132354   8.985   0.794   2.390
76819SOL    HW232355   8.842   0.826   2.428
76820SOL     OW32356   0.861   3.103   4.412
76820SOL    HW132357   0.864   3.189   4.454
76820SOL    HW232358   0.819   3.118   4.328
76821SOL     OW32359  12.786   8.780  10.300
76821SOL    HW132360  12.836   8.718  10.248
76821SOL    HW232361  12.720   8.727  10.345
76822SOL     OW32362  12.278   9.882   0.908
76822SOL    HW132363  12.369   9.905   0.891
76822SOL    HW232364  12.282   9.823   0.984
76823SOL     OW32365  12.663   4.413   6.230
76823SOL    HW132366  12.663   4.404   6.135
76823SOL    HW232367  12.718   4.489   6.247
76824SOL     OW32368  12.968   2.363  13.619
76824SOL    HW132369  12.969   2.448  13.664
76824SOL    HW232370  12.992   2.300  13.687
76825SOL     OW32371   2.247   3.808  14.723
76825SOL    HW132372   2.200   3.763  14.652
76825SOL    HW232373   2.339   3.784  14.709
76826SOL     OW32374   4.672   4.721   0.094
76826SOL    HW132375   4.612   4.648   0.106
76826SOL    HW232376   4.690   4.723  14.870
76827SOL     OW32377   9.416   1.906   1.656
76827SOL    HW132378   9.409   2.000   1.667
76827SOL    HW232379   9.505   1.892   1.623
76828SOL     OW32380   8.524   1.966   7.026
76828SOL    HW132381   8.577   1.894   7.061
76828SOL    HW232382   8.561   1.983   6.940
76829SOL     OW32383  12.221   5.508   8.825
76829SOL    HW132384  12.296   5.449   8.824
76829SOL    HW232385  12.233   5.563   8.902
76830SOL     OW32386   6.698   7.908   1.040
76830SOL    HW132387   6.788   7.877   1.050
76830SOL    HW232388   6.690   7.930   0.947
76831SOL     OW32389  12.042   1.621   9.960
76831SOL    HW132390  12.135   1.644   9.968
76831SOL    HW232391  12.038   1.529   9.984
76832SOL     OW32392   1.982  14.339   9.654
76832SOL    HW132393   1.956  14.358   9.564
76832SOL    HW232394   2.063  14.289   9.646
76833SOL     OW32395   4.025  12.642  10.557
76833SOL    HW132396   3.934  12.664  10.539
76833SOL    HW232397   4.035  12.552  10.525
76834SOL     OW32398   1.789   9.135   8.255
76834SOL    HW132399   1.805   9.225   8.228
76834SOL    HW232400   1.699   9.136   8.289
76835SOL     OW32401   5.334   9.897   1.559
76835SOL    HW132402   5.318   9.826   1.621
76835SOL    HW232403   5.408   9.945   1.595
76836SOL     OW32404   9.159  13.735   3.161
76836SOL    HW132405   9.228  13.672   3.180
76836SOL    HW232406   9.156  13.792   3.238
76837SOL     OW32407   7.287  14.361   2.046
76837SOL    HW132408   7.336  14.299   2.100
76837SOL    HW232409   7.353  14.423   2.014
76838SOL     OW32410  11.801  11.013   1.506
76838SOL    HW132411  11.892  10.986   1.518
76838SOL    HW232412  11.771  10.964   1.430
76839SOL     OW32413   8.884   6.780   5.410
76839SOL    HW132414   8.868   6.849   5.475
76839SOL    HW232415   8.830   6.805   5.335
76840SOL     OW32416   5.338   4.828   8.545
76840SOL    HW132417   5.392   4.882   8.487
76840SOL    HW232418   5.375   4.842   8.632
76841SOL     OW32419   1.809   0.098   7.492
76841SOL    HW132420   1.845   0.173   7.539
76841SOL    HW232421   1.832   0.023   7.546
76842SOL     OW32422   6.226   8.735   1.524
76842SOL    HW132423   6.250   8.826   1.537
76842SOL    HW232424   6.183   8.709   1.606
76843SOL     OW32425   8.456   1.029  13.538
76843SOL    HW132426   8.370   1.046  13.577
76843SOL    HW232427   8.479   0.941  13.568
76844SOL     OW32428   1.716  10.365   0.194
76844SOL    HW132429   1.790  10.393   0.140
76844SOL    HW232430   1.704  10.273   0.172
76845SOL     OW32431  12.487   5.763  12.277
76845SOL    HW132432  12.560   5.751  12.337
76845SOL    HW232433  12.528   5.789  12.194
76846SOL     OW32434   4.829   2.204  14.091
76846SOL    HW132435   4.918   2.169  14.095
76846SOL    HW232436   4.821   2.259  14.169
76847SOL     OW32437   4.922   3.212  13.889
76847SOL    HW132438   4.930   3.261  13.971
76847SOL    HW232439   4.851   3.256  13.842
76848SOL     OW32440   0.778   3.023  13.751
76848SOL    HW132441   0.715   2.972  13.701
76848SOL    HW232442   0.860   2.974  13.746
76849SOL     OW32443  13.828   8.757   4.765
76849SOL    HW132444  13.774   8.716   4.698
76849SOL    HW232445  13.784   8.738   4.847
76850SOL     OW32446   7.699   6.330   5.108
76850SOL    HW132447   7.654   6.294   5.185
76850SOL    HW232448   7.637   6.320   5.036
76851SOL     OW32449  11.607  10.496  13.707
76851SOL    HW132450  11.667  10.462  13.774
76851SOL    HW232451  11.550  10.422  13.687
76852SOL     OW32452   1.570   5.371   9.917
76852SOL    HW132453   1.495   5.340   9.968
76852SOL    HW232454   1.534   5.439   9.860
76853SOL     OW32455   0.998   2.673   6.789
76853SOL    HW132456   1.044   2.707   6.866
76853SOL    HW232457   0.952   2.750   6.754
76854SOL     OW32458   3.995  11.059   2.536
76854SOL    HW132459   4.006  11.123   2.606
76854SOL    HW232460   4.075  11.068   2.483
76855SOL     OW32461  14.539   0.030   8.154
76855SOL    HW132462  14.590   0.100   8.114
76855SOL    HW232463  14.448   0.053   8.137
76856SOL     OW32464   4.476   1.285   0.018
76856SOL    HW132465   4.402   1.249   0.067
76856SOL    HW232466   4.443   1.300  14.800
76857SOL     OW32467   4.228  14.236  10.744
76857SOL    HW132468   4.271  14.152  10.733
76857SOL    HW232469   4.208  14.266  10.655
76858SOL     OW32470  11.188  10.620  11.954
76858SOL    HW132471  11.234  10.543  11.987
76858SOL    HW232472  11.097  10.607  11.984
76859SOL     OW32473  11.971   5.852   9.078
76859SOL    HW132474  11.913   5.871   9.152
76859SOL    HW232475  11.920   5.795   9.020
76860SOL     OW32476  10.663  14.392   2.191
76860SOL    HW132477  10.633  14.483   2.187
76860SOL    HW232478  10.583  14.341   2.202
76861SOL     OW32479   0.953   5.262   3.267
76861SOL    HW132480   0.950   5.191   3.330
76861SOL    HW232481   1.021   5.321   3.299
76862SOL     OW32482  12.109   3.853   8.237
76862SOL    HW132483  12.152   3.931   8.272
76862SOL    HW232484  12.026   3.885   8.203
76863SOL     OW32485   4.635  14.244   2.341
76863SOL    HW132486   4.678  14.324   2.310
76863SOL    HW232487   4.706  14.187   2.368
76864SOL     OW32488   1.497   7.592  10.241
76864SOL    HW132489   1.495   7.566  10.333
76864SOL    HW232490   1.411   7.567  10.207
76865SOL     OW32491   8.066   0.756   5.249
76865SOL    HW132492   8.140   0.774   5.308
76865SOL    HW232493   8.078   0.818   5.177
76866SOL     OW32494  13.525   3.800   2.758
76866SOL    HW132495  13.613   3.784   2.790
76866SOL    HW232496  13.534   3.871   2.695
76867SOL     OW32497  11.732   0.741   7.072
76867SOL    HW132498  11.704   0.829   7.049
76867SOL    HW232499  11.726   0.692   6.990
76868SOL     OW32500   5.312  14.463   3.507
76868SOL    HW132501   5.321  14.558   3.509
76868SOL    HW232502   5.218  14.448   3.521
76869SOL     OW32503   3.019  13.603  14.856
76869SOL    HW132504   3.001  13.574  14.767
76869SOL    HW232505   2.983  13.692  14.860
76870SOL     OW32506   2.374   0.019   0.401
76870SOL    HW132507   2.430   0.048   0.329
76870SOL    HW232508   2.417  14.810   0.433
76871SOL     OW32509   0.749  11.708   1.332
76871SOL    HW132510   0.668  11.702   1.280
76871SOL    HW232511   0.815  11.665   1.278
76872SOL     OW32512   9.427   5.486  12.479
76872SOL    HW132513   9.438   5.578  12.504
76872SOL    HW232514   9.394   5.489  12.389
76873SOL     OW32515  11.056  11.092   7.411
76873SOL    HW132516  11.092  11.169   7.455
76873SOL    HW232517  10.961  11.100   7.423
76874SOL     OW32518  12.617  11.246   8.581
76874SOL    HW132519  12.562  11.169   8.572
76874SOL    HW232520  12.662  11.234   8.665
76875SOL     OW32521   1.589   8.682  10.498
76875SOL    HW132522   1.619   8.612  10.556
76875SOL    HW232523   1.647   8.756  10.518
76876SOL     OW32524  10.073   7.534   7.875
76876SOL    HW132525  10.097   7.446   7.905
76876SOL    HW232526  10.128   7.593   7.927
76877SOL     OW32527   6.265   5.207   7.753
76877SOL    HW132528   6.347   5.202   7.704
76877SOL    HW232529   6.241   5.116   7.770
76878SOL     OW32530   0.034   1.730   3.020
76878SOL    HW132531   0.061   1.735   2.929
76878SOL    HW232532  14.814   1.764   3.020
76879SOL     OW32533   1.062   4.237  10.287
76879SOL    HW132534   1.056   4.255  10.381
76879SOL    HW232535   1.154   4.215  10.272
76880SOL     OW32536   3.337   8.210  11.089
76880SOL    HW132537   3.386   8.128  11.083
76880SOL    HW232538   3.245   8.183  11.087
76881SOL     OW32539  13.683   3.167   7.097
76881SOL    HW132540  13.728   3.176   7.181
76881SOL    HW232541  13.677   3.073   7.083
76882SOL     OW32542  10.936  14.487   9.167
76882SOL    HW132543  10.875  14.446   9.228
76882SOL    HW232544  10.892  14.485   9.083
76883SOL     OW32545   1.124  11.727  10.287
76883SOL    HW132546   1.100  11.678  10.208
76883SOL    HW232547   1.143  11.659  10.352
76884SOL     OW32548   6.105   9.430  12.572
76884SOL    HW132549   6.157   9.510  12.571
76884SOL    HW232550   6.055   9.433  12.491
76885SOL     OW32551   4.625   7.422   6.267
76885SOL    HW132552   4.531   7.421   6.287
76885SOL    HW232553   4.667   7.418   6.353
76886SOL     OW32554   6.058   1.525   2.996
76886SOL    HW132555   6.078   1.550   3.086
76886SOL    HW232556   6.112   1.448   2.980
76887SOL     OW32557  12.932   5.179   7.139
76887SOL    HW132558  12.888   5.197   7.222
76887SOL    HW232559  12.886   5.103   7.104
76888SOL     OW32560   3.390   1.679  10.990
76888SOL    HW132561   3.376   1.749  11.054
76888SOL    HW232562   3.460   1.625  11.027
76889SOL     OW32563   5.067   9.543   1.400
76889SOL    HW132564   5.044   9.450   1.404
76889SOL    HW232565   4.985   9.588   1.419
76890SOL     OW32566   3.173   4.593   3.787
76890SOL    HW132567   3.125   4.633   3.714
76890SOL    HW232568   3.107   4.581   3.855
76891SOL     OW32569   0.050   7.225   2.674
76891SOL    HW132570   0.103   7.193   2.747
76891SOL    HW232571  14.834   7.240   2.712
76892SOL     OW32572   1.091   2.868  14.723
76892SOL    HW132573   1.080   2.815  14.803
76892SOL    HW232574   1.029   2.940  14.734
76893SOL     OW32575  10.756   2.426  12.485
76893SOL    HW132576  10.790   2.339  12.466
76893SOL    HW232577  10.663   2.413  12.500
76894SOL     OW32578   3.918  13.612   0.982
76894SOL    HW132579   3.936  13.611   0.889
76894SOL    HW232580   3.938  13.702   1.010
76895SOL     OW32581  10.752  10.713  10.612
76895SOL    HW132582  10.734  10.704  10.518
76895SOL    HW232583  10.811  10.788  10.618
76896SOL     OW32584   6.042  10.701  14.315
76896SOL    HW132585   5.982  10.628  14.329
76896SOL    HW232586   6.064  10.731  14.403
76897SOL     OW32587   9.743   0.807   7.801
76897SOL    HW132588   9.728   0.818   7.707
76897SOL    HW232589   9.676   0.744   7.828
76898SOL     OW32590  14.068  13.483   5.729
76898SOL    HW132591  13.981  13.446   5.740
76898SOL    HW232592  14.086  13.473   5.635
76899SOL     OW32593   7.831  11.677   4.260
76899SOL    HW132594   7.846  11.679   4.354
76899SOL    HW232595   7.740  11.707   4.250
76900SOL     OW32596   2.973   0.772   6.294
76900SOL    HW132597   2.883   0.795   6.317
76900SOL    HW232598   3.009   0.732   6.374
76901SOL     OW32599   9.456   3.689  13.584
76901SOL    HW132600   9.500   3.639  13.653
76901SOL    HW232601   9.445   3.777  13.620
76902SOL     OW32602   8.218  10.681  13.874
76902SOL    HW132603   8.147  10.693  13.811
76902SOL    HW232604   8.273  10.613  13.836
76903SOL     OW32605   9.522  11.783   2.275
76903SOL    HW132606   9.606  11.751   2.241
76903SOL    HW232607   9.509  11.733   2.356
76904SOL     OW32608   3.713   3.399  13.985
76904SOL    HW132609   3.759   3.427  14.064
76904SOL    HW232610   3.621   3.392  14.013
76905SOL     OW32611   2.790  12.120  13.737
76905SOL    HW132612   2.774  12.065  13.661
76905SOL    HW232613   2.863  12.176  13.712
76906SOL     OW32614   3.225   3.989   7.585
76906SOL    HW132615   3.277   3.909   7.598
76906SOL    HW232616   3.210   3.992   7.491
76907SOL     OW32617  11.315  10.758  12.863
76907SOL    HW132618  11.358  10.819  12.802
76907SOL    HW232619  11.386  10.725  12.918
76908SOL     OW32620  13.723   9.262  10.717
76908SOL    HW132621  13.782   9.195  10.682
76908SOL    HW232622  13.636   9.234  10.686
76909SOL     OW32623   3.988   3.596   1.631
76909SOL    HW132624   3.905   3.549   1.621
76909SOL    HW232625   3.987   3.661   1.561
76910SOL     OW32626   8.705  10.234  11.193
76910SOL    HW132627   8.719  10.150  11.149
76910SOL    HW232628   8.650  10.284  11.133
76911SOL     OW32629   3.228   7.248  14.213
76911SOL    HW132630   3.208   7.163  14.252
76911SOL    HW232631   3.288   7.289  14.276
76912SOL     OW32632   2.331   2.134  11.665
76912SOL    HW132633   2.296   2.216  11.700
76912SOL    HW232634   2.397   2.161  11.601
76913SOL     OW32635   3.552   4.725   5.887
76913SOL    HW132636   3.458   4.740   5.896
76913SOL    HW232637   3.561   4.677   5.805
76914SOL     OW32638   4.205   9.679   0.345
76914SOL    HW132639   4.197   9.774   0.352
76914SOL    HW232640   4.140   9.644   0.406
76915SOL     OW32641  13.347   5.905   7.345
76915SOL    HW132642  13.439   5.912   7.371
76915SOL    HW232643  13.329   5.811   7.343
76916SOL     OW32644   1.020   2.665   9.643
76916SOL    HW132645   1.065   2.689   9.562
76916SOL    HW232646   1.074   2.703   9.712
76917SOL     OW32647   7.758   1.578  12.449
76917SOL    HW132648   7.731   1.514  12.515
76917SOL    HW232649   7.750   1.531  12.366
76918SOL     OW32650  12.627  13.300   9.651
76918SOL    HW132651  12.535  13.287   9.672
76918SOL    HW232652  12.627  13.333   9.561
76919SOL     OW32653  13.016   0.938   3.394
76919SOL    HW132654  13.015   0.932   3.489
76919SOL    HW232655  12.972   0.858   3.365
76920SOL     OW32656  14.297  12.658   0.398
76920SOL    HW132657  14.372  12.708   0.366
76920SOL    HW232658  14.221  12.705   0.363
76921SOL     OW32659  10.628  12.109  13.012
76921SOL    HW132660  10.586  12.181  13.059
76921SOL    HW232661  10.689  12.152  12.952
76922SOL     OW32662   6.068   3.235   8.454
76922SOL    HW132663   6.136   3.254   8.519
76922SOL    HW232664   6.031   3.152   8.482
76923SOL     OW32665  11.476   5.318   4.111
76923SOL    HW132666  11.404   5.272   4.066
76923SOL    HW232667  11.538   5.249   4.133
76924SOL     OW32668   3.790   0.974  13.184
76924SOL    HW132669   3.784   0.906  13.251
76924SOL    HW232670   3.723   0.951  13.120
76925SOL     OW32671  14.712  13.226   7.451
76925SOL    HW132672  14.768  13.220   7.374
76925SOL    HW232673  14.773  13.231   7.525
76926SOL     OW32674  14.659  14.016   2.542
76926SOL    HW132675  14.636  14.043   2.630
76926SOL    HW232676  14.631  14.088   2.486
76927SOL     OW32677  13.979   9.866  12.236
76927SOL    HW132678  13.889   9.834  12.244
76927SOL    HW232679  13.972   9.948  12.188
76928SOL     OW32680   6.711   0.570  13.196
76928SOL    HW132681   6.742   0.498  13.250
76928SOL    HW232682   6.622   0.588  13.227
76929SOL     OW32683  10.198   1.874   8.498
76929SOL    HW132684  10.127   1.838   8.445
76929SOL    HW232685  10.156   1.938   8.556
76930SOL     OW32686  10.566  13.794  12.292
76930SOL    HW132687  10.575  13.873  12.345
76930SOL    HW232688  10.508  13.737  12.343
76931SOL     OW32689   8.009   9.984  10.775
76931SOL    HW132690   8.048   9.905  10.739
76931SOL    HW232691   7.918   9.982  10.744
76932SOL     OW32692   1.468  10.039  13.307
76932SOL    HW132693   1.384  10.081  13.325
76932SOL    HW232694   1.468  10.023  13.212
76933SOL     OW32695  10.442  12.631   5.860
76933SOL    HW132696  10.456  12.575   5.936
76933SOL    HW232697  10.447  12.571   5.785
76934SOL     OW32698   9.687   3.312   7.926
76934SOL    HW132699   9.714   3.390   7.976
76934SOL    HW232700   9.690   3.241   7.990
76935SOL     OW32701  11.329   5.228   3.804
76935SOL    HW132702  11.263   5.163   3.781
76935SOL    HW232703  11.279   5.303   3.837
76936SOL     OW32704  14.049   5.689  10.700
76936SOL    HW132705  14.083   5.603  10.677
76936SOL    HW232706  14.093   5.711  10.782
76937SOL     OW32707   7.748  13.894   0.375
76937SOL    HW132708   7.721  13.896   0.283
76937SOL    HW232709   7.702  13.819   0.411
76938SOL     OW32710   7.698  11.897  13.436
76938SOL    HW132711   7.779  11.879  13.484
76938SOL    HW232712   7.726  11.952  13.362
76939SOL     OW32713   2.610   8.953   4.560
76939SOL    HW132714   2.643   8.995   4.480
76939SOL    HW232715   2.557   9.020   4.603
76940SOL     OW32716   8.163   7.427   7.438
76940SOL    HW132717   8.136   7.467   7.521
76940SOL    HW232718   8.196   7.500   7.386
76941SOL     OW32719   3.593   8.423  13.113
76941SOL    HW132720   3.669   8.435  13.055
76941SOL    HW232721   3.610   8.341  13.158
76942SOL     OW32722   3.711   8.793   6.351
76942SOL    HW132723   3.798   8.758   6.368
76942SOL    HW232724   3.695   8.856   6.421
76943SOL     OW32725   3.421   5.186  13.181
76943SOL    HW132726   3.493   5.146  13.230
76943SOL    HW232727   3.462   5.257  13.132
76944SOL     OW32728   9.071  14.678   4.898
76944SOL    HW132729   9.054  14.670   4.992
76944SOL    HW232730   9.077  14.773   4.883
76945SOL     OW32731   6.789   6.186   3.615
76945SOL    HW132732   6.724   6.163   3.549
76945SOL    HW232733   6.872   6.192   3.567
76946SOL     OW32734   1.634   6.629   2.337
76946SOL    HW132735   1.663   6.698   2.397
76946SOL    HW232736   1.567   6.671   2.283
76947SOL     OW32737   3.801   6.865   8.779
76947SOL    HW132738   3.780   6.929   8.711
76947SOL    HW232739   3.720   6.817   8.793
76948SOL     OW32740  14.257  14.126  12.233
76948SOL    HW132741  14.252  14.072  12.312
76948SOL    HW232742  14.304  14.205  12.261
76949SOL     OW32743   5.216   7.945  13.040
76949SOL    HW132744   5.247   7.889  13.111
76949SOL    HW232745   5.205   8.031  13.081
76950SOL     OW32746   1.064   3.496  10.328
76950SOL    HW132747   0.992   3.537  10.280
76950SOL    HW232748   1.119   3.570  10.355
76951SOL     OW32749   6.402  14.590   2.934
76951SOL    HW132750   6.421  14.514   2.879
76951SOL    HW232751   6.476  14.649   2.918
76952SOL     OW32752   0.060  10.263  14.197
76952SOL    HW132753  14.841  10.261  14.233
76952SOL    HW232754   0.085  10.172  14.187
76953SOL     OW32755   6.883   6.439   2.390
76953SOL    HW132756   6.971   6.406   2.406
76953SOL    HW232757   6.841   6.436   2.476
76954SOL     OW32758  10.997  13.875   3.704
76954SOL    HW132759  11.048  13.955   3.690
76954SOL    HW232760  10.964  13.882   3.793
76955SOL     OW32761   1.719   4.211  10.206
76955SOL    HW132762   1.804   4.206  10.163
76955SOL    HW232763   1.687   4.299  10.187
76956SOL     OW32764  14.351  12.870  11.860
76956SOL    HW132765  14.434  12.917  11.848
76956SOL    HW232766  14.331  12.881  11.953
76957SOL     OW32767   4.277   5.298   1.590
76957SOL    HW132768   4.287   5.264   1.502
76957SOL    HW232769   4.356   5.272   1.636
76958SOL     OW32770   5.987   6.494   6.479
76958SOL    HW132771   5.936   6.560   6.433
76958SOL    HW232772   6.076   6.504   6.446
76959SOL     OW32773   2.071   1.659  10.776
76959SOL    HW132774   2.010   1.660  10.850
76959SOL    HW232775   2.134   1.591  10.799
76960SOL     OW32776  14.541  14.614   9.314
76960SOL    HW132777  14.625  14.573   9.294
76960SOL    HW232778  14.557  14.708   9.306
76961SOL     OW32779   3.201  11.918  11.817
76961SOL    HW132780   3.188  11.919  11.722
76961SOL    HW232781   3.182  11.828  11.843
76962SOL     OW32782   8.072  10.584   7.482
76962SOL    HW132783   7.994  10.624   7.518
76962SOL    HW232784   8.041  10.534   7.406
76963SOL     OW32785   6.037   0.361  11.365
76963SOL    HW132786   6.078   0.338  11.282
76963SOL    HW232787   6.024   0.456  11.360
76964SOL     OW32788   0.910  10.170   6.300
76964SOL    HW132789   0.996  10.211   6.308
76964SOL    HW232790   0.881  10.193   6.211
76965SOL     OW32791  10.456   3.857   2.905
76965SOL    HW132792  10.516   3.795   2.864
76965SOL    HW232793  10.370   3.834   2.870
76966SOL     OW32794  13.981  10.595   0.013
76966SOL    HW132795  14.009  10.673   0.062
76966SOL    HW232796  14.058  10.538   0.013
76967SOL     OW32797   9.610  12.077  12.061
76967SOL    HW132798   9.597  12.095  11.968
76967SOL    HW232799   9.694  12.031  12.065
76968SOL     OW32800  10.444   8.597   5.478
76968SOL    HW132801  10.406   8.511   5.461
76968SOL    HW232802  10.520   8.579   5.533
76969SOL     OW32803   2.205  14.080   7.640
76969SOL    HW132804   2.287  14.066   7.592
76969SOL    HW232805   2.159  14.146   7.588
76970SOL     OW32806  13.994   6.723   9.477
76970SOL    HW132807  13.941   6.698   9.553
76970SOL    HW232808  14.006   6.818   9.486
76971SOL     OW32809   3.228  13.023  13.864
76971SOL    HW132810   3.249  13.074  13.942
76971SOL    HW232811   3.133  13.014  13.867
76972SOL     OW32812   0.007  12.716  10.149
76972SOL    HW132813  14.806  12.660  10.118
76972SOL    HW232814   0.054  12.742  10.070
76973SOL     OW32815   7.116   6.067  10.559
76973SOL    HW132816   7.201   6.108  10.573
76973SOL    HW232817   7.055   6.140  10.554
76974SOL     OW32818   3.921   9.919  10.690
76974SOL    HW132819   3.978   9.992  10.667
76974SOL    HW232820   3.923   9.863  10.612
76975SOL     OW32821  11.509   6.685   4.163
76975SOL    HW132822  11.474   6.619   4.103
76975SOL    HW232823  11.543   6.635   4.236
76976SOL     OW32824   3.444  13.145   8.334
76976SOL    HW132825   3.508  13.166   8.402
76976SOL    HW232826   3.404  13.062   8.363
76977SOL     OW32827   4.323   1.866   2.048
76977SOL    HW132828   4.308   1.778   2.083
76977SOL    HW232829   4.389   1.855   1.980
76978SOL     OW32830   2.454   4.148   1.818
76978SOL    HW132831   2.381   4.183   1.767
76978SOL    HW232832   2.449   4.192   1.902
76979SOL     OW32833   1.867   4.812   6.957
76979SOL    HW132834   1.801   4.828   7.025
76979SOL    HW232835   1.937   4.874   6.977
76980SOL     OW32836   8.546   7.668   4.815
76980SOL    HW132837   8.468   7.724   4.807
76980SOL    HW232838   8.529   7.614   4.892
76981SOL     OW32839   6.988   6.701   1.391
76981SOL    HW132840   6.959   6.657   1.310
76981SOL    HW232841   6.950   6.648   1.461
76982SOL     OW32842   2.015   9.066   1.227
76982SOL    HW132843   2.062   9.141   1.263
76982SOL    HW232844   1.950   9.104   1.169
76983SOL     OW32845   6.007   7.365   5.170
76983SOL    HW132846   5.914   7.344   5.161
76983SOL    HW232847   6.049   7.281   5.191
76984SOL     OW32848  12.133   2.102   2.896
76984SOL    HW132849  12.084   2.171   2.941
76984SOL    HW232850  12.123   2.123   2.803
76985SOL     OW32851   9.332   5.232   2.437
76985SOL    HW132852   9.354   5.311   2.386
76985SOL    HW232853   9.243   5.210   2.410
76986SOL     OW32854  13.276  10.774   5.780
76986SOL    HW132855  13.184  10.787   5.802
76986SOL    HW232856  13.320  10.765   5.864
76987SOL     OW32857  11.648   9.993   8.747
76987SOL    HW132858  11.698  10.013   8.668
76987SOL    HW232859  11.589  10.068   8.758
76988SOL     OW32860   6.105   6.644   7.898
76988SOL    HW132861   6.134   6.704   7.830
76988SOL    HW232862   6.043   6.695   7.950
76989SOL     OW32863   4.824  12.350   4.774
76989SOL    HW132864   4.794  12.263   4.802
76989SOL    HW232865   4.747  12.406   4.784
76990SOL     OW32866  14.356   4.526   0.485
76990SOL    HW132867  14.416   4.572   0.426
76990SOL    HW232868  14.386   4.435   0.482
76991SOL     OW32869   4.507  13.515  13.665
76991SOL    HW132870   4.480  13.548  13.751
76991SOL    HW232871   4.465  13.429  13.659
76992SOL     OW32872   6.490   8.713  10.845
76992SOL    HW132873   6.430   8.705  10.919
76992SOL    HW232874   6.432   8.723  10.769
76993SOL     OW32875   8.474   2.206   0.281
76993SOL    HW132876   8.409   2.269   0.311
76993SOL    HW232877   8.428   2.122   0.280
76994SOL     OW32878   1.658  10.958   8.270
76994SOL    HW132879   1.708  11.014   8.330
76994SOL    HW232880   1.572  10.999   8.266
76995SOL     OW32881   5.396   0.324   3.107
76995SOL    HW132882   5.491   0.320   3.116
76995SOL    HW232883   5.365   0.355   3.192
76996SOL     OW32884  10.984  10.742   6.994
76996SOL    HW132885  11.030  10.820   7.026
76996SOL    HW232886  10.970  10.759   6.901
76997SOL     OW32887   7.932   1.025   9.889
76997SOL    HW132888   7.972   0.972   9.958
76997SOL    HW232889   7.882   0.963   9.836
76998SOL     OW32890   2.768   7.427   3.625
76998SOL    HW132891   2.761   7.514   3.586
76998SOL    HW232892   2.835   7.436   3.693
76999SOL     OW32893   0.509   2.562  14.703
76999SOL    HW132894   0.437   2.626  14.700
76999SOL    HW232895   0.579   2.607  14.750
77000SOL     OW32896  12.335  11.174   9.372
77000SOL    HW132897  12.361  11.180   9.280
77000SOL    HW232898  12.312  11.082   9.384
77001SOL     OW32899   5.603   9.480   0.347
77001SOL    HW132900   5.582   9.416   0.415
77001SOL    HW232901   5.581   9.437   0.265
77002SOL     OW32902   5.099   6.809   8.221
77002SOL    HW132903   5.068   6.900   8.220
77002SOL    HW232904   5.103   6.784   8.129
77003SOL     OW32905  13.385   5.609   6.112
77003SOL    HW132906  13.310   5.551   6.098
77003SOL    HW232907  13.458   5.564   6.069
77004SOL     OW32908   6.101   1.208  11.816
77004SOL    HW132909   6.026   1.219  11.758
77004SOL    HW232910   6.143   1.295  11.818
77005SOL     OW32911   2.772   7.347   1.529
77005SOL    HW132912   2.729   7.432   1.540
77005SOL    HW232913   2.848   7.366   1.473
77006SOL     OW32914   9.462   6.994  12.916
77006SOL    HW132915   9.391   6.976  12.978
77006SOL    HW232916   9.434   6.953  12.834
77007SOL     OW32917   7.499  11.079   2.096
77007SOL    HW132918   7.587  11.049   2.117
77007SOL    HW232919   7.448  11.062   2.175
77008SOL     OW32920  14.230  12.024  13.321
77008SOL    HW132921  14.312  12.018  13.271
77008SOL    HW232922  14.241  12.103  13.375
77009SOL     OW32923  13.958   0.258   8.134
77009SOL    HW132924  13.903   0.333   8.114
77009SOL    HW232925  13.962   0.209   8.052
77010SOL     OW32926   6.687  12.444   9.213
77010SOL    HW132927   6.763  12.437   9.270
77010SOL    HW232928   6.635  12.366   9.231
77011SOL     OW32929   9.534  10.054   4.254
77011SOL    HW132930   9.556  10.016   4.170
77011SOL    HW232931   9.549  10.148   4.243
77012SOL     OW32932  10.955   7.516   5.726
77012SOL    HW132933  10.894   7.542   5.656
77012SOL    HW232934  10.996   7.436   5.692
77013SOL     OW32935   2.788  12.069   5.106
77013SOL    HW132936   2.709  12.021   5.132
77013SOL    HW232937   2.817  12.112   5.186
77014SOL     OW32938   0.887   5.176  10.466
77014SOL    HW132939   0.946   5.101  10.459
77014SOL    HW232940   0.928   5.243  10.411
77015SOL     OW32941  10.749   7.024   1.302
77015SOL    HW132942  10.794   7.005   1.220
77015SOL    HW232943  10.660   7.046   1.277
77016SOL     OW32944  11.878   4.704   7.609
77016SOL    HW132945  11.831   4.727   7.529
77016SOL    HW232946  11.896   4.788   7.652
77017SOL     OW32947   7.041   4.350   4.994
77017SOL    HW132948   7.002   4.436   4.983
77017SOL    HW232949   7.100   4.360   5.068
77018SOL     OW32950   1.721  13.013  10.574
77018SOL    HW132951   1.737  12.919  10.563
77018SOL    HW232952   1.808  13.052  10.582
77019SOL     OW32953   1.758  12.168   7.288
77019SOL    HW132954   1.686  12.213   7.331
77019SOL    HW232955   1.761  12.081   7.329
77020SOL     OW32956  11.091  11.433   0.300
77020SOL    HW132957  11.006  11.388   0.299
77020SOL    HW232958  11.139  11.392   0.372
77021SOL     OW32959  14.379   2.225   2.516
77021SOL    HW132960  14.336   2.232   2.602
77021SOL    HW232961  14.453   2.166   2.531
77022SOL     OW32962  10.159   2.360  14.869
77022SOL    HW132963  10.144   2.266   0.012
77022SOL    HW232964  10.147   2.374  14.775
77023SOL     OW32965  13.358   9.857   4.839
77023SOL    HW132966  13.434   9.838   4.784
77023SOL    HW232967  13.326   9.941   4.806
77024SOL     OW32968  14.318   9.354  13.990
77024SOL    HW132969  14.319   9.352  14.085
77024SOL    HW232970  14.274   9.436  13.967
77025SOL     OW32971  11.794   4.633   5.186
77025SOL    HW132972  11.821   4.705   5.243
77025SOL    HW232973  11.709   4.661   5.151
77026SOL     OW32974   1.859  12.631  10.966
77026SOL    HW132975   1.773  12.588  10.964
77026SOL    HW232976   1.888  12.622  11.057
77027SOL     OW32977  12.290   9.315   5.671
77027SOL    HW132978  12.227   9.353   5.609
77027SOL    HW232979  12.367   9.295   5.617
77028SOL     OW32980  10.705   2.468   6.607
77028SOL    HW132981  10.646   2.535   6.640
77028SOL    HW232982  10.700   2.398   6.672
77029SOL     OW32983  12.954   5.503   4.557
77029SOL    HW132984  12.957   5.450   4.638
77029SOL    HW232985  13.043   5.535   4.546
77030SOL     OW32986   5.179   3.857   9.244
77030SOL    HW132987   5.151   3.945   9.220
77030SOL    HW232988   5.178   3.856   9.340
77031SOL     OW32989   7.094   8.301  11.303
77031SOL    HW132990   7.178   8.342  11.324
77031SOL    HW232991   7.030   8.351  11.355
77032SOL     OW32992   3.792  12.991   5.005
77032SOL    HW132993   3.724  13.034   4.954
77032SOL    HW232994   3.755  12.984   5.093
77033SOL     OW32995   5.810   3.322  12.842
77033SOL    HW132996   5.882   3.332  12.904
77033SOL    HW232997   5.735   3.362  12.885
77034SOL     OW32998   2.515   9.560   8.353
77034SOL    HW132999   2.431   9.597   8.324
77034SOL    HW233000   2.497   9.467   8.365
77035SOL     OW33001   7.707   5.386   5.511
77035SOL    HW133002   7.784   5.355   5.559
77035SOL    HW233003   7.637   5.326   5.537
77036SOL     OW33004   2.195   6.702   6.939
77036SOL    HW133005   2.119   6.750   6.909
77036SOL    HW233006   2.203   6.724   7.032
77037SOL     OW33007  13.465  13.637  14.423
77037SOL    HW133008  13.375  13.611  14.443
77037SOL    HW233009  13.480  13.608  14.333
77038SOL     OW33010  13.011  12.171  12.717
77038SOL    HW133011  13.099  12.196  12.689
77038SOL    HW233012  12.974  12.250  12.756
77039SOL     OW33013   3.594   5.636   9.079
77039SOL    HW133014   3.553   5.722   9.086
77039SOL    HW233015   3.565   5.589   9.157
77040SOL     OW33016   2.083   0.010   8.485
77040SOL    HW133017   2.054   0.051   8.404
77040SOL    HW233018   2.002  14.861   8.533
77041SOL     OW33019   8.698   6.586   7.820
77041SOL    HW133020   8.790   6.560   7.830
77041SOL    HW233021   8.659   6.564   7.905
77042SOL     OW33022   5.055  13.537   3.666
77042SOL    HW133023   5.057  13.592   3.587
77042SOL    HW233024   5.013  13.592   3.732
77043SOL     OW33025  13.327  12.532   8.907
77043SOL    HW133026  13.365  12.444   8.912
77043SOL    HW233027  13.385  12.579   8.846
77044SOL     OW33028   8.877  12.668   2.681
77044SOL    HW133029   8.813  12.614   2.727
77044SOL    HW233030   8.824  12.725   2.625
77045SOL     OW33031  13.452  11.187   5.387
77045SOL    HW133032  13.507  11.264   5.374
77045SOL    HW233033  13.426  11.191   5.479
77046SOL     OW33034  14.112   4.206   3.906
77046SOL    HW133035  14.061   4.241   3.833
77046SOL    HW233036  14.195   4.254   3.903
77047SOL     OW33037   0.799   7.785   8.971
77047SOL    HW133038   0.725   7.827   8.928
77047SOL    HW233039   0.861   7.766   8.901
77048SOL     OW33040   4.876   0.128   1.370
77048SOL    HW133041   4.900   0.056   1.310
77048SOL    HW233042   4.959   0.151   1.412
77049SOL     OW33043  10.864  10.272   4.828
77049SOL    HW133044  10.896  10.340   4.770
77049SOL    HW233045  10.771  10.265   4.807
77050SOL     OW33046  12.786   4.092  10.494
77050SOL    HW133047  12.727   4.160  10.462
77050SOL    HW233048  12.833   4.062  10.416
77051SOL     OW33049   5.514   7.418  14.194
77051SOL    HW133050   5.484   7.327  14.193
77051SOL    HW233051   5.521   7.443  14.102
77052SOL     OW33052  14.078   1.012   1.020
77052SOL    HW133053  14.037   1.052   0.943
77052SOL    HW233054  14.152   0.962   0.985
77053SOL     OW33055   1.497   0.657   3.666
77053SOL    HW133056   1.454   0.638   3.583
77053SOL    HW233057   1.506   0.572   3.709
77054SOL     OW33058   0.682  10.930   3.580
77054SOL    HW133059   0.651  10.952   3.668
77054SOL    HW233060   0.606  10.944   3.523
77055SOL     OW33061   0.454   7.579  11.104
77055SOL    HW133062   0.369   7.579  11.148
77055SOL    HW233063   0.512   7.625  11.165
77056SOL     OW33064  12.121  11.684   5.559
77056SOL    HW133065  12.202  11.634   5.566
77056SOL    HW233066  12.052  11.620   5.575
77057SOL     OW33067   0.757   6.098  14.210
77057SOL    HW133068   0.698   6.121  14.138
77057SOL    HW233069   0.783   6.181  14.249
77058SOL     OW33070  11.072   4.404   1.819
77058SOL    HW133071  11.147   4.353   1.788
77058SOL    HW233072  11.043   4.453   1.742
77059SOL     OW33073   1.862   6.558   3.807
77059SOL    HW133074   1.850   6.653   3.801
77059SOL    HW233075   1.927   6.538   3.739
77060SOL     OW33076   8.369  12.765  11.405
77060SOL    HW133077   8.435  12.832  11.424
77060SOL    HW233078   8.372  12.757  11.309
77061SOL     OW33079   6.384   3.254   2.363
77061SOL    HW133080   6.394   3.332   2.307
77061SOL    HW233081   6.427   3.278   2.445
77062SOL     OW33082  12.337   6.320   0.023
77062SOL    HW133083  12.305   6.392  14.837
77062SOL    HW233084  12.265   6.302   0.083
77063SOL     OW33085  12.510  12.176   9.138
77063SOL    HW133086  12.443  12.242   9.120
77063SOL    HW233087  12.520  12.176   9.233
77064SOL     OW33088   4.990   0.893  10.963
77064SOL    HW133089   5.004   0.852  11.049
77064SOL    HW233090   4.903   0.862  10.936
77065SOL     OW33091  10.821  10.222  13.888
77065SOL    HW133092  10.905  10.237  13.932
77065SOL    HW233093  10.766  10.296  13.915
77066SOL     OW33094   9.562   5.504   7.247
77066SOL    HW133095   9.599   5.580   7.202
77066SOL    HW233096   9.638   5.462   7.288
77067SOL     OW33097  12.027   5.224  14.253
77067SOL    HW133098  11.942   5.179  14.251
77067SOL    HW233099  12.065   5.200  14.338
77068SOL     OW33100   6.652   1.042  10.569
77068SOL    HW133101   6.621   1.089  10.492
77068SOL    HW233102   6.573   1.003  10.607
77069SOL     OW33103   0.302  13.944   4.368
77069SOL    HW133104   0.391  13.926   4.396
77069SOL    HW233105   0.260  13.985   4.444
77070SOL     OW33106  12.927   4.103   4.089
77070SOL    HW133107  12.925   4.008   4.076
77070SOL    HW233108  12.843   4.124   4.129
77071SOL     OW33109   1.411   7.726   1.012
77071SOL    HW133110   1.385   7.818   1.001
77071SOL    HW233111   1.395   7.686   0.927
77072SOL     OW33112  12.077  11.916  14.376
77072SOL    HW133113  12.129  11.836  14.385
77072SOL    HW233114  12.001  11.901  14.432
77073SOL     OW33115   3.068   5.249  12.471
77073SOL    HW133116   3.081   5.203  12.388
77073SOL    HW233117   2.973   5.261  12.477
77074SOL     OW33118   7.755   5.673  10.712
77074SOL    HW133119   7.717   5.704  10.795
77074SOL    HW233120   7.848   5.693  10.720
77075SOL     OW33121   0.928  14.566   9.486
77075SOL    HW133122   0.867  14.508   9.532
77075SOL    HW233123   0.970  14.509   9.421
77076SOL     OW33124   9.176   3.635  13.778
77076SOL    HW133125   9.140   3.656  13.692
77076SOL    HW233126   9.258   3.685  13.782
77077SOL     OW33127   4.934   4.662   4.538
77077SOL    HW133128   5.019   4.626   4.510
77077SOL    HW233129   4.925   4.743   4.488
77078SOL     OW33130   3.681   3.585   0.283
77078SOL    HW133131   3.638   3.574   0.198
77078SOL    HW233132   3.618   3.552   0.346
77079SOL     OW33133  10.833   3.380   0.662
77079SOL    HW133134  10.752   3.382   0.712
77079SOL    HW233135  10.900   3.408   0.724
77080SOL     OW33136   1.442  14.610  13.419
77080SOL    HW133137   1.525  14.625  13.373
77080SOL    HW233138   1.415  14.698  13.447
77081SOL     OW33139   3.307   2.639   6.639
77081SOL    HW133140   3.394   2.605   6.660
77081SOL    HW233141   3.317   2.734   6.645
77082SOL     OW33142  12.811   8.105   1.442
77082SOL    HW133143  12.778   8.187   1.479
77082SOL    HW233144  12.764   8.096   1.359
77083SOL     OW33145   1.794   4.412   3.178
77083SOL    HW133146   1.816   4.326   3.144
77083SOL    HW233147   1.838   4.416   3.263
77084SOL     OW33148   2.132   6.350   7.252
77084SOL    HW133149   2.063   6.387   7.197
77084SOL    HW233150   2.194   6.421   7.264
77085SOL     OW33151  14.463   5.826   7.422
77085SOL    HW133152  14.551   5.851   7.394
77085SOL    HW233153  14.440   5.751   7.367
77086SOL     OW33154   9.520   6.429   2.345
77086SOL    HW133155   9.578   6.490   2.390
77086SOL    HW233156   9.472   6.385   2.415
77087SOL     OW33157   0.308   8.822  12.129
77087SOL    HW133158   0.369   8.859  12.193
77087SOL    HW233159   0.232   8.795  12.181
77088SOL     OW33160   8.596   9.653   2.073
77088SOL    HW133161   8.509   9.694   2.069
77088SOL    HW233162   8.601   9.601   1.993
77089SOL     OW33163   7.230  13.458  10.727
77089SOL    HW133164   7.300  13.509  10.686
77089SOL    HW233165   7.158  13.520  10.736
77090SOL     OW33166   0.847   6.095   7.526
77090SOL    HW133167   0.838   6.013   7.477
77090SOL    HW233168   0.932   6.087   7.569
77091SOL     OW33169  14.467   7.819   4.919
77091SOL    HW133170  14.533   7.753   4.942
77091SOL    HW233171  14.408   7.774   4.858
77092SOL     OW33172   7.576  14.282   3.844
77092SOL    HW133173   7.534  14.351   3.894
77092SOL    HW233174   7.668  14.286   3.871
77093SOL     OW33175  14.054  14.437   7.349
77093SOL    HW133176  14.085  14.513   7.299
77093SOL    HW233177  14.131  14.410   7.400
77094SOL     OW33178   6.984   0.025   1.792
77094SOL    HW133179   6.907   0.080   1.774
77094SOL    HW233180   7.019   0.061   1.874
77095SOL     OW33181   8.250   4.508   4.658
77095SOL    HW133182   8.335   4.479   4.626
77095SOL    HW233183   8.208   4.548   4.582
77096SOL     OW33184   5.047   8.813   9.084
77096SOL    HW133185   5.076   8.855   9.164
77096SOL    HW233186   4.957   8.843   9.072
77097SOL     OW33187   7.069  12.994   4.569
77097SOL    HW133188   7.099  12.904   4.555
77097SOL    HW233189   7.006  13.010   4.499
77098SOL     OW33190   7.590   7.959  14.792
77098SOL    HW133191   7.656   7.931  14.729
77098SOL    HW233192   7.599   7.898  14.865
77099SOL     OW33193  11.568   4.686   6.187
77099SOL    HW133194  11.594   4.598   6.214
77099SOL    HW233195  11.567   4.683   6.092
77100SOL     OW33196   6.162   9.418  11.256
77100SOL    HW133197   6.130   9.453  11.173
77100SOL    HW233198   6.112   9.465  11.323
77101SOL     OW33199  10.633  13.820  13.455
77101SOL    HW133200  10.550  13.789  13.419
77101SOL    HW233201  10.666  13.883  13.390
77102SOL     OW33202   0.552   7.421   5.788
77102SOL    HW133203   0.616   7.353   5.810
77102SOL    HW233204   0.477   7.404   5.845
77103SOL     OW33205   6.857  10.955   4.482
77103SOL    HW133206   6.932  11.014   4.469
77103SOL    HW233207   6.825  10.976   4.570
77104SOL     OW33208   5.366  14.819   3.844
77104SOL    HW133209   5.322   0.023   3.885
77104SOL    HW233210   5.412  14.856   3.769
77105SOL     OW33211   2.459  10.877  12.643
77105SOL    HW133212   2.513  10.955  12.642
77105SOL    HW233213   2.409  10.881  12.561
77106SOL     OW33214   9.884  11.690   8.341
77106SOL    HW133215   9.877  11.779   8.306
77106SOL    HW233216   9.861  11.633   8.267
77107SOL     OW33217  12.150   1.971   3.494
77107SOL    HW133218  12.186   2.008   3.414
77107SOL    HW233219  12.091   1.903   3.465
77108SOL     OW33220   5.838   5.146  10.439
77108SOL    HW133221   5.932   5.147  10.416
77108SOL    HW233222   5.794   5.127  10.356
77109SOL     OW33223   0.376   6.232   3.293
77109SOL    HW133224   0.398   6.218   3.385
77109SOL    HW233225   0.330   6.316   3.291
77110SOL     OW33226  12.481   8.847  14.657
77110SOL    HW133227  12.463   8.941  14.665
77110SOL    HW233228  12.425   8.817  14.586
77111SOL     OW33229   2.061   6.872   0.658
77111SOL    HW133230   2.100   6.789   0.630
77111SOL    HW233231   2.106   6.893   0.740
77112SOL     OW33232   7.428  11.901  12.390
77112SOL    HW133233   7.407  11.913  12.297
77112SOL    HW233234   7.478  11.979  12.414
77113SOL     OW33235  14.161   7.264   5.762
77113SOL    HW133236  14.136   7.195   5.700
77113SOL    HW233237  14.227   7.315   5.715
77114SOL     OW33238   1.842   2.601   7.045
77114SOL    HW133239   1.806   2.575   6.960
77114SOL    HW233240   1.935   2.618   7.027
77115SOL     OW33241  11.708   0.463  13.989
77115SOL    HW133242  11.686   0.491  13.900
77115SOL    HW233243  11.629   0.481  14.040
77116SOL     OW33244  12.555  12.675   7.542
77116SOL    HW133245  12.517  12.629   7.467
77116SOL    HW233246  12.505  12.643   7.618
77117SOL     OW33247  13.547  12.320   7.668
77117SOL    HW133248  13.629  12.288   7.703
77117SOL    HW233249  13.490  12.329   7.745
77118SOL     OW33250  12.686   9.236   7.655
77118SOL    HW133251  12.715   9.287   7.580
77118SOL    HW233252  12.607   9.281   7.686
77119SOL     OW33253   0.792  12.736   3.211
77119SOL    HW133254   0.716  12.679   3.220
77119SOL    HW233255   0.845  12.696   3.142
77120SOL     OW33256  12.457   3.993  10.522
77120SOL    HW133257  12.495   3.967  10.438
77120SOL    HW233258  12.363   4.003  10.504
77121SOL     OW33259   0.380   2.932   2.717
77121SOL    HW133260   0.429   2.863   2.673
77121SOL    HW233261   0.323   2.885   2.778
77122SOL     OW33262  11.993  13.585   3.024
77122SOL    HW133263  12.012  13.678   3.035
77122SOL    HW233264  12.077  13.546   2.999
77123SOL     OW33265  13.022  12.509   5.081
77123SOL    HW133266  13.028  12.421   5.045
77123SOL    HW233267  13.067  12.504   5.165
77124SOL     OW33268  14.098   3.630   8.184
77124SOL    HW133269  14.075   3.714   8.144
77124SOL    HW233270  14.014   3.585   8.196
77125SOL     OW33271   1.468   2.644   2.670
77125SOL    HW133272   1.381   2.630   2.706
77125SOL    HW233273   1.452   2.689   2.587
77126SOL     OW33274   8.040   9.655   5.737
77126SOL    HW133275   8.002   9.604   5.809
77126SOL    HW233276   7.982   9.730   5.728
77127SOL     OW33277  10.165   7.729  10.324
77127SOL    HW133278  10.161   7.635  10.337
77127SOL    HW233279  10.073   7.757  10.321
77128SOL     OW33280   8.878   9.503   2.178
77128SOL    HW133281   8.875   9.475   2.269
77128SOL    HW233282   8.787   9.513   2.152
77129SOL     OW33283   6.707  10.310   9.068
77129SOL    HW133284   6.803  10.314   9.062
77129SOL    HW233285   6.690  10.236   9.126
77130SOL     OW33286  13.971   3.847   7.767
77130SOL    HW133287  13.878   3.835   7.787
77130SOL    HW233288  13.983   3.942   7.766
77131SOL     OW33289  10.357   2.011   5.065
77131SOL    HW133290  10.279   1.975   5.025
77131SOL    HW233291  10.422   2.012   4.995
77132SOL     OW33292  14.451   4.916   1.477
77132SOL    HW133293  14.467   4.857   1.402
77132SOL    HW233294  14.505   4.993   1.458
77133SOL     OW33295   7.508   5.095  13.845
77133SOL    HW133296   7.545   5.018  13.887
77133SOL    HW233297   7.582   5.156  13.838
77134SOL     OW33298   6.411   7.279  14.829
77134SOL    HW133299   6.491   7.230  14.809
77134SOL    HW233300   6.360   7.276  14.748
77135SOL     OW33301   8.054   1.086   5.843
77135SOL    HW133302   8.008   1.031   5.907
77135SOL    HW233303   7.985   1.122   5.788
77136SOL     OW33304   0.575   8.147  13.853
77136SOL    HW133305   0.621   8.205  13.913
77136SOL    HW233306   0.597   8.058  13.883
77137SOL     OW33307   2.856   9.037  11.648
77137SOL    HW133308   2.846   9.041  11.553
77137SOL    HW233309   2.788   8.976  11.677
77138SOL     OW33310  11.142  10.847   7.370
77138SOL    HW133311  11.116  10.939   7.377
77138SOL    HW233312  11.061  10.798   7.382
77139SOL     OW33313   9.339  10.002   2.882
77139SOL    HW133314   9.334   9.914   2.846
77139SOL    HW233315   9.286  10.055   2.822
77140SOL     OW33316  14.828   6.484  14.494
77140SOL    HW133317  14.773   6.412  14.462
77140SOL    HW233318  14.861   6.526  14.416
77141SOL     OW33319   4.935   1.335   2.137
77141SOL    HW133320   4.941   1.397   2.064
77141SOL    HW233321   5.020   1.340   2.180
77142SOL     OW33322  13.983  14.567  12.878
77142SOL    HW133323  13.912  14.566  12.814
77142SOL    HW233324  14.059  14.598  12.829
77143SOL     OW33325   9.481  11.493   2.054
77143SOL    HW133326   9.473  11.586   2.032
77143SOL    HW233327   9.412  11.451   2.003
77144SOL     OW33328  11.836  11.946  11.072
77144SOL    HW133329  11.794  11.989  10.997
77144SOL    HW233330  11.810  11.998  11.148
77145SOL     OW33331  12.485   2.898   0.002
77145SOL    HW133332  12.551   2.956   0.039
77145SOL    HW233333  12.530   2.813  14.864
77146SOL     OW33334   4.999   9.030  10.247
77146SOL    HW133335   5.001   8.937  10.270
77146SOL    HW233336   5.091   9.052  10.231
77147SOL     OW33337  10.107   7.716   4.752
77147SOL    HW133338  10.092   7.660   4.676
77147SOL    HW233339  10.061   7.673   4.824
77148SOL     OW33340  11.655   3.548   9.757
77148SOL    HW133341  11.570   3.537   9.715
77148SOL    HW233342  11.658   3.479   9.824
77149SOL     OW33343   1.825   6.384  14.778
77149SOL    HW133344   1.888   6.455  14.765
77149SOL    HW233345   1.740   6.427  14.776
77150SOL     OW33346  11.869   5.119   8.331
77150SOL    HW133347  11.782   5.134   8.292
77150SOL    HW233348  11.892   5.202   8.373
77151SOL     OW33349  13.522   4.536   8.089
77151SOL    HW133350  13.467   4.465   8.123
77151SOL    HW233351  13.461   4.589   8.037
77152SOL     OW33352   5.334  14.213   5.412
77152SOL    HW133353   5.287  14.192   5.332
77152SOL    HW233354   5.268  14.208   5.481
77153SOL     OW33355   0.327   2.972   6.510
77153SOL    HW133356   0.417   2.974   6.478
77153SOL    HW233357   0.318   2.886   6.551
77154SOL     OW33358  13.497   6.603   0.478
77154SOL    HW133359  13.463   6.531   0.426
77154SOL    HW233360  13.430   6.671   0.472
77155SOL     OW33361   5.682  13.048   3.374
77155SOL    HW133362   5.718  13.004   3.451
77155SOL    HW233363   5.697  13.141   3.390
77156SOL     OW33364   7.513   1.004   2.924
77156SOL    HW133365   7.509   0.964   3.010
77156SOL    HW233366   7.481   1.093   2.937
77157SOL     OW33367  14.650   5.380  14.239
77157SOL    HW133368  14.570   5.420  14.206
77157SOL    HW233369  14.654   5.405  14.331
77158SOL     OW33370   7.067   1.311  10.892
77158SOL    HW133371   7.001   1.260  10.940
77158SOL    HW233372   7.137   1.324  10.955
77159SOL     OW33373   5.492  10.385  12.447
77159SOL    HW133374   5.454  10.352  12.365
77159SOL    HW233375   5.539  10.464  12.421
77160SOL     OW33376  10.342  12.845  10.656
77160SOL    HW133377  10.312  12.927  10.616
77160SOL    HW233378  10.262  12.795  10.669
77161SOL     OW33379   1.560  14.141   6.502
77161SOL    HW133380   1.534  14.066   6.554
77161SOL    HW233381   1.477  14.182   6.476
77162SOL     OW33382   4.309   5.468  11.590
77162SOL    HW133383   4.288   5.555  11.623
77162SOL    HW233384   4.225   5.433  11.559
77163SOL     OW33385   9.501  12.393  10.102
77163SOL    HW133386   9.435  12.450  10.062
77163SOL    HW233387   9.524  12.330  10.033
77164SOL     OW33388   4.080  12.626   7.581
77164SOL    HW133389   4.054  12.537   7.604
77164SOL    HW233390   4.148  12.649   7.644
77165SOL     OW33391   9.024   6.473   0.341
77165SOL    HW133392   9.054   6.395   0.387
77165SOL    HW233393   8.991   6.440   0.257
77166SOL     OW33394  14.541   1.237   7.761
77166SOL    HW133395  14.633   1.222   7.783
77166SOL    HW233396  14.543   1.293   7.684
77167SOL     OW33397  10.464   6.628  13.664
77167SOL    HW133398  10.509   6.632  13.748
77167SOL    HW233399  10.413   6.547  13.667
77168SOL     OW33400   0.076   6.672   1.072
77168SOL    HW133401  14.860   6.635   1.053
77168SOL    HW233402   0.121   6.672   0.987
77169SOL     OW33403   8.182   5.724   3.903
77169SOL    HW133404   8.217   5.656   3.845
77169SOL    HW233405   8.172   5.680   3.988
77170SOL     OW33406   4.813   2.978   0.671
77170SOL    HW133407   4.796   2.987   0.765
77170SOL    HW233408   4.785   2.889   0.650
77171SOL     OW33409   6.896   4.219   8.426
77171SOL    HW133410   6.864   4.162   8.356
77171SOL    HW233411   6.825   4.219   8.490
77172SOL     OW33412   5.499   9.760   6.128
77172SOL    HW133413   5.497   9.849   6.094
77172SOL    HW233414   5.451   9.708   6.065
77173SOL     OW33415   9.684  13.241  10.171
77173SOL    HW133416   9.735  13.169  10.133
77173SOL    HW233417   9.729  13.262  10.253
77174SOL     OW33418   1.307   2.276   4.094
77174SOL    HW133419   1.297   2.349   4.033
77174SOL    HW233420   1.326   2.317   4.178
77175SOL     OW33421  11.267   2.831   5.374
77175SOL    HW133422  11.324   2.769   5.327
77175SOL    HW233423  11.311   2.844   5.458
77176SOL     OW33424   0.695   9.217  13.435
77176SOL    HW133425   0.657   9.166  13.363
77176SOL    HW233426   0.657   9.178  13.514
77177SOL     OW33427  13.573  13.537  13.426
77177SOL    HW133428  13.605  13.604  13.365
77177SOL    HW233429  13.487  13.512  13.391
77178SOL     OW33430  13.861   3.537  11.752
77178SOL    HW133431  13.809   3.532  11.832
77178SOL    HW233432  13.925   3.466  11.760
77179SOL     OW33433   4.634  11.295   5.911
77179SOL    HW133434   4.583  11.230   5.862
77179SOL    HW233435   4.619  11.273   6.002
77180SOL     OW33436   5.554   4.741  13.959
77180SOL    HW133437   5.613   4.695  14.018
77180SOL    HW233438   5.570   4.834  13.977
77181SOL     OW33439   7.152  14.644   0.570
77181SOL    HW133440   7.089  14.709   0.602
77181SOL    HW233441   7.108  14.560   0.583
77182SOL     OW33442  12.205   9.207  11.706
77182SOL    HW133443  12.251   9.157  11.638
77182SOL    HW233444  12.114   9.178  11.699
77183SOL     OW33445   1.812  10.500   9.614
77183SOL    HW133446   1.722  10.503   9.582
77183SOL    HW233447   1.803  10.491   9.709
77184SOL     OW33448  12.389   3.480   5.178
77184SOL    HW133449  12.328   3.550   5.154
77184SOL    HW233450  12.392   3.423   5.102
77185SOL     OW33451   5.820   7.232   7.939
77185SOL    HW133452   5.729   7.218   7.966
77185SOL    HW233453   5.869   7.165   7.985
77186SOL     OW33454   0.757   5.644  11.175
77186SOL    HW133455   0.771   5.735  11.147
77186SOL    HW233456   0.787   5.591  11.101
77187SOL     OW33457  14.803   5.593   4.629
77187SOL    HW133458   0.020   5.551   4.629
77187SOL    HW233459  14.797   5.634   4.543
77188SOL     OW33460  12.966  12.782   2.844
77188SOL    HW133461  12.926  12.697   2.825
77188SOL    HW233462  13.046  12.784   2.792
77189SOL     OW33463   5.451  11.959   3.275
77189SOL    HW133464   5.487  12.009   3.202
77189SOL    HW233465   5.460  12.018   3.350
77190SOL     OW33466   5.055   7.524   2.130
77190SOL    HW133467   5.036   7.485   2.045
77190SOL    HW233468   5.134   7.575   2.116
77191SOL     OW33469   4.720   7.927   0.118
77191SOL    HW133470   4.650   7.963   0.172
77191SOL    HW233471   4.675   7.878   0.050
77192SOL     OW33472  11.962  10.176   2.079
77192SOL    HW133473  11.883  10.156   2.129
77192SOL    HW233474  11.977  10.269   2.094
77193SOL     OW33475  10.042   1.913  13.911
77193SOL    HW133476  10.117   1.959  13.874
77193SOL    HW233477  10.072   1.822  13.920
77194SOL     OW33478   3.269  13.874  14.262
77194SOL    HW133479   3.340  13.933  14.238
77194SOL    HW233480   3.311  13.789  14.273
77195SOL     OW33481  14.193   3.283   7.911
77195SOL    HW133482  14.181   3.226   7.835
77195SOL    HW233483  14.232   3.363   7.875
77196SOL     OW33484   5.121   1.845   0.197
77196SOL    HW133485   5.157   1.886   0.276
77196SOL    HW233486   5.026   1.846   0.210
77197SOL     OW33487   0.124   9.720   2.803
77197SOL    HW133488   0.175   9.644   2.834
77197SOL    HW233489   0.062   9.737   2.873
77198SOL     OW33490   0.580   6.097   6.157
77198SOL    HW133491   0.619   6.160   6.218
77198SOL    HW233492   0.556   6.023   6.212
77199SOL     OW33493   4.912   3.157   7.674
77199SOL    HW133494   4.990   3.208   7.696
77199SOL    HW233495   4.846   3.222   7.651
77200SOL     OW33496   8.291   0.941   3.946
77200SOL    HW133497   8.382   0.948   3.977
77200SOL    HW233498   8.246   1.013   3.990
77201SOL     OW33499   3.636  13.417   7.813
77201SOL    HW133500   3.656  13.465   7.732
77201SOL    HW233501   3.588  13.340   7.783
77202SOL     OW33502  13.955   0.639   9.030
77202SOL    HW133503  13.983   0.606   8.944
77202SOL    HW233504  13.953   0.561   9.086
77203SOL     OW33505  11.849  13.673  11.609
77203SOL    HW133506  11.862  13.743  11.546
77203SOL    HW233507  11.754  13.665  11.617
77204SOL     OW33508   1.274  10.378   9.074
77204SOL    HW133509   1.363  10.405   9.097
77204SOL    HW233510   1.287  10.298   9.022
77205SOL     OW33511  12.748  10.530   3.529
77205SOL    HW133512  12.791  10.525   3.444
77205SOL    HW233513  12.687  10.604   3.521
77206SOL     OW33514   0.778  13.254  13.510
77206SOL    HW133515   0.684  13.254  13.492
77206SOL    HW233516   0.813  13.184  13.455
77207SOL     OW33517   1.960   6.438   6.790
77207SOL    HW133518   2.046   6.440   6.747
77207SOL    HW233519   1.898   6.448   6.718
77208SOL     OW33520  10.822  12.571  13.145
77208SOL    HW133521  10.778  12.552  13.228
77208SOL    HW233522  10.914  12.553  13.162
77209SOL     OW33523  10.289   4.518   4.979
77209SOL    HW133524  10.248   4.546   4.897
77209SOL    HW233525  10.360   4.460   4.952
77210SOL     OW33526   5.699   8.347  12.584
77210SOL    HW133527   5.652   8.429  12.601
77210SOL    HW233528   5.791   8.370  12.596
77211SOL     OW33529  11.830   7.940  10.435
77211SOL    HW133530  11.807   8.010  10.496
77211SOL    HW233531  11.758   7.878  10.443
77212SOL     OW33532   8.582   3.780   9.089
77212SOL    HW133533   8.557   3.862   9.133
77212SOL    HW233534   8.582   3.715   9.158
77213SOL     OW33535  10.423  13.597   2.863
77213SOL    HW133536  10.356  13.665   2.869
77213SOL    HW233537  10.412  13.560   2.775
77214SOL     OW33538   0.170  14.026   5.660
77214SOL    HW133539   0.189  13.937   5.629
77214SOL    HW233540   0.256  14.068   5.667
77215SOL     OW33541   4.372   6.788   2.968
77215SOL    HW133542   4.370   6.752   2.879
77215SOL    HW233543   4.458   6.764   3.002
77216SOL     OW33544   9.767   1.215  11.526
77216SOL    HW133545   9.861   1.197  11.517
77216SOL    HW233546   9.760   1.259  11.611
77217SOL     OW33547   2.001   7.008   2.825
77217SOL    HW133548   2.078   6.961   2.794
77217SOL    HW233549   2.000   7.090   2.775
77218SOL     OW33550  12.092   5.969   4.640
77218SOL    HW133551  12.091   6.065   4.649
77218SOL    HW233552  12.098   5.937   4.730
77219SOL     OW33553   4.768  11.807   5.425
77219SOL    HW133554   4.850  11.842   5.390
77219SOL    HW233555   4.796  11.742   5.490
77220SOL     OW33556   8.917  10.870   3.000
77220SOL    HW133557   8.865  10.950   3.001
77220SOL    HW233558   8.869  10.810   2.943
77221SOL     OW33559  14.540  12.548  14.239
77221SOL    HW133560  14.473  12.603  14.199
77221SOL    HW233561  14.605  12.610  14.273
77222SOL     OW33562   8.664   9.870   6.524
77222SOL    HW133563   8.585   9.833   6.563
77222SOL    HW233564   8.668   9.960   6.558
77223SOL     OW33565  10.136  10.442   2.568
77223SOL    HW133566  10.116  10.477   2.480
77223SOL    HW233567  10.103  10.510   2.628
77224SOL     OW33568  12.809   4.729   9.930
77224SOL    HW133569  12.796   4.798   9.866
77224SOL    HW233570  12.857   4.661   9.883
77225SOL     OW33571  13.709  13.434   3.603
77225SOL    HW133572  13.618  13.410   3.621
77225SOL    HW233573  13.746  13.454   3.689
77226SOL     OW33574   6.383  10.780   7.157
77226SOL    HW133575   6.340  10.752   7.238
77226SOL    HW233576   6.402  10.698   7.111
77227SOL     OW33577   8.032  11.087  14.722
77227SOL    HW133578   7.973  11.013  14.707
77227SOL    HW233579   7.999  11.157  14.666
77228SOL     OW33580   9.176  11.392  14.358
77228SOL    HW133581   9.192  11.479  14.322
77228SOL    HW233582   9.088  11.397  14.395
77229SOL     OW33583   1.550   5.033   6.751
77229SOL    HW133584   1.500   4.951   6.754
77229SOL    HW233585   1.553   5.055   6.658
77230SOL     OW33586   9.105  10.884  14.218
77230SOL    HW133587   9.109  10.836  14.135
77230SOL    HW233588   9.117  10.816  14.285
77231SOL     OW33589   7.213  10.423  11.444
77231SOL    HW133590   7.137  10.454  11.395
77231SOL    HW233591   7.213  10.328  11.431
77232SOL     OW33592  12.593   6.054  11.785
77232SOL    HW133593  12.592   5.985  11.851
77232SOL    HW233594  12.506   6.093  11.790
77233SOL     OW33595  13.556   7.094   4.666
77233SOL    HW133596  13.585   7.087   4.575
77233SOL    HW233597  13.627   7.141   4.711
77234SOL     OW33598  14.816   4.707   7.549
77234SOL    HW133599  14.764   4.664   7.481
77234SOL    HW233600  14.766   4.786   7.571
77235SOL     OW33601   3.061   9.067   3.530
77235SOL    HW133602   3.038   9.159   3.545
77235SOL    HW233603   3.092   9.064   3.439
77236SOL     OW33604   5.761   8.927   0.021
77236SOL    HW133605   5.830   8.992   0.034
77236SOL    HW233606   5.771   8.899  14.800
77237SOL     OW33607   2.172   7.499   0.919
77237SOL    HW133608   2.145   7.545   0.999
77237SOL    HW233609   2.090   7.489   0.870
77238SOL     OW33610  12.187  10.306  11.062
77238SOL    HW133611  12.121  10.285  11.128
77238SOL    HW233612  12.156  10.386  11.021
77239SOL     OW33613   4.891  13.336   9.153
77239SOL    HW133614   4.841  13.256   9.139
77239SOL    HW233615   4.891  13.347   9.249
77240SOL     OW33616   5.433   3.828   1.576
77240SOL    HW133617   5.523   3.852   1.555
77240SOL    HW233618   5.380   3.875   1.511
77241SOL     OW33619  10.553  11.995   2.486
77241SOL    HW133620  10.634  11.946   2.492
77241SOL    HW233621  10.575  12.082   2.520
77242SOL     OW33622  13.428  12.318  13.572
77242SOL    HW133623  13.345  12.282  13.540
77242SOL    HW233624  13.429  12.296  13.665
77243SOL     OW33625   0.465  11.843   9.697
77243SOL    HW133626   0.518  11.911   9.655
77243SOL    HW233627   0.397  11.823   9.633
77244SOL     OW33628  13.302   2.516   3.330
77244SOL    HW133629  13.338   2.435   3.366
77244SOL    HW233630  13.211   2.518   3.359
77245SOL     OW33631  13.611   5.600   3.481
77245SOL    HW133632  13.516   5.613   3.479
77245SOL    HW233633  13.633   5.590   3.574
77246SOL     OW33634   8.537   9.927   4.712
77246SOL    HW133635   8.456   9.878   4.706
77246SOL    HW233636   8.520   9.993   4.780
77247SOL     OW33637   8.592   7.879   9.969
77247SOL    HW133638   8.683   7.883   9.940
77247SOL    HW233639   8.574   7.786   9.982
77248SOL     OW33640  13.106   2.990  13.361
77248SOL    HW133641  13.170   3.025  13.299
77248SOL    HW233642  13.140   3.014  13.447
77249SOL     OW33643   1.481   4.623   8.871
77249SOL    HW133644   1.486   4.669   8.955
77249SOL    HW233645   1.480   4.693   8.806
77250SOL     OW33646   3.816  14.565   2.579
77250SOL    HW133647   3.792  14.501   2.512
77250SOL    HW233648   3.744  14.628   2.577
77251SOL     OW33649  14.311   0.521  10.271
77251SOL    HW133650  14.222   0.493  10.249
77251SOL    HW233651  14.307   0.545  10.364
77252SOL     OW33652   6.685   4.221   7.542
77252SOL    HW133653   6.620   4.176   7.489
77252SOL    HW233654   6.658   4.205   7.633
77253SOL     OW33655   4.061   2.894   4.334
77253SOL    HW133656   4.001   2.820   4.348
77253SOL    HW233657   4.148   2.854   4.334
77254SOL     OW33658   0.054  10.909  14.472
77254SOL    HW133659   0.024  10.865  14.552
77254SOL    HW233660   0.134  10.954  14.498
77255SOL     OW33661   5.380   8.169   8.904
77255SOL    HW133662   5.299   8.134   8.866
77255SOL    HW233663   5.445   8.161   8.834
77256SOL     OW33664   6.508   6.190   3.690
77256SOL    HW133665   6.528   6.146   3.608
77256SOL    HW233666   6.591   6.227   3.719
77257SOL     OW33667   1.388   6.539   6.199
77257SOL    HW133668   1.431   6.599   6.138
77257SOL    HW233669   1.295   6.548   6.179
77258SOL     OW33670   0.675   4.868   7.189
77258SOL    HW133671   0.724   4.931   7.241
77258SOL    HW233672   0.622   4.921   7.130
77259SOL     OW33673   7.909   9.195   4.754
77259SOL    HW133674   7.994   9.150   4.750
77259SOL    HW233675   7.852   9.144   4.697
77260SOL     OW33676   6.366   7.548  12.652
77260SOL    HW133677   6.456   7.580  12.646
77260SOL    HW233678   6.373   7.453  12.652
77261SOL     OW33679   0.268   3.713   9.884
77261SOL    HW133680   0.211   3.780   9.923
77261SOL    HW233681   0.273   3.736   9.791
77262SOL     OW33682   3.243   6.885  10.029
77262SOL    HW133683   3.241   6.887  10.124
77262SOL    HW233684   3.151   6.878  10.004
77263SOL     OW33685   0.013  10.885  12.992
77263SOL    HW133686  14.837  10.805  12.964
77263SOL    HW233687   0.008  10.943  12.916
77264SOL     OW33688  10.342  10.408   1.311
77264SOL    HW133689  10.419  10.420   1.366
77264SOL    HW233690  10.320  10.315   1.320
77265SOL     OW33691   8.286  12.209   9.654
77265SOL    HW133692   8.199  12.183   9.625
77265SOL    HW233693   8.337  12.215   9.573
77266SOL     OW33694   0.045  10.441   8.012
77266SOL    HW133695  14.846  10.413   8.071
77266SOL    HW233696   0.002  10.451   7.927
77267SOL     OW33697   7.464   2.908  14.848
77267SOL    HW133698   7.475   2.908   0.074
77267SOL    HW233699   7.532   2.967  14.817
77268SOL     OW33700   5.151   0.144   7.036
77268SOL    HW133701   5.169   0.069   6.980
77268SOL    HW233702   5.189   0.219   6.989
77269SOL     OW33703  13.795  13.706  10.176
77269SOL    HW133704  13.809  13.770  10.106
77269SOL    HW233705  13.788  13.622  10.130
77270SOL     OW33706  12.151   5.052  10.069
77270SOL    HW133707  12.154   5.145  10.091
77270SOL    HW233708  12.136   5.009  10.153
77271SOL     OW33709   5.645   8.398   6.934
77271SOL    HW133710   5.569   8.394   6.992
77271SOL    HW233711   5.616   8.356   6.853
77272SOL     OW33712   7.717   0.509   4.289
77272SOL    HW133713   7.730   0.415   4.304
77272SOL    HW233714   7.761   0.550   4.364
77273SOL     OW33715  14.607   9.077   4.129
77273SOL    HW133716  14.560   9.019   4.190
77273SOL    HW233717  14.538   9.111   4.071
77274SOL     OW33718   8.820  11.136   7.469
77274SOL    HW133719   8.822  11.096   7.382
77274SOL    HW233720   8.860  11.071   7.527
77275SOL     OW33721   3.864   8.521  11.128
77275SOL    HW133722   3.921   8.482  11.062
77275SOL    HW233723   3.776   8.491  11.104
77276SOL     OW33724   1.781   6.452   4.802
77276SOL    HW133725   1.829   6.502   4.737
77276SOL    HW233726   1.846   6.432   4.870
77277SOL     OW33727   5.411   4.996  10.391
77277SOL    HW133728   5.329   5.043  10.376
77277SOL    HW233729   5.453   5.041  10.464
77278SOL     OW33730  13.003  10.476  14.501
77278SOL    HW133731  12.976  10.386  14.481
77278SOL    HW233732  13.085  10.465  14.550
77279SOL     OW33733  11.631   7.411  12.411
77279SOL    HW133734  11.702   7.358  12.448
77279SOL    HW233735  11.601   7.466  12.483
77280SOL     OW33736   7.294   7.400   4.151
77280SOL    HW133737   7.332   7.422   4.066
77280SOL    HW233738   7.248   7.480   4.178
77281SOL     OW33739   9.884   9.597  11.090
77281SOL    HW133740   9.920   9.510  11.072
77281SOL    HW233741   9.928   9.624  11.171
77282SOL     OW33742   2.916   6.639   9.442
77282SOL    HW133743   2.925   6.623   9.348
77282SOL    HW233744   2.893   6.554   9.479
77283SOL     OW33745   4.310   4.211   4.145
77283SOL    HW133746   4.378   4.261   4.191
77283SOL    HW233747   4.347   4.123   4.135
77284SOL     OW33748  10.028   7.471   6.515
77284SOL    HW133749  10.072   7.481   6.599
77284SOL    HW233750  10.002   7.560   6.490
77285SOL     OW33751   1.286   1.656   4.621
77285SOL    HW133752   1.271   1.714   4.696
77285SOL    HW233753   1.282   1.568   4.658
77286SOL     OW33754   0.284  10.513  14.745
77286SOL    HW133755   0.312  10.438  14.693
77286SOL    HW233756   0.268  10.582  14.680
77287SOL     OW33757   6.063  12.140   4.590
77287SOL    HW133758   6.082  12.098   4.673
77287SOL    HW233759   6.090  12.077   4.524
77288SOL     OW33760   7.574   3.237   8.027
77288SOL    HW133761   7.539   3.319   8.060
77288SOL    HW233762   7.542   3.232   7.937
77289SOL     OW33763  10.305   3.385  13.257
77289SOL    HW133764  10.400   3.393  13.246
77289SOL    HW233765  10.284   3.298  13.222
77290SOL     OW33766   5.197   9.181   4.572
77290SOL    HW133767   5.237   9.101   4.538
77290SOL    HW233768   5.256   9.251   4.545
77291SOL     OW33769   4.856  14.345   6.243
77291SOL    HW133770   4.789  14.301   6.295
77291SOL    HW233771   4.928  14.360   6.304
77292SOL     OW33772   4.677   0.357   7.020
77292SOL    HW133773   4.763   0.349   7.061
77292SOL    HW233774   4.638   0.270   7.029
77293SOL     OW33775  12.352   1.466  13.755
77293SOL    HW133776  12.392   1.552  13.744
77293SOL    HW233777  12.301   1.473  13.835
77294SOL     OW33778  11.836   7.193  14.635
77294SOL    HW133779  11.858   7.277  14.676
77294SOL    HW233780  11.773   7.216  14.567
77295SOL     OW33781   8.896  11.471   4.878
77295SOL    HW133782   8.871  11.428   4.959
77295SOL    HW233783   8.978  11.517   4.899
77296SOL     OW33784   3.691  12.910  11.376
77296SOL    HW133785   3.681  13.000  11.407
77296SOL    HW233786   3.630  12.859  11.430
77297SOL     OW33787   0.175   0.962   0.720
77297SOL    HW133788   0.211   0.936   0.805
77297SOL    HW233789   0.154   1.054   0.730
77298SOL     OW33790   0.371   2.805   1.153
77298SOL    HW133791   0.281   2.806   1.120
77298SOL    HW233792   0.364   2.763   1.239
77299SOL     OW33793   0.981   5.049   3.438
77299SOL    HW133794   0.930   4.979   3.480
77299SOL    HW233795   1.029   5.090   3.510
77300SOL     OW33796   4.316   9.612  11.579
77300SOL    HW133797   4.383   9.661  11.531
77300SOL    HW233798   4.254   9.585  11.511
77301SOL     OW33799  13.113   7.529  10.219
77301SOL    HW133800  13.040   7.469  10.202
77301SOL    HW233801  13.111   7.543  10.314
77302SOL     OW33802   9.537   1.185   6.060
77302SOL    HW133803   9.588   1.134   5.997
77302SOL    HW233804   9.446   1.161   6.041
77303SOL     OW33805   5.803  10.763  10.683
77303SOL    HW133806   5.841  10.829  10.626
77303SOL    HW233807   5.783  10.810  10.765
77304SOL     OW33808   2.480   6.108  13.930
77304SOL    HW133809   2.458   6.134  14.020
77304SOL    HW233810   2.559   6.157  13.909
77305SOL     OW33811  13.491   7.080   1.166
77305SOL    HW133812  13.522   7.165   1.196
77305SOL    HW233813  13.550   7.056   1.094
77306SOL     OW33814   7.316   2.441   1.783
77306SOL    HW133815   7.331   2.408   1.694
77306SOL    HW233816   7.257   2.377   1.822
77307SOL     OW33817   1.715   7.439   9.354
77307SOL    HW133818   1.733   7.472   9.266
77307SOL    HW233819   1.770   7.361   9.362
77308SOL     OW33820   3.217   2.312   7.432
77308SOL    HW133821   3.218   2.314   7.528
77308SOL    HW233822   3.134   2.354   7.408
77309SOL     OW33823   7.286   8.187  14.865
77309SOL    HW133824   7.196   8.206   0.024
77309SOL    HW233825   7.283   8.097  14.834
77310SOL     OW33826   3.223   4.461  11.920
77310SOL    HW133827   3.241   4.475  12.013
77310SOL    HW233828   3.172   4.380  11.917
77311SOL     OW33829   9.157   7.196   6.965
77311SOL    HW133830   9.071   7.159   6.988
77311SOL    HW233831   9.180   7.154   6.883
77312SOL     OW33832  11.455   4.145   6.614
77312SOL    HW133833  11.431   4.052   6.619
77312SOL    HW233834  11.497   4.154   6.529
77313SOL     OW33835   3.225   4.963   4.327
77313SOL    HW133836   3.194   4.971   4.417
77313SOL    HW233837   3.291   5.032   4.319
77314SOL     OW33838   4.697   8.041   1.693
77314SOL    HW133839   4.679   8.134   1.706
77314SOL    HW233840   4.618   7.997   1.725
77315SOL     OW33841   9.363  12.509  11.964
77315SOL    HW133842   9.293  12.574  11.971
77315SOL    HW233843   9.334  12.436  12.017
77316SOL     OW33844   5.371  12.143   7.108
77316SOL    HW133845   5.409  12.058   7.128
77316SOL    HW233846   5.292  12.149   7.162
77317SOL     OW33847   2.984   9.282   9.751
77317SOL    HW133848   3.066   9.322   9.721
77317SOL    HW233849   2.916   9.326   9.701
77318SOL     OW33850  10.802  11.740   1.128
77318SOL    HW133851  10.828  11.667   1.072
77318SOL    HW233852  10.824  11.711   1.216
77319SOL     OW33853  11.018  13.781   7.408
77319SOL    HW133854  11.089  13.841   7.430
77319SOL    HW233855  10.977  13.819   7.330
77320SOL     OW33856   1.192   6.716   8.445
77320SOL    HW133857   1.238   6.711   8.361
77320SOL    HW233858   1.127   6.646   8.441
77321SOL     OW33859  11.479  10.494  11.667
77321SOL    HW133860  11.559  10.544  11.686
77321SOL    HW233861  11.417  10.560  11.635
77322SOL     OW33862   9.992   4.989  14.612
77322SOL    HW133863   9.942   4.935  14.551
77322SOL    HW233864  10.065   5.022  14.560
77323SOL     OW33865   1.457  11.857   4.738
77323SOL    HW133866   1.390  11.905   4.786
77323SOL    HW233867   1.508  11.924   4.694
77324SOL     OW33868   1.134   9.826   2.212
77324SOL    HW133869   1.160   9.834   2.304
77324SOL    HW233870   1.141   9.915   2.177
77325SOL     OW33871   7.356  13.738   5.635
77325SOL    HW133872   7.300  13.787   5.576
77325SOL    HW233873   7.328  13.647   5.624
77326SOL     OW33874   7.474  10.632  14.206
77326SOL    HW133875   7.502  10.661  14.293
77326SOL    HW233876   7.541  10.666  14.147
77327SOL     OW33877  10.537   6.548   1.757
77327SOL    HW133878  10.495   6.631   1.783
77327SOL    HW233879  10.584   6.520   1.836
77328SOL     OW33880  11.552   1.281   8.680
77328SOL    HW133881  11.599   1.300   8.761
77328SOL    HW233882  11.485   1.218   8.706
77329SOL     OW33883   0.031  12.410   9.895
77329SOL    HW133884  14.819  12.448   9.864
77329SOL    HW233885   0.009  12.318   9.912
77330SOL     OW33886  12.449  13.640   5.860
77330SOL    HW133887  12.436  13.601   5.946
77330SOL    HW233888  12.471  13.567   5.803
77331SOL     OW33889  10.133   6.983   3.604
77331SOL    HW133890  10.057   7.020   3.648
77331SOL    HW233891  10.119   7.002   3.511
77332SOL     OW33892   9.030   6.909   2.911
77332SOL    HW133893   9.027   6.830   2.858
77332SOL    HW233894   8.946   6.913   2.955
77333SOL     OW33895  13.192   5.989  11.492
77333SOL    HW133896  13.213   6.059  11.431
77333SOL    HW233897  13.098   5.975  11.482
77334SOL     OW33898  11.819   5.212   4.521
77334SOL    HW133899  11.895   5.220   4.464
77334SOL    HW233900  11.775   5.297   4.515
77335SOL     OW33901   4.118  10.187   6.091
77335SOL    HW133902   4.030  10.167   6.123
77335SOL    HW233903   4.121  10.283   6.088
77336SOL     OW33904   8.575   2.631   5.852
77336SOL    HW133905   8.565   2.552   5.905
77336SOL    HW233906   8.531   2.699   5.901
77337SOL     OW33907  11.179   6.445  11.067
77337SOL    HW133908  11.104   6.429  11.009
77337SOL    HW233909  11.139   6.462  11.153
77338SOL     OW33910  10.914   6.083   1.382
77338SOL    HW133911  10.882   6.002   1.342
77338SOL    HW233912  10.844   6.109   1.441
77339SOL     OW33913   3.189  12.228  11.577
77339SOL    HW133914   3.106  12.184  11.599
77339SOL    HW233915   3.253  12.157  11.571
77340SOL     OW33916   3.491   5.251   8.180
77340SOL    HW133917   3.433   5.175   8.173
77340SOL    HW233918   3.579   5.214   8.181
77341SOL     OW33919   8.723   4.430   4.128
77341SOL    HW133920   8.682   4.517   4.128
77341SOL    HW233921   8.801   4.440   4.073
77342SOL     OW33922   7.289   4.566   7.625
77342SOL    HW133923   7.225   4.638   7.626
77342SOL    HW233924   7.340   4.580   7.545
77343SOL     OW33925  11.603   6.306  11.937
77343SOL    HW133926  11.549   6.367  11.987
77343SOL    HW233927  11.681   6.293  11.992
77344SOL     OW33928   4.058   6.846   4.993
77344SOL    HW133929   3.978   6.880   4.954
77344SOL    HW233930   4.121   6.918   4.985
77345SOL     OW33931   8.984  12.089  14.048
77345SOL    HW133932   8.968  12.002  14.083
77345SOL    HW233933   8.897  12.128  14.038
77346SOL     OW33934  13.182   3.075   1.595
77346SOL    HW133935  13.151   2.985   1.604
77346SOL    HW233936  13.275   3.066   1.573
77347SOL     OW33937   9.339   7.076  13.358
77347SOL    HW133938   9.336   6.984  13.330
77347SOL    HW233939   9.378   7.073  13.445
77348SOL     OW33940   1.428   0.357   5.089
77348SOL    HW133941   1.425   0.355   5.184
77348SOL    HW233942   1.435   0.265   5.063
77349SOL     OW33943   4.145  11.159   6.423
77349SOL    HW133944   4.227  11.204   6.446
77349SOL    HW233945   4.081  11.230   6.417
77350SOL     OW33946  10.384  12.073  11.809
77350SOL    HW133947  10.413  11.997  11.860
77350SOL    HW233948  10.353  12.035  11.726
77351SOL     OW33949   8.696  11.860   6.038
77351SOL    HW133950   8.614  11.845   5.991
77351SOL    HW233951   8.674  11.925   6.105
77352SOL     OW33952   0.474  10.498  13.340
77352SOL    HW133953   0.512  10.415  13.369
77352SOL    HW233954   0.550  10.554  13.324
77353SOL     OW33955   7.242   8.997   5.630
77353SOL    HW133956   7.289   9.048   5.563
77353SOL    HW233957   7.188   8.936   5.580
77354SOL     OW33958  10.893   4.175   7.295
77354SOL    HW133959  10.823   4.174   7.230
77354SOL    HW233960  10.856   4.220   7.371
77355SOL     OW33961  13.232   0.004   5.105
77355SOL    HW133962  13.156   0.047   5.066
77355SOL    HW233963  13.250   0.053   5.185
77356SOL     OW33964   6.446   9.378   6.745
77356SOL    HW133965   6.474   9.443   6.810
77356SOL    HW233966   6.527   9.348   6.705
77357SOL     OW33967   3.578   6.279   6.645
77357SOL    HW133968   3.634   6.219   6.693
77357SOL    HW233969   3.596   6.260   6.553
77358SOL     OW33970   8.612   2.325  13.677
77358SOL    HW133971   8.608   2.277  13.760
77358SOL    HW233972   8.704   2.320  13.651
77359SOL     OW33973   7.753   9.364  11.725
77359SOL    HW133974   7.700   9.335  11.650
77359SOL    HW233975   7.839   9.325  11.709
77360SOL     OW33976   6.686  13.179   8.560
77360SOL    HW133977   6.728  13.264   8.576
77360SOL    HW233978   6.677  13.175   8.465
77361SOL     OW33979  13.397   3.322  11.915
77361SOL    HW133980  13.319   3.375  11.896
77361SOL    HW233981  13.368   3.260  11.982
77362SOL     OW33982  14.778  10.387  13.371
77362SOL    HW133983   0.004  10.388  13.366
77362SOL    HW233984  14.758  10.303  13.412
77363SOL     OW33985   6.205   3.322   7.054
77363SOL    HW133986   6.188   3.272   7.134
77363SOL    HW233987   6.253   3.399   7.083
77364SOL     OW33988  10.745   1.690   7.216
77364SOL    HW133989  10.835   1.659   7.207
77364SOL    HW233990  10.692   1.610   7.217
77365SOL     OW33991   2.610   8.226   5.078
77365SOL    HW133992   2.546   8.157   5.092
77365SOL    HW233993   2.570   8.284   5.013
77366SOL     OW33994   4.890   6.772  12.086
77366SOL    HW133995   4.924   6.764  12.175
77366SOL    HW233996   4.795   6.776  12.097
77367SOL     OW33997   1.837  12.778  12.874
77367SOL    HW133998   1.852  12.813  12.962
77367SOL    HW233999   1.918  12.731  12.853
77368SOL     OW34000   0.247   8.072  12.402
77368SOL    HW134001   0.205   7.991  12.430
77368SOL    HW234002   0.185   8.141  12.426
77369SOL     OW34003   1.220  14.846   7.195
77369SOL    HW134004   1.258  14.760   7.177
77369SOL    HW234005   1.281   0.039   7.157
77370SOL     OW34006   4.099  13.207   5.194
77370SOL    HW134007   4.008  13.181   5.210
77370SOL    HW234008   4.101  13.230   5.101
77371SOL     OW34009   2.274  12.944  11.072
77371SOL    HW134010   2.260  12.900  11.156
77371SOL    HW234011   2.187  12.944  11.031
77372SOL     OW34012   8.387   8.125   2.145
77372SOL    HW134013   8.320   8.098   2.082
77372SOL    HW234014   8.423   8.206   2.108
77373SOL     OW34015   6.966   7.727   1.665
77373SOL    HW134016   7.059   7.732   1.687
77373SOL    HW234017   6.962   7.754   1.573
77374SOL     OW34018   3.200  14.199  12.190
77374SOL    HW134019   3.225  14.208  12.097
77374SOL    HW234020   3.220  14.284  12.228
77375SOL     OW34021   9.949   5.755  14.564
77375SOL    HW134022   9.927   5.752  14.657
77375SOL    HW234023  10.021   5.694  14.554
77376SOL     OW34024   8.026   5.593   2.070
77376SOL    HW134025   8.010   5.504   2.101
77376SOL    HW234026   8.121   5.599   2.061
77377SOL     OW34027  10.800   6.235   0.471
77377SOL    HW134028  10.734   6.250   0.539
77377SOL    HW234029  10.871   6.188   0.515
77378SOL     OW34030   8.152  13.415   1.124
77378SOL    HW134031   8.215  13.486   1.115
77378SOL    HW234032   8.188  13.344   1.071
77379SOL     OW34033  12.938   7.807   3.160
77379SOL    HW134034  12.868   7.867   3.189
77379SOL    HW234035  12.948   7.746   3.233
77380SOL     OW34036   9.571   4.415  11.522
77380SOL    HW134037   9.479   4.415  11.550
77380SOL    HW234038   9.604   4.330  11.552
77381SOL     OW34039  11.771   4.199   4.460
77381SOL    HW134040  11.725   4.122   4.427
77381SOL    HW234041  11.852   4.202   4.411
77382SOL     OW34042   7.297  12.051  10.430
77382SOL    HW134043   7.329  12.012  10.349
77382SOL    HW234044   7.208  12.081  10.409
77383SOL     OW34045   4.854   0.287   0.610
77383SOL    HW134046   4.881   0.306   0.699
77383SOL    HW234047   4.758   0.280   0.615
77384SOL     OW34048   0.083  11.574   1.519
77384SOL    HW134049   0.042  11.600   1.437
77384SOL    HW234050   0.101  11.657   1.564
77385SOL     OW34051  12.420  13.969  11.730
77385SOL    HW134052  12.473  14.005  11.800
77385SOL    HW234053  12.475  13.973  11.652
77386SOL     OW34054  11.790   8.218  12.949
77386SOL    HW134055  11.791   8.143  13.008
77386SOL    HW234056  11.736   8.190  12.875
77387SOL     OW34057  10.781   0.629  14.815
77387SOL    HW134058  10.778   0.688  14.741
77387SOL    HW234059  10.695   0.588  14.817
77388SOL     OW34060  14.406   2.601  14.456
77388SOL    HW134061  14.410   2.667  14.525
77388SOL    HW234062  14.329   2.625  14.404
77389SOL     OW34063  10.580  13.493  12.066
77389SOL    HW134064  10.530  13.499  11.985
77389SOL    HW234065  10.573  13.579  12.106
77390SOL     OW34066   3.936  10.274   4.199
77390SOL    HW134067   3.851  10.258   4.157
77390SOL    HW234068   3.972  10.187   4.215
77391SOL     OW34069   4.542   7.808   4.125
77391SOL    HW134070   4.463   7.756   4.140
77391SOL    HW234071   4.551   7.812   4.030
77392SOL     OW34072   0.777   8.998   4.008
77392SOL    HW134073   0.813   9.024   3.923
77392SOL    HW234074   0.722   9.072   4.035
77393SOL     OW34075   6.009  10.266   2.954
77393SOL    HW134076   6.058  10.226   3.026
77393SOL    HW234077   5.949  10.327   2.997
77394SOL     OW34078   5.805   9.313  13.910
77394SOL    HW134079   5.746   9.281  13.842
77394SOL    HW234080   5.844   9.234  13.947
77395SOL     OW34081   5.621   3.777  11.252
77395SOL    HW134082   5.526   3.767  11.244
77395SOL    HW234083   5.643   3.731  11.333
77396SOL     OW34084  14.424  11.114  14.690
77396SOL    HW134085  14.409  11.199  14.731
77396SOL    HW234086  14.392  11.051  14.755
77397SOL     OW34087  10.894   2.061   1.786
77397SOL    HW134088  10.827   2.125   1.813
77397SOL    HW234089  10.854   1.976   1.804
77398SOL     OW34090   9.605   5.945  10.771
77398SOL    HW134091   9.625   6.038  10.760
77398SOL    HW234092   9.663   5.900  10.710
77399SOL     OW34093   2.263  14.308   5.660
77399SOL    HW134094   2.256  14.334   5.568
77399SOL    HW234095   2.200  14.365   5.705
77400SOL     OW34096   0.564   4.918   6.657
77400SOL    HW134097   0.535   4.828   6.647
77400SOL    HW234098   0.658   4.916   6.641
77401SOL     OW34099   5.565  10.889  12.643
77401SOL    HW134100   5.486  10.857  12.686
77401SOL    HW234101   5.543  10.978  12.614
77402SOL     OW34102   2.299   2.407  11.755
77402SOL    HW134103   2.341   2.478  11.706
77402SOL    HW234104   2.364   2.383  11.821
77403SOL     OW34105  12.817   1.513  10.772
77403SOL    HW134106  12.804   1.533  10.679
77403SOL    HW234107  12.815   1.599  10.815
77404SOL     OW34108   4.317  10.548   5.051
77404SOL    HW134109   4.231  10.541   5.009
77404SOL    HW234110   4.377  10.569   4.980
77405SOL     OW34111  13.557  10.058   8.415
77405SOL    HW134112  13.490  10.090   8.354
77405SOL    HW234113  13.522  10.078   8.502
77406SOL     OW34114  14.073   7.942   0.964
77406SOL    HW134115  13.978   7.933   0.973
77406SOL    HW234116  14.097   7.874   0.901
77407SOL     OW34117   5.938  12.870  11.543
77407SOL    HW134118   5.928  12.818  11.623
77407SOL    HW234119   6.032  12.871  11.526
77408SOL     OW34120   4.081  11.897   4.799
77408SOL    HW134121   4.159  11.869   4.847
77408SOL    HW234122   4.019  11.825   4.809
77409SOL     OW34123   8.069   5.203   8.905
77409SOL    HW134124   8.041   5.198   8.813
77409SOL    HW234125   8.006   5.262   8.946
77410SOL     OW34126  14.052  12.986  10.873
77410SOL    HW134127  14.131  12.971  10.925
77410SOL    HW234128  14.083  13.037  10.798
77411SOL     OW34129   4.503  14.740  10.877
77411SOL    HW134130   4.560  14.782  10.812
77411SOL    HW234131   4.440  14.808  10.901
77412SOL     OW34132  12.220  13.066   2.343
77412SOL    HW134133  12.201  13.068   2.249
77412SOL    HW234134  12.279  12.992   2.354
77413SOL     OW34135   2.337  14.116  11.822
77413SOL    HW134136   2.263  14.082  11.872
77413SOL    HW234137   2.415  14.086  11.870
77414SOL     OW34138  12.832  12.039   6.889
77414SOL    HW134139  12.905  11.999   6.843
77414SOL    HW234140  12.760  11.976   6.880
77415SOL     OW34141  13.562   3.516  13.154
77415SOL    HW134142  13.495   3.583  13.162
77415SOL    HW234143  13.602   3.533  13.069
77416SOL     OW34144   6.297   0.833  13.383
77416SOL    HW134145   6.208   0.802  13.364
77416SOL    HW234146   6.289   0.928  13.389
77417SOL     OW34147  12.750   6.729  11.679
77417SOL    HW134148  12.748   6.777  11.761
77417SOL    HW234149  12.835   6.751  11.640
77418SOL     OW34150   1.480  12.572   4.723
77418SOL    HW134151   1.399  12.622   4.726
77418SOL    HW234152   1.550  12.636   4.736
77419SOL     OW34153   3.976   3.156  13.411
77419SOL    HW134154   4.018   3.226  13.461
77419SOL    HW234155   3.920   3.111  13.474
77420SOL     OW34156  11.573  11.682   0.053
77420SOL    HW134157  11.485  11.679   0.016
77420SOL    HW234158  11.627  11.635  14.859
77421SOL     OW34159  10.787   3.120   6.822
77421SOL    HW134160  10.780   3.215   6.822
77421SOL    HW234161  10.761   3.094   6.734
77422SOL     OW34162  12.978   9.598   7.774
77422SOL    HW134163  13.050   9.540   7.748
77422SOL    HW234164  12.905   9.573   7.717
77423SOL     OW34165   0.719   7.979   2.908
77423SOL    HW134166   0.748   8.065   2.939
77423SOL    HW234167   0.800   7.927   2.904
77424SOL     OW34168   1.122   4.826   3.129
77424SOL    HW134169   1.036   4.864   3.149
77424SOL    HW234170   1.131   4.755   3.192
77425SOL     OW34171   0.321   9.071  13.569
77425SOL    HW134172   0.276   9.019  13.634
77425SOL    HW234173   0.256   9.135  13.540
77426SOL     OW34174  10.355   5.048   9.698
77426SOL    HW134175  10.445   5.018   9.709
77426SOL    HW234176  10.323   4.999   9.622
77427SOL     OW34177   8.053   1.778   2.062
77427SOL    HW134178   7.981   1.739   2.112
77427SOL    HW234179   8.112   1.706   2.044
77428SOL     OW34180  11.479   8.438   2.985
77428SOL    HW134181  11.477   8.405   3.075
77428SOL    HW234182  11.526   8.372   2.935
77429SOL     OW34183   7.094  11.165   0.288
77429SOL    HW134184   7.156  11.228   0.251
77429SOL    HW234185   7.048  11.213   0.357
77430SOL     OW34186  11.253   2.967   5.123
77430SOL    HW134187  11.225   2.914   5.197
77430SOL    HW234188  11.322   2.916   5.081
77431SOL     OW34189   6.140  11.148   2.153
77431SOL    HW134190   6.110  11.059   2.134
77431SOL    HW234191   6.230  11.138   2.183
77432SOL     OW34192   1.596   5.537   5.377
77432SOL    HW134193   1.509   5.577   5.387
77432SOL    HW234194   1.631   5.576   5.297
77433SOL     OW34195   8.585  10.211   2.059
77433SOL    HW134196   8.540  10.198   2.142
77433SOL    HW234197   8.515  10.227   1.995
77434SOL     OW34198   0.566   6.098  11.567
77434SOL    HW134199   0.494   6.050  11.527
77434SOL    HW234200   0.603   6.036  11.631
77435SOL     OW34201   4.248  12.392  11.305
77435SOL    HW134202   4.242  12.297  11.301
77435SOL    HW234203   4.334  12.413  11.268
77436SOL     OW34204   1.564  14.199  12.360
77436SOL    HW134205   1.496  14.187  12.293
77436SOL    HW234206   1.520  14.244  12.431
77437SOL     OW34207  12.565  13.445   3.687
77437SOL    HW134208  12.558  13.536   3.716
77437SOL    HW234209  12.637  13.409   3.741
77438SOL     OW34210  13.011   1.868   8.915
77438SOL    HW134211  13.031   1.797   8.976
77438SOL    HW234212  13.088   1.873   8.858
77439SOL     OW34213  13.123   7.966   2.575
77439SOL    HW134214  13.084   7.945   2.490
77439SOL    HW234215  13.153   7.882   2.609
77440SOL     OW34216   4.125  10.501  14.753
77440SOL    HW134217   4.031  10.517  14.740
77440SOL    HW234218   4.130  10.412  14.788
77441SOL     OW34219  11.109   5.888   9.723
77441SOL    HW134220  11.055   5.867   9.799
77441SOL    HW234221  11.171   5.954   9.755
77442SOL     OW34222   5.137   6.757  11.833
77442SOL    HW134223   5.088   6.829  11.872
77442SOL    HW234224   5.088   6.679  11.857
77443SOL     OW34225   1.567  10.490   9.215
77443SOL    HW134226   1.642  10.452   9.169
77443SOL    HW234227   1.538  10.561   9.158
77444SOL     OW34228   4.046  11.669   3.098
77444SOL    HW134229   3.955  11.690   3.078
77444SOL    HW234230   4.060  11.706   3.185
77445SOL     OW34231  10.304  14.785   7.772
77445SOL    HW134232  10.222  14.744   7.744
77445SOL    HW234233  10.298  14.787   7.868
77446SOL     OW34234  14.021   8.373   5.186
77446SOL    HW134235  13.950   8.349   5.244
77446SOL    HW234236  14.061   8.290   5.161
77447SOL     OW34237   6.900   6.750   8.360
77447SOL    HW134238   6.814   6.753   8.401
77447SOL    HW234239   6.903   6.665   8.315
77448SOL     OW34240   4.415   3.295   1.548
77448SOL    HW134241   4.406   3.232   1.476
77448SOL    HW234242   4.443   3.242   1.623
77449SOL     OW34243   4.196  12.742   4.866
77449SOL    HW134244   4.232  12.830   4.877
77449SOL    HW234245   4.137  12.731   4.942
77450SOL     OW34246  12.152   0.397   5.821
77450SOL    HW134247  12.105   0.402   5.905
77450SOL    HW234248  12.193   0.310   5.822
77451SOL     OW34249   0.017   6.558   0.007
77451SOL    HW134250   0.008   6.497   0.081
77451SOL    HW234251  14.805   6.548  14.828
77452SOL     OW34252   6.305   4.691  11.943
77452SOL    HW134253   6.365   4.639  11.889
77452SOL    HW234254   6.360   4.726  12.013
77453SOL     OW34255  13.703   8.099  12.401
77453SOL    HW134256  13.607   8.098  12.411
77453SOL    HW234257  13.717   8.133  12.313
77454SOL     OW34258   9.915  10.742   9.831
77454SOL    HW134259   9.910  10.790   9.748
77454SOL    HW234260   9.985  10.678   9.817
77455SOL     OW34261  12.574  13.749  11.231
77455SOL    HW134262  12.643  13.815  11.232
77455SOL    HW234263  12.494  13.797  11.256
77456SOL     OW34264   2.463  11.036  14.591
77456SOL    HW134265   2.387  10.989  14.626
77456SOL    HW234266   2.446  11.128  14.610
77457SOL     OW34267   0.314  14.201  10.804
77457SOL    HW134268   0.349  14.289  10.820
77457SOL    HW234269   0.267  14.209  10.721
77458SOL     OW34270   9.658   4.800  12.719
77458SOL    HW134271   9.744   4.806  12.760
77458SOL    HW234272   9.612   4.878  12.750
77459SOL     OW34273   4.051  10.134   7.856
77459SOL    HW134274   3.978  10.072   7.846
77459SOL    HW234275   4.116  10.086   7.907
77460SOL     OW34276  13.121  13.528   6.421
77460SOL    HW134277  13.108  13.455   6.481
77460SOL    HW234278  13.200  13.506   6.372
77461SOL     OW34279   7.946   1.669  14.652
77461SOL    HW134280   7.900   1.735  14.704
77461SOL    HW234281   7.943   1.703  14.563
77462SOL     OW34282   3.077   9.173  12.013
77462SOL    HW134283   3.014   9.242  11.992
77462SOL    HW234284   3.047   9.097  11.963
77463SOL     OW34285   1.349   6.348   1.815
77463SOL    HW134286   1.303   6.317   1.737
77463SOL    HW234287   1.290   6.412   1.855
77464SOL     OW34288   0.772   9.680   0.046
77464SOL    HW134289   0.781   9.749   0.111
77464SOL    HW234290   0.861   9.647   0.034
77465SOL     OW34291   9.439  11.919   5.076
77465SOL    HW134292   9.358  11.969   5.088
77465SOL    HW234293   9.417  11.831   5.104
77466SOL     OW34294  10.909  14.852   8.726
77466SOL    HW134295  11.001   0.009   8.726
77466SOL    HW234296  10.867   0.042   8.789
77467SOL     OW34297   8.638   0.037   7.368
77467SOL    HW134298   8.648   0.014   7.460
77467SOL    HW234299   8.694   0.113   7.356
77468SOL     OW34300  10.778   5.503   8.497
77468SOL    HW134301  10.814   5.524   8.584
77468SOL    HW234302  10.794   5.582   8.446
77469SOL     OW34303  10.536   0.482   1.155
77469SOL    HW134304  10.481   0.435   1.218
77469SOL    HW234305  10.478   0.549   1.118
77470SOL     OW34306   3.695  11.061   0.291
77470SOL    HW134307   3.617  11.110   0.317
77470SOL    HW234308   3.762  11.129   0.277
77471SOL     OW34309  12.578   4.148  13.645
77471SOL    HW134310  12.523   4.074  13.672
77471SOL    HW234311  12.643   4.109  13.587
77472SOL     OW34312   8.687   9.394  10.649
77472SOL    HW134313   8.602   9.404  10.692
77472SOL    HW234314   8.727   9.318  10.692
77473SOL     OW34315   1.445   4.590  11.014
77473SOL    HW134316   1.418   4.505  10.979
77473SOL    HW234317   1.369   4.646  11.004
77474SOL     OW34318   4.944   2.241   9.927
77474SOL    HW134319   4.860   2.283   9.908
77474SOL    HW234320   4.959   2.259  10.020
77475SOL     OW34321   9.251  12.387  11.305
77475SOL    HW134322   9.300  12.467  11.323
77475SOL    HW234323   9.306  12.317  11.341
77476SOL     OW34324   5.610   3.708   9.841
77476SOL    HW134325   5.532   3.754   9.872
77476SOL    HW234326   5.654   3.772   9.784
77477SOL     OW34327   7.275   2.425   1.282
77477SOL    HW134328   7.354   2.479   1.279
77477SOL    HW234329   7.206   2.482   1.250
77478SOL     OW34330   7.539   7.283  12.410
77478SOL    HW134331   7.455   7.239  12.411
77478SOL    HW234332   7.580   7.260  12.493
77479SOL     OW34333   7.060   8.301   4.033
77479SOL    HW134334   6.973   8.309   3.994
77479SOL    HW234335   7.106   8.239   3.976
77480SOL     OW34336   9.452   1.148  10.213
77480SOL    HW134337   9.476   1.067  10.169
77480SOL    HW234338   9.399   1.119  10.288
77481SOL     OW34339   3.612  11.407   4.207
77481SOL    HW134340   3.564  11.485   4.234
77481SOL    HW234341   3.644  11.428   4.119
77482SOL     OW34342   8.459  14.484  14.562
77482SOL    HW134343   8.383  14.459  14.509
77482SOL    HW234344   8.424  14.496  14.650
77483SOL     OW34345   2.723   3.805  14.676
77483SOL    HW134346   2.699   3.732  14.619
77483SOL    HW234347   2.648   3.814  14.736
77484SOL     OW34348   6.487  10.848   2.859
77484SOL    HW134349   6.533  10.771   2.827
77484SOL    HW234350   6.488  10.909   2.785
77485SOL     OW34351  12.446   3.310  12.206
77485SOL    HW134352  12.455   3.402  12.229
77485SOL    HW234353  12.513   3.265  12.258
77486SOL     OW34354  11.649  13.324   7.789
77486SOL    HW134355  11.569  13.273   7.802
77486SOL    HW234356  11.705  13.301   7.864
77487SOL     OW34357   8.454   2.211   7.602
77487SOL    HW134358   8.435   2.204   7.508
77487SOL    HW234359   8.548   2.194   7.608
77488SOL     OW34360   1.970   2.899   1.935
77488SOL    HW134361   1.946   2.826   1.991
77488SOL    HW234362   1.902   2.900   1.867
77489SOL     OW34363   4.985   5.696  11.814
77489SOL    HW134364   5.048   5.685  11.885
77489SOL    HW234365   4.978   5.791  11.801
77490SOL     OW34366   3.444   1.405   7.309
77490SOL    HW134367   3.436   1.494   7.275
77490SOL    HW234368   3.538   1.391   7.319
77491SOL     OW34369   5.619  13.861  12.880
77491SOL    HW134370   5.699  13.817  12.908
77491SOL    HW234371   5.640  13.954  12.884
77492SOL     OW34372   4.334   1.545   0.791
77492SOL    HW134373   4.303   1.623   0.837
77492SOL    HW234374   4.295   1.472   0.839
77493SOL     OW34375   9.194   7.453   3.850
77493SOL    HW134376   9.264   7.397   3.882
77493SOL    HW234377   9.156   7.405   3.776
77494SOL     OW34378  11.547   5.177   7.674
77494SOL    HW134379  11.614   5.131   7.624
77494SOL    HW234380  11.583   5.264   7.690
77495SOL     OW34381  14.406  13.581   6.684
77495SOL    HW134382  14.435  13.640   6.614
77495SOL    HW234383  14.482  13.527   6.702
77496SOL     OW34384  10.283   3.405   3.060
77496SOL    HW134385  10.378   3.407   3.048
77496SOL    HW234386  10.270   3.350   3.137
77497SOL     OW34387   1.362   0.947   3.218
77497SOL    HW134388   1.369   0.956   3.313
77497SOL    HW234389   1.314   1.025   3.190
77498SOL     OW34390  12.640  12.461   8.301
77498SOL    HW134391  12.594  12.519   8.361
77498SOL    HW234392  12.646  12.510   8.220
77499SOL     OW34393   6.267   5.350  14.419
77499SOL    HW134394   6.230   5.266  14.444
77499SOL    HW234395   6.327   5.372  14.491
77500SOL     OW34396   3.860  11.836   5.440
77500SOL    HW134397   3.778  11.819   5.487
77500SOL    HW234398   3.841  11.812   5.349
77501SOL     OW34399  14.425   5.989   0.085
77501SOL    HW134400  14.518   6.015   0.086
77501SOL    HW234401  14.427   5.894   0.077
77502SOL     OW34402  10.054  12.477  12.936
77502SOL    HW134403  10.056  12.486  12.841
77502SOL    HW234404   9.969  12.513  12.962
77503SOL     OW34405   2.610   3.356   3.784
77503SOL    HW134406   2.618   3.283   3.846
77503SOL    HW234407   2.570   3.426   3.834
77504SOL     OW34408  11.197   9.496   0.966
77504SOL    HW134409  11.136   9.482   0.893
77504SOL    HW234410  11.283   9.476   0.929
77505SOL     OW34411  11.118   1.218   2.525
77505SOL    HW134412  11.101   1.302   2.484
77505SOL    HW234413  11.038   1.168   2.512
77506SOL     OW34414   9.314   0.608  12.927
77506SOL    HW134415   9.395   0.558  12.912
77506SOL    HW234416   9.331   0.693  12.885
77507SOL     OW34417   1.159   8.899   7.235
77507SOL    HW134418   1.180   8.920   7.326
77507SOL    HW234419   1.176   8.805   7.227
77508SOL     OW34420   3.279   8.587   0.912
77508SOL    HW134421   3.230   8.628   0.840
77508SOL    HW234422   3.333   8.658   0.947
77509SOL     OW34423   6.845   4.612  10.064
77509SOL    HW134424   6.863   4.529  10.020
77509SOL    HW234425   6.806   4.667   9.996
77510SOL     OW34426   0.310  13.649   9.808
77510SOL    HW134427   0.301  13.678   9.899
77510SOL    HW234428   0.404  13.640   9.795
77511SOL     OW34429   1.570   7.506   6.081
77511SOL    HW134430   1.659   7.501   6.046
77511SOL    HW234431   1.560   7.597   6.109
77512SOL     OW34432   8.798   8.675  11.162
77512SOL    HW134433   8.745   8.626  11.225
77512SOL    HW234434   8.776   8.766  11.179
77513SOL     OW34435   7.171   0.554   2.789
77513SOL    HW134436   7.159   0.641   2.751
77513SOL    HW234437   7.222   0.568   2.869
77514SOL     OW34438   0.792   0.445   1.967
77514SOL    HW134439   0.850   0.515   1.994
77514SOL    HW234440   0.705   0.484   1.968
77515SOL     OW34441   9.836   8.871  14.163
77515SOL    HW134442   9.882   8.916  14.092
77515SOL    HW234443   9.773   8.814  14.119
77516SOL     OW34444   1.038   2.484  11.197
77516SOL    HW134445   1.001   2.515  11.280
77516SOL    HW234446   0.996   2.539  11.130
77517SOL     OW34447   1.831   8.738   4.636
77517SOL    HW134448   1.902   8.688   4.595
77517SOL    HW234449   1.751   8.693   4.607
77518SOL     OW34450   1.739  14.436  10.080
77518SOL    HW134451   1.736  14.529  10.100
77518SOL    HW234452   1.827  14.422  10.044
77519SOL     OW34453   7.870   4.599  14.716
77519SOL    HW134454   7.807   4.527  14.722
77519SOL    HW234455   7.897   4.614  14.807
77520SOL     OW34456  13.941  14.237  10.452
77520SOL    HW134457  13.851  14.204  10.448
77520SOL    HW234458  13.990  14.181  10.393
77521SOL     OW34459  14.239   6.105   8.633
77521SOL    HW134460  14.151   6.094   8.597
77521SOL    HW234461  14.226   6.112   8.727
77522SOL     OW34462   8.597  13.559   9.732
77522SOL    HW134463   8.522  13.529   9.679
77522SOL    HW234464   8.583  13.517   9.817
77523SOL     OW34465   3.032  14.331   5.350
77523SOL    HW134466   3.005  14.246   5.384
77523SOL    HW234467   2.994  14.336   5.263
77524SOL     OW34468   2.952  11.132  14.761
77524SOL    HW134469   3.016  11.114  14.692
77524SOL    HW234470   2.876  11.167  14.715
77525SOL     OW34471   6.744  13.847  12.848
77525SOL    HW134472   6.793  13.882  12.923
77525SOL    HW234473   6.678  13.790  12.888
77526SOL     OW34474  13.182   9.969  11.046
77526SOL    HW134475  13.095   9.947  11.012
77526SOL    HW234476  13.200   9.900  11.110
77527SOL     OW34477  12.333   1.615  14.376
77527SOL    HW134478  12.240   1.621  14.354
77527SOL    HW234479  12.369   1.700  14.349
77528SOL     OW34480   8.149   8.213  13.969
77528SOL    HW134481   8.205   8.215  13.892
77528SOL    HW234482   8.071   8.262  13.944
77529SOL     OW34483   6.928   6.180  14.106
77529SOL    HW134484   6.887   6.209  14.025
77529SOL    HW234485   7.019   6.208  14.098
77530SOL     OW34486   3.823   6.831  14.354
77530SOL    HW134487   3.893   6.767  14.368
77530SOL    HW234488   3.822   6.883  14.434
77531SOL     OW34489  11.196   8.729   7.769
77531SOL    HW134490  11.278   8.709   7.724
77531SOL    HW234491  11.133   8.743   7.699
77532SOL     OW34492   9.148   8.383  10.486
77532SOL    HW134493   9.117   8.382  10.577
77532SOL    HW234494   9.231   8.336  10.489
77533SOL     OW34495   9.808   9.576   6.963
77533SOL    HW134496   9.867   9.624   6.906
77533SOL    HW234497   9.765   9.512   6.906
77534SOL     OW34498   6.352   9.453   2.599
77534SOL    HW134499   6.276   9.443   2.542
77534SOL    HW234500   6.368   9.547   2.601
77535SOL     OW34501  11.866   3.118   6.872
77535SOL    HW134502  11.796   3.174   6.838
77535SOL    HW234503  11.860   3.038   6.820
77536SOL     OW34504   1.713  12.302   4.243
77536SOL    HW134505   1.802  12.310   4.276
77536SOL    HW234506   1.712  12.356   4.163
77537SOL     OW34507   3.155   9.362   8.917
77537SOL    HW134508   3.192   9.449   8.934
77537SOL    HW234509   3.061   9.373   8.934
77538SOL     OW34510   1.450   4.836   2.812
77538SOL    HW134511   1.460   4.802   2.901
77538SOL    HW234512   1.468   4.930   2.820
77539SOL     OW34513   6.986   5.215  10.591
77539SOL    HW134514   7.056   5.216  10.527
77539SOL    HW234515   7.029   5.240  10.674
77540SOL     OW34516   7.057   7.617  10.433
77540SOL    HW134517   7.001   7.692  10.451
77540SOL    HW234518   6.997   7.542  10.431
77541SOL     OW34519   6.428   7.733   0.791
77541SOL    HW134520   6.433   7.828   0.804
77541SOL    HW234521   6.366   7.721   0.719
77542SOL     OW34522   5.484   3.868   7.279
77542SOL    HW134523   5.502   3.952   7.238
77542SOL    HW234524   5.390   3.856   7.269
77543SOL     OW34525  14.543  13.901  13.235
77543SOL    HW134526  14.464  13.953  13.222
77543SOL    HW234527  14.580  13.890  13.148
77544SOL     OW34528   0.543  12.251  12.000
77544SOL    HW134529   0.546  12.158  12.025
77544SOL    HW234530   0.634  12.275  11.986
77545SOL     OW34531  10.209   4.914   2.237
77545SOL    HW134532  10.190   4.821   2.249
77545SOL    HW234533  10.130   4.951   2.199
77546SOL     OW34534   7.718   1.810  10.020
77546SOL    HW134535   7.751   1.888  10.065
77546SOL    HW234536   7.666   1.843   9.947
77547SOL     OW34537   1.085  13.644  12.847
77547SOL    HW134538   1.044  13.637  12.933
77547SOL    HW234539   1.126  13.558  12.833
77548SOL     OW34540   8.713  10.968  14.078
77548SOL    HW134541   8.755  10.919  14.149
77548SOL    HW234542   8.757  10.937  13.999
77549SOL     OW34543   5.872   5.658   9.114
77549SOL    HW134544   5.841   5.567   9.116
77549SOL    HW234545   5.793   5.711   9.120
77550SOL     OW34546  14.244   8.670   7.295
77550SOL    HW134547  14.305   8.697   7.364
77550SOL    HW234548  14.278   8.585   7.266
77551SOL     OW34549   4.398   2.451   6.226
77551SOL    HW134550   4.323   2.394   6.244
77551SOL    HW234551   4.359   2.537   6.210
77552SOL     OW34552  13.710  12.738   0.200
77552SOL    HW134553  13.751  12.758   0.284
77552SOL    HW234554  13.733  12.647   0.183
77553SOL     OW34555   0.286   6.266   6.768
77553SOL    HW134556   0.286   6.289   6.675
77553SOL    HW234557   0.289   6.350   6.814
77554SOL     OW34558  11.541   3.246   5.330
77554SOL    HW134559  11.624   3.256   5.377
77554SOL    HW234560  11.557   3.174   5.269
77555SOL     OW34561   1.642   4.189   2.315
77555SOL    HW134562   1.686   4.127   2.257
77555SOL    HW234563   1.550   4.167   2.308
77556SOL     OW34564   5.747  13.216   7.685
77556SOL    HW134565   5.804  13.186   7.756
77556SOL    HW234566   5.676  13.152   7.681
77557SOL     OW34567  12.197   1.434   4.208
77557SOL    HW134568  12.267   1.377   4.241
77557SOL    HW234569  12.118   1.403   4.252
77558SOL     OW34570   1.051   5.782   4.203
77558SOL    HW134571   1.113   5.836   4.252
77558SOL    HW234572   1.068   5.803   4.111
77559SOL     OW34573   0.936   5.669   3.387
77559SOL    HW134574   0.980   5.698   3.467
77559SOL    HW234575   1.000   5.685   3.318
77560SOL     OW34576   1.848  11.822  10.717
77560SOL    HW134577   1.902  11.755  10.758
77560SOL    HW234578   1.813  11.781  10.638
77561SOL     OW34579   3.860  14.639  11.721
77561SOL    HW134580   3.879  14.555  11.677
77561SOL    HW234581   3.886  14.625  11.812
77562SOL     OW34582   5.399   4.343   9.772
77562SOL    HW134583   5.453   4.374   9.699
77562SOL    HW234584   5.458   4.343   9.847
77563SOL     OW34585   1.897   5.054  11.463
77563SOL    HW134586   1.814   5.053  11.416
77563SOL    HW234587   1.950   5.121  11.419
77564SOL     OW34588  10.728   4.618   6.444
77564SOL    HW134589  10.674   4.557   6.394
77564SOL    HW234590  10.798   4.564   6.480
77565SOL     OW34591   2.762  13.648   0.587
77565SOL    HW134592   2.802  13.574   0.541
77565SOL    HW234593   2.836  13.703   0.612
77566SOL     OW34594   9.136   1.477   0.962
77566SOL    HW134595   9.120   1.413   0.893
77566SOL    HW234596   9.092   1.441   1.039
77567SOL     OW34597   5.000   4.613  11.105
77567SOL    HW134598   5.018   4.606  11.199
77567SOL    HW234599   4.921   4.666  11.099
77568SOL     OW34600   0.345   0.434  13.211
77568SOL    HW134601   0.328   0.527  13.199
77568SOL    HW234602   0.339   0.396  13.124
77569SOL     OW34603   4.688  11.485   8.885
77569SOL    HW134604   4.619  11.505   8.949
77569SOL    HW234605   4.641  11.469   8.803
77570SOL     OW34606   4.851   1.500   8.009
77570SOL    HW134607   4.782   1.477   7.947
77570SOL    HW234608   4.907   1.422   8.011
77571SOL     OW34609   1.779  12.498  14.623
77571SOL    HW134610   1.839  12.548  14.568
77571SOL    HW234611   1.747  12.428  14.566
77572SOL     OW34612   5.533   4.524  10.766
77572SOL    HW134613   5.439   4.530  10.782
77572SOL    HW234614   5.550   4.587  10.696
77573SOL     OW34615   3.598   5.163  14.286
77573SOL    HW134616   3.564   5.132  14.202
77573SOL    HW234617   3.560   5.103  14.351
77574SOL     OW34618   2.078   4.659   8.965
77574SOL    HW134619   2.141   4.650   8.894
77574SOL    HW234620   2.012   4.719   8.931
77575SOL     OW34621  10.050  13.822  11.415
77575SOL    HW134622  10.112  13.808  11.344
77575SOL    HW234623   9.974  13.861  11.373
77576SOL     OW34624   5.392   4.191   1.752
77576SOL    HW134625   5.356   4.103   1.758
77576SOL    HW234626   5.477   4.180   1.709
77577SOL     OW34627   6.329  12.656   5.509
77577SOL    HW134628   6.303  12.673   5.419
77577SOL    HW234629   6.424  12.646   5.505
77578SOL     OW34630   8.155  13.593  14.599
77578SOL    HW134631   8.114  13.652  14.536
77578SOL    HW234632   8.244  13.627  14.609
77579SOL     OW34633   6.842   8.990   5.458
77579SOL    HW134634   6.895   9.069   5.465
77579SOL    HW234635   6.858   8.943   5.539
77580SOL     OW34636   2.731   4.056   3.763
77580SOL    HW134637   2.719   3.973   3.715
77580SOL    HW234638   2.704   4.123   3.701
77581SOL     OW34639   7.783   3.404  14.068
77581SOL    HW134640   7.841   3.441  14.134
77581SOL    HW234641   7.701   3.452  14.076
77582SOL     OW34642   8.166   6.645   4.597
77582SOL    HW134643   8.144   6.566   4.548
77582SOL    HW234644   8.102   6.710   4.569
77583SOL     OW34645   9.088   9.723   5.916
77583SOL    HW134646   9.090   9.809   5.957
77583SOL    HW234647   8.999   9.713   5.884
77584SOL     OW34648  11.212   4.251   1.397
77584SOL    HW134649  11.263   4.330   1.413
77584SOL    HW234650  11.264   4.201   1.334
77585SOL     OW34651   1.988  14.546  10.896
77585SOL    HW134652   1.945  14.591  10.969
77585SOL    HW234653   2.080  14.573  10.902
77586SOL     OW34654   2.376   9.199  13.016
77586SOL    HW134655   2.459   9.184  13.062
77586SOL    HW234656   2.314   9.141  13.060
77587SOL     OW34657   1.320   8.129   1.230
77587SOL    HW134658   1.298   8.213   1.189
77587SOL    HW234659   1.244   8.073   1.214
77588SOL     OW34660   7.440   6.036   6.846
77588SOL    HW134661   7.438   6.007   6.755
77588SOL    HW234662   7.427   6.131   6.842
77589SOL     OW34663   6.616   4.587  12.276
77589SOL    HW134664   6.680   4.564  12.209
77589SOL    HW234665   6.546   4.522  12.266
77590SOL     OW34666  13.629  14.719   0.355
77590SOL    HW134667  13.631  14.746   0.263
77590SOL    HW234668  13.601  14.797   0.402
77591SOL     OW34669   3.029   8.191   8.564
77591SOL    HW134670   3.046   8.133   8.638
77591SOL    HW234671   2.999   8.272   8.604
77592SOL     OW34672  14.657  12.236   5.638
77592SOL    HW134673  14.701  12.198   5.562
77592SOL    HW234674  14.566  12.248   5.610
77593SOL     OW34675   1.679   6.922   5.141
77593SOL    HW134676   1.729   6.854   5.097
77593SOL    HW234677   1.595   6.924   5.095
77594SOL     OW34678  12.684   6.739   9.049
77594SOL    HW134679  12.671   6.697   8.964
77594SOL    HW234680  12.778   6.755   9.054
77595SOL     OW34681   5.867   4.029   0.938
77595SOL    HW134682   5.810   3.953   0.953
77595SOL    HW234683   5.952   3.991   0.916
77596SOL     OW34684   4.912   3.181   1.023
77596SOL    HW134685   4.910   3.276   1.009
77596SOL    HW234686   4.953   3.171   1.109
77597SOL     OW34687  13.025   9.153   7.480
77597SOL    HW134688  13.112   9.141   7.518
77597SOL    HW234689  13.030   9.236   7.434
77598SOL     OW34690  13.491   4.578  11.996
77598SOL    HW134691  13.440   4.501  12.023
77598SOL    HW234692  13.437   4.620  11.929
77599SOL     OW34693   3.697   9.371   3.303
77599SOL    HW134694   3.755   9.303   3.270
77599SOL    HW234695   3.613   9.327   3.315
77600SOL     OW34696   9.516  10.410   3.560
77600SOL    HW134697   9.504  10.322   3.526
77600SOL    HW234698   9.478  10.468   3.493
77601SOL     OW34699   9.975  14.092  12.591
77601SOL    HW134700  10.046  14.036  12.624
77601SOL    HW234701  10.009  14.181  12.600
77602SOL     OW34702  11.817   7.960  12.207
77602SOL    HW134703  11.780   7.964  12.119
77602SOL    HW234704  11.899   7.911  12.197
77603SOL     OW34705   9.442   3.579   9.856
77603SOL    HW134706   9.414   3.664   9.823
77603SOL    HW234707   9.368   3.547   9.906
77604SOL     OW34708   6.421  11.915   0.407
77604SOL    HW134709   6.387  11.970   0.478
77604SOL    HW234710   6.448  11.834   0.451
77605SOL     OW34711   8.992  13.118   2.403
77605SOL    HW134712   8.955  13.203   2.381
77605SOL    HW234713   8.946  13.091   2.482
77606SOL     OW34714   9.861  10.082   7.581
77606SOL    HW134715   9.857  10.012   7.515
77606SOL    HW234716   9.936  10.135   7.554
77607SOL     OW34717   4.878   1.574   2.444
77607SOL    HW134718   4.789   1.596   2.471
77607SOL    HW234719   4.927   1.565   2.526
77608SOL     OW34720  13.262   5.158   9.265
77608SOL    HW134721  13.331   5.190   9.324
77608SOL    HW234722  13.210   5.098   9.320
77609SOL     OW34723   4.214   9.267  14.554
77609SOL    HW134724   4.273   9.208  14.508
77609SOL    HW234725   4.270   9.312  14.617
77610SOL     OW34726  10.879   5.800   2.809
77610SOL    HW134727  10.876   5.894   2.830
77610SOL    HW234728  10.883   5.796   2.714
77611SOL     OW34729   3.389   1.826   4.957
77611SOL    HW134730   3.414   1.748   5.006
77611SOL    HW234731   3.372   1.795   4.868
77612SOL     OW34732  13.468   2.661   0.284
77612SOL    HW134733  13.412   2.601   0.334
77612SOL    HW234734  13.457   2.633   0.193
77613SOL     OW34735  13.508  13.806  11.246
77613SOL    HW134736  13.457  13.795  11.326
77613SOL    HW234737  13.524  13.717  11.215
77614SOL     OW34738   1.962   5.982   2.604
77614SOL    HW134739   1.882   5.931   2.610
77614SOL    HW234740   1.932   6.073   2.596
77615SOL     OW34741  11.894   1.153   6.633
77615SOL    HW134742  11.926   1.164   6.722
77615SOL    HW234743  11.971   1.121   6.584
77616SOL     OW34744  10.628  10.177   7.364
77616SOL    HW134745  10.636  10.108   7.298
77616SOL    HW234746  10.650  10.133   7.447
77617SOL     OW34747  11.605   8.056   3.526
77617SOL    HW134748  11.674   8.001   3.489
77617SOL    HW234749  11.553   7.996   3.579
77618SOL     OW34750   4.675   2.376   8.038
77618SOL    HW134751   4.642   2.339   7.956
77618SOL    HW234752   4.714   2.302   8.084
77619SOL     OW34753   9.734  11.296   0.924
77619SOL    HW134754   9.704  11.253   1.004
77619SOL    HW234755   9.663  11.355   0.900
77620SOL     OW34756   4.459   3.164   5.139
77620SOL    HW134757   4.452   3.083   5.088
77620SOL    HW234758   4.403   3.227   5.093
77621SOL     OW34759   2.653   9.022   2.523
77621SOL    HW134760   2.738   8.978   2.524
77621SOL    HW234761   2.594   8.961   2.569
77622SOL     OW34762   4.374  12.027   1.995
77622SOL    HW134763   4.445  12.089   1.979
77622SOL    HW234764   4.381  11.964   1.923
77623SOL     OW34765   8.436  14.465  12.920
77623SOL    HW134766   8.365  14.459  12.984
77623SOL    HW234767   8.439  14.378  12.879
77624SOL     OW34768   8.885  11.140   3.677
77624SOL    HW134769   8.882  11.201   3.751
77624SOL    HW234770   8.832  11.181   3.609
77625SOL     OW34771   6.625   3.837   7.496
77625SOL    HW134772   6.556   3.781   7.532
77625SOL    HW234773   6.580   3.918   7.472
77626SOL     OW34774   1.785  13.215   1.238
77626SOL    HW134775   1.827  13.137   1.274
77626SOL    HW234776   1.857  13.270   1.207
77627SOL     OW34777  10.438   5.909  11.159
77627SOL    HW134778  10.343   5.916  11.168
77627SOL    HW234779  10.467   5.864  11.238
77628SOL     OW34780  10.180   4.667   4.278
77628SOL    HW134781  10.167   4.733   4.346
77628SOL    HW234782  10.102   4.674   4.222
77629SOL     OW34783   7.829   1.281   9.569
77629SOL    HW134784   7.792   1.359   9.612
77629SOL    HW234785   7.900   1.254   9.627
77630SOL     OW34786   4.634   3.667  12.261
77630SOL    HW134787   4.575   3.739  12.285
77630SOL    HW234788   4.720   3.697  12.291
77631SOL     OW34789  10.704  12.026   0.904
77631SOL    HW134790  10.776  12.058   0.958
77631SOL    HW234791  10.682  12.099   0.846
77632SOL     OW34792   2.083   2.006   1.936
77632SOL    HW134793   2.043   2.065   1.872
77632SOL    HW234794   2.093   2.059   2.015
77633SOL     OW34795   4.665   4.593   0.852
77633SOL    HW134796   4.745   4.562   0.809
77633SOL    HW234797   4.621   4.513   0.881
77634SOL     OW34798  14.063   5.397   3.294
77634SOL    HW134799  14.082   5.339   3.368
77634SOL    HW234800  14.061   5.338   3.218
77635SOL     OW34801   5.023   8.647   7.973
77635SOL    HW134802   5.047   8.730   7.932
77635SOL    HW234803   5.096   8.626   8.030
77636SOL     OW34804  14.001  11.447   3.005
77636SOL    HW134805  14.050  11.529   2.997
77636SOL    HW234806  13.999  11.412   2.916
77637SOL     OW34807   5.308   5.898   1.041
77637SOL    HW134808   5.241   5.854   1.093
77637SOL    HW234809   5.291   5.871   0.951
77638SOL     OW34810   9.079  10.767   0.726
77638SOL    HW134811   9.143  10.732   0.788
77638SOL    HW234812   9.132  10.804   0.655
77639SOL     OW34813  10.078   0.805   9.220
77639SOL    HW134814  10.024   0.762   9.287
77639SOL    HW234815  10.110   0.884   9.263
77640SOL     OW34816   2.699   0.294  12.531
77640SOL    HW134817   2.654   0.311  12.449
77640SOL    HW234818   2.732   0.379  12.559
77641SOL     OW34819   3.776   1.051   5.804
77641SOL    HW134820   3.781   0.984   5.872
77641SOL    HW234821   3.729   1.010   5.732
77642SOL     OW34822   9.370   1.698   1.853
77642SOL    HW134823   9.445   1.657   1.809
77642SOL    HW234824   9.372   1.789   1.824
77643SOL     OW34825  13.959   1.033   8.151
77643SOL    HW134826  13.897   0.977   8.198
77643SOL    HW234827  13.914   1.117   8.143
77644SOL     OW34828  14.592  11.630   2.769
77644SOL    HW134829  14.552  11.648   2.854
77644SOL    HW234830  14.597  11.715   2.725
77645SOL     OW34831   1.369   1.573   0.501
77645SOL    HW134832   1.379   1.502   0.565
77645SOL    HW234833   1.411   1.648   0.542
77646SOL     OW34834  11.220   5.398   2.150
77646SOL    HW134835  11.205   5.366   2.239
77646SOL    HW234836  11.203   5.492   2.155
77647SOL     OW34837  14.844   5.785  12.449
77647SOL    HW134838   0.059   5.802  12.409
77647SOL    HW234839  14.790   5.859  12.422
77648SOL     OW34840  13.274   1.254   1.547
77648SOL    HW134841  13.321   1.183   1.591
77648SOL    HW234842  13.204   1.277   1.608
77649SOL     OW34843  10.368   9.422   7.613
77649SOL    HW134844  10.404   9.373   7.539
77649SOL    HW234845  10.442   9.434   7.672
77650SOL     OW34846  13.496   1.611   1.403
77650SOL    HW134847  13.566   1.675   1.385
77650SOL    HW234848  13.463   1.635   1.489
77651SOL     OW34849   1.209   3.215  10.546
77651SOL    HW134850   1.216   3.304  10.580
77651SOL    HW234851   1.122   3.211  10.506
77652SOL     OW34852  11.855   9.959   3.857
77652SOL    HW134853  11.932   9.904   3.844
77652SOL    HW234854  11.823   9.976   3.768
77653SOL     OW34855  14.123  10.634   1.844
77653SOL    HW134856  14.051  10.694   1.823
77653SOL    HW234857  14.175  10.632   1.764
77654SOL     OW34858  11.268   7.130   7.111
77654SOL    HW134859  11.225   7.178   7.039
77654SOL    HW234860  11.353   7.105   7.075
77655SOL     OW34861   7.919   2.956   7.546
77655SOL    HW134862   7.910   3.034   7.490
77655SOL    HW234863   7.991   2.978   7.605
77656SOL     OW34864  14.867   8.254  11.560
77656SOL    HW134865   0.053   8.331  11.553
77656SOL    HW234866   0.026   8.210  11.640
77657SOL     OW34867   6.056   3.694  14.608
77657SOL    HW134868   5.968   3.705  14.572
77657SOL    HW234869   6.113   3.742  14.548
77658SOL     OW34870   7.717  11.986  12.709
77658SOL    HW134871   7.666  11.908  12.730
77658SOL    HW234872   7.655  12.058  12.714
77659SOL     OW34873  12.628   7.969   1.852
77659SOL    HW134874  12.620   7.893   1.910
77659SOL    HW234875  12.719   7.966   1.821
77660SOL     OW34876   6.183   0.523   7.560
77660SOL    HW134877   6.255   0.574   7.524
77660SOL    HW234878   6.107   0.581   7.555
77661SOL     OW34879   0.610  13.484   9.547
77661SOL    HW134880   0.690  13.502   9.596
77661SOL    HW234881   0.546  13.545   9.583
77662SOL     OW34882  14.322   7.905  10.200
77662SOL    HW134883  14.243   7.856  10.225
77662SOL    HW234884  14.315   7.913  10.104
77663SOL     OW34885   6.997   0.802   0.841
77663SOL    HW134886   7.016   0.840   0.927
77663SOL    HW234887   6.999   0.707   0.856
77664SOL     OW34888   5.910   5.268   2.386
77664SOL    HW134889   5.933   5.360   2.399
77664SOL    HW234890   5.978   5.220   2.433
77665SOL     OW34891   8.877   3.750  10.620
77665SOL    HW134892   8.960   3.774  10.578
77665SOL    HW234893   8.880   3.793  10.705
77666SOL     OW34894   0.942  11.832   1.510
77666SOL    HW134895   0.943  11.926   1.492
77666SOL    HW234896   0.868  11.798   1.458
77667SOL     OW34897   1.015   9.265  14.672
77667SOL    HW134898   1.002   9.172  14.652
77667SOL    HW234899   0.985   9.274  14.763
77668SOL     OW34900   8.084   8.278   9.293
77668SOL    HW134901   8.152   8.222   9.332
77668SOL    HW234902   8.061   8.234   9.211
77669SOL     OW34903  14.870   5.312   5.618
77669SOL    HW134904   0.074   5.343   5.669
77669SOL    HW234905   0.029   5.228   5.583
77670SOL     OW34906  11.775   5.494  10.720
77670SOL    HW134907  11.699   5.548  10.699
77670SOL    HW234908  11.795   5.448  10.639
77671SOL     OW34909  10.143  10.980   8.815
77671SOL    HW134910  10.176  11.014   8.898
77671SOL    HW234911  10.098  11.054   8.775
77672SOL     OW34912   5.243   3.454   2.506
77672SOL    HW134913   5.255   3.362   2.530
77672SOL    HW234914   5.262   3.503   2.586
77673SOL     OW34915  12.880   9.158   4.239
77673SOL    HW134916  12.843   9.227   4.294
77673SOL    HW234917  12.972   9.181   4.230
77674SOL     OW34918  11.028   9.251   9.184
77674SOL    HW134919  10.986   9.335   9.165
77674SOL    HW234920  11.048   9.255   9.277
77675SOL     OW34921   3.340  14.764   0.966
77675SOL    HW134922   3.356  14.757   0.872
77675SOL    HW234923   3.422  14.737   1.007
77676SOL     OW34924   4.277   5.399   2.366
77676SOL    HW134925   4.341   5.334   2.397
77676SOL    HW234926   4.199   5.382   2.418
77677SOL     OW34927   8.477   0.155   8.204
77677SOL    HW134928   8.570   0.175   8.196
77677SOL    HW234929   8.469   0.110   8.288
77678SOL     OW34930   1.247   0.321   8.014
77678SOL    HW134931   1.299   0.320   8.094
77678SOL    HW234932   1.255   0.232   7.979
77679SOL     OW34933  12.239   5.427   8.060
77679SOL    HW134934  12.221   5.344   8.015
77679SOL    HW234935  12.183   5.425   8.137
77680SOL     OW34936   1.727   0.467   2.246
77680SOL    HW134937   1.747   0.504   2.160
77680SOL    HW234938   1.790   0.395   2.255
77681SOL     OW34939   7.717   8.398   0.655
77681SOL    HW134940   7.761   8.375   0.737
77681SOL    HW234941   7.705   8.314   0.611
77682SOL     OW34942  13.805  14.306   9.070
77682SOL    HW134943  13.744  14.273   9.003
77682SOL    HW234944  13.847  14.381   9.030
77683SOL     OW34945  10.039  12.814   4.558
77683SOL    HW134946  10.035  12.740   4.497
77683SOL    HW234947  10.111  12.792   4.617
77684SOL     OW34948  13.416  10.092   0.208
77684SOL    HW134949  13.413  10.169   0.151
77684SOL    HW234950  13.509  10.081   0.228
77685SOL     OW34951   5.746   7.896   4.065
77685SOL    HW134952   5.780   7.967   4.010
77685SOL    HW234953   5.800   7.820   4.042
77686SOL     OW34954   9.055  13.350   6.536
77686SOL    HW134955   9.005  13.333   6.456
77686SOL    HW234956   9.075  13.263   6.571
77687SOL     OW34957  14.146   0.008   4.980
77687SOL    HW134958  14.099   0.030   5.061
77687SOL    HW234959  14.153   0.092   4.933
77688SOL     OW34960   6.058   7.715   3.505
77688SOL    HW134961   6.009   7.738   3.584
77688SOL    HW234962   6.064   7.619   3.507
77689SOL     OW34963   7.514  11.379  11.054
77689SOL    HW134964   7.554  11.398  10.970
77689SOL    HW234965   7.502  11.284  11.055
77690SOL     OW34966   1.467  14.256  10.499
77690SOL    HW134967   1.478  14.273  10.405
77690SOL    HW234968   1.514  14.174  10.514
77691SOL     OW34969   7.142   7.804  13.805
77691SOL    HW134970   7.193   7.805  13.724
77691SOL    HW234971   7.156   7.890  13.843
77692SOL     OW34972   4.525   1.143  13.888
77692SOL    HW134973   4.568   1.070  13.841
77692SOL    HW234974   4.574   1.151  13.970
77693SOL     OW34975  14.486  12.974  11.204
77693SOL    HW134976  14.488  12.934  11.291
77693SOL    HW234977  14.540  12.917  11.150
77694SOL     OW34978   1.966   4.054   8.126
77694SOL    HW134979   1.905   3.986   8.157
77694SOL    HW234980   2.038   4.052   8.188
77695SOL     OW34981   7.380   9.243   3.360
77695SOL    HW134982   7.454   9.302   3.373
77695SOL    HW234983   7.336   9.240   3.445
77696SOL     OW34984   7.108   6.455   4.511
77696SOL    HW134985   7.113   6.549   4.493
77696SOL    HW234986   7.180   6.438   4.571
77697SOL     OW34987   5.620  14.381   1.309
77697SOL    HW134988   5.646  14.428   1.388
77697SOL    HW234989   5.687  14.314   1.298
77698SOL     OW34990  10.008  12.659  14.631
77698SOL    HW134991   9.972  12.630  14.547
77698SOL    HW234992  10.094  12.617  14.636
77699SOL     OW34993   4.053  10.377   0.972
77699SOL    HW134994   4.103  10.339   0.899
77699SOL    HW234995   4.089  10.465   0.983
77700SOL     OW34996   2.826  13.884   2.748
77700SOL    HW134997   2.887  13.937   2.800
77700SOL    HW234998   2.872  13.802   2.732
77701SOL     OW34999   8.021   3.700   2.368
77701SOL    HW135000   8.007   3.724   2.460
77701SOL    HW235001   7.937   3.714   2.326
77702SOL     OW35002  11.550  10.568   3.780
77702SOL    HW135003  11.608  10.493   3.774
77702SOL    HW235004  11.601  10.636   3.824
77703SOL     OW35005   4.833   5.470   3.330
77703SOL    HW135006   4.861   5.462   3.239
77703SOL    HW235007   4.803   5.383   3.353
77704SOL     OW35008   3.357  13.857  13.133
77704SOL    HW135009   3.314  13.771  13.133
77704SOL    HW235010   3.287  13.919  13.151
77705SOL     OW35011  13.718  10.852   2.909
77705SOL    HW135012  13.682  10.855   2.821
77705SOL    HW235013  13.695  10.937   2.948
77706SOL     OW35014   6.509  14.218   1.883
77706SOL    HW135015   6.492  14.290   1.944
77706SOL    HW235016   6.586  14.174   1.919
77707SOL     OW35017   3.887  11.231   0.185
77707SOL    HW135018   3.875  11.326   0.195
77707SOL    HW235019   3.982  11.220   0.173
77708SOL     OW35020   2.113   6.690   2.304
77708SOL    HW135021   2.029   6.647   2.321
77708SOL    HW235022   2.136   6.662   2.215
77709SOL     OW35023  10.137   5.875  11.284
77709SOL    HW135024  10.145   5.818  11.361
77709SOL    HW235025  10.080   5.825  11.224
77710SOL     OW35026  13.522   2.861  12.874
77710SOL    HW135027  13.548   2.769  12.866
77710SOL    HW235028  13.463   2.862  12.950
77711SOL     OW35029   4.689   6.919   3.379
77711SOL    HW135030   4.775   6.878   3.384
77711SOL    HW235031   4.627   6.846   3.379
77712SOL     OW35032   3.762   2.109  12.843
77712SOL    HW135033   3.712   2.040  12.886
77712SOL    HW235034   3.794   2.069  12.762
77713SOL     OW35035   9.954  11.450   9.355
77713SOL    HW135036  10.039  11.478   9.390
77713SOL    HW235037   9.908  11.414   9.431
77714SOL     OW35038  11.635   6.880   0.979
77714SOL    HW135039  11.676   6.794   0.971
77714SOL    HW235040  11.708   6.938   1.003
77715SOL     OW35041   6.862   3.715   6.092
77715SOL    HW135042   6.901   3.700   6.006
77715SOL    HW235043   6.831   3.805   6.090
77716SOL     OW35044   6.790  10.937   0.831
77716SOL    HW135045   6.827  10.854   0.859
77716SOL    HW235046   6.851  10.970   0.764
77717SOL     OW35047  13.331   1.339   6.204
77717SOL    HW135048  13.373   1.418   6.170
77717SOL    HW235049  13.382   1.267   6.167
77718SOL     OW35050   6.134   1.568   1.070
77718SOL    HW135051   6.199   1.622   1.114
77718SOL    HW235052   6.113   1.616   0.990
77719SOL     OW35053   1.941  10.718   7.673
77719SOL    HW135054   1.871  10.653   7.665
77719SOL    HW235055   1.987  10.714   7.589
77720SOL     OW35056   8.804  14.667   7.693
77720SOL    HW135057   8.852  14.716   7.760
77720SOL    HW235058   8.719  14.648   7.734
77721SOL     OW35059   1.592   4.251   3.008
77721SOL    HW135060   1.662   4.209   2.958
77721SOL    HW235061   1.553   4.181   3.060
77722SOL     OW35062  10.205  12.141   9.218
77722SOL    HW135063  10.204  12.079   9.146
77722SOL    HW235064  10.278  12.200   9.199
77723SOL     OW35065   1.459  13.253   4.036
77723SOL    HW135066   1.420  13.298   4.111
77723SOL    HW235067   1.386  13.237   3.977
77724SOL     OW35068   4.341   0.580  11.754
77724SOL    HW135069   4.250   0.565  11.726
77724SOL    HW235070   4.392   0.578  11.673
77725SOL     OW35071   4.601   6.339   2.308
77725SOL    HW135072   4.682   6.290   2.322
77725SOL    HW235073   4.630   6.423   2.272
77726SOL     OW35074  11.896   2.051   7.370
77726SOL    HW135075  11.975   2.018   7.328
77726SOL    HW235076  11.825   2.001   7.330
77727SOL     OW35077   6.500   9.547   1.149
77727SOL    HW135078   6.489   9.584   1.236
77727SOL    HW235079   6.415   9.508   1.128
77728SOL     OW35080   8.157   8.736  10.678
77728SOL    HW135081   8.247   8.745  10.647
77728SOL    HW235082   8.103   8.758  10.602
77729SOL     OW35083   1.306  14.291   5.900
77729SOL    HW135084   1.262  14.259   5.979
77729SOL    HW235085   1.397  14.263   5.911
77730SOL     OW35086   9.457   4.925   8.000
77730SOL    HW135087   9.547   4.924   7.967
77730SOL    HW235088   9.461   4.875   8.082
77731SOL     OW35089   5.706   2.926   9.871
77731SOL    HW135090   5.769   2.883   9.929
77731SOL    HW235091   5.621   2.911   9.913
77732SOL     OW35092  12.265  11.982   4.362
77732SOL    HW135093  12.179  12.024   4.357
77732SOL    HW235094  12.251  11.905   4.417
77733SOL     OW35095   3.650   2.821  13.116
77733SOL    HW135096   3.617   2.759  13.051
77733SOL    HW235097   3.731   2.856  13.077
77734SOL     OW35098   0.458   5.767   4.284
77734SOL    HW135099   0.530   5.706   4.269
77734SOL    HW235100   0.394   5.747   4.216
77735SOL     OW35101   3.192  14.130   0.817
77735SOL    HW135102   3.226  14.107   0.730
77735SOL    HW235103   3.200  14.225   0.822
77736SOL     OW35104   8.336  10.222  11.175
77736SOL    HW135105   8.280  10.175  11.112
77736SOL    HW235106   8.321  10.176  11.258
77737SOL     OW35107   6.354   9.652  10.053
77737SOL    HW135108   6.425   9.636   9.991
77737SOL    HW235109   6.290   9.703  10.003
77738SOL     OW35110   3.739   6.667   2.585
77738SOL    HW135111   3.781   6.585   2.613
77738SOL    HW235112   3.730   6.718   2.665
77739SOL     OW35113   9.442   1.833   4.397
77739SOL    HW135114   9.440   1.899   4.328
77739SOL    HW235115   9.485   1.877   4.471
77740SOL     OW35116   2.575   4.472  10.581
77740SOL    HW135117   2.517   4.534  10.537
77740SOL    HW235118   2.561   4.390  10.535
77741SOL     OW35119  12.655   0.498   6.585
77741SOL    HW135120  12.746   0.504   6.614
77741SOL    HW235121  12.641   0.405   6.567
77742SOL     OW35122  12.792   8.233  10.761
77742SOL    HW135123  12.759   8.199  10.844
77742SOL    HW235124  12.734   8.305  10.739
77743SOL     OW35125   1.446  10.673   3.367
77743SOL    HW135126   1.435  10.759   3.408
77743SOL    HW235127   1.361  10.655   3.327
77744SOL     OW35128   8.492   6.025   3.676
77744SOL    HW135129   8.568   5.984   3.635
77744SOL    HW235130   8.445   6.066   3.604
77745SOL     OW35131   6.053  12.451   2.040
77745SOL    HW135132   5.980  12.404   2.079
77745SOL    HW235133   6.055  12.535   2.086
77746SOL     OW35134   8.638  11.713  13.059
77746SOL    HW135135   8.616  11.794  13.013
77746SOL    HW235136   8.729  11.696  13.036
77747SOL     OW35137  10.883   7.229   8.748
77747SOL    HW135138  10.917   7.146   8.781
77747SOL    HW235139  10.830   7.264   8.820
77748SOL     OW35140   0.665   0.621   0.480
77748SOL    HW135141   0.586   0.620   0.535
77748SOL    HW235142   0.632   0.604   0.391
77749SOL     OW35143   9.542   2.511   6.603
77749SOL    HW135144   9.574   2.433   6.558
77749SOL    HW235145   9.469   2.542   6.549
77750SOL     OW35146  13.162  14.484   6.658
77750SOL    HW135147  13.234  14.512   6.714
77750SOL    HW235148  13.205  14.442   6.583
77751SOL     OW35149   1.531   4.318   3.361
77751SOL    HW135150   1.610   4.264   3.361
77751SOL    HW235151   1.526   4.353   3.272
77752SOL     OW35152   3.803   8.454   5.471
77752SOL    HW135153   3.823   8.445   5.377
77752SOL    HW235154   3.873   8.406   5.515
77753SOL     OW35155  12.952  14.348  12.242
77753SOL    HW135156  12.918  14.385  12.323
77753SOL    HW235157  13.015  14.412  12.210
77754SOL     OW35158  11.245   2.478   4.527
77754SOL    HW135159  11.181   2.454   4.460
77754SOL    HW235160  11.300   2.400   4.538
77755SOL     OW35161   5.939  13.791   0.055
77755SOL    HW135162   5.897  13.728  14.866
77755SOL    HW235163   5.933  13.750   0.142
77756SOL     OW35164   1.685   7.147  14.816
77756SOL    HW135165   1.636   7.106  14.745
77756SOL    HW235166   1.767   7.097  14.821
77757SOL     OW35167   0.333   1.342   7.282
77757SOL    HW135168   0.365   1.254   7.262
77757SOL    HW235169   0.376   1.398   7.218
77758SOL     OW35170   8.585   8.902  12.864
77758SOL    HW135171   8.627   8.983  12.835
77758SOL    HW235172   8.646   8.833  12.838
77759SOL     OW35173   3.749   9.035   9.751
77759SOL    HW135174   3.694   9.072   9.819
77759SOL    HW235175   3.771   9.110   9.695
77760SOL     OW35176  11.008   9.923   9.234
77760SOL    HW135177  10.923   9.947   9.271
77760SOL    HW235178  11.072   9.968   9.289
77761SOL     OW35179   0.468   7.340   6.359
77761SOL    HW135180   0.432   7.252   6.368
77761SOL    HW235181   0.528   7.350   6.433
77762SOL     OW35182   0.167  13.715   5.743
77762SOL    HW135183   0.260  13.707   5.723
77762SOL    HW235184   0.125  13.731   5.658
77763SOL     OW35185   1.514   1.687   5.134
77763SOL    HW135186   1.531   1.627   5.062
77763SOL    HW235187   1.445   1.745   5.101
77764SOL     OW35188  11.064   1.989   6.736
77764SOL    HW135189  11.007   2.062   6.711
77764SOL    HW235190  11.077   1.941   6.654
77765SOL     OW35191   1.894  13.174   2.400
77765SOL    HW135192   1.863  13.265   2.405
77765SOL    HW235193   1.982  13.180   2.363
77766SOL     OW35194   3.609   0.753  10.413
77766SOL    HW135195   3.683   0.790  10.462
77766SOL    HW235196   3.631   0.766  10.321
77767SOL     OW35197   0.305   7.913   0.761
77767SOL    HW135198   0.395   7.894   0.736
77767SOL    HW235199   0.278   7.982   0.701
77768SOL     OW35200   8.393   9.528   6.561
77768SOL    HW135201   8.300   9.520   6.583
77768SOL    HW235202   8.434   9.561   6.641
77769SOL     OW35203   6.279  10.884  10.058
77769SOL    HW135204   6.219  10.932  10.000
77769SOL    HW235205   6.302  10.805  10.009
77770SOL     OW35206   4.266  10.091   3.365
77770SOL    HW135207   4.216  10.026   3.316
77770SOL    HW235208   4.349  10.047   3.385
77771SOL     OW35209   7.961  10.342   4.333
77771SOL    HW135210   8.005  10.319   4.252
77771SOL    HW235211   8.022  10.316   4.402
77772SOL     OW35212  10.187   9.938   1.061
77772SOL    HW135213  10.165   9.949   1.153
77772SOL    HW235214  10.153  10.017   1.018
77773SOL     OW35215  14.354  12.766  14.200
77773SOL    HW135216  14.373  12.787  14.291
77773SOL    HW235217  14.361  12.850  14.154
77774SOL     OW35218   6.014   3.206   3.621
77774SOL    HW135219   5.980   3.295   3.623
77774SOL    HW235220   6.097   3.214   3.574
77775SOL     OW35221   9.315   3.293   3.749
77775SOL    HW135222   9.360   3.302   3.664
77775SOL    HW235223   9.383   3.314   3.814
77776SOL     OW35224   5.355   6.550   3.569
77776SOL    HW135225   5.383   6.553   3.660
77776SOL    HW235226   5.400   6.474   3.533
77777SOL     OW35227  11.762   3.549  14.128
77777SOL    HW135228  11.728   3.599  14.202
77777SOL    HW235229  11.706   3.573  14.054
77778SOL     OW35230  14.185   5.003   3.282
77778SOL    HW135231  14.273   4.991   3.248
77778SOL    HW235232  14.128   4.965   3.214
77779SOL     OW35233  13.761  13.128   8.596
77779SOL    HW135234  13.761  13.175   8.514
77779SOL    HW235235  13.839  13.073   8.592
77780SOL     OW35236   4.967   5.017   7.250
77780SOL    HW135237   4.916   5.066   7.314
77780SOL    HW235238   5.047   5.069   7.239
77781SOL     OW35239  13.033   8.793   1.701
77781SOL    HW135240  13.100   8.752   1.756
77781SOL    HW235241  13.064   8.883   1.691
77782SOL     OW35242   7.496   3.815   8.693
77782SOL    HW135243   7.548   3.895   8.681
77782SOL    HW235244   7.484   3.809   8.788
77783SOL     OW35245   9.588  12.187   0.424
77783SOL    HW135246   9.538  12.238   0.488
77783SOL    HW235247   9.657  12.247   0.395
77784SOL     OW35248  13.343   8.836  10.893
77784SOL    HW135249  13.356   8.749  10.855
77784SOL    HW235250  13.255   8.833  10.932
77785SOL     OW35251   2.738  12.969  14.051
77785SOL    HW135252   2.810  12.930  14.101
77785SOL    HW235253   2.674  12.995  14.118
77786SOL     OW35254   9.820   9.026   6.459
77786SOL    HW135255   9.901   8.982   6.434
77786SOL    HW235256   9.845   9.118   6.469
77787SOL     OW35257   1.782   6.156   7.636
77787SOL    HW135258   1.715   6.135   7.701
77787SOL    HW235259   1.735   6.202   7.566
77788SOL     OW35260  13.967   0.603   1.020
77788SOL    HW135261  13.936   0.609   1.110
77788SOL    HW235262  14.056   0.569   1.028
77789SOL     OW35263   3.398   9.614   9.264
77789SOL    HW135264   3.449   9.663   9.329
77789SOL    HW235265   3.444   9.629   9.181
77790SOL     OW35266  14.297  10.135   7.244
77790SOL    HW135267  14.314  10.145   7.150
77790SOL    HW235268  14.293  10.041   7.257
77791SOL     OW35269   0.578   9.595   1.075
77791SOL    HW135270   0.652   9.651   1.050
77791SOL    HW235271   0.506   9.626   1.021
77792SOL     OW35272  11.469   8.577   9.686
77792SOL    HW135273  11.529   8.647   9.661
77792SOL    HW235274  11.512   8.496   9.658
77793SOL     OW35275   1.606   5.323  11.220
77793SOL    HW135276   1.689   5.362  11.194
77793SOL    HW235277   1.616   5.230  11.200
77794SOL     OW35278  10.044  14.069  11.727
77794SOL    HW135279   9.991  14.144  11.698
77794SOL    HW235280  10.026  14.062  11.820
77795SOL     OW35281   5.383   4.205   6.636
77795SOL    HW135282   5.474   4.194   6.666
77795SOL    HW235283   5.370   4.136   6.572
77796SOL     OW35284   1.960   2.414   4.122
77796SOL    HW135285   1.872   2.433   4.155
77796SOL    HW235286   1.947   2.390   4.030
77797SOL     OW35287   1.561   9.887   5.665
77797SOL    HW135288   1.656   9.896   5.667
77797SOL    HW235289   1.532   9.947   5.596
77798SOL     OW35290   8.712   3.144  10.854
77798SOL    HW135291   8.736   3.235  10.876
77798SOL    HW235292   8.624   3.151  10.817
77799SOL     OW35293   7.503   6.966   5.790
77799SOL    HW135294   7.415   6.984   5.756
77799SOL    HW235295   7.493   6.884   5.839
77800SOL     OW35296   4.508   6.689   3.384
77800SOL    HW135297   4.541   6.619   3.439
77800SOL    HW235298   4.528   6.662   3.294
77801SOL     OW35299   1.631   1.945   0.460
77801SOL    HW135300   1.578   2.009   0.507
77801SOL    HW235301   1.569   1.903   0.400
77802SOL     OW35302  10.677   1.678   5.214
77802SOL    HW135303  10.664   1.771   5.229
77802SOL    HW235304  10.765   1.671   5.179
77803SOL     OW35305  14.089   3.246  12.008
77803SOL    HW135306  14.101   3.333  12.046
77803SOL    HW235307  14.147   3.189  12.058
77804SOL     OW35308  10.056   7.156   5.375
77804SOL    HW135309  10.111   7.097   5.325
77804SOL    HW235310   9.967   7.132   5.352
77805SOL     OW35311  10.358  12.626   9.833
77805SOL    HW135312  10.315  12.543   9.854
77805SOL    HW235313  10.345  12.680   9.911
77806SOL     OW35314  13.918   5.250   8.788
77806SOL    HW135315  13.853   5.220   8.724
77806SOL    HW235316  13.919   5.182   8.855
77807SOL     OW35317   2.139  13.868   2.166
77807SOL    HW135318   2.099  13.781   2.161
77807SOL    HW235319   2.087  13.915   2.231
77808SOL     OW35320   9.099  10.597   7.392
77808SOL    HW135321   9.025  10.607   7.452
77808SOL    HW235322   9.155  10.672   7.410
77809SOL     OW35323  14.356   2.479   3.344
77809SOL    HW135324  14.423   2.517   3.287
77809SOL    HW235325  14.362   2.385   3.329
77810SOL     OW35326   7.830   3.890   9.849
77810SOL    HW135327   7.776   3.868   9.926
77810SOL    HW235328   7.834   3.810   9.798
77811SOL     OW35329   6.387  14.676  10.477
77811SOL    HW135330   6.390  14.696  10.570
77811SOL    HW235331   6.459  14.615  10.463
77812SOL     OW35332  10.825  13.383   3.024
77812SOL    HW135333  10.749  13.371   3.082
77812SOL    HW235334  10.874  13.455   3.063
77813SOL     OW35335   9.231   2.498   1.888
77813SOL    HW135336   9.147   2.460   1.860
77813SOL    HW235337   9.259   2.550   1.812
77814SOL     OW35338   9.682  11.258   7.723
77814SOL    HW135339   9.691  11.169   7.687
77814SOL    HW235340   9.643  11.245   7.809
77815SOL     OW35341   6.014   4.264   0.608
77815SOL    HW135342   5.947   4.272   0.676
77815SOL    HW235343   6.091   4.307   0.645
77816SOL     OW35344  10.780   6.362  11.392
77816SOL    HW135345  10.718   6.315  11.448
77816SOL    HW235346  10.747   6.349  11.303
77817SOL     OW35347   8.750  13.369   7.266
77817SOL    HW135348   8.704  13.410   7.192
77817SOL    HW235349   8.770  13.441   7.325
77818SOL     OW35350  14.056   0.272   6.838
77818SOL    HW135351  14.111   0.288   6.762
77818SOL    HW235352  14.098   0.322   6.909
77819SOL     OW35353  12.727  10.803   0.194
77819SOL    HW135354  12.646  10.851   0.175
77819SOL    HW235355  12.720  10.723   0.143
77820SOL     OW35356   6.131   8.108   9.223
77820SOL    HW135357   6.185   8.161   9.164
77820SOL    HW235358   6.061   8.073   9.167
77821SOL     OW35359  10.152   9.288  14.798
77821SOL    HW135360  10.102   9.264   0.006
77821SOL    HW235361  10.139   9.216  14.737
77822SOL     OW35362   5.450   9.348   1.500
77822SOL    HW135363   5.506   9.420   1.531
77822SOL    HW235364   5.462   9.279   1.565
77823SOL     OW35365  13.501   4.980   6.428
77823SOL    HW135366  13.407   4.969   6.444
77823SOL    HW235367  13.511   5.073   6.408
77824SOL     OW35368   5.757   4.233  11.000
77824SOL    HW135369   5.841   4.210  10.959
77824SOL    HW235370   5.694   4.173  10.961
77825SOL     OW35371  10.796   4.958   4.180
77825SOL    HW135372  10.870   5.012   4.206
77825SOL    HW235373  10.834   4.877   4.147
77826SOL     OW35374   9.944   9.111   5.434
77826SOL    HW135375   9.956   9.153   5.348
77826SOL    HW235376   9.876   9.163   5.477
77827SOL     OW35377   3.017  11.655   5.652
77827SOL    HW135378   2.955  11.627   5.586
77827SOL    HW235379   2.964  11.701   5.717
77828SOL     OW35380   8.081   9.078   1.322
77828SOL    HW135381   7.991   9.095   1.352
77828SOL    HW235382   8.125   9.040   1.398
77829SOL     OW35383   6.109  12.322  12.123
77829SOL    HW135384   6.161  12.326  12.043
77829SOL    HW235385   6.146  12.390  12.179
77830SOL     OW35386   3.859  10.211   7.114
77830SOL    HW135387   3.891  10.176   7.030
77830SOL    HW235388   3.857  10.135   7.172
77831SOL     OW35389   2.473   1.827   8.526
77831SOL    HW135390   2.390   1.781   8.537
77831SOL    HW235391   2.526   1.799   8.600
77832SOL     OW35392   1.078   9.862  11.914
77832SOL    HW135393   1.009   9.870  11.848
77832SOL    HW235394   1.159   9.877  11.866
77833SOL     OW35395   8.168   4.636   3.984
77833SOL    HW135396   8.210   4.660   3.901
77833SOL    HW235397   8.119   4.556   3.964
77834SOL     OW35398   6.735   5.548   8.448
77834SOL    HW135399   6.778   5.541   8.363
77834SOL    HW235400   6.733   5.458   8.482
77835SOL     OW35401  13.885   3.999   0.958
77835SOL    HW135402  13.911   3.913   0.924
77835SOL    HW235403  13.945   4.061   0.917
77836SOL     OW35404   1.228   4.474  11.420
77836SOL    HW135405   1.324   4.478  11.418
77836SOL    HW235406   1.201   4.495  11.331
77837SOL     OW35407   4.894  12.195   3.308
77837SOL    HW135408   4.982  12.169   3.278
77837SOL    HW235409   4.911  12.263   3.374
77838SOL     OW35410   2.581   5.207   1.567
77838SOL    HW135411   2.537   5.123   1.550
77838SOL    HW235412   2.583   5.251   1.482
77839SOL     OW35413   4.352   6.096   2.543
77839SOL    HW135414   4.376   6.007   2.565
77839SOL    HW235415   4.259   6.102   2.564
77840SOL     OW35416   1.142  13.352   7.737
77840SOL    HW135417   1.058  13.389   7.766
77840SOL    HW235418   1.142  13.363   7.642
77841SOL     OW35419   3.773   1.068   0.401
77841SOL    HW135420   3.753   0.999   0.337
77841SOL    HW235421   3.689   1.084   0.445
77842SOL     OW35422  11.024   0.031   5.044
77842SOL    HW135423  11.112   0.066   5.029
77842SOL    HW235424  10.984   0.093   5.107
77843SOL     OW35425  12.686   2.674  14.858
77843SOL    HW135426  12.757   2.625   0.030
77843SOL    HW235427  12.730   2.725  14.789
77844SOL     OW35428   7.024  12.494  11.150
77844SOL    HW135429   7.029  12.575  11.100
77844SOL    HW235430   6.930  12.477  11.160
77845SOL     OW35431   2.562   3.530   1.451
77845SOL    HW135432   2.590   3.446   1.414
77845SOL    HW235433   2.575   3.593   1.380
77846SOL     OW35434   4.329  12.175   7.595
77846SOL    HW135435   4.381  12.095   7.588
77846SOL    HW235436   4.384  12.235   7.647
77847SOL     OW35437  11.495   6.499   5.400
77847SOL    HW135438  11.431   6.568   5.380
77847SOL    HW235439  11.580   6.539   5.385
77848SOL     OW35440  11.310   4.088  11.754
77848SOL    HW135441  11.300   4.167  11.807
77848SOL    HW235442  11.266   4.020  11.804
77849SOL     OW35443  14.294   1.485   9.194
77849SOL    HW135444  14.278   1.558   9.255
77849SOL    HW235445  14.389   1.483   9.184
77850SOL     OW35446  13.192   7.287   5.105
77850SOL    HW135447  13.195   7.243   5.020
77850SOL    HW235448  13.106   7.330   5.106
77851SOL     OW35449   3.799   8.431  13.812
77851SOL    HW135450   3.773   8.511  13.766
77851SOL    HW235451   3.721   8.404  13.859
77852SOL     OW35452  13.569   6.057   5.984
77852SOL    HW135453  13.540   5.966   5.979
77852SOL    HW235454  13.646   6.061   5.927
77853SOL     OW35455   3.788   3.500   7.515
77853SOL    HW135456   3.833   3.424   7.553
77853SOL    HW235457   3.831   3.576   7.554
77854SOL     OW35458   4.293   0.365   0.244
77854SOL    HW135459   4.332   0.355   0.157
77854SOL    HW235460   4.208   0.320   0.238
77855SOL     OW35461   2.771   0.266  13.720
77855SOL    HW135462   2.727   0.188  13.754
77855SOL    HW235463   2.737   0.277  13.631
77856SOL     OW35464   2.692  11.127  10.749
77856SOL    HW135465   2.783  11.134  10.775
77856SOL    HW235466   2.695  11.088  10.661
77857SOL     OW35467   7.256   3.845   1.377
77857SOL    HW135468   7.200   3.768   1.367
77857SOL    HW235469   7.341   3.810   1.404
77858SOL     OW35470   1.686  12.780   0.054
77858SOL    HW135471   1.759  12.840   0.039
77858SOL    HW235472   1.726  12.693   0.054
77859SOL     OW35473  12.594   4.109   8.298
77859SOL    HW135474  12.632   4.173   8.358
77859SOL    HW235475  12.602   4.150   8.212
77860SOL     OW35476   2.550  10.240   9.055
77860SOL    HW135477   2.461  10.251   9.088
77860SOL    HW235478   2.604  10.291   9.116
77861SOL     OW35479   6.714  14.101   8.743
77861SOL    HW135480   6.673  14.019   8.714
77861SOL    HW235481   6.741  14.144   8.662
77862SOL     OW35482   0.638   2.905  10.436
77862SOL    HW135483   0.643   2.850  10.515
77862SOL    HW235484   0.554   2.884  10.397
77863SOL     OW35485   8.154   5.180  12.807
77863SOL    HW135486   8.087   5.168  12.739
77863SOL    HW235487   8.237   5.163  12.763
77864SOL     OW35488  12.119   4.650   5.267
77864SOL    HW135489  12.101   4.739   5.297
77864SOL    HW235490  12.202   4.657   5.220
77865SOL     OW35491   7.441   3.825  14.092
77865SOL    HW135492   7.374   3.858  14.152
77865SOL    HW235493   7.511   3.891  14.096
77866SOL     OW35494   1.560   3.592   2.071
77866SOL    HW135495   1.467   3.575   2.082
77866SOL    HW235496   1.590   3.522   2.013
77867SOL     OW35497   3.343   7.794   4.718
77867SOL    HW135498   3.308   7.881   4.732
77867SOL    HW235499   3.433   7.798   4.750
77868SOL     OW35500  11.994   0.271   0.259
77868SOL    HW135501  12.018   0.286   0.168
77868SOL    HW235502  11.980   0.177   0.266
77869SOL     OW35503   5.743   6.893   4.244
77869SOL    HW135504   5.818   6.897   4.304
77869SOL    HW235505   5.729   6.984   4.217
77870SOL     OW35506   4.042  13.237   8.611
77870SOL    HW135507   4.099  13.283   8.549
77870SOL    HW235508   4.006  13.306   8.667
77871SOL     OW35509   1.845  12.618   8.713
77871SOL    HW135510   1.859  12.661   8.797
77871SOL    HW235511   1.793  12.540   8.734
77872SOL     OW35512   6.549   5.342  12.788
77872SOL    HW135513   6.542   5.264  12.843
77872SOL    HW235514   6.581   5.410  12.847
77873SOL     OW35515   6.831   1.896   9.368
77873SOL    HW135516   6.744   1.863   9.343
77873SOL    HW235517   6.857   1.953   9.295
77874SOL     OW35518  12.735   9.006   0.624
77874SOL    HW135519  12.736   8.928   0.569
77874SOL    HW235520  12.689   8.979   0.703
77875SOL     OW35521   9.062  10.896   3.226
77875SOL    HW135522   9.003  10.910   3.152
77875SOL    HW235523   9.034  10.960   3.292
77876SOL     OW35524   1.090  10.432   5.262
77876SOL    HW135525   1.161  10.391   5.213
77876SOL    HW235526   1.091  10.389   5.347
77877SOL     OW35527   4.682  10.300  12.300
77877SOL    HW135528   4.689  10.338  12.387
77877SOL    HW235529   4.716  10.211  12.310
77878SOL     OW35530   3.908  12.739   2.043
77878SOL    HW135531   3.855  12.689   1.980
77878SOL    HW235532   3.845  12.795   2.088
77879SOL     OW35533  14.508   9.429   1.636
77879SOL    HW135534  14.526   9.336   1.629
77879SOL    HW235535  14.452   9.437   1.714
77880SOL     OW35536   8.112   2.913   4.019
77880SOL    HW135537   8.049   2.963   4.071
77880SOL    HW235538   8.168   2.870   4.084
77881SOL     OW35539  14.331   2.715  10.131
77881SOL    HW135540  14.262   2.764  10.176
77881SOL    HW235541  14.303   2.715  10.039
77882SOL     OW35542  13.458   4.651   4.022
77882SOL    HW135543  13.528   4.611   3.971
77882SOL    HW235544  13.379   4.608   3.992
77883SOL     OW35545   8.699   0.226   3.441
77883SOL    HW135546   8.625   0.284   3.458
77883SOL    HW235547   8.714   0.232   3.347
77884SOL     OW35548   7.219   1.631   8.816
77884SOL    HW135549   7.176   1.659   8.897
77884SOL    HW235550   7.158   1.570   8.777
77885SOL     OW35551  12.077   0.508   7.882
77885SOL    HW135552  12.062   0.586   7.828
77885SOL    HW235553  12.168   0.513   7.908
77886SOL     OW35554  10.762   0.991   4.751
77886SOL    HW135555  10.842   0.982   4.699
77886SOL    HW235556  10.707   0.917   4.725
77887SOL     OW35557   1.184  11.392  12.886
77887SOL    HW135558   1.273  11.412  12.859
77887SOL    HW235559   1.138  11.371  12.805
77888SOL     OW35560  10.622   3.268   9.746
77888SOL    HW135561  10.577   3.186   9.766
77888SOL    HW235562  10.584   3.332   9.806
77889SOL     OW35563   8.365   1.073   9.849
77889SOL    HW135564   8.368   1.168   9.853
77889SOL    HW235565   8.384   1.044   9.939
77890SOL     OW35566   0.707   4.106  10.464
77890SOL    HW135567   0.729   4.192  10.502
77890SOL    HW235568   0.782   4.051  10.487
77891SOL     OW35569   2.505   6.659  14.447
77891SOL    HW135570   2.559   6.612  14.383
77891SOL    HW235571   2.533   6.750  14.440
77892SOL     OW35572  10.077  12.722   9.119
77892SOL    HW135573  10.014  12.721   9.048
77892SOL    HW235574  10.109  12.632   9.125
77893SOL     OW35575  10.393  14.110  12.938
77893SOL    HW135576  10.356  14.148  12.859
77893SOL    HW235577  10.488  14.108  12.922
77894SOL     OW35578   4.087  10.277   4.784
77894SOL    HW135579   4.180  10.268   4.763
77894SOL    HW235580   4.064  10.195   4.828
77895SOL     OW35581  10.549   0.382   2.832
77895SOL    HW135582  10.550   0.378   2.736
77895SOL    HW235583  10.594   0.302   2.860
77896SOL     OW35584   9.762   3.905   6.921
77896SOL    HW135585   9.804   3.969   6.864
77896SOL    HW235586   9.668   3.923   6.911
77897SOL     OW35587   6.627  12.964   3.643
77897SOL    HW135588   6.619  13.039   3.583
77897SOL    HW235589   6.721  12.947   3.646
77898SOL     OW35590   5.910   9.276   5.245
77898SOL    HW135591   5.983   9.240   5.296
77898SOL    HW235592   5.848   9.308   5.311
77899SOL     OW35593   2.448   6.806   7.396
77899SOL    HW135594   2.448   6.827   7.489
77899SOL    HW235595   2.472   6.888   7.353
77900SOL     OW35596  11.690   0.123  14.283
77900SOL    HW135597  11.738   0.177  14.219
77900SOL    HW235598  11.690   0.036  14.244
77901SOL     OW35599  13.262   4.038   0.200
77901SOL    HW135600  13.310   4.059   0.280
77901SOL    HW235601  13.197   4.108   0.193
77902SOL     OW35602   7.589  14.701   3.801
77902SOL    HW135603   7.521  14.677   3.738
77902SOL    HW235604   7.545  14.758   3.864
77903SOL     OW35605   2.264  13.705  14.491
77903SOL    HW135606   2.324  13.631  14.501
77903SOL    HW235607   2.191  13.685  14.549
77904SOL     OW35608  11.798   5.260   2.099
77904SOL    HW135609  11.818   5.227   2.186
77904SOL    HW235610  11.765   5.349   2.114
77905SOL     OW35611   2.845   4.309   7.527
77905SOL    HW135612   2.850   4.398   7.561
77905SOL    HW235613   2.805   4.259   7.598
77906SOL     OW35614   0.151   7.552   2.757
77906SOL    HW135615   0.070   7.593   2.788
77906SOL    HW235616   0.163   7.587   2.669
77907SOL     OW35617   1.576   8.214  10.006
77907SOL    HW135618   1.575   8.188  10.098
77907SOL    HW235619   1.652   8.271   9.998
77908SOL     OW35620  14.636  10.441   7.871
77908SOL    HW135621  14.569  10.484   7.817
77908SOL    HW235622  14.586  10.390   7.935
77909SOL     OW35623   3.337   0.819   0.683
77909SOL    HW135624   3.383   0.813   0.767
77909SOL    HW235625   3.260   0.873   0.702
77910SOL     OW35626   7.583   0.497   1.211
77910SOL    HW135627   7.491   0.502   1.187
77910SOL    HW235628   7.593   0.410   1.251
77911SOL     OW35629   5.673   6.236   3.264
77911SOL    HW135630   5.658   6.321   3.222
77911SOL    HW235631   5.754   6.204   3.224
77912SOL     OW35632   4.615   9.468   7.155
77912SOL    HW135633   4.526   9.470   7.189
77912SOL    HW235634   4.646   9.558   7.162
77913SOL     OW35635  12.640   6.028   1.003
77913SOL    HW135636  12.604   6.000   0.919
77913SOL    HW235637  12.569   6.015   1.066
77914SOL     OW35638   2.724  11.104   7.261
77914SOL    HW135639   2.677  11.062   7.190
77914SOL    HW235640   2.786  11.163   7.218
77915SOL     OW35641  13.506   8.650  12.948
77915SOL    HW135642  13.571   8.714  12.975
77915SOL    HW235643  13.464   8.621  13.029
77916SOL     OW35644  11.558  14.176   8.473
77916SOL    HW135645  11.633  14.180   8.533
77916SOL    HW235646  11.503  14.250   8.498
77917SOL     OW35647   6.040   6.653  12.194
77917SOL    HW135648   6.093   6.588  12.149
77917SOL    HW235649   5.969   6.603  12.234
77918SOL     OW35650  12.939   8.447   7.476
77918SOL    HW135651  12.924   8.391   7.552
77918SOL    HW235652  12.868   8.510   7.478
77919SOL     OW35653   0.651   9.848   4.474
77919SOL    HW135654   0.645   9.752   4.469
77919SOL    HW235655   0.701   9.865   4.554
77920SOL     OW35656   0.962   9.722   8.667
77920SOL    HW135657   0.968   9.627   8.678
77920SOL    HW235658   0.992   9.759   8.750
77921SOL     OW35659   6.133   8.197  14.439
77921SOL    HW135660   6.099   8.117  14.399
77921SOL    HW235661   6.178   8.168  14.518
77922SOL     OW35662   8.391   0.025   2.689
77922SOL    HW135663   8.320   0.028   2.625
77922SOL    HW235664   8.382  14.810   2.732
77923SOL     OW35665  11.460  10.077   2.102
77923SOL    HW135666  11.461  10.139   2.029
77923SOL    HW235667  11.468   9.991   2.060
77924SOL     OW35668  11.463  14.077  13.320
77924SOL    HW135669  11.505  13.993  13.339
77924SOL    HW235670  11.519  14.142  13.363
77925SOL     OW35671   5.735   9.503   0.744
77925SOL    HW135672   5.734   9.523   0.650
77925SOL    HW235673   5.696   9.580   0.785
77926SOL     OW35674  13.195  13.186   9.614
77926SOL    HW135675  13.130  13.117   9.605
77926SOL    HW235676  13.160  13.244   9.682
77927SOL     OW35677   6.386   6.802  11.054
77927SOL    HW135678   6.449   6.849  11.108
77927SOL    HW235679   6.416   6.711  11.056
77928SOL     OW35680  14.200  13.465  11.982
77928SOL    HW135681  14.184  13.557  12.001
77928SOL    HW235682  14.144  13.417  12.043
77929SOL     OW35683   3.158   4.221   5.877
77929SOL    HW135684   3.101   4.146   5.893
77929SOL    HW235685   3.145   4.241   5.784
77930SOL     OW35686  11.405   5.329   6.053
77930SOL    HW135687  11.483   5.279   6.075
77930SOL    HW235688  11.381   5.298   5.966
77931SOL     OW35689  10.083  11.794   8.826
77931SOL    HW135690  10.003  11.746   8.803
77931SOL    HW235691  10.128  11.808   8.743
77932SOL     OW35692  12.995   7.532  13.870
77932SOL    HW135693  12.976   7.451  13.822
77932SOL    HW235694  12.978   7.510  13.961
77933SOL     OW35695   3.309   5.933   5.211
77933SOL    HW135696   3.374   5.947   5.280
77933SOL    HW235697   3.240   5.997   5.230
77934SOL     OW35698  11.612   3.046  10.082
77934SOL    HW135699  11.535   3.008  10.041
77934SOL    HW235700  11.679   3.046  10.013
77935SOL     OW35701   0.545  13.124  13.348
77935SOL    HW135702   0.480  13.195  13.352
77935SOL    HW235703   0.502  13.049  13.388
77936SOL     OW35704  12.522   8.923   9.424
77936SOL    HW135705  12.557   8.921   9.513
77936SOL    HW235706  12.513   8.831   9.399
77937SOL     OW35707   5.180  12.369  11.012
77937SOL    HW135708   5.153  12.289  10.967
77937SOL    HW235709   5.099  12.420  11.022
77938SOL     OW35710   7.188   5.404   2.099
77938SOL    HW135711   7.129   5.329   2.112
77938SOL    HW235712   7.152   5.449   2.023
77939SOL     OW35713   5.608  10.551   4.051
77939SOL    HW135714   5.667  10.515   4.117
77939SOL    HW235715   5.611  10.646   4.066
77940SOL     OW35716  10.812  10.570  14.450
77940SOL    HW135717  10.844  10.486  14.482
77940SOL    HW235718  10.820  10.629  14.525
77941SOL     OW35719  12.960   0.519   4.009
77941SOL    HW135720  12.985   0.533   3.918
77941SOL    HW235721  12.970   0.425   4.023
77942SOL     OW35722   7.235   1.888   4.755
77942SOL    HW135723   7.220   1.981   4.740
77942SOL    HW235724   7.330   1.878   4.750
77943SOL     OW35725  14.123   3.261   2.258
77943SOL    HW135726  14.167   3.242   2.175
77943SOL    HW235727  14.037   3.294   2.232
77944SOL     OW35728   4.711   3.642  11.521
77944SOL    HW135729   4.750   3.567  11.567
77944SOL    HW235730   4.721   3.621  11.428
77945SOL     OW35731   6.454   2.230  14.790
77945SOL    HW135732   6.547   2.252  14.782
77945SOL    HW235733   6.409   2.297  14.738
77946SOL     OW35734   1.730   2.098   7.850
77946SOL    HW135735   1.761   2.107   7.940
77946SOL    HW235736   1.635   2.084   7.859
77947SOL     OW35737   2.223   1.663   3.078
77947SOL    HW135738   2.281   1.736   3.097
77947SOL    HW235739   2.140   1.686   3.121
77948SOL     OW35740   4.489  14.182   8.107
77948SOL    HW135741   4.582  14.197   8.119
77948SOL    HW235742   4.483  14.127   8.028
77949SOL     OW35743  14.771   7.703   8.894
77949SOL    HW135744  14.718   7.769   8.849
77949SOL    HW235745  14.785   7.740   8.982
77950SOL     OW35746  11.121   0.837  13.019
77950SOL    HW135747  11.049   0.818  12.959
77950SOL    HW235748  11.187   0.879  12.964
77951SOL     OW35749   3.158  14.180  12.505
77951SOL    HW135750   3.152  14.274  12.488
77951SOL    HW235751   3.247  14.157  12.478
77952SOL     OW35752   8.815  13.493  14.849
77952SOL    HW135753   8.782  13.524   0.064
77952SOL    HW235754   8.742  13.509  14.789
77953SOL     OW35755  14.524   5.487   2.615
77953SOL    HW135756  14.582   5.555   2.582
77953SOL    HW235757  14.547   5.409   2.565
77954SOL     OW35758  11.168   5.929   6.315
77954SOL    HW135759  11.131   6.007   6.273
77954SOL    HW235760  11.110   5.858   6.289
77955SOL     OW35761  14.591   1.611   2.426
77955SOL    HW135762  14.578   1.625   2.332
77955SOL    HW235763  14.503   1.619   2.464
77956SOL     OW35764   4.188  10.547   4.538
77956SOL    HW135765   4.135  10.596   4.602
77956SOL    HW235766   4.160  10.581   4.453
77957SOL     OW35767   7.973   2.073  11.066
77957SOL    HW135768   7.978   2.100  11.157
77957SOL    HW235769   7.887   2.104  11.037
77958SOL     OW35770   4.991   8.004  11.196
77958SOL    HW135771   5.013   7.911  11.192
77958SOL    HW235772   5.018   8.039  11.111
77959SOL     OW35773   4.120  11.818   6.409
77959SOL    HW135774   4.158  11.878   6.345
77959SOL    HW235775   4.192  11.794   6.466
77960SOL     OW35776  14.285  14.102   9.095
77960SOL    HW135777  14.207  14.152   9.122
77960SOL    HW235778  14.304  14.134   9.006
77961SOL     OW35779   4.746  14.204   8.161
77961SOL    HW135780   4.831  14.243   8.183
77961SOL    HW235781   4.759  14.110   8.173
77962SOL     OW35782   6.639  14.494   2.663
77962SOL    HW135783   6.602  14.444   2.736
77962SOL    HW235784   6.610  14.447   2.585
77963SOL     OW35785   0.113   9.172   4.943
77963SOL    HW135786   0.209   9.168   4.942
77963SOL    HW235787   0.086   9.083   4.964
77964SOL     OW35788  12.456   5.152   5.348
77964SOL    HW135789  12.487   5.176   5.261
77964SOL    HW235790  12.528   5.177   5.406
77965SOL     OW35791   7.196  11.142  12.439
77965SOL    HW135792   7.109  11.115  12.409
77965SOL    HW235793   7.195  11.125  12.533
77966SOL     OW35794   0.236   2.111   1.839
77966SOL    HW135795   0.239   2.171   1.764
77966SOL    HW235796   0.201   2.165   1.910
77967SOL     OW35797   4.311   6.115   4.262
77967SOL    HW135798   4.380   6.169   4.223
77967SOL    HW235799   4.327   6.027   4.227
77968SOL     OW35800   7.433  12.601   6.343
77968SOL    HW135801   7.480  12.619   6.261
77968SOL    HW235802   7.483  12.649   6.410
77969SOL     OW35803   9.366   4.580  12.632
77969SOL    HW135804   9.290   4.629  12.601
77969SOL    HW235805   9.370   4.504  12.574
77970SOL     OW35806   4.563   6.872   5.361
77970SOL    HW135807   4.620   6.949   5.358
77970SOL    HW235808   4.617   6.803   5.399
77971SOL     OW35809   2.819   2.160  12.027
77971SOL    HW135810   2.881   2.226  12.058
77971SOL    HW235811   2.766   2.206  11.962
77972SOL     OW35812   1.619  12.910   8.910
77972SOL    HW135813   1.591  12.870   8.828
77972SOL    HW235814   1.608  13.004   8.896
77973SOL     OW35815   8.039  11.602   6.646
77973SOL    HW135816   8.129  11.621   6.621
77973SOL    HW235817   8.033  11.507   6.646
77974SOL     OW35818   7.389   4.600   4.493
77974SOL    HW135819   7.441   4.526   4.461
77974SOL    HW235820   7.412   4.673   4.436
77975SOL     OW35821   9.128   9.838  13.988
77975SOL    HW135822   9.178   9.757  13.992
77975SOL    HW235823   9.121   9.867  14.079
77976SOL     OW35824   5.194   4.433   5.486
77976SOL    HW135825   5.284   4.401   5.492
77976SOL    HW235826   5.195   4.515   5.535
77977SOL     OW35827   4.114   7.872   2.082
77977SOL    HW135828   4.065   7.790   2.094
77977SOL    HW235829   4.046   7.939   2.073
77978SOL     OW35830  14.723   2.099   1.171
77978SOL    HW135831  14.637   2.095   1.212
77978SOL    HW235832  14.752   2.189   1.184
77979SOL     OW35833   9.104   7.734   3.957
77979SOL    HW135834   9.100   7.829   3.954
77979SOL    HW235835   9.086   7.706   3.867
77980SOL     OW35836  10.414   4.811   4.082
77980SOL    HW135837  10.461   4.894   4.082
77980SOL    HW235838  10.328   4.831   4.045
77981SOL     OW35839  12.933   6.033   0.565
77981SOL    HW135840  12.928   5.943   0.599
77981SOL    HW235841  13.013   6.068   0.605
77982SOL     OW35842  12.363   7.253   6.889
77982SOL    HW135843  12.409   7.309   6.952
77982SOL    HW235844  12.432   7.200   6.850
77983SOL     OW35845   9.200  10.281   3.470
77983SOL    HW135846   9.110  10.299   3.443
77983SOL    HW235847   9.245  10.365   3.463
77984SOL     OW35848  13.572   7.397  14.490
77984SOL    HW135849  13.481   7.400  14.518
77984SOL    HW235850  13.579   7.464  14.422
77985SOL     OW35851  10.556  14.620   9.119
77985SOL    HW135852  10.548  14.536   9.073
77985SOL    HW235853  10.524  14.603   9.207
77986SOL     OW35854   6.590   8.349   6.377
77986SOL    HW135855   6.560   8.311   6.460
77986SOL    HW235856   6.586   8.277   6.315
77987SOL     OW35857   0.567  11.226   7.392
77987SOL    HW135858   0.631  11.270   7.336
77987SOL    HW235859   0.612  11.149   7.425
77988SOL     OW35860   5.530   6.924  12.050
77988SOL    HW135861   5.612   6.949  12.093
77988SOL    HW235862   5.473   6.899  12.121
77989SOL     OW35863  11.192  12.217  10.712
77989SOL    HW135864  11.206  12.123  10.704
77989SOL    HW235865  11.116  12.234  10.657
77990SOL     OW35866   3.901   1.361  14.171
77990SOL    HW135867   3.913   1.274  14.134
77990SOL    HW235868   3.808   1.379  14.163
77991SOL     OW35869   7.061   0.849  13.312
77991SOL    HW135870   7.139   0.849  13.256
77991SOL    HW235871   6.990   0.881  13.256
77992SOL     OW35872   4.099   0.422   3.216
77992SOL    HW135873   4.188   0.397   3.241
77992SOL    HW235874   4.048   0.341   3.226
77993SOL     OW35875   7.968  12.196  11.860
77993SOL    HW135876   8.043  12.180  11.803
77993SOL    HW235877   7.892  12.174  11.805
77994SOL     OW35878   9.440   2.700  11.775
77994SOL    HW135879   9.488   2.771  11.732
77994SOL    HW235880   9.483   2.620  11.745
77995SOL     OW35881   7.795   2.112   4.579
77995SOL    HW135882   7.721   2.172   4.584
77995SOL    HW235883   7.763   2.036   4.531
77996SOL     OW35884   5.431   2.966  11.747
77996SOL    HW135885   5.489   2.954  11.672
77996SOL    HW235886   5.456   2.898  11.809
77997SOL     OW35887   8.279   3.409  14.215
77997SOL    HW135888   8.331   3.484  14.186
77997SOL    HW235889   8.337   3.362  14.275
77998SOL     OW35890   7.943  10.897  11.136
77998SOL    HW135891   7.935  10.989  11.161
77998SOL    HW235892   7.935  10.849  11.219
77999SOL     OW35893   0.973   7.175   9.666
77999SOL    HW135894   0.905   7.241   9.674
77999SOL    HW235895   0.943   7.119   9.594
78000SOL     OW35896   6.763   2.807  14.219
78000SOL    HW135897   6.688   2.817  14.161
78000SOL    HW235898   6.724   2.797  14.306
78001SOL     OW35899  10.283  12.722   2.699
78001SOL    HW135900  10.203  12.727   2.648
78001SOL    HW235901  10.339  12.791   2.664
78002SOL     OW35902   7.158   8.075   1.833
78002SOL    HW135903   7.148   8.002   1.893
78002SOL    HW235904   7.116   8.149   1.877
78003SOL     OW35905   9.771   2.071  12.788
78003SOL    HW135906   9.864   2.094  12.777
78003SOL    HW235907   9.723   2.144  12.749
78004SOL     OW35908   2.209   3.143  13.435
78004SOL    HW135909   2.222   3.049  13.425
78004SOL    HW235910   2.287   3.183  13.397
78005SOL     OW35911   9.821  12.947   2.762
78005SOL    HW135912   9.861  12.861   2.751
78005SOL    HW235913   9.752  12.951   2.696
78006SOL     OW35914  12.832   6.049  14.785
78006SOL    HW135915  12.866   6.025  14.699
78006SOL    HW235916  12.896   6.014  14.847
78007SOL     OW35917   4.302  13.471  11.079
78007SOL    HW135918   4.326  13.395  11.026
78007SOL    HW235919   4.240  13.437  11.143
78008SOL     OW35920   1.152  14.131   3.383
78008SOL    HW135921   1.086  14.142   3.315
78008SOL    HW235922   1.156  14.216   3.427
78009SOL     OW35923   8.831   9.882   2.608
78009SOL    HW135924   8.914   9.916   2.641
78009SOL    HW235925   8.818   9.929   2.526
78010SOL     OW35926   7.772   5.532   7.514
78010SOL    HW135927   7.822   5.613   7.523
78010SOL    HW235928   7.687   5.551   7.554
78011SOL     OW35929   6.471   3.260   1.809
78011SOL    HW135930   6.529   3.196   1.769
78011SOL    HW235931   6.518   3.293   1.885
78012SOL     OW35932  10.130   0.975   1.970
78012SOL    HW135933  10.078   1.001   2.046
78012SOL    HW235934  10.215   1.017   1.984
78013SOL     OW35935   5.664  11.626  14.170
78013SOL    HW135936   5.700  11.714  14.159
78013SOL    HW235937   5.621  11.629  14.255
78014SOL     OW35938   4.652   1.612   4.989
78014SOL    HW135939   4.585   1.543   4.983
78014SOL    HW235940   4.721   1.583   4.930
78015SOL     OW35941   2.632  14.744  14.485
78015SOL    HW135942   2.593  14.830  14.501
78015SOL    HW235943   2.711  14.742  14.539
78016SOL     OW35944   4.150   0.037  13.956
78016SOL    HW135945   4.075  14.858  13.923
78016SOL    HW235946   4.202   0.057  13.878
78017SOL     OW35947  14.720   9.249   9.640
78017SOL    HW135948  14.723   9.310   9.566
78017SOL    HW235949  14.775   9.290   9.707
78018SOL     OW35950   3.554   3.106   5.159
78018SOL    HW135951   3.629   3.162   5.177
78018SOL    HW235952   3.584   3.017   5.179
78019SOL     OW35953   7.517   0.544   3.119
78019SOL    HW135954   7.573   0.474   3.151
78019SOL    HW235955   7.523   0.612   3.187
78020SOL     OW35956   8.683   5.693   2.416
78020SOL    HW135957   8.687   5.600   2.441
78020SOL    HW235958   8.702   5.693   2.322
78021SOL     OW35959  10.347   6.262  12.800
78021SOL    HW135960  10.399   6.295  12.874
78021SOL    HW235961  10.400   6.281  12.723
78022SOL     OW35962   2.277   9.737   6.416
78022SOL    HW135963   2.237   9.764   6.499
78022SOL    HW235964   2.341   9.805   6.397
78023SOL     OW35965   2.770   0.938   2.327
78023SOL    HW135966   2.727   0.852   2.323
78023SOL    HW235967   2.835   0.929   2.396
78024SOL     OW35968  10.808   4.074   4.689
78024SOL    HW135969  10.712   4.069   4.694
78024SOL    HW235970  10.839   4.042   4.773
78025SOL     OW35971   3.970   1.728  10.243
78025SOL    HW135972   3.979   1.699  10.152
78025SOL    HW235973   4.025   1.806  10.249
78026SOL     OW35974   3.454   0.331  10.866
78026SOL    HW135975   3.400   0.259  10.833
78026SOL    HW235976   3.482   0.378  10.788
78027SOL     OW35977   4.043   8.683   3.523
78027SOL    HW135978   3.993   8.727   3.454
78027SOL    HW235979   4.135   8.692   3.495
78028SOL     OW35980   5.822   5.460  14.460
78028SOL    HW135981   5.790   5.471  14.370
78028SOL    HW235982   5.746   5.479  14.515
78029SOL     OW35983   8.757  14.514  11.063
78029SOL    HW135984   8.733  14.504  10.971
78029SOL    HW235985   8.803  14.433  11.085
78030SOL     OW35986   6.214  13.428   7.947
78030SOL    HW135987   6.242  13.349   7.902
78030SOL    HW235988   6.122  13.438   7.924
78031SOL     OW35989   1.467   4.284   1.391
78031SOL    HW135990   1.384   4.274   1.345
78031SOL    HW235991   1.492   4.375   1.375
78032SOL     OW35992   4.725  13.090   3.180
78032SOL    HW135993   4.716  13.175   3.136
78032SOL    HW235994   4.814  13.090   3.215
78033SOL     OW35995   2.018   5.517   6.684
78033SOL    HW135996   2.082   5.588   6.673
78033SOL    HW235997   2.043   5.452   6.619
78034SOL     OW35998  10.405  11.215   6.249
78034SOL    HW135999  10.420  11.123   6.270
78034SOL    HW236000  10.312  11.220   6.227
78035SOL     OW36001   3.664   0.174   3.045
78035SOL    HW136002   3.596   0.197   2.982
78035SOL    HW236003   3.629   0.204   3.129
78036SOL     OW36004  11.599   8.267   9.086
78036SOL    HW136005  11.689   8.247   9.060
78036SOL    HW236006  11.568   8.187   9.128
78037SOL     OW36007  12.705   2.244   2.181
78037SOL    HW136008  12.677   2.287   2.262
78037SOL    HW236009  12.679   2.153   2.192
78038SOL     OW36010   4.192  13.530   3.534
78038SOL    HW136011   4.231  13.444   3.549
78038SOL    HW236012   4.124  13.537   3.602
78039SOL     OW36013   6.977   1.010   3.492
78039SOL    HW136014   6.937   0.931   3.528
78039SOL    HW236015   7.056   0.980   3.447
78040SOL     OW36016   3.693   0.411   3.607
78040SOL    HW136017   3.694   0.316   3.617
78040SOL    HW236018   3.711   0.426   3.515
78041SOL     OW36019   1.562   0.646  12.058
78041SOL    HW136020   1.583   0.675  11.969
78041SOL    HW236021   1.636   0.591  12.084
78042SOL     OW36022  11.938   6.782   1.496
78042SOL    HW136023  11.989   6.848   1.543
78042SOL    HW236024  11.939   6.811   1.405
78043SOL     OW36025  11.812   5.604   4.299
78043SOL    HW136026  11.865   5.573   4.372
78043SOL    HW236027  11.822   5.537   4.232
78044SOL     OW36028  12.175   4.360   8.741
78044SOL    HW136029  12.211   4.429   8.686
78044SOL    HW236030  12.083   4.383   8.752
78045SOL     OW36031   2.868   7.023   3.956
78045SOL    HW136032   2.920   6.948   3.982
78045SOL    HW236033   2.929   7.081   3.910
78046SOL     OW36034   4.508   2.468  14.278
78046SOL    HW136035   4.537   2.427  14.360
78046SOL    HW236036   4.437   2.526  14.305
78047SOL     OW36037  13.531   1.751   5.523
78047SOL    HW136038  13.522   1.658   5.546
78047SOL    HW236039  13.621   1.760   5.492
78048SOL     OW36040   3.320   3.645  13.947
78048SOL    HW136041   3.275   3.615  14.025
78048SOL    HW236042   3.333   3.739  13.961
78049SOL     OW36043  11.964   2.177   3.999
78049SOL    HW136044  12.051   2.175   4.039
78049SOL    HW236045  11.935   2.086   3.999
78050SOL     OW36046  14.610   0.467  13.037
78050SOL    HW136047  14.694   0.510  13.050
78050SOL    HW236048  14.618   0.424  12.952
78051SOL     OW36049   9.702   1.788   8.299
78051SOL    HW136050   9.650   1.785   8.219
78051SOL    HW236051   9.784   1.831   8.273
78052SOL     OW36052  13.412   4.415   5.013
78052SOL    HW136053  13.332   4.467   5.005
78052SOL    HW236054  13.390   4.330   4.976
78053SOL     OW36055   2.223   2.826   8.119
78053SOL    HW136056   2.195   2.871   8.198
78053SOL    HW236057   2.303   2.872   8.092
78054SOL     OW36058   3.854   3.234   9.985
78054SOL    HW136059   3.883   3.167  10.047
78054SOL    HW236060   3.855   3.316  10.036
78055SOL     OW36061  14.205   9.674   8.109
78055SOL    HW136062  14.128   9.659   8.165
78055SOL    HW236063  14.222   9.589   8.069
78056SOL     OW36064   9.506   9.442   3.285
78056SOL    HW136065   9.594   9.468   3.259
78056SOL    HW236066   9.512   9.348   3.302
78057SOL     OW36067   5.560   9.416   0.960
78057SOL    HW136068   5.623   9.438   0.891
78057SOL    HW236069   5.475   9.421   0.917
78058SOL     OW36070   2.746   2.393  14.862
78058SOL    HW136071   2.756   2.319  14.803
78058SOL    HW236072   2.716   2.465  14.807
78059SOL     OW36073  13.169   8.276   2.398
78059SOL    HW136074  13.132   8.281   2.486
78059SOL    HW236075  13.095   8.292   2.339
78060SOL     OW36076   1.571  11.061  10.749
78060SOL    HW136077   1.499  11.026  10.697
78060SOL    HW236078   1.637  11.088  10.685
78061SOL     OW36079  11.394  11.671   3.077
78061SOL    HW136080  11.337  11.614   3.026
78061SOL    HW236081  11.370  11.655   3.168
78062SOL     OW36082   8.434  10.657   6.126
78062SOL    HW136083   8.424  10.712   6.204
78062SOL    HW236084   8.353  10.672   6.077
78063SOL     OW36085   3.375  10.767   0.096
78063SOL    HW136086   3.393  10.738   0.186
78063SOL    HW236087   3.435  10.840   0.083
78064SOL     OW36088  13.029   0.725   9.217
78064SOL    HW136089  13.083   0.731   9.296
78064SOL    HW236090  13.061   0.795   9.160
78065SOL     OW36091  10.643  10.381   8.974
78065SOL    HW136092  10.702  10.380   8.899
78065SOL    HW236093  10.671  10.456   9.027
78066SOL     OW36094  13.605   9.521   3.920
78066SOL    HW136095  13.661   9.591   3.887
78066SOL    HW236096  13.567   9.481   3.842
78067SOL     OW36097   6.318   1.659   4.546
78067SOL    HW136098   6.319   1.706   4.463
78067SOL    HW236099   6.289   1.570   4.522
78068SOL     OW36100  10.080  13.907   9.998
78068SOL    HW136101  10.073  14.003   9.990
78068SOL    HW236102   9.995  13.880  10.032
78069SOL     OW36103   0.784   6.366  11.833
78069SOL    HW136104   0.866   6.327  11.861
78069SOL    HW236105   0.783   6.355  11.738
78070SOL     OW36106   9.402   6.607   9.482
78070SOL    HW136107   9.497   6.601   9.472
78070SOL    HW236108   9.368   6.531   9.436
78071SOL     OW36109  10.564   8.501  10.367
78071SOL    HW136110  10.651   8.513  10.328
78071SOL    HW236111  10.508   8.479  10.292
78072SOL     OW36112  12.168   6.046   9.025
78072SOL    HW136113  12.173   6.085   9.112
78072SOL    HW236114  12.108   5.972   9.034
78073SOL     OW36115   3.713  10.100   6.676
78073SOL    HW136116   3.722  10.006   6.696
78073SOL    HW236117   3.784  10.141   6.725
78074SOL     OW36118   4.184   4.838   8.044
78074SOL    HW136119   4.251   4.905   8.064
78074SOL    HW236120   4.124   4.882   7.984
78075SOL     OW36121   8.998   0.769   2.124
78075SOL    HW136122   8.961   0.784   2.211
78075SOL    HW236123   8.945   0.824   2.066
78076SOL     OW36124   4.436   7.256  13.670
78076SOL    HW136125   4.508   7.205  13.706
78076SOL    HW236126   4.448   7.344  13.706
78077SOL     OW36127   6.723   7.207   4.692
78077SOL    HW136128   6.799   7.168   4.736
78077SOL    HW236129   6.721   7.298   4.724
78078SOL     OW36130  12.296   9.497  14.660
78078SOL    HW136131  12.225   9.560  14.672
78078SOL    HW236132  12.252   9.414  14.642
78079SOL     OW36133  11.710   2.297  11.900
78079SOL    HW136134  11.662   2.349  11.835
78079SOL    HW236135  11.786   2.349  11.922
78080SOL     OW36136  10.921   7.540   8.098
78080SOL    HW136137  10.845   7.488   8.073
78080SOL    HW236138  10.887   7.627   8.114
78081SOL     OW36139   9.966   0.806   0.250
78081SOL    HW136140   9.923   0.803   0.165
78081SOL    HW236141   9.973   0.715   0.277
78082SOL     OW36142  10.890   7.707   5.063
78082SOL    HW136143  10.794   7.702   5.071
78082SOL    HW236144  10.921   7.694   5.153
78083SOL     OW36145  14.679   3.935  13.040
78083SOL    HW136146  14.670   4.014  13.094
78083SOL    HW236147  14.702   3.968  12.953
78084SOL     OW36148   4.984   0.907   3.611
78084SOL    HW136149   4.973   0.914   3.706
78084SOL    HW236150   4.942   0.824   3.588
78085SOL     OW36151   0.741   8.541  11.632
78085SOL    HW136152   0.647   8.526  11.647
78085SOL    HW236153   0.782   8.456  11.647
78086SOL     OW36154   5.277   2.398   8.540
78086SOL    HW136155   5.310   2.436   8.459
78086SOL    HW236156   5.213   2.461   8.572
78087SOL     OW36157   2.305   3.723   7.462
78087SOL    HW136158   2.266   3.752   7.545
78087SOL    HW236159   2.249   3.760   7.394
78088SOL     OW36160  11.237   0.799  12.063
78088SOL    HW136161  11.281   0.761  11.988
78088SOL    HW236162  11.292   0.874  12.087
78089SOL     OW36163   3.614   2.354   2.792
78089SOL    HW136164   3.600   2.267   2.754
78089SOL    HW236165   3.560   2.354   2.872
78090SOL     OW36166   7.712  10.662  12.742
78090SOL    HW136167   7.627  10.675  12.699
78090SOL    HW236168   7.712  10.570  12.768
78091SOL     OW36169   7.404   9.183   0.804
78091SOL    HW136170   7.343   9.150   0.869
78091SOL    HW236171   7.479   9.123   0.808
78092SOL     OW36172   3.719  12.802   0.837
78092SOL    HW136173   3.710  12.887   0.793
78092SOL    HW236174   3.781  12.753   0.782
78093SOL     OW36175   9.575  11.745   5.453
78093SOL    HW136176   9.650  11.690   5.432
78093SOL    HW236177   9.503  11.684   5.470
78094SOL     OW36178   1.008   4.067   8.337
78094SOL    HW136179   0.943   4.057   8.267
78094SOL    HW236180   0.989   3.996   8.398
78095SOL     OW36181   0.732  11.760  13.085
78095SOL    HW136182   0.760  11.801  13.003
78095SOL    HW236183   0.761  11.821  13.154
78096SOL     OW36184  11.828   8.716  14.010
78096SOL    HW136185  11.748   8.744  14.054
78096SOL    HW236186  11.895   8.775  14.042
78097SOL     OW36187  13.592  14.075  11.201
78097SOL    HW136188  13.511  14.107  11.162
78097SOL    HW236189  13.578  13.981  11.213
78098SOL     OW36190   3.804   6.241   2.656
78098SOL    HW136191   3.787   6.147   2.645
78098SOL    HW236192   3.891   6.245   2.696
78099SOL     OW36193   2.615  11.326  14.421
78099SOL    HW136194   2.679  11.258  14.443
78099SOL    HW236195   2.664  11.387  14.366
78100SOL     OW36196   2.242   2.448   7.634
78100SOL    HW136197   2.208   2.413   7.552
78100SOL    HW236198   2.183   2.520   7.656
78101SOL     OW36199   5.194  11.719   2.295
78101SOL    HW136200   5.286  11.706   2.270
78101SOL    HW236201   5.159  11.631   2.306
78102SOL     OW36202   4.512   5.494   3.911
78102SOL    HW136203   4.458   5.550   3.855
78102SOL    HW236204   4.529   5.417   3.858
78103SOL     OW36205   5.405  14.017   9.789
78103SOL    HW136206   5.375  13.927   9.798
78103SOL    HW236207   5.493  14.010   9.751
78104SOL     OW36208   2.274   5.574   2.942
78104SOL    HW136209   2.213   5.536   2.878
78104SOL    HW236210   2.358   5.531   2.923
78105SOL     OW36211   1.762  14.172   2.407
78105SOL    HW136212   1.758  14.214   2.493
78105SOL    HW236213   1.684  14.205   2.361
78106SOL     OW36214  10.137  13.889  12.683
78106SOL    HW136215  10.158  13.838  12.761
78106SOL    HW236216  10.222  13.919  12.650
78107SOL     OW36217  14.150  10.826   6.469
78107SOL    HW136218  14.154  10.922   6.471
78107SOL    HW236219  14.156  10.801   6.561
78108SOL     OW36220  12.767  11.009   6.526
78108SOL    HW136221  12.792  10.985   6.436
78108SOL    HW236222  12.675  10.983   6.532
78109SOL     OW36223  10.223   2.479  10.683
78109SOL    HW136224  10.173   2.454  10.761
78109SOL    HW236225  10.206   2.409  10.620
78110SOL     OW36226  13.154  13.978   5.982
78110SOL    HW136227  13.089  14.034   5.939
78110SOL    HW236228  13.112  13.893   5.988
78111SOL     OW36229   6.871  13.697  11.094
78111SOL    HW136230   6.894  13.745  11.173
78111SOL    HW236231   6.843  13.764  11.032
78112SOL     OW36232   9.202  11.175  14.827
78112SOL    HW136233   9.146  11.112  14.781
78112SOL    HW236234   9.179  11.260  14.789
78113SOL     OW36235   1.092   7.795   4.563
78113SOL    HW136236   1.126   7.866   4.618
78113SOL    HW236237   1.169   7.756   4.524
78114SOL     OW36238   6.079   0.758   9.115
78114SOL    HW136239   6.082   0.666   9.092
78114SOL    HW236240   6.006   0.794   9.065
78115SOL     OW36241   0.556  10.521   2.256
78115SOL    HW136242   0.541  10.435   2.217
78115SOL    HW236243   0.650  10.536   2.245
78116SOL     OW36244   5.352   8.114   3.695
78116SOL    HW136245   5.276   8.118   3.753
78116SOL    HW236246   5.427   8.117   3.754
78117SOL     OW36247   6.319  10.992  10.312
78117SOL    HW136248   6.315  10.948  10.226
78117SOL    HW236249   6.236  11.039  10.318
78118SOL     OW36250   2.635   6.558   4.945
78118SOL    HW136251   2.670   6.545   4.857
78118SOL    HW236252   2.712   6.555   5.002
78119SOL     OW36253   2.816   1.308   3.672
78119SOL    HW136254   2.788   1.267   3.754
78119SOL    HW236255   2.770   1.258   3.604
78120SOL     OW36256  14.030   4.973  12.970
78120SOL    HW136257  14.058   5.008  13.054
78120SOL    HW236258  13.955   4.918  12.990
78121SOL     OW36259   7.508   1.207  13.640
78121SOL    HW136260   7.431   1.201  13.583
78121SOL    HW236261   7.578   1.168  13.588
78122SOL     OW36262  11.550  12.865   5.980
78122SOL    HW136263  11.567  12.815   6.060
78122SOL    HW236264  11.455  12.869   5.974
78123SOL     OW36265   0.112   2.882   1.706
78123SOL    HW136266   0.109   2.976   1.689
78123SOL    HW236267   0.204   2.858   1.694
78124SOL     OW36268   9.722   2.863  10.481
78124SOL    HW136269   9.731   2.949  10.442
78124SOL    HW236270   9.645   2.870  10.537
78125SOL     OW36271   7.793  10.173   4.818
78125SOL    HW136272   7.748  10.197   4.736
78125SOL    HW236273   7.853  10.246   4.833
78126SOL     OW36274   4.994  14.387   3.929
78126SOL    HW136275   4.957  14.448   3.993
78126SOL    HW236276   5.088  14.391   3.945
78127SOL     OW36277  12.784   7.464   0.638
78127SOL    HW136278  12.802   7.496   0.550
78127SOL    HW236279  12.779   7.543   0.692
78128SOL     OW36280   4.275   4.688  12.264
78128SOL    HW136281   4.277   4.633  12.185
78128SOL    HW236282   4.361   4.729  12.267
78129SOL     OW36283   5.505   1.201  11.099
78129SOL    HW136284   5.471   1.164  11.181
78129SOL    HW236285   5.427   1.229  11.051
78130SOL     OW36286  10.187  10.376  14.670
78130SOL    HW136287  10.161  10.366  14.579
78130SOL    HW236288  10.113  10.343  14.721
78131SOL     OW36289   7.213  13.738  11.032
78131SOL    HW136290   7.163  13.751  10.952
78131SOL    HW236291   7.242  13.825  11.057
78132SOL     OW36292  13.117   6.317   1.537
78132SOL    HW136293  13.100   6.357   1.452
78132SOL    HW236294  13.211   6.330   1.552
78133SOL     OW36295   7.083   7.144   1.785
78133SOL    HW136296   7.032   7.064   1.768
78133SOL    HW236297   7.069   7.162   1.878
78134SOL     OW36298   4.878   6.497   6.487
78134SOL    HW136299   4.861   6.580   6.443
78134SOL    HW236300   4.814   6.494   6.558
78135SOL     OW36301   7.611   1.283   2.963
78135SOL    HW136302   7.579   1.287   3.053
78135SOL    HW236303   7.697   1.241   2.970
78136SOL     OW36304   3.168   0.898  11.464
78136SOL    HW136305   3.150   0.990  11.443
78136SOL    HW236306   3.263   0.893  11.467
78137SOL     OW36307   6.789   6.001   1.638
78137SOL    HW136308   6.724   6.017   1.569
78137SOL    HW236309   6.771   5.912   1.667
78138SOL     OW36310   5.302   3.277  13.558
78138SOL    HW136311   5.326   3.227  13.636
78138SOL    HW236312   5.355   3.356  13.563
78139SOL     OW36313  14.130   1.868   8.683
78139SOL    HW136314  14.158   1.956   8.658
78139SOL    HW236315  14.083   1.836   8.605
78140SOL     OW36316   1.240   9.267   2.913
78140SOL    HW136317   1.160   9.230   2.948
78140SOL    HW236318   1.266   9.332   2.978
78141SOL     OW36319  12.709   3.440   6.559
78141SOL    HW136320  12.775   3.476   6.618
78141SOL    HW236321  12.741   3.464   6.471
78142SOL     OW36322   8.513   1.968   4.115
78142SOL    HW136323   8.437   2.025   4.101
78142SOL    HW236324   8.495   1.890   4.062
78143SOL     OW36325   5.042   5.807   2.155
78143SOL    HW136326   4.992   5.753   2.093
78143SOL    HW236327   5.015   5.776   2.241
78144SOL     OW36328   4.606  11.497   5.501
78144SOL    HW136329   4.586  11.421   5.556
78144SOL    HW236330   4.643  11.561   5.562
78145SOL     OW36331   8.665   3.538   1.025
78145SOL    HW136332   8.590   3.479   1.026
78145SOL    HW236333   8.737   3.485   0.991
78146SOL     OW36334   6.991   6.791   3.218
78146SOL    HW136335   6.948   6.844   3.285
78146SOL    HW236336   7.085   6.801   3.236
78147SOL     OW36337  14.696  10.333   0.386
78147SOL    HW136338  14.704  10.363   0.476
78147SOL    HW236339  14.770  10.374   0.340
78148SOL     OW36340   9.157   9.295  11.707
78148SOL    HW136341   9.227   9.278  11.643
78148SOL    HW236342   9.090   9.340  11.656
78149SOL     OW36343   6.197   9.220   4.983
78149SOL    HW136344   6.261   9.164   5.026
78149SOL    HW236345   6.241   9.251   4.904
78150SOL     OW36346   8.250   1.998   3.931
78150SOL    HW136347   8.232   2.030   3.842
78150SOL    HW236348   8.170   2.019   3.980
78151SOL     OW36349  11.301  11.684  14.808
78151SOL    HW136350  11.268  11.755  14.864
78151SOL    HW236351  11.269  11.604  14.849
78152SOL     OW36352  10.124   9.757   9.663
78152SOL    HW136353  10.109   9.677   9.714
78152SOL    HW236354  10.196   9.735   9.604
78153SOL     OW36355   6.742   6.627  11.295
78153SOL    HW136356   6.814   6.670  11.341
78153SOL    HW236357   6.763   6.637  11.202
78154SOL     OW36358   1.241  10.923  13.118
78154SOL    HW136359   1.169  10.961  13.068
78154SOL    HW236360   1.312  10.913  13.055
78155SOL     OW36361  11.623  13.788   0.643
78155SOL    HW136362  11.709  13.830   0.652
78155SOL    HW236363  11.569  13.852   0.598
78156SOL     OW36364   7.380   8.710   7.107
78156SOL    HW136365   7.424   8.781   7.060
78156SOL    HW236366   7.324   8.755   7.171
78157SOL     OW36367   7.608   1.960  11.937
78157SOL    HW136368   7.582   2.019  11.866
78157SOL    HW236369   7.689   1.919  11.906
78158SOL     OW36370  10.244   3.933   8.600
78158SOL    HW136371  10.160   3.902   8.634
78158SOL    HW236372  10.234   4.028   8.597
78159SOL     OW36373   9.764  10.436   7.122
78159SOL    HW136374   9.671  10.450   7.102
78159SOL    HW236375   9.810  10.477   7.049
78160SOL     OW36376   9.635  12.904   5.740
78160SOL    HW136377   9.665  12.991   5.767
78160SOL    HW236378   9.615  12.913   5.647
78161SOL     OW36379  12.829  10.105   1.847
78161SOL    HW136380  12.809  10.016   1.874
78161SOL    HW236381  12.921  10.102   1.819
78162SOL     OW36382   2.639  10.816   3.010
78162SOL    HW136383   2.597  10.901   3.008
78162SOL    HW236384   2.579  10.758   2.963
78163SOL     OW36385  11.957   7.065   0.692
78163SOL    HW136386  12.023   7.101   0.632
78163SOL    HW236387  11.934   7.138   0.749
78164SOL     OW36388  11.873  13.548   4.971
78164SOL    HW136389  11.829  13.621   5.015
78164SOL    HW236390  11.881  13.576   4.880
78165SOL     OW36391   8.261  10.218   5.067
78165SOL    HW136392   8.235  10.254   5.152
78165SOL    HW236393   8.278  10.125   5.084
78166SOL     OW36394  12.787  11.883   1.582
78166SOL    HW136395  12.731  11.823   1.532
78166SOL    HW236396  12.838  11.930   1.515
78167SOL     OW36397   9.919  10.700   1.387
78167SOL    HW136398   9.876  10.679   1.305
78167SOL    HW236399   9.976  10.625   1.404
78168SOL     OW36400   1.319   2.278   0.976
78168SOL    HW136401   1.250   2.296   1.039
78168SOL    HW236402   1.397   2.318   1.015
78169SOL     OW36403  14.075   5.407  12.290
78169SOL    HW136404  14.103   5.378  12.203
78169SOL    HW236405  14.157   5.427  12.336
78170SOL     OW36406   5.181   6.217  11.532
78170SOL    HW136407   5.151   6.307  11.522
78170SOL    HW236408   5.181   6.181  11.443
78171SOL     OW36409  11.508  10.348  11.914
78171SOL    HW136410  11.515  10.372  11.822
78171SOL    HW236411  11.467  10.423  11.956
78172SOL     OW36412   0.494  10.004   3.402
78172SOL    HW136413   0.569  10.063   3.388
78172SOL    HW236414   0.440  10.050   3.466
78173SOL     OW36415  13.363  10.505  12.751
78173SOL    HW136416  13.446  10.528  12.709
78173SOL    HW236417  13.360  10.561  12.829
78174SOL     OW36418   9.712   7.768  13.434
78174SOL    HW136419   9.737   7.787  13.344
78174SOL    HW236420   9.643   7.832  13.454
78175SOL     OW36421  12.690   1.484   8.304
78175SOL    HW136422  12.616   1.443   8.260
78175SOL    HW236423  12.729   1.542   8.238
78176SOL     OW36424   5.739  14.748   1.106
78176SOL    HW136425   5.813  14.714   1.156
78176SOL    HW236426   5.663  14.733   1.163
78177SOL     OW36427   6.198   4.157   0.306
78177SOL    HW136428   6.164   4.150   0.217
78177SOL    HW236429   6.120   4.166   0.361
78178SOL     OW36430   5.841  11.076   9.082
78178SOL    HW136431   5.812  11.135   9.152
78178SOL    HW236432   5.768  11.075   9.020
78179SOL     OW36433   4.664   9.372  13.062
78179SOL    HW136434   4.664   9.331  12.976
78179SOL    HW236435   4.574   9.363  13.094
78180SOL     OW36436   3.839   6.848  11.004
78180SOL    HW136437   3.758   6.835  11.053
78180SOL    HW236438   3.844   6.773  10.946
78181SOL     OW36439   9.910   6.143  13.582
78181SOL    HW136440   9.844   6.211  13.595
78181SOL    HW236441   9.887   6.075  13.646
78182SOL     OW36442  13.314   8.705   7.171
78182SOL    HW136443  13.316   8.742   7.260
78182SOL    HW236444  13.244   8.640   7.175
78183SOL     OW36445   7.464   1.551   3.096
78183SOL    HW136446   7.486   1.468   3.139
78183SOL    HW236447   7.386   1.531   3.045
78184SOL     OW36448  13.839   4.273  11.918
78184SOL    HW136449  13.821   4.356  11.962
78184SOL    HW236450  13.927   4.283  11.882
78185SOL     OW36451   3.075   9.351   6.506
78185SOL    HW136452   3.115   9.387   6.427
78185SOL    HW236453   3.148   9.316   6.556
78186SOL     OW36454  10.789  11.460  12.881
78186SOL    HW136455  10.740  11.417  12.951
78186SOL    HW236456  10.855  11.512  12.926
78187SOL     OW36457   8.916   6.970  13.257
78187SOL    HW136458   8.947   6.968  13.347
78187SOL    HW236459   8.907   6.878  13.232
78188SOL     OW36460  14.850  10.268   3.269
78188SOL    HW136461   0.006  10.206   3.201
78188SOL    HW236462   0.043  10.253   3.340
78189SOL     OW36463   4.413   6.062   0.067
78189SOL    HW136464   4.369   5.993   0.117
78189SOL    HW236465   4.426   6.133   0.130
78190SOL     OW36466   8.089   5.590   7.626
78190SOL    HW136467   8.103   5.566   7.535
78190SOL    HW236468   8.176   5.579   7.667
78191SOL     OW36469   8.311   1.789  11.606
78191SOL    HW136470   8.240   1.823  11.662
78191SOL    HW236471   8.356   1.725  11.661
78192SOL     OW36472   2.462   2.565  12.569
78192SOL    HW136473   2.479   2.486  12.620
78192SOL    HW236474   2.542   2.579  12.519
78193SOL     OW36475  10.433   5.102   1.366
78193SOL    HW136476  10.498   5.074   1.302
78193SOL    HW236477  10.366   5.033   1.365
78194SOL     OW36478  10.353  12.326   8.298
78194SOL    HW136479  10.380  12.399   8.353
78194SOL    HW236480  10.265  12.350   8.267
78195SOL     OW36481   9.342  10.022  13.388
78195SOL    HW136482   9.251   9.990  13.383
78195SOL    HW236483   9.343  10.079  13.465
78196SOL     OW36484  12.222   2.103   9.455
78196SOL    HW136485  12.227   2.089   9.361
78196SOL    HW236486  12.313   2.099   9.485
78197SOL     OW36487   3.431   9.097  10.876
78197SOL    HW136488   3.461   9.026  10.932
78197SOL    HW236489   3.499   9.165  10.886
78198SOL     OW36490  14.584  11.193   9.624
78198SOL    HW136491  14.667  11.162   9.660
78198SOL    HW236492  14.599  11.285   9.603
78199SOL     OW36493  11.999  12.602   0.532
78199SOL    HW136494  11.956  12.545   0.595
78199SOL    HW236495  11.940  12.677   0.523
78200SOL     OW36496   4.470   8.696   2.284
78200SOL    HW136497   4.509   8.619   2.326
78200SOL    HW236498   4.425   8.660   2.207
78201SOL     OW36499   1.030   0.912   7.374
78201SOL    HW136500   0.958   0.943   7.320
78201SOL    HW236501   0.993   0.837   7.421
78202SOL     OW36502   8.835   6.424   3.174
78202SOL    HW136503   8.769   6.380   3.121
78202SOL    HW236504   8.790   6.446   3.255
78203SOL     OW36505   8.810  12.173  10.550
78203SOL    HW136506   8.864  12.196  10.474
78203SOL    HW236507   8.758  12.098  10.521
78204SOL     OW36508  10.996   8.932  11.709
78204SOL    HW136509  10.931   8.962  11.773
78204SOL    HW236510  11.066   8.997  11.715
78205SOL     OW36511   3.803  10.202   5.148
78205SOL    HW136512   3.757  10.286   5.140
78205SOL    HW236513   3.776  10.153   5.070
78206SOL     OW36514   8.408  10.210   5.998
78206SOL    HW136515   8.325  10.228   6.043
78206SOL    HW236516   8.474  10.257   6.050
78207SOL     OW36517   1.945   9.943   2.303
78207SOL    HW136518   1.900   9.927   2.386
78207SOL    HW236519   2.038   9.932   2.324
78208SOL     OW36520  14.148   9.359   3.239
78208SOL    HW136521  14.153   9.410   3.158
78208SOL    HW236522  14.170   9.269   3.213
78209SOL     OW36523   9.579  11.890   4.281
78209SOL    HW136524   9.486  11.885   4.258
78209SOL    HW236525   9.601  11.983   4.273
78210SOL     OW36526   4.073   6.631   1.945
78210SOL    HW136527   4.006   6.699   1.938
78210SOL    HW236528   4.119   6.652   2.027
78211SOL     OW36529   2.920  13.743   1.893
78211SOL    HW136530   2.977  13.673   1.925
78211SOL    HW236531   2.949  13.821   1.940
78212SOL     OW36532   1.456   9.872   9.286
78212SOL    HW136533   1.461   9.916   9.201
78212SOL    HW236534   1.537   9.821   9.292
78213SOL     OW36535   2.444   9.375   7.617
78213SOL    HW136536   2.352   9.379   7.591
78213SOL    HW236537   2.445   9.322   7.697
78214SOL     OW36538   0.243   4.041   7.261
78214SOL    HW136539   0.161   4.091   7.266
78214SOL    HW236540   0.218   3.959   7.218
78215SOL     OW36541  14.069   3.121   9.070
78215SOL    HW136542  13.999   3.062   9.096
78215SOL    HW236543  14.024   3.193   9.026
78216SOL     OW36544  13.182   8.884   2.693
78216SOL    HW136545  13.159   8.818   2.627
78216SOL    HW236546  13.176   8.837   2.776
78217SOL     OW36547  14.862  10.958  11.312
78217SOL    HW136548  14.848  10.875  11.266
78217SOL    HW236549   0.074  10.992  11.275
78218SOL     OW36550   3.100   1.239   3.910
78218SOL    HW136551   3.112   1.148   3.937
78218SOL    HW236552   3.015   1.264   3.948
78219SOL     OW36553  10.255   8.401   7.583
78219SOL    HW136554  10.301   8.469   7.632
78219SOL    HW236555  10.193   8.364   7.645
78220SOL     OW36556  14.150   7.496  14.041
78220SOL    HW136557  14.080   7.551  14.075
78220SOL    HW236558  14.136   7.494  13.946
78221SOL     OW36559   2.052   8.463  11.781
78221SOL    HW136560   2.005   8.382  11.799
78221SOL    HW236561   2.141   8.434  11.759
78222SOL     OW36562   4.005   2.890  10.815
78222SOL    HW136563   3.924   2.868  10.770
78222SOL    HW236564   4.069   2.903  10.745
78223SOL     OW36565   3.953   0.817   2.255
78223SOL    HW136566   4.044   0.832   2.230
78223SOL    HW236567   3.915   0.774   2.179
78224SOL     OW36568   9.314   2.945   7.331
78224SOL    HW136569   9.317   2.856   7.296
78224SOL    HW236570   9.324   2.933   7.426
78225SOL     OW36571   4.829  10.706   2.652
78225SOL    HW136572   4.861  10.795   2.640
78225SOL    HW236573   4.900  10.650   2.619
78226SOL     OW36574   8.371   9.669  14.513
78226SOL    HW136575   8.402   9.579  14.511
78226SOL    HW236576   8.276   9.661  14.506
78227SOL     OW36577   1.552  12.115  10.274
78227SOL    HW136578   1.496  12.108  10.197
78227SOL    HW236579   1.571  12.025  10.298
78228SOL     OW36580   2.062  11.217  14.789
78228SOL    HW136581   1.986  11.184  14.839
78228SOL    HW236582   2.138  11.184  14.837
78229SOL     OW36583   5.260  11.896   4.933
78229SOL    HW136584   5.254  11.991   4.943
78229SOL    HW236585   5.354  11.879   4.928
78230SOL     OW36586  11.803   3.108  14.852
78230SOL    HW136587  11.806   3.199  14.824
78230SOL    HW236588  11.784   3.059  14.772
78231SOL     OW36589   1.651   9.115   9.359
78231SOL    HW136590   1.602   9.194   9.336
78231SOL    HW236591   1.668   9.071   9.276
78232SOL     OW36592   9.827   0.886  10.203
78232SOL    HW136593   9.847   0.967  10.250
78232SOL    HW236594   9.895   0.880  10.135
78233SOL     OW36595   0.706   7.198   6.228
78233SOL    HW136596   0.634   7.260   6.233
78233SOL    HW236597   0.762   7.231   6.158
78234SOL     OW36598   5.740   3.972   5.426
78234SOL    HW136599   5.739   3.923   5.509
78234SOL    HW236600   5.744   3.905   5.358
78235SOL     OW36601  14.130   0.239   4.839
78235SOL    HW136602  14.131   0.330   4.868
78235SOL    HW236603  14.105   0.242   4.747
78236SOL     OW36604  14.672   8.628   4.773
78236SOL    HW136605  14.632   8.697   4.825
78236SOL    HW236606  14.620   8.627   4.692
78237SOL     OW36607   7.968   6.175  11.318
78237SOL    HW136608   7.909   6.244  11.347
78237SOL    HW236609   7.933   6.096  11.359
78238SOL     OW36610   9.231   6.767   0.498
78238SOL    HW136611   9.137   6.778   0.482
78238SOL    HW236612   9.262   6.712   0.426
78239SOL     OW36613   8.849  13.109  11.109
78239SOL    HW136614   8.890  13.062  11.182
78239SOL    HW236615   8.859  13.201  11.131
78240SOL     OW36616   1.080   5.859   2.544
78240SOL    HW136617   1.158   5.888   2.592
78240SOL    HW236618   1.014   5.925   2.564
78241SOL     OW36619   5.190  14.470  12.496
78241SOL    HW136620   5.096  14.450  12.494
78241SOL    HW236621   5.222  14.442  12.410
78242SOL     OW36622   1.553   9.047   0.828
78242SOL    HW136623   1.488   9.093   0.882
78242SOL    HW236624   1.606   8.998   0.890
78243SOL     OW36625   5.978   8.323   0.226
78243SOL    HW136626   5.966   8.229   0.235
78243SOL    HW236627   5.898   8.354   0.184
78244SOL     OW36628   8.791  14.192   7.592
78244SOL    HW136629   8.765  14.269   7.541
78244SOL    HW236630   8.816  14.127   7.526
78245SOL     OW36631   7.157   4.649   3.840
78245SOL    HW136632   7.249   4.624   3.833
78245SOL    HW236633   7.112   4.569   3.868
78246SOL     OW36634   2.555   4.004   7.382
78246SOL    HW136635   2.492   4.016   7.453
78246SOL    HW236636   2.513   4.045   7.306
78247SOL     OW36637   1.594  12.667   2.905
78247SOL    HW136638   1.564  12.718   2.830
78247SOL    HW236639   1.526  12.600   2.918
78248SOL     OW36640   9.027   8.032  12.426
78248SOL    HW136641   9.017   8.100  12.360
78248SOL    HW236642   8.938   8.010  12.452
78249SOL     OW36643   5.688   5.286  13.491
78249SOL    HW136644   5.642   5.215  13.538
78249SOL    HW236645   5.777   5.254  13.482
78250SOL     OW36646   5.583   9.956   1.065
78250SOL    HW136647   5.502  10.006   1.055
78250SOL    HW236648   5.579   9.925   1.155
78251SOL     OW36649   5.095  13.686   8.466
78251SOL    HW136650   5.159  13.750   8.434
78251SOL    HW236651   5.108  13.683   8.561
78252SOL     OW36652   1.014   6.114   0.743
78252SOL    HW136653   0.983   6.203   0.725
78252SOL    HW236654   1.083   6.098   0.678
78253SOL     OW36655   5.097   6.560  12.634
78253SOL    HW136656   5.158   6.632  12.615
78253SOL    HW236657   5.138   6.483  12.596
78254SOL     OW36658   9.891   9.151   8.295
78254SOL    HW136659   9.823   9.177   8.357
78254SOL    HW236660   9.886   9.216   8.225
78255SOL     OW36661   9.356   8.518   3.994
78255SOL    HW136662   9.374   8.436   4.041
78255SOL    HW236663   9.439   8.566   3.996
78256SOL     OW36664   4.076  14.213   4.199
78256SOL    HW136665   4.146  14.149   4.190
78256SOL    HW236666   4.047  14.231   4.110
78257SOL     OW36667   9.220   3.149  11.819
78257SOL    HW136668   9.192   3.058  11.833
78257SOL    HW236669   9.149   3.188  11.769
78258SOL     OW36670  13.998   7.511   9.489
78258SOL    HW136671  13.955   7.532   9.406
78258SOL    HW236672  13.932   7.532   9.556
78259SOL     OW36673  13.791  10.671  12.319
78259SOL    HW136674  13.881  10.699  12.305
78259SOL    HW236675  13.784  10.657  12.413
78260SOL     OW36676  14.868  13.185  11.051
78260SOL    HW136677   0.026  13.105  11.006
78260SOL    HW236678  14.863  13.251  10.983
78261SOL     OW36679   9.606   6.704   8.735
78261SOL    HW136680   9.669   6.775   8.742
78261SOL    HW236681   9.528   6.743   8.695
78262SOL     OW36682   2.682   2.344   0.881
78262SOL    HW136683   2.656   2.252   0.880
78262SOL    HW236684   2.734   2.353   0.961
78263SOL     OW36685   5.009  10.390   5.122
78263SOL    HW136686   5.095  10.365   5.154
78263SOL    HW236687   5.008  10.486   5.129
78264SOL     OW36688  13.752  10.249   4.909
78264SOL    HW136689  13.813  10.197   4.858
78264SOL    HW236690  13.667  10.209   4.893
78265SOL     OW36691   7.047   4.233   5.311
78265SOL    HW136692   7.040   4.328   5.319
78265SOL    HW236693   6.985   4.210   5.242
78266SOL     OW36694   9.898   0.733   8.364
78266SOL    HW136695   9.900   0.792   8.439
78266SOL    HW236696   9.841   0.776   8.300
78267SOL     OW36697   8.600   3.322  10.505
78267SOL    HW136698   8.678   3.369  10.535
78267SOL    HW236699   8.539   3.390  10.479
78268SOL     OW36700   4.926  13.096   1.759
78268SOL    HW136701   4.947  13.170   1.816
78268SOL    HW236702   4.834  13.078   1.776
78269SOL     OW36703  13.217   1.887   8.743
78269SOL    HW136704  13.275   1.963   8.747
78269SOL    HW236705  13.212   1.866   8.650
78270SOL     OW36706   3.245  11.619   9.314
78270SOL    HW136707   3.209  11.548   9.260
78270SOL    HW236708   3.206  11.698   9.277
78271SOL     OW36709   5.063   3.477   4.588
78271SOL    HW136710   4.971   3.475   4.561
78271SOL    HW236711   5.106   3.415   4.530
78272SOL     OW36712  12.002   8.990   4.610
78272SOL    HW136713  12.032   8.962   4.696
78272SOL    HW236714  12.064   8.950   4.549
78273SOL     OW36715  13.607  12.859  10.769
78273SOL    HW136716  13.549  12.855  10.693
78273SOL    HW236717  13.569  12.796  10.832
78274SOL     OW36718  12.771   5.598   9.631
78274SOL    HW136719  12.814   5.655   9.695
78274SOL    HW236720  12.776   5.511   9.670
78275SOL     OW36721   3.523  12.896   9.553
78275SOL    HW136722   3.506  12.863   9.641
78275SOL    HW236723   3.574  12.827   9.511
78276SOL     OW36724   9.503   0.114   1.478
78276SOL    HW136725   9.453   0.036   1.503
78276SOL    HW236726   9.448   0.160   1.415
78277SOL     OW36727  12.934   0.601  13.612
78277SOL    HW136728  12.860   0.599  13.674
78277SOL    HW236729  12.967   0.690  13.617
78278SOL     OW36730  13.168   6.835   2.052
78278SOL    HW136731  13.106   6.897   2.013
78278SOL    HW236732  13.254   6.876   2.039
78279SOL     OW36733   0.404  14.739   4.607
78279SOL    HW136734   0.352  14.660   4.626
78279SOL    HW236735   0.394  14.751   4.512
78280SOL     OW36736  11.901  14.589   5.553
78280SOL    HW136737  11.865  14.580   5.642
78280SOL    HW236738  11.971  14.654   5.562
78281SOL     OW36739   5.464   3.358   4.979
78281SOL    HW136740   5.479   3.276   4.933
78281SOL    HW236741   5.414   3.412   4.917
78282SOL     OW36742  14.182   9.970   0.793
78282SOL    HW136743  14.161  10.056   0.831
78282SOL    HW236744  14.222   9.991   0.708
78283SOL     OW36745  10.118  12.984   8.344
78283SOL    HW136746  10.094  13.030   8.425
78283SOL    HW236747  10.073  13.033   8.275
78284SOL     OW36748   6.421  11.603   2.756
78284SOL    HW136749   6.383  11.607   2.669
78284SOL    HW236750   6.457  11.690   2.771
78285SOL     OW36751   6.802  12.126   7.460
78285SOL    HW136752   6.817  12.183   7.535
78285SOL    HW236753   6.885  12.082   7.445
78286SOL     OW36754  10.694   7.323   6.466
78286SOL    HW136755  10.650   7.389   6.413
78286SOL    HW236756  10.624   7.261   6.490
78287SOL     OW36757  13.735   2.265   5.283
78287SOL    HW136758  13.774   2.238   5.200
78287SOL    HW236759  13.655   2.213   5.290
78288SOL     OW36760   7.220   7.691   5.877
78288SOL    HW136761   7.284   7.671   5.809
78288SOL    HW236762   7.155   7.620   5.870
78289SOL     OW36763   7.898  13.154   2.482
78289SOL    HW136764   7.825  13.121   2.535
78289SOL    HW236765   7.935  13.077   2.441
78290SOL     OW36766   2.137  12.474  11.111
78290SOL    HW136767   2.108  12.399  11.059
78290SOL    HW236768   2.056  12.522  11.131
78291SOL     OW36769  10.341  14.049   8.388
78291SOL    HW136770  10.338  13.980   8.454
78291SOL    HW236771  10.432  14.048   8.357
78292SOL     OW36772   1.349   6.080   5.546
78292SOL    HW136773   1.412   6.131   5.597
78292SOL    HW236774   1.265   6.122   5.563
78293SOL     OW36775  10.589   3.642  11.572
78293SOL    HW136776  10.676   3.679  11.556
78293SOL    HW236777  10.604   3.548  11.577
78294SOL     OW36778  10.477   1.616  10.065
78294SOL    HW136779  10.403   1.558  10.047
78294SOL    HW236780  10.449   1.702  10.035
78295SOL     OW36781  14.576   2.102   9.920
78295SOL    HW136782  14.486   2.071   9.911
78295SOL    HW236783  14.572   2.170   9.986
78296SOL     OW36784  11.302   6.937   3.917
78296SOL    HW136785  11.368   6.960   3.852
78296SOL    HW236786  11.251   7.017   3.929
78297SOL     OW36787   6.091  11.662   5.744
78297SOL    HW136788   6.186  11.660   5.732
78297SOL    HW236789   6.056  11.685   5.658
78298SOL     OW36790  12.630   2.705  11.384
78298SOL    HW136791  12.694   2.637  11.407
78298SOL    HW236792  12.569   2.705  11.458
78299SOL     OW36793   9.822   6.745   6.034
78299SOL    HW136794   9.843   6.826   5.988
78299SOL    HW236795   9.861   6.676   5.980
78300SOL     OW36796   4.524  11.611   1.592
78300SOL    HW136797   4.513  11.569   1.677
78300SOL    HW236798   4.540  11.539   1.531
78301SOL     OW36799   6.564  13.923   7.510
78301SOL    HW136800   6.488  13.948   7.564
78301SOL    HW236801   6.621  13.999   7.512
78302SOL     OW36802   2.875  11.857   1.364
78302SOL    HW136803   2.951  11.803   1.343
78302SOL    HW236804   2.908  11.927   1.418
78303SOL     OW36805  11.667  10.625  11.846
78303SOL    HW136806  11.704  10.702  11.803
78303SOL    HW236807  11.697  10.632  11.936
78304SOL     OW36808   9.984   5.604   6.337
78304SOL    HW136809   9.951   5.691   6.360
78304SOL    HW236810   9.991   5.606   6.241
78305SOL     OW36811  14.516   1.100   5.761
78305SOL    HW136812  14.466   1.122   5.840
78305SOL    HW236813  14.500   1.174   5.702
78306SOL     OW36814   6.000  13.376   5.292
78306SOL    HW136815   5.960  13.391   5.378
78306SOL    HW236816   5.946  13.309   5.251
78307SOL     OW36817  10.211   7.610   2.272
78307SOL    HW136818  10.295   7.646   2.298
78307SOL    HW236819  10.179   7.668   2.203
78308SOL     OW36820  14.753   9.077   8.930
78308SOL    HW136821  14.674   9.045   8.886
78308SOL    HW236822  14.808   8.999   8.941
78309SOL     OW36823  11.619  12.594   0.030
78309SOL    HW136824  11.698  12.647   0.033
78309SOL    HW236825  11.548  12.657   0.016
78310SOL     OW36826   9.586  12.684  13.275
78310SOL    HW136827   9.517  12.682  13.209
78310SOL    HW236828   9.643  12.756  13.247
78311SOL     OW36829   8.010   8.422  11.787
78311SOL    HW136830   7.994   8.328  11.785
78311SOL    HW236831   8.104   8.430  11.772
78312SOL     OW36832   8.182   1.104   4.991
78312SOL    HW136833   8.115   1.168   4.968
78312SOL    HW236834   8.175   1.095   5.086
78313SOL     OW36835   5.228   0.418  10.757
78313SOL    HW136836   5.293   0.473  10.712
78313SOL    HW236837   5.278   0.373  10.825
78314SOL     OW36838   0.915  13.774   1.910
78314SOL    HW136839   0.926  13.846   1.972
78314SOL    HW236840   0.955  13.805   1.829
78315SOL     OW36841   2.203   8.258   1.488
78315SOL    HW136842   2.289   8.284   1.456
78315SOL    HW236843   2.142   8.289   1.420
78316SOL     OW36844  12.029  10.300   3.688
78316SOL    HW136845  12.055  10.208   3.682
78316SOL    HW236846  12.010  10.313   3.781
78317SOL     OW36847   6.607   6.135   0.680
78317SOL    HW136848   6.528   6.189   0.671
78317SOL    HW236849   6.578   6.046   0.660
78318SOL     OW36850  13.153   1.216  13.786
78318SOL    HW136851  13.128   1.269  13.711
78318SOL    HW236852  13.128   1.269  13.862
78319SOL     OW36853   0.318  12.159   1.528
78319SOL    HW136854   0.382  12.165   1.457
78319SOL    HW236855   0.234  12.151   1.484
78320SOL     OW36856  12.956  10.558   4.177
78320SOL    HW136857  12.928  10.571   4.086
78320SOL    HW236858  13.052  10.560   4.172
78321SOL     OW36859   1.684   5.405   1.946
78321SOL    HW136860   1.736   5.372   1.873
78321SOL    HW236861   1.650   5.326   1.989
78322SOL     OW36862   8.955   9.373   4.940
78322SOL    HW136863   8.969   9.296   4.885
78322SOL    HW236864   8.899   9.341   5.011
78323SOL     OW36865   5.479  11.360   0.944
78323SOL    HW136866   5.409  11.396   0.889
78323SOL    HW236867   5.553  11.349   0.884
78324SOL     OW36868   0.484   0.146   9.875
78324SOL    HW136869   0.491   0.201   9.797
78324SOL    HW236870   0.448   0.063   9.843
78325SOL     OW36871   4.586   2.784  12.235
78325SOL    HW136872   4.643   2.808  12.308
78325SOL    HW236873   4.601   2.690  12.224
78326SOL     OW36874  12.512   5.164   6.059
78326SOL    HW136875  12.445   5.109   6.101
78326SOL    HW236876  12.519   5.128   5.971
78327SOL     OW36877   0.991   6.744   0.425
78327SOL    HW136878   1.069   6.798   0.412
78327SOL    HW236879   0.919   6.807   0.426
78328SOL     OW36880   3.061   1.157  13.005
78328SOL    HW136881   2.992   1.162  13.071
78328SOL    HW236882   3.066   1.063  12.983
78329SOL     OW36883   1.072   0.036   3.633
78329SOL    HW136884   1.033  14.862   3.708
78329SOL    HW236885   1.010   0.022   3.562
78330SOL     OW36886   7.701   3.720   0.294
78330SOL    HW136887   7.613   3.696   0.324
78330SOL    HW236888   7.758   3.659   0.340
78331SOL     OW36889   4.695  12.313   5.249
78331SOL    HW136890   4.662  12.244   5.191
78331SOL    HW236891   4.751  12.268   5.312
78332SOL     OW36892  11.870   4.624  12.453
78332SOL    HW136893  11.923   4.578  12.389
78332SOL    HW236894  11.804   4.561  12.481
78333SOL     OW36895  14.768   7.653   4.099
78333SOL    HW136896  14.788   7.740   4.134
78333SOL    HW236897  14.673   7.654   4.086
78334SOL     OW36898  12.679  11.672   1.451
78334SOL    HW136899  12.639  11.722   1.380
78334SOL    HW236900  12.696  11.586   1.413
78335SOL     OW36901  10.146   2.704   8.076
78335SOL    HW136902  10.088   2.759   8.023
78335SOL    HW236903  10.158   2.624   8.025
78336SOL     OW36904  12.394   9.184  13.246
78336SOL    HW136905  12.458   9.156  13.311
78336SOL    HW236906  12.321   9.219  13.298
78337SOL     OW36907   1.450   9.183   1.317
78337SOL    HW136908   1.456   9.088   1.329
78337SOL    HW236909   1.367   9.207   1.357
78338SOL     OW36910   1.913   6.433   9.396
78338SOL    HW136911   1.906   6.397   9.308
78338SOL    HW236912   1.993   6.395   9.432
78339SOL     OW36913   0.405   0.647  12.175
78339SOL    HW136914   0.460   0.596  12.234
78339SOL    HW236915   0.325   0.596  12.165
78340SOL     OW36916  10.726   9.079   3.239
78340SOL    HW136917  10.701   9.159   3.193
78340SOL    HW236918  10.819   9.067   3.218
78341SOL     OW36919   4.132   5.185   6.165
78341SOL    HW136920   4.058   5.220   6.115
78341SOL    HW236921   4.118   5.090   6.166
78342SOL     OW36922   0.427   8.804   6.480
78342SOL    HW136923   0.410   8.894   6.509
78342SOL    HW236924   0.507   8.810   6.428
78343SOL     OW36925  14.209   1.325   6.370
78343SOL    HW136926  14.268   1.277   6.428
78343SOL    HW236927  14.125   1.281   6.379
78344SOL     OW36928   7.768   2.056   6.330
78344SOL    HW136929   7.675   2.051   6.351
78344SOL    HW236930   7.786   1.976   6.281
78345SOL     OW36931   4.905   7.090   0.141
78345SOL    HW136932   4.812   7.069   0.150
78345SOL    HW236933   4.926   7.140   0.219
78346SOL     OW36934   3.888   2.357  13.415
78346SOL    HW136935   3.854   2.435  13.458
78346SOL    HW236936   3.848   2.284  13.462
78347SOL     OW36937   6.345  10.476   0.429
78347SOL    HW136938   6.406  10.550   0.426
78347SOL    HW236939   6.275  10.505   0.487
78348SOL     OW36940   2.467   6.612   9.925
78348SOL    HW136941   2.448   6.565   9.844
78348SOL    HW236942   2.561   6.628   9.923
78349SOL     OW36943   6.909   7.350  10.763
78349SOL    HW136944   6.967   7.343  10.688
78349SOL    HW236945   6.952   7.413  10.821
78350SOL     OW36946  12.141  10.470  14.481
78350SOL    HW136947  12.072  10.421  14.526
78350SOL    HW236948  12.193  10.403  14.437
78351SOL     OW36949   7.253   5.383   8.714
78351SOL    HW136950   7.340   5.382   8.673
78351SOL    HW236951   7.192   5.387   8.641
78352SOL     OW36952   1.492   3.160   0.394
78352SOL    HW136953   1.427   3.161   0.324
78352SOL    HW236954   1.441   3.153   0.474
78353SOL     OW36955   7.424   6.237  11.366
78353SOL    HW136956   7.403   6.328  11.387
78353SOL    HW236957   7.422   6.192  11.451
78354SOL     OW36958   0.067   8.328   7.169
78354SOL    HW136959   0.083   8.390   7.098
78354SOL    HW236960   0.153   8.318   7.212
78355SOL     OW36961   4.681   2.294   5.175
78355SOL    HW136962   4.700   2.380   5.213
78355SOL    HW236963   4.598   2.268   5.213
78356SOL     OW36964  10.059   2.255  14.324
78356SOL    HW136965  10.101   2.313  14.261
78356SOL    HW236966  10.056   2.170  14.281
78357SOL     OW36967  13.005   2.924   9.042
78357SOL    HW136968  12.910   2.913   9.051
78357SOL    HW236969  13.016   2.984   8.967
78358SOL     OW36970  14.147  12.794  12.063
78358SOL    HW136971  14.206  12.746  12.005
78358SOL    HW236972  14.085  12.729  12.095
78359SOL     OW36973   0.061  13.086  11.516
78359SOL    HW136974   0.138  13.092  11.459
78359SOL    HW236975  14.857  13.080  11.456
78360SOL     OW36976   0.826   1.314   8.382
78360SOL    HW136977   0.787   1.249   8.323
78360SOL    HW236978   0.916   1.325   8.350
78361SOL     OW36979   9.196   5.700   4.523
78361SOL    HW136980   9.208   5.778   4.469
78361SOL    HW236981   9.236   5.629   4.472
78362SOL     OW36982   2.343   1.915   9.282
78362SOL    HW136983   2.256   1.892   9.317
78362SOL    HW236984   2.331   2.002   9.245
78363SOL     OW36985   2.056   1.427   2.620
78363SOL    HW136986   2.094   1.477   2.548
78363SOL    HW236987   2.105   1.457   2.697
78364SOL     OW36988  12.496  11.376   9.052
78364SOL    HW136989  12.479  11.434   8.977
78364SOL    HW236990  12.420  11.318   9.056
78365SOL     OW36991   9.343  10.585   1.557
78365SOL    HW136992   9.261  10.591   1.507
78365SOL    HW236993   9.409  10.560   1.493
78366SOL     OW36994   7.069   9.195   2.318
78366SOL    HW136995   7.162   9.176   2.327
78366SOL    HW236996   7.030   9.166   2.401
78367SOL     OW36997   3.470   2.647   9.879
78367SOL    HW136998   3.426   2.682   9.957
78367SOL    HW236999   3.430   2.562   9.865
78368SOL     OW37000   2.303   5.393   1.779
78368SOL    HW137001   2.248   5.467   1.752
78368SOL    HW237002   2.392   5.430   1.782
78369SOL     OW37003  11.832   9.669  11.164
78369SOL    HW137004  11.859   9.755  11.197
78369SOL    HW237005  11.850   9.673  11.070
78370SOL     OW37006   0.028   0.256   6.294
78370SOL    HW137007   0.081   0.209   6.230
78370SOL    HW237008   0.061   0.346   6.293
78371SOL     OW37009   5.851   4.794  10.473
78371SOL    HW137010   5.790   4.834  10.411
78371SOL    HW237011   5.928   4.773  10.421
78372SOL     OW37012   6.414   6.517   3.844
78372SOL    HW137013   6.487   6.455   3.846
78372SOL    HW237014   6.355   6.487   3.914
78373SOL     OW37015   5.876   2.406  14.683
78373SOL    HW137016   5.916   2.353  14.614
78373SOL    HW237017   5.943   2.409  14.752
78374SOL     OW37018  10.313   2.926   0.767
78374SOL    HW137019  10.243   2.880   0.812
78374SOL    HW237020  10.365   2.966   0.836
78375SOL     OW37021   4.122  13.748  14.562
78375SOL    HW137022   4.177  13.806  14.509
78375SOL    HW237023   4.168  13.664  14.561
78376SOL     OW37024   4.217   5.245  10.069
78376SOL    HW137025   4.197   5.252  10.162
78376SOL    HW237026   4.166   5.315  10.028
78377SOL     OW37027  10.987   1.711   4.866
78377SOL    HW137028  11.051   1.659   4.817
78377SOL    HW237029  10.902   1.676   4.840
78378SOL     OW37030  12.307   5.195   8.602
78378SOL    HW137031  12.272   5.154   8.523
78378SOL    HW237032  12.307   5.289   8.582
78379SOL     OW37033   6.365   5.108  12.289
78379SOL    HW137034   6.442   5.058  12.263
78379SOL    HW237035   6.340   5.158  12.211
78380SOL     OW37036  13.421   0.496  11.011
78380SOL    HW137037  13.430   0.578  11.059
78380SOL    HW237038  13.337   0.503  10.966
78381SOL     OW37039   8.927   2.104   2.781
78381SOL    HW137040   8.838   2.086   2.812
78381SOL    HW237041   8.922   2.094   2.686
78382SOL     OW37042   6.292   1.814   4.324
78382SOL    HW137043   6.210   1.844   4.285
78382SOL    HW237044   6.335   1.765   4.254
78383SOL     OW37045   4.558   1.706   2.198
78383SOL    HW137046   4.486   1.769   2.199
78383SOL    HW237047   4.583   1.695   2.290
78384SOL     OW37048  11.521   7.335  13.021
78384SOL    HW137049  11.581   7.303  13.088
78384SOL    HW237050  11.570   7.403  12.975
78385SOL     OW37051  12.861   2.283   1.110
78385SOL    HW137052  12.767   2.297   1.110
78385SOL    HW237053  12.897   2.365   1.144
78386SOL     OW37054   4.008   8.729  13.780
78386SOL    HW137055   4.101   8.712  13.770
78386SOL    HW237056   3.969   8.697  13.698
78387SOL     OW37057   9.352   4.346  13.692
78387SOL    HW137058   9.423   4.356  13.756
78387SOL    HW237059   9.387   4.384  13.612
78388SOL     OW37060   9.546  14.350  13.749
78388SOL    HW137061   9.480  14.419  13.754
78388SOL    HW237062   9.628  14.394  13.773
78389SOL     OW37063   5.645   6.164   0.632
78389SOL    HW137064   5.635   6.225   0.705
78389SOL    HW237065   5.594   6.087   0.656
78390SOL     OW37066   0.765   0.105   9.383
78390SOL    HW137067   0.797   0.185   9.341
78390SOL    HW237068   0.670   0.113   9.381
78391SOL     OW37069   1.930   9.662   0.012
78391SOL    HW137070   1.951   9.665  14.789
78391SOL    HW237071   1.943   9.570   0.037
78392SOL     OW37072   9.442   5.036  12.259
78392SOL    HW137073   9.385   4.960  12.266
78392SOL    HW237074   9.530   5.001  12.269
78393SOL     OW37075  12.724  13.712   4.575
78393SOL    HW137076  12.669  13.719   4.653
78393SOL    HW237077  12.678  13.765   4.509
78394SOL     OW37078   4.185   6.074   1.982
78394SOL    HW137079   4.272   6.037   2.000
78394SOL    HW237080   4.136   6.059   2.062
78395SOL     OW37081   7.173   9.243   4.218
78395SOL    HW137082   7.200   9.199   4.299
78395SOL    HW237083   7.165   9.335   4.241
78396SOL     OW37084   4.687   5.994   6.473
78396SOL    HW137085   4.779   5.977   6.453
78396SOL    HW237086   4.673   5.953   6.558
78397SOL     OW37087   7.882   5.808   0.690
78397SOL    HW137088   7.854   5.899   0.686
78397SOL    HW237089   7.877   5.777   0.600
78398SOL     OW37090  14.747   1.109  14.583
78398SOL    HW137091  14.729   1.137  14.493
78398SOL    HW237092  14.748   1.190  14.634
78399SOL     OW37093   9.569   8.643   4.868
78399SOL    HW137094   9.637   8.585   4.902
78399SOL    HW237095   9.616   8.721   4.838
78400SOL     OW37096   0.639   3.628  10.655
78400SOL    HW137097   0.703   3.698  10.639
78400SOL    HW237098   0.681   3.571  10.719
78401SOL     OW37099   6.611   3.670   6.983
78401SOL    HW137100   6.601   3.722   7.063
78401SOL    HW237101   6.552   3.712   6.920
78402SOL     OW37102   9.010  12.419  11.424
78402SOL    HW137103   9.004  12.389  11.515
78402SOL    HW237104   9.100  12.399  11.398
78403SOL     OW37105   9.154   0.011   3.369
78403SOL    HW137106   9.080  14.820   3.379
78403SOL    HW237107   9.232  14.824   3.370
78404SOL     OW37108   9.012  14.648   6.625
78404SOL    HW137109   9.001  14.709   6.698
78404SOL    HW237110   9.038  14.703   6.552
78405SOL     OW37111  14.496   6.401   2.472
78405SOL    HW137112  14.591   6.394   2.476
78405SOL    HW237113  14.466   6.312   2.456
78406SOL     OW37114   7.009  12.188  11.895
78406SOL    HW137115   7.014  12.113  11.836
78406SOL    HW237116   7.075  12.249  11.862
78407SOL     OW37117   9.574   4.008  10.036
78407SOL    HW137118   9.519   4.078  10.070
78407SOL    HW237119   9.539   3.928  10.076
78408SOL     OW37120   6.326  10.040  12.962
78408SOL    HW137121   6.297   9.994  12.883
78408SOL    HW237122   6.403   9.991  12.990
78409SOL     OW37123   1.286   6.363  11.552
78409SOL    HW137124   1.376   6.364  11.586
78409SOL    HW237125   1.231   6.356  11.630
78410SOL     OW37126   7.497   5.150   4.972
78410SOL    HW137127   7.477   5.229   4.923
78410SOL    HW237128   7.450   5.160   5.055
78411SOL     OW37129  12.158   9.906  13.712
78411SOL    HW137130  12.247   9.934  13.734
78411SOL    HW237131  12.170   9.822  13.667
78412SOL     OW37132  14.497   3.075  11.377
78412SOL    HW137133  14.532   3.148  11.327
78412SOL    HW237134  14.443   3.115  11.445
78413SOL     OW37135   5.378   4.632   2.786
78413SOL    HW137136   5.452   4.686   2.813
78413SOL    HW237137   5.416   4.548   2.764
78414SOL     OW37138  13.980  14.042   8.907
78414SOL    HW137139  13.943  13.954   8.909
78414SOL    HW237140  14.028  14.050   8.990
78415SOL     OW37141   8.963   3.294   1.280
78415SOL    HW137142   9.022   3.255   1.344
78415SOL    HW237143   8.905   3.350   1.332
78416SOL     OW37144   5.828  13.992   4.117
78416SOL    HW137145   5.890  13.948   4.174
78416SOL    HW237146   5.770  13.923   4.086
78417SOL     OW37147   5.015   6.287  14.851
78417SOL    HW137148   4.954   6.270  14.780
78417SOL    HW237149   4.960   6.302   0.058
78418SOL     OW37150   9.652  11.141   9.958
78418SOL    HW137151   9.613  11.182   9.881
78418SOL    HW237152   9.667  11.050   9.931
78419SOL     OW37153   9.276   6.894  12.648
78419SOL    HW137154   9.185   6.891  12.677
78419SOL    HW237155   9.308   6.804  12.661
78420SOL     OW37156   6.281   8.809   5.872
78420SOL    HW137157   6.287   8.885   5.814
78420SOL    HW237158   6.335   8.742   5.829
78421SOL     OW37159   1.807   0.252  10.408
78421SOL    HW137160   1.859   0.232  10.487
78421SOL    HW237161   1.869   0.243  10.336
78422SOL     OW37162   4.110   4.823  12.666
78422SOL    HW137163   4.096   4.831  12.761
78422SOL    HW237164   4.134   4.911  12.638
78423SOL     OW37165   6.027  13.976   0.677
78423SOL    HW137166   6.071  14.042   0.623
78423SOL    HW237167   6.098  13.935   0.727
78424SOL     OW37168   1.395   3.424   7.466
78424SOL    HW137169   1.459   3.361   7.500
78424SOL    HW237170   1.442   3.507   7.462
78425SOL     OW37171   9.049   8.717   8.985
78425SOL    HW137172   9.058   8.736   8.892
78425SOL    HW237173   8.955   8.712   8.999
78426SOL     OW37174   6.161  10.497   2.532
78426SOL    HW137175   6.254  10.500   2.509
78426SOL    HW237176   6.121  10.440   2.467
78427SOL     OW37177   4.255  13.392   9.319
78427SOL    HW137178   4.273  13.325   9.253
78427SOL    HW237179   4.160  13.394   9.327
78428SOL     OW37180  14.756   8.065   0.818
78428SOL    HW137181  14.788   8.095   0.733
78428SOL    HW237182  14.826   8.008   0.851
78429SOL     OW37183   3.878   7.382  14.520
78429SOL    HW137184   3.918   7.296  14.516
78429SOL    HW237185   3.883   7.415  14.430
78430SOL     OW37186  12.250   8.040   6.626
78430SOL    HW137187  12.208   8.091   6.695
78430SOL    HW237188  12.182   8.032   6.558
78431SOL     OW37189  12.184   7.905   3.566
78431SOL    HW137190  12.140   7.985   3.536
78431SOL    HW237191  12.148   7.836   3.510
78432SOL     OW37192   3.254   9.775   8.579
78432SOL    HW137193   3.314   9.829   8.528
78432SOL    HW237194   3.308   9.738   8.649
78433SOL     OW37195   5.160   2.748   2.151
78433SOL    HW137196   5.072   2.711   2.142
78433SOL    HW237197   5.167   2.768   2.245
78434SOL     OW37198   2.745   4.248   5.667
78434SOL    HW137199   2.751   4.195   5.588
78434SOL    HW237200   2.836   4.272   5.687
78435SOL     OW37201  13.443   5.672   7.634
78435SOL    HW137202  13.495   5.726   7.695
78435SOL    HW237203  13.491   5.677   7.551
78436SOL     OW37204  11.264   5.032  10.302
78436SOL    HW137205  11.180   5.077  10.313
78436SOL    HW237206  11.327   5.103  10.290
78437SOL     OW37207   4.612   9.065   8.544
78437SOL    HW137208   4.608   8.977   8.581
78437SOL    HW237209   4.654   9.118   8.611
78438SOL     OW37210   9.609  10.728   3.452
78438SOL    HW137211   9.619  10.775   3.370
78438SOL    HW237212   9.535  10.670   3.438
78439SOL     OW37213   9.274   3.333   4.083
78439SOL    HW137214   9.267   3.238   4.087
78439SOL    HW237215   9.190   3.361   4.047
78440SOL     OW37216   7.622  14.148   7.046
78440SOL    HW137217   7.691  14.162   6.980
78440SOL    HW237218   7.557  14.095   7.001
78441SOL     OW37219  14.527  13.427   8.668
78441SOL    HW137220  14.572  13.510   8.650
78441SOL    HW237221  14.582  13.361   8.625
78442SOL     OW37222  11.079   9.470   0.138
78442SOL    HW137223  11.145   9.495   0.203
78442SOL    HW237224  11.045   9.386   0.169
78443SOL     OW37225  13.291  10.475   5.471
78443SOL    HW137226  13.321  10.531   5.399
78443SOL    HW237227  13.336  10.509   5.549
78444SOL     OW37228  14.733   1.923   1.814
78444SOL    HW137229  14.767   1.843   1.772
78444SOL    HW237230  14.722   1.984   1.741
78445SOL     OW37231   9.364  11.235   0.429
78445SOL    HW137232   9.272  11.215   0.414
78445SOL    HW237233   9.365  11.287   0.509
78446SOL     OW37234  14.369   1.724   4.915
78446SOL    HW137235  14.289   1.773   4.895
78446SOL    HW237236  14.386   1.742   5.008
78447SOL     OW37237   1.900  11.341  10.858
78447SOL    HW137238   1.922  11.259  10.816
78447SOL    HW237239   1.916  11.325  10.951
78448SOL     OW37240   2.796   9.765  13.107
78448SOL    HW137241   2.722   9.713  13.075
78448SOL    HW237242   2.790   9.760  13.202
78449SOL     OW37243   0.741   2.665   0.217
78449SOL    HW137244   0.763   2.758   0.208
78449SOL    HW237245   0.646   2.662   0.201
78450SOL     OW37246   3.105   0.449  11.639
78450SOL    HW137247   3.119   0.391  11.714
78450SOL    HW237248   3.045   0.400  11.583
78451SOL     OW37249   9.734   7.726   7.191
78451SOL    HW137250   9.710   7.780   7.266
78451SOL    HW237251   9.657   7.728   7.134
78452SOL     OW37252   1.204   5.909   5.948
78452SOL    HW137253   1.251   5.827   5.930
78452SOL    HW237254   1.126   5.904   5.892
78453SOL     OW37255   8.018   9.203   7.716
78453SOL    HW137256   7.966   9.283   7.728
78453SOL    HW237257   8.074   9.200   7.793
78454SOL     OW37258  14.785  12.063  11.313
78454SOL    HW137259  14.817  11.975  11.333
78454SOL    HW237260  14.690  12.053  11.303
78455SOL     OW37261   2.826   0.322  10.605
78455SOL    HW137262   2.857   0.248  10.552
78455SOL    HW237263   2.804   0.390  10.542
78456SOL     OW37264   7.202   4.651   6.288
78456SOL    HW137265   7.277   4.681   6.235
78456SOL    HW237266   7.127   4.699   6.252
78457SOL     OW37267   8.733  10.832   8.448
78457SOL    HW137268   8.668  10.763   8.436
78457SOL    HW237269   8.799  10.794   8.506
78458SOL     OW37270   7.328   2.177  13.459
78458SOL    HW137271   7.281   2.235  13.400
78458SOL    HW237272   7.364   2.234  13.527
78459SOL     OW37273   1.009   4.868   5.918
78459SOL    HW137274   1.070   4.834   5.982
78459SOL    HW237275   0.925   4.874   5.965
78460SOL     OW37276   5.696   2.755  10.724
78460SOL    HW137277   5.775   2.810  10.721
78460SOL    HW237278   5.625   2.813  10.700
78461SOL     OW37279   7.412  12.176  14.202
78461SOL    HW137280   7.378  12.101  14.251
78461SOL    HW237281   7.466  12.137  14.133
78462SOL     OW37282  14.127   8.425   6.552
78462SOL    HW137283  14.202   8.388   6.598
78462SOL    HW237284  14.115   8.369   6.476
78463SOL     OW37285   2.490   4.519   8.643
78463SOL    HW137286   2.522   4.428   8.639
78463SOL    HW237287   2.490   4.548   8.552
78464SOL     OW37288   1.613   2.544   5.187
78464SOL    HW137289   1.569   2.534   5.271
78464SOL    HW237290   1.699   2.504   5.200
78465SOL     OW37291   6.340   5.116   8.835
78465SOL    HW137292   6.314   5.150   8.750
78465SOL    HW237293   6.320   5.186   8.897
78466SOL     OW37294   9.995   4.569  13.754
78466SOL    HW137295  10.077   4.532  13.788
78466SOL    HW237296  10.022   4.649  13.709
78467SOL     OW37297  12.791   1.783  10.388
78467SOL    HW137298  12.860   1.773  10.453
78467SOL    HW237299  12.815   1.861  10.339
78468SOL     OW37300   4.454  11.538  11.712
78468SOL    HW137301   4.507  11.512  11.788
78468SOL    HW237302   4.364  11.526  11.740
78469SOL     OW37303   4.842   4.583   3.368
78469SOL    HW137304   4.748   4.587   3.348
78469SOL    HW237305   4.860   4.666   3.412
78470SOL     OW37306   8.928  12.701   8.321
78470SOL    HW137307   8.977  12.685   8.402
78470SOL    HW237308   8.995  12.721   8.256
78471SOL     OW37309   3.751  12.519  14.437
78471SOL    HW137310   3.769  12.454  14.504
78471SOL    HW237311   3.760  12.472  14.354
78472SOL     OW37312   4.104  11.634  12.843
78472SOL    HW137313   4.077  11.597  12.759
78472SOL    HW237314   4.196  11.608  12.853
78473SOL     OW37315   2.474  13.647   8.389
78473SOL    HW137316   2.507  13.595   8.316
78473SOL    HW237317   2.537  13.719   8.397
78474SOL     OW37318  13.078   0.338   9.796
78474SOL    HW137319  13.015   0.325   9.867
78474SOL    HW237320  13.137   0.406   9.829
78475SOL     OW37321  12.505   8.939   0.788
78475SOL    HW137322  12.448   8.944   0.712
78475SOL    HW237323  12.477   8.860   0.834
78476SOL     OW37324  14.537  11.683   9.919
78476SOL    HW137325  14.564  11.647   9.835
78476SOL    HW237326  14.505  11.771   9.898
78477SOL     OW37327   8.151   7.582  10.682
78477SOL    HW137328   8.090   7.651  10.705
78477SOL    HW237329   8.223   7.628  10.639
78478SOL     OW37330   0.820  13.554  12.004
78478SOL    HW137331   0.884  13.495  12.044
78478SOL    HW237332   0.835  13.547  11.910
78479SOL     OW37333   9.055   3.670   2.041
78479SOL    HW137334   9.116   3.613   2.089
78479SOL    HW237335   9.028   3.618   1.966
78480SOL     OW37336   2.652   7.807  10.947
78480SOL    HW137337   2.587   7.842  11.007
78480SOL    HW237338   2.736   7.818  10.992
78481SOL     OW37339  14.834  12.283  10.813
78481SOL    HW137340   0.041  12.320  10.770
78481SOL    HW237341  14.860  12.273  10.904
78482SOL     OW37342   7.493  12.247   1.538
78482SOL    HW137343   7.533  12.161   1.530
78482SOL    HW237344   7.537  12.301   1.472
78483SOL     OW37345   1.278  13.560   7.206
78483SOL    HW137346   1.294  13.466   7.213
78483SOL    HW237347   1.315  13.597   7.285
78484SOL     OW37348   7.617  10.405   9.536
78484SOL    HW137349   7.577  10.445   9.614
78484SOL    HW237350   7.552  10.419   9.467
78485SOL     OW37351   8.165  14.505   4.992
78485SOL    HW137352   8.226  14.564   5.037
78485SOL    HW237353   8.101  14.481   5.059
78486SOL     OW37354   1.927   8.039  14.867
78486SOL    HW137355   1.978   8.007   0.071
78486SOL    HW237356   1.919   7.963  14.809
78487SOL     OW37357   1.092  11.910  13.898
78487SOL    HW137358   1.128  11.827  13.929
78487SOL    HW237359   1.042  11.888  13.820
78488SOL     OW37360  13.780  11.784   4.123
78488SOL    HW137361  13.846  11.731   4.169
78488SOL    HW237362  13.780  11.749   4.034
78489SOL     OW37363   0.044   4.777   8.367
78489SOL    HW137364   0.107   4.848   8.358
78489SOL    HW237365   0.070   4.713   8.301
78490SOL     OW37366   6.754   3.289   7.723
78490SOL    HW137367   6.701   3.211   7.707
78490SOL    HW237368   6.798   3.271   7.806
78491SOL     OW37369  12.392   0.833  10.590
78491SOL    HW137370  12.311   0.867  10.627
78491SOL    HW237371  12.408   0.752  10.638
78492SOL     OW37372  12.026  12.651   1.535
78492SOL    HW137373  12.018  12.630   1.442
78492SOL    HW237374  11.935  12.656   1.566
78493SOL     OW37375   1.645   7.734  12.759
78493SOL    HW137376   1.601   7.766  12.838
78493SOL    HW237377   1.737   7.757  12.772
78494SOL     OW37378   1.437   5.070  10.235
78494SOL    HW137379   1.422   5.147  10.289
78494SOL    HW237380   1.396   4.998  10.284
78495SOL     OW37381   0.244  10.949  12.047
78495SOL    HW137382   0.280  10.989  12.126
78495SOL    HW237383   0.149  10.947  12.062
78496SOL     OW37384  10.170  11.854  11.930
78496SOL    HW137385  10.109  11.875  11.859
78496SOL    HW237386  10.219  11.778  11.898
78497SOL     OW37387   5.069   8.645   8.522
78497SOL    HW137388   4.992   8.690   8.487
78497SOL    HW237389   5.141   8.708   8.509
78498SOL     OW37390  14.113  12.084   1.434
78498SOL    HW137391  14.024  12.084   1.399
78498SOL    HW237392  14.107  12.035   1.516
78499SOL     OW37393   8.205   9.521   8.191
78499SOL    HW137394   8.165   9.598   8.232
78499SOL    HW237395   8.133   9.478   8.145
78500SOL     OW37396  13.032   6.723  12.954
78500SOL    HW137397  13.018   6.647  12.897
78500SOL    HW237398  13.095   6.693  13.018
78501SOL     OW37399   2.829   5.016   1.714
78501SOL    HW137400   2.780   4.947   1.760
78501SOL    HW237401   2.765   5.086   1.701
78502SOL     OW37402   6.456   3.531  12.007
78502SOL    HW137403   6.508   3.458  12.042
78502SOL    HW237404   6.483   3.607  12.059
78503SOL     OW37405   2.037   8.520   4.064
78503SOL    HW137406   2.016   8.435   4.026
78503SOL    HW237407   2.036   8.504   4.159
78504SOL     OW37408  12.262  12.841   4.522
78504SOL    HW137409  12.354  12.815   4.516
78504SOL    HW237410  12.259  12.905   4.593
78505SOL     OW37411  13.181  14.800   3.345
78505SOL    HW137412  13.227  14.768   3.267
78505SOL    HW237413  13.148   0.016   3.319
78506SOL     OW37414   6.192  11.801  10.544
78506SOL    HW137415   6.184  11.770  10.635
78506SOL    HW237416   6.213  11.722  10.494
78507SOL     OW37417  11.089   2.103   0.651
78507SOL    HW137418  11.030   2.120   0.724
78507SOL    HW237419  11.177   2.111   0.688
78508SOL     OW37420   1.758  11.901  11.360
78508SOL    HW137421   1.841  11.864  11.333
78508SOL    HW237422   1.697  11.827  11.361
78509SOL     OW37423  14.594   7.383   8.404
78509SOL    HW137424  14.572   7.352   8.492
78509SOL    HW237425  14.665   7.326   8.375
78510SOL     OW37426   8.884   8.050   4.243
78510SOL    HW137427   8.837   8.053   4.326
78510SOL    HW237428   8.957   7.990   4.260
78511SOL     OW37429  10.065   5.852   9.439
78511SOL    HW137430  10.006   5.804   9.382
78511SOL    HW237431  10.031   5.838   9.527
78512SOL     OW37432   1.693   4.114   0.134
78512SOL    HW137433   1.715   4.025   0.163
78512SOL    HW237434   1.753   4.130   0.060
78513SOL     OW37435  14.440  12.849   9.809
78513SOL    HW137436  14.503  12.910   9.848
78513SOL    HW237437  14.457  12.766   9.853
78514SOL     OW37438  10.688   0.249  11.773
78514SOL    HW137439  10.735   0.211  11.699
78514SOL    HW237440  10.755   0.263  11.840
78515SOL     OW37441   9.692  11.879  10.281
78515SOL    HW137442   9.672  11.950  10.342
78515SOL    HW237443   9.674  11.799  10.330
78516SOL     OW37444   4.690   6.303   9.995
78516SOL    HW137445   4.601   6.293   9.962
78516SOL    HW237446   4.680   6.343  10.082
78517SOL     OW37447  10.621  11.241  10.161
78517SOL    HW137448  10.686  11.286  10.215
78517SOL    HW237449  10.573  11.186  10.224
78518SOL     OW37450  14.721  10.093   2.445
78518SOL    HW137451  14.688  10.100   2.356
78518SOL    HW237452  14.804  10.047   2.437
78519SOL     OW37453   6.688   2.333  13.769
78519SOL    HW137454   6.643   2.276  13.831
78519SOL    HW237455   6.679   2.288  13.685
78520SOL     OW37456   8.514   1.551   7.088
78520SOL    HW137457   8.527   1.472   7.141
78520SOL    HW237458   8.419   1.557   7.077
78521SOL     OW37459  12.937   8.843  12.554
78521SOL    HW137460  12.927   8.927  12.598
78521SOL    HW237461  12.942   8.779  12.625
78522SOL     OW37462   8.857  13.807   1.059
78522SOL    HW137463   8.941  13.807   1.105
78522SOL    HW237464   8.876  13.766   0.974
78523SOL     OW37465  13.255   9.248  14.596
78523SOL    HW137466  13.176   9.302  14.583
78523SOL    HW237467  13.224   9.171  14.643
78524SOL     OW37468   3.568   6.623   1.820
78524SOL    HW137469   3.525   6.582   1.745
78524SOL    HW237470   3.659   6.593   1.815
78525SOL     OW37471   9.770   6.993   7.710
78525SOL    HW137472   9.802   6.956   7.628
78525SOL    HW237473   9.710   6.927   7.744
78526SOL     OW37474   0.979   9.657   5.223
78526SOL    HW137475   1.005   9.565   5.215
78526SOL    HW237476   0.883   9.654   5.224
78527SOL     OW37477   6.428   1.743   8.172
78527SOL    HW137478   6.454   1.691   8.096
78527SOL    HW237479   6.508   1.756   8.222
78528SOL     OW37480   5.937   5.625   1.934
78528SOL    HW137481   5.859   5.635   1.989
78528SOL    HW237482   6.011   5.628   1.995
78529SOL     OW37483   3.006  10.883   9.302
78529SOL    HW137484   3.021  10.977   9.311
78529SOL    HW237485   3.076  10.842   9.353
78530SOL     OW37486   7.856  14.450   7.020
78530SOL    HW137487   7.825  14.503   7.093
78530SOL    HW237488   7.838  14.503   6.942
78531SOL     OW37489   5.313   0.336   8.377
78531SOL    HW137490   5.258   0.366   8.450
78531SOL    HW237491   5.375   0.407   8.364
78532SOL     OW37492  10.598   7.711   8.544
78532SOL    HW137493  10.517   7.678   8.584
78532SOL    HW237494  10.667   7.683   8.604
78533SOL     OW37495   6.737   8.200   8.539
78533SOL    HW137496   6.700   8.134   8.480
78533SOL    HW237497   6.661   8.248   8.572
78534SOL     OW37498  11.130   8.987  10.840
78534SOL    HW137499  11.073   9.047  10.793
78534SOL    HW237500  11.167   9.039  10.911
78535SOL     OW37501   3.054   3.062   4.071
78535SOL    HW137502   3.092   2.974   4.064
78535SOL    HW237503   3.128   3.121   4.057
78536SOL     OW37504   5.233   2.042   1.674
78536SOL    HW137505   5.262   2.079   1.591
78536SOL    HW237506   5.210   2.118   1.727
78537SOL     OW37507   7.274   0.181  13.834
78537SOL    HW137508   7.191   0.155  13.795
78537SOL    HW237509   7.254   0.261  13.882
78538SOL     OW37510   4.879   3.814   6.182
78538SOL    HW137511   4.810   3.863   6.136
78538SOL    HW237512   4.919   3.760   6.115
78539SOL     OW37513  13.760   3.975   5.140
78539SOL    HW137514  13.725   4.057   5.105
78539SOL    HW237515  13.838   3.958   5.086
78540SOL     OW37516  11.000   4.541   6.832
78540SOL    HW137517  10.952   4.619   6.859
78540SOL    HW237518  10.961   4.516   6.748
78541SOL     OW37519   3.176  12.710   4.560
78541SOL    HW137520   3.172  12.803   4.537
78541SOL    HW237521   3.128  12.702   4.642
78542SOL     OW37522   8.704  12.647  12.226
78542SOL    HW137523   8.664  12.631  12.141
78542SOL    HW237524   8.721  12.559  12.261
78543SOL     OW37525  11.167  13.572   5.033
78543SOL    HW137526  11.123  13.494   5.066
78543SOL    HW237527  11.146  13.574   4.940
78544SOL     OW37528   0.077   9.370   2.775
78544SOL    HW137529   0.074   9.282   2.813
78544SOL    HW237530   0.020   9.366   2.699
78545SOL     OW37531   2.313  10.917  13.387
78545SOL    HW137532   2.398  10.914  13.343
78545SOL    HW237533   2.315  10.998  13.437
78546SOL     OW37534   2.987  12.000   1.587
78546SOL    HW137535   2.988  12.051   1.668
78546SOL    HW237536   2.938  11.921   1.609
78547SOL     OW37537  11.791   6.257   6.281
78547SOL    HW137538  11.793   6.256   6.185
78547SOL    HW237539  11.859   6.321   6.305
78548SOL     OW37540   8.860  10.185   0.850
78548SOL    HW137541   8.945  10.154   0.819
78548SOL    HW237542   8.881  10.249   0.917
78549SOL     OW37543   5.372  10.705  13.735
78549SOL    HW137544   5.289  10.677  13.773
78549SOL    HW237545   5.438  10.652  13.779
78550SOL     OW37546  10.577   0.432  12.357
78550SOL    HW137547  10.665   0.412  12.325
78550SOL    HW237548  10.586   0.433  12.452
78551SOL     OW37549  10.694   7.750  13.362
78551SOL    HW137550  10.613   7.756  13.312
78551SOL    HW237551  10.726   7.662  13.344
78552SOL     OW37552  11.114   5.260   2.365
78552SOL    HW137553  11.041   5.292   2.312
78552SOL    HW237554  11.087   5.278   2.455
78553SOL     OW37555   8.517   3.741  12.765
78553SOL    HW137556   8.490   3.661  12.809
78553SOL    HW237557   8.594   3.716  12.714
78554SOL     OW37558  12.676  14.531   3.946
78554SOL    HW137559  12.636  14.561   3.865
78554SOL    HW237560  12.737  14.600   3.971
78555SOL     OW37561   6.454   8.120   8.835
78555SOL    HW137562   6.547   8.140   8.849
78555SOL    HW237563   6.451   8.024   8.829
78556SOL     OW37564   0.423   8.384  13.591
78556SOL    HW137565   0.336   8.420  13.607
78556SOL    HW237566   0.447   8.417  13.504
78557SOL     OW37567   6.614   6.834   1.546
78557SOL    HW137568   6.639   6.742   1.553
78557SOL    HW237569   6.596   6.847   1.453
78558SOL     OW37570  12.912  14.357  13.822
78558SOL    HW137571  12.907  14.449  13.847
78558SOL    HW237572  13.005  14.338  13.816
78559SOL     OW37573   9.808  14.481   3.198
78559SOL    HW137574   9.745  14.527   3.142
78559SOL    HW237575   9.780  14.390   3.195
78560SOL     OW37576   6.583   5.724  11.853
78560SOL    HW137577   6.585   5.816  11.826
78560SOL    HW237578   6.653   5.682  11.804
78561SOL     OW37579   3.380   4.736  13.456
78561SOL    HW137580   3.360   4.767  13.544
78561SOL    HW237581   3.299   4.695  13.426
78562SOL     OW37582   5.477   1.330   8.317
78562SOL    HW137583   5.526   1.355   8.395
78562SOL    HW237584   5.385   1.333   8.345
78563SOL     OW37585   5.521   4.901  14.435
78563SOL    HW137586   5.516   4.820  14.385
78563SOL    HW237587   5.455   4.958  14.394
78564SOL     OW37588   2.972   9.515   1.051
78564SOL    HW137589   3.054   9.526   1.099
78564SOL    HW237590   2.997   9.525   0.959
78565SOL     OW37591  13.791   1.027  12.923
78565SOL    HW137592  13.786   0.955  12.860
78565SOL    HW237593  13.813   1.104  12.870
78566SOL     OW37594  10.792  12.791   2.805
78566SOL    HW137595  10.768  12.782   2.713
78566SOL    HW237596  10.868  12.732   2.816
78567SOL     OW37597  14.550  11.930   9.555
78567SOL    HW137598  14.604  11.949   9.631
78567SOL    HW237599  14.603  11.872   9.501
78568SOL     OW37600   1.744   9.248   4.058
78568SOL    HW137601   1.693   9.173   4.087
78568SOL    HW237602   1.826   9.210   4.025
78569SOL     OW37603   6.663   1.810   0.296
78569SOL    HW137604   6.699   1.723   0.283
78569SOL    HW237605   6.656   1.820   0.391
78570SOL     OW37606   7.595  12.673  12.044
78570SOL    HW137607   7.634  12.684  11.957
78570SOL    HW237608   7.506  12.708  12.034
78571SOL     OW37609  11.375  12.731   7.890
78571SOL    HW137610  11.331  12.753   7.972
78571SOL    HW237611  11.412  12.644   7.906
78572SOL     OW37612   5.813   0.126  14.321
78572SOL    HW137613   5.825   0.058  14.255
78572SOL    HW237614   5.881   0.110  14.385
78573SOL     OW37615   0.550   2.612  12.714
78573SOL    HW137616   0.495   2.632  12.790
78573SOL    HW237617   0.613   2.684  12.711
78574SOL     OW37618   9.563   2.009  11.321
78574SOL    HW137619   9.637   1.987  11.264
78574SOL    HW237620   9.589   2.090  11.364
78575SOL     OW37621   8.539   5.667  14.135
78575SOL    HW137622   8.522   5.625  14.220
78575SOL    HW237623   8.456   5.708  14.111
78576SOL     OW37624   8.157   4.273  11.271
78576SOL    HW137625   8.110   4.197  11.305
78576SOL    HW237626   8.127   4.282  11.181
78577SOL     OW37627  12.339   2.819   5.848
78577SOL    HW137628  12.313   2.728   5.837
78577SOL    HW237629  12.257   2.869   5.845
78578SOL     OW37630   1.382  11.574   6.873
78578SOL    HW137631   1.291  11.570   6.847
78578SOL    HW237632   1.420  11.644   6.819
78579SOL     OW37633   2.126  11.388   6.299
78579SOL    HW137634   2.154  11.297   6.306
78579SOL    HW237635   2.046  11.392   6.351
78580SOL     OW37636   1.508   6.293   1.236
78580SOL    HW137637   1.598   6.266   1.255
78580SOL    HW237638   1.493   6.367   1.294
78581SOL     OW37639   6.588   8.786  11.824
78581SOL    HW137640   6.549   8.865  11.860
78581SOL    HW237641   6.534   8.714  11.857
78582SOL     OW37642  14.479   0.950   3.551
78582SOL    HW137643  14.461   0.873   3.604
78582SOL    HW237644  14.460   0.923   3.461
78583SOL     OW37645   1.273   5.844   5.458
78583SOL    HW137646   1.226   5.859   5.377
78583SOL    HW237647   1.295   5.932   5.490
78584SOL     OW37648  12.826   3.270   7.052
78584SOL    HW137649  12.907   3.318   7.063
78584SOL    HW237650  12.842   3.213   6.976
78585SOL     OW37651  10.240   0.063   5.019
78585SOL    HW137652  10.313   0.123   5.005
78585SOL    HW237653  10.162   0.112   4.994
78586SOL     OW37654   2.986  13.786   2.314
78586SOL    HW137655   3.047  13.742   2.374
78586SOL    HW237656   2.916  13.818   2.371
78587SOL     OW37657   1.298   8.133  14.852
78587SOL    HW137658   1.212   8.093  14.841
78587SOL    HW237659   1.353   8.089  14.787
78588SOL     OW37660  12.479   0.170   8.404
78588SOL    HW137661  12.392   0.175   8.443
78588SOL    HW237662  12.473   0.098   8.341
78589SOL     OW37663   4.867   7.266   3.803
78589SOL    HW137664   4.863   7.346   3.751
78589SOL    HW237665   4.911   7.203   3.747
78590SOL     OW37666   3.497   1.561  11.347
78590SOL    HW137667   3.429   1.628  11.353
78590SOL    HW237668   3.521   1.558  11.255
78591SOL     OW37669   8.631   2.615  13.683
78591SOL    HW137670   8.644   2.663  13.765
78591SOL    HW237671   8.577   2.540  13.707
78592SOL     OW37672   3.998   7.199   2.815
78592SOL    HW137673   4.007   7.223   2.907
78592SOL    HW237674   3.904   7.196   2.800
78593SOL     OW37675   4.528   7.791   8.762
78593SOL    HW137676   4.580   7.745   8.828
78593SOL    HW237677   4.572   7.774   8.679
78594SOL     OW37678  12.800  11.490  11.121
78594SOL    HW137679  12.756  11.465  11.040
78594SOL    HW237680  12.752  11.442  11.189
78595SOL     OW37681   3.881  11.974  11.861
78595SOL    HW137682   3.872  11.968  11.956
78595SOL    HW237683   3.969  11.941  11.844
78596SOL     OW37684   8.140  13.195   6.982
78596SOL    HW137685   8.150  13.118   7.038
78596SOL    HW237686   8.067  13.173   6.924
78597SOL     OW37687  10.091  14.656   5.709
78597SOL    HW137688  10.067  14.655   5.802
78597SOL    HW237689  10.158  14.724   5.702
78598SOL     OW37690  10.714   8.521  13.308
78598SOL    HW137691  10.688   8.499  13.219
78598SOL    HW237692  10.701   8.616  13.314
78599SOL     OW37693   2.226  13.707  11.223
78599SOL    HW137694   2.146  13.701  11.276
78599SOL    HW237695   2.225  13.627  11.170
78600SOL     OW37696   4.310   1.557   5.783
78600SOL    HW137697   4.374   1.603   5.837
78600SOL    HW237698   4.248   1.625   5.756
78601SOL     OW37699  13.466   0.389  11.513
78601SOL    HW137700  13.493   0.346  11.432
78601SOL    HW237701  13.383   0.431  11.491
78602SOL     OW37702  13.192  14.497   1.406
78602SOL    HW137703  13.285  14.491   1.428
78602SOL    HW237704  13.183  14.445   1.326
78603SOL     OW37705   0.679  12.141   7.323
78603SOL    HW137706   0.589  12.117   7.345
78603SOL    HW237707   0.722  12.057   7.305
78604SOL     OW37708   8.021   0.470   0.693
78604SOL    HW137709   8.076   0.548   0.699
78604SOL    HW237710   8.061   0.418   0.623
78605SOL     OW37711   7.120   9.136   3.672
78605SOL    HW137712   7.099   9.049   3.638
78605SOL    HW237713   7.191   9.120   3.735
78606SOL     OW37714   4.941   6.286   5.074
78606SOL    HW137715   4.982   6.217   5.021
78606SOL    HW237716   4.997   6.293   5.151
78607SOL     OW37717   4.415   6.314   6.947
78607SOL    HW137718   4.368   6.340   6.868
78607SOL    HW237719   4.374   6.365   7.017
78608SOL     OW37720   8.759   8.762   1.845
78608SOL    HW137721   8.710   8.817   1.905
78608SOL    HW237722   8.715   8.772   1.761
78609SOL     OW37723   3.407  14.828   9.243
78609SOL    HW137724   3.354   0.026   9.285
78609SOL    HW237725   3.343  14.763   9.213
78610SOL     OW37726   1.482   6.053   5.900
78610SOL    HW137727   1.408   6.105   5.931
78610SOL    HW237728   1.510   6.096   5.819
78611SOL     OW37729   7.681   4.710   9.757
78611SOL    HW137730   7.735   4.710   9.678
78611SOL    HW237731   7.664   4.803   9.774
78612SOL     OW37732  14.304   9.336  10.977
78612SOL    HW137733  14.287   9.250  10.937
78612SOL    HW237734  14.373   9.319  11.041
78613SOL     OW37735   8.311   6.757  11.921
78613SOL    HW137736   8.281   6.770  11.831
78613SOL    HW237737   8.263   6.823  11.971
78614SOL     OW37738  13.528  10.751  10.694
78614SOL    HW137739  13.558  10.821  10.635
78614SOL    HW237740  13.442  10.780  10.724
78615SOL     OW37741  10.415   8.650  10.535
78615SOL    HW137742  10.394   8.612  10.621
78615SOL    HW237743  10.458   8.580  10.487
78616SOL     OW37744   3.179   1.504   9.531
78616SOL    HW137745   3.194   1.584   9.581
78616SOL    HW237746   3.198   1.529   9.440
78617SOL     OW37747  11.309   6.522   9.578
78617SOL    HW137748  11.242   6.564   9.632
78617SOL    HW237749  11.270   6.517   9.491
78618SOL     OW37750   8.520  13.075   5.620
78618SOL    HW137751   8.425  13.064   5.623
78618SOL    HW237752   8.553  13.015   5.687
78619SOL     OW37753   6.876   1.697   4.076
78619SOL    HW137754   6.909   1.695   4.166
78619SOL    HW237755   6.906   1.615   4.037
78620SOL     OW37756  13.246   4.158   9.270
78620SOL    HW137757  13.317   4.179   9.209
78620SOL    HW237758  13.198   4.087   9.227
78621SOL     OW37759   6.220   7.000   0.436
78621SOL    HW137760   6.313   6.976   0.445
78621SOL    HW237761   6.218   7.056   0.359
78622SOL     OW37762   6.128  10.720   3.536
78622SOL    HW137763   6.083  10.791   3.582
78622SOL    HW237764   6.185  10.680   3.603
78623SOL     OW37765  12.852  14.100  10.349
78623SOL    HW137766  12.767  14.058  10.333
78623SOL    HW237767  12.911  14.059  10.285
78624SOL     OW37768   3.401   5.929  13.676
78624SOL    HW137769   3.374   5.864  13.741
78624SOL    HW237770   3.346   6.005  13.694
78625SOL     OW37771  14.267   3.090  12.155
78625SOL    HW137772  14.321   3.013  12.139
78625SOL    HW237773  14.329   3.163  12.154
78626SOL     OW37774  12.382  14.751   2.609
78626SOL    HW137775  12.368  14.738   2.516
78626SOL    HW237776  12.316  14.816   2.634
78627SOL     OW37777   9.858   9.160   5.858
78627SOL    HW137778   9.801   9.192   5.928
78627SOL    HW237779   9.859   9.065   5.871
78628SOL     OW37780   2.629   5.599   0.716
78628SOL    HW137781   2.667   5.513   0.733
78628SOL    HW237782   2.634   5.644   0.800
78629SOL     OW37783  14.777   3.179   9.661
78629SOL    HW137784  14.689   3.165   9.626
78629SOL    HW237785  14.778   3.270   9.688
78630SOL     OW37786   0.395   4.293   2.893
78630SOL    HW137787   0.385   4.349   2.816
78630SOL    HW237788   0.473   4.327   2.938
78631SOL     OW37789  11.213   7.185   3.929
78631SOL    HW137790  11.203   7.209   4.021
78631SOL    HW237791  11.301   7.214   3.906
78632SOL     OW37792  11.138   0.121   9.678
78632SOL    HW137793  11.052   0.159   9.660
78632SOL    HW237794  11.188   0.135   9.597
78633SOL     OW37795  12.300  11.128   7.162
78633SOL    HW137796  12.263  11.041   7.145
78633SOL    HW237797  12.394  11.117   7.146
78634SOL     OW37798   7.413   8.638  12.048
78634SOL    HW137799   7.363   8.694  11.988
78634SOL    HW237800   7.503   8.644  12.017
78635SOL     OW37801   6.008   7.132  10.552
78635SOL    HW137802   5.939   7.199  10.545
78635SOL    HW237803   6.001   7.083  10.470
78636SOL     OW37804   1.482  10.403   3.265
78636SOL    HW137805   1.567  10.382   3.304
78636SOL    HW237806   1.463  10.492   3.294
78637SOL     OW37807   3.748  10.790   1.211
78637SOL    HW137808   3.684  10.859   1.193
78637SOL    HW237809   3.715  10.714   1.162
78638SOL     OW37810  10.333  10.135   4.925
78638SOL    HW137811  10.283  10.216   4.930
78638SOL    HW237812  10.422  10.160   4.947
78639SOL     OW37813   7.724   4.013   1.177
78639SOL    HW137814   7.651   4.036   1.234
78639SOL    HW237815   7.803   4.038   1.226
78640SOL     OW37816  13.035   1.093   9.374
78640SOL    HW137817  13.129   1.105   9.365
78640SOL    HW237818  13.027   1.016   9.432
78641SOL     OW37819  12.773   5.580   8.981
78641SOL    HW137820  12.702   5.592   9.044
78641SOL    HW237821  12.747   5.506   8.928
78642SOL     OW37822  11.916   6.404   3.061
78642SOL    HW137823  11.900   6.489   3.101
78642SOL    HW237824  12.006   6.382   3.087
78643SOL     OW37825  12.133   6.814  11.075
78643SOL    HW137826  12.120   6.900  11.036
78643SOL    HW237827  12.205   6.826  11.138
78644SOL     OW37828   2.607  11.209  12.122
78644SOL    HW137829   2.630  11.284  12.177
78644SOL    HW237830   2.560  11.248  12.048
78645SOL     OW37831   1.999   3.876   3.987
78645SOL    HW137832   2.050   3.812   4.038
78645SOL    HW237833   2.064   3.922   3.935
78646SOL     OW37834   8.072  10.524   2.490
78646SOL    HW137835   8.063  10.612   2.526
78646SOL    HW237836   8.038  10.466   2.558
78647SOL     OW37837   8.744   7.718   1.383
78647SOL    HW137838   8.718   7.674   1.302
78647SOL    HW237839   8.682   7.687   1.449
78648SOL     OW37840  10.147  14.334   9.470
78648SOL    HW137841  10.101  14.266   9.520
78648SOL    HW237842  10.147  14.302   9.380
78649SOL     OW37843  12.589   1.832  14.113
78649SOL    HW137844  12.617   1.741  14.105
78649SOL    HW237845  12.539   1.835  14.194
78650SOL     OW37846   9.556  11.648  13.308
78650SOL    HW137847   9.562  11.611  13.396
78650SOL    HW237848   9.615  11.594  13.255
78651SOL     OW37849  13.782   2.064   0.440
78651SOL    HW137850  13.831   1.986   0.466
78651SOL    HW237851  13.745   2.041   0.355
78652SOL     OW37852   5.683   0.523   1.085
78652SOL    HW137853   5.672   0.510   0.991
78652SOL    HW237854   5.604   0.485   1.124
78653SOL     OW37855  10.417   2.551   3.095
78653SOL    HW137856  10.399   2.468   3.050
78653SOL    HW237857  10.336   2.571   3.142
78654SOL     OW37858   9.124   2.680   5.514
78654SOL    HW137859   9.052   2.740   5.493
78654SOL    HW237860   9.086   2.618   5.576
78655SOL     OW37861  13.494   4.321  14.385
78655SOL    HW137862  13.564   4.284  14.439
78655SOL    HW237863  13.525   4.310  14.295
78656SOL     OW37864  13.242   0.344  14.569
78656SOL    HW137865  13.305   0.416  14.569
78656SOL    HW237866  13.253   0.302  14.484
78657SOL     OW37867   9.969   3.892   3.770
78657SOL    HW137868   9.959   3.959   3.837
78657SOL    HW237869   9.985   3.811   3.820
78658SOL     OW37870   0.080   6.561  14.264
78658SOL    HW137871   0.097   6.498  14.194
78658SOL    HW237872   0.167   6.592  14.290
78659SOL     OW37873  13.769  10.310  11.528
78659SOL    HW137874  13.844  10.313  11.469
78659SOL    HW237875  13.695  10.288  11.472
78660SOL     OW37876   6.048   0.257   8.938
78660SOL    HW137877   5.964   0.219   8.964
78660SOL    HW237878   6.073   0.313   9.012
78661SOL     OW37879   3.250   2.950  12.341
78661SOL    HW137880   3.191   3.014  12.302
78661SOL    HW237881   3.327   2.951  12.284
78662SOL     OW37882   5.042   3.657   3.740
78662SOL    HW137883   4.974   3.721   3.717
78662SOL    HW237884   5.112   3.709   3.780
78663SOL     OW37885  11.701  10.028   5.306
78663SOL    HW137886  11.653   9.967   5.362
78663SOL    HW237887  11.646  10.106   5.303
78664SOL     OW37888   3.214   3.971   1.731
78664SOL    HW137889   3.191   3.898   1.672
78664SOL    HW237890   3.180   4.049   1.687
78665SOL     OW37891   5.739   0.003   1.491
78665SOL    HW137892   5.690   0.076   1.452
78665SOL    HW237893   5.772  14.823   1.416
78666SOL     OW37894   3.297   5.643  12.094
78666SOL    HW137895   3.280   5.551  12.114
78666SOL    HW237896   3.388   5.657  12.121
78667SOL     OW37897   6.665   6.832   7.437
78667SOL    HW137898   6.605   6.863   7.505
78667SOL    HW237899   6.681   6.740   7.459
78668SOL     OW37900   3.058   6.255   9.891
78668SOL    HW137901   3.059   6.293   9.979
78668SOL    HW237902   2.980   6.293   9.850
78669SOL     OW37903  10.353  12.851   6.798
78669SOL    HW137904  10.351  12.890   6.886
78669SOL    HW237905  10.446  12.840   6.779
78670SOL     OW37906   3.216   9.280  12.565
78670SOL    HW137907   3.152   9.248  12.629
78670SOL    HW237908   3.172   9.356  12.525
78671SOL     OW37909   5.385   5.522   2.122
78671SOL    HW137910   5.450   5.454   2.107
78671SOL    HW237911   5.309   5.476   2.156
78672SOL     OW37912   2.138  14.100   6.636
78672SOL    HW137913   2.105  14.035   6.573
78672SOL    HW237914   2.201  14.152   6.586
78673SOL     OW37915  11.243  11.232   1.169
78673SOL    HW137916  11.148  11.233   1.180
78673SOL    HW237917  11.260  11.301   1.105
78674SOL     OW37918  13.614   4.627   9.579
78674SOL    HW137919  13.668   4.704   9.565
78674SOL    HW237920  13.668   4.569   9.632
78675SOL     OW37921   1.981   6.146  14.750
78675SOL    HW137922   1.954   6.055  14.763
78675SOL    HW237923   1.910   6.198  14.786
78676SOL     OW37924   4.078   3.275   6.899
78676SOL    HW137925   4.052   3.308   6.812
78676SOL    HW237926   4.122   3.193   6.881
78677SOL     OW37927  14.187   5.153   2.284
78677SOL    HW137928  14.132   5.203   2.345
78677SOL    HW237929  14.240   5.219   2.239
78678SOL     OW37930   1.103   1.870   0.606
78678SOL    HW137931   1.176   1.822   0.646
78678SOL    HW237932   1.140   1.908   0.526
78679SOL     OW37933   0.243   4.908   6.533
78679SOL    HW137934   0.281   4.991   6.562
78679SOL    HW237935   0.291   4.841   6.581
78680SOL     OW37936  10.904  10.349  14.603
78680SOL    HW137937  10.826  10.293  14.608
78680SOL    HW237938  10.932  10.360  14.694
78681SOL     OW37939   3.665   9.979  10.641
78681SOL    HW137940   3.705   9.924  10.573
78681SOL    HW237941   3.739  10.011  10.692
78682SOL     OW37942  11.038  13.348  14.190
78682SOL    HW137943  10.944  13.333  14.185
78682SOL    HW237944  11.073  13.268  14.231
78683SOL     OW37945   9.181   0.662   0.538
78683SOL    HW137946   9.176   0.732   0.472
78683SOL    HW237947   9.255   0.687   0.593
78684SOL     OW37948   0.248   1.842   3.560
78684SOL    HW137949   0.282   1.870   3.475
78684SOL    HW237950   0.228   1.749   3.549
78685SOL     OW37951   9.462   5.580   5.191
78685SOL    HW137952   9.406   5.542   5.258
78685SOL    HW237953   9.551   5.567   5.223
78686SOL     OW37954   0.124   9.956  14.837
78686SOL    HW137955   0.087   9.991   0.048
78686SOL    HW237956   0.102   9.863  14.838
78687SOL     OW37957   6.840  14.154  13.609
78687SOL    HW137958   6.913  14.096  13.587
78687SOL    HW237959   6.813  14.191  13.524
78688SOL     OW37960   2.154   2.100  10.095
78688SOL    HW137961   2.145   2.006  10.082
78688SOL    HW237962   2.232   2.124  10.045
78689SOL     OW37963   9.654   3.241   0.263
78689SOL    HW137964   9.584   3.226   0.200
78689SOL    HW237965   9.676   3.154   0.297
78690SOL     OW37966  11.632   2.113  12.496
78690SOL    HW137967  11.549   2.134  12.453
78690SOL    HW237968  11.613   2.123  12.590
78691SOL     OW37969   4.077   8.406   0.793
78691SOL    HW137970   4.041   8.434   0.877
78691SOL    HW237971   4.142   8.473   0.771
78692SOL     OW37972   7.802   7.377  10.186
78692SOL    HW137973   7.803   7.466  10.150
78692SOL    HW237974   7.729   7.378  10.248
78693SOL     OW37975   3.468  13.722   6.198
78693SOL    HW137976   3.425  13.647   6.156
78693SOL    HW237977   3.403  13.792   6.195
78694SOL     OW37978   2.715  11.241   0.246
78694SOL    HW137979   2.625  11.256   0.216
78694SOL    HW237980   2.714  11.267   0.338
78695SOL     OW37981   6.956  14.371  12.540
78695SOL    HW137982   7.046  14.405  12.545
78695SOL    HW237983   6.954  14.321  12.459
78696SOL     OW37984   6.897   0.420  14.211
78696SOL    HW137985   6.822   0.468  14.248
78696SOL    HW237986   6.878   0.415  14.117
78697SOL     OW37987  14.792  10.020   3.447
78697SOL    HW137988  14.772  10.066   3.365
78697SOL    HW237989   0.012   9.988   3.436
78698SOL     OW37990   9.140   8.853   7.031
78698SOL    HW137991   9.138   8.898   7.116
78698SOL    HW237992   9.146   8.924   6.967
78699SOL     OW37993   3.307   1.900  10.339
78699SOL    HW137994   3.250   1.882  10.414
78699SOL    HW237995   3.280   1.987  10.309
78700SOL     OW37996  12.475   5.256  13.734
78700SOL    HW137997  12.555   5.244  13.785
78700SOL    HW237998  12.407   5.212  13.785
78701SOL     OW37999   1.386   4.398  10.596
78701SOL    HW138000   1.313   4.402  10.658
78701SOL    HW238001   1.440   4.326  10.627
78702SOL     OW38002   6.706   6.823   4.859
78702SOL    HW138003   6.738   6.851   4.944
78702SOL    HW238004   6.784   6.804   4.808
78703SOL     OW38005   7.828   5.654   7.770
78703SOL    HW138006   7.913   5.627   7.737
78703SOL    HW238007   7.838   5.653   7.866
78704SOL     OW38008   5.933   2.145   2.157
78704SOL    HW138009   5.927   2.126   2.251
78704SOL    HW238010   5.845   2.174   2.133
78705SOL     OW38011   8.978  14.480  10.003
78705SOL    HW138012   8.925  14.445   9.931
78705SOL    HW238013   8.955  14.573  10.007
78706SOL     OW38014   8.058   9.455  14.644
78706SOL    HW138015   8.022   9.541  14.619
78706SOL    HW238016   8.025   9.396  14.577
78707SOL     OW38017   3.974   8.064   6.044
78707SOL    HW138018   4.055   8.037   6.087
78707SOL    HW238019   3.992   8.054   5.951
78708SOL     OW38020   1.886  10.846  12.209
78708SOL    HW138021   1.846  10.821  12.292
78708SOL    HW238022   1.963  10.897  12.233
78709SOL     OW38023   0.343   7.098  11.694
78709SOL    HW138024   0.373   7.107  11.784
78709SOL    HW238025   0.420   7.069  11.645
78710SOL     OW38026   0.511   4.327   1.612
78710SOL    HW138027   0.541   4.342   1.522
78710SOL    HW238028   0.427   4.373   1.617
78711SOL     OW38029   9.758   6.056  12.731
78711SOL    HW138030   9.787   5.970  12.760
78711SOL    HW238031   9.721   6.041  12.644
78712SOL     OW38032   2.154   3.624   3.857
78712SOL    HW138033   2.196   3.708   3.838
78712SOL    HW238034   2.164   3.574   3.775
78713SOL     OW38035  14.106   9.071  13.165
78713SOL    HW138036  14.086   8.992  13.216
78713SOL    HW238037  14.177   9.045  13.106
78714SOL     OW38038   2.906   8.240   5.483
78714SOL    HW138039   2.956   8.272   5.558
78714SOL    HW238040   2.818   8.275   5.496
78715SOL     OW38041   9.281   5.283  11.969
78715SOL    HW138042   9.350   5.348  11.957
78715SOL    HW238043   9.294   5.222  11.896
78716SOL     OW38044  13.687  13.120   9.976
78716SOL    HW138045  13.778  13.090   9.981
78716SOL    HW238046  13.694  13.215   9.966
78717SOL     OW38047   5.944   8.385  11.191
78717SOL    HW138048   5.956   8.424  11.104
78717SOL    HW238049   5.952   8.459  11.252
78718SOL     OW38050   1.839  11.434   2.154
78718SOL    HW138051   1.796  11.355   2.186
78718SOL    HW238052   1.768  11.489   2.123
78719SOL     OW38053   4.072   7.172   7.104
78719SOL    HW138054   4.085   7.172   7.199
78719SOL    HW238055   4.157   7.148   7.068
78720SOL     OW38056   1.295   6.461  13.669
78720SOL    HW138057   1.372   6.475  13.614
78720SOL    HW238058   1.228   6.519  13.633
78721SOL     OW38059  12.753  11.532   2.244
78721SOL    HW138060  12.792  11.447   2.266
78721SOL    HW238061  12.826  11.583   2.209
78722SOL     OW38062  12.876  14.603  12.697
78722SOL    HW138063  12.873  14.508  12.707
78722SOL    HW238064  12.833  14.637  12.775
78723SOL     OW38065  11.575   3.057  11.615
78723SOL    HW138066  11.555   2.990  11.550
78723SOL    HW238067  11.489   3.083  11.650
78724SOL     OW38068   4.138   5.808  13.336
78724SOL    HW138069   4.053   5.782  13.371
78724SOL    HW238070   4.125   5.811  13.241
78725SOL     OW38071   9.638   7.391   8.700
78725SOL    HW138072   9.715   7.428   8.742
78725SOL    HW238073   9.587   7.466   8.672
78726SOL     OW38074   4.360   4.053  10.157
78726SOL    HW138075   4.380   4.140  10.123
78726SOL    HW238076   4.278   4.063  10.204
78727SOL     OW38077   0.078  11.396   5.310
78727SOL    HW138078   0.031  11.396   5.226
78727SOL    HW238079   0.098  11.304   5.326
78728SOL     OW38080   4.262   2.409   5.743
78728SOL    HW138081   4.348   2.385   5.779
78728SOL    HW238082   4.216   2.326   5.732
78729SOL     OW38083   4.427  13.846   5.231
78729SOL    HW138084   4.442  13.783   5.161
78729SOL    HW238085   4.507  13.898   5.234
78730SOL     OW38086   9.984   3.594   8.094
78730SOL    HW138087   9.901   3.555   8.066
78730SOL    HW238088   9.963   3.686   8.108
78731SOL     OW38089  12.649   8.245   3.949
78731SOL    HW138090  12.695   8.323   3.919
78731SOL    HW238091  12.636   8.260   4.043
78732SOL     OW38092  13.016   5.414   7.004
78732SOL    HW138093  12.972   5.330   7.015
78732SOL    HW238094  13.094   5.408   7.058
78733SOL     OW38095   4.933   6.631   2.177
78733SOL    HW138096   4.890   6.643   2.261
78733SOL    HW238097   5.013   6.583   2.198
78734SOL     OW38098   1.281  14.807   7.475
78734SOL    HW138099   1.308   0.025   7.447
78734SOL    HW238100   1.233  14.772   7.401
78735SOL     OW38101   1.573   4.638  10.022
78735SOL    HW138102   1.660   4.658   9.986
78735SOL    HW238103   1.528   4.593   9.950
78736SOL     OW38104   0.839   2.448  12.415
78736SOL    HW138105   0.906   2.427  12.480
78736SOL    HW238106   0.887   2.461  12.334
78737SOL     OW38107   5.815  11.235   1.473
78737SOL    HW138108   5.774  11.242   1.387
78737SOL    HW238109   5.897  11.188   1.456
78738SOL     OW38110  14.005   3.748   3.186
78738SOL    HW138111  13.945   3.722   3.255
78738SOL    HW238112  13.990   3.842   3.175
78739SOL     OW38113   0.190   7.874   2.504
78739SOL    HW138114   0.098   7.855   2.483
78739SOL    HW238115   0.226   7.790   2.533
78740SOL     OW38116   4.699   7.793   1.902
78740SOL    HW138117   4.733   7.730   1.966
78740SOL    HW238118   4.604   7.784   1.909
78741SOL     OW38119   3.045   9.131   9.232
78741SOL    HW138120   3.133   9.129   9.194
78741SOL    HW238121   3.054   9.084   9.315
78742SOL     OW38122   0.821   3.398  14.293
78742SOL    HW138123   0.856   3.312  14.317
78742SOL    HW238124   0.799   3.438  14.377
78743SOL     OW38125   5.035   9.134   2.275
78743SOL    HW138126   4.996   9.058   2.233
78743SOL    HW238127   5.129   9.115   2.278
78744SOL     OW38128   4.373   6.903   7.318
78744SOL    HW138129   4.326   6.979   7.284
78744SOL    HW238130   4.319   6.828   7.292
78745SOL     OW38131   8.647   6.312   0.780
78745SOL    HW138132   8.683   6.265   0.705
78745SOL    HW238133   8.552   6.301   0.773
78746SOL     OW38134   9.414   2.459   4.609
78746SOL    HW138135   9.426   2.523   4.680
78746SOL    HW238136   9.385   2.380   4.654
78747SOL     OW38137  11.114  14.379  11.306
78747SOL    HW138138  11.192  14.342  11.348
78747SOL    HW238139  11.105  14.466  11.344
78748SOL     OW38140   3.246   8.017  14.401
78748SOL    HW138141   3.334   8.004  14.436
78748SOL    HW238142   3.255   8.090  14.340
78749SOL     OW38143  14.676   9.644   9.146
78749SOL    HW138144  14.703   9.670   9.235
78749SOL    HW238145  14.732   9.569   9.126
78750SOL     OW38146  12.067   1.324  11.401
78750SOL    HW138147  12.093   1.411  11.431
78750SOL    HW238148  12.148   1.284  11.368
78751SOL     OW38149   1.642  12.893   5.621
78751SOL    HW138150   1.663  12.834   5.694
78751SOL    HW238151   1.726  12.908   5.578
78752SOL     OW38152   7.056  12.263  10.433
78752SOL    HW138153   6.987  12.207  10.467
78752SOL    HW238154   7.011  12.322  10.372
78753SOL     OW38155   5.685   8.320  10.312
78753SOL    HW138156   5.661   8.350  10.225
78753SOL    HW238157   5.772   8.359  10.327
78754SOL     OW38158   9.647  10.168   3.839
78754SOL    HW138159   9.563  10.211   3.855
78754SOL    HW238160   9.643  10.088   3.892
78755SOL     OW38161  14.189   3.220   4.124
78755SOL    HW138162  14.123   3.219   4.193
78755SOL    HW238163  14.176   3.303   4.080
78756SOL     OW38164  11.788  11.298  13.194
78756SOL    HW138165  11.728  11.225  13.183
78756SOL    HW238166  11.852  11.267  13.260
78757SOL     OW38167   4.316   9.491   0.020
78757SOL    HW138168   4.364   9.550   0.078
78757SOL    HW238169   4.230   9.483   0.061
78758SOL     OW38170   1.017   9.793   1.561
78758SOL    HW138171   1.050   9.754   1.641
78758SOL    HW238172   1.090   9.789   1.500
78759SOL     OW38173  13.211   5.360  11.048
78759SOL    HW138174  13.282   5.309  11.010
78759SOL    HW238175  13.144   5.363  10.979
78760SOL     OW38176   3.504   9.430   1.663
78760SOL    HW138177   3.555   9.501   1.625
78760SOL    HW238178   3.564   9.386   1.723
78761SOL     OW38179   1.159   7.627  14.169
78761SOL    HW138180   1.136   7.559  14.105
78761SOL    HW238181   1.217   7.687  14.121
78762SOL     OW38182   6.216  13.466   0.505
78762SOL    HW138183   6.248  13.555   0.494
78762SOL    HW238184   6.265  13.414   0.441
78763SOL     OW38185   4.615   6.041  13.039
78763SOL    HW138186   4.569   6.042  12.955
78763SOL    HW238187   4.695   6.092  13.024
78764SOL     OW38188   1.260   6.331   7.882
78764SOL    HW138189   1.182   6.386   7.893
78764SOL    HW238190   1.308   6.341   7.964
78765SOL     OW38191   4.418   3.369   9.635
78765SOL    HW138192   4.404   3.365   9.730
78765SOL    HW238193   4.505   3.408   9.626
78766SOL     OW38194   9.516   6.765   9.219
78766SOL    HW138195   9.516   6.718   9.135
78766SOL    HW238196   9.424   6.769   9.244
78767SOL     OW38197   8.248   1.597   2.435
78767SOL    HW138198   8.286   1.642   2.360
78767SOL    HW238199   8.250   1.504   2.411
78768SOL     OW38200   9.136   3.817   6.991
78768SOL    HW138201   9.079   3.743   6.975
78768SOL    HW238202   9.186   3.827   6.910
78769SOL     OW38203   2.359   8.417  11.943
78769SOL    HW138204   2.339   8.394  12.034
78769SOL    HW238205   2.439   8.468  11.949
78770SOL     OW38206   7.941   6.412   4.038
78770SOL    HW138207   7.871   6.421   4.103
78770SOL    HW238208   7.981   6.499   4.033
78771SOL     OW38209   4.902  14.604   4.091
78771SOL    HW138210   4.962  14.671   4.122
78771SOL    HW238211   4.891  14.623   3.998
78772SOL     OW38212   9.418  12.986   0.314
78772SOL    HW138213   9.384  13.045   0.247
78772SOL    HW238214   9.398  13.029   0.397
78773SOL     OW38215   3.504  13.976  12.927
78773SOL    HW138216   3.577  13.915  12.931
78773SOL    HW238217   3.443  13.944  12.995
78774SOL     OW38218  10.595   0.381   8.911
78774SOL    HW138219  10.548   0.365   8.829
78774SOL    HW238220  10.526   0.399   8.975
78775SOL     OW38221   0.981   7.827  14.614
78775SOL    HW138222   0.916   7.814  14.683
78775SOL    HW238223   1.047   7.884  14.653
78776SOL     OW38224   6.269  14.817   7.367
78776SOL    HW138225   6.185  14.777   7.392
78776SOL    HW238226   6.248   0.040   7.356
78777SOL     OW38227  10.954  13.157  10.396
78777SOL    HW138228  10.971  13.078  10.448
78777SOL    HW238229  10.882  13.131  10.338
78778SOL     OW38230   7.532   6.897   1.443
78778SOL    HW138231   7.508   6.835   1.374
78778SOL    HW238232   7.576   6.845   1.509
78779SOL     OW38233   1.213   6.901  12.107
78779SOL    HW138234   1.261   6.874  12.029
78779SOL    HW238235   1.141   6.955  12.073
78780SOL     OW38236   3.035   5.368   9.797
78780SOL    HW138237   3.067   5.400   9.713
78780SOL    HW238238   3.065   5.433   9.861
78781SOL     OW38239   1.972   7.438   6.688
78781SOL    HW138240   2.063   7.454   6.712
78781SOL    HW238241   1.960   7.482   6.605
78782SOL     OW38242  11.651   1.871   2.437
78782SOL    HW138243  11.735   1.905   2.406
78782SOL    HW238244  11.587   1.939   2.414
78783SOL     OW38245   1.880  14.835  11.323
78783SOL    HW138246   1.954  14.813  11.267
78783SOL    HW238247   1.879  14.765  11.389
78784SOL     OW38248   0.273   0.138   5.039
78784SOL    HW138249   0.314   0.056   5.012
78784SOL    HW238250   0.338   0.205   5.021
78785SOL     OW38251   0.950  13.262  10.226
78785SOL    HW138252   0.884  13.196  10.209
78785SOL    HW238253   1.009  13.258  10.150
78786SOL     OW38254   7.866  11.302   9.602
78786SOL    HW138255   7.803  11.235   9.577
78786SOL    HW238256   7.915  11.264   9.675
78787SOL     OW38257   9.157   0.799  10.265
78787SOL    HW138258   9.161   0.768  10.356
78787SOL    HW238259   9.077   0.852  10.261
78788SOL     OW38260  11.768   2.579   6.242
78788SOL    HW138261  11.809   2.647   6.296
78788SOL    HW238262  11.771   2.614   6.153
78789SOL     OW38263   4.401  12.160  14.740
78789SOL    HW138264   4.450  12.168  14.822
78789SOL    HW238265   4.356  12.076  14.747
78790SOL     OW38266   9.045   6.615   3.186
78790SOL    HW138267   9.111   6.597   3.120
78790SOL    HW238268   8.986   6.541   3.183
78791SOL     OW38269  14.506  12.023  14.862
78791SOL    HW138270  14.413  12.004  14.853
78791SOL    HW238271  14.515  12.113  14.831
78792SOL     OW38272  13.877   7.354   2.041
78792SOL    HW138273  13.871   7.260   2.056
78792SOL    HW238274  13.971   7.373   2.042
78793SOL     OW38275   5.744   7.593   4.843
78793SOL    HW138276   5.822   7.638   4.877
78793SOL    HW238277   5.684   7.664   4.821
78794SOL     OW38278  14.140   4.253  10.459
78794SOL    HW138279  14.216   4.297  10.496
78794SOL    HW238280  14.176   4.179  10.410
78795SOL     OW38281  11.898   3.818   1.577
78795SOL    HW138282  11.878   3.911   1.564
78795SOL    HW238283  11.924   3.786   1.491
78796SOL     OW38284   0.161  10.737   0.189
78796SOL    HW138285   0.115  10.766   0.110
78796SOL    HW238286   0.179  10.818   0.237
78797SOL     OW38287  12.474  12.782  10.567
78797SOL    HW138288  12.505  12.694  10.587
78797SOL    HW238289  12.485  12.830  10.649
78798SOL     OW38290   9.013  14.659   8.263
78798SOL    HW138291   9.066  14.737   8.277
78798SOL    HW238292   8.923  14.687   8.280
78799SOL     OW38293   5.928   2.627   6.618
78799SOL    HW138294   5.849   2.630   6.564
78799SOL    HW238295   5.997   2.663   6.563
78800SOL     OW38296   8.417   8.141   8.651
78800SOL    HW138297   8.351   8.206   8.678
78800SOL    HW238298   8.366   8.072   8.608
78801SOL     OW38299  11.110  11.646   8.055
78801SOL    HW138300  11.083  11.577   7.994
78801SOL    HW238301  11.069  11.621   8.138
78802SOL     OW38302   9.932   5.735   2.998
78802SOL    HW138303   9.882   5.811   3.029
78802SOL    HW238304   9.890   5.660   3.041
78803SOL     OW38305   7.261  10.611   8.654
78803SOL    HW138306   7.236  10.647   8.569
78803SOL    HW238307   7.238  10.518   8.648
78804SOL     OW38308   3.142  11.043  14.183
78804SOL    HW138309   3.153  11.110  14.116
78804SOL    HW238310   3.153  10.960  14.136
78805SOL     OW38311   9.739   3.379  10.439
78805SOL    HW138312   9.671   3.410  10.379
78805SOL    HW238313   9.692   3.359  10.521
78806SOL     OW38314   9.551   1.797   8.517
78806SOL    HW138315   9.572   1.789   8.424
78806SOL    HW238316   9.617   1.856   8.552
78807SOL     OW38317   3.369  13.228  10.208
78807SOL    HW138318   3.322  13.193  10.132
78807SOL    HW238319   3.328  13.186  10.283
78808SOL     OW38320  12.536   4.107  14.398
78808SOL    HW138321  12.610   4.139  14.347
78808SOL    HW238322  12.547   4.011  14.398
78809SOL     OW38323  11.350  10.931   1.645
78809SOL    HW138324  11.388  10.997   1.586
78809SOL    HW238325  11.274  10.973   1.684
78810SOL     OW38326   4.954   8.333   5.041
78810SOL    HW138327   5.014   8.276   5.089
78810SOL    HW238328   4.870   8.287   5.043
78811SOL     OW38329  10.442   9.127  11.968
78811SOL    HW138330  10.452   9.165  11.881
78811SOL    HW238331  10.419   9.036  11.952
78812SOL     OW38332   4.092   1.928   5.227
78812SOL    HW138333   4.114   1.979   5.305
78812SOL    HW238334   4.026   1.981   5.182
78813SOL     OW38335   8.079  11.889   5.652
78813SOL    HW138336   8.046  11.979   5.654
78813SOL    HW238337   8.086  11.864   5.744
78814SOL     OW38338   2.248   3.101   5.264
78814SOL    HW138339   2.310   3.163   5.227
78814SOL    HW238340   2.275   3.091   5.355
78815SOL     OW38341   4.616  12.034   2.834
78815SOL    HW138342   4.703  12.025   2.795
78815SOL    HW238343   4.614  12.125   2.866
78816SOL     OW38344   5.422   7.761   0.303
78816SOL    HW138345   5.512   7.750   0.272
78816SOL    HW238346   5.427   7.831   0.367
78817SOL     OW38347   6.382   6.534   7.275
78817SOL    HW138348   6.372   6.495   7.362
78817SOL    HW238349   6.442   6.475   7.229
78818SOL     OW38350  13.951   5.549   6.993
78818SOL    HW138351  14.043   5.572   6.978
78818SOL    HW238352  13.946   5.527   7.086
78819SOL     OW38353   8.055  14.818   8.683
78819SOL    HW138354   8.143  14.851   8.702
78819SOL    HW238355   8.008  14.825   8.766
78820SOL     OW38356   3.445   3.780  10.337
78820SOL    HW138357   3.488   3.832  10.404
78820SOL    HW238358   3.410   3.704  10.384
78821SOL     OW38359   9.265   2.398   3.447
78821SOL    HW138360   9.290   2.366   3.533
78821SOL    HW238361   9.289   2.327   3.387
78822SOL     OW38362  10.950   4.392   2.764
78822SOL    HW138363  10.921   4.474   2.805
78822SOL    HW238364  11.002   4.420   2.688
78823SOL     OW38365   5.748  12.412   1.831
78823SOL    HW138366   5.820  12.412   1.767
78823SOL    HW238367   5.754  12.497   1.874
78824SOL     OW38368   0.481  14.038   0.686
78824SOL    HW138369   0.487  14.078   0.599
78824SOL    HW238370   0.532  14.096   0.742
78825SOL     OW38371   9.274  10.777   5.414
78825SOL    HW138372   9.212  10.786   5.341
78825SOL    HW238373   9.345  10.722   5.379
78826SOL     OW38374   6.507   4.081   7.391
78826SOL    HW138375   6.413   4.067   7.383
78826SOL    HW238376   6.528   4.142   7.321
78827SOL     OW38377   7.513   4.226   1.588
78827SOL    HW138378   7.601   4.250   1.618
78827SOL    HW238379   7.459   4.228   1.667
78828SOL     OW38380   4.148   0.912  10.567
78828SOL    HW138381   4.161   0.901  10.473
78828SOL    HW238382   4.144   0.823  10.601
78829SOL     OW38383   2.299  14.769   5.427
78829SOL    HW138384   2.250  14.769   5.345
78829SOL    HW238385   2.390  14.753   5.401
78830SOL     OW38386   3.746   5.743   0.409
78830SOL    HW138387   3.816   5.722   0.470
78830SOL    HW238388   3.665   5.721   0.456
78831SOL     OW38389   3.091   2.340  13.992
78831SOL    HW138390   3.158   2.389  13.944
78831SOL    HW238391   3.023   2.405  14.012
78832SOL     OW38392   7.297   1.242   0.774
78832SOL    HW138393   7.320   1.196   0.693
78832SOL    HW238394   7.311   1.176   0.843
78833SOL     OW38395  14.771   3.747  14.574
78833SOL    HW138396  14.678   3.762  14.592
78833SOL    HW238397  14.771   3.682  14.503
78834SOL     OW38398  11.101  13.609   5.932
78834SOL    HW138399  11.126  13.516   5.932
78834SOL    HW238400  11.166  13.652   5.877
78835SOL     OW38401  12.308  13.045   6.883
78835SOL    HW138402  12.396  13.045   6.845
78835SOL    HW238403  12.250  13.071   6.811
78836SOL     OW38404  14.288  11.486   1.798
78836SOL    HW138405  14.215  11.451   1.746
78836SOL    HW238406  14.312  11.567   1.754
78837SOL     OW38407   8.006  11.283   1.946
78837SOL    HW138408   7.948  11.324   1.882
78837SOL    HW238409   8.009  11.345   2.019
78838SOL     OW38410  10.362   6.206   0.880
78838SOL    HW138411  10.340   6.266   0.952
78838SOL    HW238412  10.397   6.129   0.923
78839SOL     OW38413   9.594   2.851  10.878
78839SOL    HW138414   9.561   2.940  10.894
78839SOL    HW238415   9.566   2.832  10.788
78840SOL     OW38416  13.959   7.598   0.543
78840SOL    HW138417  13.957   7.664   0.473
78840SOL    HW238418  14.029   7.538   0.517
78841SOL     OW38419   0.655  12.624   7.872
78841SOL    HW138420   0.680  12.536   7.844
78841SOL    HW238421   0.687  12.630   7.962
78842SOL     OW38422   9.093   9.987   0.797
78842SOL    HW138423   9.081   9.919   0.730
78842SOL    HW238424   9.055   9.949   0.876
78843SOL     OW38425   7.712  12.701   2.089
78843SOL    HW138426   7.624  12.718   2.120
78843SOL    HW238427   7.754  12.788   2.088
78844SOL     OW38428  11.529   5.202  10.654
78844SOL    HW138429  11.486   5.203  10.569
78844SOL    HW238430  11.483   5.268  10.706
78845SOL     OW38431   1.799   9.612  13.518
78845SOL    HW138432   1.812   9.609  13.423
78845SOL    HW238433   1.730   9.548  13.535
78846SOL     OW38434  13.764   7.294   4.778
78846SOL    HW138435  13.813   7.218   4.744
78846SOL    HW238436  13.799   7.368   4.730
78847SOL     OW38437  14.447  11.114   5.156
78847SOL    HW138438  14.393  11.116   5.235
78847SOL    HW238439  14.386  11.092   5.086
78848SOL     OW38440   7.953  10.124   8.281
78848SOL    HW138441   7.915  10.179   8.213
78848SOL    HW238442   8.002  10.184   8.337
78849SOL     OW38443   6.543   2.530   9.650
78849SOL    HW138444   6.511   2.560   9.565
78849SOL    HW238445   6.620   2.585   9.666
78850SOL     OW38446   9.445   8.864   5.945
78850SOL    HW138447   9.507   8.890   5.876
78850SOL    HW238448   9.423   8.946   5.989
78851SOL     OW38449   8.872   6.601  11.900
78851SOL    HW138450   8.825   6.636  11.825
78851SOL    HW238451   8.924   6.674  11.932
78852SOL     OW38452   1.545  13.925   2.456
78852SOL    HW138453   1.542  13.961   2.545
78852SOL    HW238454   1.466  13.959   2.414
78853SOL     OW38455  14.194  11.218   8.769
78853SOL    HW138456  14.255  11.148   8.748
78853SOL    HW238457  14.210  11.238   8.861
78854SOL     OW38458  12.600   4.126   9.651
78854SOL    HW138459  12.641   4.045   9.620
78854SOL    HW238460  12.521   4.135   9.597
78855SOL     OW38461  13.387  10.071  12.049
78855SOL    HW138462  13.468  10.021  12.050
78855SOL    HW238463  13.318  10.006  12.058
78856SOL     OW38464   8.367   1.140  12.268
78856SOL    HW138465   8.406   1.062  12.229
78856SOL    HW238466   8.389   1.134  12.361
78857SOL     OW38467   9.798  10.303   3.560
78857SOL    HW138468   9.868  10.361   3.530
78857SOL    HW238469   9.744  10.359   3.616
78858SOL     OW38470   0.253  11.869   9.525
78858SOL    HW138471   0.223  11.960   9.536
78858SOL    HW238472   0.217  11.842   9.441
78859SOL     OW38473   3.362   6.729   6.480
78859SOL    HW138474   3.446   6.688   6.502
78859SOL    HW238475   3.349   6.710   6.387
78860SOL     OW38476  14.300  14.384  13.534
78860SOL    HW138477  14.346  14.403  13.616
78860SOL    HW238478  14.332  14.298  13.508
78861SOL     OW38479  14.842  14.526   0.009
78861SOL    HW138480  14.757  14.551  14.843
78861SOL    HW238481  14.862  14.593   0.074
78862SOL     OW38482   8.570   9.688   7.404
78862SOL    HW138483   8.656   9.687   7.446
78862SOL    HW238484   8.545   9.596   7.398
78863SOL     OW38485  14.835   5.874  14.604
78863SOL    HW138486  14.803   5.800  14.553
78863SOL    HW238487   0.056   5.851  14.624
78864SOL     OW38488   3.730  14.520   9.996
78864SOL    HW138489   3.645  14.560   9.977
78864SOL    HW238490   3.713  14.425   9.993
78865SOL     OW38491   8.747   6.058  10.483
78865SOL    HW138492   8.706   6.131  10.437
78865SOL    HW238493   8.838   6.086  10.495
78866SOL     OW38494  13.897   3.429   6.123
78866SOL    HW138495  13.917   3.514   6.164
78866SOL    HW238496  13.878   3.371   6.197
78867SOL     OW38497   6.775  14.530   4.045
78867SOL    HW138498   6.835  14.604   4.043
78867SOL    HW238499   6.688  14.569   4.036
78868SOL     OW38500   8.606   3.819  10.504
78868SOL    HW138501   8.553   3.899  10.509
78868SOL    HW238502   8.657   3.820  10.585
78869SOL     OW38503   8.580   0.659  10.621
78869SOL    HW138504   8.590   0.631  10.530
78869SOL    HW238505   8.488   0.687  10.628
78870SOL     OW38506   5.933   6.290   1.622
78870SOL    HW138507   5.848   6.255   1.647
78870SOL    HW238508   5.919   6.385   1.620
78871SOL     OW38509   5.220   5.798   7.817
78871SOL    HW138510   5.283   5.853   7.769
78871SOL    HW238511   5.138   5.810   7.770
78872SOL     OW38512   9.495   9.443   7.290
78872SOL    HW138513   9.491   9.522   7.343
78872SOL    HW238514   9.554   9.465   7.218
78873SOL     OW38515  12.926   3.734  11.135
78873SOL    HW138516  12.931   3.643  11.109
78873SOL    HW238517  12.868   3.775  11.070
78874SOL     OW38518   9.091   4.569   2.495
78874SOL    HW138519   9.036   4.605   2.566
78874SOL    HW238520   9.180   4.571   2.530
78875SOL     OW38521   6.398   8.338   1.892
78875SOL    HW138522   6.347   8.374   1.964
78875SOL    HW238523   6.480   8.310   1.932
78876SOL     OW38524   3.860   8.815   2.508
78876SOL    HW138525   3.875   8.729   2.549
78876SOL    HW238526   3.788   8.853   2.559
78877SOL     OW38527   8.361   5.057   4.618
78877SOL    HW138528   8.418   5.095   4.552
78877SOL    HW238529   8.319   4.983   4.574
78878SOL     OW38530   3.158   1.360   2.764
78878SOL    HW138531   3.176   1.291   2.828
78878SOL    HW238532   3.237   1.364   2.710
78879SOL     OW38533  10.158   0.335   7.631
78879SOL    HW138534  10.242   0.340   7.585
78879SOL    HW238535  10.144   0.242   7.646
78880SOL     OW38536  14.069  14.233   9.190
78880SOL    HW138537  13.975  14.252   9.190
78880SOL    HW238538  14.095  14.243   9.282
78881SOL     OW38539   5.164   8.707   0.528
78881SOL    HW138540   5.251   8.673   0.506
78881SOL    HW238541   5.135   8.651   0.600
78882SOL     OW38542   6.286   1.559  14.002
78882SOL    HW138543   6.258   1.470  14.023
78882SOL    HW238544   6.372   1.567  14.043
78883SOL     OW38545  11.668   9.794   7.844
78883SOL    HW138546  11.655   9.823   7.754
78883SOL    HW238547  11.747   9.839   7.873
78884SOL     OW38548  10.434   1.202  12.622
78884SOL    HW138549  10.363   1.142  12.644
78884SOL    HW238550  10.459   1.243  12.705
78885SOL     OW38551   7.820   2.648   9.599
78885SOL    HW138552   7.779   2.732   9.575
78885SOL    HW238553   7.782   2.585   9.538
78886SOL     OW38554   4.213  10.309   3.721
78886SOL    HW138555   4.193  10.222   3.688
78886SOL    HW238556   4.165  10.316   3.804
78887SOL     OW38557   4.932   0.843  11.252
78887SOL    HW138558   4.900   0.822  11.340
78887SOL    HW238559   5.027   0.852  11.264
78888SOL     OW38560  14.095   3.573  10.850
78888SOL    HW138561  14.025   3.575  10.915
78888SOL    HW238562  14.063   3.511  10.783
78889SOL     OW38563   0.338  12.153   3.429
78889SOL    HW138564   0.378  12.105   3.501
78889SOL    HW238565   0.314  12.086   3.365
78890SOL     OW38566   4.563  10.774   8.081
78890SOL    HW138567   4.617  10.853   8.088
78890SOL    HW238568   4.582  10.740   7.994
78891SOL     OW38569   5.679  10.298  12.144
78891SOL    HW138570   5.680  10.384  12.185
78891SOL    HW238571   5.586  10.276  12.137
78892SOL     OW38572  10.521  10.708   0.221
78892SOL    HW138573  10.606  10.709   0.176
78892SOL    HW238574  10.461  10.752   0.161
78893SOL     OW38575   1.580   9.457   9.614
78893SOL    HW138576   1.628   9.523   9.663
78893SOL    HW238577   1.647   9.404   9.571
78894SOL     OW38578   2.007  10.909   3.972
78894SOL    HW138579   1.940  10.877   3.912
78894SOL    HW238580   1.959  10.959   4.038
78895SOL     OW38581   6.883  13.328  10.908
78895SOL    HW138582   6.871  13.234  10.916
78895SOL    HW238583   6.858  13.364  10.993
78896SOL     OW38584   1.803   8.559   5.655
78896SOL    HW138585   1.727   8.565   5.714
78896SOL    HW238586   1.818   8.465   5.646
78897SOL     OW38587  11.116   9.160  11.611
78897SOL    HW138588  11.063   9.218  11.556
78897SOL    HW238589  11.196   9.145  11.561
78898SOL     OW38590   6.815   7.503  11.233
78898SOL    HW138591   6.741   7.564  11.229
78898SOL    HW238592   6.781   7.423  11.193
78899SOL     OW38593   8.562   0.950   8.089
78899SOL    HW138594   8.547   0.972   7.997
78899SOL    HW238595   8.478   0.919   8.120
78900SOL     OW38596   7.691  13.613  14.189
78900SOL    HW138597   7.654  13.692  14.230
78900SOL    HW238598   7.725  13.644  14.105
78901SOL     OW38599   4.214   8.257   1.212
78901SOL    HW138600   4.140   8.205   1.179
78901SOL    HW238601   4.292   8.213   1.178
78902SOL     OW38602   8.335   1.978   0.247
78902SOL    HW138603   8.262   2.012   0.299
78902SOL    HW238604   8.293   1.929   0.176
78903SOL     OW38605  11.541   5.143   3.623
78903SOL    HW138606  11.487   5.194   3.684
78903SOL    HW238607  11.523   5.182   3.538
78904SOL     OW38608  11.789   6.723   7.821
78904SOL    HW138609  11.700   6.754   7.801
78904SOL    HW238610  11.826   6.700   7.736
78905SOL     OW38611   4.740   8.875   4.144
78905SOL    HW138612   4.694   8.959   4.143
78905SOL    HW238613   4.672   8.810   4.128
78906SOL     OW38614   5.906   4.054   2.839
78906SOL    HW138615   5.853   4.067   2.761
78906SOL    HW238616   5.843   4.025   2.906
78907SOL     OW38617   1.581  12.828   3.417
78907SOL    HW138618   1.631  12.870   3.348
78907SOL    HW238619   1.626  12.852   3.498
78908SOL     OW38620  11.219  12.895   2.447
78908SOL    HW138621  11.270  12.820   2.418
78908SOL    HW238622  11.272  12.934   2.517
78909SOL     OW38623  11.859   1.869  11.844
78909SOL    HW138624  11.772   1.829  11.850
78909SOL    HW238625  11.911   1.806  11.794
78910SOL     OW38626   0.912   0.635   7.307
78910SOL    HW138627   0.855   0.560   7.287
78910SOL    HW238628   0.904   0.692   7.231
78911SOL     OW38629   4.671   0.352   8.661
78911SOL    HW138630   4.719   0.418   8.712
78911SOL    HW238631   4.724   0.273   8.669
78912SOL     OW38632   7.518   1.489  12.039
78912SOL    HW138633   7.469   1.431  12.099
78912SOL    HW238634   7.575   1.430  11.991
78913SOL     OW38635   6.586   0.511   1.547
78913SOL    HW138636   6.508   0.531   1.599
78913SOL    HW238637   6.611   0.595   1.508
78914SOL     OW38638   1.359  12.798  12.075
78914SOL    HW138639   1.308  12.858  12.022
78914SOL    HW238640   1.407  12.854  12.136
78915SOL     OW38641  10.662   6.067   8.492
78915SOL    HW138642  10.702   6.049   8.577
78915SOL    HW238643  10.569   6.054   8.505
78916SOL     OW38644  13.116   2.488   4.998
78916SOL    HW138645  13.137   2.579   5.015
78916SOL    HW238646  13.051   2.465   5.065
78917SOL     OW38647  10.916   9.228   8.533
78917SOL    HW138648  10.860   9.170   8.586
78917SOL    HW238649  10.860   9.253   8.459
78918SOL     OW38650   9.447  10.294   1.962
78918SOL    HW138651   9.537  10.286   1.931
78918SOL    HW238652   9.395  10.307   1.882
78919SOL     OW38653   3.677   1.837   8.656
78919SOL    HW138654   3.583   1.854   8.667
78919SOL    HW238655   3.717   1.874   8.735
78920SOL     OW38656   6.153   2.957   0.462
78920SOL    HW138657   6.248   2.953   0.466
78920SOL    HW238658   6.125   2.956   0.554
78921SOL     OW38659   0.256  14.564   4.004
78921SOL    HW138660   0.313  14.639   4.019
78921SOL    HW238661   0.202  14.589   3.929
78922SOL     OW38662  12.496  12.344   7.684
78922SOL    HW138663  12.533  12.340   7.772
78922SOL    HW238664  12.569  12.322   7.626
78923SOL     OW38665  13.813   5.339   0.684
78923SOL    HW138666  13.890   5.283   0.687
78923SOL    HW238667  13.778   5.327   0.595
78924SOL     OW38668   6.949   1.821   9.059
78924SOL    HW138669   6.898   1.901   9.068
78924SOL    HW238670   7.034   1.850   9.026
78925SOL     OW38671  14.398   5.932  11.383
78925SOL    HW138672  14.339   5.860  11.361
78925SOL    HW238673  14.392   5.992  11.308
78926SOL     OW38674   4.694   3.271   7.544
78926SOL    HW138675   4.621   3.311   7.591
78926SOL    HW238676   4.664   3.183   7.522
78927SOL     OW38677  12.836  12.814   2.403
78927SOL    HW138678  12.885  12.737   2.431
78927SOL    HW238679  12.756  12.779   2.364
78928SOL     OW38680   2.467   2.120   0.134
78928SOL    HW138681   2.521   2.138   0.211
78928SOL    HW238682   2.472   2.200   0.082
78929SOL     OW38683  11.377   0.793   7.395
78929SOL    HW138684  11.368   0.782   7.301
78929SOL    HW238685  11.350   0.884   7.412
78930SOL     OW38686  11.182  13.303  10.346
78930SOL    HW138687  11.228  13.269  10.270
78930SOL    HW238688  11.100  13.254  10.348
78931SOL     OW38689   8.894  13.808   5.478
78931SOL    HW138690   8.807  13.811   5.517
78931SOL    HW238691   8.905  13.717   5.449
78932SOL     OW38692   1.892  10.829   9.662
78932SOL    HW138693   1.872  10.766   9.593
78932SOL    HW238694   1.899  10.913   9.617
78933SOL     OW38695   2.875   5.475   9.011
78933SOL    HW138696   2.904   5.548   8.957
78933SOL    HW238697   2.796   5.442   8.968
78934SOL     OW38698  12.674   0.272  10.857
78934SOL    HW138699  12.661   0.366  10.847
78934SOL    HW238700  12.760   0.264  10.899
78935SOL     OW38701  11.652   7.349  13.278
78935SOL    HW138702  11.559   7.372  13.281
78935SOL    HW238703  11.659   7.270  13.331
78936SOL     OW38704   6.029   3.046  11.804
78936SOL    HW138705   6.099   3.086  11.751
78936SOL    HW238706   6.073   3.017  11.884
78937SOL     OW38707   9.495  10.986   0.502
78937SOL    HW138708   9.581  11.015   0.534
78937SOL    HW238709   9.464  11.058   0.448
78938SOL     OW38710   4.839   8.825  13.536
78938SOL    HW138711   4.844   8.919  13.551
78938SOL    HW238712   4.888   8.811  13.455
78939SOL     OW38713   3.085  11.407  13.222
78939SOL    HW138714   2.997  11.439  13.245
78939SOL    HW238715   3.139  11.485  13.219
78940SOL     OW38716  10.745   8.038  10.242
78940SOL    HW138717  10.711   8.097  10.175
78940SOL    HW238718  10.685   7.963  10.242
78941SOL     OW38719   6.555   0.560   2.720
78941SOL    HW138720   6.580   0.511   2.641
78941SOL    HW238721   6.596   0.513   2.792
78942SOL     OW38722   7.744  13.904   9.965
78942SOL    HW138723   7.716  13.885  10.055
78942SOL    HW238724   7.822  13.850   9.953
78943SOL     OW38725   4.826  11.201   2.507
78943SOL    HW138726   4.820  11.153   2.425
78943SOL    HW238727   4.866  11.139   2.568
78944SOL     OW38728   3.676   9.050   3.457
78944SOL    HW138729   3.680   9.000   3.538
78944SOL    HW238730   3.708   8.989   3.390
78945SOL     OW38731   9.027   6.804  14.493
78945SOL    HW138732   8.937   6.772  14.505
78945SOL    HW238733   9.076   6.766  14.566
78946SOL     OW38734   2.991   6.653   9.760
78946SOL    HW138735   2.998   6.598   9.682
78946SOL    HW238736   3.059   6.720   9.748
78947SOL     OW38737  12.264   3.861  10.712
78947SOL    HW138738  12.196   3.880  10.647
78947SOL    HW238739  12.280   3.767  10.704
78948SOL     OW38740  12.032   7.024  10.747
78948SOL    HW138741  12.119   7.056  10.769
78948SOL    HW238742  12.042   6.929  10.743
78949SOL     OW38743   4.324   9.573   1.215
78949SOL    HW138744   4.272   9.559   1.294
78949SOL    HW238745   4.386   9.500   1.213
78950SOL     OW38746   8.473   6.296  13.489
78950SOL    HW138747   8.501   6.302  13.580
78950SOL    HW238748   8.465   6.202  13.472
78951SOL     OW38749   9.681   2.652   8.464
78951SOL    HW138750   9.700   2.575   8.411
78951SOL    HW238751   9.708   2.726   8.410
78952SOL     OW38752  11.957   7.402  14.378
78952SOL    HW138753  12.022   7.447  14.324
78952SOL    HW238754  11.927   7.467  14.441
78953SOL     OW38755  13.424  10.061  14.303
78953SOL    HW138756  13.338  10.025  14.282
78953SOL    HW238757  13.486   9.993  14.275
78954SOL     OW38758   9.616   3.648  11.613
78954SOL    HW138759   9.695   3.617  11.658
78954SOL    HW238760   9.625   3.616  11.523
78955SOL     OW38761   0.443  11.073   9.995
78955SOL    HW138762   0.420  11.062   9.903
78955SOL    HW238763   0.391  11.006  10.041
78956SOL     OW38764   4.851  11.485  10.954
78956SOL    HW138765   4.908  11.417  10.991
78956SOL    HW238766   4.855  11.470  10.860
78957SOL     OW38767   0.787   8.834   2.179
78957SOL    HW138768   0.796   8.754   2.127
78957SOL    HW238769   0.781   8.904   2.114
78958SOL     OW38770   4.090   3.773   6.820
78958SOL    HW138771   4.080   3.692   6.768
78958SOL    HW238772   4.019   3.830   6.789
78959SOL     OW38773  14.559   2.196  14.121
78959SOL    HW138774  14.527   2.247  14.196
78959SOL    HW238775  14.620   2.132  14.160
78960SOL     OW38776   1.645   3.141  14.646
78960SOL    HW138777   1.650   3.046  14.652
78960SOL    HW238778   1.735   3.168  14.628
78961SOL     OW38779  10.764   4.683   7.135
78961SOL    HW138780  10.814   4.731   7.200
78961SOL    HW238781  10.713   4.619   7.185
78962SOL     OW38782  12.456  13.756  13.921
78962SOL    HW138783  12.411  13.753  14.006
78962SOL    HW238784  12.548  13.772  13.944
78963SOL     OW38785   6.203   5.968   8.988
78963SOL    HW138786   6.292   5.947   8.963
78963SOL    HW238787   6.150   5.895   8.954
78964SOL     OW38788  11.388   2.101  10.998
78964SOL    HW138789  11.300   2.082  11.030
78964SOL    HW238790  11.446   2.051  11.056
78965SOL     OW38791   0.853   5.803  10.922
78965SOL    HW138792   0.901   5.834  10.845
78965SOL    HW238793   0.825   5.883  10.967
78966SOL     OW38794  13.800  11.959   9.290
78966SOL    HW138795  13.793  12.019   9.364
78966SOL    HW238796  13.718  11.910   9.291
78967SOL     OW38797   6.943   6.450   3.790
78967SOL    HW138798   6.982   6.472   3.705
78967SOL    HW238799   7.004   6.388   3.829
78968SOL     OW38800   9.160   8.570   2.918
78968SOL    HW138801   9.238   8.524   2.887
78968SOL    HW238802   9.090   8.544   2.858
78969SOL     OW38803   6.623   3.491   2.296
78969SOL    HW138804   6.593   3.517   2.383
78969SOL    HW238805   6.626   3.572   2.246
78970SOL     OW38806  13.966   6.768   5.959
78970SOL    HW138807  14.052   6.731   5.940
78970SOL    HW238808  13.959   6.763   6.055
78971SOL     OW38809  11.084   7.222  13.762
78971SOL    HW138810  11.041   7.137  13.754
78971SOL    HW238811  11.134   7.217  13.844
78972SOL     OW38812   7.496   7.324   3.778
78972SOL    HW138813   7.415   7.293   3.736
78972SOL    HW238814   7.484   7.418   3.788
78973SOL     OW38815   1.557  12.602  12.169
78973SOL    HW138816   1.575  12.640  12.255
78973SOL    HW238817   1.479  12.648  12.138
78974SOL     OW38818  11.914   3.796   2.511
78974SOL    HW138819  11.971   3.773   2.585
78974SOL    HW238820  11.833   3.827   2.552
78975SOL     OW38821  13.849  12.541  10.925
78975SOL    HW138822  13.820  12.611  10.983
78975SOL    HW238823  13.780  12.534  10.859
78976SOL     OW38824   8.602  10.271  12.406
78976SOL    HW138825   8.663  10.252  12.335
78976SOL    HW238826   8.516  10.249  12.372
78977SOL     OW38827  10.109  13.248  10.226
78977SOL    HW138828  10.157  13.330  10.211
78977SOL    HW238829  10.088  13.216  10.138
78978SOL     OW38830   9.442   7.469   9.671
78978SOL    HW138831   9.487   7.516   9.741
78978SOL    HW238832   9.431   7.533   9.602
78979SOL     OW38833  11.102   4.909  14.596
78979SOL    HW138834  11.137   4.897  14.508
78979SOL    HW238835  11.017   4.952  14.582
78980SOL     OW38836   9.471   8.488   0.810
78980SOL    HW138837   9.545   8.507   0.752
78980SOL    HW238838   9.473   8.557   0.876
78981SOL     OW38839  12.133  13.169   6.151
78981SOL    HW138840  12.065  13.236   6.139
78981SOL    HW238841  12.123  13.142   6.242
78982SOL     OW38842   7.981   3.772  12.813
78982SOL    HW138843   7.915   3.707  12.837
78982SOL    HW238844   7.948   3.854  12.848
78983SOL     OW38845  12.242   1.866   1.420
78983SOL    HW138846  12.311   1.896   1.479
78983SOL    HW238847  12.176   1.934   1.424
78984SOL     OW38848   4.789   4.146   5.177
78984SOL    HW138849   4.763   4.219   5.121
78984SOL    HW238850   4.815   4.186   5.260
78985SOL     OW38851  14.778   7.759   4.690
78985SOL    HW138852  14.688   7.750   4.656
78985SOL    HW238853  14.827   7.796   4.616
78986SOL     OW38854   8.380   2.895   7.513
78986SOL    HW138855   8.330   2.883   7.433
78986SOL    HW238856   8.328   2.955   7.566
78987SOL     OW38857  12.102   9.605  10.030
78987SOL    HW138858  12.150   9.543   9.975
78987SOL    HW238859  12.142   9.595  10.117
78988SOL     OW38860   1.300   8.974   6.233
78988SOL    HW138861   1.339   9.035   6.170
78988SOL    HW238862   1.227   8.934   6.187
78989SOL     OW38863   4.751   7.891   8.600
78989SOL    HW138864   4.826   7.843   8.635
78989SOL    HW238865   4.780   7.922   8.514
78990SOL     OW38866   2.051   1.692   1.513
78990SOL    HW138867   2.016   1.751   1.580
78990SOL    HW238868   2.146   1.697   1.524
78991SOL     OW38869  13.557  13.539   9.006
78991SOL    HW138870  13.518  13.484   8.938
78991SOL    HW238871  13.555  13.627   8.970
78992SOL     OW38872   6.941   9.692   1.066
78992SOL    HW138873   6.886   9.649   1.131
78992SOL    HW238874   6.898   9.776   1.049
78993SOL     OW38875   5.652   4.878  10.305
78993SOL    HW138876   5.648   4.865  10.210
78993SOL    HW238877   5.573   4.928  10.326
78994SOL     OW38878  11.537   6.785   4.678
78994SOL    HW138879  11.448   6.793   4.645
78994SOL    HW238880  11.538   6.702   4.726
78995SOL     OW38881   3.229  12.171   7.286
78995SOL    HW138882   3.239  12.266   7.290
78995SOL    HW238883   3.308  12.141   7.240
78996SOL     OW38884   8.431  12.739  12.277
78996SOL    HW138885   8.498  12.694  12.329
78996SOL    HW238886   8.358  12.678  12.275
78997SOL     OW38887   5.391  12.302   7.419
78997SOL    HW138888   5.429  12.376   7.372
78997SOL    HW238889   5.463  12.269   7.473
78998SOL     OW38890   8.126   9.477   6.454
78998SOL    HW138891   8.134   9.383   6.443
78998SOL    HW238892   8.094   9.489   6.543
78999SOL     OW38893  12.515   7.763   1.369
78999SOL    HW138894  12.448   7.711   1.414
78999SOL    HW238895  12.488   7.762   1.278
79000SOL     OW38896  13.119   0.229   5.007
79000SOL    HW138897  13.150   0.262   4.922
79000SOL    HW238898  13.155   0.291   5.070
79001SOL     OW38899   9.376   0.928  12.231
79001SOL    HW138900   9.419   1.011  12.211
79001SOL    HW238901   9.421   0.896  12.310
79002SOL     OW38902   5.852  10.012   8.890
79002SOL    HW138903   5.781  10.030   8.829
79002SOL    HW238904   5.828   9.929   8.932
79003SOL     OW38905  13.687   5.776   2.509
79003SOL    HW138906  13.654   5.703   2.457
79003SOL    HW238907  13.663   5.854   2.458
79004SOL     OW38908   0.227   4.612   1.926
79004SOL    HW138909   0.168   4.627   1.852
79004SOL    HW238910   0.245   4.518   1.924
79005SOL     OW38911  12.727   8.327   9.306
79005SOL    HW138912  12.777   8.276   9.370
79005SOL    HW238913  12.735   8.278   9.224
79006SOL     OW38914  13.791   8.751   2.590
79006SOL    HW138915  13.838   8.668   2.581
79006SOL    HW238916  13.706   8.736   2.548
79007SOL     OW38917   5.254  13.714   1.955
79007SOL    HW138918   5.221  13.676   1.873
79007SOL    HW238919   5.241  13.646   2.020
79008SOL     OW38920  12.826   8.815   8.062
79008SOL    HW138921  12.830   8.903   8.098
79008SOL    HW238922  12.736   8.806   8.028
79009SOL     OW38923   1.562   6.715   3.888
79009SOL    HW138924   1.541   6.739   3.979
79009SOL    HW238925   1.657   6.728   3.881
79010SOL     OW38926  14.295  10.903  14.808
79010SOL    HW138927  14.270  10.842   0.007
79010SOL    HW238928  14.320  10.847  14.734
79011SOL     OW38929   2.642  14.312   2.025
79011SOL    HW138930   2.558  14.309   2.071
79011SOL    HW238931   2.631  14.381   1.959
79012SOL     OW38932  10.266   8.275   7.348
79012SOL    HW138933  10.230   8.324   7.421
79012SOL    HW238934  10.205   8.202   7.335
79013SOL     OW38935   1.802   7.565   0.096
79013SOL    HW138936   1.755   7.641   0.064
79013SOL    HW238937   1.800   7.503   0.023
79014SOL     OW38938  13.804  14.370   8.068
79014SOL    HW138939  13.709  14.366   8.071
79014SOL    HW238940  13.823  14.445   8.011
79015SOL     OW38941   5.640   6.888   5.274
79015SOL    HW138942   5.716   6.910   5.220
79015SOL    HW238943   5.646   6.948   5.349
79016SOL     OW38944  13.613  13.040  14.622
79016SOL    HW138945  13.604  12.972  14.555
79016SOL    HW238946  13.670  13.106  14.583
79017SOL     OW38947   1.468  13.357   5.570
79017SOL    HW138948   1.516  13.274   5.578
79017SOL    HW238949   1.496  13.392   5.485
79018SOL     OW38950  10.355   2.270  12.671
79018SOL    HW138951  10.394   2.352  12.641
79018SOL    HW238952  10.296   2.245  12.599
79019SOL     OW38953   5.036   2.847   6.629
79019SOL    HW138954   5.042   2.820   6.537
79019SOL    HW238955   4.994   2.932   6.626
79020SOL     OW38956  12.727  10.601  12.162
79020SOL    HW138957  12.790  10.530  12.174
79020SOL    HW238958  12.757  10.648  12.085
79021SOL     OW38959  12.778   7.415  14.688
79021SOL    HW138960  12.855   7.437  14.635
79021SOL    HW238961  12.706   7.410  14.626
79022SOL     OW38962   7.916   1.481   0.202
79022SOL    HW138963   7.850   1.531   0.249
79022SOL    HW238964   7.970   1.442   0.270
79023SOL     OW38965   5.464   6.055   9.915
79023SOL    HW138966   5.526   5.995   9.956
79023SOL    HW238967   5.385   6.048   9.969
79024SOL     OW38968  11.930   1.738   6.214
79024SOL    HW138969  11.916   1.668   6.151
79024SOL    HW238970  11.971   1.695   6.289
79025SOL     OW38971   9.111   7.788   2.492
79025SOL    HW138972   9.186   7.739   2.458
79025SOL    HW238973   9.113   7.871   2.445
79026SOL     OW38974   6.393   9.724   3.136
79026SOL    HW138975   6.383   9.671   3.214
79026SOL    HW238976   6.312   9.775   3.130
79027SOL     OW38977   5.302   7.134   4.145
79027SOL    HW138978   5.280   7.138   4.052
79027SOL    HW238979   5.398   7.136   4.147
79028SOL     OW38980   3.095   3.603  13.268
79028SOL    HW138981   3.129   3.553  13.194
79028SOL    HW238982   3.128   3.692  13.254
79029SOL     OW38983  10.787  12.128   9.691
79029SOL    HW138984  10.847  12.195   9.725
79029SOL    HW238985  10.738  12.099   9.768
79030SOL     OW38986   7.302   1.181   8.276
79030SOL    HW138987   7.284   1.265   8.233
79030SOL    HW238988   7.398   1.178   8.283
79031SOL     OW38989   2.716  12.449   0.054
79031SOL    HW138990   2.750  12.494  14.846
79031SOL    HW238991   2.709  12.518   0.120
79032SOL     OW38992   0.137   8.894  12.698
79032SOL    HW138993   0.075   8.944  12.645
79032SOL    HW238994   0.185   8.960  12.748
79033SOL     OW38995  14.185   2.238   0.216
79033SOL    HW138996  14.116   2.247   0.150
79033SOL    HW238997  14.219   2.149   0.204
79034SOL     OW38998  10.315   5.352   1.192
79034SOL    HW138999  10.348   5.441   1.207
79034SOL    HW239000  10.335   5.306   1.274
79035SOL     OW39001  13.241  13.752   0.159
79035SOL    HW139002  13.283  13.708   0.233
79035SOL    HW239003  13.252  13.692   0.085
79036SOL     OW39004   9.748  11.398   1.944
79036SOL    HW139005   9.685  11.414   2.015
79036SOL    HW239006   9.740  11.475   1.888
79037SOL     OW39007   2.585   9.968  11.355
79037SOL    HW139008   2.677   9.943  11.365
79037SOL    HW239009   2.553   9.975  11.445
79038SOL     OW39010   0.986   6.083   7.894
79038SOL    HW139011   0.933   6.011   7.858
79038SOL    HW239012   1.071   6.043   7.911
79039SOL     OW39013   5.701  14.828   8.663
79039SOL    HW139014   5.663  14.779   8.736
79039SOL    HW239015   5.693  14.769   8.588
79040SOL     OW39016   4.639   7.154   1.802
79040SOL    HW139017   4.602   7.081   1.753
79040SOL    HW239018   4.695   7.199   1.739
79041SOL     OW39019  10.701   3.477   9.090
79041SOL    HW139020  10.743   3.462   9.175
79041SOL    HW239021  10.684   3.389   9.056
79042SOL     OW39022   2.727   5.968   2.665
79042SOL    HW139023   2.654   5.913   2.638
79042SOL    HW239024   2.765   6.000   2.583
79043SOL     OW39025  12.596  10.830  14.754
79043SOL    HW139026  12.568  10.853  14.842
79043SOL    HW239027  12.691  10.842  14.754
79044SOL     OW39028  11.394  11.972   4.050
79044SOL    HW139029  11.425  11.913   4.118
79044SOL    HW239030  11.416  11.929   3.967
79045SOL     OW39031   0.418   8.062   5.469
79045SOL    HW139032   0.497   8.058   5.415
79045SOL    HW239033   0.357   8.003   5.426
79046SOL     OW39034   1.632   5.088  11.102
79046SOL    HW139035   1.675   5.013  11.144
79046SOL    HW239036   1.540   5.065  11.101
79047SOL     OW39037  11.364   8.387   6.893
79047SOL    HW139038  11.298   8.338   6.845
79047SOL    HW239039  11.413   8.321   6.943
79048SOL     OW39040  12.474   6.357   2.735
79048SOL    HW139041  12.419   6.305   2.793
79048SOL    HW239042  12.520   6.293   2.681
79049SOL     OW39043   2.359  14.180  11.053
79049SOL    HW139044   2.319  14.259  11.091
79049SOL    HW239045   2.307  14.108  11.088
79050SOL     OW39046  10.965  10.749  11.037
79050SOL    HW139047  11.049  10.793  11.050
79050SOL    HW239048  10.975  10.701  10.954
79051SOL     OW39049  13.340   9.379  12.521
79051SOL    HW139050  13.396   9.322  12.467
79051SOL    HW239051  13.355   9.349  12.610
79052SOL     OW39052   3.763  13.258  14.239
79052SOL    HW139053   3.768  13.214  14.324
79052SOL    HW239054   3.798  13.193  14.177
79053SOL     OW39055  13.787   6.717  12.297
79053SOL    HW139056  13.723   6.720  12.368
79053SOL    HW239057  13.844   6.792  12.313
79054SOL     OW39058  11.122   3.795   5.012
79054SOL    HW139059  11.037   3.838   5.000
79054SOL    HW239060  11.171   3.818   4.933
79055SOL     OW39061  10.407   0.845  14.079
79055SOL    HW139062  10.370   0.761  14.105
79055SOL    HW239063  10.409   0.896  14.160
79056SOL     OW39064   0.717   3.631   4.284
79056SOL    HW139065   0.790   3.604   4.339
79056SOL    HW239066   0.681   3.708   4.328
79057SOL     OW39067   5.688   6.933  10.890
79057SOL    HW139068   5.672   7.027  10.902
79057SOL    HW239069   5.731   6.906  10.971
79058SOL     OW39070   6.340  11.930  13.041
79058SOL    HW139071   6.335  11.948  13.135
79058SOL    HW239072   6.392  11.850  13.035
79059SOL     OW39073   5.206  12.317   8.844
79059SOL    HW139074   5.271  12.364   8.895
79059SOL    HW239075   5.162  12.259   8.907
79060SOL     OW39076   8.691   2.030   9.048
79060SOL    HW139077   8.643   1.999   8.972
79060SOL    HW239078   8.709   2.122   9.029
79061SOL     OW39079  12.488   1.032   2.801
79061SOL    HW139080  12.442   1.024   2.885
79061SOL    HW239081  12.463   0.953   2.753
79062SOL     OW39082   9.531   5.123   2.872
79062SOL    HW139083   9.563   5.189   2.811
79062SOL    HW239084   9.525   5.043   2.820
79063SOL     OW39085   2.448   8.210  12.637
79063SOL    HW139086   2.480   8.229  12.725
79063SOL    HW239087   2.502   8.264  12.579
79064SOL     OW39088  13.012   7.468   3.525
79064SOL    HW139089  13.083   7.520   3.489
79064SOL    HW239090  12.950   7.458   3.452
79065SOL     OW39091   8.134   9.679  14.078
79065SOL    HW139092   8.158   9.608  14.018
79065SOL    HW239093   8.186   9.754  14.050
79066SOL     OW39094   7.367   9.459   2.206
79066SOL    HW139095   7.409   9.409   2.135
79066SOL    HW239096   7.273   9.448   2.191
79067SOL     OW39097   3.763  13.555   6.955
79067SOL    HW139098   3.712  13.522   7.029
79067SOL    HW239099   3.724  13.513   6.878
79068SOL     OW39100  14.020  10.567   0.880
79068SOL    HW139101  13.981  10.507   0.816
79068SOL    HW239102  14.092  10.517   0.918
79069SOL     OW39103  13.949   6.516   1.889
79069SOL    HW139104  14.021   6.496   1.949
79069SOL    HW239105  13.989   6.515   1.802
79070SOL     OW39106   4.810   7.610  13.689
79070SOL    HW139107   4.723   7.580  13.715
79070SOL    HW239108   4.807   7.705  13.701
79071SOL     OW39109   2.758   5.065   8.643
79071SOL    HW139110   2.808   5.061   8.561
79071SOL    HW239111   2.818   5.101   8.707
79072SOL     OW39112   7.837  13.792   5.600
79072SOL    HW139113   7.931  13.779   5.605
79072SOL    HW239114   7.809  13.804   5.690
79073SOL     OW39115  13.793  13.457   3.048
79073SOL    HW139116  13.850  13.380   3.052
79073SOL    HW239117  13.784  13.475   2.954
79074SOL     OW39118  13.659   1.122   8.744
79074SOL    HW139119  13.627   1.123   8.654
79074SOL    HW239120  13.720   1.049   8.747
79075SOL     OW39121   1.660   5.544  10.368
79075SOL    HW139122   1.690   5.555  10.458
79075SOL    HW239123   1.632   5.631  10.340
79076SOL     OW39124   7.416   9.275   0.305
79076SOL    HW139125   7.387   9.296   0.394
79076SOL    HW239126   7.493   9.220   0.318
79077SOL     OW39127   7.468   8.005  10.401
79077SOL    HW139128   7.556   7.986  10.434
79077SOL    HW239129   7.464   8.101  10.398
79078SOL     OW39130  11.189   7.766   3.159
79078SOL    HW139131  11.254   7.835   3.152
79078SOL    HW239132  11.158   7.752   3.069
79079SOL     OW39133   7.558   7.948   1.407
79079SOL    HW139134   7.471   7.967   1.442
79079SOL    HW239135   7.556   7.854   1.390
79080SOL     OW39136   9.353  11.800   3.452
79080SOL    HW139137   9.290  11.765   3.388
79080SOL    HW239138   9.438  11.792   3.408
79081SOL     OW39139  11.489  14.402   8.631
79081SOL    HW139140  11.528  14.335   8.687
79081SOL    HW239141  11.425  14.446   8.687
79082SOL     OW39142   7.317   4.666  10.069
79082SOL    HW139143   7.368   4.746  10.083
79082SOL    HW239144   7.369   4.597  10.110
79083SOL     OW39145  10.412   9.838  11.807
79083SOL    HW139146  10.449   9.797  11.729
79083SOL    HW239147  10.484   9.892  11.842
79084SOL     OW39148   8.256   5.636   5.955
79084SOL    HW139149   8.244   5.629   6.049
79084SOL    HW239150   8.169   5.654   5.921
79085SOL     OW39151   1.470   4.351   5.483
79085SOL    HW139152   1.485   4.374   5.574
79085SOL    HW239153   1.542   4.393   5.435
79086SOL     OW39154   0.739   3.220   9.569
79086SOL    HW139155   0.673   3.218   9.500
79086SOL    HW239156   0.732   3.307   9.607
79087SOL     OW39157   6.342  10.774   3.086
79087SOL    HW139158   6.375  10.796   2.999
79087SOL    HW239159   6.300  10.855   3.116
79088SOL     OW39160   5.655   0.395   9.001
79088SOL    HW139161   5.583   0.383   9.063
79088SOL    HW239162   5.729   0.350   9.042
79089SOL     OW39163  11.104  12.868   9.124
79089SOL    HW139164  11.099  12.962   9.105
79089SOL    HW239165  11.121  12.827   9.040
79090SOL     OW39166  12.967   9.140  10.305
79090SOL    HW139167  12.943   9.068  10.364
79090SOL    HW239168  13.029   9.100  10.243
79091SOL     OW39169   7.736   6.392  12.900
79091SOL    HW139170   7.805   6.327  12.916
79091SOL    HW239171   7.782   6.466  12.860
79092SOL     OW39172  11.126   3.104   8.101
79092SOL    HW139173  11.180   3.064   8.169
79092SOL    HW239174  11.041   3.059   8.109
79093SOL     OW39175   6.682   0.667   8.060
79093SOL    HW139176   6.618   0.667   8.131
79093SOL    HW239177   6.742   0.738   8.082
79094SOL     OW39178   6.167   0.902   8.042
79094SOL    HW139179   6.251   0.903   8.087
79094SOL    HW239180   6.102   0.904   8.112
79095SOL     OW39181   3.745   0.744   8.321
79095SOL    HW139182   3.791   0.802   8.381
79095SOL    HW239183   3.663   0.723   8.366
79096SOL     OW39184   3.616  13.128   9.652
79096SOL    HW139185   3.652  13.194   9.592
79096SOL    HW239186   3.584  13.059   9.594
79097SOL     OW39187   6.016  13.357   4.383
79097SOL    HW139188   6.049  13.370   4.294
79097SOL    HW239189   5.926  13.328   4.371
79098SOL     OW39190   6.534   4.290   5.845
79098SOL    HW139191   6.451   4.250   5.871
79098SOL    HW239192   6.577   4.224   5.790
79099SOL     OW39193   8.394  11.713   4.899
79099SOL    HW139194   8.436  11.770   4.963
79099SOL    HW239195   8.338  11.771   4.848
79100SOL     OW39196  10.693   8.246   8.544
79100SOL    HW139197  10.616   8.234   8.489
79100SOL    HW239198  10.763   8.198   8.499
79101SOL     OW39199  13.987  11.927  11.824
79101SOL    HW139200  14.015  11.959  11.739
79101SOL    HW239201  13.989  11.831  11.815
79102SOL     OW39202   2.720  12.089  14.217
79102SOL    HW139203   2.808  12.053  14.206
79102SOL    HW239204   2.715  12.110  14.310
79103SOL     OW39205  10.726  11.197   1.274
79103SOL    HW139206  10.646  11.243   1.246
79103SOL    HW239207  10.696  11.137   1.342
79104SOL     OW39208  13.050   2.860   4.518
79104SOL    HW139209  12.982   2.926   4.533
79104SOL    HW239210  13.020   2.810   4.443
79105SOL     OW39211   3.323   1.343  14.380
79105SOL    HW139212   3.369   1.281  14.436
79105SOL    HW239213   3.232   1.338  14.409
79106SOL     OW39214   4.617  12.686   7.825
79106SOL    HW139215   4.623  12.602   7.779
79106SOL    HW239216   4.698  12.693   7.875
79107SOL     OW39217  10.014  12.204  13.875
79107SOL    HW139218  10.026  12.187  13.782
79107SOL    HW239219   9.919  12.206  13.887
79108SOL     OW39220   6.748   6.382   7.650
79108SOL    HW139221   6.696   6.313   7.609
79108SOL    HW239222   6.716   6.463   7.610
79109SOL     OW39223   9.190  14.530   3.120
79109SOL    HW139224   9.227  14.555   3.205
79109SOL    HW239225   9.121  14.468   3.142
79110SOL     OW39226   1.398  14.544   5.860
79110SOL    HW139227   1.454  14.525   5.785
79110SOL    HW239228   1.343  14.467   5.870
79111SOL     OW39229   3.619  14.694  13.177
79111SOL    HW139230   3.664  14.771  13.142
79111SOL    HW239231   3.532  14.726  13.201
79112SOL     OW39232   3.391   4.148   3.891
79112SOL    HW139233   3.457   4.110   3.833
79112SOL    HW239234   3.439   4.211   3.944
79113SOL     OW39235   6.306   7.111  13.933
79113SOL    HW139236   6.361   7.164  13.874
79113SOL    HW239237   6.223   7.103  13.888
79114SOL     OW39238  13.266   9.976   3.303
79114SOL    HW139239  13.269   9.882   3.322
79114SOL    HW239240  13.174   9.995   3.287
79115SOL     OW39241  10.965   3.214   1.543
79115SOL    HW139242  11.044   3.215   1.597
79115SOL    HW239243  10.996   3.231   1.454
79116SOL     OW39244  14.365   5.515   3.678
79116SOL    HW139245  14.428   5.521   3.750
79116SOL    HW239246  14.417   5.528   3.599
79117SOL     OW39247   8.057   4.988   3.510
79117SOL    HW139248   8.016   5.064   3.469
79117SOL    HW239249   8.012   4.912   3.473
79118SOL     OW39250  12.785   8.190  11.597
79118SOL    HW139251  12.808   8.138  11.674
79118SOL    HW239252  12.710   8.144  11.558
79119SOL     OW39253   1.075   6.580   1.251
79119SOL    HW139254   1.117   6.665   1.237
79119SOL    HW239255   0.995   6.599   1.299
79120SOL     OW39256   5.506   1.578   1.744
79120SOL    HW139257   5.519   1.561   1.838
79120SOL    HW239258   5.595   1.590   1.710
79121SOL     OW39259  10.697   4.211   8.414
79121SOL    HW139260  10.695   4.160   8.495
79121SOL    HW239261  10.641   4.286   8.432
79122SOL     OW39262   8.300   1.195   6.196
79122SOL    HW139263   8.305   1.290   6.200
79122SOL    HW239264   8.346   1.165   6.274
79123SOL     OW39265   2.008   1.587   1.188
79123SOL    HW139266   1.930   1.554   1.144
79123SOL    HW239267   2.072   1.517   1.180
79124SOL     OW39268   5.936   8.440   9.604
79124SOL    HW139269   5.946   8.365   9.545
79124SOL    HW239270   6.019   8.442   9.653
79125SOL     OW39271   7.685   6.662  10.996
79125SOL    HW139272   7.721   6.574  10.982
79125SOL    HW239273   7.592   6.647  11.014
79126SOL     OW39274   3.389   0.605   6.006
79126SOL    HW139275   3.304   0.600   5.961
79126SOL    HW239276   3.372   0.571   6.094
79127SOL     OW39277  11.608  14.537   2.206
79127SOL    HW139278  11.666  14.474   2.162
79127SOL    HW239279  11.610  14.511   2.298
79128SOL     OW39280   2.755  14.062   8.404
79128SOL    HW139281   2.825  14.113   8.363
79128SOL    HW239282   2.682  14.123   8.411
79129SOL     OW39283  10.047   4.530  14.662
79129SOL    HW139284  10.012   4.456  14.613
79129SOL    HW239285   9.972   4.563  14.712
79130SOL     OW39286  14.406   8.331  14.862
79130SOL    HW139287  14.326   8.366   0.031
79130SOL    HW239288  14.462   8.407  14.849
79131SOL     OW39289   9.083   7.338   5.032
79131SOL    HW139290   9.007   7.346   5.090
79131SOL    HW239291   9.047   7.349   4.944
79132SOL     OW39292   5.889   9.032  14.282
79132SOL    HW139293   5.879   8.937  14.292
79132SOL    HW239294   5.982   9.048  14.296
79133SOL     OW39295   7.502   0.925   5.202
79133SOL    HW139296   7.419   0.879   5.214
79133SOL    HW239297   7.507   0.985   5.276
79134SOL     OW39298  12.129   6.940   2.124
79134SOL    HW139299  12.175   6.856   2.123
79134SOL    HW239300  12.143   6.973   2.213
79135SOL     OW39301  13.646  10.250   3.621
79135SOL    HW139302  13.621  10.200   3.543
79135SOL    HW239303  13.727  10.294   3.596
79136SOL     OW39304   4.275   3.324  14.075
79136SOL    HW139305   4.229   3.241  14.064
79136SOL    HW239306   4.362   3.299  14.105
79137SOL     OW39307   3.839   0.875   1.742
79137SOL    HW139308   3.869   0.857   1.653
79137SOL    HW239309   3.798   0.962   1.737
79138SOL     OW39310   6.570  11.318  12.881
79138SOL    HW139311   6.643  11.374  12.905
79138SOL    HW239312   6.553  11.266  12.960
79139SOL     OW39313   0.526   8.149  10.711
79139SOL    HW139314   0.560   8.234  10.683
79139SOL    HW239315   0.564   8.135  10.797
79140SOL     OW39316  10.066   7.176   1.838
79140SOL    HW139317  10.148   7.134   1.810
79140SOL    HW239318  10.093   7.262   1.870
79141SOL     OW39319   8.027  12.700  14.464
79141SOL    HW139320   8.038  12.664  14.553
79141SOL    HW239321   8.020  12.622  14.408
79142SOL     OW39322   4.636   2.421  11.777
79142SOL    HW139323   4.702   2.489  11.791
79142SOL    HW239324   4.554   2.470  11.769
79143SOL     OW39325  12.492   9.288   5.511
79143SOL    HW139326  12.545   9.353   5.465
79143SOL    HW239327  12.555   9.221   5.538
79144SOL     OW39328  13.490   4.306  14.118
79144SOL    HW139329  13.446   4.248  14.055
79144SOL    HW239330  13.460   4.394  14.094
79145SOL     OW39331   1.728   5.989   4.129
79145SOL    HW139332   1.764   5.944   4.053
79145SOL    HW239333   1.651   5.938   4.153
79146SOL     OW39334  11.655   3.294   9.889
79146SOL    HW139335  11.732   3.290   9.944
79146SOL    HW239336  11.582   3.304   9.950
79147SOL     OW39337   2.637   1.073   9.760
79147SOL    HW139338   2.706   1.106   9.817
79147SOL    HW239339   2.560   1.125   9.782
79148SOL     OW39340   5.257   9.255   0.531
79148SOL    HW139341   5.352   9.269   0.525
79148SOL    HW239342   5.247   9.190   0.600
79149SOL     OW39343   9.824   2.219   1.426
79149SOL    HW139344   9.875   2.146   1.392
79149SOL    HW239345   9.825   2.207   1.521
79150SOL     OW39346   3.294  13.918   6.164
79150SOL    HW139347   3.271  13.950   6.252
79150SOL    HW239348   3.329  13.994   6.119
79151SOL     OW39349   5.745   1.957   9.318
79151SOL    HW139350   5.732   1.862   9.310
79151SOL    HW239351   5.820   1.976   9.262
79152SOL     OW39352  11.828   3.962   5.917
79152SOL    HW139353  11.830   3.869   5.937
79152SOL    HW239354  11.874   3.971   5.833
79153SOL     OW39355  13.904   8.300  11.350
79153SOL    HW139356  13.974   8.334  11.293
79153SOL    HW239357  13.845   8.254  11.290
79154SOL     OW39358  12.099   3.528   4.649
79154SOL    HW139359  12.074   3.439   4.676
79154SOL    HW239360  12.093   3.527   4.554
79155SOL     OW39361  14.859   5.460  12.261
79155SOL    HW139362  14.777   5.497  12.227
79155SOL    HW239363   0.021   5.403  12.191
79156SOL     OW39364   3.861   1.568   4.465
79156SOL    HW139365   3.883   1.486   4.509
79156SOL    HW239366   3.944   1.616   4.461
79157SOL     OW39367   3.097   1.529   0.791
79157SOL    HW139368   3.167   1.595   0.785
79157SOL    HW239369   3.019   1.579   0.813
79158SOL     OW39370   3.660   0.168  13.716
79158SOL    HW139371   3.651   0.239  13.780
79158SOL    HW239372   3.702   0.097  13.765
79159SOL     OW39373  11.068   8.934   8.095
79159SOL    HW139374  11.082   9.018   8.139
79159SOL    HW239375  11.147   8.883   8.114
79160SOL     OW39376  12.557  13.555   5.029
79160SOL    HW139377  12.639  13.524   5.068
79160SOL    HW239378  12.492  13.545   5.099
79161SOL     OW39379   1.474   0.900   7.578
79161SOL    HW139380   1.439   0.928   7.494
79161SOL    HW239381   1.563   0.870   7.559
79162SOL     OW39382   2.895   0.747  13.260
79162SOL    HW139383   2.897   0.657  13.293
79162SOL    HW239384   2.968   0.791  13.303
79163SOL     OW39385  14.318  13.199  13.073
79163SOL    HW139386  14.281  13.202  13.161
79163SOL    HW239387  14.412  13.208  13.086
79164SOL     OW39388  11.307  11.530   2.299
79164SOL    HW139389  11.305  11.537   2.204
79164SOL    HW239390  11.372  11.594   2.327
79165SOL     OW39391  14.033   2.423  11.717
79165SOL    HW139392  14.016   2.513  11.742
79165SOL    HW239393  14.000   2.371  11.790
79166SOL     OW39394   3.055  13.293   0.693
79166SOL    HW139395   3.018  13.288   0.604
79166SOL    HW239396   2.992  13.346   0.742
79167SOL     OW39397   2.993  13.238  12.330
79167SOL    HW139398   3.047  13.271  12.259
79167SOL    HW239399   3.055  13.208  12.396
79168SOL     OW39400   6.282   1.881   3.534
79168SOL    HW139401   6.225   1.805   3.548
79168SOL    HW239402   6.273   1.932   3.615
79169SOL     OW39403   4.634  13.683   8.394
79169SOL    HW139404   4.552  13.661   8.438
79169SOL    HW239405   4.609  13.747   8.328
79170SOL     OW39406   7.269   6.405   1.332
79170SOL    HW139407   7.354   6.410   1.286
79170SOL    HW239408   7.268   6.483   1.388
79171SOL     OW39409   6.529   3.076  11.021
79171SOL    HW139410   6.534   3.032  11.106
79171SOL    HW239411   6.443   3.051  10.986
79172SOL     OW39412  10.675   2.005   3.050
79172SOL    HW139413  10.632   2.044   2.973
79172SOL    HW239414  10.621   2.035   3.124
79173SOL     OW39415   3.011   5.360   1.056
79173SOL    HW139416   2.936   5.414   1.082
79173SOL    HW239417   3.028   5.304   1.132
79174SOL     OW39418   0.808  14.183   2.395
79174SOL    HW139419   0.775  14.220   2.312
79174SOL    HW239420   0.734  14.134   2.430
79175SOL     OW39421   1.825  13.614   0.910
79175SOL    HW139422   1.834  13.707   0.933
79175SOL    HW239423   1.733  13.603   0.889
79176SOL     OW39424   7.962   9.408   8.046
79176SOL    HW139425   7.918   9.397   7.962
79176SOL    HW239426   7.966   9.320   8.083
79177SOL     OW39427  11.913  11.259   0.515
79177SOL    HW139428  12.003  11.225   0.506
79177SOL    HW239429  11.868  11.192   0.567
79178SOL     OW39430   7.247   1.216   6.691
79178SOL    HW139431   7.215   1.165   6.765
79178SOL    HW239432   7.340   1.194   6.686
79179SOL     OW39433   5.650   1.569   4.868
79179SOL    HW139434   5.603   1.602   4.944
79179SOL    HW239435   5.742   1.575   4.892
79180SOL     OW39436  11.830   1.879  13.683
79180SOL    HW139437  11.761   1.837  13.735
79180SOL    HW239438  11.892   1.913  13.749
79181SOL     OW39439  11.626  10.804   5.982
79181SOL    HW139440  11.599  10.888   6.019
79181SOL    HW239441  11.556  10.743   6.005
79182SOL     OW39442   4.991   5.009  14.286
79182SOL    HW139443   4.960   4.919  14.270
79182SOL    HW239444   4.921   5.064  14.251
79183SOL     OW39445  11.942  10.467  13.016
79183SOL    HW139446  11.943  10.455  13.111
79183SOL    HW239447  11.984  10.552  13.002
79184SOL     OW39448   6.620  13.040   4.751
79184SOL    HW139449   6.561  13.114   4.764
79184SOL    HW239450   6.591  13.000   4.669
79185SOL     OW39451   4.676   5.178   9.456
79185SOL    HW139452   4.720   5.238   9.516
79185SOL    HW239453   4.739   5.163   9.387
79186SOL     OW39454   2.090   8.440  12.532
79186SOL    HW139455   2.142   8.480  12.462
79186SOL    HW239456   2.138   8.360  12.554
79187SOL     OW39457   9.678   6.149   8.452
79187SOL    HW139458   9.651   6.237   8.428
79187SOL    HW239459   9.620   6.126   8.525
79188SOL     OW39460  14.232   6.858   6.714
79188SOL    HW139461  14.182   6.799   6.657
79188SOL    HW239462  14.209   6.831   6.803
79189SOL     OW39463   8.841  14.631   3.986
79189SOL    HW139464   8.838  14.535   3.987
79189SOL    HW239465   8.874  14.655   4.073
79190SOL     OW39466   4.794  14.414   8.482
79190SOL    HW139467   4.866  14.401   8.420
79190SOL    HW239468   4.716  14.421   8.427
79191SOL     OW39469   5.782   5.776  12.218
79191SOL    HW139470   5.807   5.686  12.199
79191SOL    HW239471   5.862   5.827  12.207
79192SOL     OW39472   5.051   1.316  10.491
79192SOL    HW139473   5.060   1.242  10.551
79192SOL    HW239474   5.139   1.331  10.456
79193SOL     OW39475   2.486   7.094  10.887
79193SOL    HW139476   2.478   7.180  10.847
79193SOL    HW239477   2.396   7.068  10.908
79194SOL     OW39478  10.326   7.795   3.962
79194SOL    HW139479  10.394   7.729   3.952
79194SOL    HW239480  10.264   7.757   4.025
79195SOL     OW39481  11.126  13.402   7.220
79195SOL    HW139482  11.140  13.444   7.135
79195SOL    HW239483  11.034  13.373   7.217
79196SOL     OW39484  13.136   5.553   5.485
79196SOL    HW139485  13.211   5.605   5.513
79196SOL    HW239486  13.173   5.469   5.459
79197SOL     OW39487   0.172   6.130   5.547
79197SOL    HW139488   0.139   6.040   5.550
79197SOL    HW239489   0.144   6.163   5.462
79198SOL     OW39490   9.865   1.565   3.402
79198SOL    HW139491   9.850   1.480   3.443
79198SOL    HW239492   9.959   1.582   3.415
79199SOL     OW39493  13.092  10.919  11.389
79199SOL    HW139494  13.085  10.977  11.465
79199SOL    HW239495  13.024  10.950  11.328
79200SOL     OW39496   7.692  13.165  10.621
79200SOL    HW139497   7.641  13.151  10.541
79200SOL    HW239498   7.723  13.255  10.614
79201SOL     OW39499   8.642  10.082   3.267
79201SOL    HW139500   8.707  10.049   3.328
79201SOL    HW239501   8.560  10.039   3.293
79202SOL     OW39502  12.625   0.953   9.458
79202SOL    HW139503  12.624   0.865   9.495
79202SOL    HW239504  12.655   0.942   9.368
79203SOL     OW39505   3.232   5.762   4.037
79203SOL    HW139506   3.316   5.761   3.991
79203SOL    HW239507   3.190   5.842   4.008
79204SOL     OW39508   0.565   9.709   7.161
79204SOL    HW139509   0.549   9.663   7.243
79204SOL    HW239510   0.483   9.704   7.113
79205SOL     OW39511   5.073   8.344   4.613
79205SOL    HW139512   4.979   8.335   4.631
79205SOL    HW239513   5.115   8.293   4.683
79206SOL     OW39514   6.799  12.064   2.501
79206SOL    HW139515   6.717  12.073   2.549
79206SOL    HW239516   6.804  12.145   2.449
79207SOL     OW39517   8.054  14.397   4.750
79207SOL    HW139518   8.117  14.361   4.687
79207SOL    HW239519   8.107  14.437   4.818
79208SOL     OW39520   0.436  12.394   2.998
79208SOL    HW139521   0.467  12.311   3.033
79208SOL    HW239522   0.448  12.385   2.903
79209SOL     OW39523   8.540  11.465   0.807
79209SOL    HW139524   8.621  11.498   0.770
79209SOL    HW239525   8.547  11.483   0.901
79210SOL     OW39526   7.249  11.063   7.881
79210SOL    HW139527   7.227  11.148   7.919
79210SOL    HW239528   7.263  11.081   7.788
79211SOL     OW39529  14.233   2.285   5.510
79211SOL    HW139530  14.291   2.276   5.585
79211SOL    HW239531  14.163   2.342   5.541
79212SOL     OW39532   8.096   0.867   4.413
79212SOL    HW139533   8.023   0.886   4.354
79212SOL    HW239534   8.152   0.808   4.363
79213SOL     OW39535   2.398   2.671   8.458
79213SOL    HW139536   2.303   2.662   8.449
79213SOL    HW239537   2.409   2.738   8.526
79214SOL     OW39538   1.489   7.308   8.534
79214SOL    HW139539   1.546   7.363   8.588
79214SOL    HW239540   1.549   7.254   8.483
79215SOL     OW39541   8.271   9.866   2.809
79215SOL    HW139542   8.297   9.898   2.722
79215SOL    HW239543   8.218   9.788   2.790
79216SOL     OW39544  11.748  14.610  11.513
79216SOL    HW139545  11.697  14.603  11.432
79216SOL    HW239546  11.740  14.702  11.539
79217SOL     OW39547  10.913  11.897   6.168
79217SOL    HW139548  10.904  11.803   6.154
79217SOL    HW239549  10.950  11.930   6.086
79218SOL     OW39550   5.661  12.849   2.913
79218SOL    HW139551   5.567  12.831   2.907
79218SOL    HW239552   5.693  12.789   2.980
79219SOL     OW39553  13.102   4.492   5.799
79219SOL    HW139554  13.093   4.417   5.740
79219SOL    HW239555  13.180   4.538   5.767
79220SOL     OW39556  12.583   7.605  13.114
79220SOL    HW139557  12.630   7.673  13.066
79220SOL    HW239558  12.646   7.533  13.122
79221SOL     OW39559   9.876  10.887   7.658
79221SOL    HW139560   9.919  10.913   7.740
79221SOL    HW239561   9.898  10.795   7.648
79222SOL     OW39562  14.594  11.488   4.163
79222SOL    HW139563  14.635  11.560   4.212
79222SOL    HW239564  14.583  11.523   4.075
79223SOL     OW39565  13.141   2.750   5.005
79223SOL    HW139566  13.219   2.770   4.954
79223SOL    HW239567  13.108   2.835   5.034
79224SOL     OW39568   2.948   5.719   8.881
79224SOL    HW139569   2.917   5.803   8.845
79224SOL    HW239570   3.044   5.728   8.882
79225SOL     OW39571   5.113  12.708  14.825
79225SOL    HW139572   5.033  12.698   0.005
79225SOL    HW239573   5.182  12.719   0.021
79226SOL     OW39574   1.184   0.257  10.999
79226SOL    HW139575   1.233   0.176  11.014
79226SOL    HW239576   1.133   0.240  10.919
79227SOL     OW39577   2.754   5.827   3.534
79227SOL    HW139578   2.726   5.914   3.563
79227SOL    HW239579   2.848   5.825   3.553
79228SOL     OW39580   2.468   9.135   1.979
79228SOL    HW139581   2.514   9.149   2.062
79228SOL    HW239582   2.459   9.040   1.972
79229SOL     OW39583  10.567   8.794   1.791
79229SOL    HW139584  10.565   8.764   1.881
79229SOL    HW239585  10.651   8.762   1.757
79230SOL     OW39586   0.393   9.894   5.475
79230SOL    HW139587   0.377   9.965   5.413
79230SOL    HW239588   0.484   9.869   5.460
79231SOL     OW39589  14.289   3.449   5.569
79231SOL    HW139590  14.361   3.386   5.577
79231SOL    HW239591  14.264   3.469   5.660
79232SOL     OW39592   3.528   2.185   0.749
79232SOL    HW139593   3.535   2.272   0.709
79232SOL    HW239594   3.572   2.127   0.687
79233SOL     OW39595   2.841   4.460   1.821
79233SOL    HW139596   2.876   4.547   1.802
79233SOL    HW239597   2.790   4.472   1.902
79234SOL     OW39598  13.036   6.074   8.819
79234SOL    HW139599  12.984   6.136   8.870
79234SOL    HW239600  12.977   6.045   8.749
79235SOL     OW39601   2.208   6.601   2.065
79235SOL    HW139602   2.186   6.621   1.974
79235SOL    HW239603   2.302   6.582   2.064
79236SOL     OW39604   6.459   7.988   9.205
79236SOL    HW139605   6.448   8.063   9.263
79236SOL    HW239606   6.392   7.926   9.233
79237SOL     OW39607   0.143  13.164   0.285
79237SOL    HW139608   0.180  13.214   0.357
79237SOL    HW239609   0.087  13.099   0.327
79238SOL     OW39610   1.610  10.347  13.779
79238SOL    HW139611   1.640  10.394  13.856
79238SOL    HW239612   1.641  10.258  13.791
79239SOL     OW39613  12.934  10.695   9.665
79239SOL    HW139614  12.849  10.714   9.705
79239SOL    HW239615  12.961  10.612   9.705
79240SOL     OW39616   0.846  12.629   3.755
79240SOL    HW139617   0.751  12.619   3.769
79240SOL    HW239618   0.885  12.604   3.838
79241SOL     OW39619   3.861   0.679   6.420
79241SOL    HW139620   3.883   0.673   6.327
79241SOL    HW239621   3.927   0.738   6.457
79242SOL     OW39622  14.719  11.715  14.553
79242SOL    HW139623  14.793  11.671  14.510
79242SOL    HW239624  14.673  11.644  14.598
79243SOL     OW39625   6.287  12.488   0.611
79243SOL    HW139626   6.262  12.573   0.648
79243SOL    HW239627   6.289  12.503   0.516
79244SOL     OW39628  12.796   6.612   7.602
79244SOL    HW139629  12.740   6.672   7.554
79244SOL    HW239630  12.765   6.617   7.693
79245SOL     OW39631   2.448  10.347   4.504
79245SOL    HW139632   2.516  10.280   4.505
79245SOL    HW239633   2.409  10.342   4.592
79246SOL     OW39634   0.470  12.121  10.432
79246SOL    HW139635   0.516  12.195  10.471
79246SOL    HW239636   0.388  12.158  10.400
79247SOL     OW39637   9.756   2.113   4.633
79247SOL    HW139638   9.762   2.202   4.599
79247SOL    HW239639   9.668   2.107   4.670
79248SOL     OW39640   8.332   2.088   9.504
79248SOL    HW139641   8.253   2.142   9.507
79248SOL    HW239642   8.368   2.095   9.593
79249SOL     OW39643  13.708   8.126  14.167
79249SOL    HW139644  13.765   8.174  14.107
79249SOL    HW239645  13.767   8.075  14.221
79250SOL     OW39646  13.011  14.195  14.743
79250SOL    HW139647  12.967  14.220  14.661
79250SOL    HW239648  13.101  14.175  14.717
79251SOL     OW39649  13.915   5.601   0.319
79251SOL    HW139650  13.969   5.586   0.397
79251SOL    HW239651  13.952   5.542   0.253
79252SOL     OW39652  10.609   5.993   2.621
79252SOL    HW139653  10.615   5.945   2.539
79252SOL    HW239654  10.674   6.063   2.613
79253SOL     OW39655   6.901   1.930   6.202
79253SOL    HW139656   6.982   1.892   6.167
79253SOL    HW239657   6.847   1.855   6.226
79254SOL     OW39658   6.536   4.714  13.482
79254SOL    HW139659   6.594   4.667  13.542
79254SOL    HW239660   6.551   4.674  13.397
79255SOL     OW39661  14.631   8.494   0.091
79255SOL    HW139662  14.710   8.534   0.126
79255SOL    HW239663  14.616   8.417   0.146
79256SOL     OW39664   5.357  12.986   3.055
79256SOL    HW139665   5.278  12.953   3.012
79256SOL    HW239666   5.413  13.015   2.984
79257SOL     OW39667  13.182  10.974   0.006
79257SOL    HW139668  13.101  10.986   0.055
79257SOL    HW239669  13.242  10.932   0.068
79258SOL     OW39670   1.966   9.942  14.819
79258SOL    HW139671   1.940   9.850  14.822
79258SOL    HW239672   1.974   9.961  14.726
79259SOL     OW39673  14.840   2.691   4.138
79259SOL    HW139674  14.866   2.731   4.221
79259SOL    HW239675  14.835   2.598   4.157
79260SOL     OW39676   8.111   5.463   5.305
79260SOL    HW139677   8.189   5.512   5.278
79260SOL    HW239678   8.038   5.520   5.281
79261SOL     OW39679   4.903   8.563   7.541
79261SOL    HW139680   4.815   8.529   7.527
79261SOL    HW239681   4.944   8.500   7.601
79262SOL     OW39682   9.144   8.772  10.914
79262SOL    HW139683   9.128   8.740  11.002
79262SOL    HW239684   9.133   8.867  10.920
79263SOL     OW39685   1.853   4.685   9.925
79263SOL    HW139686   1.841   4.743   9.850
79263SOL    HW239687   1.947   4.686   9.942
79264SOL     OW39688  11.958   9.356   7.799
79264SOL    HW139689  11.959   9.451   7.790
79264SOL    HW239690  11.985   9.323   7.713
79265SOL     OW39691   9.612   5.984   0.971
79265SOL    HW139692   9.570   6.033   0.900
79265SOL    HW239693   9.539   5.945   1.019
79266SOL     OW39694   6.418   1.737   9.050
79266SOL    HW139695   6.361   1.661   9.034
79266SOL    HW239696   6.358   1.811   9.058
79267SOL     OW39697   4.588  12.629  12.114
79267SOL    HW139698   4.656  12.690  12.084
79267SOL    HW239699   4.515  12.643  12.054
79268SOL     OW39700   6.050  14.544   9.410
79268SOL    HW139701   6.145  14.551   9.402
79268SOL    HW239702   6.034  14.529   9.503
79269SOL     OW39703  12.386   4.485   3.923
79269SOL    HW139704  12.416   4.500   4.013
79269SOL    HW239705  12.459   4.438   3.881
79270SOL     OW39706   8.711   3.514   0.044
79270SOL    HW139707   8.670   3.562   0.116
79270SOL    HW239708   8.801   3.545   0.042
79271SOL     OW39709  10.375   9.996  11.105
79271SOL    HW139710  10.434   9.921  11.102
79271SOL    HW239711  10.289   9.960  11.085
79272SOL     OW39712  11.617   5.091   8.668
79272SOL    HW139713  11.680   5.093   8.740
79272SOL    HW239714  11.634   5.171   8.619
79273SOL     OW39715  10.685   1.892   7.038
79273SOL    HW139716  10.697   1.846   6.955
79273SOL    HW239717  10.703   1.826   7.105
79274SOL     OW39718  12.991   5.572  12.799
79274SOL    HW139719  12.960   5.599  12.885
79274SOL    HW239720  13.077   5.534  12.816
79275SOL     OW39721  12.809  12.563  14.081
79275SOL    HW139722  12.782  12.617  14.155
79275SOL    HW239723  12.884  12.609  14.044
79276SOL     OW39724  12.909  11.577  10.526
79276SOL    HW139725  12.833  11.562  10.470
79276SOL    HW239726  12.888  11.656  10.575
79277SOL     OW39727   0.159   1.265  12.947
79277SOL    HW139728   0.173   1.335  12.883
79277SOL    HW239729   0.075   1.287  12.988
79278SOL     OW39730  13.677   5.190   6.433
79278SOL    HW139731  13.633   5.262   6.387
79278SOL    HW239732  13.760   5.180   6.387
79279SOL     OW39733  10.421   9.865   0.890
79279SOL    HW139734  10.511   9.879   0.919
79279SOL    HW239735  10.368   9.889   0.966
79280SOL     OW39736  11.346  11.156   8.969
79280SOL    HW139737  11.409  11.157   8.897
79280SOL    HW239738  11.261  11.142   8.926
79281SOL     OW39739  12.295   1.205  11.334
79281SOL    HW139740  12.263   1.121  11.301
79281SOL    HW239741  12.390   1.201  11.324
79282SOL     OW39742   9.019   8.954   5.131
79282SOL    HW139743   9.020   8.881   5.070
79282SOL    HW239744   9.067   8.922   5.208
79283SOL     OW39745  11.875   8.496  13.830
79283SOL    HW139746  11.853   8.571  13.886
79283SOL    HW239747  11.944   8.450  13.877
79284SOL     OW39748  13.050   3.010   7.528
79284SOL    HW139749  13.110   3.080   7.504
79284SOL    HW239750  13.055   2.948   7.454
79285SOL     OW39751  12.023   6.677  14.635
79285SOL    HW139752  12.033   6.679  14.540
79285SOL    HW239753  11.935   6.643  14.649
79286SOL     OW39754   9.122   6.006  12.777
79286SOL    HW139755   9.030   5.978  12.786
79286SOL    HW239756   9.171   5.925  12.769
79287SOL     OW39757  12.040   8.184   4.311
79287SOL    HW139758  11.949   8.154   4.306
79287SOL    HW239759  12.074   8.172   4.223
79288SOL     OW39760   3.248  11.696   6.184
79288SOL    HW139761   3.334  11.737   6.176
79288SOL    HW239762   3.207  11.739   6.259
79289SOL     OW39763   6.015   3.307   3.910
79289SOL    HW139764   5.971   3.222   3.904
79289SOL    HW239765   5.976   3.359   3.840
79290SOL     OW39766  14.764   9.730  11.999
79290SOL    HW139767  14.738   9.691  11.916
79290SOL    HW239768  14.777   9.823  11.980
79291SOL     OW39769   8.277   1.553   6.919
79291SOL    HW139770   8.193   1.515   6.894
79291SOL    HW239771   8.275   1.641   6.881
79292SOL     OW39772   0.758  10.587   0.162
79292SOL    HW139773   0.664  10.573   0.148
79292SOL    HW239774   0.800  10.548   0.086
79293SOL     OW39775   2.131   1.416  13.505
79293SOL    HW139776   2.185   1.375  13.438
79293SOL    HW239777   2.137   1.509  13.486
79294SOL     OW39778   8.943  10.714  13.523
79294SOL    HW139779   8.916  10.652  13.454
79294SOL    HW239780   9.037  10.700  13.532
79295SOL     OW39781   1.264   7.213   4.382
79295SOL    HW139782   1.243   7.306   4.388
79295SOL    HW239783   1.180   7.169   4.399
79296SOL     OW39784  13.230  12.621   4.338
79296SOL    HW139785  13.239  12.526   4.344
79296SOL    HW239786  13.162  12.634   4.272
79297SOL     OW39787   4.739  13.911   3.878
79297SOL    HW139788   4.760  13.999   3.849
79297SOL    HW239789   4.752  13.856   3.801
79298SOL     OW39790   1.282   6.018   2.193
79298SOL    HW139791   1.325   6.090   2.148
79298SOL    HW239792   1.336   6.001   2.269
79299SOL     OW39793   3.016   0.242   8.298
79299SOL    HW139794   3.110   0.230   8.312
79299SOL    HW239795   2.980   0.251   8.387
79300SOL     OW39796   3.966   5.137   2.820
79300SOL    HW139797   3.953   5.101   2.732
79300SOL    HW239798   4.047   5.188   2.813
79301SOL     OW39799   9.700   9.453   8.710
79301SOL    HW139800   9.728   9.544   8.711
79301SOL    HW239801   9.605   9.456   8.705
79302SOL     OW39802  12.694  10.779   9.718
79302SOL    HW139803  12.677  10.834   9.641
79302SOL    HW239804  12.656  10.827   9.791
79303SOL     OW39805   9.481   3.662  12.235
79303SOL    HW139806   9.466   3.696  12.323
79303SOL    HW239807   9.503   3.570  12.248
79304SOL     OW39808   5.794   7.329  12.217
79304SOL    HW139809   5.876   7.368  12.187
79304SOL    HW239810   5.792   7.347  12.311
79305SOL     OW39811   1.963  13.798  13.760
79305SOL    HW139812   1.973  13.817  13.854
79305SOL    HW239813   2.047  13.761  13.735
79306SOL     OW39814  10.826   9.430   5.903
79306SOL    HW139815  10.779   9.510   5.923
79306SOL    HW239816  10.843   9.435   5.808
79307SOL     OW39817   2.766   6.919   9.323
79307SOL    HW139818   2.672   6.907   9.309
79307SOL    HW239819   2.803   6.921   9.235
79308SOL     OW39820   7.683  12.950  10.107
79308SOL    HW139821   7.772  12.965  10.076
79308SOL    HW239822   7.632  12.935  10.028
79309SOL     OW39823  14.485   4.737  11.173
79309SOL    HW139824  14.432   4.663  11.146
79309SOL    HW239825  14.575   4.711  11.152
79310SOL     OW39826   1.104   2.216   6.977
79310SOL    HW139827   1.023   2.196   6.930
79310SOL    HW239828   1.167   2.151   6.946
79311SOL     OW39829   9.646   4.019  12.435
79311SOL    HW139830   9.689   3.951  12.487
79311SOL    HW239831   9.559   3.983  12.415
79312SOL     OW39832   2.141   8.074   0.337
79312SOL    HW139833   2.136   8.157   0.289
79312SOL    HW239834   2.167   8.010   0.271
79313SOL     OW39835  14.178   3.272   1.542
79313SOL    HW139836  14.244   3.305   1.603
79313SOL    HW239837  14.146   3.192   1.582
79314SOL     OW39838  13.041  13.861  13.319
79314SOL    HW139839  13.057  13.771  13.346
79314SOL    HW239840  13.080  13.868  13.232
79315SOL     OW39841   7.141   1.609   9.756
79315SOL    HW139842   7.180   1.585   9.672
79315SOL    HW239843   7.091   1.689   9.737
79316SOL     OW39844  10.683   5.756   8.011
79316SOL    HW139845  10.651   5.802   8.089
79316SOL    HW239846  10.605   5.718   7.971
79317SOL     OW39847  14.382   7.716   9.308
79317SOL    HW139848  14.304   7.718   9.253
79317SOL    HW239849  14.411   7.625   9.305
79318SOL     OW39850   9.323   8.205  13.930
79318SOL    HW139851   9.234   8.199  13.894
79318SOL    HW239852   9.321   8.281  13.987
79319SOL     OW39853   5.286  14.771  12.555
79319SOL    HW139854   5.296  14.700  12.493
79319SOL    HW239855   5.192  14.777  12.570
79320SOL     OW39856   7.784  12.190  13.979
79320SOL    HW139857   7.689  12.190  13.992
79320SOL    HW239858   7.797  12.132  13.903
79321SOL     OW39859   0.197   9.174  14.333
79321SOL    HW139860   0.217   9.236  14.403
79321SOL    HW239861   0.202   9.226  14.253
79322SOL     OW39862  13.611   8.814   6.021
79322SOL    HW139863  13.601   8.760   5.943
79322SOL    HW239864  13.550   8.887   6.008
79323SOL     OW39865   9.178   3.682   7.637
79323SOL    HW139866   9.251   3.716   7.585
79323SOL    HW239867   9.101   3.730   7.604
79324SOL     OW39868   2.475  13.882   1.764
79324SOL    HW139869   2.512  13.967   1.788
79324SOL    HW239870   2.542  13.818   1.790
79325SOL     OW39871   1.111   1.929  11.529
79325SOL    HW139872   1.054   1.965  11.598
79325SOL    HW239873   1.067   1.849  11.502
79326SOL     OW39874  14.069  12.123   3.836
79326SOL    HW139875  14.052  12.041   3.882
79326SOL    HW239876  13.986  12.171   3.840
79327SOL     OW39877  10.398  10.458   0.212
79327SOL    HW139878  10.468  10.425   0.268
79327SOL    HW239879  10.442  10.513   0.147
79328SOL     OW39880   0.821  12.328   0.717
79328SOL    HW139881   0.813  12.321   0.812
79328SOL    HW239882   0.731  12.319   0.685
79329SOL     OW39883  11.111  10.847   4.587
79329SOL    HW139884  11.190  10.884   4.548
79329SOL    HW239885  11.080  10.783   4.523
79330SOL     OW39886   5.112   7.293   1.323
79330SOL    HW139887   5.141   7.265   1.236
79330SOL    HW239888   5.041   7.355   1.305
79331SOL     OW39889   9.094  11.200  12.775
79331SOL    HW139890   9.010  11.184  12.817
79331SOL    HW239891   9.087  11.290  12.743
79332SOL     OW39892   5.876   4.171   3.673
79332SOL    HW139893   5.964   4.183   3.709
79332SOL    HW239894   5.879   4.213   3.588
79333SOL     OW39895   1.197   4.262   3.565
79333SOL    HW139896   1.124   4.315   3.533
79333SOL    HW239897   1.172   4.172   3.545
79334SOL     OW39898   5.904   9.933  12.692
79334SOL    HW139899   5.978   9.957  12.636
79334SOL    HW239900   5.884  10.013  12.742
79335SOL     OW39901   6.490   7.225  14.107
79335SOL    HW139902   6.572   7.255  14.067
79335SOL    HW239903   6.450   7.169  14.040
79336SOL     OW39904   0.439   1.255   3.280
79336SOL    HW139905   0.481   1.170   3.263
79336SOL    HW239906   0.482   1.287   3.359
79337SOL     OW39907   5.468   1.619   0.180
79337SOL    HW139908   5.401   1.634   0.114
79337SOL    HW239909   5.425   1.564   0.246
79338SOL     OW39910   5.021   9.759  11.854
79338SOL    HW139911   4.973   9.837  11.880
79338SOL    HW239912   4.999   9.746  11.762
79339SOL     OW39913   4.919  12.812   5.012
79339SOL    HW139914   4.836  12.821   5.060
79339SOL    HW239915   4.913  12.725   4.971
79340SOL     OW39916  12.726   3.120   3.141
79340SOL    HW139917  12.683   3.204   3.159
79340SOL    HW239918  12.777   3.102   3.220
79341SOL     OW39919  10.186   8.431   9.947
79341SOL    HW139920  10.202   8.496   9.878
79341SOL    HW239921  10.117   8.469  10.001
79342SOL     OW39922   7.613   8.404   1.382
79342SOL    HW139923   7.567   8.471   1.331
79342SOL    HW239924   7.621   8.441   1.469
79343SOL     OW39925   7.688  10.075   0.646
79343SOL    HW139926   7.727  10.109   0.726
79343SOL    HW239927   7.755  10.019   0.607
79344SOL     OW39928   7.724  14.800  13.177
79344SOL    HW139929   7.688   0.018  13.167
79344SOL    HW239930   7.731  14.766  13.087
79345SOL     OW39931  11.659  13.538   9.446
79345SOL    HW139932  11.593  13.489   9.397
79345SOL    HW239933  11.690  13.477   9.513
79346SOL     OW39934   8.780   6.100  13.572
79346SOL    HW139935   8.821   6.032  13.625
79346SOL    HW239936   8.716   6.055  13.518
79347SOL     OW39937  13.563   6.746   4.135
79347SOL    HW139938  13.565   6.685   4.061
79347SOL    HW239939  13.494   6.712   4.192
79348SOL     OW39940   1.722  10.861   9.422
79348SOL    HW139941   1.788  10.839   9.356
79348SOL    HW239942   1.668  10.928   9.380
79349SOL     OW39943   2.275   2.645  13.455
79349SOL    HW139944   2.285   2.727  13.408
79349SOL    HW239945   2.327   2.582  13.404
79350SOL     OW39946   3.877   8.523  11.704
79350SOL    HW139947   3.861   8.610  11.743
79350SOL    HW239948   3.950   8.488  11.754
79351SOL     OW39949   7.598   2.156   7.054
79351SOL    HW139950   7.604   2.250   7.038
79351SOL    HW239951   7.512   2.132   7.020
79352SOL     OW39952  13.233   6.204   2.769
79352SOL    HW139953  13.229   6.295   2.739
79352SOL    HW239954  13.307   6.166   2.723
79353SOL     OW39955   7.832  11.200  12.763
79353SOL    HW139956   7.772  11.176  12.692
79353SOL    HW239957   7.780  11.194  12.842
79354SOL     OW39958  13.308  11.493  14.088
79354SOL    HW139959  13.305  11.487  13.992
79354SOL    HW239960  13.320  11.403  14.118
79355SOL     OW39961   2.494   2.449   8.003
79355SOL    HW139962   2.409   2.439   7.960
79355SOL    HW239963   2.486   2.528   8.056
79356SOL     OW39964   1.418   3.748   9.641
79356SOL    HW139965   1.406   3.808   9.714
79356SOL    HW239966   1.345   3.686   9.649
79357SOL     OW39967  13.924   5.112   4.533
79357SOL    HW139968  13.985   5.113   4.606
79357SOL    HW239969  13.841   5.083   4.571
79358SOL     OW39970  14.246   3.026   9.436
79358SOL    HW139971  14.270   3.085   9.364
79358SOL    HW239972  14.252   2.938   9.399
79359SOL     OW39973  10.773   1.369   3.525
79359SOL    HW139974  10.865   1.393   3.519
79359SOL    HW239975  10.762   1.338   3.615
79360SOL     OW39976  10.014  11.396  12.030
79360SOL    HW139977  10.063  11.457  12.085
79360SOL    HW239978   9.947  11.451  11.988
79361SOL     OW39979   6.043   2.713   1.846
79361SOL    HW139980   6.073   2.804   1.850
79361SOL    HW239981   6.032   2.687   1.938
79362SOL     OW39982   0.723   2.394   4.037
79362SOL    HW139983   0.694   2.483   4.058
79362SOL    HW239984   0.725   2.349   4.122
79363SOL     OW39985   3.086  11.165   4.502
79363SOL    HW139986   3.139  11.115   4.563
79363SOL    HW239987   3.127  11.150   4.417
79364SOL     OW39988  14.102  13.027   2.765
79364SOL    HW139989  14.026  12.970   2.774
79364SOL    HW239990  14.107  13.047   2.672
79365SOL     OW39991   6.311   5.260   8.610
79365SOL    HW139992   6.378   5.318   8.646
79365SOL    HW239993   6.278   5.305   8.532
79366SOL     OW39994   5.597  13.064  11.850
79366SOL    HW139995   5.661  13.134  11.834
79366SOL    HW239996   5.569  13.037  11.763
79367SOL     OW39997  13.162   6.976   8.086
79367SOL    HW139998  13.094   7.018   8.032
79367SOL    HW239999  13.196   7.048   8.140
79368SOL     OW40000   5.342  14.355   2.465
79368SOL    HW140001   5.302  14.329   2.548
79368SOL    HW240002   5.414  14.293   2.452
79369SOL     OW40003  12.558   8.060  11.501
79369SOL    HW140004  12.592   7.972  11.515
79369SOL    HW240005  12.463   8.052  11.509
79370SOL     OW40006   8.128  10.765   9.452
79370SOL    HW140007   8.051  10.773   9.396
79370SOL    HW240008   8.202  10.770   9.391
79371SOL     OW40009   5.314   6.609   8.853
79371SOL    HW140010   5.300   6.634   8.945
79371SOL    HW240011   5.384   6.544   8.857
79372SOL     OW40012  14.389   5.463   1.398
79372SOL    HW140013  14.473   5.429   1.430
79372SOL    HW240014  14.413   5.520   1.325
79373SOL     OW40015   6.399   7.724   5.319
79373SOL    HW140016   6.430   7.686   5.401
79373SOL    HW240017   6.325   7.669   5.292
79374SOL     OW40018   2.918   4.877   6.750
79374SOL    HW140019   2.981   4.942   6.779
79374SOL    HW240020   2.881   4.842   6.831
79375SOL     OW40021   4.380   7.530   7.156
79375SOL    HW140022   4.467   7.498   7.133
79375SOL    HW240023   4.352   7.475   7.229
79376SOL     OW40024  10.466  10.166   4.132
79376SOL    HW140025  10.530  10.184   4.063
79376SOL    HW240026  10.518  10.134   4.206
79377SOL     OW40027   9.316   2.408   2.831
79377SOL    HW140028   9.374   2.332   2.832
79377SOL    HW240029   9.229   2.373   2.847
79378SOL     OW40030   7.115   5.639   8.185
79378SOL    HW140031   7.109   5.556   8.233
79378SOL    HW240032   7.031   5.682   8.200
79379SOL     OW40033  11.514  10.987   7.101
79379SOL    HW140034  11.561  11.062   7.138
79379SOL    HW240035  11.489  10.935   7.178
79380SOL     OW40036   1.035  13.596   0.708
79380SOL    HW140037   0.943  13.601   0.682
79380SOL    HW240038   1.058  13.687   0.730
79381SOL     OW40039   4.431   8.365   1.557
79381SOL    HW140040   4.389   8.285   1.527
79381SOL    HW240041   4.473   8.340   1.640
79382SOL     OW40042  13.972   3.697  13.836
79382SOL    HW140043  13.902   3.641  13.870
79382SOL    HW240044  14.001   3.747  13.912
79383SOL     OW40045   3.777  11.250   5.827
79383SOL    HW140046   3.738  11.211   5.749
79383SOL    HW240047   3.726  11.215   5.900
79384SOL     OW40048   7.061  10.096   1.548
79384SOL    HW140049   7.063  10.148   1.629
79384SOL    HW240050   7.059  10.005   1.578
79385SOL     OW40051   4.773  10.325   5.708
79385SOL    HW140052   4.693  10.368   5.678
79385SOL    HW240053   4.843  10.385   5.685
79386SOL     OW40054  11.782   7.689  11.193
79386SOL    HW140055  11.705   7.657  11.146
79386SOL    HW240056  11.771   7.656  11.282
79387SOL     OW40057   1.775  10.986  13.940
79387SOL    HW140058   1.828  10.958  14.014
79387SOL    HW240059   1.836  10.990  13.866
79388SOL     OW40060   5.871   2.200   3.469
79388SOL    HW140061   5.909   2.198   3.381
79388SOL    HW240062   5.946   2.188   3.527
79389SOL     OW40063   1.668   5.877   1.669
79389SOL    HW140064   1.592   5.930   1.643
79389SOL    HW240065   1.671   5.807   1.604
79390SOL     OW40066   9.120   4.609  12.140
79390SOL    HW140067   9.091   4.532  12.091
79390SOL    HW240068   9.050   4.625  12.204
79391SOL     OW40069   4.909   8.683   4.404
79391SOL    HW140070   4.967   8.695   4.479
79391SOL    HW240071   4.834   8.740   4.422
79392SOL     OW40072   0.595  14.688   2.239
79392SOL    HW140073   0.526  14.698   2.173
79392SOL    HW240074   0.670  14.653   2.191
79393SOL     OW40075   9.450   3.536  12.907
79393SOL    HW140076   9.368   3.573  12.940
79393SOL    HW240077   9.506   3.528  12.984
79394SOL     OW40078  10.962   2.661   9.922
79394SOL    HW140079  10.878   2.698   9.949
79394SOL    HW240080  10.984   2.598   9.991
79395SOL     OW40081   2.255   4.716  14.479
79395SOL    HW140082   2.259   4.687  14.570
79395SOL    HW240083   2.311   4.793  14.476
79396SOL     OW40084   2.281   4.239  13.829
79396SOL    HW140085   2.299   4.314  13.887
79396SOL    HW240086   2.260   4.279  13.745
79397SOL     OW40087  10.049   7.568   8.424
79397SOL    HW140088  10.023   7.536   8.337
79397SOL    HW240089  10.104   7.499   8.460
79398SOL     OW40090  10.906  13.301   4.719
79398SOL    HW140091  10.827  13.342   4.683
79398SOL    HW240092  10.935  13.241   4.651
79399SOL     OW40093  11.418   9.597  10.136
79399SOL    HW140094  11.487   9.588  10.071
79399SOL    HW240095  11.385   9.686  10.125
79400SOL     OW40096  12.000  11.353  12.976
79400SOL    HW140097  12.091  11.357  13.006
79400SOL    HW240098  11.973  11.262  12.992
79401SOL     OW40099   5.262   9.888   4.730
79401SOL    HW140100   5.243   9.856   4.819
79401SOL    HW240101   5.350   9.855   4.712
79402SOL     OW40102  10.408   4.165  10.256
79402SOL    HW140103  10.338   4.116  10.300
79402SOL    HW240104  10.435   4.230  10.320
79403SOL     OW40105   7.237   2.266  14.291
79403SOL    HW140106   7.164   2.300  14.240
79403SOL    HW240107   7.232   2.171  14.280
79404SOL     OW40108   8.357  13.687  12.663
79404SOL    HW140109   8.327  13.757  12.604
79404SOL    HW240110   8.407  13.733  12.731
79405SOL     OW40111   5.073   2.858   1.397
79405SOL    HW140112   5.105   2.878   1.485
79405SOL    HW240113   5.151   2.832   1.349
79406SOL     OW40114   0.456  13.848   6.315
79406SOL    HW140115   0.438  13.914   6.249
79406SOL    HW240116   0.547  13.865   6.342
79407SOL     OW40117   0.415   4.589   7.746
79407SOL    HW140118   0.351   4.586   7.675
79407SOL    HW240119   0.479   4.654   7.719
79408SOL     OW40120   3.458  13.506   3.383
79408SOL    HW140121   3.403  13.531   3.309
79408SOL    HW240122   3.443  13.413   3.395
79409SOL     OW40123  14.414   4.328   8.436
79409SOL    HW140124  14.391   4.328   8.529
79409SOL    HW240125  14.472   4.252   8.425
79410SOL     OW40126  14.571   2.722  11.843
79410SOL    HW140127  14.510   2.657  11.879
79410SOL    HW240128  14.653   2.706  11.890
79411SOL     OW40129   2.349   9.640   7.308
79411SOL    HW140130   2.273   9.588   7.280
79411SOL    HW240131   2.323   9.731   7.294
79412SOL     OW40132  10.340   4.155   3.111
79412SOL    HW140133  10.341   4.139   3.016
79412SOL    HW240134  10.254   4.124   3.140
79413SOL     OW40135  14.464   3.779   9.247
79413SOL    HW140136  14.516   3.737   9.178
79413SOL    HW240137  14.373   3.759   9.224
79414SOL     OW40138   5.566  10.496  12.956
79414SOL    HW140139   5.576  10.434  13.028
79414SOL    HW240140   5.646  10.485  12.904
79415SOL     OW40141   8.702   4.134   8.004
79415SOL    HW140142   8.772   4.199   8.000
79415SOL    HW240143   8.621   4.185   8.004
79416SOL     OW40144   8.975   4.621   1.149
79416SOL    HW140145   9.026   4.698   1.122
79416SOL    HW240146   9.041   4.559   1.181
79417SOL     OW40147   4.736   8.871   0.097
79417SOL    HW140148   4.762   8.900   0.185
79417SOL    HW240149   4.724   8.776   0.106
79418SOL     OW40150   1.796  11.533  13.970
79418SOL    HW140151   1.850  11.517  14.048
79418SOL    HW240152   1.731  11.463  13.971
79419SOL     OW40153   5.735   6.595  12.784
79419SOL    HW140154   5.716   6.520  12.841
79419SOL    HW240155   5.687   6.668  12.824
79420SOL     OW40156   1.932   5.668   6.089
79420SOL    HW140157   2.016   5.655   6.046
79420SOL    HW240158   1.867   5.644   6.022
79421SOL     OW40159   6.492   1.073   7.622
79421SOL    HW140160   6.433   1.058   7.695
79421SOL    HW240161   6.580   1.061   7.659
79422SOL     OW40162   5.766   4.689   1.093
79422SOL    HW140163   5.717   4.716   1.171
79422SOL    HW240164   5.826   4.762   1.077
79423SOL     OW40165  12.678   4.553   6.994
79423SOL    HW140166  12.627   4.617   7.043
79423SOL    HW240167  12.768   4.585   7.000
79424SOL     OW40168   5.333   5.488   9.750
79424SOL    HW140169   5.340   5.548   9.824
79424SOL    HW240170   5.260   5.430   9.772
79425SOL     OW40171   9.938   9.024   4.342
79425SOL    HW140172   9.996   9.089   4.383
79425SOL    HW240173   9.995   8.950   4.324
79426SOL     OW40174   1.635   2.261   8.732
79426SOL    HW140175   1.579   2.184   8.742
79426SOL    HW240176   1.638   2.300   8.819
79427SOL     OW40177   9.485   4.593  12.292
79427SOL    HW140178   9.444   4.515  12.256
79427SOL    HW240179   9.543   4.560  12.361
79428SOL     OW40180  14.627   2.132  12.797
79428SOL    HW140181  14.591   2.139  12.885
79428SOL    HW240182  14.581   2.199  12.746
79429SOL     OW40183  12.864  11.613   4.906
79429SOL    HW140184  12.780  11.568   4.900
79429SOL    HW240185  12.842  11.706   4.895
79430SOL     OW40186   0.883  14.637  14.266
79430SOL    HW140187   0.865  14.685  14.346
79430SOL    HW240188   0.797  14.606  14.236
79431SOL     OW40189   2.297   7.262   1.731
79431SOL    HW140190   2.307   7.171   1.761
79431SOL    HW240191   2.206   7.284   1.752
79432SOL     OW40192  14.106   3.846   1.729
79432SOL    HW140193  14.081   3.762   1.692
79432SOL    HW240194  14.048   3.910   1.687
79433SOL     OW40195   7.918  13.941   6.694
79433SOL    HW140196   7.913  13.879   6.767
79433SOL    HW240197   7.839  13.924   6.642
79434SOL     OW40198   8.887   6.266   3.770
79434SOL    HW140199   8.976   6.232   3.780
79434SOL    HW240200   8.884   6.341   3.829
79435SOL     OW40201   0.814   8.375   1.933
79435SOL    HW140202   0.760   8.376   1.854
79435SOL    HW240203   0.879   8.307   1.916
79436SOL     OW40204   1.055   2.432   9.917
79436SOL    HW140205   1.070   2.385   9.999
79436SOL    HW240206   0.961   2.428   9.904
79437SOL     OW40207   5.829  14.419   3.968
79437SOL    HW140208   5.875  14.433   4.051
79437SOL    HW240209   5.843  14.326   3.948
79438SOL     OW40210  10.515  12.283  14.036
79438SOL    HW140211  10.466  12.289  13.954
79438SOL    HW240212  10.557  12.197  14.033
79439SOL     OW40213   5.428  13.822  14.602
79439SOL    HW140214   5.458  13.854  14.517
79439SOL    HW240215   5.443  13.728  14.599
79440SOL     OW40216   4.095  12.787   2.787
79440SOL    HW140217   4.011  12.751   2.814
79440SOL    HW240218   4.159  12.749   2.848
79441SOL     OW40219  13.378   0.264  13.847
79441SOL    HW140220  13.346   0.294  13.762
79441SOL    HW240221  13.438   0.192  13.826
79442SOL     OW40222   6.957   3.564   7.240
79442SOL    HW140223   6.891   3.633   7.234
79442SOL    HW240224   6.997   3.560   7.153
79443SOL     OW40225   3.092   0.544   0.002
79443SOL    HW140226   3.061   0.454   0.006
79443SOL    HW240227   3.050   0.580  14.793
79444SOL     OW40228   7.907  13.033  12.726
79444SOL    HW140229   7.949  12.947  12.733
79444SOL    HW240230   7.830  13.026  12.782
79445SOL     OW40231   3.321   2.492   8.789
79445SOL    HW140232   3.315   2.532   8.876
79445SOL    HW240233   3.348   2.564   8.732
79446SOL     OW40234   4.285  10.096   3.931
79446SOL    HW140235   4.233  10.170   3.964
79446SOL    HW240236   4.247  10.019   3.974
79447SOL     OW40237   9.312   0.570   5.160
79447SOL    HW140238   9.284   0.574   5.069
79447SOL    HW240239   9.231   0.572   5.210
79448SOL     OW40240  10.329   8.299   9.094
79448SOL    HW140241  10.261   8.250   9.047
79448SOL    HW240242  10.319   8.272   9.185
79449SOL     OW40243   5.433   5.946  11.532
79449SOL    HW140244   5.401   6.005  11.463
79449SOL    HW240245   5.448   6.003  11.607
79450SOL     OW40246   4.604  10.618   6.517
79450SOL    HW140247   4.602  10.711   6.539
79450SOL    HW240248   4.592  10.573   6.600
79451SOL     OW40249   0.235  10.408   3.780
79451SOL    HW140250   0.178  10.348   3.733
79451SOL    HW240251   0.257  10.476   3.716
79452SOL     OW40252   1.610   1.614   9.924
79452SOL    HW140253   1.657   1.531   9.925
79452SOL    HW240254   1.582   1.627  10.014
79453SOL     OW40255  11.906   3.930   6.930
79453SOL    HW140256  11.891   3.993   7.000
79453SOL    HW240257  12.000   3.913   6.934
79454SOL     OW40258   7.499   4.095  11.775
79454SOL    HW140259   7.511   4.177  11.822
79454SOL    HW240260   7.457   4.037  11.839
79455SOL     OW40261   1.715   1.294  11.538
79455SOL    HW140262   1.771   1.371  11.534
79455SOL    HW240263   1.654   1.312  11.609
79456SOL     OW40264  11.325   2.642  10.248
79456SOL    HW140265  11.257   2.589  10.208
79456SOL    HW240266  11.405   2.619  10.200
79457SOL     OW40267   6.303   4.804   0.872
79457SOL    HW140268   6.376   4.746   0.893
79457SOL    HW240269   6.264   4.826   0.957
79458SOL     OW40270   0.097   5.733  13.945
79458SOL    HW140271   0.089   5.756  13.852
79458SOL    HW240272   0.131   5.643  13.945
79459SOL     OW40273   4.714  13.193   6.062
79459SOL    HW140274   4.789  13.178   6.120
79459SOL    HW240275   4.637  13.172   6.115
79460SOL     OW40276   3.502  12.213   3.661
79460SOL    HW140277   3.577  12.268   3.684
79460SOL    HW240278   3.436  12.273   3.627
79461SOL     OW40279   3.394   6.579   0.657
79461SOL    HW140280   3.364   6.668   0.636
79461SOL    HW240281   3.362   6.563   0.745
79462SOL     OW40282   2.544   6.500   9.686
79462SOL    HW140283   2.583   6.577   9.645
79462SOL    HW240284   2.550   6.432   9.619
79463SOL     OW40285  14.378  12.402   3.089
79463SOL    HW140286  14.346  12.486   3.056
79463SOL    HW240287  14.413  12.357   3.012
79464SOL     OW40288  12.039  12.171   5.368
79464SOL    HW140289  12.118  12.193   5.418
79464SOL    HW240290  12.071  12.152   5.280
79465SOL     OW40291   0.860  10.456  14.829
79465SOL    HW140292   0.899  10.490  14.749
79465SOL    HW240293   0.840  10.364  14.810
79466SOL     OW40294   4.566  12.098   5.116
79466SOL    HW140295   4.483  12.137   5.142
79466SOL    HW240296   4.579  12.025   5.177
79467SOL     OW40297   1.513  12.278   1.474
79467SOL    HW140298   1.507  12.217   1.400
79467SOL    HW240299   1.427  12.322   1.475
79468SOL     OW40300   8.859   3.698   2.866
79468SOL    HW140301   8.886   3.669   2.779
79468SOL    HW240302   8.790   3.762   2.850
79469SOL     OW40303   2.595   1.383   3.039
79469SOL    HW140304   2.643   1.465   3.046
79469SOL    HW240305   2.652   1.317   3.079
79470SOL     OW40306   9.910   0.191  13.565
79470SOL    HW140307   9.843   0.223  13.625
79470SOL    HW240308   9.883   0.225  13.479
79471SOL     OW40309   0.304   3.804   1.903
79471SOL    HW140310   0.219   3.831   1.937
79471SOL    HW240311   0.297   3.817   1.808
79472SOL     OW40312  11.962   9.513   1.626
79472SOL    HW140313  11.990   9.498   1.716
79472SOL    HW240314  11.989   9.434   1.579
79473SOL     OW40315   8.602   5.034  13.647
79473SOL    HW140316   8.686   4.989  13.637
79473SOL    HW240317   8.615   5.092  13.722
79474SOL     OW40318   8.465   4.058  14.689
79474SOL    HW140319   8.475   4.105  14.771
79474SOL    HW240320   8.440   3.969  14.714
79475SOL     OW40321   5.814   6.062   8.686
79475SOL    HW140322   5.843   6.008   8.613
79475SOL    HW240323   5.810   6.002   8.761
79476SOL     OW40324   9.348   0.179  12.265
79476SOL    HW140325   9.327   0.121  12.338
79476SOL    HW240326   9.279   0.162  12.201
79477SOL     OW40327   2.594  13.027  13.803
79477SOL    HW140328   2.617  12.977  13.881
79477SOL    HW240329   2.576  13.115  13.836
79478SOL     OW40330  13.613  12.530   6.333
79478SOL    HW140331  13.660  12.465   6.385
79478SOL    HW240332  13.673  12.553   6.262
79479SOL     OW40333   1.509  14.826   0.020
79479SOL    HW140334   1.562  14.856  14.816
79479SOL    HW240335   1.561  14.756   0.060
79480SOL     OW40336  11.177  11.619   5.976
79480SOL    HW140337  11.170  11.525   5.995
79480SOL    HW240338  11.259  11.646   6.018
79481SOL     OW40339   7.701   4.050   3.127
79481SOL    HW140340   7.789   4.059   3.162
79481SOL    HW240341   7.702   3.966   3.081
79482SOL     OW40342  14.212   0.253   0.706
79482SOL    HW140343  14.238   0.228   0.618
79482SOL    HW240344  14.130   0.301   0.695
79483SOL     OW40345   6.536   8.343  14.504
79483SOL    HW140346   6.498   8.367  14.419
79483SOL    HW240347   6.515   8.250  14.514
79484SOL     OW40348  11.190   2.518   1.127
79484SOL    HW140349  11.117   2.512   1.189
79484SOL    HW240350  11.266   2.541   1.181
79485SOL     OW40351   2.868  14.272  12.937
79485SOL    HW140352   2.914  14.350  12.968
79485SOL    HW240353   2.920  14.241  12.863
79486SOL     OW40354   0.331   3.199   1.872
79486SOL    HW140355   0.396   3.251   1.919
79486SOL    HW240356   0.277   3.161   1.941
79487SOL     OW40357   3.143  13.281  12.955
79487SOL    HW140358   3.169  13.357  12.902
79487SOL    HW240359   3.107  13.219  12.892
79488SOL     OW40360   9.727   1.099   7.773
79488SOL    HW140361   9.776   1.072   7.850
79488SOL    HW240362   9.747   1.033   7.707
79489SOL     OW40363   8.325   3.004   3.615
79489SOL    HW140364   8.393   3.059   3.653
79489SOL    HW240365   8.247   3.022   3.668
79490SOL     OW40366   5.880  13.047   1.486
79490SOL    HW140367   5.877  12.986   1.560
79490SOL    HW240368   5.796  13.032   1.441
79491SOL     OW40369   2.736   8.931   9.760
79491SOL    HW140370   2.806   8.901   9.819
79491SOL    HW240371   2.715   8.855   9.707
79492SOL     OW40372   3.363   1.583   7.521
79492SOL    HW140373   3.355   1.523   7.447
79492SOL    HW240374   3.363   1.670   7.481
79493SOL     OW40375  14.299  10.236  13.645
79493SOL    HW140376  14.207  10.208  13.644
79493SOL    HW240377  14.335  10.194  13.723
79494SOL     OW40378  10.849   9.583   1.330
79494SOL    HW140379  10.783   9.561   1.396
79494SOL    HW240380  10.882   9.498   1.302
79495SOL     OW40381   6.842   9.138   0.639
79495SOL    HW140382   6.841   9.204   0.570
79495SOL    HW240383   6.881   9.061   0.598
79496SOL     OW40384   7.801   0.446   0.436
79496SOL    HW140385   7.716   0.412   0.408
79496SOL    HW240386   7.862   0.375   0.420
79497SOL     OW40387   9.699   0.009  12.453
79497SOL    HW140388   9.695   0.063  12.374
79497SOL    HW240389   9.791  14.854  12.459
79498SOL     OW40390   8.391  12.624   2.576
79498SOL    HW140391   8.312  12.613   2.629
79498SOL    HW240392   8.461  12.582   2.627
79499SOL     OW40393  12.942   5.171   6.650
79499SOL    HW140394  13.002   5.245   6.650
79499SOL    HW240395  12.867   5.200   6.598
79500SOL     OW40396  13.861  13.411   1.393
79500SOL    HW140397  13.946  13.431   1.432
79500SOL    HW240398  13.883  13.365   1.311
79501SOL     OW40399   6.317   2.824   8.855
79501SOL    HW140400   6.387   2.877   8.895
79501SOL    HW240401   6.273   2.783   8.930
79502SOL     OW40402  10.939   8.040   5.410
79502SOL    HW140403  10.990   8.096   5.469
79502SOL    HW240404  10.849   8.049   5.441
79503SOL     OW40405   7.622   4.091   2.506
79503SOL    HW140406   7.590   4.059   2.422
79503SOL    HW240407   7.591   4.181   2.511
79504SOL     OW40408   6.009  11.698  14.665
79504SOL    HW140409   5.964  11.765  14.613
79504SOL    HW240410   6.010  11.620  14.609
79505SOL     OW40411   3.076  10.879   8.044
79505SOL    HW140412   3.053  10.790   8.071
79505SOL    HW240413   3.052  10.883   7.952
79506SOL     OW40414   0.471  12.065   6.617
79506SOL    HW140415   0.431  11.981   6.640
79506SOL    HW240416   0.558  12.061   6.655
79507SOL     OW40417  10.934  13.853  11.453
79507SOL    HW140418  10.850  13.837  11.496
79507SOL    HW240419  10.914  13.849  11.359
79508SOL     OW40420   7.439  13.392  10.408
79508SOL    HW140421   7.480  13.306  10.406
79508SOL    HW240422   7.345  13.374  10.404
79509SOL     OW40423   3.464  13.303   6.453
79509SOL    HW140424   3.375  13.282   6.423
79509SOL    HW240425   3.499  13.219   6.482
79510SOL     OW40426  12.604   0.482  14.840
79510SOL    HW140427  12.525   0.437   0.002
79510SOL    HW240428  12.589   0.574  14.861
79511SOL     OW40429   1.092   3.606  11.786
79511SOL    HW140430   1.082   3.570  11.874
79511SOL    HW240431   1.025   3.673  11.779
79512SOL     OW40432   4.103   9.247  11.876
79512SOL    HW140433   4.048   9.319  11.847
79512SOL    HW240434   4.054   9.168  11.853
79513SOL     OW40435   5.118   5.671  13.608
79513SOL    HW140436   5.042   5.727  13.594
79513SOL    HW240437   5.110   5.602  13.543
79514SOL     OW40438   9.883  14.400  14.018
79514SOL    HW140439   9.849  14.310  14.019
79514SOL    HW240440   9.845  14.441  14.096
79515SOL     OW40441  11.328  13.206  10.140
79515SOL    HW140442  11.401  13.183  10.082
79515SOL    HW240443  11.265  13.135  10.128
79516SOL     OW40444  12.263   3.489  10.206
79516SOL    HW140445  12.276   3.581  10.183
79516SOL    HW240446  12.337   3.443  10.167
79517SOL     OW40447  12.601   9.707   6.000
79517SOL    HW140448  12.611   9.795   6.038
79517SOL    HW240449  12.519   9.674   6.037
79518SOL     OW40450   2.190  11.339  12.060
79518SOL    HW140451   2.155  11.422  12.028
79518SOL    HW240452   2.215  11.358  12.150
79519SOL     OW40453  13.777   1.393  11.665
79519SOL    HW140454  13.857   1.342  11.681
79519SOL    HW240455  13.733   1.397  11.749
79520SOL     OW40456  12.368   6.669  14.476
79520SOL    HW140457  12.331   6.757  14.464
79520SOL    HW240458  12.461   6.685  14.496
79521SOL     OW40459   1.974   6.555  11.333
79521SOL    HW140460   1.914   6.602  11.391
79521SOL    HW240461   1.918   6.518  11.266
79522SOL     OW40462   8.492   0.473   4.551
79522SOL    HW140463   8.475   0.561   4.518
79522SOL    HW240464   8.405   0.435   4.564
79523SOL     OW40465  10.040   4.451   1.108
79523SOL    HW140466  10.126   4.452   1.150
79523SOL    HW240467   9.993   4.524   1.148
79524SOL     OW40468   8.284   9.888  12.876
79524SOL    HW140469   8.226   9.928  12.811
79524SOL    HW240470   8.248   9.800  12.890
79525SOL     OW40471  11.820  11.910   9.623
79525SOL    HW140472  11.757  11.895   9.553
79525SOL    HW240473  11.774  11.880   9.702
79526SOL     OW40474  10.653   5.427  10.595
79526SOL    HW140475  10.562   5.443  10.567
79526SOL    HW240476  10.667   5.334  10.577
79527SOL     OW40477   6.179  13.568   4.289
79527SOL    HW140478   6.255  13.538   4.339
79527SOL    HW240479   6.193  13.533   4.201
79528SOL     OW40480  11.127   2.586   3.644
79528SOL    HW140481  11.066   2.519   3.674
79528SOL    HW240482  11.209   2.566   3.689
79529SOL     OW40483   8.009  14.466   1.523
79529SOL    HW140484   8.053  14.453   1.439
79529SOL    HW240485   8.001  14.378   1.559
79530SOL     OW40486   7.717   9.555   7.605
79530SOL    HW140487   7.653   9.560   7.535
79530SOL    HW240488   7.692   9.624   7.666
79531SOL     OW40489  10.395   9.567   2.131
79531SOL    HW140490  10.487   9.588   2.116
79531SOL    HW240491  10.347   9.641   2.093
79532SOL     OW40492  11.124   6.424   6.447
79532SOL    HW140493  11.200   6.440   6.503
79532SOL    HW240494  11.140   6.479   6.370
79533SOL     OW40495  13.178   5.807   1.744
79533SOL    HW140496  13.244   5.789   1.811
79533SOL    HW240497  13.095   5.805   1.791
79534SOL     OW40498   3.807   1.770   5.016
79534SOL    HW140499   3.778   1.821   5.092
79534SOL    HW240500   3.740   1.702   5.006
79535SOL     OW40501   3.502   8.842   0.660
79535SOL    HW140502   3.491   8.928   0.700
79535SOL    HW240503   3.557   8.794   0.722
79536SOL     OW40504   0.245   3.797   2.867
79536SOL    HW140505   0.301   3.875   2.865
79536SOL    HW240506   0.307   3.724   2.870
79537SOL     OW40507   5.095  13.216  14.491
79537SOL    HW140508   5.094  13.233  14.397
79537SOL    HW240509   5.131  13.128  14.499
79538SOL     OW40510   3.149   1.437  10.688
79538SOL    HW140511   3.116   1.369  10.746
79538SOL    HW240512   3.113   1.416  10.603
79539SOL     OW40513  12.005   0.277   8.400
79539SOL    HW140514  12.090   0.245   8.431
79539SOL    HW240515  12.018   0.294   8.307
79540SOL     OW40516   9.055   8.324   1.321
79540SOL    HW140517   8.992   8.375   1.373
79540SOL    HW240518   9.139   8.364   1.342
79541SOL     OW40519   1.641   5.574   9.085
79541SOL    HW140520   1.657   5.615   9.000
79541SOL    HW240521   1.640   5.480   9.066
79542SOL     OW40522  13.961   5.918  12.512
79542SOL    HW140523  13.916   5.993  12.474
79542SOL    HW240524  13.933   5.844  12.458
79543SOL     OW40525   8.469  13.982   7.360
79543SOL    HW140526   8.406  13.914   7.385
79543SOL    HW240527   8.552  13.936   7.352
79544SOL     OW40528   8.481   7.613   9.816
79544SOL    HW140529   8.478   7.527   9.857
79544SOL    HW240530   8.532   7.600   9.737
79545SOL     OW40531   3.212  10.865  12.039
79545SOL    HW140532   3.242  10.791  12.093
79545SOL    HW240533   3.231  10.942  12.091
79546SOL     OW40534   2.760   5.992   5.777
79546SOL    HW140535   2.735   5.960   5.690
79546SOL    HW240536   2.682   6.038   5.808
79547SOL     OW40537  13.645  12.547   8.456
79547SOL    HW140538  13.633  12.628   8.407
79547SOL    HW240539  13.739  12.541   8.473
79548SOL     OW40540  14.119   7.054   2.815
79548SOL    HW140541  14.165   6.973   2.796
79548SOL    HW240542  14.182   7.124   2.796
79549SOL     OW40543   8.110  10.915   4.152
79549SOL    HW140544   8.133  10.977   4.221
79549SOL    HW240545   8.079  10.969   4.079
79550SOL     OW40546   3.629  14.589   9.577
79550SOL    HW140547   3.543  14.573   9.616
79550SOL    HW240548   3.616  14.663   9.519
79551SOL     OW40549  11.284   5.160   1.577
79551SOL    HW140550  11.321   5.241   1.609
79551SOL    HW240551  11.276   5.173   1.482
79552SOL     OW40552   5.135  14.818  11.720
79552SOL    HW140553   5.094   0.013  11.777
79552SOL    HW240554   5.093  14.831  11.634
79553SOL     OW40555  13.136   8.208   6.656
79553SOL    HW140556  13.065   8.153   6.623
79553SOL    HW240557  13.142   8.280   6.592
79554SOL     OW40558  10.143  11.686   5.535
79554SOL    HW140559  10.103  11.752   5.478
79554SOL    HW240560  10.084  11.679   5.610
79555SOL     OW40561  14.865  14.314   5.344
79555SOL    HW140562   0.018  14.231   5.385
79555SOL    HW240563  14.772  14.327   5.365
79556SOL     OW40564  12.234   5.276  11.117
79556SOL    HW140565  12.231   5.245  11.207
79556SOL    HW240566  12.221   5.371  11.125
79557SOL     OW40567   2.017   5.755  10.065
79557SOL    HW140568   2.013   5.847  10.093
79557SOL    HW240569   1.940   5.744  10.010
79558SOL     OW40570   5.477   3.708  12.464
79558SOL    HW140571   5.478   3.688  12.557
79558SOL    HW240572   5.536   3.643  12.425
79559SOL     OW40573  11.422   0.959   2.590
79559SOL    HW140574  11.412   1.047   2.555
79559SOL    HW240575  11.336   0.937   2.625
79560SOL     OW40576   5.695   4.637   6.223
79560SOL    HW140577   5.717   4.716   6.272
79560SOL    HW240578   5.617   4.661   6.173
79561SOL     OW40579   2.442   1.554   1.175
79561SOL    HW140580   2.488   1.608   1.240
79561SOL    HW240581   2.500   1.555   1.099
79562SOL     OW40582   6.924  14.085   6.831
79562SOL    HW140583   6.954  14.146   6.763
79562SOL    HW240584   6.975  14.005   6.815
79563SOL     OW40585  10.013   4.037   6.047
79563SOL    HW140586   9.989   4.129   6.038
79563SOL    HW240587   9.934   3.989   6.020
79564SOL     OW40588  11.565   9.950   9.193
79564SOL    HW140589  11.525   9.873   9.234
79564SOL    HW240590  11.521  10.024   9.235
79565SOL     OW40591   8.212   1.034   8.869
79565SOL    HW140592   8.241   1.071   8.786
79565SOL    HW240593   8.254   0.948   8.873
79566SOL     OW40594   9.262   1.968   2.025
79566SOL    HW140595   9.331   1.969   2.092
79566SOL    HW240596   9.286   2.039   1.966
79567SOL     OW40597  12.345   8.684   9.819
79567SOL    HW140598  12.349   8.766   9.769
79567SOL    HW240599  12.421   8.635   9.790
79568SOL     OW40600  14.649   8.679   2.310
79568SOL    HW140601  14.729   8.626   2.305
79568SOL    HW240602  14.671   8.761   2.267
79569SOL     OW40603  11.065  10.496   5.264
79569SOL    HW140604  11.095  10.486   5.173
79569SOL    HW240605  11.011  10.574   5.262
79570SOL     OW40606   8.030   7.002  12.083
79570SOL    HW140607   7.971   6.927  12.071
79570SOL    HW240608   8.081   6.979  12.160
79571SOL     OW40609   2.121  10.430   4.973
79571SOL    HW140610   2.172  10.349   4.984
79571SOL    HW240611   2.188  10.498   4.964
79572SOL     OW40612   7.231  13.461   6.292
79572SOL    HW140613   7.267  13.386   6.340
79572SOL    HW240614   7.141  13.435   6.273
79573SOL     OW40615  10.595   5.240   5.307
79573SOL    HW140616  10.687   5.234   5.335
79573SOL    HW240617  10.599   5.238   5.212
79574SOL     OW40618   5.715  12.841  12.753
79574SOL    HW140619   5.655  12.791  12.697
79574SOL    HW240620   5.763  12.897  12.692
79575SOL     OW40621  11.447  13.782   7.089
79575SOL    HW140622  11.394  13.731   7.027
79575SOL    HW240623  11.537  13.775   7.056
79576SOL     OW40624   8.653   0.604  14.458
79576SOL    HW140625   8.622   0.619  14.369
79576SOL    HW240626   8.705   0.682  14.479
79577SOL     OW40627   5.448   3.828  14.153
79577SOL    HW140628   5.489   3.914  14.146
79577SOL    HW240629   5.378   3.830  14.088
79578SOL     OW40630   9.762   5.904   3.096
79578SOL    HW140631   9.729   5.889   3.185
79578SOL    HW240632   9.708   5.976   3.063
79579SOL     OW40633   3.233   5.439  12.565
79579SOL    HW140634   3.177   5.366  12.539
79579SOL    HW240635   3.283   5.406  12.639
79580SOL     OW40636   3.036  12.737   4.791
79580SOL    HW140637   2.977  12.661   4.795
79580SOL    HW240638   2.977  12.812   4.799
79581SOL     OW40639   6.185   6.157   4.860
79581SOL    HW140640   6.212   6.248   4.877
79581SOL    HW240641   6.149   6.160   4.771
79582SOL     OW40642  14.712   1.194   4.975
79582SOL    HW140643  14.767   1.176   4.899
79582SOL    HW240644  14.768   1.246   5.033
79583SOL     OW40645  12.907   6.579   3.329
79583SOL    HW140646  12.968   6.651   3.341
79583SOL    HW240647  12.909   6.531   3.412
79584SOL     OW40648  10.398   8.619   0.714
79584SOL    HW140649  10.403   8.703   0.759
79584SOL    HW240650  10.318   8.579   0.746
79585SOL     OW40651   0.830   4.436  14.107
79585SOL    HW140652   0.792   4.520  14.131
79585SOL    HW240653   0.756   4.383  14.078
79586SOL     OW40654  12.164  12.104   8.134
79586SOL    HW140655  12.103  12.153   8.188
79586SOL    HW240656  12.237  12.164   8.121
79587SOL     OW40657   7.865   5.252  10.963
79587SOL    HW140658   7.773   5.247  10.991
79587SOL    HW240659   7.895   5.338  10.994
79588SOL     OW40660   0.716   1.680  14.118
79588SOL    HW140661   0.759   1.756  14.079
79588SOL    HW240662   0.774   1.654  14.190
79589SOL     OW40663   9.850  10.597  12.720
79589SOL    HW140664   9.889  10.684  12.731
79589SOL    HW240665   9.820  10.573  12.808
79590SOL     OW40666   3.341   0.839   9.351
79590SOL    HW140667   3.291   0.920   9.350
79590SOL    HW240668   3.309   0.792   9.428
79591SOL     OW40669   0.789  10.631  14.028
79591SOL    HW140670   0.805  10.719  13.993
79591SOL    HW240671   0.730  10.590  13.965
79592SOL     OW40672  12.013  10.645   1.701
79592SOL    HW140673  12.030  10.553   1.684
79592SOL    HW240674  12.079  10.671   1.765
79593SOL     OW40675  11.408   7.659   9.199
79593SOL    HW140676  11.471   7.627   9.264
79593SOL    HW240677  11.322   7.641   9.238
79594SOL     OW40678   4.830   8.640   5.552
79594SOL    HW140679   4.755   8.631   5.493
79594SOL    HW240680   4.883   8.710   5.514
79595SOL     OW40681   4.590   8.774   8.300
79595SOL    HW140682   4.619   8.865   8.294
79595SOL    HW240683   4.662   8.723   8.262
79596SOL     OW40684  11.489   2.788  14.201
79596SOL    HW140685  11.501   2.882  14.189
79596SOL    HW240686  11.420   2.765  14.139
79597SOL     OW40687   3.986   2.614   1.163
79597SOL    HW140688   4.074   2.649   1.154
79597SOL    HW240689   3.945   2.629   1.078
79598SOL     OW40690   5.985   9.368  12.805
79598SOL    HW140691   6.021   9.401  12.724
79598SOL    HW240692   5.947   9.445  12.848
79599SOL     OW40693   9.181   2.215  10.348
79599SOL    HW140694   9.266   2.193  10.386
79599SOL    HW240695   9.153   2.136  10.302
79600SOL     OW40696   6.991  12.447   5.142
79600SOL    HW140697   6.965  12.491   5.060
79600SOL    HW240698   7.077  12.484   5.162
79601SOL     OW40699   8.215   3.778   6.159
79601SOL    HW140700   8.178   3.699   6.199
79601SOL    HW240701   8.279   3.746   6.095
79602SOL     OW40702   7.729   6.525  13.140
79602SOL    HW140703   7.733   6.459  13.071
79602SOL    HW240704   7.688   6.601  13.099
79603SOL     OW40705   5.031   7.844  13.881
79603SOL    HW140706   5.030   7.905  13.955
79603SOL    HW240707   5.061   7.761  13.918
79604SOL     OW40708   2.298   0.976   4.495
79604SOL    HW140709   2.253   0.915   4.435
79604SOL    HW240710   2.327   0.920   4.567
79605SOL     OW40711  10.111   4.023   3.166
79605SOL    HW140712  10.085   3.949   3.110
79605SOL    HW240713  10.040   4.028   3.231
79606SOL     OW40714  14.202   2.350  12.318
79606SOL    HW140715  14.131   2.404  12.352
79606SOL    HW240716  14.253   2.325  12.395
79607SOL     OW40717   7.898   6.153   6.155
79607SOL    HW140718   7.823   6.174   6.099
79607SOL    HW240719   7.872   6.073   6.200
79608SOL     OW40720   4.180   8.572   2.297
79608SOL    HW140721   4.240   8.592   2.225
79608SOL    HW240722   4.093   8.584   2.260
79609SOL     OW40723  10.596   7.532   4.825
79609SOL    HW140724  10.529   7.492   4.768
79609SOL    HW240725  10.644   7.591   4.767
79610SOL     OW40726  12.490   0.817   6.011
79610SOL    HW140727  12.556   0.828   6.079
79610SOL    HW240728  12.440   0.740   6.037
79611SOL     OW40729   3.383  14.331  14.444
79611SOL    HW140730   3.318  14.261  14.445
79611SOL    HW240731   3.434  14.318  14.524
79612SOL     OW40732   1.486   8.459   7.956
79612SOL    HW140733   1.581   8.454   7.960
79612SOL    HW240734   1.460   8.497   8.040
79613SOL     OW40735   1.983   7.011  14.075
79613SOL    HW140736   1.890   7.020  14.053
79613SOL    HW240737   2.029   7.027  13.993
79614SOL     OW40738  14.277   8.014   7.968
79614SOL    HW140739  14.369   7.997   7.984
79614SOL    HW240740  14.254   8.084   8.030
79615SOL     OW40741   4.346   4.513   8.213
79615SOL    HW140742   4.322   4.518   8.121
79615SOL    HW240743   4.277   4.461   8.254
79616SOL     OW40744   4.951  14.821   9.826
79616SOL    HW140745   4.936  14.730   9.800
79616SOL    HW240746   4.979  14.815   9.917
79617SOL     OW40747   5.051  12.383   7.356
79617SOL    HW140748   5.093  12.303   7.326
79617SOL    HW240749   5.051  12.441   7.280
79618SOL     OW40750   6.400  10.987   7.877
79618SOL    HW140751   6.450  10.909   7.852
79618SOL    HW240752   6.465  11.054   7.893
79619SOL     OW40753  10.512   6.561   9.583
79619SOL    HW140754  10.467   6.646   9.586
79619SOL    HW240755  10.479   6.519   9.504
79620SOL     OW40756   2.428   0.587   8.094
79620SOL    HW140757   2.346   0.577   8.142
79620SOL    HW240758   2.483   0.639   8.152
79621SOL     OW40759  11.287  12.739  14.607
79621SOL    HW140760  11.349  12.666  14.607
79621SOL    HW240761  11.300  12.782  14.522
79622SOL     OW40762   1.014  13.578  10.029
79622SOL    HW140763   1.000  13.570  10.123
79622SOL    HW240764   1.054  13.495  10.003
79623SOL     OW40765  12.604   7.209   1.416
79623SOL    HW140766  12.545   7.229   1.344
79623SOL    HW240767  12.670   7.151   1.378
79624SOL     OW40768  13.503  13.626   1.824
79624SOL    HW140769  13.450  13.644   1.902
79624SOL    HW240770  13.471  13.541   1.793
79625SOL     OW40771  12.366   9.158   4.464
79625SOL    HW140772  12.393   9.186   4.377
79625SOL    HW240773  12.271   9.169   4.465
79626SOL     OW40774  13.570   5.001  14.744
79626SOL    HW140775  13.474   4.993  14.747
79626SOL    HW240776  13.594   4.967  14.658
79627SOL     OW40777   7.365   1.069   3.310
79627SOL    HW140778   7.298   1.123   3.350
79627SOL    HW240779   7.324   1.036   3.230
79628SOL     OW40780   2.162  13.553   9.723
79628SOL    HW140781   2.132  13.591   9.806
79628SOL    HW240782   2.256  13.543   9.734
79629SOL     OW40783   3.825   0.594   5.700
79629SOL    HW140784   3.766   0.589   5.624
79629SOL    HW240785   3.770   0.632   5.769
79630SOL     OW40786   3.370   3.770   5.110
79630SOL    HW140787   3.325   3.828   5.048
79630SOL    HW240788   3.366   3.683   5.069
79631SOL     OW40789   5.536   3.089  10.375
79631SOL    HW140790   5.536   3.166  10.432
79631SOL    HW240791   5.554   3.123  10.288
79632SOL     OW40792   5.169   5.248  11.723
79632SOL    HW140793   5.096   5.186  11.724
79632SOL    HW240794   5.234   5.207  11.667
79633SOL     OW40795  10.458   9.824   8.554
79633SOL    HW140796  10.415   9.902   8.588
79633SOL    HW240797  10.415   9.751   8.600
79634SOL     OW40798  14.453   6.039  11.932
79634SOL    HW140799  14.545   6.050  11.957
79634SOL    HW240800  14.449   6.075  11.843
79635SOL     OW40801  14.173  13.030   3.459
79635SOL    HW140802  14.108  13.007   3.525
79635SOL    HW240803  14.206  13.116   3.487
79636SOL     OW40804   5.661  10.256  10.683
79636SOL    HW140805   5.687  10.348  10.674
79636SOL    HW240806   5.644  10.227  10.594
79637SOL     OW40807   3.145   3.011   2.416
79637SOL    HW140808   3.184   3.098   2.408
79637SOL    HW240809   3.069   3.014   2.358
79638SOL     OW40810  13.902   8.479   7.204
79638SOL    HW140811  13.865   8.406   7.253
79638SOL    HW240812  13.880   8.557   7.255
79639SOL     OW40813   2.988   4.636   3.977
79639SOL    HW140814   2.982   4.720   4.022
79639SOL    HW240815   2.917   4.584   4.014
79640SOL     OW40816   3.917   3.680   2.249
79640SOL    HW140817   3.955   3.674   2.161
79640SOL    HW240818   3.989   3.655   2.308
79641SOL     OW40819   1.041  11.987   0.189
79641SOL    HW140820   1.022  11.906   0.141
79641SOL    HW240821   1.043  12.055   0.121
79642SOL     OW40822   3.846   4.999   0.339
79642SOL    HW140823   3.857   4.952   0.422
79642SOL    HW240824   3.823   4.931   0.276
79643SOL     OW40825   8.385   6.283   0.736
79643SOL    HW140826   8.336   6.292   0.818
79643SOL    HW240827   8.374   6.191   0.712
79644SOL     OW40828  11.526   4.063   2.014
79644SOL    HW140829  11.601   4.011   1.986
79644SOL    HW240830  11.450   4.008   1.995
79645SOL     OW40831   3.382  13.140   7.197
79645SOL    HW140832   3.454  13.198   7.223
79645SOL    HW240833   3.360  13.169   7.108
79646SOL     OW40834  13.698   3.137   4.797
79646SOL    HW140835  13.756   3.210   4.779
79646SOL    HW240836  13.755   3.060   4.794
79647SOL     OW40837  10.052   1.117  10.702
79647SOL    HW140838  10.090   1.204  10.707
79647SOL    HW240839  10.004   1.107  10.785
79648SOL     OW40840  10.300   7.377   5.122
79648SOL    HW140841  10.232   7.439   5.148
79648SOL    HW240842  10.257   7.319   5.059
79649SOL     OW40843   0.863   4.211  14.748
79649SOL    HW140844   0.905   4.129  14.774
79649SOL    HW240845   0.778   4.184  14.713
79650SOL     OW40846   4.777  11.581   8.136
79650SOL    HW140847   4.720  11.654   8.112
79650SOL    HW240848   4.852  11.587   8.077
79651SOL     OW40849   1.973   2.594   1.026
79651SOL    HW140850   1.976   2.501   1.003
79651SOL    HW240851   1.894   2.603   1.079
79652SOL     OW40852   8.483   9.803  14.296
79652SOL    HW140853   8.443   9.785  14.381
79652SOL    HW240854   8.577   9.808  14.314
79653SOL     OW40855   3.443   9.201   7.230
79653SOL    HW140856   3.481   9.252   7.301
79653SOL    HW240857   3.378   9.145   7.273
79654SOL     OW40858  13.834   2.318   8.995
79654SOL    HW140859  13.867   2.389   8.941
79654SOL    HW240860  13.791   2.258   8.933
79655SOL     OW40861   4.133  13.265   8.211
79655SOL    HW140862   4.191  13.199   8.173
79655SOL    HW240863   4.063  13.275   8.146
79656SOL     OW40864   1.755  12.673   6.390
79656SOL    HW140865   1.817  12.670   6.318
79656SOL    HW240866   1.784  12.747   6.444
79657SOL     OW40867   1.798   9.027  10.962
79657SOL    HW140868   1.720   8.998  10.916
79657SOL    HW240869   1.791   9.123  10.963
79658SOL     OW40870   7.009   3.447  11.779
79658SOL    HW140871   7.096   3.424  11.812
79658SOL    HW240872   7.025   3.519  11.718
79659SOL     OW40873   7.453  14.735  12.113
79659SOL    HW140874   7.513  14.665  12.141
79659SOL    HW240875   7.367  14.693  12.108
79660SOL     OW40876  11.420  13.132   8.426
79660SOL    HW140877  11.334  13.090   8.415
79660SOL    HW240878  11.418  13.166   8.515
79661SOL     OW40879   3.048  13.909  14.470
79661SOL    HW140880   3.085  13.937  14.554
79661SOL    HW240881   3.098  13.831  14.447
79662SOL     OW40882  10.183   3.623  12.367
79662SOL    HW140883  10.110   3.607  12.307
79662SOL    HW240884  10.177   3.554  12.432
79663SOL     OW40885   4.370   1.363  14.636
79663SOL    HW140886   4.428   1.438  14.627
79663SOL    HW240887   4.323   1.359  14.553
79664SOL     OW40888   4.427  13.520   4.038
79664SOL    HW140889   4.418  13.615   4.027
79664SOL    HW240890   4.377  13.483   3.965
79665SOL     OW40891   5.415  10.444  11.489
79665SOL    HW140892   5.483  10.500  11.449
79665SOL    HW240893   5.410  10.368  11.431
79666SOL     OW40894  12.336   1.638   3.233
79666SOL    HW140895  12.349   1.724   3.193
79666SOL    HW240896  12.366   1.576   3.167
79667SOL     OW40897   7.344   7.387   8.302
79667SOL    HW140898   7.390   7.466   8.276
79667SOL    HW240899   7.293   7.412   8.379
79668SOL     OW40900   3.576   1.620   3.508
79668SOL    HW140901   3.621   1.544   3.470
79668SOL    HW240902   3.543   1.589   3.592
79669SOL     OW40903   0.912   5.830   8.090
79669SOL    HW140904   0.832   5.868   8.126
79669SOL    HW240905   0.887   5.800   8.003
79670SOL     OW40906  11.373   5.160  13.337
79670SOL    HW140907  11.393   5.252  13.354
79670SOL    HW240908  11.308   5.162  13.267
79671SOL     OW40909   9.100  11.372   0.786
79671SOL    HW140910   9.114  11.428   0.862
79671SOL    HW240911   9.185  11.371   0.741
79672SOL     OW40912  11.119   1.069   3.343
79672SOL    HW140913  11.153   1.081   3.254
79672SOL    HW240914  11.036   1.024   3.331
79673SOL     OW40915  13.872   5.151   7.923
79673SOL    HW140916  13.910   5.214   7.862
79673SOL    HW240917  13.938   5.143   7.992
79674SOL     OW40918   3.820   6.774   5.279
79674SOL    HW140919   3.844   6.692   5.236
79674SOL    HW240920   3.842   6.759   5.372
79675SOL     OW40921   9.356  14.449   9.988
79675SOL    HW140922   9.435  14.486  10.026
79675SOL    HW240923   9.302  14.423  10.062
79676SOL     OW40924   6.456   6.571   6.823
79676SOL    HW140925   6.370   6.593   6.859
79676SOL    HW240926   6.498   6.655   6.806
79677SOL     OW40927  12.113   5.818   5.349
79677SOL    HW140928  12.097   5.913   5.353
79677SOL    HW240929  12.081   5.785   5.432
79678SOL     OW40930   8.364   7.898   5.497
79678SOL    HW140931   8.399   7.910   5.409
79678SOL    HW240932   8.357   7.803   5.507
79679SOL     OW40933   0.810   9.443   8.334
79679SOL    HW140934   0.765   9.374   8.284
79679SOL    HW240935   0.895   9.452   8.291
79680SOL     OW40936   7.900   5.520  11.406
79680SOL    HW140937   7.818   5.544  11.449
79680SOL    HW240938   7.942   5.459  11.466
79681SOL     OW40939  11.265   5.517  10.035
79681SOL    HW140940  11.189   5.470  10.002
79681SOL    HW240941  11.298   5.565   9.958
79682SOL     OW40942  14.788  10.455   6.975
79682SOL    HW140943  14.832  10.437   6.892
79682SOL    HW240944  14.779  10.550   6.976
79683SOL     OW40945  12.212   2.360  13.480
79683SOL    HW140946  12.213   2.265  13.495
79683SOL    HW240947  12.119   2.383  13.476
79684SOL     OW40948   2.225   9.031   8.368
79684SOL    HW140949   2.135   8.997   8.362
79684SOL    HW240950   2.245   9.029   8.461
79685SOL     OW40951  10.993   9.742   4.769
79685SOL    HW140952  10.998   9.679   4.696
79685SOL    HW240953  10.899   9.752   4.785
79686SOL     OW40954   8.928   0.198   1.128
79686SOL    HW140955   8.908   0.155   1.211
79686SOL    HW240956   9.004   0.152   1.094
79687SOL     OW40957  11.792   8.202   8.555
79687SOL    HW140958  11.750   8.171   8.475
79687SOL    HW240959  11.736   8.170   8.625
79688SOL     OW40960   6.032   2.673  14.538
79688SOL    HW140961   5.947   2.656  14.578
79688SOL    HW240962   6.029   2.767  14.516
79689SOL     OW40963   9.127   8.314  10.905
79689SOL    HW140964   9.205   8.353  10.946
79689SOL    HW240965   9.132   8.221  10.928
79690SOL     OW40966  14.654  13.848  11.239
79690SOL    HW140967  14.622  13.915  11.300
79690SOL    HW240968  14.587  13.780  11.243
79691SOL     OW40969  10.393  14.261  14.376
79691SOL    HW140970  10.420  14.348  14.405
79691SOL    HW240971  10.460  14.234  14.315
79692SOL     OW40972   1.787   5.315  10.302
79692SOL    HW140973   1.710   5.372  10.299
79692SOL    HW240974   1.860   5.371  10.274
79693SOL     OW40975  10.749   7.022   5.505
79693SOL    HW140976  10.813   6.987   5.567
79693SOL    HW240977  10.669   7.032   5.557
79694SOL     OW40978  13.615   3.739  11.983
79694SOL    HW140979  13.659   3.654  11.991
79694SOL    HW240980  13.661   3.795  12.045
79695SOL     OW40981   6.761   3.357  13.477
79695SOL    HW140982   6.750   3.429  13.415
79695SOL    HW240983   6.809   3.290  13.428
79696SOL     OW40984   3.252   8.307  14.592
79696SOL    HW140985   3.307   8.241  14.635
79696SOL    HW240986   3.285   8.391  14.626
79697SOL     OW40987   3.568  12.138   5.614
79697SOL    HW140988   3.663  12.122   5.610
79697SOL    HW240989   3.531  12.055   5.643
79698SOL     OW40990   2.090  12.748  10.260
79698SOL    HW140991   2.017  12.783  10.209
79698SOL    HW240992   2.146  12.824  10.276
79699SOL     OW40993   2.775  13.666   9.976
79699SOL    HW140994   2.840  13.715  10.026
79699SOL    HW240995   2.739  13.730   9.915
79700SOL     OW40996   7.717   6.407   4.236
79700SOL    HW140997   7.652   6.390   4.168
79700SOL    HW240998   7.679   6.372   4.316
79701SOL     OW40999   5.315  10.412  12.652
79701SOL    HW141000   5.378  10.408  12.580
79701SOL    HW241001   5.369  10.414  12.731
79702SOL     OW41002  14.667  13.679   3.234
79702SOL    HW141003  14.642  13.603   3.287
79702SOL    HW241004  14.598  13.686   3.168
79703SOL     OW41005   2.956   5.480  10.326
79703SOL    HW141006   2.880   5.470  10.382
79703SOL    HW241007   2.964   5.575  10.312
79704SOL     OW41008   3.042  11.396   5.803
79704SOL    HW141009   3.043  11.487   5.773
79704SOL    HW241010   3.133  11.368   5.796
79705SOL     OW41011   6.514   6.847  12.787
79705SOL    HW141012   6.421   6.822  12.790
79705SOL    HW241013   6.552   6.804  12.864
79706SOL     OW41014  11.445   2.600  12.041
79706SOL    HW141015  11.363   2.567  12.005
79706SOL    HW241016  11.479   2.528  12.094
79707SOL     OW41017   1.229  14.457  13.961
79707SOL    HW141018   1.298  14.391  13.955
79707SOL    HW241019   1.236  14.506  13.879
79708SOL     OW41020  11.767   2.103   1.877
79708SOL    HW141021  11.842   2.043   1.885
79708SOL    HW241022  11.798   2.184   1.919
79709SOL     OW41023   8.838   3.124   7.010
79709SOL    HW141024   8.818   3.160   7.097
79709SOL    HW241025   8.904   3.057   7.027
79710SOL     OW41026   9.755  13.087   3.503
79710SOL    HW141027   9.783  13.039   3.581
79710SOL    HW241028   9.769  13.026   3.431
79711SOL     OW41029  12.024  13.810   1.253
79711SOL    HW141030  12.055  13.807   1.344
79711SOL    HW241031  12.013  13.718   1.229
79712SOL     OW41032   4.223   6.830   0.300
79712SOL    HW141033   4.134   6.820   0.333
79712SOL    HW241034   4.215   6.894   0.229
79713SOL     OW41035   0.943   1.002   4.491
79713SOL    HW141036   0.956   0.940   4.419
79713SOL    HW241037   0.917   0.948   4.565
79714SOL     OW41038   0.505   3.946   6.826
79714SOL    HW141039   0.589   3.913   6.795
79714SOL    HW241040   0.515   3.952   6.921
79715SOL     OW41041   9.184   8.630   9.220
79715SOL    HW141042   9.145   8.641   9.134
79715SOL    HW241043   9.268   8.587   9.202
79716SOL     OW41044   5.576   3.058   5.155
79716SOL    HW141045   5.616   2.971   5.162
79716SOL    HW241046   5.542   3.061   5.065
79717SOL     OW41047   4.840   2.096   6.811
79717SOL    HW141048   4.901   2.115   6.739
79717SOL    HW241049   4.800   2.181   6.831
79718SOL     OW41050  12.934  10.850   6.669
79718SOL    HW141051  12.858  10.812   6.713
79718SOL    HW241052  12.906  10.858   6.577
79719SOL     OW41053   6.671   3.249   0.977
79719SOL    HW141054   6.620   3.169   0.963
79719SOL    HW241055   6.637   3.284   1.060
79720SOL     OW41056   9.923  10.344  14.774
79720SOL    HW141057   9.874  10.314  14.698
79720SOL    HW241058   9.868  10.322  14.849
79721SOL     OW41059   9.991   3.966  14.294
79721SOL    HW141060   9.934   4.002  14.362
79721SOL    HW241061   9.949   3.992  14.212
79722SOL     OW41062   9.026  11.042   8.590
79722SOL    HW141063   9.037  11.042   8.495
79722SOL    HW241064   8.936  11.072   8.603
79723SOL     OW41065   8.875   6.412   6.459
79723SOL    HW141066   8.783   6.407   6.487
79723SOL    HW241067   8.921   6.352   6.517
79724SOL     OW41068   3.510   8.383   0.871
79724SOL    HW141069   3.422   8.378   0.910
79724SOL    HW241070   3.497   8.355   0.780
79725SOL     OW41071  12.308   8.729   1.758
79725SOL    HW141072  12.352   8.812   1.778
79725SOL    HW241073  12.297   8.729   1.663
79726SOL     OW41074  13.991   0.659   1.297
79726SOL    HW141075  14.061   0.639   1.359
79726SOL    HW241076  13.970   0.751   1.315
79727SOL     OW41077  14.565  10.418   4.154
79727SOL    HW141078  14.595  10.505   4.181
79727SOL    HW241079  14.636  10.384   4.100
79728SOL     OW41080   3.006  14.868   7.224
79728SOL    HW141081   3.026   0.087   7.193
79728SOL    HW241082   2.996   0.007   7.318
79729SOL     OW41083  11.870  12.013   6.314
79729SOL    HW141084  11.944  11.958   6.288
79729SOL    HW241085  11.866  12.081   6.247
79730SOL     OW41086   1.536  11.285   5.958
79730SOL    HW141087   1.539  11.272   5.863
79730SOL    HW241088   1.442  11.290   5.978
79731SOL     OW41089  11.941   9.850   7.553
79731SOL    HW141090  11.963   9.792   7.626
79731SOL    HW241091  11.853   9.881   7.574
79732SOL     OW41092   0.468   5.650  12.602
79732SOL    HW141093   0.452   5.713  12.672
79732SOL    HW241094   0.425   5.570  12.630
79733SOL     OW41095  10.025  13.037  14.184
79733SOL    HW141096  10.040  13.032  14.089
79733SOL    HW241097   9.990  13.125  14.198
79734SOL     OW41098  14.602   2.633   4.237
79734SOL    HW141099  14.531   2.697   4.249
79734SOL    HW241100  14.656   2.670   4.167
79735SOL     OW41101   5.900  13.117  10.916
79735SOL    HW141102   5.961  13.091  10.847
79735SOL    HW241103   5.954  13.164  10.979
79736SOL     OW41104   4.664   7.768   9.777
79736SOL    HW141105   4.583   7.816   9.795
79736SOL    HW241106   4.731   7.836   9.770
79737SOL     OW41107  13.276   5.504  12.361
79737SOL    HW141108  13.343   5.437  12.378
79737SOL    HW241109  13.313   5.584  12.397
79738SOL     OW41110  11.171   9.657   6.341
79738SOL    HW141111  11.213   9.739   6.367
79738SOL    HW241112  11.197   9.645   6.249
79739SOL     OW41113   2.892  14.389   4.276
79739SOL    HW141114   2.873  14.443   4.199
79739SOL    HW241115   2.848  14.306   4.259
79740SOL     OW41116  14.012  10.386   7.477
79740SOL    HW141117  14.022  10.324   7.405
79740SOL    HW241118  14.062  10.347   7.549
79741SOL     OW41119   6.230   0.554   1.260
79741SOL    HW141120   6.213   0.525   1.170
79741SOL    HW241121   6.320   0.586   1.258
79742SOL     OW41122  11.594   7.169   0.846
79742SOL    HW141123  11.543   7.089   0.856
79742SOL    HW241124  11.530   7.237   0.826
79743SOL     OW41125   7.671   3.159   1.842
79743SOL    HW141126   7.626   3.087   1.887
79743SOL    HW241127   7.742   3.183   1.901
79744SOL     OW41128  12.854  12.788   0.265
79744SOL    HW141129  12.894  12.707   0.234
79744SOL    HW241130  12.913  12.857   0.235
79745SOL     OW41131  14.011   9.616   4.106
79745SOL    HW141132  14.035   9.623   4.014
79745SOL    HW241133  13.929   9.664   4.113
79746SOL     OW41134  14.645  14.276   8.351
79746SOL    HW141135  14.619  14.320   8.432
79746SOL    HW241136  14.619  14.185   8.363
79747SOL     OW41137   7.808   2.774   3.524
79747SOL    HW141138   7.762   2.696   3.492
79747SOL    HW241139   7.767   2.846   3.476
79748SOL     OW41140   4.613  13.072   1.392
79748SOL    HW141141   4.548  13.013   1.430
79748SOL    HW241142   4.561  13.136   1.343
79749SOL     OW41143  10.494  12.423   0.366
79749SOL    HW141144  10.497  12.514   0.335
79749SOL    HW241145  10.419  12.422   0.426
79750SOL     OW41146  12.920  12.493   2.813
79750SOL    HW141147  12.924  12.462   2.722
79750SOL    HW241148  12.882  12.420   2.862
79751SOL     OW41149  13.634   1.847  10.719
79751SOL    HW141150  13.720   1.887  10.729
79751SOL    HW241151  13.583   1.912  10.670
79752SOL     OW41152  12.256   6.419   5.816
79752SOL    HW141153  12.246   6.386   5.726
79752SOL    HW241154  12.346   6.450   5.820
79753SOL     OW41155   4.904   5.611   7.581
79753SOL    HW141156   4.940   5.595   7.494
79753SOL    HW241157   4.981   5.621   7.637
79754SOL     OW41158  11.052  10.881   5.647
79754SOL    HW141159  11.003  10.949   5.693
79754SOL    HW241160  11.018  10.799   5.684
79755SOL     OW41161   0.505   7.372  11.998
79755SOL    HW141162   0.585   7.415  12.028
79755SOL    HW241163   0.474   7.424  11.924
79756SOL     OW41164  12.031  13.206   3.328
79756SOL    HW141165  11.967  13.135   3.322
79756SOL    HW241166  11.977  13.285   3.332
79757SOL     OW41167   7.920   1.200   0.899
79757SOL    HW141168   7.989   1.259   0.870
79757SOL    HW241169   7.951   1.166   0.982
79758SOL     OW41170  13.897  10.265   5.362
79758SOL    HW141171  13.842  10.282   5.285
79758SOL    HW241172  13.956  10.340   5.365
79759SOL     OW41173   7.753   1.587  12.982
79759SOL    HW141174   7.786   1.667  12.942
79759SOL    HW241175   7.758   1.604  13.076
79760SOL     OW41176   4.782  13.939   9.950
79760SOL    HW141177   4.815  13.877  10.015
79760SOL    HW241178   4.852  14.003   9.939
79761SOL     OW41179   0.148   8.511   5.000
79761SOL    HW141180   0.087   8.518   5.074
79761SOL    HW241181   0.182   8.421   5.006
79762SOL     OW41182   9.900   9.415   8.985
79762SOL    HW141183   9.891   9.367   8.903
79762SOL    HW241184   9.948   9.355   9.042
79763SOL     OW41185  14.467   6.436   4.677
79763SOL    HW141186  14.450   6.453   4.584
79763SOL    HW241187  14.544   6.379   4.677
79764SOL     OW41188   8.113  12.392  10.992
79764SOL    HW141189   8.031  12.428  10.959
79764SOL    HW241190   8.088  12.309  11.031
79765SOL     OW41191   5.359  11.073   7.109
79765SOL    HW141192   5.438  11.125   7.123
79765SOL    HW241193   5.349  11.071   7.014
79766SOL     OW41194  12.098   6.071   6.376
79766SOL    HW141195  12.044   6.044   6.302
79766SOL    HW241196  12.083   6.165   6.385
79767SOL     OW41197   5.830   5.151   1.127
79767SOL    HW141198   5.782   5.150   1.044
79767SOL    HW241199   5.786   5.218   1.179
79768SOL     OW41200  10.266   2.506   4.869
79768SOL    HW141201  10.210   2.567   4.917
79768SOL    HW241202  10.266   2.540   4.779
79769SOL     OW41203   2.035   7.948   9.549
79769SOL    HW141204   2.016   8.024   9.604
79769SOL    HW241205   2.058   7.878   9.610
79770SOL     OW41206   0.266  14.525  14.107
79770SOL    HW141207   0.259  14.612  14.069
79770SOL    HW241208   0.273  14.539  14.201
79771SOL     OW41209   3.865   7.453   8.460
79771SOL    HW141210   3.905   7.403   8.390
79771SOL    HW241211   3.924   7.527   8.474
79772SOL     OW41212  12.066  10.530   3.541
79772SOL    HW141213  12.133  10.585   3.581
79772SOL    HW241214  12.065  10.450   3.593
79773SOL     OW41215  11.964   5.128   7.648
79773SOL    HW141216  11.940   5.213   7.685
79773SOL    HW241217  11.901   5.114   7.577
79774SOL     OW41218   2.175  10.875   1.608
79774SOL    HW141219   2.232  10.950   1.590
79774SOL    HW241220   2.194  10.852   1.699
79775SOL     OW41221   9.982   9.822   4.514
79775SOL    HW141222   9.948   9.733   4.503
79775SOL    HW241223  10.062   9.811   4.565
79776SOL     OW41224  11.011  13.534   8.452
79776SOL    HW141225  10.996  13.440   8.465
79776SOL    HW241226  10.926  13.568   8.424
79777SOL     OW41227  10.917  13.760   3.458
79777SOL    HW141228  10.979  13.691   3.434
79777SOL    HW241229  10.951  13.796   3.539
79778SOL     OW41230   1.578   8.214   1.183
79778SOL    HW141231   1.507   8.153   1.202
79778SOL    HW241232   1.657   8.169   1.211
79779SOL     OW41233  14.533   0.653   7.449
79779SOL    HW141234  14.458   0.602   7.418
79779SOL    HW241235  14.552   0.618   7.536
79780SOL     OW41236  11.502   5.422  13.374
79780SOL    HW141237  11.559   5.393  13.445
79780SOL    HW241238  11.452   5.495  13.410
79781SOL     OW41239   1.026   5.531   6.379
79781SOL    HW141240   1.058   5.577   6.457
79781SOL    HW241241   0.990   5.449   6.413
79782SOL     OW41242   0.715   1.593  10.124
79782SOL    HW141243   0.670   1.655  10.181
79782SOL    HW241244   0.799   1.576  10.167
79783SOL     OW41245  13.191   0.657   8.681
79783SOL    HW141246  13.147   0.604   8.746
79783SOL    HW241247  13.198   0.744   8.721
79784SOL     OW41248  11.840   0.204   0.578
79784SOL    HW141249  11.910   0.166   0.631
79784SOL    HW241250  11.872   0.291   0.556
79785SOL     OW41251   5.518  11.587   7.716
79785SOL    HW141252   5.592  11.620   7.767
79785SOL    HW241253   5.543  11.602   7.625
79786SOL     OW41254  12.006   1.455  14.487
79786SOL    HW141255  11.926   1.457  14.435
79786SOL    HW241256  12.023   1.362  14.502
79787SOL     OW41257  13.904   5.899   0.398
79787SOL    HW141258  13.813   5.914   0.372
79787SOL    HW241259  13.915   5.804   0.395
79788SOL     OW41260   0.264  13.123  12.519
79788SOL    HW141261   0.267  13.177  12.440
79788SOL    HW241262   0.356  13.111  12.544
79789SOL     OW41263   1.300   1.969  10.124
79789SOL    HW141264   1.371   1.991  10.063
79789SOL    HW241265   1.305   2.036  10.192
79790SOL     OW41266  11.316   0.255   7.598
79790SOL    HW141267  11.306   0.349   7.613
79790SOL    HW241268  11.251   0.234   7.531
79791SOL     OW41269   2.536  10.631   6.306
79791SOL    HW141270   2.535  10.722   6.274
79791SOL    HW241271   2.625  10.617   6.337
79792SOL     OW41272  12.486  13.940   8.144
79792SOL    HW141273  12.568  13.986   8.164
79792SOL    HW241274  12.485  13.933   8.049
79793SOL     OW41275   3.398  10.196  10.889
79793SOL    HW141276   3.375  10.104  10.892
79793SOL    HW241277   3.390  10.220  10.796
79794SOL     OW41278   7.968   6.405  13.601
79794SOL    HW141279   7.966   6.498  13.627
79794SOL    HW241280   7.938   6.405  13.511
79795SOL     OW41281  13.147   7.321   8.612
79795SOL    HW141282  13.210   7.321   8.684
79795SOL    HW241283  13.156   7.408   8.573
79796SOL     OW41284  10.650   1.393  11.932
79796SOL    HW141285  10.738   1.360  11.948
79796SOL    HW241286  10.662   1.465  11.870
79797SOL     OW41287  10.138   6.329  10.065
79797SOL    HW141288  10.152   6.244  10.106
79797SOL    HW241289  10.174   6.320   9.976
79798SOL     OW41290  11.284  13.398   6.040
79798SOL    HW141291  11.350  13.357   5.983
79798SOL    HW241292  11.263  13.330   6.104
79799SOL     OW41293  14.860   4.359  12.636
79799SOL    HW141294  14.806   4.381  12.560
79799SOL    HW241295   0.071   4.408  12.623
79800SOL     OW41296   9.720   9.650  14.631
79800SOL    HW141297   9.775   9.607  14.696
79800SOL    HW241298   9.781   9.700  14.577
79801SOL     OW41299  12.310  14.368   4.009
79801SOL    HW141300  12.378  14.344   4.072
79801SOL    HW241301  12.237  14.310   4.029
79802SOL     OW41302   3.072   6.220   7.260
79802SOL    HW141303   3.036   6.245   7.175
79802SOL    HW241304   3.007   6.250   7.323
79803SOL     OW41305   7.739   2.216   0.560
79803SOL    HW141306   7.752   2.306   0.588
79803SOL    HW241307   7.644   2.204   0.559
79804SOL     OW41308   3.063   5.735  13.202
79804SOL    HW141309   3.052   5.664  13.265
79804SOL    HW241310   2.986   5.791  13.215
79805SOL     OW41311   0.983  11.306   4.894
79805SOL    HW141312   1.065  11.261   4.875
79805SOL    HW241313   0.956  11.272   4.979
79806SOL     OW41314   5.711  12.972  14.416
79806SOL    HW141315   5.653  12.985  14.491
79806SOL    HW241316   5.798  12.964  14.453
79807SOL     OW41317   1.893   7.493   5.582
79807SOL    HW141318   1.919   7.585   5.590
79807SOL    HW241319   1.850   7.488   5.497
79808SOL     OW41320   6.221   7.400  11.544
79808SOL    HW141321   6.186   7.397  11.454
79808SOL    HW241322   6.193   7.317  11.583
79809SOL     OW41323  11.722   6.366   7.164
79809SOL    HW141324  11.685   6.314   7.093
79809SOL    HW241325  11.796   6.413   7.124
79810SOL     OW41326   0.243   7.562  12.640
79810SOL    HW141327   0.169   7.569  12.701
79810SOL    HW241328   0.212   7.501  12.573
79811SOL     OW41329   4.133  12.032   0.369
79811SOL    HW141330   4.103  12.011   0.280
79811SOL    HW241331   4.132  11.947   0.414
79812SOL     OW41332   8.204   1.962  14.355
79812SOL    HW141333   8.223   2.055  14.354
79812SOL    HW241334   8.196   1.939  14.448
79813SOL     OW41335  12.539   1.313   3.066
79813SOL    HW141336  12.624   1.310   3.108
79813SOL    HW241337  12.546   1.386   3.003
79814SOL     OW41338   3.817   1.849   2.812
79814SOL    HW141339   3.888   1.796   2.847
79814SOL    HW241340   3.844   1.939   2.830
79815SOL     OW41341   2.627  10.720   7.979
79815SOL    HW141342   2.595  10.810   7.968
79815SOL    HW241343   2.567  10.667   7.927
79816SOL     OW41344   3.344   9.156  12.021
79816SOL    HW141345   3.361   9.193  12.108
79816SOL    HW241346   3.250   9.164  12.009
79817SOL     OW41347   1.544   2.244  11.057
79817SOL    HW141348   1.507   2.252  11.145
79817SOL    HW241349   1.468   2.249  10.999
79818SOL     OW41350  10.092  10.166  12.203
79818SOL    HW141351  10.079  10.071  12.201
79818SOL    HW241352  10.079  10.194  12.113
79819SOL     OW41353  12.989   4.971  10.494
79819SOL    HW141354  13.020   5.058  10.470
79819SOL    HW241355  13.032   4.951  10.577
79820SOL     OW41356  14.159  10.607   4.154
79820SOL    HW141357  14.204  10.586   4.073
79820SOL    HW241358  14.223  10.588   4.223
79821SOL     OW41359  11.899  12.189  10.341
79821SOL    HW141360  11.923  12.270  10.296
79821SOL    HW241361  11.968  12.177  10.407
79822SOL     OW41362   8.676   8.275   7.051
79822SOL    HW141363   8.609   8.207   7.048
79822SOL    HW241364   8.712   8.269   7.139
79823SOL     OW41365  14.490  12.709  11.375
79823SOL    HW141366  14.472  12.678  11.287
79823SOL    HW241367  14.582  12.733  11.375
79824SOL     OW41368   8.308   8.224   0.739
79824SOL    HW141369   8.357   8.305   0.755
79824SOL    HW241370   8.217   8.252   0.736
79825SOL     OW41371   2.629  12.571   0.919
79825SOL    HW141372   2.629  12.592   1.013
79825SOL    HW241373   2.708  12.517   0.907
79826SOL     OW41374   2.608   3.457  11.633
79826SOL    HW141375   2.657   3.493  11.707
79826SOL    HW241376   2.593   3.365  11.656
79827SOL     OW41377   6.324   5.722   8.713
79827SOL    HW141378   6.233   5.691   8.712
79827SOL    HW241379   6.348   5.725   8.620
79828SOL     OW41380   5.642   0.644   0.082
79828SOL    HW141381   5.562   0.672   0.038
79828SOL    HW241382   5.662   0.558   0.044
79829SOL     OW41383   5.818   6.778  11.101
79829SOL    HW141384   5.812   6.706  11.163
79829SOL    HW241385   5.910   6.805  11.105
79830SOL     OW41386   3.890   4.151  13.865
79830SOL    HW141387   3.961   4.182  13.921
79830SOL    HW241388   3.885   4.215  13.794
79831SOL     OW41389  11.389   8.726  11.941
79831SOL    HW141390  11.396   8.786  12.015
79831SOL    HW241391  11.296   8.702  11.938
79832SOL     OW41392   8.079  10.927   2.039
79832SOL    HW141393   8.050  10.986   2.108
79832SOL    HW241394   8.055  10.839   2.071
79833SOL     OW41395  13.425  10.798  11.038
79833SOL    HW141396  13.350  10.754  10.999
79833SOL    HW241397  13.487  10.728  11.058
79834SOL     OW41398   6.620  11.068   3.255
79834SOL    HW141399   6.590  11.157   3.237
79834SOL    HW241400   6.644  11.032   3.170
79835SOL     OW41401   9.480  12.236  11.454
79835SOL    HW141402   9.551  12.179  11.423
79835SOL    HW241403   9.500  12.253  11.545
79836SOL     OW41404  10.185   2.229  12.107
79836SOL    HW141405  10.208   2.137  12.092
79836SOL    HW241406  10.149   2.259  12.024
79837SOL     OW41407   7.321   8.584  14.323
79837SOL    HW141408   7.333   8.522  14.395
79837SOL    HW241409   7.235   8.623  14.339
79838SOL     OW41410   7.611  12.110   3.228
79838SOL    HW141411   7.587  12.106   3.136
79838SOL    HW241412   7.666  12.187   3.236
79839SOL     OW41413  10.628  11.100   9.201
79839SOL    HW141414  10.611  11.171   9.263
79839SOL    HW241415  10.666  11.143   9.125
79840SOL     OW41416  10.209   4.083   7.286
79840SOL    HW141417  10.154   4.158   7.262
79840SOL    HW241418  10.159   4.006   7.255
79841SOL     OW41419   8.504   8.381   5.510
79841SOL    HW141420   8.413   8.377   5.539
79841SOL    HW241421   8.554   8.393   5.590
79842SOL     OW41422   7.571  12.620   4.292
79842SOL    HW141423   7.516  12.698   4.293
79842SOL    HW241424   7.642  12.641   4.231
79843SOL     OW41425  13.258   0.541   6.640
79843SOL    HW141426  13.214   0.624   6.620
79843SOL    HW241427  13.200   0.498   6.703
79844SOL     OW41428   2.232   9.836   0.189
79844SOL    HW141429   2.140   9.812   0.180
79844SOL    HW241430   2.270   9.815   0.103
79845SOL     OW41431   9.032  12.691  11.872
79845SOL    HW141432   9.084  12.766  11.843
79845SOL    HW241433   9.025  12.700  11.967
79846SOL     OW41434   4.454  10.390   3.712
79846SOL    HW141435   4.506  10.310   3.710
79846SOL    HW241436   4.366  10.363   3.689
79847SOL     OW41437   0.981   8.442   4.065
79847SOL    HW141438   1.017   8.421   4.151
79847SOL    HW241439   0.951   8.532   4.073
79848SOL     OW41440   2.531   8.889   7.928
79848SOL    HW141441   2.492   8.837   7.858
79848SOL    HW241442   2.525   8.834   8.006
79849SOL     OW41443   9.972   0.077   1.380
79849SOL    HW141444   9.991   0.143   1.313
79849SOL    HW241445   9.896   0.030   1.346
79850SOL     OW41446   6.860   6.473  14.533
79850SOL    HW141447   6.768   6.457  14.555
79850SOL    HW241448   6.887   6.395  14.484
79851SOL     OW41449  11.115   5.557  13.677
79851SOL    HW141450  11.154   5.472  13.697
79851SOL    HW241451  11.134   5.611  13.753
79852SOL     OW41452  13.155  14.556  12.196
79852SOL    HW141453  13.236  14.537  12.149
79852SOL    HW241454  13.177  14.631  12.251
79853SOL     OW41455   1.273   3.937   5.178
79853SOL    HW141456   1.281   4.002   5.247
79853SOL    HW241457   1.361   3.931   5.141
79854SOL     OW41458   5.373  10.662  11.860
79854SOL    HW141459   5.295  10.655  11.915
79854SOL    HW241460   5.339  10.670  11.771
79855SOL     OW41461   1.722   8.999   2.218
79855SOL    HW141462   1.722   8.993   2.314
79855SOL    HW241463   1.770   8.922   2.189
79856SOL     OW41464   3.454   1.973   0.924
79856SOL    HW141465   3.448   2.051   0.869
79856SOL    HW241466   3.492   1.906   0.867
79857SOL     OW41467   7.262   5.379   9.117
79857SOL    HW141468   7.210   5.307   9.151
79857SOL    HW241469   7.309   5.343   9.043
79858SOL     OW41470  10.266   4.382   1.268
79858SOL    HW141471  10.336   4.340   1.218
79858SOL    HW241472  10.296   4.377   1.359
79859SOL     OW41473  10.064   4.766  11.130
79859SOL    HW141474  10.150   4.737  11.160
79859SOL    HW241475  10.051   4.720  11.047
79860SOL     OW41476   3.113  12.525   8.182
79860SOL    HW141477   3.078  12.561   8.263
79860SOL    HW241478   3.043  12.469   8.148
79861SOL     OW41479  10.707   9.676   9.161
79861SOL    HW141480  10.696   9.736   9.087
79861SOL    HW241481  10.703   9.733   9.238
79862SOL     OW41482   5.417  10.849   8.313
79862SOL    HW141483   5.362  10.776   8.343
79862SOL    HW241484   5.507  10.817   8.324
79863SOL     OW41485   0.035   2.703   2.749
79863SOL    HW141486  14.831   2.746   2.793
79863SOL    HW241487   0.112   2.727   2.801
79864SOL     OW41488  13.664   8.654   1.690
79864SOL    HW141489  13.677   8.701   1.607
79864SOL    HW241490  13.582   8.689   1.724
79865SOL     OW41491   4.640   7.113   3.570
79865SOL    HW141492   4.650   7.037   3.512
79865SOL    HW241493   4.717   7.166   3.552
79866SOL     OW41494  10.805   5.081  12.521
79866SOL    HW141495  10.792   5.161  12.470
79866SOL    HW241496  10.747   5.017  12.481
79867SOL     OW41497  11.178   7.369   7.392
79867SOL    HW141498  11.122   7.423   7.335
79867SOL    HW241499  11.125   7.355   7.471
79868SOL     OW41500   0.063   5.692   2.432
79868SOL    HW141501   0.145   5.642   2.438
79868SOL    HW241502   0.091   5.778   2.402
79869SOL     OW41503   9.164   8.497   8.773
79869SOL    HW141504   9.073   8.472   8.754
79869SOL    HW241505   9.216   8.424   8.738
79870SOL     OW41506   8.439   6.397  13.045
79870SOL    HW141507   8.457   6.461  13.114
79870SOL    HW241508   8.346   6.408  13.026
79871SOL     OW41509   9.699  13.450  11.387
79871SOL    HW141510   9.635  13.509  11.427
79871SOL    HW241511   9.780  13.464  11.437
79872SOL     OW41512   2.009   6.851  13.501
79872SOL    HW141513   2.080   6.801  13.541
79872SOL    HW241514   2.022   6.941  13.531
79873SOL     OW41515   2.095   2.449   5.326
79873SOL    HW141516   2.050   2.475   5.406
79873SOL    HW241517   2.132   2.530   5.292
79874SOL     OW41518   0.325   0.086   6.524
79874SOL    HW141519   0.361   0.154   6.580
79874SOL    HW241520   0.267   0.133   6.463
79875SOL     OW41521  14.295   0.510   3.011
79875SOL    HW141522  14.284   0.490   2.918
79875SOL    HW241523  14.381   0.553   3.015
79876SOL     OW41524   2.302   5.956   5.134
79876SOL    HW141525   2.234   5.972   5.200
79876SOL    HW241526   2.259   5.974   5.050
79877SOL     OW41527  14.677   7.344  12.269
79877SOL    HW141528  14.671   7.269  12.328
79877SOL    HW241529  14.744   7.320  12.205
79878SOL     OW41530   7.716  10.310  14.521
79878SOL    HW141531   7.720  10.305  14.425
79878SOL    HW241532   7.698  10.402  14.540
79879SOL     OW41533  11.239   1.891   4.541
79879SOL    HW141534  11.331   1.868   4.555
79879SOL    HW241535  11.213   1.838   4.466
79880SOL     OW41536   5.935  12.616   7.046
79880SOL    HW141537   5.849  12.647   7.019
79880SOL    HW241538   5.983  12.695   7.070
79881SOL     OW41539  12.796   7.968   6.338
79881SOL    HW141540  12.833   7.880   6.332
79881SOL    HW241541  12.732   7.972   6.267
79882SOL     OW41542   5.499  10.289   1.677
79882SOL    HW141543   5.427  10.323   1.624
79882SOL    HW241544   5.575  10.341   1.651
79883SOL     OW41545   5.000   9.669   2.556
79883SOL    HW141546   4.942   9.616   2.611
79883SOL    HW241547   4.965   9.657   2.467
79884SOL     OW41548  14.160   7.099   8.911
79884SOL    HW141549  14.086   7.141   8.866
79884SOL    HW241550  14.121   7.060   8.989
79885SOL     OW41551   0.535   8.213   6.803
79885SOL    HW141552   0.527   8.292   6.856
79885SOL    HW241553   0.446   8.178   6.798
79886SOL     OW41554  13.336   0.236   3.526
79886SOL    HW141555  13.371   0.160   3.572
79886SOL    HW241556  13.325   0.303   3.593
79887SOL     OW41557   5.611   8.457  12.325
79887SOL    HW141558   5.575   8.546  12.329
79887SOL    HW241559   5.535   8.400  12.338
79888SOL     OW41560  12.330   8.178  12.450
79888SOL    HW141561  12.308   8.265  12.483
79888SOL    HW241562  12.351   8.192  12.358
79889SOL     OW41563  10.765  14.827   9.059
79889SOL    HW141564  10.850  14.783   9.057
79889SOL    HW241565  10.706  14.763   9.099
79890SOL     OW41566   6.049  12.845   8.122
79890SOL    HW141567   6.082  12.820   8.208
79890SOL    HW241568   6.123  12.887   8.079
79891SOL     OW41569   3.209   1.763  11.488
79891SOL    HW141570   3.122   1.790  11.460
79891SOL    HW241571   3.249   1.844  11.520
79892SOL     OW41572  14.283   9.888   4.745
79892SOL    HW141573  14.196   9.849   4.751
79892SOL    HW241574  14.341   9.824   4.786
79893SOL     OW41575  10.639   7.894   2.481
79893SOL    HW141576  10.629   7.964   2.544
79893SOL    HW241577  10.697   7.929   2.414
79894SOL     OW41578  12.168   5.982   3.666
79894SOL    HW141579  12.182   5.887   3.665
79894SOL    HW241580  12.202   6.010   3.751
79895SOL     OW41581  12.219   1.858  10.445
79895SOL    HW141582  12.266   1.816  10.516
79895SOL    HW241583  12.127   1.854  10.470
79896SOL     OW41584   1.057  10.436   0.131
79896SOL    HW141585   1.030  10.375   0.200
79896SOL    HW241586   0.980  10.446   0.076
79897SOL     OW41587   6.838  13.572  11.691
79897SOL    HW141588   6.798  13.574  11.604
79897SOL    HW241589   6.764  13.568  11.752
79898SOL     OW41590   4.109  13.452   1.903
79898SOL    HW141591   4.062  13.370   1.907
79898SOL    HW241592   4.057  13.513   1.956
79899SOL     OW41593   7.307   2.789   4.240
79899SOL    HW141594   7.232   2.799   4.298
79899SOL    HW241595   7.289   2.709   4.191
79900SOL     OW41596   4.036  14.411  10.336
79900SOL    HW141597   4.071  14.369  10.257
79900SOL    HW241598   3.979  14.480  10.303
79901SOL     OW41599   9.975  12.577   2.972
79901SOL    HW141600  10.070  12.567   2.964
79901SOL    HW241601   9.943  12.488   2.990
79902SOL     OW41602   2.511  13.672   3.910
79902SOL    HW141603   2.582  13.653   3.972
79902SOL    HW241604   2.436  13.691   3.966
79903SOL     OW41605   8.037   5.730  10.757
79903SOL    HW141606   8.056   5.793  10.687
79903SOL    HW241607   8.116   5.676  10.763
79904SOL     OW41608   1.557   8.666   9.106
79904SOL    HW141609   1.625   8.701   9.048
79904SOL    HW241610   1.561   8.722   9.184
79905SOL     OW41611  12.536   6.401  14.032
79905SOL    HW141612  12.528   6.384  13.939
79905SOL    HW241613  12.613   6.351  14.059
79906SOL     OW41614   0.742  10.781   0.835
79906SOL    HW141615   0.796  10.860   0.839
79906SOL    HW241616   0.796  10.713   0.875
79907SOL     OW41617  11.325   2.582   5.762
79907SOL    HW141618  11.325   2.488   5.779
79907SOL    HW241619  11.378   2.619   5.833
79908SOL     OW41620   9.440   4.167   7.457
79908SOL    HW141621   9.348   4.153   7.478
79908SOL    HW241622   9.448   4.139   7.365
79909SOL     OW41623  13.582   3.978   5.638
79909SOL    HW141624  13.596   4.011   5.549
79909SOL    HW241625  13.645   3.906   5.647
79910SOL     OW41626   2.462  11.380  13.279
79910SOL    HW141627   2.431  11.326  13.207
79910SOL    HW241628   2.485  11.318  13.348
79911SOL     OW41629   0.251   4.552   8.815
79911SOL    HW141630   0.262   4.537   8.721
79911SOL    HW241631   0.221   4.643   8.822
79912SOL     OW41632   0.460   6.699   5.464
79912SOL    HW141633   0.499   6.751   5.534
79912SOL    HW241634   0.497   6.611   5.476
79913SOL     OW41635   8.370   5.226  12.394
79913SOL    HW141636   8.431   5.233  12.320
79913SOL    HW241637   8.300   5.170  12.361
79914SOL     OW41638   1.145  10.268   9.571
79914SOL    HW141639   1.162  10.194   9.514
79914SOL    HW241640   1.231  10.303   9.593
79915SOL     OW41641   0.438  12.886  14.124
79915SOL    HW141642   0.428  12.975  14.090
79915SOL    HW241643   0.406  12.892  14.214
79916SOL     OW41644   1.985   7.123   2.029
79916SOL    HW141645   1.940   7.128   1.944
79916SOL    HW241646   1.960   7.037   2.064
79917SOL     OW41647   0.113   5.833  11.615
79917SOL    HW141648   0.101   5.807  11.524
79917SOL    HW241649   0.027   5.864  11.643
79918SOL     OW41650   2.753   7.591   7.964
79918SOL    HW141651   2.707   7.636   8.034
79918SOL    HW241652   2.762   7.501   7.996
79919SOL     OW41653   0.575   7.742  13.297
79919SOL    HW141654   0.584   7.659  13.345
79919SOL    HW241655   0.506   7.789  13.343
79920SOL     OW41656   7.339  11.522  14.065
79920SOL    HW141657   7.384  11.558  13.989
79920SOL    HW241658   7.247  11.544  14.051
79921SOL     OW41659  12.245   7.939   4.980
79921SOL    HW141660  12.305   7.984   4.920
79921SOL    HW241661  12.183   8.007   5.007
79922SOL     OW41662   2.436   6.213   1.997
79922SOL    HW141663   2.501   6.200   2.066
79922SOL    HW241664   2.448   6.139   1.938
79923SOL     OW41665   5.480  11.666   6.239
79923SOL    HW141666   5.557  11.621   6.273
79923SOL    HW241667   5.464  11.737   6.301
79924SOL     OW41668   1.094   2.465   8.618
79924SOL    HW141669   1.183   2.431   8.628
79924SOL    HW241670   1.068   2.439   8.529
79925SOL     OW41671   9.796   9.902  11.320
79925SOL    HW141672   9.829   9.818  11.351
79925SOL    HW241673   9.873   9.959  11.316
79926SOL     OW41674   9.108   5.268  12.655
79926SOL    HW141675   9.144   5.338  12.711
79926SOL    HW241676   9.181   5.207  12.645
79927SOL     OW41677   1.674  10.304  13.192
79927SOL    HW141678   1.623  10.315  13.272
79927SOL    HW241679   1.618  10.252  13.135
79928SOL     OW41680   7.894   5.971   6.660
79928SOL    HW141681   7.852   5.958   6.745
79928SOL    HW241682   7.849   6.046   6.622
79929SOL     OW41683   1.113   2.869   7.743
79929SOL    HW141684   1.108   2.891   7.836
79929SOL    HW241685   1.045   2.803   7.730
79930SOL     OW41686  11.641   5.455   5.708
79930SOL    HW141687  11.596   5.539   5.706
79930SOL    HW241688  11.623   5.416   5.623
79931SOL     OW41689   0.355   1.119  11.129
79931SOL    HW141690   0.372   1.033  11.167
79931SOL    HW241691   0.372   1.180  11.201
79932SOL     OW41692  11.401  14.031   8.949
79932SOL    HW141693  11.444  14.113   8.971
79932SOL    HW241694  11.419  14.019   8.855
79933SOL     OW41695   1.518   6.644   3.029
79933SOL    HW141696   1.489   6.732   3.004
79933SOL    HW241697   1.486   6.633   3.118
79934SOL     OW41698   7.321   9.499   6.194
79934SOL    HW141699   7.402   9.547   6.214
79934SOL    HW241700   7.347   9.436   6.128
79935SOL     OW41701   5.678   9.629   5.925
79935SOL    HW141702   5.713   9.676   5.849
79935SOL    HW241703   5.638   9.696   5.979
79936SOL     OW41704   0.879   3.856   8.493
79936SOL    HW141705   0.785   3.868   8.476
79936SOL    HW241706   0.888   3.870   8.587
79937SOL     OW41707   3.809   4.831   4.483
79937SOL    HW141708   3.890   4.834   4.432
79937SOL    HW241709   3.769   4.917   4.470
79938SOL     OW41710   6.839   6.290   6.804
79938SOL    HW141711   6.829   6.210   6.753
79938SOL    HW241712   6.907   6.339   6.759
79939SOL     OW41713  11.518   3.303  12.483
79939SOL    HW141714  11.481   3.215  12.490
79939SOL    HW241715  11.580   3.309  12.556
79940SOL     OW41716   8.566   1.782  11.765
79940SOL    HW141717   8.523   1.739  11.839
79940SOL    HW241718   8.521   1.867  11.758
79941SOL     OW41719   7.474  10.262   5.087
79941SOL    HW141720   7.505  10.330   5.147
79941SOL    HW241721   7.386  10.291   5.062
79942SOL     OW41722  10.740   8.864   3.528
79942SOL    HW141723  10.712   8.948   3.565
79942SOL    HW241724  10.691   8.855   3.447
79943SOL     OW41725   1.658  12.623   3.202
79943SOL    HW141726   1.713  12.700   3.215
79943SOL    HW241727   1.636  12.624   3.109
79944SOL     OW41728   2.345  13.478   3.819
79944SOL    HW141729   2.431  13.437   3.807
79944SOL    HW241730   2.364  13.568   3.845
79945SOL     OW41731   1.597  10.654   4.795
79945SOL    HW141732   1.677  10.705   4.809
79945SOL    HW241733   1.562  10.640   4.883
79946SOL     OW41734   5.717   0.267   6.265
79946SOL    HW141735   5.811   0.272   6.246
79946SOL    HW241736   5.703   0.177   6.293
79947SOL     OW41737   8.151   3.563   0.204
79947SOL    HW141738   8.224   3.519   0.162
79947SOL    HW241739   8.193   3.626   0.264
79948SOL     OW41740  10.295   1.976   6.708
79948SOL    HW141741  10.386   2.007   6.706
79948SOL    HW241742  10.252   2.031   6.774
79949SOL     OW41743   5.627   3.660   7.154
79949SOL    HW141744   5.629   3.740   7.207
79949SOL    HW241745   5.550   3.613   7.185
79950SOL     OW41746   6.989   8.200   6.502
79950SOL    HW141747   6.946   8.285   6.504
79950SOL    HW241748   7.027   8.194   6.414
79951SOL     OW41749  13.032   6.730   9.074
79951SOL    HW141750  13.003   6.812   9.114
79951SOL    HW241751  13.124   6.722   9.101
79952SOL     OW41752  13.064   4.709   4.460
79952SOL    HW141753  12.980   4.678   4.494
79952SOL    HW241754  13.041   4.770   4.390
79953SOL     OW41755  11.633  12.345   4.846
79953SOL    HW141756  11.571  12.280   4.813
79953SOL    HW241757  11.578  12.413   4.885
79954SOL     OW41758   2.397  11.803   1.220
79954SOL    HW141759   2.317  11.823   1.270
79954SOL    HW241760   2.365  11.771   1.136
79955SOL     OW41761   4.642   4.968   8.792
79955SOL    HW141762   4.734   4.946   8.800
79955SOL    HW241763   4.628   4.978   8.698
79956SOL     OW41764  14.431   2.516   6.067
79956SOL    HW141765  14.505   2.546   6.119
79956SOL    HW241766  14.359   2.508   6.130
79957SOL     OW41767   6.529  13.642  12.965
79957SOL    HW141768   6.493  13.554  12.956
79957SOL    HW241769   6.525  13.659  13.059
79958SOL     OW41770   4.819   0.080   3.453
79958SOL    HW141771   4.844   0.056   3.364
79958SOL    HW241772   4.835   0.174   3.458
79959SOL     OW41773   9.368   1.532   8.572
79959SOL    HW141774   9.375   1.624   8.546
79959SOL    HW241775   9.312   1.533   8.650
79960SOL     OW41776   0.401  12.476  10.026
79960SOL    HW141777   0.441  12.559  10.052
79960SOL    HW241778   0.313  12.479  10.064
79961SOL     OW41779   0.119   1.851   8.221
79961SOL    HW141780   0.199   1.798   8.219
79961SOL    HW241781   0.062   1.813   8.155
79962SOL     OW41782   2.651  11.749   2.093
79962SOL    HW141783   2.705  11.695   2.035
79962SOL    HW241784   2.640  11.697   2.172
79963SOL     OW41785  10.398   4.573   3.327
79963SOL    HW141786  10.348   4.637   3.275
79963SOL    HW241787  10.351   4.570   3.411
79964SOL     OW41788   6.030   1.871   3.107
79964SOL    HW141789   5.974   1.923   3.165
79964SOL    HW241790   6.114   1.868   3.152
79965SOL     OW41791  14.713  12.635  10.914
79965SOL    HW141792  14.645  12.598  10.858
79965SOL    HW241793  14.795  12.604  10.874
79966SOL     OW41794   6.412   0.694   9.368
79966SOL    HW141795   6.318   0.712   9.362
79966SOL    HW241796   6.426   0.668   9.459
79967SOL     OW41797   9.930   2.745  11.210
79967SOL    HW141798   9.908   2.770  11.121
79967SOL    HW241799  10.014   2.700  11.202
79968SOL     OW41800   3.582  11.436  12.703
79968SOL    HW141801   3.595  11.469  12.614
79968SOL    HW241802   3.501  11.385  12.698
79969SOL     OW41803   6.189   6.907  10.129
79969SOL    HW141804   6.257   6.950  10.078
79969SOL    HW241805   6.113   6.904  10.071
79970SOL     OW41806  11.106   8.033  13.782
79970SOL    HW141807  11.153   8.094  13.724
79970SOL    HW241808  11.174   8.003  13.843
79971SOL     OW41809  11.620   4.780  14.160
79971SOL    HW141810  11.617   4.696  14.206
79971SOL    HW241811  11.531   4.792  14.127
79972SOL     OW41812   6.751  13.743   8.773
79972SOL    HW141813   6.768  13.821   8.825
79972SOL    HW241814   6.673  13.764   8.722
79973SOL     OW41815   8.956   2.854   2.203
79973SOL    HW141816   8.963   2.823   2.293
79973SOL    HW241817   9.038   2.900   2.186
79974SOL     OW41818   4.958  13.811   0.615
79974SOL    HW141819   5.050  13.785   0.619
79974SOL    HW241820   4.910  13.729   0.604
79975SOL     OW41821   4.213   6.314   1.127
79975SOL    HW141822   4.229   6.386   1.189
79975SOL    HW241823   4.265   6.336   1.050
79976SOL     OW41824   0.487   6.771   9.893
79976SOL    HW141825   0.401   6.795   9.927
79976SOL    HW241826   0.510   6.843   9.834
79977SOL     OW41827  13.153   2.052  14.527
79977SOL    HW141828  13.195   2.133  14.498
79977SOL    HW241829  13.069   2.050  14.481
79978SOL     OW41830  13.603  13.647  13.681
79978SOL    HW141831  13.600  13.619  13.589
79978SOL    HW241832  13.692  13.681  13.693
79979SOL     OW41833   6.198   1.877  12.912
79979SOL    HW141834   6.180   1.927  12.832
79979SOL    HW241835   6.139   1.802  12.907
79980SOL     OW41836   6.596  13.390   7.202
79980SOL    HW141837   6.575  13.472   7.156
79980SOL    HW241838   6.583  13.322   7.136
79981SOL     OW41839  14.856   7.565  11.009
79981SOL    HW141840  14.814   7.639  10.966
79981SOL    HW241841  14.785   7.521  11.056
79982SOL     OW41842  12.165   6.025  10.988
79982SOL    HW141843  12.175   5.996  11.078
79982SOL    HW241844  12.236   5.982  10.940
79983SOL     OW41845   7.195   0.964   6.234
79983SOL    HW141846   7.219   0.985   6.324
79983SOL    HW241847   7.233   1.035   6.182
79984SOL     OW41848  14.575   0.748   4.660
79984SOL    HW141849  14.503   0.781   4.713
79984SOL    HW241850  14.536   0.729   4.575
79985SOL     OW41851  11.213   9.082   9.095
79985SOL    HW141852  11.151   9.149   9.124
79985SOL    HW241853  11.212   9.016   9.164
79986SOL     OW41854  12.064   6.717  12.520
79986SOL    HW141855  12.022   6.651  12.575
79986SOL    HW241856  12.015   6.716  12.438
79987SOL     OW41857   5.224   2.294  10.956
79987SOL    HW141858   5.253   2.256  10.873
79987SOL    HW241859   5.302   2.339  10.990
79988SOL     OW41860  12.523  13.168  14.471
79988SOL    HW141861  12.442  13.132  14.436
79988SOL    HW241862  12.510  13.169  14.566
79989SOL     OW41863   7.665  13.224   2.136
79989SOL    HW141864   7.640  13.174   2.213
79989SOL    HW241865   7.582  13.251   2.096
79990SOL     OW41866  12.680   2.775  10.893
79990SOL    HW141867  12.603   2.722  10.916
79990SOL    HW241868  12.646   2.841  10.833
79991SOL     OW41869  11.206   9.170   5.241
79991SOL    HW141870  11.188   9.175   5.335
79991SOL    HW241871  11.120   9.176   5.200
79992SOL     OW41872  11.090   5.390   4.262
79992SOL    HW141873  11.073   5.325   4.193
79992SOL    HW241874  11.167   5.437   4.231
79993SOL     OW41875   1.851   0.228   1.373
79993SOL    HW141876   1.931   0.245   1.423
79993SOL    HW241877   1.836   0.134   1.382
79994SOL     OW41878  11.913   7.851   6.494
79994SOL    HW141879  11.836   7.902   6.521
79994SOL    HW241880  11.967   7.913   6.446
79995SOL     OW41881   3.980  12.477  12.850
79995SOL    HW141882   3.991  12.448  12.941
79995SOL    HW241883   3.903  12.430  12.819
79996SOL     OW41884   1.816   3.441   2.404
79996SOL    HW141885   1.889   3.380   2.412
79996SOL    HW241886   1.738   3.388   2.420
79997SOL     OW41887   9.492  12.161   9.699
79997SOL    HW141888   9.403  12.128   9.684
79997SOL    HW241889   9.495  12.243   9.649
79998SOL     OW41890   6.047  10.757  10.208
79998SOL    HW141891   6.107  10.820  10.168
79998SOL    HW241892   5.972  10.809  10.235
79999SOL     OW41893   6.197   9.160   9.867
79999SOL    HW141894   6.137   9.200   9.930
79999SOL    HW241895   6.149   9.162   9.784
80000SOL     OW41896   2.094   2.928   5.120
80000SOL    HW141897   2.008   2.965   5.142
80000SOL    HW241898   2.156   2.976   5.175
80001SOL     OW41899  14.337  12.020  11.208
80001SOL    HW141900  14.314  12.112  11.197
80001SOL    HW241901  14.411  12.006  11.150
80002SOL     OW41902  12.271   6.258  13.116
80002SOL    HW141903  12.262   6.351  13.138
80002SOL    HW241904  12.185   6.232  13.084
80003SOL     OW41905  11.603   5.855  13.978
80003SOL    HW141906  11.683   5.848  14.030
80003SOL    HW241907  11.554   5.775  13.998
80004SOL     OW41908  10.736  12.802   7.196
80004SOL    HW141909  10.661  12.781   7.252
80004SOL    HW241910  10.771  12.883   7.231
80005SOL     OW41911  14.353  12.961  13.960
80005SOL    HW141912  14.309  12.946  13.876
80005SOL    HW241913  14.446  12.948  13.941
80006SOL     OW41914  13.264   4.160   4.386
80006SOL    HW141915  13.190   4.104   4.407
80006SOL    HW241916  13.251   4.183   4.294
80007SOL     OW41917  11.339   2.089   3.223
80007SOL    HW141918  11.408   2.086   3.289
80007SOL    HW241919  11.308   1.998   3.217
80008SOL     OW41920   8.552   8.475  11.352
80008SOL    HW141921   8.584   8.389  11.327
80008SOL    HW241922   8.465   8.480  11.311
80009SOL     OW41923   1.863  10.366   7.781
80009SOL    HW141924   1.931  10.391   7.718
80009SOL    HW241925   1.804  10.442   7.785
80010SOL     OW41926   0.336   7.265  13.215
80010SOL    HW141927   0.381   7.257  13.299
80010SOL    HW241928   0.255   7.312  13.236
80011SOL     OW41929  12.649   0.930   8.818
80011SOL    HW141930  12.627   0.877   8.895
80011SOL    HW241931  12.583   0.907   8.753
80012SOL     OW41932   3.078   2.303   8.679
80012SOL    HW141933   3.098   2.233   8.616
80012SOL    HW241934   3.130   2.377   8.650
80013SOL     OW41935   6.451   3.387  14.256
80013SOL    HW141936   6.389   3.399  14.329
80013SOL    HW241937   6.407   3.427  14.181
80014SOL     OW41938  10.629  12.314   6.272
80014SOL    HW141939  10.690  12.361   6.329
80014SOL    HW241940  10.670  12.228   6.259
80015SOL     OW41941   9.294  11.166   4.510
80015SOL    HW141942   9.291  11.120   4.426
80015SOL    HW241943   9.384  11.197   4.517
80016SOL     OW41944  11.506   0.442  14.614
80016SOL    HW141945  11.498   0.374  14.681
80016SOL    HW241946  11.584   0.417  14.565
80017SOL     OW41947   1.350   7.208  12.216
80017SOL    HW141948   1.311   7.148  12.278
80017SOL    HW241949   1.382   7.281  12.269
80018SOL     OW41950   1.080   5.596  11.984
80018SOL    HW141951   0.991   5.622  11.964
80018SOL    HW241952   1.084   5.503  11.961
80019SOL     OW41953   0.091  11.974   8.978
80019SOL    HW141954   0.006  11.943   8.947
80019SOL    HW241955   0.150  11.961   8.904
80020SOL     OW41956  12.525   1.645   3.475
80020SOL    HW141957  12.460   1.638   3.405
80020SOL    HW241958  12.477   1.619   3.554
80021SOL     OW41959  14.699   0.956   0.811
80021SOL    HW141960  14.710   0.947   0.717
80021SOL    HW241961  14.626   1.018   0.820
80022SOL     OW41962   4.198   0.159  14.435
80022SOL    HW141963   4.211   0.161  14.340
80022SOL    HW241964   4.173   0.068  14.453
80023SOL     OW41965   5.158   3.915  11.261
80023SOL    HW141966   5.231   3.958  11.215
80023SOL    HW241967   5.200   3.861  11.328
80024SOL     OW41968   6.567  11.517   9.989
80024SOL    HW141969   6.506  11.512  10.062
80024SOL    HW241970   6.569  11.429   9.953
80025SOL     OW41971   9.360   9.018   1.016
80025SOL    HW141972   9.414   8.961   1.070
80025SOL    HW241973   9.386   9.107   1.041
80026SOL     OW41974   6.221  10.083   3.484
80026SOL    HW141975   6.149  10.099   3.544
80026SOL    HW241976   6.262  10.169   3.472
80027SOL     OW41977   5.804  13.917  13.435
80027SOL    HW141978   5.759  13.925  13.351
80027SOL    HW241979   5.866  13.844  13.422
80028SOL     OW41980  13.975   3.603   8.768
80028SOL    HW141981  13.964   3.635   8.679
80028SOL    HW241982  13.944   3.674   8.824
80029SOL     OW41983   9.222   5.530  11.305
80029SOL    HW141984   9.277   5.539  11.227
80029SOL    HW241985   9.264   5.460  11.356
80030SOL     OW41986  13.922   1.444   7.922
80030SOL    HW141987  13.939   1.534   7.947
80030SOL    HW241988  14.005   1.399   7.939
80031SOL     OW41989  13.772   3.272  14.229
80031SOL    HW141990  13.859   3.261  14.267
80031SOL    HW241991  13.712   3.243  14.298
80032SOL     OW41992  10.398  13.802  13.249
80032SOL    HW141993  10.371  13.711  13.233
80032SOL    HW241994  10.452  13.825  13.173
80033SOL     OW41995  13.991   8.433   9.914
80033SOL    HW141996  14.063   8.407   9.856
80033SOL    HW241997  13.914   8.389   9.877
80034SOL     OW41998   9.630   4.196   2.236
80034SOL    HW141999   9.540   4.226   2.236
80034SOL    HW242000   9.678   4.263   2.186
80035SOL     OW42001  11.037   2.349   0.936
80035SOL    HW142002  11.068   2.382   1.020
80035SOL    HW242003  10.955   2.396   0.921
80036SOL     OW42004   4.325   8.266  12.194
80036SOL    HW142005   4.397   8.326  12.175
80036SOL    HW242006   4.330   8.201  12.125
80037SOL     OW42007   7.456   8.714   5.053
80037SOL    HW142008   7.461   8.798   5.098
80037SOL    HW242009   7.362   8.703   5.033
80038SOL     OW42010  10.733   1.890  13.214
80038SOL    HW142011  10.792   1.965  13.216
80038SOL    HW242012  10.783   1.818  13.253
80039SOL     OW42013  12.738  13.699   5.845
80039SOL    HW142014  12.712  13.686   5.937
80039SOL    HW242015  12.753  13.610   5.812
80040SOL     OW42016   5.182   5.065   9.309
80040SOL    HW142017   5.209   5.009   9.236
80040SOL    HW242018   5.253   5.129   9.317
80041SOL     OW42019   5.996  10.820   8.343
80041SOL    HW142020   5.940  10.872   8.285
80041SOL    HW242021   6.012  10.876   8.419
80042SOL     OW42022   3.766   2.113   2.551
80042SOL    HW142023   3.835   2.051   2.531
80042SOL    HW242024   3.702   2.063   2.602
80043SOL     OW42025   4.182   5.221   8.164
80043SOL    HW142026   4.277   5.222   8.150
80043SOL    HW242027   4.169   5.274   8.243
80044SOL     OW42028   0.055   7.417  13.842
80044SOL    HW142029   0.069   7.360  13.918
80044SOL    HW242030   0.030   7.502  13.880
80045SOL     OW42031   6.380  12.769  10.161
80045SOL    HW142032   6.292  12.744  10.189
80045SOL    HW242033   6.400  12.709  10.089
80046SOL     OW42034  14.809   4.378  14.533
80046SOL    HW142035  14.741   4.368  14.467
80046SOL    HW242036  14.762   4.399  14.613
80047SOL     OW42037  14.686  14.267   0.089
80047SOL    HW142038  14.640  14.284   0.007
80047SOL    HW242039  14.758  14.330   0.090
80048SOL     OW42040   6.800   3.406  11.939
80048SOL    HW142041   6.729   3.463  11.908
80048SOL    HW242042   6.872   3.422  11.878
80049SOL     OW42043   2.706   7.800   4.401
80049SOL    HW142044   2.714   7.848   4.319
80049SOL    HW242045   2.655   7.723   4.379
80050SOL     OW42046  11.929   7.113   2.066
80050SOL    HW142047  11.947   7.105   1.973
80050SOL    HW242048  11.974   7.038   2.106
80051SOL     OW42049   0.928   9.319  13.798
80051SOL    HW142050   1.001   9.380  13.793
80051SOL    HW242051   0.966   9.240  13.837
80052SOL     OW42052   1.475   3.392  14.689
80052SOL    HW142053   1.528   3.316  14.666
80052SOL    HW242054   1.531   3.467  14.667
80053SOL     OW42055  11.439   5.754   4.523
80053SOL    HW142056  11.516   5.716   4.567
80053SOL    HW242057  11.413   5.826   4.581
80054SOL     OW42058   3.719   9.272  14.282
80054SOL    HW142059   3.627   9.247  14.277
80054SOL    HW242060   3.758   9.209  14.342
80055SOL     OW42061   0.404   8.399   6.970
80055SOL    HW142062   0.338   8.332   6.950
80055SOL    HW242063   0.393   8.415   7.064
80056SOL     OW42064  12.429   9.046   2.093
80056SOL    HW142065  12.336   9.035   2.070
80056SOL    HW242066  12.431   9.121   2.152
80057SOL     OW42067   6.414  12.085   5.408
80057SOL    HW142068   6.339  12.142   5.425
80057SOL    HW242069   6.377  11.997   5.400
80058SOL     OW42070   0.553  10.335   4.182
80058SOL    HW142071   0.491  10.277   4.137
80058SOL    HW242072   0.604  10.375   4.111
80059SOL     OW42073  10.165  10.298   1.724
80059SOL    HW142074  10.133  10.334   1.807
80059SOL    HW242075  10.094  10.314   1.662
80060SOL     OW42076   4.890   8.732  12.820
80060SOL    HW142077   4.854   8.807  12.867
80060SOL    HW242078   4.926   8.769  12.740
80061SOL     OW42079   1.828   2.642   2.774
80061SOL    HW142080   1.755   2.700   2.754
80061SOL    HW242081   1.893   2.661   2.707
80062SOL     OW42082  12.749   8.727   6.522
80062SOL    HW142083  12.837   8.741   6.557
80062SOL    HW242084  12.698   8.799   6.558
80063SOL     OW42085   7.381  10.543  11.639
80063SOL    HW142086   7.331  10.528  11.559
80063SOL    HW242087   7.331  10.497  11.707
80064SOL     OW42088   1.543   3.812   8.560
80064SOL    HW142089   1.525   3.821   8.654
80064SOL    HW242090   1.637   3.822   8.552
80065SOL     OW42091   3.172   0.836   8.829
80065SOL    HW142092   3.193   0.905   8.766
80065SOL    HW242093   3.196   0.755   8.785
80066SOL     OW42094  14.658   2.324  11.951
80066SOL    HW142095  14.720   2.291  12.015
80066SOL    HW242096  14.604   2.248  11.927
80067SOL     OW42097   9.002   2.392   3.232
80067SOL    HW142098   8.928   2.452   3.224
80067SOL    HW242099   9.009   2.374   3.326
80068SOL     OW42100  10.202  10.014  13.699
80068SOL    HW142101  10.263  10.087  13.694
80068SOL    HW242102  10.219   9.973  13.784
80069SOL     OW42103  11.740  10.030  11.056
80069SOL    HW142104  11.697   9.948  11.033
80069SOL    HW242105  11.789  10.010  11.136
80070SOL     OW42106   5.046  10.783  14.343
80070SOL    HW142107   5.136  10.800  14.372
80070SOL    HW242108   5.034  10.689  14.354
80071SOL     OW42109   9.060   7.849   4.329
80071SOL    HW142110   9.014   7.818   4.407
80071SOL    HW242111   9.095   7.769   4.289
80072SOL     OW42112  10.672   2.994  11.061
80072SOL    HW142113  10.606   2.975  10.993
80072SOL    HW242114  10.742   3.039  11.014
80073SOL     OW42115   5.905  14.106   8.671
80073SOL    HW142116   5.888  14.199   8.686
80073SOL    HW242117   5.971  14.083   8.736
80074SOL     OW42118  13.686   4.537  13.808
80074SOL    HW142119  13.688   4.468  13.742
80074SOL    HW242120  13.606   4.586  13.790
80075SOL     OW42121   8.886  13.484   0.644
80075SOL    HW142122   8.855  13.565   0.603
80075SOL    HW242123   8.979  13.500   0.659
80076SOL     OW42124   4.255   7.681   4.465
80076SOL    HW142125   4.189   7.643   4.407
80076SOL    HW242126   4.253   7.775   4.446
80077SOL     OW42127  10.836   8.436   4.481
80077SOL    HW142128  10.929   8.418   4.489
80077SOL    HW242129  10.828   8.483   4.398
80078SOL     OW42130  12.195  11.570   3.286
80078SOL    HW142131  12.112  11.550   3.329
80078SOL    HW242132  12.231  11.484   3.263
80079SOL     OW42133   3.420  10.494   1.198
80079SOL    HW142134   3.341  10.500   1.144
80079SOL    HW242135   3.451  10.584   1.205
80080SOL     OW42136   4.592  13.340   1.827
80080SOL    HW142137   4.639  13.343   1.743
80080SOL    HW242138   4.628  13.263   1.871
80081SOL     OW42139   0.715  13.679  10.394
80081SOL    HW142140   0.689  13.761  10.435
80081SOL    HW242141   0.633  13.638  10.368
80082SOL     OW42142   7.863  12.605   7.025
80082SOL    HW142143   7.886  12.527   6.976
80082SOL    HW242144   7.804  12.654   6.967
80083SOL     OW42145  11.826   4.346   7.124
80083SOL    HW142146  11.735   4.327   7.105
80083SOL    HW242147  11.872   4.327   7.041
80084SOL     OW42148   5.085   1.521   9.730
80084SOL    HW142149   5.139   1.594   9.699
80084SOL    HW242150   5.134   1.442   9.704
80085SOL     OW42151   8.156  10.949   6.131
80085SOL    HW142152   8.063  10.928   6.144
80085SOL    HW242153   8.159  11.045   6.134
80086SOL     OW42154  11.644   5.288   1.168
80086SOL    HW142155  11.725   5.239   1.166
80086SOL    HW242156  11.579   5.230   1.129
80087SOL     OW42157   9.272   6.992   9.103
80087SOL    HW142158   9.231   6.983   9.017
80087SOL    HW242159   9.256   6.908   9.147
80088SOL     OW42160   3.983   1.172   6.196
80088SOL    HW142161   3.953   1.083   6.211
80088SOL    HW242162   4.016   1.201   6.281
80089SOL     OW42163   7.603  11.681  12.241
80089SOL    HW142164   7.537  11.612  12.232
80089SOL    HW242165   7.555  11.762  12.224
80090SOL     OW42166   0.742   8.713   5.349
80090SOL    HW142167   0.770   8.676   5.265
80090SOL    HW242168   0.678   8.780   5.325
80091SOL     OW42169   7.533   7.201  13.747
80091SOL    HW142170   7.589   7.275  13.769
80091SOL    HW242171   7.552   7.183  13.655
80092SOL     OW42172   6.053   6.470   9.817
80092SOL    HW142173   5.987   6.444   9.753
80092SOL    HW242174   6.023   6.555   9.849
80093SOL     OW42175   5.437   8.234  12.410
80093SOL    HW142176   5.391   8.198  12.486
80093SOL    HW242177   5.485   8.160  12.373
80094SOL     OW42178   2.414  12.731   0.302
80094SOL    HW142179   2.443  12.768   0.385
80094SOL    HW242180   2.347  12.667   0.326
80095SOL     OW42181   7.577   7.965   0.377
80095SOL    HW142182   7.614   7.914   0.449
80095SOL    HW242183   7.594   7.912   0.299
80096SOL     OW42184   7.707   9.108   3.776
80096SOL    HW142185   7.670   9.023   3.802
80096SOL    HW242186   7.729   9.150   3.859
80097SOL     OW42187   3.232   6.427  13.062
80097SOL    HW142188   3.233   6.422  12.967
80097SOL    HW242189   3.172   6.357  13.089
80098SOL     OW42190  12.601   6.844  10.227
80098SOL    HW142191  12.507   6.850  10.214
80098SOL    HW242192  12.629   6.772  10.171
80099SOL     OW42193   5.725   6.237  11.715
80099SOL    HW142194   5.784   6.205  11.648
80099SOL    HW242195   5.653   6.278  11.666
80100SOL     OW42196   1.957  13.861  11.731
80100SOL    HW142197   1.902  13.791  11.695
80100SOL    HW242198   2.046  13.829  11.720
80101SOL     OW42199   3.508  14.602   4.398
80101SOL    HW142200   3.581  14.664   4.399
80101SOL    HW242201   3.461  14.619   4.480
80102SOL     OW42202   0.438   0.239   6.820
80102SOL    HW142203   0.502   0.269   6.754
80102SOL    HW242204   0.413   0.319   6.867
80103SOL     OW42205   0.602   4.168   5.316
80103SOL    HW142206   0.606   4.087   5.366
80103SOL    HW242207   0.509   4.181   5.299
80104SOL     OW42208   5.897   0.885   3.534
80104SOL    HW142209   5.839   0.906   3.460
80104SOL    HW242210   5.839   0.888   3.611
80105SOL     OW42211  10.466  14.117   5.137
80105SOL    HW142212  10.481  14.047   5.073
80105SOL    HW242213  10.534  14.182   5.117
80106SOL     OW42214  10.313   7.968   0.941
80106SOL    HW142215  10.385   7.913   0.911
80106SOL    HW242216  10.260   7.984   0.863
80107SOL     OW42217   4.466   3.990  11.580
80107SOL    HW142218   4.413   3.945  11.514
80107SOL    HW242219   4.478   3.924  11.649
80108SOL     OW42220   2.446   7.593   1.342
80108SOL    HW142221   2.469   7.680   1.375
80108SOL    HW242222   2.392   7.555   1.411
80109SOL     OW42223   3.434   3.075  12.516
80109SOL    HW142224   3.397   3.139  12.456
80109SOL    HW242225   3.397   2.991  12.488
80110SOL     OW42226   3.285  14.361   1.680
80110SOL    HW142227   3.279  14.280   1.731
80110SOL    HW242228   3.341  14.338   1.606
80111SOL     OW42229   0.269   4.773   0.541
80111SOL    HW142230   0.259   4.868   0.541
80111SOL    HW242231   0.199   4.742   0.598
80112SOL     OW42232   1.111  11.168   0.581
80112SOL    HW142233   1.137  11.236   0.643
80112SOL    HW242234   1.056  11.214   0.517
80113SOL     OW42235   0.876   4.522   2.092
80113SOL    HW142236   0.891   4.459   2.162
80113SOL    HW242237   0.874   4.469   2.012
80114SOL     OW42238   8.025  11.113   8.488
80114SOL    HW142239   8.043  11.126   8.581
80114SOL    HW242240   7.954  11.049   8.485
80115SOL     OW42241   0.347  10.004   8.224
80115SOL    HW142242   0.317  10.046   8.305
80115SOL    HW242243   0.268   9.991   8.173
80116SOL     OW42244  10.455   0.694  11.755
80116SOL    HW142245  10.385   0.663  11.812
80116SOL    HW242246  10.426   0.781  11.727
80117SOL     OW42247  13.583  13.651   4.000
80117SOL    HW142248  13.545  13.604   3.926
80117SOL    HW242249  13.647  13.711   3.960
80118SOL     OW42250   4.212   4.519   7.154
80118SOL    HW142251   4.251   4.510   7.241
80118SOL    HW242252   4.266   4.463   7.098
80119SOL     OW42253   1.789  13.190  11.242
80119SOL    HW142254   1.790  13.285  11.235
80119SOL    HW242255   1.791  13.172  11.336
80120SOL     OW42256   6.470  11.124   5.789
80120SOL    HW142257   6.455  11.087   5.702
80120SOL    HW242258   6.474  11.218   5.774
80121SOL     OW42259  12.069   5.990  14.053
80121SOL    HW142260  12.023   6.061  14.097
80121SOL    HW242261  12.058   6.009  13.960
80122SOL     OW42262   4.421   1.643   7.744
80122SOL    HW142263   4.403   1.732   7.712
80122SOL    HW242264   4.496   1.614   7.693
80123SOL     OW42265  11.790   7.564   2.509
80123SOL    HW142266  11.864   7.534   2.562
80123SOL    HW242267  11.759   7.485   2.466
80124SOL     OW42268  10.181   5.033   4.605
80124SOL    HW142269  10.166   4.954   4.553
80124SOL    HW242270  10.268   5.063   4.580
80125SOL     OW42271   8.937  13.066   7.626
80125SOL    HW142272   8.992  13.063   7.704
80125SOL    HW242273   8.869  13.130   7.648
80126SOL     OW42274   5.655   8.690   0.624
80126SOL    HW142275   5.652   8.786   0.633
80126SOL    HW242276   5.676   8.675   0.532
80127SOL     OW42277   1.075  14.865  14.479
80127SOL    HW142278   1.006  14.802  14.497
80127SOL    HW242279   1.049   0.038  14.397
80128SOL     OW42280   3.886  12.542   6.803
80128SOL    HW142281   3.907  12.548   6.710
80128SOL    HW242282   3.792  12.524   6.806
80129SOL     OW42283   2.399   0.824  10.656
80129SOL    HW142284   2.416   0.918  10.647
80129SOL    HW242285   2.314   0.819  10.701
80130SOL     OW42286   2.948  10.709   8.851
80130SOL    HW142287   3.013  10.724   8.920
80130SOL    HW242288   2.871  10.674   8.897
80131SOL     OW42289   2.927   0.924  11.278
80131SOL    HW142290   2.854   0.889  11.226
80131SOL    HW242291   2.983   0.848  11.295
80132SOL     OW42292   5.171  11.601   1.002
80132SOL    HW142293   5.188  11.519   0.955
80132SOL    HW242294   5.093  11.637   0.960
80133SOL     OW42295   5.331   2.071   0.559
80133SOL    HW142296   5.373   2.155   0.539
80133SOL    HW242297   5.247   2.095   0.599
80134SOL     OW42298   5.039   1.927   3.293
80134SOL    HW142299   5.124   1.911   3.333
80134SOL    HW242300   5.055   1.930   3.199
80135SOL     OW42301   9.065  12.150  13.010
80135SOL    HW142302   9.085  12.178  12.920
80135SOL    HW242303   9.147  12.113  13.042
80136SOL     OW42304   7.322   2.474   3.395
80136SOL    HW142305   7.408   2.446   3.426
80136SOL    HW242306   7.336   2.496   3.303
80137SOL     OW42307   3.901  14.488   5.071
80137SOL    HW142308   3.832  14.538   5.026
80137SOL    HW242309   3.860  14.404   5.091
80138SOL     OW42310   2.098   7.520  12.985
80138SOL    HW142311   2.170   7.552  12.931
80138SOL    HW242312   2.132   7.440  13.025
80139SOL     OW42313   6.731   9.969   2.118
80139SOL    HW142314   6.774   9.952   2.202
80139SOL    HW242315   6.768   9.904   2.058
80140SOL     OW42316   5.506   1.611  13.912
80140SOL    HW142317   5.489   1.532  13.861
80140SOL    HW242318   5.517   1.680  13.847
80141SOL     OW42319  11.161   6.604  12.938
80141SOL    HW142320  11.207   6.520  12.936
80141SOL    HW242321  11.130   6.617  12.848
80142SOL     OW42322  10.486   2.182   9.509
80142SOL    HW142323  10.540   2.246   9.462
80142SOL    HW242324  10.535   2.100   9.502
80143SOL     OW42325   6.325   3.544   4.580
80143SOL    HW142326   6.308   3.563   4.672
80143SOL    HW242327   6.274   3.609   4.532
80144SOL     OW42328  11.131  14.671  11.236
80144SOL    HW142329  11.146  14.685  11.330
80144SOL    HW242330  11.104  14.756  11.203
80145SOL     OW42331   8.821   8.267   7.971
80145SOL    HW142332   8.812   8.334   8.038
80145SOL    HW242333   8.881   8.203   8.009
80146SOL     OW42334   2.225   4.281  10.174
80146SOL    HW142335   2.131   4.283  10.190
80146SOL    HW242336   2.251   4.191  10.195
80147SOL     OW42337  13.667  14.258   9.672
80147SOL    HW142338  13.725  14.280   9.598
80147SOL    HW242339  13.705  14.305   9.746
80148SOL     OW42340   3.146   6.802   8.379
80148SOL    HW142341   3.169   6.782   8.470
80148SOL    HW242342   3.164   6.721   8.331
80149SOL     OW42343   4.401   0.174   8.352
80149SOL    HW142344   4.382   0.092   8.306
80149SOL    HW242345   4.491   0.196   8.325
80150SOL     OW42346  11.027   3.626  11.759
80150SOL    HW142347  11.065   3.540  11.742
80150SOL    HW242348  11.041   3.675  11.678
80151SOL     OW42349  14.389  10.494   3.232
80151SOL    HW142350  14.408  10.588   3.237
80151SOL    HW242351  14.473  10.454   3.209
80152SOL     OW42352  13.903   2.036  11.001
80152SOL    HW142353  13.909   2.006  10.910
80152SOL    HW242354  13.897   1.955  11.052
80153SOL     OW42355   0.033   1.413   9.603
80153SOL    HW142356   0.031   1.325   9.564
80153SOL    HW242357  14.821   1.454   9.575
80154SOL     OW42358   7.882   5.919   6.272
80154SOL    HW142359   7.962   5.922   6.324
80154SOL    HW242360   7.880   5.830   6.236
80155SOL     OW42361   8.137   5.674   9.963
80155SOL    HW142362   8.049   5.712   9.971
80155SOL    HW242363   8.168   5.668  10.053
80156SOL     OW42364   3.875   3.385  12.764
80156SOL    HW142365   3.963   3.410  12.792
80156SOL    HW242366   3.840   3.463  12.721
80157SOL     OW42367   7.677   6.858   8.332
80157SOL    HW142368   7.690   6.821   8.244
80157SOL    HW242369   7.653   6.950   8.316
80158SOL     OW42370   4.846  11.103   5.869
80158SOL    HW142371   4.850  11.092   5.774
80158SOL    HW242372   4.764  11.150   5.884
80159SOL     OW42373   8.333  14.446   6.399
80159SOL    HW142374   8.281  14.427   6.477
80159SOL    HW242375   8.423  14.425   6.424
80160SOL     OW42376  10.984   2.338  12.165
80160SOL    HW142377  10.988   2.419  12.216
80160SOL    HW242378  10.920   2.355  12.096
80161SOL     OW42379   1.189  11.655   9.695
80161SOL    HW142380   1.236  11.583   9.735
80161SOL    HW242381   1.103  11.655   9.737
80162SOL     OW42382   3.861  12.310  14.233
80162SOL    HW142383   3.946  12.272  14.209
80162SOL    HW242384   3.797  12.256  14.186
80163SOL     OW42385  14.029   7.198   8.072
80163SOL    HW142386  14.022   7.130   8.140
80163SOL    HW242387  14.067   7.153   7.997
80164SOL     OW42388   7.329   9.695  12.612
80164SOL    HW142389   7.309   9.785  12.637
80164SOL    HW242390   7.350   9.651  12.694
80165SOL     OW42391  12.206   5.562   4.962
80165SOL    HW142392  12.190   5.480   4.914
80165SOL    HW242393  12.147   5.557   5.037
80166SOL     OW42394  11.950   7.818   4.103
80166SOL    HW142395  11.884   7.886   4.117
80166SOL    HW242396  11.994   7.843   4.023
80167SOL     OW42397   0.589   5.652   0.518
80167SOL    HW142398   0.658   5.654   0.584
80167SOL    HW242399   0.508   5.665   0.567
80168SOL     OW42400   8.861   2.245  12.840
80168SOL    HW142401   8.890   2.188  12.769
80168SOL    HW242402   8.941   2.263  12.890
80169SOL     OW42403  14.144   5.376  10.710
80169SOL    HW142404  14.222   5.321  10.703
80169SOL    HW242405  14.124   5.402  10.620
80170SOL     OW42406   2.228   9.581   9.173
80170SOL    HW142407   2.176   9.621   9.103
80170SOL    HW242408   2.203   9.489   9.172
80171SOL     OW42409  10.246   6.896  11.329
80171SOL    HW142410  10.196   6.966  11.372
80171SOL    HW242411  10.318   6.877  11.389
80172SOL     OW42412   1.882   6.601   8.695
80172SOL    HW142413   1.910   6.546   8.768
80172SOL    HW242414   1.963   6.620   8.647
80173SOL     OW42415   7.693  13.076   0.471
80173SOL    HW142416   7.693  12.994   0.422
80173SOL    HW242417   7.603  13.083   0.505
80174SOL     OW42418   4.505   9.359   9.336
80174SOL    HW142419   4.471   9.386   9.251
80174SOL    HW242420   4.450   9.406   9.400
80175SOL     OW42421   8.999  14.088   1.371
80175SOL    HW142422   8.926  14.149   1.374
80175SOL    HW242423   9.067  14.134   1.321
80176SOL     OW42424  11.193   1.873   3.820
80176SOL    HW142425  11.125   1.810   3.797
80176SOL    HW242426  11.154   1.958   3.798
80177SOL     OW42427   3.421   8.398  12.581
80177SOL    HW142428   3.500   8.354  12.612
80177SOL    HW242429   3.451   8.450  12.506
80178SOL     OW42430   2.791   5.231  12.643
80178SOL    HW142431   2.782   5.171  12.568
80178SOL    HW242432   2.705   5.229  12.686
80179SOL     OW42433   1.840   1.210  12.172
80179SOL    HW142434   1.839   1.286  12.230
80179SOL    HW242435   1.829   1.135  12.231
80180SOL     OW42436  14.358   8.875   1.245
80180SOL    HW142437  14.282   8.927   1.219
80180SOL    HW242438  14.335   8.786   1.220
80181SOL     OW42439   8.138   7.492   9.532
80181SOL    HW142440   8.180   7.468   9.614
80181SOL    HW242441   8.047   7.511   9.556
80182SOL     OW42442   8.093   3.288  13.041
80182SOL    HW142443   8.032   3.238  13.095
80182SOL    HW242444   8.151   3.332  13.104
80183SOL     OW42445   6.022  14.168   4.515
80183SOL    HW142446   5.992  14.246   4.468
80183SOL    HW242447   5.942  14.131   4.553
80184SOL     OW42448   1.470   6.793   2.193
80184SOL    HW142449   1.392   6.842   2.218
80184SOL    HW242450   1.539   6.860   2.188
80185SOL     OW42451   3.565   3.289   4.042
80185SOL    HW142452   3.646   3.336   4.022
80185SOL    HW242453   3.503   3.357   4.066
80186SOL     OW42454   3.070   8.682  10.127
80186SOL    HW142455   3.142   8.676  10.064
80186SOL    HW242456   3.032   8.769  10.112
80187SOL     OW42457  11.466   0.100   1.155
80187SOL    HW142458  11.411   0.172   1.188
80187SOL    HW242459  11.537   0.093   1.219
80188SOL     OW42460  10.032   2.483   6.746
80188SOL    HW142461   9.965   2.504   6.812
80188SOL    HW242462  10.112   2.521   6.780
80189SOL     OW42463   7.375   7.672   2.440
80189SOL    HW142464   7.418   7.592   2.469
80189SOL    HW242465   7.317   7.643   2.369
80190SOL     OW42466   0.818  10.883   9.172
80190SOL    HW142467   0.742  10.897   9.229
80190SOL    HW242468   0.800  10.800   9.128
80191SOL     OW42469   5.646   4.522   9.268
80191SOL    HW142470   5.673   4.579   9.340
80191SOL    HW242471   5.726   4.510   9.217
80192SOL     OW42472   8.019   2.883  13.856
80192SOL    HW142473   8.010   2.955  13.793
80192SOL    HW242474   7.950   2.898  13.920
80193SOL     OW42475  12.138   3.068   4.534
80193SOL    HW142476  12.126   3.109   4.620
80193SOL    HW242477  12.216   3.014   4.544
80194SOL     OW42478   9.004  14.214   3.822
80194SOL    HW142479   9.027  14.136   3.871
80194SOL    HW242480   9.088  14.257   3.805
80195SOL     OW42481   1.301   0.560   9.795
80195SOL    HW142482   1.267   0.523   9.714
80195SOL    HW242483   1.309   0.653   9.778
80196SOL     OW42484   6.398  10.926  11.852
80196SOL    HW142485   6.304  10.937  11.837
80196SOL    HW242486   6.432  10.894  11.768
80197SOL     OW42487   4.347   6.813  12.385
80197SOL    HW142488   4.265   6.769  12.406
80197SOL    HW242489   4.321   6.890  12.333
80198SOL     OW42490  11.401  10.345   2.589
80198SOL    HW142491  11.423  10.383   2.504
80198SOL    HW242492  11.334  10.280   2.570
80199SOL     OW42493  13.708   9.975   7.003
80199SOL    HW142494  13.787  10.012   7.043
80199SOL    HW242495  13.673  10.046   6.950
80200SOL     OW42496   4.899   4.137   8.725
80200SOL    HW142497   4.959   4.098   8.789
80200SOL    HW242498   4.884   4.226   8.757
80201SOL     OW42499   1.668   4.226  12.973
80201SOL    HW142500   1.667   4.263  13.061
80201SOL    HW242501   1.760   4.210  12.955
80202SOL     OW42502   7.908   8.666   0.180
80202SOL    HW142503   7.949   8.703   0.258
80202SOL    HW242504   7.866   8.741   0.138
80203SOL     OW42505   6.689  11.213   0.948
80203SOL    HW142506   6.699  11.143   0.883
80203SOL    HW242507   6.773  11.215   0.994
80204SOL     OW42508   1.592  11.440  11.961
80204SOL    HW142509   1.614  11.524  11.921
80204SOL    HW242510   1.677  11.400  11.980
80205SOL     OW42511  14.116   1.558   6.262
80205SOL    HW142512  14.156   1.478   6.296
80205SOL    HW242513  14.183   1.597   6.206
80206SOL     OW42514  13.636   3.723   6.687
80206SOL    HW142515  13.550   3.753   6.658
80206SOL    HW242516  13.630   3.627   6.688
80207SOL     OW42517   2.142   0.158   6.531
80207SOL    HW142518   2.097   0.096   6.473
80207SOL    HW242519   2.230   0.166   6.494
80208SOL     OW42520  14.495   8.664  11.554
80208SOL    HW142521  14.400   8.664  11.562
80208SOL    HW242522  14.517   8.756  11.537
80209SOL     OW42523   6.377  14.197   6.325
80209SOL    HW142524   6.436  14.236   6.389
80209SOL    HW242525   6.329  14.271   6.288
80210SOL     OW42526   7.250   7.115  11.359
80210SOL    HW142527   7.248   7.164  11.277
80210SOL    HW242528   7.201   7.035  11.340
80211SOL     OW42529  12.004   2.776   3.384
80211SOL    HW142530  12.052   2.705   3.426
80211SOL    HW242531  11.984   2.837   3.454
80212SOL     OW42532   0.074   0.942  11.344
80212SOL    HW142533   0.041   0.888  11.415
80212SOL    HW242534   0.157   0.976  11.376
80213SOL     OW42535  11.793  13.531   6.134
80213SOL    HW142536  11.747  13.499   6.212
80213SOL    HW242537  11.735  13.509   6.061
80214SOL     OW42538   2.645   3.593   2.499
80214SOL    HW142539   2.677   3.680   2.476
80214SOL    HW242540   2.550   3.604   2.509
80215SOL     OW42541  14.786  12.963   7.247
80215SOL    HW142542  14.705  13.001   7.212
80215SOL    HW242543  14.849  12.972   7.175
80216SOL     OW42544  14.165  13.002  12.246
80216SOL    HW142545  14.165  12.913  12.210
80216SOL    HW242546  14.223  13.051  12.188
80217SOL     OW42547   2.373  12.572   3.046
80217SOL    HW142548   2.348  12.648   2.993
80217SOL    HW242549   2.317  12.501   3.014
80218SOL     OW42550   6.480  12.844  10.671
80218SOL    HW142551   6.404  12.893  10.643
80218SOL    HW242552   6.554  12.902  10.655
80219SOL     OW42553  11.777  13.636   1.993
80219SOL    HW142554  11.801  13.628   2.085
80219SOL    HW242555  11.858  13.663   1.949
80220SOL     OW42556  12.391  10.080  13.049
80220SOL    HW142557  12.306  10.119  13.030
80220SOL    HW242558  12.399  10.007  12.988
80221SOL     OW42559   2.318  12.430   8.809
80221SOL    HW142560   2.364  12.412   8.727
80221SOL    HW242561   2.290  12.521   8.802
80222SOL     OW42562   9.394   4.153  13.136
80222SOL    HW142563   9.340   4.151  13.215
80222SOL    HW242564   9.484   4.155  13.168
80223SOL     OW42565   1.503  12.126   1.263
80223SOL    HW142566   1.432  12.083   1.215
80223SOL    HW242567   1.559  12.054   1.293
80224SOL     OW42568   2.747   9.439   6.183
80224SOL    HW142569   2.831   9.402   6.157
80224SOL    HW242570   2.701   9.456   6.101
80225SOL     OW42571  12.469   4.348   6.454
80225SOL    HW142572  12.514   4.359   6.370
80225SOL    HW242573  12.529   4.296   6.507
80226SOL     OW42574   0.866   3.556   4.707
80226SOL    HW142575   0.930   3.615   4.666
80226SOL    HW242576   0.886   3.560   4.800
80227SOL     OW42577   5.054   1.285   7.909
80227SOL    HW142578   5.088   1.321   7.826
80227SOL    HW242579   5.113   1.321   7.976
80228SOL     OW42580  10.725  13.485   4.998
80228SOL    HW142581  10.641  13.507   4.959
80228SOL    HW242582  10.731  13.390   4.990
80229SOL     OW42583  11.973  10.617   7.332
80229SOL    HW142584  11.962  10.559   7.256
80229SOL    HW242585  12.067  10.635   7.335
80230SOL     OW42586   3.688   4.431  12.397
80230SOL    HW142587   3.625   4.503  12.400
80230SOL    HW242588   3.773   4.474  12.397
80231SOL     OW42589   9.292  13.315   1.226
80231SOL    HW142590   9.277  13.232   1.270
80231SOL    HW242591   9.211  13.364   1.239
80232SOL     OW42592  11.550   9.165  11.045
80232SOL    HW142593  11.554   9.229  10.974
80232SOL    HW242594  11.558   9.080  11.001
80233SOL     OW42595  12.460  12.874   5.773
80233SOL    HW142596  12.490  12.814   5.841
80233SOL    HW242597  12.365  12.868   5.775
80234SOL     OW42598   5.293  12.981  11.019
80234SOL    HW142599   5.345  13.044  10.970
80234SOL    HW242600   5.309  13.002  11.111
80235SOL     OW42601  13.721   4.202  10.366
80235SOL    HW142602  13.630   4.187  10.339
80235SOL    HW242603  13.722   4.182  10.459
80236SOL     OW42604  11.484   3.104   2.049
80236SOL    HW142605  11.502   3.012   2.071
80236SOL    HW242606  11.415   3.130   2.110
80237SOL     OW42607   1.215   2.093  13.090
80237SOL    HW142608   1.196   2.182  13.062
80237SOL    HW242609   1.288   2.065  13.035
80238SOL     OW42610  14.264   4.241  12.309
80238SOL    HW142611  14.237   4.195  12.229
80238SOL    HW242612  14.200   4.215  12.375
80239SOL     OW42613  10.929  14.664   9.708
80239SOL    HW142614  10.952  14.757   9.713
80239SOL    HW242615  10.984  14.629   9.638
80240SOL     OW42616   6.622  11.157   6.595
80240SOL    HW142617   6.713  11.145   6.569
80240SOL    HW242618   6.592  11.070   6.619
80241SOL     OW42619  14.576   4.398   3.638
80241SOL    HW142620  14.630   4.431   3.711
80241SOL    HW242621  14.639   4.382   3.568
80242SOL     OW42622   2.113   4.092   4.374
80242SOL    HW142623   2.177   4.162   4.362
80242SOL    HW242624   2.142   4.047   4.454
80243SOL     OW42625  12.247   1.829  12.206
80243SOL    HW142626  12.160   1.814  12.242
80243SOL    HW242627  12.299   1.756  12.241
80244SOL     OW42628   9.807   1.282   9.526
80244SOL    HW142629   9.859   1.326   9.459
80244SOL    HW242630   9.765   1.353   9.575
80245SOL     OW42631   0.496  10.131  11.816
80245SOL    HW142632   0.405  10.155  11.837
80245SOL    HW242633   0.507  10.158  11.725
80246SOL     OW42634   4.183  13.264   6.448
80246SOL    HW142635   4.112  13.308   6.496
80246SOL    HW242636   4.263  13.303   6.483
80247SOL     OW42637   3.030   0.031   2.338
80247SOL    HW142638   3.044   0.069   2.251
80247SOL    HW242639   2.978  14.823   2.322
80248SOL     OW42640   2.048   3.920   3.033
80248SOL    HW142641   2.134   3.934   2.992
80248SOL    HW242642   1.987   3.914   2.959
80249SOL     OW42643   7.355   1.773   9.868
80249SOL    HW142644   7.355   1.773   9.772
80249SOL    HW242645   7.314   1.690   9.892
80250SOL     OW42646  12.048  10.071   2.671
80250SOL    HW142647  11.989  10.145   2.680
80250SOL    HW242648  11.991   9.997   2.651
80251SOL     OW42649   5.857   6.379   6.680
80251SOL    HW142650   5.778   6.346   6.637
80251SOL    HW242651   5.912   6.409   6.608
80252SOL     OW42652   4.957   3.606   5.752
80252SOL    HW142653   4.899   3.664   5.801
80252SOL    HW242654   4.930   3.618   5.661
80253SOL     OW42655   9.273  12.411  12.487
80253SOL    HW142656   9.203  12.432  12.549
80253SOL    HW242657   9.255  12.464  12.410
80254SOL     OW42658  11.829   2.140   4.847
80254SOL    HW142659  11.875   2.071   4.800
80254SOL    HW242660  11.891   2.168   4.915
80255SOL     OW42661  11.215  14.491   3.680
80255SOL    HW142662  11.279  14.546   3.724
80255SOL    HW242663  11.267  14.430   3.628
80256SOL     OW42664   4.444   4.000  14.570
80256SOL    HW142665   4.361   3.993  14.523
80256SOL    HW242666   4.510   3.970  14.507
80257SOL     OW42667   2.132   1.426   6.331
80257SOL    HW142668   2.187   1.365   6.281
80257SOL    HW242669   2.079   1.470   6.265
80258SOL     OW42670   8.304   9.011   8.909
80258SOL    HW142671   8.317   9.078   8.841
80258SOL    HW242672   8.262   8.939   8.863
80259SOL     OW42673  12.034   0.399   6.068
80259SOL    HW142674  12.016   0.337   6.138
80259SOL    HW242675  11.951   0.443   6.052
80260SOL     OW42676   3.827   0.467   4.420
80260SOL    HW142677   3.815   0.390   4.364
80260SOL    HW242678   3.803   0.437   4.507
80261SOL     OW42679   8.536   5.381   9.420
80261SOL    HW142680   8.516   5.292   9.393
80261SOL    HW242681   8.479   5.436   9.365
80262SOL     OW42682   9.844   4.580  12.189
80262SOL    HW142683   9.906   4.519  12.230
80262SOL    HW242684   9.758   4.542  12.206
80263SOL     OW42685  11.309  13.957   0.815
80263SOL    HW142686  11.331  14.044   0.783
80263SOL    HW242687  11.389  13.906   0.804
80264SOL     OW42688   2.188  14.853   0.063
80264SOL    HW142689   2.272  14.842   0.018
80264SOL    HW242690   2.171   0.077   0.058
80265SOL     OW42691   5.156   9.563   6.324
80265SOL    HW142692   5.247   9.562   6.293
80265SOL    HW242693   5.128   9.654   6.314
80266SOL     OW42694   3.155  14.420   7.404
80266SOL    HW142695   3.088  14.474   7.446
80266SOL    HW242696   3.106  14.358   7.351
80267SOL     OW42697   2.934  14.518   9.931
80267SOL    HW142698   2.856  14.476   9.966
80267SOL    HW242699   2.957  14.466   9.854
80268SOL     OW42700   4.555   8.672   3.847
80268SOL    HW142701   4.529   8.656   3.756
80268SOL    HW242702   4.572   8.767   3.850
80269SOL     OW42703   6.755  13.139   7.463
80269SOL    HW142704   6.757  13.228   7.428
80269SOL    HW242705   6.744  13.083   7.387
80270SOL     OW42706   5.229  10.639   0.428
80270SOL    HW142707   5.258  10.646   0.519
80270SOL    HW242708   5.241  10.727   0.393
80271SOL     OW42709   6.329   0.990   3.632
80271SOL    HW142710   6.251   1.046   3.632
80271SOL    HW242711   6.365   0.999   3.720
80272SOL     OW42712   5.535   0.690   3.455
80272SOL    HW142713   5.578   0.613   3.418
80272SOL    HW242714   5.450   0.694   3.410
80273SOL     OW42715   9.620   7.760   4.742
80273SOL    HW142716   9.670   7.837   4.714
80273SOL    HW242717   9.541   7.796   4.781
80274SOL     OW42718   3.225   9.073   6.530
80274SOL    HW142719   3.131   9.069   6.511
80274SOL    HW242720   3.266   9.038   6.451
80275SOL     OW42721   9.210   3.594   5.737
80275SOL    HW142722   9.305   3.605   5.733
80275SOL    HW242723   9.195   3.544   5.817
80276SOL     OW42724   1.152   9.697   5.744
80276SOL    HW142725   1.190   9.621   5.789
80276SOL    HW242726   1.224   9.732   5.691
80277SOL     OW42727   8.842   6.369  13.405
80277SOL    HW142728   8.845   6.311  13.480
80277SOL    HW242729   8.860   6.313  13.330
80278SOL     OW42730   7.570  13.778   2.534
80278SOL    HW142731   7.639  13.740   2.481
80278SOL    HW242732   7.494  13.723   2.518
80279SOL     OW42733   5.300  14.571   2.760
80279SOL    HW142734   5.369  14.509   2.735
80279SOL    HW242735   5.339  14.657   2.746
80280SOL     OW42736   1.275  11.129  14.605
80280SOL    HW142737   1.207  11.154  14.667
80280SOL    HW242738   1.343  11.195  14.616
80281SOL     OW42739   1.138  14.494   2.416
80281SOL    HW142740   1.074  14.563   2.433
80281SOL    HW242741   1.192  14.491   2.495
80282SOL     OW42742  10.724   0.620   0.617
80282SOL    HW142743  10.774   0.558   0.670
80282SOL    HW242744  10.743   0.597   0.527
80283SOL     OW42745   5.378   1.791  13.560
80283SOL    HW142746   5.286   1.817  13.566
80283SOL    HW242747   5.426   1.874  13.561
80284SOL     OW42748  13.728  13.220   2.708
80284SOL    HW142749  13.783  13.289   2.671
80284SOL    HW242750  13.644  13.230   2.663
80285SOL     OW42751  13.543   8.344   5.344
80285SOL    HW142752  13.459   8.298   5.353
80285SOL    HW242753  13.521   8.425   5.298
80286SOL     OW42754   1.973  13.579  13.115
80286SOL    HW142755   2.003  13.492  13.142
80286SOL    HW242756   1.942  13.619  13.196
80287SOL     OW42757   9.981   2.221  10.181
80287SOL    HW142758  10.034   2.237  10.259
80287SOL    HW242759  10.042   2.229  10.108
80288SOL     OW42760   1.995   0.742   0.894
80288SOL    HW142761   1.932   0.670   0.897
80288SOL    HW242762   2.075   0.703   0.859
80289SOL     OW42763   5.410  12.387   2.735
80289SOL    HW142764   5.339  12.390   2.800
80289SOL    HW242765   5.379  12.325   2.669
80290SOL     OW42766   3.006  14.618   1.139
80290SOL    HW142767   3.043  14.552   1.081
80290SOL    HW242768   3.029  14.702   1.098
80291SOL     OW42769   2.041  14.251   1.822
80291SOL    HW142770   2.018  14.250   1.915
80291SOL    HW242771   2.046  14.344   1.799
80292SOL     OW42772   1.236   0.327   9.926
80292SOL    HW142773   1.327   0.299   9.930
80292SOL    HW242774   1.236   0.402   9.867
80293SOL     OW42775  13.241  11.926   6.149
80293SOL    HW142776  13.157  11.953   6.113
80293SOL    HW242777  13.272  11.857   6.090
80294SOL     OW42778   9.858   5.177   0.216
80294SOL    HW142779   9.768   5.204   0.203
80294SOL    HW242780   9.884   5.139   0.132
80295SOL     OW42781   5.490  13.957   3.542
80295SOL    HW142782   5.430  13.887   3.568
80295SOL    HW242783   5.464  13.979   3.453
80296SOL     OW42784   4.454   7.856   2.724
80296SOL    HW142785   4.408   7.776   2.750
80296SOL    HW242786   4.389   7.904   2.672
80297SOL     OW42787   2.658  11.744   6.048
80297SOL    HW142788   2.708  11.823   6.071
80297SOL    HW242789   2.568  11.765   6.073
80298SOL     OW42790   0.957  14.787   6.216
80298SOL    HW142791   0.899  14.831   6.278
80298SOL    HW242792   0.919  14.700   6.204
80299SOL     OW42793   7.570  11.704   4.625
80299SOL    HW142794   7.534  11.622   4.659
80299SOL    HW242795   7.498  11.767   4.630
80300SOL     OW42796  10.984   1.480   7.636
80300SOL    HW142797  10.940   1.542   7.694
80300SOL    HW242798  10.955   1.394   7.668
80301SOL     OW42799   0.741   3.949   4.527
80301SOL    HW142800   0.836   3.941   4.523
80301SOL    HW242801   0.711   3.865   4.563
80302SOL     OW42802   2.867  11.481   2.747
80302SOL    HW142803   2.896  11.536   2.820
80302SOL    HW242804   2.776  11.508   2.731
80303SOL     OW42805   0.314  11.977   5.762
80303SOL    HW142806   0.405  11.967   5.789
80303SOL    HW242807   0.270  12.015   5.838
80304SOL     OW42808   7.544   2.500  12.511
80304SOL    HW142809   7.608   2.539  12.451
80304SOL    HW242810   7.589   2.496  12.595
80305SOL     OW42811   6.796  10.957  13.928
80305SOL    HW142812   6.704  10.978  13.908
80305SOL    HW242813   6.792  10.894  14.000
80306SOL     OW42814  12.093  11.528   8.129
80306SOL    HW142815  12.024  11.462   8.136
80306SOL    HW242816  12.083  11.564   8.041
80307SOL     OW42817  11.786   3.912  12.047
80307SOL    HW142818  11.711   3.875  11.999
80307SOL    HW242819  11.748   3.982  12.101
80308SOL     OW42820   4.878   7.702   3.889
80308SOL    HW142821   4.934   7.777   3.868
80308SOL    HW242822   4.908   7.673   3.975
80309SOL     OW42823   2.541  13.752   2.498
80309SOL    HW142824   2.466  13.797   2.460
80309SOL    HW242825   2.502  13.687   2.557
80310SOL     OW42826   0.243   5.498   1.091
80310SOL    HW142827   0.277   5.584   1.117
80310SOL    HW242828   0.266   5.491   0.998
80311SOL     OW42829  13.029   6.593   0.969
80311SOL    HW142830  12.989   6.552   0.892
80311SOL    HW242831  13.114   6.624   0.938
80312SOL     OW42832   6.695   5.660   0.139
80312SOL    HW142833   6.787   5.668   0.165
80312SOL    HW242834   6.659   5.596   0.200
80313SOL     OW42835  14.105  12.393  14.081
80313SOL    HW142836  14.129  12.307  14.046
80313SOL    HW242837  14.178  12.450  14.056
80314SOL     OW42838  13.785   0.196  10.418
80314SOL    HW142839  13.841   0.260  10.374
80314SOL    HW242840  13.846   0.136  10.460
80315SOL     OW42841   2.083   4.319  14.736
80315SOL    HW142842   2.158   4.370  14.769
80315SOL    HW242843   2.087   4.331  14.641
80316SOL     OW42844  13.498   0.732   6.001
80316SOL    HW142845  13.553   0.751   6.077
80316SOL    HW242846  13.450   0.653   6.026
80317SOL     OW42847   6.296   2.436  10.747
80317SOL    HW142848   6.243   2.356  10.749
80317SOL    HW242849   6.242   2.502  10.790
80318SOL     OW42850   3.988  10.413  14.442
80318SOL    HW142851   3.918  10.356  14.411
80318SOL    HW242852   4.059  10.353  14.466
80319SOL     OW42853   4.737   4.047   8.265
80319SOL    HW142854   4.745   4.070   8.358
80319SOL    HW242855   4.644   4.026   8.254
80320SOL     OW42856   3.158   9.206   4.616
80320SOL    HW142857   3.071   9.182   4.648
80320SOL    HW242858   3.217   9.182   4.688
80321SOL     OW42859   5.059   0.191   5.715
80321SOL    HW142860   5.154   0.190   5.711
80321SOL    HW242861   5.030   0.191   5.624
80322SOL     OW42862   8.298  13.814   2.024
80322SOL    HW142863   8.213  13.795   1.983
80322SOL    HW242864   8.291  13.778   2.112
80323SOL     OW42865   0.354  10.012  10.673
80323SOL    HW142866   0.281  10.046  10.622
80323SOL    HW242867   0.351  10.062  10.754
80324SOL     OW42868   2.334   4.228   7.953
80324SOL    HW142869   2.344   4.277   7.871
80324SOL    HW242870   2.409   4.253   8.006
80325SOL     OW42871   6.659  13.187   9.097
80325SOL    HW142872   6.566  13.183   9.119
80325SOL    HW242873   6.691  13.265   9.141
80326SOL     OW42874   3.587   3.059  11.598
80326SOL    HW142875   3.574   2.966  11.583
80326SOL    HW242876   3.603   3.095  11.511
80327SOL     OW42877   6.583   6.370  10.918
80327SOL    HW142878   6.625   6.331  10.995
80327SOL    HW242879   6.655   6.380  10.855
80328SOL     OW42880  11.424   6.230  12.757
80328SOL    HW142881  11.354   6.222  12.692
80328SOL    HW242882  11.434   6.324  12.770
80329SOL     OW42883   0.101  11.254  13.147
80329SOL    HW142884   0.181  11.298  13.118
80329SOL    HW242885   0.033  11.320  13.139
80330SOL     OW42886   8.455   9.112   5.377
80330SOL    HW142887   8.497   9.114   5.464
80330SOL    HW242888   8.378   9.168   5.386
80331SOL     OW42889   2.951   2.829   7.004
80331SOL    HW142890   2.960   2.907   7.059
80331SOL    HW242891   3.032   2.781   7.018
80332SOL     OW42892   5.150  12.358  10.199
80332SOL    HW142893   5.227  12.389  10.151
80332SOL    HW242894   5.077  12.368  10.138
80333SOL     OW42895   0.868  11.696   8.802
80333SOL    HW142896   0.897  11.776   8.758
80333SOL    HW242897   0.851  11.635   8.731
80334SOL     OW42898   0.830   9.395  14.338
80334SOL    HW142899   0.860   9.412  14.249
80334SOL    HW242900   0.876   9.315  14.364
80335SOL     OW42901  14.341   0.626  10.506
80335SOL    HW142902  14.349   0.721  10.511
80335SOL    HW242903  14.320   0.600  10.596
80336SOL     OW42904   1.681   8.318   6.614
80336SOL    HW142905   1.597   8.359   6.596
80336SOL    HW242906   1.720   8.372   6.683
80337SOL     OW42907   8.016  11.336  14.614
80337SOL    HW142908   8.061  11.409  14.655
80337SOL    HW242909   7.970  11.375  14.539
80338SOL     OW42910   7.437  10.778   6.606
80338SOL    HW142911   7.442  10.682   6.610
80338SOL    HW242912   7.346  10.798   6.626
80339SOL     OW42913   0.664  10.701  11.292
80339SOL    HW142914   0.748  10.727  11.330
80339SOL    HW242915   0.649  10.762  11.221
80340SOL     OW42916   2.914  11.704   4.329
80340SOL    HW142917   2.987  11.668   4.379
80340SOL    HW242918   2.863  11.628   4.302
80341SOL     OW42919   5.729   1.630   6.940
80341SOL    HW142920   5.815   1.661   6.968
80341SOL    HW242921   5.687   1.706   6.902
80342SOL     OW42922  10.182   5.054   2.469
80342SOL    HW142923  10.209   4.993   2.400
80342SOL    HW242924  10.233   5.028   2.546
80343SOL     OW42925   4.222  10.201   4.280
80343SOL    HW142926   4.207  10.296   4.284
80343SOL    HW242927   4.174  10.166   4.355
80344SOL     OW42928   0.061  10.044   4.357
80344SOL    HW142929  14.837  10.032   4.370
80344SOL    HW242930   0.101   9.964   4.394
80345SOL     OW42931   9.923  12.913   1.386
80345SOL    HW142932   9.932  12.897   1.479
80345SOL    HW242933   9.829  12.905   1.369
80346SOL     OW42934   0.012   8.360   6.249
80346SOL    HW142935   0.023   8.452   6.272
80346SOL    HW242936  14.807   8.360   6.189
80347SOL     OW42937   4.729  13.989   3.309
80347SOL    HW142938   4.659  14.052   3.291
80347SOL    HW242939   4.685  13.904   3.304
80348SOL     OW42940   0.309   6.432  13.822
80348SOL    HW142941   0.308   6.527  13.805
80348SOL    HW242942   0.364   6.396  13.752
80349SOL     OW42943  12.767   6.253  14.088
80349SOL    HW142944  12.732   6.189  14.151
80349SOL    HW242945  12.856   6.270  14.117
80350SOL     OW42946   1.550   0.446   5.357
80350SOL    HW142947   1.510   0.532   5.372
80350SOL    HW242948   1.644   0.464   5.349
80351SOL     OW42949   7.923  13.972  10.339
80351SOL    HW142950   7.936  13.943  10.430
80351SOL    HW242951   7.842  13.928  10.312
80352SOL     OW42952   2.655  11.494  11.469
80352SOL    HW142953   2.633  11.583  11.496
80352SOL    HW242954   2.590  11.472  11.402
80353SOL     OW42955  10.131  12.319   2.603
80353SOL    HW142956  10.063  12.381   2.629
80353SOL    HW242957  10.213  12.368   2.608
80354SOL     OW42958   4.331   5.029   5.929
80354SOL    HW142959   4.268   5.064   5.991
80354SOL    HW242960   4.281   5.019   5.848
80355SOL     OW42961   9.804  13.920  11.308
80355SOL    HW142962   9.710  13.934  11.321
80355SOL    HW242963   9.825  13.972  11.231
80356SOL     OW42964  12.185   4.499   6.598
80356SOL    HW142965  12.252   4.567   6.586
80356SOL    HW242966  12.236   4.419   6.616
80357SOL     OW42967   9.008   3.828   8.369
80357SOL    HW142968   9.040   3.918   8.377
80357SOL    HW242969   8.965   3.810   8.452
80358SOL     OW42970   0.000   8.601   5.798
80358SOL    HW142971   0.093   8.584   5.813
80358SOL    HW242972  14.850   8.675   5.855
80359SOL     OW42973   0.451  14.291  12.990
80359SOL    HW142974   0.425  14.346  12.916
80359SOL    HW242975   0.490  14.352  13.052
80360SOL     OW42976   7.574   8.366   1.878
80360SOL    HW142977   7.532   8.452   1.888
80360SOL    HW242978   7.512   8.315   1.826
80361SOL     OW42979   4.561   3.264   3.292
80361SOL    HW142980   4.653   3.273   3.267
80361SOL    HW242981   4.519   3.344   3.259
80362SOL     OW42982   0.089  14.621  12.104
80362SOL    HW142983   0.104  14.669  12.185
80362SOL    HW242984   0.120  14.679  12.035
80363SOL     OW42985  11.888   0.319   2.098
80363SOL    HW142986  11.796   0.328   2.077
80363SOL    HW242987  11.921   0.257   2.033
80364SOL     OW42988  13.662   5.410   9.786
80364SOL    HW142989  13.730   5.432   9.851
80364SOL    HW242990  13.638   5.320   9.807
80365SOL     OW42991   4.324   0.705  13.249
80365SOL    HW142992   4.366   0.790  13.265
80365SOL    HW242993   4.266   0.693  13.325
80366SOL     OW42994  13.902   0.880  13.914
80366SOL    HW142995  13.893   0.952  13.976
80366SOL    HW242996  13.933   0.920  13.833
80367SOL     OW42997  11.722   3.193   4.530
80367SOL    HW142998  11.674   3.253   4.587
80367SOL    HW242999  11.764   3.250   4.465
80368SOL     OW43000   9.692   8.613   6.753
80368SOL    HW143001   9.746   8.547   6.797
80368SOL    HW243002   9.755   8.670   6.708
80369SOL     OW43003   9.438   2.119  14.415
80369SOL    HW143004   9.351   2.118  14.456
80369SOL    HW243005   9.487   2.182  14.467
80370SOL     OW43006  10.606   7.058   7.064
80370SOL    HW143007  10.634   7.132   7.119
80370SOL    HW243008  10.536   7.094   7.010
80371SOL     OW43009   8.853  11.564   8.610
80371SOL    HW143010   8.825  11.596   8.696
80371SOL    HW243011   8.801  11.615   8.548
80372SOL     OW43012   9.297  11.061   5.806
80372SOL    HW143013   9.360  11.134   5.811
80372SOL    HW243014   9.218  11.095   5.848
80373SOL     OW43015  14.239  11.012   6.922
80373SOL    HW143016  14.182  11.038   6.850
80373SOL    HW243017  14.190  11.035   7.001
80374SOL     OW43018  14.090  13.073  12.820
80374SOL    HW143019  13.998  13.094  12.806
80374SOL    HW243020  14.090  13.010  12.893
80375SOL     OW43021   3.286   1.323   3.612
80375SOL    HW143022   3.367   1.275   3.593
80375SOL    HW243023   3.257   1.354   3.526
80376SOL     OW43024  14.561   5.788   3.330
80376SOL    HW143025  14.544   5.803   3.237
80376SOL    HW243026  14.537   5.871   3.372
80377SOL     OW43027  11.415   3.105   9.152
80377SOL    HW143028  11.420   3.190   9.109
80377SOL    HW243029  11.386   3.125   9.241
80378SOL     OW43030   4.841  14.541   6.454
80378SOL    HW143031   4.757  14.530   6.409
80378SOL    HW243032   4.849  14.636   6.467
80379SOL     OW43033   0.657   2.016  13.249
80379SOL    HW143034   0.745   1.984  13.229
80379SOL    HW243035   0.612   2.016  13.165
80380SOL     OW43036   7.717  12.438   2.226
80380SOL    HW143037   7.808  12.443   2.256
80380SOL    HW243038   7.718  12.477   2.139
80381SOL     OW43039   9.043  12.658  10.885
80381SOL    HW143040   8.995  12.741  10.893
80381SOL    HW243041   9.035  12.618  10.972
80382SOL     OW43042   3.295   2.530  11.775
80382SOL    HW143043   3.340   2.592  11.832
80382SOL    HW243044   3.280   2.453  11.830
80383SOL     OW43045   9.316  13.938   2.147
80383SOL    HW143046   9.340  14.018   2.102
80383SOL    HW243047   9.371  13.870   2.108
80384SOL     OW43048   0.802  13.352   2.703
80384SOL    HW143049   0.847  13.282   2.656
80384SOL    HW243050   0.849  13.360   2.786
80385SOL     OW43051   0.593   1.724   4.321
80385SOL    HW143052   0.677   1.766   4.305
80385SOL    HW243053   0.613   1.631   4.325
80386SOL     OW43054   4.564   8.683   5.693
80386SOL    HW143055   4.574   8.687   5.597
80386SOL    HW243056   4.506   8.608   5.707
80387SOL     OW43057   4.739   0.511  11.780
80387SOL    HW143058   4.724   0.604  11.797
80387SOL    HW243059   4.665   0.484  11.726
80388SOL     OW43060   5.760   7.902  13.115
80388SOL    HW143061   5.846   7.888  13.075
80388SOL    HW243062   5.777   7.961  13.188
80389SOL     OW43063   0.033   6.316   9.997
80389SOL    HW143064  14.814   6.290   9.974
80389SOL    HW243065   0.055   6.384   9.933
80390SOL     OW43066   0.274   7.066   4.031
80390SOL    HW143067   0.330   7.104   4.098
80390SOL    HW243068   0.236   6.988   4.072
80391SOL     OW43069   2.125   5.849   7.951
80391SOL    HW143070   2.112   5.833   8.044
80391SOL    HW243071   2.042   5.888   7.922
80392SOL     OW43072   4.803  10.743   4.714
80392SOL    HW143073   4.741  10.816   4.719
80392SOL    HW243074   4.858  10.752   4.792
80393SOL     OW43075   9.187   6.581   2.904
80393SOL    HW143076   9.266   6.591   2.851
80393SOL    HW243077   9.133   6.519   2.856
80394SOL     OW43078   7.428   1.933   2.160
80394SOL    HW143079   7.521   1.953   2.149
80394SOL    HW243080   7.398   1.911   2.073
80395SOL     OW43081   7.291  10.182  11.704
80395SOL    HW143082   7.239  10.121  11.756
80395SOL    HW243083   7.252  10.267  11.721
80396SOL     OW43084   3.963  12.646   0.245
80396SOL    HW143085   3.896  12.656   0.177
80396SOL    HW243086   3.922  12.589   0.310
80397SOL     OW43087  14.286   1.596  14.560
80397SOL    HW143088  14.278   1.501  14.565
80397SOL    HW243089  14.200   1.625  14.528
80398SOL     OW43090   2.486  14.210   8.964
80398SOL    HW143091   2.419  14.165   9.016
80398SOL    HW243092   2.523  14.142   8.909
80399SOL     OW43093   7.771   3.391  11.829
80399SOL    HW143094   7.786   3.466  11.772
80399SOL    HW243095   7.745   3.429  11.913
80400SOL     OW43096  13.868   5.828  14.413
80400SOL    HW143097  13.817   5.764  14.364
80400SOL    HW243098  13.815   5.846  14.491
80401SOL     OW43099   5.980   4.565   4.928
80401SOL    HW143100   5.985   4.576   4.833
80401SOL    HW243101   5.908   4.502   4.941
80402SOL     OW43102   3.406   9.368   0.219
80402SOL    HW143103   3.375   9.344   0.306
80402SOL    HW243104   3.435   9.285   0.180
80403SOL     OW43105  10.989  13.208   9.353
80403SOL    HW143106  10.914  13.204   9.294
80403SOL    HW243107  11.003  13.117   9.380
80404SOL     OW43108   9.658   5.129   1.581
80404SOL    HW143109   9.594   5.187   1.621
80404SOL    HW243110   9.729   5.124   1.645
80405SOL     OW43111  12.565   9.357   2.738
80405SOL    HW143112  12.483   9.316   2.712
80405SOL    HW243113  12.624   9.345   2.663
80406SOL     OW43114  14.612   0.685  11.921
80406SOL    HW143115  14.619   0.718  12.010
80406SOL    HW243116  14.547   0.742  11.879
80407SOL     OW43117  11.977  11.188   6.446
80407SOL    HW143118  11.938  11.102   6.461
80407SOL    HW243119  12.053  11.191   6.504
80408SOL     OW43120   8.304  12.671   6.140
80408SOL    HW143121   8.296  12.709   6.227
80408SOL    HW243122   8.214  12.653   6.113
80409SOL     OW43123   1.346  12.078  10.080
80409SOL    HW143124   1.260  12.050  10.048
80409SOL    HW243125   1.332  12.168  10.111
80410SOL     OW43126   6.325  13.043   7.612
80410SOL    HW143127   6.416  13.073   7.609
80410SOL    HW243128   6.281  13.093   7.544
80411SOL     OW43129  11.363   5.118   2.383
80411SOL    HW143130  11.284   5.167   2.358
80411SOL    HW243131  11.392   5.077   2.301
80412SOL     OW43132   3.091   6.505   1.049
80412SOL    HW143133   3.033   6.459   1.111
80412SOL    HW243134   3.031   6.556   0.994
80413SOL     OW43135  14.324   3.575   9.560
80413SOL    HW143136  14.326   3.668   9.537
80413SOL    HW243137  14.398   3.537   9.514
80414SOL     OW43138   9.226   5.371   3.693
80414SOL    HW143139   9.258   5.331   3.774
80414SOL    HW243140   9.305   5.385   3.641
80415SOL     OW43141  13.232   0.184  11.119
80415SOL    HW143142  13.248   0.180  11.214
80415SOL    HW243143  13.315   0.158  11.080
80416SOL     OW43144   5.428   6.415  10.969
80416SOL    HW143145   5.509   6.463  10.953
80416SOL    HW243146   5.383   6.466  11.036
80417SOL     OW43147  10.480  14.175   9.874
80417SOL    HW143148  10.416  14.242   9.851
80417SOL    HW243149  10.485  14.179   9.970
80418SOL     OW43150   4.053   7.978   4.963
80418SOL    HW143151   4.075   8.045   5.027
80418SOL    HW243152   4.009   7.909   5.013
80419SOL     OW43153   9.331   2.528   6.834
80419SOL    HW143154   9.345   2.540   6.740
80419SOL    HW243155   9.401   2.468   6.861
80420SOL     OW43156  13.878   4.173  12.835
80420SOL    HW143157  13.875   4.265  12.807
80420SOL    HW243158  13.970   4.149  12.826
80421SOL     OW43159   9.315   7.337   9.964
80421SOL    HW143160   9.359   7.354   9.881
80421SOL    HW243161   9.222   7.335   9.941
80422SOL     OW43162   6.331   9.156   4.551
80422SOL    HW143163   6.350   9.166   4.457
80422SOL    HW243164   6.413   9.181   4.594
80423SOL     OW43165   5.276   0.700   4.348
80423SOL    HW143166   5.367   0.669   4.345
80423SOL    HW243167   5.258   0.730   4.260
80424SOL     OW43168   3.425   1.670   5.545
80424SOL    HW143169   3.410   1.578   5.567
80424SOL    HW243170   3.352   1.717   5.586
80425SOL     OW43171   9.679   8.190   4.430
80425SOL    HW143172   9.683   8.225   4.519
80425SOL    HW243173   9.770   8.189   4.401
80426SOL     OW43174   8.395  10.858   7.202
80426SOL    HW143175   8.440  10.866   7.286
80426SOL    HW243176   8.391  10.948   7.169
80427SOL     OW43177   8.134  12.142  12.093
80427SOL    HW143178   8.065  12.166  12.032
80427SOL    HW243179   8.202  12.102  12.038
80428SOL     OW43180   1.611  12.999   1.579
80428SOL    HW143181   1.689  12.987   1.633
80428SOL    HW243182   1.615  13.091   1.553
80429SOL     OW43183  10.390  10.681  11.783
80429SOL    HW143184  10.418  10.643  11.700
80429SOL    HW243185  10.465  10.670  11.841
80430SOL     OW43186   1.389   5.248   1.357
80430SOL    HW143187   1.331   5.319   1.383
80430SOL    HW243188   1.367   5.229   1.266
80431SOL     OW43189  13.268   8.801   7.430
80431SOL    HW143190  13.188   8.757   7.459
80431SOL    HW243191  13.326   8.799   7.507
80432SOL     OW43192   7.003   1.750  12.138
80432SOL    HW143193   7.010   1.840  12.169
80432SOL    HW243194   6.916   1.722  12.167
80433SOL     OW43195   9.148   8.868   2.932
80433SOL    HW143196   9.126   8.776   2.918
80433SOL    HW243197   9.135   8.909   2.847
80434SOL     OW43198   9.335   9.938   1.513
80434SOL    HW143199   9.285   9.908   1.589
80434SOL    HW243200   9.425   9.947   1.546
80435SOL     OW43201   7.966  14.012  11.819
80435SOL    HW143202   8.005  13.941  11.768
80435SOL    HW243203   7.940  14.077  11.754
80436SOL     OW43204   3.029   9.088  10.141
80436SOL    HW143205   3.092   9.034  10.092
80436SOL    HW243206   2.955   9.029  10.158
80437SOL     OW43207   2.767   0.420   8.725
80437SOL    HW143208   2.849   0.449   8.765
80437SOL    HW243209   2.700   0.474   8.767
80438SOL     OW43210   5.975   1.602  14.166
80438SOL    HW143211   5.998   1.556  14.085
80438SOL    HW243212   5.929   1.537  14.219
80439SOL     OW43213   9.231   6.336  11.140
80439SOL    HW143214   9.269   6.424  11.140
80439SOL    HW243215   9.228   6.311  11.048
80440SOL     OW43216   0.733  14.487   5.937
80440SOL    HW143217   0.746  14.506   6.030
80440SOL    HW243218   0.743  14.571   5.894
80441SOL     OW43219   7.308  11.578   4.454
80441SOL    HW143220   7.324  11.671   4.472
80441SOL    HW243221   7.283  11.541   4.538
80442SOL     OW43222  10.109   4.190   9.883
80442SOL    HW143223  10.098   4.097   9.900
80442SOL    HW243224  10.089   4.200   9.790
80443SOL     OW43225  14.303  12.066  13.629
80443SOL    HW143226  14.259  11.987  13.597
80443SOL    HW243227  14.330  12.043  13.718
80444SOL     OW43228  10.457   8.083  12.284
80444SOL    HW143229  10.366   8.065  12.264
80444SOL    HW243230  10.458   8.173  12.317
80445SOL     OW43231   2.055   1.128   0.263
80445SOL    HW143232   2.044   1.167   0.350
80445SOL    HW243233   2.070   1.203   0.205
80446SOL     OW43234   8.028   2.133   6.278
80446SOL    HW143235   8.051   2.040   6.289
80446SOL    HW243236   7.934   2.136   6.295
80447SOL     OW43237   3.364   1.161   1.047
80447SOL    HW143238   3.297   1.189   1.108
80447SOL    HW243239   3.433   1.227   1.054
80448SOL     OW43240   3.266   7.278   8.185
80448SOL    HW143241   3.231   7.366   8.176
80448SOL    HW243242   3.349   7.279   8.137
80449SOL     OW43243   7.562   4.008   3.353
80449SOL    HW143244   7.605   4.042   3.275
80449SOL    HW243245   7.472   4.040   3.347
80450SOL     OW43246   0.114   3.241  10.026
80450SOL    HW143247   0.071   3.161   9.995
80450SOL    HW243248   0.065   3.312   9.984
80451SOL     OW43249   3.760   9.820   6.792
80451SOL    HW143250   3.849   9.818   6.756
80451SOL    HW243251   3.769   9.779   6.879
80452SOL     OW43252  12.855   3.481   9.100
80452SOL    HW143253  12.800   3.424   9.153
80452SOL    HW243254  12.832   3.460   9.009
80453SOL     OW43255   7.921   7.194  13.346
80453SOL    HW143256   7.971   7.248  13.408
80453SOL    HW243257   7.907   7.251  13.270
80454SOL     OW43258  10.970  12.132   5.558
80454SOL    HW143259  10.929  12.048   5.578
80454SOL    HW243260  11.018  12.116   5.477
80455SOL     OW43261   1.748  13.425   3.614
80455SOL    HW143262   1.710  13.505   3.651
80455SOL    HW243263   1.697  13.354   3.654
80456SOL     OW43264   8.146   4.571  13.649
80456SOL    HW143265   8.090   4.494  13.641
80456SOL    HW243266   8.234   4.540  13.627
80457SOL     OW43267   7.444   6.993   9.376
80457SOL    HW143268   7.492   7.075   9.388
80457SOL    HW243269   7.353   7.020   9.366
80458SOL     OW43270   8.678  12.761  14.073
80458SOL    HW143271   8.660  12.747  14.166
80458SOL    HW243272   8.745  12.696  14.052
80459SOL     OW43273  11.114   4.111  11.092
80459SOL    HW143274  11.076   4.165  11.161
80459SOL    HW243275  11.159   4.040  11.138
80460SOL     OW43276  10.775  12.564   5.645
80460SOL    HW143277  10.691  12.519   5.644
80460SOL    HW243278  10.767  12.633   5.579
80461SOL     OW43279   4.788  13.930   5.908
80461SOL    HW143280   4.847  13.986   5.959
80461SOL    HW243281   4.799  13.843   5.947
80462SOL     OW43282  13.336  12.801   5.921
80462SOL    HW143283  13.364  12.812   5.830
80462SOL    HW243284  13.375  12.718   5.949
80463SOL     OW43285   4.777   0.468   9.561
80463SOL    HW143286   4.821   0.489   9.644
80463SOL    HW243287   4.688   0.502   9.571
80464SOL     OW43288   9.465   1.853  12.151
80464SOL    HW143289   9.433   1.937  12.117
80464SOL    HW243290   9.521   1.876  12.224
80465SOL     OW43291   8.113   1.966   7.269
80465SOL    HW143292   8.024   1.988   7.299
80465SOL    HW243293   8.114   1.871   7.268
80466SOL     OW43294   6.963   0.607   0.365
80466SOL    HW143295   6.929   0.644   0.283
80466SOL    HW243296   6.892   0.617   0.428
80467SOL     OW43297   4.031   6.933   1.789
80467SOL    HW143298   4.109   6.948   1.842
80467SOL    HW243299   3.965   6.902   1.852
80468SOL     OW43300  12.526  11.207  11.594
80468SOL    HW143301  12.485  11.122  11.583
80468SOL    HW243302  12.548  11.235  11.505
80469SOL     OW43303   2.290   7.123   2.903
80469SOL    HW143304   2.231   7.187   2.864
80469SOL    HW243305   2.283   7.138   2.997
80470SOL     OW43306   9.722   8.068   2.102
80470SOL    HW143307   9.665   8.127   2.052
80470SOL    HW243308   9.801   8.060   2.049
80471SOL     OW43309  11.022   9.662  14.126
80471SOL    HW143310  11.001   9.573  14.099
80471SOL    HW243311  10.992   9.668  14.216
80472SOL     OW43312  14.006   4.976  10.273
80472SOL    HW143313  13.937   5.023  10.320
80472SOL    HW243314  13.973   4.886  10.265
80473SOL     OW43315   6.715  12.438   3.030
80473SOL    HW143316   6.653  12.494   2.985
80473SOL    HW243317   6.788  12.496   3.053
80474SOL     OW43318   9.014   0.088   3.043
80474SOL    HW143319   8.997   0.115   2.953
80474SOL    HW243320   9.097   0.039   3.039
80475SOL     OW43321   7.705   6.029  11.018
80475SOL    HW143322   7.709   6.101  11.080
80475SOL    HW243323   7.783   5.976  11.037
80476SOL     OW43324  12.768  11.666  11.571
80476SOL    HW143325  12.772  11.645  11.664
80476SOL    HW243326  12.805  11.589  11.527
80477SOL     OW43327  12.178  14.611  13.940
80477SOL    HW143328  12.247  14.623  13.875
80477SOL    HW243329  12.138  14.698  13.948
80478SOL     OW43330   4.186  10.701   5.905
80478SOL    HW143331   4.177  10.606   5.890
80478SOL    HW243332   4.119  10.721   5.971
80479SOL     OW43333   8.516   2.213  10.038
80479SOL    HW143334   8.556   2.238   9.955
80479SOL    HW243335   8.589   2.201  10.098
80480SOL     OW43336   9.469   2.064   2.666
80480SOL    HW143337   9.504   2.113   2.741
80480SOL    HW243338   9.374   2.077   2.671
80481SOL     OW43339   7.677   7.755   2.361
80481SOL    HW143340   7.619   7.800   2.422
80481SOL    HW243341   7.742   7.821   2.337
80482SOL     OW43342   1.461   8.982   8.873
80482SOL    HW143343   1.530   8.998   8.809
80482SOL    HW243344   1.379   8.994   8.824
80483SOL     OW43345  11.893  12.564   5.743
80483SOL    HW143346  11.975  12.606   5.718
80483SOL    HW243347  11.845  12.633   5.790
80484SOL     OW43348   9.524   3.666   5.679
80484SOL    HW143349   9.469   3.740   5.653
80484SOL    HW243350   9.601   3.672   5.621
80485SOL     OW43351   1.369   3.369   0.531
80485SOL    HW143352   1.389   3.399   0.620
80485SOL    HW243353   1.454   3.363   0.488
80486SOL     OW43354   3.755  12.426   8.544
80486SOL    HW143355   3.723  12.335   8.545
80486SOL    HW243356   3.678  12.478   8.568
80487SOL     OW43357   3.225   0.860   2.379
80487SOL    HW143358   3.273   0.915   2.442
80487SOL    HW243359   3.265   0.774   2.388
80488SOL     OW43360   1.203   0.502   6.621
80488SOL    HW143361   1.264   0.549   6.679
80488SOL    HW243362   1.180   0.423   6.669
80489SOL     OW43363  10.015   6.990  14.389
80489SOL    HW143364   9.977   6.934  14.456
80489SOL    HW243365  10.035   6.931  14.316
80490SOL     OW43366   5.589  10.882  13.636
80490SOL    HW143367   5.632  10.808  13.594
80490SOL    HW243368   5.508  10.847  13.671
80491SOL     OW43369   7.970   9.704   0.357
80491SOL    HW143370   8.056   9.702   0.315
80491SOL    HW243371   7.967   9.622   0.407
80492SOL     OW43372   3.429   2.708   8.645
80492SOL    HW143373   3.368   2.781   8.642
80492SOL    HW243374   3.515   2.749   8.649
80493SOL     OW43375   1.494  13.571   9.268
80493SOL    HW143376   1.407  13.550   9.303
80493SOL    HW243377   1.484  13.657   9.229
80494SOL     OW43378   6.455  11.997   6.233
80494SOL    HW143379   6.512  12.023   6.305
80494SOL    HW243380   6.457  12.071   6.172
80495SOL     OW43381  11.692   7.653   4.795
80495SOL    HW143382  11.721   7.596   4.725
80495SOL    HW243383  11.684   7.596   4.872
80496SOL     OW43384  14.463  12.304  13.674
80496SOL    HW143385  14.459  12.330  13.582
80496SOL    HW243386  14.394  12.239  13.685
80497SOL     OW43387   2.465   0.187   8.112
80497SOL    HW143388   2.537   0.149   8.162
80497SOL    HW243389   2.386   0.159   8.157
80498SOL     OW43390   3.992  13.831   5.400
80498SOL    HW143391   3.916  13.776   5.379
80498SOL    HW243392   3.981  13.909   5.345
80499SOL     OW43393  13.463   1.012  11.058
80499SOL    HW143394  13.402   1.033  11.129
80499SOL    HW243395  13.418   1.042  10.979
80500SOL     OW43396   0.996   5.435   6.978
80500SOL    HW143397   1.091   5.445   6.985
80500SOL    HW243398   0.966   5.432   7.069
80501SOL     OW43399   6.257   7.724   8.151
80501SOL    HW143400   6.352   7.729   8.154
80501SOL    HW243401   6.228   7.815   8.163
80502SOL     OW43402   1.029   7.155  14.585
80502SOL    HW143403   1.109   7.111  14.556
80502SOL    HW243404   1.023   7.233  14.529
80503SOL     OW43405   2.707   7.310  10.034
80503SOL    HW143406   2.752   7.257  10.098
80503SOL    HW243407   2.695   7.253   9.958
80504SOL     OW43408   4.047   5.708   1.159
80504SOL    HW143409   4.139   5.687   1.175
80504SOL    HW243410   4.001   5.624   1.171
80505SOL     OW43411  11.554   8.273  10.345
80505SOL    HW143412  11.586   8.241  10.260
80505SOL    HW243413  11.587   8.209  10.408
80506SOL     OW43414   0.718   7.642   9.947
80506SOL    HW143415   0.719   7.621  10.041
80506SOL    HW243416   0.663   7.574   9.908
80507SOL     OW43417  10.933   0.821  11.166
80507SOL    HW143418  10.987   0.835  11.244
80507SOL    HW243419  10.869   0.754  11.194
80508SOL     OW43420   9.148  11.165   6.846
80508SOL    HW143421   9.175  11.254   6.826
80508SOL    HW243422   9.102  11.172   6.930
80509SOL     OW43423   8.066   1.874   9.605
80509SOL    HW143424   8.030   1.941   9.664
80509SOL    HW243425   8.145   1.844   9.648
80510SOL     OW43426   1.875  13.968  10.287
80510SOL    HW143427   1.803  13.946  10.228
80510SOL    HW243428   1.919  13.885  10.303
80511SOL     OW43429   1.843  12.876  11.563
80511SOL    HW143430   1.928  12.834  11.578
80511SOL    HW243431   1.793  12.858  11.643
80512SOL     OW43432   2.684  10.659   4.811
80512SOL    HW143433   2.735  10.615   4.879
80512SOL    HW243434   2.689  10.600   4.736
80513SOL     OW43435  13.457  10.205   4.484
80513SOL    HW143436  13.521  10.172   4.547
80513SOL    HW243437  13.505  10.212   4.402
80514SOL     OW43438  10.079   2.455  12.740
80514SOL    HW143439  10.142   2.522  12.716
80514SOL    HW243440  10.094   2.438  12.833
80515SOL     OW43441  11.189   4.190  13.444
80515SOL    HW143442  11.166   4.189  13.351
80515SOL    HW243443  11.178   4.281  13.471
80516SOL     OW43444   4.809   9.840  12.566
80516SOL    HW143445   4.866   9.917  12.572
80516SOL    HW243446   4.749   9.849  12.640
80517SOL     OW43447   2.343  12.652  11.535
80517SOL    HW143448   2.342  12.688  11.447
80517SOL    HW243449   2.370  12.561  11.524
80518SOL     OW43450   6.420   3.954   5.437
80518SOL    HW143451   6.329   3.925   5.434
80518SOL    HW243452   6.448   3.954   5.345
80519SOL     OW43453   5.940  12.607  13.128
80519SOL    HW143454   5.962  12.696  13.100
80519SOL    HW243455   6.010  12.582  13.188
80520SOL     OW43456  12.597   0.415   8.429
80520SOL    HW143457  12.563   0.328   8.409
80520SOL    HW243458  12.555   0.473   8.365
80521SOL     OW43459   9.808  13.186  11.409
80521SOL    HW143460   9.761  13.270  11.405
80521SOL    HW243461   9.747  13.128  11.454
80522SOL     OW43462  10.734  14.748   9.353
80522SOL    HW143463  10.765  14.664   9.320
80522SOL    HW243464  10.814  14.796   9.375
80523SOL     OW43465   4.913   4.506   5.134
80523SOL    HW143466   4.859   4.443   5.086
80523SOL    HW243467   4.977   4.452   5.181
80524SOL     OW43468   8.872  10.252   2.123
80524SOL    HW143469   8.905  10.341   2.132
80524SOL    HW243470   8.780  10.262   2.101
80525SOL     OW43471  11.775  13.820   2.786
80525SOL    HW143472  11.701  13.774   2.746
80525SOL    HW243473  11.779  13.904   2.741
80526SOL     OW43474   6.820   2.844   6.219
80526SOL    HW143475   6.826   2.859   6.313
80526SOL    HW243476   6.908   2.865   6.186
80527SOL     OW43477   9.766   4.712   2.248
80527SOL    HW143478   9.735   4.794   2.287
80527SOL    HW243479   9.838   4.738   2.192
80528SOL     OW43480  14.194  13.074   4.341
80528SOL    HW143481  14.254  13.070   4.416
80528SOL    HW243482  14.204  13.164   4.309
80529SOL     OW43483  10.272   7.083   1.696
80529SOL    HW143484  10.365   7.066   1.678
80529SOL    HW243485  10.241   7.132   1.620
80530SOL     OW43486   9.060   0.592   3.285
80530SOL    HW143487   8.969   0.569   3.270
80530SOL    HW243488   9.094   0.618   3.199
80531SOL     OW43489   0.072   3.588   2.501
80531SOL    HW143490   0.011   3.520   2.473
80531SOL    HW243491   0.158   3.555   2.477
80532SOL     OW43492  13.867   5.567   6.281
80532SOL    HW143493  13.916   5.595   6.359
80532SOL    HW243494  13.807   5.640   6.263
80533SOL     OW43495   3.515   3.634   0.487
80533SOL    HW143496   3.566   3.714   0.498
80533SOL    HW243497   3.438   3.662   0.438
80534SOL     OW43498   8.034   0.771  11.004
80534SOL    HW143499   8.053   0.701  10.942
80534SOL    HW243500   8.116   0.819  11.012
80535SOL     OW43501   9.498  13.071  11.434
80535SOL    HW143502   9.433  13.001  11.437
80535SOL    HW243503   9.532  13.076  11.523
80536SOL     OW43504   1.922  11.725   4.170
80536SOL    HW143505   1.923  11.817   4.194
80536SOL    HW243506   1.830  11.700   4.176
80537SOL     OW43507  14.653  11.141   0.915
80537SOL    HW143508  14.731  11.196   0.926
80537SOL    HW243509  14.684  11.065   0.865
80538SOL     OW43510   3.582   9.218  11.144
80538SOL    HW143511   3.672   9.210  11.114
80538SOL    HW243512   3.564   9.136  11.190
80539SOL     OW43513  11.397  14.748  11.047
80539SOL    HW143514  11.437  14.737  10.961
80539SOL    HW243515  11.353  14.664  11.064
80540SOL     OW43516   0.016  10.773  11.135
80540SOL    HW143517  14.813  10.718  11.106
80540SOL    HW243518   0.092  10.714  11.133
80541SOL     OW43519  13.032   6.974   8.606
80541SOL    HW143520  13.066   6.894   8.645
80541SOL    HW243521  12.971   6.943   8.538
80542SOL     OW43522  11.078   6.496   6.991
80542SOL    HW143523  11.036   6.570   7.035
80542SOL    HW243524  11.136   6.536   6.927
80543SOL     OW43525  10.845  13.430  13.653
80543SOL    HW143526  10.932  13.423  13.693
80543SOL    HW243527  10.851  13.509  13.598
80544SOL     OW43528   5.701   4.616  12.250
80544SOL    HW143529   5.705   4.645  12.341
80544SOL    HW243530   5.768   4.667  12.206
80545SOL     OW43531   9.531   8.361  10.564
80545SOL    HW143532   9.558   8.343  10.474
80545SOL    HW243533   9.555   8.453  10.578
80546SOL     OW43534   0.321   9.347   0.657
80546SOL    HW143535   0.400   9.380   0.700
80546SOL    HW243536   0.273   9.302   0.727
80547SOL     OW43537  14.399   0.386   3.475
80547SOL    HW143538  14.458   0.418   3.543
80547SOL    HW243539  14.318   0.366   3.521
80548SOL     OW43540   9.048  11.903  13.714
80548SOL    HW143541   9.028  11.815  13.682
80548SOL    HW243542   9.106  11.940  13.648
80549SOL     OW43543   7.062   8.290   1.512
80549SOL    HW143544   7.153   8.319   1.507
80549SOL    HW243545   7.029   8.331   1.592
80550SOL     OW43546   6.495  14.745   6.453
80550SOL    HW143547   6.452  14.683   6.394
80550SOL    HW243548   6.578  14.703   6.476
80551SOL     OW43549   2.348  11.223   7.303
80551SOL    HW143550   2.378  11.225   7.394
80551SOL    HW243551   2.336  11.315   7.280
80552SOL     OW43552   5.622  10.028  12.623
80552SOL    HW143553   5.599  10.108  12.670
80552SOL    HW243554   5.717  10.031  12.617
80553SOL     OW43555   6.632   6.586  13.627
80553SOL    HW143556   6.637   6.625  13.715
80553SOL    HW243557   6.661   6.496  13.640
80554SOL     OW43558   8.911   8.656  10.727
80554SOL    HW143559   8.898   8.730  10.667
80554SOL    HW243560   8.970   8.690  10.794
80555SOL     OW43561   9.004  13.031  12.430
80555SOL    HW143562   8.924  12.978  12.425
80555SOL    HW243563   8.972  13.121  12.434
80556SOL     OW43564  10.069   9.770   8.817
80556SOL    HW143565  10.032   9.789   8.731
80556SOL    HW243566   9.994   9.774   8.877
80557SOL     OW43567   2.630   5.263  12.054
80557SOL    HW143568   2.583   5.299  12.129
80557SOL    HW243569   2.567   5.266  11.982
80558SOL     OW43570   3.398  11.927  14.606
80558SOL    HW143571   3.393  11.921  14.701
80558SOL    HW243572   3.370  11.841  14.574
80559SOL     OW43573   1.478  14.784   1.916
80559SOL    HW143574   1.477  14.718   1.985
80559SOL    HW243575   1.399  14.765   1.864
80560SOL     OW43576   8.838  12.149   7.855
80560SOL    HW143577   8.818  12.217   7.790
80560SOL    HW243578   8.789  12.072   7.825
80561SOL     OW43579  11.967   7.218  14.041
80561SOL    HW143580  11.955   7.124  14.029
80561SOL    HW243581  11.882   7.251  14.069
80562SOL     OW43582  14.749   1.914   4.297
80562SOL    HW143583  14.689   1.849   4.333
80562SOL    HW243584  14.829   1.904   4.349
80563SOL     OW43585  13.098   3.806   3.301
80563SOL    HW143586  13.051   3.875   3.349
80563SOL    HW243587  13.065   3.724   3.338
80564SOL     OW43588   8.192   9.177  13.621
80564SOL    HW143589   8.251   9.111  13.583
80564SOL    HW243590   8.219   9.183  13.713
80565SOL     OW43591  11.235   8.088   4.968
80565SOL    HW143592  11.188   8.079   5.051
80565SOL    HW243593  11.234   7.999   4.931
80566SOL     OW43594  14.804   1.011  13.314
80566SOL    HW143595  14.780   1.103  13.300
80566SOL    HW243596  14.865   1.014  13.388
80567SOL     OW43597   4.575   2.987   9.670
80567SOL    HW143598   4.540   2.913   9.719
80567SOL    HW243599   4.525   2.987   9.588
80568SOL     OW43600   8.981   3.033   0.027
80568SOL    HW143601   9.046   2.965   0.042
80568SOL    HW243602   8.969   3.074   0.113
80569SOL     OW43603   7.552   5.256   0.269
80569SOL    HW143604   7.566   5.323   0.336
80569SOL    HW243605   7.635   5.250   0.223
80570SOL     OW43606   6.124   0.179  10.787
80570SOL    HW143607   6.039   0.217  10.764
80570SOL    HW243608   6.169   0.167  10.704
80571SOL     OW43609   7.202  14.178   5.498
80571SOL    HW143610   7.197  14.231   5.419
80571SOL    HW243611   7.267  14.222   5.552
80572SOL     OW43612   4.007   6.681  12.850
80572SOL    HW143613   4.008   6.772  12.822
80572SOL    HW243614   4.099   6.661  12.868
80573SOL     OW43615  10.028   4.502   3.701
80573SOL    HW143616  10.049   4.474   3.791
80573SOL    HW243617  10.014   4.597   3.708
80574SOL     OW43618   8.165   1.533  10.141
80574SOL    HW143619   8.222   1.565  10.071
80574SOL    HW243620   8.179   1.594  10.213
80575SOL     OW43621   8.065   4.836   8.188
80575SOL    HW143622   7.995   4.848   8.123
80575SOL    HW243623   8.077   4.923   8.226
80576SOL     OW43624   8.958   2.683   2.458
80576SOL    HW143625   8.865   2.681   2.438
80576SOL    HW243626   8.969   2.620   2.530
80577SOL     OW43627  12.819   8.284   0.086
80577SOL    HW143628  12.755   8.349   0.116
80577SOL    HW243629  12.799   8.205   0.136
80578SOL     OW43630   4.483   1.788   1.834
80578SOL    HW143631   4.557   1.847   1.814
80578SOL    HW243632   4.510   1.703   1.799
80579SOL     OW43633   9.102   4.792   8.003
80579SOL    HW143634   9.025   4.749   7.967
80579SOL    HW243635   9.074   4.882   8.020
80580SOL     OW43636  12.114   5.179   7.034
80580SOL    HW143637  12.136   5.193   7.126
80580SOL    HW243638  12.019   5.164   7.034
80581SOL     OW43639   8.680   5.820  11.326
80581SOL    HW143640   8.650   5.746  11.273
80581SOL    HW243641   8.770   5.798  11.350
80582SOL     OW43642  10.906   3.517   3.236
80582SOL    HW143643  10.949   3.545   3.155
80582SOL    HW243644  10.958   3.557   3.306
80583SOL     OW43645   6.815   5.056   8.203
80583SOL    HW143646   6.739   5.020   8.157
80583SOL    HW243647   6.838   5.135   8.154
80584SOL     OW43648   8.501  14.832   7.911
80584SOL    HW143649   8.488  14.774   7.986
80584SOL    HW243650   8.545   0.039   7.948
80585SOL     OW43651   4.319  14.213  14.324
80585SOL    HW143652   4.363  14.283  14.372
80585SOL    HW243653   4.390  14.162  14.285
80586SOL     OW43654   3.065   3.822   1.303
80586SOL    HW143655   3.059   3.744   1.359
80586SOL    HW243656   3.032   3.793   1.218
80587SOL     OW43657   9.172  14.765  14.004
80587SOL    HW143658   9.244  14.707  14.030
80587SOL    HW243659   9.186  14.778  13.910
80588SOL     OW43660   3.876  12.050   4.452
80588SOL    HW143661   3.941  11.984   4.430
80588SOL    HW243662   3.890  12.067   4.546
80589SOL     OW43663   6.227  13.148   9.040
80589SOL    HW143664   6.152  13.088   9.041
80589SOL    HW243665   6.197  13.222   8.988
80590SOL     OW43666   1.834   7.385   8.086
80590SOL    HW143667   1.796   7.427   8.163
80590SOL    HW243668   1.798   7.433   8.012
80591SOL     OW43669   4.798  12.987  12.309
80591SOL    HW143670   4.768  13.020  12.394
80591SOL    HW243671   4.746  13.036  12.245
80592SOL     OW43672  13.564   5.064  13.927
80592SOL    HW143673  13.582   4.974  13.899
80592SOL    HW243674  13.604   5.119  13.859
80593SOL     OW43675   0.809  14.173   1.526
80593SOL    HW143676   0.768  14.241   1.472
80593SOL    HW243677   0.754  14.096   1.514
80594SOL     OW43678  11.348  14.206   0.621
80594SOL    HW143679  11.310  14.180   0.537
80594SOL    HW243680  11.438  14.228   0.600
80595SOL     OW43681   5.450   5.303   3.082
80595SOL    HW143682   5.483   5.222   3.122
80595SOL    HW243683   5.421   5.356   3.156
80596SOL     OW43684  14.312   1.834   1.015
80596SOL    HW143685  14.279   1.890   1.085
80596SOL    HW243686  14.344   1.895   0.948
80597SOL     OW43687  13.322   7.855  14.194
80597SOL    HW143688  13.287   7.771  14.164
80597SOL    HW243689  13.307   7.915  14.122
80598SOL     OW43690   4.834   4.805   9.451
80598SOL    HW143691   4.829   4.741   9.522
80598SOL    HW243692   4.744   4.812   9.418
80599SOL     OW43693  13.383  12.564  13.791
80599SOL    HW143694  13.328  12.542  13.716
80599SOL    HW243695  13.322  12.571  13.865
80600SOL     OW43696   7.574   9.349  11.501
80600SOL    HW143697   7.520   9.405  11.446
80600SOL    HW243698   7.534   9.355  11.588
80601SOL     OW43699   9.106   2.813  10.071
80601SOL    HW143700   9.187   2.767  10.049
80601SOL    HW243701   9.135   2.897  10.108
80602SOL     OW43702   1.534   1.373   9.176
80602SOL    HW143703   1.626   1.398   9.165
80602SOL    HW243704   1.496   1.381   9.088
80603SOL     OW43705  11.834  12.452   7.984
80603SOL    HW143706  11.780  12.383   7.945
80603SOL    HW243707  11.869  12.500   7.910
80604SOL     OW43708   7.443   5.947  10.185
80604SOL    HW143709   7.516   5.891  10.210
80604SOL    HW243710   7.481   6.012  10.127
80605SOL     OW43711   6.252   1.424  11.325
80605SOL    HW143712   6.305   1.438  11.403
80605SOL    HW243713   6.308   1.374  11.266
80606SOL     OW43714   9.935  12.736   6.622
80606SOL    HW143715   9.924  12.647   6.656
80606SOL    HW243716  10.026  12.739   6.591
80607SOL     OW43717   5.985   6.332   2.249
80607SOL    HW143718   5.964   6.422   2.225
80607SOL    HW243719   5.904   6.299   2.288
80608SOL     OW43720   0.789   0.495   3.788
80608SOL    HW143721   0.802   0.405   3.759
80608SOL    HW243722   0.704   0.494   3.832
80609SOL     OW43723   9.307   0.358   9.868
80609SOL    HW143724   9.276   0.283   9.818
80609SOL    HW243725   9.291   0.334   9.959
80610SOL     OW43726   3.081   4.822   8.050
80610SOL    HW143727   3.072   4.891   7.984
80610SOL    HW243728   3.149   4.764   8.015
80611SOL     OW43729   9.164  12.028   5.761
80611SOL    HW143730   9.073  12.018   5.731
80611SOL    HW243731   9.157  12.044   5.855
80612SOL     OW43732   3.890  14.367   3.333
80612SOL    HW143733   3.798  14.364   3.310
80612SOL    HW243734   3.907  14.282   3.376
80613SOL     OW43735   7.981  13.404   6.044
80613SOL    HW143736   7.913  13.443   5.989
80613SOL    HW243737   7.978  13.454   6.126
80614SOL     OW43738   7.619   5.422  12.939
80614SOL    HW143739   7.550   5.391  12.880
80614SOL    HW243740   7.631   5.351  13.001
80615SOL     OW43741  12.559   3.112   5.462
80615SOL    HW143742  12.495   3.046   5.492
80615SOL    HW243743  12.506   3.178   5.418
80616SOL     OW43744   2.777  13.276   8.654
80616SOL    HW143745   2.837  13.267   8.580
80616SOL    HW243746   2.718  13.347   8.628
80617SOL     OW43747  10.551   8.334   8.908
80617SOL    HW143748  10.461   8.345   8.937
80617SOL    HW243749  10.544   8.297   8.820
80618SOL     OW43750   0.532   2.097   7.652
80618SOL    HW143751   0.592   2.167   7.625
80618SOL    HW243752   0.445   2.137   7.647
80619SOL     OW43753   3.374   1.187   1.853
80619SOL    HW143754   3.427   1.228   1.785
80619SOL    HW243755   3.284   1.190   1.820
80620SOL     OW43756  13.760   6.528   1.414
80620SOL    HW143757  13.705   6.606   1.415
80620SOL    HW243758  13.787   6.518   1.323
80621SOL     OW43759  11.342  10.617   5.111
80621SOL    HW143760  11.286  10.673   5.056
80621SOL    HW243761  11.331  10.529   5.074
80622SOL     OW43762   9.843   0.913  14.212
80622SOL    HW143763   9.915   0.968  14.243
80622SOL    HW243764   9.772   0.931  14.274
80623SOL     OW43765  14.810   1.673   1.701
80623SOL    HW143766  14.794   1.583   1.671
80623SOL    HW243767   0.024   1.668   1.747
80624SOL     OW43768   9.382  12.427   9.632
80624SOL    HW143769   9.356  12.414   9.724
80624SOL    HW243770   9.304  12.407   9.582
80625SOL     OW43771   8.015   6.854   4.510
80625SOL    HW143772   8.025   6.945   4.538
80625SOL    HW243773   8.006   6.859   4.415
80626SOL     OW43774   7.278   6.649   1.474
80626SOL    HW143775   7.374   6.655   1.474
80626SOL    HW243776   7.248   6.737   1.453
80627SOL     OW43777  11.997   7.436   7.880
80627SOL    HW143778  11.995   7.523   7.920
80627SOL    HW243779  11.906   7.421   7.852
80628SOL     OW43780   2.269   9.115   0.170
80628SOL    HW143781   2.284   9.040   0.112
80628SOL    HW243782   2.221   9.177   0.115
80629SOL     OW43783  14.447  13.204  13.502
80629SOL    HW143784  14.441  13.293  13.536
80629SOL    HW243785  14.501  13.157  13.566
80630SOL     OW43786  11.536   1.057   0.798
80630SOL    HW143787  11.588   1.111   0.737
80630SOL    HW243788  11.535   0.971   0.757
80631SOL     OW43789  13.335   3.170   4.625
80631SOL    HW143790  13.337   3.074   4.615
80631SOL    HW243791  13.422   3.199   4.599
80632SOL     OW43792   8.488   9.014  10.680
80632SOL    HW143793   8.479   8.976  10.768
80632SOL    HW243794   8.467   9.106  10.692
80633SOL     OW43795   4.911   5.860  12.742
80633SOL    HW143796   4.868   5.866  12.827
80633SOL    HW243797   4.864   5.922  12.686
80634SOL     OW43798   6.241  11.067   0.568
80634SOL    HW143799   6.212  11.109   0.648
80634SOL    HW243800   6.199  10.981   0.570
80635SOL     OW43801  12.280   0.682   1.281
80635SOL    HW143802  12.366   0.722   1.298
80635SOL    HW243803  12.280   0.665   1.187
80636SOL     OW43804  14.847   1.754  12.776
80636SOL    HW143805  14.797   1.789  12.702
80636SOL    HW243806  14.782   1.743  12.846
80637SOL     OW43807  11.510   8.277   5.478
80637SOL    HW143808  11.550   8.229   5.551
80637SOL    HW243809  11.538   8.367   5.490
80638SOL     OW43810   3.916  12.405   3.220
80638SOL    HW143811   3.890  12.361   3.139
80638SOL    HW243812   3.882  12.348   3.290
80639SOL     OW43813   0.691  13.673  11.293
80639SOL    HW143814   0.662  13.758  11.328
80639SOL    HW243815   0.748  13.695  11.220
80640SOL     OW43816   4.291   8.876   8.720
80640SOL    HW143817   4.301   8.832   8.636
80640SOL    HW243818   4.372   8.858   8.766
80641SOL     OW43819   2.531   6.870  10.653
80641SOL    HW143820   2.607   6.840  10.703
80641SOL    HW243821   2.508   6.954  10.693
80642SOL     OW43822  12.644  12.667   8.517
80642SOL    HW143823  12.712  12.733   8.531
80642SOL    HW243824  12.616  12.643   8.605
80643SOL     OW43825   1.887   0.489   5.148
80643SOL    HW143826   1.826   0.460   5.080
80643SOL    HW243827   1.896   0.583   5.133
80644SOL     OW43828   8.961   5.855  13.663
80644SOL    HW143829   9.037   5.912  13.677
80644SOL    HW243830   8.962   5.794  13.737
80645SOL     OW43831   3.582  12.008  11.994
80645SOL    HW143832   3.675  12.028  12.001
80645SOL    HW243833   3.576  11.953  11.915
80646SOL     OW43834   1.357   4.660   6.869
80646SOL    HW143835   1.386   4.569   6.884
80646SOL    HW243836   1.414   4.692   6.799
80647SOL     OW43837   7.733   8.200   1.976
80647SOL    HW143838   7.681   8.268   1.932
80647SOL    HW243839   7.736   8.228   2.068
80648SOL     OW43840   8.210   6.393   7.788
80648SOL    HW143841   8.215   6.458   7.718
80648SOL    HW243842   8.283   6.333   7.771
80649SOL     OW43843  14.563   2.659  13.948
80649SOL    HW143844  14.656   2.669  13.931
80649SOL    HW243845  14.553   2.681  14.041
80650SOL     OW43846  12.766   7.632   3.857
80650SOL    HW143847  12.729   7.707   3.810
80650SOL    HW243848  12.787   7.667   3.944
80651SOL     OW43849  12.259  12.597   1.736
80651SOL    HW143850  12.324  12.622   1.670
80651SOL    HW243851  12.176  12.627   1.701
80652SOL     OW43852   0.428  13.274  11.598
80652SOL    HW143853   0.374  13.226  11.660
80652SOL    HW243854   0.488  13.325  11.654
80653SOL     OW43855   2.211   6.421  11.403
80653SOL    HW143856   2.122   6.451  11.384
80653SOL    HW243857   2.232   6.360  11.333
80654SOL     OW43858   2.240   3.527   4.098
80654SOL    HW143859   2.209   3.542   4.009
80654SOL    HW243860   2.223   3.609   4.144
80655SOL     OW43861   5.531   7.737   1.898
80655SOL    HW143862   5.574   7.652   1.911
80655SOL    HW243863   5.603   7.796   1.873
80656SOL     OW43864  13.217   7.610   6.326
80656SOL    HW143865  13.268   7.565   6.259
80656SOL    HW243866  13.279   7.672   6.365
80657SOL     OW43867   5.664  11.542   6.796
80657SOL    HW143868   5.611  11.464   6.780
80657SOL    HW243869   5.754  11.509   6.798
80658SOL     OW43870  13.219   2.781   0.843
80658SOL    HW143871  13.168   2.836   0.783
80658SOL    HW243872  13.296   2.833   0.864
80659SOL     OW43873   7.615   3.281   9.817
80659SOL    HW143874   7.692   3.298   9.762
80659SOL    HW243875   7.579   3.200   9.781
80660SOL     OW43876   2.935  11.735  14.380
80660SOL    HW143877   2.947  11.825  14.411
80660SOL    HW243878   2.849  11.709  14.414
80661SOL     OW43879  12.931   8.455  11.658
80661SOL    HW143880  12.877   8.393  11.608
80661SOL    HW243881  13.021   8.434  11.633
80662SOL     OW43882   1.567   2.449   2.863
80662SOL    HW143883   1.522   2.491   2.790
80662SOL    HW243884   1.570   2.356   2.839
80663SOL     OW43885  11.708  14.741   7.805
80663SOL    HW143886  11.650  14.818   7.814
80663SOL    HW243887  11.655  14.678   7.757
80664SOL     OW43888   3.099  14.790   8.324
80664SOL    HW143889   3.157  14.743   8.384
80664SOL    HW243890   3.041  14.840   8.381
80665SOL     OW43891  11.594   4.331   0.794
80665SOL    HW143892  11.572   4.338   0.702
80665SOL    HW243893  11.526   4.276   0.832
80666SOL     OW43894   7.348  12.195  11.831
80666SOL    HW143895   7.303  12.249  11.766
80666SOL    HW243896   7.366  12.254  11.904
80667SOL     OW43897   7.664   7.947   9.139
80667SOL    HW143898   7.683   8.029   9.094
80667SOL    HW243899   7.744   7.894   9.127
80668SOL     OW43900   9.607   6.049   7.645
80668SOL    HW143901   9.580   5.964   7.681
80668SOL    HW243902   9.545   6.111   7.683
80669SOL     OW43903   8.605   2.910   5.495
80669SOL    HW143904   8.600   2.819   5.466
80669SOL    HW243905   8.580   2.960   5.418
80670SOL     OW43906   0.234  10.073   5.160
80670SOL    HW143907   0.168  10.115   5.216
80670SOL    HW243908   0.183  10.022   5.097
80671SOL     OW43909  11.161   6.742  11.445
80671SOL    HW143910  11.154   6.835  11.425
80671SOL    HW243911  11.124   6.734  11.533
80672SOL     OW43912   2.033  11.544   5.192
80672SOL    HW143913   2.002  11.598   5.119
80672SOL    HW243914   2.056  11.607   5.260
80673SOL     OW43915   4.375   8.768   8.474
80673SOL    HW143916   4.350   8.678   8.452
80673SOL    HW243917   4.459   8.780   8.431
80674SOL     OW43918   0.039   4.959   1.422
80674SOL    HW143919   0.046   5.055   1.417
80674SOL    HW243920  14.866   4.943   1.506
80675SOL     OW43921   6.751   1.806  11.404
80675SOL    HW143922   6.697   1.819  11.326
80675SOL    HW243923   6.705   1.856  11.472
80676SOL     OW43924  14.658   4.377   8.185
80676SOL    HW143925  14.673   4.455   8.131
80676SOL    HW243926  14.737   4.325   8.175
80677SOL     OW43927  10.794   5.232   8.487
80677SOL    HW143928  10.802   5.327   8.491
80677SOL    HW243929  10.710   5.217   8.443
80678SOL     OW43930  13.147   1.823  11.607
80678SOL    HW143931  13.222   1.879  11.584
80678SOL    HW243932  13.142   1.759  11.536
80679SOL     OW43933  11.631  13.922   5.880
80679SOL    HW143934  11.710  13.879   5.849
80679SOL    HW243935  11.594  13.862   5.945
80680SOL     OW43936   8.206   7.047   2.661
80680SOL    HW143937   8.248   7.056   2.746
80680SOL    HW243938   8.113   7.037   2.681
80681SOL     OW43939  10.643  10.745   7.978
80681SOL    HW143940  10.601  10.685   7.916
80681SOL    HW243941  10.729  10.707   7.993
80682SOL     OW43942   1.968  10.450  10.196
80682SOL    HW143943   1.926  10.419  10.276
80682SOL    HW243944   2.058  10.469  10.222
80683SOL     OW43945   9.533  10.839  14.435
80683SOL    HW143946   9.542  10.775  14.505
80683SOL    HW243947   9.611  10.894  14.443
80684SOL     OW43948   2.006   2.084   3.970
80684SOL    HW143949   2.018   2.173   3.939
80684SOL    HW243950   2.010   2.030   3.891
80685SOL     OW43951   2.517   0.898   2.145
80685SOL    HW143952   2.573   0.904   2.067
80685SOL    HW243953   2.534   0.810   2.179
80686SOL     OW43954  11.673  12.935  14.358
80686SOL    HW143955  11.753  12.954  14.310
80686SOL    HW243956  11.616  13.010  14.341
80687SOL     OW43957   2.622   5.317   0.911
80687SOL    HW143958   2.532   5.345   0.929
80687SOL    HW243959   2.626   5.311   0.816
80688SOL     OW43960   9.348   8.189  10.643
80688SOL    HW143961   9.395   8.128  10.700
80688SOL    HW243962   9.416   8.241  10.601
80689SOL     OW43963   8.762  13.128   6.171
80689SOL    HW143964   8.672  13.145   6.142
80689SOL    HW243965   8.754  13.052   6.229
80690SOL     OW43966   9.885   7.760  13.952
80690SOL    HW143967   9.837   7.738  13.872
80690SOL    HW243968   9.829   7.727  14.022
80691SOL     OW43969   5.823   1.863  14.207
80691SOL    HW143970   5.757   1.797  14.185
80691SOL    HW243971   5.907   1.819  14.194
80692SOL     OW43972   4.278   3.150  13.431
80692SOL    HW143973   4.191   3.111  13.428
80692SOL    HW243974   4.275   3.222  13.368
80693SOL     OW43975   4.712   4.678   4.109
80693SOL    HW143976   4.805   4.659   4.098
80693SOL    HW243977   4.667   4.602   4.072
80694SOL     OW43978   5.281   4.469   1.964
80694SOL    HW143979   5.301   4.375   1.962
80694SOL    HW243980   5.366   4.511   1.956
80695SOL     OW43981  12.117   7.436   9.944
80695SOL    HW143982  12.122   7.508  10.007
80695SOL    HW243983  12.058   7.468   9.876
80696SOL     OW43984   9.592   4.169  11.000
80696SOL    HW143985   9.565   4.251  10.958
80696SOL    HW243986   9.517   4.144  11.054
80697SOL     OW43987   2.914  12.172   2.489
80697SOL    HW143988   2.953  12.177   2.402
80697SOL    HW243989   2.987  12.190   2.549
80698SOL     OW43990   6.811   6.284   9.911
80698SOL    HW143991   6.849   6.372   9.915
80698SOL    HW243992   6.845   6.247   9.830
80699SOL     OW43993   8.145   7.383   9.130
80699SOL    HW143994   8.238   7.402   9.119
80699SOL    HW243995   8.104   7.423   9.054
80700SOL     OW43996  10.394   8.754   2.269
80700SOL    HW143997  10.389   8.670   2.315
80700SOL    HW243998  10.313   8.799   2.292
80701SOL     OW43999   3.259   6.670  13.514
80701SOL    HW144000   3.312   6.608  13.464
80701SOL    HW244001   3.255   6.748  13.458
80702SOL     OW44002   0.492  13.459   7.638
80702SOL    HW144003   0.528  13.375   7.613
80702SOL    HW244004   0.566  13.519   7.637
80703SOL     OW44005   1.479   1.249   6.271
80703SOL    HW144006   1.418   1.240   6.198
80703SOL    HW244007   1.437   1.312   6.329
80704SOL     OW44008   6.286   5.864   8.438
80704SOL    HW144009   6.337   5.783   8.437
80704SOL    HW244010   6.348   5.933   8.415
80705SOL     OW44011  10.987   6.105   5.590
80705SOL    HW144012  10.972   6.010   5.589
80705SOL    HW244013  11.078   6.114   5.621
80706SOL     OW44014   5.005   5.645  11.280
80706SOL    HW144015   4.955   5.712  11.234
80706SOL    HW244016   4.943   5.573  11.292
80707SOL     OW44017   2.005  11.820  11.787
80707SOL    HW144018   1.966  11.895  11.742
80707SOL    HW244019   2.037  11.763  11.717
80708SOL     OW44020   0.587  11.717  11.490
80708SOL    HW144021   0.581  11.812  11.482
80708SOL    HW244022   0.499  11.690  11.517
80709SOL     OW44023  11.023  10.470   5.869
80709SOL    HW144024  10.948  10.442   5.921
80709SOL    HW244025  11.099  10.432   5.914
80710SOL     OW44026   0.804   9.864   4.686
80710SOL    HW144027   0.878   9.803   4.685
80710SOL    HW244028   0.839   9.944   4.724
80711SOL     OW44029   0.301   7.243   9.391
80711SOL    HW144030   0.327   7.175   9.454
80711SOL    HW244031   0.364   7.234   9.319
80712SOL     OW44032  11.202   7.365   6.031
80712SOL    HW144033  11.185   7.454   6.002
80712SOL    HW244034  11.282   7.371   6.083
80713SOL     OW44035   7.961   0.312   5.719
80713SOL    HW144036   7.979   0.259   5.642
80713SOL    HW244037   7.886   0.269   5.760
80714SOL     OW44038   8.081  10.323   8.387
80714SOL    HW144039   8.029  10.348   8.463
80714SOL    HW244040   8.172  10.341   8.414
80715SOL     OW44041   6.704   9.508   7.366
80715SOL    HW144042   6.715   9.457   7.285
80715SOL    HW244043   6.678   9.595   7.335
80716SOL     OW44044  13.383   7.681   4.298
80716SOL    HW144045  13.401   7.700   4.390
80716SOL    HW244046  13.296   7.642   4.299
80717SOL     OW44047  14.489   7.623   4.131
80717SOL    HW144048  14.425   7.675   4.180
80717SOL    HW244049  14.442   7.543   4.107
80718SOL     OW44050  13.010   6.454  12.852
80718SOL    HW144051  13.015   6.375  12.905
80718SOL    HW244052  12.926   6.447  12.806
80719SOL     OW44053   9.842   7.255   7.801
80719SOL    HW144054   9.779   7.277   7.869
80719SOL    HW244055   9.821   7.165   7.777
80720SOL     OW44056   1.713   3.905  13.127
80720SOL    HW144057   1.748   3.909  13.038
80720SOL    HW244058   1.632   3.853  13.119
80721SOL     OW44059   9.278   3.024   0.269
80721SOL    HW144060   9.320   3.079   0.335
80721SOL    HW244061   9.186   3.021   0.295
80722SOL     OW44062   0.169   2.715   5.955
80722SOL    HW144063   0.228   2.714   6.031
80722SOL    HW244064   0.217   2.669   5.887
80723SOL     OW44065   2.485  11.489   8.551
80723SOL    HW144066   2.471  11.563   8.611
80723SOL    HW244067   2.509  11.416   8.608
80724SOL     OW44068   7.298   3.075   5.095
80724SOL    HW144069   7.393   3.073   5.082
80724SOL    HW244070   7.262   3.053   5.009
80725SOL     OW44071   9.481   4.193  10.206
80725SOL    HW144072   9.557   4.250  10.193
80725SOL    HW244073   9.484   4.168  10.298
80726SOL     OW44074   2.376   8.510  12.541
80726SOL    HW144075   2.433   8.496  12.617
80726SOL    HW244076   2.346   8.600  12.550
80727SOL     OW44077  14.338  12.335  10.023
80727SOL    HW144078  14.313  12.427  10.031
80727SOL    HW244079  14.434  12.337  10.028
80728SOL     OW44080  12.595  13.521   8.646
80728SOL    HW144081  12.511  13.566   8.656
80728SOL    HW244082  12.660  13.592   8.641
80729SOL     OW44083   5.822  13.733   7.711
80729SOL    HW144084   5.868  13.655   7.679
80729SOL    HW244085   5.884  13.804   7.696
80730SOL     OW44086  13.223   1.408  12.754
80730SOL    HW144087  13.242   1.472  12.822
80730SOL    HW244088  13.308   1.390  12.714
80731SOL     OW44089  10.704   1.131   4.459
80731SOL    HW144090  10.737   1.048   4.495
80731SOL    HW244091  10.645   1.164   4.527
80732SOL     OW44092   1.324   8.503   6.752
80732SOL    HW144093   1.251   8.444   6.770
80732SOL    HW244094   1.377   8.458   6.686
80733SOL     OW44095  11.261  10.141   8.921
80733SOL    HW144096  11.238  10.049   8.933
80733SOL    HW244097  11.263  10.178   9.009
80734SOL     OW44098  14.589   8.371  10.793
80734SOL    HW144099  14.524   8.314  10.751
80734SOL    HW244100  14.615   8.324  10.872
80735SOL     OW44101   9.067   6.139   2.787
80735SOL    HW144102   9.155   6.102   2.796
80735SOL    HW244103   9.010   6.076   2.830
80736SOL     OW44104   0.724   9.426   7.414
80736SOL    HW144105   0.792   9.479   7.455
80736SOL    HW244106   0.761   9.338   7.411
80737SOL     OW44107  13.184   9.973   3.625
80737SOL    HW144108  13.230   9.909   3.572
80737SOL    HW244109  13.152   9.923   3.700
80738SOL     OW44110  12.222   1.804   6.354
80738SOL    HW144111  12.283   1.851   6.412
80738SOL    HW244112  12.277   1.772   6.283
80739SOL     OW44113   7.958   9.642  13.407
80739SOL    HW144114   7.998   9.635  13.321
80739SOL    HW244115   8.000   9.575  13.460
80740SOL     OW44116  10.792  12.743  10.718
80740SOL    HW144117  10.704  12.713  10.696
80740SOL    HW244118  10.842  12.662  10.728
80741SOL     OW44119   8.119   4.985   9.631
80741SOL    HW144120   8.211   4.999   9.652
80741SOL    HW244121   8.113   4.999   9.537
80742SOL     OW44122   0.825   7.723  11.048
80742SOL    HW144123   0.777   7.783  11.105
80742SOL    HW244124   0.846   7.775  10.971
80743SOL     OW44125   0.777  14.230   5.248
80743SOL    HW144126   0.777  14.294   5.176
80743SOL    HW244127   0.715  14.162   5.219
80744SOL     OW44128   3.482   4.576   6.323
80744SOL    HW144129   3.541   4.606   6.393
80744SOL    HW244130   3.537   4.575   6.245
80745SOL     OW44131   9.758   7.686   1.820
80745SOL    HW144132   9.665   7.666   1.829
80745SOL    HW244133   9.765   7.779   1.843
80746SOL     OW44134   3.592   3.513   7.808
80746SOL    HW144135   3.549   3.431   7.785
80746SOL    HW244136   3.614   3.502   7.901
80747SOL     OW44137   8.315   0.502  13.944
80747SOL    HW144138   8.234   0.452  13.933
80747SOL    HW244139   8.305   0.546  14.028
80748SOL     OW44140  14.732  12.824   0.138
80748SOL    HW144141  14.772  12.899   0.093
80748SOL    HW244142  14.788  12.809   0.214
80749SOL     OW44143   3.146  11.071   3.254
80749SOL    HW144144   3.200  11.015   3.310
80749SOL    HW244145   3.080  11.012   3.218
80750SOL     OW44146  14.586  13.718  12.490
80750SOL    HW144147  14.608  13.701  12.398
80750SOL    HW244148  14.490  13.721  12.491
80751SOL     OW44149   8.524  14.371   6.756
80751SOL    HW144150   8.512  14.304   6.689
80751SOL    HW244151   8.581  14.331   6.821
80752SOL     OW44152   3.024  13.636  12.305
80752SOL    HW144153   3.025  13.723  12.344
80752SOL    HW244154   3.112  13.601  12.321
80753SOL     OW44155   1.022   8.207   1.919
80753SOL    HW144156   1.097   8.215   1.861
80753SOL    HW244157   0.972   8.134   1.883
80754SOL     OW44158   9.046  13.288  11.775
80754SOL    HW144159   9.064  13.213  11.718
80754SOL    HW244160   9.069  13.365  11.722
80755SOL     OW44161   1.899   2.221   5.474
80755SOL    HW144162   1.923   2.188   5.388
80755SOL    HW244163   1.964   2.288   5.494
80756SOL     OW44164   3.981   9.131   5.176
80756SOL    HW144165   4.021   9.066   5.118
80756SOL    HW244166   3.956   9.202   5.118
80757SOL     OW44167   4.314  13.013   2.488
80757SOL    HW144168   4.261  13.071   2.433
80757SOL    HW244169   4.313  13.053   2.575
80758SOL     OW44170   2.336  11.660  12.973
80758SOL    HW144171   2.312  11.579  12.930
80758SOL    HW244172   2.350  11.635  13.065
80759SOL     OW44173   1.174   4.432   7.644
80759SOL    HW144174   1.082   4.456   7.630
80759SOL    HW244175   1.171   4.367   7.714
80760SOL     OW44176  12.391  12.320  14.450
80760SOL    HW144177  12.370  12.341  14.541
80760SOL    HW244178  12.326  12.367  14.398
80761SOL     OW44179   1.884   9.471  10.453
80761SOL    HW144180   1.954   9.530  10.427
80761SOL    HW244181   1.877   9.408  10.381
80762SOL     OW44182  14.610   4.586   7.382
80762SOL    HW144183  14.541   4.647   7.358
80762SOL    HW244184  14.630   4.539   7.300
80763SOL     OW44185   8.077   2.746   7.030
80763SOL    HW144186   8.139   2.714   6.964
80763SOL    HW244187   7.997   2.695   7.015
80764SOL     OW44188   0.483   6.527   2.039
80764SOL    HW144189   0.504   6.589   2.109
80764SOL    HW244190   0.388   6.536   2.026
80765SOL     OW44191  12.951   8.479   1.017
80765SOL    HW144192  13.017   8.457   0.952
80765SOL    HW244193  13.000   8.493   1.098
80766SOL     OW44194   7.964   0.090   4.267
80766SOL    HW144195   7.895   0.041   4.313
80766SOL    HW244196   7.927   0.108   4.181
80767SOL     OW44197   0.260   6.714   9.678
80767SOL    HW144198   0.344   6.678   9.706
80767SOL    HW244199   0.282   6.777   9.610
80768SOL     OW44200   4.262  14.404   5.614
80768SOL    HW144201   4.196  14.408   5.684
80768SOL    HW244202   4.338  14.449   5.650
80769SOL     OW44203   9.025   8.617  10.109
80769SOL    HW144204   9.105   8.605  10.160
80769SOL    HW244205   9.055   8.641  10.021
80770SOL     OW44206  13.670   1.380  11.905
80770SOL    HW144207  13.729   1.452  11.931
80770SOL    HW244208  13.591   1.394  11.957
80771SOL     OW44209   1.645  11.921   1.615
80771SOL    HW144210   1.557  11.935   1.580
80771SOL    HW244211   1.640  11.956   1.704
80772SOL     OW44212   9.578  13.102  13.464
80772SOL    HW144213   9.660  13.105  13.416
80772SOL    HW244214   9.541  13.190  13.454
80773SOL     OW44215   8.977   8.299   7.177
80773SOL    HW144216   8.990   8.388   7.211
80773SOL    HW244217   9.063   8.273   7.146
80774SOL     OW44218   4.018   5.971   5.718
80774SOL    HW144219   3.984   6.041   5.662
80774SOL    HW244220   4.081   5.924   5.663
80775SOL     OW44221   3.474   3.941   4.868
80775SOL    HW144222   3.518   3.866   4.827
80775SOL    HW244223   3.451   3.998   4.795
80776SOL     OW44224  12.388  11.290   9.743
80776SOL    HW144225  12.438  11.369   9.763
80776SOL    HW244226  12.418  11.265   9.655
80777SOL     OW44227   0.598  10.410   6.602
80777SOL    HW144228   0.605  10.364   6.519
80777SOL    HW244229   0.562  10.496   6.579
80778SOL     OW44230  10.894  11.248   3.640
80778SOL    HW144231  10.801  11.241   3.620
80778SOL    HW244232  10.916  11.166   3.683
80779SOL     OW44233   7.896  14.675   3.407
80779SOL    HW144234   7.803  14.653   3.397
80779SOL    HW244235   7.938  14.591   3.425
80780SOL     OW44236  14.306   2.723   9.325
80780SOL    HW144237  14.278   2.671   9.401
80780SOL    HW244238  14.401   2.713   9.324
80781SOL     OW44239  10.491  13.479   4.850
80781SOL    HW144240  10.538  13.428   4.784
80781SOL    HW244241  10.411  13.429   4.866
80782SOL     OW44242  14.186   6.680  10.677
80782SOL    HW144243  14.210   6.697  10.768
80782SOL    HW244244  14.213   6.760  10.630
80783SOL     OW44245   8.339  14.134   0.942
80783SOL    HW144246   8.286  14.141   1.021
80783SOL    HW244247   8.374  14.045   0.944
80784SOL     OW44248  14.683  14.106   4.296
80784SOL    HW144249  14.695  14.011   4.300
80784SOL    HW244250  14.597  14.118   4.258
80785SOL     OW44251  14.261   4.981   6.567
80785SOL    HW144252  14.284   5.066   6.530
80785SOL    HW244253  14.189   5.000   6.627
80786SOL     OW44254   8.801  12.618   6.938
80786SOL    HW144255   8.781  12.711   6.950
80786SOL    HW244256   8.780  12.577   7.022
80787SOL     OW44257   6.316   0.446   6.598
80787SOL    HW144258   6.357   0.376   6.648
80787SOL    HW244259   6.386   0.481   6.543
80788SOL     OW44260  13.200   4.131   4.094
80788SOL    HW144261  13.257   4.181   4.035
80788SOL    HW244262  13.120   4.116   4.044
80789SOL     OW44263   9.303   6.965  14.866
80789SOL    HW144264   9.322   7.057   0.013
80789SOL    HW244265   9.218   6.950   0.037
80790SOL     OW44266   6.580   2.777   5.036
80790SOL    HW144267   6.528   2.822   4.970
80790SOL    HW244268   6.516   2.742   5.098
80791SOL     OW44269   4.664   1.024  11.667
80791SOL    HW144270   4.664   1.115  11.638
80791SOL    HW244271   4.697   0.975  11.591
80792SOL     OW44272  14.819  14.616  14.254
80792SOL    HW144273   0.035  14.652  14.232
80792SOL    HW244274  14.757  14.680  14.219
80793SOL     OW44275   6.257  11.202   8.673
80793SOL    HW144276   6.314  11.201   8.750
80793SOL    HW244277   6.175  11.164   8.704
80794SOL     OW44278  12.056  12.908  10.291
80794SOL    HW144279  11.977  12.950  10.257
80794SOL    HW244280  12.052  12.818  10.259
80795SOL     OW44281  14.637  10.497   5.723
80795SOL    HW144282  14.624  10.591   5.733
80795SOL    HW244283  14.609  10.479   5.633
80796SOL     OW44284  12.719  11.176   8.215
80796SOL    HW144285  12.776  11.154   8.288
80796SOL    HW244286  12.772  11.158   8.137
80797SOL     OW44287   4.324   7.814   0.247
80797SOL    HW144288   4.348   7.848   0.161
80797SOL    HW244289   4.288   7.727   0.230
80798SOL     OW44290  14.807  13.551   0.012
80798SOL    HW144291  14.727  13.504   0.034
80798SOL    HW244292  14.870  13.525   0.079
80799SOL     OW44293   2.034   9.325   1.905
80799SOL    HW144294   2.110   9.302   1.851
80799SOL    HW244295   1.963   9.271   1.870
80800SOL     OW44296   1.642   8.732   7.828
80800SOL    HW144297   1.728   8.772   7.812
80800SOL    HW244298   1.656   8.639   7.810
80801SOL     OW44299   6.873   3.025   9.083
80801SOL    HW144300   6.817   2.947   9.086
80801SOL    HW244301   6.962   2.991   9.081
80802SOL     OW44302   8.372   5.126  12.668
80802SOL    HW144303   8.392   5.160  12.580
80802SOL    HW244304   8.370   5.031  12.657
80803SOL     OW44305   7.442  10.452   9.311
80803SOL    HW144306   7.396  10.534   9.329
80803SOL    HW244307   7.373  10.387   9.299
80804SOL     OW44308   2.398   7.480  14.023
80804SOL    HW144309   2.455   7.491  14.098
80804SOL    HW244310   2.396   7.565  13.980
80805SOL     OW44311   4.842   9.064   1.546
80805SOL    HW144312   4.787   9.040   1.471
80805SOL    HW244313   4.929   9.076   1.508
80806SOL     OW44314  12.225   7.441   7.203
80806SOL    HW144315  12.138   7.464   7.169
80806SOL    HW244316  12.213   7.436   7.298
80807SOL     OW44317  13.461   0.850   4.204
80807SOL    HW144318  13.522   0.807   4.265
80807SOL    HW244319  13.378   0.853   4.251
80808SOL     OW44320  13.240   0.098   4.082
80808SOL    HW144321  13.307   0.031   4.095
80808SOL    HW244322  13.288   0.181   4.090
80809SOL     OW44323   5.602  10.678  12.457
80809SOL    HW144324   5.642  10.749  12.407
80809SOL    HW244325   5.559  10.722  12.531
80810SOL     OW44326   3.511   2.339   4.867
80810SOL    HW144327   3.598   2.362   4.835
80810SOL    HW244328   3.486   2.262   4.816
80811SOL     OW44329   0.978   1.792  10.684
80811SOL    HW144330   1.039   1.808  10.755
80811SOL    HW244331   0.898   1.763  10.728
80812SOL     OW44332   1.455   0.189   7.420
80812SOL    HW144333   1.385   0.229   7.368
80812SOL    HW244334   1.523   0.167   7.357
80813SOL     OW44335   5.640  12.211  10.516
80813SOL    HW144336   5.566  12.172  10.470
80813SOL    HW244337   5.717  12.165  10.482
80814SOL     OW44338   2.425   5.040   9.660
80814SOL    HW144339   2.472   4.957   9.670
80814SOL    HW244340   2.493   5.107   9.671
80815SOL     OW44341   5.017   5.517  12.217
80815SOL    HW144342   5.086   5.566  12.261
80815SOL    HW244343   5.037   5.525  12.124
80816SOL     OW44344   5.046  13.199   5.889
80816SOL    HW144345   4.990  13.152   5.827
80816SOL    HW244346   5.088  13.267   5.837
80817SOL     OW44347  11.942   2.384   4.767
80817SOL    HW144348  11.982   2.297   4.765
80817SOL    HW244349  11.910   2.393   4.857
80818SOL     OW44350  12.228   3.877   3.310
80818SOL    HW144351  12.218   3.810   3.242
80818SOL    HW244352  12.165   3.853   3.377
80819SOL     OW44353   1.503   0.239   9.838
80819SOL    HW144354   1.565   0.302   9.803
80819SOL    HW244355   1.534   0.221   9.927
80820SOL     OW44356   5.916   3.199   6.350
80820SOL    HW144357   5.933   3.261   6.421
80820SOL    HW244358   5.954   3.240   6.273
80821SOL     OW44359   1.868   7.188   9.854
80821SOL    HW144360   1.920   7.192   9.935
80821SOL    HW244361   1.906   7.115   9.805
80822SOL     OW44362   9.612   7.157  14.223
80822SOL    HW144363   9.552   7.224  14.256
80822SOL    HW244364   9.688   7.206  14.192
80823SOL     OW44365   5.295   5.276  11.257
80823SOL    HW144366   5.251   5.338  11.198
80823SOL    HW244367   5.373   5.250  11.209
80824SOL     OW44368   5.732   1.867   4.159
80824SOL    HW144369   5.738   1.955   4.195
80824SOL    HW244370   5.676   1.877   4.082
80825SOL     OW44371  14.557   6.316  13.671
80825SOL    HW144372  14.570   6.401  13.714
80825SOL    HW244373  14.600   6.253  13.728
80826SOL     OW44374   8.307  14.475   3.585
80826SOL    HW144375   8.390  14.510   3.617
80826SOL    HW244376   8.240  14.528   3.629
80827SOL     OW44377  11.714   2.646  14.770
80827SOL    HW144378  11.652   2.595  14.718
80827SOL    HW244379  11.660   2.708  14.819
80828SOL     OW44380  14.311  10.828   9.793
80828SOL    HW144381  14.298  10.921   9.775
80828SOL    HW244382  14.403  10.820   9.816
80829SOL     OW44383   6.544   0.285   2.051
80829SOL    HW144384   6.536   0.247   1.963
80829SOL    HW244385   6.633   0.262   2.079
80830SOL     OW44386  12.282   4.071   8.504
80830SOL    HW144387  12.313   4.098   8.418
80830SOL    HW244388  12.210   4.131   8.524
80831SOL     OW44389  13.790   4.140  10.958
80831SOL    HW144390  13.774   4.142  11.053
80831SOL    HW244391  13.704   4.156  10.919
80832SOL     OW44392   4.880   0.511   3.155
80832SOL    HW144393   4.946   0.579   3.138
80832SOL    HW244394   4.817   0.521   3.084
80833SOL     OW44395  11.218  10.568   4.341
80833SOL    HW144396  11.137  10.521   4.362
80833SOL    HW244397  11.268  10.568   4.422
80834SOL     OW44398   9.225   1.099  14.650
80834SOL    HW144399   9.269   1.146  14.579
80834SOL    HW244400   9.252   1.146  14.729
80835SOL     OW44401   2.821  10.034   0.894
80835SOL    HW144402   2.810  10.023   0.988
80835SOL    HW244403   2.887   9.969   0.870
80836SOL     OW44404   6.719  13.391   0.385
80836SOL    HW144405   6.681  13.478   0.382
80836SOL    HW244406   6.732  13.374   0.478
80837SOL     OW44407   4.360   3.460   6.329
80837SOL    HW144408   4.304   3.411   6.389
80837SOL    HW244409   4.424   3.396   6.297
80838SOL     OW44410   4.766   5.142  14.160
80838SOL    HW144411   4.799   5.207  14.097
80838SOL    HW244412   4.712   5.193  14.220
80839SOL     OW44413   1.437   0.583   1.378
80839SOL    HW144414   1.452   0.635   1.299
80839SOL    HW244415   1.518   0.532   1.388
80840SOL     OW44416   2.262   6.850   7.167
80840SOL    HW144417   2.338   6.834   7.222
80840SOL    HW244418   2.290   6.920   7.107
80841SOL     OW44419   4.012   2.644   8.957
80841SOL    HW144420   4.071   2.585   9.004
80841SOL    HW244421   4.069   2.711   8.920
80842SOL     OW44422  14.141   4.795   8.889
80842SOL    HW144423  14.234   4.799   8.911
80842SOL    HW244424  14.100   4.751   8.963
80843SOL     OW44425   1.434  13.018   8.586
80843SOL    HW144426   1.355  13.037   8.635
80843SOL    HW244427   1.465  12.935   8.622
80844SOL     OW44428   9.926   1.311   6.078
80844SOL    HW144429   9.983   1.241   6.047
80844SOL    HW244430   9.889   1.350   5.999
80845SOL     OW44431   2.406   5.657  13.432
80845SOL    HW144432   2.426   5.734  13.485
80845SOL    HW244433   2.423   5.685  13.342
80846SOL     OW44434   1.642   1.100   4.042
80846SOL    HW144435   1.642   1.080   3.948
80846SOL    HW244436   1.611   1.190   4.047
80847SOL     OW44437   5.401   4.079   4.178
80847SOL    HW144438   5.356   4.003   4.215
80847SOL    HW244439   5.469   4.042   4.122
80848SOL     OW44440  14.273   3.223   8.870
80848SOL    HW144441  14.259   3.316   8.854
80848SOL    HW244442  14.237   3.208   8.957
80849SOL     OW44443   9.580   9.178  14.729
80849SOL    HW144444   9.659   9.202  14.681
80849SOL    HW244445   9.609   9.108  14.789
80850SOL     OW44446  13.860   1.431   6.208
80850SOL    HW144447  13.893   1.392   6.127
80850SOL    HW244448  13.936   1.473   6.248
80851SOL     OW44449   9.921  11.454   0.344
80851SOL    HW144450   9.891  11.463   0.254
80851SOL    HW244451   9.924  11.543   0.378
80852SOL     OW44452   1.276   1.700  11.021
80852SOL    HW144453   1.237   1.786  11.002
80852SOL    HW244454   1.304   1.667  10.936
80853SOL     OW44455   1.318   9.883   7.203
80853SOL    HW144456   1.235   9.929   7.213
80853SOL    HW244457   1.295   9.790   7.207
80854SOL     OW44458   3.913   2.767  13.349
80854SOL    HW144459   3.858   2.844  13.335
80854SOL    HW244460   3.884   2.704  13.284
80855SOL     OW44461   4.294   1.768   2.731
80855SOL    HW144462   4.276   1.710   2.805
80855SOL    HW244463   4.245   1.848   2.751
80856SOL     OW44464  11.843   1.006   4.899
80856SOL    HW144465  11.933   1.038   4.893
80856SOL    HW244466  11.851   0.921   4.942
80857SOL     OW44467   9.626   2.947   0.380
80857SOL    HW144468   9.602   2.858   0.407
80857SOL    HW244469   9.643   2.993   0.462
80858SOL     OW44470   2.199   9.871   3.042
80858SOL    HW144471   2.230   9.948   2.993
80858SOL    HW244472   2.107   9.890   3.060
80859SOL     OW44473   9.527   6.238  14.160
80859SOL    HW144474   9.613   6.197  14.171
80859SOL    HW244475   9.546   6.331  14.153
80860SOL     OW44476   7.992  10.448   4.699
80860SOL    HW144477   7.902  10.467   4.673
80860SOL    HW244478   8.046  10.499   4.637
80861SOL     OW44479   7.579   0.437  12.506
80861SOL    HW144480   7.587   0.399  12.419
80861SOL    HW244481   7.614   0.370  12.565
80862SOL     OW44482  10.456  10.469   9.746
80862SOL    HW144483  10.416  10.484   9.660
80862SOL    HW244484  10.439  10.377   9.765
80863SOL     OW44485  12.878   0.070  12.478
80863SOL    HW144486  12.938   0.022  12.536
80863SOL    HW244487  12.791   0.056  12.516
80864SOL     OW44488  10.691   8.250   0.104
80864SOL    HW144489  10.628   8.179   0.092
80864SOL    HW244490  10.720   8.241   0.195
80865SOL     OW44491   6.120  14.377   8.992
80865SOL    HW144492   6.186  14.394   8.924
80865SOL    HW244493   6.167  14.389   9.074
80866SOL     OW44494  14.656   8.804  12.029
80866SOL    HW144495  14.671   8.848  11.946
80866SOL    HW244496  14.566   8.772  12.023
80867SOL     OW44497   4.906   6.517   1.594
80867SOL    HW144498   4.988   6.564   1.610
80867SOL    HW244499   4.934   6.435   1.553
80868SOL     OW44500   0.411   7.564   5.575
80868SOL    HW144501   0.448   7.514   5.647
80868SOL    HW244502   0.380   7.645   5.616
80869SOL     OW44503  12.511   3.027   0.484
80869SOL    HW144504  12.593   3.064   0.454
80869SOL    HW244505  12.536   2.968   0.556
80870SOL     OW44506   7.479   5.997  11.236
80870SOL    HW144507   7.449   6.009  11.146
80870SOL    HW244508   7.449   6.075  11.283
80871SOL     OW44509   7.973   2.713   2.500
80871SOL    HW144510   7.887   2.672   2.497
80871SOL    HW244511   7.965   2.791   2.445
80872SOL     OW44512   3.903  11.492   8.685
80872SOL    HW144513   3.944  11.474   8.770
80872SOL    HW244514   3.862  11.409   8.660
80873SOL     OW44515   7.491  13.868  13.612
80873SOL    HW144516   7.414  13.895  13.562
80873SOL    HW244517   7.485  13.917  13.694
80874SOL     OW44518   6.084  11.240   2.439
80874SOL    HW144519   6.035  11.157   2.441
80874SOL    HW244520   6.126  11.241   2.354
80875SOL     OW44521   0.038  10.156   5.864
80875SOL    HW144522  14.840  10.112   5.916
80875SOL    HW244523   0.014  10.249   5.868
80876SOL     OW44524   0.526   3.329   4.362
80876SOL    HW144525   0.594   3.356   4.300
80876SOL    HW244526   0.458   3.396   4.353
80877SOL     OW44527   3.008  10.335   0.544
80877SOL    HW144528   2.965  10.420   0.550
80877SOL    HW244529   2.976  10.287   0.620
80878SOL     OW44530   6.341  12.759   9.542
80878SOL    HW144531   6.306  12.675   9.511
80878SOL    HW244532   6.429  12.763   9.506
80879SOL     OW44533  12.060  13.379   8.614
80879SOL    HW144534  12.086  13.288   8.620
80879SOL    HW244535  12.140  13.429   8.628
80880SOL     OW44536  13.009   3.770   0.356
80880SOL    HW144537  12.938   3.717   0.319
80880SOL    HW244538  13.074   3.775   0.287
80881SOL     OW44539   2.388   9.803   3.903
80881SOL    HW144540   2.377   9.887   3.947
80881SOL    HW244541   2.401   9.740   3.974
80882SOL     OW44542   7.683   8.031   5.903
80882SOL    HW144543   7.703   7.940   5.880
80882SOL    HW244544   7.723   8.082   5.833
80883SOL     OW44545  14.242   6.681   4.471
80883SOL    HW144546  14.319   6.724   4.434
80883SOL    HW244547  14.195   6.751   4.517
80884SOL     OW44548   6.719  12.273   3.343
80884SOL    HW144549   6.670  12.290   3.423
80884SOL    HW244550   6.811  12.284   3.368
80885SOL     OW44551  12.096   8.851  13.765
80885SOL    HW144552  12.176   8.817  13.804
80885SOL    HW244553  12.063   8.780  13.711
80886SOL     OW44554   8.265   4.202   9.925
80886SOL    HW144555   8.190   4.147   9.903
80886SOL    HW244556   8.262   4.273   9.861
80887SOL     OW44557   4.890   4.055  13.470
80887SOL    HW144558   4.906   4.017  13.557
80887SOL    HW244559   4.851   4.141  13.489
80888SOL     OW44560   0.561  14.368   2.012
80888SOL    HW144561   0.589  14.376   1.921
80888SOL    HW244562   0.481  14.421   2.016
80889SOL     OW44563   5.959   7.084   8.122
80889SOL    HW144564   5.962   7.174   8.154
80889SOL    HW244565   5.976   7.030   8.200
80890SOL     OW44566   4.445  11.049  12.272
80890SOL    HW144567   4.405  11.006  12.348
80890SOL    HW244568   4.383  11.119  12.250
80891SOL     OW44569   4.960   8.420  10.014
80891SOL    HW144570   5.046   8.463  10.012
80891SOL    HW244571   4.901   8.483   9.973
80892SOL     OW44572   7.861   7.231   2.032
80892SOL    HW144573   7.938   7.275   1.994
80892SOL    HW244574   7.816   7.193   1.956
80893SOL     OW44575   2.680   4.206   4.129
80893SOL    HW144576   2.748   4.158   4.176
80893SOL    HW244577   2.623   4.138   4.093
80894SOL     OW44578   3.488   1.109   5.806
80894SOL    HW144579   3.461   1.068   5.888
80894SOL    HW244580   3.559   1.054   5.774
80895SOL     OW44581  12.102  12.891   5.476
80895SOL    HW144582  12.057  12.849   5.403
80895SOL    HW244583  12.032  12.932   5.527
80896SOL     OW44584   3.291   0.887   5.243
80896SOL    HW144585   3.208   0.934   5.251
80896SOL    HW244586   3.337   0.933   5.172
80897SOL     OW44587   2.557   5.558  10.829
80897SOL    HW144588   2.652   5.553  10.818
80897SOL    HW244589   2.522   5.509  10.755
80898SOL     OW44590   4.471   9.887  14.810
80898SOL    HW144591   4.508   9.974  14.795
80898SOL    HW244592   4.545   9.828  14.800
80899SOL     OW44593   4.306   9.548   8.579
80899SOL    HW144594   4.292   9.468   8.631
80899SOL    HW244595   4.287   9.619   8.640
80900SOL     OW44596   5.729  13.425   2.157
80900SOL    HW144597   5.691  13.500   2.112
80900SOL    HW244598   5.658  13.361   2.163
80901SOL     OW44599  11.699  13.838   7.659
80901SOL    HW144600  11.667  13.748   7.656
80901SOL    HW244601  11.636  13.883   7.716
80902SOL     OW44602  12.646   9.632   8.423
80902SOL    HW144603  12.686   9.554   8.462
80902SOL    HW244604  12.560   9.638   8.466
80903SOL     OW44605  12.297  10.049  10.744
80903SOL    HW144606  12.299  10.059  10.839
80903SOL    HW244607  12.231  10.112  10.714
80904SOL     OW44608   5.670  14.207   2.010
80904SOL    HW144609   5.736  14.198   2.078
80904SOL    HW244610   5.709  14.267   1.947
80905SOL     OW44611  11.691   4.380   8.221
80905SOL    HW144612  11.732   4.294   8.223
80905SOL    HW244613  11.607   4.367   8.265
80906SOL     OW44614   5.619  11.533   1.098
80906SOL    HW144615   5.549  11.475   1.068
80906SOL    HW244616   5.637  11.505   1.188
80907SOL     OW44617   0.689  12.225  14.411
80907SOL    HW144618   0.750  12.292  14.382
80907SOL    HW244619   0.744  12.159  14.453
80908SOL     OW44620  12.149   0.375   4.768
80908SOL    HW144621  12.105   0.429   4.834
80908SOL    HW244622  12.085   0.367   4.697
80909SOL     OW44623   1.759   8.562   2.911
80909SOL    HW144624   1.673   8.525   2.929
80909SOL    HW244625   1.751   8.602   2.825
80910SOL     OW44626  13.745  11.763   2.922
80910SOL    HW144627  13.708  11.681   2.955
80910SOL    HW244628  13.800  11.796   2.993
80911SOL     OW44629  11.689   1.240   0.620
80911SOL    HW144630  11.677   1.222   0.527
80911SOL    HW244631  11.779   1.274   0.627
80912SOL     OW44632   8.006  14.168  13.662
80912SOL    HW144633   8.022  14.256  13.696
80912SOL    HW244634   7.956  14.125  13.731
80913SOL     OW44635   0.342   0.040   1.325
80913SOL    HW144636   0.341   0.087   1.409
80913SOL    HW244637   0.345   0.108   1.259
80914SOL     OW44638  14.745   5.867   5.509
80914SOL    HW144639  14.746   5.953   5.551
80914SOL    HW244640  14.835   5.835   5.517
80915SOL     OW44641   5.738   2.492   2.446
80915SOL    HW144642   5.732   2.483   2.351
80915SOL    HW244643   5.816   2.440   2.469
80916SOL     OW44644   2.876   5.031   2.135
80916SOL    HW144645   2.944   4.985   2.085
80916SOL    HW244646   2.848   4.968   2.201
80917SOL     OW44647  10.216  11.519   3.755
80917SOL    HW144648  10.311  11.521   3.751
80917SOL    HW244649  10.187  11.549   3.669
80918SOL     OW44650   7.262   9.943  12.161
80918SOL    HW144651   7.198  10.009  12.134
80918SOL    HW244652   7.209   9.867  12.187
80919SOL     OW44653   4.609   1.851   3.483
80919SOL    HW144654   4.671   1.824   3.415
80919SOL    HW244655   4.603   1.946   3.473
80920SOL     OW44656   9.527   9.346  13.901
80920SOL    HW144657   9.572   9.270  13.939
80920SOL    HW244658   9.597   9.396  13.859
80921SOL     OW44659   7.454   7.270   5.120
80921SOL    HW144660   7.370   7.309   5.146
80921SOL    HW244661   7.518   7.341   5.133
80922SOL     OW44662  11.939   6.219   3.379
80922SOL    HW144663  11.887   6.258   3.448
80922SOL    HW244664  11.981   6.293   3.335
80923SOL     OW44665  14.534  14.445   6.490
80923SOL    HW144666  14.479  14.367   6.497
80923SOL    HW244667  14.618  14.412   6.459
80924SOL     OW44668  11.884   5.987   5.226
80924SOL    HW144669  11.914   5.936   5.150
80924SOL    HW244670  11.845   5.923   5.285
80925SOL     OW44671  10.056   8.753   9.464
80925SOL    HW144672  10.113   8.677   9.450
80925SOL    HW244673  10.088   8.792   9.545
80926SOL     OW44674   8.251   9.441  10.171
80926SOL    HW144675   8.312   9.459  10.242
80926SOL    HW244676   8.176   9.399  10.213
80927SOL     OW44677   7.599  11.192   3.367
80927SOL    HW144678   7.557  11.194   3.281
80927SOL    HW244679   7.537  11.146   3.423
80928SOL     OW44680  13.662   6.779   8.506
80928SOL    HW144681  13.590   6.839   8.486
80928SOL    HW244682  13.699   6.812   8.587
80929SOL     OW44683   3.471   0.432   7.202
80929SOL    HW144684   3.523   0.388   7.135
80929SOL    HW244685   3.532   0.491   7.245
80930SOL     OW44686  11.615   4.774   7.810
80930SOL    HW144687  11.587   4.731   7.729
80930SOL    HW244688  11.696   4.729   7.835
80931SOL     OW44689  10.146   9.613  12.860
80931SOL    HW144690  10.180   9.631  12.948
80931SOL    HW244691  10.223   9.592  12.808
80932SOL     OW44692   3.462  11.905   4.377
80932SOL    HW144693   3.418  11.941   4.454
80932SOL    HW244694   3.433  11.960   4.305
80933SOL     OW44695   3.182   7.156  11.053
80933SOL    HW144696   3.242   7.110  11.112
80933SOL    HW244697   3.102   7.167  11.104
80934SOL     OW44698  12.549  14.468   1.286
80934SOL    HW144699  12.498  14.549   1.293
80934SOL    HW244700  12.536  14.440   1.196
80935SOL     OW44701  13.670   4.902  10.939
80935SOL    HW144702  13.764   4.890  10.955
80935SOL    HW244703  13.666   4.942  10.852
80936SOL     OW44704  14.707   6.685  14.116
80936SOL    HW144705  14.742   6.699  14.204
80936SOL    HW244706  14.680   6.594  14.115
80937SOL     OW44707  12.536  11.134  14.300
80937SOL    HW144708  12.470  11.170  14.242
80937SOL    HW244709  12.508  11.162  14.388
80938SOL     OW44710  14.347  11.143   0.569
80938SOL    HW144711  14.400  11.169   0.644
80938SOL    HW244712  14.260  11.178   0.587
80939SOL     OW44713   3.818  14.575   8.205
80939SOL    HW144714   3.814  14.504   8.140
80939SOL    HW244715   3.743  14.559   8.262
80940SOL     OW44716   6.029  12.284   8.409
80940SOL    HW144717   6.053  12.376   8.418
80940SOL    HW244718   6.051  12.262   8.319
80941SOL     OW44719  14.642   3.229   5.939
80941SOL    HW144720  14.580   3.213   5.868
80941SOL    HW244721  14.722   3.184   5.913
80942SOL     OW44722   4.487  14.260   1.862
80942SOL    HW144723   4.571  14.217   1.847
80942SOL    HW244724   4.452  14.218   1.940
80943SOL     OW44725  11.682  13.752   9.309
80943SOL    HW144726  11.628  13.735   9.232
80943SOL    HW244727  11.687  13.667   9.354
80944SOL     OW44728   3.691   9.052   4.839
80944SOL    HW144729   3.659   9.132   4.881
80944SOL    HW244730   3.614   8.996   4.833
80945SOL     OW44731   7.889   6.658   3.050
80945SOL    HW144732   7.908   6.607   3.129
80945SOL    HW244733   7.964   6.716   3.040
80946SOL     OW44734   0.349   5.878   3.767
80946SOL    HW144735   0.442   5.889   3.786
80946SOL    HW244736   0.323   5.960   3.726
80947SOL     OW44737  11.907  12.998   8.886
80947SOL    HW144738  11.867  12.985   8.972
80947SOL    HW244739  11.909  13.093   8.874
80948SOL     OW44740   5.175   3.053   5.793
80948SOL    HW144741   5.118   3.129   5.785
80948SOL    HW244742   5.264   3.087   5.781
80949SOL     OW44743   0.287  11.904   3.296
80949SOL    HW144744   0.350  11.835   3.273
80949SOL    HW244745   0.278  11.955   3.216
80950SOL     OW44746  12.752   0.041   6.820
80950SOL    HW144747  12.696  14.858   6.763
80950SOL    HW244748  12.822  14.850   6.848
80951SOL     OW44749  12.605   9.982   0.460
80951SOL    HW144750  12.518   9.965   0.496
80951SOL    HW244751  12.631  10.066   0.498
80952SOL     OW44752  13.799   2.650   6.474
80952SOL    HW144753  13.825   2.567   6.435
80952SOL    HW244754  13.709   2.636   6.504
80953SOL     OW44755  10.318   4.526   5.266
80953SOL    HW144756  10.239   4.572   5.296
80953SOL    HW244757  10.287   4.471   5.194
80954SOL     OW44758   5.666   9.328  12.511
80954SOL    HW144759   5.714   9.245  12.508
80954SOL    HW244760   5.580   9.304  12.546
80955SOL     OW44761   2.538  10.220   4.058
80955SOL    HW144762   2.458  10.169   4.066
80955SOL    HW244763   2.531  10.287   4.127
80956SOL     OW44764   5.087  11.044   4.859
80956SOL    HW144765   5.037  11.043   4.941
80956SOL    HW244766   5.046  11.114   4.808
80957SOL     OW44767   7.047  12.559  13.087
80957SOL    HW144768   7.008  12.507  13.157
80957SOL    HW244769   7.011  12.647  13.099
80958SOL     OW44770   7.197   6.758  12.464
80958SOL    HW144771   7.165   6.674  12.431
80958SOL    HW244772   7.117   6.807  12.485
80959SOL     OW44773   6.302   0.740   3.311
80959SOL    HW144774   6.296   0.726   3.405
80959SOL    HW244775   6.221   0.785   3.288
80960SOL     OW44776   1.698   8.031   6.160
80960SOL    HW144777   1.759   8.075   6.219
80960SOL    HW244778   1.616   8.081   6.168
80961SOL     OW44779  10.675   5.881   4.214
80961SOL    HW144780  10.617   5.848   4.145
80961SOL    HW244781  10.617   5.931   4.271
80962SOL     OW44782   2.750  14.244  10.599
80962SOL    HW144783   2.691  14.316  10.620
80962SOL    HW244784   2.714  14.205  10.520
80963SOL     OW44785  12.371  13.805   9.624
80963SOL    HW144786  12.285  13.787   9.588
80963SOL    HW244787  12.407  13.718   9.644
80964SOL     OW44788   3.429   6.717  10.355
80964SOL    HW144789   3.499   6.655  10.373
80964SOL    HW244790   3.473   6.797  10.328
80965SOL     OW44791   4.542  14.295   9.826
80965SOL    HW144792   4.600  14.349   9.881
80965SOL    HW244793   4.564  14.320   9.737
80966SOL     OW44794  14.850   3.292   2.257
80966SOL    HW144795  14.823   3.267   2.345
80966SOL    HW244796  14.815   3.223   2.201
80967SOL     OW44797  12.377   4.523   5.094
80967SOL    HW144798  12.357   4.433   5.118
80967SOL    HW244799  12.345   4.532   5.004
80968SOL     OW44800  14.140   2.780  10.942
80968SOL    HW144801  14.102   2.696  10.968
80968SOL    HW244802  14.070   2.843  10.956
80969SOL     OW44803   5.617   9.205   6.695
80969SOL    HW144804   5.627   9.236   6.784
80969SOL    HW244805   5.527   9.226   6.671
80970SOL     OW44806   5.422  10.784   7.871
80970SOL    HW144807   5.404  10.851   7.937
80970SOL    HW244808   5.396  10.824   7.788
80971SOL     OW44809   4.033   6.297  12.522
80971SOL    HW144810   3.942   6.282  12.497
80971SOL    HW244811   4.028   6.336  12.609
80972SOL     OW44812   2.644   6.765   2.792
80972SOL    HW144813   2.652   6.847   2.842
80972SOL    HW244814   2.729   6.723   2.804
80973SOL     OW44815  13.214   9.079   7.027
80973SOL    HW144816  13.121   9.073   7.007
80973SOL    HW244817  13.220   9.062   7.121
80974SOL     OW44818   1.646  10.064  12.417
80974SOL    HW144819   1.557  10.072  12.385
80974SOL    HW244820   1.640  10.008  12.495
80975SOL     OW44821   1.267   6.664   3.959
80975SOL    HW144822   1.320   6.590   3.989
80975SOL    HW244823   1.293   6.676   3.868
80976SOL     OW44824  14.330  10.658   8.557
80976SOL    HW144825  14.331  10.670   8.652
80976SOL    HW244826  14.242  10.683   8.530
80977SOL     OW44827  13.669   0.623   6.983
80977SOL    HW144828  13.582   0.628   6.944
80977SOL    HW244829  13.727   0.656   6.914
80978SOL     OW44830  12.816   2.831   2.563
80978SOL    HW144831  12.804   2.926   2.561
80978SOL    HW244832  12.789   2.802   2.475
80979SOL     OW44833   4.534   4.318   4.291
80979SOL    HW144834   4.543   4.362   4.207
80979SOL    HW244835   4.617   4.271   4.302
80980SOL     OW44836   8.313   1.706   1.444
80980SOL    HW144837   8.280   1.627   1.486
80980SOL    HW244838   8.261   1.777   1.482
80981SOL     OW44839   8.552   6.839  13.160
80981SOL    HW144840   8.565   6.788  13.080
80981SOL    HW244841   8.545   6.773  13.229
80982SOL     OW44842   8.633  13.626  13.342
80982SOL    HW144843   8.616  13.534  13.323
80982SOL    HW244844   8.581  13.645  13.420
80983SOL     OW44845  10.463   2.129   9.136
80983SOL    HW144846  10.475   2.215   9.175
80983SOL    HW244847  10.512   2.134   9.053
80984SOL     OW44848   7.397   4.226   0.728
80984SOL    HW144849   7.465   4.162   0.706
80984SOL    HW244850   7.388   4.221   0.823
80985SOL     OW44851   4.335   0.157   0.949
80985SOL    HW144852   4.274   0.213   0.900
80985SOL    HW244853   4.347   0.202   1.033
80986SOL     OW44854   3.994   0.049   1.045
80986SOL    HW144855   4.041   0.042   0.962
80986SOL    HW244856   4.010   0.139   1.074
80987SOL     OW44857   4.323   6.508   7.115
80987SOL    HW144858   4.390   6.558   7.163
80987SOL    HW244859   4.253   6.572   7.098
80988SOL     OW44860   7.903   5.589   0.396
80988SOL    HW144861   7.888   5.682   0.384
80988SOL    HW244862   7.994   5.582   0.426
80989SOL     OW44863  13.480  10.309  12.449
80989SOL    HW144864  13.534  10.346  12.519
80989SOL    HW244865  13.535  10.315  12.371
80990SOL     OW44866   4.134   1.848   1.784
80990SOL    HW144867   4.042   1.872   1.789
80990SOL    HW244868   4.177   1.897   1.854
80991SOL     OW44869  13.926   7.647  13.677
80991SOL    HW144870  13.860   7.627  13.744
80991SOL    HW244871  14.004   7.599  13.705
80992SOL     OW44872  10.487   4.069   7.341
80992SOL    HW144873  10.485   3.982   7.300
80992SOL    HW244874  10.402   4.078   7.383
80993SOL     OW44875   2.144   5.092   4.707
80993SOL    HW144876   2.089   5.025   4.667
80993SOL    HW244877   2.081   5.154   4.745
80994SOL     OW44878   6.069  14.241   9.403
80994SOL    HW144879   6.163  14.255   9.392
80994SOL    HW244880   6.030  14.328   9.391
80995SOL     OW44881   1.869  10.952   5.017
80995SOL    HW144882   1.884  11.039   5.054
80995SOL    HW244883   1.883  10.892   5.090
80996SOL     OW44884   2.631  10.144  12.341
80996SOL    HW144885   2.539  10.148  12.319
80996SOL    HW244886   2.676  10.138  12.257
80997SOL     OW44887  12.178   3.650  12.533
80997SOL    HW144888  12.268   3.643  12.562
80997SOL    HW244889  12.133   3.693  12.606
80998SOL     OW44890   5.020   8.667   7.325
80998SOL    HW144891   4.969   8.658   7.406
80998SOL    HW244892   4.956   8.655   7.255
80999SOL     OW44893  14.803   9.187  13.776
80999SOL    HW144894  14.829   9.120  13.839
80999SOL    HW244895  14.763   9.257  13.829
81000SOL     OW44896  10.289   8.306  14.250
81000SOL    HW144897  10.240   8.241  14.199
81000SOL    HW244898  10.365   8.326  14.196
81001SOL     OW44899  11.502   9.705   5.193
81001SOL    HW144900  11.558   9.673   5.122
81001SOL    HW244901  11.453   9.777   5.154
81002SOL     OW44902   7.847   5.985  13.977
81002SOL    HW144903   7.756   5.961  13.957
81002SOL    HW244904   7.845   6.006  14.071
81003SOL     OW44905   5.904  13.351  13.878
81003SOL    HW144906   5.865  13.408  13.944
81003SOL    HW244907   5.832  13.299  13.844
81004SOL     OW44908  14.169   7.766  12.765
81004SOL    HW144909  14.147   7.792  12.675
81004SOL    HW244910  14.205   7.844  12.805
81005SOL     OW44911  11.357   8.149   4.709
81005SOL    HW144912  11.365   8.241   4.735
81005SOL    HW244913  11.430   8.105   4.752
81006SOL     OW44914   9.834  12.317  14.564
81006SOL    HW144915   9.882  12.373  14.503
81006SOL    HW244916   9.843  12.361  14.649
81007SOL     OW44917  11.834   0.461   7.212
81007SOL    HW144918  11.893   0.451   7.137
81007SOL    HW244919  11.855   0.548   7.248
81008SOL     OW44920  11.247   4.384  14.720
81008SOL    HW144921  11.184   4.316  14.746
81008SOL    HW244922  11.331   4.352  14.752
81009SOL     OW44923  13.327   8.613  13.913
81009SOL    HW144924  13.238   8.580  13.904
81009SOL    HW244925  13.347   8.653  13.829
81010SOL     OW44926  11.127  12.930   6.374
81010SOL    HW144927  11.200  12.992   6.375
81010SOL    HW244928  11.169  12.844   6.380
81011SOL     OW44929   6.738   8.452   3.599
81011SOL    HW144930   6.709   8.375   3.649
81011SOL    HW244931   6.739   8.423   3.508
81012SOL     OW44932  10.296  10.018   4.513
81012SOL    HW144933  10.277   9.938   4.464
81012SOL    HW244934  10.222  10.028   4.572
81013SOL     OW44935   2.939  13.068   1.998
81013SOL    HW144936   2.973  13.150   1.962
81013SOL    HW244937   3.010  13.036   2.054
81014SOL     OW44938  11.843  10.341   4.292
81014SOL    HW144939  11.921  10.381   4.254
81014SOL    HW244940  11.772  10.367   4.234
81015SOL     OW44941  13.986   9.767  13.895
81015SOL    HW144942  13.896   9.785  13.867
81015SOL    HW244943  13.981   9.763  13.991
81016SOL     OW44944   6.637   6.927  10.316
81016SOL    HW144945   6.705   6.977  10.359
81016SOL    HW244946   6.659   6.836  10.334
81017SOL     OW44947  12.870   5.531   2.002
81017SOL    HW144948  12.900   5.478   2.076
81017SOL    HW244949  12.887   5.622   2.030
81018SOL     OW44950   8.560  14.414   7.094
81018SOL    HW144951   8.500  14.344   7.118
81018SOL    HW244952   8.627  14.372   7.041
81019SOL     OW44953   0.132   9.431   5.550
81019SOL    HW144954   0.056   9.464   5.598
81019SOL    HW244955   0.184   9.509   5.530
81020SOL     OW44956   4.704   0.367   3.597
81020SOL    HW144957   4.799   0.372   3.606
81020SOL    HW244958   4.684   0.424   3.523
81021SOL     OW44959  11.173  10.408   8.029
81021SOL    HW144960  11.194  10.477   7.966
81021SOL    HW244961  11.200  10.327   7.986
81022SOL     OW44962   1.159   5.228   8.875
81022SOL    HW144963   1.250   5.242   8.902
81022SOL    HW244964   1.137   5.141   8.910
81023SOL     OW44965   7.498   8.866   8.216
81023SOL    HW144966   7.566   8.820   8.266
81023SOL    HW244967   7.429   8.883   8.280
81024SOL     OW44968   1.477  13.960   6.855
81024SOL    HW144969   1.432  13.898   6.912
81024SOL    HW244970   1.426  13.961   6.774
81025SOL     OW44971  11.100  14.087  11.839
81025SOL    HW144972  11.109  14.143  11.916
81025SOL    HW244973  11.081  14.000  11.874
81026SOL     OW44974   4.631   7.626   2.898
81026SOL    HW144975   4.565   7.579   2.950
81026SOL    HW244976   4.610   7.718   2.911
81027SOL     OW44977  14.225   0.305   9.979
81027SOL    HW144978  14.281   0.261   9.915
81027SOL    HW244979  14.286   0.344  10.042
81028SOL     OW44980   5.379   4.288  12.885
81028SOL    HW144981   5.474   4.301  12.889
81028SOL    HW244982   5.358   4.295  12.792
81029SOL     OW44983   9.815  10.239  13.689
81029SOL    HW144984   9.741  10.253  13.747
81029SOL    HW244985   9.834  10.326  13.653
81030SOL     OW44986   7.349   9.324   9.882
81030SOL    HW144987   7.261   9.357   9.899
81030SOL    HW244988   7.396   9.399   9.846
81031SOL     OW44989   0.952  11.389  13.937
81031SOL    HW144990   1.028  11.360  13.887
81031SOL    HW244991   0.900  11.439  13.874
81032SOL     OW44992  14.619   4.189   2.461
81032SOL    HW144993  14.619   4.281   2.487
81032SOL    HW244994  14.625   4.190   2.366
81033SOL     OW44995  14.270  10.917   5.411
81033SOL    HW144996  14.219  10.894   5.489
81033SOL    HW244997  14.294  11.009   5.424
81034SOL     OW44998  13.779   1.514   2.296
81034SOL    HW144999  13.755   1.451   2.363
81034SOL    HW245000  13.757   1.599   2.334
81035SOL     OW45001  12.283   5.552  14.693
81035SOL    HW145002  12.285   5.460  14.666
81035SOL    HW245003  12.226   5.553  14.770
81036SOL     OW45004   8.074   4.502   5.847
81036SOL    HW145005   8.097   4.592   5.823
81036SOL    HW245006   7.981   4.495   5.825
81037SOL     OW45007   4.871   0.431  13.625
81037SOL    HW145008   4.932   0.494  13.588
81037SOL    HW245009   4.926   0.358  13.654
81038SOL     OW45010   3.076  11.674   1.444
81038SOL    HW145011   3.016  11.681   1.518
81038SOL    HW245012   3.161  11.703   1.479
81039SOL     OW45013   8.722  11.374   7.555
81039SOL    HW145014   8.760  11.293   7.521
81039SOL    HW245015   8.658  11.344   7.620
81040SOL     OW45016   7.290   0.659   2.493
81040SOL    HW145017   7.345   0.668   2.571
81040SOL    HW245018   7.307   0.738   2.443
81041SOL     OW45019  14.280  14.843  11.492
81041SOL    HW145020  14.359   0.023  11.471
81041SOL    HW245021  14.301  14.797  11.573
81042SOL     OW45022  12.328   2.422  12.697
81042SOL    HW145023  12.306   2.477  12.622
81042SOL    HW245024  12.408   2.460  12.732
81043SOL     OW45025  11.194   1.587   6.801
81043SOL    HW145026  11.253   1.567   6.729
81043SOL    HW245027  11.228   1.669   6.837
81044SOL     OW45028  12.055   9.032  10.356
81044SOL    HW145029  12.144   9.046  10.387
81044SOL    HW245030  12.064   9.017  10.262
81045SOL     OW45031   8.738   6.401   4.892
81045SOL    HW145032   8.767   6.413   4.801
81045SOL    HW245033   8.818   6.411   4.944
81046SOL     OW45034  13.478  11.506   3.332
81046SOL    HW145035  13.435  11.468   3.409
81046SOL    HW245036  13.412  11.563   3.294
81047SOL     OW45037   8.890  11.980   5.879
81047SOL    HW145038   8.809  12.002   5.833
81047SOL    HW245039   8.863  11.923   5.950
81048SOL     OW45040  13.061   4.681  13.608
81048SOL    HW145041  13.091   4.693  13.518
81048SOL    HW245042  13.001   4.606  13.604
81049SOL     OW45043   8.447   3.648  14.156
81049SOL    HW145044   8.541   3.659  14.142
81049SOL    HW245045   8.407   3.712  14.098
81050SOL     OW45046   8.520  12.727   9.739
81050SOL    HW145047   8.553  12.689   9.658
81050SOL    HW245048   8.428  12.702   9.742
81051SOL     OW45049   7.728   5.768   8.843
81051SOL    HW145050   7.748   5.827   8.770
81051SOL    HW245051   7.690   5.826   8.909
81052SOL     OW45052   1.707  11.797  12.925
81052SOL    HW145053   1.746  11.859  12.986
81052SOL    HW245054   1.719  11.835  12.839
81053SOL     OW45055   1.456  10.591  11.486
81053SOL    HW145056   1.416  10.672  11.456
81053SOL    HW245057   1.384  10.543  11.527
81054SOL     OW45058   5.452   9.016  10.391
81054SOL    HW145059   5.507   9.009  10.312
81054SOL    HW245060   5.373   8.968  10.369
81055SOL     OW45061   7.997  11.758   0.539
81055SOL    HW145062   7.989  11.788   0.449
81055SOL    HW245063   7.949  11.675   0.540
81056SOL     OW45064   2.100   0.825   3.982
81056SOL    HW145065   2.164   0.778   4.034
81056SOL    HW245066   2.076   0.763   3.912
81057SOL     OW45067   9.863   2.347   3.825
81057SOL    HW145068   9.785   2.379   3.780
81057SOL    HW245069   9.829   2.284   3.890
81058SOL     OW45070  10.947   2.334   3.440
81058SOL    HW145071  10.968   2.284   3.518
81058SOL    HW245072  11.009   2.304   3.374
81059SOL     OW45073   9.854   3.455   9.359
81059SOL    HW145074   9.936   3.406   9.364
81059SOL    HW245075   9.791   3.404   9.411
81060SOL     OW45076  11.289  12.021  12.555
81060SOL    HW145077  11.199  12.012  12.522
81060SOL    HW245078  11.335  12.068  12.485
81061SOL     OW45079   0.123  11.208   7.180
81061SOL    HW145080   0.176  11.153   7.121
81061SOL    HW245081   0.175  11.214   7.260
81062SOL     OW45082   3.481   1.817   7.826
81062SOL    HW145083   3.529   1.751   7.777
81062SOL    HW245084   3.461   1.776   7.910
81063SOL     OW45085  12.928   9.012   7.200
81063SOL    HW145086  12.986   8.964   7.141
81063SOL    HW245087  12.976   9.018   7.282
81064SOL     OW45088  11.693  11.600   7.848
81064SOL    HW145089  11.651  11.586   7.763
81064SOL    HW245090  11.675  11.691   7.869
81065SOL     OW45091   5.015   1.785   9.366
81065SOL    HW145092   5.094   1.772   9.420
81065SOL    HW245093   5.049   1.805   9.279
81066SOL     OW45094   6.736   8.832   0.323
81066SOL    HW145095   6.787   8.751   0.331
81066SOL    HW245096   6.691   8.824   0.239
81067SOL     OW45097  10.172   1.360   7.568
81067SOL    HW145098  10.238   1.429   7.578
81067SOL    HW245099  10.089   1.404   7.588
81068SOL     OW45100  10.683   6.648   7.814
81068SOL    HW145101  10.688   6.630   7.720
81068SOL    HW245102  10.592   6.632   7.837
81069SOL     OW45103   6.457  13.536  10.726
81069SOL    HW145104   6.475  13.565  10.815
81069SOL    HW245105   6.368  13.565  10.709
81070SOL     OW45106   9.573   4.741   4.669
81070SOL    HW145107   9.641   4.696   4.718
81070SOL    HW245108   9.605   4.831   4.661
81071SOL     OW45109   4.926   3.093   6.636
81071SOL    HW145110   4.982   3.171   6.629
81071SOL    HW245111   4.851   3.113   6.579
81072SOL     OW45112   6.707   5.444   8.800
81072SOL    HW145113   6.612   5.455   8.789
81072SOL    HW245114   6.729   5.497   8.876
81073SOL     OW45115  10.224   3.108   4.882
81073SOL    HW145116  10.159   3.148   4.940
81073SOL    HW245117  10.307   3.147   4.910
81074SOL     OW45118  10.251   8.089  10.540
81074SOL    HW145119  10.266   8.009  10.590
81074SOL    HW245120  10.300   8.157  10.586
81075SOL     OW45121   9.383   6.663  10.560
81075SOL    HW145122   9.323   6.635  10.629
81075SOL    HW245123   9.420   6.745  10.592
81076SOL     OW45124   4.077   9.082   6.259
81076SOL    HW145125   4.091   9.064   6.166
81076SOL    HW245126   4.124   9.011   6.304
81077SOL     OW45127   3.986   3.553   4.420
81077SOL    HW145128   3.958   3.639   4.452
81077SOL    HW245129   4.068   3.570   4.375
81078SOL     OW45130   3.783   6.048   5.071
81078SOL    HW145131   3.804   5.958   5.098
81078SOL    HW245132   3.864   6.096   5.081
81079SOL     OW45133   2.750   4.716  13.402
81079SOL    HW145134   2.736   4.807  13.376
81079SOL    HW245135   2.837   4.694  13.368
81080SOL     OW45136   7.004   9.610  11.748
81080SOL    HW145137   7.061   9.663  11.692
81080SOL    HW245138   6.920   9.609  11.702
81081SOL     OW45139   0.615  12.532   6.411
81081SOL    HW145140   0.616  12.616   6.457
81081SOL    HW245141   0.707  12.515   6.390
81082SOL     OW45142   3.255  12.249   2.961
81082SOL    HW145143   3.192  12.204   3.017
81082SOL    HW245144   3.266  12.335   3.001
81083SOL     OW45145  10.674  11.446   4.564
81083SOL    HW145146  10.746  11.436   4.501
81083SOL    HW245147  10.687  11.375   4.626
81084SOL     OW45148   7.228   8.306   0.921
81084SOL    HW145149   7.224   8.279   1.013
81084SOL    HW245150   7.314   8.346   0.911
81085SOL     OW45151   0.696   8.203  14.290
81085SOL    HW145152   0.769   8.249  14.332
81085SOL    HW245153   0.645   8.273  14.248
81086SOL     OW45154   5.526   6.314  10.216
81086SOL    HW145155   5.567   6.338  10.299
81086SOL    HW245156   5.578   6.358  10.149
81087SOL     OW45157  10.546   0.752   0.831
81087SOL    HW145158  10.570   0.681   0.771
81087SOL    HW245159  10.578   0.832   0.788
81088SOL     OW45160  13.920   8.027  14.297
81088SOL    HW145161  13.988   7.959  14.302
81088SOL    HW245162  13.964   8.107  14.324
81089SOL     OW45163   1.137   6.377   5.277
81089SOL    HW145164   1.166   6.463   5.249
81089SOL    HW245165   1.058   6.360   5.225
81090SOL     OW45166   2.919   2.524  12.490
81090SOL    HW145167   2.979   2.472  12.438
81090SOL    HW245168   2.832   2.493  12.464
81091SOL     OW45169   1.626   4.789  10.353
81091SOL    HW145170   1.546   4.821  10.311
81091SOL    HW245171   1.606   4.789  10.447
81092SOL     OW45172   0.463   8.195   6.056
81092SOL    HW145173   0.383   8.190   6.004
81092SOL    HW245174   0.457   8.279   6.101
81093SOL     OW45175   2.295   2.431   9.125
81093SOL    HW145176   2.298   2.453   9.218
81093SOL    HW245177   2.383   2.449   9.093
81094SOL     OW45178  10.904   2.416   6.201
81094SOL    HW145179  10.897   2.323   6.223
81094SOL    HW245180  10.977   2.448   6.253
81095SOL     OW45181   8.881   1.206   3.476
81095SOL    HW145182   8.880   1.206   3.571
81095SOL    HW245183   8.974   1.209   3.453
81096SOL     OW45184  11.631   0.267   3.435
81096SOL    HW145185  11.681   0.230   3.363
81096SOL    HW245186  11.549   0.218   3.435
81097SOL     OW45187   0.534   1.896  12.251
81097SOL    HW145188   0.490   1.981  12.259
81097SOL    HW245189   0.624   1.914  12.278
81098SOL     OW45190  13.275   6.749  12.490
81098SOL    HW145191  13.287   6.696  12.569
81098SOL    HW245192  13.199   6.804  12.510
81099SOL     OW45193   6.692   5.043   9.961
81099SOL    HW145194   6.711   5.132   9.992
81099SOL    HW245195   6.619   5.015  10.016
81100SOL     OW45196   1.789   1.617   1.912
81100SOL    HW145197   1.723   1.551   1.934
81100SOL    HW245198   1.775   1.687   1.975
81101SOL     OW45199  10.663   5.348  13.238
81101SOL    HW145200  10.648   5.272  13.183
81101SOL    HW245201  10.579   5.363  13.281
81102SOL     OW45202  12.124   6.739  14.108
81102SOL    HW145203  12.112   6.799  14.034
81102SOL    HW245204  12.215   6.709  14.100
81103SOL     OW45205   4.301   9.277   8.690
81103SOL    HW145206   4.377   9.296   8.746
81103SOL    HW245207   4.338   9.251   8.606
81104SOL     OW45208   6.579  10.333  11.598
81104SOL    HW145209   6.499  10.379  11.573
81104SOL    HW245210   6.568  10.245  11.560
81105SOL     OW45211  14.266   4.892  11.232
81105SOL    HW145212  14.209   4.817  11.219
81105SOL    HW245213  14.354   4.858  11.219
81106SOL     OW45214   5.576   6.419   2.311
81106SOL    HW145215   5.506   6.435   2.374
81106SOL    HW245216   5.631   6.497   2.317
81107SOL     OW45217   7.185  11.610  11.529
81107SOL    HW145218   7.168  11.589  11.620
81107SOL    HW245219   7.232  11.693  11.531
81108SOL     OW45220   8.019   9.293   7.452
81108SOL    HW145221   8.089   9.348   7.487
81108SOL    HW245222   7.999   9.232   7.522
81109SOL     OW45223   2.111  11.509   6.583
81109SOL    HW145224   2.176  11.458   6.535
81109SOL    HW245225   2.029  11.461   6.570
81110SOL     OW45226  12.570   9.270  14.318
81110SOL    HW145227  12.502   9.204  14.326
81110SOL    HW245228  12.554   9.330  14.392
81111SOL     OW45229  12.257   9.292   1.158
81111SOL    HW145230  12.337   9.344   1.146
81111SOL    HW245231  12.287   9.210   1.196
81112SOL     OW45232   8.439   0.971   2.371
81112SOL    HW145233   8.477   0.884   2.385
81112SOL    HW245234   8.372   0.979   2.439
81113SOL     OW45235   4.354  14.650   9.015
81113SOL    HW145236   4.401  14.570   9.037
81113SOL    HW245237   4.286  14.659   9.082
81114SOL     OW45238   2.966   0.393   6.013
81114SOL    HW145239   3.002   0.306   5.998
81114SOL    HW245240   2.974   0.437   5.928
81115SOL     OW45241   9.416  12.736  10.060
81115SOL    HW145242   9.509  12.733  10.037
81115SOL    HW245243   9.414  12.710  10.152
81116SOL     OW45244  14.238  12.332   8.968
81116SOL    HW145245  14.218  12.422   8.995
81116SOL    HW245246  14.253  12.285   9.050
81117SOL     OW45247  11.659   4.276   5.405
81117SOL    HW145248  11.631   4.319   5.324
81117SOL    HW245249  11.680   4.348   5.464
81118SOL     OW45250  13.097  12.206   0.489
81118SOL    HW145251  13.082  12.178   0.579
81118SOL    HW245252  13.035  12.277   0.475
81119SOL     OW45253   4.238   3.750   8.082
81119SOL    HW145254   4.277   3.666   8.106
81119SOL    HW245255   4.270   3.768   7.994
81120SOL     OW45256   1.905   7.389   2.102
81120SOL    HW145257   1.958   7.311   2.086
81120SOL    HW245258   1.885   7.423   2.015
81121SOL     OW45259   1.930  14.837   1.095
81121SOL    HW145260   2.021  14.868   1.090
81121SOL    HW245261   1.878   0.048   1.098
81122SOL     OW45262  11.009   5.238   2.599
81122SOL    HW145263  10.979   5.316   2.645
81122SOL    HW245264  10.948   5.169   2.627
81123SOL     OW45265   0.529   8.187   4.268
81123SOL    HW145266   0.575   8.230   4.196
81123SOL    HW245267   0.586   8.115   4.294
81124SOL     OW45268   1.960  14.622  11.877
81124SOL    HW145269   1.873  14.610  11.916
81124SOL    HW245270   2.013  14.552  11.916
81125SOL     OW45271   3.582   7.540   3.492
81125SOL    HW145272   3.620   7.479   3.429
81125SOL    HW245273   3.643   7.539   3.566
81126SOL     OW45274  11.812   5.908  11.705
81126SOL    HW145275  11.856   5.972  11.761
81126SOL    HW245276  11.860   5.826  11.720
81127SOL     OW45277   4.863   3.937   9.835
81127SOL    HW145278   4.782   3.886   9.839
81127SOL    HW245279   4.834   4.028   9.835
81128SOL     OW45280   9.819   9.823   3.949
81128SOL    HW145281   9.785   9.757   3.888
81128SOL    HW245282   9.818   9.904   3.899
81129SOL     OW45283   6.462   0.349   5.974
81129SOL    HW145284   6.414   0.351   5.891
81129SOL    HW245285   6.393   0.355   6.041
81130SOL     OW45286   6.352   4.360   9.666
81130SOL    HW145287   6.398   4.304   9.604
81130SOL    HW245288   6.407   4.359   9.745
81131SOL     OW45289   7.027  11.543   4.983
81131SOL    HW145290   7.070  11.459   4.999
81131SOL    HW245291   7.027  11.586   5.068
81132SOL     OW45292  10.062  13.139   1.354
81132SOL    HW145293  10.133  13.125   1.417
81132SOL    HW245294  10.009  13.060   1.359
81133SOL     OW45295  10.888   1.249   8.945
81133SOL    HW145296  10.899   1.166   8.991
81133SOL    HW245297  10.804   1.282   8.975
81134SOL     OW45298   7.735   2.685  14.791
81134SOL    HW145299   7.767   2.747  14.725
81134SOL    HW245300   7.672   2.631  14.744
81135SOL     OW45301   2.781   5.411   4.566
81135SOL    HW145302   2.776   5.490   4.619
81135SOL    HW245303   2.693   5.399   4.530
81136SOL     OW45304   5.039   2.325   4.503
81136SOL    HW145305   5.003   2.337   4.415
81136SOL    HW245306   5.008   2.238   4.529
81137SOL     OW45307  12.121   9.068   5.093
81137SOL    HW145308  12.044   9.039   5.142
81137SOL    HW245309  12.195   9.033   5.143
81138SOL     OW45310  14.486   1.729   0.234
81138SOL    HW145311  14.499   1.683   0.317
81138SOL    HW245312  14.428   1.673   0.184
81139SOL     OW45313  12.726  10.828   1.010
81139SOL    HW145314  12.787  10.810   0.939
81139SOL    HW245315  12.693  10.916   0.992
81140SOL     OW45316   5.627  10.514   1.050
81140SOL    HW145317   5.661  10.426   1.035
81140SOL    HW245318   5.702  10.571   1.039
81141SOL     OW45319   2.486   7.335   2.378
81141SOL    HW145320   2.523   7.417   2.410
81141SOL    HW245321   2.434   7.361   2.302
81142SOL     OW45322   3.249   8.259  14.257
81142SOL    HW145323   3.256   8.252  14.162
81142SOL    HW245324   3.184   8.327  14.272
81143SOL     OW45325   4.645  12.475  13.179
81143SOL    HW145326   4.734  12.454  13.152
81143SOL    HW245327   4.654  12.557  13.228
81144SOL     OW45328   7.077   4.592   2.123
81144SOL    HW145329   7.007   4.655   2.107
81144SOL    HW245330   7.144   4.641   2.170
81145SOL     OW45331  14.824   7.752  13.484
81145SOL    HW145332   0.040   7.724  13.514
81145SOL    HW245333  14.771   7.760  13.564
81146SOL     OW45334   8.459  14.137   9.727
81146SOL    HW145335   8.532  14.187   9.691
81146SOL    HW245336   8.481  14.046   9.707
81147SOL     OW45337   0.301   7.777   4.109
81147SOL    HW145338   0.309   7.818   4.195
81147SOL    HW245339   0.222   7.815   4.072
81148SOL     OW45340   2.614  12.440  13.260
81148SOL    HW145341   2.648  12.364  13.308
81148SOL    HW245342   2.560  12.402  13.190
81149SOL     OW45343  12.326   8.138  13.832
81149SOL    HW145344  12.262   8.132  13.902
81149SOL    HW245345  12.288   8.087  13.760
81150SOL     OW45346   7.614   1.971  14.691
81150SOL    HW145347   7.573   1.927  14.617
81150SOL    HW245348   7.692   2.014  14.655
81151SOL     OW45349   9.658   8.370  12.663
81151SOL    HW145350   9.596   8.297  12.666
81151SOL    HW245351   9.730   8.344  12.719
81152SOL     OW45352   5.664   8.405   5.250
81152SOL    HW145353   5.674   8.338   5.318
81152SOL    HW245354   5.588   8.376   5.200
81153SOL     OW45355   7.337   1.567   0.331
81153SOL    HW145356   7.308   1.622   0.258
81153SOL    HW245357   7.260   1.561   0.388
81154SOL     OW45358   7.457   9.115  12.968
81154SOL    HW145359   7.412   9.088  12.889
81154SOL    HW245360   7.476   9.208  12.955
81155SOL     OW45361   2.792   2.768   0.653
81155SOL    HW145362   2.885   2.790   0.641
81155SOL    HW245363   2.790   2.672   0.649
81156SOL     OW45364   3.257  12.830   8.743
81156SOL    HW145365   3.170  12.866   8.724
81156SOL    HW245366   3.239  12.745   8.783
81157SOL     OW45367  10.321   3.906   6.822
81157SOL    HW145368  10.369   3.893   6.740
81157SOL    HW245369  10.361   3.845   6.883
81158SOL     OW45370   2.694   4.882   3.295
81158SOL    HW145371   2.670   4.864   3.204
81158SOL    HW245372   2.647   4.963   3.316
81159SOL     OW45373  10.431   0.299   1.564
81159SOL    HW145374  10.471   0.212   1.559
81159SOL    HW245375  10.436   0.322   1.657
81160SOL     OW45376   3.998   9.513   3.170
81160SOL    HW145377   3.956   9.490   3.087
81160SOL    HW245378   4.087   9.538   3.145
81161SOL     OW45379   3.166   4.244   9.840
81161SOL    HW145380   3.174   4.148   9.835
81161SOL    HW245381   3.102   4.266   9.773
81162SOL     OW45382  12.231  10.832   4.139
81162SOL    HW145383  12.246  10.898   4.208
81162SOL    HW245384  12.270  10.752   4.175
81163SOL     OW45385  10.541   3.229  11.231
81163SOL    HW145386  10.596   3.160  11.195
81163SOL    HW245387  10.484   3.255  11.158
81164SOL     OW45388  11.000   3.879   7.560
81164SOL    HW145389  11.045   3.895   7.477
81164SOL    HW245390  10.991   3.966   7.599
81165SOL     OW45391   4.654   4.560   5.223
81165SOL    HW145392   4.635   4.485   5.280
81165SOL    HW245393   4.749   4.566   5.224
81166SOL     OW45394   1.274  13.522   9.453
81166SOL    HW145395   1.193  13.539   9.501
81166SOL    HW245396   1.337  13.584   9.490
81167SOL     OW45397   4.346  10.500   9.161
81167SOL    HW145398   4.292  10.574   9.187
81167SOL    HW245399   4.435  10.528   9.183
81168SOL     OW45400  11.511   5.329   2.161
81168SOL    HW145401  11.493   5.240   2.131
81168SOL    HW245402  11.426   5.374   2.159
81169SOL     OW45403   6.975   3.066   7.180
81169SOL    HW145404   7.006   3.107   7.261
81169SOL    HW245405   7.046   3.081   7.117
81170SOL     OW45406   8.267  11.679  14.437
81170SOL    HW145407   8.173  11.661  14.426
81170SOL    HW245408   8.301  11.682  14.348
81171SOL     OW45409   3.727   1.865   0.020
81171SOL    HW145410   3.706   1.872  14.797
81171SOL    HW245411   3.813   1.823   0.022
81172SOL     OW45412  10.120  13.091   0.943
81172SOL    HW145413  10.113  13.040   1.023
81172SOL    HW245414  10.035  13.133   0.933
81173SOL     OW45415   7.538   7.880  10.752
81173SOL    HW145416   7.514   7.822  10.680
81173SOL    HW245417   7.500   7.964  10.729
81174SOL     OW45418  10.160   3.069   8.501
81174SOL    HW145419  10.101   3.008   8.457
81174SOL    HW245420  10.211   3.015   8.561
81175SOL     OW45421  10.348   3.299  11.040
81175SOL    HW145422  10.309   3.373  10.993
81175SOL    HW245423  10.301   3.222  11.007
81176SOL     OW45424   2.435   7.392   3.837
81176SOL    HW145425   2.446   7.487   3.843
81176SOL    HW245426   2.452   7.372   3.745
81177SOL     OW45427  13.701  14.302   2.360
81177SOL    HW145428  13.675  14.374   2.417
81177SOL    HW245429  13.680  14.333   2.272
81178SOL     OW45430   2.387   5.340   1.288
81178SOL    HW145431   2.393   5.252   1.252
81178SOL    HW245432   2.446   5.392   1.233
81179SOL     OW45433   0.237   3.506   7.740
81179SOL    HW145434   0.173   3.458   7.688
81179SOL    HW245435   0.319   3.498   7.690
81180SOL     OW45436   5.601  12.646   7.907
81180SOL    HW145437   5.670  12.700   7.870
81180SOL    HW245438   5.604  12.565   7.856
81181SOL     OW45439  12.065  12.953   7.146
81181SOL    HW145440  11.998  12.948   7.214
81181SOL    HW245441  12.018  12.987   7.070
81182SOL     OW45442  14.059  13.799   9.479
81182SOL    HW145443  14.123  13.770   9.543
81182SOL    HW245444  14.028  13.718   9.438
81183SOL     OW45445  11.008  12.380   5.698
81183SOL    HW145446  10.931  12.431   5.672
81183SOL    HW245447  10.999  12.298   5.648
81184SOL     OW45448   6.879   7.103   0.011
81184SOL    HW145449   6.846   7.170   0.072
81184SOL    HW245450   6.876   7.022   0.061
81185SOL     OW45451  12.053  14.478   2.721
81185SOL    HW145452  12.100  14.424   2.657
81185SOL    HW245453  12.113  14.487   2.795
81186SOL     OW45454   5.736   8.812   9.623
81186SOL    HW145455   5.738   8.857   9.539
81186SOL    HW245456   5.651   8.834   9.660
81187SOL     OW45457   5.502   6.440  11.626
81187SOL    HW145458   5.529   6.526  11.594
81187SOL    HW245459   5.442   6.458  11.698
81188SOL     OW45460   3.889   6.528   6.327
81188SOL    HW145461   3.911   6.574   6.408
81188SOL    HW245462   3.966   6.539   6.271
81189SOL     OW45463   9.082  14.099  14.680
81189SOL    HW145464   9.100  14.043  14.604
81189SOL    HW245465   8.988  14.116  14.675
81190SOL     OW45466   0.176   9.518   9.814
81190SOL    HW145467   0.246   9.512   9.879
81190SOL    HW245468   0.168   9.612   9.796
81191SOL     OW45469   7.681   2.564  10.072
81191SOL    HW145470   7.753   2.501  10.083
81191SOL    HW245471   7.659   2.591  10.161
81192SOL     OW45472   4.520  11.069  13.360
81192SOL    HW145473   4.473  11.020  13.292
81192SOL    HW245474   4.529  11.157  13.324
81193SOL     OW45475  11.646   3.362   1.604
81193SOL    HW145476  11.739   3.382   1.614
81193SOL    HW245477  11.639   3.270   1.631
81194SOL     OW45478  11.438  10.490   1.873
81194SOL    HW145479  11.388  10.411   1.853
81194SOL    HW245480  11.405  10.556   1.812
81195SOL     OW45481   7.085   5.990  11.879
81195SOL    HW145482   7.079   6.032  11.793
81195SOL    HW245483   6.998   6.000  11.916
81196SOL     OW45484   2.639   5.508   7.051
81196SOL    HW145485   2.700   5.438   7.073
81196SOL    HW245486   2.663   5.533   6.962
81197SOL     OW45487   7.764   0.686   6.711
81197SOL    HW145488   7.782   0.625   6.783
81197SOL    HW245489   7.849   0.695   6.667
81198SOL     OW45490   8.993  10.992  13.114
81198SOL    HW145491   8.944  11.026  13.040
81198SOL    HW245492   9.069  11.050  13.121
81199SOL     OW45493   9.364   7.804   5.594
81199SOL    HW145494   9.418   7.871   5.551
81199SOL    HW245495   9.410   7.722   5.578
81200SOL     OW45496   1.451  10.214   4.605
81200SOL    HW145497   1.454  10.236   4.698
81200SOL    HW245498   1.418  10.124   4.602
81201SOL     OW45499   5.962   7.344   8.218
81201SOL    HW145500   5.903   7.367   8.290
81201SOL    HW245501   6.038   7.402   8.230
81202SOL     OW45502  13.608  13.469  10.709
81202SOL    HW145503  13.603  13.398  10.773
81202SOL    HW245504  13.524  13.466  10.664
81203SOL     OW45505   4.232  14.671  10.564
81203SOL    HW145506   4.180  14.627  10.497
81203SOL    HW245507   4.192  14.645  10.647
81204SOL     OW45508  14.184  13.842   4.863
81204SOL    HW145509  14.270  13.809   4.835
81204SOL    HW245510  14.199  13.935   4.882
81205SOL     OW45511   3.423   6.117  12.843
81205SOL    HW145512   3.481   6.190  12.826
81205SOL    HW245513   3.481   6.043  12.861
81206SOL     OW45514  12.887   1.448   5.370
81206SOL    HW145515  12.939   1.516   5.414
81206SOL    HW245516  12.944   1.371   5.371
81207SOL     OW45517   3.076  11.237  11.390
81207SOL    HW145518   3.148  11.228  11.453
81207SOL    HW245519   3.005  11.277  11.441
81208SOL     OW45520   2.565   9.565   1.604
81208SOL    HW145521   2.652   9.603   1.590
81208SOL    HW245522   2.533   9.545   1.516
81209SOL     OW45523  12.225   2.513   9.588
81209SOL    HW145524  12.131   2.501   9.575
81209SOL    HW245525  12.265   2.448   9.532
81210SOL     OW45526   7.005  10.935   3.757
81210SOL    HW145527   6.943  10.909   3.689
81210SOL    HW245528   6.956  10.929   3.839
81211SOL     OW45529   3.857  13.097   6.429
81211SOL    HW145530   3.903  13.155   6.369
81211SOL    HW245531   3.913  13.020   6.436
81212SOL     OW45532   0.332   3.553   9.599
81212SOL    HW145533   0.342   3.495   9.674
81212SOL    HW245534   0.290   3.499   9.532
81213SOL     OW45535  12.547   1.956   3.480
81213SOL    HW145536  12.622   1.902   3.454
81213SOL    HW245537  12.512   1.913   3.558
81214SOL     OW45538   2.795   7.191   3.109
81214SOL    HW145539   2.872   7.248   3.105
81214SOL    HW245540   2.786   7.169   3.202
81215SOL     OW45541  11.710  11.267  11.000
81215SOL    HW145542  11.744  11.265  10.910
81215SOL    HW245543  11.760  11.336  11.043
81216SOL     OW45544  14.857   8.780  14.449
81216SOL    HW145545  14.817   8.777  14.362
81216SOL    HW245546  14.796   8.732  14.505
81217SOL     OW45547   3.933  13.534   3.234
81217SOL    HW145548   3.920  13.622   3.269
81217SOL    HW245549   3.874  13.479   3.286
81218SOL     OW45550  13.737   8.701  13.155
81218SOL    HW145551  13.666   8.645  13.187
81218SOL    HW245552  13.763   8.752  13.232
81219SOL     OW45553   8.502  10.788   1.294
81219SOL    HW145554   8.454  10.717   1.338
81219SOL    HW245555   8.477  10.867   1.342
81220SOL     OW45556   1.721   2.471   0.150
81220SOL    HW145557   1.686   2.558   0.170
81220SOL    HW245558   1.725   2.468   0.055
81221SOL     OW45559   2.959   5.148   6.459
81221SOL    HW145560   2.884   5.143   6.399
81221SOL    HW245561   2.920   5.165   6.544
81222SOL     OW45562   7.532   1.451   1.680
81222SOL    HW145563   7.546   1.357   1.692
81222SOL    HW245564   7.617   1.484   1.652
81223SOL     OW45565  13.348  14.780   3.062
81223SOL    HW145566  13.343  14.795   2.967
81223SOL    HW245567  13.440  14.761   3.079
81224SOL     OW45568   0.016   3.151   1.118
81224SOL    HW145569  14.814   3.095   1.145
81224SOL    HW245570   0.092   3.118   1.166
81225SOL     OW45571   0.235   9.045   6.422
81225SOL    HW145572   0.242   8.982   6.351
81225SOL    HW245573   0.268   9.127   6.386
81226SOL     OW45574   9.046   5.756   0.158
81226SOL    HW145575   9.034   5.661   0.156
81226SOL    HW245576   8.990   5.786   0.228
81227SOL     OW45577   7.922  11.774  11.282
81227SOL    HW145578   7.971  11.850  11.251
81227SOL    HW245579   7.929  11.711  11.211
81228SOL     OW45580   8.674   2.948  10.351
81228SOL    HW145581   8.667   3.017  10.284
81228SOL    HW245582   8.708   2.993  10.428
81229SOL     OW45583   3.681   6.892   9.689
81229SOL    HW145584   3.767   6.929   9.711
81229SOL    HW245585   3.696   6.797   9.689
81230SOL     OW45586  12.022   0.501   5.441
81230SOL    HW145587  11.943   0.499   5.386
81230SOL    HW245588  12.061   0.414   5.428
81231SOL     OW45589  10.024   7.933   3.368
81231SOL    HW145590  10.014   7.872   3.441
81231SOL    HW245591  10.066   7.882   3.299
81232SOL     OW45592   5.645   3.163   5.826
81232SOL    HW145593   5.605   3.121   5.902
81232SOL    HW245594   5.728   3.197   5.859
81233SOL     OW45595  12.674   9.142   7.213
81233SOL    HW145596  12.616   9.107   7.281
81233SOL    HW245597  12.747   9.080   7.209
81234SOL     OW45598   6.782   4.633   7.660
81234SOL    HW145599   6.832   4.701   7.704
81234SOL    HW245600   6.820   4.551   7.691
81235SOL     OW45601  14.246   6.969  10.575
81235SOL    HW145602  14.165   6.983  10.625
81235SOL    HW245603  14.316   6.985  10.638
81236SOL     OW45604  10.967   5.286   1.388
81236SOL    HW145605  10.949   5.311   1.298
81236SOL    HW245606  10.967   5.190   1.386
81237SOL     OW45607  13.515   0.615   1.879
81237SOL    HW145608  13.590   0.595   1.824
81237SOL    HW245609  13.522   0.553   1.952
81238SOL     OW45610   7.507   5.770   5.672
81238SOL    HW145611   7.583   5.716   5.693
81238SOL    HW245612   7.517   5.791   5.579
81239SOL     OW45613  14.086   0.050   4.323
81239SOL    HW145614  14.143   0.074   4.249
81239SOL    HW245615  14.136  14.853   4.370
81240SOL     OW45616   3.276   8.450   3.200
81240SOL    HW145617   3.217   8.517   3.165
81240SOL    HW245618   3.334   8.429   3.127
81241SOL     OW45619   3.598   1.253   7.034
81241SOL    HW145620   3.507   1.279   7.018
81241SOL    HW245621   3.644   1.281   6.955
81242SOL     OW45622   8.885   6.442  13.864
81242SOL    HW145623   8.913   6.352  13.849
81242SOL    HW245624   8.963   6.495  13.848
81243SOL     OW45625   4.047   6.051   0.153
81243SOL    HW145626   4.095   5.984   0.202
81243SOL    HW245627   4.056   6.024   0.062
81244SOL     OW45628   2.543  14.869  13.422
81244SOL    HW145629   2.550  14.847  13.329
81244SOL    HW245630   2.566  14.788  13.468
81245SOL     OW45631   3.086   9.505  14.344
81245SOL    HW145632   3.008   9.541  14.386
81245SOL    HW245633   3.080   9.535  14.253
81246SOL     OW45634  14.866   7.260   2.082
81246SOL    HW145635   0.052   7.325   2.039
81246SOL    HW245636  14.792   7.311   2.116
81247SOL     OW45637   4.324   4.806   9.303
81247SOL    HW145638   4.278   4.883   9.270
81247SOL    HW245639   4.269   4.774   9.374
81248SOL     OW45640  12.210  13.936   1.797
81248SOL    HW145641  12.269  13.945   1.872
81248SOL    HW245642  12.264  13.961   1.722
81249SOL     OW45643   4.619  11.131   6.721
81249SOL    HW145644   4.577  11.195   6.779
81249SOL    HW245645   4.707  11.120   6.757
81250SOL     OW45646  11.381   6.526  11.996
81250SOL    HW145647  11.349   6.576  12.071
81250SOL    HW245648  11.310   6.465  11.976
81251SOL     OW45649  11.571   2.266  10.810
81251SOL    HW145650  11.666   2.267  10.822
81251SOL    HW245651  11.536   2.256  10.898
81252SOL     OW45652   2.199   0.657   9.623
81252SOL    HW145653   2.239   0.708   9.694
81252SOL    HW245654   2.197   0.567   9.657
81253SOL     OW45655  12.530   5.233   1.865
81253SOL    HW145656  12.607   5.286   1.846
81253SOL    HW245657  12.488   5.277   1.940
81254SOL     OW45658   2.040   5.213  12.047
81254SOL    HW145659   2.097   5.239  12.120
81254SOL    HW245660   1.994   5.136  12.078
81255SOL     OW45661  10.647  10.336  13.641
81255SOL    HW145662  10.731  10.354  13.682
81255SOL    HW245663  10.601  10.420  13.643
81256SOL     OW45664   3.434   5.165   6.607
81256SOL    HW145665   3.355   5.165   6.553
81256SOL    HW245666   3.505   5.150   6.545
81257SOL     OW45667   9.417   4.378   9.119
81257SOL    HW145668   9.455   4.292   9.132
81257SOL    HW245669   9.358   4.390   9.194
81258SOL     OW45670  12.806   6.166   6.842
81258SOL    HW145671  12.725   6.189   6.796
81258SOL    HW245672  12.776   6.124   6.923
81259SOL     OW45673   8.550   3.842   0.186
81259SOL    HW145674   8.512   3.802   0.108
81259SOL    HW245675   8.580   3.768   0.239
81260SOL     OW45676  14.233   9.111  11.321
81260SOL    HW145677  14.229   9.108  11.417
81260SOL    HW245678  14.217   9.202  11.299
81261SOL     OW45679   9.030   9.486  11.530
81261SOL    HW145680   9.032   9.401  11.487
81261SOL    HW245681   9.088   9.541  11.478
81262SOL     OW45682   9.650  10.986  13.313
81262SOL    HW145683   9.570  11.023  13.351
81262SOL    HW245684   9.635  10.892  13.312
81263SOL     OW45685   5.217   0.614   9.057
81263SOL    HW145686   5.215   0.573   9.144
81263SOL    HW245687   5.219   0.540   8.996
81264SOL     OW45688  10.587   9.008  11.664
81264SOL    HW145689  10.546   9.018  11.578
81264SOL    HW245690  10.561   8.920  11.692
81265SOL     OW45691   8.179   0.482   1.142
81265SOL    HW145692   8.267   0.489   1.178
81265SOL    HW245693   8.183   0.407   1.083
81266SOL     OW45694   7.270  13.464   8.022
81266SOL    HW145695   7.361  13.436   8.007
81266SOL    HW245696   7.237  13.403   8.089
81267SOL     OW45697   5.529   6.525  10.602
81267SOL    HW145698   5.568   6.611  10.618
81267SOL    HW245699   5.436   6.543  10.589
81268SOL     OW45700  12.133  11.904   6.743
81268SOL    HW145701  12.050  11.871   6.710
81268SOL    HW245702  12.109  11.963   6.814
81269SOL     OW45703   3.341   2.837  11.820
81269SOL    HW145704   3.425   2.830  11.864
81269SOL    HW245705   3.297   2.910  11.864
81270SOL     OW45706   9.870   8.795   8.497
81270SOL    HW145707   9.832   8.840   8.422
81270SOL    HW245708   9.949   8.753   8.462
81271SOL     OW45709  10.586   5.555   5.600
81271SOL    HW145710  10.533   5.483   5.632
81271SOL    HW245711  10.659   5.561   5.662
81272SOL     OW45712  12.986   9.153  14.117
81272SOL    HW145713  12.979   9.168  14.211
81272SOL    HW245714  12.959   9.235  14.077
81273SOL     OW45715  11.720   3.031  10.772
81273SOL    HW145716  11.719   2.940  10.744
81273SOL    HW245717  11.792   3.037  10.834
81274SOL     OW45718  13.334   9.905   7.499
81274SOL    HW145719  13.395   9.907   7.426
81274SOL    HW245720  13.284   9.825   7.486
81275SOL     OW45721   3.282   6.318   7.457
81275SOL    HW145722   3.208   6.257   7.457
81275SOL    HW245723   3.247   6.397   7.417
81276SOL     OW45724   8.445  13.981   1.269
81276SOL    HW145725   8.462  13.959   1.361
81276SOL    HW245726   8.364  13.935   1.249
81277SOL     OW45727  10.460  12.521  10.116
81277SOL    HW145728  10.492  12.539  10.028
81277SOL    HW245729  10.380  12.470  10.102
81278SOL     OW45730  12.760  10.683   9.412
81278SOL    HW145731  12.682  10.733   9.435
81278SOL    HW245732  12.813  10.684   9.492
81279SOL     OW45733   5.521  10.848   1.484
81279SOL    HW145734   5.578  10.914   1.522
81279SOL    HW245735   5.467  10.818   1.557
81280SOL     OW45736   7.081   7.866   4.460
81280SOL    HW145737   7.031   7.844   4.381
81280SOL    HW245738   7.025   7.928   4.507
81281SOL     OW45739  11.739   6.744   6.656
81281SOL    HW145740  11.698   6.659   6.639
81281SOL    HW245741  11.782   6.766   6.574
81282SOL     OW45742  10.738   7.990  14.832
81282SOL    HW145743  10.649   7.968  14.860
81282SOL    HW245744  10.786   7.907  14.838
81283SOL     OW45745   6.272  11.562  13.180
81283SOL    HW145746   6.225  11.613  13.115
81283SOL    HW245747   6.364  11.581  13.164
81284SOL     OW45748  13.593  10.202   6.919
81284SOL    HW145749  13.571  10.272   6.858
81284SOL    HW245750  13.509  10.163   6.944
81285SOL     OW45751   5.455  14.168   6.679
81285SOL    HW145752   5.537  14.216   6.665
81285SOL    HW245753   5.428  14.193   6.768
81286SOL     OW45754   1.905  13.872   4.316
81286SOL    HW145755   1.817  13.892   4.283
81286SOL    HW245756   1.932  13.952   4.362
81287SOL     OW45757   8.394  10.163   2.599
81287SOL    HW145758   8.374  10.256   2.609
81287SOL    HW245759   8.488  10.157   2.616
81288SOL     OW45760   5.054   1.468   6.265
81288SOL    HW145761   5.061   1.485   6.359
81288SOL    HW245762   5.144   1.475   6.233
81289SOL     OW45763  12.968   3.422   0.756
81289SOL    HW145764  12.986   3.329   0.769
81289SOL    HW245765  12.904   3.424   0.685
81290SOL     OW45766   0.261   7.343   2.529
81290SOL    HW145767   0.201   7.285   2.576
81290SOL    HW245768   0.277   7.298   2.446
81291SOL     OW45769   7.478   9.064   4.816
81291SOL    HW145770   7.547   9.005   4.847
81291SOL    HW245771   7.414   9.066   4.887
81292SOL     OW45772   2.475   2.420  10.360
81292SOL    HW145773   2.419   2.454  10.291
81292SOL    HW245774   2.435   2.337  10.385
81293SOL     OW45775  10.916   8.632  12.818
81293SOL    HW145776  10.856   8.700  12.791
81293SOL    HW245777  10.936   8.652  12.910
81294SOL     OW45778  10.036   4.586   8.635
81294SOL    HW145779  10.024   4.535   8.555
81294SOL    HW245780  10.126   4.617   8.630
81295SOL     OW45781   8.533   6.929  10.848
81295SOL    HW145782   8.500   6.866  10.912
81295SOL    HW245783   8.521   6.886  10.764
81296SOL     OW45784  13.615   4.635  11.698
81296SOL    HW145785  13.632   4.714  11.750
81296SOL    HW245786  13.574   4.574  11.759
81297SOL     OW45787  14.752   6.842   7.284
81297SOL    HW145788  14.692   6.773   7.255
81297SOL    HW245789  14.799   6.867   7.204
81298SOL     OW45790   2.087  13.620   1.612
81298SOL    HW145791   1.991  13.620   1.613
81298SOL    HW245792   2.110  13.713   1.601
81299SOL     OW45793  11.148   4.292   5.106
81299SOL    HW145794  11.128   4.198   5.109
81299SOL    HW245795  11.211   4.305   5.178
81300SOL     OW45796   0.059   3.741   2.173
81300SOL    HW145797   0.080   3.661   2.126
81300SOL    HW245798   0.014   3.711   2.252
81301SOL     OW45799  13.183   3.939   0.908
81301SOL    HW145800  13.240   3.980   0.843
81301SOL    HW245801  13.131   3.876   0.858
81302SOL     OW45802  12.877  10.781  10.559
81302SOL    HW145803  12.867  10.856  10.618
81302SOL    HW245804  12.968  10.753  10.572
81303SOL     OW45805  13.576   8.407  14.351
81303SOL    HW145806  13.611   8.465  14.284
81303SOL    HW245807  13.514   8.351  14.305
81304SOL     OW45808   4.857   6.851   0.397
81304SOL    HW145809   4.892   6.939   0.412
81304SOL    HW245810   4.792   6.863   0.328
81305SOL     OW45811   7.311  11.290   0.949
81305SOL    HW145812   7.386  11.240   0.917
81305SOL    HW245813   7.235  11.241   0.919
81306SOL     OW45814   8.140  11.250   7.393
81306SOL    HW145815   8.226  11.229   7.357
81306SOL    HW245816   8.158  11.313   7.463
81307SOL     OW45817  14.467   4.529   9.506
81307SOL    HW145818  14.497   4.439   9.494
81307SOL    HW245819  14.513   4.560   9.584
81308SOL     OW45820  14.136  12.894  11.487
81308SOL    HW145821  14.063  12.933  11.535
81308SOL    HW245822  14.105  12.889  11.396
81309SOL     OW45823   7.018  14.711   8.905
81309SOL    HW145824   6.964  14.729   8.982
81309SOL    HW245825   6.961  14.664   8.845
81310SOL     OW45826  14.319   1.568   5.512
81310SOL    HW145827  14.277   1.608   5.436
81310SOL    HW245828  14.262   1.494   5.534
81311SOL     OW45829   9.791  10.465   3.155
81311SOL    HW145830   9.841  10.384   3.147
81311SOL    HW245831   9.849  10.532   3.117
81312SOL     OW45832  14.313   6.558  12.850
81312SOL    HW145833  14.296   6.464  12.839
81312SOL    HW245834  14.408   6.563  12.865
81313SOL     OW45835   5.684   3.960   1.154
81313SOL    HW145836   5.729   3.922   1.229
81313SOL    HW245837   5.749   4.018   1.114
81314SOL     OW45838   0.605   8.794   3.875
81314SOL    HW145839   0.679   8.855   3.883
81314SOL    HW245840   0.618   8.751   3.791
81315SOL     OW45841   2.473   9.523   1.337
81315SOL    HW145842   2.398   9.579   1.317
81315SOL    HW245843   2.515   9.507   1.252
81316SOL     OW45844   7.171  13.292   8.194
81316SOL    HW145845   7.091  13.246   8.219
81316SOL    HW245846   7.226  13.224   8.153
81317SOL     OW45847   8.705   1.180  10.209
81317SOL    HW145848   8.672   1.202  10.297
81317SOL    HW245849   8.779   1.239  10.197
81318SOL     OW45850   2.877  11.018   3.173
81318SOL    HW145851   2.848  10.941   3.222
81318SOL    HW245852   2.839  11.093   3.220
81319SOL     OW45853   1.144   2.145   9.743
81319SOL    HW145854   1.227   2.100   9.729
81319SOL    HW245855   1.117   2.174   9.656
81320SOL     OW45856   5.453  11.385  10.056
81320SOL    HW145857   5.360  11.401  10.073
81320SOL    HW245858   5.456  11.293  10.028
81321SOL     OW45859  12.957  10.376   1.614
81321SOL    HW145860  12.947  10.414   1.527
81321SOL    HW245861  13.049  10.389   1.636
81322SOL     OW45862   0.565   9.083  13.698
81322SOL    HW145863   0.474   9.074  13.668
81322SOL    HW245864   0.608   9.004  13.666
81323SOL     OW45865  11.717   2.980   8.075
81323SOL    HW145866  11.785   2.954   8.012
81323SOL    HW245867  11.658   3.036   8.024
81324SOL     OW45868   2.210   5.841   9.888
81324SOL    HW145869   2.170   5.818   9.972
81324SOL    HW245870   2.299   5.868   9.910
81325SOL     OW45871   1.945   5.332   9.306
81325SOL    HW145872   2.012   5.399   9.322
81325SOL    HW245873   1.924   5.299   9.393
81326SOL     OW45874   3.481   0.995   5.061
81326SOL    HW145875   3.560   0.958   5.021
81326SOL    HW245876   3.510   1.078   5.099
81327SOL     OW45877  10.348   5.656   6.658
81327SOL    HW145878  10.258   5.689   6.669
81327SOL    HW245879  10.338   5.579   6.602
81328SOL     OW45880   0.970   5.919   2.929
81328SOL    HW145881   0.929   5.999   2.896
81328SOL    HW245882   1.059   5.945   2.951
81329SOL     OW45883   4.547  11.854  11.595
81329SOL    HW145884   4.591  11.769  11.587
81329SOL    HW245885   4.619  11.916  11.611
81330SOL     OW45886  11.844   2.239  12.380
81330SOL    HW145887  11.878   2.301  12.445
81330SOL    HW245888  11.774   2.191  12.425
81331SOL     OW45889   6.270   3.700   5.714
81331SOL    HW145890   6.354   3.736   5.742
81331SOL    HW245891   6.250   3.632   5.779
81332SOL     OW45892   1.230  10.831   2.517
81332SOL    HW145893   1.313  10.790   2.494
81332SOL    HW245894   1.253  10.921   2.541
81333SOL     OW45895   8.862   6.535  12.628
81333SOL    HW145896   8.815   6.487  12.559
81333SOL    HW245897   8.915   6.599  12.580
81334SOL     OW45898   7.096   3.560  12.306
81334SOL    HW145899   7.092   3.501  12.381
81334SOL    HW245900   7.013   3.608  12.309
81335SOL     OW45901   7.009   7.594   5.438
81335SOL    HW145902   6.916   7.592   5.462
81335SOL    HW245903   7.010   7.576   5.344
81336SOL     OW45904  13.197  11.012   4.788
81336SOL    HW145905  13.284  11.009   4.749
81336SOL    HW245906  13.137  10.986   4.718
81337SOL     OW45907   9.490   5.885   1.430
81337SOL    HW145908   9.547   5.949   1.472
81337SOL    HW245909   9.509   5.803   1.474
81338SOL     OW45910  12.164   4.052   5.260
81338SOL    HW145911  12.219   4.010   5.327
81338SOL    HW245912  12.098   4.100   5.310
81339SOL     OW45913   6.203   0.522   3.161
81339SOL    HW145914   6.234   0.580   3.230
81339SOL    HW245915   6.120   0.488   3.194
81340SOL     OW45916  14.369  11.340   6.209
81340SOL    HW145917  14.334  11.264   6.162
81340SOL    HW245918  14.439  11.373   6.153
81341SOL     OW45919   1.860   2.590  10.289
81341SOL    HW145920   1.883   2.571  10.198
81341SOL    HW245921   1.920   2.660  10.315
81342SOL     OW45922   9.028   8.151   0.085
81342SOL    HW145923   9.000   8.239   0.060
81342SOL    HW245924   8.998   8.141   0.175
81343SOL     OW45925  11.117   3.167  14.739
81343SOL    HW145926  11.213   3.168  14.738
81343SOL    HW245927  11.093   3.132  14.653
81344SOL     OW45928  12.785   9.357   1.467
81344SOL    HW145929  12.703   9.366   1.515
81344SOL    HW245930  12.840   9.428   1.499
81345SOL     OW45931  14.677  13.138  11.745
81345SOL    HW145932  14.669  13.042  11.744
81345SOL    HW245933  14.678  13.162  11.652
81346SOL     OW45934   9.672   4.823   9.317
81346SOL    HW145935   9.638   4.774   9.392
81346SOL    HW245936   9.596   4.869   9.282
81347SOL     OW45937   2.146   2.417   7.358
81347SOL    HW145938   2.203   2.369   7.298
81347SOL    HW245939   2.084   2.351   7.390
81348SOL     OW45940   9.911   4.999   3.243
81348SOL    HW145941   9.834   5.005   3.188
81348SOL    HW245942   9.984   5.021   3.185
81349SOL     OW45943   7.744  10.889   6.895
81349SOL    HW145944   7.748  10.863   6.803
81349SOL    HW245945   7.811  10.835   6.938
81350SOL     OW45946   8.743   7.300   9.793
81350SOL    HW145947   8.801   7.224   9.799
81350SOL    HW245948   8.778   7.352   9.720
81351SOL     OW45949   8.483   2.598   2.949
81351SOL    HW145950   8.432   2.661   2.897
81351SOL    HW245951   8.418   2.534   2.979
81352SOL     OW45952   2.133  12.569   3.809
81352SOL    HW145953   2.221  12.567   3.771
81352SOL    HW245954   2.074  12.565   3.733
81353SOL     OW45955   5.323   6.762   2.280
81353SOL    HW145956   5.277   6.685   2.314
81353SOL    HW245957   5.370   6.731   2.203
81354SOL     OW45958   0.106   1.733   2.764
81354SOL    HW145959   0.123   1.820   2.728
81354SOL    HW245960   0.180   1.680   2.737
81355SOL     OW45961  14.594  14.693   5.185
81355SOL    HW145962  14.595  14.783   5.218
81355SOL    HW245963  14.525  14.693   5.118
81356SOL     OW45964   2.703   1.626  14.831
81356SOL    HW145965   2.775   1.583   0.007
81356SOL    HW245966   2.698   1.582  14.746
81357SOL     OW45967   4.493  10.676  11.339
81357SOL    HW145968   4.470  10.730  11.414
81357SOL    HW245969   4.582  10.645  11.358
81358SOL     OW45970   7.566   6.958   3.114
81358SOL    HW145971   7.585   6.870   3.082
81358SOL    HW245972   7.652   7.000   3.122
81359SOL     OW45973   1.187   6.992   0.421
81359SOL    HW145974   1.273   7.036   0.420
81359SOL    HW245975   1.128   7.054   0.463
81360SOL     OW45976   5.432   3.744   9.192
81360SOL    HW145977   5.451   3.676   9.257
81360SOL    HW245978   5.348   3.780   9.220
81361SOL     OW45979  12.643   7.734   6.551
81361SOL    HW145980  12.609   7.656   6.596
81361SOL    HW245981  12.586   7.745   6.475
81362SOL     OW45982  13.050   9.997   6.682
81362SOL    HW145983  13.126   9.976   6.736
81362SOL    HW245984  13.062   9.944   6.603
81363SOL     OW45985   0.468  13.899   2.633
81363SOL    HW145986   0.550  13.853   2.653
81363SOL    HW245987   0.414  13.834   2.590
81364SOL     OW45988  10.077   5.726  12.367
81364SOL    HW145989  10.138   5.656  12.391
81364SOL    HW245990  10.040   5.698  12.283
81365SOL     OW45991  10.626   4.703  10.163
81365SOL    HW145992  10.546   4.673  10.119
81365SOL    HW245993  10.651   4.630  10.220
81366SOL     OW45994   8.429   3.098   2.868
81366SOL    HW145995   8.450   3.036   2.937
81366SOL    HW245996   8.354   3.147   2.902
81367SOL     OW45997   7.575   7.481   3.422
81367SOL    HW145998   7.619   7.473   3.507
81367SOL    HW245999   7.544   7.572   3.420
81368SOL     OW46000  14.079   8.468  13.199
81368SOL    HW146001  14.004   8.482  13.141
81368SOL    HW246002  14.080   8.545  13.257
81369SOL     OW46003   9.703  13.165  14.099
81369SOL    HW146004   9.655  13.211  14.167
81369SOL    HW246005   9.712  13.075  14.132
81370SOL     OW46006   5.017   4.784   9.154
81370SOL    HW146007   4.984   4.805   9.241
81370SOL    HW246008   4.938   4.776   9.099
81371SOL     OW46009   1.330  13.288   7.201
81371SOL    HW146010   1.370  13.204   7.222
81371SOL    HW246011   1.239  13.266   7.181
81372SOL     OW46012  12.377   4.478   7.853
81372SOL    HW146013  12.298   4.526   7.827
81372SOL    HW246014  12.427   4.541   7.904
81373SOL     OW46015   1.046   2.751   4.604
81373SOL    HW146016   1.076   2.788   4.687
81373SOL    HW246017   0.988   2.679   4.629
81374SOL     OW46018   2.729  11.762  13.232
81374SOL    HW146019   2.687  11.834  13.278
81374SOL    HW246020   2.790  11.804  13.172
81375SOL     OW46021   2.218   5.841   5.753
81375SOL    HW146022   2.140   5.787   5.767
81375SOL    HW246023   2.259   5.805   5.675
81376SOL     OW46024   3.858   3.205   2.297
81376SOL    HW146025   3.881   3.252   2.377
81376SOL    HW246026   3.869   3.269   2.227
81377SOL     OW46027   9.002   8.694  12.703
81377SOL    HW146028   8.952   8.711  12.783
81377SOL    HW246029   9.093   8.686  12.734
81378SOL     OW46030   0.979   0.725   0.093
81378SOL    HW146031   0.999   0.819   0.098
81378SOL    HW246032   1.054   0.682   0.134
81379SOL     OW46033   5.019   9.804  13.467
81379SOL    HW146034   5.035   9.776  13.557
81379SOL    HW246035   4.983   9.892  13.475
81380SOL     OW46036  10.172  13.905  13.940
81380SOL    HW146037  10.173  13.893  13.845
81380SOL    HW246038  10.146  13.997  13.952
81381SOL     OW46039   0.757   9.852   1.723
81381SOL    HW146040   0.727   9.763   1.743
81381SOL    HW246041   0.852   9.849   1.735
81382SOL     OW46042   0.947   2.571   4.091
81382SOL    HW146043   0.917   2.569   4.181
81382SOL    HW246044   0.889   2.511   4.044
81383SOL     OW46045   3.699   8.413   5.999
81383SOL    HW146046   3.777   8.390   6.050
81383SOL    HW246047   3.662   8.328   5.973
81384SOL     OW46048   1.661   2.270   9.256
81384SOL    HW146049   1.622   2.349   9.293
81384SOL    HW246050   1.739   2.301   9.210
81385SOL     OW46051   3.369   4.598   0.066
81385SOL    HW146052   3.440   4.584   0.128
81385SOL    HW246053   3.338   4.511   0.043
81386SOL     OW46054   5.067  11.291   1.483
81386SOL    HW146055   5.021  11.364   1.443
81386SOL    HW246056   5.135  11.332   1.537
81387SOL     OW46057  13.782   8.279   6.504
81387SOL    HW146058  13.774   8.374   6.491
81387SOL    HW246059  13.822   8.247   6.424
81388SOL     OW46060  11.004   9.385  12.268
81388SOL    HW146061  11.092   9.424  12.266
81388SOL    HW246062  10.945   9.457  12.246
81389SOL     OW46063   0.035   2.884   5.480
81389SOL    HW146064  14.842   2.957   5.488
81389SOL    HW246065   0.112   2.914   5.528
81390SOL     OW46066   1.437   9.118  11.233
81390SOL    HW146067   1.520   9.153  11.201
81390SOL    HW246068   1.462   9.040  11.284
81391SOL     OW46069   5.858   7.559   4.541
81391SOL    HW146070   5.916   7.487   4.515
81391SOL    HW246071   5.779   7.515   4.573
81392SOL     OW46072  14.002   3.425   1.884
81392SOL    HW146073  13.951   3.505   1.888
81392SOL    HW246074  14.087   3.448   1.920
81393SOL     OW46075  14.486  13.376  11.702
81393SOL    HW146076  14.570  13.416  11.725
81393SOL    HW246077  14.428  13.451  11.688
81394SOL     OW46078   4.635   1.519   6.554
81394SOL    HW146079   4.730   1.532   6.551
81394SOL    HW246080   4.600   1.583   6.492
81395SOL     OW46081  10.404  14.124  10.150
81395SOL    HW146082  10.344  14.189  10.188
81395SOL    HW246083  10.416  14.060  10.220
81396SOL     OW46084   9.221  14.302   2.289
81396SOL    HW146085   9.139  14.301   2.241
81396SOL    HW246086   9.250  14.211   2.290
81397SOL     OW46087   0.913   4.089   4.209
81397SOL    HW146088   0.873   4.148   4.274
81397SOL    HW246089   0.919   4.005   4.254
81398SOL     OW46090   5.584   7.524   8.568
81398SOL    HW146091   5.546   7.588   8.507
81398SOL    HW246092   5.518   7.514   8.637
81399SOL     OW46093   7.858   3.240  10.536
81399SOL    HW146094   7.871   3.334  10.548
81399SOL    HW246095   7.901   3.199  10.611
81400SOL     OW46096   8.743  12.505   4.714
81400SOL    HW146097   8.730  12.539   4.803
81400SOL    HW246098   8.683  12.431   4.707
81401SOL     OW46099   3.499   3.881   6.907
81401SOL    HW146100   3.488   3.877   6.812
81401SOL    HW246101   3.564   3.949   6.922
81402SOL     OW46102  10.207  14.241  12.232
81402SOL    HW146103  10.198  14.178  12.304
81402SOL    HW246104  10.220  14.187  12.154
81403SOL     OW46105  14.217   4.623   9.560
81403SOL    HW146106  14.289   4.562   9.544
81403SOL    HW246107  14.252   4.709   9.535
81404SOL     OW46108  13.945   3.631  11.065
81404SOL    HW146109  14.006   3.691  11.106
81404SOL    HW246110  13.964   3.546  11.105
81405SOL     OW46111  14.067   1.663   9.119
81405SOL    HW146112  14.055   1.574   9.087
81405SOL    HW246113  14.133   1.701   9.061
81406SOL     OW46114   9.940  14.425  13.308
81406SOL    HW146115   9.870  14.418  13.372
81406SOL    HW246116   9.937  14.343  13.259
81407SOL     OW46117  11.933   0.131   1.884
81407SOL    HW146118  11.846   0.094   1.903
81407SOL    HW246119  11.973   0.067   1.825
81408SOL     OW46120  12.845   1.311   8.074
81408SOL    HW146121  12.770   1.275   8.120
81408SOL    HW246122  12.902   1.344   8.143
81409SOL     OW46123   5.785   9.243   3.400
81409SOL    HW146124   5.774   9.153   3.368
81409SOL    HW246125   5.812   9.233   3.491
81410SOL     OW46126   5.518  10.365  13.221
81410SOL    HW146127   5.539  10.295  13.282
81410SOL    HW246128   5.445  10.411  13.262
81411SOL     OW46129  14.007  10.833   1.044
81411SOL    HW146130  13.940  10.766   1.035
81411SOL    HW246131  14.028  10.833   1.138
81412SOL     OW46132   3.036  13.278   2.418
81412SOL    HW146133   3.081  13.198   2.445
81412SOL    HW246134   3.094  13.318   2.353
81413SOL     OW46135   1.091   0.319   3.046
81413SOL    HW146136   1.032   0.395   3.043
81413SOL    HW246137   1.112   0.301   2.955
81414SOL     OW46138  12.763   0.526   6.057
81414SOL    HW146139  12.810   0.480   6.126
81414SOL    HW246140  12.777   0.619   6.076
81415SOL     OW46141   0.492   2.047   7.239
81415SOL    HW146142   0.485   1.999   7.157
81415SOL    HW246143   0.576   2.092   7.234
81416SOL     OW46144  11.489  14.143   2.542
81416SOL    HW146145  11.421  14.206   2.569
81416SOL    HW246146  11.487  14.075   2.609
81417SOL     OW46147   5.885   3.319   7.675
81417SOL    HW146148   5.855   3.242   7.724
81417SOL    HW246149   5.813   3.341   7.616
81418SOL     OW46150   7.288   3.806  11.773
81418SOL    HW146151   7.305   3.792  11.866
81418SOL    HW246152   7.203   3.763  11.758
81419SOL     OW46153   6.316  12.853  11.519
81419SOL    HW146154   6.308  12.762  11.547
81419SOL    HW246155   6.366  12.896  11.589
81420SOL     OW46156   2.571  14.262   8.513
81420SOL    HW146157   2.541  14.344   8.474
81420SOL    HW246158   2.491  14.213   8.532
81421SOL     OW46159   0.224   2.966  14.619
81421SOL    HW146160   0.213   2.962  14.524
81421SOL    HW246161   0.303   3.017  14.632
81422SOL     OW46162  14.564  13.934   0.104
81422SOL    HW146163  14.631  13.964   0.043
81422SOL    HW246164  14.505  13.880   0.050
81423SOL     OW46165   0.361  12.408   0.822
81423SOL    HW146166   0.345  12.396   0.728
81423SOL    HW246167   0.455  12.426   0.828
81424SOL     OW46168   3.805   0.925  11.650
81424SOL    HW146169   3.873   0.884  11.704
81424SOL    HW246170   3.845   1.006  11.620
81425SOL     OW46171  14.714   6.863   9.491
81425SOL    HW146172  14.675   6.819   9.416
81425SOL    HW246173  14.769   6.797   9.532
81426SOL     OW46174  10.056   3.807   6.338
81426SOL    HW146175  10.031   3.759   6.259
81426SOL    HW246176   9.994   3.879   6.343
81427SOL     OW46177   8.662   3.480  11.418
81427SOL    HW146178   8.607   3.403  11.429
81427SOL    HW246179   8.732   3.469  11.482
81428SOL     OW46180  11.133  14.535   0.842
81428SOL    HW146181  11.139  14.459   0.899
81428SOL    HW246182  11.076  14.596   0.889
81429SOL     OW46183   9.320  10.735   6.778
81429SOL    HW146184   9.237  10.697   6.806
81429SOL    HW246185   9.308  10.753   6.685
81430SOL     OW46186  12.961  13.398   8.163
81430SOL    HW146187  13.054  13.410   8.183
81430SOL    HW246188  12.919  13.391   8.249
81431SOL     OW46189   4.327   2.315   0.352
81431SOL    HW146190   4.422   2.314   0.349
81431SOL    HW246191   4.302   2.401   0.317
81432SOL     OW46192  10.548  11.844  14.728
81432SOL    HW146193  10.473  11.903  14.722
81432SOL    HW246194  10.618  11.898  14.765
81433SOL     OW46195   9.501   7.016   8.024
81433SOL    HW146196   9.420   7.054   8.057
81433SOL    HW246197   9.554   7.091   7.996
81434SOL     OW46198   4.529   1.343   3.076
81434SOL    HW146199   4.515   1.281   3.148
81434SOL    HW246200   4.569   1.419   3.119
81435SOL     OW46201   6.546   1.568  14.108
81435SOL    HW146202   6.631   1.581  14.065
81435SOL    HW246203   6.542   1.637  14.174
81436SOL     OW46204  10.436   5.052   9.029
81436SOL    HW146205  10.427   5.050   8.934
81436SOL    HW246206  10.402   4.968   9.058
81437SOL     OW46207  13.295  10.649   6.665
81437SOL    HW146208  13.344  10.631   6.746
81437SOL    HW246209  13.349  10.610   6.596
81438SOL     OW46210   8.104  11.732   9.049
81438SOL    HW146211   8.075  11.667   9.114
81438SOL    HW246212   8.023  11.772   9.018
81439SOL     OW46213   2.376   8.595   0.875
81439SOL    HW146214   2.326   8.671   0.903
81439SOL    HW246215   2.468   8.624   0.879
81440SOL     OW46216   2.843   6.155   5.086
81440SOL    HW146217   2.849   6.227   5.023
81440SOL    HW246218   2.749   6.143   5.101
81441SOL     OW46219  12.920   5.200  12.893
81441SOL    HW146220  12.826   5.183  12.888
81441SOL    HW246221  12.935   5.227  12.984
81442SOL     OW46222   5.085   2.262  13.919
81442SOL    HW146223   5.163   2.307  13.886
81442SOL    HW246224   5.068   2.303  14.004
81443SOL     OW46225   9.727   6.576   0.393
81443SOL    HW146226   9.650   6.535   0.433
81443SOL    HW246227   9.723   6.550   0.301
81444SOL     OW46228  13.734  10.040  13.168
81444SOL    HW146229  13.798  10.087  13.116
81444SOL    HW246230  13.659  10.100  13.173
81445SOL     OW46231   2.409   2.199   8.144
81445SOL    HW146232   2.457   2.276   8.114
81445SOL    HW246233   2.456   2.170   8.222
81446SOL     OW46234   8.830  11.321  13.104
81446SOL    HW146235   8.760  11.386  13.093
81446SOL    HW246236   8.813  11.281  13.189
81447SOL     OW46237   9.974   4.890   1.412
81447SOL    HW146238  10.009   4.979   1.404
81447SOL    HW246239   9.978   4.871   1.505
81448SOL     OW46240  14.035   5.189   0.694
81448SOL    HW146241  14.048   5.187   0.789
81448SOL    HW246242  14.072   5.107   0.662
81449SOL     OW46243   9.532   3.372   5.466
81449SOL    HW146244   9.471   3.345   5.536
81449SOL    HW246245   9.597   3.425   5.511
81450SOL     OW46246   0.973  13.772  12.072
81450SOL    HW146247   0.968  13.746  12.164
81450SOL    HW246248   0.916  13.711  12.026
81451SOL     OW46249  13.316   8.738   0.795
81451SOL    HW146250  13.283   8.827   0.808
81451SOL    HW246251  13.356   8.715   0.879
81452SOL     OW46252  11.415  10.690   0.707
81452SOL    HW146253  11.439  10.746   0.781
81452SOL    HW246254  11.365  10.748   0.649
81453SOL     OW46255   3.801   8.820   5.047
81453SOL    HW146256   3.803   8.916   5.047
81453SOL    HW246257   3.856   8.795   5.122
81454SOL     OW46258  10.973   1.696   3.685
81454SOL    HW146259  10.885   1.707   3.721
81454SOL    HW246260  10.984   1.601   3.678
81455SOL     OW46261   6.190   0.781   4.305
81455SOL    HW146262   6.192   0.688   4.329
81455SOL    HW246263   6.112   0.789   4.250
81456SOL     OW46264   6.824  14.304   5.746
81456SOL    HW146265   6.812  14.301   5.841
81456SOL    HW246266   6.735  14.309   5.711
81457SOL     OW46267  13.247   7.628   4.778
81457SOL    HW146268  13.166   7.577   4.775
81457SOL    HW246269  13.306   7.575   4.831
81458SOL     OW46270   5.654  12.245   8.764
81458SOL    HW146271   5.619  12.322   8.717
81458SOL    HW246272   5.634  12.262   8.856
81459SOL     OW46273   1.190   6.312   6.517
81459SOL    HW146274   1.264   6.364   6.547
81459SOL    HW246275   1.224   6.262   6.442
81460SOL     OW46276  14.267  14.617   8.433
81460SOL    HW146277  14.180  14.632   8.470
81460SOL    HW246278  14.274  14.522   8.427
81461SOL     OW46279  10.813   2.678  12.034
81461SOL    HW146280  10.772   2.763  12.050
81461SOL    HW246281  10.907   2.694  12.047
81462SOL     OW46282  10.760  14.331   3.675
81462SOL    HW146283  10.743  14.290   3.590
81462SOL    HW246284  10.687  14.302   3.731
81463SOL     OW46285   8.536  12.387  13.984
81463SOL    HW146286   8.533  12.459  13.921
81463SOL    HW246287   8.503  12.425  14.066
81464SOL     OW46288   4.897   1.864   9.654
81464SOL    HW146289   4.936   1.895   9.572
81464SOL    HW246290   4.804   1.854   9.633
81465SOL     OW46291   8.905  13.466  10.411
81465SOL    HW146292   8.909  13.556  10.378
81465SOL    HW246293   8.988  13.455  10.459
81466SOL     OW46294  11.375   5.980   0.063
81466SOL    HW146295  11.363   5.991  14.839
81466SOL    HW246296  11.425   6.057   0.090
81467SOL     OW46297   4.331  11.928  11.998
81467SOL    HW146298   4.303  11.954  12.086
81467SOL    HW246299   4.412  11.977  11.983
81468SOL     OW46300   3.740   2.063  10.401
81468SOL    HW146301   3.783   2.145  10.376
81468SOL    HW246302   3.804   2.019  10.458
81469SOL     OW46303   9.489   3.111   6.283
81469SOL    HW146304   9.472   3.163   6.361
81469SOL    HW246305   9.529   3.030   6.316
81470SOL     OW46306   5.146   6.239   5.297
81470SOL    HW146307   5.221   6.184   5.272
81470SOL    HW246308   5.185   6.312   5.346
81471SOL     OW46309  10.094   6.102   1.509
81471SOL    HW146310  10.088   6.122   1.416
81471SOL    HW246311  10.073   6.009   1.516
81472SOL     OW46312   7.674  11.558   9.300
81472SOL    HW146313   7.591  11.548   9.255
81472SOL    HW246314   7.656  11.532   9.390
81473SOL     OW46315   7.844   8.853   1.272
81473SOL    HW146316   7.918   8.906   1.301
81473SOL    HW246317   7.871   8.818   1.187
81474SOL     OW46318   4.031  10.585  13.096
81474SOL    HW146319   4.124  10.606  13.110
81474SOL    HW246320   3.984  10.643  13.156
81475SOL     OW46321  14.086   1.387   9.545
81475SOL    HW146322  14.029   1.336   9.602
81475SOL    HW246323  14.067   1.354   9.457
81476SOL     OW46324  11.262  13.868   6.024
81476SOL    HW146325  11.273  13.828   5.938
81476SOL    HW246326  11.272  13.796   6.085
81477SOL     OW46327   3.083  12.109  12.984
81477SOL    HW146328   3.020  12.144  12.921
81477SOL    HW246329   3.146  12.180  12.996
81478SOL     OW46330   9.398   8.409   7.077
81478SOL    HW146331   9.358   8.497   7.077
81478SOL    HW246332   9.452   8.407   6.998
81479SOL     OW46333  14.190   6.669   7.230
81479SOL    HW146334  14.253   6.598   7.240
81479SOL    HW246335  14.122   6.633   7.173
81480SOL     OW46336   6.295   8.170   6.815
81480SOL    HW146337   6.220   8.130   6.858
81480SOL    HW246338   6.371   8.122   6.848
81481SOL     OW46339   0.527  12.895   1.547
81481SOL    HW146340   0.513  12.988   1.527
81481SOL    HW246341   0.552  12.856   1.464
81482SOL     OW46342   9.538   2.853  13.352
81482SOL    HW146343   9.465   2.870  13.411
81482SOL    HW246344   9.593   2.790  13.399
81483SOL     OW46345   3.851  14.303   9.037
81483SOL    HW146346   3.833  14.212   9.061
81483SOL    HW246347   3.766  14.347   9.045
81484SOL     OW46348   6.995   0.788   7.242
81484SOL    HW146349   6.917   0.831   7.207
81484SOL    HW246350   7.055   0.859   7.264
81485SOL     OW46351   9.008   9.357   3.205
81485SOL    HW146352   8.975   9.446   3.190
81485SOL    HW246353   9.091   9.370   3.251
81486SOL     OW46354   7.139   3.875  10.312
81486SOL    HW146355   7.081   3.894  10.385
81486SOL    HW246356   7.205   3.817  10.348
81487SOL     OW46357  10.271  12.389   9.981
81487SOL    HW146358  10.178  12.410   9.985
81487SOL    HW246359  10.274  12.294   9.971
81488SOL     OW46360   8.337   1.866   9.701
81488SOL    HW146361   8.415   1.858   9.756
81488SOL    HW246362   8.370   1.861   9.612
81489SOL     OW46363   5.600  12.300   7.146
81489SOL    HW146364   5.554  12.381   7.122
81489SOL    HW246365   5.540  12.230   7.121
81490SOL     OW46366   5.127   8.685   9.390
81490SOL    HW146367   5.170   8.670   9.306
81490SOL    HW246368   5.103   8.777   9.389
81491SOL     OW46369  13.055  11.963   4.943
81491SOL    HW146370  12.975  11.988   4.898
81491SOL    HW246371  13.026  11.942   5.032
81492SOL     OW46372   1.279  12.184   7.613
81492SOL    HW146373   1.334  12.116   7.575
81492SOL    HW246374   1.206  12.192   7.552
81493SOL     OW46375   5.812  11.083   2.530
81493SOL    HW146376   5.753  11.121   2.595
81493SOL    HW246377   5.774  11.109   2.446
81494SOL     OW46378   8.722  11.419  13.793
81494SOL    HW146379   8.717  11.455  13.881
81494SOL    HW246380   8.755  11.330  13.805
81495SOL     OW46381   0.250   5.571   4.957
81495SOL    HW146382   0.319   5.632   4.931
81495SOL    HW246383   0.285   5.484   4.936
81496SOL     OW46384   9.765  14.809   0.013
81496SOL    HW146385   9.826  14.780   0.081
81496SOL    HW246386   9.701  14.862   0.059
81497SOL     OW46387  10.902  11.880  14.811
81497SOL    HW146388  10.958  11.842   0.009
81497SOL    HW246389  10.866  11.805  14.764
81498SOL     OW46390   0.814   5.610   2.133
81498SOL    HW146391   0.857   5.663   2.067
81498SOL    HW246392   0.823   5.520   2.101
81499SOL     OW46393  11.957   5.378   6.778
81499SOL    HW146394  12.050   5.359   6.791
81499SOL    HW246395  11.938   5.449   6.840
81500SOL     OW46396  10.354   2.070  11.438
81500SOL    HW146397  10.377   1.981  11.463
81500SOL    HW246398  10.327   2.063  11.347
81501SOL     OW46399   4.497   7.261   9.055
81501SOL    HW146400   4.462   7.172   9.060
81501SOL    HW246401   4.443   7.304   8.989
81502SOL     OW46402  11.881   2.403  10.360
81502SOL    HW146403  11.904   2.444  10.277
81502SOL    HW246404  11.942   2.329  10.367
81503SOL     OW46405   3.793   5.481   9.848
81503SOL    HW146406   3.835   5.553   9.800
81503SOL    HW246407   3.762   5.422   9.779
81504SOL     OW46408  12.492   7.420   0.985
81504SOL    HW146409  12.505   7.326   0.998
81504SOL    HW246410  12.564   7.461   1.034
81505SOL     OW46411   1.395  14.367   4.970
81505SOL    HW146412   1.471  14.374   4.911
81505SOL    HW246413   1.433  14.341   5.054
81506SOL     OW46414  11.020  10.882  13.716
81506SOL    HW146415  10.978  10.862  13.800
81506SOL    HW246416  10.981  10.965  13.690
81507SOL     OW46417  10.202   0.325   5.138
81507SOL    HW146418  10.253   0.377   5.201
81507SOL    HW246419  10.146   0.270   5.192
81508SOL     OW46420   0.770   9.958   5.994
81508SOL    HW146421   0.692   9.919   5.955
81508SOL    HW246422   0.760   9.943   6.088
81509SOL     OW46423   8.129  12.189  14.366
81509SOL    HW146424   8.162  12.100  14.357
81509SOL    HW246425   8.121  12.203  14.461
81510SOL     OW46426  11.569  13.634  13.820
81510SOL    HW146427  11.586  13.601  13.908
81510SOL    HW246428  11.476  13.657  13.820
81511SOL     OW46429  11.177   5.642  13.941
81511SOL    HW146430  11.256   5.617  13.989
81511SOL    HW246431  11.105   5.621  13.999
81512SOL     OW46432   9.010   0.340   1.493
81512SOL    HW146433   9.065   0.289   1.552
81512SOL    HW246434   8.965   0.402   1.550
81513SOL     OW46435   0.592   8.080   8.672
81513SOL    HW146436   0.588   8.014   8.742
81513SOL    HW246437   0.502   8.111   8.664
81514SOL     OW46438  11.022   2.547   5.079
81514SOL    HW146439  10.988   2.502   5.001
81514SOL    HW246440  10.950   2.605   5.106
81515SOL     OW46441   9.065  13.756  12.614
81515SOL    HW146442   9.022  13.691  12.669
81515SOL    HW246443   9.104  13.706  12.542
81516SOL     OW46444   7.774   9.324  13.502
81516SOL    HW146445   7.711   9.395  13.487
81516SOL    HW246446   7.858   9.369  13.513
81517SOL     OW46447  11.605   2.541  10.590
81517SOL    HW146448  11.561   2.461  10.618
81517SOL    HW246449  11.534   2.605  10.579
81518SOL     OW46450   0.382   0.457   5.571
81518SOL    HW146451   0.341   0.376   5.600
81518SOL    HW246452   0.369   0.458   5.476
81519SOL     OW46453   6.196  13.894  13.740
81519SOL    HW146454   6.119  13.946  13.716
81519SOL    HW246455   6.196  13.821  13.679
81520SOL     OW46456  12.470   8.391   1.510
81520SOL    HW146457  12.475   8.410   1.416
81520SOL    HW246458  12.558   8.409   1.543
81521SOL     OW46459  14.666   0.988   5.309
81521SOL    HW146460  14.750   1.034   5.316
81521SOL    HW246461  14.683   0.901   5.346
81522SOL     OW46462   8.687   3.249  11.165
81522SOL    HW146463   8.596   3.263  11.142
81522SOL    HW246464   8.731   3.330  11.140
81523SOL     OW46465   8.249   4.287  12.337
81523SOL    HW146466   8.329   4.235  12.347
81523SOL    HW246467   8.196   4.237  12.275
81524SOL     OW46468   3.151   6.822   2.714
81524SOL    HW146469   3.154   6.752   2.649
81524SOL    HW246470   3.189   6.898   2.670
81525SOL     OW46471  12.070   4.740   8.776
81525SOL    HW146472  12.155   4.739   8.734
81525SOL    HW246473  12.021   4.809   8.731
81526SOL     OW46474  10.914   4.218   4.192
81526SOL    HW146475  10.914   4.198   4.286
81526SOL    HW246476  10.924   4.133   4.149
81527SOL     OW46477   8.122   5.885  11.540
81527SOL    HW146478   8.140   5.807  11.593
81527SOL    HW246479   8.204   5.902  11.494
81528SOL     OW46480   2.098   8.206   2.730
81528SOL    HW146481   2.172   8.165   2.775
81528SOL    HW246482   2.138   8.255   2.658
81529SOL     OW46483   1.733  10.593   4.560
81529SOL    HW146484   1.699  10.600   4.649
81529SOL    HW246485   1.714  10.502   4.535
81530SOL     OW46486   7.608   8.617  14.289
81530SOL    HW146487   7.517   8.638  14.265
81530SOL    HW246488   7.634   8.551  14.224
81531SOL     OW46489   9.632   9.392  10.541
81531SOL    HW146490   9.662   9.474  10.501
81531SOL    HW246491   9.646   9.406  10.635
81532SOL     OW46492  10.623  14.063  11.364
81532SOL    HW146493  10.710  14.085  11.398
81532SOL    HW246494  10.577  14.025  11.439
81533SOL     OW46495   3.239   2.520  10.198
81533SOL    HW146496   3.187   2.442  10.218
81533SOL    HW246497   3.175   2.583  10.164
81534SOL     OW46498  12.343   1.964   3.708
81534SOL    HW146499  12.282   1.932   3.642
81534SOL    HW246500  12.310   2.051   3.731
81535SOL     OW46501  10.592   1.172  13.809
81535SOL    HW146502  10.601   1.084  13.843
81535SOL    HW246503  10.580   1.227  13.886
81536SOL     OW46504   4.205   6.231   9.131
81536SOL    HW146505   4.248   6.295   9.075
81536SOL    HW246506   4.188   6.277   9.213
81537SOL     OW46507   6.251  11.933  10.908
81537SOL    HW146508   6.173  11.930  10.963
81537SOL    HW246509   6.313  11.986  10.958
81538SOL     OW46510   8.000  12.590  10.592
81538SOL    HW146511   7.956  12.581  10.676
81538SOL    HW246512   7.941  12.547  10.530
81539SOL     OW46513  10.846  10.839  11.822
81539SOL    HW146514  10.812  10.753  11.847
81539SOL    HW246515  10.901  10.822  11.745
81540SOL     OW46516   0.679  13.536   5.064
81540SOL    HW146517   0.720  13.535   5.151
81540SOL    HW246518   0.742  13.491   5.007
81541SOL     OW46519  12.179   2.787   1.762
81541SOL    HW146520  12.254   2.761   1.709
81541SOL    HW246521  12.125   2.708   1.767
81542SOL     OW46522  12.882   4.000   9.076
81542SOL    HW146523  12.950   4.064   9.094
81542SOL    HW246524  12.918   3.944   9.007
81543SOL     OW46525  13.231   6.050   1.539
81543SOL    HW146526  13.217   5.962   1.574
81543SOL    HW246527  13.152   6.098   1.561
81544SOL     OW46528   1.193   9.014   1.418
81544SOL    HW146529   1.233   8.936   1.379
81544SOL    HW246530   1.116   9.032   1.363
81545SOL     OW46531  10.134  10.597   5.438
81545SOL    HW146532  10.052  10.616   5.393
81545SOL    HW246533  10.198  10.588   5.368
81546SOL     OW46534   0.942   9.347   4.544
81546SOL    HW146535   0.929   9.283   4.614
81546SOL    HW246536   1.021   9.318   4.498
81547SOL     OW46537   7.009   3.580   6.300
81547SOL    HW146538   6.954   3.614   6.371
81547SOL    HW246539   6.983   3.630   6.223
81548SOL     OW46540  12.356   2.055  12.104
81548SOL    HW146541  12.334   2.091  12.018
81548SOL    HW246542  12.303   1.975  12.111
81549SOL     OW46543  14.573   9.761   4.751
81549SOL    HW146544  14.571   9.852   4.721
81549SOL    HW246545  14.547   9.710   4.674
81550SOL     OW46546   2.281   9.329  14.290
81550SOL    HW146547   2.199   9.336  14.339
81550SOL    HW246548   2.349   9.339  14.357
81551SOL     OW46549  14.334  11.985   0.975
81551SOL    HW146550  14.290  12.040   1.040
81551SOL    HW246551  14.374  12.047   0.914
81552SOL     OW46552   9.110  10.068   1.430
81552SOL    HW146553   9.119  10.080   1.336
81552SOL    HW246554   9.199  10.049   1.460
81553SOL     OW46555  12.053   8.634   2.672
81553SOL    HW146556  12.117   8.704   2.659
81553SOL    HW246557  11.968   8.678   2.664
81554SOL     OW46558   3.734  10.384  11.356
81554SOL    HW146559   3.828  10.401  11.353
81554SOL    HW246560   3.703  10.406  11.268
81555SOL     OW46561  14.639  12.953  10.725
81555SOL    HW146562  14.710  12.949  10.788
81555SOL    HW246563  14.678  12.992  10.647
81556SOL     OW46564   1.355  12.184   2.998
81556SOL    HW146565   1.427  12.121   3.000
81556SOL    HW246566   1.278  12.133   3.022
81557SOL     OW46567   0.745   7.327   1.477
81557SOL    HW146568   0.655   7.299   1.495
81557SOL    HW246569   0.749   7.335   1.382
81558SOL     OW46570   8.984   6.688   0.854
81558SOL    HW146571   8.933   6.607   0.864
81558SOL    HW246572   8.990   6.700   0.759
81559SOL     OW46573   8.669   9.751   8.535
81559SOL    HW146574   8.594   9.693   8.550
81559SOL    HW246575   8.742   9.707   8.577
81560SOL     OW46576  12.184   7.895   0.230
81560SOL    HW146577  12.125   7.826   0.263
81560SOL    HW246578  12.264   7.848   0.206
81561SOL     OW46579   0.321   1.224  13.198
81561SOL    HW146580   0.281   1.228  13.111
81561SOL    HW246581   0.396   1.166  13.188
81562SOL     OW46582   3.462   2.218  14.801
81562SOL    HW146583   3.463   2.234  14.706
81562SOL    HW246584   3.429   2.300  14.838
81563SOL     OW46585   9.915  12.835   0.405
81563SOL    HW146586   9.930  12.869   0.494
81563SOL    HW246587   9.859  12.901   0.363
81564SOL     OW46588   8.692   2.903   6.343
81564SOL    HW146589   8.706   2.984   6.393
81564SOL    HW246590   8.759   2.844   6.375
81565SOL     OW46591   8.107   8.755   8.473
81565SOL    HW146592   8.029   8.810   8.465
81565SOL    HW246593   8.077   8.677   8.520
81566SOL     OW46594  13.823  13.766   8.178
81566SOL    HW146595  13.914  13.737   8.172
81566SOL    HW246596  13.776  13.705   8.121
81567SOL     OW46597   9.794   4.532  13.005
81567SOL    HW146598   9.839   4.597  12.952
81567SOL    HW246599   9.747   4.583  13.071
81568SOL     OW46600   2.076   8.391  12.082
81568SOL    HW146601   2.064   8.422  11.992
81568SOL    HW246602   2.114   8.465  12.128
81569SOL     OW46603  10.757   9.221  12.870
81569SOL    HW146604  10.844   9.260  12.880
81569SOL    HW246605  10.756   9.186  12.781
81570SOL     OW46606  13.079  10.937   9.678
81570SOL    HW146607  13.036  10.852   9.672
81570SOL    HW246608  13.066  10.964   9.769
81571SOL     OW46609  11.611   8.840  10.409
81571SOL    HW146610  11.539   8.821  10.350
81571SOL    HW246611  11.671   8.895  10.357
81572SOL     OW46612   5.623   1.632   5.876
81572SOL    HW146613   5.703   1.579   5.878
81572SOL    HW246614   5.558   1.579   5.923
81573SOL     OW46615  11.569  10.498   8.458
81573SOL    HW146616  11.557  10.467   8.548
81573SOL    HW246617  11.664  10.502   8.446
81574SOL     OW46618  10.927   7.488  12.523
81574SOL    HW146619  11.013   7.475  12.563
81574SOL    HW246620  10.893   7.567  12.565
81575SOL     OW46621   0.078   2.754   6.801
81575SOL    HW146622   0.072   2.669   6.757
81575SOL    HW246623  14.862   2.766   6.841
81576SOL     OW46624  11.464   0.648   5.125
81576SOL    HW146625  11.446   0.742   5.120
81576SOL    HW246626  11.527   0.640   5.196
81577SOL     OW46627   2.282  10.625  14.069
81577SOL    HW146628   2.378  10.614  14.073
81577SOL    HW246629   2.267  10.713  14.102
81578SOL     OW46630   5.422   5.193   9.223
81578SOL    HW146631   5.477   5.268   9.243
81578SOL    HW246632   5.371   5.220   9.147
81579SOL     OW46633  12.238  14.629   0.770
81579SOL    HW146634  12.246  14.621   0.675
81579SOL    HW246635  12.151  14.665   0.785
81580SOL     OW46636   8.502  13.184   1.426
81580SOL    HW146637   8.507  13.227   1.340
81580SOL    HW246638   8.588  13.199   1.465
81581SOL     OW46639  11.153   6.380  12.067
81581SOL    HW146640  11.167   6.459  12.120
81581SOL    HW246641  11.084   6.405  12.005
81582SOL     OW46642   0.041   9.916   9.193
81582SOL    HW146643   0.078   9.828   9.192
81582SOL    HW246644  14.816   9.902   9.192
81583SOL     OW46645  14.503   0.457   3.731
81583SOL    HW146646  14.490   0.381   3.788
81583SOL    HW246647  14.530   0.527   3.791
81584SOL     OW46648  13.855   9.156  12.724
81584SOL    HW146649  13.946   9.185  12.718
81584SOL    HW246650  13.822   9.165  12.634
81585SOL     OW46651   3.872   2.612  13.114
81585SOL    HW146652   3.794   2.563  13.140
81585SOL    HW246653   3.940   2.545  13.106
81586SOL     OW46654  13.577  14.040   7.660
81586SOL    HW146655  13.515  14.030   7.732
81586SOL    HW246656  13.556  13.969   7.600
81587SOL     OW46657   8.808   6.525   2.215
81587SOL    HW146658   8.779   6.521   2.307
81587SOL    HW246659   8.858   6.606   2.209
81588SOL     OW46660   1.092   6.329   4.081
81588SOL    HW146661   1.055   6.416   4.066
81588SOL    HW246662   1.187   6.344   4.085
81589SOL     OW46663   0.674   1.382  13.201
81589SOL    HW146664   0.625   1.410  13.278
81589SOL    HW246665   0.763   1.369  13.232
81590SOL     OW46666  12.366   4.140   1.568
81590SOL    HW146667  12.371   4.073   1.500
81590SOL    HW246668  12.334   4.093   1.645
81591SOL     OW46669   0.546   2.289   8.589
81591SOL    HW146670   0.590   2.357   8.641
81591SOL    HW246671   0.614   2.225   8.570
81592SOL     OW46672   7.008  11.009   8.022
81592SOL    HW146673   7.041  11.083   8.073
81592SOL    HW246674   7.060  11.011   7.942
81593SOL     OW46675   3.404  13.207   6.731
81593SOL    HW146676   3.471  13.141   6.749
81593SOL    HW246677   3.352  13.170   6.660
81594SOL     OW46678  14.438   8.684  11.823
81594SOL    HW146679  14.492   8.695  11.744
81594SOL    HW246680  14.480   8.612  11.870
81595SOL     OW46681   1.210  12.897  11.126
81595SOL    HW146682   1.128  12.942  11.142
81595SOL    HW246683   1.249  12.944  11.052
81596SOL     OW46684   2.055  13.093   1.324
81596SOL    HW146685   2.043  13.151   1.399
81596SOL    HW246686   2.091  13.150   1.256
81597SOL     OW46687  12.760  13.642   6.711
81597SOL    HW146688  12.853  13.646   6.730
81597SOL    HW246689  12.718  13.668   6.793
81598SOL     OW46690   1.862   5.899   6.842
81598SOL    HW146691   1.924   5.887   6.769
81598SOL    HW246692   1.916   5.888   6.920
81599SOL     OW46693  10.526  14.173   6.570
81599SOL    HW146694  10.441  14.213   6.555
81599SOL    HW246695  10.529  14.154   6.663
81600SOL     OW46696  11.997  11.995   8.505
81600SOL    HW146697  12.079  11.975   8.460
81600SOL    HW246698  11.967  11.911   8.539
81601SOL     OW46699  12.611  12.179  13.577
81601SOL    HW146700  12.533  12.203  13.627
81601SOL    HW246701  12.680  12.235  13.613
81602SOL     OW46702   9.433  11.386  10.204
81602SOL    HW146703   9.465  11.361  10.291
81602SOL    HW246704   9.433  11.305  10.154
81603SOL     OW46705  12.184   8.881   3.860
81603SOL    HW146706  12.164   8.961   3.909
81603SOL    HW246707  12.270   8.855   3.892
81604SOL     OW46708   2.604   2.560  12.958
81604SOL    HW146709   2.638   2.646  12.983
81604SOL    HW246710   2.518   2.578  12.920
81605SOL     OW46711   0.662  10.545   9.334
81605SOL    HW146712   0.647  10.476   9.398
81605SOL    HW246713   0.751  10.529   9.302
81606SOL     OW46714   8.930   9.424  13.369
81606SOL    HW146715   8.869   9.353  13.348
81606SOL    HW246716   8.921   9.485  13.296
81607SOL     OW46717   2.687   2.314   0.263
81607SOL    HW146718   2.600   2.350   0.279
81607SOL    HW246719   2.714   2.352   0.179
81608SOL     OW46720   4.428   7.052  14.767
81608SOL    HW146721   4.485   7.129  14.770
81608SOL    HW246722   4.485   6.982  14.737
81609SOL     OW46723   9.745  14.420   9.197
81609SOL    HW146724   9.684  14.477   9.243
81609SOL    HW246725   9.754  14.343   9.253
81610SOL     OW46726  14.453  12.186   6.041
81610SOL    HW146727  14.420  12.231   5.964
81610SOL    HW246728  14.520  12.245   6.076
81611SOL     OW46729   3.761   2.936   0.835
81611SOL    HW146730   3.796   2.979   0.913
81611SOL    HW246731   3.781   2.997   0.763
81612SOL     OW46732  13.236   0.987   8.523
81612SOL    HW146733  13.255   1.081   8.511
81612SOL    HW246734  13.190   0.962   8.443
81613SOL     OW46735  10.605  12.268   2.579
81613SOL    HW146736  10.538  12.312   2.632
81613SOL    HW246737  10.685  12.319   2.596
81614SOL     OW46738   6.813  14.751  14.525
81614SOL    HW146739   6.756  14.803  14.469
81614SOL    HW246740   6.850  14.814  14.586
81615SOL     OW46741  12.810   3.833  10.604
81615SOL    HW146742  12.789   3.927  10.597
81615SOL    HW246743  12.899   3.831  10.640
81616SOL     OW46744   1.700   4.992   1.581
81616SOL    HW146745   1.728   5.067   1.634
81616SOL    HW246746   1.781   4.945   1.562
81617SOL     OW46747  13.825  10.716   0.266
81617SOL    HW146748  13.895  10.666   0.307
81617SOL    HW246749  13.863  10.803   0.251
81618SOL     OW46750   7.263   5.742   4.812
81618SOL    HW146751   7.184   5.755   4.760
81618SOL    HW246752   7.253   5.802   4.886
81619SOL     OW46753   9.907   5.870   9.015
81619SOL    HW146754   9.919   5.830   9.101
81619SOL    HW246755   9.960   5.816   8.956
81620SOL     OW46756  13.673   5.568  13.551
81620SOL    HW146757  13.644   5.644  13.499
81620SOL    HW246758  13.705   5.506  13.486
81621SOL     OW46759  13.215  12.972   9.324
81621SOL    HW146760  13.158  13.042   9.355
81621SOL    HW246761  13.252  12.934   9.404
81622SOL     OW46762  14.064  10.043   4.967
81622SOL    HW146763  14.029   9.992   4.894
81622SOL    HW246764  14.085   9.978   5.034
81623SOL     OW46765  12.505   6.143  10.504
81623SOL    HW146766  12.573   6.200  10.538
81623SOL    HW246767  12.484   6.178  10.417
81624SOL     OW46768   1.091   1.654   1.198
81624SOL    HW146769   1.080   1.563   1.225
81624SOL    HW246770   1.119   1.700   1.277
81625SOL     OW46771   7.582  14.209   1.909
81625SOL    HW146772   7.551  14.199   1.999
81625SOL    HW246773   7.638  14.132   1.895
81626SOL     OW46774   1.550   9.550  10.594
81626SOL    HW146775   1.635   9.590  10.613
81626SOL    HW246776   1.501   9.560  10.676
81627SOL     OW46777   1.682   3.464   2.946
81627SOL    HW146778   1.717   3.426   2.866
81627SOL    HW246779   1.754   3.516   2.981
81628SOL     OW46780   4.906   8.827  11.929
81628SOL    HW146781   4.988   8.824  11.880
81628SOL    HW246782   4.843   8.864  11.869
81629SOL     OW46783   2.359   9.115   7.446
81629SOL    HW146784   2.342   9.173   7.520
81629SOL    HW246785   2.372   9.173   7.371
81630SOL     OW46786  14.116  11.616  14.077
81630SOL    HW146787  14.056  11.544  14.061
81630SOL    HW246788  14.203  11.574  14.082
81631SOL     OW46789  11.118   1.630   0.251
81631SOL    HW146790  11.193   1.579   0.220
81631SOL    HW246791  11.156   1.713   0.279
81632SOL     OW46792  11.367   8.137   3.788
81632SOL    HW146793  11.282   8.146   3.744
81632SOL    HW246794  11.361   8.054   3.834
81633SOL     OW46795   3.653   5.842  11.247
81633SOL    HW146796   3.567   5.858  11.286
81633SOL    HW246797   3.646   5.755  11.208
81634SOL     OW46798   8.537   1.780   5.400
81634SOL    HW146799   8.501   1.825   5.323
81634SOL    HW246800   8.486   1.814   5.473
81635SOL     OW46801   5.673  13.580   7.418
81635SOL    HW146802   5.719  13.553   7.498
81635SOL    HW246803   5.581  13.558   7.435
81636SOL     OW46804   6.982   8.148  13.473
81636SOL    HW146805   6.978   8.055  13.498
81636SOL    HW246806   6.891   8.178  13.481
81637SOL     OW46807   7.836   8.546   3.506
81637SOL    HW146808   7.913   8.520   3.556
81637SOL    HW246809   7.776   8.582   3.571
81638SOL     OW46810   0.244  11.895   4.132
81638SOL    HW146811   0.289  11.816   4.162
81638SOL    HW246812   0.274  11.964   4.191
81639SOL     OW46813  10.294  10.133   0.818
81639SOL    HW146814  10.288  10.229   0.818
81639SOL    HW246815  10.371  10.114   0.872
81640SOL     OW46816   5.125   8.135   5.482
81640SOL    HW146817   5.206   8.089   5.458
81640SOL    HW246818   5.136   8.156   5.575
81641SOL     OW46819   3.066   0.395  12.620
81641SOL    HW146820   3.088   0.484  12.595
81641SOL    HW246821   3.149   0.355  12.644
81642SOL     OW46822  11.471  12.721   5.432
81642SOL    HW146823  11.443  12.693   5.519
81642SOL    HW246824  11.423  12.663   5.372
81643SOL     OW46825   0.587   7.710   2.009
81643SOL    HW146826   0.561   7.785   1.956
81643SOL    HW246827   0.507   7.659   2.019
81644SOL     OW46828   9.067  12.462   5.309
81644SOL    HW146829   9.125  12.524   5.353
81644SOL    HW246830   9.100  12.376   5.335
81645SOL     OW46831   7.177   7.300   8.769
81645SOL    HW146832   7.151   7.279   8.859
81645SOL    HW246833   7.139   7.230   8.716
81646SOL     OW46834   1.589   3.547   9.779
81646SOL    HW146835   1.572   3.601   9.701
81646SOL    HW246836   1.509   3.553   9.830
81647SOL     OW46837   3.485   5.448   5.324
81647SOL    HW146838   3.578   5.470   5.319
81647SOL    HW246839   3.446   5.522   5.371
81648SOL     OW46840   1.539  10.505   7.267
81648SOL    HW146841   1.475  10.527   7.199
81648SOL    HW246842   1.494  10.443   7.324
81649SOL     OW46843  12.392  13.650  12.400
81649SOL    HW146844  12.453  13.723  12.394
81649SOL    HW246845  12.319  13.674  12.343
81650SOL     OW46846   9.118  14.543  12.506
81650SOL    HW146847   9.154  14.463  12.544
81650SOL    HW246848   9.027  14.545  12.537
81651SOL     OW46849   6.984   0.265  10.582
81651SOL    HW146850   7.040   0.245  10.657
81651SOL    HW246851   7.035   0.326  10.529
81652SOL     OW46852   8.398   9.215   0.771
81652SOL    HW146853   8.364   9.126   0.773
81652SOL    HW246854   8.491   9.205   0.751
81653SOL     OW46855  10.923   3.719   4.689
81653SOL    HW146856  11.012   3.703   4.659
81653SOL    HW246857  10.872   3.725   4.608
81654SOL     OW46858  11.880   2.193   2.201
81654SOL    HW146859  11.964   2.239   2.206
81654SOL    HW246860  11.901   2.102   2.220
81655SOL     OW46861  13.057   1.545   9.973
81655SOL    HW146862  13.016   1.533   9.887
81655SOL    HW246863  13.112   1.622   9.962
81656SOL     OW46864   4.763  11.667   1.992
81656SOL    HW146865   4.803  11.747   2.024
81656SOL    HW246866   4.774  11.604   2.064
81657SOL     OW46867   4.102  11.206   5.508
81657SOL    HW146868   4.176  11.146   5.515
81657SOL    HW246869   4.070  11.215   5.598
81658SOL     OW46870   4.235   2.394   1.294
81658SOL    HW146871   4.147   2.361   1.313
81658SOL    HW246872   4.234   2.485   1.326
81659SOL     OW46873   0.990   2.996   8.198
81659SOL    HW146874   0.976   3.081   8.156
81659SOL    HW246875   0.919   2.990   8.262
81660SOL     OW46876  14.804   2.501   3.351
81660SOL    HW146877  14.780   2.525   3.440
81660SOL    HW246878   0.027   2.524   3.344
81661SOL     OW46879   7.078   1.728  13.435
81661SOL    HW146880   7.154   1.786  13.425
81661SOL    HW246881   7.097   1.677  13.514
81662SOL     OW46882   8.334  13.832   9.330
81662SOL    HW146883   8.425  13.805   9.321
81662SOL    HW246884   8.330  13.919   9.290
81663SOL     OW46885   6.751  13.575   8.997
81663SOL    HW146886   6.764  13.650   8.939
81663SOL    HW246887   6.660  13.549   8.981
81664SOL     OW46888   1.661  14.679   2.680
81664SOL    HW146889   1.690  14.705   2.768
81664SOL    HW246890   1.584  14.734   2.664
81665SOL     OW46891  11.279   2.854   4.197
81665SOL    HW146892  11.293   2.782   4.136
81665SOL    HW246893  11.284   2.813   4.284
81666SOL     OW46894   7.947   5.316  11.670
81666SOL    HW146895   7.967   5.260  11.745
81666SOL    HW246896   7.911   5.257  11.604
81667SOL     OW46897  13.178   6.617  11.649
81667SOL    HW146898  13.227   6.605  11.567
81667SOL    HW246899  13.237   6.584  11.717
81668SOL     OW46900   2.470  13.264   7.403
81668SOL    HW146901   2.409  13.248   7.331
81668SOL    HW246902   2.425  13.227   7.480
81669SOL     OW46903  13.274  13.855   8.728
81669SOL    HW146904  13.349  13.885   8.676
81669SOL    HW246905  13.263  13.763   8.704
81670SOL     OW46906   3.411   7.556   1.609
81670SOL    HW146907   3.418   7.463   1.632
81670SOL    HW246908   3.400   7.557   1.514
81671SOL     OW46909  14.601   4.077   2.705
81671SOL    HW146910  14.637   4.111   2.623
81671SOL    HW246911  14.515   4.119   2.712
81672SOL     OW46912   6.703   4.806   8.323
81672SOL    HW146913   6.738   4.728   8.366
81672SOL    HW246914   6.616   4.818   8.362
81673SOL     OW46915  10.088   6.554  12.386
81673SOL    HW146916  10.132   6.477  12.350
81673SOL    HW246917  10.028   6.581  12.316
81674SOL     OW46918   7.138  12.585   1.693
81674SOL    HW146919   7.161  12.528   1.620
81674SOL    HW246920   7.147  12.674   1.658
81675SOL     OW46921   1.608   5.110   8.331
81675SOL    HW146922   1.542   5.114   8.262
81675SOL    HW246923   1.691   5.110   8.284
81676SOL     OW46924   2.232   1.749  11.084
81676SOL    HW146925   2.181   1.807  11.028
81676SOL    HW246926   2.167   1.694  11.126
81677SOL     OW46927   0.670   0.325  12.660
81677SOL    HW146928   0.647   0.391  12.726
81677SOL    HW246929   0.607   0.255  12.674
81678SOL     OW46930   1.759   4.627  12.134
81678SOL    HW146931   1.810   4.633  12.053
81678SOL    HW246932   1.751   4.533  12.151
81679SOL     OW46933  10.175  12.954   2.808
81679SOL    HW146934  10.134  12.956   2.894
81679SOL    HW246935  10.221  12.871   2.804
81680SOL     OW46936  13.394   0.430   5.290
81680SOL    HW146937  13.470   0.398   5.242
81680SOL    HW246938  13.370   0.357   5.348
81681SOL     OW46939  12.156  14.321   5.102
81681SOL    HW146940  12.206  14.283   5.030
81681SOL    HW246941  12.082  14.262   5.114
81682SOL     OW46942   2.666   6.904  12.649
81682SOL    HW146943   2.678   6.985  12.599
81682SOL    HW246944   2.581   6.915  12.692
81683SOL     OW46945   2.366   0.590   8.710
81683SOL    HW146946   2.461   0.597   8.716
81683SOL    HW246947   2.333   0.641   8.784
81684SOL     OW46948   3.036   9.840   4.832
81684SOL    HW146949   2.967   9.774   4.819
81684SOL    HW246950   3.027   9.898   4.756
81685SOL     OW46951   9.567  11.518   2.821
81685SOL    HW146952   9.596  11.486   2.907
81685SOL    HW246953   9.645  11.559   2.784
81686SOL     OW46954   2.598   1.501   6.420
81686SOL    HW146955   2.644   1.450   6.353
81686SOL    HW246956   2.667   1.528   6.481
81687SOL     OW46957   8.309   2.077  10.195
81687SOL    HW146958   8.327   2.073  10.289
81687SOL    HW246959   8.386   2.120  10.157
81688SOL     OW46960  10.471  13.364   3.155
81688SOL    HW146961  10.388  13.331   3.189
81688SOL    HW246962  10.475  13.454   3.186
81689SOL     OW46963  10.355   2.312  10.967
81689SOL    HW146964  10.403   2.380  10.919
81689SOL    HW246965  10.308   2.359  11.035
81690SOL     OW46966   3.062   0.713   1.174
81690SOL    HW146967   3.068   0.747   1.085
81690SOL    HW246968   3.151   0.713   1.207
81691SOL     OW46969   9.093   7.012  10.531
81691SOL    HW146970   9.125   7.076  10.467
81691SOL    HW246971   9.131   6.929  10.504
81692SOL     OW46972   8.710   3.172   3.570
81692SOL    HW146973   8.780   3.192   3.507
81692SOL    HW246974   8.629   3.189   3.523
81693SOL     OW46975  10.666  11.149   8.577
81693SOL    HW146976  10.724  11.073   8.571
81693SOL    HW246977  10.580  11.112   8.594
81694SOL     OW46978   7.763  10.173  13.287
81694SOL    HW146979   7.782  10.088  13.326
81694SOL    HW246980   7.839  10.228  13.309
81695SOL     OW46981  10.812   4.773   2.404
81695SOL    HW146982  10.720   4.778   2.430
81695SOL    HW246983  10.828   4.854   2.356
81696SOL     OW46984   3.463   3.275   1.613
81696SOL    HW146985   3.460   3.315   1.700
81696SOL    HW246986   3.427   3.187   1.626
81697SOL     OW46987  10.641  10.348   2.887
81697SOL    HW146988  10.665  10.422   2.832
81697SOL    HW246989  10.577  10.383   2.949
81698SOL     OW46990   5.575  13.880   6.814
81698SOL    HW146991   5.556  13.962   6.767
81698SOL    HW246992   5.536  13.812   6.759
81699SOL     OW46993  13.001   8.788   8.483
81699SOL    HW146994  13.035   8.870   8.446
81699SOL    HW246995  12.935   8.815   8.547
81700SOL     OW46996   9.015   2.461   5.227
81700SOL    HW146997   9.002   2.551   5.197
81700SOL    HW246998   8.931   2.418   5.210
81701SOL     OW46999  13.090   5.282  14.031
81701SOL    HW147000  13.158   5.239  13.980
81701SOL    HW247001  13.015   5.223  14.025
81702SOL     OW47002  10.013   2.270   8.756
81702SOL    HW147003   9.956   2.304   8.687
81702SOL    HW247004  10.085   2.332   8.761
81703SOL     OW47005   4.797   2.056   5.166
81703SOL    HW147006   4.749   2.139   5.173
81703SOL    HW247007   4.746   2.004   5.105
81704SOL     OW47008   3.368   3.733   2.584
81704SOL    HW147009   3.346   3.815   2.539
81704SOL    HW247010   3.388   3.761   2.674
81705SOL     OW47011   3.560  12.544   9.629
81705SOL    HW147012   3.635  12.510   9.581
81705SOL    HW247013   3.503  12.469   9.641
81706SOL     OW47014  13.467  13.972   0.376
81706SOL    HW147015  13.522  13.989   0.300
81706SOL    HW247016  13.377  13.980   0.344
81707SOL     OW47017  13.976   4.993   6.030
81707SOL    HW147018  13.964   4.931   5.958
81707SOL    HW247019  13.983   4.938   6.108
81708SOL     OW47020  10.257   9.579   1.819
81708SOL    HW147021  10.282   9.529   1.740
81708SOL    HW247022  10.338   9.620   1.848
81709SOL     OW47023  13.949  12.188   5.356
81709SOL    HW147024  13.898  12.132   5.415
81709SOL    HW247025  13.977  12.129   5.286
81710SOL     OW47026   7.660   6.481   4.600
81710SOL    HW147027   7.715   6.547   4.642
81710SOL    HW247028   7.585   6.472   4.657
81711SOL     OW47029  12.070  14.441  12.056
81711SOL    HW147030  12.110  14.367  12.010
81711SOL    HW247031  12.139  14.473  12.114
81712SOL     OW47032  13.865  12.617  11.799
81712SOL    HW147033  13.803  12.659  11.739
81712SOL    HW247034  13.935  12.681  11.810
81713SOL     OW47035  14.519  10.762  13.127
81713SOL    HW147036  14.509  10.839  13.070
81713SOL    HW247037  14.435  10.753  13.171
81714SOL     OW47038  14.215   5.527   6.952
81714SOL    HW147039  14.194   5.507   6.861
81714SOL    HW247040  14.287   5.468   6.974
81715SOL     OW47041  13.949   9.608   3.633
81715SOL    HW147042  14.016   9.635   3.570
81715SOL    HW247043  13.867   9.640   3.596
81716SOL     OW47044   5.192  11.634  13.917
81716SOL    HW147045   5.129  11.595  13.977
81716SOL    HW247046   5.278  11.609  13.952
81717SOL     OW47047   9.221  10.162   5.925
81717SOL    HW147048   9.200  10.254   5.939
81717SOL    HW247049   9.141  10.124   5.891
81718SOL     OW47050  13.703   7.767   0.324
81718SOL    HW147051  13.798   7.762   0.313
81718SOL    HW247052  13.673   7.821   0.252
81719SOL     OW47053   7.378   5.473   4.849
81719SOL    HW147054   7.333   5.556   4.833
81719SOL    HW247055   7.447   5.494   4.911
81720SOL     OW47056   6.963   2.137  10.085
81720SOL    HW147057   6.986   2.187  10.007
81720SOL    HW247058   6.999   2.049  10.068
81721SOL     OW47059   6.152   1.849  13.917
81721SOL    HW147060   6.161   1.757  13.890
81721SOL    HW247061   6.119   1.844  14.007
81722SOL     OW47062   8.276   8.177   6.422
81722SOL    HW147063   8.290   8.271   6.416
81722SOL    HW247064   8.240   8.153   6.336
81723SOL     OW47065  10.487  14.401   1.435
81723SOL    HW147066  10.515  14.323   1.483
81723SOL    HW247067  10.565  14.432   1.390
81724SOL     OW47068   4.543   3.378   7.243
81724SOL    HW147069   4.486   3.402   7.316
81724SOL    HW247070   4.491   3.316   7.191
81725SOL     OW47071   1.446   8.436   0.790
81725SOL    HW147072   1.457   8.416   0.883
81725SOL    HW247073   1.351   8.446   0.779
81726SOL     OW47074  11.304   1.768   2.899
81726SOL    HW147075  11.372   1.701   2.891
81726SOL    HW247076  11.263   1.771   2.813
81727SOL     OW47077   2.723   3.091   4.479
81727SOL    HW147078   2.657   3.070   4.413
81727SOL    HW247079   2.795   3.130   4.429
81728SOL     OW47080   7.895   0.016  11.386
81728SOL    HW147081   7.978  14.840  11.371
81728SOL    HW247082   7.843  14.866  11.308
81729SOL     OW47083  12.727  10.444   1.734
81729SOL    HW147084  12.793  10.407   1.676
81729SOL    HW247085  12.768  10.522   1.771
81730SOL     OW47086  11.168   1.142   3.079
81730SOL    HW147087  11.211   1.152   2.994
81730SOL    HW247088  11.179   1.228   3.121
81731SOL     OW47089   8.446  10.618   8.208
81731SOL    HW147090   8.483  10.696   8.166
81731SOL    HW247091   8.367  10.599   8.158
81732SOL     OW47092   7.851   5.070   9.207
81732SOL    HW147093   7.837   5.158   9.172
81732SOL    HW247094   7.763   5.033   9.213
81733SOL     OW47095  13.859  14.840   4.816
81733SOL    HW147096  13.828  14.752   4.792
81733SOL    HW247097  13.954  14.829   4.827
81734SOL     OW47098  13.335  14.522   4.432
81734SOL    HW147099  13.392  14.534   4.507
81734SOL    HW247100  13.251  14.494   4.470
81735SOL     OW47101   2.004   1.800  13.234
81735SOL    HW147102   1.923   1.763  13.270
81735SOL    HW247103   2.074   1.747  13.271
81736SOL     OW47104  13.233  12.067  11.224
81736SOL    HW147105  13.145  12.104  11.237
81736SOL    HW247106  13.218  11.978  11.192
81737SOL     OW47107   5.414   9.257   1.788
81737SOL    HW147108   5.427   9.337   1.840
81737SOL    HW247109   5.328   9.225   1.814
81738SOL     OW47110   8.275   7.264   4.787
81738SOL    HW147111   8.342   7.316   4.742
81738SOL    HW247112   8.324   7.194   4.831
81739SOL     OW47113   2.167  12.678   7.778
81739SOL    HW147114   2.081  12.716   7.796
81739SOL    HW247115   2.211  12.675   7.863
81740SOL     OW47116   9.535   6.393   2.822
81740SOL    HW147117   9.611   6.397   2.880
81740SOL    HW247118   9.522   6.483   2.792
81741SOL     OW47119   2.558   6.084   6.305
81741SOL    HW147120   2.535   6.118   6.391
81741SOL    HW247121   2.644   6.043   6.317
81742SOL     OW47122   7.713  10.412   2.313
81742SOL    HW147123   7.674  10.378   2.394
81742SOL    HW247124   7.709  10.507   2.324
81743SOL     OW47125   5.432   5.224   7.604
81743SOL    HW147126   5.494   5.237   7.676
81743SOL    HW247127   5.438   5.131   7.584
81744SOL     OW47128   0.238   9.717  12.747
81744SOL    HW147129   0.266   9.775  12.818
81744SOL    HW247130   0.178   9.655  12.788
81745SOL     OW47131   3.462   8.035  10.257
81745SOL    HW147132   3.383   8.018  10.308
81745SOL    HW247133   3.531   8.042  10.322
81746SOL     OW47134  12.869   2.101   2.704
81746SOL    HW147135  12.788   2.059   2.734
81746SOL    HW247136  12.938   2.057   2.753
81747SOL     OW47137  14.147   3.788   7.557
81747SOL    HW147138  14.104   3.794   7.641
81747SOL    HW247139  14.217   3.853   7.560
81748SOL     OW47140   1.949   4.698   4.862
81748SOL    HW147141   1.871   4.724   4.912
81748SOL    HW247142   1.928   4.610   4.831
81749SOL     OW47143  11.051  10.307   2.143
81749SOL    HW147144  11.044  10.313   2.048
81749SOL    HW247145  11.052  10.398   2.173
81750SOL     OW47146   1.974  14.378   6.680
81750SOL    HW147147   1.963  14.291   6.641
81750SOL    HW247148   1.999  14.434   6.607
81751SOL     OW47149  11.588  13.420   2.252
81751SOL    HW147150  11.542  13.502   2.269
81751SOL    HW247151  11.564  13.363   2.325
81752SOL     OW47152   9.251   6.233   8.835
81752SOL    HW147153   9.255   6.261   8.744
81752SOL    HW247154   9.163   6.199   8.846
81753SOL     OW47155  11.557  12.769  11.030
81753SOL    HW147156  11.490  12.837  11.043
81753SOL    HW247157  11.526  12.719  10.954
81754SOL     OW47158  11.163  10.077   0.801
81754SOL    HW147159  11.180  10.143   0.869
81754SOL    HW247160  11.083  10.033   0.829
81755SOL     OW47161  13.214  11.227  10.577
81755SOL    HW147162  13.294  11.277  10.592
81755SOL    HW247163  13.218  11.200  10.485
81756SOL     OW47164   9.039  13.446   3.296
81756SOL    HW147165   9.100  13.422   3.366
81756SOL    HW247166   8.997  13.527   3.328
81757SOL     OW47167   8.870   2.859  11.768
81757SOL    HW147168   8.821   2.786  11.803
81757SOL    HW247169   8.856   2.855  11.673
81758SOL     OW47170   3.227  13.542  12.870
81758SOL    HW147171   3.148  13.587  12.840
81758SOL    HW247172   3.241  13.573  12.959
81759SOL     OW47173  14.869  11.731  10.439
81759SOL    HW147174  14.805  11.747  10.509
81759SOL    HW247175   0.025  11.640  10.451
81760SOL     OW47176  12.879   8.564  12.436
81760SOL    HW147177  12.971   8.589  12.440
81760SOL    HW247178  12.834   8.640  12.401
81761SOL     OW47179  11.426   5.980   6.819
81761SOL    HW147180  11.408   5.973   6.725
81761SOL    HW247181  11.347   6.019   6.855
81762SOL     OW47182   3.575   6.029  12.397
81762SOL    HW147183   3.643   6.038  12.331
81762SOL    HW247184   3.585   5.939  12.430
81763SOL     OW47185   4.493   2.202   7.115
81763SOL    HW147186   4.575   2.153   7.123
81763SOL    HW247187   4.510   2.268   7.048
81764SOL     OW47188  12.873   8.441  11.996
81764SOL    HW147189  12.944   8.497  12.029
81764SOL    HW247190  12.851   8.479  11.911
81765SOL     OW47191  11.776   9.360  13.951
81765SOL    HW147192  11.737   9.287  13.999
81765SOL    HW247193  11.702   9.418  13.932
81766SOL     OW47194  13.069  10.528   8.306
81766SOL    HW147195  13.083  10.493   8.218
81766SOL    HW247196  13.081  10.623   8.296
81767SOL     OW47197   3.453  12.672   6.809
81767SOL    HW147198   3.489  12.680   6.897
81767SOL    HW247199   3.359  12.687   6.820
81768SOL     OW47200  10.040  12.089  14.551
81768SOL    HW147201   9.980  12.145  14.601
81768SOL    HW247202   9.995  12.004  14.547
81769SOL     OW47203   1.069   8.448  10.872
81769SOL    HW147204   1.106   8.513  10.813
81769SOL    HW247205   1.130   8.444  10.946
81770SOL     OW47206  14.051  12.337   0.226
81770SOL    HW147207  13.970  12.370   0.185
81770SOL    HW247208  14.036  12.348   0.320
81771SOL     OW47209   3.896   5.601  14.806
81771SOL    HW147210   3.891   5.508  14.828
81771SOL    HW247211   3.855   5.646   0.011
81772SOL     OW47212  12.426   2.742   9.703
81772SOL    HW147213  12.501   2.685   9.684
81772SOL    HW247214  12.350   2.692   9.673
81773SOL     OW47215   0.842  12.480   7.117
81773SOL    HW147216   0.895  12.540   7.172
81773SOL    HW247217   0.905  12.416   7.086
81774SOL     OW47218   5.597   7.625   7.451
81774SOL    HW147219   5.604   7.614   7.546
81774SOL    HW247220   5.606   7.719   7.437
81775SOL     OW47221  11.309   7.570  10.381
81775SOL    HW147222  11.273   7.658  10.388
81775SOL    HW247223  11.268   7.533  10.303
81776SOL     OW47224  11.921   2.889   6.159
81776SOL    HW147225  11.858   2.954   6.127
81776SOL    HW247226  11.950   2.843   6.080
81777SOL     OW47227  13.686   4.453  13.553
81777SOL    HW147228  13.750   4.387  13.526
81777SOL    HW247229  13.611   4.439  13.496
81778SOL     OW47230  12.802  11.651   9.406
81778SOL    HW147231  12.733  11.664   9.341
81778SOL    HW247232  12.761  11.672   9.490
81779SOL     OW47233   9.473   5.409   3.550
81779SOL    HW147234   9.522   5.477   3.505
81779SOL    HW247235   9.539   5.362   3.601
81780SOL     OW47236   1.193   7.151  14.168
81780SOL    HW147237   1.159   7.066  14.140
81780SOL    HW247238   1.141   7.215  14.120
81781SOL     OW47239   1.117   6.273   2.499
81781SOL    HW147240   1.102   6.182   2.525
81781SOL    HW247241   1.079   6.281   2.412
81782SOL     OW47242  12.740   9.738   4.328
81782SOL    HW147243  12.813   9.751   4.267
81782SOL    HW247244  12.776   9.683   4.398
81783SOL     OW47245  14.586  12.173   7.284
81783SOL    HW147246  14.636  12.123   7.220
81783SOL    HW247247  14.576  12.260   7.244
81784SOL     OW47248   3.449  11.754   8.635
81784SOL    HW147249   3.541  11.737   8.654
81784SOL    HW247250   3.404  11.674   8.660
81785SOL     OW47251   8.181   5.850   2.280
81785SOL    HW147252   8.093   5.832   2.245
81785SOL    HW247253   8.170   5.840   2.375
81786SOL     OW47254   6.054   6.349   0.781
81786SOL    HW147255   6.085   6.299   0.705
81786SOL    HW247256   6.001   6.287   0.831
81787SOL     OW47257   9.255   6.628  14.036
81787SOL    HW147258   9.302   6.699  13.994
81787SOL    HW247259   9.198   6.671  14.100
81788SOL     OW47260  13.981  13.027   8.848
81788SOL    HW147261  13.997  13.089   8.919
81788SOL    HW247262  13.944  12.951   8.891
81789SOL     OW47263   5.437   5.494   0.323
81789SOL    HW147264   5.392   5.564   0.276
81789SOL    HW247265   5.530   5.517   0.318
81790SOL     OW47266   7.643  14.090   5.501
81790SOL    HW147267   7.648  14.028   5.428
81790SOL    HW247268   7.627  14.175   5.460
81791SOL     OW47269  13.902   1.306   5.941
81791SOL    HW147270  13.883   1.374   5.877
81791SOL    HW247271  13.819   1.260   5.952
81792SOL     OW47272   5.344  13.602  12.320
81792SOL    HW147273   5.288  13.632  12.392
81792SOL    HW247274   5.305  13.641  12.242
81793SOL     OW47275   7.656  12.715   5.935
81793SOL    HW147276   7.688  12.762   5.858
81793SOL    HW247277   7.705  12.632   5.934
81794SOL     OW47278  10.322  10.199   9.665
81794SOL    HW147279  10.293  10.249   9.589
81794SOL    HW247280  10.242  10.158   9.699
81795SOL     OW47281   0.021   5.192  10.690
81795SOL    HW147282  14.805   5.202  10.730
81795SOL    HW247283   0.080   5.243  10.745
81796SOL     OW47284  12.768   6.122  10.147
81796SOL    HW147285  12.836   6.118  10.081
81796SOL    HW247286  12.686   6.127  10.098
81797SOL     OW47287  10.205  14.790   1.786
81797SOL    HW147288  10.280  14.809   1.730
81797SOL    HW247289  10.216  14.699   1.812
81798SOL     OW47290  10.514   8.198   3.084
81798SOL    HW147291  10.529   8.293   3.091
81798SOL    HW247292  10.564   8.160   3.156
81799SOL     OW47293  10.489  14.447  10.819
81799SOL    HW147294  10.470  14.512  10.887
81799SOL    HW247295  10.478  14.363  10.863
81800SOL     OW47296  13.959  12.323  10.186
81800SOL    HW147297  13.952  12.401  10.241
81800SOL    HW247298  13.993  12.355  10.103
81801SOL     OW47299   1.106   7.378  12.550
81801SOL    HW147300   1.079   7.468  12.571
81801SOL    HW247301   1.192   7.369  12.589
81802SOL     OW47302  13.235   2.496   1.961
81802SOL    HW147303  13.262   2.588   1.960
81802SOL    HW247304  13.314   2.447   1.984
81803SOL     OW47305   8.975   6.375   4.658
81803SOL    HW147306   9.010   6.464   4.657
81803SOL    HW247307   8.943   6.361   4.568
81804SOL     OW47308   9.635   3.083   3.094
81804SOL    HW147309   9.624   3.023   3.168
81804SOL    HW247310   9.578   3.047   3.025
81805SOL     OW47311   8.506   0.198   6.478
81805SOL    HW147312   8.577   0.249   6.441
81805SOL    HW247313   8.548   0.123   6.520
81806SOL     OW47314   1.449  12.230   9.357
81806SOL    HW147315   1.422  12.322   9.358
81806SOL    HW247316   1.381  12.185   9.306
81807SOL     OW47317  12.554   9.552   0.405
81807SOL    HW147318  12.541   9.529   0.313
81807SOL    HW247319  12.466   9.566   0.440
81808SOL     OW47320   2.348  13.404  14.059
81808SOL    HW147321   2.316  13.472  14.118
81808SOL    HW247322   2.285  13.332  14.070
81809SOL     OW47323   0.169   9.162   5.748
81809SOL    HW147324   0.141   9.232   5.690
81809SOL    HW247325   0.100   9.096   5.741
81810SOL     OW47326   6.846  13.314   3.058
81810SOL    HW147327   6.809  13.256   2.992
81810SOL    HW247328   6.906  13.370   3.009
81811SOL     OW47329   5.766   0.592  14.038
81811SOL    HW147330   5.721   0.625  14.116
81811SOL    HW247331   5.786   0.501  14.058
81812SOL     OW47332   5.224  11.530   1.270
81812SOL    HW147333   5.313  11.536   1.304
81812SOL    HW247334   5.230  11.560   1.179
81813SOL     OW47335   0.076   0.121   2.565
81813SOL    HW147336   0.018   0.111   2.641
81813SOL    HW247337   0.063   0.040   2.515
81814SOL     OW47338   1.876   6.805  11.839
81814SOL    HW147339   1.836   6.728  11.881
81814SOL    HW247340   1.822   6.820  11.761
81815SOL     OW47341  12.934   7.306  11.195
81815SOL    HW147342  12.971   7.394  11.185
81815SOL    HW247343  12.973   7.273  11.276
81816SOL     OW47344  10.599   4.139   3.253
81816SOL    HW147345  10.505   4.140   3.236
81816SOL    HW247346  10.624   4.232   3.257
81817SOL     OW47347   7.960   9.313  14.430
81817SOL    HW147348   7.971   9.351  14.343
81817SOL    HW247349   7.873   9.274  14.429
81818SOL     OW47350   1.010  11.202   5.516
81818SOL    HW147351   0.995  11.241   5.429
81818SOL    HW247352   1.047  11.116   5.498
81819SOL     OW47353  11.547   9.305   6.975
81819SOL    HW147354  11.558   9.400   6.976
81819SOL    HW247355  11.629   9.270   7.009
81820SOL     OW47356   1.813  13.900   1.789
81820SOL    HW147357   1.887  13.852   1.824
81820SOL    HW247358   1.804  13.869   1.699
81821SOL     OW47359   7.305   7.179   8.139
81821SOL    HW147360   7.331   7.099   8.183
81821SOL    HW247361   7.338   7.249   8.195
81822SOL     OW47362   6.260  10.755  12.607
81822SOL    HW147363   6.195  10.806  12.655
81822SOL    HW247364   6.344  10.789  12.638
81823SOL     OW47365   4.131   8.983  11.658
81823SOL    HW147366   4.061   9.044  11.681
81823SOL    HW247367   4.090   8.922  11.598
81824SOL     OW47368   1.619   5.353   0.278
81824SOL    HW147369   1.665   5.302   0.212
81824SOL    HW247370   1.648   5.317   0.362
81825SOL     OW47371  14.205  13.831   8.265
81825SOL    HW147372  14.251  13.767   8.318
81825SOL    HW247373  14.222  13.805   8.175
81826SOL     OW47374  13.897   6.456   7.415
81826SOL    HW147375  13.821   6.500   7.376
81826SOL    HW247376  13.939   6.524   7.469
81827SOL     OW47377  10.190   9.869   0.399
81827SOL    HW147378  10.211   9.942   0.341
81827SOL    HW247379  10.151   9.911   0.476
81828SOL     OW47380   8.867   6.600   0.033
81828SOL    HW147381   8.860   6.667   0.101
81828SOL    HW247382   8.793   6.616  14.844
81829SOL     OW47383  13.979   2.708  13.175
81829SOL    HW147384  13.892   2.744  13.192
81829SOL    HW247385  13.999   2.735  13.086
81830SOL     OW47386   8.566   7.040  10.494
81830SOL    HW147387   8.544   6.947  10.498
81830SOL    HW247388   8.662   7.041  10.495
81831SOL     OW47389   9.998   4.199  10.136
81831SOL    HW147390  10.041   4.137  10.196
81831SOL    HW247391  10.035   4.178  10.050
81832SOL     OW47392  12.229   3.866   7.333
81832SOL    HW147393  12.235   3.791   7.274
81832SOL    HW247394  12.283   3.933   7.293
81833SOL     OW47395   2.784  11.721   8.447
81833SOL    HW147396   2.773  11.811   8.416
81833SOL    HW247397   2.722  11.670   8.395
81834SOL     OW47398   1.995  11.513  14.161
81834SOL    HW147399   2.069  11.472  14.117
81834SOL    HW247400   2.013  11.500  14.254
81835SOL     OW47401  13.715  14.056  10.443
81835SOL    HW147402  13.779  14.003  10.394
81835SOL    HW247403  13.672  13.993  10.501
81836SOL     OW47404  14.255   7.622  13.106
81836SOL    HW147405  14.318   7.607  13.176
81836SOL    HW247406  14.294   7.692  13.053
81837SOL     OW47407  12.416   7.163  10.266
81837SOL    HW147408  12.326   7.196  10.269
81837SOL    HW247409  12.409   7.079  10.222
81838SOL     OW47410  14.192   8.355   3.144
81838SOL    HW147411  14.213   8.271   3.104
81838SOL    HW247412  14.257   8.416   3.109
81839SOL     OW47413   7.031  13.447   9.339
81839SOL    HW147414   7.123  13.473   9.341
81839SOL    HW247415   6.989  13.505   9.404
81840SOL     OW47416   7.845   5.475   3.519
81840SOL    HW147417   7.863   5.411   3.587
81840SOL    HW247418   7.762   5.447   3.481
81841SOL     OW47419   2.576  12.816   4.100
81841SOL    HW147420   2.540  12.883   4.043
81841SOL    HW247421   2.564  12.851   4.189
81842SOL     OW47422  13.918  10.337   7.998
81842SOL    HW147423  13.853  10.390   8.043
81842SOL    HW247424  13.983  10.399   7.967
81843SOL     OW47425   1.475  10.924  13.321
81843SOL    HW147426   1.415  10.865  13.278
81843SOL    HW247427   1.557  10.876  13.327
81844SOL     OW47428   9.293  10.915   3.570
81844SOL    HW147429   9.253  10.965   3.641
81844SOL    HW247430   9.220  10.895   3.511
81845SOL     OW47431   8.346  13.704  13.160
81845SOL    HW147432   8.388  13.619  13.167
81845SOL    HW247433   8.375  13.738  13.076
81846SOL     OW47434   8.528   9.339   8.033
81846SOL    HW147435   8.588   9.331   8.107
81846SOL    HW247436   8.545   9.426   7.997
81847SOL     OW47437  12.696   0.504   1.176
81847SOL    HW147438  12.720   0.495   1.084
81847SOL    HW247439  12.762   0.452   1.223
81848SOL     OW47440  11.318   0.819  10.042
81848SOL    HW147441  11.396   0.780  10.001
81848SOL    HW247442  11.304   0.767  10.121
81849SOL     OW47443  10.586  10.467   3.901
81849SOL    HW147444  10.578  10.384   3.949
81849SOL    HW247445  10.678  10.471   3.874
81850SOL     OW47446   3.373  14.579   8.746
81850SOL    HW147447   3.292  14.536   8.775
81850SOL    HW247448   3.438  14.508   8.743
81851SOL     OW47449   3.163  12.266   4.243
81851SOL    HW147450   3.138  12.339   4.300
81851SOL    HW247451   3.085  12.248   4.191
81852SOL     OW47452   3.573   2.056  11.557
81852SOL    HW147453   3.598   2.144  11.587
81852SOL    HW247454   3.654   2.019  11.523
81853SOL     OW47455   9.120  12.953   8.092
81853SOL    HW147456   9.114  12.866   8.133
81853SOL    HW247457   9.118  13.014   8.165
81854SOL     OW47458   6.449   1.843  12.405
81854SOL    HW147459   6.509   1.812  12.472
81854SOL    HW247460   6.378   1.885  12.453
81855SOL     OW47461  14.574   2.500   3.191
81855SOL    HW147462  14.658   2.494   3.237
81855SOL    HW247463  14.597   2.505   3.098
81856SOL     OW47464  10.808  13.511   6.356
81856SOL    HW147465  10.772  13.599   6.361
81856SOL    HW247466  10.839  13.492   6.445
81857SOL     OW47467   5.231   9.866  12.941
81857SOL    HW147468   5.184   9.883  12.860
81857SOL    HW247469   5.321   9.894  12.923
81858SOL     OW47470   3.639   1.526   9.119
81858SOL    HW147471   3.688   1.533   9.201
81858SOL    HW247472   3.660   1.607   9.071
81859SOL     OW47473   9.740   7.120  11.848
81859SOL    HW147474   9.651   7.143  11.822
81859SOL    HW247475   9.747   7.026  11.829
81860SOL     OW47476   9.545   6.850   5.850
81860SOL    HW147477   9.493   6.931   5.847
81860SOL    HW247478   9.617   6.866   5.789
81861SOL     OW47479   0.603  11.304   0.014
81861SOL    HW147480   0.611  11.220  14.840
81861SOL    HW247481   0.510  11.311   0.038
81862SOL     OW47482   5.703   6.244   3.939
81862SOL    HW147483   5.620   6.241   3.987
81862SOL    HW247484   5.703   6.164   3.886
81863SOL     OW47485   1.483  12.884   0.196
81863SOL    HW147486   1.410  12.870   0.135
81863SOL    HW247487   1.557  12.839   0.156
81864SOL     OW47488   8.100   6.936   7.873
81864SOL    HW147489   8.038   6.866   7.853
81864SOL    HW247490   8.057   7.015   7.842
81865SOL     OW47491   0.909   9.125  10.443
81865SOL    HW147492   0.949   9.046  10.477
81865SOL    HW247493   0.836   9.143  10.503
81866SOL     OW47494   6.179  14.144  10.408
81866SOL    HW147495   6.090  14.152  10.440
81866SOL    HW247496   6.202  14.231  10.377
81867SOL     OW47497   4.507  13.964   3.635
81867SOL    HW147498   4.442  13.896   3.614
81867SOL    HW247499   4.470  14.045   3.600
81868SOL     OW47500  12.008   8.986   8.924
81868SOL    HW147501  12.103   8.972   8.922
81868SOL    HW247502  11.971   8.899   8.910
81869SOL     OW47503   3.807   1.808   2.454
81869SOL    HW147504   3.839   1.718   2.446
81869SOL    HW247505   3.886   1.861   2.463
81870SOL     OW47506   3.923   9.061   9.013
81870SOL    HW147507   3.981   9.057   8.937
81870SOL    HW247508   3.926   8.973   9.050
81871SOL     OW47509   8.954  13.771  14.813
81871SOL    HW147510   9.026  13.724  14.856
81871SOL    HW247511   8.895  13.702  14.782
81872SOL     OW47512   9.604   2.258   7.672
81872SOL    HW147513   9.631   2.208   7.749
81872SOL    HW247514   9.681   2.256   7.615
81873SOL     OW47515  13.696  14.292   0.244
81873SOL    HW147516  13.661  14.207   0.270
81873SOL    HW247517  13.702  14.288   0.149
81874SOL     OW47518  12.727   3.941  12.235
81874SOL    HW147519  12.822   3.951  12.228
81874SOL    HW247520  12.713   3.902  12.322
81875SOL     OW47521   9.837  14.722  12.879
81875SOL    HW147522   9.866  14.813  12.880
81875SOL    HW247523   9.742  14.727  12.866
81876SOL     OW47524   1.815   3.744   5.996
81876SOL    HW147525   1.740   3.687   6.013
81876SOL    HW247526   1.815   3.806   6.070
81877SOL     OW47527   9.870   1.538   8.389
81877SOL    HW147528   9.812   1.593   8.337
81877SOL    HW247529   9.815   1.466   8.419
81878SOL     OW47530   7.121   0.854   0.142
81878SOL    HW147531   7.100   0.761   0.138
81878SOL    HW247532   7.048   0.893   0.191
81879SOL     OW47533   1.032   7.088   6.126
81879SOL    HW147534   0.955   7.116   6.078
81879SOL    HW247535   1.021   6.993   6.136
81880SOL     OW47536  12.383   4.889  12.556
81880SOL    HW147537  12.332   4.875  12.477
81880SOL    HW247538  12.354   4.975  12.588
81881SOL     OW47539   1.690   8.862   9.970
81881SOL    HW147540   1.618   8.811  10.006
81881SOL    HW247541   1.740   8.890  10.047
81882SOL     OW47542   9.928  14.373   8.197
81882SOL    HW147543  10.013  14.402   8.164
81882SOL    HW247544   9.949  14.303   8.259
81883SOL     OW47545   8.341  11.716   9.300
81883SOL    HW147546   8.418  11.726   9.356
81883SOL    HW247547   8.274  11.678   9.357
81884SOL     OW47548   8.458   6.411   2.728
81884SOL    HW147549   8.362   6.420   2.726
81884SOL    HW247550   8.474   6.331   2.778
81885SOL     OW47551   3.819  10.938   4.389
81885SOL    HW147552   3.889  10.936   4.324
81885SOL    HW247553   3.796  10.846   4.403
81886SOL     OW47554  12.122   0.833  10.343
81886SOL    HW147555  12.034   0.854  10.311
81886SOL    HW247556  12.164   0.788  10.269
81887SOL     OW47557   9.430   4.698  10.007
81887SOL    HW147558   9.420   4.695  10.102
81887SOL    HW247559   9.392   4.782   9.981
81888SOL     OW47560   8.962  11.932   5.517
81888SOL    HW147561   8.926  12.021   5.523
81888SOL    HW247562   8.927  11.886   5.593
81889SOL     OW47563   2.561   0.849   8.635
81889SOL    HW147564   2.470   0.848   8.605
81889SOL    HW247565   2.556   0.879   8.726
81890SOL     OW47566   4.741  13.482  13.224
81890SOL    HW147567   4.685  13.560  13.226
81890SOL    HW247568   4.686  13.413  13.187
81891SOL     OW47569   7.693   6.630   3.513
81891SOL    HW147570   7.702   6.589   3.427
81891SOL    HW247571   7.652   6.714   3.495
81892SOL     OW47572   3.812   2.415   7.751
81892SOL    HW147573   3.897   2.384   7.719
81892SOL    HW247574   3.752   2.397   7.678
81893SOL     OW47575   5.409   5.133  10.079
81893SOL    HW147576   5.416   5.228  10.070
81893SOL    HW247577   5.322   5.119  10.118
81894SOL     OW47578   9.393   8.673  12.140
81894SOL    HW147579   9.433   8.650  12.057
81894SOL    HW247580   9.299   8.677  12.122
81895SOL     OW47581  11.889  11.966   0.513
81895SOL    HW147582  11.810  12.004   0.554
81895SOL    HW247583  11.898  12.014   0.431
81896SOL     OW47584  10.535   7.868   3.667
81896SOL    HW147585  10.444   7.847   3.688
81896SOL    HW247586  10.542   7.963   3.680
81897SOL     OW47587  13.204   7.584   3.083
81897SOL    HW147588  13.110   7.577   3.066
81897SOL    HW247589  13.239   7.498   3.061
81898SOL     OW47590   9.099   8.490   5.615
81898SOL    HW147591   9.074   8.580   5.594
81898SOL    HW247592   9.194   8.488   5.606
81899SOL     OW47593   8.557  14.565   9.830
81899SOL    HW147594   8.494  14.503   9.794
81899SOL    HW247595   8.555  14.639   9.770
81900SOL     OW47596   8.374   1.250  10.864
81900SOL    HW147597   8.453   1.303  10.860
81900SOL    HW247598   8.373   1.215  10.953
81901SOL     OW47599   9.180  10.731  13.042
81901SOL    HW147600   9.141  10.806  12.997
81901SOL    HW247601   9.230  10.770  13.114
81902SOL     OW47602   9.663   2.539  12.233
81902SOL    HW147603   9.707   2.532  12.318
81902SOL    HW247604   9.612   2.620  12.240
81903SOL     OW47605  12.872  14.556  13.280
81903SOL    HW147606  12.890  14.609  13.358
81903SOL    HW247607  12.810  14.489  13.310
81904SOL     OW47608   1.619  14.389  10.660
81904SOL    HW147609   1.547  14.365  10.602
81904SOL    HW247610   1.693  14.405  10.601
81905SOL     OW47611  14.368   8.015  11.291
81905SOL    HW147612  14.377   8.010  11.386
81905SOL    HW247613  14.416   8.094  11.266
81906SOL     OW47614  12.133   0.547   7.359
81906SOL    HW147615  12.105   0.624   7.309
81906SOL    HW247616  12.053   0.515   7.401
81907SOL     OW47617   4.940   5.855   2.437
81907SOL    HW147618   4.848   5.845   2.411
81907SOL    HW247619   4.957   5.777   2.491
81908SOL     OW47620   9.716  13.474   8.152
81908SOL    HW147621   9.665  13.541   8.198
81908SOL    HW247622   9.690  13.392   8.193
81909SOL     OW47623   5.572   1.681  14.163
81909SOL    HW147624   5.553   1.597  14.206
81909SOL    HW247625   5.552   1.666  14.071
81910SOL     OW47626  12.946   5.271   9.462
81910SOL    HW147627  12.990   5.252   9.545
81910SOL    HW247628  13.004   5.334   9.419
81911SOL     OW47629  11.082  13.350   4.266
81911SOL    HW147630  11.133  13.410   4.320
81911SOL    HW247631  11.092  13.385   4.177
81912SOL     OW47632  10.431   6.689   2.568
81912SOL    HW147633  10.484   6.622   2.612
81912SOL    HW247634  10.392   6.740   2.639
81913SOL     OW47635  11.703   9.811  13.828
81913SOL    HW147636  11.773   9.822  13.763
81913SOL    HW247637  11.623   9.837  13.781
81914SOL     OW47638  14.687   8.386   7.644
81914SOL    HW147639  14.680   8.302   7.598
81914SOL    HW247640  14.670   8.365   7.735
81915SOL     OW47641   4.024   4.266   9.049
81915SOL    HW147642   4.016   4.353   9.086
81915SOL    HW247643   4.101   4.271   8.992
81916SOL     OW47644   4.175   0.403   0.499
81916SOL    HW147645   4.145   0.431   0.413
81916SOL    HW247646   4.208   0.483   0.540
81917SOL     OW47647  13.477   7.129   8.895
81917SOL    HW147648  13.450   7.088   8.814
81917SOL    HW247649  13.510   7.215   8.869
81918SOL     OW47650   6.769  12.284   5.185
81918SOL    HW147651   6.733  12.318   5.103
81918SOL    HW247652   6.856  12.324   5.191
81919SOL     OW47653   4.349   1.515   9.373
81919SOL    HW147654   4.307   1.589   9.417
81919SOL    HW247655   4.414   1.484   9.435
81920SOL     OW47656   9.411  11.468   1.349
81920SOL    HW147657   9.432  11.403   1.416
81920SOL    HW247658   9.461  11.441   1.273
81921SOL     OW47659   5.526   6.527   4.129
81921SOL    HW147660   5.538   6.598   4.193
81921SOL    HW247661   5.614   6.490   4.118
81922SOL     OW47662  12.975  14.711   4.471
81922SOL    HW147663  13.028  14.724   4.393
81922SOL    HW247664  13.005  14.628   4.507
81923SOL     OW47665  12.644  11.886  11.694
81923SOL    HW147666  12.559  11.924  11.674
81923SOL    HW247667  12.656  11.817  11.629
81924SOL     OW47668   0.804   8.103   1.257
81924SOL    HW147669   0.795   8.197   1.273
81924SOL    HW247670   0.733   8.082   1.198
81925SOL     OW47671   5.998  11.170   2.817
81925SOL    HW147672   6.019  11.091   2.767
81925SOL    HW247673   5.937  11.140   2.884
81926SOL     OW47674   7.097   3.904   5.030
81926SOL    HW147675   7.054   3.819   5.022
81926SOL    HW247676   7.028   3.967   5.008
81927SOL     OW47677   5.578   0.889   9.907
81927SOL    HW147678   5.493   0.845   9.903
81927SOL    HW247679   5.563   0.974   9.865
81928SOL     OW47680   3.672  13.683  12.205
81928SOL    HW147681   3.734  13.612  12.189
81928SOL    HW247682   3.726  13.760  12.222
81929SOL     OW47683   7.581   7.561   7.887
81929SOL    HW147684   7.596   7.622   7.959
81929SOL    HW247685   7.519   7.497   7.923
81930SOL     OW47686   1.537  10.475   2.931
81930SOL    HW147687   1.565  10.509   3.016
81930SOL    HW247688   1.477  10.404   2.953
81931SOL     OW47689   1.279  11.726  10.738
81931SOL    HW147690   1.291  11.681  10.654
81931SOL    HW247691   1.186  11.747  10.740
81932SOL     OW47692   2.310  11.288   3.951
81932SOL    HW147693   2.374  11.242   4.005
81932SOL    HW247694   2.360  11.316   3.874
81933SOL     OW47695   2.048   0.413  10.777
81933SOL    HW147696   2.039   0.508  10.768
81933SOL    HW247697   2.065   0.400  10.871
81934SOL     OW47698   7.757   1.584   9.289
81934SOL    HW147699   7.781   1.581   9.196
81934SOL    HW247700   7.832   1.546   9.334
81935SOL     OW47701  12.448  11.865   0.565
81935SOL    HW147702  12.465  11.817   0.484
81935SOL    HW247703  12.507  11.941   0.561
81936SOL     OW47704   0.398   0.880   7.166
81936SOL    HW147705   0.354   0.800   7.137
81936SOL    HW247706   0.383   0.943   7.095
81937SOL     OW47707  13.268  14.091  14.737
81937SOL    HW147708  13.264  13.996  14.753
81937SOL    HW247709  13.332  14.101  14.667
81938SOL     OW47710   9.578   5.761   9.132
81938SOL    HW147711   9.632   5.741   9.056
81938SOL    HW247712   9.564   5.856   9.128
81939SOL     OW47713   7.393   4.786  13.789
81939SOL    HW147714   7.324   4.811  13.850
81939SOL    HW247715   7.469   4.839  13.815
81940SOL     OW47716   8.558  10.982   0.622
81940SOL    HW147717   8.583  11.042   0.693
81940SOL    HW247718   8.463  10.989   0.617
81941SOL     OW47719   8.852   5.048  13.895
81941SOL    HW147720   8.793   4.972  13.898
81941SOL    HW247721   8.930   5.016  13.849
81942SOL     OW47722   0.698  10.776   1.694
81942SOL    HW147723   0.676  10.707   1.630
81942SOL    HW247724   0.615  10.818   1.713
81943SOL     OW47725   6.849   6.156   4.597
81943SOL    HW147726   6.829   6.068   4.628
81943SOL    HW247727   6.944   6.165   4.611
81944SOL     OW47728  13.749   7.069   4.006
81944SOL    HW147729  13.745   7.003   4.075
81944SOL    HW247730  13.660   7.072   3.970
81945SOL     OW47731  14.791   9.387  11.375
81945SOL    HW147732  14.869   9.380  11.430
81945SOL    HW247733  14.815   9.340  11.295
81946SOL     OW47734   3.614   5.488   7.661
81946SOL    HW147735   3.669   5.543   7.718
81946SOL    HW247736   3.585   5.547   7.592
81947SOL     OW47737  14.400  13.041   2.607
81947SOL    HW147738  14.330  13.071   2.549
81947SOL    HW247739  14.479  13.041   2.553
81948SOL     OW47740  13.633  14.032  14.737
81948SOL    HW147741  13.696  13.968  14.704
81948SOL    HW247742  13.580  14.055  14.661
81949SOL     OW47743   9.985  13.462   3.317
81949SOL    HW147744   9.917  13.436   3.379
81949SOL    HW247745   9.998  13.385   3.262
81950SOL     OW47746   8.493   3.116   5.837
81950SOL    HW147747   8.555   3.112   5.765
81950SOL    HW247748   8.427   3.179   5.808
81951SOL     OW47749  10.623   5.448   7.782
81951SOL    HW147750  10.707   5.481   7.815
81951SOL    HW247751  10.645   5.368   7.734
81952SOL     OW47752   9.424   6.648   2.760
81952SOL    HW147753   9.502   6.654   2.705
81952SOL    HW247754   9.373   6.726   2.737
81953SOL     OW47755   0.370  12.349   1.098
81953SOL    HW147756   0.347  12.364   1.006
81953SOL    HW247757   0.285  12.344   1.143
81954SOL     OW47758  11.249   0.793   9.100
81954SOL    HW147759  11.202   0.729   9.047
81954SOL    HW247760  11.331   0.808   9.053
81955SOL     OW47761   4.249  14.094   3.832
81955SOL    HW147762   4.271  14.001   3.825
81955SOL    HW247763   4.296  14.134   3.759
81956SOL     OW47764   5.006   1.263   7.492
81956SOL    HW147765   5.019   1.176   7.454
81956SOL    HW247766   4.913   1.265   7.516
81957SOL     OW47767   9.710   4.985  14.365
81957SOL    HW147768   9.755   4.900  14.358
81957SOL    HW247769   9.632   4.975  14.310
81958SOL     OW47770   6.319   8.360   6.168
81958SOL    HW147771   6.352   8.299   6.103
81958SOL    HW247772   6.271   8.306   6.230
81959SOL     OW47773   7.011   9.716   7.370
81959SOL    HW147774   7.029   9.746   7.459
81959SOL    HW247775   7.055   9.631   7.363
81960SOL     OW47776  12.907   3.746   4.363
81960SOL    HW147777  12.941   3.678   4.305
81960SOL    HW247778  12.928   3.715   4.451
81961SOL     OW47779  12.460  11.501  14.082
81961SOL    HW147780  12.384  11.553  14.106
81961SOL    HW247781  12.433  11.411  14.096
81962SOL     OW47782  12.637  11.490   4.002
81962SOL    HW147783  12.644  11.581   3.974
81962SOL    HW247784  12.685  11.441   3.935
81963SOL     OW47785   3.625   0.559   5.515
81963SOL    HW147786   3.547   0.601   5.477
81963SOL    HW247787   3.596   0.471   5.538
81964SOL     OW47788   2.001   0.243  10.216
81964SOL    HW147789   2.048   0.161  10.233
81964SOL    HW247790   2.071   0.309  10.205
81965SOL     OW47791   1.810   5.111   3.352
81965SOL    HW147792   1.787   5.037   3.296
81965SOL    HW247793   1.729   5.162   3.359
81966SOL     OW47794   5.419   1.750  14.560
81966SOL    HW147795   5.347   1.692  14.537
81966SOL    HW247796   5.378   1.823  14.606
81967SOL     OW47797   1.914   0.284   2.284
81967SOL    HW147798   1.903   0.190   2.297
81967SOL    HW247799   2.000   0.304   2.320
81968SOL     OW47800   9.250   9.517   5.310
81968SOL    HW147801   9.229   9.424   5.308
81968SOL    HW247802   9.206   9.554   5.233
81969SOL     OW47803   6.930   2.374   3.154
81969SOL    HW147804   6.929   2.285   3.189
81969SOL    HW247805   6.958   2.429   3.227
81970SOL     OW47806   6.563   4.959   8.062
81970SOL    HW147807   6.480   4.936   8.104
81970SOL    HW247808   6.572   4.896   7.991
81971SOL     OW47809  11.056  14.072  10.041
81971SOL    HW147810  11.028  13.992  10.085
81971SOL    HW247811  10.983  14.096   9.984
81972SOL     OW47812   2.573   1.409  13.657
81972SOL    HW147813   2.531   1.386  13.574
81972SOL    HW247814   2.502   1.438  13.713
81973SOL     OW47815   5.979  11.757   2.401
81973SOL    HW147816   5.891  11.720   2.406
81973SOL    HW247817   5.966  11.852   2.408
81974SOL     OW47818   3.770   4.369   5.468
81974SOL    HW147819   3.831   4.352   5.396
81974SOL    HW247820   3.826   4.394   5.541
81975SOL     OW47821  13.949   2.600   9.604
81975SOL    HW147822  14.033   2.561   9.628
81975SOL    HW247823  13.969   2.659   9.532
81976SOL     OW47824   0.352   3.054   7.455
81976SOL    HW147825   0.423   3.001   7.491
81976SOL    HW247826   0.275   3.027   7.506
81977SOL     OW47827   3.836  12.889   4.487
81977SOL    HW147828   3.853  12.859   4.576
81977SOL    HW247829   3.836  12.808   4.435
81978SOL     OW47830   3.204   6.066   2.688
81978SOL    HW147831   3.285   6.096   2.728
81978SOL    HW247832   3.200   6.114   2.605
81979SOL     OW47833   4.464   7.972   1.792
81979SOL    HW147834   4.438   7.882   1.812
81979SOL    HW247835   4.385   8.024   1.807
81980SOL     OW47836   7.363   4.611  11.412
81980SOL    HW147837   7.395   4.676  11.349
81980SOL    HW247838   7.419   4.623  11.489
81981SOL     OW47839   9.367   6.885  13.964
81981SOL    HW147840   9.326   6.915  13.883
81981SOL    HW247841   9.356   6.957  14.026
81982SOL     OW47842  11.582   3.610  13.911
81982SOL    HW147843  11.577   3.593  13.817
81982SOL    HW247844  11.501   3.573  13.946
81983SOL     OW47845  10.442  11.907   0.841
81983SOL    HW147846  10.386  11.983   0.824
81983SOL    HW247847  10.517  11.943   0.890
81984SOL     OW47848   1.930  14.315  14.548
81984SOL    HW147849   1.926  14.336  14.641
81984SOL    HW247850   1.890  14.391  14.505
81985SOL     OW47851  13.103   4.257   4.967
81985SOL    HW147852  13.119   4.243   5.061
81985SOL    HW247853  13.038   4.191   4.944
81986SOL     OW47854   7.259   7.894  14.507
81986SOL    HW147855   7.327   7.908  14.441
81986SOL    HW247856   7.259   7.799  14.521
81987SOL     OW47857   1.082   7.684   4.158
81987SOL    HW147858   0.989   7.662   4.164
81987SOL    HW247859   1.088   7.775   4.186
81988SOL     OW47860  12.479   1.363   8.155
81988SOL    HW147861  12.403   1.418   8.176
81988SOL    HW247862  12.474   1.291   8.218
81989SOL     OW47863   4.238   8.494   6.892
81989SOL    HW147864   4.296   8.510   6.818
81989SOL    HW247865   4.228   8.399   6.894
81990SOL     OW47866  10.610   7.053   1.940
81990SOL    HW147867  10.564   7.137   1.938
81990SOL    HW247868  10.541   6.987   1.945
81991SOL     OW47869  14.118   7.738  14.718
81991SOL    HW147870  14.190   7.704  14.771
81991SOL    HW247871  14.158   7.760  14.634
81992SOL     OW47872  10.851  14.037   7.466
81992SOL    HW147873  10.926  14.076   7.510
81992SOL    HW247874  10.864  14.057   7.374
81993SOL     OW47875   5.335   9.722   5.037
81993SOL    HW147876   5.337   9.675   5.121
81993SOL    HW247877   5.246   9.757   5.032
81994SOL     OW47878   8.167   6.339   8.257
81994SOL    HW147879   8.185   6.387   8.176
81994SOL    HW247880   8.165   6.247   8.230
81995SOL     OW47881   9.814   4.017  10.965
81995SOL    HW147882   9.896   4.062  10.985
81995SOL    HW247883   9.746   4.082  10.987
81996SOL     OW47884   8.508   2.338   9.635
81996SOL    HW147885   8.499   2.287   9.554
81996SOL    HW247886   8.462   2.286   9.701
81997SOL     OW47887  12.349  11.000   7.533
81997SOL    HW147888  12.340  10.935   7.603
81997SOL    HW247889  12.409  11.066   7.570
81998SOL     OW47890   1.907   0.617  10.096
81998SOL    HW147891   1.857   0.672  10.155
81998SOL    HW247892   1.908   0.666  10.013
81999SOL     OW47893   8.601   0.683   5.642
81999SOL    HW147894   8.518   0.698   5.686
81999SOL    HW247895   8.581   0.622   5.571
82000SOL     OW47896   3.532   2.173  10.976
82000SOL    HW147897   3.532   2.085  10.939
82000SOL    HW247898   3.623   2.202  10.971
82001SOL     OW47899   5.782   4.316  12.540
82001SOL    HW147900   5.845   4.350  12.604
82001SOL    HW247901   5.702   4.301  12.591
82002SOL     OW47902  13.437   1.580  11.523
82002SOL    HW147903  13.529   1.574  11.497
82002SOL    HW247904  13.404   1.490  11.512
82003SOL     OW47905   2.114   4.378  13.173
82003SOL    HW147906   2.140   4.286  13.163
82003SOL    HW247907   2.050   4.376  13.244
82004SOL     OW47908   5.953  13.887   5.928
82004SOL    HW147909   6.036  13.931   5.946
82004SOL    HW247910   5.886  13.947   5.961
82005SOL     OW47911  13.436   3.048  12.455
82005SOL    HW147912  13.376   3.002  12.514
82005SOL    HW247913  13.426   3.004  12.371
82006SOL     OW47914   7.792   8.160   9.025
82006SOL    HW147915   7.771   8.242   9.069
82006SOL    HW247916   7.818   8.186   8.936
82007SOL     OW47917   3.535  10.655   4.607
82007SOL    HW147918   3.622  10.656   4.568
82007SOL    HW247919   3.529  10.570   4.650
82008SOL     OW47920   5.699  10.843   5.631
82008SOL    HW147921   5.637  10.889   5.574
82008SOL    HW247922   5.644  10.800   5.696
82009SOL     OW47923  11.232   3.265   3.949
82009SOL    HW147924  11.304   3.211   3.983
82009SOL    HW247925  11.163   3.203   3.928
82010SOL     OW47926   8.306  14.203   9.400
82010SOL    HW147927   8.216  14.194   9.368
82010SOL    HW247928   8.296  14.238   9.488
82011SOL     OW47929   5.870   6.622   0.726
82011SOL    HW147930   5.961   6.634   0.698
82011SOL    HW247931   5.847   6.704   0.770
82012SOL     OW47932   9.485   5.958   6.955
82012SOL    HW147933   9.394   5.934   6.941
82012SOL    HW247934   9.490   5.984   7.047
82013SOL     OW47935   3.039  10.827   2.018
82013SOL    HW147936   2.951  10.790   2.010
82013SOL    HW247937   3.027  10.907   2.069
82014SOL     OW47938   9.421   4.858   7.202
82014SOL    HW147939   9.516   4.857   7.189
82014SOL    HW247940   9.394   4.948   7.183
82015SOL     OW47941  13.332  10.922   5.539
82015SOL    HW147942  13.378  11.000   5.570
82015SOL    HW247943  13.334  10.861   5.613
82016SOL     OW47944  10.290   1.455  14.531
82016SOL    HW147945  10.354   1.492  14.470
82016SOL    HW247946  10.220   1.520  14.535
82017SOL     OW47947   8.950  14.468  13.382
82017SOL    HW147948   9.008  14.481  13.457
82017SOL    HW247949   8.975  14.537  13.321
82018SOL     OW47950   9.614  12.948  10.330
82018SOL    HW147951   9.665  12.951  10.411
82018SOL    HW247952   9.680  12.942  10.260
82019SOL     OW47953  14.279   8.028   5.584
82019SOL    HW147954  14.234   8.052   5.503
82019SOL    HW247955  14.291   8.112   5.629
82020SOL     OW47956  11.606   8.315  12.758
82020SOL    HW147957  11.574   8.399  12.725
82020SOL    HW247958  11.701   8.318  12.745
82021SOL     OW47959  14.175  13.550   7.957
82021SOL    HW147960  14.206  13.470   8.000
82021SOL    HW247961  14.160  13.525   7.866
82022SOL     OW47962   8.361  13.028   2.488
82022SOL    HW147963   8.409  12.959   2.533
82022SOL    HW247964   8.396  13.027   2.399
82023SOL     OW47965   8.065   5.132  14.491
82023SOL    HW147966   8.085   5.108  14.400
82023SOL    HW247967   8.006   5.208  14.483
82024SOL     OW47968   5.297   5.206   2.804
82024SOL    HW147969   5.308   5.133   2.866
82024SOL    HW247970   5.255   5.167   2.728
82025SOL     OW47971   7.914   0.052   3.240
82025SOL    HW147972   7.833   0.036   3.192
82025SOL    HW247973   7.933  14.839   3.284
82026SOL     OW47974   4.442  10.553  13.768
82026SOL    HW147975   4.508  10.622  13.776
82026SOL    HW247976   4.368  10.596  13.725
82027SOL     OW47977  12.206  13.096  11.040
82027SOL    HW147978  12.175  13.132  11.123
82027SOL    HW247979  12.302  13.104  11.044
82028SOL     OW47980   6.460  10.533   5.005
82028SOL    HW147981   6.469  10.628   5.003
82028SOL    HW247982   6.409  10.511   4.927
82029SOL     OW47983  10.162   1.900  14.468
82029SOL    HW147984  10.100   1.962  14.505
82029SOL    HW247985  10.245   1.947  14.466
82030SOL     OW47986   3.289   3.625   9.480
82030SOL    HW147987   3.243   3.586   9.406
82030SOL    HW247988   3.267   3.569   9.555
82031SOL     OW47989   8.561   9.071  11.437
82031SOL    HW147990   8.544   8.977  11.428
82031SOL    HW247991   8.498   9.112  11.378
82032SOL     OW47992  11.957  11.504   0.044
82032SOL    HW147993  11.927  11.589   0.012
82032SOL    HW247994  12.018  11.525   0.115
82033SOL     OW47995   0.932   8.302   3.831
82033SOL    HW147996   0.980   8.341   3.905
82033SOL    HW247997   0.969   8.214   3.822
82034SOL     OW47998  10.578   9.497   0.965
82034SOL    HW147999  10.550   9.532   1.050
82034SOL    HW248000  10.658   9.448   0.984
82035SOL     OW48001  10.050   1.264   7.303
82035SOL    HW148002  10.070   1.292   7.393
82035SOL    HW248003   9.960   1.293   7.288
82036SOL     OW48004   1.864  14.602   0.837
82036SOL    HW148005   1.929  14.625   0.770
82036SOL    HW248006   1.783  14.589   0.788
82037SOL     OW48007   0.294   9.229  14.622
82037SOL    HW148008   0.230   9.278  14.674
82037SOL    HW248009   0.317   9.155  14.677
82038SOL     OW48010   8.372   3.013   4.622
82038SOL    HW148011   8.393   2.939   4.564
82038SOL    HW248012   8.394   2.981   4.709
82039SOL     OW48013  12.570   5.610   4.660
82039SOL    HW148014  12.491   5.647   4.698
82039SOL    HW248015  12.587   5.531   4.711
82040SOL     OW48016   1.908   9.773  12.178
82040SOL    HW148017   1.860   9.697  12.147
82040SOL    HW248018   1.894   9.840  12.110
82041SOL     OW48019   5.577   3.541   0.276
82041SOL    HW148020   5.575   3.593   0.357
82041SOL    HW248021   5.495   3.493   0.276
82042SOL     OW48022  10.542   7.851  10.173
82042SOL    HW148023  10.580   7.779  10.121
82042SOL    HW248024  10.523   7.812  10.258
82043SOL     OW48025   4.894  11.972  14.573
82043SOL    HW148026   4.804  12.000  14.556
82043SOL    HW248027   4.937  11.979  14.488
82044SOL     OW48028  10.647   5.386   1.106
82044SOL    HW148029  10.591   5.332   1.051
82044SOL    HW248030  10.588   5.428   1.168
82045SOL     OW48031   1.172   5.446   6.767
82045SOL    HW148032   1.215   5.394   6.835
82045SOL    HW248033   1.078   5.439   6.787
82046SOL     OW48034  10.223   5.676  10.767
82046SOL    HW148035  10.288   5.623  10.813
82046SOL    HW248036  10.231   5.763  10.807
82047SOL     OW48037   9.235   6.307   7.957
82047SOL    HW148038   9.302   6.270   8.015
82047SOL    HW248039   9.274   6.388   7.924
82048SOL     OW48040  10.400   0.270  10.437
82048SOL    HW148041  10.355   0.208  10.380
82048SOL    HW248042  10.493   0.252  10.423
82049SOL     OW48043   5.859   2.141   3.940
82049SOL    HW148044   5.837   2.158   4.032
82049SOL    HW248045   5.879   2.228   3.904
82050SOL     OW48046   7.522  13.161   1.810
82050SOL    HW148047   7.507  13.144   1.717
82050SOL    HW248048   7.459  13.105   1.855
82051SOL     OW48049   4.221  12.723   0.282
82051SOL    HW148050   4.251  12.664   0.351
82051SOL    HW248051   4.130  12.699   0.267
82052SOL     OW48052   4.214   6.359   2.640
82052SOL    HW148053   4.251   6.346   2.552
82052SOL    HW248054   4.262   6.434   2.675
82053SOL     OW48055   9.481   9.805   3.198
82053SOL    HW148056   9.463   9.807   3.292
82053SOL    HW248057   9.423   9.872   3.161
82054SOL     OW48058  12.063   5.752   7.272
82054SOL    HW148059  12.145   5.762   7.224
82054SOL    HW248060  11.995   5.774   7.209
82055SOL     OW48061   5.096  12.009  13.361
82055SOL    HW148062   5.119  12.100  13.347
82055SOL    HW248063   5.106  11.996  13.455
82056SOL     OW48064  14.090   9.210   1.012
82056SOL    HW148065  14.182   9.236   1.003
82056SOL    HW248066  14.041   9.290   0.995
82057SOL     OW48067   8.545  12.744   3.456
82057SOL    HW148068   8.503  12.829   3.470
82057SOL    HW248069   8.474  12.687   3.427
82058SOL     OW48070   8.296   3.982   0.940
82058SOL    HW148071   8.388   4.008   0.947
82058SOL    HW248072   8.267   4.021   0.857
82059SOL     OW48073   5.739  14.845   6.765
82059SOL    HW148074   5.680  14.770   6.758
82059SOL    HW248075   5.681   0.051   6.764
82060SOL     OW48076  11.110  10.476  11.484
82060SOL    HW148077  11.195  10.432  11.476
82060SOL    HW248078  11.074  10.444  11.567
82061SOL     OW48079   0.498   2.816  14.503
82061SOL    HW148080   0.509   2.877  14.430
82061SOL    HW248081   0.416   2.770  14.483
82062SOL     OW48082  10.081   7.946  10.863
82062SOL    HW148083  10.057   7.883  10.795
82062SOL    HW248084  10.158   7.908  10.905
82063SOL     OW48085   2.022   3.299  10.829
82063SOL    HW148086   2.113   3.316  10.851
82063SOL    HW248087   2.024   3.217  10.779
82064SOL     OW48088   5.262   2.654  13.939
82064SOL    HW148089   5.219   2.704  13.870
82064SOL    HW248090   5.330   2.712  13.973
82065SOL     OW48091   1.484  12.361   7.564
82065SOL    HW148092   1.433  12.281   7.562
82065SOL    HW248093   1.440  12.417   7.628
82066SOL     OW48094   1.795  12.866   3.239
82066SOL    HW148095   1.879  12.883   3.281
82066SOL    HW248096   1.808  12.891   3.148
82067SOL     OW48097   0.552   2.318   3.041
82067SOL    HW148098   0.522   2.247   3.098
82067SOL    HW248099   0.607   2.274   2.975
82068SOL     OW48100   0.878   6.954   2.391
82068SOL    HW148101   0.961   6.997   2.367
82068SOL    HW248102   0.859   6.987   2.479
82069SOL     OW48103   1.063  11.170   4.068
82069SOL    HW148104   1.009  11.241   4.104
82069SOL    HW248105   1.150  11.208   4.059
82070SOL     OW48106  11.128   9.604   9.971
82070SOL    HW148107  11.218   9.576   9.953
82070SOL    HW248108  11.112   9.677   9.911
82071SOL     OW48109   8.931  10.738   6.414
82071SOL    HW148110   8.861  10.678   6.390
82071SOL    HW248111   8.973  10.697   6.490
82072SOL     OW48112   8.622  14.455   6.234
82072SOL    HW148113   8.545  14.459   6.177
82072SOL    HW248114   8.695  14.481   6.178
82073SOL     OW48115   2.407  10.028  11.151
82073SOL    HW148116   2.433  10.118  11.135
82073SOL    HW248117   2.456  10.002  11.229
82074SOL     OW48118  12.091   8.804   6.287
82074SOL    HW148119  12.066   8.842   6.203
82074SOL    HW248120  12.113   8.879   6.343
82075SOL     OW48121   1.909  12.140   6.253
82075SOL    HW148122   1.837  12.081   6.275
82075SOL    HW248123   1.888  12.222   6.298
82076SOL     OW48124  10.018   1.784  13.467
82076SOL    HW148125   9.935   1.829  13.484
82076SOL    HW248126  10.082   1.854  13.455
82077SOL     OW48127  13.759  12.830  12.910
82077SOL    HW148128  13.788  12.802  12.997
82077SOL    HW248129  13.717  12.753  12.872
82078SOL     OW48130  11.016   2.332   0.496
82078SOL    HW148131  11.049   2.349   0.408
82078SOL    HW248132  11.069   2.259   0.528
82079SOL     OW48133  12.121  11.387   1.240
82079SOL    HW148134  12.141  11.440   1.317
82079SOL    HW248135  12.059  11.322   1.271
82080SOL     OW48136   0.480   8.969  12.276
82080SOL    HW148137   0.521   8.994  12.193
82080SOL    HW248138   0.441   9.050  12.309
82081SOL     OW48139  13.195   9.461   1.256
82081SOL    HW148140  13.168   9.431   1.343
82081SOL    HW248141  13.118   9.448   1.201
82082SOL     OW48142   7.092   3.783   0.841
82082SOL    HW148143   7.026   3.720   0.868
82082SOL    HW248144   7.172   3.754   0.885
82083SOL     OW48145  12.425   0.850   7.926
82083SOL    HW148146  12.520   0.847   7.936
82083SOL    HW248147  12.408   0.935   7.885
82084SOL     OW48148   2.250  11.247   1.316
82084SOL    HW148149   2.224  11.337   1.330
82084SOL    HW248150   2.267  11.213   1.404
82085SOL     OW48151   5.100   3.870   6.605
82085SOL    HW148152   5.089   3.866   6.510
82085SOL    HW248153   5.188   3.835   6.621
82086SOL     OW48154  11.973   2.083  14.176
82086SOL    HW148155  12.055   2.086  14.126
82086SOL    HW248156  11.998   2.047  14.261
82087SOL     OW48157  14.764   0.001  10.228
82087SOL    HW148158  14.847  14.828  10.249
82087SOL    HW248159  14.705  14.843  10.298
82088SOL     OW48160  12.819   4.046   9.858
82088SOL    HW148161  12.777   4.099   9.791
82088SOL    HW248162  12.913   4.057   9.842
82089SOL     OW48163   9.069  11.100  13.890
82089SOL    HW148164   9.123  11.121  13.966
82089SOL    HW248165   9.005  11.172  13.885
82090SOL     OW48166   5.440   6.419   0.229
82090SOL    HW148167   5.353   6.436   0.193
82090SOL    HW248168   5.441   6.325   0.247
82091SOL     OW48169   4.173   3.877  13.833
82091SOL    HW148170   4.223   3.905  13.910
82091SOL    HW248171   4.193   3.943  13.766
82092SOL     OW48172   6.669   3.448  12.930
82092SOL    HW148173   6.666   3.469  12.836
82092SOL    HW248174   6.577   3.441  12.955
82093SOL     OW48175   2.490   1.535   4.698
82093SOL    HW148176   2.492   1.629   4.680
82093SOL    HW248177   2.432   1.499   4.631
82094SOL     OW48178   3.440   1.234  12.950
82094SOL    HW148179   3.376   1.304  12.960
82094SOL    HW248180   3.522   1.270  12.983
82095SOL     OW48181   4.000   4.506   0.652
82095SOL    HW148182   3.993   4.588   0.702
82095SOL    HW248183   3.939   4.516   0.580
82096SOL     OW48184   9.779  12.689  14.262
82096SOL    HW148185   9.734  12.766  14.229
82096SOL    HW248186   9.710  12.636  14.302
82097SOL     OW48187   0.492  13.581   2.150
82097SOL    HW148188   0.408  13.542   2.174
82097SOL    HW248189   0.501  13.561   2.057
82098SOL     OW48190   3.438   7.590   8.474
82098SOL    HW148191   3.393   7.659   8.425
82098SOL    HW248192   3.372   7.560   8.537
82099SOL     OW48193   5.663   7.403   4.052
82099SOL    HW148194   5.705   7.467   3.994
82099SOL    HW248195   5.625   7.455   4.122
82100SOL     OW48196   2.573   7.239   5.599
82100SOL    HW148197   2.579   7.191   5.516
82100SOL    HW248198   2.663   7.265   5.619
82101SOL     OW48199   3.663  12.063   8.763
82101SOL    HW148200   3.716  12.107   8.830
82101SOL    HW248201   3.679  11.970   8.778
82102SOL     OW48202   1.237   4.975   9.328
82102SOL    HW148203   1.151   4.944   9.358
82102SOL    HW248204   1.296   4.901   9.344
82103SOL     OW48205   8.970   7.512   7.266
82103SOL    HW148206   8.884   7.499   7.227
82103SOL    HW248207   9.031   7.497   7.195
82104SOL     OW48208   7.055   4.364  10.744
82104SOL    HW148209   6.965   4.377  10.715
82104SOL    HW248210   7.105   4.433  10.700
82105SOL     OW48211  14.071   3.862   8.067
82105SOL    HW148212  14.003   3.930   8.069
82105SOL    HW248213  14.111   3.871   7.981
82106SOL     OW48214  13.387  10.674   1.549
82106SOL    HW148215  13.474  10.713   1.533
82106SOL    HW248216  13.332  10.711   1.480
82107SOL     OW48217   1.095   5.567  10.107
82107SOL    HW148218   1.180   5.590  10.069
82107SOL    HW248219   1.034   5.570  10.033
82108SOL     OW48220   3.809   4.691   5.806
82108SOL    HW148221   3.793   4.718   5.715
82108SOL    HW248222   3.738   4.731   5.856
82109SOL     OW48223   5.021   4.653   8.599
82109SOL    HW148224   5.094   4.594   8.620
82109SOL    HW248225   5.061   4.722   8.545
82110SOL     OW48226   6.657  13.272  13.303
82110SOL    HW148227   6.658  13.199  13.241
82110SOL    HW248228   6.681  13.233  13.387
82111SOL     OW48229   0.319   9.618   6.761
82111SOL    HW148230   0.230   9.608   6.795
82111SOL    HW248231   0.375   9.581   6.829
82112SOL     OW48232   8.805  14.024   2.739
82112SOL    HW148233   8.847  14.107   2.764
82112SOL    HW248234   8.831  13.963   2.808
82113SOL     OW48235  11.019  13.457  13.351
82113SOL    HW148236  10.925  13.471  13.353
82113SOL    HW248237  11.040  13.449  13.257
82114SOL     OW48238   8.587   3.776  13.900
82114SOL    HW148239   8.525   3.791  13.828
82114SOL    HW248240   8.633   3.859  13.909
82115SOL     OW48241   4.152  10.675  11.910
82115SOL    HW148242   4.100  10.747  11.874
82115SOL    HW248243   4.221  10.719  11.960
82116SOL     OW48244   9.960   2.906   4.847
82116SOL    HW148245  10.021   2.948   4.907
82116SOL    HW248246   9.989   2.932   4.760
82117SOL     OW48247   3.129   3.652   7.026
82117SOL    HW148248   3.036   3.671   7.025
82117SOL    HW248249   3.170   3.728   7.068
82118SOL     OW48250   6.693  12.762  11.646
82118SOL    HW148251   6.639  12.828  11.688
82118SOL    HW248252   6.715  12.700  11.716
82119SOL     OW48253  11.149   7.466   6.500
82119SOL    HW148254  11.070   7.481   6.552
82119SOL    HW248255  11.122   7.482   6.410
82120SOL     OW48256   7.150   1.605  13.699
82120SOL    HW148257   7.241   1.634  13.708
82120SOL    HW248258   7.141   1.538  13.767
82121SOL     OW48259   3.839   8.613   7.128
82121SOL    HW148260   3.779   8.567   7.187
82121SOL    HW248261   3.919   8.562   7.131
82122SOL     OW48262   9.679   3.406   2.678
82122SOL    HW148263   9.687   3.484   2.622
82122SOL    HW248264   9.587   3.406   2.705
82123SOL     OW48265  10.204   2.958   4.406
82123SOL    HW148266  10.201   2.926   4.497
82123SOL    HW248267  10.151   2.895   4.357
82124SOL     OW48268   1.364   6.303   7.121
82124SOL    HW148269   1.389   6.223   7.168
82124SOL    HW248270   1.422   6.305   7.045
82125SOL     OW48271   2.535   0.195  10.990
82125SOL    HW148272   2.593   0.213  11.064
82125SOL    HW248273   2.591   0.206  10.913
82126SOL     OW48274  12.876   0.708   3.395
82126SOL    HW148275  12.833   0.672   3.473
82126SOL    HW248276  12.922   0.633   3.357
82127SOL     OW48277   3.896   2.651  13.831
82127SOL    HW148278   3.972   2.635  13.775
82127SOL    HW248279   3.859   2.564  13.848
82128SOL     OW48280   5.664   5.868   7.229
82128SOL    HW148281   5.682   5.958   7.256
82128SOL    HW248282   5.747   5.837   7.194
82129SOL     OW48283   8.017  14.234   5.521
82129SOL    HW148284   7.986  14.224   5.431
82129SOL    HW248285   8.110  14.210   5.517
82130SOL     OW48286   4.537   7.804   4.569
82130SOL    HW148287   4.457   7.850   4.542
82130SOL    HW248288   4.514   7.711   4.564
82131SOL     OW48289   0.602   8.270   9.148
82131SOL    HW148290   0.575   8.355   9.113
82131SOL    HW248291   0.687   8.253   9.106
82132SOL     OW48292   1.241   9.735   1.411
82132SOL    HW148293   1.274   9.717   1.323
82132SOL    HW248294   1.319   9.728   1.467
82133SOL     OW48295   3.527   2.525   2.577
82133SOL    HW148296   3.562   2.478   2.652
82133SOL    HW248297   3.490   2.606   2.614
82134SOL     OW48298   5.518   1.318   4.742
82134SOL    HW148299   5.534   1.402   4.785
82134SOL    HW248300   5.424   1.303   4.754
82135SOL     OW48301  11.618   5.418  14.160
82135SOL    HW148302  11.677   5.410  14.085
82135SOL    HW248303  11.559   5.342  14.152
82136SOL     OW48304   3.444  12.555  11.429
82136SOL    HW148305   3.457  12.518  11.516
82136SOL    HW248306   3.374  12.502  11.390
82137SOL     OW48307  11.151   6.562   2.434
82137SOL    HW148308  11.205   6.634   2.468
82137SOL    HW248309  11.088   6.604   2.377
82138SOL     OW48310   6.783   6.696  10.309
82138SOL    HW148311   6.853   6.636  10.336
82138SOL    HW248312   6.795   6.707  10.215
82139SOL     OW48313   2.591  10.250  13.611
82139SOL    HW148314   2.553  10.171  13.573
82139SOL    HW248315   2.549  10.323  13.564
82140SOL     OW48316   6.049   8.310  11.494
82140SOL    HW148317   6.047   8.238  11.431
82140SOL    HW248318   5.981   8.287  11.558
82141SOL     OW48319   2.250  14.744   2.488
82141SOL    HW148320   2.302  14.674   2.447
82141SOL    HW248321   2.311  14.785   2.550
82142SOL     OW48322   5.381   8.000   4.863
82142SOL    HW148323   5.393   7.973   4.772
82142SOL    HW248324   5.382   7.918   4.913
82143SOL     OW48325   5.293  11.892  10.935
82143SOL    HW148326   5.273  11.858  10.848
82143SOL    HW248327   5.270  11.821  10.995
82144SOL     OW48328   3.606  11.034  13.408
82144SOL    HW148329   3.656  10.975  13.464
82144SOL    HW248330   3.652  11.118  13.414
82145SOL     OW48331  14.198   2.537   4.543
82145SOL    HW148332  14.190   2.508   4.453
82145SOL    HW248333  14.110   2.567   4.567
82146SOL     OW48334   5.197  12.553   6.975
82146SOL    HW148335   5.174  12.587   6.888
82146SOL    HW248336   5.293  12.550   6.974
82147SOL     OW48337   4.481   0.501  12.354
82147SOL    HW148338   4.548   0.526  12.290
82147SOL    HW248339   4.403   0.551  12.329
82148SOL     OW48340   2.526   2.506   4.319
82148SOL    HW148341   2.472   2.510   4.240
82148SOL    HW248342   2.463   2.516   4.391
82149SOL     OW48343  11.829   1.627  10.502
82149SOL    HW148344  11.855   1.606  10.592
82149SOL    HW248345  11.898   1.589  10.448
82150SOL     OW48346   3.787  13.610   7.650
82150SOL    HW148347   3.726  13.646   7.714
82150SOL    HW248348   3.817  13.685   7.600
82151SOL     OW48349   7.080   1.714   4.571
82151SOL    HW148350   7.121   1.628   4.569
82151SOL    HW248351   7.134   1.764   4.632
82152SOL     OW48352   6.781   0.320   0.098
82152SOL    HW148353   6.745   0.232   0.084
82152SOL    HW248354   6.876   0.308   0.089
82153SOL     OW48355  14.096  14.108   6.372
82153SOL    HW148356  14.065  14.187   6.327
82153SOL    HW248357  14.118  14.048   6.301
82154SOL     OW48358   4.640  14.828   7.277
82154SOL    HW148359   4.593  14.805   7.197
82154SOL    HW248360   4.590   0.031   7.314
82155SOL     OW48361  10.502   5.067   8.741
82155SOL    HW148362  10.556   4.992   8.717
82155SOL    HW248363  10.555   5.143   8.718
82156SOL     OW48364   2.334   4.297   6.654
82156SOL    HW148365   2.400   4.366   6.646
82156SOL    HW248366   2.253   4.337   6.621
82157SOL     OW48367   9.411   3.118   8.069
82157SOL    HW148368   9.496   3.087   8.036
82157SOL    HW248369   9.353   3.115   7.993
82158SOL     OW48370   1.572   3.011   1.969
82158SOL    HW148371   1.617   2.948   2.024
82158SOL    HW248372   1.619   3.008   1.886
82159SOL     OW48373  14.121  13.947   7.894
82159SOL    HW148374  14.118  13.951   7.798
82159SOL    HW248375  14.032  13.972   7.921
82160SOL     OW48376   4.985  14.398  12.209
82160SOL    HW148377   4.954  14.425  12.123
82160SOL    HW248378   4.924  14.439  12.271
82161SOL     OW48379   5.825   0.716  10.509
82161SOL    HW148380   5.889   0.784  10.488
82161SOL    HW248381   5.858   0.638  10.464
82162SOL     OW48382   0.456   3.432   5.107
82162SOL    HW148383   0.439   3.342   5.135
82162SOL    HW248384   0.409   3.441   5.025
82163SOL     OW48385   4.084  14.374   5.819
82163SOL    HW148386   4.068  14.463   5.851
82163SOL    HW248387   4.029  14.319   5.875
82164SOL     OW48388   7.864   5.137  11.326
82164SOL    HW148389   7.799   5.197  11.289
82164SOL    HW248390   7.829   5.115  11.412
82165SOL     OW48391   1.914  12.828   1.681
82165SOL    HW148392   1.899  12.879   1.761
82165SOL    HW248393   1.957  12.748   1.712
82166SOL     OW48394   4.122   9.829   6.121
82166SOL    HW148395   4.080   9.743   6.127
82166SOL    HW248396   4.200   9.822   6.177
82167SOL     OW48397   5.723   5.967   1.749
82167SOL    HW148398   5.701   6.058   1.727
82167SOL    HW248399   5.712   5.962   1.843
82168SOL     OW48400   0.643  12.872  11.771
82168SOL    HW148401   0.639  12.836  11.682
82168SOL    HW248402   0.733  12.855  11.799
82169SOL     OW48403   1.165   4.996  14.582
82169SOL    HW148404   1.074   5.021  14.566
82169SOL    HW248405   1.214   5.078  14.572
82170SOL     OW48406  10.196   3.095  11.509
82170SOL    HW148407  10.135   3.032  11.547
82170SOL    HW248408  10.211   3.064  11.420
82171SOL     OW48409  10.157   4.631  10.474
82171SOL    HW148410  10.211   4.686  10.417
82171SOL    HW248411  10.146   4.549  10.425
82172SOL     OW48412   5.465  14.829  12.301
82172SOL    HW148413   5.402  14.851  12.232
82172SOL    HW248414   5.435  14.745  12.335
82173SOL     OW48415  13.387   1.332   1.876
82173SOL    HW148416  13.380   1.423   1.905
82173SOL    HW248417  13.346   1.281   1.946
82174SOL     OW48418   2.888   1.983  10.181
82174SOL    HW148419   2.883   2.077  10.160
82174SOL    HW248420   2.801   1.949  10.162
82175SOL     OW48421  12.064   6.619   7.076
82175SOL    HW148422  12.156   6.607   7.101
82175SOL    HW248423  12.027   6.531   7.076
82176SOL     OW48424  12.404   8.033   2.040
82176SOL    HW148425  12.330   8.003   1.987
82176SOL    HW248426  12.480   8.026   1.982
82177SOL     OW48427  12.338   9.675  10.598
82177SOL    HW148428  12.287   9.630  10.665
82177SOL    HW248429  12.280   9.745  10.567
82178SOL     OW48430  10.813   8.625   5.441
82178SOL    HW148431  10.745   8.606   5.377
82178SOL    HW248432  10.848   8.540   5.466
82179SOL     OW48433  12.844   9.418   3.665
82179SOL    HW148434  12.778   9.396   3.599
82179SOL    HW248435  12.805   9.391   3.748
82180SOL     OW48436   1.087   6.591   6.203
82180SOL    HW148437   1.040   6.666   6.168
82180SOL    HW248438   1.065   6.591   6.297
82181SOL     OW48439   7.592   6.842   7.436
82181SOL    HW148440   7.507   6.873   7.470
82181SOL    HW248441   7.581   6.842   7.341
82182SOL     OW48442  12.413  11.496  10.436
82182SOL    HW148443  12.373  11.442  10.504
82182SOL    HW248444  12.477  11.439  10.394
82183SOL     OW48445   5.772   6.069   3.542
82183SOL    HW148446   5.689   6.070   3.588
82183SOL    HW248447   5.838   6.055   3.610
82184SOL     OW48448  10.566   2.584   6.951
82184SOL    HW148449  10.576   2.610   7.043
82184SOL    HW248450  10.638   2.629   6.906
82185SOL     OW48451   6.564   0.308   6.290
82185SOL    HW148452   6.499   0.243   6.266
82185SOL    HW248453   6.605   0.274   6.369
82186SOL     OW48454   5.380  10.908   6.172
82186SOL    HW148455   5.411  10.998   6.161
82186SOL    HW248456   5.320  10.912   6.247
82187SOL     OW48457   2.241   2.677  14.225
82187SOL    HW148458   2.323   2.659  14.272
82187SOL    HW248459   2.175   2.629  14.274
82188SOL     OW48460   6.714   4.159   3.833
82188SOL    HW148461   6.731   4.067   3.813
82188SOL    HW248462   6.769   4.178   3.909
82189SOL     OW48463   0.335  13.724   4.725
82189SOL    HW148464   0.319  13.709   4.632
82189SOL    HW248465   0.427  13.701   4.737
82190SOL     OW48466  11.288   6.333   7.607
82190SOL    HW148467  11.382   6.331   7.621
82190SOL    HW248468  11.272   6.268   7.538
82191SOL     OW48469   6.477   6.357   4.702
82191SOL    HW148470   6.442   6.391   4.619
82191SOL    HW248471   6.469   6.262   4.694
82192SOL     OW48472   2.305  10.253   6.379
82192SOL    HW148473   2.398  10.235   6.367
82192SOL    HW248474   2.282  10.209   6.461
82193SOL     OW48475   5.842  14.483   8.225
82193SOL    HW148476   5.909  14.486   8.292
82193SOL    HW248477   5.881  14.526   8.149
82194SOL     OW48478   6.988  12.480  12.800
82194SOL    HW148479   7.031  12.515  12.878
82194SOL    HW248480   7.059  12.437  12.751
82195SOL     OW48481   3.941   6.024   1.734
82195SOL    HW148482   3.983   5.943   1.707
82195SOL    HW248483   3.953   6.027   1.829
82196SOL     OW48484  13.106   0.628  12.253
82196SOL    HW148485  13.118   0.698  12.317
82196SOL    HW248486  13.175   0.641  12.188
82197SOL     OW48487   2.292   4.547   6.353
82197SOL    HW148488   2.238   4.534   6.431
82197SOL    HW248489   2.232   4.582   6.288
82198SOL     OW48490  13.074  10.850   4.978
82198SOL    HW148491  12.991  10.898   4.975
82198SOL    HW248492  13.140  10.917   4.960
82199SOL     OW48493  13.169   4.573   5.021
82199SOL    HW148494  13.103   4.621   4.972
82199SOL    HW248495  13.127   4.490   5.044
82200SOL     OW48496   1.408   7.900   8.817
82200SOL    HW148497   1.500   7.923   8.806
82200SOL    HW248498   1.360   7.975   8.780
82201SOL     OW48499   3.194  10.526  10.603
82201SOL    HW148500   3.184  10.564  10.691
82201SOL    HW248501   3.156  10.591  10.545
82202SOL     OW48502   0.301   9.656   6.245
82202SOL    HW148503   0.313   9.749   6.267
82202SOL    HW248504   0.211   9.651   6.214
82203SOL     OW48505   8.095  10.891  14.370
82203SOL    HW148506   8.061  10.815  14.417
82203SOL    HW248507   8.136  10.854  14.292
82204SOL     OW48508   9.424  14.740   4.217
82204SOL    HW148509   9.417  14.808   4.285
82204SOL    HW248510   9.446  14.789   4.138
82205SOL     OW48511  11.929   3.306   0.608
82205SOL    HW148512  11.874   3.280   0.682
82205SOL    HW248513  11.917   3.401   0.601
82206SOL     OW48514  11.531  14.542  14.394
82206SOL    HW148515  11.583  14.466  14.419
82206SOL    HW248516  11.441  14.511  14.397
82207SOL     OW48517  14.434   1.803   6.320
82207SOL    HW148518  14.392   1.751   6.252
82207SOL    HW248519  14.514   1.836   6.279
82208SOL     OW48520  11.984   1.876   5.612
82208SOL    HW148521  12.074   1.855   5.585
82208SOL    HW248522  11.932   1.865   5.532
82209SOL     OW48523   8.422   6.132  14.014
82209SOL    HW148524   8.471   6.210  13.988
82209SOL    HW248525   8.470   6.060  13.975
82210SOL     OW48526  13.773   0.270   2.420
82210SOL    HW148527  13.820   0.245   2.499
82210SOL    HW248528  13.704   0.203   2.411
82211SOL     OW48529   6.866   6.370  11.393
82211SOL    HW148530   6.914   6.319  11.458
82211SOL    HW248531   6.803   6.421  11.444
82212SOL     OW48532   1.819   2.513   1.672
82212SOL    HW148533   1.764   2.485   1.746
82212SOL    HW248534   1.780   2.470   1.596
82213SOL     OW48535  13.090  12.382   8.175
82213SOL    HW148536  13.091  12.290   8.150
82213SOL    HW248537  13.156  12.390   8.244
82214SOL     OW48538   8.626   6.613   0.874
82214SOL    HW148539   8.682   6.539   0.852
82214SOL    HW248540   8.558   6.576   0.931
82215SOL     OW48541   6.020   2.789  14.862
82215SOL    HW148542   5.942   2.843   0.008
82215SOL    HW248543   6.087   2.827   0.048
82216SOL     OW48544   3.675   7.271   8.461
82216SOL    HW148545   3.691   7.266   8.366
82216SOL    HW248546   3.742   7.333   8.492
82217SOL     OW48547   1.523   0.931   1.854
82217SOL    HW148548   1.449   0.874   1.878
82217SOL    HW248549   1.486   0.993   1.791
82218SOL     OW48550   8.965  12.482   4.567
82218SOL    HW148551   8.964  12.539   4.491
82218SOL    HW248552   8.886  12.506   4.616
82219SOL     OW48553  12.205  12.112   2.581
82219SOL    HW148554  12.147  12.073   2.515
82219SOL    HW248555  12.293  12.087   2.553
82220SOL     OW48556  11.032  11.796   3.752
82220SOL    HW148557  11.042  11.709   3.788
82220SOL    HW248558  10.951  11.792   3.701
82221SOL     OW48559  14.700   0.132   6.151
82221SOL    HW148560  14.759   0.183   6.206
82221SOL    HW248561  14.620   0.124   6.203
82222SOL     OW48562   4.083   7.432  11.417
82222SOL    HW148563   4.008   7.475  11.457
82222SOL    HW248564   4.112   7.492  11.348
82223SOL     OW48565   9.271   1.580   0.328
82223SOL    HW148566   9.297   1.652   0.271
82223SOL    HW248567   9.221   1.521   0.271
82224SOL     OW48568   6.374   0.448  13.785
82224SOL    HW148569   6.371   0.539  13.815
82224SOL    HW248570   6.393   0.454  13.691
82225SOL     OW48571   8.484  10.386   8.766
82225SOL    HW148572   8.472  10.310   8.710
82225SOL    HW248573   8.512  10.350   8.851
82226SOL     OW48574  14.029   9.411   6.401
82226SOL    HW148575  13.968   9.444   6.335
82226SOL    HW248576  13.997   9.322   6.420
82227SOL     OW48577   8.164   0.921   5.675
82227SOL    HW148578   8.098   0.886   5.615
82227SOL    HW248579   8.119   0.992   5.722
82228SOL     OW48580   5.727  10.463   8.679
82228SOL    HW148581   5.774  10.474   8.597
82228SOL    HW248582   5.793  10.432   8.741
82229SOL     OW48583   3.840  14.639   3.227
82229SOL    HW148584   3.901  14.687   3.284
82229SOL    HW248585   3.825  14.556   3.273
82230SOL     OW48586  12.902   0.673  14.297
82230SOL    HW148587  12.827   0.708  14.346
82230SOL    HW248588  12.867   0.597  14.251
82231SOL     OW48589  11.326   9.120  12.080
82231SOL    HW148590  11.346   9.118  11.986
82231SOL    HW248591  11.348   9.209  12.107
82232SOL     OW48592   8.177   8.094   1.093
82232SOL    HW148593   8.267   8.107   1.065
82232SOL    HW248594   8.184   8.050   1.178
82233SOL     OW48595   8.072   2.825   9.181
82233SOL    HW148596   8.105   2.745   9.222
82233SOL    HW248597   7.980   2.806   9.161
82234SOL     OW48598   5.003  12.075  12.575
82234SOL    HW148599   4.992  12.012  12.646
82234SOL    HW248600   5.087  12.117  12.593
82235SOL     OW48601  12.682   2.057   3.119
82235SOL    HW148602  12.682   2.030   3.211
82235SOL    HW248603  12.632   2.138   3.118
82236SOL     OW48604   0.490  13.294   3.858
82236SOL    HW148605   0.433  13.336   3.922
82236SOL    HW248606   0.462  13.328   3.773
82237SOL     OW48607   8.543   5.993   5.184
82237SOL    HW148608   8.465   6.032   5.144
82237SOL    HW248609   8.552   6.037   5.268
82238SOL     OW48610   0.007   3.236  11.787
82238SOL    HW148611   0.022   3.143  11.804
82238SOL    HW248612   0.036   3.280  11.866
82239SOL     OW48613   1.439   4.653   1.897
82239SOL    HW148614   1.495   4.598   1.842
82239SOL    HW248615   1.462   4.743   1.873
82240SOL     OW48616  12.116   7.279   5.695
82240SOL    HW148617  12.042   7.266   5.636
82240SOL    HW248618  12.120   7.198   5.746
82241SOL     OW48619   2.646   6.062   3.636
82241SOL    HW148620   2.554   6.040   3.649
82241SOL    HW248621   2.647   6.110   3.553
82242SOL     OW48622  14.346  10.078   0.572
82242SOL    HW148623  14.327  10.170   0.556
82242SOL    HW248624  14.438  10.068   0.546
82243SOL     OW48625   9.935  10.594  11.597
82243SOL    HW148626   9.915  10.547  11.517
82243SOL    HW248627  10.012  10.647  11.576
82244SOL     OW48628   7.409  14.359   8.001
82244SOL    HW148629   7.408  14.273   8.042
82244SOL    HW248630   7.431  14.341   7.910
82245SOL     OW48631   0.608  10.427  10.220
82245SOL    HW148632   0.581  10.381  10.299
82245SOL    HW248633   0.669  10.367  10.177
82246SOL     OW48634  14.056  13.697  10.479
82246SOL    HW148635  14.123  13.648  10.527
82246SOL    HW248636  13.976  13.687  10.531
82247SOL     OW48637  10.414   6.056   3.605
82247SOL    HW148638  10.485   6.118   3.618
82247SOL    HW248639  10.373   6.047   3.692
82248SOL     OW48640  11.775   5.970   1.683
82248SOL    HW148641  11.792   6.052   1.636
82248SOL    HW248642  11.808   5.987   1.772
82249SOL     OW48643  10.452   1.139  10.100
82249SOL    HW148644  10.400   1.185  10.165
82249SOL    HW248645  10.511   1.084  10.150
82250SOL     OW48646   7.148  10.312  14.224
82250SOL    HW148647   7.143  10.392  14.276
82250SOL    HW248648   7.095  10.248  14.273
82251SOL     OW48649   5.460   0.714   9.534
82251SOL    HW148650   5.370   0.743   9.549
82251SOL    HW248651   5.455   0.660   9.455
82252SOL     OW48652  10.543  10.679   9.889
82252SOL    HW148653  10.491  10.668   9.968
82252SOL    HW248654  10.509  10.615   9.828
82253SOL     OW48655   3.624  13.970  12.345
82253SOL    HW148656   3.585  13.972  12.257
82253SOL    HW248657   3.558  14.009  12.402
82254SOL     OW48658   8.808  11.124   1.151
82254SOL    HW148659   8.808  11.213   1.115
82254SOL    HW248660   8.892  11.088   1.125
82255SOL     OW48661  12.255  13.947  12.411
82255SOL    HW148662  12.206  13.945  12.493
82255SOL    HW248663  12.213  13.881  12.356
82256SOL     OW48664   7.097   7.016  12.599
82256SOL    HW148665   7.041   7.090  12.618
82256SOL    HW248666   7.046   6.939  12.625
82257SOL     OW48667  12.960   1.194   2.739
82257SOL    HW148668  12.884   1.137   2.732
82257SOL    HW248669  12.958   1.246   2.658
82258SOL     OW48670   4.181   6.227   5.355
82258SOL    HW148671   4.193   6.267   5.442
82258SOL    HW248672   4.257   6.257   5.305
82259SOL     OW48673   0.054  14.294  11.057
82259SOL    HW148674   0.122  14.348  11.018
82259SOL    HW248675  14.852  14.355  11.075
82260SOL     OW48676   7.810   9.613   1.620
82260SOL    HW148677   7.864   9.692   1.613
82260SOL    HW248678   7.856   9.549   1.566
82261SOL     OW48679   0.141   4.475  14.207
82261SOL    HW148680   0.197   4.404  14.239
82261SOL    HW248681   0.199   4.529  14.152
82262SOL     OW48682   0.756   0.075   8.859
82262SOL    HW148683   0.821   0.102   8.925
82262SOL    HW248684   0.805   0.075   8.777
82263SOL     OW48685  10.048   8.609   2.604
82263SOL    HW148686   9.999   8.527   2.593
82263SOL    HW248687   9.981   8.677   2.606
82264SOL     OW48688  10.468  13.807   9.329
82264SOL    HW148689  10.493  13.883   9.382
82264SOL    HW248690  10.452  13.843   9.242
82265SOL     OW48691   5.484   4.484   1.672
82265SOL    HW148692   5.519   4.518   1.755
82265SOL    HW248693   5.463   4.392   1.691
82266SOL     OW48694  11.519   9.111   8.691
82266SOL    HW148695  11.602   9.072   8.663
82266SOL    HW248696  11.490   9.056   8.764
82267SOL     OW48697   9.335   3.933   1.746
82267SOL    HW148698   9.262   3.985   1.713
82267SOL    HW248699   9.314   3.915   1.837
82268SOL     OW48700  14.736  11.821   8.845
82268SOL    HW148701  14.672  11.855   8.907
82268SOL    HW248702  14.753  11.893   8.785
82269SOL     OW48703   8.757   1.016   0.039
82269SOL    HW148704   8.820   1.081   0.070
82269SOL    HW248705   8.721   1.054  14.828
82270SOL     OW48706  11.021   5.764   4.437
82270SOL    HW148707  11.027   5.853   4.472
82270SOL    HW248708  11.034   5.707   4.513
82271SOL     OW48709  13.683   2.951   2.231
82271SOL    HW148710  13.593   2.926   2.253
82271SOL    HW248711  13.729   2.949   2.314
82272SOL     OW48712  10.239   9.915   9.871
82272SOL    HW148713  10.312   9.861   9.901
82272SOL    HW248714  10.184   9.856   9.820
82273SOL     OW48715   0.012   9.022   0.851
82273SOL    HW148716  14.866   9.059   0.938
82273SOL    HW248717  14.809   8.962   0.837
82274SOL     OW48718  14.272  13.813   4.530
82274SOL    HW148719  14.288  13.743   4.467
82274SOL    HW248720  14.295  13.776   4.615
82275SOL     OW48721   4.424  10.176  10.061
82275SOL    HW148722   4.477  10.097  10.062
82275SOL    HW248723   4.341  10.151  10.103
82276SOL     OW48724   6.807   2.998  13.669
82276SOL    HW148725   6.757   3.036  13.597
82276SOL    HW248726   6.837   2.913  13.635
82277SOL     OW48727  10.768  14.532  10.846
82277SOL    HW148728  10.676  14.516  10.824
82277SOL    HW248729  10.768  14.544  10.941
82278SOL     OW48730   9.542  13.966   8.912
82278SOL    HW148731   9.605  14.018   8.963
82278SOL    HW248732   9.460  13.974   8.960
82279SOL     OW48733  14.520   7.717  11.091
82279SOL    HW148734  14.455   7.748  11.028
82279SOL    HW248735  14.491   7.753  11.175
82280SOL     OW48736  11.218  14.051   7.400
82280SOL    HW148737  11.153  14.054   7.330
82280SOL    HW248738  11.269  13.971   7.381
82281SOL     OW48739   5.218   4.785  14.850
82281SOL    HW148740   5.132   4.812  14.820
82281SOL    HW248741   5.262   4.866   0.004
82282SOL     OW48742  13.584   9.031   7.266
82282SOL    HW148743  13.674   9.000   7.276
82282SOL    HW248744  13.540   8.961   7.219
82283SOL     OW48745   7.352   6.106  13.709
82283SOL    HW148746   7.428   6.156  13.739
82283SOL    HW248747   7.277   6.159  13.736
82284SOL     OW48748  12.384  13.479   6.104
82284SOL    HW148749  12.392  13.489   6.199
82284SOL    HW248750  12.391  13.385   6.088
82285SOL     OW48751  13.940  13.007  13.128
82285SOL    HW148752  13.868  12.944  13.138
82285SOL    HW248753  13.897  13.088  13.102
82286SOL     OW48754   2.841   6.399   9.545
82286SOL    HW148755   2.844   6.372   9.453
82286SOL    HW248756   2.865   6.320   9.594
82287SOL     OW48757   7.370  11.549   0.999
82287SOL    HW148758   7.382  11.461   0.965
82287SOL    HW248759   7.455  11.591   0.986
82288SOL     OW48760   3.321   7.437   6.493
82288SOL    HW148761   3.373   7.469   6.419
82288SOL    HW248762   3.323   7.508   6.556
82289SOL     OW48763   6.623   5.535  11.071
82289SOL    HW148764   6.697   5.538  11.132
82289SOL    HW248765   6.592   5.445  11.075
82290SOL     OW48766   5.878   7.029   2.294
82290SOL    HW148767   5.874   6.985   2.379
82290SOL    HW248768   5.898   7.120   2.315
82291SOL     OW48769  14.229   7.458   0.285
82291SOL    HW148770  14.231   7.466   0.380
82291SOL    HW248771  14.244   7.547   0.252
82292SOL     OW48772   8.444   3.468   4.088
82292SOL    HW148773   8.496   3.531   4.039
82292SOL    HW248774   8.385   3.430   4.023
82293SOL     OW48775   6.938   4.592   4.978
82293SOL    HW148776   6.910   4.633   5.060
82293SOL    HW248777   6.990   4.659   4.934
82294SOL     OW48778  12.090  13.417   2.261
82294SOL    HW148779  12.050  13.355   2.321
82294SOL    HW248780  12.018  13.472   2.230
82295SOL     OW48781  12.864   9.974  13.602
82295SOL    HW148782  12.858   9.918  13.680
82295SOL    HW248783  12.781  10.022  13.601
82296SOL     OW48784   9.218  13.161   6.705
82296SOL    HW148785   9.186  13.099   6.771
82296SOL    HW248786   9.251  13.235   6.756
82297SOL     OW48787   2.728   0.217   5.410
82297SOL    HW148788   2.819   0.191   5.427
82297SOL    HW248789   2.676   0.157   5.463
82298SOL     OW48790  14.824  12.569   6.802
82298SOL    HW148791   0.013  12.641   6.777
82298SOL    HW248792  14.787  12.597   6.886
82299SOL     OW48793   8.360   0.353   3.589
82299SOL    HW148794   8.323   0.369   3.502
82299SOL    HW248795   8.422   0.425   3.602
82300SOL     OW48796  14.258   7.615   2.593
82300SOL    HW148797  14.182   7.557   2.593
82300SOL    HW248798  14.316   7.579   2.660
82301SOL     OW48799   9.208   1.035  13.982
82301SOL    HW148800   9.206   0.940  13.987
82301SOL    HW248801   9.212   1.054  13.889
82302SOL     OW48802  11.856   0.822   2.360
82302SOL    HW148803  11.950   0.816   2.340
82302SOL    HW248804  11.844   0.911   2.393
82303SOL     OW48805   7.917   8.393   7.433
82303SOL    HW148806   7.859   8.385   7.358
82303SOL    HW248807   7.859   8.391   7.509
82304SOL     OW48808   8.962   6.205   6.240
82304SOL    HW148809   9.039   6.175   6.288
82304SOL    HW248810   8.890   6.153   6.275
82305SOL     OW48811   8.577   2.452  13.425
82305SOL    HW148812   8.527   2.371  13.435
82305SOL    HW248813   8.640   2.451  13.498
82306SOL     OW48814   9.423  14.624   2.012
82306SOL    HW148815   9.391  14.688   1.948
82306SOL    HW248816   9.407  14.665   2.097
82307SOL     OW48817   8.680   0.064   6.281
82307SOL    HW148818   8.651   0.066   6.372
82307SOL    HW248819   8.600   0.070   6.230
82308SOL     OW48820  10.173   4.391   8.437
82308SOL    HW148821  10.134   4.467   8.393
82308SOL    HW248822  10.189   4.328   8.367
82309SOL     OW48823  13.514   8.446   1.588
82309SOL    HW148824  13.420   8.465   1.588
82309SOL    HW248825  13.552   8.514   1.644
82310SOL     OW48826   0.264   3.230  12.250
82310SOL    HW148827   0.302   3.145  12.272
82310SOL    HW248828   0.332   3.293  12.274
82311SOL     OW48829   3.243   1.896   1.845
82311SOL    HW148830   3.261   1.957   1.917
82311SOL    HW248831   3.148   1.901   1.834
82312SOL     OW48832   3.352   3.070   7.460
82312SOL    HW148833   3.437   3.025   7.458
82312SOL    HW248834   3.322   3.062   7.550
82313SOL     OW48835   9.619  11.408   9.267
82313SOL    HW148836   9.691  11.425   9.207
82313SOL    HW248837   9.662  11.394   9.352
82314SOL     OW48838   6.840   4.194  13.298
82314SOL    HW148839   6.877   4.211  13.385
82314SOL    HW248840   6.793   4.111  13.307
82315SOL     OW48841  14.614   0.413  11.780
82315SOL    HW148842  14.594   0.500  11.814
82315SOL    HW248843  14.698   0.423  11.735
82316SOL     OW48844   5.224   3.607  10.193
82316SOL    HW148845   5.275   3.545  10.246
82316SOL    HW248846   5.134   3.598  10.226
82317SOL     OW48847  14.303  13.866   0.969
82317SOL    HW148848  14.252  13.877   0.889
82317SOL    HW248849  14.284  13.943   1.022
82318SOL     OW48850  11.687  12.429   9.777
82318SOL    HW148851  11.764  12.398   9.731
82318SOL    HW248852  11.625  12.453   9.708
82319SOL     OW48853  11.369   5.701  14.277
82319SOL    HW148854  11.395   5.630  14.336
82319SOL    HW248855  11.280   5.723  14.304
82320SOL     OW48856   8.414   4.141   7.671
82320SOL    HW148857   8.352   4.148   7.598
82320SOL    HW248858   8.381   4.068   7.723
82321SOL     OW48859   1.488   4.334  11.362
82321SOL    HW148860   1.502   4.414  11.312
82321SOL    HW248861   1.502   4.263  11.299
82322SOL     OW48862  11.466   4.944  14.453
82322SOL    HW148863  11.505   4.907  14.533
82322SOL    HW248864  11.542   4.974  14.402
82323SOL     OW48865  13.083   1.398  10.845
82323SOL    HW148866  13.077   1.471  10.784
82323SOL    HW248867  12.993   1.382  10.873
82324SOL     OW48868   0.032  12.529   0.010
82324SOL    HW148869  14.847  12.450   0.011
82324SOL    HW248870   0.118  12.498  14.849
82325SOL     OW48871   9.790   8.917   7.659
82325SOL    HW148872   9.878   8.929   7.696
82325SOL    HW248873   9.796   8.955   7.571
82326SOL     OW48874  13.112   1.914   3.187
82326SOL    HW148875  13.045   1.846   3.181
82326SOL    HW248876  13.132   1.937   3.096
82327SOL     OW48877  13.745   0.868   8.676
82327SOL    HW148878  13.806   0.879   8.603
82327SOL    HW248879  13.701   0.784   8.658
82328SOL     OW48880   9.636   4.511   9.326
82328SOL    HW148881   9.555   4.498   9.276
82328SOL    HW248882   9.623   4.459   9.406
82329SOL     OW48883   0.148   1.820   4.366
82329SOL    HW148884   0.239   1.850   4.368
82329SOL    HW248885   0.124   1.810   4.458
82330SOL     OW48886  10.692   4.482  14.563
82330SOL    HW148887  10.779   4.474  14.602
82330SOL    HW248888  10.659   4.393  14.558
82331SOL     OW48889   3.690   3.006   2.169
82331SOL    HW148890   3.748   3.070   2.210
82331SOL    HW248891   3.726   2.921   2.194
82332SOL     OW48892   0.098   8.688   4.809
82332SOL    HW148893   0.122   8.620   4.872
82332SOL    HW248894   0.003   8.684   4.805
82333SOL     OW48895   9.386  13.054  10.056
82333SOL    HW148896   9.462  13.024  10.106
82333SOL    HW248897   9.352  12.975  10.013
82334SOL     OW48898  14.084   0.487   3.786
82334SOL    HW148899  14.130   0.568   3.763
82334SOL    HW248900  14.097   0.479   3.881
82335SOL     OW48901   1.634   6.662   1.204
82335SOL    HW148902   1.592   6.618   1.278
82335SOL    HW248903   1.721   6.621   1.198
82336SOL     OW48904   6.178  10.498   1.526
82336SOL    HW148905   6.224  10.574   1.491
82336SOL    HW248906   6.149  10.449   1.449
82337SOL     OW48907   0.240  13.655  13.127
82337SOL    HW148908   0.229  13.750  13.135
82337SOL    HW248909   0.308  13.645  13.060
82338SOL     OW48910   7.657  13.159   7.144
82338SOL    HW148911   7.591  13.115   7.090
82338SOL    HW248912   7.618  13.163   7.232
82339SOL     OW48913  11.314   1.423   0.071
82339SOL    HW148914  11.229   1.456   0.040
82339SOL    HW248915  11.293   1.339   0.111
82340SOL     OW48916   0.308   5.902  10.586
82340SOL    HW148917   0.402   5.894  10.600
82340SOL    HW248918   0.290   5.845  10.512
82341SOL     OW48919   2.079   5.487  13.928
82341SOL    HW148920   2.124   5.568  13.955
82341SOL    HW248921   2.009   5.518  13.870
82342SOL     OW48922   2.634  10.316   5.603
82342SOL    HW148923   2.665  10.333   5.691
82342SOL    HW248924   2.622  10.403   5.564
82343SOL     OW48925   0.359   3.734   6.520
82343SOL    HW148926   0.356   3.763   6.428
82343SOL    HW248927   0.394   3.645   6.515
82344SOL     OW48928   2.250   2.233   7.769
82344SOL    HW148929   2.281   2.311   7.723
82344SOL    HW248930   2.157   2.250   7.786
82345SOL     OW48931   0.143   3.180   1.666
82345SOL    HW148932   0.185   3.198   1.750
82345SOL    HW248933   0.060   3.229   1.669
82346SOL     OW48934   3.295  11.719   1.638
82346SOL    HW148935   3.289  11.637   1.686
82346SOL    HW248936   3.332  11.781   1.702
82347SOL     OW48937   1.905   5.648   5.394
82347SOL    HW148938   1.817   5.677   5.418
82347SOL    HW248939   1.900   5.630   5.300
82348SOL     OW48940  13.179  12.888  14.392
82348SOL    HW148941  13.183  12.983  14.406
82348SOL    HW248942  13.261  12.866  14.350
82349SOL     OW48943   5.442  13.346  11.468
82349SOL    HW148944   5.378  13.411  11.438
82349SOL    HW248945   5.485  13.316  11.389
82350SOL     OW48946   0.905   6.374   9.658
82350SOL    HW148947   0.975   6.380   9.592
82350SOL    HW248948   0.952   6.367   9.741
82351SOL     OW48949  12.370   2.193  12.344
82351SOL    HW148950  12.344   2.155  12.260
82351SOL    HW248951  12.446   2.247  12.322
82352SOL     OW48952   2.524   5.533   2.796
82352SOL    HW148953   2.604   5.531   2.744
82352SOL    HW248954   2.455   5.559   2.735
82353SOL     OW48955  14.688   3.750  13.239
82353SOL    HW148956  14.678   3.829  13.186
82353SOL    HW248957  14.783   3.737  13.243
82354SOL     OW48958  13.242   7.119  14.265
82354SOL    HW148959  13.219   7.156  14.350
82354SOL    HW248960  13.279   7.033  14.286
82355SOL     OW48961  10.910   4.244  13.281
82355SOL    HW148962  10.986   4.187  13.274
82355SOL    HW248963  10.920   4.287  13.367
82356SOL     OW48964  12.358  11.389  13.601
82356SOL    HW148965  12.377  11.350  13.686
82356SOL    HW248966  12.264  11.409  13.605
82357SOL     OW48967   9.744   0.917   6.258
82357SOL    HW148968   9.806   0.966   6.312
82357SOL    HW248969   9.744   0.963   6.174
82358SOL     OW48970   4.326  11.482   5.664
82358SOL    HW148971   4.263  11.487   5.736
82358SOL    HW248972   4.410  11.506   5.704
82359SOL     OW48973   9.713   6.643  11.779
82359SOL    HW148974   9.734   6.672  11.868
82359SOL    HW248975   9.680   6.553  11.791
82360SOL     OW48976   4.120   8.745  11.122
82360SOL    HW148977   4.196   8.779  11.168
82360SOL    HW248978   4.111   8.655  11.153
82361SOL     OW48979   4.417   9.265  14.749
82361SOL    HW148980   4.406   9.316  14.829
82361SOL    HW248981   4.499   9.217  14.763
82362SOL     OW48982   2.913   9.355  11.926
82362SOL    HW148983   2.851   9.299  11.879
82362SOL    HW248984   2.858   9.420  11.970
82363SOL     OW48985   6.646  11.151  13.511
82363SOL    HW148986   6.568  11.208  13.511
82363SOL    HW248987   6.705  11.192  13.574
82364SOL     OW48988  11.389   8.884   3.286
82364SOL    HW148989  11.343   8.966   3.302
82364SOL    HW248990  11.319   8.820   3.271
82365SOL     OW48991  10.679   6.250   7.480
82365SOL    HW148992  10.700   6.241   7.573
82365SOL    HW248993  10.616   6.322   7.477
82366SOL     OW48994   1.713   8.561  12.605
82366SOL    HW148995   1.685   8.633  12.548
82366SOL    HW248996   1.754   8.498  12.546
82367SOL     OW48997  13.191  14.495  10.956
82367SOL    HW148998  13.270  14.509  10.904
82367SOL    HW248999  13.153  14.582  10.966
82368SOL     OW49000   3.795  12.754  11.809
82368SOL    HW149001   3.820  12.702  11.732
82368SOL    HW249002   3.849  12.832  11.803
82369SOL     OW49003   2.441   5.006   0.229
82369SOL    HW149004   2.520   5.059   0.233
82369SOL    HW249005   2.387   5.047   0.162
82370SOL     OW49006   2.922  12.528   3.351
82370SOL    HW149007   2.850  12.473   3.383
82370SOL    HW249008   2.965  12.559   3.431
82371SOL     OW49009   2.650   5.493   2.509
82371SOL    HW149010   2.741   5.523   2.508
82371SOL    HW249011   2.600   5.566   2.473
82372SOL     OW49012   8.572   2.168   3.540
82372SOL    HW149013   8.510   2.206   3.602
82372SOL    HW249014   8.620   2.242   3.504
82373SOL     OW49015   2.326   8.628   6.172
82373SOL    HW149016   2.419   8.638   6.191
82373SOL    HW249017   2.281   8.672   6.244
82374SOL     OW49018   8.256   8.337   1.710
82374SOL    HW149019   8.323   8.405   1.707
82374SOL    HW249020   8.196   8.360   1.639
82375SOL     OW49021   2.150  14.042  12.775
82375SOL    HW149022   2.166  14.083  12.860
82375SOL    HW249023   2.213  13.971  12.770
82376SOL     OW49024   8.468   2.431   8.236
82376SOL    HW149025   8.467   2.336   8.223
82376SOL    HW249026   8.404   2.447   8.305
82377SOL     OW49027   0.363  12.419  12.689
82377SOL    HW149028   0.299  12.375  12.633
82377SOL    HW249029   0.368  12.366  12.768
82378SOL     OW49030   5.366  13.597   3.556
82378SOL    HW149031   5.319  13.676   3.528
82378SOL    HW249032   5.336  13.529   3.496
82379SOL     OW49033   1.998   0.133   9.827
82379SOL    HW149034   2.091   0.121   9.844
82379SOL    HW249035   1.965   0.046   9.806
82380SOL     OW49036   5.736  10.656   9.732
82380SOL    HW149037   5.660  10.707   9.704
82380SOL    HW249038   5.717  10.567   9.704
82381SOL     OW49039  10.099   5.049   7.770
82381SOL    HW149040  10.008   5.077   7.780
82381SOL    HW249041  10.139   5.115   7.715
82382SOL     OW49042   9.434  11.680   9.205
82382SOL    HW149043   9.393  11.761   9.236
82382SOL    HW249044   9.368  11.613   9.220
82383SOL     OW49045   2.999   3.433  14.202
82383SOL    HW149046   2.972   3.342  14.193
82383SOL    HW249047   2.931   3.483  14.157
82384SOL     OW49048   8.917   6.124   3.092
82384SOL    HW149049   8.954   6.212   3.094
82384SOL    HW249050   8.991   6.067   3.115
82385SOL     OW49051   1.326  13.682  10.814
82385SOL    HW149052   1.395  13.636  10.766
82385SOL    HW249053   1.244  13.645  10.779
82386SOL     OW49054  14.595   8.698   8.863
82386SOL    HW149055  14.557   8.747   8.935
82386SOL    HW249056  14.542   8.723   8.787
82387SOL     OW49057   5.463  12.645   2.794
82387SOL    HW149058   5.441  12.558   2.759
82387SOL    HW249059   5.423  12.706   2.733
82388SOL     OW49060   1.952  10.761   5.178
82388SOL    HW149061   2.047  10.757   5.172
82388SOL    HW249062   1.932  10.740   5.269
82389SOL     OW49063   6.977  10.928   9.203
82389SOL    HW149064   6.949  11.016   9.176
82389SOL    HW249065   7.056  10.912   9.152
82390SOL     OW49066  10.551   7.451   2.625
82390SOL    HW149067  10.633   7.455   2.576
82390SOL    HW249068  10.513   7.539   2.617
82391SOL     OW49069  12.153   4.550   6.139
82391SOL    HW149070  12.165   4.473   6.194
82391SOL    HW249071  12.069   4.587   6.168
82392SOL     OW49072   2.471   2.030   7.396
82392SOL    HW149073   2.528   2.013   7.321
82392SOL    HW249074   2.384   2.004   7.366
82393SOL     OW49075  11.028   7.642  12.992
82393SOL    HW149076  11.027   7.686  12.907
82393SOL    HW249077  11.097   7.577  12.986
82394SOL     OW49078   9.659   3.355   9.553
82394SOL    HW149079   9.743   3.364   9.599
82394SOL    HW249080   9.659   3.266   9.520
82395SOL     OW49081   6.464   0.765  12.875
82395SOL    HW149082   6.482   0.724  12.790
82395SOL    HW249083   6.396   0.830  12.855
82396SOL     OW49084  12.939   5.929   8.384
82396SOL    HW149085  12.865   5.987   8.400
82396SOL    HW249086  12.927   5.857   8.447
82397SOL     OW49087   8.955   2.372   8.730
82397SOL    HW149088   8.908   2.299   8.770
82397SOL    HW249089   8.891   2.442   8.724
82398SOL     OW49090   9.481   7.134   2.655
82398SOL    HW149091   9.482   7.229   2.655
82398SOL    HW249092   9.389   7.111   2.646
82399SOL     OW49093   3.690  13.851  13.798
82399SOL    HW149094   3.658  13.799  13.872
82399SOL    HW249095   3.770  13.893  13.831
82400SOL     OW49096   0.953   4.688   2.459
82400SOL    HW149097   1.013   4.762   2.465
82400SOL    HW249098   1.003   4.614   2.495
82401SOL     OW49099   8.311   4.267   1.529
82401SOL    HW149100   8.225   4.231   1.549
82401SOL    HW249101   8.341   4.218   1.453
82402SOL     OW49102   8.971   2.443  14.224
82402SOL    HW149103   8.924   2.523  14.247
82402SOL    HW249104   9.060   2.472  14.206
82403SOL     OW49105   9.796   9.228   3.376
82403SOL    HW149106   9.760   9.140   3.374
82403SOL    HW249107   9.793   9.254   3.468
82404SOL     OW49108  11.314   2.080   1.302
82404SOL    HW149109  11.390   2.118   1.345
82404SOL    HW249110  11.286   2.145   1.239
82405SOL     OW49111  10.279   1.180   4.424
82405SOL    HW149112  10.222   1.205   4.497
82405SOL    HW249113  10.272   1.253   4.362
82406SOL     OW49114   1.816   1.130  13.942
82406SOL    HW149115   1.754   1.057  13.950
82406SOL    HW249116   1.870   1.123  14.021
82407SOL     OW49117  13.120  13.426   9.133
82407SOL    HW149118  13.162  13.379   9.204
82407SOL    HW249119  13.183  13.494   9.108
82408SOL     OW49120   2.959  13.122   8.891
82408SOL    HW149121   3.031  13.165   8.937
82408SOL    HW249122   2.997  13.098   8.806
82409SOL     OW49123   7.017   8.684   2.516
82409SOL    HW149124   7.053   8.728   2.593
82409SOL    HW249125   6.947   8.742   2.486
82410SOL     OW49126  14.116   5.174   3.512
82410SOL    HW149127  14.182   5.192   3.579
82410SOL    HW249128  14.157   5.109   3.455
82411SOL     OW49129  10.799  12.035   9.417
82411SOL    HW149130  10.788  12.046   9.511
82411SOL    HW249131  10.741  11.962   9.395
82412SOL     OW49132  12.086   9.430   9.468
82412SOL    HW149133  12.078   9.388   9.382
82412SOL    HW249134  12.062   9.521   9.454
82413SOL     OW49135  10.993   7.177  14.424
82413SOL    HW149136  10.966   7.245  14.484
82413SOL    HW249137  10.970   7.210  14.337
82414SOL     OW49138   4.070  12.123  14.095
82414SOL    HW149139   4.120  12.202  14.074
82414SOL    HW249140   4.013  12.109  14.019
82415SOL     OW49141  10.261  11.761  10.368
82415SOL    HW149142  10.251  11.670  10.395
82415SOL    HW249143  10.179  11.803  10.392
82416SOL     OW49144  13.700   2.968  12.489
82416SOL    HW149145  13.611   2.999  12.469
82416SOL    HW249146  13.715   2.997  12.579
82417SOL     OW49147  12.946   9.151   5.239
82417SOL    HW149148  12.997   9.170   5.160
82417SOL    HW249149  12.930   9.237   5.278
82418SOL     OW49150   9.445   1.312   9.101
82418SOL    HW149151   9.417   1.283   9.188
82418SOL    HW249152   9.371   1.362   9.068
82419SOL     OW49153   3.849   1.002   2.418
82419SOL    HW149154   3.763   1.037   2.394
82419SOL    HW249155   3.865   0.932   2.353
82420SOL     OW49156   7.325   4.894   1.936
82420SOL    HW149157   7.299   4.816   1.888
82420SOL    HW249158   7.393   4.934   1.883
82421SOL     OW49159   9.142   5.279  14.869
82421SOL    HW149160   9.078   5.259  14.801
82421SOL    HW249161   9.194   5.198   0.007
82422SOL     OW49162  11.372  10.842   8.273
82422SOL    HW149163  11.386  10.830   8.179
82422SOL    HW249164  11.459  10.837   8.311
82423SOL     OW49165   6.033   4.401   0.100
82423SOL    HW149166   6.096   4.466   0.131
82423SOL    HW249167   6.061   4.381   0.011
82424SOL     OW49168  14.531  12.747  10.175
82424SOL    HW149169  14.589  12.762  10.251
82424SOL    HW249170  14.500  12.835  10.152
82425SOL     OW49171  14.032   9.568   7.319
82425SOL    HW149172  13.948   9.551   7.363
82425SOL    HW249173  14.096   9.572   7.390
82426SOL     OW49174  11.563   6.818   7.552
82426SOL    HW149175  11.646   6.808   7.505
82426SOL    HW249176  11.577   6.894   7.608
82427SOL     OW49177   1.046   9.604   2.778
82427SOL    HW149178   1.060   9.589   2.871
82427SOL    HW249179   1.094   9.533   2.735
82428SOL     OW49180   6.390   9.031   5.749
82428SOL    HW149181   6.330   9.098   5.715
82428SOL    HW249182   6.472   9.077   5.762
82429SOL     OW49183   6.184  12.066   6.236
82429SOL    HW149184   6.243  11.991   6.230
82429SOL    HW249185   6.219  12.130   6.174
82430SOL     OW49186   9.126   4.652   4.936
82430SOL    HW149187   9.161   4.668   4.849
82430SOL    HW249188   9.185   4.698   4.995
82431SOL     OW49189   4.608   2.134   4.838
82431SOL    HW149190   4.523   2.136   4.882
82431SOL    HW249191   4.609   2.050   4.792
82432SOL     OW49192  14.837   8.671   4.202
82432SOL    HW149193  14.857   8.674   4.109
82432SOL    HW249194  14.859   8.581   4.228
82433SOL     OW49195  14.606   8.381   1.416
82433SOL    HW149196  14.637   8.357   1.328
82433SOL    HW249197  14.636   8.310   1.472
82434SOL     OW49198   4.762   7.474   0.803
82434SOL    HW149199   4.702   7.502   0.734
82434SOL    HW249200   4.708   7.424   0.863
82435SOL     OW49201  14.851   8.556   8.522
82435SOL    HW149202   0.006   8.523   8.435
82435SOL    HW249203   0.022   8.642   8.526
82436SOL     OW49204   5.628   4.661  11.601
82436SOL    HW149205   5.573   4.728  11.561
82436SOL    HW249206   5.706   4.658  11.546
82437SOL     OW49207   7.507   7.721   8.813
82437SOL    HW149208   7.470   7.794   8.862
82437SOL    HW249209   7.432   7.663   8.797
82438SOL     OW49210  12.844   4.946   7.042
82438SOL    HW149211  12.900   4.877   7.077
82438SOL    HW249212  12.756   4.908   7.042
82439SOL     OW49213   3.317   6.923   7.963
82439SOL    HW149214   3.361   6.900   7.881
82439SOL    HW249215   3.357   7.005   7.990
82440SOL     OW49216   3.334   2.998   4.987
82440SOL    HW149217   3.385   2.992   5.068
82440SOL    HW249218   3.364   3.080   4.946
82441SOL     OW49219  12.827   1.518  10.209
82441SOL    HW149220  12.768   1.590  10.186
82441SOL    HW249221  12.875   1.500  10.129
82442SOL     OW49222   5.805   0.102  12.885
82442SOL    HW149223   5.768   0.021  12.851
82442SOL    HW249224   5.891   0.108  12.845
82443SOL     OW49225   4.618   7.522   1.478
82443SOL    HW149226   4.665   7.586   1.532
82443SOL    HW249227   4.631   7.439   1.523
82444SOL     OW49228   3.608   8.076   8.902
82444SOL    HW149229   3.578   8.166   8.912
82444SOL    HW249230   3.701   8.079   8.920
82445SOL     OW49231   5.478   3.781  13.682
82445SOL    HW149232   5.397   3.785  13.631
82445SOL    HW249233   5.458   3.828  13.763
82446SOL     OW49234   1.429   8.623   9.801
82446SOL    HW149235   1.369   8.696   9.815
82446SOL    HW249236   1.492   8.629   9.873
82447SOL     OW49237   5.061  13.531  12.045
82447SOL    HW149238   5.149  13.514  12.079
82447SOL    HW249239   5.054  13.627  12.045
82448SOL     OW49240   0.971  12.276   7.952
82448SOL    HW149241   1.040  12.282   7.886
82448SOL    HW249242   0.960  12.182   7.967
82449SOL     OW49243  10.550   4.293   9.844
82449SOL    HW149244  10.631   4.344   9.835
82449SOL    HW249245  10.502   4.336   9.915
82450SOL     OW49246   6.494  11.008  13.303
82450SOL    HW149247   6.543  10.932  13.272
82450SOL    HW249248   6.515  11.015  13.396
82451SOL     OW49249   2.305  14.278   6.526
82451SOL    HW149250   2.270  14.295   6.438
82451SOL    HW249251   2.327  14.366   6.559
82452SOL     OW49252  10.201   8.130   0.649
82452SOL    HW149253  10.249   8.058   0.607
82452SOL    HW249254  10.268   8.177   0.700
82453SOL     OW49255  12.516   0.234   9.715
82453SOL    HW149256  12.473   0.217   9.798
82453SOL    HW249257  12.494   0.159   9.660
82454SOL     OW49258  13.251  10.770   1.339
82454SOL    HW149259  13.217  10.710   1.272
82454SOL    HW249260  13.248  10.856   1.298
82455SOL     OW49261  12.686  11.998   8.070
82455SOL    HW149262  12.669  11.967   7.981
82455SOL    HW249263  12.640  11.936   8.127
82456SOL     OW49264   6.656  14.129   6.924
82456SOL    HW149265   6.626  14.101   7.010
82456SOL    HW249266   6.744  14.092   6.916
82457SOL     OW49267  10.028   7.931   5.772
82457SOL    HW149268  10.006   8.023   5.760
82457SOL    HW249269  10.058   7.925   5.862
82458SOL     OW49270   2.406  12.454   8.550
82458SOL    HW149271   2.491  12.414   8.536
82458SOL    HW249272   2.407  12.533   8.496
82459SOL     OW49273  13.229   4.850   4.653
82459SOL    HW149274  13.169   4.822   4.583
82459SOL    HW249275  13.184   4.826   4.734
82460SOL     OW49276   1.125   7.986  13.046
82460SOL    HW149277   1.199   7.998  13.106
82460SOL    HW249278   1.078   7.910  13.080
82461SOL     OW49279  11.530   3.829  10.923
82461SOL    HW149280  11.557   3.920  10.940
82461SOL    HW249281  11.606   3.789  10.880
82462SOL     OW49282  12.932   6.750   3.025
82462SOL    HW149283  12.926   6.655   3.019
82462SOL    HW249284  13.015   6.766   3.071
82463SOL     OW49285   5.027   9.818   1.900
82463SOL    HW149286   5.031   9.755   1.972
82463SOL    HW249287   5.005   9.765   1.824
82464SOL     OW49288   7.861  11.198   3.206
82464SOL    HW149289   7.808  11.267   3.166
82464SOL    HW249290   7.810  11.170   3.282
82465SOL     OW49291   8.949   9.136   6.315
82465SOL    HW149292   8.984   9.047   6.311
82465SOL    HW249293   9.026   9.192   6.307
82466SOL     OW49294   7.774   9.558  10.975
82466SOL    HW149295   7.815   9.562  10.889
82466SOL    HW249296   7.750   9.649  10.994
82467SOL     OW49297  14.212   7.718   4.575
82467SOL    HW149298  14.189   7.678   4.491
82467SOL    HW249299  14.237   7.643   4.630
82468SOL     OW49300   9.696   5.679   3.607
82468SOL    HW149301   9.729   5.591   3.589
82468SOL    HW249302   9.641   5.669   3.685
82469SOL     OW49303   3.617   2.110   1.786
82469SOL    HW149304   3.698   2.066   1.813
82469SOL    HW249305   3.559   2.099   1.861
82470SOL     OW49306  12.911   6.917   0.960
82470SOL    HW149307  12.955   6.908   0.876
82470SOL    HW249308  12.967   6.975   1.011
82471SOL     OW49309   2.183   1.277   9.959
82471SOL    HW149310   2.162   1.361   9.999
82471SOL    HW249311   2.184   1.215  10.032
82472SOL     OW49312  11.907   7.202   5.543
82472SOL    HW149313  11.941   7.153   5.467
82472SOL    HW249314  11.816   7.221   5.521
82473SOL     OW49315   7.756  13.436  14.701
82473SOL    HW149316   7.782  13.357  14.654
82473SOL    HW249317   7.839  13.477  14.728
82474SOL     OW49318  11.136   8.302   1.643
82474SOL    HW149319  11.042   8.309   1.628
82474SOL    HW249320  11.164   8.392   1.662
82475SOL     OW49321  14.782   7.544   4.857
82475SOL    HW149322  14.691   7.533   4.884
82475SOL    HW249323  14.778   7.606   4.784
82476SOL     OW49324   6.224   3.708   0.068
82476SOL    HW149325   6.211   3.639   0.002
82476SOL    HW249326   6.248   3.785   0.017
82477SOL     OW49327   7.268   7.582   3.030
82477SOL    HW149328   7.242   7.609   2.942
82477SOL    HW249329   7.329   7.510   3.017
82478SOL     OW49330   5.487   3.615   3.537
82478SOL    HW149331   5.396   3.585   3.527
82478SOL    HW249332   5.523   3.611   3.449
82479SOL     OW49333  12.973   0.775   7.508
82479SOL    HW149334  12.926   0.796   7.589
82479SOL    HW249335  13.065   0.773   7.534
82480SOL     OW49336   8.449  11.206  13.323
82480SOL    HW149337   8.487  11.123  13.352
82480SOL    HW249338   8.466  11.266  13.396
82481SOL     OW49339  11.169   0.370   5.521
82481SOL    HW149340  11.112   0.446   5.510
82481SOL    HW249341  11.207   0.381   5.608
82482SOL     OW49342   7.426  12.530  10.987
82482SOL    HW149343   7.451  12.444  11.021
82482SOL    HW249344   7.457  12.530  10.897
82483SOL     OW49345  11.259   4.576   9.697
82483SOL    HW149346  11.219   4.507   9.644
82483SOL    HW249347  11.226   4.657   9.659
82484SOL     OW49348  11.371   9.222   0.789
82484SOL    HW149349  11.362   9.230   0.884
82484SOL    HW249350  11.368   9.312   0.757
82485SOL     OW49351   6.510  14.213  14.073
82485SOL    HW149352   6.551  14.169  14.148
82485SOL    HW249353   6.515  14.150  14.002
82486SOL     OW49354  12.081  13.995   6.610
82486SOL    HW149355  11.989  13.971   6.618
82486SOL    HW249356  12.084  14.057   6.537
82487SOL     OW49357   6.425   0.895   4.614
82487SOL    HW149358   6.348   0.839   4.609
82487SOL    HW249359   6.389   0.983   4.626
82488SOL     OW49360   6.901   4.809   5.554
82488SOL    HW149361   6.811   4.820   5.584
82488SOL    HW249362   6.901   4.848   5.466
82489SOL     OW49363  14.537   2.024  10.454
82489SOL    HW149364  14.601   2.048  10.387
82489SOL    HW249365  14.577   2.053  10.536
82490SOL     OW49366   4.154   3.956   1.762
82490SOL    HW149367   4.180   3.864   1.754
82490SOL    HW249368   4.100   3.959   1.841
82491SOL     OW49369   3.983   8.941   5.590
82491SOL    HW149370   3.972   8.958   5.684
82491SOL    HW249371   3.915   8.878   5.568
82492SOL     OW49372   5.658  14.717  11.154
82492SOL    HW149373   5.568  14.711  11.188
82492SOL    HW249374   5.710  14.663  11.214
82493SOL     OW49375  11.113   1.331  10.556
82493SOL    HW149376  11.032   1.315  10.605
82493SOL    HW249377  11.149   1.244  10.540
82494SOL     OW49378   5.131  13.515   0.282
82494SOL    HW149379   5.225  13.536   0.284
82494SOL    HW249380   5.118  13.459   0.359
82495SOL     OW49381  13.516  11.790   0.712
82495SOL    HW149382  13.484  11.708   0.675
82495SOL    HW249383  13.599  11.766   0.754
82496SOL     OW49384   2.927   9.286   5.868
82496SOL    HW149385   3.016   9.270   5.837
82496SOL    HW249386   2.939   9.340   5.946
82497SOL     OW49387  10.114   0.545   8.046
82497SOL    HW149388  10.059   0.563   7.970
82497SOL    HW249389  10.180   0.614   8.045
82498SOL     OW49390   4.750   8.834   9.500
82498SOL    HW149391   4.810   8.901   9.535
82498SOL    HW249392   4.725   8.867   9.414
82499SOL     OW49393  11.183  14.500  13.726
82499SOL    HW149394  11.158  14.561  13.795
82499SOL    HW249395  11.106  14.496  13.669
82500SOL     OW49396  13.779   5.136   0.006
82500SOL    HW149397  13.750   5.228   0.013
82500SOL    HW249398  13.705   5.091  14.835
82501SOL     OW49399  12.956   4.880  13.182
82501SOL    HW149400  12.915   4.870  13.096
82501SOL    HW249401  13.040   4.921  13.163
82502SOL     OW49402   8.674   5.684   7.827
82502SOL    HW149403   8.673   5.730   7.743
82502SOL    HW249404   8.706   5.749   7.890
82503SOL     OW49405   9.615   2.109  10.651
82503SOL    HW149406   9.645   2.021  10.673
82503SOL    HW249407   9.696   2.160  10.641
82504SOL     OW49408  13.527   0.024   7.175
82504SOL    HW149409  13.546  14.843   7.254
82504SOL    HW249410  13.557  14.838   7.103
82505SOL     OW49411  13.743  12.094   0.195
82505SOL    HW149412  13.696  12.021   0.236
82505SOL    HW249413  13.835  12.071   0.202
82506SOL     OW49414  11.399   4.788   8.961
82506SOL    HW149415  11.373   4.825   8.876
82506SOL    HW249416  11.470   4.845   8.990
82507SOL     OW49417  14.623   3.945  10.077
82507SOL    HW149418  14.653   3.910   9.993
82507SOL    HW249419  14.662   3.886  10.142
82508SOL     OW49420   5.703  11.809   1.154
82508SOL    HW149421   5.658  11.726   1.169
82508SOL    HW249422   5.658  11.848   1.079
82509SOL     OW49423  13.737   6.143  14.109
82509SOL    HW149424  13.728   6.078  14.039
82509SOL    HW249425  13.745   6.227  14.062
82510SOL     OW49426   7.976  12.299   9.333
82510SOL    HW149427   7.955  12.297   9.426
82510SOL    HW249428   8.026  12.218   9.318
82511SOL     OW49429  13.062   4.486  10.984
82511SOL    HW149430  13.087   4.547  11.054
82511SOL    HW249431  12.974   4.515  10.958
82512SOL     OW49432   9.397  12.371   7.133
82512SOL    HW149433   9.421  12.455   7.094
82512SOL    HW249434   9.398  12.387   7.228
82513SOL     OW49435  11.285   8.784   8.174
82513SOL    HW149436  11.267   8.713   8.112
82513SOL    HW249437  11.378   8.802   8.163
82514SOL     OW49438  12.226   1.215  13.187
82514SOL    HW149439  12.163   1.174  13.127
82514SOL    HW249440  12.230   1.306  13.157
82515SOL     OW49441  14.784   9.646   1.134
82515SOL    HW149442  14.812   9.708   1.202
82515SOL    HW249443  14.788   9.560   1.176
82516SOL     OW49444   5.547  14.701   8.466
82516SOL    HW149445   5.504  14.618   8.445
82516SOL    HW249446   5.491  14.740   8.533
82517SOL     OW49447   5.523   1.300   4.137
82517SOL    HW149448   5.599   1.242   4.133
82517SOL    HW249449   5.527   1.339   4.224
82518SOL     OW49450  13.511   7.896   8.030
82518SOL    HW149451  13.480   7.897   8.120
82518SOL    HW249452  13.474   7.816   7.992
82519SOL     OW49453  12.116  12.210  14.773
82519SOL    HW149454  12.048  12.143  14.778
82519SOL    HW249455  12.083  12.273  14.709
82520SOL     OW49456   8.898   7.925   6.461
82520SOL    HW149457   8.949   7.879   6.528
82520SOL    HW249458   8.856   7.997   6.508
82521SOL     OW49459  13.641   2.224   3.234
82521SOL    HW149460  13.638   2.130   3.215
82521SOL    HW249461  13.723   2.254   3.196
82522SOL     OW49462  14.837  12.688  13.953
82522SOL    HW149463   0.058  12.677  13.982
82522SOL    HW249464  14.836  12.652  13.865
82523SOL     OW49465   7.825   0.856   1.219
82523SOL    HW149466   7.756   0.822   1.163
82523SOL    HW249467   7.880   0.780   1.238
82524SOL     OW49468  12.038   8.282   6.395
82524SOL    HW149469  12.038   8.329   6.312
82524SOL    HW249470  12.087   8.338   6.455
82525SOL     OW49471  13.895   5.950  10.010
82525SOL    HW149472  13.887   5.938  10.104
82525SOL    HW249473  13.848   5.876   9.971
82526SOL     OW49474   3.057   3.962   9.331
82526SOL    HW149475   3.057   3.872   9.298
82526SOL    HW249476   3.005   4.011   9.267
82527SOL     OW49477   4.105   3.540   8.557
82527SOL    HW149478   4.140   3.627   8.536
82527SOL    HW249479   4.095   3.497   8.472
82528SOL     OW49480   4.373   0.234   1.223
82528SOL    HW149481   4.439   0.204   1.285
82528SOL    HW249482   4.320   0.297   1.273
82529SOL     OW49483   2.790   9.325   8.021
82529SOL    HW149484   2.763   9.252   7.966
82529SOL    HW249485   2.710   9.352   8.066
82530SOL     OW49486   0.166   5.855   5.548
82530SOL    HW149487   0.185   5.839   5.455
82530SOL    HW249488   0.251   5.847   5.592
82531SOL     OW49489   0.570  12.146   2.007
82531SOL    HW149490   0.538  12.112   1.924
82531SOL    HW249491   0.494  12.189   2.047
82532SOL     OW49492   3.970   3.397  11.640
82532SOL    HW149493   4.033   3.343  11.593
82532SOL    HW249494   4.012   3.415  11.724
82533SOL     OW49495   7.402   6.248   4.559
82533SOL    HW149496   7.334   6.291   4.611
82533SOL    HW249497   7.394   6.155   4.580
82534SOL     OW49498   8.448   9.061   7.149
82534SOL    HW149499   8.450   9.155   7.168
82534SOL    HW249500   8.532   9.044   7.107
82535SOL     OW49501   9.183  10.421   9.319
82535SOL    HW149502   9.089  10.404   9.330
82535SOL    HW249503   9.186  10.501   9.266
82536SOL     OW49504   0.840   4.751  12.983
82536SOL    HW149505   0.901   4.824  12.989
82536SOL    HW249506   0.881   4.690  12.921
82537SOL     OW49507   8.545  10.025  12.171
82537SOL    HW149508   8.577  10.114  12.154
82537SOL    HW249509   8.624   9.976  12.193
82538SOL     OW49510   4.818  12.474  11.306
82538SOL    HW149511   4.782  12.385  11.309
82538SOL    HW249512   4.741  12.531  11.308
82539SOL     OW49513   2.326   1.829   1.421
82539SOL    HW149514   2.400   1.785   1.380
82539SOL    HW249515   2.366   1.895   1.478
82540SOL     OW49516  11.294  14.230   7.026
82540SOL    HW149517  11.290  14.187   6.941
82540SOL    HW249518  11.362  14.182   7.074
82541SOL     OW49519   6.471  12.141  13.702
82541SOL    HW149520   6.391  12.089  13.701
82541SOL    HW249521   6.480  12.174  13.613
82542SOL     OW49522  12.684   1.201   5.273
82542SOL    HW149523  12.639   1.154   5.202
82542SOL    HW249524  12.755   1.248   5.229
82543SOL     OW49525  11.704  12.537  12.418
82543SOL    HW149526  11.624  12.589  12.410
82543SOL    HW249527  11.740  12.535  12.329
82544SOL     OW49528   2.754   5.148  12.369
82544SOL    HW149529   2.661   5.134  12.350
82544SOL    HW249530   2.762   5.243  12.379
82545SOL     OW49531  13.813   7.982   1.947
82545SOL    HW149532  13.894   7.993   1.996
82545SOL    HW249533  13.744   8.011   2.007
82546SOL     OW49534  10.397   6.978  12.380
82546SOL    HW149535  10.341   6.907  12.349
82546SOL    HW249536  10.368   6.995  12.469
82547SOL     OW49537   1.950   6.506   2.895
82547SOL    HW149538   2.001   6.428   2.873
82547SOL    HW249539   2.014   6.567   2.932
82548SOL     OW49540   7.410   9.987  14.245
82548SOL    HW149541   7.394  10.042  14.321
82548SOL    HW249542   7.399  10.045  14.170
82549SOL     OW49543   4.427   5.303  13.368
82549SOL    HW149544   4.343   5.343  13.347
82549SOL    HW249545   4.436   5.313  13.463
82550SOL     OW49546   0.301   1.467  11.339
82550SOL    HW149547   0.214   1.461  11.378
82550SOL    HW249548   0.285   1.484  11.246
82551SOL     OW49549   2.131   1.705   6.758
82551SOL    HW149550   2.072   1.673   6.827
82551SOL    HW249551   2.187   1.769   6.803
82552SOL     OW49552   1.923   4.644  13.615
82552SOL    HW149553   2.011   4.645  13.652
82552SOL    HW249554   1.899   4.552  13.612
82553SOL     OW49555   9.986  11.815   3.333
82553SOL    HW149556   9.947  11.785   3.250
82553SOL    HW249557  10.068  11.856   3.307
82554SOL     OW49558   5.361  11.938   9.307
82554SOL    HW149559   5.317  11.856   9.284
82554SOL    HW249560   5.312  12.006   9.259
82555SOL     OW49561  10.897   7.231   2.449
82555SOL    HW149562  10.972   7.186   2.412
82555SOL    HW249563  10.849   7.265   2.374
82556SOL     OW49564   2.461   1.789  13.775
82556SOL    HW149565   2.471   1.699  13.806
82556SOL    HW249566   2.499   1.843  13.844
82557SOL     OW49567  12.535   0.709  10.192
82557SOL    HW149568  12.540   0.793  10.238
82557SOL    HW249569  12.443   0.701  10.166
82558SOL     OW49570   6.398  14.763   0.688
82558SOL    HW149571   6.437  14.826   0.749
82558SOL    HW249572   6.407  14.679   0.732
82559SOL     OW49573  13.290   3.910  11.043
82559SOL    HW149574  13.272   3.860  11.122
82559SOL    HW249575  13.240   3.991  11.053
82560SOL     OW49576  12.673   4.776   2.633
82560SOL    HW149577  12.765   4.786   2.656
82560SOL    HW249578  12.645   4.698   2.682
82561SOL     OW49579  10.273  12.042   4.394
82561SOL    HW149580  10.224  12.008   4.469
82561SOL    HW249581  10.326  12.113   4.431
82562SOL     OW49582   2.118  14.090   7.285
82562SOL    HW149583   2.179  14.020   7.307
82562SOL    HW249584   2.034  14.046   7.276
82563SOL     OW49585   7.171   5.349   8.274
82563SOL    HW149586   7.135   5.274   8.226
82563SOL    HW249587   7.266   5.333   8.277
82564SOL     OW49588   4.660   9.242  12.783
82564SOL    HW149589   4.753   9.223  12.770
82564SOL    HW249590   4.649   9.330  12.747
82565SOL     OW49591  13.186  12.791  10.507
82565SOL    HW149592  13.114  12.779  10.569
82565SOL    HW249593  13.263  12.803  10.561
82566SOL     OW49594   6.070   8.412   0.955
82566SOL    HW149595   6.136   8.344   0.938
82566SOL    HW249596   5.987   8.372   0.928
82567SOL     OW49597   1.115  14.407   8.075
82567SOL    HW149598   1.086  14.351   8.003
82567SOL    HW249599   1.051  14.478   8.078
82568SOL     OW49600   0.217   9.589  11.554
82568SOL    HW149601   0.308   9.580  11.580
82568SOL    HW249602   0.215   9.561  11.462
82569SOL     OW49603   6.064   0.574   1.989
82569SOL    HW149604   6.124   0.536   2.053
82569SOL    HW249605   6.117   0.586   1.910
82570SOL     OW49606   8.184   8.013   1.992
82570SOL    HW149607   8.122   7.956   2.038
82570SOL    HW249608   8.129   8.071   1.940
82571SOL     OW49609   4.430   5.078   4.539
82571SOL    HW149610   4.514   5.039   4.561
82571SOL    HW249611   4.416   5.144   4.608
82572SOL     OW49612   5.874  11.478   9.676
82572SOL    HW149613   5.875  11.540   9.749
82572SOL    HW249614   5.891  11.532   9.598
82573SOL     OW49615   1.900   3.227   7.061
82573SOL    HW149616   1.993   3.212   7.045
82573SOL    HW249617   1.890   3.216   7.156
82574SOL     OW49618   4.592  13.790   1.468
82574SOL    HW149619   4.568  13.700   1.490
82574SOL    HW249620   4.539  13.811   1.391
82575SOL     OW49621   2.165  14.384  11.433
82575SOL    HW149622   2.082  14.430  11.418
82575SOL    HW249623   2.225  14.451  11.464
82576SOL     OW49624   3.460   6.144   9.523
82576SOL    HW149625   3.524   6.120   9.591
82576SOL    HW249626   3.381   6.096   9.546
82577SOL     OW49627  10.193   7.542   4.496
82577SOL    HW149628  10.121   7.481   4.481
82577SOL    HW249629  10.243   7.542   4.414
82578SOL     OW49630   4.676   0.090  14.690
82578SOL    HW149631   4.674   0.185  14.687
82578SOL    HW249632   4.637   0.068  14.775
82579SOL     OW49633   2.465   7.593  13.719
82579SOL    HW149634   2.547   7.588  13.769
82579SOL    HW249635   2.481   7.539  13.642
82580SOL     OW49636  12.744   4.354   0.450
82580SOL    HW149637  12.741   4.363   0.546
82580SOL    HW249638  12.680   4.286   0.430
82581SOL     OW49639  11.829   8.418   8.308
82581SOL    HW149640  11.802   8.506   8.283
82581SOL    HW249641  11.750   8.379   8.347
82582SOL     OW49642  11.613   6.053   6.147
82582SOL    HW149643  11.693   6.027   6.193
82582SOL    HW249644  11.555   5.978   6.155
82583SOL     OW49645  11.260   7.472  13.002
82583SOL    HW149646  11.323   7.402  13.020
82583SOL    HW249647  11.313   7.552  13.000
82584SOL     OW49648   9.837   8.939  10.866
82584SOL    HW149649   9.847   8.938  10.961
82584SOL    HW249650   9.781   8.864  10.847
82585SOL     OW49651   8.892   4.190   5.116
82585SOL    HW149652   8.834   4.150   5.051
82585SOL    HW249653   8.908   4.279   5.083
82586SOL     OW49654  12.563   2.117   8.582
82586SOL    HW149655  12.596   2.192   8.534
82586SOL    HW249656  12.476   2.101   8.546
82587SOL     OW49657   6.321   1.877  14.479
82587SOL    HW149658   6.283   1.813  14.540
82587SOL    HW249659   6.283   1.961  14.505
82588SOL     OW49660   1.228  14.249  10.889
82588SOL    HW149661   1.139  14.260  10.922
82588SOL    HW249662   1.274  14.329  10.915
82589SOL     OW49663   7.924  11.457   0.919
82589SOL    HW149664   7.978  11.420   0.849
82589SOL    HW249665   7.986  11.492   0.982
82590SOL     OW49666   0.390   2.286  10.178
82590SOL    HW149667   0.304   2.256  10.147
82590SOL    HW249668   0.402   2.240  10.261
82591SOL     OW49669  12.152   6.529   8.794
82591SOL    HW149670  12.240   6.566   8.794
82591SOL    HW249671  12.104   6.582   8.857
82592SOL     OW49672   2.147   6.268   9.883
82592SOL    HW149673   2.068   6.217   9.902
82592SOL    HW249674   2.128   6.355   9.919
82593SOL     OW49675   3.198  13.840   1.500
82593SOL    HW149676   3.269  13.855   1.563
82593SOL    HW249677   3.123  13.885   1.539
82594SOL     OW49678  14.820   9.812   1.353
82594SOL    HW149679  14.868   9.894   1.351
82594SOL    HW249680  14.822   9.785   1.445
82595SOL     OW49681   6.086   9.228   6.599
82595SOL    HW149682   6.108   9.191   6.513
82595SOL    HW249683   6.013   9.175   6.630
82596SOL     OW49684  14.629   6.807  11.421
82596SOL    HW149685  14.709   6.827  11.470
82596SOL    HW249686  14.558   6.839  11.476
82597SOL     OW49687   2.227  12.914  11.378
82597SOL    HW149688   2.166  12.928  11.451
82597SOL    HW249689   2.226  12.820  11.363
82598SOL     OW49690  13.923  10.692   3.757
82598SOL    HW149691  13.899  10.600   3.763
82598SOL    HW249692  13.999  10.694   3.699
82599SOL     OW49693   0.959   7.088   4.447
82599SOL    HW149694   0.899   7.132   4.506
82599SOL    HW249695   1.023   7.045   4.504
82600SOL     OW49696  11.151   6.297  13.418
82600SOL    HW149697  11.083   6.253  13.368
82600SOL    HW249698  11.231   6.249  13.396
82601SOL     OW49699   7.083   0.828  11.721
82601SOL    HW149700   7.070   0.816  11.815
82601SOL    HW249701   7.100   0.922  11.711
82602SOL     OW49702   9.649   8.395   2.454
82602SOL    HW149703   9.721   8.433   2.404
82602SOL    HW249704   9.680   8.394   2.545
82603SOL     OW49705   0.382   4.648   3.303
82603SOL    HW149706   0.333   4.586   3.249
82603SOL    HW249707   0.319   4.678   3.369
82604SOL     OW49708   0.617   8.418  13.216
82604SOL    HW149709   0.647   8.470  13.290
82604SOL    HW249710   0.527   8.394  13.238
82605SOL     OW49711  12.639   4.550   9.641
82605SOL    HW149712  12.620   4.507   9.724
82605SOL    HW249713  12.694   4.488   9.593
82606SOL     OW49714   7.080  11.960  10.218
82606SOL    HW149715   7.133  11.891  10.258
82606SOL    HW249716   6.991  11.924  10.216
82607SOL     OW49717  11.919   4.473   1.384
82607SOL    HW149718  11.825   4.480   1.371
82607SOL    HW249719  11.940   4.544   1.445
82608SOL     OW49720  12.852   9.973   7.692
82608SOL    HW149721  12.915  10.034   7.654
82608SOL    HW249722  12.891   9.948   7.776
82609SOL     OW49723   6.882   6.558   4.159
82609SOL    HW149724   6.941   6.485   4.178
82609SOL    HW249725   6.841   6.535   4.076
82610SOL     OW49726   6.274   0.037   6.505
82610SOL    HW149727   6.346  14.849   6.482
82610SOL    HW249728   6.222  14.856   6.568
82611SOL     OW49729   5.794   9.579  10.649
82611SOL    HW149730   5.728   9.593  10.580
82611SOL    HW249731   5.788   9.659  10.703
82612SOL     OW49732  11.355   4.174   6.855
82612SOL    HW149733  11.370   4.176   6.760
82612SOL    HW249734  11.291   4.243   6.870
82613SOL     OW49735   4.046  12.040  12.576
82613SOL    HW149736   4.089  12.126  12.579
82613SOL    HW249737   4.097  11.986  12.636
82614SOL     OW49738   9.449   3.552  14.669
82614SOL    HW149739   9.434   3.586  14.757
82614SOL    HW249740   9.517   3.609  14.632
82615SOL     OW49741   8.025   8.187   9.581
82615SOL    HW149742   8.041   8.249   9.509
82615SOL    HW249743   8.062   8.104   9.549
82616SOL     OW49744   4.567  11.677  12.225
82616SOL    HW149745   4.648  11.717  12.193
82616SOL    HW249746   4.593  11.590  12.254
82617SOL     OW49747   3.435  10.871  14.413
82617SOL    HW149748   3.484  10.815  14.472
82617SOL    HW249749   3.430  10.956  14.457
82618SOL     OW49750   5.426   9.198   2.455
82618SOL    HW149751   5.459   9.181   2.543
82618SOL    HW249752   5.392   9.288   2.459
82619SOL     OW49753   5.291  11.521  11.577
82619SOL    HW149754   5.252  11.499  11.492
82619SOL    HW249755   5.364  11.578  11.555
82620SOL     OW49756   4.446   1.304   4.247
82620SOL    HW149757   4.535   1.339   4.245
82620SOL    HW249758   4.399   1.356   4.182
82621SOL     OW49759   4.486   3.948   9.954
82621SOL    HW149760   4.484   4.031   9.906
82621SOL    HW249761   4.443   3.969  10.037
82622SOL     OW49762  13.022  11.625  11.086
82622SOL    HW149763  12.936  11.586  11.096
82622SOL    HW249764  13.041  11.620  10.993
82623SOL     OW49765   3.983   4.329  13.380
82623SOL    HW149766   3.892   4.299  13.385
82623SOL    HW249767   4.023   4.273  13.313
82624SOL     OW49768  13.664   1.101   2.252
82624SOL    HW149769  13.691   1.093   2.161
82624SOL    HW249770  13.581   1.054   2.257
82625SOL     OW49771   3.487  14.526  10.858
82625SOL    HW149772   3.453  14.440  10.881
82625SOL    HW249773   3.528  14.558  10.938
82626SOL     OW49774   5.025   4.099  12.608
82626SOL    HW149775   5.067   4.134  12.687
82626SOL    HW249776   5.063   4.012  12.598
82627SOL     OW49777   4.947   2.459  12.494
82627SOL    HW149778   4.887   2.394  12.530
82627SOL    HW249779   4.920   2.470  12.403
82628SOL     OW49780  14.501  12.717   4.177
82628SOL    HW149781  14.521  12.768   4.255
82628SOL    HW249782  14.420  12.754   4.143
82629SOL     OW49783   1.667   0.267  12.375
82629SOL    HW149784   1.738   0.203  12.370
82629SOL    HW249785   1.707   0.344  12.415
82630SOL     OW49786   0.572  13.218   8.542
82630SOL    HW149787   0.496  13.206   8.598
82630SOL    HW249788   0.536  13.228   8.454
82631SOL     OW49789   1.532  13.004   6.845
82631SOL    HW149790   1.567  13.084   6.884
82631SOL    HW249791   1.604  12.969   6.793
82632SOL     OW49792   4.515  13.439   8.006
82632SOL    HW149793   4.507  13.467   8.097
82632SOL    HW249794   4.426  13.414   7.981
82633SOL     OW49795   6.732   4.799   1.651
82633SOL    HW149796   6.684   4.716   1.647
82633SOL    HW249797   6.757   4.816   1.560
82634SOL     OW49798   9.404   5.847   5.300
82634SOL    HW149799   9.417   5.766   5.250
82634SOL    HW249800   9.416   5.820   5.391
82635SOL     OW49801   7.859  14.307   4.223
82635SOL    HW149802   7.880  14.400   4.208
82635SOL    HW249803   7.825  14.305   4.313
82636SOL     OW49804  10.750  11.056   5.277
82636SOL    HW149805  10.727  11.041   5.368
82636SOL    HW249806  10.846  11.047   5.274
82637SOL     OW49807   1.436  11.105   0.307
82637SOL    HW149808   1.490  11.150   0.372
82637SOL    HW249809   1.376  11.051   0.359
82638SOL     OW49810  11.054   7.007   1.346
82638SOL    HW149811  11.004   6.958   1.281
82638SOL    HW249812  11.016   6.982   1.430
82639SOL     OW49813   1.007   9.285   7.964
82639SOL    HW149814   1.056   9.339   8.026
82639SOL    HW249815   0.923   9.329   7.954
82640SOL     OW49816   8.747   6.649   4.381
82640SOL    HW149817   8.701   6.601   4.311
82640SOL    HW249818   8.821   6.593   4.403
82641SOL     OW49819  12.260  13.321  14.753
82641SOL    HW149820  12.166  13.321  14.735
82641SOL    HW249821  12.271  13.388  14.821
82642SOL     OW49822   6.563  14.808  11.733
82642SOL    HW149823   6.515   0.021  11.739
82642SOL    HW249824   6.621  14.819  11.658
82643SOL     OW49825   2.304   7.748   6.782
82643SOL    HW149826   2.249   7.669   6.776
82643SOL    HW249827   2.323   7.771   6.691
82644SOL     OW49828   7.322   4.404   0.344
82644SOL    HW149829   7.283   4.348   0.412
82644SOL    HW249830   7.417   4.392   0.355
82645SOL     OW49831  12.430   8.970   1.766
82645SOL    HW149832  12.382   9.051   1.786
82645SOL    HW249833  12.520   8.999   1.752
82646SOL     OW49834   3.086   4.012   5.212
82646SOL    HW149835   3.108   4.092   5.259
82646SOL    HW249836   3.136   4.018   5.130
82647SOL     OW49837  10.822   4.176  10.990
82647SOL    HW149838  10.883   4.195  10.920
82647SOL    HW249839  10.751   4.239  10.979
82648SOL     OW49840   2.361  13.136   3.128
82648SOL    HW149841   2.361  13.198   3.056
82648SOL    HW249842   2.395  13.185   3.203
82649SOL     OW49843   7.139   0.791   4.994
82649SOL    HW149844   7.153   0.737   4.916
82649SOL    HW249845   7.095   0.732   5.056
82650SOL     OW49846  10.587   3.976  10.187
82650SOL    HW149847  10.519   4.040  10.208
82650SOL    HW249848  10.540   3.903  10.148
82651SOL     OW49849   1.614  11.593   5.799
82651SOL    HW149850   1.570  11.525   5.748
82651SOL    HW249851   1.549  11.620   5.864
82652SOL     OW49852   8.205   5.321  10.902
82652SOL    HW149853   8.187   5.275  10.820
82652SOL    HW249854   8.212   5.251  10.967
82653SOL     OW49855  10.207   5.971   8.308
82653SOL    HW149856  10.146   6.017   8.251
82653SOL    HW249857  10.193   6.009   8.394
82654SOL     OW49858  11.052   8.110  10.897
82654SOL    HW149859  11.036   8.121  10.804
82654SOL    HW249860  11.145   8.131  10.908
82655SOL     OW49861   0.293   8.957   9.142
82655SOL    HW149862   0.270   8.968   9.234
82655SOL    HW249863   0.330   8.868   9.138
82656SOL     OW49864   8.416  14.281   3.429
82656SOL    HW149865   8.336  14.322   3.463
82656SOL    HW249866   8.459  14.350   3.379
82657SOL     OW49867   6.392  13.501   4.885
82657SOL    HW149868   6.352  13.416   4.864
82657SOL    HW249869   6.397  13.501   4.980
82658SOL     OW49870  14.072   1.868   3.763
82658SOL    HW149871  14.073   1.946   3.817
82658SOL    HW249872  14.160   1.863   3.725
82659SOL     OW49873   0.201  11.639  13.433
82659SOL    HW149874   0.168  11.584  13.361
82659SOL    HW249875   0.188  11.586  13.512
82660SOL     OW49876   3.208   3.943   2.701
82660SOL    HW149877   3.220   4.037   2.708
82660SOL    HW249878   3.207   3.926   2.607
82661SOL     OW49879   1.334  14.593  12.761
82661SOL    HW149880   1.284  14.610  12.682
82661SOL    HW249881   1.270  14.558  12.823
82662SOL     OW49882   9.982   7.799   2.411
82662SOL    HW149883  10.058   7.755   2.372
82662SOL    HW249884  10.002   7.892   2.401
82663SOL     OW49885   8.652   4.400  10.621
82663SOL    HW149886   8.698   4.437  10.697
82663SOL    HW249887   8.590   4.468  10.595
82664SOL     OW49888   3.828   9.447   6.922
82664SOL    HW149889   3.767   9.393   6.973
82664SOL    HW249890   3.804   9.432   6.831
82665SOL     OW49891   8.761   6.118  12.672
82665SOL    HW149892   8.693   6.137  12.737
82665SOL    HW249893   8.771   6.200  12.624
82666SOL     OW49894   7.916  10.759   7.046
82666SOL    HW149895   8.004  10.793   7.036
82666SOL    HW249896   7.891  10.780   7.136
82667SOL     OW49897   6.785   8.863   4.430
82667SOL    HW149898   6.716   8.917   4.468
82667SOL    HW249899   6.857   8.868   4.491
82668SOL     OW49900  11.715   7.944   3.797
82668SOL    HW149901  11.761   7.864   3.769
82668SOL    HW249902  11.759   8.015   3.750
82669SOL     OW49903  13.015   5.687  14.709
82669SOL    HW149904  13.071   5.677  14.785
82669SOL    HW249905  12.953   5.614  14.715
82670SOL     OW49906   9.936   2.915   8.020
82670SOL    HW149907   9.923   2.947   7.931
82670SOL    HW249908   9.881   2.972   8.074
82671SOL     OW49909   9.427   6.742   7.755
82671SOL    HW149910   9.512   6.732   7.798
82671SOL    HW249911   9.433   6.827   7.712
82672SOL     OW49912   3.604  13.193   1.777
82672SOL    HW149913   3.560  13.276   1.794
82672SOL    HW249914   3.554  13.154   1.705
82673SOL     OW49915  10.031   5.951   0.505
82673SOL    HW149916   9.998   6.025   0.556
82673SOL    HW249917  10.031   5.878   0.566
82674SOL     OW49918   3.655   9.303   1.842
82674SOL    HW149919   3.697   9.356   1.909
82674SOL    HW249920   3.650   9.215   1.880
82675SOL     OW49921   0.118   8.316   5.643
82675SOL    HW149922   0.168   8.395   5.624
82675SOL    HW249923   0.029   8.336   5.614
82676SOL     OW49924   9.085  13.184   8.787
82676SOL    HW149925   9.076  13.138   8.871
82676SOL    HW249926   9.101  13.275   8.811
82677SOL     OW49927   0.080   5.758  11.326
82677SOL    HW149928   0.019   5.751  11.252
82677SOL    HW249929   0.165   5.735  11.289
82678SOL     OW49930   7.928  12.788   4.967
82678SOL    HW149931   7.924  12.884   4.972
82678SOL    HW249932   7.969  12.771   4.882
82679SOL     OW49933   3.968   7.539   5.821
82679SOL    HW149934   3.977   7.489   5.740
82679SOL    HW249935   3.988   7.629   5.795
82680SOL     OW49936   0.505  12.616   9.521
82680SOL    HW149937   0.423  12.665   9.521
82680SOL    HW249938   0.536  12.622   9.611
82681SOL     OW49939  12.520   0.599  12.973
82681SOL    HW149940  12.586   0.531  12.978
82681SOL    HW249941  12.482   0.589  12.885
82682SOL     OW49942  12.991   1.466  12.564
82682SOL    HW149943  13.044   1.499  12.637
82682SOL    HW249944  12.918   1.527  12.558
82683SOL     OW49945  12.935  12.453   9.497
82683SOL    HW149946  12.988  12.515   9.548
82683SOL    HW249947  12.882  12.408   9.563
82684SOL     OW49948  11.195  13.334   6.910
82684SOL    HW149949  11.201  13.248   6.951
82684SOL    HW249950  11.284  13.352   6.878
82685SOL     OW49951   8.949  10.932   0.159
82685SOL    HW149952   8.953  10.941   0.064
82685SOL    HW249953   9.037  10.906   0.185
82686SOL     OW49954   4.365   3.285   5.756
82686SOL    HW149955   4.372   3.190   5.748
82686SOL    HW249956   4.315   3.311   5.679
82687SOL     OW49957  12.299   7.006  11.552
82687SOL    HW149958  12.351   6.930  11.579
82687SOL    HW249959  12.335   7.032  11.467
82688SOL     OW49960   2.776  13.928   9.835
82688SOL    HW149961   2.753  13.967   9.751
82688SOL    HW249962   2.768  14.000   9.898
82689SOL     OW49963   5.958  10.948  10.546
82689SOL    HW149964   6.031  10.887  10.552
82689SOL    HW249965   5.930  10.944  10.455
82690SOL     OW49966   3.456   8.469   2.524
82690SOL    HW149967   3.516   8.458   2.450
82690SOL    HW249968   3.454   8.383   2.566
82691SOL     OW49969  11.824  13.977   4.809
82691SOL    HW149970  11.738  14.019   4.801
82691SOL    HW249971  11.840  13.940   4.722
82692SOL     OW49972   4.968   0.316   7.315
82692SOL    HW149973   5.037   0.372   7.280
82692SOL    HW249974   5.010   0.270   7.389
82693SOL     OW49975   3.070  12.671   1.791
82693SOL    HW149976   3.130  12.649   1.862
82693SOL    HW249977   3.020  12.746   1.825
82694SOL     OW49978   5.522  11.994   9.998
82694SOL    HW149979   5.569  11.999   9.915
82694SOL    HW249980   5.430  12.006   9.975
82695SOL     OW49981  13.112  10.636   3.364
82695SOL    HW149982  13.161  10.616   3.444
82695SOL    HW249983  13.050  10.704   3.391
82696SOL     OW49984   9.252  12.067   3.478
82696SOL    HW149985   9.316  11.997   3.485
82696SOL    HW249986   9.176  12.036   3.528
82697SOL     OW49987   2.973   1.288   0.626
82697SOL    HW149988   3.005   1.359   0.681
82697SOL    HW249989   3.051   1.241   0.598
82698SOL     OW49990  12.278   1.051   8.689
82698SOL    HW149991  12.344   1.115   8.662
82698SOL    HW249992  12.216   1.101   8.742
82699SOL     OW49993  14.216  13.653  13.767
82699SOL    HW149994  14.175  13.627  13.684
82699SOL    HW249995  14.191  13.584  13.828
82700SOL     OW49996   0.350  10.613   1.199
82700SOL    HW149997   0.395  10.663   1.130
82700SOL    HW249998   0.421  10.569   1.246
82701SOL     OW49999  14.180   1.020   0.674
82701SOL    HW150000  14.215   0.933   0.654
82701SOL    HW250001  14.088   1.004   0.697
82702SOL     OW50002   1.902  10.769  11.203
82702SOL    HW150003   1.964  10.696  11.197
82702SOL    HW250004   1.826  10.741  11.152
82703SOL     OW50005   1.082   2.959  11.396
82703SOL    HW150006   1.121   2.884  11.440
82703SOL    HW250007   1.075   3.026  11.464
82704SOL     OW50008   4.917   3.738  12.660
82704SOL    HW150009   4.883   3.779  12.740
82704SOL    HW250010   4.884   3.649  12.662
82705SOL     OW50011   7.577   1.632   1.381
82705SOL    HW150012   7.555   1.539   1.386
82705SOL    HW250013   7.663   1.638   1.422
82706SOL     OW50014   7.990   3.510  10.483
82706SOL    HW150015   7.910   3.552  10.515
82706SOL    HW250016   8.061   3.554  10.530
82707SOL     OW50017   3.163   5.348   6.168
82707SOL    HW150018   3.233   5.385   6.114
82707SOL    HW250019   3.094   5.325   6.105
82708SOL     OW50020  10.205  11.400   5.458
82708SOL    HW150021  10.126  11.372   5.504
82708SOL    HW250022  10.206  11.495   5.468
82709SOL     OW50023  11.341  10.436   0.734
82709SOL    HW150024  11.359  10.526   0.705
82709SOL    HW250025  11.415  10.414   0.790
82710SOL     OW50026  10.557   4.914  14.387
82710SOL    HW150027  10.483   4.852  14.381
82710SOL    HW250028  10.634   4.858  14.388
82711SOL     OW50029  12.557   7.469  14.525
82711SOL    HW150030  12.534   7.473  14.432
82711SOL    HW250031  12.474   7.455  14.570
82712SOL     OW50032   8.042   3.590   5.554
82712SOL    HW150033   8.093   3.641   5.617
82712SOL    HW250034   7.967   3.646   5.532
82713SOL     OW50035  10.447  10.288   7.938
82713SOL    HW150036  10.397  10.208   7.954
82713SOL    HW250037  10.525  10.279   7.993
82714SOL     OW50038   9.325   5.506   0.180
82714SOL    HW150039   9.267   5.451   0.128
82714SOL    HW250040   9.269   5.543   0.248
82715SOL     OW50041   0.088   2.404   9.991
82715SOL    HW150042   0.005   2.363   9.966
82715SOL    HW250043   0.063   2.486  10.033
82716SOL     OW50044   3.181   0.752   6.537
82716SOL    HW150045   3.122   0.678   6.542
82716SOL    HW250046   3.225   0.753   6.622
82717SOL     OW50047   8.282   1.415   1.339
82717SOL    HW150048   8.295   1.361   1.417
82717SOL    HW250049   8.367   1.457   1.326
82718SOL     OW50050   0.731   6.853   4.602
82718SOL    HW150051   0.764   6.826   4.516
82718SOL    HW250052   0.637   6.832   4.599
82719SOL     OW50053   2.251  11.731   0.020
82719SOL    HW150054   2.305  11.673  14.837
82719SOL    HW250055   2.302  11.812   0.028
82720SOL     OW50056   9.478   5.503  11.148
82720SOL    HW150057   9.469   5.597  11.167
82720SOL    HW250058   9.463   5.496  11.054
82721SOL     OW50059  13.057   3.530   5.314
82721SOL    HW150060  12.997   3.493   5.379
82721SOL    HW250061  13.003   3.588   5.261
82722SOL     OW50062   2.880  13.444   9.590
82722SOL    HW150063   2.924  13.362   9.612
82722SOL    HW250064   2.802  13.445   9.644
82723SOL     OW50065   9.264   4.832   2.931
82723SOL    HW150066   9.245   4.900   2.996
82723SOL    HW250067   9.336   4.782   2.970
82724SOL     OW50068   8.383   1.603   7.936
82724SOL    HW150069   8.324   1.583   7.863
82724SOL    HW250070   8.341   1.675   7.982
82725SOL     OW50071   7.848   0.004  14.432
82725SOL    HW150072   7.914   0.051  14.483
82725SOL    HW250073   7.779  14.852  14.496
82726SOL     OW50074  12.161  14.307   7.939
82726SOL    HW150075  12.152  14.402   7.929
82726SOL    HW250076  12.084  14.271   7.894
82727SOL     OW50077   8.337   9.156  11.662
82727SOL    HW150078   8.431   9.163  11.646
82727SOL    HW250079   8.330   9.121  11.750
82728SOL     OW50080  14.622   5.469  10.087
82728SOL    HW150081  14.640   5.378  10.062
82728SOL    HW250082  14.702   5.516  10.064
82729SOL     OW50083   6.803   0.074   6.382
82729SOL    HW150084   6.729   0.110   6.430
82729SOL    HW250085   6.868   0.144   6.381
82730SOL     OW50086   5.535   5.283  13.803
82730SOL    HW150087   5.470   5.214  13.806
82730SOL    HW250088   5.570   5.288  13.892
82731SOL     OW50089   9.625   7.788   7.730
82731SOL    HW150090   9.608   7.823   7.817
82731SOL    HW250091   9.682   7.713   7.745
82732SOL     OW50092  12.855   5.996   3.652
82732SOL    HW150093  12.766   5.963   3.663
82732SOL    HW250094  12.892   5.941   3.583
82733SOL     OW50095   8.146   8.710  10.956
82733SOL    HW150096   8.091   8.788  10.969
82733SOL    HW250097   8.161   8.707  10.862
82734SOL     OW50098   7.301   9.968   3.667
82734SOL    HW150099   7.362   9.914   3.618
82734SOL    HW250100   7.308   9.936   3.757
82735SOL     OW50101  11.969  11.589   7.886
82735SOL    HW150102  11.970  11.494   7.897
82735SOL    HW250103  11.876  11.612   7.887
82736SOL     OW50104   0.805  11.348   4.579
82736SOL    HW150105   0.732  11.337   4.640
82736SOL    HW250106   0.792  11.281   4.512
82737SOL     OW50107   2.929   0.705   3.871
82737SOL    HW150108   2.961   0.634   3.815
82737SOL    HW250109   2.945   0.785   3.821
82738SOL     OW50110   0.101   0.112   8.033
82738SOL    HW150111   0.159   0.039   8.009
82738SOL    HW250112   0.138   0.187   7.986
82739SOL     OW50113   7.274  14.020  11.048
82739SOL    HW150114   7.210  14.039  10.979
82739SOL    HW250115   7.226  14.035  11.130
82740SOL     OW50116   2.321  10.452   5.578
82740SOL    HW150117   2.272  10.447   5.496
82740SOL    HW250118   2.394  10.511   5.558
82741SOL     OW50119   4.329   7.319  10.381
82741SOL    HW150120   4.258   7.313  10.445
82741SOL    HW250121   4.377   7.237  10.391
82742SOL     OW50122  12.435  13.297   9.051
82742SOL    HW150123  12.487  13.224   9.085
82742SOL    HW250124  12.500  13.364   9.028
82743SOL     OW50125   7.998   6.656   5.252
82743SOL    HW150126   7.971   6.734   5.204
82743SOL    HW250127   8.079   6.682   5.297
82744SOL     OW50128  11.186   0.555   4.085
82744SOL    HW150129  11.118   0.615   4.058
82744SOL    HW250130  11.217   0.589   4.169
82745SOL     OW50131   5.630  11.085   4.238
82745SOL    HW150132   5.548  11.077   4.188
82745SOL    HW250133   5.603  11.118   4.324
82746SOL     OW50134   3.801  13.255  11.748
82746SOL    HW150135   3.774  13.335  11.703
82746SOL    HW250136   3.720  13.222  11.788
82747SOL     OW50137   3.252   5.064   5.569
82747SOL    HW150138   3.177   5.115   5.599
82747SOL    HW250139   3.317   5.129   5.544
82748SOL     OW50140   9.101  12.393   0.222
82748SOL    HW150141   9.164  12.405   0.151
82748SOL    HW250142   9.123  12.309   0.261
82749SOL     OW50143   5.385   5.729  13.535
82749SOL    HW150144   5.422   5.642  13.515
82749SOL    HW250145   5.298   5.711  13.570
82750SOL     OW50146   4.821   0.886  12.718
82750SOL    HW150147   4.808   0.908  12.810
82750SOL    HW250148   4.820   0.790  12.716
82751SOL     OW50149  11.561   8.538  10.165
82751SOL    HW150150  11.623   8.569  10.231
82751SOL    HW250151  11.534   8.452  10.197
82752SOL     OW50152   1.572  14.750  14.290
82752SOL    HW150153   1.588  14.669  14.241
82752SOL    HW250154   1.653  14.766  14.337
82753SOL     OW50155   6.645  13.188   9.821
82753SOL    HW150156   6.697  13.255   9.865
82753SOL    HW250157   6.683  13.181   9.734
82754SOL     OW50158   0.155   0.871  13.935
82754SOL    HW150159   0.213   0.821  13.877
82754SOL    HW250160   0.152   0.958  13.895
82755SOL     OW50161   3.317   4.390  10.500
82755SOL    HW150162   3.320   4.342  10.417
82755SOL    HW250163   3.243   4.450  10.490
82756SOL     OW50164   7.041   2.064   7.435
82756SOL    HW150165   7.050   2.153   7.471
82756SOL    HW250166   6.991   2.077   7.355
82757SOL     OW50167   1.796   2.283   6.396
82757SOL    HW150168   1.731   2.265   6.464
82757SOL    HW250169   1.857   2.343   6.438
82758SOL     OW50170   4.764   8.412  13.456
82758SOL    HW150171   4.751   8.362  13.376
82758SOL    HW250172   4.772   8.502  13.427
82759SOL     OW50173  11.230   2.986   5.812
82759SOL    HW150174  11.219   3.074   5.776
82759SOL    HW250175  11.275   2.938   5.743
82760SOL     OW50176   3.440   8.813   1.038
82760SOL    HW150177   3.427   8.800   1.132
82760SOL    HW250178   3.390   8.892   1.017
82761SOL     OW50179   8.162   1.069   1.492
82761SOL    HW150180   8.238   1.082   1.436
82761SOL    HW250181   8.112   1.150   1.485
82762SOL     OW50182   6.301   4.710   9.136
82762SOL    HW150183   6.277   4.762   9.059
82762SOL    HW250184   6.254   4.750   9.208
82763SOL     OW50185   8.239   6.370  13.360
82763SOL    HW150186   8.333   6.357  13.374
82763SOL    HW250187   8.212   6.428  13.431
82764SOL     OW50188   7.843   8.152  14.159
82764SOL    HW150189   7.776   8.119  14.218
82764SOL    HW250190   7.895   8.213  14.212
82765SOL     OW50191   8.725   9.501   2.395
82765SOL    HW150192   8.747   9.511   2.488
82765SOL    HW250193   8.696   9.587   2.367
82766SOL     OW50194  14.532   1.004  12.209
82766SOL    HW150195  14.476   1.033  12.282
82766SOL    HW250196  14.476   1.015  12.132
82767SOL     OW50197   1.392  14.067   5.233
82767SOL    HW150198   1.306  14.026   5.234
82767SOL    HW250199   1.423  14.061   5.324
82768SOL     OW50200   6.226   7.910   8.563
82768SOL    HW150201   6.160   7.841   8.550
82768SOL    HW250202   6.176   7.989   8.580
82769SOL     OW50203   1.059   7.653  13.770
82769SOL    HW150204   1.126   7.590  13.797
82769SOL    HW250205   1.107   7.735  13.758
82770SOL     OW50206   0.405   2.624   6.948
82770SOL    HW150207   0.476   2.606   7.009
82770SOL    HW250208   0.354   2.543   6.946
82771SOL     OW50209  13.042   5.137  14.586
82771SOL    HW150210  12.967   5.182  14.549
82771SOL    HW250211  13.004   5.076  14.650
82772SOL     OW50212  13.729   6.218   0.267
82772SOL    HW150213  13.719   6.151   0.200
82772SOL    HW250214  13.684   6.182   0.344
82773SOL     OW50215   5.555   1.263   5.472
82773SOL    HW150216   5.584   1.306   5.392
82773SOL    HW250217   5.522   1.333   5.528
82774SOL     OW50218  10.469   7.057   4.779
82774SOL    HW150219  10.512   7.115   4.842
82774SOL    HW250220  10.526   6.980   4.775
82775SOL     OW50221  11.632   2.347   3.861
82775SOL    HW150222  11.698   2.372   3.926
82775SOL    HW250223  11.656   2.394   3.782
82776SOL     OW50224   5.559   1.883   1.415
82776SOL    HW150225   5.504   1.824   1.467
82776SOL    HW250226   5.636   1.899   1.469
82777SOL     OW50227   9.867   1.249   3.256
82777SOL    HW150228   9.803   1.181   3.279
82777SOL    HW250229   9.836   1.282   3.171
82778SOL     OW50230   3.051   2.660   8.673
82778SOL    HW150231   3.115   2.642   8.605
82778SOL    HW250232   3.092   2.727   8.728
82779SOL     OW50233  14.415  13.015   3.290
82779SOL    HW150234  14.340  13.017   3.350
82779SOL    HW250235  14.381  13.054   3.209
82780SOL     OW50236   3.652   8.057  10.951
82780SOL    HW150237   3.681   7.976  10.993
82780SOL    HW250238   3.731   8.110  10.945
82781SOL     OW50239   5.745   2.854   5.208
82781SOL    HW150240   5.754   2.763   5.236
82781SOL    HW250241   5.835   2.886   5.203
82782SOL     OW50242  10.655   9.778   1.320
82782SOL    HW150243  10.735   9.726   1.324
82782SOL    HW250244  10.590   9.726   1.367
82783SOL     OW50245   1.959  11.863   8.441
82783SOL    HW150246   2.009  11.834   8.365
82783SOL    HW250247   2.018  11.850   8.515
82784SOL     OW50248   7.270   9.233  10.596
82784SOL    HW150249   7.268   9.286  10.675
82784SOL    HW250250   7.180   9.233  10.565
82785SOL     OW50251   3.976   5.566   3.056
82785SOL    HW150252   3.929   5.509   2.996
82785SOL    HW250253   3.978   5.517   3.139
82786SOL     OW50254   1.071  11.125  13.003
82786SOL    HW150255   1.017  11.158  13.076
82786SOL    HW250256   1.085  11.202  12.948
82787SOL     OW50257  12.574   4.416   5.961
82787SOL    HW150258  12.494   4.365   5.972
82787SOL    HW250259  12.546   4.495   5.915
82788SOL     OW50260   9.798   2.039   7.308
82788SOL    HW150261   9.859   2.111   7.323
82788SOL    HW250262   9.840   1.987   7.240
82789SOL     OW50263  12.286  10.128   3.394
82789SOL    HW150264  12.332  10.056   3.351
82789SOL    HW250265  12.283  10.197   3.327
82790SOL     OW50266  13.375   1.814  13.929
82790SOL    HW150267  13.385   1.726  13.892
82790SOL    HW250268  13.330   1.864  13.861
82791SOL     OW50269  11.546   7.579  12.618
82791SOL    HW150270  11.512   7.668  12.612
82791SOL    HW250271  11.578   7.572  12.708
82792SOL     OW50272   5.293   4.557   8.576
82792SOL    HW150273   5.321   4.648   8.580
82792SOL    HW250274   5.373   4.506   8.591
82793SOL     OW50275  10.937  13.539   7.424
82793SOL    HW150276  10.965  13.630   7.412
82793SOL    HW250277  11.005  13.500   7.479
82794SOL     OW50278  14.648  14.416   5.813
82794SOL    HW150279  14.659  14.428   5.719
82794SOL    HW250280  14.695  14.489   5.853
82795SOL     OW50281   7.046   2.120   3.959
82795SOL    HW150282   6.990   2.099   3.883
82795SOL    HW250283   7.062   2.035   4.000
82796SOL     OW50284   8.271  13.763   1.296
82796SOL    HW150285   8.286  13.695   1.231
82796SOL    HW250286   8.214  13.827   1.252
82797SOL     OW50287   5.094  14.679   3.145
82797SOL    HW150288   5.103  14.721   3.231
82797SOL    HW250289   5.179  14.639   3.129
82798SOL     OW50290   5.918   3.450  10.022
82798SOL    HW150291   5.998   3.460   9.971
82798SOL    HW250292   5.848   3.444   9.957
82799SOL     OW50293  14.180   6.872   9.181
82799SOL    HW150294  14.228   6.810   9.125
82799SOL    HW250295  14.092   6.873   9.145
82800SOL     OW50296  10.998  13.645   3.065
82800SOL    HW150297  10.999  13.640   3.160
82800SOL    HW250298  10.908  13.666   3.043
82801SOL     OW50299   1.901   2.526  10.035
82801SOL    HW150300   1.987   2.492  10.010
82801SOL    HW250301   1.879   2.589   9.966
82802SOL     OW50302   0.740   5.039   8.491
82802SOL    HW150303   0.733   5.059   8.397
82802SOL    HW250304   0.803   4.967   8.495
82803SOL     OW50305   4.591   7.912  11.569
82803SOL    HW150306   4.685   7.922  11.560
82803SOL    HW250307   4.580   7.852  11.643
82804SOL     OW50308   2.715  12.812   3.396
82804SOL    HW150309   2.626  12.845   3.384
82804SOL    HW250310   2.705  12.719   3.415
82805SOL     OW50311  10.790   0.694  10.729
82805SOL    HW150312  10.712   0.749  10.737
82805SOL    HW250313  10.778   0.646  10.647
82806SOL     OW50314   9.269  10.249  13.228
82806SOL    HW150315   9.265  10.163  13.270
82806SOL    HW250316   9.179  10.267  13.202
82807SOL     OW50317   5.635   9.110   9.647
82807SOL    HW150318   5.658   9.195   9.683
82807SOL    HW250319   5.545   9.094   9.677
82808SOL     OW50320  14.171   4.160   8.489
82808SOL    HW150321  14.255   4.174   8.443
82808SOL    HW250322  14.191   4.179   8.581
82809SOL     OW50323  11.107   0.338   8.930
82809SOL    HW150324  11.043   0.306   8.992
82809SOL    HW250325  11.060   0.344   8.847
82810SOL     OW50326   8.016  10.715   2.945
82810SOL    HW150327   8.068  10.711   3.026
82810SOL    HW250328   8.023  10.806   2.916
82811SOL     OW50329   2.175   7.289   9.504
82811SOL    HW150330   2.108   7.244   9.452
82811SOL    HW250331   2.126   7.337   9.570
82812SOL     OW50332   1.527   9.380   5.125
82812SOL    HW150333   1.484   9.440   5.064
82812SOL    HW250334   1.495   9.407   5.212
82813SOL     OW50335   7.725   6.699   4.254
82813SOL    HW150336   7.727   6.604   4.248
82813SOL    HW250337   7.658   6.718   4.320
82814SOL     OW50338   3.624  11.778   4.097
82814SOL    HW150339   3.566  11.720   4.145
82814SOL    HW250340   3.712  11.745   4.115
82815SOL     OW50341   3.980  14.782   3.448
82815SOL    HW150342   3.962  14.783   3.542
82815SOL    HW250343   4.061  14.832   3.439
82816SOL     OW50344   9.303   9.087   5.681
82816SOL    HW150345   9.238   9.153   5.704
82816SOL    HW250346   9.305   9.028   5.757
82817SOL     OW50347   5.251  11.856   6.005
82817SOL    HW150348   5.248  11.912   5.928
82817SOL    HW250349   5.337  11.815   6.002
82818SOL     OW50350   3.799  11.318   2.280
82818SOL    HW150351   3.796  11.235   2.232
82818SOL    HW250352   3.884  11.317   2.324
82819SOL     OW50353   4.348   6.928  12.868
82819SOL    HW150354   4.345   6.866  12.941
82819SOL    HW250355   4.419   6.896  12.812
82820SOL     OW50356   6.286   6.694  10.787
82820SOL    HW150357   6.308   6.723  10.875
82820SOL    HW250358   6.266   6.601  10.796
82821SOL     OW50359   9.856  14.290   8.989
82821SOL    HW150360   9.854  14.202   9.026
82821SOL    HW250361   9.815  14.345   9.055
82822SOL     OW50362   7.191   1.789   3.979
82822SOL    HW150363   7.203   1.703   4.020
82822SOL    HW250364   7.141   1.839   4.044
82823SOL     OW50365  11.247  10.380   8.504
82823SOL    HW150366  11.236  10.437   8.429
82823SOL    HW250367  11.224  10.434   8.579
82824SOL     OW50368  14.318  10.535   8.956
82824SOL    HW150369  14.295  10.447   8.987
82824SOL    HW250370  14.403  10.553   8.995
82825SOL     OW50371   9.471  10.281   6.172
82825SOL    HW150372   9.470  10.237   6.087
82825SOL    HW250373   9.434  10.368   6.155
82826SOL     OW50374   8.186   9.600   3.870
82826SOL    HW150375   8.143   9.683   3.891
82826SOL    HW250376   8.115   9.544   3.838
82827SOL     OW50377   9.109  10.729   9.989
82827SOL    HW150378   9.097  10.685  10.073
82827SOL    HW250379   9.070  10.670   9.925
82828SOL     OW50380   4.253   4.836   4.892
82828SOL    HW150381   4.165   4.806   4.914
82828SOL    HW250382   4.268   4.910   4.951
82829SOL     OW50383  10.448   8.358   5.832
82829SOL    HW150384  10.367   8.388   5.872
82829SOL    HW250385  10.495   8.312   5.902
82830SOL     OW50386   0.107   2.006   2.353
82830SOL    HW150387   0.140   1.936   2.409
82830SOL    HW250388   0.052   1.962   2.289
82831SOL     OW50389   5.399   0.326   2.192
82831SOL    HW150390   5.399   0.233   2.214
82831SOL    HW250391   5.370   0.329   2.100
82832SOL     OW50392   2.504   4.648   7.874
82832SOL    HW150393   2.510   4.610   7.962
82832SOL    HW250394   2.550   4.586   7.818
82833SOL     OW50395   6.498   3.213   6.316
82833SOL    HW150396   6.482   3.177   6.229
82833SOL    HW250397   6.591   3.238   6.315
82834SOL     OW50398   7.333  12.387  13.781
82834SOL    HW150399   7.266  12.411  13.718
82834SOL    HW250400   7.321  12.448  13.854
82835SOL     OW50401   5.021  10.377   3.531
82835SOL    HW150402   4.969  10.322   3.590
82835SOL    HW250403   5.111  10.368   3.564
82836SOL     OW50404   4.473  11.211   3.478
82836SOL    HW150405   4.426  11.231   3.397
82836SOL    HW250406   4.564  11.197   3.450
82837SOL     OW50407  12.958   3.432   1.175
82837SOL    HW150408  12.913   3.387   1.103
82837SOL    HW250409  12.976   3.363   1.239
82838SOL     OW50410   7.626   7.951   1.805
82838SOL    HW150411   7.624   8.012   1.731
82838SOL    HW250412   7.638   7.865   1.764
82839SOL     OW50413   8.195   7.211   6.884
82839SOL    HW150414   8.151   7.153   6.947
82839SOL    HW250415   8.191   7.298   6.923
82840SOL     OW50416   6.042  14.656  13.884
82840SOL    HW150417   5.979  14.584  13.889
82840SOL    HW250418   6.026  14.696  13.799
82841SOL     OW50419   6.193   5.876   3.178
82841SOL    HW150420   6.233   5.963   3.180
82841SOL    HW250421   6.128   5.878   3.247
82842SOL     OW50422   8.572  12.220   6.040
82842SOL    HW150423   8.599  12.159   6.109
82842SOL    HW250424   8.533  12.294   6.087
82843SOL     OW50425  13.994   4.736  10.561
82843SOL    HW150426  13.955   4.818  10.592
82843SOL    HW250427  13.952   4.720  10.477
82844SOL     OW50428   4.270  13.899  13.760
82844SOL    HW150429   4.365  13.890  13.769
82844SOL    HW250430   4.248  13.977  13.811
82845SOL     OW50431   5.917  12.494  10.025
82845SOL    HW150432   5.963  12.453  10.098
82845SOL    HW250433   5.824  12.478  10.043
82846SOL     OW50434   2.496   6.168   3.049
82846SOL    HW150435   2.558   6.105   3.012
82846SOL    HW250436   2.450   6.118   3.117
82847SOL     OW50437   1.995   7.553  11.557
82847SOL    HW150438   1.919   7.507  11.523
82847SOL    HW250439   1.962   7.641  11.578
82848SOL     OW50440   0.078  12.371   2.578
82848SOL    HW150441   0.144  12.327   2.524
82848SOL    HW250442   0.065  12.456   2.536
82849SOL     OW50443   8.071   0.795   6.986
82849SOL    HW150444   8.033   0.801   7.073
82849SOL    HW250445   8.022   0.858   6.933
82850SOL     OW50446   5.624   2.466   1.730
82850SOL    HW150447   5.695   2.530   1.725
82850SOL    HW250448   5.664   2.383   1.703
82851SOL     OW50449   2.415  10.698   5.950
82851SOL    HW150450   2.475  10.760   5.991
82851SOL    HW250451   2.372  10.654   6.024
82852SOL     OW50452   7.152  12.348  13.538
82852SOL    HW150453   7.232  12.369  13.489
82852SOL    HW250454   7.137  12.255  13.519
82853SOL     OW50455   3.601   9.753   6.562
82853SOL    HW150456   3.667   9.772   6.629
82853SOL    HW250457   3.650   9.711   6.492
82854SOL     OW50458   5.571   0.414   1.614
82854SOL    HW150459   5.663   0.404   1.592
82854SOL    HW250460   5.571   0.461   1.698
82855SOL     OW50461  10.170   1.481   0.235
82855SOL    HW150462  10.180   1.386   0.225
82855SOL    HW250463  10.237   1.505   0.300
82856SOL     OW50464  10.547  14.144  14.619
82856SOL    HW150465  10.496  14.160  14.539
82856SOL    HW250466  10.492  14.177  14.690
82857SOL     OW50467  10.644   2.011   5.801
82857SOL    HW150468  10.718   2.071   5.809
82857SOL    HW250469  10.659   1.944   5.868
82858SOL     OW50470   8.746   8.289   9.804
82858SOL    HW150471   8.815   8.255   9.747
82858SOL    HW250472   8.777   8.269   9.892
82859SOL     OW50473   5.427   4.533  10.432
82859SOL    HW150474   5.468   4.614  10.464
82859SOL    HW250475   5.379   4.560  10.354
82860SOL     OW50476  12.739   2.479   6.561
82860SOL    HW150477  12.699   2.498   6.476
82860SOL    HW250478  12.821   2.529   6.560
82861SOL     OW50479  12.223   8.624  10.111
82861SOL    HW150480  12.185   8.543  10.077
82861SOL    HW250481  12.230   8.610  10.205
82862SOL     OW50482  14.560   7.553  13.563
82862SOL    HW150483  14.629   7.521  13.505
82862SOL    HW250484  14.539   7.477  13.618
82863SOL     OW50485  10.111   8.543   1.847
82863SOL    HW150486  10.157   8.586   1.919
82863SOL    HW250487  10.081   8.616   1.792
82864SOL     OW50488  11.685  10.421   2.121
82864SOL    HW150489  11.596  10.408   2.091
82864SOL    HW250490  11.686  10.386   2.210
82865SOL     OW50491   5.135   2.898  14.295
82865SOL    HW150492   5.120   2.880  14.203
82865SOL    HW250493   5.059   2.949  14.322
82866SOL     OW50494   2.250  10.880   6.930
82866SOL    HW150495   2.165  10.897   6.890
82866SOL    HW250496   2.281  10.799   6.890
82867SOL     OW50497  14.111   8.956   0.035
82867SOL    HW150498  14.088   9.039  14.863
82867SOL    HW250499  14.172   8.980   0.105
82868SOL     OW50500  13.508   6.995   1.773
82868SOL    HW150501  13.481   7.043   1.694
82868SOL    HW250502  13.598   6.968   1.755
82869SOL     OW50503   3.410   2.968  13.183
82869SOL    HW150504   3.476   2.929  13.126
82869SOL    HW250505   3.352   3.016  13.124
82870SOL     OW50506   7.343  13.147   2.172
82870SOL    HW150507   7.270  13.174   2.117
82870SOL    HW250508   7.317  13.172   2.261
82871SOL     OW50509   7.995  11.824  14.091
82871SOL    HW150510   7.932  11.755  14.113
82871SOL    HW250511   7.950  11.905  14.114
82872SOL     OW50512   5.310   1.109   8.854
82872SOL    HW150513   5.219   1.139   8.853
82872SOL    HW250514   5.313   1.044   8.924
82873SOL     OW50515   3.951   6.515   0.244
82873SOL    HW150516   3.872   6.478   0.283
82873SOL    HW250517   3.960   6.602   0.285
82874SOL     OW50518   2.843   7.790  14.653
82874SOL    HW150519   2.889   7.708  14.666
82874SOL    HW250520   2.752   7.765  14.635
82875SOL     OW50521   6.766  10.551  11.583
82875SOL    HW150522   6.821  10.534  11.660
82875SOL    HW250523   6.699  10.483  11.586
82876SOL     OW50524  10.421  10.326   3.071
82876SOL    HW150525  10.343  10.272   3.059
82876SOL    HW250526  10.389  10.416   3.072
82877SOL     OW50527   8.015   3.291  13.929
82877SOL    HW150528   7.994   3.236  13.853
82877SOL    HW250529   7.931   3.329  13.955
82878SOL     OW50530   8.619   1.026   2.890
82878SOL    HW150531   8.574   0.992   2.813
82878SOL    HW250532   8.551   1.070   2.940
82879SOL     OW50533   5.700   2.920   9.582
82879SOL    HW150534   5.710   2.905   9.676
82879SOL    HW250535   5.775   2.974   9.558
82880SOL     OW50536   5.588   4.112   0.449
82880SOL    HW150537   5.550   4.054   0.383
82880SOL    HW250538   5.541   4.091   0.530
82881SOL     OW50539  12.374   9.844  12.880
82881SOL    HW150540  12.395   9.751  12.867
82881SOL    HW250541  12.297   9.843  12.937
82882SOL     OW50542  11.317  13.006  11.857
82882SOL    HW150543  11.402  12.962  11.864
82882SOL    HW250544  11.258  12.952  11.910
82883SOL     OW50545   9.009   7.867   9.122
82883SOL    HW150546   8.985   7.958   9.140
82883SOL    HW250547   8.979   7.851   9.032
82884SOL     OW50548  12.711   4.132   7.520
82884SOL    HW150549  12.652   4.105   7.449
82884SOL    HW250550  12.783   4.070   7.516
82885SOL     OW50551   9.738  14.727   9.988
82885SOL    HW150552   9.799  14.795  10.017
82885SOL    HW250553   9.794  14.652   9.967
82886SOL     OW50554  10.598   5.672  10.166
82886SOL    HW150555  10.645   5.639  10.243
82886SOL    HW250556  10.643   5.754  10.144
82887SOL     OW50557   2.088   6.063   5.673
82887SOL    HW150558   2.003   6.045   5.712
82887SOL    HW250559   2.144   5.990   5.700
82888SOL     OW50560   2.803   2.886  12.226
82888SOL    HW150561   2.750   2.899  12.304
82888SOL    HW250562   2.893   2.898  12.256
82889SOL     OW50563   0.011   4.262   0.053
82889SOL    HW150564  14.807   4.246   0.113
82889SOL    HW250565   0.049   4.345   0.082
82890SOL     OW50566   9.401   1.462  12.591
82890SOL    HW150567   9.445   1.394  12.643
82890SOL    HW250568   9.319   1.421  12.563
82891SOL     OW50569   7.469   4.226   6.204
82891SOL    HW150570   7.418   4.296   6.246
82891SOL    HW250571   7.526   4.272   6.142
82892SOL     OW50572  12.395  14.250   2.875
82892SOL    HW150573  12.444  14.169   2.889
82892SOL    HW250574  12.377  14.283   2.963
82893SOL     OW50575   8.303  12.293   6.256
82893SOL    HW150576   8.375  12.335   6.209
82893SOL    HW250577   8.279  12.218   6.202
82894SOL     OW50578   7.212   3.336   2.080
82894SOL    HW150579   7.228   3.363   1.989
82894SOL    HW250580   7.227   3.415   2.131
82895SOL     OW50581   5.279  11.342   1.959
82895SOL    HW150582   5.268  11.282   2.032
82895SOL    HW250583   5.189  11.365   1.934
82896SOL     OW50584   1.513   2.222  12.148
82896SOL    HW150585   1.551   2.306  12.124
82896SOL    HW250586   1.554   2.159  12.089
82897SOL     OW50587   9.158   0.851  10.721
82897SOL    HW150588   9.207   0.867  10.802
82897SOL    HW250589   9.082   0.908  10.728
82898SOL     OW50590   6.140  13.848   7.575
82898SOL    HW150591   6.069  13.825   7.515
82898SOL    HW250592   6.112  13.931   7.614
82899SOL     OW50593   2.375   6.877   0.389
82899SOL    HW150594   2.354   6.856   0.480
82899SOL    HW250595   2.408   6.796   0.352
82900SOL     OW50596   0.180   4.326  10.281
82900SOL    HW150597   0.085   4.336  10.288
82900SOL    HW250598   0.194   4.232  10.273
82901SOL     OW50599   6.551   7.974   0.013
82901SOL    HW150600   6.499   7.979   0.093
82901SOL    HW250601   6.631   7.929   0.040
82902SOL     OW50602   3.359  12.655   6.248
82902SOL    HW150603   3.438  12.685   6.204
82902SOL    HW250604   3.383  12.571   6.286
82903SOL     OW50605   6.032   9.239   0.537
82903SOL    HW150606   6.103   9.202   0.589
82903SOL    HW250607   6.044   9.201   0.450
82904SOL     OW50608   4.750   5.435   1.746
82904SOL    HW150609   4.774   5.345   1.765
82904SOL    HW250610   4.822   5.487   1.782
82905SOL     OW50611   0.338  13.458   2.438
82905SOL    HW150612   0.323  13.498   2.523
82905SOL    HW250613   0.398  13.385   2.456
82906SOL     OW50614  14.821  10.544   0.303
82906SOL    HW150615  14.731  10.572   0.287
82906SOL    HW250616   0.006  10.610   0.260
82907SOL     OW50617  13.564   6.516  14.180
82907SOL    HW150618  13.657   6.500  14.191
82907SOL    HW250619  13.528   6.518  14.269
82908SOL     OW50620   1.307   8.392  13.264
82908SOL    HW150621   1.242   8.439  13.316
82908SOL    HW250622   1.326   8.313  13.315
82909SOL     OW50623   9.274   9.448  10.730
82909SOL    HW150624   9.279   9.443  10.826
82909SOL    HW250625   9.292   9.540  10.710
82910SOL     OW50626   8.216   7.784  11.493
82910SOL    HW150627   8.134   7.764  11.539
82910SOL    HW250628   8.192   7.784  11.400
82911SOL     OW50629   6.563  12.516  13.841
82911SOL    HW150630   6.508  12.508  13.763
82911SOL    HW250631   6.653  12.521  13.807
82912SOL     OW50632   4.491   1.703  12.792
82912SOL    HW150633   4.536   1.739  12.716
82912SOL    HW250634   4.398   1.701  12.767
82913SOL     OW50635   7.847   7.269   4.395
82913SOL    HW150636   7.927   7.322   4.399
82913SOL    HW250637   7.856   7.207   4.467
82914SOL     OW50638  12.034   2.776   0.820
82914SOL    HW150639  12.099   2.844   0.839
82914SOL    HW250640  12.078   2.717   0.759
82915SOL     OW50641  11.554   0.993  14.772
82915SOL    HW150642  11.589   0.911  14.739
82915SOL    HW250643  11.460   0.987  14.756
82916SOL     OW50644   6.119  12.937  13.680
82916SOL    HW150645   6.070  12.907  13.756
82916SOL    HW250646   6.153  12.858  13.640
82917SOL     OW50647   8.575   7.831   8.410
82917SOL    HW150648   8.612   7.838   8.498
82917SOL    HW250649   8.519   7.753   8.413
82918SOL     OW50650   0.800  10.123   4.811
82918SOL    HW150651   0.716  10.078   4.817
82918SOL    HW250652   0.780  10.208   4.771
82919SOL     OW50653   7.423  14.034   5.028
82919SOL    HW150654   7.403  13.952   5.072
82919SOL    HW250655   7.518  14.033   5.016
82920SOL     OW50656   5.389   2.346   7.040
82920SOL    HW150657   5.382   2.389   7.126
82920SOL    HW250658   5.470   2.296   7.045
82921SOL     OW50659   8.232   8.212   3.244
82921SOL    HW150660   8.294   8.152   3.284
82921SOL    HW250661   8.189   8.160   3.176
82922SOL     OW50662   9.436   2.461  10.056
82922SOL    HW150663   9.488   2.493  10.130
82922SOL    HW250664   9.438   2.366  10.064
82923SOL     OW50665  14.664   7.034   7.640
82923SOL    HW150666  14.592   7.096   7.652
82923SOL    HW250667  14.622   6.954   7.609
82924SOL     OW50668   5.707  10.430   0.721
82924SOL    HW150669   5.685  10.467   0.806
82924SOL    HW250670   5.803  10.425   0.720
82925SOL     OW50671   4.421   4.250   7.389
82925SOL    HW150672   4.395   4.342   7.394
82925SOL    HW250673   4.501   4.250   7.335
82926SOL     OW50674  10.276   6.072  14.283
82926SOL    HW150675  10.184   6.057  14.304
82926SOL    HW250676  10.275   6.110  14.195
82927SOL     OW50677  13.707   9.697   1.986
82927SOL    HW150678  13.726   9.729   2.075
82927SOL    HW250679  13.764   9.749   1.930
82928SOL     OW50680  11.202   6.351  11.435
82928SOL    HW150681  11.257   6.318  11.364
82928SOL    HW250682  11.261   6.361  11.509
82929SOL     OW50683  11.570   3.845   2.485
82929SOL    HW150684  11.616   3.880   2.561
82929SOL    HW250685  11.586   3.751   2.489
82930SOL     OW50686  12.005  11.524  14.185
82930SOL    HW150687  11.966  11.554  14.267
82930SOL    HW250688  11.990  11.596  14.124
82931SOL     OW50689   0.311  13.351   1.498
82931SOL    HW150690   0.384  13.412   1.505
82931SOL    HW250691   0.292  13.326   1.589
82932SOL     OW50692   3.898  14.408   7.394
82932SOL    HW150693   3.908  14.482   7.453
82932SOL    HW250694   3.899  14.331   7.451
82933SOL     OW50695   1.347   4.027  13.996
82933SOL    HW150696   1.285   4.094  14.024
82933SOL    HW250697   1.339   3.958  14.062
82934SOL     OW50698   1.146   0.066   4.145
82934SOL    HW150699   1.204   0.043   4.073
82934SOL    HW250700   1.144  14.858   4.200
82935SOL     OW50701   3.980   6.716   0.421
82935SOL    HW150702   3.895   6.685   0.451
82935SOL    HW250703   4.028   6.735   0.502
82936SOL     OW50704  11.208  13.013   5.367
82936SOL    HW150705  11.267  12.988   5.439
82936SOL    HW250706  11.248  13.092   5.330
82937SOL     OW50707   6.404   5.320   0.146
82937SOL    HW150708   6.461   5.279   0.081
82937SOL    HW250709   6.366   5.396   0.101
82938SOL     OW50710   8.081   0.864   4.693
82938SOL    HW150711   8.089   0.851   4.599
82938SOL    HW250712   8.111   0.781   4.732
82939SOL     OW50713   1.981   5.961   0.230
82939SOL    HW150714   1.921   5.917   0.170
82939SOL    HW250715   2.068   5.932   0.202
82940SOL     OW50716   5.457  11.609   9.102
82940SOL    HW150717   5.533  11.621   9.159
82940SOL    HW250718   5.467  11.676   9.034
82941SOL     OW50719  10.519  10.897  11.618
82941SOL    HW150720  10.525  10.962  11.687
82941SOL    HW250721  10.550  10.816  11.659
82942SOL     OW50722   9.299  11.150   3.934
82942SOL    HW150723   9.284  11.174   4.025
82942SOL    HW250724   9.373  11.089   3.936
82943SOL     OW50725  10.331   0.744  12.983
82943SOL    HW150726  10.248   0.749  12.938
82943SOL    HW250727  10.391   0.797  12.930
82944SOL     OW50728  11.123   2.803   9.362
82944SOL    HW150729  11.134   2.810   9.268
82944SOL    HW250730  11.212   2.804   9.397
82945SOL     OW50731   4.013  14.138   3.608
82945SOL    HW150732   4.041  14.226   3.634
82945SOL    HW250733   4.090  14.083   3.621
82946SOL     OW50734   8.755  14.234  14.273
82946SOL    HW150735   8.823  14.246  14.339
82946SOL    HW250736   8.682  14.288  14.303
82947SOL     OW50737   8.314   8.640   9.204
82947SOL    HW150738   8.278   8.710   9.150
82947SOL    HW250739   8.315   8.563   9.146
82948SOL     OW50740   8.354  12.573   4.344
82948SOL    HW150741   8.334  12.479   4.343
82948SOL    HW250742   8.361  12.594   4.437
82949SOL     OW50743  14.710  11.187   4.428
82949SOL    HW150744  14.653  11.258   4.456
82949SOL    HW250745  14.781  11.230   4.381
82950SOL     OW50746   0.839   8.644   0.502
82950SOL    HW150747   0.751   8.681   0.497
82950SOL    HW250748   0.895   8.709   0.459
82951SOL     OW50749   9.100   1.173   3.801
82951SOL    HW150750   9.041   1.098   3.799
82951SOL    HW250751   9.185   1.139   3.772
82952SOL     OW50752   9.887   7.546   7.382
82952SOL    HW150753   9.844   7.607   7.321
82952SOL    HW250754   9.917   7.474   7.327
82953SOL     OW50755  10.657   3.267   5.837
82953SOL    HW150756  10.571   3.248   5.800
82953SOL    HW250757  10.638   3.311   5.920
82954SOL     OW50758   9.914   6.143   2.556
82954SOL    HW150759   9.941   6.060   2.516
82954SOL    HW250760   9.980   6.160   2.623
82955SOL     OW50761   5.431   4.199   9.020
82955SOL    HW150762   5.422   4.115   9.065
82955SOL    HW250763   5.521   4.199   8.988
82956SOL     OW50764  12.463   3.458  11.021
82956SOL    HW150765  12.509   3.538  11.046
82956SOL    HW250766  12.518   3.387  11.057
82957SOL     OW50767   8.196   6.841  13.263
82957SOL    HW150768   8.251   6.775  13.220
82957SOL    HW250769   8.117   6.845  13.209
82958SOL     OW50770  12.297   3.073   6.656
82958SOL    HW150771  12.377   3.116   6.625
82958SOL    HW250772  12.261   3.032   6.578
82959SOL     OW50773   2.388   3.676  10.541
82959SOL    HW150774   2.294   3.682  10.561
82959SOL    HW250775   2.398   3.725  10.459
82960SOL     OW50776  11.684  11.048  13.798
82960SOL    HW150777  11.717  10.959  13.787
82960SOL    HW250778  11.703  11.069  13.890
82961SOL     OW50779  11.473   7.643   2.797
82961SOL    HW150780  11.452   7.630   2.889
82961SOL    HW250781  11.563   7.610   2.788
82962SOL     OW50782   9.916   0.565  12.855
82962SOL    HW150783   9.909   0.562  12.759
82962SOL    HW250784   9.891   0.477  12.883
82963SOL     OW50785   6.598   9.074   9.335
82963SOL    HW150786   6.628   9.095   9.423
82963SOL    HW250787   6.547   8.993   9.346
82964SOL     OW50788   6.078  11.553  11.916
82964SOL    HW150789   6.071  11.463  11.949
82964SOL    HW250790   6.050  11.607  11.990
82965SOL     OW50791  12.924  14.025  11.879
82965SOL    HW150792  12.979  14.028  11.957
82965SOL    HW250793  12.977  14.063  11.810
82966SOL     OW50794  11.595   7.427   3.448
82966SOL    HW150795  11.525   7.371   3.483
82966SOL    HW250796  11.577   7.514   3.484
82967SOL     OW50797   1.239  13.622  11.832
82967SOL    HW150798   1.224  13.577  11.915
82967SOL    HW250799   1.214  13.559  11.765
82968SOL     OW50800  13.415  10.150  14.622
82968SOL    HW150801  13.489  10.090  14.612
82968SOL    HW250802  13.365  10.114  14.696
82969SOL     OW50803   8.466   7.862   0.319
82969SOL    HW150804   8.448   7.907   0.237
82969SOL    HW250805   8.408   7.786   0.317
82970SOL     OW50806   3.588  13.192   2.881
82970SOL    HW150807   3.535  13.209   2.959
82970SOL    HW250808   3.644  13.118   2.906
82971SOL     OW50809   5.019   5.417  14.210
82971SOL    HW150810   5.025   5.486  14.143
82971SOL    HW250811   4.945   5.444  14.265
82972SOL     OW50812   1.927  13.744   9.749
82972SOL    HW150813   1.868  13.669   9.739
82972SOL    HW250814   1.879  13.804   9.806
82973SOL     OW50815   5.283  14.582   6.816
82973SOL    HW150816   5.302  14.520   6.887
82973SOL    HW250817   5.206  14.546   6.772
82974SOL     OW50818   9.298   3.872   2.971
82974SOL    HW150819   9.373   3.896   2.918
82974SOL    HW250820   9.275   3.784   2.942
82975SOL     OW50821  10.950   7.256   6.347
82975SOL    HW150822  10.867   7.268   6.393
82975SOL    HW250823  10.972   7.343   6.313
82976SOL     OW50824  11.788   3.455   4.893
82976SOL    HW150825  11.868   3.503   4.914
82976SOL    HW250826  11.746   3.441   4.978
82977SOL     OW50827   6.818   0.049  10.626
82977SOL    HW150828   6.884   0.106  10.588
82977SOL    HW250829   6.830   0.058  10.721
82978SOL     OW50830   1.042   1.830   0.103
82978SOL    HW150831   1.035   1.901   0.038
82978SOL    HW250832   0.954   1.820   0.136
82979SOL     OW50833  10.857  12.856  13.203
82979SOL    HW150834  10.772  12.892  13.179
82979SOL    HW250835  10.844  12.761  13.203
82980SOL     OW50836   9.812   8.499   1.451
82980SOL    HW150837   9.855   8.508   1.366
82980SOL    HW250838   9.882   8.472   1.511
82981SOL     OW50839  13.428   8.603  10.748
82981SOL    HW150840  13.439   8.667  10.678
82981SOL    HW250841  13.514   8.561  10.755
82982SOL     OW50842   0.492   9.669  10.220
82982SOL    HW150843   0.525   9.725  10.150
82982SOL    HW250844   0.397   9.680  10.218
82983SOL     OW50845   8.406   4.291  11.352
82983SOL    HW150846   8.316   4.300  11.319
82983SOL    HW250847   8.435   4.380  11.366
82984SOL     OW50848  13.218   3.626   7.156
82984SOL    HW150849  13.313   3.620   7.147
82984SOL    HW250850  13.190   3.675   7.079
82985SOL     OW50851   6.492  12.995  11.663
82985SOL    HW150852   6.516  13.084  11.640
82985SOL    HW250853   6.435  13.004  11.740
82986SOL     OW50854   5.338   2.675   7.138
82986SOL    HW150855   5.338   2.654   7.045
82986SOL    HW250856   5.284   2.754   7.145
82987SOL     OW50857  10.661  12.237  12.698
82987SOL    HW150858  10.670  12.323  12.657
82987SOL    HW250859  10.749  12.200  12.695
82988SOL     OW50860   3.927   6.514   0.901
82988SOL    HW150861   3.916   6.517   0.996
82988SOL    HW250862   3.838   6.526   0.866
82989SOL     OW50863   0.066  12.301   3.512
82989SOL    HW150864   0.044  12.210   3.491
82989SOL    HW250865   0.140  12.322   3.454
82990SOL     OW50866   1.136  10.678  14.242
82990SOL    HW150867   1.195  10.748  14.214
82990SOL    HW250868   1.140  10.613  14.172
82991SOL     OW50869   1.287   0.841  13.835
82991SOL    HW150870   1.290   0.770  13.771
82991SOL    HW250871   1.211   0.821  13.889
82992SOL     OW50872   6.271   7.656  12.901
82992SOL    HW150873   6.286   7.665  12.807
82992SOL    HW250874   6.307   7.569  12.923
82993SOL     OW50875   5.207   4.920   7.570
82993SOL    HW150876   5.294   4.891   7.595
82993SOL    HW250877   5.218   4.959   7.483
82994SOL     OW50878   0.196   0.378   0.978
82994SOL    HW150879   0.259   0.352   0.911
82994SOL    HW250880   0.227   0.464   1.008
82995SOL     OW50881   3.900   4.328  10.555
82995SOL    HW150882   3.836   4.261  10.579
82995SOL    HW250883   3.978   4.307  10.605
82996SOL     OW50884  13.855   0.391   1.336
82996SOL    HW150885  13.876   0.484   1.333
82996SOL    HW250886  13.834   0.373   1.427
82997SOL     OW50887   8.475  10.128   4.886
82997SOL    HW150888   8.399  10.134   4.944
82997SOL    HW250889   8.549  10.149   4.942
82998SOL     OW50890  12.255   2.933   0.842
82998SOL    HW150891  12.317   2.862   0.826
82998SOL    HW250892  12.238   2.970   0.756
82999SOL     OW50893  12.198   1.346   8.446
82999SOL    HW150894  12.137   1.364   8.517
82999SOL    HW250895  12.161   1.271   8.400
83000SOL     OW50896   4.043  14.361   9.486
83000SOL    HW150897   3.950  14.354   9.509
83000SOL    HW250898   4.048  14.440   9.432
83001SOL     OW50899  11.543   4.640  10.607
83001SOL    HW150900  11.472   4.601  10.557
83001SOL    HW250901  11.620   4.631  10.550
83002SOL     OW50902  12.909  11.205   2.348
83002SOL    HW150903  12.827  11.222   2.392
83002SOL    HW250904  12.890  11.219   2.255
83003SOL     OW50905  14.464  14.431  12.170
83003SOL    HW150906  14.536  14.492  12.154
83003SOL    HW250907  14.404  14.477  12.228
83004SOL     OW50908  13.489   2.981   3.259
83004SOL    HW150909  13.462   3.052   3.200
83004SOL    HW250910  13.530   3.026   3.333
83005SOL     OW50911   9.970   3.209   3.567
83005SOL    HW150912  10.060   3.184   3.546
83005SOL    HW250913   9.936   3.247   3.486
83006SOL     OW50914  10.215  11.620  10.635
83006SOL    HW150915  10.277  11.693  10.628
83006SOL    HW250916  10.135  11.660  10.670
83007SOL     OW50917   3.194   9.724  12.396
83007SOL    HW150918   3.150   9.715  12.480
83007SOL    HW250919   3.227   9.813  12.395
83008SOL     OW50920   8.747   4.588   7.441
83008SOL    HW150921   8.688   4.516   7.418
83008SOL    HW250922   8.834   4.547   7.444
83009SOL     OW50923   7.958  14.854   6.584
83009SOL    HW150924   7.909  14.776   6.612
83009SOL    HW250925   8.047  14.822   6.568
83010SOL     OW50926   1.281   5.541   5.828
83010SOL    HW150927   1.334   5.616   5.801
83010SOL    HW250928   1.342   5.483   5.874
83011SOL     OW50929   2.812   1.583  11.236
83011SOL    HW150930   2.873   1.615  11.169
83011SOL    HW250931   2.764   1.660  11.265
83012SOL     OW50932  13.128   0.509   7.847
83012SOL    HW150933  13.149   0.429   7.798
83012SOL    HW250934  13.112   0.574   7.779
83013SOL     OW50935   6.847   9.344   2.241
83013SOL    HW150936   6.772   9.286   2.233
83013SOL    HW250937   6.918   9.288   2.273
83014SOL     OW50938   1.837   5.386  10.843
83014SOL    HW150939   1.922   5.389  10.799
83014SOL    HW250940   1.821   5.293  10.858
83015SOL     OW50941   5.777   2.090   0.902
83015SOL    HW150942   5.745   2.175   0.933
83015SOL    HW250943   5.698   2.043   0.875
83016SOL     OW50944   4.623  14.444   9.605
83016SOL    HW150945   4.679  14.521   9.592
83016SOL    HW250946   4.540  14.480   9.637
83017SOL     OW50947   1.645   1.106   5.943
83017SOL    HW150948   1.579   1.063   5.998
83017SOL    HW250949   1.608   1.192   5.924
83018SOL     OW50950   8.876   2.272  13.573
83018SOL    HW150951   8.948   2.224  13.614
83018SOL    HW250952   8.912   2.303  13.490
83019SOL     OW50953   0.806   2.865   3.303
83019SOL    HW150954   0.782   2.914   3.382
83019SOL    HW250955   0.882   2.813   3.329
83020SOL     OW50956   2.930   6.702   7.462
83020SOL    HW150957   2.909   6.736   7.375
83020SOL    HW250958   2.880   6.620   7.467
83021SOL     OW50959   0.085   3.279   5.201
83021SOL    HW150960   0.154   3.269   5.136
83021SOL    HW250961   0.131   3.300   5.283
83022SOL     OW50962   7.486   2.098   0.524
83022SOL    HW150963   7.436   2.093   0.606
83022SOL    HW250964   7.466   2.184   0.489
83023SOL     OW50965  10.392   0.692   4.192
83023SOL    HW150966  10.471   0.741   4.217
83023SOL    HW250967  10.322   0.758   4.193
83024SOL     OW50968   2.549   1.546   8.641
83024SOL    HW150969   2.495   1.471   8.665
83024SOL    HW250970   2.543   1.605   8.716
83025SOL     OW50971   8.489   2.257   6.715
83025SOL    HW150972   8.581   2.282   6.715
83025SOL    HW250973   8.466   2.253   6.808
83026SOL     OW50974   2.287   1.073  13.759
83026SOL    HW150975   2.266   1.165  13.742
83026SOL    HW250976   2.207   1.037  13.797
83027SOL     OW50977  11.132   8.473   3.740
83027SOL    HW150978  11.113   8.379   3.733
83027SOL    HW250979  11.100   8.497   3.827
83028SOL     OW50980   7.633  12.998   3.541
83028SOL    HW150981   7.618  12.979   3.448
83028SOL    HW250982   7.645  12.912   3.581
83029SOL     OW50983  14.033  14.055   6.094
83029SOL    HW150984  13.957  14.011   6.057
83029SOL    HW250985  14.109  14.010   6.056
83030SOL     OW50986   7.878  14.630   7.546
83030SOL    HW150987   7.867  14.704   7.486
83030SOL    HW250988   7.970  14.631   7.570
83031SOL     OW50989   0.132  13.387   0.119
83031SOL    HW150990   0.141  13.332   0.041
83031SOL    HW250991   0.104  13.327   0.187
83032SOL     OW50992   5.985  13.236   1.626
83032SOL    HW150993   5.947  13.197   1.705
83032SOL    HW250994   5.940  13.191   1.554
83033SOL     OW50995   5.685   5.229  11.348
83033SOL    HW150996   5.681   5.289  11.423
83033SOL    HW250997   5.639   5.275  11.278
83034SOL     OW50998   7.895   8.936   9.652
83034SOL    HW150999   7.900   8.869   9.583
83034SOL    HW251000   7.961   8.909   9.716
83035SOL     OW51001  12.955  10.747   8.018
83035SOL    HW151002  12.897  10.681   8.055
83035SOL    HW251003  12.962  10.814   8.086
83036SOL     OW51004   7.033   4.999   5.719
83036SOL    HW151005   6.972   5.066   5.690
83036SOL    HW251006   7.022   4.927   5.657
83037SOL     OW51007  10.192   6.198  13.764
83037SOL    HW151008  10.141   6.267  13.723
83037SOL    HW251009  10.241   6.158  13.692
83038SOL     OW51010  10.866  10.318   7.396
83038SOL    HW151011  10.774  10.291   7.397
83038SOL    HW251012  10.863  10.413   7.383
83039SOL     OW51013   6.726   2.915  12.861
83039SOL    HW151014   6.632   2.903  12.848
83039SOL    HW251015   6.764   2.830  12.841
83040SOL     OW51016   1.737   4.822   4.952
83040SOL    HW151017   1.709   4.903   4.910
83040SOL    HW251018   1.753   4.846   5.043
83041SOL     OW51019   4.772   6.030   8.684
83041SOL    HW151020   4.696   6.023   8.742
83041SOL    HW251021   4.735   6.046   8.598
83042SOL     OW51022  11.852  12.805   9.339
83042SOL    HW151023  11.933  12.757   9.356
83042SOL    HW251024  11.809  12.808   9.424
83043SOL     OW51025   1.112  12.856   3.583
83043SOL    HW151026   1.128  12.877   3.675
83043SOL    HW251027   1.059  12.928   3.550
83044SOL     OW51028   5.335  10.305   7.808
83044SOL    HW151029   5.331  10.291   7.902
83044SOL    HW251030   5.267  10.247   7.772
83045SOL     OW51031   3.545   8.413  13.915
83045SOL    HW151032   3.532   8.506  13.934
83045SOL    HW251033   3.495   8.398  13.835
83046SOL     OW51034   2.361   2.215   9.456
83046SOL    HW151035   2.374   2.209   9.361
83046SOL    HW251036   2.307   2.293   9.468
83047SOL     OW51037   6.242   3.222   3.488
83047SOL    HW151038   6.291   3.304   3.492
83047SOL    HW251039   6.248   3.195   3.396
83048SOL     OW51040   1.489   5.904   9.475
83048SOL    HW151041   1.432   5.836   9.440
83048SOL    HW251042   1.555   5.857   9.525
83049SOL     OW51043   7.449  11.690  11.896
83049SOL    HW151044   7.519  11.625  11.904
83049SOL    HW251045   7.456  11.721  11.805
83050SOL     OW51046   2.814  13.771   0.328
83050SOL    HW151047   2.738  13.791   0.273
83050SOL    HW251048   2.778  13.760   0.416
83051SOL     OW51049  13.210   3.970   5.479
83051SOL    HW151050  13.129   3.981   5.431
83051SOL    HW251051  13.235   3.878   5.464
83052SOL     OW51052  10.440   3.960   8.823
83052SOL    HW151053  10.366   3.931   8.770
83052SOL    HW251054  10.439   4.056   8.816
83053SOL     OW51055   0.303   8.985   7.840
83053SOL    HW151056   0.383   9.033   7.820
83053SOL    HW251057   0.323   8.894   7.817
83054SOL     OW51058   4.981   6.878   6.423
83054SOL    HW151059   4.926   6.848   6.351
83054SOL    HW251060   5.069   6.848   6.399
83055SOL     OW51061   7.559   2.191   1.741
83055SOL    HW151062   7.543   2.174   1.648
83055SOL    HW251063   7.649   2.160   1.757
83056SOL     OW51064   3.892   5.872   1.292
83056SOL    HW151065   3.903   5.944   1.230
83056SOL    HW251066   3.957   5.807   1.265
83057SOL     OW51067   0.225  14.064   7.241
83057SOL    HW151068   0.281  13.990   7.264
83057SOL    HW251069   0.201  14.050   7.150
83058SOL     OW51070   9.195  12.858   8.920
83058SOL    HW151071   9.242  12.815   8.848
83058SOL    HW251072   9.202  12.796   8.993
83059SOL     OW51073   4.657   6.707  12.859
83059SOL    HW151074   4.608   6.695  12.778
83059SOL    HW251075   4.729   6.644  12.853
83060SOL     OW51076  14.707   1.342  12.230
83060SOL    HW151077  14.764   1.272  12.263
83060SOL    HW251078  14.766   1.402  12.185
83061SOL     OW51079  12.339  14.530   8.115
83061SOL    HW151080  12.244  14.528   8.115
83061SOL    HW251081  12.365  14.438   8.117
83062SOL     OW51082  10.753   5.873  13.157
83062SOL    HW151083  10.677   5.929  13.166
83062SOL    HW251084  10.810   5.898  13.229
83063SOL     OW51085   5.035   7.434  13.046
83063SOL    HW151086   4.966   7.377  13.080
83063SOL    HW251087   4.996   7.477  12.970
83064SOL     OW51088   6.646   5.753  10.307
83064SOL    HW151089   6.665   5.749  10.401
83064SOL    HW251090   6.670   5.842  10.281
83065SOL     OW51091   1.537  12.582   6.528
83065SOL    HW151092   1.607  12.599   6.466
83065SOL    HW251093   1.475  12.526   6.481
83066SOL     OW51094   5.317   7.586   9.139
83066SOL    HW151095   5.279   7.523   9.200
83066SOL    HW251096   5.261   7.581   9.061
83067SOL     OW51097  11.440   3.077  14.701
83067SOL    HW151098  11.527   3.048  14.675
83067SOL    HW251099  11.414   3.016  14.770
83068SOL     OW51100   9.559  10.571   9.364
83068SOL    HW151101   9.534  10.663   9.351
83068SOL    HW251102   9.547  10.557   9.458
83069SOL     OW51103  12.258  13.078  13.246
83069SOL    HW151104  12.230  12.998  13.290
83069SOL    HW251105  12.195  13.090  13.175
83070SOL     OW51106   8.097  11.035   1.270
83070SOL    HW151107   8.066  10.953   1.230
83070SOL    HW251108   8.190  11.020   1.287
83071SOL     OW51109  13.742  12.549  10.136
83071SOL    HW151110  13.784  12.553  10.222
83071SOL    HW251111  13.811  12.518  10.078
83072SOL     OW51112   8.581   8.073   3.173
83072SOL    HW151113   8.624   8.062   3.089
83072SOL    HW251114   8.578   8.168   3.186
83073SOL     OW51115   5.821  12.934   4.400
83073SOL    HW151116   5.751  12.996   4.417
83073SOL    HW251117   5.872  12.974   4.330
83074SOL     OW51118   4.134   4.467   3.053
83074SOL    HW151119   4.143   4.552   3.096
83074SOL    HW251120   4.145   4.486   2.960
83075SOL     OW51121   0.170   4.746   5.633
83075SOL    HW151122   0.207   4.701   5.557
83075SOL    HW251123   0.228   4.820   5.648
83076SOL     OW51124   0.965  14.380   3.110
83076SOL    HW151125   1.022  14.370   3.186
83076SOL    HW251126   1.013  14.338   3.039
83077SOL     OW51127   3.766  11.683   7.220
83077SOL    HW151128   3.760  11.618   7.290
83077SOL    HW251129   3.702  11.750   7.244
83078SOL     OW51130  11.574   1.413   8.004
83078SOL    HW151131  11.633   1.372   7.942
83078SOL    HW251132  11.576   1.506   7.982
83079SOL     OW51133   6.535  13.146   3.459
83079SOL    HW151134   6.456  13.200   3.462
83079SOL    HW251135   6.556  13.140   3.366
83080SOL     OW51136  10.446   4.257   9.041
83080SOL    HW151137  10.375   4.322   9.040
83080SOL    HW251138  10.454   4.232   9.133
83081SOL     OW51139  14.173   2.377  10.861
83081SOL    HW151140  14.100   2.421  10.816
83081SOL    HW251141  14.167   2.286  10.834
83082SOL     OW51142  12.020   1.362   0.045
83082SOL    HW151143  11.990   1.433   0.102
83082SOL    HW251144  12.065   1.301   0.104
83083SOL     OW51145  10.636   9.037   9.839
83083SOL    HW151146  10.561   9.090   9.813
83083SOL    HW251147  10.662   8.991   9.759
83084SOL     OW51148   8.888   7.858   3.141
83084SOL    HW151149   8.826   7.840   3.212
83084SOL    HW251150   8.936   7.936   3.170
83085SOL     OW51151  14.479  10.926   0.154
83085SOL    HW151152  14.417  10.929   0.082
83085SOL    HW251153  14.436  10.970   0.227
83086SOL     OW51154   8.520  13.869   9.777
83086SOL    HW151155   8.607  13.831   9.769
83086SOL    HW251156   8.466  13.819   9.717
83087SOL     OW51157   7.519   0.947  14.492
83087SOL    HW151158   7.566   0.922  14.571
83087SOL    HW251159   7.582   0.932  14.421
83088SOL     OW51160   8.733   4.876  10.977
83088SOL    HW151161   8.733   4.783  11.000
83088SOL    HW251162   8.811   4.887  10.921
83089SOL     OW51163  11.689  12.456   6.300
83089SOL    HW151164  11.680  12.485   6.209
83089SOL    HW251165  11.692  12.361   6.294
83090SOL     OW51166   9.605  10.609  11.557
83090SOL    HW151167   9.646  10.656  11.484
83090SOL    HW251168   9.538  10.554  11.516
83091SOL     OW51169   6.351   4.145  11.774
83091SOL    HW151170   6.422   4.104  11.724
83091SOL    HW251171   6.324   4.220  11.722
83092SOL     OW51172   8.131  13.283  12.198
83092SOL    HW151173   8.222  13.266  12.174
83092SOL    HW251174   8.135  13.361  12.253
83093SOL     OW51175   5.900  11.787   7.285
83093SOL    HW151176   5.897  11.697   7.318
83093SOL    HW251177   5.967  11.786   7.218
83094SOL     OW51178  12.977   8.630  10.121
83094SOL    HW151179  12.986   8.551  10.068
83094SOL    HW251180  13.009   8.605  10.207
83095SOL     OW51181  11.067   0.417  12.492
83095SOL    HW151182  11.093   0.509  12.499
83095SOL    HW251183  11.148   0.371  12.468
83096SOL     OW51184  12.213  12.433   5.490
83096SOL    HW151185  12.218  12.522   5.523
83096SOL    HW251186  12.183  12.381   5.564
83097SOL     OW51187  14.242   8.224   6.690
83097SOL    HW151188  14.150   8.214   6.668
83097SOL    HW251189  14.272   8.135   6.710
83098SOL     OW51190  13.437   4.265   9.111
83098SOL    HW151191  13.403   4.353   9.131
83098SOL    HW251192  13.526   4.280   9.080
83099SOL     OW51193   7.736  10.593   4.718
83099SOL    HW151194   7.763  10.681   4.744
83099SOL    HW251195   7.644  10.588   4.744
83100SOL     OW51196   1.370  13.701   1.502
83100SOL    HW151197   1.460  13.699   1.469
83100SOL    HW251198   1.378  13.671   1.593
83101SOL     OW51199   2.345   1.825   0.793
83101SOL    HW151200   2.322   1.882   0.720
83101SOL    HW251201   2.352   1.885   0.868
83102SOL     OW51202   1.356   0.425  10.445
83102SOL    HW151203   1.315   0.348  10.483
83102SOL    HW251204   1.423   0.451  10.508
83103SOL     OW51205   1.903   0.035  13.629
83103SOL    HW151206   1.900  14.818  13.670
83103SOL    HW251207   1.992   0.066  13.646
83104SOL     OW51208   0.970   8.935  13.457
83104SOL    HW151209   0.953   8.922  13.364
83104SOL    HW251210   0.991   9.028  13.464
83105SOL     OW51211   7.256  11.805   5.375
83105SOL    HW151212   7.300  11.889   5.362
83105SOL    HW251213   7.163  11.826   5.373
83106SOL     OW51214  14.571   6.402  10.653
83106SOL    HW151215  14.510   6.447  10.593
83106SOL    HW251216  14.648   6.385  10.599
83107SOL     OW51217   3.065   7.900   8.421
83107SOL    HW151218   3.012   7.973   8.454
83107SOL    HW251219   3.001   7.839   8.384
83108SOL     OW51220  13.580   3.659   3.474
83108SOL    HW151221  13.651   3.630   3.416
83108SOL    HW251222  13.519   3.704   3.416
83109SOL     OW51223   3.454   1.395  10.220
83109SOL    HW151224   3.501   1.312  10.230
83109SOL    HW251225   3.518   1.462  10.244
83110SOL     OW51226   2.983   1.942   8.977
83110SOL    HW151227   3.077   1.958   8.974
83110SOL    HW251228   2.947   1.997   8.907
83111SOL     OW51229   6.519   9.489   1.596
83111SOL    HW151230   6.519   9.520   1.505
83111SOL    HW251231   6.524   9.569   1.648
83112SOL     OW51232   3.533   9.068  14.054
83112SOL    HW151233   3.573   9.058  14.140
83112SOL    HW251234   3.604   9.097  13.997
83113SOL     OW51235   2.686   6.688  11.922
83113SOL    HW151236   2.639   6.671  11.841
83113SOL    HW251237   2.775   6.709  11.894
83114SOL     OW51238   2.579   2.788   5.367
83114SOL    HW151239   2.491   2.761   5.392
83114SOL    HW251240   2.580   2.883   5.378
83115SOL     OW51241  10.432  10.166  11.795
83115SOL    HW151242  10.451  10.150  11.887
83115SOL    HW251243  10.345  10.206  11.796
83116SOL     OW51244   8.780   7.769   9.302
83116SOL    HW151245   8.721   7.703   9.266
83116SOL    HW251246   8.838   7.792   9.230
83117SOL     OW51247   0.459  12.132   0.701
83117SOL    HW151248   0.412  12.201   0.653
83117SOL    HW251249   0.478  12.066   0.635
83118SOL     OW51250  11.658  12.261   8.778
83118SOL    HW151251  11.723  12.269   8.707
83118SOL    HW251252  11.597  12.195   8.747
83119SOL     OW51253  13.330   1.664   5.352
83119SOL    HW151254  13.317   1.615   5.434
83119SOL    HW251255  13.401   1.725   5.372
83120SOL     OW51256  14.213   9.468   7.518
83120SOL    HW151257  14.267   9.524   7.574
83120SOL    HW251258  14.276   9.413   7.471
83121SOL     OW51259   1.018   0.204   8.279
83121SOL    HW151260   1.015   0.212   8.184
83121SOL    HW251261   1.027   0.294   8.310
83122SOL     OW51262   7.499   5.051   7.596
83122SOL    HW151263   7.561   5.036   7.524
83122SOL    HW251264   7.543   5.115   7.652
83123SOL     OW51265   3.600  13.556   6.375
83123SOL    HW151266   3.536  13.613   6.332
83123SOL    HW251267   3.556  13.471   6.381
83124SOL     OW51268   6.775   2.245   3.998
83124SOL    HW151269   6.851   2.303   3.992
83124SOL    HW251270   6.803   2.176   4.058
83125SOL     OW51271   1.159   2.995   3.122
83125SOL    HW151272   1.124   2.908   3.104
83125SOL    HW251273   1.083   3.053   3.118
83126SOL     OW51274  10.124   2.098   6.893
83126SOL    HW151275  10.070   2.024   6.865
83126SOL    HW251276  10.061   2.169   6.907
83127SOL     OW51277   1.316   1.367  12.844
83127SOL    HW151278   1.394   1.421  12.831
83127SOL    HW251279   1.252   1.427  12.882
83128SOL     OW51280   8.755   9.019   7.553
83128SOL    HW151281   8.833   8.966   7.543
83128SOL    HW251282   8.697   8.990   7.483
83129SOL     OW51283  13.978   0.278   4.072
83129SOL    HW151284  13.938   0.365   4.077
83129SOL    HW251285  13.918   0.222   4.121
83130SOL     OW51286   8.042  10.469   6.838
83130SOL    HW151287   8.050  10.470   6.933
83130SOL    HW251288   8.094  10.394   6.810
83131SOL     OW51289   7.714   4.847  11.216
83131SOL    HW151290   7.779   4.916  11.204
83131SOL    HW251291   7.747   4.795  11.289
83132SOL     OW51292  14.730   3.836   7.256
83132SOL    HW151293  14.698   3.874   7.174
83132SOL    HW251294  14.821   3.811   7.236
83133SOL     OW51295  12.734  10.480   0.310
83133SOL    HW151296  12.744  10.535   0.232
83133SOL    HW251297  12.700  10.538   0.377
83134SOL     OW51298   1.528   0.733   7.972
83134SOL    HW151299   1.594   0.677   8.012
83134SOL    HW251300   1.468   0.672   7.928
83135SOL     OW51301  14.286  11.013   2.243
83135SOL    HW151302  14.326  10.958   2.312
83135SOL    HW251303  14.356  11.024   2.179
83136SOL     OW51304  13.471   3.188   7.906
83136SOL    HW151305  13.386   3.232   7.894
83136SOL    HW251306  13.527   3.255   7.945
83137SOL     OW51307   9.080   7.639   8.403
83137SOL    HW151308   9.115   7.653   8.491
83137SOL    HW251309   9.034   7.721   8.383
83138SOL     OW51310  10.505   6.486  13.213
83138SOL    HW151311  10.477   6.428  13.284
83138SOL    HW251312  10.589   6.521  13.243
83139SOL     OW51313   3.178  11.673  13.130
83139SOL    HW151314   3.165  11.736  13.202
83139SOL    HW251315   3.273  11.669  13.119
83140SOL     OW51316  10.458  12.771  12.947
83140SOL    HW151317  10.530  12.708  12.950
83140SOL    HW251318  10.420  12.760  12.860
83141SOL     OW51319  14.582   7.898   5.253
83141SOL    HW151320  14.665   7.854   5.273
83141SOL    HW251321  14.525   7.876   5.327
83142SOL     OW51322   1.031   0.637   8.648
83142SOL    HW151323   1.045   0.544   8.629
83142SOL    HW251324   0.939   0.652   8.629
83143SOL     OW51325  10.366   1.373   6.709
83143SOL    HW151326  10.423   1.446   6.734
83143SOL    HW251327  10.410   1.295   6.745
83144SOL     OW51328   0.504  11.848   2.500
83144SOL    HW151329   0.473  11.803   2.422
83144SOL    HW251330   0.466  11.799   2.573
83145SOL     OW51331   7.424   1.645  13.703
83145SOL    HW151332   7.444   1.672  13.613
83145SOL    HW251333   7.465   1.559  13.712
83146SOL     OW51334  13.647   2.530   8.606
83146SOL    HW151335  13.730   2.572   8.584
83146SOL    HW251336  13.617   2.575   8.685
83147SOL     OW51337  12.702   9.949   6.365
83147SOL    HW151338  12.715  10.043   6.360
83147SOL    HW251339  12.712   9.928   6.458
83148SOL     OW51340  10.244   2.528   9.867
83148SOL    HW151341  10.188   2.458   9.899
83148SOL    HW251342  10.270   2.500   9.780
83149SOL     OW51343   8.085  11.165   3.015
83149SOL    HW151344   8.143  11.156   3.091
83149SOL    HW251345   7.997  11.154   3.051
83150SOL     OW51346   3.100  10.868  11.575
83150SOL    HW151347   3.088  10.775  11.559
83150SOL    HW251348   3.053  10.912  11.504
83151SOL     OW51349  14.597   0.536   5.094
83151SOL    HW151350  14.532   0.605   5.081
83151SOL    HW251351  14.652   0.539   5.017
83152SOL     OW51352  12.824   9.150  13.103
83152SOL    HW151353  12.812   9.057  13.121
83152SOL    HW251354  12.749   9.193  13.145
83153SOL     OW51355  10.334   4.341  10.026
83153SOL    HW151356  10.373   4.287  10.095
83153SOL    HW251357  10.291   4.279   9.968
83154SOL     OW51358   3.483  10.111  11.150
83154SOL    HW151359   3.455  10.153  11.068
83154SOL    HW251360   3.545  10.044  11.123
83155SOL     OW51361   0.473   2.706   8.908
83155SOL    HW151362   0.434   2.785   8.872
83155SOL    HW251363   0.405   2.639   8.899
83156SOL     OW51364   0.944   4.968   0.241
83156SOL    HW151365   0.990   5.000   0.163
83156SOL    HW251366   0.899   5.045   0.276
83157SOL     OW51367   5.307   1.139  13.320
83157SOL    HW151368   5.400   1.125  13.303
83157SOL    HW251369   5.271   1.051  13.333
83158SOL     OW51370   5.224   5.035   1.890
83158SOL    HW151371   5.215   5.018   1.984
83158SOL    HW251372   5.318   5.037   1.875
83159SOL     OW51373   4.595   9.183   5.716
83159SOL    HW151374   4.512   9.169   5.671
83159SOL    HW251375   4.611   9.102   5.763
83160SOL     OW51376  10.900  10.750   3.508
83160SOL    HW151377  10.888  10.658   3.486
83160SOL    HW251378  10.993  10.767   3.492
83161SOL     OW51379   1.126   3.427   0.444
83161SOL    HW151380   1.203   3.373   0.428
83161SOL    HW251381   1.154   3.489   0.511
83162SOL     OW51382   1.922   6.424   8.432
83162SOL    HW151383   1.883   6.420   8.519
83162SOL    HW251384   1.849   6.442   8.373
83163SOL     OW51385   1.327  13.670   4.828
83163SOL    HW151386   1.368  13.599   4.780
83163SOL    HW251387   1.253  13.630   4.874
83164SOL     OW51388   7.168   8.295   8.302
83164SOL    HW151389   7.085   8.323   8.339
83164SOL    HW251390   7.198   8.370   8.250
83165SOL     OW51391   9.431   3.319  12.424
83165SOL    HW151392   9.487   3.247  12.398
83165SOL    HW251393   9.404   3.360  12.341
83166SOL     OW51394   5.213   5.342  12.753
83166SOL    HW151395   5.237   5.316  12.665
83166SOL    HW251396   5.166   5.267  12.789
83167SOL     OW51397  14.244   7.321   2.767
83167SOL    HW151398  14.244   7.335   2.861
83167SOL    HW251399  14.332   7.348   2.739
83168SOL     OW51400   0.204   7.273   5.306
83168SOL    HW151401   0.157   7.304   5.384
83168SOL    HW251402   0.294   7.304   5.319
83169SOL     OW51403   5.395   2.466   8.303
83169SOL    HW151404   5.438   2.550   8.291
83169SOL    HW251405   5.314   2.473   8.254
83170SOL     OW51406   1.638  12.953  11.196
83170SOL    HW151407   1.644  13.048  11.207
83170SOL    HW251408   1.680  12.936  11.112
83171SOL     OW51409   5.236   6.571  13.730
83171SOL    HW151410   5.201   6.508  13.666
83171SOL    HW251411   5.250   6.651  13.679
83172SOL     OW51412   4.894   3.205  11.073
83172SOL    HW151413   4.824   3.143  11.054
83172SOL    HW251414   4.861   3.255  11.149
83173SOL     OW51415   9.275  11.158  11.595
83173SOL    HW151416   9.273  11.128  11.686
83173SOL    HW251417   9.344  11.225  11.594
83174SOL     OW51418  10.405   7.264  10.515
83174SOL    HW151419  10.352   7.266  10.435
83174SOL    HW251420  10.495   7.255  10.484
83175SOL     OW51421  11.056  12.750  10.361
83175SOL    HW151422  11.144  12.778  10.332
83175SOL    HW251423  11.027  12.821  10.418
83176SOL     OW51424   8.971   4.892  13.700
83176SOL    HW151425   8.926   4.809  13.685
83176SOL    HW251426   8.965   4.939  13.617
83177SOL     OW51427  13.812   8.979   9.945
83177SOL    HW151428  13.796   8.935  10.028
83177SOL    HW251429  13.799   9.072   9.964
83178SOL     OW51430  14.476   6.383  12.517
83178SOL    HW151431  14.422   6.453  12.480
83178SOL    HW251432  14.421   6.344  12.584
83179SOL     OW51433   1.867  13.583   1.203
83179SOL    HW151434   1.957  13.557   1.223
83179SOL    HW251435   1.861  13.576   1.108
83180SOL     OW51436   7.838   8.335  13.580
83180SOL    HW151437   7.788   8.360  13.657
83180SOL    HW251438   7.773   8.304  13.517
83181SOL     OW51439   5.930   1.180   6.984
83181SOL    HW151440   5.948   1.201   7.075
83181SOL    HW251441   5.938   1.084   6.979
83182SOL     OW51442   9.243   6.066   5.285
83182SOL    HW151443   9.287   5.987   5.317
83182SOL    HW251444   9.246   6.058   5.190
83183SOL     OW51445   0.314  13.639   4.428
83183SOL    HW151446   0.386  13.680   4.381
83183SOL    HW251447   0.336  13.545   4.428
83184SOL     OW51448  11.467   0.261   9.199
83184SOL    HW151449  11.460   0.220   9.285
83184SOL    HW251450  11.439   0.352   9.214
83185SOL     OW51451  11.786   5.524  11.834
83185SOL    HW151452  11.853   5.590  11.815
83185SOL    HW251453  11.794   5.461  11.762
83186SOL     OW51454  14.219  14.750   1.126
83186SOL    HW151455  14.149  14.772   1.188
83186SOL    HW251456  14.177  14.693   1.062
83187SOL     OW51457   5.321  11.082   9.825
83187SOL    HW151458   5.247  11.107   9.881
83187SOL    HW251459   5.398  11.093   9.881
83188SOL     OW51460  10.276   3.782   3.866
83188SOL    HW151461  10.192   3.748   3.896
83188SOL    HW251462  10.257   3.871   3.836
83189SOL     OW51463   0.665   1.292  11.172
83189SOL    HW151464   0.681   1.349  11.097
83189SOL    HW251465   0.721   1.216  11.157
83190SOL     OW51466  14.772  11.850   1.909
83190SOL    HW151467  14.697  11.791   1.900
83190SOL    HW251468  14.735  11.931   1.945
83191SOL     OW51469  12.142  14.096  11.572
83191SOL    HW151470  12.132  14.017  11.625
83191SOL    HW251471  12.159  14.165  11.636
83192SOL     OW51472  12.525   9.602   7.793
83192SOL    HW151473  12.571   9.669   7.744
83192SOL    HW251474  12.511   9.531   7.730
83193SOL     OW51475   9.467   1.122  14.243
83193SOL    HW151476   9.461   1.078  14.158
83193SOL    HW251477   9.481   1.214  14.222
83194SOL     OW51478  11.295   6.299   9.077
83194SOL    HW151479  11.291   6.205   9.057
83194SOL    HW251480  11.209   6.319   9.115
83195SOL     OW51481   1.729   8.328   1.783
83195SOL    HW151482   1.711   8.421   1.798
83195SOL    HW251483   1.671   8.305   1.710
83196SOL     OW51484   1.447   6.841   6.124
83196SOL    HW151485   1.468   6.935   6.125
83196SOL    HW251486   1.418   6.822   6.213
83197SOL     OW51487   7.200  10.410   5.776
83197SOL    HW151488   7.180  10.503   5.772
83197SOL    HW251489   7.135  10.370   5.718
83198SOL     OW51490   9.947   6.178   4.638
83198SOL    HW151491  10.011   6.238   4.600
83198SOL    HW251492   9.977   6.163   4.727
83199SOL     OW51493   8.451   3.827   4.483
83199SOL    HW151494   8.501   3.816   4.564
83199SOL    HW251495   8.363   3.795   4.505
83200SOL     OW51496   6.482   8.683   0.728
83200SOL    HW151497   6.492   8.730   0.645
83200SOL    HW251498   6.467   8.752   0.793
83201SOL     OW51499   4.345   4.243   2.944
83201SOL    HW151500   4.260   4.270   2.979
83201SOL    HW251501   4.327   4.215   2.854
83202SOL     OW51502   5.061   1.617   3.443
83202SOL    HW151503   5.030   1.559   3.513
83202SOL    HW251504   5.059   1.563   3.364
83203SOL     OW51505  11.662   2.509   8.825
83203SOL    HW151506  11.720   2.461   8.766
83203SOL    HW251507  11.714   2.585   8.853
83204SOL     OW51508   4.254  11.293  11.236
83204SOL    HW151509   4.174  11.275  11.186
83204SOL    HW251510   4.325  11.274  11.176
83205SOL     OW51511   4.114  14.497  13.732
83205SOL    HW151512   4.110  14.447  13.814
83205SOL    HW251513   4.043  14.560  13.738
83206SOL     OW51514   9.833  10.880  11.397
83206SOL    HW151515   9.852  10.868  11.490
83206SOL    HW251516   9.751  10.930  11.395
83207SOL     OW51517  13.994   4.968   6.362
83207SOL    HW151518  13.914   4.974   6.310
83207SOL    HW251519  13.968   5.001   6.449
83208SOL     OW51520  11.033   5.893   6.576
83208SOL    HW151521  11.065   5.927   6.493
83208SOL    HW251522  10.968   5.956   6.605
83209SOL     OW51523   6.159   6.724   5.069
83209SOL    HW151524   6.136   6.804   5.116
83209SOL    HW251525   6.183   6.753   4.981
83210SOL     OW51526   9.839  12.017   1.493
83210SOL    HW151527   9.818  11.924   1.504
83210SOL    HW251528   9.900  12.020   1.420
83211SOL     OW51529   4.610  13.845  11.331
83211SOL    HW151530   4.547  13.784  11.368
83211SOL    HW251531   4.669  13.790  11.279
83212SOL     OW51532   8.403   2.008   8.524
83212SOL    HW151533   8.314   1.974   8.516
83212SOL    HW251534   8.457   1.929   8.534
83213SOL     OW51535   2.858   9.108   4.457
83213SOL    HW151536   2.867   9.134   4.549
83213SOL    HW251537   2.901   9.179   4.409
83214SOL     OW51538   0.979   4.967  12.904
83214SOL    HW151539   0.891   4.955  12.868
83214SOL    HW251540   0.979   5.057  12.935
83215SOL     OW51541   2.903  14.307   7.913
83215SOL    HW151542   2.930  14.349   7.832
83215SOL    HW251543   2.837  14.366   7.950
83216SOL     OW51544   5.856   2.762   7.665
83216SOL    HW151545   5.790   2.829   7.646
83216SOL    HW251546   5.827   2.723   7.748
83217SOL     OW51547   0.361   0.911  14.662
83217SOL    HW151548   0.378   0.817  14.652
83217SOL    HW251549   0.446   0.952  14.646
83218SOL     OW51550   2.885   8.289   7.465
83218SOL    HW151551   2.959   8.265   7.521
83218SOL    HW251552   2.924   8.305   7.379
83219SOL     OW51553  12.101  11.443  13.635
83219SOL    HW151554  12.070  11.518  13.585
83219SOL    HW251555  12.135  11.481  13.717
83220SOL     OW51556  10.131   6.442   6.371
83220SOL    HW151557  10.128   6.516   6.310
83220SOL    HW251558  10.185   6.377   6.326
83221SOL     OW51559   2.307   4.972  12.947
83221SOL    HW151560   2.213   4.984  12.934
83221SOL    HW251561   2.322   4.878  12.932
83222SOL     OW51562   1.076   3.589  10.954
83222SOL    HW151563   1.145   3.534  10.990
83222SOL    HW251564   1.008   3.589  11.022
83223SOL     OW51565   5.640   4.653   0.787
83223SOL    HW151566   5.646   4.642   0.882
83223SOL    HW251567   5.556   4.613   0.763
83224SOL     OW51568   5.246   1.550  14.157
83224SOL    HW151569   5.254   1.621  14.221
83224SOL    HW251570   5.188   1.586  14.089
83225SOL     OW51571   1.208  11.585   3.791
83225SOL    HW151572   1.301  11.599   3.809
83225SOL    HW251573   1.167  11.581   3.877
83226SOL     OW51574  14.649  14.754   7.401
83226SOL    HW151575  14.618  14.755   7.311
83226SOL    HW251576  14.669  14.662   7.419
83227SOL     OW51577  12.437   8.283  14.137
83227SOL    HW151578  12.452   8.198  14.178
83227SOL    HW251579  12.342   8.291  14.132
83228SOL     OW51580   5.431   7.587   4.638
83228SOL    HW151581   5.355   7.560   4.588
83228SOL    HW251582   5.498   7.522   4.616
83229SOL     OW51583   0.997   9.545  14.847
83229SOL    HW151584   0.965   9.457  14.866
83229SOL    HW251585   1.031   9.540  14.758
83230SOL     OW51586   4.830   5.976   7.818
83230SOL    HW151587   4.901   5.921   7.785
83230SOL    HW251588   4.806   5.936   7.902
83231SOL     OW51589   7.553   8.434   2.818
83231SOL    HW151590   7.627   8.465   2.766
83231SOL    HW251591   7.556   8.487   2.898
83232SOL     OW51592   4.145   6.230   0.501
83232SOL    HW151593   4.122   6.295   0.568
83232SOL    HW251594   4.153   6.148   0.550
83233SOL     OW51595   3.182   3.454  10.505
83233SOL    HW151596   3.180   3.505  10.587
83233SOL    HW251597   3.124   3.502  10.446
83234SOL     OW51598  13.902   9.698  12.931
83234SOL    HW151599  13.967   9.756  12.890
83234SOL    HW251600  13.953   9.637  12.983
83235SOL     OW51601   2.035   0.417   3.498
83235SOL    HW151602   2.100   0.416   3.428
83235SOL    HW251603   2.023   0.510   3.518
83236SOL     OW51604  12.986   5.800  12.653
83236SOL    HW151605  12.979   5.858  12.729
83236SOL    HW251606  13.006   5.714  12.690
83237SOL     OW51607   9.063  10.502  12.346
83237SOL    HW151608   8.997  10.543  12.290
83237SOL    HW251609   9.070  10.560  12.421
83238SOL     OW51610  14.057  12.376  12.858
83238SOL    HW151611  14.005  12.426  12.794
83238SOL    HW251612  13.996  12.311  12.893
83239SOL     OW51613   1.783   0.571   9.408
83239SOL    HW151614   1.776   0.487   9.362
83239SOL    HW251615   1.870   0.603   9.387
83240SOL     OW51616   7.475  12.382   4.742
83240SOL    HW151617   7.412  12.310   4.748
83240SOL    HW251618   7.422  12.459   4.722
83241SOL     OW51619  13.683  10.273   5.186
83241SOL    HW151620  13.596  10.253   5.220
83241SOL    HW251621  13.680  10.248   5.094
83242SOL     OW51622  11.347  13.403  14.184
83242SOL    HW151623  11.256  13.385  14.160
83242SOL    HW251624  11.341  13.479  14.243
83243SOL     OW51625  12.176  11.754   4.866
83243SOL    HW151626  12.203  11.817   4.799
83243SOL    HW251627  12.141  11.680   4.816
83244SOL     OW51628  14.617   9.276   4.827
83244SOL    HW151629  14.708   9.304   4.815
83244SOL    HW251630  14.608   9.197   4.774
83245SOL     OW51631   5.204   9.457   1.068
83245SOL    HW151632   5.155   9.536   1.090
83245SOL    HW251633   5.284   9.489   1.027
83246SOL     OW51634   8.920   5.413  12.923
83246SOL    HW151635   8.834   5.417  12.966
83246SOL    HW251636   8.904   5.363  12.843
83247SOL     OW51637  10.895   4.745   5.780
83247SOL    HW151638  10.829   4.731   5.712
83247SOL    HW251639  10.894   4.840   5.795
83248SOL     OW51640  10.564  10.826   3.911
83248SOL    HW151641  10.532  10.818   3.821
83248SOL    HW251642  10.654  10.793   3.908
83249SOL     OW51643   2.334  12.425   1.083
83249SOL    HW151644   2.272  12.415   1.010
83249SOL    HW251645   2.404  12.362   1.064
83250SOL     OW51646  10.799  11.969  10.322
83250SOL    HW151647  10.880  12.000  10.363
83250SOL    HW251648  10.732  12.030  10.351
83251SOL     OW51649  14.602  10.044   4.705
83251SOL    HW151650  14.690  10.036   4.743
83251SOL    HW251651  14.546  10.066   4.780
83252SOL     OW51652  14.835  11.505   1.132
83252SOL    HW151653  14.818  11.558   1.054
83252SOL    HW251654  14.849  11.416   1.097
83253SOL     OW51655   7.670   4.952   8.012
83253SOL    HW151656   7.658   4.910   8.097
83253SOL    HW251657   7.650   4.883   7.948
83254SOL     OW51658   1.197   0.336  11.402
83254SOL    HW151659   1.279   0.339  11.453
83254SOL    HW251660   1.133   0.297  11.462
83255SOL     OW51661   0.221   2.930   5.660
83255SOL    HW151662   0.238   3.009   5.710
83255SOL    HW251663   0.308   2.898   5.635
83256SOL     OW51664   1.434   8.969  10.169
83256SOL    HW151665   1.436   8.935  10.258
83256SOL    HW251666   1.476   9.054  10.174
83257SOL     OW51667   8.711   6.697   8.731
83257SOL    HW151668   8.779   6.704   8.663
83257SOL    HW251669   8.698   6.787   8.761
83258SOL     OW51670   0.381  11.549   6.860
83258SOL    HW151671   0.320  11.519   6.792
83258SOL    HW251672   0.466  11.515   6.833
83259SOL     OW51673  12.933   1.273   2.092
83259SOL    HW151674  13.018   1.254   2.132
83259SOL    HW251675  12.941   1.363   2.061
83260SOL     OW51676   6.943   5.240  11.227
83260SOL    HW151677   6.872   5.302  11.243
83260SOL    HW251678   6.953   5.193  11.310
83261SOL     OW51679   1.145  13.603   2.082
83261SOL    HW151680   1.087  13.658   2.135
83261SOL    HW251681   1.223  13.590   2.137
83262SOL     OW51682  12.536   4.185   0.463
83262SOL    HW151683  12.584   4.113   0.503
83262SOL    HW251684  12.547   4.173   0.369
83263SOL     OW51685   5.278   6.770   5.547
83263SOL    HW151686   5.214   6.732   5.487
83263SOL    HW251687   5.240   6.854   5.572
83264SOL     OW51688   7.770   5.969  10.382
83264SOL    HW151689   7.728   5.963  10.467
83264SOL    HW251690   7.808   6.057  10.380
83265SOL     OW51691  13.116   9.649   1.675
83265SOL    HW151692  13.153   9.704   1.606
83265SOL    HW251693  13.161   9.565   1.664
83266SOL     OW51694   0.493   0.100   9.360
83266SOL    HW151695   0.514   0.054   9.279
83266SOL    HW251696   0.423   0.161   9.335
83267SOL     OW51697   3.373   7.571   5.777
83267SOL    HW151698   3.412   7.626   5.709
83267SOL    HW251699   3.447   7.533   5.823
83268SOL     OW51700   1.957   8.777  12.123
83268SOL    HW151701   2.032   8.738  12.078
83268SOL    HW251702   1.881   8.746  12.074
83269SOL     OW51703  11.504  11.903   5.160
83269SOL    HW151704  11.575  11.839   5.169
83269SOL    HW251705  11.468  11.887   5.073
83270SOL     OW51706   2.015   8.959   3.539
83270SOL    HW151707   1.940   8.930   3.487
83270SOL    HW251708   2.088   8.904   3.509
83271SOL     OW51709  11.358   8.042  13.425
83271SOL    HW151710  11.351   8.116  13.484
83271SOL    HW251711  11.420   8.070  13.357
83272SOL     OW51712  14.557   5.665   7.096
83272SOL    HW151713  14.541   5.683   7.003
83272SOL    HW251714  14.634   5.717   7.118
83273SOL     OW51715   3.399  14.174   3.240
83273SOL    HW151716   3.452  14.097   3.259
83273SOL    HW251717   3.394  14.177   3.144
83274SOL     OW51718  13.423   1.109   1.732
83274SOL    HW151719  13.431   1.186   1.787
83274SOL    HW251720  13.477   1.042   1.776
83275SOL     OW51721   4.884  10.648   5.265
83275SOL    HW151722   4.811  10.622   5.210
83275SOL    HW251723   4.960  10.648   5.207
83276SOL     OW51724  13.061  11.460   1.685
83276SOL    HW151725  13.156  11.458   1.669
83276SOL    HW251726  13.031  11.539   1.640
83277SOL     OW51727   5.880   4.429   1.082
83277SOL    HW151728   5.831   4.371   1.024
83277SOL    HW251729   5.839   4.515   1.070
83278SOL     OW51730  11.271  13.169   6.337
83278SOL    HW151731  11.311  13.132   6.259
83278SOL    HW251732  11.200  13.225   6.303
83279SOL     OW51733  12.017  13.456   7.983
83279SOL    HW151734  11.961  13.409   8.045
83279SOL    HW251735  11.972  13.538   7.966
83280SOL     OW51736   5.450   5.984   2.621
83280SOL    HW151737   5.523   6.039   2.651
83280SOL    HW251738   5.424   6.023   2.538
83281SOL     OW51739   6.097   0.953   8.876
83281SOL    HW151740   6.176   0.911   8.842
83281SOL    HW251741   6.127   1.007   8.949
83282SOL     OW51742  14.697   0.435  14.082
83282SOL    HW151743  14.708   0.522  14.044
83282SOL    HW251744  14.769   0.384  14.046
83283SOL     OW51745  14.306   3.102  12.859
83283SOL    HW151746  14.317   3.055  12.776
83283SOL    HW251747  14.227   3.154  12.847
83284SOL     OW51748   4.830   1.758   6.580
83284SOL    HW151749   4.866   1.846   6.582
83284SOL    HW251750   4.904   1.700   6.598
83285SOL     OW51751  12.879  10.321   8.351
83285SOL    HW151752  12.909  10.275   8.272
83285SOL    HW251753  12.938  10.396   8.359
83286SOL     OW51754   5.865   6.594   9.278
83286SOL    HW151755   5.881   6.556   9.365
83286SOL    HW251756   5.950   6.595   9.236
83287SOL     OW51757   3.926  10.028   5.450
83287SOL    HW151758   3.860  10.009   5.517
83287SOL    HW251759   4.004   9.980   5.479
83288SOL     OW51760   1.507   2.801   3.244
83288SOL    HW151761   1.527   2.843   3.160
83288SOL    HW251762   1.585   2.817   3.297
83289SOL     OW51763  14.303  12.730  13.456
83289SOL    HW151764  14.387  12.738  13.412
83289SOL    HW251765  14.238  12.747  13.388
83290SOL     OW51766  13.140  11.218  10.920
83290SOL    HW151767  13.180  11.173  10.995
83290SOL    HW251768  13.185  11.181  10.844
83291SOL     OW51769   5.924   1.297   9.929
83291SOL    HW151770   6.012   1.263   9.943
83291SOL    HW251771   5.931   1.350   9.850
83292SOL     OW51772  10.057  13.775   4.825
83292SOL    HW151773  10.149  13.802   4.818
83292SOL    HW251774  10.015  13.843   4.877
83293SOL     OW51775   2.428   5.014   5.180
83293SOL    HW151776   2.404   4.926   5.151
83293SOL    HW251777   2.442   5.005   5.275
83294SOL     OW51778   3.160   6.158   0.761
83294SOL    HW151779   3.124   6.069   0.757
83294SOL    HW251780   3.254   6.145   0.769
83295SOL     OW51781   2.431  11.727   3.581
83295SOL    HW151782   2.507  11.738   3.524
83295SOL    HW251783   2.393  11.644   3.554
83296SOL     OW51784   2.582  12.160   3.649
83296SOL    HW151785   2.487  12.160   3.642
83296SOL    HW251786   2.604  12.070   3.675
83297SOL     OW51787   8.031   7.344   5.976
83297SOL    HW151788   8.056   7.434   5.958
83297SOL    HW251789   7.950   7.351   6.027
83298SOL     OW51790  13.299  14.066   7.508
83298SOL    HW151791  13.231  14.129   7.530
83298SOL    HW251792  13.309  14.014   7.588
83299SOL     OW51793   2.630   7.870  13.891
83299SOL    HW151794   2.643   7.881  13.985
83299SOL    HW251795   2.708   7.908  13.851
83300SOL     OW51796  13.945  12.688   1.844
83300SOL    HW151797  14.034  12.696   1.811
83300SOL    HW251798  13.955  12.673   1.938
83301SOL     OW51799   5.295   0.762  11.586
83301SOL    HW151800   5.360   0.828  11.610
83301SOL    HW251801   5.295   0.701  11.660
83302SOL     OW51802   4.940  11.085  13.775
83302SOL    HW151803   5.019  11.137  13.763
83302SOL    HW251804   4.908  11.068  13.686
83303SOL     OW51805   5.072  10.776   5.745
83303SOL    HW151806   5.068  10.850   5.684
83303SOL    HW251807   5.086  10.816   5.831
83304SOL     OW51808   4.697  14.300   5.007
83304SOL    HW151809   4.602  14.292   5.005
83304SOL    HW251810   4.729  14.217   4.972
83305SOL     OW51811   1.439   9.511   2.167
83305SOL    HW151812   1.408   9.430   2.209
83305SOL    HW251813   1.360   9.548   2.127
83306SOL     OW51814   2.076  11.761   0.906
83306SOL    HW151815   2.052  11.736   0.995
83306SOL    HW251816   2.171  11.752   0.903
83307SOL     OW51817   3.487   9.282   4.684
83307SOL    HW151818   3.510   9.203   4.634
83307SOL    HW251819   3.402   9.261   4.724
83308SOL     OW51820   5.120  13.159   2.726
83308SOL    HW151821   5.038  13.112   2.712
83308SOL    HW251822   5.094  13.251   2.733
83309SOL     OW51823   7.489   5.998   1.632
83309SOL    HW151824   7.529   5.911   1.640
83309SOL    HW251825   7.455   6.017   1.719
83310SOL     OW51826   5.209  12.142   3.636
83310SOL    HW151827   5.185  12.201   3.565
83310SOL    HW251828   5.151  12.066   3.625
83311SOL     OW51829   8.168  10.082  10.983
83311SOL    HW151830   8.102  10.149  11.002
83311SOL    HW251831   8.148  10.055  10.893
83312SOL     OW51832  10.864   1.275   0.136
83312SOL    HW151833  10.775   1.238   0.141
83312SOL    HW251834  10.855   1.363   0.171
83313SOL     OW51835   1.767   3.765   3.805
83313SOL    HW151836   1.684   3.771   3.852
83313SOL    HW251837   1.831   3.740   3.871
83314SOL     OW51838   1.396  10.094   1.632
83314SOL    HW151839   1.313  10.063   1.596
83314SOL    HW251840   1.418  10.169   1.578
83315SOL     OW51841   1.163   2.609   1.295
83315SOL    HW151842   1.086   2.665   1.310
83315SOL    HW251843   1.147   2.571   1.208
83316SOL     OW51844  10.176  14.279  11.589
83316SOL    HW151845  10.133  14.297  11.672
83316SOL    HW251846  10.126  14.207  11.551
83317SOL     OW51847  13.219  10.558  13.751
83317SOL    HW151848  13.265  10.475  13.763
83317SOL    HW251849  13.136  10.534  13.711
83318SOL     OW51850  13.446  11.434   7.645
83318SOL    HW151851  13.365  11.442   7.695
83318SOL    HW251852  13.509  11.489   7.693
83319SOL     OW51853  14.651   8.707   3.616
83319SOL    HW151854  14.572   8.735   3.663
83319SOL    HW251855  14.624   8.628   3.569
83320SOL     OW51856   8.078   6.322  10.114
83320SOL    HW151857   8.063   6.403  10.163
83320SOL    HW251858   8.173   6.319  10.101
83321SOL     OW51859   7.523   2.635   4.099
83321SOL    HW151860   7.434   2.621   4.067
83321SOL    HW251861   7.578   2.591   4.034
83322SOL     OW51862  13.717  14.569   4.060
83322SOL    HW151863  13.709  14.485   4.016
83322SOL    HW251864  13.726  14.547   4.152
83323SOL     OW51865   7.247   6.110   4.192
83323SOL    HW151866   7.264   6.205   4.193
83323SOL    HW251867   7.160   6.102   4.232
83324SOL     OW51868  13.621   4.829   8.393
83324SOL    HW151869  13.662   4.755   8.348
83324SOL    HW251870  13.646   4.819   8.484
83325SOL     OW51871   0.951  10.830   2.480
83325SOL    HW151872   0.954  10.906   2.421
83325SOL    HW251873   1.041  10.819   2.510
83326SOL     OW51874  14.413   2.454   3.629
83326SOL    HW151875  14.420   2.548   3.649
83326SOL    HW251876  14.342   2.449   3.564
83327SOL     OW51877   8.809   6.954  11.696
83327SOL    HW151878   8.855   7.033  11.725
83327SOL    HW251879   8.746   6.985  11.631
83328SOL     OW51880  12.995   9.786   1.356
83328SOL    HW151881  12.956   9.752   1.275
83328SOL    HW251882  13.011   9.878   1.338
83329SOL     OW51883   8.146   3.715   3.619
83329SOL    HW151884   8.237   3.685   3.617
83329SOL    HW251885   8.113   3.686   3.704
83330SOL     OW51886   1.003   3.648   2.666
83330SOL    HW151887   1.070   3.692   2.717
83330SOL    HW251888   0.931   3.710   2.661
83331SOL     OW51889   7.225   2.714   5.985
83331SOL    HW151890   7.283   2.640   6.004
83331SOL    HW251891   7.169   2.683   5.913
83332SOL     OW51892   7.976   3.610   7.698
83332SOL    HW151893   7.969   3.519   7.670
83332SOL    HW251894   7.894   3.627   7.744
83333SOL     OW51895   6.105   9.452   5.060
83333SOL    HW151896   6.036   9.410   5.110
83333SOL    HW251897   6.152   9.380   5.018
83334SOL     OW51898  11.213   2.249   7.200
83334SOL    HW151899  11.214   2.246   7.296
83334SOL    HW251900  11.300   2.219   7.174
83335SOL     OW51901   7.547   3.341   3.091
83335SOL    HW151902   7.597   3.369   3.015
83335SOL    HW251903   7.563   3.409   3.156
83336SOL     OW51904  11.800   4.422   4.162
83336SOL    HW151905  11.844   4.496   4.120
83336SOL    HW251906  11.775   4.455   4.248
83337SOL     OW51907  11.114   8.711  11.845
83337SOL    HW151908  11.113   8.764  11.765
83337SOL    HW251909  11.089   8.772  11.914
83338SOL     OW51910   1.994   1.227   8.055
83338SOL    HW151911   1.965   1.238   8.145
83338SOL    HW251912   1.918   1.188   8.010
83339SOL     OW51913   2.767  14.162   2.814
83339SOL    HW151914   2.686  14.190   2.857
83339SOL    HW251915   2.742  14.083   2.766
83340SOL     OW51916  12.260   1.599   8.701
83340SOL    HW151917  12.243   1.673   8.643
83340SOL    HW251918  12.260   1.636   8.789
83341SOL     OW51919   5.861   3.073   3.789
83341SOL    HW151920   5.914   2.998   3.814
83341SOL    HW251921   5.908   3.113   3.717
83342SOL     OW51922   7.979   8.381  14.315
83342SOL    HW151923   8.053   8.396  14.256
83342SOL    HW251924   7.952   8.469  14.342
83343SOL     OW51925   3.388  11.980  12.208
83343SOL    HW151926   3.464  11.993  12.265
83343SOL    HW251927   3.423  11.986  12.119
83344SOL     OW51928   5.748   7.450   0.016
83344SOL    HW151929   5.784   7.422   0.100
83344SOL    HW251930   5.780   7.386  14.823
83345SOL     OW51931  10.649   1.277   7.432
83345SOL    HW151932  10.686   1.285   7.519
83345SOL    HW251933  10.632   1.183   7.421
83346SOL     OW51934   5.402   3.187   5.680
83346SOL    HW151935   5.421   3.158   5.591
83346SOL    HW251936   5.485   3.180   5.726
83347SOL     OW51937   8.655  11.844  12.523
83347SOL    HW151938   8.590  11.852  12.593
83347SOL    HW251939   8.719  11.782  12.557
83348SOL     OW51940   2.822  14.669   1.520
83348SOL    HW151941   2.779  14.666   1.434
83348SOL    HW251942   2.880  14.593   1.520
83349SOL     OW51943   8.967  10.060  10.145
83349SOL    HW151944   8.882  10.100  10.164
83349SOL    HW251945   8.945   9.986  10.088
83350SOL     OW51946   9.508   7.010   3.173
83350SOL    HW151947   9.602   7.005   3.156
83350SOL    HW251948   9.485   7.101   3.153
83351SOL     OW51949  13.766   0.809   7.783
83351SOL    HW151950  13.747   0.842   7.871
83351SOL    HW251951  13.860   0.823   7.771
83352SOL     OW51952   5.159   2.586  10.671
83352SOL    HW151953   5.143   2.678  10.652
83352SOL    HW251954   5.073   2.549  10.690
83353SOL     OW51955  14.329  12.878   5.974
83353SOL    HW151956  14.346  12.872   6.068
83353SOL    HW251957  14.387  12.947   5.943
83354SOL     OW51958   9.419  13.090   1.113
83354SOL    HW151959   9.372  13.041   1.045
83354SOL    HW251960   9.392  13.180   1.100
83355SOL     OW51961  11.839   9.423   1.100
83355SOL    HW151962  11.807   9.413   1.190
83355SOL    HW251963  11.783   9.490   1.061
83356SOL     OW51964  13.002   1.711   8.272
83356SOL    HW151965  12.977   1.776   8.337
83356SOL    HW251966  12.920   1.683   8.233
83357SOL     OW51967   8.699   6.636  12.162
83357SOL    HW151968   8.789   6.625  12.131
83357SOL    HW251969   8.646   6.589  12.097
83358SOL     OW51970   1.643   4.670  11.644
83358SOL    HW151971   1.580   4.740  11.656
83358SOL    HW251972   1.617   4.602  11.706
83359SOL     OW51973  10.499  11.156   6.585
83359SOL    HW151974  10.528  11.235   6.630
83359SOL    HW251975  10.484  11.185   6.495
83360SOL     OW51976   2.450  14.857   7.650
83360SOL    HW151977   2.438   0.059   7.712
83360SOL    HW251978   2.362  14.823   7.634
83361SOL     OW51979   3.256   3.063   4.313
83361SOL    HW151980   3.283   3.043   4.223
83361SOL    HW251981   3.227   3.153   4.310
83362SOL     OW51982  14.134  10.118   1.565
83362SOL    HW151983  14.172  10.035   1.536
83362SOL    HW251984  14.206  10.182   1.556
83363SOL     OW51985   0.465   9.810   8.568
83363SOL    HW151986   0.436   9.739   8.625
83363SOL    HW251987   0.560   9.804   8.567
83364SOL     OW51988   1.429  12.277  10.583
83364SOL    HW151989   1.512  12.237  10.608
83364SOL    HW251990   1.417  12.252  10.492
83365SOL     OW51991  11.061   2.636  10.795
83365SOL    HW151992  11.148   2.624  10.832
83365SOL    HW251993  11.007   2.663  10.869
83366SOL     OW51994   8.486   0.897   1.760
83366SOL    HW151995   8.514   0.857   1.843
83366SOL    HW251996   8.392   0.913   1.773
83367SOL     OW51997   0.644   7.739   4.636
83367SOL    HW151998   0.677   7.651   4.655
83367SOL    HW251999   0.723   7.788   4.611
83368SOL     OW52000  10.806   2.272   1.993
83368SOL    HW152001  10.777   2.315   2.074
83368SOL    HW252002  10.896   2.246   2.010
83369SOL     OW52003  12.731   8.987   3.072
83369SOL    HW152004  12.670   8.916   3.049
83369SOL    HW252005  12.817   8.946   3.073
83370SOL     OW52006   2.753   3.058   9.469
83370SOL    HW152007   2.815   3.039   9.539
83370SOL    HW252008   2.774   3.148   9.442
83371SOL     OW52009  10.895   8.862   6.290
83371SOL    HW152010  10.969   8.912   6.256
83371SOL    HW252011  10.859   8.817   6.214
83372SOL     OW52012  12.725   5.418   1.815
83372SOL    HW152013  12.761   5.436   1.729
83372SOL    HW252014  12.782   5.466   1.876
83373SOL     OW52015   5.387   7.086  14.808
83373SOL    HW152016   5.358   7.117   0.024
83373SOL    HW252017   5.477   7.057  14.823
83374SOL     OW52018   7.628  14.795   6.704
83374SOL    HW152019   7.602  14.783   6.612
83374SOL    HW252020   7.570  14.864   6.736
83375SOL     OW52021  12.495  12.141   0.680
83375SOL    HW152022  12.552  12.194   0.736
83375SOL    HW252023  12.410  12.186   0.683
83376SOL     OW52024  11.461   3.625   0.183
83376SOL    HW152025  11.468   3.575   0.264
83376SOL    HW252026  11.375   3.602   0.148
83377SOL     OW52027  10.381   7.877   7.783
83377SOL    HW152028  10.401   7.785   7.769
83377SOL    HW252029  10.318   7.899   7.715
83378SOL     OW52030  10.551   3.413   8.799
83378SOL    HW152031  10.503   3.344   8.844
83378SOL    HW252032  10.642   3.400   8.825
83379SOL     OW52033  14.722   5.612   0.086
83379SOL    HW152034  14.802   5.651   0.122
83379SOL    HW252035  14.700   5.543   0.148
83380SOL     OW52036  14.647   4.717  12.011
83380SOL    HW152037  14.620   4.651  12.075
83380SOL    HW252038  14.571   4.729  11.955
83381SOL     OW52039   8.783  10.281   9.522
83381SOL    HW152040   8.813  10.338   9.593
83381SOL    HW252041   8.691  10.265   9.542
83382SOL     OW52042   9.097   7.353   8.538
83382SOL    HW152043   9.122   7.445   8.532
83382SOL    HW252044   9.079   7.326   8.448
83383SOL     OW52045  11.271   4.237  12.200
83383SOL    HW152046  11.317   4.277  12.273
83383SOL    HW252047  11.328   4.166  12.171
83384SOL     OW52048   9.489   0.856  12.481
83384SOL    HW152049   9.471   0.762  12.478
83384SOL    HW252050   9.536   0.868  12.564
83385SOL     OW52051  11.563   7.785  13.833
83385SOL    HW152052  11.577   7.764  13.741
83385SOL    HW252053  11.622   7.726  13.881
83386SOL     OW52054  12.011   9.669   7.753
83386SOL    HW152055  12.008   9.737   7.820
83386SOL    HW252056  12.068   9.601   7.789
83387SOL     OW52057   4.308   6.498   4.978
83387SOL    HW152058   4.384   6.554   4.987
83387SOL    HW252059   4.293   6.490   4.884
83388SOL     OW52060   7.778   4.607  13.888
83388SOL    HW152061   7.700   4.554  13.873
83388SOL    HW252062   7.801   4.589  13.979
83389SOL     OW52063   5.353   3.795   9.905
83389SOL    HW152064   5.266   3.755   9.900
83389SOL    HW252065   5.353   3.860   9.835
83390SOL     OW52066   4.737  12.815   2.584
83390SOL    HW152067   4.697  12.754   2.647
83390SOL    HW252068   4.663  12.864   2.548
83391SOL     OW52069   3.960   4.148   5.040
83391SOL    HW152070   3.887   4.182   4.988
83391SOL    HW252071   3.952   4.053   5.034
83392SOL     OW52072   7.169  10.641  13.247
83392SOL    HW152073   7.136  10.553  13.268
83392SOL    HW252074   7.096  10.683  13.202
83393SOL     OW52075  13.564   1.580   0.050
83393SOL    HW152076  13.556   1.516  14.849
83393SOL    HW252077  13.517   1.657   0.019
83394SOL     OW52078   7.770  10.567   7.253
83394SOL    HW152079   7.811  10.654   7.256
83394SOL    HW252080   7.843  10.506   7.262
83395SOL     OW52081   2.875   5.569  11.541
83395SOL    HW152082   2.969   5.549  11.540
83395SOL    HW252083   2.844   5.544  11.454
83396SOL     OW52084  13.394   7.621   1.682
83396SOL    HW152085  13.299   7.632   1.672
83396SOL    HW252086  13.430   7.647   1.597
83397SOL     OW52087  12.082   0.847   1.854
83397SOL    HW152088  12.049   0.783   1.791
83397SOL    HW252089  12.093   0.797   1.935
83398SOL     OW52090   5.320  14.687   2.285
83398SOL    HW152091   5.398  14.636   2.309
83398SOL    HW252092   5.302  14.741   2.362
83399SOL     OW52093   6.185  13.288   0.208
83399SOL    HW152094   6.276  13.308   0.229
83399SOL    HW252095   6.183  13.283   0.113
83400SOL     OW52096   5.484  11.594   9.403
83400SOL    HW152097   5.395  11.617   9.377
83400SOL    HW252098   5.537  11.671   9.379
83401SOL     OW52099  12.436  14.716  10.891
83401SOL    HW152100  12.459  14.809  10.885
83401SOL    HW252101  12.431  14.686  10.801
83402SOL     OW52102   3.884   5.715  11.819
83402SOL    HW152103   3.916   5.680  11.902
83402SOL    HW252104   3.853   5.638  11.771
83403SOL     OW52105  12.709   1.256  12.100
83403SOL    HW152106  12.708   1.162  12.119
83403SOL    HW252107  12.624   1.273  12.060
83404SOL     OW52108   7.743   6.921  10.922
83404SOL    HW152109   7.755   6.827  10.937
83404SOL    HW252110   7.661   6.942  10.966
83405SOL     OW52111  11.646  10.484   0.000
83405SOL    HW152112  11.635  10.465  14.777
83405SOL    HW252113  11.632  10.399   0.044
83406SOL     OW52114   3.378   4.832   9.827
83406SOL    HW152115   3.380   4.826   9.922
83406SOL    HW252116   3.356   4.744   9.797
83407SOL     OW52117   3.024   7.402   1.389
83407SOL    HW152118   3.067   7.346   1.325
83407SOL    HW252119   3.020   7.488   1.348
83408SOL     OW52120  14.709   6.423   0.346
83408SOL    HW152121  14.778   6.363   0.374
83408SOL    HW252122  14.720   6.500   0.401
83409SOL     OW52123  14.085  13.825  11.494
83409SOL    HW152124  14.175  13.850  11.518
83409SOL    HW252125  14.064  13.754  11.555
83410SOL     OW52126  10.223  12.534   8.102
83410SOL    HW152127  10.168  12.578   8.037
83410SOL    HW252128  10.231  12.598   8.173
83411SOL     OW52129  10.056   1.635  11.119
83411SOL    HW152130  10.135   1.658  11.070
83411SOL    HW252131  10.045   1.541  11.103
83412SOL     OW52132   8.069   2.071   8.157
83412SOL    HW152133   7.981   2.034   8.168
83412SOL    HW252134   8.078   2.134   8.228
83413SOL     OW52135   4.304  13.023  13.595
83413SOL    HW152136   4.304  13.103  13.542
83413SOL    HW252137   4.213  13.014  13.625
83414SOL     OW52138   0.716   3.165   4.085
83414SOL    HW152139   0.782   3.188   4.020
83414SOL    HW252140   0.676   3.249   4.109
83415SOL     OW52141   8.753   7.167  11.270
83415SOL    HW152142   8.808   7.123  11.205
83415SOL    HW252143   8.812   7.230  11.312
83416SOL     OW52144   3.466   5.999   5.670
83416SOL    HW152145   3.561   5.994   5.676
83416SOL    HW252146   3.435   5.952   5.747
83417SOL     OW52147   9.029   7.171   1.761
83417SOL    HW152148   9.119   7.155   1.788
83417SOL    HW252149   9.034   7.180   1.666
83418SOL     OW52150   2.661   5.760  12.469
83418SOL    HW152151   2.678   5.774  12.376
83418SOL    HW252152   2.732   5.704  12.499
83419SOL     OW52153  12.053  13.123  13.058
83419SOL    HW152154  12.010  13.205  13.084
83419SOL    HW252155  12.072  13.134  12.965
83420SOL     OW52156  13.260  10.696   8.490
83420SOL    HW152157  13.258  10.712   8.396
83420SOL    HW252158  13.256  10.783   8.529
83421SOL     OW52159   2.019   5.248  11.320
83421SOL    HW152160   2.068   5.200  11.254
83421SOL    HW252161   2.016   5.338  11.287
83422SOL     OW52162   6.580   2.320  14.160
83422SOL    HW152163   6.654   2.357  14.209
83422SOL    HW252164   6.553   2.245  14.212
83423SOL     OW52165  10.957  13.126   4.950
83423SOL    HW152166  10.938  13.213   4.915
83423SOL    HW252167  10.887  13.071   4.916
83424SOL     OW52168  12.829   7.128   4.914
83424SOL    HW152169  12.834   7.184   4.991
83424SOL    HW252170  12.736   7.105   4.906
83425SOL     OW52171   1.269  11.900   6.029
83425SOL    HW152172   1.243  11.866   5.943
83425SOL    HW252173   1.357  11.933   6.016
83426SOL     OW52174  12.209   1.057   6.347
83426SOL    HW152175  12.191   0.989   6.283
83426SOL    HW252176  12.172   1.137   6.309
83427SOL     OW52177   4.869   9.419   1.964
83427SOL    HW152178   4.853   9.373   2.047
83427SOL    HW252179   4.878   9.350   1.899
83428SOL     OW52180   3.955   5.733   4.972
83428SOL    HW152181   3.995   5.699   4.892
83428SOL    HW252182   3.914   5.815   4.944
83429SOL     OW52183   7.355   8.703   2.241
83429SOL    HW152184   7.394   8.749   2.316
83429SOL    HW252185   7.404   8.621   2.234
83430SOL     OW52186  13.479   1.401   0.629
83430SOL    HW152187  13.524   1.484   0.614
83430SOL    HW252188  13.436   1.413   0.714
83431SOL     OW52189   3.069  14.694  13.720
83431SOL    HW152190   3.024  14.672  13.802
83431SOL    HW252191   3.151  14.645  13.724
83432SOL     OW52192  11.634  11.835  14.316
83432SOL    HW152193  11.633  11.748  14.275
83432SOL    HW252194  11.543  11.849  14.343
83433SOL     OW52195   8.214  12.513   1.728
83433SOL    HW152196   8.187  12.598   1.693
83433SOL    HW252197   8.271  12.535   1.802
83434SOL     OW52198  11.953  13.934  11.157
83434SOL    HW152199  11.952  14.030  11.149
83434SOL    HW252200  11.945  13.903  11.067
83435SOL     OW52201   6.847  13.570  14.075
83435SOL    HW152202   6.821  13.546  13.986
83435SOL    HW252203   6.812  13.501  14.130
83436SOL     OW52204   4.364  14.194   3.613
83436SOL    HW152205   4.441  14.247   3.597
83436SOL    HW252206   4.312  14.201   3.533
83437SOL     OW52207   9.296   7.263  12.083
83437SOL    HW152208   9.268   7.273  12.175
83437SOL    HW252209   9.217   7.236  12.037
83438SOL     OW52210   3.768   6.119  13.710
83438SOL    HW152211   3.744   6.192  13.653
83438SOL    HW252212   3.756   6.041  13.655
83439SOL     OW52213   8.669   5.920   0.926
83439SOL    HW152214   8.575   5.905   0.936
83439SOL    HW252215   8.681   6.012   0.948
83440SOL     OW52216  12.058   0.875   9.286
83440SOL    HW152217  12.009   0.802   9.249
83440SOL    HW252218  12.141   0.836   9.314
83441SOL     OW52219   3.791   2.289  14.853
83441SOL    HW152220   3.885   2.303  14.839
83441SOL    HW252221   3.758   2.263  14.767
83442SOL     OW52222   6.916  14.183  13.155
83442SOL    HW152223   6.977  14.184  13.229
83442SOL    HW252224   6.829  14.181  13.196
83443SOL     OW52225  10.495   3.163  12.419
83443SOL    HW152226  10.496   3.212  12.336
83443SOL    HW252227  10.431   3.209  12.473
83444SOL     OW52228   8.768   1.769   0.666
83444SOL    HW152229   8.683   1.777   0.622
83444SOL    HW252230   8.750   1.717   0.744
83445SOL     OW52231   3.439  13.715   8.467
83445SOL    HW152232   3.535  13.721   8.470
83445SOL    HW252233   3.408  13.798   8.503
83446SOL     OW52234   2.473   7.373   6.872
83446SOL    HW152235   2.511   7.347   6.788
83446SOL    HW252236   2.534   7.438   6.907
83447SOL     OW52237   9.490   2.143   2.410
83447SOL    HW152238   9.504   2.110   2.499
83447SOL    HW252239   9.573   2.183   2.385
83448SOL     OW52240  10.483   8.460   1.691
83448SOL    HW152241  10.427   8.532   1.660
83448SOL    HW252242  10.437   8.425   1.767
83449SOL     OW52243  14.191  10.823   0.842
83449SOL    HW152244  14.244  10.744   0.837
83449SOL    HW252245  14.123  10.803   0.906
83450SOL     OW52246   2.357  11.075   9.028
83450SOL    HW152247   2.276  11.089   8.980
83450SOL    HW252248   2.352  11.134   9.103
83451SOL     OW52249   8.010   8.351   8.856
83451SOL    HW152250   7.955   8.422   8.822
83451SOL    HW252251   8.025   8.375   8.948
83452SOL     OW52252   2.896   4.702   9.723
83452SOL    HW152253   2.822   4.701   9.663
83452SOL    HW252254   2.899   4.792   9.756
83453SOL     OW52255  13.734  11.183  11.298
83453SOL    HW152256  13.701  11.225  11.219
83453SOL    HW252257  13.738  11.090  11.276
83454SOL     OW52258  14.837   6.271   3.117
83454SOL    HW152259   0.059   6.297   3.129
83454SOL    HW252260  14.841   6.180   3.088
83455SOL     OW52261  10.303   5.205  10.678
83455SOL    HW152262  10.316   5.242  10.765
83455SOL    HW252263  10.311   5.280  10.619
83456SOL     OW52264  14.504  10.025   2.918
83456SOL    HW152265  14.451   9.965   2.970
83456SOL    HW252266  14.457  10.109   2.922
83457SOL     OW52267   4.094   3.650   2.449
83457SOL    HW152268   4.083   3.632   2.543
83457SOL    HW252269   4.171   3.600   2.423
83458SOL     OW52270   0.917  12.603   4.268
83458SOL    HW152271   1.006  12.621   4.298
83458SOL    HW252272   0.867  12.681   4.292
83459SOL     OW52273  13.165   9.083   3.602
83459SOL    HW152274  13.084   9.048   3.567
83459SOL    HW252275  13.140   9.163   3.647
83460SOL     OW52276  11.299   1.608   4.424
83460SOL    HW152277  11.391   1.633   4.418
83460SOL    HW252278  11.296   1.520   4.387
83461SOL     OW52279  12.656   2.580  11.821
83461SOL    HW152280  12.735   2.621  11.785
83461SOL    HW252281  12.664   2.488  11.799
83462SOL     OW52282   5.503   3.218  12.893
83462SOL    HW152283   5.413   3.195  12.918
83462SOL    HW252284   5.541   3.255  12.972
83463SOL     OW52285  12.817   7.461   2.276
83463SOL    HW152286  12.732   7.440   2.237
83463SOL    HW252287  12.877   7.397   2.238
83464SOL     OW52288  10.705  10.954   6.891
83464SOL    HW152289  10.747  10.874   6.923
83464SOL    HW252290  10.611  10.937   6.899
83465SOL     OW52291   8.019  12.394   1.100
83465SOL    HW152292   8.009  12.351   1.185
83465SOL    HW252293   8.002  12.325   1.036
83466SOL     OW52294   3.749   6.104   0.585
83466SOL    HW152295   3.780   6.129   0.498
83466SOL    HW252296   3.819   6.050   0.621
83467SOL     OW52297   6.425   7.807   3.467
83467SOL    HW152298   6.460   7.770   3.548
83467SOL    HW252299   6.503   7.834   3.418
83468SOL     OW52300   6.462  11.366   6.537
83468SOL    HW152301   6.457  11.322   6.622
83468SOL    HW252302   6.554  11.358   6.512
83469SOL     OW52303   1.729  11.094   5.363
83469SOL    HW152304   1.658  11.042   5.400
83469SOL    HW252305   1.696  11.122   5.277
83470SOL     OW52306  13.852   4.581   1.332
83470SOL    HW152307  13.900   4.601   1.413
83470SOL    HW252308  13.915   4.595   1.262
83471SOL     OW52309  13.098  12.873   8.252
83471SOL    HW152310  13.006  12.849   8.260
83471SOL    HW252311  13.103  12.962   8.286
83472SOL     OW52312   5.793   8.893   6.087
83472SOL    HW152313   5.781   8.805   6.123
83472SOL    HW252314   5.888   8.907   6.091
83473SOL     OW52315   9.608  13.487  12.228
83473SOL    HW152316   9.692  13.463  12.266
83473SOL    HW252317   9.590  13.418  12.164
83474SOL     OW52318   9.978   9.329   2.933
83474SOL    HW152319   9.917   9.309   3.005
83474SOL    HW252320  10.004   9.244   2.899
83475SOL     OW52321   1.914  10.269   0.418
83475SOL    HW152322   1.905  10.354   0.460
83475SOL    HW252323   1.825  10.237   0.409
83476SOL     OW52324   8.399   2.095   3.325
83476SOL    HW152325   8.310   2.097   3.360
83476SOL    HW252326   8.455   2.106   3.402
83477SOL     OW52327   1.324   4.107   2.794
83477SOL    HW152328   1.401   4.134   2.744
83477SOL    HW252329   1.251   4.113   2.732
83478SOL     OW52330   5.073  13.717   6.466
83478SOL    HW152331   5.033  13.757   6.543
83478SOL    HW252332   5.121  13.641   6.500
83479SOL     OW52333  12.303   4.067   1.859
83479SOL    HW152334  12.314   3.972   1.850
83479SOL    HW252335  12.260   4.077   1.944
83480SOL     OW52336   4.205   9.152   3.109
83480SOL    HW152337   4.257   9.206   3.050
83480SOL    HW252338   4.145   9.104   3.052
83481SOL     OW52339  10.579   6.491  10.984
83481SOL    HW152340  10.663   6.504  10.940
83481SOL    HW252341  10.517   6.473  10.913
83482SOL     OW52342   9.905   7.549   1.997
83482SOL    HW152343   9.830   7.598   1.963
83482SOL    HW252344   9.903   7.564   2.091
83483SOL     OW52345   0.913  12.880  10.518
83483SOL    HW152346   0.916  12.868  10.612
83483SOL    HW252347   0.898  12.974  10.506
83484SOL     OW52348   2.796   5.089   4.790
83484SOL    HW152349   2.857   5.113   4.720
83484SOL    HW252350   2.852   5.070   4.865
83485SOL     OW52351   3.139  14.000  13.199
83485SOL    HW152352   3.080  13.984  13.126
83485SOL    HW252353   3.081  14.015  13.274
83486SOL     OW52354   5.829   3.539  13.955
83486SOL    HW152355   5.890   3.611  13.938
83486SOL    HW252356   5.866   3.494  14.030
83487SOL     OW52357   4.760   9.150   9.653
83487SOL    HW152358   4.745   9.243   9.635
83487SOL    HW252359   4.829   9.124   9.591
83488SOL     OW52360  13.393   3.958   9.918
83488SOL    HW152361  13.468   3.900   9.905
83488SOL    HW252362  13.320   3.911   9.877
83489SOL     OW52363   7.152   7.396  13.417
83489SOL    HW152364   7.077   7.353  13.377
83489SOL    HW252365   7.134   7.490  13.409
83490SOL     OW52366   7.402   6.458   8.866
83490SOL    HW152367   7.448   6.461   8.950
83490SOL    HW252368   7.425   6.540   8.823
83491SOL     OW52369   1.000  13.070  14.505
83491SOL    HW152370   1.039  13.157  14.507
83491SOL    HW252371   1.060  13.018  14.451
83492SOL     OW52372   7.015   4.624  12.462
83492SOL    HW152373   7.083   4.637  12.529
83492SOL    HW252374   7.048   4.553  12.408
83493SOL     OW52375  13.254   7.097  13.795
83493SOL    HW152376  13.199   7.032  13.839
83493SOL    HW252377  13.270   7.163  13.862
83494SOL     OW52378   5.329  14.180   3.622
83494SOL    HW152379   5.328  14.191   3.717
83494SOL    HW252380   5.395  14.112   3.607
83495SOL     OW52381  11.338   0.095   4.801
83495SOL    HW152382  11.404   0.056   4.745
83495SOL    HW252383  11.292   0.157   4.745
83496SOL     OW52384   4.984  13.567  13.437
83496SOL    HW152385   5.004  13.480  13.404
83496SOL    HW252386   4.986  13.623  13.360
83497SOL     OW52387   4.133   4.599   0.361
83497SOL    HW152388   4.209   4.565   0.408
83497SOL    HW252389   4.091   4.521   0.324
83498SOL     OW52390   7.807   5.585   1.463
83498SOL    HW152391   7.738   5.619   1.521
83498SOL    HW252392   7.857   5.663   1.438
83499SOL     OW52393   2.579   1.073   1.726
83499SOL    HW152394   2.669   1.099   1.705
83499SOL    HW252395   2.539   1.153   1.762
83500SOL     OW52396   2.358   8.499   8.409
83500SOL    HW152397   2.453   8.514   8.405
83500SOL    HW252398   2.335   8.515   8.500
83501SOL     OW52399  11.426   9.732   0.540
83501SOL    HW152400  11.436   9.802   0.604
83501SOL    HW252401  11.510   9.731   0.493
83502SOL     OW52402   0.705   4.954   2.369
83502SOL    HW152403   0.705   4.997   2.283
83502SOL    HW252404   0.720   5.026   2.431
83503SOL     OW52405  13.452   8.070  14.048
83503SOL    HW152406  13.530   8.071  14.104
83503SOL    HW252407  13.468   8.139  13.984
83504SOL     OW52408   8.544  13.291  10.784
83504SOL    HW152409   8.457  13.325  10.760
83504SOL    HW252410   8.598  13.306  10.707
83505SOL     OW52411   8.388   2.271   5.358
83505SOL    HW152412   8.320   2.327   5.319
83505SOL    HW252413   8.340   2.218   5.422
83506SOL     OW52414   7.389   0.711  14.468
83506SOL    HW152415   7.461   0.766  14.496
83506SOL    HW252416   7.428   0.649  14.407
83507SOL     OW52417   9.720  11.521   7.138
83507SOL    HW152418   9.780  11.528   7.064
83507SOL    HW252419   9.770  11.473   7.205
83508SOL     OW52420   7.352  10.330   7.423
83508SOL    HW152421   7.350  10.348   7.517
83508SOL    HW252422   7.355  10.416   7.382
83509SOL     OW52423   3.875   7.369   0.935
83509SOL    HW152424   3.804   7.326   0.888
83509SOL    HW252425   3.919   7.299   0.982
83510SOL     OW52426   0.494   0.288  11.637
83510SOL    HW152427   0.433   0.349  11.677
83510SOL    HW252428   0.543   0.250  11.710
83511SOL     OW52429   5.530   4.957   9.389
83511SOL    HW152430   5.593   4.898   9.347
83511SOL    HW252431   5.491   5.006   9.317
83512SOL     OW52432   3.551  12.256   3.210
83512SOL    HW152433   3.637  12.240   3.249
83512SOL    HW252434   3.571  12.294   3.124
83513SOL     OW52435   0.007  14.206   9.430
83513SOL    HW152436  14.820  14.201   9.507
83513SOL    HW252437   0.031  14.115   9.411
83514SOL     OW52438  11.829   7.558   2.173
83514SOL    HW152439  11.767   7.619   2.212
83514SOL    HW252440  11.778   7.508   2.109
83515SOL     OW52441   1.283  14.383   8.953
83515SOL    HW152442   1.225  14.330   8.899
83515SOL    HW252443   1.370  14.369   8.916
83516SOL     OW52444   9.457  10.371   8.179
83516SOL    HW152445   9.442  10.371   8.274
83516SOL    HW252446   9.548  10.398   8.169
83517SOL     OW52447   6.828  10.579   5.206
83517SOL    HW152448   6.918  10.604   5.227
83517SOL    HW252449   6.834  10.541   5.118
83518SOL     OW52450  11.883   1.815  13.053
83518SOL    HW152451  11.914   1.734  13.012
83518SOL    HW252452  11.829   1.856  12.986
83519SOL     OW52453  13.826  12.824  11.183
83519SOL    HW152454  13.764  12.775  11.129
83519SOL    HW252455  13.870  12.758  11.237
83520SOL     OW52456  12.526   0.288   2.705
83520SOL    HW152457  12.536   0.298   2.799
83520SOL    HW252458  12.559   0.201   2.686
83521SOL     OW52459   5.955   8.128  10.903
83521SOL    HW152460   5.889   8.197  10.894
83521SOL    HW252461   6.002   8.128  10.819
83522SOL     OW52462  11.854   9.553   4.511
83522SOL    HW152463  11.842   9.617   4.441
83522SOL    HW252464  11.925   9.589   4.564
83523SOL     OW52465   0.854  10.688   9.924
83523SOL    HW152466   0.841  10.596   9.946
83523SOL    HW252467   0.931  10.689   9.868
83524SOL     OW52468   5.180   2.634  14.347
83524SOL    HW152469   5.147   2.722  14.331
83524SOL    HW252470   5.275   2.643  14.346
83525SOL     OW52471   5.660   8.927   2.413
83525SOL    HW152472   5.589   8.980   2.376
83525SOL    HW252473   5.737   8.953   2.363
83526SOL     OW52474   2.102   0.107   4.090
83526SOL    HW152475   2.152   0.063   4.021
83526SOL    HW252476   2.011   0.103   4.061
83527SOL     OW52477   5.250   6.639   2.748
83527SOL    HW152478   5.243   6.728   2.713
83527SOL    HW252479   5.191   6.638   2.823
83528SOL     OW52480   7.523  12.117   9.990
83528SOL    HW152481   7.462  12.116   9.916
83528SOL    HW252482   7.467  12.126  10.067
83529SOL     OW52483   8.525  13.481   3.237
83529SOL    HW152484   8.596  13.418   3.247
83529SOL    HW252485   8.456  13.448   3.294
83530SOL     OW52486   1.993  11.430  14.421
83530SOL    HW152487   2.046  11.375  14.478
83530SOL    HW252488   1.916  11.453  14.474
83531SOL     OW52489   9.894   1.549   3.103
83531SOL    HW152490   9.922   1.553   3.195
83531SOL    HW252491   9.874   1.640   3.081
83532SOL     OW52492  13.944   1.559  12.028
83532SOL    HW152493  14.010   1.571  11.960
83532SOL    HW252494  13.974   1.481  12.076
83533SOL     OW52495   4.018  10.370   1.430
83533SOL    HW152496   3.973  10.408   1.354
83533SOL    HW252497   4.089  10.431   1.449
83534SOL     OW52498   9.588  12.151   6.877
83534SOL    HW152499   9.496  12.168   6.898
83534SOL    HW252500   9.595  12.055   6.878
83535SOL     OW52501  11.072   0.917   5.261
83535SOL    HW152502  11.042   0.840   5.212
83535SOL    HW252503  11.001   0.935   5.323
83536SOL     OW52504   3.566   5.631  11.037
83536SOL    HW152505   3.503   5.638  10.966
83536SOL    HW252506   3.552   5.543  11.072
83537SOL     OW52507  10.403   9.249   0.919
83537SOL    HW152508  10.462   9.177   0.939
83537SOL    HW252509  10.459   9.327   0.921
83538SOL     OW52510   2.473  13.264   7.057
83538SOL    HW152511   2.526  13.255   6.977
83538SOL    HW252512   2.398  13.206   7.043
83539SOL     OW52513   8.199  11.459   2.342
83539SOL    HW152514   8.204  11.418   2.429
83539SOL    HW252515   8.257  11.534   2.348
83540SOL     OW52516  12.027   2.705   2.348
83540SOL    HW152517  11.965   2.709   2.422
83540SOL    HW252518  11.982   2.751   2.277
83541SOL     OW52519   6.986  11.446   1.997
83541SOL    HW152520   6.902  11.488   1.979
83541SOL    HW252521   6.965  11.355   2.016
83542SOL     OW52522   9.429   7.285   9.014
83542SOL    HW152523   9.404   7.304   9.105
83542SOL    HW252524   9.485   7.359   8.989
83543SOL     OW52525   5.011  14.660  12.820
83543SOL    HW152526   5.023  14.747  12.781
83543SOL    HW252527   5.099  14.622  12.819
83544SOL     OW52528  10.771   4.964  14.603
83544SOL    HW152529  10.733   4.880  14.576
83544SOL    HW252530  10.756   5.022  14.529
83545SOL     OW52531  12.520   1.527   5.700
83545SOL    HW152532  12.571   1.460   5.654
83545SOL    HW252533  12.563   1.535   5.786
83546SOL     OW52534   3.253   1.389   2.338
83546SOL    HW152535   3.168   1.344   2.334
83546SOL    HW252536   3.240   1.469   2.288
83547SOL     OW52537   4.983   1.227  11.637
83547SOL    HW152538   5.048   1.292  11.661
83547SOL    HW252539   4.900   1.275  11.638
83548SOL     OW52540   2.035   8.172   8.442
83548SOL    HW152541   2.119   8.213   8.422
83548SOL    HW252542   1.971   8.222   8.391
83549SOL     OW52543   0.879   8.353  11.295
83549SOL    HW152544   0.846   8.337  11.207
83549SOL    HW252545   0.802   8.343  11.351
83550SOL     OW52546   1.130   0.988  13.451
83550SOL    HW152547   1.126   1.019  13.541
83550SOL    HW252548   1.118   0.893  13.457
83551SOL     OW52549   9.548   4.531  14.333
83551SOL    HW152550   9.462   4.539  14.293
83551SOL    HW252551   9.540   4.458  14.394
83552SOL     OW52552  13.494   2.069   0.936
83552SOL    HW152553  13.399   2.070   0.926
83552SOL    HW252554  13.521   1.981   0.909
83553SOL     OW52555   1.543   6.363   2.303
83553SOL    HW152556   1.449   6.377   2.316
83553SOL    HW252557   1.581   6.451   2.309
83554SOL     OW52558  11.125  14.431   0.178
83554SOL    HW152559  11.091  14.382   0.253
83554SOL    HW252560  11.104  14.376   0.102
83555SOL     OW52561   1.904   4.783  11.741
83555SOL    HW152562   1.960   4.845  11.695
83555SOL    HW252563   1.838   4.757  11.677
83556SOL     OW52564   3.756  12.977  14.793
83556SOL    HW152565   3.814  13.010  14.862
83556SOL    HW252566   3.694  13.048  14.777
83557SOL     OW52567  11.350   2.154   4.309
83557SOL    HW152568  11.268   2.192   4.340
83557SOL    HW252569  11.387   2.111   4.386
83558SOL     OW52570   5.366   6.964   0.373
83558SOL    HW152571   5.430   6.901   0.406
83558SOL    HW252572   5.368   7.035   0.437
83559SOL     OW52573  13.585   2.265   6.503
83559SOL    HW152574  13.634   2.226   6.431
83559SOL    HW252575  13.593   2.202   6.575
83560SOL     OW52576  11.317   0.077   5.849
83560SOL    HW152577  11.355   0.051   5.765
83560SOL    HW252578  11.223   0.064   5.838
83561SOL     OW52579   1.238   3.632   6.440
83561SOL    HW152580   1.259   3.637   6.533
83561SOL    HW252581   1.308   3.680   6.397
83562SOL     OW52582  14.582   5.054   9.834
83562SOL    HW152583  14.631   4.975   9.810
83562SOL    HW252584  14.604   5.069   9.926
83563SOL     OW52585  11.438   7.132   1.971
83563SOL    HW152586  11.370   7.154   2.034
83563SOL    HW252587  11.448   7.037   1.978
83564SOL     OW52588   5.684   7.837   3.445
83564SOL    HW152589   5.600   7.876   3.469
83564SOL    HW252590   5.734   7.839   3.527
83565SOL     OW52591  11.381   0.449  10.241
83565SOL    HW152592  11.465   0.408  10.224
83565SOL    HW252593  11.402   0.526  10.295
83566SOL     OW52594   4.442   0.171   5.323
83566SOL    HW152595   4.360   0.175   5.275
83566SOL    HW252596   4.500   0.232   5.277
83567SOL     OW52597   3.640   2.398   3.088
83567SOL    HW152598   3.721   2.351   3.107
83567SOL    HW252599   3.669   2.485   3.060
83568SOL     OW52600  11.288   8.346  12.451
83568SOL    HW152601  11.336   8.367  12.370
83568SOL    HW252602  11.293   8.426  12.503
83569SOL     OW52603   6.776   9.666  12.145
83569SOL    HW152604   6.843   9.704  12.088
83569SOL    HW252605   6.823   9.605  12.201
83570SOL     OW52606   0.158   8.763   7.718
83570SOL    HW152607   0.207   8.795   7.641
83570SOL    HW252608   0.141   8.671   7.699
83571SOL     OW52609   8.973   2.931   4.256
83571SOL    HW152610   9.061   2.947   4.220
83571SOL    HW252611   8.916   2.988   4.205
83572SOL     OW52612   7.551   0.297   4.491
83572SOL    HW152613   7.562   0.239   4.566
83572SOL    HW252614   7.616   0.267   4.428
83573SOL     OW52615  13.981   2.347   1.726
83573SOL    HW152616  13.992   2.422   1.785
83573SOL    HW252617  14.037   2.368   1.651
83574SOL     OW52618  10.579   2.893   7.253
83574SOL    HW152619  10.502   2.944   7.276
83574SOL    HW252620  10.592   2.910   7.160
83575SOL     OW52621   9.439   3.595   3.850
83575SOL    HW152622   9.346   3.570   3.854
83575SOL    HW252623   9.442   3.682   3.890
83576SOL     OW52624  14.431   0.717   6.678
83576SOL    HW152625  14.508   0.770   6.659
83576SOL    HW252626  14.360   0.759   6.630
83577SOL     OW52627   3.723   9.792   0.635
83577SOL    HW152628   3.672   9.850   0.578
83577SOL    HW252629   3.814   9.807   0.610
83578SOL     OW52630  14.178   1.006  13.041
83578SOL    HW152631  14.134   1.057  12.973
83578SOL    HW252632  14.229   1.072  13.090
83579SOL     OW52633  12.272   9.902  12.250
83579SOL    HW152634  12.209   9.869  12.186
83579SOL    HW252635  12.333   9.830  12.264
83580SOL     OW52636   6.811   4.015  14.419
83580SOL    HW152637   6.885   3.981  14.369
83580SOL    HW252638   6.850   4.077  14.480
83581SOL     OW52639   9.928   5.960  11.563
83581SOL    HW152640  10.015   5.932  11.595
83581SOL    HW252641   9.904   5.892  11.500
83582SOL     OW52642   1.561  13.326   8.844
83582SOL    HW152643   1.565  13.265   8.770
83582SOL    HW252644   1.628  13.392   8.824
83583SOL     OW52645  13.387   8.186   9.736
83583SOL    HW152646  13.341   8.104   9.719
83583SOL    HW252647  13.479   8.161   9.746
83584SOL     OW52648   9.083   1.777   5.430
83584SOL    HW152649   9.114   1.687   5.445
83584SOL    HW252650   8.988   1.768   5.421
83585SOL     OW52651   0.584   7.902   4.234
83585SOL    HW152652   0.559   7.809   4.231
83585SOL    HW252653   0.640   7.914   4.157
83586SOL     OW52654   0.848   6.974   5.727
83586SOL    HW152655   0.912   7.043   5.744
83586SOL    HW252656   0.896   6.908   5.677
83587SOL     OW52657   1.996  13.777   7.224
83587SOL    HW152658   1.967  13.690   7.253
83587SOL    HW252659   2.090  13.778   7.241
83588SOL     OW52660   0.221   6.725   0.018
83588SOL    HW152661   0.143   6.681  14.854
83588SOL    HW252662   0.206   6.731   0.112
83589SOL     OW52663   4.835   8.166   5.529
83589SOL    HW152664   4.812   8.253   5.561
83589SOL    HW252665   4.930   8.171   5.513
83590SOL     OW52666  10.212   1.082   4.958
83590SOL    HW152667  10.165   1.083   5.042
83590SOL    HW252668  10.148   1.050   4.895
83591SOL     OW52669  13.236  13.739   8.178
83591SOL    HW152670  13.299  13.770   8.244
83591SOL    HW252671  13.283  13.750   8.095
83592SOL     OW52672   8.550   0.800   3.838
83592SOL    HW152673   8.567   0.793   3.745
83592SOL    HW252674   8.623   0.851   3.872
83593SOL     OW52675  12.391  14.670   0.362
83593SOL    HW152676  12.469  14.623   0.333
83593SOL    HW252677  12.417  14.762   0.363
83594SOL     OW52678   6.100  13.098   2.195
83594SOL    HW152679   6.192  13.109   2.218
83594SOL    HW252680   6.052  13.127   2.273
83595SOL     OW52681   6.489  12.426  13.577
83595SOL    HW152682   6.416  12.489  13.580
83595SOL    HW252683   6.546  12.459  13.508
83596SOL     OW52684   4.083   9.055   3.835
83596SOL    HW152685   4.136   9.132   3.815
83596SOL    HW252686   4.024   9.084   3.905
83597SOL     OW52687   3.647   4.893   9.483
83597SOL    HW152688   3.679   4.978   9.452
83597SOL    HW252689   3.576   4.915   9.543
83598SOL     OW52690   7.207  11.634  14.710
83598SOL    HW152691   7.128  11.688  14.705
83598SOL    HW252692   7.274  11.694  14.742
83599SOL     OW52693  12.646   2.293   8.207
83599SOL    HW152694  12.617   2.293   8.299
83599SOL    HW252695  12.713   2.360   8.203
83600SOL     OW52696   7.581   3.407   5.105
83600SOL    HW152697   7.587   3.502   5.116
83600SOL    HW252698   7.558   3.374   5.192
83601SOL     OW52699   0.426   1.853  11.995
83601SOL    HW152700   0.451   1.837  12.086
83601SOL    HW252701   0.330   1.847  11.995
83602SOL     OW52702   5.597  13.451  11.658
83602SOL    HW152703   5.580  13.545  11.669
83602SOL    HW252704   5.526  13.421  11.601
83603SOL     OW52705  11.169  13.059  11.214
83603SOL    HW152706  11.114  13.056  11.292
83603SOL    HW252707  11.114  13.095  11.146
83604SOL     OW52708   6.947   1.198  13.046
83604SOL    HW152709   6.893   1.276  13.034
83604SOL    HW252710   7.020   1.211  12.986
83605SOL     OW52711  12.770  11.848   5.553
83605SOL    HW152712  12.791  11.825   5.643
83605SOL    HW252713  12.743  11.940   5.557
83606SOL     OW52714   6.019   0.369  11.757
83606SOL    HW152715   6.030   0.320  11.838
83606SOL    HW252716   5.986   0.305  11.694
83607SOL     OW52717   8.736  10.766   6.659
83607SOL    HW152718   8.691  10.682   6.655
83607SOL    HW252719   8.819  10.752   6.613
83608SOL     OW52720   2.063  13.790   6.822
83608SOL    HW152721   1.982  13.785   6.872
83608SOL    HW252722   2.039  13.759   6.734
83609SOL     OW52723  13.214   6.817   1.712
83609SOL    HW152724  13.309   6.809   1.702
83609SOL    HW252725  13.191   6.889   1.654
83610SOL     OW52726  13.252   3.419   4.732
83610SOL    HW152727  13.306   3.491   4.699
83610SOL    HW252728  13.293   3.340   4.698
83611SOL     OW52729  12.707   0.003  13.358
83611SOL    HW152730  12.750  14.808  13.413
83611SOL    HW252731  12.716  14.840  13.269
83612SOL     OW52732   1.889   2.664   5.766
83612SOL    HW152733   1.829   2.727   5.727
83612SOL    HW252734   1.844   2.635   5.846
83613SOL     OW52735  12.114   9.547   8.931
83613SOL    HW152736  12.113   9.600   8.851
83613SOL    HW252737  12.145   9.461   8.901
83614SOL     OW52738  13.153   0.080   2.315
83614SOL    HW152739  13.204   0.063   2.236
83614SOL    HW252740  13.064   0.096   2.283
83615SOL     OW52741   8.797   6.675   3.613
83615SOL    HW152742   8.738   6.750   3.600
83615SOL    HW252743   8.852   6.675   3.535
83616SOL     OW52744   1.255   8.961   9.498
83616SOL    HW152745   1.195   9.035   9.493
83616SOL    HW252746   1.329   8.992   9.549
83617SOL     OW52747   7.070   2.308   2.139
83617SOL    HW152748   7.141   2.348   2.189
83617SOL    HW252749   6.991   2.326   2.191
83618SOL     OW52750  13.661   8.687   4.530
83618SOL    HW152751  13.692   8.739   4.456
83618SOL    HW252752  13.699   8.600   4.516
83619SOL     OW52753   6.505   7.449  13.167
83619SOL    HW152754   6.493   7.361  13.133
83619SOL    HW252755   6.556   7.438  13.247
83620SOL     OW52756   1.081  14.621   7.768
83620SOL    HW152757   1.059  14.558   7.698
83620SOL    HW252758   1.032  14.589   7.844
83621SOL     OW52759  11.652   2.811   3.749
83621SOL    HW152760  11.569   2.827   3.704
83621SOL    HW252761  11.683   2.728   3.714
83622SOL     OW52762   0.861   0.538  10.777
83622SOL    HW152763   0.933   0.596  10.801
83622SOL    HW252764   0.782   0.591  10.788
83623SOL     OW52765   6.989  14.188  12.885
83623SOL    HW152766   6.965  14.210  12.975
83623SOL    HW252767   6.932  14.242  12.831
83624SOL     OW52768   0.835  10.619   2.634
83624SOL    HW152769   0.789  10.545   2.594
83624SOL    HW252770   0.843  10.684   2.564
83625SOL     OW52771   8.972   1.674   0.508
83625SOL    HW152772   8.909   1.699   0.576
83625SOL    HW252773   9.013   1.756   0.482
83626SOL     OW52774  12.334   7.589   6.562
83626SOL    HW152775  12.366   7.565   6.649
83626SOL    HW252776  12.239   7.594   6.572
83627SOL     OW52777   2.394   7.712   6.242
83627SOL    HW152778   2.439   7.782   6.195
83627SOL    HW252779   2.457   7.639   6.243
83628SOL     OW52780  10.057   6.750   4.806
83628SOL    HW152781  10.076   6.733   4.898
83628SOL    HW252782  10.041   6.844   4.801
83629SOL     OW52783   7.695   4.924   6.522
83629SOL    HW152784   7.719   4.831   6.521
83629SOL    HW252785   7.756   4.963   6.584
83630SOL     OW52786   7.449   4.606   3.761
83630SOL    HW152787   7.501   4.527   3.777
83630SOL    HW252788   7.512   4.678   3.771
83631SOL     OW52789   2.857   9.154   0.711
83631SOL    HW152790   2.884   9.067   0.741
83631SOL    HW252791   2.765   9.161   0.738
83632SOL     OW52792   0.851   8.066   7.087
83632SOL    HW152793   0.864   7.985   7.136
83632SOL    HW252794   0.782   8.113   7.134
83633SOL     OW52795   6.022  12.267   7.757
83633SOL    HW152796   5.933  12.249   7.726
83633SOL    HW252797   6.015  12.351   7.802
83634SOL     OW52798  10.294  10.625   2.387
83634SOL    HW152799  10.204  10.621   2.354
83634SOL    HW252800  10.317  10.534   2.405
83635SOL     OW52801   4.923  14.031   4.393
83635SOL    HW152802   4.832  14.046   4.367
83635SOL    HW252803   4.957  14.119   4.411
83636SOL     OW52804   5.357   2.770  12.737
83636SOL    HW152805   5.408   2.695  12.769
83636SOL    HW252806   5.353   2.829  12.812
83637SOL     OW52807  13.961  14.485   2.385
83637SOL    HW152808  13.873  14.462   2.415
83637SOL    HW252809  13.969  14.578   2.404
83638SOL     OW52810   6.489   5.708  12.644
83638SOL    HW152811   6.558   5.653  12.680
83638SOL    HW252812   6.535   5.770  12.587
83639SOL     OW52813  14.620   5.702   7.765
83639SOL    HW152814  14.524   5.706   7.757
83639SOL    HW252815  14.645   5.790   7.792
83640SOL     OW52816  10.667   6.638   2.337
83640SOL    HW152817  10.631   6.618   2.250
83640SOL    HW252818  10.618   6.580   2.396
83641SOL     OW52819  11.481   8.707  13.896
83641SOL    HW152820  11.510   8.734  13.983
83641SOL    HW252821  11.538   8.755  13.835
83642SOL     OW52822   2.039  10.309  13.528
83642SOL    HW152823   1.952  10.306  13.488
83642SOL    HW252824   2.087  10.374  13.477
83643SOL     OW52825   0.809   6.988  13.354
83643SOL    HW152826   0.815   6.894  13.340
83643SOL    HW252827   0.870   7.026  13.290
83644SOL     OW52828   2.425   7.457  11.427
83644SOL    HW152829   2.455   7.537  11.383
83644SOL    HW252830   2.450   7.386  11.368
83645SOL     OW52831  12.447   4.056   7.416
83645SOL    HW152832  12.419   4.145   7.441
83645SOL    HW252833  12.428   4.051   7.322
83646SOL     OW52834  11.723   9.760   1.825
83646SOL    HW152835  11.709   9.666   1.834
83646SOL    HW252836  11.748   9.771   1.733
83647SOL     OW52837  10.633   4.488  12.287
83647SOL    HW152838  10.552   4.501  12.238
83647SOL    HW252839  10.609   4.499  12.378
83648SOL     OW52840   0.440   9.562   3.163
83648SOL    HW152841   0.399   9.551   3.077
83648SOL    HW252842   0.485   9.479   3.178
83649SOL     OW52843   0.421   5.848   5.659
83649SOL    HW152844   0.475   5.782   5.616
83649SOL    HW252845   0.482   5.899   5.712
83650SOL     OW52846   8.692   3.214  10.263
83650SOL    HW152847   8.633   3.230  10.337
83650SOL    HW252848   8.688   3.295  10.212
83651SOL     OW52849   7.012  13.111  12.086
83651SOL    HW152850   7.052  13.198  12.091
83651SOL    HW252851   7.017  13.088  11.993
83652SOL     OW52852  14.113   9.261  12.730
83652SOL    HW152853  14.187   9.284  12.786
83652SOL    HW252854  14.080   9.345  12.698
83653SOL     OW52855   5.963   5.612  13.292
83653SOL    HW152856   6.029   5.669  13.252
83653SOL    HW252857   5.883   5.631  13.243
83654SOL     OW52858  14.310   9.072   8.916
83654SOL    HW152859  14.293   8.978   8.928
83654SOL    HW252860  14.262   9.114   8.986
83655SOL     OW52861  11.030   8.464   8.702
83655SOL    HW152862  10.937   8.441   8.702
83655SOL    HW252863  11.031   8.560   8.698
83656SOL     OW52864   0.168   2.557   1.779
83656SOL    HW152865   0.163   2.462   1.781
83656SOL    HW252866   0.088   2.586   1.823
83657SOL     OW52867   3.705   7.695   5.792
83657SOL    HW152868   3.680   7.662   5.706
83657SOL    HW252869   3.795   7.726   5.781
83658SOL     OW52870  10.191   0.862  11.387
83658SOL    HW152871  10.253   0.791  11.404
83658SOL    HW252872  10.245   0.941  11.386
83659SOL     OW52873   8.612  12.428   9.053
83659SOL    HW152874   8.612  12.522   9.032
83659SOL    HW252875   8.704  12.402   9.046
83660SOL     OW52876   2.975  11.435  10.336
83660SOL    HW152877   2.923  11.515  10.331
83660SOL    HW252878   3.048  11.458  10.395
83661SOL     OW52879   3.881  11.352   3.238
83661SOL    HW152880   3.818  11.285   3.213
83661SOL    HW252881   3.962  11.327   3.193
83662SOL     OW52882   1.127  14.391   7.235
83662SOL    HW152883   1.054  14.330   7.225
83662SOL    HW252884   1.177  14.381   7.154
83663SOL     OW52885  11.543   7.058   6.993
83663SOL    HW152886  11.511   7.126   6.935
83663SOL    HW252887  11.629   7.089   7.023
83664SOL     OW52888   7.805   3.783   2.233
83664SOL    HW152889   7.836   3.772   2.143
83664SOL    HW252890   7.767   3.871   2.234
83665SOL     OW52891   8.972   3.749  11.757
83665SOL    HW152892   9.065   3.743  11.780
83665SOL    HW252893   8.954   3.843  11.755
83666SOL     OW52894   4.038   7.341  12.119
83666SOL    HW152895   3.961   7.287  12.136
83666SOL    HW252896   4.112   7.281  12.127
83667SOL     OW52897   2.302  12.564   9.581
83667SOL    HW152898   2.244  12.491   9.558
83667SOL    HW252899   2.245  12.641   9.582
83668SOL     OW52900   5.417  13.522   7.455
83668SOL    HW152901   5.410  13.502   7.548
83668SOL    HW252902   5.353  13.464   7.413
83669SOL     OW52903  10.320   9.917   1.530
83669SOL    HW152904  10.304   9.829   1.494
83669SOL    HW252905  10.377   9.902   1.605
83670SOL     OW52906   8.603   7.998  11.179
83670SOL    HW152907   8.643   8.014  11.094
83670SOL    HW252908   8.523   7.949  11.160
83671SOL     OW52909  10.977   9.539   6.446
83671SOL    HW152910  11.048   9.596   6.414
83671SOL    HW252911  10.918   9.530   6.371
83672SOL     OW52912  14.785  11.194   1.342
83672SOL    HW152913  14.788  11.118   1.399
83672SOL    HW252914  14.693  11.201   1.316
83673SOL     OW52915  13.005  12.932   3.578
83673SOL    HW152916  12.993  12.902   3.487
83673SOL    HW252917  12.942  13.003   3.588
83674SOL     OW52918   1.955   3.687   9.828
83674SOL    HW152919   1.933   3.712   9.917
83674SOL    HW252920   2.050   3.698   9.823
83675SOL     OW52921  14.531   7.885   3.419
83675SOL    HW152922  14.474   7.959   3.398
83675SOL    HW252923  14.527   7.877   3.514
83676SOL     OW52924   1.617  14.302   5.837
83676SOL    HW152925   1.676  14.348   5.777
83676SOL    HW252926   1.654  14.214   5.844
83677SOL     OW52927   8.236   0.511  12.004
83677SOL    HW152928   8.164   0.541  12.060
83677SOL    HW252929   8.248   0.419  12.029
83678SOL     OW52930   8.986   7.780   0.563
83678SOL    HW152931   9.040   7.792   0.640
83678SOL    HW252932   8.957   7.868   0.539
83679SOL     OW52933   5.653   7.147   1.814
83679SOL    HW152934   5.683   7.182   1.730
83679SOL    HW252935   5.600   7.218   1.851
83680SOL     OW52936  13.511   1.052   9.917
83680SOL    HW152937  13.600   1.032   9.887
83680SOL    HW252938  13.485   0.976   9.969
83681SOL     OW52939   6.418  11.730  10.791
83681SOL    HW152940   6.373  11.646  10.800
83681SOL    HW252941   6.373  11.788  10.853
83682SOL     OW52942   4.112   0.315  12.628
83682SOL    HW152943   4.082   0.224  12.622
83682SOL    HW252944   4.138   0.337  12.539
83683SOL     OW52945  14.806  13.648   2.890
83683SOL    HW152946  14.798  13.578   2.954
83683SOL    HW252947  14.725  13.699   2.900
83684SOL     OW52948  10.822   8.030   2.265
83684SOL    HW152949  10.896   8.002   2.318
83684SOL    HW252950  10.851   8.110   2.223
83685SOL     OW52951   4.576  10.038  11.637
83685SOL    HW152952   4.661  10.028  11.680
83685SOL    HW252953   4.575  10.130  11.609
83686SOL     OW52954   9.006  13.851   6.723
83686SOL    HW152955   9.015  13.765   6.762
83686SOL    HW252956   9.050  13.844   6.638
83687SOL     OW52957   1.929   1.205   0.940
83687SOL    HW152958   1.914   1.122   0.895
83687SOL    HW252959   2.021   1.226   0.922
83688SOL     OW52960  14.570  11.158  10.354
83688SOL    HW152961  14.585  11.214  10.430
83688SOL    HW252962  14.627  11.083  10.368
83689SOL     OW52963  12.342  14.649  13.725
83689SOL    HW152964  12.371  14.737  13.700
83689SOL    HW252965  12.408  14.590  13.687
83690SOL     OW52966   8.762  10.491   4.028
83690SOL    HW152967   8.706  10.524   3.958
83690SOL    HW252968   8.835  10.449   3.982
83691SOL     OW52969   9.177  11.654  13.181
83691SOL    HW152970   9.233  11.613  13.246
83691SOL    HW252971   9.098  11.600  13.178
83692SOL     OW52972   1.715   2.462  11.573
83692SOL    HW152973   1.704   2.369  11.594
83692SOL    HW252974   1.755   2.462  11.486
83693SOL     OW52975   0.418  11.736  12.801
83693SOL    HW152976   0.330  11.732  12.762
83693SOL    HW252977   0.465  11.662  12.763
83694SOL     OW52978   7.557  13.722   5.063
83694SOL    HW152979   7.630  13.660   5.056
83694SOL    HW252980   7.479  13.667   5.055
83695SOL     OW52981   8.127  12.094  12.822
83695SOL    HW152982   8.084  12.013  12.795
83695SOL    HW252983   8.165  12.074  12.907
83696SOL     OW52984  10.532   5.317   6.013
83696SOL    HW152985  10.566   5.337   5.925
83696SOL    HW252986  10.499   5.228   6.005
83697SOL     OW52987   0.168  13.770   2.829
83697SOL    HW152988   0.132  13.839   2.773
83697SOL    HW252989   0.092  13.739   2.879
83698SOL     OW52990  11.123   8.775   6.842
83698SOL    HW152991  11.046   8.804   6.793
83698SOL    HW252992  11.106   8.682   6.860
83699SOL     OW52993   5.924  12.525  13.893
83699SOL    HW152994   5.954  12.447  13.846
83699SOL    HW252995   5.837  12.542  13.856
83700SOL     OW52996   3.493   7.596  12.613
83700SOL    HW152997   3.536   7.572  12.696
83700SOL    HW252998   3.454   7.681  12.630
83701SOL     OW52999   4.192   0.331   0.817
83701SOL    HW153000   4.118   0.295   0.767
83701SOL    HW253001   4.230   0.397   0.758
83702SOL     OW53002   4.325   3.522   1.091
83702SOL    HW153003   4.297   3.543   1.180
83702SOL    HW253004   4.419   3.509   1.098
83703SOL     OW53005   0.222   3.132   6.781
83703SOL    HW153006   0.200   3.121   6.689
83703SOL    HW253007   0.268   3.052   6.805
83704SOL     OW53008   5.039  12.995  14.281
83704SOL    HW153009   5.051  13.084  14.246
83704SOL    HW253010   5.127  12.957  14.280
83705SOL     OW53011   1.829  13.808  14.435
83705SOL    HW153012   1.821  13.727  14.386
83705SOL    HW253013   1.922  13.832  14.427
83706SOL     OW53014   8.001   8.186  12.949
83706SOL    HW153015   8.029   8.099  12.979
83706SOL    HW253016   7.925   8.169  12.893
83707SOL     OW53017   6.603  12.796   0.888
83707SOL    HW153018   6.638  12.760   0.807
83707SOL    HW253019   6.586  12.720   0.944
83708SOL     OW53020   8.493  13.038   5.062
83708SOL    HW153021   8.476  13.042   4.968
83708SOL    HW253022   8.584  13.008   5.069
83709SOL     OW53023   7.916  11.218   1.259
83709SOL    HW153024   7.962  11.292   1.298
83709SOL    HW253025   7.984  11.155   1.238
83710SOL     OW53026  14.170   6.573  13.560
83710SOL    HW153027  14.111   6.636  13.519
83710SOL    HW253028  14.214   6.623  13.629
83711SOL     OW53029   1.140   9.501  11.349
83711SOL    HW153030   1.174   9.511  11.437
83711SOL    HW253031   1.134   9.407  11.336
83712SOL     OW53032  13.631   1.277  11.346
83712SOL    HW153033  13.709   1.226  11.327
83712SOL    HW253034  13.664   1.359  11.384
83713SOL     OW53035   9.048  11.015   0.500
83713SOL    HW153036   9.085  11.072   0.433
83713SOL    HW253037   9.029  10.932   0.454
83714SOL     OW53038  10.488   7.663   9.043
83714SOL    HW153039  10.538   7.733   9.001
83714SOL    HW253040  10.531   7.583   9.016
83715SOL     OW53041  10.293   6.356   8.816
83715SOL    HW153042  10.272   6.420   8.883
83715SOL    HW253043  10.388   6.365   8.803
83716SOL     OW53044  12.632  10.939   7.854
83716SOL    HW153045  12.617  10.862   7.910
83716SOL    HW253046  12.652  10.903   7.768
83717SOL     OW53047   7.558   9.638  10.620
83717SOL    HW153048   7.630   9.579  10.599
83717SOL    HW253049   7.502   9.637  10.543
83718SOL     OW53050  10.894   1.940   8.396
83718SOL    HW153051  10.812   1.935   8.444
83718SOL    HW253052  10.879   2.005   8.328
83719SOL     OW53053   5.118  12.976   1.587
83719SOL    HW153054   5.077  13.034   1.651
83719SOL    HW253055   5.046  12.918   1.559
83720SOL     OW53056   6.485  12.702   8.753
83720SOL    HW153057   6.469  12.776   8.811
83720SOL    HW253058   6.539  12.642   8.805
83721SOL     OW53059   5.288  13.765  11.407
83721SOL    HW153060   5.210  13.799  11.363
83721SOL    HW253061   5.330  13.711  11.340
83722SOL     OW53062   3.496   9.129   8.607
83722SOL    HW153063   3.519   9.093   8.522
83722SOL    HW253064   3.535   9.217   8.608
83723SOL     OW53065   7.915  12.096   3.410
83723SOL    HW153066   7.857  12.051   3.471
83723SOL    HW253067   7.959  12.026   3.362
83724SOL     OW53068   1.910   1.379  10.993
83724SOL    HW153069   1.855   1.377  10.914
83724SOL    HW253070   1.868   1.443  11.050
83725SOL     OW53071   5.720   4.624  14.789
83725SOL    HW153072   5.629   4.639  14.764
83725SOL    HW253073   5.727   4.661   0.008
83726SOL     OW53074  13.071   3.770   7.518
83726SOL    HW153075  13.113   3.850   7.487
83726SOL    HW253076  12.983   3.798   7.543
83727SOL     OW53077   0.176   6.338   8.406
83727SOL    HW153078   0.091   6.359   8.368
83727SOL    HW253079   0.217   6.423   8.420
83728SOL     OW53080   6.203   8.252   8.773
83728SOL    HW153081   6.287   8.207   8.788
83728SOL    HW253082   6.173   8.219   8.689
83729SOL     OW53083   2.067   9.460  13.703
83729SOL    HW153084   2.077   9.469  13.798
83729SOL    HW253085   2.046   9.548  13.673
83730SOL     OW53086   8.252   5.460  12.464
83730SOL    HW153087   8.305   5.540  12.461
83730SOL    HW253088   8.315   5.389  12.456
83731SOL     OW53089   4.828   7.231   5.672
83731SOL    HW153090   4.895   7.277   5.724
83731SOL    HW253091   4.771   7.191   5.738
83732SOL     OW53092  13.842   5.501   9.266
83732SOL    HW153093  13.782   5.428   9.248
83732SOL    HW253094  13.834   5.515   9.360
83733SOL     OW53095  11.959   0.626  11.857
83733SOL    HW153096  11.957   0.549  11.914
83733SOL    HW253097  11.917   0.597  11.776
83734SOL     OW53098   8.842   0.015   4.363
83734SOL    HW153099   8.755   0.023   4.403
83734SOL    HW253100   8.866   0.105   4.341
83735SOL     OW53101   3.804  10.259  12.465
83735SOL    HW153102   3.823  10.166  12.450
83735SOL    HW253103   3.793  10.295  12.376
83736SOL     OW53104   7.834   7.983   4.460
83736SOL    HW153105   7.909   7.964   4.403
83736SOL    HW253106   7.770   7.914   4.439
83737SOL     OW53107  12.166  11.638  10.459
83737SOL    HW153108  12.242  11.581  10.450
83737SOL    HW253109  12.169  11.695  10.382
83738SOL     OW53110   6.799   5.247  13.829
83738SOL    HW153111   6.837   5.262  13.743
83738SOL    HW253112   6.704   5.246  13.813
83739SOL     OW53113   1.427   3.230   3.748
83739SOL    HW153114   1.505   3.271   3.786
83739SOL    HW253115   1.454   3.204   3.660
83740SOL     OW53116  11.731   2.679  14.157
83740SOL    HW153117  11.644   2.704  14.186
83740SOL    HW253118  11.785   2.756  14.172
83741SOL     OW53119  14.570   4.145  11.909
83741SOL    HW153120  14.666   4.153  11.906
83741SOL    HW253121  14.552   4.062  11.866
83742SOL     OW53122  10.485  13.959  14.117
83742SOL    HW153123  10.496  14.024  14.047
83742SOL    HW253124  10.401  13.981  14.156
83743SOL     OW53125   1.303  14.868   2.927
83743SOL    HW153126   1.355  14.788   2.931
83743SOL    HW253127   1.367   0.069   2.937
83744SOL     OW53128   0.485   5.539  12.314
83744SOL    HW153129   0.543   5.614  12.323
83744SOL    HW253130   0.478   5.502  12.402
83745SOL     OW53131   0.415   3.871   5.821
83745SOL    HW153132   0.327   3.836   5.835
83745SOL    HW253133   0.401   3.959   5.788
83746SOL     OW53134   0.005   1.143   5.316
83746SOL    HW153135   0.097   1.118   5.305
83746SOL    HW253136   0.008   1.233   5.349
83747SOL     OW53137   8.494   5.947  11.479
83747SOL    HW153138   8.418   5.981  11.431
83747SOL    HW253139   8.535   5.886  11.417
83748SOL     OW53140   2.254   8.075   6.268
83748SOL    HW153141   2.278   8.167   6.269
83748SOL    HW253142   2.171   8.070   6.316
83749SOL     OW53143   2.825  14.380  11.346
83749SOL    HW153144   2.834  14.415  11.434
83749SOL    HW253145   2.879  14.300  11.346
83750SOL     OW53146   5.227   3.870   0.639
83750SOL    HW153147   5.196   3.785   0.607
83750SOL    HW253148   5.177   3.885   0.719
83751SOL     OW53149   6.898   8.103  10.211
83751SOL    HW153150   6.864   8.079  10.125
83751SOL    HW253151   6.989   8.126  10.196
83752SOL     OW53152   1.594   2.762  13.414
83752SOL    HW153153   1.600   2.810  13.497
83752SOL    HW253154   1.602   2.670  13.439
83753SOL     OW53155   0.083  13.629   6.499
83753SOL    HW153156  14.864  13.661   6.519
83753SOL    HW253157   0.070  13.537   6.475
83754SOL     OW53158   3.053   8.814  13.793
83754SOL    HW153159   3.056   8.866  13.873
83754SOL    HW253160   3.050   8.878  13.722
83755SOL     OW53161   6.744  12.799  10.474
83755SOL    HW153162   6.695  12.878  10.497
83755SOL    HW253163   6.744  12.797  10.379
83756SOL     OW53164  11.951  14.273   8.275
83756SOL    HW153165  11.916  14.209   8.336
83756SOL    HW253166  11.890  14.274   8.202
83757SOL     OW53167   1.709   5.970  12.440
83757SOL    HW153168   1.790   5.941  12.397
83757SOL    HW253169   1.722   6.064  12.453
83758SOL     OW53170  14.129   5.489   5.958
83758SOL    HW153171  14.081   5.417   5.998
83758SOL    HW253172  14.186   5.523   6.027
83759SOL     OW53173   0.405  10.635  13.062
83759SOL    HW153174   0.408  10.590  13.147
83759SOL    HW253175   0.431  10.725  13.082
83760SOL     OW53176  14.537   4.728   9.993
83760SOL    HW153177  14.497   4.641   9.992
83760SOL    HW253178  14.463   4.789   9.998
83761SOL     OW53179   8.176  11.125  13.513
83761SOL    HW153180   8.257  11.140  13.563
83761SOL    HW253181   8.140  11.213  13.500
83762SOL     OW53182   4.033  14.096  13.672
83762SOL    HW153183   3.968  14.099  13.602
83762SOL    HW253184   4.086  14.019  13.653
83763SOL     OW53185  12.201  11.129   8.364
83763SOL    HW153186  12.296  11.118   8.369
83763SOL    HW253187  12.186  11.161   8.275
83764SOL     OW53188   8.606   9.763   2.429
83764SOL    HW153189   8.657   9.791   2.504
83764SOL    HW253190   8.521   9.739   2.466
83765SOL     OW53191   6.925  10.272   2.928
83765SOL    HW153192   6.932  10.207   2.999
83765SOL    HW253193   6.915  10.220   2.849
83766SOL     OW53194   7.362   9.727  14.322
83766SOL    HW153195   7.354   9.738  14.417
83766SOL    HW253196   7.354   9.816  14.287
83767SOL     OW53197   0.794   4.919  14.796
83767SOL    HW153198   0.871   4.975  14.805
83767SOL    HW253199   0.829   4.830  14.796
83768SOL     OW53200  13.158   7.553   4.070
83768SOL    HW153201  13.156   7.475   4.014
83768SOL    HW253202  13.087   7.539   4.133
83769SOL     OW53203  12.808  10.166   4.008
83769SOL    HW153204  12.879  10.111   4.042
83769SOL    HW253205  12.850  10.223   3.944
83770SOL     OW53206   0.852   4.923   9.124
83770SOL    HW153207   0.873   4.967   9.207
83770SOL    HW253208   0.918   4.954   9.063
83771SOL     OW53209   9.650   9.121  14.373
83771SOL    HW153210   9.692   9.189  14.425
83771SOL    HW253211   9.568   9.160  14.344
83772SOL     OW53212  14.582   8.778   0.924
83772SOL    HW153213  14.618   8.787   0.836
83772SOL    HW253214  14.572   8.868   0.956
83773SOL     OW53215   7.648  12.099   7.588
83773SOL    HW153216   7.703  12.170   7.622
83773SOL    HW253217   7.560  12.136   7.587
83774SOL     OW53218  10.466   7.234   8.036
83774SOL    HW153219  10.420   7.230   7.953
83774SOL    HW253220  10.428   7.163   8.088
83775SOL     OW53221   1.626  11.334  13.121
83775SOL    HW153222   1.681  11.255  13.119
83775SOL    HW253223   1.668  11.393  13.058
83776SOL     OW53224   3.862   8.002  10.605
83776SOL    HW153225   3.855   7.912  10.635
83776SOL    HW253226   3.934   8.001  10.542
83777SOL     OW53227   9.688   9.417   9.802
83777SOL    HW153228   9.730   9.394   9.718
83777SOL    HW253229   9.697   9.339   9.855
83778SOL     OW53230   7.473   9.296   5.235
83778SOL    HW153231   7.543   9.253   5.284
83778SOL    HW253232   7.518   9.356   5.176
83779SOL     OW53233  11.272  12.744   5.133
83779SOL    HW153234  11.184  12.716   5.106
83779SOL    HW253235  11.279  12.833   5.099
83780SOL     OW53236  13.974  10.146   7.386
83780SOL    HW153237  14.036  10.112   7.451
83780SOL    HW253238  14.010  10.118   7.302
83781SOL     OW53239   9.839   5.139  11.354
83781SOL    HW153240   9.872   5.195  11.425
83781SOL    HW253241   9.897   5.063  11.355
83782SOL     OW53242   0.012   4.280   0.974
83782SOL    HW153243   0.091   4.331   0.960
83782SOL    HW253244  14.816   4.343   1.003
83783SOL     OW53245  10.384   6.918   3.688
83783SOL    HW153246  10.438   6.957   3.619
83783SOL    HW253247  10.295   6.919   3.653
83784SOL     OW53248   6.304   8.454  11.326
83784SOL    HW153249   6.217   8.488  11.304
83784SOL    HW253250   6.345   8.523  11.378
83785SOL     OW53251   7.580  13.318   8.287
83785SOL    HW153252   7.671  13.289   8.298
83785SOL    HW253253   7.534  13.285   8.364
83786SOL     OW53254  11.879   5.194   6.077
83786SOL    HW153255  11.885   5.128   6.146
83786SOL    HW253256  11.966   5.196   6.038
83787SOL     OW53257   3.629  13.960   2.871
83787SOL    HW153258   3.663  14.050   2.875
83787SOL    HW253259   3.535  13.971   2.861
83788SOL     OW53260   4.193   3.857   3.826
83788SOL    HW153261   4.223   3.915   3.896
83788SOL    HW253262   4.262   3.861   3.760
83789SOL     OW53263   8.228   0.478  10.077
83789SOL    HW153264   8.271   0.425  10.145
83789SOL    HW253265   8.135   0.471  10.098
83790SOL     OW53266   6.294   4.574   6.785
83790SOL    HW153267   6.264   4.665   6.795
83790SOL    HW253268   6.304   4.562   6.691
83791SOL     OW53269   0.462  14.307   3.790
83791SOL    HW153270   0.482  14.398   3.814
83791SOL    HW253271   0.435  14.267   3.873
83792SOL     OW53272   2.640  10.411   0.430
83792SOL    HW153273   2.720  10.443   0.472
83792SOL    HW253274   2.579  10.484   0.436
83793SOL     OW53275   4.258   3.975  12.781
83793SOL    HW153276   4.295   3.934  12.703
83793SOL    HW253277   4.303   4.060  12.786
83794SOL     OW53278   7.772  14.105  10.921
83794SOL    HW153279   7.694  14.062  10.956
83794SOL    HW253280   7.798  14.166  10.990
83795SOL     OW53281   5.617  13.749  14.218
83795SOL    HW153282   5.576  13.674  14.176
83795SOL    HW253283   5.685  13.777  14.156
83796SOL     OW53284  12.539   3.470   0.874
83796SOL    HW153285  12.460   3.441   0.828
83796SOL    HW253286  12.530   3.565   0.881
83797SOL     OW53287  11.650   4.539  11.834
83797SOL    HW153288  11.583   4.606  11.848
83797SOL    HW253289  11.641   4.516  11.741
83798SOL     OW53290   5.424   2.440  12.198
83798SOL    HW153291   5.512   2.475  12.215
83798SOL    HW253292   5.437   2.346  12.186
83799SOL     OW53293   6.817   1.347   1.081
83799SOL    HW153294   6.852   1.430   1.111
83799SOL    HW253295   6.883   1.314   1.020
83800SOL     OW53296   8.076  13.696   6.028
83800SOL    HW153297   8.072  13.653   6.114
83800SOL    HW253298   7.986  13.722   6.010
83801SOL     OW53299   9.981   7.567  11.146
83801SOL    HW153300   9.898   7.524  11.124
83801SOL    HW253301  10.035   7.497  11.183
83802SOL     OW53302  12.111   8.460   7.429
83802SOL    HW153303  12.189   8.517   7.426
83802SOL    HW253304  12.057   8.491   7.356
83803SOL     OW53305   0.250   8.214   3.277
83803SOL    HW153306   0.310   8.205   3.203
83803SOL    HW253307   0.292   8.167   3.349
83804SOL     OW53308   2.238  10.418   2.539
83804SOL    HW153309   2.227  10.436   2.632
83804SOL    HW253310   2.310  10.475   2.512
83805SOL     OW53311  10.116   0.530   0.185
83805SOL    HW153312  10.206   0.559   0.172
83805SOL    HW253313  10.084   0.509   0.098
83806SOL     OW53314   3.126   3.879  11.876
83806SOL    HW153315   3.071   3.927  11.815
83806SOL    HW253316   3.199   3.939  11.895
83807SOL     OW53317   1.538   7.481   3.389
83807SOL    HW153318   1.462   7.524   3.350
83807SOL    HW253319   1.521   7.485   3.483
83808SOL     OW53320  14.710   9.393   1.406
83808SOL    HW153321  14.677   9.426   1.490
83808SOL    HW253322  14.644   9.329   1.378
83809SOL     OW53323   5.248  12.820   3.742
83809SOL    HW153324   5.195  12.755   3.696
83809SOL    HW253325   5.205  12.904   3.722
83810SOL     OW53326  12.377   1.732  12.731
83810SOL    HW153327  12.340   1.695  12.652
83810SOL    HW253328  12.470   1.744  12.712
83811SOL     OW53329   2.089  12.775  14.830
83811SOL    HW153330   2.056  12.685  14.841
83811SOL    HW253331   2.184  12.766  14.838
83812SOL     OW53332  10.063   2.723   9.769
83812SOL    HW153333  10.037   2.703   9.679
83812SOL    HW253334  10.124   2.653   9.793
83813SOL     OW53335  13.212   4.972   6.402
83813SOL    HW153336  13.167   5.049   6.367
83813SOL    HW253337  13.213   4.910   6.329
83814SOL     OW53338  14.183  13.290   4.632
83814SOL    HW153339  14.134  13.354   4.581
83814SOL    HW253340  14.263  13.336   4.658
83815SOL     OW53341  14.566   2.853   6.003
83815SOL    HW153342  14.626   2.811   5.942
83815SOL    HW253343  14.479   2.824   5.974
83816SOL     OW53344   0.366   0.472   4.905
83816SOL    HW153345   0.337   0.425   4.826
83816SOL    HW253346   0.423   0.410   4.950
83817SOL     OW53347   5.300   8.879  11.314
83817SOL    HW153348   5.297   8.821  11.238
83817SOL    HW253349   5.215   8.922  11.315
83818SOL     OW53350   4.718   4.358  10.246
83818SOL    HW153351   4.639   4.367  10.193
83818SOL    HW253352   4.766   4.439  10.231
83819SOL     OW53353   6.360   8.344   3.867
83819SOL    HW153354   6.353   8.399   3.789
83819SOL    HW253355   6.336   8.256   3.836
83820SOL     OW53356   1.896   0.470  12.914
83820SOL    HW153357   1.891   0.465  13.010
83820SOL    HW253358   1.963   0.407  12.890
83821SOL     OW53359   7.924   4.845   7.679
83821SOL    HW153360   7.931   4.936   7.651
83821SOL    HW253361   7.959   4.795   7.606
83822SOL     OW53362   2.283   9.748  11.392
83822SOL    HW153363   2.298   9.829  11.442
83822SOL    HW253364   2.358   9.743  11.333
83823SOL     OW53365   5.649  12.763   0.839
83823SOL    HW153366   5.630  12.842   0.889
83823SOL    HW253367   5.626  12.691   0.898
83824SOL     OW53368   4.360   1.393  11.848
83824SOL    HW153369   4.334   1.431  11.764
83824SOL    HW253370   4.329   1.303  11.845
83825SOL     OW53371  13.999   5.259  10.906
83825SOL    HW153372  14.062   5.187  10.909
83825SOL    HW253373  14.034   5.317  10.837
83826SOL     OW53374  13.567   4.280  11.153
83826SOL    HW153375  13.583   4.209  11.215
83826SOL    HW253376  13.476   4.305  11.168
83827SOL     OW53377  12.726  10.744   3.031
83827SOL    HW153378  12.701  10.694   2.954
83827SOL    HW253379  12.661  10.721   3.097
83828SOL     OW53380   7.808   9.341   0.778
83828SOL    HW153381   7.732   9.351   0.720
83828SOL    HW253382   7.775   9.365   0.865
83829SOL     OW53383   7.377  12.438   4.253
83829SOL    HW153384   7.457  12.484   4.277
83829SOL    HW253385   7.325  12.437   4.334
83830SOL     OW53386  14.025  10.990  13.429
83830SOL    HW153387  13.939  10.968  13.464
83830SOL    HW253388  14.065  11.044  13.498
83831SOL     OW53389   2.587   1.626   4.941
83831SOL    HW153390   2.565   1.719   4.933
83831SOL    HW253391   2.539   1.583   4.870
83832SOL     OW53392   8.396   4.726  13.908
83832SOL    HW153393   8.333   4.746  13.840
83832SOL    HW253394   8.345   4.685  13.977
83833SOL     OW53395  10.365   5.431  10.493
83833SOL    HW153396  10.311   5.502  10.527
83833SOL    HW253397  10.398   5.463  10.409
83834SOL     OW53398   5.092  14.165   4.666
83834SOL    HW153399   5.006  14.203   4.650
83834SOL    HW253400   5.147  14.198   4.595
83835SOL     OW53401   4.057   9.793   6.777
83835SOL    HW153402   4.130   9.830   6.727
83835SOL    HW253403   4.034   9.712   6.732
83836SOL     OW53404  11.379   6.225   7.115
83836SOL    HW153405  11.386   6.252   7.023
83836SOL    HW253406  11.379   6.307   7.164
83837SOL     OW53407  11.898  10.051   3.377
83837SOL    HW153408  11.884   9.990   3.304
83837SOL    HW253409  11.901  10.137   3.336
83838SOL     OW53410   0.732  13.341   5.373
83838SOL    HW153411   0.638  13.324   5.363
83838SOL    HW253412   0.769  13.256   5.399
83839SOL     OW53413   8.139   4.850  14.406
83839SOL    HW153414   8.090   4.898  14.473
83839SOL    HW253415   8.176   4.774  14.453
83840SOL     OW53416   8.182   1.828   6.880
83840SOL    HW153417   8.212   1.802   6.967
83840SOL    HW253418   8.129   1.906   6.896
83841SOL     OW53419  10.505   2.006   3.298
83841SOL    HW153420  10.553   1.952   3.361
83841SOL    HW253421  10.419   2.019   3.338
83842SOL     OW53422  13.350  11.464   0.278
83842SOL    HW153423  13.436  11.484   0.241
83842SOL    HW253424  13.368  11.404   0.350
83843SOL     OW53425   2.844  11.345   0.791
83843SOL    HW153426   2.786  11.345   0.868
83843SOL    HW253427   2.926  11.381   0.824
83844SOL     OW53428   5.377   8.766  14.352
83844SOL    HW153429   5.384   8.821  14.274
83844SOL    HW253430   5.282   8.756  14.366
83845SOL     OW53431   2.382   3.363   6.288
83845SOL    HW153432   2.334   3.303   6.345
83845SOL    HW253433   2.328   3.443   6.288
83846SOL     OW53434  12.962  13.972   4.502
83846SOL    HW153435  12.873  13.993   4.531
83846SOL    HW253436  12.950  13.923   4.421
83847SOL     OW53437  13.659   2.730  12.048
83847SOL    HW153438  13.637   2.672  12.121
83847SOL    HW253439  13.581   2.730  11.993
83848SOL     OW53440  10.836   2.366   4.297
83848SOL    HW153441  10.812   2.456   4.275
83848SOL    HW253442  10.807   2.315   4.222
83849SOL     OW53443  12.639  10.547   5.089
83849SOL    HW153444  12.604  10.567   5.176
83849SOL    HW253445  12.637  10.452   5.083
83850SOL     OW53446  13.996  12.188   2.971
83850SOL    HW153447  13.918  12.194   2.916
83850SOL    HW253448  13.972  12.231   3.053
83851SOL     OW53449  10.473   0.505   0.511
83851SOL    HW153450  10.555   0.531   0.470
83851SOL    HW253451  10.440   0.434   0.456
83852SOL     OW53452  14.439   1.044   8.843
83852SOL    HW153453  14.492   1.006   8.912
83852SOL    HW253454  14.408   0.969   8.792
83853SOL     OW53455   9.347   5.903   1.761
83853SOL    HW153456   9.338   5.914   1.855
83853SOL    HW253457   9.258   5.889   1.729
83854SOL     OW53458   6.089   3.397   5.399
83854SOL    HW153459   6.101   3.341   5.323
83854SOL    HW253460   6.078   3.336   5.472
83855SOL     OW53461   2.319   7.696   1.638
83855SOL    HW153462   2.358   7.704   1.725
83855SOL    HW253463   2.325   7.603   1.617
83856SOL     OW53464  14.621   0.268   2.917
83856SOL    HW153465  14.574   0.189   2.891
83856SOL    HW253466  14.568   0.305   2.988
83857SOL     OW53467  10.394   9.216   7.184
83857SOL    HW153468  10.410   9.127   7.153
83857SOL    HW253469  10.302   9.232   7.164
83858SOL     OW53470   1.936  14.761   8.977
83858SOL    HW153471   1.858  14.705   8.970
83858SOL    HW253472   1.964  14.774   8.886
83859SOL     OW53473  13.453   7.969  12.356
83859SOL    HW153474  13.479   7.949  12.446
83859SOL    HW253475  13.364   8.002  12.363
83860SOL     OW53476  12.808   0.030  11.248
83860SOL    HW153477  12.837   0.102  11.305
83860SOL    HW253478  12.890  14.866  11.210
83861SOL     OW53479  14.224   8.939   2.883
83861SOL    HW153480  14.163   9.008   2.856
83861SOL    HW253481  14.251   8.897   2.802
83862SOL     OW53482   7.276   6.508   0.329
83862SOL    HW153483   7.333   6.571   0.285
83862SOL    HW253484   7.197   6.505   0.276
83863SOL     OW53485  12.787   7.361   9.868
83863SOL    HW153486  12.828   7.346   9.953
83863SOL    HW253487  12.701   7.320   9.875
83864SOL     OW53488   3.482  13.554   5.025
83864SOL    HW153489   3.466  13.478   5.081
83864SOL    HW253490   3.558  13.529   4.972
83865SOL     OW53491  10.388  10.789   2.766
83865SOL    HW153492  10.307  10.831   2.795
83865SOL    HW253493  10.392  10.806   2.672
83866SOL     OW53494  10.927  11.400   5.485
83866SOL    HW153495  10.855  11.365   5.433
83866SOL    HW253496  11.006  11.362   5.447
83867SOL     OW53497  11.309   6.794  13.319
83867SOL    HW153498  11.214   6.791  13.311
83867SOL    HW253499  11.341   6.762  13.234
83868SOL     OW53500  13.746   6.795   7.079
83868SOL    HW153501  13.720   6.811   6.988
83868SOL    HW253502  13.835   6.761   7.073
83869SOL     OW53503  12.220   2.959   4.972
83869SOL    HW153504  12.265   2.878   4.995
83869SOL    HW253505  12.199   3.000   5.056
83870SOL     OW53506   9.465   0.400   8.644
83870SOL    HW153507   9.396   0.461   8.619
83870SOL    HW253508   9.522   0.451   8.702
83871SOL     OW53509   3.556  12.474   2.066
83871SOL    HW153510   3.533  12.566   2.075
83871SOL    HW253511   3.610  12.454   2.142
83872SOL     OW53512   6.796   7.493   7.913
83872SOL    HW153513   6.747   7.431   7.859
83872SOL    HW253514   6.773   7.579   7.877
83873SOL     OW53515   3.700   4.891   7.707
83873SOL    HW153516   3.698   4.940   7.789
83873SOL    HW253517   3.638   4.819   7.721
83874SOL     OW53518   9.454   2.015  13.322
83874SOL    HW153519   9.399   2.092  13.325
83874SOL    HW253520   9.430   1.970  13.242
83875SOL     OW53521  14.811   3.313   0.919
83875SOL    HW153522  14.747   3.246   0.892
83875SOL    HW253523  14.869   3.266   0.979
83876SOL     OW53524  11.572   8.403  11.428
83876SOL    HW153525  11.548   8.436  11.342
83876SOL    HW253526  11.580   8.308  11.416
83877SOL     OW53527   5.649  12.950   1.657
83877SOL    HW153528   5.564  12.929   1.618
83877SOL    HW253529   5.648  12.907   1.742
83878SOL     OW53530   2.757   5.226   1.968
83878SOL    HW153531   2.818   5.177   2.024
83878SOL    HW253532   2.682   5.168   1.959
83879SOL     OW53533   6.894   8.573   4.114
83879SOL    HW153534   6.861   8.513   4.048
83879SOL    HW253535   6.815   8.601   4.162
83880SOL     OW53536   4.329   2.448  12.170
83880SOL    HW153537   4.362   2.377  12.225
83880SOL    HW253538   4.368   2.430  12.084
83881SOL     OW53539   1.441   9.445  12.366
83881SOL    HW153540   1.495   9.502  12.420
83881SOL    HW253541   1.503   9.400  12.308
83882SOL     OW53542   4.896   2.212   9.081
83882SOL    HW153543   4.815   2.236   9.036
83882SOL    HW253544   4.867   2.168   9.161
83883SOL     OW53545   4.246   9.554   3.097
83883SOL    HW153546   4.262   9.475   3.044
83883SOL    HW253547   4.333   9.586   3.119
83884SOL     OW53548   9.890   6.505   8.409
83884SOL    HW153549   9.948   6.430   8.395
83884SOL    HW253550   9.842   6.514   8.326
83885SOL     OW53551   5.773   0.072   7.865
83885SOL    HW153552   5.774   0.011   7.939
83885SOL    HW253553   5.843   0.134   7.884
83886SOL     OW53554   5.550   5.371   4.741
83886SOL    HW153555   5.522   5.452   4.784
83886SOL    HW253556   5.595   5.321   4.809
83887SOL     OW53557  11.663   4.381   8.660
83887SOL    HW153558  11.638   4.342   8.744
83887SOL    HW253559  11.758   4.390   8.665
83888SOL     OW53560   3.710   3.758  12.144
83888SOL    HW153561   3.795   3.784  12.108
83888SOL    HW253562   3.688   3.679  12.096
83889SOL     OW53563   4.712   3.398  14.739
83889SOL    HW153564   4.618   3.408  14.751
83889SOL    HW253565   4.739   3.475  14.689
83890SOL     OW53566   3.056   7.498   9.984
83890SOL    HW153567   2.972   7.464  10.017
83890SOL    HW253568   3.068   7.581  10.031
83891SOL     OW53569   9.768   9.289  13.483
83891SOL    HW153570   9.762   9.380  13.455
83891SOL    HW253571   9.700   9.244  13.433
83892SOL     OW53572   9.280   8.780   0.349
83892SOL    HW153573   9.189   8.754   0.333
83892SOL    HW253574   9.285   8.791   0.444
83893SOL     OW53575  10.943   3.512  14.411
83893SOL    HW153576  10.998   3.576  14.456
83893SOL    HW253577  10.949   3.537  14.319
83894SOL     OW53578   9.032   0.461   8.730
83894SOL    HW153579   8.960   0.398   8.729
83894SOL    HW253580   9.065   0.461   8.640
83895SOL     OW53581   9.843   7.245   5.821
83895SOL    HW153582   9.903   7.217   5.752
83895SOL    HW253583   9.774   7.293   5.775
83896SOL     OW53584  12.500   1.230  13.382
83896SOL    HW153585  12.595   1.224  13.388
83896SOL    HW253586  12.470   1.139  13.384
83897SOL     OW53587   8.160  14.403   2.122
83897SOL    HW153588   8.101  14.393   2.047
83897SOL    HW253589   8.162  14.497   2.139
83898SOL     OW53590   5.910   9.176   2.694
83898SOL    HW153591   5.910   9.272   2.695
83898SOL    HW253592   6.001   9.152   2.680
83899SOL     OW53593   3.845  13.366   4.319
83899SOL    HW153594   3.917  13.343   4.260
83899SOL    HW253595   3.790  13.288   4.322
83900SOL     OW53596   1.001   5.157   0.714
83900SOL    HW153597   1.075   5.218   0.713
83900SOL    HW253598   0.955   5.174   0.632
83901SOL     OW53599   5.580  14.380   2.720
83901SOL    HW153600   5.599  14.353   2.631
83901SOL    HW253601   5.527  14.308   2.756
83902SOL     OW53602   6.139   5.308   3.592
83902SOL    HW153603   6.202   5.340   3.657
83902SOL    HW253604   6.126   5.216   3.615
83903SOL     OW53605   0.759   2.888  10.922
83903SOL    HW153606   0.680   2.896  10.975
83903SOL    HW253607   0.797   2.976  10.921
83904SOL     OW53608   4.721   1.830  11.703
83904SOL    HW153609   4.718   1.756  11.643
83904SOL    HW253610   4.697   1.905  11.650
83905SOL     OW53611   8.665  14.353   9.601
83905SOL    HW153612   8.735  14.309   9.553
83905SOL    HW253613   8.709  14.400   9.672
83906SOL     OW53614   9.093  13.811   6.185
83906SOL    HW153615   9.045  13.729   6.182
83906SOL    HW253616   9.079  13.844   6.274
83907SOL     OW53617   0.725   3.254   4.798
83907SOL    HW153618   0.743   3.289   4.886
83907SOL    HW253619   0.695   3.330   4.748
83908SOL     OW53620  10.315   8.067   3.899
83908SOL    HW153621  10.315   7.973   3.918
83908SOL    HW253622  10.377   8.077   3.827
83909SOL     OW53623  10.022   4.688  12.402
83909SOL    HW153624   9.953   4.706  12.338
83909SOL    HW253625  10.019   4.594  12.415
83910SOL     OW53626   2.016   8.524   2.989
83910SOL    HW153627   2.027   8.503   2.896
83910SOL    HW253628   1.922   8.537   3.000
83911SOL     OW53629  11.413  12.010  11.055
83911SOL    HW153630  11.433  12.004  11.148
83911SOL    HW253631  11.426  12.102  11.033
83912SOL     OW53632   9.699   6.725   9.736
83912SOL    HW153633   9.734   6.636   9.731
83912SOL    HW253634   9.669   6.744   9.647
83913SOL     OW53635   6.588   2.491  11.376
83913SOL    HW153636   6.583   2.396  11.391
83913SOL    HW253637   6.501   2.514  11.343
83914SOL     OW53638   5.117   8.086   1.224
83914SOL    HW153639   5.100   8.148   1.296
83914SOL    HW253640   5.042   8.096   1.166
83915SOL     OW53641  13.069   3.839  13.964
83915SOL    HW153642  13.129   3.786  13.911
83915SOL    HW253643  13.101   3.928  13.955
83916SOL     OW53644   1.619   2.916  11.504
83916SOL    HW153645   1.651   2.924  11.414
83916SOL    HW253646   1.533   2.958  11.503
83917SOL     OW53647   7.020   8.992  12.199
83917SOL    HW153648   7.050   9.069  12.151
83917SOL    HW253649   7.003   8.927  12.132
83918SOL     OW53650  10.172   6.017  11.987
83918SOL    HW153651  10.079   6.037  11.988
83918SOL    HW253652  10.178   5.932  11.942
83919SOL     OW53653   6.619  13.282  11.959
83919SOL    HW153654   6.634  13.313  12.049
83919SOL    HW253655   6.676  13.206  11.950
83920SOL     OW53656   1.230  11.311  11.272
83920SOL    HW153657   1.276  11.336  11.352
83920SOL    HW253658   1.141  11.343  11.284
83921SOL     OW53659   5.526   6.934   1.952
83921SOL    HW153660   5.574   6.999   1.900
83921SOL    HW253661   5.440   6.973   1.965
83922SOL     OW53662  10.922   2.575  12.294
83922SOL    HW153663  10.880   2.660  12.282
83922SOL    HW253664  10.886   2.542  12.376
83923SOL     OW53665   2.299   5.653   5.535
83923SOL    HW153666   2.347   5.621   5.612
83923SOL    HW253667   2.233   5.585   5.519
83924SOL     OW53668   9.752   9.219   5.604
83924SOL    HW153669   9.805   9.208   5.682
83924SOL    HW253670   9.664   9.239   5.637
83925SOL     OW53671  10.609  13.851   3.430
83925SOL    HW153672  10.560  13.911   3.486
83925SOL    HW253673  10.700  13.859   3.459
83926SOL     OW53674   6.278  13.725   5.839
83926SOL    HW153675   6.362  13.743   5.798
83926SOL    HW253676   6.297  13.720   5.933
83927SOL     OW53677  13.840   8.484   1.535
83927SOL    HW153678  13.837   8.450   1.624
83927SOL    HW253679  13.863   8.577   1.545
83928SOL     OW53680   9.112   6.260   0.481
83928SOL    HW153681   9.137   6.278   0.571
83928SOL    HW253682   9.106   6.164   0.476
83929SOL     OW53683  10.713   9.871   8.968
83929SOL    HW153684  10.783   9.838   8.912
83929SOL    HW253685  10.669   9.938   8.916
83930SOL     OW53686   9.165  10.072   2.389
83930SOL    HW153687   9.072  10.062   2.369
83930SOL    HW253688   9.179  10.167   2.389
83931SOL     OW53689   7.373  14.754   7.023
83931SOL    HW153690   7.398  14.809   6.949
83931SOL    HW253691   7.390  14.665   6.993
83932SOL     OW53692   3.404  12.311   9.687
83932SOL    HW153693   3.340  12.262   9.635
83932SOL    HW253694   3.376  12.299   9.777
83933SOL     OW53695   0.826  10.305  11.600
83933SOL    HW153696   0.825  10.400  11.615
83933SOL    HW253697   0.849  10.268  11.686
83934SOL     OW53698   7.020   8.644  14.718
83934SOL    HW153699   6.930   8.666  14.697
83934SOL    HW253700   7.036   8.560  14.675
83935SOL     OW53701   8.722  13.594  10.608
83935SOL    HW153702   8.710  13.501  10.628
83935SOL    HW253703   8.785  13.624  10.673
83936SOL     OW53704   1.080   1.241   5.547
83936SOL    HW153705   1.010   1.248   5.612
83936SOL    HW253706   1.035   1.247   5.463
83937SOL     OW53707  12.940   6.768   5.708
83937SOL    HW153708  13.015   6.827   5.719
83937SOL    HW253709  12.873   6.821   5.667
83938SOL     OW53710   2.085   1.524   4.649
83938SOL    HW153711   2.084   1.458   4.719
83938SOL    HW253712   2.175   1.525   4.619
83939SOL     OW53713   5.253   8.041   0.858
83939SOL    HW153714   5.191   7.979   0.819
83939SOL    HW253715   5.229   8.044   0.951
83940SOL     OW53716   3.075   8.490   5.160
83940SOL    HW153717   2.994   8.448   5.130
83940SOL    HW253718   3.135   8.483   5.085
83941SOL     OW53719   7.611   1.789   6.013
83941SOL    HW153720   7.609   1.697   6.039
83941SOL    HW253721   7.630   1.787   5.919
83942SOL     OW53722  10.865   2.151  12.643
83942SOL    HW153723  10.953   2.189  12.640
83942SOL    HW253724  10.831   2.163  12.555
83943SOL     OW53725   0.323  11.975   4.860
83943SOL    HW153726   0.373  11.934   4.789
83943SOL    HW253727   0.282  12.051   4.820
83944SOL     OW53728   8.959   1.980   9.544
83944SOL    HW153729   8.935   1.900   9.590
83944SOL    HW253730   8.951   2.049   9.609
83945SOL     OW53731   5.582   5.808  12.967
83945SOL    HW153732   5.550   5.847  12.886
83945SOL    HW253733   5.587   5.714  12.949
83946SOL     OW53734   9.998   6.062   2.965
83946SOL    HW153735   9.941   6.021   2.899
83946SOL    HW253736   9.939   6.117   3.016
83947SOL     OW53737  12.245   8.772   7.489
83947SOL    HW153738  12.259   8.753   7.397
83947SOL    HW253739  12.328   8.809   7.520
83948SOL     OW53740   6.080   4.270   4.796
83948SOL    HW153741   6.053   4.345   4.848
83948SOL    HW253742   6.176   4.270   4.801
83949SOL     OW53743   1.895   1.176   1.511
83949SOL    HW153744   1.918   1.092   1.550
83949SOL    HW253745   1.804   1.190   1.536
83950SOL     OW53746   1.667   6.092   8.155
83950SOL    HW153747   1.622   6.154   8.211
83950SOL    HW253748   1.605   6.020   8.143
83951SOL     OW53749   5.460  12.642  14.009
83951SOL    HW153750   5.500  12.701  14.072
83951SOL    HW253751   5.376  12.683  13.987
83952SOL     OW53752   5.116   8.192   9.779
83952SOL    HW153753   5.090   8.275   9.739
83952SOL    HW253754   5.035   8.156   9.816
83953SOL     OW53755  13.210   5.191  12.347
83953SOL    HW153756  13.284   5.237  12.385
83953SOL    HW253757  13.166   5.257  12.294
83954SOL     OW53758  10.983   9.968   7.528
83954SOL    HW153759  10.974   9.875   7.511
83954SOL    HW253760  10.894  10.002   7.524
83955SOL     OW53761   7.848  14.584   1.916
83955SOL    HW153762   7.929  14.560   1.872
83955SOL    HW253763   7.813  14.657   1.866
83956SOL     OW53764   0.959   0.014  10.576
83956SOL    HW153765   1.012  14.805  10.590
83956SOL    HW253766   0.998   0.055  10.499
83957SOL     OW53767   8.230   4.704  14.813
83957SOL    HW153768   8.300   4.765  14.836
83957SOL    HW253769   8.236   4.634   0.008
83958SOL     OW53770   9.374   7.451   6.852
83958SOL    HW153771   9.362   7.454   6.757
83958SOL    HW253772   9.468   7.432   6.863
83959SOL     OW53773   8.317   1.035   5.952
83959SOL    HW153774   8.299   1.086   6.031
83959SOL    HW253775   8.236   1.041   5.900
83960SOL     OW53776   5.526   1.992   4.473
83960SOL    HW153777   5.472   1.998   4.394
83960SOL    HW253778   5.472   1.942   4.535
83961SOL     OW53779   4.246   8.661  13.682
83961SOL    HW153780   4.331   8.670  13.638
83961SOL    HW253781   4.218   8.571  13.662
83962SOL     OW53782   1.716  12.724   1.302
83962SOL    HW153783   1.672  12.796   1.257
83962SOL    HW253784   1.796  12.763   1.338
83963SOL     OW53785   6.507   2.248   6.278
83963SOL    HW153786   6.593   2.276   6.312
83963SOL    HW253787   6.450   2.324   6.291
83964SOL     OW53788   2.648  11.168  14.770
83964SOL    HW153789   2.608  11.091  14.730
83964SOL    HW253790   2.699  11.133  14.843
83965SOL     OW53791  13.843  14.093   4.669
83965SOL    HW153792  13.782  14.040   4.721
83965SOL    HW253793  13.916  14.035   4.650
83966SOL     OW53794   8.087   6.938   2.412
83966SOL    HW153795   8.027   7.005   2.443
83966SOL    HW253796   8.159   6.939   2.476
83967SOL     OW53797  10.836   4.443   4.121
83967SOL    HW153798  10.868   4.358   4.149
83967SOL    HW253799  10.761   4.424   4.065
83968SOL     OW53800   7.439   5.606  10.118
83968SOL    HW153801   7.502   5.674  10.139
83968SOL    HW253802   7.359   5.653  10.095
83969SOL     OW53803  11.460   0.831  14.126
83969SOL    HW153804  11.410   0.749  14.125
83969SOL    HW253805  11.393   0.899  14.141
83970SOL     OW53806   4.253   5.960   5.949
83970SOL    HW153807   4.305   6.027   5.993
83970SOL    HW253808   4.181   6.007   5.908
83971SOL     OW53809   1.078   8.913  10.599
83971SOL    HW153810   1.060   8.836  10.544
83971SOL    HW253811   1.026   8.898  10.678
83972SOL     OW53812   0.573   2.727  11.157
83972SOL    HW153813   0.640   2.789  11.185
83972SOL    HW253814   0.562   2.743  11.064
83973SOL     OW53815   6.383   2.991   8.087
83973SOL    HW153816   6.383   2.905   8.044
83973SOL    HW253817   6.304   3.034   8.055
83974SOL     OW53818   4.926  11.634  12.394
83974SOL    HW153819   4.975  11.689  12.334
83974SOL    HW253820   4.979  11.554  12.402
83975SOL     OW53821  11.892  14.803   1.430
83975SOL    HW153822  11.956  14.813   1.360
83975SOL    HW253823  11.870  14.709   1.429
83976SOL     OW53824  14.547   4.508  10.289
83976SOL    HW153825  14.470   4.517  10.234
83976SOL    HW253826  14.556   4.592  10.333
83977SOL     OW53827   8.737   2.149   1.303
83977SOL    HW153828   8.693   2.216   1.355
83977SOL    HW253829   8.727   2.178   1.213
83978SOL     OW53830   9.553   2.115   7.415
83978SOL    HW153831   9.635   2.091   7.371
83978SOL    HW253832   9.553   2.210   7.415
83979SOL     OW53833   1.204   1.104   4.679
83979SOL    HW153834   1.256   1.122   4.601
83979SOL    HW253835   1.143   1.036   4.652
83980SOL     OW53836   8.773   4.384  10.322
83980SOL    HW153837   8.829   4.443  10.273
83980SOL    HW253838   8.755   4.430  10.404
83981SOL     OW53839   8.831  12.541  12.603
83981SOL    HW153840   8.756  12.599  12.612
83981SOL    HW253841   8.828  12.511  12.513
83982SOL     OW53842   0.072   5.959  13.772
83982SOL    HW153843   0.015   6.023  13.729
83982SOL    HW253844   0.152   6.008  13.792
83983SOL     OW53845   5.875   6.532   9.574
83983SOL    HW153846   5.788   6.569   9.585
83983SOL    HW253847   5.934   6.605   9.592
83984SOL     OW53848   0.642   2.821   6.201
83984SOL    HW153849   0.629   2.892   6.139
83984SOL    HW253850   0.604   2.854   6.283
83985SOL     OW53851  11.705   8.987  11.875
83985SOL    HW153852  11.772   8.953  11.816
83985SOL    HW253853  11.665   9.059  11.827
83986SOL     OW53854  12.173   6.519   1.403
83986SOL    HW153855  12.252   6.495   1.353
83986SOL    HW253856  12.198   6.508   1.494
83987SOL     OW53857   0.218   5.629   8.914
83987SOL    HW153858   0.211   5.657   8.823
83987SOL    HW253859   0.284   5.559   8.913
83988SOL     OW53860   2.442   7.204   9.405
83988SOL    HW153861   2.486   7.276   9.450
83988SOL    HW253862   2.354   7.202   9.443
83989SOL     OW53863  11.215   4.881  10.899
83989SOL    HW153864  11.297   4.833  10.888
83989SOL    HW253865  11.152   4.815  10.927
83990SOL     OW53866   0.639   5.938   3.707
83990SOL    HW153867   0.700   5.975   3.643
83990SOL    HW253868   0.653   5.989   3.787
83991SOL     OW53869  11.585  14.475   7.745
83991SOL    HW153870  11.629  14.440   7.667
83991SOL    HW253871  11.515  14.412   7.762
83992SOL     OW53872   7.988   9.210  11.707
83992SOL    HW153873   7.979   9.162  11.789
83992SOL    HW253874   8.051   9.279  11.726
83993SOL     OW53875  11.660   7.738   7.120
83993SOL    HW153876  11.745   7.707   7.090
83993SOL    HW253877  11.642   7.687   7.199
83994SOL     OW53878   1.201   1.464  11.886
83994SOL    HW153879   1.263   1.510  11.942
83994SOL    HW253880   1.147   1.533  11.848
83995SOL     OW53881   8.208  12.963   4.911
83995SOL    HW153882   8.271  13.007   4.854
83995SOL    HW253883   8.249  12.879   4.931
83996SOL     OW53884  11.627   1.996   5.327
83996SOL    HW153885  11.669   1.930   5.383
83996SOL    HW253886  11.542   2.011   5.368
83997SOL     OW53887   9.631   9.395   8.127
83997SOL    HW153888   9.713   9.351   8.107
83997SOL    HW253889   9.602   9.355   8.209
83998SOL     OW53890   0.006   5.601  13.314
83998SOL    HW153891   0.087   5.638  13.348
83998SOL    HW253892  14.858   5.526  13.372
83999SOL     OW53893   9.446   6.249   7.761
83999SOL    HW153894   9.480   6.334   7.788
83999SOL    HW253895   9.424   6.261   7.668
84000SOL     OW53896  14.778  13.065   0.649
84000SOL    HW153897  14.691  13.044   0.683
84000SOL    HW253898  14.820  13.116   0.718
84001SOL     OW53899   5.126   7.755   3.204
84001SOL    HW153900   5.142   7.699   3.279
84001SOL    HW253901   5.191   7.825   3.211
84002SOL     OW53902   8.845   5.100   3.924
84002SOL    HW153903   8.774   5.163   3.930
84002SOL    HW253904   8.919   5.149   3.889
84003SOL     OW53905   9.900   7.065   4.333
84003SOL    HW153906   9.879   7.026   4.248
84003SOL    HW253907   9.979   7.019   4.362
84004SOL     OW53908   3.171   2.276   7.699
84004SOL    HW153909   3.223   2.227   7.763
84004SOL    HW253910   3.080   2.253   7.720
84005SOL     OW53911  10.561  12.579   3.882
84005SOL    HW153912  10.485  12.635   3.869
84005SOL    HW253913  10.551  12.511   3.815
84006SOL     OW53914   2.070  12.605   0.814
84006SOL    HW153915   2.132  12.664   0.855
84006SOL    HW253916   1.988  12.655   0.810
84007SOL     OW53917   4.947   8.540   6.861
84007SOL    HW153918   4.999   8.591   6.922
84007SOL    HW253919   4.984   8.451   6.866
84008SOL     OW53920   7.783   9.170   9.759
84008SOL    HW153921   7.859   9.221   9.787
84008SOL    HW253922   7.820   9.096   9.712
84009SOL     OW53923  11.634   6.945  12.202
84009SOL    HW153924  11.630   6.967  12.108
84009SOL    HW253925  11.676   7.021  12.242
84010SOL     OW53926  11.316   0.557  14.447
84010SOL    HW153927  11.382   0.553  14.517
84010SOL    HW253928  11.240   0.513  14.482
84011SOL     OW53929  13.036   2.845   7.282
84011SOL    HW153930  13.127   2.820   7.266
84011SOL    HW253931  13.014   2.903   7.209
84012SOL     OW53932   5.047   6.872   7.817
84012SOL    HW153933   5.070   6.825   7.737
84012SOL    HW253934   5.130   6.884   7.863
84013SOL     OW53935   2.256   0.958   2.161
84013SOL    HW153936   2.350   0.939   2.168
84013SOL    HW253937   2.238   0.949   2.067
84014SOL     OW53938   8.634  14.578  13.861
84014SOL    HW153939   8.604  14.540  13.944
84014SOL    HW253940   8.605  14.516  13.794
84015SOL     OW53941   3.595  11.458   2.201
84015SOL    HW153942   3.653  11.396   2.244
84015SOL    HW253943   3.651  11.532   2.179
84016SOL     OW53944   0.936  11.315   6.859
84016SOL    HW153945   0.939  11.315   6.955
84016SOL    HW253946   0.938  11.408   6.835
84017SOL     OW53947   9.861   0.051   3.856
84017SOL    HW153948   9.915  14.846   3.885
84017SOL    HW253949   9.848   0.103   3.935
84018SOL     OW53950   5.035   3.305   9.139
84018SOL    HW153951   4.947   3.342   9.145
84018SOL    HW253952   5.034   3.230   9.199
84019SOL     OW53953   1.273   6.141   3.650
84019SOL    HW153954   1.312   6.073   3.704
84019SOL    HW253955   1.196   6.170   3.699
84020SOL     OW53956   9.399   2.273   6.087
84020SOL    HW153957   9.446   2.191   6.076
84020SOL    HW253958   9.314   2.247   6.123
84021SOL     OW53959   9.800   2.970   8.814
84021SOL    HW153960   9.822   2.972   8.907
84021SOL    HW253961   9.795   3.063   8.789
84022SOL     OW53962  10.321   6.804   7.605
84022SOL    HW153963  10.365   6.799   7.689
84022SOL    HW253964  10.292   6.714   7.587
84023SOL     OW53965   6.318   8.494   6.412
84023SOL    HW153966   6.339   8.445   6.332
84023SOL    HW253967   6.351   8.439   6.483
84024SOL     OW53968  13.719  10.505  11.713
84024SOL    HW153969  13.625  10.492  11.701
84024SOL    HW253970  13.759  10.433  11.665
84025SOL     OW53971   5.387   6.602   3.876
84025SOL    HW153972   5.438   6.564   3.948
84025SOL    HW253973   5.344   6.678   3.914
84026SOL     OW53974   9.025  11.471   0.516
84026SOL    HW153975   9.100  11.448   0.571
84026SOL    HW253976   8.948  11.444   0.566
84027SOL     OW53977  11.055  14.123   4.364
84027SOL    HW153978  11.001  14.203   4.368
84027SOL    HW253979  11.020  14.067   4.434
84028SOL     OW53980  12.205   7.650   7.015
84028SOL    HW153981  12.170   7.614   6.933
84028SOL    HW253982  12.252   7.729   6.988
84029SOL     OW53983   3.589  10.017   2.422
84029SOL    HW153984   3.627   9.929   2.415
84029SOL    HW253985   3.501  10.008   2.385
84030SOL     OW53986   2.822   5.881   5.504
84030SOL    HW153987   2.825   5.868   5.410
84030SOL    HW253988   2.880   5.955   5.520
84031SOL     OW53989  11.826   6.617   8.866
84031SOL    HW153990  11.886   6.630   8.939
84031SOL    HW253991  11.837   6.525   8.842
84032SOL     OW53992   4.812   0.694   5.497
84032SOL    HW153993   4.865   0.642   5.557
84032SOL    HW253994   4.862   0.693   5.415
84033SOL     OW53995   5.247   6.247   8.604
84033SOL    HW153996   5.191   6.172   8.584
84033SOL    HW253997   5.225   6.311   8.537
84034SOL     OW53998   5.725  14.528   2.887
84034SOL    HW153999   5.678  14.471   2.826
84034SOL    HW254000   5.781  14.582   2.831
84035SOL     OW54001  14.112   6.567   8.487
84035SOL    HW154002  14.103   6.506   8.561
84035SOL    HW254003  14.151   6.645   8.526
84036SOL     OW54004  12.154  13.381   0.428
84036SOL    HW154005  12.080  13.383   0.367
84036SOL    HW254006  12.139  13.303   0.481
84037SOL     OW54007  11.137  11.339   5.335
84037SOL    HW154008  11.099  11.421   5.302
84037SOL    HW254009  11.230  11.345   5.312
84038SOL     OW54010  13.371   9.749   6.695
84038SOL    HW154011  13.339   9.742   6.604
84038SOL    HW254012  13.296   9.720   6.748
84039SOL     OW54013   5.265   4.505   4.167
84039SOL    HW154014   5.340   4.515   4.225
84039SOL    HW254015   5.284   4.426   4.117
84040SOL     OW54016   6.652   1.050  10.119
84040SOL    HW154017   6.658   1.050  10.215
84040SOL    HW254018   6.642   0.958  10.095
84041SOL     OW54019  13.190   2.052   2.506
84041SOL    HW154020  13.242   2.005   2.441
84041SOL    HW254021  13.158   2.130   2.459
84042SOL     OW54022   0.814  11.621  14.084
84042SOL    HW154023   0.722  11.597  14.071
84042SOL    HW254024   0.864  11.553  14.040
84043SOL     OW54025   1.431   2.772   6.982
84043SOL    HW154026   1.378   2.793   7.058
84043SOL    HW254027   1.512   2.822   6.994
84044SOL     OW54028  12.161   1.570   4.571
84044SOL    HW154029  12.242   1.544   4.526
84044SOL    HW254030  12.176   1.662   4.595
84045SOL     OW54031   4.637  10.798   8.760
84045SOL    HW154032   4.663  10.714   8.799
84045SOL    HW254033   4.626  10.779   8.667
84046SOL     OW54034   9.881   3.646   4.387
84046SOL    HW154035   9.976   3.655   4.378
84046SOL    HW254036   9.854   3.721   4.439
84047SOL     OW54037   4.699   4.925   0.772
84047SOL    HW154038   4.775   4.965   0.728
84047SOL    HW254039   4.706   4.955   0.863
84048SOL     OW54040  12.335  11.050  10.290
84048SOL    HW154041  12.289  11.119  10.338
84048SOL    HW254042  12.413  11.093  10.255
84049SOL     OW54043   3.010   7.067   0.979
84049SOL    HW154044   3.041   7.134   0.918
84049SOL    HW254045   2.919   7.091   0.996
84050SOL     OW54046   3.839   8.929   2.928
84050SOL    HW154047   3.807   8.930   3.018
84050SOL    HW254048   3.822   8.839   2.897
84051SOL     OW54049  10.422   2.087   2.375
84051SOL    HW154050  10.412   2.169   2.423
84051SOL    HW254051  10.517   2.072   2.373
84052SOL     OW54052  14.563   4.841   5.007
84052SOL    HW154053  14.632   4.840   4.941
84052SOL    HW254054  14.583   4.916   5.063
84053SOL     OW54055   9.404  13.407  11.182
84053SOL    HW154056   9.385  13.430  11.091
84053SOL    HW254057   9.389  13.488  11.231
84054SOL     OW54058   3.120   4.928   6.222
84054SOL    HW154059   3.084   4.840   6.235
84054SOL    HW254060   3.079   4.980   6.291
84055SOL     OW54061   2.698   9.156  14.323
84055SOL    HW154062   2.654   9.213  14.387
84055SOL    HW254063   2.627   9.125  14.267
84056SOL     OW54064  12.714   4.948  10.420
84056SOL    HW154065  12.704   4.859  10.389
84056SOL    HW254066  12.795   4.946  10.471
84057SOL     OW54067   8.543   4.438   2.690
84057SOL    HW154068   8.533   4.454   2.784
84057SOL    HW254069   8.626   4.392   2.682
84058SOL     OW54070   4.805  14.531  12.667
84058SOL    HW154071   4.874  14.572  12.719
84058SOL    HW254072   4.774  14.458  12.721
84059SOL     OW54073  11.460  12.456   9.588
84059SOL    HW154074  11.449  12.535   9.535
84059SOL    HW254075  11.377  12.410   9.582
84060SOL     OW54076   2.686   8.213  11.852
84060SOL    HW154077   2.752   8.148  11.873
84060SOL    HW254078   2.632   8.218  11.931
84061SOL     OW54079   8.756   2.548   7.571
84061SOL    HW154080   8.679   2.570   7.623
84061SOL    HW254081   8.822   2.522   7.635
84062SOL     OW54082  11.552   0.258   7.392
84062SOL    HW154083  11.591   0.223   7.472
84062SOL    HW254084  11.470   0.298   7.421
84063SOL     OW54085   7.005   2.590   9.957
84063SOL    HW154086   6.971   2.561  10.042
84063SOL    HW254087   7.100   2.596   9.970
84064SOL     OW54088   0.874   6.101   9.113
84064SOL    HW154089   0.905   6.093   9.023
84064SOL    HW254090   0.779   6.090   9.107
84065SOL     OW54091   8.616   5.469   2.805
84065SOL    HW154092   8.620   5.373   2.798
84065SOL    HW254093   8.522   5.489   2.799
84066SOL     OW54094  12.946  11.701   4.169
84066SOL    HW154095  13.025  11.745   4.200
84066SOL    HW254096  12.915  11.754   4.096
84067SOL     OW54097  13.169   5.515  14.189
84067SOL    HW154098  13.156   5.450  14.120
84067SOL    HW254099  13.171   5.465  14.270
84068SOL     OW54100   3.917   8.339   7.256
84068SOL    HW154101   3.986   8.372   7.314
84068SOL    HW254102   3.892   8.254   7.293
84069SOL     OW54103   2.317   9.757  13.912
84069SOL    HW154104   2.252   9.691  13.936
84069SOL    HW254105   2.285   9.794  13.830
84070SOL     OW54106   4.215   0.646   7.193
84070SOL    HW154107   4.208   0.679   7.104
84070SOL    HW254108   4.145   0.581   7.200
84071SOL     OW54109   7.293   8.269   7.859
84071SOL    HW154110   7.339   8.197   7.815
84071SOL    HW254111   7.267   8.232   7.943
84072SOL     OW54112   6.613  10.689   7.427
84072SOL    HW154113   6.595  10.664   7.336
84072SOL    HW254114   6.556  10.633   7.479
84073SOL     OW54115  14.834   3.363  13.708
84073SOL    HW154116  14.802   3.374  13.618
84073SOL    HW254117  14.781   3.424  13.759
84074SOL     OW54118   5.257   2.841  10.793
84074SOL    HW154119   5.172   2.843  10.837
84074SOL    HW254120   5.308   2.775  10.841
84075SOL     OW54121   9.186   8.879   2.606
84075SOL    HW154122   9.129   8.806   2.582
84075SOL    HW254123   9.139   8.957   2.576
84076SOL     OW54124   8.702   2.324   7.134
84076SOL    HW154125   8.741   2.248   7.177
84076SOL    HW254126   8.736   2.399   7.184
84077SOL     OW54127   0.093   0.627  12.105
84077SOL    HW154128   0.088   0.684  12.181
84077SOL    HW254129   0.142   0.678  12.040
84078SOL     OW54130   4.504   6.687   9.065
84078SOL    HW154131   4.598   6.701   9.064
84078SOL    HW254132   4.488   6.634   9.143
84079SOL     OW54133  10.164   6.130   5.690
84079SOL    HW154134  10.152   6.051   5.744
84079SOL    HW254135  10.254   6.125   5.659
84080SOL     OW54136  11.980  14.661   3.139
84080SOL    HW154137  12.026  14.739   3.168
84080SOL    HW254138  11.930  14.632   3.216
84081SOL     OW54139   0.182  12.277  13.863
84081SOL    HW154140   0.257  12.228  13.895
84081SOL    HW254141   0.114  12.211  13.847
84082SOL     OW54142   1.068  11.570   1.465
84082SOL    HW154143   1.031  11.658   1.463
84082SOL    HW254144   1.049  11.538   1.553
84083SOL     OW54145   1.759  10.299  13.552
84083SOL    HW154146   1.712  10.345  13.622
84083SOL    HW254147   1.690  10.255  13.502
84084SOL     OW54148   9.175  11.692  14.778
84084SOL    HW154149   9.219  11.735  14.852
84084SOL    HW254150   9.089  11.734  14.774
84085SOL     OW54151   4.918  12.653  10.576
84085SOL    HW154152   4.942  12.715  10.645
84085SOL    HW254153   4.919  12.568  10.619
84086SOL     OW54154  12.518   7.829   5.695
84086SOL    HW154155  12.584   7.763   5.716
84086SOL    HW254156  12.567   7.911   5.688
84087SOL     OW54157   8.027   4.246   5.290
84087SOL    HW154158   7.946   4.277   5.251
84087SOL    HW254159   8.029   4.286   5.377
84088SOL     OW54160  10.924   5.249  11.585
84088SOL    HW154161  10.980   5.252  11.663
84088SOL    HW254162  10.893   5.339  11.574
84089SOL     OW54163   1.069  14.164  10.287
84089SOL    HW154164   1.023  14.157  10.203
84089SOL    HW254165   1.103  14.254  10.288
84090SOL     OW54166   9.894  13.950   5.369
84090SOL    HW154167   9.975  13.957   5.319
84090SOL    HW254168   9.833  14.008   5.325
84091SOL     OW54169  13.990   6.831   2.385
84091SOL    HW154170  14.057   6.765   2.365
84091SOL    HW254171  13.912   6.801   2.339
84092SOL     OW54172   5.904  12.206  13.775
84092SOL    HW154173   5.900  12.111  13.768
84092SOL    HW254174   5.871  12.237  13.690
84093SOL     OW54175   3.227  10.589   8.332
84093SOL    HW154176   3.143  10.542   8.331
84093SOL    HW254177   3.273  10.557   8.254
84094SOL     OW54178   4.505   1.843   0.209
84094SOL    HW154179   4.467   1.883   0.287
84094SOL    HW254180   4.503   1.749   0.226
84095SOL     OW54181   1.117  11.002  11.711
84095SOL    HW154182   1.206  10.983  11.684
84095SOL    HW254183   1.086  10.922  11.754
84096SOL     OW54184  14.684  10.542  13.122
84096SOL    HW154185  14.725  10.582  13.045
84096SOL    HW254186  14.626  10.609  13.156
84097SOL     OW54187   2.599   7.810   1.405
84097SOL    HW154188   2.544   7.865   1.462
84097SOL    HW254189   2.662   7.871   1.367
84098SOL     OW54190   3.831   8.011  12.746
84098SOL    HW154191   3.909   8.010  12.691
84098SOL    HW254192   3.758   7.997  12.685
84099SOL     OW54193   5.862   0.926   0.805
84099SOL    HW154194   5.789   0.907   0.863
84099SOL    HW254195   5.866   1.022   0.802
84100SOL     OW54196  11.585  12.425   7.383
84100SOL    HW154197  11.567  12.510   7.423
84100SOL    HW254198  11.522  12.419   7.311
84101SOL     OW54199   8.343  14.192   8.603
84101SOL    HW154200   8.347  14.106   8.561
84101SOL    HW254201   8.426  14.234   8.581
84102SOL     OW54202   2.407   8.817  10.314
84102SOL    HW154203   2.426   8.751  10.247
84102SOL    HW254204   2.451   8.896  10.283
84103SOL     OW54205   1.842  10.329  11.095
84103SOL    HW154206   1.852  10.363  11.184
84103SOL    HW254207   1.891  10.247  11.095
84104SOL     OW54208   7.975  14.440   1.117
84104SOL    HW154209   7.935  14.377   1.056
84104SOL    HW254210   7.966  14.525   1.073
84105SOL     OW54211  12.650   2.767   0.928
84105SOL    HW154212  12.608   2.706   0.988
84105SOL    HW254213  12.737   2.781   0.964
84106SOL     OW54214   5.322   3.543   8.335
84106SOL    HW154215   5.402   3.502   8.367
84106SOL    HW254216   5.260   3.534   8.407
84107SOL     OW54217   9.430   7.948   2.156
84107SOL    HW154218   9.338   7.960   2.132
84107SOL    HW254219   9.470   8.033   2.138
84108SOL     OW54220  12.856   3.173   6.569
84108SOL    HW154221  12.939   3.131   6.545
84108SOL    HW254222  12.860   3.258   6.525
84109SOL     OW54223   7.705  13.399  10.249
84109SOL    HW154224   7.623  13.360  10.280
84109SOL    HW254225   7.771  13.332  10.264
84110SOL     OW54226   9.136  13.687   8.721
84110SOL    HW154227   9.212  13.744   8.713
84110SOL    HW254228   9.062  13.743   8.694
84111SOL     OW54229   7.346   9.953   6.435
84111SOL    HW154230   7.314  10.026   6.488
84111SOL    HW254231   7.271   9.895   6.426
84112SOL     OW54232   6.496  12.294   0.253
84112SOL    HW154233   6.439  12.267   0.325
84112SOL    HW254234   6.495  12.390   0.255
84113SOL     OW54235   9.050   0.485  14.425
84113SOL    HW154236   8.996   0.417  14.465
84113SOL    HW254237   9.124   0.437  14.386
84114SOL     OW54238  10.725  12.925   5.125
84114SOL    HW154239  10.699  12.911   5.216
84114SOL    HW254240  10.667  12.869   5.074
84115SOL     OW54241   7.410   3.820   5.871
84115SOL    HW154242   7.384   3.847   5.783
84115SOL    HW254243   7.415   3.901   5.921
84116SOL     OW54244  13.660  11.515  14.036
84116SOL    HW154245  13.675  11.545  14.125
84116SOL    HW254246  13.582  11.564  14.007
84117SOL     OW54247   2.967   7.018   0.024
84117SOL    HW154248   2.994   7.110   0.014
84117SOL    HW254249   2.901   7.004  14.826
84118SOL     OW54250   0.809   5.685   2.397
84118SOL    HW154251   0.800   5.662   2.304
84118SOL    HW254252   0.903   5.678   2.414
84119SOL     OW54253   7.928   4.884   6.328
84119SOL    HW154254   7.980   4.826   6.274
84119SOL    HW254255   7.871   4.930   6.266
84120SOL     OW54256   1.347   7.263   5.169
84120SOL    HW154257   1.381   7.240   5.082
84120SOL    HW254258   1.420   7.247   5.228
84121SOL     OW54259   4.511  11.574   2.815
84121SOL    HW154260   4.545  11.487   2.834
84121SOL    HW254261   4.466  11.600   2.895
84122SOL     OW54262  10.674   5.413   9.380
84122SOL    HW154263  10.580   5.429   9.366
84122SOL    HW254264  10.680   5.319   9.394
84123SOL     OW54265  12.560   7.516  11.020
84123SOL    HW154266  12.467   7.500  11.002
84123SOL    HW254267  12.596   7.430  11.039
84124SOL     OW54268   9.436   3.257   5.237
84124SOL    HW154269   9.415   3.237   5.328
84124SOL    HW254270   9.352   3.278   5.197
84125SOL     OW54271   4.103   1.848  12.215
84125SOL    HW154272   4.062   1.924  12.172
84125SOL    HW254273   4.183   1.833  12.165
84126SOL     OW54274  11.098   7.257   4.673
84126SOL    HW154275  11.062   7.256   4.761
84126SOL    HW254276  11.047   7.192   4.625
84127SOL     OW54277  13.257   5.276   4.526
84127SOL    HW154278  13.247   5.370   4.541
84127SOL    HW254279  13.271   5.269   4.432
84128SOL     OW54280   8.783  13.173   1.264
84128SOL    HW154281   8.691  13.156   1.244
84128SOL    HW254282   8.830  13.097   1.228
84129SOL     OW54283  12.876  14.313   0.448
84129SOL    HW154284  12.817  14.380   0.482
84129SOL    HW254285  12.819  14.242   0.418
84130SOL     OW54286   8.800   3.789   0.753
84130SOL    HW154287   8.737   3.720   0.775
84130SOL    HW254288   8.857   3.795   0.829
84131SOL     OW54289   3.884  10.416   0.021
84131SOL    HW154290   3.834  10.469   0.083
84131SOL    HW254291   3.851  10.327   0.032
84132SOL     OW54292   6.160   7.829   1.167
84132SOL    HW154293   6.085   7.848   1.223
84132SOL    HW254294   6.233   7.816   1.228
84133SOL     OW54295   7.359   3.792  10.030
84133SOL    HW154296   7.358   3.862  10.095
84133SOL    HW254297   7.333   3.834   9.948
84134SOL     OW54298   9.641   9.659   1.695
84134SOL    HW154299   9.618   9.746   1.664
84134SOL    HW254300   9.696   9.623   1.626
84135SOL     OW54301   0.015   0.390   0.566
84135SOL    HW154302   0.045   0.462   0.510
84135SOL    HW254303  14.840   0.330   0.507
84136SOL     OW54304   8.553   9.001   8.243
84136SOL    HW154305   8.494   8.945   8.192
84136SOL    HW254306   8.639   8.987   8.204
84137SOL     OW54307   5.492   4.439  12.425
84137SOL    HW154308   5.489   4.352  12.386
84137SOL    HW254309   5.487   4.499  12.351
84138SOL     OW54310   4.463   3.955  11.109
84138SOL    HW154311   4.411   4.008  11.048
84138SOL    HW254312   4.539   4.010  11.129
84139SOL     OW54313   8.506  10.434   7.177
84139SOL    HW154314   8.428  10.488   7.189
84139SOL    HW254315   8.576  10.482   7.222
84140SOL     OW54316   6.144   8.074   3.062
84140SOL    HW154317   6.192   8.155   3.080
84140SOL    HW254318   6.212   8.011   3.036
84141SOL     OW54319   2.871  10.143   8.731
84141SOL    HW154320   2.913  10.070   8.685
84141SOL    HW254321   2.827  10.192   8.662
84142SOL     OW54322  14.065  13.919   2.170
84142SOL    HW154323  14.126  13.956   2.233
84142SOL    HW254324  14.091  13.957   2.086
84143SOL     OW54325   7.788   2.787   0.187
84143SOL    HW154326   7.774   2.755   0.099
84143SOL    HW254327   7.719   2.746   0.239
84144SOL     OW54328  11.907   2.646  12.400
84144SOL    HW154329  12.002   2.653  12.411
84144SOL    HW254330  11.896   2.591  12.322
84145SOL     OW54331   8.447  10.316   4.722
84145SOL    HW154332   8.434  10.251   4.791
84145SOL    HW254333   8.418  10.272   4.642
84146SOL     OW54334   6.548   3.477  11.314
84146SOL    HW154335   6.564   3.570  11.305
84146SOL    HW254336   6.636   3.437  11.317
84147SOL     OW54337  12.002  13.332  13.440
84147SOL    HW154338  11.970  13.376  13.518
84147SOL    HW254339  12.078  13.282  13.471
84148SOL     OW54340   8.731   8.987   5.035
84148SOL    HW154341   8.814   8.969   5.078
84148SOL    HW254342   8.748   8.972   4.942
84149SOL     OW54343  10.174   2.102   4.335
84149SOL    HW154344  10.142   2.145   4.255
84149SOL    HW254345  10.232   2.033   4.303
84150SOL     OW54346   0.509   6.518  13.440
84150SOL    HW154347   0.572   6.480  13.379
84150SOL    HW254348   0.563   6.565  13.504
84151SOL     OW54349  12.473   6.693  14.816
84151SOL    HW154350  12.421   6.631  14.867
84151SOL    HW254351  12.493   6.647  14.734
84152SOL     OW54352   3.651  14.819   1.152
84152SOL    HW154353   3.628   0.028   1.103
84152SOL    HW254354   3.584  14.813   1.220
84153SOL     OW54355   6.094  14.665   5.211
84153SOL    HW154356   6.185  14.655   5.182
84153SOL    HW254357   6.065  14.577   5.233
84154SOL     OW54358  10.718   2.366   8.904
84154SOL    HW154359  10.784   2.324   8.848
84154SOL    HW254360  10.652   2.298   8.916
84155SOL     OW54361   5.940   2.486   8.415
84155SOL    HW154362   6.035   2.497   8.411
84155SOL    HW254363   5.914   2.536   8.492
84156SOL     OW54364   3.248  13.066  13.580
84156SOL    HW154365   3.216  12.978  13.563
84156SOL    HW254366   3.250  13.073  13.676
84157SOL     OW54367  11.947   7.116   8.367
84157SOL    HW154368  11.910   7.054   8.430
84157SOL    HW254369  11.871   7.163   8.333
84158SOL     OW54370  12.591  10.661   5.358
84158SOL    HW154371  12.667  10.713   5.384
84158SOL    HW254372  12.591  10.587   5.419
84159SOL     OW54373   4.132   6.433   2.196
84159SOL    HW154374   4.186   6.377   2.252
84159SOL    HW254375   4.186   6.510   2.180
84160SOL     OW54376   8.588   8.544   3.796
84160SOL    HW154377   8.569   8.462   3.751
84160SOL    HW254378   8.684   8.549   3.797
84161SOL     OW54379   5.401   9.072   8.606
84161SOL    HW154380   5.379   9.130   8.533
84161SOL    HW254381   5.430   9.131   8.676
84162SOL     OW54382   7.002   3.283  14.585
84162SOL    HW154383   7.068   3.261  14.519
84162SOL    HW254384   6.951   3.203  14.596
84163SOL     OW54385  13.791   9.179   3.911
84163SOL    HW154386  13.877   9.161   3.874
84163SOL    HW254387  13.773   9.270   3.890
84164SOL     OW54388  11.825   9.319  10.722
84164SOL    HW154389  11.795   9.361  10.641
84164SOL    HW254390  11.746   9.304  10.772
84165SOL     OW54391  10.041  10.136   3.906
84165SOL    HW154392  10.047  10.059   3.962
84165SOL    HW254393  10.128  10.176   3.911
84166SOL     OW54394   9.314  14.852  12.703
84166SOL    HW154395   9.301  14.841  12.609
84166SOL    HW254396   9.235  14.815  12.742
84167SOL     OW54397  12.926  13.265   5.137
84167SOL    HW154398  12.991  13.255   5.067
84167SOL    HW254399  12.965  13.330   5.196
84168SOL     OW54400   0.481  14.554   9.072
84168SOL    HW154401   0.411  14.533   9.010
84168SOL    HW254402   0.550  14.594   9.020
84169SOL     OW54403   5.265   9.935  12.375
84169SOL    HW154404   5.323   9.987  12.431
84169SOL    HW254405   5.298   9.845  12.383
84170SOL     OW54406   4.850   1.982   4.155
84170SOL    HW154407   4.883   1.953   4.240
84170SOL    HW254408   4.830   1.901   4.108
84171SOL     OW54409  11.291   8.324  11.654
84171SOL    HW154410  11.276   8.367  11.569
84171SOL    HW254411  11.314   8.234  11.632
84172SOL     OW54412   5.989   4.359   8.453
84172SOL    HW154413   5.987   4.373   8.358
84172SOL    HW254414   5.975   4.265   8.464
84173SOL     OW54415   2.269  13.240  13.179
84173SOL    HW154416   2.361  13.216  13.186
84173SOL    HW254417   2.224  13.158  13.157
84174SOL     OW54418   4.647   6.598   0.411
84174SOL    HW154419   4.556   6.626   0.401
84174SOL    HW254420   4.685   6.613   0.324
84175SOL     OW54421   2.053   5.765   4.226
84175SOL    HW154422   2.067   5.859   4.219
84175SOL    HW254423   1.983   5.746   4.164
84176SOL     OW54424   5.512   0.599   1.855
84176SOL    HW154425   5.584   0.662   1.851
84176SOL    HW254426   5.471   0.613   1.940
84177SOL     OW54427   3.687   2.431  13.187
84177SOL    HW154428   3.675   2.354  13.242
84177SOL    HW254429   3.655   2.405  13.101
84178SOL     OW54430  10.600   2.156  10.973
84178SOL    HW154431  10.524   2.213  10.981
84178SOL    HW254432  10.653   2.196  10.904
84179SOL     OW54433   5.450   2.170  14.810
84179SOL    HW154434   5.458   2.247  14.752
84179SOL    HW254435   5.366   2.181  14.853
84180SOL     OW54436   2.380  12.046  11.025
84180SOL    HW154437   2.468  12.082  11.038
84180SOL    HW254438   2.355  12.076  10.938
84181SOL     OW54439  13.949   5.672  13.374
84181SOL    HW154440  13.917   5.694  13.461
84181SOL    HW254441  14.038   5.640  13.388
84182SOL     OW54442   9.706   5.650   7.475
84182SOL    HW154443   9.764   5.666   7.401
84182SOL    HW254444   9.622   5.626   7.436
84183SOL     OW54445   8.288   9.665   8.472
84183SOL    HW154446   8.339   9.706   8.402
84183SOL    HW254447   8.201   9.706   8.465
84184SOL     OW54448   0.154  10.975   7.790
84184SOL    HW154449   0.135  11.007   7.878
84184SOL    HW254450   0.092  10.904   7.776
84185SOL     OW54451  13.220   9.453  12.805
84185SOL    HW154452  13.140   9.506  12.802
84185SOL    HW254453  13.263   9.480  12.886
84186SOL     OW54454   4.532  10.007   0.334
84186SOL    HW154455   4.606   9.978   0.281
84186SOL    HW254456   4.509   9.932   0.388
84187SOL     OW54457   7.115   6.232   2.193
84187SOL    HW154458   7.051   6.169   2.159
84187SOL    HW254459   7.165   6.182   2.259
84188SOL     OW54460   0.987  11.820  10.684
84188SOL    HW154461   1.018  11.910  10.672
84188SOL    HW254462   0.924  11.807  10.613
84189SOL     OW54463  10.165   4.734   2.463
84189SOL    HW154464  10.206   4.764   2.544
84189SOL    HW254465  10.193   4.643   2.454
84190SOL     OW54466  10.936   5.760  11.821
84190SOL    HW154467  11.003   5.696  11.846
84190SOL    HW254468  10.853   5.715  11.840
84191SOL     OW54469   1.732  14.137  12.565
84191SOL    HW154470   1.826  14.149  12.555
84191SOL    HW254471   1.697  14.144  12.476
84192SOL     OW54472   5.235  11.475   8.367
84192SOL    HW154473   5.167  11.526   8.323
84192SOL    HW254474   5.317  11.516   8.339
84193SOL     OW54475   6.682   2.181  14.555
84193SOL    HW154476   6.692   2.142  14.642
84193SOL    HW254477   6.772   2.204  14.528
84194SOL     OW54478   3.767  10.957  11.898
84194SOL    HW154479   3.691  10.980  11.953
84194SOL    HW254480   3.756  10.863  11.881
84195SOL     OW54481   5.637   1.389   5.215
84195SOL    HW154482   5.544   1.402   5.196
84195SOL    HW254483   5.681   1.459   5.166
84196SOL     OW54484   4.190   0.016   4.396
84196SOL    HW154485   4.199  14.791   4.400
84196SOL    HW254486   4.206   0.045   4.485
84197SOL     OW54487  13.288   8.798   3.793
84197SOL    HW154488  13.229   8.859   3.837
84197SOL    HW254489  13.309   8.841   3.710
84198SOL     OW54490  14.548   0.213   5.686
84198SOL    HW154491  14.505   0.245   5.765
84198SOL    HW254492  14.498   0.253   5.614
84199SOL     OW54493  14.574   5.427   8.812
84199SOL    HW154494  14.482   5.400   8.815
84199SOL    HW254495  14.572   5.522   8.825
84200SOL     OW54496  11.631   2.421  11.206
84200SOL    HW154497  11.554   2.477  11.212
84200SOL    HW254498  11.622   2.359  11.279
84201SOL     OW54499  13.463   2.798   2.281
84201SOL    HW154500  13.370   2.793   2.306
84201SOL    HW254501  13.511   2.770   2.359
84202SOL     OW54502   3.905   2.670   5.435
84202SOL    HW154503   3.982   2.630   5.477
84202SOL    HW254504   3.933   2.759   5.413
84203SOL     OW54505  10.487  11.366   3.701
84203SOL    HW154506  10.542  11.444   3.702
84203SOL    HW254507  10.494  11.330   3.790
84204SOL     OW54508   4.832   9.162   2.502
84204SOL    HW154509   4.884   9.181   2.423
84204SOL    HW254510   4.827   9.067   2.505
84205SOL     OW54511   7.121   5.896  10.806
84205SOL    HW154512   7.163   5.839  10.741
84205SOL    HW254513   7.140   5.985  10.775
84206SOL     OW54514  13.179  10.748   8.826
84206SOL    HW154515  13.110  10.814   8.823
84206SOL    HW254516  13.242  10.782   8.890
84207SOL     OW54517  12.653   2.062  12.119
84207SOL    HW154518  12.562   2.082  12.141
84207SOL    HW254519  12.657   2.067  12.024
84208SOL     OW54520  12.753   9.151   1.102
84208SOL    HW154521  12.726   9.122   1.189
84208SOL    HW254522  12.670   9.168   1.056
84209SOL     OW54523   7.889   3.181  13.176
84209SOL    HW154524   7.813   3.140  13.218
84209SOL    HW254525   7.952   3.191  13.248
84210SOL     OW54526   3.078   1.066  12.619
84210SOL    HW154527   3.144   1.012  12.576
84210SOL    HW254528   3.019   1.092  12.549
84211SOL     OW54529  13.267  11.667   6.950
84211SOL    HW154530  13.334  11.639   6.888
84211SOL    HW254531  13.312  11.672   7.034
84212SOL     OW54532   2.026   7.895   9.152
84212SOL    HW154533   2.060   7.808   9.130
84212SOL    HW254534   2.084   7.956   9.107
84213SOL     OW54535   7.235   7.799   8.198
84213SOL    HW154536   7.177   7.730   8.166
84213SOL    HW254537   7.178   7.875   8.208
84214SOL     OW54538  13.764   6.259   3.204
84214SOL    HW154539  13.715   6.221   3.277
84214SOL    HW254540  13.793   6.344   3.236
84215SOL     OW54541   5.407   3.673   8.877
84215SOL    HW154542   5.448   3.759   8.892
84215SOL    HW254543   5.355   3.658   8.956
84216SOL     OW54544  12.553   8.507   0.876
84216SOL    HW154545  12.591   8.558   0.805
84216SOL    HW254546  12.603   8.533   0.954
84217SOL     OW54547   3.973   9.384  14.193
84217SOL    HW154548   3.895   9.354  14.239
84217SOL    HW254549   4.017   9.442  14.255
84218SOL     OW54550  12.248  10.667   0.128
84218SOL    HW154551  12.160  10.678   0.093
84218SOL    HW254552  12.297  10.625   0.057
84219SOL     OW54553   9.470   7.918  14.594
84219SOL    HW154554   9.434   7.996  14.551
84219SOL    HW254555   9.551   7.950  14.635
84220SOL     OW54556   1.539   2.797   3.753
84220SOL    HW154557   1.478   2.849   3.805
84220SOL    HW254558   1.587   2.745   3.818
84221SOL     OW54559  11.433   3.977   9.301
84221SOL    HW154560  11.509   3.940   9.257
84221SOL    HW254561  11.413   4.056   9.251
84222SOL     OW54562   6.622  12.712   5.572
84222SOL    HW154563   6.658  12.662   5.499
84222SOL    HW254564   6.627  12.651   5.646
84223SOL     OW54565  10.618  12.055   3.573
84223SOL    HW154566  10.563  12.104   3.635
84223SOL    HW254567  10.682  12.120   3.543
84224SOL     OW54568   1.442   0.810   4.741
84224SOL    HW154569   1.447   0.864   4.819
84224SOL    HW254570   1.349   0.800   4.723
84225SOL     OW54571   3.813   8.759  11.817
84225SOL    HW154572   3.793   8.722  11.903
84225SOL    HW254573   3.841   8.849  11.836
84226SOL     OW54574  12.588   5.827  13.744
84226SOL    HW154575  12.651   5.871  13.802
84226SOL    HW254576  12.532   5.778  13.804
84227SOL     OW54577   6.027   5.211  11.421
84227SOL    HW154578   5.980   5.272  11.477
84227SOL    HW254579   6.095   5.263  11.379
84228SOL     OW54580   2.414   8.469   3.626
84228SOL    HW154581   2.444   8.478   3.536
84228SOL    HW254582   2.491   8.486   3.679
84229SOL     OW54583   1.896   0.228   8.844
84229SOL    HW154584   1.829   0.162   8.826
84229SOL    HW254585   1.850   0.312   8.833
84230SOL     OW54586   0.331   8.102   7.652
84230SOL    HW154587   0.389   8.081   7.725
84230SOL    HW254588   0.388   8.102   7.575
84231SOL     OW54589   0.630  12.456   8.616
84231SOL    HW154590   0.696  12.393   8.644
84231SOL    HW254591   0.597  12.494   8.697
84232SOL     OW54592  10.143   4.418  10.305
84232SOL    HW154593  10.111   4.341  10.258
84232SOL    HW254594  10.235   4.397  10.325
84233SOL     OW54595   9.877   5.106  12.715
84233SOL    HW154596   9.805   5.078  12.772
84233SOL    HW254597   9.846   5.188  12.676
84234SOL     OW54598   7.365   6.497   9.559
84234SOL    HW154599   7.422   6.536   9.492
84234SOL    HW254600   7.333   6.416   9.519
84235SOL     OW54601  13.506  11.731   4.498
84235SOL    HW154602  13.482  11.726   4.591
84235SOL    HW254603  13.484  11.820   4.472
84236SOL     OW54604   5.798  12.608   8.882
84236SOL    HW154605   5.855  12.637   8.953
84236SOL    HW254606   5.846  12.536   8.841
84237SOL     OW54607  11.015   7.784  14.608
84237SOL    HW154608  10.968   7.742  14.680
84237SOL    HW254609  11.106   7.786  14.636
84238SOL     OW54610  11.739   8.139  14.061
84238SOL    HW154611  11.711   8.222  14.023
84238SOL    HW254612  11.710   8.143  14.152
84239SOL     OW54613   9.489   4.494  11.918
84239SOL    HW154614   9.441   4.570  11.885
84239SOL    HW254615   9.575   4.528  11.941
84240SOL     OW54616   4.549   1.479  12.017
84240SOL    HW154617   4.483   1.447  11.956
84240SOL    HW254618   4.541   1.575  12.013
84241SOL     OW54619   1.454   1.788   5.658
84241SOL    HW154620   1.547   1.810   5.659
84241SOL    HW254621   1.447   1.715   5.596
84242SOL     OW54622   4.001   3.470   6.398
84242SOL    HW154623   4.000   3.485   6.304
84242SOL    HW254624   3.910   3.453   6.421
84243SOL     OW54625  11.649  14.052   1.766
84243SOL    HW154626  11.741  14.046   1.739
84243SOL    HW254627  11.624  13.962   1.786
84244SOL     OW54628  14.151  10.170   0.965
84244SOL    HW154629  14.130  10.146   1.055
84244SOL    HW254630  14.075  10.219   0.934
84245SOL     OW54631   1.235   1.074   7.472
84245SOL    HW154632   1.167   1.018   7.434
84245SOL    HW254633   1.311   1.062   7.416
84246SOL     OW54634   8.646   4.161  10.155
84246SOL    HW154635   8.646   4.229  10.222
84246SOL    HW254636   8.736   4.159  10.123
84247SOL     OW54637   6.855   1.517   1.280
84247SOL    HW154638   6.927   1.509   1.343
84247SOL    HW254639   6.786   1.564   1.328
84248SOL     OW54640   8.442   2.320   6.444
84248SOL    HW154641   8.452   2.230   6.414
84248SOL    HW254642   8.418   2.312   6.537
84249SOL     OW54643   7.994  12.020   9.834
84249SOL    HW154644   8.018  12.112   9.827
84249SOL    HW254645   7.918  12.020   9.893
84250SOL     OW54646   8.289   5.073  11.123
84250SOL    HW154647   8.362   5.018  11.097
84250SOL    HW254648   8.222   5.057  11.056
84251SOL     OW54649  14.816   3.580   9.393
84251SOL    HW154650   0.009   3.627   9.449
84251SOL    HW254651  14.765   3.527   9.454
84252SOL     OW54652   6.538   2.123  14.339
84252SOL    HW154653   6.555   2.028  14.338
84252SOL    HW254654   6.584   2.155  14.416
84253SOL     OW54655   3.631   2.947   9.263
84253SOL    HW154656   3.665   3.025   9.219
84253SOL    HW254657   3.554   2.923   9.211
84254SOL     OW54658   9.742   6.094   9.932
84254SOL    HW154659   9.684   6.111   9.858
84254SOL    HW254660   9.822   6.143   9.913
84255SOL     OW54661   8.072  12.917  12.036
84255SOL    HW154662   8.080  12.834  11.989
84255SOL    HW254663   8.046  12.980  11.969
84256SOL     OW54664   1.476  14.533   1.094
84256SOL    HW154665   1.565  14.560   1.116
84256SOL    HW254666   1.478  14.516   1.000
84257SOL     OW54667  10.686   4.048   9.458
84257SOL    HW154668  10.594   4.069   9.473
84257SOL    HW254669  10.686   4.003   9.373
84258SOL     OW54670   7.898   0.063  10.857
84258SOL    HW154671   7.893   0.046  10.763
84258SOL    HW254672   7.807   0.066  10.886
84259SOL     OW54673   2.680  10.765  11.589
84259SOL    HW154674   2.681  10.859  11.611
84259SOL    HW254675   2.587  10.742  11.586
84260SOL     OW54676  12.061   4.491   5.038
84260SOL    HW154677  12.064   4.556   4.968
84260SOL    HW254678  12.063   4.543   5.118
84261SOL     OW54679   8.212   7.532  12.883
84261SOL    HW154680   8.159   7.561  12.958
84261SOL    HW254681   8.302   7.535  12.915
84262SOL     OW54682   6.360   8.009   0.208
84262SOL    HW154683   6.269   7.990   0.184
84262SOL    HW254684   6.355   8.093   0.254
84263SOL     OW54685  14.044   6.261   8.323
84263SOL    HW154686  13.953   6.272   8.298
84263SOL    HW254687  14.052   6.310   8.405
84264SOL     OW54688   2.635  14.560  14.814
84264SOL    HW154689   2.646  14.612   0.024
84264SOL    HW254690   2.724  14.544  14.783
84265SOL     OW54691   0.948   3.399   3.455
84265SOL    HW154692   0.900   3.471   3.496
84265SOL    HW254693   0.937   3.326   3.517
84266SOL     OW54694   2.495  13.825   8.097
84266SOL    HW154695   2.524  13.781   8.017
84266SOL    HW254696   2.524  13.916   8.085
84267SOL     OW54697   3.563  11.912  10.229
84267SOL    HW154698   3.496  11.980  10.237
84267SOL    HW254699   3.517  11.835  10.197
84268SOL     OW54700   0.016   2.053   4.114
84268SOL    HW154701   0.108   2.031   4.125
84268SOL    HW254702  14.840   1.998   4.178
84269SOL     OW54703   0.845  10.695   7.019
84269SOL    HW154704   0.864  10.653   6.935
84269SOL    HW254705   0.750  10.683   7.030
84270SOL     OW54706   1.547  13.069   2.593
84270SOL    HW154707   1.499  13.070   2.510
84270SOL    HW254708   1.516  13.145   2.641
84271SOL     OW54709   5.177   7.236   8.700
84271SOL    HW154710   5.176   7.207   8.791
84271SOL    HW254711   5.261   7.205   8.667
84272SOL     OW54712   8.023   3.459  12.726
84272SOL    HW154713   7.958   3.425  12.787
84272SOL    HW254714   8.106   3.427  12.759
84273SOL     OW54715   2.872   1.867  10.607
84273SOL    HW154716   2.871   1.960  10.630
84273SOL    HW254717   2.839   1.822  10.685
84274SOL     OW54718  10.136   2.255   6.613
84274SOL    HW154719  10.223   2.286   6.638
84274SOL    HW254720  10.075   2.314   6.657
84275SOL     OW54721   0.229   0.679   7.073
84275SOL    HW154722   0.254   0.666   6.982
84275SOL    HW254723   0.194   0.594   7.101
84276SOL     OW54724   6.679  10.971   4.705
84276SOL    HW154725   6.667  10.878   4.683
84276SOL    HW254726   6.597  11.012   4.680
84277SOL     OW54727   4.642  13.435   0.325
84277SOL    HW154728   4.599  13.395   0.400
84277SOL    HW254729   4.666  13.523   0.354
84278SOL     OW54730  12.521   6.451   7.984
84278SOL    HW154731  12.596   6.415   8.030
84278SOL    HW254732  12.462   6.481   8.054
84279SOL     OW54733   9.034   4.896   1.489
84279SOL    HW154734   9.069   4.889   1.578
84279SOL    HW254735   9.091   4.960   1.446
84280SOL     OW54736   1.497   7.329   4.928
84280SOL    HW154737   1.513   7.243   4.890
84280SOL    HW254738   1.486   7.387   4.853
84281SOL     OW54739  14.001   7.554   1.789
84281SOL    HW154740  14.038   7.469   1.813
84281SOL    HW254741  14.003   7.555   1.693
84282SOL     OW54742   2.094   8.082   6.041
84282SOL    HW154743   2.137   8.084   6.127
84282SOL    HW254744   2.159   8.119   5.981
84283SOL     OW54745   0.954   8.766   3.583
84283SOL    HW154746   1.042   8.731   3.598
84283SOL    HW254747   0.955   8.796   3.492
84284SOL     OW54748   1.288   0.377   1.178
84284SOL    HW154749   1.320   0.447   1.235
84284SOL    HW254750   1.367   0.332   1.148
84285SOL     OW54751   4.696  14.030   5.533
84285SOL    HW154752   4.784  14.000   5.556
84285SOL    HW254753   4.692  14.022   5.438
84286SOL     OW54754   6.113  12.632   4.718
84286SOL    HW154755   6.041  12.617   4.779
84286SOL    HW254756   6.090  12.581   4.641
84287SOL     OW54757   6.498   0.645   7.789
84287SOL    HW154758   6.426   0.661   7.850
84287SOL    HW254759   6.572   0.693   7.825
84288SOL     OW54760   6.530   4.173  10.312
84288SOL    HW154761   6.597   4.130  10.364
84288SOL    HW254762   6.454   4.115  10.316
84289SOL     OW54763   5.326   3.079   8.383
84289SOL    HW154764   5.241   3.113   8.413
84289SOL    HW254765   5.305   2.996   8.341
84290SOL     OW54766   6.021  14.064   7.332
84290SOL    HW154767   6.024  13.970   7.346
84290SOL    HW254768   6.094  14.098   7.384
84291SOL     OW54769  11.655  13.975  10.976
84291SOL    HW154770  11.734  13.940  10.935
84291SOL    HW254771  11.677  14.066  10.997
84292SOL     OW54772   9.343   7.918  11.389
84292SOL    HW154773   9.368   8.008  11.410
84292SOL    HW254774   9.273   7.898  11.451
84293SOL     OW54775   0.245   8.884   5.876
84293SOL    HW154776   0.155   8.916   5.882
84293SOL    HW254777   0.257   8.862   5.784
84294SOL     OW54778   4.120   2.350   8.699
84294SOL    HW154779   4.050   2.306   8.652
84294SOL    HW254780   4.075   2.392   8.773
84295SOL     OW54781  13.400   8.814   9.584
84295SOL    HW154782  13.368   8.828   9.494
84295SOL    HW254783  13.406   8.902   9.620
84296SOL     OW54784   2.915   7.033   1.842
84296SOL    HW154785   2.994   7.043   1.789
84296SOL    HW254786   2.947   7.000   1.926
84297SOL     OW54787  10.906   4.758   9.177
84297SOL    HW154788  10.939   4.765   9.087
84297SOL    HW254789  10.978   4.717   9.226
84298SOL     OW54790   3.257   3.286   9.748
84298SOL    HW154791   3.236   3.197   9.774
84298SOL    HW254792   3.345   3.301   9.783
84299SOL     OW54793  12.689  10.441  11.664
84299SOL    HW154794  12.778  10.464  11.638
84299SOL    HW254795  12.674  10.491  11.744
84300SOL     OW54796   0.443   2.551  10.193
84300SOL    HW154797   0.489   2.543  10.276
84300SOL    HW254798   0.426   2.461  10.166
84301SOL     OW54799   9.029   0.871  13.676
84301SOL    HW154800   9.020   0.838  13.586
84301SOL    HW254801   9.009   0.795  13.731
84302SOL     OW54802  13.514   8.260   7.724
84302SOL    HW154803  13.461   8.326   7.770
84302SOL    HW254804  13.455   8.186   7.711
84303SOL     OW54805   9.490   8.897   3.176
84303SOL    HW154806   9.441   8.815   3.163
84303SOL    HW254807   9.543   8.906   3.097
84304SOL     OW54808   0.657  11.178   2.843
84304SOL    HW154809   0.596  11.115   2.882
84304SOL    HW254810   0.712  11.125   2.785
84305SOL     OW54811   4.399   9.379   3.822
84305SOL    HW154812   4.438   9.464   3.805
84305SOL    HW254813   4.388   9.340   3.735
84306SOL     OW54814  11.143   8.933   1.290
84306SOL    HW154815  11.161   9.026   1.301
84306SOL    HW254816  11.227   8.894   1.266
84307SOL     OW54817   4.656  14.648   2.456
84307SOL    HW154818   4.628  14.669   2.367
84307SOL    HW254819   4.576  14.620   2.500
84308SOL     OW54820   5.555  12.127  11.891
84308SOL    HW154821   5.545  12.193  11.822
84308SOL    HW254822   5.483  12.145  11.952
84309SOL     OW54823   5.731  11.542  10.451
84309SOL    HW154824   5.687  11.498  10.378
84309SOL    HW254825   5.813  11.573  10.414
84310SOL     OW54826  12.831  14.749   2.328
84310SOL    HW154827  12.849  14.843   2.328
84310SOL    HW254828  12.883  14.714   2.401
84311SOL     OW54829   4.462  10.272   7.272
84311SOL    HW154830   4.414  10.348   7.305
84311SOL    HW254831   4.398  10.201   7.271
84312SOL     OW54832  13.335   8.271   9.477
84312SOL    HW154833  13.328   8.367   9.476
84312SOL    HW254834  13.357   8.249   9.567
84313SOL     OW54835   9.687   5.542   0.795
84313SOL    HW154836   9.733   5.626   0.798
84313SOL    HW254837   9.594   5.565   0.800
84314SOL     OW54838   9.745   8.273   8.290
84314SOL    HW154839   9.729   8.339   8.358
84314SOL    HW254840   9.657   8.242   8.267
84315SOL     OW54841   9.117   9.698   2.747
84315SOL    HW154842   9.209   9.694   2.773
84315SOL    HW254843   9.104   9.789   2.721
84316SOL     OW54844   9.350   4.607   7.074
84316SOL    HW154845   9.294   4.633   7.001
84316SOL    HW254846   9.357   4.686   7.128
84317SOL     OW54847  13.197   2.977   5.757
84317SOL    HW154848  13.288   2.950   5.757
84317SOL    HW254849  13.191   3.042   5.686
84318SOL     OW54850  10.195   8.036   0.101
84318SOL    HW154851  10.206   8.007   0.010
84318SOL    HW254852  10.119   8.094   0.098
84319SOL     OW54853   0.605   3.470  14.791
84319SOL    HW154854   0.547   3.454  14.866
84319SOL    HW254855   0.661   3.543  14.818
84320SOL     OW54856   1.671  13.230   3.806
84320SOL    HW154857   1.647  13.170   3.877
84320SOL    HW254858   1.589  13.241   3.757
84321SOL     OW54859   0.970   3.320  14.023
84321SOL    HW154860   1.042   3.355  13.970
84321SOL    HW254861   1.012   3.255  14.079
84322SOL     OW54862  10.745   7.807  11.923
84322SOL    HW154863  10.721   7.748  11.851
84322SOL    HW254864  10.664   7.854  11.943
84323SOL     OW54865  11.281   1.366   7.094
84323SOL    HW154866  11.209   1.305   7.112
84323SOL    HW254867  11.240   1.436   7.043
84324SOL     OW54868   9.243   2.323   8.386
84324SOL    HW154869   9.253   2.418   8.390
84324SOL    HW254870   9.229   2.304   8.293
84325SOL     OW54871  11.441   9.698   8.674
84325SOL    HW154872  11.478   9.773   8.721
84325SOL    HW254873  11.509   9.675   8.610
84326SOL     OW54874  13.675  10.376   3.233
84326SOL    HW154875  13.710  10.459   3.266
84326SOL    HW254876  13.608  10.402   3.170
84327SOL     OW54877  12.378  10.402   5.412
84327SOL    HW154878  12.468  10.408   5.443
84327SOL    HW254879  12.374  10.318   5.365
84328SOL     OW54880   9.725   9.997   1.886
84328SOL    HW154881   9.652   9.979   1.946
84328SOL    HW254882   9.775   9.916   1.885
84329SOL     OW54883   8.082   8.720   5.084
84329SOL    HW154884   8.145   8.775   5.129
84329SOL    HW254885   8.128   8.638   5.068
84330SOL     OW54886  14.583   5.161   7.086
84330SOL    HW154887  14.583   5.130   6.996
84330SOL    HW254888  14.556   5.085   7.138
84331SOL     OW54889  11.459   6.271   9.598
84331SOL    HW154890  11.395   6.342   9.588
84331SOL    HW254891  11.542   6.316   9.617
84332SOL     OW54892  12.095   0.332  13.939
84332SOL    HW154893  12.145   0.299  13.865
84332SOL    HW254894  12.069   0.421  13.913
84333SOL     OW54895   9.863   8.932   1.215
84333SOL    HW154896   9.813   8.876   1.274
84333SOL    HW254897   9.806   9.008   1.202
84334SOL     OW54898   9.603  10.128  10.002
84334SOL    HW154899   9.580  10.096  10.090
84334SOL    HW254900   9.648  10.054   9.961
84335SOL     OW54901   7.730  13.968   1.823
84335SOL    HW154902   7.712  13.932   1.910
84335SOL    HW254903   7.825  13.977   1.820
84336SOL     OW54904   2.187  13.000   6.459
84336SOL    HW154905   2.217  13.039   6.541
84336SOL    HW254906   2.226  12.913   6.458
84337SOL     OW54907   4.326   6.277   1.502
84337SOL    HW154908   4.420   6.291   1.495
84337SOL    HW254909   4.316   6.226   1.583
84338SOL     OW54910   4.315  10.245   6.965
84338SOL    HW154911   4.257  10.219   7.037
84338SOL    HW254912   4.277  10.203   6.888
84339SOL     OW54913   5.126   4.202  10.265
84339SOL    HW154914   5.050   4.150  10.290
84339SOL    HW254915   5.152   4.247  10.346
84340SOL     OW54916   3.267   9.983  13.089
84340SOL    HW154917   3.290  10.071  13.119
84340SOL    HW254918   3.182   9.994  13.046
84341SOL     OW54919  10.065   2.897  10.764
84341SOL    HW154920  10.129   2.860  10.703
84341SOL    HW254921  10.017   2.962  10.712
84342SOL     OW54922  10.151   1.787   1.027
84342SOL    HW154923  10.225   1.808   1.084
84342SOL    HW254924  10.188   1.733   0.958
84343SOL     OW54925  13.041   8.495   4.991
84343SOL    HW154926  12.974   8.501   4.922
84343SOL    HW254927  12.994   8.464   5.068
84344SOL     OW54928   3.233  11.984   5.463
84344SOL    HW154929   3.240  12.001   5.369
84344SOL    HW254930   3.324  11.979   5.493
84345SOL     OW54931  12.252   0.042  12.958
84345SOL    HW154932  12.158   0.030  12.941
84345SOL    HW254933  12.265   0.137  12.953
84346SOL     OW54934   1.514  12.255  14.120
84346SOL    HW154935   1.530  12.161  14.129
84346SOL    HW254936   1.597  12.291  14.088
84347SOL     OW54937   5.935  13.037   5.526
84347SOL    HW154938   6.007  13.093   5.554
84347SOL    HW254939   5.865  13.054   5.589
84348SOL     OW54940  14.840   9.131   2.914
84348SOL    HW154941  14.771   9.189   2.882
84348SOL    HW254942  14.793   9.057   2.954
84349SOL     OW54943   9.204  14.630   2.768
84349SOL    HW154944   9.263  14.558   2.792
84349SOL    HW254945   9.200  14.684   2.847
84350SOL     OW54946   4.504   6.199   0.541
84350SOL    HW154947   4.465   6.273   0.588
84350SOL    HW254948   4.554   6.151   0.608
84351SOL     OW54949   8.549  13.169  11.239
84351SOL    HW154950   8.640  13.193  11.252
84351SOL    HW254951   8.525  13.121  11.318
84352SOL     OW54952   5.548  10.707  14.458
84352SOL    HW154953   5.628  10.667  14.494
84352SOL    HW254954   5.568  10.722  14.366
84353SOL     OW54955   5.226   5.468   6.521
84353SOL    HW154956   5.304   5.443   6.571
84353SOL    HW254957   5.153   5.443   6.578
84354SOL     OW54958   7.563   3.909   4.951
84354SOL    HW154959   7.474   3.933   4.926
84354SOL    HW254960   7.615   3.988   4.935
84355SOL     OW54961   2.295  14.636   5.925
84355SOL    HW154962   2.221  14.670   5.974
84355SOL    HW254963   2.296  14.687   5.843
84356SOL     OW54964   8.711   4.006   1.537
84356SOL    HW154965   8.651   4.075   1.564
84356SOL    HW254966   8.769   4.048   1.474
84357SOL     OW54967   5.458   0.444   6.629
84357SOL    HW154968   5.553   0.440   6.640
84357SOL    HW254969   5.445   0.488   6.545
84358SOL     OW54970  10.431   0.337  11.775
84358SOL    HW154971  10.449   0.431  11.777
84358SOL    HW254972  10.518   0.296  11.775
84359SOL     OW54973   9.540   0.660  14.647
84359SOL    HW154974   9.503   0.748  14.637
84359SOL    HW254975   9.575   0.659  14.736
84360SOL     OW54976  10.824   1.750   1.492
84360SOL    HW154977  10.833   1.804   1.414
84360SOL    HW254978  10.912   1.715   1.507
84361SOL     OW54979  11.950   9.076  13.091
84361SOL    HW154980  11.928   9.080  13.184
84361SOL    HW254981  11.922   9.161  13.056
84362SOL     OW54982   4.653   1.042  10.021
84362SOL    HW154983   4.657   1.136  10.007
84362SOL    HW254984   4.741   1.017  10.048
84363SOL     OW54985   6.117  11.685  11.508
84363SOL    HW154986   6.031  11.672  11.468
84363SOL    HW254987   6.126  11.612  11.569
84364SOL     OW54988  11.414   8.465   9.952
84364SOL    HW154989  11.473   8.499  10.019
84364SOL    HW254990  11.439   8.512   9.873
84365SOL     OW54991   3.543   8.797   7.442
84365SOL    HW154992   3.603   8.868   7.421
84365SOL    HW254993   3.578   8.721   7.396
84366SOL     OW54994   7.807  14.791   4.409
84366SOL    HW154995   7.720  14.796   4.369
84366SOL    HW254996   7.792  14.814   4.501
84367SOL     OW54997   2.980   4.648   0.234
84367SOL    HW154998   3.034   4.569   0.233
84367SOL    HW254999   3.042   4.720   0.223
84368SOL     OW55000   4.471   0.599   8.771
84368SOL    HW155001   4.394   0.618   8.825
84368SOL    HW255002   4.493   0.508   8.792
84369SOL     OW55003   0.529   9.912  14.721
84369SOL    HW155004   0.480   9.952  14.649
84369SOL    HW255005   0.591   9.853  14.679
84370SOL     OW55006   2.935   1.498   0.021
84370SOL    HW155007   2.914   1.406   0.036
84370SOL    HW255008   3.028   1.505   0.045
84371SOL     OW55009  10.804  10.951   6.154
84371SOL    HW155010  10.766  10.892   6.088
84371SOL    HW255011  10.889  10.911   6.175
84372SOL     OW55012  11.623  11.310  11.289
84372SOL    HW155013  11.536  11.296  11.252
84372SOL    HW255014  11.683  11.285  11.220
84373SOL     OW55015  14.274  10.394   5.829
84373SOL    HW155016  14.348  10.416   5.885
84373SOL    HW255017  14.251  10.304   5.855
84374SOL     OW55018  13.292   9.405  13.304
84374SOL    HW155019  13.234   9.466  13.349
84374SOL    HW255020  13.373   9.454  13.291
84375SOL     OW55021   4.197   9.732  10.422
84375SOL    HW155022   4.231   9.786  10.492
84375SOL    HW255023   4.271   9.677  10.395
84376SOL     OW55024   3.144  13.478   0.375
84376SOL    HW155025   3.143  13.446   0.285
84376SOL    HW255026   3.236  13.473   0.401
84377SOL     OW55027   0.677   6.427   1.866
84377SOL    HW155028   0.626   6.451   1.944
84377SOL    HW255029   0.763   6.405   1.900
84378SOL     OW55030  13.841   6.749   0.632
84378SOL    HW155031  13.785   6.689   0.681
84378SOL    HW255032  13.917   6.695   0.607
84379SOL     OW55033   0.777   5.815  14.642
84379SOL    HW155034   0.713   5.886  14.645
84379SOL    HW255035   0.841   5.843  14.576
84380SOL     OW55036   0.067   5.504  14.364
84380SOL    HW155037   0.086   5.411  14.370
84380SOL    HW255038   0.137   5.539  14.310
84381SOL     OW55039   1.460   7.293   8.911
84381SOL    HW155040   1.379   7.254   8.879
84381SOL    HW255041   1.433   7.376   8.949
84382SOL     OW55042   8.107   1.869   0.941
84382SOL    HW155043   8.021   1.839   0.969
84382SOL    HW255044   8.127   1.943   0.998
84383SOL     OW55045  13.120  10.857  10.453
84383SOL    HW155046  13.062  10.923  10.413
84383SOL    HW255047  13.164  10.816  10.379
84384SOL     OW55048  10.007   1.699   0.085
84384SOL    HW155049  10.101   1.695   0.066
84384SOL    HW255050   9.992   1.625   0.145
84385SOL     OW55051   4.021   7.545  13.246
84385SOL    HW155052   4.050   7.558  13.337
84385SOL    HW255053   4.075   7.472  13.215
84386SOL     OW55054   1.062   0.485  12.083
84386SOL    HW155055   1.123   0.554  12.059
84386SOL    HW255056   0.991   0.493  12.019
84387SOL     OW55057   2.563  12.668  11.197
84387SOL    HW155058   2.610  12.676  11.280
84387SOL    HW255059   2.621  12.710  11.133
84388SOL     OW55060   8.055   8.512   8.110
84388SOL    HW155061   8.117   8.585   8.106
84388SOL    HW255062   8.046   8.482   8.020
84389SOL     OW55063   9.814   6.988  10.544
84389SOL    HW155064   9.735   6.947  10.507
84389SOL    HW255065   9.820   6.952  10.632
84390SOL     OW55066   4.052   7.669   6.085
84390SOL    HW155067   4.116   7.730   6.049
84390SOL    HW255068   4.005   7.635   6.008
84391SOL     OW55069   4.320   9.484   5.622
84391SOL    HW155070   4.363   9.513   5.542
84391SOL    HW255071   4.234   9.455   5.594
84392SOL     OW55072  11.636  14.250   2.347
84392SOL    HW155073  11.572  14.233   2.416
84392SOL    HW255074  11.660  14.163   2.316
84393SOL     OW55075   1.753  13.297   1.917
84393SOL    HW155076   1.782  13.380   1.879
84393SOL    HW255077   1.717  13.322   2.002
84394SOL     OW55078   9.988  12.029   3.001
84394SOL    HW155079  10.072  12.022   2.956
84394SOL    HW255080   9.953  11.940   3.000
84395SOL     OW55081   0.533   7.632   4.270
84395SOL    HW155082   0.551   7.555   4.324
84395SOL    HW255083   0.461   7.605   4.213
84396SOL     OW55084  12.257  12.116  12.031
84396SOL    HW155085  12.296  12.167  11.960
84396SOL    HW255086  12.237  12.180  12.099
84397SOL     OW55087  14.026   2.707   2.727
84397SOL    HW155088  14.119   2.727   2.736
84397SOL    HW255089  14.002   2.667   2.810
84398SOL     OW55090   1.969  14.417   8.017
84398SOL    HW155091   1.878  14.446   8.007
84398SOL    HW255092   2.018  14.470   7.954
84399SOL     OW55093   7.075   9.294  13.053
84399SOL    HW155094   7.088   9.237  12.976
84399SOL    HW255095   6.986   9.326  13.044
84400SOL     OW55096   6.639   2.587   1.963
84400SOL    HW155097   6.577   2.557   2.030
84400SOL    HW255098   6.667   2.507   1.919
84401SOL     OW55099   6.621  12.037   6.474
84401SOL    HW155100   6.593  11.985   6.550
84401SOL    HW255101   6.633  12.125   6.509
84402SOL     OW55102  13.623   8.311   2.945
84402SOL    HW155103  13.680   8.358   2.885
84402SOL    HW255104  13.682   8.253   2.994
84403SOL     OW55105   1.918   2.217   9.797
84403SOL    HW155106   1.846   2.214   9.860
84403SOL    HW255107   1.977   2.147   9.824
84404SOL     OW55108  13.713   1.249  14.653
84404SOL    HW155109  13.719   1.160  14.687
84404SOL    HW255110  13.652   1.294  14.711
84405SOL     OW55111   6.022   7.766   1.662
84405SOL    HW155112   6.057   7.854   1.677
84405SOL    HW255113   5.955   7.778   1.595
84406SOL     OW55114  13.182   4.505   2.170
84406SOL    HW155115  13.140   4.549   2.096
84406SOL    HW255116  13.222   4.576   2.221
84407SOL     OW55117   2.535   6.477   3.748
84407SOL    HW155118   2.623   6.449   3.721
84407SOL    HW255119   2.484   6.396   3.748
84408SOL     OW55120  12.704   9.377   5.201
84408SOL    HW155121  12.671   9.294   5.166
84408SOL    HW255122  12.643   9.442   5.169
84409SOL     OW55123   7.125   1.023  11.056
84409SOL    HW155124   7.221   1.022  11.060
84409SOL    HW255125   7.099   1.095  11.114
84410SOL     OW55126   2.505   4.764   6.679
84410SOL    HW155127   2.491   4.803   6.593
84410SOL    HW255128   2.541   4.835   6.732
84411SOL     OW55129  13.400   6.454   0.266
84411SOL    HW155130  13.374   6.515   0.197
84411SOL    HW255131  13.323   6.399   0.279
84412SOL     OW55132   4.384  13.556   0.687
84412SOL    HW155133   4.356  13.624   0.626
84412SOL    HW255134   4.426  13.604   0.759
84413SOL     OW55135   5.500   6.056   3.355
84413SOL    HW155136   5.548   5.974   3.365
84413SOL    HW255137   5.568   6.122   3.339
84414SOL     OW55138   4.538   0.426   0.907
84414SOL    HW155139   4.454   0.470   0.922
84414SOL    HW255140   4.604   0.491   0.931
84415SOL     OW55141   7.997   9.291   9.877
84415SOL    HW155142   7.980   9.289   9.971
84415SOL    HW255143   8.065   9.357   9.866
84416SOL     OW55144  12.288   8.209   0.353
84416SOL    HW155145  12.201   8.187   0.321
84416SOL    HW255146  12.292   8.305   0.346
84417SOL     OW55147  12.510   8.887   3.730
84417SOL    HW155148  12.437   8.939   3.697
84417SOL    HW255149  12.473   8.840   3.806
84418SOL     OW55150  14.575   4.984   8.868
84418SOL    HW155151  14.646   5.030   8.913
84418SOL    HW255152  14.500   5.043   8.875
84419SOL     OW55153   8.307   1.941  11.203
84419SOL    HW155154   8.320   1.939  11.109
84419SOL    HW255155   8.223   1.899  11.217
84420SOL     OW55156   9.220   3.954   3.207
84420SOL    HW155157   9.239   3.884   3.270
84420SOL    HW255158   9.239   3.914   3.122
84421SOL     OW55159  10.658   5.119  13.064
84421SOL    HW155160  10.682   5.027  13.051
84421SOL    HW255161  10.675   5.160  12.979
84422SOL     OW55162  14.566   1.065   2.465
84422SOL    HW155163  14.528   0.999   2.407
84422SOL    HW255164  14.585   1.018   2.546
84423SOL     OW55165  12.521  13.429   2.184
84423SOL    HW155166  12.506  13.462   2.272
84423SOL    HW255167  12.475  13.490   2.127
84424SOL     OW55168  10.397  10.182   1.650
84424SOL    HW155169  10.321  10.237   1.665
84424SOL    HW255170  10.361  10.099   1.618
84425SOL     OW55171   4.524  13.499   7.169
84425SOL    HW155172   4.535  13.404   7.172
84425SOL    HW255173   4.430  13.511   7.151
84426SOL     OW55174   6.686   5.574   2.251
84426SOL    HW155175   6.732   5.550   2.331
84426SOL    HW255176   6.635   5.652   2.276
84427SOL     OW55177   9.424   7.215  11.826
84427SOL    HW155178   9.415   7.282  11.894
84427SOL    HW255179   9.413   7.262  11.744
84428SOL     OW55180  14.698  12.453   5.274
84428SOL    HW155181  14.635  12.441   5.203
84428SOL    HW255182  14.780  12.474   5.230
84429SOL     OW55183   6.472   0.111   5.242
84429SOL    HW155184   6.435   0.181   5.296
84429SOL    HW255185   6.438   0.030   5.281
84430SOL     OW55186   6.193   3.908   6.641
84430SOL    HW155187   6.135   3.832   6.649
84430SOL    HW255188   6.198   3.923   6.546
84431SOL     OW55189   2.352  11.531   2.043
84431SOL    HW155190   2.266  11.546   2.006
84431SOL    HW255191   2.346  11.565   2.133
84432SOL     OW55192   1.832   8.675   5.123
84432SOL    HW155193   1.886   8.714   5.055
84432SOL    HW255194   1.887   8.607   5.163
84433SOL     OW55195   9.946  10.286   6.072
84433SOL    HW155196   9.882  10.223   6.038
84433SOL    HW255197   9.897  10.338   6.135
84434SOL     OW55198   3.376   0.401   1.274
84434SOL    HW155199   3.448   0.357   1.229
84434SOL    HW255200   3.385   0.373   1.365
84435SOL     OW55201   9.577   3.464   6.703
84435SOL    HW155202   9.533   3.480   6.786
84435SOL    HW255203   9.639   3.537   6.695
84436SOL     OW55204  10.071   8.407  12.158
84436SOL    HW155205  10.024   8.380  12.237
84436SOL    HW255206  10.158   8.431  12.189
84437SOL     OW55207  14.254  14.392   4.356
84437SOL    HW155208  14.223  14.411   4.267
84437SOL    HW255209  14.175  14.391   4.409
84438SOL     OW55210   9.063   7.930   6.704
84438SOL    HW155211   9.121   7.870   6.751
84438SOL    HW255212   8.980   7.926   6.751
84439SOL     OW55213  12.935   1.419  14.373
84439SOL    HW155214  12.987   1.367  14.312
84439SOL    HW255215  12.871   1.358  14.409
84440SOL     OW55216   2.269   0.500   3.351
84440SOL    HW155217   2.304   0.575   3.398
84440SOL    HW255218   2.340   0.436   3.352
84441SOL     OW55219  10.086  14.459   2.331
84441SOL    HW155220  10.105  14.382   2.385
84441SOL    HW255221  10.043  14.521   2.390
84442SOL     OW55222   7.189   5.031   1.656
84442SOL    HW155223   7.176   5.108   1.602
84442SOL    HW255224   7.274   4.996   1.630
84443SOL     OW55225   3.052   9.863  13.283
84443SOL    HW155226   3.119   9.799  13.260
84443SOL    HW255227   3.022   9.897  13.198
84444SOL     OW55228   6.040   9.073   0.285
84444SOL    HW155229   6.037   8.977   0.289
84444SOL    HW255230   5.954   9.098   0.252
84445SOL     OW55231   1.048   7.209   2.387
84445SOL    HW155232   1.140   7.185   2.400
84445SOL    HW255233   1.031   7.190   2.295
84446SOL     OW55234   9.513  14.392   4.560
84446SOL    HW155235   9.548  14.311   4.522
84446SOL    HW255236   9.582  14.423   4.618
84447SOL     OW55237   8.985  13.103   5.708
84447SOL    HW155238   8.918  13.109   5.640
84447SOL    HW255239   8.946  13.144   5.785
84448SOL     OW55240   0.521   9.572  11.966
84448SOL    HW155241   0.527   9.568  12.061
84448SOL    HW255242   0.433   9.540  11.946
84449SOL     OW55243   7.532   8.339   5.715
84449SOL    HW155244   7.458   8.398   5.699
84449SOL    HW255245   7.588   8.386   5.776
84450SOL     OW55246   6.704   9.545   9.772
84450SOL    HW155247   6.707   9.622   9.715
84450SOL    HW255248   6.684   9.580   9.859
84451SOL     OW55249  14.863   8.780   5.994
84451SOL    HW155250   0.058   8.726   6.040
84451SOL    HW255251  14.858   8.860   6.046
84452SOL     OW55252   0.389   9.884   6.702
84452SOL    HW155253   0.315   9.940   6.679
84452SOL    HW255254   0.349   9.802   6.731
84453SOL     OW55255  14.088   3.740   2.143
84453SOL    HW155256  14.176   3.764   2.173
84453SOL    HW255257  14.047   3.698   2.219
84454SOL     OW55258  13.752   9.233   1.533
84454SOL    HW155259  13.759   9.232   1.437
84454SOL    HW255260  13.674   9.285   1.551
84455SOL     OW55261  10.909   1.616   2.816
84455SOL    HW155262  10.939   1.688   2.872
84455SOL    HW255263  10.969   1.544   2.837
84456SOL     OW55264   1.115  10.168   3.241
84456SOL    HW155265   1.045  10.192   3.301
84456SOL    HW255266   1.098  10.076   3.221
84457SOL     OW55267  13.039   9.833   1.861
84457SOL    HW155268  13.086   9.770   1.806
84457SOL    HW255269  13.104   9.900   1.881
84458SOL     OW55270   7.245   0.723   8.022
84458SOL    HW155271   7.189   0.674   8.082
84458SOL    HW255272   7.324   0.670   8.015
84459SOL     OW55273   9.977   2.529  10.407
84459SOL    HW155274   9.952   2.617  10.378
84459SOL    HW255275  10.043   2.501  10.343
84460SOL     OW55276   5.148   1.418   4.170
84460SOL    HW155277   5.223   1.360   4.160
84460SOL    HW255278   5.081   1.381   4.112
84461SOL     OW55279   3.770   4.416   1.832
84461SOL    HW155280   3.785   4.490   1.891
84461SOL    HW255281   3.675   4.407   1.827
84462SOL     OW55282  12.420  14.015   1.983
84462SOL    HW155283  12.434  14.003   2.077
84462SOL    HW255284  12.466  13.942   1.942
84463SOL     OW55285   6.327   2.180  13.364
84463SOL    HW155286   6.276   2.107  13.330
84463SOL    HW255287   6.334   2.163  13.458
84464SOL     OW55288   3.832   5.406   4.068
84464SOL    HW155289   3.927   5.415   4.068
84464SOL    HW255290   3.817   5.312   4.065
84465SOL     OW55291   7.480   6.473  12.696
84465SOL    HW155292   7.563   6.473  12.742
84465SOL    HW255293   7.414   6.458  12.764
84466SOL     OW55294   3.399  13.343  13.155
84466SOL    HW155295   3.392  13.311  13.246
84466SOL    HW255296   3.368  13.269  13.102
84467SOL     OW55297   9.907  13.607   6.027
84467SOL    HW155298   9.972  13.537   6.028
84467SOL    HW255299   9.826  13.565   6.056
84468SOL     OW55300  13.569   8.107  10.509
84468SOL    HW155301  13.619   8.057  10.574
84468SOL    HW255302  13.635   8.136  10.446
84469SOL     OW55303  14.576   7.009   1.735
84469SOL    HW155304  14.565   6.954   1.813
84469SOL    HW255305  14.644   7.071   1.760
84470SOL     OW55306   5.853   5.036   2.701
84470SOL    HW155307   5.858   4.952   2.746
84470SOL    HW255308   5.769   5.073   2.729
84471SOL     OW55309  14.797  11.489   0.160
84471SOL    HW155310  14.828  11.578   0.179
84471SOL    HW255311  14.820  11.475   0.068
84472SOL     OW55312   1.623   6.000   0.862
84472SOL    HW155313   1.670   6.044   0.790
84472SOL    HW255314   1.692   5.956   0.912
84473SOL     OW55315   0.907  13.788   4.141
84473SOL    HW155316   0.855  13.866   4.163
84473SOL    HW255317   0.995  13.821   4.127
84474SOL     OW55318   4.408  11.570   3.140
84474SOL    HW155319   4.495  11.578   3.178
84474SOL    HW255320   4.382  11.660   3.120
84475SOL     OW55321  13.834   6.875  12.653
84475SOL    HW155322  13.918   6.868  12.606
84475SOL    HW255323  13.858   6.865  12.745
84476SOL     OW55324  14.036  11.472  13.489
84476SOL    HW155325  13.987  11.526  13.427
84476SOL    HW255326  13.972  11.410  13.523
84477SOL     OW55327   9.197  13.695   6.896
84477SOL    HW155328   9.218  13.685   6.803
84477SOL    HW255329   9.221  13.612   6.936
84478SOL     OW55330   5.319   5.374   6.280
84478SOL    HW155331   5.411   5.347   6.275
84478SOL    HW255332   5.306   5.398   6.372
84479SOL     OW55333   9.916  12.622   5.022
84479SOL    HW155334   9.903  12.644   4.930
84479SOL    HW255335   9.829  12.632   5.062
84480SOL     OW55336  10.055  13.091   6.498
84480SOL    HW155337  10.142  13.060   6.527
84480SOL    HW255338  10.002  13.089   6.577
84481SOL     OW55339  10.975  11.366  12.270
84481SOL    HW155340  11.040  11.392  12.205
84481SOL    HW255341  10.911  11.438  12.269
84482SOL     OW55342   7.047   5.021   8.996
84482SOL    HW155343   7.053   5.087   9.064
84482SOL    HW255344   6.974   5.049   8.941
84483SOL     OW55345   4.996   3.509   7.347
84483SOL    HW155346   4.934   3.455   7.298
84483SOL    HW255347   4.941   3.565   7.402
84484SOL     OW55348  11.298   3.745  13.661
84484SOL    HW155349  11.321   3.816  13.602
84484SOL    HW255350  11.252   3.787  13.734
84485SOL     OW55351   2.263   6.958   2.537
84485SOL    HW155352   2.334   7.005   2.580
84485SOL    HW255353   2.298   6.938   2.450
84486SOL     OW55354   3.508   6.707   8.744
84486SOL    HW155355   3.442   6.638   8.738
84486SOL    HW255356   3.590   6.661   8.762
84487SOL     OW55357   9.401   5.320  12.966
84487SOL    HW155358   9.307   5.326  12.985
84487SOL    HW255359   9.420   5.400  12.916
84488SOL     OW55360   5.521   5.769   2.873
84488SOL    HW155361   5.589   5.829   2.903
84488SOL    HW255362   5.472   5.819   2.808
84489SOL     OW55363   3.017   8.883   0.003
84489SOL    HW155364   3.041   8.922  14.788
84489SOL    HW255365   3.101   8.873   0.049
84490SOL     OW55366  14.237  12.431   5.085
84490SOL    HW155367  14.259  12.455   5.175
84490SOL    HW255368  14.196  12.344   5.093
84491SOL     OW55369  11.046  13.642   5.584
84491SOL    HW155370  11.069  13.687   5.503
84491SOL    HW255371  11.002  13.709   5.637
84492SOL     OW55372   0.462  10.023   6.136
84492SOL    HW155373   0.467   9.958   6.207
84492SOL    HW255374   0.498  10.103   6.174
84493SOL     OW55375  10.648   2.642  14.263
84493SOL    HW155376  10.687   2.717  14.218
84493SOL    HW255377  10.635   2.576  14.194
84494SOL     OW55378   0.237   9.124   1.720
84494SOL    HW155379   0.172   9.187   1.690
84494SOL    HW255380   0.201   9.090   1.802
84495SOL     OW55381   2.910   4.799  10.208
84495SOL    HW155382   2.864   4.869  10.162
84495SOL    HW255383   2.842   4.737  10.232
84496SOL     OW55384  14.291   0.038   0.843
84496SOL    HW155385  14.229  14.840   0.815
84496SOL    HW255386  14.258   0.119   0.803
84497SOL     OW55387   9.166  12.124   0.291
84497SOL    HW155388   9.260  12.137   0.277
84497SOL    HW255389   9.161  12.058   0.360
84498SOL     OW55390   4.099   8.446   7.407
84498SOL    HW155391   4.166   8.450   7.339
84498SOL    HW255392   4.142   8.400   7.480
84499SOL     OW55393   7.744  12.926  12.510
84499SOL    HW155394   7.669  12.981  12.490
84499SOL    HW255395   7.805  12.984  12.557
84500SOL     OW55396   7.418   7.256  10.997
84500SOL    HW155397   7.384   7.345  10.988
84500SOL    HW255398   7.478   7.261  11.071
84501SOL     OW55399  10.582  14.421   0.127
84501SOL    HW155400  10.556  14.513   0.124
84501SOL    HW255401  10.638  14.410   0.050
84502SOL     OW55402  10.657   5.868   3.786
84502SOL    HW155403  10.713   5.946   3.781
84502SOL    HW255404  10.598   5.877   3.711
84503SOL     OW55405   9.371   3.280   5.666
84503SOL    HW155406   9.339   3.273   5.756
84503SOL    HW255407   9.292   3.279   5.612
84504SOL     OW55408  10.356   9.118   3.712
84504SOL    HW155409  10.369   9.101   3.805
84504SOL    HW255410  10.440   9.094   3.671
84505SOL     OW55411   6.856   1.842  14.580
84505SOL    HW155412   6.770   1.863  14.615
84505SOL    HW255413   6.916   1.902  14.625
84506SOL     OW55414   5.031  14.279   5.649
84506SOL    HW155415   5.037  14.280   5.553
84506SOL    HW255416   5.030  14.371   5.674
84507SOL     OW55417  10.547  10.810   3.625
84507SOL    HW155418  10.493  10.877   3.583
84507SOL    HW255419  10.551  10.739   3.561
84508SOL     OW55420   6.406   1.695   3.850
84508SOL    HW155421   6.362   1.780   3.861
84508SOL    HW255422   6.459   1.685   3.928
84509SOL     OW55423   1.677   5.984   2.440
84509SOL    HW155424   1.687   6.057   2.378
84509SOL    HW255425   1.586   5.957   2.429
84510SOL     OW55426  13.543   9.943  13.988
84510SOL    HW155427  13.608   9.994  14.038
84510SOL    HW255428  13.494  10.009  13.938
84511SOL     OW55429   8.835   2.145   7.288
84511SOL    HW155430   8.766   2.082   7.306
84511SOL    HW255431   8.915   2.101   7.317
84512SOL     OW55432   9.863   1.188  14.409
84512SOL    HW155433   9.871   1.189  14.504
84512SOL    HW255434   9.794   1.123  14.392
84513SOL     OW55435   0.679   0.711  12.031
84513SOL    HW155436   0.709   0.801  12.019
84513SOL    HW255437   0.583   0.718  12.037
84514SOL     OW55438   2.174  10.355   5.790
84514SOL    HW155439   2.219  10.376   5.708
84514SOL    HW255440   2.101  10.300   5.764
84515SOL     OW55441  10.810  11.667  10.320
84515SOL    HW155442  10.854  11.748  10.297
84515SOL    HW255443  10.717  11.686  10.307
84516SOL     OW55444  12.025   2.717   9.249
84516SOL    HW155445  12.120   2.725   9.246
84516SOL    HW255446  12.010   2.622   9.245
84517SOL     OW55447   7.184   2.771   1.130
84517SOL    HW155448   7.166   2.766   1.037
84517SOL    HW255449   7.112   2.724   1.172
84518SOL     OW55450   4.925   6.285   0.242
84518SOL    HW155451   4.859   6.254   0.304
84518SOL    HW255452   4.982   6.342   0.294
84519SOL     OW55453   0.698   9.634   5.233
84519SOL    HW155454   0.616   9.658   5.191
84519SOL    HW255455   0.694   9.539   5.243
84520SOL     OW55456   8.880   1.057  10.661
84520SOL    HW155457   8.905   1.002  10.736
84520SOL    HW255458   8.821   1.002  10.610
84521SOL     OW55459   3.240  11.063  12.269
84521SOL    HW155460   3.335  11.061  12.276
84521SOL    HW255461   3.221  11.136  12.210
84522SOL     OW55462  10.894   5.420  10.148
84522SOL    HW155463  10.890   5.442  10.055
84522SOL    HW255464  10.887   5.325  10.151
84523SOL     OW55465   4.596  13.249  13.075
84523SOL    HW155466   4.670  13.196  13.045
84523SOL    HW255467   4.524  13.187  13.084
84524SOL     OW55468   7.081  13.297   9.904
84524SOL    HW155469   7.081  13.391   9.887
84524SOL    HW255470   7.173  13.272   9.896
84525SOL     OW55471  13.384  10.932   3.058
84525SOL    HW155472  13.314  10.869   3.076
84525SOL    HW255473  13.383  10.943   2.963
84526SOL     OW55474  12.794  11.888  13.310
84526SOL    HW155475  12.734  11.962  13.305
84526SOL    HW255476  12.766  11.839  13.387
84527SOL     OW55477   6.847   7.097  11.847
84527SOL    HW155478   6.855   7.176  11.793
84527SOL    HW255479   6.871   7.125  11.935
84528SOL     OW55480   6.186   0.333   2.955
84528SOL    HW155481   6.091   0.343   2.956
84528SOL    HW255482   6.218   0.401   3.015
84529SOL     OW55483   5.638   7.310   1.190
84529SOL    HW155484   5.705   7.344   1.131
84529SOL    HW255485   5.608   7.386   1.239
84530SOL     OW55486   0.137   0.003   2.991
84530SOL    HW155487   0.105   0.068   2.929
84530SOL    HW255488   0.217  14.839   2.951
84531SOL     OW55489   8.723   9.397  12.990
84531SOL    HW155490   8.795   9.441  13.036
84531SOL    HW255491   8.644   9.428  13.034
84532SOL     OW55492   4.110   8.387   5.029
84532SOL    HW155493   4.113   8.481   5.043
84532SOL    HW255494   4.200   8.362   5.009
84533SOL     OW55495   1.665   0.252   8.010
84533SOL    HW155496   1.742   0.195   8.019
84533SOL    HW255497   1.591   0.191   8.009
84534SOL     OW55498  10.463  14.844   6.353
84534SOL    HW155499  10.519   0.035   6.401
84534SOL    HW255500  10.445  14.774   6.416
84535SOL     OW55501   6.773   1.945   8.458
84535SOL    HW155502   6.792   1.852   8.456
84535SOL    HW255503   6.743   1.966   8.370
84536SOL     OW55504   9.910  10.683   8.016
84536SOL    HW155505   9.913  10.602   8.067
84536SOL    HW255506   9.998  10.691   7.979
84537SOL     OW55507  13.132   8.571   9.668
84537SOL    HW155508  13.075   8.560   9.592
84537SOL    HW255509  13.220   8.579   9.632
84538SOL     OW55510   1.472  10.041   3.533
84538SOL    HW155511   1.516  10.122   3.507
84538SOL    HW255512   1.501  10.024   3.622
84539SOL     OW55513   7.417   8.121   5.544
84539SOL    HW155514   7.388   8.209   5.567
84539SOL    HW255515   7.511   8.130   5.529
84540SOL     OW55516   7.611   1.935   7.606
84540SOL    HW155517   7.676   1.935   7.676
84540SOL    HW255518   7.646   1.997   7.541
84541SOL     OW55519  14.495  14.805  10.641
84541SOL    HW155520  14.578  14.829  10.682
84541SOL    HW255521  14.519  14.786  10.550
84542SOL     OW55522   8.901  12.411   6.509
84542SOL    HW155523   8.988  12.382   6.538
84542SOL    HW255524   8.876  12.477   6.574
84543SOL     OW55525   0.806   9.318   8.807
84543SOL    HW155526   0.750   9.288   8.736
84543SOL    HW255527   0.748   9.373   8.861
84544SOL     OW55528   5.174   9.717  10.176
84544SOL    HW155529   5.127   9.792  10.213
84544SOL    HW255530   5.262   9.750  10.159
84545SOL     OW55531   6.332   7.752  11.950
84545SOL    HW155532   6.321   7.687  11.881
84545SOL    HW255533   6.391   7.712  12.013
84546SOL     OW55534   7.459  11.007  12.337
84546SOL    HW155535   7.431  10.939  12.275
84546SOL    HW255536   7.416  10.984  12.419
84547SOL     OW55537   6.753  12.049   4.239
84547SOL    HW155538   6.824  12.059   4.176
84547SOL    HW255539   6.730  12.138   4.264
84548SOL     OW55540   8.015   2.360   7.119
84548SOL    HW155541   8.000   2.280   7.068
84548SOL    HW255542   7.978   2.430   7.065
84549SOL     OW55543  12.782   0.861  12.817
84549SOL    HW155544  12.751   0.783  12.770
84549SOL    HW255545  12.739   0.855  12.902
84550SOL     OW55546  14.023  13.078   8.436
84550SOL    HW155547  14.000  13.132   8.360
84550SOL    HW255548  14.059  12.998   8.398
84551SOL     OW55549   8.156  14.663  13.165
84551SOL    HW155550   8.114  14.692  13.246
84551SOL    HW255551   8.249  14.660  13.185
84552SOL     OW55552  13.450   3.607   9.953
84552SOL    HW155553  13.499   3.683   9.922
84552SOL    HW255554  13.504   3.532   9.928
84553SOL     OW55555  13.976   4.928  14.506
84553SOL    HW155556  13.961   4.841  14.542
84553SOL    HW255557  13.996   4.983  14.583
84554SOL     OW55558   1.701   1.967   9.669
84554SOL    HW155559   1.749   1.929   9.595
84554SOL    HW255560   1.678   2.055   9.639
84555SOL     OW55561   8.439  10.576   0.542
84555SOL    HW155562   8.417  10.505   0.482
84555SOL    HW255563   8.532  10.562   0.562
84556SOL     OW55564   3.542   4.929   8.437
84556SOL    HW155565   3.620   4.975   8.469
84556SOL    HW255566   3.576   4.866   8.373
84557SOL     OW55567  14.688  10.508   9.399
84557SOL    HW155568  14.716  10.449   9.469
84557SOL    HW255569  14.595  10.489   9.387
84558SOL     OW55570   8.375  10.015   6.346
84558SOL    HW155571   8.428   9.968   6.282
84558SOL    HW255572   8.378   9.961   6.425
84559SOL     OW55573  12.612   5.948  10.357
84559SOL    HW155574  12.672   6.001  10.305
84559SOL    HW255575  12.577   6.008  10.423
84560SOL     OW55576   2.112   3.630  10.577
84560SOL    HW155577   2.092   3.561  10.514
84560SOL    HW255578   2.062   3.607  10.655
84561SOL     OW55579  13.657   0.416  11.686
84561SOL    HW155580  13.741   0.430  11.642
84561SOL    HW255581  13.595   0.403  11.615
84562SOL     OW55582   5.357  12.882  10.751
84562SOL    HW155583   5.341  12.893  10.844
84562SOL    HW255584   5.411  12.803  10.745
84563SOL     OW55585   1.324   8.565   4.339
84563SOL    HW155586   1.232   8.591   4.345
84563SOL    HW255587   1.370   8.643   4.310
84564SOL     OW55588  13.184  13.243   4.792
84564SOL    HW155589  13.090  13.258   4.784
84564SOL    HW255590  13.200  13.163   4.743
84565SOL     OW55591  10.785  13.420   9.584
84565SOL    HW155592  10.877  13.437   9.569
84565SOL    HW255593  10.780  13.396   9.677
84566SOL     OW55594   6.576   6.538   0.474
84566SOL    HW155595   6.613   6.534   0.562
84566SOL    HW255596   6.503   6.599   0.480
84567SOL     OW55597  14.866   7.914   6.673
84567SOL    HW155598  14.844   7.960   6.592
84567SOL    HW255599  14.785   7.869   6.697
84568SOL     OW55600  12.089  14.355   0.756
84568SOL    HW155601  12.055  14.420   0.818
84568SOL    HW255602  12.173  14.390   0.727
84569SOL     OW55603   9.690   0.164  13.126
84569SOL    HW155604   9.705   0.073  13.103
84569SOL    HW255605   9.599   0.168  13.156
84570SOL     OW55606   6.858  13.775   4.929
84570SOL    HW155607   6.936  13.814   4.969
84570SOL    HW255608   6.847  13.822   4.847
84571SOL     OW55609  11.537   7.916   0.694
84571SOL    HW155610  11.576   8.003   0.704
84571SOL    HW255611  11.445   7.929   0.715
84572SOL     OW55612   7.965   7.813   4.727
84572SOL    HW155613   7.948   7.742   4.789
84572SOL    HW255614   7.879   7.851   4.710
84573SOL     OW55615   9.631   5.342   2.759
84573SOL    HW155616   9.548   5.369   2.720
84573SOL    HW255617   9.697   5.397   2.717
84574SOL     OW55618  11.237   1.394  13.006
84574SOL    HW155619  11.224   1.453  12.931
84574SOL    HW255620  11.212   1.446  13.082
84575SOL     OW55621   5.438  10.835   5.357
84575SOL    HW155622   5.444  10.916   5.306
84575SOL    HW255623   5.355  10.796   5.330
84576SOL     OW55624   1.999   9.930   0.742
84576SOL    HW155625   2.041   9.966   0.664
84576SOL    HW255626   2.043   9.972   0.815
84577SOL     OW55627   4.535   2.038   4.037
84577SOL    HW155628   4.515   2.099   4.107
84577SOL    HW255629   4.564   2.093   3.964
84578SOL     OW55630  11.762   2.938  14.665
84578SOL    HW155631  11.765   2.928  14.570
84578SOL    HW255632  11.784   2.851  14.700
84579SOL     OW55633  12.365  11.650   3.481
84579SOL    HW155634  12.298  11.616   3.421
84579SOL    HW255635  12.350  11.603   3.563
84580SOL     OW55636   1.181   6.331   0.619
84580SOL    HW155637   1.232   6.259   0.581
84580SOL    HW255638   1.150   6.381   0.543
84581SOL     OW55639   8.498   1.178   5.029
84581SOL    HW155640   8.469   1.138   4.947
84581SOL    HW255641   8.422   1.227   5.060
84582SOL     OW55642   0.179   3.508   3.183
84582SOL    HW155643   0.111   3.559   3.138
84582SOL    HW255644   0.131   3.455   3.246
84583SOL     OW55645   2.641   3.131   6.333
84583SOL    HW155646   2.591   3.167   6.407
84583SOL    HW255647   2.732   3.155   6.353
84584SOL     OW55648  11.782   0.172  13.335
84584SOL    HW155649  11.716   0.103  13.332
84584SOL    HW255650  11.798   0.195  13.244
84585SOL     OW55651   9.115   2.627  13.364
84585SOL    HW155652   9.196   2.580  13.341
84585SOL    HW255653   9.081   2.581  13.440
84586SOL     OW55654  13.032  11.449   4.153
84586SOL    HW155655  12.984  11.532   4.159
84586SOL    HW255656  13.106  11.468   4.095
84587SOL     OW55657  10.565  14.854   4.834
84587SOL    HW155658  10.525  14.770   4.815
84587SOL    HW255659  10.634  14.864   4.768
84588SOL     OW55660  12.503   0.328   0.957
84588SOL    HW155661  12.456   0.292   1.033
84588SOL    HW255662  12.452   0.405   0.932
84589SOL     OW55663   2.029   8.442   0.015
84589SOL    HW155664   2.070   8.515   0.061
84589SOL    HW255665   2.088   8.368   0.030
84590SOL     OW55666   0.583   2.580  14.292
84590SOL    HW155667   0.513   2.547  14.348
84590SOL    HW255668   0.632   2.502  14.266
84591SOL     OW55669   3.756   0.757  13.325
84591SOL    HW155670   3.731   0.665  13.335
84591SOL    HW255671   3.815   0.774  13.398
84592SOL     OW55672   1.909  12.505  11.802
84592SOL    HW155673   1.899  12.416  11.836
84592SOL    HW255674   1.996  12.533  11.831
84593SOL     OW55675   9.118  10.335  14.347
84593SOL    HW155676   9.134  10.291  14.263
84593SOL    HW255677   9.177  10.409  14.347
84594SOL     OW55678  12.451   1.081  11.830
84594SOL    HW155679  12.415   1.062  11.916
84594SOL    HW255680  12.396   1.152  11.796
84595SOL     OW55681  10.817   5.718   0.059
84595SOL    HW155682  10.801   5.802   0.016
84595SOL    HW255683  10.832   5.741   0.150
84596SOL     OW55684   4.146  10.942  13.015
84596SOL    HW155685   4.154  10.970  13.106
84596SOL    HW255686   4.053  10.950  12.995
84597SOL     OW55687   8.387   3.305  14.444
84597SOL    HW155688   8.454   3.372  14.455
84597SOL    HW255689   8.315   3.332  14.501
84598SOL     OW55690   3.190   3.499  13.046
84598SOL    HW155691   3.243   3.563  12.998
84598SOL    HW255692   3.209   3.416  13.003
84599SOL     OW55693   9.924   3.011   2.562
84599SOL    HW155694   9.986   3.067   2.609
84599SOL    HW255695   9.850   3.068   2.543
84600SOL     OW55696  11.407   4.935   3.950
84600SOL    HW155697  11.401   4.883   3.870
84600SOL    HW255698  11.500   4.959   3.956
84601SOL     OW55699   7.356  12.752   8.722
84601SOL    HW155700   7.313  12.836   8.703
84601SOL    HW255701   7.304  12.714   8.793
84602SOL     OW55702  10.332  12.278   9.675
84602SOL    HW155703  10.320  12.237   9.761
84602SOL    HW255704  10.255  12.333   9.664
84603SOL     OW55705   2.425  11.277  14.013
84603SOL    HW155706   2.356  11.322  13.964
84603SOL    HW255707   2.507  11.308  13.974
84604SOL     OW55708   7.485   1.064   6.895
84604SOL    HW155709   7.537   1.124   6.840
84604SOL    HW255710   7.475   0.986   6.841
84605SOL     OW55711  11.375   8.529   5.204
84605SOL    HW155712  11.346   8.581   5.280
84605SOL    HW255713  11.416   8.451   5.243
84606SOL     OW55714  12.175  12.297   8.705
84606SOL    HW155715  12.188  12.386   8.738
84606SOL    HW255716  12.130  12.308   8.621
84607SOL     OW55717   2.962   5.338   8.439
84607SOL    HW155718   2.992   5.383   8.360
84607SOL    HW255719   2.992   5.248   8.428
84608SOL     OW55720  10.762   0.422   1.545
84608SOL    HW155721  10.711   0.501   1.561
84608SOL    HW255722  10.852   0.447   1.566
84609SOL     OW55723   4.611   5.985   7.115
84609SOL    HW155724   4.673   5.952   7.179
84609SOL    HW255725   4.533   6.007   7.166
84610SOL     OW55726  14.865   2.806   8.907
84610SOL    HW155727  14.778   2.776   8.931
84610SOL    HW255728  14.856   2.835   8.816
84611SOL     OW55729   2.994   7.418   4.202
84611SOL    HW155730   2.916   7.417   4.258
84611SOL    HW255731   3.055   7.358   4.245
84612SOL     OW55732   0.496   9.571   7.370
84612SOL    HW155733   0.489   9.590   7.463
84612SOL    HW255734   0.561   9.502   7.363
84613SOL     OW55735  11.729   7.329   8.065
84613SOL    HW155736  11.705   7.285   7.983
84613SOL    HW255737  11.825   7.326   8.066
84614SOL     OW55738   2.318   9.084   8.101
84614SOL    HW155739   2.284   9.075   8.189
84614SOL    HW255740   2.393   9.024   8.098
84615SOL     OW55741   5.525  13.267  11.225
84615SOL    HW155742   5.613  13.298  11.245
84615SOL    HW255743   5.536  13.204  11.154
84616SOL     OW55744   8.988   1.981   4.840
84616SOL    HW155745   8.923   1.976   4.770
84616SOL    HW255746   8.983   1.896   4.883
84617SOL     OW55747  12.546   5.945   0.764
84617SOL    HW155748  12.611   5.927   0.696
84617SOL    HW255749  12.463   5.953   0.717
84618SOL     OW55750   8.829   3.166   4.430
84618SOL    HW155751   8.772   3.151   4.354
84618SOL    HW255752   8.782   3.228   4.484
84619SOL     OW55753   6.246   2.939   3.285
84619SOL    HW155754   6.164   2.895   3.261
84619SOL    HW255755   6.239   3.025   3.244
84620SOL     OW55756   0.628   5.324   5.162
84620SOL    HW155757   0.696   5.257   5.156
84620SOL    HW255758   0.595   5.318   5.251
84621SOL     OW55759   9.327  13.172   8.645
84621SOL    HW155760   9.300  13.186   8.554
84621SOL    HW255761   9.246  13.173   8.695
84622SOL     OW55762   2.174  13.926  10.843
84622SOL    HW155763   2.267  13.929  10.819
84622SOL    HW255764   2.168  13.979  10.923
84623SOL     OW55765   7.905   9.387  14.836
84623SOL    HW155766   7.864   9.468  14.866
84623SOL    HW255767   7.980   9.416  14.783
84624SOL     OW55768   3.037   6.003  12.437
84624SOL    HW155769   3.125   6.005  12.474
84624SOL    HW255770   3.045   5.948  12.358
84625SOL     OW55771   6.211   9.659   9.184
84625SOL    HW155772   6.205   9.621   9.096
84625SOL    HW255773   6.170   9.593   9.241
84626SOL     OW55774   9.916   6.400   7.043
84626SOL    HW155775   9.878   6.312   7.036
84626SOL    HW255776   9.854   6.457   6.999
84627SOL     OW55777   2.356   8.041  10.103
84627SOL    HW155778   2.332   8.096  10.029
84627SOL    HW255779   2.274   8.028  10.151
84628SOL     OW55780   2.665  14.737   3.459
84628SOL    HW155781   2.663  14.703   3.369
84628SOL    HW255782   2.756  14.725   3.486
84629SOL     OW55783   8.960   2.432   6.051
84629SOL    HW155784   8.952   2.426   5.956
84629SOL    HW255785   8.951   2.341   6.081
84630SOL     OW55786   4.616   1.905   2.540
84630SOL    HW155787   4.658   1.927   2.457
84630SOL    HW255788   4.545   1.969   2.548
84631SOL     OW55789   4.296   2.846   5.426
84631SOL    HW155790   4.253   2.925   5.393
84631SOL    HW255791   4.224   2.794   5.463
84632SOL     OW55792   7.757   1.981  12.508
84632SOL    HW155793   7.728   2.068  12.477
84632SOL    HW255794   7.683   1.923  12.488
84633SOL     OW55795  13.937   2.116   1.866
84633SOL    HW155796  13.921   2.194   1.813
84633SOL    HW255797  13.960   2.150   1.953
84634SOL     OW55798   1.909   6.613  12.815
84634SOL    HW155799   1.985   6.670  12.820
84634SOL    HW255800   1.916   6.556  12.892
84635SOL     OW55801  10.105   9.246  13.538
84635SOL    HW155802  10.018   9.207  13.541
84635SOL    HW255803  10.165   9.172  13.537
84636SOL     OW55804   8.029   9.854   7.326
84636SOL    HW155805   8.014   9.922   7.261
84636SOL    HW255806   7.944   9.842   7.368
84637SOL     OW55807  12.603   5.425   8.526
84637SOL    HW155808  12.565   5.417   8.614
84637SOL    HW255809  12.698   5.422   8.541
84638SOL     OW55810   9.318   8.446  10.148
84638SOL    HW155811   9.312   8.469  10.055
84638SOL    HW255812   9.259   8.371  10.157
84639SOL     OW55813  10.783   6.443   1.994
84639SOL    HW155814  10.717   6.389   2.038
84639SOL    HW255815  10.809   6.391   1.917
84640SOL     OW55816   9.255   5.583   8.835
84640SOL    HW155817   9.251   5.491   8.860
84640SOL    HW255818   9.266   5.630   8.918
84641SOL     OW55819   8.291  10.860   3.629
84641SOL    HW155820   8.298  10.894   3.540
84641SOL    HW255821   8.252  10.932   3.680
84642SOL     OW55822   1.433  14.033   1.211
84642SOL    HW155823   1.490  14.102   1.177
84642SOL    HW255824   1.418  14.057   1.302
84643SOL     OW55825  12.314   9.791   8.222
84643SOL    HW155826  12.286   9.844   8.147
84643SOL    HW255827  12.408   9.777   8.207
84644SOL     OW55828  14.823   0.157   0.444
84644SOL    HW155829   0.043   0.152   0.411
84644SOL    HW255830  14.789   0.068   0.431
84645SOL     OW55831  10.204   4.429   9.400
84645SOL    HW155832  10.109   4.437   9.390
84645SOL    HW255833  10.224   4.487   9.474
84646SOL     OW55834   8.941   0.938  10.914
84646SOL    HW155835   8.854   0.972  10.935
84646SOL    HW255836   8.999   0.977  10.979
84647SOL     OW55837   8.506  10.719  12.795
84647SOL    HW155838   8.494  10.672  12.878
84647SOL    HW255839   8.458  10.801  12.807
84648SOL     OW55840   5.083   5.907   4.944
84648SOL    HW155841   5.148   5.977   4.956
84648SOL    HW255842   5.082   5.861   5.028
84649SOL     OW55843   5.990   5.626   3.358
84649SOL    HW155844   5.978   5.580   3.440
84649SOL    HW255845   5.974   5.718   3.379
84650SOL     OW55846  12.003   7.002   4.260
84650SOL    HW155847  12.023   6.925   4.207
84650SOL    HW255848  12.084   7.019   4.309
84651SOL     OW55849  12.533   7.292   4.982
84651SOL    HW155850  12.626   7.313   4.992
84651SOL    HW255851  12.493   7.316   5.065
84652SOL     OW55852   1.618  10.634   2.748
84652SOL    HW155853   1.613  10.585   2.666
84652SOL    HW255854   1.569  10.582   2.811
84653SOL     OW55855   1.186  12.141   4.119
84653SOL    HW155856   1.214  12.208   4.181
84653SOL    HW255857   1.220  12.059   4.154
84654SOL     OW55858   8.297   6.008  10.770
84654SOL    HW155859   8.297   5.948  10.696
84654SOL    HW255860   8.218   6.061  10.758
84655SOL     OW55861   2.856   6.769  12.325
84655SOL    HW155862   2.911   6.822  12.383
84655SOL    HW255863   2.773   6.816  12.320
84656SOL     OW55864   7.707   2.686  14.309
84656SOL    HW155865   7.646   2.754  14.280
84656SOL    HW255866   7.759   2.665  14.232
84657SOL     OW55867  13.664  11.622   9.183
84657SOL    HW155868  13.689  11.702   9.137
84657SOL    HW255869  13.573  11.607   9.156
84658SOL     OW55870  10.493  14.514   1.090
84658SOL    HW155871  10.438  14.589   1.113
84658SOL    HW255872  10.430  14.443   1.073
84659SOL     OW55873   9.582   0.421   2.234
84659SOL    HW155874   9.614   0.425   2.324
84659SOL    HW255875   9.636   0.354   2.192
84660SOL     OW55876   0.208  14.385  11.656
84660SOL    HW155877   0.174  14.413  11.741
84660SOL    HW255878   0.222  14.466  11.607
84661SOL     OW55879   0.889   9.896  11.716
84661SOL    HW155880   0.795   9.878  11.724
84661SOL    HW255881   0.895   9.991  11.715
84662SOL     OW55882   8.600   7.091   3.723
84662SOL    HW155883   8.625   7.030   3.653
84662SOL    HW255884   8.513   7.122   3.696
84663SOL     OW55885  12.329   2.669   7.400
84663SOL    HW155886  12.405   2.611   7.406
84663SOL    HW255887  12.285   2.643   7.320
84664SOL     OW55888   1.234   3.550   9.621
84664SOL    HW155889   1.188   3.474   9.655
84664SOL    HW255890   1.177   3.584   9.552
84665SOL     OW55891  11.572  12.467   1.757
84665SOL    HW155892  11.595  12.486   1.848
84665SOL    HW255893  11.479  12.490   1.750
84666SOL     OW55894   6.801  10.425   9.481
84666SOL    HW155895   6.779  10.340   9.444
84666SOL    HW255896   6.737  10.485   9.444
84667SOL     OW55897  11.538  10.030   9.716
84667SOL    HW155898  11.544   9.997   9.806
84667SOL    HW255899  11.598   9.974   9.667
84668SOL     OW55900   3.060   8.888   3.184
84668SOL    HW155901   3.001   8.914   3.113
84668SOL    HW255902   3.097   8.970   3.215
84669SOL     OW55903  11.660   6.966   9.894
84669SOL    HW155904  11.667   7.058   9.872
84669SOL    HW255905  11.711   6.921   9.827
84670SOL     OW55906   6.692   6.330  11.995
84670SOL    HW155907   6.690   6.323  12.091
84670SOL    HW255908   6.682   6.424  11.978
84671SOL     OW55909   4.446  14.509   5.011
84671SOL    HW155910   4.354  14.537   5.013
84671SOL    HW255911   4.471  14.504   5.104
84672SOL     OW55912   6.627   3.267   9.870
84672SOL    HW155913   6.722   3.264   9.880
84672SOL    HW255914   6.594   3.197   9.927
84673SOL     OW55915   7.396   1.842  10.948
84673SOL    HW155916   7.345   1.870  10.873
84673SOL    HW255917   7.436   1.923  10.982
84674SOL     OW55918   8.975   2.740   1.707
84674SOL    HW155919   8.896   2.792   1.693
84674SOL    HW255920   9.028   2.792   1.767
84675SOL     OW55921   8.392   6.912   2.494
84675SOL    HW155922   8.339   6.900   2.416
84675SOL    HW255923   8.337   6.962   2.554
84676SOL     OW55924  11.023  11.465   7.557
84676SOL    HW155925  11.020  11.536   7.492
84676SOL    HW255926  10.940  11.474   7.605
84677SOL     OW55927   1.833  13.899   9.164
84677SOL    HW155928   1.924  13.876   9.184
84677SOL    HW255929   1.836  13.934   9.075
84678SOL     OW55930   2.470   8.011  14.213
84678SOL    HW155931   2.495   7.932  14.166
84678SOL    HW255932   2.537   8.020  14.282
84679SOL     OW55933  14.016   9.522  11.512
84679SOL    HW155934  14.064   9.541  11.432
84679SOL    HW255935  13.950   9.457  11.485
84680SOL     OW55936   9.379   5.864  10.867
84680SOL    HW155937   9.463   5.885  10.825
84680SOL    HW255938   9.314   5.881  10.799
84681SOL     OW55939   6.990   2.990   7.750
84681SOL    HW155940   7.035   3.071   7.772
84681SOL    HW255941   6.971   2.949   7.834
84682SOL     OW55942   7.392   0.430  10.251
84682SOL    HW155943   7.355   0.477  10.177
84682SOL    HW255944   7.430   0.351  10.212
84683SOL     OW55945   4.505   5.670   4.130
84683SOL    HW155946   4.479   5.741   4.071
84683SOL    HW255947   4.523   5.596   4.072
84684SOL     OW55948  12.888   6.982   4.268
84684SOL    HW155949  12.909   7.061   4.319
84684SOL    HW255950  12.892   6.911   4.332
84685SOL     OW55951   7.826   5.778   2.041
84685SOL    HW155952   7.746   5.758   2.088
84685SOL    HW255953   7.880   5.699   2.050
84686SOL     OW55954   0.368  13.002  10.749
84686SOL    HW155955   0.371  12.959  10.835
84686SOL    HW255956   0.443  12.965  10.702
84687SOL     OW55957   9.099   2.483   0.629
84687SOL    HW155958   9.060   2.543   0.692
84687SOL    HW255959   9.035   2.477   0.559
84688SOL     OW55960  14.508  14.688   3.479
84688SOL    HW155961  14.489  14.782   3.478
84688SOL    HW255962  14.463  14.654   3.401
84689SOL     OW55963   1.867  10.282   3.848
84689SOL    HW155964   1.910  10.343   3.789
84689SOL    HW255965   1.845  10.207   3.793
84690SOL     OW55966  13.886   1.557   9.356
84690SOL    HW155967  13.948   1.593   9.420
84690SOL    HW255968  13.926   1.575   9.271
84691SOL     OW55969  12.155   4.827  11.645
84691SOL    HW155970  12.161   4.736  11.674
84691SOL    HW255971  12.245   4.859  11.648
84692SOL     OW55972  10.016  11.194   0.368
84692SOL    HW155973  10.021  11.276   0.320
84692SOL    HW255974  10.060  11.212   0.451
84693SOL     OW55975   4.167  13.758   8.673
84693SOL    HW155976   4.120  13.814   8.735
84693SOL    HW255977   4.246  13.807   8.651
84694SOL     OW55978   9.871   9.667  11.731
84694SOL    HW155979   9.822   9.678  11.650
84694SOL    HW255980   9.948   9.616  11.705
84695SOL     OW55981   1.512  13.192   6.269
84695SOL    HW155982   1.456  13.265   6.243
84695SOL    HW255983   1.538  13.151   6.186
84696SOL     OW55984  14.085   6.049   8.914
84696SOL    HW155985  14.053   5.971   8.867
84696SOL    HW255986  14.005   6.091   8.947
84697SOL     OW55987   8.528  12.255  12.328
84697SOL    HW155988   8.436  12.260  12.304
84697SOL    HW255989   8.545  12.161  12.340
84698SOL     OW55990   4.050  14.288  12.182
84698SOL    HW155991   4.057  14.376  12.219
84698SOL    HW255992   3.956  14.273  12.174
84699SOL     OW55993  13.931  14.763   9.034
84699SOL    HW155994  13.841  14.750   9.064
84699SOL    HW255995  13.971  14.820   9.101
84700SOL     OW55996  10.840  14.542   4.040
84700SOL    HW155997  10.882  14.509   3.960
84700SOL    HW255998  10.912  14.567   4.097
84701SOL     OW55999  11.421   6.755  13.990
84701SOL    HW156000  11.342   6.761  14.044
84701SOL    HW256001  11.406   6.819  13.920
84702SOL     OW56002   8.580  13.387   9.121
84702SOL    HW156003   8.610  13.309   9.169
84702SOL    HW256004   8.535  13.440   9.187
84703SOL     OW56005  13.745   0.367   7.943
84703SOL    HW156006  13.712   0.433   7.881
84703SOL    HW256007  13.708   0.285   7.912
84704SOL     OW56008  13.455   3.154   1.498
84704SOL    HW156009  13.418   3.089   1.438
84704SOL    HW256010  13.493   3.221   1.441
84705SOL     OW56011   5.517  12.960   8.928
84705SOL    HW156012   5.531  13.050   8.959
84705SOL    HW256013   5.441  12.966   8.870
84706SOL     OW56014   2.434   6.214   7.828
84706SOL    HW156015   2.409   6.222   7.736
84706SOL    HW256016   2.399   6.129   7.855
84707SOL     OW56017   6.477  12.236   5.676
84707SOL    HW156018   6.457  12.182   5.600
84707SOL    HW256019   6.409  12.303   5.675
84708SOL     OW56020   3.553  12.596  11.929
84708SOL    HW156021   3.639  12.624  11.897
84708SOL    HW256022   3.503  12.678  11.936
84709SOL     OW56023  13.151  11.212   4.548
84709SOL    HW156024  13.145  11.119   4.570
84709SOL    HW256025  13.155  11.256   4.633
84710SOL     OW56026  13.749   7.438  12.057
84710SOL    HW156027  13.725   7.368  12.118
84710SOL    HW256028  13.831   7.408  12.018
84711SOL     OW56029   0.882  13.561   9.573
84711SOL    HW156030   0.907  13.603   9.655
84711SOL    HW256031   0.897  13.628   9.506
84712SOL     OW56032  10.496  13.309   3.659
84712SOL    HW156033  10.413  13.344   3.691
84712SOL    HW256034  10.562  13.346   3.718
84713SOL     OW56035   3.873   6.373   5.293
84713SOL    HW156036   3.895   6.435   5.223
84713SOL    HW256037   3.886   6.287   5.253
84714SOL     OW56038  11.369   0.891  10.462
84714SOL    HW156039  11.424   0.814  10.447
84714SOL    HW256040  11.431   0.965  10.459
84715SOL     OW56041   0.559   2.374   2.279
84715SOL    HW156042   0.513   2.313   2.337
84715SOL    HW256043   0.616   2.424   2.337
84716SOL     OW56044   0.156   0.996  12.107
84716SOL    HW156045   0.199   1.081  12.097
84716SOL    HW256046   0.190   0.944  12.034
84717SOL     OW56047  10.109   7.365  10.516
84717SOL    HW156048  10.109   7.269  10.515
84717SOL    HW256049  10.066   7.388  10.598
84718SOL     OW56050   5.629   1.292  10.260
84718SOL    HW156051   5.682   1.212  10.261
84718SOL    HW256052   5.625   1.318  10.168
84719SOL     OW56053  12.145  12.804   0.733
84719SOL    HW156054  12.174  12.874   0.674
84719SOL    HW256055  12.152  12.842   0.820
84720SOL     OW56056  10.418   5.465   4.179
84720SOL    HW156057  10.513   5.468   4.189
84720SOL    HW256058  10.386   5.542   4.225
84721SOL     OW56059  14.463   7.199  14.464
84721SOL    HW156060  14.517   7.137  14.512
84721SOL    HW256061  14.524   7.242  14.404
84722SOL     OW56062  14.150   5.429  12.025
84722SOL    HW156063  14.225   5.478  12.061
84722SOL    HW256064  14.099   5.495  11.978
84723SOL     OW56065   7.673  13.000   6.493
84723SOL    HW156066   7.744  13.038   6.442
84723SOL    HW256067   7.598  13.001   6.433
84724SOL     OW56068   0.964   0.414   8.901
84724SOL    HW156069   0.987   0.502   8.933
84724SOL    HW256070   1.024   0.398   8.829
84725SOL     OW56071   0.987  10.521   4.716
84725SOL    HW156072   1.077  10.502   4.745
84725SOL    HW256073   0.997  10.589   4.649
84726SOL     OW56074  12.090   2.731   5.488
84726SOL    HW156075  12.004   2.729   5.446
84726SOL    HW256076  12.080   2.677   5.566
84727SOL     OW56077   9.403  11.538   4.001
84727SOL    HW156078   9.399  11.634   4.002
84727SOL    HW256079   9.466  11.517   4.070
84728SOL     OW56080  14.830  14.866  13.869
84728SOL    HW156081   0.006  14.800  13.818
84728SOL    HW256082  14.752  14.821  13.903
84729SOL     OW56083  10.773   0.434  13.692
84729SOL    HW156084  10.749   0.453  13.601
84729SOL    HW256085  10.865   0.407  13.687
84730SOL     OW56086  10.820  11.368  14.350
84730SOL    HW156087  10.832  11.461  14.370
84730SOL    HW256088  10.889  11.347  14.288
84731SOL     OW56089   7.411  11.347   9.950
84731SOL    HW156090   7.337  11.299   9.913
84731SOL    HW256091   7.396  11.346  10.044
84732SOL     OW56092  13.903   5.424   7.265
84732SOL    HW156093  13.834   5.377   7.312
84732SOL    HW256094  13.888   5.516   7.287
84733SOL     OW56095   3.891   9.736   1.662
84733SOL    HW156096   3.958   9.799   1.635
84733SOL    HW256097   3.864   9.767   1.749
84734SOL     OW56098   4.713  14.102   1.201
84734SOL    HW156099   4.618  14.106   1.203
84734SOL    HW256100   4.742  14.174   1.258
84735SOL     OW56101  10.560   9.520   8.718
84735SOL    HW156102  10.588   9.429   8.723
84735SOL    HW256103  10.638   9.568   8.690
84736SOL     OW56104  13.808   8.866   8.359
84736SOL    HW156105  13.856   8.896   8.281
84736SOL    HW256106  13.849   8.913   8.431
84737SOL     OW56107   1.773   5.668   9.318
84737SOL    HW156108   1.703   5.658   9.383
84737SOL    HW256109   1.730   5.651   9.234
84738SOL     OW56110  12.160   5.342   9.614
84738SOL    HW156111  12.144   5.430   9.650
84738SOL    HW256112  12.144   5.283   9.688
84739SOL     OW56113  12.713   5.345  11.442
84739SOL    HW156114  12.790   5.346  11.386
84739SOL    HW256115  12.705   5.434  11.474
84740SOL     OW56116   7.258   0.296   9.344
84740SOL    HW156117   7.182   0.353   9.342
84740SOL    HW256118   7.222   0.208   9.335
84741SOL     OW56119  11.408   4.047  14.621
84741SOL    HW156120  11.364   4.090  14.694
84741SOL    HW256121  11.427   3.959  14.653
84742SOL     OW56122  11.486   3.351   9.356
84742SOL    HW156123  11.481   3.399   9.274
84742SOL    HW256124  11.414   3.386   9.409
84743SOL     OW56125  10.472  11.556  12.807
84743SOL    HW156126  10.433  11.599  12.883
84743SOL    HW256127  10.559  11.594  12.799
84744SOL     OW56128   4.151  14.333   1.864
84744SOL    HW156129   4.156  14.324   1.959
84744SOL    HW256130   4.227  14.386   1.841
84745SOL     OW56131   9.882  10.735  13.259
84745SOL    HW156132   9.789  10.740  13.282
84745SOL    HW256133   9.902  10.641  13.265
84746SOL     OW56134   0.726   3.022  12.919
84746SOL    HW156135   0.725   2.934  12.881
84746SOL    HW256136   0.722   3.081  12.843
84747SOL     OW56137   9.938   0.531  13.594
84747SOL    HW156138   9.887   0.535  13.513
84747SOL    HW256139   9.952   0.622  13.619
84748SOL     OW56140   0.726   4.107   3.786
84748SOL    HW156141   0.639   4.067   3.793
84748SOL    HW256142   0.763   4.071   3.706
84749SOL     OW56143   5.982   2.523   4.080
84749SOL    HW156144   5.972   2.485   3.993
84749SOL    HW256145   6.050   2.469   4.122
84750SOL     OW56146  10.223   2.313  13.239
84750SOL    HW156147  10.194   2.288  13.327
84750SOL    HW256148  10.314   2.283  13.235
84751SOL     OW56149  11.603   0.160  10.645
84751SOL    HW156150  11.520   0.113  10.640
84751SOL    HW256151  11.636   0.140  10.733
84752SOL     OW56152  10.902  14.412   6.851
84752SOL    HW156153  10.991  14.389   6.825
84752SOL    HW256154  10.911  14.491   6.904
84753SOL     OW56155  14.531   1.182   1.385
84753SOL    HW156156  14.585   1.121   1.436
84753SOL    HW256157  14.484   1.233   1.451
84754SOL     OW56158  13.893   0.498   6.293
84754SOL    HW156159  13.972   0.447   6.275
84754SOL    HW256160  13.910   0.583   6.254
84755SOL     OW56161   2.644  14.475  13.890
84755SOL    HW156162   2.620  14.397  13.941
84755SOL    HW256163   2.634  14.548  13.952
84756SOL     OW56164  14.649   8.335   4.769
84756SOL    HW156165  14.640   8.366   4.679
84756SOL    HW256166  14.654   8.414   4.822
84757SOL     OW56167   4.729   6.129   4.866
84757SOL    HW156168   4.769   6.082   4.793
84757SOL    HW256169   4.648   6.164   4.830
84758SOL     OW56170  13.815   3.149   5.569
84758SOL    HW156171  13.859   3.064   5.568
84758SOL    HW256172  13.762   3.147   5.649
84759SOL     OW56173  14.066  11.334  13.207
84759SOL    HW156174  14.050  11.334  13.112
84759SOL    HW256175  14.077  11.426  13.229
84760SOL     OW56176   8.536   9.262   8.894
84760SOL    HW156177   8.578   9.343   8.865
84760SOL    HW256178   8.475   9.240   8.824
84761SOL     OW56179   3.045   0.391   1.410
84761SOL    HW156180   3.067   0.379   1.317
84761SOL    HW256181   3.123   0.432   1.448
84762SOL     OW56182  10.926  11.097  13.541
84762SOL    HW156183  10.961  11.164  13.483
84762SOL    HW256184  10.831  11.109  13.539
84763SOL     OW56185   9.448   7.781   1.043
84763SOL    HW156186   9.457   7.744   1.131
84763SOL    HW256187   9.430   7.705   0.987
84764SOL     OW56188   2.286   8.120  12.906
84764SOL    HW156189   2.256   8.162  12.824
84764SOL    HW256190   2.268   8.186  12.973
84765SOL     OW56191   9.073   7.040  10.025
84765SOL    HW156192   9.035   7.128  10.027
84765SOL    HW256193   9.071   7.015   9.933
84766SOL     OW56194   2.225   6.267   0.155
84766SOL    HW156195   2.132   6.247   0.143
84766SOL    HW256196   2.240   6.344   0.099
84767SOL     OW56197   2.398   6.862  13.580
84767SOL    HW156198   2.468   6.855  13.644
84767SOL    HW256199   2.333   6.919  13.622
84768SOL     OW56200   2.320  13.353  11.765
84768SOL    HW156201   2.280  13.286  11.710
84768SOL    HW256202   2.247  13.411  11.789
84769SOL     OW56203  12.224   6.747  12.755
84769SOL    HW156204  12.305   6.736  12.705
84769SOL    HW256205  12.154   6.732  12.691
84770SOL     OW56206  11.275   4.016   0.331
84770SOL    HW156207  11.315   4.099   0.356
84770SOL    HW256208  11.334   3.949   0.367
84771SOL     OW56209   9.767   8.423  12.923
84771SOL    HW156210   9.847   8.403  12.875
84771SOL    HW256211   9.796   8.475  12.998
84772SOL     OW56212   7.503  13.752   4.788
84772SOL    HW156213   7.423  13.700   4.784
84772SOL    HW256214   7.521  13.760   4.882
84773SOL     OW56215   5.640   0.159   0.826
84773SOL    HW156216   5.569   0.222   0.812
84773SOL    HW256217   5.703   0.178   0.757
84774SOL     OW56218   7.095   4.970   6.474
84774SOL    HW156219   7.187   4.959   6.494
84774SOL    HW256220   7.062   5.029   6.542
84775SOL     OW56221  12.247   0.383  13.088
84775SOL    HW156222  12.284   0.389  13.176
84775SOL    HW256223  12.239   0.474  13.058
84776SOL     OW56224  11.803  11.777   3.808
84776SOL    HW156225  11.731  11.841   3.805
84776SOL    HW256226  11.779  11.717   3.878
84777SOL     OW56227   4.281  14.229   8.251
84777SOL    HW156228   4.368  14.229   8.212
84777SOL    HW256229   4.223  14.199   8.180
84778SOL     OW56230  11.657  13.560  10.713
84778SOL    HW156231  11.699  13.482  10.678
84778SOL    HW256232  11.661  13.624  10.641
84779SOL     OW56233   6.612   4.340   1.960
84779SOL    HW156234   6.690   4.386   1.930
84779SOL    HW256235   6.566   4.404   2.014
84780SOL     OW56236   8.830  14.618   5.906
84780SOL    HW156237   8.815  14.695   5.961
84780SOL    HW256238   8.830  14.653   5.817
84781SOL     OW56239   2.494   5.540   4.598
84781SOL    HW156240   2.573   5.582   4.631
84781SOL    HW256241   2.423   5.598   4.627
84782SOL     OW56242   7.906   0.919   1.623
84782SOL    HW156243   7.960   0.898   1.699
84782SOL    HW256244   7.950   0.876   1.550
84783SOL     OW56245   6.235   8.739   7.702
84783SOL    HW156246   6.310   8.702   7.657
84783SOL    HW256247   6.160   8.690   7.669
84784SOL     OW56248  14.750   5.181   8.952
84784SOL    HW156249  14.756   5.215   9.042
84784SOL    HW256250  14.739   5.259   8.898
84785SOL     OW56251  11.051   7.857   9.136
84785SOL    HW156252  11.129   7.912   9.143
84785SOL    HW256253  11.048   7.810   9.220
84786SOL     OW56254   9.726  12.653   7.443
84786SOL    HW156255   9.765  12.709   7.376
84786SOL    HW256256   9.794  12.589   7.463
84787SOL     OW56257   4.405   9.984   8.097
84787SOL    HW156258   4.456   9.949   8.024
84787SOL    HW256259   4.315   9.955   8.078
84788SOL     OW56260   6.858   1.463   9.600
84788SOL    HW156261   6.895   1.399   9.539
84788SOL    HW256262   6.807   1.411   9.662
84789SOL     OW56263   6.076   2.601   2.396
84789SOL    HW156264   6.160   2.561   2.373
84789SOL    HW256265   6.026   2.529   2.435
84790SOL     OW56266   0.212   5.090   7.010
84790SOL    HW156267   0.138   5.075   6.951
84790SOL    HW256268   0.171   5.099   7.097
84791SOL     OW56269   9.995  14.787  14.508
84791SOL    HW156270   9.987  14.865  14.454
84791SOL    HW256271  10.068  14.806  14.567
84792SOL     OW56272  11.607  10.495   7.207
84792SOL    HW156273  11.637  10.562   7.268
84792SOL    HW256274  11.515  10.517   7.189
84793SOL     OW56275   6.817  10.110  12.171
84793SOL    HW156276   6.814  10.069  12.085
84793SOL    HW256277   6.729  10.144  12.185
84794SOL     OW56278   0.619   1.809   0.746
84794SOL    HW156279   0.687   1.875   0.737
84794SOL    HW256280   0.657   1.742   0.803
84795SOL     OW56281  12.094   1.993  12.721
84795SOL    HW156282  12.114   2.064  12.660
84795SOL    HW256283  12.142   2.016  12.800
84796SOL     OW56284  10.934  11.004  12.037
84796SOL    HW156285  10.899  10.961  11.958
84796SOL    HW256286  11.004  11.060  12.004
84797SOL     OW56287   2.096   0.324  13.782
84797SOL    HW156288   2.013   0.319  13.830
84797SOL    HW256289   2.149   0.387  13.832
84798SOL     OW56290  13.026   7.275   9.523
84798SOL    HW156291  13.098   7.236   9.474
84798SOL    HW256292  13.024   7.366   9.494
84799SOL     OW56293   3.119  13.383   0.125
84799SOL    HW156294   3.194  13.341   0.082
84799SOL    HW256295   3.094  13.454   0.066
84800SOL     OW56296  12.482  12.213   3.553
84800SOL    HW156297  12.443  12.209   3.641
84800SOL    HW256298  12.439  12.288   3.511
84801SOL     OW56299   6.840  10.100  12.494
84801SOL    HW156300   6.866  10.101  12.402
84801SOL    HW256301   6.824  10.192  12.516
84802SOL     OW56302   0.718  11.980  10.327
84802SOL    HW156303   0.672  11.976  10.242
84802SOL    HW256304   0.653  12.016  10.387
84803SOL     OW56305  10.631   2.854   5.063
84803SOL    HW156306  10.601   2.789   4.999
84803SOL    HW256307  10.716   2.821   5.091
84804SOL     OW56308   5.285  14.217  14.257
84804SOL    HW156309   5.211  14.277  14.269
84804SOL    HW256310   5.310  14.226  14.165
84805SOL     OW56311   4.717   7.081   8.629
84805SOL    HW156312   4.800   7.113   8.664
84805SOL    HW256313   4.710   7.121   8.542
84806SOL     OW56314  10.933  14.029   1.330
84806SOL    HW156315  10.986  14.099   1.291
84806SOL    HW256316  10.956  13.950   1.281
84807SOL     OW56317  14.234   7.720   4.187
84807SOL    HW156318  14.177   7.704   4.112
84807SOL    HW256319  14.250   7.815   4.186
84808SOL     OW56320  13.960   0.297   0.118
84808SOL    HW156321  14.006   0.243   0.182
84808SOL    HW256322  13.872   0.308   0.154
84809SOL     OW56323   8.083  14.144   6.606
84809SOL    HW156324   8.034  14.175   6.530
84809SOL    HW256325   8.046  14.058   6.626
84810SOL     OW56326  12.221   3.151  10.592
84810SOL    HW156327  12.216   3.234  10.640
84810SOL    HW256328  12.277   3.170  10.517
84811SOL     OW56329   8.703   0.628  13.931
84811SOL    HW156330   8.798   0.627  13.942
84811SOL    HW256331   8.677   0.718  13.951
84812SOL     OW56332   5.723  14.375  12.164
84812SOL    HW156333   5.803  14.335  12.128
84812SOL    HW256334   5.721  14.463  12.127
84813SOL     OW56335   9.854  11.469   9.866
84813SOL    HW156336   9.787  11.472   9.934
84813SOL    HW256337   9.936  11.491   9.911
84814SOL     OW56338  11.362   9.425  14.546
84814SOL    HW156339  11.384   9.518  14.540
84814SOL    HW256340  11.342   9.411  14.639
84815SOL     OW56341  10.602  13.328  10.364
84815SOL    HW156342  10.541  13.333  10.291
84815SOL    HW256343  10.579  13.246  10.408
84816SOL     OW56344  13.097   2.285  10.367
84816SOL    HW156345  13.054   2.349  10.310
84816SOL    HW256346  13.108   2.332  10.450
84817SOL     OW56347   2.257   3.014   8.562
84817SOL    HW156348   2.205   3.017   8.643
84817SOL    HW256349   2.347   3.028   8.591
84818SOL     OW56350   7.893  12.747   1.375
84818SOL    HW156351   7.930  12.789   1.297
84818SOL    HW256352   7.851  12.819   1.423
84819SOL     OW56353  11.904   3.169   2.488
84819SOL    HW156354  11.989   3.203   2.515
84819SOL    HW256355  11.851   3.168   2.567
84820SOL     OW56356   9.893   5.425  13.436
84820SOL    HW156357   9.869   5.434  13.528
84820SOL    HW256358   9.896   5.330  13.421
84821SOL     OW56359   7.787   3.145   0.754
84821SOL    HW156360   7.813   3.184   0.671
84821SOL    HW256361   7.855   3.081   0.773
84822SOL     OW56362   4.424   6.444   6.492
84822SOL    HW156363   4.364   6.370   6.496
84822SOL    HW256364   4.487   6.428   6.563
84823SOL     OW56365   3.687  12.036   4.244
84823SOL    HW156366   3.656  11.949   4.218
84823SOL    HW256367   3.759  12.019   4.305
84824SOL     OW56368   6.033  10.163   7.257
84824SOL    HW156369   5.982  10.127   7.184
84824SOL    HW256370   6.092  10.091   7.282
84825SOL     OW56371  12.385  12.703   4.294
84825SOL    HW156372  12.302  12.733   4.331
84825SOL    HW256373  12.449  12.715   4.364
84826SOL     OW56374  14.376  11.684   3.475
84826SOL    HW156375  14.296  11.735   3.458
84826SOL    HW256376  14.441  11.721   3.416
84827SOL     OW56377   0.686  12.795   2.473
84827SOL    HW156378   0.750  12.755   2.533
84827SOL    HW256379   0.738  12.854   2.419
84828SOL     OW56380  11.462   5.767   1.457
84828SOL    HW156381  11.514   5.755   1.536
84828SOL    HW256382  11.371   5.759   1.486
84829SOL     OW56383   7.614   6.922   6.669
84829SOL    HW156384   7.556   6.977   6.615
84829SOL    HW256385   7.617   6.838   6.623
84830SOL     OW56386   7.851  12.383  12.661
84830SOL    HW156387   7.822  12.396  12.751
84830SOL    HW256388   7.797  12.443  12.609
84831SOL     OW56389   6.059  13.069   5.284
84831SOL    HW156390   5.978  13.045   5.239
84831SOL    HW256391   6.043  13.046   5.375
84832SOL     OW56392   0.481   2.993   1.623
84832SOL    HW156393   0.477   3.033   1.536
84832SOL    HW256394   0.492   2.900   1.607
84833SOL     OW56395   3.784  13.158  13.557
84833SOL    HW156396   3.747  13.079  13.596
84833SOL    HW256397   3.708  13.212  13.535
84834SOL     OW56398   9.402   6.624   4.702
84834SOL    HW156399   9.374   6.542   4.741
84834SOL    HW256400   9.327   6.683   4.712
84835SOL     OW56401   4.011   9.631   5.570
84835SOL    HW156402   4.037   9.544   5.540
84835SOL    HW256403   3.937   9.655   5.514
84836SOL     OW56404   6.436   3.682   2.413
84836SOL    HW156405   6.483   3.731   2.345
84836SOL    HW256406   6.449   3.735   2.492
84837SOL     OW56407   7.443   9.951  11.542
84837SOL    HW156408   7.525   9.919  11.505
84837SOL    HW256409   7.470  10.012  11.610
84838SOL     OW56410   1.148   3.283  13.411
84838SOL    HW156411   1.072   3.226  13.399
84838SOL    HW256412   1.193   3.282  13.327
84839SOL     OW56413  10.423  13.248   9.992
84839SOL    HW156414  10.436  13.261   9.898
84839SOL    HW256415  10.386  13.330  10.023
84840SOL     OW56416   5.332  11.366   6.401
84840SOL    HW156417   5.342  11.430   6.472
84840SOL    HW256418   5.259  11.311   6.429
84841SOL     OW56419   6.106   5.501   9.160
84841SOL    HW156420   6.150   5.541   9.236
84841SOL    HW256421   6.030   5.558   9.145
84842SOL     OW56422   0.759  10.402   1.810
84842SOL    HW156423   0.830  10.431   1.753
84842SOL    HW256424   0.736  10.479   1.861
84843SOL     OW56425   5.672   2.962  12.343
84843SOL    HW156426   5.615   2.908  12.399
84843SOL    HW256427   5.694   3.037  12.398
84844SOL     OW56428   5.200   3.784   5.474
84844SOL    HW156429   5.129   3.721   5.468
84844SOL    HW256430   5.185   3.844   5.401
84845SOL     OW56431   6.517   8.922   4.891
84845SOL    HW156432   6.534   8.917   4.797
84845SOL    HW256433   6.516   8.830   4.920
84846SOL     OW56434   2.941  11.265   6.058
84846SOL    HW156435   2.989  11.276   5.977
84846SOL    HW256436   2.919  11.172   6.061
84847SOL     OW56437   6.819  14.702   9.097
84847SOL    HW156438   6.739  14.683   9.048
84847SOL    HW256439   6.813  14.647   9.175
84848SOL     OW56440  10.704  11.738   7.400
84848SOL    HW156441  10.726  11.784   7.481
84848SOL    HW256442  10.787  11.700   7.371
84849SOL     OW56443   6.647   9.669   7.625
84849SOL    HW156444   6.686   9.657   7.539
84849SOL    HW256445   6.675   9.756   7.653
84850SOL     OW56446   4.081  13.694   0.120
84850SOL    HW156447   4.046  13.708   0.032
84850SOL    HW256448   4.132  13.614   0.113
84851SOL     OW56449   2.126   8.306   5.284
84851SOL    HW156450   2.092   8.298   5.373
84851SOL    HW256451   2.221   8.301   5.294
84852SOL     OW56452   7.638   2.025  13.884
84852SOL    HW156453   7.606   2.094  13.942
84852SOL    HW256454   7.581   1.950  13.903
84853SOL     OW56455  11.323  13.808   7.325
84853SOL    HW156456  11.299  13.717   7.343
84853SOL    HW256457  11.384  13.803   7.252
84854SOL     OW56458  12.345   4.255   9.544
84854SOL    HW156459  12.298   4.173   9.527
84854SOL    HW256460  12.300   4.293   9.619
84855SOL     OW56461   1.688  12.459  10.162
84855SOL    HW156462   1.607  12.411  10.178
84855SOL    HW256463   1.755  12.391  10.159
84856SOL     OW56464  13.054   1.268   9.742
84856SOL    HW156465  13.119   1.256   9.673
84856SOL    HW256466  13.069   1.357   9.775
84857SOL     OW56467   3.920   4.994   4.989
84857SOL    HW156468   3.832   5.031   4.991
84857SOL    HW256469   3.977   5.068   4.970
84858SOL     OW56470  13.753   4.735   4.298
84858SOL    HW156471  13.829   4.757   4.351
84858SOL    HW256472  13.772   4.774   4.212
84859SOL     OW56473   1.892   2.285  14.268
84859SOL    HW156474   1.858   2.205  14.229
84859SOL    HW256475   1.942   2.328  14.198
84860SOL     OW56476   2.587  13.998  11.055
84860SOL    HW156477   2.547  14.019  11.139
84860SOL    HW256478   2.677  14.031  11.062
84861SOL     OW56479   1.662   3.038   9.088
84861SOL    HW156480   1.739   3.091   9.110
84861SOL    HW256481   1.597   3.103   9.060
84862SOL     OW56482   1.749   7.196  11.700
84862SOL    HW156483   1.718   7.108  11.724
84862SOL    HW256484   1.827   7.180  11.647
84863SOL     OW56485   1.496   1.549   1.594
84863SOL    HW156486   1.500   1.641   1.569
84863SOL    HW256487   1.581   1.514   1.567
84864SOL     OW56488  10.948  10.229  12.727
84864SOL    HW156489  10.866  10.193  12.760
84864SOL    HW256490  10.923  10.316  12.694
84865SOL     OW56491  10.118  10.700   2.072
84865SOL    HW156492  10.075  10.764   2.128
84865SOL    HW256493  10.088  10.721   1.983
84866SOL     OW56494  14.022   0.456   5.905
84866SOL    HW156495  14.089   0.525   5.911
84866SOL    HW256496  13.983   0.470   5.819
84867SOL     OW56497  10.830  12.342   4.289
84867SOL    HW156498  10.893  12.276   4.318
84867SOL    HW256499  10.745  12.300   4.296
84868SOL     OW56500  11.504  10.227   3.531
84868SOL    HW156501  11.575  10.274   3.574
84868SOL    HW256502  11.548  10.165   3.472
84869SOL     OW56503  13.367   4.019   1.121
84869SOL    HW156504  13.432   3.988   1.057
84869SOL    HW256505  13.286   4.028   1.070
84870SOL     OW56506   6.215   1.761   7.594
84870SOL    HW156507   6.274   1.811   7.537
84870SOL    HW256508   6.138   1.818   7.604
84871SOL     OW56509  11.747   9.780   5.730
84871SOL    HW156510  11.777   9.794   5.820
84871SOL    HW256511  11.691   9.703   5.734
84872SOL     OW56512   9.005  11.577   5.282
84872SOL    HW156513   8.941  11.541   5.221
84872SOL    HW256514   8.967  11.563   5.368
84873SOL     OW56515   5.944   3.726   1.152
84873SOL    HW156516   6.027   3.680   1.149
84873SOL    HW256517   5.913   3.727   1.062
84874SOL     OW56518   8.669   4.656   2.540
84874SOL    HW156519   8.744   4.654   2.600
84874SOL    HW256520   8.607   4.594   2.578
84875SOL     OW56521   8.056   3.773   7.074
84875SOL    HW156522   8.015   3.786   6.988
84875SOL    HW256523   8.105   3.691   7.064
84876SOL     OW56524  11.094  13.847   1.196
84876SOL    HW156525  11.172  13.853   1.141
84876SOL    HW256526  11.044  13.774   1.160
84877SOL     OW56527  13.117   4.945  11.844
84877SOL    HW156528  13.181   5.006  11.808
84877SOL    HW256529  13.033   4.988  11.832
84878SOL     OW56530   0.756   5.356   5.504
84878SOL    HW156531   0.663   5.337   5.498
84878SOL    HW256532   0.798   5.270   5.499
84879SOL     OW56533  13.020  12.881  10.187
84879SOL    HW156534  13.020  12.921  10.100
84879SOL    HW256535  13.058  12.794  10.174
84880SOL     OW56536   1.666   9.210   7.545
84880SOL    HW156537   1.692   9.119   7.535
84880SOL    HW256538   1.610   9.210   7.623
84881SOL     OW56539  12.233  13.826   2.554
84881SOL    HW156540  12.212  13.766   2.482
84881SOL    HW256541  12.172  13.801   2.624
84882SOL     OW56542  10.240   1.851   2.637
84882SOL    HW156543  10.146   1.865   2.625
84882SOL    HW256544  10.250   1.756   2.640
84883SOL     OW56545  10.081   5.427   0.758
84883SOL    HW156546  10.102   5.383   0.841
84883SOL    HW256547   9.986   5.422   0.752
84884SOL     OW56548   9.529   3.316   7.408
84884SOL    HW156549   9.552   3.363   7.328
84884SOL    HW256550   9.481   3.380   7.460
84885SOL     OW56551  12.876   6.548   0.731
84885SOL    HW156552  12.863   6.463   0.689
84885SOL    HW256553  12.797   6.562   0.783
84886SOL     OW56554   4.218   7.508   8.028
84886SOL    HW156555   4.127   7.480   8.034
84886SOL    HW256556   4.245   7.482   7.940
84887SOL     OW56557   2.923  10.793   5.496
84887SOL    HW156558   2.877  10.875   5.478
84887SOL    HW256559   2.878  10.757   5.573
84888SOL     OW56560   8.951  10.032  10.829
84888SOL    HW156561   9.018  10.018  10.896
84888SOL    HW256562   8.926  10.124  10.839
84889SOL     OW56563   5.842  11.844   1.566
84889SOL    HW156564   5.798  11.908   1.510
84889SOL    HW256565   5.841  11.763   1.516
84890SOL     OW56566   1.677   7.873  13.383
84890SOL    HW156567   1.692   7.846  13.293
84890SOL    HW256568   1.658   7.791  13.429
84891SOL     OW56569   4.483  14.622  12.057
84891SOL    HW156570   4.469  14.534  12.021
84891SOL    HW256571   4.437  14.680  11.997
84892SOL     OW56572   1.031   7.362   6.870
84892SOL    HW156573   1.090   7.306   6.819
84892SOL    HW256574   1.090   7.424   6.914
84893SOL     OW56575   6.919   0.847   9.521
84893SOL    HW156576   6.828   0.832   9.495
84893SOL    HW256577   6.925   0.942   9.533
84894SOL     OW56578  11.296   0.719   1.039
84894SOL    HW156579  11.309   0.706   1.133
84894SOL    HW256580  11.252   0.803   1.033
84895SOL     OW56581  11.405  14.469   0.138
84895SOL    HW156582  11.420  14.555   0.099
84895SOL    HW256583  11.309  14.464   0.147
84896SOL     OW56584   6.556   1.846  13.369
84896SOL    HW156585   6.547   1.828  13.275
84896SOL    HW256586   6.494   1.787  13.411
84897SOL     OW56587   7.313   5.235  11.828
84897SOL    HW156588   7.293   5.314  11.879
84897SOL    HW256589   7.289   5.259  11.738
84898SOL     OW56590  12.416   5.730   6.347
84898SOL    HW156591  12.378   5.686   6.271
84898SOL    HW256592  12.340   5.769   6.392
84899SOL     OW56593  12.656   2.643   1.914
84899SOL    HW156594  12.643   2.735   1.889
84899SOL    HW256595  12.742   2.621   1.878
84900SOL     OW56596   6.003   9.530  13.207
84900SOL    HW156597   6.072   9.510  13.269
84900SOL    HW256598   6.018   9.470  13.133
84901SOL     OW56599   9.305  11.141   5.290
84901SOL    HW156600   9.267  11.131   5.203
84901SOL    HW256601   9.282  11.229   5.317
84902SOL     OW56602   7.305   7.350   5.920
84902SOL    HW156603   7.344   7.438   5.922
84902SOL    HW256604   7.219   7.363   5.881
84903SOL     OW56605   9.519   2.257   0.627
84903SOL    HW156606   9.579   2.217   0.564
84903SOL    HW256607   9.575   2.315   0.680
84904SOL     OW56608   9.832   7.829  14.583
84904SOL    HW156609   9.776   7.903  14.607
84904SOL    HW256610   9.915   7.869  14.557
84905SOL     OW56611  10.834   5.818  13.894
84905SOL    HW156612  10.756   5.873  13.894
84905SOL    HW256613  10.907   5.879  13.898
84906SOL     OW56614   2.865  10.042   0.108
84906SOL    HW156615   2.955  10.019   0.085
84906SOL    HW256616   2.868  10.060   0.202
84907SOL     OW56617  13.320   3.477   5.243
84907SOL    HW156618  13.327   3.510   5.153
84907SOL    HW256619  13.231   3.498   5.270
84908SOL     OW56620  14.703   5.509  11.852
84908SOL    HW156621  14.616   5.532  11.820
84908SOL    HW256622  14.733   5.441  11.791
84909SOL     OW56623   2.417   1.139   6.005
84909SOL    HW156624   2.382   1.077   5.941
84909SOL    HW256625   2.443   1.085   6.079
84910SOL     OW56626  11.592  14.813   4.416
84910SOL    HW156627  11.541  14.737   4.390
84910SOL    HW256628  11.541   0.018   4.385
84911SOL     OW56629   7.752  11.415  11.223
84911SOL    HW156630   7.694  11.411  11.147
84911SOL    HW256631   7.839  11.428  11.186
84912SOL     OW56632  10.700   0.226   7.126
84912SOL    HW156633  10.611   0.262   7.121
84912SOL    HW256634  10.720   0.227   7.220
84913SOL     OW56635   3.135   3.591   0.165
84913SOL    HW156636   3.060   3.634   0.124
84913SOL    HW256637   3.154   3.516   0.109
84914SOL     OW56638   6.962   0.349   6.353
84914SOL    HW156639   6.992   0.440   6.349
84914SOL    HW256640   6.916   0.343   6.437
84915SOL     OW56641   4.558  14.828   0.318
84915SOL    HW156642   4.653  14.837   0.317
84915SOL    HW256643   4.533  14.848   0.408
84916SOL     OW56644   4.820   6.875  10.224
84916SOL    HW156645   4.810   6.957  10.174
84916SOL    HW256646   4.851   6.812  10.159
84917SOL     OW56647   1.412  11.583  14.634
84917SOL    HW156648   1.396  11.536  14.716
84917SOL    HW256649   1.377  11.670  14.649
84918SOL     OW56650  11.637   9.361   0.636
84918SOL    HW156651  11.543   9.381   0.633
84918SOL    HW256652  11.678   9.445   0.656
84919SOL     OW56653   1.149   9.386  12.761
84919SOL    HW156654   1.206   9.452  12.722
84919SOL    HW256655   1.209   9.323  12.800
84920SOL     OW56656   2.228  12.059   3.176
84920SOL    HW156657   2.295  12.083   3.113
84920SOL    HW256658   2.264  11.985   3.224
84921SOL     OW56659   1.400   0.581  14.864
84921SOL    HW156660   1.464   0.511  14.854
84921SOL    HW256661   1.326   0.540   0.039
84922SOL     OW56662  13.830   2.629   4.818
84922SOL    HW156663  13.871   2.616   4.904
84922SOL    HW256664  13.739   2.601   4.831
84923SOL     OW56665   4.831   8.716   7.124
84923SOL    HW156666   4.874   8.784   7.071
84923SOL    HW256667   4.770   8.674   7.064
84924SOL     OW56668   7.985   8.444   7.841
84924SOL    HW156669   7.915   8.407   7.788
84924SOL    HW256670   8.000   8.531   7.803
84925SOL     OW56671   2.935   5.670   0.813
84925SOL    HW156672   2.852   5.703   0.778
84925SOL    HW256673   2.933   5.694   0.905
84926SOL     OW56674   2.483  12.532   9.365
84926SOL    HW156675   2.446  12.592   9.301
84926SOL    HW256676   2.429  12.545   9.443
84927SOL     OW56677  10.812  14.442  12.978
84927SOL    HW156678  10.747  14.489  12.927
84927SOL    HW256679  10.763  14.399  13.048
84928SOL     OW56680   4.878   4.379  14.128
84928SOL    HW156681   4.964   4.362  14.165
84928SOL    HW256682   4.896   4.403  14.037
84929SOL     OW56683   4.093   7.766  13.933
84929SOL    HW156684   4.178   7.728  13.908
84929SOL    HW256685   4.091   7.850  13.888
84930SOL     OW56686   6.620   2.093   8.635
84930SOL    HW156687   6.680   2.052   8.573
84930SOL    HW256688   6.637   2.187   8.625
84931SOL     OW56689   4.468   9.606   4.059
84931SOL    HW156690   4.547   9.557   4.084
84931SOL    HW256691   4.397   9.558   4.102
84932SOL     OW56692  10.765   3.911   5.611
84932SOL    HW156693  10.769   3.886   5.519
84932SOL    HW256694  10.851   3.888   5.646
84933SOL     OW56695   9.793   5.441   1.770
84933SOL    HW156696   9.773   5.400   1.854
84933SOL    HW256697   9.855   5.511   1.792
84934SOL     OW56698   8.089  13.572   1.777
84934SOL    HW156699   8.179  13.548   1.796
84934SOL    HW256700   8.049  13.588   1.863
84935SOL     OW56701   3.361   5.337  11.764
84935SOL    HW156702   3.339   5.423  11.727
84935SOL    HW256703   3.456   5.340  11.777
84936SOL     OW56704   9.419  11.866   5.871
84936SOL    HW156705   9.380  11.909   5.795
84936SOL    HW256706   9.343  11.833   5.920
84937SOL     OW56707   8.918   6.104  11.572
84937SOL    HW156708   8.870   6.164  11.516
84937SOL    HW256709   8.850   6.056  11.620
84938SOL     OW56710  11.349  14.106  12.664
84938SOL    HW156711  11.290  14.102  12.739
84938SOL    HW256712  11.341  14.020  12.622
84939SOL     OW56713   3.601  14.358   3.291
84939SOL    HW156714   3.569  14.415   3.361
84939SOL    HW256715   3.533  14.292   3.281
84940SOL     OW56716  13.875  11.363   7.282
84940SOL    HW156717  13.969  11.374   7.264
84940SOL    HW256718  13.850  11.444   7.328
84941SOL     OW56719   4.186   4.189  10.289
84941SOL    HW156720   4.142   4.271  10.270
84941SOL    HW256721   4.243   4.208  10.364
84942SOL     OW56722   5.317   8.839  13.228
84942SOL    HW156723   5.388   8.899  13.249
84942SOL    HW256724   5.284   8.871  13.143
84943SOL     OW56725  13.866  10.418   3.776
84943SOL    HW156726  13.780  10.416   3.820
84943SOL    HW256727  13.926  10.382   3.841
84944SOL     OW56728   3.146   9.210   0.729
84944SOL    HW156729   3.061   9.169   0.715
84944SOL    HW256730   3.126   9.301   0.752
84945SOL     OW56731  13.605   0.110   1.749
84945SOL    HW156732  13.536   0.048   1.725
84945SOL    HW256733  13.578   0.192   1.708
84946SOL     OW56734  11.396   3.308   3.288
84946SOL    HW156735  11.348   3.370   3.233
84946SOL    HW256736  11.433   3.363   3.357
84947SOL     OW56737   9.270   7.322  13.052
84947SOL    HW156738   9.322   7.361  12.982
84947SOL    HW256739   9.210   7.262  13.007
84948SOL     OW56740   2.941  11.258   7.503
84948SOL    HW156741   3.001  11.184   7.503
84948SOL    HW256742   2.998  11.335   7.498
84949SOL     OW56743   8.411  10.252   7.438
84949SOL    HW156744   8.342  10.194   7.405
84949SOL    HW256745   8.484  10.193   7.458
84950SOL     OW56746   2.597  13.280   2.640
84950SOL    HW156747   2.587  13.196   2.594
84950SOL    HW256748   2.637  13.256   2.724
84951SOL     OW56749   8.304   0.169   3.121
84951SOL    HW156750   8.213   0.178   3.092
84951SOL    HW256751   8.307   0.218   3.204
84952SOL     OW56752   1.127  11.151   7.476
84952SOL    HW156753   1.192  11.081   7.480
84952SOL    HW256754   1.086  11.151   7.562
84953SOL     OW56755  14.169  14.738   7.774
84953SOL    HW156756  14.243  14.790   7.805
84953SOL    HW256757  14.096  14.799   7.773
84954SOL     OW56758   8.340  11.591  10.807
84954SOL    HW156759   8.387  11.655  10.860
84954SOL    HW256760   8.408  11.536  10.769
84955SOL     OW56761   8.254  11.252  14.785
84955SOL    HW156762   8.194  11.180  14.766
84955SOL    HW256763   8.318  11.214  14.846
84956SOL     OW56764   3.043   1.189   8.065
84956SOL    HW156765   3.023   1.122   8.130
84956SOL    HW256766   3.111   1.243   8.106
84957SOL     OW56767   0.173   3.619  12.502
84957SOL    HW156768   0.149   3.541  12.453
84957SOL    HW256769   0.164   3.691  12.439
84958SOL     OW56770   2.237   4.481  11.221
84958SOL    HW156771   2.331   4.485  11.238
84958SOL    HW256772   2.223   4.543  11.149
84959SOL     OW56773  14.448  13.708   3.045
84959SOL    HW156774  14.437  13.614   3.038
84959SOL    HW256775  14.367  13.745   3.009
84960SOL     OW56776   1.174   1.321  14.335
84960SOL    HW156777   1.099   1.367  14.298
84960SOL    HW256778   1.225   1.390  14.378
84961SOL     OW56779  12.978   0.832  10.799
84961SOL    HW156780  12.922   0.824  10.723
84961SOL    HW256781  12.998   0.926  10.805
84962SOL     OW56782   2.024   7.024   4.352
84962SOL    HW156783   2.101   7.050   4.301
84962SOL    HW256784   1.954   7.081   4.321
84963SOL     OW56785   3.858   0.682  13.029
84963SOL    HW156786   3.886   0.684  13.121
84963SOL    HW256787   3.769   0.718  13.031
84964SOL     OW56788  10.895   6.939   9.090
84964SOL    HW156789  10.949   6.973   9.019
84964SOL    HW256790  10.833   6.880   9.046
84965SOL     OW56791   0.643   0.599   8.728
84965SOL    HW156792   0.601   0.674   8.770
84965SOL    HW256793   0.634   0.528   8.791
84966SOL     OW56794   6.458  12.734   0.068
84966SOL    HW156795   6.387  12.755   0.008
84966SOL    HW256796   6.537  12.768   0.024
84967SOL     OW56797   1.690   9.456   5.713
84967SOL    HW156798   1.723   9.512   5.783
84967SOL    HW256799   1.677   9.371   5.756
84968SOL     OW56800   7.234  13.636   8.342
84968SOL    HW156801   7.186  13.719   8.346
84968SOL    HW256802   7.266  13.632   8.252
84969SOL     OW56803  10.651   8.080   8.752
84969SOL    HW156804  10.668   8.160   8.702
84969SOL    HW256805  10.555   8.074   8.755
84970SOL     OW56806   0.921  12.711  11.242
84970SOL    HW156807   0.879  12.796  11.231
84970SOL    HW256808   0.971  12.698  11.162
84971SOL     OW56809   7.445   9.285  13.487
84971SOL    HW156810   7.470   9.289  13.394
84971SOL    HW256811   7.430   9.191  13.503
84972SOL     OW56812  11.281   3.173  10.967
84972SOL    HW156813  11.217   3.102  10.970
84972SOL    HW256814  11.279   3.211  11.055
84973SOL     OW56815  10.629  10.061   4.362
84973SOL    HW156816  10.595   9.978   4.394
84973SOL    HW256817  10.722  10.044   4.347
84974SOL     OW56818  12.577   0.474   8.777
84974SOL    HW156819  12.643   0.409   8.756
84974SOL    HW256820  12.535   0.493   8.693
84975SOL     OW56821  14.658  12.439   3.902
84975SOL    HW156822  14.750  12.434   3.930
84975SOL    HW256823  14.660  12.418   3.809
84976SOL     OW56824  12.495   0.121   4.933
84976SOL    HW156825  12.539   0.062   4.872
84976SOL    HW256826  12.410   0.138   4.894
84977SOL     OW56827   9.373   6.726   3.826
84977SOL    HW156828   9.314   6.799   3.808
84977SOL    HW256829   9.436   6.728   3.755
84978SOL     OW56830  12.662   2.382  13.715
84978SOL    HW156831  12.625   2.337  13.791
84978SOL    HW256832  12.658   2.317  13.645
84979SOL     OW56833   4.365   0.649   3.713
84979SOL    HW156834   4.315   0.719   3.672
84979SOL    HW256835   4.301   0.602   3.767
84980SOL     OW56836   5.938   3.348  13.704
84980SOL    HW156837   5.930   3.432  13.660
84980SOL    HW256838   5.877   3.291  13.658
84981SOL     OW56839  14.085  13.229  13.252
84981SOL    HW156840  14.025  13.193  13.187
84981SOL    HW256841  14.028  13.268  13.319
84982SOL     OW56842  14.728  11.343  13.653
84982SOL    HW156843  14.775  11.314  13.575
84982SOL    HW256844  14.639  11.360  13.621
84983SOL     OW56845   5.657  10.681   4.452
84983SOL    HW156846   5.742  10.722   4.440
84983SOL    HW256847   5.673  10.588   4.440
84984SOL     OW56848   2.525   9.178   0.226
84984SOL    HW156849   2.524   9.125   0.147
84984SOL    HW256850   2.433   9.187   0.251
84985SOL     OW56851  14.582   1.129  12.768
84985SOL    HW156852  14.638   1.206  12.759
84985SOL    HW256853  14.581   1.089  12.681
84986SOL     OW56854   1.670  10.567  13.943
84986SOL    HW156855   1.594  10.624  13.941
84986SOL    HW256856   1.704  10.574  14.032
84987SOL     OW56857  14.115   7.069   7.833
84987SOL    HW156858  14.089   6.999   7.774
84987SOL    HW256859  14.209   7.058   7.843
84988SOL     OW56860   5.752   2.837   0.379
84988SOL    HW156861   5.807   2.903   0.421
84988SOL    HW256862   5.813   2.767   0.354
84989SOL     OW56863  13.354   5.205  14.250
84989SOL    HW156864  13.422   5.184  14.313
84989SOL    HW256865  13.304   5.277  14.291
84990SOL     OW56866  14.217   0.667   9.281
84990SOL    HW156867  14.211   0.574   9.261
84990SOL    HW256868  14.231   0.710   9.197
84991SOL     OW56869  10.406   3.865   3.174
84991SOL    HW156870  10.398   3.957   3.199
84991SOL    HW256871  10.414   3.866   3.079
84992SOL     OW56872  14.335   9.539   0.928
84992SOL    HW156873  14.418   9.574   0.897
84992SOL    HW256874  14.303   9.605   0.990
84993SOL     OW56875  13.329   7.835   2.161
84993SOL    HW156876  13.301   7.763   2.106
84993SOL    HW256877  13.248   7.875   2.192
84994SOL     OW56878   1.078   7.660  10.780
84994SOL    HW156879   1.053   7.598  10.711
84994SOL    HW256880   1.095   7.605  10.857
84995SOL     OW56881  14.767  13.407   4.150
84995SOL    HW156882  14.725  13.337   4.200
84995SOL    HW256883  14.797  13.365   4.069
84996SOL     OW56884   3.571  10.840  12.811
84996SOL    HW156885   3.639  10.778  12.837
84996SOL    HW256886   3.496  10.786  12.790
84997SOL     OW56887   3.859   1.984   7.858
84997SOL    HW156888   3.809   1.992   7.939
84997SOL    HW256889   3.949   2.002   7.884
84998SOL     OW56890   6.161   4.519  10.453
84998SOL    HW156891   6.242   4.471  10.436
84998SOL    HW256892   6.123   4.475  10.529
84999SOL     OW56893   6.016  10.281  11.384
84999SOL    HW156894   6.067  10.200  11.392
84999SOL    HW256895   6.045  10.334  11.459
85000SOL     OW56896   1.929   7.626   8.729
85000SOL    HW156897   1.864   7.634   8.799
85000SOL    HW256898   1.985   7.703   8.740
85001SOL     OW56899  12.941   3.180   0.030
85001SOL    HW156900  13.025   3.214  14.868
85001SOL    HW256901  12.879   3.252   0.017
85002SOL     OW56902  11.307  12.249  14.659
85002SOL    HW156903  11.258  12.189  14.603
85002SOL    HW256904  11.247  12.267  14.732
85003SOL     OW56905   1.428   9.678  10.823
85003SOL    HW156906   1.468   9.756  10.785
85003SOL    HW256907   1.378   9.711  10.898
85004SOL     OW56908  12.863  12.477   8.477
85004SOL    HW156909  12.825  12.447   8.395
85004SOL    HW256910  12.789  12.506   8.529
85005SOL     OW56911   6.355   0.770  13.673
85005SOL    HW156912   6.446   0.749  13.650
85005SOL    HW256913   6.313   0.790  13.589
85006SOL     OW56914   5.668   7.107   3.287
85006SOL    HW156915   5.674   7.032   3.229
85006SOL    HW256916   5.584   7.095   3.333
85007SOL     OW56917  13.523   3.201   9.385
85007SOL    HW156918  13.460   3.135   9.356
85007SOL    HW256919  13.561   3.235   9.304
85008SOL     OW56920   1.625  12.699   3.879
85008SOL    HW156921   1.660  12.666   3.797
85008SOL    HW256922   1.658  12.789   3.885
85009SOL     OW56923  13.669  11.787   1.357
85009SOL    HW156924  13.631  11.699   1.362
85009SOL    HW256925  13.751  11.776   1.309
85010SOL     OW56926  11.544   1.087  10.429
85010SOL    HW156927  11.517   1.097  10.338
85010SOL    HW256928  11.590   1.169  10.448
85011SOL     OW56929  12.400  12.154   1.073
85011SOL    HW156930  12.326  12.112   1.117
85011SOL    HW256931  12.437  12.087   1.016
85012SOL     OW56932   8.449   5.391  14.702
85012SOL    HW156933   8.503   5.419  14.776
85012SOL    HW256934   8.484   5.306  14.677
85013SOL     OW56935   4.637   6.323   1.063
85013SOL    HW156936   4.706   6.336   1.128
85013SOL    HW256937   4.574   6.265   1.106
85014SOL     OW56938   6.030  11.019   0.009
85014SOL    HW156939   6.103  11.020   0.072
85014SOL    HW256940   5.952  11.019   0.064
85015SOL     OW56941   6.014  13.156   2.457
85015SOL    HW156942   5.999  13.106   2.538
85015SOL    HW256943   5.993  13.246   2.480
85016SOL     OW56944   9.619   2.243   8.302
85016SOL    HW156945   9.600   2.254   8.395
85016SOL    HW256946   9.669   2.321   8.279
85017SOL     OW56947   8.338   6.279  14.560
85017SOL    HW156948   8.433   6.271  14.556
85017SOL    HW256949   8.323   6.371  14.583
85018SOL     OW56950   8.595   6.805  13.424
85018SOL    HW156951   8.594   6.709  13.425
85018SOL    HW256952   8.552   6.830  13.505
85019SOL     OW56953  10.884   7.352   2.708
85019SOL    HW156954  10.883   7.319   2.619
85019SOL    HW256955  10.792   7.348   2.736
85020SOL     OW56956   3.938   4.992   5.748
85020SOL    HW156957   3.872   5.025   5.808
85020SOL    HW256958   3.889   4.971   5.668
85021SOL     OW56959   9.697   2.510   8.980
85021SOL    HW156960   9.740   2.437   9.025
85021SOL    HW256961   9.657   2.471   8.903
85022SOL     OW56962   0.409   2.140  14.018
85022SOL    HW156963   0.478   2.113  14.078
85022SOL    HW256964   0.360   2.060  14.000
85023SOL     OW56965   2.393  14.098   6.873
85023SOL    HW156966   2.325  14.098   6.806
85023SOL    HW256967   2.346  14.115   6.955
85024SOL     OW56968  13.638   0.839   0.384
85024SOL    HW156969  13.603   0.910   0.438
85024SOL    HW256970  13.574   0.829   0.313
85025SOL     OW56971  14.406   6.275  13.193
85025SOL    HW156972  14.380   6.185  13.208
85025SOL    HW256973  14.453   6.300  13.272
85026SOL     OW56974   6.239   4.289  13.300
85026SOL    HW156975   6.166   4.229  13.316
85026SOL    HW256976   6.312   4.252  13.350
85027SOL     OW56977   3.809   7.748   0.596
85027SOL    HW156978   3.780   7.832   0.631
85027SOL    HW256979   3.800   7.756   0.502
85028SOL     OW56980   8.285   9.305   2.995
85028SOL    HW156981   8.334   9.237   3.041
85028SOL    HW256982   8.305   9.291   2.902
85029SOL     OW56983   9.005  11.384   5.718
85029SOL    HW156984   8.985  11.441   5.792
85029SOL    HW256985   8.967  11.429   5.642
85030SOL     OW56986   8.567  11.906   9.719
85030SOL    HW156987   8.473  11.925   9.724
85030SOL    HW256988   8.581  11.835   9.781
85031SOL     OW56989  11.497  14.579   3.662
85031SOL    HW156990  11.510  14.673   3.675
85031SOL    HW256991  11.517  14.564   3.570
85032SOL     OW56992   6.066   5.818  10.970
85032SOL    HW156993   6.120   5.896  10.983
85032SOL    HW256994   6.000   5.845  10.906
85033SOL     OW56995   2.636   7.867   5.104
85033SOL    HW156996   2.731   7.872   5.099
85033SOL    HW256997   2.606   7.898   5.018
85034SOL     OW56998   2.277   6.414   2.997
85034SOL    HW156999   2.352   6.438   2.943
85034SOL    HW257000   2.316   6.374   3.075
85035SOL     OW57001  14.652   3.948   7.020
85035SOL    HW157002  14.681   3.904   6.940
85035SOL    HW257003  14.613   4.030   6.989
85036SOL     OW57004  14.753  11.817   0.533
85036SOL    HW157005  14.812  11.885   0.501
85036SOL    HW257006  14.750  11.752   0.462
85037SOL     OW57007   4.864  14.313   1.385
85037SOL    HW157008   4.811  14.332   1.462
85037SOL    HW257009   4.882  14.399   1.347
85038SOL     OW57010   2.844   9.350  14.179
85038SOL    HW157011   2.818   9.437  14.207
85038SOL    HW257012   2.817   9.292  14.250
85039SOL     OW57013   8.117   2.026   3.413
85039SOL    HW157014   8.030   2.056   3.385
85039SOL    HW257015   8.136   1.953   3.354
85040SOL     OW57016  14.764   3.772   8.292
85040SOL    HW157017  14.674   3.785   8.263
85040SOL    HW257018  14.758   3.768   8.388
85041SOL     OW57019  12.112   8.080  14.667
85041SOL    HW157020  12.095   8.163  14.712
85041SOL    HW257021  12.067   8.015  14.721
85042SOL     OW57022   2.198   4.917   0.615
85042SOL    HW157023   2.288   4.902   0.586
85042SOL    HW257024   2.162   4.978   0.551
85043SOL     OW57025   7.234   1.815   0.710
85043SOL    HW157026   7.209   1.903   0.682
85043SOL    HW257027   7.300   1.788   0.646
85044SOL     OW57028  14.317  10.204  13.262
85044SOL    HW157029  14.270  10.274  13.309
85044SOL    HW257030  14.392  10.249  13.222
85045SOL     OW57031   1.290  10.910   7.508
85045SOL    HW157032   1.223  10.868   7.562
85045SOL    HW257033   1.286  10.864   7.425
85046SOL     OW57034   8.063  10.199   4.549
85046SOL    HW157035   8.063  10.275   4.607
85046SOL    HW257036   8.098  10.128   4.604
85047SOL     OW57037   7.886  10.882   9.824
85047SOL    HW157038   7.792  10.867   9.831
85047SOL    HW257039   7.894  10.958   9.766
85048SOL     OW57040   2.620  14.414   0.504
85048SOL    HW157041   2.671  14.447   0.578
85048SOL    HW257042   2.683  14.368   0.449
85049SOL     OW57043   8.981  11.548   7.020
85049SOL    HW157044   8.894  11.515   7.041
85049SOL    HW257045   9.013  11.489   6.952
85050SOL     OW57046   6.863   9.710   9.301
85050SOL    HW157047   6.789   9.770   9.308
85050SOL    HW257048   6.829   9.637   9.249
85051SOL     OW57049  12.340   9.441   6.709
85051SOL    HW157050  12.287   9.436   6.789
85051SOL    HW257051  12.430   9.440   6.740
85052SOL     OW57052   2.361   7.354   3.334
85052SOL    HW157053   2.395   7.319   3.417
85052SOL    HW257054   2.378   7.448   3.339
85053SOL     OW57055   6.287  12.181   9.635
85053SOL    HW157056   6.217  12.207   9.574
85053SOL    HW257057   6.246  12.185   9.721
85054SOL     OW57058   9.712  10.874  11.150
85054SOL    HW157059   9.619  10.897  11.159
85054SOL    HW257060   9.738  10.845  11.238
85055SOL     OW57061   7.094   1.930   0.435
85055SOL    HW157062   7.101   1.955   0.527
85055SOL    HW257063   7.090   2.013   0.387
85056SOL     OW57064  10.250  10.856   9.524
85056SOL    HW157065  10.173  10.812   9.489
85056SOL    HW257066  10.253  10.831   9.617
85057SOL     OW57067   4.813   7.392  11.594
85057SOL    HW157068   4.847   7.475  11.561
85057SOL    HW257069   4.846   7.326  11.534
85058SOL     OW57070  11.032  13.706   9.825
85058SOL    HW157071  10.957  13.705   9.883
85058SOL    HW257072  11.004  13.758   9.749
85059SOL     OW57073   3.865   0.369   1.403
85059SOL    HW157074   3.883   0.278   1.381
85059SOL    HW257075   3.935   0.394   1.463
85060SOL     OW57076   1.264   2.705  13.757
85060SOL    HW157077   1.259   2.625  13.705
85060SOL    HW257078   1.174   2.719  13.788
85061SOL     OW57079   4.889   9.217   1.783
85061SOL    HW157080   4.936   9.240   1.703
85061SOL    HW257081   4.826   9.150   1.756
85062SOL     OW57082   2.511   2.149   6.595
85062SOL    HW157083   2.465   2.219   6.548
85062SOL    HW257084   2.602   2.179   6.599
85063SOL     OW57085   6.616   9.173   2.258
85063SOL    HW157086   6.596   9.242   2.321
85063SOL    HW257087   6.595   9.091   2.303
85064SOL     OW57088  10.682  10.194  13.423
85064SOL    HW157089  10.672  10.269  13.481
85064SOL    HW257090  10.642  10.121  13.471
85065SOL     OW57091   8.525   4.660  12.206
85065SOL    HW157092   8.552   4.628  12.293
85065SOL    HW257093   8.535   4.755  12.211
85066SOL     OW57094   8.024  11.481   0.288
85066SOL    HW157095   8.032  11.436   0.204
85066SOL    HW257096   8.087  11.437   0.345
85067SOL     OW57097   4.130   5.611  11.951
85067SOL    HW157098   4.147   5.568  11.867
85067SOL    HW257099   4.077   5.548  12.000
85068SOL     OW57100  10.264  12.734   4.181
85068SOL    HW157101  10.315  12.772   4.253
85068SOL    HW257102  10.212  12.665   4.221
85069SOL     OW57103  13.183  14.778  10.692
85069SOL    HW157104  13.274  14.761  10.717
85069SOL    HW257105  13.132  14.745  10.766
85070SOL     OW57106   3.276  13.040   6.136
85070SOL    HW157107   3.357  12.990   6.144
85070SOL    HW257108   3.209  12.974   6.119
85071SOL     OW57109   9.577   9.168   7.309
85071SOL    HW157110   9.574   9.262   7.290
85071SOL    HW257111   9.529   9.127   7.238
85072SOL     OW57112  10.658  10.680  13.781
85072SOL    HW157113  10.609  10.663  13.700
85072SOL    HW257114  10.734  10.622  13.776
85073SOL     OW57115  11.104   9.849   2.597
85073SOL    HW157116  11.014   9.875   2.573
85073SOL    HW257117  11.157   9.879   2.523
85074SOL     OW57118  14.690   5.563  12.510
85074SOL    HW157119  14.757   5.615  12.465
85074SOL    HW257120  14.670   5.612  12.589
85075SOL     OW57121   4.479  10.155  11.343
85075SOL    HW157122   4.531  10.213  11.399
85075SOL    HW257123   4.396  10.145  11.389
85076SOL     OW57124  10.780  13.021   7.386
85076SOL    HW157125  10.814  13.107   7.359
85076SOL    HW257126  10.771  13.029   7.481
85077SOL     OW57127  14.115  10.843   6.052
85077SOL    HW157128  14.020  10.835   6.065
85077SOL    HW257129  14.131  10.800   5.968
85078SOL     OW57130  11.390   4.543   1.299
85078SOL    HW157131  11.357   4.591   1.223
85078SOL    HW257132  11.349   4.586   1.374
85079SOL     OW57133   9.237  12.441   4.155
85079SOL    HW157134   9.242  12.383   4.079
85079SOL    HW257135   9.222  12.528   4.117
85080SOL     OW57136   2.630  11.873  14.029
85080SOL    HW157137   2.690  11.936  14.069
85080SOL    HW257138   2.614  11.908  13.941
85081SOL     OW57139   9.336  14.513   1.340
85081SOL    HW157140   9.383  14.498   1.258
85081SOL    HW257141   9.363  14.440   1.397
85082SOL     OW57142   4.901   8.053   9.528
85082SOL    HW157143   4.905   7.992   9.454
85082SOL    HW257144   4.896   8.139   9.487
85083SOL     OW57145  10.432   0.994   1.453
85083SOL    HW157146  10.367   1.046   1.500
85083SOL    HW257147  10.485   1.058   1.406
85084SOL     OW57148  10.545   7.218  11.402
85084SOL    HW157149  10.481   7.193  11.468
85084SOL    HW257150  10.518   7.171  11.323
85085SOL     OW57151   0.214   2.311  11.365
85085SOL    HW157152   0.149   2.380  11.380
85085SOL    HW257153   0.290   2.356  11.328
85086SOL     OW57154  14.358   2.300  12.527
85086SOL    HW157155  14.394   2.212  12.524
85086SOL    HW257156  14.431   2.355  12.555
85087SOL     OW57157   8.874  13.142   1.697
85087SOL    HW157158   8.819  13.210   1.657
85087SOL    HW257159   8.889  13.079   1.627
85088SOL     OW57160   9.975   1.892   7.160
85088SOL    HW157161  10.053   1.909   7.214
85088SOL    HW257162   9.994   1.809   7.117
85089SOL     OW57163  13.069   9.804  13.121
85089SOL    HW157164  13.026   9.757  13.049
85089SOL    HW257165  13.073   9.895  13.092
85090SOL     OW57166   8.419   3.827   3.801
85090SOL    HW157167   8.462   3.753   3.844
85090SOL    HW257168   8.391   3.884   3.872
85091SOL     OW57169   3.893   1.990   1.227
85091SOL    HW157170   3.855   1.971   1.141
85091SOL    HW257171   3.866   2.080   1.246
85092SOL     OW57172   0.559   6.936   9.696
85092SOL    HW157173   0.610   7.007   9.659
85092SOL    HW257174   0.556   6.869   9.628
85093SOL     OW57175  11.851   5.761   5.025
85093SOL    HW157176  11.772   5.719   4.990
85093SOL    HW257177  11.916   5.753   4.954
85094SOL     OW57178   9.214  13.076   3.100
85094SOL    HW157179   9.273  13.142   3.136
85094SOL    HW257180   9.270  13.001   3.079
85095SOL     OW57181  12.958   0.184  11.951
85095SOL    HW157182  12.940   0.116  11.886
85095SOL    HW257183  13.032   0.150  12.000
85096SOL     OW57184   4.018   6.219  13.198
85096SOL    HW157185   3.939   6.164  13.204
85096SOL    HW257186   3.992   6.301  13.240
85097SOL     OW57187   7.089   5.067   8.234
85097SOL    HW157188   6.995   5.062   8.218
85097SOL    HW257189   7.099   5.040   8.325
85098SOL     OW57190  11.373   9.017  13.742
85098SOL    HW157191  11.343   9.077  13.674
85098SOL    HW257192  11.351   8.930  13.708
85099SOL     OW57193   5.927   8.100   4.469
85099SOL    HW157194   5.963   8.165   4.410
85099SOL    HW257195   5.845   8.073   4.428
85100SOL     OW57196  13.055   4.366  13.974
85100SOL    HW157197  13.111   4.428  13.927
85100SOL    HW257198  13.070   4.385  14.066
85101SOL     OW57199   1.456   4.871  11.752
85101SOL    HW157200   1.495   4.943  11.802
85101SOL    HW257201   1.393   4.831  11.813
85102SOL     OW57202   8.198   1.884  14.617
85102SOL    HW157203   8.172   1.898  14.708
85102SOL    HW257204   8.291   1.908  14.615
85103SOL     OW57205   4.137  11.097  14.211
85103SOL    HW157206   4.103  11.154  14.280
85103SOL    HW257207   4.124  11.008  14.246
85104SOL     OW57208   1.472  12.586  14.044
85104SOL    HW157209   1.490  12.511  13.987
85104SOL    HW257210   1.380  12.608  14.026
85105SOL     OW57211  12.402   9.562   6.095
85105SOL    HW157212  12.415   9.551   6.001
85105SOL    HW257213  12.357   9.482   6.123
85106SOL     OW57214   0.476   8.845   8.645
85106SOL    HW157215   0.494   8.910   8.578
85106SOL    HW257216   0.387   8.863   8.674
85107SOL     OW57217   8.347   4.915  13.188
85107SOL    HW157218   8.395   4.924  13.106
85107SOL    HW257219   8.415   4.920  13.256
85108SOL     OW57220   3.606   5.819  14.723
85108SOL    HW157221   3.560   5.903  14.727
85108SOL    HW257222   3.609   5.789  14.814
85109SOL     OW57223  14.828  11.139   3.411
85109SOL    HW157224  14.792  11.059   3.372
85109SOL    HW257225   0.047  11.115   3.437
85110SOL     OW57226   1.186   0.497   2.231
85110SOL    HW157227   1.091   0.503   2.224
85110SOL    HW257228   1.208   0.550   2.307
85111SOL     OW57229   6.816   2.860   6.954
85111SOL    HW157230   6.872   2.847   7.030
85111SOL    HW257231   6.826   2.952   6.931
85112SOL     OW57232   9.830  11.386  14.553
85112SOL    HW157233   9.908  11.334  14.574
85112SOL    HW257234   9.849  11.423  14.467
85113SOL     OW57235   7.468  10.959  12.700
85113SOL    HW157236   7.487  10.885  12.643
85113SOL    HW257237   7.373  10.956  12.713
85114SOL     OW57238  12.685   4.423  11.673
85114SOL    HW157239  12.704   4.487  11.605
85114SOL    HW257240  12.762   4.366  11.675
85115SOL     OW57241   3.859   0.092   7.700
85115SOL    HW157242   3.919   0.131   7.763
85115SOL    HW257243   3.917   0.049   7.636
85116SOL     OW57244   4.559  11.595   4.824
85116SOL    HW157245   4.557  11.681   4.865
85116SOL    HW257246   4.484  11.549   4.861
85117SOL     OW57247   9.227  13.337   4.208
85117SOL    HW157248   9.161  13.268   4.211
85117SOL    HW257249   9.176  13.418   4.207
85118SOL     OW57250   8.535   6.826   2.703
85118SOL    HW157251   8.483   6.845   2.624
85118SOL    HW257252   8.478   6.771   2.756
85119SOL     OW57253  14.699   4.789   8.528
85119SOL    HW157254  14.754   4.811   8.602
85119SOL    HW257255  14.760   4.779   8.455
85120SOL     OW57256   1.669  11.284  13.946
85120SOL    HW157257   1.599  11.291  14.010
85120SOL    HW257258   1.702  11.195  13.955
85121SOL     OW57259   0.558  14.729   7.995
85121SOL    HW157260   0.492  14.745   8.064
85121SOL    HW257261   0.608  14.654   8.027
85122SOL     OW57262   1.744   2.063  14.131
85122SOL    HW157263   1.707   2.148  14.107
85122SOL    HW257264   1.800   2.039  14.056
85123SOL     OW57265  13.327   6.292   6.027
85123SOL    HW157266  13.375   6.210   6.019
85123SOL    HW257267  13.249   6.279   5.972
85124SOL     OW57268  10.057  10.398   1.955
85124SOL    HW157269   9.966  10.426   1.960
85124SOL    HW257270  10.082  10.381   2.046
85125SOL     OW57271   7.381  10.429   4.545
85125SOL    HW157272   7.412  10.443   4.635
85125SOL    HW257273   7.340  10.343   4.547
85126SOL     OW57274   0.493   2.378   5.565
85126SOL    HW157275   0.428   2.309   5.577
85126SOL    HW257276   0.481   2.407   5.474
85127SOL     OW57277  13.238   9.935   1.046
85127SOL    HW157278  13.171   9.970   1.105
85127SOL    HW257279  13.320   9.975   1.078
85128SOL     OW57280  12.811   6.658  13.685
85128SOL    HW157281  12.796   6.664  13.591
85128SOL    HW257282  12.820   6.564  13.701
85129SOL     OW57283   8.654   0.919   6.360
85129SOL    HW157284   8.621   0.926   6.271
85129SOL    HW257285   8.665   0.825   6.374
85130SOL     OW57286  13.631  13.193  10.523
85130SOL    HW157287  13.583  13.153  10.451
85130SOL    HW257288  13.635  13.286  10.500
85131SOL     OW57289  12.888   1.856   9.774
85131SOL    HW157290  12.956   1.792   9.757
85131SOL    HW257291  12.809   1.804   9.789
85132SOL     OW57292   8.811   4.281   1.452
85132SOL    HW157293   8.738   4.260   1.510
85132SOL    HW257294   8.779   4.355   1.400
85133SOL     OW57295   2.301   2.456  12.360
85133SOL    HW157296   2.359   2.490  12.428
85133SOL    HW257297   2.236   2.404  12.408
85134SOL     OW57298   5.664   0.755  10.732
85134SOL    HW157299   5.728   0.709  10.678
85134SOL    HW257300   5.704   0.757  10.819
85135SOL     OW57301   1.082   6.081   0.069
85135SOL    HW157302   1.052   6.114  14.855
85135SOL    HW257303   1.100   5.988   0.053
85136SOL     OW57304   6.131  10.436   9.576
85136SOL    HW157305   6.061  10.469   9.520
85136SOL    HW257306   6.117  10.478   9.660
85137SOL     OW57307   3.962  14.155   5.593
85137SOL    HW157308   3.892  14.126   5.652
85137SOL    HW257309   4.039  14.164   5.650
85138SOL     OW57310   3.105   1.489   7.277
85138SOL    HW157311   3.010   1.485   7.285
85138SOL    HW257312   3.127   1.581   7.286
85139SOL     OW57313  10.371   3.312   0.649
85139SOL    HW157314  10.324   3.279   0.725
85139SOL    HW257315  10.436   3.372   0.685
85140SOL     OW57316   0.379   4.027  14.772
85140SOL    HW157317   0.311   4.018  14.706
85140SOL    HW257318   0.332   4.050  14.852
85141SOL     OW57319   7.391  11.466  14.607
85141SOL    HW157320   7.317  11.519  14.636
85141SOL    HW257321   7.404  11.491  14.515
85142SOL     OW57322   4.321   9.839  10.647
85142SOL    HW157323   4.408   9.872  10.667
85142SOL    HW257324   4.282   9.821  10.732
85143SOL     OW57325   7.997  12.186  12.574
85143SOL    HW157326   8.053  12.166  12.649
85143SOL    HW257327   7.941  12.257  12.604
85144SOL     OW57328   5.887   1.195  11.599
85144SOL    HW157329   5.913   1.108  11.568
85144SOL    HW257330   5.829   1.177  11.673
85145SOL     OW57331   4.945  14.529  13.255
85145SOL    HW157332   4.908  14.582  13.184
85145SOL    HW257333   5.014  14.478  13.214
85146SOL     OW57334   7.025   9.512   1.896
85146SOL    HW157335   7.028   9.427   1.940
85146SOL    HW257336   7.110   9.520   1.854
85147SOL     OW57337   8.773   4.554   8.891
85147SOL    HW157338   8.704   4.613   8.859
85147SOL    HW257339   8.757   4.471   8.846
85148SOL     OW57340  14.196   9.452  13.673
85148SOL    HW157341  14.142   9.388  13.718
85148SOL    HW257342  14.141   9.530  13.666
85149SOL     OW57343   2.219  12.884  12.277
85149SOL    HW157344   2.289  12.883  12.343
85149SOL    HW257345   2.139  12.896  12.328
85150SOL     OW57346   2.493  12.711   7.605
85150SOL    HW157347   2.478  12.794   7.561
85150SOL    HW257348   2.491  12.731   7.698
85151SOL     OW57349  10.306   8.195   5.249
85151SOL    HW157350  10.230   8.140   5.267
85151SOL    HW257351  10.344   8.213   5.336
85152SOL     OW57352   0.321  11.745   5.947
85152SOL    HW157353   0.289  11.785   6.028
85152SOL    HW257354   0.247  11.747   5.887
85153SOL     OW57355   7.203   2.087   8.780
85153SOL    HW157356   7.150   2.034   8.721
85153SOL    HW257357   7.191   2.046   8.866
85154SOL     OW57358   2.795  13.922  14.844
85154SOL    HW157359   2.713  13.971  14.840
85154SOL    HW257360   2.854  13.967  14.783
85155SOL     OW57361   7.682   6.838  13.204
85155SOL    HW157362   7.589   6.821  13.217
85155SOL    HW257363   7.701   6.804  13.116
85156SOL     OW57364   1.944  12.283   4.382
85156SOL    HW157365   2.004  12.338   4.431
85156SOL    HW257366   1.990  12.199   4.372
85157SOL     OW57367   9.214  11.733   5.263
85157SOL    HW157368   9.274  11.665   5.232
85157SOL    HW257369   9.133  11.687   5.284
85158SOL     OW57370   3.631   9.400  13.986
85158SOL    HW157371   3.577   9.360  13.918
85158SOL    HW257372   3.717   9.358  13.977
85159SOL     OW57373   1.149   9.452   4.858
85159SOL    HW157374   1.174   9.389   4.926
85159SOL    HW257375   1.053   9.445   4.854
85160SOL     OW57376   8.485   3.837   7.007
85160SOL    HW157377   8.506   3.752   6.970
85160SOL    HW257378   8.500   3.899   6.935
85161SOL     OW57379   7.629  13.354  13.710
85161SOL    HW157380   7.654  13.393  13.626
85161SOL    HW257381   7.560  13.412  13.743
85162SOL     OW57382  14.736   5.494   3.903
85162SOL    HW157383  14.671   5.439   3.946
85162SOL    HW257384  14.696   5.581   3.899
85163SOL     OW57385  13.765   6.878  14.339
85163SOL    HW157386  13.849   6.923  14.346
85163SOL    HW257387  13.754   6.859  14.246
85164SOL     OW57388  10.907   7.807   6.692
85164SOL    HW157389  10.908   7.725   6.741
85164SOL    HW257390  10.950   7.870   6.750
85165SOL     OW57391   9.776   5.268   2.306
85165SOL    HW157392   9.860   5.311   2.323
85165SOL    HW257393   9.711   5.325   2.346
85166SOL     OW57394   8.884   8.310   1.799
85166SOL    HW157395   8.837   8.260   1.733
85166SOL    HW257396   8.937   8.244   1.845
85167SOL     OW57397   4.296   8.623   9.718
85167SOL    HW157398   4.389   8.601   9.712
85167SOL    HW257399   4.255   8.574   9.647
85168SOL     OW57400   1.773   6.233   6.879
85168SOL    HW157401   1.855   6.273   6.907
85168SOL    HW257402   1.792   6.194   6.794
85169SOL     OW57403   1.251  10.032  14.047
85169SOL    HW157404   1.331  10.012  13.999
85169SOL    HW257405   1.274  10.022  14.139
85170SOL     OW57406  12.398   7.828  13.536
85170SOL    HW157407  12.474   7.886  13.534
85170SOL    HW257408  12.393   7.791  13.448
85171SOL     OW57409   8.876  13.258  12.498
85171SOL    HW157410   8.820  13.254  12.575
85171SOL    HW257411   8.815  13.257  12.424
85172SOL     OW57412   7.747   2.332   1.103
85172SOL    HW157413   7.723   2.355   1.192
85172SOL    HW257414   7.812   2.397   1.077
85173SOL     OW57415   6.830   0.974   4.070
85173SOL    HW157416   6.747   0.940   4.039
85173SOL    HW257417   6.853   1.043   4.008
85174SOL     OW57418  10.398   7.629  11.565
85174SOL    HW157419  10.439   7.565  11.507
85174SOL    HW257420  10.363   7.696  11.507
85175SOL     OW57421   8.774   5.730   7.351
85175SOL    HW157422   8.852   5.774   7.319
85175SOL    HW257423   8.710   5.738   7.280
85176SOL     OW57424   7.394  12.789   3.047
85176SOL    HW157425   7.394  12.784   2.951
85176SOL    HW257426   7.443  12.711   3.074
85177SOL     OW57427   8.644  11.624   2.456
85177SOL    HW157428   8.637  11.617   2.361
85177SOL    HW257429   8.666  11.716   2.472
85178SOL     OW57430  12.789   2.323   9.597
85178SOL    HW157431  12.797   2.276   9.514
85178SOL    HW257432  12.879   2.342   9.623
85179SOL     OW57433  10.800   3.472   0.407
85179SOL    HW157434  10.779   3.428   0.489
85179SOL    HW257435  10.805   3.565   0.430
85180SOL     OW57436   6.015   2.919   4.150
85180SOL    HW157437   6.105   2.930   4.120
85180SOL    HW257438   6.020   2.930   4.245
85181SOL     OW57439   9.246   1.824   5.057
85181SOL    HW157440   9.213   1.776   5.132
85181SOL    HW257441   9.191   1.902   5.052
85182SOL     OW57442  13.698   6.757  14.091
85182SOL    HW157443  13.714   6.744  13.997
85182SOL    HW257444  13.664   6.673  14.121
85183SOL     OW57445   9.603   0.441   7.456
85183SOL    HW157446   9.616   0.485   7.372
85183SOL    HW257447   9.592   0.349   7.434
85184SOL     OW57448   4.123   1.408   3.266
85184SOL    HW157449   4.183   1.390   3.339
85184SOL    HW257450   4.137   1.336   3.205
85185SOL     OW57451   0.404   2.532   0.942
85185SOL    HW157452   0.322   2.572   0.971
85185SOL    HW257453   0.471   2.571   0.999
85186SOL     OW57454  13.010   4.419   6.045
85186SOL    HW157455  13.075   4.429   5.975
85186SOL    HW257456  13.047   4.354   6.104
85187SOL     OW57457  13.865  11.162   0.266
85187SOL    HW157458  13.792  11.176   0.207
85187SOL    HW257459  13.833  11.193   0.351
85188SOL     OW57460   5.944  11.505   2.608
85188SOL    HW157461   5.950  11.414   2.580
85188SOL    HW257462   5.929  11.554   2.527
85189SOL     OW57463  11.982  12.569  14.668
85189SOL    HW157464  11.974  12.491  14.613
85189SOL    HW257465  12.026  12.538  14.747
85190SOL     OW57466   2.999   7.129   8.955
85190SOL    HW157467   3.072   7.190   8.966
85190SOL    HW257468   3.002   7.106   8.862
85191SOL     OW57469  10.999   6.232   0.171
85191SOL    HW157470  11.032   6.142   0.177
85191SOL    HW257471  10.904   6.221   0.162
85192SOL     OW57472  11.170   8.224  11.356
85192SOL    HW157473  11.121   8.224  11.274
85192SOL    HW257474  11.194   8.316  11.369
85193SOL     OW57475  10.413   5.488   2.476
85193SOL    HW157476  10.398   5.582   2.483
85193SOL    HW257477  10.326   5.450   2.461
85194SOL     OW57478   5.548   7.267   8.509
85194SOL    HW157479   5.535   7.233   8.598
85194SOL    HW257480   5.577   7.357   8.521
85195SOL     OW57481   0.198   8.097  13.338
85195SOL    HW157482   0.149   8.032  13.287
85195SOL    HW257483   0.247   8.146  13.272
85196SOL     OW57484   0.132  10.618   9.859
85196SOL    HW157485   0.043  10.638   9.833
85196SOL    HW257486   0.181  10.698   9.842
85197SOL     OW57487   6.039   0.665   1.492
85197SOL    HW157488   6.059   0.593   1.433
85197SOL    HW257489   6.059   0.744   1.443
85198SOL     OW57490   9.406   1.215  10.804
85198SOL    HW157491   9.393   1.245  10.894
85198SOL    HW257492   9.447   1.290  10.760
85199SOL     OW57493   7.374  14.422   8.801
85199SOL    HW157494   7.455  14.440   8.753
85199SOL    HW257495   7.339  14.508   8.823
85200SOL     OW57496   8.703   9.975   7.656
85200SOL    HW157497   8.707  10.071   7.654
85200SOL    HW257498   8.761   9.950   7.728
85201SOL     OW57499   6.445   9.173  10.983
85201SOL    HW157500   6.420   9.160  10.891
85201SOL    HW257501   6.429   9.266  10.999
85202SOL     OW57502  10.226   0.384   1.973
85202SOL    HW157503  10.185   0.306   1.934
85202SOL    HW257504  10.210   0.375   2.067
85203SOL     OW57505   5.030   0.215   5.989
85203SOL    HW157506   5.027   0.206   5.894
85203SOL    HW257507   5.003   0.305   6.006
85204SOL     OW57508  13.743  11.544   8.806
85204SOL    HW157509  13.729  11.569   8.897
85204SOL    HW257510  13.720  11.451   8.803
85205SOL     OW57511   2.194   2.328   1.868
85205SOL    HW157512   2.145   2.269   1.811
85205SOL    HW257513   2.128   2.378   1.915
85206SOL     OW57514   4.063   9.903   8.650
85206SOL    HW157515   3.988   9.925   8.706
85206SOL    HW257516   4.105   9.830   8.694
85207SOL     OW57517   5.622   9.980  12.012
85207SOL    HW157518   5.621   9.931  11.930
85207SOL    HW257519   5.567  10.057  11.995
85208SOL     OW57520   6.854   6.151   8.195
85208SOL    HW157521   6.948   6.159   8.176
85208SOL    HW257522   6.811   6.167   8.111
85209SOL     OW57523   1.484   0.778  10.023
85209SOL    HW157524   1.549   0.829   9.976
85209SOL    HW257525   1.401   0.798   9.979
85210SOL     OW57526  13.339   1.290  10.296
85210SOL    HW157527  13.291   1.283  10.213
85210SOL    HW257528  13.355   1.384  10.306
85211SOL     OW57529   8.612   5.970   5.615
85211SOL    HW157530   8.593   6.029   5.687
85211SOL    HW257531   8.528   5.926   5.597
85212SOL     OW57532   2.149   5.348   4.354
85212SOL    HW157533   2.107   5.274   4.311
85212SOL    HW257534   2.218   5.309   4.407
85213SOL     OW57535   9.784   9.564   2.600
85213SOL    HW157536   9.790   9.658   2.615
85213SOL    HW257537   9.719   9.534   2.663
85214SOL     OW57538   7.763   8.816  12.019
85214SOL    HW157539   7.771   8.721  12.021
85214SOL    HW257540   7.799   8.841  11.934
85215SOL     OW57541   6.264   6.187   7.165
85215SOL    HW157542   6.321   6.111   7.182
85215SOL    HW257543   6.324   6.261   7.158
85216SOL     OW57544  12.621   7.860   5.139
85216SOL    HW157545  12.567   7.936   5.118
85216SOL    HW257546  12.597   7.794   5.074
85217SOL     OW57547   9.149   9.161  13.187
85217SOL    HW157548   9.238   9.171  13.152
85217SOL    HW257549   9.092   9.174  13.111
85218SOL     OW57550   2.785   9.021   2.103
85218SOL    HW157551   2.741   8.942   2.071
85218SOL    HW257552   2.852   9.039   2.037
85219SOL     OW57553  13.279   4.396   0.879
85219SOL    HW157554  13.368   4.402   0.844
85219SOL    HW257555  13.292   4.393   0.974
85220SOL     OW57556   6.284   4.403  11.714
85220SOL    HW157557   6.348   4.460  11.758
85220SOL    HW257558   6.299   4.418  11.621
85221SOL     OW57559  14.195   2.051  14.634
85221SOL    HW157560  14.102   2.072  14.631
85221SOL    HW257561  14.224   2.055  14.543
85222SOL     OW57562   1.800  12.844   8.506
85222SOL    HW157563   1.786  12.767   8.561
85222SOL    HW257564   1.890  12.836   8.476
85223SOL     OW57565  13.830   0.545   8.186
85223SOL    HW157566  13.766   0.506   8.245
85223SOL    HW257567  13.812   0.506   8.100
85224SOL     OW57568   6.066  10.831   1.472
85224SOL    HW157569   6.155  10.809   1.499
85224SOL    HW257570   6.057  10.924   1.493
85225SOL     OW57571   6.323   8.365   9.027
85225SOL    HW157572   6.309   8.305   8.954
85225SOL    HW257573   6.238   8.409   9.038
85226SOL     OW57574   9.519   4.352  13.476
85226SOL    HW157575   9.545   4.275  13.526
85226SOL    HW257576   9.599   4.380  13.433
85227SOL     OW57577   5.323   1.706   7.884
85227SOL    HW157578   5.416   1.681   7.878
85227SOL    HW257579   5.300   1.690   7.976
85228SOL     OW57580   1.031   1.987   8.862
85228SOL    HW157581   1.016   2.063   8.918
85228SOL    HW257582   0.961   1.926   8.884
85229SOL     OW57583  10.953   5.311   7.955
85229SOL    HW157584  11.040   5.313   7.915
85229SOL    HW257585  10.922   5.222   7.939
85230SOL     OW57586   7.570   6.828   0.499
85230SOL    HW157587   7.589   6.813   0.592
85230SOL    HW257588   7.610   6.753   0.455
85231SOL     OW57589  12.069   6.970   9.347
85231SOL    HW157590  12.044   6.945   9.436
85231SOL    HW257591  12.164   6.983   9.351
85232SOL     OW57592  10.414   7.526   6.672
85232SOL    HW157593  10.483   7.580   6.711
85232SOL    HW257594  10.452   7.438   6.667
85233SOL     OW57595   2.132   6.645  14.079
85233SOL    HW157596   2.157   6.568  14.027
85233SOL    HW257597   2.042   6.664  14.050
85234SOL     OW57598   0.449  14.010   1.498
85234SOL    HW157599   0.490  14.048   1.420
85234SOL    HW257600   0.522  13.989   1.556
85235SOL     OW57601   3.929   3.814   7.146
85235SOL    HW157602   3.986   3.748   7.108
85235SOL    HW257603   3.858   3.765   7.186
85236SOL     OW57604  12.920   4.002  13.191
85236SOL    HW157605  12.857   4.073  13.179
85236SOL    HW257606  12.925   3.959  13.105
85237SOL     OW57607  13.163   4.659   3.628
85237SOL    HW157608  13.125   4.725   3.685
85237SOL    HW257609  13.090   4.628   3.574
85238SOL     OW57610   9.415   5.987  14.147
85238SOL    HW157611   9.320   5.995  14.151
85238SOL    HW257612   9.448   6.072  14.177
85239SOL     OW57613   6.483   0.793  11.785
85239SOL    HW157614   6.444   0.705  11.784
85239SOL    HW257615   6.407   0.852  11.785
85240SOL     OW57616  11.774   6.623  14.258
85240SOL    HW157617  11.697   6.572  14.282
85240SOL    HW257618  11.754   6.658  14.171
85241SOL     OW57619   8.375   4.833   0.221
85241SOL    HW157620   8.385   4.928   0.221
85241SOL    HW257621   8.455   4.801   0.178
85242SOL     OW57622  13.758   8.220  11.141
85242SOL    HW157623  13.747   8.219  11.046
85242SOL    HW257624  13.711   8.142  11.171
85243SOL     OW57625   6.725  13.794   2.902
85243SOL    HW157626   6.693  13.875   2.941
85243SOL    HW257627   6.714  13.728   2.971
85244SOL     OW57628   0.806   7.515  14.765
85244SOL    HW157629   0.717   7.509  14.799
85244SOL    HW257630   0.862   7.504  14.842
85245SOL     OW57631   7.422  11.482  12.195
85245SOL    HW157632   7.398  11.415  12.131
85245SOL    HW257633   7.372  11.458  12.274
85246SOL     OW57634   9.825   1.512   0.419
85246SOL    HW157635   9.743   1.556   0.396
85246SOL    HW257636   9.891   1.582   0.418
85247SOL     OW57637  11.612   9.510   9.932
85247SOL    HW157638  11.623   9.489   9.839
85247SOL    HW257639  11.663   9.442   9.978
85248SOL     OW57640   2.049  10.179   9.445
85248SOL    HW157641   2.134  10.137   9.431
85248SOL    HW257642   2.054  10.260   9.395
85249SOL     OW57643  12.888  11.304  14.305
85249SOL    HW157644  12.862  11.387  14.345
85249SOL    HW257645  12.841  11.302  14.222
85250SOL     OW57646   5.057   6.415  10.018
85250SOL    HW157647   5.129   6.389  10.076
85250SOL    HW257648   4.995   6.341  10.023
85251SOL     OW57649  12.296   4.255   5.626
85251SOL    HW157650  12.320   4.333   5.575
85251SOL    HW257651  12.313   4.281   5.717
85252SOL     OW57652  13.366  13.249  12.865
85252SOL    HW157653  13.430  13.315  12.837
85252SOL    HW257654  13.287  13.270  12.816
85253SOL     OW57655  10.352   6.974   4.523
85253SOL    HW157656  10.359   6.989   4.617
85253SOL    HW257657  10.364   7.060   4.484
85254SOL     OW57658   3.110   4.073   4.577
85254SOL    HW157659   3.076   4.133   4.644
85254SOL    HW257660   3.119   4.127   4.499
85255SOL     OW57661  13.897   1.439   3.149
85255SOL    HW157662  13.834   1.367   3.148
85255SOL    HW257663  13.971   1.407   3.097
85256SOL     OW57664   4.648   9.164   8.007
85256SOL    HW157665   4.627   9.072   8.026
85256SOL    HW257666   4.615   9.212   8.083
85257SOL     OW57667   4.306   1.556   7.976
85257SOL    HW157668   4.229   1.612   7.977
85257SOL    HW257669   4.356   1.584   7.900
85258SOL     OW57670   0.531   9.509  11.434
85258SOL    HW157671   0.561   9.563  11.507
85258SOL    HW257672   0.542   9.419  11.464
85259SOL     OW57673   9.780   5.752  12.505
85259SOL    HW157674   9.765   5.800  12.423
85259SOL    HW257675   9.862   5.705  12.491
85260SOL     OW57676  14.363  14.261  14.026
85260SOL    HW157677  14.397  14.174  14.047
85260SOL    HW257678  14.438  14.319  14.037
85261SOL     OW57679   2.034  14.764   5.269
85261SOL    HW157680   2.023  14.805   5.183
85261SOL    HW257681   2.013  14.672   5.254
85262SOL     OW57682  13.669  13.809  13.060
85262SOL    HW157683  13.647  13.800  12.967
85262SOL    HW257684  13.639  13.896  13.083
85263SOL     OW57685   7.699  13.850  10.245
85263SOL    HW157686   7.676  13.942  10.258
85263SOL    HW257687   7.617  13.802  10.252
85264SOL     OW57688   2.763   2.970  12.492
85264SOL    HW157689   2.847   2.988  12.534
85264SOL    HW257690   2.699   3.019  12.544
85265SOL     OW57691  13.948  14.631   4.564
85265SOL    HW157692  13.991  14.699   4.512
85265SOL    HW257693  14.012  14.610   4.633
85266SOL     OW57694   2.222   9.800   9.872
85266SOL    HW157695   2.295   9.770   9.926
85266SOL    HW257696   2.257   9.800   9.782
85267SOL     OW57697   1.115  12.431   8.874
85267SOL    HW157698   1.175  12.456   8.803
85267SOL    HW257699   1.168  12.374   8.930
85268SOL     OW57700   7.329  11.374  12.432
85268SOL    HW157701   7.306  11.284  12.457
85268SOL    HW257702   7.260  11.428  12.470
85269SOL     OW57703  13.049  14.631   4.885
85269SOL    HW157704  12.974  14.640   4.944
85269SOL    HW257705  13.042  14.706   4.826
85270SOL     OW57706   9.094  14.471   6.320
85270SOL    HW157707   9.032  14.443   6.253
85270SOL    HW257708   9.058  14.553   6.353
85271SOL     OW57709  10.377   9.698  10.882
85271SOL    HW157710  10.370   9.711  10.787
85271SOL    HW257711  10.305   9.750  10.918
85272SOL     OW57712   9.311  11.495   4.469
85272SOL    HW157713   9.221  11.461   4.473
85272SOL    HW257714   9.313  11.567   4.532
85273SOL     OW57715   2.242   9.289   8.560
85273SOL    HW157716   2.167   9.229   8.555
85273SOL    HW257717   2.302   9.258   8.493
85274SOL     OW57718   6.886  12.113   9.326
85274SOL    HW157719   6.980  12.133   9.334
85274SOL    HW257720   6.884  12.030   9.279
85275SOL     OW57721   0.315   0.421   3.547
85275SOL    HW157722   0.322   0.512   3.517
85275SOL    HW257723   0.358   0.370   3.478
85276SOL     OW57724  11.192  14.221   8.994
85276SOL    HW157725  11.198  14.278   9.071
85276SOL    HW257726  11.257  14.152   9.010
85277SOL     OW57727   8.380  14.532   2.459
85277SOL    HW157728   8.339  14.595   2.399
85277SOL    HW257729   8.320  14.527   2.533
85278SOL     OW57730   5.270   9.564   3.778
85278SOL    HW157731   5.183   9.529   3.758
85278SOL    HW257732   5.265   9.590   3.870
85279SOL     OW57733   1.480   1.965   1.339
85279SOL    HW157734   1.540   2.028   1.299
85279SOL    HW257735   1.498   1.970   1.433
85280SOL     OW57736  14.786  14.568   3.828
85280SOL    HW157737  14.804  14.489   3.878
85280SOL    HW257738   0.000  14.615   3.826
85281SOL     OW57739  10.753   3.942   6.729
85281SOL    HW157740  10.783   3.851   6.735
85281SOL    HW257741  10.736   3.966   6.820
85282SOL     OW57742  12.155  11.287   3.679
85282SOL    HW157743  12.123  11.197   3.681
85282SOL    HW257744  12.182  11.301   3.589
85283SOL     OW57745   8.031  12.051   9.238
85283SOL    HW157746   8.114  12.065   9.193
85283SOL    HW257747   7.972  12.018   9.170
85284SOL     OW57748   2.277  11.028   4.382
85284SOL    HW157749   2.240  11.108   4.345
85284SOL    HW257750   2.253  10.959   4.320
85285SOL     OW57751  10.334   8.604   8.914
85285SOL    HW157752  10.281   8.532   8.881
85285SOL    HW257753  10.295   8.682   8.875
85286SOL     OW57754   5.498   5.610   5.887
85286SOL    HW157755   5.565   5.674   5.863
85286SOL    HW257756   5.541   5.525   5.877
85287SOL     OW57757   2.026  12.259  10.954
85287SOL    HW157758   1.951  12.254  10.895
85287SOL    HW257759   2.029  12.174  10.997
85288SOL     OW57760  13.904   1.211   7.744
85288SOL    HW157761  13.949   1.226   7.827
85288SOL    HW257762  13.865   1.295   7.722
85289SOL     OW57763  12.443   1.287   3.344
85289SOL    HW157764  12.448   1.376   3.309
85289SOL    HW257765  12.511   1.239   3.298
85290SOL     OW57766  14.518   9.039   8.725
85290SOL    HW157767  14.445   9.079   8.771
85290SOL    HW257768  14.538   9.101   8.654
85291SOL     OW57769  11.014   8.020   0.106
85291SOL    HW157770  11.043   8.110   0.122
85291SOL    HW257771  10.922   8.028   0.082
85292SOL     OW57772  10.071   1.059   3.530
85292SOL    HW157773  10.103   1.070   3.440
85292SOL    HW257774  10.068   0.964   3.542
85293SOL     OW57775  10.321  13.813   8.576
85293SOL    HW157776  10.323  13.725   8.539
85293SOL    HW257777  10.235  13.820   8.618
85294SOL     OW57778   8.611   5.567   9.617
85294SOL    HW157779   8.602   5.519   9.535
85294SOL    HW257780   8.561   5.516   9.680
85295SOL     OW57781   6.204   2.746   0.810
85295SOL    HW157782   6.218   2.798   0.731
85295SOL    HW257783   6.145   2.676   0.783
85296SOL     OW57784  11.907  11.165  13.397
85296SOL    HW157785  11.979  11.162  13.459
85296SOL    HW257786  11.829  11.179  13.451
85297SOL     OW57787  12.864   6.695   9.465
85297SOL    HW157788  12.921   6.652   9.528
85297SOL    HW257789  12.801   6.743   9.518
85298SOL     OW57790  10.830   6.738  11.972
85298SOL    HW157791  10.781   6.731  11.890
85298SOL    HW257792  10.921   6.746  11.945
85299SOL     OW57793   5.572   8.965   0.626
85299SOL    HW157794   5.526   8.986   0.545
85299SOL    HW257795   5.527   9.016   0.694
85300SOL     OW57796   7.341   9.691   0.343
85300SOL    HW157797   7.374   9.638   0.269
85300SOL    HW257798   7.420   9.732   0.380
85301SOL     OW57799  10.768  13.681   4.622
85301SOL    HW157800  10.858  13.647   4.622
85301SOL    HW257801  10.714  13.604   4.636
85302SOL     OW57802  13.032   3.379   2.379
85302SOL    HW157803  13.007   3.360   2.289
85302SOL    HW257804  13.053   3.473   2.379
85303SOL     OW57805   8.651  10.900  11.724
85303SOL    HW157806   8.630  10.812  11.691
85303SOL    HW257807   8.573  10.952  11.703
85304SOL     OW57808   7.977   4.431   9.462
85304SOL    HW157809   8.004   4.344   9.434
85304SOL    HW257810   7.886   4.419   9.491
85305SOL     OW57811   7.526   3.598   6.520
85305SOL    HW157812   7.468   3.621   6.448
85305SOL    HW257813   7.468   3.593   6.596
85306SOL     OW57814   4.823  12.014  12.167
85306SOL    HW157815   4.750  12.066  12.201
85306SOL    HW257816   4.805  12.005  12.073
85307SOL     OW57817   1.719   2.073   4.695
85307SOL    HW157818   1.787   2.013   4.664
85307SOL    HW257819   1.683   2.112   4.615
85308SOL     OW57820   7.462  14.269   1.166
85308SOL    HW157821   7.410  14.236   1.239
85308SOL    HW257822   7.553  14.256   1.193
85309SOL     OW57823   2.775  14.824   0.393
85309SOL    HW157824   2.842  14.759   0.409
85309SOL    HW257825   2.723  14.827   0.473
85310SOL     OW57826  11.806  12.948  11.046
85310SOL    HW157827  11.745  12.897  11.099
85310SOL    HW257828  11.888  12.948  11.096
85311SOL     OW57829  11.707  11.293  14.719
85311SOL    HW157830  11.701  11.311  14.813
85311SOL    HW257831  11.670  11.371  14.677
85312SOL     OW57832  10.538   5.743   6.487
85312SOL    HW157833  10.510   5.731   6.396
85312SOL    HW257834  10.463   5.713   6.539
85313SOL     OW57835  14.279  11.619  14.866
85313SOL    HW157836  14.344  11.680  14.831
85313SOL    HW257837  14.216  11.607  14.795
85314SOL     OW57838  12.274  14.610   9.741
85314SOL    HW157839  12.249  14.526   9.703
85314SOL    HW257840  12.206  14.671   9.713
85315SOL     OW57841   1.140  14.388  11.970
85315SOL    HW157842   1.212  14.441  12.005
85315SOL    HW257843   1.082  14.375  12.045
85316SOL     OW57844  13.725   0.653   0.849
85316SOL    HW157845  13.776   0.616   0.921
85316SOL    HW257846  13.696   0.576   0.799
85317SOL     OW57847  13.793  14.078   7.437
85317SOL    HW157848  13.872  14.105   7.483
85317SOL    HW257849  13.727  14.070   7.506
85318SOL     OW57850   0.185   2.028   4.745
85318SOL    HW157851   0.097   2.063   4.756
85318SOL    HW257852   0.214   2.061   4.660
85319SOL     OW57853   4.533   8.060  13.932
85319SOL    HW157854   4.440   8.077  13.916
85319SOL    HW257855   4.538   7.966  13.952
85320SOL     OW57856  10.156   0.482  11.707
85320SOL    HW157857  10.104   0.556  11.676
85320SOL    HW257858  10.103   0.405  11.689
85321SOL     OW57859   7.739   5.335   1.887
85321SOL    HW157860   7.742   5.334   1.982
85321SOL    HW257861   7.792   5.410   1.861
85322SOL     OW57862  10.428   8.506  10.748
85322SOL    HW157863  10.485   8.506  10.825
85322SOL    HW257864  10.342   8.480  10.782
85323SOL     OW57865   1.904   7.470   9.125
85323SOL    HW157866   1.947   7.387   9.144
85323SOL    HW257867   1.960   7.536   9.166
85324SOL     OW57868   8.819   9.133  13.719
85324SOL    HW157869   8.837   9.227  13.726
85324SOL    HW257870   8.863   9.094  13.795
85325SOL     OW57871   8.660   9.248   9.754
85325SOL    HW157872   8.748   9.256   9.791
85325SOL    HW257873   8.655   9.319   9.690
85326SOL     OW57874  11.263   7.130   0.375
85326SOL    HW157875  11.186   7.085   0.343
85326SOL    HW257876  11.333   7.106   0.314
85327SOL     OW57877   3.905   9.578   9.771
85327SOL    HW157878   3.841   9.621   9.714
85327SOL    HW257879   3.925   9.644   9.838
85328SOL     OW57880   9.013  12.478   3.251
85328SOL    HW157881   9.058  12.492   3.334
85328SOL    HW257882   8.920  12.485   3.272
85329SOL     OW57883  11.022   0.478  11.338
85329SOL    HW157884  11.016   0.400  11.283
85329SOL    HW257885  11.088   0.533  11.294
85330SOL     OW57886   2.534  10.026  14.830
85330SOL    HW157887   2.606  10.088  14.845
85330SOL    HW257888   2.563   9.945   0.004
85331SOL     OW57889   3.399   0.117   5.944
85331SOL    HW157890   3.472   0.174   5.967
85331SOL    HW257891   3.340   0.173   5.894
85332SOL     OW57892   6.037  11.553  12.528
85332SOL    HW157893   6.050  11.488  12.597
85332SOL    HW257894   6.120  11.601  12.524
85333SOL     OW57895   0.115   5.141  14.215
85333SOL    HW157896   0.157   5.196  14.281
85333SOL    HW257897   0.022   5.144  14.236
85334SOL     OW57898  14.118  13.819   6.834
85334SOL    HW157899  14.035  13.819   6.883
85334SOL    HW257900  14.118  13.901   6.786
85335SOL     OW57901   8.965  12.515  10.099
85335SOL    HW157902   8.895  12.500  10.162
85335SOL    HW257903   9.039  12.545  10.152
85336SOL     OW57904  12.268   4.432  12.897
85336SOL    HW157905  12.201   4.419  12.965
85336SOL    HW257906  12.230   4.497  12.839
85337SOL     OW57907   8.157   2.564   4.587
85337SOL    HW157908   8.091   2.596   4.525
85337SOL    HW257909   8.107   2.533   4.662
85338SOL     OW57910   2.158   4.928   8.554
85338SOL    HW157911   2.196   4.921   8.642
85338SOL    HW257912   2.231   4.955   8.498
85339SOL     OW57913   3.753   0.037   6.175
85339SOL    HW157914   3.817  14.848   6.216
85339SOL    HW257915   3.799   0.121   6.168
85340SOL     OW57916   6.683  13.431   5.117
85340SOL    HW157917   6.632  13.510   5.102
85340SOL    HW257918   6.749  13.456   5.181
85341SOL     OW57919   2.521   4.218   0.622
85341SOL    HW157920   2.580   4.143   0.619
85341SOL    HW257921   2.531   4.260   0.537
85342SOL     OW57922  12.833   7.862  14.099
85342SOL    HW157923  12.773   7.852  14.025
85342SOL    HW257924  12.778   7.857  14.177
85343SOL     OW57925   4.988   8.074  10.200
85343SOL    HW157926   5.057   8.129  10.235
85343SOL    HW257927   4.938   8.046  10.277
85344SOL     OW57928  13.823   8.381  10.625
85344SOL    HW157929  13.885   8.321  10.584
85344SOL    HW257930  13.770   8.414  10.553
85345SOL     OW57931   7.530   2.482  11.417
85345SOL    HW157932   7.593   2.518  11.355
85345SOL    HW257933   7.533   2.388  11.403
85346SOL     OW57934   6.916  13.730  13.708
85346SOL    HW157935   6.835  13.773  13.734
85346SOL    HW257936   6.971  13.734  13.786
85347SOL     OW57937   5.968  14.352   3.619
85347SOL    HW157938   6.016  14.410   3.679
85347SOL    HW257939   6.027  14.341   3.544
85348SOL     OW57940   1.125   8.478  13.694
85348SOL    HW157941   1.035   8.458  13.721
85348SOL    HW257942   1.115   8.548  13.629
85349SOL     OW57943   7.168   1.075   3.817
85349SOL    HW157944   7.233   1.098   3.883
85349SOL    HW257945   7.168   0.980   3.814
85350SOL     OW57946  13.229  13.596   9.549
85350SOL    HW157947  13.209  13.515   9.502
85350SOL    HW257948  13.183  13.664   9.500
85351SOL     OW57949  13.838  12.040   4.873
85351SOL    HW157950  13.859  12.110   4.935
85351SOL    HW257951  13.790  11.975   4.925
85352SOL     OW57952   1.288   1.901  13.271
85352SOL    HW157953   1.262   1.932  13.358
85352SOL    HW257954   1.261   1.971  13.212
85353SOL     OW57955   4.894   0.931   6.339
85353SOL    HW157956   4.982   0.964   6.325
85353SOL    HW257957   4.838   1.008   6.337
85354SOL     OW57958   1.870  14.196   8.734
85354SOL    HW157959   1.907  14.110   8.714
85354SOL    HW257960   1.777  14.187   8.713
85355SOL     OW57961  12.729   1.699   1.942
85355SOL    HW157962  12.645   1.667   1.909
85355SOL    HW257963  12.762   1.756   1.872
85356SOL     OW57964   6.979   7.784   0.966
85356SOL    HW157965   7.059   7.734   0.951
85356SOL    HW257966   7.002   7.874   0.941
85357SOL     OW57967   9.652   5.662  11.776
85357SOL    HW157968   9.650   5.651  11.681
85357SOL    HW257969   9.578   5.610  11.807
85358SOL     OW57970   5.579   0.504   6.184
85358SOL    HW157971   5.639   0.560   6.233
85358SOL    HW257972   5.607   0.415   6.204
85359SOL     OW57973  10.475  12.394   3.712
85359SOL    HW157974  10.463  12.307   3.751
85359SOL    HW257975  10.406  12.400   3.645
85360SOL     OW57976   4.875  14.120   6.099
85360SOL    HW157977   4.877  14.204   6.146
85360SOL    HW257978   4.954  14.075   6.126
85361SOL     OW57979  13.039   9.372  10.626
85361SOL    HW157980  12.960   9.425  10.620
85361SOL    HW257981  13.031   9.327  10.710
85362SOL     OW57982  13.322  11.084   0.753
85362SOL    HW157983  13.350  11.015   0.813
85362SOL    HW257984  13.396  11.096   0.694
85363SOL     OW57985   0.389   8.629   5.067
85363SOL    HW157986   0.395   8.725   5.065
85363SOL    HW257987   0.297   8.610   5.046
85364SOL     OW57988  13.192  11.680  12.362
85364SOL    HW157989  13.287  11.669  12.365
85364SOL    HW257990  13.169  11.668  12.270
85365SOL     OW57991  10.842  12.023   9.040
85365SOL    HW157992  10.816  12.092   9.101
85365SOL    HW257993  10.936  12.036   9.027
85366SOL     OW57994   1.026  14.431   0.111
85366SOL    HW157995   1.100  14.430   0.173
85366SOL    HW257996   1.066  14.416   0.026
85367SOL     OW57997   2.710  10.297  14.569
85367SOL    HW157998   2.627  10.338  14.592
85367SOL    HW257999   2.763  10.305  14.648
85368SOL     OW58000  12.195  14.859  10.112
85368SOL    HW158001  12.128  14.791  10.105
85368SOL    HW258002  12.259  14.824  10.173
85369SOL     OW58003   6.218   7.644   1.540
85369SOL    HW158004   6.241   7.722   1.489
85369SOL    HW258005   6.141   7.670   1.590
85370SOL     OW58006   1.344   0.699   8.468
85370SOL    HW158007   1.291   0.623   8.442
85370SOL    HW258008   1.405   0.712   8.395
85371SOL     OW58009  10.052   4.252   1.730
85371SOL    HW158010  10.090   4.327   1.684
85371SOL    HW258011  10.126   4.211   1.775
85372SOL     OW58012   3.947   3.475  14.641
85372SOL    HW158013   3.872   3.531  14.625
85372SOL    HW258014   4.018   3.536  14.662
85373SOL     OW58015   4.485   1.184   3.895
85373SOL    HW158016   4.469   1.254   3.832
85373SOL    HW258017   4.416   1.194   3.960
85374SOL     OW58018  14.353   9.543  12.286
85374SOL    HW158019  14.392   9.630  12.290
85374SOL    HW258020  14.322   9.525  12.375
85375SOL     OW58021   5.521  13.539   4.867
85375SOL    HW158022   5.542  13.567   4.956
85375SOL    HW258023   5.519  13.619   4.816
85376SOL     OW58024  10.887   2.378   4.838
85376SOL    HW158025  10.969   2.332   4.822
85376SOL    HW258026  10.845   2.385   4.752
85377SOL     OW58027   3.662   9.902   4.568
85377SOL    HW158028   3.714   9.822   4.558
85377SOL    HW258029   3.616   9.891   4.651
85378SOL     OW58030   6.995   7.672   7.653
85378SOL    HW158031   6.902   7.683   7.635
85378SOL    HW258032   7.016   7.742   7.714
85379SOL     OW58033   9.652  12.908   9.876
85379SOL    HW158034   9.712  12.971   9.835
85379SOL    HW258035   9.578  12.903   9.817
85380SOL     OW58036   5.352  13.816   2.899
85380SOL    HW158037   5.389  13.795   2.984
85380SOL    HW258038   5.285  13.882   2.917
85381SOL     OW58039  10.848   0.416  12.257
85381SOL    HW158040  10.868   0.500  12.216
85381SOL    HW258041  10.902   0.414  12.336
85382SOL     OW58042   8.393  10.103   5.753
85382SOL    HW158043   8.352  10.018   5.770
85382SOL    HW258044   8.382  10.152   5.834
85383SOL     OW58045   4.090   9.772   9.426
85383SOL    HW158046   4.099   9.808   9.338
85383SOL    HW258047   4.142   9.831   9.481
85384SOL     OW58048  13.084   0.393   1.769
85384SOL    HW158049  13.148   0.334   1.730
85384SOL    HW258050  13.126   0.479   1.768
85385SOL     OW58051  11.784   4.292  13.027
85385SOL    HW158052  11.764   4.344  13.105
85385SOL    HW258053  11.854   4.233  13.055
85386SOL     OW58054   2.988   4.155   3.197
85386SOL    HW158055   2.999   4.070   3.239
85386SOL    HW258056   2.985   4.217   3.270
85387SOL     OW58057   8.396   0.613   4.002
85387SOL    HW158058   8.437   0.692   3.966
85387SOL    HW258059   8.456   0.583   4.069
85388SOL     OW58060  10.558   1.373   3.369
85388SOL    HW158061  10.640   1.354   3.414
85388SOL    HW258062  10.583   1.380   3.277
85389SOL     OW58063  14.751  11.251  11.532
85389SOL    HW158064  14.728  11.160  11.548
85389SOL    HW258065  14.747  11.261  11.437
85390SOL     OW58066   6.650  14.325  11.874
85390SOL    HW158067   6.733  14.369  11.855
85390SOL    HW258068   6.657  14.299  11.966
85391SOL     OW58069   3.177  12.097   8.933
85391SOL    HW158070   3.189  12.181   8.977
85391SOL    HW258071   3.263  12.055   8.937
85392SOL     OW58072  13.726   2.825  13.477
85392SOL    HW158073  13.791   2.887  13.508
85392SOL    HW258074  13.642   2.869  13.491
85393SOL     OW58075   7.371  10.562   1.511
85393SOL    HW158076   7.367  10.513   1.429
85393SOL    HW258077   7.328  10.645   1.491
85394SOL     OW58078   8.075   2.408  10.947
85394SOL    HW158079   8.086   2.455  10.865
85394SOL    HW258080   8.063   2.316  10.921
85395SOL     OW58081   4.772   8.853   9.049
85395SOL    HW158082   4.718   8.862   8.970
85395SOL    HW258083   4.747   8.768   9.085
85396SOL     OW58084   0.491   5.305   3.254
85396SOL    HW158085   0.443   5.227   3.283
85396SOL    HW258086   0.467   5.373   3.317
85397SOL     OW58087  12.757   2.971   7.281
85397SOL    HW158088  12.684   2.951   7.340
85397SOL    HW258089  12.813   2.893   7.284
85398SOL     OW58090   1.445   7.096  10.618
85398SOL    HW158091   1.431   7.027  10.553
85398SOL    HW258092   1.526   7.140  10.590
85399SOL     OW58093   7.612  10.680   5.143
85399SOL    HW158094   7.553  10.605   5.152
85399SOL    HW258095   7.559  10.748   5.103
85400SOL     OW58096   2.234   1.101  11.647
85400SOL    HW158097   2.160   1.139  11.600
85400SOL    HW258098   2.300   1.170  11.647
85401SOL     OW58099   0.153  13.387   0.748
85401SOL    HW158100   0.102  13.307   0.757
85401SOL    HW258101   0.181  13.407   0.838
85402SOL     OW58102   2.978   8.913   7.567
85402SOL    HW158103   2.931   8.996   7.570
85402SOL    HW258104   3.011   8.907   7.477
85403SOL     OW58105   7.926   1.389  11.933
85403SOL    HW158106   7.892   1.387  12.022
85403SOL    HW258107   7.964   1.302  11.920
85404SOL     OW58108   5.341   6.090   5.579
85404SOL    HW158109   5.283   6.014   5.572
85404SOL    HW258110   5.363   6.113   5.489
85405SOL     OW58111   6.802   5.003  12.802
85405SOL    HW158112   6.720   4.961  12.774
85405SOL    HW258113   6.858   4.998  12.725
85406SOL     OW58114   3.631   6.567   4.014
85406SOL    HW158115   3.688   6.513   4.070
85406SOL    HW258116   3.682   6.579   3.933
85407SOL     OW58117   3.318   4.304   0.061
85407SOL    HW158118   3.301   4.233   0.000
85407SOL    HW258119   3.410   4.292   0.087
85408SOL     OW58120   1.147   9.029   7.898
85408SOL    HW158121   1.091   8.952   7.908
85408SOL    HW258122   1.093   9.102   7.931
85409SOL     OW58123   9.050   1.650  12.677
85409SOL    HW158124   8.983   1.634  12.744
85409SOL    HW258125   9.074   1.742  12.688
85410SOL     OW58126  14.811  14.546   8.057
85410SOL    HW158127  14.858  14.472   8.018
85410SOL    HW258128  14.726  14.510   8.081
85411SOL     OW58129  12.581  12.487  12.215
85411SOL    HW158130  12.659  12.539  12.230
85411SOL    HW258131  12.570  12.437  12.296
85412SOL     OW58132   7.229   5.754   2.867
85412SOL    HW158133   7.241   5.832   2.812
85412SOL    HW258134   7.214   5.789   2.955
85413SOL     OW58135   4.667   9.525  12.696
85413SOL    HW158136   4.743   9.549  12.643
85413SOL    HW258137   4.651   9.602  12.751
85414SOL     OW58138   7.522   5.555   3.809
85414SOL    HW158139   7.490   5.535   3.721
85414SOL    HW258140   7.477   5.492   3.866
85415SOL     OW58141   3.917   6.963   2.549
85415SOL    HW158142   3.962   6.879   2.538
85415SOL    HW258143   3.850   6.946   2.614
85416SOL     OW58144   5.322   5.833   3.566
85416SOL    HW158145   5.318   5.738   3.579
85416SOL    HW258146   5.310   5.845   3.472
85417SOL     OW58147   8.424  14.140  13.216
85417SOL    HW158148   8.363  14.204  13.180
85417SOL    HW258149   8.368  14.070  13.250
85418SOL     OW58150   0.918   5.071   4.989
85418SOL    HW158151   0.974   4.997   5.011
85418SOL    HW258152   0.832   5.031   4.971
85419SOL     OW58153  13.449  13.681   9.666
85419SOL    HW158154  13.424  13.704   9.755
85419SOL    HW258155  13.369  13.646   9.627
85420SOL     OW58156  10.823  11.842   4.529
85420SOL    HW158157  10.854  11.763   4.485
85420SOL    HW258158  10.893  11.906   4.515
85421SOL     OW58159  13.012  13.899   8.798
85421SOL    HW158160  13.099  13.869   8.769
85421SOL    HW258161  12.988  13.967   8.735
85422SOL     OW58162  12.805   1.661  12.319
85422SOL    HW158163  12.817   1.644  12.413
85422SOL    HW258164  12.894   1.658  12.283
85423SOL     OW58165  12.331   6.621   5.513
85423SOL    HW158166  12.324   6.526   5.523
85423SOL    HW258167  12.270   6.657   5.577
85424SOL     OW58168   2.598  11.716  13.522
85424SOL    HW158169   2.553  11.781  13.467
85424SOL    HW258170   2.531  11.684  13.582
85425SOL     OW58171  11.165   5.599   6.492
85425SOL    HW158172  11.130   5.609   6.403
85425SOL    HW258173  11.197   5.686   6.515
85426SOL     OW58174   5.276   3.511   3.106
85426SOL    HW158175   5.340   3.441   3.099
85426SOL    HW258176   5.325   3.590   3.083
85427SOL     OW58177  11.955   0.459   0.469
85427SOL    HW158178  12.006   0.538   0.447
85427SOL    HW258179  11.957   0.407   0.389
85428SOL     OW58180  13.749   4.292   1.973
85428SOL    HW158181  13.707   4.209   1.996
85428SOL    HW258182  13.686   4.336   1.917
85429SOL     OW58183   7.224   1.760   8.566
85429SOL    HW158184   7.274   1.683   8.540
85429SOL    HW258185   7.194   1.741   8.655
85430SOL     OW58186   6.243   5.763   6.786
85430SOL    HW158187   6.264   5.777   6.694
85430SOL    HW258188   6.225   5.670   6.793
85431SOL     OW58189   7.331   1.533   8.477
85431SOL    HW158190   7.348   1.450   8.522
85431SOL    HW258191   7.409   1.548   8.424
85432SOL     OW58192   9.235  14.525   2.439
85432SOL    HW158193   9.293  14.512   2.514
85432SOL    HW258194   9.246  14.447   2.386
85433SOL     OW58195   3.170  12.431  11.049
85433SOL    HW158196   3.187  12.404  11.139
85433SOL    HW258197   3.126  12.356  11.009
85434SOL     OW58198  12.804  10.658   7.338
85434SOL    HW158199  12.828  10.697   7.422
85434SOL    HW258200  12.743  10.720   7.299
85435SOL     OW58201   2.657   8.781   3.194
85435SOL    HW158202   2.622   8.740   3.114
85435SOL    HW258203   2.652   8.875   3.177
85436SOL     OW58204  12.525  13.181  10.764
85436SOL    HW158205  12.454  13.117  10.760
85436SOL    HW258206  12.519  13.228  10.681
85437SOL     OW58207   2.526   8.886   9.470
85437SOL    HW158208   2.611   8.849   9.496
85437SOL    HW258209   2.520   8.868   9.377
85438SOL     OW58210   4.906  10.118   6.613
85438SOL    HW158211   4.930  10.138   6.522
85438SOL    HW258212   4.990  10.109   6.659
85439SOL     OW58213  11.291   9.752   5.808
85439SOL    HW158214  11.355   9.823   5.798
85439SOL    HW258215  11.210   9.788   5.771
85440SOL     OW58216   9.265   7.361   3.411
85440SOL    HW158217   9.322   7.353   3.334
85440SOL    HW258218   9.244   7.454   3.416
85441SOL     OW58219  11.204   7.217   2.118
85441SOL    HW158220  11.234   7.263   2.196
85441SOL    HW258221  11.109   7.221   2.122
85442SOL     OW58222   5.168   7.767  12.166
85442SOL    HW158223   5.137   7.730  12.084
85442SOL    HW258224   5.258   7.737  12.174
85443SOL     OW58225  13.584  11.252   6.580
85443SOL    HW158226  13.541  11.183   6.630
85443SOL    HW258227  13.628  11.306   6.645
85444SOL     OW58228  10.920   3.788   1.312
85444SOL    HW158229  10.986   3.811   1.247
85444SOL    HW258230  10.929   3.853   1.381
85445SOL     OW58231   2.388  14.438  14.786
85445SOL    HW158232   2.472  14.482  14.799
85445SOL    HW258233   2.369  14.450  14.693
85446SOL     OW58234   8.465   2.575   2.609
85446SOL    HW158235   8.399   2.644   2.596
85446SOL    HW258236   8.416   2.500   2.641
85447SOL     OW58237   0.671   3.188   0.397
85447SOL    HW158238   0.592   3.242   0.400
85447SOL    HW258239   0.743   3.251   0.389
85448SOL     OW58240   5.855   8.452  13.595
85448SOL    HW158241   5.811   8.534  13.617
85448SOL    HW258242   5.882   8.417  13.680
85449SOL     OW58243   3.720   3.772  13.736
85449SOL    HW158244   3.685   3.828  13.806
85449SOL    HW258245   3.681   3.686  13.752
85450SOL     OW58246   8.077   0.984  14.347
85450SOL    HW158247   8.162   0.963  14.386
85450SOL    HW258248   8.021   0.911  14.371
85451SOL     OW58249   4.599  12.493   3.412
85451SOL    HW158250   4.550  12.514   3.333
85451SOL    HW258251   4.595  12.572   3.465
85452SOL     OW58252  13.755   8.831  12.145
85452SOL    HW158253  13.832   8.776  12.161
85452SOL    HW258254  13.690   8.772  12.108
85453SOL     OW58255   7.548   8.883   0.507
85453SOL    HW158256   7.532   8.795   0.540
85453SOL    HW258257   7.487   8.894   0.434
85454SOL     OW58258   6.315   2.657   1.068
85454SOL    HW158259   6.366   2.714   1.126
85454SOL    HW258260   6.270   2.717   1.009
85455SOL     OW58261   9.790  13.621   4.486
85455SOL    HW158262   9.838  13.665   4.415
85455SOL    HW258263   9.777  13.532   4.453
85456SOL     OW58264   9.538   5.373   3.074
85456SOL    HW158265   9.620   5.422   3.080
85456SOL    HW258266   9.539   5.337   2.985
85457SOL     OW58267  10.809   8.866   1.910
85457SOL    HW158268  10.839   8.798   1.849
85457SOL    HW258269  10.875   8.935   1.904
85458SOL     OW58270   7.234   9.372   5.191
85458SOL    HW158271   7.225   9.367   5.286
85458SOL    HW258272   7.325   9.347   5.175
85459SOL     OW58273   4.008   4.483   2.386
85459SOL    HW158274   3.989   4.571   2.354
85459SOL    HW258275   4.045   4.437   2.311
85460SOL     OW58276  13.662   5.258   5.016
85460SOL    HW158277  13.641   5.188   4.955
85460SOL    HW258278  13.639   5.338   4.968
85461SOL     OW58279  11.558   4.763   1.187
85461SOL    HW158280  11.523   4.714   1.112
85461SOL    HW258281  11.621   4.703   1.228
85462SOL     OW58282   0.545   2.757   2.570
85462SOL    HW158283   0.481   2.688   2.586
85462SOL    HW258284   0.630   2.716   2.586
85463SOL     OW58285   7.347   8.846   4.314
85463SOL    HW158286   7.433   8.814   4.342
85463SOL    HW258287   7.287   8.775   4.337
85464SOL     OW58288  11.133   5.609   5.993
85464SOL    HW158289  11.065   5.630   5.928
85464SOL    HW258290  11.121   5.516   6.011
85465SOL     OW58291   7.933   7.916  12.046
85465SOL    HW158292   7.953   7.905  11.953
85465SOL    HW258293   7.924   8.011  12.058
85466SOL     OW58294   8.258  11.502   8.757
85466SOL    HW158295   8.172  11.518   8.795
85466SOL    HW258296   8.250  11.530   8.666
85467SOL     OW58297   1.491   1.711   6.722
85467SOL    HW158298   1.561   1.746   6.667
85467SOL    HW258299   1.421   1.776   6.716
85468SOL     OW58300   0.918   4.258   0.923
85468SOL    HW158301   0.897   4.186   0.983
85468SOL    HW258302   0.966   4.321   0.977
85469SOL     OW58303  12.240  14.042   8.592
85469SOL    HW158304  12.170  14.046   8.657
85469SOL    HW258305  12.251  14.132   8.562
85470SOL     OW58306  10.493   1.718   0.402
85470SOL    HW158307  10.585   1.746   0.408
85470SOL    HW258308  10.487   1.643   0.461
85471SOL     OW58309  12.891   3.232  11.107
85471SOL    HW158310  12.983   3.211  11.097
85471SOL    HW258311  12.848   3.148  11.122
85472SOL     OW58312   2.526  11.812   6.723
85472SOL    HW158313   2.444  11.788   6.680
85472SOL    HW258314   2.546  11.738   6.780
85473SOL     OW58315   0.663  13.009   5.538
85473SOL    HW158316   0.617  12.949   5.596
85473SOL    HW258317   0.728  12.955   5.493
85474SOL     OW58318  14.711   4.034   9.753
85474SOL    HW158319  14.677   3.945   9.745
85474SOL    HW258320  14.797   4.022   9.794
85475SOL     OW58321   9.095   8.146   8.996
85475SOL    HW158322   9.048   8.227   8.977
85475SOL    HW258323   9.092   8.138   9.091
85476SOL     OW58324   5.245   8.433   2.512
85476SOL    HW158325   5.284   8.394   2.591
85476SOL    HW258326   5.243   8.362   2.449
85477SOL     OW58327   9.555   6.324   9.846
85477SOL    HW158328   9.513   6.361   9.924
85477SOL    HW258329   9.599   6.398   9.805
85478SOL     OW58330   5.746   6.671  10.261
85478SOL    HW158331   5.741   6.760  10.227
85478SOL    HW258332   5.836   6.662  10.292
85479SOL     OW58333  11.574  13.121   8.934
85479SOL    HW158334  11.612  13.069   9.005
85479SOL    HW258335  11.641  13.120   8.866
85480SOL     OW58336  14.813  10.415   0.023
85480SOL    HW158337  14.734  10.424   0.076
85480SOL    HW258338   0.015  10.437   0.083
85481SOL     OW58339   0.200  10.624  11.467
85481SOL    HW158340   0.143  10.568  11.414
85481SOL    HW258341   0.281  10.630  11.416
85482SOL     OW58342   6.387   5.691   3.120
85482SOL    HW158343   6.418   5.644   3.198
85482SOL    HW258344   6.327   5.757   3.154
85483SOL     OW58345  11.592   6.302   5.838
85483SOL    HW158346  11.639   6.285   5.756
85483SOL    HW258347  11.545   6.383   5.822
85484SOL     OW58348  13.765   9.351   0.134
85484SOL    HW158349  13.739   9.373   0.223
85484SOL    HW258350  13.839   9.290   0.145
85485SOL     OW58351  11.588   8.423   6.024
85485SOL    HW158352  11.544   8.457   6.102
85485SOL    HW258353  11.612   8.334   6.046
85486SOL     OW58354   0.358  12.933   4.567
85486SOL    HW158355   0.381  12.980   4.487
85486SOL    HW258356   0.395  12.845   4.555
85487SOL     OW58357  11.034  13.614   3.838
85487SOL    HW158358  10.975  13.587   3.909
85487SOL    HW258359  10.976  13.654   3.773
85488SOL     OW58360   8.532   5.207  12.884
85488SOL    HW158361   8.483   5.183  12.805
85488SOL    HW258362   8.467   5.242  12.944
85489SOL     OW58363   5.137  13.642  14.716
85489SOL    HW158364   5.128  13.735  14.695
85489SOL    HW258365   5.066  13.599  14.668
85490SOL     OW58366   4.402   4.275  10.512
85490SOL    HW158367   4.479   4.330  10.531
85490SOL    HW258368   4.408   4.203  10.575
85491SOL     OW58369  13.807  14.004   6.423
85491SOL    HW158370  13.838  13.914   6.411
85491SOL    HW258371  13.806  14.041   6.335
85492SOL     OW58372   0.107  10.335   0.928
85492SOL    HW158373   0.039  10.402   0.921
85492SOL    HW258374   0.183  10.374   0.885
85493SOL     OW58375   4.669   6.249   7.050
85493SOL    HW158376   4.587   6.290   7.024
85493SOL    HW258377   4.648   6.156   7.062
85494SOL     OW58378   2.185   0.891   8.393
85494SOL    HW158379   2.203   0.809   8.347
85494SOL    HW258380   2.135   0.943   8.331
85495SOL     OW58381   7.797  11.655  13.085
85495SOL    HW158382   7.708  11.629  13.059
85495SOL    HW258383   7.854  11.604  13.027
85496SOL     OW58384   2.651   4.629   0.509
85496SOL    HW158385   2.596   4.581   0.571
85496SOL    HW258386   2.734   4.581   0.509
85497SOL     OW58387  14.250   9.057   1.771
85497SOL    HW158388  14.230   9.057   1.677
85497SOL    HW258389  14.265   8.965   1.791
85498SOL     OW58390   2.299  13.045   9.436
85498SOL    HW158391   2.349  13.124   9.455
85498SOL    HW258392   2.239  13.071   9.366
85499SOL     OW58393   8.301   1.840   2.903
85499SOL    HW158394   8.301   1.826   2.808
85499SOL    HW258395   8.210   1.826   2.929
85500SOL     OW58396  11.348  13.115   2.260
85500SOL    HW158397  11.278  13.114   2.325
85500SOL    HW258398  11.428  13.128   2.312
85501SOL     OW58399   5.495  13.427   9.586
85501SOL    HW158400   5.512  13.339   9.552
85501SOL    HW258401   5.581  13.470   9.583
85502SOL     OW58402   6.755   3.768  14.685
85502SOL    HW158403   6.797   3.742  14.603
85502SOL    HW258404   6.801   3.717  14.752
85503SOL     OW58405  10.977  13.046   7.151
85503SOL    HW158406  10.979  12.987   7.075
85503SOL    HW258407  11.054  13.020   7.202
85504SOL     OW58408   0.739   6.638   5.565
85504SOL    HW158409   0.766   6.668   5.478
85504SOL    HW258410   0.689   6.711   5.601
85505SOL     OW58411  10.253   0.344   9.854
85505SOL    HW158412  10.265   0.439   9.856
85505SOL    HW258413  10.261   0.318   9.946
85506SOL     OW58414  14.106  14.232   2.365
85506SOL    HW158415  14.077  14.322   2.347
85506SOL    HW258416  14.037  14.196   2.420
85507SOL     OW58417  10.631   8.945   6.788
85507SOL    HW158418  10.585   9.020   6.827
85507SOL    HW258419  10.717   8.945   6.830
85508SOL     OW58420   9.299   0.932   5.161
85508SOL    HW158421   9.342   0.954   5.078
85508SOL    HW258422   9.292   1.015   5.207
85509SOL     OW58423   3.482  13.598  13.624
85509SOL    HW158424   3.525  13.674  13.663
85509SOL    HW258425   3.392  13.602  13.656
85510SOL     OW58426   5.942  10.424   8.831
85510SOL    HW158427   5.938  10.353   8.895
85510SOL    HW258428   5.968  10.501   8.882
85511SOL     OW58429  13.029   2.317   5.441
85511SOL    HW158430  13.062   2.284   5.525
85511SOL    HW258431  13.104   2.365   5.404
85512SOL     OW58432  10.621  13.018   7.635
85512SOL    HW158433  10.649  12.937   7.678
85512SOL    HW258434  10.526  13.007   7.625
85513SOL     OW58435   1.436   3.180   2.818
85513SOL    HW158436   1.450   3.157   2.910
85513SOL    HW258437   1.524   3.198   2.785
85514SOL     OW58438  12.640   5.586  11.037
85514SOL    HW158439  12.684   5.623  10.961
85514SOL    HW258440  12.548   5.612  11.026
85515SOL     OW58441   0.220   3.922  12.525
85515SOL    HW158442   0.183   3.966  12.448
85515SOL    HW258443   0.144   3.896  12.577
85516SOL     OW58444  13.740  12.111   2.849
85516SOL    HW158445  13.709  12.027   2.815
85516SOL    HW258446  13.679  12.134   2.918
85517SOL     OW58447   2.826  10.124  11.622
85517SOL    HW158448   2.892  10.063  11.589
85517SOL    HW258449   2.809  10.183  11.549
85518SOL     OW58450   0.568   5.369  13.568
85518SOL    HW158451   0.488   5.392  13.520
85518SOL    HW258452   0.586   5.278  13.543
85519SOL     OW58453   7.210   6.526   4.151
85519SOL    HW158454   7.170   6.439   4.138
85519SOL    HW258455   7.281   6.510   4.214
85520SOL     OW58456  12.729   3.975   5.184
85520SOL    HW158457  12.672   4.044   5.216
85520SOL    HW258458  12.670   3.902   5.164
85521SOL     OW58459  12.490  13.050   7.253
85521SOL    HW158460  12.414  13.108   7.244
85521SOL    HW258461  12.479  12.985   7.184
85522SOL     OW58462   7.943   7.104   0.395
85522SOL    HW158463   7.883   7.105   0.321
85522SOL    HW258464   7.992   7.023   0.386
85523SOL     OW58465  13.590   0.792   6.452
85523SOL    HW158466  13.508   0.756   6.418
85523SOL    HW258467  13.567   0.829   6.537
85524SOL     OW58468   2.534   3.291   1.736
85524SOL    HW158469   2.594   3.298   1.811
85524SOL    HW258470   2.573   3.223   1.681
85525SOL     OW58471   1.840  12.779  10.582
85525SOL    HW158472   1.899  12.745  10.649
85525SOL    HW258473   1.759  12.729  10.594
85526SOL     OW58474   4.084   4.625  10.382
85526SOL    HW158475   4.161   4.672  10.352
85526SOL    HW258476   4.113   4.578  10.460
85527SOL     OW58477   6.110   2.735  12.744
85527SOL    HW158478   6.031   2.714  12.794
85527SOL    HW258479   6.170   2.662  12.761
85528SOL     OW58480   6.895   6.147   5.785
85528SOL    HW158481   6.804   6.116   5.781
85528SOL    HW258482   6.943   6.086   5.729
85529SOL     OW58483   0.972   6.415  11.159
85529SOL    HW158484   1.057   6.408  11.203
85529SOL    HW258485   0.984   6.371  11.075
85530SOL     OW58486   4.269   0.296   1.692
85530SOL    HW158487   4.350   0.344   1.708
85530SOL    HW258488   4.291   0.232   1.624
85531SOL     OW58489   7.123   8.904   5.337
85531SOL    HW158490   7.095   8.958   5.264
85531SOL    HW258491   7.041   8.876   5.379
85532SOL     OW58492   9.461   4.717  10.303
85532SOL    HW158493   9.540   4.721  10.357
85532SOL    HW258494   9.418   4.636  10.329
85533SOL     OW58495   3.183   1.190   9.943
85533SOL    HW158496   3.159   1.201  10.035
85533SOL    HW258497   3.210   1.278   9.915
85534SOL     OW58498   3.366   3.579   8.276
85534SOL    HW158499   3.380   3.672   8.257
85534SOL    HW258500   3.411   3.564   8.359
85535SOL     OW58501   6.202   2.905   0.187
85535SOL    HW158502   6.155   2.916   0.270
85535SOL    HW258503   6.250   2.823   0.197
85536SOL     OW58504   9.601   7.282   9.843
85536SOL    HW158505   9.535   7.303   9.777
85536SOL    HW258506   9.683   7.276   9.793
85537SOL     OW58507   3.159  12.655  13.975
85537SOL    HW158508   3.241  12.622  13.938
85537SOL    HW258509   3.182  12.684  14.063
85538SOL     OW58510  11.236  14.431   1.979
85538SOL    HW158511  11.245  14.460   1.888
85538SOL    HW258512  11.208  14.509   2.026
85539SOL     OW58513   0.282   1.660   0.877
85539SOL    HW158514   0.330   1.582   0.849
85539SOL    HW258515   0.193   1.628   0.895
85540SOL     OW58516   4.907   3.919  12.161
85540SOL    HW158517   4.822   3.963  12.148
85540SOL    HW258518   4.891   3.859  12.234
85541SOL     OW58519   0.042   7.317  12.507
85541SOL    HW158520   0.045   7.221  12.502
85541SOL    HW258521  14.861   7.344  12.431
85542SOL     OW58522   6.750   8.824   6.560
85542SOL    HW158523   6.842   8.845   6.575
85542SOL    HW258524   6.719   8.792   6.645
85543SOL     OW58525  13.887   9.429   3.838
85543SOL    HW158526  13.972   9.393   3.814
85543SOL    HW258527  13.872   9.499   3.775
85544SOL     OW58528   9.519   0.401   6.461
85544SOL    HW158529   9.457   0.384   6.531
85544SOL    HW258530   9.484   0.477   6.415
85545SOL     OW58531   3.147  14.696   7.048
85545SOL    HW158532   3.098  14.747   7.113
85545SOL    HW258533   3.079  14.661   6.990
85546SOL     OW58534   4.628  12.272   6.481
85546SOL    HW158535   4.535  12.282   6.457
85546SOL    HW258536   4.627  12.219   6.560
85547SOL     OW58537  13.822  12.107  12.822
85547SOL    HW158538  13.764  12.080  12.893
85547SOL    HW258539  13.862  12.025  12.792
85548SOL     OW58540  14.199  12.629   8.992
85548SOL    HW158541  14.231  12.662   8.908
85548SOL    HW258542  14.243  12.683   9.058
85549SOL     OW58543   6.352  14.661  13.612
85549SOL    HW158544   6.443  14.690  13.627
85549SOL    HW258545   6.357  14.566  13.615
85550SOL     OW58546   9.561  12.177  12.810
85550SOL    HW158547   9.523  12.195  12.896
85550SOL    HW258548   9.634  12.239  12.803
85551SOL     OW58549  12.476   9.238  10.158
85551SOL    HW158550  12.445   9.232  10.067
85551SOL    HW258551  12.562   9.279  10.151
85552SOL     OW58552   2.350   7.007   6.971
85552SOL    HW158553   2.321   6.965   6.890
85552SOL    HW258554   2.440   7.033   6.954
85553SOL     OW58555   8.792   7.792  12.108
85553SOL    HW158556   8.730   7.827  12.172
85553SOL    HW258557   8.815   7.867  12.054
85554SOL     OW58558   1.247  12.291  11.567
85554SOL    HW158559   1.287  12.248  11.491
85554SOL    HW258560   1.297  12.257  11.642
85555SOL     OW58561  11.643  14.196   5.945
85555SOL    HW158562  11.624  14.109   5.913
85555SOL    HW258563  11.594  14.255   5.887
85556SOL     OW58564  14.281   5.300  14.005
85556SOL    HW158565  14.192   5.337  14.005
85556SOL    HW258566  14.338   5.376  13.995
85557SOL     OW58567   5.182  12.154   0.530
85557SOL    HW158568   5.272  12.174   0.558
85557SOL    HW258569   5.193  12.111   0.446
85558SOL     OW58570   0.165  10.020   1.359
85558SOL    HW158571   0.152  10.101   1.409
85558SOL    HW258572   0.202  10.049   1.275
85559SOL     OW58573   3.923   6.012   5.971
85559SOL    HW158574   3.850   5.953   5.992
85559SOL    HW258575   3.941   5.996   5.879
85560SOL     OW58576   8.730   1.884   6.410
85560SOL    HW158577   8.704   1.894   6.318
85560SOL    HW258578   8.649   1.894   6.459
85561SOL     OW58579   7.149   1.843   6.105
85561SOL    HW158580   7.182   1.922   6.146
85561SOL    HW258581   7.147   1.777   6.175
85562SOL     OW58582  11.769   8.478  13.036
85562SOL    HW158583  11.764   8.385  13.011
85562SOL    HW258584  11.849   8.484  13.088
85563SOL     OW58585   9.517   7.839   2.412
85563SOL    HW158586   9.498   7.858   2.320
85563SOL    HW258587   9.468   7.759   2.431
85564SOL     OW58588   2.695   8.047   1.005
85564SOL    HW158589   2.604   8.017   1.001
85564SOL    HW258590   2.717   8.045   1.098
85565SOL     OW58591   5.735   3.886  11.019
85565SOL    HW158592   5.706   3.848  11.102
85565SOL    HW258593   5.672   3.854  10.955
85566SOL     OW58594  12.915   3.925  14.851
85566SOL    HW158595  13.000   3.890   0.005
85566SOL    HW258596  12.932   3.979  14.774
85567SOL     OW58597  11.447   5.860   6.213
85567SOL    HW158598  11.389   5.903   6.277
85567SOL    HW258599  11.390   5.835   6.141
85568SOL     OW58600   4.412  10.607   5.723
85568SOL    HW158601   4.391  10.622   5.815
85568SOL    HW258602   4.335  10.563   5.688
85569SOL     OW58603   3.909   1.886   8.839
85569SOL    HW158604   3.843   1.949   8.867
85569SOL    HW258605   3.984   1.903   8.897
85570SOL     OW58606   7.495  11.840  11.197
85570SOL    HW158607   7.519  11.844  11.289
85570SOL    HW258608   7.539  11.916  11.157
85571SOL     OW58609  11.051   5.517   7.321
85571SOL    HW158610  11.029   5.446   7.260
85571SOL    HW258611  11.056   5.595   7.266
85572SOL     OW58612   4.578  10.155   3.663
85572SOL    HW158613   4.532  10.089   3.611
85572SOL    HW258614   4.648  10.107   3.707
85573SOL     OW58615   7.429   6.749  13.282
85573SOL    HW158616   7.336   6.770  13.274
85573SOL    HW258617   7.455   6.789  13.366
85574SOL     OW58618  14.346   5.012   6.947
85574SOL    HW158619  14.333   4.925   6.985
85574SOL    HW258620  14.429   5.005   6.899
85575SOL     OW58621  11.044   4.685   1.735
85575SOL    HW158622  11.068   4.774   1.710
85575SOL    HW258623  10.981   4.695   1.806
85576SOL     OW58624  12.267   4.222  12.483
85576SOL    HW158625  12.296   4.263  12.401
85576SOL    HW258626  12.249   4.295  12.542
85577SOL     OW58627   4.784  14.261   7.718
85577SOL    HW158628   4.735  14.179   7.726
85577SOL    HW258629   4.857  14.240   7.660
85578SOL     OW58630  11.219  12.816   3.591
85578SOL    HW158631  11.140  12.870   3.581
85578SOL    HW258632  11.211  12.750   3.521
85579SOL     OW58633   0.258  10.038   9.339
85579SOL    HW158634   0.232  10.076   9.423
85579SOL    HW258635   0.177  10.005   9.301
85580SOL     OW58636  14.287   2.019   9.827
85580SOL    HW158637  14.314   1.928   9.823
85580SOL    HW258638  14.297   2.052   9.738
85581SOL     OW58639   7.544   5.103  10.997
85581SOL    HW158640   7.584   5.092  10.910
85581SOL    HW258641   7.513   5.016  11.021
85582SOL     OW58642  13.561   9.839  11.986
85582SOL    HW158643  13.653   9.827  11.961
85582SOL    HW258644  13.545   9.773  12.052
85583SOL     OW58645   3.506   3.908  14.383
85583SOL    HW158646   3.437   3.971  14.403
85583SOL    HW258647   3.583   3.961  14.364
85584SOL     OW58648  11.128   3.792   6.843
85584SOL    HW158649  11.206   3.798   6.788
85584SOL    HW258650  11.107   3.882   6.866
85585SOL     OW58651   9.513   5.417  10.159
85585SOL    HW158652   9.606   5.439  10.159
85585SOL    HW258653   9.511   5.321  10.156
85586SOL     OW58654   5.949   1.998   0.686
85586SOL    HW158655   5.887   2.002   0.758
85586SOL    HW258656   5.903   2.037   0.612
85587SOL     OW58657   7.345  11.109   7.348
85587SOL    HW158658   7.258  11.118   7.308
85587SOL    HW258659   7.394  11.054   7.287
85588SOL     OW58660   2.646   8.354   1.010
85588SOL    HW158661   2.708   8.407   0.960
85588SOL    HW258662   2.660   8.264   0.979
85589SOL     OW58663   1.431   7.885   6.876
85589SOL    HW158664   1.524   7.904   6.881
85589SOL    HW258665   1.392   7.965   6.842
85590SOL     OW58666   8.244   3.452   3.903
85590SOL    HW158667   8.186   3.401   3.959
85590SOL    HW258668   8.209   3.541   3.906
85591SOL     OW58669   7.111  12.575  10.273
85591SOL    HW158670   7.080  12.658  10.236
85591SOL    HW258671   7.064  12.508  10.222
85592SOL     OW58672   2.024   9.090   0.320
85592SOL    HW158673   2.024   9.186   0.327
85592SOL    HW258674   2.116   9.066   0.335
85593SOL     OW58675  12.461   4.336  12.731
85593SOL    HW158676  12.420   4.380  12.806
85593SOL    HW258677  12.507   4.407  12.684
85594SOL     OW58678   0.145   7.549   0.148
85594SOL    HW158679   0.070   7.557   0.206
85594SOL    HW258680   0.221   7.549   0.206
85595SOL     OW58681   5.279   0.973  10.468
85595SOL    HW158682   5.353   0.929  10.510
85595SOL    HW258683   5.281   1.062  10.504
85596SOL     OW58684  13.884   4.403  10.406
85596SOL    HW158685  13.959   4.344  10.412
85596SOL    HW258686  13.815   4.350  10.367
85597SOL     OW58687  12.440   7.764   0.279
85597SOL    HW158688  12.456   7.730   0.367
85597SOL    HW258689  12.450   7.689   0.221
85598SOL     OW58690  11.816   1.414   0.892
85598SOL    HW158691  11.730   1.451   0.912
85598SOL    HW258692  11.829   1.432   0.799
85599SOL     OW58693   8.808  14.443   3.466
85599SOL    HW158694   8.787  14.367   3.520
85599SOL    HW258695   8.722  14.479   3.441
85600SOL     OW58696  12.758  11.129   6.193
85600SOL    HW158697  12.766  11.198   6.127
85600SOL    HW258698  12.762  11.176   6.277
85601SOL     OW58699   4.550   1.933   7.736
85601SOL    HW158700   4.555   1.947   7.831
85601SOL    HW258701   4.456   1.936   7.716
85602SOL     OW58702   3.030   6.025   1.187
85602SOL    HW158703   3.074   6.100   1.147
85602SOL    HW258704   3.018   6.050   1.279
85603SOL     OW58705   3.850   0.484  10.089
85603SOL    HW158706   3.833   0.390  10.096
85603SOL    HW258707   3.797   0.513  10.015
85604SOL     OW58708  10.813   9.148  13.118
85604SOL    HW158709  10.799   9.180  13.029
85604SOL    HW258710  10.731   9.105  13.141
85605SOL     OW58711  10.724  10.419  11.522
85605SOL    HW158712  10.818  10.414  11.500
85605SOL    HW258713  10.696  10.328  11.526
85606SOL     OW58714  13.611   4.437   3.562
85606SOL    HW158715  13.523   4.475   3.560
85606SOL    HW258716  13.597   4.346   3.588
85607SOL     OW58717   6.146  10.157  13.173
85607SOL    HW158718   6.234  10.144  13.139
85607SOL    HW258719   6.141  10.250  13.194
85608SOL     OW58720  14.424  11.154  12.620
85608SOL    HW158721  14.406  11.203  12.700
85608SOL    HW258722  14.450  11.067  12.651
85609SOL     OW58723  11.006   6.898   1.694
85609SOL    HW158724  10.954   6.817   1.701
85609SOL    HW258725  10.951   6.958   1.644
85610SOL     OW58726   8.105   0.868  12.034
85610SOL    HW158727   8.074   0.924  12.105
85610SOL    HW258728   8.089   0.779  12.066
85611SOL     OW58729   0.432   3.551  10.015
85611SOL    HW158730   0.377   3.618   9.974
85611SOL    HW258731   0.425   3.568  10.109
85612SOL     OW58732   3.099   1.434  11.655
85612SOL    HW158733   3.095   1.450  11.561
85612SOL    HW258734   3.080   1.341  11.665
85613SOL     OW58735  13.450   4.708  13.045
85613SOL    HW158736  13.469   4.662  12.963
85613SOL    HW258737  13.523   4.687  13.102
85614SOL     OW58738   1.793   3.058   3.858
85614SOL    HW158739   1.702   3.074   3.884
85614SOL    HW258740   1.831   3.145   3.847
85615SOL     OW58741  12.674  14.195   2.860
85615SOL    HW158742  12.646  14.130   2.925
85615SOL    HW258743  12.768  14.182   2.851
85616SOL     OW58744  11.524  10.527   8.733
85616SOL    HW158745  11.515  10.518   8.828
85616SOL    HW258746  11.596  10.590   8.722
85617SOL     OW58747   1.699   8.462   1.268
85617SOL    HW158748   1.728   8.525   1.202
85617SOL    HW258749   1.643   8.401   1.220
85618SOL     OW58750  11.998   8.621  13.593
85618SOL    HW158751  11.932   8.606  13.662
85618SOL    HW258752  12.052   8.542  13.594
85619SOL     OW58753   2.953  12.296   8.728
85619SOL    HW158754   2.905  12.346   8.663
85619SOL    HW258755   3.035  12.273   8.685
85620SOL     OW58756   3.353   2.940   9.380
85620SOL    HW158757   3.288   2.934   9.450
85620SOL    HW258758   3.429   2.892   9.414
85621SOL     OW58759   5.554  12.712   9.484
85621SOL    HW158760   5.477  12.673   9.526
85621SOL    HW258761   5.534  12.806   9.481
85622SOL     OW58762   2.714  10.738  10.078
85622SOL    HW158763   2.669  10.674  10.023
85622SOL    HW258764   2.721  10.816  10.023
85623SOL     OW58765  10.758  10.952   8.840
85623SOL    HW158766  10.794  10.865   8.856
85623SOL    HW258767  10.761  10.962   8.745
85624SOL     OW58768   8.327   7.826   9.747
85624SOL    HW158769   8.312   7.873   9.829
85624SOL    HW258770   8.367   7.743   9.775
85625SOL     OW58771  12.916   2.083   9.977
85625SOL    HW158772  12.844   2.140   9.951
85625SOL    HW258773  12.906   2.005   9.923
85626SOL     OW58774   3.758  10.973  14.689
85626SOL    HW158775   3.671  10.942  14.714
85626SOL    HW258776   3.742  11.037  14.620
85627SOL     OW58777  11.360  12.638   2.912
85627SOL    HW158778  11.332  12.668   2.999
85627SOL    HW258779  11.450  12.611   2.925
85628SOL     OW58780   7.609   2.931   6.558
85628SOL    HW158781   7.556   2.963   6.485
85628SOL    HW258782   7.677   2.878   6.517
85629SOL     OW58783   5.098   7.906  10.471
85629SOL    HW158784   5.165   7.972  10.491
85629SOL    HW258785   5.021   7.957  10.445
85630SOL     OW58786   0.224   5.601  14.834
85630SOL    HW158787   0.210   5.657  14.758
85630SOL    HW258788   0.316   5.576  14.828
85631SOL     OW58789   2.917   5.133  10.228
85631SOL    HW158790   2.839   5.094  10.188
85631SOL    HW258791   2.982   5.133  10.158
85632SOL     OW58792   4.898   5.606   6.476
85632SOL    HW158793   4.962   5.551   6.522
85632SOL    HW258794   4.940   5.627   6.393
85633SOL     OW58795  12.212  13.825  13.240
85633SOL    HW158796  12.305  13.814  13.224
85633SOL    HW258797  12.182  13.740  13.273
85634SOL     OW58798   2.234   1.710   8.637
85634SOL    HW158799   2.281   1.634   8.669
85634SOL    HW258800   2.157   1.674   8.592
85635SOL     OW58801  14.207   1.763   6.485
85635SOL    HW158802  14.238   1.844   6.526
85635SOL    HW258803  14.266   1.749   6.411
85636SOL     OW58804  13.571   0.146   8.420
85636SOL    HW158805  13.582   0.141   8.325
85636SOL    HW258806  13.516   0.071   8.442
85637SOL     OW58807  13.643   6.561   8.268
85637SOL    HW158808  13.572   6.621   8.246
85637SOL    HW258809  13.599   6.480   8.293
85638SOL     OW58810  11.166   2.983   6.770
85638SOL    HW158811  11.208   2.899   6.751
85638SOL    HW258812  11.081   2.959   6.809
85639SOL     OW58813  14.379   9.881   6.895
85639SOL    HW158814  14.350   9.853   6.808
85639SOL    HW258815  14.323   9.955   6.917
85640SOL     OW58816   3.109  14.448  11.023
85640SOL    HW158817   3.052  14.457  10.947
85640SOL    HW258818   3.059  14.484  11.096
85641SOL     OW58819   8.086   5.413   1.291
85641SOL    HW158820   8.115   5.485   1.347
85641SOL    HW258821   8.137   5.423   1.211
85642SOL     OW58822  10.386   1.282   1.251
85642SOL    HW158823  10.464   1.317   1.294
85642SOL    HW258824  10.354   1.355   1.197
85643SOL     OW58825  14.465   9.116  10.854
85643SOL    HW158826  14.505   9.037  10.891
85643SOL    HW258827  14.467   9.102  10.759
85644SOL     OW58828   7.048   7.321   3.363
85644SOL    HW158829   7.060   7.319   3.268
85644SOL    HW258830   7.136   7.311   3.399
85645SOL     OW58831   1.179  12.459   2.190
85645SOL    HW158832   1.217  12.421   2.111
85645SOL    HW258833   1.104  12.509   2.159
85646SOL     OW58834   0.312  12.323   0.560
85646SOL    HW158835   0.219  12.331   0.536
85646SOL    HW258836   0.359  12.356   0.483
85647SOL     OW58837   5.755   2.392   5.215
85647SOL    HW158838   5.724   2.306   5.243
85647SOL    HW258839   5.689   2.422   5.152
85648SOL     OW58840   4.441  12.307  13.079
85648SOL    HW158841   4.513  12.338  13.134
85648SOL    HW258842   4.460  12.341  12.992
85649SOL     OW58843   2.149   8.136  13.672
85649SOL    HW158844   2.201   8.169  13.599
85649SOL    HW258845   2.210   8.085  13.724
85650SOL     OW58846  14.780   3.545  10.461
85650SOL    HW158847  14.686   3.562  10.460
85650SOL    HW258848  14.816   3.612  10.519
85651SOL     OW58849   1.374   1.741   8.924
85651SOL    HW158850   1.301   1.688   8.892
85651SOL    HW258851   1.392   1.802   8.853
85652SOL     OW58852   1.301  12.783   4.715
85652SOL    HW158853   1.339  12.809   4.631
85652SOL    HW258854   1.281  12.867   4.758
85653SOL     OW58855  13.819  12.778   2.404
85653SOL    HW158856  13.892  12.755   2.461
85653SOL    HW258857  13.742  12.773   2.460
85654SOL     OW58858   2.986  12.386   3.622
85654SOL    HW158859   2.917  12.374   3.688
85654SOL    HW258860   2.993  12.300   3.580
85655SOL     OW58861   1.806   4.423   9.241
85655SOL    HW158862   1.901   4.412   9.243
85655SOL    HW258863   1.785   4.433   9.148
85656SOL     OW58864   4.580  13.434   6.838
85656SOL    HW158865   4.529  13.512   6.860
85656SOL    HW258866   4.555  13.369   6.904
85657SOL     OW58867   6.555   6.085   9.318
85657SOL    HW158868   6.480   6.127   9.277
85657SOL    HW258869   6.614   6.157   9.341
85658SOL     OW58870   2.142   9.635   2.527
85658SOL    HW158871   2.212   9.592   2.575
85658SOL    HW258872   2.061   9.603   2.568
85659SOL     OW58873   0.608   2.796  11.465
85659SOL    HW158874   0.656   2.718  11.493
85659SOL    HW258875   0.523   2.762  11.436
85660SOL     OW58876   1.951  14.515   1.752
85660SOL    HW158877   1.916  14.537   1.838
85660SOL    HW258878   1.919  14.586   1.695
85661SOL     OW58879   6.834  10.047   3.113
85661SOL    HW158880   6.747  10.039   3.075
85661SOL    HW258881   6.838   9.978   3.179
85662SOL     OW58882  12.201   3.299  12.314
85662SOL    HW158883  12.144   3.375  12.299
85662SOL    HW258884  12.286   3.325  12.278
85663SOL     OW58885   0.195  10.653   2.023
85663SOL    HW158886   0.262  10.596   1.984
85663SOL    HW258887   0.113  10.607   2.008
85664SOL     OW58888   7.775   5.036  12.826
85664SOL    HW158889   7.756   4.946  12.852
85664SOL    HW258890   7.871   5.043  12.833
85665SOL     OW58891   9.589  13.730  13.713
85665SOL    HW158892   9.637  13.647  13.704
85665SOL    HW258893   9.634  13.790  13.654
85666SOL     OW58894  14.573  11.834   1.534
85666SOL    HW158895  14.640  11.795   1.478
85666SOL    HW258896  14.565  11.924   1.502
85667SOL     OW58897   9.551   8.282  13.570
85667SOL    HW158898   9.506   8.256  13.490
85667SOL    HW258899   9.635   8.236  13.567
85668SOL     OW58900   8.653   9.395   0.266
85668SOL    HW158901   8.577   9.446   0.292
85668SOL    HW258902   8.683   9.436   0.185
85669SOL     OW58903   2.444   7.238   3.571
85669SOL    HW158904   2.515   7.177   3.593
85669SOL    HW258905   2.366   7.183   3.564
85670SOL     OW58906   7.312   1.023   5.696
85670SOL    HW158907   7.332   1.107   5.736
85670SOL    HW258908   7.336   0.958   5.762
85671SOL     OW58909   5.986   4.766  10.235
85671SOL    HW158910   6.002   4.725  10.150
85671SOL    HW258911   5.927   4.839  10.216
85672SOL     OW58912   8.208  14.123   6.872
85672SOL    HW158913   8.146  14.087   6.808
85672SOL    HW258914   8.153  14.169   6.936
85673SOL     OW58915   6.359   0.565   6.205
85673SOL    HW158916   6.334   0.475   6.182
85673SOL    HW258917   6.435   0.554   6.262
85674SOL     OW58918   5.257   5.559  14.426
85674SOL    HW158919   5.251   5.475  14.470
85674SOL    HW258920   5.253   5.538  14.333
85675SOL     OW58921   3.316   8.860   1.336
85675SOL    HW158922   3.241   8.824   1.383
85675SOL    HW258923   3.312   8.955   1.352
85676SOL     OW58924  14.803   1.192   5.846
85676SOL    HW158925   0.026   1.213   5.834
85676SOL    HW258926  14.785   1.126   5.779
85677SOL     OW58927   7.319  12.434   0.876
85677SOL    HW158928   7.343  12.513   0.827
85677SOL    HW258929   7.287  12.467   0.960
85678SOL     OW58930   9.557   8.224  11.752
85678SOL    HW158931   9.637   8.175  11.733
85678SOL    HW258932   9.556   8.232  11.848
85679SOL     OW58933   2.303   8.082  10.922
85679SOL    HW158934   2.306   8.018  10.850
85679SOL    HW258935   2.380   8.137  10.907
85680SOL     OW58936   7.606   9.350  12.875
85680SOL    HW158937   7.564   9.419  12.824
85680SOL    HW258938   7.698   9.354  12.849
85681SOL     OW58939  11.864   3.959   8.049
85681SOL    HW158940  11.847   3.866   8.034
85681SOL    HW258941  11.842   4.001   7.966
85682SOL     OW58942   7.029  12.207  10.962
85682SOL    HW158943   6.990  12.293  10.978
85682SOL    HW258944   6.955  12.152  10.934
85683SOL     OW58945   3.184   8.653   4.711
85683SOL    HW158946   3.214   8.742   4.694
85683SOL    HW258947   3.124   8.633   4.640
85684SOL     OW58948   3.347  11.651  14.479
85684SOL    HW158949   3.368  11.610  14.395
85684SOL    HW258950   3.256  11.626  14.495
85685SOL     OW58951  14.766  12.073   9.658
85685SOL    HW158952  14.785  12.017   9.733
85685SOL    HW258953  14.852  12.093   9.620
85686SOL     OW58954   9.979   3.897   2.317
85686SOL    HW158955   9.983   3.820   2.373
85686SOL    HW258956   9.886   3.910   2.300
85687SOL     OW58957   9.855   6.872  11.725
85687SOL    HW158958   9.902   6.817  11.787
85687SOL    HW258959   9.794   6.813  11.681
85688SOL     OW58960  11.627  11.556   6.075
85688SOL    HW158961  11.696  11.602   6.122
85688SOL    HW258962  11.606  11.481   6.131
85689SOL     OW58963   0.072   1.295   7.558
85689SOL    HW158964   0.113   1.378   7.581
85689SOL    HW258965   0.071   1.295   7.462
85690SOL     OW58966   2.839   0.415  12.022
85690SOL    HW158967   2.781   0.468  12.076
85690SOL    HW258968   2.863   0.471  11.949
85691SOL     OW58969  14.117   1.627   0.683
85691SOL    HW158970  14.204   1.649   0.718
85691SOL    HW258971  14.104   1.536   0.707
85692SOL     OW58972   9.206   1.914   5.639
85692SOL    HW158973   9.211   2.010   5.639
85692SOL    HW258974   9.157   1.893   5.559
85693SOL     OW58975   4.432  11.978   3.147
85693SOL    HW158976   4.479  11.965   3.230
85693SOL    HW258977   4.341  11.957   3.168
85694SOL     OW58978   8.012   2.902   3.012
85694SOL    HW158979   8.017   2.979   2.955
85694SOL    HW258980   8.007   2.828   2.952
85695SOL     OW58981   2.849   2.805   0.380
85695SOL    HW158982   2.831   2.841   0.467
85695SOL    HW258983   2.769   2.759   0.356
85696SOL     OW58984   2.525   9.333   8.114
85696SOL    HW158985   2.510   9.281   8.193
85696SOL    HW258986   2.453   9.311   8.056
85697SOL     OW58987   6.594  12.379   4.919
85697SOL    HW158988   6.599  12.415   4.831
85697SOL    HW258989   6.526  12.312   4.915
85698SOL     OW58990   9.927   9.484   1.493
85698SOL    HW158991   9.886   9.557   1.447
85698SOL    HW258992  10.017   9.483   1.462
85699SOL     OW58993   3.907   8.531   9.867
85699SOL    HW158994   3.964   8.608   9.858
85699SOL    HW258995   3.967   8.459   9.887
85700SOL     OW58996  10.186   9.591   6.074
85700SOL    HW158997  10.253   9.615   6.138
85700SOL    HW258998  10.214   9.632   5.992
85701SOL     OW58999   5.650   6.307  10.473
85701SOL    HW159000   5.628   6.392  10.513
85701SOL    HW259001   5.582   6.248  10.504
85702SOL     OW59002   0.266   6.336   9.552
85702SOL    HW159003   0.208   6.277   9.601
85702SOL    HW259004   0.208   6.379   9.489
85703SOL     OW59005  14.176   0.650  13.406
85703SOL    HW159006  14.209   0.612  13.325
85703SOL    HW259007  14.207   0.591  13.475
85704SOL     OW59008   0.061   7.290   4.771
85704SOL    HW159009   0.002   7.356   4.808
85704SOL    HW259010   0.004   7.221   4.738
85705SOL     OW59011   3.583   5.199   4.851
85705SOL    HW159012   3.665   5.238   4.883
85705SOL    HW259013   3.519   5.222   4.918
85706SOL     OW59014  12.912   7.986   4.971
85706SOL    HW159015  12.910   7.922   5.042
85706SOL    HW259016  12.879   7.938   4.895
85707SOL     OW59017  12.462   8.583  11.619
85707SOL    HW159018  12.504   8.637  11.685
85707SOL    HW259019  12.369   8.586  11.641
85708SOL     OW59020   2.727   9.492  12.068
85708SOL    HW159021   2.670   9.471  12.141
85708SOL    HW259022   2.692   9.574  12.033
85709SOL     OW59023   4.064   3.384   2.968
85709SOL    HW159024   4.056   3.437   3.047
85709SOL    HW259025   4.150   3.407   2.932
85710SOL     OW59026   9.642   4.533  12.726
85710SOL    HW159027   9.566   4.492  12.768
85710SOL    HW259028   9.612   4.621  12.703
85711SOL     OW59029  12.405   6.253   0.519
85711SOL    HW159030  12.465   6.327   0.520
85711SOL    HW259031  12.425   6.207   0.437
85712SOL     OW59032  14.328   0.577   6.171
85712SOL    HW159033  14.409   0.626   6.161
85712SOL    HW259034  14.346   0.514   6.240
85713SOL     OW59035  11.063  13.364  13.822
85713SOL    HW159036  11.122  13.386  13.895
85713SOL    HW259037  11.033  13.275  13.842
85714SOL     OW59038   0.606  14.138  13.516
85714SOL    HW159039   0.651  14.192  13.451
85714SOL    HW259040   0.569  14.066  13.465
85715SOL     OW59041   2.724   7.290   7.482
85715SOL    HW159042   2.688   7.244   7.558
85715SOL    HW259043   2.652   7.346   7.452
85716SOL     OW59044  13.460   4.579   0.462
85716SOL    HW159045  13.412   4.662   0.452
85716SOL    HW259046  13.412   4.517   0.407
85717SOL     OW59047   6.322   6.477  12.653
85717SOL    HW159048   6.253   6.450  12.592
85717SOL    HW259049   6.368   6.547  12.608
85718SOL     OW59050   2.659  13.183   6.869
85718SOL    HW159051   2.708  13.103   6.849
85718SOL    HW259052   2.630  13.216   6.784
85719SOL     OW59053   9.318   5.907   2.571
85719SOL    HW159054   9.402   5.950   2.562
85719SOL    HW259055   9.254   5.970   2.538
85720SOL     OW59056   4.780  11.318   7.801
85720SOL    HW159057   4.813  11.332   7.713
85720SOL    HW259058   4.818  11.389   7.853
85721SOL     OW59059   3.980  11.943   6.070
85721SOL    HW159060   4.018  11.856   6.082
85721SOL    HW259061   3.887  11.932   6.094
85722SOL     OW59062   0.256   0.506   6.646
85722SOL    HW159063   0.173   0.469   6.676
85722SOL    HW259064   0.290   0.553   6.722
85723SOL     OW59065   2.450   1.066   7.067
85723SOL    HW159066   2.498   1.148   7.061
85723SOL    HW259067   2.395   1.064   6.989
85724SOL     OW59068   2.488   1.005   6.702
85724SOL    HW159069   2.440   0.946   6.644
85724SOL    HW259070   2.422   1.039   6.762
85725SOL     OW59071   2.553  10.706   6.967
85725SOL    HW159072   2.597  10.739   7.045
85725SOL    HW259073   2.555  10.611   6.976
85726SOL     OW59074   8.553  12.014   5.495
85726SOL    HW159075   8.577  11.964   5.417
85726SOL    HW259076   8.506  12.090   5.461
85727SOL     OW59077  12.317   1.784   2.287
85727SOL    HW159078  12.365   1.820   2.362
85727SOL    HW259079  12.379   1.787   2.215
85728SOL     OW59080   8.904   8.258   2.568
85728SOL    HW159081   8.911   8.163   2.576
85728SOL    HW259082   8.923   8.276   2.476
85729SOL     OW59083   1.871   7.782  11.892
85729SOL    HW159084   1.946   7.724  11.899
85729SOL    HW259085   1.804   7.743  11.948
85730SOL     OW59086   8.650  13.431   1.792
85730SOL    HW159087   8.728  13.466   1.749
85730SOL    HW259088   8.585  13.424   1.722
85731SOL     OW59089   1.747   9.778   0.495
85731SOL    HW159090   1.816   9.798   0.431
85731SOL    HW259091   1.689   9.854   0.491
85732SOL     OW59092   7.116  14.320   2.335
85732SOL    HW159093   7.195  14.268   2.350
85732SOL    HW259094   7.102  14.316   2.240
85733SOL     OW59095   9.989   1.361  13.208
85733SOL    HW159096   9.974   1.313  13.289
85733SOL    HW259097   9.922   1.429  13.207
85734SOL     OW59098   2.021   1.363   0.114
85734SOL    HW159099   1.984   1.407   0.037
85734SOL    HW259100   1.979   1.405   0.189
85735SOL     OW59101  10.243   9.362   3.759
85735SOL    HW159102  10.283   9.281   3.728
85735SOL    HW259103  10.317   9.418   3.783
85736SOL     OW59104   6.022  11.595  10.748
85736SOL    HW159105   6.051  11.506  10.767
85736SOL    HW259106   5.929  11.595  10.768
85737SOL     OW59107   0.217  13.500   2.198
85737SOL    HW159108   0.129  13.538   2.201
85737SOL    HW259109   0.239  13.485   2.290
85738SOL     OW59110   1.103  12.842  13.892
85738SOL    HW159111   1.071  12.773  13.951
85738SOL    HW259112   1.064  12.922  13.927
85739SOL     OW59113   0.616  12.743   0.082
85739SOL    HW159114   0.629  12.782   0.168
85739SOL    HW259115   0.660  12.658   0.087
85740SOL     OW59116   2.168   4.408   4.163
85740SOL    HW159117   2.217   4.472   4.214
85740SOL    HW259118   2.176   4.438   4.073
85741SOL     OW59119   1.717   0.683   9.650
85741SOL    HW159120   1.800   0.699   9.695
85741SOL    HW259121   1.742   0.634   9.571
85742SOL     OW59122   6.522  13.553   9.803
85742SOL    HW159123   6.557  13.556   9.714
85742SOL    HW259124   6.541  13.640   9.839
85743SOL     OW59125   5.930   9.916   7.849
85743SOL    HW159126   5.871   9.893   7.920
85743SOL    HW259127   5.872   9.932   7.774
85744SOL     OW59128   2.250  10.899   9.350
85744SOL    HW159129   2.230  10.905   9.444
85744SOL    HW259130   2.207  10.976   9.312
85745SOL     OW59131   6.141  13.173   4.017
85745SOL    HW159132   6.116  13.265   4.029
85745SOL    HW259133   6.111  13.152   3.928
85746SOL     OW59134   5.325  13.306  12.908
85746SOL    HW159135   5.271  13.382  12.887
85746SOL    HW259136   5.358  13.275  12.824
85747SOL     OW59137   0.144   0.374   2.478
85747SOL    HW159138   0.114   0.289   2.510
85747SOL    HW259139   0.092   0.438   2.525
85748SOL     OW59140   6.766  14.851   0.683
85748SOL    HW159141   6.740   0.072   0.696
85748SOL    HW259142   6.777  14.842   0.588
85749SOL     OW59143   9.587   8.543   0.140
85749SOL    HW159144   9.557   8.633   0.149
85749SOL    HW259145   9.533   8.506   0.070
85750SOL     OW59146   9.030  10.232   8.858
85750SOL    HW159147   9.022  10.226   8.953
85750SOL    HW259148   9.124  10.222   8.841
85751SOL     OW59149   4.083   7.026  12.068
85751SOL    HW159150   3.994   7.036  12.100
85751SOL    HW259151   4.085   6.938  12.029
85752SOL     OW59152   2.711  12.605  12.635
85752SOL    HW159153   2.669  12.605  12.549
85752SOL    HW259154   2.641  12.576  12.695
85753SOL     OW59155   2.672   9.468  11.102
85753SOL    HW159156   2.713   9.383  11.119
85753SOL    HW259157   2.738   9.518  11.054
85754SOL     OW59158   7.087  10.587   7.270
85754SOL    HW159159   7.065  10.565   7.361
85754SOL    HW259160   7.143  10.664   7.278
85755SOL     OW59161  12.913  14.669   3.981
85755SOL    HW159162  12.991  14.620   4.009
85755SOL    HW259163  12.945  14.758   3.966
85756SOL     OW59164   0.769   8.316   9.388
85756SOL    HW159165   0.695   8.294   9.331
85756SOL    HW259166   0.784   8.409   9.372
85757SOL     OW59167  10.183  12.296  11.909
85757SOL    HW159168  10.245  12.228  11.882
85757SOL    HW259169  10.103  12.247  11.931
85758SOL     OW59170   0.909   6.337   1.073
85758SOL    HW159171   0.831   6.385   1.102
85758SOL    HW259172   0.916   6.264   1.135
85759SOL     OW59173   2.425  14.822   1.076
85759SOL    HW159174   2.426  14.735   1.116
85759SOL    HW259175   2.355  14.818   1.011
85760SOL     OW59176   4.074   0.671  10.389
85760SOL    HW159177   4.124   0.597  10.355
85760SOL    HW259178   4.113   0.747  10.346
85761SOL     OW59179   5.947   8.755   4.474
85761SOL    HW159180   5.982   8.681   4.524
85761SOL    HW259181   5.914   8.816   4.541
85762SOL     OW59182   0.954   1.864  14.609
85762SOL    HW159183   1.038   1.830  14.639
85762SOL    HW259184   0.940   1.944  14.661
85763SOL     OW59185  13.861  14.049   8.562
85763SOL    HW159186  13.787  13.991   8.581
85763SOL    HW259187  13.831  14.103   8.489
85764SOL     OW59188  14.161  13.701   3.552
85764SOL    HW159189  14.086  13.701   3.492
85764SOL    HW259190  14.232  13.740   3.502
85765SOL     OW59191   9.489  10.939   0.900
85765SOL    HW159192   9.570  10.892   0.920
85765SOL    HW259193   9.421  10.871   0.906
85766SOL     OW59194   6.935   5.995   7.459
85766SOL    HW159195   6.960   6.042   7.380
85766SOL    HW259196   7.012   5.943   7.482
85767SOL     OW59197  10.823   7.330  10.971
85767SOL    HW159198  10.814   7.238  10.947
85767SOL    HW259199  10.913   7.338  11.003
85768SOL     OW59200  13.460  13.298   6.705
85768SOL    HW159201  13.541  13.246   6.708
85768SOL    HW259202  13.490  13.388   6.712
85769SOL     OW59203   5.748   1.647  12.982
85769SOL    HW159204   5.716   1.705  13.050
85769SOL    HW259205   5.831   1.614  13.016
85770SOL     OW59206   5.758  13.043  12.526
85770SOL    HW159207   5.735  13.049  12.434
85770SOL    HW259208   5.843  13.000  12.527
85771SOL     OW59209  14.255  14.206   8.581
85771SOL    HW159210  14.170  14.239   8.611
85771SOL    HW259211  14.246  14.111   8.582
85772SOL     OW59212  11.171   0.835  11.332
85772SOL    HW159213  11.242   0.898  11.322
85772SOL    HW259214  11.209   0.751  11.305
85773SOL     OW59215   7.761   7.971   4.975
85773SOL    HW159216   7.720   7.922   5.046
85773SOL    HW259217   7.724   7.933   4.895
85774SOL     OW59218   6.599   4.880  13.951
85774SOL    HW159219   6.602   4.910  13.860
85774SOL    HW259220   6.618   4.787  13.945
85775SOL     OW59221   8.730   9.157  14.334
85775SOL    HW159222   8.725   9.083  14.272
85775SOL    HW259223   8.689   9.124  14.414
85776SOL     OW59224   6.742   0.420  13.472
85776SOL    HW159225   6.734   0.365  13.550
85776SOL    HW259226   6.834   0.447  13.471
85777SOL     OW59227  13.198   6.807   4.144
85777SOL    HW159228  13.150   6.734   4.185
85777SOL    HW259229  13.230   6.771   4.062
85778SOL     OW59230   1.424   5.898   0.629
85778SOL    HW159231   1.429   5.890   0.725
85778SOL    HW259232   1.513   5.918   0.602
85779SOL     OW59233   3.501  11.320   9.171
85779SOL    HW159234   3.512  11.410   9.201
85779SOL    HW259235   3.462  11.274   9.246
85780SOL     OW59236  12.106   3.192   2.678
85780SOL    HW159237  12.145   3.107   2.660
85780SOL    HW259238  12.031   3.172   2.734
85781SOL     OW59239  13.847   8.213   0.112
85781SOL    HW159240  13.919   8.169   0.158
85781SOL    HW259241  13.880   8.228   0.024
85782SOL     OW59242  12.261  12.504   2.665
85782SOL    HW159243  12.175  12.536   2.691
85782SOL    HW259244  12.280  12.432   2.725
85783SOL     OW59245   1.896  10.428   1.596
85783SOL    HW159246   1.805  10.435   1.625
85783SOL    HW259247   1.936  10.512   1.620
85784SOL     OW59248  13.047   3.373  10.742
85784SOL    HW159249  13.037   3.326  10.660
85784SOL    HW259250  13.029   3.307  10.810
85785SOL     OW59251  11.605   2.680  12.331
85785SOL    HW159252  11.622   2.586  12.324
85785SOL    HW259253  11.687   2.721  12.302
85786SOL     OW59254   0.901  12.044  12.145
85786SOL    HW159255   0.943  11.960  12.164
85786SOL    HW259256   0.959  12.109  12.184
85787SOL     OW59257   8.786   2.944   6.080
85787SOL    HW159258   8.790   2.952   6.175
85787SOL    HW259259   8.718   2.878   6.065
85788SOL     OW59260   6.520   0.304   0.503
85788SOL    HW159261   6.442   0.353   0.530
85788SOL    HW259262   6.487   0.241   0.438
85789SOL     OW59263   3.229  11.557   2.781
85789SOL    HW159264   3.237  11.652   2.774
85789SOL    HW259265   3.203  11.541   2.872
85790SOL     OW59266   8.873   5.274   3.531
85790SOL    HW159267   8.951   5.222   3.552
85790SOL    HW259268   8.858   5.257   3.438
85791SOL     OW59269  10.847   5.840   3.296
85791SOL    HW159270  10.850   5.789   3.377
85791SOL    HW259271  10.936   5.836   3.261
85792SOL     OW59272   2.532   8.898   4.838
85792SOL    HW159273   2.610   8.907   4.783
85792SOL    HW259274   2.545   8.815   4.885
85793SOL     OW59275  10.963  13.550   4.855
85793SOL    HW159276  10.908  13.550   4.934
85793SOL    HW259277  10.960  13.459   4.824
85794SOL     OW59278   2.871   9.335   9.198
85794SOL    HW159279   2.802   9.309   9.258
85794SOL    HW259280   2.945   9.280   9.220
85795SOL     OW59281  11.583   9.529  13.874
85795SOL    HW159282  11.538   9.530  13.789
85795SOL    HW259283  11.652   9.596  13.865
85796SOL     OW59284  12.833   1.947   0.462
85796SOL    HW159285  12.853   1.896   0.540
85796SOL    HW259286  12.898   1.918   0.397
85797SOL     OW59287  12.461   2.515  11.244
85797SOL    HW159288  12.446   2.603  11.210
85797SOL    HW259289  12.506   2.529  11.327
85798SOL     OW59290   2.475  11.234   2.872
85798SOL    HW159291   2.495  11.169   2.805
85798SOL    HW259292   2.511  11.197   2.953
85799SOL     OW59293   5.209   5.297   8.566
85799SOL    HW159294   5.284   5.310   8.625
85799SOL    HW259295   5.221   5.208   8.532
85800SOL     OW59296   4.616   3.353  10.077
85800SOL    HW159297   4.641   3.384  10.164
85800SOL    HW259298   4.699   3.333  10.033
85801SOL     OW59299   3.014   4.844  11.438
85801SOL    HW159300   3.050   4.932  11.439
85801SOL    HW259301   2.996   4.826  11.345
85802SOL     OW59302   0.679  11.104  10.106
85802SOL    HW159303   0.738  11.114  10.031
85802SOL    HW259304   0.592  11.102  10.067
85803SOL     OW59305  11.115  14.465   5.884
85803SOL    HW159306  11.044  14.513   5.926
85803SOL    HW259307  11.089  14.459   5.792
85804SOL     OW59308  14.397  10.292   2.440
85804SOL    HW159309  14.443  10.360   2.392
85804SOL    HW259310  14.330  10.338   2.491
85805SOL     OW59311   7.105   8.872   0.953
85805SOL    HW159312   7.089   8.873   1.047
85805SOL    HW259313   7.050   8.942   0.919
85806SOL     OW59314   8.293  10.036   4.272
85806SOL    HW159315   8.218   9.978   4.287
85806SOL    HW259316   8.255  10.121   4.253
85807SOL     OW59317   9.582   9.862  10.552
85807SOL    HW159318   9.611   9.797  10.488
85807SOL    HW259319   9.562   9.812  10.631
85808SOL     OW59320   9.427   9.923  12.168
85808SOL    HW159321   9.409   9.956  12.256
85808SOL    HW259322   9.350   9.870  12.147
85809SOL     OW59323  10.634   4.886  13.556
85809SOL    HW159324  10.616   4.957  13.494
85809SOL    HW259325  10.729   4.874  13.553
85810SOL     OW59326  12.490   7.882   9.111
85810SOL    HW159327  12.449   7.889   9.198
85810SOL    HW259328  12.430   7.826   9.062
85811SOL     OW59329   6.322   6.408   6.586
85811SOL    HW159330   6.270   6.484   6.561
85811SOL    HW259331   6.374   6.437   6.660
85812SOL     OW59332   6.270   1.708   7.155
85812SOL    HW159333   6.217   1.635   7.185
85812SOL    HW259334   6.344   1.668   7.110
85813SOL     OW59335   7.317  10.385  12.100
85813SOL    HW159336   7.347  10.385  12.191
85813SOL    HW259337   7.382  10.439  12.054
85814SOL     OW59338   2.048   9.531   1.368
85814SOL    HW159339   2.001   9.582   1.434
85814SOL    HW259340   2.128   9.581   1.351
85815SOL     OW59341  11.776   1.219   3.477
85815SOL    HW159342  11.828   1.148   3.514
85815SOL    HW259343  11.766   1.281   3.550
85816SOL     OW59344   3.490   7.813   6.478
85816SOL    HW159345   3.565   7.771   6.436
85816SOL    HW259346   3.486   7.900   6.438
85817SOL     OW59347   2.751   7.481   0.604
85817SOL    HW159348   2.660   7.457   0.587
85817SOL    HW259349   2.746   7.552   0.668
85818SOL     OW59350   7.772   1.915   8.281
85818SOL    HW159351   7.785   1.822   8.263
85818SOL    HW259352   7.682   1.932   8.255
85819SOL     OW59353   7.435  10.516  11.319
85819SOL    HW159354   7.361  10.468  11.357
85819SOL    HW259355   7.407  10.608  11.320
85820SOL     OW59356  11.176  14.730  10.312
85820SOL    HW159357  11.150  14.691  10.228
85820SOL    HW259358  11.242  14.796  10.288
85821SOL     OW59359  10.583   8.980  14.844
85821SOL    HW159360  10.654   8.954  14.785
85821SOL    HW259361  10.605   9.069   0.001
85822SOL     OW59362   0.236  12.903   1.232
85822SOL    HW159363   0.224  12.978   1.290
85822SOL    HW259364   0.224  12.827   1.288
85823SOL     OW59365   4.765   4.338  12.960
85823SOL    HW159366   4.705   4.385  13.018
85823SOL    HW259367   4.811   4.407  12.912
85824SOL     OW59368  10.503  12.932   8.369
85824SOL    HW159369  10.481  12.983   8.291
85824SOL    HW259370  10.486  12.992   8.442
85825SOL     OW59371  11.149  10.527   2.393
85825SOL    HW159372  11.084  10.588   2.357
85825SOL    HW259373  11.102  10.478   2.460
85826SOL     OW59374   3.951  11.383  12.955
85826SOL    HW159375   3.858  11.370  12.976
85826SOL    HW259376   3.964  11.477  12.961
85827SOL     OW59377   6.491  10.514   3.050
85827SOL    HW159378   6.429  10.587   3.051
85827SOL    HW259379   6.577  10.556   3.041
85828SOL     OW59380   4.790   1.331   9.435
85828SOL    HW159381   4.752   1.320   9.522
85828SOL    HW259382   4.747   1.410   9.400
85829SOL     OW59383   9.131  14.087  13.391
85829SOL    HW159384   9.154  14.119  13.304
85829SOL    HW259385   9.075  14.011  13.375
85830SOL     OW59386   2.909  10.076  13.683
85830SOL    HW159387   2.939  10.078  13.592
85830SOL    HW259388   2.815  10.095  13.678
85831SOL     OW59389   5.478  11.989  14.343
85831SOL    HW159390   5.489  12.084  14.344
85831SOL    HW259391   5.561  11.956  14.378
85832SOL     OW59392   6.678   6.567   9.350
85832SOL    HW159393   6.655   6.488   9.301
85832SOL    HW259394   6.707   6.629   9.284
85833SOL     OW59395   9.191  10.329   2.454
85833SOL    HW159396   9.172  10.388   2.527
85833SOL    HW259397   9.198  10.387   2.378
85834SOL     OW59398   2.160  13.632   0.657
85834SOL    HW159399   2.230  13.571   0.632
85834SOL    HW259400   2.079  13.586   0.634
85835SOL     OW59401   3.672  11.471  14.263
85835SOL    HW159402   3.693  11.397  14.205
85835SOL    HW259403   3.611  11.525  14.212
85836SOL     OW59404  11.322   3.894  13.255
85836SOL    HW159405  11.359   3.879  13.342
85836SOL    HW259406  11.230   3.867  13.262
85837SOL     OW59407   4.630   1.979   7.124
85837SOL    HW159408   4.687   1.903   7.119
85837SOL    HW259409   4.545   1.948   7.093
85838SOL     OW59410   9.442   9.956  12.939
85838SOL    HW159411   9.414  10.033  12.890
85838SOL    HW259412   9.535   9.969  12.954
85839SOL     OW59413   2.222  14.629  10.985
85839SOL    HW159414   2.240  14.545  11.028
85839SOL    HW259415   2.307  14.658  10.952
85840SOL     OW59416   1.626  14.611   0.710
85840SOL    HW159417   1.547  14.570   0.746
85840SOL    HW259418   1.593  14.682   0.656
85841SOL     OW59419   7.795   1.777  11.261
85841SOL    HW159420   7.762   1.699  11.217
85841SOL    HW259421   7.734   1.847  11.236
85842SOL     OW59422   9.455   4.257  12.413
85842SOL    HW159423   9.423   4.237  12.502
85842SOL    HW259424   9.541   4.217  12.410
85843SOL     OW59425   3.925   3.643  11.323
85843SOL    HW159426   3.998   3.593  11.358
85843SOL    HW259427   3.848   3.606  11.366
85844SOL     OW59428  12.932   1.141   0.094
85844SOL    HW159429  12.950   1.208   0.029
85844SOL    HW259430  13.017   1.123   0.135
85845SOL     OW59431   9.637   9.090   1.163
85845SOL    HW159432   9.567   9.154   1.179
85845SOL    HW259433   9.609   9.044   1.083
85846SOL     OW59434   3.816   1.032   7.590
85846SOL    HW159435   3.900   1.071   7.565
85846SOL    HW259436   3.828   1.007   7.682
85847SOL     OW59437   1.786   5.633   0.065
85847SOL    HW159438   1.721   5.576   0.023
85847SOL    HW259439   1.861   5.632   0.006
85848SOL     OW59440   1.320   2.641  10.626
85848SOL    HW159441   1.357   2.569  10.575
85848SOL    HW259442   1.267   2.689  10.563
85849SOL     OW59443   5.327   7.192  10.275
85849SOL    HW159444   5.374   7.245  10.211
85849SOL    HW259445   5.247   7.165  10.231
85850SOL     OW59446   6.942   2.552  10.601
85850SOL    HW159447   6.950   2.576  10.693
85850SOL    HW259448   6.848   2.554  10.583
85851SOL     OW59449  10.689   0.746   8.624
85851SOL    HW159450  10.779   0.729   8.597
85851SOL    HW259451  10.697   0.804   8.701
85852SOL     OW59452  11.991   9.260   4.208
85852SOL    HW159453  12.005   9.239   4.300
85852SOL    HW259454  12.065   9.316   4.185
85853SOL     OW59455  11.023  12.230  11.230
85853SOL    HW159456  11.016  12.134  11.232
85853SOL    HW259457  10.970  12.256  11.154
85854SOL     OW59458   8.027  13.687   6.617
85854SOL    HW159459   7.960  13.640   6.665
85854SOL    HW259460   7.991  13.775   6.606
85855SOL     OW59461  14.847  10.749   1.216
85855SOL    HW159462  14.765  10.761   1.168
85855SOL    HW259463  14.834  10.797   1.298
85856SOL     OW59464  11.468   8.835  11.673
85856SOL    HW159465  11.411   8.772  11.718
85856SOL    HW259466  11.514   8.881  11.743
85857SOL     OW59467   9.571   0.771   3.677
85857SOL    HW159468   9.620   0.712   3.619
85857SOL    HW259469   9.637   0.803   3.738
85858SOL     OW59470  11.945  10.989  11.524
85858SOL    HW159471  11.938  10.946  11.439
85858SOL    HW259472  11.895  10.932  11.583
85859SOL     OW59473   1.066  10.426   2.842
85859SOL    HW159474   1.103  10.344   2.809
85859SOL    HW259475   0.971  10.415   2.831
85860SOL     OW59476   3.011   7.229  11.828
85860SOL    HW159477   2.960   7.261  11.753
85860SOL    HW259478   3.093   7.198  11.790
85861SOL     OW59479   5.058   2.811   9.760
85861SOL    HW159480   5.016   2.755   9.825
85861SOL    HW259481   4.994   2.879   9.741
85862SOL     OW59482  13.090   8.614   9.053
85862SOL    HW159483  13.010   8.590   9.100
85862SOL    HW259484  13.161   8.581   9.107
85863SOL     OW59485  10.044   5.711   7.561
85863SOL    HW159486   9.985   5.786   7.570
85863SOL    HW259487  10.079   5.698   7.649
85864SOL     OW59488   6.395  11.013   4.607
85864SOL    HW159489   6.377  11.054   4.692
85864SOL    HW259490   6.427  11.085   4.553
85865SOL     OW59491  13.412   4.567  14.065
85865SOL    HW159492  13.377   4.639  14.118
85865SOL    HW259493  13.423   4.604  13.978
85866SOL     OW59494  13.136  14.764   3.793
85866SOL    HW159495  13.098  14.678   3.776
85866SOL    HW259496  13.205  14.748   3.857
85867SOL     OW59497  13.030  10.038  12.541
85867SOL    HW159498  13.043  10.099  12.614
85867SOL    HW259499  13.113  10.040  12.494
85868SOL     OW59500   6.469   6.899   7.607
85868SOL    HW159501   6.431   6.983   7.580
85868SOL    HW259502   6.407   6.863   7.671
85869SOL     OW59503   4.384  10.717  11.641
85869SOL    HW159504   4.401  10.808  11.614
85869SOL    HW259505   4.359  10.724  11.733
85870SOL     OW59506   9.012   3.782   1.693
85870SOL    HW159507   9.035   3.816   1.779
85870SOL    HW259508   9.093   3.747   1.658
85871SOL     OW59509   0.434   1.586   3.733
85871SOL    HW159510   0.414   1.522   3.802
85871SOL    HW259511   0.510   1.633   3.766
85872SOL     OW59512  12.495   8.562   7.200
85872SOL    HW159513  12.461   8.512   7.126
85872SOL    HW259514  12.453   8.647   7.194
85873SOL     OW59515   9.839  12.609   0.278
85873SOL    HW159516   9.908  12.568   0.225
85873SOL    HW259517   9.885  12.678   0.326
85874SOL     OW59518  11.212  12.392  13.635
85874SOL    HW159519  11.170  12.332  13.572
85874SOL    HW259520  11.170  12.372  13.718
85875SOL     OW59521   9.284  12.623   1.335
85875SOL    HW159522   9.371  12.594   1.306
85875SOL    HW259523   9.246  12.546   1.376
85876SOL     OW59524   2.039   4.901   0.224
85876SOL    HW159525   2.052   4.847   0.146
85876SOL    HW259526   1.944   4.902   0.237
85877SOL     OW59527  12.923  10.074   9.726
85877SOL    HW159528  12.929  10.078   9.821
85877SOL    HW259529  13.000  10.024   9.699
85878SOL     OW59530   6.629  14.264   9.657
85878SOL    HW159531   6.687  14.334   9.626
85878SOL    HW259532   6.688  14.192   9.677
85879SOL     OW59533   2.419   6.011   8.470
85879SOL    HW159534   2.343   5.999   8.412
85879SOL    HW259535   2.492   6.028   8.410
85880SOL     OW59536   0.169  11.541   4.738
85880SOL    HW159537   0.098  11.604   4.736
85880SOL    HW259538   0.192  11.534   4.831
85881SOL     OW59539   9.494   2.883   3.573
85881SOL    HW159540   9.437   2.874   3.649
85881SOL    HW259541   9.575   2.920   3.608
85882SOL     OW59542   3.769   6.248  12.515
85882SOL    HW159543   3.695   6.299  12.548
85882SOL    HW259544   3.731   6.187  12.452
85883SOL     OW59545  14.216  10.216   5.517
85883SOL    HW159546  14.281  10.278   5.552
85883SOL    HW259547  14.190  10.254   5.433
85884SOL     OW59548   6.655  11.362  10.265
85884SOL    HW159549   6.702  11.405  10.336
85884SOL    HW259550   6.563  11.366  10.291
85885SOL     OW59551  10.127   7.486   5.624
85885SOL    HW159552  10.122   7.471   5.530
85885SOL    HW259553  10.196   7.552   5.634
85886SOL     OW59554  13.932   6.109  11.449
85886SOL    HW159555  13.930   6.065  11.534
85886SOL    HW259556  13.887   6.192  11.464
85887SOL     OW59557   1.412   0.176   7.116
85887SOL    HW159558   1.490   0.208   7.071
85887SOL    HW259559   1.381   0.251   7.167
85888SOL     OW59560  12.923   3.194  14.014
85888SOL    HW159561  13.014   3.166  14.021
85888SOL    HW259562  12.895   3.209  14.104
85889SOL     OW59563   7.550   1.734   0.813
85889SOL    HW159564   7.500   1.798   0.863
85889SOL    HW259565   7.526   1.752   0.721
85890SOL     OW59566   1.130  13.853   1.405
85890SOL    HW159567   1.168  13.776   1.364
85890SOL    HW259568   1.205  13.899   1.443
85891SOL     OW59569   8.966   0.542   4.986
85891SOL    HW159570   8.964   0.505   5.074
85891SOL    HW259571   8.952   0.636   4.999
85892SOL     OW59572   0.348   2.661   6.606
85892SOL    HW159573   0.386   2.580   6.569
85892SOL    HW259574   0.422   2.704   6.649
85893SOL     OW59575   4.893  10.250   3.748
85893SOL    HW159576   4.846  10.208   3.820
85893SOL    HW259577   4.973  10.283   3.788
85894SOL     OW59578   0.339   6.637  11.088
85894SOL    HW159579   0.328   6.552  11.128
85894SOL    HW259580   0.331   6.621  10.994
85895SOL     OW59581   1.569  13.625  11.328
85895SOL    HW159582   1.540  13.643  11.239
85895SOL    HW259583   1.505  13.669  11.384
85896SOL     OW59584   0.059   7.424  13.385
85896SOL    HW159585   0.092   7.442  13.473
85896SOL    HW259586   0.029   7.333  13.390
85897SOL     OW59587   8.092  11.152  12.651
85897SOL    HW159588   7.998  11.169  12.664
85897SOL    HW259589   8.135  11.212  12.712
85898SOL     OW59590   5.361   0.777   1.537
85898SOL    HW159591   5.325   0.695   1.502
85898SOL    HW259592   5.286   0.836   1.541
85899SOL     OW59593   3.662   5.643  13.039
85899SOL    HW159594   3.723   5.716  13.050
85899SOL    HW259595   3.583   5.670  13.086
85900SOL     OW59596  13.070  10.071  13.868
85900SOL    HW159597  13.041  10.067  13.777
85900SOL    HW259598  12.989  10.078  13.919
85901SOL     OW59599  12.266  11.761   8.840
85901SOL    HW159600  12.208  11.685   8.836
85901SOL    HW259601  12.247  11.802   8.924
85902SOL     OW59602  14.587   1.197  11.516
85902SOL    HW159603  14.545   1.132  11.460
85902SOL    HW259604  14.515   1.243  11.558
85903SOL     OW59605  11.815   1.625   6.981
85903SOL    HW159606  11.837   1.555   6.921
85903SOL    HW259607  11.727   1.653   6.955
85904SOL     OW59608   7.115  11.280   5.956
85904SOL    HW159609   7.161  11.315   6.032
85904SOL    HW259610   7.035  11.242   5.991
85905SOL     OW59611   0.806  11.472   0.227
85905SOL    HW159612   0.778  11.403   0.166
85905SOL    HW259613   0.832  11.425   0.306
85906SOL     OW59614  10.813   7.734   9.342
85906SOL    HW159615  10.762   7.784   9.405
85906SOL    HW259616  10.821   7.792   9.266
85907SOL     OW59617   8.162   2.295   0.928
85907SOL    HW159618   8.246   2.265   0.963
85907SOL    HW259619   8.099   2.227   0.955
85908SOL     OW59620   0.210   7.804   1.517
85908SOL    HW159621   0.284   7.791   1.576
85908SOL    HW259622   0.246   7.855   1.444
85909SOL     OW59623   2.248  11.630   3.785
85909SOL    HW159624   2.223  11.553   3.734
85909SOL    HW259625   2.304  11.681   3.727
85910SOL     OW59626   5.967  12.768  14.217
85910SOL    HW159627   5.930  12.772  14.129
85910SOL    HW259628   5.942  12.851  14.257
85911SOL     OW59629  10.797  13.465   8.987
85911SOL    HW159630  10.798  13.543   8.931
85911SOL    HW259631  10.721  13.477   9.044
85912SOL     OW59632   4.769   3.425   1.879
85912SOL    HW159633   4.772   3.480   1.958
85912SOL    HW259634   4.773   3.488   1.807
85913SOL     OW59635  11.941   2.428  10.102
85913SOL    HW159636  11.936   2.388  10.015
85913SOL    HW259637  12.034   2.443  10.117
85914SOL     OW59638   3.012  10.416  14.583
85914SOL    HW159639   3.071  10.370  14.642
85914SOL    HW259640   2.984  10.493  14.632
85915SOL     OW59641   2.680  13.527   2.730
85915SOL    HW159642   2.616  13.467   2.692
85915SOL    HW259643   2.758  13.517   2.676
85916SOL     OW59644   1.073   8.091  13.643
85916SOL    HW159645   1.138   8.020  13.637
85916SOL    HW259646   1.058   8.118  13.552
85917SOL     OW59647   0.608   3.639  11.758
85917SOL    HW159648   0.587   3.546  11.748
85917SOL    HW259649   0.629   3.669  11.670
85918SOL     OW59650   8.767   1.817  11.550
85918SOL    HW159651   8.723   1.806  11.466
85918SOL    HW259652   8.701   1.794  11.615
85919SOL     OW59653   8.116   8.916   0.423
85919SOL    HW159654   8.035   8.937   0.377
85919SOL    HW259655   8.119   8.820   0.424
85920SOL     OW59656   3.987   2.319  10.613
85920SOL    HW159657   4.025   2.296  10.698
85920SOL    HW259658   3.898   2.284  10.616
85921SOL     OW59659   1.132   5.363   2.902
85921SOL    HW159660   1.061   5.383   2.963
85921SOL    HW259661   1.177   5.446   2.888
85922SOL     OW59662   3.978   5.263   3.521
85922SOL    HW159663   4.051   5.212   3.557
85922SOL    HW259664   3.967   5.336   3.582
85923SOL     OW59665  10.241  10.881   7.962
85923SOL    HW159666  10.204  10.914   8.043
85923SOL    HW259667  10.205  10.937   7.894
85924SOL     OW59668  10.086   2.152   7.369
85924SOL    HW159669  10.161   2.210   7.361
85924SOL    HW259670  10.068   2.148   7.463
85925SOL     OW59671   4.779  11.780   9.480
85925SOL    HW159672   4.751  11.690   9.495
85925SOL    HW259673   4.833  11.802   9.556
85926SOL     OW59674   3.370  11.054   5.852
85926SOL    HW159675   3.300  10.992   5.874
85926SOL    HW259676   3.399  11.089   5.936
85927SOL     OW59677  12.937   3.648   4.674
85927SOL    HW159678  13.014   3.638   4.619
85927SOL    HW259679  12.936   3.570   4.729
85928SOL     OW59680   8.949   1.088   0.907
85928SOL    HW159681   8.958   1.050   0.820
85928SOL    HW259682   9.034   1.128   0.925
85929SOL     OW59683   0.989  11.072   2.336
85929SOL    HW159684   0.922  11.122   2.289
85929SOL    HW259685   1.070  11.090   2.288
85930SOL     OW59686   4.853   0.376   9.307
85930SOL    HW159687   4.829   0.439   9.376
85930SOL    HW259688   4.938   0.406   9.277
85931SOL     OW59689  13.291   6.522   9.558
85931SOL    HW159690  13.256   6.433   9.567
85931SOL    HW259691  13.347   6.534   9.635
85932SOL     OW59692   7.307   4.722  13.533
85932SOL    HW159693   7.331   4.729  13.625
85932SOL    HW259694   7.378   4.766  13.486
85933SOL     OW59695   1.629   8.379   8.265
85933SOL    HW159696   1.564   8.390   8.334
85933SOL    HW259697   1.582   8.335   8.194
85934SOL     OW59698  13.625  10.171   2.674
85934SOL    HW159699  13.691  10.163   2.742
85934SOL    HW259700  13.657  10.115   2.603
85935SOL     OW59701  11.616  14.065   5.633
85935SOL    HW159702  11.644  14.035   5.720
85935SOL    HW259703  11.672  14.141   5.615
85936SOL     OW59704  12.142   5.990  13.378
85936SOL    HW159705  12.216   5.930  13.391
85936SOL    HW259706  12.162   6.064  13.435
85937SOL     OW59707  14.142   8.607   8.006
85937SOL    HW159708  14.101   8.694   8.007
85937SOL    HW259709  14.203   8.608   8.079
85938SOL     OW59710  14.362   2.614   5.223
85938SOL    HW159711  14.433   2.587   5.165
85938SOL    HW259712  14.293   2.645   5.164
85939SOL     OW59713  10.613  12.679  12.130
85939SOL    HW159714  10.623  12.769  12.098
85939SOL    HW259715  10.616  12.625  12.051
85940SOL     OW59716  12.353   8.828   4.935
85940SOL    HW159717  12.372   8.764   4.866
85940SOL    HW259718  12.422   8.894   4.926
85941SOL     OW59719   7.654   3.509   3.275
85941SOL    HW159720   7.731   3.452   3.272
85941SOL    HW259721   7.686   3.591   3.314
85942SOL     OW59722   2.613   8.755  12.509
85942SOL    HW159723   2.708   8.765  12.523
85942SOL    HW259724   2.576   8.752  12.598
85943SOL     OW59725   2.693   1.586   7.929
85943SOL    HW159726   2.696   1.660   7.989
85943SOL    HW259727   2.600   1.565   7.922
85944SOL     OW59728   6.873   7.180   2.936
85944SOL    HW159729   6.938   7.214   2.998
85944SOL    HW259730   6.857   7.090   2.965
85945SOL     OW59731   9.528   9.148   5.886
85945SOL    HW159732   9.507   9.234   5.851
85945SOL    HW259733   9.544   9.093   5.809
85946SOL     OW59734  13.934   6.330   1.427
85946SOL    HW159735  13.867   6.397   1.433
85946SOL    HW259736  14.008   6.373   1.383
85947SOL     OW59737  14.788   7.400   3.076
85947SOL    HW159738  14.864   7.358   3.117
85947SOL    HW259739  14.716   7.339   3.092
85948SOL     OW59740   6.039   4.751   1.441
85948SOL    HW159741   6.106   4.777   1.379
85948SOL    HW259742   5.971   4.819   1.433
85949SOL     OW59743   2.619   7.347  13.947
85949SOL    HW159744   2.663   7.415  13.895
85949SOL    HW259745   2.529   7.378  13.957
85950SOL     OW59746  10.028   1.159  14.172
85950SOL    HW159747  10.118   1.179  14.196
85950SOL    HW259748   9.975   1.206  14.237
85951SOL     OW59749  10.232   7.453  11.982
85951SOL    HW159750  10.323   7.426  11.973
85951SOL    HW259751  10.182   7.371  11.973
85952SOL     OW59752   0.889   5.638   1.512
85952SOL    HW159753   0.959   5.658   1.450
85952SOL    HW259754   0.822   5.594   1.459
85953SOL     OW59755  14.230   6.523  10.109
85953SOL    HW159756  14.245   6.569  10.026
85953SOL    HW259757  14.175   6.449  10.085
85954SOL     OW59758   0.711  14.185   8.557
85954SOL    HW159759   0.672  14.215   8.474
85954SOL    HW259760   0.775  14.253   8.579
85955SOL     OW59761   6.142   9.830   4.446
85955SOL    HW159762   6.086   9.890   4.496
85955SOL    HW259763   6.229   9.868   4.453
85956SOL     OW59764  11.346   4.799   9.447
85956SOL    HW159765  11.382   4.886   9.431
85956SOL    HW259766  11.339   4.759   9.360
85957SOL     OW59767   6.191   6.834   7.738
85957SOL    HW159768   6.173   6.900   7.804
85957SOL    HW259769   6.115   6.837   7.680
85958SOL     OW59770   2.354   0.104   7.397
85958SOL    HW159771   2.379   0.174   7.457
85958SOL    HW259772   2.268   0.076   7.427
85959SOL     OW59773   4.247   7.406   2.268
85959SOL    HW159774   4.230   7.316   2.240
85959SOL    HW259775   4.162   7.437   2.299
85960SOL     OW59776  11.117  14.333   4.677
85960SOL    HW159777  11.200  14.381   4.682
85960SOL    HW259778  11.079  14.361   4.594
85961SOL     OW59779   5.123  12.221   5.516
85961SOL    HW159780   5.158  12.294   5.464
85961SOL    HW259781   5.181  12.148   5.494
85962SOL     OW59782   1.003   9.939   5.452
85962SOL    HW159783   0.951   9.906   5.526
85962SOL    HW259784   0.941   9.941   5.379
85963SOL     OW59785   3.574   4.678   2.616
85963SOL    HW159786   3.654   4.665   2.565
85963SOL    HW259787   3.545   4.767   2.593
85964SOL     OW59788  10.327   7.250  13.599
85964SOL    HW159789  10.310   7.319  13.663
85964SOL    HW259790  10.387   7.190  13.643
85965SOL     OW59791   3.266   1.469   8.788
85965SOL    HW159792   3.182   1.478   8.832
85965SOL    HW259793   3.243   1.443   8.698
85966SOL     OW59794   4.764  13.824   3.641
85966SOL    HW159795   4.799  13.897   3.591
85966SOL    HW259796   4.670  13.824   3.622
85967SOL     OW59797  11.955  14.417  12.732
85967SOL    HW159798  12.033  14.435  12.784
85967SOL    HW259799  11.903  14.497  12.737
85968SOL     OW59800  14.303   1.644   2.461
85968SOL    HW159801  14.300   1.646   2.557
85968SOL    HW259802  14.294   1.736   2.436
85969SOL     OW59803   1.256   0.457   6.217
85969SOL    HW159804   1.207   0.535   6.243
85969SOL    HW259805   1.300   0.429   6.297
85970SOL     OW59806   6.807   8.055  11.436
85970SOL    HW159807   6.769   8.143  11.427
85970SOL    HW259808   6.787   8.029  11.525
85971SOL     OW59809  11.997   4.250   7.967
85971SOL    HW159810  11.956   4.231   7.883
85971SOL    HW259811  11.999   4.346   7.972
85972SOL     OW59812   5.629   5.748  13.677
85972SOL    HW159813   5.677   5.693  13.616
85972SOL    HW259814   5.547   5.769  13.631
85973SOL     OW59815   6.515   6.083   1.907
85973SOL    HW159816   6.427   6.120   1.910
85973SOL    HW259817   6.563   6.140   1.846
85974SOL     OW59818   6.584  13.304   2.632
85974SOL    HW159819   6.514  13.270   2.577
85974SOL    HW259820   6.543  13.374   2.683
85975SOL     OW59821  11.048   1.903   9.882
85975SOL    HW159822  11.089   1.819   9.864
85975SOL    HW259823  10.956   1.881   9.901
85976SOL     OW59824  10.445  11.839   9.178
85976SOL    HW159825  10.470  11.779   9.108
85976SOL    HW259826  10.506  11.819   9.249
85977SOL     OW59827   8.664  13.721   6.987
85977SOL    HW159828   8.684  13.748   7.077
85977SOL    HW259829   8.619  13.796   6.949
85978SOL     OW59830  12.287  14.385   0.319
85978SOL    HW159831  12.336  14.441   0.259
85978SOL    HW259832  12.353  14.351   0.379
85979SOL     OW59833  14.105  13.108  14.366
85979SOL    HW159834  14.200  13.113  14.368
85979SOL    HW259835  14.085  13.064  14.283
85980SOL     OW59836  12.513   4.507   9.063
85980SOL    HW159837  12.601   4.513   9.026
85980SOL    HW259838  12.462   4.570   9.012
85981SOL     OW59839   9.051   9.381  13.902
85981SOL    HW159840   8.975   9.396  13.845
85981SOL    HW259841   9.124   9.423  13.856
85982SOL     OW59842   0.767  11.328  11.518
85982SOL    HW159843   0.854  11.359  11.494
85982SOL    HW259844   0.762  11.240  11.481
85983SOL     OW59845   4.984   4.400   9.916
85983SOL    HW159846   4.974   4.326   9.976
85983SOL    HW259847   4.919   4.384   9.847
85984SOL     OW59848  13.345   0.004   7.811
85984SOL    HW159849  13.376  14.836   7.729
85984SOL    HW259850  13.309  14.800   7.859
85985SOL     OW59851   3.770  11.384   2.583
85985SOL    HW159852   3.676  11.381   2.599
85985SOL    HW259853   3.788  11.304   2.534
85986SOL     OW59854   5.103  11.164  13.033
85986SOL    HW159855   5.134  11.134  13.118
85986SOL    HW259856   5.176  11.216  12.998
85987SOL     OW59857   4.709  14.788   1.026
85987SOL    HW159858   4.695   0.013   1.022
85987SOL    HW259859   4.722  14.761   0.935
85988SOL     OW59860   8.879   4.902   6.060
85988SOL    HW159861   8.796   4.854   6.058
85988SOL    HW259862   8.870   4.964   6.132
85989SOL     OW59863   9.020  10.266   9.845
85989SOL    HW159864   9.060  10.244   9.762
85989SOL    HW259865   8.932  10.229   9.840
85990SOL     OW59866   8.878  12.873  10.940
85990SOL    HW159867   8.867  12.962  10.972
85990SOL    HW259868   8.789  12.841  10.927
85991SOL     OW59869   8.611   6.328   9.511
85991SOL    HW159870   8.600   6.415   9.473
85991SOL    HW259871   8.698   6.300   9.482
85992SOL     OW59872   6.176   8.541  12.002
85992SOL    HW159873   6.130   8.527  12.085
85992SOL    HW259874   6.168   8.635  11.985
85993SOL     OW59875   9.039   2.984   9.735
85993SOL    HW159876   9.036   3.032   9.653
85993SOL    HW259877   8.966   2.923   9.730
85994SOL     OW59878  11.445   5.563  10.269
85994SOL    HW159879  11.472   5.642  10.222
85994SOL    HW259880  11.372   5.528  10.219
85995SOL     OW59881  14.848   6.216  13.659
85995SOL    HW159882   0.069   6.220  13.630
85995SOL    HW259883  14.800   6.270  13.597
85996SOL     OW59884   8.564  14.384   8.122
85996SOL    HW159885   8.500  14.350   8.059
85996SOL    HW259886   8.583  14.473   8.092
85997SOL     OW59887  14.024   1.572   4.891
85997SOL    HW159888  14.037   1.667   4.893
85997SOL    HW259889  14.112   1.536   4.900
85998SOL     OW59890  11.904   0.734   9.571
85998SOL    HW159891  11.993   0.770   9.569
85998SOL    HW259892  11.859   0.777   9.498
85999SOL     OW59893   8.953   9.925   6.565
85999SOL    HW159894   8.870   9.900   6.524
85999SOL    HW259895   8.977   9.849   6.618
86000SOL     OW59896   8.933   4.176  11.306
86000SOL    HW159897   8.945   4.126  11.225
86000SOL    HW259898   8.865   4.128  11.354
86001SOL     OW59899  13.877   5.672   4.887
86001SOL    HW159900  13.936   5.609   4.845
86001SOL    HW259901  13.799   5.672   4.833
86002SOL     OW59902   7.932   2.227   3.804
86002SOL    HW159903   7.839   2.206   3.801
86002SOL    HW259904   7.965   2.179   3.880
86003SOL     OW59905   2.126   0.896   1.907
86003SOL    HW159906   2.088   0.827   1.962
86003SOL    HW259907   2.053   0.954   1.888
86004SOL     OW59908  10.964   8.646   0.779
86004SOL    HW159909  10.924   8.729   0.754
86004SOL    HW259910  11.036   8.633   0.717
86005SOL     OW59911   2.533   9.915   3.730
86005SOL    HW159912   2.478   9.864   3.788
86005SOL    HW259913   2.594   9.961   3.788
86006SOL     OW59914   2.939   7.108  11.186
86006SOL    HW159915   2.893   7.120  11.269
86006SOL    HW259916   2.871   7.122  11.119
86007SOL     OW59917  12.789   4.553   3.087
86007SOL    HW159918  12.831   4.618   3.031
86007SOL    HW259919  12.796   4.471   3.039
86008SOL     OW59920   2.235  14.672  12.432
86008SOL    HW159921   2.210  14.664  12.340
86008SOL    HW259922   2.171  14.733  12.469
86009SOL     OW59923   4.413   0.656   2.057
86009SOL    HW159924   4.409   0.625   1.966
86009SOL    HW259925   4.344   0.608   2.102
86010SOL     OW59926  12.568   4.963   6.711
86010SOL    HW159927  12.654   5.004   6.704
86010SOL    HW259928  12.507   5.036   6.721
86011SOL     OW59929   6.372  13.370   7.417
86011SOL    HW159930   6.408  13.330   7.338
86011SOL    HW259931   6.440  13.357   7.483
86012SOL     OW59932   7.367  10.911   4.076
86012SOL    HW159933   7.456  10.890   4.103
86012SOL    HW259934   7.361  10.879   3.986
86013SOL     OW59935   7.275  12.122   3.076
86013SOL    HW159936   7.251  12.214   3.072
86013SOL    HW259937   7.349  12.114   3.015
86014SOL     OW59938  14.312   9.044  12.967
86014SOL    HW159939  14.253   8.998  12.907
86014SOL    HW259940  14.339   9.122  12.920
86015SOL     OW59941   5.192   2.105   6.352
86015SOL    HW159942   5.140   2.134   6.427
86015SOL    HW259943   5.264   2.167   6.347
86016SOL     OW59944   9.768  14.380  14.295
86016SOL    HW159945   9.853  14.407  14.330
86016SOL    HW259946   9.704  14.433  14.344
86017SOL     OW59947   7.090  11.059   9.688
86017SOL    HW159948   7.004  11.026   9.712
86017SOL    HW259949   7.114  11.010   9.609
86018SOL     OW59950   4.788   4.655   2.397
86018SOL    HW159951   4.880   4.676   2.387
86018SOL    HW259952   4.783   4.605   2.479
86019SOL     OW59953   7.991   5.693  11.212
86019SOL    HW159954   8.083   5.670  11.228
86019SOL    HW259955   7.944   5.656  11.287
86020SOL     OW59956   2.510   8.765   5.477
86020SOL    HW159957   2.560   8.847   5.476
86020SOL    HW259958   2.424   8.790   5.511
86021SOL     OW59959   4.233   5.953  12.441
86021SOL    HW159960   4.318   5.961  12.399
86021SOL    HW259961   4.234   6.018  12.511
86022SOL     OW59962   9.670   5.072   5.278
86022SOL    HW159963   9.760   5.073   5.244
86022SOL    HW259964   9.630   5.151   5.241
86023SOL     OW59965   0.944  12.597  10.159
86023SOL    HW159966   0.948  12.589  10.255
86023SOL    HW259967   0.986  12.680  10.140
86024SOL     OW59968   8.043   6.540  14.564
86024SOL    HW159969   8.123   6.555  14.613
86024SOL    HW259970   8.039   6.445  14.553
86025SOL     OW59971   5.178   4.005  10.066
86025SOL    HW159972   5.253   3.971  10.114
86025SOL    HW259973   5.137   4.068  10.125
86026SOL     OW59974   6.717  13.021  11.903
86026SOL    HW159975   6.773  12.945  11.917
86026SOL    HW259976   6.628  12.988  11.911
86027SOL     OW59977   6.086   3.852   4.431
86027SOL    HW159978   6.003   3.855   4.478
86027SOL    HW259979   6.136   3.783   4.475
86028SOL     OW59980  13.289   6.015  11.766
86028SOL    HW159981  13.267   5.986  11.678
86028SOL    HW259982  13.370   5.970  11.787
86029SOL     OW59983   2.459   7.821   5.315
86029SOL    HW159984   2.524   7.835   5.246
86029SOL    HW259985   2.501   7.855   5.394
86030SOL     OW59986   3.373   5.065  12.167
86030SOL    HW159987   3.389   5.068  12.073
86030SOL    HW259988   3.449   5.109  12.205
86031SOL     OW59989  11.876  13.537  10.882
86031SOL    HW159990  11.881  13.444  10.862
86031SOL    HW259991  11.807  13.570  10.824
86032SOL     OW59992  11.148  10.368   3.978
86032SOL    HW159993  11.163  10.288   3.926
86032SOL    HW259994  11.085  10.342   4.044
86033SOL     OW59995   2.873   3.685   6.356
86033SOL    HW159996   2.814   3.610   6.363
86033SOL    HW259997   2.859   3.734   6.438
86034SOL     OW59998  13.718  11.252  13.375
86034SOL    HW159999  13.677  11.291  13.298
86034SOL    HW260000  13.811  11.275  13.367
86035SOL     OW60001  12.049  12.626  13.425
86035SOL    HW160002  12.067  12.562  13.494
86035SOL    HW260003  12.022  12.574  13.350
86036SOL     OW60004  11.221   6.910   0.078
86036SOL    HW160005  11.263   6.943  14.869
86036SOL    HW260006  11.222   6.815   0.068
86037SOL     OW60007   4.719   7.789  11.183
86037SOL    HW160008   4.778   7.837  11.241
86037SOL    HW260009   4.748   7.812  11.095
86038SOL     OW60010   0.565   6.475   4.476
86038SOL    HW160011   0.643   6.467   4.421
86038SOL    HW260012   0.539   6.567   4.468
86039SOL     OW60013   4.407   4.090   1.095
86039SOL    HW160014   4.481   4.031   1.081
86039SOL    HW260015   4.386   4.123   1.007
86040SOL     OW60016   2.457   3.766  13.240
86040SOL    HW160017   2.397   3.748  13.313
86040SOL    HW260018   2.538   3.795  13.282
86041SOL     OW60019  12.999   2.702   0.238
86041SOL    HW160020  12.994   2.611   0.266
86041SOL    HW260021  12.911   2.736   0.252
86042SOL     OW60022   2.605   1.399   4.369
86042SOL    HW160023   2.646   1.357   4.293
86042SOL    HW260024   2.528   1.344   4.387
86043SOL     OW60025  12.901   4.944   1.421
86043SOL    HW160026  12.903   4.853   1.392
86043SOL    HW260027  12.906   4.939   1.517
86044SOL     OW60028  11.024   5.227  12.911
86044SOL    HW160029  10.974   5.149  12.886
86044SOL    HW260030  11.093   5.234  12.846
86045SOL     OW60031   5.272   6.973   4.380
86045SOL    HW160032   5.266   7.016   4.294
86045SOL    HW260033   5.239   7.039   4.442
86046SOL     OW60034   8.281   6.503  14.703
86046SOL    HW160035   8.307   6.587  14.741
86046SOL    HW260036   8.248   6.453  14.777
86047SOL     OW60037   5.035  14.133  11.207
86047SOL    HW160038   5.086  14.193  11.261
86047SOL    HW260039   4.952  14.179  11.192
86048SOL     OW60040  11.893   5.731   1.528
86048SOL    HW160041  11.855   5.798   1.584
86048SOL    HW260042  11.818   5.685   1.490
86049SOL     OW60043   2.783   3.158  14.788
86049SOL    HW160044   2.689   3.143  14.785
86049SOL    HW260045   2.809   3.164  14.696
86050SOL     OW60046   4.652  14.169   9.128
86050SOL    HW160047   4.700  14.207   9.056
86050SOL    HW260048   4.576  14.126   9.087
86051SOL     OW60049  14.612   0.606   5.796
86051SOL    HW160050  14.561   0.680   5.827
86051SOL    HW260051  14.626   0.551   5.873
86052SOL     OW60052   0.687   5.772   7.148
86052SOL    HW160053   0.608   5.795   7.197
86052SOL    HW260054   0.693   5.839   7.079
86053SOL     OW60055   3.348   5.681   5.436
86053SOL    HW160056   3.394   5.757   5.402
86053SOL    HW260057   3.279   5.663   5.372
86054SOL     OW60058  11.584   6.094  12.488
86054SOL    HW160059  11.505   6.040  12.483
86054SOL    HW260060  11.579   6.152  12.412
86055SOL     OW60061   4.802   1.138   1.529
86055SOL    HW160062   4.720   1.101   1.496
86055SOL    HW260063   4.867   1.118   1.461
86056SOL     OW60064   2.015   1.007   4.493
86056SOL    HW160065   2.007   0.912   4.496
86056SOL    HW260066   2.073   1.029   4.567
86057SOL     OW60067   4.786  12.284   0.183
86057SOL    HW160068   4.863  12.235   0.210
86057SOL    HW260069   4.762  12.245   0.098
86058SOL     OW60070   2.721   3.931  12.930
86058SOL    HW160071   2.713   3.931  12.834
86058SOL    HW260072   2.801   3.881  12.947
86059SOL     OW60073   1.158   1.969  12.578
86059SOL    HW160074   1.127   1.913  12.506
86059SOL    HW260075   1.103   2.047  12.573
86060SOL     OW60076   0.252   6.648   8.288
86060SOL    HW160077   0.269   6.733   8.248
86060SOL    HW260078   0.202   6.600   8.221
86061SOL     OW60079   7.411   7.129   4.231
86061SOL    HW160080   7.483   7.159   4.177
86061SOL    HW260081   7.344   7.197   4.223
86062SOL     OW60082  12.112   1.094  12.705
86062SOL    HW160083  12.115   1.189  12.700
86062SOL    HW260084  12.051   1.075  12.775
86063SOL     OW60085  12.243   9.263   8.488
86063SOL    HW160086  12.196   9.310   8.557
86063SOL    HW260087  12.231   9.171   8.508
86064SOL     OW60088  11.781   3.471  12.899
86064SOL    HW160089  11.867   3.464  12.857
86064SOL    HW260090  11.725   3.410  12.851
86065SOL     OW60091   0.105   9.064  10.305
86065SOL    HW160092   0.058   9.035  10.227
86065SOL    HW260093   0.175   8.999  10.316
86066SOL     OW60094   4.098   1.539  11.933
86066SOL    HW160095   4.147   1.504  12.007
86066SOL    HW260096   4.144   1.508  11.856
86067SOL     OW60097  10.041   3.523   5.079
86067SOL    HW160098   9.980   3.505   5.007
86067SOL    HW260099  10.077   3.438   5.102
86068SOL     OW60100   0.728   1.176   2.105
86068SOL    HW160101   0.688   1.170   2.018
86068SOL    HW260102   0.818   1.148   2.092
86069SOL     OW60103   9.505   5.809   7.721
86069SOL    HW160104   9.472   5.728   7.682
86069SOL    HW260105   9.484   5.800   7.814
86070SOL     OW60106   1.022  12.811   8.790
86070SOL    HW160107   0.941  12.762   8.802
86070SOL    HW260108   0.993  12.901   8.774
86071SOL     OW60109   3.844   0.428   9.166
86071SOL    HW160110   3.824   0.347   9.119
86071SOL    HW260111   3.808   0.415   9.254
86072SOL     OW60112   1.293   4.402   8.889
86072SOL    HW160113   1.260   4.437   8.972
86072SOL    HW260114   1.354   4.469   8.858
86073SOL     OW60115  13.934  10.114   6.137
86073SOL    HW160116  13.939  10.206   6.112
86073SOL    HW260117  14.003  10.103   6.203
86074SOL     OW60118   3.542   3.880   3.389
86074SOL    HW160119   3.632   3.883   3.355
86074SOL    HW260120   3.533   3.962   3.438
86075SOL     OW60121   3.264   9.457   5.028
86075SOL    HW160122   3.359   9.452   5.039
86075SOL    HW260123   3.253   9.505   4.946
86076SOL     OW60124   5.456   0.442  14.157
86076SOL    HW160125   5.472   0.353  14.189
86076SOL    HW260126   5.514   0.497  14.210
86077SOL     OW60127  13.227   0.929   3.150
86077SOL    HW160128  13.168   0.887   3.212
86077SOL    HW260129  13.203   0.893   3.064
86078SOL     OW60130  12.860  12.196   9.445
86078SOL    HW160131  12.899  12.148   9.372
86078SOL    HW260132  12.905  12.281   9.445
86079SOL     OW60133  14.668   3.724   5.835
86079SOL    HW160134  14.687   3.656   5.900
86079SOL    HW260135  14.581   3.703   5.802
86080SOL     OW60136   7.641   1.019   3.414
86080SOL    HW160137   7.635   0.957   3.486
86080SOL    HW260138   7.552   1.052   3.403
86081SOL     OW60139   4.338   9.452   5.891
86081SOL    HW160140   4.257   9.411   5.922
86081SOL    HW260141   4.325   9.462   5.797
86082SOL     OW60142  14.009   6.955  10.759
86082SOL    HW160143  13.923   6.981  10.725
86082SOL    HW260144  13.994   6.869  10.798
86083SOL     OW60145   3.666  11.716   0.617
86083SOL    HW160146   3.714  11.788   0.658
86083SOL    HW260147   3.715  11.697   0.537
86084SOL     OW60148  11.687   9.346  10.492
86084SOL    HW160149  11.636   9.281  10.445
86084SOL    HW260150  11.636   9.427  10.484
86085SOL     OW60151   3.062   2.089   6.075
86085SOL    HW160152   3.124   2.045   6.017
86085SOL    HW260153   3.115   2.121   6.148
86086SOL     OW60154  14.793   9.940   5.587
86086SOL    HW160155  14.865  10.002   5.578
86086SOL    HW260156  14.767   9.946   5.679
86087SOL     OW60157   4.341   4.300   2.439
86087SOL    HW160158   4.390   4.380   2.419
86087SOL    HW260159   4.287   4.285   2.362
86088SOL     OW60160   0.852   2.452   5.360
86088SOL    HW160161   0.862   2.503   5.440
86088SOL    HW260162   0.881   2.364   5.385
86089SOL     OW60163   2.289   1.792  12.681
86089SOL    HW160164   2.222   1.860  12.674
86089SOL    HW260165   2.239   1.711  12.688
86090SOL     OW60166   8.427  13.021   7.003
86090SOL    HW160167   8.512  13.034   7.045
86090SOL    HW260168   8.370  12.988   7.073
86091SOL     OW60169  12.440   8.752   0.361
86091SOL    HW160170  12.431   8.702   0.442
86091SOL    HW260171  12.480   8.691   0.299
86092SOL     OW60172  11.427  14.339   6.316
86092SOL    HW160173  11.400  14.273   6.253
86092SOL    HW260174  11.521  14.325   6.328
86093SOL     OW60175   0.232  11.845   6.304
86093SOL    HW160176   0.319  11.805   6.292
86093SOL    HW260177   0.206  11.820   6.392
86094SOL     OW60178  14.123   6.023   9.680
86094SOL    HW160179  14.184   6.034   9.607
86094SOL    HW260180  14.178   6.018   9.758
86095SOL     OW60181  14.731   2.786  12.430
86095SOL    HW160182  14.741   2.879  12.407
86095SOL    HW260183  14.705   2.744  12.348
86096SOL     OW60184   2.608  11.354   0.973
86096SOL    HW160185   2.582  11.329   0.884
86096SOL    HW260186   2.525  11.372   1.017
86097SOL     OW60187   7.218   4.460   5.179
86097SOL    HW160188   7.221   4.554   5.198
86097SOL    HW260189   7.301   4.427   5.214
86098SOL     OW60190  11.714   2.407   0.064
86098SOL    HW160191  11.804   2.424   0.091
86098SOL    HW260192  11.702   2.457  14.854
86099SOL     OW60193  11.924   4.585   3.971
86099SOL    HW160194  11.997   4.552   3.919
86099SOL    HW260195  11.862   4.619   3.907
86100SOL     OW60196  13.829   5.124  10.426
86100SOL    HW160197  13.739   5.154  10.444
86100SOL    HW260198  13.872   5.201  10.388
86101SOL     OW60199   7.310  13.350   3.482
86101SOL    HW160200   7.361  13.360   3.402
86101SOL    HW260201   7.220  13.340   3.453
86102SOL     OW60202  14.756  12.097  12.460
86102SOL    HW160203  14.779  12.047  12.382
86102SOL    HW260204  14.802  12.053  12.531
86103SOL     OW60205   3.694   2.383   0.383
86103SOL    HW160206   3.787   2.407   0.386
86103SOL    HW260207   3.694   2.288   0.371
86104SOL     OW60208  10.532  13.151   5.719
86104SOL    HW160209  10.626  13.151   5.735
86104SOL    HW260210  10.508  13.059   5.714
86105SOL     OW60211  12.985  13.856  12.629
86105SOL    HW160212  12.891  13.850  12.644
86105SOL    HW260213  13.000  13.947  12.603
86106SOL     OW60214   2.647   4.514   3.860
86106SOL    HW160215   2.707   4.506   3.935
86106SOL    HW260216   2.700   4.491   3.784
86107SOL     OW60217   9.261   5.974   2.013
86107SOL    HW160218   9.250   6.039   2.083
86107SOL    HW260219   9.230   5.892   2.051
86108SOL     OW60220  13.002  13.088   5.949
86108SOL    HW160221  13.088  13.053   5.975
86108SOL    HW260222  13.014  13.183   5.950
86109SOL     OW60223  10.223   0.858   7.063
86109SOL    HW160224  10.249   0.913   7.138
86109SOL    HW260225  10.163   0.913   7.013
86110SOL     OW60226   0.857   2.890   0.316
86110SOL    HW160227   0.864   2.827   0.388
86110SOL    HW260228   0.832   2.972   0.358
86111SOL     OW60229   7.957   7.084  11.614
86111SOL    HW160230   7.861   7.085  11.609
86111SOL    HW260231   7.977   7.136  11.692
86112SOL     OW60232   7.029   6.095   7.225
86112SOL    HW160233   7.065   6.156   7.160
86112SOL    HW260234   6.995   6.022   7.174
86113SOL     OW60235  13.414   8.556   1.183
86113SOL    HW160236  13.438   8.609   1.108
86113SOL    HW260237  13.480   8.578   1.250
86114SOL     OW60238   9.813   3.213  14.262
86114SOL    HW160239   9.725   3.203  14.298
86114SOL    HW260240   9.841   3.123  14.243
86115SOL     OW60241   0.153   1.145  13.862
86115SOL    HW160242   0.229   1.173  13.913
86115SOL    HW260243   0.082   1.203  13.890
86116SOL     OW60244   3.155  14.322   4.895
86116SOL    HW160245   3.110  14.268   4.829
86116SOL    HW260246   3.236  14.350   4.852
86117SOL     OW60247   4.573   7.282  11.603
86117SOL    HW160248   4.601   7.193  11.626
86117SOL    HW260249   4.653   7.334  11.607
86118SOL     OW60250  11.590   1.931   9.556
86118SOL    HW160251  11.525   1.995   9.585
86118SOL    HW260252  11.674   1.968   9.582
86119SOL     OW60253   4.231   3.691   1.762
86119SOL    HW160254   4.294   3.635   1.716
86119SOL    HW260255   4.148   3.643   1.754
86120SOL     OW60256   6.609   3.979  14.274
86120SOL    HW160257   6.682   3.974  14.335
86120SOL    HW260258   6.598   3.889  14.242
86121SOL     OW60259   2.643  11.609   0.554
86121SOL    HW160260   2.665  11.526   0.512
86121SOL    HW260261   2.724  11.638   0.595
86122SOL     OW60262  13.948   4.134   7.743
86122SOL    HW160263  13.965   4.210   7.798
86122SOL    HW260264  13.860   4.148   7.709
86123SOL     OW60265   7.749  10.733   3.831
86123SOL    HW160266   7.738  10.642   3.807
86123SOL    HW260267   7.841  10.740   3.858
86124SOL     OW60268  13.770   3.034  11.272
86124SOL    HW160269  13.786   2.991  11.188
86124SOL    HW260270  13.746   3.123  11.250
86125SOL     OW60271  12.546  13.916   0.037
86125SOL    HW160272  12.548  13.924  14.811
86125SOL    HW260273  12.628  13.873   0.059
86126SOL     OW60274  13.047  13.210  13.933
86126SOL    HW160275  13.062  13.257  14.015
86126SOL    HW260276  13.032  13.119  13.960
86127SOL     OW60277   1.369   1.157  13.103
86127SOL    HW160278   1.432   1.090  13.130
86127SOL    HW260279   1.416   1.212  13.042
86128SOL     OW60280  14.423  14.424   1.537
86128SOL    HW160281  14.485  14.367   1.490
86128SOL    HW260282  14.431  14.398   1.629
86129SOL     OW60283   5.017  13.780   4.508
86129SOL    HW160284   5.022  13.780   4.603
86129SOL    HW260285   4.982  13.866   4.485
86130SOL     OW60286  14.618   9.240   6.455
86130SOL    HW160287  14.588   9.330   6.444
86130SOL    HW260288  14.693   9.247   6.513
86131SOL     OW60289  14.139   0.363   6.331
86131SOL    HW160290  14.215   0.383   6.386
86131SOL    HW260291  14.176   0.349   6.244
86132SOL     OW60292  13.288   5.839   0.831
86132SOL    HW160293  13.347   5.771   0.798
86132SOL    HW260294  13.207   5.793   0.850
86133SOL     OW60295   7.752   1.525   8.973
86133SOL    HW160296   7.788   1.588   8.911
86133SOL    HW260297   7.773   1.440   8.936
86134SOL     OW60298   4.314   2.336   8.466
86134SOL    HW160299   4.401   2.368   8.488
86134SOL    HW260300   4.260   2.362   8.541
86135SOL     OW60301   5.208   3.450   8.565
86135SOL    HW160302   5.167   3.526   8.607
86135SOL    HW260303   5.252   3.404   8.637
86136SOL     OW60304   9.646   4.531   7.210
86136SOL    HW160305   9.714   4.505   7.272
86136SOL    HW260306   9.564   4.521   7.259
86137SOL     OW60307  12.053  14.256  11.370
86137SOL    HW160308  11.979  14.315  11.389
86137SOL    HW260309  12.047  14.188  11.437
86138SOL     OW60310   4.760   2.636  12.635
86138SOL    HW160311   4.745   2.611  12.726
86138SOL    HW260312   4.837   2.585  12.609
86139SOL     OW60313  10.035  10.974  13.919
86139SOL    HW160314  10.004  10.965  13.829
86139SOL    HW260315  10.127  10.997  13.911
86140SOL     OW60316   2.328   6.500   8.405
86140SOL    HW160317   2.367   6.499   8.317
86140SOL    HW260318   2.403   6.516   8.463
86141SOL     OW60319   3.662  14.034  11.530
86141SOL    HW160320   3.655  13.939  11.529
86141SOL    HW260321   3.659  14.059  11.437
86142SOL     OW60322  11.014   0.217   5.306
86142SOL    HW160323  10.942   0.276   5.285
86142SOL    HW260324  11.085   0.276   5.333
86143SOL     OW60325  11.253  14.084  14.679
86143SOL    HW160326  11.208  14.002  14.664
86143SOL    HW260327  11.286  14.110  14.593
86144SOL     OW60328  13.429   6.622   9.971
86144SOL    HW160329  13.485   6.619  10.049
86144SOL    HW260330  13.445   6.539   9.927
86145SOL     OW60331   1.315   5.583   3.758
86145SOL    HW160332   1.333   5.507   3.703
86145SOL    HW260333   1.400   5.607   3.793
86146SOL     OW60334   0.834   9.755  13.656
86146SOL    HW160335   0.919   9.736  13.615
86146SOL    HW260336   0.787   9.671  13.652
86147SOL     OW60337  13.580   2.916   5.066
86147SOL    HW160338  13.571   2.952   5.154
86147SOL    HW260339  13.651   2.853   5.073
86148SOL     OW60340   6.571   8.628   5.015
86148SOL    HW160341   6.601   8.551   5.065
86148SOL    HW260342   6.505   8.668   5.072
86149SOL     OW60343  13.543   2.641   8.844
86149SOL    HW160344  13.447   2.640   8.836
86149SOL    HW260345  13.559   2.631   8.937
86150SOL     OW60346  10.329   5.217   9.202
86150SOL    HW160347  10.369   5.153   9.144
86150SOL    HW260348  10.235   5.210   9.186
86151SOL     OW60349   6.112  13.473  10.351
86151SOL    HW160350   6.033  13.463  10.298
86151SOL    HW260351   6.160  13.391  10.339
86152SOL     OW60352  12.051   7.372   8.444
86152SOL    HW160353  12.004   7.295   8.410
86152SOL    HW260354  11.991   7.445   8.430
86153SOL     OW60355   6.683  10.030   8.068
86153SOL    HW160356   6.677   9.977   8.148
86153SOL    HW260357   6.592  10.047   8.044
86154SOL     OW60358  11.690  11.053  10.131
86154SOL    HW160359  11.647  10.979  10.174
86154SOL    HW260360  11.634  11.128  10.151
86155SOL     OW60361  11.937   6.283  13.340
86155SOL    HW160362  11.976   6.205  13.379
86155SOL    HW260363  11.877   6.249  13.273
86156SOL     OW60364  13.432   3.688   2.330
86156SOL    HW160365  13.420   3.610   2.385
86156SOL    HW260366  13.387   3.667   2.248
86157SOL     OW60367  12.062  13.331  12.309
86157SOL    HW160368  12.138  13.361  12.258
86157SOL    HW260369  12.044  13.404  12.368
86158SOL     OW60370  12.017   7.957   8.935
86158SOL    HW160371  11.956   7.890   8.904
86158SOL    HW260372  12.091   7.953   8.874
86159SOL     OW60373   1.782   0.756  10.299
86159SOL    HW160374   1.795   0.669  10.338
86159SOL    HW260375   1.689   0.774  10.313
86160SOL     OW60376   1.103   7.256   6.429
86160SOL    HW160377   1.077   7.348   6.434
86160SOL    HW260378   1.020   7.208   6.429
86161SOL     OW60379  14.811  12.976   0.398
86161SOL    HW160380  14.732  12.921   0.399
86161SOL    HW260381  14.824  13.001   0.489
86162SOL     OW60382   8.292  13.371   6.145
86162SOL    HW160383   8.264  13.314   6.074
86162SOL    HW260384   8.235  13.447   6.138
86163SOL     OW60385   8.418   3.076  10.517
86163SOL    HW160386   8.344   3.099  10.573
86163SOL    HW260387   8.445   3.159  10.478
86164SOL     OW60388   3.553   6.480  14.558
86164SOL    HW160389   3.457   6.484  14.563
86164SOL    HW260390   3.572   6.388  14.544
86165SOL     OW60391  10.301  13.012   4.084
86165SOL    HW160392  10.285  12.925   4.120
86165SOL    HW260393  10.361  13.054   4.146
86166SOL     OW60394   6.097  13.917   9.452
86166SOL    HW160395   6.054  13.996   9.484
86166SOL    HW260396   6.026  13.855   9.437
86167SOL     OW60397   2.251   0.567  14.693
86167SOL    HW160398   2.190   0.581  14.766
86167SOL    HW260399   2.316   0.636  14.701
86168SOL     OW60400   7.287   3.486   8.996
86168SOL    HW160401   7.380   3.508   9.004
86168SOL    HW260402   7.276   3.408   9.050
86169SOL     OW60403  13.937   4.847  11.007
86169SOL    HW160404  13.937   4.813  10.917
86169SOL    HW260405  13.955   4.770  11.061
86170SOL     OW60406   3.653   9.751   2.527
86170SOL    HW160407   3.577   9.787   2.573
86170SOL    HW260408   3.647   9.657   2.539
86171SOL     OW60409  13.839   2.190   6.027
86171SOL    HW160410  13.752   2.198   5.986
86171SOL    HW260411  13.874   2.107   5.994
86172SOL     OW60412   9.485   9.711  13.499
86172SOL    HW160413   9.430   9.737  13.573
86172SOL    HW260414   9.557   9.775  13.499
86173SOL     OW60415   8.564   0.121   4.000
86173SOL    HW160416   8.472   0.146   3.990
86173SOL    HW260417   8.614   0.197   3.971
86174SOL     OW60418   4.788   4.000  14.839
86174SOL    HW160419   4.817   3.996  14.748
86174SOL    HW260420   4.827   4.080   0.004
86175SOL     OW60421   2.328   5.273   6.479
86175SOL    HW160422   2.317   5.271   6.384
86175SOL    HW260423   2.244   5.304   6.513
86176SOL     OW60424   5.217   1.447   0.560
86176SOL    HW160425   5.131   1.490   0.564
86176SOL    HW260426   5.273   1.500   0.617
86177SOL     OW60427  12.863   7.029   9.759
86177SOL    HW160428  12.840   7.096   9.694
86177SOL    HW260429  12.818   7.056   9.839
86178SOL     OW60430  11.656   8.479   2.112
86178SOL    HW160431  11.699   8.393   2.113
86178SOL    HW260432  11.726   8.541   2.093
86179SOL     OW60433  14.098   1.217  14.262
86179SOL    HW160434  14.029   1.197  14.199
86179SOL    HW260435  14.174   1.167  14.232
86180SOL     OW60436  13.024   3.724  12.748
86180SOL    HW160437  13.066   3.644  12.780
86180SOL    HW260438  13.096   3.785  12.734
86181SOL     OW60439  13.437   9.032  11.072
86181SOL    HW160440  13.428   8.948  11.027
86181SOL    HW260441  13.363   9.084  11.040
86182SOL     OW60442  13.723  11.615   0.551
86182SOL    HW160443  13.694  11.581   0.635
86182SOL    HW260444  13.816  11.636   0.564
86183SOL     OW60445   0.165   1.561  14.058
86183SOL    HW160446   0.207   1.647  14.065
86183SOL    HW260447   0.125   1.546  14.144
86184SOL     OW60448   4.154  14.373  14.025
86184SOL    HW160449   4.236  14.374  13.976
86184SOL    HW260450   4.147  14.461  14.061
86185SOL     OW60451   4.630   6.505  14.482
86185SOL    HW160452   4.635   6.575  14.417
86185SOL    HW260453   4.684   6.535  14.555
86186SOL     OW60454  12.105   2.206  10.419
86186SOL    HW160455  12.172   2.147  10.383
86186SOL    HW260456  12.154   2.272  10.468
86187SOL     OW60457  13.672   8.734   6.856
86187SOL    HW160458  13.670   8.647   6.897
86187SOL    HW260459  13.671   8.715   6.762
86188SOL     OW60460   6.174   4.459   9.057
86188SOL    HW160461   6.232   4.495   8.990
86188SOL    HW260462   6.189   4.515   9.133
86189SOL     OW60463   9.731  11.679  12.179
86189SOL    HW160464   9.770  11.687  12.266
86189SOL    HW260465   9.644  11.642  12.196
86190SOL     OW60466   8.080  12.475  12.560
86190SOL    HW160467   8.047  12.446  12.475
86190SOL    HW260468   8.003  12.475  12.617
86191SOL     OW60469   9.628  12.807  11.692
86191SOL    HW160470   9.718  12.824  11.666
86191SOL    HW260471   9.634  12.732  11.751
86192SOL     OW60472  11.742  12.826   4.145
86192SOL    HW160473  11.759  12.734   4.124
86192SOL    HW260474  11.729  12.868   4.060
86193SOL     OW60475  14.635   6.510   7.716
86193SOL    HW160476  14.625   6.558   7.634
86193SOL    HW260477  14.729   6.496   7.725
86194SOL     OW60478   1.231   8.957   5.535
86194SOL    HW160479   1.217   8.973   5.441
86194SOL    HW260480   1.281   9.032   5.565
86195SOL     OW60481   6.981   7.198   2.027
86195SOL    HW160482   6.979   7.114   2.074
86195SOL    HW260483   6.891   7.230   2.030
86196SOL     OW60484   5.861   3.608   7.421
86196SOL    HW160485   5.887   3.699   7.433
86196SOL    HW260486   5.766   3.611   7.416
86197SOL     OW60487   3.964  10.409  12.874
86197SOL    HW160488   4.016  10.430  12.797
86197SOL    HW260489   3.983  10.479  12.936
86198SOL     OW60490  13.093   5.472   9.370
86198SOL    HW160491  13.064   5.540   9.430
86198SOL    HW260492  13.167   5.511   9.324
86199SOL     OW60493   4.610   1.183  10.343
86199SOL    HW160494   4.651   1.227  10.268
86199SOL    HW260495   4.673   1.194  10.414
86200SOL     OW60496  10.498   8.031   0.116
86200SOL    HW160497  10.405   8.035   0.139
86200SOL    HW260498  10.537   7.974   0.182
86201SOL     OW60499  13.639  10.241   6.088
86201SOL    HW160500  13.682  10.216   6.170
86201SOL    HW260501  13.633  10.158   6.039
86202SOL     OW60502   1.468  14.000   5.467
86202SOL    HW160503   1.483  13.906   5.481
86202SOL    HW260504   1.375  14.013   5.485
86203SOL     OW60505  11.051   2.787   9.705
86203SOL    HW160506  11.030   2.881   9.711
86203SOL    HW260507  11.017   2.750   9.787
86204SOL     OW60508  10.243   3.826   3.432
86204SOL    HW160509  10.232   3.777   3.351
86204SOL    HW260510  10.337   3.839   3.440
86205SOL     OW60511   0.924  14.770   6.695
86205SOL    HW160512   1.014  14.777   6.664
86205SOL    HW260513   0.927  14.802   6.785
86206SOL     OW60514   2.462  11.127  14.238
86206SOL    HW160515   2.508  11.184  14.300
86206SOL    HW260516   2.452  11.181  14.159
86207SOL     OW60517   5.918   5.262   8.635
86207SOL    HW160518   5.993   5.309   8.599
86207SOL    HW260519   5.847   5.278   8.573
86208SOL     OW60520   0.256  13.321   1.760
86208SOL    HW160521   0.314  13.246   1.771
86208SOL    HW260522   0.207  13.326   1.842
86209SOL     OW60523   8.198   9.497   6.154
86209SOL    HW160524   8.112   9.501   6.197
86209SOL    HW260525   8.197   9.415   6.106
86210SOL     OW60526   5.059   5.515  14.859
86210SOL    HW160527   5.034   5.603  14.831
86210SOL    HW260528   5.014   5.503   0.073
86211SOL     OW60529  11.367  10.736   3.918
86211SOL    HW160530  11.382  10.683   3.996
86211SOL    HW260531  11.401  10.684   3.845
86212SOL     OW60532   7.775  12.057   6.115
86212SOL    HW160533   7.720  12.008   6.175
86212SOL    HW260534   7.759  12.149   6.137
86213SOL     OW60535   3.394  11.892  13.003
86213SOL    HW160536   3.397  11.824  13.071
86213SOL    HW260537   3.338  11.856  12.934
86214SOL     OW60538   2.404   6.863   4.935
86214SOL    HW160539   2.455   6.921   4.991
86214SOL    HW260540   2.447   6.868   4.849
86215SOL     OW60541   8.051   2.135   1.141
86215SOL    HW160542   7.966   2.110   1.178
86215SOL    HW260543   8.115   2.107   1.207
86216SOL     OW60544   2.947   5.528   1.461
86216SOL    HW160545   2.859   5.561   1.446
86216SOL    HW260546   2.974   5.569   1.543
86217SOL     OW60547   4.190   4.917   2.577
86217SOL    HW160548   4.197   4.864   2.497
86217SOL    HW260549   4.245   4.993   2.560
86218SOL     OW60550   2.895   1.429   8.095
86218SOL    HW160551   2.947   1.350   8.076
86218SOL    HW260552   2.901   1.481   8.014
86219SOL     OW60553   1.793   9.739   5.529
86219SOL    HW160554   1.698   9.748   5.518
86219SOL    HW260555   1.826   9.828   5.531
86220SOL     OW60556   8.818   2.862   0.652
86220SOL    HW160557   8.912   2.862   0.670
86220SOL    HW260558   8.792   2.954   0.661
86221SOL     OW60559   8.850   5.869   7.972
86221SOL    HW160560   8.908   5.876   7.896
86221SOL    HW260561   8.895   5.918   8.041
86222SOL     OW60562   6.898   7.714   6.171
86222SOL    HW160563   6.970   7.728   6.232
86222SOL    HW260564   6.917   7.629   6.130
86223SOL     OW60565   5.754  12.215   9.572
86223SOL    HW160566   5.767  12.139   9.629
86223SOL    HW260567   5.810  12.283   9.609
86224SOL     OW60568   4.997   4.954   5.236
86224SOL    HW160569   4.938   4.880   5.245
86224SOL    HW260570   5.057   4.929   5.166
86225SOL     OW60571   0.501   5.941   1.089
86225SOL    HW160572   0.490   6.002   1.016
86225SOL    HW260573   0.572   5.883   1.063
86226SOL     OW60574   0.769  10.086   3.584
86226SOL    HW160575   0.786  10.013   3.525
86226SOL    HW260576   0.782  10.050   3.671
86227SOL     OW60577   9.227   7.549  11.780
86227SOL    HW160578   9.283   7.544  11.703
86227SOL    HW260579   9.139   7.533  11.747
86228SOL     OW60580   5.921  14.826   5.509
86228SOL    HW160581   6.006   0.000   5.504
86228SOL    HW260582   5.909  14.785   5.424
86229SOL     OW60583   7.157   1.419  13.937
86229SOL    HW160584   7.202   1.478  13.997
86229SOL    HW260585   7.205   1.336  13.944
86230SOL     OW60586  10.538   0.501   6.424
86230SOL    HW160587  10.588   0.419   6.427
86230SOL    HW260588  10.525   0.524   6.516
86231SOL     OW60589  13.516   4.705  12.330
86231SOL    HW160590  13.593   4.748  12.368
86231SOL    HW260591  13.520   4.727  12.237
86232SOL     OW60592   2.641   1.419  11.058
86232SOL    HW160593   2.714   1.481  11.052
86232SOL    HW260594   2.681   1.337  11.087
86233SOL     OW60595   8.497   8.716   6.853
86233SOL    HW160596   8.503   8.622   6.872
86233SOL    HW260597   8.418   8.725   6.799
86234SOL     OW60598  12.706   5.122   2.321
86234SOL    HW160599  12.788   5.072   2.323
86234SOL    HW260600  12.659   5.094   2.400
86235SOL     OW60601   5.299   7.040   5.524
86235SOL    HW160602   5.261   7.097   5.589
86235SOL    HW260603   5.393   7.040   5.543
86236SOL     OW60604   9.982  13.275   9.904
86236SOL    HW160605   9.897  13.314   9.883
86236SOL    HW260606  10.043  13.320   9.846
86237SOL     OW60607  11.887   7.235  12.943
86237SOL    HW160608  11.906   7.262  12.853
86237SOL    HW260609  11.809   7.179  12.935
86238SOL     OW60610  10.593   2.480  12.187
86238SOL    HW160611  10.633   2.436  12.261
86238SOL    HW260612  10.569   2.567  12.221
86239SOL     OW60613  14.498   5.763   6.852
86239SOL    HW160614  14.518   5.829   6.785
86239SOL    HW260615  14.438   5.702   6.809
86240SOL     OW60616   4.089   8.144   5.199
86240SOL    HW160617   4.047   8.153   5.285
86240SOL    HW260618   4.096   8.234   5.166
86241SOL     OW60619  10.488   2.592  11.116
86241SOL    HW160620  10.536   2.562  11.193
86241SOL    HW260621  10.540   2.560  11.042
86242SOL     OW60622   6.286   5.420  12.644
86242SOL    HW160623   6.380   5.432  12.659
86242SOL    HW260624   6.246   5.502  12.675
86243SOL     OW60625   8.810   5.620   1.287
86243SOL    HW160626   8.800   5.603   1.194
86243SOL    HW260627   8.766   5.704   1.301
86244SOL     OW60628   3.506  11.884   0.382
86244SOL    HW160629   3.554  11.829   0.444
86244SOL    HW260630   3.481  11.824   0.311
86245SOL     OW60631  14.808  10.840   2.265
86245SOL    HW160632  14.735  10.793   2.225
86245SOL    HW260633  14.833  10.785   2.339
86246SOL     OW60634   8.322  13.921   8.006
86246SOL    HW160635   8.328  13.992   7.943
86246SOL    HW260636   8.321  13.964   8.091
86247SOL     OW60637  13.626   4.028   8.076
86247SOL    HW160638  13.593   4.117   8.065
86247SOL    HW260639  13.567   3.989   8.140
86248SOL     OW60640   6.088   1.149  13.666
86248SOL    HW160641   6.030   1.207  13.715
86248SOL    HW260642   6.044   1.064  13.667
86249SOL     OW60643   3.787  10.891  12.516
86249SOL    HW160644   3.754  10.978  12.539
86249SOL    HW260645   3.712  10.833  12.529
86250SOL     OW60646  14.478   2.907   1.628
86250SOL    HW160647  14.557   2.861   1.654
86250SOL    HW260648  14.407   2.857   1.670
86251SOL     OW60649   6.590  13.878   5.457
86251SOL    HW160650   6.655  13.945   5.478
86251SOL    HW260651   6.638  13.814   5.405
86252SOL     OW60652   2.994  14.087   2.950
86252SOL    HW160653   3.074  14.131   2.922
86252SOL    HW260654   2.924  14.136   2.907
86253SOL     OW60655   1.171  10.548  11.876
86253SOL    HW160656   1.154  10.522  11.967
86253SOL    HW260657   1.233  10.620  11.883
86254SOL     OW60658   0.902  11.581   1.130
86254SOL    HW160659   0.968  11.562   1.064
86254SOL    HW260660   0.830  11.521   1.110
86255SOL     OW60661  12.172   4.067   5.872
86255SOL    HW160662  12.150   4.160   5.881
86255SOL    HW260663  12.128   4.040   5.792
86256SOL     OW60664   8.961  14.507   4.708
86256SOL    HW160665   9.001  14.564   4.773
86256SOL    HW260666   9.018  14.514   4.631
86257SOL     OW60667   2.821   1.250  14.579
86257SOL    HW160668   2.733   1.212  14.575
86257SOL    HW260669   2.865   1.204  14.650
86258SOL     OW60670  13.974   4.076   3.499
86258SOL    HW160671  14.043   4.127   3.456
86258SOL    HW260672  13.943   4.133   3.570
86259SOL     OW60673   1.969  14.822  10.656
86259SOL    HW160674   1.959   0.044  10.631
86259SOL    HW260675   1.908  14.810  10.728
86260SOL     OW60676   8.177  12.250   4.816
86260SOL    HW160677   8.270  12.228   4.810
86260SOL    HW260678   8.165  12.278   4.907
86261SOL     OW60679  14.079   6.059   4.878
86261SOL    HW160680  14.152   6.007   4.844
86261SOL    HW260681  14.021   5.995   4.920
86262SOL     OW60682   6.021   2.035   3.765
86262SOL    HW160683   6.059   2.108   3.716
86262SOL    HW260684   5.967   2.078   3.832
86263SOL     OW60685   0.419   3.926  10.034
86263SOL    HW160686   0.375   3.974   9.964
86263SOL    HW260687   0.348   3.884  10.083
86264SOL     OW60688   0.696  13.979   8.097
86264SOL    HW160689   0.698  14.020   8.183
86264SOL    HW260690   0.764  14.024   8.047
86265SOL     OW60691   3.985   7.359   1.962
86265SOL    HW160692   3.949   7.285   1.914
86265SOL    HW260693   4.080   7.345   1.959
86266SOL     OW60694   8.674   1.800   2.730
86266SOL    HW160695   8.670   1.887   2.769
86266SOL    HW260696   8.727   1.749   2.791
86267SOL     OW60697  13.482   5.682  12.165
86267SOL    HW160698  13.476   5.601  12.113
86267SOL    HW260699  13.575   5.706  12.158
86268SOL     OW60700  11.727  11.080  14.058
86268SOL    HW160701  11.795  11.147  14.055
86268SOL    HW260702  11.673  11.104  14.133
86269SOL     OW60703   3.569   6.527  11.636
86269SOL    HW160704   3.604   6.608  11.600
86269SOL    HW260705   3.602   6.525  11.726
86270SOL     OW60706   7.035  13.998   6.177
86270SOL    HW160707   7.049  14.030   6.088
86270SOL    HW260708   7.085  14.059   6.232
86271SOL     OW60709  12.157  14.317  12.303
86271SOL    HW160710  12.118  14.297  12.388
86271SOL    HW260711  12.245  14.349  12.325
86272SOL     OW60712   7.681  11.282  12.975
86272SOL    HW160713   7.714  11.254  13.060
86272SOL    HW260714   7.601  11.231  12.962
86273SOL     OW60715   6.372  13.215   2.523
86273SOL    HW160716   6.348  13.249   2.437
86273SOL    HW260717   6.313  13.261   2.584
86274SOL     OW60718   8.480   1.227   3.488
86274SOL    HW160719   8.411   1.241   3.553
86274SOL    HW260720   8.560   1.219   3.540
86275SOL     OW60721   0.500   9.531   1.593
86275SOL    HW160722   0.550   9.461   1.634
86275SOL    HW260723   0.443   9.486   1.530
86276SOL     OW60724  11.792   3.671  10.919
86276SOL    HW160725  11.814   3.587  10.880
86276SOL    HW260726  11.793   3.732  10.845
86277SOL     OW60727   4.411   6.537   1.677
86277SOL    HW160728   4.432   6.465   1.736
86277SOL    HW260729   4.430   6.502   1.590
86278SOL     OW60730   7.142  10.516  12.925
86278SOL    HW160731   7.063  10.480  12.965
86278SOL    HW260732   7.212  10.498  12.989
86279SOL     OW60733   2.037  10.550   1.311
86279SOL    HW160734   2.010  10.615   1.376
86279SOL    HW260735   2.078  10.601   1.242
86280SOL     OW60736  14.833  11.315   3.176
86280SOL    HW160737  14.864  11.247   3.235
86280SOL    HW260738  14.745  11.287   3.150
86281SOL     OW60739  12.893   0.292   5.436
86281SOL    HW160740  12.967   0.354   5.439
86281SOL    HW260741  12.818   0.343   5.465
86282SOL     OW60742   1.120   1.093  12.872
86282SOL    HW160743   1.155   1.174  12.835
86282SOL    HW260744   1.186   1.065  12.935
86283SOL     OW60745   1.159   9.800  12.717
86283SOL    HW160746   1.119   9.742  12.781
86283SOL    HW260747   1.126   9.769  12.632
86284SOL     OW60748  13.362  10.228   5.934
86284SOL    HW160749  13.372  10.314   5.975
86284SOL    HW260750  13.421  10.230   5.859
86285SOL     OW60751  14.326  12.466   1.671
86285SOL    HW160752  14.338  12.380   1.712
86285SOL    HW260753  14.292  12.521   1.742
86286SOL     OW60754  13.079   8.943  11.522
86286SOL    HW160755  13.096   9.034  11.544
86286SOL    HW260756  13.166   8.903  11.518
86287SOL     OW60757  13.859   0.696   7.204
86287SOL    HW160758  13.816   0.691   7.119
86287SOL    HW260759  13.808   0.761   7.253
86288SOL     OW60760  11.800   0.474  11.084
86288SOL    HW160761  11.840   0.553  11.049
86288SOL    HW260762  11.831   0.404  11.026
86289SOL     OW60763  13.927  10.478   6.699
86289SOL    HW160764  13.918  10.387   6.725
86289SOL    HW260765  13.943  10.525   6.781
86290SOL     OW60766   7.377   9.425   7.834
86290SOL    HW160767   7.424   9.508   7.843
86290SOL    HW260768   7.285   9.448   7.842
86291SOL     OW60769   3.023   3.521   0.773
86291SOL    HW160770   2.976   3.513   0.690
86291SOL    HW260771   2.999   3.441   0.821
86292SOL     OW60772  10.308   6.414   1.984
86292SOL    HW160773  10.217   6.439   2.000
86292SOL    HW260774  10.302   6.349   1.913
86293SOL     OW60775   3.228  11.181  10.573
86293SOL    HW160776   3.204  11.235  10.649
86293SOL    HW260777   3.302  11.129  10.603
86294SOL     OW60778  10.159  10.030   5.433
86294SOL    HW160779  10.201  10.015   5.349
86294SOL    HW260780  10.113   9.949   5.452
86295SOL     OW60781  12.288   1.833   5.093
86295SOL    HW160782  12.286   1.858   5.185
86295SOL    HW260783  12.318   1.911   5.047
86296SOL     OW60784   7.510  10.300  13.288
86296SOL    HW160785   7.598  10.262  13.293
86296SOL    HW260786   7.468  10.275  13.370
86297SOL     OW60787   7.599   6.305   1.830
86297SOL    HW160788   7.677   6.360   1.837
86297SOL    HW260789   7.632   6.216   1.818
86298SOL     OW60790  10.154   3.359  12.150
86298SOL    HW160791  10.117   3.283  12.195
86298SOL    HW260792  10.102   3.368  12.070
86299SOL     OW60793   7.337  12.153   9.779
86299SOL    HW160794   7.323  12.243   9.808
86299SOL    HW260795   7.249  12.116   9.772
86300SOL     OW60796   8.115  10.342   0.948
86300SOL    HW160797   8.101  10.326   0.854
86300SOL    HW260798   8.208  10.327   0.961
86301SOL     OW60799  14.433   7.844   8.791
86301SOL    HW160800  14.342   7.867   8.809
86301SOL    HW260801  14.428   7.758   8.749
86302SOL     OW60802   0.392   2.684   3.774
86302SOL    HW160803   0.417   2.721   3.859
86302SOL    HW260804   0.410   2.755   3.711
86303SOL     OW60805   2.522   1.791  11.101
86303SOL    HW160806   2.430   1.781  11.126
86303SOL    HW260807   2.529   1.749  11.016
86304SOL     OW60808   5.088   7.106  13.089
86304SOL    HW160809   5.159   7.170  13.100
86304SOL    HW260810   5.074   7.070  13.177
86305SOL     OW60811  11.742  12.078  14.265
86305SOL    HW160812  11.686  12.022  14.319
86305SOL    HW260813  11.763  12.023  14.189
86306SOL     OW60814   4.758   8.074  14.133
86306SOL    HW160815   4.689   8.091  14.198
86306SOL    HW260816   4.717   8.012  14.071
86307SOL     OW60817  13.420   4.958   7.977
86307SOL    HW160818  13.470   5.036   7.999
86307SOL    HW260819  13.482   4.901   7.932
86308SOL     OW60820   1.934   3.476  12.364
86308SOL    HW160821   1.961   3.466  12.455
86308SOL    HW260822   1.965   3.563  12.340
86309SOL     OW60823  10.187  13.501   2.986
86309SOL    HW160824  10.175  13.413   3.022
86309SOL    HW260825  10.281  13.507   2.970
86310SOL     OW60826   6.806  11.410   5.184
86310SOL    HW160827   6.719  11.450   5.182
86310SOL    HW260828   6.864  11.480   5.214
86311SOL     OW60829   8.066   2.908   0.555
86311SOL    HW160830   8.012   2.956   0.493
86311SOL    HW260831   8.063   2.817   0.525
86312SOL     OW60832  11.511   4.039   5.789
86312SOL    HW160833  11.571   4.031   5.715
86312SOL    HW260834  11.514   4.132   5.813
86313SOL     OW60835   2.942   9.594   0.232
86313SOL    HW160836   3.027   9.638   0.226
86313SOL    HW260837   2.955   9.510   0.188
86314SOL     OW60838   0.751  12.345  11.673
86314SOL    HW160839   0.706  12.261  11.682
86314SOL    HW260840   0.844  12.323  11.673
86315SOL     OW60841   7.587  13.102   5.617
86315SOL    HW160842   7.512  13.100   5.558
86315SOL    HW260843   7.573  13.178   5.672
86316SOL     OW60844   0.499   2.794   9.619
86316SOL    HW160845   0.578   2.833   9.655
86316SOL    HW260846   0.525   2.764   9.532
86317SOL     OW60847  14.018   5.250   6.036
86317SOL    HW160848  13.962   5.175   6.054
86317SOL    HW260849  14.108   5.217   6.045
86318SOL     OW60850  10.844  11.473   6.288
86318SOL    HW160851  10.807  11.509   6.369
86318SOL    HW260852  10.768  11.455   6.233
86319SOL     OW60853   7.114   7.205   9.985
86319SOL    HW160854   7.086   7.284  10.031
86319SOL    HW260855   7.062   7.205   9.905
86320SOL     OW60856   8.578   8.939   1.966
86320SOL    HW160857   8.619   9.001   2.026
86320SOL    HW260858   8.484   8.951   1.980
86321SOL     OW60859   5.147   8.539  12.880
86321SOL    HW160860   5.120   8.504  12.795
86321SOL    HW260861   5.195   8.619  12.858
86322SOL     OW60862  10.719   0.372   5.484
86322SOL    HW160863  10.695   0.286   5.518
86322SOL    HW260864  10.683   0.433   5.548
86323SOL     OW60865   8.367   3.769   7.283
86323SOL    HW160866   8.397   3.781   7.193
86323SOL    HW260867   8.287   3.821   7.290
86324SOL     OW60868   3.141   3.542   9.273
86324SOL    HW160869   3.098   3.460   9.249
86324SOL    HW260870   3.165   3.582   9.189
86325SOL     OW60871  14.711   6.791   4.849
86325SOL    HW160872  14.733   6.803   4.757
86325SOL    HW260873  14.781   6.736   4.884
86326SOL     OW60874  13.720   7.596   2.080
86326SOL    HW160875  13.768   7.516   2.060
86326SOL    HW260876  13.642   7.592   2.024
86327SOL     OW60877  13.638   6.056   3.710
86327SOL    HW160878  13.711   6.031   3.766
86327SOL    HW260879  13.662   6.143   3.677
86328SOL     OW60880  13.058  14.543   0.435
86328SOL    HW160881  13.138  14.563   0.386
86328SOL    HW260882  13.062  14.449   0.450
86329SOL     OW60883   6.909   2.009  13.384
86329SOL    HW160884   6.974   1.996  13.453
86329SOL    HW260885   6.829   2.030  13.431
86330SOL     OW60886  14.603   6.480  10.171
86330SOL    HW160887  14.603   6.511  10.080
86330SOL    HW260888  14.533   6.528  10.213
86331SOL     OW60889   3.314   6.726  14.447
86331SOL    HW160890   3.240   6.684  14.402
86331SOL    HW260891   3.384   6.727  14.382
86332SOL     OW60892   1.501   7.872  12.946
86332SOL    HW160893   1.467   7.960  12.931
86332SOL    HW260894   1.578   7.885  13.001
86333SOL     OW60895   1.000   7.159   5.435
86333SOL    HW160896   0.906   7.143   5.430
86333SOL    HW260897   1.008   7.255   5.429
86334SOL     OW60898  11.816  12.404  12.939
86334SOL    HW160899  11.767  12.486  12.941
86334SOL    HW260900  11.874  12.408  13.014
86335SOL     OW60901  11.204   5.883  11.152
86335SOL    HW160902  11.136   5.817  11.143
86335SOL    HW260903  11.251   5.860  11.231
86336SOL     OW60904  12.696  10.235   6.337
86336SOL    HW160905  12.612  10.247   6.381
86336SOL    HW260906  12.714  10.319   6.295
86337SOL     OW60907   2.129   2.950   8.344
86337SOL    HW160908   2.168   2.990   8.422
86337SOL    HW260909   2.108   2.860   8.370
86338SOL     OW60910   3.999  12.157   7.474
86338SOL    HW160911   3.978  12.066   7.453
86338SOL    HW260912   4.063  12.183   7.408
86339SOL     OW60913   7.281  13.007   0.217
86339SOL    HW160914   7.196  13.050   0.208
86339SOL    HW260915   7.331  13.036   0.141
86340SOL     OW60916   4.606   3.030   1.952
86340SOL    HW160917   4.638   3.060   2.037
86340SOL    HW260918   4.558   2.950   1.971
86341SOL     OW60919  10.406   3.134  10.079
86341SOL    HW160920  10.393   3.228  10.069
86341SOL    HW260921  10.358   3.111  10.158
86342SOL     OW60922   3.802   7.889   7.185
86342SOL    HW160923   3.876   7.857   7.134
86342SOL    HW260924   3.725   7.854   7.141
86343SOL     OW60925   2.765   2.852   9.015
86343SOL    HW160926   2.858   2.834   9.029
86343SOL    HW260927   2.740   2.907   9.090
86344SOL     OW60928  14.456  13.322   9.313
86344SOL    HW160929  14.541  13.343   9.276
86344SOL    HW260930  14.394  13.339   9.243
86345SOL     OW60931   2.923   3.427   6.912
86345SOL    HW160932   2.918   3.502   6.972
86345SOL    HW260933   3.001   3.379   6.940
86346SOL     OW60934   7.355   8.818  13.835
86346SOL    HW160935   7.376   8.911  13.850
86346SOL    HW260936   7.313   8.790  13.915
86347SOL     OW60937   4.658   5.609   1.482
86347SOL    HW160938   4.584   5.663   1.507
86347SOL    HW260939   4.679   5.557   1.560
86348SOL     OW60940   1.309   5.343   2.458
86348SOL    HW160941   1.222   5.348   2.498
86348SOL    HW260942   1.310   5.258   2.414
86349SOL     OW60943  14.747  13.020   2.916
86349SOL    HW160944  14.714  13.001   3.003
86349SOL    HW260945  14.674  13.064   2.872
86350SOL     OW60946  12.306   8.542   6.063
86350SOL    HW160947  12.241   8.471   6.061
86350SOL    HW260948  12.351   8.530   6.146
86351SOL     OW60949  14.398   9.272  12.860
86351SOL    HW160950  14.464   9.322  12.909
86351SOL    HW260951  14.416   9.292  12.768
86352SOL     OW60952   7.408   9.990   6.712
86352SOL    HW160953   7.425   9.933   6.638
86352SOL    HW260954   7.323  10.030   6.694
86353SOL     OW60955  12.367   1.479   2.522
86353SOL    HW160956  12.460   1.462   2.506
86353SOL    HW260957  12.322   1.404   2.483
86354SOL     OW60958  12.222   7.041  12.053
86354SOL    HW160959  12.300   7.096  12.046
86354SOL    HW260960  12.181   7.046  11.967
86355SOL     OW60961   4.465  10.871   4.384
86355SOL    HW160962   4.552  10.899   4.355
86355SOL    HW260963   4.405  10.938   4.349
86356SOL     OW60964  13.641  11.348   4.222
86356SOL    HW160965  13.707  11.282   4.203
86356SOL    HW260966  13.570  11.330   4.160
86357SOL     OW60967  13.801  13.387   8.790
86357SOL    HW160968  13.839  13.436   8.718
86357SOL    HW260969  13.868  13.388   8.858
86358SOL     OW60970   6.756   5.444   2.517
86358SOL    HW160971   6.798   5.483   2.593
86358SOL    HW260972   6.677   5.403   2.552
86359SOL     OW60973   7.838   5.802  12.982
86359SOL    HW160974   7.758   5.757  12.956
86359SOL    HW260975   7.808   5.876  13.034
86360SOL     OW60976   9.836  12.846   8.176
86360SOL    HW160977   9.769  12.777   8.174
86360SOL    HW260978   9.786  12.928   8.176
86361SOL     OW60979   2.421   7.672   8.594
86361SOL    HW160980   2.409   7.579   8.574
86361SOL    HW260981   2.352   7.715   8.545
86362SOL     OW60982   0.433   5.369  13.977
86362SOL    HW160983   0.478   5.294  13.939
86362SOL    HW260984   0.430   5.350  14.071
86363SOL     OW60985   7.013   5.108   4.475
86363SOL    HW160986   6.936   5.111   4.532
86363SOL    HW260987   6.998   5.178   4.412
86364SOL     OW60988  14.686  13.158   5.475
86364SOL    HW160989  14.653  13.231   5.528
86364SOL    HW260990  14.608  13.109   5.449
86365SOL     OW60991   2.416  14.337  10.180
86365SOL    HW160992   2.448  14.340  10.090
86365SOL    HW260993   2.371  14.252  10.187
86366SOL     OW60994  14.009   7.486  10.737
86366SOL    HW160995  13.920   7.491  10.702
86366SOL    HW260996  14.044   7.405  10.702
86367SOL     OW60997  13.198  14.712   2.109
86367SOL    HW160998  13.270  14.663   2.070
86367SOL    HW260999  13.121  14.655   2.096
86368SOL     OW61000   5.260   1.711  14.857
86368SOL    HW161001   5.211   1.749   0.060
86368SOL    HW261002   5.263   1.780  14.791
86369SOL     OW61003   7.285   3.244   9.104
86369SOL    HW161004   7.221   3.172   9.107
86369SOL    HW261005   7.297   3.268   9.196
86370SOL     OW61006   0.093   2.967  11.764
86370SOL    HW161007   0.047   2.953  11.681
86370SOL    HW261008   0.038   2.924  11.829
86371SOL     OW61009  12.723   7.743   2.192
86371SOL    HW161010  12.738   7.668   2.248
86371SOL    HW261011  12.628   7.744   2.177
86372SOL     OW61012   2.336  13.209  11.154
86372SOL    HW161013   2.305  13.127  11.115
86372SOL    HW261014   2.369  13.183  11.240
86373SOL     OW61015   1.717   0.561   6.951
86373SOL    HW161016   1.796   0.555   7.004
86373SOL    HW261017   1.741   0.519   6.868
86374SOL     OW61018   6.792   2.152  11.884
86374SOL    HW161019   6.806   2.180  11.975
86374SOL    HW261020   6.880   2.136  11.850
86375SOL     OW61021  13.571   0.144  10.178
86375SOL    HW161022  13.609   0.142  10.266
86375SOL    HW261023  13.637   0.188  10.125
86376SOL     OW61024   3.812   3.891   0.835
86376SOL    HW161025   3.817   3.831   0.909
86376SOL    HW261026   3.726   3.873   0.796
86377SOL     OW61027   4.744   9.701  12.299
86377SOL    HW161028   4.766   9.650  12.377
86377SOL    HW261029   4.745   9.792  12.330
86378SOL     OW61030  11.971   9.617   5.111
86378SOL    HW161031  11.925   9.544   5.070
86378SOL    HW261032  11.913   9.645   5.182
86379SOL     OW61033   2.975   8.059  14.223
86379SOL    HW161034   2.919   8.128  14.258
86379SOL    HW261035   3.047   8.052  14.285
86380SOL     OW61036   3.984  12.278   8.474
86380SOL    HW161037   3.977  12.262   8.379
86380SOL    HW261038   3.926  12.353   8.490
86381SOL     OW61039  11.410   3.686   8.990
86381SOL    HW161040  11.370   3.754   8.936
86381SOL    HW261041  11.465   3.636   8.929
86382SOL     OW61042   7.954   9.041  13.677
86382SOL    HW161043   7.951   9.061  13.583
86382SOL    HW261044   8.026   9.095  13.710
86383SOL     OW61045   4.323  11.935   9.398
86383SOL    HW161046   4.228  11.944   9.390
86383SOL    HW261047   4.339  11.840   9.393
86384SOL     OW61048  11.627   5.210  12.893
86384SOL    HW161049  11.561   5.142  12.877
86384SOL    HW261050  11.594   5.286  12.846
86385SOL     OW61051   1.206   1.395  12.270
86385SOL    HW161052   1.295   1.365  12.290
86385SOL    HW261053   1.186   1.356  12.185
86386SOL     OW61054   7.241   4.643   7.935
86386SOL    HW161055   7.250   4.679   7.846
86386SOL    HW261056   7.286   4.706   7.991
86387SOL     OW61057  13.544   6.109   4.058
86387SOL    HW161058  13.484   6.133   3.987
86387SOL    HW261059  13.597   6.187   4.073
86388SOL     OW61060   6.045   7.417   5.931
86388SOL    HW161061   6.107   7.412   6.003
86388SOL    HW261062   6.040   7.327   5.898
86389SOL     OW61063   0.673   7.939  14.354
86389SOL    HW161064   0.758   7.899  14.377
86389SOL    HW261065   0.696   8.023  14.316
86390SOL     OW61066  11.790   4.268   1.751
86390SOL    HW161067  11.885   4.265   1.739
86390SOL    HW261068  11.778   4.253   1.845
86391SOL     OW61069   4.108   2.962   1.856
86391SOL    HW161070   4.164   3.014   1.913
86391SOL    HW261071   4.020   2.975   1.891
86392SOL     OW61072   0.115  13.100   8.399
86392SOL    HW161073   0.136  13.190   8.426
86392SOL    HW261074   0.125  13.101   8.304
86393SOL     OW61075   0.871  14.590  13.010
86393SOL    HW161076   0.891  14.682  13.024
86393SOL    HW261077   0.918  14.566  12.931
86394SOL     OW61078  12.681   7.984  12.272
86394SOL    HW161079  12.642   7.897  12.278
86394SOL    HW261080  12.608   8.044  12.287
86395SOL     OW61081  11.217  13.791  14.127
86395SOL    HW161082  11.189  13.705  14.098
86395SOL    HW261083  11.219  13.844  14.047
86396SOL     OW61084  10.611   1.713  10.494
86396SOL    HW161085  10.683   1.682  10.439
86396SOL    HW261086  10.630   1.677  10.580
86397SOL     OW61087   9.316  14.310  12.630
86397SOL    HW161088   9.405  14.315  12.595
86397SOL    HW261089   9.277  14.233  12.589
86398SOL     OW61090   6.458   6.366   0.906
86398SOL    HW161091   6.437   6.273   0.901
86398SOL    HW261092   6.425   6.394   0.991
86399SOL     OW61093   6.827   7.493  13.629
86399SOL    HW161094   6.797   7.482  13.719
86399SOL    HW261095   6.817   7.406  13.590
86400SOL     OW61096  11.569  14.047   6.224
86400SOL    HW161097  11.594  14.014   6.137
86400SOL    HW261098  11.479  14.079   6.213
86401SOL     OW61099   2.102   5.251   8.947
86401SOL    HW161100   2.142   5.250   9.035
86401SOL    HW261101   2.162   5.303   8.894
86402SOL     OW61102   7.810   8.960  12.601
86402SOL    HW161103   7.780   8.928  12.516
86402SOL    HW261104   7.898   8.994  12.585
86403SOL     OW61105   7.871   1.821   1.071
86403SOL    HW161106   7.806   1.762   1.033
86403SOL    HW261107   7.884   1.788   1.160
86404SOL     OW61108   6.679  12.920   6.925
86404SOL    HW161109   6.769  12.953   6.933
86404SOL    HW261110   6.640  12.974   6.857
86405SOL     OW61111   4.536  10.333  13.597
86405SOL    HW161112   4.562  10.290  13.679
86405SOL    HW261113   4.532  10.426  13.619
86406SOL     OW61114  12.290   4.241  14.399
86406SOL    HW161115  12.260   4.277  14.482
86406SOL    HW261116  12.375   4.200  14.420
86407SOL     OW61117   7.924  12.376   8.597
86407SOL    HW161118   7.908  12.453   8.542
86407SOL    HW261119   7.861  12.311   8.567
86408SOL     OW61120   3.511  10.568   6.642
86408SOL    HW161121   3.536  10.525   6.723
86408SOL    HW261122   3.493  10.659   6.668
86409SOL     OW61123   0.410  13.347   3.322
86409SOL    HW161124   0.445  13.259   3.313
86409SOL    HW261125   0.331  13.347   3.267
86410SOL     OW61126   1.155   0.521   4.417
86410SOL    HW161127   1.136   0.488   4.329
86410SOL    HW261128   1.248   0.499   4.430
86411SOL     OW61129   3.077   8.561  14.763
86411SOL    HW161130   3.099   8.494  14.827
86411SOL    HW261131   3.157   8.613  14.753
86412SOL     OW61132   1.771  11.922  14.788
86412SOL    HW161133   1.696  11.874  14.753
86412SOL    HW261134   1.845  11.896  14.732
86413SOL     OW61135  13.158   2.425   8.899
86413SOL    HW161136  13.098   2.449   8.969
86413SOL    HW261137  13.217   2.361   8.940
86414SOL     OW61138  13.679   9.193  14.192
86414SOL    HW161139  13.630   9.161  14.268
86414SOL    HW261140  13.614   9.238  14.139
86415SOL     OW61141   5.447   0.085  10.648
86415SOL    HW161142   5.404   0.026  10.587
86415SOL    HW261143   5.506   0.029  10.698
86416SOL     OW61144   2.363  10.833  14.778
86416SOL    HW161145   2.393  10.764  14.719
86416SOL    HW261146   2.275  10.854  14.748
86417SOL     OW61147   8.719   1.956  12.898
86417SOL    HW161148   8.781   2.020  12.934
86417SOL    HW261149   8.737   1.876  12.946
86418SOL     OW61150   9.799  10.348  10.633
86418SOL    HW161151   9.762  10.393  10.709
86418SOL    HW261152   9.743  10.272  10.621
86419SOL     OW61153   6.498   3.673  13.271
86419SOL    HW161154   6.489   3.607  13.340
86419SOL    HW261155   6.410   3.706  13.258
86420SOL     OW61156  14.355   2.358  11.637
86420SOL    HW161157  14.294   2.425  11.667
86420SOL    HW261158  14.309   2.313  11.566
86421SOL     OW61159   4.927   5.566   5.070
86421SOL    HW161160   4.951   5.473   5.077
86421SOL    HW261161   5.007   5.613   5.093
86422SOL     OW61162  11.712   2.302   2.399
86422SOL    HW161163  11.759   2.279   2.319
86422SOL    HW261164  11.640   2.240   2.403
86423SOL     OW61165  10.285   1.560   0.480
86423SOL    HW161166  10.362   1.549   0.536
86423SOL    HW261167  10.215   1.516   0.528
86424SOL     OW61168   6.054   5.329  11.019
86424SOL    HW161169   6.041   5.304  10.927
86424SOL    HW261170   6.104   5.411  11.015
86425SOL     OW61171  12.836   5.347  13.483
86425SOL    HW161172  12.759   5.294  13.461
86425SOL    HW261173  12.901   5.325  13.418
86426SOL     OW61174   7.164   9.169   4.708
86426SOL    HW161175   7.215   9.172   4.627
86426SOL    HW261176   7.163   9.076   4.733
86427SOL     OW61177   6.494   3.435   4.359
86427SOL    HW161178   6.540   3.519   4.356
86427SOL    HW261179   6.417   3.453   4.414
86428SOL     OW61180   0.798  12.871   9.152
86428SOL    HW161181   0.810  12.915   9.236
86428SOL    HW261182   0.835  12.931   9.088
86429SOL     OW61183  13.131   2.021   3.445
86429SOL    HW161184  13.115   1.962   3.371
86429SOL    HW261185  13.204   2.076   3.417
86430SOL     OW61186   5.620  14.569   3.891
86430SOL    HW161187   5.558  14.519   3.837
86430SOL    HW261188   5.692  14.509   3.907
86431SOL     OW61189   8.807   3.477   3.597
86431SOL    HW161190   8.734   3.465   3.537
86431SOL    HW261191   8.770   3.528   3.669
86432SOL     OW61192   2.593   0.544   7.692
86432SOL    HW161193   2.668   0.584   7.646
86432SOL    HW261194   2.547   0.617   7.732
86433SOL     OW61195   1.389  13.260   7.817
86433SOL    HW161196   1.419  13.273   7.907
86433SOL    HW261197   1.293  13.258   7.824
86434SOL     OW61198  11.389   6.257   0.583
86434SOL    HW161199  11.361   6.168   0.600
86434SOL    HW261200  11.430   6.286   0.664
86435SOL     OW61201   5.683  11.651   4.564
86435SOL    HW161202   5.741  11.706   4.511
86435SOL    HW261203   5.686  11.565   4.521
86436SOL     OW61204   7.086   0.116   2.418
86436SOL    HW161205   7.084   0.033   2.370
86436SOL    HW261206   7.119   0.092   2.505
86437SOL     OW61207   5.283   7.138   3.881
86437SOL    HW161208   5.367   7.119   3.840
86437SOL    HW261209   5.252   7.217   3.837
86438SOL     OW61210  14.022   6.215   1.820
86438SOL    HW161211  13.996   6.305   1.837
86438SOL    HW261212  13.943   6.174   1.784
86439SOL     OW61213   9.112   9.376  10.481
86439SOL    HW161214   9.195   9.371  10.435
86439SOL    HW261215   9.092   9.470  10.485
86440SOL     OW61216   0.815   7.929   7.862
86440SOL    HW161217   0.775   7.903   7.945
86440SOL    HW261218   0.803   8.024   7.858
86441SOL     OW61219   9.667   3.982   3.763
86441SOL    HW161220   9.753   3.940   3.753
86441SOL    HW261221   9.687   4.076   3.765
86442SOL     OW61222   7.798   1.455   6.688
86442SOL    HW161223   7.857   1.529   6.699
86442SOL    HW261224   7.775   1.456   6.595
86443SOL     OW61225   0.395  11.120   4.018
86443SOL    HW161226   0.404  11.188   3.952
86443SOL    HW261227   0.310  11.081   4.001
86444SOL     OW61228  10.565  10.825   5.197
86444SOL    HW161229  10.623  10.892   5.233
86444SOL    HW261230  10.623  10.765   5.150
86445SOL     OW61231  14.523  12.421  13.052
86445SOL    HW161232  14.430  12.406  13.034
86445SOL    HW261233  14.537  12.514  13.033
86446SOL     OW61234   2.075   7.928   8.558
86446SOL    HW161235   2.049   8.012   8.519
86446SOL    HW261236   2.103   7.875   8.483
86447SOL     OW61237  14.229  13.300   4.167
86447SOL    HW161238  14.194  13.249   4.094
86447SOL    HW261239  14.323  13.304   4.150
86448SOL     OW61240   3.229  13.594   3.543
86448SOL    HW161241   3.219  13.639   3.459
86448SOL    HW261242   3.225  13.663   3.609
86449SOL     OW61243   5.479   6.314   4.686
86449SOL    HW161244   5.482   6.218   4.687
86449SOL    HW261245   5.481   6.337   4.593
86450SOL     OW61246   6.185  14.834   4.239
86450SOL    HW161247   6.274  14.868   4.237
86450SOL    HW261248   6.189  14.759   4.298
86451SOL     OW61249  14.508  14.057   7.749
86451SOL    HW161250  14.529  14.095   7.835
86451SOL    HW261251  14.435  14.110   7.716
86452SOL     OW61252  10.259   2.900   5.450
86452SOL    HW161253  10.214   2.817   5.468
86452SOL    HW261254  10.284   2.894   5.358
86453SOL     OW61255   2.686   6.857   5.390
86453SOL    HW161256   2.617   6.846   5.455
86453SOL    HW261257   2.732   6.773   5.390
86454SOL     OW61258  12.639   6.688  13.915
86454SOL    HW161259  12.696   6.667  13.988
86454SOL    HW261260  12.694   6.679  13.837
86455SOL     OW61261   4.788   8.866  14.701
86455SOL    HW161262   4.835   8.785  14.681
86455SOL    HW261263   4.775   8.863  14.796
86456SOL     OW61264  12.562  11.916   4.555
86456SOL    HW161265  12.587  11.976   4.485
86456SOL    HW261266  12.585  11.829   4.522
86457SOL     OW61267   4.481   4.655  14.338
86457SOL    HW161268   4.559   4.622  14.294
86457SOL    HW261269   4.486   4.750  14.329
86458SOL     OW61270   9.181   5.641   1.021
86458SOL    HW161271   9.234   5.631   1.100
86458SOL    HW261272   9.195   5.731   0.993
86459SOL     OW61273  12.455   0.553   4.879
86459SOL    HW161274  12.433   0.471   4.925
86459SOL    HW261275  12.371   0.596   4.866
86460SOL     OW61276  12.555  10.299  13.045
86460SOL    HW161277  12.481  10.355  13.024
86460SOL    HW261278  12.517  10.211  13.054
86461SOL     OW61279   8.372  13.388  14.019
86461SOL    HW161280   8.327  13.449  13.961
86461SOL    HW261281   8.311  13.372  14.091
86462SOL     OW61282   5.993   6.844   4.332
86462SOL    HW161283   6.078   6.829   4.290
86462SOL    HW261284   5.954   6.758   4.341
86463SOL     OW61285   8.020  11.846  11.773
86463SOL    HW161286   8.055  11.760  11.748
86463SOL    HW261287   7.954  11.866  11.707
86464SOL     OW61288   1.078  10.107   9.131
86464SOL    HW161289   1.152  10.128   9.188
86464SOL    HW261290   1.001  10.124   9.185
86465SOL     OW61291  14.257   3.753   4.260
86465SOL    HW161292  14.282   3.841   4.290
86465SOL    HW261293  14.167   3.764   4.229
86466SOL     OW61294   4.139  10.039  10.546
86466SOL    HW161295   4.148  10.109  10.611
86466SOL    HW261296   4.189   9.966  10.583
86467SOL     OW61297  11.004   9.401  14.056
86467SOL    HW161298  10.924   9.350  14.055
86467SOL    HW261299  11.065   9.353  14.000
86468SOL     OW61300   0.053   9.394   7.805
86468SOL    HW161301  14.848   9.449   7.829
86468SOL    HW261302   0.086   9.361   7.889
86469SOL     OW61303   0.419   8.532   3.405
86469SOL    HW161304   0.333   8.540   3.365
86469SOL    HW261305   0.477   8.584   3.350
86470SOL     OW61306   5.606   4.369   6.071
86470SOL    HW161307   5.619   4.460   6.099
86470SOL    HW261308   5.695   4.333   6.066
86471SOL     OW61309   2.338  10.850   0.643
86471SOL    HW161310   2.312  10.760   0.660
86471SOL    HW261311   2.319  10.896   0.725
86472SOL     OW61312  13.408  11.203   3.881
86472SOL    HW161313  13.460  11.280   3.904
86472SOL    HW261314  13.380  11.168   3.966
86473SOL     OW61315   3.499   2.533  10.163
86473SOL    HW161316   3.405   2.515  10.166
86473SOL    HW261317   3.512   2.604  10.225
86474SOL     OW61318   4.141   8.733   4.824
86474SOL    HW161319   4.234   8.719   4.839
86474SOL    HW261320   4.108   8.648   4.792
86475SOL     OW61321   4.397   8.833  12.804
86475SOL    HW161322   4.328   8.780  12.766
86475SOL    HW261323   4.467   8.770  12.825
86476SOL     OW61324   5.462   0.841   6.231
86476SOL    HW161325   5.408   0.821   6.308
86476SOL    HW261326   5.522   0.910   6.261
86477SOL     OW61327   5.067   5.590   3.390
86477SOL    HW161328   4.988   5.550   3.356
86477SOL    HW261329   5.065   5.679   3.355
86478SOL     OW61330  12.284  11.538   6.253
86478SOL    HW161331  12.278  11.575   6.341
86478SOL    HW261332  12.291  11.614   6.195
86479SOL     OW61333   2.238   5.822   9.500
86479SOL    HW161334   2.196   5.807   9.415
86479SOL    HW261335   2.176   5.786   9.564
86480SOL     OW61336  13.211   3.971   3.117
86480SOL    HW161337  13.274   4.012   3.176
86480SOL    HW261338  13.160   3.912   3.172
86481SOL     OW61339   6.783  10.069   9.169
86481SOL    HW161340   6.749   9.981   9.185
86481SOL    HW261341   6.825  10.063   9.083
86482SOL     OW61342  14.867   4.894   3.810
86482SOL    HW161343  14.841   4.968   3.754
86482SOL    HW261344   0.085   4.917   3.839
86483SOL     OW61345  14.582  14.734  10.381
86483SOL    HW161346  14.499  14.709  10.342
86483SOL    HW261347  14.638  14.657  10.371
86484SOL     OW61348   9.686  14.537   4.702
86484SOL    HW161349   9.771  14.552   4.744
86484SOL    HW261350   9.626  14.595   4.749
86485SOL     OW61351  11.087   5.730  12.347
86485SOL    HW161352  11.135   5.789  12.288
86485SOL    HW261353  10.997   5.761  12.345
86486SOL     OW61354  10.731   0.990   9.668
86486SOL    HW161355  10.816   1.013   9.706
86486SOL    HW261356  10.688   0.937   9.735
86487SOL     OW61357   0.055  11.426   1.951
86487SOL    HW161358   0.087  11.338   1.973
86487SOL    HW261359   0.020  11.417   1.863
86488SOL     OW61360   1.686   7.137   8.827
86488SOL    HW161361   1.772   7.178   8.820
86488SOL    HW261362   1.625   7.210   8.834
86489SOL     OW61363  10.141   0.283  12.771
86489SOL    HW161364  10.174   0.197  12.746
86489SOL    HW261365  10.170   0.295  12.862
86490SOL     OW61366  10.423   4.780  10.742
86490SOL    HW161367  10.362   4.843  10.704
86490SOL    HW261368  10.386   4.759  10.828
86491SOL     OW61369   9.606   6.344  13.234
86491SOL    HW161370   9.685   6.351  13.180
86491SOL    HW261371   9.586   6.251  13.234
86492SOL     OW61372   0.369   5.216   1.413
86492SOL    HW161373   0.438   5.152   1.428
86492SOL    HW261374   0.415   5.293   1.381
86493SOL     OW61375   8.996   4.297  12.655
86493SOL    HW161376   8.905   4.267  12.656
86493SOL    HW261377   8.990   4.389  12.683
86494SOL     OW61378  12.758   7.022   5.284
86494SOL    HW161379  12.696   6.994   5.217
86494SOL    HW261380  12.731   7.112   5.305
86495SOL     OW61381   6.462   3.820   0.574
86495SOL    HW161382   6.403   3.745   0.581
86495SOL    HW261383   6.425   3.885   0.633
86496SOL     OW61384   8.594   1.887   3.493
86496SOL    HW161385   8.606   1.980   3.511
86496SOL    HW261386   8.635   1.874   3.407
86497SOL     OW61387   8.691   5.482  12.169
86497SOL    HW161388   8.669   5.563  12.215
86497SOL    HW261389   8.783   5.491  12.146
86498SOL     OW61390  12.608   2.285   3.981
86498SOL    HW161391  12.661   2.249   3.911
86498SOL    HW261392  12.580   2.371   3.949
86499SOL     OW61393  12.311   6.917  14.418
86499SOL    HW161394  12.260   6.951  14.491
86499SOL    HW261395  12.276   6.963  14.341
86500SOL     OW61396   9.135   9.726   1.680
86500SOL    HW161397   9.063   9.748   1.739
86500SOL    HW261398   9.212   9.767   1.719
86501SOL     OW61399   1.131   5.360   7.332
86501SOL    HW161400   1.178   5.346   7.414
86501SOL    HW261401   1.198   5.350   7.264
86502SOL     OW61402  13.151   5.006  14.196
86502SOL    HW161403  13.163   5.014  14.291
86502SOL    HW261404  13.194   5.085  14.161
86503SOL     OW61405   1.304  13.834   8.730
86503SOL    HW161406   1.211  13.819   8.714
86503SOL    HW261407   1.328  13.905   8.671
86504SOL     OW61408   8.826  12.120   8.119
86504SOL    HW161409   8.827  12.086   8.030
86504SOL    HW261410   8.797  12.211   8.110
86505SOL     OW61411   2.966  10.832  14.291
86505SOL    HW161412   2.940  10.828  14.383
86505SOL    HW261413   3.007  10.917  14.281
86506SOL     OW61414   4.551  10.879  13.727
86506SOL    HW161415   4.474  10.901  13.674
86506SOL    HW261416   4.618  10.854  13.663
86507SOL     OW61417   8.448   6.716  14.171
86507SOL    HW161418   8.403   6.641  14.209
86507SOL    HW261419   8.511   6.678  14.110
86508SOL     OW61420   4.306   5.646  10.260
86508SOL    HW161421   4.216   5.626  10.237
86508SOL    HW261422   4.335   5.709  10.194
86509SOL     OW61423  11.171   6.814   4.150
86509SOL    HW161424  11.098   6.755   4.130
86509SOL    HW261425  11.202   6.843   4.064
86510SOL     OW61426   9.611  12.603   1.970
86510SOL    HW161427   9.707  12.598   1.969
86510SOL    HW261428   9.587  12.581   2.060
86511SOL     OW61429  14.784  12.574   0.297
86511SOL    HW161430  14.821  12.498   0.252
86511SOL    HW261431  14.720  12.611   0.235
86512SOL     OW61432   6.744   4.258  14.843
86512SOL    HW161433   6.724   4.179   0.024
86512SOL    HW261434   6.789   4.315   0.035
86513SOL     OW61435  14.620  13.112   8.439
86513SOL    HW161436  14.529  13.142   8.443
86513SOL    HW261437  14.614  13.021   8.412
86514SOL     OW61438   8.614   1.123   2.232
86514SOL    HW161439   8.544   1.070   2.270
86514SOL    HW261440   8.683   1.124   2.299
86515SOL     OW61441  10.746   3.614   2.913
86515SOL    HW161442  10.679   3.602   2.846
86515SOL    HW261443  10.732   3.703   2.945
86516SOL     OW61444  10.804   1.811   9.924
86516SOL    HW161445  10.771   1.737   9.873
86516SOL    HW261446  10.727   1.844   9.970
86517SOL     OW61447   4.207   9.830   0.686
86517SOL    HW161448   4.257   9.781   0.752
86517SOL    HW261449   4.249   9.916   0.682
86518SOL     OW61450   7.341  12.642  13.193
86518SOL    HW161451   7.315  12.660  13.103
86518SOL    HW261452   7.283  12.697  13.246
86519SOL     OW61453   7.676   0.565  11.759
86519SOL    HW161454   7.652   0.540  11.848
86519SOL    HW261455   7.738   0.638  11.771
86520SOL     OW61456  12.488   2.928   3.063
86520SOL    HW161457  12.450   2.865   3.003
86520SOL    HW261458  12.546   2.982   3.008
86521SOL     OW61459   1.780   9.532   4.151
86521SOL    HW161460   1.776   9.455   4.095
86521SOL    HW261461   1.863   9.574   4.127
86522SOL     OW61462   2.115   4.274   3.191
86522SOL    HW161463   2.041   4.217   3.171
86522SOL    HW261464   2.152   4.297   3.106
86523SOL     OW61465   7.429   6.434  12.437
86523SOL    HW161466   7.436   6.437  12.532
86523SOL    HW261467   7.520   6.434  12.406
86524SOL     OW61468   6.559   4.253  11.988
86524SOL    HW161469   6.476   4.227  11.948
86524SOL    HW261470   6.602   4.306  11.921
86525SOL     OW61471   6.864   3.169   5.069
86525SOL    HW161472   6.787   3.212   5.031
86525SOL    HW261473   6.889   3.225   5.142
86526SOL     OW61474   9.597   2.086  10.952
86526SOL    HW161475   9.576   2.176  10.927
86526SOL    HW261476   9.512   2.048  10.976
86527SOL     OW61477   8.626   7.670   7.519
86527SOL    HW161478   8.551   7.724   7.544
86527SOL    HW261479   8.695   7.695   7.581
86528SOL     OW61480   8.121   6.030   8.196
86528SOL    HW161481   8.207   6.074   8.196
86528SOL    HW261482   8.104   6.013   8.104
86529SOL     OW61483   2.930  13.544   2.134
86529SOL    HW161484   2.836  13.527   2.144
86529SOL    HW261485   2.950  13.607   2.203
86530SOL     OW61486   1.831   6.323   6.000
86530SOL    HW161487   1.760   6.263   5.975
86530SOL    HW261488   1.820   6.397   5.941
86531SOL     OW61489  10.579   2.907   9.051
86531SOL    HW161490  10.499   2.874   9.011
86531SOL    HW261491  10.626   2.828   9.080
86532SOL     OW61492   7.985   4.615   1.961
86532SOL    HW161493   7.972   4.531   2.006
86532SOL    HW261494   7.906   4.665   1.980
86533SOL     OW61495   6.097   6.585   4.682
86533SOL    HW161496   6.043   6.535   4.621
86533SOL    HW261497   6.048   6.666   4.695
86534SOL     OW61498   6.281   7.429   1.376
86534SOL    HW161499   6.275   7.504   1.436
86534SOL    HW261500   6.374   7.409   1.371
86535SOL     OW61501   4.145   5.018   5.323
86535SOL    HW161502   4.154   5.113   5.324
86535SOL    HW261503   4.052   5.002   5.310
86536SOL     OW61504   3.204   2.298  11.561
86536SOL    HW161505   3.258   2.346  11.624
86536SOL    HW261506   3.254   2.302  11.479
86537SOL     OW61507  12.216   2.733  11.676
86537SOL    HW161508  12.219   2.828  11.684
86537SOL    HW261509  12.304   2.709  11.645
86538SOL     OW61510  14.318   1.397   1.835
86538SOL    HW161511  14.236   1.348   1.839
86538SOL    HW261512  14.336   1.422   1.925
86539SOL     OW61513   0.879   6.289   1.639
86539SOL    HW161514   0.919   6.359   1.690
86539SOL    HW261515   0.952   6.236   1.609
86540SOL     OW61516   4.358   0.705  10.048
86540SOL    HW161517   4.411   0.780  10.021
86540SOL    HW261518   4.400   0.629  10.008
86541SOL     OW61519  12.992   6.996   4.756
86541SOL    HW161520  12.918   7.035   4.803
86541SOL    HW261521  12.991   7.039   4.670
86542SOL     OW61522  14.299   2.281   1.823
86542SOL    HW161523  14.209   2.269   1.792
86542SOL    HW261524  14.332   2.193   1.838
86543SOL     OW61525   8.335   0.048   7.548
86543SOL    HW161526   8.311   0.042   7.640
86543SOL    HW261527   8.305   0.134   7.521
86544SOL     OW61528  12.439   7.146   5.948
86544SOL    HW161529  12.411   7.128   5.859
86544SOL    HW261530  12.494   7.224   5.941
86545SOL     OW61531   8.584  14.069  14.607
86545SOL    HW161532   8.620  14.158  14.598
86545SOL    HW261533   8.649  14.023  14.660
86546SOL     OW61534   5.522   9.103   3.173
86546SOL    HW161535   5.517   9.030   3.235
86546SOL    HW261536   5.432   9.113   3.140
86547SOL     OW61537  11.314   9.765   2.043
86547SOL    HW161538  11.368   9.693   2.076
86547SOL    HW261539  11.363   9.800   1.969
86548SOL     OW61540   4.871  10.731   6.171
86548SOL    HW161541   4.829  10.658   6.126
86548SOL    HW261542   4.872  10.706   6.263
86549SOL     OW61543   4.251  10.462   5.560
86549SOL    HW161544   4.334  10.443   5.518
86549SOL    HW261545   4.187  10.465   5.489
86550SOL     OW61546  11.203   0.732   4.743
86550SOL    HW161547  11.256   0.712   4.820
86550SOL    HW261548  11.266   0.754   4.675
86551SOL     OW61549   1.660   4.673   1.432
86551SOL    HW161550   1.678   4.683   1.338
86551SOL    HW261551   1.743   4.645   1.469
86552SOL     OW61552   8.876   3.509   4.922
86552SOL    HW161553   8.859   3.416   4.910
86552SOL    HW261554   8.816   3.553   4.862
86553SOL     OW61555  10.480  14.165   4.540
86553SOL    HW161556  10.410  14.162   4.604
86553SOL    HW261557  10.552  14.210   4.585
86554SOL     OW61558   8.126  12.680   5.120
86554SOL    HW161559   8.050  12.710   5.071
86554SOL    HW261560   8.200  12.693   5.060
86555SOL     OW61561   4.092   1.701   4.136
86555SOL    HW161562   4.098   1.663   4.224
86555SOL    HW261563   4.173   1.749   4.124
86556SOL     OW61564  10.374   8.630   7.278
86556SOL    HW161565  10.369   8.680   7.360
86556SOL    HW261566  10.425   8.685   7.220
86557SOL     OW61567   1.123  10.119  11.220
86557SOL    HW161568   1.158  10.032  11.235
86557SOL    HW261569   1.085  10.145  11.304
86558SOL     OW61570  14.309   4.404   1.730
86558SOL    HW161571  14.335   4.402   1.822
86558SOL    HW261572  14.270   4.491   1.718
86559SOL     OW61573   4.987  12.002   9.402
86559SOL    HW161574   5.017  11.927   9.452
86559SOL    HW261575   4.922  11.967   9.342
86560SOL     OW61576  10.612   2.257   6.807
86560SOL    HW161577  10.654   2.228   6.888
86560SOL    HW261578  10.521   2.273   6.832
86561SOL     OW61579  11.555   5.318   7.344
86561SOL    HW161580  11.485   5.343   7.284
86561SOL    HW261581  11.628   5.376   7.323
86562SOL     OW61582  11.115   1.648  13.144
86562SOL    HW161583  11.089   1.740  13.141
86562SOL    HW261584  11.138   1.632  13.236
86563SOL     OW61585   1.682  11.560   6.647
86563SOL    HW161586   1.615  11.625   6.627
86563SOL    HW261587   1.636  11.476   6.646
86564SOL     OW61588   8.942   9.196   7.625
86564SOL    HW161589   8.991   9.123   7.663
86564SOL    HW261590   8.860   9.158   7.596
86565SOL     OW61591   3.415   8.843  13.702
86565SOL    HW161592   3.341   8.901  13.682
86565SOL    HW261593   3.493   8.897  13.685
86566SOL     OW61594  10.558   0.321   8.433
86566SOL    HW161595  10.590   0.232   8.422
86566SOL    HW261596  10.523   0.345   8.347
86567SOL     OW61597  12.975   6.674   8.594
86567SOL    HW161598  13.045   6.691   8.531
86567SOL    HW261599  12.947   6.584   8.575
86568SOL     OW61600   7.178   9.372   6.410
86568SOL    HW161601   7.205   9.412   6.328
86568SOL    HW261602   7.117   9.303   6.384
86569SOL     OW61603   3.002  14.270   7.250
86569SOL    HW161604   2.942  14.340   7.277
86569SOL    HW261605   2.980  14.254   7.158
86570SOL     OW61606  11.213   4.669   3.505
86570SOL    HW161607  11.197   4.759   3.533
86570SOL    HW261608  11.219   4.674   3.409
86571SOL     OW61609   9.655   9.403  14.180
86571SOL    HW161610   9.640   9.319  14.138
86571SOL    HW261611   9.711   9.451  14.119
86572SOL     OW61612   2.043  13.425  12.727
86572SOL    HW161613   1.956  13.404  12.762
86572SOL    HW261614   2.038  13.517  12.702
86573SOL     OW61615   8.143   5.224  10.652
86573SOL    HW161616   8.089   5.273  10.589
86573SOL    HW261617   8.088   5.149  10.676
86574SOL     OW61618   1.529   9.711   3.625
86574SOL    HW161619   1.587   9.755   3.563
86574SOL    HW261620   1.588   9.657   3.678
86575SOL     OW61621   7.230   2.953  12.533
86575SOL    HW161622   7.200   2.995  12.452
86575SOL    HW261623   7.323   2.935  12.517
86576SOL     OW61624   7.955   0.233   3.776
86576SOL    HW161625   7.945   0.172   3.703
86576SOL    HW261626   8.049   0.240   3.789
86577SOL     OW61627   8.964  12.628  14.433
86577SOL    HW161628   9.028  12.691  14.466
86577SOL    HW261629   8.895  12.681  14.395
86578SOL     OW61630   5.428   8.999   5.751
86578SOL    HW161631   5.476   8.948   5.816
86578SOL    HW261632   5.413   8.939   5.678
86579SOL     OW61633   6.881   1.256   6.357
86579SOL    HW161634   6.917   1.186   6.410
86579SOL    HW261635   6.786   1.251   6.369
86580SOL     OW61636   0.725   2.730   8.791
86580SOL    HW161637   0.732   2.639   8.764
86580SOL    HW261638   0.654   2.731   8.855
86581SOL     OW61639  13.248   9.690  14.162
86581SOL    HW161640  13.343   9.704  14.163
86581SOL    HW261641  13.211   9.775  14.139
86582SOL     OW61642  12.950   4.435  10.134
86582SOL    HW161643  13.004   4.487  10.193
86582SOL    HW261644  12.868   4.420  10.183
86583SOL     OW61645   2.432  12.824   5.336
86583SOL    HW161646   2.374  12.849   5.264
86583SOL    HW261647   2.402  12.875   5.411
86584SOL     OW61648   5.134  11.028   1.551
86584SOL    HW161649   5.134  11.116   1.512
86584SOL    HW261650   5.042  11.012   1.572
86585SOL     OW61651  10.387  12.317   1.814
86585SOL    HW161652  10.400  12.369   1.893
86585SOL    HW261653  10.406  12.227   1.841
86586SOL     OW61654   0.057   1.413  14.527
86586SOL    HW161655   0.011   1.388  14.607
86586SOL    HW261656   0.150   1.403  14.549
86587SOL     OW61657   2.692   3.926  14.030
86587SOL    HW161658   2.662   3.845  13.989
86587SOL    HW261659   2.713   3.984  13.957
86588SOL     OW61660   7.532   4.776   4.275
86588SOL    HW161661   7.465   4.759   4.210
86588SOL    HW261662   7.487   4.825   4.344
86589SOL     OW61663   1.293   5.915  11.813
86589SOL    HW161664   1.293   5.872  11.898
86589SOL    HW261665   1.380   5.954  11.806
86590SOL     OW61666   6.227   0.531   5.490
86590SOL    HW161667   6.162   0.589   5.529
86590SOL    HW261668   6.276   0.587   5.430
86591SOL     OW61669   9.811   9.145   0.862
86591SOL    HW161670   9.866   9.184   0.794
86591SOL    HW261671   9.732   9.199   0.863
86592SOL     OW61672   9.054   0.050   0.160
86592SOL    HW161673   9.009   0.130   0.187
86592SOL    HW261674   8.987  14.852   0.164
86593SOL     OW61675   2.742   0.667  11.322
86593SOL    HW161676   2.681   0.740  11.324
86593SOL    HW261677   2.753   0.642  11.414
86594SOL     OW61678   3.101  12.572   2.951
86594SOL    HW161679   3.169  12.637   2.967
86594SOL    HW261680   3.067  12.552   3.038
86595SOL     OW61681   3.315  13.341  13.741
86595SOL    HW161682   3.248  13.409  13.752
86595SOL    HW261683   3.294  13.275  13.807
86596SOL     OW61684   7.879  11.060  14.448
86596SOL    HW161685   7.951  11.005  14.416
86596SOL    HW261686   7.865  11.125  14.379
86597SOL     OW61687   4.478   6.333   4.219
86597SOL    HW161688   4.572   6.345   4.209
86597SOL    HW261689   4.459   6.365   4.308
86598SOL     OW61690   7.683   5.693   3.143
86598SOL    HW161691   7.692   5.598   3.141
86598SOL    HW261692   7.708   5.717   3.233
86599SOL     OW61693   9.708   1.081   8.163
86599SOL    HW161694   9.664   1.166   8.160
86599SOL    HW261695   9.775   1.086   8.096
86600SOL     OW61696  11.114   1.365  12.575
86600SOL    HW161697  11.158   1.430  12.630
86600SOL    HW261698  11.144   1.384  12.486
86601SOL     OW61699   8.010   0.530   2.380
86601SOL    HW161700   8.022   0.522   2.285
86601SOL    HW261701   7.934   0.475   2.399
86602SOL     OW61702   5.749  13.895   9.252
86602SOL    HW161703   5.800  13.820   9.282
86602SOL    HW261704   5.670  13.893   9.305
86603SOL     OW61705   0.119   1.512   7.329
86603SOL    HW161706   0.206   1.480   7.306
86603SOL    HW261707   0.104   1.481   7.418
86604SOL     OW61708   7.448   4.712   8.331
86604SOL    HW161709   7.438   4.751   8.419
86604SOL    HW261710   7.399   4.771   8.274
86605SOL     OW61711   7.847   9.014  10.164
86605SOL    HW161712   7.938   8.993  10.145
86605SOL    HW261713   7.848   9.109  10.178
86606SOL     OW61714   6.562   3.092   8.262
86606SOL    HW161715   6.493   3.039   8.222
86606SOL    HW261716   6.549   3.179   8.224
86607SOL     OW61717  12.433  10.550   6.411
86607SOL    HW161718  12.340  10.574   6.410
86607SOL    HW261719  12.473  10.611   6.473
86608SOL     OW61720  10.554   3.090   8.413
86608SOL    HW161721  10.473   3.137   8.393
86608SOL    HW261722  10.622   3.158   8.409
86609SOL     OW61723   8.012   4.718  13.806
86609SOL    HW161724   8.062   4.659  13.749
86609SOL    HW261725   7.941   4.664  13.840
86610SOL     OW61726   3.865  14.094   3.200
86610SOL    HW161727   3.810  14.094   3.278
86610SOL    HW261728   3.832  14.022   3.147
86611SOL     OW61729   3.449  12.156   1.861
86611SOL    HW161730   3.440  12.062   1.843
86611SOL    HW261731   3.371  12.195   1.822
86612SOL     OW61732   7.524   6.759  11.659
86612SOL    HW161733   7.455   6.824  11.645
86612SOL    HW261734   7.562   6.745  11.572
86613SOL     OW61735   8.281   6.656   3.625
86613SOL    HW161736   8.211   6.610   3.579
86613SOL    HW261737   8.288   6.740   3.580
86614SOL     OW61738   6.812   2.072  13.917
86614SOL    HW161739   6.838   2.151  13.870
86614SOL    HW261740   6.718   2.083  13.931
86615SOL     OW61741   7.996   9.859   1.584
86615SOL    HW161742   8.063   9.791   1.575
86615SOL    HW261743   8.042   9.934   1.621
86616SOL     OW61744   4.215   6.558  10.283
86616SOL    HW161745   4.269   6.637  10.286
86616SOL    HW261746   4.158   6.570  10.207
86617SOL     OW61747  12.688   6.264   2.904
86617SOL    HW161748  12.649   6.323   2.841
86617SOL    HW261749  12.648   6.287   2.987
86618SOL     OW61750   6.882  13.925  14.647
86618SOL    HW161751   6.805  13.872  14.665
86618SOL    HW261752   6.939  13.912  14.722
86619SOL     OW61753   1.345  10.532   5.452
86619SOL    HW161754   1.350  10.500   5.362
86619SOL    HW261755   1.298  10.615   5.445
86620SOL     OW61756  14.713  12.431  11.869
86620SOL    HW161757  14.752  12.460  11.951
86620SOL    HW261758  14.758  12.350  11.847
86621SOL     OW61759   7.547  10.744   9.251
86621SOL    HW161760   7.591  10.668   9.212
86621SOL    HW261761   7.509  10.791   9.177
86622SOL     OW61762  13.490   2.165   2.573
86622SOL    HW161763  13.397   2.146   2.582
86622SOL    HW261764  13.501   2.251   2.613
86623SOL     OW61765   2.717   4.160  12.399
86623SOL    HW161766   2.704   4.251  12.375
86623SOL    HW261767   2.634   4.133  12.438
86624SOL     OW61768  12.330   8.125   7.289
86624SOL    HW161769  12.334   8.042   7.337
86624SOL    HW261770  12.405   8.174   7.320
86625SOL     OW61771   4.124   7.009   0.098
86625SOL    HW161772   4.125   7.083   0.038
86625SOL    HW261773   4.048   6.957   0.070
86626SOL     OW61774   0.637   0.253   3.484
86626SOL    HW161775   0.666   0.338   3.451
86626SOL    HW261776   0.542   0.257   3.482
86627SOL     OW61777   3.586   1.816   9.255
86627SOL    HW161778   3.567   1.776   9.340
86627SOL    HW261779   3.681   1.825   9.254
86628SOL     OW61780   2.187   8.388   4.892
86628SOL    HW161781   2.107   8.335   4.898
86628SOL    HW261782   2.158   8.472   4.856
86629SOL     OW61783  11.324   5.753   4.902
86629SOL    HW161784  11.350   5.790   4.817
86629SOL    HW261785  11.308   5.661   4.884
86630SOL     OW61786   7.044   2.597   7.621
86630SOL    HW161787   7.112   2.665   7.629
86630SOL    HW261788   7.055   2.543   7.698
86631SOL     OW61789   4.100   5.889   7.240
86631SOL    HW161790   4.184   5.920   7.208
86631SOL    HW261791   4.122   5.818   7.301
86632SOL     OW61792  14.590   2.020   2.540
86632SOL    HW161793  14.631   1.948   2.587
86632SOL    HW261794  14.586   1.991   2.449
86633SOL     OW61795   4.611  14.296   7.451
86633SOL    HW161796   4.699  14.314   7.418
86633SOL    HW261797   4.624  14.273   7.543
86634SOL     OW61798   4.236   4.788   7.174
86634SOL    HW161799   4.314   4.797   7.229
86634SOL    HW261800   4.215   4.695   7.178
86635SOL     OW61801   3.268   6.210  10.783
86635SOL    HW161802   3.334   6.153  10.821
86635SOL    HW261803   3.303   6.299  10.794
86636SOL     OW61804   2.886   7.992   1.746
86636SOL    HW161805   2.879   8.035   1.660
86636SOL    HW261806   2.955   7.926   1.734
86637SOL     OW61807   8.322   0.662   9.902
86637SOL    HW161808   8.354   0.610   9.829
86637SOL    HW261809   8.287   0.597   9.964
86638SOL     OW61810   3.315   0.174  10.188
86638SOL    HW161811   3.339   0.102  10.246
86638SOL    HW261812   3.395   0.224  10.177
86639SOL     OW61813   8.707  14.064   1.161
86639SOL    HW161814   8.617  14.035   1.176
86639SOL    HW261815   8.753  13.984   1.136
86640SOL     OW61816   8.701   8.522   9.510
86640SOL    HW161817   8.790   8.557   9.520
86640SOL    HW261818   8.675   8.497   9.598
86641SOL     OW61819   3.109   8.679   2.507
86641SOL    HW161820   3.186   8.694   2.561
86641SOL    HW261821   3.098   8.584   2.506
86642SOL     OW61822  13.143  13.682   7.631
86642SOL    HW161823  13.176  13.612   7.687
86642SOL    HW261824  13.166  13.654   7.542
86643SOL     OW61825  11.617  10.870   3.228
86643SOL    HW161826  11.547  10.821   3.272
86643SOL    HW261827  11.577  10.900   3.146
86644SOL     OW61828   9.835  14.267   9.777
86644SOL    HW161829   9.743  14.264   9.750
86644SOL    HW261830   9.885  14.255   9.696
86645SOL     OW61831   8.178  13.599   8.958
86645SOL    HW161832   8.167  13.625   9.049
86645SOL    HW261833   8.269  13.568   8.953
86646SOL     OW61834   8.954  10.453   8.704
86646SOL    HW161835   8.952  10.424   8.613
86646SOL    HW261836   8.985  10.377   8.753
86647SOL     OW61837   1.714   7.843   6.490
86647SOL    HW161838   1.627   7.804   6.482
86647SOL    HW261839   1.765   7.805   6.418
86648SOL     OW61840   7.981   2.545  11.693
86648SOL    HW161841   7.966   2.499  11.610
86648SOL    HW261842   7.963   2.479  11.760
86649SOL     OW61843   1.494  11.165  12.939
86649SOL    HW161844   1.524  11.217  13.013
86649SOL    HW261845   1.483  11.077  12.974
86650SOL     OW61846   7.595  10.188   7.311
86650SOL    HW161847   7.624  10.245   7.383
86650SOL    HW261848   7.500  10.198   7.309
86651SOL     OW61849   1.059  14.557   8.949
86651SOL    HW161850   1.152  14.539   8.964
86651SOL    HW261851   1.039  14.512   8.867
86652SOL     OW61852  12.232   0.470   1.473
86652SOL    HW161853  12.144   0.451   1.441
86652SOL    HW261854  12.260   0.547   1.423
86653SOL     OW61855   4.007  13.676  10.854
86653SOL    HW161856   4.017  13.643  10.765
86653SOL    HW261857   4.088  13.649  10.898
86654SOL     OW61858   1.703   3.491   0.176
86654SOL    HW161859   1.610   3.467   0.166
86654SOL    HW261860   1.737   3.491   0.087
86655SOL     OW61861   4.289  12.403  13.645
86655SOL    HW161862   4.378  12.378  13.667
86655SOL    HW261863   4.280  12.493  13.676
86656SOL     OW61864   4.021   1.339   4.414
86656SOL    HW161865   4.061   1.273   4.358
86656SOL    HW261866   4.069   1.420   4.395
86657SOL     OW61867  11.044  14.638   2.135
86657SOL    HW161868  10.966  14.667   2.088
86657SOL    HW261869  11.103  14.713   2.131
86658SOL     OW61870   7.277  10.511   0.510
86658SOL    HW161871   7.206  10.448   0.505
86658SOL    HW261872   7.356  10.460   0.493
86659SOL     OW61873  10.744   4.234   3.739
86659SOL    HW161874  10.779   4.179   3.669
86659SOL    HW261875  10.689   4.298   3.694
86660SOL     OW61876   6.325   3.184   2.689
86660SOL    HW161877   6.270   3.252   2.727
86660SOL    HW261878   6.397   3.232   2.648
86661SOL     OW61879   6.535  13.163   3.187
86661SOL    HW161880   6.614  13.155   3.133
86661SOL    HW261881   6.497  13.075   3.187
86662SOL     OW61882   6.919   3.605   3.490
86662SOL    HW161883   6.843   3.662   3.495
86662SOL    HW261884   6.939   3.584   3.581
86663SOL     OW61885   1.328   5.677   4.267
86663SOL    HW161886   1.282   5.726   4.334
86663SOL    HW261887   1.265   5.613   4.236
86664SOL     OW61888  11.003   2.639  13.254
86664SOL    HW161889  11.052   2.680  13.325
86664SOL    HW261890  10.920   2.687  13.252
86665SOL     OW61891   2.675   7.601   4.823
86665SOL    HW161892   2.609   7.669   4.808
86665SOL    HW261893   2.669   7.582   4.917
86666SOL     OW61894   7.251   7.897   1.022
86666SOL    HW161895   7.320   7.882   0.957
86666SOL    HW261896   7.212   7.981   0.996
86667SOL     OW61897  11.082  10.212  13.725
86667SOL    HW161898  11.028  10.139  13.695
86667SOL    HW261899  11.104  10.190  13.816
86668SOL     OW61900   0.208   9.836   9.781
86668SOL    HW161901   0.137   9.854   9.843
86668SOL    HW261902   0.264   9.913   9.785
86669SOL     OW61903  11.534   9.739   3.895
86669SOL    HW161904  11.562   9.693   3.816
86669SOL    HW261905  11.541   9.674   3.965
86670SOL     OW61906   6.517   0.133   3.246
86670SOL    HW161907   6.558   0.219   3.254
86670SOL    HW261908   6.453   0.143   3.176
86671SOL     OW61909   1.967   8.553  10.474
86671SOL    HW161910   2.003   8.638  10.451
86671SOL    HW261911   1.988   8.497  10.399
86672SOL     OW61912   5.852   6.646  13.371
86672SOL    HW161913   5.801   6.727  13.376
86672SOL    HW261914   5.853   6.612  13.460
86673SOL     OW61915   1.004   5.354  13.745
86673SOL    HW161916   1.097   5.340  13.726
86673SOL    HW261917   0.970   5.398  13.668
86674SOL     OW61918  12.513   1.514   2.214
86674SOL    HW161919  12.502   1.422   2.236
86674SOL    HW261920  12.467   1.524   2.130
86675SOL     OW61921   1.553   5.107   9.562
86675SOL    HW161922   1.557   5.156   9.479
86675SOL    HW261923   1.600   5.026   9.544
86676SOL     OW61924   8.400   9.977  11.937
86676SOL    HW161925   8.445   9.968  12.021
86676SOL    HW261926   8.435  10.059  11.900
86677SOL     OW61927   5.253   2.303   1.807
86677SOL    HW161928   5.324   2.348   1.851
86677SOL    HW261929   5.230   2.360   1.734
86678SOL     OW61930   3.910  14.854   5.269
86678SOL    HW161931   3.980  14.818   5.214
86678SOL    HW261932   3.955   0.045   5.328
86679SOL     OW61933   1.267  13.810  13.291
86679SOL    HW161934   1.264  13.897  13.329
86679SOL    HW261935   1.306  13.822  13.205
86680SOL     OW61936  10.175  12.368   1.556
86680SOL    HW161937  10.226  12.411   1.487
86680SOL    HW261938  10.088  12.408   1.550
86681SOL     OW61939  14.012   9.738  11.732
86681SOL    HW161940  14.012   9.661  11.674
86681SOL    HW261941  13.971   9.807  11.680
86682SOL     OW61942   5.284  13.753   6.898
86682SOL    HW161943   5.326  13.684   6.846
86682SOL    HW261944   5.271  13.713   6.984
86683SOL     OW61945   4.957  12.402   8.072
86683SOL    HW161946   4.908  12.330   8.113
86683SOL    HW261947   5.010  12.360   8.005
86684SOL     OW61948   2.499   9.884   7.566
86684SOL    HW161949   2.499   9.801   7.614
86684SOL    HW261950   2.504   9.951   7.633
86685SOL     OW61951   5.467  12.733   9.118
86685SOL    HW161952   5.487  12.810   9.064
86685SOL    HW261953   5.551  12.706   9.154
86686SOL     OW61954   0.608   3.760   3.623
86686SOL    HW161955   0.656   3.734   3.702
86686SOL    HW261956   0.589   3.853   3.636
86687SOL     OW61957  13.386   5.139   7.380
86687SOL    HW161958  13.472   5.124   7.340
86687SOL    HW261959  13.348   5.052   7.388
86688SOL     OW61960   3.658   3.686   2.439
86688SOL    HW161961   3.739   3.697   2.390
86688SOL    HW261962   3.631   3.775   2.461
86689SOL     OW61963   9.446   5.095   0.832
86689SOL    HW161964   9.480   5.085   0.920
86689SOL    HW261965   9.487   5.175   0.799
86690SOL     OW61966   9.172   8.026  13.622
86690SOL    HW161967   9.229   7.995  13.693
86690SOL    HW261968   9.186   8.121  13.620
86691SOL     OW61969   6.895   1.076  10.683
86691SOL    HW161970   6.915   1.165  10.655
86691SOL    HW261971   6.807   1.059  10.650
86692SOL     OW61972   5.561   8.734  12.274
86692SOL    HW161973   5.522   8.799  12.215
86692SOL    HW261974   5.654   8.757  12.276
86693SOL     OW61975   4.420   5.066  10.574
86693SOL    HW161976   4.443   5.000  10.509
86693SOL    HW261977   4.328   5.050  10.594
86694SOL     OW61978   2.253  11.662   4.858
86694SOL    HW161979   2.286  11.578   4.826
86694SOL    HW261980   2.304  11.728   4.810
86695SOL     OW61981   8.267   6.659   5.332
86695SOL    HW161982   8.360   6.679   5.321
86695SOL    HW261983   8.244   6.697   5.417
86696SOL     OW61984   0.731   2.939   2.231
86696SOL    HW161985   0.665   2.974   2.290
86696SOL    HW261986   0.683   2.879   2.173
86697SOL     OW61987   5.412   5.949   7.687
86697SOL    HW161988   5.343   6.006   7.652
86697SOL    HW261989   5.492   5.978   7.643
86698SOL     OW61990   3.067   5.990  10.908
86698SOL    HW161991   3.121   6.038  10.845
86698SOL    HW261992   3.123   5.918  10.937
86699SOL     OW61993  12.913   7.568   7.243
86699SOL    HW161994  12.972   7.561   7.318
86699SOL    HW261995  12.910   7.662   7.224
86700SOL     OW61996  12.616  13.405  14.206
86700SOL    HW161997  12.621  13.500  14.222
86700SOL    HW261998  12.648  13.365  14.287
86701SOL     OW61999   6.033   0.747   6.722
86701SOL    HW162000   6.092   0.702   6.782
86701SOL    HW262001   6.058   0.715   6.635
86702SOL     OW62002   5.212  12.827   8.050
86702SOL    HW162003   5.292  12.863   8.013
86702SOL    HW262004   5.184  12.893   8.114
86703SOL     OW62005   5.564  13.334  14.496
86703SOL    HW162006   5.536  13.264  14.556
86703SOL    HW262007   5.578  13.410  14.553
86704SOL     OW62008   2.230   1.021   9.636
86704SOL    HW162009   2.142   1.053   9.658
86704SOL    HW262010   2.224   0.994   9.545
86705SOL     OW62011  12.643   4.463   1.923
86705SOL    HW162012  12.643   4.504   2.010
86705SOL    HW262013  12.564   4.408   1.922
86706SOL     OW62014  12.288   9.525   4.478
86706SOL    HW162015  12.248   9.476   4.406
86706SOL    HW262016  12.283   9.617   4.450
86707SOL     OW62017   9.611   6.038  13.199
86707SOL    HW162018   9.692   5.992  13.179
86707SOL    HW262019   9.581   6.072  13.115
86708SOL     OW62020   7.004   6.896  11.668
86708SOL    HW162021   6.956   6.950  11.606
86708SOL    HW262022   6.939   6.835  11.703
86709SOL     OW62023   8.205  11.333  10.541
86709SOL    HW162024   8.283  11.389  10.542
86709SOL    HW262025   8.184  11.324  10.448
86710SOL     OW62026   3.004   0.123  14.374
86710SOL    HW162027   3.043   0.167  14.298
86710SOL    HW262028   3.079   0.090  14.423
86711SOL     OW62029  11.615   4.193   1.297
86711SOL    HW162030  11.544   4.182   1.234
86711SOL    HW262031  11.692   4.211   1.243
86712SOL     OW62032   9.706   1.997  13.871
86712SOL    HW162033   9.757   2.028  13.796
86712SOL    HW262034   9.688   2.076  13.922
86713SOL     OW62035  12.809  13.708   8.666
86713SOL    HW162036  12.872  13.683   8.599
86713SOL    HW262037  12.851  13.685   8.749
86714SOL     OW62038   9.819   7.650   6.513
86714SOL    HW162039   9.792   7.734   6.477
86714SOL    HW262040   9.814   7.589   6.439
86715SOL     OW62041  11.804   3.986   0.409
86715SOL    HW162042  11.883   3.934   0.398
86715SOL    HW262043  11.733   3.930   0.376
86716SOL     OW62044   2.457  12.233   6.700
86716SOL    HW162045   2.425  12.166   6.761
86716SOL    HW262046   2.461  12.313   6.751
86717SOL     OW62047   3.307   3.494   5.349
86717SOL    HW162048   3.325   3.527   5.436
86717SOL    HW262049   3.379   3.526   5.295
86718SOL     OW62050  13.642   8.898   5.192
86718SOL    HW162051  13.676   8.920   5.279
86718SOL    HW262052  13.548   8.884   5.207
86719SOL     OW62053   4.736   1.704   1.510
86719SOL    HW162054   4.737   1.692   1.415
86719SOL    HW262055   4.698   1.623   1.543
86720SOL     OW62056   1.753   7.832   0.685
86720SOL    HW162057   1.810   7.818   0.609
86720SOL    HW262058   1.781   7.766   0.748
86721SOL     OW62059  10.167   5.307   6.520
86721SOL    HW162060  10.145   5.243   6.452
86721SOL    HW262061  10.246   5.351   6.486
86722SOL     OW62062  10.700   2.708  13.548
86722SOL    HW162063  10.779   2.660  13.521
86722SOL    HW262064  10.630   2.669  13.496
86723SOL     OW62065   7.573   1.217   9.454
86723SOL    HW162066   7.543   1.229   9.544
86723SOL    HW262067   7.665   1.190   9.463
86724SOL     OW62068   9.214   2.484   8.721
86724SOL    HW162069   9.135   2.430   8.730
86724SOL    HW262070   9.192   2.548   8.654
86725SOL     OW62071  10.503   6.001   4.413
86725SOL    HW162072  10.519   6.057   4.489
86725SOL    HW262073  10.410   6.009   4.396
86726SOL     OW62074   0.657  11.893  14.056
86726SOL    HW162075   0.652  11.955  13.983
86726SOL    HW262076   0.749  11.866  14.059
86727SOL     OW62077  10.714   6.158   5.946
86727SOL    HW162078  10.768   6.127   6.018
86727SOL    HW262079  10.631   6.182   5.987
86728SOL     OW62080  12.354   4.178  11.965
86728SOL    HW162081  12.423   4.162  11.900
86728SOL    HW262082  12.369   4.111  12.032
86729SOL     OW62083  10.591   0.000   6.654
86729SOL    HW162084  10.575   0.087   6.616
86729SOL    HW262085  10.606   0.017   6.747
86730SOL     OW62086   7.816  14.298   2.616
86730SOL    HW162087   7.863  14.217   2.634
86730SOL    HW262088   7.843  14.358   2.685
86731SOL     OW62089   8.793   1.278   1.345
86731SOL    HW162090   8.729   1.305   1.410
86731SOL    HW262091   8.878   1.305   1.381
86732SOL     OW62092  13.657  10.955   5.358
86732SOL    HW162093  13.627  10.878   5.406
86732SOL    HW262094  13.587  11.019   5.367
86733SOL     OW62095   6.137  11.994  12.339
86733SOL    HW162096   6.110  11.942  12.264
86733SOL    HW262097   6.231  12.007  12.327
86734SOL     OW62098  14.332   4.012   6.881
86734SOL    HW162099  14.313   3.977   6.794
86734SOL    HW262100  14.249   4.046   6.913
86735SOL     OW62101   8.003   9.860  14.248
86735SOL    HW162102   8.015   9.786  14.189
86735SOL    HW262103   8.046   9.934  14.204
86736SOL     OW62104   1.699   1.658   4.157
86736SOL    HW162105   1.622   1.714   4.170
86736SOL    HW262106   1.768   1.699   4.209
86737SOL     OW62107  10.637  11.622  11.011
86737SOL    HW162108  10.595  11.541  10.983
86737SOL    HW262109  10.731  11.605  11.002
86738SOL     OW62110   8.569   1.167   0.994
86738SOL    HW162111   8.650   1.217   0.989
86738SOL    HW262112   8.512   1.221   1.050
86739SOL     OW62113   6.848  11.337   2.898
86739SOL    HW162114   6.863  11.246   2.870
86739SOL    HW262115   6.753  11.349   2.890
86740SOL     OW62116   3.165  12.074   7.869
86740SOL    HW162117   3.121  12.157   7.883
86740SOL    HW262118   3.190  12.045   7.957
86741SOL     OW62119   8.198  13.730  12.140
86741SOL    HW162120   8.106  13.749  12.125
86741SOL    HW262121   8.198  13.672  12.216
86742SOL     OW62122  14.446   8.628   6.518
86742SOL    HW162123  14.450   8.651   6.610
86742SOL    HW262124  14.428   8.534   6.517
86743SOL     OW62125   9.178   7.736   7.847
86743SOL    HW162126   9.177   7.785   7.930
86743SOL    HW262127   9.102   7.678   7.852
86744SOL     OW62128  11.058   5.095   6.901
86744SOL    HW162129  11.012   5.095   6.816
86744SOL    HW262130  11.122   5.024   6.893
86745SOL     OW62131  13.779   1.288  13.484
86745SOL    HW162132  13.752   1.380  13.486
86745SOL    HW262133  13.844   1.283  13.414
86746SOL     OW62134  14.648   4.719  14.187
86746SOL    HW162135  14.659   4.797  14.133
86746SOL    HW262136  14.571   4.676  14.151
86747SOL     OW62137   1.766   8.082   4.595
86747SOL    HW162138   1.752   8.031   4.516
86747SOL    HW262139   1.784   8.017   4.663
86748SOL     OW62140   2.430   6.487   0.764
86748SOL    HW162141   2.435   6.393   0.784
86748SOL    HW262142   2.370   6.522   0.829
86749SOL     OW62143   4.992  10.917   7.231
86749SOL    HW162144   5.055  10.870   7.285
86749SOL    HW262145   4.943  10.971   7.293
86750SOL     OW62146   7.472  10.943   7.178
86750SOL    HW162147   7.455  10.937   7.084
86750SOL    HW262148   7.566  10.963   7.184
86751SOL     OW62149   2.292   9.066  13.492
86751SOL    HW162150   2.209   9.037  13.529
86751SOL    HW262151   2.301   9.157  13.522
86752SOL     OW62152   7.703   8.755  12.764
86752SOL    HW162153   7.772   8.818  12.739
86752SOL    HW262154   7.622   8.805  12.761
86753SOL     OW62155  10.465   6.528   8.644
86753SOL    HW162156  10.372   6.539   8.626
86753SOL    HW262157  10.493   6.456   8.587
86754SOL     OW62158   6.079   9.900   9.622
86754SOL    HW162159   6.060   9.936   9.709
86754SOL    HW262160   6.068   9.974   9.562
86755SOL     OW62161   6.428   8.472  14.276
86755SOL    HW162162   6.468   8.463  14.190
86755SOL    HW262163   6.471   8.548  14.315
86756SOL     OW62164   6.847   3.419  14.326
86756SOL    HW162165   6.801   3.455  14.250
86756SOL    HW262166   6.797   3.341  14.349
86757SOL     OW62167   5.220   7.445  10.095
86757SOL    HW162168   5.291   7.467  10.034
86757SOL    HW262169   5.252   7.475  10.180
86758SOL     OW62170   2.793  13.334   4.853
86758SOL    HW162171   2.819  13.355   4.764
86758SOL    HW262172   2.707  13.372   4.863
86759SOL     OW62173  12.465   4.053   4.766
86759SOL    HW162174  12.519   4.131   4.769
86759SOL    HW262175  12.484   4.014   4.681
86760SOL     OW62176   1.094   7.412   5.793
86760SOL    HW162177   1.170   7.451   5.750
86760SOL    HW262178   1.114   7.418   5.887
86761SOL     OW62179   3.814  12.845   0.480
86761SOL    HW162180   3.730  12.877   0.512
86761SOL    HW262181   3.793  12.801   0.397
86762SOL     OW62182   4.105   7.996  13.254
86762SOL    HW162183   4.052   8.010  13.176
86762SOL    HW262184   4.088   7.905  13.279
86763SOL     OW62185   1.492   9.607  12.000
86763SOL    HW162186   1.450   9.537  11.950
86763SOL    HW262187   1.423   9.643  12.055
86764SOL     OW62188   6.413   7.169  11.308
86764SOL    HW162189   6.336   7.226  11.313
86764SOL    HW262190   6.446   7.181  11.219
86765SOL     OW62191   5.313   5.786   3.306
86765SOL    HW162192   5.252   5.785   3.233
86765SOL    HW262193   5.373   5.714   3.288
86766SOL     OW62194  10.300   2.999   9.515
86766SOL    HW162195  10.316   2.937   9.585
86766SOL    HW262196  10.205   3.007   9.511
86767SOL     OW62197   7.382  13.117   5.410
86767SOL    HW162198   7.326  13.076   5.344
86767SOL    HW262199   7.323  13.172   5.461
86768SOL     OW62200  11.164   8.818   1.001
86768SOL    HW162201  11.256   8.837   0.983
86768SOL    HW262202  11.166   8.742   1.059
86769SOL     OW62203   6.841   5.297   8.485
86769SOL    HW162204   6.840   5.208   8.450
86769SOL    HW262205   6.802   5.288   8.572
86770SOL     OW62206  11.156   2.769  14.719
86770SOL    HW162207  11.152   2.814  14.635
86770SOL    HW262208  11.103   2.823  14.777
86771SOL     OW62209   1.266   1.152   2.982
86771SOL    HW162210   1.325   1.166   2.907
86771SOL    HW262211   1.272   1.233   3.032
86772SOL     OW62212   5.627   9.602   3.903
86772SOL    HW162213   5.709   9.609   3.951
86772SOL    HW262214   5.640   9.527   3.845
86773SOL     OW62215   9.883  10.292  11.504
86773SOL    HW162216   9.849  10.362  11.559
86773SOL    HW262217   9.891  10.330  11.417
86774SOL     OW62218   0.850  10.927   7.966
86774SOL    HW162219   0.822  10.854   8.021
86774SOL    HW262220   0.945  10.925   7.969
86775SOL     OW62221   0.429   2.162  12.565
86775SOL    HW162222   0.508   2.186  12.614
86775SOL    HW262223   0.379   2.244  12.559
86776SOL     OW62224  10.171   6.726  10.784
86776SOL    HW162225  10.162   6.654  10.722
86776SOL    HW262226  10.177   6.683  10.870
86777SOL     OW62227  12.445   5.376  10.718
86777SOL    HW162228  12.506   5.322  10.668
86777SOL    HW262229  12.385   5.412  10.653
86778SOL     OW62230   2.001   2.510   3.482
86778SOL    HW162231   2.007   2.591   3.432
86778SOL    HW262232   2.052   2.526   3.561
86779SOL     OW62233  14.229   3.475  13.120
86779SOL    HW162234  14.325   3.471  13.115
86779SOL    HW262235  14.206   3.417  13.192
86780SOL     OW62236   0.937  13.727   4.941
86780SOL    HW162237   1.016  13.778   4.921
86780SOL    HW262238   0.970  13.640   4.963
86781SOL     OW62239  10.452   9.061   5.248
86781SOL    HW162240  10.395   9.025   5.316
86781SOL    HW262241  10.445   8.998   5.176
86782SOL     OW62242   4.952  11.717   0.867
86782SOL    HW162243   4.972  11.722   0.773
86782SOL    HW262244   4.901  11.796   0.885
86783SOL     OW62245   2.665   3.275   8.609
86783SOL    HW162246   2.650   3.351   8.665
86783SOL    HW262247   2.708   3.310   8.531
86784SOL     OW62248   5.014   3.817   1.654
86784SOL    HW162249   4.927   3.832   1.693
86784SOL    HW262250   4.997   3.810   1.561
86785SOL     OW62251  12.056   1.402   8.680
86785SOL    HW162252  12.133   1.458   8.691
86785SOL    HW262253  11.986   1.462   8.653
86786SOL     OW62254   8.673   0.478  10.985
86786SOL    HW162255   8.645   0.568  10.969
86786SOL    HW262256   8.744   0.464  10.922
86787SOL     OW62257   8.570   5.904  13.063
86787SOL    HW162258   8.542   5.813  13.050
86787SOL    HW262259   8.526   5.953  12.993
86788SOL     OW62260   8.666   7.237   9.000
86788SOL    HW162261   8.715   7.309   8.959
86788SOL    HW262262   8.731   7.192   9.054
86789SOL     OW62263  14.790   2.375   1.178
86789SOL    HW162264  14.799   2.407   1.088
86789SOL    HW262265  14.845   2.433   1.230
86790SOL     OW62266   8.541  10.289  10.372
86790SOL    HW162267   8.586  10.253  10.449
86790SOL    HW262268   8.471  10.227  10.353
86791SOL     OW62269   8.904   2.007  11.720
86791SOL    HW162270   8.955   1.980  11.797
86791SOL    HW262271   8.840   1.937  11.708
86792SOL     OW62272  10.829   7.777   8.196
86792SOL    HW162273  10.768   7.828   8.248
86792SOL    HW262274  10.915   7.812   8.216
86793SOL     OW62275   2.905  12.503   2.471
86793SOL    HW162276   2.942  12.473   2.554
86793SOL    HW262277   2.815  12.527   2.492
86794SOL     OW62278   6.443   9.798  10.743
86794SOL    HW162279   6.483   9.713  10.760
86794SOL    HW262280   6.349   9.781  10.738
86795SOL     OW62281   7.179  12.488   2.178
86795SOL    HW162282   7.089  12.515   2.197
86795SOL    HW262283   7.199  12.424   2.247
86796SOL     OW62284   7.553   9.889  13.382
86796SOL    HW162285   7.490   9.817  13.371
86796SOL    HW262286   7.505   9.956  13.430
86797SOL     OW62287  12.261   3.596   5.770
86797SOL    HW162288  12.201   3.548   5.827
86797SOL    HW262289  12.238   3.567   5.682
86798SOL     OW62290   8.713   0.664   1.787
86798SOL    HW162291   8.685   0.654   1.696
86798SOL    HW262292   8.791   0.609   1.795
86799SOL     OW62293   3.130  10.566   8.705
86799SOL    HW162294   3.073  10.518   8.645
86799SOL    HW262295   3.072  10.626   8.751
86800SOL     OW62296   6.662   0.640  10.788
86800SOL    HW162297   6.656   0.693  10.709
86800SOL    HW262298   6.681   0.702  10.858
86801SOL     OW62299   2.133  12.657   5.262
86801SOL    HW162300   2.214  12.634   5.307
86801SOL    HW262301   2.066  12.603   5.303
86802SOL     OW62302  14.738   0.404  14.364
86802SOL    HW162303  14.763   0.412  14.272
86802SOL    HW262304  14.663   0.463  14.374
86803SOL     OW62305  13.956   6.686  12.023
86803SOL    HW162306  13.978   6.777  12.006
86803SOL    HW262307  13.918   6.686  12.110
86804SOL     OW62308  13.099   1.785  10.269
86804SOL    HW162309  13.124   1.766  10.360
86804SOL    HW262310  13.033   1.854  10.277
86805SOL     OW62311   2.267   5.633   8.895
86805SOL    HW162312   2.246   5.550   8.852
86805SOL    HW262313   2.319   5.608   8.971
86806SOL     OW62314   0.905   2.471   9.340
86806SOL    HW162315   0.831   2.526   9.366
86806SOL    HW262316   0.873   2.421   9.265
86807SOL     OW62317   8.569   5.620   4.389
86807SOL    HW162318   8.518   5.646   4.313
86807SOL    HW262319   8.561   5.694   4.450
86808SOL     OW62320   1.253   1.227   6.114
86808SOL    HW162321   1.161   1.215   6.134
86808SOL    HW262322   1.280   1.143   6.075
86809SOL     OW62323   4.111   3.096   1.606
86809SOL    HW162324   4.101   3.060   1.694
86809SOL    HW262325   4.140   3.186   1.620
86810SOL     OW62326   9.096  13.667  13.101
86810SOL    HW162327   9.039  13.615  13.157
86810SOL    HW262328   9.118  13.609  13.028
86811SOL     OW62329   5.235   9.049  11.731
86811SOL    HW162330   5.199   9.116  11.789
86811SOL    HW262331   5.185   9.058  11.650
86812SOL     OW62332   6.076  11.749   0.175
86812SOL    HW162333   6.015  11.813   0.212
86812SOL    HW262334   6.157  11.799   0.161
86813SOL     OW62335   5.315  14.203   9.536
86813SOL    HW162336   5.258  14.134   9.571
86813SOL    HW262337   5.392  14.201   9.593
86814SOL     OW62338  12.953   4.530   2.510
86814SOL    HW162339  13.003   4.567   2.583
86814SOL    HW262340  12.880   4.484   2.551
86815SOL     OW62341   3.000   1.971  10.904
86815SOL    HW162342   2.939   1.897  10.906
86815SOL    HW262343   2.983   2.015  10.821
86816SOL     OW62344   2.784   7.478  14.508
86816SOL    HW162345   2.803   7.554  14.454
86816SOL    HW262346   2.691   7.485  14.530
86817SOL     OW62347   9.704  13.370   5.160
86817SOL    HW162348   9.682  13.303   5.096
86817SOL    HW262349   9.620  13.413   5.180
86818SOL     OW62350  10.964   7.795   7.779
86818SOL    HW162351  10.876   7.833   7.781
86818SOL    HW262352  11.021   7.868   7.756
86819SOL     OW62353  10.125   9.262   5.601
86819SOL    HW162354  10.155   9.337   5.550
86819SOL    HW262355  10.064   9.217   5.542
86820SOL     OW62356  12.367  11.958   7.965
86820SOL    HW162357  12.275  11.938   7.981
86820SOL    HW262358  12.409  11.949   8.051
86821SOL     OW62359   4.010  13.905  14.255
86821SOL    HW162360   4.041  13.915  14.345
86821SOL    HW262361   3.985  13.993  14.227
86822SOL     OW62362   3.597  10.010   0.539
86822SOL    HW162363   3.550  10.002   0.456
86822SOL    HW262364   3.541  10.065   0.593
86823SOL     OW62365  14.073   7.946   3.251
86823SOL    HW162366  13.984   7.980   3.258
86823SOL    HW262367  14.105   7.942   3.341
86824SOL     OW62368  12.610   4.118  14.672
86824SOL    HW162369  12.556   4.142  14.596
86824SOL    HW262370  12.699   4.114  14.638
86825SOL     OW62371   4.766  11.715  11.720
86825SOL    HW162372   4.680  11.705  11.763
86825SOL    HW262373   4.774  11.639  11.663
86826SOL     OW62374   3.106   8.329   1.502
86826SOL    HW162375   3.157   8.387   1.446
86826SOL    HW262376   3.143   8.342   1.590
86827SOL     OW62377   9.912   8.853  13.507
86827SOL    HW162378   9.825   8.892  13.499
86827SOL    HW262379   9.953   8.902  13.578
86828SOL     OW62380   5.193  13.250  11.876
86828SOL    HW162381   5.246  13.223  11.802
86828SOL    HW262382   5.244  13.319  11.919
86829SOL     OW62383   3.830   8.600  11.390
86829SOL    HW162384   3.841   8.578  11.297
86829SOL    HW262385   3.824   8.515  11.434
86830SOL     OW62386   2.440   8.805   7.623
86830SOL    HW162387   2.486   8.889   7.613
86830SOL    HW262388   2.507   8.739   7.607
86831SOL     OW62389  14.672   9.524   5.317
86831SOL    HW162390  14.733   9.594   5.342
86831SOL    HW262391  14.674   9.463   5.390
86832SOL     OW62392   9.356   9.616  11.836
86832SOL    HW162393   9.382   9.584  11.923
86832SOL    HW262394   9.389   9.550  11.775
86833SOL     OW62395  13.610   6.442  13.253
86833SOL    HW162396  13.559   6.500  13.196
86833SOL    HW262397  13.593   6.355  13.217
86834SOL     OW62398   8.423   2.814   6.493
86834SOL    HW162399   8.432   2.893   6.546
86834SOL    HW262400   8.513   2.789   6.473
86835SOL     OW62401  12.838   8.769   2.750
86835SOL    HW162402  12.779   8.807   2.685
86835SOL    HW262403  12.816   8.814   2.832
86836SOL     OW62404   2.095   8.053   3.049
86836SOL    HW162405   2.022   8.112   3.032
86836SOL    HW262406   2.150   8.100   3.111
86837SOL     OW62407  12.943  11.061  14.074
86837SOL    HW162408  12.894  11.039  14.154
86837SOL    HW262409  12.877  11.098  14.015
86838SOL     OW62410   0.589   4.722   5.193
86838SOL    HW162411   0.568   4.641   5.239
86838SOL    HW262412   0.645   4.770   5.254
86839SOL     OW62413   6.692  11.525   5.476
86839SOL    HW162414   6.713  11.519   5.569
86839SOL    HW262415   6.694  11.619   5.457
86840SOL     OW62416  11.236   6.682  12.652
86840SOL    HW162417  11.205   6.772  12.659
86840SOL    HW262418  11.177   6.641  12.588
86841SOL     OW62419   8.594   9.605   9.796
86841SOL    HW162420   8.558   9.595   9.708
86841SOL    HW262421   8.520   9.631   9.850
86842SOL     OW62422  14.121   4.924   0.569
86842SOL    HW162423  14.157   4.854   0.514
86842SOL    HW262424  14.030   4.932   0.541
86843SOL     OW62425   9.187   2.127   1.479
86843SOL    HW162426   9.255   2.167   1.424
86843SOL    HW262427   9.150   2.201   1.527
86844SOL     OW62428  11.787  10.228   6.894
86844SOL    HW162429  11.862  10.263   6.944
86844SOL    HW262430  11.797  10.133   6.900
86845SOL     OW62431   8.671   4.104   1.277
86845SOL    HW162432   8.630   4.180   1.237
86845SOL    HW262433   8.763   4.109   1.252
86846SOL     OW62434  10.144  13.004  13.455
86846SOL    HW162435  10.205  12.997  13.529
86846SOL    HW262436  10.058  12.989  13.495
86847SOL     OW62437  11.558  13.570   0.172
86847SOL    HW162438  11.497  13.628   0.127
86847SOL    HW262439  11.629  13.557   0.109
86848SOL     OW62440   3.604   2.099  11.945
86848SOL    HW162441   3.615   2.074  12.037
86848SOL    HW262442   3.560   2.024  11.906
86849SOL     OW62443   5.383   1.200   6.037
86849SOL    HW162444   5.423   1.121   5.999
86849SOL    HW262445   5.444   1.226   6.106
86850SOL     OW62446   3.806   9.268   4.162
86850SOL    HW162447   3.714   9.241   4.160
86850SOL    HW262448   3.810   9.345   4.105
86851SOL     OW62449  12.003   9.646   5.690
86851SOL    HW162450  12.084   9.694   5.706
86851SOL    HW262451  11.944   9.711   5.652
86852SOL     OW62452   2.921  12.480  11.234
86852SOL    HW162453   2.954  12.531  11.307
86852SOL    HW262454   2.932  12.389  11.260
86853SOL     OW62455   1.363   1.989  12.252
86853SOL    HW162456   1.338   2.076  12.284
86853SOL    HW262457   1.279   1.942  12.244
86854SOL     OW62458   7.199  12.967  11.900
86854SOL    HW162459   7.246  12.888  11.928
86854SOL    HW262460   7.263  13.038  11.911
86855SOL     OW62461   0.524   5.872   3.318
86855SOL    HW162462   0.576   5.799   3.284
86855SOL    HW262463   0.491   5.916   3.239
86856SOL     OW62464   7.688  10.312   6.952
86856SOL    HW162465   7.648  10.374   7.013
86856SOL    HW262466   7.639  10.231   6.966
86857SOL     OW62467  10.022  13.370  12.273
86857SOL    HW162468   9.961  13.443  12.258
86857SOL    HW262469   9.972  13.309  12.327
86858SOL     OW62470   7.726  10.481   5.354
86858SOL    HW162471   7.790  10.423   5.312
86858SOL    HW262472   7.751  10.569   5.326
86859SOL     OW62473  13.732  12.887  12.507
86859SOL    HW162474  13.813  12.838  12.495
86859SOL    HW262475  13.677  12.860  12.434
86860SOL     OW62476   7.574   7.005  11.128
86860SOL    HW162477   7.544   7.093  11.150
86860SOL    HW262478   7.617   6.974  11.207
86861SOL     OW62479   1.939  14.255   1.102
86861SOL    HW162480   2.011  14.246   1.040
86861SOL    HW262481   1.865  14.285   1.048
86862SOL     OW62482   4.881   4.770  14.190
86862SOL    HW162483   4.791   4.738  14.187
86862SOL    HW262484   4.929   4.701  14.237
86863SOL     OW62485  12.516  10.905   3.995
86863SOL    HW162486  12.547  10.978   4.047
86863SOL    HW262487  12.470  10.849   4.058
86864SOL     OW62488   5.353   8.258   6.159
86864SOL    HW162489   5.330   8.270   6.251
86864SOL    HW262490   5.295   8.188   6.129
86865SOL     OW62491  14.537   8.904  12.291
86865SOL    HW162492  14.537   8.862  12.205
86865SOL    HW262493  14.539   8.832  12.354
86866SOL     OW62494  14.762   6.984   3.004
86866SOL    HW162495  14.824   6.984   2.931
86866SOL    HW262496  14.816   6.989   3.082
86867SOL     OW62497  12.085   6.144   8.064
86867SOL    HW162498  12.136   6.090   8.004
86867SOL    HW262499  12.001   6.158   8.018
86868SOL     OW62500   6.462   3.151   8.912
86868SOL    HW162501   6.368   3.170   8.914
86868SOL    HW262502   6.485   3.138   9.004
86869SOL     OW62503  14.324   3.901  11.380
86869SOL    HW162504  14.298   3.824  11.331
86869SOL    HW262505  14.243   3.948  11.397
86870SOL     OW62506   6.499  13.013   2.692
86870SOL    HW162507   6.466  13.078   2.630
86870SOL    HW262508   6.450  12.933   2.672
86871SOL     OW62509   4.279  11.946  12.318
86871SOL    HW162510   4.358  11.963  12.371
86871SOL    HW262511   4.215  11.913  12.381
86872SOL     OW62512   3.671   8.230  14.068
86872SOL    HW162513   3.696   8.289  14.139
86872SOL    HW262514   3.626   8.286  14.005
86873SOL     OW62515   3.549   1.013  14.724
86873SOL    HW162516   3.595   1.031  14.806
86873SOL    HW262517   3.477   0.955  14.749
86874SOL     OW62518  12.313   2.260   1.526
86874SOL    HW162519  12.379   2.320   1.492
86874SOL    HW262520  12.232   2.286   1.480
86875SOL     OW62521   1.978  10.038   5.010
86875SOL    HW162522   2.030  10.116   5.029
86875SOL    HW262523   1.920  10.029   5.086
86876SOL     OW62524  11.413   0.390   6.472
86876SOL    HW162525  11.350   0.353   6.535
86876SOL    HW262526  11.459   0.315   6.436
86877SOL     OW62527   6.556   8.624  11.217
86877SOL    HW162528   6.528   8.641  11.306
86877SOL    HW262529   6.483   8.652  11.162
86878SOL     OW62530   5.933  10.920   7.551
86878SOL    HW162531   5.923  10.870   7.471
86878SOL    HW262532   6.012  10.973   7.538
86879SOL     OW62533   8.196   8.179  14.786
86879SOL    HW162534   8.160   8.224  14.710
86879SOL    HW262535   8.260   8.240  14.822
86880SOL     OW62536  12.503   7.382   4.030
86880SOL    HW162537  12.546   7.363   4.114
86880SOL    HW262538  12.483   7.475   4.034
86881SOL     OW62539  10.265   7.851   0.285
86881SOL    HW162540  10.253   7.906   0.207
86881SOL    HW262541  10.183   7.862   0.333
86882SOL     OW62542  12.624   0.957  11.486
86882SOL    HW162543  12.595   0.896  11.418
86882SOL    HW262544  12.552   0.960  11.548
86883SOL     OW62545  12.634  12.026   5.980
86883SOL    HW162546  12.655  12.109   6.022
86883SOL    HW262547  12.687  11.961   6.026
86884SOL     OW62548   9.618   7.406   5.750
86884SOL    HW162549   9.691   7.466   5.736
86884SOL    HW262550   9.549   7.437   5.692
86885SOL     OW62551  14.857   5.366   3.682
86885SOL    HW162552  14.818   5.389   3.767
86885SOL    HW262553   0.080   5.386   3.692
86886SOL     OW62554   1.624  11.572   8.524
86886SOL    HW162555   1.570  11.500   8.492
86886SOL    HW262556   1.712  11.536   8.531
86887SOL     OW62557   6.561  11.531   7.498
86887SOL    HW162558   6.488  11.508   7.556
86887SOL    HW262559   6.603  11.605   7.542
86888SOL     OW62560   9.201   4.894  13.147
86888SOL    HW162561   9.256   4.970  13.167
86888SOL    HW262562   9.158   4.917  13.065
86889SOL     OW62563   0.508  11.372   3.279
86889SOL    HW162564   0.426  11.410   3.249
86889SOL    HW262565   0.573  11.403   3.216
86890SOL     OW62566   7.738  10.706  13.078
86890SOL    HW162567   7.667  10.693  13.140
86890SOL    HW262568   7.714  10.654  13.002
86891SOL     OW62569   2.406   5.358  13.092
86891SOL    HW162570   2.420   5.375  13.185
86891SOL    HW262571   2.389   5.445  13.054
86892SOL     OW62572  10.463   5.029  14.637
86892SOL    HW162573  10.502   4.985  14.561
86892SOL    HW262574  10.394   5.084  14.599
86893SOL     OW62575   7.293   4.645   1.435
86893SOL    HW162576   7.274   4.675   1.346
86893SOL    HW262577   7.290   4.549   1.429
86894SOL     OW62578   7.905   4.236   9.122
86894SOL    HW162579   7.969   4.305   9.104
86894SOL    HW262580   7.930   4.164   9.063
86895SOL     OW62581  13.836   7.007  10.361
86895SOL    HW162582  13.820   7.031  10.452
86895SOL    HW262583  13.749   7.002  10.321
86896SOL     OW62584   3.893   1.934   6.109
86896SOL    HW162585   3.873   1.998   6.041
86896SOL    HW262586   3.810   1.891   6.127
86897SOL     OW62587   0.392  10.525   2.651
86897SOL    HW162588   0.302  10.499   2.670
86897SOL    HW262589   0.385  10.579   2.572
86898SOL     OW62590   3.759   1.942   7.415
86898SOL    HW162591   3.751   1.912   7.505
86898SOL    HW262592   3.670   1.961   7.387
86899SOL     OW62593  11.037   6.381   7.981
86899SOL    HW162594  11.025   6.334   7.898
86899SOL    HW262595  10.972   6.342   8.040
86900SOL     OW62596  13.482   4.151  12.773
86900SOL    HW162597  13.411   4.164  12.710
86900SOL    HW262598  13.445   4.179  12.857
86901SOL     OW62599   2.580   1.747   1.328
86901SOL    HW162600   2.635   1.777   1.401
86901SOL    HW262601   2.643   1.722   1.260
86902SOL     OW62602  14.502   8.276   1.996
86902SOL    HW162603  14.491   8.200   1.939
86902SOL    HW262604  14.418   8.321   1.993
86903SOL     OW62605   0.282   0.659   0.980
86903SOL    HW162606   0.311   0.733   0.927
86903SOL    HW262607   0.189   0.678   0.998
86904SOL     OW62608   1.812   7.190  10.828
86904SOL    HW162609   1.787   7.098  10.834
86904SOL    HW262610   1.823   7.218  10.919
86905SOL     OW62611   7.465  11.207   4.536
86905SOL    HW162612   7.516  11.287   4.524
86905SOL    HW262613   7.379  11.237   4.564
86906SOL     OW62614   1.207   7.872   1.966
86906SOL    HW162615   1.116   7.866   1.939
86906SOL    HW262616   1.256   7.831   1.894
86907SOL     OW62617   6.959  11.004   0.612
86907SOL    HW162618   6.994  10.936   0.554
86907SOL    HW262619   7.016  11.080   0.597
86908SOL     OW62620  12.626   9.928  12.796
86908SOL    HW162621  12.607  10.020  12.775
86908SOL    HW262622  12.543   9.893  12.829
86909SOL     OW62623   1.267   2.563  10.892
86909SOL    HW162624   1.282   2.577  10.798
86909SOL    HW262625   1.220   2.641  10.920
86910SOL     OW62626  11.137   5.677  11.428
86910SOL    HW162627  11.178   5.592  11.444
86910SOL    HW262628  11.079   5.662  11.354
86911SOL     OW62629  12.980   2.691   8.698
86911SOL    HW162630  12.946   2.614   8.653
86911SOL    HW262631  12.921   2.706   8.771
86912SOL     OW62632   5.508   6.212  12.207
86912SOL    HW162633   5.564   6.198  12.131
86912SOL    HW262634   5.555   6.171  12.279
86913SOL     OW62635   6.032   8.605   1.957
86913SOL    HW162636   5.940   8.589   1.937
86913SOL    HW262637   6.074   8.616   1.871
86914SOL     OW62638   4.937   0.929   6.628
86914SOL    HW162639   4.905   1.020   6.622
86914SOL    HW262640   4.950   0.903   6.537
86915SOL     OW62641  10.389   1.844   9.638
86915SOL    HW162642  10.475   1.877   9.610
86915SOL    HW262643  10.337   1.842   9.558
86916SOL     OW62644   8.516   2.270   9.373
86916SOL    HW162645   8.483   2.295   9.287
86916SOL    HW262646   8.455   2.204   9.404
86917SOL     OW62647   3.754   3.635   7.281
86917SOL    HW162648   3.803   3.583   7.216
86917SOL    HW262649   3.775   3.595   7.365
86918SOL     OW62650   2.588   3.596  12.760
86918SOL    HW162651   2.622   3.685  12.751
86918SOL    HW262652   2.609   3.570  12.849
86919SOL     OW62653   8.206   2.766  12.702
86919SOL    HW162654   8.256   2.845  12.682
86919SOL    HW262655   8.187   2.728  12.616
86920SOL     OW62656   9.350   5.186   3.411
86920SOL    HW162657   9.294   5.218   3.341
86920SOL    HW262658   9.401   5.263   3.439
86921SOL     OW62659  12.467   4.981   9.409
86921SOL    HW162660  12.421   4.923   9.348
86921SOL    HW262661  12.509   4.922   9.472
86922SOL     OW62662   8.836   8.273  12.326
86922SOL    HW162663   8.886   8.328  12.265
86922SOL    HW262664   8.837   8.322  12.408
86923SOL     OW62665   3.218   1.301  13.251
86923SOL    HW162666   3.188   1.224  13.202
86923SOL    HW262667   3.262   1.265  13.327
86924SOL     OW62668  14.559   5.932   0.427
86924SOL    HW162669  14.644   5.908   0.391
86924SOL    HW262670  14.503   5.857   0.409
86925SOL     OW62671   6.176  13.702  12.200
86925SOL    HW162672   6.168  13.645  12.124
86925SOL    HW262673   6.217  13.647  12.267
86926SOL     OW62674   9.117  13.511  11.307
86926SOL    HW162675   9.179  13.569  11.262
86926SOL    HW262676   9.081  13.457  11.236
86927SOL     OW62677  11.318   7.670   6.349
86927SOL    HW162678  11.369   7.653   6.429
86927SOL    HW262679  11.260   7.742   6.373
86928SOL     OW62680   5.692  10.234  14.342
86928SOL    HW162681   5.765  10.217  14.282
86928SOL    HW262682   5.676  10.149  14.384
86929SOL     OW62683  11.124   1.667   1.211
86929SOL    HW162684  11.050   1.682   1.268
86929SOL    HW262685  11.194   1.639   1.269
86930SOL     OW62686   1.126  12.208   3.866
86930SOL    HW162687   1.220  12.191   3.865
86930SOL    HW262688   1.102  12.208   3.959
86931SOL     OW62689   4.346   5.211   3.289
86931SOL    HW162690   4.432   5.243   3.262
86931SOL    HW262691   4.364   5.157   3.366
86932SOL     OW62692  13.810   6.121  10.683
86932SOL    HW162693  13.807   6.111  10.588
86932SOL    HW262694  13.824   6.032  10.716
86933SOL     OW62695   8.949   8.032   4.923
86933SOL    HW162696   8.854   8.032   4.908
86933SOL    HW262697   8.970   7.941   4.943
86934SOL     OW62698   4.681   3.685   6.568
86934SOL    HW162699   4.688   3.602   6.615
86934SOL    HW262700   4.597   3.721   6.597
86935SOL     OW62701   6.962   5.310   5.894
86935SOL    HW162702   7.036   5.264   5.933
86935SOL    HW262703   6.915   5.243   5.844
86936SOL     OW62704   4.837   0.122  14.311
86936SOL    HW162705   4.852   0.191  14.374
86936SOL    HW262706   4.791   0.054  14.360
86937SOL     OW62707  10.710   4.850  13.104
86937SOL    HW162708  10.631   4.867  13.155
86937SOL    HW262709  10.701   4.759  13.075
86938SOL     OW62710   3.129  13.499   9.003
86938SOL    HW162711   3.065  13.469   9.067
86938SOL    HW262712   3.099  13.464   8.920
86939SOL     OW62713  13.630   7.799  11.613
86939SOL    HW162714  13.571   7.728  11.637
86939SOL    HW262715  13.596   7.876  11.658
86940SOL     OW62716   1.933   7.038  11.554
86940SOL    HW162717   2.007   7.017  11.497
86940SOL    HW262718   1.973   7.054  11.640
86941SOL     OW62719  12.365   6.620   7.468
86941SOL    HW162720  12.432   6.683   7.493
86941SOL    HW262721  12.346   6.573   7.550
86942SOL     OW62722   2.752   2.169   9.957
86942SOL    HW162723   2.676   2.228   9.956
86942SOL    HW262724   2.828   2.228   9.962
86943SOL     OW62725   7.517   8.665   5.508
86943SOL    HW162726   7.476   8.581   5.527
86943SOL    HW262727   7.515   8.712   5.591
86944SOL     OW62728   8.562  11.559   7.032
86944SOL    HW162729   8.597  11.645   7.008
86944SOL    HW262730   8.505  11.577   7.107
86945SOL     OW62731   1.139   6.817  13.014
86945SOL    HW162732   1.180   6.766  13.084
86945SOL    HW262733   1.163   6.771  12.934
86946SOL     OW62734  13.093   5.701   0.676
86946SOL    HW162735  13.044   5.619   0.669
86946SOL    HW262736  13.176   5.683   0.633
86947SOL     OW62737  10.986   0.138   2.241
86947SOL    HW162738  11.041   0.065   2.270
86947SOL    HW262739  11.048   0.210   2.225
86948SOL     OW62740   9.211  12.066   9.635
86948SOL    HW162741   9.123  12.083   9.602
86948SOL    HW262742   9.219  11.971   9.634
86949SOL     OW62743   0.562   3.441   8.060
86949SOL    HW162744   0.585   3.513   8.118
86949SOL    HW262745   0.479   3.468   8.020
86950SOL     OW62746   3.818  14.382   0.268
86950SOL    HW162747   3.893  14.348   0.219
86950SOL    HW262748   3.809  14.322   0.342
86951SOL     OW62749   1.824   3.489  10.770
86951SOL    HW162750   1.747   3.443  10.804
86951SOL    HW262751   1.896   3.426  10.780
86952SOL     OW62752  10.832   2.780  11.655
86952SOL    HW162753  10.862   2.820  11.573
86952SOL    HW262754  10.775   2.846  11.694
86953SOL     OW62755   2.848  12.278   3.138
86953SOL    HW162756   2.797  12.358   3.127
86953SOL    HW262757   2.808  12.234   3.213
86954SOL     OW62758   7.979   6.405   8.990
86954SOL    HW162759   7.983   6.408   8.895
86954SOL    HW262760   8.071   6.399   9.018
86955SOL     OW62761  12.218   9.213   0.870
86955SOL    HW162762  12.206   9.251   0.957
86955SOL    HW262763  12.179   9.277   0.810
86956SOL     OW62764  11.688   7.716   1.444
86956SOL    HW162765  11.605   7.707   1.490
86956SOL    HW262766  11.704   7.811   1.443
86957SOL     OW62767   5.820   6.140  13.509
86957SOL    HW162768   5.895   6.198  13.499
86957SOL    HW262769   5.858   6.053  13.524
86958SOL     OW62770   2.271   9.328  13.601
86958SOL    HW162771   2.188   9.365  13.632
86958SOL    HW262772   2.323   9.404  13.576
86959SOL     OW62773  13.540   3.655  10.535
86959SOL    HW162774  13.574   3.731  10.489
86959SOL    HW262775  13.606   3.636  10.602
86960SOL     OW62776   2.694   5.742   7.187
86960SOL    HW162777   2.666   5.663   7.233
86960SOL    HW262778   2.636   5.746   7.111
86961SOL     OW62779  14.319   6.360  11.092
86961SOL    HW162780  14.293   6.354  11.184
86961SOL    HW262781  14.262   6.427  11.055
86962SOL     OW62782  10.261  13.918   5.813
86962SOL    HW162783  10.227  13.882   5.894
86962SOL    HW262784  10.209  13.997   5.798
86963SOL     OW62785   8.824   0.671  10.307
86963SOL    HW162786   8.815   0.766  10.302
86963SOL    HW262787   8.736   0.639  10.325
86964SOL     OW62788   8.464   4.889  11.439
86964SOL    HW162789   8.538   4.851  11.392
86964SOL    HW262790   8.478   4.864  11.530
86965SOL     OW62791   4.737   8.677   6.268
86965SOL    HW162792   4.706   8.617   6.336
86965SOL    HW262793   4.732   8.764   6.309
86966SOL     OW62794   7.197   2.096   8.195
86966SOL    HW162795   7.208   2.109   8.289
86966SOL    HW262796   7.133   2.025   8.188
86967SOL     OW62797   1.305  12.388  10.074
86967SOL    HW162798   1.350  12.461  10.115
86967SOL    HW262799   1.343  12.382   9.986
86968SOL     OW62800   0.361   2.238   8.405
86968SOL    HW162801   0.411   2.232   8.486
86968SOL    HW262802   0.401   2.172   8.347
86969SOL     OW62803   8.434  14.012   6.962
86969SOL    HW162804   8.499  14.076   6.933
86969SOL    HW262805   8.352  14.043   6.923
86970SOL     OW62806  10.092   8.228   9.816
86970SOL    HW162807  10.124   8.283   9.888
86970SOL    HW262808  10.036   8.163   9.858
86971SOL     OW62809  12.133  13.372   9.015
86971SOL    HW162810  12.081  13.309   8.965
86971SOL    HW262811  12.172  13.430   8.949
86972SOL     OW62812  10.532   3.784   5.367
86972SOL    HW162813  10.481   3.839   5.307
86972SOL    HW262814  10.620   3.786   5.331
86973SOL     OW62815   8.104  12.311   4.160
86973SOL    HW162816   8.013  12.312   4.131
86973SOL    HW262817   8.155  12.324   4.080
86974SOL     OW62818   3.150   6.364  12.389
86974SOL    HW162819   3.215   6.299  12.415
86974SOL    HW262820   3.127   6.342  12.299
86975SOL     OW62821  12.639   1.823   6.806
86975SOL    HW162822  12.609   1.879   6.735
86975SOL    HW262823  12.561   1.777   6.836
86976SOL     OW62824   7.738   8.845  10.731
86976SOL    HW162825   7.651   8.819  10.700
86976SOL    HW262826   7.797   8.777  10.698
86977SOL     OW62827  14.057   8.573   8.756
86977SOL    HW162828  13.981   8.527   8.792
86977SOL    HW262829  14.111   8.504   8.718
86978SOL     OW62830  10.038   0.491  14.790
86978SOL    HW162831  10.002   0.435  14.722
86978SOL    HW262832  10.131   0.471  14.791
86979SOL     OW62833  14.018   0.930   9.019
86979SOL    HW162834  14.054   0.953   8.934
86979SOL    HW262835  13.988   0.840   9.008
86980SOL     OW62836   7.123  14.754  10.718
86980SOL    HW162837   7.192  14.815  10.747
86980SOL    HW262838   7.128  14.757  10.622
86981SOL     OW62839  11.554  13.415  11.369
86981SOL    HW162840  11.635  13.378  11.332
86981SOL    HW262841  11.487  13.348  11.353
86982SOL     OW62842   6.528   1.157   4.374
86982SOL    HW162843   6.507   1.066   4.355
86982SOL    HW262844   6.619   1.156   4.401
86983SOL     OW62845   5.508   1.546   3.310
86983SOL    HW162846   5.543   1.634   3.316
86983SOL    HW262847   5.574   1.497   3.261
86984SOL     OW62848   1.986  11.099   2.913
86984SOL    HW162849   2.036  11.180   2.922
86984SOL    HW262850   2.041  11.043   2.858
86985SOL     OW62851   7.639   8.716   9.826
86985SOL    HW162852   7.594   8.656   9.767
86985SOL    HW262853   7.729   8.683   9.829
86986SOL     OW62854  11.952  10.524   5.244
86986SOL    HW162855  11.906  10.499   5.324
86986SOL    HW262856  11.980  10.441   5.205
86987SOL     OW62857   7.263   5.492  14.515
86987SOL    HW162858   7.177   5.497  14.473
86987SOL    HW262859   7.279   5.398  14.526
86988SOL     OW62860   2.065   0.244  12.357
86988SOL    HW162861   2.048   0.320  12.302
86988SOL    HW262862   2.094   0.281  12.441
86989SOL     OW62863   7.363   7.952   6.387
86989SOL    HW162864   7.394   8.007   6.459
86989SOL    HW262865   7.308   7.886   6.429
86990SOL     OW62866  13.469  14.073   9.092
86990SOL    HW162867  13.529  14.093   9.163
86990SOL    HW262868  13.384  14.064   9.134
86991SOL     OW62869  13.445   2.022   1.498
86991SOL    HW162870  13.391   2.004   1.575
86991SOL    HW262871  13.391   1.994   1.424
86992SOL     OW62872  11.260   7.165   8.017
86992SOL    HW162873  11.330   7.192   8.077
86992SOL    HW262874  11.263   7.230   7.946
86993SOL     OW62875   2.562   6.386   2.915
86993SOL    HW162876   2.532   6.308   2.961
86993SOL    HW262877   2.644   6.410   2.959
86994SOL     OW62878   9.596  14.147   9.976
86994SOL    HW162879   9.656  14.079  10.007
86994SOL    HW262880   9.652  14.224   9.961
86995SOL     OW62881  11.812  11.873   4.893
86995SOL    HW162882  11.791  11.963   4.869
86995SOL    HW262883  11.808  11.825   4.811
86996SOL     OW62884  11.867   0.037   9.176
86996SOL    HW162885  11.876   0.058   9.269
86996SOL    HW262886  11.912  14.822   9.167
86997SOL     OW62887  12.851   0.217   6.650
86997SOL    HW162888  12.847   0.309   6.678
86997SOL    HW262889  12.814   0.168   6.723
86998SOL     OW62890   6.645   3.736   7.976
86998SOL    HW162891   6.696   3.681   7.917
86998SOL    HW262892   6.554   3.714   7.956
86999SOL     OW62893   1.897   8.566   3.492
86999SOL    HW162894   1.971   8.564   3.553
86999SOL    HW262895   1.915   8.642   3.436
87000SOL     OW62896   3.174   8.726   8.580
87000SOL    HW162897   3.255   8.689   8.543
87000SOL    HW262898   3.198   8.750   8.670
87001SOL     OW62899  12.706   3.291   0.685
87001SOL    HW162900  12.702   3.334   0.600
87001SOL    HW262901  12.670   3.355   0.747
87002SOL     OW62902   8.557   8.486  10.217
87002SOL    HW162903   8.549   8.454  10.127
87002SOL    HW262904   8.647   8.517  10.225
87003SOL     OW62905  11.993   3.724   3.776
87003SOL    HW162906  11.961   3.675   3.701
87003SOL    HW262907  12.004   3.813   3.744
87004SOL     OW62908  11.120  11.042   1.736
87004SOL    HW162909  11.062  11.084   1.672
87004SOL    HW262910  11.064  11.020   1.810
87005SOL     OW62911  12.351  13.682   9.275
87005SOL    HW162912  12.445  13.698   9.270
87005SOL    HW262913  12.341  13.611   9.338
87006SOL     OW62914   0.880  14.765   5.937
87006SOL    HW162915   0.920  14.773   6.024
87006SOL    HW262916   0.952  14.782   5.877
87007SOL     OW62917   0.269  10.607  11.080
87007SOL    HW162918   0.306  10.579  11.164
87007SOL    HW262919   0.203  10.541  11.059
87008SOL     OW62920   9.936  13.546   4.820
87008SOL    HW162921   9.889  13.549   4.737
87008SOL    HW262922   9.989  13.626   4.821
87009SOL     OW62923  11.294   3.738   8.322
87009SOL    HW162924  11.344   3.675   8.270
87009SOL    HW262925  11.221   3.688   8.358
87010SOL     OW62926   1.456  10.725   8.093
87010SOL    HW162927   1.427  10.769   8.173
87010SOL    HW262928   1.432  10.785   8.023
87011SOL     OW62929  14.298  12.656   8.060
87011SOL    HW162930  14.209  12.656   8.095
87011SOL    HW262931  14.295  12.717   7.986
87012SOL     OW62932   0.175  10.869   3.689
87012SOL    HW162933   0.260  10.831   3.709
87012SOL    HW262934   0.193  10.961   3.670
87013SOL     OW62935   2.321  10.576   0.698
87013SOL    HW162936   2.355  10.498   0.654
87013SOL    HW262937   2.317  10.552   0.790
87014SOL     OW62938   6.641   2.064   3.755
87014SOL    HW162939   6.686   1.986   3.788
87014SOL    HW262940   6.711   2.128   3.744
87015SOL     OW62941  10.431   5.013  12.200
87015SOL    HW162942  10.498   4.962  12.246
87015SOL    HW262943  10.358   4.952  12.189
87016SOL     OW62944  11.028   4.044   6.893
87016SOL    HW162945  11.048   4.133   6.923
87016SOL    HW262946  10.950   4.019   6.944
87017SOL     OW62947   5.034   0.832  11.616
87017SOL    HW162948   5.128   0.813  11.624
87017SOL    HW262949   5.028   0.926  11.630
87018SOL     OW62950   1.792   3.898  10.762
87018SOL    HW162951   1.704   3.863  10.751
87018SOL    HW262952   1.807   3.949  10.682
87019SOL     OW62953   2.849   1.064   8.747
87019SOL    HW162954   2.846   1.010   8.826
87019SOL    HW262955   2.883   1.005   8.679
87020SOL     OW62956  14.480   5.253   0.165
87020SOL    HW162957  14.495   5.238   0.072
87020SOL    HW262958  14.408   5.194   0.187
87021SOL     OW62959   8.337   5.832  11.928
87021SOL    HW162960   8.324   5.790  12.013
87021SOL    HW262961   8.401   5.901  11.945
87022SOL     OW62962  14.523   4.367   4.819
87022SOL    HW162963  14.533   4.293   4.879
87022SOL    HW262964  14.495   4.327   4.736
87023SOL     OW62965   8.610   2.203  10.562
87023SOL    HW162966   8.589   2.294  10.583
87023SOL    HW262967   8.658   2.171  10.639
87024SOL     OW62968   3.488   6.414   3.080
87024SOL    HW162969   3.451   6.339   3.125
87024SOL    HW262970   3.532   6.377   3.003
87025SOL     OW62971  13.466   0.954   7.040
87025SOL    HW162972  13.406   0.880   7.026
87025SOL    HW262973  13.409   1.024   7.072
87026SOL     OW62974   4.764   5.494  14.331
87026SOL    HW162975   4.804   5.538  14.407
87026SOL    HW262976   4.681   5.460  14.364
87027SOL     OW62977  13.156  14.764   1.311
87027SOL    HW162978  13.143  14.669   1.320
87027SOL    HW262979  13.141  14.780   1.218
87028SOL     OW62980   0.697   8.776   6.371
87028SOL    HW162981   0.726   8.711   6.306
87028SOL    HW262982   0.713   8.734   6.455
87029SOL     OW62983   1.046   2.262  13.408
87029SOL    HW162984   0.975   2.315  13.444
87029SOL    HW262985   1.111   2.326  13.379
87030SOL     OW62986   6.475  12.892   5.890
87030SOL    HW162987   6.382  12.896   5.909
87030SOL    HW262988   6.511  12.837   5.960
87031SOL     OW62989   8.572   5.346   1.100
87031SOL    HW162990   8.581   5.351   1.196
87031SOL    HW262991   8.647   5.396   1.067
87032SOL     OW62992  14.068   5.248   1.019
87032SOL    HW162993  14.155   5.215   0.996
87032SOL    HW262994  14.046   5.201   1.100
87033SOL     OW62995   7.418   6.693   1.776
87033SOL    HW162996   7.339   6.746   1.774
87033SOL    HW262997   7.405   6.628   1.706
87034SOL     OW62998   6.245   8.776   8.013
87034SOL    HW162999   6.176   8.714   7.989
87034SOL    HW263000   6.275   8.813   7.930
87035SOL     OW63001   5.692   5.326   0.105
87035SOL    HW163002   5.749   5.337   0.182
87035SOL    HW263003   5.619   5.385   0.121
87036SOL     OW63004   0.490   7.581   6.256
87036SOL    HW163005   0.479   7.494   6.295
87036SOL    HW263006   0.495   7.640   6.331
87037SOL     OW63007   4.326   5.446   2.959
87037SOL    HW163008   4.404   5.420   3.007
87037SOL    HW263009   4.257   5.448   3.025
87038SOL     OW63010   3.720   7.140  14.402
87038SOL    HW163011   3.795   7.081  14.407
87038SOL    HW263012   3.756   7.221  14.367
87039SOL     OW63013   3.181   3.609  11.421
87039SOL    HW163014   3.239   3.681  11.396
87039SOL    HW263015   3.236   3.531  11.416
87040SOL     OW63016  14.060  13.692   2.749
87040SOL    HW163017  14.055  13.701   2.654
87040SOL    HW263018  13.984  13.741   2.782
87041SOL     OW63019  10.377  10.871   5.556
87041SOL    HW163020  10.323  10.868   5.634
87041SOL    HW263021  10.432  10.949   5.567
87042SOL     OW63022   9.373   4.962  10.331
87042SOL    HW163023   9.343   4.948  10.421
87042SOL    HW263024   9.387   4.874  10.296
87043SOL     OW63025   4.775   8.470   2.505
87043SOL    HW163026   4.840   8.473   2.575
87043SOL    HW263027   4.749   8.378   2.500
87044SOL     OW63028   3.262   2.183   8.500
87044SOL    HW163029   3.309   2.100   8.492
87044SOL    HW263030   3.198   2.182   8.428
87045SOL     OW63031   2.104   7.769   9.748
87045SOL    HW163032   2.097   7.754   9.842
87045SOL    HW263033   2.144   7.689   9.713
87046SOL     OW63034   3.793  11.400   6.188
87046SOL    HW163035   3.839  11.481   6.210
87046SOL    HW263036   3.704  11.414   6.219
87047SOL     OW63037   0.105   4.438   5.018
87047SOL    HW163038   0.098   4.412   5.110
87047SOL    HW263039   0.040   4.507   5.007
87048SOL     OW63040   3.465   7.217   6.500
87048SOL    HW163041   3.407   7.150   6.535
87048SOL    HW263042   3.411   7.296   6.495
87049SOL     OW63043   4.528   2.490  13.995
87049SOL    HW163044   4.512   2.540  14.076
87049SOL    HW263045   4.516   2.554  13.925
87050SOL     OW63046   0.795   0.038  10.103
87050SOL    HW163047   0.742  14.828  10.109
87050SOL    HW263048   0.885   0.008  10.114
87051SOL     OW63049  12.634   1.718   4.897
87051SOL    HW163050  12.580   1.736   4.820
87051SOL    HW263051  12.684   1.639   4.874
87052SOL     OW63052  13.814   6.641   9.304
87052SOL    HW163053  13.887   6.643   9.365
87052SOL    HW263054  13.855   6.631   9.218
87053SOL     OW63055   3.714  11.410  13.543
87053SOL    HW163056   3.785  11.346  13.547
87053SOL    HW263057   3.742  11.483  13.598
87054SOL     OW63058   9.777   6.071   7.901
87054SOL    HW163059   9.685   6.078   7.927
87054SOL    HW263060   9.797   5.978   7.905
87055SOL     OW63061   9.735   2.275  12.182
87055SOL    HW163062   9.686   2.352  12.209
87055SOL    HW263063   9.825   2.306  12.170
87056SOL     OW63064  11.265   2.615   1.879
87056SOL    HW163065  11.266   2.604   1.974
87056SOL    HW263066  11.330   2.552   1.847
87057SOL     OW63067  14.572  11.972   5.051
87057SOL    HW163068  14.667  11.964   5.059
87057SOL    HW263069  14.540  11.969   5.141
87058SOL     OW63070   6.760   5.728   8.001
87058SOL    HW163071   6.685   5.697   7.950
87058SOL    HW263072   6.788   5.808   7.955
87059SOL     OW63073   6.481   0.476   5.016
87059SOL    HW163074   6.503   0.567   5.037
87059SOL    HW263075   6.552   0.425   5.054
87060SOL     OW63076  10.719  10.144  14.211
87060SOL    HW163077  10.668  10.136  14.129
87060SOL    HW263078  10.765  10.060  14.218
87061SOL     OW63079   0.524   6.100   0.856
87061SOL    HW163080   0.605   6.066   0.817
87061SOL    HW263081   0.538   6.195   0.860
87062SOL     OW63082   7.973   1.272   4.754
87062SOL    HW163083   8.001   1.352   4.798
87062SOL    HW263084   8.016   1.276   4.668
87063SOL     OW63085   6.805  10.417  12.259
87063SOL    HW163086   6.868  10.425  12.187
87063SOL    HW263087   6.755  10.338  12.238
87064SOL     OW63088   8.734  10.864  10.643
87064SOL    HW163089   8.691  10.836  10.562
87064SOL    HW263090   8.681  10.938  10.674
87065SOL     OW63091   9.537   0.506  10.748
87065SOL    HW163092   9.522   0.564  10.822
87065SOL    HW263093   9.538   0.564  10.672
87066SOL     OW63094   1.948   6.532   2.563
87066SOL    HW163095   1.903   6.613   2.586
87066SOL    HW263096   2.039   6.548   2.588
87067SOL     OW63097  14.620   7.221   6.738
87067SOL    HW163098  14.713   7.220   6.714
87067SOL    HW263099  14.585   7.138   6.703
87068SOL     OW63100   2.890   7.893  10.437
87068SOL    HW163101   2.970   7.878  10.387
87068SOL    HW263102   2.827   7.831  10.402
87069SOL     OW63103  10.558  13.458   0.686
87069SOL    HW163104  10.564  13.389   0.753
87069SOL    HW263105  10.623  13.432   0.620
87070SOL     OW63106  14.176   6.723  12.613
87070SOL    HW163107  14.207   6.663  12.681
87070SOL    HW263108  14.220   6.806  12.631
87071SOL     OW63109  12.672  14.120   0.837
87071SOL    HW163110  12.718  14.202   0.849
87071SOL    HW263111  12.719  14.058   0.893
87072SOL     OW63112   4.682  11.620   9.935
87072SOL    HW163113   4.624  11.609  10.011
87072SOL    HW263114   4.699  11.714   9.932
87073SOL     OW63115  13.381   2.433   1.385
87073SOL    HW163116  13.352   2.417   1.474
87073SOL    HW263117  13.301   2.437   1.333
87074SOL     OW63118  14.029  12.593   8.070
87074SOL    HW163119  13.975  12.524   8.108
87074SOL    HW263120  13.997  12.602   7.980
87075SOL     OW63121  12.900  12.586   6.392
87075SOL    HW163122  12.994  12.579   6.410
87075SOL    HW263123  12.890  12.666   6.341
87076SOL     OW63124  10.418   2.138  10.702
87076SOL    HW163125  10.396   2.203  10.635
87076SOL    HW263126  10.386   2.175  10.784
87077SOL     OW63127   1.705   6.354   8.065
87077SOL    HW163128   1.678   6.380   7.977
87077SOL    HW263129   1.752   6.271   8.052
87078SOL     OW63130  14.082   4.013  11.409
87078SOL    HW163131  14.088   4.099  11.450
87078SOL    HW263132  13.994   3.981  11.431
87079SOL     OW63133  13.558   4.955   1.296
87079SOL    HW163134  13.578   4.990   1.209
87079SOL    HW263135  13.490   4.889   1.281
87080SOL     OW63136   5.581   6.492  13.226
87080SOL    HW163137   5.668   6.457  13.210
87080SOL    HW263138   5.560   6.464  13.315
87081SOL     OW63139  11.117   4.758  10.302
87081SOL    HW163140  11.168   4.839  10.305
87081SOL    HW263141  11.029   4.784  10.330
87082SOL     OW63142   6.592   4.234  14.124
87082SOL    HW163143   6.618   4.152  14.168
87082SOL    HW263144   6.604   4.301  14.190
87083SOL     OW63145   5.282   5.282  13.216
87083SOL    HW163146   5.296   5.197  13.173
87083SOL    HW263147   5.249   5.339  13.146
87084SOL     OW63148   6.949  10.271   4.851
87084SOL    HW163149   6.906  10.196   4.810
87084SOL    HW263150   6.928  10.264   4.944
87085SOL     OW63151  12.959   1.132   5.835
87085SOL    HW163152  12.964   1.215   5.787
87085SOL    HW263153  12.873   1.097   5.813
87086SOL     OW63154   6.885  11.754   7.234
87086SOL    HW163155   6.865  11.672   7.278
87086SOL    HW263156   6.806  11.775   7.184
87087SOL     OW63157   9.798  12.603  11.057
87087SOL    HW163158   9.842  12.632  10.977
87087SOL    HW263159   9.738  12.675  11.078
87088SOL     OW63160  12.461  10.872   8.263
87088SOL    HW163161  12.468  10.964   8.287
87088SOL    HW263162  12.444  10.827   8.345
87089SOL     OW63163   7.872  12.107   5.133
87089SOL    HW163164   7.832  12.165   5.068
87089SOL    HW263165   7.851  12.148   5.217
87090SOL     OW63166   5.574  14.430  10.508
87090SOL    HW163167   5.546  14.346  10.544
87090SOL    HW263168   5.575  14.417  10.414
87091SOL     OW63169  12.867  11.517   9.904
87091SOL    HW163170  12.923  11.588   9.876
87091SOL    HW263171  12.782  11.535   9.864
87092SOL     OW63172   7.229   6.726  14.335
87092SOL    HW163173   7.165   6.673  14.288
87092SOL    HW263174   7.238   6.805  14.283
87093SOL     OW63175  14.724   8.907  11.780
87093SOL    HW163176  14.698   8.873  11.695
87093SOL    HW263177  14.807   8.953  11.764
87094SOL     OW63178   2.556   7.642   0.930
87094SOL    HW163179   2.597   7.679   0.852
87094SOL    HW263180   2.532   7.553   0.905
87095SOL     OW63181  10.334   7.143   3.117
87095SOL    HW163182  10.338   7.087   3.039
87095SOL    HW263183  10.265   7.206   3.098
87096SOL     OW63184   5.266  10.552   7.715
87096SOL    HW163185   5.195  10.569   7.777
87096SOL    HW263186   5.304  10.469   7.744
87097SOL     OW63187  13.904   2.562   9.082
87097SOL    HW163188  13.955   2.620   9.138
87097SOL    HW263189  13.927   2.589   8.993
87098SOL     OW63190   8.927   5.098   2.055
87098SOL    HW163191   8.902   5.174   2.108
87098SOL    HW263192   9.019   5.113   2.033
87099SOL     OW63193  10.732   7.164   8.987
87099SOL    HW163194  10.684   7.086   8.959
87099SOL    HW263195  10.774   7.139   9.069
87100SOL     OW63196   9.474   3.953  11.941
87100SOL    HW163197   9.565   3.942  11.969
87100SOL    HW263198   9.448   4.036  11.981
87101SOL     OW63199  11.657   2.191   8.868
87101SOL    HW163200  11.658   2.285   8.851
87101SOL    HW263201  11.603   2.154   8.798
87102SOL     OW63202   4.248  10.809   8.518
87102SOL    HW163203   4.197  10.751   8.576
87102SOL    HW263204   4.182  10.861   8.472
87103SOL     OW63205   8.002   0.560   7.942
87103SOL    HW163206   8.059   0.519   7.878
87103SOL    HW263207   7.957   0.487   7.985
87104SOL     OW63208  14.541   0.875  13.998
87104SOL    HW163209  14.558   0.884  14.092
87104SOL    HW263210  14.542   0.965  13.965
87105SOL     OW63211   1.994   5.481   1.666
87105SOL    HW163212   2.053   5.450   1.597
87105SOL    HW263213   2.042   5.551   1.710
87106SOL     OW63214  11.984   3.024   4.318
87106SOL    HW163215  11.913   2.964   4.341
87106SOL    HW263216  12.025   3.047   4.402
87107SOL     OW63217  13.612  14.069   5.610
87107SOL    HW163218  13.561  14.109   5.539
87107SOL    HW263219  13.546  14.051   5.678
87108SOL     OW63220  14.677   3.023  12.148
87108SOL    HW163221  14.721   3.038  12.232
87108SOL    HW263222  14.734   2.962  12.101
87109SOL     OW63223   2.245   1.443   8.347
87109SOL    HW163224   2.322   1.484   8.307
87109SOL    HW263225   2.228   1.366   8.292
87110SOL     OW63226   3.825   2.660   2.432
87110SOL    HW163227   3.778   2.581   2.405
87110SOL    HW263228   3.794   2.677   2.521
87111SOL     OW63229   9.456  12.978   8.902
87111SOL    HW163230   9.366  12.991   8.933
87111SOL    HW263231   9.502  12.944   8.979
87112SOL     OW63232  14.747   8.600  11.442
87112SOL    HW163233  14.662   8.584  11.482
87112SOL    HW263234  14.745   8.693  11.417
87113SOL     OW63235   2.325   2.050   5.894
87113SOL    HW163236   2.340   1.955   5.897
87113SOL    HW263237   2.372   2.080   5.816
87114SOL     OW63238   0.893  12.475  12.569
87114SOL    HW163239   0.806  12.508  12.588
87114SOL    HW263240   0.930  12.452  12.654
87115SOL     OW63241   8.092   8.721   1.595
87115SOL    HW163242   8.092   8.697   1.503
87115SOL    HW263243   8.024   8.667   1.635
87116SOL     OW63244   9.163  12.162   6.030
87116SOL    HW163245   9.159  12.219   6.107
87116SOL    HW263246   9.189  12.220   5.958
87117SOL     OW63247  12.860   6.926  13.628
87117SOL    HW163248  12.952   6.952  13.626
87117SOL    HW263249  12.861   6.832  13.641
87118SOL     OW63250   5.276   5.132   6.199
87118SOL    HW163251   5.309   5.215   6.233
87118SOL    HW263252   5.184   5.148   6.179
87119SOL     OW63253  10.156   8.854   4.315
87119SOL    HW163254  10.181   8.763   4.332
87119SOL    HW263255  10.192   8.902   4.390
87120SOL     OW63256   7.340   1.097   4.024
87120SOL    HW163257   7.410   1.099   3.959
87120SOL    HW263258   7.383   1.116   4.107
87121SOL     OW63259   8.650   1.203  10.514
87121SOL    HW163260   8.568   1.175  10.555
87121SOL    HW263261   8.717   1.185  10.580
87122SOL     OW63262  12.909   8.610  10.572
87122SOL    HW163263  12.840   8.549  10.547
87122SOL    HW263264  12.867   8.670  10.633
87123SOL     OW63265  14.127   4.580   7.169
87123SOL    HW163266  14.124   4.485   7.159
87123SOL    HW263267  14.141   4.594   7.263
87124SOL     OW63268   3.415   3.022  14.062
87124SOL    HW163269   3.423   2.934  14.098
87124SOL    HW263270   3.499   3.063  14.082
87125SOL     OW63271  11.826   1.404   7.580
87125SOL    HW163272  11.838   1.310   7.596
87125SOL    HW263273  11.832   1.444   7.666
87126SOL     OW63274   4.789  11.859  12.488
87126SOL    HW163275   4.824  11.848  12.576
87126SOL    HW263276   4.829  11.788  12.438
87127SOL     OW63277   2.633  12.936  14.835
87127SOL    HW163278   2.607  13.014   0.015
87127SOL    HW263279   2.657  12.872   0.032
87128SOL     OW63280  12.220  12.230   2.168
87128SOL    HW163281  12.168  12.278   2.233
87128SOL    HW263282  12.239  12.295   2.100
87129SOL     OW63283   5.513   9.378  10.469
87129SOL    HW163284   5.607   9.363  10.474
87129SOL    HW263285   5.502   9.469  10.498
87130SOL     OW63286  12.257  10.395   4.940
87130SOL    HW163287  12.342  10.418   4.976
87130SOL    HW263288  12.273  10.316   4.888
87131SOL     OW63289   7.600  13.420   6.424
87131SOL    HW163290   7.623  13.382   6.339
87131SOL    HW263291   7.512  13.385   6.443
87132SOL     OW63292   2.529  14.835   2.337
87132SOL    HW163293   2.479  14.811   2.260
87132SOL    HW263294   2.518   0.060   2.345
87133SOL     OW63295   3.325   3.146   3.250
87133SOL    HW163296   3.250   3.200   3.225
87133SOL    HW263297   3.338   3.087   3.176
87134SOL     OW63298   9.076   1.322  12.995
87134SOL    HW163299   9.072   1.228  12.979
87134SOL    HW263300   9.115   1.330  13.081
87135SOL     OW63301   1.873   6.339  11.899
87135SOL    HW163302   1.914   6.390  11.830
87135SOL    HW263303   1.914   6.252  11.893
87136SOL     OW63304   9.100  12.672  10.573
87136SOL    HW163305   9.054  12.737  10.627
87136SOL    HW263306   9.105  12.594  10.628
87137SOL     OW63307   1.715   3.253   2.719
87137SOL    HW163308   1.687   3.274   2.630
87137SOL    HW263309   1.761   3.170   2.711
87138SOL     OW63310   2.042   3.759   0.508
87138SOL    HW163311   1.960   3.711   0.493
87138SOL    HW263312   2.047   3.821   0.435
87139SOL     OW63313  13.621   7.300   8.175
87139SOL    HW163314  13.687   7.240   8.142
87139SOL    HW263315  13.658   7.388   8.161
87140SOL     OW63316  12.979   5.142   0.591
87140SOL    HW163317  12.962   5.145   0.496
87140SOL    HW263318  12.974   5.050   0.613
87141SOL     OW63319   1.328   9.922  11.783
87141SOL    HW163320   1.291   9.959  11.703
87141SOL    HW263321   1.423   9.920  11.767
87142SOL     OW63322  14.457   6.687   4.799
87142SOL    HW163323  14.486   6.607   4.754
87142SOL    HW263324  14.538   6.736   4.813
87143SOL     OW63325   6.585  14.856  12.860
87143SOL    HW163326   6.556   0.071  12.894
87143SOL    HW263327   6.509  14.823  12.811
87144SOL     OW63328   0.545   8.159   4.583
87144SOL    HW163329   0.498   8.086   4.624
87144SOL    HW263330   0.481   8.198   4.524
87145SOL     OW63331   5.466   9.507   5.620
87145SOL    HW163332   5.506   9.430   5.661
87145SOL    HW263333   5.540   9.560   5.591
87146SOL     OW63334   8.218   7.737   5.743
87146SOL    HW163335   8.300   7.717   5.788
87146SOL    HW263336   8.218   7.680   5.667
87147SOL     OW63337  10.472   0.958   6.387
87147SOL    HW163338  10.488   0.957   6.482
87147SOL    HW263339  10.467   0.865   6.363
87148SOL     OW63340  13.120   8.889   0.621
87148SOL    HW163341  13.057   8.860   0.554
87148SOL    HW263342  13.072   8.881   0.703
87149SOL     OW63343   5.239   7.589   1.183
87149SOL    HW163344   5.159   7.571   1.232
87149SOL    HW263345   5.266   7.504   1.149
87150SOL     OW63346   4.006   5.306  12.869
87150SOL    HW163347   4.098   5.285  12.855
87150SOL    HW263348   3.998   5.397  12.839
87151SOL     OW63349   6.755   9.119  10.332
87151SOL    HW163350   6.737   9.029  10.306
87151SOL    HW263351   6.700   9.172  10.275
87152SOL     OW63352   0.575   4.353   2.618
87152SOL    HW163353   0.533   4.425   2.666
87152SOL    HW263354   0.641   4.396   2.564
87153SOL     OW63355   1.242  12.843  12.472
87153SOL    HW163356   1.260  12.755  12.438
87153SOL    HW263357   1.227  12.897  12.395
87154SOL     OW63358   4.816   7.007  13.161
87154SOL    HW163359   4.757   7.080  13.176
87154SOL    HW263360   4.898   7.047  13.131
87155SOL     OW63361  13.624   2.207   1.579
87155SOL    HW163362  13.562   2.154   1.529
87155SOL    HW263363  13.702   2.152   1.586
87156SOL     OW63364   1.201  13.856  10.234
87156SOL    HW163365   1.200  13.913  10.310
87156SOL    HW263366   1.114  13.868  10.194
87157SOL     OW63367   8.331   9.352   1.141
87157SOL    HW163368   8.251   9.359   1.089
87157SOL    HW263369   8.394   9.406   1.095
87158SOL     OW63370   9.449   6.319   5.250
87158SOL    HW163371   9.373   6.296   5.303
87158SOL    HW263372   9.417   6.315   5.160
87159SOL     OW63373  11.527  10.896  11.751
87159SOL    HW163374  11.448  10.873  11.799
87159SOL    HW263375  11.567  10.966  11.802
87160SOL     OW63376  11.718   3.904   3.825
87160SOL    HW163377  11.756   3.889   3.739
87160SOL    HW263378  11.624   3.912   3.809
87161SOL     OW63379  13.298   5.940  10.332
87161SOL    HW163380  13.283   5.939  10.237
87161SOL    HW263381  13.219   5.981  10.368
87162SOL     OW63382   1.005  11.087   6.321
87162SOL    HW163383   1.010  11.117   6.412
87162SOL    HW263384   0.913  11.068   6.307
87163SOL     OW63385   9.975   5.443   2.442
87163SOL    HW163386  10.058   5.400   2.463
87163SOL    HW263387   9.930   5.449   2.526
87164SOL     OW63388  14.332  13.057  13.315
87164SOL    HW163389  14.246  13.041  13.355
87164SOL    HW263390  14.376  13.115  13.378
87165SOL     OW63391   3.847   2.474   8.225
87165SOL    HW163392   3.873   2.448   8.137
87165SOL    HW263393   3.906   2.426   8.283
87166SOL     OW63394   6.109  12.065   9.826
87166SOL    HW163395   6.037  12.126   9.844
87166SOL    HW263396   6.070  12.000   9.768
87167SOL     OW63397  10.180   7.136  11.757
87167SOL    HW163398  10.130   7.213  11.729
87167SOL    HW263399  10.177   7.138  11.852
87168SOL     OW63400  11.235   3.163   3.449
87168SOL    HW163401  11.167   3.106   3.411
87168SOL    HW263402  11.291   3.185   3.376
87169SOL     OW63403   2.169  11.637  12.721
87169SOL    HW163404   2.216  11.710  12.763
87169SOL    HW263405   2.216  11.624  12.638
87170SOL     OW63406   3.445  12.127  13.988
87170SOL    HW163407   3.382  12.106  13.919
87170SOL    HW263408   3.397  12.184  14.048
87171SOL     OW63409   7.052  14.370   4.476
87171SOL    HW163410   6.991  14.416   4.535
87171SOL    HW263411   7.004  14.363   4.394
87172SOL     OW63412   4.790   2.468  14.194
87172SOL    HW163413   4.704   2.471  14.236
87172SOL    HW263414   4.852   2.481  14.266
87173SOL     OW63415  13.524   4.776   5.248
87173SOL    HW163416  13.489   4.727   5.323
87173SOL    HW263417  13.457   4.767   5.180
87174SOL     OW63418  14.658   0.999   6.979
87174SOL    HW163419  14.726   0.957   7.031
87174SOL    HW263420  14.592   1.026   7.043
87175SOL     OW63421   5.022  11.281   0.467
87175SOL    HW163422   5.095  11.221   0.487
87175SOL    HW263423   5.016  11.279   0.372
87176SOL     OW63424   7.737  13.297   6.213
87176SOL    HW163425   7.787  13.241   6.272
87176SOL    HW263426   7.736  13.251   6.130
87177SOL     OW63427   5.126  10.555   6.210
87177SOL    HW163428   5.097  10.522   6.295
87177SOL    HW263429   5.046  10.564   6.159
87178SOL     OW63430  11.639   0.734  14.376
87178SOL    HW163431  11.577   0.757  14.306
87178SOL    HW263432  11.687   0.659  14.341
87179SOL     OW63433  13.652   8.746   9.512
87179SOL    HW163434  13.570   8.752   9.561
87179SOL    HW263435  13.643   8.812   9.443
87180SOL     OW63436   2.495   7.641   3.824
87180SOL    HW163437   2.543   7.681   3.897
87180SOL    HW263438   2.413   7.689   3.820
87181SOL     OW63439   5.248   2.092   5.434
87181SOL    HW163440   5.218   2.110   5.523
87181SOL    HW263441   5.168   2.089   5.382
87182SOL     OW63442   4.550   4.687   8.141
87182SOL    HW163443   4.533   4.664   8.050
87182SOL    HW263444   4.470   4.660   8.188
87183SOL     OW63445  11.238  10.933   5.449
87183SOL    HW163446  11.179  10.906   5.519
87183SOL    HW263447  11.311  10.976   5.493
87184SOL     OW63448   5.832   9.996   9.248
87184SOL    HW163449   5.741  10.001   9.274
87184SOL    HW263450   5.834   9.931   9.178
87185SOL     OW63451   7.575  12.803   1.276
87185SOL    HW163452   7.592  12.826   1.367
87185SOL    HW263453   7.598  12.882   1.226
87186SOL     OW63454   5.501  12.588   5.057
87186SOL    HW163455   5.546  12.668   5.083
87186SOL    HW263456   5.463  12.609   4.971
87187SOL     OW63457  12.781   0.687   6.403
87187SOL    HW163458  12.757   0.630   6.476
87187SOL    HW263459  12.833   0.632   6.345
87188SOL     OW63460   8.864   7.066  12.824
87188SOL    HW163461   8.906   7.116  12.753
87188SOL    HW263462   8.771   7.070  12.805
87189SOL     OW63463   2.109  13.994  11.941
87189SOL    HW163464   2.035  13.969  11.886
87189SOL    HW263465   2.068  14.038  12.016
87190SOL     OW63466   9.157   7.280  13.355
87190SOL    HW163467   9.106   7.248  13.428
87190SOL    HW263468   9.210   7.205  13.327
87191SOL     OW63469  11.920   7.637  10.565
87191SOL    HW163470  11.852   7.594  10.512
87191SOL    HW263471  11.956   7.704  10.506
87192SOL     OW63472   6.816   4.482   9.645
87192SOL    HW163473   6.772   4.566   9.655
87192SOL    HW263474   6.803   4.437   9.729
87193SOL     OW63475  12.395  14.825   5.397
87193SOL    HW163476  12.306  14.800   5.423
87193SOL    HW263477  12.382   0.014   5.323
87194SOL     OW63478  12.874   6.260   8.929
87194SOL    HW163479  12.872   6.251   9.025
87194SOL    HW263480  12.908   6.348   8.913
87195SOL     OW63481  10.893   1.036   6.050
87195SOL    HW163482  10.930   0.967   6.104
87195SOL    HW263483  10.907   1.116   6.100
87196SOL     OW63484   4.259  10.502   2.840
87196SOL    HW163485   4.333  10.472   2.787
87196SOL    HW263486   4.214  10.421   2.866
87197SOL     OW63487  11.914   4.207   5.263
87197SOL    HW163488  11.914   4.144   5.191
87197SOL    HW263489  11.823   4.233   5.273
87198SOL     OW63490  13.749  14.025  14.376
87198SOL    HW163491  13.721  13.975  14.300
87198SOL    HW263492  13.843  14.035  14.365
87199SOL     OW63493  14.844  13.519   5.340
87199SOL    HW163494  14.750  13.535   5.325
87199SOL    HW263495   0.007  13.489   5.255
87200SOL     OW63496  11.480  12.827   7.211
87200SOL    HW163497  11.410  12.762   7.218
87200SOL    HW263498  11.561  12.776   7.208
87201SOL     OW63499  14.138   3.021   5.781
87201SOL    HW163500  14.184   3.076   5.845
87201SOL    HW263501  14.058   2.994   5.826
87202SOL     OW63502   3.910   5.847  10.881
87202SOL    HW163503   3.975   5.850  10.811
87202SOL    HW263504   3.905   5.755  10.906
87203SOL     OW63505  10.378   6.352  13.403
87203SOL    HW163506  10.403   6.290  13.471
87203SOL    HW263507  10.283   6.362  13.413
87204SOL     OW63508   3.292   9.897   4.868
87204SOL    HW163509   3.197   9.885   4.863
87204SOL    HW263510   3.307   9.943   4.951
87205SOL     OW63511   0.294  11.572   2.697
87205SOL    HW163512   0.352  11.499   2.677
87205SOL    HW263513   0.353  11.641   2.728
87206SOL     OW63514  10.093   4.420  11.467
87206SOL    HW163515  10.135   4.336  11.487
87206SOL    HW263516  10.000   4.405  11.481
87207SOL     OW63517  14.650   2.001  11.080
87207SOL    HW163518  14.695   1.956  11.151
87207SOL    HW263519  14.685   1.962  11.000
87208SOL     OW63520  13.523   7.651   4.033
87208SOL    HW163521  13.512   7.557   4.015
87208SOL    HW263522  13.463   7.668   4.106
87209SOL     OW63523   0.666   1.870   8.211
87209SOL    HW163524   0.651   1.776   8.197
87209SOL    HW263525   0.681   1.905   8.123
87210SOL     OW63526  11.880   7.458   0.806
87210SOL    HW163527  11.870   7.383   0.865
87210SOL    HW263528  11.838   7.531   0.853
87211SOL     OW63529   6.529  10.675   0.474
87211SOL    HW163530   6.544  10.733   0.549
87211SOL    HW263531   6.616  10.658   0.439
87212SOL     OW63532   0.106   3.693   8.084
87212SOL    HW163533   0.061   3.711   8.167
87212SOL    HW263534   0.058   3.745   8.019
87213SOL     OW63535   2.531  14.326   1.717
87213SOL    HW163536   2.534  14.418   1.743
87213SOL    HW263537   2.441  14.313   1.686
87214SOL     OW63538  12.874   7.916   8.782
87214SOL    HW163539  12.782   7.915   8.754
87214SOL    HW263540  12.896   7.824   8.794
87215SOL     OW63541  10.656  11.155   4.532
87215SOL    HW163542  10.734  11.111   4.567
87215SOL    HW263543  10.590  11.086   4.528
87216SOL     OW63544   5.622   3.204   9.847
87216SOL    HW163545   5.558   3.205   9.776
87216SOL    HW263546   5.657   3.115   9.847
87217SOL     OW63547   8.850  14.796  12.206
87217SOL    HW163548   8.827  14.730  12.271
87217SOL    HW263549   8.773  14.802  12.149
87218SOL     OW63550  10.394  10.046  12.165
87218SOL    HW163551  10.323  10.010  12.112
87218SOL    HW263552  10.387   9.999  12.249
87219SOL     OW63553   8.482  11.984   8.221
87219SOL    HW163554   8.531  11.920   8.169
87219SOL    HW263555   8.461  12.054   8.159
87220SOL     OW63556  13.453   8.990   7.749
87220SOL    HW163557  13.433   8.898   7.736
87220SOL    HW263558  13.429   9.007   7.840
87221SOL     OW63559  13.304   3.016   5.262
87221SOL    HW163560  13.359   3.088   5.231
87221SOL    HW263561  13.234   3.009   5.197
87222SOL     OW63562  12.840   0.132   3.187
87222SOL    HW163563  12.773   0.191   3.221
87222SOL    HW263564  12.914   0.188   3.166
87223SOL     OW63565   3.606   9.525  12.217
87223SOL    HW163566   3.653   9.568  12.289
87223SOL    HW263567   3.672   9.515  12.149
87224SOL     OW63568   1.972  12.186  12.147
87224SOL    HW163569   1.943  12.208  12.058
87224SOL    HW263570   1.893  12.190  12.200
87225SOL     OW63571  14.818  14.714   1.830
87225SOL    HW163572  14.839  14.664   1.751
87225SOL    HW263573  14.776  14.651   1.889
87226SOL     OW63574   9.647   2.570  13.733
87226SOL    HW163575   9.644   2.627  13.656
87226SOL    HW263576   9.683   2.625  13.802
87227SOL     OW63577  11.839   5.042   3.323
87227SOL    HW163578  11.861   5.130   3.354
87227SOL    HW263579  11.809   5.055   3.233
87228SOL     OW63580   8.113   3.157   2.148
87228SOL    HW163581   8.047   3.150   2.080
87228SOL    HW263582   8.071   3.207   2.218
87229SOL     OW63583   1.198   1.086  13.718
87229SOL    HW163584   1.224   1.166  13.763
87229SOL    HW263585   1.232   1.015  13.773
87230SOL     OW63586  11.018   7.007   8.824
87230SOL    HW163587  11.100   7.053   8.844
87230SOL    HW263588  11.031   6.972   8.736
87231SOL     OW63589  11.140   3.053  12.959
87231SOL    HW163590  11.135   3.095  13.045
87231SOL    HW263591  11.056   3.074  12.917
87232SOL     OW63592   9.531   8.570   3.515
87232SOL    HW163593   9.541   8.487   3.468
87232SOL    HW263594   9.478   8.624   3.457
87233SOL     OW63595  12.608   0.927  11.177
87233SOL    HW163596  12.699   0.901  11.189
87233SOL    HW263597  12.590   0.912  11.084
87234SOL     OW63598   4.699   3.627   8.446
87234SOL    HW163599   4.736   3.711   8.476
87234SOL    HW263600   4.741   3.612   8.362
87235SOL     OW63601  11.998   3.617  10.077
87235SOL    HW163602  12.092   3.602  10.084
87235SOL    HW263603  11.986   3.656   9.990
87236SOL     OW63604  10.589   6.249   3.718
87236SOL    HW163605  10.568   6.331   3.672
87236SOL    HW263606  10.557   6.263   3.807
87237SOL     OW63607   4.168   3.401  13.808
87237SOL    HW163608   4.188   3.368  13.896
87237SOL    HW263609   4.252   3.434  13.776
87238SOL     OW63610  10.369   1.047  11.046
87238SOL    HW163611  10.320   1.006  10.975
87238SOL    HW263612  10.403   0.974  11.097
87239SOL     OW63613   4.826   8.591  12.366
87239SOL    HW163614   4.908   8.546  12.345
87239SOL    HW263615   4.840   8.681  12.337
87240SOL     OW63616   7.646   6.097  12.336
87240SOL    HW163617   7.624   6.065  12.249
87240SOL    HW263618   7.562   6.124  12.374
87241SOL     OW63619   9.083   1.512   9.971
87241SOL    HW163620   9.101   1.440   9.910
87241SOL    HW263621   9.099   1.591   9.920
87242SOL     OW63622   2.328   2.339  14.831
87242SOL    HW163623   2.285   2.257  14.807
87242SOL    HW263624   2.277   2.373   0.035
87243SOL     OW63625  12.360  12.642  12.849
87243SOL    HW163626  12.286  12.618  12.794
87243SOL    HW263627  12.400  12.716  12.804
87244SOL     OW63628  13.473   6.483   2.811
87244SOL    HW163629  13.501   6.564   2.769
87244SOL    HW263630  13.393   6.459   2.765
87245SOL     OW63631  11.779   1.530   2.792
87245SOL    HW163632  11.872   1.505   2.788
87245SOL    HW263633  11.780   1.624   2.776
87246SOL     OW63634   9.086  12.100   4.000
87246SOL    HW163635   9.150  12.059   3.941
87246SOL    HW263636   9.015  12.037   4.006
87247SOL     OW63637   0.997   3.572   6.340
87247SOL    HW163638   1.091   3.577   6.358
87247SOL    HW263639   0.990   3.521   6.259
87248SOL     OW63640   0.616   3.751   2.956
87248SOL    HW163641   0.543   3.799   2.996
87248SOL    HW263642   0.574   3.677   2.911
87249SOL     OW63643  14.777   5.274   4.996
87249SOL    HW163644  14.812   5.363   5.005
87249SOL    HW263645  14.853   5.221   4.972
87250SOL     OW63646   5.028  12.535   5.526
87250SOL    HW163647   5.072  12.586   5.594
87250SOL    HW263648   5.094  12.524   5.458
87251SOL     OW63649   0.691   6.111  10.309
87251SOL    HW163650   0.683   6.200  10.276
87251SOL    HW263651   0.622   6.062  10.264
87252SOL     OW63652   0.550   7.815   2.803
87252SOL    HW163653   0.494   7.882   2.764
87252SOL    HW263654   0.622   7.863   2.842
87253SOL     OW63655   5.816   0.998   1.268
87253SOL    HW163656   5.825   0.912   1.228
87253SOL    HW263657   5.759   0.984   1.343
87254SOL     OW63658  11.564   3.575  11.087
87254SOL    HW163659  11.621   3.541  11.018
87254SOL    HW263660  11.566   3.670  11.074
87255SOL     OW63661   2.887   0.664  13.720
87255SOL    HW163662   2.897   0.749  13.764
87255SOL    HW263663   2.975   0.626  13.724
87256SOL     OW63664   2.218   2.014   0.617
87256SOL    HW163665   2.235   2.021   0.523
87256SOL    HW263666   2.257   2.093   0.654
87257SOL     OW63667   0.323   7.368   5.914
87257SOL    HW163668   0.256   7.390   5.849
87257SOL    HW263669   0.301   7.422   5.989
87258SOL     OW63670  11.463  12.741   6.961
87258SOL    HW163671  11.525  12.763   7.029
87258SOL    HW263672  11.459  12.645   6.961
87259SOL     OW63673   5.629  10.124   3.146
87259SOL    HW163674   5.582  10.041   3.138
87259SOL    HW263675   5.589  10.181   3.080
87260SOL     OW63676  12.289  14.083   0.348
87260SOL    HW163677  12.349  14.091   0.274
87260SOL    HW263678  12.215  14.139   0.325
87261SOL     OW63679   3.525  13.606   7.562
87261SOL    HW163680   3.435  13.586   7.586
87261SOL    HW263681   3.543  13.548   7.487
87262SOL     OW63682   7.781   7.770  10.386
87262SOL    HW163683   7.832   7.850  10.374
87262SOL    HW263684   7.754   7.745  10.298
87263SOL     OW63685   8.875   3.885   9.667
87263SOL    HW163686   8.939   3.814   9.675
87263SOL    HW263687   8.924   3.957   9.628
87264SOL     OW63688  10.049  10.151   2.461
87264SOL    HW163689   9.966  10.123   2.499
87264SOL    HW263690  10.079  10.221   2.519
87265SOL     OW63691  13.795   1.982   9.469
87265SOL    HW163692  13.794   1.977   9.373
87265SOL    HW263693  13.705   1.966   9.495
87266SOL     OW63694   8.535   2.393   5.995
87266SOL    HW163695   8.441   2.380   5.983
87266SOL    HW263696   8.543   2.425   6.085
87267SOL     OW63697   8.333   5.272   7.007
87267SOL    HW163698   8.302   5.191   6.966
87267SOL    HW263699   8.428   5.262   7.011
87268SOL     OW63700   8.860  11.576   5.508
87268SOL    HW163701   8.854  11.602   5.600
87268SOL    HW263702   8.778  11.531   5.490
87269SOL     OW63703   7.024   6.087  12.940
87269SOL    HW163704   7.001   6.177  12.961
87269SOL    HW263705   6.969   6.034  12.998
87270SOL     OW63706   0.048  13.348   2.711
87270SOL    HW163707   0.058  13.288   2.785
87270SOL    HW263708   0.137  13.374   2.688
87271SOL     OW63709   2.587   0.217   5.792
87271SOL    HW163710   2.552   0.304   5.814
87271SOL    HW263711   2.517   0.156   5.814
87272SOL     OW63712   5.123   4.668  11.843
87272SOL    HW163713   5.191   4.603  11.866
87272SOL    HW263714   5.045   4.637  11.888
87273SOL     OW63715   5.734   0.967  10.115
87273SOL    HW163716   5.690   0.966  10.200
87273SOL    HW263717   5.665   0.948  10.052
87274SOL     OW63718  10.491  10.684   5.807
87274SOL    HW163719  10.443  10.766   5.817
87274SOL    HW263720  10.428  10.625   5.766
87275SOL     OW63721   8.113  13.692   9.234
87275SOL    HW163722   8.031  13.740   9.241
87275SOL    HW263723   8.176  13.744   9.286
87276SOL     OW63724  10.114   3.717   5.295
87276SOL    HW163725  10.162   3.776   5.236
87276SOL    HW263726  10.082   3.647   5.238
87277SOL     OW63727  10.521   6.058  13.121
87277SOL    HW163728  10.434   6.086  13.150
87277SOL    HW263729  10.549   6.127  13.060
87278SOL     OW63730   0.211   6.330   7.242
87278SOL    HW163731   0.165   6.267   7.299
87278SOL    HW263732   0.146   6.398   7.226
87279SOL     OW63733   6.217   9.967   2.209
87279SOL    HW163734   6.124   9.962   2.187
87279SOL    HW263735   6.218   9.976   2.304
87280SOL     OW63736   8.267   0.833  13.933
87280SOL    HW163737   8.223   0.776  13.869
87280SOL    HW263738   8.321   0.891  13.881
87281SOL     OW63739   3.670   6.285   7.310
87281SOL    HW163740   3.673   6.335   7.229
87281SOL    HW263741   3.759   6.252   7.321
87282SOL     OW63742  14.665  13.941   5.243
87282SOL    HW163743  14.640  13.876   5.309
87282SOL    HW263744  14.747  13.978   5.276
87283SOL     OW63745   4.864   7.447   6.146
87283SOL    HW163746   4.774   7.416   6.154
87283SOL    HW263747   4.866   7.530   6.195
87284SOL     OW63748  12.447   4.675  12.743
87284SOL    HW163749  12.422   4.736  12.673
87284SOL    HW263750  12.367   4.665  12.795
87285SOL     OW63751   0.506   9.376  10.927
87285SOL    HW163752   0.513   9.392  11.021
87285SOL    HW263753   0.418   9.343  10.915
87286SOL     OW63754  10.745   9.063   8.708
87286SOL    HW163755  10.684   9.058   8.782
87286SOL    HW263756  10.778   8.974   8.698
87287SOL     OW63757   9.651   6.621  12.883
87287SOL    HW163758   9.607   6.538  12.865
87287SOL    HW263759   9.691   6.609  12.969
87288SOL     OW63760   2.157  13.439  11.188
87288SOL    HW163761   2.231  13.386  11.159
87288SOL    HW263762   2.120  13.475  11.108
87289SOL     OW63763   6.457   8.913   7.841
87289SOL    HW163764   6.525   8.865   7.793
87289SOL    HW263765   6.464   9.003   7.807
87290SOL     OW63766   5.586   3.737   6.780
87290SOL    HW163767   5.600   3.811   6.839
87290SOL    HW263768   5.591   3.660   6.837
87291SOL     OW63769   5.526   9.423  14.557
87291SOL    HW163770   5.521   9.494  14.493
87291SOL    HW263771   5.558   9.464  14.637
87292SOL     OW63772   2.028  10.305  14.722
87292SOL    HW163773   1.980  10.387  14.716
87292SOL    HW263774   1.994  10.264  14.802
87293SOL     OW63775   6.536   7.369   8.626
87293SOL    HW163776   6.623   7.369   8.665
87293SOL    HW263777   6.536   7.294   8.567
87294SOL     OW63778   7.256   8.613   6.307
87294SOL    HW163779   7.258   8.543   6.372
87294SOL    HW263780   7.338   8.660   6.320
87295SOL     OW63781   2.215  12.960  13.971
87295SOL    HW163782   2.245  12.870  13.959
87295SOL    HW263783   2.123  12.958  13.944
87296SOL     OW63784   4.551   3.511   2.978
87296SOL    HW163785   4.603   3.462   2.914
87296SOL    HW263786   4.591   3.597   2.981
87297SOL     OW63787   8.320   5.664  10.743
87297SOL    HW163788   8.415   5.667  10.752
87297SOL    HW263789   8.305   5.630  10.655
87298SOL     OW63790   7.867   1.030   2.808
87298SOL    HW163791   7.887   1.040   2.715
87298SOL    HW263792   7.776   1.060   2.817
87299SOL     OW63793   2.668  10.076   4.983
87299SOL    HW163794   2.647  10.169   4.986
87299SOL    HW263795   2.615  10.042   4.911
87300SOL     OW63796   6.232  13.368  11.270
87300SOL    HW163797   6.171  13.436  11.298
87300SOL    HW263798   6.279  13.408  11.196
87301SOL     OW63799  14.197   7.445   6.957
87301SOL    HW163800  14.129   7.468   7.020
87301SOL    HW263801  14.198   7.349   6.957
87302SOL     OW63802  13.369   1.972   2.309
87302SOL    HW163803  13.372   2.007   2.220
87302SOL    HW263804  13.443   1.912   2.314
87303SOL     OW63805   1.001   0.550   1.699
87303SOL    HW163806   1.009   0.645   1.702
87303SOL    HW263807   1.070   0.518   1.757
87304SOL     OW63808   1.652   3.262   7.772
87304SOL    HW163809   1.716   3.286   7.839
87304SOL    HW263810   1.568   3.264   7.817
87305SOL     OW63811   4.780  11.360   7.492
87305SOL    HW163812   4.721  11.313   7.433
87305SOL    HW263813   4.767  11.452   7.471
87306SOL     OW63814   7.465   1.877   9.174
87306SOL    HW163815   7.492   1.821   9.102
87306SOL    HW263816   7.522   1.953   9.168
87307SOL     OW63817   8.318   4.968  12.188
87307SOL    HW163818   8.394   4.977  12.246
87307SOL    HW263819   8.250   5.022  12.228
87308SOL     OW63820   4.540   2.840  13.973
87308SOL    HW163821   4.612   2.903  13.975
87308SOL    HW263822   4.526   2.817  14.065
87309SOL     OW63823  11.657   8.085   8.349
87309SOL    HW163824  11.581   8.143   8.348
87309SOL    HW263825  11.625   8.002   8.314
87310SOL     OW63826  10.922   4.216  10.370
87310SOL    HW163827  10.894   4.171  10.290
87310SOL    HW263828  10.963   4.296  10.339
87311SOL     OW63829   9.693   6.034   9.207
87311SOL    HW163830   9.693   6.030   9.302
87311SOL    HW263831   9.785   6.045   9.184
87312SOL     OW63832   6.209   7.633   5.603
87312SOL    HW163833   6.293   7.590   5.616
87312SOL    HW263834   6.180   7.604   5.516
87313SOL     OW63835   6.548   6.817   2.391
87313SOL    HW163836   6.615   6.750   2.399
87313SOL    HW263837   6.557   6.870   2.471
87314SOL     OW63838   6.211   7.156   4.208
87314SOL    HW163839   6.251   7.093   4.148
87314SOL    HW263840   6.134   7.188   4.161
87315SOL     OW63841   4.894   3.753  12.381
87315SOL    HW163842   4.956   3.683  12.363
87315SOL    HW263843   4.897   3.765  12.475
87316SOL     OW63844   0.857   1.682  14.347
87316SOL    HW163845   0.778   1.666  14.398
87316SOL    HW263846   0.859   1.777  14.335
87317SOL     OW63847  14.403   6.125   9.590
87317SOL    HW163848  14.408   6.211   9.548
87317SOL    HW263849  14.410   6.143   9.684
87318SOL     OW63850   4.781   1.832  12.745
87318SOL    HW163851   4.846   1.895  12.775
87318SOL    HW263852   4.744   1.795  12.825
87319SOL     OW63853  12.889   5.030   5.260
87319SOL    HW163854  12.901   5.043   5.354
87319SOL    HW263855  12.971   4.990   5.230
87320SOL     OW63856   6.343   6.819   8.001
87320SOL    HW163857   6.318   6.728   7.987
87320SOL    HW263858   6.261   6.867   7.998
87321SOL     OW63859   7.572  10.646  10.347
87321SOL    HW163860   7.485  10.647  10.308
87321SOL    HW263861   7.631  10.674  10.277
87322SOL     OW63862  11.456   4.825  13.938
87322SOL    HW163863  11.433   4.917  13.948
87322SOL    HW263864  11.508   4.821  13.858
87323SOL     OW63865  12.550   9.836   3.067
87323SOL    HW163866  12.565   9.748   3.035
87323SOL    HW263867  12.622   9.853   3.129
87324SOL     OW63868   6.109   4.084   5.048
87324SOL    HW163869   6.089   4.026   5.122
87324SOL    HW263870   6.195   4.122   5.071
87325SOL     OW63871   7.891  13.119   8.519
87325SOL    HW163872   7.918  13.042   8.469
87325SOL    HW263873   7.903  13.093   8.611
87326SOL     OW63874   3.884   7.112  12.404
87326SOL    HW163875   3.875   7.096  12.310
87326SOL    HW263876   3.836   7.193  12.419
87327SOL     OW63877   2.927   1.573  12.295
87327SOL    HW163878   2.883   1.598  12.214
87327SOL    HW263879   2.865   1.514  12.339
87328SOL     OW63880  13.124  12.997   4.086
87328SOL    HW163881  13.029  12.995   4.079
87328SOL    HW263882  13.149  12.907   4.103
87329SOL     OW63883  12.951   0.138   7.338
87329SOL    HW163884  13.022   0.116   7.399
87329SOL    HW263885  12.888   0.066   7.348
87330SOL     OW63886   1.372   3.598  13.358
87330SOL    HW163887   1.406   3.530  13.416
87330SOL    HW263888   1.278   3.598  13.374
87331SOL     OW63889   8.007   3.683  10.803
87331SOL    HW163890   8.094   3.721  10.790
87331SOL    HW263891   8.024   3.595  10.836
87332SOL     OW63892   3.658   1.403   1.905
87332SOL    HW163893   3.687   1.493   1.894
87332SOL    HW263894   3.582   1.408   1.963
87333SOL     OW63895  12.153  10.593   6.117
87333SOL    HW163896  12.162  10.508   6.075
87333SOL    HW263897  12.125  10.573   6.206
87334SOL     OW63898   6.768   1.263  13.814
87334SOL    HW163899   6.749   1.222  13.730
87334SOL    HW263900   6.850   1.311  13.799
87335SOL     OW63901   0.197   7.863  11.717
87335SOL    HW163902   0.290   7.845  11.703
87335SOL    HW263903   0.155   7.777  11.713
87336SOL     OW63904   2.515   9.793   1.775
87336SOL    HW163905   2.533   9.719   1.717
87336SOL    HW263906   2.512   9.754   1.863
87337SOL     OW63907   6.418  10.955   0.411
87337SOL    HW163908   6.362  11.003   0.472
87337SOL    HW263909   6.433  10.871   0.454
87338SOL     OW63910   3.527   8.532   7.772
87338SOL    HW163911   3.566   8.445   7.782
87338SOL    HW263912   3.575   8.587   7.834
87339SOL     OW63913   9.315  14.109   4.471
87339SOL    HW163914   9.352  14.034   4.424
87339SOL    HW263915   9.344  14.096   4.562
87340SOL     OW63916   2.846  12.472   2.041
87340SOL    HW163917   2.867  12.511   2.125
87340SOL    HW263918   2.875  12.536   1.976
87341SOL     OW63919  13.741  10.704   3.960
87341SOL    HW163920  13.808  10.706   3.892
87341SOL    HW263921  13.685  10.630   3.935
87342SOL     OW63922  11.372   6.702   0.319
87342SOL    HW163923  11.433   6.669   0.253
87342SOL    HW263924  11.288   6.710   0.273
87343SOL     OW63925   4.828  10.721  12.006
87343SOL    HW163926   4.753  10.664  11.991
87343SOL    HW263927   4.819  10.750  12.097
87344SOL     OW63928   1.074  13.428   0.228
87344SOL    HW163929   1.084  13.335   0.245
87344SOL    HW263930   0.982  13.446   0.242
87345SOL     OW63931   4.221  10.814  14.048
87345SOL    HW163932   4.159  10.820  14.121
87345SOL    HW263933   4.238  10.721  14.038
87346SOL     OW63934  10.928   2.866  11.397
87346SOL    HW163935  10.897   2.781  11.367
87346SOL    HW263936  10.984   2.898  11.327
87347SOL     OW63937   4.121   3.910   2.282
87347SOL    HW163938   4.030   3.910   2.313
87347SOL    HW263939   4.118   3.857   2.202
87348SOL     OW63940  10.694   9.413   4.289
87348SOL    HW163941  10.763   9.379   4.232
87348SOL    HW263942  10.715   9.506   4.298
87349SOL     OW63943   2.368   9.289  14.642
87349SOL    HW163944   2.293   9.246  14.603
87349SOL    HW263945   2.348   9.292  14.736
87350SOL     OW63946  11.260   4.835  14.341
87350SOL    HW163947  11.320   4.905  14.367
87350SOL    HW263948  11.318   4.761  14.322
87351SOL     OW63949   5.021   5.687   9.247
87351SOL    HW163950   4.929   5.686   9.220
87351SOL    HW263951   5.052   5.598   9.228
87352SOL     OW63952  14.578  11.444   4.535
87352SOL    HW163953  14.645  11.479   4.593
87352SOL    HW263954  14.573  11.506   4.462
87353SOL     OW63955   1.873  13.699   7.669
87353SOL    HW163956   1.932  13.773   7.660
87353SOL    HW263957   1.836  13.707   7.757
87354SOL     OW63958  14.572   0.015   0.898
87354SOL    HW163959  14.550   0.101   0.935
87354SOL    HW263960  14.488  14.840   0.891
87355SOL     OW63961   6.136   8.001   2.143
87355SOL    HW163962   6.050   8.012   2.184
87355SOL    HW263963   6.169   7.918   2.179
87356SOL     OW63964  13.495   0.871   6.680
87356SOL    HW163965  13.460   0.816   6.750
87356SOL    HW263966  13.522   0.952   6.725
87357SOL     OW63967   0.357   2.282  13.799
87357SOL    HW163968   0.365   2.238  13.883
87357SOL    HW263969   0.415   2.358  13.807
87358SOL     OW63970   5.459   8.744   0.937
87358SOL    HW163971   5.452   8.823   0.884
87358SOL    HW263972   5.515   8.769   1.010
87359SOL     OW63973   9.370  14.728   3.315
87359SOL    HW163974   9.458  14.742   3.350
87359SOL    HW263975   9.341  14.647   3.357
87360SOL     OW63976   1.873  10.552   5.004
87360SOL    HW163977   1.958  10.515   4.983
87360SOL    HW263978   1.892  10.624   5.063
87361SOL     OW63979   3.837   4.251  12.992
87361SOL    HW163980   3.855   4.157  12.990
87361SOL    HW263981   3.882   4.286  12.916
87362SOL     OW63982   5.710   4.333  14.754
87362SOL    HW163983   5.759   4.379  14.686
87362SOL    HW263984   5.717   4.391  14.830
87363SOL     OW63985   5.516  13.249   7.265
87363SOL    HW163986   5.467  13.281   7.190
87363SOL    HW263987   5.450  13.212   7.324
87364SOL     OW63988   9.898   3.623  10.199
87364SOL    HW163989   9.955   3.689  10.161
87364SOL    HW263990   9.810   3.659  10.190
87365SOL     OW63991   0.671  12.017   3.856
87365SOL    HW163992   0.591  12.011   3.907
87365SOL    HW263993   0.661  12.097   3.805
87366SOL     OW63994   1.790   1.414   1.099
87366SOL    HW163995   1.699   1.399   1.126
87366SOL    HW263996   1.803   1.353   1.027
87367SOL     OW63997  10.267   4.168   6.968
87367SOL    HW163998  10.243   4.125   7.050
87367SOL    HW263999  10.286   4.096   6.907
87368SOL     OW64000  10.152   1.763   6.083
87368SOL    HW164001  10.173   1.704   6.155
87368SOL    HW264002  10.090   1.825   6.119
87369SOL     OW64003  12.837   8.401  13.259
87369SOL    HW164004  12.810   8.390  13.350
87369SOL    HW264005  12.761   8.372  13.208
87370SOL     OW64006   5.603   1.032  12.979
87370SOL    HW164007   5.655   0.968  12.931
87370SOL    HW264008   5.529   1.050  12.922
87371SOL     OW64009   1.711  13.140  11.511
87371SOL    HW164010   1.682  13.052  11.534
87371SOL    HW264011   1.758  13.171  11.588
87372SOL     OW64012   0.060   6.032   8.057
87372SOL    HW164013   0.004   6.095   8.104
87372SOL    HW264014   0.142   6.031   8.107
87373SOL     OW64015   1.587  12.799  13.900
87373SOL    HW164016   1.599  12.732  13.832
87373SOL    HW264017   1.528  12.759  13.964
87374SOL     OW64018   4.369   3.548  13.037
87374SOL    HW164019   4.340   3.537  13.128
87374SOL    HW264020   4.410   3.635  13.036
87375SOL     OW64021   7.928   0.726   3.446
87375SOL    HW164022   7.984   0.679   3.507
87375SOL    HW264023   7.971   0.811   3.434
87376SOL     OW64024  12.344   1.617   0.102
87376SOL    HW164025  12.356   1.583   0.013
87376SOL    HW264026  12.413   1.682   0.112
87377SOL     OW64027   6.820  12.666   8.843
87377SOL    HW164028   6.841  12.718   8.766
87377SOL    HW264029   6.809  12.730   8.913
87378SOL     OW64030   1.736   1.627  12.651
87378SOL    HW164031   1.691   1.646  12.569
87378SOL    HW264032   1.674   1.654  12.719
87379SOL     OW64033   9.696   1.327  14.710
87379SOL    HW164034   9.646   1.409  14.705
87379SOL    HW264035   9.765   1.337  14.644
87380SOL     OW64036   2.496  10.051   2.664
87380SOL    HW164037   2.427  10.076   2.603
87380SOL    HW264038   2.526   9.965   2.633
87381SOL     OW64039   6.702  11.707   4.212
87381SOL    HW164040   6.722  11.673   4.299
87381SOL    HW264041   6.648  11.640   4.172
87382SOL     OW64042   5.625   9.349   6.137
87382SOL    HW164043   5.715   9.384   6.139
87382SOL    HW264044   5.630   9.267   6.186
87383SOL     OW64045  10.792   8.877  14.700
87383SOL    HW164046  10.862   8.832  14.748
87383SOL    HW264047  10.826   8.888  14.612
87384SOL     OW64048  12.976   8.775   6.635
87384SOL    HW164049  12.946   8.706   6.694
87384SOL    HW264050  13.044   8.821   6.684
87385SOL     OW64051  12.115   8.018   6.379
87385SOL    HW164052  12.149   7.994   6.294
87385SOL    HW264053  12.102   8.113   6.374
87386SOL     OW64054  13.692   5.053   9.057
87386SOL    HW164055  13.774   5.004   9.053
87386SOL    HW264056  13.647   5.033   8.975
87387SOL     OW64057   6.663   1.136  11.120
87387SOL    HW164058   6.692   1.098  11.203
87387SOL    HW264059   6.739   1.126  11.062
87388SOL     OW64060  14.146   0.510   4.917
87388SOL    HW164061  14.184   0.591   4.950
87388SOL    HW264062  14.092   0.537   4.842
87389SOL     OW64063   1.836  11.867  13.184
87389SOL    HW164064   1.900  11.837  13.119
87389SOL    HW264065   1.858  11.818  13.263
87390SOL     OW64066   9.374   5.079   0.254
87390SOL    HW164067   9.420   5.021   0.314
87390SOL    HW264068   9.442   5.115   0.197
87391SOL     OW64069   5.722   0.759   8.078
87391SOL    HW164070   5.690   0.713   8.156
87391SOL    HW264071   5.756   0.842   8.112
87392SOL     OW64072   3.527  12.736   9.810
87392SOL    HW164073   3.610  12.713   9.851
87392SOL    HW264074   3.503  12.658   9.759
87393SOL     OW64075   2.110   8.479   6.304
87393SOL    HW164076   2.169   8.431   6.246
87393SOL    HW264077   2.035   8.503   6.249
87394SOL     OW64078  14.041   7.929  11.300
87394SOL    HW164079  13.973   7.863  11.289
87394SOL    HW264080  14.046   7.972  11.215
87395SOL     OW64081   3.828  10.620  12.410
87395SOL    HW164082   3.796  10.607  12.499
87395SOL    HW264083   3.838  10.531  12.375
87396SOL     OW64084   0.257   0.724   1.289
87396SOL    HW164085   0.232   0.798   1.233
87396SOL    HW264086   0.339   0.751   1.330
87397SOL     OW64087   0.314  10.671   6.815
87397SOL    HW164088   0.357  10.757   6.823
87397SOL    HW264089   0.255  10.667   6.891
87398SOL     OW64090   5.326  12.449   9.287
87398SOL    HW164091   5.305  12.516   9.352
87398SOL    HW264092   5.403  12.405   9.323
87399SOL     OW64093   4.220  12.713   7.792
87399SOL    HW164094   4.151  12.732   7.856
87399SOL    HW264095   4.288  12.777   7.811
87400SOL     OW64096   1.682   5.841   1.328
87400SOL    HW164097   1.636   5.798   1.400
87400SOL    HW264098   1.755   5.887   1.369
87401SOL     OW64099  11.859   1.564   8.313
87401SOL    HW164100  11.828   1.485   8.269
87401SOL    HW264101  11.781   1.601   8.353
87402SOL     OW64102   2.181   9.838   2.324
87402SOL    HW164103   2.167   9.798   2.410
87402SOL    HW264104   2.256   9.896   2.337
87403SOL     OW64105   2.100  13.346   3.204
87403SOL    HW164106   2.094  13.260   3.162
87403SOL    HW264107   2.015  13.386   3.190
87404SOL     OW64108   6.384   5.492  11.813
87404SOL    HW164109   6.444   5.510  11.885
87404SOL    HW264110   6.378   5.576  11.766
87405SOL     OW64111   9.603   1.787   2.338
87405SOL    HW164112   9.602   1.726   2.265
87405SOL    HW264113   9.635   1.736   2.412
87406SOL     OW64114   0.788   7.932  10.861
87406SOL    HW164115   0.736   8.006  10.831
87406SOL    HW264116   0.838   7.904  10.784
87407SOL     OW64117  12.925   9.718   9.913
87407SOL    HW164118  12.930   9.721   9.818
87407SOL    HW264119  13.016   9.706   9.942
87408SOL     OW64120   7.618   6.363   9.506
87408SOL    HW164121   7.654   6.395   9.423
87408SOL    HW264122   7.646   6.428   9.570
87409SOL     OW64123   9.967  14.694   9.258
87409SOL    HW164124   9.995  14.627   9.197
87409SOL    HW264125  10.018  14.677   9.338
87410SOL     OW64126   8.024   4.355   4.856
87410SOL    HW164127   8.101   4.399   4.821
87410SOL    HW264128   7.952   4.387   4.801
87411SOL     OW64129   6.437   3.474   6.064
87411SOL    HW164130   6.515   3.523   6.090
87411SOL    HW264131   6.455   3.446   5.974
87412SOL     OW64132  12.025  10.299  12.617
87412SOL    HW164133  12.116  10.326  12.607
87412SOL    HW264134  11.996  10.278  12.528
87413SOL     OW64135   4.115  12.426   3.398
87413SOL    HW164136   4.073  12.419   3.312
87413SOL    HW264137   4.150  12.338   3.415
87414SOL     OW64138  13.547   4.176   3.650
87414SOL    HW164139  13.610   4.105   3.662
87414SOL    HW264140  13.498   4.179   3.733
87415SOL     OW64141   0.478   5.424   0.371
87415SOL    HW164142   0.388   5.457   0.371
87415SOL    HW264143   0.531   5.503   0.380
87416SOL     OW64144   5.132   0.815   7.836
87416SOL    HW164145   5.153   0.723   7.849
87416SOL    HW264146   5.185   0.861   7.901
87417SOL     OW64147   0.647   1.300   2.516
87417SOL    HW164148   0.598   1.221   2.493
87417SOL    HW264149   0.709   1.312   2.444
87418SOL     OW64150  13.425   3.398   8.944
87418SOL    HW164151  13.466   3.422   9.027
87418SOL    HW264152  13.402   3.306   8.954
87419SOL     OW64153  14.561  13.795   5.421
87419SOL    HW164154  14.610  13.783   5.503
87419SOL    HW264155  14.469  13.792   5.448
87420SOL     OW64156  14.704   4.195  10.557
87420SOL    HW164157  14.631   4.135  10.543
87420SOL    HW264158  14.695   4.223  10.648
87421SOL     OW64159  11.415  10.510  12.108
87421SOL    HW164160  11.438  10.527  12.199
87421SOL    HW264161  11.422  10.595  12.065
87422SOL     OW64162  11.047  14.204  13.875
87422SOL    HW164163  11.016  14.273  13.934
87422SOL    HW264164  11.136  14.232  13.851
87423SOL     OW64165   4.668   7.795   3.305
87423SOL    HW164166   4.707   7.831   3.385
87423SOL    HW264167   4.682   7.701   3.311
87424SOL     OW64168   0.621   1.662   7.290
87424SOL    HW164169   0.674   1.740   7.304
87424SOL    HW264170   0.599   1.665   7.196
87425SOL     OW64171  11.327   1.831   3.153
87425SOL    HW164172  11.314   1.826   3.058
87425SOL    HW264173  11.388   1.760   3.172
87426SOL     OW64174   5.100   0.562  12.357
87426SOL    HW164175   5.106   0.632  12.292
87426SOL    HW264176   5.068   0.605  12.436
87427SOL     OW64177   8.488   8.473  12.334
87427SOL    HW164178   8.491   8.400  12.272
87427SOL    HW264179   8.514   8.435  12.418
87428SOL     OW64180   8.978   0.170   0.688
87428SOL    HW164181   8.900   0.116   0.676
87428SOL    HW264182   8.947   0.260   0.679
87429SOL     OW64183   1.197  13.170   2.206
87429SOL    HW164184   1.106  13.192   2.227
87429SOL    HW264185   1.246  13.248   2.230
87430SOL     OW64186  11.383  11.304   3.521
87430SOL    HW164187  11.403  11.211   3.521
87430SOL    HW264188  11.436  11.340   3.450
87431SOL     OW64189   8.193   6.915   1.983
87431SOL    HW164190   8.214   6.998   2.027
87431SOL    HW264191   8.100   6.922   1.961
87432SOL     OW64192  12.708   1.558   4.026
87432SOL    HW164193  12.654   1.484   3.999
87432SOL    HW264194  12.721   1.609   3.946
87433SOL     OW64195   7.562   4.822  13.512
87433SOL    HW164196   7.580   4.738  13.555
87433SOL    HW264197   7.648   4.863  13.502
87434SOL     OW64198   4.237   3.930   5.475
87434SOL    HW164199   4.326   3.945   5.443
87434SOL    HW264200   4.198   3.873   5.409
87435SOL     OW64201  12.745   0.676   8.927
87435SOL    HW164202  12.788   0.722   8.855
87435SOL    HW264203  12.693   0.608   8.884
87436SOL     OW64204  12.045   7.410  11.936
87436SOL    HW164205  12.054   7.505  11.940
87436SOL    HW264206  12.124   7.381  11.890
87437SOL     OW64207  14.679   3.095   6.733
87437SOL    HW164208  14.639   3.008   6.743
87437SOL    HW264209  14.604   3.155   6.729
87438SOL     OW64210   3.485   9.954   2.892
87438SOL    HW164211   3.498  10.002   2.810
87438SOL    HW264212   3.389   9.950   2.901
87439SOL     OW64213   5.790  13.055   0.159
87439SOL    HW164214   5.875  13.098   0.165
87439SOL    HW264215   5.775  13.047   0.065
87440SOL     OW64216   8.289  13.341   9.151
87440SOL    HW164217   8.358  13.343   9.084
87440SOL    HW264218   8.214  13.300   9.107
87441SOL     OW64219   8.332   0.937   2.090
87441SOL    HW164220   8.425   0.948   2.070
87441SOL    HW264221   8.322   0.976   2.177
87442SOL     OW64222   0.460   6.943  14.605
87442SOL    HW164223   0.555   6.946  14.614
87442SOL    HW264224   0.430   6.895  14.682
87443SOL     OW64225  12.607  10.552   0.962
87443SOL    HW164226  12.574  10.499   1.034
87443SOL    HW264227  12.636  10.634   1.003
87444SOL     OW64228   8.174   9.735   6.388
87444SOL    HW164229   8.166   9.640   6.384
87444SOL    HW264230   8.248   9.755   6.331
87445SOL     OW64231   3.186  11.329  14.663
87445SOL    HW164232   3.209  11.298  14.575
87445SOL    HW264233   3.179  11.424  14.653
87446SOL     OW64234   1.127   1.858  12.001
87446SOL    HW164235   1.117   1.817  11.915
87446SOL    HW264236   1.147   1.786  12.061
87447SOL     OW64237   5.539   8.222  10.074
87447SOL    HW164238   5.560   8.315  10.072
87447SOL    HW264239   5.448   8.217  10.044
87448SOL     OW64240   0.737   1.765  12.569
87448SOL    HW164241   0.673   1.714  12.520
87448SOL    HW264242   0.744   1.721  12.653
87449SOL     OW64243  14.176   8.693  14.363
87449SOL    HW164244  14.255   8.739  14.392
87449SOL    HW264245  14.208   8.629  14.299
87450SOL     OW64246  10.486   7.902   9.357
87450SOL    HW164247  10.500   7.956   9.279
87450SOL    HW264248  10.562   7.920   9.412
87451SOL     OW64249  12.190   6.353   5.531
87451SOL    HW164250  12.110   6.308   5.505
87451SOL    HW264251  12.260   6.297   5.500
87452SOL     OW64252   7.712   7.445   3.649
87452SOL    HW164253   7.625   7.412   3.671
87452SOL    HW264254   7.754   7.463   3.733
87453SOL     OW64255   3.551   9.070   0.836
87453SOL    HW164256   3.637   9.061   0.796
87453SOL    HW264257   3.569   9.099   0.925
87454SOL     OW64258  14.273   1.411   4.913
87454SOL    HW164259  14.326   1.450   4.983
87454SOL    HW264260  14.332   1.347   4.872
87455SOL     OW64261   5.169  10.955  12.438
87455SOL    HW164262   5.188  11.048  12.426
87455SOL    HW264263   5.230  10.926  12.505
87456SOL     OW64264   9.609   0.093   3.445
87456SOL    HW164265   9.598   0.082   3.540
87456SOL    HW264266   9.677   0.029   3.422
87457SOL     OW64267   4.606  14.834   5.226
87457SOL    HW164268   4.574   0.052   5.249
87457SOL    HW264269   4.676  14.849   5.163
87458SOL     OW64270   7.772  11.053   0.883
87458SOL    HW164271   7.859  11.035   0.848
87458SOL    HW264272   7.775  11.019   0.973
87459SOL     OW64273  11.065   7.617   5.961
87459SOL    HW164274  11.005   7.665   6.018
87459SOL    HW264275  11.008   7.580   5.893
87460SOL     OW64276  13.311   7.218   4.660
87460SOL    HW164277  13.397   7.177   4.660
87460SOL    HW264278  13.327   7.310   4.639
87461SOL     OW64279   5.792  10.074   4.839
87461SOL    HW164280   5.838   9.998   4.805
87461SOL    HW264281   5.729  10.039   4.902
87462SOL     OW64282   4.179   4.632  14.437
87462SOL    HW164283   4.201   4.539  14.431
87462SOL    HW264284   4.241   4.675  14.379
87463SOL     OW64285  10.889   0.248   0.349
87463SOL    HW164286  10.891   0.329   0.299
87463SOL    HW264287  10.860   0.274   0.436
87464SOL     OW64288   5.725   8.009  14.339
87464SOL    HW164289   5.634   7.994  14.364
87464SOL    HW264290   5.721   8.038  14.248
87465SOL     OW64291  13.101  14.137  14.229
87465SOL    HW164292  13.028  14.088  14.268
87465SOL    HW264293  13.083  14.228  14.252
87466SOL     OW64294   1.099   4.702  13.502
87466SOL    HW164295   1.057   4.760  13.437
87466SOL    HW264296   1.192   4.720  13.493
87467SOL     OW64297   0.611   4.080   1.216
87467SOL    HW164298   0.526   4.122   1.228
87467SOL    HW264299   0.594   3.987   1.230
87468SOL     OW64300   3.920   1.593   2.618
87468SOL    HW164301   3.880   1.677   2.642
87468SOL    HW264302   4.001   1.618   2.573
87469SOL     OW64303   2.034   0.715  13.634
87469SOL    HW164304   2.004   0.800  13.666
87469SOL    HW264305   2.096   0.685  13.701
87470SOL     OW64306   7.722  13.676   3.245
87470SOL    HW164307   7.710  13.658   3.338
87470SOL    HW264308   7.645  13.728   3.221
87471SOL     OW64309   4.742  10.333  13.405
87471SOL    HW164310   4.680  10.325  13.477
87471SOL    HW264311   4.690  10.315  13.327
87472SOL     OW64312  10.370   5.750  10.536
87472SOL    HW164313  10.302   5.799  10.490
87472SOL    HW264314  10.324   5.707  10.609
87473SOL     OW64315   7.780   0.373  13.876
87473SOL    HW164316   7.767   0.316  13.952
87473SOL    HW264317   7.701   0.427  13.873
87474SOL     OW64318   5.903   7.608   9.968
87474SOL    HW164319   5.912   7.591   9.874
87474SOL    HW264320   5.848   7.537  10.000
87475SOL     OW64321  12.350   2.976   1.921
87475SOL    HW164322  12.289   2.915   1.879
87475SOL    HW264323  12.346   2.954   2.014
87476SOL     OW64324  11.994  10.668   1.315
87476SOL    HW164325  11.983  10.751   1.268
87476SOL    HW264326  12.063  10.686   1.379
87477SOL     OW64327  10.752  13.440   5.760
87477SOL    HW164328  10.782  13.417   5.672
87477SOL    HW264329  10.707  13.361   5.791
87478SOL     OW64330  14.135  13.897   9.228
87478SOL    HW164331  14.122  13.892   9.322
87478SOL    HW264332  14.172  13.984   9.213
87479SOL     OW64333  10.427  10.844   6.922
87479SOL    HW164334  10.414  10.753   6.951
87479SOL    HW264335  10.412  10.896   7.001
87480SOL     OW64336   8.260   3.787   9.244
87480SOL    HW164337   8.354   3.770   9.240
87480SOL    HW264338   8.251   3.866   9.297
87481SOL     OW64339   2.739   2.872   8.750
87481SOL    HW164340   2.723   2.862   8.844
87481SOL    HW264341   2.740   2.782   8.717
87482SOL     OW64342   4.330  14.243  12.163
87482SOL    HW164343   4.354  14.252  12.071
87482SOL    HW264344   4.235  14.246  12.164
87483SOL     OW64345   7.141   0.364   7.953
87483SOL    HW164346   7.164   0.298   8.018
87483SOL    HW264347   7.045   0.361   7.949
87484SOL     OW64348   4.790   7.911   4.203
87484SOL    HW164349   4.699   7.890   4.184
87484SOL    HW264350   4.829   7.827   4.229
87485SOL     OW64351   1.673  14.084   1.429
87485SOL    HW164352   1.765  14.089   1.456
87485SOL    HW264353   1.648  14.175   1.413
87486SOL     OW64354   6.143   4.439   0.820
87486SOL    HW164355   6.085   4.511   0.795
87486SOL    HW264356   6.143   4.441   0.916
87487SOL     OW64357   3.933  14.225  13.243
87487SOL    HW164358   4.026  14.226  13.217
87487SOL    HW264359   3.898  14.305  13.205
87488SOL     OW64360   3.729   6.501   1.399
87488SOL    HW164361   3.774   6.573   1.443
87488SOL    HW264362   3.732   6.524   1.306
87489SOL     OW64363   5.960   8.791   5.254
87489SOL    HW164364   5.900   8.834   5.316
87489SOL    HW264365   5.930   8.820   5.168
87490SOL     OW64366  10.097   5.397   8.085
87490SOL    HW164367  10.021   5.359   8.129
87490SOL    HW264368  10.068   5.413   7.995
87491SOL     OW64369   0.182  13.810  13.715
87491SOL    HW164370   0.132  13.736  13.749
87491SOL    HW264371   0.204  13.785  13.625
87492SOL     OW64372   4.043   9.564   6.181
87492SOL    HW164373   3.955   9.594   6.205
87492SOL    HW264374   4.030   9.473   6.152
87493SOL     OW64375   6.809   0.832   8.234
87493SOL    HW164376   6.745   0.836   8.305
87493SOL    HW264377   6.860   0.912   8.242
87494SOL     OW64378   0.687  12.588   2.090
87494SOL    HW164379   0.689  12.682   2.073
87494SOL    HW264380   0.603  12.560   2.053
87495SOL     OW64381  13.905  13.190  10.944
87495SOL    HW164382  13.887  13.220  10.855
87495SOL    HW264383  13.940  13.101  10.933
87496SOL     OW64384  10.028  12.344   9.377
87496SOL    HW164385  10.077  12.371   9.455
87496SOL    HW264386  10.092  12.295   9.325
87497SOL     OW64387  13.235   7.142   8.371
87497SOL    HW164388  13.302   7.196   8.414
87497SOL    HW264389  13.168   7.130   8.438
87498SOL     OW64390   7.793   7.063   9.051
87498SOL    HW164391   7.769   7.039   9.140
87498SOL    HW264392   7.710   7.068   9.004
87499SOL     OW64393   2.503  12.622   7.239
87499SOL    HW164394   2.462  12.647   7.156
87499SOL    HW264395   2.468  12.535   7.257
87500SOL     OW64396   0.755  12.973   3.090
87500SOL    HW164397   0.795  12.891   3.118
87500SOL    HW264398   0.662  12.952   3.080
87501SOL     OW64399  11.349   0.221   9.461
87501SOL    HW164400  11.404   0.166   9.517
87501SOL    HW264401  11.371   0.311   9.487
87502SOL     OW64402   3.482   0.755  14.275
87502SOL    HW164403   3.554   0.745  14.213
87502SOL    HW264404   3.475   0.849  14.289
87503SOL     OW64405   6.465  14.090   6.076
87503SOL    HW164406   6.445  14.141   6.155
87503SOL    HW264407   6.524  14.147   6.026
87504SOL     OW64408   0.930   9.823   9.292
87504SOL    HW164409   0.921   9.840   9.198
87504SOL    HW264410   0.841   9.801   9.321
87505SOL     OW64411   3.955  11.869   3.914
87505SOL    HW164412   3.886  11.928   3.946
87505SOL    HW264413   3.915  11.782   3.918
87506SOL     OW64414  12.650   9.328  11.291
87506SOL    HW164415  12.636   9.252  11.235
87506SOL    HW264416  12.702   9.295  11.364
87507SOL     OW64417   7.861   3.966   8.982
87507SOL    HW164418   7.944   3.968   9.029
87507SOL    HW264419   7.848   3.874   8.959
87508SOL     OW64420   3.600   5.331  11.036
87508SOL    HW164421   3.621   5.300  10.948
87508SOL    HW264422   3.638   5.265  11.094
87509SOL     OW64423  13.516   2.712   7.544
87509SOL    HW164424  13.577   2.776   7.580
87509SOL    HW264425  13.431   2.738   7.580
87510SOL     OW64426  11.410   1.791   7.215
87510SOL    HW164427  11.335   1.814   7.269
87510SOL    HW264428  11.428   1.700   7.235
87511SOL     OW64429   0.808   8.169   6.855
87511SOL    HW164430   0.816   8.133   6.944
87511SOL    HW264431   0.714   8.179   6.841
87512SOL     OW64432   5.635   3.088   6.471
87512SOL    HW164433   5.639   3.034   6.391
87512SOL    HW264434   5.716   3.139   6.469
87513SOL     OW64435   6.834   4.074   9.649
87513SOL    HW164436   6.864   3.987   9.624
87513SOL    HW264437   6.748   4.059   9.688
87514SOL     OW64438  11.967   7.130   2.832
87514SOL    HW164439  12.031   7.079   2.783
87514SOL    HW264440  11.973   7.218   2.796
87515SOL     OW64441   2.612   8.686  10.608
87515SOL    HW164442   2.703   8.702  10.581
87515SOL    HW264443   2.582   8.770  10.643
87516SOL     OW64444   1.012   6.211  10.944
87516SOL    HW164445   1.044   6.131  10.986
87516SOL    HW264446   1.086   6.242  10.893
87517SOL     OW64447   1.559  11.346   5.690
87517SOL    HW164448   1.498  11.323   5.620
87517SOL    HW264449   1.644  11.316   5.658
87518SOL     OW64450  11.226  11.665  13.812
87518SOL    HW164451  11.175  11.638  13.888
87518SOL    HW264452  11.316  11.674  13.844
87519SOL     OW64453   7.348  10.768   1.084
87519SOL    HW164454   7.433  10.803   1.056
87519SOL    HW264455   7.287  10.841   1.072
87520SOL     OW64456   8.634   5.438   5.870
87520SOL    HW164457   8.715   5.410   5.912
87520SOL    HW264458   8.577   5.361   5.871
87521SOL     OW64459   2.323   6.523   7.660
87521SOL    HW164460   2.274   6.587   7.608
87521SOL    HW264461   2.300   6.438   7.621
87522SOL     OW64462   6.780  10.134  13.829
87522SOL    HW164463   6.743  10.110  13.744
87522SOL    HW264464   6.769  10.055  13.883
87523SOL     OW64465  14.141   5.093   4.690
87523SOL    HW164466  14.226   5.054   4.710
87523SOL    HW264467  14.112   5.131   4.774
87524SOL     OW64468   8.790   6.667   7.310
87524SOL    HW164469   8.820   6.679   7.401
87524SOL    HW264470   8.747   6.749   7.288
87525SOL     OW64471   3.573   6.069   4.036
87525SOL    HW164472   3.551   6.151   4.081
87525SOL    HW264473   3.514   6.069   3.960
87526SOL     OW64474   9.391  14.179   2.021
87526SOL    HW164475   9.323  14.247   2.013
87526SOL    HW264476   9.454  14.200   1.952
87527SOL     OW64477   7.038   0.839   4.168
87527SOL    HW164478   6.978   0.908   4.139
87527SOL    HW264479   7.053   0.786   4.090
87528SOL     OW64480   3.276   2.536  14.477
87528SOL    HW164481   3.201   2.483  14.449
87528SOL    HW264482   3.270   2.616  14.424
87529SOL     OW64483   2.789   4.882   4.064
87529SOL    HW164484   2.781   4.967   4.021
87529SOL    HW264485   2.883   4.873   4.082
87530SOL     OW64486   4.473   2.612   8.674
87530SOL    HW164487   4.439   2.678   8.613
87530SOL    HW264488   4.534   2.661   8.730
87531SOL     OW64489   7.077   5.794   0.019
87531SOL    HW164490   7.067   5.752   0.104
87531SOL    HW264491   6.994   5.839   0.004
87532SOL     OW64492   4.545  12.938  10.999
87532SOL    HW164493   4.512  12.967  10.914
87532SOL    HW264494   4.503  12.853  11.013
87533SOL     OW64495   8.960  10.054  11.706
87533SOL    HW164496   8.996  10.062  11.618
87533SOL    HW264497   8.995   9.971  11.738
87534SOL     OW64498   8.844  14.716   1.440
87534SOL    HW164499   8.907  14.787   1.450
87534SOL    HW264500   8.892  14.637   1.464
87535SOL     OW64501   4.953   3.742   1.990
87535SOL    HW164502   4.945   3.835   2.010
87535SOL    HW264503   4.974   3.739   1.896
87536SOL     OW64504  13.915   9.680  10.096
87536SOL    HW164505  13.953   9.598  10.065
87536SOL    HW264506  13.879   9.720  10.017
87537SOL     OW64507  12.651  11.223   2.428
87537SOL    HW164508  12.654  11.127   2.426
87537SOL    HW264509  12.605  11.244   2.509
87538SOL     OW64510   4.063   6.682  13.415
87538SOL    HW164511   4.063   6.699  13.509
87538SOL    HW264512   4.101   6.760  13.376
87539SOL     OW64513   1.604   5.069  11.479
87539SOL    HW164514   1.527   5.018  11.452
87539SOL    HW264515   1.568   5.154  11.504
87540SOL     OW64516  13.764   9.593   7.267
87540SOL    HW164517  13.789   9.683   7.249
87540SOL    HW264518  13.689   9.600   7.326
87541SOL     OW64519   3.655   3.375   5.044
87541SOL    HW164520   3.567   3.370   5.006
87541SOL    HW264521   3.645   3.427   5.123
87542SOL     OW64522   8.518   7.184   3.280
87542SOL    HW164523   8.499   7.256   3.340
87542SOL    HW264524   8.581   7.220   3.218
87543SOL     OW64525   9.126  13.464  10.575
87543SOL    HW164526   9.204  13.518  10.591
87543SOL    HW264527   9.160  13.375  10.572
87544SOL     OW64528   7.225   1.130  11.570
87544SOL    HW164529   7.149   1.188  11.569
87544SOL    HW264530   7.234   1.103  11.662
87545SOL     OW64531  10.972  13.211   4.461
87545SOL    HW164532  11.015  13.250   4.385
87545SOL    HW264533  11.009  13.123   4.467
87546SOL     OW64534   6.554   5.097   2.337
87546SOL    HW164535   6.580   5.065   2.251
87546SOL    HW264536   6.636   5.105   2.386
87547SOL     OW64537   3.320   5.110   8.476
87547SOL    HW164538   3.264   5.101   8.399
87547SOL    HW264539   3.397   5.058   8.456
87548SOL     OW64540   9.290   8.640   6.967
87548SOL    HW164541   9.222   8.582   6.933
87548SOL    HW264542   9.242   8.709   7.013
87549SOL     OW64543  12.359   1.977   7.422
87549SOL    HW164544  12.445   2.016   7.438
87549SOL    HW264545  12.363   1.946   7.331
87550SOL     OW64546  12.839  10.420  14.080
87550SOL    HW164547  12.809  10.480  14.148
87550SOL    HW264548  12.934  10.432  14.077
87551SOL     OW64549   1.955  12.976   6.953
87551SOL    HW164550   1.944  13.046   7.017
87551SOL    HW264551   2.047  12.981   6.926
87552SOL     OW64552   4.546  11.865   4.952
87552SOL    HW164553   4.560  11.862   5.047
87552SOL    HW264554   4.581  11.950   4.925
87553SOL     OW64555   0.800   7.246  12.178
87553SOL    HW164556   0.872   7.247  12.240
87553SOL    HW264557   0.769   7.337  12.176
87554SOL     OW64558  10.795  12.847   7.739
87554SOL    HW164559  10.841  12.763   7.742
87554SOL    HW264560  10.858  12.908   7.700
87555SOL     OW64561   6.662  12.041   9.630
87555SOL    HW164562   6.739  12.084   9.593
87555SOL    HW264563   6.665  11.952   9.596
87556SOL     OW64564  10.029   7.997   6.892
87556SOL    HW164565  10.013   8.088   6.916
87556SOL    HW264566   9.955   7.973   6.836
87557SOL     OW64567   5.899   9.145  13.657
87557SOL    HW164568   5.907   9.154  13.562
87557SOL    HW264569   5.988   9.157  13.689
87558SOL     OW64570   4.822  13.565   0.612
87558SOL    HW164571   4.766  13.489   0.597
87558SOL    HW264572   4.891  13.533   0.671
87559SOL     OW64573  10.065   8.492   5.306
87559SOL    HW164574  10.149   8.451   5.329
87559SOL    HW264575  10.089   8.578   5.273
87560SOL     OW64576   4.662  11.132   3.702
87560SOL    HW164577   4.589  11.176   3.658
87560SOL    HW264578   4.733  11.197   3.700
87561SOL     OW64579  14.046   3.451   0.480
87561SOL    HW164580  13.969   3.507   0.479
87561SOL    HW264581  14.032   3.391   0.553
87562SOL     OW64582   1.249   0.651  10.333
87562SOL    HW164583   1.285   0.566  10.360
87562SOL    HW264584   1.154   0.640  10.338
87563SOL     OW64585   3.884   6.490   7.581
87563SOL    HW164586   3.934   6.414   7.553
87563SOL    HW264587   3.935   6.526   7.654
87564SOL     OW64588  14.782   9.149   9.204
87564SOL    HW164589  14.777   9.143   9.108
87564SOL    HW264590  14.696   9.119   9.234
87565SOL     OW64591   0.072   8.145  12.085
87565SOL    HW164592   0.162   8.125  12.057
87565SOL    HW264593   0.075   8.238  12.109
87566SOL     OW64594   5.019   6.312   6.261
87566SOL    HW164595   5.112   6.300   6.279
87566SOL    HW264596   4.990   6.377   6.325
87567SOL     OW64597   4.091   5.857  10.638
87567SOL    HW164598   4.176   5.822  10.666
87567SOL    HW264599   4.076   5.817  10.553
87568SOL     OW64600   5.182  11.609   4.897
87568SOL    HW164601   5.214  11.699   4.892
87568SOL    HW264602   5.120  11.609   4.970
87569SOL     OW64603   8.006  10.944  13.440
87569SOL    HW164604   8.067  10.881  13.402
87569SOL    HW264605   8.060  11.020  13.463
87570SOL     OW64606   5.762   7.561   3.840
87570SOL    HW164607   5.835   7.620   3.821
87570SOL    HW264608   5.684   7.616   3.831
87571SOL     OW64609   2.223  11.677  12.232
87571SOL    HW164610   2.237  11.716  12.319
87571SOL    HW264611   2.194  11.750  12.177
87572SOL     OW64612   4.016   1.439   2.008
87572SOL    HW164613   4.057   1.395   2.083
87572SOL    HW264614   3.931   1.395   1.998
87573SOL     OW64615   8.078   9.250   8.677
87573SOL    HW164616   7.985   9.229   8.685
87573SOL    HW264617   8.085   9.292   8.592
87574SOL     OW64618   3.446  13.745  12.476
87574SOL    HW164619   3.503  13.699  12.537
87574SOL    HW264620   3.506  13.794  12.419
87575SOL     OW64621   0.719   6.190   4.656
87575SOL    HW164622   0.650   6.176   4.592
87575SOL    HW264623   0.749   6.280   4.639
87576SOL     OW64624  13.607   7.353  10.450
87576SOL    HW164625  13.564   7.337  10.534
87576SOL    HW264626  13.538   7.387  10.393
87577SOL     OW64627   4.581   0.779   3.376
87577SOL    HW164628   4.502   0.821   3.342
87577SOL    HW264629   4.604   0.831   3.453
87578SOL     OW64630  12.253   2.922   3.914
87578SOL    HW164631  12.173   2.973   3.924
87578SOL    HW264632  12.321   2.976   3.955
87579SOL     OW64633   3.527  10.910   5.662
87579SOL    HW164634   3.481  10.958   5.731
87579SOL    HW264635   3.457  10.874   5.608
87580SOL     OW64636   6.142   6.005   9.747
87580SOL    HW164637   6.082   6.075   9.774
87580SOL    HW264638   6.218   6.017   9.804
87581SOL     OW64639   8.607   3.206  12.116
87581SOL    HW164640   8.604   3.128  12.060
87581SOL    HW264641   8.616   3.172  12.205
87582SOL     OW64642   8.432   5.792   6.368
87582SOL    HW164643   8.409   5.701   6.350
87582SOL    HW264644   8.352   5.830   6.405
87583SOL     OW64645   4.811  10.580   9.861
87583SOL    HW164646   4.895  10.560   9.903
87583SOL    HW264647   4.777  10.495   9.833
87584SOL     OW64648  13.796  14.581  13.783
87584SOL    HW164649  13.878  14.539  13.810
87584SOL    HW264650  13.782  14.650  13.848
87585SOL     OW64651  12.797  11.857   3.349
87585SOL    HW164652  12.733  11.924   3.373
87585SOL    HW264653  12.765  11.776   3.388
87586SOL     OW64654  13.639   4.696   3.198
87586SOL    HW164655  13.637   4.768   3.135
87586SOL    HW264656  13.555   4.703   3.244
87587SOL     OW64657   4.618   8.095   5.224
87587SOL    HW164658   4.532   8.057   5.205
87587SOL    HW264659   4.609   8.133   5.311
87588SOL     OW64660  14.236   5.257   1.463
87588SOL    HW164661  14.268   5.251   1.553
87588SOL    HW264662  14.278   5.335   1.428
87589SOL     OW64663   9.033   6.209   6.572
87589SOL    HW164664   9.104   6.265   6.600
87589SOL    HW264665   9.070   6.156   6.501
87590SOL     OW64666  14.427  11.937   8.724
87590SOL    HW164667  14.419  11.962   8.816
87590SOL    HW264668  14.388  12.010   8.675
87591SOL     OW64669   9.354   4.969  13.471
87591SOL    HW164670   9.298   5.035  13.510
87591SOL    HW264671   9.428   5.018  13.434
87592SOL     OW64672  11.931   5.675  13.427
87592SOL    HW164673  11.942   5.720  13.343
87592SOL    HW264674  11.924   5.745  13.492
87593SOL     OW64675   9.743   3.958   6.011
87593SOL    HW164676   9.750   3.876   5.962
87593SOL    HW264677   9.649   3.970   6.025
87594SOL     OW64678  10.004  10.314   5.460
87594SOL    HW164679   9.916  10.345   5.479
87594SOL    HW264680   9.999  10.219   5.472
87595SOL     OW64681   1.712   6.636   8.398
87595SOL    HW164682   1.645   6.573   8.370
87595SOL    HW264683   1.705   6.638   8.493
87596SOL     OW64684   4.089   8.729   0.242
87596SOL    HW164685   4.073   8.813   0.284
87596SOL    HW264686   4.002   8.689   0.234
87597SOL     OW64687   6.921  14.297   7.132
87597SOL    HW164688   6.904  14.222   7.191
87597SOL    HW264689   6.999  14.272   7.083
87598SOL     OW64690   6.920   1.033   6.773
87598SOL    HW164691   6.979   0.999   6.840
87598SOL    HW264692   6.904   0.958   6.715
87599SOL     OW64693  11.737   9.034   3.541
87599SOL    HW164694  11.729   8.967   3.472
87599SOL    HW264695  11.814   9.007   3.590
87600SOL     OW64696  10.719  10.832   4.515
87600SOL    HW164697  10.629  10.821   4.484
87600SOL    HW264698  10.755  10.902   4.461
87601SOL     OW64699   9.465   1.167  12.159
87601SOL    HW164700   9.456   1.232  12.089
87601SOL    HW264701   9.516   1.212  12.226
87602SOL     OW64702   6.114   4.447  13.923
87602SOL    HW164703   6.075   4.534  13.918
87602SOL    HW264704   6.098   4.408  13.837
87603SOL     OW64705  12.766   2.192   3.759
87603SOL    HW164706  12.840   2.253   3.769
87603SOL    HW264707  12.801   2.107   3.788
87604SOL     OW64708  10.971   2.906  12.492
87604SOL    HW164709  10.909   2.975  12.467
87604SOL    HW264710  11.026   2.895  12.414
87605SOL     OW64711   6.521   1.987   6.511
87605SOL    HW164712   6.592   1.935   6.550
87605SOL    HW264713   6.566   2.063   6.473
87606SOL     OW64714   1.096   2.504   3.159
87606SOL    HW164715   1.043   2.489   3.238
87606SOL    HW264716   1.183   2.525   3.193
87607SOL     OW64717   5.665   0.793   1.532
87607SOL    HW164718   5.689   0.702   1.512
87607SOL    HW264719   5.569   0.791   1.538
87608SOL     OW64720   3.825   0.851  10.573
87608SOL    HW164721   3.840   0.833  10.666
87608SOL    HW264722   3.911   0.839  10.533
87609SOL     OW64723   2.071   3.827  11.779
87609SOL    HW164724   2.135   3.894  11.803
87609SOL    HW264725   2.004   3.874  11.729
87610SOL     OW64726  10.840  11.594   5.661
87610SOL    HW164727  10.747  11.577   5.675
87610SOL    HW264728  10.871  11.520   5.608
87611SOL     OW64729   9.002   1.014   5.285
87611SOL    HW164730   8.941   1.014   5.212
87611SOL    HW264731   9.030   0.923   5.293
87612SOL     OW64732   3.657  11.076   9.422
87612SOL    HW164733   3.625  11.036   9.503
87612SOL    HW264734   3.706  11.005   9.379
87613SOL     OW64735  10.411   5.414   6.476
87613SOL    HW164736  10.474   5.452   6.415
87613SOL    HW264737  10.464   5.363   6.537
87614SOL     OW64738   7.524   6.470   1.606
87614SOL    HW164739   7.517   6.412   1.681
87614SOL    HW264740   7.472   6.428   1.537
87615SOL     OW64741  12.431   7.911   4.574
87615SOL    HW164742  12.501   7.896   4.510
87615SOL    HW264743  12.351   7.883   4.528
87616SOL     OW64744   3.792   7.200   1.809
87616SOL    HW164745   3.755   7.209   1.721
87616SOL    HW264746   3.716   7.181   1.865
87617SOL     OW64747   4.531   1.340   4.747
87617SOL    HW164748   4.458   1.374   4.696
87617SOL    HW264749   4.505   1.354   4.838
87618SOL     OW64750   8.594   9.200   5.625
87618SOL    HW164751   8.657   9.214   5.696
87618SOL    HW264752   8.552   9.286   5.614
87619SOL     OW64753  13.866  14.058   0.551
87619SOL    HW164754  13.927  13.986   0.565
87619SOL    HW264755  13.921  14.136   0.544
87620SOL     OW64756   7.128  10.902   6.240
87620SOL    HW164757   7.104  10.885   6.149
87620SOL    HW264758   7.047  10.934   6.281
87621SOL     OW64759   5.420   8.349   7.067
87621SOL    HW164760   5.419   8.419   7.133
87621SOL    HW264761   5.409   8.268   7.117
87622SOL     OW64762   9.101  14.460  10.934
87622SOL    HW164763   9.011  14.429  10.941
87622SOL    HW264764   9.098  14.531  10.870
87623SOL     OW64765   9.586   1.606   1.748
87623SOL    HW164766   9.585   1.511   1.756
87623SOL    HW264767   9.602   1.622   1.655
87624SOL     OW64768   3.330   6.560  12.521
87624SOL    HW164769   3.294   6.551  12.433
87624SOL    HW264770   3.363   6.650  12.525
87625SOL     OW64771   8.181  14.221   3.737
87625SOL    HW164772   8.107  14.276   3.762
87625SOL    HW264773   8.244  14.283   3.700
87626SOL     OW64774   9.441  14.475   4.059
87626SOL    HW164775   9.522  14.526   4.048
87626SOL    HW264776   9.393  14.520   4.129
87627SOL     OW64777  12.000  13.299  14.678
87627SOL    HW164778  11.995  13.230  14.744
87627SOL    HW264779  11.966  13.259  14.598
87628SOL     OW64780   8.981   6.157   5.026
87628SOL    HW164781   8.923   6.113   4.965
87628SOL    HW264782   9.042   6.089   5.055
87629SOL     OW64783  10.069   2.831   7.447
87629SOL    HW164784  10.071   2.806   7.355
87629SOL    HW264785  10.039   2.922   7.445
87630SOL     OW64786   4.909   0.619  13.877
87630SOL    HW164787   4.867   0.558  13.938
87630SOL    HW264788   4.980   0.658  13.927
87631SOL     OW64789  10.593   0.370  14.397
87631SOL    HW164790  10.604   0.352  14.304
87631SOL    HW264791  10.544   0.453  14.400
87632SOL     OW64792   7.891   3.018   2.075
87632SOL    HW164793   7.894   2.928   2.108
87632SOL    HW264794   7.915   3.011   1.983
87633SOL     OW64795  10.768   9.197   1.828
87633SOL    HW164796  10.827   9.244   1.769
87633SOL    HW264797  10.819   9.187   1.909
87634SOL     OW64798   3.134   7.212   4.282
87634SOL    HW164799   3.186   7.146   4.236
87634SOL    HW264800   3.072   7.162   4.334
87635SOL     OW64801   2.266  12.014  11.722
87635SOL    HW164802   2.217  11.944  11.766
87635SOL    HW264803   2.317  11.970  11.655
87636SOL     OW64804   4.662   4.182  11.309
87636SOL    HW164805   4.676   4.277  11.313
87636SOL    HW264806   4.688   4.150  11.395
87637SOL     OW64807  11.909   3.822  11.373
87637SOL    HW164808  11.951   3.898  11.333
87637SOL    HW264809  11.870   3.856  11.454
87638SOL     OW64810  11.260   3.450  13.717
87638SOL    HW164811  11.291   3.457  13.808
87638SOL    HW264812  11.237   3.540  13.693
87639SOL     OW64813   3.655   0.016   3.296
87639SOL    HW164814   3.612  14.833   3.364
87639SOL    HW264815   3.707  14.823   3.247
87640SOL     OW64816   9.397  14.042   7.333
87640SOL    HW164817   9.357  13.969   7.380
87640SOL    HW264818   9.322  14.095   7.304
87641SOL     OW64819   9.539   9.411   7.605
87641SOL    HW164820   9.541   9.395   7.700
87641SOL    HW264821   9.448   9.435   7.587
87642SOL     OW64822  13.772  13.804   3.893
87642SOL    HW164823  13.795  13.859   3.969
87642SOL    HW264824  13.852  13.755   3.875
87643SOL     OW64825   1.049   4.212   2.085
87643SOL    HW164826   1.037   4.266   2.163
87643SOL    HW264827   1.126   4.158   2.106
87644SOL     OW64828  13.807   0.981   3.322
87644SOL    HW164829  13.732   1.037   3.303
87644SOL    HW264830  13.874   1.008   3.259
87645SOL     OW64831   0.874  12.289   2.543
87645SOL    HW164832   0.841  12.273   2.631
87645SOL    HW264833   0.959  12.245   2.540
87646SOL     OW64834   5.980   6.608   1.238
87646SOL    HW164835   5.963   6.578   1.149
87646SOL    HW264836   5.930   6.690   1.245
87647SOL     OW64837   7.093   0.963   1.430
87647SOL    HW164838   7.153   0.966   1.355
87647SOL    HW264839   7.029   1.032   1.413
87648SOL     OW64840  13.889  11.252  11.900
87648SOL    HW164841  13.801  11.218  11.914
87648SOL    HW264842  13.934  11.235  11.984
87649SOL     OW64843  10.998   4.422  11.660
87649SOL    HW164844  10.942   4.345  11.653
87649SOL    HW264845  11.085   4.387  11.677
87650SOL     OW64846   6.955   0.402   4.949
87650SOL    HW164847   6.971   0.309   4.933
87650SOL    HW264848   6.946   0.440   4.861
87651SOL     OW64849  12.799   2.922   8.337
87651SOL    HW164850  12.720   2.926   8.284
87651SOL    HW264851  12.847   2.846   8.304
87652SOL     OW64852   4.940  11.412   6.395
87652SOL    HW164853   4.961  11.331   6.350
87652SOL    HW264854   4.885  11.461   6.334
87653SOL     OW64855   3.140   8.129   6.782
87653SOL    HW164856   3.123   8.173   6.865
87653SOL    HW264857   3.139   8.200   6.717
87654SOL     OW64858   9.928   0.679   0.916
87654SOL    HW164859   9.892   0.714   0.834
87654SOL    HW264860  10.023   0.694   0.909
87655SOL     OW64861   8.941  11.129   6.405
87655SOL    HW164862   9.034  11.116   6.387
87655SOL    HW264863   8.921  11.214   6.367
87656SOL     OW64864  10.575   8.790   2.052
87656SOL    HW164865  10.558   8.827   2.139
87656SOL    HW264866  10.665   8.816   2.033
87657SOL     OW64867  11.638   9.303  12.325
87657SOL    HW164868  11.646   9.207  12.327
87657SOL    HW264869  11.652   9.331  12.415
87658SOL     OW64870  13.958   6.661  10.469
87658SOL    HW164871  14.032   6.640  10.525
87658SOL    HW264872  13.997   6.697  10.389
87659SOL     OW64873   0.251   0.575   5.799
87659SOL    HW164874   0.310   0.570   5.724
87659SOL    HW264875   0.303   0.546   5.873
87660SOL     OW64876  10.567   0.688   7.677
87660SOL    HW164877  10.510   0.635   7.732
87660SOL    HW264878  10.600   0.756   7.735
87661SOL     OW64879  10.099   1.039   8.453
87661SOL    HW164880  10.044   0.986   8.509
87661SOL    HW264881  10.086   1.004   8.365
87662SOL     OW64882  10.118   8.550   6.469
87662SOL    HW164883  10.023   8.562   6.473
87662SOL    HW264884  10.142   8.583   6.382
87663SOL     OW64885   5.229  10.618   3.802
87663SOL    HW164886   5.213  10.657   3.717
87663SOL    HW264887   5.149  10.568   3.820
87664SOL     OW64888  12.979  13.197   9.296
87664SOL    HW164889  12.942  13.176   9.210
87664SOL    HW264890  12.905  13.229   9.347
87665SOL     OW64891   7.920   9.296   4.385
87665SOL    HW164892   7.974   9.250   4.449
87665SOL    HW264893   7.870   9.359   4.438
87666SOL     OW64894   4.337   5.746  10.701
87666SOL    HW164895   4.413   5.800  10.723
87666SOL    HW264896   4.301   5.719  10.786
87667SOL     OW64897   1.075   1.408   0.817
87667SOL    HW164898   1.008   1.428   0.751
87667SOL    HW264899   1.157   1.406   0.767
87668SOL     OW64900   1.579   5.475   0.019
87668SOL    HW164901   1.529   5.448   0.096
87668SOL    HW264902   1.596   5.393  14.842
87669SOL     OW64903  13.999   0.538   2.088
87669SOL    HW164904  13.997   0.449   2.124
87669SOL    HW264905  13.916   0.577   2.115
87670SOL     OW64906   2.706   0.894   0.376
87670SOL    HW164907   2.671   0.928   0.293
87670SOL    HW264908   2.675   0.803   0.380
87671SOL     OW64909   2.999  13.700  13.293
87671SOL    HW164910   2.982  13.687  13.200
87671SOL    HW264911   2.975  13.792  13.308
87672SOL     OW64912   3.966   7.327   0.234
87672SOL    HW164913   3.907   7.261   0.271
87672SOL    HW264914   4.042   7.277   0.203
87673SOL     OW64915   7.580   2.629   6.351
87673SOL    HW164916   7.645   2.695   6.325
87673SOL    HW264917   7.616   2.546   6.320
87674SOL     OW64918   6.564   2.707   0.369
87674SOL    HW164919   6.570   2.779   0.306
87674SOL    HW264920   6.558   2.628   0.315
87675SOL     OW64921  12.136   3.845  14.087
87675SOL    HW164922  12.223   3.808  14.098
87675SOL    HW264923  12.107   3.814  14.001
87676SOL     OW64924   4.068   1.816   7.487
87676SOL    HW164925   4.105   1.739   7.530
87676SOL    HW264926   3.982   1.827   7.529
87677SOL     OW64927   1.018   8.799   7.876
87677SOL    HW164928   1.044   8.730   7.815
87677SOL    HW264929   1.031   8.760   7.963
87678SOL     OW64930   4.661   8.329  12.951
87678SOL    HW164931   4.722   8.362  12.885
87678SOL    HW264932   4.677   8.383  13.028
87679SOL     OW64933   0.831   6.341   9.263
87679SOL    HW164934   0.865   6.253   9.248
87679SOL    HW264935   0.873   6.394   9.195
87680SOL     OW64936  13.846  13.196  12.813
87680SOL    HW164937  13.806  13.197  12.726
87680SOL    HW264938  13.843  13.287  12.842
87681SOL     OW64939   6.578   1.505  11.715
87681SOL    HW164940   6.568   1.426  11.767
87681SOL    HW264941   6.586   1.575  11.779
87682SOL     OW64942   5.353  10.920   1.716
87682SOL    HW164943   5.357  10.985   1.786
87682SOL    HW264944   5.285  10.953   1.657
87683SOL     OW64945   5.212  14.490   9.318
87683SOL    HW164946   5.298  14.531   9.308
87683SOL    HW264947   5.227  14.398   9.297
87684SOL     OW64948  13.679   2.669  11.617
87684SOL    HW164949  13.723   2.719  11.549
87684SOL    HW264950  13.739   2.671  11.691
87685SOL     OW64951   5.901   7.706  11.848
87685SOL    HW164952   5.874   7.615  11.859
87685SOL    HW264953   5.820   7.756  11.860
87686SOL     OW64954   0.839   0.506  11.908
87686SOL    HW164955   0.851   0.574  11.842
87686SOL    HW264956   0.772   0.542  11.967
87687SOL     OW64957  13.462  14.078   9.710
87687SOL    HW164958  13.532  14.138   9.685
87687SOL    HW264959  13.504  14.017   9.771
87688SOL     OW64960   4.218   4.988  14.194
87688SOL    HW164961   4.162   5.063  14.216
87688SOL    HW264962   4.276   5.020  14.125
87689SOL     OW64963   4.243   5.233   0.235
87689SOL    HW164964   4.221   5.262   0.323
87689SOL    HW264965   4.309   5.164   0.248
87690SOL     OW64966  12.636   9.885  14.746
87690SOL    HW164967  12.729   9.896  14.766
87690SOL    HW264968  12.611   9.966  14.702
87691SOL     OW64969  10.306  10.140   2.134
87691SOL    HW164970  10.229  10.196   2.126
87691SOL    HW264971  10.356  10.155   2.054
87692SOL     OW64972   6.864   4.658  14.458
87692SOL    HW164973   6.878   4.751  14.474
87692SOL    HW264974   6.821   4.627  14.538
87693SOL     OW64975  12.670  12.053   4.327
87693SOL    HW164976  12.664  12.028   4.235
87693SOL    HW264977  12.759  12.087   4.338
87694SOL     OW64978  13.744   3.372  13.422
87694SOL    HW164979  13.776   3.439  13.361
87694SOL    HW264980  13.738   3.416  13.506
87695SOL     OW64981   8.970   8.439  14.636
87695SOL    HW164982   9.043   8.395  14.593
87695SOL    HW264983   9.011   8.508  14.689
87696SOL     OW64984  12.035   7.908   2.364
87696SOL    HW164985  12.128   7.929   2.364
87696SOL    HW264986  12.031   7.815   2.343
87697SOL     OW64987   3.309   3.681  11.118
87697SOL    HW164988   3.390   3.647  11.155
87697SOL    HW264989   3.300   3.636  11.034
87698SOL     OW64990   5.911  13.966  12.102
87698SOL    HW164991   5.873  13.911  12.171
87698SOL    HW264992   5.888  14.056  12.128
87699SOL     OW64993  13.300   3.186   5.941
87699SOL    HW164994  13.380   3.209   5.896
87699SOL    HW264995  13.266   3.110   5.894
87700SOL     OW64996   8.793   6.894   1.264
87700SOL    HW164997   8.772   6.803   1.242
87700SOL    HW264998   8.842   6.926   1.189
87701SOL     OW64999   2.179   0.249   0.006
87701SOL    HW165000   2.185   0.259   0.101
87701SOL    HW265001   2.096   0.292  14.852
87702SOL     OW65002   5.191   2.007   7.611
87702SOL    HW165003   5.206   1.968   7.525
87702SOL    HW265004   5.103   2.043   7.606
87703SOL     OW65005  14.810   6.710   4.186
87703SOL    HW165006  14.750   6.636   4.195
87703SOL    HW265007  14.814   6.748   4.273
87704SOL     OW65008  10.645   3.231  10.268
87704SOL    HW165009  10.700   3.155  10.284
87704SOL    HW265010  10.583   3.203  10.201
87705SOL     OW65011   3.765  12.261   5.335
87705SOL    HW165012   3.693  12.321   5.356
87705SOL    HW265013   3.787  12.280   5.244
87706SOL     OW65014   6.458  14.364  14.587
87706SOL    HW165015   6.392  14.391  14.523
87706SOL    HW265016   6.539  14.407  14.558
87707SOL     OW65017   9.035   7.935  11.260
87707SOL    HW165018   9.057   7.918  11.351
87707SOL    HW265019   9.059   8.026  11.245
87708SOL     OW65020   7.962   6.755  14.689
87708SOL    HW165021   7.994   6.673  14.650
87708SOL    HW265022   7.883   6.730  14.736
87709SOL     OW65023   4.793   0.115   9.659
87709SOL    HW165024   4.852   0.176   9.614
87709SOL    HW265025   4.850   0.057   9.708
87710SOL     OW65026   5.947  12.753   9.064
87710SOL    HW165027   6.036  12.719   9.077
87710SOL    HW265028   5.960  12.843   9.035
87711SOL     OW65029   6.585   6.284  14.771
87711SOL    HW165030   6.519   6.274  14.840
87711SOL    HW265031   6.668   6.273  14.817
87712SOL     OW65032   7.328  14.120   4.766
87712SOL    HW165033   7.305  14.030   4.744
87712SOL    HW265034   7.338  14.120   4.861
87713SOL     OW65035  14.682   4.024   8.020
87713SOL    HW165036  14.690   3.985   7.933
87713SOL    HW265037  14.747   3.978   8.073
87714SOL     OW65038   8.880   4.730  11.609
87714SOL    HW165039   8.814   4.663  11.593
87714SOL    HW265040   8.855   4.769  11.693
87715SOL     OW65041  11.725   0.365   2.525
87715SOL    HW165042  11.817   0.341   2.533
87715SOL    HW265043  11.697   0.325   2.443
87716SOL     OW65044   8.917   9.472   9.641
87716SOL    HW165045   8.928   9.459   9.735
87716SOL    HW265046   8.825   9.497   9.630
87717SOL     OW65047   1.252   0.557  13.383
87717SOL    HW165048   1.266   0.584  13.474
87717SOL    HW265049   1.181   0.493  13.387
87718SOL     OW65050   0.761   5.658  10.234
87718SOL    HW165051   0.751   5.744  10.194
87718SOL    HW265052   0.675   5.639  10.272
87719SOL     OW65053  11.176   6.131   2.944
87719SOL    HW165054  11.249   6.178   2.903
87719SOL    HW265055  11.104   6.138   2.882
87720SOL     OW65056  11.039   9.974   4.610
87720SOL    HW165057  11.132   9.958   4.620
87720SOL    HW265058  10.997   9.893   4.640
87721SOL     OW65059   1.774  13.466   4.898
87721SOL    HW165060   1.808  13.541   4.850
87721SOL    HW265061   1.826  13.461   4.977
87722SOL     OW65062   2.845   6.699   8.645
87722SOL    HW165063   2.931   6.698   8.601
87722SOL    HW265064   2.783   6.674   8.576
87723SOL     OW65065  12.478  12.583   1.319
87723SOL    HW165066  12.417  12.517   1.287
87723SOL    HW265067  12.487  12.564   1.412
87724SOL     OW65068   4.010  11.960   1.960
87724SOL    HW165069   3.948  12.015   2.009
87724SOL    HW265070   3.956  11.916   1.894
87725SOL     OW65071   5.211   4.281  11.192
87725SOL    HW165072   5.165   4.255  11.273
87725SOL    HW265073   5.274   4.348  11.221
87726SOL     OW65074   8.169  12.167   0.076
87726SOL    HW165075   8.156  12.101   0.143
87726SOL    HW265076   8.210  12.240   0.122
87727SOL     OW65077  12.155  12.926   1.793
87727SOL    HW165078  12.126  12.936   1.702
87727SOL    HW265079  12.247  12.899   1.786
87728SOL     OW65080  14.088   9.691   7.111
87728SOL    HW165081  14.027   9.659   7.045
87728SOL    HW265082  14.077   9.631   7.185
87729SOL     OW65083   1.493   9.313   4.281
87729SOL    HW165084   1.505   9.401   4.246
87729SOL    HW265085   1.465   9.261   4.205
87730SOL     OW65086   0.669  13.408  10.815
87730SOL    HW165087   0.640  13.499  10.818
87730SOL    HW265088   0.715  13.395  10.898
87731SOL     OW65089   2.294  14.197  12.446
87731SOL    HW165090   2.323  14.288  12.444
87731SOL    HW265091   2.348  14.156  12.514
87732SOL     OW65092   2.261  14.328   7.883
87732SOL    HW165093   2.195  14.287   7.938
87732SOL    HW265094   2.344  14.288   7.911
87733SOL     OW65095   5.142  13.751  13.082
87733SOL    HW165096   5.094  13.787  13.007
87733SOL    HW265097   5.100  13.667  13.098
87734SOL     OW65098   9.878   3.019   1.441
87734SOL    HW165099   9.960   2.972   1.424
87734SOL    HW265100   9.889   3.053   1.530
87735SOL     OW65101   2.269   2.255   7.179
87735SOL    HW165102   2.361   2.275   7.196
87735SOL    HW265103   2.263   2.160   7.186
87736SOL     OW65104   1.952   7.770   5.562
87736SOL    HW165105   2.002   7.850   5.575
87736SOL    HW265106   1.977   7.739   5.475
87737SOL     OW65107   0.025  10.472  11.309
87737SOL    HW165108   0.080  10.396  11.292
87737SOL    HW265109  14.805  10.438  11.307
87738SOL     OW65110   0.587   1.652   7.747
87738SOL    HW165111   0.575   1.584   7.681
87738SOL    HW265112   0.661   1.705   7.715
87739SOL     OW65113   4.413   9.325   1.013
87739SOL    HW165114   4.495   9.314   1.062
87739SOL    HW265115   4.415   9.255   0.947
87740SOL     OW65116   4.012  10.342  13.205
87740SOL    HW165117   4.091  10.299  13.171
87740SOL    HW265118   4.024  10.435  13.182
87741SOL     OW65119  11.202   2.470  13.420
87741SOL    HW165120  11.228   2.378  13.419
87741SOL    HW265121  11.242   2.506  13.341
87742SOL     OW65122   3.656   1.444   0.524
87742SOL    HW165123   3.670   1.538   0.538
87742SOL    HW265124   3.725   1.402   0.575
87743SOL     OW65125   7.828   4.588   3.921
87743SOL    HW165126   7.758   4.531   3.888
87743SOL    HW265127   7.797   4.616   4.007
87744SOL     OW65128   9.771  13.534  13.713
87744SOL    HW165129   9.778  13.473  13.787
87744SOL    HW265130   9.862  13.557  13.693
87745SOL     OW65131  14.044   7.966   9.289
87745SOL    HW165132  14.110   8.035   9.280
87745SOL    HW265133  14.077   7.911   9.360
87746SOL     OW65134   4.016   5.085   4.370
87746SOL    HW165135   4.034   5.178   4.355
87746SOL    HW265136   4.038   5.071   4.462
87747SOL     OW65137   7.191   2.517   4.409
87747SOL    HW165138   7.142   2.566   4.343
87747SOL    HW265139   7.180   2.566   4.490
87748SOL     OW65140   8.237   2.732  12.440
87748SOL    HW165141   8.198   2.754  12.356
87748SOL    HW265142   8.332   2.732  12.423
87749SOL     OW65143  13.110   6.565   5.648
87749SOL    HW165144  13.059   6.490   5.617
87749SOL    HW265145  13.049   6.639   5.646
87750SOL     OW65146   1.394  14.124   0.818
87750SOL    HW165147   1.370  14.092   0.905
87750SOL    HW265148   1.349  14.066   0.757
87751SOL     OW65149   2.818   6.914   6.111
87751SOL    HW165150   2.730   6.881   6.130
87751SOL    HW265151   2.876   6.842   6.136
87752SOL     OW65152   5.819  13.393  10.912
87752SOL    HW165153   5.851  13.303  10.898
87752SOL    HW265154   5.811  13.401  11.007
87753SOL     OW65155  13.403   4.769   7.302
87753SOL    HW165156  13.445   4.776   7.216
87753SOL    HW265157  13.475   4.753   7.362
87754SOL     OW65158   6.420   2.971   9.579
87754SOL    HW165159   6.363   2.903   9.545
87754SOL    HW265160   6.476   2.926   9.642
87755SOL     OW65161   7.439   9.664   4.218
87755SOL    HW165162   7.378   9.594   4.240
87755SOL    HW265163   7.524   9.620   4.211
87756SOL     OW65164   6.892   0.096   6.789
87756SOL    HW165165   6.976   0.073   6.748
87756SOL    HW265166   6.890   0.191   6.788
87757SOL     OW65167   4.417   1.289  10.676
87757SOL    HW165168   4.363   1.351  10.726
87757SOL    HW265169   4.415   1.322  10.586
87758SOL     OW65170  12.247  10.107  12.725
87758SOL    HW165171  12.335  10.138  12.704
87758SOL    HW265172  12.204  10.183  12.765
87759SOL     OW65173   5.251  12.848   1.006
87759SOL    HW165174   5.228  12.870   0.916
87759SOL    HW265175   5.310  12.918   1.034
87760SOL     OW65176   9.670   7.827   6.263
87760SOL    HW165177   9.601   7.780   6.217
87760SOL    HW265178   9.743   7.829   6.201
87761SOL     OW65179   8.999   9.070   5.620
87761SOL    HW165180   8.942   9.096   5.548
87761SOL    HW265181   9.061   9.143   5.629
87762SOL     OW65182  11.956  12.947   8.206
87762SOL    HW165183  11.989  12.883   8.142
87762SOL    HW265184  11.984  12.912   8.291
87763SOL     OW65185   8.729   2.081  11.052
87763SOL    HW165186   8.662   2.096  11.118
87763SOL    HW265187   8.785   2.012  11.090
87764SOL     OW65188  14.068  10.156   0.238
87764SOL    HW165189  14.159  10.126   0.243
87764SOL    HW265190  14.051  10.166   0.145
87765SOL     OW65191   8.905   9.165  12.583
87765SOL    HW165192   8.889   9.193  12.493
87765SOL    HW265193   8.909   9.247  12.633
87766SOL     OW65194  11.108   9.326   9.830
87766SOL    HW165195  11.081   9.240   9.799
87766SOL    HW265196  11.101   9.320   9.926
87767SOL     OW65197   6.154   9.155   0.825
87767SOL    HW165198   6.202   9.090   0.774
87767SOL    HW265199   6.182   9.141   0.915
87768SOL     OW65200   1.916   4.445   0.073
87768SOL    HW165201   1.984   4.424   0.137
87768SOL    HW265202   1.956   4.424  14.858
87769SOL     OW65203   1.407  13.875  14.311
87769SOL    HW165204   1.368  13.949  14.356
87769SOL    HW265205   1.494  13.906  14.285
87770SOL     OW65206   3.041   8.063   0.144
87770SOL    HW165207   2.993   8.019   0.214
87770SOL    HW265208   2.974   8.085   0.079
87771SOL     OW65209   7.780   4.290  12.166
87771SOL    HW165210   7.698   4.291  12.215
87771SOL    HW265211   7.800   4.382  12.151
87772SOL     OW65212  13.309   8.427   4.929
87772SOL    HW165213  13.218   8.438   4.957
87772SOL    HW265214  13.343   8.516   4.921
87773SOL     OW65215   5.834   6.279   8.112
87773SOL    HW165216   5.913   6.237   8.147
87773SOL    HW265217   5.863   6.366   8.084
87774SOL     OW65218   8.725   2.752  12.156
87774SOL    HW165219   8.742   2.667  12.198
87774SOL    HW265220   8.729   2.733  12.062
87775SOL     OW65221  10.142   0.287   1.505
87775SOL    HW165222  10.228   0.268   1.540
87775SOL    HW265223  10.137   0.235   1.424
87776SOL     OW65224   1.328  14.306   4.338
87776SOL    HW165225   1.279  14.224   4.336
87776SOL    HW265226   1.261  14.374   4.352
87777SOL     OW65227   8.883  14.458   6.997
87777SOL    HW165228   8.943  14.473   7.071
87777SOL    HW265229   8.847  14.545   6.977
87778SOL     OW65230  13.838  10.240  10.394
87778SOL    HW165231  13.933  10.241  10.393
87778SOL    HW265232  13.813  10.328  10.364
87779SOL     OW65233   8.311  14.071  11.730
87779SOL    HW165234   8.403  14.044  11.727
87779SOL    HW265235   8.271  14.030  11.653
87780SOL     OW65236   8.072  11.131   2.658
87780SOL    HW165237   8.077  11.180   2.740
87780SOL    HW265238   8.160  11.096   2.646
87781SOL     OW65239   1.986   2.303   1.098
87781SOL    HW165240   1.962   2.210   1.103
87781SOL    HW265241   2.007   2.327   1.188
87782SOL     OW65242   4.962   7.239  12.532
87782SOL    HW165243   4.961   7.258  12.438
87782SOL    HW265244   5.007   7.155  12.539
87783SOL     OW65245  13.776  12.917   2.771
87783SOL    HW165246  13.764  13.009   2.797
87783SOL    HW265247  13.717  12.906   2.696
87784SOL     OW65248   7.328   6.070   5.516
87784SOL    HW165249   7.370   6.051   5.432
87784SOL    HW265250   7.244   6.109   5.491
87785SOL     OW65251   6.368   1.753   1.865
87785SOL    HW165252   6.352   1.817   1.934
87785SOL    HW265253   6.445   1.704   1.894
87786SOL     OW65254   0.095   5.529  13.069
87786SOL    HW165255   0.069   5.582  13.144
87786SOL    HW265256   0.012   5.502  13.029
87787SOL     OW65257   9.748   0.559   4.281
87787SOL    HW165258   9.795   0.481   4.311
87787SOL    HW265259   9.711   0.534   4.197
87788SOL     OW65260  10.782   9.210  14.719
87788SOL    HW165261  10.876   9.197  14.709
87788SOL    HW265262  10.743   9.165  14.644
87789SOL     OW65263   2.167   2.459   6.218
87789SOL    HW165264   2.192   2.413   6.138
87789SOL    HW265265   2.180   2.552   6.197
87790SOL     OW65266  13.611   8.661   5.789
87790SOL    HW165267  13.638   8.582   5.743
87790SOL    HW265268  13.665   8.731   5.752
87791SOL     OW65269   0.453  12.007   4.001
87791SOL    HW165270   0.378  12.044   3.955
87791SOL    HW265271   0.415  11.938   4.056
87792SOL     OW65272   8.658  10.693   9.053
87792SOL    HW165273   8.704  10.723   8.975
87792SOL    HW265274   8.703  10.613   9.080
87793SOL     OW65275   4.331   0.428  10.915
87793SOL    HW165276   4.390   0.477  10.858
87793SOL    HW265277   4.341   0.470  11.001
87794SOL     OW65278   2.296   6.613   4.968
87794SOL    HW165279   2.282   6.708   4.964
87794SOL    HW265280   2.381   6.604   5.012
87795SOL     OW65281   0.609  14.046  12.614
87795SOL    HW165282   0.667  14.040  12.691
87795SOL    HW265283   0.578  14.137  12.615
87796SOL     OW65284   8.149   9.090  13.084
87796SOL    HW165285   8.104   9.138  13.153
87796SOL    HW265286   8.242   9.092  13.110
87797SOL     OW65287   1.017   8.501   1.624
87797SOL    HW165288   1.085   8.451   1.578
87797SOL    HW265289   1.010   8.583   1.576
87798SOL     OW65290  11.030   7.577   4.219
87798SOL    HW165291  11.124   7.560   4.212
87798SOL    HW265292  10.991   7.518   4.155
87799SOL     OW65293  10.326   3.536   6.734
87799SOL    HW165294  10.272   3.574   6.665
87799SOL    HW265295  10.342   3.446   6.705
87800SOL     OW65296   5.329  11.240   8.641
87800SOL    HW165297   5.263  11.307   8.621
87800SOL    HW265298   5.284  11.178   8.698
87801SOL     OW65299   0.822   1.011   7.218
87801SOL    HW165300   0.768   0.942   7.180
87801SOL    HW265301   0.836   1.073   7.147
87802SOL     OW65302   2.839   2.559  14.404
87802SOL    HW165303   2.813   2.591  14.318
87802SOL    HW265304   2.859   2.466  14.390
87803SOL     OW65305   1.421   6.163   9.910
87803SOL    HW165306   1.452   6.080   9.946
87803SOL    HW265307   1.437   6.155   9.816
87804SOL     OW65308   2.462   8.392   0.191
87804SOL    HW165309   2.510   8.473   0.169
87804SOL    HW265310   2.531   8.327   0.205
87805SOL     OW65311   1.668   4.117   1.486
87805SOL    HW165312   1.604   4.175   1.444
87805SOL    HW265313   1.750   4.166   1.480
87806SOL     OW65314   6.025   6.323  13.429
87806SOL    HW165315   6.099   6.269  13.403
87806SOL    HW265316   6.049   6.357  13.515
87807SOL     OW65317  14.435   4.860   3.302
87807SOL    HW165318  14.469   4.795   3.364
87807SOL    HW265319  14.384   4.810   3.239
87808SOL     OW65320   4.085   0.577   5.657
87808SOL    HW165321   3.998   0.615   5.669
87808SOL    HW265322   4.072   0.483   5.669
87809SOL     OW65323  10.958   6.196   8.287
87809SOL    HW165324  11.025   6.133   8.311
87809SOL    HW265325  10.880   6.143   8.269
87810SOL     OW65326   6.828   0.977  12.822
87810SOL    HW165327   6.775   0.948  12.896
87810SOL    HW265328   6.768   1.024  12.765
87811SOL     OW65329   2.800   5.259  11.716
87811SOL    HW165330   2.880   5.236  11.763
87811SOL    HW265331   2.819   5.345  11.677
87812SOL     OW65332   7.049   1.650   9.318
87812SOL    HW165333   7.028   1.737   9.285
87812SOL    HW265334   7.093   1.665   9.402
87813SOL     OW65335   8.659   3.642   6.799
87813SOL    HW165336   8.604   3.588   6.856
87813SOL    HW265337   8.741   3.594   6.792
87814SOL     OW65338  12.647   6.908   9.312
87814SOL    HW165339  12.621   6.842   9.376
87814SOL    HW265340  12.646   6.861   9.228
87815SOL     OW65341  13.998   4.690   9.130
87815SOL    HW165342  14.004   4.614   9.188
87815SOL    HW265343  14.047   4.759   9.176
87816SOL     OW65344   5.920   3.128   4.673
87816SOL    HW165345   5.892   3.077   4.749
87816SOL    HW265346   5.866   3.207   4.676
87817SOL     OW65347   4.991   2.805  11.840
87817SOL    HW165348   4.981   2.897  11.865
87817SOL    HW265349   5.065   2.805  11.779
87818SOL     OW65350  11.002  11.112  13.048
87818SOL    HW165351  11.000  11.179  13.116
87818SOL    HW265352  11.083  11.064  13.062
87819SOL     OW65353   0.573   9.371   0.320
87819SOL    HW165354   0.631   9.437   0.281
87819SOL    HW265355   0.491   9.417   0.335
87820SOL     OW65356   4.913  11.243   8.149
87820SOL    HW165357   4.941  11.229   8.239
87820SOL    HW265358   4.957  11.174   8.099
87821SOL     OW65359  13.649  12.561  13.701
87821SOL    HW165360  13.614  12.647  13.678
87821SOL    HW265361  13.576  12.515  13.742
87822SOL     OW65362  12.456  12.791   3.459
87822SOL    HW165363  12.520  12.862   3.465
87822SOL    HW265364  12.506  12.712   3.477
87823SOL     OW65365   7.870   2.637   1.481
87823SOL    HW165366   7.867   2.655   1.388
87823SOL    HW265367   7.951   2.586   1.493
87824SOL     OW65368  12.026   0.213  13.125
87824SOL    HW165369  12.046   0.192  13.217
87824SOL    HW265370  12.106   0.254  13.092
87825SOL     OW65371  13.683  13.304  13.454
87825SOL    HW165372  13.649  13.393  13.444
87825SOL    HW265373  13.609  13.248  13.431
87826SOL     OW65374   0.390   8.870  11.791
87826SOL    HW165375   0.299   8.870  11.821
87826SOL    HW265376   0.426   8.953  11.821
87827SOL     OW65377   9.005   7.238   2.842
87827SOL    HW165378   9.048   7.230   2.927
87827SOL    HW265379   9.074   7.223   2.778
87828SOL     OW65380   6.472  13.772  13.958
87828SOL    HW165381   6.412  13.833  14.003
87828SOL    HW265382   6.414  13.713  13.911
87829SOL     OW65383   6.781  10.809   7.637
87829SOL    HW165384   6.752  10.884   7.688
87829SOL    HW265385   6.723  10.807   7.561
87830SOL     OW65386   7.562   4.216   8.809
87830SOL    HW165387   7.550   4.285   8.874
87830SOL    HW265388   7.484   4.161   8.819
87831SOL     OW65389   3.234   9.662   2.169
87831SOL    HW165390   3.181   9.706   2.236
87831SOL    HW265391   3.241   9.572   2.201
87832SOL     OW65392   9.478   0.155  14.860
87832SOL    HW165393   9.396   0.109  14.845
87832SOL    HW265394   9.516   0.114   0.068
87833SOL     OW65395   9.529   4.031  13.924
87833SOL    HW165396   9.611   3.983  13.935
87833SOL    HW265397   9.514   4.070  14.010
87834SOL     OW65398  12.196   9.740   5.080
87834SOL    HW165399  12.184   9.778   5.167
87834SOL    HW265400  12.133   9.668   5.077
87835SOL     OW65401   8.013   8.941   8.862
87835SOL    HW165402   8.051   9.026   8.883
87835SOL    HW265403   8.086   8.893   8.822
87836SOL     OW65404   3.927  10.181   1.700
87836SOL    HW165405   3.961  10.133   1.776
87836SOL    HW265406   3.993  10.168   1.632
87837SOL     OW65407   4.789   7.275   1.596
87837SOL    HW165408   4.862   7.337   1.602
87837SOL    HW265409   4.828   7.196   1.559
87838SOL     OW65410   1.282   7.519   4.851
87838SOL    HW165411   1.268   7.450   4.916
87838SOL    HW265412   1.271   7.600   4.900
87839SOL     OW65413   6.342  14.869   7.681
87839SOL    HW165414   6.257   0.010   7.637
87839SOL    HW265415   6.320  14.837   7.768
87840SOL     OW65416   8.526   6.529   3.667
87840SOL    HW165417   8.457   6.594   3.660
87840SOL    HW265418   8.555   6.534   3.758
87841SOL     OW65419  12.159   3.024   6.107
87841SOL    HW165420  12.068   3.003   6.127
87841SOL    HW265421  12.159   3.044   6.014
87842SOL     OW65422  14.609   9.517  12.673
87842SOL    HW165423  14.591   9.526  12.767
87842SOL    HW265424  14.524   9.500  12.634
87843SOL     OW65425   2.981  11.156   1.785
87843SOL    HW165426   2.969  11.167   1.879
87843SOL    HW265427   2.992  11.062   1.773
87844SOL     OW65428   6.104   5.826   9.546
87844SOL    HW165429   6.166   5.889   9.509
87844SOL    HW265430   6.068   5.871   9.622
87845SOL     OW65431  12.939   8.106   7.261
87845SOL    HW165432  12.929   8.011   7.249
87845SOL    HW265433  13.023   8.116   7.304
87846SOL     OW65434  11.992  11.996   3.263
87846SOL    HW165435  12.025  11.969   3.177
87846SOL    HW265436  12.037  11.939   3.325
87847SOL     OW65437   3.420  10.735  14.106
87847SOL    HW165438   3.419  10.803  14.173
87847SOL    HW265439   3.366  10.771  14.035
87848SOL     OW65440   8.957   1.940  12.315
87848SOL    HW165441   8.917   2.008  12.260
87848SOL    HW265442   8.886   1.878  12.332
87849SOL     OW65443   5.529   9.478   6.938
87849SOL    HW165444   5.562   9.559   6.898
87849SOL    HW265445   5.603   9.417   6.932
87850SOL     OW65446   8.078   2.448   0.236
87850SOL    HW165447   8.026   2.458   0.156
87850SOL    HW265448   8.027   2.388   0.290
87851SOL     OW65449  13.314   4.379  11.495
87851SOL    HW165450  13.347   4.361  11.582
87851SOL    HW265451  13.282   4.295  11.462
87852SOL     OW65452  14.694   4.511   5.303
87852SOL    HW165453  14.627   4.490   5.369
87852SOL    HW265454  14.644   4.525   5.223
87853SOL     OW65455   4.673   4.505   6.109
87853SOL    HW165456   4.724   4.580   6.077
87853SOL    HW265457   4.732   4.431   6.102
87854SOL     OW65458   2.880   1.608   9.075
87854SOL    HW165459   2.883   1.529   9.128
87854SOL    HW265460   2.906   1.678   9.135
87855SOL     OW65461  14.674   5.201  10.842
87855SOL    HW165462  14.598   5.149  10.869
87855SOL    HW265463  14.692   5.257  10.917
87856SOL     OW65464   3.199   6.315   5.374
87856SOL    HW165465   3.244   6.274   5.448
87856SOL    HW265466   3.254   6.391   5.352
87857SOL     OW65467   8.244  12.640  11.103
87857SOL    HW165468   8.182  12.705  11.137
87857SOL    HW265469   8.189  12.581  11.051
87858SOL     OW65470   9.026  10.179  14.542
87858SOL    HW165471   8.933  10.160  14.531
87858SOL    HW265472   9.046  10.242  14.472
87859SOL     OW65473   5.113   4.370  13.585
87859SOL    HW165474   5.174   4.438  13.616
87859SOL    HW265475   5.163   4.320  13.521
87860SOL     OW65476   0.574   8.728  10.442
87860SOL    HW165477   0.487   8.765  10.456
87860SOL    HW265478   0.621   8.744  10.523
87861SOL     OW65479   4.362   2.736   6.920
87861SOL    HW165480   4.333   2.675   6.987
87861SOL    HW265481   4.334   2.822   6.952
87862SOL     OW65482   9.472   9.742   6.115
87862SOL    HW165483   9.460   9.648   6.121
87862SOL    HW265484   9.383   9.777   6.102
87863SOL     OW65485  13.498  11.012   0.529
87863SOL    HW165486  13.532  10.948   0.467
87863SOL    HW265487  13.525  11.097   0.493
87864SOL     OW65488  10.759   0.964   8.064
87864SOL    HW165489  10.818   1.034   8.036
87864SOL    HW265490  10.699   1.006   8.126
87865SOL     OW65491   7.864   2.341  13.992
87865SOL    HW165492   7.956   2.314  13.999
87865SOL    HW265493   7.822   2.304  14.069
87866SOL     OW65494   2.008   2.661  13.874
87866SOL    HW165495   2.021   2.622  13.787
87866SOL    HW265496   1.927   2.712  13.866
87867SOL     OW65497   6.384   4.457  14.481
87867SOL    HW165498   6.349   4.439  14.567
87867SOL    HW265499   6.479   4.459  14.493
87868SOL     OW65500  10.302  10.580  13.165
87868SOL    HW165501  10.225  10.581  13.108
87868SOL    HW265502  10.366  10.527  13.117
87869SOL     OW65503   9.947  11.047   8.572
87869SOL    HW165504   9.919  11.135   8.595
87869SOL    HW265505  10.020  11.060   8.512
87870SOL     OW65506   0.027   6.270   4.311
87870SOL    HW165507   0.033   6.332   4.384
87870SOL    HW265508  14.826   6.305   4.256
87871SOL     OW65509  13.630   0.218  12.645
87871SOL    HW165510  13.697   0.152  12.628
87871SOL    HW265511  13.556   0.192  12.590
87872SOL     OW65512  14.294   8.582  10.558
87872SOL    HW165513  14.334   8.578  10.471
87872SOL    HW265514  14.202   8.560  10.543
87873SOL     OW65515  13.222  10.250   3.570
87873SOL    HW165516  13.214  10.157   3.593
87873SOL    HW265517  13.145  10.291   3.609
87874SOL     OW65518   3.599   8.172  13.244
87874SOL    HW165519   3.507   8.147  13.235
87874SOL    HW265520   3.645   8.115  13.182
87875SOL     OW65521   0.353   3.144  13.651
87875SOL    HW165522   0.392   3.060  13.625
87875SOL    HW265523   0.426   3.206  13.650
87876SOL     OW65524   6.080   8.571   6.312
87876SOL    HW165525   6.167   8.545   6.341
87876SOL    HW265526   6.082   8.667   6.315
87877SOL     OW65527  13.272   5.648   4.885
87877SOL    HW165528  13.262   5.611   4.973
87877SOL    HW265529  13.336   5.718   4.897
87878SOL     OW65530   9.756  11.092  14.112
87878SOL    HW165531   9.815  11.130  14.177
87878SOL    HW265532   9.679  11.148  14.114
87879SOL     OW65533   3.641   0.278   5.690
87879SOL    HW165534   3.671   0.201   5.739
87879SOL    HW265535   3.716   0.338   5.691
87880SOL     OW65536   0.855   4.226   7.769
87880SOL    HW165537   0.871   4.226   7.863
87880SOL    HW265538   0.774   4.276   7.758
87881SOL     OW65539  12.235   3.670  11.015
87881SOL    HW165540  12.327   3.654  11.037
87881SOL    HW265541  12.187   3.599  11.057
87882SOL     OW65542   6.364   1.425  10.010
87882SOL    HW165543   6.413   1.449   9.931
87882SOL    HW265544   6.302   1.497  10.022
87883SOL     OW65545   6.898  12.387  13.902
87883SOL    HW165546   6.939  12.437  13.831
87883SOL    HW265547   6.842  12.324  13.857
87884SOL     OW65548   8.998   3.127   3.073
87884SOL    HW165549   9.033   3.120   3.162
87884SOL    HW265550   8.910   3.163   3.085
87885SOL     OW65551   7.917  13.764   8.247
87885SOL    HW165552   7.899  13.727   8.334
87885SOL    HW265553   7.830  13.786   8.213
87886SOL     OW65554  12.673  13.137  12.368
87886SOL    HW165555  12.665  13.055  12.320
87886SOL    HW265556  12.677  13.205  12.301
87887SOL     OW65557   1.210   1.658   7.627
87887SOL    HW165558   1.258   1.697   7.700
87887SOL    HW265559   1.243   1.568   7.622
87888SOL     OW65560   2.899   3.903   6.148
87888SOL    HW165561   2.990   3.927   6.164
87888SOL    HW265562   2.879   3.838   6.215
87889SOL     OW65563   8.769  13.317   1.498
87889SOL    HW165564   8.784  13.286   1.409
87889SOL    HW265565   8.792  13.409   1.496
87890SOL     OW65566  13.702  13.484  14.197
87890SOL    HW165567  13.755  13.473  14.276
87890SOL    HW265568  13.713  13.577  14.174
87891SOL     OW65569  12.592  10.949   2.384
87891SOL    HW165570  12.665  10.888   2.373
87891SOL    HW265571  12.562  10.968   2.295
87892SOL     OW65572   5.363  10.114   0.353
87892SOL    HW165573   5.341  10.201   0.385
87892SOL    HW265574   5.458  10.115   0.342
87893SOL     OW65575  12.268   7.189  12.634
87893SOL    HW165576  12.352   7.151  12.607
87893SOL    HW265577  12.271   7.189  12.729
87894SOL     OW65578   4.880   8.909   8.119
87894SOL    HW165579   4.826   8.968   8.171
87894SOL    HW265580   4.818   8.863   8.062
87895SOL     OW65581   2.562   9.640  13.056
87895SOL    HW165582   2.620   9.565  13.065
87895SOL    HW265583   2.539   9.642  12.963
87896SOL     OW65584  14.249   7.096   9.605
87896SOL    HW165585  14.165   7.072   9.565
87896SOL    HW265586  14.247   7.056   9.692
87897SOL     OW65587  10.593  12.641   7.465
87897SOL    HW165588  10.516  12.664   7.413
87897SOL    HW265589  10.557  12.604   7.546
87898SOL     OW65590  12.658  11.897   7.205
87898SOL    HW165591  12.753  11.894   7.189
87898SOL    HW265592  12.621  11.845   7.134
87899SOL     OW65593   9.700   2.800   4.615
87899SOL    HW165594   9.700   2.895   4.622
87899SOL    HW265595   9.637   2.771   4.681
87900SOL     OW65596  14.540   6.667   7.188
87900SOL    HW165597  14.519   6.635   7.101
87900SOL    HW265598  14.480   6.740   7.203
87901SOL     OW65599   9.322  13.146   9.236
87901SOL    HW165600   9.374  13.178   9.162
87901SOL    HW265601   9.367  13.067   9.265
87902SOL     OW65602   0.245   0.812  11.915
87902SOL    HW165603   0.313   0.766  11.867
87902SOL    HW265604   0.175   0.825  11.851
87903SOL     OW65605  14.120   9.472  10.804
87903SOL    HW165606  14.197   9.428  10.841
87903SOL    HW265607  14.057   9.476  10.876
87904SOL     OW65608  14.417  12.522  10.475
87904SOL    HW165609  14.424  12.434  10.439
87904SOL    HW265610  14.336  12.521  10.525
87905SOL     OW65611   6.575   8.254  13.086
87905SOL    HW165612   6.534   8.283  13.168
87905SOL    HW265613   6.527   8.175  13.062
87906SOL     OW65614   2.349  12.569   5.385
87906SOL    HW165615   2.380  12.525   5.464
87906SOL    HW265616   2.400  12.650   5.380
87907SOL     OW65617  10.583  10.073   0.467
87907SOL    HW165618  10.516  10.097   0.530
87907SOL    HW265619  10.549   9.995   0.424
87908SOL     OW65620  13.167   8.073   3.331
87908SOL    HW165621  13.238   8.106   3.275
87908SOL    HW265622  13.153   7.983   3.302
87909SOL     OW65623   9.097   8.584   9.512
87909SOL    HW165624   9.062   8.497   9.496
87909SOL    HW265625   9.138   8.610   9.430
87910SOL     OW65626  14.607   7.472  10.763
87910SOL    HW165627  14.575   7.454  10.851
87910SOL    HW265628  14.530   7.501  10.715
87911SOL     OW65629  10.898  12.787  12.822
87911SOL    HW165630  10.912  12.795  12.728
87911SOL    HW265631  10.986  12.786  12.860
87912SOL     OW65632  10.521   9.955  13.015
87912SOL    HW165633  10.513   9.980  13.107
87912SOL    HW265634  10.443   9.901  12.998
87913SOL     OW65635  10.812   3.819   5.309
87913SOL    HW165636  10.840   3.889   5.251
87913SOL    HW265637  10.880   3.752   5.300
87914SOL     OW65638   4.764  10.340  12.579
87914SOL    HW165639   4.687  10.355  12.633
87914SOL    HW265640   4.818  10.417  12.591
87915SOL     OW65641   9.988   4.699   6.290
87915SOL    HW165642  10.083   4.700   6.279
87915SOL    HW265643   9.957   4.769   6.232
87916SOL     OW65644   9.439  12.563   8.586
87916SOL    HW165645   9.526  12.525   8.594
87916SOL    HW265646   9.403  12.525   8.505
87917SOL     OW65647   2.927   1.335   9.544
87917SOL    HW165648   2.992   1.405   9.553
87917SOL    HW265649   2.875   1.360   9.467
87918SOL     OW65650   2.488   3.001   0.469
87918SOL    HW165651   2.401   2.961   0.460
87918SOL    HW265652   2.547   2.940   0.425
87919SOL     OW65653   0.816   8.220   3.001
87919SOL    HW165654   0.810   8.211   3.096
87919SOL    HW265655   0.881   8.289   2.988
87920SOL     OW65656   6.279  12.323  13.867
87920SOL    HW165657   6.346  12.319  13.799
87920SOL    HW265658   6.247  12.233  13.875
87921SOL     OW65659   5.395   2.574   7.972
87921SOL    HW165660   5.388   2.479   7.976
87921SOL    HW265661   5.412   2.593   7.880
87922SOL     OW65662   5.297   8.823   3.043
87922SOL    HW165663   5.342   8.845   2.962
87922SOL    HW265664   5.206   8.846   3.027
87923SOL     OW65665   2.457   4.872   8.108
87923SOL    HW165666   2.371   4.852   8.144
87923SOL    HW265667   2.498   4.928   8.175
87924SOL     OW65668  11.147  12.405   0.943
87924SOL    HW165669  11.203  12.411   0.866
87924SOL    HW265670  11.090  12.483   0.937
87925SOL     OW65671  11.830  11.670   2.072
87925SOL    HW165672  11.897  11.729   2.038
87925SOL    HW265673  11.879  11.606   2.124
87926SOL     OW65674   2.348   3.513   1.679
87926SOL    HW165675   2.378   3.574   1.612
87926SOL    HW265676   2.427   3.467   1.707
87927SOL     OW65677   8.139   8.012   7.659
87927SOL    HW165678   8.224   8.016   7.705
87927SOL    HW265679   8.136   8.092   7.607
87928SOL     OW65680  14.378  14.125   1.073
87928SOL    HW165681  14.445  14.088   1.016
87928SOL    HW265682  14.404  14.217   1.082
87929SOL     OW65683   3.485   2.288   1.610
87929SOL    HW165684   3.569   2.328   1.586
87929SOL    HW265685   3.508   2.221   1.674
87930SOL     OW65686  14.500   5.518   5.664
87930SOL    HW165687  14.458   5.438   5.631
87930SOL    HW265688  14.549   5.552   5.589
87931SOL     OW65689   9.556  12.935  10.633
87931SOL    HW165690   9.499  12.983  10.573
87931SOL    HW265691   9.498  12.879  10.684
87932SOL     OW65692  11.107  13.435   0.878
87932SOL    HW165693  11.097  13.474   0.965
87932SOL    HW265694  11.196  13.401   0.877
87933SOL     OW65695   7.410   8.401   8.662
87933SOL    HW165696   7.323   8.393   8.701
87933SOL    HW265697   7.453   8.317   8.681
87934SOL     OW65698   3.284  10.058   8.556
87934SOL    HW165699   3.339  10.134   8.575
87934SOL    HW265700   3.297  10.042   8.463
87935SOL     OW65701   6.415   0.669   2.087
87935SOL    HW165702   6.442   0.746   2.037
87935SOL    HW265703   6.497   0.632   2.120
87936SOL     OW65704  11.350  14.173  14.452
87936SOL    HW165705  11.446  14.174  14.442
87936SOL    HW265706  11.317  14.169  14.362
87937SOL     OW65707   3.570  12.981   4.494
87937SOL    HW165708   3.535  12.892   4.495
87937SOL    HW265709   3.664  12.970   4.484
87938SOL     OW65710   7.448   2.881   1.554
87938SOL    HW165711   7.544   2.885   1.548
87938SOL    HW265712   7.419   2.872   1.463
87939SOL     OW65713   5.302   5.879  14.439
87939SOL    HW165714   5.265   5.832  14.364
87939SOL    HW265715   5.233   5.940  14.465
87940SOL     OW65716   4.003  13.873   3.729
87940SOL    HW165717   4.012  13.968   3.726
87940SOL    HW265718   3.929  13.857   3.787
87941SOL     OW65719   4.111  11.944   0.706
87941SOL    HW165720   4.154  11.898   0.778
87941SOL    HW265721   4.042  11.995   0.748
87942SOL     OW65722  11.474  10.113   6.046
87942SOL    HW165723  11.406  10.084   5.985
87942SOL    HW265724  11.522  10.033   6.068
87943SOL     OW65725   3.337   7.906  11.395
87943SOL    HW165726   3.411   7.848  11.375
87943SOL    HW265727   3.374   7.972  11.455
87944SOL     OW65728  10.566  11.716  10.294
87944SOL    HW165729  10.518  11.638  10.323
87944SOL    HW265730  10.508  11.789  10.316
87945SOL     OW65731   5.429  10.682  13.096
87945SOL    HW165732   5.346  10.643  13.122
87945SOL    HW265733   5.472  10.613  13.045
87946SOL     OW65734  14.578   6.417  14.204
87946SOL    HW165735  14.505   6.396  14.263
87946SOL    HW265736  14.627   6.335  14.198
87947SOL     OW65737   3.034  14.361  11.979
87947SOL    HW165738   3.104  14.311  11.937
87947SOL    HW265739   3.053  14.452  11.957
87948SOL     OW65740   5.511  11.573   2.399
87948SOL    HW165741   5.450  11.587   2.471
87948SOL    HW265742   5.459  11.528   2.332
87949SOL     OW65743   6.442   7.351   4.129
87949SOL    HW165744   6.412   7.274   4.178
87949SOL    HW265745   6.439   7.422   4.194
87950SOL     OW65746  12.887   4.582  12.483
87950SOL    HW165747  12.889   4.634  12.563
87950SOL    HW265748  12.960   4.615  12.431
87951SOL     OW65749   5.761   9.827   6.210
87951SOL    HW165750   5.749   9.883   6.287
87951SOL    HW265751   5.673   9.795   6.190
87952SOL     OW65752   4.254  12.931   3.382
87952SOL    HW165753   4.159  12.930   3.366
87952SOL    HW265754   4.283  13.015   3.348
87953SOL     OW65755   0.573   2.825   0.650
87953SOL    HW165756   0.519   2.752   0.680
87953SOL    HW265757   0.557   2.831   0.556
87954SOL     OW65758  10.594  10.338   0.378
87954SOL    HW165759  10.689  10.345   0.393
87954SOL    HW265760  10.578  10.243   0.376
87955SOL     OW65761  14.391  13.880   5.719
87955SOL    HW165762  14.393  13.789   5.687
87955SOL    HW265763  14.300  13.907   5.710
87956SOL     OW65764   0.049  12.861   6.281
87956SOL    HW165765   0.121  12.826   6.334
87956SOL    HW265766   0.091  12.899   6.205
87957SOL     OW65767   1.999   6.230   7.948
87957SOL    HW165768   1.974   6.146   7.908
87957SOL    HW265769   2.011   6.289   7.873
87958SOL     OW65770   2.052   4.369   8.764
87958SOL    HW165771   2.113   4.300   8.737
87958SOL    HW265772   2.105   4.448   8.767
87959SOL     OW65773   0.036   7.760  10.493
87959SOL    HW165774   0.116   7.708  10.488
87959SOL    HW265775   0.021   7.773  10.586
87960SOL     OW65776   2.013   8.681  13.177
87960SOL    HW165777   2.042   8.657  13.265
87960SOL    HW265778   1.918   8.666  13.178
87961SOL     OW65779   6.582   7.368   5.276
87961SOL    HW165780   6.573   7.462   5.259
87961SOL    HW265781   6.503   7.344   5.324
87962SOL     OW65782   8.742   5.789   6.408
87962SOL    HW165783   8.656   5.796   6.450
87962SOL    HW265784   8.725   5.736   6.330
87963SOL     OW65785   6.872   4.162  14.631
87963SOL    HW165786   6.918   4.226  14.578
87963SOL    HW265787   6.838   4.212  14.705
87964SOL     OW65788  14.493   3.056   5.761
87964SOL    HW165789  14.449   3.068   5.845
87964SOL    HW265790  14.458   2.973   5.727
87965SOL     OW65791  13.426   4.548   8.614
87965SOL    HW165792  13.373   4.557   8.535
87965SOL    HW265793  13.517   4.547   8.582
87966SOL     OW65794   6.890   9.621  12.729
87966SOL    HW165795   6.843   9.539  12.717
87966SOL    HW265796   6.968   9.597  12.778
87967SOL     OW65797   1.149   6.252  12.829
87967SOL    HW165798   1.058   6.223  12.815
87967SOL    HW265799   1.189   6.246  12.743
87968SOL     OW65800   8.052   0.849  10.034
87968SOL    HW165801   8.145   0.856  10.055
87968SOL    HW265802   8.007   0.876  10.114
87969SOL     OW65803   9.728   7.229   3.992
87969SOL    HW165804   9.636   7.248   3.973
87969SOL    HW265805   9.777   7.299   3.949
87970SOL     OW65806   4.846   3.440   0.981
87970SOL    HW165807   4.769   3.481   1.020
87970SOL    HW265808   4.907   3.511   0.967
87971SOL     OW65809   6.010  11.389  10.190
87971SOL    HW165810   5.988  11.474  10.153
87971SOL    HW265811   5.952  11.327  10.146
87972SOL     OW65812   5.115   2.965   4.028
87972SOL    HW165813   5.069   2.978   4.111
87972SOL    HW265814   5.165   3.046   4.015
87973SOL     OW65815   7.110   6.069   8.721
87973SOL    HW165816   7.051   6.011   8.770
87973SOL    HW265817   7.092   6.156   8.756
87974SOL     OW65818   3.515   1.548  14.689
87974SOL    HW165819   3.579   1.618  14.678
87974SOL    HW265820   3.438   1.578  14.641
87975SOL     OW65821  13.118  11.281   0.335
87975SOL    HW165822  13.024  11.297   0.340
87975SOL    HW265823  13.156  11.367   0.315
87976SOL     OW65824   5.624   9.617  11.651
87976SOL    HW165825   5.580   9.589  11.571
87976SOL    HW265826   5.563   9.678  11.692
87977SOL     OW65827  13.909  12.137   6.471
87977SOL    HW165828  13.954  12.057   6.498
87977SOL    HW265829  13.957  12.167   6.394
87978SOL     OW65830   5.252  10.244   5.162
87978SOL    HW165831   5.220  10.255   5.252
87978SOL    HW265832   5.331  10.297   5.158
87979SOL     OW65833   8.262   4.387   3.700
87979SOL    HW165834   8.313   4.387   3.620
87979SOL    HW265835   8.181   4.433   3.677
87980SOL     OW65836   7.348  11.115  13.844
87980SOL    HW165837   7.303  11.058  13.906
87980SOL    HW265838   7.323  11.081  13.758
87981SOL     OW65839  11.948  13.196   2.426
87981SOL    HW165840  11.920  13.195   2.517
87981SOL    HW265841  12.038  13.166   2.427
87982SOL     OW65842   8.979   4.968   4.933
87982SOL    HW165843   8.974   4.982   4.838
87982SOL    HW265844   8.891   4.985   4.965
87983SOL     OW65845   2.508   9.919  10.365
87983SOL    HW165846   2.549   9.987  10.418
87983SOL    HW265847   2.477   9.854  10.428
87984SOL     OW65848  14.505   6.305   0.983
87984SOL    HW165849  14.448   6.313   1.059
87984SOL    HW265850  14.506   6.212   0.963
87985SOL     OW65851   9.282   3.020  10.557
87985SOL    HW165852   9.210   2.958  10.548
87985SOL    HW265853   9.240   3.105  10.564
87986SOL     OW65854  14.747   8.740   1.232
87986SOL    HW165855  14.840   8.761   1.236
87986SOL    HW265856  14.744   8.649   1.203
87987SOL     OW65857  10.048  11.050  11.294
87987SOL    HW165858  10.029  11.140  11.318
87987SOL    HW265859   9.974  10.999  11.327
87988SOL     OW65860   9.487   7.262   7.639
87988SOL    HW165861   9.450   7.311   7.712
87988SOL    HW265862   9.569   7.307   7.620
87989SOL     OW65863  10.455   9.349   0.533
87989SOL    HW165864  10.418   9.306   0.456
87989SOL    HW265865  10.442   9.442   0.517
87990SOL     OW65866  12.297   2.580  13.347
87990SOL    HW165867  12.219   2.613  13.391
87990SOL    HW265868  12.279   2.488  13.332
87991SOL     OW65869   3.862  10.803   8.328
87991SOL    HW165870   3.921  10.819   8.254
87991SOL    HW265871   3.829  10.890   8.352
87992SOL     OW65872   3.855  12.280  10.920
87992SOL    HW165873   3.950  12.294  10.926
87992SOL    HW265874   3.837  12.280  10.826
87993SOL     OW65875  14.684  10.038   7.350
87993SOL    HW165876  14.778  10.043   7.329
87993SOL    HW265877  14.650  10.123   7.324
87994SOL     OW65878  10.277   9.611   8.166
87994SOL    HW165879  10.305   9.703   8.169
87994SOL    HW265880  10.315   9.573   8.246
87995SOL     OW65881   9.037   4.642   4.604
87995SOL    HW165882   9.035   4.592   4.522
87995SOL    HW265883   9.115   4.696   4.597
87996SOL     OW65884   6.184   9.523   4.549
87996SOL    HW165885   6.107   9.557   4.504
87996SOL    HW265886   6.257   9.543   4.490
87997SOL     OW65887   5.268   8.274  11.068
87997SOL    HW165888   5.236   8.190  11.033
87997SOL    HW265889   5.201   8.337  11.044
87998SOL     OW65890  10.096  14.031   0.115
87998SOL    HW165891  10.072  14.122   0.098
87998SOL    HW265892  10.014  13.982   0.109
87999SOL     OW65893   6.995  13.443  13.361
87999SOL    HW165894   7.086  13.462  13.339
87999SOL    HW265895   6.985  13.349  13.345
88000SOL     OW65896  13.767   2.721   1.530
88000SOL    HW165897  13.731   2.783   1.593
88000SOL    HW265898  13.754   2.635   1.571
88001SOL     OW65899   0.389   1.818   8.022
88001SOL    HW165900   0.391   1.914   8.028
88001SOL    HW265901   0.390   1.789   8.113
88002SOL     OW65902   1.671   2.251   0.295
88002SOL    HW165903   1.682   2.325   0.235
88002SOL    HW265904   1.756   2.241   0.338
88003SOL     OW65905   5.215   8.735   5.608
88003SOL    HW165906   5.182   8.750   5.519
88003SOL    HW265907   5.310   8.728   5.597
88004SOL     OW65908   7.034   6.558   0.157
88004SOL    HW165909   7.023   6.610   0.077
88004SOL    HW265910   6.951   6.568   0.203
88005SOL     OW65911   5.494   2.543   6.616
88005SOL    HW165912   5.431   2.486   6.659
88005SOL    HW265913   5.450   2.628   6.609
88006SOL     OW65914   9.935   4.759   3.728
88006SOL    HW165915   9.870   4.768   3.798
88006SOL    HW265916   9.915   4.830   3.667
88007SOL     OW65917   7.775   4.864   8.941
88007SOL    HW165918   7.817   4.886   9.024
88007SOL    HW265919   7.846   4.830   8.887
88008SOL     OW65920   9.186   9.335  11.996
88008SOL    HW165921   9.115   9.395  11.974
88008SOL    HW265922   9.235   9.324  11.914
88009SOL     OW65923   0.991   2.959   6.360
88009SOL    HW165924   1.084   2.976   6.348
88009SOL    HW265925   0.948   3.042   6.336
88010SOL     OW65926  14.370  13.943  10.636
88010SOL    HW165927  14.441  13.895  10.679
88010SOL    HW265928  14.300  13.946  10.701
88011SOL     OW65929   1.024   8.461   9.997
88011SOL    HW165930   1.035   8.389   9.936
88011SOL    HW265931   1.031   8.540   9.943
88012SOL     OW65932  13.954  14.354   6.748
88012SOL    HW165933  14.027  14.383   6.693
88012SOL    HW265934  13.935  14.265   6.718
88013SOL     OW65935  13.238  11.288  13.461
88013SOL    HW165936  13.220  11.351  13.392
88013SOL    HW265937  13.327  11.257  13.441
88014SOL     OW65938   4.671   4.373   7.329
88014SOL    HW165939   4.675   4.391   7.423
88014SOL    HW265940   4.663   4.459   7.288
88015SOL     OW65941  13.739   7.843   9.232
88015SOL    HW165942  13.689   7.856   9.151
88015SOL    HW265943  13.804   7.913   9.232
88016SOL     OW65944   7.244   5.956   0.223
88016SOL    HW165945   7.206   5.894   0.161
88016SOL    HW265946   7.276   6.028   0.168
88017SOL     OW65947  12.654   4.938   7.868
88017SOL    HW165948  12.675   4.852   7.833
88017SOL    HW265949  12.647   4.925   7.962
88018SOL     OW65950   8.570   3.950   5.206
88018SOL    HW165951   8.550   3.882   5.271
88018SOL    HW265952   8.596   4.026   5.258
88019SOL     OW65953   8.567  14.225   0.389
88019SOL    HW165954   8.644  14.275   0.361
88019SOL    HW265955   8.537  14.270   0.468
88020SOL     OW65956   2.959   2.989  10.657
88020SOL    HW165957   2.933   2.898  10.643
88020SOL    HW265958   2.929   3.035  10.578
88021SOL     OW65959   9.210   9.714   7.854
88021SOL    HW165960   9.131   9.747   7.896
88021SOL    HW265961   9.205   9.619   7.863
88022SOL     OW65962  12.902   2.567  13.058
88022SOL    HW165963  12.859   2.506  13.118
88022SOL    HW265964  12.932   2.638  13.114
88023SOL     OW65965   1.898  13.725  14.836
88023SOL    HW165966   1.896  13.669  14.758
88023SOL    HW265967   1.806  13.744  14.854
88024SOL     OW65968   5.220   4.204   5.856
88024SOL    HW165969   5.217   4.120   5.810
88024SOL    HW265970   5.312   4.214   5.882
88025SOL     OW65971   1.071  13.126   6.850
88025SOL    HW165972   1.018  13.127   6.770
88025SOL    HW265973   1.162  13.130   6.818
88026SOL     OW65974   1.185   6.270   9.825
88026SOL    HW165975   1.262   6.226   9.861
88026SOL    HW265976   1.173   6.230   9.739
88027SOL     OW65977  11.608   7.001  14.652
88027SOL    HW165978  11.692   7.036  14.683
88027SOL    HW265979  11.622   6.982  14.560
88028SOL     OW65980   0.493   1.917   6.105
88028SOL    HW165981   0.458   1.901   6.193
88028SOL    HW265982   0.558   1.848   6.092
88029SOL     OW65983   9.176  14.193  12.845
88029SOL    HW165984   9.192  14.226  12.757
88029SOL    HW265985   9.201  14.100  12.841
88030SOL     OW65986  10.988  12.718   2.438
88030SOL    HW165987  11.044  12.794   2.451
88030SOL    HW265988  11.022  12.676   2.358
88031SOL     OW65989   2.649   7.177   7.730
88031SOL    HW165990   2.589   7.243   7.767
88031SOL    HW265991   2.666   7.117   7.802
88032SOL     OW65992   4.391   5.902   6.639
88032SOL    HW165993   4.299   5.876   6.640
88032SOL    HW265994   4.438   5.825   6.672
88033SOL     OW65995   9.971   8.029   0.923
88033SOL    HW165996  10.008   8.116   0.908
88033SOL    HW265997   9.953   8.026   1.017
88034SOL     OW65998  13.724  11.122   7.900
88034SOL    HW165999  13.789  11.106   7.969
88034SOL    HW266000  13.761  11.194   7.848
88035SOL     OW66001  11.744   3.950   2.674
88035SOL    HW166002  11.786   4.034   2.692
88035SOL    HW266003  11.759   3.898   2.753
88036SOL     OW66004  12.994   5.772   4.863
88036SOL    HW166005  13.078   5.737   4.831
88036SOL    HW266006  12.962   5.825   4.790
88037SOL     OW66007   7.810  12.111  11.283
88037SOL    HW166008   7.776  12.162  11.356
88037SOL    HW266009   7.894  12.076  11.315
88038SOL     OW66010   2.310  12.679  11.246
88038SOL    HW166011   2.400  12.668  11.215
88038SOL    HW266012   2.257  12.638  11.179
88039SOL     OW66013   7.823   8.292  12.536
88039SOL    HW166014   7.763   8.298  12.611
88039SOL    HW266015   7.823   8.199  12.512
88040SOL     OW66016   7.107   7.482  10.949
88040SOL    HW166017   7.151   7.501  10.866
88040SOL    HW266018   7.174   7.495  11.016
88041SOL     OW66019   5.543   7.863  12.920
88041SOL    HW166020   5.597   7.833  12.847
88041SOL    HW266021   5.606   7.894  12.985
88042SOL     OW66022  10.489   2.787   8.440
88042SOL    HW166023  10.471   2.719   8.375
88042SOL    HW266024  10.460   2.868   8.399
88043SOL     OW66025   6.111  14.642  11.438
88043SOL    HW166026   6.176  14.601  11.382
88043SOL    HW266027   6.027  14.624  11.395
88044SOL     OW66028   3.023   1.148   3.250
88044SOL    HW166029   2.996   1.056   3.241
88044SOL    HW266030   3.094   1.158   3.187
88045SOL     OW66031   8.826   7.041  10.474
88045SOL    HW166032   8.913   7.031  10.512
88045SOL    HW266033   8.839   7.027  10.380
88046SOL     OW66034   1.866   7.315   3.641
88046SOL    HW166035   1.774   7.298   3.624
88046SOL    HW266036   1.866   7.390   3.701
88047SOL     OW66037  12.144   9.744   1.997
88047SOL    HW166038  12.168   9.818   1.942
88047SOL    HW266039  12.183   9.763   2.082
88048SOL     OW66040  14.632   4.901   4.055
88048SOL    HW166041  14.649   4.992   4.028
88048SOL    HW266042  14.551   4.905   4.105
88049SOL     OW66043   6.092   3.923  13.131
88049SOL    HW166044   6.148   3.994  13.098
88049SOL    HW266045   6.050   3.887  13.052
88050SOL     OW66046   0.288   9.206   3.896
88050SOL    HW166047   0.228   9.227   3.825
88050SOL    HW266048   0.232   9.166   3.964
88051SOL     OW66049   9.041  14.409   6.730
88051SOL    HW166050   9.027  14.489   6.680
88051SOL    HW266051   8.980  14.415   6.804
88052SOL     OW66052   5.132  12.963  13.647
88052SOL    HW166053   5.163  12.874  13.630
88052SOL    HW266054   5.183  13.018  13.589
88053SOL     OW66055   2.257   5.066  10.642
88053SOL    HW166056   2.177   5.102  10.604
88053SOL    HW266057   2.225   4.999  10.704
88054SOL     OW66058   2.532   8.480   1.418
88054SOL    HW166059   2.596   8.533   1.370
88054SOL    HW266060   2.462   8.465   1.355
88055SOL     OW66061   4.596   8.472   8.028
88055SOL    HW166062   4.576   8.505   7.940
88055SOL    HW266063   4.515   8.431   8.058
88056SOL     OW66064   0.573   6.697   9.564
88056SOL    HW166065   0.537   6.609   9.560
88056SOL    HW266066   0.648   6.696   9.505
88057SOL     OW66067   4.897   6.183   5.473
88057SOL    HW166068   4.903   6.215   5.563
88057SOL    HW266069   4.981   6.209   5.434
88058SOL     OW66070   8.372   4.584   6.728
88058SOL    HW166071   8.277   4.579   6.734
88058SOL    HW266072   8.400   4.604   6.818
88059SOL     OW66073   3.239   1.012  11.964
88059SOL    HW166074   3.325   1.034  11.926
88059SOL    HW266075   3.197   0.958  11.897
88060SOL     OW66076   4.944   7.925  13.442
88060SOL    HW166077   5.019   7.866  13.431
88060SOL    HW266078   4.868   7.869  13.428
88061SOL     OW66079   7.398   9.836   7.347
88061SOL    HW166080   7.346   9.916   7.344
88061SOL    HW266081   7.344   9.771   7.303
88062SOL     OW66082   5.601   0.558  13.817
88062SOL    HW166083   5.662   0.555  13.891
88062SOL    HW266084   5.553   0.640  13.829
88063SOL     OW66085  11.491   2.368   4.261
88063SOL    HW166086  11.539   2.339   4.338
88063SOL    HW266087  11.433   2.294   4.241
88064SOL     OW66088   1.135   0.914  11.684
88064SOL    HW166089   1.096   0.919  11.771
88064SOL    HW266090   1.219   0.870  11.698
88065SOL     OW66091   1.060   5.938  13.100
88065SOL    HW166092   1.134   5.907  13.047
88065SOL    HW266093   0.986   5.939  13.038
88066SOL     OW66094   4.137   3.375   3.937
88066SOL    HW166095   4.172   3.293   3.901
88066SOL    HW266096   4.104   3.422   3.861
88067SOL     OW66097  10.728   2.512   8.511
88067SOL    HW166098  10.804   2.455   8.496
88067SOL    HW266099  10.684   2.515   8.426
88068SOL     OW66100  11.838  14.337   5.824
88068SOL    HW166101  11.788  14.292   5.893
88068SOL    HW266102  11.810  14.429   5.832
88069SOL     OW66103   5.511   0.621  10.025
88069SOL    HW166104   5.532   0.689  10.089
88069SOL    HW266105   5.591   0.569  10.019
88070SOL     OW66106   7.975   2.757  10.260
88070SOL    HW166107   7.992   2.824  10.326
88070SOL    HW266108   8.060   2.743  10.218
88071SOL     OW66109  11.102  13.580   8.033
88071SOL    HW166110  11.155  13.613   7.961
88071SOL    HW266111  11.151  13.603   8.112
88072SOL     OW66112   8.873  11.935   4.919
88072SOL    HW166113   8.837  11.846   4.924
88072SOL    HW266114   8.836  11.980   4.995
88073SOL     OW66115   0.826   1.829  13.820
88073SOL    HW166116   0.885   1.903  13.836
88073SOL    HW266117   0.750   1.867  13.777
88074SOL     OW66118  13.684  10.173  10.939
88074SOL    HW166119  13.745  10.102  10.919
88074SOL    HW266120  13.728  10.224  11.007
88075SOL     OW66121  12.781   9.501  10.627
88075SOL    HW166122  12.733   9.467  10.551
88075SOL    HW266123  12.717   9.553  10.675
88076SOL     OW66124   0.631  13.995   3.888
88076SOL    HW166125   0.703  13.960   3.835
88076SOL    HW266126   0.581  13.917   3.915
88077SOL     OW66127   1.050   1.635   8.315
88077SOL    HW166128   1.011   1.590   8.240
88077SOL    HW266129   0.975   1.673   8.361
88078SOL     OW66130   9.099   5.002   9.987
88078SOL    HW166131   9.085   4.973   9.897
88078SOL    HW266132   9.192   4.986  10.003
88079SOL     OW66133   2.085   9.222   9.646
88079SOL    HW166134   2.132   9.154   9.696
88079SOL    HW266135   2.007   9.178   9.613
88080SOL     OW66136  10.603   9.729   0.182
88080SOL    HW166137  10.600   9.781   0.101
88080SOL    HW266138  10.687   9.683   0.176
88081SOL     OW66139   9.615   8.485   5.376
88081SOL    HW166140   9.546   8.436   5.331
88081SOL    HW266141   9.591   8.577   5.365
88082SOL     OW66142   7.779   9.777   5.713
88082SOL    HW166143   7.774   9.722   5.635
88082SOL    HW266144   7.707   9.746   5.769
88083SOL     OW66145   4.674   9.103  13.236
88083SOL    HW166146   4.610   9.037  13.210
88083SOL    HW266147   4.684   9.158  13.159
88084SOL     OW66148   8.555   4.996  13.365
88084SOL    HW166149   8.566   4.999  13.460
88084SOL    HW266150   8.622   4.935  13.335
88085SOL     OW66151   7.684   7.739   8.254
88085SOL    HW166152   7.740   7.665   8.279
88085SOL    HW266153   7.720   7.813   8.303
88086SOL     OW66154   7.429  13.215   6.056
88086SOL    HW166155   7.410  13.128   6.021
88086SOL    HW266156   7.354  13.269   6.029
88087SOL     OW66157   5.540  10.253   7.645
88087SOL    HW166158   5.554  10.342   7.614
88087SOL    HW266159   5.457  10.257   7.693
88088SOL     OW66160   4.528   1.828   5.577
88088SOL    HW166161   4.612   1.809   5.621
88088SOL    HW266162   4.462   1.798   5.639
88089SOL     OW66163  10.231   0.140  14.018
88089SOL    HW166164  10.175   0.177  13.950
88089SOL    HW266165  10.187   0.059  14.043
88090SOL     OW66166   3.884   5.796   7.093
88090SOL    HW166167   3.903   5.767   7.004
88090SOL    HW266168   3.969   5.810   7.133
88091SOL     OW66169  11.040  11.022   4.110
88091SOL    HW166170  11.067  10.958   4.044
88091SOL    HW266171  11.101  11.009   4.182
88092SOL     OW66172   9.289   4.958   2.702
88092SOL    HW166173   9.206   4.927   2.666
88092SOL    HW266174   9.297   4.914   2.786
88093SOL     OW66175  10.600  12.781   6.737
88093SOL    HW166176  10.626  12.734   6.816
88093SOL    HW266177  10.668  12.848   6.725
88094SOL     OW66178   6.634   9.201  13.522
88094SOL    HW166179   6.658   9.117  13.562
88094SOL    HW266180   6.709   9.258  13.539
88095SOL     OW66181   5.907   7.306   1.055
88095SOL    HW166182   5.987   7.297   1.105
88095SOL    HW266183   5.923   7.382   0.998
88096SOL     OW66184   4.979   7.630   6.620
88096SOL    HW166185   5.061   7.611   6.575
88096SOL    HW266186   4.940   7.702   6.568
88097SOL     OW66187   1.897   5.976   7.912
88097SOL    HW166188   1.854   5.938   7.835
88097SOL    HW266189   1.827   5.982   7.977
88098SOL     OW66190   9.610   8.645   4.417
88098SOL    HW166191   9.547   8.647   4.488
88098SOL    HW266192   9.580   8.576   4.358
88099SOL     OW66193   1.688   0.430   7.648
88099SOL    HW166194   1.763   0.370   7.657
88099SOL    HW266195   1.719   0.512   7.685
88100SOL     OW66196  10.161  12.917   5.873
88100SOL    HW166197  10.131  12.894   5.961
88100SOL    HW266198  10.226  12.986   5.887
88101SOL     OW66199   4.209   9.697  13.232
88101SOL    HW166200   4.130   9.645  13.228
88101SOL    HW266201   4.245   9.679  13.319
88102SOL     OW66202   3.191  12.631  10.859
88102SOL    HW166203   3.187  12.570  10.932
88102SOL    HW266204   3.135  12.592  10.792
88103SOL     OW66205   3.117   7.779   0.795
88103SOL    HW166206   3.137   7.707   0.855
88103SOL    HW266207   3.071   7.843   0.850
88104SOL     OW66208   5.315   0.183  13.925
88104SOL    HW166209   5.233   0.227  13.901
88104SOL    HW266210   5.383   0.233  13.879
88105SOL     OW66211   4.886   8.944  13.060
88105SOL    HW166212   4.896   9.039  13.060
88105SOL    HW266213   4.925   8.915  13.142
88106SOL     OW66214  10.942   8.536   5.747
88106SOL    HW166215  10.884   8.611   5.732
88106SOL    HW266216  10.991   8.558   5.826
88107SOL     OW66217   3.850  14.320   8.069
88107SOL    HW166218   3.804  14.274   8.139
88107SOL    HW266219   3.941  14.289   8.075
88108SOL     OW66220   9.155   4.170   4.867
88108SOL    HW166221   9.075   4.186   4.817
88108SOL    HW266222   9.160   4.243   4.929
88109SOL     OW66223  14.657   8.474   2.972
88109SOL    HW166224  14.731   8.528   2.996
88109SOL    HW266225  14.670   8.392   3.020
88110SOL     OW66226   0.915  10.768   3.196
88110SOL    HW166227   0.961  10.685   3.193
88110SOL    HW266228   0.979  10.831   3.230
88111SOL     OW66229   0.901   5.096   1.943
88111SOL    HW166230   0.986   5.133   1.965
88111SOL    HW266231   0.891   5.021   2.002
88112SOL     OW66232   1.426   2.216  10.618
88112SOL    HW166233   1.398   2.186  10.531
88112SOL    HW266234   1.515   2.182  10.627
88113SOL     OW66235   2.883   0.224   6.656
88113SOL    HW166236   2.960   0.272   6.685
88113SOL    HW266237   2.811   0.287   6.664
88114SOL     OW66238   2.966   9.982  13.044
88114SOL    HW166239   2.920  10.050  12.995
88114SOL    HW266240   2.910   9.905  13.038
88115SOL     OW66241   0.550   0.643   7.244
88115SOL    HW166242   0.517   0.733   7.240
88115SOL    HW266243   0.644   0.651   7.231
88116SOL     OW66244  13.591   0.438   1.442
88116SOL    HW166245  13.562   0.347   1.449
88116SOL    HW266246  13.631   0.443   1.355
88117SOL     OW66247  10.054   7.943   0.448
88117SOL    HW166248  10.109   7.985   0.513
88117SOL    HW266249  10.022   7.864   0.491
88118SOL     OW66250   0.470   9.662   2.100
88118SOL    HW166251   0.537   9.615   2.149
88118SOL    HW266252   0.495   9.652   2.008
88119SOL     OW66253  11.566   6.076   0.829
88119SOL    HW166254  11.563   6.170   0.811
88119SOL    HW266255  11.659   6.053   0.822
88120SOL     OW66256   8.047   1.098   6.494
88120SOL    HW166257   8.081   1.088   6.583
88120SOL    HW266258   8.023   1.190   6.488
88121SOL     OW66259  11.783   5.470  13.181
88121SOL    HW166260  11.689   5.474  13.163
88121SOL    HW266261  11.798   5.542  13.243
88122SOL     OW66262   0.179   7.910   2.030
88122SOL    HW166263   0.170   8.002   2.006
88122SOL    HW266264   0.090   7.877   2.033
88123SOL     OW66265   3.550   0.842   0.857
88123SOL    HW166266   3.626   0.870   0.806
88123SOL    HW266267   3.586   0.787   0.927
88124SOL     OW66268   5.620   0.420  12.785
88124SOL    HW166269   5.652   0.351  12.727
88124SOL    HW266270   5.554   0.377  12.839
88125SOL     OW66271  10.707  13.740  12.065
88125SOL    HW166272  10.782  13.689  12.096
88125SOL    HW266273  10.670  13.779  12.144
88126SOL     OW66274  11.122   6.618   0.921
88126SOL    HW166275  11.073   6.640   0.842
88126SOL    HW266276  11.098   6.686   0.984
88127SOL     OW66277   1.165   9.479  12.345
88127SOL    HW166278   1.140   9.504  12.257
88127SOL    HW266279   1.256   9.450  12.337
88128SOL     OW66280   4.658   5.743   4.967
88128SOL    HW166281   4.734   5.713   4.917
88128SOL    HW266282   4.649   5.678   5.037
88129SOL     OW66283  11.929  14.531   0.919
88129SOL    HW166284  11.842  14.569   0.907
88129SOL    HW266285  11.941  14.527   1.014
88130SOL     OW66286  13.958  13.501   8.399
88130SOL    HW166287  14.051  13.482   8.383
88130SOL    HW266288  13.956  13.530   8.490
88131SOL     OW66289   7.129   0.354   4.527
88131SOL    HW166290   7.116   0.265   4.560
88131SOL    HW266291   7.041   0.386   4.510
88132SOL     OW66292   4.351  13.497   8.876
88132SOL    HW166293   4.286  13.462   8.937
88132SOL    HW266294   4.423  13.434   8.878
88133SOL     OW66295   6.354   6.419   0.673
88133SOL    HW166296   6.264   6.450   0.687
88133SOL    HW266297   6.391   6.412   0.762
88134SOL     OW66298  14.360   0.117   5.337
88134SOL    HW166299  14.363   0.204   5.376
88134SOL    HW266300  14.272   0.109   5.301
88135SOL     OW66301   2.842   3.492   5.833
88135SOL    HW166302   2.937   3.479   5.837
88135SOL    HW266303   2.819   3.468   5.743
88136SOL     OW66304   3.610   8.656   0.882
88136SOL    HW166305   3.539   8.691   0.936
88136SOL    HW266306   3.600   8.561   0.887
88137SOL     OW66307   7.479   3.940  12.608
88137SOL    HW166308   7.442   4.010  12.554
88137SOL    HW266309   7.465   3.969  12.698
88138SOL     OW66310  13.102   1.002  14.330
88138SOL    HW166311  13.109   0.908  14.320
88138SOL    HW266312  13.048   1.015  14.408
88139SOL     OW66313   3.534   1.353   8.562
88139SOL    HW166314   3.520   1.316   8.475
88139SOL    HW266315   3.610   1.410   8.551
88140SOL     OW66316  10.932  10.737   5.386
88140SOL    HW166317  10.969  10.805   5.443
88140SOL    HW266318  10.907  10.667   5.445
88141SOL     OW66319   9.743  11.512   5.470
88141SOL    HW166320   9.682  11.472   5.407
88141SOL    HW266321   9.711  11.482   5.555
88142SOL     OW66322   7.829   6.334   6.510
88142SOL    HW166323   7.791   6.308   6.594
88142SOL    HW266324   7.908   6.383   6.533
88143SOL     OW66325   0.687   2.940   8.618
88143SOL    HW166326   0.697   2.887   8.697
88143SOL    HW266327   0.766   2.922   8.567
88144SOL     OW66328  11.135  14.363  10.047
88144SOL    HW166329  11.191  14.322  10.113
88144SOL    HW266330  11.092  14.289  10.003
88145SOL     OW66331   8.812  11.974   8.361
88145SOL    HW166332   8.796  12.003   8.271
88145SOL    HW266333   8.730  11.991   8.407
88146SOL     OW66334  12.411   3.976   2.751
88146SOL    HW166335  12.327   3.954   2.791
88146SOL    HW266336  12.448   4.043   2.808
88147SOL     OW66337   3.514  14.780   6.131
88147SOL    HW166338   3.501  14.801   6.039
88147SOL    HW266339   3.585  14.838   6.159
88148SOL     OW66340   4.263   6.549  12.274
88148SOL    HW166341   4.273   6.550  12.179
88148SOL    HW266342   4.308   6.470  12.303
88149SOL     OW66343  11.091  13.323  10.814
88149SOL    HW166344  11.007  13.300  10.775
88149SOL    HW266345  11.115  13.406  10.774
88150SOL     OW66346  10.751   3.608  11.292
88150SOL    HW166347  10.719   3.692  11.326
88150SOL    HW266348  10.730   3.545  11.360
88151SOL     OW66349   2.192   9.374  11.223
88151SOL    HW166350   2.232   9.320  11.155
88151SOL    HW266351   2.239   9.352  11.303
88152SOL     OW66352   9.739   7.583   9.614
88152SOL    HW166353   9.717   7.567   9.706
88152SOL    HW266354   9.723   7.500   9.570
88153SOL     OW66355  14.017   2.793  12.523
88153SOL    HW166356  14.073   2.857  12.479
88153SOL    HW266357  13.948   2.773  12.460
88154SOL     OW66358   6.413   7.855   0.434
88154SOL    HW166359   6.381   7.910   0.363
88154SOL    HW266360   6.496   7.820   0.402
88155SOL     OW66361   9.223   8.294   2.224
88155SOL    HW166362   9.277   8.351   2.169
88155SOL    HW266363   9.282   8.263   2.293
88156SOL     OW66364   3.389   4.059   1.432
88156SOL    HW166365   3.351   3.973   1.413
88156SOL    HW266366   3.322   4.103   1.484
88157SOL     OW66367   2.998   0.482   0.719
88157SOL    HW166368   3.026   0.424   0.647
88157SOL    HW266369   2.955   0.424   0.781
88158SOL     OW66370   5.813   5.807  14.710
88158SOL    HW166371   5.751   5.804  14.638
88158SOL    HW266372   5.875   5.736  14.691
88159SOL     OW66373   2.598   3.715   1.228
88159SOL    HW166374   2.504   3.718   1.214
88159SOL    HW266375   2.634   3.694   1.142
88160SOL     OW66376  13.964  11.692   6.121
88160SOL    HW166377  13.999  11.612   6.160
88160SOL    HW266378  13.931  11.742   6.196
88161SOL     OW66379   2.876  13.345   1.501
88161SOL    HW166380   2.823  13.424   1.504
88161SOL    HW266381   2.948  13.366   1.442
88162SOL     OW66382   2.187   0.604  13.896
88162SOL    HW166383   2.202   0.556  13.977
88162SOL    HW266384   2.167   0.693  13.924
88163SOL     OW66385   9.973   1.403  14.024
88163SOL    HW166386  10.055   1.383  14.069
88163SOL    HW266387   9.905   1.379  14.086
88164SOL     OW66388   3.150   2.408   4.741
88164SOL    HW166389   3.087   2.420   4.812
88164SOL    HW266390   3.233   2.438   4.777
88165SOL     OW66391   4.604   1.899   9.373
88165SOL    HW166392   4.543   1.865   9.308
88165SOL    HW266393   4.574   1.988   9.391
88166SOL     OW66394  13.236  12.335  10.816
88166SOL    HW166395  13.304  12.327  10.883
88166SOL    HW266396  13.219  12.429  10.811
88167SOL     OW66397  11.863   6.343  12.473
88167SOL    HW166398  11.949   6.303  12.463
88167SOL    HW266399  11.820   6.289  12.539
88168SOL     OW66400   7.137   6.448  13.996
88168SOL    HW166401   7.180   6.528  13.965
88168SOL    HW266402   7.132   6.458  14.091
88169SOL     OW66403  12.026  12.024   4.250
88169SOL    HW166404  11.941  12.067   4.251
88169SOL    HW266405  12.024  11.969   4.171
88170SOL     OW66406   6.114  11.717  12.978
88170SOL    HW166407   6.072  11.751  12.899
88170SOL    HW266408   6.203  11.752  12.975
88171SOL     OW66409  13.460   6.411   9.811
88171SOL    HW166410  13.532   6.384   9.754
88171SOL    HW266411  13.381   6.385   9.763
88172SOL     OW66412   0.197   9.589   1.732
88172SOL    HW166413   0.229   9.657   1.674
88172SOL    HW266414   0.232   9.612   1.818
88173SOL     OW66415   2.766   8.484  13.302
88173SOL    HW166416   2.853   8.524  13.298
88173SOL    HW266417   2.752   8.466  13.395
88174SOL     OW66418  14.714  12.760   3.475
88174SOL    HW166419  14.751  12.744   3.562
88174SOL    HW266420  14.729  12.678   3.428
88175SOL     OW66421   3.380  14.862  13.859
88175SOL    HW166422   3.382   0.080  13.821
88175SOL    HW266423   3.335   0.004  13.943
88176SOL     OW66424   3.194  11.067  10.915
88176SOL    HW166425   3.200  11.066  11.010
88176SOL    HW266426   3.225  11.154  10.890
88177SOL     OW66427   9.562  10.160  14.590
88177SOL    HW166428   9.647  10.204  14.589
88177SOL    HW266429   9.519  10.195  14.668
88178SOL     OW66430  10.116  11.273  14.115
88178SOL    HW166431  10.026  11.262  14.084
88178SOL    HW266432  10.171  11.242  14.043
88179SOL     OW66433  13.853  11.014   0.874
88179SOL    HW166434  13.901  10.959   0.936
88179SOL    HW266435  13.829  11.092   0.924
88180SOL     OW66436  10.083   8.149   4.208
88180SOL    HW166437  10.093   8.176   4.117
88180SOL    HW266438  10.169   8.113   4.232
88181SOL     OW66439   8.389  10.362   0.706
88181SOL    HW166440   8.304  10.335   0.672
88181SOL    HW266441   8.397  10.454   0.680
88182SOL     OW66442   3.931   4.939  10.465
88182SOL    HW166443   4.023   4.948  10.440
88182SOL    HW266444   3.883   4.943  10.382
88183SOL     OW66445  11.928   0.726  14.693
88183SOL    HW166446  12.010   0.729  14.643
88183SOL    HW266447  11.894   0.815  14.690
88184SOL     OW66448   4.349  10.864   6.804
88184SOL    HW166449   4.369  10.824   6.888
88184SOL    HW266450   4.280  10.809   6.766
88185SOL     OW66451  14.515   9.111   5.615
88185SOL    HW166452  14.421   9.105   5.599
88185SOL    HW266453  14.540   9.023   5.642
88186SOL     OW66454  11.787  13.394   9.830
88186SOL    HW166455  11.835  13.360   9.907
88186SOL    HW266456  11.711  13.439   9.867
88187SOL     OW66457   7.849  14.667   8.055
88187SOL    HW166458   7.816  14.658   8.144
88187SOL    HW266459   7.778  14.633   8.000
88188SOL     OW66460  10.858  12.462  13.405
88188SOL    HW166461  10.795  12.478  13.475
88188SOL    HW266462  10.930  12.522  13.423
88189SOL     OW66463  12.214  10.555  13.179
88189SOL    HW166464  12.188  10.545  13.271
88189SOL    HW266465  12.213  10.649  13.164
88190SOL     OW66466  12.250   7.838   8.282
88190SOL    HW166467  12.183   7.906   8.295
88190SOL    HW266468  12.238   7.812   8.190
88191SOL     OW66469   4.316   8.876   5.789
88191SOL    HW166470   4.409   8.869   5.814
88191SOL    HW266471   4.282   8.943   5.848
88192SOL     OW66472   0.046   4.929  10.036
88192SOL    HW166473  14.861   4.857  10.070
88192SOL    HW266474   0.134   4.892  10.034
88193SOL     OW66475  13.382  13.871   2.642
88193SOL    HW166476  13.359  13.780   2.660
88193SOL    HW266477  13.314  13.901   2.582
88194SOL     OW66478  12.027   2.265   6.901
88194SOL    HW166479  11.992   2.339   6.851
88194SOL    HW266480  12.032   2.194   6.837
88195SOL     OW66481  11.054   6.479   9.860
88195SOL    HW166482  11.094   6.551   9.812
88195SOL    HW266483  11.092   6.485   9.948
88196SOL     OW66484   9.268   7.926   0.324
88196SOL    HW166485   9.323   7.867   0.377
88196SOL    HW266486   9.275   7.891   0.236
88197SOL     OW66487   1.837   6.442   3.419
88197SOL    HW166488   1.907   6.456   3.483
88197SOL    HW266489   1.878   6.387   3.352
88198SOL     OW66490   9.874   5.062  12.316
88198SOL    HW166491   9.818   5.138  12.303
88198SOL    HW266492   9.820   5.000  12.365
88199SOL     OW66493   1.575   7.275   3.683
88199SOL    HW166494   1.540   7.228   3.607
88199SOL    HW266495   1.524   7.356   3.687
88200SOL     OW66496   1.813   6.989  12.267
88200SOL    HW166497   1.726   6.986  12.228
88200SOL    HW266498   1.873   6.995  12.193
88201SOL     OW66499  13.073  12.066  10.282
88201SOL    HW166500  13.037  12.141  10.235
88201SOL    HW266501  13.032  12.070  10.369
88202SOL     OW66502  10.194  11.348   4.828
88202SOL    HW166503  10.216  11.269   4.877
88202SOL    HW266504  10.220  11.328   4.738
88203SOL     OW66505   9.990   0.465   5.069
88203SOL    HW166506  10.081   0.434   5.077
88203SOL    HW266507   9.940   0.386   5.048
88204SOL     OW66508   9.657   7.194  10.815
88204SOL    HW166509   9.730   7.133  10.820
88204SOL    HW266510   9.651   7.218  10.723
88205SOL     OW66511  12.908   7.546   9.461
88205SOL    HW166512  12.830   7.600   9.467
88205SOL    HW266513  12.900   7.501   9.376
88206SOL     OW66514   1.793   8.118  13.241
88206SOL    HW166515   1.865   8.137  13.301
88206SOL    HW266516   1.744   8.048  13.283
88207SOL     OW66517   1.061  14.246   5.274
88207SOL    HW166518   1.072  14.323   5.330
88207SOL    HW266519   0.966  14.231   5.271
88208SOL     OW66520  13.071   5.287   7.436
88208SOL    HW166521  13.138   5.326   7.492
88208SOL    HW266522  12.990   5.332   7.461
88209SOL     OW66523   3.937   7.170   0.659
88209SOL    HW166524   4.014   7.219   0.690
88209SOL    HW266525   3.962   7.139   0.572
88210SOL     OW66526   0.274   3.436  13.020
88210SOL    HW166527   0.303   3.504  13.081
88210SOL    HW266528   0.303   3.466  12.934
88211SOL     OW66529   4.138  11.481  10.052
88211SOL    HW166530   4.066  11.442  10.002
88211SOL    HW266531   4.108  11.569  10.074
88212SOL     OW66532  14.038  13.958   0.124
88212SOL    HW166533  14.012  14.006   0.203
88212SOL    HW266534  14.114  14.007   0.091
88213SOL     OW66535   6.935   0.054  11.063
88213SOL    HW166536   7.026   0.030  11.047
88213SOL    HW266537   6.940   0.142  11.100
88214SOL     OW66538   3.333   2.301   2.954
88214SOL    HW166539   3.244   2.274   2.930
88214SOL    HW266540   3.360   2.236   3.019
88215SOL     OW66541   9.705  14.768   9.168
88215SOL    HW166542   9.798  14.750   9.155
88215SOL    HW266543   9.677  14.708   9.236
88216SOL     OW66544  12.456  13.884   4.956
88216SOL    HW166545  12.431  13.865   5.046
88216SOL    HW266546  12.551  13.894   4.958
88217SOL     OW66547   1.277   3.854   9.034
88217SOL    HW166548   1.316   3.783   9.085
88217SOL    HW266549   1.345   3.878   8.971
88218SOL     OW66550  12.069   0.076   9.821
88218SOL    HW166551  11.986   0.043   9.857
88218SOL    HW266552  12.097   0.009   9.760
88219SOL     OW66553   0.028  12.426   0.760
88219SOL    HW166554   0.123  12.416   0.757
88219SOL    HW266555  14.866  12.386   0.679
88220SOL     OW66556   4.925  11.500  10.689
88220SOL    HW166557   4.973  11.557  10.629
88220SOL    HW266558   4.978  11.420  10.694
88221SOL     OW66559   9.021  11.950   7.224
88221SOL    HW166560   9.037  11.893   7.148
88221SOL    HW266561   8.938  11.919   7.260
88222SOL     OW66562  14.243  10.092  10.912
88222SOL    HW166563  14.265  10.069  11.002
88222SOL    HW266564  14.304  10.040  10.858
88223SOL     OW66565  12.328  11.336   4.891
88223SOL    HW166566  12.392  11.405   4.903
88223SOL    HW266567  12.375  11.267   4.845
88224SOL     OW66568  12.565   9.052   2.432
88224SOL    HW166569  12.653   9.056   2.467
88224SOL    HW266570  12.560   8.966   2.389
88225SOL     OW66571  13.351  11.993   0.663
88225SOL    HW166572  13.397  12.076   0.678
88225SOL    HW266573  13.416  11.926   0.681
88226SOL     OW66574   6.480   0.494  10.065
88226SOL    HW166575   6.501   0.443  10.143
88226SOL    HW266576   6.393   0.463  10.040
88227SOL     OW66577   9.453   5.404  13.262
88227SOL    HW166578   9.534   5.355  13.245
88227SOL    HW266579   9.384   5.337  13.260
88228SOL     OW66580  14.532   5.702   4.074
88228SOL    HW166581  14.559   5.644   4.145
88228SOL    HW266582  14.614   5.736   4.038
88229SOL     OW66583  12.782   3.368  13.834
88229SOL    HW166584  12.711   3.316  13.798
88229SOL    HW266585  12.821   3.313  13.902
88230SOL     OW66586   0.866  10.308  13.358
88230SOL    HW166587   0.957  10.325  13.382
88230SOL    HW266588   0.836  10.242  13.421
88231SOL     OW66589  10.212   5.322   2.496
88231SOL    HW166590  10.278   5.308   2.564
88231SOL    HW266591  10.186   5.234   2.469
88232SOL     OW66592   6.969   4.719   7.961
88232SOL    HW166593   6.963   4.752   8.050
88232SOL    HW266594   7.060   4.690   7.953
88233SOL     OW66595  11.588  13.268  10.707
88233SOL    HW166596  11.660  13.266  10.644
88233SOL    HW266597  11.509  13.273  10.653
88234SOL     OW66598   8.999   6.927   2.320
88234SOL    HW166599   8.910   6.955   2.296
88234SOL    HW266600   9.054   7.002   2.299
88235SOL     OW66601   2.534   8.426   9.953
88235SOL    HW166602   2.470   8.489   9.920
88235SOL    HW266603   2.609   8.479   9.978
88236SOL     OW66604   5.739   8.004  10.131
88236SOL    HW166605   5.665   7.946  10.153
88236SOL    HW266606   5.701   8.092  10.130
88237SOL     OW66607   9.932   0.294  13.287
88237SOL    HW166608   9.841   0.274  13.267
88237SOL    HW266609   9.952   0.372  13.234
88238SOL     OW66610  12.689  10.416   1.430
88238SOL    HW166611  12.691  10.334   1.478
88238SOL    HW266612  12.675  10.483   1.497
88239SOL     OW66613   0.486   7.759   4.972
88239SOL    HW166614   0.431   7.830   4.939
88239SOL    HW266615   0.474   7.688   4.908
88240SOL     OW66616   5.234  14.845   7.570
88240SOL    HW166617   5.166  14.795   7.523
88240SOL    HW266618   5.228  14.815   7.660
88241SOL     OW66619  12.720   7.424   2.618
88241SOL    HW166620  12.696   7.460   2.703
88241SOL    HW266621  12.711   7.497   2.557
88242SOL     OW66622  12.692  11.251   9.215
88242SOL    HW166623  12.706  11.302   9.294
88242SOL    HW266624  12.604  11.275   9.186
88243SOL     OW66625   5.796  10.214   7.698
88243SOL    HW166626   5.829  10.179   7.615
88243SOL    HW266627   5.705  10.239   7.679
88244SOL     OW66628  10.195   8.076  12.287
88244SOL    HW166629  10.152   8.094  12.371
88244SOL    HW266630  10.123   8.067  12.225
88245SOL     OW66631   8.519   0.242   1.990
88245SOL    HW166632   8.545   0.198   2.071
88245SOL    HW266633   8.577   0.317   1.984
88246SOL     OW66634   8.378  14.399  10.668
88246SOL    HW166635   8.369  14.313  10.628
88246SOL    HW266636   8.307  14.403  10.733
88247SOL     OW66637   7.223  12.581   9.052
88247SOL    HW166638   7.166  12.528   9.108
88247SOL    HW266639   7.293  12.521   9.027
88248SOL     OW66640   7.933   8.643   5.516
88248SOL    HW166641   7.885   8.567   5.485
88248SOL    HW266642   8.022   8.631   5.483
88249SOL     OW66643   5.230   5.728   1.568
88249SOL    HW166644   5.207   5.817   1.541
88249SOL    HW266645   5.279   5.740   1.650
88250SOL     OW66646   5.751   8.951  14.625
88250SOL    HW166647   5.670   8.913  14.594
88250SOL    HW266648   5.818   8.916  14.566
88251SOL     OW66649  13.739  10.659  12.587
88251SOL    HW166650  13.772  10.719  12.654
88251SOL    HW266651  13.649  10.687  12.572
88252SOL     OW66652   8.339   8.070  11.437
88252SOL    HW166653   8.300   7.996  11.483
88252SOL    HW266654   8.426   8.080  11.477
88253SOL     OW66655  13.801  13.641  10.653
88253SOL    HW166656  13.727  13.590  10.686
88253SOL    HW266657  13.826  13.697  10.727
88254SOL     OW66658   4.245   2.307   4.907
88254SOL    HW166659   4.176   2.325   4.971
88254SOL    HW266660   4.291   2.390   4.898
88255SOL     OW66661   7.512  13.064  12.394
88255SOL    HW166662   7.475  13.047  12.480
88255SOL    HW266663   7.441  13.046  12.332
88256SOL     OW66664  10.005  11.993   5.993
88256SOL    HW166665  10.088  12.037   6.012
88256SOL    HW266666   9.948  12.062   5.961
88257SOL     OW66667   6.447  12.372   4.193
88257SOL    HW166668   6.505  12.443   4.166
88257SOL    HW266669   6.460  12.303   4.128
88258SOL     OW66670  14.226  13.615   8.692
88258SOL    HW166671  14.296  13.648   8.748
88258SOL    HW266672  14.268  13.605   8.606
88259SOL     OW66673   4.658   9.238   7.477
88259SOL    HW166674   4.596   9.215   7.546
88259SOL    HW266675   4.638   9.177   7.406
88260SOL     OW66676   0.052   3.434   5.848
88260SOL    HW166677   0.011   3.485   5.918
88260SOL    HW266678   0.022   3.477   5.767
88261SOL     OW66679  14.297   4.365   2.284
88261SOL    HW166680  14.348   4.423   2.340
88261SOL    HW266681  14.206   4.380   2.310
88262SOL     OW66682   1.013   5.414   8.426
88262SOL    HW166683   1.057   5.332   8.451
88262SOL    HW266684   0.920   5.395   8.439
88263SOL     OW66685   3.742   3.120   0.577
88263SOL    HW166686   3.719   3.178   0.505
88263SOL    HW266687   3.722   3.032   0.544
88264SOL     OW66688   2.986   2.160   9.602
88264SOL    HW166689   3.076   2.158   9.569
88264SOL    HW266690   2.932   2.141   9.526
88265SOL     OW66691   8.342  11.670   8.175
88265SOL    HW166692   8.377  11.734   8.113
88265SOL    HW266693   8.306  11.723   8.246
88266SOL     OW66694   7.516  13.328   5.786
88266SOL    HW166695   7.597  13.374   5.809
88266SOL    HW266696   7.480  13.299   5.870
88267SOL     OW66697   8.771   3.510  11.176
88267SOL    HW166698   8.742   3.597  11.151
88267SOL    HW266699   8.753   3.505  11.270
88268SOL     OW66700  10.004   6.220  10.354
88268SOL    HW166701   9.930   6.196  10.298
88268SOL    HW266702  10.014   6.314  10.342
88269SOL     OW66703   0.546  10.661   3.440
88269SOL    HW166704   0.521  10.573   3.414
88269SOL    HW266705   0.620  10.649   3.500
88270SOL     OW66706  10.798   7.219   5.755
88270SOL    HW166707  10.765   7.130   5.765
88270SOL    HW266708  10.876   7.223   5.811
88271SOL     OW66709   3.951   9.220   1.199
88271SOL    HW166710   3.899   9.174   1.134
88271SOL    HW266711   4.027   9.253   1.151
88272SOL     OW66712   1.724   8.651   2.665
88272SOL    HW166713   1.638   8.691   2.654
88272SOL    HW266714   1.786   8.723   2.650
88273SOL     OW66715   5.022   0.350  13.382
88273SOL    HW166716   4.935   0.318  13.405
88273SOL    HW266717   5.006   0.436  13.341
88274SOL     OW66718   9.994   3.367   2.611
88274SOL    HW166719   9.914   3.404   2.646
88274SOL    HW266720  10.025   3.307   2.679
88275SOL     OW66721  11.219   7.702  12.797
88275SOL    HW166722  11.284   7.701  12.867
88275SOL    HW266723  11.258   7.757  12.729
88276SOL     OW66724   6.150  12.984   9.517
88276SOL    HW166725   6.211  12.919   9.480
88276SOL    HW266726   6.204  13.036   9.577
88277SOL     OW66727   1.301  14.313   3.028
88277SOL    HW166728   1.335  14.394   3.067
88277SOL    HW266729   1.375  14.252   3.033
88278SOL     OW66730   0.024   3.608  14.154
88278SOL    HW166731   0.050   3.612  14.247
88278SOL    HW266732   0.092   3.554  14.113
88279SOL     OW66733  14.169   5.798   4.758
88279SOL    HW166734  14.116   5.796   4.678
88279SOL    HW266735  14.243   5.742   4.739
88280SOL     OW66736  11.382   1.373   4.266
88280SOL    HW166737  11.297   1.340   4.296
88280SOL    HW266738  11.385   1.349   4.173
88281SOL     OW66739  14.260   0.502  13.601
88281SOL    HW166740  14.320   0.444  13.649
88281SOL    HW266741  14.176   0.456  13.601
88282SOL     OW66742   3.578   2.799  11.502
88282SOL    HW166743   3.618   2.743  11.568
88282SOL    HW266744   3.575   2.744  11.423
88283SOL     OW66745  14.119   0.084  14.626
88283SOL    HW166746  14.095   0.143  14.555
88283SOL    HW266747  14.168   0.138  14.688
88284SOL     OW66748   0.739   7.075   5.438
88284SOL    HW166749   0.722   7.039   5.525
88284SOL    HW266750   0.655   7.068   5.392
88285SOL     OW66751  13.548   7.773   1.443
88285SOL    HW166752  13.563   7.868   1.446
88285SOL    HW266753  13.490   7.761   1.368
88286SOL     OW66754  10.436  12.889   5.688
88286SOL    HW166755  10.350  12.860   5.656
88286SOL    HW266756  10.469  12.815   5.738
88287SOL     OW66757  13.159   6.194  11.308
88287SOL    HW166758  13.230   6.157  11.255
88287SOL    HW266759  13.084   6.199  11.249
88288SOL     OW66760   0.373  12.915   8.717
88288SOL    HW166761   0.287  12.896   8.755
88288SOL    HW266762   0.355  12.927   8.624
88289SOL     OW66763  10.456   3.741   7.654
88289SOL    HW166764  10.528   3.782   7.703
88289SOL    HW266765  10.498   3.672   7.603
88290SOL     OW66766   9.201   4.275   2.859
88290SOL    HW166767   9.127   4.232   2.902
88290SOL    HW266768   9.182   4.268   2.765
88291SOL     OW66769   4.087   0.367   4.627
88291SOL    HW166770   4.085   0.446   4.573
88291SOL    HW266771   4.023   0.385   4.697
88292SOL     OW66772   7.908   7.252   6.745
88292SOL    HW166773   7.925   7.317   6.814
88292SOL    HW266774   7.819   7.271   6.716
88293SOL     OW66775  12.150   6.323   0.245
88293SOL    HW166776  12.174   6.377   0.321
88293SOL    HW266777  12.069   6.280   0.271
88294SOL     OW66778   9.613  12.214   1.520
88294SOL    HW166779   9.550  12.184   1.585
88294SOL    HW266780   9.680  12.145   1.518
88295SOL     OW66781   5.442   1.490   9.264
88295SOL    HW166782   5.356   1.519   9.235
88295SOL    HW266783   5.438   1.493   9.359
88296SOL     OW66784  14.392   9.427   0.499
88296SOL    HW166785  14.304   9.460   0.481
88296SOL    HW266786  14.439   9.502   0.535
88297SOL     OW66787  12.159   9.839   2.999
88297SOL    HW166788  12.131   9.926   2.971
88297SOL    HW266789  12.083   9.782   2.983
88298SOL     OW66790  10.535   9.029  12.851
88298SOL    HW166791  10.509   8.981  12.930
88298SOL    HW266792  10.566   9.113  12.883
88299SOL     OW66793   3.755   4.755   2.917
88299SOL    HW166794   3.806   4.727   2.842
88299SOL    HW266795   3.772   4.849   2.925
88300SOL     OW66796   3.409   4.182   2.481
88300SOL    HW166797   3.443   4.270   2.465
88300SOL    HW266798   3.316   4.187   2.456
88301SOL     OW66799   2.726   9.175   9.609
88301SOL    HW166800   2.667   9.218   9.670
88301SOL    HW266801   2.740   9.087   9.646
88302SOL     OW66802  11.763  12.569   4.096
88302SOL    HW166803  11.787  12.504   4.163
88302SOL    HW266804  11.705  12.522   4.036
88303SOL     OW66805   1.220   2.702   5.127
88303SOL    HW166806   1.155   2.715   5.058
88303SOL    HW266807   1.198   2.616   5.164
88304SOL     OW66808   7.661   7.914  11.186
88304SOL    HW166809   7.639   7.820  11.187
88304SOL    HW266810   7.649   7.942  11.277
88305SOL     OW66811  14.571   6.370   5.193
88305SOL    HW166812  14.549   6.455   5.155
88305SOL    HW266813  14.490   6.321   5.190
88306SOL     OW66814   4.869   9.957   6.166
88306SOL    HW166815   4.853   9.909   6.085
88306SOL    HW266816   4.800   9.927   6.226
88307SOL     OW66817   5.335  11.112   0.559
88307SOL    HW166818   5.311  11.057   0.634
88307SOL    HW266819   5.399  11.060   0.511
88308SOL     OW66820  12.877   6.883  14.313
88308SOL    HW166821  12.871   6.949  14.381
88308SOL    HW266822  12.943   6.821  14.346
88309SOL     OW66823   7.136   7.780   0.054
88309SOL    HW166824   7.208   7.823   0.007
88309SOL    HW266825   7.169   7.771   0.144
88310SOL     OW66826   0.466  13.326   8.318
88310SOL    HW166827   0.460  13.313   8.223
88310SOL    HW266828   0.538  13.387   8.330
88311SOL     OW66829  10.587   4.435  11.566
88311SOL    HW166830  10.555   4.445  11.655
88311SOL    HW266831  10.593   4.340  11.553
88312SOL     OW66832   8.356   7.858  14.583
88312SOL    HW166833   8.289   7.801  14.622
88312SOL    HW266834   8.418   7.874  14.654
88313SOL     OW66835   0.920   2.662  10.937
88313SOL    HW166836   1.005   2.706  10.944
88313SOL    HW266837   0.857   2.732  10.925
88314SOL     OW66838  13.795  14.470   7.331
88314SOL    HW166839  13.803  14.512   7.245
88314SOL    HW266840  13.884  14.440   7.351
88315SOL     OW66841   9.941   0.329  11.616
88315SOL    HW166842   9.852   0.364  11.614
88315SOL    HW266843   9.929   0.234  11.621
88316SOL     OW66844   2.161  11.033   7.408
88316SOL    HW166845   2.220  10.965   7.376
88316SOL    HW266846   2.207  11.116   7.390
88317SOL     OW66847   8.976   7.524   6.319
88317SOL    HW166848   8.982   7.562   6.407
88317SOL    HW266849   8.916   7.450   6.329
88318SOL     OW66850   5.423   7.206   1.531
88318SOL    HW166851   5.498   7.237   1.582
88318SOL    HW266852   5.366   7.283   1.524
88319SOL     OW66853   5.377   0.113   4.463
88319SOL    HW166854   5.338   0.199   4.476
88319SOL    HW266855   5.471   0.129   4.466
88320SOL     OW66856  11.760   5.087   0.632
88320SOL    HW166857  11.831   5.060   0.689
88320SOL    HW266858  11.713   5.155   0.682
88321SOL     OW66859  10.434   5.042   5.608
88321SOL    HW166860  10.395   5.110   5.664
88321SOL    HW266861  10.516   5.081   5.578
88322SOL     OW66862   5.373   5.703  11.093
88322SOL    HW166863   5.393   5.664  11.008
88322SOL    HW266864   5.409   5.792  11.087
88323SOL     OW66865   0.799   2.686   7.159
88323SOL    HW166866   0.887   2.666   7.191
88323SOL    HW266867   0.772   2.607   7.113
88324SOL     OW66868   0.165   2.666  13.685
88324SOL    HW166869   0.199   2.604  13.620
88324SOL    HW266870   0.098   2.616  13.733
88325SOL     OW66871  13.506   5.469  10.317
88325SOL    HW166872  13.538   5.413  10.387
88325SOL    HW266873  13.559   5.444  10.241
88326SOL     OW66874   4.182   4.902   5.714
88326SOL    HW166875   4.096   4.944   5.722
88326SOL    HW266876   4.182   4.833   5.780
88327SOL     OW66877  12.468  13.676  14.205
88327SOL    HW166878  12.559  13.704  14.205
88327SOL    HW266879  12.419  13.752  14.235
88328SOL     OW66880   8.182  11.931   7.924
88328SOL    HW166881   8.256  11.870   7.926
88328SOL    HW266882   8.174  11.963   8.013
88329SOL     OW66883   6.443  14.035   3.912
88329SOL    HW166884   6.499  14.069   3.842
88329SOL    HW266885   6.354  14.054   3.882
88330SOL     OW66886   4.541   6.400  12.371
88330SOL    HW166887   4.622   6.398  12.321
88330SOL    HW266888   4.475   6.364  12.311
88331SOL     OW66889   1.718  12.125   8.863
88331SOL    HW166890   1.722  12.173   8.945
88331SOL    HW266891   1.691  12.036   8.888
88332SOL     OW66892   3.466  13.072  14.754
88332SOL    HW166893   3.465  13.008  14.825
88332SOL    HW266894   3.415  13.031  14.684
88333SOL     OW66895  13.764  11.918   7.665
88333SOL    HW166896  13.856  11.944   7.661
88333SOL    HW266897  13.766  11.823   7.674
88334SOL     OW66898   1.876  11.854   1.454
88334SOL    HW166899   1.797  11.848   1.508
88334SOL    HW266900   1.888  11.948   1.442
88335SOL     OW66901  12.263  10.436  12.568
88335SOL    HW166902  12.357  10.441  12.588
88335SOL    HW266903  12.258  10.444  12.473
88336SOL     OW66904   4.681   0.464   8.101
88336SOL    HW166905   4.690   0.559   8.095
88336SOL    HW266906   4.707   0.442   8.190
88337SOL     OW66907   0.588   2.510  10.431
88337SOL    HW166908   0.636   2.567  10.491
88337SOL    HW266909   0.501   2.501  10.469
88338SOL     OW66910   1.863  12.803   8.957
88338SOL    HW166911   1.773  12.836   8.952
88338SOL    HW266912   1.915  12.866   8.906
88339SOL     OW66913   1.589   9.136   1.590
88339SOL    HW166914   1.541   9.184   1.522
88339SOL    HW266915   1.681   9.148   1.566
88340SOL     OW66916   2.926   5.191  10.538
88340SOL    HW166917   2.967   5.115  10.580
88340SOL    HW266918   2.982   5.209  10.463
88341SOL     OW66919   0.430   3.824   4.285
88341SOL    HW166920   0.437   3.842   4.191
88341SOL    HW266921   0.340   3.793   4.297
88342SOL     OW66922   9.175   6.084   7.803
88342SOL    HW166923   9.250   6.030   7.780
88342SOL    HW266924   9.213   6.167   7.834
88343SOL     OW66925  12.018  12.495  13.195
88343SOL    HW166926  12.081  12.560  13.164
88343SOL    HW266927  12.069  12.414  13.202
88344SOL     OW66928  14.336   7.434   3.981
88344SOL    HW166929  14.254   7.411   3.937
88344SOL    HW266930  14.392   7.356   3.970
88345SOL     OW66931   4.222   5.118  11.721
88345SOL    HW166932   4.245   5.037  11.767
88345SOL    HW266933   4.164   5.164  11.782
88346SOL     OW66934   3.717   6.086   5.711
88346SOL    HW166935   3.676   6.167   5.740
88346SOL    HW266936   3.790   6.115   5.655
88347SOL     OW66937  14.749  10.292   4.025
88347SOL    HW166938  14.843  10.307   4.018
88347SOL    HW266939  14.737  10.200   4.000
88348SOL     OW66940   9.742   0.946   7.525
88348SOL    HW166941   9.714   1.015   7.465
88348SOL    HW266942   9.832   0.928   7.502
88349SOL     OW66943   6.514   9.541  10.744
88349SOL    HW166944   6.484   9.490  10.819
88349SOL    HW266945   6.469   9.503  10.669
88350SOL     OW66946  12.463   0.487  12.000
88350SOL    HW166947  12.506   0.516  11.920
88350SOL    HW266948  12.531   0.441  12.049
88351SOL     OW66949   0.416   1.220   5.220
88351SOL    HW166950   0.435   1.251   5.131
88351SOL    HW266951   0.498   1.180   5.249
88352SOL     OW66952  14.761   0.947   1.089
88352SOL    HW166953  14.732   0.948   0.998
88352SOL    HW266954  14.729   0.863   1.123
88353SOL     OW66955  12.693   2.205   5.707
88353SOL    HW166956  12.605   2.215   5.744
88353SOL    HW266957  12.686   2.243   5.619
88354SOL     OW66958   0.578   9.826   0.861
88354SOL    HW166959   0.608   9.818   0.771
88354SOL    HW266960   0.503   9.767   0.868
88355SOL     OW66961   7.626  10.745   6.124
88355SOL    HW166962   7.601  10.654   6.136
88355SOL    HW266963   7.578  10.792   6.194
88356SOL     OW66964  11.631   2.230   6.799
88356SOL    HW166965  11.675   2.149   6.774
88356SOL    HW266966  11.677   2.299   6.751
88357SOL     OW66967   2.929   3.071   6.095
88357SOL    HW166968   2.834   3.081   6.105
88357SOL    HW266969   2.960   3.043   6.181
88358SOL     OW66970   2.456   9.904   2.343
88358SOL    HW166971   2.480   9.820   2.304
88358SOL    HW266972   2.513   9.968   2.298
88359SOL     OW66973   2.524   3.065   1.061
88359SOL    HW166974   2.459   3.118   1.016
88359SOL    HW266975   2.576   3.026   0.991
88360SOL     OW66976  11.887   0.502  10.361
88360SOL    HW166977  11.800   0.529  10.391
88360SOL    HW266978  11.941   0.503  10.439
88361SOL     OW66979   1.622   9.757   4.749
88361SOL    HW166980   1.587   9.700   4.681
88361SOL    HW266981   1.653   9.697   4.817
88362SOL     OW66982   4.467   2.531   2.298
88362SOL    HW166983   4.504   2.500   2.381
88362SOL    HW266984   4.417   2.608   2.322
88363SOL     OW66985   0.702  14.069   4.712
88363SOL    HW166986   0.640  14.059   4.785
88363SOL    HW266987   0.727  13.979   4.690
88364SOL     OW66988   2.941   9.516   7.794
88364SOL    HW166989   2.969   9.425   7.792
88364SOL    HW266990   2.852   9.515   7.758
88365SOL     OW66991   8.547  11.110   5.936
88365SOL    HW166992   8.610  11.102   5.864
88365SOL    HW266993   8.509  11.197   5.925
88366SOL     OW66994   1.978   4.123  14.269
88366SOL    HW166995   2.063   4.081  14.285
88366SOL    HW266996   1.989   4.212  14.303
88367SOL     OW66997   6.469   8.744  14.423
88367SOL    HW166998   6.528   8.793  14.365
88367SOL    HW266999   6.480   8.787  14.509
88368SOL     OW67000   9.706   9.917  12.091
88368SOL    HW167001   9.617   9.924  12.126
88368SOL    HW267002   9.695   9.925  11.996
88369SOL     OW67003   3.153   9.959  14.610
88369SOL    HW167004   3.150  10.054  14.624
88369SOL    HW267005   3.202   9.948  14.528
88370SOL     OW67006   4.299  10.955   2.298
88370SOL    HW167007   4.284  10.956   2.203
88370SOL    HW267008   4.259  10.873   2.327
88371SOL     OW67009  12.552  13.890  12.372
88371SOL    HW167010  12.473  13.909  12.422
88371SOL    HW267011  12.535  13.927  12.285
88372SOL     OW67012  13.161   2.447  10.954
88372SOL    HW167013  13.180   2.516  10.891
88372SOL    HW267014  13.076   2.413  10.927
88373SOL     OW67015   6.123  10.843   0.601
88373SOL    HW167016   6.112  10.866   0.693
88373SOL    HW267017   6.128  10.748   0.600
88374SOL     OW67018   5.534   4.534   4.259
88374SOL    HW167019   5.601   4.470   4.283
88374SOL    HW267020   5.571   4.580   4.183
88375SOL     OW67021   4.077   2.846   8.421
88375SOL    HW167022   4.033   2.761   8.415
88375SOL    HW267023   4.023   2.905   8.368
88376SOL     OW67024   1.264   2.957  12.133
88376SOL    HW167025   1.169   2.961  12.144
88376SOL    HW267026   1.284   3.027  12.072
88377SOL     OW67027   7.745   2.721   9.296
88377SOL    HW167028   7.715   2.632   9.310
88377SOL    HW267029   7.711   2.770   9.372
88378SOL     OW67030   8.429  13.200   8.893
88378SOL    HW167031   8.413  13.112   8.929
88378SOL    HW267032   8.353  13.217   8.838
88379SOL     OW67033  10.812  10.469   1.686
88379SOL    HW167034  10.729  10.473   1.733
88379SOL    HW267035  10.866  10.537   1.725
88380SOL     OW67036   7.552   7.865  14.425
88380SOL    HW167037   7.574   7.923  14.352
88380SOL    HW267038   7.617   7.884  14.492
88381SOL     OW67039   1.728   2.280  10.021
88381SOL    HW167040   1.742   2.368  10.056
88381SOL    HW267041   1.667   2.293   9.949
88382SOL     OW67042   3.927   8.071   0.230
88382SOL    HW167043   3.988   8.085   0.158
88382SOL    HW267044   3.979   8.028   0.298
88383SOL     OW67045   5.110  14.750  14.057
88383SOL    HW167046   5.091  14.705  14.139
88383SOL    HW267047   5.024  14.758  14.014
88384SOL     OW67048  11.269   2.620   5.031
88384SOL    HW167049  11.181   2.585   5.044
88384SOL    HW267050  11.284   2.614   4.936
88385SOL     OW67051   9.813  13.422  13.233
88385SOL    HW167052   9.800  13.454  13.322
88385SOL    HW267053   9.855  13.495  13.187
88386SOL     OW67054  14.226   4.405  13.078
88386SOL    HW167055  14.141   4.382  13.114
88386SOL    HW267056  14.207   4.471  13.012
88387SOL     OW67057   7.952   4.290  10.653
88387SOL    HW167058   7.950   4.304  10.558
88387SOL    HW267059   7.908   4.206  10.666
88388SOL     OW67060  13.054  13.551   4.871
88388SOL    HW167061  13.061  13.611   4.797
88388SOL    HW267062  13.045  13.464   4.830
88389SOL     OW67063   6.135   8.433   6.687
88389SOL    HW167064   6.179   8.402   6.766
88389SOL    HW267065   6.093   8.354   6.651
88390SOL     OW67066   1.785  12.410  13.548
88390SOL    HW167067   1.847  12.397  13.476
88390SOL    HW267068   1.707  12.446  13.506
88391SOL     OW67069   2.446   9.015   9.866
88391SOL    HW167070   2.418   9.017   9.775
88391SOL    HW267071   2.540   8.996   9.861
88392SOL     OW67072   6.271   3.804   2.950
88392SOL    HW167073   6.270   3.855   2.869
88392SOL    HW267074   6.330   3.854   3.008
88393SOL     OW67075  13.363  14.308   3.046
88393SOL    HW167076  13.330  14.218   3.046
88393SOL    HW267077  13.457  14.298   3.062
88394SOL     OW67078   8.119   9.428  13.529
88394SOL    HW167079   8.139   9.339  13.558
88394SOL    HW267080   8.192   9.453  13.474
88395SOL     OW67081   8.965  13.917  13.075
88395SOL    HW167082   8.899  13.916  13.144
88395SOL    HW267083   9.013  13.834  13.086
88396SOL     OW67084  11.322   2.153   8.928
88396SOL    HW167085  11.360   2.241   8.939
88396SOL    HW267086  11.292   2.129   9.015
88397SOL     OW67087  10.812  11.765   0.185
88397SOL    HW167088  10.775  11.853   0.179
88397SOL    HW267089  10.860  11.765   0.267
88398SOL     OW67090   7.893   2.245   0.339
88398SOL    HW167091   7.856   2.222   0.424
88398SOL    HW267092   7.824   2.222   0.276
88399SOL     OW67093   6.817   5.739   7.115
88399SOL    HW167094   6.823   5.833   7.102
88399SOL    HW267095   6.747   5.711   7.055
88400SOL     OW67096  10.702  13.718  11.504
88400SOL    HW167097  10.667  13.643  11.552
88400SOL    HW267098  10.638  13.787  11.518
88401SOL     OW67099   0.705   5.570   7.715
88401SOL    HW167100   0.795   5.582   7.683
88401SOL    HW267101   0.655   5.546   7.637
88402SOL     OW67102   9.646   0.041   3.709
88402SOL    HW167103   9.737   0.032   3.739
88402SOL    HW267104   9.622   0.131   3.732
88403SOL     OW67105  13.401   8.300   1.258
88403SOL    HW167106  13.422   8.249   1.180
88403SOL    HW267107  13.390   8.390   1.225
88404SOL     OW67108   6.155   5.227   9.260
88404SOL    HW167109   6.123   5.312   9.229
88404SOL    HW267110   6.248   5.241   9.274
88405SOL     OW67111   5.008   9.344   0.495
88405SOL    HW167112   5.042   9.425   0.533
88405SOL    HW267113   5.083   9.284   0.495
88406SOL     OW67114  11.314  12.828  12.192
88406SOL    HW167115  11.338  12.912  12.232
88406SOL    HW267116  11.221  12.837  12.173
88407SOL     OW67117   7.970   1.910  10.178
88407SOL    HW167118   8.013   1.987  10.216
88407SOL    HW267119   8.040   1.845  10.172
88408SOL     OW67120   7.971   0.236   0.311
88408SOL    HW167121   8.053   0.246   0.263
88408SOL    HW267122   7.963   0.141   0.325
88409SOL     OW67123   1.605   6.679   9.060
88409SOL    HW167124   1.624   6.755   9.004
88409SOL    HW267125   1.510   6.672   9.060
88410SOL     OW67126   8.358  12.180  11.385
88410SOL    HW167127   8.332  12.269  11.364
88410SOL    HW267128   8.375  12.139  11.300
88411SOL     OW67129  14.766  14.574   2.713
88411SOL    HW167130  14.809  14.536   2.789
88411SOL    HW267131  14.675  14.545   2.719
88412SOL     OW67132   2.039  13.738   3.288
88412SOL    HW167133   1.958  13.776   3.255
88412SOL    HW267134   2.029  13.739   3.383
88413SOL     OW67135   7.320   9.442   5.704
88413SOL    HW167136   7.317   9.531   5.669
88413SOL    HW267137   7.286   9.451   5.793
88414SOL     OW67138   6.580   0.648   0.284
88414SOL    HW167139   6.666   0.648   0.241
88414SOL    HW267140   6.532   0.577   0.242
88415SOL     OW67141   4.527   8.604   0.052
88415SOL    HW167142   4.539   8.610   0.147
88415SOL    HW267143   4.436   8.629   0.038
88416SOL     OW67144   4.796   8.036   3.512
88416SOL    HW167145   4.885   8.011   3.536
88416SOL    HW267146   4.803   8.128   3.487
88417SOL     OW67147   8.493   3.578   8.037
88417SOL    HW167148   8.475   3.517   8.109
88417SOL    HW267149   8.588   3.589   8.038
88418SOL     OW67150  11.367  13.009   2.673
88418SOL    HW167151  11.453  13.006   2.714
88418SOL    HW267152  11.313  13.059   2.734
88419SOL     OW67153  14.563  11.188  14.276
88419SOL    HW167154  14.507  11.174  14.199
88419SOL    HW267155  14.597  11.101  14.297
88420SOL     OW67156   3.610   9.895  11.064
88420SOL    HW167157   3.704   9.900  11.046
88420SOL    HW267158   3.575   9.844  10.990
88421SOL     OW67159   7.178   6.796   7.941
88421SOL    HW167160   7.100   6.842   7.974
88421SOL    HW267161   7.145   6.743   7.868
88422SOL     OW67162   4.063   7.415   9.902
88422SOL    HW167163   3.994   7.480   9.894
88422SOL    HW267164   4.053   7.380   9.991
88423SOL     OW67165   0.237   7.863  11.244
88423SOL    HW167166   0.213   7.772  11.224
88423SOL    HW267167   0.163   7.897  11.294
88424SOL     OW67168  11.638  11.714  10.216
88424SOL    HW167169  11.681  11.687  10.297
88424SOL    HW267170  11.633  11.809  10.221
88425SOL     OW67171   9.244   9.954   6.659
88425SOL    HW167172   9.199   9.993   6.584
88425SOL    HW267173   9.243  10.022   6.726
88426SOL     OW67174   3.930   7.041   1.342
88426SOL    HW167175   3.981   7.049   1.423
88426SOL    HW267176   3.851   6.993   1.367
88427SOL     OW67177  10.876   8.641  10.507
88427SOL    HW167178  10.796   8.679  10.544
88427SOL    HW267179  10.947   8.680  10.559
88428SOL     OW67180   6.265   2.719   5.756
88428SOL    HW167181   6.213   2.768   5.820
88428SOL    HW267182   6.202   2.697   5.687
88429SOL     OW67183   9.408  10.578   0.262
88429SOL    HW167184   9.362  10.628   0.330
88429SOL    HW267185   9.500  10.599   0.277
88430SOL     OW67186   8.955   4.301   1.950
88430SOL    HW167187   8.923   4.391   1.957
88430SOL    HW267188   8.880   4.252   1.914
88431SOL     OW67189   8.910   2.375   0.902
88431SOL    HW167190   8.867   2.442   0.848
88431SOL    HW267191   9.000   2.405   0.911
88432SOL     OW67192   4.154   5.795   6.797
88432SOL    HW167193   4.184   5.753   6.878
88432SOL    HW267194   4.172   5.730   6.729
88433SOL     OW67195   3.391   4.233   3.016
88433SOL    HW167196   3.356   4.215   2.929
88433SOL    HW267197   3.319   4.211   3.076
88434SOL     OW67198  10.341   8.259  11.058
88434SOL    HW167199  10.351   8.339  11.110
88434SOL    HW267200  10.274   8.281  10.993
88435SOL     OW67201  12.924   1.889  14.830
88435SOL    HW167202  12.879   1.906  14.747
88435SOL    HW267203  13.016   1.911  14.811
88436SOL     OW67204   7.727  14.399   4.932
88436SOL    HW167205   7.774  14.349   4.866
88436SOL    HW267206   7.793  14.425   4.996
88437SOL     OW67207   4.132   0.282   8.400
88437SOL    HW167208   4.112   0.305   8.490
88437SOL    HW267209   4.210   0.227   8.406
88438SOL     OW67210  13.677   8.494   5.571
88438SOL    HW167211  13.713   8.558   5.509
88438SOL    HW267212  13.623   8.436   5.517
88439SOL     OW67213   2.309  11.141   1.580
88439SOL    HW167214   2.319  11.220   1.632
88439SOL    HW267215   2.393  11.097   1.587
88440SOL     OW67216   4.850   4.534   3.768
88440SOL    HW167217   4.886   4.563   3.684
88440SOL    HW267218   4.766   4.494   3.746
88441SOL     OW67219   2.678   7.596   5.955
88441SOL    HW167220   2.719   7.656   6.017
88441SOL    HW267221   2.731   7.516   5.959
88442SOL     OW67222  13.610   6.071   9.657
88442SOL    HW167223  13.694   6.024   9.661
88442SOL    HW267224  13.631   6.153   9.612
88443SOL     OW67225   9.973   0.361   6.184
88443SOL    HW167226   9.879   0.368   6.195
88443SOL    HW267227  10.008   0.365   6.274
88444SOL     OW67228   1.141   3.888  14.333
88444SOL    HW167229   1.198   3.876  14.257
88444SOL    HW267230   1.115   3.980  14.329
88445SOL     OW67231  13.478  12.118   3.002
88445SOL    HW167232  13.458  12.102   3.095
88445SOL    HW267233  13.433  12.048   2.956
88446SOL     OW67234   5.431   9.480  13.564
88446SOL    HW167235   5.497   9.419  13.532
88446SOL    HW267236   5.477   9.535  13.627
88447SOL     OW67237   1.647   3.826   0.707
88447SOL    HW167238   1.573   3.816   0.767
88447SOL    HW267239   1.666   3.920   0.708
88448SOL     OW67240   0.771  10.837   8.710
88448SOL    HW167241   0.712  10.800   8.645
88448SOL    HW267242   0.767  10.931   8.696
88449SOL     OW67243   8.696   3.773   3.380
88449SOL    HW167244   8.776   3.771   3.433
88449SOL    HW267245   8.728   3.771   3.289
88450SOL     OW67246   5.129   1.560  10.078
88450SOL    HW167247   5.047   1.610  10.080
88450SOL    HW267248   5.106   1.477  10.038
88451SOL     OW67249  10.444  14.300  11.950
88451SOL    HW167250  10.350  14.306  11.968
88451SOL    HW267251  10.472  14.220  11.996
88452SOL     OW67252  12.708   3.150  12.951
88452SOL    HW167253  12.755   3.193  13.023
88452SOL    HW267254  12.775   3.139  12.883
88453SOL     OW67255   4.451   5.150  11.196
88453SOL    HW167256   4.455   5.074  11.138
88453SOL    HW267257   4.472   5.115  11.283
88454SOL     OW67258   4.239   4.777   5.469
88454SOL    HW167259   4.213   4.794   5.560
88454SOL    HW267260   4.221   4.860   5.424
88455SOL     OW67261   9.367   1.210  12.731
88455SOL    HW167262   9.361   1.189  12.638
88455SOL    HW267263   9.301   1.277  12.745
88456SOL     OW67264   7.864   8.338   4.726
88456SOL    HW167265   7.847   8.303   4.814
88456SOL    HW267266   7.787   8.315   4.676
88457SOL     OW67267   7.817   0.318   8.608
88457SOL    HW167268   7.740   0.373   8.617
88457SOL    HW267269   7.837   0.320   8.515
88458SOL     OW67270   3.385   9.887   4.208
88458SOL    HW167271   3.361   9.827   4.138
88458SOL    HW267272   3.317   9.874   4.275
88459SOL     OW67273   0.393   7.628  13.584
88459SOL    HW167274   0.471   7.607  13.531
88459SOL    HW267275   0.379   7.721  13.571
88460SOL     OW67276  14.034   3.213   5.977
88460SOL    HW167277  14.030   3.249   5.888
88460SOL    HW267278  13.977   3.270   6.029
88461SOL     OW67279  14.664   7.596   1.136
88461SOL    HW167280  14.730   7.584   1.205
88461SOL    HW267281  14.675   7.687   1.108
88462SOL     OW67282   9.679   4.991   4.547
88462SOL    HW167283   9.650   5.076   4.513
88462SOL    HW267284   9.762   5.010   4.591
88463SOL     OW67285   8.080   7.831   2.450
88463SOL    HW167286   8.149   7.892   2.425
88463SOL    HW267287   8.125   7.748   2.466
88464SOL     OW67288  13.407   7.192   9.148
88464SOL    HW167289  13.390   7.173   9.055
88464SOL    HW267290  13.498   7.168   9.161
88465SOL     OW67291  13.311   4.920  12.057
88465SOL    HW167292  13.246   4.934  12.126
88465SOL    HW267293  13.261   4.884  11.984
88466SOL     OW67294  13.744   1.141  10.960
88466SOL    HW167295  13.751   1.068  11.021
88466SOL    HW267296  13.738   1.100  10.874
88467SOL     OW67297   6.196   4.612   1.200
88467SOL    HW167298   6.264   4.550   1.171
88467SOL    HW267299   6.116   4.560   1.202
88468SOL     OW67300  12.270   4.808   8.555
88468SOL    HW167301  12.261   4.817   8.460
88468SOL    HW267302  12.221   4.882   8.591
88469SOL     OW67303   1.325  13.137   0.953
88469SOL    HW167304   1.356  13.149   1.042
88469SOL    HW267305   1.294  13.224   0.926
88470SOL     OW67306  11.502   8.965  10.113
88470SOL    HW167307  11.567   8.925  10.055
88470SOL    HW267308  11.500   9.057  10.086
88471SOL     OW67309   9.339   5.835  11.772
88471SOL    HW167310   9.269   5.897  11.748
88471SOL    HW267311   9.308   5.751  11.739
88472SOL     OW67312   4.163   9.320   4.015
88472SOL    HW167313   4.250   9.344   3.981
88472SOL    HW267314   4.181   9.265   4.091
88473SOL     OW67315   4.521  14.849   1.577
88473SOL    HW167316   4.522  14.840   1.673
88473SOL    HW267317   4.548  14.763   1.545
88474SOL     OW67318   7.049  10.581   9.201
88474SOL    HW167319   6.970  10.629   9.227
88474SOL    HW267320   7.118  10.617   9.256
88475SOL     OW67321   3.531  11.783   2.218
88475SOL    HW167322   3.496  11.762   2.304
88475SOL    HW267323   3.494  11.869   2.197
88476SOL     OW67324  12.497   9.931   8.469
88476SOL    HW167325  12.574   9.918   8.525
88476SOL    HW267326  12.444   9.853   8.484
88477SOL     OW67327   5.344  12.349  14.037
88477SOL    HW167328   5.356  12.440  14.012
88477SOL    HW267329   5.430  12.308  14.025
88478SOL     OW67330  10.287  13.792  10.966
88478SOL    HW167331  10.243  13.708  10.977
88478SOL    HW267332  10.218  13.852  10.938
88479SOL     OW67333  12.070  13.743   4.398
88479SOL    HW167334  12.105  13.665   4.357
88479SOL    HW267335  12.129  13.760   4.472
88480SOL     OW67336   1.899  10.924   5.451
88480SOL    HW167337   1.992  10.948   5.458
88480SOL    HW267338   1.859  10.997   5.404
88481SOL     OW67339   5.674   1.224   6.498
88481SOL    HW167340   5.754   1.275   6.510
88481SOL    HW267341   5.622   1.240   6.576
88482SOL     OW67342   2.769   4.893   0.873
88482SOL    HW167343   2.837   4.924   0.933
88482SOL    HW267344   2.690   4.886   0.928
88483SOL     OW67345  10.048   0.314   4.006
88483SOL    HW167346   9.995   0.369   3.948
88483SOL    HW267347   9.984   0.268   4.061
88484SOL     OW67348   8.069  11.265   0.769
88484SOL    HW167349   8.059  11.207   0.844
88484SOL    HW267350   8.034  11.214   0.695
88485SOL     OW67351   5.280   4.760   9.129
88485SOL    HW167352   5.293   4.688   9.190
88485SOL    HW267353   5.185   4.773   9.127
88486SOL     OW67354  11.386   1.504  13.639
88486SOL    HW167355  11.336   1.493  13.558
88486SOL    HW267356  11.331   1.463  13.706
88487SOL     OW67357   4.848  12.122   4.050
88487SOL    HW167358   4.944  12.123   4.044
88487SOL    HW267359   4.821  12.044   4.001
88488SOL     OW67360   2.021   8.759  12.846
88488SOL    HW167361   1.993   8.798  12.763
88488SOL    HW267362   1.963   8.684  12.858
88489SOL     OW67363  11.668   7.632  13.395
88489SOL    HW167364  11.599   7.696  13.416
88489SOL    HW267365  11.726   7.634  13.470
88490SOL     OW67366   1.975   6.635   0.945
88490SOL    HW167367   2.000   6.635   0.852
88490SOL    HW267368   1.946   6.545   0.961
88491SOL     OW67369  12.675  10.285  10.956
88491SOL    HW167370  12.620  10.273  10.878
88491SOL    HW267371  12.644  10.367  10.995
88492SOL     OW67372   7.606  14.586   2.069
88492SOL    HW167373   7.581  14.677   2.052
88492SOL    HW267374   7.685  14.573   2.016
88493SOL     OW67375   6.424   4.662   9.986
88493SOL    HW167376   6.376   4.733   9.944
88493SOL    HW267377   6.397   4.665  10.077
88494SOL     OW67378  13.979   3.729   7.108
88494SOL    HW167379  13.901   3.752   7.056
88494SOL    HW267380  13.973   3.634   7.118
88495SOL     OW67381  13.955   2.746  14.393
88495SOL    HW167382  13.907   2.783  14.467
88495SOL    HW267383  13.891   2.744  14.322
88496SOL     OW67384   9.926   3.158   0.620
88496SOL    HW167385   9.993   3.210   0.576
88496SOL    HW267386   9.931   3.184   0.712
88497SOL     OW67387   8.880  10.803  13.925
88497SOL    HW167388   8.974  10.787  13.928
88497SOL    HW267389   8.843  10.736  13.983
88498SOL     OW67390   8.045   4.325   9.747
88498SOL    HW167391   8.055   4.387   9.819
88498SOL    HW267392   7.992   4.371   9.683
88499SOL     OW67393  13.240   1.636   6.336
88499SOL    HW167394  13.267   1.719   6.377
88499SOL    HW267395  13.260   1.569   6.401
88500SOL     OW67396   1.372  11.425   1.194
88500SOL    HW167397   1.387  11.493   1.259
88500SOL    HW267398   1.368  11.344   1.245
88501SOL     OW67399  12.934   9.416  14.032
88501SOL    HW167400  12.840   9.426  14.014
88501SOL    HW267401  12.975   9.416  13.946
88502SOL     OW67402  10.713   8.663   7.290
88502SOL    HW167403  10.744   8.733   7.348
88502SOL    HW267404  10.681   8.595   7.350
88503SOL     OW67405   9.258   9.905  11.521
88503SOL    HW167406   9.186   9.967  11.509
88503SOL    HW267407   9.336   9.961  11.527
88504SOL     OW67408   4.959  12.751  14.345
88504SOL    HW167409   4.982  12.828  14.294
88504SOL    HW267410   4.970  12.778  14.436
88505SOL     OW67411   4.649   5.778   0.711
88505SOL    HW167412   4.669   5.761   0.803
88505SOL    HW267413   4.701   5.713   0.663
88506SOL     OW67414   4.894   4.458   0.797
88506SOL    HW167415   4.862   4.373   0.826
88506SOL    HW267416   4.972   4.474   0.851
88507SOL     OW67417   9.138  12.745   2.071
88507SOL    HW167418   9.190  12.666   2.055
88507SOL    HW267419   9.051  12.723   2.038
88508SOL     OW67420   9.324   0.470  10.413
88508SOL    HW167421   9.276   0.427  10.484
88508SOL    HW267422   9.390   0.524  10.458
88509SOL     OW67423  14.348   8.028   9.912
88509SOL    HW167424  14.355   8.114   9.870
88509SOL    HW267425  14.255   8.007   9.908
88510SOL     OW67426  13.360  14.067  11.448
88510SOL    HW167427  13.300  14.102  11.382
88510SOL    HW267428  13.444  14.106  11.427
88511SOL     OW67429   8.633   5.722   8.898
88511SOL    HW167430   8.597   5.773   8.969
88511SOL    HW267431   8.622   5.631   8.925
88512SOL     OW67432   3.004  13.887  11.452
88512SOL    HW167433   2.981  13.794  11.446
88512SOL    HW267434   3.095  13.891  11.422
88513SOL     OW67435   2.973   3.731   8.724
88513SOL    HW167436   2.971   3.768   8.812
88513SOL    HW267437   2.980   3.807   8.666
88514SOL     OW67438   4.407  13.293   8.616
88514SOL    HW167439   4.496  13.327   8.613
88514SOL    HW267440   4.407  13.232   8.690
88515SOL     OW67441  12.785   3.753   7.578
88515SOL    HW167442  12.703   3.787   7.542
88515SOL    HW267443  12.773   3.658   7.579
88516SOL     OW67444   7.913  11.167  11.163
88516SOL    HW167445   7.941  11.179  11.073
88516SOL    HW267446   7.966  11.229  11.214
88517SOL     OW67447   6.187   9.269   3.351
88517SOL    HW167448   6.156   9.290   3.439
88517SOL    HW267449   6.112   9.287   3.294
88518SOL     OW67450  12.971  13.916   7.022
88518SOL    HW167451  13.041  13.954   6.968
88518SOL    HW267452  12.954  13.982   7.088
88519SOL     OW67453  12.806   5.341   6.433
88519SOL    HW167454  12.877   5.398   6.405
88519SOL    HW267455  12.740   5.399   6.469
88520SOL     OW67456   0.622  13.044   9.434
88520SOL    HW167457   0.700  13.011   9.389
88520SOL    HW267458   0.625  13.004   9.521
88521SOL     OW67459   7.876  11.186   5.541
88521SOL    HW167460   7.967  11.185   5.570
88521SOL    HW267461   7.881  11.187   5.445
88522SOL     OW67462   3.439  13.397  12.740
88522SOL    HW167463   3.376  13.441  12.799
88522SOL    HW267464   3.478  13.469  12.690
88523SOL     OW67465  14.832   3.222  14.528
88523SOL    HW167466  14.815   3.313  14.503
88523SOL    HW267467   0.047   3.225  14.573
88524SOL     OW67468   0.896   7.926   4.427
88524SOL    HW167469   0.934   7.878   4.501
88524SOL    HW267470   0.860   8.005   4.466
88525SOL     OW67471  11.620   0.718   8.286
88525SOL    HW167472  11.594   0.659   8.357
88525SOL    HW267473  11.547   0.778   8.276
88526SOL     OW67474  13.645   0.148   4.741
88526SOL    HW167475  13.677   0.220   4.686
88526SOL    HW267476  13.715   0.083   4.739
88527SOL     OW67477   1.172   7.647   6.435
88527SOL    HW167478   1.163   7.625   6.528
88527SOL    HW267479   1.266   7.646   6.419
88528SOL     OW67480   9.611   0.773   4.769
88528SOL    HW167481   9.691   0.821   4.791
88528SOL    HW267482   9.606   0.703   4.835
88529SOL     OW67483  10.766   4.617   5.070
88529SOL    HW167484  10.772   4.613   4.975
88529SOL    HW267485  10.701   4.550   5.093
88530SOL     OW67486   1.335   4.351  10.311
88530SOL    HW167487   1.343   4.355  10.406
88530SOL    HW267488   1.409   4.402  10.278
88531SOL     OW67489   7.204   7.671   7.393
88531SOL    HW167490   7.233   7.620   7.469
88531SOL    HW267491   7.153   7.743   7.431
88532SOL     OW67492   3.723   5.635  11.424
88532SOL    HW167493   3.716   5.729  11.443
88532SOL    HW267494   3.639   5.598  11.451
88533SOL     OW67495   2.022   3.288   5.329
88533SOL    HW167496   2.020   3.354   5.261
88533SOL    HW267497   2.113   3.257   5.330
88534SOL     OW67498   0.251  13.064   7.432
88534SOL    HW167499   0.311  13.129   7.396
88534SOL    HW267500   0.190  13.115   7.486
88535SOL     OW67501   6.660   0.893  13.765
88535SOL    HW167502   6.727   0.922  13.827
88535SOL    HW267503   6.708   0.849  13.695
88536SOL     OW67504   9.561   7.775   6.758
88536SOL    HW167505   9.501   7.762   6.685
88536SOL    HW267506   9.506   7.806   6.830
88537SOL     OW67507   1.968   5.694   0.901
88537SOL    HW167508   1.959   5.775   0.850
88537SOL    HW267509   1.934   5.625   0.843
88538SOL     OW67510   1.325   5.080   3.542
88538SOL    HW167511   1.349   4.992   3.572
88538SOL    HW267512   1.275   5.065   3.462
88539SOL     OW67513   1.157   8.526   0.677
88539SOL    HW167514   1.155   8.572   0.593
88539SOL    HW267515   1.203   8.585   0.736
88540SOL     OW67516   1.652   6.815   1.895
88540SOL    HW167517   1.581   6.765   1.855
88540SOL    HW267518   1.666   6.888   1.836
88541SOL     OW67519   0.627  10.624   1.460
88541SOL    HW167520   0.593  10.548   1.414
88541SOL    HW267521   0.653  10.685   1.391
88542SOL     OW67522   2.642  11.390   1.274
88542SOL    HW167523   2.646  11.401   1.179
88542SOL    HW267524   2.622  11.297   1.286
88543SOL     OW67525  10.400   5.477  14.731
88543SOL    HW167526  10.484   5.468  14.776
88543SOL    HW267527  10.400   5.567  14.699
88544SOL     OW67528   5.585   8.874   5.942
88544SOL    HW167529   5.524   8.818   5.990
88544SOL    HW267530   5.655   8.893   6.005
88545SOL     OW67531   4.641   0.158  10.186
88545SOL    HW167532   4.645   0.179  10.093
88545SOL    HW267533   4.607   0.237  10.228
88546SOL     OW67534  13.767   8.158   6.178
88546SOL    HW167535  13.789   8.133   6.088
88546SOL    HW267536  13.726   8.244   6.170
88547SOL     OW67537   5.163   0.299   9.948
88547SOL    HW167538   5.225   0.329   9.881
88547SOL    HW267539   5.164   0.368  10.015
88548SOL     OW67540   9.779   5.735  12.100
88548SOL    HW167541   9.768   5.792  12.176
88548SOL    HW267542   9.741   5.785  12.028
88549SOL     OW67543  13.052  11.989   5.822
88549SOL    HW167544  13.054  11.896   5.797
88549SOL    HW267545  13.031  12.035   5.741
88550SOL     OW67546   6.470  12.577  10.694
88550SOL    HW167547   6.463  12.672  10.701
88550SOL    HW267548   6.563  12.559  10.707
88551SOL     OW67549  11.617   2.240  14.379
88551SOL    HW167550  11.576   2.160  14.412
88551SOL    HW267551  11.706   2.237  14.414
88552SOL     OW67552  14.651   4.995   2.266
88552SOL    HW167553  14.594   5.018   2.339
88552SOL    HW267554  14.593   4.952   2.203
88553SOL     OW67555   4.291  12.362   7.075
88553SOL    HW167556   4.196  12.360   7.062
88553SOL    HW267557   4.304  12.321   7.161
88554SOL     OW67558  11.055   5.433   9.882
88554SOL    HW167559  11.070   5.354   9.830
88554SOL    HW267560  11.068   5.505   9.821
88555SOL     OW67561   7.322  12.123   7.014
88555SOL    HW167562   7.287  12.140   7.102
88555SOL    HW267563   7.359  12.207   6.987
88556SOL     OW67564  10.635   9.617   5.920
88556SOL    HW167565  10.603   9.705   5.939
88556SOL    HW267566  10.568   9.578   5.864
88557SOL     OW67567  11.262   4.459   8.150
88557SOL    HW167568  11.265   4.392   8.218
88557SOL    HW267569  11.176   4.447   8.108
88558SOL     OW67570   7.355   1.065   2.588
88558SOL    HW167571   7.261   1.065   2.606
88558SOL    HW267572   7.382   1.155   2.605
88559SOL     OW67573   7.664   2.147   0.176
88559SOL    HW167574   7.611   2.222   0.150
88559SOL    HW267575   7.613   2.071   0.149
88560SOL     OW67576   0.725   6.982  14.233
88560SOL    HW167577   0.725   6.987  14.328
88560SOL    HW267578   0.689   7.066  14.205
88561SOL     OW67579   4.990  10.693  11.597
88561SOL    HW167580   4.967  10.649  11.515
88561SOL    HW267581   5.001  10.622  11.660
88562SOL     OW67582  10.967  13.116  11.357
88562SOL    HW167583  10.909  13.164  11.297
88562SOL    HW267584  11.013  13.184  11.406
88563SOL     OW67585   0.047   8.309   8.041
88563SOL    HW167586   0.089   8.321   7.956
88563SOL    HW267587   0.046   8.214   8.054
88564SOL     OW67588  14.859   5.552   6.552
88564SOL    HW167589   0.060   5.522   6.495
88564SOL    HW267590   0.006   5.507   6.635
88565SOL     OW67591  13.617   7.930  13.879
88565SOL    HW167592  13.566   7.920  13.959
88565SOL    HW267593  13.559   7.977  13.819
88566SOL     OW67594   1.323  11.670   8.998
88566SOL    HW167595   1.398  11.717   8.960
88566SOL    HW267596   1.342  11.667   9.092
88567SOL     OW67597  14.016  10.983   8.732
88567SOL    HW167598  13.930  11.000   8.770
88567SOL    HW267599  14.006  11.007   8.639
88568SOL     OW67600   1.781   3.735   9.118
88568SOL    HW167601   1.740   3.740   9.031
88568SOL    HW267602   1.715   3.769   9.178
88569SOL     OW67603   6.976   7.689  11.387
88569SOL    HW167604   7.011   7.750  11.322
88569SOL    HW267605   6.921   7.629  11.337
88570SOL     OW67606   4.954   3.553   9.455
88570SOL    HW167607   4.890   3.483   9.471
88570SOL    HW267608   5.022   3.512   9.402
88571SOL     OW67609   3.485   3.344  11.167
88571SOL    HW167610   3.535   3.426  11.172
88571SOL    HW267611   3.551   3.275  11.162
88572SOL     OW67612  10.443   0.944  14.317
88572SOL    HW167613  10.398   1.028  14.325
88572SOL    HW267614  10.413   0.894  14.393
88573SOL     OW67615   6.428  11.340   1.326
88573SOL    HW167616   6.425  11.327   1.421
88573SOL    HW267617   6.354  11.397   1.307
88574SOL     OW67618   3.219   3.490   1.852
88574SOL    HW167619   3.240   3.400   1.830
88574SOL    HW267620   3.153   3.483   1.922
88575SOL     OW67621   3.205   6.182   8.860
88575SOL    HW167622   3.199   6.105   8.803
88575SOL    HW267623   3.296   6.210   8.853
88576SOL     OW67624  11.554   5.348   5.470
88576SOL    HW167625  11.598   5.265   5.486
88576SOL    HW267626  11.581   5.373   5.382
88577SOL     OW67627   8.882   2.795   2.951
88577SOL    HW167628   8.960   2.754   2.913
88577SOL    HW267629   8.817   2.793   2.881
88578SOL     OW67630  10.815  11.835  14.238
88578SOL    HW167631  10.751  11.798  14.298
88578SOL    HW267632  10.836  11.764  14.178
88579SOL     OW67633   6.498   1.478   2.408
88579SOL    HW167634   6.531   1.431   2.331
88579SOL    HW267635   6.519   1.420   2.482
88580SOL     OW67636  10.274   5.269   8.772
88580SOL    HW167637  10.343   5.204   8.759
88580SOL    HW267638  10.198   5.232   8.726
88581SOL     OW67639  11.688   9.913  10.216
88581SOL    HW167640  11.722   9.972  10.149
88581SOL    HW267641  11.750   9.840  10.217
88582SOL     OW67642   1.714  13.218   9.714
88582SOL    HW167643   1.641  13.201   9.654
88582SOL    HW267644   1.791  13.182   9.668
88583SOL     OW67645  13.632   7.198   6.964
88583SOL    HW167646  13.548   7.206   7.010
88583SOL    HW267647  13.658   7.288   6.945
88584SOL     OW67648   7.459   1.737   6.758
88584SOL    HW167649   7.376   1.785   6.754
88584SOL    HW267650   7.437   1.654   6.801
88585SOL     OW67651   9.538  12.697   6.654
88585SOL    HW167652   9.527  12.765   6.587
88585SOL    HW267653   9.561  12.618   6.605
88586SOL     OW67654   9.587   9.547   1.298
88586SOL    HW167655   9.503   9.582   1.268
88586SOL    HW267656   9.564   9.465   1.343
88587SOL     OW67657   9.243   1.164  13.511
88587SOL    HW167658   9.304   1.196  13.444
88587SOL    HW267659   9.185   1.238  13.529
88588SOL     OW67660   6.164   5.288   1.733
88588SOL    HW167661   6.078   5.251   1.714
88588SOL    HW267662   6.222   5.248   1.669
88589SOL     OW67663  10.955  12.765   0.710
88589SOL    HW167664  11.007  12.690   0.682
88589SOL    HW267665  11.019  12.836   0.719
88590SOL     OW67666  11.073   4.392   7.341
88590SOL    HW167667  11.036   4.304   7.344
88590SOL    HW267668  11.030   4.439   7.413
88591SOL     OW67669   8.339   3.731   0.989
88591SOL    HW167670   8.417   3.718   1.043
88591SOL    HW267671   8.324   3.825   0.990
88592SOL     OW67672   7.512   2.815   6.990
88592SOL    HW167673   7.446   2.746   6.982
88592SOL    HW267674   7.596   2.768   6.991
88593SOL     OW67675   0.890   9.158   6.105
88593SOL    HW167676   0.894   9.081   6.162
88593SOL    HW267677   0.831   9.219   6.150
88594SOL     OW67678   7.316   1.991   3.435
88594SOL    HW167679   7.261   2.063   3.404
88594SOL    HW267680   7.360   1.959   3.357
88595SOL     OW67681  14.177   9.337  10.278
88595SOL    HW167682  14.201   9.412  10.333
88595SOL    HW267683  14.257   9.284  10.275
88596SOL     OW67684  14.071   9.822   5.802
88596SOL    HW167685  14.137   9.865   5.747
88596SOL    HW267686  13.994   9.878   5.795
88597SOL     OW67687   1.303   0.019   4.536
88597SOL    HW167688   1.318   0.094   4.594
88597SOL    HW267689   1.223   0.042   4.488
88598SOL     OW67690   2.284   0.528   1.767
88598SOL    HW167691   2.258   0.449   1.720
88598SOL    HW267692   2.279   0.598   1.701
88599SOL     OW67693   3.726   2.713   1.470
88599SOL    HW167694   3.691   2.655   1.402
88599SOL    HW267695   3.649   2.758   1.505
88600SOL     OW67696  14.567   6.173   6.096
88600SOL    HW167697  14.488   6.227   6.099
88600SOL    HW267698  14.542   6.091   6.139
88601SOL     OW67699   7.632   3.697   1.198
88601SOL    HW167700   7.720   3.674   1.228
88601SOL    HW267701   7.631   3.672   1.106
88602SOL     OW67702  11.927  11.525  10.307
88602SOL    HW167703  11.922  11.563  10.220
88602SOL    HW267704  11.992  11.578  10.353
88603SOL     OW67705   3.205  14.674   2.590
88603SOL    HW167706   3.219  14.635   2.504
88603SOL    HW267707   3.204  14.769   2.574
88604SOL     OW67708  10.937  12.460   8.105
88604SOL    HW167709  10.854  12.420   8.078
88604SOL    HW267710  11.001  12.427   8.042
88605SOL     OW67711   1.860   5.982   5.796
88605SOL    HW167712   1.772   5.947   5.806
88605SOL    HW267713   1.893   5.991   5.885
88606SOL     OW67714   5.701   1.869  13.143
88606SOL    HW167715   5.642   1.929  13.189
88606SOL    HW267716   5.725   1.916  13.063
88607SOL     OW67717  12.879   1.325   2.492
88607SOL    HW167718  12.826   1.403   2.506
88607SOL    HW267719  12.943   1.350   2.426
88608SOL     OW67720   7.975  10.287   6.574
88608SOL    HW167721   7.894  10.332   6.596
88608SOL    HW267722   7.947  10.209   6.525
88609SOL     OW67723  13.512   2.939  14.305
88609SOL    HW167724  13.478   2.975  14.223
88609SOL    HW267725  13.464   2.987  14.373
88610SOL     OW67726  14.397   8.105   3.304
88610SOL    HW167727  14.323   8.098   3.364
88610SOL    HW267728  14.358   8.105   3.217
88611SOL     OW67729   9.850  14.768   0.735
88611SOL    HW167730   9.849  14.751   0.829
88611SOL    HW267731   9.841  14.863   0.728
88612SOL     OW67732   1.295   9.203  12.897
88612SOL    HW167733   1.315   9.110  12.883
88612SOL    HW267734   1.345   9.227  12.975
88613SOL     OW67735   2.081   0.319   0.510
88613SOL    HW167736   1.994   0.347   0.480
88613SOL    HW267737   2.123   0.400   0.539
88614SOL     OW67738   6.591  10.599   5.657
88614SOL    HW167739   6.660  10.580   5.720
88614SOL    HW267740   6.510  10.584   5.705
88615SOL     OW67741   1.688   0.787  13.563
88615SOL    HW167742   1.765   0.844  13.560
88615SOL    HW267743   1.614   0.846  13.578
88616SOL     OW67744  11.278   9.168   3.270
88616SOL    HW167745  11.229   9.167   3.352
88616SOL    HW267746  11.367   9.195   3.296
88617SOL     OW67747   6.361   6.185   1.619
88617SOL    HW167748   6.279   6.136   1.614
88617SOL    HW267749   6.347   6.245   1.692
88618SOL     OW67750   1.375   4.957   7.365
88618SOL    HW167751   1.367   4.904   7.445
88618SOL    HW267752   1.380   4.893   7.294
88619SOL     OW67753   0.182   6.194  11.797
88619SOL    HW167754   0.221   6.174  11.882
88619SOL    HW267755   0.090   6.169  11.807
88620SOL     OW67756   9.285   6.035   7.167
88620SOL    HW167757   9.238   6.041   7.250
88620SOL    HW267758   9.224   6.068   7.101
88621SOL     OW67759  14.254   2.596  12.763
88621SOL    HW167760  14.282   2.525  12.820
88621SOL    HW267761  14.334   2.625  12.720
88622SOL     OW67762  12.762   1.288   8.847
88622SOL    HW167763  12.813   1.358   8.888
88622SOL    HW267764  12.770   1.214   8.907
88623SOL     OW67765   0.120   5.899   6.988
88623SOL    HW167766   0.127   5.983   6.943
88623SOL    HW267767   0.108   5.835   6.919
88624SOL     OW67768   9.931   7.604   7.038
88624SOL    HW167769   9.865   7.566   6.980
88624SOL    HW267770   9.885   7.672   7.086
88625SOL     OW67771  12.655   5.749   8.349
88625SOL    HW167772  12.593   5.797   8.404
88625SOL    HW267773  12.662   5.802   8.270
88626SOL     OW67774   0.953   1.685   7.452
88626SOL    HW167775   1.036   1.692   7.500
88626SOL    HW267776   0.957   1.600   7.408
88627SOL     OW67777   2.493  12.833   9.490
88627SOL    HW167778   2.543  12.832   9.408
88627SOL    HW267779   2.411  12.878   9.468
88628SOL     OW67780   2.271  10.958   6.026
88628SOL    HW167781   2.195  10.934   5.974
88628SOL    HW267782   2.251  11.047   6.057
88629SOL     OW67783   8.205  12.008  13.065
88629SOL    HW167784   8.218  12.037  13.155
88629SOL    HW267785   8.140  11.938  13.072
88630SOL     OW67786   7.348  10.943  13.611
88630SOL    HW167787   7.432  10.900  13.625
88630SOL    HW267788   7.286  10.871  13.600
88631SOL     OW67789  11.107   4.736  12.963
88631SOL    HW167790  11.105   4.796  13.037
88631SOL    HW267791  11.193   4.694  12.969
88632SOL     OW67792  12.674  13.143   4.618
88632SOL    HW167793  12.700  13.234   4.608
88632SOL    HW267794  12.692  13.123   4.710
88633SOL     OW67795   5.338   4.523  14.804
88633SOL    HW167796   5.374   4.502   0.021
88633SOL    HW267797   5.322   4.617  14.808
88634SOL     OW67798  12.005   0.844   3.665
88634SOL    HW167799  12.022   0.856   3.758
88634SOL    HW267800  12.045   0.921   3.624
88635SOL     OW67801   4.870   0.386   3.928
88635SOL    HW167802   4.929   0.450   3.969
88635SOL    HW267803   4.817   0.352   4.001
88636SOL     OW67804   6.119   7.095  13.179
88636SOL    HW167805   6.044   7.126  13.231
88636SOL    HW267806   6.195   7.134  13.222
88637SOL     OW67807   3.404  12.953   8.992
88637SOL    HW167808   3.409  13.005   8.912
88637SOL    HW267809   3.493  12.956   9.028
88638SOL     OW67810  10.547  14.250   3.016
88638SOL    HW167811  10.641  14.267   3.005
88638SOL    HW267812  10.505  14.313   2.957
88639SOL     OW67813   0.638   4.753   0.811
88639SOL    HW167814   0.642   4.848   0.809
88639SOL    HW267815   0.578   4.730   0.740
88640SOL     OW67816   6.671  13.136   1.773
88640SOL    HW167817   6.577  13.129   1.788
88640SOL    HW267818   6.682  13.116   1.680
88641SOL     OW67819   3.867  10.414  13.765
88641SOL    HW167820   3.906  10.394  13.681
88641SOL    HW267821   3.798  10.348  13.776
88642SOL     OW67822  11.572   6.243   7.340
88642SOL    HW167823  11.510   6.195   7.286
88642SOL    HW267824  11.628   6.289   7.277
88643SOL     OW67825   3.142   1.844   4.163
88643SOL    HW167826   3.225   1.817   4.203
88643SOL    HW267827   3.128   1.781   4.092
88644SOL     OW67828   6.269   8.597   9.207
88644SOL    HW167829   6.307   8.600   9.295
88644SOL    HW267830   6.341   8.621   9.149
88645SOL     OW67831  12.497   7.751  12.608
88645SOL    HW167832  12.463   7.778  12.694
88645SOL    HW267833  12.533   7.664  12.623
88646SOL     OW67834  12.489  13.598   4.025
88646SOL    HW167835  12.577  13.577   3.993
88646SOL    HW267836  12.455  13.515   4.058
88647SOL     OW67837   6.539  13.809  10.590
88647SOL    HW167838   6.494  13.831  10.672
88647SOL    HW267839   6.503  13.724  10.566
88648SOL     OW67840  12.547  14.339   3.228
88648SOL    HW167841  12.544  14.366   3.319
88648SOL    HW267842  12.465  14.293   3.213
88649SOL     OW67843   1.763   7.375   1.506
88649SOL    HW167844   1.709   7.339   1.576
88649SOL    HW267845   1.727   7.339   1.425
88650SOL     OW67846   1.990   8.362  11.097
88650SOL    HW167847   2.017   8.444  11.138
88650SOL    HW267848   2.042   8.358  11.016
88651SOL     OW67849   1.622   1.091   6.855
88651SOL    HW167850   1.688   1.032   6.819
88651SOL    HW267851   1.591   1.142   6.780
88652SOL     OW67852  10.340  10.855  13.680
88652SOL    HW167853  10.276  10.925  13.692
88652SOL    HW267854  10.302  10.780  13.727
88653SOL     OW67855   8.718   0.319   3.905
88653SOL    HW167856   8.679   0.381   3.967
88653SOL    HW267857   8.767   0.373   3.843
88654SOL     OW67858   0.305   3.884   2.227
88654SOL    HW167859   0.225   3.855   2.183
88654SOL    HW267860   0.376   3.853   2.170
88655SOL     OW67861   4.171  13.106  10.818
88655SOL    HW167862   4.209  13.177  10.766
88655SOL    HW267863   4.156  13.035  10.755
88656SOL     OW67864   1.264  10.022   5.141
88656SOL    HW167865   1.247   9.957   5.073
88656SOL    HW267866   1.183  10.073   5.146
88657SOL     OW67867   5.639   7.229   2.750
88657SOL    HW167868   5.655   7.139   2.778
88657SOL    HW267869   5.702   7.281   2.799
88658SOL     OW67870  13.530   3.559   9.166
88658SOL    HW167871  13.555   3.557   9.258
88658SOL    HW267872  13.464   3.628   9.160
88659SOL     OW67873  14.629   3.512   1.029
88659SOL    HW167874  14.674   3.470   0.956
88659SOL    HW267875  14.694   3.518   1.098
88660SOL     OW67876  11.076  14.047   5.812
88660SOL    HW167877  11.141  14.097   5.861
88660SOL    HW267878  11.096  14.067   5.720
88661SOL     OW67879   9.158   7.031  13.808
88661SOL    HW167880   9.157   7.096  13.878
88661SOL    HW267881   9.066   7.024  13.781
88662SOL     OW67882   9.596   2.435  13.181
88662SOL    HW167883   9.610   2.343  13.202
88662SOL    HW267884   9.515   2.436  13.129
88663SOL     OW67885   9.502  13.564   7.031
88663SOL    HW167886   9.555  13.631   7.073
88663SOL    HW267887   9.485  13.597   6.943
88664SOL     OW67888  13.699   0.809  12.801
88664SOL    HW167889  13.648   0.820  12.882
88664SOL    HW267890  13.642   0.757  12.744
88665SOL     OW67891   3.863   6.482  10.595
88665SOL    HW167892   3.845   6.556  10.537
88665SOL    HW267893   3.958   6.468  10.587
88666SOL     OW67894   8.546  11.841   9.447
88666SOL    HW167895   8.574  11.917   9.396
88666SOL    HW267896   8.553  11.870   9.538
88667SOL     OW67897  11.429   3.739   7.042
88667SOL    HW167898  11.516   3.770   7.016
88667SOL    HW267899  11.377   3.819   7.051
88668SOL     OW67900  13.031   8.320   9.327
88668SOL    HW167901  12.979   8.286   9.399
88668SOL    HW267902  13.106   8.362   9.370
88669SOL     OW67903   7.185  10.312  14.559
88669SOL    HW167904   7.176  10.388  14.503
88669SOL    HW267905   7.107  10.313  14.615
88670SOL     OW67906   5.168   7.665  13.146
88670SOL    HW167907   5.118   7.589  13.116
88670SOL    HW267908   5.259   7.645  13.123
88671SOL     OW67909   3.973   0.751  11.829
88671SOL    HW167910   4.011   0.685  11.772
88671SOL    HW267911   3.928   0.702  11.897
88672SOL     OW67912   7.590  11.726  13.635
88672SOL    HW167913   7.611  11.643  13.592
88672SOL    HW267914   7.605  11.792  13.567
88673SOL     OW67915   2.898   9.001   8.034
88673SOL    HW167916   2.820   9.040   7.995
88673SOL    HW267917   2.926   8.934   7.972
88674SOL     OW67918   1.293   8.943  12.045
88674SOL    HW167919   1.371   8.900  12.011
88674SOL    HW267920   1.293   8.923  12.139
88675SOL     OW67921  14.235   0.770  13.713
88675SOL    HW167922  14.305   0.834  13.705
88675SOL    HW267923  14.270   0.691  13.673
88676SOL     OW67924   1.715   8.187  12.532
88676SOL    HW167925   1.774   8.263  12.534
88676SOL    HW267926   1.636   8.220  12.490
88677SOL     OW67927   7.504   0.486  13.978
88677SOL    HW167928   7.515   0.580  13.992
88677SOL    HW267929   7.515   0.448  14.065
88678SOL     OW67930   6.129   7.543   3.933
88678SOL    HW167931   6.212   7.503   3.906
88678SOL    HW267932   6.129   7.629   3.891
88679SOL     OW67933   8.298   8.880   4.075
88679SOL    HW167934   8.359   8.823   4.122
88679SOL    HW267935   8.352   8.922   4.008
88680SOL     OW67936  11.088  10.277   2.610
88680SOL    HW167937  11.111  10.310   2.697
88680SOL    HW267938  10.993  10.266   2.613
88681SOL     OW67939  14.677   7.486   2.232
88681SOL    HW167940  14.623   7.564   2.242
88681SOL    HW267941  14.700   7.461   2.321
88682SOL     OW67942   7.090  10.667  12.481
88682SOL    HW167943   7.062  10.757  12.497
88682SOL    HW267944   7.071  10.651  12.389
88683SOL     OW67945   1.277  12.744   0.029
88683SOL    HW167946   1.304  12.652   0.020
88683SOL    HW267947   1.296  12.783  14.814
88684SOL     OW67948   2.772   4.032   8.040
88684SOL    HW167949   2.856   3.986   8.040
88684SOL    HW267950   2.715   3.978   7.985
88685SOL     OW67951   7.280  11.201   4.219
88685SOL    HW167952   7.296  11.180   4.127
88685SOL    HW267953   7.368  11.213   4.256
88686SOL     OW67954   8.597  13.771   4.818
88686SOL    HW167955   8.516  13.734   4.783
88686SOL    HW267956   8.657  13.696   4.822
88687SOL     OW67957   1.445  13.340   6.951
88687SOL    HW167958   1.422  13.333   7.044
88687SOL    HW267959   1.466  13.250   6.925
88688SOL     OW67960   2.218  11.358   2.231
88688SOL    HW167961   2.216  11.431   2.169
88688SOL    HW267962   2.254  11.285   2.181
88689SOL     OW67963  11.539   1.552  10.395
88689SOL    HW167964  11.456   1.600  10.390
88689SOL    HW267965  11.600   1.605  10.343
88690SOL     OW67966   6.907   6.045   1.310
88690SOL    HW167967   6.961   5.998   1.247
88690SOL    HW267968   6.817   6.019   1.289
88691SOL     OW67969   9.991   2.590   5.979
88691SOL    HW167970   9.938   2.662   5.945
88691SOL    HW267971   9.945   2.511   5.951
88692SOL     OW67972  14.235   1.196  11.285
88692SOL    HW167973  14.260   1.287  11.299
88692SOL    HW267974  14.167   1.200  11.217
88693SOL     OW67975   7.146  12.839  14.056
88693SOL    HW167976   7.133  12.921  14.010
88693SOL    HW267977   7.069  12.786  14.034
88694SOL     OW67978  10.739   6.533  11.800
88694SOL    HW167979  10.779   6.539  11.887
88694SOL    HW267980  10.797   6.474  11.751
88695SOL     OW67981  10.292   3.261   3.277
88695SOL    HW167982  10.318   3.283   3.366
88695SOL    HW267983  10.346   3.185   3.255
88696SOL     OW67984   1.991  14.775   2.503
88696SOL    HW167985   2.086  14.765   2.512
88696SOL    HW267986   1.979  14.825   2.423
88697SOL     OW67987  12.582   2.340   1.081
88697SOL    HW167988  12.536   2.314   1.001
88697SOL    HW267989  12.554   2.431   1.096
88698SOL     OW67990   2.091   5.448   2.770
88698SOL    HW167991   2.042   5.524   2.799
88698SOL    HW267992   2.042   5.373   2.804
88699SOL     OW67993   2.082   5.975   3.753
88699SOL    HW167994   1.994   5.955   3.783
88699SOL    HW267995   2.123   6.023   3.825
88700SOL     OW67996   9.936   5.645   3.818
88700SOL    HW167997   9.951   5.694   3.737
88700SOL    HW267998   9.996   5.685   3.881
88701SOL     OW67999   7.817   1.491   4.536
88701SOL    HW168000   7.895   1.436   4.531
88701SOL    HW268001   7.780   1.488   4.448
88702SOL     OW68002   3.784  14.361   9.308
88702SOL    HW168003   3.778  14.289   9.371
88702SOL    HW268004   3.835  14.326   9.235
88703SOL     OW68005   2.792   0.044  12.410
88703SOL    HW168006   2.751  14.863  12.480
88703SOL    HW268007   2.773   0.135  12.431
88704SOL     OW68008  14.167   3.526  12.033
88704SOL    HW168009  14.262   3.530  12.027
88704SOL    HW268010  14.136   3.600  11.982
88705SOL     OW68011   9.628   0.471   1.317
88705SOL    HW168012   9.661   0.428   1.396
88705SOL    HW268013   9.643   0.408   1.246
88706SOL     OW68014   3.973   1.473  13.189
88706SOL    HW168015   4.009   1.385  13.200
88706SOL    HW268016   3.981   1.491  13.096
88707SOL     OW68017   6.390   9.493   7.535
88707SOL    HW168018   6.319   9.557   7.534
88707SOL    HW268019   6.417   9.485   7.444
88708SOL     OW68020   9.587   3.427   5.098
88708SOL    HW168021   9.659   3.373   5.067
88708SOL    HW268022   9.532   3.367   5.149
88709SOL     OW68023  13.942   6.826  14.795
88709SOL    HW168024  13.945   6.736  14.763
88709SOL    HW268025  13.902   6.820   0.012
88710SOL     OW68026   2.231   6.042  14.787
88710SOL    HW168027   2.169   6.115  14.780
88710SOL    HW268028   2.284   6.064  14.863
88711SOL     OW68029  13.982   2.800   7.529
88711SOL    HW168030  14.032   2.879   7.511
88711SOL    HW268031  14.024   2.762   7.606
88712SOL     OW68032   5.521   6.711   4.338
88712SOL    HW168033   5.483   6.768   4.404
88712SOL    HW268034   5.603   6.755   4.313
88713SOL     OW68035   1.680   3.515   0.930
88713SOL    HW168036   1.618   3.486   0.998
88713SOL    HW268037   1.702   3.605   0.956
88714SOL     OW68038   1.177  14.571   4.954
88714SOL    HW168039   1.247  14.549   5.016
88714SOL    HW268040   1.108  14.507   4.973
88715SOL     OW68041   9.458  14.396   1.811
88715SOL    HW168042   9.401  14.457   1.858
88715SOL    HW268043   9.537  14.391   1.865
88716SOL     OW68044   3.570  11.358   4.748
88716SOL    HW168045   3.573  11.293   4.818
88716SOL    HW268046   3.662  11.378   4.729
88717SOL     OW68047   0.200  11.266  10.978
88717SOL    HW168048   0.266  11.276  10.909
88717SOL    HW268049   0.164  11.179  10.965
88718SOL     OW68050   2.692   6.731  14.806
88718SOL    HW168051   2.712   6.819  14.775
88718SOL    HW268052   2.730   6.673  14.740
88719SOL     OW68053   3.404  12.506   9.234
88719SOL    HW168054   3.403  12.528   9.141
88719SOL    HW268055   3.490  12.535   9.265
88720SOL     OW68056  12.667  10.052   7.135
88720SOL    HW168057  12.619  10.035   7.216
88720SOL    HW268058  12.754  10.081   7.165
88721SOL     OW68059  14.665   8.081  13.934
88721SOL    HW168060  14.594   8.046  13.988
88721SOL    HW268061  14.684   8.167  13.973
88722SOL     OW68062   1.455  10.097  14.258
88722SOL    HW168063   1.519  10.146  14.310
88722SOL    HW268064   1.450  10.144  14.175
88723SOL     OW68065   3.025   8.051   1.481
88723SOL    HW168066   3.032   8.146   1.491
88723SOL    HW268067   3.116   8.021   1.473
88724SOL     OW68068   6.118   7.994   0.140
88724SOL    HW168069   6.030   8.024   0.161
88724SOL    HW268070   6.113   7.898   0.142
88725SOL     OW68071   5.482  13.320  12.687
88725SOL    HW168072   5.573  13.293  12.689
88725SOL    HW268073   5.485  13.415  12.680
88726SOL     OW68074   5.168   5.555   8.962
88726SOL    HW168075   5.247   5.533   9.010
88726SOL    HW268076   5.155   5.482   8.902
88727SOL     OW68077  14.203   6.325   3.676
88727SOL    HW168078  14.130   6.280   3.718
88727SOL    HW268079  14.256   6.255   3.637
88728SOL     OW68080  10.899   6.711   9.346
88728SOL    HW168081  10.918   6.726   9.438
88728SOL    HW268082  10.870   6.796   9.313
88729SOL     OW68083  13.040  13.754  12.374
88729SOL    HW168084  13.004  13.786  12.457
88729SOL    HW268085  12.964  13.738  12.319
88730SOL     OW68086  14.720  14.675   5.961
88730SOL    HW168087  14.808  14.707   5.944
88730SOL    HW268088  14.664  14.753   5.956
88731SOL     OW68089   1.823  10.787   4.808
88731SOL    HW168090   1.835  10.844   4.884
88731SOL    HW268091   1.834  10.845   4.733
88732SOL     OW68092  14.243  11.958  14.807
88732SOL    HW168093  14.147  11.960  14.805
88732SOL    HW268094  14.266  11.873  14.769
88733SOL     OW68095   0.626   0.705   5.826
88733SOL    HW168096   0.667   0.621   5.803
88733SOL    HW268097   0.575   0.686   5.904
88734SOL     OW68098  13.531   7.687   7.368
88734SOL    HW168099  13.543   7.775   7.332
88734SOL    HW268100  13.578   7.630   7.307
88735SOL     OW68101   4.994   7.007  11.933
88735SOL    HW168102   4.945   6.939  11.978
88735SOL    HW268103   4.939   7.085  11.939
88736SOL     OW68104   4.009  13.305  10.471
88736SOL    HW168105   4.101  13.307  10.445
88736SOL    HW268106   3.989  13.212  10.479
88737SOL     OW68107   6.106   4.744  12.772
88737SOL    HW168108   6.017   4.756  12.804
88737SOL    HW268109   6.145   4.831  12.775
88738SOL     OW68110  12.152   7.270  14.521
88738SOL    HW168111  12.066   7.297  14.488
88738SOL    HW268112  12.141   7.177  14.543
88739SOL     OW68113   7.670  13.408   5.430
88739SOL    HW168114   7.644  13.374   5.344
88739SOL    HW268115   7.587  13.429   5.474
88740SOL     OW68116  12.703  14.205  12.238
88740SOL    HW168117  12.777  14.263  12.224
88740SOL    HW268118  12.626  14.259  12.219
88741SOL     OW68119   3.996   9.091  10.888
88741SOL    HW168120   4.089   9.083  10.866
88741SOL    HW268121   3.951   9.041  10.820
88742SOL     OW68122  11.633  12.577   6.542
88742SOL    HW168123  11.611  12.670   6.538
88742SOL    HW268124  11.665  12.555   6.455
88743SOL     OW68125   2.744   2.331   9.707
88743SOL    HW168126   2.729   2.339   9.613
88743SOL    HW268127   2.809   2.261   9.716
88744SOL     OW68128  13.976  11.738   0.624
88744SOL    HW168129  13.958  11.772   0.536
88744SOL    HW268130  14.071  11.746   0.633
88745SOL     OW68131   3.104   7.239  14.538
88745SOL    HW168132   3.150   7.316  14.505
88745SOL    HW268133   3.138   7.166  14.485
88746SOL     OW68134  14.466  11.450   6.427
88746SOL    HW168135  14.440  11.387   6.360
88746SOL    HW268136  14.407  11.525   6.415
88747SOL     OW68137   2.798   4.449   4.105
88747SOL    HW168138   2.795   4.469   4.198
88747SOL    HW268139   2.787   4.354   4.101
88748SOL     OW68140   6.339   3.155  10.489
88748SOL    HW168141   6.394   3.176  10.564
88748SOL    HW268142   6.289   3.235  10.472
88749SOL     OW68143  13.571  13.250   5.705
88749SOL    HW168144  13.484  13.285   5.684
88749SOL    HW268145  13.583  13.271   5.798
88750SOL     OW68146   2.687   0.144   8.679
88750SOL    HW168147   2.713   0.224   8.723
88750SOL    HW268148   2.715   0.073   8.737
88751SOL     OW68149  10.243   1.996   8.967
88751SOL    HW168150  10.257   1.969   8.876
88751SOL    HW268151  10.267   1.920   9.020
88752SOL     OW68152   5.649   6.596  10.940
88752SOL    HW168153   5.630   6.649  10.862
88752SOL    HW268154   5.693   6.657  11.000
88753SOL     OW68155   8.584   2.754  13.457
88753SOL    HW168156   8.625   2.679  13.500
88753SOL    HW268157   8.644   2.777  13.386
88754SOL     OW68158   2.079   9.480   3.591
88754SOL    HW168159   2.068   9.443   3.504
88754SOL    HW268160   2.173   9.497   3.598
88755SOL     OW68161  12.634   7.437   9.641
88755SOL    HW168162  12.694   7.481   9.580
88755SOL    HW268163  12.690   7.375   9.688
88756SOL     OW68164   7.430   1.574   2.737
88756SOL    HW168165   7.500   1.614   2.787
88756SOL    HW268166   7.355   1.573   2.797
88757SOL     OW68167  10.660   8.798  13.370
88757SOL    HW168168  10.590   8.829  13.312
88757SOL    HW268169  10.615   8.779  13.453
88758SOL     OW68170  14.729   7.587  13.281
88758SOL    HW168171  14.799   7.524  13.297
88758SOL    HW268172  14.744   7.656  13.346
88759SOL     OW68173  14.363   7.959  14.676
88759SOL    HW168174  14.413   8.032  14.640
88759SOL    HW268175  14.284   8.000  14.712
88760SOL     OW68176  12.379  11.969   3.408
88760SOL    HW168177  12.367  12.015   3.491
88760SOL    HW268178  12.290  11.947   3.378
88761SOL     OW68179  11.609   2.497   1.937
88761SOL    HW168180  11.545   2.479   1.869
88761SOL    HW268181  11.619   2.593   1.937
88762SOL     OW68182   2.639   9.548  10.037
88762SOL    HW168183   2.639   9.641  10.060
88762SOL    HW268184   2.687   9.505  10.108
88763SOL     OW68185   6.937   1.899   5.667
88763SOL    HW168186   6.901   1.813   5.686
88763SOL    HW268187   7.016   1.905   5.722
88764SOL     OW68188  13.090  14.055  13.817
88764SOL    HW168189  13.042  14.004  13.883
88764SOL    HW268190  13.147  14.113  13.869
88765SOL     OW68191   1.877   5.013   4.118
88765SOL    HW168192   1.884   5.077   4.047
88765SOL    HW268193   1.788   4.978   4.110
88766SOL     OW68194  14.234   4.676   8.118
88766SOL    HW168195  14.275   4.624   8.187
88766SOL    HW268196  14.242   4.622   8.039
88767SOL     OW68197   4.305   0.617   6.044
88767SOL    HW168198   4.307   0.652   5.954
88767SOL    HW268199   4.394   0.583   6.058
88768SOL     OW68200  11.597  10.573  10.261
88768SOL    HW168201  11.643  10.571  10.177
88768SOL    HW268202  11.661  10.543  10.325
88769SOL     OW68203  12.062   9.258  10.045
88769SOL    HW168204  12.107   9.178  10.071
88769SOL    HW268205  12.125   9.304   9.989
88770SOL     OW68206   1.388   2.522   8.702
88770SOL    HW168207   1.393   2.586   8.773
88770SOL    HW268208   1.426   2.442   8.739
88771SOL     OW68209   7.187   4.610   9.809
88771SOL    HW168210   7.168   4.661   9.731
88771SOL    HW268211   7.250   4.663   9.858
88772SOL     OW68212  13.943   4.462   8.593
88772SOL    HW168213  13.971   4.544   8.552
88772SOL    HW268214  13.989   4.394   8.544
88773SOL     OW68215   9.517   1.437   2.553
88773SOL    HW168216   9.539   1.462   2.643
88773SOL    HW268217   9.596   1.456   2.503
88774SOL     OW68218   9.526   5.624   0.526
88774SOL    HW168219   9.456   5.634   0.591
88774SOL    HW268220   9.519   5.532   0.499
88775SOL     OW68221   8.952  14.395   9.518
88775SOL    HW168222   9.007  14.469   9.543
88775SOL    HW268223   8.989  14.321   9.566
88776SOL     OW68224   1.148   8.059   9.403
88776SOL    HW168225   1.173   8.010   9.481
88776SOL    HW268226   1.063   8.023   9.378
88777SOL     OW68227  12.181   8.876   4.410
88777SOL    HW168228  12.247   8.851   4.346
88777SOL    HW268229  12.118   8.928   4.361
88778SOL     OW68230   7.365   4.095   5.395
88778SOL    HW168231   7.413   4.177   5.407
88778SOL    HW268232   7.275   4.122   5.379
88779SOL     OW68233  10.277   5.609   2.858
88779SOL    HW168234  10.274   5.638   2.767
88779SOL    HW268235  10.192   5.569   2.874
88780SOL     OW68236   6.192   0.045  11.536
88780SOL    HW168237   6.139   0.075  11.462
88780SOL    HW268238   6.170  14.822  11.546
88781SOL     OW68239   9.575   3.060   3.806
88781SOL    HW168240   9.537   3.143   3.834
88781SOL    HW268241   9.569   3.004   3.882
88782SOL     OW68242   0.423  14.799  12.422
88782SOL    HW168243   0.435   0.023  12.409
88782SOL    HW268244   0.478  14.778  12.497
88783SOL     OW68245   7.184   2.302   9.636
88783SOL    HW168246   7.266   2.351   9.631
88783SOL    HW268247   7.117   2.365   9.608
88784SOL     OW68248   3.106  13.709   7.748
88784SOL    HW168249   3.147  13.737   7.829
88784SOL    HW268250   3.037  13.773   7.732
88785SOL     OW68251   8.354  13.920  10.440
88785SOL    HW168252   8.355  13.855  10.371
88785SOL    HW268253   8.281  13.895  10.496
88786SOL     OW68254  11.505   8.419  13.062
88786SOL    HW168255  11.465   8.501  13.090
88786SOL    HW268256  11.594   8.442  13.037
88787SOL     OW68257   4.123   9.897  10.225
88787SOL    HW168258   4.133   9.836  10.299
88787SOL    HW268259   4.158   9.848  10.150
88788SOL     OW68260   3.860  14.105  13.466
88788SOL    HW168261   3.887  14.155  13.389
88788SOL    HW268262   3.775  14.142  13.490
88789SOL     OW68263  10.873   2.133  10.537
88789SOL    HW168264  10.806   2.065  10.546
88789SOL    HW268265  10.935   2.115  10.609
88790SOL     OW68266  10.174  12.842  12.951
88790SOL    HW168267  10.241  12.773  12.948
88790SOL    HW268268  10.153  12.850  13.044
88791SOL     OW68269  12.004  10.460   1.116
88791SOL    HW168270  11.996  10.530   1.181
88791SOL    HW268271  11.983  10.380   1.165
88792SOL     OW68272   0.880  10.400  10.876
88792SOL    HW168273   0.861  10.398  10.970
88792SOL    HW268274   0.849  10.316  10.843
88793SOL     OW68275   4.343   1.712  14.383
88793SOL    HW168276   4.395   1.786  14.351
88793SOL    HW268277   4.398   1.635  14.368
88794SOL     OW68278  13.555   4.975  14.233
88794SOL    HW168279  13.506   5.042  14.186
88794SOL    HW268280  13.600   4.925  14.164
88795SOL     OW68281  13.615   1.141  10.377
88795SOL    HW168282  13.524   1.141  10.346
88795SOL    HW268283  13.666   1.165  10.300
88796SOL     OW68284  14.449   2.470   8.989
88796SOL    HW168285  14.356   2.449   8.980
88796SOL    HW268286  14.482   2.474   8.899
88797SOL     OW68287   5.584   1.189   1.785
88797SOL    HW168288   5.658   1.194   1.845
88797SOL    HW268289   5.622   1.207   1.699
88798SOL     OW68290   0.777  12.105   2.176
88798SOL    HW168291   0.742  12.180   2.223
88798SOL    HW268292   0.738  12.111   2.089
88799SOL     OW68293   8.928   6.497   6.211
88799SOL    HW168294   8.894   6.414   6.178
88799SOL    HW268295   8.932   6.485   6.306
88800SOL     OW68296   0.383   1.285   8.442
88800SOL    HW168297   0.360   1.284   8.535
88800SOL    HW268298   0.380   1.193   8.416
88801SOL     OW68299  14.668   5.169   6.312
88801SOL    HW168300  14.664   5.252   6.264
88801SOL    HW268301  14.595   5.118   6.278
88802SOL     OW68302   5.974  13.178  12.979
88802SOL    HW168303   6.004  13.172  12.889
88802SOL    HW268304   5.904  13.243  12.977
88803SOL     OW68305   4.182   2.445   9.027
88803SOL    HW168306   4.267   2.479   9.000
88803SOL    HW268307   4.178   2.357   8.990
88804SOL     OW68308   3.955  12.394  13.116
88804SOL    HW168309   4.020  12.338  13.158
88804SOL    HW268310   3.926  12.454  13.185
88805SOL     OW68311   0.933  13.675   8.901
88805SOL    HW168312   0.999  13.637   8.958
88805SOL    HW268313   0.866  13.606   8.892
88806SOL     OW68314  14.419  13.056   5.427
88806SOL    HW168315  14.347  13.093   5.477
88806SOL    HW268316  14.382  13.040   5.340
88807SOL     OW68317   1.843   8.750   2.180
88807SOL    HW168318   1.767   8.694   2.169
88807SOL    HW268319   1.902   8.723   2.109
88808SOL     OW68320   3.046   0.961   4.452
88808SOL    HW168321   2.988   0.885   4.448
88808SOL    HW268322   3.000   1.028   4.400
88809SOL     OW68323   1.993   6.080   9.102
88809SOL    HW168324   2.072   6.103   9.054
88809SOL    HW268325   1.962   5.999   9.062
88810SOL     OW68326   1.798   9.852   6.285
88810SOL    HW168327   1.833   9.930   6.329
88810SOL    HW268328   1.871   9.821   6.231
88811SOL     OW68329  10.584  14.188   2.464
88811SOL    HW168330  10.599  14.280   2.483
88811SOL    HW268331  10.663  14.160   2.418
88812SOL     OW68332  14.514   8.620   6.804
88812SOL    HW168333  14.542   8.545   6.750
88812SOL    HW268334  14.587   8.681   6.799
88813SOL     OW68335   9.724   8.501   9.349
88813SOL    HW168336   9.816   8.476   9.343
88813SOL    HW268337   9.725   8.582   9.402
88814SOL     OW68338   2.388  13.953   2.392
88814SOL    HW168339   2.369  13.934   2.300
88814SOL    HW268340   2.457  14.019   2.389
88815SOL     OW68341   0.556   9.843   6.326
88815SOL    HW168342   0.635   9.896   6.336
88815SOL    HW268343   0.559   9.782   6.401
88816SOL     OW68344   3.488   5.918   5.418
88816SOL    HW168345   3.490   5.932   5.513
88816SOL    HW268346   3.579   5.896   5.396
88817SOL     OW68347   6.152  10.212  10.390
88817SOL    HW168348   6.068  10.184  10.429
88817SOL    HW268349   6.126  10.259  10.311
88818SOL     OW68350   4.374   4.582   5.111
88818SOL    HW168351   4.464   4.559   5.132
88818SOL    HW268352   4.383   4.651   5.045
88819SOL     OW68353   8.057   5.767  14.014
88819SOL    HW168354   7.989   5.834  14.011
88819SOL    HW268355   8.026   5.703  14.077
88820SOL     OW68356   0.406   1.292   6.598
88820SOL    HW168357   0.336   1.291   6.532
88820SOL    HW268358   0.372   1.349   6.667
88821SOL     OW68359  10.927  13.778  13.898
88821SOL    HW168360  10.909  13.764  13.991
88821SOL    HW268361  10.847  13.818  13.864
88822SOL     OW68362   8.589  14.204  11.939
88822SOL    HW168363   8.613  14.198  12.031
88822SOL    HW268364   8.567  14.296  11.926
88823SOL     OW68365   8.736  11.181   9.459
88823SOL    HW168366   8.697  11.148   9.378
88823SOL    HW268367   8.812  11.125   9.474
88824SOL     OW68368  12.025   7.468   0.032
88824SOL    HW168369  12.101   7.411   0.028
88824SOL    HW268370  12.028   7.506   0.120
88825SOL     OW68371   9.517   8.654   9.831
88825SOL    HW168372   9.471   8.683   9.910
88825SOL    HW268373   9.501   8.559   9.828
88826SOL     OW68374   9.924   5.816   8.375
88826SOL    HW168375   9.885   5.755   8.312
88826SOL    HW268376   9.988   5.763   8.423
88827SOL     OW68377   0.641   3.416   4.110
88827SOL    HW168378   0.676   3.500   4.139
88827SOL    HW268379   0.578   3.440   4.042
88828SOL     OW68380   1.117   5.641   8.605
88828SOL    HW168381   1.030   5.669   8.577
88828SOL    HW268382   1.133   5.560   8.556
88829SOL     OW68383   1.224   1.312   8.808
88829SOL    HW168384   1.170   1.247   8.852
88829SOL    HW268385   1.279   1.262   8.748
88830SOL     OW68386  10.067   7.041  10.991
88830SOL    HW168387  10.126   6.987  11.043
88830SOL    HW268388  10.063   6.996  10.906
88831SOL     OW68389   6.255   2.417   9.385
88831SOL    HW168390   6.170   2.450   9.414
88831SOL    HW268391   6.276   2.346   9.446
88832SOL     OW68392   4.202   3.164  12.894
88832SOL    HW168393   4.266   3.119  12.949
88832SOL    HW268394   4.117   3.134  12.926
88833SOL     OW68395   4.215   6.754   3.347
88833SOL    HW168396   4.211   6.816   3.274
88833SOL    HW268397   4.306   6.756   3.375
88834SOL     OW68398   0.712   5.331   8.572
88834SOL    HW168399   0.722   5.302   8.662
88834SOL    HW268400   0.750   5.261   8.519
88835SOL     OW68401   5.537   4.888  12.502
88835SOL    HW168402   5.607   4.933  12.549
88835SOL    HW268403   5.513   4.815  12.559
88836SOL     OW68404  13.561   3.581  12.595
88836SOL    HW168405  13.523   3.567  12.509
88836SOL    HW268406  13.561   3.676  12.606
88837SOL     OW68407   8.484   9.352   7.190
88837SOL    HW168408   8.417   9.398   7.139
88837SOL    HW268409   8.471   9.383   7.280
88838SOL     OW68410  14.494  12.384  11.066
88838SOL    HW168411  14.410  12.344  11.090
88838SOL    HW268412  14.533  12.409  11.150
88839SOL     OW68413  10.509  14.735  11.867
88839SOL    HW168414  10.550  14.785  11.938
88839SOL    HW268415  10.537  14.645  11.881
88840SOL     OW68416   4.174  10.688  11.219
88840SOL    HW168417   4.249  10.631  11.202
88840SOL    HW268418   4.128  10.693  11.135
88841SOL     OW68419  13.400  10.143  13.122
88841SOL    HW168420  13.432  10.165  13.035
88841SOL    HW268421  13.307  10.125  13.109
88842SOL     OW68422   6.096  10.524  10.340
88842SOL    HW168423   6.089  10.609  10.297
88842SOL    HW268424   6.087  10.460  10.269
88843SOL     OW68425   7.380  12.202   7.645
88843SOL    HW168426   7.413  12.202   7.735
88843SOL    HW268427   7.286  12.183   7.654
88844SOL     OW68428  14.748  10.696  10.172
88844SOL    HW168429  14.830  10.651  10.150
88844SOL    HW268430  14.755  10.782  10.130
88845SOL     OW68431   5.913   2.472   2.975
88845SOL    HW168432   5.909   2.532   3.050
88845SOL    HW268433   5.997   2.427   2.985
88846SOL     OW68434   7.125  10.134  11.482
88846SOL    HW168435   7.188  10.151  11.552
88846SOL    HW268436   7.050  10.189  11.503
88847SOL     OW68437   2.225   9.136  12.578
88847SOL    HW168438   2.199   9.113  12.667
88847SOL    HW268439   2.195   9.226  12.566
88848SOL     OW68440   1.560   9.913   1.509
88848SOL    HW168441   1.520   9.966   1.578
88848SOL    HW268442   1.563   9.825   1.545
88849SOL     OW68443   1.083  11.801   5.095
88849SOL    HW168444   1.081  11.727   5.036
88849SOL    HW268445   1.043  11.769   5.176
88850SOL     OW68446   0.199   3.226   0.377
88850SOL    HW168447   0.169   3.281   0.305
88850SOL    HW268448   0.183   3.136   0.347
88851SOL     OW68449  14.498   8.174  11.844
88851SOL    HW168450  14.442   8.194  11.919
88851SOL    HW268451  14.474   8.238  11.778
88852SOL     OW68452   5.303   1.088   1.740
88852SOL    HW168453   5.374   1.026   1.754
88852SOL    HW268454   5.347   1.170   1.716
88853SOL     OW68455   3.267   2.017  12.547
88853SOL    HW168456   3.259   1.924  12.566
88853SOL    HW268457   3.179   2.052  12.557
88854SOL     OW68458  12.761   7.542  13.432
88854SOL    HW168459  12.778   7.470  13.493
88854SOL    HW268460  12.681   7.583  13.464
88855SOL     OW68461   6.820   9.038   8.203
88855SOL    HW168462   6.744   9.006   8.252
88855SOL    HW268463   6.802   9.131   8.190
88856SOL     OW68464   9.494   2.574   3.539
88856SOL    HW168465   9.404   2.573   3.507
88856SOL    HW268466   9.542   2.624   3.473
88857SOL     OW68467  11.217  12.785   4.282
88857SOL    HW168468  11.286  12.745   4.230
88857SOL    HW268469  11.263  12.834   4.350
88858SOL     OW68470  10.832   0.249   2.470
88858SOL    HW168471  10.760   0.306   2.445
88858SOL    HW268472  10.877   0.230   2.388
88859SOL     OW68473   2.974   1.941   3.764
88859SOL    HW168474   2.978   2.004   3.692
88859SOL    HW268475   2.960   1.856   3.721
88860SOL     OW68476   9.422   7.276   0.660
88860SOL    HW168477   9.450   7.294   0.750
88860SOL    HW268478   9.387   7.187   0.664
88861SOL     OW68479   5.124   2.455   2.184
88861SOL    HW168480   5.102   2.491   2.098
88861SOL    HW268481   5.192   2.389   2.166
88862SOL     OW68482   2.384   7.396   0.651
88862SOL    HW168483   2.294   7.400   0.685
88862SOL    HW268484   2.439   7.411   0.728
88863SOL     OW68485  12.391   2.143  10.811
88863SOL    HW168486  12.446   2.220  10.797
88863SOL    HW268487  12.305   2.178  10.832
88864SOL     OW68488   8.735   4.592   9.893
88864SOL    HW168489   8.826   4.610   9.871
88864SOL    HW268490   8.711   4.663   9.954
88865SOL     OW68491   3.288   3.852   7.098
88865SOL    HW168492   3.375   3.871   7.062
88865SOL    HW268493   3.267   3.929   7.152
88866SOL     OW68494   0.475   5.433  12.054
88866SOL    HW168495   0.538   5.462  12.120
88866SOL    HW268496   0.409   5.503  12.051
88867SOL     OW68497  13.939   6.201  10.294
88867SOL    HW168498  14.019   6.186  10.345
88867SOL    HW268499  13.971   6.224  10.207
88868SOL     OW68500   3.935  10.165   9.569
88868SOL    HW168501   3.850  10.197   9.600
88868SOL    HW268502   3.912  10.106   9.497
88869SOL     OW68503   8.660   7.604  12.848
88869SOL    HW168504   8.711   7.673  12.891
88869SOL    HW268505   8.664   7.530  12.908
88870SOL     OW68506  13.665   4.204   5.483
88870SOL    HW168507  13.692   4.260   5.556
88870SOL    HW268508  13.597   4.254   5.438
88871SOL     OW68509   5.785   5.747   3.566
88871SOL    HW168510   5.840   5.671   3.584
88871SOL    HW268511   5.837   5.822   3.597
88872SOL     OW68512   2.376   1.922  14.224
88872SOL    HW168513   2.281   1.921  14.226
88872SOL    HW268514   2.400   2.014  14.221
88873SOL     OW68515  10.450  11.024  10.631
88873SOL    HW168516  10.388  11.090  10.662
88873SOL    HW268517  10.517  11.021  10.698
88874SOL     OW68518  14.448   9.481   2.541
88874SOL    HW168519  14.501   9.488   2.462
88874SOL    HW268520  14.365   9.521   2.519
88875SOL     OW68521   4.719  11.690   6.708
88875SOL    HW168522   4.649  11.727   6.761
88875SOL    HW268523   4.733  11.753   6.637
88876SOL     OW68524   7.722  13.232  12.314
88876SOL    HW168525   7.741  13.281  12.394
88876SOL    HW268526   7.654  13.169  12.340
88877SOL     OW68527  11.215   3.602   5.627
88877SOL    HW168528  11.251   3.514   5.612
88877SOL    HW268529  11.197   3.605   5.721
88878SOL     OW68530   2.741  10.561   8.947
88878SOL    HW168531   2.806  10.521   9.003
88878SOL    HW268532   2.666  10.578   9.005
88879SOL     OW68533   2.726   0.331   2.291
88879SOL    HW168534   2.781   0.271   2.342
88879SOL    HW268535   2.740   0.417   2.331
88880SOL     OW68536   4.490  13.191   4.775
88880SOL    HW168537   4.516  13.111   4.730
88880SOL    HW268538   4.572  13.235   4.796
88881SOL     OW68539   3.031   3.687  11.151
88881SOL    HW168540   3.106   3.746  11.153
88881SOL    HW268541   3.067   3.601  11.174
88882SOL     OW68542   0.955   5.205   2.473
88882SOL    HW168543   0.958   5.138   2.541
88882SOL    HW268544   0.864   5.206   2.444
88883SOL     OW68545  14.755  14.122  11.803
88883SOL    HW168546  14.723  14.048  11.856
88883SOL    HW268547  14.775  14.083  11.718
88884SOL     OW68548  10.288  14.465  13.067
88884SOL    HW168549  10.368  14.504  13.101
88884SOL    HW268550  10.248  14.534  13.013
88885SOL     OW68551  13.477  10.980   7.320
88885SOL    HW168552  13.535  11.010   7.390
88885SOL    HW268553  13.533  10.975   7.243
88886SOL     OW68554  12.386   8.928  11.311
88886SOL    HW168555  12.315   8.864  11.302
88886SOL    HW268556  12.466   8.880  11.289
88887SOL     OW68557   5.040   1.557  13.010
88887SOL    HW168558   5.010   1.585  13.096
88887SOL    HW268559   4.964   1.514  12.970
88888SOL     OW68560  10.680   6.189   1.530
88888SOL    HW168561  10.590   6.204   1.560
88888SOL    HW268562  10.697   6.261   1.469
88889SOL     OW68563  12.477  14.773   8.875
88889SOL    HW168564  12.413  14.747   8.809
88889SOL    HW268565  12.502  14.691   8.917
88890SOL     OW68566   2.705   9.845   0.077
88890SOL    HW168567   2.736   9.785   0.009
88890SOL    HW268568   2.768   9.917   0.075
88891SOL     OW68569  14.394  13.874   7.497
88891SOL    HW168570  14.430  13.838   7.416
88891SOL    HW268571  14.409  13.805   7.562
88892SOL     OW68572   5.325   2.905   5.976
88892SOL    HW168573   5.325   2.812   6.000
88892SOL    HW268574   5.267   2.909   5.900
88893SOL     OW68575   0.519   8.499   9.033
88893SOL    HW168576   0.425   8.485   9.045
88893SOL    HW268577   0.537   8.468   8.945
88894SOL     OW68578   8.477  13.681  13.561
88894SOL    HW168579   8.410  13.737  13.601
88894SOL    HW268580   8.446  13.592  13.575
88895SOL     OW68581   8.718   0.089  10.454
88895SOL    HW168582   8.662   0.014  10.474
88895SOL    HW268583   8.785   0.087  10.522
88896SOL     OW68584  14.488  14.107  12.391
88896SOL    HW168585  14.582  14.091  12.406
88896SOL    HW268586  14.447  14.090  12.476
88897SOL     OW68587   2.075   8.514   5.978
88897SOL    HW168588   2.080   8.593   6.032
88897SOL    HW268589   2.136   8.453   6.020
88898SOL     OW68590   8.913   1.164  12.343
88898SOL    HW168591   8.999   1.205  12.336
88898SOL    HW268592   8.919   1.109  12.421
88899SOL     OW68593  10.835   2.162   3.668
88899SOL    HW168594  10.810   2.084   3.717
88899SOL    HW268595  10.757   2.185   3.618
88900SOL     OW68596  14.207   9.901   8.958
88900SOL    HW168597  14.194   9.876   8.866
88900SOL    HW268598  14.285   9.854   8.985
88901SOL     OW68599  12.944   9.225  12.275
88901SOL    HW168600  12.856   9.188  12.284
88901SOL    HW268601  12.966   9.257  12.363
88902SOL     OW68602   3.224   3.145   4.575
88902SOL    HW168603   3.249   3.211   4.511
88902SOL    HW268604   3.178   3.078   4.524
88903SOL     OW68605   3.437   8.575   0.169
88903SOL    HW168606   3.404   8.562   0.257
88903SOL    HW268607   3.487   8.495   0.150
88904SOL     OW68608   8.753  12.402   5.742
88904SOL    HW168609   8.829  12.410   5.684
88904SOL    HW268610   8.778  12.336   5.807
88905SOL     OW68611   4.186  13.158   7.118
88905SOL    HW168612   4.173  13.077   7.167
88905SOL    HW268613   4.230  13.217   7.179
88906SOL     OW68614  12.960   2.620   6.609
88906SOL    HW168615  13.042   2.616   6.659
88906SOL    HW268616  12.947   2.713   6.591
88907SOL     OW68617  10.964  13.900  11.139
88907SOL    HW168618  10.978  13.993  11.117
88907SOL    HW268619  11.052  13.866  11.154
88908SOL     OW68620  11.067   8.252   4.322
88908SOL    HW168621  10.997   8.202   4.280
88908SOL    HW268622  11.070   8.335   4.274
88909SOL     OW68623  12.437   0.125  10.808
88909SOL    HW168624  12.511   0.186  10.807
88909SOL    HW268625  12.394   0.137  10.724
88910SOL     OW68626   1.598   9.226  10.988
88910SOL    HW168627   1.608   9.320  11.003
88910SOL    HW268628   1.542   9.220  10.910
88911SOL     OW68629  11.496  13.531  10.370
88911SOL    HW168630  11.539  13.614  10.389
88911SOL    HW268631  11.423  13.527  10.432
88912SOL     OW68632  10.005   4.268   2.030
88912SOL    HW168633   9.989   4.174   2.036
88912SOL    HW268634   9.992   4.290   1.938
88913SOL     OW68635   7.348  11.765   9.454
88913SOL    HW168636   7.330  11.674   9.479
88913SOL    HW268637   7.351  11.763   9.358
88914SOL     OW68638   7.616  10.084  11.946
88914SOL    HW168639   7.657  10.075  11.860
88914SOL    HW268640   7.545  10.020  11.946
88915SOL     OW68641   0.293   2.596   7.786
88915SOL    HW168642   0.202   2.590   7.758
88915SOL    HW268643   0.289   2.588   7.881
88916SOL     OW68644  10.328   7.071   5.175
88916SOL    HW168645  10.334   7.137   5.245
88916SOL    HW268646  10.407   7.085   5.123
88917SOL     OW68647   3.529   9.671   2.219
88917SOL    HW168648   3.454   9.727   2.238
88917SOL    HW268649   3.526   9.657   2.125
88918SOL     OW68650   9.130  13.925   5.567
88918SOL    HW168651   9.035  13.923   5.555
88918SOL    HW268652   9.153  13.836   5.593
88919SOL     OW68653  10.052   0.339   0.414
88919SOL    HW168654  10.062   0.422   0.367
88919SOL    HW268655  10.043   0.273   0.345
88920SOL     OW68656  10.810  13.946   7.147
88920SOL    HW168657  10.818  14.027   7.095
88920SOL    HW268658  10.898  13.907   7.143
88921SOL     OW68659   0.584   8.436  14.232
88921SOL    HW168660   0.616   8.478  14.151
88921SOL    HW268661   0.565   8.509  14.290
88922SOL     OW68662   3.822  10.324   8.038
88922SOL    HW168663   3.794  10.233   8.044
88922SOL    HW268664   3.904  10.327   8.087
88923SOL     OW68665   9.632   5.825  14.803
88923SOL    HW168666   9.700   5.761  14.783
88923SOL    HW268667   9.662   5.866   0.015
88924SOL     OW68668  10.310   7.504   1.621
88924SOL    HW168669  10.261   7.422   1.622
88924SOL    HW268670  10.251   7.568   1.581
88925SOL     OW68671   9.571   0.197   7.302
88925SOL    HW168672   9.520   0.226   7.227
88925SOL    HW268673   9.577   0.102   7.292
88926SOL     OW68674  10.910   4.336   4.544
88926SOL    HW168675  10.839   4.346   4.609
88926SOL    HW268676  10.895   4.250   4.506
88927SOL     OW68677  11.219   3.551   6.116
88927SOL    HW168678  11.136   3.595   6.100
88927SOL    HW268679  11.262   3.604   6.183
88928SOL     OW68680   5.258  11.370   5.993
88928SOL    HW168681   5.165  11.372   5.970
88928SOL    HW268682   5.271  11.446   6.050
88929SOL     OW68683   0.915   2.907   5.959
88929SOL    HW168684   0.898   3.001   5.967
88929SOL    HW268685   0.831   2.869   5.933
88930SOL     OW68686  11.595  13.368   2.726
88930SOL    HW168687  11.526  13.409   2.779
88930SOL    HW268688  11.651  13.324   2.790
88931SOL     OW68689   7.346   8.461  14.787
88931SOL    HW168690   7.267   8.475  14.734
88931SOL    HW268691   7.330   8.379  14.833
88932SOL     OW68692   1.218   4.004  13.471
88932SOL    HW168693   1.250   4.052  13.547
88932SOL    HW268694   1.297   3.971  13.429
88933SOL     OW68695  14.788  12.177   9.955
88933SOL    HW168696  14.795  12.094   9.908
88933SOL    HW268697  14.795  12.154  10.047
88934SOL     OW68698  13.502  12.559   4.496
88934SOL    HW168699  13.471  12.607   4.419
88934SOL    HW268700  13.556  12.622   4.544
88935SOL     OW68701  14.745   1.964   0.916
88935SOL    HW168702  14.745   2.015   0.996
88935SOL    HW268703  14.674   1.901   0.927
88936SOL     OW68704  11.374   4.176   0.905
88936SOL    HW168705  11.291   4.219   0.884
88936SOL    HW268706  11.369   4.092   0.859
88937SOL     OW68707  10.186  14.734  11.357
88937SOL    HW168708  10.136  14.668  11.309
88937SOL    HW268709  10.121  14.800  11.382
88938SOL     OW68710   3.917   3.223   5.911
88938SOL    HW168711   3.952   3.212   5.823
88938SOL    HW268712   3.950   3.148   5.960
88939SOL     OW68713  10.963  12.275   6.241
88939SOL    HW168714  10.980  12.360   6.282
88939SOL    HW268715  10.957  12.294   6.148
88940SOL     OW68716   6.579  14.562  10.303
88940SOL    HW168717   6.501  14.513  10.279
88940SOL    HW268718   6.640  14.546  10.231
88941SOL     OW68719   3.178  11.721   5.426
88941SOL    HW168720   3.178  11.817   5.433
88941SOL    HW268721   3.107  11.693   5.483
88942SOL     OW68722   7.773   9.154   4.993
88942SOL    HW168723   7.831   9.154   4.916
88942SOL    HW268724   7.776   9.064   5.025
88943SOL     OW68725   5.721  10.419   3.314
88943SOL    HW168726   5.761  10.410   3.400
88943SOL    HW268727   5.795  10.425   3.254
88944SOL     OW68728   9.556   2.638  11.056
88944SOL    HW168729   9.562   2.718  11.005
88944SOL    HW268730   9.472   2.644  11.102
88945SOL     OW68731   6.419   2.361   2.582
88945SOL    HW168732   6.515   2.355   2.585
88945SOL    HW268733   6.395   2.403   2.665
88946SOL     OW68734   1.495  10.294   4.104
88946SOL    HW168735   1.514  10.260   4.016
88946SOL    HW268736   1.488  10.216   4.159
88947SOL     OW68737  13.518   8.124  14.808
88947SOL    HW168738  13.563   8.176   0.006
88947SOL    HW268739  13.475   8.189  14.753
88948SOL     OW68740   5.735  10.725  13.201
88948SOL    HW168741   5.792  10.721  13.124
88948SOL    HW268742   5.649  10.747  13.166
88949SOL     OW68743  14.173  10.921   8.958
88949SOL    HW168744  14.185  10.993   9.020
88949SOL    HW268745  14.108  10.953   8.896
88950SOL     OW68746  12.896  13.030  11.835
88950SOL    HW168747  12.903  13.124  11.847
88950SOL    HW268748  12.845  13.019  11.755
88951SOL     OW68749   3.224  10.933   6.435
88951SOL    HW168750   3.318  10.924   6.420
88951SOL    HW268751   3.199  10.857   6.486
88952SOL     OW68752   3.004   7.970  11.332
88952SOL    HW168753   3.083   8.016  11.363
88952SOL    HW268754   2.997   7.894  11.389
88953SOL     OW68755   7.754   6.974   9.340
88953SOL    HW168756   7.831   6.999   9.391
88953SOL    HW268757   7.767   6.881   9.320
88954SOL     OW68758   5.624  10.639  11.248
88954SOL    HW168759   5.624  10.586  11.169
88954SOL    HW268760   5.567  10.713  11.227
88955SOL     OW68761   8.743   1.200   5.606
88955SOL    HW168762   8.731   1.274   5.547
88955SOL    HW268763   8.657   1.188   5.647
88956SOL     OW68764   8.690  12.804   5.188
88956SOL    HW168765   8.622  12.753   5.143
88956SOL    HW268766   8.771  12.759   5.165
88957SOL     OW68767   9.238   0.755   1.925
88957SOL    HW168768   9.328   0.728   1.907
88957SOL    HW268769   9.194   0.675   1.953
88958SOL     OW68770   1.370   0.689   5.755
88958SOL    HW168771   1.303   0.659   5.694
88958SOL    HW268772   1.345   0.780   5.775
88959SOL     OW68773   6.870  10.568  14.519
88959SOL    HW168774   6.881  10.663  14.525
88959SOL    HW268775   6.777  10.555  14.500
88960SOL     OW68776   6.231   1.153  12.344
88960SOL    HW168777   6.217   1.231  12.399
88960SOL    HW268778   6.143   1.131  12.312
88961SOL     OW68779   0.644   2.275  13.343
88961SOL    HW168780   0.656   2.188  13.304
88961SOL    HW268781   0.551   2.279  13.364
88962SOL     OW68782   0.228  13.253  13.786
88962SOL    HW168783   0.320  13.229  13.771
88962SOL    HW268784   0.186  13.242  13.701
88963SOL     OW68785  13.100   8.932   1.971
88963SOL    HW168786  13.148   8.973   1.900
88963SOL    HW268787  13.117   8.989   2.047
88964SOL     OW68788   1.097   7.726  12.129
88964SOL    HW168789   1.152   7.768  12.063
88964SOL    HW268790   1.107   7.780  12.207
88965SOL     OW68791   9.121  10.494  11.987
88965SOL    HW168792   9.158  10.426  12.043
88965SOL    HW268793   9.043  10.525  12.034
88966SOL     OW68794  10.315   1.547   2.063
88966SOL    HW168795  10.308   1.494   2.142
88966SOL    HW268796  10.229   1.587   2.053
88967SOL     OW68797   3.667   0.690   4.339
88967SOL    HW168798   3.739   0.637   4.374
88967SOL    HW268799   3.702   0.726   4.257
88968SOL     OW68800   9.580   4.291   5.668
88968SOL    HW168801   9.621   4.205   5.674
88968SOL    HW268802   9.533   4.290   5.585
88969SOL     OW68803   2.564   3.346  14.561
88969SOL    HW168804   2.508   3.424  14.567
88969SOL    HW268805   2.543   3.296  14.639
88970SOL     OW68806  14.582   2.045  12.280
88970SOL    HW168807  14.570   1.951  12.274
88970SOL    HW268808  14.528   2.082  12.211
88971SOL     OW68809   7.529   8.151   2.376
88971SOL    HW168810   7.516   8.121   2.286
88971SOL    HW268811   7.568   8.238   2.367
88972SOL     OW68812  11.871   2.219   5.940
88972SOL    HW168813  11.803   2.232   6.006
88972SOL    HW268814  11.951   2.204   5.991
88973SOL     OW68815   0.377   7.743   4.541
88973SOL    HW168816   0.470   7.747   4.560
88973SOL    HW268817   0.354   7.651   4.553
88974SOL     OW68818   6.689   5.189   1.706
88974SOL    HW168819   6.649   5.217   1.789
88974SOL    HW268820   6.782   5.178   1.727
88975SOL     OW68821   0.955  11.724  13.722
88975SOL    HW168822   1.010  11.675  13.784
88975SOL    HW268823   0.957  11.673  13.642
88976SOL     OW68824  11.841   0.881  10.424
88976SOL    HW168825  11.824   0.882  10.330
88976SOL    HW268826  11.806   0.796  10.453
88977SOL     OW68827   7.008   0.614  14.545
88977SOL    HW168828   7.026   0.526  14.512
88977SOL    HW268829   7.022   0.671  14.470
88978SOL     OW68830   2.568   9.290   4.805
88978SOL    HW168831   2.515   9.319   4.880
88978SOL    HW268832   2.631   9.229   4.842
88979SOL     OW68833  11.767   8.575  10.696
88979SOL    HW168834  11.787   8.664  10.725
88979SOL    HW268835  11.696   8.547  10.754
88980SOL     OW68836   4.172   3.081  14.042
88980SOL    HW168837   4.092   3.040  14.009
88980SOL    HW268838   4.243   3.037  13.994
88981SOL     OW68839   8.186   9.950  10.059
88981SOL    HW168840   8.206   9.947   9.966
88981SOL    HW268841   8.093   9.931  10.065
88982SOL     OW68842   6.645   5.794  12.459
88982SOL    HW168843   6.627   5.781  12.366
88982SOL    HW268844   6.738   5.813  12.463
88983SOL     OW68845  12.177   2.169   7.139
88983SOL    HW168846  12.266   2.137   7.125
88983SOL    HW268847  12.149   2.199   7.052
88984SOL     OW68848  14.230   7.996   7.219
88984SOL    HW168849  14.309   8.014   7.270
88984SOL    HW268850  14.231   8.061   7.149
88985SOL     OW68851   9.800   0.436  12.418
88985SOL    HW168852   9.725   0.380  12.437
88985SOL    HW268853   9.854   0.385  12.358
88986SOL     OW68854   5.357   9.604   4.315
88986SOL    HW168855   5.426   9.657   4.354
88986SOL    HW268856   5.399   9.564   4.238
88987SOL     OW68857  13.007   4.670   9.266
88987SOL    HW168858  13.068   4.600   9.291
88987SOL    HW268859  12.929   4.654   9.318
88988SOL     OW68860   6.281   5.716  14.105
88988SOL    HW168861   6.264   5.623  14.115
88988SOL    HW268862   6.292   5.728  14.010
88989SOL     OW68863  13.889   4.005   3.909
88989SOL    HW168864  13.966   3.993   3.853
88989SOL    HW268865  13.871   3.917   3.944
88990SOL     OW68866   3.757  11.216  14.815
88990SOL    HW168867   3.809  11.231   0.024
88990SOL    HW268868   3.767  11.123  14.797
88991SOL     OW68869   6.757  14.256   2.209
88991SOL    HW168870   6.813  14.334   2.204
88991SOL    HW268871   6.680  14.278   2.156
88992SOL     OW68872   2.005   9.295   3.044
88992SOL    HW168873   1.928   9.254   3.082
88992SOL    HW268874   2.009   9.381   3.087
88993SOL     OW68875   9.506  10.790  12.223
88993SOL    HW168876   9.578  10.756  12.171
88993SOL    HW268877   9.434  10.800  12.161
88994SOL     OW68878  10.743  12.807   2.531
88994SOL    HW168879  10.735  12.902   2.524
88994SOL    HW268880  10.830  12.789   2.494
88995SOL     OW68881   8.015   4.729   8.937
88995SOL    HW168882   8.038   4.694   8.851
88995SOL    HW268883   8.094   4.773   8.967
88996SOL     OW68884   4.463   1.189   3.316
88996SOL    HW168885   4.370   1.168   3.303
88996SOL    HW268886   4.473   1.197   3.410
88997SOL     OW68887  13.791   3.495   1.028
88997SOL    HW168888  13.697   3.487   1.044
88997SOL    HW268889  13.803   3.584   0.997
88998SOL     OW68890  11.484  11.985  13.040
88998SOL    HW168891  11.570  12.020  13.060
88998SOL    HW268892  11.500  11.914  12.978
88999SOL     OW68893  12.902   0.836  13.171
88999SOL    HW168894  12.820   0.847  13.124
88999SOL    HW268895  12.876   0.835  13.263
89000SOL     OW68896  12.194  11.880  13.671
89000SOL    HW168897  12.213  11.973  13.684
89000SOL    HW268898  12.256  11.834  13.727
89001SOL     OW68899   2.535   6.637  12.788
89001SOL    HW168900   2.584   6.634  12.706
89001SOL    HW268901   2.512   6.729  12.799
89002SOL     OW68902  12.697   1.119  12.474
89002SOL    HW168903  12.676   1.207  12.504
89002SOL    HW268904  12.724   1.072  12.553
89003SOL     OW68905   0.468   5.940   8.589
89003SOL    HW168906   0.461   5.908   8.679
89003SOL    HW268907   0.562   5.953   8.575
89004SOL     OW68908   7.089   2.837  10.783
89004SOL    HW168909   7.008   2.789  10.798
89004SOL    HW268910   7.148   2.806  10.852
89005SOL     OW68911  13.392   4.646   8.873
89005SOL    HW168912  13.464   4.603   8.918
89005SOL    HW268913  13.403   4.623   8.781
89006SOL     OW68914   7.137  13.988   1.430
89006SOL    HW168915   7.151  13.897   1.457
89006SOL    HW268916   7.069  13.982   1.363
89007SOL     OW68917   6.082  12.166   9.184
89007SOL    HW168918   6.057  12.242   9.131
89007SOL    HW268919   6.143  12.117   9.128
89008SOL     OW68920  12.903   3.618  11.989
89008SOL    HW168921  12.848   3.696  11.980
89008SOL    HW268922  12.955   3.617  11.908
89009SOL     OW68923  13.657  10.790   6.810
89009SOL    HW168924  13.745  10.823   6.788
89009SOL    HW268925  13.673  10.714   6.866
89010SOL     OW68926  11.918   3.094   8.857
89010SOL    HW168927  11.881   3.055   8.778
89010SOL    HW268928  11.953   3.021   8.907
89011SOL     OW68929  12.427  12.788   7.944
89011SOL    HW168930  12.409  12.867   7.893
89011SOL    HW268931  12.436  12.719   7.878
89012SOL     OW68932  14.319   6.012  13.230
89012SOL    HW168933  14.232   5.999  13.269
89012SOL    HW268934  14.380   5.979  13.296
89013SOL     OW68935   6.173  13.892   1.785
89013SOL    HW168936   6.240  13.901   1.853
89013SOL    HW268937   6.090  13.887   1.833
89014SOL     OW68938   8.393   4.299   6.125
89014SOL    HW168939   8.385   4.203   6.125
89014SOL    HW268940   8.376   4.324   6.034
89015SOL     OW68941  10.636  12.054  14.030
89015SOL    HW168942  10.683  12.082  13.951
89015SOL    HW268943  10.627  11.959  14.020
89016SOL     OW68944   1.793  13.202   7.737
89016SOL    HW168945   1.809  13.282   7.787
89016SOL    HW268946   1.745  13.146   7.798
89017SOL     OW68947  11.187   9.167   4.622
89017SOL    HW168948  11.143   9.085   4.600
89017SOL    HW268949  11.280   9.145   4.620
89018SOL     OW68950   8.265   0.964  10.958
89018SOL    HW168951   8.280   0.973  11.052
89018SOL    HW268952   8.351   0.978  10.919
89019SOL     OW68953   6.358  11.654  11.305
89019SOL    HW168954   6.447  11.636  11.335
89019SOL    HW268955   6.302  11.616  11.373
89020SOL     OW68956  14.615   8.063  12.352
89020SOL    HW168957  14.634   8.091  12.441
89020SOL    HW268958  14.697   8.025  12.321
89021SOL     OW68959  11.708  10.404   2.849
89021SOL    HW168960  11.647  10.343   2.891
89021SOL    HW268961  11.676  10.491   2.874
89022SOL     OW68962   5.634   8.632   3.867
89022SOL    HW168963   5.631   8.723   3.896
89022SOL    HW268964   5.689   8.588   3.932
89023SOL     OW68965   9.334  14.251   3.922
89023SOL    HW168966   9.375  14.333   3.949
89023SOL    HW268967   9.294  14.216   4.002
89024SOL     OW68968   1.548   4.697   5.694
89024SOL    HW168969   1.469   4.734   5.733
89024SOL    HW268970   1.618   4.724   5.753
89025SOL     OW68971   1.122  10.527  11.133
89025SOL    HW168972   1.104  10.557  11.222
89025SOL    HW268973   1.094  10.599  11.077
89026SOL     OW68974   1.990  11.116   8.641
89026SOL    HW168975   1.903  11.128   8.678
89026SOL    HW268976   2.034  11.055   8.700
89027SOL     OW68977   0.110  12.354   7.958
89027SOL    HW168978   0.179  12.407   7.917
89027SOL    HW268979   0.037  12.356   7.896
89028SOL     OW68980   0.670  12.213   4.281
89028SOL    HW168981   0.760  12.243   4.294
89028SOL    HW268982   0.679  12.137   4.223
89029SOL     OW68983   1.769   5.841   7.733
89029SOL    HW168984   1.678   5.848   7.705
89029SOL    HW268985   1.813   5.797   7.660
89030SOL     OW68986   5.845  10.674  14.527
89030SOL    HW168987   5.844  10.588  14.568
89030SOL    HW268988   5.926  10.715  14.559
89031SOL     OW68989   7.852   9.706   8.054
89031SOL    HW168990   7.819   9.641   7.992
89031SOL    HW268991   7.883   9.778   8.000
89032SOL     OW68992   9.499   8.048   2.587
89032SOL    HW168993   9.537   7.982   2.529
89032SOL    HW268994   9.460   7.998   2.659
89033SOL     OW68995  10.549   9.477   8.296
89033SOL    HW168996  10.566   9.570   8.277
89033SOL    HW268997  10.477   9.478   8.358
89034SOL     OW68998  12.703  10.523  10.216
89034SOL    HW168999  12.695  10.441  10.265
89034SOL    HW269000  12.729  10.496  10.128
89035SOL     OW69001  12.844   6.497   1.408
89035SOL    HW169002  12.877   6.407   1.411
89035SOL    HW269003  12.839   6.519   1.315
89036SOL     OW69004  13.842  11.386   5.888
89036SOL    HW169005  13.838  11.295   5.919
89036SOL    HW269006  13.908  11.428   5.943
89037SOL     OW69007   8.807   7.257   1.304
89037SOL    HW169008   8.735   7.204   1.269
89037SOL    HW269009   8.772   7.345   1.311
89038SOL     OW69010   7.791   8.967   6.147
89038SOL    HW169011   7.822   8.913   6.220
89038SOL    HW269012   7.744   8.906   6.090
89039SOL     OW69013   4.223   3.052   8.137
89039SOL    HW169014   4.132   3.033   8.158
89039SOL    HW269015   4.256   2.972   8.097
89040SOL     OW69016   9.909   9.609  11.998
89040SOL    HW169017   9.911   9.517  12.024
89040SOL    HW269018   9.876   9.607  11.908
89041SOL     OW69019   3.627  13.013   3.657
89041SOL    HW169020   3.584  13.050   3.735
89041SOL    HW269021   3.561  13.020   3.588
89042SOL     OW69022   5.828  12.757   7.791
89042SOL    HW169023   5.858  12.840   7.830
89042SOL    HW269024   5.850  12.765   7.698
89043SOL     OW69025   7.664  12.345   0.969
89043SOL    HW169026   7.699  12.293   1.042
89043SOL    HW269027   7.694  12.434   0.986
89044SOL     OW69028  10.974   1.328   9.567
89044SOL    HW169029  11.009   1.310   9.655
89044SOL    HW269030  10.922   1.407   9.579
89045SOL     OW69031   4.003   5.647   2.460
89045SOL    HW169032   4.059   5.724   2.467
89045SOL    HW269033   4.038   5.587   2.526
89046SOL     OW69034   8.027   5.656  10.372
89046SOL    HW169035   8.084   5.644  10.296
89046SOL    HW269036   8.050   5.742  10.406
89047SOL     OW69037  13.784   5.822   2.153
89047SOL    HW169038  13.836   5.747   2.180
89047SOL    HW269039  13.761   5.866   2.235
89048SOL     OW69040   2.056   8.061   1.395
89048SOL    HW169041   2.085   8.049   1.304
89048SOL    HW269042   2.124   8.117   1.434
89049SOL     OW69043  13.654   0.083   6.043
89049SOL    HW169044  13.637   0.010   6.103
89049SOL    HW269045  13.701   0.147   6.097
89050SOL     OW69046   7.745   4.053   7.031
89050SOL    HW169047   7.770   4.143   7.051
89050SOL    HW269048   7.739   4.010   7.117
89051SOL     OW69049   4.315  12.151  10.800
89051SOL    HW169050   4.288  12.133  10.711
89051SOL    HW269051   4.396  12.202  10.791
89052SOL     OW69052   3.524   7.983  14.464
89052SOL    HW169053   3.536   8.072  14.429
89052SOL    HW269054   3.585   7.929  14.415
89053SOL     OW69055   4.329   4.143   4.528
89053SOL    HW169056   4.296   4.207   4.465
89053SOL    HW269057   4.387   4.193   4.586
89054SOL     OW69058   1.053   4.037   3.482
89054SOL    HW169059   1.054   3.943   3.494
89054SOL    HW269060   0.964   4.064   3.505
89055SOL     OW69061  10.357  13.842   2.584
89055SOL    HW169062  10.320  13.763   2.545
89055SOL    HW269063  10.449  13.821   2.599
89056SOL     OW69064  14.291   9.598  12.821
89056SOL    HW169065  14.338   9.661  12.876
89056SOL    HW269066  14.215   9.573  12.874
89057SOL     OW69067   6.536   1.952  10.878
89057SOL    HW169068   6.481   2.029  10.867
89057SOL    HW269069   6.624   1.983  10.857
89058SOL     OW69070   6.530   2.730   3.021
89058SOL    HW169071   6.575   2.800   3.070
89058SOL    HW269072   6.488   2.776   2.948
89059SOL     OW69073  11.584   5.629   0.651
89059SOL    HW169074  11.490   5.643   0.636
89059SOL    HW269075  11.604   5.683   0.727
89060SOL     OW69076   7.674   6.461   3.299
89060SOL    HW169077   7.588   6.448   3.258
89060SOL    HW269078   7.737   6.446   3.229
89061SOL     OW69079   7.367  10.341  10.752
89061SOL    HW169080   7.280  10.379  10.740
89061SOL    HW269081   7.427  10.411  10.726
89062SOL     OW69082  13.919   4.620   7.822
89062SOL    HW169083  14.001   4.664   7.799
89062SOL    HW269084  13.919   4.617   7.917
89063SOL     OW69085   6.852   0.086   5.738
89063SOL    HW169086   6.882   0.045   5.820
89063SOL    HW269087   6.826   0.174   5.764
89064SOL     OW69088   5.081   8.875   7.777
89064SOL    HW169089   5.083   8.915   7.864
89064SOL    HW269090   5.003   8.911   7.735
89065SOL     OW69091   9.999   7.261  14.386
89065SOL    HW169092   9.996   7.166  14.389
89065SOL    HW269093  10.092   7.283  14.383
89066SOL     OW69094  12.018   2.887   9.009
89066SOL    HW169095  12.058   2.952   9.066
89066SOL    HW269096  12.087   2.823   8.993
89067SOL     OW69097   3.594   0.704  14.682
89067SOL    HW169098   3.627   0.632  14.628
89067SOL    HW269099   3.672   0.753  14.707
89068SOL     OW69100   6.916  13.884  12.282
89068SOL    HW169101   6.863  13.912  12.357
89068SOL    HW269102   6.951  13.799  12.307
89069SOL     OW69103  11.139  12.339   2.226
89069SOL    HW169104  11.133  12.434   2.240
89069SOL    HW269105  11.053  12.305   2.251
89070SOL     OW69106  14.288   2.719   8.104
89070SOL    HW169107  14.290   2.643   8.046
89070SOL    HW269108  14.207   2.709   8.154
89071SOL     OW69109   6.372   1.235   6.325
89071SOL    HW169110   6.444   1.281   6.367
89071SOL    HW269111   6.321   1.305   6.283
89072SOL     OW69112  13.703  12.598   9.787
89072SOL    HW169113  13.736  12.630   9.703
89072SOL    HW269114  13.720  12.670   9.848
89073SOL     OW69115   7.194   7.008   1.127
89073SOL    HW169116   7.191   7.094   1.169
89073SOL    HW269117   7.112   7.004   1.077
89074SOL     OW69118   3.606   3.290   5.439
89074SOL    HW169119   3.598   3.195   5.435
89074SOL    HW269120   3.586   3.312   5.530
89075SOL     OW69121   2.331   7.728  13.109
89075SOL    HW169122   2.261   7.717  13.045
89075SOL    HW269123   2.287   7.757  13.189
89076SOL     OW69124   7.176   8.059   9.585
89076SOL    HW169125   7.116   8.074   9.658
89076SOL    HW269126   7.255   8.021   9.625
89077SOL     OW69127  14.257   5.512   8.969
89077SOL    HW169128  14.171   5.555   8.963
89077SOL    HW269129  14.308   5.571   9.025
89078SOL     OW69130   3.274   7.162   9.834
89078SOL    HW169131   3.354   7.133   9.879
89078SOL    HW269132   3.300   7.242   9.788
89079SOL     OW69133   2.445   8.827   6.398
89079SOL    HW169134   2.497   8.768   6.452
89079SOL    HW269135   2.481   8.914   6.417
89080SOL     OW69136   2.735  12.394  10.597
89080SOL    HW169137   2.653  12.438  10.619
89080SOL    HW269138   2.728  12.308  10.638
89081SOL     OW69139   0.052   1.659  14.779
89081SOL    HW169140  14.836   1.689  14.810
89081SOL    HW269141   0.032   1.602  14.704
89082SOL     OW69142   2.788   5.210   3.268
89082SOL    HW169143   2.698   5.177   3.272
89082SOL    HW269144   2.840   5.139   3.305
89083SOL     OW69145  11.244   0.299   7.233
89083SOL    HW169146  11.274   0.379   7.276
89083SOL    HW269147  11.212   0.328   7.148
89084SOL     OW69148  13.781  12.275  10.622
89084SOL    HW169149  13.847  12.340  10.600
89084SOL    HW269150  13.698  12.316  10.596
89085SOL     OW69151   3.942   3.011   8.812
89085SOL    HW169152   3.996   2.945   8.770
89085SOL    HW269153   4.005   3.071   8.852
89086SOL     OW69154   1.022   1.965  11.170
89086SOL    HW169155   0.960   1.977  11.241
89086SOL    HW269156   1.017   2.045  11.119
89087SOL     OW69157   3.682  12.974  10.895
89087SOL    HW169158   3.739  12.926  10.836
89087SOL    HW269159   3.724  13.059  10.907
89088SOL     OW69160   1.024   7.440  10.089
89088SOL    HW169161   0.935   7.473  10.103
89088SOL    HW269162   1.013   7.348  10.068
89089SOL     OW69163   2.376   7.452   1.559
89089SOL    HW169164   2.344   7.396   1.487
89089SOL    HW269165   2.364   7.399   1.638
89090SOL     OW69166  10.591   2.677   2.356
89090SOL    HW169167  10.603   2.772   2.359
89090SOL    HW269168  10.621   2.652   2.269
89091SOL     OW69169  11.950  14.176  12.213
89091SOL    HW169170  12.028  14.231  12.223
89091SOL    HW269171  11.947  14.125  12.294
89092SOL     OW69172  13.193  10.324   8.773
89092SOL    HW169173  13.237  10.356   8.694
89092SOL    HW269174  13.174  10.402   8.823
89093SOL     OW69175   4.869   1.979   6.171
89093SOL    HW169176   4.808   2.049   6.192
89093SOL    HW269177   4.838   1.904   6.223
89094SOL     OW69178  13.911   3.817   6.080
89094SOL    HW169179  13.983   3.878   6.069
89094SOL    HW269180  13.951   3.737   6.115
89095SOL     OW69181   4.635   3.179  10.668
89095SOL    HW169182   4.564   3.239  10.644
89095SOL    HW269183   4.592   3.094  10.676
89096SOL     OW69184   3.249   5.809   7.630
89096SOL    HW169185   3.343   5.823   7.617
89096SOL    HW269186   3.216   5.792   7.542
89097SOL     OW69187   3.681   3.213   6.487
89097SOL    HW169188   3.637   3.297   6.500
89097SOL    HW269189   3.644   3.155   6.554
89098SOL     OW69190   4.993   6.369   3.435
89098SOL    HW169191   4.936   6.304   3.395
89098SOL    HW269192   5.042   6.321   3.502
89099SOL     OW69193   6.732   8.285  14.226
89099SOL    HW169194   6.641   8.274  14.251
89099SOL    HW269195   6.769   8.339  14.297
89100SOL     OW69196  10.609   1.394   1.410
89100SOL    HW169197  10.704   1.406   1.409
89100SOL    HW269198  10.596   1.301   1.425
89101SOL     OW69199   1.026  12.383  12.803
89101SOL    HW169200   1.040  12.321  12.875
89101SOL    HW269201   1.106  12.436  12.801
89102SOL     OW69202  13.985   2.874   5.388
89102SOL    HW169203  13.964   2.908   5.302
89102SOL    HW269204  14.053   2.933   5.422
89103SOL     OW69205   1.073   7.810   7.872
89103SOL    HW169206   1.076   7.832   7.966
89103SOL    HW269207   1.009   7.871   7.835
89104SOL     OW69208   4.687  10.971   9.403
89104SOL    HW169209   4.739  11.013   9.472
89104SOL    HW269210   4.735  10.892   9.381
89105SOL     OW69211   9.782   1.062   2.952
89105SOL    HW169212   9.862   1.029   2.992
89105SOL    HW269213   9.787   1.157   2.961
89106SOL     OW69214   1.175   6.131  10.386
89106SOL    HW169215   1.154   6.137  10.292
89106SOL    HW269216   1.090   6.142  10.429
89107SOL     OW69217   8.481  13.076   0.073
89107SOL    HW169218   8.473  12.982   0.092
89107SOL    HW269219   8.414  13.093   0.006
89108SOL     OW69220  11.988  11.496   3.046
89108SOL    HW169221  11.915  11.552   3.070
89108SOL    HW269222  12.049  11.554   3.000
89109SOL     OW69223   2.408   3.454   3.080
89109SOL    HW169224   2.435   3.377   3.030
89109SOL    HW269225   2.433   3.528   3.025
89110SOL     OW69226   2.289   3.998   2.499
89110SOL    HW169227   2.208   3.963   2.461
89110SOL    HW269228   2.337   4.033   2.425
89111SOL     OW69229   6.170  11.432   2.020
89111SOL    HW169230   6.179  11.355   2.076
89111SOL    HW269231   6.168  11.506   2.080
89112SOL     OW69232   6.257   9.963   6.164
89112SOL    HW169233   6.179   9.982   6.113
89112SOL    HW269234   6.224   9.913   6.239
89113SOL     OW69235   8.068   2.235  13.741
89113SOL    HW169236   8.007   2.299  13.704
89113SOL    HW269237   8.048   2.154  13.695
89114SOL     OW69238  14.522   1.719   3.790
89114SOL    HW169239  14.492   1.629   3.804
89114SOL    HW269240  14.615   1.710   3.770
89115SOL     OW69241   3.792  12.263   3.407
89115SOL    HW169242   3.843  12.183   3.418
89115SOL    HW269243   3.745  12.273   3.490
89116SOL     OW69244   1.039   9.571   9.419
89116SOL    HW169245   1.023   9.663   9.396
89116SOL    HW269246   1.094   9.538   9.348
89117SOL     OW69247  14.592  13.372   6.690
89117SOL    HW169248  14.624  13.393   6.603
89117SOL    HW269249  14.548  13.288   6.680
89118SOL     OW69250   5.281  11.767   1.592
89118SOL    HW169251   5.239  11.812   1.666
89118SOL    HW269252   5.368  11.806   1.587
89119SOL     OW69253  13.759   5.656   5.314
89119SOL    HW169254  13.669   5.664   5.284
89119SOL    HW269255  13.757   5.581   5.374
89120SOL     OW69256  11.876   8.735  13.358
89120SOL    HW169257  11.807   8.692  13.409
89120SOL    HW269258  11.956   8.720  13.408
89121SOL     OW69259  11.334   3.520   3.912
89121SOL    HW169260  11.328   3.574   3.991
89121SOL    HW269261  11.287   3.439   3.935
89122SOL     OW69262   0.135   8.262   8.295
89122SOL    HW169263   0.044   8.244   8.319
89122SOL    HW269264   0.129   8.299   8.207
89123SOL     OW69265  11.631   2.465   1.364
89123SOL    HW169266  11.660   2.430   1.281
89123SOL    HW269267  11.695   2.434   1.428
89124SOL     OW69268  12.866   5.608   3.780
89124SOL    HW169269  12.948   5.600   3.730
89124SOL    HW269270  12.880   5.683   3.837
89125SOL     OW69271   5.402   7.891   3.350
89125SOL    HW169272   5.448   7.854   3.274
89125SOL    HW269273   5.341   7.954   3.312
89126SOL     OW69274  10.644   7.022  10.247
89126SOL    HW169275  10.655   7.113  10.274
89126SOL    HW269276  10.702   6.972  10.305
89127SOL     OW69277   1.732   3.107  10.637
89127SOL    HW169278   1.727   3.124  10.543
89127SOL    HW269279   1.680   3.177  10.677
89128SOL     OW69280  11.945  10.064  13.906
89128SOL    HW169281  11.952   9.974  13.939
89128SOL    HW269282  12.030  10.081  13.866
89129SOL     OW69283   6.012  13.992   8.382
89129SOL    HW169284   5.955  14.050   8.332
89129SOL    HW269285   5.973  13.989   8.470
89130SOL     OW69286  10.761  12.810   6.241
89130SOL    HW169287  10.716  12.818   6.157
89130SOL    HW269288  10.706  12.750   6.292
89131SOL     OW69289   3.935   6.306   6.007
89131SOL    HW169290   3.928   6.210   6.001
89131SOL    HW269291   3.925   6.337   5.917
89132SOL     OW69292   0.408   7.878   5.967
89132SOL    HW169293   0.344   7.942   5.999
89132SOL    HW269294   0.491   7.907   6.005
89133SOL     OW69295   6.705   2.940  13.958
89133SOL    HW169296   6.609   2.935  13.959
89133SOL    HW269297   6.727   2.957  13.867
89134SOL     OW69298   1.437  13.025   7.312
89134SOL    HW169299   1.402  13.010   7.400
89134SOL    HW269300   1.456  12.938   7.278
89135SOL     OW69301   1.765   1.458   6.617
89135SOL    HW169302   1.781   1.522   6.548
89135SOL    HW269303   1.794   1.374   6.580
89136SOL     OW69304  10.928   5.609   7.042
89136SOL    HW169305  10.848   5.621   7.093
89136SOL    HW269306  10.983   5.682   7.067
89137SOL     OW69307   6.488   1.438  13.839
89137SOL    HW169308   6.513   1.507  13.900
89137SOL    HW269309   6.552   1.443  13.768
89138SOL     OW69310   8.139  14.690   2.180
89138SOL    HW169311   8.215  14.696   2.123
89138SOL    HW269312   8.134  14.776   2.223
89139SOL     OW69313   3.604   0.346  12.250
89139SOL    HW169314   3.611   0.258  12.288
89139SOL    HW269315   3.651   0.402  12.312
89140SOL     OW69316  12.084   7.022  14.610
89140SOL    HW169317  12.021   6.986  14.548
89140SOL    HW269318  12.032   7.075  14.670
89141SOL     OW69319  12.442   2.428   4.366
89141SOL    HW169320  12.449   2.358   4.302
89141SOL    HW269321  12.354   2.421   4.401
89142SOL     OW69322   1.285  11.939   3.771
89142SOL    HW169323   1.309  11.959   3.862
89142SOL    HW269324   1.346  11.869   3.746
89143SOL     OW69325   3.488   4.325   0.454
89143SOL    HW169326   3.403   4.338   0.497
89143SOL    HW269327   3.552   4.351   0.520
89144SOL     OW69328  10.423   1.042   1.126
89144SOL    HW169329  10.395   1.118   1.176
89144SOL    HW269330  10.517   1.035   1.142
89145SOL     OW69331  14.656  10.241   5.042
89145SOL    HW169332  14.578  10.196   5.008
89145SOL    HW269333  14.723  10.223   4.977
89146SOL     OW69334   4.129   8.056   1.032
89146SOL    HW169335   4.205   8.047   0.975
89146SOL    HW269336   4.147   7.998   1.106
89147SOL     OW69337   0.970   1.604   6.645
89147SOL    HW169338   0.971   1.599   6.549
89147SOL    HW269339   1.054   1.567   6.672
89148SOL     OW69340   0.180   3.513   3.634
89148SOL    HW169341   0.166   3.424   3.602
89148SOL    HW269342   0.275   3.524   3.635
89149SOL     OW69343  14.576   4.294   9.246
89149SOL    HW169344  14.650   4.330   9.295
89149SOL    HW269345  14.612   4.269   9.161
89150SOL     OW69346   1.542   0.874   5.177
89150SOL    HW169347   1.608   0.884   5.246
89150SOL    HW269348   1.589   0.830   5.106
89151SOL     OW69349   5.206   2.408   6.383
89151SOL    HW169350   5.160   2.491   6.386
89151SOL    HW269351   5.150   2.347   6.432
89152SOL     OW69352  12.834  13.490  13.778
89152SOL    HW169353  12.808  13.474  13.688
89152SOL    HW269354  12.925  13.459  13.783
89153SOL     OW69355  13.465  14.624  11.421
89153SOL    HW169356  13.435  14.546  11.375
89153SOL    HW269357  13.488  14.593  11.509
89154SOL     OW69358   5.194  14.565   6.220
89154SOL    HW169359   5.130  14.516   6.271
89154SOL    HW269360   5.253  14.603   6.285
89155SOL     OW69361  12.615  11.891   1.282
89155SOL    HW169362  12.533  11.869   1.237
89155SOL    HW269363  12.606  11.984   1.304
89156SOL     OW69364   1.649   4.387  13.928
89156SOL    HW169365   1.743   4.404  13.921
89156SOL    HW269366   1.621   4.371  13.838
89157SOL     OW69367  13.788  12.888  14.793
89157SOL    HW169368  13.758  12.846   0.003
89157SOL    HW269369  13.712  12.936  14.761
89158SOL     OW69370   1.840  10.474   6.634
89158SOL    HW169371   1.781  10.458   6.560
89158SOL    HW269372   1.788  10.454   6.711
89159SOL     OW69373   3.979   4.153   5.813
89159SOL    HW169374   4.041   4.223   5.837
89159SOL    HW269375   3.980   4.153   5.717
89160SOL     OW69376   3.714   7.772   1.599
89160SOL    HW169377   3.674   7.764   1.686
89160SOL    HW269378   3.808   7.764   1.616
89161SOL     OW69379   1.882   4.765  12.717
89161SOL    HW169380   1.932   4.806  12.647
89161SOL    HW269381   1.803   4.732  12.674
89162SOL     OW69382  12.151   0.234  13.688
89162SOL    HW169383  12.066   0.252  13.648
89162SOL    HW269384  12.211   0.295  13.646
89163SOL     OW69385   0.484   4.827   9.918
89163SOL    HW169386   0.568   4.834   9.963
89163SOL    HW269387   0.476   4.909   9.869
89164SOL     OW69388   1.085   2.871   4.834
89164SOL    HW169389   1.062   2.812   4.907
89164SOL    HW269390   1.154   2.927   4.870
89165SOL     OW69391   1.948   7.367  10.253
89165SOL    HW169392   1.856   7.351  10.274
89165SOL    HW269393   1.969   7.300  10.188
89166SOL     OW69394  10.990   3.339   8.247
89166SOL    HW169395  10.912   3.324   8.193
89166SOL    HW269396  11.037   3.256   8.243
89167SOL     OW69397   4.067   0.792   0.980
89167SOL    HW169398   4.066   0.731   0.906
89167SOL    HW269399   3.991   0.848   0.967
89168SOL     OW69400   4.730  14.128   3.709
89168SOL    HW169401   4.803  14.094   3.657
89168SOL    HW269402   4.660  14.064   3.697
89169SOL     OW69403  13.165   3.993   5.772
89169SOL    HW169404  13.188   3.996   5.679
89169SOL    HW269405  13.072   4.015   5.775
89170SOL     OW69406   3.883   4.157  11.904
89170SOL    HW169407   3.810   4.156  11.966
89170SOL    HW269408   3.860   4.090  11.840
89171SOL     OW69409  11.272   4.048   3.770
89171SOL    HW169410  11.300   4.109   3.838
89171SOL    HW269411  11.177   4.060   3.765
89172SOL     OW69412   9.619   8.987   5.380
89172SOL    HW169413   9.669   9.028   5.309
89172SOL    HW269414   9.653   9.029   5.459
89173SOL     OW69415   8.368  10.806   9.907
89173SOL    HW169416   8.454  10.766   9.912
89173SOL    HW269417   8.359  10.833   9.816
89174SOL     OW69418   4.630   7.561  13.096
89174SOL    HW169419   4.574   7.515  13.034
89174SOL    HW269420   4.598   7.534  13.182
89175SOL     OW69421   9.294  13.460   5.973
89175SOL    HW169422   9.213  13.409   5.971
89175SOL    HW269423   9.277  13.531   6.035
89176SOL     OW69424   4.701  14.213   0.719
89176SOL    HW169425   4.689  14.302   0.686
89176SOL    HW269426   4.778  14.218   0.775
89177SOL     OW69427   2.806  12.356   0.669
89177SOL    HW169428   2.787  12.262   0.665
89177SOL    HW269429   2.719  12.397   0.664
89178SOL     OW69430  12.568   2.873   1.237
89178SOL    HW169431  12.491   2.887   1.182
89178SOL    HW269432  12.555   2.930   1.313
89179SOL     OW69433   7.444   7.526   1.327
89179SOL    HW169434   7.513   7.570   1.277
89179SOL    HW269435   7.362   7.555   1.286
89180SOL     OW69436   0.198   5.891   8.531
89180SOL    HW169437   0.121   5.910   8.585
89180SOL    HW269438   0.272   5.920   8.583
89181SOL     OW69439   2.269   0.127   8.274
89181SOL    HW169440   2.191   0.178   8.251
89181SOL    HW269441   2.290   0.153   8.364
89182SOL     OW69442   4.254   0.194  13.707
89182SOL    HW169443   4.259   0.271  13.764
89182SOL    HW269444   4.342   0.185  13.671
89183SOL     OW69445  10.478  12.349   8.007
89183SOL    HW169446  10.444  12.353   8.096
89183SOL    HW269447  10.441  12.425   7.963
89184SOL     OW69448   5.748   0.168   5.635
89184SOL    HW169449   5.804   0.238   5.604
89184SOL    HW269450   5.808   0.102   5.669
89185SOL     OW69451   4.436   1.682  10.691
89185SOL    HW169452   4.467   1.707  10.604
89185SOL    HW269453   4.352   1.638  10.675
89186SOL     OW69454  11.501   1.206   7.065
89186SOL    HW169455  11.431   1.271   7.058
89186SOL    HW269456  11.455   1.122   7.070
89187SOL     OW69457   3.134  10.984   5.663
89187SOL    HW169458   3.049  11.026   5.647
89187SOL    HW269459   3.131  10.957   5.754
89188SOL     OW69460  14.345  10.285   8.365
89188SOL    HW169461  14.388  10.355   8.415
89188SOL    HW269462  14.297  10.331   8.297
89189SOL     OW69463   5.386   2.356  14.395
89189SOL    HW169464   5.405   2.441  14.433
89189SOL    HW269465   5.435   2.293  14.448
89190SOL     OW69466  13.020  10.149   4.191
89190SOL    HW169467  12.993  10.211   4.258
89190SOL    HW269468  13.028  10.065   4.237
89191SOL     OW69469  11.919   3.230   7.928
89191SOL    HW169470  11.913   3.135   7.939
89191SOL    HW269471  11.991   3.257   7.984
89192SOL     OW69472   8.656   6.719  12.425
89192SOL    HW169473   8.655   6.684  12.336
89192SOL    HW269474   8.745   6.750  12.437
89193SOL     OW69475  14.822   0.941   9.695
89193SOL    HW169476  14.765   0.882   9.645
89193SOL    HW269477   0.014   0.883   9.739
89194SOL     OW69478   6.408  14.713   7.084
89194SOL    HW169479   6.462  14.759   7.148
89194SOL    HW269480   6.342  14.668   7.137
89195SOL     OW69481  14.459   7.569  13.264
89195SOL    HW169482  14.546   7.608  13.262
89195SOL    HW269483  14.471   7.485  13.309
89196SOL     OW69484  10.123   3.919   0.608
89196SOL    HW169485  10.034   3.884   0.613
89196SOL    HW269486  10.113   4.013   0.623
89197SOL     OW69487  10.349   0.407  11.480
89197SOL    HW169488  10.270   0.372  11.437
89197SOL    HW269489  10.318   0.436  11.565
89198SOL     OW69490   2.619  11.131  12.561
89198SOL    HW169491   2.673  11.171  12.630
89198SOL    HW269492   2.542  11.187  12.555
89199SOL     OW69493   3.692   1.968  13.900
89199SOL    HW169494   3.772   1.959  13.849
89199SOL    HW269495   3.720   1.951  13.990
89200SOL     OW69496   4.341   0.792   1.140
89200SOL    HW169497   4.285   0.792   1.217
89200SOL    HW269498   4.358   0.885   1.122
89201SOL     OW69499  10.144  10.262   7.072
89201SOL    HW169500  10.189  10.180   7.053
89201SOL    HW269501  10.096  10.245   7.153
89202SOL     OW69502   6.425  11.103  10.621
89202SOL    HW169503   6.486  11.095  10.547
89202SOL    HW269504   6.474  11.155  10.685
89203SOL     OW69505   7.544  11.199  13.244
89203SOL    HW169506   7.488  11.146  13.301
89203SOL    HW269507   7.616  11.139  13.219
89204SOL     OW69508   8.191  12.736  13.820
89204SOL    HW169509   8.178  12.665  13.884
89204SOL    HW269510   8.257  12.793  13.861
89205SOL     OW69511  10.191   2.474  14.204
89205SOL    HW169512  10.192   2.421  14.125
89205SOL    HW269513  10.229   2.558  14.177
89206SOL     OW69514   7.201  14.314   6.877
89206SOL    HW169515   7.135  14.325   6.809
89206SOL    HW269516   7.266  14.381   6.858
89207SOL     OW69517   8.339   0.004   5.445
89207SOL    HW169518   8.367  14.782   5.439
89207SOL    HW269519   8.381   0.037   5.525
89208SOL     OW69520   8.070  13.788  11.702
89208SOL    HW169521   8.129  13.750  11.768
89208SOL    HW269522   8.128  13.817  11.631
89209SOL     OW69523  11.875  14.554  11.048
89209SOL    HW169524  11.862  14.482  10.987
89209SOL    HW269525  11.950  14.602  11.013
89210SOL     OW69526   2.037   1.328  10.476
89210SOL    HW169527   2.103   1.311  10.543
89210SOL    HW269528   2.033   1.424  10.471
89211SOL     OW69529  11.488   5.684   2.964
89211SOL    HW169530  11.478   5.779   2.971
89211SOL    HW269531  11.400   5.652   2.942
89212SOL     OW69532   2.416   3.586  14.461
89212SOL    HW169533   2.453   3.578  14.373
89212SOL    HW269534   2.404   3.680  14.473
89213SOL     OW69535  10.207  13.592   3.377
89213SOL    HW169536  10.129  13.538   3.359
89213SOL    HW269537  10.206  13.659   3.309
89214SOL     OW69538   9.598   9.366   5.059
89214SOL    HW169539   9.660   9.367   4.985
89214SOL    HW269540   9.512   9.380   5.018
89215SOL     OW69541  11.433   4.161  11.104
89215SOL    HW169542  11.342   4.180  11.081
89215SOL    HW269543  11.432   4.071  11.136
89216SOL     OW69544   5.273   2.243  10.163
89216SOL    HW169545   5.310   2.295  10.234
89216SOL    HW269546   5.349   2.203  10.121
89217SOL     OW69547   9.393  11.404  12.298
89217SOL    HW169548   9.440  11.320  12.299
89217SOL    HW269549   9.439  11.457  12.363
89218SOL     OW69550   9.592   6.086   5.279
89218SOL    HW169551   9.554   6.171   5.259
89218SOL    HW269552   9.523   6.023   5.259
89219SOL     OW69553   3.543   0.476   0.585
89219SOL    HW169554   3.565   0.480   0.678
89219SOL    HW269555   3.627   0.458   0.542
89220SOL     OW69556  13.163  13.841  10.903
89220SOL    HW169557  13.123  13.756  10.886
89220SOL    HW269558  13.147  13.892  10.823
89221SOL     OW69559   4.172   5.898   2.765
89221SOL    HW169560   4.110   5.968   2.745
89221SOL    HW269561   4.146   5.867   2.852
89222SOL     OW69562   7.417  11.953  13.392
89222SOL    HW169563   7.501  11.990  13.419
89222SOL    HW269564   7.439  11.876  13.341
89223SOL     OW69565   1.148   3.991   5.655
89223SOL    HW169566   1.153   4.037   5.739
89223SOL    HW269567   1.239   3.976   5.630
89224SOL     OW69568  13.072   1.619  11.415
89224SOL    HW169569  13.050   1.689  11.353
89224SOL    HW269570  13.146   1.573  11.374
89225SOL     OW69571   9.571  14.005  13.147
89225SOL    HW169572   9.658  14.030  13.177
89225SOL    HW269573   9.579  13.911  13.129
89226SOL     OW69574   7.531   2.593   9.849
89226SOL    HW169575   7.487   2.672   9.880
89226SOL    HW269576   7.593   2.572   9.919
89227SOL     OW69577   7.201  11.580  13.065
89227SOL    HW169578   7.211  11.643  12.994
89227SOL    HW269579   7.227  11.496  13.026
89228SOL     OW69580  11.972   6.471   8.483
89228SOL    HW169581  11.968   6.566   8.479
89228SOL    HW269582  11.989   6.444   8.393
89229SOL     OW69583   8.482   5.451   8.263
89229SOL    HW169584   8.391   5.425   8.280
89229SOL    HW269585   8.476   5.514   8.192
89230SOL     OW69586   0.778   0.038   4.554
89230SOL    HW169587   0.739  14.826   4.586
89230SOL    HW269588   0.720   0.107   4.585
89231SOL     OW69589   7.765   6.276  11.753
89231SOL    HW169590   7.737   6.192  11.715
89231SOL    HW269591   7.838   6.303  11.698
89232SOL     OW69592   4.820   9.573  14.441
89232SOL    HW169593   4.823   9.478  14.447
89232SOL    HW269594   4.857   9.593  14.355
89233SOL     OW69595   9.972   7.555  12.138
89233SOL    HW169596  10.067   7.565  12.148
89233SOL    HW269597   9.961   7.471  12.095
89234SOL     OW69598   9.747  11.121   9.240
89234SOL    HW169599   9.719  11.199   9.192
89234SOL    HW269600   9.815  11.082   9.186
89235SOL     OW69601   2.049  14.195   8.116
89235SOL    HW169602   2.018  14.282   8.093
89235SOL    HW269603   2.090  14.206   8.202
89236SOL     OW69604   9.226   6.127   6.007
89236SOL    HW169605   9.192   6.073   6.079
89236SOL    HW269606   9.153   6.131   5.944
89237SOL     OW69607   2.331  12.309   2.444
89237SOL    HW169608   2.268  12.288   2.376
89237SOL    HW269609   2.415  12.310   2.400
89238SOL     OW69610  12.365   8.689   6.394
89238SOL    HW169611  12.276   8.660   6.414
89238SOL    HW269612  12.354   8.773   6.350
89239SOL     OW69613   4.612  11.971  14.630
89239SOL    HW169614   4.588  12.048  14.682
89239SOL    HW269615   4.549  11.969  14.559
89240SOL     OW69616  11.979  12.809   4.503
89240SOL    HW169617  12.073  12.800   4.486
89240SOL    HW269618  11.953  12.725   4.542
89241SOL     OW69619  10.488   4.639   8.340
89241SOL    HW169620  10.440   4.596   8.270
89241SOL    HW269621  10.453   4.728   8.342
89242SOL     OW69622   8.487   3.507  13.895
89242SOL    HW169623   8.391   3.507  13.898
89242SOL    HW269624   8.511   3.599  13.898
89243SOL     OW69625   3.311   8.815  12.366
89243SOL    HW169626   3.312   8.910  12.377
89243SOL    HW269627   3.285   8.781  12.452
89244SOL     OW69628   9.462  14.862  11.593
89244SOL    HW169629   9.501   0.027  11.674
89244SOL    HW269630   9.535  14.819  11.548
89245SOL     OW69631  12.613  11.443   7.735
89245SOL    HW169632  12.666  11.508   7.689
89245SOL    HW269633  12.623  11.466   7.828
89246SOL     OW69634   2.279   1.424   6.879
89246SOL    HW169635   2.228   1.439   6.959
89246SOL    HW269636   2.228   1.466   6.809
89247SOL     OW69637  12.939   0.523   6.277
89247SOL    HW169638  13.000   0.595   6.261
89247SOL    HW269639  12.985   0.465   6.337
89248SOL     OW69640   7.508   3.670   5.510
89248SOL    HW169641   7.450   3.613   5.459
89248SOL    HW269642   7.457   3.751   5.523
89249SOL     OW69643  11.700  10.876   8.135
89249SOL    HW169644  11.655  10.878   8.219
89249SOL    HW269645  11.642  10.827   8.077
89250SOL     OW69646   0.994   2.736   9.365
89250SOL    HW169647   0.989   2.645   9.334
89250SOL    HW269648   0.909   2.774   9.342
89251SOL     OW69649  10.697   1.679  13.951
89251SOL    HW169650  10.621   1.725  13.915
89251SOL    HW269651  10.698   1.704  14.043
89252SOL     OW69652   5.218   1.137   8.316
89252SOL    HW169653   5.127   1.162   8.331
89252SOL    HW269654   5.227   1.051   8.358
89253SOL     OW69655   3.635  12.882   8.393
89253SOL    HW169656   3.714  12.915   8.436
89253SOL    HW269657   3.568  12.883   8.462
89254SOL     OW69658  10.017   0.952   8.213
89254SOL    HW169659  10.037   0.961   8.120
89254SOL    HW269660   9.957   0.877   8.218
89255SOL     OW69661   0.719   2.939  12.243
89255SOL    HW169662   0.734   2.896  12.159
89255SOL    HW269663   0.738   2.871  12.308
89256SOL     OW69664   3.006  10.700   5.216
89256SOL    HW169665   2.976  10.683   5.305
89256SOL    HW269666   2.998  10.794   5.205
89257SOL     OW69667  10.619   5.252   3.512
89257SOL    HW169668  10.531   5.220   3.530
89257SOL    HW269669  10.607   5.342   3.483
89258SOL     OW69670   1.523   3.304  10.697
89258SOL    HW169671   1.500   3.361  10.623
89258SOL    HW269672   1.448   3.310  10.756
89259SOL     OW69673  12.229   4.380   4.216
89259SOL    HW169674  12.225   4.471   4.188
89259SOL    HW269675  12.183   4.379   4.300
89260SOL     OW69676  12.285   8.522   1.145
89260SOL    HW169677  12.287   8.594   1.083
89260SOL    HW269678  12.374   8.488   1.146
89261SOL     OW69679   4.004  11.903   6.783
89261SOL    HW169680   3.949  11.869   6.854
89261SOL    HW269681   4.068  11.834   6.767
89262SOL     OW69682   6.299   1.372   8.743
89262SOL    HW169683   6.220   1.340   8.699
89262SOL    HW269684   6.277   1.369   8.836
89263SOL     OW69685   8.580   0.766   7.274
89263SOL    HW169686   8.645   0.700   7.298
89263SOL    HW269687   8.632   0.834   7.231
89264SOL     OW69688  12.125   0.214  10.243
89264SOL    HW169689  12.151   0.153  10.174
89264SOL    HW269690  12.201   0.270  10.255
89265SOL     OW69691  12.633  12.348   0.489
89265SOL    HW169692  12.573  12.284   0.527
89265SOL    HW269693  12.580  12.425   0.472
89266SOL     OW69694   2.486   5.724   2.404
89266SOL    HW169695   2.415   5.776   2.366
89266SOL    HW269696   2.493   5.755   2.494
89267SOL     OW69697   0.059  11.463  10.524
89267SOL    HW169698   0.151  11.446  10.503
89267SOL    HW269699   0.027  11.380  10.558
89268SOL     OW69700  14.566   8.129   9.536
89268SOL    HW169701  14.500   8.179   9.583
89268SOL    HW269702  14.605   8.192   9.474
89269SOL     OW69703   0.306   7.295  12.195
89269SOL    HW169704   0.351   7.320  12.275
89269SOL    HW269705   0.352   7.342  12.125
89270SOL     OW69706   6.334   4.117  12.677
89270SOL    HW169707   6.323   4.202  12.721
89270SOL    HW269708   6.410   4.130  12.620
89271SOL     OW69709   3.933  14.857   7.988
89271SOL    HW169710   3.839  14.862   7.969
89271SOL    HW269711   3.960   0.078   8.000
89272SOL     OW69712   4.091  13.964   8.954
89272SOL    HW169713   4.105  13.872   8.979
89272SOL    HW269714   4.002  13.965   8.918
89273SOL     OW69715   9.190   5.546   3.016
89273SOL    HW169716   9.113   5.551   2.959
89273SOL    HW269717   9.165   5.594   3.095
89274SOL     OW69718  13.174   1.570   8.444
89274SOL    HW169719  13.115   1.624   8.391
89274SOL    HW269720  13.262   1.601   8.421
89275SOL     OW69721   9.134  11.032   3.748
89275SOL    HW169722   9.048  11.073   3.745
89275SOL    HW269723   9.185  11.087   3.807
89276SOL     OW69724  14.623   2.381   7.471
89276SOL    HW169725  14.685   2.417   7.407
89276SOL    HW269726  14.666   2.303   7.505
89277SOL     OW69727   5.387  14.064  11.205
89277SOL    HW169728   5.384  14.113  11.287
89277SOL    HW269729   5.315  14.001  11.212
89278SOL     OW69730   2.805  12.763   0.412
89278SOL    HW169731   2.836  12.853   0.427
89278SOL    HW269732   2.710  12.769   0.422
89279SOL     OW69733   6.424  10.035  10.256
89279SOL    HW169734   6.482  10.028  10.332
89279SOL    HW269735   6.362   9.962  10.267
89280SOL     OW69736   0.591   3.129   3.291
89280SOL    HW169737   0.619   3.068   3.222
89280SOL    HW269738   0.566   3.208   3.244
89281SOL     OW69739   8.256   3.812  11.933
89281SOL    HW169740   8.197   3.888  11.939
89281SOL    HW269741   8.306   3.814  12.015
89282SOL     OW69742   9.437  10.537  13.280
89282SOL    HW169743   9.446  10.445  13.256
89282SOL    HW269744   9.355  10.564  13.240
89283SOL     OW69745   7.362   2.956   5.420
89283SOL    HW169746   7.362   3.043   5.460
89283SOL    HW269747   7.270   2.933   5.411
89284SOL     OW69748  14.455  11.433   5.077
89284SOL    HW169749  14.488  11.355   5.121
89284SOL    HW269750  14.527  11.497   5.085
89285SOL     OW69751   5.731   2.618   9.752
89285SOL    HW169752   5.823   2.641   9.743
89285SOL    HW269753   5.718   2.603   9.846
89286SOL     OW69754   9.546  12.315   0.021
89286SOL    HW169755   9.575  12.263  14.816
89286SOL    HW269756   9.593  12.398   0.013
89287SOL     OW69757  11.347   8.403   3.555
89287SOL    HW169758  11.297   8.438   3.629
89287SOL    HW269759  11.389   8.480   3.516
89288SOL     OW69760  10.680   9.316   9.792
89288SOL    HW169761  10.672   9.242   9.853
89288SOL    HW269762  10.680   9.393   9.849
89289SOL     OW69763   5.219  13.919   5.685
89289SOL    HW169764   5.211  13.974   5.763
89289SOL    HW269765   5.138  13.934   5.637
89290SOL     OW69766   8.915   6.876   1.500
89290SOL    HW169767   8.938   6.969   1.507
89290SOL    HW269768   8.847   6.873   1.433
89291SOL     OW69769  10.580   2.740  12.278
89291SOL    HW169770  10.495   2.760  12.239
89291SOL    HW269771  10.640   2.802  12.236
89292SOL     OW69772  12.181   8.582  11.990
89292SOL    HW169773  12.201   8.497  11.950
89292SOL    HW269774  12.154   8.561  12.079
89293SOL     OW69775  13.676   3.037  12.004
89293SOL    HW169776  13.744   2.970  12.001
89293SOL    HW269777  13.678   3.077  11.917
89294SOL     OW69778  11.778  11.939   7.607
89294SOL    HW169779  11.798  12.022   7.565
89294SOL    HW269780  11.767  11.877   7.535
89295SOL     OW69781   6.139   8.469  13.982
89295SOL    HW169782   6.108   8.558  13.998
89295SOL    HW269783   6.123   8.423  14.065
89296SOL     OW69784   1.571   2.519   7.281
89296SOL    HW169785   1.604   2.604   7.251
89296SOL    HW269786   1.626   2.455   7.236
89297SOL     OW69787   3.212  11.082  13.697
89297SOL    HW169788   3.202  11.097  13.791
89297SOL    HW269789   3.306  11.090  13.681
89298SOL     OW69790   4.170   4.065   7.800
89298SOL    HW169791   4.194   4.134   7.861
89298SOL    HW269792   4.217   3.988   7.831
89299SOL     OW69793   1.105  10.675  12.375
89299SOL    HW169794   1.151  10.592  12.360
89299SOL    HW269795   1.057  10.661  12.457
89300SOL     OW69796   6.762   5.386  13.205
89300SOL    HW169797   6.796   5.324  13.140
89300SOL    HW269798   6.832   5.393  13.270
89301SOL     OW69799   5.242  10.258   3.210
89301SOL    HW169800   5.323  10.248   3.258
89301SOL    HW269801   5.217  10.350   3.223
89302SOL     OW69802   8.097  11.268   3.375
89302SOL    HW169803   8.166  11.295   3.315
89302SOL    HW269804   8.022  11.249   3.319
89303SOL     OW69805   5.165   7.244   8.050
89303SOL    HW169806   5.152   7.332   8.015
89303SOL    HW269807   5.198   7.258   8.139
89304SOL     OW69808  11.307   6.368   0.991
89304SOL    HW169809  11.249   6.444   0.993
89304SOL    HW269810  11.277   6.313   1.064
89305SOL     OW69811  12.614  12.385   1.118
89305SOL    HW169812  12.556  12.456   1.147
89305SOL    HW269813  12.556  12.311   1.104
89306SOL     OW69814  12.227  10.853  10.915
89306SOL    HW169815  12.184  10.932  10.947
89306SOL    HW269816  12.205  10.786  10.980
89307SOL     OW69817   6.182  13.409   8.949
89307SOL    HW169818   6.257  13.432   8.894
89307SOL    HW269819   6.109  13.459   8.913
89308SOL     OW69820   1.869   0.073  12.316
89308SOL    HW169821   1.866   0.070  12.220
89308SOL    HW269822   1.951   0.119  12.336
89309SOL     OW69823  12.690   8.059   8.328
89309SOL    HW169824  12.764   8.031   8.381
89309SOL    HW269825  12.640   7.979   8.312
89310SOL     OW69826   3.426   2.948   0.387
89310SOL    HW169827   3.399   3.033   0.421
89310SOL    HW269828   3.407   2.887   0.459
89311SOL     OW69829  12.731   7.203   6.922
89311SOL    HW169830  12.651   7.186   6.873
89311SOL    HW269831  12.750   7.296   6.906
89312SOL     OW69832   8.431  11.180  12.291
89312SOL    HW169833   8.484  11.195  12.370
89312SOL    HW269834   8.420  11.266  12.252
89313SOL     OW69835   6.736  14.143   6.631
89313SOL    HW169836   6.831  14.135   6.635
89313SOL    HW269837   6.707  14.136   6.721
89314SOL     OW69838   3.467  13.109   1.560
89314SOL    HW169839   3.499  13.079   1.475
89314SOL    HW269840   3.425  13.032   1.598
89315SOL     OW69841   2.203   9.343   3.866
89315SOL    HW169842   2.275   9.359   3.927
89315SOL    HW269843   2.210   9.414   3.802
89316SOL     OW69844  10.586  11.945   5.975
89316SOL    HW169845  10.651  11.895   5.926
89316SOL    HW269846  10.576  12.027   5.926
89317SOL     OW69847   7.299  13.947   8.467
89317SOL    HW169848   7.321  13.920   8.556
89317SOL    HW269849   7.203  13.950   8.466
89318SOL     OW69850   1.065   5.554  14.681
89318SOL    HW169851   1.089   5.534  14.772
89318SOL    HW269852   1.147   5.580  14.639
89319SOL     OW69853  11.724   4.441  13.261
89319SOL    HW169854  11.640   4.483  13.244
89319SOL    HW269855  11.784   4.513  13.281
89320SOL     OW69856  13.966   0.322  12.893
89320SOL    HW169857  13.986   0.238  12.935
89320SOL    HW269858  14.031   0.382  12.930
89321SOL     OW69859   0.027  12.790   4.103
89321SOL    HW169860  14.815  12.757   4.066
89321SOL    HW269861   0.005  12.878   4.134
89322SOL     OW69862   2.147   8.285   7.187
89322SOL    HW169863   2.209   8.336   7.136
89322SOL    HW269864   2.088   8.350   7.225
89323SOL     OW69865   3.532   4.219   9.362
89323SOL    HW169866   3.463   4.279   9.332
89323SOL    HW269867   3.609   4.243   9.310
89324SOL     OW69868  10.050   0.087   7.740
89324SOL    HW169869  10.061  14.861   7.742
89324SOL    HW269870  10.101   0.118   7.815
89325SOL     OW69871   5.975   9.876   5.044
89325SOL    HW169872   6.017   9.960   5.062
89325SOL    HW269873   6.027   9.812   5.092
89326SOL     OW69874   3.774   5.308   6.239
89326SOL    HW169875   3.814   5.252   6.172
89326SOL    HW269876   3.791   5.397   6.208
89327SOL     OW69877  14.432   1.729  11.527
89327SOL    HW169878  14.444   1.801  11.465
89327SOL    HW269879  14.342   1.700  11.513
89328SOL     OW69880  11.499  14.363   5.517
89328SOL    HW169881  11.511  14.288   5.458
89328SOL    HW269882  11.540  14.436   5.472
89329SOL     OW69883   8.903   5.655   0.800
89329SOL    HW169884   8.959   5.727   0.828
89329SOL    HW269885   8.964   5.584   0.780
89330SOL     OW69886   8.624   0.007   1.853
89330SOL    HW169887   8.606   0.008   1.759
89330SOL    HW269888   8.584   0.087   1.886
89331SOL     OW69889  11.698  10.040   0.903
89331SOL    HW169890  11.630  10.087   0.953
89331SOL    HW269891  11.776  10.047   0.958
89332SOL     OW69892   9.122  10.651   2.552
89332SOL    HW169893   9.059  10.721   2.566
89332SOL    HW269894   9.088  10.578   2.604
89333SOL     OW69895  11.507  11.005  12.487
89333SOL    HW169896  11.460  10.940  12.540
89333SOL    HW269897  11.448  11.080  12.483
89334SOL     OW69898   8.566  13.934   8.388
89334SOL    HW169899   8.616  13.996   8.336
89334SOL    HW269900   8.602  13.942   8.476
89335SOL     OW69901   8.090  13.494  14.003
89335SOL    HW169902   8.048  13.469  14.085
89335SOL    HW269903   8.025  13.475  13.935
89336SOL     OW69904   9.027   3.772  13.080
89336SOL    HW169905   8.936   3.801  13.078
89336SOL    HW269906   9.022   3.679  13.105
89337SOL     OW69907  11.467  13.014   7.501
89337SOL    HW169908  11.539  12.956   7.477
89337SOL    HW269909  11.390  12.957   7.504
89338SOL     OW69910  12.565   7.139   6.714
89338SOL    HW169911  12.541   7.046   6.713
89338SOL    HW269912  12.506   7.180   6.650
89339SOL     OW69913   1.327   7.711   8.508
89339SOL    HW169914   1.331   7.803   8.537
89339SOL    HW269915   1.323   7.661   8.590
89340SOL     OW69916   7.482  14.495   3.981
89340SOL    HW169917   7.508  14.577   3.939
89340SOL    HW269918   7.505  14.507   4.073
89341SOL     OW69919  10.933   6.415  11.641
89341SOL    HW169920  10.932   6.422  11.545
89341SOL    HW269921  10.957   6.324  11.658
89342SOL     OW69922   1.365   6.796  11.918
89342SOL    HW169923   1.300   6.781  11.850
89342SOL    HW269924   1.402   6.709  11.935
89343SOL     OW69925   3.525   4.396   4.759
89343SOL    HW169926   3.486   4.426   4.677
89343SOL    HW269927   3.606   4.446   4.766
89344SOL     OW69928   0.381  10.246   7.286
89344SOL    HW169929   0.373  10.169   7.342
89344SOL    HW269930   0.438  10.218   7.214
89345SOL     OW69931  14.830  13.788   4.834
89345SOL    HW169932   0.045  13.748   4.814
89345SOL    HW269933  14.769  13.749   4.771
89346SOL     OW69934   6.432   4.906   0.009
89346SOL    HW169935   6.354   4.881  14.830
89346SOL    HW269936   6.468   4.823   0.041
89347SOL     OW69937   4.839   7.785   0.528
89347SOL    HW169938   4.764   7.778   0.469
89347SOL    HW269939   4.878   7.698   0.528
89348SOL     OW69940  12.350  11.427   7.840
89348SOL    HW169941  12.360  11.354   7.901
89348SOL    HW269942  12.433  11.430   7.792
89349SOL     OW69943   9.573   2.900   8.571
89349SOL    HW169944   9.542   2.865   8.488
89349SOL    HW269945   9.620   2.827   8.612
89350SOL     OW69946  13.198   3.201   4.310
89350SOL    HW169947  13.184   3.198   4.404
89350SOL    HW269948  13.113   3.228   4.274
89351SOL     OW69949   3.143   8.069   9.183
89351SOL    HW169950   3.178   8.116   9.258
89351SOL    HW269951   3.088   8.001   9.220
89352SOL     OW69952   5.512   5.583   2.646
89352SOL    HW169953   5.545   5.502   2.682
89352SOL    HW269954   5.531   5.649   2.712
89353SOL     OW69955   7.291  11.824  11.603
89353SOL    HW169956   7.271  11.876  11.681
89353SOL    HW269957   7.300  11.888  11.533
89354SOL     OW69958  10.523   9.789   4.277
89354SOL    HW169959  10.433   9.760   4.265
89354SOL    HW269960  10.531   9.805   4.371
89355SOL     OW69961   6.136   0.789  13.832
89355SOL    HW169962   6.170   0.733  13.761
89355SOL    HW269963   6.210   0.847  13.853
89356SOL     OW69964  13.523   7.150  13.659
89356SOL    HW169965  13.515   7.088  13.587
89356SOL    HW269966  13.459   7.121  13.724
89357SOL     OW69967   8.872   3.991  11.734
89357SOL    HW169968   8.780   4.018  11.731
89357SOL    HW269969   8.917   4.067  11.770
89358SOL     OW69970   7.573  14.428  10.973
89358SOL    HW169971   7.494  14.374  10.964
89358SOL    HW269972   7.611  14.402  11.057
89359SOL     OW69973   4.978   8.003  12.272
89359SOL    HW169974   5.020   7.930  12.227
89359SOL    HW269975   4.886   7.979  12.275
89360SOL     OW69976   0.286   3.345   9.755
89360SOL    HW169977   0.346   3.335   9.829
89360SOL    HW269978   0.288   3.259   9.711
89361SOL     OW69979   4.058   0.241   4.366
89361SOL    HW169980   4.012   0.262   4.448
89361SOL    HW269981   4.095   0.154   4.381
89362SOL     OW69982  10.701   7.995   1.821
89362SOL    HW169983  10.761   7.935   1.776
89362SOL    HW269984  10.737   8.082   1.804
89363SOL     OW69985   4.377   5.635  11.362
89363SOL    HW169986   4.446   5.678  11.412
89363SOL    HW269987   4.345   5.566  11.419
89364SOL     OW69988  12.058  10.398   1.582
89364SOL    HW169989  12.135  10.343   1.568
89364SOL    HW269990  11.990  10.358   1.527
89365SOL     OW69991  10.962   9.903   2.174
89365SOL    HW169992  10.991   9.812   2.160
89365SOL    HW269993  10.965   9.943   2.088
89366SOL     OW69994   3.342   8.769   2.914
89366SOL    HW169995   3.364   8.740   2.826
89366SOL    HW269996   3.281   8.842   2.901
89367SOL     OW69997   5.121  12.181  14.557
89367SOL    HW169998   5.057  12.251  14.546
89367SOL    HW269999   5.095  12.138  14.639
89368SOL     OW70000   1.349   1.397   9.771
89368SOL    HW170001   1.321   1.427   9.857
89368SOL    HW270002   1.374   1.305   9.784
89369SOL     OW70003  12.660   5.876   6.379
89369SOL    HW170004  12.623   5.956   6.416
89369SOL    HW270005  12.589   5.811   6.386
89370SOL     OW70006   5.206   4.344  10.469
89370SOL    HW170007   5.222   4.311  10.557
89370SOL    HW270008   5.214   4.439  10.477
89371SOL     OW70009   9.673   0.533  13.413
89371SOL    HW170010   9.616   0.518  13.338
89371SOL    HW270011   9.699   0.625  13.404
89372SOL     OW70012   9.809  11.880   8.586
89372SOL    HW170013   9.873  11.826   8.540
89372SOL    HW270014   9.724  11.856   8.548
89373SOL     OW70015   4.776  11.494  12.577
89373SOL    HW170016   4.748  11.537  12.658
89373SOL    HW270017   4.820  11.564  12.528
89374SOL     OW70018  14.459  10.409  14.417
89374SOL    HW170019  14.502  10.483  14.373
89374SOL    HW270020  14.365  10.425  14.403
89375SOL     OW70021   5.966   3.348   1.204
89375SOL    HW170022   5.874   3.368   1.187
89375SOL    HW270023   5.966   3.306   1.290
89376SOL     OW70024   7.301   6.972   3.918
89376SOL    HW170025   7.242   7.024   3.863
89376SOL    HW270026   7.387   7.014   3.907
89377SOL     OW70027   2.025  14.635   1.239
89377SOL    HW170028   2.070  14.589   1.168
89377SOL    HW270029   1.981  14.708   1.196
89378SOL     OW70030   3.440  12.962  10.788
89378SOL    HW170031   3.520  12.993  10.831
89378SOL    HW270032   3.457  12.870  10.770
89379SOL     OW70033   2.099   7.263  14.382
89379SOL    HW170034   2.084   7.223  14.467
89379SOL    HW270035   2.135   7.192  14.328
89380SOL     OW70036   0.845   8.067  13.768
89380SOL    HW170037   0.842   8.153  13.811
89380SOL    HW270038   0.929   8.066  13.723
89381SOL     OW70039   6.012   2.710   7.093
89381SOL    HW170040   5.952   2.785   7.091
89381SOL    HW270041   6.019   2.682   7.002
89382SOL     OW70042   2.537   4.997  13.606
89382SOL    HW170043   2.465   4.973  13.547
89382SOL    HW270044   2.612   4.948  13.574
89383SOL     OW70045  11.718   4.107   8.203
89383SOL    HW170046  11.787   4.061   8.156
89383SOL    HW270047  11.696   4.049   8.276
89384SOL     OW70048  10.861   8.669  11.634
89384SOL    HW170049  10.893   8.758  11.620
89384SOL    HW270050  10.859   8.659  11.729
89385SOL     OW70051   7.745   2.932   7.225
89385SOL    HW170052   7.733   3.020   7.260
89385SOL    HW270053   7.839   2.918   7.225
89386SOL     OW70054   9.056   0.849   1.352
89386SOL    HW170055   9.033   0.886   1.437
89386SOL    HW270056   9.029   0.916   1.289
89387SOL     OW70057  10.368  13.554   6.207
89387SOL    HW170058  10.358  13.627   6.269
89387SOL    HW270059  10.438  13.501   6.244
89388SOL     OW70060   6.421   0.043   9.799
89388SOL    HW170061   6.505   0.001   9.783
89388SOL    HW270062   6.440   0.136   9.804
89389SOL     OW70063  13.017   9.722   2.210
89389SOL    HW170064  13.004   9.814   2.188
89389SOL    HW270065  12.942   9.677   2.169
89390SOL     OW70066   0.560   1.080  13.136
89390SOL    HW170067   0.645   1.076  13.092
89390SOL    HW270068   0.577   1.125  13.218
89391SOL     OW70069   8.565   4.354  11.613
89391SOL    HW170070   8.613   4.275  11.636
89391SOL    HW270071   8.488   4.321  11.565
89392SOL     OW70072  10.215  12.183   2.382
89392SOL    HW170073  10.307  12.208   2.370
89392SOL    HW270074  10.181  12.246   2.445
89393SOL     OW70075   8.100   5.943  14.791
89393SOL    HW170076   8.116   5.888  14.714
89393SOL    HW270077   8.184   5.985  14.809
89394SOL     OW70078  12.520  11.322  13.809
89394SOL    HW170079  12.556  11.233  13.814
89394SOL    HW270080  12.460  11.328  13.883
89395SOL     OW70081  14.753   9.697   6.615
89395SOL    HW170082  14.794   9.782   6.631
89395SOL    HW270083  14.803   9.660   6.541
89396SOL     OW70084   2.790  13.364   5.126
89396SOL    HW170085   2.719  13.425   5.145
89396SOL    HW270086   2.804  13.372   5.032
89397SOL     OW70087   9.426   9.950  14.416
89397SOL    HW170088   9.333   9.962  14.433
89397SOL    HW270089   9.469  10.013  14.474
89398SOL     OW70090  10.199   1.659  13.269
89398SOL    HW170091  10.228   1.750  13.266
89398SOL    HW270092  10.127   1.660  13.332
89399SOL     OW70093   4.206  11.693   7.386
89399SOL    HW170094   4.132  11.746   7.416
89399SOL    HW270095   4.184  11.669   7.296
89400SOL     OW70096   6.363   0.124   2.444
89400SOL    HW170097   6.287   0.170   2.480
89400SOL    HW270098   6.345   0.117   2.350
89401SOL     OW70099   5.726   0.549   2.998
89401SOL    HW170100   5.641   0.585   3.024
89401SOL    HW270101   5.773   0.622   2.959
89402SOL     OW70102   2.989   8.633   1.750
89402SOL    HW170103   2.951   8.639   1.838
89402SOL    HW270104   3.061   8.571   1.759
89403SOL     OW70105   2.384   4.952   9.972
89403SOL    HW170106   2.434   5.034   9.975
89403SOL    HW270107   2.332   4.959   9.892
89404SOL     OW70108   6.630  12.550   5.312
89404SOL    HW170109   6.588  12.470   5.281
89404SOL    HW270110   6.628  12.609   5.236
89405SOL     OW70111  13.123   9.774  11.235
89405SOL    HW170112  13.050   9.814  11.281
89405SOL    HW270113  13.093   9.687  11.211
89406SOL     OW70114  11.350   3.515  10.376
89406SOL    HW170115  11.378   3.607  10.379
89406SOL    HW270116  11.420   3.471  10.328
89407SOL     OW70117   7.448   4.963  12.667
89407SOL    HW170118   7.455   5.042  12.613
89407SOL    HW270119   7.423   4.995  12.754
89408SOL     OW70120   4.072   7.242  10.838
89408SOL    HW170121   4.163   7.272  10.841
89408SOL    HW270122   4.029   7.289  10.910
89409SOL     OW70123   9.461  14.702  10.352
89409SOL    HW170124   9.524  14.642  10.390
89409SOL    HW270125   9.414  14.739  10.427
89410SOL     OW70126  13.743   7.971  10.126
89410SOL    HW170127  13.804   8.046  10.122
89410SOL    HW270128  13.657   8.011  10.140
89411SOL     OW70129   3.761   3.259   7.246
89411SOL    HW170130   3.747   3.245   7.339
89411SOL    HW270131   3.673   3.258   7.207
89412SOL     OW70132   1.038   0.370   8.633
89412SOL    HW170133   0.955   0.326   8.653
89412SOL    HW270134   1.100   0.299   8.618
89413SOL     OW70135  13.133   3.154   9.958
89413SOL    HW170136  13.122   3.059   9.955
89413SOL    HW270137  13.226   3.167   9.978
89414SOL     OW70138   9.982  12.695  13.994
89414SOL    HW170139  10.025  12.611  14.009
89414SOL    HW270140  10.026  12.756  14.052
89415SOL     OW70141   4.523   7.986   8.963
89415SOL    HW170142   4.470   7.933   8.903
89415SOL    HW270143   4.567   8.049   8.906
89416SOL     OW70144   8.221  10.599   0.202
89416SOL    HW170145   8.261  10.513   0.188
89416SOL    HW270146   8.294  10.655   0.227
89417SOL     OW70147   3.498  14.365  14.689
89417SOL    HW170148   3.483  14.387  14.781
89417SOL    HW270149   3.556  14.289  14.691
89418SOL     OW70150   3.786  12.610   7.488
89418SOL    HW170151   3.852  12.613   7.418
89418SOL    HW270152   3.805  12.686   7.542
89419SOL     OW70153   6.005   3.753  12.154
89419SOL    HW170154   5.958   3.672  12.135
89419SOL    HW270155   5.947   3.802  12.212
89420SOL     OW70156  13.636  11.538  12.099
89420SOL    HW170157  13.620  11.600  12.170
89420SOL    HW270158  13.681  11.465  12.141
89421SOL     OW70159   4.569   1.153   8.039
89421SOL    HW170160   4.664   1.154   8.035
89421SOL    HW270161   4.543   1.242   8.015
89422SOL     OW70162   1.878   6.862   2.092
89422SOL    HW170163   1.795   6.840   2.051
89422SOL    HW270164   1.875   6.820   2.178
89423SOL     OW70165   6.448   0.845   1.443
89423SOL    HW170166   6.427   0.893   1.363
89423SOL    HW270167   6.530   0.885   1.474
89424SOL     OW70168   2.201  11.470   9.113
89424SOL    HW170169   2.251  11.501   9.038
89424SOL    HW270170   2.264  11.423   9.167
89425SOL     OW70171   0.972  12.049   5.082
89425SOL    HW170172   0.953  12.099   5.002
89425SOL    HW270173   0.998  11.963   5.050
89426SOL     OW70174   7.085   0.347  12.573
89426SOL    HW170175   7.141   0.383  12.642
89426SOL    HW270176   7.056   0.423  12.524
89427SOL     OW70177  12.497  13.881   0.471
89427SOL    HW170178  12.427  13.830   0.431
89427SOL    HW270179  12.485  13.870   0.565
89428SOL     OW70180   0.385   4.547   3.741
89428SOL    HW170181   0.436   4.469   3.765
89428SOL    HW270182   0.401   4.609   3.812
89429SOL     OW70183  10.014  14.746   3.971
89429SOL    HW170184  10.095  14.746   4.022
89429SOL    HW270185  10.020  14.668   3.916
89430SOL     OW70186  10.654  12.699   1.097
89430SOL    HW170187  10.674  12.784   1.057
89430SOL    HW270188  10.671  12.712   1.191
89431SOL     OW70189  14.842  11.058   0.264
89431SOL    HW170190   0.039  10.994   0.289
89431SOL    HW270191  14.869  11.139   0.306
89432SOL     OW70192   5.099   9.062   4.068
89432SOL    HW170193   5.114   9.015   3.986
89432SOL    HW270194   5.092   9.154   4.043
89433SOL     OW70195   1.222  14.663  11.557
89433SOL    HW170196   1.228  14.692  11.648
89433SOL    HW270197   1.243  14.570  11.560
89434SOL     OW70198  11.266  11.988   5.260
89434SOL    HW170199  11.205  11.915   5.246
89434SOL    HW270200  11.352  11.947   5.253
89435SOL     OW70201   2.327   8.946   0.425
89435SOL    HW170202   2.319   9.040   0.440
89435SOL    HW270203   2.368   8.939   0.339
89436SOL     OW70204   9.225   0.724   6.691
89436SOL    HW170205   9.155   0.716   6.626
89436SOL    HW270206   9.295   0.770   6.646
89437SOL     OW70207   7.043   2.107   4.713
89437SOL    HW170208   7.014   2.186   4.758
89437SOL    HW270209   6.972   2.086   4.653
89438SOL     OW70210  10.266  13.462   6.483
89438SOL    HW170211  10.356  13.438   6.464
89438SOL    HW270212  10.274  13.535   6.545
89439SOL     OW70213   9.556  10.164   3.474
89439SOL    HW170214   9.560  10.184   3.380
89439SOL    HW270215   9.641  10.192   3.508
89440SOL     OW70216  13.373   4.599  11.354
89440SOL    HW170217  13.467   4.590  11.340
89440SOL    HW270218  13.350   4.526  11.413
89441SOL     OW70219  12.678   0.663   8.167
89441SOL    HW170220  12.720   0.649   8.252
89441SOL    HW270221  12.742   0.630   8.104
89442SOL     OW70222   2.972  14.414  12.280
89442SOL    HW170223   3.010  14.399  12.193
89442SOL    HW270224   2.928  14.499  12.273
89443SOL     OW70225   0.292  13.917  13.116
89443SOL    HW170226   0.241  13.998  13.124
89443SOL    HW270227   0.344  13.929  13.037
89444SOL     OW70228   7.535  12.473  10.351
89444SOL    HW170229   7.517  12.385  10.385
89444SOL    HW270230   7.535  12.461  10.256
89445SOL     OW70231   5.867   3.760   5.686
89445SOL    HW170232   5.851   3.726   5.774
89445SOL    HW270233   5.802   3.716   5.631
89446SOL     OW70234   0.816   7.438   4.141
89446SOL    HW170235   0.815   7.523   4.185
89446SOL    HW270236   0.793   7.457   4.050
89447SOL     OW70237  10.878   6.439   5.499
89447SOL    HW170238  10.965   6.405   5.479
89447SOL    HW270239  10.870   6.428   5.594
89448SOL     OW70240   5.706   4.979   6.169
89448SOL    HW170241   5.637   4.985   6.102
89448SOL    HW270242   5.670   5.026   6.244
89449SOL     OW70243   6.774  13.408   0.700
89449SOL    HW170244   6.686  13.384   0.728
89449SOL    HW270245   6.808  13.462   0.771
89450SOL     OW70246   9.003  13.314   7.400
89450SOL    HW170247   9.021  13.405   7.376
89450SOL    HW270248   8.908  13.307   7.397
89451SOL     OW70249   5.051   1.567   4.603
89451SOL    HW170250   5.027   1.501   4.538
89451SOL    HW270251   5.146   1.576   4.593
89452SOL     OW70252   3.514  14.756   9.965
89452SOL    HW170253   3.478  14.736  10.052
89452SOL    HW270254   3.493  14.679   9.912
89453SOL     OW70255   5.760  11.492   8.401
89453SOL    HW170256   5.829  11.486   8.468
89453SOL    HW270257   5.681  11.461   8.445
89454SOL     OW70258  12.075   9.859  12.063
89454SOL    HW170259  12.057   9.765  12.063
89454SOL    HW270260  11.988   9.900  12.066
89455SOL     OW70261   7.996   0.312   7.039
89455SOL    HW170262   7.909   0.352   7.038
89455SOL    HW270263   8.018   0.299   6.946
89456SOL     OW70264   5.805  13.844  14.011
89456SOL    HW170265   5.859  13.921  13.992
89456SOL    HW270266   5.757  13.828  13.929
89457SOL     OW70267   0.988  10.839   5.709
89457SOL    HW170268   0.936  10.879   5.779
89457SOL    HW270269   0.934  10.766   5.678
89458SOL     OW70270   5.947   6.256  14.665
89458SOL    HW170271   6.027   6.248  14.613
89458SOL    HW270272   5.889   6.187  14.631
89459SOL     OW70273  13.093   9.642  10.782
89459SOL    HW170274  13.015   9.643  10.837
89459SOL    HW270275  13.059   9.654  10.693
89460SOL     OW70276   9.433   3.354  12.077
89460SOL    HW170277   9.343   3.360  12.046
89460SOL    HW270278   9.451   3.260  12.081
89461SOL     OW70279   0.315  12.330   3.949
89461SOL    HW170280   0.365  12.326   4.031
89461SOL    HW270281   0.379  12.310   3.881
89462SOL     OW70282   0.787   4.354   3.696
89462SOL    HW170283   0.840   4.347   3.616
89462SOL    HW270284   0.773   4.264   3.724
89463SOL     OW70285  11.406   3.489   6.732
89463SOL    HW170286  11.388   3.396   6.739
89463SOL    HW270287  11.495   3.494   6.695
89464SOL     OW70288   3.910   7.663   2.862
89464SOL    HW170289   3.978   7.716   2.902
89464SOL    HW270290   3.831   7.682   2.914
89465SOL     OW70291   6.888   6.795  12.259
89465SOL    HW170292   6.887   6.784  12.163
89465SOL    HW270293   6.797   6.812  12.282
89466SOL     OW70294  12.193   8.955   5.639
89466SOL    HW170295  12.241   9.025   5.594
89466SOL    HW270296  12.146   9.000   5.709
89467SOL     OW70297   7.428  10.495  13.967
89467SOL    HW170298   7.449  10.586  13.945
89467SOL    HW270299   7.433  10.491  14.063
89468SOL     OW70300   7.691   4.591   6.729
89468SOL    HW170301   7.721   4.610   6.640
89468SOL    HW270302   7.622   4.526   6.717
89469SOL     OW70303   4.955   8.225  12.098
89469SOL    HW170304   4.863   8.240  12.119
89469SOL    HW270305   4.983   8.154  12.157
89470SOL     OW70306  13.610  11.087   3.145
89470SOL    HW170307  13.578  11.117   3.230
89470SOL    HW270308  13.536  11.041   3.106
89471SOL     OW70309   4.866   7.289   2.494
89471SOL    HW170310   4.819   7.255   2.417
89471SOL    HW270311   4.800   7.338   2.542
89472SOL     OW70312  14.486  11.774  14.755
89472SOL    HW170313  14.523  11.849  14.801
89472SOL    HW270314  14.521  11.780  14.666
89473SOL     OW70315   9.624  10.772   6.186
89473SOL    HW170316   9.693  10.729   6.235
89473SOL    HW270317   9.560  10.798   6.253
89474SOL     OW70318   3.222   6.231   6.533
89474SOL    HW170319   3.276   6.164   6.575
89474SOL    HW270320   3.262   6.314   6.561
89475SOL     OW70321  11.469   9.884  12.724
89475SOL    HW170322  11.405   9.858  12.791
89475SOL    HW270323  11.495   9.973  12.749
89476SOL     OW70324   2.210   7.529   0.304
89476SOL    HW170325   2.260   7.599   0.261
89476SOL    HW270326   2.250   7.448   0.273
89477SOL     OW70327   8.107   4.992   8.495
89477SOL    HW170328   8.189   5.022   8.535
89477SOL    HW270329   8.056   5.071   8.481
89478SOL     OW70330   3.381   8.771  10.708
89478SOL    HW170331   3.413   8.804  10.792
89478SOL    HW270332   3.286   8.760  10.720
89479SOL     OW70333  10.376   9.700   5.023
89479SOL    HW170334  10.432   9.722   4.949
89479SOL    HW270335  10.403   9.760   5.093
89480SOL     OW70336  14.219  11.103  14.472
89480SOL    HW170337  14.272  11.113  14.552
89480SOL    HW270338  14.201  11.009  14.468
89481SOL     OW70339   6.452   9.621   3.987
89481SOL    HW170340   6.542   9.605   3.956
89481SOL    HW270341   6.464   9.656   4.076
89482SOL     OW70342  10.725  13.585   2.047
89482SOL    HW170343  10.796  13.607   2.106
89482SOL    HW270344  10.768  13.544   1.972
89483SOL     OW70345   6.247  12.639   4.329
89483SOL    HW170346   6.208  12.645   4.242
89483SOL    HW270347   6.244  12.545   4.350
89484SOL     OW70348   5.116  11.847   0.379
89484SOL    HW170349   5.151  11.928   0.342
89484SOL    HW270350   5.148  11.778   0.320
89485SOL     OW70351  13.149   1.037   6.602
89485SOL    HW170352  13.230   1.005   6.643
89485SOL    HW270353  13.161   1.019   6.509
89486SOL     OW70354  12.224   9.517   5.315
89486SOL    HW170355  12.174   9.483   5.389
89486SOL    HW270356  12.199   9.609   5.309
89487SOL     OW70357  10.014  11.824  10.460
89487SOL    HW170358   9.962  11.894  10.421
89487SOL    HW270359   9.951  11.774  10.514
89488SOL     OW70360  12.552  13.294   1.826
89488SOL    HW170361  12.502  13.358   1.776
89488SOL    HW270362  12.638  13.292   1.782
89489SOL     OW70363   2.424   7.961   3.737
89489SOL    HW170364   2.443   7.954   3.643
89489SOL    HW270365   2.487   8.024   3.770
89490SOL     OW70366  14.363   4.492   3.485
89490SOL    HW170367  14.427   4.433   3.525
89490SOL    HW270368  14.404   4.578   3.486
89491SOL     OW70369   8.010   2.197  14.834
89491SOL    HW170370   7.945   2.245  14.782
89491SOL    HW270371   7.982   2.210   0.055
89492SOL     OW70372  11.397   8.869  12.463
89492SOL    HW170373  11.466   8.918  12.508
89492SOL    HW270374  11.329   8.934  12.445
89493SOL     OW70375  12.238   9.285   3.467
89493SOL    HW170376  12.283   9.295   3.383
89493SOL    HW270377  12.153   9.247   3.444
89494SOL     OW70378   8.746   5.417   7.842
89494SOL    HW170379   8.735   5.511   7.826
89494SOL    HW270380   8.658   5.381   7.828
89495SOL     OW70381   2.545   7.460   9.492
89495SOL    HW170382   2.579   7.549   9.492
89495SOL    HW270383   2.552   7.432   9.584
89496SOL     OW70384   2.839  13.667   5.689
89496SOL    HW170385   2.754  13.684   5.729
89496SOL    HW270386   2.876  13.595   5.741
89497SOL     OW70387   4.883   4.120   0.340
89497SOL    HW170388   4.813   4.092   0.398
89497SOL    HW270389   4.953   4.149   0.400
89498SOL     OW70390   2.044  12.577   8.532
89498SOL    HW170391   2.088  12.661   8.550
89498SOL    HW270392   1.967  12.577   8.589
89499SOL     OW70393   7.121   4.963   2.934
89499SOL    HW170394   7.079   4.950   3.019
89499SOL    HW270395   7.049   4.964   2.872
89500SOL     OW70396  12.654   8.349   2.292
89500SOL    HW170397  12.638   8.275   2.350
89500SOL    HW270398  12.670   8.423   2.351
89501SOL     OW70399  13.319  11.947   9.521
89501SOL    HW170400  13.355  12.035   9.506
89501SOL    HW270401  13.309  11.942   9.616
89502SOL     OW70402  14.320  14.372   2.247
89502SOL    HW170403  14.382  14.351   2.178
89502SOL    HW270404  14.257  14.299   2.245
89503SOL     OW70405   9.317  11.905   9.290
89503SOL    HW170406   9.231  11.909   9.330
89503SOL    HW270407   9.338  11.996   9.268
89504SOL     OW70408   9.490  14.534   7.294
89504SOL    HW170409   9.567  14.479   7.308
89504SOL    HW270410   9.417  14.472   7.289
89505SOL     OW70411   1.704  14.543  12.080
89505SOL    HW170412   1.745  14.545  12.167
89505SOL    HW270413   1.715  14.452  12.051
89506SOL     OW70414  14.065   9.792   0.260
89506SOL    HW170415  14.093   9.812   0.171
89506SOL    HW270416  14.131   9.834   0.316
89507SOL     OW70417   7.305   5.961   7.792
89507SOL    HW170418   7.351   5.902   7.733
89507SOL    HW270419   7.267   5.904   7.859
89508SOL     OW70420  11.464   0.097   7.167
89508SOL    HW170421  11.496   0.176   7.211
89508SOL    HW270422  11.379   0.080   7.207
89509SOL     OW70423   7.909   3.863   3.775
89509SOL    HW170424   7.858   3.887   3.697
89509SOL    HW270425   7.955   3.943   3.799
89510SOL     OW70426   6.765   4.284  10.776
89510SOL    HW170427   6.763   4.301  10.681
89510SOL    HW270428   6.710   4.353  10.814
89511SOL     OW70429  13.044   4.534   0.813
89511SOL    HW170430  12.961   4.495   0.841
89511SOL    HW270431  13.111   4.479   0.853
89512SOL     OW70432   7.630  14.264   8.721
89512SOL    HW170433   7.699  14.283   8.785
89512SOL    HW270434   7.564  14.216   8.770
89513SOL     OW70435   9.895  14.382   4.819
89513SOL    HW170436   9.986  14.377   4.788
89513SOL    HW270437   9.897  14.341   4.905
89514SOL     OW70438   8.344   0.036   4.387
89514SOL    HW170439   8.278   0.082   4.439
89514SOL    HW270440   8.332  14.814   4.408
89515SOL     OW70441   4.367  14.587   4.601
89515SOL    HW170442   4.316  14.555   4.527
89515SOL    HW270443   4.302  14.597   4.671
89516SOL     OW70444  10.991  13.113  10.992
89516SOL    HW170445  10.918  13.077  10.942
89516SOL    HW270446  11.015  13.193  10.944
89517SOL     OW70447   2.096  10.813  14.304
89517SOL    HW170448   2.056  10.868  14.236
89517SOL    HW270449   2.022  10.787  14.360
89518SOL     OW70450  13.311  11.364  12.229
89518SOL    HW170451  13.278  11.293  12.284
89518SOL    HW270452  13.377  11.407  12.283
89519SOL     OW70453   2.914   3.049   9.682
89519SOL    HW170454   2.866   3.014   9.757
89519SOL    HW270455   2.928   3.141   9.704
89520SOL     OW70456   8.597   4.572  11.781
89520SOL    HW170457   8.674   4.586  11.836
89520SOL    HW270458   8.615   4.490  11.734
89521SOL     OW70459   3.361   0.247   9.769
89521SOL    HW170460   3.431   0.247   9.834
89521SOL    HW270461   3.287   0.205   9.813
89522SOL     OW70462   3.222  12.564   2.019
89522SOL    HW170463   3.170  12.573   2.099
89522SOL    HW270464   3.202  12.476   1.987
89523SOL     OW70465   6.333   8.304  14.809
89523SOL    HW170466   6.354   8.385  14.763
89523SOL    HW270467   6.315   8.331   0.029
89524SOL     OW70468  13.125  12.931   0.458
89524SOL    HW170469  13.143  12.908   0.550
89524SOL    HW270470  13.060  13.001   0.463
89525SOL     OW70471  13.833   3.573   0.314
89525SOL    HW170472  13.892   3.593   0.242
89525SOL    HW270473  13.751   3.617   0.291
89526SOL     OW70474   3.963   9.656   8.305
89526SOL    HW170475   4.044   9.608   8.321
89526SOL    HW270476   3.958   9.664   8.210
89527SOL     OW70477  12.998   7.946  12.256
89527SOL    HW170478  12.921   7.896  12.282
89527SOL    HW270479  12.965   8.009  12.192
89528SOL     OW70480   2.895   1.707   5.919
89528SOL    HW170481   2.825   1.683   5.980
89528SOL    HW270482   2.902   1.802   5.928
89529SOL     OW70483  11.506  10.609   1.504
89529SOL    HW170484  11.591  10.652   1.514
89529SOL    HW270485  11.526  10.516   1.500
89530SOL     OW70486  13.557  11.863   8.180
89530SOL    HW170487  13.606  11.906   8.250
89530SOL    HW270488  13.613  11.870   8.103
89531SOL     OW70489   7.967   5.411   8.201
89531SOL    HW170490   7.954   5.436   8.292
89531SOL    HW270491   7.945   5.318   8.197
89532SOL     OW70492   9.640   7.365   3.190
89532SOL    HW170493   9.669   7.441   3.139
89532SOL    HW270494   9.565   7.330   3.142
89533SOL     OW70495   1.595   7.852   3.607
89533SOL    HW170496   1.667   7.904   3.643
89533SOL    HW270497   1.516   7.896   3.636
89534SOL     OW70498   2.918   7.784   9.902
89534SOL    HW170499   2.972   7.765   9.826
89534SOL    HW270500   2.829   7.792   9.867
89535SOL     OW70501  14.246   1.079   6.830
89535SOL    HW170502  14.327   1.029   6.839
89535SOL    HW270503  14.237   1.124   6.914
89536SOL     OW70504   2.717   1.686   9.372
89536SOL    HW170505   2.709   1.590   9.373
89536SOL    HW270506   2.794   1.702   9.317
89537SOL     OW70507   2.986  11.953  13.343
89537SOL    HW170508   2.974  11.921  13.254
89537SOL    HW270509   3.060  11.902  13.377
89538SOL     OW70510  13.678   4.200  14.522
89538SOL    HW170511  13.665   4.105  14.533
89538SOL    HW270512  13.762   4.207  14.477
89539SOL     OW70513   9.354  11.350   0.671
89539SOL    HW170514   9.383  11.276   0.724
89539SOL    HW270515   9.434  11.398   0.650
89540SOL     OW70516  10.483  13.260  13.996
89540SOL    HW170517  10.431  13.253  13.917
89540SOL    HW270518  10.563  13.305  13.969
89541SOL     OW70519   6.277   7.722  13.764
89541SOL    HW170520   6.186   7.701  13.744
89541SOL    HW270521   6.285   7.816  13.745
89542SOL     OW70522  11.221   1.438  12.327
89542SOL    HW170523  11.194   1.522  12.291
89542SOL    HW270524  11.315   1.448  12.345
89543SOL     OW70525   4.691   3.272   5.696
89543SOL    HW170526   4.598   3.253   5.704
89543SOL    HW270527   4.696   3.368   5.689
89544SOL     OW70528   2.994  13.473   7.633
89544SOL    HW170529   3.009  13.493   7.541
89544SOL    HW270530   2.996  13.558   7.677
89545SOL     OW70531   1.365  10.644   7.055
89545SOL    HW170532   1.358  10.564   7.005
89545SOL    HW270533   1.390  10.711   6.991
89546SOL     OW70534  10.982  11.908   1.011
89546SOL    HW170535  10.994  11.859   0.930
89546SOL    HW270536  10.900  11.874   1.047
89547SOL     OW70537   9.315   4.652   1.321
89547SOL    HW170538   9.293   4.582   1.260
89547SOL    HW270539   9.284   4.622   1.406
89548SOL     OW70540   4.996  11.923   6.502
89548SOL    HW170541   4.902  11.909   6.494
89548SOL    HW270542   5.004  12.010   6.540
89549SOL     OW70543   8.654   3.209  13.226
89549SOL    HW170544   8.566   3.196  13.192
89549SOL    HW270545   8.658   3.302  13.249
89550SOL     OW70546   4.730   2.428   9.838
89550SOL    HW170547   4.657   2.377   9.803
89550SOL    HW270548   4.688   2.496   9.891
89551SOL     OW70549   6.141  11.822   0.924
89551SOL    HW170550   6.138  11.823   0.828
89551SOL    HW270551   6.105  11.736   0.948
89552SOL     OW70552  10.377  13.688   4.141
89552SOL    HW170553  10.317  13.735   4.083
89552SOL    HW270554  10.357  13.721   4.229
89553SOL     OW70555   8.864   4.865   9.053
89553SOL    HW170556   8.856   4.788   8.996
89553SOL    HW270557   8.878   4.938   8.994
89554SOL     OW70558   2.887   8.029   5.065
89554SOL    HW170559   2.948   7.992   5.002
89554SOL    HW270560   2.883   8.122   5.043
89555SOL     OW70561   7.588   8.593   8.696
89555SOL    HW170562   7.527   8.523   8.674
89555SOL    HW270563   7.540   8.648   8.758
89556SOL     OW70564  12.999   3.503   3.062
89556SOL    HW170565  12.959   3.507   3.150
89556SOL    HW270566  12.925   3.484   3.004
89557SOL     OW70567   7.615   2.100  11.275
89557SOL    HW170568   7.582   2.104  11.365
89557SOL    HW270569   7.710   2.108  11.284
89558SOL     OW70570   1.025   9.838   1.846
89558SOL    HW170571   1.095   9.782   1.880
89558SOL    HW270572   0.979   9.869   1.924
89559SOL     OW70573   0.142   7.822   0.062
89559SOL    HW170574   0.152   7.825  14.837
89559SOL    HW270575   0.144   7.729   0.084
89560SOL     OW70576  11.212   8.528  10.184
89560SOL    HW170577  11.222   8.584  10.262
89560SOL    HW270578  11.283   8.556  10.126
89561SOL     OW70579  14.131   8.635  10.801
89561SOL    HW170580  14.184   8.676  10.870
89561SOL    HW270581  14.184   8.644  10.722
89562SOL     OW70582  10.839  11.706   4.001
89562SOL    HW170583  10.875  11.721   4.089
89562SOL    HW270584  10.914  11.715   3.943
89563SOL     OW70585  13.189  11.151   2.855
89563SOL    HW170586  13.129  11.094   2.904
89563SOL    HW270587  13.148  11.237   2.857
89564SOL     OW70588  14.094   0.881   7.291
89564SOL    HW170589  14.025   0.823   7.259
89564SOL    HW270590  14.171   0.857   7.239
89565SOL     OW70591   2.912   7.497  10.925
89565SOL    HW170592   2.975   7.454  10.868
89565SOL    HW270593   2.828   7.489  10.879
89566SOL     OW70594   5.979   5.605  14.627
89566SOL    HW170595   5.918   5.559  14.569
89566SOL    HW270596   6.008   5.539  14.689
89567SOL     OW70597   3.532  13.953   0.231
89567SOL    HW170598   3.443  13.988   0.240
89567SOL    HW270599   3.543  13.938   0.137
89568SOL     OW70600   3.421  10.652   2.089
89568SOL    HW170601   3.354  10.694   2.143
89568SOL    HW270602   3.504  10.676   2.129
89569SOL     OW70603  12.734   7.677   5.638
89569SOL    HW170604  12.791   7.741   5.596
89569SOL    HW270605  12.793   7.609   5.670
89570SOL     OW70606   3.206  11.154  12.917
89570SOL    HW170607   3.126  11.174  12.965
89570SOL    HW270608   3.216  11.059  12.926
89571SOL     OW70609   1.897  12.233  11.886
89571SOL    HW170610   1.821  12.195  11.840
89571SOL    HW270611   1.968  12.228  11.823
89572SOL     OW70612   0.330  10.729   8.864
89572SOL    HW170613   0.283  10.659   8.818
89572SOL    HW270614   0.413  10.690   8.889
89573SOL     OW70615   6.472  10.604   6.968
89573SOL    HW170616   6.492  10.645   6.885
89573SOL    HW270617   6.453  10.513   6.946
89574SOL     OW70618   9.183  12.538  12.228
89574SOL    HW170619   9.100  12.576  12.201
89574SOL    HW270620   9.197  12.465  12.167
89575SOL     OW70621   1.112   2.178   5.646
89575SOL    HW170622   1.207   2.166   5.637
89575SOL    HW270623   1.100   2.273   5.652
89576SOL     OW70624  13.978   1.998   7.577
89576SOL    HW170625  13.982   2.074   7.635
89576SOL    HW270626  14.023   1.928   7.625
89577SOL     OW70627   1.492   5.533   8.134
89577SOL    HW170628   1.436   5.586   8.077
89577SOL    HW270629   1.435   5.506   8.206
89578SOL     OW70630   6.998  12.522  10.029
89578SOL    HW170631   6.932  12.590  10.044
89578SOL    HW270632   6.959  12.467   9.961
89579SOL     OW70633   1.617   6.462   6.871
89579SOL    HW170634   1.674   6.537   6.887
89579SOL    HW270635   1.676   6.387   6.869
89580SOL     OW70636  11.191   4.488   3.688
89580SOL    HW170637  11.206   4.544   3.613
89580SOL    HW270638  11.096   4.473   3.689
89581SOL     OW70639   8.983   2.411   8.217
89581SOL    HW170640   8.954   2.441   8.303
89581SOL    HW270641   8.960   2.318   8.215
89582SOL     OW70642   8.113   7.137   5.096
89582SOL    HW170643   8.177   7.201   5.126
89582SOL    HW270644   8.152   7.052   5.115
89583SOL     OW70645   8.983  10.057   5.887
89583SOL    HW170646   8.965  10.034   5.796
89583SOL    HW270647   8.930   9.995   5.938
89584SOL     OW70648   8.917   9.614   1.534
89584SOL    HW170649   8.912   9.527   1.575
89584SOL    HW270650   8.986   9.659   1.581
89585SOL     OW70651  13.726  11.372   6.772
89585SOL    HW170652  13.774  11.453   6.789
89585SOL    HW270653  13.711  11.334   6.859
89586SOL     OW70654   5.953   6.027  12.484
89586SOL    HW170655   5.907   6.032  12.567
89586SOL    HW270656   6.028   5.969  12.502
89587SOL     OW70657  14.476   3.114   1.857
89587SOL    HW170658  14.422   3.189   1.881
89587SOL    HW270659  14.470   3.109   1.761
89588SOL     OW70660   0.412   1.294   3.906
89588SOL    HW170661   0.462   1.239   3.846
89588SOL    HW270662   0.381   1.234   3.973
89589SOL     OW70663  13.826   7.527  14.570
89589SOL    HW170664  13.901   7.579  14.540
89589SOL    HW270665  13.753   7.557  14.515
89590SOL     OW70666   8.873   3.671   7.207
89590SOL    HW170667   8.933   3.618   7.154
89590SOL    HW270668   8.835   3.733   7.145
89591SOL     OW70669   4.730  11.327   0.786
89591SOL    HW170670   4.677  11.289   0.857
89591SOL    HW270671   4.711  11.420   0.789
89592SOL     OW70672  10.341   0.868   8.763
89592SOL    HW170673  10.300   0.832   8.842
89592SOL    HW270674  10.330   0.801   8.696
89593SOL     OW70675  11.274  14.272   9.675
89593SOL    HW170676  11.274  14.216   9.753
89593SOL    HW270677  11.296  14.214   9.603
89594SOL     OW70678   5.392   0.697  14.833
89594SOL    HW170679   5.376   0.785  14.798
89594SOL    HW270680   5.348   0.697   0.048
89595SOL     OW70681   7.963   3.320   0.044
89595SOL    HW170682   7.911   3.274  14.847
89595SOL    HW270683   7.926   3.408   0.046
89596SOL     OW70684   1.717   3.984   4.428
89596SOL    HW170685   1.750   3.982   4.338
89596SOL    HW270686   1.688   4.075   4.441
89597SOL     OW70687   9.201   0.201   5.111
89597SOL    HW170688   9.107   0.186   5.110
89597SOL    HW270689   9.222   0.219   5.202
89598SOL     OW70690   8.206   3.232  14.816
89598SOL    HW170691   8.183   3.293  14.745
89598SOL    HW270692   8.126   3.225  14.868
89599SOL     OW70693  12.087   6.903  10.288
89599SOL    HW170694  12.055   6.873  10.203
89599SOL    HW270695  12.182   6.907  10.277
89600SOL     OW70696   9.396   0.861   6.522
89600SOL    HW170697   9.381   0.781   6.471
89600SOL    HW270698   9.386   0.932   6.458
89601SOL     OW70699  13.586   7.488   6.754
89601SOL    HW170700  13.602   7.401   6.718
89601SOL    HW270701  13.552   7.539   6.680
89602SOL     OW70702   7.115   8.482   2.968
89602SOL    HW170703   7.084   8.570   2.990
89602SOL    HW270704   7.182   8.462   3.034
89603SOL     OW70705   4.322   9.009  13.466
89603SOL    HW170706   4.240   9.052  13.441
89603SOL    HW270707   4.379   9.081  13.495
89604SOL     OW70708   1.410  12.790   1.769
89604SOL    HW170709   1.399  12.808   1.676
89604SOL    HW270710   1.373  12.702   1.781
89605SOL     OW70711   9.379   4.404   0.074
89605SOL    HW170712   9.317   4.470   0.043
89605SOL    HW270713   9.400   4.352  14.867
89606SOL     OW70714  10.063  12.696  10.137
89606SOL    HW170715  10.152  12.716  10.107
89606SOL    HW270716  10.024  12.648  10.064
89607SOL     OW70717   2.824  14.256  10.973
89607SOL    HW170718   2.730  14.272  10.967
89607SOL    HW270719   2.863  14.312  10.905
89608SOL     OW70720   3.560   2.154   2.275
89608SOL    HW170721   3.578   2.107   2.356
89608SOL    HW270722   3.515   2.234   2.303
89609SOL     OW70723  11.618  11.879   6.759
89609SOL    HW170724  11.594  11.800   6.809
89609SOL    HW270725  11.595  11.858   6.669
89610SOL     OW70726   8.460   5.373   7.783
89610SOL    HW170727   8.413   5.438   7.730
89610SOL    HW270728   8.414   5.291   7.766
89611SOL     OW70729   6.774   9.372   1.335
89611SOL    HW170730   6.784   9.466   1.326
89611SOL    HW270731   6.791   9.354   1.427
89612SOL     OW70732   8.318  13.647   8.046
89612SOL    HW170733   8.290  13.673   8.134
89612SOL    HW270734   8.304  13.725   7.992
89613SOL     OW70735  14.673   3.665   7.008
89613SOL    HW170736  14.618   3.735   7.043
89613SOL    HW270737  14.724   3.706   6.938
89614SOL     OW70738   9.128  13.125   3.772
89614SOL    HW170739   9.136  13.220   3.770
89614SOL    HW270740   9.219  13.093   3.770
89615SOL     OW70741   1.837   2.382  12.500
89615SOL    HW170742   1.799   2.449  12.557
89615SOL    HW270743   1.767   2.361  12.439
89616SOL     OW70744  12.275   6.364   2.444
89616SOL    HW170745  12.303   6.273   2.456
89616SOL    HW270746  12.219   6.382   2.519
89617SOL     OW70747  11.739   9.150   7.115
89617SOL    HW170748  11.691   9.068   7.126
89617SOL    HW270749  11.796   9.155   7.192
89618SOL     OW70750   7.887  11.307   1.532
89618SOL    HW170751   7.893  11.258   1.451
89618SOL    HW270752   7.817  11.264   1.581
89619SOL     OW70753   3.786  10.119   7.362
89619SOL    HW170754   3.779  10.183   7.432
89619SOL    HW270755   3.743  10.041   7.397
89620SOL     OW70756   5.869   2.797   3.383
89620SOL    HW170757   5.887   2.866   3.319
89620SOL    HW270758   5.837   2.844   3.460
89621SOL     OW70759  11.257  10.376  10.422
89621SOL    HW170760  11.209  10.389  10.340
89621SOL    HW270761  11.321  10.307  10.401
89622SOL     OW70762   9.662   4.520   9.595
89622SOL    HW170763   9.705   4.599   9.626
89622SOL    HW270764   9.680   4.454   9.661
89623SOL     OW70765   2.812   8.155   3.280
89623SOL    HW170766   2.812   8.061   3.261
89623SOL    HW270767   2.886   8.189   3.229
89624SOL     OW70768   3.045  10.623   7.733
89624SOL    HW170769   3.093  10.540   7.727
89624SOL    HW270770   2.972  10.614   7.672
89625SOL     OW70771   2.237   2.784   6.675
89625SOL    HW170772   2.271   2.784   6.765
89625SOL    HW270773   2.265   2.868   6.639
89626SOL     OW70774   2.255   4.362  12.497
89626SOL    HW170775   2.265   4.443  12.547
89626SOL    HW270776   2.287   4.384  12.409
89627SOL     OW70777  10.087   8.010   5.188
89627SOL    HW170778  10.114   7.920   5.208
89627SOL    HW270779  10.098   8.017   5.093
89628SOL     OW70780   0.335  14.153   0.990
89628SOL    HW170781   0.427  14.156   0.964
89628SOL    HW270782   0.331  14.089   1.060
89629SOL     OW70783  10.373   5.210  12.065
89629SOL    HW170784  10.294   5.177  12.023
89629SOL    HW270785  10.402   5.139  12.122
89630SOL     OW70786   3.591  13.791   7.859
89630SOL    HW170787   3.559  13.715   7.907
89630SOL    HW270788   3.678  13.809   7.896
89631SOL     OW70789   0.730   1.726   9.639
89631SOL    HW170790   0.750   1.653   9.697
89631SOL    HW270791   0.796   1.792   9.661
89632SOL     OW70792  14.037  10.466  14.369
89632SOL    HW170793  14.088  10.401  14.322
89632SOL    HW270794  14.085  10.548  14.356
89633SOL     OW70795   8.776   9.136   2.053
89633SOL    HW170796   8.812   9.216   2.091
89633SOL    HW270797   8.730   9.093   2.125
89634SOL     OW70798   5.764   5.759  12.682
89634SOL    HW170799   5.805   5.846  12.679
89634SOL    HW270800   5.716   5.753  12.599
89635SOL     OW70801   7.369   9.098   3.789
89635SOL    HW170802   7.425   9.171   3.762
89635SOL    HW270803   7.429   9.035   3.830
89636SOL     OW70804   3.072   0.332   5.029
89636SOL    HW170805   3.148   0.373   5.070
89636SOL    HW270806   3.080   0.239   5.052
89637SOL     OW70807   6.555  14.640   4.342
89637SOL    HW170808   6.634  14.648   4.288
89637SOL    HW270809   6.575  14.571   4.405
89638SOL     OW70810  14.066   3.106  13.349
89638SOL    HW170811  14.020   3.109  13.265
89638SOL    HW270812  14.120   3.185  13.349
89639SOL     OW70813   8.622   7.551   9.247
89639SOL    HW170814   8.706   7.506   9.240
89639SOL    HW270815   8.568   7.511   9.178
89640SOL     OW70816   3.973   2.183   8.556
89640SOL    HW170817   4.006   2.094   8.569
89640SOL    HW270818   3.882   2.179   8.583
89641SOL     OW70819  14.791   0.538   4.290
89641SOL    HW170820  14.782   0.445   4.305
89641SOL    HW270821  14.817   0.545   4.198
89642SOL     OW70822   3.968   1.180  13.118
89642SOL    HW170823   3.928   1.096  13.141
89642SOL    HW270824   4.062   1.164  13.128
89643SOL     OW70825   6.822  12.853   7.991
89643SOL    HW170826   6.882  12.908   7.941
89643SOL    HW270827   6.736  12.871   7.953
89644SOL     OW70828   9.887   5.685   1.194
89644SOL    HW170829   9.805   5.699   1.242
89644SOL    HW270830   9.897   5.764   1.141
89645SOL     OW70831  14.425  13.895   6.833
89645SOL    HW170832  14.459  13.881   6.745
89645SOL    HW270833  14.481  13.843   6.890
89646SOL     OW70834  14.805   5.267   4.272
89646SOL    HW170835   0.020   5.311   4.273
89646SOL    HW270836  14.774   5.275   4.362
89647SOL     OW70837   4.294  12.964   4.947
89647SOL    HW170838   4.284  13.044   4.896
89647SOL    HW270839   4.328  12.994   5.032
89648SOL     OW70840   2.115   2.552  13.644
89648SOL    HW170841   2.162   2.585  13.568
89648SOL    HW270842   2.029   2.526  13.611
89649SOL     OW70843  11.806   9.410   0.188
89649SOL    HW170844  11.868   9.459   0.243
89649SOL    HW270845  11.852   9.399   0.104
89650SOL     OW70846  13.740  14.153   8.321
89650SOL    HW170847  13.707  14.242   8.310
89650SOL    HW270848  13.800  14.141   8.247
89651SOL     OW70849  13.043   6.607   9.677
89651SOL    HW170850  13.112   6.607   9.610
89651SOL    HW270851  13.089   6.623   9.759
89652SOL     OW70852   2.410   0.970   8.169
89652SOL    HW170853   2.503   0.982   8.188
89652SOL    HW270854   2.366   1.031   8.227
89653SOL     OW70855   9.887  12.961   2.426
89653SOL    HW170856   9.800  12.954   2.464
89653SOL    HW270857   9.927  13.036   2.469
89654SOL     OW70858   0.520  13.468  13.668
89654SOL    HW170859   0.575  13.541  13.640
89654SOL    HW270860   0.578  13.413  13.720
89655SOL     OW70861  10.959   1.032   4.971
89655SOL    HW170862  10.896   1.088   5.017
89655SOL    HW270863  10.909   0.992   4.901
89656SOL     OW70864   4.607   0.124   4.857
89656SOL    HW170865   4.686   0.174   4.837
89656SOL    HW270866   4.602   0.059   4.786
89657SOL     OW70867  13.008   2.152  12.716
89657SOL    HW170868  12.968   2.227  12.759
89657SOL    HW270869  13.053   2.105  12.786
89658SOL     OW70870   3.940   6.097   9.961
89658SOL    HW170871   4.010   6.070   9.902
89658SOL    HW270872   3.983   6.154  10.024
89659SOL     OW70873   5.367   4.257   6.196
89659SOL    HW170874   5.378   4.322   6.127
89659SOL    HW270875   5.449   4.208   6.198
89660SOL     OW70876   3.451   9.589   7.643
89660SOL    HW170877   3.457   9.635   7.559
89660SOL    HW270878   3.542   9.574   7.669
89661SOL     OW70879   4.567   9.438   7.724
89661SOL    HW170880   4.658   9.451   7.698
89661SOL    HW270881   4.517   9.495   7.666
89662SOL     OW70882   4.954   4.881   5.763
89662SOL    HW170883   4.880   4.942   5.763
89662SOL    HW270884   4.947   4.836   5.679
89663SOL     OW70885   5.705  10.986  13.037
89663SOL    HW170886   5.734  11.062  12.988
89663SOL    HW270887   5.684  11.020  13.124
89664SOL     OW70888  10.663   4.884  10.655
89664SOL    HW170889  10.587   4.862  10.710
89664SOL    HW270890  10.733   4.828  10.688
89665SOL     OW70891  10.625   9.177   9.530
89665SOL    HW170892  10.625   9.210   9.619
89665SOL    HW270893  10.651   9.085   9.538
89666SOL     OW70894   0.019   7.867   1.723
89666SOL    HW170895   0.098   7.858   1.670
89666SOL    HW270896   0.028   7.800   1.790
89667SOL     OW70897   5.281   9.450  13.915
89667SOL    HW170898   5.237   9.421  13.995
89667SOL    HW270899   5.212   9.451  13.849
89668SOL     OW70900   6.911  13.070   6.870
89668SOL    HW170901   6.935  13.161   6.858
89668SOL    HW270902   6.988  13.031   6.913
89669SOL     OW70903   4.580   7.261   3.254
89669SOL    HW170904   4.562   7.228   3.342
89669SOL    HW270905   4.596   7.181   3.202
89670SOL     OW70906   3.386   9.632   0.243
89670SOL    HW170907   3.414   9.659   0.330
89670SOL    HW270908   3.396   9.537   0.244
89671SOL     OW70909   9.475  10.625   7.628
89671SOL    HW170910   9.462  10.564   7.700
89671SOL    HW270911   9.536  10.581   7.569
89672SOL     OW70912   1.637  13.172   8.623
89672SOL    HW170913   1.648  13.240   8.557
89672SOL    HW270914   1.548  13.139   8.609
89673SOL     OW70915   8.386   1.899   6.389
89673SOL    HW170916   8.355   1.810   6.405
89673SOL    HW270917   8.431   1.924   6.470
89674SOL     OW70918  14.612   6.828   0.519
89674SOL    HW170919  14.540   6.777   0.555
89674SOL    HW270920  14.603   6.821   0.425
89675SOL     OW70921   1.837  12.399   6.867
89675SOL    HW170922   1.821  12.403   6.961
89675SOL    HW270923   1.751  12.407   6.827
89676SOL     OW70924  10.066  12.313   5.047
89676SOL    HW170925  10.058  12.391   5.102
89676SOL    HW270926  10.091  12.347   4.961
89677SOL     OW70927  14.862  11.459   7.367
89677SOL    HW170928   0.060  11.446   7.301
89677SOL    HW270929  14.780  11.461   7.318
89678SOL     OW70930  14.249   3.477   2.349
89678SOL    HW170931  14.279   3.460   2.438
89678SOL    HW270932  14.207   3.396   2.321
89679SOL     OW70933   2.235  11.917   9.225
89679SOL    HW170934   2.321  11.944   9.257
89679SOL    HW270935   2.239  11.929   9.130
89680SOL     OW70936   3.950   3.391   2.113
89680SOL    HW170937   4.041   3.406   2.139
89680SOL    HW270938   3.954   3.377   2.019
89681SOL     OW70939   5.103   6.613   3.464
89681SOL    HW170940   5.176   6.594   3.523
89681SOL    HW270941   5.068   6.527   3.440
89682SOL     OW70942   1.109   8.028   7.006
89682SOL    HW170943   1.024   8.037   7.048
89682SOL    HW270944   1.089   7.990   6.920
89683SOL     OW70945   9.370   5.984  14.726
89683SOL    HW170946   9.433   5.912  14.719
89683SOL    HW270947   9.345   5.985  14.819
89684SOL     OW70948  14.763   0.685   1.145
89684SOL    HW170949  14.829   0.686   1.076
89684SOL    HW270950  14.721   0.599   1.137
89685SOL     OW70951   7.925  10.427   1.716
89685SOL    HW170952   7.891  10.370   1.647
89685SOL    HW270953   7.848  10.469   1.753
89686SOL     OW70954  11.029   9.205  13.737
89686SOL    HW170955  10.983   9.122  13.747
89686SOL    HW270956  11.084   9.212  13.815
89687SOL     OW70957  13.606   6.408  13.718
89687SOL    HW170958  13.645   6.447  13.640
89687SOL    HW270959  13.512   6.404  13.697
89688SOL     OW70960   0.857   8.851   6.675
89688SOL    HW170961   0.801   8.785   6.634
89688SOL    HW270962   0.939   8.804   6.692
89689SOL     OW70963   3.887  14.671   1.128
89689SOL    HW170964   3.796  14.698   1.121
89689SOL    HW270965   3.937  14.743   1.090
89690SOL     OW70966   4.433  11.657   0.495
89690SOL    HW170967   4.344  11.628   0.516
89690SOL    HW270968   4.486  11.578   0.504
89691SOL     OW70969   6.984  12.983   9.172
89691SOL    HW170970   7.024  13.070   9.169
89691SOL    HW270971   6.980  12.962   9.266
89692SOL     OW70972   4.731   7.296   6.777
89692SOL    HW170973   4.678   7.375   6.774
89692SOL    HW270974   4.820   7.326   6.762
89693SOL     OW70975  14.821  14.536   8.846
89693SOL    HW170976   0.004  14.486   8.783
89693SOL    HW270977  14.776  14.469   8.898
89694SOL     OW70978   3.850   2.827   5.048
89694SOL    HW170979   3.787   2.803   5.116
89694SOL    HW270980   3.801   2.882   4.987
89695SOL     OW70981   2.039  13.616   9.501
89695SOL    HW170982   2.060  13.588   9.590
89695SOL    HW270983   1.994  13.699   9.512
89696SOL     OW70984   8.476  14.171   7.619
89696SOL    HW170985   8.533  14.247   7.604
89696SOL    HW270986   8.468  14.130   7.533
89697SOL     OW70987  14.650   0.331  12.343
89697SOL    HW170988  14.746   0.325  12.347
89697SOL    HW270989  14.630   0.339  12.250
89698SOL     OW70990  10.187   8.480   1.236
89698SOL    HW170991  10.231   8.561   1.263
89698SOL    HW270992  10.174   8.491   1.141
89699SOL     OW70993  11.856   2.193  14.490
89699SOL    HW170994  11.833   2.170  14.580
89699SOL    HW270995  11.935   2.142  14.471
89700SOL     OW70996   1.376   6.045  12.739
89700SOL    HW170997   1.413   6.133  12.728
89700SOL    HW270998   1.342   6.021  12.652
89701SOL     OW70999   6.118   1.697   6.513
89701SOL    HW171000   6.071   1.731   6.437
89701SOL    HW271001   6.081   1.610   6.527
89702SOL     OW71002   1.863  14.049   2.024
89702SOL    HW171003   1.849  14.026   1.932
89702SOL    HW271004   1.946  14.007   2.047
89703SOL     OW71005   9.128  11.198   9.444
89703SOL    HW171006   9.078  11.278   9.458
89703SOL    HW271007   9.071  11.144   9.390
89704SOL     OW71008   8.839  11.968   0.203
89704SOL    HW171009   8.911  11.989   0.144
89704SOL    HW271010   8.762  11.959   0.146
89705SOL     OW71011  14.533   7.518  10.002
89705SOL    HW171012  14.611   7.463   9.996
89705SOL    HW271013  14.565   7.606   9.979
89706SOL     OW71014   4.555   2.598   0.214
89706SOL    HW171015   4.624   2.643   0.165
89706SOL    HW271016   4.483   2.588   0.151
89707SOL     OW71017   3.543  10.951   0.661
89707SOL    HW171018   3.467  10.925   0.609
89707SOL    HW271019   3.615  10.957   0.598
89708SOL     OW71020   7.983  13.406  10.705
89708SOL    HW171021   7.988  13.491  10.750
89708SOL    HW271022   7.895  13.404  10.668
89709SOL     OW71023   5.971  12.425   9.437
89709SOL    HW171024   5.906  12.492   9.459
89709SOL    HW271025   5.974  12.424   9.342
89710SOL     OW71026  14.316   5.715   9.700
89710SOL    HW171027  14.396   5.667   9.676
89710SOL    HW271028  14.319   5.795   9.647
89711SOL     OW71029  12.912   4.660   7.250
89711SOL    HW171030  12.857   4.711   7.309
89711SOL    HW271031  13.001   4.676   7.281
89712SOL     OW71032   3.359  13.598  14.259
89712SOL    HW171033   3.321  13.550  14.185
89712SOL    HW271034   3.446  13.560  14.271
89713SOL     OW71035   0.426   1.315   4.680
89713SOL    HW171036   0.378   1.268   4.611
89713SOL    HW271037   0.358   1.348   4.738
89714SOL     OW71038   6.211  10.473  11.233
89714SOL    HW171039   6.202  10.381  11.208
89714SOL    HW271040   6.272  10.509  11.168
89715SOL     OW71041   7.067   4.330   4.279
89715SOL    HW171042   7.048   4.419   4.307
89715SOL    HW271043   7.130   4.339   4.208
89716SOL     OW71044   3.253  13.462  13.407
89716SOL    HW171045   3.213  13.396  13.463
89716SOL    HW271046   3.320  13.502  13.462
89717SOL     OW71047   6.687   4.351  12.685
89717SOL    HW171048   6.632   4.347  12.764
89717SOL    HW271049   6.628   4.322  12.615
89718SOL     OW71050   6.103  12.927  10.671
89718SOL    HW171051   6.014  12.892  10.677
89718SOL    HW271052   6.157  12.864  10.720
89719SOL     OW71053  14.283   3.084   0.227
89719SOL    HW171054  14.312   3.039   0.307
89719SOL    HW271055  14.220   3.150   0.258
89720SOL     OW71056  13.398   0.696   4.499
89720SOL    HW171057  13.489   0.693   4.471
89720SOL    HW271058  13.391   0.779   4.547
89721SOL     OW71059   1.482  13.468   5.315
89721SOL    HW171060   1.535  13.469   5.235
89721SOL    HW271061   1.392  13.456   5.284
89722SOL     OW71062   3.638  14.296  12.513
89722SOL    HW171063   3.645  14.244  12.593
89722SOL    HW271064   3.729  14.307  12.484
89723SOL     OW71065   4.173   9.686  14.036
89723SOL    HW171066   4.192   9.776  14.009
89723SOL    HW271067   4.180   9.687  14.132
89724SOL     OW71068   0.488   8.127   3.036
89724SOL    HW171069   0.497   8.070   3.112
89724SOL    HW271070   0.547   8.089   2.971
89725SOL     OW71071   8.402  14.129   3.908
89725SOL    HW171072   8.320  14.160   3.868
89725SOL    HW271073   8.405  14.036   3.889
89726SOL     OW71074  14.746   3.566  13.898
89726SOL    HW171075  14.783   3.583  13.984
89726SOL    HW271076  14.675   3.630  13.890
89727SOL     OW71077  13.636  11.581   0.967
89727SOL    HW171078  13.599  11.649   1.024
89727SOL    HW271079  13.711  11.623   0.926
89728SOL     OW71080   9.215   3.596   9.132
89728SOL    HW171081   9.296   3.566   9.173
89728SOL    HW271082   9.175   3.654   9.198
89729SOL     OW71083   3.204   7.711   0.219
89729SOL    HW171084   3.226   7.786   0.274
89729SOL    HW271085   3.283   7.695   0.168
89730SOL     OW71086   6.906   4.076  10.891
89730SOL    HW171087   6.874   3.992  10.858
89730SOL    HW271088   6.851   4.141  10.848
89731SOL     OW71089  13.277   1.262  14.318
89731SOL    HW171090  13.256   1.325  14.249
89731SOL    HW271091  13.309   1.185  14.271
89732SOL     OW71092  14.034   0.969   5.531
89732SOL    HW171093  13.986   0.906   5.476
89732SOL    HW271094  14.089   0.914   5.587
89733SOL     OW71095  12.630  12.569   6.272
89733SOL    HW171096  12.614  12.663   6.272
89733SOL    HW271097  12.717  12.559   6.310
89734SOL     OW71098  10.586  10.412  12.771
89734SOL    HW171099  10.649  10.467  12.817
89734SOL    HW271100  10.558  10.347  12.836
89735SOL     OW71101   2.158   7.656   9.089
89735SOL    HW171102   2.175   7.587   9.025
89735SOL    HW271103   2.243   7.698   9.102
89736SOL     OW71104   4.509   7.395   5.673
89736SOL    HW171105   4.546   7.435   5.752
89736SOL    HW271106   4.509   7.301   5.692
89737SOL     OW71107   1.063  14.764   5.236
89737SOL    HW171108   0.982  14.754   5.185
89737SOL    HW271109   1.034  14.761   5.327
89738SOL     OW71110  11.022   6.712  13.340
89738SOL    HW171111  10.983   6.761  13.267
89738SOL    HW271112  11.064   6.637  13.298
89739SOL     OW71113   0.269   5.658   1.497
89739SOL    HW171114   0.328   5.688   1.566
89739SOL    HW271115   0.243   5.738   1.452
89740SOL     OW71116   0.538  11.573  14.083
89740SOL    HW171117   0.515  11.579  14.176
89740SOL    HW271118   0.456  11.593  14.037
89741SOL     OW71119   2.919   7.654   8.360
89741SOL    HW171120   2.835   7.667   8.317
89741SOL    HW271121   2.897   7.637   8.451
89742SOL     OW71122  12.858  14.395  10.226
89742SOL    HW171123  12.883  14.386  10.134
89742SOL    HW271124  12.858  14.305  10.260
89743SOL     OW71125   3.813  14.451   5.626
89743SOL    HW171126   3.826  14.361   5.658
89743SOL    HW271127   3.899  14.477   5.592
89744SOL     OW71128   9.279  11.725   1.321
89744SOL    HW171129   9.246  11.721   1.411
89744SOL    HW271130   9.296  11.633   1.299
89745SOL     OW71131   3.837   8.199   9.248
89745SOL    HW171132   3.861   8.263   9.315
89745SOL    HW271133   3.743   8.212   9.235
89746SOL     OW71134   2.114   7.665  13.637
89746SOL    HW171135   2.199   7.698  13.608
89746SOL    HW271136   2.054   7.739  13.622
89747SOL     OW71137  10.420   3.037   3.135
89747SOL    HW171138  10.457   2.968   3.080
89747SOL    HW271139  10.493   3.064   3.191
89748SOL     OW71140   1.702   2.474   8.077
89748SOL    HW171141   1.614   2.437   8.074
89748SOL    HW271142   1.699   2.536   8.150
89749SOL     OW71143  14.733   6.182  14.155
89749SOL    HW171144  14.679   6.116  14.197
89749SOL    HW271145  14.820   6.171  14.194
89750SOL     OW71146   6.714   1.781   3.850
89750SOL    HW171147   6.800   1.797   3.811
89750SOL    HW271148   6.729   1.789   3.944
89751SOL     OW71149   9.085   7.940   4.626
89751SOL    HW171150   9.138   8.006   4.670
89751SOL    HW271151   9.005   7.986   4.602
89752SOL     OW71152   8.643   2.452   6.265
89752SOL    HW171153   8.576   2.415   6.323
89752SOL    HW271154   8.687   2.376   6.228
89753SOL     OW71155   4.547   6.373   4.794
89753SOL    HW171156   4.605   6.357   4.868
89753SOL    HW271157   4.519   6.286   4.765
89754SOL     OW71158  12.922   6.402   2.427
89754SOL    HW171159  12.918   6.417   2.332
89754SOL    HW271160  12.865   6.470   2.464
89755SOL     OW71161  11.730  10.699   4.787
89755SOL    HW171162  11.768  10.697   4.875
89755SOL    HW271163  11.712  10.607   4.767
89756SOL     OW71164  10.864  10.417   2.424
89756SOL    HW171165  10.887  10.448   2.512
89756SOL    HW271166  10.837  10.326   2.437
89757SOL     OW71167   9.661   2.552  11.654
89757SOL    HW171168   9.695   2.471  11.618
89757SOL    HW271169   9.723   2.574  11.724
89758SOL     OW71170   6.995   9.236   4.915
89758SOL    HW171171   6.907   9.239   4.876
89758SOL    HW271172   7.054   9.230   4.841
89759SOL     OW71173   0.448   1.760   5.293
89759SOL    HW171174   0.407   1.705   5.227
89759SOL    HW271175   0.377   1.782   5.353
89760SOL     OW71176   1.702  11.564   1.254
89760SOL    HW171177   1.650  11.605   1.323
89760SOL    HW271178   1.754  11.498   1.300
89761SOL     OW71179   1.887   2.608   7.487
89761SOL    HW171180   1.870   2.549   7.561
89761SOL    HW271181   1.960   2.663   7.517
89762SOL     OW71182  12.633  14.012   7.622
89762SOL    HW171183  12.570  13.941   7.609
89762SOL    HW271184  12.711  13.984   7.576
89763SOL     OW71185  14.726   2.543  10.724
89763SOL    HW171186  14.775   2.469  10.759
89763SOL    HW271187  14.666   2.504  10.660
89764SOL     OW71188   1.354  14.821   5.803
89764SOL    HW171189   1.347  14.728   5.820
89764SOL    HW271190   1.443  14.845   5.831
89765SOL     OW71191  13.151   7.178  13.379
89765SOL    HW171192  13.068   7.131  13.369
89765SOL    HW271193  13.204   7.149  13.305
89766SOL     OW71194   1.661   8.429  14.175
89766SOL    HW171195   1.575   8.437  14.217
89766SOL    HW271196   1.646   8.368  14.103
89767SOL     OW71197   5.631  12.853   4.780
89767SOL    HW171198   5.560  12.789   4.779
89767SOL    HW271199   5.586  12.938   4.778
89768SOL     OW71200   5.376   1.576   3.592
89768SOL    HW171201   5.348   1.616   3.510
89768SOL    HW271202   5.443   1.635   3.626
89769SOL     OW71203   3.646  10.567   8.845
89769SOL    HW171204   3.564  10.572   8.893
89769SOL    HW271205   3.679  10.657   8.845
89770SOL     OW71206  11.321   3.890   2.404
89770SOL    HW171207  11.298   3.981   2.425
89770SOL    HW271208  11.414   3.883   2.423
89771SOL     OW71209   4.576  10.511   6.772
89771SOL    HW171210   4.645  10.446   6.784
89771SOL    HW271211   4.538  10.522   6.859
89772SOL     OW71212  10.145  12.539  11.988
89772SOL    HW171213  10.145  12.450  11.953
89772SOL    HW271214  10.087  12.535  12.063
89773SOL     OW71215   6.765   0.669   5.350
89773SOL    HW171216   6.766   0.589   5.403
89773SOL    HW271217   6.814   0.646   5.271
89774SOL     OW71218   6.631   5.699   6.903
89774SOL    HW171219   6.590   5.649   6.833
89774SOL    HW271220   6.610   5.790   6.884
89775SOL     OW71221  10.023   4.222  13.939
89775SOL    HW171222  10.098   4.164  13.937
89775SOL    HW271223   9.958   4.177  13.994
89776SOL     OW71224   4.619   6.366  14.008
89776SOL    HW171225   4.702   6.324  14.030
89776SOL    HW271226   4.552   6.302  14.034
89777SOL     OW71227   0.093   0.647   3.486
89777SOL    HW171228   0.032   0.720   3.486
89777SOL    HW271229   0.041   0.572   3.459
89778SOL     OW71230  12.360   6.157   5.491
89778SOL    HW171231  12.356   6.101   5.569
89778SOL    HW271232  12.338   6.099   5.418
89779SOL     OW71233  13.321   1.861   1.924
89779SOL    HW171234  13.320   1.869   1.829
89779SOL    HW271235  13.332   1.951   1.955
89780SOL     OW71236   3.349  11.991   5.217
89780SOL    HW171237   3.324  12.044   5.142
89780SOL    HW271238   3.444  11.990   5.215
89781SOL     OW71239  11.350   1.094   8.706
89781SOL    HW171240  11.395   1.016   8.676
89781SOL    HW271241  11.261   1.065   8.725
89782SOL     OW71242  11.296   0.704   6.582
89782SOL    HW171243  11.203   0.709   6.603
89782SOL    HW271244  11.301   0.640   6.510
89783SOL     OW71245   9.557   7.451   2.377
89783SOL    HW171246   9.583   7.359   2.381
89783SOL    HW271247   9.630   7.494   2.332
89784SOL     OW71248   8.281   8.355   0.358
89784SOL    HW171249   8.186   8.351   0.369
89784SOL    HW271250   8.311   8.411   0.430
89785SOL     OW71251   0.595   5.703  10.753
89785SOL    HW171252   0.595   5.737  10.843
89785SOL    HW271253   0.645   5.767  10.703
89786SOL     OW71254  10.207   6.701   9.083
89786SOL    HW171255  10.167   6.688   9.169
89786SOL    HW271256  10.299   6.676   9.095
89787SOL     OW71257   8.329   8.353   7.241
89787SOL    HW171258   8.307   8.325   7.153
89787SOL    HW271259   8.252   8.401   7.272
89788SOL     OW71260   2.029   6.825   1.828
89788SOL    HW171261   1.969   6.759   1.792
89788SOL    HW271262   1.981   6.863   1.901
89789SOL     OW71263   9.754  12.912   7.275
89789SOL    HW171264   9.821  12.920   7.207
89789SOL    HW271265   9.761  12.994   7.325
89790SOL     OW71266   9.375  11.415   7.624
89790SOL    HW171267   9.394  11.493   7.676
89790SOL    HW271268   9.328  11.357   7.684
89791SOL     OW71269   7.220  12.244   6.733
89791SOL    HW171270   7.181  12.298   6.802
89791SOL    HW271271   7.255  12.307   6.670
89792SOL     OW71272  14.330   2.936  11.044
89792SOL    HW171273  14.300   2.851  11.011
89792SOL    HW271274  14.397   2.914  11.109
89793SOL     OW71275   2.647  13.657  13.191
89793SOL    HW171276   2.605  13.602  13.258
89793SOL    HW271277   2.578  13.668  13.125
89794SOL     OW71278   9.824   9.755   1.938
89794SOL    HW171279   9.812   9.705   1.857
89794SOL    HW271280   9.841   9.689   2.005
89795SOL     OW71281  10.070   8.150   2.400
89795SOL    HW171282   9.975   8.147   2.414
89795SOL    HW271283  10.106   8.180   2.483
89796SOL     OW71284  14.315  14.816   3.917
89796SOL    HW171285  14.399  14.781   3.947
89796SOL    HW271286  14.281  14.749   3.857
89797SOL     OW71287   3.580  13.271   8.605
89797SOL    HW171288   3.559  13.364   8.598
89797SOL    HW271289   3.675  13.267   8.601
89798SOL     OW71290   1.501   0.184   2.965
89798SOL    HW171291   1.571   0.206   3.026
89798SOL    HW271292   1.492   0.261   2.909
89799SOL     OW71293   5.010   7.529   8.397
89799SOL    HW171294   4.929   7.496   8.359
89799SOL    HW271295   4.985   7.563   8.483
89800SOL     OW71296   5.801   3.639  13.083
89800SOL    HW171297   5.823   3.682  13.000
89800SOL    HW271298   5.885   3.611  13.119
89801SOL     OW71299   1.363   6.645   5.938
89801SOL    HW171300   1.369   6.721   5.996
89801SOL    HW271301   1.410   6.672   5.859
89802SOL     OW71302  13.859  13.654   1.593
89802SOL    HW171303  13.806  13.575   1.581
89802SOL    HW271304  13.882  13.681   1.504
89803SOL     OW71305   8.765   6.361   2.518
89803SOL    HW171306   8.702   6.295   2.489
89803SOL    HW271307   8.785   6.336   2.609
89804SOL     OW71308  14.868   3.632   5.181
89804SOL    HW171309   0.059   3.644   5.108
89804SOL    HW271310  14.855   3.537   5.186
89805SOL     OW71311   6.895  13.175   5.266
89805SOL    HW171312   6.884  13.268   5.249
89805SOL    HW271313   6.819  13.134   5.225
89806SOL     OW71314   0.171  10.763  13.584
89806SOL    HW171315   0.222  10.836  13.619
89806SOL    HW271316   0.082  10.777  13.617
89807SOL     OW71317   0.556   3.641   5.361
89807SOL    HW171318   0.515   3.561   5.393
89807SOL    HW271319   0.642   3.642   5.403
89808SOL     OW71320   5.464   6.688   2.061
89808SOL    HW171321   5.555   6.718   2.064
89808SOL    HW271322   5.420   6.750   2.003
89809SOL     OW71323   8.268   4.010  10.251
89809SOL    HW171324   8.181   4.049  10.244
89809SOL    HW271325   8.302   4.042  10.335
89810SOL     OW71326   4.576   2.045   6.748
89810SOL    HW171327   4.565   2.098   6.669
89810SOL    HW271328   4.666   2.063   6.776
89811SOL     OW71329  10.972   1.201  11.202
89811SOL    HW171330  11.046   1.257  11.227
89811SOL    HW271331  10.921   1.192  11.283
89812SOL     OW71332   2.321   7.572   7.280
89812SOL    HW171333   2.236   7.554   7.241
89812SOL    HW271334   2.340   7.662   7.255
89813SOL     OW71335  12.903   3.000   7.764
89813SOL    HW171336  12.818   3.020   7.725
89813SOL    HW271337  12.960   2.981   7.690
89814SOL     OW71338   5.029   8.390   9.607
89814SOL    HW171339   5.002   8.351   9.524
89814SOL    HW271340   5.112   8.434   9.587
89815SOL     OW71341   0.283   4.202  11.784
89815SOL    HW171342   0.265   4.110  11.768
89815SOL    HW271343   0.347   4.226  11.717
89816SOL     OW71344   5.774   3.120   0.483
89816SOL    HW171345   5.679   3.112   0.486
89816SOL    HW271346   5.790   3.194   0.425
89817SOL     OW71347   3.111   0.523  13.666
89817SOL    HW171348   3.153   0.444  13.699
89817SOL    HW271349   3.181   0.588  13.665
89818SOL     OW71350  12.854   7.774   5.181
89818SOL    HW171351  12.764   7.809   5.182
89818SOL    HW271352  12.885   7.789   5.270
89819SOL     OW71353   8.593  14.658   8.110
89819SOL    HW171354   8.611  14.692   8.197
89819SOL    HW271355   8.660  14.699   8.054
89820SOL     OW71356   1.656  11.079   3.939
89820SOL    HW171357   1.703  11.093   3.858
89820SOL    HW271358   1.613  11.163   3.957
89821SOL     OW71359   3.300   3.740  12.887
89821SOL    HW171360   3.294   3.700  12.800
89821SOL    HW271361   3.392   3.768  12.893
89822SOL     OW71362   4.508   0.211   7.290
89822SOL    HW171363   4.545   0.252   7.368
89822SOL    HW271364   4.437   0.269   7.263
89823SOL     OW71365   2.002   0.032   3.686
89823SOL    HW171366   2.023   0.013   3.778
89823SOL    HW271367   2.088   0.034   3.643
89824SOL     OW71368   6.582   6.625  11.990
89824SOL    HW171369   6.671   6.661  11.984
89824SOL    HW271370   6.535   6.687  12.045
89825SOL     OW71371   7.199   2.052   9.547
89825SOL    HW171372   7.194   2.017   9.458
89825SOL    HW271373   7.150   2.134   9.543
89826SOL     OW71374   8.626   9.382  13.518
89826SOL    HW171375   8.628   9.342  13.605
89826SOL    HW271376   8.664   9.316  13.461
89827SOL     OW71377   4.310   7.795   7.971
89827SOL    HW171378   4.297   7.711   8.015
89827SOL    HW271379   4.376   7.776   7.904
89828SOL     OW71380  12.347   0.564   2.417
89828SOL    HW171381  12.440   0.546   2.406
89828SOL    HW271382  12.306   0.477   2.420
89829SOL     OW71383   1.825   7.865  14.561
89829SOL    HW171384   1.786   7.783  14.532
89829SOL    HW271385   1.810   7.925  14.488
89830SOL     OW71386   7.977   3.529   4.346
89830SOL    HW171387   8.065   3.493   4.350
89830SOL    HW271388   7.958   3.534   4.252
89831SOL     OW71389   8.063  13.039   5.500
89831SOL    HW171390   8.153  13.073   5.506
89831SOL    HW271391   8.011  13.104   5.548
89832SOL     OW71392   1.391   1.874   8.420
89832SOL    HW171393   1.471   1.923   8.435
89832SOL    HW271394   1.331   1.902   8.490
89833SOL     OW71395   7.556   2.677   6.630
89833SOL    HW171396   7.544   2.663   6.536
89833SOL    HW271397   7.565   2.771   6.640
89834SOL     OW71398   5.222  10.314   2.608
89834SOL    HW171399   5.311  10.350   2.611
89834SOL    HW271400   5.226  10.244   2.543
89835SOL     OW71401  10.938   1.921  13.626
89835SOL    HW171402  11.018   1.956  13.666
89835SOL    HW271403  10.935   1.830  13.656
89836SOL     OW71404  12.208  12.884   9.963
89836SOL    HW171405  12.171  12.969   9.939
89836SOL    HW271406  12.243  12.849   9.881
89837SOL     OW71407   1.915   6.888   0.916
89837SOL    HW171408   1.860   6.857   0.844
89837SOL    HW271409   1.946   6.809   0.959
89838SOL     OW71410  14.395   8.358   7.698
89838SOL    HW171411  14.452   8.331   7.770
89838SOL    HW271412  14.435   8.438   7.664
89839SOL     OW71413  10.040  13.073  13.012
89839SOL    HW171414  10.101  13.002  12.994
89839SOL    HW271415   9.953  13.033  13.000
89840SOL     OW71416  11.783  10.942   6.580
89840SOL    HW171417  11.736  10.914   6.658
89840SOL    HW271418  11.785  10.865   6.524
89841SOL     OW71419  13.655   2.703   9.368
89841SOL    HW171420  13.751   2.709   9.369
89841SOL    HW271421  13.626   2.768   9.432
89842SOL     OW71422  10.068   3.541  12.594
89842SOL    HW171423  10.100   3.632  12.591
89842SOL    HW271424   9.974   3.549  12.582
89843SOL     OW71425  14.644  13.782   5.036
89843SOL    HW171426  14.655  13.843   5.109
89843SOL    HW271427  14.718  13.798   4.979
89844SOL     OW71428   3.807   4.238   2.060
89844SOL    HW171429   3.780   4.280   1.979
89844SOL    HW271430   3.892   4.277   2.080
89845SOL     OW71431  12.885  13.759   6.485
89845SOL    HW171432  12.851  13.824   6.424
89845SOL    HW271433  12.814  13.745   6.548
89846SOL     OW71434   0.494   9.342   8.846
89846SOL    HW171435   0.439   9.302   8.914
89846SOL    HW271436   0.450   9.320   8.764
89847SOL     OW71437   7.651   4.978   2.067
89847SOL    HW171438   7.687   4.889   2.065
89847SOL    HW271439   7.595   4.983   1.989
89848SOL     OW71440  11.663  12.306   7.838
89848SOL    HW171441  11.631  12.223   7.875
89848SOL    HW271442  11.677  12.287   7.745
89849SOL     OW71443   1.609   8.713   3.745
89849SOL    HW171444   1.696   8.677   3.765
89849SOL    HW271445   1.591   8.773   3.817
89850SOL     OW71446  11.387   9.003   6.215
89850SOL    HW171447  11.381   8.909   6.233
89850SOL    HW271448  11.398   9.043   6.302
89851SOL     OW71449   6.729  10.014   8.783
89851SOL    HW171450   6.809  10.047   8.825
89851SOL    HW271451   6.735   9.919   8.793
89852SOL     OW71452  11.288  11.493  11.042
89852SOL    HW171453  11.281  11.516  10.949
89852SOL    HW271454  11.205  11.452  11.063
89853SOL     OW71455   5.006   0.140  11.893
89853SOL    HW171456   5.002   0.226  11.935
89853SOL    HW271457   4.991   0.158  11.801
89854SOL     OW71458  14.537   9.133  13.602
89854SOL    HW171459  14.617   9.177  13.632
89854SOL    HW271460  14.492   9.199  13.549
89855SOL     OW71461  11.356   4.273   3.513
89855SOL    HW171462  11.408   4.196   3.538
89855SOL    HW271463  11.331   4.313   3.597
89856SOL     OW71464  11.414   3.797   0.473
89856SOL    HW171465  11.322   3.783   0.451
89856SOL    HW271466  11.433   3.732   0.539
89857SOL     OW71467   9.793  12.445  12.072
89857SOL    HW171468   9.764  12.534  12.092
89857SOL    HW271469   9.759  12.428  11.984
89858SOL     OW71470  10.268   2.542   6.870
89858SOL    HW171471  10.319   2.556   6.950
89858SOL    HW271472  10.294   2.455   6.841
89859SOL     OW71473   3.682   3.975  13.942
89859SOL    HW171474   3.756   4.035  13.948
89859SOL    HW271475   3.695   3.913  14.014
89860SOL     OW71476   7.989  13.921   0.496
89860SOL    HW171477   7.919  13.919   0.431
89860SOL    HW271478   7.947  13.891   0.577
89861SOL     OW71479   3.318  11.301   6.575
89861SOL    HW171480   3.258  11.376   6.576
89861SOL    HW271481   3.306  11.261   6.489
89862SOL     OW71482  14.360  10.028  10.368
89862SOL    HW171483  14.385   9.989  10.284
89862SOL    HW271484  14.317   9.956  10.415
89863SOL     OW71485  10.898   4.465  10.098
89863SOL    HW171486  10.962   4.446  10.167
89863SOL    HW271487  10.938   4.534  10.046
89864SOL     OW71488   7.428  12.839  14.061
89864SOL    HW171489   7.334  12.823  14.060
89864SOL    HW271490   7.447  12.875  13.974
89865SOL     OW71491   4.307  10.930  14.641
89865SOL    HW171492   4.279  10.941  14.732
89865SOL    HW271493   4.258  10.854  14.610
89866SOL     OW71494   4.106  10.831  10.360
89866SOL    HW171495   4.181  10.831  10.419
89866SOL    HW271496   4.129  10.769  10.291
89867SOL     OW71497  14.284   5.539   4.950
89867SOL    HW171498  14.221   5.542   5.022
89867SOL    HW271499  14.350   5.604   4.973
89868SOL     OW71500   7.163   3.447   5.010
89868SOL    HW171501   7.139   3.385   5.079
89868SOL    HW271502   7.110   3.525   5.028
89869SOL     OW71503  13.250   8.565  12.659
89869SOL    HW171504  13.239   8.633  12.725
89869SOL    HW271505  13.195   8.493  12.689
89870SOL     OW71506   7.421   6.356   8.559
89870SOL    HW171507   7.410   6.445   8.526
89870SOL    HW271508   7.430   6.367   8.654
89871SOL     OW71509   6.913   0.579  12.403
89871SOL    HW171510   6.843   0.529  12.444
89871SOL    HW271511   6.937   0.645  12.468
89872SOL     OW71512  13.056   5.472  11.619
89872SOL    HW171513  12.999   5.503  11.549
89872SOL    HW271514  13.134   5.527  11.613
89873SOL     OW71515   4.541  10.272   3.249
89873SOL    HW171516   4.479  10.224   3.305
89873SOL    HW271517   4.490  10.347   3.217
89874SOL     OW71518   9.816  12.708  10.794
89874SOL    HW171519   9.790  12.797  10.819
89874SOL    HW271520   9.736  12.656  10.802
89875SOL     OW71521   7.234   4.713   1.160
89875SOL    HW171522   7.182   4.791   1.179
89875SOL    HW271523   7.297   4.741   1.093
89876SOL     OW71524   9.027   3.427   4.029
89876SOL    HW171525   8.982   3.418   3.945
89876SOL    HW271526   8.995   3.354   4.081
89877SOL     OW71527  10.846   3.107   4.124
89877SOL    HW171528  10.789   3.030   4.116
89877SOL    HW271529  10.788   3.175   4.159
89878SOL     OW71530   1.368   6.908   6.395
89878SOL    HW171531   1.317   6.916   6.475
89878SOL    HW271532   1.357   6.992   6.350
89879SOL     OW71533   5.642   9.457   1.209
89879SOL    HW171534   5.704   9.529   1.205
89879SOL    HW271535   5.619   9.440   1.118
89880SOL     OW71536   0.473  11.176  10.379
89880SOL    HW171537   0.513  11.235  10.442
89880SOL    HW271538   0.546  11.126  10.342
89881SOL     OW71539   6.710  12.184   1.672
89881SOL    HW171540   6.651  12.254   1.645
89881SOL    HW271541   6.792  12.229   1.695
89882SOL     OW71542   1.500   5.867  11.038
89882SOL    HW171543   1.564   5.929  11.003
89882SOL    HW271544   1.552   5.808  11.093
89883SOL     OW71545  13.143   6.508   5.018
89883SOL    HW171546  13.181   6.539   4.936
89883SOL    HW271547  13.070   6.568   5.034
89884SOL     OW71548   6.688   6.994   1.046
89884SOL    HW171549   6.663   7.086   1.036
89884SOL    HW271550   6.636   6.948   0.979
89885SOL     OW71551  13.380  11.682   7.194
89885SOL    HW171552  13.427  11.765   7.190
89885SOL    HW271553  13.303  11.701   7.247
89886SOL     OW71554   0.276  12.267   1.959
89886SOL    HW171555   0.190  12.309   1.956
89886SOL    HW271556   0.260  12.177   1.930
89887SOL     OW71557   3.143  10.235   8.335
89887SOL    HW171558   3.211  10.183   8.293
89887SOL    HW271559   3.172  10.244   8.426
89888SOL     OW71560   7.592   7.089   9.907
89888SOL    HW171561   7.578   7.167   9.853
89888SOL    HW271562   7.507   7.070   9.946
89889SOL     OW71563  14.483   5.251   3.914
89889SOL    HW171564  14.510   5.294   3.995
89889SOL    HW271565  14.564   5.239   3.865
89890SOL     OW71566  11.519  13.815   3.714
89890SOL    HW171567  11.460  13.888   3.733
89890SOL    HW271568  11.461  13.739   3.708
89891SOL     OW71569   8.671  14.523  11.397
89891SOL    HW171570   8.715  14.600  11.434
89891SOL    HW271571   8.725  14.449  11.425
89892SOL     OW71572   6.570   3.853   2.828
89892SOL    HW171573   6.563   3.943   2.859
89892SOL    HW271574   6.569   3.861   2.733
89893SOL     OW71575  13.564   5.281   5.559
89893SOL    HW171576  13.611   5.210   5.516
89893SOL    HW271577  13.620   5.357   5.548
89894SOL     OW71578   2.024   8.908  11.269
89894SOL    HW171579   2.070   8.940  11.191
89894SOL    HW271580   2.041   8.974  11.336
89895SOL     OW71581  13.848  12.667   4.784
89895SOL    HW171582  13.898  12.650   4.864
89895SOL    HW271583  13.861  12.761   4.767
89896SOL     OW71584   1.553   6.021  14.265
89896SOL    HW171585   1.536   5.955  14.333
89896SOL    HW271586   1.647   6.016  14.251
89897SOL     OW71587   6.445   5.804   1.406
89897SOL    HW171588   6.432   5.781   1.498
89897SOL    HW271589   6.362   5.845   1.380
89898SOL     OW71590  11.496  14.717   1.585
89898SOL    HW171591  11.526  14.696   1.497
89898SOL    HW271592  11.483  14.632   1.627
89899SOL     OW71593   8.321   7.271   6.419
89899SOL    HW171594   8.321   7.236   6.329
89899SOL    HW271595   8.230   7.293   6.436
89900SOL     OW71596  14.511  13.023  12.038
89900SOL    HW171597  14.576  13.093  12.025
89900SOL    HW271598  14.427  13.067  12.028
89901SOL     OW71599   0.465   9.329   9.768
89901SOL    HW171600   0.382   9.290   9.797
89901SOL    HW271601   0.462   9.419   9.802
89902SOL     OW71602   8.808  11.432   5.130
89902SOL    HW171603   8.720  11.417   5.165
89902SOL    HW271604   8.852  11.347   5.141
89903SOL     OW71605   9.922   6.755   8.032
89903SOL    HW171606   9.934   6.826   7.968
89903SOL    HW271607   9.868   6.794   8.100
89904SOL     OW71608   2.660   6.634   6.579
89904SOL    HW171609   2.601   6.570   6.539
89904SOL    HW271610   2.748   6.600   6.562
89905SOL     OW71611   6.626   8.796   5.671
89905SOL    HW171612   6.536   8.802   5.703
89905SOL    HW271613   6.625   8.840   5.586
89906SOL     OW71614  12.982   9.396   7.316
89906SOL    HW171615  12.977   9.405   7.221
89906SOL    HW271616  12.891   9.386   7.344
89907SOL     OW71617   1.289   6.615   1.002
89907SOL    HW171618   1.280   6.636   1.095
89907SOL    HW271619   1.233   6.539   0.989
89908SOL     OW71620   1.833   5.246   1.659
89908SOL    HW171621   1.890   5.323   1.664
89908SOL    HW271622   1.811   5.239   1.566
89909SOL     OW71623   2.686  11.109   7.522
89909SOL    HW171624   2.764  11.156   7.553
89909SOL    HW271625   2.701  11.100   7.427
89910SOL     OW71626  10.438  12.239  10.490
89910SOL    HW171627  10.355  12.279  10.513
89910SOL    HW271628  10.504  12.294  10.532
89911SOL     OW71629   1.494   0.873   4.471
89911SOL    HW171630   1.505   0.838   4.560
89911SOL    HW271631   1.573   0.925   4.456
89912SOL     OW71632   0.948   1.514  12.541
89912SOL    HW171633   0.930   1.506  12.635
89912SOL    HW271634   0.891   1.449  12.500
89913SOL     OW71635   4.216  10.128   9.558
89913SOL    HW171636   4.121  10.138   9.549
89913SOL    HW271637   4.247  10.113   9.469
89914SOL     OW71638  14.110   3.048   4.788
89914SOL    HW171639  14.106   3.047   4.692
89914SOL    HW271640  14.131   3.139   4.809
89915SOL     OW71641  12.841   5.520  14.307
89915SOL    HW171642  12.911   5.570  14.265
89915SOL    HW271643  12.790   5.485  14.234
89916SOL     OW71644  12.632   9.450  14.063
89916SOL    HW171645  12.631   9.362  14.101
89916SOL    HW271646  12.559   9.450  14.002
89917SOL     OW71647   8.938   9.782   7.697
89917SOL    HW171648   8.882   9.760   7.622
89917SOL    HW271649   9.027   9.765   7.667
89918SOL     OW71650  11.613  10.169  12.097
89918SOL    HW171651  11.564  10.227  12.038
89918SOL    HW271652  11.546  10.128  12.152
89919SOL     OW71653   7.453  13.347   5.188
89919SOL    HW171654   7.365  13.309   5.193
89919SOL    HW271655   7.490  13.309   5.108
89920SOL     OW71656   8.452   7.239   5.493
89920SOL    HW171657   8.364   7.273   5.507
89920SOL    HW271658   8.447   7.148   5.522
89921SOL     OW71659  12.611  14.421  11.399
89921SOL    HW171660  12.601  14.478  11.476
89921SOL    HW271661  12.521  14.405  11.370
89922SOL     OW71662  14.251  11.108   9.945
89922SOL    HW171663  14.214  11.095  10.033
89922SOL    HW271664  14.339  11.143   9.961
89923SOL     OW71665   9.396  11.061  12.676
89923SOL    HW171666   9.453  11.016  12.614
89923SOL    HW271667   9.323  11.092  12.623
89924SOL     OW71668  10.288   1.327   5.793
89924SOL    HW171669  10.357   1.343   5.729
89924SOL    HW271670  10.327   1.263   5.853
89925SOL     OW71671  13.429   0.137   9.094
89925SOL    HW171672  13.509   0.121   9.044
89925SOL    HW271673  13.358   0.125   9.030
89926SOL     OW71674   0.128   9.438  14.400
89926SOL    HW171675   0.215   9.453  14.438
89926SOL    HW271676   0.084   9.523  14.408
89927SOL     OW71677  10.435   1.495  14.017
89927SOL    HW171678  10.522   1.494  13.975
89927SOL    HW271679  10.395   1.412  13.990
89928SOL     OW71680   0.579  13.773  12.682
89928SOL    HW171681   0.609  13.739  12.597
89928SOL    HW271682   0.566  13.867  12.667
89929SOL     OW71683   1.688  13.699   9.004
89929SOL    HW171684   1.735  13.766   9.053
89929SOL    HW271685   1.599  13.732   8.996
89930SOL     OW71686  11.823  13.775  12.240
89930SOL    HW171687  11.870  13.764  12.157
89930SOL    HW271688  11.847  13.698  12.292
89931SOL     OW71689   3.050  13.646  10.560
89931SOL    HW171690   3.081  13.735  10.545
89931SOL    HW271691   3.059  13.602  10.476
89932SOL     OW71692   6.889   1.436   1.925
89932SOL    HW171693   6.851   1.502   1.983
89932SOL    HW271694   6.937   1.378   1.984
89933SOL     OW71695  11.502   8.759   7.665
89933SOL    HW171696  11.533   8.848   7.677
89933SOL    HW271697  11.449   8.762   7.585
89934SOL     OW71698   0.463   1.337  13.631
89934SOL    HW171699   0.443   1.348  13.723
89934SOL    HW271700   0.410   1.262  13.603
89935SOL     OW71701   7.579   3.576  10.856
89935SOL    HW171702   7.538   3.501  10.814
89935SOL    HW271703   7.660   3.591  10.806
89936SOL     OW71704  10.966   1.511   6.072
89936SOL    HW171705  10.875   1.537   6.085
89936SOL    HW271706  10.992   1.551   5.989
89937SOL     OW71707   3.546   2.781   1.750
89937SOL    HW171708   3.628   2.793   1.798
89937SOL    HW271709   3.537   2.861   1.698
89938SOL     OW71710   7.694  13.710  12.095
89938SOL    HW171711   7.673  13.744  12.008
89938SOL    HW271712   7.613  13.666  12.124
89939SOL     OW71713   4.747   5.087  10.906
89939SOL    HW171714   4.748   5.106  10.999
89939SOL    HW271715   4.810   5.016  10.895
89940SOL     OW71716   5.591   7.835  10.382
89940SOL    HW171717   5.527   7.878  10.326
89940SOL    HW271718   5.564   7.859  10.471
89941SOL     OW71719  14.478  12.239   5.261
89941SOL    HW171720  14.494  12.299   5.334
89941SOL    HW271721  14.505  12.288   5.184
89942SOL     OW71722   7.304   5.864   8.967
89942SOL    HW171723   7.393   5.857   8.931
89942SOL    HW271724   7.288   5.779   9.008
89943SOL     OW71725   6.227  12.306  13.425
89943SOL    HW171726   6.199  12.373  13.487
89943SOL    HW271727   6.158  12.240  13.429
89944SOL     OW71728   2.287   1.292  11.415
89944SOL    HW171729   2.331   1.311  11.497
89944SOL    HW271730   2.299   1.371  11.362
89945SOL     OW71731   1.535   3.704  11.888
89945SOL    HW171732   1.488   3.787  11.898
89945SOL    HW271733   1.618   3.728  11.847
89946SOL     OW71734   0.666   0.300   6.686
89946SOL    HW171735   0.665   0.253   6.602
89946SOL    HW271736   0.758   0.298   6.713
89947SOL     OW71737   7.058   5.837   4.637
89947SOL    HW171738   7.000   5.821   4.711
89947SOL    HW271739   7.000   5.862   4.565
89948SOL     OW71740   0.361   2.874   9.882
89948SOL    HW171741   0.301   2.804   9.910
89948SOL    HW271742   0.445   2.830   9.870
89949SOL     OW71743   9.154  11.746   1.572
89949SOL    HW171744   9.140  11.660   1.612
89949SOL    HW271745   9.066  11.781   1.560
89950SOL     OW71746   5.944  13.238  14.636
89950SOL    HW171747   5.888  13.273  14.706
89950SOL    HW271748   5.968  13.315  14.584
89951SOL     OW71749   7.471   0.953  12.435
89951SOL    HW171750   7.436   1.039  12.453
89951SOL    HW271751   7.436   0.897  12.504
89952SOL     OW71752   9.038   0.514   4.636
89952SOL    HW171753   9.084   0.597   4.634
89952SOL    HW271754   8.945   0.537   4.644
89953SOL     OW71755   5.920   1.384  13.014
89953SOL    HW171756   5.855   1.377  13.085
89953SOL    HW271757   5.994   1.332  13.044
89954SOL     OW71758  12.743  13.862  10.958
89954SOL    HW171759  12.791  13.866  11.041
89954SOL    HW271760  12.665  13.810  10.979
89955SOL     OW71761  10.123  10.906  10.545
89955SOL    HW171762  10.076  10.902  10.462
89955SOL    HW271763  10.068  10.959  10.602
89956SOL     OW71764  13.917   2.077   3.190
89956SOL    HW171765  13.873   1.992   3.177
89956SOL    HW271766  13.941   2.077   3.282
89957SOL     OW71767   6.658   0.826  13.038
89957SOL    HW171768   6.697   0.740  13.056
89957SOL    HW271769   6.593   0.809  12.971
89958SOL     OW71770   6.136  12.689  13.911
89958SOL    HW171771   6.052  12.646  13.895
89958SOL    HW271772   6.114  12.779  13.935
89959SOL     OW71773   3.356  12.073   4.167
89959SOL    HW171774   3.287  12.129   4.203
89959SOL    HW271775   3.412  12.133   4.118
89960SOL     OW71776   8.205  12.520   8.385
89960SOL    HW171777   8.239  12.536   8.473
89960SOL    HW271778   8.277  12.541   8.327
89961SOL     OW71779  11.533  11.088  14.641
89961SOL    HW171780  11.575  11.170  14.667
89961SOL    HW271781  11.439  11.107  14.645
89962SOL     OW71782   9.332  10.568   3.386
89962SOL    HW171783   9.259  10.627   3.408
89962SOL    HW271784   9.318  10.547   3.294
89963SOL     OW71785   3.033   9.134  11.077
89963SOL    HW171786   3.106   9.191  11.101
89963SOL    HW271787   3.071   9.047  11.070
89964SOL     OW71788  13.685   0.072   7.814
89964SOL    HW171789  13.647  14.855   7.802
89964SOL    HW271790  13.663   0.118   7.732
89965SOL     OW71791   1.573   3.234   8.409
89965SOL    HW171792   1.610   3.188   8.334
89965SOL    HW271793   1.542   3.317   8.374
89966SOL     OW71794  11.414  11.591  14.023
89966SOL    HW171795  11.509  11.576  14.031
89966SOL    HW271796  11.404  11.685  14.032
89967SOL     OW71797   8.401  12.784   0.112
89967SOL    HW171798   8.433  12.746   0.194
89967SOL    HW271799   8.455  12.744   0.044
89968SOL     OW71800   0.634   2.292  10.014
89968SOL    HW171801   0.588   2.333   9.941
89968SOL    HW271802   0.576   2.307  10.090
89969SOL     OW71803   5.758   9.156   0.499
89969SOL    HW171804   5.835   9.174   0.553
89969SOL    HW271805   5.713   9.085   0.544
89970SOL     OW71806  14.002   2.199   9.208
89970SOL    HW171807  13.999   2.118   9.158
89970SOL    HW271808  13.938   2.256   9.166
89971SOL     OW71809   2.759   5.853   5.046
89971SOL    HW171810   2.698   5.912   5.090
89971SOL    HW271811   2.834   5.847   5.105
89972SOL     OW71812  11.840   5.400   5.877
89972SOL    HW171813  11.763   5.435   5.833
89972SOL    HW271814  11.815   5.310   5.901
89973SOL     OW71815  14.124   0.340   4.577
89973SOL    HW171816  14.126   0.430   4.544
89973SOL    HW271817  14.068   0.292   4.516
89974SOL     OW71818  14.484   2.939  13.262
89974SOL    HW171819  14.501   3.033  13.253
89974SOL    HW271820  14.389   2.931  13.256
89975SOL     OW71821   0.589  10.721   7.097
89975SOL    HW171822   0.495  10.703   7.101
89975SOL    HW271823   0.627  10.669   7.167
89976SOL     OW71824   1.427   7.550  12.675
89976SOL    HW171825   1.484   7.625  12.691
89976SOL    HW271826   1.486   7.482  12.643
89977SOL     OW71827   0.553   8.278  11.355
89977SOL    HW171828   0.547   8.257  11.448
89977SOL    HW271829   0.562   8.374  11.353
89978SOL     OW71830   7.273   2.204   0.105
89978SOL    HW171831   7.348   2.263   0.095
89978SOL    HW271832   7.312   2.119   0.124
89979SOL     OW71833   6.830   2.643   3.191
89979SOL    HW171834   6.923   2.664   3.192
89979SOL    HW271835   6.798   2.678   3.108
89980SOL     OW71836  14.635  11.524  10.809
89980SOL    HW171837  14.729  11.508  10.804
89980SOL    HW271838  14.622  11.570  10.892
89981SOL     OW71839   7.458   4.048   5.981
89981SOL    HW171840   7.525   4.102   6.024
89981SOL    HW271841   7.375   4.088   6.006
89982SOL     OW71842   9.517   0.668  11.920
89982SOL    HW171843   9.451   0.734  11.900
89982SOL    HW271844   9.479   0.616  11.991
89983SOL     OW71845   1.760   7.470   1.870
89983SOL    HW171846   1.673   7.451   1.835
89983SOL    HW271847   1.786   7.551   1.826
89984SOL     OW71848   7.200   8.093   0.557
89984SOL    HW171849   7.202   7.997   0.551
89984SOL    HW271850   7.269   8.114   0.620
89985SOL     OW71851  14.419   7.759   1.650
89985SOL    HW171852  14.497   7.812   1.632
89985SOL    HW271853  14.453   7.672   1.669
89986SOL     OW71854   8.494  10.458   5.155
89986SOL    HW171855   8.415  10.437   5.106
89986SOL    HW271856   8.499  10.554   5.151
89987SOL     OW71857  13.661   0.809   3.118
89987SOL    HW171858  13.706   0.728   3.095
89987SOL    HW271859  13.714   0.847   3.187
89988SOL     OW71860   6.896   4.430   6.206
89988SOL    HW171861   6.905   4.518   6.171
89988SOL    HW271862   6.982   4.390   6.193
89989SOL     OW71863   2.323  14.518  12.134
89989SOL    HW171864   2.340  14.430  12.169
89989SOL    HW271865   2.410  14.552  12.111
89990SOL     OW71866   1.884   6.038   3.019
89990SOL    HW171867   1.922   6.090   2.948
89990SOL    HW271868   1.953   5.976   3.044
89991SOL     OW71869   8.225  14.809   3.788
89991SOL    HW171870   8.292   0.001   3.759
89991SOL    HW271871   8.269  14.755   3.853
89992SOL     OW71872  11.898   9.960  11.706
89992SOL    HW171873  11.889   9.918  11.792
89992SOL    HW271874  11.820  10.015  11.697
89993SOL     OW71875  11.454   4.161   9.517
89993SOL    HW171876  11.429   4.151   9.425
89993SOL    HW271877  11.482   4.074   9.543
89994SOL     OW71878   4.421  14.696   1.109
89994SOL    HW171879   4.481  14.739   1.047
89994SOL    HW271880   4.478  14.661   1.177
89995SOL     OW71881   9.521   9.608   5.259
89995SOL    HW171882   9.430   9.639   5.253
89995SOL    HW271883   9.527   9.538   5.195
89996SOL     OW71884   9.464   1.308   1.679
89996SOL    HW171885   9.487   1.246   1.610
89996SOL    HW271886   9.470   1.256   1.760
89997SOL     OW71887  11.816   3.676   6.289
89997SOL    HW171888  11.910   3.691   6.301
89997SOL    HW271889  11.783   3.664   6.377
89998SOL     OW71890   7.482  14.571   2.435
89998SOL    HW171891   7.445  14.505   2.494
89998SOL    HW271892   7.531  14.520   2.370
89999SOL     OW71893   5.191   4.149  12.118
89999SOL    HW171894   5.286   4.152  12.106
89999SOL    HW271895   5.171   4.055  12.125
90000SOL     OW71896   2.921   1.587  12.622
90000SOL    HW171897   2.936   1.656  12.558
90000SOL    HW271898   2.954   1.623  12.704
90001SOL     OW71899  12.743   0.202   0.196
90001SOL    HW171900  12.650   0.186   0.212
90001SOL    HW271901  12.752   0.297   0.198
90002SOL     OW71902  10.133   5.456  12.125
90002SOL    HW171903  10.182   5.374  12.120
90002SOL    HW271904  10.177   5.514  12.063
90003SOL     OW71905  11.772  13.542   7.444
90003SOL    HW171906  11.802  13.598   7.516
90003SOL    HW271907  11.827  13.464   7.449
90004SOL     OW71908   9.516   5.652  14.052
90004SOL    HW171909   9.601   5.616  14.077
90004SOL    HW271910   9.467   5.658  14.134
90005SOL     OW71911   3.935   5.628  14.095
90005SOL    HW171912   3.842   5.653  14.097
90005SOL    HW271913   3.945   5.570  14.171
90006SOL     OW71914   4.391   1.720   4.186
90006SOL    HW171915   4.402   1.758   4.099
90006SOL    HW271916   4.410   1.791   4.247
90007SOL     OW71917  14.491   6.350   4.039
90007SOL    HW171918  14.449   6.278   4.086
90007SOL    HW271919  14.579   6.318   4.019
90008SOL     OW71920   8.486  12.971   1.620
90008SOL    HW171921   8.562  12.912   1.621
90008SOL    HW271922   8.491  13.014   1.535
90009SOL     OW71923   0.449   1.249  11.354
90009SOL    HW171924   0.399   1.329  11.366
90009SOL    HW271925   0.532   1.278  11.317
90010SOL     OW71926  13.500   6.762  14.784
90010SOL    HW171927  13.535   6.808  14.861
90010SOL    HW271928  13.575   6.751  14.726
90011SOL     OW71929   8.259   8.851   6.674
90011SOL    HW171930   8.184   8.798   6.701
90011SOL    HW271931   8.277   8.907   6.750
90012SOL     OW71932  14.649   0.003  14.457
90012SOL    HW171933  14.557  14.862  14.434
90012SOL    HW271934  14.657  14.830  14.542
90013SOL     OW71935  14.055   2.508  14.349
90013SOL    HW171936  14.032   2.596  14.380
90013SOL    HW271937  13.984   2.485  14.290
90014SOL     OW71938  10.676   6.828   5.278
90014SOL    HW171939  10.658   6.916   5.312
90014SOL    HW271940  10.706   6.779   5.354
90015SOL     OW71941   7.681  13.070   1.223
90015SOL    HW171942   7.771  13.093   1.197
90015SOL    HW271943   7.628  13.088   1.145
90016SOL     OW71944  13.254  12.616  10.790
90016SOL    HW171945  13.294  12.695  10.826
90016SOL    HW271946  13.161  12.639  10.780
90017SOL     OW71947   4.549  10.840  14.584
90017SOL    HW171948   4.465  10.875  14.612
90017SOL    HW271949   4.608  10.915  14.586
90018SOL     OW71950   2.941   4.958   7.874
90018SOL    HW171951   2.884   4.926   7.805
90018SOL    HW271952   2.903   5.042   7.900
90019SOL     OW71953   4.380   6.902  13.914
90019SOL    HW171954   4.340   6.849  13.844
90019SOL    HW271955   4.338   6.987  13.906
90020SOL     OW71956   6.590   7.531   6.840
90020SOL    HW171957   6.530   7.579   6.897
90020SOL    HW271958   6.544   7.526   6.756
90021SOL     OW71959   5.281   8.780   5.087
90021SOL    HW171960   5.338   8.739   5.151
90021SOL    HW271961   5.193   8.747   5.108
90022SOL     OW71962   4.128   1.663   4.436
90022SOL    HW171963   4.204   1.604   4.437
90022SOL    HW271964   4.126   1.700   4.524
90023SOL     OW71965   0.852  13.881   6.862
90023SOL    HW171966   0.896  13.851   6.941
90023SOL    HW271967   0.889  13.968   6.846
90024SOL     OW71968   4.021   3.896   8.197
90024SOL    HW171969   3.943   3.899   8.141
90024SOL    HW271970   4.076   3.828   8.158
90025SOL     OW71971  11.319   4.397  11.667
90025SOL    HW171972  11.317   4.370  11.759
90025SOL    HW271973  11.409   4.426  11.653
90026SOL     OW71974   4.592   8.419  11.812
90026SOL    HW171975   4.580   8.327  11.834
90026SOL    HW271976   4.667   8.420  11.752
90027SOL     OW71977   0.299   1.148  11.830
90027SOL    HW171978   0.262   1.204  11.898
90027SOL    HW271979   0.390   1.176  11.823
90028SOL     OW71980  10.363   4.627   5.838
90028SOL    HW171981  10.418   4.549   5.841
90028SOL    HW271982  10.342   4.638   5.745
90029SOL     OW71983   0.806   8.517   4.839
90029SOL    HW171984   0.888   8.469   4.828
90029SOL    HW271985   0.797   8.567   4.758
90030SOL     OW71986   5.854   4.462   2.570
90030SOL    HW171987   5.878   4.370   2.581
90030SOL    HW271988   5.922   4.498   2.513
90031SOL     OW71989   4.127   8.149   2.321
90031SOL    HW171990   4.087   8.227   2.282
90031SOL    HW271991   4.108   8.157   2.414
90032SOL     OW71992   9.429   1.414   1.307
90032SOL    HW171993   9.428   1.485   1.244
90032SOL    HW271994   9.521   1.404   1.331
90033SOL     OW71995   9.028   4.276   7.227
90033SOL    HW171996   9.012   4.311   7.140
90033SOL    HW271997   9.016   4.351   7.286
90034SOL     OW71998  12.059   4.573   8.312
90034SOL    HW171999  12.058   4.483   8.345
90034SOL    HW272000  11.972   4.607   8.332
90035SOL     OW72001  12.636   1.765  12.101
90035SOL    HW172002  12.701   1.746  12.169
90035SOL    HW272003  12.644   1.859  12.085
90036SOL     OW72004  12.104  10.335  10.141
90036SOL    HW172005  12.192  10.371  10.152
90036SOL    HW272006  12.093  10.325  10.047
90037SOL     OW72007   3.818  12.592   1.815
90037SOL    HW172008   3.889  12.533   1.789
90037SOL    HW272009   3.739  12.538   1.810
90038SOL     OW72010  10.367  11.916   7.058
90038SOL    HW172011  10.430  11.859   7.103
90038SOL    HW272012  10.343  11.867   6.979
90039SOL     OW72013  10.894  11.977   5.025
90039SOL    HW172014  10.967  11.966   4.963
90039SOL    HW272015  10.840  11.899   5.013
90040SOL     OW72016   9.361  14.687  11.367
90040SOL    HW172017   9.364  14.704  11.273
90040SOL    HW272018   9.413  14.757  11.406
90041SOL     OW72019   0.621  11.537   4.174
90041SOL    HW172020   0.677  11.606   4.140
90041SOL    HW272021   0.673  11.458   4.167
90042SOL     OW72022   9.660   0.262  12.615
90042SOL    HW172023   9.578   0.305  12.640
90042SOL    HW272024   9.640   0.169  12.619
90043SOL     OW72025   2.721   4.825   7.735
90043SOL    HW172026   2.644   4.877   7.758
90043SOL    HW272027   2.708   4.741   7.779
90044SOL     OW72028   4.581   6.749  12.270
90044SOL    HW172029   4.571   6.693  12.193
90044SOL    HW272030   4.491   6.772  12.294
90045SOL     OW72031   4.216   3.251  10.969
90045SOL    HW172032   4.310   3.256  10.986
90045SOL    HW272033   4.190   3.341  10.950
90046SOL     OW72034  11.204   2.507   4.799
90046SOL    HW172035  11.121   2.554   4.799
90046SOL    HW272036  11.234   2.512   4.708
90047SOL     OW72037   8.878  12.756   0.190
90047SOL    HW172038   8.822  12.832   0.181
90047SOL    HW272039   8.966  12.792   0.201
90048SOL     OW72040   7.504   6.177   0.117
90048SOL    HW172041   7.568   6.113   0.147
90048SOL    HW272042   7.458   6.204   0.197
90049SOL     OW72043   7.704   3.583  11.661
90049SOL    HW172044   7.646   3.582  11.585
90049SOL    HW272045   7.792   3.594  11.623
90050SOL     OW72046   0.505  12.345   3.354
90050SOL    HW172047   0.450  12.284   3.404
90050SOL    HW272048   0.578  12.365   3.412
90051SOL     OW72049   4.975   2.865   0.459
90051SOL    HW172050   5.062   2.904   0.469
90051SOL    HW272051   4.929   2.888   0.541
90052SOL     OW72052   9.095   6.363  14.157
90052SOL    HW172053   9.121   6.435  14.215
90052SOL    HW272054   9.167   6.355  14.095
90053SOL     OW72055   8.179   6.875  13.745
90053SOL    HW172056   8.154   6.917  13.662
90053SOL    HW272057   8.256   6.822  13.722
90054SOL     OW72058   8.656  12.767  14.382
90054SOL    HW172059   8.635  12.860  14.375
90054SOL    HW272060   8.632  12.743  14.471
90055SOL     OW72061   0.961   8.376   3.506
90055SOL    HW172062   0.872   8.411   3.501
90055SOL    HW272063   0.974   8.355   3.598
90056SOL     OW72064   2.905  10.353  10.772
90056SOL    HW172065   2.925  10.445  10.754
90056SOL    HW272066   2.933  10.307  10.693
90057SOL     OW72067   2.518   2.351  11.900
90057SOL    HW172068   2.525   2.371  11.993
90057SOL    HW272069   2.527   2.255  11.896
90058SOL     OW72070  13.221   0.925   1.808
90058SOL    HW172071  13.281   0.999   1.801
90058SOL    HW272072  13.231   0.895   1.899
90059SOL     OW72073   5.230   3.231   1.066
90059SOL    HW172074   5.316   3.272   1.063
90059SOL    HW272075   5.207   3.228   1.159
90060SOL     OW72076  14.254   3.154   9.804
90060SOL    HW172077  14.262   3.221   9.736
90060SOL    HW272078  14.163   3.159   9.832
90061SOL     OW72079   4.893  10.229   6.047
90061SOL    HW172080   4.851  10.302   6.092
90061SOL    HW272081   4.862  10.151   6.094
90062SOL     OW72082   6.146  10.320  10.789
90062SOL    HW172083   6.129  10.388  10.855
90062SOL    HW272084   6.124  10.362  10.706
90063SOL     OW72085   1.972   0.650  14.137
90063SOL    HW172086   1.971   0.575  14.078
90063SOL    HW272087   2.025   0.622  14.212
90064SOL     OW72088  13.226   4.830   6.176
90064SOL    HW172089  13.313   4.856   6.147
90064SOL    HW272090  13.174   4.826   6.095
90065SOL     OW72091  10.817   7.737   2.864
90065SOL    HW172092  10.775   7.731   2.950
90065SOL    HW272093  10.748   7.710   2.802
90066SOL     OW72094   4.787   1.327  10.470
90066SOL    HW172095   4.758   1.413  10.499
90066SOL    HW272096   4.883   1.335  10.467
90067SOL     OW72097   5.701  13.831   5.084
90067SOL    HW172098   5.671  13.914   5.119
90067SOL    HW272099   5.780  13.810   5.134
90068SOL     OW72100   5.385   5.695   0.142
90068SOL    HW172101   5.461   5.742   0.176
90068SOL    HW272102   5.315   5.761   0.141
90069SOL     OW72103  13.655   4.729   9.192
90069SOL    HW172104  13.719   4.660   9.211
90069SOL    HW272105  13.674   4.755   9.102
90070SOL     OW72106  11.867  10.244  10.398
90070SOL    HW172107  11.906  10.173  10.346
90070SOL    HW272108  11.829  10.200  10.474
90071SOL     OW72109  11.999   9.134   0.283
90071SOL    HW172110  11.930   9.194   0.313
90071SOL    HW272111  12.060   9.129   0.357
90072SOL     OW72112   6.241  11.364   2.859
90072SOL    HW172113   6.283  11.449   2.851
90072SOL    HW272114   6.156  11.383   2.900
90073SOL     OW72115  12.196   8.074  10.151
90073SOL    HW172116  12.243   8.111  10.076
90073SOL    HW272117  12.108   8.109  10.144
90074SOL     OW72118   9.440   9.129   5.220
90074SOL    HW172119   9.383   9.082   5.280
90074SOL    HW272120   9.521   9.143   5.269
90075SOL     OW72121  13.652   1.917  10.240
90075SOL    HW172122  13.727   1.875  10.282
90075SOL    HW272123  13.690   1.971  10.171
90076SOL     OW72124   6.906  11.944   6.878
90076SOL    HW172125   6.953  11.861   6.886
90076SOL    HW272126   6.950  12.002   6.941
90077SOL     OW72127   8.928  13.194  10.824
90077SOL    HW172128   8.936  13.180  10.729
90077SOL    HW272129   8.847  13.244  10.834
90078SOL     OW72130   6.820   6.467   8.951
90078SOL    HW172131   6.757   6.537   8.933
90078SOL    HW272132   6.903   6.512   8.965
90079SOL     OW72133   5.492  12.419   9.768
90079SOL    HW172134   5.570  12.378   9.805
90079SOL    HW272135   5.426  12.351   9.770
90080SOL     OW72136   0.736   7.488   3.436
90080SOL    HW172137   0.646   7.474   3.466
90080SOL    HW272138   0.788   7.425   3.487
90081SOL     OW72139  13.586  13.875   3.446
90081SOL    HW172140  13.635  13.955   3.464
90081SOL    HW272141  13.498  13.893   3.478
90082SOL     OW72142   4.801   9.949   3.461
90082SOL    HW172143   4.870   9.988   3.406
90082SOL    HW272144   4.848   9.894   3.523
90083SOL     OW72145   3.626  10.723   2.232
90083SOL    HW172146   3.673  10.653   2.277
90083SOL    HW272147   3.689  10.757   2.168
90084SOL     OW72148  12.276   6.409   6.585
90084SOL    HW172149  12.354   6.404   6.529
90084SOL    HW272150  12.271   6.501   6.610
90085SOL     OW72151  14.750  11.350  14.146
90085SOL    HW172152  14.688  11.287  14.182
90085SOL    HW272153  14.818  11.296  14.105
90086SOL     OW72154   9.432   5.673   2.280
90086SOL    HW172155   9.498   5.715   2.335
90086SOL    HW272156   9.349   5.685   2.327
90087SOL     OW72157  11.255  14.602  12.904
90087SOL    HW172158  11.308  14.635  12.831
90087SOL    HW272159  11.254  14.674  12.967
90088SOL     OW72160   0.740   8.883   6.928
90088SOL    HW172161   0.703   8.801   6.896
90088SOL    HW272162   0.810   8.904   6.867
90089SOL     OW72163  12.319   4.898   5.361
90089SOL    HW172164  12.339   4.980   5.316
90089SOL    HW272165  12.398   4.845   5.351
90090SOL     OW72166   8.960  11.661  11.591
90090SOL    HW172167   9.053  11.660  11.612
90090SOL    HW272168   8.919  11.700  11.668
90091SOL     OW72169   4.243   3.058   4.757
90091SOL    HW172170   4.176   3.071   4.689
90091SOL    HW272171   4.197   3.012   4.827
90092SOL     OW72172   3.557   9.697   0.844
90092SOL    HW172173   3.613   9.722   0.771
90092SOL    HW272174   3.531   9.780   0.885
90093SOL     OW72175  13.122   9.417  14.416
90093SOL    HW172176  13.081   9.501  14.399
90093SOL    HW272177  13.212   9.428  14.386
90094SOL     OW72178   6.656   6.766  10.787
90094SOL    HW172179   6.699   6.815  10.717
90094SOL    HW272180   6.590   6.826  10.821
90095SOL     OW72181  10.531  10.586  13.563
90095SOL    HW172182  10.570  10.581  13.476
90095SOL    HW272183  10.438  10.601  13.547
90096SOL     OW72184  14.690   9.788   7.211
90096SOL    HW172185  14.631   9.736   7.266
90096SOL    HW272186  14.695   9.872   7.255
90097SOL     OW72187   0.610   1.470  13.446
90097SOL    HW172188   0.680   1.507  13.500
90097SOL    HW272189   0.558   1.417  13.506
90098SOL     OW72190   8.783   0.201   0.014
90098SOL    HW172191   8.815   0.218   0.103
90098SOL    HW272192   8.734   0.280  14.861
90099SOL     OW72193  11.611  14.751  11.894
90099SOL    HW172194  11.646  14.792  11.973
90099SOL    HW272195  11.625  14.816  11.825
90100SOL     OW72196   3.688   2.481   8.740
90100SOL    HW172197   3.727   2.568   8.754
90100SOL    HW272198   3.623   2.495   8.671
90101SOL     OW72199  11.456   2.758   3.372
90101SOL    HW172200  11.417   2.783   3.456
90101SOL    HW272201  11.436   2.831   3.314
90102SOL     OW72202   6.153   7.659  13.482
90102SOL    HW172203   6.234   7.703  13.506
90102SOL    HW272204   6.181   7.592  13.419
90103SOL     OW72205   2.435   6.992   4.015
90103SOL    HW172206   2.439   7.025   3.925
90103SOL    HW272207   2.516   7.025   4.056
90104SOL     OW72208   1.045   3.952   6.627
90104SOL    HW172209   1.089   3.888   6.683
90104SOL    HW272210   0.960   3.912   6.607
90105SOL     OW72211  13.594  14.601   9.566
90105SOL    HW172212  13.634  14.656   9.634
90105SOL    HW272213  13.551  14.531   9.614
90106SOL     OW72214   5.848  11.566  11.492
90106SOL    HW172215   5.777  11.511  11.459
90106SOL    HW272216   5.808  11.652  11.506
90107SOL     OW72217   2.533  10.179   0.543
90107SOL    HW172218   2.619  10.140   0.557
90107SOL    HW272219   2.551  10.263   0.502
90108SOL     OW72220   8.564   8.869   2.496
90108SOL    HW172221   8.584   8.948   2.547
90108SOL    HW272222   8.542   8.803   2.562
90109SOL     OW72223   4.098   0.595   0.247
90109SOL    HW172224   4.177   0.593   0.193
90109SOL    HW272225   4.119   0.656   0.318
90110SOL     OW72226  10.863   7.286   9.208
90110SOL    HW172227  10.782   7.313   9.252
90110SOL    HW272228  10.923   7.265   9.280
90111SOL     OW72229  11.831   6.842   9.736
90111SOL    HW172230  11.837   6.775   9.668
90111SOL    HW272231  11.902   6.903   9.716
90112SOL     OW72232  10.352   6.322  11.216
90112SOL    HW172233  10.442   6.292  11.205
90112SOL    HW272234  10.360   6.410  11.252
90113SOL     OW72235   0.450   8.602  12.593
90113SOL    HW172236   0.514   8.555  12.646
90113SOL    HW272237   0.495   8.682  12.567
90114SOL     OW72238   4.512   6.286   7.904
90114SOL    HW172239   4.589   6.262   7.851
90114SOL    HW272240   4.543   6.357   7.960
90115SOL     OW72241  10.619   1.230   8.635
90115SOL    HW172242  10.537   1.276   8.651
90115SOL    HW272243  10.658   1.276   8.561
90116SOL     OW72244   7.395   7.573   9.297
90116SOL    HW172245   7.421   7.660   9.328
90116SOL    HW272246   7.324   7.589   9.236
90117SOL     OW72247   3.851   4.441   0.269
90117SOL    HW172248   3.884   4.374   0.328
90117SOL    HW272249   3.804   4.502   0.325
90118SOL     OW72250   7.488  11.961   8.108
90118SOL    HW172251   7.417  12.026   8.110
90118SOL    HW272252   7.565  12.010   8.079
90119SOL     OW72253   0.749   5.501   7.165
90119SOL    HW172254   0.728   5.593   7.179
90119SOL    HW272255   0.777   5.469   7.251
90120SOL     OW72256   9.530  12.235   4.279
90120SOL    HW172257   9.457  12.249   4.339
90120SOL    HW272258   9.601  12.204   4.335
90121SOL     OW72259   8.978   2.138  11.402
90121SOL    HW172260   8.938   2.079  11.467
90121SOL    HW272261   9.038   2.082  11.352
90122SOL     OW72262   8.874  14.204   5.390
90122SOL    HW172263   8.813  14.178   5.459
90122SOL    HW272264   8.859  14.141   5.319
90123SOL     OW72265  11.262  13.029   9.522
90123SOL    HW172266  11.244  13.113   9.480
90123SOL    HW272267  11.225  12.963   9.463
90124SOL     OW72268   5.526  14.095   4.164
90124SOL    HW172269   5.577  14.025   4.124
90124SOL    HW272270   5.494  14.058   4.246
90125SOL     OW72271   9.239   1.285   1.434
90125SOL    HW172272   9.286   1.206   1.459
90125SOL    HW272273   9.304   1.337   1.386
90126SOL     OW72274   7.127  13.951   7.515
90126SOL    HW172275   7.196  13.994   7.565
90126SOL    HW272276   7.141  13.857   7.529
90127SOL     OW72277   2.142   4.260  11.337
90127SOL    HW172278   2.181   4.321  11.274
90127SOL    HW272279   2.065   4.225  11.292
90128SOL     OW72280  11.789   0.235  12.608
90128SOL    HW172281  11.713   0.265  12.658
90128SOL    HW272282  11.797   0.299  12.536
90129SOL     OW72283   9.817   3.893   4.215
90129SOL    HW172284   9.908   3.866   4.198
90129SOL    HW272285   9.811   3.897   4.311
90130SOL     OW72286   8.484   3.478  11.906
90130SOL    HW172287   8.390   3.474  11.893
90130SOL    HW272288   8.520   3.417  11.840
90131SOL     OW72289  10.313   9.783   2.439
90131SOL    HW172290  10.279   9.872   2.427
90131SOL    HW272291  10.340   9.755   2.352
90132SOL     OW72292   1.122  12.353  14.820
90132SOL    HW172293   1.120  12.317  14.731
90132SOL    HW272294   1.180  12.429  14.814
90133SOL     OW72295   6.120   0.777   9.658
90133SOL    HW172296   6.125   0.766   9.563
90133SOL    HW272297   6.027   0.771   9.678
90134SOL     OW72298  13.549  10.787   3.285
90134SOL    HW172299  13.489  10.714   3.300
90134SOL    HW272300  13.533  10.814   3.195
90135SOL     OW72301   6.780  12.203   4.834
90135SOL    HW172302   6.740  12.173   4.752
90135SOL    HW272303   6.707  12.240   4.884
90136SOL     OW72304  13.460  11.669   7.911
90136SOL    HW172305  13.520  11.743   7.923
90136SOL    HW272306  13.383  11.692   7.963
90137SOL     OW72307   6.245   8.440   2.078
90137SOL    HW172308   6.192   8.503   2.029
90137SOL    HW272309   6.208   8.443   2.167
90138SOL     OW72310  12.235   7.850   7.996
90138SOL    HW172311  12.278   7.780   7.946
90138SOL    HW272312  12.302   7.919   8.002
90139SOL     OW72313   6.737  12.337   4.180
90139SOL    HW172314   6.708  12.304   4.094
90139SOL    HW272315   6.776  12.423   4.160
90140SOL     OW72316   4.965   8.753  10.358
90140SOL    HW172317   5.044   8.701  10.345
90140SOL    HW272318   4.964   8.773  10.452
90141SOL     OW72319   7.741   4.293   5.279
90141SOL    HW172320   7.764   4.385   5.266
90141SOL    HW272321   7.742   4.281   5.374
90142SOL     OW72322   7.341   1.993  12.351
90142SOL    HW172323   7.306   1.922  12.405
90142SOL    HW272324   7.379   1.949  12.274
90143SOL     OW72325   1.628  14.459   7.688
90143SOL    HW172326   1.636  14.364   7.697
90143SOL    HW272327   1.575  14.470   7.609
90144SOL     OW72328   1.225  11.891  10.962
90144SOL    HW172329   1.260  11.802  10.951
90144SOL    HW272330   1.151  11.895  10.900
90145SOL     OW72331   6.406  10.428   6.149
90145SOL    HW172332   6.474  10.444   6.214
90145SOL    HW272333   6.447  10.452   6.065
90146SOL     OW72334   0.482   6.995   7.784
90146SOL    HW172335   0.412   6.931   7.770
90146SOL    HW272336   0.507   7.023   7.696
90147SOL     OW72337   1.263  14.423  11.649
90147SOL    HW172338   1.340  14.416  11.705
90147SOL    HW272339   1.291  14.386  11.565
90148SOL     OW72340   1.435  10.458  14.248
90148SOL    HW172341   1.348  10.454  14.288
90148SOL    HW272342   1.495  10.434  14.318
90149SOL     OW72343   0.617  14.535  13.568
90149SOL    HW172344   0.680  14.560  13.636
90149SOL    HW272345   0.660  14.559  13.486
90150SOL     OW72346   7.384   6.035   8.752
90150SOL    HW172347   7.290   6.052   8.742
90150SOL    HW272348   7.394   5.941   8.739
90151SOL     OW72349  13.229   4.594   0.236
90151SOL    HW172350  13.154   4.597   0.295
90151SOL    HW272351  13.270   4.510   0.253
90152SOL     OW72352   4.577   5.808   2.857
90152SOL    HW172353   4.598   5.859   2.779
90152SOL    HW272354   4.662   5.781   2.892
90153SOL     OW72355   0.204   5.244   8.225
90153SOL    HW172356   0.223   5.332   8.257
90153SOL    HW272357   0.281   5.220   8.174
90154SOL     OW72358   9.165   9.208   7.463
90154SOL    HW172359   9.227   9.201   7.535
90154SOL    HW272360   9.082   9.177   7.499
90155SOL     OW72361  13.137   2.763   8.484
90155SOL    HW172362  13.101   2.828   8.423
90155SOL    HW272363  13.072   2.758   8.554
90156SOL     OW72364   2.967  11.419   4.521
90156SOL    HW172365   3.021  11.342   4.537
90156SOL    HW272366   2.925  11.401   4.436
90157SOL     OW72367  11.642  10.824   2.775
90157SOL    HW172368  11.728  10.865   2.759
90157SOL    HW272369  11.628  10.768   2.699
90158SOL     OW72370   6.239   9.062   1.604
90158SOL    HW172371   6.205   9.035   1.690
90158SOL    HW272372   6.308   9.125   1.625
90159SOL     OW72373   2.718   1.110   5.127
90159SOL    HW172374   2.749   1.156   5.204
90159SOL    HW272375   2.797   1.070   5.089
90160SOL     OW72376   5.190   3.971  13.206
90160SOL    HW172377   5.103   3.987  13.167
90160SOL    HW272378   5.199   4.039  13.273
90161SOL     OW72379   9.044   2.888   8.613
90161SOL    HW172380   9.072   2.892   8.705
90161SOL    HW272381   8.970   2.948   8.607
90162SOL     OW72382  12.966  12.325  11.607
90162SOL    HW172383  12.948  12.232  11.623
90162SOL    HW272384  13.011  12.354  11.686
90163SOL     OW72385   6.518   5.791   7.547
90163SOL    HW172386   6.581   5.806   7.476
90163SOL    HW272387   6.450   5.737   7.508
90164SOL     OW72388  10.429   6.779   1.808
90164SOL    HW172389  10.405   6.795   1.899
90164SOL    HW272390  10.465   6.863   1.778
90165SOL     OW72391   7.983   2.218   2.792
90165SOL    HW172392   8.064   2.239   2.839
90165SOL    HW272393   7.951   2.302   2.761
90166SOL     OW72394  13.878   3.707   4.698
90166SOL    HW172395  13.826   3.785   4.679
90166SOL    HW272396  13.949   3.708   4.634
90167SOL     OW72397  13.334   8.211   3.158
90167SOL    HW172398  13.388   8.286   3.134
90167SOL    HW272399  13.343   8.150   3.084
90168SOL     OW72400   5.146   6.172   1.819
90168SOL    HW172401   5.192   6.116   1.756
90168SOL    HW272402   5.199   6.168   1.898
90169SOL     OW72403   2.927  13.427  10.003
90169SOL    HW172404   2.924  13.409   9.909
90169SOL    HW272405   2.862  13.496  10.017
90170SOL     OW72406  11.912   6.554  10.829
90170SOL    HW172407  11.969   6.500  10.884
90170SOL    HW272408  11.831   6.562  10.879
90171SOL     OW72409   4.396   7.408  11.149
90171SOL    HW172410   4.371   7.315  11.153
90171SOL    HW272411   4.446   7.422  11.230
90172SOL     OW72412   2.673  13.081   2.876
90172SOL    HW172413   2.642  13.032   2.953
90172SOL    HW272414   2.700  13.013   2.814
90173SOL     OW72415  14.670   0.908  12.934
90173SOL    HW172416  14.637   0.933  13.020
90173SOL    HW272417  14.643   0.979  12.876
90174SOL     OW72418   4.157   1.843   0.291
90174SOL    HW172419   4.186   1.752   0.297
90174SOL    HW272420   4.136   1.855   0.198
90175SOL     OW72421   8.700   1.927   7.948
90175SOL    HW172422   8.615   1.971   7.950
90175SOL    HW272423   8.760   1.986   7.993
90176SOL     OW72424  11.330   5.443   5.131
90176SOL    HW172425  11.327   5.443   5.035
90176SOL    HW272426  11.244   5.411   5.158
90177SOL     OW72427  13.637   2.345   7.819
90177SOL    HW172428  13.668   2.347   7.729
90177SOL    HW272429  13.621   2.437   7.842
90178SOL     OW72430  10.211  10.875  12.634
90178SOL    HW172431  10.124  10.862  12.672
90178SOL    HW272432  10.251  10.942  12.690
90179SOL     OW72433   6.129   0.750   9.380
90179SOL    HW172434   6.110   0.739   9.287
90179SOL    HW272435   6.119   0.845   9.394
90180SOL     OW72436   5.671   5.539  11.012
90180SOL    HW172437   5.695   5.622  10.970
90180SOL    HW272438   5.650   5.480  10.940
90181SOL     OW72439  11.488   9.309   3.405
90181SOL    HW172440  11.510   9.395   3.368
90181SOL    HW272441  11.552   9.250   3.366
90182SOL     OW72442   1.918   0.998   6.444
90182SOL    HW172443   1.829   1.013   6.413
90182SOL    HW272444   1.967   0.973   6.365
90183SOL     OW72445   4.796   0.319   4.171
90183SOL    HW172446   4.732   0.262   4.214
90183SOL    HW272447   4.878   0.269   4.173
90184SOL     OW72448  14.375   5.864   9.955
90184SOL    HW172449  14.435   5.815   9.899
90184SOL    HW272450  14.330   5.797  10.007
90185SOL     OW72451   8.716   0.335   6.384
90185SOL    HW172452   8.788   0.273   6.398
90185SOL    HW272453   8.759   0.419   6.375
90186SOL     OW72454   5.413   6.069   2.367
90186SOL    HW172455   5.320   6.049   2.378
90186SOL    HW272456   5.414   6.135   2.298
90187SOL     OW72457  12.140  10.841   6.005
90187SOL    HW172458  12.146  10.755   6.048
90187SOL    HW272459  12.076  10.889   6.057
90188SOL     OW72460   2.895   6.512  13.164
90188SOL    HW172461   2.895   6.533  13.071
90188SOL    HW272462   2.940   6.428  13.170
90189SOL     OW72463   2.815   5.495   1.988
90189SOL    HW172464   2.769   5.412   1.998
90189SOL    HW272465   2.809   5.537   2.074
90190SOL     OW72466   2.398  12.146   4.931
90190SOL    HW172467   2.462  12.193   4.984
90190SOL    HW272468   2.342  12.214   4.894
90191SOL     OW72469   1.378   7.359  10.034
90191SOL    HW172470   1.462   7.325  10.004
90191SOL    HW272471   1.343   7.407   9.959
90192SOL     OW72472  14.487   7.470  11.007
90192SOL    HW172473  14.520   7.555  11.036
90192SOL    HW272474  14.392   7.477  11.013
90193SOL     OW72475   2.811  13.037  12.959
90193SOL    HW172476   2.800  12.944  12.939
90193SOL    HW272477   2.829  13.078  12.875
90194SOL     OW72478   4.010   2.392  13.174
90194SOL    HW172479   3.975   2.397  13.263
90194SOL    HW272480   3.955   2.328  13.130
90195SOL     OW72481   1.186   4.296   0.711
90195SOL    HW172482   1.272   4.282   0.750
90195SOL    HW272483   1.190   4.251   0.626
90196SOL     OW72484  11.567  10.348  12.868
90196SOL    HW172485  11.661  10.363  12.863
90196SOL    HW272486  11.538  10.344  12.776
90197SOL     OW72487   7.354   6.081  12.447
90197SOL    HW172488   7.305   6.089  12.365
90197SOL    HW272489   7.314   6.145  12.505
90198SOL     OW72490   6.559   4.011  11.619
90198SOL    HW172491   6.649   3.979  11.609
90198SOL    HW272492   6.504   3.939  11.589
90199SOL     OW72493   8.677  11.911   0.951
90199SOL    HW172494   8.659  11.985   0.893
90199SOL    HW272495   8.669  11.947   1.039
90200SOL     OW72496   2.991   4.697   2.743
90200SOL    HW172497   2.937   4.752   2.800
90200SOL    HW272498   3.021   4.626   2.801
90201SOL     OW72499   5.770   5.964   9.604
90201SOL    HW172500   5.801   5.907   9.533
90201SOL    HW272501   5.702   6.017   9.563
90202SOL     OW72502  11.247   4.157  12.540
90202SOL    HW172503  11.296   4.239  12.538
90202SOL    HW272504  11.293   4.103  12.604
90203SOL     OW72505  12.539   3.006  11.779
90203SOL    HW172506  12.522   3.052  11.861
90203SOL    HW272507  12.482   3.048  11.715
90204SOL     OW72508   6.247  14.309   7.057
90204SOL    HW172509   6.234  14.389   7.005
90204SOL    HW272510   6.300  14.338   7.131
90205SOL     OW72511   4.469   4.032   1.444
90205SOL    HW172512   4.408   4.105   1.431
90205SOL    HW272513   4.515   4.054   1.525
90206SOL     OW72514   4.225   0.995   3.933
90206SOL    HW172515   4.223   1.084   3.898
90206SOL    HW272516   4.134   0.973   3.950
90207SOL     OW72517  11.971  14.845  12.939
90207SOL    HW172518  11.973   0.041  13.009
90207SOL    HW272519  11.880  14.817  12.935
90208SOL     OW72520   1.371   6.302   0.434
90208SOL    HW172521   1.391   6.357   0.359
90208SOL    HW272522   1.354   6.215   0.396
90209SOL     OW72523   4.523   8.474   5.118
90209SOL    HW172524   4.516   8.444   5.208
90209SOL    HW272525   4.615   8.499   5.108
90210SOL     OW72526   6.288   0.335   1.394
90210SOL    HW172527   6.333   0.370   1.471
90210SOL    HW272528   6.265   0.412   1.343
90211SOL     OW72529   1.196   2.939   5.670
90211SOL    HW172530   1.238   2.871   5.723
90211SOL    HW272531   1.263   2.964   5.606
90212SOL     OW72532  10.319  10.691   0.454
90212SOL    HW172533  10.385  10.684   0.384
90212SOL    HW272534  10.369  10.678   0.535
90213SOL     OW72535  14.664   0.465   6.478
90213SOL    HW172536  14.631   0.541   6.527
90213SOL    HW272537  14.752   0.491   6.451
90214SOL     OW72538   1.603  14.739  11.535
90214SOL    HW172539   1.558  14.728  11.619
90214SOL    HW272540   1.618  14.833  11.528
90215SOL     OW72541   0.075   1.428   0.574
90215SOL    HW172542   0.132   1.460   0.504
90215SOL    HW272543   0.009   1.376   0.529
90216SOL     OW72544  13.630   5.030  11.670
90216SOL    HW172545  13.677   5.114  11.668
90216SOL    HW272546  13.538   5.053  11.655
90217SOL     OW72547  12.595   2.496   9.755
90217SOL    HW172548  12.638   2.423   9.710
90217SOL    HW272549  12.543   2.454   9.824
90218SOL     OW72550   3.199   9.473  11.998
90218SOL    HW172551   3.261   9.419  12.046
90218SOL    HW272552   3.125   9.415  11.980
90219SOL     OW72553   9.609  14.535  14.442
90219SOL    HW172554   9.537  14.496  14.492
90219SOL    HW272555   9.658  14.585  14.507
90220SOL     OW72556  14.437  12.659   5.001
90220SOL    HW172557  14.417  12.752   4.988
90220SOL    HW272558  14.364  12.613   4.960
90221SOL     OW72559   8.953   0.304   0.275
90221SOL    HW172560   8.880   0.342   0.323
90221SOL    HW272561   9.029   0.356   0.303
90222SOL     OW72562  12.337   1.238   1.053
90222SOL    HW172563  12.350   1.182   1.130
90222SOL    HW272564  12.415   1.292   1.049
90223SOL     OW72565  12.292  13.884  10.645
90223SOL    HW172566  12.234  13.827  10.695
90223SOL    HW272567  12.332  13.826  10.579
90224SOL     OW72568   8.938  14.408  11.418
90224SOL    HW172569   8.961  14.380  11.506
90224SOL    HW272570   8.993  14.484  11.401
90225SOL     OW72571   5.242  10.519   2.021
90225SOL    HW172572   5.262  10.550   1.933
90225SOL    HW272573   5.163  10.466   2.011
90226SOL     OW72574  12.644  13.362  11.530
90226SOL    HW172575  12.625  13.456  11.532
90226SOL    HW272576  12.723  13.354  11.478
90227SOL     OW72577   7.976  11.131   0.558
90227SOL    HW172578   7.927  11.049   0.548
90227SOL    HW272579   7.922  11.196   0.514
90228SOL     OW72580   1.672   6.367   8.646
90228SOL    HW172581   1.717   6.392   8.727
90228SOL    HW272582   1.582   6.348   8.674
90229SOL     OW72583   0.436  10.522  10.851
90229SOL    HW172584   0.440  10.427  10.861
90229SOL    HW272585   0.403  10.553  10.935
90230SOL     OW72586   3.793   6.636   6.836
90230SOL    HW172587   3.867   6.689   6.807
90230SOL    HW272588   3.819   6.546   6.817
90231SOL     OW72589   5.786   2.169   2.897
90231SOL    HW172590   5.850   2.232   2.864
90231SOL    HW272591   5.748   2.211   2.974
90232SOL     OW72592  10.686   1.070  12.432
90232SOL    HW172593  10.644   1.140  12.481
90232SOL    HW272594  10.704   1.109  12.346
90233SOL     OW72595  10.419  12.105   6.191
90233SOL    HW172596  10.476  12.030   6.207
90233SOL    HW272597  10.478  12.180   6.184
90234SOL     OW72598  13.456   5.610   6.377
90234SOL    HW172599  13.455   5.634   6.284
90234SOL    HW272600  13.372   5.642   6.410
90235SOL     OW72601   1.420  13.986   6.279
90235SOL    HW172602   1.389  13.919   6.219
90235SOL    HW272603   1.496  13.947   6.323
90236SOL     OW72604   9.634   7.479   4.692
90236SOL    HW172605   9.575   7.548   4.721
90236SOL    HW272606   9.711   7.488   4.748
90237SOL     OW72607   3.303  13.566   3.871
90237SOL    HW172608   3.252  13.518   3.937
90237SOL    HW272609   3.382  13.592   3.917
90238SOL     OW72610   8.684   4.692   9.368
90238SOL    HW172611   8.623   4.637   9.418
90238SOL    HW272612   8.701   4.642   9.288
90239SOL     OW72613   2.082   8.603  11.539
90239SOL    HW172614   2.037   8.687  11.547
90239SOL    HW272615   2.047   8.550  11.610
90240SOL     OW72616   0.192   3.582  13.669
90240SOL    HW172617   0.253   3.574  13.742
90240SOL    HW272618   0.138   3.504  13.674
90241SOL     OW72619   8.589   0.471   9.121
90241SOL    HW172620   8.549   0.434   9.200
90241SOL    HW272621   8.641   0.400   9.084
90242SOL     OW72622   9.157  12.346   8.740
90242SOL    HW172623   9.190  12.302   8.819
90242SOL    HW272624   9.202  12.301   8.668
90243SOL     OW72625   0.637   7.229  10.254
90243SOL    HW172626   0.579   7.286  10.204
90243SOL    HW272627   0.698   7.289  10.297
90244SOL     OW72628   9.522   8.187   1.136
90244SOL    HW172629   9.552   8.112   1.084
90244SOL    HW272630   9.461   8.148   1.199
90245SOL     OW72631  11.689  13.139   5.930
90245SOL    HW172632  11.647  13.053   5.930
90245SOL    HW272633  11.781  13.120   5.944
90246SOL     OW72634   7.981   9.804  11.613
90246SOL    HW172635   8.046   9.863  11.650
90246SOL    HW272636   7.897   9.837  11.645
90247SOL     OW72637   0.670   7.313   7.790
90247SOL    HW172638   0.634   7.305   7.702
90247SOL    HW272639   0.596   7.339   7.845
90248SOL     OW72640   1.947  14.414   9.140
90248SOL    HW172641   1.873  14.366   9.105
90248SOL    HW272642   1.998  14.440   9.063
90249SOL     OW72643   8.143   3.193   8.014
90249SOL    HW172644   8.054   3.183   8.047
90249SOL    HW272645   8.142   3.276   7.966
90250SOL     OW72646   8.791  11.216   8.695
90250SOL    HW172647   8.714  11.174   8.733
90250SOL    HW272648   8.759  11.300   8.662
90251SOL     OW72649   9.004   7.212  13.555
90251SOL    HW172650   8.927   7.269  13.547
90251SOL    HW272651   8.975   7.141  13.613
90252SOL     OW72652   9.754   7.258  10.240
90252SOL    HW172653   9.726   7.207  10.164
90252SOL    HW272654   9.849   7.265  10.230
90253SOL     OW72655   2.008   0.225  11.648
90253SOL    HW172656   2.024   0.139  11.611
90253SOL    HW272657   2.049   0.286  11.586
90254SOL     OW72658  14.362   2.712  13.746
90254SOL    HW172659  14.402   2.784  13.698
90254SOL    HW272660  14.416   2.701  13.824
90255SOL     OW72661   2.896   5.041   0.176
90255SOL    HW172662   2.847   5.062   0.096
90255SOL    HW272663   2.881   4.947   0.188
90256SOL     OW72664   3.050  13.693  14.210
90256SOL    HW172665   3.114  13.762  14.230
90256SOL    HW272666   3.094  13.636  14.147
90257SOL     OW72667   2.207   6.637   2.645
90257SOL    HW172668   2.286   6.607   2.691
90257SOL    HW272669   2.213   6.733   2.648
90258SOL     OW72670  14.307  10.288  10.190
90258SOL    HW172671  14.263  10.347  10.129
90258SOL    HW272672  14.260  10.205  10.180
90259SOL     OW72673   0.066   7.119  11.706
90259SOL    HW172674   0.161   7.112  11.701
90259SOL    HW272675   0.046   7.106  11.798
90260SOL     OW72676   4.607   3.985  10.271
90260SOL    HW172677   4.568   3.898  10.283
90260SOL    HW272678   4.536   4.037  10.233
90261SOL     OW72679  14.470  12.458  11.647
90261SOL    HW172680  14.382  12.429  11.670
90261SOL    HW272681  14.479  12.543  11.692
90262SOL     OW72682   0.466  12.910   2.608
90262SOL    HW172683   0.476  13.004   2.591
90262SOL    HW272684   0.540  12.870   2.562
90263SOL     OW72685  10.206   8.189  10.291
90263SOL    HW172686  10.243   8.145  10.367
90263SOL    HW272687  10.236   8.138  10.216
90264SOL     OW72688   2.192   8.372   3.253
90264SOL    HW172689   2.185   8.467   3.246
90264SOL    HW272690   2.108   8.344   3.287
90265SOL     OW72691   3.330  10.591  13.763
90265SOL    HW172692   3.387  10.523  13.798
90265SOL    HW272693   3.243  10.551  13.762
90266SOL     OW72694   4.161   2.383   9.292
90266SOL    HW172695   4.185   2.407   9.202
90266SOL    HW272696   4.116   2.460   9.327
90267SOL     OW72697   5.362   3.114   5.310
90267SOL    HW172698   5.338   3.194   5.356
90267SOL    HW272699   5.458   3.118   5.303
90268SOL     OW72700  13.701   7.335   6.567
90268SOL    HW172701  13.783   7.383   6.584
90268SOL    HW272702  13.720   7.245   6.592
90269SOL     OW72703   5.947  10.607   6.893
90269SOL    HW172704   6.042  10.610   6.907
90269SOL    HW272705   5.937  10.564   6.809
90270SOL     OW72706   9.134   3.907  13.967
90270SOL    HW172707   9.168   3.991  13.937
90270SOL    HW272708   9.203   3.844  13.946
90271SOL     OW72709   7.966   3.729   1.100
90271SOL    HW172710   7.978   3.820   1.126
90271SOL    HW272711   7.946   3.733   1.007
90272SOL     OW72712   3.557   0.620   2.094
90272SOL    HW172713   3.626   0.571   2.049
90272SOL    HW272714   3.540   0.569   2.173
90273SOL     OW72715   7.681   3.208   8.714
90273SOL    HW172716   7.663   3.207   8.808
90273SOL    HW272717   7.595   3.199   8.673
90274SOL     OW72718   8.594   0.798   3.540
90274SOL    HW172719   8.639   0.830   3.462
90274SOL    HW272720   8.503   0.790   3.514
90275SOL     OW72721  13.049   1.326   6.309
90275SOL    HW172722  13.135   1.322   6.269
90275SOL    HW272723  13.017   1.414   6.289
90276SOL     OW72724   2.191   8.728   0.388
90276SOL    HW172725   2.168   8.688   0.472
90276SOL    HW272726   2.247   8.802   0.412
90277SOL     OW72727   2.328   2.107   4.721
90277SOL    HW172728   2.367   2.065   4.798
90277SOL    HW272729   2.404   2.139   4.671
90278SOL     OW72730   7.783  10.006   6.093
90278SOL    HW172731   7.762  10.047   6.009
90278SOL    HW272732   7.877   9.988   6.088
90279SOL     OW72733   2.898   2.688   9.779
90279SOL    HW172734   2.817   2.739   9.785
90279SOL    HW272735   2.898   2.653   9.691
90280SOL     OW72736   3.969   9.323  10.591
90280SOL    HW172737   3.948   9.346  10.681
90280SOL    HW272738   3.884   9.303  10.551
90281SOL     OW72739   2.295   1.106   8.887
90281SOL    HW172740   2.334   1.163   8.953
90281SOL    HW272741   2.357   1.107   8.814
90282SOL     OW72742   3.388   1.340  11.914
90282SOL    HW172743   3.399   1.267  11.974
90282SOL    HW272744   3.348   1.301  11.836
90283SOL     OW72745   2.870   6.619   3.073
90283SOL    HW172746   2.852   6.543   3.019
90283SOL    HW272747   2.881   6.691   3.010
90284SOL     OW72748  12.356   2.202   4.734
90284SOL    HW172749  12.424   2.173   4.673
90284SOL    HW272750  12.385   2.172   4.820
90285SOL     OW72751  10.224   0.947   3.250
90285SOL    HW172752  10.244   1.040   3.240
90285SOL    HW272753  10.278   0.918   3.323
90286SOL     OW72754   9.570   1.989   9.907
90286SOL    HW172755   9.640   2.042   9.869
90286SOL    HW272756   9.493   2.010   9.854
90287SOL     OW72757   1.820  11.711  11.098
90287SOL    HW172758   1.817  11.803  11.072
90287SOL    HW272759   1.873  11.669  11.030
90288SOL     OW72760   7.248  12.725   7.928
90288SOL    HW172761   7.297  12.672   7.991
90288SOL    HW272762   7.314  12.774   7.880
90289SOL     OW72763   8.307  14.861   8.764
90289SOL    HW172764   8.350  14.816   8.691
90289SOL    HW272765   8.374  14.864   8.833
90290SOL     OW72766  14.734  11.150   5.100
90290SOL    HW172767  14.662  11.179   5.043
90290SOL    HW272768  14.711  11.060   5.124
90291SOL     OW72769   6.825   5.036   1.472
90291SOL    HW172770   6.759   4.984   1.427
90291SOL    HW272771   6.786   5.056   1.557
90292SOL     OW72772   8.078   8.336  10.340
90292SOL    HW172773   8.169   8.353  10.360
90292SOL    HW272774   8.061   8.384  10.259
90293SOL     OW72775   9.203   4.771  11.761
90293SOL    HW172776   9.282   4.773  11.815
90293SOL    HW272777   9.151   4.846  11.790
90294SOL     OW72778  12.274   4.660  13.223
90294SOL    HW172779  12.360   4.643  13.184
90294SOL    HW272780  12.291   4.665  13.317
90295SOL     OW72781   4.292  10.490   8.613
90295SOL    HW172782   4.337  10.497   8.697
90295SOL    HW272783   4.361  10.502   8.548
90296SOL     OW72784   0.154  13.795   4.132
90296SOL    HW172785   0.078  13.838   4.093
90296SOL    HW272786   0.156  13.827   4.222
90297SOL     OW72787   2.144   8.850   7.262
90297SOL    HW172788   2.196   8.772   7.241
90297SOL    HW272789   2.154   8.861   7.356
90298SOL     OW72790   0.157  14.034  10.998
90298SOL    HW172791   0.115  14.110  11.039
90298SOL    HW272792   0.221  14.071  10.938
90299SOL     OW72793   0.592   2.358   0.828
90299SOL    HW172794   0.668   2.412   0.849
90299SOL    HW272795   0.517   2.408   0.859
90300SOL     OW72796   4.623   1.773   2.836
90300SOL    HW172797   4.577   1.784   2.753
90300SOL    HW272798   4.683   1.699   2.820
90301SOL     OW72799   0.352   3.823  10.557
90301SOL    HW172800   0.335   3.879  10.633
90301SOL    HW272801   0.381   3.883  10.489
90302SOL     OW72802   0.424   6.421   4.136
90302SOL    HW172803   0.487   6.367   4.182
90302SOL    HW272804   0.454   6.420   4.045
90303SOL     OW72805   3.147   0.817  13.988
90303SOL    HW172806   3.228   0.765  13.983
90303SOL    HW272807   3.133   0.829  14.082
90304SOL     OW72808   2.805   2.566   3.586
90304SOL    HW172809   2.753   2.540   3.510
90304SOL    HW272810   2.846   2.485   3.616
90305SOL     OW72811   1.264  13.064   4.716
90305SOL    HW172812   1.316  13.133   4.675
90305SOL    HW272813   1.177  13.101   4.724
90306SOL     OW72814  12.888  11.564  14.398
90306SOL    HW172815  12.920  11.636  14.343
90306SOL    HW272816  12.952  11.558  14.469
90307SOL     OW72817   5.744   8.056  11.616
90307SOL    HW172818   5.821   8.014  11.654
90307SOL    HW272819   5.759   8.150  11.627
90308SOL     OW72820   3.140   7.717  12.066
90308SOL    HW172821   3.225   7.757  12.049
90308SOL    HW272822   3.136   7.642  12.006
90309SOL     OW72823   1.422   9.057  13.113
90309SOL    HW172824   1.347   9.103  13.152
90309SOL    HW272825   1.383   8.989  13.059
90310SOL     OW72826   6.583   5.646   0.725
90310SOL    HW172827   6.572   5.626   0.818
90310SOL    HW272828   6.562   5.564   0.681
90311SOL     OW72829  11.920   2.480  14.078
90311SOL    HW172830  11.983   2.489  14.006
90311SOL    HW272831  11.879   2.567  14.085
90312SOL     OW72832  11.327   4.366   3.878
90312SOL    HW172833  11.270   4.360   3.955
90312SOL    HW272834  11.284   4.429   3.821
90313SOL     OW72835   0.246   2.374   6.975
90313SOL    HW172836   0.263   2.313   7.046
90313SOL    HW272837   0.281   2.330   6.897
90314SOL     OW72838   3.567   6.190   9.954
90314SOL    HW172839   3.622   6.167   9.879
90314SOL    HW272840   3.518   6.267   9.926
90315SOL     OW72841   7.233   4.315   2.146
90315SOL    HW172842   7.140   4.306   2.127
90315SOL    HW272843   7.264   4.225   2.161
90316SOL     OW72844   0.737   8.502   3.147
90316SOL    HW172845   0.743   8.481   3.053
90316SOL    HW272846   0.756   8.595   3.152
90317SOL     OW72847  12.427  10.263   3.646
90317SOL    HW172848  12.381  10.212   3.579
90317SOL    HW272849  12.388  10.350   3.642
90318SOL     OW72850   5.907   1.941   1.311
90318SOL    HW172851   5.912   2.036   1.303
90318SOL    HW272852   5.914   1.909   1.221
90319SOL     OW72853  14.140   7.897  14.271
90319SOL    HW172854  14.139   7.903  14.175
90319SOL    HW272855  14.230   7.918  14.295
90320SOL     OW72856   5.945   0.267  12.097
90320SOL    HW172857   5.853   0.266  12.124
90320SOL    HW272858   5.987   0.200  12.150
90321SOL     OW72859   0.189   8.553  13.068
90321SOL    HW172860   0.234   8.518  12.991
90321SOL    HW272861   0.113   8.600  13.032
90322SOL     OW72862   8.152  12.003   8.977
90322SOL    HW172863   8.096  11.968   8.908
90322SOL    HW272864   8.190  11.926   9.018
90323SOL     OW72865  13.545   2.551   6.535
90323SOL    HW172866  13.464   2.576   6.579
90323SOL    HW272867  13.550   2.456   6.546
90324SOL     OW72868   5.940   3.499   4.235
90324SOL    HW172869   5.932   3.410   4.201
90324SOL    HW272870   5.976   3.487   4.323
90325SOL     OW72871   8.140   2.096   0.389
90325SOL    HW172872   8.177   2.132   0.470
90325SOL    HW272873   8.067   2.155   0.368
90326SOL     OW72874   4.328   8.586   6.396
90326SOL    HW172875   4.315   8.587   6.491
90326SOL    HW272876   4.369   8.670   6.376
90327SOL     OW72877   7.443   3.215   4.624
90327SOL    HW172878   7.449   3.249   4.713
90327SOL    HW272879   7.392   3.134   4.633
90328SOL     OW72880   7.730  11.552   4.869
90328SOL    HW172881   7.761  11.593   4.950
90328SOL    HW272882   7.693  11.468   4.897
90329SOL     OW72883   7.847   3.992   1.566
90329SOL    HW172884   7.838   4.086   1.580
90329SOL    HW272885   7.760   3.957   1.582
90330SOL     OW72886   9.703  11.480   4.471
90330SOL    HW172887   9.759  11.403   4.457
90330SOL    HW272888   9.744  11.526   4.545
90331SOL     OW72889  13.886  14.191  10.115
90331SOL    HW172890  13.959  14.144  10.153
90331SOL    HW272891  13.885  14.275  10.161
90332SOL     OW72892   5.050   1.379   4.423
90332SOL    HW172893   5.079   1.403   4.336
90332SOL    HW272894   5.106   1.304   4.447
90333SOL     OW72895  13.707   5.305   7.435
90333SOL    HW172896  13.730   5.387   7.479
90333SOL    HW272897  13.684   5.246   7.506
90334SOL     OW72898  13.549  12.211  13.831
90334SOL    HW172899  13.637  12.249  13.834
90334SOL    HW272900  13.560  12.123  13.865
90335SOL     OW72901   8.276   7.308  14.176
90335SOL    HW172902   8.336   7.280  14.245
90335SOL    HW272903   8.276   7.237  14.113
90336SOL     OW72904   7.574   2.744  10.943
90336SOL    HW172905   7.549   2.779  11.029
90336SOL    HW272906   7.514   2.786  10.881
90337SOL     OW72907  12.969  14.219   7.049
90337SOL    HW172908  13.057  14.231   7.084
90337SOL    HW272909  12.980  14.225   6.955
90338SOL     OW72910  14.478   1.254   0.971
90338SOL    HW172911  14.418   1.242   0.897
90338SOL    HW272912  14.560   1.282   0.932
90339SOL     OW72913   5.838   8.425   2.116
90339SOL    HW172914   5.801   8.337   2.116
90339SOL    HW272915   5.776   8.477   2.065
90340SOL     OW72916  10.620   3.196  14.306
90340SOL    HW172917  10.557   3.268  14.310
90340SOL    HW272918  10.573   3.121  14.344
90341SOL     OW72919   9.530  13.031   7.768
90341SOL    HW172920   9.508  12.955   7.714
90341SOL    HW272921   9.466  13.097   7.744
90342SOL     OW72922   5.289   0.483  10.119
90342SOL    HW172923   5.355   0.541  10.084
90342SOL    HW272924   5.292   0.497  10.214
90343SOL     OW72925   3.503  13.403   8.213
90343SOL    HW172926   3.481  13.319   8.253
90343SOL    HW272927   3.440  13.465   8.250
90344SOL     OW72928   2.994   8.037   3.882
90344SOL    HW172929   3.011   8.007   3.793
90344SOL    HW272930   2.927   8.106   3.871
90345SOL     OW72931   8.374   9.483   0.029
90345SOL    HW172932   8.365   9.578   0.022
90345SOL    HW272933   8.465   9.466   0.006
90346SOL     OW72934   9.245   5.126   9.501
90346SOL    HW172935   9.153   5.099   9.493
90346SOL    HW272936   9.249   5.211   9.457
90347SOL     OW72937   0.948   7.013   9.423
90347SOL    HW172938   1.034   7.049   9.402
90347SOL    HW272939   0.904   7.005   9.338
90348SOL     OW72940  14.709  11.396   5.640
90348SOL    HW172941  14.720  11.486   5.672
90348SOL    HW272942  14.798  11.364   5.626
90349SOL     OW72943  13.462   7.436   3.667
90349SOL    HW172944  13.435   7.498   3.735
90349SOL    HW272945  13.382   7.394   3.639
90350SOL     OW72946  11.711   6.709   9.243
90350SOL    HW172947  11.790   6.746   9.204
90350SOL    HW272948  11.732   6.616   9.253
90351SOL     OW72949   4.983   0.042   3.692
90351SOL    HW172950   4.923   0.074   3.625
90351SOL    HW272951   5.019   0.122   3.731
90352SOL     OW72952  12.096   8.901   4.849
90352SOL    HW172953  12.080   8.964   4.920
90352SOL    HW272954  12.180   8.862   4.871
90353SOL     OW72955   2.773   7.515   2.262
90353SOL    HW172956   2.798   7.423   2.275
90353SOL    HW272957   2.856   7.559   2.242
90354SOL     OW72958   9.567   9.118   2.416
90354SOL    HW172959   9.523   9.033   2.419
90354SOL    HW272960   9.658   9.098   2.395
90355SOL     OW72961   1.763   2.387  14.474
90355SOL    HW172962   1.813   2.361  14.396
90355SOL    HW272963   1.828   2.387  14.545
90356SOL     OW72964  13.615   3.190  14.656
90356SOL    HW172965  13.604   3.113  14.712
90356SOL    HW272966  13.661   3.157  14.579
90357SOL     OW72967   8.411   8.297   5.152
90357SOL    HW172968   8.342   8.231   5.152
90357SOL    HW272969   8.484   8.256   5.199
90358SOL     OW72970  12.228  10.036  11.916
90358SOL    HW172971  12.164   9.976  11.954
90358SOL    HW272972  12.311   9.988  11.919
90359SOL     OW72973   8.081   8.829   9.818
90359SOL    HW172974   8.097   8.838   9.912
90359SOL    HW272975   8.146   8.885   9.776
90360SOL     OW72976   6.732   0.651   7.120
90360SOL    HW172977   6.661   0.714   7.130
90360SOL    HW272978   6.761   0.633   7.210
90361SOL     OW72979   2.666   9.949   6.735
90361SOL    HW172980   2.721   9.940   6.657
90361SOL    HW272981   2.684   9.869   6.786
90362SOL     OW72982   8.558  12.078  11.052
90362SOL    HW172983   8.600  12.096  10.969
90362SOL    HW272984   8.467  12.104  11.040
90363SOL     OW72985   7.295   6.846   0.435
90363SOL    HW172986   7.389   6.850   0.455
90363SOL    HW272987   7.291   6.826   0.341
90364SOL     OW72988   7.067   0.635   4.710
90364SOL    HW172989   7.131   0.687   4.661
90364SOL    HW272990   7.109   0.551   4.724
90365SOL     OW72991   8.703  13.169   7.009
90365SOL    HW172992   8.791  13.172   7.047
90365SOL    HW272993   8.664  13.253   7.031
90366SOL     OW72994   1.814   1.988   9.379
90366SOL    HW172995   1.776   2.043   9.310
90366SOL    HW272996   1.794   1.899   9.352
90367SOL     OW72997   2.830  10.019  10.782
90367SOL    HW172998   2.919  10.029  10.750
90367SOL    HW272999   2.811  10.100  10.828
90368SOL     OW73000   5.536  14.866   0.610
90368SOL    HW173001   5.590  14.823   0.544
90368SOL    HW273002   5.599   0.038   0.669
90369SOL     OW73003   6.414  14.391   4.568
90369SOL    HW173004   6.386  14.306   4.601
90369SOL    HW273005   6.335  14.444   4.567
90370SOL     OW73006  10.949   3.632   1.838
90370SOL    HW173007  10.933   3.628   1.744
90370SOL    HW273008  10.991   3.549   1.859
90371SOL     OW73009   6.286   4.789  11.470
90371SOL    HW173010   6.375   4.770  11.499
90371SOL    HW273011   6.255   4.856  11.531
90372SOL     OW73012   7.212   8.619  11.577
90372SOL    HW173013   7.254   8.551  11.526
90372SOL    HW273014   7.136   8.645  11.525
90373SOL     OW73015   4.268   6.960   1.929
90373SOL    HW173016   4.306   6.879   1.895
90373SOL    HW273017   4.334   7.027   1.913
90374SOL     OW73018   7.160   8.508  13.723
90374SOL    HW173019   7.138   8.579  13.783
90374SOL    HW273020   7.091   8.511  13.657
90375SOL     OW73021  10.702   2.660  14.703
90375SOL    HW173022  10.738   2.621  14.623
90375SOL    HW273023  10.661   2.586  14.750
90376SOL     OW73024  11.243   0.105   3.145
90376SOL    HW173025  11.221   0.093   3.237
90376SOL    HW273026  11.259   0.199   3.136
90377SOL     OW73027  11.982   9.032   8.405
90377SOL    HW173028  11.979   9.078   8.322
90377SOL    HW273029  12.074   9.030   8.429
90378SOL     OW73030   4.710   8.055   1.339
90378SOL    HW173031   4.703   8.149   1.353
90378SOL    HW273032   4.620   8.022   1.350
90379SOL     OW73033   8.432  14.447   6.048
90379SOL    HW173034   8.412  14.362   6.009
90379SOL    HW273035   8.346  14.482   6.073
90380SOL     OW73036   2.086   3.100   3.659
90380SOL    HW173037   2.055   3.114   3.570
90380SOL    HW273038   2.052   3.014   3.683
90381SOL     OW73039   6.290   9.044  11.790
90381SOL    HW173040   6.267   9.038  11.698
90381SOL    HW273041   6.211   9.016  11.837
90382SOL     OW73042   8.982   1.739  11.386
90382SOL    HW173043   8.896   1.724  11.346
90382SOL    HW273044   8.963   1.784  11.468
90383SOL     OW73045   8.117   8.516   7.298
90383SOL    HW173046   8.051   8.497   7.365
90383SOL    HW273047   8.114   8.611   7.289
90384SOL     OW73048   4.094  11.251   4.237
90384SOL    HW173049   3.998  11.254   4.246
90384SOL    HW273050   4.109  11.262   4.144
90385SOL     OW73051  10.779  14.698  14.692
90385SOL    HW173052  10.833  14.774  14.715
90385SOL    HW273053  10.811  14.627  14.747
90386SOL     OW73054   6.801   7.931  13.205
90386SOL    HW173055   6.793   8.017  13.247
90386SOL    HW273056   6.841   7.950  13.120
90387SOL     OW73057   1.821   8.500  13.932
90387SOL    HW173058   1.733   8.529  13.908
90387SOL    HW273059   1.835   8.421  13.880
90388SOL     OW73060   0.258  11.330   8.247
90388SOL    HW173061   0.289  11.321   8.157
90388SOL    HW273062   0.169  11.295   8.246
90389SOL     OW73063   2.505   8.680  12.021
90389SOL    HW173064   2.587   8.631  12.026
90389SOL    HW273065   2.496   8.721  12.107
90390SOL     OW73066   9.242   5.759  12.727
90390SOL    HW173067   9.208   5.783  12.640
90390SOL    HW273068   9.333   5.733  12.711
90391SOL     OW73069   9.712  12.986   1.810
90391SOL    HW173070   9.740  12.921   1.745
90391SOL    HW273071   9.620  13.002   1.789
90392SOL     OW73072  10.053   2.695   9.498
90392SOL    HW173073  10.075   2.775   9.452
90392SOL    HW273074  10.087   2.625   9.442
90393SOL     OW73075   6.477   5.557   1.274
90393SOL    HW173076   6.403   5.504   1.302
90393SOL    HW273077   6.452   5.647   1.298
90394SOL     OW73078   0.424   1.966   1.299
90394SOL    HW173079   0.358   2.035   1.305
90394SOL    HW273080   0.384   1.900   1.242
90395SOL     OW73081  13.067  14.217  13.608
90395SOL    HW173082  13.151  14.240  13.570
90395SOL    HW273083  13.088  14.157  13.679
90396SOL     OW73084   9.346   5.638  13.590
90396SOL    HW173085   9.323   5.639  13.683
90396SOL    HW273086   9.263   5.653  13.545
90397SOL     OW73087  10.261   4.509   9.001
90397SOL    HW173088  10.201   4.450   8.955
90397SOL    HW273089  10.239   4.596   8.968
90398SOL     OW73090  10.306  13.123  14.411
90398SOL    HW173091  10.293  13.169  14.494
90398SOL    HW273092  10.361  13.048  14.433
90399SOL     OW73093  10.826  13.465  13.028
90399SOL    HW173094  10.794  13.407  12.958
90399SOL    HW273095  10.823  13.411  13.107
90400SOL     OW73096   3.099   4.273   7.392
90400SOL    HW173097   3.137   4.357   7.417
90400SOL    HW273098   3.018   4.267   7.442
90401SOL     OW73099   8.727   8.494   6.194
90401SOL    HW173100   8.743   8.481   6.100
90401SOL    HW273101   8.658   8.432   6.215
90402SOL     OW73102  12.933   4.678   0.046
90402SOL    HW173103  12.994   4.721   0.105
90402SOL    HW273104  12.848   4.717   0.066
90403SOL     OW73105   2.335  12.069   6.244
90403SOL    HW173106   2.255  12.017   6.244
90403SOL    HW273107   2.317  12.141   6.304
90404SOL     OW73108   0.891  10.208   3.383
90404SOL    HW173109   0.806  10.238   3.351
90404SOL    HW273110   0.878  10.189   3.475
90405SOL     OW73111   5.952  11.836   1.802
90405SOL    HW173112   5.901  11.769   1.848
90405SOL    HW273113   5.910  11.843   1.717
90406SOL     OW73114  11.460   2.309  10.427
90406SOL    HW173115  11.403   2.355  10.488
90406SOL    HW273116  11.418   2.224  10.413
90407SOL     OW73117   9.541   0.650   5.281
90407SOL    HW173118   9.468   0.608   5.234
90407SOL    HW273119   9.575   0.714   5.219
90408SOL     OW73120   3.772   2.417  13.893
90408SOL    HW173121   3.789   2.325  13.876
90408SOL    HW273122   3.727   2.418  13.977
90409SOL     OW73123  10.394  13.476   1.531
90409SOL    HW173124  10.384  13.519   1.446
90409SOL    HW273125  10.362  13.387   1.516
90410SOL     OW73126  12.789  10.481   2.728
90410SOL    HW173127  12.749  10.401   2.762
90410SOL    HW273128  12.715  10.535   2.701
90411SOL     OW73129   4.260  10.007   1.716
90411SOL    HW173130   4.193   9.975   1.657
90411SOL    HW273131   4.320   9.933   1.726
90412SOL     OW73132   2.272  14.154   4.417
90412SOL    HW173133   2.346  14.215   4.428
90412SOL    HW273134   2.313  14.069   4.404
90413SOL     OW73135   3.814   8.290   3.029
90413SOL    HW173136   3.868   8.349   2.976
90413SOL    HW273137   3.876   8.228   3.067
90414SOL     OW73138   8.501   8.613   3.419
90414SOL    HW173139   8.434   8.680   3.434
90414SOL    HW273140   8.459   8.553   3.357
90415SOL     OW73141   0.229  10.609  12.013
90415SOL    HW173142   0.161  10.542  12.019
90415SOL    HW273143   0.216  10.648  11.926
90416SOL     OW73144   7.931  13.384  12.944
90416SOL    HW173145   7.870  13.443  12.899
90416SOL    HW273146   7.997  13.443  12.981
90417SOL     OW73147   1.931  13.209   7.107
90417SOL    HW173148   1.935  13.221   7.202
90417SOL    HW273149   1.967  13.290   7.071
90418SOL     OW73150  12.207  11.187   8.033
90418SOL    HW173151  12.268  11.176   7.960
90418SOL    HW273152  12.126  11.146   8.003
90419SOL     OW73153   3.966   4.498  14.235
90419SOL    HW173154   3.900   4.478  14.169
90419SOL    HW273155   4.041   4.531  14.185
90420SOL     OW73156   2.684   3.876  13.347
90420SOL    HW173157   2.646   3.949  13.397
90420SOL    HW273158   2.712   3.813  13.413
90421SOL     OW73159   0.072   1.305  11.626
90421SOL    HW173160   0.040   1.215  11.632
90421SOL    HW273161   0.135   1.313  11.699
90422SOL     OW73162   5.317   2.107   4.760
90422SOL    HW173163   5.330   2.182   4.703
90422SOL    HW273164   5.357   2.133   4.843
90423SOL     OW73165   9.469   5.189   7.951
90423SOL    HW173166   9.442   5.116   8.007
90423SOL    HW273167   9.527   5.150   7.887
90424SOL     OW73168   6.181   5.891  12.434
90424SOL    HW173169   6.262   5.900  12.383
90424SOL    HW273170   6.112   5.890  12.368
90425SOL     OW73171   2.890  13.734   6.893
90425SOL    HW173172   2.868  13.641   6.887
90425SOL    HW273173   2.873  13.768   6.805
90426SOL     OW73174   4.237  11.909  12.713
90426SOL    HW173175   4.220  11.852  12.788
90426SOL    HW273176   4.262  11.993  12.752
90427SOL     OW73177  14.408   0.192   4.720
90427SOL    HW173178  14.317   0.217   4.736
90427SOL    HW273179  14.456   0.225   4.796
90428SOL     OW73180   8.483  10.236   3.568
90428SOL    HW173181   8.445  10.295   3.634
90428SOL    HW273182   8.426  10.159   3.569
90429SOL     OW73183   6.658  11.080  11.718
90429SOL    HW173184   6.589  11.128  11.672
90429SOL    HW273185   6.651  10.990  11.686
90430SOL     OW73186   2.395  11.653  11.097
90430SOL    HW173187   2.437  11.695  11.022
90430SOL    HW273188   2.319  11.709  11.117
90431SOL     OW73189  10.702  12.774  13.980
90431SOL    HW173190  10.675  12.863  14.001
90431SOL    HW273191  10.636  12.719  14.022
90432SOL     OW73192   4.568  12.786  13.207
90432SOL    HW173193   4.550  12.792  13.301
90432SOL    HW273194   4.481  12.788  13.166
90433SOL     OW73195   9.883   6.705   7.036
90433SOL    HW173196   9.945   6.778   7.043
90433SOL    HW273197   9.873   6.692   6.941
90434SOL     OW73198   0.062   6.274   5.946
90434SOL    HW173199   0.127   6.308   5.885
90434SOL    HW273200  14.860   6.243   5.891
90435SOL     OW73201   2.652   9.042   9.114
90435SOL    HW173202   2.731   9.029   9.063
90435SOL    HW273203   2.678   9.101   9.185
90436SOL     OW73204   5.332   2.852   0.931
90436SOL    HW173205   5.270   2.922   0.908
90436SOL    HW273206   5.278   2.773   0.931
90437SOL     OW73207   9.228  11.154   7.325
90437SOL    HW173208   9.286  11.086   7.359
90437SOL    HW273209   9.216  11.215   7.397
90438SOL     OW73210   8.811   7.052   3.048
90438SOL    HW173211   8.892   7.099   3.064
90438SOL    HW273212   8.747   7.095   3.105
90439SOL     OW73213   1.188   0.821   4.598
90439SOL    HW173214   1.159   0.732   4.576
90439SOL    HW273215   1.226   0.855   4.516
90440SOL     OW73216  13.408  10.350  14.148
90440SOL    HW173217  13.395  10.277  14.209
90440SOL    HW273218  13.343  10.335  14.080
90441SOL     OW73219   4.679   0.638   0.582
90441SOL    HW173220   4.624   0.588   0.521
90441SOL    HW273221   4.761   0.588   0.586
90442SOL     OW73222  13.586   3.771   0.285
90442SOL    HW173223  13.607   3.850   0.235
90442SOL    HW273224  13.558   3.804   0.371
90443SOL     OW73225   3.911   7.923  11.443
90443SOL    HW173226   3.863   7.902  11.523
90443SOL    HW273227   3.877   8.009  11.416
90444SOL     OW73228  12.728  14.039   6.878
90444SOL    HW173229  12.820  14.035   6.905
90444SOL    HW273230  12.730  14.069   6.787
90445SOL     OW73231   0.164   3.636  11.447
90445SOL    HW173232   0.178   3.724  11.482
90445SOL    HW273233   0.074   3.637  11.413
90446SOL     OW73234  14.026   6.397   6.385
90446SOL    HW173235  14.077   6.439   6.454
90446SOL    HW273236  13.937   6.429   6.398
90447SOL     OW73237   5.899   9.471   0.496
90447SOL    HW173238   5.952   9.391   0.503
90447SOL    HW273239   5.831   9.448   0.433
90448SOL     OW73240  10.981   6.416  14.220
90448SOL    HW173241  10.994   6.338  14.274
90448SOL    HW273242  10.914   6.466  14.266
90449SOL     OW73243   0.935  14.252   5.846
90449SOL    HW173244   0.901  14.334   5.881
90449SOL    HW273245   1.006  14.278   5.788
90450SOL     OW73246  13.311   5.533  13.170
90450SOL    HW173247  13.315   5.622  13.204
90450SOL    HW273248  13.357   5.480  13.235
90451SOL     OW73249   0.784   9.683   2.438
90451SOL    HW173250   0.702   9.638   2.456
90451SOL    HW273251   0.806   9.727   2.520
90452SOL     OW73252  14.856   2.987  10.120
90452SOL    HW173253  14.832   2.972  10.028
90452SOL    HW273254   0.080   2.971  10.123
90453SOL     OW73255   0.412  13.645  12.876
90453SOL    HW173256   0.346  13.691  12.824
90453SOL    HW273257   0.489  13.702  12.872
90454SOL     OW73258   7.303  11.128   7.626
90454SOL    HW173259   7.308  11.224   7.627
90454SOL    HW273260   7.327  11.104   7.536
90455SOL     OW73261   4.215   3.689   6.422
90455SOL    HW173262   4.232   3.595   6.411
90455SOL    HW273263   4.282   3.732   6.370
90456SOL     OW73264   5.210   6.466   0.089
90456SOL    HW173265   5.194   6.426   0.003
90456SOL    HW273266   5.223   6.559   0.071
90457SOL     OW73267   9.260   9.456   0.693
90457SOL    HW173268   9.215   9.372   0.705
90457SOL    HW273269   9.291   9.454   0.603
90458SOL     OW73270   3.872   7.916   7.894
90458SOL    HW173271   3.886   7.884   7.805
90458SOL    HW273272   3.939   7.983   7.907
90459SOL     OW73273   6.955  14.172   1.314
90459SOL    HW173274   6.956  14.260   1.352
90459SOL    HW273275   6.965  14.186   1.220
90460SOL     OW73276   4.785   3.827   9.225
90460SOL    HW173277   4.786   3.920   9.250
90460SOL    HW273278   4.755   3.782   9.303
90461SOL     OW73279  14.806   6.875   0.724
90461SOL    HW173280  14.753   6.863   0.646
90461SOL    HW273281   0.017   6.827   0.706
90462SOL     OW73282  11.514   7.634   3.585
90462SOL    HW173283  11.423   7.642   3.557
90462SOL    HW273284  11.527   7.708   3.644
90463SOL     OW73285   0.106   3.739   7.223
90463SOL    HW173286   0.195   3.738   7.187
90463SOL    HW273287   0.102   3.661   7.278
90464SOL     OW73288   8.975   3.039   9.466
90464SOL    HW173289   8.921   3.114   9.439
90464SOL    HW273290   8.915   2.965   9.462
90465SOL     OW73291   5.023  10.317  14.344
90465SOL    HW173292   5.089  10.382  14.321
90465SOL    HW273293   5.065  10.263  14.412
90466SOL     OW73294  13.383  10.912   0.225
90466SOL    HW173295  13.435  10.837   0.254
90466SOL    HW273296  13.356  10.955   0.307
90467SOL     OW73297   8.950   9.586   2.955
90467SOL    HW173298   9.026   9.633   2.920
90467SOL    HW273299   8.978   9.495   2.957
90468SOL     OW73300  11.306  10.153   3.211
90468SOL    HW173301  11.233  10.092   3.198
90468SOL    HW273302  11.383  10.098   3.222
90469SOL     OW73303  11.552  11.196   9.140
90469SOL    HW173304  11.515  11.257   9.203
90469SOL    HW273305  11.479  11.172   9.083
90470SOL     OW73306   1.832   1.725   3.481
90470SOL    HW173307   1.811   1.812   3.515
90470SOL    HW273308   1.848   1.672   3.560
90471SOL     OW73309   9.477  12.777   1.054
90471SOL    HW173310   9.428  12.700   1.027
90471SOL    HW273311   9.429  12.851   1.016
90472SOL     OW73312   1.918  10.161  13.215
90472SOL    HW173313   1.970  10.194  13.142
90472SOL    HW273314   1.837  10.212  13.212
90473SOL     OW73315   2.400   8.817  14.116
90473SOL    HW173316   2.357   8.733  14.103
90473SOL    HW273317   2.329   8.881  14.113
90474SOL     OW73318  12.218   1.146   6.618
90474SOL    HW173319  12.238   1.105   6.534
90474SOL    HW273320  12.304   1.166   6.656
90475SOL     OW73321   4.794   3.294   9.499
90475SOL    HW173322   4.841   3.219   9.536
90475SOL    HW273323   4.740   3.327   9.571
90476SOL     OW73324   6.839  12.727   3.879
90476SOL    HW173325   6.748  12.756   3.882
90476SOL    HW273326   6.858  12.720   3.785
90477SOL     OW73327  11.709   8.836   6.025
90477SOL    HW173328  11.655   8.804   6.097
90477SOL    HW273329  11.652   8.832   5.949
90478SOL     OW73330  10.131   6.308   6.694
90478SOL    HW173331  10.070   6.239   6.719
90478SOL    HW273332  10.217   6.274   6.721
90479SOL     OW73333  14.700  11.334  12.878
90479SOL    HW173334  14.715  11.358  12.969
90479SOL    HW273335  14.606  11.316  12.873
90480SOL     OW73336   2.486   5.130  10.996
90480SOL    HW173337   2.396   5.149  10.973
90480SOL    HW273338   2.531   5.116  10.913
90481SOL     OW73339   4.735   9.775  11.406
90481SOL    HW173340   4.656   9.788  11.459
90481SOL    HW273341   4.728   9.840  11.336
90482SOL     OW73342  13.981   0.529   6.653
90482SOL    HW173343  13.937   0.571   6.579
90482SOL    HW273344  13.920   0.459   6.679
90483SOL     OW73345  12.795   9.581   7.566
90483SOL    HW173346  12.757   9.508   7.516
90483SOL    HW273347  12.829   9.641   7.500
90484SOL     OW73348   2.928   1.016  13.551
90484SOL    HW173349   2.917   1.110  13.570
90484SOL    HW273350   2.849   0.975  13.585
90485SOL     OW73351   9.812   4.893  14.857
90485SOL    HW173352   9.844   4.804  14.841
90485SOL    HW273353   9.875   4.950  14.812
90486SOL     OW73354   9.132   0.451   6.406
90486SOL    HW173355   9.144   0.397   6.327
90486SOL    HW273356   9.055   0.504   6.387
90487SOL     OW73357   7.149  12.815   0.634
90487SOL    HW173358   7.155  12.900   0.591
90487SOL    HW273359   7.192  12.754   0.574
90488SOL     OW73360   0.629   2.136   3.728
90488SOL    HW173361   0.544   2.092   3.729
90488SOL    HW273362   0.693   2.066   3.716
90489SOL     OW73363  10.527   2.489   2.811
90489SOL    HW173364  10.621   2.493   2.826
90489SOL    HW273365  10.495   2.431   2.880
90490SOL     OW73366   6.528   0.978  14.273
90490SOL    HW173367   6.596   0.921  14.309
90490SOL    HW273368   6.490   0.928  14.201
90491SOL     OW73369   6.283   7.630   0.277
90491SOL    HW173370   6.294   7.568   0.205
90491SOL    HW273371   6.293   7.716   0.236
90492SOL     OW73372  11.756   9.556  12.219
90492SOL    HW173373  11.778   9.528  12.307
90492SOL    HW273374  11.693   9.490  12.187
90493SOL     OW73375  10.342  12.818  11.035
90493SOL    HW173376  10.393  12.876  10.978
90493SOL    HW273377  10.259  12.806  10.989
90494SOL     OW73378   4.422   2.230  14.057
90494SOL    HW173379   4.490   2.164  14.071
90494SOL    HW273380   4.465   2.313  14.074
90495SOL     OW73381  14.299  11.786   4.956
90495SOL    HW173382  14.219  11.808   4.908
90495SOL    HW273383  14.268  11.753   5.040
90496SOL     OW73384  10.616   5.525   0.005
90496SOL    HW173385  10.684   5.593   0.007
90496SOL    HW273386  10.583   5.522   0.095
90497SOL     OW73387   6.088   6.216   9.491
90497SOL    HW173388   6.157   6.177   9.437
90497SOL    HW273389   6.008   6.201   9.440
90498SOL     OW73390   9.519  12.867   7.568
90498SOL    HW173391   9.611  12.842   7.559
90498SOL    HW273392   9.473  12.814   7.503
90499SOL     OW73393   2.488   6.771   8.975
90499SOL    HW173394   2.401   6.799   9.001
90499SOL    HW273395   2.500   6.810   8.888
90500SOL     OW73396   4.494  11.344   2.189
90500SOL    HW173397   4.400  11.335   2.202
90500SOL    HW273398   4.507  11.436   2.165
90501SOL     OW73399   9.614   2.226   9.573
90501SOL    HW173400   9.578   2.267   9.494
90501SOL    HW273401   9.547   2.241   9.640
90502SOL     OW73402   2.851   8.374   1.544
90502SOL    HW173403   2.851   8.423   1.626
90502SOL    HW273404   2.942   8.350   1.529
90503SOL     OW73405  13.590   1.126   5.687
90503SOL    HW173406  13.591   1.197   5.751
90503SOL    HW273407  13.607   1.047   5.738
90504SOL     OW73408   1.748  12.055   6.872
90504SOL    HW173409   1.763  12.078   6.964
90504SOL    HW273410   1.663  12.011   6.872
90505SOL     OW73411   0.143  14.601   7.277
90505SOL    HW173412   0.083  14.534   7.309
90505SOL    HW273413   0.087  14.665   7.233
90506SOL     OW73414  11.593   7.679  10.730
90506SOL    HW173415  11.500   7.670  10.707
90506SOL    HW273416  11.634   7.600  10.697
90507SOL     OW73417  14.462   6.485   9.311
90507SOL    HW173418  14.556   6.500   9.312
90507SOL    HW273419  14.427   6.545   9.378
90508SOL     OW73420   0.053  10.671  14.280
90508SOL    HW173421   0.091  10.729  14.346
90508SOL    HW273422   0.120  10.666  14.212
90509SOL     OW73423   6.790   5.075  14.053
90509SOL    HW173424   6.700   5.042  14.054
90509SOL    HW273425   6.789   5.144  13.986
90510SOL     OW73426   2.539  11.016   1.602
90510SOL    HW173427   2.607  11.082   1.587
90510SOL    HW273428   2.548  10.992   1.694
90511SOL     OW73429   8.643   4.072   4.108
90511SOL    HW173430   8.580   4.009   4.142
90511SOL    HW273431   8.591   4.150   4.088
90512SOL     OW73432   0.348   8.938   5.565
90512SOL    HW173433   0.400   9.012   5.535
90512SOL    HW273434   0.259   8.958   5.535
90513SOL     OW73435   9.980   0.620   9.867
90513SOL    HW173436   9.954   0.583   9.782
90513SOL    HW273437  10.075   0.629   9.860
90514SOL     OW73438  13.369   4.084   2.520
90514SOL    HW173439  13.431   4.017   2.549
90514SOL    HW273440  13.414   4.129   2.449
90515SOL     OW73441  14.486   3.457   8.439
90515SOL    HW173442  14.397   3.457   8.476
90515SOL    HW273443  14.474   3.481   8.347
90516SOL     OW73444  14.009   4.142  12.445
90516SOL    HW173445  13.952   4.175  12.375
90516SOL    HW273446  13.977   4.054  12.462
90517SOL     OW73447   8.478  14.676   6.822
90517SOL    HW173448   8.571  14.668   6.842
90517SOL    HW273449   8.461  14.606   6.759
90518SOL     OW73450  12.851   5.798   0.685
90518SOL    HW173451  12.939   5.760   0.695
90518SOL    HW273452  12.793   5.733   0.725
90519SOL     OW73453  11.071   1.280  10.218
90519SOL    HW173454  11.078   1.296  10.312
90519SOL    HW273455  11.160   1.286  10.185
90520SOL     OW73456   6.388   0.138  11.881
90520SOL    HW173457   6.325   0.066  11.884
90520SOL    HW273458   6.378   0.175  11.793
90521SOL     OW73459   7.473   6.807  10.591
90521SOL    HW173460   7.486   6.899  10.569
90521SOL    HW273461   7.476   6.805  10.687
90522SOL     OW73462  13.617   0.317   4.349
90522SOL    HW173463  13.556   0.247   4.371
90522SOL    HW273464  13.577   0.361   4.274
90523SOL     OW73465  12.464   5.620   0.088
90523SOL    HW173466  12.463   5.698   0.144
90523SOL    HW273467  12.387   5.570   0.116
90524SOL     OW73468   3.058   6.802  12.600
90524SOL    HW173469   3.091   6.850  12.524
90524SOL    HW273470   3.062   6.866  12.672
90525SOL     OW73471   1.108   8.130   8.566
90525SOL    HW173472   1.197   8.094   8.561
90525SOL    HW273473   1.120   8.225   8.566
90526SOL     OW73474   5.808  11.661   5.808
90526SOL    HW173475   5.761  11.739   5.781
90526SOL    HW273476   5.900  11.681   5.790
90527SOL     OW73477   5.821  10.757  12.947
90527SOL    HW173478   5.799  10.773  12.855
90527SOL    HW273479   5.797  10.838  12.991
90528SOL     OW73480  14.391   0.860  11.038
90528SOL    HW173481  14.326   0.819  11.094
90528SOL    HW273482  14.408   0.795  10.969
90529SOL     OW73483  13.134  11.426   6.921
90529SOL    HW173484  13.154  11.514   6.951
90529SOL    HW273485  13.157  11.426   6.828
90530SOL     OW73486   9.080  14.573   2.152
90530SOL    HW173487   9.156  14.580   2.210
90530SOL    HW273488   9.008  14.549   2.210
90531SOL     OW73489  12.112   0.145  13.386
90531SOL    HW173490  12.178   0.086  13.351
90531SOL    HW273491  12.056   0.089  13.440
90532SOL     OW73492   4.242   2.325   4.114
90532SOL    HW173493   4.174   2.275   4.068
90532SOL    HW273494   4.194   2.396   4.158
90533SOL     OW73495   2.002  11.357   4.381
90533SOL    HW173496   1.910  11.360   4.407
90533SOL    HW273497   2.002  11.317   4.294
90534SOL     OW73498   8.685  11.355   5.443
90534SOL    HW173499   8.742  11.279   5.433
90534SOL    HW273500   8.626  11.351   5.368
90535SOL     OW73501   3.872  13.078   5.343
90535SOL    HW173502   3.792  13.035   5.313
90535SOL    HW273503   3.893  13.035   5.425
90536SOL     OW73504   8.482   2.063   2.084
90536SOL    HW173505   8.562   2.114   2.075
90536SOL    HW273506   8.506   1.989   2.140
90537SOL     OW73507   9.776  10.794  14.725
90537SOL    HW173508   9.850  10.736  14.745
90537SOL    HW273509   9.745  10.824  14.811
90538SOL     OW73510   7.357   9.292   7.389
90538SOL    HW173511   7.436   9.322   7.344
90538SOL    HW273512   7.385   9.281   7.480
90539SOL     OW73513   2.647   9.756   8.203
90539SOL    HW173514   2.610   9.684   8.255
90539SOL    HW273515   2.712   9.713   8.147
90540SOL     OW73516  13.125   9.234   4.166
90540SOL    HW173517  13.073   9.310   4.140
90540SOL    HW273518  13.214   9.268   4.175
90541SOL     OW73519  11.305   0.948   6.744
90541SOL    HW173520  11.306   1.025   6.687
90541SOL    HW273521  11.303   0.874   6.684
90542SOL     OW73522   2.555  10.432   6.092
90542SOL    HW173523   2.460  10.427   6.080
90542SOL    HW273524   2.566  10.493   6.165
90543SOL     OW73525  10.384   4.542  12.112
90543SOL    HW173526  10.302   4.584  12.085
90543SOL    HW273527  10.409   4.488  12.038
90544SOL     OW73528   8.136  13.912  14.516
90544SOL    HW173529   8.118  13.869  14.432
90544SOL    HW273530   8.228  13.937  14.511
90545SOL     OW73531   3.788   9.927  12.923
90545SOL    HW173532   3.755   9.955  13.008
90545SOL    HW273533   3.881   9.910  12.937
90546SOL     OW73534   7.110  12.585   3.604
90546SOL    HW173535   7.148  12.501   3.579
90546SOL    HW273536   7.183  12.635   3.640
90547SOL     OW73537   8.615   5.398   6.319
90547SOL    HW173538   8.526   5.379   6.289
90547SOL    HW273539   8.635   5.484   6.282
90548SOL     OW73540   0.031   4.267   7.033
90548SOL    HW173541   0.125   4.248   7.038
90548SOL    HW273542  14.866   4.203   6.971
90549SOL     OW73543   2.115   9.655  11.611
90549SOL    HW173544   2.127   9.725  11.674
90549SOL    HW273545   2.166   9.682  11.534
90550SOL     OW73546   2.582   3.975   8.489
90550SOL    HW173547   2.574   3.882   8.470
90550SOL    HW273548   2.636   4.009   8.417
90551SOL     OW73549   3.548   0.527   2.540
90551SOL    HW173550   3.527   0.466   2.611
90551SOL    HW273551   3.634   0.499   2.509
90552SOL     OW73552   0.123  13.538   1.066
90552SOL    HW173553   0.206  13.559   1.025
90552SOL    HW273554   0.136  13.559   1.159
90553SOL     OW73555   3.943   3.684  11.638
90553SOL    HW173556   4.034   3.670  11.665
90553SOL    HW273557   3.903   3.597  11.644
90554SOL     OW73558   3.000   9.153  10.391
90554SOL    HW173559   3.058   9.092  10.436
90554SOL    HW273560   3.028   9.148  10.299
90555SOL     OW73561  10.827   6.703   1.981
90555SOL    HW173562  10.841   6.707   1.887
90555SOL    HW273563  10.810   6.610   1.999
90556SOL     OW73564   4.686  11.032   1.726
90556SOL    HW173565   4.732  10.973   1.785
90556SOL    HW273566   4.725  11.017   1.641
90557SOL     OW73567   4.324   0.188   9.454
90557SOL    HW173568   4.413   0.201   9.487
90557SOL    HW273569   4.336   0.156   9.365
90558SOL     OW73570  10.761   0.025  13.098
90558SOL    HW173571  10.758  14.856  13.185
90558SOL    HW273572  10.848   0.002  13.065
90559SOL     OW73573   0.144   3.074   1.391
90559SOL    HW173574   0.059   3.031   1.394
90559SOL    HW273575   0.133   3.151   1.447
90560SOL     OW73576   9.507   0.376   9.038
90560SOL    HW173577   9.574   0.354   9.103
90560SOL    HW273578   9.523   0.315   8.966
90561SOL     OW73579   3.513   4.355   7.770
90561SOL    HW173580   3.465   4.329   7.691
90561SOL    HW273581   3.568   4.279   7.791
90562SOL     OW73582   7.207   7.268   0.727
90562SOL    HW173583   7.222   7.181   0.690
90562SOL    HW273584   7.123   7.295   0.690
90563SOL     OW73585  12.308   7.379  14.296
90563SOL    HW173586  12.272   7.356  14.381
90563SOL    HW273587  12.371   7.310  14.277
90564SOL     OW73588   0.976  14.591   7.108
90564SOL    HW173589   0.899  14.624   7.154
90564SOL    HW273590   1.036  14.563   7.177
90565SOL     OW73591   1.818  11.819   7.627
90565SOL    HW173592   1.847  11.741   7.579
90565SOL    HW273593   1.899  11.866   7.647
90566SOL     OW73594   2.953  10.243   6.016
90566SOL    HW173595   3.015  10.286   6.075
90566SOL    HW273596   2.931  10.161   6.059
90567SOL     OW73597   1.538   5.817   6.041
90567SOL    HW173598   1.462   5.791   6.094
90567SOL    HW273599   1.519   5.907   6.014
90568SOL     OW73600  13.458  12.456   9.896
90568SOL    HW173601  13.492  12.546   9.894
90568SOL    HW273602  13.530  12.402   9.865
90569SOL     OW73603   8.421   4.673   3.383
90569SOL    HW173604   8.333   4.673   3.421
90569SOL    HW273605   8.447   4.581   3.383
90570SOL     OW73606   7.234   1.514   7.623
90570SOL    HW173607   7.300   1.565   7.576
90570SOL    HW273608   7.244   1.541   7.715
90571SOL     OW73609  10.170   5.778  14.291
90571SOL    HW173610  10.108   5.835  14.336
90571SOL    HW273611  10.256   5.805  14.326
90572SOL     OW73612   0.979  12.222   4.877
90572SOL    HW173613   0.993  12.283   4.804
90572SOL    HW273614   0.921  12.155   4.841
90573SOL     OW73615   8.889   4.558   1.963
90573SOL    HW173616   8.796   4.564   1.943
90573SOL    HW273617   8.902   4.617   2.037
90574SOL     OW73618   3.269  13.800   5.621
90574SOL    HW173619   3.223  13.877   5.588
90574SOL    HW273620   3.323  13.770   5.548
90575SOL     OW73621   9.658  13.241  10.876
90575SOL    HW173622   9.657  13.271  10.966
90575SOL    HW273623   9.742  13.270  10.841
90576SOL     OW73624   4.220   3.267   5.033
90576SOL    HW173625   4.155   3.208   5.071
90576SOL    HW273626   4.196   3.353   5.065
90577SOL     OW73627   3.963   6.791  11.238
90577SOL    HW173628   3.944   6.853  11.168
90577SOL    HW273629   4.038   6.741  11.207
90578SOL     OW73630  14.725  10.032   9.481
90578SOL    HW173631  14.656  10.035   9.548
90578SOL    HW273632  14.698  10.097   9.416
90579SOL     OW73633  12.778   9.888  12.557
90579SOL    HW173634  12.823   9.971  12.541
90579SOL    HW273635  12.741   9.897  12.645
90580SOL     OW73636   0.260  10.278  14.571
90580SOL    HW173637   0.200  10.205  14.583
90580SOL    HW273638   0.347  10.240  14.576
90581SOL     OW73639   5.943   4.974   4.538
90581SOL    HW173640   6.001   4.976   4.614
90581SOL    HW273641   5.996   5.011   4.467
90582SOL     OW73642   7.144  12.068   7.710
90582SOL    HW173643   7.152  11.984   7.664
90582SOL    HW273644   7.128  12.044   7.801
90583SOL     OW73645  11.346   4.723   3.768
90583SOL    HW173646  11.344   4.737   3.673
90583SOL    HW273647  11.382   4.635   3.778
90584SOL     OW73648   7.589  12.903   3.255
90584SOL    HW173649   7.550  12.962   3.190
90584SOL    HW273650   7.515  12.874   3.308
90585SOL     OW73651   1.497   4.455   6.946
90585SOL    HW173652   1.582   4.448   6.990
90585SOL    HW273653   1.439   4.400   6.998
90586SOL     OW73654   8.667  14.688  11.762
90586SOL    HW173655   8.589  14.713  11.713
90586SOL    HW273656   8.739  14.699  11.700
90587SOL     OW73657   0.352  11.260   6.547
90587SOL    HW173658   0.439  11.297   6.533
90587SOL    HW273659   0.366  11.166   6.553
90588SOL     OW73660   3.214   5.285   9.473
90588SOL    HW173661   3.263   5.203   9.467
90588SOL    HW273662   3.172   5.294   9.388
90589SOL     OW73663  10.281   4.382   0.058
90589SOL    HW173664  10.374   4.406   0.053
90589SOL    HW273665  10.240   4.453   0.107
90590SOL     OW73666   7.432   9.586  10.849
90590SOL    HW173667   7.475   9.633  10.921
90590SOL    HW273668   7.470   9.624  10.770
90591SOL     OW73669   2.002   5.310   4.770
90591SOL    HW173670   2.052   5.353   4.839
90591SOL    HW273671   1.953   5.381   4.727
90592SOL     OW73672   0.018   7.382  10.177
90592SOL    HW173673  14.856   7.392  10.088
90592SOL    HW273674  14.864   7.464  10.221
90593SOL     OW73675   7.116  13.120   6.276
90593SOL    HW173676   7.165  13.120   6.193
90593SOL    HW273677   7.024  13.127   6.250
90594SOL     OW73678  12.959   1.378   7.331
90594SOL    HW173679  12.955   1.352   7.423
90594SOL    HW273680  13.039   1.337   7.298
90595SOL     OW73681   0.945  14.839  13.073
90595SOL    HW173682   0.973   0.026  13.145
90595SOL    HW273683   0.880   0.022  13.026
90596SOL     OW73684  11.611   1.595   2.438
90596SOL    HW173685  11.606   1.690   2.434
90596SOL    HW273686  11.705   1.576   2.435
90597SOL     OW73687  12.051   3.616   0.310
90597SOL    HW173688  11.958   3.604   0.328
90597SOL    HW273689  12.085   3.527   0.298
90598SOL     OW73690   2.472   7.164  10.290
90598SOL    HW173691   2.556   7.118  10.280
90598SOL    HW273692   2.495   7.256  10.284
90599SOL     OW73693   7.281   8.710   3.185
90599SOL    HW173694   7.308   8.750   3.268
90599SOL    HW273695   7.200   8.664   3.207
90600SOL     OW73696   6.490  10.748  11.650
90600SOL    HW173697   6.583  10.740  11.627
90600SOL    HW273698   6.445  10.747  11.565
90601SOL     OW73699   0.568  11.417   9.594
90601SOL    HW173700   0.526  11.485   9.647
90601SOL    HW273701   0.540  11.436   9.504
90602SOL     OW73702   4.229  14.085  13.981
90602SOL    HW173703   4.297  14.140  13.942
90602SOL    HW273704   4.166  14.147  14.017
90603SOL     OW73705   2.961  12.163   7.646
90603SOL    HW173706   3.047  12.129   7.623
90603SOL    HW273707   2.978  12.251   7.680
90604SOL     OW73708  11.200   7.227  13.315
90604SOL    HW173709  11.260   7.299  13.333
90604SOL    HW273710  11.125   7.242  13.373
90605SOL     OW73711   7.291   0.117  12.626
90605SOL    HW173712   7.381   0.083  12.629
90605SOL    HW273713   7.302   0.212  12.630
90606SOL     OW73714   8.372  12.125  10.757
90606SOL    HW173715   8.442  12.162  10.811
90606SOL    HW273716   8.311  12.088  10.820
90607SOL     OW73717  12.886   9.543  14.685
90607SOL    HW173718  12.952   9.496  14.735
90607SOL    HW273719  12.809   9.545  14.742
90608SOL     OW73720  13.578  11.060   7.585
90608SOL    HW173721  13.487  11.087   7.596
90608SOL    HW273722  13.622  11.138   7.549
90609SOL     OW73723   9.814  11.857   6.103
90609SOL    HW173724   9.869  11.833   6.178
90609SOL    HW273725   9.869  11.914   6.050
90610SOL     OW73726   8.788   1.078   5.987
90610SOL    HW173727   8.873   1.036   6.003
90610SOL    HW273728   8.753   1.032   5.910
90611SOL     OW73729   7.502   5.344  10.730
90611SOL    HW173730   7.517   5.275  10.795
90611SOL    HW273731   7.439   5.403  10.772
90612SOL     OW73732  14.505   8.948   4.355
90612SOL    HW173733  14.468   8.920   4.439
90612SOL    HW273734  14.444   8.913   4.289
90613SOL     OW73735   3.453   9.881   6.076
90613SOL    HW173736   3.465   9.877   6.170
90613SOL    HW273737   3.476   9.971   6.052
90614SOL     OW73738   4.676   5.231  10.435
90614SOL    HW173739   4.634   5.161  10.485
90614SOL    HW273740   4.735   5.186  10.374
90615SOL     OW73741   5.605   5.835   9.139
90615SOL    HW173742   5.534   5.814   9.200
90615SOL    HW273743   5.566   5.826   9.052
90616SOL     OW73744  11.034   0.186   1.888
90616SOL    HW173745  11.081   0.197   1.971
90616SOL    HW273746  11.082   0.116   1.843
90617SOL     OW73747   0.525   2.874   3.587
90617SOL    HW173748   0.615   2.841   3.586
90617SOL    HW273749   0.535   2.969   3.575
90618SOL     OW73750  11.922   4.914  10.391
90618SOL    HW173751  11.855   4.946  10.330
90618SOL    HW273752  11.993   4.977  10.384
90619SOL     OW73753   9.331  11.949  13.844
90619SOL    HW173754   9.271  11.952  13.769
90619SOL    HW273755   9.344  12.041  13.867
90620SOL     OW73756   7.258   0.722   9.419
90620SOL    HW173757   7.314   0.800   9.409
90620SOL    HW273758   7.178   0.744   9.371
90621SOL     OW73759  11.793   9.115   4.959
90621SOL    HW173760  11.743   9.064   5.023
90621SOL    HW273761  11.880   9.073   4.957
90622SOL     OW73762   9.647   0.578  10.151
90622SOL    HW173763   9.610   0.553  10.066
90622SOL    HW273764   9.587   0.644  10.184
90623SOL     OW73765   7.127  12.775  13.651
90623SOL    HW173766   7.148  12.866  13.670
90623SOL    HW273767   7.210  12.736  13.623
90624SOL     OW73768  14.067  13.769   5.892
90624SOL    HW173769  14.053  13.710   5.818
90624SOL    HW273770  13.983  13.812   5.906
90625SOL     OW73771   1.097  13.459   6.582
90625SOL    HW173772   1.046  13.378   6.582
90625SOL    HW273773   1.036  13.525   6.616
90626SOL     OW73774   1.869   8.868   6.943
90626SOL    HW173775   1.950   8.909   6.911
90626SOL    HW273776   1.799   8.922   6.907
90627SOL     OW73777  14.168  10.124   9.317
90627SOL    HW173778  14.257  10.093   9.304
90627SOL    HW273779  14.125  10.110   9.233
90628SOL     OW73780   4.584  13.456   4.588
90628SOL    HW173781   4.628  13.371   4.590
90628SOL    HW273782   4.580  13.483   4.680
90629SOL     OW73783   5.862   6.925   9.965
90629SOL    HW173784   5.822   6.957  10.045
90629SOL    HW273785   5.791   6.922   9.901
90630SOL     OW73786   2.970  14.492  13.067
90630SOL    HW173787   2.984  14.580  13.033
90630SOL    HW273788   3.040  14.480  13.131
90631SOL     OW73789   9.398   1.458  11.668
90631SOL    HW173790   9.486   1.484  11.643
90631SOL    HW273791   9.349   1.540  11.675
90632SOL     OW73792   6.856   0.399   4.505
90632SOL    HW173793   6.825   0.473   4.453
90632SOL    HW273794   6.777   0.367   4.551
90633SOL     OW73795   5.059  10.746  12.659
90633SOL    HW173796   4.975  10.782  12.687
90633SOL    HW273797   5.123  10.810  12.690
90634SOL     OW73798  14.231   2.721  11.440
90634SOL    HW173799  14.283   2.718  11.360
90634SOL    HW273800  14.296   2.726  11.511
90635SOL     OW73801   9.433  13.439   2.775
90635SOL    HW173802   9.390  13.521   2.749
90635SOL    HW273803   9.366  13.372   2.763
90636SOL     OW73804  10.865   2.196   3.172
90636SOL    HW173805  10.832   2.128   3.231
90636SOL    HW273806  10.959   2.201   3.193
90637SOL     OW73807   1.990   9.481   8.847
90637SOL    HW173808   1.970   9.514   8.759
90637SOL    HW273809   1.980   9.556   8.904
90638SOL     OW73810   3.936  14.107  10.074
90638SOL    HW173811   3.945  14.104   9.979
90638SOL    HW273812   4.023  14.087  10.108
90639SOL     OW73813   4.888   6.857   0.673
90639SOL    HW173814   4.886   6.765   0.697
90639SOL    HW273815   4.893   6.858   0.578
90640SOL     OW73816  10.338  14.870  14.433
90640SOL    HW173817  10.266   0.059  14.453
90640SOL    HW273818  10.299  14.782  14.436
90641SOL     OW73819   3.850  14.332  10.519
90641SOL    HW173820   3.863  14.240  10.497
90641SOL    HW273821   3.919  14.378  10.471
90642SOL     OW73822  13.354   8.037   0.599
90642SOL    HW173823  13.439   8.073   0.623
90642SOL    HW273824  13.373   7.980   0.525
90643SOL     OW73825   6.342   4.647   1.535
90643SOL    HW173826   6.385   4.733   1.532
90643SOL    HW273827   6.315   4.630   1.445
90644SOL     OW73828   0.588  12.854   6.078
90644SOL    HW173829   0.519  12.867   6.013
90644SOL    HW273830   0.638  12.779   6.046
90645SOL     OW73831   4.888   3.543  10.855
90645SOL    HW173832   4.794   3.548  10.875
90645SOL    HW273833   4.902   3.451  10.833
90646SOL     OW73834   6.506   2.992   2.293
90646SOL    HW173835   6.467   3.075   2.320
90646SOL    HW273836   6.561   3.015   2.218
90647SOL     OW73837   6.073   7.623   0.564
90647SOL    HW173838   6.168   7.620   0.571
90647SOL    HW273839   6.054   7.585   0.478
90648SOL     OW73840   0.064  13.239  10.399
90648SOL    HW173841   0.031  13.186  10.327
90648SOL    HW273842   0.051  13.329  10.371
90649SOL     OW73843   1.553  12.837  13.565
90649SOL    HW173844   1.593  12.905  13.619
90649SOL    HW273845   1.459  12.843  13.585
90650SOL     OW73846   1.415   7.154   7.588
90650SOL    HW173847   1.353   7.158   7.661
90650SOL    HW273848   1.380   7.086   7.530
90651SOL     OW73849   1.515  12.202   5.124
90651SOL    HW173850   1.504  12.288   5.166
90651SOL    HW273851   1.535  12.142   5.196
90652SOL     OW73852  13.333   6.199  10.889
90652SOL    HW173853  13.390   6.273  10.869
90652SOL    HW273854  13.281   6.186  10.809
90653SOL     OW73855  10.904   1.069   9.137
90653SOL    HW173856  10.834   1.067   9.201
90653SOL    HW273857  10.911   0.978   9.107
90654SOL     OW73858  14.280  10.695  14.618
90654SOL    HW173859  14.366  10.715  14.579
90654SOL    HW273860  14.217  10.733  14.557
90655SOL     OW73861  10.091   5.595  13.162
90655SOL    HW173862  10.184   5.614  13.180
90655SOL    HW273863  10.044   5.671  13.195
90656SOL     OW73864  13.109  10.061   7.276
90656SOL    HW173865  13.127   9.987   7.219
90656SOL    HW273866  13.190  10.113   7.273
90657SOL     OW73867   8.473  10.887   8.141
90657SOL    HW173868   8.456  10.846   8.056
90657SOL    HW273869   8.430  10.972   8.137
90658SOL     OW73870   1.106  14.255   2.868
90658SOL    HW173871   1.119  14.162   2.885
90658SOL    HW273872   1.173  14.299   2.920
90659SOL     OW73873   7.925   7.680  13.289
90659SOL    HW173874   7.970   7.648  13.367
90659SOL    HW273875   7.985   7.745  13.251
90660SOL     OW73876  11.133   5.038   3.694
90660SOL    HW173877  11.071   5.100   3.656
90660SOL    HW273878  11.080   4.983   3.752
90661SOL     OW73879   4.072  12.996  12.181
90661SOL    HW173880   4.100  12.953  12.100
90661SOL    HW273881   4.011  13.063  12.153
90662SOL     OW73882   3.354   9.363  11.066
90662SOL    HW173883   3.387   9.452  11.079
90662SOL    HW273884   3.432   9.308  11.076
90663SOL     OW73885   5.493   4.946   0.348
90663SOL    HW173886   5.501   4.911   0.437
90663SOL    HW273887   5.494   5.041   0.360
90664SOL     OW73888   4.662   0.052  13.850
90664SOL    HW173889   4.585   0.023  13.801
90664SOL    HW273890   4.627   0.092  13.929
90665SOL     OW73891  12.405   8.690   9.357
90665SOL    HW173892  12.324   8.722   9.398
90665SOL    HW273893  12.417   8.603   9.394
90666SOL     OW73894   7.276   8.916   8.366
90666SOL    HW173895   7.205   8.950   8.312
90666SOL    HW273896   7.238   8.839   8.409
90667SOL     OW73897  13.870  14.662   6.215
90667SOL    HW173898  13.949  14.710   6.241
90667SOL    HW273899  13.799  14.727   6.223
90668SOL     OW73900  11.499  14.054   7.112
90668SOL    HW173901  11.470  13.963   7.110
90668SOL    HW273902  11.522  14.070   7.203
90669SOL     OW73903  14.487  12.248   3.567
90669SOL    HW173904  14.492  12.343   3.583
90669SOL    HW273905  14.530  12.236   3.482
90670SOL     OW73906   2.151   8.658  10.898
90670SOL    HW173907   2.064   8.676  10.932
90670SOL    HW273908   2.136   8.609  10.817
90671SOL     OW73909   5.661  11.736   9.781
90671SOL    HW173910   5.625  11.716   9.867
90671SOL    HW273911   5.676  11.650   9.741
90672SOL     OW73912  11.832  13.092   3.752
90672SOL    HW173913  11.876  13.036   3.688
90672SOL    HW273914  11.841  13.046   3.835
90673SOL     OW73915  13.919   6.989   5.359
90673SOL    HW173916  13.976   6.915   5.339
90673SOL    HW273917  13.892   7.022   5.274
90674SOL     OW73918   2.312   8.529   3.931
90674SOL    HW173919   2.266   8.460   3.979
90674SOL    HW273920   2.250   8.601   3.926
90675SOL     OW73921  11.185  13.472   0.283
90675SOL    HW173922  11.239  13.419   0.225
90675SOL    HW273923  11.238  13.548   0.305
90676SOL     OW73924   1.058   3.214   1.086
90676SOL    HW173925   1.143   3.202   1.129
90676SOL    HW273926   1.078   3.225   0.994
90677SOL     OW73927   7.406   0.231  14.539
90677SOL    HW173928   7.332   0.291  14.545
90677SOL    HW273929   7.396   0.190  14.453
90678SOL     OW73930   1.873   4.149   3.089
90678SOL    HW173931   1.844   4.140   2.999
90678SOL    HW273932   1.866   4.061   3.126
90679SOL     OW73933   2.587   8.586   7.536
90679SOL    HW173934   2.524   8.551   7.473
90679SOL    HW273935   2.671   8.587   7.489
90680SOL     OW73936   7.651  10.813   3.440
90680SOL    HW173937   7.615  10.880   3.382
90680SOL    HW273938   7.727  10.779   3.394
90681SOL     OW73939   2.033  11.972  10.942
90681SOL    HW173940   2.100  11.996  10.878
90681SOL    HW273941   1.954  11.955  10.889
90682SOL     OW73942   2.267   0.346   1.344
90682SOL    HW173943   2.251   0.378   1.433
90682SOL    HW273944   2.358   0.317   1.345
90683SOL     OW73945  12.491   5.578   8.953
90683SOL    HW173946  12.510   5.503   9.009
90683SOL    HW273947  12.424   5.628   9.000
90684SOL     OW73948  10.624   9.846  12.209
90684SOL    HW173949  10.604   9.910  12.141
90684SOL    HW273950  10.671   9.896  12.276
90685SOL     OW73951   2.743  11.334  12.763
90685SOL    HW173952   2.808  11.396  12.728
90685SOL    HW273953   2.761  11.333  12.857
90686SOL     OW73954   3.679   8.809  11.522
90686SOL    HW173955   3.730   8.749  11.466
90686SOL    HW273956   3.722   8.803  11.607
90687SOL     OW73957  13.979   5.880  11.913
90687SOL    HW173958  13.956   5.937  11.839
90687SOL    HW273959  14.016   5.938  11.979
90688SOL     OW73960  11.691   2.717  10.364
90688SOL    HW173961  11.652   2.644  10.413
90688SOL    HW273962  11.637   2.793  10.388
90689SOL     OW73963   4.975   4.609   1.600
90689SOL    HW173964   4.903   4.646   1.650
90689SOL    HW273965   4.992   4.524   1.641
90690SOL     OW73966  13.256   4.187  12.635
90690SOL    HW173967  13.163   4.207  12.647
90690SOL    HW273968  13.287   4.252  12.572
90691SOL     OW73969   1.265   8.921  14.736
90691SOL    HW173970   1.215   8.990  14.780
90691SOL    HW273971   1.320   8.884  14.805
90692SOL     OW73972   0.106   9.482  12.778
90692SOL    HW173973   0.197   9.450  12.781
90692SOL    HW273974   0.062   9.435  12.849
90693SOL     OW73975   5.151   5.011   8.922
90693SOL    HW173976   5.191   5.088   8.963
90693SOL    HW273977   5.225   4.961   8.888
90694SOL     OW73978   0.499  12.612  11.386
90694SOL    HW173979   0.501  12.695  11.433
90694SOL    HW273980   0.588  12.577  11.394
90695SOL     OW73981   2.975   5.545  13.413
90695SOL    HW173982   2.924   5.477  13.368
90695SOL    HW273983   3.066   5.527  13.388
90696SOL     OW73984   1.301   9.435  11.864
90696SOL    HW173985   1.257   9.455  11.781
90696SOL    HW273986   1.287   9.342  11.877
90697SOL     OW73987  14.514   1.830   1.954
90697SOL    HW173988  14.590   1.869   1.911
90697SOL    HW273989  14.446   1.830   1.886
90698SOL     OW73990   9.516   6.449  10.097
90698SOL    HW173991   9.530   6.528  10.046
90698SOL    HW273992   9.604   6.419  10.121
90699SOL     OW73993   1.987   9.261  12.312
90699SOL    HW173994   2.006   9.168  12.309
90699SOL    HW273995   2.053   9.301  12.255
90700SOL     OW73996   6.840   1.236  10.366
90700SOL    HW173997   6.887   1.157  10.339
90700SOL    HW273998   6.750   1.223  10.338
90701SOL     OW73999  11.009  11.227   8.575
90701SOL    HW174000  10.967  11.145   8.602
90701SOL    HW274001  11.064  11.202   8.501
90702SOL     OW74002   2.288   8.978   8.646
90702SOL    HW174003   2.246   8.998   8.729
90702SOL    HW274004   2.381   8.990   8.662
90703SOL     OW74005   9.603  14.791   7.194
90703SOL    HW174006   9.542  14.735   7.242
90703SOL    HW274007   9.608  14.753   7.106
90704SOL     OW74008   0.035   3.873   5.779
90704SOL    HW174009   0.084   3.834   5.851
90704SOL    HW274010  14.821   3.826   5.779
90705SOL     OW74011  14.615  12.373   6.141
90705SOL    HW174012  14.640  12.357   6.232
90705SOL    HW274013  14.561  12.452   6.145
90706SOL     OW74014  13.737  13.755   7.522
90706SOL    HW174015  13.700  13.734   7.436
90706SOL    HW274016  13.830  13.739   7.513
90707SOL     OW74017  14.066   6.085   3.800
90707SOL    HW174018  14.102   6.048   3.719
90707SOL    HW274019  13.974   6.059   3.799
90708SOL     OW74020   9.030   4.872   8.555
90708SOL    HW174021   9.113   4.919   8.562
90708SOL    HW274022   9.037   4.825   8.471
90709SOL     OW74023   3.120  10.005   3.148
90709SOL    HW174024   3.080   9.993   3.235
90709SOL    HW274025   3.107  10.098   3.129
90710SOL     OW74026   7.587   4.033  14.180
90710SOL    HW174027   7.589   4.053  14.273
90710SOL    HW274028   7.674   3.998  14.161
90711SOL     OW74029  14.506   7.819   0.931
90711SOL    HW174030  14.465   7.879   0.994
90711SOL    HW274031  14.456   7.738   0.939
90712SOL     OW74032   8.763   8.928  12.202
90712SOL    HW174033   8.724   9.000  12.152
90712SOL    HW274034   8.730   8.940  12.291
90713SOL     OW74035  13.712   6.333  12.928
90713SOL    HW174036  13.704   6.428  12.939
90713SOL    HW274037  13.745   6.322  12.839
90714SOL     OW74038   6.979   5.215   8.791
90714SOL    HW174039   7.014   5.259   8.868
90714SOL    HW274040   7.055   5.203   8.734
90715SOL     OW74041  10.518   5.628  12.703
90715SOL    HW174042  10.604   5.642  12.663
90715SOL    HW274043  10.479   5.559  12.650
90716SOL     OW74044  13.913   5.411   1.283
90716SOL    HW174045  13.841   5.447   1.335
90716SOL    HW274046  13.987   5.408   1.344
90717SOL     OW74047   5.413   4.210   3.349
90717SOL    HW174048   5.347   4.157   3.304
90717SOL    HW274049   5.420   4.289   3.296
90718SOL     OW74050  14.825   9.912  10.907
90718SOL    HW174051  14.867   9.993  10.878
90718SOL    HW274052   0.025   9.863  10.951
90719SOL     OW74053  10.988   8.455  11.577
90719SOL    HW174054  10.953   8.541  11.599
90719SOL    HW274055  10.955   8.397  11.645
90720SOL     OW74056   1.186  13.510  10.423
90720SOL    HW174057   1.157  13.585  10.474
90720SOL    HW274058   1.117  13.498  10.357
90721SOL     OW74059   6.825   7.209   4.399
90721SOL    HW174060   6.824   7.283   4.339
90721SOL    HW274061   6.799   7.247   4.484
90722SOL     OW74062   1.627   8.066   6.678
90722SOL    HW174063   1.662   8.002   6.616
90722SOL    HW274064   1.666   8.149   6.652
90723SOL     OW74065   3.835  11.320  10.552
90723SOL    HW174066   3.915  11.367  10.527
90723SOL    HW274067   3.862  11.262  10.623
90724SOL     OW74068  12.579   0.712   0.102
90724SOL    HW174069  12.604   0.803   0.120
90724SOL    HW274070  12.503   0.697   0.158
90725SOL     OW74071   8.164  11.981   3.621
90725SOL    HW174072   8.110  11.957   3.696
90725SOL    HW274073   8.108  11.966   3.545
90726SOL     OW74074   8.067  14.477   9.124
90726SOL    HW174075   8.117  14.527   9.189
90726SOL    HW274076   8.117  14.396   9.113
90727SOL     OW74077   9.901   0.269   3.283
90727SOL    HW174078   9.920   0.193   3.338
90727SOL    HW274079   9.894   0.233   3.195
90728SOL     OW74080  12.054  11.147  10.879
90728SOL    HW174081  12.085  11.134  10.790
90728SOL    HW274082  11.968  11.188  10.869
90729SOL     OW74083   2.303  10.530   2.895
90729SOL    HW174084   2.256  10.454   2.860
90729SOL    HW274085   2.377  10.492   2.943
90730SOL     OW74086   2.933   5.361   5.320
90730SOL    HW174087   2.878   5.429   5.280
90730SOL    HW274088   2.881   5.281   5.310
90731SOL     OW74089   2.100   5.544   4.553
90731SOL    HW174090   2.151   5.480   4.504
90731SOL    HW274091   2.111   5.626   4.504
90732SOL     OW74092   7.553  13.225   7.390
90732SOL    HW174093   7.583  13.282   7.462
90732SOL    HW274094   7.501  13.282   7.334
90733SOL     OW74095   3.621  11.446   5.236
90733SOL    HW174096   3.562  11.521   5.236
90733SOL    HW274097   3.564  11.371   5.219
90734SOL     OW74098  12.813   4.700  13.332
90734SOL    HW174099  12.872   4.771  13.308
90734SOL    HW274100  12.740   4.744  13.376
90735SOL     OW74101   2.652   9.326  13.396
90735SOL    HW174102   2.575   9.366  13.437
90735SOL    HW274103   2.713   9.311  13.469
90736SOL     OW74104  13.935  11.870   3.612
90736SOL    HW174105  13.871  11.894   3.679
90736SOL    HW274106  13.982  11.952   3.594
90737SOL     OW74107   2.187   8.136  12.161
90737SOL    HW174108   2.156   8.223  12.139
90737SOL    HW274109   2.220   8.101  12.078
90738SOL     OW74110  10.329   8.006   2.665
90738SOL    HW174111  10.320   7.976   2.756
90738SOL    HW274112  10.265   8.077   2.657
90739SOL     OW74113   7.751   4.311   7.089
90739SOL    HW174114   7.808   4.370   7.138
90739SOL    HW274115   7.744   4.351   7.002
90740SOL     OW74116  10.595   6.002  10.243
90740SOL    HW174117  10.550   6.007  10.327
90740SOL    HW274118  10.679   5.962  10.262
90741SOL     OW74119  11.056  12.696   5.773
90741SOL    HW174120  11.003  12.662   5.702
90741SOL    HW274121  11.017  12.781   5.794
90742SOL     OW74122   5.056   1.154   3.060
90742SOL    HW174123   5.150   1.141   3.069
90742SOL    HW274124   5.031   1.096   2.988
90743SOL     OW74125   8.723   8.150  12.944
90743SOL    HW174126   8.792   8.137  12.879
90743SOL    HW274127   8.644   8.119  12.901
90744SOL     OW74128   8.070   3.926   8.169
90744SOL    HW174129   8.042   3.915   8.078
90744SOL    HW274130   7.988   3.924   8.219
90745SOL     OW74131  11.698  12.414   9.475
90745SOL    HW174132  11.675  12.453   9.391
90745SOL    HW274133  11.615  12.384   9.512
90746SOL     OW74134  10.319  11.792   8.266
90746SOL    HW174135  10.280  11.879   8.256
90746SOL    HW274136  10.251  11.740   8.308
90747SOL     OW74137   5.230   2.554  12.071
90747SOL    HW174138   5.309   2.536  12.121
90747SOL    HW274139   5.253   2.533  11.981
90748SOL     OW74140   5.898   5.562  12.821
90748SOL    HW174141   5.843   5.489  12.793
90748SOL    HW274142   5.856   5.640  12.785
90749SOL     OW74143   6.361   4.764   6.534
90749SOL    HW174144   6.384   4.856   6.520
90749SOL    HW274145   6.299   4.744   6.463
90750SOL     OW74146   3.246  13.946   0.266
90750SOL    HW174147   3.192  13.875   0.300
90750SOL    HW274148   3.183  14.009   0.231
90751SOL     OW74149   4.681   7.100  13.716
90751SOL    HW174150   4.770   7.074  13.738
90751SOL    HW274151   4.628   7.023  13.738
90752SOL     OW74152   9.690  11.482   9.517
90752SOL    HW174153   9.757  11.493   9.585
90752SOL    HW274154   9.635  11.560   9.524
90753SOL     OW74155  13.163   9.338   2.797
90753SOL    HW174156  13.178   9.386   2.715
90753SOL    HW274157  13.240   9.282   2.806
90754SOL     OW74158   7.063   1.980  13.597
90754SOL    HW174159   7.150   1.942  13.601
90754SOL    HW274160   7.072   2.066  13.638
90755SOL     OW74161   3.553  14.788   1.779
90755SOL    HW174162   3.538  14.695   1.766
90755SOL    HW274163   3.621  14.811   1.716
90756SOL     OW74164   6.336   8.201  14.009
90756SOL    HW174165   6.402   8.144  14.050
90756SOL    HW274166   6.369   8.215  13.920
90757SOL     OW74167   8.871   8.575   1.156
90757SOL    HW174168   8.860   8.654   1.209
90757SOL    HW274169   8.913   8.605   1.076
90758SOL     OW74170   6.851   0.573   3.735
90758SOL    HW174171   6.909   0.496   3.736
90758SOL    HW274172   6.769   0.540   3.700
90759SOL     OW74173   9.688  11.898   9.935
90759SOL    HW174174   9.768  11.873   9.888
90759SOL    HW274175   9.713  11.898  10.027
90760SOL     OW74176  14.854   6.491   6.661
90760SOL    HW174177   0.007   6.401   6.640
90760SOL    HW274178   0.003   6.540   6.581
90761SOL     OW74179   5.988   3.676   8.510
90761SOL    HW174180   5.993   3.710   8.421
90761SOL    HW274181   5.948   3.746   8.561
90762SOL     OW74182  12.439  10.021   4.576
90762SOL    HW174183  12.496  10.009   4.500
90762SOL    HW274184  12.464  10.106   4.612
90763SOL     OW74185   0.311   1.735   9.924
90763SOL    HW174186   0.372   1.781   9.866
90763SOL    HW274187   0.324   1.777  10.009
90764SOL     OW74188   1.800  14.485  12.807
90764SOL    HW174189   1.801  14.526  12.720
90764SOL    HW274190   1.844  14.401  12.795
90765SOL     OW74191  10.196   2.129  11.735
90765SOL    HW174192  10.143   2.194  11.782
90765SOL    HW274193  10.194   2.159  11.644
90766SOL     OW74194   4.595   5.934  11.492
90766SOL    HW174195   4.532   5.955  11.561
90766SOL    HW274196   4.649   5.864  11.528
90767SOL     OW74197   6.821  12.172   1.253
90767SOL    HW174198   6.841  12.106   1.186
90767SOL    HW274199   6.869  12.143   1.330
90768SOL     OW74200  12.782   4.603   9.390
90768SOL    HW174201  12.721   4.617   9.462
90768SOL    HW274202  12.788   4.508   9.382
90769SOL     OW74203   7.149  13.253   1.223
90769SOL    HW174204   7.169  13.163   1.199
90769SOL    HW274205   7.063  13.250   1.264
90770SOL     OW74206   7.565   8.878   1.316
90770SOL    HW174207   7.636   8.819   1.294
90770SOL    HW274208   7.492   8.820   1.338
90771SOL     OW74209   4.082  10.344  12.465
90771SOL    HW174210   4.105  10.280  12.532
90771SOL    HW274211   3.989  10.329  12.449
90772SOL     OW74212   1.216   0.397   4.156
90772SOL    HW174213   1.303   0.404   4.118
90772SOL    HW274214   1.186   0.310   4.133
90773SOL     OW74215  12.393   5.211   3.059
90773SOL    HW174216  12.307   5.170   3.053
90773SOL    HW274217  12.394   5.253   3.145
90774SOL     OW74218  12.145   1.781  13.593
90774SOL    HW174219  12.124   1.700  13.546
90774SOL    HW274220  12.081   1.844  13.561
90775SOL     OW74221   3.421   0.211  13.117
90775SOL    HW174222   3.435   0.283  13.179
90775SOL    HW274223   3.405   0.254  13.033
90776SOL     OW74224   8.112   9.371   1.005
90776SOL    HW174225   8.030   9.346   1.047
90776SOL    HW274226   8.099   9.348   0.912
90777SOL     OW74227  12.084   1.345   7.506
90777SOL    HW174228  12.095   1.391   7.589
90777SOL    HW274229  12.001   1.297   7.516
90778SOL     OW74230   9.068   1.751  14.197
90778SOL    HW174231   9.069   1.657  14.217
90778SOL    HW274232   8.984   1.782  14.232
90779SOL     OW74233   5.487   2.371   5.954
90779SOL    HW174234   5.469   2.379   6.047
90779SOL    HW274235   5.554   2.303   5.949
90780SOL     OW74236   9.506  13.573   9.659
90780SOL    HW174237   9.460  13.590   9.741
90780SOL    HW274238   9.441  13.530   9.603
90781SOL     OW74239   5.639  11.373  12.066
90781SOL    HW174240   5.677  11.429  12.133
90781SOL    HW274241   5.560  11.419  12.038
90782SOL     OW74242  10.909   1.297  14.483
90782SOL    HW174243  10.905   1.262  14.572
90782SOL    HW274244  10.825   1.272  14.443
90783SOL     OW74245   3.480   1.147   0.774
90783SOL    HW174246   3.447   1.074   0.827
90783SOL    HW274247   3.513   1.210   0.838
90784SOL     OW74248  13.711  14.074  10.909
90784SOL    HW174249  13.799  14.082  10.945
90784SOL    HW274250  13.667  14.013  10.968
90785SOL     OW74251  13.941   3.247  13.123
90785SOL    HW174252  13.876   3.190  13.163
90785SOL    HW274253  13.910   3.257  13.032
90786SOL     OW74254   2.758   0.549   7.999
90786SOL    HW174255   2.723   0.637   7.986
90786SOL    HW274256   2.772   0.516   7.910
90787SOL     OW74257   0.084   1.331  10.426
90787SOL    HW174258   0.042   1.245  10.416
90787SOL    HW274259   0.176   1.311  10.440
90788SOL     OW74260  12.064   7.401   2.478
90788SOL    HW174261  12.146   7.384   2.524
90788SOL    HW274262  12.021   7.316   2.472
90789SOL     OW74263  13.251  11.212  10.305
90789SOL    HW174264  13.282  11.141  10.248
90789SOL    HW274265  13.306  11.287  10.281
90790SOL     OW74266   8.600   6.569   4.173
90790SOL    HW174267   8.584   6.623   4.097
90790SOL    HW274268   8.513   6.536   4.198
90791SOL     OW74269   7.320  13.266  14.690
90791SOL    HW174270   7.382  13.314  14.635
90791SOL    HW274271   7.286  13.197  14.633
90792SOL     OW74272   8.935   4.658  12.360
90792SOL    HW174273   8.902   4.747  12.377
90792SOL    HW274274   8.865   4.600  12.389
90793SOL     OW74275  14.220  13.626   2.225
90793SOL    HW174276  14.204  13.711   2.183
90793SOL    HW274277  14.230  13.565   2.152
90794SOL     OW74278  10.811  13.288   4.123
90794SOL    HW174279  10.879  13.225   4.098
90794SOL    HW274280  10.730  13.249   4.091
90795SOL     OW74281   4.996   3.193   1.296
90795SOL    HW174282   4.949   3.157   1.371
90795SOL    HW274283   4.980   3.287   1.299
90796SOL     OW74284  14.260   1.391  12.264
90796SOL    HW174285  14.291   1.407  12.353
90796SOL    HW274286  14.165   1.384  12.272
90797SOL     OW74287   3.140  11.745  12.203
90797SOL    HW174288   3.138  11.702  12.117
90797SOL    HW274289   3.225  11.789  12.205
90798SOL     OW74290   2.896   1.534   3.786
90798SOL    HW174291   2.888   1.441   3.769
90798SOL    HW274292   2.926   1.572   3.703
90799SOL     OW74293   8.986  11.422  11.450
90799SOL    HW174294   8.971  11.492  11.514
90799SOL    HW274295   8.943  11.453  11.370
90800SOL     OW74296   2.890   8.326   3.893
90800SOL    HW174297   2.965   8.382   3.912
90800SOL    HW274298   2.864   8.351   3.805
90801SOL     OW74299  13.543   9.921   0.595
90801SOL    HW174300  13.572  10.012   0.591
90801SOL    HW274301  13.502   9.905   0.510
90802SOL     OW74302   8.502   1.634  12.436
90802SOL    HW174303   8.416   1.675  12.431
90802SOL    HW274304   8.504   1.593  12.523
90803SOL     OW74305   1.599   0.259  10.241
90803SOL    HW174306   1.636   0.318  10.175
90803SOL    HW274307   1.672   0.241  10.300
90804SOL     OW74308   7.642   3.493   8.769
90804SOL    HW174309   7.626   3.565   8.708
90804SOL    HW274310   7.643   3.415   8.714
90805SOL     OW74311   2.346   7.144   5.759
90805SOL    HW174312   2.414   7.170   5.696
90805SOL    HW274313   2.264   7.173   5.718
90806SOL     OW74314   4.816  13.537  13.667
90806SOL    HW174315   4.866  13.573  13.595
90806SOL    HW274316   4.730  13.579  13.661
90807SOL     OW74317   5.636   3.625   5.618
90807SOL    HW174318   5.569   3.583   5.671
90807SOL    HW274319   5.590   3.696   5.573
90808SOL     OW74320  14.495   4.171   6.075
90808SOL    HW174321  14.546   4.226   6.134
90808SOL    HW274322  14.429   4.131   6.130
90809SOL     OW74323  12.697   1.593  14.036
90809SOL    HW174324  12.760   1.613  14.105
90809SOL    HW274325  12.723   1.507  14.004
90810SOL     OW74326   2.262   3.517  10.879
90810SOL    HW174327   2.180   3.562  10.899
90810SOL    HW274328   2.255   3.432  10.923
90811SOL     OW74329  11.838   3.813   3.493
90811SOL    HW174330  11.743   3.819   3.501
90811SOL    HW274331  11.866   3.901   3.466
90812SOL     OW74332   3.922   0.740   7.562
90812SOL    HW174333   3.845   0.755   7.617
90812SOL    HW274334   3.989   0.799   7.597
90813SOL     OW74335   4.115   4.296   3.992
90813SOL    HW174336   4.168   4.247   4.056
90813SOL    HW274337   4.120   4.387   4.021
90814SOL     OW74338   6.474   8.688   9.050
90814SOL    HW174339   6.532   8.740   9.105
90814SOL    HW274340   6.463   8.741   8.970
90815SOL     OW74341   8.012  12.906   2.792
90815SOL    HW174342   8.072  12.857   2.849
90815SOL    HW274343   7.934  12.919   2.845
90816SOL     OW74344   1.626   7.984   3.186
90816SOL    HW174345   1.600   8.020   3.270
90816SOL    HW274346   1.660   7.896   3.206
90817SOL     OW74347  13.539   2.604   9.765
90817SOL    HW174348  13.518   2.516   9.796
90817SOL    HW274349  13.457   2.636   9.726
90818SOL     OW74350  13.512   1.338   8.259
90818SOL    HW174351  13.487   1.428   8.281
90818SOL    HW274352  13.482   1.326   8.168
90819SOL     OW74353  12.811  14.694  10.178
90819SOL    HW174354  12.771  14.699  10.091
90819SOL    HW274355  12.820  14.601  10.195
90820SOL     OW74356   3.534   9.924   9.881
90820SOL    HW174357   3.554  10.018   9.876
90820SOL    HW274358   3.608   9.887   9.930
90821SOL     OW74359   2.795   3.553   4.756
90821SOL    HW174360   2.756   3.573   4.670
90821SOL    HW274361   2.883   3.521   4.735
90822SOL     OW74362  14.677  12.524  14.610
90822SOL    HW174363  14.584  12.547  14.614
90822SOL    HW274364  14.679  12.430  14.596
90823SOL     OW74365  12.317   2.858   1.109
90823SOL    HW174366  12.283   2.844   1.021
90823SOL    HW274367  12.242   2.891   1.159
90824SOL     OW74368  12.744   5.475   9.371
90824SOL    HW174369  12.735   5.555   9.422
90824SOL    HW274370  12.808   5.422   9.419
90825SOL     OW74371  12.144   5.519  13.685
90825SOL    HW174372  12.176   5.451  13.745
90825SOL    HW274373  12.181   5.495  13.600
90826SOL     OW74374   3.432  14.854  11.592
90826SOL    HW174375   3.487  14.806  11.531
90826SOL    HW274376   3.438   0.076  11.564
90827SOL     OW74377  14.558   3.997  14.065
90827SOL    HW174378  14.624   4.030  14.004
90827SOL    HW274379  14.599   3.920  14.105
90828SOL     OW74380   0.609   1.897   8.595
90828SOL    HW174381   0.659   1.945   8.529
90828SOL    HW274382   0.646   1.925   8.679
90829SOL     OW74383   8.228  11.464   1.672
90829SOL    HW174384   8.152  11.498   1.719
90829SOL    HW274385   8.212  11.369   1.666
90830SOL     OW74386   8.222   3.888   8.852
90830SOL    HW174387   8.172   3.896   8.933
90830SOL    HW274388   8.212   3.796   8.826
90831SOL     OW74389   9.979  12.845   7.559
90831SOL    HW174390   9.927  12.878   7.633
90831SOL    HW274391  10.029  12.772   7.596
90832SOL     OW74392   8.179  12.065   0.326
90832SOL    HW174393   8.181  11.970   0.318
90832SOL    HW274394   8.242  12.085   0.395
90833SOL     OW74395  14.744  12.283  14.843
90833SOL    HW174396  14.786  12.213  14.792
90833SOL    HW274397  14.658  12.293  14.803
90834SOL     OW74398  10.152   6.113   7.891
90834SOL    HW174399  10.235   6.073   7.917
90834SOL    HW274400  10.087   6.071   7.947
90835SOL     OW74401   7.423  10.151  12.317
90835SOL    HW174402   7.467  10.075  12.355
90835SOL    HW274403   7.397  10.122  12.229
90836SOL     OW74404   2.441   3.630   9.684
90836SOL    HW174405   2.526   3.591   9.667
90836SOL    HW274406   2.381   3.583   9.626
90837SOL     OW74407   2.387   1.672  12.973
90837SOL    HW174408   2.293   1.657  12.970
90837SOL    HW274409   2.424   1.614  12.907
90838SOL     OW74410   9.486   4.430   2.042
90838SOL    HW174411   9.471   4.385   2.125
90838SOL    HW274412   9.559   4.490   2.060
90839SOL     OW74413   6.314  14.129   8.683
90839SOL    HW174414   6.323  14.085   8.767
90839SOL    HW274415   6.393  14.184   8.677
90840SOL     OW74416   4.412   7.449   4.901
90840SOL    HW174417   4.425   7.422   4.992
90840SOL    HW274418   4.474   7.395   4.851
90841SOL     OW74419   5.497  12.891   6.578
90841SOL    HW174420   5.508  12.809   6.531
90841SOL    HW274421   5.578  12.939   6.561
90842SOL     OW74422   0.268   6.269   1.975
90842SOL    HW174423   0.174   6.253   1.983
90842SOL    HW274424   0.277   6.325   1.898
90843SOL     OW74425   9.225   9.368   7.250
90843SOL    HW174426   9.203   9.299   7.313
90843SOL    HW274427   9.308   9.404   7.282
90844SOL     OW74428  11.391   1.796  10.293
90844SOL    HW174429  11.428   1.836  10.214
90844SOL    HW274430  11.309   1.757  10.263
90845SOL     OW74431   4.256   3.620  10.503
90845SOL    HW174432   4.260   3.675  10.580
90845SOL    HW274433   4.185   3.657  10.450
90846SOL     OW74434   4.992  13.113  11.604
90846SOL    HW174435   5.051  13.064  11.547
90846SOL    HW274436   5.031  13.105  11.692
90847SOL     OW74437   7.105   8.806   6.196
90847SOL    HW174438   7.140   8.725   6.235
90847SOL    HW274439   7.011   8.803   6.215
90848SOL     OW74440  12.759  11.130  13.567
90848SOL    HW174441  12.686  11.088  13.522
90848SOL    HW274442  12.835  11.110  13.512
90849SOL     OW74443   8.973   2.754  11.273
90849SOL    HW174444   8.990   2.838  11.231
90849SOL    HW274445   8.985   2.689  11.202
90850SOL     OW74446   9.351   1.972  10.991
90850SOL    HW174447   9.344   1.965  10.896
90850SOL    HW274448   9.308   1.892  11.024
90851SOL     OW74449  11.661   1.811   3.671
90851SOL    HW174450  11.681   1.892   3.719
90851SOL    HW274451  11.720   1.813   3.596
90852SOL     OW74452   8.324   4.387   3.397
90852SOL    HW174453   8.243   4.408   3.350
90852SOL    HW274454   8.330   4.292   3.394
90853SOL     OW74455   0.264  12.450  12.197
90853SOL    HW174456   0.301  12.537  12.193
90853SOL    HW274457   0.271  12.416  12.108
90854SOL     OW74458   1.108  11.785  14.597
90854SOL    HW174459   1.073  11.845  14.531
90854SOL    HW274460   1.135  11.707  14.547
90855SOL     OW74461   2.008  13.444   3.843
90855SOL    HW174462   2.095  13.476   3.816
90855SOL    HW274463   1.966  13.521   3.882
90856SOL     OW74464   8.622  13.805   9.446
90856SOL    HW174465   8.593  13.862   9.374
90856SOL    HW274466   8.709  13.775   9.418
90857SOL     OW74467   9.865  13.798   3.901
90857SOL    HW174468   9.930  13.818   3.834
90857SOL    HW274469   9.882  13.861   3.971
90858SOL     OW74470  12.184  12.360   4.686
90858SOL    HW174471  12.235  12.414   4.747
90858SOL    HW274472  12.250  12.311   4.636
90859SOL     OW74473   5.061   3.774   9.947
90859SOL    HW174474   5.012   3.822   9.880
90859SOL    HW274475   5.094   3.842  10.006
90860SOL     OW74476   6.727  10.137   8.348
90860SOL    HW174477   6.642  10.179   8.366
90860SOL    HW274478   6.747  10.161   8.258
90861SOL     OW74479   0.116  11.267  14.042
90861SOL    HW174480   0.128  11.295  13.951
90861SOL    HW274481   0.163  11.332  14.094
90862SOL     OW74482   5.373   2.026   8.937
90862SOL    HW174483   5.279   2.046   8.938
90862SOL    HW274484   5.414   2.106   8.906
90863SOL     OW74485   0.592   0.715   3.566
90863SOL    HW174486   0.644   0.755   3.635
90863SOL    HW274487   0.502   0.743   3.584
90864SOL     OW74488   3.705   0.051   1.554
90864SOL    HW174489   3.766   0.048   1.481
90864SOL    HW274490   3.633   0.107   1.524
90865SOL     OW74491   7.112  11.399  11.786
90865SOL    HW174492   7.036  11.457  11.796
90865SOL    HW274493   7.119  11.354  11.870
90866SOL     OW74494  10.452  14.558   8.397
90866SOL    HW174495  10.473  14.627   8.459
90866SOL    HW274496  10.468  14.598   8.311
90867SOL     OW74497  10.021   5.875   4.924
90867SOL    HW174498   9.943   5.825   4.899
90867SOL    HW274499  10.072   5.881   4.843
90868SOL     OW74500  13.027  10.354   4.386
90868SOL    HW174501  13.039  10.342   4.480
90868SOL    HW274502  13.064  10.439   4.367
90869SOL     OW74503  13.719  11.492   1.571
90869SOL    HW174504  13.736  11.535   1.487
90869SOL    HW274505  13.687  11.562   1.628
90870SOL     OW74506   4.905   6.781  11.390
90870SOL    HW174507   4.976   6.843  11.374
90870SOL    HW274508   4.927   6.705  11.337
90871SOL     OW74509   9.248  11.602  10.222
90871SOL    HW174510   9.287  11.515  10.218
90871SOL    HW274511   9.313  11.660  10.182
90872SOL     OW74512   8.638  12.813  10.810
90872SOL    HW174513   8.609  12.738  10.759
90872SOL    HW274514   8.562  12.870  10.817
90873SOL     OW74515   1.530  12.491   5.479
90873SOL    HW174516   1.471  12.527   5.546
90873SOL    HW274517   1.617  12.500   5.517
90874SOL     OW74518  11.698   7.905  12.642
90874SOL    HW174519  11.741   7.821  12.660
90874SOL    HW274520  11.619   7.903  12.695
90875SOL     OW74521  14.418   8.040   1.320
90875SOL    HW174522  14.343   8.012   1.373
90875SOL    HW274523  14.386   8.038   1.230
90876SOL     OW74524  12.658   4.349  13.435
90876SOL    HW174525  12.582   4.406  13.435
90876SOL    HW274526  12.623   4.262  13.454
90877SOL     OW74527   0.214   4.939  13.045
90877SOL    HW174528   0.125   4.927  13.013
90877SOL    HW274529   0.238   5.027  13.016
90878SOL     OW74530   1.174   7.307   0.111
90878SOL    HW174531   1.267   7.329   0.113
90878SOL    HW274532   1.136   7.357   0.184
90879SOL     OW74533   4.498   1.080  13.561
90879SOL    HW174534   4.589   1.077  13.591
90879SOL    HW274535   4.480   1.174  13.550
90880SOL     OW74536  10.988  12.360   1.969
90880SOL    HW174537  10.908  12.403   1.998
90880SOL    HW274538  11.045  12.360   2.046
90881SOL     OW74539   2.049   0.686   7.462
90881SOL    HW174540   2.027   0.769   7.419
90881SOL    HW274541   2.046   0.705   7.556
90882SOL     OW74542   5.603   3.451  13.032
90882SOL    HW174543   5.682   3.503  13.048
90882SOL    HW274544   5.550   3.463  13.111
90883SOL     OW74545   2.770   9.955   1.151
90883SOL    HW174546   2.737   9.865   1.149
90883SOL    HW274547   2.749   9.987   1.238
90884SOL     OW74548  13.655  13.387  14.750
90884SOL    HW174549  13.633  13.480  14.742
90884SOL    HW274550  13.573  13.342  14.730
90885SOL     OW74551   7.237  13.085   8.065
90885SOL    HW174552   7.180  13.070   7.989
90885SOL    HW274553   7.250  12.999   8.103
90886SOL     OW74554   9.148   9.993  13.121
90886SOL    HW174555   9.102  10.066  13.079
90886SOL    HW274556   9.197   9.952  13.050
90887SOL     OW74557   2.668   5.043   3.045
90887SOL    HW174558   2.683   5.126   3.000
90887SOL    HW274559   2.593   5.060   3.102
90888SOL     OW74560   4.960   9.919  14.186
90888SOL    HW174561   4.918  10.003  14.205
90888SOL    HW274562   5.051   9.931  14.215
90889SOL     OW74563   6.229   6.596  11.406
90889SOL    HW174564   6.199   6.626  11.320
90889SOL    HW274565   6.322   6.620  11.408
90890SOL     OW74566   6.570  11.936   4.049
90890SOL    HW174567   6.589  11.848   4.017
90890SOL    HW274568   6.622  11.944   4.129
90891SOL     OW74569   5.645   4.637   2.350
90891SOL    HW174570   5.681   4.630   2.438
90891SOL    HW274571   5.680   4.561   2.303
90892SOL     OW74572  12.736   7.750  11.091
90892SOL    HW174573  12.661   7.695  11.069
90892SOL    HW274574  12.803   7.726  11.028
90893SOL     OW74575   7.651   6.738  12.161
90893SOL    HW174576   7.678   6.829  12.165
90893SOL    HW274577   7.559   6.739  12.188
90894SOL     OW74578   0.742  12.381   7.817
90894SOL    HW174579   0.810  12.363   7.882
90894SOL    HW274580   0.747  12.307   7.757
90895SOL     OW74581   7.494  12.409  11.940
90895SOL    HW174582   7.585  12.386  11.961
90895SOL    HW274583   7.500  12.462  11.861
90896SOL     OW74584   7.929   0.930  10.273
90896SOL    HW174585   8.017   0.909  10.304
90896SOL    HW274586   7.918   1.022  10.293
90897SOL     OW74587  10.288   4.264   3.471
90897SOL    HW174588  10.239   4.185   3.493
90897SOL    HW274589  10.243   4.300   3.395
90898SOL     OW74590   4.947   6.474  11.642
90898SOL    HW174591   5.033   6.501  11.610
90898SOL    HW274592   4.944   6.507  11.732
90899SOL     OW74593  12.589  10.132   8.739
90899SOL    HW174594  12.669  10.158   8.693
90899SOL    HW274595  12.519  10.150   8.677
90900SOL     OW74596  12.101   6.593   5.967
90900SOL    HW174597  12.144   6.536   5.903
90900SOL    HW274598  12.155   6.672   5.968
90901SOL     OW74599   6.140   3.535   3.590
90901SOL    HW174600   6.133   3.616   3.539
90901SOL    HW274601   6.049   3.508   3.605
90902SOL     OW74602   8.296   6.367   3.668
90902SOL    HW174603   8.335   6.299   3.612
90902SOL    HW274604   8.366   6.432   3.679
90903SOL     OW74605   6.332   7.279  12.208
90903SOL    HW174606   6.328   7.281  12.113
90903SOL    HW274607   6.253   7.231  12.234
90904SOL     OW74608   5.881   6.202  10.445
90904SOL    HW174609   5.796   6.240  10.466
90904SOL    HW274610   5.896   6.226  10.354
90905SOL     OW74611   3.829   2.382   7.401
90905SOL    HW174612   3.921   2.365   7.421
90905SOL    HW274613   3.804   2.312   7.340
90906SOL     OW74614   3.434  12.498   4.343
90906SOL    HW174615   3.487  12.426   4.377
90906SOL    HW274616   3.351  12.491   4.390
90907SOL     OW74617  10.519   6.448   7.064
90907SOL    HW174618  10.556   6.531   7.093
90907SOL    HW274619  10.589   6.407   7.013
90908SOL     OW74620   5.628  13.558  12.815
90908SOL    HW174621   5.543  13.573  12.857
90908SOL    HW274622   5.621  13.602  12.730
90909SOL     OW74623   2.623  12.182   0.082
90909SOL    HW174624   2.643  12.153   0.171
90909SOL    HW274625   2.655  12.272   0.078
90910SOL     OW74626  13.998   4.066   9.960
90910SOL    HW174627  14.091   4.047   9.947
90910SOL    HW274628  13.958   4.052   9.874
90911SOL     OW74629   0.300  13.675   7.109
90911SOL    HW174630   0.377  13.618   7.100
90911SOL    HW274631   0.311  13.716   7.195
90912SOL     OW74632  12.233   2.859  14.146
90912SOL    HW174633  12.269   2.898  14.066
90912SOL    HW274634  12.278   2.903  14.217
90913SOL     OW74635   9.131   0.675  10.521
90913SOL    HW174636   9.151   0.741  10.589
90913SOL    HW274637   9.157   0.592  10.560
90914SOL     OW74638  14.172   2.419  10.455
90914SOL    HW174639  14.127   2.435  10.372
90914SOL    HW274640  14.188   2.325  10.455
90915SOL     OW74641   5.580   3.444   3.729
90915SOL    HW174642   5.569   3.536   3.707
90915SOL    HW274643   5.574   3.440   3.824
90916SOL     OW74644  10.847   5.221   3.638
90916SOL    HW174645  10.908   5.291   3.617
90916SOL    HW274646  10.771   5.237   3.581
90917SOL     OW74647  13.465   2.327   3.953
90917SOL    HW174648  13.527   2.257   3.972
90917SOL    HW274649  13.440   2.361   4.039
90918SOL     OW74650  10.364  10.539  10.685
90918SOL    HW174651  10.269  10.551  10.685
90918SOL    HW274652  10.400  10.626  10.669
90919SOL     OW74653  14.279  13.176   5.126
90919SOL    HW174654  14.301  13.083   5.129
90919SOL    HW274655  14.334  13.212   5.056
90920SOL     OW74656   6.873   0.733   2.563
90920SOL    HW174657   6.781   0.737   2.537
90920SOL    HW274658   6.879   0.654   2.617
90921SOL     OW74659  11.265   3.902  11.563
90921SOL    HW174660  11.248   3.981  11.614
90921SOL    HW274661  11.178   3.872  11.536
90922SOL     OW74662   9.691   3.136  14.580
90922SOL    HW174663   9.658   3.054  14.616
90922SOL    HW274664   9.627   3.202  14.608
90923SOL     OW74665  14.286   6.240  13.639
90923SOL    HW174666  14.221   6.296  13.682
90923SOL    HW274667  14.369   6.264  13.678
90924SOL     OW74668  11.817   0.052   9.942
90924SOL    HW174669  11.779   0.100   9.869
90924SOL    HW274670  11.797   0.105  10.019
90925SOL     OW74671   5.680  13.728   2.388
90925SOL    HW174672   5.591  13.756   2.411
90925SOL    HW274673   5.701  13.777   2.309
90926SOL     OW74674  12.662  11.353   9.521
90926SOL    HW174675  12.758  11.353   9.519
90926SOL    HW274676  12.640  11.416   9.589
90927SOL     OW74677   7.564   6.425  14.204
90927SOL    HW174678   7.640   6.468  14.166
90927SOL    HW274679   7.536   6.484  14.275
90928SOL     OW74680   4.058  14.633  13.204
90928SOL    HW174681   3.971  14.598  13.189
90928SOL    HW274682   4.089  14.588  13.283
90929SOL     OW74683   5.289   5.084  12.000
90929SOL    HW174684   5.223   5.059  11.936
90929SOL    HW274685   5.274   5.177  12.016
90930SOL     OW74686   1.046   8.900   9.146
90930SOL    HW174687   1.000   8.947   9.077
90930SOL    HW274688   1.021   8.809   9.134
90931SOL     OW74689   7.287   2.127   9.189
90931SOL    HW174690   7.243   2.204   9.224
90931SOL    HW274691   7.347   2.161   9.123
90932SOL     OW74692  10.072   3.258  12.620
90932SOL    HW174693  10.061   3.353  12.612
90932SOL    HW274694   9.987   3.227  12.651
90933SOL     OW74695  14.780   3.241   3.949
90933SOL    HW174696  14.690   3.209   3.942
90933SOL    HW274697  14.832   3.161   3.963
90934SOL     OW74698   7.548   7.047   8.934
90934SOL    HW174699   7.550   7.039   8.839
90934SOL    HW274700   7.530   6.958   8.965
90935SOL     OW74701   6.916   6.334   7.063
90935SOL    HW174702   6.850   6.404   7.057
90935SOL    HW274703   6.897   6.278   6.988
90936SOL     OW74704   1.515  11.846  11.117
90936SOL    HW174705   1.427  11.855  11.155
90936SOL    HW274706   1.503  11.786  11.043
90937SOL     OW74707   7.035   4.864   4.573
90937SOL    HW174708   6.996   4.815   4.500
90937SOL    HW274709   7.042   4.954   4.541
90938SOL     OW74710   5.050  13.100   8.683
90938SOL    HW174711   4.996  13.035   8.728
90938SOL    HW274712   5.060  13.171   8.746
90939SOL     OW74713   2.688  10.706  10.944
90939SOL    HW174714   2.751  10.721  11.015
90939SOL    HW274715   2.631  10.782  10.945
90940SOL     OW74716   1.314   8.505   1.613
90940SOL    HW174717   1.402   8.477   1.639
90940SOL    HW274718   1.302   8.589   1.659
90941SOL     OW74719  13.877   0.180   1.142
90941SOL    HW174720  13.887   0.093   1.181
90941SOL    HW274721  13.873   0.240   1.216
90942SOL     OW74722   8.795   0.504  13.411
90942SOL    HW174723   8.814   0.576  13.351
90942SOL    HW274724   8.703   0.482  13.393
90943SOL     OW74725  14.574   9.638   3.475
90943SOL    HW174726  14.598   9.630   3.382
90943SOL    HW274727  14.487   9.598   3.481
90944SOL     OW74728  11.561  11.289   9.953
90944SOL    HW174729  11.498  11.255   9.890
90944SOL    HW274730  11.607  11.211   9.986
90945SOL     OW74731   8.221   6.150  14.359
90945SOL    HW174732   8.264   6.191  14.435
90945SOL    HW274733   8.153   6.212  14.334
90946SOL     OW74734  14.368   2.842   2.002
90946SOL    HW174735  14.279   2.850   2.035
90946SOL    HW274736  14.360   2.859   1.908
90947SOL     OW74737   9.660   0.016  10.843
90947SOL    HW174738   9.579   0.045  10.885
90947SOL    HW274739   9.692   0.093  10.796
90948SOL     OW74740  11.472   3.608  12.619
90948SOL    HW174741  11.430   3.533  12.577
90948SOL    HW274742  11.447   3.601  12.711
90949SOL     OW74743  13.013   7.508  13.332
90949SOL    HW174744  12.932   7.540  13.372
90949SOL    HW274745  13.056   7.458  13.401
90950SOL     OW74746  12.839  12.060  10.800
90950SOL    HW174747  12.801  12.146  10.819
90950SOL    HW274748  12.924  12.061  10.844
90951SOL     OW74749  11.249   7.334   9.566
90951SOL    HW174750  11.292   7.418   9.578
90951SOL    HW274751  11.257   7.316   9.472
90952SOL     OW74752  11.125   9.188  10.140
90952SOL    HW174753  11.193   9.252  10.162
90952SOL    HW274754  11.135   9.119  10.206
90953SOL     OW74755   2.996   8.799  14.294
90953SOL    HW174756   2.941   8.837  14.362
90953SOL    HW274757   3.051   8.736  14.340
90954SOL     OW74758   3.128   4.140   3.938
90954SOL    HW174759   3.211   4.148   3.891
90954SOL    HW274760   3.118   4.046   3.953
90955SOL     OW74761   5.888   8.364  14.441
90955SOL    HW174762   5.978   8.333  14.434
90955SOL    HW274763   5.854   8.361  14.351
90956SOL     OW74764   5.974  14.497   5.543
90956SOL    HW174765   5.968  14.421   5.485
90956SOL    HW274766   6.057  14.539   5.519
90957SOL     OW74767   1.074   8.004   5.454
90957SOL    HW174768   1.060   7.939   5.385
90957SOL    HW274769   0.986   8.032   5.479
90958SOL     OW74770  13.816   2.728  12.372
90958SOL    HW174771  13.808   2.653  12.431
90958SOL    HW274772  13.767   2.798  12.415
90959SOL     OW74773   8.139  12.194   7.452
90959SOL    HW174774   8.143  12.148   7.536
90959SOL    HW274775   8.220  12.168   7.407
90960SOL     OW74776   7.902  13.448   2.491
90960SOL    HW174777   7.975  13.434   2.551
90960SOL    HW274778   7.882  13.361   2.457
90961SOL     OW74779  13.131   5.610   7.990
90961SOL    HW174780  13.114   5.531   8.041
90961SOL    HW274781  13.084   5.680   8.035
90962SOL     OW74782   8.474  10.271   6.391
90962SOL    HW174783   8.468  10.254   6.485
90962SOL    HW274784   8.444  10.189   6.351
90963SOL     OW74785   6.868   8.747  13.651
90963SOL    HW174786   6.866   8.673  13.590
90963SOL    HW274787   6.892   8.708  13.735
90964SOL     OW74788   1.992   3.702  10.127
90964SOL    HW174789   1.900   3.673  10.124
90964SOL    HW274790   2.041   3.621  10.144
90965SOL     OW74791   6.779   8.588   4.820
90965SOL    HW174792   6.752   8.535   4.745
90965SOL    HW274793   6.698   8.604   4.868
90966SOL     OW74794   7.123   4.801   7.636
90966SOL    HW174795   7.167   4.876   7.596
90966SOL    HW274796   7.030   4.821   7.628
90967SOL     OW74797   8.031   3.913  13.074
90967SOL    HW174798   8.066   3.838  13.122
90967SOL    HW274799   8.010   3.977  13.142
90968SOL     OW74800   1.962   9.645   8.051
90968SOL    HW174801   1.954   9.560   8.008
90968SOL    HW274802   1.882   9.652   8.104
90969SOL     OW74803   2.117  14.026   6.966
90969SOL    HW174804   2.107  13.958   6.900
90969SOL    HW274805   2.175  13.988   7.032
90970SOL     OW74806  13.028   1.153   7.960
90970SOL    HW174807  13.111   1.179   8.000
90970SOL    HW274808  12.962   1.201   8.010
90971SOL     OW74809   6.385   3.982   8.497
90971SOL    HW174810   6.320   4.041   8.458
90971SOL    HW274811   6.361   3.977   8.589
90972SOL     OW74812   2.240  14.869   9.316
90972SOL    HW174813   2.252   0.059   9.242
90972SOL    HW274814   2.183  14.800   9.282
90973SOL     OW74815   1.369   8.929   1.621
90973SOL    HW174816   1.302   8.978   1.574
90973SOL    HW274817   1.449   8.981   1.611
90974SOL     OW74818   6.740   0.983   1.192
90974SOL    HW174819   6.782   1.067   1.212
90974SOL    HW274820   6.813   0.922   1.178
90975SOL     OW74821   9.626   2.030   9.380
90975SOL    HW174822   9.632   2.094   9.451
90975SOL    HW274823   9.576   1.957   9.417
90976SOL     OW74824  12.971   1.332   4.187
90976SOL    HW174825  12.988   1.342   4.093
90976SOL    HW274826  13.042   1.277   4.218
90977SOL     OW74827  10.186   8.838  11.633
90977SOL    HW174828  10.098   8.826  11.668
90977SOL    HW274829  10.209   8.752  11.597
90978SOL     OW74830   2.986  10.172   8.112
90978SOL    HW174831   2.907  10.225   8.098
90978SOL    HW274832   3.036  10.221   8.177
90979SOL     OW74833   6.473   5.626  13.589
90979SOL    HW174834   6.521   5.708  13.601
90979SOL    HW274835   6.538   5.564  13.555
90980SOL     OW74836   3.945  13.539  11.575
90980SOL    HW174837   3.856  13.518  11.603
90980SOL    HW274838   3.967  13.619  11.624
90981SOL     OW74839  14.171  12.529  11.034
90981SOL    HW174840  14.219  12.549  10.953
90981SOL    HW274841  14.079  12.523  11.006
90982SOL     OW74842  10.107  10.318   5.197
90982SOL    HW174843  10.184  10.373   5.203
90982SOL    HW274844  10.062  10.329   5.281
90983SOL     OW74845   7.499  11.918   0.667
90983SOL    HW174846   7.569  11.942   0.729
90983SOL    HW274847   7.424  11.899   0.723
90984SOL     OW74848  13.769  12.618  14.354
90984SOL    HW174849  13.786  12.623  14.260
90984SOL    HW274850  13.688  12.567  14.361
90985SOL     OW74851  12.564   2.098   5.299
90985SOL    HW174852  12.608   2.145   5.228
90985SOL    HW274853  12.614   2.017   5.308
90986SOL     OW74854  13.365   5.624   8.267
90986SOL    HW174855  13.312   5.610   8.346
90986SOL    HW274856  13.331   5.706   8.231
90987SOL     OW74857   9.952   0.296   1.735
90987SOL    HW174858  10.007   0.265   1.806
90987SOL    HW274859  10.000   0.272   1.655
90988SOL     OW74860   4.500  12.589   3.174
90988SOL    HW174861   4.546  12.672   3.158
90988SOL    HW274862   4.451  12.573   3.094
90989SOL     OW74863  10.539   8.766   2.527
90989SOL    HW174864  10.462   8.822   2.518
90989SOL    HW274865  10.507   8.677   2.513
90990SOL     OW74866   1.027   4.052   8.691
90990SOL    HW174867   1.036   4.082   8.781
90990SOL    HW274868   0.970   3.975   8.696
90991SOL     OW74869   7.830   5.250  13.390
90991SOL    HW174870   7.809   5.253  13.296
90991SOL    HW274871   7.755   5.206  13.430
90992SOL     OW74872  13.044  11.072  12.974
90992SOL    HW174873  13.004  11.129  13.040
90992SOL    HW274874  12.994  11.091  12.894
90993SOL     OW74875  10.387   1.531  12.911
90993SOL    HW174876  10.319   1.591  12.883
90993SOL    HW274877  10.346   1.480  12.981
90994SOL     OW74878  13.058   6.091   3.819
90994SOL    HW174879  12.984   6.060   3.871
90994SOL    HW274880  13.020   6.115   3.735
90995SOL     OW74881   0.369  14.009   3.371
90995SOL    HW174882   0.416  14.044   3.446
90995SOL    HW274883   0.387  14.071   3.300
90996SOL     OW74884   2.271   5.902   7.246
90996SOL    HW174885   2.366   5.903   7.240
90996SOL    HW274886   2.247   5.991   7.274
90997SOL     OW74887   3.022  14.169   6.580
90997SOL    HW174888   3.053  14.246   6.533
90997SOL    HW274889   3.100  14.136   6.626
90998SOL     OW74890   3.375   7.785  11.860
90998SOL    HW174891   3.392   7.738  11.779
90998SOL    HW274892   3.399   7.876  11.841
90999SOL     OW74893   1.638   7.761   0.052
90999SOL    HW174894   1.610   7.839   0.003
90999SOL    HW274895   1.558   7.709   0.061
91000SOL     OW74896   1.789   4.077   9.878
91000SOL    HW174897   1.782   4.016   9.804
91000SOL    HW274898   1.831   4.027   9.947
91001SOL     OW74899  14.736   9.911  10.251
91001SOL    HW174900  14.717   9.882  10.340
91001SOL    HW274901  14.650   9.911  10.207
91002SOL     OW74902   0.965  10.744   0.492
91002SOL    HW174903   0.886  10.790   0.520
91002SOL    HW274904   0.961  10.745   0.397
91003SOL     OW74905  12.756   6.272   0.266
91003SOL    HW174906  12.672   6.237   0.236
91003SOL    HW274907  12.806   6.289   0.185
91004SOL     OW74908   2.572   9.188   0.521
91004SOL    HW174909   2.567   9.230   0.435
91004SOL    HW274910   2.485   9.150   0.534
91005SOL     OW74911  10.707   6.133  10.810
91005SOL    HW174912  10.771   6.077  10.765
91005SOL    HW274913  10.697   6.092  10.896
91006SOL     OW74914   6.945   8.852  12.994
91006SOL    HW174915   6.895   8.880  13.071
91006SOL    HW274916   7.035   8.849  13.024
91007SOL     OW74917  10.524  10.077   9.506
91007SOL    HW174918  10.520   9.995   9.457
91007SOL    HW274919  10.434  10.093   9.534
91008SOL     OW74920   6.623  14.501   6.727
91008SOL    HW174921   6.676  14.539   6.657
91008SOL    HW274922   6.686  14.483   6.797
91009SOL     OW74923  10.936   2.915   5.623
91009SOL    HW174924  10.997   2.987   5.608
91009SOL    HW274925  10.849   2.954   5.610
91010SOL     OW74926   4.065  14.667   0.009
91010SOL    HW174927   4.124  14.739   0.033
91010SOL    HW274928   3.978  14.700   0.033
91011SOL     OW74929   0.853   8.146  10.373
91011SOL    HW174930   0.876   8.226  10.326
91011SOL    HW274931   0.824   8.176  10.459
91012SOL     OW74932   2.878  11.662   0.312
91012SOL    HW174933   2.828  11.739   0.286
91012SOL    HW274934   2.948  11.696   0.367
91013SOL     OW74935   5.534   7.980  10.635
91013SOL    HW174936   5.449   8.023  10.624
91013SOL    HW274937   5.597   8.041  10.598
91014SOL     OW74938   3.875  10.905  13.813
91014SOL    HW174939   3.888  10.992  13.849
91014SOL    HW274940   3.895  10.845  13.885
91015SOL     OW74941  10.896   1.402   1.369
91015SOL    HW174942  10.957   1.468   1.403
91015SOL    HW274943  10.940   1.364   1.294
91016SOL     OW74944  11.872  10.232   6.054
91016SOL    HW174945  11.792  10.277   6.026
91016SOL    HW274946  11.841  10.170   6.120
91017SOL     OW74947   1.310  12.473   3.369
91017SOL    HW174948   1.236  12.412   3.362
91017SOL    HW274949   1.271  12.559   3.353
91018SOL     OW74950   0.408   8.715   9.187
91018SOL    HW174951   0.466   8.666   9.128
91018SOL    HW274952   0.441   8.695   9.274
91019SOL     OW74953   5.646   4.745   5.011
91019SOL    HW174954   5.669   4.660   5.048
91019SOL    HW274955   5.643   4.804   5.087
91020SOL     OW74956   7.200  11.148  12.153
91020SOL    HW174957   7.208  11.052  12.149
91020SOL    HW274958   7.206  11.168  12.246
91021SOL     OW74959   6.596   9.594   6.492
91021SOL    HW174960   6.640   9.535   6.552
91021SOL    HW274961   6.509   9.607   6.531
91022SOL     OW74962   9.868  10.330   3.952
91022SOL    HW174963   9.933  10.262   3.934
91022SOL    HW274964   9.784  10.289   3.932
91023SOL     OW74965   5.233   9.284  13.661
91023SOL    HW174966   5.242   9.363  13.607
91023SOL    HW274967   5.146   9.250  13.640
91024SOL     OW74968  11.311   4.321  13.101
91024SOL    HW174969  11.253   4.355  13.170
91024SOL    HW274970  11.260   4.330  13.020
91025SOL     OW74971  11.043  12.208   0.463
91025SOL    HW174972  11.016  12.256   0.541
91025SOL    HW274973  10.996  12.125   0.468
91026SOL     OW74974  10.354  11.199   4.579
91026SOL    HW174975  10.370  11.111   4.546
91026SOL    HW274976  10.439  11.230   4.608
91027SOL     OW74977   0.387   7.969   1.368
91027SOL    HW174978   0.445   7.956   1.443
91027SOL    HW274979   0.421   8.046   1.324
91028SOL     OW74980  14.093  12.185   4.494
91028SOL    HW174981  14.137  12.108   4.530
91028SOL    HW274982  14.000  12.169   4.511
91029SOL     OW74983   0.326   9.016   1.509
91029SOL    HW174984   0.257   8.952   1.527
91029SOL    HW274985   0.314   9.085   1.574
91030SOL     OW74986   9.174   5.058  13.771
91030SOL    HW174987   9.118   4.992  13.730
91030SOL    HW274988   9.230   5.089  13.700
91031SOL     OW74989   8.346  13.440  11.378
91031SOL    HW174990   8.284  13.368  11.373
91031SOL    HW274991   8.316  13.494  11.452
91032SOL     OW74992   9.098   2.280   2.990
91032SOL    HW174993   9.041   2.279   2.914
91032SOL    HW274994   9.056   2.340   3.052
91033SOL     OW74995  13.930  10.153   2.559
91033SOL    HW174996  13.900  10.208   2.631
91033SOL    HW274997  13.902  10.065   2.582
91034SOL     OW74998   9.470   3.364   2.205
91034SOL    HW174999   9.559   3.366   2.240
91034SOL    HW275000   9.475   3.308   2.129
91035SOL     OW75001   7.339   9.010   0.029
91035SOL    HW175002   7.294   9.081  14.852
91035SOL    HW275003   7.299   8.930  14.865
91036SOL     OW75004   3.448  13.136  12.640
91036SOL    HW175005   3.471  13.077  12.712
91036SOL    HW275006   3.447  13.223  12.680
91037SOL     OW75007   8.467   1.289   2.054
91037SOL    HW175008   8.514   1.372   2.045
91037SOL    HW275009   8.519   1.240   2.118
91038SOL     OW75010  12.831  14.541   2.141
91038SOL    HW175011  12.739  14.531   2.116
91038SOL    HW275012  12.832  14.617   2.199
91039SOL     OW75013   3.925  13.373   1.645
91039SOL    HW175014   3.966  13.460   1.644
91039SOL    HW275015   3.884  13.365   1.559
91040SOL     OW75016   3.306   4.613   0.439
91040SOL    HW175017   3.381   4.625   0.382
91040SOL    HW275018   3.292   4.700   0.479
91041SOL     OW75019   0.312   1.041   4.872
91041SOL    HW175020   0.305   0.990   4.953
91041SOL    HW275021   0.282   0.981   4.803
91042SOL     OW75022   2.053   3.957  12.131
91042SOL    HW175023   1.971   3.924  12.094
91042SOL    HW275024   2.120   3.928  12.068
91043SOL     OW75025  13.536  10.894   8.546
91043SOL    HW175026  13.580  10.980   8.541
91043SOL    HW275027  13.443  10.914   8.541
91044SOL     OW75028   3.516   8.578   0.452
91044SOL    HW175029   3.513   8.517   0.526
91044SOL    HW275030   3.433   8.627   0.459
91045SOL     OW75031  11.790   1.733   0.880
91045SOL    HW175032  11.737   1.781   0.817
91045SOL    HW275033  11.835   1.666   0.827
91046SOL     OW75034   9.530  11.740   8.188
91046SOL    HW175035   9.436  11.722   8.183
91046SOL    HW275036   9.537  11.835   8.196
91047SOL     OW75037   4.319   7.706   8.962
91047SOL    HW175038   4.371   7.739   8.889
91047SOL    HW275039   4.241   7.761   8.963
91048SOL     OW75040   1.120   5.587  11.496
91048SOL    HW175041   1.041   5.592  11.441
91048SOL    HW275042   1.138   5.494  11.504
91049SOL     OW75043   4.461  10.558   4.828
91049SOL    HW175044   4.478  10.623   4.760
91049SOL    HW275045   4.495  10.476   4.791
91050SOL     OW75046   0.416   3.270   1.574
91050SOL    HW175047   0.387   3.230   1.492
91050SOL    HW275048   0.342   3.259   1.634
91051SOL     OW75049   5.227   8.531   4.400
91051SOL    HW175050   5.153   8.472   4.393
91051SOL    HW275051   5.227   8.559   4.492
91052SOL     OW75052  12.664   7.611  10.770
91052SOL    HW175053  12.606   7.658  10.710
91052SOL    HW275054  12.609   7.593  10.846
91053SOL     OW75055   3.859   8.183  10.817
91053SOL    HW175056   3.855   8.099  10.772
91053SOL    HW275057   3.794   8.237  10.772
91054SOL     OW75058   7.852   4.634   0.513
91054SOL    HW175059   7.943   4.606   0.528
91054SOL    HW275060   7.803   4.590   0.582
91055SOL     OW75061   4.103  11.661   6.063
91055SOL    HW175062   4.127  11.580   6.018
91055SOL    HW275063   4.044  11.633   6.133
91056SOL     OW75064   5.806   6.733   2.987
91056SOL    HW175065   5.894   6.765   2.967
91056SOL    HW275066   5.802   6.646   2.949
91057SOL     OW75067   5.953   7.204   4.032
91057SOL    HW175068   5.878   7.252   3.998
91057SOL    HW275069   5.936   7.112   4.010
91058SOL     OW75070  10.216  11.881  14.370
91058SOL    HW175071  10.164  11.805  14.397
91058SOL    HW275072  10.207  11.943  14.443
91059SOL     OW75073   9.055   2.851  14.332
91059SOL    HW175074   9.086   2.933  14.295
91059SOL    HW275075   9.040   2.870  14.425
91060SOL     OW75076   8.225  11.681   6.916
91060SOL    HW175077   8.134  11.654   6.919
91060SOL    HW275078   8.251  11.667   6.825
91061SOL     OW75079   5.555  11.618  11.158
91061SOL    HW175080   5.464  11.644  11.174
91061SOL    HW275081   5.576  11.560  11.232
91062SOL     OW75082   4.808   5.793  10.537
91062SOL    HW175083   4.791   5.699  10.543
91062SOL    HW275084   4.733   5.828  10.488
91063SOL     OW75085   4.676  13.863   2.605
91063SOL    HW175086   4.680  13.787   2.663
91063SOL    HW275087   4.621  13.834   2.532
91064SOL     OW75088   6.355   9.320   3.117
91064SOL    HW175089   6.430   9.263   3.134
91064SOL    HW275090   6.301   9.313   3.197
91065SOL     OW75091   1.914   8.252  13.729
91065SOL    HW175092   1.989   8.206  13.691
91065SOL    HW275093   1.861   8.183  13.769
91066SOL     OW75094   8.523  10.410   3.363
91066SOL    HW175095   8.524  10.339   3.427
91066SOL    HW275096   8.566  10.483   3.407
91067SOL     OW75097   6.449   5.016   0.784
91067SOL    HW175098   6.398   5.047   0.710
91067SOL    HW275099   6.387   4.966   0.837
91068SOL     OW75100   7.114   2.780   0.422
91068SOL    HW175101   7.153   2.770   0.335
91068SOL    HW275102   7.168   2.848   0.464
91069SOL     OW75103   0.523   6.945   1.162
91069SOL    HW175104   0.523   6.986   1.249
91069SOL    HW275105   0.614   6.949   1.133
91070SOL     OW75106   2.656   0.091   3.051
91070SOL    HW175107   2.740   0.133   3.034
91070SOL    HW275108   2.655   0.015   2.992
91071SOL     OW75109   3.202  11.054   8.207
91071SOL    HW175110   3.130  11.046   8.145
91071SOL    HW275111   3.196  10.975   8.262
91072SOL     OW75112   2.888   5.579  12.522
91072SOL    HW175113   2.949   5.648  12.495
91072SOL    HW275114   2.943   5.517  12.570
91073SOL     OW75115   7.923   7.226  14.380
91073SOL    HW175116   7.862   7.174  14.432
91073SOL    HW275117   8.006   7.178  14.385
91074SOL     OW75118   7.545   1.801   8.897
91074SOL    HW175119   7.547   1.746   8.818
91074SOL    HW275120   7.531   1.890   8.865
91075SOL     OW75121   0.648   9.407  14.592
91075SOL    HW175122   0.675   9.479  14.650
91075SOL    HW275123   0.723   9.394  14.534
91076SOL     OW75124   2.254   9.999  10.711
91076SOL    HW175125   2.210  10.081  10.688
91076SOL    HW275126   2.308  10.021  10.787
91077SOL     OW75127   2.242   0.352  14.537
91077SOL    HW175128   2.214   0.406  14.611
91077SOL    HW275129   2.173   0.288  14.526
91078SOL     OW75130   8.582  10.467   8.419
91078SOL    HW175131   8.511  10.492   8.360
91078SOL    HW275132   8.564  10.515   8.500
91079SOL     OW75133   4.566   1.562   2.458
91079SOL    HW175134   4.493   1.511   2.423
91079SOL    HW275135   4.537   1.589   2.545
91080SOL     OW75136  14.817  11.346   1.705
91080SOL    HW175137   0.021  11.295   1.671
91080SOL    HW275138  14.802  11.413   1.638
91081SOL     OW75139   6.841   2.010   1.566
91081SOL    HW175140   6.926   1.977   1.593
91081SOL    HW275141   6.780   1.939   1.585
91082SOL     OW75142   1.536  11.924   4.392
91082SOL    HW175143   1.525  12.017   4.372
91082SOL    HW275144   1.624  11.903   4.361
91083SOL     OW75145   8.447  11.293   2.630
91083SOL    HW175146   8.384  11.364   2.621
91083SOL    HW275147   8.532  11.332   2.613
91084SOL     OW75148  12.131   2.428   5.520
91084SOL    HW175149  12.038   2.427   5.497
91084SOL    HW275150  12.177   2.414   5.437
91085SOL     OW75151  13.021   1.346   3.300
91085SOL    HW175152  13.011   1.299   3.217
91085SOL    HW275153  13.093   1.407   3.284
91086SOL     OW75154  13.995  12.472   9.713
91086SOL    HW175155  13.909  12.469   9.670
91086SOL    HW275156  14.056  12.497   9.644
91087SOL     OW75157  10.774   4.683   1.954
91087SOL    HW175158  10.790   4.636   2.035
91087SOL    HW275159  10.812   4.770   1.968
91088SOL     OW75160  10.389   5.508  10.209
91088SOL    HW175161  10.351   5.482  10.125
91088SOL    HW275162  10.462   5.565  10.186
91089SOL     OW75163  10.364   4.481  14.086
91089SOL    HW175164  10.269   4.477  14.073
91089SOL    HW275165  10.382   4.575  14.098
91090SOL     OW75166   2.162   3.926   3.306
91090SOL    HW175167   2.223   4.000   3.318
91090SOL    HW275168   2.150   3.921   3.211
91091SOL     OW75169   3.993   2.833   7.923
91091SOL    HW175170   3.950   2.832   8.008
91091SOL    HW275171   4.011   2.926   7.906
91092SOL     OW75172   9.885   3.976  12.258
91092SOL    HW175173   9.843   3.910  12.204
91092SOL    HW275174   9.815   4.011  12.313
91093SOL     OW75175   3.527   1.221   7.955
91093SOL    HW175176   3.607   1.196   8.001
91093SOL    HW275177   3.502   1.143   7.905
91094SOL     OW75178  11.093  14.656   7.827
91094SOL    HW175179  11.088  14.751   7.839
91094SOL    HW275180  11.163  14.644   7.764
91095SOL     OW75181  13.599   6.282   7.237
91095SOL    HW175182  13.587   6.338   7.161
91095SOL    HW275183  13.686   6.304   7.270
91096SOL     OW75184  10.323   6.913   1.082
91096SOL    HW175185  10.253   6.951   1.028
91096SOL    HW275186  10.387   6.880   1.019
91097SOL     OW75187   9.464   1.339   2.116
91097SOL    HW175188   9.425   1.264   2.163
91097SOL    HW275189   9.502   1.301   2.037
91098SOL     OW75190   1.479  10.880  12.956
91098SOL    HW175191   1.570  10.854  12.970
91098SOL    HW275192   1.460  10.854  12.866
91099SOL     OW75193   8.196   8.152   5.926
91099SOL    HW175194   8.176   8.245   5.920
91099SOL    HW275195   8.216   8.126   5.836
91100SOL     OW75196   5.899   6.307   5.194
91100SOL    HW175197   5.923   6.399   5.187
91100SOL    HW275198   5.966   6.269   5.251
91101SOL     OW75199   8.378   5.445  13.362
91101SOL    HW175200   8.288   5.473  13.374
91101SOL    HW275201   8.415   5.446  13.450
91102SOL     OW75202   4.695  12.276  10.484
91102SOL    HW175203   4.697  12.185  10.452
91102SOL    HW275204   4.675  12.328  10.406
91103SOL     OW75205  13.757   1.667   7.359
91103SOL    HW175206  13.678   1.623   7.328
91103SOL    HW275207  13.828   1.631   7.304
91104SOL     OW75208   9.008   6.347   2.330
91104SOL    HW175209   8.995   6.419   2.268
91104SOL    HW275210   8.936   6.356   2.392
91105SOL     OW75211   9.995   9.918   6.093
91105SOL    HW175212   9.946   9.964   6.026
91105SOL    HW275213   9.976   9.825   6.078
91106SOL     OW75214   9.135   5.875   6.179
91106SOL    HW175215   9.230   5.862   6.180
91106SOL    HW275216   9.106   5.831   6.099
91107SOL     OW75217  11.922   6.267   5.553
91107SOL    HW175218  11.910   6.193   5.614
91107SOL    HW275219  11.835   6.307   5.547
91108SOL     OW75220  14.247   2.106   4.297
91108SOL    HW175221  14.313   2.149   4.243
91108SOL    HW275222  14.293   2.032   4.337
91109SOL     OW75223  13.117   9.605   0.422
91109SOL    HW175224  13.146   9.541   0.488
91109SOL    HW275225  13.098   9.684   0.472
91110SOL     OW75226   9.216   7.450   2.761
91110SOL    HW175227   9.188   7.368   2.720
91110SOL    HW275228   9.292   7.478   2.710
91111SOL     OW75229  14.132   4.608   6.671
91111SOL    HW175230  14.077   4.664   6.617
91111SOL    HW275231  14.073   4.577   6.740
91112SOL     OW75232   8.878   5.121  12.368
91112SOL    HW175233   8.849   5.212  12.361
91112SOL    HW275234   8.897   5.096  12.277
91113SOL     OW75235   6.176   4.786  10.493
91113SOL    HW175236   6.212   4.795  10.581
91113SOL    HW275237   6.173   4.692  10.477
91114SOL     OW75238   5.028   7.122   7.254
91114SOL    HW175239   4.984   7.115   7.169
91114SOL    HW275240   5.095   7.053   7.253
91115SOL     OW75241   1.802   9.637  10.718
91115SOL    HW175242   1.859   9.588  10.659
91115SOL    HW275243   1.863   9.677  10.781
91116SOL     OW75244   0.746   1.011   7.481
91116SOL    HW175245   0.753   1.044   7.392
91116SOL    HW275246   0.733   0.916   7.471
91117SOL     OW75247   5.307   6.366   8.069
91117SOL    HW175248   5.384   6.412   8.038
91117SOL    HW275249   5.327   6.344   8.160
91118SOL     OW75250  12.733  10.510   5.988
91118SOL    HW175251  12.647  10.497   6.028
91118SOL    HW275252  12.722  10.479   5.898
91119SOL     OW75253   6.257  13.743   0.393
91119SOL    HW175254   6.250  13.838   0.386
91119SOL    HW275255   6.312  13.717   0.319
91120SOL     OW75256  12.594  12.233  13.070
91120SOL    HW175257  12.574  12.309  13.125
91120SOL    HW275258  12.647  12.176  13.126
91121SOL     OW75259  14.356   0.482   4.726
91121SOL    HW175260  14.263   0.491   4.704
91121SOL    HW275261  14.396   0.447   4.646
91122SOL     OW75262   7.469  10.990   1.610
91122SOL    HW175263   7.423  11.050   1.669
91122SOL    HW275264   7.401  10.932   1.577
91123SOL     OW75265   8.623   7.501   1.248
91123SOL    HW175266   8.528   7.500   1.242
91123SOL    HW275267   8.653   7.508   1.157
91124SOL     OW75268   0.608   2.965   6.431
91124SOL    HW175269   0.624   3.053   6.398
91124SOL    HW275270   0.683   2.946   6.488
91125SOL     OW75271  10.243  12.092   0.488
91125SOL    HW175272  10.240  12.131   0.401
91125SOL    HW275273  10.337  12.081   0.507
91126SOL     OW75274   3.069  13.356   7.872
91126SOL    HW175275   3.042  13.368   7.780
91126SOL    HW275276   3.015  13.284   7.903
91127SOL     OW75277   0.873  13.814  14.750
91127SOL    HW175278   0.905  13.892  14.794
91127SOL    HW275279   0.793  13.842  14.705
91128SOL     OW75280   4.571  14.821   0.051
91128SOL    HW175281   4.542  14.737   0.015
91128SOL    HW275282   4.582  14.804   0.145
91129SOL     OW75283   0.045  12.153   9.188
91129SOL    HW175284   0.055  12.087   9.119
91129SOL    HW275285   0.129  12.198   9.189
91130SOL     OW75286  10.423  11.770   5.590
91130SOL    HW175287  10.336  11.736   5.571
91130SOL    HW275288  10.408  11.849   5.642
91131SOL     OW75289   1.495   1.829   3.764
91131SOL    HW175290   1.527   1.913   3.798
91131SOL    HW275291   1.445   1.852   3.686
91132SOL     OW75292  10.179   7.416   2.452
91132SOL    HW175293  10.200   7.484   2.389
91132SOL    HW275294  10.088   7.392   2.433
91133SOL     OW75295  10.460   0.418   9.180
91133SOL    HW175296  10.426   0.433   9.268
91133SOL    HW275297  10.545   0.377   9.194
91134SOL     OW75298   0.242  13.942  14.475
91134SOL    HW175299   0.282  14.028  14.487
91134SOL    HW275300   0.178  13.935  14.546
91135SOL     OW75301  14.832   6.880  12.281
91135SOL    HW175302  14.799   6.967  12.305
91135SOL    HW275303  14.782   6.856  12.203
91136SOL     OW75304   4.837   5.141  11.178
91136SOL    HW175305   4.802   5.080  11.242
91136SOL    HW275306   4.838   5.225  11.222
91137SOL     OW75307   9.028   6.843  12.749
91137SOL    HW175308   8.962   6.906  12.778
91137SOL    HW275309   9.037   6.782  12.822
91138SOL     OW75310  14.136   6.928  14.598
91138SOL    HW175311  14.193   7.002  14.619
91138SOL    HW275312  14.077   6.922  14.673
91139SOL     OW75313   6.865   0.779  10.417
91139SOL    HW175314   6.783   0.818  10.386
91139SOL    HW275315   6.878   0.703  10.361
91140SOL     OW75316   9.269   9.965   8.398
91140SOL    HW175317   9.207   9.892   8.407
91140SOL    HW275318   9.257  10.017   8.477
91141SOL     OW75319   5.077   4.866   3.781
91141SOL    HW175320   5.171   4.855   3.791
91141SOL    HW275321   5.047   4.901   3.865
91142SOL     OW75322   9.081   3.778   0.667
91142SOL    HW175323   9.075   3.747   0.758
91142SOL    HW275324   9.063   3.872   0.672
91143SOL     OW75325  10.416   0.729   7.420
91143SOL    HW175326  10.322   0.720   7.435
91143SOL    HW275327  10.454   0.742   7.507
91144SOL     OW75328   5.526   4.792   8.997
91144SOL    HW175329   5.559   4.809   9.085
91144SOL    HW275330   5.446   4.742   9.011
91145SOL     OW75331   9.721   8.015  11.173
91145SOL    HW175332   9.773   7.938  11.195
91145SOL    HW275333   9.764   8.088  11.218
91146SOL     OW75334   8.778   2.173   6.232
91146SOL    HW175335   8.728   2.135   6.159
91146SOL    HW275336   8.749   2.125   6.309
91147SOL     OW75337   6.056   3.594   0.668
91147SOL    HW175338   6.067   3.676   0.716
91147SOL    HW275339   6.130   3.591   0.608
91148SOL     OW75340   1.854   1.475   0.297
91148SOL    HW175341   1.774   1.427   0.277
91148SOL    HW275342   1.840   1.563   0.261
91149SOL     OW75343   9.000   5.872   7.263
91149SOL    HW175344   9.048   5.818   7.200
91149SOL    HW275345   9.065   5.894   7.330
91150SOL     OW75346   3.594   8.843   9.349
91150SOL    HW175347   3.632   8.931   9.355
91150SOL    HW275348   3.644   8.791   9.412
91151SOL     OW75349  12.351   4.527   8.576
91151SOL    HW175350  12.324   4.615   8.551
91151SOL    HW275351  12.440   4.519   8.542
91152SOL     OW75352   7.047  10.029   7.208
91152SOL    HW175353   7.121  10.023   7.268
91152SOL    HW275354   6.975  10.063   7.261
91153SOL     OW75355   8.378   9.817   6.586
91153SOL    HW175356   8.370   9.779   6.674
91153SOL    HW275357   8.302   9.782   6.539
91154SOL     OW75358   5.757  13.236   5.127
91154SOL    HW175359   5.723  13.151   5.155
91154SOL    HW275360   5.760  13.231   5.032
91155SOL     OW75361   0.364   8.299  12.127
91155SOL    HW175362   0.338   8.241  12.056
91155SOL    HW275363   0.455   8.323  12.106
91156SOL     OW75364   6.667  14.000   1.134
91156SOL    HW175365   6.718  13.954   1.202
91156SOL    HW275366   6.729  14.010   1.062
91157SOL     OW75367   8.896  10.925   5.327
91157SOL    HW175368   8.888  10.841   5.282
91157SOL    HW275369   8.961  10.909   5.395
91158SOL     OW75370   2.636  11.832   8.192
91158SOL    HW175371   2.619  11.737   8.190
91158SOL    HW275372   2.567  11.870   8.138
91159SOL     OW75373   2.190   8.505   9.695
91159SOL    HW175374   2.239   8.446   9.637
91159SOL    HW275375   2.118   8.451   9.727
91160SOL     OW75376  14.495   7.633   5.708
91160SOL    HW175377  14.521   7.541   5.709
91160SOL    HW275378  14.487   7.657   5.801
91161SOL     OW75379   1.948   0.743   9.833
91161SOL    HW175380   2.027   0.744   9.779
91161SOL    HW275381   1.953   0.826   9.882
91162SOL     OW75382  13.389  11.382   1.734
91162SOL    HW175383  13.416  11.468   1.766
91162SOL    HW275384  13.329  11.349   1.802
91163SOL     OW75385   3.129   7.931  10.035
91163SOL    HW175386   3.182   7.862   9.995
91163SOL    HW275387   3.040   7.895  10.038
91164SOL     OW75388   6.441   2.210  12.641
91164SOL    HW175389   6.496   2.190  12.565
91164SOL    HW275390   6.462   2.300  12.663
91165SOL     OW75391   4.841   3.468   8.675
91165SOL    HW175392   4.754   3.486   8.640
91165SOL    HW275393   4.866   3.550   8.718
91166SOL     OW75394   8.506   5.214  13.879
91166SOL    HW175395   8.475   5.255  13.799
91166SOL    HW275396   8.478   5.273  13.949
91167SOL     OW75397   5.100   0.369   1.591
91167SOL    HW175398   5.118   0.286   1.636
91167SOL    HW275399   5.121   0.436   1.656
91168SOL     OW75400  10.395   8.159   2.426
91168SOL    HW175401  10.330   8.208   2.476
91168SOL    HW275402  10.412   8.080   2.478
91169SOL     OW75403   4.363   6.557   0.363
91169SOL    HW175404   4.310   6.634   0.341
91169SOL    HW275405   4.311   6.483   0.332
91170SOL     OW75406   0.727   0.317   5.429
91170SOL    HW175407   0.757   0.294   5.341
91170SOL    HW275408   0.667   0.390   5.416
91171SOL     OW75409  11.633   8.191   2.899
91171SOL    HW175410  11.626   8.201   2.805
91171SOL    HW275411  11.600   8.103   2.917
91172SOL     OW75412   5.701   9.236  14.268
91172SOL    HW175413   5.740   9.322  14.253
91172SOL    HW275414   5.775   9.175  14.261
91173SOL     OW75415   3.715   7.781  11.103
91173SOL    HW175416   3.802   7.770  11.142
91173SOL    HW275417   3.719   7.733  11.020
91174SOL     OW75418  12.502   5.173  11.449
91174SOL    HW175419  12.512   5.123  11.368
91174SOL    HW275420  12.582   5.225  11.455
91175SOL     OW75421   2.181  11.150   8.130
91175SOL    HW175422   2.092  11.183   8.120
91175SOL    HW275423   2.175  11.085   8.200
91176SOL     OW75424   5.686   7.544   1.955
91176SOL    HW175425   5.727   7.603   2.018
91176SOL    HW275426   5.679   7.461   2.001
91177SOL     OW75427   0.529   5.189   6.710
91177SOL    HW175428   0.606   5.193   6.767
91177SOL    HW275429   0.547   5.118   6.649
91178SOL     OW75430  10.568   2.258   0.873
91178SOL    HW175431  10.547   2.190   0.809
91178SOL    HW275432  10.533   2.225   0.955
91179SOL     OW75433   9.384   9.775   0.930
91179SOL    HW175434   9.421   9.752   0.845
91179SOL    HW275435   9.353   9.865   0.920
91180SOL     OW75436  13.620   1.234   0.876
91180SOL    HW175437  13.609   1.187   0.794
91180SOL    HW275438  13.571   1.315   0.864
91181SOL     OW75439   5.265   3.646   1.140
91181SOL    HW175440   5.273   3.642   1.236
91181SOL    HW275441   5.350   3.617   1.108
91182SOL     OW75442   1.081  13.662  14.033
91182SOL    HW175443   1.053  13.573  14.008
91182SOL    HW275444   1.155  13.648  14.091
91183SOL     OW75445  13.191   8.052  14.573
91183SOL    HW175446  13.154   8.098  14.497
91183SOL    HW275447  13.114   8.020  14.620
91184SOL     OW75448   7.028  11.125   4.063
91184SOL    HW175449   6.933  11.119   4.074
91184SOL    HW275450   7.040  11.195   3.999
91185SOL     OW75451  11.199   5.258   0.069
91185SOL    HW175452  11.289   5.290   0.071
91185SOL    HW275453  11.177   5.253  14.846
91186SOL     OW75454   0.848  14.615  10.288
91186SOL    HW175455   0.868  14.659  10.370
91186SOL    HW275456   0.847  14.522  10.311
91187SOL     OW75457   5.178  12.312   4.187
91187SOL    HW175458   5.249  12.375   4.200
91187SOL    HW275459   5.199  12.270   4.103
91188SOL     OW75460   0.222   2.680  14.070
91188SOL    HW175461   0.162   2.614  14.102
91188SOL    HW275462   0.225   2.746  14.139
91189SOL     OW75463   6.962  10.386   9.044
91189SOL    HW175464   6.965  10.418   8.954
91189SOL    HW275465   7.001  10.456   9.096
91190SOL     OW75466  14.545  12.402   7.599
91190SOL    HW175467  14.505  12.411   7.513
91190SOL    HW275468  14.577  12.490   7.620
91191SOL     OW75469   9.042  11.728  14.270
91191SOL    HW175470   9.013  11.818  14.285
91191SOL    HW275471   9.115  11.736  14.209
91192SOL     OW75472  11.697  12.462  10.472
91192SOL    HW175473  11.701  12.489  10.563
91192SOL    HW275474  11.648  12.531  10.427
91193SOL     OW75475   6.467   0.468   1.849
91193SOL    HW175476   6.472   0.563   1.851
91193SOL    HW275477   6.493   0.440   1.937
91194SOL     OW75478  13.834  10.829   6.046
91194SOL    HW175479  13.764  10.842   5.981
91194SOL    HW275480  13.796  10.768   6.110
91195SOL     OW75481   1.000   8.039   1.457
91195SOL    HW175482   1.056   8.115   1.446
91195SOL    HW275483   0.928   8.051   1.395
91196SOL     OW75484   5.542  13.621  12.556
91196SOL    HW175485   5.487  13.699  12.568
91196SOL    HW275486   5.549  13.611  12.461
91197SOL     OW75487  12.999   2.911   9.967
91197SOL    HW175488  12.946   2.834   9.950
91197SOL    HW275489  13.009   2.912  10.063
91198SOL     OW75490  13.783  11.698   3.438
91198SOL    HW175491  13.729  11.774   3.417
91198SOL    HW275492  13.871  11.733   3.448
91199SOL     OW75493   5.507   4.924   0.627
91199SOL    HW175494   5.562   4.994   0.662
91199SOL    HW275495   5.567   4.851   0.612
91200SOL     OW75496   0.880   4.485   6.274
91200SOL    HW175497   0.821   4.546   6.319
91200SOL    HW275498   0.940   4.455   6.343
91201SOL     OW75499   8.822   6.588   1.488
91201SOL    HW175500   8.884   6.547   1.548
91201SOL    HW275501   8.813   6.678   1.520
91202SOL     OW75502   4.422   8.417   5.384
91202SOL    HW175503   4.428   8.334   5.430
91202SOL    HW275504   4.329   8.440   5.388
91203SOL     OW75505   4.040   2.705   7.428
91203SOL    HW175506   4.090   2.625   7.440
91203SOL    HW275507   4.037   2.718   7.334
91204SOL     OW75508   1.181   6.578   3.384
91204SOL    HW175509   1.262   6.594   3.335
91204SOL    HW275510   1.124   6.652   3.362
91205SOL     OW75511  10.854   5.844   5.570
91205SOL    HW175512  10.808   5.827   5.487
91205SOL    HW275513  10.792   5.895   5.622
91206SOL     OW75514  13.858  14.572   7.881
91206SOL    HW175515  13.942  14.546   7.843
91206SOL    HW275516  13.816  14.625   7.813
91207SOL     OW75517  13.656   3.615   3.744
91207SOL    HW175518  13.588   3.553   3.771
91207SOL    HW275519  13.630   3.642   3.656
91208SOL     OW75520   1.147   8.636   2.211
91208SOL    HW175521   1.171   8.560   2.158
91208SOL    HW275522   1.058   8.657   2.183
91209SOL     OW75523  14.165   1.174  14.776
91209SOL    HW175524  14.103   1.122  14.828
91209SOL    HW275525  14.235   1.195  14.838
91210SOL     OW75526  12.255  14.578   9.076
91210SOL    HW175527  12.283  14.508   9.135
91210SOL    HW275528  12.335  14.606   9.032
91211SOL     OW75529   9.900   7.777   6.090
91211SOL    HW175530   9.932   7.867   6.081
91211SOL    HW275531   9.978   7.725   6.109
91212SOL     OW75532   7.439  14.160   6.313
91212SOL    HW175533   7.456  14.160   6.218
91212SOL    HW275534   7.521  14.130   6.351
91213SOL     OW75535   0.746   3.701   5.549
91213SOL    HW175536   0.820   3.761   5.544
91213SOL    HW275537   0.784   3.619   5.581
91214SOL     OW75538  13.718  10.488   0.129
91214SOL    HW175539  13.799  10.539   0.129
91214SOL    HW275540  13.737  10.412   0.073
91215SOL     OW75541   5.132  14.186   1.452
91215SOL    HW175542   5.217  14.191   1.408
91215SOL    HW275543   5.079  14.253   1.408
91216SOL     OW75544  10.532   9.481   5.485
91216SOL    HW175545  10.445   9.469   5.447
91216SOL    HW275546  10.587   9.509   5.412
91217SOL     OW75547  14.319   1.787  14.797
91217SOL    HW175548  14.225   1.790  14.785
91217SOL    HW275549  14.342   1.695  14.780
91218SOL     OW75550   1.543   4.865  13.626
91218SOL    HW175551   1.553   4.960  13.618
91218SOL    HW275552   1.614   4.838  13.684
91219SOL     OW75553   8.817   8.628   7.339
91219SOL    HW175554   8.759   8.645   7.265
91219SOL    HW275555   8.901   8.603   7.299
91220SOL     OW75556   0.060   3.865   9.075
91220SOL    HW175557  14.867   3.900   9.138
91220SOL    HW275558   0.145   3.872   9.119
91221SOL     OW75559  11.237   1.113  12.879
91221SOL    HW175560  11.143   1.109  12.895
91221SOL    HW275561  11.268   1.184  12.935
91222SOL     OW75562   0.113   9.032   5.447
91222SOL    HW175563   0.064   9.030   5.529
91222SOL    HW275564   0.087   9.114   5.405
91223SOL     OW75565   0.007  13.055  12.615
91223SOL    HW175566   0.099  13.067  12.592
91223SOL    HW275567  14.870  12.962  12.637
91224SOL     OW75568   4.044  11.681   9.176
91224SOL    HW175569   4.048  11.602   9.122
91224SOL    HW275570   3.992  11.654   9.252
91225SOL     OW75571   3.251   1.961   9.089
91225SOL    HW175572   3.267   1.866   9.089
91225SOL    HW275573   3.294   1.993   9.010
91226SOL     OW75574   3.414  13.802   9.331
91226SOL    HW175575   3.341  13.863   9.335
91226SOL    HW275576   3.454  13.806   9.419
91227SOL     OW75577   5.612  12.620   2.437
91227SOL    HW175578   5.662  12.544   2.467
91227SOL    HW275579   5.642  12.691   2.493
91228SOL     OW75580  13.185   7.290   7.240
91228SOL    HW175581  13.175   7.258   7.329
91228SOL    HW275582  13.114   7.250   7.191
91229SOL     OW75583   6.007   2.397  12.468
91229SOL    HW175584   6.047   2.345  12.399
91229SOL    HW275585   6.062   2.381  12.545
91230SOL     OW75586   3.028   4.834   2.517
91230SOL    HW175587   3.068   4.919   2.538
91230SOL    HW275588   3.002   4.798   2.601
91231SOL     OW75589  12.276   4.524  10.497
91231SOL    HW175590  12.300   4.484  10.414
91231SOL    HW275591  12.187   4.554  10.485
91232SOL     OW75592   8.663  12.089   9.330
91232SOL    HW175593   8.641  12.178   9.359
91232SOL    HW275594   8.664  12.095   9.234
91233SOL     OW75595   7.421   4.927   8.532
91233SOL    HW175596   7.427   4.885   8.618
91233SOL    HW275597   7.457   5.014   8.544
91234SOL     OW75598   5.309   1.361   5.683
91234SOL    HW175599   5.376   1.429   5.681
91234SOL    HW275600   5.243   1.393   5.743
91235SOL     OW75601   5.228   0.563  11.763
91235SOL    HW175602   5.256   0.538  11.851
91235SOL    HW275603   5.135   0.541  11.760
91236SOL     OW75604   7.402  13.616  14.450
91236SOL    HW175605   7.353  13.610  14.532
91236SOL    HW275606   7.472  13.679  14.468
91237SOL     OW75607   7.888   0.271   3.395
91237SOL    HW175608   7.933   0.343   3.352
91237SOL    HW275609   7.902   0.196   3.337
91238SOL     OW75610  13.827  13.197   2.298
91238SOL    HW175611  13.832  13.218   2.205
91238SOL    HW275612  13.778  13.269   2.337
91239SOL     OW75613   9.097   2.460   9.423
91239SOL    HW175614   9.160   2.414   9.478
91239SOL    HW275615   9.100   2.551   9.453
91240SOL     OW75616   4.766  13.730   4.986
91240SOL    HW175617   4.731  13.743   4.898
91240SOL    HW275618   4.830  13.660   4.976
91241SOL     OW75619   4.817   2.127   0.834
91241SOL    HW175620   4.865   2.144   0.915
91241SOL    HW275621   4.801   2.033   0.835
91242SOL     OW75622   3.720  14.632   0.332
91242SOL    HW175623   3.760  14.545   0.331
91242SOL    HW275624   3.779  14.684   0.388
91243SOL     OW75625   0.592   5.535   9.199
91243SOL    HW175626   0.578   5.441   9.209
91243SOL    HW275627   0.526   5.563   9.135
91244SOL     OW75628  12.321   6.903  10.135
91244SOL    HW175629  12.288   6.965  10.070
91244SOL    HW275630  12.352   6.828  10.084
91245SOL     OW75631   7.791   3.681   6.556
91245SOL    HW175632   7.786   3.776   6.569
91245SOL    HW275633   7.700   3.654   6.544
91246SOL     OW75634   5.348   3.534  13.186
91246SOL    HW175635   5.257   3.519  13.159
91246SOL    HW275636   5.375   3.611  13.136
91247SOL     OW75637   0.400   3.719   7.239
91247SOL    HW175638   0.421   3.695   7.149
91247SOL    HW275639   0.484   3.718   7.285
91248SOL     OW75640   0.245   3.576  10.558
91248SOL    HW175641   0.299   3.654  10.571
91248SOL    HW275642   0.156   3.604  10.583
91249SOL     OW75643  14.116  11.810   5.784
91249SOL    HW175644  14.208  11.811   5.808
91249SOL    HW275645  14.094  11.902   5.766
91250SOL     OW75646   1.669   8.993   8.668
91250SOL    HW175647   1.763   8.991   8.650
91250SOL    HW275648   1.629   9.011   8.583
91251SOL     OW75649   6.576  10.306   4.745
91251SOL    HW175650   6.523  10.380   4.718
91251SOL    HW275651   6.626  10.282   4.667
91252SOL     OW75652  13.126   6.283   4.096
91252SOL    HW175653  13.130   6.222   4.023
91252SOL    HW275654  13.123   6.369   4.055
91253SOL     OW75655   7.572   6.559   9.048
91253SOL    HW175656   7.632   6.575   8.975
91253SOL    HW275657   7.563   6.644   9.092
91254SOL     OW75658   1.229  12.650  12.281
91254SOL    HW175659   1.242  12.728  12.228
91254SOL    HW275660   1.149  12.667  12.330
91255SOL     OW75661   3.523  10.455   2.320
91255SOL    HW175662   3.455  10.467   2.387
91255SOL    HW275663   3.594  10.512   2.349
91256SOL     OW75664   6.432   3.430   3.519
91256SOL    HW175665   6.487   3.464   3.449
91256SOL    HW275666   6.387   3.506   3.554
91257SOL     OW75667   7.455   9.867  11.923
91257SOL    HW175668   7.472   9.814  11.845
91257SOL    HW275669   7.424   9.805  11.988
91258SOL     OW75670   1.468  11.013   9.372
91258SOL    HW175671   1.406  11.047   9.307
91258SOL    HW275672   1.439  11.051   9.455
91259SOL     OW75673   3.979   1.674   9.921
91259SOL    HW175674   3.954   1.589   9.886
91259SOL    HW275675   3.917   1.735   9.881
91260SOL     OW75676   5.461   3.426   8.066
91260SOL    HW175677   5.447   3.415   7.972
91260SOL    HW275678   5.520   3.502   8.073
91261SOL     OW75679  10.953  10.734  10.319
91261SOL    HW175680  10.906  10.707  10.239
91261SOL    HW275681  10.990  10.820  10.297
91262SOL     OW75682   7.227   2.239  12.846
91262SOL    HW175683   7.253   2.314  12.899
91262SOL    HW275684   7.288   2.240  12.772
91263SOL     OW75685  10.738  11.782   6.963
91263SOL    HW175686  10.658  11.753   7.006
91263SOL    HW275687  10.764  11.861   7.011
91264SOL     OW75688   1.076   1.663   9.591
91264SOL    HW175689   1.139   1.654   9.520
91264SOL    HW275690   1.044   1.574   9.606
91265SOL     OW75691   8.570  12.025   1.642
91265SOL    HW175692   8.537  11.985   1.562
91265SOL    HW275693   8.653  12.066   1.616
91266SOL     OW75694   8.197  12.667   1.413
91266SOL    HW175695   8.201  12.730   1.341
91266SOL    HW275696   8.167  12.719   1.488
91267SOL     OW75697   6.662   7.562   8.189
91267SOL    HW175698   6.619   7.611   8.259
91267SOL    HW275699   6.636   7.607   8.109
91268SOL     OW75700   9.379  11.212  14.419
91268SOL    HW175701   9.318  11.282  14.395
91268SOL    HW275702   9.374  11.149  14.347
91269SOL     OW75703   2.449  11.954   7.704
91269SOL    HW175704   2.537  11.963   7.668
91269SOL    HW275705   2.443  12.021   7.772
91270SOL     OW75706   7.899   4.866   8.689
91270SOL    HW175707   7.866   4.778   8.707
91270SOL    HW275708   7.990   4.853   8.663
91271SOL     OW75709   7.978   1.433   8.110
91271SOL    HW175710   7.990   1.517   8.065
91271SOL    HW275711   8.057   1.422   8.163
91272SOL     OW75712  10.384   8.891   0.136
91272SOL    HW175713  10.449   8.937   0.084
91272SOL    HW275714  10.430   8.814   0.169
91273SOL     OW75715   3.755   4.884  11.738
91273SOL    HW175716   3.799   4.936  11.671
91273SOL    HW275717   3.677   4.851  11.694
91274SOL     OW75718   0.422   8.278  14.635
91274SOL    HW175719   0.479   8.221  14.584
91274SOL    HW275720   0.350   8.222  14.664
91275SOL     OW75721   6.937  10.876  13.690
91275SOL    HW175722   6.905  10.901  13.776
91275SOL    HW275723   6.925  10.781  13.686
91276SOL     OW75724  14.673   9.447   9.433
91276SOL    HW175725  14.723   9.528   9.430
91276SOL    HW275726  14.711   9.393   9.364
91277SOL     OW75727   1.705  12.614   3.639
91277SOL    HW175728   1.795  12.641   3.621
91277SOL    HW275729   1.669  12.589   3.554
91278SOL     OW75730   0.222   0.120  10.699
91278SOL    HW175731   0.308   0.104  10.739
91278SOL    HW275732   0.167   0.048  10.730
91279SOL     OW75733   8.711   2.674  11.896
91279SOL    HW175734   8.713   2.579  11.909
91279SOL    HW275735   8.618   2.694  11.881
91280SOL     OW75736   4.900  14.147  11.740
91280SOL    HW175737   4.863  14.072  11.693
91280SOL    HW275738   4.890  14.221  11.680
91281SOL     OW75739  14.455   9.014  10.583
91281SOL    HW175740  14.539   9.036  10.542
91281SOL    HW275741  14.400   8.984  10.511
91282SOL     OW75742   3.500   5.759  11.657
91282SOL    HW175743   3.587   5.790  11.632
91282SOL    HW275744   3.443   5.835  11.650
91283SOL     OW75745   2.567  12.426   4.248
91283SOL    HW175746   2.567  12.451   4.156
91283SOL    HW275747   2.486  12.376   4.259
91284SOL     OW75748   0.499   6.808   4.939
91284SOL    HW175749   0.535   6.812   5.028
91284SOL    HW275750   0.550   6.740   4.896
91285SOL     OW75751   0.023   7.793   2.767
91285SOL    HW175752   0.111   7.830   2.770
91285SOL    HW275753  14.841   7.849   2.825
91286SOL     OW75754   1.833   5.818  10.958
91286SOL    HW175755   1.920   5.796  10.925
91286SOL    HW275756   1.813   5.902  10.919
91287SOL     OW75757   5.184   0.299   1.327
91287SOL    HW175758   5.157   0.340   1.410
91287SOL    HW275759   5.244   0.229   1.354
91288SOL     OW75760   4.298  11.766   2.287
91288SOL    HW175761   4.327  11.701   2.223
91288SOL    HW275762   4.233  11.818   2.241
91289SOL     OW75763   1.584   0.907   9.293
91289SOL    HW175764   1.596   0.825   9.244
91289SOL    HW275765   1.538   0.965   9.232
91290SOL     OW75766   8.342   3.570   9.979
91290SOL    HW175767   8.333   3.664   9.966
91290SOL    HW275768   8.253   3.536   9.974
91291SOL     OW75769  10.157   4.167  14.829
91291SOL    HW175770  10.203   4.242  14.867
91291SOL    HW275771  10.066   4.179  14.855
91292SOL     OW75772  14.310   1.673   4.396
91292SOL    HW175773  14.340   1.744   4.454
91292SOL    HW275774  14.242   1.713   4.342
91293SOL     OW75775  11.942  11.295  14.021
91293SOL    HW175776  11.949  11.347  13.941
91293SOL    HW275777  11.921  11.359  14.089
91294SOL     OW75778   4.143  14.290   2.177
91294SOL    HW175779   4.235  14.267   2.189
91294SOL    HW275780   4.133  14.373   2.225
91295SOL     OW75781   6.194  11.574   8.329
91295SOL    HW175782   6.110  11.562   8.285
91295SOL    HW275783   6.205  11.495   8.383
91296SOL     OW75784   9.732   8.282  14.013
91296SOL    HW175785   9.649   8.285  13.965
91296SOL    HW275786   9.755   8.189  14.014
91297SOL     OW75787   3.120  14.727   1.856
91297SOL    HW175788   3.183  14.696   1.921
91297SOL    HW275789   3.140  14.675   1.778
91298SOL     OW75790  10.360   1.675   8.890
91298SOL    HW175791  10.329   1.595   8.932
91298SOL    HW275792  10.408   1.721   8.958
91299SOL     OW75793   9.321  14.740   1.509
91299SOL    HW175794   9.335  14.660   1.459
91299SOL    HW275795   9.258  14.715   1.577
91300SOL     OW75796   5.462  14.762  13.319
91300SOL    HW175797   5.531  14.729  13.376
91300SOL    HW275798   5.395  14.693  13.321
91301SOL     OW75799   4.134   0.893   4.494
91301SOL    HW175800   4.092   0.886   4.580
91301SOL    HW275801   4.177   0.809   4.482
91302SOL     OW75802   4.208  14.793  12.184
91302SOL    HW175803   4.158  14.717  12.213
91302SOL    HW275804   4.281  14.799  12.245
91303SOL     OW75805   6.921   9.539  12.343
91303SOL    HW175806   6.920   9.620  12.395
91303SOL    HW275807   6.940   9.470  12.407
91304SOL     OW75808  10.992   9.234   0.197
91304SOL    HW175809  10.905   9.196   0.186
91304SOL    HW275810  11.047   9.187   0.134
91305SOL     OW75811   9.413   9.495   5.895
91305SOL    HW175812   9.442   9.462   5.810
91305SOL    HW275813   9.322   9.469   5.901
91306SOL     OW75814   6.765   3.587   7.801
91306SOL    HW175815   6.847   3.614   7.759
91306SOL    HW275816   6.713   3.549   7.730
91307SOL     OW75817   5.628   9.625  13.132
91307SOL    HW175818   5.533   9.632  13.137
91307SOL    HW275819   5.645   9.608  13.039
91308SOL     OW75820   2.768   0.116  14.094
91308SOL    HW175821   2.795   0.185  14.154
91308SOL    HW275822   2.691   0.078  14.135
91309SOL     OW75823   1.452   0.845  12.911
91309SOL    HW175824   1.432   0.835  12.818
91309SOL    HW275825   1.530   0.791  12.925
91310SOL     OW75826   5.003   0.958   4.167
91310SOL    HW175827   4.943   0.931   4.237
91310SOL    HW275828   5.083   0.985   4.213
91311SOL     OW75829   2.250   8.753   8.029
91311SOL    HW175830   2.240   8.670   7.982
91311SOL    HW275831   2.305   8.731   8.105
91312SOL     OW75832  12.748   9.926   3.230
91312SOL    HW175833  12.784   9.928   3.319
91312SOL    HW275834  12.763  10.014   3.196
91313SOL     OW75835   3.837   2.345  11.476
91313SOL    HW175836   3.899   2.317  11.543
91313SOL    HW275837   3.871   2.307  11.395
91314SOL     OW75838  10.917   1.827  11.519
91314SOL    HW175839  10.929   1.744  11.565
91314SOL    HW275840  10.977   1.822  11.444
91315SOL     OW75841  14.254   6.889  11.443
91315SOL    HW175842  14.254   6.979  11.476
91315SOL    HW275843  14.297   6.839  11.512
91316SOL     OW75844   3.380   4.365   8.005
91316SOL    HW175845   3.427   4.317   7.938
91316SOL    HW275846   3.374   4.304   8.079
91317SOL     OW75847   8.786   8.063   2.943
91317SOL    HW175848   8.794   8.156   2.966
91317SOL    HW275849   8.855   8.020   2.993
91318SOL     OW75850   9.305  13.558   1.391
91318SOL    HW175851   9.218  13.521   1.403
91318SOL    HW275852   9.346  13.501   1.325
91319SOL     OW75853   8.365   4.472  12.063
91319SOL    HW175854   8.351   4.538  11.995
91319SOL    HW275855   8.405   4.521  12.135
91320SOL     OW75856   5.593  13.335   6.856
91320SOL    HW175857   5.659  13.385   6.904
91320SOL    HW275858   5.630  13.322   6.769
91321SOL     OW75859   5.693  13.865   9.807
91321SOL    HW175860   5.655  13.868   9.895
91321SOL    HW275861   5.751  13.788   9.809
91322SOL     OW75862   5.510   2.315   0.536
91322SOL    HW175863   5.511   2.334   0.442
91322SOL    HW275864   5.600   2.331   0.565
91323SOL     OW75865  11.055  12.341   1.466
91323SOL    HW175866  11.108  12.414   1.495
91323SOL    HW275867  11.021  12.301   1.546
91324SOL     OW75868   2.724   9.344   0.132
91324SOL    HW175869   2.655   9.293   0.175
91324SOL    HW275870   2.686   9.431   0.122
91325SOL     OW75871   1.462   7.517   3.658
91325SOL    HW175872   1.400   7.587   3.638
91325SOL    HW275873   1.520   7.555   3.724
91326SOL     OW75874   1.171   8.878   8.211
91326SOL    HW175875   1.249   8.866   8.156
91326SOL    HW275876   1.152   8.971   8.206
91327SOL     OW75877   7.647   1.270  13.296
91327SOL    HW175878   7.601   1.320  13.229
91327SOL    HW275879   7.706   1.332  13.338
91328SOL     OW75880  11.870   7.047   7.542
91328SOL    HW175881  11.882   6.982   7.473
91328SOL    HW275882  11.916   7.124   7.510
91329SOL     OW75883   6.024  13.575   3.413
91329SOL    HW175884   5.994  13.558   3.324
91329SOL    HW275885   6.028  13.671   3.419
91330SOL     OW75886   8.860   9.123   1.267
91330SOL    HW175887   8.875   9.129   1.173
91330SOL    HW275888   8.948   9.116   1.305
91331SOL     OW75889   8.434   9.536   6.290
91331SOL    HW175890   8.358   9.507   6.239
91331SOL    HW275891   8.403   9.538   6.380
91332SOL     OW75892  14.194   7.745   0.776
91332SOL    HW175893  14.213   7.674   0.838
91332SOL    HW275894  14.135   7.705   0.712
91333SOL     OW75895  12.517   1.532  11.524
91333SOL    HW175896  12.539   1.438  11.522
91333SOL    HW275897  12.600   1.575  11.543
91334SOL     OW75898   1.589  13.466   6.529
91334SOL    HW175899   1.505  13.491   6.491
91334SOL    HW275900   1.584  13.495   6.620
91335SOL     OW75901  13.519   3.438   9.652
91335SOL    HW175902  13.554   3.487   9.578
91335SOL    HW275903  13.592   3.431   9.713
91336SOL     OW75904  12.412  12.755   9.817
91336SOL    HW175905  12.428  12.735   9.724
91336SOL    HW275906  12.446  12.679   9.864
91337SOL     OW75907   6.168   4.126   1.869
91337SOL    HW175908   6.237   4.164   1.923
91337SOL    HW275909   6.197   4.142   1.779
91338SOL     OW75910   0.354  11.207  11.524
91338SOL    HW175911   0.408  11.136  11.487
91338SOL    HW275912   0.406  11.286  11.511
91339SOL     OW75913  14.510   1.035  10.719
91339SOL    HW175914  14.543   1.084  10.794
91339SOL    HW275915  14.588   0.989  10.685
91340SOL     OW75916   8.027   5.151  10.354
91340SOL    HW175917   8.031   5.244  10.375
91340SOL    HW275918   7.948   5.141  10.302
91341SOL     OW75919   8.291   7.644   0.347
91341SOL    HW175920   8.231   7.592   0.293
91341SOL    HW275921   8.235   7.689   0.410
91342SOL     OW75922  12.091  12.889  13.568
91342SOL    HW175923  12.157  12.889  13.637
91342SOL    HW275924  12.014  12.848  13.608
91343SOL     OW75925  12.679   7.261   5.336
91343SOL    HW175926  12.752   7.309   5.297
91343SOL    HW275927  12.617   7.329   5.364
91344SOL     OW75928  14.524  11.783   8.151
91344SOL    HW175929  14.507  11.789   8.245
91344SOL    HW275930  14.583  11.855   8.133
91345SOL     OW75931   7.398  12.912   8.295
91345SOL    HW175932   7.445  12.991   8.270
91345SOL    HW275933   7.432  12.890   8.381
91346SOL     OW75934  13.806   3.383   7.830
91346SOL    HW175935  13.887   3.410   7.787
91346SOL    HW275936  13.832   3.313   7.890
91347SOL     OW75937   1.139  11.875   5.781
91347SOL    HW175938   1.152  11.963   5.745
91347SOL    HW275939   1.047  11.873   5.807
91348SOL     OW75940   4.928  14.582   4.700
91348SOL    HW175941   4.948  14.655   4.759
91348SOL    HW275942   4.844  14.604   4.661
91349SOL     OW75943   6.917   7.498   6.348
91349SOL    HW175944   6.980   7.486   6.277
91349SOL    HW275945   6.882   7.586   6.334
91350SOL     OW75946  10.413  13.435  13.641
91350SOL    HW175947  10.359  13.512  13.659
91350SOL    HW275948  10.354  13.361  13.656
91351SOL     OW75949   5.061   5.016  11.025
91351SOL    HW175950   5.066   5.112  11.027
91351SOL    HW275951   4.973   4.996  11.056
91352SOL     OW75952   9.017   2.855   7.147
91352SOL    HW175953   9.103   2.827   7.177
91352SOL    HW275954   8.956   2.809   7.205
91353SOL     OW75955  13.903  12.923   4.722
91353SOL    HW175956  13.927  12.899   4.633
91353SOL    HW275957  13.973  12.981   4.751
91354SOL     OW75958  13.680   9.989   7.608
91354SOL    HW175959  13.728   9.935   7.671
91354SOL    HW275960  13.592   9.995   7.645
91355SOL     OW75961   9.899   8.062   5.377
91355SOL    HW175962   9.886   8.156   5.365
91355SOL    HW275963   9.966   8.038   5.313
91356SOL     OW75964   8.982   3.359  14.192
91356SOL    HW175965   8.920   3.416  14.146
91356SOL    HW275966   9.054   3.416  14.215
91357SOL     OW75967  10.800   0.917   7.281
91357SOL    HW175968  10.814   0.827   7.252
91357SOL    HW275969  10.740   0.909   7.355
91358SOL     OW75970  12.021   2.184   9.131
91358SOL    HW175971  12.075   2.128   9.187
91358SOL    HW275972  11.974   2.123   9.075
91359SOL     OW75973   4.380   0.856  11.884
91359SOL    HW175974   4.350   0.946  11.872
91359SOL    HW275975   4.387   0.822  11.795
91360SOL     OW75976   3.087   2.379   8.063
91360SOL    HW175977   3.156   2.319   8.036
91360SOL    HW275978   3.012   2.356   8.008
91361SOL     OW75979   7.504   2.624   9.171
91361SOL    HW175980   7.468   2.711   9.191
91361SOL    HW275981   7.465   2.566   9.237
91362SOL     OW75982  13.250   2.531   6.117
91362SOL    HW175983  13.272   2.491   6.202
91362SOL    HW275984  13.226   2.621   6.139
91363SOL     OW75985   5.753   2.490  10.486
91363SOL    HW175986   5.827   2.445  10.447
91363SOL    HW275987   5.790   2.539  10.559
91364SOL     OW75988   8.431   9.638  10.311
91364SOL    HW175989   8.465   9.598  10.391
91364SOL    HW275990   8.364   9.699  10.341
91365SOL     OW75991  14.501   2.140   1.366
91365SOL    HW175992  14.464   2.227   1.379
91365SOL    HW275993  14.494   2.098   1.452
91366SOL     OW75994   6.800  13.991   9.452
91366SOL    HW175995   6.837  13.967   9.537
91366SOL    HW275996   6.840  14.075   9.431
91367SOL     OW75997   4.242  12.917   5.931
91367SOL    HW175998   4.204  12.997   5.969
91367SOL    HW275999   4.291  12.877   6.002
91368SOL     OW76000   6.069   6.207   7.917
91368SOL    HW176001   6.003   6.275   7.906
91368SOL    HW276002   6.057   6.149   7.842
91369SOL     OW76003   2.525   5.572   0.218
91369SOL    HW176004   2.487   5.579   0.305
91369SOL    HW276005   2.600   5.513   0.229
91370SOL     OW76006   9.512  12.144   2.361
91370SOL    HW176007   9.529  12.106   2.275
91370SOL    HW276008   9.427  12.108   2.387
91371SOL     OW76009  10.820  12.520   5.080
91371SOL    HW176010  10.892  12.583   5.081
91371SOL    HW276011  10.786  12.524   4.990
91372SOL     OW76012  14.812   1.291   3.353
91372SOL    HW176013  14.867   1.355   3.308
91372SOL    HW276014  14.786   1.335   3.435
91373SOL     OW76015   3.646   5.773  14.465
91373SOL    HW176016   3.717   5.709  14.469
91373SOL    HW276017   3.633   5.800  14.555
91374SOL     OW76018   8.310   7.995  14.009
91374SOL    HW176019   8.284   7.995  14.101
91374SOL    HW276020   8.284   8.081  13.976
91375SOL     OW76021   7.835   0.309   1.417
91375SOL    HW176022   7.897   0.333   1.486
91375SOL    HW276023   7.889   0.299   1.338
91376SOL     OW76024   8.285   4.557   0.907
91376SOL    HW176025   8.373   4.525   0.887
91376SOL    HW276026   8.246   4.489   0.962
91377SOL     OW76027   7.854   3.301  12.889
91377SOL    HW176028   7.804   3.231  12.848
91377SOL    HW276029   7.919   3.257  12.943
91378SOL     OW76030  12.387   5.603   1.351
91378SOL    HW176031  12.383   5.656   1.431
91378SOL    HW276032  12.446   5.532   1.373
91379SOL     OW76033   3.778  10.875  13.566
91379SOL    HW176034   3.782  10.877  13.661
91379SOL    HW276035   3.773  10.782  13.544
91380SOL     OW76036   3.657  12.561   5.940
91380SOL    HW176037   3.597  12.633   5.921
91380SOL    HW276038   3.610  12.505   6.001
91381SOL     OW76039  10.784  10.660   2.335
91381SOL    HW176040  10.808  10.571   2.361
91381SOL    HW276041  10.868  10.706   2.329
91382SOL     OW76042  10.859   4.995   2.628
91382SOL    HW176043  10.881   4.930   2.695
91382SOL    HW276044  10.896   4.958   2.547
91383SOL     OW76045   1.073   8.767  11.413
91383SOL    HW176046   0.983   8.766  11.381
91383SOL    HW276047   1.106   8.679  11.397
91384SOL     OW76048   5.127   4.122   6.732
91384SOL    HW176049   5.143   4.151   6.642
91384SOL    HW276050   5.110   4.028   6.725
91385SOL     OW76051  14.409   8.315  14.067
91385SOL    HW176052  14.433   8.229  14.103
91385SOL    HW276053  14.329   8.298  14.017
91386SOL     OW76054   5.737   5.276   8.828
91386SOL    HW176055   5.739   5.197   8.882
91386SOL    HW276056   5.803   5.260   8.760
91387SOL     OW76057   1.101   9.362   5.590
91387SOL    HW176058   1.022   9.416   5.585
91387SOL    HW276059   1.085   9.304   5.665
91388SOL     OW76060  10.700  11.029  10.790
91388SOL    HW176061  10.684  10.947  10.838
91388SOL    HW276062  10.763  11.077  10.845
91389SOL     OW76063   5.986   1.912   9.149
91389SOL    HW176064   5.957   1.844   9.088
91389SOL    HW276065   6.079   1.895   9.162
91390SOL     OW76066  10.009   3.794  14.109
91390SOL    HW176067   9.987   3.844  14.188
91390SOL    HW276068  10.063   3.722  14.141
91391SOL     OW76069   3.181   7.978  10.307
91391SOL    HW176070   3.191   7.949  10.398
91391SOL    HW276071   3.189   7.897  10.255
91392SOL     OW76072   7.979   2.417  12.769
91392SOL    HW176073   7.979   2.406  12.864
91392SOL    HW276074   7.959   2.509  12.755
91393SOL     OW76075   0.500   3.608   8.803
91393SOL    HW176076   0.497   3.601   8.707
91393SOL    HW276077   0.585   3.571   8.827
91394SOL     OW76078  14.212  10.030   6.636
91394SOL    HW176079  14.250  10.033   6.549
91394SOL    HW276080  14.184   9.939   6.647
91395SOL     OW76081   2.264   2.078   3.043
91395SOL    HW176082   2.252   2.149   2.980
91395SOL    HW276083   2.178   2.036   3.048
91396SOL     OW76084  11.975   2.726  11.556
91396SOL    HW176085  11.904   2.757  11.613
91396SOL    HW276086  12.054   2.731  11.610
91397SOL     OW76087   9.433  12.576  11.239
91397SOL    HW176088   9.448  12.670  11.254
91397SOL    HW276089   9.444  12.566  11.144
91398SOL     OW76090   0.207  12.133   5.352
91398SOL    HW176091   0.115  12.107   5.353
91398SOL    HW276092   0.250  12.069   5.410
91399SOL     OW76093   5.893  12.329   5.461
91399SOL    HW176094   5.957  12.320   5.391
91399SOL    HW276095   5.821  12.378   5.422
91400SOL     OW76096   5.439  11.773   0.753
91400SOL    HW176097   5.366  11.835   0.758
91400SOL    HW276098   5.502  11.804   0.818
91401SOL     OW76099   7.710   2.595   5.176
91401SOL    HW176100   7.759   2.517   5.202
91401SOL    HW276101   7.741   2.664   5.235
91402SOL     OW76102  13.680  10.892   4.128
91402SOL    HW176103  13.732  10.818   4.096
91402SOL    HW276104  13.597  10.885   4.080
91403SOL     OW76105   0.033   6.438   5.298
91403SOL    HW176106   0.031   6.429   5.393
91403SOL    HW276107   0.018   6.350   5.265
91404SOL     OW76108  13.079   9.930   0.254
91404SOL    HW176109  13.126   9.849   0.275
91404SOL    HW276110  13.049   9.963   0.338
91405SOL     OW76111  14.509  13.131   9.018
91405SOL    HW176112  14.442  13.162   8.957
91405SOL    HW276113  14.589  13.177   8.991
91406SOL     OW76114   2.917   9.444   8.389
91406SOL    HW176115   2.822   9.438   8.394
91406SOL    HW276116   2.940   9.395   8.310
91407SOL     OW76117   6.982   2.892   7.488
91407SOL    HW176118   7.067   2.848   7.477
91407SOL    HW276119   6.969   2.896   7.583
91408SOL     OW76120   9.910   7.452   9.929
91408SOL    HW176121   9.970   7.503   9.874
91408SOL    HW276122   9.861   7.398   9.867
91409SOL     OW76123   5.781  13.708   3.496
91409SOL    HW176124   5.795  13.769   3.423
91409SOL    HW276125   5.715  13.647   3.463
91410SOL     OW76126   3.635   7.909  12.017
91410SOL    HW176127   3.573   7.931  11.947
91410SOL    HW276128   3.721   7.911  11.974
91411SOL     OW76129   9.366   2.408  10.758
91411SOL    HW176130   9.409   2.468  10.698
91411SOL    HW276131   9.281   2.449  10.777
91412SOL     OW76132   5.448   5.971   6.216
91412SOL    HW176133   5.426   5.927   6.134
91412SOL    HW276134   5.537   6.005   6.201
91413SOL     OW76135  11.415  13.828   9.674
91413SOL    HW176136  11.500  13.814   9.716
91413SOL    HW276137  11.351  13.821   9.746
91414SOL     OW76138   0.868   8.802  12.628
91414SOL    HW176139   0.825   8.856  12.561
91414SOL    HW276140   0.958   8.836  12.632
91415SOL     OW76141  11.430  14.486   1.689
91415SOL    HW176142  11.520  14.473   1.719
91415SOL    HW276143  11.413  14.412   1.631
91416SOL     OW76144   8.782  13.773   9.749
91416SOL    HW176145   8.741  13.687   9.738
91416SOL    HW276146   8.838  13.782   9.672
91417SOL     OW76147   9.242   8.497   2.507
91417SOL    HW176148   9.162   8.531   2.466
91417SOL    HW276149   9.272   8.428   2.447
91418SOL     OW76150   3.039   6.897  13.517
91418SOL    HW176151   3.132   6.920  13.523
91418SOL    HW276152   3.035   6.831  13.448
91419SOL     OW76153   4.133   2.039  10.831
91419SOL    HW176154   4.160   2.130  10.843
91419SOL    HW276155   4.215   1.991  10.819
91420SOL     OW76156   5.283   4.810   2.116
91420SOL    HW176157   5.220   4.755   2.071
91420SOL    HW276158   5.237   4.892   2.132
91421SOL     OW76159  13.074  11.592  10.801
91421SOL    HW176160  13.144  11.649  10.767
91421SOL    HW276161  13.045  11.542  10.725
91422SOL     OW76162   2.233   9.682   8.063
91422SOL    HW176163   2.142   9.655   8.069
91422SOL    HW276164   2.273   9.617   8.004
91423SOL     OW76165   7.173   4.993   0.740
91423SOL    HW176166   7.221   5.042   0.807
91423SOL    HW276167   7.081   5.004   0.763
91424SOL     OW76168  10.564   0.289   7.713
91424SOL    HW176169  10.574   0.339   7.632
91424SOL    HW276170  10.653   0.280   7.747
91425SOL     OW76171  14.567   6.549   8.234
91425SOL    HW176172  14.580   6.590   8.149
91425SOL    HW276173  14.520   6.468   8.215
91426SOL     OW76174   6.174   9.645   6.728
91426SOL    HW176175   6.169   9.716   6.792
91426SOL    HW276176   6.129   9.680   6.651
91427SOL     OW76177  10.885   9.673   3.356
91427SOL    HW176178  10.825   9.600   3.364
91427SOL    HW276179  10.907   9.677   3.263
91428SOL     OW76180   9.263  12.252  13.630
91428SOL    HW176181   9.212  12.234  13.709
91428SOL    HW276182   9.353  12.261  13.661
91429SOL     OW76183   6.612   0.817  10.351
91429SOL    HW176184   6.521   0.822  10.381
91429SOL    HW276185   6.606   0.780  10.263
91430SOL     OW76186  14.270  10.207   1.275
91430SOL    HW176187  14.302  10.118   1.268
91430SOL    HW276188  14.308  10.240   1.357
91431SOL     OW76189   0.399   4.734  14.868
91431SOL    HW176190   0.407   4.793  14.793
91431SOL    HW276191   0.483   4.740   0.043
91432SOL     OW76192  10.050   8.989   9.334
91432SOL    HW176193   9.955   8.990   9.342
91432SOL    HW276194  10.078   8.914   9.388
91433SOL     OW76195   0.252   3.927  14.254
91433SOL    HW176196   0.249   4.012  14.299
91433SOL    HW276197   0.213   3.944  14.169
91434SOL     OW76198   0.043  10.430   5.632
91434SOL    HW176199  14.839  10.477   5.672
91434SOL    HW276200   0.070  10.486   5.559
91435SOL     OW76201   7.248   7.912   3.116
91435SOL    HW176202   7.324   7.919   3.058
91435SOL    HW276203   7.285   7.919   3.204
91436SOL     OW76204   2.233   0.074   3.851
91436SOL    HW176205   2.316   0.060   3.896
91436SOL    HW276206   2.246   0.036   3.764
91437SOL     OW76207   1.768   6.686  11.522
91437SOL    HW176208   1.738   6.761  11.470
91437SOL    HW276209   1.694   6.665  11.579
91438SOL     OW76210  12.972   2.491   9.080
91438SOL    HW176211  12.877   2.488   9.089
91438SOL    HW276212  13.005   2.496   9.169
91439SOL     OW76213   6.852   4.121  13.773
91439SOL    HW176214   6.794   4.046  13.760
91439SOL    HW276215   6.797   4.188  13.814
91440SOL     OW76216   3.161   6.335   4.517
91440SOL    HW176217   3.074   6.293   4.518
91440SOL    HW276218   3.142   6.429   4.518
91441SOL     OW76219   2.071  14.180  13.658
91441SOL    HW176220   2.113  14.266  13.656
91441SOL    HW276221   1.981  14.197  13.629
91442SOL     OW76222   9.880   7.296   0.969
91442SOL    HW176223   9.795   7.329   0.939
91442SOL    HW276224   9.872   7.201   0.963
91443SOL     OW76225   4.665  14.587  11.040
91443SOL    HW176226   4.602  14.616  11.107
91443SOL    HW276227   4.630  14.623  10.959
91444SOL     OW76228   9.730   2.854   9.434
91444SOL    HW176229   9.709   2.763   9.456
91444SOL    HW276230   9.747   2.852   9.339
91445SOL     OW76231   1.097  12.674   8.545
91445SOL    HW176232   1.124  12.588   8.579
91445SOL    HW276233   1.061  12.719   8.621
91446SOL     OW76234  12.234   1.071   4.213
91446SOL    HW176235  12.274   1.091   4.128
91446SOL    HW276236  12.298   1.099   4.278
91447SOL     OW76237   9.527   4.285   1.590
91447SOL    HW176238   9.537   4.380   1.576
91447SOL    HW276239   9.578   4.267   1.669
91448SOL     OW76240   4.889  13.117   6.245
91448SOL    HW176241   4.895  13.201   6.292
91448SOL    HW276242   4.904  13.051   6.313
91449SOL     OW76243   7.551   9.079   1.582
91449SOL    HW176244   7.562   9.084   1.487
91449SOL    HW276245   7.461   9.047   1.594
91450SOL     OW76246   3.962  10.082   6.841
91450SOL    HW176247   3.948   9.990   6.863
91450SOL    HW276248   4.045  10.082   6.793
91451SOL     OW76249   9.805   0.249   4.672
91451SOL    HW176250   9.723   0.206   4.696
91451SOL    HW276251   9.806   0.329   4.723
91452SOL     OW76252   8.737  13.680   1.256
91452SOL    HW176253   8.753  13.726   1.174
91452SOL    HW276254   8.744  13.749   1.323
91453SOL     OW76255   3.706  10.273  12.893
91453SOL    HW176256   3.704  10.285  12.988
91453SOL    HW276257   3.775  10.332  12.862
91454SOL     OW76258   8.843   7.242   6.988
91454SOL    HW176259   8.856   7.175   7.055
91454SOL    HW276260   8.748   7.243   6.973
91455SOL     OW76261   6.388  14.750   4.569
91455SOL    HW176262   6.367  14.691   4.642
91455SOL    HW276263   6.456  14.704   4.520
91456SOL     OW76264   0.944  14.336   4.498
91456SOL    HW176265   0.896  14.406   4.543
91456SOL    HW276266   0.887  14.310   4.426
91457SOL     OW76267   9.560  13.989   3.630
91457SOL    HW176268   9.500  13.928   3.587
91457SOL    HW276269   9.573  13.952   3.717
91458SOL     OW76270   6.497   3.050   8.623
91458SOL    HW176271   6.521   3.091   8.706
91458SOL    HW276272   6.576   3.004   8.595
91459SOL     OW76273   5.047   4.478   9.446
91459SOL    HW176274   5.094   4.486   9.363
91459SOL    HW276275   5.101   4.419   9.499
91460SOL     OW76276   7.339  12.541  14.008
91460SOL    HW176277   7.335  12.511  14.099
91460SOL    HW276278   7.378  12.629  14.015
91461SOL     OW76279   9.244   6.503   2.095
91461SOL    HW176280   9.186   6.444   2.046
91461SOL    HW276281   9.190   6.579   2.115
91462SOL     OW76282   7.603   4.143   6.822
91462SOL    HW176283   7.657   4.097   6.886
91462SOL    HW276284   7.539   4.190   6.874
91463SOL     OW76285   3.339   0.622   0.495
91463SOL    HW176286   3.416   0.572   0.522
91463SOL    HW276287   3.335   0.696   0.556
91464SOL     OW76288   5.574  14.542  12.772
91464SOL    HW176289   5.592  14.633  12.795
91464SOL    HW276290   5.642  14.521  12.707
91465SOL     OW76291   2.854   0.071   9.782
91465SOL    HW176292   2.903   0.028   9.712
91465SOL    HW276293   2.917   0.133   9.820
91466SOL     OW76294  10.730  12.832   0.563
91466SOL    HW176295  10.815  12.827   0.607
91466SOL    HW276296  10.729  12.919   0.523
91467SOL     OW76297  11.971  10.849  13.447
91467SOL    HW176298  11.999  10.941  13.443
91467SOL    HW276299  11.887  10.849  13.400
91468SOL     OW76300  10.719  10.731  12.103
91468SOL    HW176301  10.789  10.763  12.046
91468SOL    HW276302  10.665  10.809  12.120
91469SOL     OW76303  11.882  14.388  10.784
91469SOL    HW176304  11.825  14.313  10.778
91469SOL    HW276305  11.961  14.363  10.736
91470SOL     OW76306   7.680  13.431   3.709
91470SOL    HW176307   7.723  13.345   3.704
91470SOL    HW276308   7.587  13.411   3.715
91471SOL     OW76309  10.639   1.043   1.735
91471SOL    HW176310  10.616   0.950   1.736
91471SOL    HW276311  10.720   1.048   1.787
91472SOL     OW76312   4.314   9.163   5.008
91472SOL    HW176313   4.238   9.105   5.013
91472SOL    HW276314   4.334   9.168   4.915
91473SOL     OW76315   3.858   4.856   9.675
91473SOL    HW176316   3.817   4.803   9.743
91473SOL    HW276317   3.792   4.863   9.606
91474SOL     OW76318  12.322  11.113   8.726
91474SOL    HW176319  12.272  11.193   8.710
91474SOL    HW276320  12.257  11.050   8.758
91475SOL     OW76321  10.772   5.226  11.173
91475SOL    HW176322  10.856   5.180  11.165
91475SOL    HW276323  10.712   5.175  11.119
91476SOL     OW76324  14.614   9.919  13.452
91476SOL    HW176325  14.588  10.004  13.486
91476SOL    HW276326  14.629   9.865  13.531
91477SOL     OW76327   9.624   4.652  13.925
91477SOL    HW176328   9.580   4.731  13.957
91477SOL    HW276329   9.691   4.633  13.991
91478SOL     OW76330   1.331  13.025   9.251
91478SOL    HW176331   1.322  13.090   9.320
91478SOL    HW276332   1.423  13.030   9.224
91479SOL     OW76333   1.043   8.353  14.527
91479SOL    HW176334   0.991   8.321  14.601
91479SOL    HW276335   0.978   8.390  14.467
91480SOL     OW76336   5.190   9.591   5.256
91480SOL    HW176337   5.099   9.609   5.232
91480SOL    HW276338   5.215   9.664   5.312
91481SOL     OW76339   9.839   4.369   7.070
91481SOL    HW176340   9.760   4.391   7.119
91481SOL    HW276341   9.830   4.418   6.988
91482SOL     OW76342  11.684   1.225   9.688
91482SOL    HW176343  11.735   1.149   9.716
91482SOL    HW276344  11.602   1.188   9.656
91483SOL     OW76345   9.173   5.879   0.742
91483SOL    HW176346   9.164   5.922   0.827
91483SOL    HW276347   9.223   5.941   0.688
91484SOL     OW76348   9.495  13.351  13.492
91484SOL    HW176349   9.480  13.444  13.476
91484SOL    HW276350   9.502  13.343  13.587
91485SOL     OW76351  11.407   0.880   4.621
91485SOL    HW176352  11.411   0.964   4.575
91485SOL    HW276353  11.498   0.854   4.631
91486SOL     OW76354   6.361   3.399   8.467
91486SOL    HW176355   6.358   3.495   8.475
91486SOL    HW276356   6.427   3.371   8.529
91487SOL     OW76357  11.285   4.564   0.689
91487SOL    HW176358  11.206   4.574   0.636
91487SOL    HW276359  11.354   4.543   0.625
91488SOL     OW76360   5.197   3.991   1.812
91488SOL    HW176361   5.138   3.938   1.759
91488SOL    HW276362   5.261   3.929   1.847
91489SOL     OW76363  13.326   9.520   8.809
91489SOL    HW176364  13.352   9.449   8.868
91489SOL    HW276365  13.402   9.579   8.809
91490SOL     OW76366   2.434  13.088   0.540
91490SOL    HW176367   2.426  13.141   0.618
91490SOL    HW276368   2.375  13.129   0.476
91491SOL     OW76369   3.356   8.924  11.762
91491SOL    HW176370   3.281   8.918  11.821
91491SOL    HW276371   3.430   8.946  11.818
91492SOL     OW76372   7.066   6.524  12.072
91492SOL    HW176373   7.098   6.614  12.059
91492SOL    HW276374   7.142   6.476  12.105
91493SOL     OW76375   9.519  12.883  12.961
91493SOL    HW176376   9.450  12.936  13.000
91493SOL    HW276377   9.482  12.795  12.956
91494SOL     OW76378   0.834  10.226   7.298
91494SOL    HW176379   0.790  10.147   7.266
91494SOL    HW276380   0.771  10.296   7.285
91495SOL     OW76381   6.334  11.255   9.627
91495SOL    HW176382   6.255  11.296   9.661
91495SOL    HW276383   6.406  11.301   9.670
91496SOL     OW76384  14.168  14.340   5.566
91496SOL    HW176385  14.157  14.304   5.478
91496SOL    HW276386  14.079  14.357   5.597
91497SOL     OW76387   1.412  14.145  14.236
91497SOL    HW176388   1.348  14.121  14.169
91497SOL    HW276389   1.479  14.195  14.189
91498SOL     OW76390   7.506   3.718   1.422
91498SOL    HW176391   7.564   3.714   1.346
91498SOL    HW276392   7.474   3.629   1.433
91499SOL     OW76393   3.284   4.355   6.771
91499SOL    HW176394   3.234   4.431   6.745
91499SOL    HW276395   3.266   4.344   6.864
91500SOL     OW76396  10.422   9.326   9.712
91500SOL    HW176397  10.403   9.356   9.623
91500SOL    HW276398  10.514   9.347   9.726
91501SOL     OW76399  13.405   9.632  12.437
91501SOL    HW176400  13.393   9.549  12.483
91501SOL    HW276401  13.386   9.699  12.503
91502SOL     OW76402   1.702  14.246   2.940
91502SOL    HW176403   1.695  14.315   3.006
91502SOL    HW276404   1.749  14.175   2.984
91503SOL     OW76405   3.817   4.132   4.002
91503SOL    HW176406   3.912   4.123   3.992
91503SOL    HW276407   3.781   4.052   3.963
91504SOL     OW76408   3.103  13.609   6.411
91504SOL    HW176409   3.179  13.609   6.470
91504SOL    HW276410   3.028  13.623   6.468
91505SOL     OW76411   9.194   0.996   3.310
91505SOL    HW176412   9.243   0.953   3.379
91505SOL    HW276413   9.182   1.086   3.341
91506SOL     OW76414   4.416   5.498   8.047
91506SOL    HW176415   4.455   5.550   7.976
91506SOL    HW276416   4.421   5.555   8.124
91507SOL     OW76417  11.780   5.024   0.377
91507SOL    HW176418  11.767   5.047   0.469
91507SOL    HW276419  11.744   4.935   0.369
91508SOL     OW76420   2.405   7.348  10.774
91508SOL    HW176421   2.450   7.432  10.776
91508SOL    HW276422   2.332   7.361  10.713
91509SOL     OW76423   6.512   0.819  14.042
91509SOL    HW176424   6.541   0.838  13.952
91509SOL    HW276425   6.552   0.735  14.063
91510SOL     OW76426   5.039  13.872   3.192
91510SOL    HW176427   5.099  13.924   3.139
91510SOL    HW276428   4.956  13.920   3.190
91511SOL     OW76429  14.372  14.496   2.492
91511SOL    HW176430  14.402  14.417   2.538
91511SOL    HW276431  14.348  14.466   2.404
91512SOL     OW76432   1.524   3.102  11.141
91512SOL    HW176433   1.433   3.122  11.164
91512SOL    HW276434   1.528   3.007  11.143
91513SOL     OW76435   6.843   5.018   8.468
91513SOL    HW176436   6.803   4.952   8.525
91513SOL    HW276437   6.806   4.999   8.381
91514SOL     OW76438  11.844   0.185   3.002
91514SOL    HW176439  11.850   0.102   2.955
91514SOL    HW276440  11.859   0.252   2.935
91515SOL     OW76441  13.772  11.860  10.307
91515SOL    HW176442  13.801  11.916  10.235
91515SOL    HW276443  13.690  11.822  10.276
91516SOL     OW76444  13.174  11.858  13.555
91516SOL    HW176445  13.186  11.813  13.639
91516SOL    HW276446  13.257  11.843  13.509
91517SOL     OW76447   0.382  10.329   8.696
91517SOL    HW176448   0.460  10.332   8.752
91517SOL    HW276449   0.321  10.389   8.738
91518SOL     OW76450   6.679   4.269  12.264
91518SOL    HW176451   6.773   4.285  12.271
91518SOL    HW276452   6.659   4.277  12.171
91519SOL     OW76453   8.307  10.462   4.928
91519SOL    HW176454   8.305  10.367   4.936
91519SOL    HW276455   8.317  10.478   4.834
91520SOL     OW76456   0.888  12.399   6.395
91520SOL    HW176457   0.935  12.368   6.318
91520SOL    HW276458   0.819  12.334   6.408
91521SOL     OW76459  10.998  10.922   2.705
91521SOL    HW176460  11.087  10.947   2.681
91521SOL    HW276461  11.000  10.827   2.709
91522SOL     OW76462  12.472   0.220  13.833
91522SOL    HW176463  12.429   0.279  13.894
91522SOL    HW276464  12.563   0.215  13.863
91523SOL     OW76465  13.918  14.243   4.013
91523SOL    HW176466  13.981  14.302   4.054
91523SOL    HW276467  13.971  14.190   3.952
91524SOL     OW76468   2.660   0.159  10.746
91524SOL    HW176469   2.573   0.174  10.710
91524SOL    HW276470   2.716   0.223  10.702
91525SOL     OW76471   6.247   0.036  13.302
91525SOL    HW176472   6.318   0.036  13.367
91525SOL    HW276473   6.182  14.845  13.337
91526SOL     OW76474   1.235   8.415   2.985
91526SOL    HW176475   1.237   8.508   3.006
91526SOL    HW276476   1.192   8.411   2.899
91527SOL     OW76477   9.156  10.013   9.168
91527SOL    HW176478   9.204  10.081   9.215
91527SOL    HW276479   9.064  10.035   9.180
91528SOL     OW76480   5.838  10.433   2.705
91528SOL    HW176481   5.877  10.374   2.641
91528SOL    HW276482   5.832  10.517   2.660
91529SOL     OW76483   9.631   8.301   0.292
91529SOL    HW176484   9.622   8.378   0.236
91529SOL    HW276485   9.585   8.324   0.372
91530SOL     OW76486  14.858  13.799  14.380
91530SOL    HW176487   0.079  13.819  14.356
91530SOL    HW276488  14.856  13.808  14.475
91531SOL     OW76489  13.495   0.161   2.602
91531SOL    HW176490  13.412   0.167   2.554
91531SOL    HW276491  13.546   0.097   2.552
91532SOL     OW76492   6.341  13.995  13.161
91532SOL    HW176493   6.403  14.031  13.098
91532SOL    HW276494   6.292  14.071  13.193
91533SOL     OW76495   6.949   1.738   0.747
91533SOL    HW176496   6.919   1.804   0.810
91533SOL    HW276497   7.044   1.747   0.747
91534SOL     OW76498   4.351  10.961  11.481
91534SOL    HW176499   4.342  10.990  11.390
91534SOL    HW276500   4.335  11.039  11.533
91535SOL     OW76501   8.845  10.510  12.133
91535SOL    HW176502   8.754  10.519  12.161
91535SOL    HW276503   8.840  10.464  12.049
91536SOL     OW76504   7.323   8.572  13.087
91536SOL    HW176505   7.416   8.589  13.072
91536SOL    HW276506   7.313   8.478  13.069
91537SOL     OW76507   5.235   3.322   7.058
91537SOL    HW176508   5.184   3.261   7.006
91537SOL    HW276509   5.195   3.408   7.040
91538SOL     OW76510   7.160   6.901   1.442
91538SOL    HW176511   7.176   6.961   1.370
91538SOL    HW276512   7.092   6.842   1.409
91539SOL     OW76513   6.069   9.604  11.443
91539SOL    HW176514   5.977   9.583  11.455
91539SOL    HW276515   6.111   9.571  11.523
91540SOL     OW76516  11.922  14.157   8.553
91540SOL    HW176517  11.961  14.116   8.630
91540SOL    HW276518  11.899  14.085   8.495
91541SOL     OW76519   2.845   6.933  14.220
91541SOL    HW176520   2.865   6.878  14.145
91541SOL    HW276521   2.831   7.020  14.184
91542SOL     OW76522   0.893   3.354   4.506
91542SOL    HW176523   0.915   3.402   4.426
91542SOL    HW276524   0.896   3.420   4.576
91543SOL     OW76525  10.419   3.851   9.067
91543SOL    HW176526  10.441   3.910   8.995
91543SOL    HW276527  10.371   3.779   9.026
91544SOL     OW76528   0.441   8.436   8.645
91544SOL    HW176529   0.529   8.426   8.681
91544SOL    HW276530   0.455   8.473   8.558
91545SOL     OW76531  14.054   5.389  14.274
91545SOL    HW176532  14.033   5.296  14.289
91545SOL    HW276533  13.975   5.436  14.301
91546SOL     OW76534   2.946   7.556   2.559
91546SOL    HW176535   2.860   7.576   2.596
91546SOL    HW276536   2.934   7.474   2.512
91547SOL     OW76537   2.709  13.753   4.823
91547SOL    HW176538   2.763  13.769   4.745
91547SOL    HW276539   2.772  13.731   4.891
91548SOL     OW76540   0.703   5.439   4.280
91548SOL    HW176541   0.755   5.518   4.295
91548SOL    HW276542   0.762   5.379   4.236
91549SOL     OW76543  12.437  13.448   1.618
91549SOL    HW176544  12.387  13.369   1.599
91549SOL    HW276545  12.476  13.473   1.534
91550SOL     OW76546   8.221   8.804  14.066
91550SOL    HW176547   8.247   8.838  14.151
91550SOL    HW276548   8.284   8.734  14.048
91551SOL     OW76549  13.988  11.916  12.710
91551SOL    HW176550  14.074  11.954  12.723
91551SOL    HW276551  14.001  11.822  12.718
91552SOL     OW76552  13.157   8.883   6.795
91552SOL    HW176553  13.226   8.817   6.803
91552SOL    HW276554  13.166   8.938   6.873
91553SOL     OW76555  13.484   4.759   6.558
91553SOL    HW176556  13.514   4.827   6.499
91553SOL    HW276557  13.454   4.805   6.636
91554SOL     OW76558  12.811   2.614  11.074
91554SOL    HW176559  12.869   2.662  11.133
91554SOL    HW276560  12.758   2.681  11.033
91555SOL     OW76561  12.765  10.544   2.316
91555SOL    HW176562  12.674  10.555   2.343
91555SOL    HW276563  12.804  10.631   2.326
91556SOL     OW76564  12.578   6.637   4.468
91556SOL    HW176565  12.594   6.554   4.424
91556SOL    HW276566  12.549   6.613   4.556
91557SOL     OW76567   8.440  13.366   1.615
91557SOL    HW176568   8.445  13.289   1.558
91557SOL    HW276569   8.424  13.439   1.556
91558SOL     OW76570   0.218  14.064   6.952
91558SOL    HW176571   0.191  14.020   6.871
91558SOL    HW276572   0.215  14.158   6.931
91559SOL     OW76573   7.674   6.349   8.407
91559SOL    HW176574   7.659   6.342   8.313
91559SOL    HW276575   7.592   6.318   8.446
91560SOL     OW76576   9.095  11.254   2.760
91560SOL    HW176577   9.148  11.275   2.837
91560SOL    HW276578   9.120  11.164   2.737
91561SOL     OW76579  12.202   8.295   5.296
91561SOL    HW176580  12.190   8.373   5.350
91561SOL    HW276581  12.214   8.329   5.208
91562SOL     OW76582   9.607   7.831  11.401
91562SOL    HW176583   9.512   7.820  11.392
91562SOL    HW276584   9.624   7.920  11.372
91563SOL     OW76585   8.231  12.765   0.672
91563SOL    HW176586   8.248  12.840   0.614
91563SOL    HW276587   8.222  12.691   0.612
91564SOL     OW76588  13.833   2.435  13.187
91564SOL    HW176589  13.847   2.486  13.107
91564SOL    HW276590  13.808   2.499  13.253
91565SOL     OW76591  14.467   4.605   0.242
91565SOL    HW176592  14.396   4.646   0.193
91565SOL    HW276593  14.524   4.568   0.175
91566SOL     OW76594   9.480   7.638   1.915
91566SOL    HW176595   9.461   7.727   1.885
91566SOL    HW276596   9.404   7.615   1.970
91567SOL     OW76597   8.839  13.462   9.281
91567SOL    HW176598   8.763  13.513   9.253
91567SOL    HW276599   8.809  13.415   9.360
91568SOL     OW76600   3.374   4.354   8.807
91568SOL    HW176601   3.408   4.347   8.897
91568SOL    HW276602   3.281   4.372   8.818
91569SOL     OW76603   6.682   4.770   9.830
91569SOL    HW176604   6.673   4.866   9.827
91569SOL    HW276605   6.608   4.741   9.884
91570SOL     OW76606   3.602   0.274   6.055
91570SOL    HW176607   3.695   0.275   6.079
91570SOL    HW276608   3.563   0.342   6.109
91571SOL     OW76609   4.030   2.308   2.280
91571SOL    HW176610   4.086   2.331   2.205
91571SOL    HW276611   3.944   2.293   2.242
91572SOL     OW76612  10.067   5.840   3.653
91572SOL    HW176613  10.024   5.822   3.569
91572SOL    HW276614  10.147   5.788   3.650
91573SOL     OW76615   6.305   4.372  14.738
91573SOL    HW176616   6.377   4.431  14.759
91573SOL    HW276617   6.343   4.284  14.743
91574SOL     OW76618   1.774   9.287   0.559
91574SOL    HW176619   1.801   9.379   0.559
91574SOL    HW276620   1.750   9.269   0.650
91575SOL     OW76621  13.524   3.396   8.124
91575SOL    HW176622  13.573   3.346   8.190
91575SOL    HW276623  13.581   3.470   8.103
91576SOL     OW76624   7.086   3.052  13.712
91576SOL    HW176625   6.992   3.039  13.726
91576SOL    HW276626   7.126   3.029  13.796
91577SOL     OW76627  10.954   4.114   5.975
91577SOL    HW176628  10.930   4.037   5.924
91577SOL    HW276629  10.871   4.158   5.993
91578SOL     OW76630   5.174   4.290   9.602
91578SOL    HW176631   5.128   4.208   9.618
91578SOL    HW276632   5.225   4.305   9.681
91579SOL     OW76633   6.877   9.184   1.833
91579SOL    HW176634   6.928   9.233   1.896
91579SOL    HW276635   6.901   9.092   1.848
91580SOL     OW76636  12.511   6.660   6.868
91580SOL    HW176637  12.450   6.645   6.940
91580SOL    HW276638  12.541   6.572   6.844
91581SOL     OW76639  13.295   7.016  11.856
91581SOL    HW176640  13.336   6.994  11.772
91581SOL    HW276641  13.250   6.935  11.883
91582SOL     OW76642  12.332   8.046  11.151
91582SOL    HW176643  12.250   8.020  11.109
91582SOL    HW276644  12.308   8.061  11.243
91583SOL     OW76645   3.634  12.190   4.660
91583SOL    HW176646   3.725  12.164   4.647
91583SOL    HW276647   3.591  12.112   4.695
91584SOL     OW76648  12.539  13.405  12.413
91584SOL    HW176649  12.483  13.339  12.373
91584SOL    HW276650  12.479  13.475  12.440
91585SOL     OW76651   0.190   7.577   7.263
91585SOL    HW176652   0.196   7.651   7.201
91585SOL    HW276653   0.128   7.517   7.222
91586SOL     OW76654  11.811   2.811  11.740
91586SOL    HW176655  11.741   2.860  11.696
91586SOL    HW276656  11.765   2.757  11.804
91587SOL     OW76657  13.874   6.494   3.812
91587SOL    HW176658  13.893   6.465   3.901
91587SOL    HW276659  13.958   6.527   3.780
91588SOL     OW76660   4.998   7.715  10.211
91588SOL    HW176661   4.984   7.671  10.127
91588SOL    HW276662   4.918   7.765  10.225
91589SOL     OW76663   4.280   0.147   3.695
91589SOL    HW176664   4.321   0.229   3.667
91589SOL    HW276665   4.226   0.171   3.770
91590SOL     OW76666   0.036  10.726   0.586
91590SOL    HW176667   0.072  10.638   0.576
91590SOL    HW276668  14.857  10.742   0.505
91591SOL     OW76669   0.957   3.878  11.099
91591SOL    HW176670   0.949   3.871  11.195
91591SOL    HW276671   1.050   3.866  11.082
91592SOL     OW76672  13.687  11.846  11.966
91592SOL    HW176673  13.670  11.866  11.874
91592SOL    HW276674  13.600  11.839  12.005
91593SOL     OW76675  10.522   6.703   3.870
91593SOL    HW176676  10.588   6.676   3.807
91593SOL    HW276677  10.476   6.776   3.828
91594SOL     OW76678  13.048   3.742  13.345
91594SOL    HW176679  13.024   3.822  13.299
91594SOL    HW276680  12.966   3.710  13.382
91595SOL     OW76681  10.513   0.778   0.376
91595SOL    HW176682  10.484   0.736   0.457
91595SOL    HW276683  10.466   0.861   0.375
91596SOL     OW76684   6.898   4.479   6.516
91596SOL    HW176685   6.895   4.572   6.493
91596SOL    HW276686   6.895   4.433   6.433
91597SOL     OW76687  14.792   0.106  11.090
91597SOL    HW176688  14.802   0.113  11.185
91597SOL    HW276689  14.828   0.189  11.056
91598SOL     OW76690   2.969   5.564   4.827
91598SOL    HW176691   2.974   5.514   4.909
91598SOL    HW276692   2.880   5.550   4.796
91599SOL     OW76693  13.640   4.854  13.773
91599SOL    HW176694  13.735   4.866  13.766
91599SOL    HW276695  13.615   4.812  13.691
91600SOL     OW76696   2.095  12.851   3.863
91600SOL    HW176697   2.089  12.894   3.777
91600SOL    HW276698   2.091  12.758   3.844
91601SOL     OW76699   5.505  10.016   6.040
91601SOL    HW176700   5.432  10.073   6.018
91601SOL    HW276701   5.580  10.055   5.995
91602SOL     OW76702   3.552   9.772   1.715
91602SOL    HW176703   3.581   9.701   1.657
91602SOL    HW276704   3.611   9.845   1.696
91603SOL     OW76705   5.122   2.637  10.146
91603SOL    HW176706   5.176   2.716  10.151
91603SOL    HW276707   5.173   2.576  10.093
91604SOL     OW76708  11.147   9.095   7.494
91604SOL    HW176709  11.185   9.183   7.495
91604SOL    HW276710  11.169   9.058   7.579
91605SOL     OW76711   4.426   5.784  11.732
91605SOL    HW176712   4.389   5.869  11.711
91605SOL    HW276713   4.358   5.740  11.783
91606SOL     OW76714  14.303   4.371   9.803
91606SOL    HW176715  14.258   4.407   9.879
91606SOL    HW276716  14.390   4.347   9.835
91607SOL     OW76717  10.662  10.492   3.207
91607SOL    HW176718  10.707  10.408   3.215
91607SOL    HW276719  10.703  10.534   3.131
91608SOL     OW76720   7.589  11.857   8.358
91608SOL    HW176721   7.520  11.826   8.417
91608SOL    HW276722   7.543  11.887   8.280
91609SOL     OW76723   5.093   8.798   6.380
91609SOL    HW176724   5.169   8.741   6.370
91609SOL    HW276725   5.043   8.786   6.299
91610SOL     OW76726   8.964  14.703  10.790
91610SOL    HW176727   8.892  14.733  10.845
91610SOL    HW276728   8.922  14.676  10.708
91611SOL     OW76729   1.201   1.513  11.361
91611SOL    HW176730   1.237   1.425  11.377
91611SOL    HW276731   1.249   1.570  11.421
91612SOL     OW76732   9.565   1.323  13.106
91612SOL    HW176733   9.474   1.317  13.075
91612SOL    HW276734   9.604   1.239  13.081
91613SOL     OW76735   7.156   6.926   8.624
91613SOL    HW176736   7.154   6.885   8.537
91613SOL    HW276737   7.097   7.001   8.615
91614SOL     OW76738   9.412   6.079   3.217
91614SOL    HW176739   9.430   6.165   3.255
91614SOL    HW276740   9.379   6.098   3.129
91615SOL     OW76741  11.611   5.120   2.503
91615SOL    HW176742  11.619   5.026   2.488
91615SOL    HW276743  11.527   5.143   2.462
91616SOL     OW76744   1.656   8.039   0.540
91616SOL    HW176745   1.721   8.088   0.490
91616SOL    HW276746   1.705   7.968   0.580
91617SOL     OW76747  10.336  14.424   9.795
91617SOL    HW176748  10.380  14.491   9.743
91617SOL    HW276749  10.278  14.473   9.852
91618SOL     OW76750   9.335  12.716   1.630
91618SOL    HW176751   9.398  12.664   1.581
91618SOL    HW276752   9.255  12.714   1.577
91619SOL     OW76753   9.269   6.614  11.631
91619SOL    HW176754   9.329   6.539  11.638
91619SOL    HW276755   9.323   6.686  11.600
91620SOL     OW76756   1.078  13.878  14.491
91620SOL    HW176757   1.093  13.791  14.455
91620SOL    HW276758   0.983  13.892  14.481
91621SOL     OW76759   5.164   2.680   3.554
91621SOL    HW176760   5.250   2.720   3.537
91621SOL    HW276761   5.141   2.707   3.642
91622SOL     OW76762   7.973   2.447  13.544
91622SOL    HW176763   7.982   2.542  13.531
91622SOL    HW276764   7.879   2.432  13.544
91623SOL     OW76765   7.759  12.416   7.240
91623SOL    HW176766   7.798  12.491   7.195
91623SOL    HW276767   7.754  12.442   7.332
91624SOL     OW76768  12.677   3.483  14.106
91624SOL    HW176769  12.751   3.511  14.052
91624SOL    HW276770  12.603   3.478  14.046
91625SOL     OW76771   9.895   6.899   9.142
91625SOL    HW176772   9.865   6.900   9.233
91625SOL    HW276773   9.855   6.820   9.105
91626SOL     OW76774   1.904   7.733   5.138
91626SOL    HW176775   1.903   7.652   5.086
91626SOL    HW276776   1.973   7.719   5.202
91627SOL     OW76777   1.458   6.463   5.506
91627SOL    HW176778   1.377   6.511   5.496
91627SOL    HW276779   1.525   6.518   5.465
91628SOL     OW76780   9.074   9.246  11.401
91628SOL    HW176781   8.995   9.193  11.390
91628SOL    HW276782   9.074   9.305  11.326
91629SOL     OW76783   0.236  14.435   8.241
91629SOL    HW176784   0.167  14.383   8.200
91629SOL    HW276785   0.189  14.506   8.285
91630SOL     OW76786   3.228  11.228   0.039
91630SOL    HW176787   3.184  11.256  14.829
91630SOL    HW276788   3.198  11.289   0.107
91631SOL     OW76789   9.908   5.913   1.022
91631SOL    HW176790   9.878   6.003   1.033
91631SOL    HW276791   9.989   5.920   0.971
91632SOL     OW76792  11.914   1.575  10.748
91632SOL    HW176793  11.875   1.611  10.828
91632SOL    HW276794  11.953   1.492  10.775
91633SOL     OW76795   4.903   4.914  12.870
91633SOL    HW176796   4.891   4.904  12.965
91633SOL    HW276797   4.886   5.007  12.854
91634SOL     OW76798  14.515   4.155  12.402
91634SOL    HW176799  14.450   4.155  12.331
91634SOL    HW276800  14.469   4.192  12.477
91635SOL     OW76801   9.718   0.967   8.427
91635SOL    HW176802   9.778   1.035   8.456
91635SOL    HW276803   9.697   0.990   8.336
91636SOL     OW76804   9.554  13.710  14.464
91636SOL    HW176805   9.564  13.703  14.559
91636SOL    HW276806   9.532  13.621  14.435
91637SOL     OW76807   6.682  14.196  11.355
91637SOL    HW176808   6.673  14.179  11.448
91637SOL    HW276809   6.603  14.244  11.331
91638SOL     OW76810  13.037  11.025   2.503
91638SOL    HW176811  13.011  11.053   2.415
91638SOL    HW276812  13.123  10.984   2.491
91639SOL     OW76813   2.224   4.414   1.136
91639SOL    HW176814   2.152   4.352   1.149
91639SOL    HW276815   2.186   4.484   1.082
91640SOL     OW76816   8.795  12.478  11.132
91640SOL    HW176817   8.801  12.394  11.178
91640SOL    HW276818   8.703  12.503  11.140
91641SOL     OW76819   5.647   2.708   1.234
91641SOL    HW176820   5.728   2.722   1.184
91641SOL    HW276821   5.588   2.777   1.204
91642SOL     OW76822   9.538   7.494  13.929
91642SOL    HW176823   9.605   7.521  13.992
91642SOL    HW276824   9.587   7.453  13.858
91643SOL     OW76825   0.861   1.496   1.728
91643SOL    HW176826   0.902   1.572   1.769
91643SOL    HW276827   0.773   1.526   1.705
91644SOL     OW76828  11.858   7.455  14.701
91644SOL    HW176829  11.908   7.464  14.783
91644SOL    HW276830  11.868   7.540  14.658
91645SOL     OW76831  14.251  10.693   0.140
91645SOL    HW176832  14.252  10.604   0.106
91645SOL    HW276833  14.199  10.687   0.220
91646SOL     OW76834   0.989   2.484   1.574
91646SOL    HW176835   0.931   2.426   1.623
91646SOL    HW276836   1.037   2.426   1.515
91647SOL     OW76837  11.359   6.366   2.367
91647SOL    HW176838  11.346   6.372   2.272
91647SOL    HW276839  11.305   6.436   2.403
91648SOL     OW76840  11.909  10.786  10.057
91648SOL    HW176841  12.002  10.807  10.041
91648SOL    HW276842  11.902  10.779  10.152
91649SOL     OW76843   4.407  12.728  14.036
91649SOL    HW176844   4.495  12.717  14.071
91649SOL    HW276845   4.410  12.688  13.949
91650SOL     OW76846   2.644  14.226  10.336
91650SOL    HW176847   2.561  14.268  10.311
91650SOL    HW276848   2.708  14.262  10.275
91651SOL     OW76849   7.300   8.467   5.647
91651SOL    HW176850   7.285   8.461   5.553
91651SOL    HW276851   7.217   8.498   5.683
91652SOL     OW76852  13.901  11.838   1.192
91652SOL    HW176853  13.948  11.756   1.178
91652SOL    HW276854  13.884  11.872   1.104
91653SOL     OW76855   4.078   7.888   3.010
91653SOL    HW176856   4.074   7.812   3.069
91653SOL    HW276857   4.001   7.940   3.033
91654SOL     OW76858   0.870  13.215   7.433
91654SOL    HW176859   0.792  13.245   7.480
91654SOL    HW276860   0.844  13.214   7.341
91655SOL     OW76861   6.411  12.071  10.109
91655SOL    HW176862   6.421  12.104  10.199
91655SOL    HW276863   6.341  12.005  10.116
91656SOL     OW76864   1.294   4.360   6.543
91656SOL    HW176865   1.244   4.363   6.624
91656SOL    HW276866   1.385   4.350   6.570
91657SOL     OW76867  13.766   3.641  10.709
91657SOL    HW176868  13.847   3.687  10.685
91657SOL    HW276869  13.731   3.691  10.782
91658SOL     OW76870   1.737   3.911   3.219
91658SOL    HW176871   1.680   3.987   3.215
91658SOL    HW276872   1.725   3.876   3.308
91659SOL     OW76873  11.334  13.485   4.419
91659SOL    HW176874  11.288  13.471   4.502
91659SOL    HW276875  11.318  13.577   4.398
91660SOL     OW76876   9.104  11.919   2.877
91660SOL    HW176877   9.127  12.011   2.859
91660SOL    HW276878   9.098  11.879   2.791
91661SOL     OW76879   8.374   3.069   3.989
91661SOL    HW176880   8.409   3.048   4.075
91661SOL    HW276881   8.295   3.016   3.981
91662SOL     OW76882   7.026  10.622  14.808
91662SOL    HW176883   7.002  10.710  14.838
91662SOL    HW276884   7.094  10.637  14.743
91663SOL     OW76885   9.472  13.496   8.550
91663SOL    HW176886   9.432  13.488   8.463
91663SOL    HW276887   9.406  13.461   8.610
91664SOL     OW76888   5.695   4.821   9.218
91664SOL    HW176889   5.735   4.908   9.223
91664SOL    HW276890   5.764   4.760   9.244
91665SOL     OW76891  10.040   0.599   4.827
91665SOL    HW176892   9.957   0.562   4.797
91665SOL    HW276893  10.035   0.595   4.922
91666SOL     OW76894   3.767   0.518  11.367
91666SOL    HW176895   3.760   0.603  11.410
91666SOL    HW276896   3.677   0.490  11.353
91667SOL     OW76897   4.229   5.624   0.894
91667SOL    HW176898   4.249   5.694   0.831
91667SOL    HW276899   4.314   5.584   0.913
91668SOL     OW76900   6.472  12.133  12.928
91668SOL    HW176901   6.435  12.220  12.942
91668SOL    HW276902   6.411  12.073  12.970
91669SOL     OW76903   1.794   5.511  13.587
91669SOL    HW176904   1.823   5.422  13.568
91669SOL    HW276905   1.794   5.556  13.503
91670SOL     OW76906   0.938  14.755   2.476
91670SOL    HW176907   0.991  14.754   2.556
91670SOL    HW276908   0.875  14.825   2.490
91671SOL     OW76909  11.591   0.860   1.009
91671SOL    HW176910  11.502   0.877   1.039
91671SOL    HW276911  11.608   0.928   0.943
91672SOL     OW76912   2.099   9.147   4.019
91672SOL    HW176913   2.175   9.089   4.018
91672SOL    HW276914   2.129   9.226   3.973
91673SOL     OW76915   3.203   1.020  13.704
91673SOL    HW176916   3.256   1.080  13.756
91673SOL    HW276917   3.177   1.071  13.627
91674SOL     OW76918   9.680  12.282  10.765
91674SOL    HW176919   9.718  12.292  10.853
91674SOL    HW276920   9.641  12.195  10.765
91675SOL     OW76921   1.450   6.984   2.435
91675SOL    HW176922   1.435   7.076   2.454
91675SOL    HW276923   1.545   6.974   2.440
91676SOL     OW76924  10.480  13.885   3.200
91676SOL    HW176925  10.511  13.851   3.284
91676SOL    HW276926  10.401  13.835   3.182
91677SOL     OW76927  11.059  14.764  14.480
91677SOL    HW176928  11.038  14.770  14.387
91677SOL    HW276929  11.021  14.681  14.508
91678SOL     OW76930   1.321   5.910   2.664
91678SOL    HW176931   1.337   5.997   2.700
91678SOL    HW276932   1.382   5.853   2.712
91679SOL     OW76933   0.893   1.708   8.943
91679SOL    HW176934   0.798   1.700   8.949
91679SOL    HW276935   0.912   1.700   8.849
91680SOL     OW76936   1.229  11.510  14.104
91680SOL    HW176937   1.323  11.493  14.104
91680SOL    HW276938   1.202  11.495  14.194
91681SOL     OW76939  11.441   0.331   9.728
91681SOL    HW176940  11.453   0.374   9.812
91681SOL    HW276941  11.423   0.239   9.750
91682SOL     OW76942   3.098  13.652   0.724
91682SOL    HW176943   3.164  13.644   0.793
91682SOL    HW276944   3.125  13.729   0.674
91683SOL     OW76945  13.438   4.833   9.320
91683SOL    HW176946  13.404   4.866   9.237
91683SOL    HW276947  13.522   4.793   9.297
91684SOL     OW76948   7.258   2.614   6.655
91684SOL    HW176949   7.217   2.548   6.711
91684SOL    HW276950   7.348   2.584   6.644
91685SOL     OW76951   1.079  11.738   6.151
91685SOL    HW176952   1.127  11.816   6.125
91685SOL    HW276953   1.113  11.669   6.094
91686SOL     OW76954   0.126   7.275  12.863
91686SOL    HW176955   0.161   7.346  12.915
91686SOL    HW276956   0.066   7.318  12.801
91687SOL     OW76957   9.783  13.953  10.075
91687SOL    HW176958   9.724  13.899  10.130
91687SOL    HW276959   9.814  13.893  10.008
91688SOL     OW76960   7.793  13.446   5.828
91688SOL    HW176961   7.727  13.507   5.794
91688SOL    HW276962   7.876  13.476   5.791
91689SOL     OW76963   7.762  12.786   4.091
91689SOL    HW176964   7.821  12.844   4.138
91689SOL    HW276965   7.772  12.811   3.999
91690SOL     OW76966   0.700   0.790  14.347
91690SOL    HW176967   0.721   0.772  14.439
91690SOL    HW276968   0.609   0.818  14.348
91691SOL     OW76969   9.305   9.630  14.023
91691SOL    HW176970   9.314   9.537  14.001
91691SOL    HW276971   9.345   9.638  14.109
91692SOL     OW76972   4.815   9.010   9.973
91692SOL    HW176973   4.832   9.026   9.880
91692SOL    HW276974   4.727   8.974   9.976
91693SOL     OW76975  10.897  10.514   2.685
91693SOL    HW176976  10.950  10.580   2.730
91693SOL    HW276977  10.806  10.541   2.702
91694SOL     OW76978   3.665   1.939  13.060
91694SOL    HW176979   3.637   1.910  13.147
91694SOL    HW276980   3.758   1.917  13.056
91695SOL     OW76981   0.397   9.449   5.841
91695SOL    HW176982   0.401   9.354   5.848
91695SOL    HW276983   0.436   9.469   5.756
91696SOL     OW76984   7.706  12.346  12.310
91696SOL    HW176985   7.737  12.267  12.353
91696SOL    HW276986   7.612  12.334  12.303
91697SOL     OW76987  13.568   0.562   3.718
91697SOL    HW176988  13.551   0.625   3.787
91697SOL    HW276989  13.663   0.552   3.716
91698SOL     OW76990   7.003   8.369  10.800
91698SOL    HW176991   7.046   8.424  10.865
91698SOL    HW276992   6.923   8.417  10.778
91699SOL     OW76993   2.615   4.772  14.515
91699SOL    HW176994   2.710   4.776  14.513
91699SOL    HW276995   2.593   4.696  14.461
91700SOL     OW76996   8.479   7.386   4.651
91700SOL    HW176997   8.569   7.373   4.620
91700SOL    HW276998   8.474   7.480   4.669
91701SOL     OW76999   2.814   1.223   0.199
91701SOL    HW177000   2.854   1.244   0.283
91701SOL    HW277001   2.721   1.243   0.210
91702SOL     OW77002   5.590   1.238   6.209
91702SOL    HW177003   5.671   1.198   6.177
91702SOL    HW277004   5.607   1.253   6.303
91703SOL     OW77005   7.047  12.207   6.205
91703SOL    HW177006   6.990  12.144   6.250
91703SOL    HW277007   7.134  12.191   6.243
91704SOL     OW77008  10.594  12.318   2.905
91704SOL    HW177009  10.590  12.403   2.949
91704SOL    HW277010  10.675  12.320   2.855
91705SOL     OW77011   6.545  10.192  14.246
91705SOL    HW177012   6.511  10.252  14.179
91705SOL    HW277013   6.480  10.122  14.250
91706SOL     OW77014   8.432   0.137  13.754
91706SOL    HW177015   8.426   0.042  13.744
91706SOL    HW277016   8.503   0.151  13.817
91707SOL     OW77017  14.152   7.369   9.678
91707SOL    HW177018  14.174   7.282   9.645
91707SOL    HW277019  14.076   7.395   9.626
91708SOL     OW77020   2.794   8.320  14.623
91708SOL    HW177021   2.861   8.387  14.612
91708SOL    HW277022   2.736   8.330  14.547
91709SOL     OW77023   3.448   0.112   1.085
91709SOL    HW177024   3.401   0.187   1.048
91709SOL    HW277025   3.412   0.036   1.038
91710SOL     OW77026  10.766  13.393   6.096
91710SOL    HW177027  10.781  13.395   6.190
91710SOL    HW277028  10.812  13.470   6.062
91711SOL     OW77029  14.573   2.114   7.898
91711SOL    HW177030  14.586   2.207   7.917
91711SOL    HW277031  14.570   2.072   7.985
91712SOL     OW77032  10.761  12.948   4.836
91712SOL    HW177033  10.812  12.880   4.791
91712SOL    HW277034  10.672  12.912   4.841
91713SOL     OW77035  11.600   5.137   6.102
91713SOL    HW177036  11.692   5.152   6.078
91713SOL    HW277037  11.573   5.062   6.050
91714SOL     OW77038  13.342  12.560   7.876
91714SOL    HW177039  13.282  12.613   7.928
91714SOL    HW277040  13.337  12.473   7.916
91715SOL     OW77041  10.900  11.869   8.359
91715SOL    HW177042  10.956  11.853   8.434
91715SOL    HW277043  10.811  11.867   8.394
91716SOL     OW77044  13.386   7.749  12.550
91716SOL    HW177045  13.449   7.694  12.596
91716SOL    HW277046  13.401   7.837  12.586
91717SOL     OW77047   1.940  12.329  13.319
91717SOL    HW177048   2.029  12.305  13.343
91717SOL    HW277049   1.901  12.249  13.286
91718SOL     OW77050   3.241   3.913   9.562
91718SOL    HW177051   3.181   3.979   9.527
91718SOL    HW277052   3.224   3.835   9.510
91719SOL     OW77053  12.366   3.159   1.021
91719SOL    HW177054  12.335   3.078   0.981
91719SOL    HW277055  12.326   3.228   0.968
91720SOL     OW77056   9.580   6.894   6.148
91720SOL    HW177057   9.593   6.849   6.065
91720SOL    HW277058   9.648   6.960   6.150
91721SOL     OW77059   4.827  10.032   3.931
91721SOL    HW177060   4.732  10.021   3.935
91721SOL    HW277061   4.856  10.028   4.022
91722SOL     OW77062   6.561   6.460  14.321
91722SOL    HW177063   6.574   6.486  14.412
91722SOL    HW277064   6.517   6.534  14.281
91723SOL     OW77065   8.348   8.838   1.333
91723SOL    HW177066   8.431   8.845   1.288
91723SOL    HW277067   8.361   8.886   1.415
91724SOL     OW77068   0.576   4.729  14.451
91724SOL    HW177069   0.486   4.727  14.419
91724SOL    HW277070   0.630   4.706  14.375
91725SOL     OW77071  14.359   8.261  10.448
91725SOL    HW177072  14.328   8.229  10.363
91725SOL    HW277073  14.300   8.333  10.470
91726SOL     OW77074   8.953   8.764  11.637
91726SOL    HW177075   8.896   8.688  11.643
91726SOL    HW277076   8.907   8.833  11.685
91727SOL     OW77077  10.412   5.051   5.992
91727SOL    HW177078  10.373   5.018   6.073
91727SOL    HW277079  10.338   5.080   5.939
91728SOL     OW77080   5.231   9.847   3.360
91728SOL    HW177081   5.282   9.771   3.329
91728SOL    HW277082   5.261   9.860   3.450
91729SOL     OW77083  10.707   9.782  12.927
91729SOL    HW177084  10.763   9.747  12.997
91729SOL    HW277085  10.660   9.855  12.969
91730SOL     OW77086   4.447   4.970   7.618
91730SOL    HW177087   4.527   5.017   7.641
91730SOL    HW277088   4.376   5.026   7.648
91731SOL     OW77089   4.120   5.601   2.699
91731SOL    HW177090   4.103   5.668   2.766
91731SOL    HW277091   4.215   5.598   2.692
91732SOL     OW77092   0.456  10.547   3.077
91732SOL    HW177093   0.490  10.460   3.058
91732SOL    HW277094   0.530  10.594   3.116
91733SOL     OW77095  13.454  12.777   7.749
91733SOL    HW177096  13.523  12.775   7.816
91733SOL    HW277097  13.396  12.705   7.774
91734SOL     OW77098   8.374   2.423   3.333
91734SOL    HW177099   8.318   2.397   3.406
91734SOL    HW277100   8.458   2.443   3.373
91735SOL     OW77101   5.426   8.613   8.521
91735SOL    HW177102   5.382   8.697   8.535
91735SOL    HW277103   5.412   8.595   8.428
91736SOL     OW77104  13.064   8.341   3.260
91736SOL    HW177105  13.125   8.281   3.218
91736SOL    HW277106  12.981   8.328   3.213
91737SOL     OW77107  13.702  12.426  13.483
91737SOL    HW177108  13.722  12.468  13.567
91737SOL    HW277109  13.607  12.436  13.473
91738SOL     OW77110  12.000   7.582   5.265
91738SOL    HW177111  12.020   7.629   5.184
91738SOL    HW277112  11.916   7.618   5.294
91739SOL     OW77113   4.638   6.976   9.894
91739SOL    HW177114   4.683   7.057   9.920
91739SOL    HW277115   4.676   6.954   9.809
91740SOL     OW77116   4.877   2.319   2.107
91740SOL    HW177117   4.956   2.372   2.116
91740SOL    HW277118   4.843   2.312   2.196
91741SOL     OW77119  14.569   0.074   1.397
91741SOL    HW177120  14.602   0.122   1.320
91741SOL    HW277121  14.648   0.054   1.447
91742SOL     OW77122   8.259   0.582   7.314
91742SOL    HW177123   8.272   0.670   7.279
91742SOL    HW277124   8.238   0.596   7.406
91743SOL     OW77125  11.768  10.257   7.262
91743SOL    HW177126  11.710  10.331   7.247
91743SOL    HW277127  11.837  10.267   7.196
91744SOL     OW77128   2.370  12.511   4.913
91744SOL    HW177129   2.321  12.444   4.865
91744SOL    HW277130   2.311  12.586   4.916
91745SOL     OW77131  12.114  12.748  12.616
91745SOL    HW177132  12.197  12.788  12.593
91745SOL    HW277133  12.137  12.660  12.646
91746SOL     OW77134   0.993   2.753   3.062
91746SOL    HW177135   1.017   2.667   3.096
91746SOL    HW277136   0.907   2.770   3.099
91747SOL     OW77137  13.287  14.010  10.416
91747SOL    HW177138  13.242  14.056  10.345
91747SOL    HW277139  13.379  14.035  10.407
91748SOL     OW77140  11.268   1.371   3.180
91748SOL    HW177141  11.343   1.344   3.232
91748SOL    HW277142  11.207   1.410   3.243
91749SOL     OW77143   6.861   7.558   6.813
91749SOL    HW177144   6.765   7.555   6.815
91749SOL    HW277145   6.888   7.466   6.818
91750SOL     OW77146  12.766   6.705  14.573
91750SOL    HW177147  12.775   6.783  14.628
91750SOL    HW277148  12.743   6.740  14.486
91751SOL     OW77149   9.196   4.578   1.579
91751SOL    HW177150   9.166   4.589   1.669
91751SOL    HW277151   9.205   4.484   1.568
91752SOL     OW77152   4.693   5.733   3.080
91752SOL    HW177153   4.762   5.668   3.089
91752SOL    HW277154   4.612   5.687   3.104
91753SOL     OW77155   5.772   0.021  11.986
91753SOL    HW177156   5.773   0.051  11.895
91753SOL    HW277157   5.744   0.097  12.037
91754SOL     OW77158  14.584  12.793   5.197
91754SOL    HW177159  14.656  12.853   5.177
91754SOL    HW277160  14.592  12.722   5.133
91755SOL     OW77161  14.233  12.543   0.918
91755SOL    HW177162  14.156  12.491   0.942
91755SOL    HW277163  14.294  12.529   0.990
91756SOL     OW77164   2.991  10.517   8.240
91756SOL    HW177165   2.898  10.514   8.260
91756SOL    HW277166   2.995  10.535   8.146
91757SOL     OW77167   3.645   2.010   8.392
91757SOL    HW177168   3.626   2.100   8.419
91757SOL    HW277169   3.698   1.974   8.463
91758SOL     OW77170   5.793   6.512  12.294
91758SOL    HW177171   5.821   6.483  12.381
91758SOL    HW277172   5.701   6.537  12.306
91759SOL     OW77173  10.098   4.650  13.068
91759SOL    HW177174  10.101   4.557  13.090
91759SOL    HW277175  10.186   4.669  13.036
91760SOL     OW77176  11.410   2.095   9.707
91760SOL    HW177177  11.416   2.029   9.776
91760SOL    HW277178  11.319   2.094   9.679
91761SOL     OW77179  12.107   8.083   6.873
91761SOL    HW177180  12.081   8.175   6.879
91761SOL    HW277181  12.106   8.052   6.964
91762SOL     OW77182   0.783   4.321   9.364
91762SOL    HW177183   0.694   4.347   9.386
91762SOL    HW277184   0.830   4.404   9.351
91763SOL     OW77185   2.323   6.601   9.365
91763SOL    HW177186   2.321   6.508   9.343
91763SOL    HW277187   2.260   6.641   9.306
91764SOL     OW77188  14.490   5.908  14.671
91764SOL    HW177189  14.532   5.992  14.651
91764SOL    HW277190  14.397   5.923  14.658
91765SOL     OW77191  10.608   6.442   5.961
91765SOL    HW177192  10.566   6.528   5.965
91765SOL    HW277193  10.556   6.388   6.020
91766SOL     OW77194   9.277  13.400  13.123
91766SOL    HW177195   9.366  13.436  13.112
91766SOL    HW277196   9.240  13.400  13.035
91767SOL     OW77197   4.721  11.051   0.428
91767SOL    HW177198   4.714  11.142   0.459
91767SOL    HW277199   4.630  11.024   0.414
91768SOL     OW77200   6.216  11.316  13.367
91768SOL    HW177201   6.244  11.404  13.342
91768SOL    HW277202   6.166  11.284  13.292
91769SOL     OW77203  12.402   1.637  10.746
91769SOL    HW177204  12.447   1.711  10.786
91769SOL    HW277205  12.443   1.627  10.660
91770SOL     OW77206   9.469  11.062   6.104
91770SOL    HW177207   9.550  11.090   6.145
91770SOL    HW277208   9.438  11.139   6.056
91771SOL     OW77209   0.042  11.262   0.975
91771SOL    HW177210   0.103  11.198   1.012
91771SOL    HW277211   0.090  11.302   0.903
91772SOL     OW77212  13.106   7.848   1.308
91772SOL    HW177213  13.050   7.887   1.240
91772SOL    HW277214  13.100   7.909   1.382
91773SOL     OW77215   2.538   2.465   8.580
91773SOL    HW177216   2.610   2.527   8.586
91773SOL    HW277217   2.469   2.511   8.533
91774SOL     OW77218  11.703   1.630  12.438
91774SOL    HW177219  11.618   1.631  12.394
91774SOL    HW277220  11.698   1.703  12.499
91775SOL     OW77221  11.902  14.867  13.920
91775SOL    HW177222  11.824   0.052  13.924
91775SOL    HW277223  11.868  14.777  13.918
91776SOL     OW77224   8.708   8.479   9.139
91776SOL    HW177225   8.706   8.574   9.133
91776SOL    HW277226   8.615   8.454   9.144
91777SOL     OW77227  12.075  12.208  12.544
91777SOL    HW177228  12.148  12.247  12.591
91777SOL    HW277229  12.003  12.270  12.554
91778SOL     OW77230   6.997  14.126  11.538
91778SOL    HW177231   6.946  14.202  11.566
91778SOL    HW277232   6.954  14.095  11.459
91779SOL     OW77233   3.008   6.724  13.978
91779SOL    HW177234   3.076   6.695  13.918
91779SOL    HW277235   2.926   6.695  13.937
91780SOL     OW77236  14.449   0.891   4.864
91780SOL    HW177237  14.512   0.941   4.916
91780SOL    HW277238  14.373   0.882   4.922
91781SOL     OW77239   1.673  13.747   6.791
91781SOL    HW177240   1.586  13.753   6.831
91781SOL    HW277241   1.734  13.769   6.861
91782SOL     OW77242  10.663  14.011   5.588
91782SOL    HW177243  10.653  14.106   5.594
91782SOL    HW277244  10.628  13.978   5.671
91783SOL     OW77245  12.245   6.391  14.102
91783SOL    HW177246  12.288   6.326  14.045
91783SOL    HW277247  12.276   6.475  14.069
91784SOL     OW77248   1.288  11.853   0.235
91784SOL    HW177249   1.356  11.915   0.259
91784SOL    HW277250   1.212  11.908   0.214
91785SOL     OW77251  10.922  12.254   5.937
91785SOL    HW177252  10.830  12.254   5.908
91785SOL    HW277253  10.967  12.310   5.873
91786SOL     OW77254  13.455  14.737   7.604
91786SOL    HW177255  13.415  14.672   7.545
91786SOL    HW277256  13.502  14.796   7.546
91787SOL     OW77257   3.951   3.896   5.038
91787SOL    HW177258   3.992   3.809   5.039
91787SOL    HW277259   3.860   3.880   5.061
91788SOL     OW77260   4.094  12.309   6.748
91788SOL    HW177261   4.121  12.379   6.689
91788SOL    HW277262   4.097  12.229   6.695
91789SOL     OW77263   3.826   1.908   9.333
91789SOL    HW177264   3.888   1.975   9.305
91789SOL    HW277265   3.821   1.919   9.428
91790SOL     OW77266   3.326   9.360   7.985
91790SOL    HW177267   3.417   9.390   7.985
91790SOL    HW277268   3.331   9.269   8.016
91791SOL     OW77269   2.644   2.173   5.913
91791SOL    HW177270   2.729   2.140   5.943
91791SOL    HW277271   2.610   2.222   5.988
91792SOL     OW77272  13.650   5.593  13.251
91792SOL    HW177273  13.744   5.599  13.236
91792SOL    HW277274  13.611   5.636  13.176
91793SOL     OW77275   8.891   4.341   7.906
91793SOL    HW177276   8.963   4.302   7.955
91793SOL    HW277277   8.857   4.410   7.964
91794SOL     OW77278   9.380   1.702   5.551
91794SOL    HW177279   9.354   1.629   5.607
91794SOL    HW277280   9.326   1.775   5.580
91795SOL     OW77281   6.834  11.353   1.330
91795SOL    HW177282   6.847  11.396   1.415
91795SOL    HW277283   6.778  11.413   1.281
91796SOL     OW77284   5.891   4.869  14.489
91796SOL    HW177285   5.862   4.778  14.500
91796SOL    HW277286   5.945   4.886  14.567
91797SOL     OW77287   5.553   6.181   1.102
91797SOL    HW177288   5.597   6.217   1.178
91797SOL    HW277289   5.611   6.112   1.070
91798SOL     OW77290   6.965   6.396   8.357
91798SOL    HW177291   6.982   6.418   8.265
91798SOL    HW277292   7.047   6.359   8.388
91799SOL     OW77293  12.421  14.194  13.753
91799SOL    HW177294  12.331  14.187  13.723
91799SOL    HW277295  12.462  14.111  13.729
91800SOL     OW77296   9.746   4.747   3.914
91800SOL    HW177297   9.706   4.829   3.942
91800SOL    HW277298   9.676   4.701   3.868
91801SOL     OW77299   5.662  13.721  10.694
91801SOL    HW177300   5.615  13.642  10.718
91801SOL    HW277301   5.710  13.698  10.615
91802SOL     OW77302  12.022  13.107  12.631
91802SOL    HW177303  12.094  13.152  12.675
91802SOL    HW277304  12.061  13.068  12.554
91803SOL     OW77305  10.993   8.536   7.820
91803SOL    HW177306  11.063   8.570   7.876
91803SOL    HW277307  10.985   8.600   7.750
91804SOL     OW77308   1.879   3.589   0.393
91804SOL    HW177309   1.843   3.587   0.304
91804SOL    HW277310   1.928   3.507   0.400
91805SOL     OW77311   2.361   4.556   9.789
91805SOL    HW177312   2.391   4.481   9.840
91805SOL    HW277313   2.362   4.524   9.698
91806SOL     OW77314   3.044   6.738   7.113
91806SOL    HW177315   3.078   6.818   7.073
91806SOL    HW277316   3.102   6.669   7.082
91807SOL     OW77317   8.760   9.160   3.959
91807SOL    HW177318   8.708   9.112   4.024
91807SOL    HW277319   8.772   9.099   3.887
91808SOL     OW77320   1.385   5.115   0.198
91808SOL    HW177321   1.346   5.178   0.260
91808SOL    HW277322   1.365   5.151   0.112
91809SOL     OW77323   3.310  12.902   0.576
91809SOL    HW177324   3.222  12.891   0.612
91809SOL    HW277325   3.318  12.833   0.511
91810SOL     OW77326   1.411   9.411   6.617
91810SOL    HW177327   1.359   9.377   6.545
91810SOL    HW277328   1.378   9.501   6.629
91811SOL     OW77329  13.772   2.933  10.021
91811SOL    HW177330  13.816   2.857  10.057
91811SOL    HW277331  13.840   3.000  10.013
91812SOL     OW77332   7.642  13.636   3.888
91812SOL    HW177333   7.648  13.559   3.830
91812SOL    HW277334   7.569  13.686   3.853
91813SOL     OW77335  13.281   5.979   8.862
91813SOL    HW177336  13.316   6.004   8.947
91813SOL    HW277337  13.194   6.018   8.860
91814SOL     OW77338   2.672   7.102   4.121
91814SOL    HW177339   2.695   7.059   4.203
91814SOL    HW277340   2.740   7.074   4.060
91815SOL     OW77341  14.594   7.183   2.531
91815SOL    HW177342  14.551   7.235   2.599
91815SOL    HW277343  14.678   7.227   2.517
91816SOL     OW77344  12.715   8.228   6.378
91816SOL    HW177345  12.626   8.207   6.406
91816SOL    HW277346  12.756   8.142   6.365
91817SOL     OW77347   0.553  12.385   6.165
91817SOL    HW177348   0.461  12.409   6.159
91817SOL    HW277349   0.581  12.417   6.251
91818SOL     OW77350   9.082   4.321  13.554
91818SOL    HW177351   9.170   4.320  13.591
91818SOL    HW277352   9.032   4.377  13.613
91819SOL     OW77353  14.074   7.951   9.964
91819SOL    HW177354  14.028   7.881  10.010
91819SOL    HW277355  14.006   8.016   9.945
91820SOL     OW77356   3.169   4.294  11.304
91820SOL    HW177357   3.170   4.330  11.393
91820SOL    HW277358   3.135   4.205  11.315
91821SOL     OW77359   0.866  13.494   1.996
91821SOL    HW177360   0.913  13.494   2.080
91821SOL    HW277361   0.866  13.585   1.968
91822SOL     OW77362   8.144   4.535  12.265
91822SOL    HW177363   8.146   4.441  12.287
91822SOL    HW277364   8.200   4.543  12.188
91823SOL     OW77365   0.709  13.300  13.863
91823SOL    HW177366   0.692  13.370  13.926
91823SOL    HW277367   0.797  13.268  13.886
91824SOL     OW77368   2.504   3.599   4.228
91824SOL    HW177369   2.433   3.565   4.174
91824SOL    HW277370   2.548   3.522   4.262
91825SOL     OW77371  13.864   4.538  11.614
91825SOL    HW177372  13.781   4.555  11.657
91825SOL    HW277373  13.929   4.541  11.684
91826SOL     OW77374   0.154   7.805  14.669
91826SOL    HW177375   0.161   7.826  14.576
91826SOL    HW277376   0.096   7.729  14.672
91827SOL     OW77377   6.195  10.629   0.870
91827SOL    HW177378   6.244  10.574   0.931
91827SOL    HW277379   6.226  10.718   0.887
91828SOL     OW77380   6.328  11.527   4.995
91828SOL    HW177381   6.409  11.489   5.030
91828SOL    HW277382   6.335  11.620   5.013
91829SOL     OW77383   6.519   3.783   4.648
91829SOL    HW177384   6.527   3.710   4.586
91829SOL    HW277385   6.595   3.774   4.705
91830SOL     OW77386   0.293   0.474  14.107
91830SOL    HW177387   0.220   0.448  14.051
91830SOL    HW277388   0.252   0.508  14.186
91831SOL     OW77389  14.546   6.007   8.580
91831SOL    HW177390  14.568   5.920   8.546
91831SOL    HW277391  14.466   5.994   8.630
91832SOL     OW77392  13.470   5.289   6.896
91832SOL    HW177393  13.563   5.306   6.909
91832SOL    HW277394  13.454   5.207   6.944
91833SOL     OW77395  11.489   2.425   8.555
91833SOL    HW177396  11.466   2.485   8.484
91833SOL    HW277397  11.573   2.459   8.589
91834SOL     OW77398  14.092   6.505  11.882
91834SOL    HW177399  14.170   6.481  11.931
91834SOL    HW277400  14.039   6.555  11.945
91835SOL     OW77401   7.431   7.582   4.449
91835SOL    HW177402   7.346   7.542   4.463
91835SOL    HW277403   7.484   7.513   4.409
91836SOL     OW77404  11.751  10.704   5.772
91836SOL    HW177405  11.678  10.694   5.711
91836SOL    HW277406  11.710  10.742   5.851
91837SOL     OW77407  12.273  10.559   3.008
91837SOL    HW177408  12.247  10.639   3.055
91837SOL    HW277409  12.223  10.563   2.927
91838SOL     OW77410   1.291   3.761   4.431
91838SOL    HW177411   1.336   3.736   4.351
91838SOL    HW277412   1.258   3.679   4.467
91839SOL     OW77413   1.369   8.473   5.293
91839SOL    HW177414   1.408   8.413   5.356
91839SOL    HW277415   1.319   8.536   5.346
91840SOL     OW77416   5.328  14.327   6.508
91840SOL    HW177417   5.371  14.283   6.582
91840SOL    HW277418   5.400  14.368   6.460
91841SOL     OW77419  11.385   2.528   6.866
91841SOL    HW177420  11.381   2.444   6.821
91841SOL    HW277421  11.334   2.516   6.945
91842SOL     OW77422   5.069   4.894   0.298
91842SOL    HW177423   4.999   4.834   0.325
91842SOL    HW277424   5.143   4.837   0.279
91843SOL     OW77425   7.063   8.378  10.081
91843SOL    HW177426   7.046   8.408  10.171
91843SOL    HW277427   7.131   8.312  10.091
91844SOL     OW77428  12.388  12.445  13.380
91844SOL    HW177429  12.482  12.462  13.379
91844SOL    HW277430  12.367  12.418  13.291
91845SOL     OW77431   1.646   6.042  10.874
91845SOL    HW177432   1.589   6.114  10.846
91845SOL    HW277433   1.636   5.976  10.805
91846SOL     OW77434   0.291   7.442   9.712
91846SOL    HW177435   0.245   7.492   9.644
91846SOL    HW277436   0.251   7.355   9.709
91847SOL     OW77437   6.338  12.092  11.188
91847SOL    HW177438   6.253  12.082  11.231
91847SOL    HW277439   6.394  12.028  11.231
91848SOL     OW77440   7.291   1.541   4.500
91848SOL    HW177441   7.340   1.623   4.492
91848SOL    HW277442   7.268   1.518   4.411
91849SOL     OW77443   4.371   2.003   8.178
91849SOL    HW177444   4.414   2.020   8.261
91849SOL    HW277445   4.440   1.970   8.121
91850SOL     OW77446  12.853  13.605   1.715
91850SOL    HW177447  12.758  13.596   1.724
91850SOL    HW277448  12.887  13.579   1.800
91851SOL     OW77449   7.561   6.557   5.069
91851SOL    HW177450   7.632   6.494   5.079
91851SOL    HW277451   7.515   6.529   4.989
91852SOL     OW77452   1.895   0.312   5.946
91852SOL    HW177453   1.950   0.377   5.902
91852SOL    HW277454   1.815   0.360   5.969
91853SOL     OW77455   7.575   9.786   2.437
91853SOL    HW177456   7.660   9.747   2.461
91853SOL    HW277457   7.592   9.880   2.434
91854SOL     OW77458   4.890   8.284   0.381
91854SOL    HW177459   4.969   8.334   0.361
91854SOL    HW277460   4.916   8.224   0.451
91855SOL     OW77461   7.169  12.371   0.136
91855SOL    HW177462   7.154  12.337   0.224
91855SOL    HW277463   7.121  12.311   0.079
91856SOL     OW77464  11.408   0.321   5.418
91856SOL    HW177465  11.389   0.363   5.334
91856SOL    HW277466  11.327   0.331   5.468
91857SOL     OW77467   4.084   6.186   1.445
91857SOL    HW177468   4.177   6.206   1.439
91857SOL    HW277469   4.060   6.209   1.535
91858SOL     OW77470   4.597   4.580  13.909
91858SOL    HW177471   4.526   4.626  13.954
91858SOL    HW277472   4.552   4.527  13.842
91859SOL     OW77473   0.705   7.911   3.982
91859SOL    HW177474   0.748   7.888   3.900
91859SOL    HW277475   0.777   7.937   4.040
91860SOL     OW77476   2.382   4.643   0.890
91860SOL    HW177477   2.312   4.584   0.918
91860SOL    HW277478   2.426   4.597   0.819
91861SOL     OW77479   1.074   9.964  14.542
91861SOL    HW177480   1.076   9.959  14.637
91861SOL    HW277481   1.165   9.954  14.515
91862SOL     OW77482   5.125   5.106   6.861
91862SOL    HW177483   5.167   5.185   6.896
91862SOL    HW277484   5.176   5.033   6.895
91863SOL     OW77485   4.893   7.359   9.606
91863SOL    HW177486   4.834   7.434   9.605
91863SOL    HW277487   4.921   7.352   9.697
91864SOL     OW77488  12.182   4.529   1.278
91864SOL    HW177489  12.095   4.530   1.318
91864SOL    HW277490  12.243   4.523   1.351
91865SOL     OW77491   7.199   9.475   3.228
91865SOL    HW177492   7.220   9.397   3.280
91865SOL    HW277493   7.107   9.461   3.202
91866SOL     OW77494  11.532  10.837  10.201
91866SOL    HW177495  11.460  10.882  10.246
91866SOL    HW277496  11.539  10.753  10.246
91867SOL     OW77497   2.379   1.656   9.954
91867SOL    HW177498   2.464   1.638   9.914
91867SOL    HW277499   2.394   1.645  10.048
91868SOL     OW77500  13.007   6.723   4.870
91868SOL    HW177501  13.020   6.765   4.785
91868SOL    HW277502  12.917   6.745   4.895
91869SOL     OW77503   8.815   5.478   1.030
91869SOL    HW177504   8.869   5.399   1.027
91869SOL    HW277505   8.834   5.523   0.947
91870SOL     OW77506   1.690   0.464   1.371
91870SOL    HW177507   1.716   0.373   1.384
91870SOL    HW277508   1.750   0.498   1.304
91871SOL     OW77509   1.202   4.759   1.644
91871SOL    HW177510   1.128   4.748   1.703
91871SOL    HW277511   1.277   4.772   1.701
91872SOL     OW77512  12.753   0.448   2.094
91872SOL    HW177513  12.666   0.407   2.103
91872SOL    HW277514  12.803   0.414   2.168
91873SOL     OW77515  11.730   7.507  10.413
91873SOL    HW177516  11.665   7.440  10.431
91873SOL    HW277517  11.716   7.530  10.321
91874SOL     OW77518   6.940   1.600   5.404
91874SOL    HW177519   6.906   1.670   5.347
91874SOL    HW277520   6.866   1.577   5.460
91875SOL     OW77521  10.315   4.100   6.604
91875SOL    HW177522  10.392   4.155   6.620
91875SOL    HW277523  10.351   4.013   6.585
91876SOL     OW77524  10.140   6.888   8.414
91876SOL    HW177525  10.087   6.961   8.382
91876SOL    HW277526  10.108   6.812   8.366
91877SOL     OW77527   7.393  13.568   4.513
91877SOL    HW177528   7.403  13.662   4.498
91877SOL    HW277529   7.475  13.530   4.483
91878SOL     OW77530   2.715   9.643   4.117
91878SOL    HW177531   2.620   9.638   4.132
91878SOL    HW277532   2.752   9.666   4.202
91879SOL     OW77533   1.760   9.601   7.269
91879SOL    HW177534   1.841   9.552   7.279
91879SOL    HW277535   1.703   9.568   7.339
91880SOL     OW77536  10.643  13.173   2.244
91880SOL    HW177537  10.554  13.195   2.272
91880SOL    HW277538  10.673  13.111   2.310
91881SOL     OW77539   5.240   8.335   6.613
91881SOL    HW177540   5.270   8.265   6.555
91881SOL    HW277541   5.175   8.294   6.670
91882SOL     OW77542   2.116   3.395   4.317
91882SOL    HW177543   2.200   3.391   4.362
91882SOL    HW277544   2.133   3.448   4.239
91883SOL     OW77545  12.208   0.257  12.758
91883SOL    HW177546  12.255   0.246  12.675
91883SOL    HW277547  12.126   0.208  12.746
91884SOL     OW77548  14.269   9.021   5.183
91884SOL    HW177549  14.357   9.034   5.147
91884SOL    HW277550  14.211   9.067   5.122
91885SOL     OW77551   4.948   5.328   5.784
91885SOL    HW177552   5.038   5.315   5.815
91885SOL    HW277553   4.958   5.369   5.698
91886SOL     OW77554   6.776   9.858   5.275
91886SOL    HW177555   6.773   9.889   5.184
91886SOL    HW277556   6.762   9.936   5.328
91887SOL     OW77557   5.939  11.352  12.330
91887SOL    HW177558   5.932  11.398  12.246
91887SOL    HW277559   5.964  11.420  12.392
91888SOL     OW77560  13.492  13.045   3.757
91888SOL    HW177561  13.459  12.982   3.821
91888SOL    HW277562  13.414  13.074   3.710
91889SOL     OW77563  12.164  14.741   7.905
91889SOL    HW177564  12.202  14.680   7.969
91889SOL    HW277565  12.234  14.756   7.842
91890SOL     OW77566  12.103   0.552  12.220
91890SOL    HW177567  12.051   0.588  12.292
91890SOL    HW277568  12.185   0.524  12.261
91891SOL     OW77569   8.605  11.469  11.227
91891SOL    HW177570   8.572  11.412  11.296
91891SOL    HW277571   8.626  11.551  11.271
91892SOL     OW77572   4.645  14.863  10.435
91892SOL    HW177573   4.556  14.832  10.423
91892SOL    HW277574   4.659   0.054  10.362
91893SOL     OW77575   9.902  14.506   9.955
91893SOL    HW177576   9.908  14.419   9.916
91893SOL    HW277577   9.964  14.504  10.027
91894SOL     OW77578   4.462  11.480   3.635
91894SOL    HW177579   4.521  11.453   3.705
91894SOL    HW277580   4.436  11.398   3.592
91895SOL     OW77581   4.551   8.167  13.631
91895SOL    HW177582   4.638   8.189  13.664
91895SOL    HW277583   4.553   8.191  13.539
91896SOL     OW77584   7.836   5.863   0.425
91896SOL    HW177585   7.741   5.856   0.433
91896SOL    HW277586   7.849   5.910   0.343
91897SOL     OW77587   2.882   6.533   5.055
91897SOL    HW177588   2.950   6.599   5.044
91897SOL    HW277589   2.907   6.462   4.996
91898SOL     OW77590  10.469   4.928  13.240
91898SOL    HW177591  10.378   4.957  13.245
91898SOL    HW277592  10.519   4.999  13.279
91899SOL     OW77593   7.034  10.828   4.833
91899SOL    HW177594   6.952  10.858   4.872
91899SOL    HW277595   7.058  10.897   4.770
91900SOL     OW77596  12.851   5.014   9.373
91900SOL    HW177597  12.886   5.034   9.286
91900SOL    HW277598  12.889   5.079   9.431
91901SOL     OW77599   8.273   8.772   1.007
91901SOL    HW177600   8.316   8.841   1.058
91901SOL    HW277601   8.328   8.763   0.929
91902SOL     OW77602   9.164   8.809  12.242
91902SOL    HW177603   9.114   8.852  12.311
91902SOL    HW277604   9.254   8.809  12.274
91903SOL     OW77605   5.353  11.037   4.432
91903SOL    HW177606   5.268  11.064   4.397
91903SOL    HW277607   5.332  10.974   4.501
91904SOL     OW77608   8.715   5.530   1.909
91904SOL    HW177609   8.627   5.542   1.876
91904SOL    HW277610   8.769   5.518   1.831
91905SOL     OW77611   4.022  13.324   2.605
91905SOL    HW177612   4.027  13.390   2.674
91905SOL    HW277613   4.099  13.339   2.551
91906SOL     OW77614   9.055   8.036   0.396
91906SOL    HW177615   9.143   8.006   0.374
91906SOL    HW277616   9.068   8.110   0.455
91907SOL     OW77617  12.181   2.110   0.049
91907SOL    HW177618  12.094   2.113   0.009
91907SOL    HW277619  12.201   2.016   0.053
91908SOL     OW77620  13.628   5.302   1.749
91908SOL    HW177621  13.708   5.353   1.736
91908SOL    HW277622  13.656   5.229   1.804
91909SOL     OW77623   3.051   2.930   7.801
91909SOL    HW177624   3.046   2.874   7.878
91909SOL    HW277625   2.967   2.976   7.799
91910SOL     OW77626   0.872   4.465  11.763
91910SOL    HW177627   0.856   4.549  11.720
91910SOL    HW277628   0.786   4.436  11.793
91911SOL     OW77629   7.375   7.179   0.398
91911SOL    HW177630   7.455   7.137   0.428
91911SOL    HW277631   7.318   7.180   0.475
91912SOL     OW77632  14.546  10.485   6.421
91912SOL    HW177633  14.639  10.465   6.427
91912SOL    HW277634  14.542  10.573   6.382
91913SOL     OW77635  10.292  13.857   4.337
91913SOL    HW177636  10.254  13.937   4.299
91913SOL    HW277637  10.313  13.881   4.427
91914SOL     OW77638   3.837   4.574   5.099
91914SOL    HW177639   3.926   4.541   5.108
91914SOL    HW277640   3.842   4.637   5.027
91915SOL     OW77641   2.937   7.333  12.718
91915SOL    HW177642   2.868   7.399  12.726
91915SOL    HW277643   3.004   7.375  12.664
91916SOL     OW77644   5.090  12.346   3.482
91916SOL    HW177645   5.141  12.411   3.433
91916SOL    HW277646   5.012  12.394   3.510
91917SOL     OW77647   8.090  14.281   7.096
91917SOL    HW177648   8.168  14.319   7.136
91917SOL    HW277649   8.029  14.354   7.088
91918SOL     OW77650   1.581   1.454   3.656
91918SOL    HW177651   1.525   1.422   3.727
91918SOL    HW277652   1.668   1.460   3.696
91919SOL     OW77653   6.413   4.674   0.401
91919SOL    HW177654   6.334   4.722   0.376
91919SOL    HW277655   6.401   4.587   0.363
91920SOL     OW77656   9.829   2.057  13.466
91920SOL    HW177657   9.784   1.974  13.485
91920SOL    HW277658   9.871   2.081  13.548
91921SOL     OW77659   1.735   8.261   3.661
91921SOL    HW177660   1.679   8.334   3.688
91921SOL    HW277661   1.820   8.281   3.699
91922SOL     OW77662   2.553  10.051  10.612
91922SOL    HW177663   2.557  10.146  10.614
91922SOL    HW277664   2.522  10.027  10.700
91923SOL     OW77665   2.116   5.328   2.355
91923SOL    HW177666   2.094   5.343   2.263
91923SOL    HW277667   2.074   5.400   2.401
91924SOL     OW77668  14.126   6.995   3.816
91924SOL    HW177669  14.088   7.025   3.734
91924SOL    HW277670  14.086   6.909   3.831
91925SOL     OW77671  12.094   5.198   2.557
91925SOL    HW177672  12.183   5.232   2.560
91925SOL    HW277673  12.061   5.212   2.646
91926SOL     OW77674   3.112   3.366  12.360
91926SOL    HW177675   3.104   3.354  12.454
91926SOL    HW277676   3.104   3.461  12.347
91927SOL     OW77677   2.923   1.806  11.849
91927SOL    HW177678   2.956   1.889  11.816
91927SOL    HW277679   2.975   1.740  11.803
91928SOL     OW77680   7.118   7.478   1.441
91928SOL    HW177681   7.135   7.447   1.530
91928SOL    HW277682   7.088   7.569   1.453
91929SOL     OW77683  14.577   2.195   8.484
91929SOL    HW177684  14.571   2.212   8.578
91929SOL    HW277685  14.557   2.102   8.475
91930SOL     OW77686  13.504  13.133   7.183
91930SOL    HW177687  13.439  13.099   7.122
91930SOL    HW277688  13.564  13.184   7.129
91931SOL     OW77689  12.358  10.288   7.687
91931SOL    HW177690  12.316  10.224   7.630
91931SOL    HW277691  12.386  10.237   7.763
91932SOL     OW77692   0.250   3.313   4.668
91932SOL    HW177693   0.178   3.370   4.642
91932SOL    HW277694   0.266   3.259   4.591
91933SOL     OW77695   4.480   5.012   7.292
91933SOL    HW177696   4.511   5.013   7.383
91933SOL    HW277697   4.385   5.018   7.298
91934SOL     OW77698   4.531   3.582  10.656
91934SOL    HW177699   4.571   3.546  10.735
91934SOL    HW277700   4.445   3.539  10.651
91935SOL     OW77701  12.760   4.705   7.745
91935SOL    HW177702  12.786   4.623   7.787
91935SOL    HW277703  12.842   4.740   7.711
91936SOL     OW77704   8.243   2.648   6.815
91936SOL    HW177705   8.329   2.605   6.818
91936SOL    HW277706   8.230   2.667   6.722
91937SOL     OW77707   1.691   4.668   3.058
91937SOL    HW177708   1.757   4.655   2.990
91937SOL    HW277709   1.723   4.618   3.133
91938SOL     OW77710  11.094   3.870   1.129
91938SOL    HW177711  11.186   3.846   1.131
91938SOL    HW277712  11.094   3.963   1.104
91939SOL     OW77713  12.641   0.875   3.850
91939SOL    HW177714  12.715   0.827   3.812
91939SOL    HW277715  12.603   0.923   3.777
91940SOL     OW77716  10.270   3.345   5.520
91940SOL    HW177717  10.180   3.330   5.493
91940SOL    HW277718  10.283   3.439   5.510
91941SOL     OW77719  10.549   0.339   0.752
91941SOL    HW177720  10.514   0.411   0.700
91941SOL    HW277721  10.578   0.381   0.833
91942SOL     OW77722  13.840   6.163   4.292
91942SOL    HW177723  13.896   6.202   4.360
91942SOL    HW277724  13.812   6.237   4.239
91943SOL     OW77725  13.779   8.535   0.542
91943SOL    HW177726  13.792   8.509   0.633
91943SOL    HW277727  13.806   8.459   0.491
91944SOL     OW77728   5.685  14.717   0.436
91944SOL    HW177729   5.752  14.737   0.370
91944SOL    HW277730   5.667  14.624   0.423
91945SOL     OW77731   7.035   5.631   4.103
91945SOL    HW177732   7.028   5.726   4.099
91945SOL    HW277733   6.949   5.602   4.135
91946SOL     OW77734  14.373   0.116   3.368
91946SOL    HW177735  14.435   0.087   3.302
91946SOL    HW277736  14.414   0.193   3.407
91947SOL     OW77737   6.909   3.266  10.062
91947SOL    HW177738   6.920   3.176  10.093
91947SOL    HW277739   6.998   3.299  10.050
91948SOL     OW77740   8.444  10.578   2.432
91948SOL    HW177741   8.429  10.671   2.444
91948SOL    HW277742   8.402  10.558   2.348
91949SOL     OW77743   8.412  11.319   2.179
91949SOL    HW177744   8.364  11.250   2.134
91949SOL    HW277745   8.345  11.372   2.223
91950SOL     OW77746  11.384   4.802   7.976
91950SOL    HW177747  11.403   4.709   7.986
91950SOL    HW277748  11.443   4.831   7.906
91951SOL     OW77749  12.209   5.615   7.788
91951SOL    HW177750  12.232   5.561   7.864
91951SOL    HW277751  12.114   5.605   7.779
91952SOL     OW77752  11.682   0.961   4.073
91952SOL    HW177753  11.704   1.025   4.005
91952SOL    HW277754  11.712   0.877   4.038
91953SOL     OW77755   4.528  10.329   6.217
91953SOL    HW177756   4.490  10.398   6.271
91953SOL    HW277757   4.467  10.256   6.225
91954SOL     OW77758  12.942   5.756   3.985
91954SOL    HW177759  13.034   5.782   3.991
91954SOL    HW277760  12.934   5.682   4.044
91955SOL     OW77761  10.182   6.541   8.568
91955SOL    HW177762  10.106   6.553   8.512
91955SOL    HW277763  10.145   6.530   8.656
91956SOL     OW77764   4.371   3.603   9.479
91956SOL    HW177765   4.352   3.516   9.514
91956SOL    HW277766   4.288   3.650   9.487
91957SOL     OW77767   7.551   2.688   7.610
91957SOL    HW177768   7.585   2.776   7.624
91957SOL    HW277769   7.628   2.632   7.606
91958SOL     OW77770  14.296   9.376   1.337
91958SOL    HW177771  14.327   9.287   1.354
91958SOL    HW277772  14.201   9.369   1.330
91959SOL     OW77773   7.764  10.642  10.532
91959SOL    HW177774   7.717  10.665  10.452
91959SOL    HW277775   7.779  10.725  10.576
91960SOL     OW77776   2.245   2.766   8.918
91960SOL    HW177777   2.260   2.777   9.012
91960SOL    HW277778   2.306   2.697   8.892
91961SOL     OW77779   1.226  12.562  13.724
91961SOL    HW177780   1.213  12.543  13.817
91961SOL    HW277781   1.239  12.657  13.721
91962SOL     OW77782   2.007   4.062   3.576
91962SOL    HW177783   2.037   3.988   3.523
91962SOL    HW277784   2.012   4.030   3.666
91963SOL     OW77785   8.636  10.826  12.066
91963SOL    HW177786   8.615  10.912  12.030
91963SOL    HW277787   8.627  10.767  11.991
91964SOL     OW77788  13.429  11.184   7.860
91964SOL    HW177789  13.499  11.119   7.865
91964SOL    HW277790  13.471  11.265   7.889
91965SOL     OW77791  10.295  14.349   8.407
91965SOL    HW177792  10.370  14.408   8.404
91965SOL    HW277793  10.333  14.264   8.430
91966SOL     OW77794  10.747   6.177   4.726
91966SOL    HW177795  10.655   6.198   4.712
91966SOL    HW277796  10.793   6.258   4.703
91967SOL     OW77797   4.006   5.614   7.689
91967SOL    HW177798   4.024   5.560   7.766
91967SOL    HW277799   3.913   5.635   7.695
91968SOL     OW77800   3.902  13.179  10.914
91968SOL    HW177801   3.881  13.249  10.851
91968SOL    HW277802   3.990  13.152  10.891
91969SOL     OW77803   0.569   8.317   6.375
91969SOL    HW177804   0.482   8.276   6.377
91969SOL    HW277805   0.556   8.403   6.414
91970SOL     OW77806  10.553  12.444   1.642
91970SOL    HW177807  10.647  12.433   1.659
91970SOL    HW277808  10.510  12.406   1.718
91971SOL     OW77809  13.466   7.134   6.657
91971SOL    HW177810  13.421   7.185   6.590
91971SOL    HW277811  13.559   7.141   6.634
91972SOL     OW77812   9.441   9.121  10.158
91972SOL    HW177813   9.441   9.189  10.225
91972SOL    HW277814   9.349   9.109  10.137
91973SOL     OW77815   0.390  10.110  10.310
91973SOL    HW177816   0.352  10.151  10.233
91973SOL    HW277817   0.405  10.182  10.371
91974SOL     OW77818  14.311   7.150  14.746
91974SOL    HW177819  14.283   7.218  14.806
91974SOL    HW277820  14.390   7.186  14.704
91975SOL     OW77821  10.633   7.683   0.530
91975SOL    HW177822  10.560   7.625   0.552
91975SOL    HW277823  10.711   7.633   0.550
91976SOL     OW77824   1.283   5.659   3.133
91976SOL    HW177825   1.322   5.590   3.080
91976SOL    HW277826   1.190   5.658   3.111
91977SOL     OW77827   0.367   7.819   3.836
91977SOL    HW177828   0.408   7.824   3.922
91977SOL    HW277829   0.338   7.728   3.828
91978SOL     OW77830   0.188  12.501  10.189
91978SOL    HW177831   0.101  12.535  10.167
91978SOL    HW277832   0.173  12.409  10.210
91979SOL     OW77833   0.007   5.936  12.151
91979SOL    HW177834   0.028   5.849  12.119
91979SOL    HW277835  14.797   5.924  12.203
91980SOL     OW77836   1.482   4.878   3.625
91980SOL    HW177837   1.488   4.816   3.551
91980SOL    HW277838   1.499   4.824   3.702
91981SOL     OW77839   1.538   4.424  11.745
91981SOL    HW177840   1.552   4.380  11.661
91981SOL    HW277841   1.583   4.369  11.809
91982SOL     OW77842   8.126   2.147  12.293
91982SOL    HW177843   8.213   2.183  12.279
91982SOL    HW277844   8.110   2.160  12.387
91983SOL     OW77845   7.086   4.885   6.180
91983SOL    HW177846   7.094   4.945   6.255
91983SOL    HW277847   7.030   4.932   6.119
91984SOL     OW77848  13.922   2.446   2.629
91984SOL    HW177849  13.975   2.522   2.651
91984SOL    HW277850  13.978   2.394   2.571
91985SOL     OW77851   0.275  10.372  14.307
91985SOL    HW177852   0.263  10.360  14.401
91985SOL    HW277853   0.188  10.356  14.270
91986SOL     OW77854  12.910  12.301   2.587
91986SOL    HW177855  12.829  12.251   2.577
91986SOL    HW277856  12.952  12.262   2.664
91987SOL     OW77857   7.926   6.902  12.454
91987SOL    HW177858   7.949   6.892  12.361
91987SOL    HW277859   7.927   6.996  12.469
91988SOL     OW77860   7.551   6.113  12.790
91988SOL    HW177861   7.546   6.201  12.751
91988SOL    HW277862   7.464   6.076  12.776
91989SOL     OW77863  12.338   6.669   9.309
91989SOL    HW177864  12.418   6.623   9.284
91989SOL    HW277865  12.294   6.686   9.226
91990SOL     OW77866   9.897  12.451   7.504
91990SOL    HW177867   9.972  12.428   7.449
91990SOL    HW277868   9.839  12.375   7.498
91991SOL     OW77869   4.840  11.894   5.764
91991SOL    HW177870   4.825  11.800   5.775
91991SOL    HW277871   4.918  11.900   5.709
91992SOL     OW77872  13.302   1.589   8.943
91992SOL    HW177873  13.243   1.579   8.869
91992SOL    HW277874  13.244   1.593   9.019
91993SOL     OW77875   9.018  14.039   6.363
91993SOL    HW177876   9.057  13.983   6.429
91993SOL    HW277877   9.090  14.095   6.334
91994SOL     OW77878  11.330  13.076   1.578
91994SOL    HW177879  11.332  13.162   1.535
91994SOL    HW277880  11.411  13.034   1.550
91995SOL     OW77881   8.501   4.489   2.937
91995SOL    HW177882   8.469   4.410   2.980
91995SOL    HW277883   8.504   4.554   3.006
91996SOL     OW77884  13.682   8.796   1.441
91996SOL    HW177885  13.759   8.846   1.413
91996SOL    HW277886  13.678   8.723   1.380
91997SOL     OW77887  12.111   4.183   0.845
91997SOL    HW177888  12.027   4.150   0.877
91997SOL    HW277889  12.121   4.268   0.888
91998SOL     OW77890   6.924  13.978  14.369
91998SOL    HW177891   6.981  13.912  14.329
91998SOL    HW277892   6.912  13.948  14.459
91999SOL     OW77893   9.172   5.278  14.089
91999SOL    HW177894   9.145   5.314  14.004
91999SOL    HW277895   9.105   5.214  14.111
92000SOL     OW77896  11.956   5.688   7.920
92000SOL    HW177897  11.866   5.660   7.910
92000SOL    HW277898  11.980   5.661   8.009
92001SOL     OW77899  10.774  10.733   4.780
92001SOL    HW177900  10.721  10.653   4.780
92001SOL    HW277901  10.751  10.777   4.698
92002SOL     OW77902   5.370  13.485   8.622
92002SOL    HW177903   5.309  13.426   8.577
92002SOL    HW277904   5.413  13.533   8.550
92003SOL     OW77905   9.129   6.688   1.855
92003SOL    HW177906   9.083   6.679   1.939
92003SOL    HW277907   9.222   6.685   1.878
92004SOL     OW77908   9.049   1.816   2.068
92004SOL    HW177909   8.998   1.894   2.090
92004SOL    HW277910   9.137   1.849   2.050
92005SOL     OW77911  12.732   4.537  11.426
92005SOL    HW177912  12.780   4.512  11.347
92005SOL    HW277913  12.676   4.610  11.399
92006SOL     OW77914   2.567   0.718   2.533
92006SOL    HW177915   2.532   0.806   2.522
92006SOL    HW277916   2.527   0.668   2.461
92007SOL     OW77917  11.567  13.305  14.644
92007SOL    HW177918  11.588  13.284  14.553
92007SOL    HW277919  11.592  13.397  14.654
92008SOL     OW77920  14.065   7.268  10.580
92008SOL    HW177921  14.007   7.201  10.544
92008SOL    HW277922  14.153   7.240  10.557
92009SOL     OW77923   4.550   0.133  14.157
92009SOL    HW177924   4.599   0.211  14.132
92009SOL    HW277925   4.588   0.106  14.240
92010SOL     OW77926   7.205  14.339   0.090
92010SOL    HW177927   7.263  14.386   0.151
92010SOL    HW277928   7.260  14.322   0.013
92011SOL     OW77929   2.984   2.090  14.074
92011SOL    HW177930   2.900   2.115  14.112
92011SOL    HW277931   3.035   2.171  14.072
92012SOL     OW77932   2.205   7.419  12.179
92012SOL    HW177933   2.225   7.325  12.179
92012SOL    HW277934   2.212   7.445  12.271
92013SOL     OW77935   3.646  10.166   4.594
92013SOL    HW177936   3.739  10.179   4.579
92013SOL    HW277937   3.633  10.072   4.581
92014SOL     OW77938   1.024  13.308   3.827
92014SOL    HW177939   1.011  13.246   3.755
92014SOL    HW277940   0.936  13.322   3.862
92015SOL     OW77941  10.562   6.648  12.848
92015SOL    HW177942  10.539   6.739  12.862
92015SOL    HW277943  10.556   6.607  12.934
92016SOL     OW77944   8.269   8.095   7.320
92016SOL    HW177945   8.317   8.167   7.278
92016SOL    HW277946   8.208   8.139   7.379
92017SOL     OW77947   2.139   6.181  14.406
92017SOL    HW177948   2.160   6.274  14.413
92017SOL    HW277949   2.190   6.140  14.476
92018SOL     OW77950   8.011   1.492   1.449
92018SOL    HW177951   8.026   1.397   1.447
92018SOL    HW277952   8.086   1.529   1.402
92019SOL     OW77953  11.727   7.248   0.210
92019SOL    HW177954  11.760   7.296   0.286
92019SOL    HW277955  11.696   7.316   0.150
92020SOL     OW77956   3.027   3.917   3.798
92020SOL    HW177957   3.119   3.894   3.812
92020SOL    HW277958   3.003   3.873   3.717
92021SOL     OW77959   3.277  13.519   8.343
92021SOL    HW177960   3.213  13.574   8.298
92021SOL    HW277961   3.342  13.582   8.376
92022SOL     OW77962   8.792  10.855  14.332
92022SOL    HW177963   8.887  10.849  14.319
92022SOL    HW277964   8.773  10.792  14.401
92023SOL     OW77965  10.662  13.451   2.274
92023SOL    HW177966  10.657  13.511   2.200
92023SOL    HW277967  10.642  13.365   2.237
92024SOL     OW77968   5.419   1.083   9.434
92024SOL    HW177969   5.436   1.144   9.506
92024SOL    HW277970   5.325   1.069   9.437
92025SOL     OW77971   3.915  10.357   7.732
92025SOL    HW177972   3.975  10.295   7.773
92025SOL    HW277973   3.856  10.303   7.679
92026SOL     OW77974   9.108  11.995  11.957
92026SOL    HW177975   9.187  11.992  12.011
92026SOL    HW277976   9.065  12.077  11.981
92027SOL     OW77977  12.124   2.597   3.529
92027SOL    HW177978  12.173   2.630   3.605
92027SOL    HW277979  12.115   2.503   3.546
92028SOL     OW77980   5.247   1.534   6.827
92028SOL    HW177981   5.298   1.471   6.879
92028SOL    HW277982   5.185   1.480   6.778
92029SOL     OW77983   2.613   3.802   7.202
92029SOL    HW177984   2.578   3.873   7.256
92029SOL    HW277985   2.577   3.817   7.115
92030SOL     OW77986   8.442   1.102   1.378
92030SOL    HW177987   8.503   1.039   1.417
92030SOL    HW277988   8.456   1.182   1.429
92031SOL     OW77989  13.326   4.015   6.444
92031SOL    HW177990  13.296   4.106   6.446
92031SOL    HW277991  13.353   4.001   6.353
92032SOL     OW77992   3.101   2.428   9.782
92032SOL    HW177993   3.037   2.376   9.830
92032SOL    HW277994   3.061   2.515   9.774
92033SOL     OW77995  13.661  10.179   9.691
92033SOL    HW177996  13.749  10.217   9.688
92033SOL    HW277997  13.609  10.245   9.737
92034SOL     OW77998   2.139  11.487   4.026
92034SOL    HW177999   2.206  11.421   4.006
92034SOL    HW278000   2.155  11.557   3.963
92035SOL     OW78001   4.833   4.857   2.191
92035SOL    HW178002   4.911   4.816   2.229
92035SOL    HW278003   4.770   4.785   2.186
92036SOL     OW78004   3.337   7.521   5.400
92036SOL    HW178005   3.282   7.586   5.444
92036SOL    HW278006   3.294   7.438   5.417
92037SOL     OW78007   3.862   3.554   8.389
92037SOL    HW178008   3.790   3.491   8.400
92037SOL    HW278009   3.925   3.530   8.456
92038SOL     OW78010   8.012   2.222   7.762
92038SOL    HW178011   7.942   2.265   7.713
92038SOL    HW278012   8.045   2.289   7.820
92039SOL     OW78013   0.683   6.754   1.530
92039SOL    HW178014   0.684   6.850   1.538
92039SOL    HW278015   0.649   6.723   1.613
92040SOL     OW78016   1.090   9.756   7.761
92040SOL    HW178017   0.997   9.738   7.774
92040SOL    HW278018   1.114   9.812   7.835
92041SOL     OW78019  12.475  10.895   0.148
92041SOL    HW178020  12.384  10.864   0.155
92041SOL    HW278021  12.475  10.979   0.194
92042SOL     OW78022   8.736   8.395  12.764
92042SOL    HW178023   8.704   8.345  12.839
92042SOL    HW278024   8.830   8.379  12.762
92043SOL     OW78025   3.178   0.364   7.887
92043SOL    HW178026   3.168   0.453   7.853
92043SOL    HW278027   3.270   0.358   7.912
92044SOL     OW78028   1.587  12.194  11.974
92044SOL    HW178029   1.581  12.110  11.927
92044SOL    HW278030   1.497  12.225  11.979
92045SOL     OW78031   6.148   1.100   1.656
92045SOL    HW178032   6.077   1.112   1.719
92045SOL    HW278033   6.185   1.014   1.678
92046SOL     OW78034   8.076   1.779  11.235
92046SOL    HW178035   8.064   1.686  11.215
92046SOL    HW278036   7.991   1.806  11.271
92047SOL     OW78037   6.859  11.718   4.613
92047SOL    HW178038   6.859  11.801   4.565
92047SOL    HW278039   6.810  11.658   4.556
92048SOL     OW78040   1.563   4.379   6.061
92048SOL    HW178041   1.603   4.294   6.080
92048SOL    HW278042   1.513   4.400   6.139
92049SOL     OW78043   0.200   4.081  12.941
92049SOL    HW178044   0.127   4.049  12.888
92049SOL    HW278045   0.234   4.156  12.893
92050SOL     OW78046   4.543   5.628   5.862
92050SOL    HW178047   4.512   5.566   5.927
92050SOL    HW278048   4.559   5.709   5.911
92051SOL     OW78049   1.076   7.657   3.260
92051SOL    HW178050   1.167   7.670   3.236
92051SOL    HW278051   1.040   7.602   3.190
92052SOL     OW78052   9.731  14.847   1.323
92052SOL    HW178053   9.722  14.751   1.328
92052SOL    HW278054   9.699   0.008   1.408
92053SOL     OW78055   1.985   5.725  11.670
92053SOL    HW178056   1.954   5.716  11.760
92053SOL    HW278057   2.068   5.677  11.668
92054SOL     OW78058   5.748   4.558  10.320
92054SOL    HW178059   5.828   4.556  10.267
92054SOL    HW278060   5.764   4.628  10.385
92055SOL     OW78061   7.752   9.333   5.586
92055SOL    HW178062   7.724   9.412   5.539
92055SOL    HW278063   7.683   9.319   5.651
92056SOL     OW78064  11.878  13.128  10.860
92056SOL    HW178065  11.865  13.067  10.932
92056SOL    HW278066  11.832  13.089  10.786
92057SOL     OW78067   0.905   3.815  11.365
92057SOL    HW178068   0.939   3.892  11.410
92057SOL    HW278069   0.964   3.744  11.391
92058SOL     OW78070   3.524  14.387   6.672
92058SOL    HW178071   3.462  14.460   6.670
92058SOL    HW278072   3.603  14.423   6.712
92059SOL     OW78073   6.213   5.013   7.965
92059SOL    HW178074   6.199   4.925   7.930
92059SOL    HW278075   6.259   4.999   8.048
92060SOL     OW78076   5.034  11.069  10.621
92060SOL    HW178077   5.102  11.041  10.560
92060SOL    HW278078   4.963  11.005  10.609
92061SOL     OW78079   2.692   2.110   6.249
92061SOL    HW178080   2.596   2.110   6.252
92061SOL    HW278081   2.718   2.042   6.311
92062SOL     OW78082   1.335   3.650  11.383
92062SOL    HW178083   1.413   3.685  11.426
92062SOL    HW278084   1.283   3.613  11.454
92063SOL     OW78085  14.745   0.673  13.972
92063SOL    HW178086  14.831   0.712  13.988
92063SOL    HW278087  14.683   0.744  13.989
92064SOL     OW78088  12.769   2.679   1.629
92064SOL    HW178089  12.848   2.624   1.626
92064SOL    HW278090  12.803   2.769   1.637
92065SOL     OW78091   4.520   7.859   0.661
92065SOL    HW178092   4.585   7.926   0.680
92065SOL    HW278093   4.442   7.909   0.634
92066SOL     OW78094  13.677   1.137   2.692
92066SOL    HW178095  13.652   1.050   2.724
92066SOL    HW278096  13.769   1.146   2.717
92067SOL     OW78097   2.664  14.789   8.894
92067SOL    HW178098   2.614  14.761   8.970
92067SOL    HW278099   2.623  14.744   8.820
92068SOL     OW78100   7.076  13.061  13.910
92068SOL    HW178101   7.126  13.143  13.903
92068SOL    HW278102   7.018  13.061  13.834
92069SOL     OW78103   1.417   1.646  11.993
92069SOL    HW178104   1.479   1.631  12.063
92069SOL    HW278105   1.424   1.740  11.973
92070SOL     OW78106  12.769  11.745  13.548
92070SOL    HW178107  12.748  11.654  13.565
92070SOL    HW278108  12.804  11.778  13.632
92071SOL     OW78109   8.945   0.790   6.009
92071SOL    HW178110   8.922   0.802   5.916
92071SOL    HW278111   9.034   0.823   6.016
92072SOL     OW78112   3.345   8.949   0.052
92072SOL    HW178113   3.390   9.027   0.021
92072SOL    HW278114   3.407   8.877   0.036
92073SOL     OW78115   6.255  12.414  10.709
92073SOL    HW178116   6.323  12.477  10.732
92073SOL    HW278117   6.232  12.372  10.792
92074SOL     OW78118   6.994   4.137   1.116
92074SOL    HW178119   7.026   4.214   1.069
92074SOL    HW278120   7.069   4.108   1.168
92075SOL     OW78121   1.757   5.196   8.674
92075SOL    HW178122   1.662   5.186   8.669
92075SOL    HW278123   1.783   5.226   8.587
92076SOL     OW78124   2.967   8.142   7.845
92076SOL    HW178125   2.981   8.220   7.792
92076SOL    HW278126   2.944   8.176   7.932
92077SOL     OW78127   5.400  12.070  13.770
92077SOL    HW178128   5.382  12.041  13.859
92077SOL    HW278129   5.323  12.044  13.720
92078SOL     OW78130   6.770  11.270   0.381
92078SOL    HW178131   6.681  11.302   0.392
92078SOL    HW278132   6.764  11.175   0.398
92079SOL     OW78133  11.592   9.063   2.439
92079SOL    HW178134  11.510   9.024   2.408
92079SOL    HW278135  11.587   9.056   2.535
92080SOL     OW78136   7.282  11.747   0.758
92080SOL    HW178137   7.256  11.808   0.827
92080SOL    HW278138   7.201  11.699   0.737
92081SOL     OW78139   3.849   0.043  11.728
92081SOL    HW178140   3.908  14.838  11.736
92081SOL    HW278141   3.823   0.044  11.636
92082SOL     OW78142  14.539   9.754  12.245
92082SOL    HW178143  14.582   9.740  12.161
92082SOL    HW278144  14.512   9.846  12.242
92083SOL     OW78145   1.843   4.328   3.654
92083SOL    HW178146   1.766   4.340   3.710
92083SOL    HW278147   1.875   4.241   3.677
92084SOL     OW78148   5.291   6.303  12.690
92084SOL    HW178149   5.360   6.243  12.718
92084SOL    HW278150   5.211   6.250  12.691
92085SOL     OW78151  12.135   1.871   0.961
92085SOL    HW178152  12.100   1.933   1.026
92085SOL    HW278153  12.184   1.807   1.013
92086SOL     OW78154   0.765   3.466   7.624
92086SOL    HW178155   0.833   3.399   7.630
92086SOL    HW278156   0.685   3.418   7.601
92087SOL     OW78157   9.325   0.171   7.646
92087SOL    HW178158   9.320   0.265   7.632
92087SOL    HW278159   9.414   0.148   7.619
92088SOL     OW78160   1.321  14.544  12.325
92088SOL    HW178161   1.332  14.460  12.280
92088SOL    HW278162   1.385  14.542  12.396
92089SOL     OW78163   4.918   1.177   9.248
92089SOL    HW178164   4.975   1.241   9.206
92089SOL    HW278165   4.877   1.225   9.320
92090SOL     OW78166   7.097   2.793   0.866
92090SOL    HW178167   7.165   2.841   0.819
92090SOL    HW278168   7.017   2.843   0.852
92091SOL     OW78169   5.967   8.802   1.370
92091SOL    HW178170   6.034   8.749   1.411
92091SOL    HW278171   5.937   8.750   1.295
92092SOL     OW78172   9.543   4.743   8.500
92092SOL    HW178173   9.457   4.707   8.520
92092SOL    HW278174   9.563   4.801   8.573
92093SOL     OW78175   3.071  13.382   1.697
92093SOL    HW178176   3.003  13.360   1.633
92093SOL    HW278177   3.121  13.453   1.655
92094SOL     OW78178   4.913   2.826   1.906
92094SOL    HW178179   4.870   2.911   1.912
92094SOL    HW278180   4.880   2.787   1.825
92095SOL     OW78181  10.202  13.668   0.094
92095SOL    HW178182  10.281  13.720   0.082
92095SOL    HW278183  10.157  13.674   0.010
92096SOL     OW78184   5.160  12.986  13.905
92096SOL    HW178185   5.139  12.976  13.813
92096SOL    HW278186   5.078  13.013  13.946
92097SOL     OW78187  10.121   6.189   2.724
92097SOL    HW178188  10.199   6.144   2.691
92097SOL    HW278189  10.124   6.176   2.819
92098SOL     OW78190   3.632   4.118   3.751
92098SOL    HW178191   3.610   4.120   3.658
92098SOL    HW278192   3.650   4.026   3.769
92099SOL     OW78193   3.885   0.056   0.705
92099SOL    HW178194   3.874   0.137   0.755
92099SOL    HW278195   3.976   0.030   0.721
92100SOL     OW78196   7.889  14.787  10.131
92100SOL    HW178197   7.949  14.860  10.141
92100SOL    HW278198   7.807  14.826  10.100
92101SOL     OW78199  13.962   5.628   2.521
92101SOL    HW178200  13.880   5.677   2.511
92101SOL    HW278201  13.971   5.616   2.615
92102SOL     OW78202   9.601  12.825   4.249
92102SOL    HW178203   9.538  12.890   4.279
92102SOL    HW278204   9.552  12.743   4.244
92103SOL     OW78205   1.344   1.134  14.150
92103SOL    HW178206   1.260   1.176  14.170
92103SOL    HW278207   1.408   1.203  14.166
92104SOL     OW78208   0.626   1.986   0.091
92104SOL    HW178209   0.699   1.929   0.118
92104SOL    HW278210   0.625   1.981  14.866
92105SOL     OW78211   3.191   2.721   5.460
92105SOL    HW178212   3.275   2.757   5.487
92105SOL    HW278213   3.176   2.647   5.520
92106SOL     OW78214  10.258   3.573   2.402
92106SOL    HW178215  10.348   3.576   2.369
92106SOL    HW278216  10.267   3.558   2.496
92107SOL     OW78217  13.530   4.347   1.534
92107SOL    HW178218  13.522   4.408   1.461
92107SOL    HW278219  13.467   4.278   1.515
92108SOL     OW78220  10.975   9.708   3.083
92108SOL    HW178221  11.041   9.680   3.019
92108SOL    HW278222  10.895   9.719   3.031
92109SOL     OW78223   3.521  10.072   1.984
92109SOL    HW178224   3.449  10.015   2.013
92109SOL    HW278225   3.520  10.145   2.044
92110SOL     OW78226   1.332  13.857   9.594
92110SOL    HW178227   1.357  13.786   9.654
92110SOL    HW278228   1.320  13.933   9.651
92111SOL     OW78229   4.690   4.571  14.156
92111SOL    HW178230   4.693   4.590  14.062
92111SOL    HW278231   4.757   4.504  14.169
92112SOL     OW78232   2.445  13.426   9.938
92112SOL    HW178233   2.471  13.502   9.989
92112SOL    HW278234   2.405  13.367  10.001
92113SOL     OW78235   4.407   6.898  14.186
92113SOL    HW178236   4.381   6.886  14.095
92113SOL    HW278237   4.331   6.872  14.237
92114SOL     OW78238   7.274   0.401  11.179
92114SOL    HW178239   7.298   0.454  11.103
92114SOL    HW278240   7.356   0.362  11.207
92115SOL     OW78241   9.755   7.560   7.747
92115SOL    HW178242   9.794   7.474   7.765
92115SOL    HW278243   9.695   7.544   7.674
92116SOL     OW78244   9.249   3.677  11.215
92116SOL    HW178245   9.314   3.739  11.182
92116SOL    HW278246   9.300   3.611  11.263
92117SOL     OW78247   3.495   4.386  12.779
92117SOL    HW178248   3.437   4.311  12.763
92117SOL    HW278249   3.446   4.461  12.746
92118SOL     OW78250   6.878  11.834   8.572
92118SOL    HW178251   6.870  11.815   8.665
92118SOL    HW278252   6.874  11.748   8.530
92119SOL     OW78253  10.591   9.116   3.524
92119SOL    HW178254  10.564   9.099   3.434
92119SOL    HW278255  10.673   9.165   3.516
92120SOL     OW78256   1.552   3.350   2.484
92120SOL    HW178257   1.514   3.280   2.431
92120SOL    HW278258   1.477   3.394   2.524
92121SOL     OW78259   5.606   0.962   3.025
92121SOL    HW178260   5.673   0.979   2.959
92121SOL    HW278261   5.605   0.867   3.034
92122SOL     OW78262  10.158  13.970  13.053
92122SOL    HW178263  10.191  13.887  13.021
92122SOL    HW278264  10.231  14.031  13.040
92123SOL     OW78265  13.225  13.011   1.866
92123SOL    HW178266  13.311  12.995   1.827
92123SOL    HW278267  13.179  13.065   1.802
92124SOL     OW78268   3.395   1.093   8.965
92124SOL    HW178269   3.316   1.088   8.911
92124SOL    HW278270   3.427   1.182   8.953
92125SOL     OW78271   2.286   7.640   9.969
92125SOL    HW178272   2.309   7.548   9.961
92125SOL    HW278273   2.213   7.641  10.031
92126SOL     OW78274   4.198   8.370   1.990
92126SOL    HW178275   4.232   8.290   1.949
92126SOL    HW278276   4.104   8.366   1.977
92127SOL     OW78277   6.536  12.066  12.166
92127SOL    HW178278   6.609  12.042  12.224
92127SOL    HW278279   6.471  11.997  12.180
92128SOL     OW78280  14.322   7.235  10.438
92128SOL    HW178281  14.399   7.178  10.434
92128SOL    HW278282  14.298   7.249  10.347
92129SOL     OW78283   1.280   0.831   5.171
92129SOL    HW178284   1.295   0.755   5.114
92129SOL    HW278285   1.368   0.861   5.194
92130SOL     OW78286   7.397  11.029   8.110
92130SOL    HW178287   7.446  11.110   8.095
92130SOL    HW278288   7.325  11.034   8.047
92131SOL     OW78289   0.606   8.984   9.914
92131SOL    HW178290   0.565   8.948   9.836
92131SOL    HW278291   0.693   8.944   9.917
92132SOL     OW78292   0.752  14.224   3.967
92132SOL    HW178293   0.695  14.157   3.931
92132SOL    HW278294   0.832  14.177   3.990
92133SOL     OW78295   2.551   9.102   5.184
92133SOL    HW178296   2.624   9.085   5.125
92133SOL    HW278297   2.476   9.058   5.143
92134SOL     OW78298  14.373   7.333   7.334
92134SOL    HW178299  14.381   7.427   7.318
92134SOL    HW278300  14.279   7.316   7.330
92135SOL     OW78301   8.786  12.322   2.730
92135SOL    HW178302   8.796  12.240   2.682
92135SOL    HW278303   8.821  12.303   2.818
92136SOL     OW78304   7.549  12.155  13.196
92136SOL    HW178305   7.575  12.231  13.249
92136SOL    HW278306   7.632  12.113  13.172
92137SOL     OW78307  12.972   4.331  12.306
92137SOL    HW178308  13.050   4.374  12.268
92137SOL    HW278309  12.903   4.397  12.299
92138SOL     OW78310   1.420   7.911   5.688
92138SOL    HW178311   1.337   7.956   5.703
92138SOL    HW278312   1.406   7.861   5.607
92139SOL     OW78313  14.350   7.753   6.473
92139SOL    HW178314  14.307   7.734   6.557
92139SOL    HW278315  14.368   7.667   6.435
92140SOL     OW78316   1.487   7.433   6.339
92140SOL    HW178317   1.475   7.338   6.352
92140SOL    HW278318   1.522   7.440   6.250
92141SOL     OW78319   2.976   3.120  10.373
92141SOL    HW178320   2.936   3.195  10.328
92141SOL    HW278321   3.009   3.065  10.303
92142SOL     OW78322   0.045   9.484   6.426
92142SOL    HW178323  14.856   9.448   6.359
92142SOL    HW278324   0.047   9.416   6.494
92143SOL     OW78325   9.752  13.454   9.351
92143SOL    HW178326   9.721  13.524   9.408
92143SOL    HW278327   9.824  13.414   9.400
92144SOL     OW78328   8.172   1.515   9.789
92144SOL    HW178329   8.090   1.468   9.802
92144SOL    HW278330   8.180   1.523   9.694
92145SOL     OW78331   1.548   0.804   0.746
92145SOL    HW178332   1.456   0.802   0.773
92145SOL    HW278333   1.563   0.718   0.705
92146SOL     OW78334   1.782   4.067  12.623
92146SOL    HW178335   1.748   4.001  12.683
92146SOL    HW278336   1.727   4.059  12.545
92147SOL     OW78337  10.060  14.168   2.024
92147SOL    HW178338  10.063  14.205   1.935
92147SOL    HW278339  10.151  14.169   2.053
92148SOL     OW78340   2.426   2.082   6.144
92148SOL    HW178341   2.350   2.077   6.202
92148SOL    HW278342   2.389   2.085   6.056
92149SOL     OW78343   1.185  10.417   3.329
92149SOL    HW178344   1.197  10.341   3.272
92149SOL    HW278345   1.241  10.400   3.404
92150SOL     OW78346   5.595   6.775  13.336
92150SOL    HW178347   5.552   6.694  13.307
92150SOL    HW278348   5.577   6.838  13.266
92151SOL     OW78349   5.082  10.979   5.571
92151SOL    HW178350   5.152  11.031   5.612
92151SOL    HW278351   5.046  11.037   5.504
92152SOL     OW78352  12.865   0.879   7.046
92152SOL    HW178353  12.865   0.968   7.080
92152SOL    HW278354  12.828   0.826   7.116
92153SOL     OW78355   7.667  11.814   9.179
92153SOL    HW178356   7.708  11.735   9.215
92153SOL    HW278357   7.577  11.788   9.162
92154SOL     OW78358   6.962   8.650   5.440
92154SOL    HW178359   6.972   8.708   5.515
92154SOL    HW278360   6.868   8.651   5.421
92155SOL     OW78361  10.977   6.138   3.963
92155SOL    HW178362  10.943   6.133   3.873
92155SOL    HW278363  10.954   6.054   4.002
92156SOL     OW78364   5.175   6.911  13.952
92156SOL    HW178365   5.235   6.836  13.960
92156SOL    HW278366   5.099   6.876  13.906
92157SOL     OW78367   7.068   2.040   3.104
92157SOL    HW178368   6.978   2.046   3.134
92157SOL    HW278369   7.104   1.964   3.150
92158SOL     OW78370   6.739   9.258   0.217
92158SOL    HW178371   6.796   9.261   0.294
92158SOL    HW278372   6.682   9.334   0.227
92159SOL     OW78373   3.446   6.363   1.097
92159SOL    HW178374   3.530   6.351   1.142
92159SOL    HW278375   3.421   6.274   1.070
92160SOL     OW78376  11.720  13.698   1.178
92160SOL    HW178377  11.674  13.614   1.182
92160SOL    HW278378  11.773  13.699   1.258
92161SOL     OW78379   8.501   3.744   5.583
92161SOL    HW178380   8.572   3.790   5.628
92161SOL    HW278381   8.464   3.809   5.524
92162SOL     OW78382  13.908   0.365  14.685
92162SOL    HW178383  13.949   0.369  14.771
92162SOL    HW278384  13.835   0.303  14.696
92163SOL     OW78385  13.416   0.071  12.547
92163SOL    HW178386  13.372  14.857  12.553
92163SOL    HW278387  13.370   0.118  12.478
92164SOL     OW78388   9.314   1.913   0.814
92164SOL    HW178389   9.224   1.940   0.830
92164SOL    HW278390   9.326   1.834   0.867
92165SOL     OW78391  11.380   8.315   5.747
92165SOL    HW178392  11.418   8.231   5.724
92165SOL    HW278393  11.441   8.380   5.711
92166SOL     OW78394  12.630   9.557   6.361
92166SOL    HW178395  12.676   9.475   6.345
92166SOL    HW278396  12.601   9.585   6.274
92167SOL     OW78397  12.703   4.813   4.574
92167SOL    HW178398  12.727   4.881   4.638
92167SOL    HW278399  12.678   4.863   4.496
92168SOL     OW78400   0.347   0.130   2.519
92168SOL    HW178401   0.258   0.114   2.550
92168SOL    HW278402   0.391   0.172   2.593
92169SOL     OW78403   6.787  14.833   0.404
92169SOL    HW178404   6.728  14.834   0.329
92169SOL    HW278405   6.823   0.052   0.408
92170SOL     OW78406  14.710  10.073   0.391
92170SOL    HW178407  14.704  10.169   0.385
92170SOL    HW278408  14.786  10.058   0.449
92171SOL     OW78409   9.334   6.223  10.409
92171SOL    HW178410   9.397   6.171  10.360
92171SOL    HW278411   9.387   6.294  10.447
92172SOL     OW78412   8.323   9.930   3.671
92172SOL    HW178413   8.322   9.989   3.746
92172SOL    HW278414   8.416   9.908   3.659
92173SOL     OW78415  12.300   3.582   6.665
92173SOL    HW178416  12.356   3.651   6.630
92173SOL    HW278417  12.359   3.527   6.716
92174SOL     OW78418   3.452  11.047  14.002
92174SOL    HW178419   3.459  11.120  13.939
92174SOL    HW278420   3.395  10.984  13.959
92175SOL     OW78421   2.370  13.216  12.214
92175SOL    HW178422   2.463  13.196  12.219
92175SOL    HW278423   2.353  13.272  12.289
92176SOL     OW78424   0.716  11.507   5.722
92176SOL    HW178425   0.794  11.525   5.774
92176SOL    HW278426   0.728  11.557   5.642
92177SOL     OW78427  10.126   9.608  13.772
92177SOL    HW178428  10.085   9.690  13.798
92177SOL    HW278429  10.099   9.594  13.682
92178SOL     OW78430   5.359   3.340   6.006
92178SOL    HW178431   5.416   3.295   6.069
92178SOL    HW278432   5.275   3.349   6.052
92179SOL     OW78433  10.017   0.438   5.913
92179SOL    HW178434  10.043   0.402   5.998
92179SOL    HW278435  10.096   0.431   5.859
92180SOL     OW78436   3.373   8.605  14.731
92180SOL    HW178437   3.426   8.610  14.652
92180SOL    HW278438   3.426   8.647  14.799
92181SOL     OW78439   6.194   7.297   1.682
92181SOL    HW178440   6.226   7.263   1.599
92181SOL    HW278441   6.254   7.368   1.704
92182SOL     OW78442   0.861  13.277   6.657
92182SOL    HW178443   0.782  13.226   6.673
92182SOL    HW278444   0.866  13.338   6.731
92183SOL     OW78445  10.080   5.204   1.331
92183SOL    HW178446  10.162   5.230   1.289
92183SOL    HW278447  10.033   5.155   1.264
92184SOL     OW78448  10.266   4.808  11.871
92184SOL    HW178449  10.250   4.753  11.795
92184SOL    HW278450  10.237   4.755  11.945
92185SOL     OW78451   8.416   6.254   8.478
92185SOL    HW178452   8.341   6.271   8.535
92185SOL    HW278453   8.387   6.183   8.420
92186SOL     OW78454   2.277   9.735   4.487
92186SOL    HW178455   2.218   9.751   4.413
92186SOL    HW278456   2.299   9.642   4.481
92187SOL     OW78457  13.878   8.408   5.755
92187SOL    HW178458  13.812   8.437   5.692
92187SOL    HW278459  13.947   8.370   5.702
92188SOL     OW78460   4.374  10.565   9.451
92188SOL    HW178461   4.437  10.571   9.379
92188SOL    HW278462   4.326  10.483   9.434
92189SOL     OW78463  12.879  13.984  14.287
92189SOL    HW178464  12.802  14.041  14.284
92189SOL    HW278465  12.886  13.957  14.378
92190SOL     OW78466   8.113  11.556   9.978
92190SOL    HW178467   8.062  11.606   9.914
92190SOL    HW278468   8.131  11.619  10.048
92191SOL     OW78469   0.252   2.353   3.028
92191SOL    HW178470   0.235   2.411   2.953
92191SOL    HW278471   0.344   2.368   3.049
92192SOL     OW78472  13.019   6.296  10.487
92192SOL    HW178473  13.022   6.281  10.581
92192SOL    HW278474  13.030   6.209  10.448
92193SOL     OW78475   1.222   6.802  11.682
92193SOL    HW178476   1.242   6.725  11.628
92193SOL    HW278477   1.127   6.811  11.677
92194SOL     OW78478   9.496   7.075  11.004
92194SOL    HW178479   9.554   7.013  11.048
92194SOL    HW278480   9.554   7.140  10.966
92195SOL     OW78481   2.288  11.354  11.022
92195SOL    HW178482   2.348  11.389  11.089
92195SOL    HW278483   2.301  11.412  10.947
92196SOL     OW78484  10.952  11.208   6.369
92196SOL    HW178485  10.946  11.217   6.464
92196SOL    HW278486  10.920  11.292   6.336
92197SOL     OW78487  10.266  10.974   2.997
92197SOL    HW178488  10.262  10.974   3.093
92197SOL    HW278489  10.341  10.917   2.977
92198SOL     OW78490   3.188   9.841  14.146
92198SOL    HW178491   3.124   9.773  14.127
92198SOL    HW278492   3.271   9.806  14.112
92199SOL     OW78493   1.362   9.276  10.118
92199SOL    HW178494   1.446   9.321  10.115
92199SOL    HW278495   1.324   9.300  10.203
92200SOL     OW78496   1.329   4.390   6.265
92200SOL    HW178497   1.334   4.373   6.359
92200SOL    HW278498   1.253   4.341   6.236
92201SOL     OW78499  11.944   9.249   6.913
92201SOL    HW178500  11.877   9.278   6.974
92201SOL    HW278501  11.995   9.184   6.962
92202SOL     OW78502  11.311  11.567   9.785
92202SOL    HW178503  11.311  11.499   9.852
92202SOL    HW278504  11.291  11.521   9.703
92203SOL     OW78505   6.129   3.164  14.450
92203SOL    HW178506   6.113   3.134  14.361
92203SOL    HW278507   6.136   3.084  14.502
92204SOL     OW78508  13.984   3.576  14.595
92204SOL    HW178509  13.926   3.642  14.633
92204SOL    HW278510  13.925   3.507  14.565
92205SOL     OW78511   1.882  14.077   3.074
92205SOL    HW178512   1.967  14.110   3.046
92205SOL    HW278513   1.883  14.083   3.169
92206SOL     OW78514   6.985   9.754  11.999
92206SOL    HW178515   7.003   9.696  11.925
92206SOL    HW278516   7.071   9.776  12.034
92207SOL     OW78517   2.549   8.109  13.385
92207SOL    HW178518   2.609   8.164  13.335
92207SOL    HW278519   2.575   8.019  13.363
92208SOL     OW78520   7.673   8.573   0.044
92208SOL    HW178521   7.750   8.593   0.098
92208SOL    HW278522   7.615   8.525   0.102
92209SOL     OW78523  10.216  14.579   7.037
92209SOL    HW178524  10.205  14.656   7.092
92209SOL    HW278525  10.258  14.515   7.094
92210SOL     OW78526   5.430   7.780   1.123
92210SOL    HW178527   5.443   7.842   1.195
92210SOL    HW278528   5.358   7.724   1.152
92211SOL     OW78529   0.998  11.116   2.598
92211SOL    HW178530   1.022  11.208   2.603
92211SOL    HW278531   0.975  11.102   2.506
92212SOL     OW78532   3.716   7.679   2.263
92212SOL    HW178533   3.725   7.679   2.359
92212SOL    HW278534   3.726   7.771   2.238
92213SOL     OW78535   4.187   5.593   8.794
92213SOL    HW178536   4.135   5.629   8.723
92213SOL    HW278537   4.268   5.645   8.793
92214SOL     OW78538   5.250  13.506   2.144
92214SOL    HW178539   5.189  13.459   2.200
92214SOL    HW278540   5.256  13.453   2.065
92215SOL     OW78541   3.633  11.413   0.645
92215SOL    HW178542   3.699  11.378   0.585
92215SOL    HW278543   3.620  11.504   0.616
92216SOL     OW78544   6.888   3.147   0.622
92216SOL    HW178545   6.843   3.231   0.631
92216SOL    HW278546   6.883   3.127   0.528
92217SOL     OW78547   1.992  11.678   9.125
92217SOL    HW178548   2.083  11.652   9.109
92217SOL    HW278549   1.970  11.734   9.051
92218SOL     OW78550   2.224   4.016  13.479
92218SOL    HW178551   2.251   3.925  13.491
92218SOL    HW278552   2.157   4.030  13.546
92219SOL     OW78553  13.470   6.607  10.270
92219SOL    HW178554  13.402   6.661  10.311
92219SOL    HW278555  13.531   6.587  10.342
92220SOL     OW78556  11.579   8.607   4.967
92220SOL    HW178557  11.525   8.557   5.029
92220SOL    HW278558  11.593   8.546   4.894
92221SOL     OW78559   7.826  10.263  10.711
92221SOL    HW178560   7.800  10.331  10.774
92221SOL    HW278561   7.814  10.181  10.759
92222SOL     OW78562   4.084   1.822  11.826
92222SOL    HW178563   4.087   1.753  11.892
92222SOL    HW278564   3.992   1.828  11.801
92223SOL     OW78565   7.318  14.821   7.902
92223SOL    HW178566   7.360  14.776   7.828
92223SOL    HW278567   7.385   0.011   7.934
92224SOL     OW78568   2.130  12.180   2.610
92224SOL    HW178569   2.096  12.144   2.528
92224SOL    HW278570   2.216  12.215   2.587
92225SOL     OW78571  14.563   9.031   3.218
92225SOL    HW178572  14.494   9.043   3.283
92225SOL    HW278573  14.545   9.096   3.150
92226SOL     OW78574   0.398   6.721   2.816
92226SOL    HW178575   0.406   6.777   2.893
92226SOL    HW278576   0.489   6.701   2.792
92227SOL     OW78577  12.450   2.075   7.816
92227SOL    HW178578  12.407   2.160   7.812
92227SOL    HW278579  12.475   2.065   7.908
92228SOL     OW78580   1.632   9.070   6.149
92228SOL    HW178581   1.544   9.103   6.130
92228SOL    HW278582   1.679   9.145   6.185
92229SOL     OW78583  13.825   9.058   5.057
92229SOL    HW178584  13.782   9.135   5.095
92229SOL    HW278585  13.758   8.990   5.058
92230SOL     OW78586  11.015   2.170  13.469
92230SOL    HW178587  10.952   2.102  13.491
92230SOL    HW278588  10.980   2.211  13.390
92231SOL     OW78589   3.941  13.412  10.052
92231SOL    HW178590   3.976  13.491  10.010
92231SOL    HW278591   3.872  13.382   9.992
92232SOL     OW78592  11.465   8.041   7.278
92232SOL    HW178593  11.556   8.065   7.259
92232SOL    HW278594  11.465   8.017   7.371
92233SOL     OW78595   0.488   0.867   1.370
92233SOL    HW178596   0.541   0.837   1.444
92233SOL    HW278597   0.551   0.886   1.301
92234SOL     OW78598   1.964  11.984   0.844
92234SOL    HW178599   2.028  11.913   0.847
92234SOL    HW278600   1.881  11.941   0.821
92235SOL     OW78601  11.389   6.746  13.581
92235SOL    HW178602  11.353   6.751  13.493
92235SOL    HW278603  11.356   6.663  13.616
92236SOL     OW78604   9.614  10.886   7.211
92236SOL    HW178605   9.708  10.870   7.216
92236SOL    HW278606   9.606  10.965   7.157
92237SOL     OW78607   8.847   9.418   4.289
92237SOL    HW178608   8.931   9.390   4.255
92237SOL    HW278609   8.855   9.513   4.298
92238SOL     OW78610   3.001  12.745   5.565
92238SOL    HW178611   3.078  12.695   5.537
92238SOL    HW278612   2.929  12.710   5.513
92239SOL     OW78613   1.814  14.580  12.549
92239SOL    HW178614   1.877  14.509  12.531
92239SOL    HW278615   1.811  14.630  12.467
92240SOL     OW78616   2.436   7.909   7.461
92240SOL    HW178617   2.450   7.972   7.532
92240SOL    HW278618   2.354   7.865   7.484
92241SOL     OW78619   7.189   9.095  11.284
92241SOL    HW178620   7.279   9.077  11.314
92241SOL    HW278621   7.166   9.176  11.329
92242SOL     OW78622  12.855  10.302   6.943
92242SOL    HW178623  12.824  10.368   7.005
92242SOL    HW278624  12.776  10.253   6.920
92243SOL     OW78625   4.180  13.164   1.168
92243SOL    HW178626   4.163  13.120   1.252
92243SOL    HW278627   4.104  13.142   1.114
92244SOL     OW78628   1.841   8.683   1.151
92244SOL    HW178629   1.909   8.727   1.201
92244SOL    HW278630   1.889   8.620   1.096
92245SOL     OW78631   3.659  14.471   4.649
92245SOL    HW178632   3.753  14.475   4.628
92245SOL    HW278633   3.650  14.394   4.706
92246SOL     OW78634   6.075   6.437   3.220
92246SOL    HW178635   6.134   6.451   3.146
92246SOL    HW278636   6.132   6.413   3.292
92247SOL     OW78637   9.518  13.244   6.017
92247SOL    HW178638   9.520  13.179   6.087
92247SOL    HW278639   9.425  13.261   6.002
92248SOL     OW78640   2.085   3.770   5.401
92248SOL    HW178641   2.082   3.865   5.385
92248SOL    HW278642   1.996   3.747   5.425
92249SOL     OW78643   4.740  12.408   2.761
92249SOL    HW178644   4.668  12.376   2.816
92249SOL    HW278645   4.814  12.417   2.822
92250SOL     OW78646  12.492   6.764   0.720
92250SOL    HW178647  12.398   6.754   0.705
92250SOL    HW278648  12.527   6.792   0.635
92251SOL     OW78649   7.935  10.505   1.382
92251SOL    HW178650   7.919  10.590   1.424
92251SOL    HW278651   7.979  10.526   1.300
92252SOL     OW78652  11.663   5.094  13.160
92252SOL    HW178653  11.588   5.134  13.204
92252SOL    HW278654  11.707   5.167  13.117
92253SOL     OW78655   8.004   4.627  13.110
92253SOL    HW178656   7.970   4.539  13.097
92253SOL    HW278657   8.068   4.639  13.040
92254SOL     OW78658  10.630  10.509  13.237
92254SOL    HW178659  10.637  10.542  13.148
92254SOL    HW278660  10.653  10.417  13.231
92255SOL     OW78661   1.398   9.800   7.443
92255SOL    HW178662   1.475   9.857   7.454
92255SOL    HW278663   1.374   9.810   7.351
92256SOL     OW78664   5.975   9.664   0.893
92256SOL    HW178665   6.023   9.684   0.974
92256SOL    HW278666   6.007   9.578   0.867
92257SOL     OW78667  11.986   1.392  12.837
92257SOL    HW178668  11.944   1.362  12.917
92257SOL    HW278669  12.038   1.468  12.865
92258SOL     OW78670  13.077   7.164   5.683
92258SOL    HW178671  13.127   7.195   5.759
92258SOL    HW278672  12.991   7.143   5.719
92259SOL     OW78673   4.167   4.326   0.189
92259SOL    HW178674   4.246   4.346   0.139
92259SOL    HW278675   4.197   4.320   0.280
92260SOL     OW78676   9.100   7.914   5.192
92260SOL    HW178677   9.189   7.878   5.194
92260SOL    HW278678   9.046   7.840   5.164
92261SOL     OW78679  11.772   1.280   7.107
92261SOL    HW178680  11.683   1.274   7.070
92261SOL    HW278681  11.816   1.201   7.077
92262SOL     OW78682   0.459  13.238   2.556
92262SOL    HW178683   0.537  13.236   2.501
92262SOL    HW278684   0.491  13.214   2.643
92263SOL     OW78685  14.335   4.062   6.255
92263SOL    HW178686  14.259   4.070   6.313
92263SOL    HW278687  14.376   3.980   6.282
92264SOL     OW78688  14.210   7.813  13.744
92264SOL    HW178689  14.233   7.787  13.655
92264SOL    HW278690  14.165   7.737  13.781
92265SOL     OW78691   2.708   1.193   1.411
92265SOL    HW178692   2.732   1.134   1.482
92265SOL    HW278693   2.620   1.166   1.386
92266SOL     OW78694   7.829   3.136  11.803
92266SOL    HW178695   7.908   3.129  11.857
92266SOL    HW278696   7.815   3.231  11.794
92267SOL     OW78697   7.112   5.655  11.271
92267SOL    HW178698   7.131   5.619  11.358
92267SOL    HW278699   7.186   5.628  11.217
92268SOL     OW78700  14.421   1.203  14.678
92268SOL    HW178701  14.457   1.124  14.638
92268SOL    HW278702  14.332   1.179  14.704
92269SOL     OW78703   4.196   2.206   6.614
92269SOL    HW178704   4.153   2.272   6.560
92269SOL    HW278705   4.227   2.253   6.691
92270SOL     OW78706  13.869   4.048  13.269
92270SOL    HW178707  13.876   4.069  13.175
92270SOL    HW278708  13.828   3.962  13.271
92271SOL     OW78709   5.123   4.805   5.020
92271SOL    HW178710   5.166   4.847   4.947
92271SOL    HW278711   5.048   4.759   4.981
92272SOL     OW78712   9.451   9.193   3.304
92272SOL    HW178713   9.377   9.220   3.249
92272SOL    HW278714   9.457   9.099   3.291
92273SOL     OW78715   2.218  14.777  11.321
92273SOL    HW178716   2.207  14.806  11.412
92273SOL    HW278717   2.282  14.706  11.326
92274SOL     OW78718   3.869  13.044   8.480
92274SOL    HW178719   3.924  13.114   8.515
92274SOL    HW278720   3.930  12.980   8.443
92275SOL     OW78721  13.235  13.975   3.881
92275SOL    HW178722  13.319  13.985   3.837
92275SOL    HW278723  13.178  14.040   3.839
92276SOL     OW78724   6.166   5.186   1.264
92276SOL    HW178725   6.098   5.233   1.310
92276SOL    HW278726   6.248   5.212   1.307
92277SOL     OW78727  10.692   6.334   3.021
92277SOL    HW178728  10.632   6.409   3.020
92277SOL    HW278729  10.776   6.370   2.990
92278SOL     OW78730  10.426   8.218   8.430
92278SOL    HW178731  10.461   8.196   8.343
92278SOL    HW278732  10.371   8.143   8.452
92279SOL     OW78733  13.837   9.794  11.971
92279SOL    HW178734  13.885   9.813  11.890
92279SOL    HW278735  13.830   9.699  11.974
92280SOL     OW78736  13.871   5.092  14.058
92280SOL    HW178737  13.910   5.106  14.145
92280SOL    HW278738  13.786   5.136  14.064
92281SOL     OW78739   3.748   4.016  12.701
92281SOL    HW178740   3.718   4.106  12.687
92281SOL    HW278741   3.795   4.019  12.785
92282SOL     OW78742  13.179   4.220   2.848
92282SOL    HW178743  13.144   4.216   2.937
92282SOL    HW278744  13.189   4.129   2.821
92283SOL     OW78745  10.802   5.721  10.990
92283SOL    HW178746  10.768   5.808  10.971
92283SOL    HW278747  10.784   5.671  10.911
92284SOL     OW78748   9.683   7.242   5.534
92284SOL    HW178749   9.673   7.308   5.466
92284SOL    HW278750   9.636   7.277   5.609
92285SOL     OW78751   5.425  10.026   7.479
92285SOL    HW178752   5.485   9.955   7.459
92285SOL    HW278753   5.474  10.083   7.538
92286SOL     OW78754  10.523   4.163  11.552
92286SOL    HW178755  10.436   4.147  11.589
92286SOL    HW278756  10.529   4.102  11.478
92287SOL     OW78757   4.703   1.907   0.497
92287SOL    HW178758   4.616   1.921   0.535
92287SOL    HW278759   4.750   1.855   0.563
92288SOL     OW78760  12.001  11.785  10.926
92288SOL    HW178761  12.095  11.786  10.943
92288SOL    HW278762  11.965  11.846  10.989
92289SOL     OW78763   3.840   6.119   0.334
92289SOL    HW178764   3.862   6.040   0.284
92289SOL    HW278765   3.909   6.182   0.312
92290SOL     OW78766   4.195   7.453   1.034
92290SOL    HW178767   4.253   7.469   0.960
92290SOL    HW278768   4.156   7.367   1.017
92291SOL     OW78769  12.771   3.016   0.726
92291SOL    HW178770  12.740   3.104   0.704
92291SOL    HW278771  12.818   3.027   0.808
92292SOL     OW78772   7.471  11.079  11.638
92292SOL    HW178773   7.547  11.022  11.632
92292SOL    HW278774   7.493  11.155  11.585
92293SOL     OW78775   9.984  11.973   7.054
92293SOL    HW178776   9.954  12.051   7.008
92293SOL    HW278777   9.929  11.968   7.132
92294SOL     OW78778  12.473   3.053  14.636
92294SOL    HW178779  12.382   3.027  14.622
92294SOL    HW278780  12.501   3.000  14.711
92295SOL     OW78781   1.836   1.257   6.471
92295SOL    HW178782   1.774   1.204   6.420
92295SOL    HW278783   1.921   1.239   6.431
92296SOL     OW78784   7.108   3.965   5.689
92296SOL    HW178785   7.171   4.037   5.679
92296SOL    HW278786   7.028   4.007   5.719
92297SOL     OW78787   7.122   7.268  11.130
92297SOL    HW178788   7.104   7.193  11.073
92297SOL    HW278789   7.111   7.344  11.074
92298SOL     OW78790   5.104   8.952   6.596
92298SOL    HW178791   5.126   8.892   6.667
92298SOL    HW278792   5.094   8.896   6.519
92299SOL     OW78793  10.516   8.752  12.079
92299SOL    HW178794  10.549   8.678  12.028
92299SOL    HW278795  10.437   8.779  12.032
92300SOL     OW78796   0.738   2.129  10.772
92300SOL    HW178797   0.751   2.117  10.866
92300SOL    HW278798   0.789   2.207  10.751
92301SOL     OW78799   4.272   2.261   9.788
92301SOL    HW178800   4.223   2.253   9.706
92301SOL    HW278801   4.216   2.314   9.845
92302SOL     OW78802   9.823   7.925   0.036
92302SOL    HW178803   9.825   7.952   0.128
92302SOL    HW278804   9.879   7.848   0.032
92303SOL     OW78805   4.239  10.745  13.271
92303SOL    HW178806   4.206  10.832  13.296
92303SOL    HW278807   4.312  10.763  13.212
92304SOL     OW78808   9.759  14.453   5.613
92304SOL    HW178809   9.731  14.466   5.704
92304SOL    HW278810   9.780  14.541   5.582
92305SOL     OW78811  14.450   7.818   3.936
92305SOL    HW178812  14.495   7.745   3.978
92305SOL    HW278813  14.485   7.896   3.979
92306SOL     OW78814  12.541   2.932  12.475
92306SOL    HW178815  12.493   2.851  12.457
92306SOL    HW278816  12.478   2.987  12.522
92307SOL     OW78817   8.876  10.286  10.831
92307SOL    HW178818   8.796  10.308  10.879
92307SOL    HW278819   8.935  10.359  10.848
92308SOL     OW78820   4.323  10.497   1.230
92308SOL    HW178821   4.301  10.405   1.243
92308SOL    HW278822   4.350  10.503   1.138
92309SOL     OW78823   3.378   8.038   2.096
92309SOL    HW178824   3.399   8.011   2.006
92309SOL    HW278825   3.289   8.004   2.110
92310SOL     OW78826   2.782   4.337   1.322
92310SOL    HW178827   2.699   4.374   1.291
92310SOL    HW278828   2.849   4.392   1.281
92311SOL     OW78829   7.763   0.743   9.030
92311SOL    HW178830   7.681   0.759   9.078
92311SOL    HW278831   7.832   0.753   9.096
92312SOL     OW78832   2.174  12.358  10.737
92312SOL    HW178833   2.124  12.439  10.725
92312SOL    HW278834   2.123  12.309  10.802
92313SOL     OW78835   0.520   0.311  12.126
92313SOL    HW178836   0.585   0.329  12.195
92313SOL    HW278837   0.510   0.215  12.128
92314SOL     OW78838   1.362   6.116  14.104
92314SOL    HW178839   1.428   6.086  14.166
92314SOL    HW278840   1.407   6.120  14.020
92315SOL     OW78841   4.254   9.534   7.023
92315SOL    HW178842   4.306   9.491   7.092
92315SOL    HW278843   4.306   9.523   6.944
92316SOL     OW78844   8.487  11.456   6.034
92316SOL    HW178845   8.568  11.425   6.075
92316SOL    HW278846   8.504  11.451   5.940
92317SOL     OW78847   6.535  10.317  13.836
92317SOL    HW178848   6.608  10.260  13.860
92317SOL    HW278849   6.563  10.358  13.754
92318SOL     OW78850   4.167   9.177  14.833
92318SOL    HW178851   4.098   9.214  14.778
92318SOL    HW278852   4.248   9.195  14.785
92319SOL     OW78853   4.510   5.573   3.193
92319SOL    HW178854   4.549   5.488   3.211
92319SOL    HW278855   4.466   5.598   3.274
92320SOL     OW78856  11.340   1.747   5.945
92320SOL    HW178857  11.350   1.717   6.036
92320SOL    HW278858  11.429   1.774   5.920
92321SOL     OW78859   5.421   9.347   5.989
92321SOL    HW178860   5.452   9.310   5.907
92321SOL    HW278861   5.497   9.345   6.047
92322SOL     OW78862   3.215   9.338  10.158
92322SOL    HW178863   3.200   9.392  10.080
92322SOL    HW278864   3.170   9.256  10.140
92323SOL     OW78865   8.142   9.483   5.329
92323SOL    HW178866   8.119   9.470   5.421
92323SOL    HW278867   8.074   9.437   5.281
92324SOL     OW78868   0.779   1.642  13.638
92324SOL    HW178869   0.820   1.684  13.714
92324SOL    HW278870   0.835   1.665  13.564
92325SOL     OW78871  10.841   0.652   7.190
92325SOL    HW178872  10.789   0.597   7.249
92325SOL    HW278873  10.929   0.616   7.195
92326SOL     OW78874  12.978   0.959   8.363
92326SOL    HW178875  13.011   0.880   8.320
92326SOL    HW278876  12.893   0.933   8.398
92327SOL     OW78877  14.318   8.468   6.254
92327SOL    HW178878  14.402   8.432   6.228
92327SOL    HW278879  14.299   8.427   6.338
92328SOL     OW78880   8.444   3.449   9.732
92328SOL    HW178881   8.379   3.388   9.698
92328SOL    HW278882   8.420   3.461   9.824
92329SOL     OW78883   4.826   1.078   2.453
92329SOL    HW178884   4.884   1.067   2.377
92329SOL    HW278885   4.762   1.143   2.425
92330SOL     OW78886   0.216   4.767  13.790
92330SOL    HW178887   0.196   4.684  13.746
92330SOL    HW278888   0.290   4.746  13.847
92331SOL     OW78889   4.149   7.724   3.217
92331SOL    HW178890   4.226   7.777   3.196
92331SOL    HW278891   4.145   7.726   3.313
92332SOL     OW78892   8.558   3.340   9.133
92332SOL    HW178893   8.601   3.281   9.195
92332SOL    HW278894   8.505   3.281   9.078
92333SOL     OW78895   0.505  13.465   7.041
92333SOL    HW178896   0.520  13.389   6.985
92333SOL    HW278897   0.592  13.502   7.055
92334SOL     OW78898  11.985   8.556   7.656
92334SOL    HW178899  12.046   8.497   7.611
92334SOL    HW278900  12.023   8.569   7.743
92335SOL     OW78901   7.768   0.357   1.768
92335SOL    HW178902   7.705   0.355   1.697
92335SOL    HW278903   7.764   0.447   1.801
92336SOL     OW78904  12.944  14.694   6.863
92336SOL    HW178905  12.985  14.697   6.777
92336SOL    HW278906  13.017  14.698   6.925
92337SOL     OW78907  13.069   6.948  12.578
92337SOL    HW178908  13.006   6.930  12.648
92337SOL    HW278909  13.098   7.038  12.594
92338SOL     OW78910   8.965   3.356   2.533
92338SOL    HW178911   8.885   3.340   2.482
92338SOL    HW278912   8.949   3.314   2.617
92339SOL     OW78913   8.336   4.862   7.111
92339SOL    HW178914   8.396   4.793   7.082
92339SOL    HW278915   8.382   4.904   7.184
92340SOL     OW78916   0.963  12.547   2.016
92340SOL    HW178917   0.995  12.636   2.000
92340SOL    HW278918   0.872  12.559   2.043
92341SOL     OW78919  12.974   3.388   9.424
92341SOL    HW178920  12.902   3.347   9.375
92341SOL    HW278921  13.026   3.432   9.358
92342SOL     OW78922   6.275   9.697   3.554
92342SOL    HW178923   6.331   9.773   3.564
92342SOL    HW278924   6.300   9.660   3.469
92343SOL     OW78925  12.979   4.020   7.434
92343SOL    HW178926  13.047   4.081   7.463
92343SOL    HW278927  12.988   4.019   7.338
92344SOL     OW78928   1.370   7.835  12.560
92344SOL    HW178929   1.370   7.905  12.626
92344SOL    HW278930   1.462   7.825  12.536
92345SOL     OW78931  13.018  11.414  12.711
92345SOL    HW178932  13.010  11.495  12.763
92345SOL    HW278933  13.013  11.444  12.620
92346SOL     OW78934  13.561   1.952  11.262
92346SOL    HW178935  13.527   1.900  11.188
92346SOL    HW278936  13.588   2.035  11.222
92347SOL     OW78937   8.513  14.755  14.632
92347SOL    HW178938   8.509  14.663  14.605
92347SOL    HW278939   8.510  14.805  14.551
92348SOL     OW78940  11.366   7.740   2.555
92348SOL    HW178941  11.389   7.714   2.644
92348SOL    HW278942  11.282   7.696   2.538
92349SOL     OW78943   7.776   7.906  14.585
92349SOL    HW178944   7.829   7.847  14.639
92349SOL    HW278945   7.838   7.971  14.552
92350SOL     OW78946   0.934  12.293   9.322
92350SOL    HW178947   1.019  12.324   9.353
92350SOL    HW278948   0.871  12.357   9.355
92351SOL     OW78949  11.605   6.786   7.140
92351SOL    HW178950  11.604   6.868   7.091
92351SOL    HW278951  11.512   6.769   7.159
92352SOL     OW78952   5.807   9.936  11.369
92352SOL    HW178953   5.779  10.024  11.346
92352SOL    HW278954   5.781   9.882  11.294
92353SOL     OW78955  12.805   0.353   4.255
92353SOL    HW178956  12.843   0.265   4.264
92353SOL    HW278957  12.739   0.344   4.186
92354SOL     OW78958   3.767   2.195  10.717
92354SOL    HW178959   3.792   2.121  10.772
92354SOL    HW278960   3.742   2.264  10.778
92355SOL     OW78961   4.172   2.727  13.233
92355SOL    HW178962   4.093   2.768  13.266
92355SOL    HW278963   4.198   2.665  13.301
92356SOL     OW78964   2.676  13.009   6.532
92356SOL    HW178965   2.711  13.013   6.621
92356SOL    HW278966   2.686  12.917   6.506
92357SOL     OW78967  12.695   4.759   2.332
92357SOL    HW178968  12.609   4.788   2.301
92357SOL    HW278969  12.689   4.766   2.428
92358SOL     OW78970   6.687  13.439   7.463
92358SOL    HW178971   6.641  13.520   7.485
92358SOL    HW278972   6.674  13.429   7.369
92359SOL     OW78973   4.034  10.830   6.803
92359SOL    HW178974   4.062  10.738   6.799
92359SOL    HW278975   4.054  10.856   6.893
92360SOL     OW78976   1.042   5.289   3.646
92360SOL    HW178977   1.071   5.223   3.710
92360SOL    HW278978   0.955   5.314   3.676
92361SOL     OW78979   7.308   9.689   7.131
92361SOL    HW178980   7.234   9.719   7.079
92361SOL    HW278981   7.385   9.724   7.086
92362SOL     OW78982   9.046   9.696   8.918
92362SOL    HW178983   9.133   9.734   8.930
92362SOL    HW278984   9.049   9.612   8.963
92363SOL     OW78985  12.766  13.652   2.568
92363SOL    HW178986  12.683  13.699   2.558
92363SOL    HW278987  12.831  13.721   2.579
92364SOL     OW78988   3.821   9.443  13.057
92364SOL    HW178989   3.844   9.535  13.073
92364SOL    HW278990   3.811   9.406  13.144
92365SOL     OW78991   8.784   0.763   5.043
92365SOL    HW178992   8.863   0.812   5.064
92365SOL    HW278993   8.759   0.794   4.955
92366SOL     OW78994   3.315   8.993   6.794
92366SOL    HW178995   3.315   9.069   6.852
92366SOL    HW278996   3.269   9.023   6.715
92367SOL     OW78997   6.697   0.016   2.594
92367SOL    HW178998   6.689  14.847   2.507
92367SOL    HW278999   6.690   0.110   2.580
92368SOL     OW79000   1.753  13.693  10.143
92368SOL    HW179001   1.818  13.663  10.207
92368SOL    HW279002   1.669  13.667  10.180
92369SOL     OW79003   3.176  13.812   4.612
92369SOL    HW179004   3.211  13.764   4.537
92369SOL    HW279005   3.206  13.762   4.688
92370SOL     OW79006   9.208   7.470   2.257
92370SOL    HW179007   9.282   7.412   2.277
92370SOL    HW279008   9.228   7.506   2.171
92371SOL     OW79009   7.988   9.501  14.240
92371SOL    HW179010   7.917   9.556  14.207
92371SOL    HW279011   8.018   9.452  14.164
92372SOL     OW79012   3.530   7.851  12.872
92372SOL    HW179013   3.540   7.935  12.828
92372SOL    HW279014   3.443   7.820  12.846
92373SOL     OW79015   2.492   8.974   8.365
92373SOL    HW179016   2.397   8.981   8.358
92373SOL    HW279017   2.511   8.982   8.458
92374SOL     OW79018   5.857   9.435   5.992
92374SOL    HW179019   5.913   9.505   6.025
92374SOL    HW279020   5.776   9.480   5.965
92375SOL     OW79021   4.622   2.009  13.113
92375SOL    HW179022   4.693   2.073  13.124
92375SOL    HW279023   4.545   2.054  13.147
92376SOL     OW79024   4.716  13.914  13.612
92376SOL    HW179025   4.749  13.868  13.535
92376SOL    HW279026   4.788  13.909  13.676
92377SOL     OW79027   1.520  14.696   8.867
92377SOL    HW179028   1.444  14.714   8.921
92377SOL    HW279029   1.485  14.658   8.787
92378SOL     OW79030  14.556  10.804   4.809
92378SOL    HW179031  14.649  10.815   4.789
92378SOL    HW279032  14.516  10.889   4.788
92379SOL     OW79033  13.574  13.764   6.074
92379SOL    HW179034  13.524  13.736   5.997
92379SOL    HW279035  13.530  13.844   6.103
92380SOL     OW79036   2.105   8.113   8.961
92380SOL    HW179037   2.197   8.098   8.942
92380SOL    HW279038   2.103   8.195   9.011
92381SOL     OW79039   8.764   9.621  10.490
92381SOL    HW179040   8.683   9.669  10.474
92381SOL    HW279041   8.738   9.550  10.550
92382SOL     OW79042   2.237   0.438  14.104
92382SOL    HW179043   2.164   0.384  14.136
92382SOL    HW279044   2.313   0.405  14.152
92383SOL     OW79045  13.465   2.738   4.002
92383SOL    HW179046  13.405   2.804   4.036
92383SOL    HW279047  13.422   2.702   3.925
92384SOL     OW79048   1.579   4.309   9.343
92384SOL    HW179049   1.658   4.347   9.305
92384SOL    HW279050   1.596   4.215   9.347
92385SOL     OW79051  13.361   9.889   0.395
92385SOL    HW179052  13.361   9.956   0.326
92385SOL    HW279053  13.354   9.806   0.347
92386SOL     OW79054  13.011  13.712   6.778
92386SOL    HW179055  13.068  13.706   6.702
92386SOL    HW279056  13.048  13.782   6.831
92387SOL     OW79057  10.016   9.237   9.206
92387SOL    HW179058  10.102   9.274   9.188
92387SOL    HW279059  10.035   9.151   9.245
92388SOL     OW79060   9.182   5.572   0.393
92388SOL    HW179061   9.144   5.487   0.416
92388SOL    HW279062   9.256   5.583   0.453
92389SOL     OW79063  11.671   2.675   4.468
92389SOL    HW179064  11.632   2.731   4.534
92389SOL    HW279065  11.701   2.598   4.516
92390SOL     OW79066  12.631   1.059  14.553
92390SOL    HW179067  12.568   1.038  14.484
92390SOL    HW279068  12.635   1.155  14.553
92391SOL     OW79069   6.320   5.210  13.629
92391SOL    HW179070   6.230   5.242  13.640
92391SOL    HW279071   6.345   5.238  13.541
92392SOL     OW79072   8.436   9.686  12.000
92392SOL    HW179073   8.481   9.638  11.931
92392SOL    HW279074   8.437   9.777  11.971
92393SOL     OW79075   5.201   2.001  14.137
92393SOL    HW179076   5.241   2.023  14.053
92393SOL    HW279077   5.194   2.085  14.183
92394SOL     OW79078   5.360  10.971   5.816
92394SOL    HW179079   5.394  10.884   5.838
92394SOL    HW279080   5.277  10.978   5.863
92395SOL     OW79081   6.964   8.064   4.733
92395SOL    HW179082   6.922   8.134   4.783
92395SOL    HW279083   6.926   8.070   4.645
92396SOL     OW79084   9.744   2.880  10.073
92396SOL    HW179085   9.755   2.955  10.014
92396SOL    HW279086   9.761   2.804  10.018
92397SOL     OW79087   6.253   5.181  11.179
92397SOL    HW179088   6.238   5.087  11.177
92397SOL    HW279089   6.180   5.218  11.130
92398SOL     OW79090   8.659   2.912   4.911
92398SOL    HW179091   8.698   2.966   4.843
92398SOL    HW279092   8.663   2.966   4.990
92399SOL     OW79093  14.095  10.996   7.163
92399SOL    HW179094  14.040  11.040   7.229
92399SOL    HW279095  14.174  10.971   7.210
92400SOL     OW79096   0.689  10.478  13.066
92400SOL    HW179097   0.722  10.522  13.145
92400SOL    HW279098   0.768  10.443  13.024
92401SOL     OW79099  10.820   0.455   9.858
92401SOL    HW179100  10.728   0.428   9.857
92401SOL    HW279101  10.862   0.392   9.916
92402SOL     OW79102  14.010   2.862   9.730
92402SOL    HW179103  13.969   2.801   9.669
92402SOL    HW279104  14.002   2.947   9.687
92403SOL     OW79105   6.458   4.827   8.458
92403SOL    HW179106   6.399   4.796   8.527
92403SOL    HW279107   6.475   4.918   8.481
92404SOL     OW79108   8.975  11.763   6.632
92404SOL    HW179109   8.964  11.779   6.725
92404SOL    HW279110   8.987  11.850   6.593
92405SOL     OW79111   0.958  11.932   8.696
92405SOL    HW179112   1.024  12.001   8.706
92405SOL    HW279113   0.878  11.979   8.672
92406SOL     OW79114   7.121   4.501  13.570
92406SOL    HW179115   7.034   4.523  13.604
92406SOL    HW279116   7.170   4.583  13.575
92407SOL     OW79117   9.791   1.017   4.164
92407SOL    HW179118   9.815   0.926   4.145
92407SOL    HW279119   9.872   1.066   4.156
92408SOL     OW79120   2.249   0.015   9.886
92408SOL    HW179121   2.311  14.831   9.935
92408SOL    HW279122   2.235  14.837   9.804
92409SOL     OW79123   0.771   4.491   5.518
92409SOL    HW179124   0.812   4.553   5.578
92409SOL    HW279125   0.777   4.406   5.563
92410SOL     OW79126   2.781   8.325   6.922
92410SOL    HW179127   2.794   8.341   7.016
92410SOL    HW279128   2.793   8.230   6.912
92411SOL     OW79129   9.667   5.178  10.593
92411SOL    HW179130   9.654   5.233  10.516
92411SOL    HW279131   9.604   5.212  10.657
92412SOL     OW79132   7.379  13.688  12.191
92412SOL    HW179133   7.426  13.769  12.212
92412SOL    HW279134   7.313  13.715  12.126
92413SOL     OW79135  10.514   9.373   4.070
92413SOL    HW179136  10.532   9.459   4.031
92413SOL    HW279137  10.536   9.384   4.162
92414SOL     OW79138  12.192   7.769   9.576
92414SOL    HW179139  12.146   7.757   9.659
92414SOL    HW279140  12.208   7.863   9.570
92415SOL     OW79141   9.638   2.779  11.530
92415SOL    HW179142   9.547   2.765  11.503
92415SOL    HW279143   9.666   2.694  11.563
92416SOL     OW79144   0.180   1.299   5.794
92416SOL    HW179145   0.232   1.304   5.874
92416SOL    HW279146   0.239   1.262   5.728
92417SOL     OW79147   8.363   3.843   8.417
92417SOL    HW179148   8.455   3.832   8.440
92417SOL    HW279149   8.349   3.781   8.346
92418SOL     OW79150   0.764   6.604   9.355
92418SOL    HW179151   0.779   6.510   9.364
92418SOL    HW279152   0.756   6.618   9.260
92419SOL     OW79153   6.575   0.770   3.550
92419SOL    HW179154   6.620   0.801   3.629
92419SOL    HW279155   6.511   0.839   3.531
92420SOL     OW79156  10.858  14.766  10.015
92420SOL    HW179157  10.834  14.811   9.934
92420SOL    HW279158  10.790  14.790  10.078
92421SOL     OW79159   3.693   2.017  12.192
92421SOL    HW179160   3.712   2.111  12.198
92421SOL    HW279161   3.655   1.994  12.277
92422SOL     OW79162   5.521   2.888   6.281
92422SOL    HW179163   5.469   2.946   6.336
92422SOL    HW279164   5.471   2.807   6.278
92423SOL     OW79165   2.568  14.597  10.346
92423SOL    HW179166   2.632  14.647  10.397
92423SOL    HW279167   2.619  14.560  10.274
92424SOL     OW79168  11.130  12.634   2.229
92424SOL    HW179169  11.215  12.658   2.266
92424SOL    HW279170  11.109  12.705   2.168
92425SOL     OW79171   1.833   5.415  12.400
92425SOL    HW179172   1.777   5.489  12.377
92425SOL    HW279173   1.908   5.454  12.444
92426SOL     OW79174   5.547  10.179   3.694
92426SOL    HW179175   5.569  10.210   3.782
92426SOL    HW279176   5.500  10.252   3.654
92427SOL     OW79177   5.726   9.864   7.522
92427SOL    HW179178   5.680   9.867   7.438
92427SOL    HW279179   5.804   9.916   7.508
92428SOL     OW79180   5.704   0.274  10.896
92428SOL    HW179181   5.726   0.307  10.808
92428SOL    HW279182   5.784   0.232  10.926
92429SOL     OW79183   3.729  10.848   8.871
92429SOL    HW179184   3.711  10.930   8.916
92429SOL    HW279185   3.677  10.852   8.790
92430SOL     OW79186  14.250   9.388   5.685
92430SOL    HW179187  14.345   9.378   5.695
92430SOL    HW279188  14.238   9.480   5.663
92431SOL     OW79189   7.843   5.627   8.053
92431SOL    HW179190   7.876   5.695   8.112
92431SOL    HW279191   7.842   5.547   8.106
92432SOL     OW79192   6.317  13.933   2.570
92432SOL    HW179193   6.245  13.972   2.620
92432SOL    HW279194   6.396  13.964   2.615
92433SOL     OW79195   2.014  13.918   8.652
92433SOL    HW179196   2.071  13.882   8.720
92433SOL    HW279197   1.947  13.851   8.639
92434SOL     OW79198   5.135   9.094   5.357
92434SOL    HW179199   5.228   9.106   5.375
92434SOL    HW279200   5.099   9.183   5.355
92435SOL     OW79201  12.796  11.446   2.951
92435SOL    HW179202  12.747  11.481   3.026
92435SOL    HW279203  12.749  11.479   2.874
92436SOL     OW79204  11.273   7.321   2.892
92436SOL    HW179205  11.306   7.400   2.934
92436SOL    HW279206  11.179   7.322   2.910
92437SOL     OW79207   4.719   7.344   2.014
92437SOL    HW179208   4.772   7.404   1.961
92437SOL    HW279209   4.686   7.279   1.951
92438SOL     OW79210   6.445   0.427  12.346
92438SOL    HW179211   6.534   0.410  12.315
92438SOL    HW279212   6.396   0.451  12.268
92439SOL     OW79213   1.666   3.011   9.503
92439SOL    HW179214   1.624   3.047   9.425
92439SOL    HW279215   1.616   2.932   9.523
92440SOL     OW79216   2.368   7.490  10.483
92440SOL    HW179217   2.282   7.449  10.474
92440SOL    HW279218   2.428   7.417  10.494
92441SOL     OW79219  10.019  10.036  14.047
92441SOL    HW179220  10.089   9.973  14.032
92441SOL    HW279221  10.034  10.104  13.982
92442SOL     OW79222   2.391   6.750   6.416
92442SOL    HW179223   2.401   6.664   6.376
92442SOL    HW279224   2.356   6.732   6.504
92443SOL     OW79225   4.486   0.948  10.241
92443SOL    HW179226   4.530   1.019  10.287
92443SOL    HW279227   4.488   0.974  10.149
92444SOL     OW79228   9.793   7.029   1.011
92444SOL    HW179229   9.764   6.982   1.090
92444SOL    HW279230   9.835   6.961   0.958
92445SOL     OW79231   6.142  10.467  14.113
92445SOL    HW179232   6.148  10.539  14.051
92445SOL    HW279233   6.050  10.469  14.143
92446SOL     OW79234   7.867   4.759   4.830
92446SOL    HW179235   7.784   4.751   4.783
92446SOL    HW279236   7.889   4.852   4.825
92447SOL     OW79237   3.587   4.176   1.553
92447SOL    HW179238   3.583   4.136   1.639
92447SOL    HW279239   3.520   4.131   1.502
92448SOL     OW79240   2.723   6.335   7.714
92448SOL    HW179241   2.723   6.248   7.752
92448SOL    HW279242   2.689   6.392   7.783
92449SOL     OW79243   3.248   3.944   5.822
92449SOL    HW179244   3.242   4.039   5.834
92449SOL    HW279245   3.256   3.932   5.727
92450SOL     OW79246   8.638   6.313  13.721
92450SOL    HW179247   8.695   6.257  13.667
92450SOL    HW279248   8.699   6.366  13.772
92451SOL     OW79249   4.982   2.083   3.511
92451SOL    HW179250   4.996   2.012   3.449
92451SOL    HW279251   5.055   2.075   3.573
92452SOL     OW79252   6.854   0.333   7.754
92452SOL    HW179253   6.888   0.270   7.690
92452SOL    HW279254   6.862   0.418   7.711
92453SOL     OW79255   9.118  12.230   6.798
92453SOL    HW179256   9.120  12.313   6.752
92453SOL    HW279257   9.025  12.213   6.814
92454SOL     OW79258  14.345  10.897   2.496
92454SOL    HW179259  14.389  10.946   2.565
92454SOL    HW279260  14.308  10.821   2.540
92455SOL     OW79261   3.362  14.720  10.726
92455SOL    HW179262   3.390  14.641  10.773
92455SOL    HW279263   3.440  14.774  10.721
92456SOL     OW79264  10.979   1.305   4.552
92456SOL    HW179265  10.888   1.295   4.582
92456SOL    HW279266  11.032   1.270   4.623
92457SOL     OW79267  11.228   9.167   7.832
92457SOL    HW179268  11.171   9.224   7.781
92457SOL    HW279269  11.203   9.182   7.923
92458SOL     OW79270  13.299  12.598   1.701
92458SOL    HW179271  13.312  12.656   1.776
92458SOL    HW279272  13.349  12.519   1.722
92459SOL     OW79273   7.331   0.223   1.355
92459SOL    HW179274   7.424   0.206   1.362
92459SOL    HW279275   7.291   0.172   1.426
92460SOL     OW79276   2.311  12.947   9.049
92460SOL    HW179277   2.255  12.973   9.122
92460SOL    HW279278   2.352  13.029   9.020
92461SOL     OW79279   7.757   5.603  13.970
92461SOL    HW179280   7.705   5.620  14.048
92461SOL    HW279281   7.740   5.511  13.949
92462SOL     OW79282   3.001  10.872   4.387
92462SOL    HW179283   3.056  10.841   4.315
92462SOL    HW279284   2.933  10.925   4.345
92463SOL     OW79285   8.924  13.598   6.218
92463SOL    HW179286   8.907  13.542   6.294
92463SOL    HW279287   8.840  13.602   6.172
92464SOL     OW79288   1.555   8.161   9.262
92464SOL    HW179289   1.587   8.084   9.215
92464SOL    HW279290   1.525   8.127   9.346
92465SOL     OW79291   2.838   9.569  11.486
92465SOL    HW179292   2.790   9.628  11.427
92465SOL    HW279293   2.804   9.482  11.464
92466SOL     OW79294   6.086  11.572   3.622
92466SOL    HW179295   6.079  11.644   3.559
92466SOL    HW279296   6.000  11.566   3.662
92467SOL     OW79297  10.031   1.137   5.255
92467SOL    HW179298  10.097   1.073   5.281
92467SOL    HW279299  10.017   1.190   5.333
92468SOL     OW79300   2.601  12.918   9.726
92468SOL    HW179301   2.547  12.918   9.647
92468SOL    HW279302   2.623  13.010   9.740
92469SOL     OW79303   0.190   5.994  14.150
92469SOL    HW179304   0.116   5.953  14.196
92469SOL    HW279305   0.189   5.955  14.063
92470SOL     OW79306   0.039   8.087  11.781
92470SOL    HW179307   0.064   8.085  11.873
92470SOL    HW279308   0.089   8.016  11.740
92471SOL     OW79309   2.167   2.936  11.761
92471SOL    HW179310   2.106   2.866  11.784
92471SOL    HW279311   2.125   2.982  11.689
92472SOL     OW79312   6.431   1.065  13.178
92472SOL    HW179313   6.442   0.970  13.170
92472SOL    HW279314   6.465   1.086  13.265
92473SOL     OW79315  12.847   5.564   8.297
92473SOL    HW179316  12.782   5.627   8.327
92473SOL    HW279317  12.928   5.614   8.291
92474SOL     OW79318   6.963   1.636   8.259
92474SOL    HW179319   6.934   1.638   8.350
92474SOL    HW279320   7.036   1.573   8.259
92475SOL     OW79321  13.722   5.822   6.261
92475SOL    HW179322  13.780   5.887   6.220
92475SOL    HW279323  13.647   5.872   6.291
92476SOL     OW79324   5.447   7.548   8.831
92476SOL    HW179325   5.485   7.623   8.877
92476SOL    HW279326   5.433   7.482   8.899
92477SOL     OW79327  14.262   4.339   6.145
92477SOL    HW179328  14.329   4.318   6.079
92477SOL    HW279329  14.246   4.256   6.190
92478SOL     OW79330   6.609  14.704   9.774
92478SOL    HW179331   6.697  14.723   9.804
92478SOL    HW279332   6.567  14.659   9.848
92479SOL     OW79333   0.815  13.939  12.277
92479SOL    HW179334   0.790  13.859  12.229
92479SOL    HW279335   0.736  13.994  12.274
92480SOL     OW79336   0.641   0.582   9.683
92480SOL    HW179337   0.736   0.594   9.690
92480SOL    HW279338   0.604   0.658   9.727
92481SOL     OW79339   9.989  14.151   0.535
92481SOL    HW179340   9.935  14.189   0.465
92481SOL    HW279341  10.055  14.100   0.489
92482SOL     OW79342   6.862  10.747   6.123
92482SOL    HW179343   6.921  10.677   6.151
92482SOL    HW279344   6.782  10.733   6.173
92483SOL     OW79345   4.625   9.692   9.069
92483SOL    HW179346   4.702   9.711   9.015
92483SOL    HW279347   4.661   9.678   9.157
92484SOL     OW79348  10.080   4.998   5.642
92484SOL    HW179349  10.115   5.085   5.657
92484SOL    HW279350  10.020   4.983   5.715
92485SOL     OW79351   9.026   0.174   7.112
92485SOL    HW179352   9.017   0.079   7.120
92485SOL    HW279353   8.970   0.197   7.037
92486SOL     OW79354   6.223   7.774   3.292
92486SOL    HW179355   6.148   7.763   3.349
92486SOL    HW279356   6.294   7.799   3.351
92487SOL     OW79357   1.392  12.119  10.828
92487SOL    HW179358   1.402  12.029  10.798
92487SOL    HW279359   1.338  12.160  10.761
92488SOL     OW79360   6.933  11.715   6.184
92488SOL    HW179361   7.020  11.722   6.146
92488SOL    HW279362   6.948  11.713   6.278
92489SOL     OW79363   3.723  10.525   9.175
92489SOL    HW179364   3.630  10.507   9.162
92489SOL    HW279365   3.762  10.439   9.192
92490SOL     OW79366  10.578   4.289   0.569
92490SOL    HW179367  10.613   4.295   0.480
92490SOL    HW279368  10.515   4.360   0.575
92491SOL     OW79369  12.026   6.898   8.610
92491SOL    HW179370  12.116   6.881   8.581
92491SOL    HW279371  11.974   6.830   8.568
92492SOL     OW79372   5.534   1.945  12.749
92492SOL    HW179373   5.461   1.975  12.694
92492SOL    HW279374   5.496   1.875  12.802
92493SOL     OW79375  13.586  12.563  10.780
92493SOL    HW179376  13.587  12.512  10.699
92493SOL    HW279377  13.554  12.502  10.846
92494SOL     OW79378  13.305   5.901  10.690
92494SOL    HW179379  13.362   5.876  10.763
92494SOL    HW279380  13.361   5.954  10.633
92495SOL     OW79381   7.994  11.573   1.780
92495SOL    HW179382   7.919  11.515   1.766
92495SOL    HW279383   7.964  11.634   1.848
92496SOL     OW79384  14.361   9.879  12.051
92496SOL    HW179385  14.295   9.947  12.037
92496SOL    HW279386  14.321   9.818  12.113
92497SOL     OW79387   7.738   7.332   1.622
92497SOL    HW179388   7.799   7.404   1.634
92497SOL    HW279389   7.653   7.369   1.648
92498SOL     OW79390  11.393  12.894  10.711
92498SOL    HW179391  11.333  12.828  10.747
92498SOL    HW279392  11.365  12.976  10.751
92499SOL     OW79393   0.081  10.658   9.566
92499SOL    HW179394  14.863  10.634   9.595
92499SOL    HW279395   0.127  10.684   9.646
92500SOL     OW79396  13.504   6.885  13.116
92500SOL    HW179397  13.537   6.911  13.030
92500SOL    HW279398  13.579   6.844  13.158
92501SOL     OW79399   9.448   4.978  14.279
92501SOL    HW179400   9.403   4.912  14.332
92501SOL    HW279401   9.407   5.060  14.304
92502SOL     OW79402   8.783  13.888   1.425
92502SOL    HW179403   8.872  13.914   1.402
92502SOL    HW279404   8.734  13.971   1.427
92503SOL     OW79405  14.848   8.536   0.821
92503SOL    HW179406   0.003   8.546   0.913
92503SOL    HW279407  14.806   8.451   0.817
92504SOL     OW79408   0.979  14.032   9.626
92504SOL    HW179409   0.918  14.064   9.559
92504SOL    HW279410   1.026  14.110   9.655
92505SOL     OW79411  14.157  10.937   4.363
92505SOL    HW179412  14.234  10.882   4.377
92505SOL    HW279413  14.115  10.942   4.449
92506SOL     OW79414   0.888   2.623  10.563
92506SOL    HW179415   0.830   2.671  10.622
92506SOL    HW279416   0.934   2.692  10.515
92507SOL     OW79417  10.354   5.892  13.847
92507SOL    HW179418  10.340   5.828  13.917
92507SOL    HW279419  10.273   5.891  13.797
92508SOL     OW79420   1.675  10.849   5.945
92508SOL    HW179421   1.747  10.912   5.951
92508SOL    HW279422   1.598  10.898   5.975
92509SOL     OW79423  11.418  14.574   0.413
92509SOL    HW179424  11.333  14.547   0.448
92509SOL    HW279425  11.425  14.527   0.330
92510SOL     OW79426  12.621  12.412   2.677
92510SOL    HW179427  12.597  12.348   2.744
92510SOL    HW279428  12.622  12.496   2.722
92511SOL     OW79429   6.336   7.403  10.500
92511SOL    HW179430   6.356   7.370  10.412
92511SOL    HW279431   6.274   7.474  10.485
92512SOL     OW79432   7.208   5.143   4.185
92512SOL    HW179433   7.145   5.072   4.196
92512SOL    HW279434   7.156   5.217   4.153
92513SOL     OW79435   6.411  12.401   8.880
92513SOL    HW179436   6.498  12.441   8.882
92513SOL    HW279437   6.357  12.463   8.831
92514SOL     OW79438  13.923  14.427   1.854
92514SOL    HW179439  13.992  14.426   1.920
92514SOL    HW279440  13.848  14.467   1.898
92515SOL     OW79441   9.449  12.750   4.856
92515SOL    HW179442   9.372  12.705   4.820
92515SOL    HW279443   9.471  12.816   4.790
92516SOL     OW79444  13.249  11.223   8.936
92516SOL    HW179445  13.286  11.248   9.021
92516SOL    HW279446  13.173  11.169   8.957
92517SOL     OW79447   6.209  13.883   0.859
92517SOL    HW179448   6.285  13.930   0.895
92517SOL    HW279449   6.232  13.791   0.867
92518SOL     OW79450   4.859   2.147   5.782
92518SOL    HW179451   4.890   2.057   5.798
92518SOL    HW279452   4.768   2.136   5.754
92519SOL     OW79453   4.272   6.155   4.518
92519SOL    HW179454   4.292   6.148   4.425
92519SOL    HW279455   4.182   6.123   4.526
92520SOL     OW79456  13.034   6.646   1.858
92520SOL    HW179457  13.060   6.671   1.946
92520SOL    HW279458  13.080   6.708   1.801
92521SOL     OW79459   7.508   1.180   4.519
92521SOL    HW179460   7.461   1.127   4.584
92521SOL    HW279461   7.572   1.230   4.571
92522SOL     OW79462   2.911  13.137   0.171
92522SOL    HW179463   2.970  13.100   0.106
92522SOL    HW279464   2.953  13.218   0.199
92523SOL     OW79465   3.025  11.767   9.916
92523SOL    HW179466   2.953  11.715   9.951
92523SOL    HW279467   3.018  11.852   9.960
92524SOL     OW79468   8.764   6.907   4.482
92524SOL    HW179469   8.762   6.820   4.444
92524SOL    HW279470   8.701   6.903   4.554
92525SOL     OW79471   6.754   2.380   7.365
92525SOL    HW179472   6.734   2.407   7.275
92525SOL    HW279473   6.790   2.459   7.406
92526SOL     OW79474   5.886   8.117   0.770
92526SOL    HW179475   5.919   8.035   0.734
92526SOL    HW279476   5.833   8.155   0.700
92527SOL     OW79477   1.223   3.456   9.083
92527SOL    HW179478   1.155   3.476   9.019
92527SOL    HW279479   1.191   3.494   9.165
92528SOL     OW79480  14.348   9.965  11.195
92528SOL    HW179481  14.435  10.001  11.211
92528SOL    HW279482  14.296   9.994  11.270
92529SOL     OW79483   7.459   0.117   0.012
92529SOL    HW179484   7.392   0.125   0.081
92529SOL    HW279485   7.511   0.041   0.038
92530SOL     OW79486   0.431   9.766   0.465
92530SOL    HW179487   0.351   9.801   0.503
92530SOL    HW279488   0.406   9.680   0.431
92531SOL     OW79489   2.339   1.242   7.387
92531SOL    HW179490   2.359   1.297   7.463
92531SOL    HW279491   2.319   1.304   7.318
92532SOL     OW79492   4.808   3.344   7.266
92532SOL    HW179493   4.715   3.350   7.244
92532SOL    HW279494   4.810   3.313   7.356
92533SOL     OW79495   9.322  11.422   7.264
92533SOL    HW179496   9.341  11.333   7.292
92533SOL    HW279497   9.378  11.436   7.188
92534SOL     OW79498  11.920   2.706  10.215
92534SOL    HW179499  11.846   2.697  10.275
92534SOL    HW279500  11.895   2.654  10.138
92535SOL     OW79501   7.505  10.403   4.061
92535SOL    HW179502   7.507  10.420   4.155
92535SOL    HW279503   7.424  10.354   4.046
92536SOL     OW79504   8.580  14.489   0.144
92536SOL    HW179505   8.627  14.472   0.226
92536SOL    HW279506   8.648  14.518   0.083
92537SOL     OW79507  11.409   7.578  14.029
92537SOL    HW179508  11.421   7.491  14.066
92537SOL    HW279509  11.496   7.601  13.994
92538SOL     OW79510   0.064   3.264  11.520
92538SOL    HW179511   0.059   3.222  11.606
92538SOL    HW279512   0.023   3.349  11.532
92539SOL     OW79513   5.633   6.900   2.211
92539SOL    HW179514   5.701   6.958   2.246
92539SOL    HW279515   5.585   6.955   2.149
92540SOL     OW79516   1.006   6.558  13.909
92540SOL    HW179517   0.963   6.483  13.867
92540SOL    HW279518   1.088   6.569  13.861
92541SOL     OW79519   1.915   7.549   0.343
92541SOL    HW179520   1.992   7.493   0.335
92541SOL    HW279521   1.888   7.565   0.253
92542SOL     OW79522   7.879   8.778   3.738
92542SOL    HW179523   7.911   8.699   3.782
92542SOL    HW279524   7.834   8.827   3.807
92543SOL     OW79525   5.526   6.046   8.292
92543SOL    HW179526   5.550   6.014   8.204
92543SOL    HW279527   5.581   6.123   8.305
92544SOL     OW79528   2.953   5.775   1.074
92544SOL    HW179529   2.977   5.866   1.090
92544SOL    HW279530   2.960   5.733   1.160
92545SOL     OW79531  14.040  11.975   5.154
92545SOL    HW179532  14.083  12.046   5.106
92545SOL    HW279533  14.007  11.916   5.087
92546SOL     OW79534   7.150   0.129  10.052
92546SOL    HW179535   7.174   0.042  10.083
92546SOL    HW279536   7.172   0.128   9.959
92547SOL     OW79537   1.014   8.978  12.854
92547SOL    HW179538   0.925   8.943  12.865
92547SOL    HW279539   1.069   8.916  12.903
92548SOL     OW79540   4.232   5.376  12.330
92548SOL    HW179541   4.215   5.282  12.326
92548SOL    HW279542   4.153   5.413  12.368
92549SOL     OW79543   3.827  11.109   5.165
92549SOL    HW179544   3.876  11.029   5.184
92549SOL    HW279545   3.778  11.126   5.246
92550SOL     OW79546   2.630   7.232  11.276
92550SOL    HW179547   2.695   7.185  11.329
92550SOL    HW279548   2.654   7.325  11.285
92551SOL     OW79549  14.677  10.754   6.952
92551SOL    HW179550  14.624  10.751   7.032
92551SOL    HW279551  14.616  10.786   6.885
92552SOL     OW79552  11.347  12.686   3.181
92552SOL    HW179553  11.414  12.632   3.222
92552SOL    HW279554  11.268  12.632   3.183
92553SOL     OW79555   8.843  12.348   7.652
92553SOL    HW179556   8.880  12.378   7.735
92553SOL    HW279557   8.867  12.416   7.589
92554SOL     OW79558   9.095   8.017   3.928
92554SOL    HW179559   9.094   8.091   3.867
92554SOL    HW279560   9.128   8.054   4.010
92555SOL     OW79561   4.523   6.411   6.189
92555SOL    HW179562   4.575   6.339   6.225
92555SOL    HW279563   4.459   6.431   6.258
92556SOL     OW79564   6.973  13.624   7.696
92556SOL    HW179565   7.002  13.710   7.666
92556SOL    HW279566   6.884  13.639   7.726
92557SOL     OW79567  14.313   0.875   4.516
92557SOL    HW179568  14.236   0.892   4.570
92557SOL    HW279569  14.381   0.932   4.552
92558SOL     OW79570  11.361   0.455   9.965
92558SOL    HW179571  11.386   0.425  10.052
92558SOL    HW279572  11.287   0.515   9.981
92559SOL     OW79573   8.288   1.350   1.618
92559SOL    HW179574   8.373   1.327   1.656
92559SOL    HW279575   8.225   1.331   1.688
92560SOL     OW79576   7.459   3.258   8.589
92560SOL    HW179577   7.419   3.318   8.653
92560SOL    HW279578   7.418   3.281   8.506
92561SOL     OW79579   5.451   4.955   8.800
92561SOL    HW179580   5.458   5.038   8.847
92561SOL    HW279581   5.487   4.891   8.860
92562SOL     OW79582   5.389  12.635   3.132
92562SOL    HW179583   5.346  12.690   3.066
92562SOL    HW279584   5.325  12.629   3.203
92563SOL     OW79585   3.787   5.149   6.818
92563SOL    HW179586   3.767   5.131   6.726
92563SOL    HW279587   3.706   5.187   6.853
92564SOL     OW79588   6.890   2.958   2.458
92564SOL    HW179589   6.836   2.974   2.380
92564SOL    HW279590   6.830   2.918   2.521
92565SOL     OW79591   9.716   4.646  11.835
92565SOL    HW179592   9.768   4.712  11.881
92565SOL    HW279593   9.645   4.695  11.793
92566SOL     OW79594   5.455   2.018  13.235
92566SOL    HW179595   5.392   1.961  13.190
92566SOL    HW279596   5.429   2.014  13.327
92567SOL     OW79597  13.969  12.530  13.756
92567SOL    HW179598  14.048  12.507  13.707
92567SOL    HW279599  13.940  12.613  13.717
92568SOL     OW79600   5.247   0.199  12.505
92568SOL    HW179601   5.277   0.109  12.491
92568SOL    HW279602   5.152   0.195  12.494
92569SOL     OW79603   8.353   2.735   3.636
92569SOL    HW179604   8.324   2.731   3.545
92569SOL    HW279605   8.409   2.813   3.640
92570SOL     OW79606   8.275   6.161  11.668
92570SOL    HW179607   8.343   6.095  11.654
92570SOL    HW279608   8.285   6.185  11.761
92571SOL     OW79609   9.718   5.933  12.296
92571SOL    HW179610   9.783   6.004  12.299
92571SOL    HW279611   9.639   5.975  12.263
92572SOL     OW79612   8.344   6.926   1.200
92572SOL    HW179613   8.334   6.831   1.198
92572SOL    HW279614   8.298   6.953   1.280
92573SOL     OW79615  13.530   5.538   0.452
92573SOL    HW179616  13.508   5.463   0.397
92573SOL    HW279617  13.452   5.552   0.506
92574SOL     OW79618   3.654  10.445  13.371
92574SOL    HW179619   3.627  10.402  13.452
92574SOL    HW279620   3.617  10.533  13.375
92575SOL     OW79621   1.402   8.545   0.372
92575SOL    HW179622   1.320   8.594   0.365
92575SOL    HW279623   1.467   8.610   0.399
92576SOL     OW79624  11.061   8.727   2.642
92576SOL    HW179625  10.985   8.785   2.633
92576SOL    HW279626  11.120   8.773   2.701
92577SOL     OW79627   5.116   8.097   9.301
92577SOL    HW179628   5.143   8.005   9.299
92577SOL    HW279629   5.036   8.099   9.247
92578SOL     OW79630   2.000  11.349   2.761
92578SOL    HW179631   1.949  11.281   2.717
92578SOL    HW279632   1.992  11.426   2.705
92579SOL     OW79633  12.804   9.974   5.211
92579SOL    HW179634  12.719   9.939   5.185
92579SOL    HW279635  12.830   9.921   5.286
92580SOL     OW79636  10.343   0.587  13.572
92580SOL    HW179637  10.311   0.497  13.584
92580SOL    HW279638  10.383   0.586  13.485
92581SOL     OW79639   1.697   4.243  11.557
92581SOL    HW179640   1.720   4.232  11.465
92581SOL    HW279641   1.604   4.220  11.561
92582SOL     OW79642   3.027   4.594  13.747
92582SOL    HW179643   3.070   4.568  13.829
92582SOL    HW279644   3.046   4.522  13.686
92583SOL     OW79645  10.802  10.451   6.023
92583SOL    HW179646  10.735  10.431   5.957
92583SOL    HW279647  10.759  10.509   6.085
92584SOL     OW79648   3.855   4.860   0.576
92584SOL    HW179649   3.795   4.905   0.636
92584SOL    HW279650   3.901   4.797   0.632
92585SOL     OW79651   7.837   7.294   8.866
92585SOL    HW179652   7.780   7.280   8.942
92585SOL    HW279653   7.914   7.239   8.883
92586SOL     OW79654   5.316   4.908   4.009
92586SOL    HW179655   5.257   4.981   3.989
92586SOL    HW279656   5.404   4.945   3.998
92587SOL     OW79657  11.677   8.198   4.597
92587SOL    HW179658  11.708   8.171   4.510
92587SOL    HW279659  11.691   8.120   4.652
92588SOL     OW79660   4.663   0.923   5.194
92588SOL    HW179661   4.587   0.975   5.220
92588SOL    HW279662   4.694   0.965   5.114
92589SOL     OW79663   3.022   1.708  13.149
92589SOL    HW179664   3.072   1.648  13.204
92589SOL    HW279665   2.996   1.779  13.208
92590SOL     OW79666  14.516   4.887   3.761
92590SOL    HW179667  14.511   4.858   3.852
92590SOL    HW279668  14.595   4.942   3.757
92591SOL     OW79669   3.823   5.828   6.251
92591SOL    HW179670   3.755   5.885   6.214
92591SOL    HW279671   3.797   5.740   6.225
92592SOL     OW79672   4.557  14.007  10.277
92592SOL    HW179673   4.580  14.055  10.197
92592SOL    HW279674   4.616  14.043  10.344
92593SOL     OW79675   1.117   1.448   7.452
92593SOL    HW179676   1.049   1.449   7.519
92593SOL    HW279677   1.192   1.406   7.494
92594SOL     OW79678   1.023   8.882   3.336
92594SOL    HW179679   1.061   8.932   3.263
92594SOL    HW279680   0.928   8.889   3.323
92595SOL     OW79681   5.991   5.528   0.976
92595SOL    HW179682   5.923   5.464   0.998
92595SOL    HW279683   5.962   5.609   1.016
92596SOL     OW79684   9.832   7.972   1.732
92596SOL    HW179685   9.750   8.022   1.733
92596SOL    HW279686   9.853   7.961   1.639
92597SOL     OW79687   0.887   7.124   2.605
92597SOL    HW179688   0.950   7.176   2.555
92597SOL    HW279689   0.929   7.108   2.689
92598SOL     OW79690   6.662   7.855   6.188
92598SOL    HW179691   6.742   7.804   6.181
92598SOL    HW279692   6.636   7.872   6.098
92599SOL     OW79693  10.337   0.961   8.209
92599SOL    HW179694  10.322   0.906   8.285
92599SOL    HW279695  10.275   0.929   8.143
92600SOL     OW79696   1.093   3.007   3.924
92600SOL    HW179697   1.073   3.001   4.017
92600SOL    HW279698   1.066   2.922   3.888
92601SOL     OW79699  13.454   1.820   7.263
92601SOL    HW179700  13.461   1.842   7.170
92601SOL    HW279701  13.526   1.867   7.304
92602SOL     OW79702   5.403  12.202  14.526
92602SOL    HW179703   5.449  12.145  14.588
92602SOL    HW279704   5.310  12.187  14.543
92603SOL     OW79705  10.042   6.972   6.686
92603SOL    HW179706   9.996   7.041   6.733
92603SOL    HW279707  10.133   6.980   6.714
92604SOL     OW79708   0.543   1.174  12.733
92604SOL    HW179709   0.474   1.234  12.705
92604SOL    HW279710   0.593   1.222  12.799
92605SOL     OW79711   1.875  12.114  13.186
92605SOL    HW179712   1.868  12.019  13.191
92605SOL    HW279713   1.858  12.135  13.094
92606SOL     OW79714   0.136  12.662  10.810
92606SOL    HW179715   0.144  12.590  10.872
92606SOL    HW279716   0.224  12.675  10.775
92607SOL     OW79717   9.674   3.845  12.120
92607SOL    HW179718   9.688   3.805  12.034
92607SOL    HW279719   9.613   3.787  12.164
92608SOL     OW79720   2.193   4.004   3.821
92608SOL    HW179721   2.212   4.090   3.783
92608SOL    HW279722   2.230   3.942   3.758
92609SOL     OW79723  14.497  14.551   7.024
92609SOL    HW179724  14.585  14.530   7.055
92609SOL    HW279725  14.499  14.530   6.930
92610SOL     OW79726   1.049   2.307   1.365
92610SOL    HW179727   0.984   2.339   1.302
92610SOL    HW279728   1.088   2.230   1.322
92611SOL     OW79729   4.154  14.869   9.570
92611SOL    HW179730   4.108   0.003   9.486
92611SOL    HW279731   4.224   0.065   9.562
92612SOL     OW79732   7.230   2.627   4.029
92612SOL    HW179733   7.151   2.574   4.040
92612SOL    HW279734   7.221   2.665   3.941
92613SOL     OW79735  13.898  10.223  12.763
92613SOL    HW179736  13.966  10.271  12.811
92613SOL    HW279737  13.865  10.159  12.826
92614SOL     OW79738   3.476   3.028  12.180
92614SOL    HW179739   3.451   3.120  12.192
92614SOL    HW279740   3.534   3.029  12.104
92615SOL     OW79741   5.210  13.812  12.107
92615SOL    HW179742   5.151  13.826  12.181
92615SOL    HW279743   5.279  13.877  12.118
92616SOL     OW79744   0.482   8.011  14.527
92616SOL    HW179745   0.406   7.984  14.476
92616SOL    HW279746   0.556   8.006  14.466
92617SOL     OW79747   9.964   8.787   1.848
92617SOL    HW179748   9.981   8.876   1.878
92617SOL    HW279749   9.869   8.785   1.832
92618SOL     OW79750   0.275   0.450  14.827
92618SOL    HW179751   0.218   0.460   0.033
92618SOL    HW279752   0.350   0.506  14.846
92619SOL     OW79753  11.562  11.034   6.089
92619SOL    HW179754  11.490  11.088   6.123
92619SOL    HW279755  11.629  11.038   6.158
92620SOL     OW79756   9.283   5.351  11.545
92620SOL    HW179757   9.255   5.260  11.534
92620SOL    HW279758   9.368   5.356  11.500
92621SOL     OW79759   6.866   2.844   2.976
92621SOL    HW179760   6.954   2.842   3.014
92621SOL    HW279761   6.878   2.813   2.886
92622SOL     OW79762  13.142   6.045   3.469
92622SOL    HW179763  13.228   6.036   3.511
92622SOL    HW279764  13.108   6.128   3.503
92623SOL     OW79765   6.992  12.804   2.329
92623SOL    HW179766   6.963  12.713   2.323
92623SOL    HW279767   7.087  12.799   2.329
92624SOL     OW79768   5.555  10.018   1.670
92624SOL    HW179769   5.530  10.111   1.674
92624SOL    HW279770   5.609  10.012   1.592
92625SOL     OW79771   0.356  10.735   7.960
92625SOL    HW179772   0.375  10.820   7.920
92625SOL    HW279773   0.338  10.678   7.885
92626SOL     OW79774   1.861   6.631  14.037
92626SOL    HW179775   1.845   6.565  14.104
92626SOL    HW279776   1.780   6.632  13.985
92627SOL     OW79777   6.682  13.616  13.462
92627SOL    HW179778   6.648  13.586  13.377
92627SOL    HW279779   6.777  13.620  13.449
92628SOL     OW79780   1.004   1.588   4.762
92628SOL    HW179781   1.029   1.653   4.828
92628SOL    HW279782   1.063   1.514   4.777
92629SOL     OW79783   6.485   8.313  13.705
92629SOL    HW179784   6.558   8.323  13.767
92629SOL    HW279785   6.427   8.387  13.724
92630SOL     OW79786   8.268   4.711  10.901
92630SOL    HW179787   8.182   4.723  10.941
92630SOL    HW279788   8.301   4.800  10.887
92631SOL     OW79789   3.455   5.362   4.642
92631SOL    HW179790   3.376   5.367   4.695
92631SOL    HW279791   3.508   5.294   4.683
92632SOL     OW79792   1.418   8.442  12.507
92632SOL    HW179793   1.357   8.515  12.515
92632SOL    HW279794   1.422   8.425  12.412
92633SOL     OW79795   0.503  12.996  12.002
92633SOL    HW179796   0.407  12.991  12.004
92633SOL    HW279797   0.526  12.968  11.914
92634SOL     OW79798   5.781   1.327   2.794
92634SOL    HW179799   5.815   1.403   2.841
92634SOL    HW279800   5.766   1.359   2.705
92635SOL     OW79801   9.546  13.984   5.501
92635SOL    HW179802   9.618  14.009   5.442
92635SOL    HW279803   9.467  14.015   5.456
92636SOL     OW79804   8.757   0.696   6.160
92636SOL    HW179805   8.677   0.716   6.112
92636SOL    HW279806   8.827   0.738   6.110
92637SOL     OW79807   8.876   9.063   5.866
92637SOL    HW179808   8.912   9.073   5.778
92637SOL    HW279809   8.947   9.026   5.918
92638SOL     OW79810   7.892   8.394   9.917
92638SOL    HW179811   7.902   8.462   9.851
92638SOL    HW279812   7.956   8.327   9.894
92639SOL     OW79813   6.288   5.495   7.816
92639SOL    HW179814   6.241   5.527   7.893
92639SOL    HW279815   6.287   5.400   7.825
92640SOL     OW79816  10.426  12.215   9.432
92640SOL    HW179817  10.451  12.125   9.414
92640SOL    HW279818  10.402  12.214   9.525
92641SOL     OW79819   6.533   7.110   7.053
92641SOL    HW179820   6.463   7.137   7.113
92641SOL    HW279821   6.601   7.075   7.110
92642SOL     OW79822  14.595   1.691   4.399
92642SOL    HW179823  14.499   1.695   4.404
92642SOL    HW279824  14.616   1.601   4.425
92643SOL     OW79825   3.800  13.571  12.787
92643SOL    HW179826   3.802  13.564  12.883
92643SOL    HW279827   3.874  13.628  12.766
92644SOL     OW79828  13.901   0.397   9.179
92644SOL    HW179829  13.992   0.402   9.210
92644SOL    HW279830  13.856   0.343   9.244
92645SOL     OW79831  14.447  11.285   0.805
92645SOL    HW179832  14.510  11.231   0.853
92645SOL    HW279833  14.499  11.326   0.735
92646SOL     OW79834  13.951   6.587  13.972
92646SOL    HW179835  14.019   6.653  13.987
92646SOL    HW279836  13.899   6.621  13.900
92647SOL     OW79837   7.787  11.275   9.248
92647SOL    HW179838   7.775  11.347   9.187
92647SOL    HW279839   7.749  11.306   9.330
92648SOL     OW79840   8.935  13.403   9.016
92648SOL    HW179841   8.977  13.321   9.043
92648SOL    HW279842   8.898  13.439   9.096
92649SOL     OW79843   3.556  13.293  11.305
92649SOL    HW179844   3.521  13.204  11.313
92649SOL    HW279845   3.621  13.299  11.375
92650SOL     OW79846  13.004   3.685   2.679
92650SOL    HW179847  13.078   3.701   2.620
92650SOL    HW279848  12.975   3.596   2.657
92651SOL     OW79849  12.615   7.336   3.781
92651SOL    HW179850  12.557   7.363   3.852
92651SOL    HW279851  12.665   7.262   3.818
92652SOL     OW79852   2.186   4.836   2.418
92652SOL    HW179853   2.156   4.913   2.370
92652SOL    HW279854   2.117   4.820   2.483
92653SOL     OW79855   1.309   2.247  12.477
92653SOL    HW179856   1.219   2.279  12.465
92653SOL    HW279857   1.306   2.194  12.557
92654SOL     OW79858   5.993   9.544   7.697
92654SOL    HW179859   5.996   9.448   7.700
92654SOL    HW279860   6.010   9.565   7.605
92655SOL     OW79861  11.411   7.767  11.274
92655SOL    HW179862  11.435   7.793  11.185
92655SOL    HW279863  11.319   7.740  11.267
92656SOL     OW79864   4.072   2.318   7.702
92656SOL    HW179865   4.145   2.377   7.718
92656SOL    HW279866   4.068   2.310   7.607
92657SOL     OW79867   8.703   8.581   2.748
92657SOL    HW179868   8.611   8.559   2.759
92657SOL    HW279869   8.714   8.592   2.654
92658SOL     OW79870   3.346   2.467  12.710
92658SOL    HW179871   3.270   2.415  12.736
92658SOL    HW279872   3.388   2.415  12.642
92659SOL     OW79873   2.768   1.918   9.522
92659SOL    HW179874   2.730   1.832   9.507
92659SOL    HW279875   2.747   1.967   9.442
92660SOL     OW79876   3.352   0.505  12.876
92660SOL    HW179877   3.444   0.490  12.898
92660SOL    HW279878   3.322   0.569  12.941
92661SOL     OW79879   7.010  11.393   0.840
92661SOL    HW179880   6.967  11.329   0.897
92661SOL    HW279881   7.036  11.464   0.899
92662SOL     OW79882  10.867   9.698   2.404
92662SOL    HW179883  10.777   9.666   2.410
92662SOL    HW279884  10.860   9.793   2.417
92663SOL     OW79885  13.830  10.239   7.671
92663SOL    HW179886  13.856  10.224   7.580
92663SOL    HW279887  13.815  10.152   7.707
92664SOL     OW79888   1.476   6.589   4.337
92664SOL    HW179889   1.460   6.500   4.305
92664SOL    HW279890   1.481   6.580   4.432
92665SOL     OW79891  14.852   8.250  13.448
92665SOL    HW179892  14.850   8.271  13.541
92665SOL    HW279893   0.072   8.223  13.431
92666SOL     OW79894  13.233  11.387   7.380
92666SOL    HW179895  13.279  11.344   7.308
92666SOL    HW279896  13.302  11.410   7.443
92667SOL     OW79897  11.576  12.516   2.029
92667SOL    HW179898  11.563  12.589   2.089
92667SOL    HW279899  11.624  12.451   2.080
92668SOL     OW79900   0.040   5.032   5.599
92668SOL    HW179901   0.072   4.942   5.599
92668SOL    HW279902   0.005   5.045   5.687
92669SOL     OW79903   8.941   8.926  14.814
92669SOL    HW179904   8.908   8.930   0.034
92669SOL    HW279905   8.907   8.843  14.780
92670SOL     OW79906  12.452   9.907   4.157
92670SOL    HW179907  12.502   9.946   4.229
92670SOL    HW279908  12.517   9.881   4.093
92671SOL     OW79909   6.162   1.489   1.839
92671SOL    HW179910   6.202   1.576   1.841
92671SOL    HW279911   6.159   1.466   1.746
92672SOL     OW79912   8.237   1.161   9.525
92672SOL    HW179913   8.332   1.170   9.532
92672SOL    HW279914   8.207   1.248   9.496
92673SOL     OW79915  14.058  12.157   6.956
92673SOL    HW179916  14.109  12.238   6.955
92673SOL    HW279917  13.979  12.179   7.004
92674SOL     OW79918   3.088   5.695   1.307
92674SOL    HW179919   3.032   5.643   1.365
92674SOL    HW279920   3.138   5.752   1.365
92675SOL     OW79921   9.589   8.583   2.764
92675SOL    HW179922   9.668   8.612   2.719
92675SOL    HW279923   9.527   8.655   2.752
92676SOL     OW79924  12.262   4.090  10.843
92676SOL    HW179925  12.301   4.092  10.931
92676SOL    HW279926  12.278   4.001  10.812
92677SOL     OW79927  11.106   4.060  10.088
92677SOL    HW179928  11.015   4.039  10.108
92677SOL    HW279929  11.132   3.995  10.023
92678SOL     OW79930   7.302   3.226  10.519
92678SOL    HW179931   7.253   3.166  10.577
92678SOL    HW279932   7.282   3.313  10.553
92679SOL     OW79933  10.944  12.552   9.922
92679SOL    HW179934  11.003  12.624   9.897
92679SOL    HW279935  10.861  12.596   9.941
92680SOL     OW79936   3.700   4.864  11.183
92680SOL    HW179937   3.676   4.882  11.092
92680SOL    HW279938   3.774   4.804  11.178
92681SOL     OW79939  13.686   2.846   5.991
92681SOL    HW179940  13.640   2.775   5.945
92681SOL    HW279941  13.652   2.843   6.080
92682SOL     OW79942   0.646   1.287  10.457
92682SOL    HW179943   0.647   1.378  10.486
92682SOL    HW279944   0.669   1.290  10.365
92683SOL     OW79945   0.389   8.433   6.150
92683SOL    HW179946   0.398   8.479   6.233
92683SOL    HW279947   0.406   8.499   6.083
92684SOL     OW79948   6.326   9.537  14.729
92684SOL    HW179949   6.307   9.562  14.638
92684SOL    HW279950   6.291   9.448  14.737
92685SOL     OW79951  12.369  10.390  10.158
92685SOL    HW179952  12.386  10.296  10.161
92685SOL    HW279953  12.419  10.421  10.082
92686SOL     OW79954   6.164   6.567   1.546
92686SOL    HW179955   6.214   6.577   1.627
92686SOL    HW279956   6.082   6.525   1.573
92687SOL     OW79957  14.624  13.994   5.655
92687SOL    HW179958  14.529  13.998   5.648
92687SOL    HW279959  14.642  13.993   5.749
92688SOL     OW79960   0.274   7.719   9.095
92688SOL    HW179961   0.287   7.798   9.147
92688SOL    HW279962   0.268   7.750   9.004
92689SOL     OW79963   9.881   6.594   9.298
92689SOL    HW179964   9.845   6.623   9.214
92689SOL    HW279965   9.967   6.636   9.303
92690SOL     OW79966   2.305   6.856  13.882
92690SOL    HW179967   2.369   6.844  13.952
92690SOL    HW279968   2.228   6.807  13.911
92691SOL     OW79969   4.730  10.976   1.273
92691SOL    HW179970   4.707  10.944   1.185
92691SOL    HW279971   4.679  11.056   1.283
92692SOL     OW79972   0.475   1.296   0.542
92692SOL    HW179973   0.496   1.380   0.502
92692SOL    HW279974   0.439   1.244   0.470
92693SOL     OW79975  11.359   3.719   6.304
92693SOL    HW179976  11.419   3.775   6.254
92693SOL    HW279977  11.307   3.780   6.355
92694SOL     OW79978  10.056   7.088  10.460
92694SOL    HW179979   9.981   7.043  10.500
92694SOL    HW279980  10.047   7.070  10.366
92695SOL     OW79981   2.903  12.836   2.510
92695SOL    HW179982   2.843  12.783   2.458
92695SOL    HW279983   2.974  12.858   2.450
92696SOL     OW79984   3.217   8.834  14.531
92696SOL    HW179985   3.211   8.742  14.506
92696SOL    HW279986   3.288   8.869  14.477
92697SOL     OW79987  10.335  11.686  12.309
92697SOL    HW179988  10.376  11.720  12.230
92697SOL    HW279989  10.375  11.600  12.322
92698SOL     OW79990  12.876   1.023   8.730
92698SOL    HW179991  12.864   0.980   8.645
92698SOL    HW279992  12.799   0.997   8.781
92699SOL     OW79993   0.992   5.786  13.551
92699SOL    HW179994   0.949   5.868  13.576
92699SOL    HW279995   1.057   5.812  13.487
92700SOL     OW79996  11.377  11.844   9.805
92700SOL    HW179997  11.328  11.766   9.779
92700SOL    HW279998  11.455  11.843   9.749
92701SOL     OW79999  10.138  11.077   9.332
92701SOL    HW180000  10.131  11.143   9.402
92701SOL    HW280001  10.154  10.995   9.378
92702SOL     OW80002  14.032   9.132   3.835
92702SOL    HW180003  14.050   9.105   3.744
92702SOL    HW280004  14.037   9.051   3.885
92703SOL     OW80005  14.273   4.944  12.282
92703SOL    HW180006  14.318   4.982  12.357
92703SOL    HW280007  14.295   5.001  12.208
92704SOL     OW80008   9.994   5.606   8.779
92704SOL    HW180009   9.977   5.697   8.755
92704SOL    HW280010  10.003   5.561   8.695
92705SOL     OW80011   6.979   4.107   4.477
92705SOL    HW180012   6.885   4.123   4.482
92705SOL    HW280013   7.011   4.168   4.410
92706SOL     OW80014  13.409   1.883  11.468
92706SOL    HW180015  13.410   1.788  11.465
92706SOL    HW280016  13.484   1.910  11.415
92707SOL     OW80017   7.252   7.728   3.594
92707SOL    HW180018   7.207   7.752   3.675
92707SOL    HW280019   7.264   7.811   3.547
92708SOL     OW80020  14.398  11.417  13.749
92708SOL    HW180021  14.352  11.335  13.734
92708SOL    HW280022  14.467  11.419  13.682
92709SOL     OW80023   1.410  12.675  11.103
92709SOL    HW180024   1.433  12.643  11.190
92709SOL    HW280025   1.360  12.756  11.120
92710SOL     OW80026  14.314   5.054   5.068
92710SOL    HW180027  14.341   4.963   5.078
92710SOL    HW280028  14.232   5.050   5.018
92711SOL     OW80029  13.958   4.725   6.525
92711SOL    HW180030  13.900   4.802   6.525
92711SOL    HW280031  14.000   4.726   6.439
92712SOL     OW80032   3.313   5.228  11.417
92712SOL    HW180033   3.236   5.223  11.473
92712SOL    HW280034   3.317   5.143  11.373
92713SOL     OW80035   0.397  12.453  13.822
92713SOL    HW180036   0.317  12.403  13.838
92713SOL    HW280037   0.374  12.543  13.844
92714SOL     OW80038   3.497   8.357   3.931
92714SOL    HW180039   3.450   8.278   3.959
92714SOL    HW280040   3.530   8.334   3.844
92715SOL     OW80041  13.476   6.697   1.716
92715SOL    HW180042  13.549   6.746   1.753
92715SOL    HW280043  13.436   6.652   1.790
92716SOL     OW80044   5.169  12.157   9.282
92716SOL    HW180045   5.102  12.109   9.330
92716SOL    HW280046   5.177  12.240   9.329
92717SOL     OW80047   0.340  14.109   4.156
92717SOL    HW180048   0.333  14.052   4.079
92717SOL    HW280049   0.314  14.053   4.230
92718SOL     OW80050   0.131   3.221  13.474
92718SOL    HW180051   0.184   3.142  13.466
92718SOL    HW280052   0.148   3.253  13.563
92719SOL     OW80053  11.681  11.527  12.524
92719SOL    HW180054  11.595  11.495  12.499
92719SOL    HW280055  11.718  11.457  12.577
92720SOL     OW80056   5.345   8.058  12.104
92720SOL    HW180057   5.437   8.060  12.078
92720SOL    HW280058   5.346   8.029  12.195
92721SOL     OW80059   5.405   1.012   4.640
92721SOL    HW180060   5.422   1.024   4.734
92721SOL    HW280061   5.434   0.923   4.622
92722SOL     OW80062  14.260   3.321   3.172
92722SOL    HW180063  14.290   3.367   3.250
92722SOL    HW280064  14.220   3.390   3.119
92723SOL     OW80065  11.396   1.172   9.628
92723SOL    HW180066  11.420   1.209   9.543
92723SOL    HW280067  11.335   1.236   9.666
92724SOL     OW80068  13.778   5.555  14.027
92724SOL    HW180069  13.767   5.635  13.976
92724SOL    HW280070  13.722   5.490  13.983
92725SOL     OW80071   7.170   6.792  10.716
92725SOL    HW180072   7.171   6.879  10.676
92725SOL    HW280073   7.260   6.777  10.744
92726SOL     OW80074   6.929  10.882  14.858
92726SOL    HW180075   6.947  10.941  14.785
92726SOL    HW280076   6.833  10.877  14.862
92727SOL     OW80077   2.721  11.096   4.894
92727SOL    HW180078   2.756  11.111   4.806
92727SOL    HW280079   2.727  11.182   4.936
92728SOL     OW80080   0.915  11.207   8.084
92728SOL    HW180081   0.821  11.209   8.102
92728SOL    HW280082   0.948  11.133   8.135
92729SOL     OW80083  13.369   7.769   6.810
92729SOL    HW180084  13.433   7.840   6.810
92729SOL    HW280085  13.374   7.732   6.722
92730SOL     OW80086   3.562   3.558  12.599
92730SOL    HW180087   3.652   3.590  12.595
92730SOL    HW280088   3.571   3.464  12.616
92731SOL     OW80089  12.810   6.668  14.136
92731SOL    HW180090  12.762   6.608  14.193
92731SOL    HW280091  12.832   6.743  14.192
92732SOL     OW80092   1.096   3.498  10.700
92732SOL    HW180093   1.078   3.513  10.792
92732SOL    HW280094   1.017   3.454  10.667
92733SOL     OW80095   6.161  12.874   5.078
92733SOL    HW180096   6.136  12.932   5.150
92733SOL    HW280097   6.092  12.807   5.076
92734SOL     OW80098   2.474  12.656   8.370
92734SOL    HW180099   2.503  12.742   8.343
92734SOL    HW280100   2.530  12.595   8.322
92735SOL     OW80101   2.882  14.418  14.153
92735SOL    HW180102   2.854  14.505  14.180
92735SOL    HW280103   2.891  14.425  14.058
92736SOL     OW80104   0.153  14.120   0.001
92736SOL    HW180105   0.073  14.070   0.013
92736SOL    HW280106   0.203  14.106   0.081
92737SOL     OW80107  13.099   0.774   0.029
92737SOL    HW180108  13.103   0.687  14.857
92737SOL    HW280109  13.099   0.756   0.123
92738SOL     OW80110  12.358   1.838   1.174
92738SOL    HW180111  12.429   1.774   1.178
92738SOL    HW280112  12.318   1.836   1.261
92739SOL     OW80113   8.377   6.742   9.280
92739SOL    HW180114   8.434   6.738   9.203
92739SOL    HW280115   8.378   6.834   9.306
92740SOL     OW80116   2.207   4.939  10.175
92740SOL    HW180117   2.256   4.957  10.095
92740SOL    HW280118   2.170   4.851  10.161
92741SOL     OW80119   3.483  12.283  11.920
92741SOL    HW180120   3.443  12.215  11.974
92741SOL    HW280121   3.563  12.243  11.887
92742SOL     OW80122  12.830   5.706  11.906
92742SOL    HW180123  12.895   5.675  11.969
92742SOL    HW280124  12.876   5.773  11.856
92743SOL     OW80125  13.665   3.573   9.416
92743SOL    HW180126  13.714   3.508   9.468
92743SOL    HW280127  13.733   3.624   9.372
92744SOL     OW80128   4.875  13.494   6.226
92744SOL    HW180129   4.790  13.533   6.246
92744SOL    HW280130   4.901  13.450   6.307
92745SOL     OW80131   3.272   1.499   6.539
92745SOL    HW180132   3.349   1.459   6.499
92745SOL    HW280133   3.198   1.464   6.489
92746SOL     OW80134   9.049  12.826   5.626
92746SOL    HW180135   9.076  12.917   5.639
92746SOL    HW280136   8.991  12.809   5.700
92747SOL     OW80137   8.547  13.974   4.311
92747SOL    HW180138   8.463  14.015   4.331
92747SOL    HW280139   8.597  14.042   4.268
92748SOL     OW80140   9.413   3.449   6.038
92748SOL    HW180141   9.436   3.357   6.048
92748SOL    HW280142   9.322   3.448   6.009
92749SOL     OW80143   9.887  11.148   5.685
92749SOL    HW180144   9.942  11.134   5.762
92749SOL    HW280145   9.823  11.078   5.688
92750SOL     OW80146   7.654  12.970   8.441
92750SOL    HW180147   7.748  12.962   8.425
92750SOL    HW280148   7.628  12.886   8.478
92751SOL     OW80149   1.559   0.854   3.063
92751SOL    HW180150   1.588   0.920   3.000
92751SOL    HW280151   1.482   0.893   3.104
92752SOL     OW80152   6.087   5.120   0.679
92752SOL    HW180153   6.100   5.147   0.770
92752SOL    HW280154   6.174   5.091   0.650
92753SOL     OW80155   1.734   3.581  10.138
92753SOL    HW180156   1.727   3.491  10.105
92753SOL    HW280157   1.659   3.626  10.102
92754SOL     OW80158   0.235  10.163  11.377
92754SOL    HW180159   0.230  10.239  11.435
92754SOL    HW280160   0.149  10.159  11.336
92755SOL     OW80161   2.357   2.903  13.357
92755SOL    HW180162   2.449   2.906  13.330
92755SOL    HW280163   2.308   2.904  13.275
92756SOL     OW80164  12.636   5.357   2.663
92756SOL    HW180165  12.585   5.385   2.739
92756SOL    HW280166  12.705   5.301   2.700
92757SOL     OW80167   2.788   7.659   6.798
92757SOL    HW180168   2.710   7.666   6.743
92757SOL    HW280169   2.753   7.635   6.885
92758SOL     OW80170   9.738  10.622   1.594
92758SOL    HW180171   9.814  10.659   1.550
92758SOL    HW280172   9.664  10.643   1.536
92759SOL     OW80173   2.034   5.302   3.370
92759SOL    HW180174   2.053   5.369   3.436
92759SOL    HW280175   1.982   5.237   3.417
92760SOL     OW80176   4.208   5.093  11.426
92760SOL    HW180177   4.215   5.185  11.400
92760SOL    HW280178   4.197   5.095  11.521
92761SOL     OW80179   1.680   0.204   3.895
92761SOL    HW180180   1.612   0.272   3.896
92761SOL    HW280181   1.720   0.212   3.809
92762SOL     OW80182  11.603   4.594   0.149
92762SOL    HW180183  11.600   4.577   0.055
92762SOL    HW280184  11.521   4.638   0.169
92763SOL     OW80185   3.765  13.064   3.146
92763SOL    HW180186   3.748  13.151   3.182
92763SOL    HW280187   3.836  13.029   3.200
92764SOL     OW80188  11.851   0.629   4.318
92764SOL    HW180189  11.802   0.581   4.384
92764SOL    HW280190  11.825   0.591   4.234
92765SOL     OW80191  14.200   5.185  10.345
92765SOL    HW180192  14.155   5.127  10.284
92765SOL    HW280193  14.206   5.135  10.426
92766SOL     OW80194  12.561  11.660   0.863
92766SOL    HW180195  12.606  11.620   0.789
92766SOL    HW280196  12.614  11.736   0.885
92767SOL     OW80197   7.756  11.165   1.721
92767SOL    HW180198   7.770  11.099   1.654
92767SOL    HW280199   7.771  11.119   1.804
92768SOL     OW80200   8.077   5.633  14.626
92768SOL    HW180201   7.997   5.630  14.678
92768SOL    HW280202   8.127   5.556  14.654
92769SOL     OW80203   3.873   6.585   1.161
92769SOL    HW180204   3.942   6.615   1.220
92769SOL    HW280205   3.827   6.665   1.135
92770SOL     OW80206   3.000   3.054   8.102
92770SOL    HW180207   3.070   3.073   8.040
92770SOL    HW280208   2.991   2.958   8.098
92771SOL     OW80209  12.055   2.134   2.643
92771SOL    HW180210  12.069   2.066   2.578
92771SOL    HW280211  11.961   2.131   2.661
92772SOL     OW80212   1.860   0.929   0.040
92772SOL    HW180213   1.866   0.940   0.135
92772SOL    HW280214   1.927   0.988   0.004
92773SOL     OW80215   9.795   3.123  10.856
92773SOL    HW180216   9.808   3.078  10.940
92773SOL    HW280217   9.763   3.210  10.880
92774SOL     OW80218   2.701   0.557   7.200
92774SOL    HW180219   2.631   0.494   7.220
92774SOL    HW280220   2.673   0.598   7.118
92775SOL     OW80221  12.853   8.930  11.974
92775SOL    HW180222  12.849   8.870  11.900
92775SOL    HW280223  12.936   8.910  12.017
92776SOL     OW80224   1.939   1.562  13.908
92776SOL    HW180225   1.910   1.546  13.998
92776SOL    HW280226   2.017   1.616  13.917
92777SOL     OW80227  12.313   4.261   6.039
92777SOL    HW180228  12.241   4.248   6.101
92777SOL    HW280229  12.276   4.321   5.973
92778SOL     OW80230   5.519   7.638   7.122
92778SOL    HW180231   5.426   7.658   7.114
92778SOL    HW280232   5.563   7.720   7.098
92779SOL     OW80233   0.768   5.978   0.730
92779SOL    HW180234   0.787   5.909   0.667
92779SOL    HW280235   0.851   6.026   0.739
92780SOL     OW80236   2.709   6.415   0.573
92780SOL    HW180237   2.723   6.395   0.666
92780SOL    HW280238   2.787   6.383   0.529
92781SOL     OW80239  12.421   1.255   9.404
92781SOL    HW180240  12.486   1.240   9.336
92781SOL    HW280241  12.356   1.313   9.363
92782SOL     OW80242   3.796   7.754  10.707
92782SOL    HW180243   3.705   7.743  10.733
92782SOL    HW280244   3.833   7.665  10.711
92783SOL     OW80245   0.558  11.244   2.338
92783SOL    HW180246   0.549  11.182   2.410
92783SOL    HW280247   0.470  11.278   2.325
92784SOL     OW80248  13.376  12.337   3.150
92784SOL    HW180249  13.366  12.431   3.165
92784SOL    HW280250  13.461  12.328   3.106
92785SOL     OW80251   3.292   4.225   1.059
92785SOL    HW180252   3.340   4.225   0.977
92785SOL    HW280253   3.200   4.219   1.033
92786SOL     OW80254   0.976   5.507  13.998
92786SOL    HW180255   1.012   5.494  13.911
92786SOL    HW280256   0.920   5.584  13.990
92787SOL     OW80257   4.258   0.158   0.588
92787SOL    HW180258   4.250   0.250   0.562
92787SOL    HW280259   4.190   0.113   0.538
92788SOL     OW80260   6.445   7.243   7.917
92788SOL    HW180261   6.507   7.276   7.853
92788SOL    HW280262   6.364   7.228   7.867
92789SOL     OW80263  10.906   0.840   9.353
92789SOL    HW180264  10.912   0.762   9.408
92789SOL    HW280265  10.992   0.882   9.362
92790SOL     OW80266   2.773   2.624   8.635
92790SOL    HW180267   2.778   2.579   8.719
92790SOL    HW280268   2.864   2.643   8.612
92791SOL     OW80269   4.277   9.013   7.807
92791SOL    HW180270   4.269   8.967   7.891
92791SOL    HW280271   4.320   9.096   7.830
92792SOL     OW80272   0.302   7.334   6.648
92792SOL    HW180273   0.215   7.347   6.612
92792SOL    HW280274   0.359   7.324   6.571
92793SOL     OW80275   5.938   6.716   9.840
92793SOL    HW180276   5.972   6.767   9.766
92793SOL    HW280277   5.896   6.781   9.897
92794SOL     OW80278   0.973  13.064   8.851
92794SOL    HW180279   0.989  13.157   8.833
92794SOL    HW280280   1.000  13.053   8.943
92795SOL     OW80281   7.883  11.475   7.541
92795SOL    HW180282   7.828  11.402   7.568
92795SOL    HW280283   7.924  11.445   7.459
92796SOL     OW80284   4.398   3.290   9.914
92796SOL    HW180285   4.468   3.308   9.977
92796SOL    HW280286   4.345   3.223   9.957
92797SOL     OW80287  13.062   5.013  12.507
92797SOL    HW180288  13.096   5.092  12.465
92797SOL    HW280289  13.124   4.945  12.482
92798SOL     OW80290  13.003   9.315   6.522
92798SOL    HW180291  13.075   9.357   6.476
92798SOL    HW280292  13.028   9.223   6.527
92799SOL     OW80293  11.939  13.962  10.645
92799SOL    HW180294  11.895  14.047  10.637
92799SOL    HW280295  11.950  13.932  10.555
92800SOL     OW80296  11.747   2.982   0.339
92800SOL    HW180297  11.824   2.991   0.395
92800SOL    HW280298  11.690   2.921   0.386
92801SOL     OW80299   5.569   1.961   0.745
92801SOL    HW180300   5.502   1.919   0.799
92801SOL    HW280301   5.605   1.890   0.692
92802SOL     OW80302  11.917   5.791   6.027
92802SOL    HW180303  11.861   5.726   6.069
92802SOL    HW280304  11.881   5.800   5.939
92803SOL     OW80305  11.211   3.789   0.800
92803SOL    HW180306  11.158   3.730   0.854
92803SOL    HW280307  11.154   3.808   0.725
92804SOL     OW80308   9.389   0.994   0.664
92804SOL    HW180309   9.421   0.924   0.607
92804SOL    HW280310   9.407   0.963   0.753
92805SOL     OW80311   7.601   4.445   8.979
92805SOL    HW180312   7.579   4.477   9.067
92805SOL    HW280313   7.618   4.524   8.928
92806SOL     OW80314   5.570  11.419  13.741
92806SOL    HW180315   5.502  11.435  13.675
92806SOL    HW280316   5.589  11.326  13.733
92807SOL     OW80317   2.936   6.034  12.079
92807SOL    HW180318   2.940   6.128  12.065
92807SOL    HW280319   3.002   5.998  12.019
92808SOL     OW80320   2.941  13.624   4.651
92808SOL    HW180321   2.920  13.708   4.611
92808SOL    HW280322   3.004  13.584   4.590
92809SOL     OW80323  11.884  12.172   6.529
92809SOL    HW180324  11.901  12.136   6.442
92809SOL    HW280325  11.804  12.128   6.558
92810SOL     OW80326  11.821   9.265  13.654
92810SOL    HW180327  11.727   9.251  13.661
92810SOL    HW280328  11.844   9.314  13.733
92811SOL     OW80329  12.099   8.018   5.259
92811SOL    HW180330  12.048   8.008   5.179
92811SOL    HW280331  12.142   8.103   5.250
92812SOL     OW80332  10.527   7.378  11.018
92812SOL    HW180333  10.525   7.335  10.933
92812SOL    HW280334  10.609   7.428  11.018
92813SOL     OW80335   9.638  12.957   2.590
92813SOL    HW180336   9.566  12.967   2.652
92813SOL    HW280337   9.596  12.943   2.505
92814SOL     OW80338   5.776   2.368  13.188
92814SOL    HW180339   5.846   2.423  13.223
92814SOL    HW280340   5.740   2.417  13.114
92815SOL     OW80341   4.795   7.078   0.837
92815SOL    HW180342   4.769   7.047   0.924
92815SOL    HW280343   4.864   7.018   0.810
92816SOL     OW80344   8.931  11.763  11.326
92816SOL    HW180345   8.870  11.725  11.390
92816SOL    HW280346   8.980  11.688  11.292
92817SOL     OW80347  10.770   3.008  10.375
92817SOL    HW180348  10.829   3.025  10.448
92817SOL    HW280349  10.805   2.930  10.334
92818SOL     OW80350   1.742  14.635   1.099
92818SOL    HW180351   1.803  14.706   1.077
92818SOL    HW280352   1.751  14.573   1.027
92819SOL     OW80353  13.123   8.336  11.234
92819SOL    HW180354  13.072   8.263  11.270
92819SOL    HW280355  13.108   8.408  11.295
92820SOL     OW80356   9.529   3.738   8.340
92820SOL    HW180357   9.463   3.787   8.389
92820SOL    HW280358   9.594   3.805   8.315
92821SOL     OW80359  13.840   5.697   4.053
92821SOL    HW180360  13.883   5.766   4.103
92821SOL    HW280361  13.746   5.713   4.067
92822SOL     OW80362   4.859   1.797  10.305
92822SOL    HW180363   4.910   1.877  10.322
92822SOL    HW280364   4.919   1.726  10.326
92823SOL     OW80365   4.354   8.852   3.003
92823SOL    HW180366   4.383   8.930   2.956
92823SOL    HW280367   4.322   8.884   3.087
92824SOL     OW80368   7.388   6.009  10.710
92824SOL    HW180369   7.346   5.996  10.795
92824SOL    HW280370   7.371   6.101  10.689
92825SOL     OW80371   6.788   2.329   0.817
92825SOL    HW180372   6.716   2.270   0.798
92825SOL    HW280373   6.746   2.414   0.833
92826SOL     OW80374  14.399  14.410   3.214
92826SOL    HW180375  14.415  14.504   3.201
92826SOL    HW280376  14.477  14.367   3.180
92827SOL     OW80377  13.946   4.429   5.552
92827SOL    HW180378  13.981   4.340   5.563
92827SOL    HW280379  13.902   4.448   5.635
92828SOL     OW80380   9.461   9.685  10.745
92828SOL    HW180381   9.512   9.608  10.770
92828SOL    HW280382   9.414   9.710  10.825
92829SOL     OW80383   8.847   1.360  13.233
92829SOL    HW180384   8.875   1.440  13.278
92829SOL    HW280385   8.849   1.292  13.300
92830SOL     OW80386   5.584  13.562   3.770
92830SOL    HW180387   5.539  13.572   3.686
92830SOL    HW280388   5.665  13.612   3.760
92831SOL     OW80389   6.090  13.127   6.907
92831SOL    HW180390   6.060  13.216   6.888
92831SOL    HW280391   6.034  13.071   6.853
92832SOL     OW80392   8.320   5.746   3.132
92832SOL    HW180393   8.365   5.828   3.153
92832SOL    HW280394   8.262   5.731   3.207
92833SOL     OW80395   1.692   7.770   7.598
92833SOL    HW180396   1.703   7.679   7.570
92833SOL    HW280397   1.689   7.820   7.517
92834SOL     OW80398  13.673   0.939  11.872
92834SOL    HW180399  13.661   1.001  11.800
92834SOL    HW280400  13.659   0.853  11.832
92835SOL     OW80401   3.205  12.581   0.578
92835SOL    HW180402   3.152  12.631   0.641
92835SOL    HW280403   3.160  12.496   0.573
92836SOL     OW80404   0.330   9.562   7.085
92836SOL    HW180405   0.406   9.541   7.031
92836SOL    HW280406   0.277   9.483   7.083
92837SOL     OW80407   4.669  12.178   8.552
92837SOL    HW180408   4.613  12.109   8.589
92837SOL    HW280409   4.758  12.147   8.567
92838SOL     OW80410   8.135  14.562   7.954
92838SOL    HW180411   8.174  14.599   8.033
92838SOL    HW280412   8.054  14.521   7.985
92839SOL     OW80413   2.511   6.635   5.197
92839SOL    HW180414   2.552   6.656   5.113
92839SOL    HW280415   2.584   6.626   5.258
92840SOL     OW80416   1.761  13.724   5.898
92840SOL    HW180417   1.675  13.761   5.877
92840SOL    HW280418   1.760  13.715   5.993
92841SOL     OW80419  10.453  12.401   2.063
92841SOL    HW180420  10.448  12.493   2.091
92841SOL    HW280421  10.453  12.352   2.146
92842SOL     OW80422  12.934  11.478  13.454
92842SOL    HW180423  13.009  11.475  13.513
92842SOL    HW280424  12.860  11.448  13.506
92843SOL     OW80425   1.653   3.946  12.862
92843SOL    HW180426   1.647   4.011  12.932
92843SOL    HW280427   1.563   3.933  12.834
92844SOL     OW80428   6.453  13.559   4.447
92844SOL    HW180429   6.478  13.604   4.367
92844SOL    HW280430   6.479  13.620   4.517
92845SOL     OW80431  12.345   2.189   1.110
92845SOL    HW180432  12.431   2.199   1.152
92845SOL    HW280433  12.364   2.171   1.018
92846SOL     OW80434  13.750   1.033  14.174
92846SOL    HW180435  13.711   1.066  14.255
92846SOL    HW280436  13.768   0.941  14.192
92847SOL     OW80437  14.249   2.955   7.952
92847SOL    HW180438  14.192   2.978   8.026
92847SOL    HW280439  14.247   2.860   7.950
92848SOL     OW80440   2.159  11.196  10.321
92848SOL    HW180441   2.163  11.100  10.329
92848SOL    HW280442   2.193  11.213  10.233
92849SOL     OW80443  10.331   8.900   6.392
92849SOL    HW180444  10.367   8.856   6.469
92849SOL    HW280445  10.395   8.970   6.374
92850SOL     OW80446  10.175   0.004  13.620
92850SOL    HW180447  10.240  14.807  13.599
92850SOL    HW280448  10.145   0.036  13.535
92851SOL     OW80449  12.682   8.923   8.435
92851SOL    HW180450  12.619   8.902   8.366
92851SOL    HW280451  12.707   8.838   8.471
92852SOL     OW80452   8.678   8.483   1.854
92852SOL    HW180453   8.706   8.575   1.853
92852SOL    HW280454   8.758   8.433   1.839
92853SOL     OW80455  10.125  12.191   4.211
92853SOL    HW180456  10.193  12.158   4.270
92853SOL    HW280457  10.172  12.229   4.138
92854SOL     OW80458   3.999   7.110   1.095
92854SOL    HW180459   3.920   7.104   1.042
92854SOL    HW280460   3.968   7.103   1.185
92855SOL     OW80461  11.888   8.555  11.919
92855SOL    HW180462  11.970   8.582  11.960
92855SOL    HW280463  11.853   8.635  11.881
92856SOL     OW80464   8.607   9.668  10.951
92856SOL    HW180465   8.526   9.650  10.903
92856SOL    HW280466   8.644   9.745  10.909
92857SOL     OW80467  10.208   2.143   3.925
92857SOL    HW180468  10.263   2.198   3.981
92857SOL    HW280469  10.181   2.071   3.982
92858SOL     OW80470   2.642   7.988  12.747
92858SOL    HW180471   2.586   8.050  12.701
92858SOL    HW280472   2.601   7.979  12.834
92859SOL     OW80473  10.740   5.241   9.817
92859SOL    HW180474  10.730   5.325   9.862
92859SOL    HW280475  10.796   5.261   9.742
92860SOL     OW80476   8.474   0.617   5.990
92860SOL    HW180477   8.527   0.539   6.010
92860SOL    HW280478   8.468   0.617   5.894
92861SOL     OW80479  13.080   1.493   7.623
92861SOL    HW180480  13.165   1.501   7.667
92861SOL    HW280481  13.039   1.417   7.664
92862SOL     OW80482  10.637   0.031   8.327
92862SOL    HW180483  10.575  14.837   8.292
92862SOL    HW280484  10.692  14.850   8.387
92863SOL     OW80485   9.035   3.016   8.158
92863SOL    HW180486   9.030   3.100   8.204
92863SOL    HW280487   8.947   2.980   8.163
92864SOL     OW80488   3.994   5.755   8.151
92864SOL    HW180489   4.020   5.806   8.228
92864SOL    HW280490   3.909   5.718   8.175
92865SOL     OW80491  11.483  10.534   4.793
92865SOL    HW180492  11.530  10.459   4.830
92865SOL    HW280493  11.485  10.600   4.862
92866SOL     OW80494   3.835  12.449   3.949
92866SOL    HW180495   3.880  12.533   3.945
92866SOL    HW280496   3.742  12.472   3.949
92867SOL     OW80497  12.042   7.696   1.484
92867SOL    HW180498  12.001   7.634   1.425
92867SOL    HW280499  12.009   7.672   1.571
92868SOL     OW80500   2.231   2.593   7.945
92868SOL    HW180501   2.148   2.546   7.948
92868SOL    HW280502   2.228   2.653   8.020
92869SOL     OW80503   9.060   3.509   5.504
92869SOL    HW180504   8.969   3.535   5.521
92869SOL    HW280505   9.107   3.536   5.582
92870SOL     OW80506   1.122   1.217   6.852
92870SOL    HW180507   1.135   1.306   6.820
92870SOL    HW280508   1.115   1.227   6.947
92871SOL     OW80509   7.441   4.696   6.693
92871SOL    HW180510   7.367   4.652   6.652
92871SOL    HW280511   7.504   4.626   6.711
92872SOL     OW80512  11.165  10.115   6.308
92872SOL    HW180513  11.189  10.022   6.304
92872SOL    HW280514  11.094  10.123   6.244
92873SOL     OW80515   4.778   5.627   3.867
92873SOL    HW180516   4.702   5.583   3.905
92873SOL    HW280517   4.827   5.557   3.823
92874SOL     OW80518  12.810   8.999   7.589
92874SOL    HW180519  12.747   9.070   7.598
92874SOL    HW280520  12.890   9.042   7.558
92875SOL     OW80521   1.998   8.950   0.802
92875SOL    HW180522   1.962   8.972   0.716
92875SOL    HW280523   1.921   8.931   0.856
92876SOL     OW80524  13.083   3.609   8.758
92876SOL    HW180525  13.086   3.601   8.663
92876SOL    HW280526  13.109   3.522   8.790
92877SOL     OW80527  14.722   4.162   4.625
92877SOL    HW180528  14.768   4.219   4.686
92877SOL    HW280529  14.789   4.131   4.564
92878SOL     OW80530  12.985   1.907   0.227
92878SOL    HW180531  13.042   1.831   0.234
92878SOL    HW280532  12.954   1.904   0.136
92879SOL     OW80533   2.494   3.144  14.788
92879SOL    HW180534   2.465   3.095  14.711
92879SOL    HW280535   2.457   3.097  14.863
92880SOL     OW80536   9.594  10.552   8.893
92880SOL    HW180537   9.661  10.522   8.954
92880SOL    HW280538   9.511  10.530   8.935
92881SOL     OW80539   3.659   3.197   0.321
92881SOL    HW180540   3.590   3.130   0.317
92881SOL    HW280541   3.623   3.265   0.379
92882SOL     OW80542   0.766   0.551   8.142
92882SOL    HW180543   0.782   0.499   8.063
92882SOL    HW280544   0.738   0.487   8.207
92883SOL     OW80545   8.571   9.958  12.789
92883SOL    HW180546   8.595  10.021  12.721
92883SOL    HW280547   8.481   9.934  12.769
92884SOL     OW80548   3.938   2.858  10.400
92884SOL    HW180549   4.030   2.866  10.427
92884SOL    HW280550   3.927   2.765  10.381
92885SOL     OW80551  11.195   0.796  14.565
92885SOL    HW180552  11.138   0.719  14.572
92885SOL    HW280553  11.261   0.771  14.500
92886SOL     OW80554   4.527  13.179   7.244
92886SOL    HW180555   4.585  13.154   7.172
92886SOL    HW280556   4.559  13.129   7.320
92887SOL     OW80557   0.809  11.231   2.175
92887SOL    HW180558   0.729  11.233   2.228
92887SOL    HW280559   0.827  11.323   2.156
92888SOL     OW80560   1.352  11.164   5.390
92888SOL    HW180561   1.335  11.232   5.455
92888SOL    HW280562   1.311  11.197   5.310
92889SOL     OW80563   3.715   9.036  13.427
92889SOL    HW180564   3.763   9.063  13.505
92889SOL    HW280565   3.636   8.993  13.461
92890SOL     OW80566   0.683   9.297   1.545
92890SOL    HW180567   0.739   9.330   1.475
92890SOL    HW280568   0.709   9.347   1.622
92891SOL     OW80569   7.737   4.375  10.794
92891SOL    HW180570   7.679   4.301  10.812
92891SOL    HW280571   7.825   4.337  10.789
92892SOL     OW80572  12.376   9.862  14.867
92892SOL    HW180573  12.456   9.860  14.815
92892SOL    HW280574  12.406   9.851   0.088
92893SOL     OW80575   2.115  10.783   7.888
92893SOL    HW180576   2.059  10.749   7.818
92893SOL    HW280577   2.079  10.746   7.968
92894SOL     OW80578   2.459  11.083   4.131
92894SOL    HW180579   2.471  10.989   4.141
92894SOL    HW280580   2.512  11.122   4.200
92895SOL     OW80581   0.507  12.279  10.158
92895SOL    HW180582   0.460  12.333  10.095
92895SOL    HW280583   0.557  12.342  10.211
92896SOL     OW80584   2.040   3.682   8.185
92896SOL    HW180585   1.989   3.763   8.195
92896SOL    HW280586   2.128   3.712   8.163
92897SOL     OW80587   5.073  12.298   2.654
92897SOL    HW180588   4.980  12.274   2.645
92897SOL    HW280589   5.102  12.253   2.732
92898SOL     OW80590   8.383   1.192  11.558
92898SOL    HW180591   8.423   1.168  11.642
92898SOL    HW280592   8.294   1.157  11.563
92899SOL     OW80593  11.023   2.026   4.633
92899SOL    HW180594  11.093   1.962   4.623
92899SOL    HW280595  11.068   2.107   4.659
92900SOL     OW80596   3.764   1.443  12.751
92900SOL    HW180597   3.696   1.502  12.719
92900SOL    HW280598   3.731   1.355  12.733
92901SOL     OW80599   3.225   8.343   5.358
92901SOL    HW180600   3.208   8.250   5.373
92901SOL    HW280601   3.141   8.378   5.330
92902SOL     OW80602   1.568   6.625  11.696
92902SOL    HW180603   1.551   6.531  11.684
92902SOL    HW280604   1.557   6.640  11.789
92903SOL     OW80605   8.989  14.866   8.997
92903SOL    HW180606   8.968   0.050   9.072
92903SOL    HW280607   9.051   0.049   8.946
92904SOL     OW80608   1.925   9.434   7.903
92904SOL    HW180609   1.991   9.365   7.901
92904SOL    HW280610   1.894   9.440   7.812
92905SOL     OW80611  13.542  12.638   2.820
92905SOL    HW180612  13.611  12.574   2.804
92905SOL    HW280613  13.464  12.600   2.779
92906SOL     OW80614   1.139   0.984  12.348
92906SOL    HW180615   1.112   1.075  12.339
92906SOL    HW280616   1.180   0.963  12.264
92907SOL     OW80617   9.348   2.828   6.536
92907SOL    HW180618   9.296   2.758   6.496
92907SOL    HW280619   9.423   2.838   6.478
92908SOL     OW80620  14.635   9.327   2.926
92908SOL    HW180621  14.585   9.399   2.887
92908SOL    HW280622  14.569   9.269   2.962
92909SOL     OW80623   3.489   3.941  14.715
92909SOL    HW180624   3.566   3.990  14.684
92909SOL    HW280625   3.525   3.857  14.744
92910SOL     OW80626   1.838   6.057  14.118
92910SOL    HW180627   1.833   5.962  14.104
92910SOL    HW280628   1.873   6.067  14.206
92911SOL     OW80629   6.330   0.089   8.451
92911SOL    HW180630   6.311   0.092   8.544
92911SOL    HW280631   6.302   0.175   8.418
92912SOL     OW80632   2.476   4.189   5.674
92912SOL    HW180633   2.571   4.197   5.682
92912SOL    HW280634   2.463   4.111   5.620
92913SOL     OW80635   8.676   5.055   7.462
92913SOL    HW180636   8.742   5.086   7.400
92913SOL    HW280637   8.632   5.135   7.492
92914SOL     OW80638   7.016   2.913   4.658
92914SOL    HW180639   6.951   2.908   4.728
92914SOL    HW280640   7.002   2.999   4.618
92915SOL     OW80641   7.289  13.634   7.259
92915SOL    HW180642   7.229  13.701   7.226
92915SOL    HW280643   7.362  13.636   7.198
92916SOL     OW80644   4.690  14.668   1.784
92916SOL    HW180645   4.697  14.746   1.840
92916SOL    HW280646   4.702  14.594   1.844
92917SOL     OW80647  12.937  13.270   7.427
92917SOL    HW180648  12.959  13.360   7.452
92917SOL    HW280649  12.944  13.221   7.509
92918SOL     OW80650   4.405   1.010   2.857
92918SOL    HW180651   4.336   1.069   2.884
92918SOL    HW280652   4.371   0.968   2.778
92919SOL     OW80653   7.375   5.201   6.399
92919SOL    HW180654   7.310   5.249   6.449
92919SOL    HW280655   7.408   5.135   6.460
92920SOL     OW80656   7.714   7.490   7.652
92920SOL    HW180657   7.751   7.529   7.573
92920SOL    HW280658   7.645   7.550   7.680
92921SOL     OW80659  10.495  11.021   1.581
92921SOL    HW180660  10.434  10.961   1.624
92921SOL    HW280661  10.462  11.108   1.602
92922SOL     OW80662   2.063   5.202  14.404
92922SOL    HW180663   2.000   5.133  14.385
92922SOL    HW280664   2.102   5.223  14.319
92923SOL     OW80665   5.881   7.976   3.054
92923SOL    HW180666   5.863   7.902   3.111
92923SOL    HW280667   5.976   7.976   3.043
92924SOL     OW80668   9.345   4.501  13.058
92924SOL    HW180669   9.366   4.418  13.016
92924SOL    HW280670   9.378   4.493  13.147
92925SOL     OW80671   9.348   8.923   6.404
92925SOL    HW180672   9.422   8.980   6.385
92925SOL    HW280673   9.376   8.836   6.376
92926SOL     OW80674   1.043   5.050  14.864
92926SOL    HW180675   1.134   5.027  14.845
92926SOL    HW280676   1.019   5.114  14.797
92927SOL     OW80677   0.298  14.844   0.178
92927SOL    HW180678   0.301  14.838   0.273
92927SOL    HW280679   0.235   0.045   0.160
92928SOL     OW80680  10.005   9.755   5.374
92928SOL    HW180681   9.912   9.755   5.397
92928SOL    HW280682  10.042   9.684   5.427
92929SOL     OW80683  13.393   1.700   1.134
92929SOL    HW180684  13.397   1.697   1.229
92929SOL    HW280685  13.304   1.669   1.113
92930SOL     OW80686   1.807  11.386   1.430
92930SOL    HW180687   1.736  11.346   1.480
92930SOL    HW280688   1.881  11.390   1.491
92931SOL     OW80689  12.723  10.234  10.236
92931SOL    HW180690  12.680  10.201  10.156
92931SOL    HW280691  12.741  10.155  10.287
92932SOL     OW80692   6.190  10.286  12.326
92932SOL    HW180693   6.121  10.249  12.382
92932SOL    HW280694   6.173  10.380  12.325
92933SOL     OW80695   7.542   8.768  13.039
92933SOL    HW180696   7.534   8.784  12.945
92933SOL    HW280697   7.624   8.810  13.064
92934SOL     OW80698   6.877  13.340  14.623
92934SOL    HW180699   6.913  13.271  14.680
92934SOL    HW280700   6.878  13.301  14.536
92935SOL     OW80701  11.341  13.744   0.053
92935SOL    HW180702  11.353  13.838   0.040
92935SOL    HW280703  11.248  13.728   0.035
92936SOL     OW80704   3.440   6.807   0.999
92936SOL    HW180705   3.430   6.712   0.993
92936SOL    HW280706   3.356   6.841   0.969
92937SOL     OW80707  14.309   4.065   3.709
92937SOL    HW180708  14.314   4.125   3.783
92937SOL    HW280709  14.305   3.978   3.750
92938SOL     OW80710   8.380   6.700   7.837
92938SOL    HW180711   8.312   6.641   7.805
92938SOL    HW280712   8.333   6.763   7.892
92939SOL     OW80713   6.278  14.533   9.727
92939SOL    HW180714   6.332  14.604   9.693
92939SOL    HW280715   6.338  14.458   9.734
92940SOL     OW80716  13.085  14.475   4.157
92940SOL    HW180717  13.084  14.564   4.191
92940SOL    HW280718  13.175  14.462   4.126
92941SOL     OW80719   3.685   1.723   5.374
92941SOL    HW180720   3.626   1.735   5.449
92941SOL    HW280721   3.685   1.629   5.359
92942SOL     OW80722   0.206  10.343  12.888
92942SOL    HW180723   0.205  10.281  12.815
92942SOL    HW280724   0.118  10.339  12.924
92943SOL     OW80725  14.327   0.837   8.717
92943SOL    HW180726  14.335   0.744   8.737
92943SOL    HW280727  14.301   0.840   8.625
92944SOL     OW80728  10.332  12.623   6.221
92944SOL    HW180729  10.331  12.690   6.289
92944SOL    HW280730  10.253  12.638   6.170
92945SOL     OW80731   2.754   5.318   4.991
92945SOL    HW180732   2.743   5.243   4.933
92945SOL    HW280733   2.686   5.309   5.057
92946SOL     OW80734   5.394  11.633   7.242
92946SOL    HW180735   5.440  11.549   7.231
92946SOL    HW280736   5.308  11.608   7.276
92947SOL     OW80737   5.760   6.848  11.651
92947SOL    HW180738   5.755   6.919  11.715
92947SOL    HW280739   5.852   6.820  11.654
92948SOL     OW80740  12.461  11.483  14.530
92948SOL    HW180741  12.514  11.509  14.455
92948SOL    HW280742  12.470  11.388  14.534
92949SOL     OW80743   7.403   3.634   9.344
92949SOL    HW180744   7.321   3.680   9.325
92949SOL    HW280745   7.457   3.700   9.390
92950SOL     OW80746  14.493   4.929   5.828
92950SOL    HW180747  14.536   4.882   5.756
92950SOL    HW280748  14.437   4.864   5.870
92951SOL     OW80749   8.904  14.694   3.081
92951SOL    HW180750   8.885  14.665   3.170
92951SOL    HW280751   8.930  14.785   3.090
92952SOL     OW80752   7.558   0.835   6.244
92952SOL    HW180753   7.587   0.923   6.268
92952SOL    HW280754   7.613   0.811   6.169
92953SOL     OW80755  14.380   0.175  13.084
92953SOL    HW180756  14.375   0.205  12.994
92953SOL    HW280757  14.469   0.197  13.112
92954SOL     OW80758   1.225  12.273   9.067
92954SOL    HW180759   1.315  12.305   9.064
92954SOL    HW280760   1.230  12.195   9.123
92955SOL     OW80761   3.499   8.245   5.608
92955SOL    HW180762   3.445   8.227   5.531
92955SOL    HW280763   3.509   8.340   5.608
92956SOL     OW80764   3.177  11.748   0.930
92956SOL    HW180765   3.150  11.820   0.988
92956SOL    HW280766   3.224  11.792   0.859
92957SOL     OW80767  11.625   3.103   9.405
92957SOL    HW180768  11.578   3.187   9.404
92957SOL    HW280769  11.607   3.064   9.319
92958SOL     OW80770   1.340   5.437  13.362
92958SOL    HW180771   1.435   5.435  13.375
92958SOL    HW280772   1.306   5.373  13.424
92959SOL     OW80773   8.662  14.207  12.983
92959SOL    HW180774   8.598  14.194  13.053
92959SOL    HW280775   8.609  14.216  12.903
92960SOL     OW80776   3.541   2.997   4.336
92960SOL    HW180777   3.540   3.006   4.432
92960SOL    HW280778   3.448   2.998   4.311
92961SOL     OW80779   4.288   7.889   7.019
92961SOL    HW180780   4.248   7.973   7.044
92961SOL    HW280781   4.353   7.912   6.953
92962SOL     OW80782  10.333   8.384   8.663
92962SOL    HW180783  10.360   8.347   8.579
92962SOL    HW280784  10.261   8.444   8.641
92963SOL     OW80785   2.884  13.505   0.804
92963SOL    HW180786   2.963  13.552   0.776
92963SOL    HW280787   2.813  13.548   0.756
92964SOL     OW80788   7.457  14.296  11.644
92964SOL    HW180789   7.400  14.244  11.587
92964SOL    HW280790   7.484  14.234  11.712
92965SOL     OW80791   4.451   3.460   4.970
92965SOL    HW180792   4.426   3.470   5.062
92965SOL    HW280793   4.545   3.443   4.972
92966SOL     OW80794   1.828   6.836  11.164
92966SOL    HW180795   1.809   6.886  11.244
92966SOL    HW280796   1.775   6.757  11.173
92967SOL     OW80797  12.775   0.773   7.279
92967SOL    HW180798  12.683   0.780   7.256
92967SOL    HW280799  12.777   0.714   7.354
92968SOL     OW80800   0.173  10.310   7.668
92968SOL    HW180801   0.151  10.221   7.696
92968SOL    HW280802   0.157  10.309   7.573
92969SOL     OW80803   4.622  13.551  12.196
92969SOL    HW180804   4.694  13.601  12.235
92969SOL    HW280805   4.651  13.536  12.105
92970SOL     OW80806  12.613  11.075   3.246
92970SOL    HW180807  12.574  11.143   3.301
92970SOL    HW280808  12.585  11.097   3.157
92971SOL     OW80809  12.721  11.254  12.044
92971SOL    HW180810  12.703  11.197  12.119
92971SOL    HW280811  12.747  11.337  12.083
92972SOL     OW80812   4.017   0.145   7.045
92972SOL    HW180813   3.968   0.065   7.059
92972SOL    HW280814   4.098   0.133   7.095
92973SOL     OW80815  14.852  10.764   7.856
92973SOL    HW180816  14.762  10.768   7.887
92973SOL    HW280817  14.855  10.687   7.800
92974SOL     OW80818   2.595  11.629  14.137
92974SOL    HW180819   2.622  11.711  14.094
92974SOL    HW280820   2.507  11.613  14.103
92975SOL     OW80821  10.396   9.061  12.350
92975SOL    HW180822  10.439   9.141  12.382
92975SOL    HW280823  10.306   9.069  12.381
92976SOL     OW80824   0.988   7.511   6.285
92976SOL    HW180825   1.048   7.472   6.222
92976SOL    HW280826   1.042   7.570   6.337
92977SOL     OW80827   9.091   9.973   2.671
92977SOL    HW180828   9.151  10.017   2.611
92977SOL    HW280829   9.058  10.043   2.728
92978SOL     OW80830  10.094   6.072   5.101
92978SOL    HW180831  10.055   5.999   5.053
92978SOL    HW280832  10.037   6.084   5.177
92979SOL     OW80833   5.863   2.549  12.829
92979SOL    HW180834   5.834   2.593  12.749
92979SOL    HW280835   5.841   2.457  12.815
92980SOL     OW80836  11.438   2.923  12.228
92980SOL    HW180837  11.527   2.942  12.257
92980SOL    HW280838  11.448   2.889  12.139
92981SOL     OW80839   9.171   9.401   2.910
92981SOL    HW180840   9.208   9.378   2.825
92981SOL    HW280841   9.238   9.456   2.951
92982SOL     OW80842   0.541   2.938   8.030
92982SOL    HW180843   0.533   3.023   8.073
92982SOL    HW280844   0.576   2.880   8.098
92983SOL     OW80845  12.571  12.706   6.675
92983SOL    HW180846  12.504  12.692   6.742
92983SOL    HW280847  12.640  12.643   6.696
92984SOL     OW80848   6.286   7.281  12.577
92984SOL    HW180849   6.375   7.261  12.548
92984SOL    HW280850   6.252   7.340  12.510
92985SOL     OW80851  10.338   5.895   2.064
92985SOL    HW180852  10.262   5.838   2.069
92985SOL    HW280853  10.403   5.844   2.017
92986SOL     OW80854   4.749   7.179  10.550
92986SOL    HW180855   4.659   7.211  10.559
92986SOL    HW280856   4.761   7.122  10.625
92987SOL     OW80857   8.081   4.149   1.623
92987SOL    HW180858   8.117   4.169   1.709
92987SOL    HW280859   8.022   4.075   1.638
92988SOL     OW80860   4.845   6.346   2.066
92988SOL    HW180861   4.940   6.339   2.077
92988SOL    HW280862   4.831   6.436   2.039
92989SOL     OW80863  12.628  12.795   0.430
92989SOL    HW180864  12.662  12.860   0.491
92989SOL    HW280865  12.699  12.781   0.367
92990SOL     OW80866   9.836   3.765   1.222
92990SOL    HW180867   9.794   3.758   1.137
92990SOL    HW280868   9.838   3.860   1.240
92991SOL     OW80869   7.225   5.569  11.522
92991SOL    HW180870   7.310   5.595  11.485
92991SOL    HW280871   7.209   5.633  11.591
92992SOL     OW80872   8.280   6.433   5.157
92992SOL    HW180873   8.363   6.424   5.203
92992SOL    HW280874   8.241   6.512   5.193
92993SOL     OW80875   2.654   2.658  12.390
92993SOL    HW180876   2.671   2.691  12.302
92993SOL    HW280877   2.705   2.714  12.448
92994SOL     OW80878  14.745   8.265   6.011
92994SOL    HW180879  14.757   8.318   5.932
92994SOL    HW280880  14.778   8.178   5.986
92995SOL     OW80881   1.287   9.671   5.033
92995SOL    HW180882   1.272   9.671   5.127
92995SOL    HW280883   1.205   9.637   4.996
92996SOL     OW80884   1.788   4.665   8.244
92996SOL    HW180885   1.828   4.580   8.227
92996SOL    HW280886   1.800   4.714   8.162
92997SOL     OW80887  10.571   5.977  12.812
92997SOL    HW180888  10.545   5.957  12.902
92997SOL    HW280889  10.499   5.944  12.758
92998SOL     OW80890  10.363   5.898   3.393
92998SOL    HW180891  10.380   5.952   3.471
92998SOL    HW280892  10.378   5.957   3.319
92999SOL     OW80893   0.249   7.883  14.385
92999SOL    HW180894   0.307   7.820  14.342
92999SOL    HW280895   0.202   7.924  14.312
93000SOL     OW80896  14.728   8.572  11.069
93000SOL    HW180897  14.757   8.482  11.080
93000SOL    HW280898  14.779   8.604  10.994
93001SOL     OW80899   4.158   6.676   2.582
93001SOL    HW180900   4.172   6.770   2.573
93001SOL    HW280901   4.101   6.653   2.509
93002SOL     OW80902  11.184   5.960   8.159
93002SOL    HW180903  11.248   6.027   8.184
93002SOL    HW280904  11.163   5.980   8.068
93003SOL     OW80905  10.404   2.357   7.950
93003SOL    HW180906  10.339   2.389   8.012
93003SOL    HW280907  10.363   2.279   7.911
93004SOL     OW80908  13.328  13.825   6.303
93004SOL    HW180909  13.404  13.772   6.329
93004SOL    HW280910  13.304  13.792   6.217
93005SOL     OW80911  12.861   5.319   2.184
93005SOL    HW180912  12.776   5.276   2.191
93005SOL    HW280913  12.904   5.300   2.268
93006SOL     OW80914   6.022   2.642  13.047
93006SOL    HW180915   5.982   2.577  12.989
93006SOL    HW280916   6.018   2.601  13.134
93007SOL     OW80917   1.834  12.474   3.356
93007SOL    HW180918   1.801  12.394   3.397
93007SOL    HW280919   1.761  12.506   3.303
93008SOL     OW80920  13.485   9.301   0.013
93008SOL    HW180921  13.576   9.277   0.031
93008SOL    HW280922  13.436   9.266   0.088
93009SOL     OW80923  14.724  14.274   3.292
93009SOL    HW180924  14.814  14.241   3.295
93009SOL    HW280925  14.714  14.324   3.374
93010SOL     OW80926   2.807   0.555  14.773
93010SOL    HW180927   2.771   0.480  14.821
93010SOL    HW280928   2.819   0.623  14.840
93011SOL     OW80929  13.428   0.439  13.185
93011SOL    HW180930  13.520   0.462  13.173
93011SOL    HW280931  13.385   0.474  13.107
93012SOL     OW80932   0.036   7.907   8.674
93012SOL    HW180933   0.031   7.873   8.584
93012SOL    HW280934  14.828   7.961   8.684
93013SOL     OW80935   6.196   6.953   2.466
93013SOL    HW180936   6.105   6.957   2.495
93013SOL    HW280937   6.242   6.909   2.538
93014SOL     OW80938   4.959   0.245   8.012
93014SOL    HW180939   4.867   0.270   8.017
93014SOL    HW280940   4.966   0.195   7.931
93015SOL     OW80941   9.535   8.877   1.540
93015SOL    HW180942   9.552   8.836   1.455
93015SOL    HW280943   9.585   8.959   1.538
93016SOL     OW80944  10.429   3.779   1.397
93016SOL    HW180945  10.350   3.833   1.404
93016SOL    HW280946  10.464   3.798   1.310
93017SOL     OW80947   7.476   0.613   7.989
93017SOL    HW180948   7.484   0.524   8.023
93017SOL    HW280949   7.561   0.630   7.947
93018SOL     OW80950   8.970   1.040   7.822
93018SOL    HW180951   8.921   0.984   7.881
93018SOL    HW280952   9.061   1.008   7.827
93019SOL     OW80953   7.153   1.086  11.824
93019SOL    HW180954   7.064   1.122  11.826
93019SOL    HW280955   7.188   1.106  11.910
93020SOL     OW80956   3.767   3.387   1.571
93020SOL    HW180957   3.804   3.421   1.489
93020SOL    HW280958   3.712   3.314   1.544
93021SOL     OW80959   7.298  11.777  12.620
93021SOL    HW180960   7.230  11.798  12.557
93021SOL    HW280961   7.374  11.828  12.592
93022SOL     OW80962  10.708   1.053  14.760
93022SOL    HW180963  10.639   1.111  14.727
93022SOL    HW280964  10.672   1.018  14.842
93023SOL     OW80965   8.644   8.851  10.140
93023SOL    HW180966   8.675   8.940  10.157
93023SOL    HW280967   8.567   8.862  10.084
93024SOL     OW80968   0.470   3.761  14.326
93024SOL    HW180969   0.460   3.669  14.303
93024SOL    HW280970   0.387   3.801  14.299
93025SOL     OW80971   1.980   8.445   1.706
93025SOL    HW180972   1.898   8.410   1.741
93025SOL    HW280973   1.969   8.442   1.611
93026SOL     OW80974   4.073   7.920   3.847
93026SOL    HW180975   4.032   7.836   3.825
93026SOL    HW280976   4.167   7.904   3.838
93027SOL     OW80977   8.362   9.392   8.446
93027SOL    HW180978   8.273   9.368   8.418
93027SOL    HW280979   8.354   9.481   8.480
93028SOL     OW80980   3.952   9.820   4.962
93028SOL    HW180981   3.860   9.795   4.972
93028SOL    HW280982   3.976   9.859   5.046
93029SOL     OW80983   7.496   2.873   4.382
93029SOL    HW180984   7.523   2.952   4.335
93029SOL    HW280985   7.421   2.840   4.333
93030SOL     OW80986   9.708   0.563   3.014
93030SOL    HW180987   9.791   0.601   2.984
93030SOL    HW280988   9.734   0.496   3.076
93031SOL     OW80989   1.647   1.969   8.547
93031SOL    HW180990   1.643   2.062   8.569
93031SOL    HW280991   1.740   1.953   8.528
93032SOL     OW80992  12.694   4.246   2.988
93032SOL    HW180993  12.715   4.262   3.080
93032SOL    HW280994  12.673   4.153   2.984
93033SOL     OW80995   8.919   7.390  11.361
93033SOL    HW180996   8.979   7.426  11.295
93033SOL    HW280997   8.840   7.442  11.352
93034SOL     OW80998   8.206   6.673  13.494
93034SOL    HW180999   8.126   6.670  13.546
93034SOL    HW281000   8.187   6.736  13.425
93035SOL     OW81001   5.077   5.169   0.313
93035SOL    HW181002   5.142   5.168   0.383
93035SOL    HW281003   5.067   5.077   0.288
93036SOL     OW81004   0.491   4.641   2.484
93036SOL    HW181005   0.481   4.565   2.426
93036SOL    HW281006   0.423   4.702   2.455
93037SOL     OW81007   1.417   8.761  13.524
93037SOL    HW181008   1.380   8.792  13.606
93037SOL    HW281009   1.505   8.729  13.548
93038SOL     OW81010   0.984   0.402  13.454
93038SOL    HW181011   0.982   0.420  13.549
93038SOL    HW281012   0.901   0.358  13.436
93039SOL     OW81013   9.509  12.470   2.472
93039SOL    HW181014   9.510  12.376   2.453
93039SOL    HW281015   9.510  12.475   2.568
93040SOL     OW81016  10.659   0.605   2.950
93040SOL    HW181017  10.736   0.554   2.975
93040SOL    HW281018  10.605   0.543   2.900
93041SOL     OW81019   4.417  13.849   7.578
93041SOL    HW181020   4.400  13.785   7.510
93041SOL    HW281021   4.511  13.866   7.572
93042SOL     OW81022   1.839   6.049   4.923
93042SOL    HW181023   1.793   6.069   5.005
93042SOL    HW281024   1.921   6.099   4.930
93043SOL     OW81025   3.013   3.115   0.606
93043SOL    HW181026   3.023   3.028   0.644
93043SOL    HW281027   2.981   3.169   0.677
93044SOL     OW81028  13.347   3.499   4.329
93044SOL    HW181029  13.423   3.540   4.369
93044SOL    HW281030  13.384   3.427   4.276
93045SOL     OW81031  11.431   8.781   4.514
93045SOL    HW181032  11.436   8.688   4.490
93045SOL    HW281033  11.344   8.791   4.552
93046SOL     OW81034   5.427   9.093   2.061
93046SOL    HW181035   5.373   9.097   2.139
93046SOL    HW281036   5.367   9.109   1.988
93047SOL     OW81037  13.494   1.867  10.985
93047SOL    HW181038  13.540   1.907  10.912
93047SOL    HW281039  13.547   1.791  11.008
93048SOL     OW81040   9.176   0.235   1.658
93048SOL    HW181041   9.170   0.319   1.703
93048SOL    HW281042   9.244   0.187   1.705
93049SOL     OW81043  14.497   8.639  13.084
93049SOL    HW181044  14.473   8.649  12.992
93049SOL    HW281045  14.438   8.570  13.117
93050SOL     OW81046   2.655  10.765   3.742
93050SOL    HW181047   2.585  10.825   3.767
93050SOL    HW281048   2.714  10.764   3.818
93051SOL     OW81049   7.604   9.781   0.814
93051SOL    HW181050   7.522   9.735   0.798
93051SOL    HW281051   7.586   9.835   0.892
93052SOL     OW81052   3.557  10.297   3.737
93052SOL    HW181053   3.500  10.298   3.814
93052SOL    HW281054   3.570  10.389   3.715
93053SOL     OW81055   7.849   3.158   7.390
93053SOL    HW181056   7.766   3.197   7.362
93053SOL    HW281057   7.916   3.209   7.344
93054SOL     OW81058  13.849   0.354  11.166
93054SOL    HW181059  13.943   0.340  11.154
93054SOL    HW281060  13.833   0.442  11.133
93055SOL     OW81061   3.513   0.628  10.909
93055SOL    HW181062   3.435   0.573  10.912
93055SOL    HW281063   3.504   0.678  10.828
93056SOL     OW81064  12.455   2.597  10.601
93056SOL    HW181065  12.407   2.659  10.546
93056SOL    HW281066  12.424   2.615  10.690
93057SOL     OW81067  13.433  11.525   8.310
93057SOL    HW181068  13.409  11.522   8.402
93057SOL    HW281069  13.359  11.567   8.267
93058SOL     OW81070   3.845   6.963  12.627
93058SOL    HW181071   3.852   7.016  12.548
93058SOL    HW281072   3.926   6.979  12.674
93059SOL     OW81073   8.896  10.357  10.491
93059SOL    HW181074   8.989  10.370  10.474
93059SOL    HW281075   8.888  10.264  10.511
93060SOL     OW81076   7.231   7.817  13.540
93060SOL    HW181077   7.227   7.903  13.580
93060SOL    HW281078   7.305   7.822  13.479
93061SOL     OW81079   9.726   9.591   9.094
93061SOL    HW181080   9.674   9.542   9.157
93061SOL    HW281081   9.778   9.524   9.049
93062SOL     OW81082  12.755   8.379   1.606
93062SOL    HW181083  12.791   8.457   1.565
93062SOL    HW281084  12.782   8.386   1.698
93063SOL     OW81085   3.795   0.929   7.840
93063SOL    HW181086   3.814   0.928   7.934
93063SOL    HW281087   3.702   0.908   7.834
93064SOL     OW81088  13.837  14.854   5.884
93064SOL    HW181089  13.767   0.013   5.941
93064SOL    HW281090  13.822  14.760   5.871
93065SOL     OW81091  14.245  12.844   4.891
93065SOL    HW181092  14.272  12.788   4.818
93065SOL    HW281093  14.277  12.931   4.868
93066SOL     OW81094   3.746   5.516   5.594
93066SOL    HW181095   3.771   5.449   5.658
93066SOL    HW281096   3.789   5.596   5.625
93067SOL     OW81097   2.984   6.381  11.093
93067SOL    HW181098   3.001   6.394  10.999
93067SOL    HW281099   2.977   6.287  11.103
93068SOL     OW81100  11.307   2.540   5.306
93068SOL    HW181101  11.268   2.558   5.220
93068SOL    HW281102  11.401   2.549   5.292
93069SOL     OW81103  11.542   8.256   7.023
93069SOL    HW181104  11.580   8.178   7.066
93069SOL    HW281105  11.616   8.317   7.016
93070SOL     OW81106   4.409   1.471  11.294
93070SOL    HW181107   4.420   1.378  11.314
93070SOL    HW281108   4.498   1.505  11.285
93071SOL     OW81109   5.235  14.687   8.272
93071SOL    HW181110   5.234  14.724   8.184
93071SOL    HW281111   5.234  14.763   8.331
93072SOL     OW81112  10.326   1.363   8.616
93072SOL    HW181113  10.241   1.393   8.650
93072SOL    HW281114  10.317   1.268   8.610
93073SOL     OW81115  13.089  10.133   1.654
93073SOL    HW181116  13.060  10.221   1.631
93073SOL    HW281117  13.177  10.145   1.690
93074SOL     OW81118   9.518   2.536   7.247
93074SOL    HW181119   9.515   2.604   7.179
93074SOL    HW281120   9.611   2.524   7.264
93075SOL     OW81121   0.600   1.741  10.333
93075SOL    HW181122   0.630   1.832  10.344
93075SOL    HW281123   0.619   1.699  10.416
93076SOL     OW81124   0.986   5.963   9.513
93076SOL    HW181125   1.052   5.942   9.447
93076SOL    HW281126   0.985   6.059   9.517
93077SOL     OW81127   1.731  10.132   5.123
93077SOL    HW181128   1.705  10.079   5.048
93077SOL    HW281129   1.648  10.162   5.161
93078SOL     OW81130  14.346   9.168   6.154
93078SOL    HW181131  14.358   9.231   6.224
93078SOL    HW281132  14.412   9.192   6.088
93079SOL     OW81133   5.418   1.193   8.562
93079SOL    HW181134   5.345   1.177   8.502
93079SOL    HW281135   5.388   1.161   8.647
93080SOL     OW81136   9.659   7.471  11.693
93080SOL    HW181137   9.740   7.420  11.683
93080SOL    HW281138   9.626   7.447  11.780
93081SOL     OW81139   6.937  11.177   6.607
93081SOL    HW181140   6.907  11.198   6.695
93081SOL    HW281141   6.946  11.262   6.564
93082SOL     OW81142   9.037   3.447  10.319
93082SOL    HW181143   8.991   3.500  10.254
93082SOL    HW281144   9.029   3.357  10.287
93083SOL     OW81145   1.425  14.600   2.939
93083SOL    HW181146   1.495  14.629   2.997
93083SOL    HW281147   1.463  14.529   2.888
93084SOL     OW81148   5.945   3.001   2.559
93084SOL    HW181149   5.993   2.981   2.479
93084SOL    HW281150   5.956   2.924   2.614
93085SOL     OW81151   5.844   1.876   8.312
93085SOL    HW181152   5.840   1.944   8.245
93085SOL    HW281153   5.937   1.867   8.331
93086SOL     OW81154  13.121  12.132   7.762
93086SOL    HW181155  13.029  12.127   7.789
93086SOL    HW281156  13.124  12.083   7.680
93087SOL     OW81157   0.321   9.704  13.385
93087SOL    HW181158   0.306   9.612  13.364
93087SOL    HW281159   0.349   9.744  13.302
93088SOL     OW81160   9.442  10.360  10.220
93088SOL    HW181161   9.363  10.386  10.171
93088SOL    HW281162   9.514  10.396  10.169
93089SOL     OW81163  10.457   3.710   8.098
93089SOL    HW181164  10.411   3.793   8.083
93089SOL    HW281165  10.490   3.717   8.188
93090SOL     OW81166   7.023   3.555   9.777
93090SOL    HW181167   6.933   3.557   9.810
93090SOL    HW281168   7.058   3.642   9.798
93091SOL     OW81169  14.335  14.442   1.119
93091SOL    HW181170  14.260  14.417   1.172
93091SOL    HW281171  14.382  14.506   1.174
93092SOL     OW81172  10.206   2.101   0.751
93092SOL    HW181173  10.277   2.040   0.767
93092SOL    HW281174  10.154   2.099   0.831
93093SOL     OW81175   1.825  10.085   9.096
93093SOL    HW181176   1.758  10.132   9.047
93093SOL    HW281177   1.906  10.132   9.075
93094SOL     OW81178   0.937   3.167  12.295
93094SOL    HW181179   0.946   3.242  12.354
93094SOL    HW281180   0.861   3.119  12.330
93095SOL     OW81181   7.788   5.553  12.742
93095SOL    HW181182   7.765   5.488  12.808
93095SOL    HW281183   7.862   5.600  12.779
93096SOL     OW81184   4.783  13.111  12.028
93096SOL    HW181185   4.761  13.179  11.965
93096SOL    HW281186   4.865  13.140  12.067
93097SOL     OW81187  11.628  13.064  11.411
93097SOL    HW181188  11.548  13.078  11.361
93097SOL    HW281189  11.620  12.974  11.444
93098SOL     OW81190   2.079  14.574   3.303
93098SOL    HW181191   2.035  14.612   3.379
93098SOL    HW281192   2.171  14.598   3.313
93099SOL     OW81193   1.968  10.598   9.411
93099SOL    HW181194   2.001  10.530   9.352
93099SOL    HW281195   1.913  10.550   9.473
93100SOL     OW81196  13.701   4.197   5.783
93100SOL    HW181197  13.650   4.139   5.726
93100SOL    HW281198  13.724   4.142   5.858
93101SOL     OW81199  11.310   1.249  14.190
93101SOL    HW181200  11.245   1.195  14.235
93101SOL    HW281201  11.304   1.222  14.099
93102SOL     OW81202  11.090   0.946   7.844
93102SOL    HW181203  11.021   0.985   7.898
93102SOL    HW281204  11.131   0.881   7.901
93103SOL     OW81205   5.432  13.857   9.285
93103SOL    HW181206   5.427  13.861   9.189
93103SOL    HW281207   5.341  13.860   9.313
93104SOL     OW81208   4.604   4.255  14.051
93104SOL    HW181209   4.672   4.321  14.039
93104SOL    HW281210   4.647   4.172  14.032
93105SOL     OW81211   6.353  13.558  11.693
93105SOL    HW181212   6.337  13.488  11.630
93105SOL    HW281213   6.267  13.578  11.730
93106SOL     OW81214   4.176   1.530   3.701
93106SOL    HW181215   4.247   1.487   3.748
93106SOL    HW281216   4.217   1.602   3.654
93107SOL     OW81217   3.505   8.778   5.441
93107SOL    HW181218   3.460   8.705   5.399
93107SOL    HW281219   3.510   8.753   5.533
93108SOL     OW81220  12.487   0.159   5.216
93108SOL    HW181221  12.570   0.124   5.248
93108SOL    HW281222  12.501   0.170   5.121
93109SOL     OW81223   5.169  10.237  13.057
93109SOL    HW181224   5.159  10.157  13.109
93109SOL    HW281225   5.262  10.241  13.036
93110SOL     OW81226  10.664  14.392  14.061
93110SOL    HW181227  10.639  14.328  14.128
93110SOL    HW281228  10.608  14.468  14.079
93111SOL     OW81229   2.057   7.661   1.669
93111SOL    HW181230   2.042   7.608   1.591
93111SOL    HW281231   2.144   7.698   1.658
93112SOL     OW81232   7.413   3.127   1.317
93112SOL    HW181233   7.346   3.195   1.310
93112SOL    HW281234   7.364   3.045   1.309
93113SOL     OW81235  14.676  10.147  13.720
93113SOL    HW181236  14.656  10.205  13.793
93113SOL    HW281237  14.623  10.181  13.647
93114SOL     OW81238   7.159   6.184   9.244
93114SOL    HW181239   7.249   6.197   9.212
93114SOL    HW281240   7.120   6.271   9.243
93115SOL     OW81241   0.706   7.994   0.913
93115SOL    HW181242   0.662   7.971   0.830
93115SOL    HW281243   0.751   8.076   0.894
93116SOL     OW81244   6.573  10.980   9.038
93116SOL    HW181245   6.587  10.896   8.995
93116SOL    HW281246   6.586  11.045   8.969
93117SOL     OW81247   1.757   3.447   1.885
93117SOL    HW181248   1.824   3.515   1.883
93117SOL    HW281249   1.805   3.366   1.902
93118SOL     OW81250   0.325  10.399   9.784
93118SOL    HW181251   0.290  10.488   9.791
93118SOL    HW281252   0.420  10.411   9.783
93119SOL     OW81253   5.037  14.133  14.545
93119SOL    HW181254   4.964  14.125  14.607
93119SOL    HW281255   5.106  14.078  14.582
93120SOL     OW81256   2.019   9.511   4.478
93120SOL    HW181257   2.044   9.452   4.549
93120SOL    HW281258   2.035   9.598   4.512
93121SOL     OW81259  13.756   8.322  12.217
93121SOL    HW181260  13.729   8.383  12.285
93121SOL    HW281261  13.681   8.317  12.158
93122SOL     OW81262   6.561   7.008   8.014
93122SOL    HW181263   6.513   7.086   7.987
93122SOL    HW281264   6.518   6.936   7.968
93123SOL     OW81265  13.852  11.010  12.485
93123SOL    HW181266  13.781  11.075  12.486
93123SOL    HW281267  13.816  10.934  12.529
93124SOL     OW81268  12.407  10.816  13.396
93124SOL    HW181269  12.492  10.790  13.360
93124SOL    HW281270  12.424  10.901  13.437
93125SOL     OW81271  14.766   2.900   1.324
93125SOL    HW181272  14.839   2.868   1.272
93125SOL    HW281273  14.771   2.850   1.406
93126SOL     OW81274   8.842   8.328   5.281
93126SOL    HW181275   8.867   8.239   5.307
93126SOL    HW281276   8.747   8.323   5.271
93127SOL     OW81277  14.056   9.566   5.823
93127SOL    HW181278  14.070   9.551   5.730
93127SOL    HW281279  14.060   9.661   5.833
93128SOL     OW81280   9.605  12.456   0.344
93128SOL    HW181281   9.522  12.489   0.310
93128SOL    HW281282   9.666  12.529   0.333
93129SOL     OW81283   0.125  13.537   4.813
93129SOL    HW181284   0.160  13.450   4.796
93129SOL    HW281285   0.201  13.595   4.814
93130SOL     OW81286   6.228   5.390   0.908
93130SOL    HW181287   6.180   5.308   0.918
93130SOL    HW281288   6.172   5.456   0.948
93131SOL     OW81289   1.545  14.534  12.902
93131SOL    HW181290   1.486  14.558  12.830
93131SOL    HW281291   1.631  14.524  12.860
93132SOL     OW81292   5.268   8.819   2.085
93132SOL    HW181293   5.223   8.839   2.167
93132SOL    HW281294   5.355   8.859   2.095
93133SOL     OW81295   2.045  10.203  12.680
93133SOL    HW181296   2.016  10.173  12.594
93133SOL    HW281297   2.130  10.161  12.693
93134SOL     OW81298   0.057   8.471   2.489
93134SOL    HW181299  14.838   8.435   2.489
93134SOL    HW281300   0.059   8.530   2.564
93135SOL     OW81301   9.495   2.857   6.781
93135SOL    HW181302   9.466   2.940   6.819
93135SOL    HW281303   9.443   2.848   6.701
93136SOL     OW81304  10.828   9.690   4.042
93136SOL    HW181305  10.809   9.709   4.134
93136SOL    HW281306  10.923   9.701   4.033
93137SOL     OW81307  12.415   1.752   4.691
93137SOL    HW181308  12.341   1.813   4.687
93137SOL    HW281309  12.453   1.754   4.603
93138SOL     OW81310  11.712   1.316  10.476
93138SOL    HW181311  11.792   1.357  10.443
93138SOL    HW281312  11.641   1.367  10.437
93139SOL     OW81313   7.689  10.930  12.859
93139SOL    HW181314   7.610  10.930  12.804
93139SOL    HW281315   7.727  10.844  12.845
93140SOL     OW81316   5.556  10.112   5.155
93140SOL    HW181317   5.504  10.126   5.234
93140SOL    HW281318   5.546  10.193   5.105
93141SOL     OW81319   3.365  11.658   7.982
93141SOL    HW181320   3.372  11.751   8.005
93141SOL    HW281321   3.417  11.613   8.049
93142SOL     OW81322   8.642   0.687   1.000
93142SOL    HW181323   8.712   0.629   0.968
93142SOL    HW281324   8.677   0.775   0.990
93143SOL     OW81325  13.863   4.420   5.807
93143SOL    HW181326  13.868   4.326   5.825
93143SOL    HW281327  13.864   4.462   5.893
93144SOL     OW81328   6.591   2.402   1.444
93144SOL    HW181329   6.547   2.342   1.504
93144SOL    HW281330   6.619   2.347   1.371
93145SOL     OW81331  14.312  11.400  11.789
93145SOL    HW181332  14.239  11.352  11.751
93145SOL    HW281333  14.384  11.388  11.727
93146SOL     OW81334   3.352   4.508   1.629
93146SOL    HW181335   3.346   4.440   1.696
93146SOL    HW281336   3.416   4.474   1.566
93147SOL     OW81337  13.320   7.165  12.262
93147SOL    HW181338  13.225   7.167  12.276
93147SOL    HW281339  13.348   7.083  12.303
93148SOL     OW81340   3.575  14.275  14.008
93148SOL    HW181341   3.640  14.314  14.067
93148SOL    HW281342   3.626  14.231  13.941
93149SOL     OW81343   6.875  10.786   4.002
93149SOL    HW181344   6.878  10.831   4.087
93149SOL    HW281345   6.954  10.733   4.000
93150SOL     OW81346   3.797   8.982   3.938
93150SOL    HW181347   3.732   8.959   4.005
93150SOL    HW281348   3.848   8.902   3.925
93151SOL     OW81349  13.010   4.034   9.503
93151SOL    HW181350  13.072   4.107   9.495
93151SOL    HW281351  13.037   3.971   9.436
93152SOL     OW81352  11.344   6.642   5.050
93152SOL    HW181353  11.320   6.652   5.143
93152SOL    HW281354  11.401   6.717   5.033
93153SOL     OW81355   5.994  12.855   4.073
93153SOL    HW181356   6.079  12.812   4.079
93153SOL    HW281357   5.999  12.927   4.136
93154SOL     OW81358   7.159   6.114   6.964
93154SOL    HW181359   7.074   6.096   6.923
93154SOL    HW281360   7.202   6.174   6.903
93155SOL     OW81361  14.029   3.021   9.958
93155SOL    HW181362  13.991   2.956   9.899
93155SOL    HW281363  14.116   2.987   9.978
93156SOL     OW81364   8.677   5.102   0.160
93156SOL    HW181365   8.709   5.066   0.077
93156SOL    HW281366   8.704   5.038   0.226
93157SOL     OW81367  14.433   0.352   1.478
93157SOL    HW181368  14.379   0.284   1.518
93157SOL    HW281369  14.521   0.314   1.475
93158SOL     OW81370  11.090   9.956   3.189
93158SOL    HW181371  11.063  10.000   3.108
93158SOL    HW281372  11.024   9.888   3.202
93159SOL     OW81373   1.854  10.664   7.087
93159SOL    HW181374   1.839  10.758   7.074
93159SOL    HW281375   1.817  10.646   7.174
93160SOL     OW81376   3.270   8.197   9.396
93160SOL    HW181377   3.284   8.290   9.379
93160SOL    HW281378   3.256   8.191   9.490
93161SOL     OW81379   5.379   0.004  14.114
93161SOL    HW181380   5.370   0.079  14.055
93161SOL    HW281381   5.313   0.018  14.182
93162SOL     OW81382   8.788   1.206   9.643
93162SOL    HW181383   8.772   1.230   9.734
93162SOL    HW281384   8.856   1.268   9.614
93163SOL     OW81385   8.439   2.832   0.591
93163SOL    HW181386   8.387   2.911   0.579
93163SOL    HW281387   8.508   2.839   0.525
93164SOL     OW81388   5.194  13.951  10.061
93164SOL    HW181389   5.185  13.923  10.153
93164SOL    HW281390   5.230  13.875  10.016
93165SOL     OW81391  13.634  14.269   3.136
93165SOL    HW181392  13.683  14.203   3.185
93165SOL    HW281393  13.701  14.327   3.100
93166SOL     OW81394   9.702  10.473   7.547
93166SOL    HW181395   9.757  10.396   7.531
93166SOL    HW281396   9.714  10.491   7.640
93167SOL     OW81397   7.088   9.014   2.812
93167SOL    HW181398   7.082   9.028   2.718
93167SOL    HW281399   7.167   9.060   2.838
93168SOL     OW81400  11.598  10.548   6.217
93168SOL    HW181401  11.579  10.455   6.232
93168SOL    HW281402  11.680  10.548   6.167
93169SOL     OW81403   5.720   2.188  13.485
93169SOL    HW181404   5.805   2.194  13.441
93169SOL    HW281405   5.668   2.130  13.430
93170SOL     OW81406   3.319   9.205   6.977
93170SOL    HW181407   3.238   9.248   7.004
93170SOL    HW281408   3.376   9.210   7.054
93171SOL     OW81409   3.847   2.318   4.438
93171SOL    HW181410   3.793   2.291   4.512
93171SOL    HW281411   3.786   2.323   4.364
93172SOL     OW81412   5.685  11.897  12.278
93172SOL    HW181413   5.715  11.842  12.350
93172SOL    HW281414   5.639  11.837  12.219
93173SOL     OW81415   9.664  12.356   8.276
93173SOL    HW181416   9.689  12.317   8.193
93173SOL    HW281417   9.735  12.332   8.336
93174SOL     OW81418  10.699   0.031   0.439
93174SOL    HW181419  10.774   0.085   0.415
93174SOL    HW281420  10.676  14.853   0.359
93175SOL     OW81421  10.345   8.566   9.177
93175SOL    HW181422  10.341   8.600   9.088
93175SOL    HW281423  10.332   8.472   9.168
93176SOL     OW81424   6.657  14.103   4.203
93176SOL    HW181425   6.676  14.078   4.113
93176SOL    HW281426   6.680  14.195   4.208
93177SOL     OW81427  11.521   0.561   7.119
93177SOL    HW181428  11.534   0.650   7.154
93177SOL    HW281429  11.609   0.524   7.114
93178SOL     OW81430   4.184   6.377   9.353
93178SOL    HW181431   4.252   6.377   9.420
93178SOL    HW281432   4.195   6.460   9.308
93179SOL     OW81433  11.473  10.813   6.563
93179SOL    HW181434  11.440  10.759   6.491
93179SOL    HW281435  11.411  10.797   6.635
93180SOL     OW81436   2.761   9.421   2.112
93180SOL    HW181437   2.707   9.373   2.174
93180SOL    HW281438   2.734   9.388   2.026
93181SOL     OW81439   9.976   0.093  11.972
93181SOL    HW181440   9.922   0.059  12.044
93181SOL    HW281441  10.066   0.080  12.001
93182SOL     OW81442   2.078  11.821   3.479
93182SOL    HW181443   2.000  11.832   3.534
93182SOL    HW281444   2.047  11.843   3.391
93183SOL     OW81445   8.818   9.450   5.571
93183SOL    HW181446   8.855   9.410   5.650
93183SOL    HW281447   8.830   9.544   5.584
93184SOL     OW81448  10.288  13.033  12.147
93184SOL    HW181449  10.318  12.954  12.102
93184SOL    HW281450  10.218  13.067  12.090
93185SOL     OW81451  11.945   6.762  10.657
93185SOL    HW181452  11.905   6.685  10.698
93185SOL    HW281453  11.909   6.763  10.568
93186SOL     OW81454   7.985  14.084  12.132
93186SOL    HW181455   8.022  14.100  12.046
93186SOL    HW281456   7.974  13.989  12.136
93187SOL     OW81457  12.848  13.426   9.157
93187SOL    HW181458  12.775  13.461   9.105
93187SOL    HW281459  12.926  13.446   9.105
93188SOL     OW81460   7.831   1.729  13.956
93188SOL    HW181461   7.873   1.787  13.893
93188SOL    HW281462   7.738   1.732  13.933
93189SOL     OW81463  11.172   1.624   9.959
93189SOL    HW181464  11.131   1.543   9.930
93189SOL    HW281465  11.254   1.596   9.999
93190SOL     OW81466   2.315   8.468   1.913
93190SOL    HW181467   2.229   8.502   1.935
93190SOL    HW281468   2.298   8.384   1.871
93191SOL     OW81469  10.113  10.628  13.580
93191SOL    HW181470  10.175  10.584  13.522
93191SOL    HW281471  10.163  10.643  13.661
93192SOL     OW81472   5.640   1.359  10.638
93192SOL    HW181473   5.722   1.313  10.618
93192SOL    HW281474   5.632   1.425  10.570
93193SOL     OW81475   8.097  10.304   9.320
93193SOL    HW181476   8.007  10.337   9.315
93193SOL    HW281477   8.095  10.223   9.269
93194SOL     OW81478   6.339  10.523   5.759
93194SOL    HW181479   6.303  10.611   5.766
93194SOL    HW281480   6.304  10.475   5.834
93195SOL     OW81481   6.907  12.042   3.523
93195SOL    HW181482   6.881  12.008   3.609
93195SOL    HW281483   6.935  12.132   3.541
93196SOL     OW81484   4.676  10.910  12.165
93196SOL    HW181485   4.741  10.935  12.232
93196SOL    HW281486   4.601  10.967  12.183
93197SOL     OW81487  10.458  11.102   2.701
93197SOL    HW181488  10.438  11.028   2.645
93197SOL    HW281489  10.543  11.080   2.740
93198SOL     OW81490  13.263   5.564   5.187
93198SOL    HW181491  13.332   5.626   5.208
93198SOL    HW281492  13.272   5.494   5.252
93199SOL     OW81493   0.448   7.912   8.372
93199SOL    HW181494   0.498   7.978   8.324
93199SOL    HW281495   0.371   7.959   8.404
93200SOL     OW81496  14.170   8.605  13.771
93200SOL    HW181497  14.210   8.526  13.736
93200SOL    HW281498  14.102   8.628  13.708
93201SOL     OW81499  11.860   2.015   6.171
93201SOL    HW181500  11.767   1.993   6.159
93201SOL    HW281501  11.903   1.930   6.179
93202SOL     OW81502  13.251  11.170   9.810
93202SOL    HW181503  13.181  11.116   9.774
93202SOL    HW281504  13.208  11.254   9.829
93203SOL     OW81505   7.417   5.785   8.675
93203SOL    HW181506   7.328   5.770   8.644
93203SOL    HW281507   7.431   5.718   8.742
93204SOL     OW81508   2.195   4.083  14.648
93204SOL    HW181509   2.173   4.159  14.703
93204SOL    HW281510   2.127   4.019  14.668
93205SOL     OW81511   4.051  11.162  14.478
93205SOL    HW181512   4.029  11.101  14.548
93205SOL    HW281513   4.046  11.249  14.519
93206SOL     OW81514   9.574  14.630   3.715
93206SOL    HW181515   9.611  14.719   3.710
93206SOL    HW281516   9.588  14.604   3.806
93207SOL     OW81517   9.165   4.804  14.239
93207SOL    HW181518   9.083   4.849  14.258
93207SOL    HW281519   9.183   4.825  14.147
93208SOL     OW81520  14.575   1.265   8.676
93208SOL    HW181521  14.541   1.176   8.684
93208SOL    HW281522  14.509   1.319   8.721
93209SOL     OW81523   6.210  10.759  12.124
93209SOL    HW181524   6.115  10.768  12.119
93209SOL    HW281525   6.229  10.679  12.074
93210SOL     OW81526  11.497   8.364   9.383
93210SOL    HW181527  11.487   8.456   9.357
93210SOL    HW281528  11.568   8.332   9.328
93211SOL     OW81529   3.333   2.629   2.948
93211SOL    HW181530   3.277   2.553   2.933
93211SOL    HW281531   3.370   2.650   2.862
93212SOL     OW81532  10.957   0.319  10.031
93212SOL    HW181533  11.027   0.260  10.003
93212SOL    HW281534  10.974   0.334  10.124
93213SOL     OW81535  13.784   8.352   3.524
93213SOL    HW181536  13.776   8.257   3.534
93213SOL    HW281537  13.702   8.379   3.485
93214SOL     OW81538   9.068  12.583  13.012
93214SOL    HW181539   9.006  12.611  12.945
93214SOL    HW281540   9.044  12.493  13.032
93215SOL     OW81541   9.228   1.974   9.250
93215SOL    HW181542   9.141   2.013   9.238
93215SOL    HW281543   9.286   2.028   9.197
93216SOL     OW81544   8.417   6.927  12.420
93216SOL    HW181545   8.450   6.840  12.441
93216SOL    HW281546   8.479   6.962  12.356
93217SOL     OW81547   1.411  13.629   1.777
93217SOL    HW181548   1.413  13.660   1.868
93217SOL    HW281549   1.501  13.638   1.747
93218SOL     OW81550   5.175  11.399   4.690
93218SOL    HW181551   5.194  11.455   4.765
93218SOL    HW281552   5.087  11.365   4.707
93219SOL     OW81553   2.659  13.454   4.257
93219SOL    HW181554   2.741  13.410   4.235
93219SOL    HW281555   2.591  13.393   4.228
93220SOL     OW81556   4.095   3.443   9.225
93220SOL    HW181557   4.102   3.468   9.317
93220SOL    HW281558   4.016   3.488   9.195
93221SOL     OW81559   6.913   3.125   9.349
93221SOL    HW181560   6.928   3.220   9.342
93221SOL    HW281561   6.903   3.096   9.258
93222SOL     OW81562   1.436   9.748  12.887
93222SOL    HW181563   1.518   9.702  12.908
93222SOL    HW281564   1.424   9.731  12.793
93223SOL     OW81565   7.225  10.676   8.917
93223SOL    HW181566   7.239  10.584   8.937
93223SOL    HW281567   7.250  10.685   8.825
93224SOL     OW81568   3.306   0.464   4.221
93224SOL    HW181569   3.356   0.390   4.186
93224SOL    HW281570   3.327   0.537   4.164
93225SOL     OW81571  11.063   5.593   1.250
93225SOL    HW181572  11.124   5.567   1.182
93225SOL    HW281573  10.976   5.579   1.211
93226SOL     OW81574   3.410  10.156   7.470
93226SOL    HW181575   3.347  10.089   7.497
93226SOL    HW281576   3.454  10.117   7.394
93227SOL     OW81577   1.765   1.366   7.212
93227SOL    HW181578   1.721   1.386   7.129
93227SOL    HW281579   1.803   1.280   7.199
93228SOL     OW81580   7.341   4.372   1.440
93228SOL    HW181581   7.284   4.314   1.390
93228SOL    HW281582   7.390   4.314   1.499
93229SOL     OW81583   3.250   6.585   3.057
93229SOL    HW181584   3.334   6.542   3.070
93229SOL    HW281585   3.196   6.520   3.012
93230SOL     OW81586   5.169   9.946   0.701
93230SOL    HW181587   5.079   9.914   0.706
93230SOL    HW281588   5.188   9.948   0.607
93231SOL     OW81589   9.705  12.819   9.588
93231SOL    HW181590   9.735  12.901   9.628
93231SOL    HW281591   9.610  12.823   9.592
93232SOL     OW81592   7.910  12.645  13.073
93232SOL    HW181593   7.942  12.732  13.048
93232SOL    HW281594   7.817  12.658  13.090
93233SOL     OW81595  13.101   8.639  11.153
93233SOL    HW181596  13.018   8.598  11.127
93233SOL    HW281597  13.135   8.678  11.073
93234SOL     OW81598   5.349  13.761   2.296
93234SOL    HW181599   5.382  13.797   2.214
93234SOL    HW281600   5.325  13.671   2.275
93235SOL     OW81601   4.716   0.373  12.201
93235SOL    HW181602   4.761   0.453  12.176
93235SOL    HW281603   4.683   0.336  12.119
93236SOL     OW81604   9.051   2.310  10.592
93236SOL    HW181605   9.026   2.227  10.632
93236SOL    HW281606   9.096   2.285  10.511
93237SOL     OW81607   0.023  11.527  11.573
93237SOL    HW181608   0.023  11.431  11.573
93237SOL    HW281609   0.116  11.551  11.576
93238SOL     OW81610   2.732   7.327   3.376
93238SOL    HW181611   2.710   7.234   3.369
93238SOL    HW281612   2.707   7.351   3.465
93239SOL     OW81613  13.497   0.045   0.492
93239SOL    HW181614  13.488   0.133   0.453
93239SOL    HW281615  13.540   0.061   0.576
93240SOL     OW81616   6.198  14.252  13.155
93240SOL    HW181617   6.144  14.331  13.161
93240SOL    HW281618   6.276  14.273  13.207
93241SOL     OW81619  10.401   8.988   2.860
93241SOL    HW181620  10.398   8.944   2.945
93241SOL    HW281621  10.375   8.920   2.797
93242SOL     OW81622  14.387   9.177  10.305
93242SOL    HW181623  14.472   9.175  10.261
93242SOL    HW281624  14.366   9.085  10.321
93243SOL     OW81625   3.965   9.467   1.783
93243SOL    HW181626   3.942   9.444   1.693
93243SOL    HW281627   3.939   9.558   1.792
93244SOL     OW81628   0.117  14.520   9.098
93244SOL    HW181629   0.127  14.425   9.099
93244SOL    HW281630   0.150  14.547   9.012
93245SOL     OW81631  14.086  10.804  14.475
93245SOL    HW181632  14.031  10.822  14.399
93245SOL    HW281633  14.024  10.775  14.542
93246SOL     OW81634   7.007  11.501   5.484
93246SOL    HW181635   7.052  11.456   5.555
93246SOL    HW281636   6.966  11.577   5.526
93247SOL     OW81637   1.040   5.698  10.368
93247SOL    HW181638   1.028   5.610  10.332
93247SOL    HW281639   0.971   5.750  10.328
93248SOL     OW81640  10.355   8.831  13.553
93248SOL    HW181641  10.446   8.805  13.570
93248SOL    HW281642  10.303   8.770  13.605
93249SOL     OW81643  10.095   3.208   4.576
93249SOL    HW181644  10.047   3.230   4.496
93249SOL    HW281645  10.155   3.138   4.550
93250SOL     OW81646  11.957   8.957   4.226
93250SOL    HW181647  11.880   8.996   4.267
93250SOL    HW281648  11.939   8.961   4.132
93251SOL     OW81649   4.185  11.507   3.903
93251SOL    HW181650   4.175  11.413   3.913
93251SOL    HW281651   4.253  11.531   3.966
93252SOL     OW81652   6.270  13.398   5.801
93252SOL    HW181653   6.303  13.474   5.752
93252SOL    HW281654   6.196  13.432   5.851
93253SOL     OW81655   0.263   8.000   3.672
93253SOL    HW181656   0.294   7.929   3.727
93253SOL    HW281657   0.338   8.060   3.666
93254SOL     OW81658   6.480   0.329   8.568
93254SOL    HW181659   6.405   0.336   8.509
93254SOL    HW281660   6.457   0.258   8.628
93255SOL     OW81661   9.405   3.189   0.456
93255SOL    HW181662   9.375   3.262   0.510
93255SOL    HW281663   9.477   3.151   0.506
93256SOL     OW81664  11.670   9.889   7.579
93256SOL    HW181665  11.645   9.979   7.557
93256SOL    HW281666  11.684   9.847   7.494
93257SOL     OW81667  14.265   2.851   2.789
93257SOL    HW181668  14.232   2.888   2.870
93257SOL    HW281669  14.347   2.808   2.814
93258SOL     OW81670   4.852  14.085   6.698
93258SOL    HW181671   4.897  14.001   6.702
93258SOL    HW281672   4.899  14.142   6.759
93259SOL     OW81673  13.831   0.054   4.170
93259SOL    HW181674  13.777   0.011   4.236
93259SOL    HW281675  13.919   0.019   4.184
93260SOL     OW81676   8.255  13.768  14.123
93260SOL    HW181677   8.254  13.793  14.030
93260SOL    HW281678   8.316  13.694  14.127
93261SOL     OW81679   6.976   1.796   1.173
93261SOL    HW181680   6.967   1.704   1.199
93261SOL    HW281681   6.887   1.823   1.151
93262SOL     OW81682  10.067   2.589   3.358
93262SOL    HW181683   9.976   2.591   3.386
93262SOL    HW281684  10.117   2.610   3.437
93263SOL     OW81685   9.080   2.343   1.593
93263SOL    HW181686   9.010   2.392   1.636
93263SOL    HW281687   9.150   2.407   1.580
93264SOL     OW81688   7.998   3.827  14.532
93264SOL    HW181689   7.971   3.919  14.535
93264SOL    HW281690   7.932   3.781  14.586
93265SOL     OW81691   8.609   2.339   8.014
93265SOL    HW181692   8.609   2.375   8.102
93265SOL    HW281693   8.638   2.248   8.026
93266SOL     OW81694   2.553  13.370   3.464
93266SOL    HW181695   2.608  13.438   3.425
93266SOL    HW281696   2.465  13.390   3.432
93267SOL     OW81697   8.308   9.343   5.872
93267SOL    HW181698   8.331   9.436   5.863
93267SOL    HW281699   8.233   9.332   5.814
93268SOL     OW81700   5.304  14.226   0.331
93268SOL    HW181701   5.358  14.152   0.360
93268SOL    HW281702   5.250  14.247   0.407
93269SOL     OW81703   0.916   9.018   3.751
93269SOL    HW181704   0.932   9.088   3.687
93269SOL    HW281705   0.958   8.941   3.713
93270SOL     OW81706   9.833   0.008   8.900
93270SOL    HW181707   9.810   0.064   8.974
93270SOL    HW281708   9.922  14.848   8.919
93271SOL     OW81709   3.862   3.966  12.944
93271SOL    HW181710   3.877   3.887  12.893
93271SOL    HW281711   3.905   3.950  13.028
93272SOL     OW81712   7.544   2.325  14.106
93272SOL    HW181713   7.621   2.269  14.118
93272SOL    HW281714   7.470   2.267  14.125
93273SOL     OW81715   6.254   1.297   2.511
93273SOL    HW181716   6.345   1.284   2.487
93273SOL    HW281717   6.211   1.324   2.430
93274SOL     OW81718  10.859  12.716  12.245
93274SOL    HW181719  10.889  12.646  12.187
93274SOL    HW281720  10.764  12.714  12.237
93275SOL     OW81721   8.451  14.800   3.373
93275SOL    HW181722   8.431  14.858   3.447
93275SOL    HW281723   8.370  14.752   3.358
93276SOL     OW81724   1.859  13.313  12.269
93276SOL    HW181725   1.839  13.406  12.274
93276SOL    HW281726   1.955  13.309  12.272
93277SOL     OW81727   7.260  12.488   1.153
93277SOL    HW181728   7.191  12.512   1.215
93277SOL    HW281729   7.308  12.569   1.137
93278SOL     OW81730   8.202  13.841   1.558
93278SOL    HW181731   8.225  13.811   1.470
93278SOL    HW281732   8.256  13.788   1.617
93279SOL     OW81733  12.050   7.599   6.528
93279SOL    HW181734  12.009   7.550   6.456
93279SOL    HW281735  12.033   7.691   6.508
93280SOL     OW81736   3.904   8.543   2.945
93280SOL    HW181737   3.985   8.588   2.921
93280SOL    HW281738   3.837   8.612   2.943
93281SOL     OW81739   8.193   2.985   8.983
93281SOL    HW181740   8.151   2.909   9.023
93281SOL    HW281741   8.223   2.954   8.897
93282SOL     OW81742   5.935   6.795   7.654
93282SOL    HW181743   5.916   6.716   7.603
93282SOL    HW281744   5.850   6.821   7.689
93283SOL     OW81745   9.876   3.193   4.732
93283SOL    HW181746   9.957   3.200   4.683
93283SOL    HW281747   9.816   3.147   4.674
93284SOL     OW81748  10.998   0.936   5.823
93284SOL    HW181749  11.001   1.008   5.760
93284SOL    HW281750  10.932   0.963   5.887
93285SOL     OW81751  10.501   5.237   0.925
93285SOL    HW181752  10.459   5.160   0.963
93285SOL    HW281753  10.434   5.275   0.867
93286SOL     OW81754   3.870   0.982   0.933
93286SOL    HW181755   3.922   1.062   0.943
93286SOL    HW281756   3.847   0.981   0.840
93287SOL     OW81757  14.570   0.632   4.409
93287SOL    HW181758  14.506   0.564   4.428
93287SOL    HW281759  14.633   0.589   4.351
93288SOL     OW81760   0.126   1.137   8.862
93288SOL    HW181761   0.098   1.113   8.950
93288SOL    HW281762   0.132   1.233   8.864
93289SOL     OW81763  10.198  13.894  13.664
93289SOL    HW181764  10.153  13.868  13.584
93289SOL    HW281765  10.205  13.989  13.658
93290SOL     OW81766   9.433   9.034   8.010
93290SOL    HW181767   9.502   9.011   7.948
93290SOL    HW281768   9.353   8.996   7.973
93291SOL     OW81769   7.892   9.820   0.774
93291SOL    HW181770   7.801   9.791   0.787
93291SOL    HW281771   7.931   9.752   0.720
93292SOL     OW81772   3.343   5.109  11.886
93292SOL    HW181773   3.302   5.052  11.821
93292SOL    HW281774   3.336   5.197  11.850
93293SOL     OW81775   7.127  11.504  13.318
93293SOL    HW181776   7.161  11.581  13.365
93293SOL    HW281777   7.141  11.524  13.226
93294SOL     OW81778  12.850   1.862   8.441
93294SOL    HW181779  12.853   1.898   8.530
93294SOL    HW281780  12.758   1.840   8.428
93295SOL     OW81781   8.499   6.791   7.349
93295SOL    HW181782   8.519   6.733   7.423
93295SOL    HW281783   8.428   6.747   7.302
93296SOL     OW81784   9.570   8.948   5.700
93296SOL    HW181785   9.624   8.875   5.733
93296SOL    HW281786   9.503   8.905   5.647
93297SOL     OW81787   2.556   1.794  12.061
93297SOL    HW181788   2.490   1.769  11.996
93297SOL    HW281789   2.543   1.888  12.074
93298SOL     OW81790   0.158  10.032   8.741
93298SOL    HW181791   0.143   9.938   8.741
93298SOL    HW281792   0.145  10.059   8.832
93299SOL     OW81793   3.337  14.548   7.903
93299SOL    HW181794   3.431  14.569   7.899
93299SOL    HW281795   3.332  14.457   7.875
93300SOL     OW81796   0.670   3.859   6.418
93300SOL    HW181797   0.651   3.923   6.349
93300SOL    HW281798   0.603   3.792   6.408
93301SOL     OW81799   8.088   1.651   0.074
93301SOL    HW181800   8.049   1.593   0.139
93301SOL    HW281801   8.037   1.636  14.865
93302SOL     OW81802   6.443   6.434   9.005
93302SOL    HW181803   6.520   6.422   9.060
93302SOL    HW281804   6.477   6.430   8.915
93303SOL     OW81805   4.342   8.157  10.777
93303SOL    HW181806   4.390   8.179  10.856
93303SOL    HW281807   4.396   8.191  10.706
93304SOL     OW81808  10.274   5.272   7.685
93304SOL    HW181809  10.338   5.237   7.623
93304SOL    HW281810  10.265   5.364   7.661
93305SOL     OW81811   8.184   5.768   6.913
93305SOL    HW181812   8.115   5.731   6.859
93305SOL    HW281813   8.238   5.692   6.938
93306SOL     OW81814   9.931   7.494   5.971
93306SOL    HW181815   9.923   7.399   5.965
93306SOL    HW281816   9.841   7.525   5.978
93307SOL     OW81817   2.773   7.699   5.672
93307SOL    HW181818   2.745   7.622   5.720
93307SOL    HW281819   2.796   7.763   5.740
93308SOL     OW81820   2.125   3.063   1.145
93308SOL    HW181821   2.034   3.055   1.117
93308SOL    HW281822   2.164   2.978   1.123
93309SOL     OW81823   4.637  14.475   1.993
93309SOL    HW181824   4.596  14.390   1.979
93309SOL    HW281825   4.728  14.463   1.968
93310SOL     OW81826   4.321  11.551   4.147
93310SOL    HW181827   4.295  11.638   4.176
93310SOL    HW281828   4.317  11.497   4.226
93311SOL     OW81829   4.810  11.189  11.690
93311SOL    HW181830   4.737  11.129  11.680
93311SOL    HW281831   4.887  11.133  11.701
93312SOL     OW81832   2.607  12.599   4.718
93312SOL    HW181833   2.585  12.520   4.768
93312SOL    HW281834   2.554  12.668   4.756
93313SOL     OW81835   9.182  10.595   8.516
93313SOL    HW181836   9.238  10.521   8.541
93313SOL    HW281837   9.223  10.671   8.557
93314SOL     OW81838  10.460   0.474  11.157
93314SOL    HW181839  10.543   0.492  11.202
93314SOL    HW281840  10.445   0.551  11.103
93315SOL     OW81841   4.508   2.769   8.073
93315SOL    HW181842   4.423   2.731   8.095
93315SOL    HW281843   4.571   2.701   8.097
93316SOL     OW81844   9.751   2.675   6.370
93316SOL    HW181845   9.695   2.639   6.301
93316SOL    HW281846   9.823   2.613   6.377
93317SOL     OW81847  11.342   9.608  13.248
93317SOL    HW181848  11.354   9.684  13.191
93317SOL    HW281849  11.347   9.533  13.188
93318SOL     OW81850   2.069   0.868   8.786
93318SOL    HW181851   2.063   0.945   8.842
93318SOL    HW281852   1.981   0.857   8.750
93319SOL     OW81853   0.766  14.348   2.862
93319SOL    HW181854   0.695  14.312   2.809
93319SOL    HW281855   0.826  14.387   2.799
93320SOL     OW81856   5.788  11.550   8.799
93320SOL    HW181857   5.792  11.577   8.891
93320SOL    HW281858   5.723  11.480   8.799
93321SOL     OW81859   3.669   2.581   0.712
93321SOL    HW181860   3.743   2.520   0.721
93321SOL    HW281861   3.593   2.524   0.700
93322SOL     OW81862   2.494  13.506   0.970
93322SOL    HW181863   2.402  13.526   0.954
93322SOL    HW281864   2.539  13.539   0.892
93323SOL     OW81865   4.924   5.558   6.881
93323SOL    HW181866   4.912   5.633   6.939
93323SOL    HW281867   4.900   5.482   6.934
93324SOL     OW81868   5.567   0.775  13.213
93324SOL    HW181869   5.563   0.802  13.122
93324SOL    HW281870   5.503   0.705  13.221
93325SOL     OW81871   9.995   9.295  14.073
93325SOL    HW181872   9.982   9.291  14.167
93325SOL    HW281873  10.002   9.389  14.054
93326SOL     OW81874  11.925   8.750   8.871
93326SOL    HW181875  11.957   8.713   8.789
93326SOL    HW281876  11.831   8.762   8.856
93327SOL     OW81877  11.210   5.088  12.341
93327SOL    HW181878  11.272   5.016  12.347
93327SOL    HW281879  11.168   5.090  12.428
93328SOL     OW81880   3.685   1.671   1.963
93328SOL    HW181881   3.684   1.731   1.888
93328SOL    HW281882   3.626   1.712   2.027
93329SOL     OW81883   0.493   4.749   6.249
93329SOL    HW181884   0.498   4.746   6.154
93329SOL    HW281885   0.481   4.841   6.270
93330SOL     OW81886   0.249  10.665   9.339
93330SOL    HW181887   0.282  10.754   9.325
93330SOL    HW281888   0.192  10.673   9.416
93331SOL     OW81889   4.095   3.123  14.842
93331SOL    HW181890   4.004   3.105  14.868
93331SOL    HW281891   4.141   3.136   0.056
93332SOL     OW81892  10.280   3.378   5.796
93332SOL    HW181893  10.274   3.472   5.810
93332SOL    HW281894  10.323   3.370   5.710
93333SOL     OW81895   5.563   7.852  11.618
93333SOL    HW181896   5.530   7.814  11.536
93333SOL    HW281897   5.622   7.921  11.590
93334SOL     OW81898  11.958   1.109   8.655
93334SOL    HW181899  11.989   1.192   8.691
93334SOL    HW281900  11.976   1.045   8.724
93335SOL     OW81901   0.378   9.496  13.803
93335SOL    HW181902   0.458   9.491  13.855
93335SOL    HW281903   0.409   9.504  13.713
93336SOL     OW81904  12.847   2.670   5.258
93336SOL    HW181905  12.861   2.735   5.327
93336SOL    HW281906  12.801   2.718   5.190
93337SOL     OW81907  13.691  13.799  14.530
93337SOL    HW181908  13.683  13.874  14.471
93337SOL    HW281909  13.637  13.731  14.490
93338SOL     OW81910   0.578  13.694  13.552
93338SOL    HW181911   0.659  13.676  13.503
93338SOL    HW281912   0.585  13.787  13.575
93339SOL     OW81913   8.030   7.415   4.529
93339SOL    HW181914   8.007   7.370   4.611
93339SOL    HW281915   8.115   7.379   4.505
93340SOL     OW81916   5.848   4.161   5.094
93340SOL    HW181917   5.831   4.070   5.069
93340SOL    HW281918   5.942   4.171   5.084
93341SOL     OW81919  14.040  10.938   0.085
93341SOL    HW181920  14.082  10.938   0.171
93341SOL    HW281921  14.112  10.930   0.022
93342SOL     OW81922   6.933   1.030  13.533
93342SOL    HW181923   6.976   1.061  13.613
93342SOL    HW281924   6.978   0.948  13.511
93343SOL     OW81925   4.931  14.491  10.946
93343SOL    HW181926   4.858  14.547  10.974
93343SOL    HW281927   4.890  14.425  10.890
93344SOL     OW81928  12.655   0.698   5.406
93344SOL    HW181929  12.680   0.765   5.343
93344SOL    HW281930  12.560   0.702   5.410
93345SOL     OW81931   4.620   6.571   9.370
93345SOL    HW181932   4.674   6.649   9.356
93345SOL    HW281933   4.633   6.519   9.291
93346SOL     OW81934  14.480   7.493   1.750
93346SOL    HW181935  14.526   7.464   1.829
93346SOL    HW281936  14.421   7.421   1.729
93347SOL     OW81937   0.070   7.862   0.855
93347SOL    HW181938   0.046   7.819   0.772
93347SOL    HW281939   0.161   7.889   0.843
93348SOL     OW81940   4.147   7.652  12.467
93348SOL    HW181941   4.180   7.575  12.421
93348SOL    HW281942   4.183   7.726  12.419
93349SOL     OW81943  12.702   3.871   0.233
93349SOL    HW181944  12.735   3.829   0.153
93349SOL    HW281945  12.682   3.960   0.207
93350SOL     OW81946   4.626  14.289   2.732
93350SOL    HW181947   4.714  14.298   2.694
93350SOL    HW281948   4.635  14.216   2.793
93351SOL     OW81949   6.197  12.876  14.641
93351SOL    HW181950   6.277  12.862  14.591
93351SOL    HW281951   6.222  12.936  14.712
93352SOL     OW81952  10.342   4.426  11.061
93352SOL    HW181953  10.255   4.436  11.101
93352SOL    HW281954  10.400   4.410  11.135
93353SOL     OW81955   0.127   2.586   3.730
93353SOL    HW181956   0.126   2.534   3.650
93353SOL    HW281957   0.217   2.615   3.740
93354SOL     OW81958   9.237  12.872   8.498
93354SOL    HW181959   9.227  12.956   8.454
93354SOL    HW281960   9.160  12.865   8.555
93355SOL     OW81961  10.591   7.241  12.769
93355SOL    HW181962  10.643   7.177  12.721
93355SOL    HW281963  10.585   7.205  12.858
93356SOL     OW81964   0.892   7.711   3.438
93356SOL    HW181965   0.841   7.630   3.427
93356SOL    HW281966   0.966   7.701   3.379
93357SOL     OW81967  13.511   1.577   3.178
93357SOL    HW181968  13.596   1.620   3.173
93357SOL    HW281969  13.453   1.631   3.125
93358SOL     OW81970   6.104   4.554   1.632
93358SOL    HW181971   6.047   4.613   1.582
93358SOL    HW281972   6.192   4.572   1.599
93359SOL     OW81973   8.704   1.969   5.583
93359SOL    HW181974   8.614   2.002   5.586
93359SOL    HW281975   8.694   1.874   5.574
93360SOL     OW81976  13.529   7.436  13.564
93360SOL    HW181977  13.473   7.413  13.490
93360SOL    HW281978  13.549   7.353  13.607
93361SOL     OW81979   0.074   2.408  12.708
93361SOL    HW181980   0.001   2.469  12.710
93361SOL    HW281981   0.051   2.345  12.640
93362SOL     OW81982  12.655  13.912  10.377
93362SOL    HW181983  12.703  13.830  10.371
93362SOL    HW281984  12.642  13.925  10.471
93363SOL     OW81985  10.092  10.233   2.738
93363SOL    HW181986  10.082  10.319   2.697
93363SOL    HW281987  10.127  10.253   2.826
93364SOL     OW81988   6.501   4.482   6.486
93364SOL    HW181989   6.551   4.563   6.495
93364SOL    HW281990   6.434   4.502   6.421
93365SOL     OW81991  12.752   1.192  13.309
93365SOL    HW181992  12.847   1.194  13.322
93365SOL    HW281993  12.741   1.173  13.216
93366SOL     OW81994   0.682   1.153   5.262
93366SOL    HW181995   0.752   1.210   5.294
93366SOL    HW281996   0.649   1.108   5.340
93367SOL     OW81997   8.259   4.208   9.077
93367SOL    HW181998   8.264   4.285   9.021
93367SOL    HW281999   8.267   4.242   9.166
93368SOL     OW82000  14.349   7.315   4.631
93368SOL    HW182001  14.424   7.335   4.575
93368SOL    HW282002  14.346   7.220   4.634
93369SOL     OW82003   9.668  14.168  14.143
93369SOL    HW182004   9.657  14.231  14.214
93369SOL    HW282005   9.584  14.168  14.097
93370SOL     OW82006  12.579  10.615   3.234
93370SOL    HW182007  12.577  10.668   3.313
93370SOL    HW282008  12.536  10.533   3.258
93371SOL     OW82009   2.368   0.178   2.060
93371SOL    HW182010   2.360   0.171   2.155
93371SOL    HW282011   2.462   0.180   2.043
93372SOL     OW82012   7.714   9.042   4.383
93372SOL    HW182013   7.697   9.117   4.439
93372SOL    HW282014   7.810   9.039   4.376
93373SOL     OW82015   4.752   8.413   1.134
93373SOL    HW182016   4.774   8.504   1.112
93373SOL    HW282017   4.831   8.379   1.175
93374SOL     OW82018  14.398   1.934  11.289
93374SOL    HW182019  14.400   1.877  11.212
93374SOL    HW282020  14.435   2.017  11.260
93375SOL     OW82021  13.811  11.478  13.811
93375SOL    HW182022  13.796  11.552  13.752
93375SOL    HW282023  13.769  11.504  13.893
93376SOL     OW82024   0.962   3.103   2.244
93376SOL    HW182025   1.026   3.117   2.175
93376SOL    HW282026   0.889   3.060   2.200
93377SOL     OW82027   1.944  13.627   2.387
93377SOL    HW182028   1.968  13.599   2.299
93377SOL    HW282029   2.010  13.693   2.410
93378SOL     OW82030   8.780  10.048   4.324
93378SOL    HW182031   8.730   9.987   4.271
93378SOL    HW282032   8.787  10.006   4.410
93379SOL     OW82033   1.452   5.400   1.736
93379SOL    HW182034   1.515   5.330   1.714
93379SOL    HW282035   1.395   5.405   1.659
93380SOL     OW82036  12.051   7.427   2.810
93380SOL    HW182037  12.100   7.498   2.768
93380SOL    HW282038  12.024   7.463   2.895
93381SOL     OW82039   6.214   3.767   5.462
93381SOL    HW182040   6.233   3.765   5.556
93381SOL    HW282041   6.126   3.729   5.455
93382SOL     OW82042  13.216   4.591   8.410
93382SOL    HW182043  13.266   4.641   8.346
93382SOL    HW282044  13.124   4.605   8.385
93383SOL     OW82045   7.803   0.286   3.983
93383SOL    HW182046   7.856   0.255   3.910
93383SOL    HW282047   7.850   0.362   4.017
93384SOL     OW82048  13.935   2.361  12.008
93384SOL    HW182049  13.936   2.446  12.052
93384SOL    HW282050  13.843   2.347  11.984
93385SOL     OW82051   7.326  14.131   9.296
93385SOL    HW182052   7.365  14.058   9.343
93385SOL    HW282053   7.305  14.195   9.365
93386SOL     OW82054  11.884  12.769  10.858
93386SOL    HW182055  11.830  12.695  10.829
93386SOL    HW282056  11.840  12.802  10.936
93387SOL     OW82057   1.217   2.344   0.427
93387SOL    HW182058   1.139   2.385   0.464
93387SOL    HW282059   1.185   2.266   0.382
93388SOL     OW82060   4.601   3.691   9.403
93388SOL    HW182061   4.518   3.654   9.433
93388SOL    HW282062   4.590   3.700   9.308
93389SOL     OW82063   2.014  11.709  14.725
93389SOL    HW182064   1.962  11.640  14.767
93389SOL    HW282065   2.072  11.741  14.794
93390SOL     OW82066  13.776   9.802  11.041
93390SOL    HW182067  13.828   9.817  11.121
93390SOL    HW282068  13.840   9.809  10.970
93391SOL     OW82069  13.436   2.636  14.117
93391SOL    HW182070  13.395   2.653  14.032
93391SOL    HW282071  13.528   2.661  14.104
93392SOL     OW82072   7.619  13.680   4.166
93392SOL    HW182073   7.666  13.664   4.084
93392SOL    HW282074   7.688  13.689   4.232
93393SOL     OW82075  10.044   5.385   7.812
93393SOL    HW182076  10.112   5.338   7.765
93393SOL    HW282077   9.979   5.408   7.745
93394SOL     OW82078   9.117  10.851  12.266
93394SOL    HW182079   9.038  10.876  12.314
93394SOL    HW282080   9.149  10.932  12.227
93395SOL     OW82081   5.686  13.655   5.402
93395SOL    HW182082   5.594  13.671   5.425
93395SOL    HW282083   5.682  13.590   5.332
93396SOL     OW82084   4.059   8.923   2.326
93396SOL    HW182085   4.010   8.866   2.386
93396SOL    HW282086   4.151   8.912   2.351
93397SOL     OW82087  10.202  10.815   4.836
93397SOL    HW182088  10.116  10.790   4.869
93397SOL    HW282089  10.197  10.796   4.742
93398SOL     OW82090   8.399   7.406   3.124
93398SOL    HW182091   8.417   7.486   3.173
93398SOL    HW282092   8.485   7.376   3.094
93399SOL     OW82093   1.501  12.452   5.206
93399SOL    HW182094   1.509  12.468   5.300
93399SOL    HW282095   1.487  12.539   5.168
93400SOL     OW82096   8.598  11.300  10.999
93400SOL    HW182097   8.623  11.212  11.025
93400SOL    HW282098   8.610  11.353  11.078
93401SOL     OW82099  13.855   1.186   3.011
93401SOL    HW182100  13.761   1.202   3.024
93401SOL    HW282101  13.865   1.092   3.026
93402SOL     OW82102   6.740   7.428   9.742
93402SOL    HW182103   6.707   7.430   9.652
93402SOL    HW282104   6.661   7.436   9.796
93403SOL     OW82105   1.129   4.585  10.319
93403SOL    HW182106   1.167   4.511  10.272
93403SOL    HW282107   1.086   4.637  10.252
93404SOL     OW82108  14.677   4.742   7.810
93404SOL    HW182109  14.600   4.736   7.867
93404SOL    HW282110  14.653   4.806   7.743
93405SOL     OW82111   8.605   5.071  14.403
93405SOL    HW182112   8.535   5.010  14.428
93405SOL    HW282113   8.566   5.126  14.335
93406SOL     OW82114  10.187   2.631  11.198
93406SOL    HW182115  10.274   2.621  11.159
93406SOL    HW282116  10.202   2.678  11.280
93407SOL     OW82117  12.302   9.904  10.196
93407SOL    HW182118  12.362   9.918  10.123
93407SOL    HW282119  12.349   9.936  10.273
93408SOL     OW82120  10.720   3.063   4.642
93408SOL    HW182121  10.780   3.109   4.700
93408SOL    HW282122  10.637   3.062   4.690
93409SOL     OW82123  12.866   5.750   9.323
93409SOL    HW182124  12.867   5.669   9.272
93409SOL    HW282125  12.858   5.819   9.258
93410SOL     OW82126  11.869  11.051   5.193
93410SOL    HW182127  11.815  11.035   5.116
93410SOL    HW282128  11.901  10.964   5.218
93411SOL     OW82129   5.919  10.045   5.578
93411SOL    HW182130   5.923  10.014   5.487
93411SOL    HW282131   5.828  10.072   5.589
93412SOL     OW82132   9.458   1.767  11.245
93412SOL    HW182133   9.516   1.842  11.260
93412SOL    HW282134   9.421   1.748  11.331
93413SOL     OW82135   0.191   4.545  13.639
93413SOL    HW182136   0.153   4.478  13.582
93413SOL    HW282137   0.269   4.505  13.675
93414SOL     OW82138   0.640   2.336  12.718
93414SOL    HW182139   0.638   2.430  12.704
93414SOL    HW282140   0.593   2.323  12.800
93415SOL     OW82141   7.960  10.900  12.284
93415SOL    HW182142   7.944  10.926  12.193
93415SOL    HW282143   8.039  10.948  12.310
93416SOL     OW82144   4.921  11.536   4.561
93416SOL    HW182145   4.852  11.598   4.585
93416SOL    HW282146   5.001  11.573   4.600
93417SOL     OW82147   0.146   1.378   5.133
93417SOL    HW182148   0.214   1.324   5.174
93417SOL    HW282149   0.144   1.349   5.042
93418SOL     OW82150  14.841  12.955   9.943
93418SOL    HW182151   0.051  13.007   9.955
93418SOL    HW282152   0.002  12.874   9.902
93419SOL     OW82153   1.529  11.923   9.910
93419SOL    HW182154   1.443  11.944   9.944
93419SOL    HW282155   1.554  11.999   9.857
93420SOL     OW82156   8.252  10.419  11.874
93420SOL    HW182157   8.210  10.491  11.827
93420SOL    HW282158   8.292  10.461  11.951
93421SOL     OW82159   4.613   2.984   7.531
93421SOL    HW182160   4.632   2.891   7.536
93421SOL    HW282161   4.534   2.996   7.585
93422SOL     OW82162   0.554  10.925   9.756
93422SOL    HW182163   0.640  10.905   9.720
93422SOL    HW282164   0.557  11.019   9.773
93423SOL     OW82165   9.081   2.150   5.909
93423SOL    HW182166   9.007   2.095   5.883
93423SOL    HW282167   9.091   2.213   5.838
93424SOL     OW82168  11.857  12.982   9.859
93424SOL    HW182169  11.769  12.962   9.828
93424SOL    HW282170  11.900  13.024   9.785
93425SOL     OW82171   6.174  12.804   1.787
93425SOL    HW182172   6.148  12.850   1.867
93425SOL    HW282173   6.112  12.731   1.780
93426SOL     OW82174   9.872   1.274   1.216
93426SOL    HW182175   9.789   1.237   1.185
93426SOL    HW282176   9.935   1.202   1.210
93427SOL     OW82177  10.432   6.137   0.166
93427SOL    HW182178  10.386   6.124   0.082
93427SOL    HW282179  10.376   6.093   0.230
93428SOL     OW82180   4.856   4.404   8.761
93428SOL    HW182181   4.812   4.468   8.706
93428SOL    HW282182   4.949   4.418   8.745
93429SOL     OW82183   2.280  12.936  10.209
93429SOL    HW182184   2.304  12.986  10.287
93429SOL    HW282185   2.361  12.894  10.182
93430SOL     OW82186   4.826   2.559   4.748
93430SOL    HW182187   4.741   2.599   4.729
93430SOL    HW282188   4.804   2.474   4.786
93431SOL     OW82189  14.696  13.621   3.883
93431SOL    HW182190  14.630  13.648   3.819
93431SOL    HW282191  14.779  13.622   3.836
93432SOL     OW82192  12.343  11.359   8.179
93432SOL    HW182193  12.318  11.276   8.140
93432SOL    HW282194  12.271  11.418   8.158
93433SOL     OW82195  10.716   1.536   2.414
93433SOL    HW182196  10.726   1.578   2.329
93433SOL    HW282197  10.730   1.443   2.397
93434SOL     OW82198   3.158  10.713   0.324
93434SOL    HW182199   3.062  10.711   0.326
93434SOL    HW282200   3.179  10.706   0.231
93435SOL     OW82201  11.211  12.427   0.438
93435SOL    HW182202  11.306  12.427   0.430
93435SOL    HW282203  11.182  12.360   0.377
93436SOL     OW82204   9.906   4.614   6.591
93436SOL    HW182205   9.856   4.646   6.516
93436SOL    HW282206   9.976   4.562   6.553
93437SOL     OW82207  12.437   0.466   5.558
93437SOL    HW182208  12.393   0.524   5.496
93437SOL    HW282209  12.432   0.512   5.642
93438SOL     OW82210   3.523   9.897   7.726
93438SOL    HW182211   3.564   9.838   7.790
93438SOL    HW282212   3.515   9.981   7.772
93439SOL     OW82213   6.370   9.803   2.710
93439SOL    HW182214   6.403   9.769   2.627
93439SOL    HW282215   6.411   9.747   2.777
93440SOL     OW82216   6.108   5.069  14.064
93440SOL    HW182217   6.156   5.025  13.993
93440SOL    HW282218   6.138   5.025  14.144
93441SOL     OW82219   3.804   9.786  13.438
93441SOL    HW182220   3.747   9.718  13.474
93441SOL    HW282221   3.893   9.757  13.458
93442SOL     OW82222   1.793  14.017  12.238
93442SOL    HW182223   1.776  13.961  12.163
93442SOL    HW282224   1.730  14.088  12.230
93443SOL     OW82225   3.279  14.615   8.474
93443SOL    HW182226   3.330  14.620   8.555
93443SOL    HW282227   3.343  14.592   8.407
93444SOL     OW82228   3.303   4.514   3.024
93444SOL    HW182229   3.336   4.494   3.112
93444SOL    HW282230   3.380   4.548   2.978
93445SOL     OW82231   0.669  11.613  10.148
93445SOL    HW182232   0.687  11.689  10.092
93445SOL    HW282233   0.601  11.565  10.101
93446SOL     OW82234   6.303   5.913   2.675
93446SOL    HW182235   6.350   5.873   2.602
93446SOL    HW282236   6.212   5.889   2.660
93447SOL     OW82237   2.321   2.778   3.164
93447SOL    HW182238   2.293   2.730   3.242
93447SOL    HW282239   2.341   2.709   3.100
93448SOL     OW82240  14.586  11.533   7.323
93448SOL    HW182241  14.559  11.554   7.233
93448SOL    HW282242  14.544  11.601   7.376
93449SOL     OW82243   6.388   6.975   9.962
93449SOL    HW182244   6.441   6.897   9.945
93449SOL    HW282245   6.390   7.024   9.879
93450SOL     OW82246   8.301  10.591  12.092
93450SOL    HW182247   8.215  10.559  12.119
93450SOL    HW282248   8.312  10.673  12.140
93451SOL     OW82249   1.732   5.373   2.308
93451SOL    HW182250   1.784   5.375   2.228
93451SOL    HW282251   1.772   5.439   2.364
93452SOL     OW82252   0.590   9.781   9.761
93452SOL    HW182253   0.525   9.736   9.816
93452SOL    HW282254   0.550   9.865   9.740
93453SOL     OW82255   7.839   0.414  12.178
93453SOL    HW182256   7.750   0.381  12.195
93453SOL    HW282257   7.885   0.339  12.140
93454SOL     OW82258  14.821   8.411  12.404
93454SOL    HW182259  14.735   8.388  12.371
93454SOL    HW282260   0.004   8.426  12.325
93455SOL     OW82261   8.387   6.392  12.430
93455SOL    HW182262   8.340   6.317  12.394
93455SOL    HW282263   8.333   6.421  12.504
93456SOL     OW82264  10.281   0.122  11.669
93456SOL    HW182265  10.318   0.117  11.581
93456SOL    HW282266  10.328   0.195  11.710
93457SOL     OW82267   0.873   5.720   8.476
93457SOL    HW182268   0.835   5.686   8.395
93457SOL    HW282269   0.957   5.758   8.449
93458SOL     OW82270   3.521   1.257   9.284
93458SOL    HW182271   3.474   1.174   9.280
93458SOL    HW282272   3.480   1.311   9.216
93459SOL     OW82273   9.481  13.187   3.600
93459SOL    HW182274   9.555  13.129   3.586
93459SOL    HW282275   9.503  13.236   3.679
93460SOL     OW82276  13.141  10.286   6.229
93460SOL    HW182277  13.083  10.362   6.228
93460SOL    HW282278  13.135  10.253   6.318
93461SOL     OW82279  13.694   1.319   2.473
93461SOL    HW182280  13.696   1.357   2.561
93461SOL    HW282281  13.723   1.229   2.485
93462SOL     OW82282   3.509   6.991   4.194
93462SOL    HW182283   3.555   6.913   4.161
93462SOL    HW282284   3.573   7.034   4.250
93463SOL     OW82285   8.340  11.368   3.904
93463SOL    HW182286   8.274  11.307   3.937
93463SOL    HW282287   8.301  11.454   3.917
93464SOL     OW82288   9.570   5.404  14.294
93464SOL    HW182289   9.505   5.442  14.352
93464SOL    HW282290   9.631   5.475  14.276
93465SOL     OW82291   2.537   5.803   6.977
93465SOL    HW182292   2.571   5.740   6.914
93465SOL    HW282293   2.443   5.783   6.982
93466SOL     OW82294   3.459   2.771   5.510
93466SOL    HW182295   3.450   2.744   5.419
93466SOL    HW282296   3.487   2.691   5.555
93467SOL     OW82297   3.098   7.812   3.400
93467SOL    HW182298   3.174   7.761   3.430
93467SOL    HW282299   3.029   7.791   3.462
93468SOL     OW82300   6.897   9.449   7.742
93468SOL    HW182301   6.989   9.424   7.730
93468SOL    HW282302   6.857   9.434   7.656
93469SOL     OW82303   9.957   9.936   9.288
93469SOL    HW182304   9.969   9.849   9.327
93469SOL    HW282305   9.972   9.997   9.359
93470SOL     OW82306   7.920  13.385  11.843
93470SOL    HW182307   7.902  13.478  11.836
93470SOL    HW282308   7.862  13.354  11.913
93471SOL     OW82309   8.087   3.782   2.845
93471SOL    HW182310   8.178   3.779   2.817
93471SOL    HW282311   8.059   3.872   2.827
93472SOL     OW82312   3.779  11.531   7.438
93472SOL    HW182313   3.842  11.501   7.504
93472SOL    HW282314   3.708  11.467   7.442
93473SOL     OW82315  13.272  13.593   0.394
93473SOL    HW182316  13.242  13.639   0.473
93473SOL    HW282317  13.224  13.511   0.395
93474SOL     OW82318  11.268   2.041   2.607
93474SOL    HW182319  11.275   1.947   2.595
93474SOL    HW282320  11.191   2.067   2.556
93475SOL     OW82321  10.836   6.271   4.406
93475SOL    HW182322  10.794   6.209   4.348
93475SOL    HW282323  10.764   6.313   4.453
93476SOL     OW82324  11.259  10.357   5.969
93476SOL    HW182325  11.262  10.263   5.989
93476SOL    HW282326  11.350  10.379   5.947
93477SOL     OW82327  11.248  12.405   7.441
93477SOL    HW182328  11.301  12.482   7.418
93477SOL    HW282329  11.312  12.339   7.467
93478SOL     OW82330   4.210   5.079   7.360
93478SOL    HW182331   4.152   5.015   7.401
93478SOL    HW282332   4.187   5.162   7.402
93479SOL     OW82333  11.261  12.486   6.296
93479SOL    HW182334  11.292  12.396   6.302
93479SOL    HW282335  11.238  12.498   6.204
93480SOL     OW82336  11.231  10.214   5.232
93480SOL    HW182337  11.196  10.175   5.311
93480SOL    HW282338  11.156  10.221   5.172
93481SOL     OW82339  11.214   9.769   8.362
93481SOL    HW182340  11.285   9.830   8.343
93481SOL    HW282341  11.258   9.695   8.405
93482SOL     OW82342   4.993   6.738  13.507
93482SOL    HW182343   5.016   6.759  13.598
93482SOL    HW282344   5.063   6.780  13.456
93483SOL     OW82345   0.651   3.383  10.522
93483SOL    HW182346   0.565   3.342  10.509
93483SOL    HW282347   0.632   3.464  10.569
93484SOL     OW82348  10.476  12.331  13.098
93484SOL    HW182349  10.508  12.377  13.176
93484SOL    HW282350  10.388  12.301  13.121
93485SOL     OW82351  13.435   9.473   2.965
93485SOL    HW182352  13.354   9.524   2.959
93485SOL    HW282353  13.447   9.437   2.877
93486SOL     OW82354   7.344  12.246   7.382
93486SOL    HW182355   7.353  12.237   7.477
93486SOL    HW282356   7.372  12.162   7.347
93487SOL     OW82357   9.466  14.123   6.322
93487SOL    HW182358   9.379  14.153   6.346
93487SOL    HW282359   9.487  14.171   6.242
93488SOL     OW82360  10.770   4.465  10.715
93488SOL    HW182361  10.853   4.428  10.685
93488SOL    HW282362  10.795   4.549  10.755
93489SOL     OW82363  11.321  10.049   5.827
93489SOL    HW182364  11.231  10.071   5.805
93489SOL    HW282365  11.373  10.085   5.755
93490SOL     OW82366   2.506   5.428  14.307
93490SOL    HW182367   2.464   5.510  14.332
93490SOL    HW282368   2.457   5.360  14.354
93491SOL     OW82369   5.647   7.787   2.433
93491SOL    HW182370   5.605   7.767   2.350
93491SOL    HW282371   5.582   7.840   2.480
93492SOL     OW82372  10.875  12.236   3.103
93492SOL    HW182373  10.828  12.153   3.091
93492SOL    HW282374  10.938  12.218   3.173
93493SOL     OW82375   8.605  12.079  13.147
93493SOL    HW182376   8.534  12.041  13.199
93493SOL    HW282377   8.684  12.060  13.198
93494SOL     OW82378   6.272   6.720   2.063
93494SOL    HW182379   6.191   6.759   2.096
93494SOL    HW282380   6.250   6.689   1.975
93495SOL     OW82381   2.765  14.446   2.762
93495SOL    HW182382   2.857  14.471   2.761
93495SOL    HW282383   2.765  14.353   2.785
93496SOL     OW82384  14.411  12.636  11.141
93496SOL    HW182385  14.480  12.607  11.081
93496SOL    HW282386  14.338  12.576  11.124
93497SOL     OW82387   7.245  11.349   4.641
93497SOL    HW182388   7.219  11.302   4.720
93497SOL    HW282389   7.163  11.361   4.592
93498SOL     OW82390   6.963   5.861  10.452
93498SOL    HW182391   6.900   5.914  10.405
93498SOL    HW282392   7.028   5.923  10.484
93499SOL     OW82393  11.018  13.822   2.555
93499SOL    HW182394  10.950  13.882   2.584
93499SOL    HW282395  10.973  13.737   2.547
93500SOL     OW82396   4.158   0.670   4.164
93500SOL    HW182397   4.116   0.667   4.077
93500SOL    HW282398   4.242   0.714   4.148
93501SOL     OW82399   7.058  14.247   1.066
93501SOL    HW182400   7.134  14.305   1.066
93501SOL    HW282401   7.081  14.176   1.007
93502SOL     OW82402   4.698   2.146   1.453
93502SOL    HW182403   4.770   2.133   1.391
93502SOL    HW282404   4.659   2.229   1.428
93503SOL     OW82405   2.250   6.228  11.719
93503SOL    HW182406   2.214   6.279  11.646
93503SOL    HW282407   2.344   6.223  11.701
93504SOL     OW82408   4.536   4.055  13.146
93504SOL    HW182409   4.564   4.014  13.228
93504SOL    HW282410   4.575   4.142  13.149
93505SOL     OW82411   5.717   6.851   0.874
93505SOL    HW182412   5.631   6.835   0.911
93505SOL    HW282413   5.742   6.938   0.906
93506SOL     OW82414   4.874  10.711   2.157
93506SOL    HW182415   4.936  10.708   2.230
93506SOL    HW282416   4.832  10.625   2.158
93507SOL     OW82417   4.818   7.354  13.247
93507SOL    HW182418   4.764   7.325  13.173
93507SOL    HW282419   4.757   7.404  13.301
93508SOL     OW82420   1.484  13.097   9.577
93508SOL    HW182421   1.497  13.006   9.551
93508SOL    HW282422   1.528  13.148   9.509
93509SOL     OW82423   0.831   3.177   6.331
93509SOL    HW182424   0.828   3.231   6.252
93509SOL    HW282425   0.819   3.240   6.402
93510SOL     OW82426   6.976   0.745  11.958
93510SOL    HW182427   6.992   0.667  12.011
93510SOL    HW282428   6.881   0.760  11.965
93511SOL     OW82429  10.735   7.353   0.474
93511SOL    HW182430  10.774   7.433   0.509
93511SOL    HW282431  10.794   7.283   0.502
93512SOL     OW82432   1.957  13.136   4.859
93512SOL    HW182433   2.018  13.202   4.892
93512SOL    HW282434   1.899  13.183   4.800
93513SOL     OW82435   1.871   5.142   0.112
93513SOL    HW182436   1.954   5.118   0.071
93513SOL    HW282437   1.806   5.086   0.069
93514SOL     OW82438   2.477   9.120  14.171
93514SOL    HW182439   2.418   9.065  14.223
93514SOL    HW282440   2.420   9.166  14.110
93515SOL     OW82441   1.901   4.178   8.860
93515SOL    HW182442   1.979   4.227   8.830
93515SOL    HW282443   1.920   4.157   8.951
93516SOL     OW82444  12.104   9.781   1.158
93516SOL    HW182445  12.134   9.698   1.121
93516SOL    HW282446  12.013   9.764   1.184
93517SOL     OW82447  13.025  10.203  13.593
93517SOL    HW182448  12.954  10.167  13.540
93517SOL    HW282449  13.020  10.297  13.579
93518SOL     OW82450  12.819   3.069   8.569
93518SOL    HW182451  12.810   3.025   8.485
93518SOL    HW282452  12.814   3.162   8.548
93519SOL     OW82453   1.996  11.355   8.327
93519SOL    HW182454   1.986  11.323   8.237
93519SOL    HW282455   2.090  11.354   8.343
93520SOL     OW82456   0.375   0.399  10.816
93520SOL    HW182457   0.369   0.311  10.854
93520SOL    HW282458   0.292   0.440  10.840
93521SOL     OW82459   1.015  13.106   3.015
93521SOL    HW182460   1.002  13.185   2.963
93521SOL    HW282461   0.928  13.068   3.024
93522SOL     OW82462   6.818  10.399   7.049
93522SOL    HW182463   6.832  10.370   7.139
93522SOL    HW282464   6.846  10.490   7.048
93523SOL     OW82465   2.584  10.140   3.148
93523SOL    HW182466   2.649  10.096   3.202
93523SOL    HW282467   2.634  10.175   3.074
93524SOL     OW82468   8.038   6.118   9.269
93524SOL    HW182469   8.011   6.209   9.253
93524SOL    HW282470   8.008   6.071   9.191
93525SOL     OW82471   8.681  13.325  13.528
93525SOL    HW182472   8.734  13.370  13.593
93525SOL    HW282473   8.602  13.299  13.575
93526SOL     OW82474   4.651   3.017   3.560
93526SOL    HW182475   4.747   3.016   3.554
93526SOL    HW282476   4.631   2.951   3.626
93527SOL     OW82477  10.709  14.421   5.384
93527SOL    HW182478  10.751  14.395   5.466
93527SOL    HW282479  10.767  14.488   5.347
93528SOL     OW82480   9.596   4.155  10.723
93528SOL    HW182481   9.672   4.212  10.715
93528SOL    HW282482   9.599   4.122  10.812
93529SOL     OW82483   3.298   7.570   8.930
93529SOL    HW182484   3.338   7.655   8.946
93529SOL    HW282485   3.366   7.519   8.886
93530SOL     OW82486  14.689  12.930   8.124
93530SOL    HW182487  14.642  12.886   8.194
93530SOL    HW282488  14.768  12.878   8.111
93531SOL     OW82489   3.334  11.928   9.596
93531SOL    HW182490   3.309  12.020   9.603
93531SOL    HW282491   3.250  11.880   9.595
93532SOL     OW82492  13.623   7.184   3.453
93532SOL    HW182493  13.555   7.124   3.484
93532SOL    HW282494  13.635   7.161   3.361
93533SOL     OW82495  10.284  14.786   3.633
93533SOL    HW182496  10.320  14.759   3.718
93533SOL    HW282497  10.227  14.859   3.654
93534SOL     OW82498   1.096   4.046   8.953
93534SOL    HW182499   1.061   4.080   9.035
93534SOL    HW282500   1.159   3.979   8.980
93535SOL     OW82501   2.164   5.805   4.461
93535SOL    HW182502   2.166   5.900   4.474
93535SOL    HW282503   2.134   5.794   4.371
93536SOL     OW82504   3.768   5.913   4.183
93536SOL    HW182505   3.758   5.835   4.238
93536SOL    HW282506   3.684   5.959   4.193
93537SOL     OW82507   7.322  11.328   0.167
93537SOL    HW182508   7.335  11.306   0.075
93537SOL    HW282509   7.408  11.357   0.197
93538SOL     OW82510   1.255  12.514  13.077
93538SOL    HW182511   1.208  12.595  13.056
93538SOL    HW282512   1.278  12.476  12.992
93539SOL     OW82513  14.485   4.786   4.679
93539SOL    HW182514  14.444   4.716   4.730
93539SOL    HW282515  14.413   4.843   4.654
93540SOL     OW82516  11.027  11.781   9.672
93540SOL    HW182517  11.092  11.746   9.732
93540SOL    HW282518  10.963  11.825   9.728
93541SOL     OW82519   4.886   6.460   4.451
93541SOL    HW182520   4.971   6.486   4.486
93541SOL    HW282521   4.822   6.505   4.507
93542SOL     OW82522   9.953   8.107  10.182
93542SOL    HW182523   9.947   8.196  10.149
93542SOL    HW282524  10.032   8.106  10.236
93543SOL     OW82525  14.557  11.946   9.041
93543SOL    HW182526  14.592  12.002   9.110
93543SOL    HW282527  14.476  11.989   9.015
93544SOL     OW82528   5.170   3.392  10.723
93544SOL    HW182529   5.129   3.315  10.762
93544SOL    HW282530   5.103   3.429  10.666
93545SOL     OW82531   2.298   3.279   4.925
93545SOL    HW182532   2.279   3.363   4.884
93545SOL    HW282533   2.227   3.222   4.896
93546SOL     OW82534   4.510   6.790  14.647
93546SOL    HW182535   4.415   6.776  14.641
93546SOL    HW282536   4.527   6.802  14.740
93547SOL     OW82537   0.898   8.079   1.703
93547SOL    HW182538   0.877   7.997   1.750
93547SOL    HW282539   0.947   8.051   1.627
93548SOL     OW82540   3.151   2.104   6.677
93548SOL    HW182541   3.154   2.052   6.758
93548SOL    HW282542   3.241   2.133   6.664
93549SOL     OW82543   1.107   8.676   9.783
93549SOL    HW182544   1.117   8.658   9.689
93549SOL    HW282545   1.068   8.764   9.786
93550SOL     OW82546  11.493  10.586   0.315
93550SOL    HW182547  11.460  10.599   0.226
93550SOL    HW282548  11.511  10.492   0.320
93551SOL     OW82549  11.639  10.973  10.476
93551SOL    HW182550  11.730  11.004  10.471
93551SOL    HW282551  11.616  10.952  10.385
93552SOL     OW82552   4.163   6.646  10.028
93552SOL    HW182553   4.222   6.652   9.952
93552SOL    HW282554   4.104   6.721  10.018
93553SOL     OW82555   8.694   8.272  11.209
93553SOL    HW182556   8.748   8.332  11.157
93553SOL    HW282557   8.678   8.198  11.150
93554SOL     OW82558  11.762   4.309   3.228
93554SOL    HW182559  11.677   4.344   3.257
93554SOL    HW282560  11.740   4.235   3.172
93555SOL     OW82561   6.992   8.448   2.724
93555SOL    HW182562   7.039   8.466   2.805
93555SOL    HW282563   6.972   8.534   2.687
93556SOL     OW82564   5.560   5.737   1.091
93556SOL    HW182565   5.559   5.750   1.185
93556SOL    HW282566   5.494   5.799   1.057
93557SOL     OW82567   9.193   5.958   5.007
93557SOL    HW182568   9.283   5.926   5.002
93557SOL    HW282569   9.155   5.938   4.922
93558SOL     OW82570   3.836  12.031  11.568
93558SOL    HW182571   3.858  11.981  11.647
93558SOL    HW282572   3.881  12.115  11.579
93559SOL     OW82573  14.188  13.660   9.062
93559SOL    HW182574  14.248  13.700   9.000
93559SOL    HW282575  14.134  13.732   9.095
93560SOL     OW82576  14.655   0.836  11.636
93560SOL    HW182577  14.595   0.803  11.570
93560SOL    HW282578  14.599   0.864  11.708
93561SOL     OW82579   9.993   8.229   0.066
93561SOL    HW182580  10.033   8.281  14.866
93561SOL    HW282581   9.902   8.219   0.039
93562SOL     OW82582   0.995  10.142   7.059
93562SOL    HW182583   1.061  10.079   7.088
93562SOL    HW282584   0.940  10.157   7.137
93563SOL     OW82585   1.659   1.209   5.454
93563SOL    HW182586   1.754   1.203   5.451
93563SOL    HW282587   1.636   1.263   5.379
93564SOL     OW82588  14.302   6.875   1.336
93564SOL    HW182589  14.265   6.849   1.251
93564SOL    HW282590  14.359   6.948   1.315
93565SOL     OW82591   4.198   5.763  12.167
93565SOL    HW182592   4.179   5.710  12.090
93565SOL    HW282593   4.275   5.721  12.207
93566SOL     OW82594  14.691  12.473   9.693
93566SOL    HW182595  14.776  12.453   9.652
93566SOL    HW282596  14.632  12.405   9.660
93567SOL     OW82597   3.224   7.848   8.606
93567SOL    HW182598   3.299   7.891   8.565
93567SOL    HW282599   3.157   7.845   8.538
93568SOL     OW82600   6.965   7.649   3.796
93568SOL    HW182601   6.911   7.638   3.717
93568SOL    HW282602   7.030   7.580   3.790
93569SOL     OW82603   3.467  14.701   4.653
93569SOL    HW182604   3.390  14.688   4.707
93569SOL    HW282605   3.514  14.617   4.657
93570SOL     OW82606   9.894  11.776  13.124
93570SOL    HW182607   9.968  11.747  13.070
93570SOL    HW282608   9.881  11.867  13.100
93571SOL     OW82609   8.593   6.406   8.299
93571SOL    HW182610   8.524   6.365   8.351
93571SOL    HW282611   8.662   6.425   8.362
93572SOL     OW82612   9.064   1.187   9.248
93572SOL    HW182613   9.116   1.260   9.214
93572SOL    HW282614   9.042   1.136   9.170
93573SOL     OW82615   6.996   9.595   2.761
93573SOL    HW182616   6.943   9.663   2.803
93573SOL    HW282617   7.047   9.641   2.695
93574SOL     OW82618   9.949  12.515  14.404
93574SOL    HW182619  10.033  12.491  14.365
93574SOL    HW282620   9.909  12.574  14.340
93575SOL     OW82621   3.463   5.779   6.707
93575SOL    HW182622   3.421   5.699   6.673
93575SOL    HW282623   3.522   5.747   6.775
93576SOL     OW82624  14.795   2.005  14.424
93576SOL    HW182625  14.769   2.087  14.464
93576SOL    HW282626  14.743   2.000  14.344
93577SOL     OW82627   6.648   6.814   9.867
93577SOL    HW182628   6.639   6.909   9.854
93577SOL    HW282629   6.564   6.778   9.839
93578SOL     OW82630   6.405   9.764  11.679
93578SOL    HW182631   6.424   9.808  11.762
93578SOL    HW282632   6.419   9.671  11.696
93579SOL     OW82633   5.883  10.212   2.529
93579SOL    HW182634   5.945  10.207   2.601
93579SOL    HW282635   5.920  10.154   2.462
93580SOL     OW82636   1.812  12.125  10.032
93580SOL    HW182637   1.898  12.167  10.034
93580SOL    HW282638   1.831  12.031  10.039
93581SOL     OW82639  14.515   0.336  10.366
93581SOL    HW182640  14.511   0.270  10.296
93581SOL    HW282641  14.448   0.400  10.343
93582SOL     OW82642  10.141   1.274  11.725
93582SOL    HW182643  10.194   1.267  11.804
93582SOL    HW282644  10.142   1.367  11.704
93583SOL     OW82645  12.778   9.565  10.061
93583SOL    HW182646  12.848   9.501  10.075
93583SOL    HW282647  12.813   9.624   9.994
93584SOL     OW82648   6.105   5.141   9.546
93584SOL    HW182649   6.054   5.179   9.473
93584SOL    HW282650   6.053   5.065   9.574
93585SOL     OW82651   1.216  14.096   6.084
93585SOL    HW182652   1.130  14.088   6.125
93585SOL    HW282653   1.278  14.074   6.154
93586SOL     OW82654   6.698   4.547  10.331
93586SOL    HW182655   6.774   4.571  10.278
93586SOL    HW282656   6.644   4.626  10.333
93587SOL     OW82657  11.160   8.312  12.942
93587SOL    HW182658  11.181   8.321  13.035
93587SOL    HW282659  11.190   8.394  12.903
93588SOL     OW82660   7.283   0.591   1.604
93588SOL    HW182661   7.354   0.655   1.608
93588SOL    HW282662   7.264   0.570   1.696
93589SOL     OW82663  10.842  12.043   3.765
93589SOL    HW182664  10.816  12.131   3.789
93589SOL    HW282665  10.846  11.995   3.847
93590SOL     OW82666  14.738   7.564   7.042
93590SOL    HW182667  14.737   7.660   7.046
93590SOL    HW282668  14.647   7.539   7.060
93591SOL     OW82669  12.396   9.944   6.019
93591SOL    HW182670  12.405  10.039   6.008
93591SOL    HW282671  12.390   9.931   6.114
93592SOL     OW82672   2.535   1.653   4.289
93592SOL    HW182673   2.539   1.560   4.309
93592SOL    HW282674   2.551   1.696   4.374
93593SOL     OW82675   2.935   6.281  11.864
93593SOL    HW182676   2.921   6.209  11.803
93593SOL    HW282677   2.983   6.347  11.814
93594SOL     OW82678   5.979   0.886   6.085
93594SOL    HW182679   6.003   0.794   6.084
93594SOL    HW282680   6.030   0.924   6.013
93595SOL     OW82681  13.029  11.183   1.649
93595SOL    HW182682  13.026  11.275   1.675
93595SOL    HW282683  13.041  11.184   1.554
93596SOL     OW82684   4.889   3.292   0.356
93596SOL    HW182685   4.861   3.245   0.277
93596SOL    HW282686   4.879   3.384   0.334
93597SOL     OW82687   5.874   4.475   9.137
93597SOL    HW182688   5.937   4.408   9.162
93597SOL    HW282689   5.927   4.554   9.126
93598SOL     OW82690   8.830   4.104   0.900
93598SOL    HW182691   8.876   4.096   0.984
93598SOL    HW282692   8.818   4.199   0.889
93599SOL     OW82693  14.167   6.279   0.352
93599SOL    HW182694  14.134   6.300   0.265
93599SOL    HW282695  14.120   6.199   0.376
93600SOL     OW82696   3.442   3.755   9.050
93600SOL    HW182697   3.458   3.833   9.104
93600SOL    HW282698   3.529   3.731   9.016
93601SOL     OW82699   4.306  11.373   1.967
93601SOL    HW182700   4.301  11.428   1.889
93601SOL    HW282701   4.342  11.290   1.936
93602SOL     OW82702   5.405   8.933   2.771
93602SOL    HW182703   5.469   8.968   2.709
93602SOL    HW282704   5.364   9.010   2.811
93603SOL     OW82705  12.951   8.772  11.348
93603SOL    HW182706  12.986   8.829  11.416
93603SOL    HW282707  13.027   8.720  11.320
93604SOL     OW82708  13.516   4.149  10.165
93604SOL    HW182709  13.529   4.059  10.135
93604SOL    HW282710  13.445   4.183  10.111
93605SOL     OW82711  11.458  12.928   0.312
93605SOL    HW182712  11.378  12.885   0.282
93605SOL    HW282713  11.429  13.014   0.342
93606SOL     OW82714   8.272  10.688   8.427
93606SOL    HW182715   8.248  10.613   8.482
93606SOL    HW282716   8.339  10.654   8.368
93607SOL     OW82717   4.186   6.354   6.739
93607SOL    HW182718   4.110   6.315   6.695
93607SOL    HW282719   4.261   6.304   6.708
93608SOL     OW82720   0.363   4.526  13.990
93608SOL    HW182721   0.331   4.613  14.013
93608SOL    HW282722   0.414   4.539  13.911
93609SOL     OW82723  12.051   4.482   9.701
93609SOL    HW182724  11.980   4.421   9.725
93609SOL    HW282725  12.129   4.444   9.742
93610SOL     OW82726   2.707  13.834   6.427
93610SOL    HW182727   2.723  13.928   6.419
93610SOL    HW282728   2.675  13.807   6.341
93611SOL     OW82729   3.375  12.289   2.179
93611SOL    HW182730   3.428  12.357   2.138
93611SOL    HW282731   3.285  12.309   2.150
93612SOL     OW82732  11.608   7.460   5.941
93612SOL    HW182733  11.640   7.394   6.002
93612SOL    HW282734  11.555   7.519   5.995
93613SOL     OW82735   6.898  11.289  11.189
93613SOL    HW182736   6.983  11.295  11.234
93613SOL    HW282737   6.914  11.328  11.103
93614SOL     OW82738  13.200   1.193   3.488
93614SOL    HW182739  13.201   1.287   3.507
93614SOL    HW282740  13.114   1.177   3.449
93615SOL     OW82741   4.071  10.326   3.189
93615SOL    HW182742   4.033  10.243   3.219
93615SOL    HW282743   3.999  10.370   3.144
93616SOL     OW82744   9.353   0.104  14.237
93616SOL    HW182745   9.380   0.124  14.147
93616SOL    HW282746   9.396   0.021  14.257
93617SOL     OW82747  10.719   7.810  10.732
93617SOL    HW182748  10.723   7.775  10.643
93617SOL    HW282749  10.700   7.903  10.721
93618SOL     OW82750   6.841   8.319   3.024
93618SOL    HW182751   6.904   8.374   2.978
93618SOL    HW282752   6.792   8.380   3.080
93619SOL     OW82753  10.461   3.297   1.646
93619SOL    HW182754  10.433   3.365   1.586
93619SOL    HW282755  10.553   3.316   1.663
93620SOL     OW82756   1.921   6.251  13.262
93620SOL    HW182757   1.847   6.300  13.299
93620SOL    HW282758   1.980   6.238  13.336
93621SOL     OW82759  14.422   3.627  10.684
93621SOL    HW182760  14.387   3.548  10.725
93621SOL    HW282761  14.457   3.678  10.757
93622SOL     OW82762  10.777  11.173  13.991
93622SOL    HW182763  10.839  11.242  14.012
93622SOL    HW282764  10.820  11.092  14.020
93623SOL     OW82765   8.980   5.251   1.042
93623SOL    HW182766   8.926   5.177   1.070
93623SOL    HW282767   9.048   5.211   0.988
93624SOL     OW82768  14.747   3.120  12.856
93624SOL    HW182769  14.803   3.144  12.930
93624SOL    HW282770  14.788   3.162  12.780
93625SOL     OW82771   4.459   2.789   9.835
93625SOL    HW182772   4.440   2.713   9.779
93625SOL    HW282773   4.373   2.816   9.868
93626SOL     OW82774  12.872  10.174  12.345
93626SOL    HW182775  12.779  10.151  12.336
93626SOL    HW282776  12.914  10.092  12.370
93627SOL     OW82777  12.706   5.915  10.843
93627SOL    HW182778  12.612   5.910  10.827
93627SOL    HW282779  12.738   5.826  10.826
93628SOL     OW82780  11.471   3.401   1.403
93628SOL    HW182781  11.401   3.446   1.450
93628SOL    HW282782  11.543   3.397   1.465
93629SOL     OW82783   0.465   5.342   9.652
93629SOL    HW182784   0.384   5.375   9.692
93629SOL    HW282785   0.437   5.312   9.565
93630SOL     OW82786   7.099   3.872   3.860
93630SOL    HW182787   7.026   3.884   3.799
93630SOL    HW282788   7.070   3.801   3.917
93631SOL     OW82789   5.000   1.360   6.797
93631SOL    HW182790   4.912   1.324   6.790
93631SOL    HW282791   5.013   1.374   6.890
93632SOL     OW82792   5.846   8.400   4.413
93632SOL    HW182793   5.871   8.420   4.503
93632SOL    HW282794   5.918   8.433   4.360
93633SOL     OW82795   7.784   2.161   7.403
93633SOL    HW182796   7.873   2.196   7.411
93633SOL    HW282797   7.732   2.235   7.370
93634SOL     OW82798  12.187   9.225  14.790
93634SOL    HW182799  12.124   9.284  14.831
93634SOL    HW282800  12.134   9.153  14.757
93635SOL     OW82801   4.958   0.175  13.160
93635SOL    HW182802   4.976   0.269  13.166
93635SOL    HW282803   4.962   0.144  13.250
93636SOL     OW82804  14.632  13.137   9.883
93636SOL    HW182805  14.658  13.151   9.792
93636SOL    HW282806  14.687  13.064   9.913
93637SOL     OW82807   9.599   2.890   2.304
93637SOL    HW182808   9.694   2.885   2.295
93637SOL    HW282809   9.570   2.799   2.294
93638SOL     OW82810   0.562   4.700  12.380
93638SOL    HW182811   0.605   4.759  12.442
93638SOL    HW282812   0.575   4.613  12.417
93639SOL     OW82813  10.695   1.654  14.230
93639SOL    HW182814  10.745   1.731  14.255
93639SOL    HW282815  10.750   1.580  14.255
93640SOL     OW82816   2.785   5.549   3.479
93640SOL    HW182817   2.770   5.538   3.385
93640SOL    HW282818   2.782   5.644   3.493
93641SOL     OW82819   7.946   1.745   1.757
93641SOL    HW182820   8.004   1.710   1.825
93641SOL    HW282821   7.879   1.794   1.805
93642SOL     OW82822   1.599   8.973  14.238
93642SOL    HW182823   1.635   8.886  14.253
93642SOL    HW282824   1.509   8.968  14.270
93643SOL     OW82825   1.843   7.742   5.816
93643SOL    HW182826   1.874   7.807   5.878
93643SOL    HW282827   1.882   7.768   5.732
93644SOL     OW82828   4.974   1.581   8.236
93644SOL    HW182829   4.920   1.641   8.288
93644SOL    HW282830   4.921   1.561   8.159
93645SOL     OW82831   1.812   8.504   7.823
93645SOL    HW182832   1.771   8.427   7.862
93645SOL    HW282833   1.906   8.490   7.833
93646SOL     OW82834  11.633   8.847   9.912
93646SOL    HW182835  11.699   8.911   9.886
93646SOL    HW282836  11.670   8.762   9.889
93647SOL     OW82837   3.012  11.694  12.479
93647SOL    HW182838   3.080  11.657  12.422
93647SOL    HW282839   3.036  11.786  12.488
93648SOL     OW82840   4.147   2.546  11.261
93648SOL    HW182841   4.161   2.641  11.258
93648SOL    HW282842   4.154   2.524  11.354
93649SOL     OW82843   9.019  10.111  10.420
93649SOL    HW182844   9.024  10.092  10.326
93649SOL    HW282845   9.022  10.025  10.462
93650SOL     OW82846   0.184   4.211   4.211
93650SOL    HW182847   0.194   4.293   4.162
93650SOL    HW282848   0.172   4.239   4.302
93651SOL     OW82849   7.417   9.432   9.466
93651SOL    HW182850   7.355   9.408   9.398
93651SOL    HW282851   7.462   9.350   9.487
93652SOL     OW82852   2.722  13.005   7.592
93652SOL    HW182853   2.688  13.014   7.681
93652SOL    HW282854   2.786  13.076   7.583
93653SOL     OW82855   1.199   6.667   6.924
93653SOL    HW182856   1.226   6.757   6.911
93653SOL    HW282857   1.148   6.645   6.846
93654SOL     OW82858  11.735   0.262  14.784
93654SOL    HW182859  11.650   0.234  14.819
93654SOL    HW282860  11.798   0.205  14.826
93655SOL     OW82861   9.874  11.250  11.016
93655SOL    HW182862   9.934  11.249  11.090
93655SOL    HW282863   9.790  11.276  11.053
93656SOL     OW82864   0.022   3.030   8.218
93656SOL    HW182865   0.101   3.084   8.217
93656SOL    HW282866   0.055   2.940   8.217
93657SOL     OW82867   4.522  10.831   3.951
93657SOL    HW182868   4.503  10.741   3.924
93657SOL    HW282869   4.598  10.856   3.900
93658SOL     OW82870   1.496  13.956  11.101
93658SOL    HW182871   1.473  13.863  11.105
93658SOL    HW282872   1.459  13.987  11.019
93659SOL     OW82873   7.884   9.514   7.352
93659SOL    HW182874   7.811   9.541   7.408
93659SOL    HW282875   7.922   9.439   7.398
93660SOL     OW82876   8.185   6.692   5.602
93660SOL    HW182877   8.213   6.693   5.693
93660SOL    HW282878   8.122   6.620   5.598
93661SOL     OW82879   6.973   8.389   0.989
93661SOL    HW182880   6.900   8.444   0.958
93661SOL    HW282881   7.044   8.405   0.927
93662SOL     OW82882   4.491   3.665  11.113
93662SOL    HW182883   4.562   3.670  11.177
93662SOL    HW282884   4.469   3.757  11.095
93663SOL     OW82885   7.379   3.558  14.374
93663SOL    HW182886   7.311   3.514  14.322
93663SOL    HW282887   7.397   3.497  14.446
93664SOL     OW82888   4.737   3.183   9.794
93664SOL    HW182889   4.823   3.142   9.803
93664SOL    HW282890   4.689   3.125   9.735
93665SOL     OW82891   7.787  11.719   3.742
93665SOL    HW182892   7.811  11.695   3.832
93665SOL    HW282893   7.726  11.651   3.714
93666SOL     OW82894  12.979   4.250   8.075
93666SOL    HW182895  13.071   4.239   8.052
93666SOL    HW282896  12.942   4.162   8.067
93667SOL     OW82897   6.100   5.749   0.553
93667SOL    HW182898   6.083   5.796   0.634
93667SOL    HW282899   6.173   5.690   0.573
93668SOL     OW82900   6.180   4.877   1.107
93668SOL    HW182901   6.189   4.798   1.161
93668SOL    HW282902   6.085   4.892   1.104
93669SOL     OW82903  10.598  14.047   1.750
93669SOL    HW182904  10.522  14.019   1.801
93669SOL    HW282905  10.593  13.995   1.670
93670SOL     OW82906  11.932   8.578   1.876
93670SOL    HW182907  11.891   8.633   1.943
93670SOL    HW282908  12.025   8.599   1.882
93671SOL     OW82909   6.847   4.439   4.755
93671SOL    HW182910   6.860   4.493   4.833
93671SOL    HW282911   6.758   4.406   4.762
93672SOL     OW82912   7.856  10.511  10.834
93672SOL    HW182913   7.827  10.595  10.870
93672SOL    HW282914   7.856  10.525  10.739
93673SOL     OW82915   6.545   8.301   9.932
93673SOL    HW182916   6.465   8.267   9.973
93673SOL    HW282917   6.603   8.225   9.924
93674SOL     OW82918   0.228   4.519  11.754
93674SOL    HW182919   0.145   4.538  11.795
93674SOL    HW282920   0.206   4.499  11.663
93675SOL     OW82921  12.915   5.873  14.557
93675SOL    HW182922  12.959   5.909  14.481
93675SOL    HW282923  12.971   5.802  14.587
93676SOL     OW82924   0.028   4.037   4.935
93676SOL    HW182925   0.017   4.013   5.026
93676SOL    HW282926   0.118   4.012   4.914
93677SOL     OW82927  12.304   2.128   8.439
93677SOL    HW182928  12.315   2.173   8.356
93677SOL    HW282929  12.210   2.121   8.451
93678SOL     OW82930   8.653  14.183   8.266
93678SOL    HW182931   8.615  14.249   8.209
93678SOL    HW282932   8.746  14.204   8.269
93679SOL     OW82933   8.093   7.478   8.864
93679SOL    HW182934   8.011   7.493   8.817
93679SOL    HW282935   8.098   7.549   8.928
93680SOL     OW82936  12.034   8.729   0.489
93680SOL    HW182937  12.022   8.641   0.525
93680SOL    HW282938  11.949   8.753   0.454
93681SOL     OW82939   0.337   5.756   9.686
93681SOL    HW182940   0.421   5.756   9.639
93681SOL    HW282941   0.352   5.812   9.762
93682SOL     OW82942   8.859   5.427   9.813
93682SOL    HW182943   8.892   5.514   9.834
93682SOL    HW282944   8.795   5.442   9.743
93683SOL     OW82945   6.058   0.921  10.790
93683SOL    HW182946   6.082   0.857  10.723
93683SOL    HW282947   6.081   0.878  10.873
93684SOL     OW82948  10.682   0.567   9.420
93684SOL    HW182949  10.740   0.615   9.479
93684SOL    HW282950  10.664   0.627   9.348
93685SOL     OW82951   2.310   9.185  11.044
93685SOL    HW182952   2.285   9.097  11.071
93685SOL    HW282953   2.271   9.196  10.957
93686SOL     OW82954   1.876   9.040   0.576
93686SOL    HW182955   1.920   9.027   0.492
93686SOL    HW282956   1.826   9.121   0.565
93687SOL     OW82957  14.636   2.353   7.985
93687SOL    HW182958  14.657   2.308   8.067
93687SOL    HW282959  14.678   2.438   7.993
93688SOL     OW82960  11.567  10.801   0.895
93688SOL    HW182961  11.559  10.868   0.963
93688SOL    HW282962  11.624  10.840   0.829
93689SOL     OW82963   0.221   7.485  12.987
93689SOL    HW182964   0.304   7.521  12.955
93689SOL    HW282965   0.162   7.561  12.992
93690SOL     OW82966   7.148  14.433   5.705
93690SOL    HW182967   7.151  14.393   5.792
93690SOL    HW282968   7.238  14.429   5.674
93691SOL     OW82969   4.420  11.405  12.232
93691SOL    HW182970   4.513  11.385  12.225
93691SOL    HW282971   4.414  11.499  12.215
93692SOL     OW82972   7.488   1.325   5.118
93692SOL    HW182973   7.442   1.359   5.042
93692SOL    HW282974   7.426   1.336   5.190
93693SOL     OW82975  11.675   2.665  11.912
93693SOL    HW182976  11.737   2.692  11.981
93693SOL    HW282977  11.595   2.645  11.960
93694SOL     OW82978   1.829   5.887  10.529
93694SOL    HW182979   1.832   5.945  10.454
93694SOL    HW282980   1.852   5.801  10.494
93695SOL     OW82981  11.146   5.870   5.383
93695SOL    HW182982  11.207   5.868   5.309
93695SOL    HW282983  11.062   5.842   5.345
93696SOL     OW82984  14.717   7.334  13.714
93696SOL    HW182985  14.720   7.240  13.726
93696SOL    HW282986  14.804   7.365  13.739
93697SOL     OW82987  11.550  10.380   6.928
93697SOL    HW182988  11.538  10.406   7.019
93697SOL    HW282989  11.639  10.346   6.923
93698SOL     OW82990  12.653   3.589   6.898
93698SOL    HW182991  12.669   3.584   6.993
93698SOL    HW282992  12.703   3.665   6.869
93699SOL     OW82993   5.951  10.646   6.024
93699SOL    HW182994   5.939  10.583   5.953
93699SOL    HW282995   5.903  10.724   5.996
93700SOL     OW82996  10.036   1.054   2.201
93700SOL    HW182997   9.961   1.031   2.257
93700SOL    HW282998  10.108   1.067   2.262
93701SOL     OW82999  13.908  12.560   8.486
93701SOL    HW183000  13.916  12.632   8.548
93701SOL    HW283001  13.987  12.508   8.499
93702SOL     OW83002  12.675  12.265  11.068
93702SOL    HW183003  12.604  12.320  11.035
93702SOL    HW283004  12.743  12.271  11.001
93703SOL     OW83005   8.877   9.467   0.402
93703SOL    HW183006   8.794   9.459   0.355
93703SOL    HW283007   8.856   9.518   0.480
93704SOL     OW83008  10.052  12.275   1.087
93704SOL    HW183009  10.087  12.207   1.145
93704SOL    HW283010   9.957  12.272   1.102
93705SOL     OW83011  14.490   7.435   2.651
93705SOL    HW183012  14.571   7.409   2.696
93705SOL    HW283013  14.521   7.483   2.574
93706SOL     OW83014   5.739  11.559   6.051
93706SOL    HW183015   5.721  11.466   6.040
93706SOL    HW283016   5.763  11.590   5.963
93707SOL     OW83017   0.906   0.401   4.548
93707SOL    HW183018   0.901   0.420   4.454
93707SOL    HW283019   0.978   0.455   4.580
93708SOL     OW83020   4.240   8.150   1.789
93708SOL    HW183021   4.192   8.189   1.717
93708SOL    HW283022   4.201   8.063   1.799
93709SOL     OW83023   6.484  10.796   4.865
93709SOL    HW183024   6.449  10.866   4.811
93709SOL    HW283025   6.503  10.837   4.949
93710SOL     OW83026   6.242   2.102  14.606
93710SOL    HW183027   6.167   2.161  14.618
93710SOL    HW283028   6.313   2.143  14.655
93711SOL     OW83029  12.340   6.487  11.683
93711SOL    HW183030  12.406   6.549  11.652
93711SOL    HW283031  12.262   6.506  11.630
93712SOL     OW83032   1.390  13.248  11.330
93712SOL    HW183033   1.461  13.252  11.265
93712SOL    HW283034   1.315  13.216  11.280
93713SOL     OW83035   3.589  11.966  14.265
93713SOL    HW183036   3.625  11.897  14.211
93713SOL    HW283037   3.506  11.930  14.298
93714SOL     OW83038   5.682   2.342  12.209
93714SOL    HW183039   5.757   2.291  12.178
93714SOL    HW283040   5.718   2.401  12.275
93715SOL     OW83041   9.482   2.329   5.530
93715SOL    HW183042   9.503   2.373   5.613
93715SOL    HW283043   9.524   2.383   5.463
93716SOL     OW83044   4.676   1.365  12.587
93716SOL    HW183045   4.590   1.344  12.549
93716SOL    HW283046   4.733   1.295  12.557
93717SOL     OW83047   0.683   4.581   6.965
93717SOL    HW183048   0.670   4.523   6.891
93717SOL    HW283049   0.618   4.650   6.954
93718SOL     OW83050  10.663   8.288   4.151
93718SOL    HW183051  10.629   8.249   4.232
93718SOL    HW283052  10.587   8.292   4.093
93719SOL     OW83053   2.820  11.736  11.176
93719SOL    HW183054   2.826  11.642  11.190
93719SOL    HW283055   2.901  11.758  11.130
93720SOL     OW83056  14.741  12.525   7.279
93720SOL    HW183057  14.691  12.570   7.347
93720SOL    HW283058  14.681  12.519   7.205
93721SOL     OW83059  12.718   7.012  14.063
93721SOL    HW183060  12.633   6.978  14.037
93721SOL    HW283061  12.748   6.953  14.133
93722SOL     OW83062   0.482  11.622  13.738
93722SOL    HW183063   0.497  11.691  13.673
93722SOL    HW283064   0.430  11.664  13.806
93723SOL     OW83065   9.412  11.504   5.417
93723SOL    HW183066   9.348  11.457   5.363
93723SOL    HW283067   9.400  11.468   5.505
93724SOL     OW83068   5.944  13.860   8.077
93724SOL    HW183069   5.976  13.909   8.002
93724SOL    HW283070   5.977  13.909   8.153
93725SOL     OW83071   3.835   4.501   2.948
93725SOL    HW183072   3.804   4.590   2.960
93725SOL    HW283073   3.917   4.498   2.999
93726SOL     OW83074   8.624   2.998  11.899
93726SOL    HW183075   8.559   2.928  11.902
93726SOL    HW283076   8.707   2.953  11.884
93727SOL     OW83077   3.319  12.850  10.281
93727SOL    HW183078   3.315  12.938  10.318
93727SOL    HW283079   3.375  12.801  10.342
93728SOL     OW83080   7.849  11.452  12.311
93728SOL    HW183081   7.765  11.449  12.358
93728SOL    HW283082   7.846  11.535  12.264
93729SOL     OW83083  11.977   6.080   9.699
93729SOL    HW183084  11.947   6.081   9.608
93729SOL    HW283085  12.021   6.164   9.711
93730SOL     OW83086   1.484  10.187   5.251
93730SOL    HW183087   1.456  10.276   5.231
93730SOL    HW283088   1.415  10.132   5.213
93731SOL     OW83089   2.747   0.904   4.673
93731SOL    HW183090   2.656   0.932   4.668
93731SOL    HW283091   2.796   0.976   4.635
93732SOL     OW83092   6.464   3.927   5.155
93732SOL    HW183093   6.446   4.013   5.118
93732SOL    HW283094   6.509   3.879   5.085
93733SOL     OW83095   1.661   7.275   1.291
93733SOL    HW183096   1.628   7.293   1.203
93733SOL    HW283097   1.593   7.222   1.333
93734SOL     OW83098   8.162   8.092   6.178
93734SOL    HW183099   8.176   8.118   6.086
93734SOL    HW283100   8.070   8.112   6.194
93735SOL     OW83101  14.829   9.460   7.545
93735SOL    HW183102   0.023   9.470   7.475
93735SOL    HW283103   0.011   9.439   7.622
93736SOL     OW83104  13.164   8.574  12.382
93736SOL    HW183105  13.207   8.565  12.467
93736SOL    HW283106  13.170   8.668  12.362
93737SOL     OW83107   7.960  12.512   5.665
93737SOL    HW183108   7.999  12.589   5.625
93737SOL    HW283109   7.866  12.527   5.661
93738SOL     OW83110   8.765   5.373   0.127
93738SOL    HW183111   8.760   5.278   0.138
93738SOL    HW283112   8.701   5.407   0.190
93739SOL     OW83113  14.352  14.834  14.526
93739SOL    HW183114  14.277   0.005  14.571
93739SOL    HW283115  14.364   0.017  14.447
93740SOL     OW83116  13.960   5.141  14.345
93740SOL    HW183117  14.001   5.061  14.377
93740SOL    HW283118  13.871   5.138  14.381
93741SOL     OW83119   4.391  10.773   9.623
93741SOL    HW183120   4.425  10.758   9.711
93741SOL    HW283121   4.385  10.685   9.585
93742SOL     OW83122   3.456   4.313   6.547
93742SOL    HW183123   3.457   4.382   6.480
93742SOL    HW283124   3.399   4.348   6.616
93743SOL     OW83125   2.113   0.738  12.816
93743SOL    HW183126   2.074   0.656  12.847
93743SOL    HW283127   2.193   0.748  12.869
93744SOL     OW83128  11.493   7.858   1.906
93744SOL    HW183129  11.495   7.913   1.828
93744SOL    HW283130  11.572   7.803   1.899
93745SOL     OW83131   8.340   6.589   8.730
93745SOL    HW183132   8.332   6.677   8.767
93745SOL    HW283133   8.430   6.563   8.749
93746SOL     OW83134  12.483   0.100   0.261
93746SOL    HW183135  12.436   0.079   0.180
93746SOL    HW283136  12.445   0.183   0.290
93747SOL     OW83137   6.900   9.428  14.303
93747SOL    HW183138   6.923   9.337  14.326
93747SOL    HW283139   6.806   9.425  14.285
93748SOL     OW83140   8.000   9.905   9.411
93748SOL    HW183141   7.908   9.879   9.418
93748SOL    HW283142   8.001   9.971   9.343
93749SOL     OW83143   9.805  10.073  11.808
93749SOL    HW183144   9.805  10.060  11.713
93749SOL    HW283145   9.715  10.099  11.828
93750SOL     OW83146   2.732  11.193  13.134
93750SOL    HW183147   2.740  11.193  13.230
93750SOL    HW283148   2.669  11.123  13.115
93751SOL     OW83149   8.653   4.080  13.062
93751SOL    HW183150   8.674   4.162  13.017
93751SOL    HW283151   8.561   4.065  13.041
93752SOL     OW83152  14.768  11.165  13.881
93752SOL    HW183153  14.852  11.186  13.922
93752SOL    HW283154  14.757  11.233  13.814
93753SOL     OW83155   9.892   5.172   3.023
93753SOL    HW183156   9.928   5.145   2.938
93753SOL    HW283157   9.815   5.117   3.035
93754SOL     OW83158   9.280   1.170   5.286
93754SOL    HW183159   9.238   1.226   5.221
93754SOL    HW283160   9.267   1.215   5.369
93755SOL     OW83161   9.191  10.437   5.228
93755SOL    HW183162   9.260  10.399   5.174
93755SOL    HW283163   9.131  10.478   5.165
93756SOL     OW83164  13.396   4.666  13.735
93756SOL    HW183165  13.338   4.590  13.737
93756SOL    HW283166  13.342   4.739  13.767
93757SOL     OW83167   9.580  13.779   9.294
93757SOL    HW183168   9.611  13.747   9.379
93757SOL    HW283169   9.533  13.705   9.256
93758SOL     OW83170   4.864   2.963  11.436
93758SOL    HW183171   4.957   2.983  11.424
93758SOL    HW283172   4.820   3.018  11.372
93759SOL     OW83173   4.009  14.295   6.933
93759SOL    HW183174   3.970  14.214   6.967
93759SOL    HW283175   4.024  14.348   7.010
93760SOL     OW83176   3.207   0.336   1.745
93760SOL    HW183177   3.197   0.390   1.667
93760SOL    HW283178   3.144   0.265   1.734
93761SOL     OW83179   6.192   8.100  10.289
93761SOL    HW183180   6.238   8.123  10.209
93761SOL    HW283181   6.253   8.045  10.338
93762SOL     OW83182   7.138   8.409   0.283
93762SOL    HW183183   7.098   8.480   0.233
93762SOL    HW283184   7.109   8.329   0.239
93763SOL     OW83185   6.445   9.700   2.483
93763SOL    HW183186   6.537   9.710   2.458
93763SOL    HW283187   6.403   9.663   2.405
93764SOL     OW83188   9.338  14.510   4.354
93764SOL    HW183189   9.398  14.498   4.427
93764SOL    HW283190   9.360  14.596   4.318
93765SOL     OW83191   2.712   9.670   6.831
93765SOL    HW183192   2.792   9.622   6.807
93765SOL    HW283193   2.655   9.604   6.870
93766SOL     OW83194   5.113   2.196   0.622
93766SOL    HW183195   5.109   2.291   0.626
93766SOL    HW283196   5.028   2.169   0.587
93767SOL     OW83197  10.916   7.613   6.899
93767SOL    HW183198  10.943   7.529   6.938
93767SOL    HW283199  10.946   7.679   6.961
93768SOL     OW83200   7.425  11.718  13.278
93768SOL    HW183201   7.405  11.732  13.186
93768SOL    HW283202   7.458  11.628  13.282
93769SOL     OW83203  11.841   3.191   4.801
93769SOL    HW183204  11.786   3.158   4.731
93769SOL    HW283205  11.808   3.279   4.818
93770SOL     OW83206   7.231  10.645   4.906
93770SOL    HW183207   7.178  10.582   4.954
93770SOL    HW283208   7.170  10.714   4.880
93771SOL     OW83209   3.071   1.857   1.527
93771SOL    HW183210   3.103   1.942   1.496
93771SOL    HW283211   3.097   1.796   1.458
93772SOL     OW83212   6.168   2.015   9.890
93772SOL    HW183213   6.201   1.926   9.887
93772SOL    HW283214   6.240   2.066   9.927
93773SOL     OW83215   7.481   0.801   4.922
93773SOL    HW183216   7.530   0.851   4.857
93773SOL    HW283217   7.484   0.855   5.002
93774SOL     OW83218  14.430   8.699   3.783
93774SOL    HW183219  14.442   8.604   3.788
93774SOL    HW283220  14.464   8.732   3.866
93775SOL     OW83221  13.540  14.299   5.077
93775SOL    HW183222  13.576  14.219   5.115
93775SOL    HW283223  13.446  14.292   5.090
93776SOL     OW83224  14.249   7.505   4.336
93776SOL    HW183225  14.159   7.478   4.320
93776SOL    HW283226  14.251   7.598   4.313
93777SOL     OW83227   9.292   2.193   1.877
93777SOL    HW183228   9.337   2.183   1.793
93777SOL    HW283229   9.310   2.284   1.903
93778SOL     OW83230   1.364   0.267  14.157
93778SOL    HW183231   1.421   0.198  14.124
93778SOL    HW283232   1.415   0.347  14.149
93779SOL     OW83233   7.790   8.569  12.513
93779SOL    HW183234   7.791   8.474  12.517
93779SOL    HW283235   7.727   8.595  12.581
93780SOL     OW83236  11.267   9.820   0.055
93780SOL    HW183237  11.249   9.744  14.870
93780SOL    HW283238  11.189   9.828   0.111
93781SOL     OW83239  12.572   8.299   3.564
93781SOL    HW183240  12.554   8.379   3.515
93781SOL    HW283241  12.662   8.310   3.596
93782SOL     OW83242  10.327  10.285  13.864
93782SOL    HW183243  10.339  10.315  13.774
93782SOL    HW283244  10.233  10.267  13.871
93783SOL     OW83245   5.741  11.408   4.452
93783SOL    HW183246   5.831  11.424   4.479
93783SOL    HW283247   5.717  11.326   4.496
93784SOL     OW83248  10.350  10.696   8.212
93784SOL    HW183249  10.330  10.698   8.118
93784SOL    HW283250  10.397  10.613   8.225
93785SOL     OW83251  10.965   1.700   2.200
93785SOL    HW183252  10.879   1.738   2.182
93785SOL    HW283253  10.966   1.618   2.151
93786SOL     OW83254   0.518  12.850  11.515
93786SOL    HW183255   0.431  12.868  11.549
93786SOL    HW283256   0.544  12.931  11.471
93787SOL     OW83257   7.663   3.610   0.642
93787SOL    HW183258   7.643   3.522   0.674
93787SOL    HW283259   7.617   3.616   0.558
93788SOL     OW83260   8.321   0.851  14.729
93788SOL    HW183261   8.243   0.871  14.781
93788SOL    HW283262   8.391   0.844  14.794
93789SOL     OW83263   4.013   9.082  12.739
93789SOL    HW183264   4.065   9.085  12.659
93789SOL    HW283265   3.922   9.072  12.709
93790SOL     OW83266   4.648   9.287  14.566
93790SOL    HW183267   4.597   9.341  14.506
93790SOL    HW283268   4.642   9.331  14.650
93791SOL     OW83269   4.388   5.717   5.482
93791SOL    HW183270   4.399   5.636   5.532
93791SOL    HW283271   4.468   5.767   5.500
93792SOL     OW83272   2.334   0.238  10.071
93792SOL    HW183273   2.286   0.320  10.078
93792SOL    HW283274   2.312   0.205   9.984
93793SOL     OW83275   7.894   2.995  14.775
93793SOL    HW183276   7.868   2.975  14.865
93793SOL    HW283277   7.814   3.030  14.734
93794SOL     OW83278   7.050   0.235  11.560
93794SOL    HW183279   6.994   0.297  11.608
93794SOL    HW283280   7.139   0.264  11.579
93795SOL     OW83281  10.662   0.264   8.125
93795SOL    HW183282  10.632   0.195   8.184
93795SOL    HW283283  10.725   0.314   8.177
93796SOL     OW83284  14.005   5.620  11.885
93796SOL    HW183285  13.913   5.604  11.866
93796SOL    HW283286  14.015   5.715  11.879
93797SOL     OW83287   4.277   1.073   8.800
93797SOL    HW183288   4.364   1.034   8.793
93797SOL    HW283289   4.265   1.121   8.718
93798SOL     OW83290  12.410   4.005   6.091
93798SOL    HW183291  12.476   4.064   6.128
93798SOL    HW283292  12.347   4.064   6.049
93799SOL     OW83293   4.178   0.527   3.871
93799SOL    HW183294   4.095   0.490   3.839
93799SOL    HW283295   4.210   0.463   3.934
93800SOL     OW83296  11.886  13.454  13.665
93800SOL    HW183297  11.877  13.535  13.715
93800SOL    HW283298  11.797  13.434  13.636
93801SOL     OW83299   3.877  11.927   3.184
93801SOL    HW183300   3.815  11.904   3.253
93801SOL    HW283301   3.823  11.939   3.106
93802SOL     OW83302   1.654   9.682   9.385
93802SOL    HW183303   1.657   9.591   9.355
93802SOL    HW283304   1.746   9.705   9.397
93803SOL     OW83305  14.562   8.637   4.054
93803SOL    HW183306  14.619   8.698   4.101
93803SOL    HW283307  14.515   8.589   4.122
93804SOL     OW83308   1.602  13.902  11.748
93804SOL    HW183309   1.607  13.993  11.776
93804SOL    HW283310   1.511  13.877  11.764
93805SOL     OW83311  13.569   2.610  14.667
93805SOL    HW183312  13.513   2.684  14.645
93805SOL    HW283313  13.544   2.586  14.756
93806SOL     OW83314   4.626   0.245   9.913
93806SOL    HW183315   4.718   0.238   9.888
93806SOL    HW283316   4.579   0.251   9.830
93807SOL     OW83317  14.029   7.072  10.005
93807SOL    HW183318  14.083   7.121  10.066
93807SOL    HW283319  13.957   7.131   9.983
93808SOL     OW83320   2.390   4.663   2.500
93808SOL    HW183321   2.357   4.621   2.421
93808SOL    HW283322   2.324   4.729   2.521
93809SOL     OW83323   4.758   3.697  13.529
93809SOL    HW183324   4.822   3.768  13.526
93809SOL    HW283325   4.795   3.629  13.474
93810SOL     OW83326   6.051   9.969  13.866
93810SOL    HW183327   6.024   9.891  13.817
93810SOL    HW283328   5.969  10.004  13.901
93811SOL     OW83329   8.289   4.294   9.632
93811SOL    HW183330   8.204   4.283   9.675
93811SOL    HW283331   8.314   4.206   9.604
93812SOL     OW83332   8.702  12.548   2.840
93812SOL    HW183333   8.718  12.544   2.934
93812SOL    HW283334   8.726  12.462   2.808
93813SOL     OW83335  14.832   5.931   8.663
93813SOL    HW183336  14.779   5.995   8.709
93813SOL    HW283337  14.770   5.887   8.604
93814SOL     OW83338   0.438   5.046   6.270
93814SOL    HW183339   0.459   5.040   6.177
93814SOL    HW283340   0.390   5.128   6.279
93815SOL     OW83341   5.493   6.005   8.021
93815SOL    HW183342   5.398   6.010   8.017
93815SOL    HW283343   5.523   6.085   7.977
93816SOL     OW83344   5.663   9.300  12.871
93816SOL    HW183345   5.580   9.320  12.914
93816SOL    HW283346   5.639   9.244  12.797
93817SOL     OW83347  14.203  13.358   9.779
93817SOL    HW183348  14.236  13.315   9.700
93817SOL    HW283349  14.141  13.423   9.748
93818SOL     OW83350  12.184  12.048   1.227
93818SOL    HW183351  12.094  12.056   1.195
93818SOL    HW283352  12.200  11.954   1.229
93819SOL     OW83353  13.657   3.795  13.064
93819SOL    HW183354  13.635   3.793  12.970
93819SOL    HW283355  13.698   3.880  13.077
93820SOL     OW83356  11.321   5.573   9.227
93820SOL    HW183357  11.386   5.636   9.197
93820SOL    HW283358  11.289   5.531   9.147
93821SOL     OW83359  13.357   3.830   8.869
93821SOL    HW183360  13.359   3.876   8.785
93821SOL    HW283361  13.339   3.739   8.846
93822SOL     OW83362  14.316   3.640   6.572
93822SOL    HW183363  14.399   3.593   6.565
93822SOL    HW283364  14.281   3.614   6.657
93823SOL     OW83365  13.743   5.063   5.559
93823SOL    HW183366  13.740   4.972   5.589
93823SOL    HW283367  13.750   5.057   5.464
93824SOL     OW83368  10.676  12.403   9.845
93824SOL    HW183369  10.686  12.493   9.877
93824SOL    HW283370  10.726  12.401   9.763
93825SOL     OW83371   1.303   1.523  14.471
93825SOL    HW183372   1.348   1.554  14.549
93825SOL    HW283373   1.253   1.599  14.440
93826SOL     OW83374   4.835   5.717  13.274
93826SOL    HW183375   4.888   5.797  13.267
93826SOL    HW283376   4.835   5.697  13.368
93827SOL     OW83377  13.534  10.221   5.651
93827SOL    HW183378  13.590  10.293   5.624
93827SOL    HW283379  13.448  10.243   5.615
93828SOL     OW83380   0.607  14.847  14.636
93828SOL    HW183381   0.615   0.044  14.567
93828SOL    HW283382   0.568   0.025  14.710
93829SOL     OW83383   4.522  11.802   0.879
93829SOL    HW183384   4.543  11.894   0.862
93829SOL    HW283385   4.573  11.780   0.957
93830SOL     OW83386   3.929  11.493   0.250
93830SOL    HW183387   3.981  11.502   0.170
93830SOL    HW283388   3.862  11.561   0.244
93831SOL     OW83389   9.128  12.874   2.564
93831SOL    HW183390   9.081  12.792   2.579
93831SOL    HW283391   9.064  12.942   2.580
93832SOL     OW83392  11.377   9.529   6.534
93832SOL    HW183393  11.389   9.449   6.482
93832SOL    HW283394  11.313   9.580   6.484
93833SOL     OW83395  14.061  14.769  13.508
93833SOL    HW183396  13.969  14.744  13.516
93833SOL    HW283397  14.095  14.714  13.437
93834SOL     OW83398   8.015   3.432  13.433
93834SOL    HW183399   8.053   3.345  13.441
93834SOL    HW283400   7.921   3.416  13.420
93835SOL     OW83401  14.450   8.224   6.392
93835SOL    HW183402  14.497   8.236   6.310
93835SOL    HW283403  14.497   8.154   6.437
93836SOL     OW83404  13.970   0.084  12.657
93836SOL    HW183405  14.029   0.159  12.650
93836SOL    HW283406  13.969   0.064  12.750
93837SOL     OW83407  13.235   2.652   4.356
93837SOL    HW183408  13.307   2.709   4.384
93837SOL    HW283409  13.177   2.708   4.306
93838SOL     OW83410  11.257   0.536   7.365
93838SOL    HW183411  11.281   0.629   7.373
93838SOL    HW283412  11.163   0.534   7.383
93839SOL     OW83413  10.335   5.011   9.413
93839SOL    HW183414  10.323   5.090   9.360
93839SOL    HW283415  10.348   4.942   9.348
93840SOL     OW83416  12.409  13.185   5.813
93840SOL    HW183417  12.409  13.212   5.905
93840SOL    HW283418  12.400  13.090   5.816
93841SOL     OW83419  14.600  14.775  14.025
93841SOL    HW183420  14.509  14.753  14.040
93841SOL    HW283421  14.619  14.844  14.088
93842SOL     OW83422   6.971   2.363  13.240
93842SOL    HW183423   7.055   2.389  13.201
93842SOL    HW283424   6.995   2.331  13.327
93843SOL     OW83425  10.613  10.445   8.574
93843SOL    HW183426  10.655  10.403   8.499
93843SOL    HW283427  10.663  10.414   8.649
93844SOL     OW83428   5.798   5.329   1.839
93844SOL    HW183429   5.818   5.364   1.926
93844SOL    HW283430   5.822   5.236   1.845
93845SOL     OW83431  13.651  13.732   7.006
93845SOL    HW183432  13.726  13.778   6.969
93845SOL    HW283433  13.633  13.662   6.943
93846SOL     OW83434  11.728  13.778   5.059
93846SOL    HW183435  11.682  13.796   4.977
93846SOL    HW283436  11.697  13.847   5.118
93847SOL     OW83437   3.972  13.796   8.494
93847SOL    HW183438   4.036  13.755   8.552
93847SOL    HW283439   3.985  13.890   8.506
93848SOL     OW83440  13.347  14.847  14.549
93848SOL    HW183441  13.325   0.031  14.472
93848SOL    HW283442  13.406   0.032  14.600
93849SOL     OW83443   0.656   2.365   4.864
93849SOL    HW183444   0.664   2.345   4.958
93849SOL    HW283445   0.575   2.321   4.837
93850SOL     OW83446   1.601   9.349  14.264
93850SOL    HW183447   1.614   9.440  14.241
93850SOL    HW283448   1.559   9.352  14.350
93851SOL     OW83449   1.505  13.101   3.304
93851SOL    HW183450   1.472  13.013   3.286
93851SOL    HW283451   1.448  13.134   3.373
93852SOL     OW83452   5.155   4.340   8.001
93852SOL    HW183453   5.237   4.388   8.015
93852SOL    HW283454   5.119   4.330   8.089
93853SOL     OW83455   2.454   1.867   3.085
93853SOL    HW183456   2.408   1.950   3.075
93853SOL    HW283457   2.530   1.875   3.028
93854SOL     OW83458   2.051  11.674  13.288
93854SOL    HW183459   1.999  11.594  13.278
93854SOL    HW283460   2.130  11.658  13.235
93855SOL     OW83461  11.927   4.338   3.615
93855SOL    HW183462  11.870   4.408   3.583
93855SOL    HW283463  11.944   4.360   3.706
93856SOL     OW83464  12.486   6.642   4.953
93856SOL    HW183465  12.442   6.593   4.883
93856SOL    HW283466  12.430   6.719   4.967
93857SOL     OW83467  11.207   5.680   0.394
93857SOL    HW183468  11.258   5.672   0.314
93857SOL    HW283469  11.117   5.660   0.368
93858SOL     OW83470   0.405   0.153   5.453
93858SOL    HW183471   0.341   0.116   5.392
93858SOL    HW283472   0.359   0.154   5.537
93859SOL     OW83473   8.693  13.768  11.348
93859SOL    HW183474   8.741  13.850  11.336
93859SOL    HW283475   8.743  13.704  11.298
93860SOL     OW83476  14.607   3.708  12.526
93860SOL    HW183477  14.698   3.711  12.554
93860SOL    HW283478  14.557   3.706  12.607
93861SOL     OW83479  10.784  11.964  11.798
93861SOL    HW183480  10.873  11.932  11.787
93861SOL    HW283481  10.775  11.977  11.893
93862SOL     OW83482  10.692  13.260  14.497
93862SOL    HW183483  10.639  13.229  14.570
93862SOL    HW283484  10.687  13.355  14.501
93863SOL     OW83485   4.803  10.330   0.199
93863SOL    HW183486   4.876  10.280   0.163
93863SOL    HW283487   4.763  10.373   0.124
93864SOL     OW83488   0.986  12.408   3.291
93864SOL    HW183489   1.038  12.479   3.254
93864SOL    HW283490   0.947  12.445   3.370
93865SOL     OW83491  13.820  10.215   2.162
93865SOL    HW183492  13.869  10.292   2.134
93865SOL    HW283493  13.880  10.168   2.220
93866SOL     OW83494   6.943  14.475   3.204
93866SOL    HW183495   6.947  14.519   3.289
93866SOL    HW283496   6.849  14.470   3.184
93867SOL     OW83497   5.203   1.048   2.681
93867SOL    HW183498   5.127   1.029   2.737
93867SOL    HW283499   5.278   1.020   2.732
93868SOL     OW83500  14.311   5.886   9.448
93868SOL    HW183501  14.349   5.864   9.363
93868SOL    HW283502  14.350   5.970   9.472
93869SOL     OW83503   0.045   1.710   9.045
93869SOL    HW183504   0.057   1.625   9.088
93869SOL    HW283505   0.037   1.772   9.117
93870SOL     OW83506  10.024   5.173   8.645
93870SOL    HW183507  10.003   5.087   8.608
93870SOL    HW283508   9.941   5.220   8.643
93871SOL     OW83509  11.175   9.832  12.446
93871SOL    HW183510  11.263   9.859  12.473
93871SOL    HW283511  11.146   9.900  12.385
93872SOL     OW83512   2.356  11.783   5.341
93872SOL    HW183513   2.278  11.760   5.391
93872SOL    HW283514   2.325  11.847   5.277
93873SOL     OW83515   2.899   3.416   0.087
93873SOL    HW183516   2.875   3.337   0.038
93873SOL    HW283517   2.913   3.483   0.020
93874SOL     OW83518   1.992  14.133  13.947
93874SOL    HW183519   2.044  14.096  13.876
93874SOL    HW283520   2.007  14.074  14.021
93875SOL     OW83521   5.668   6.379   5.915
93875SOL    HW183522   5.573   6.380   5.929
93875SOL    HW283523   5.686   6.290   5.886
93876SOL     OW83524   7.695   9.599  14.140
93876SOL    HW183525   7.649   9.670  14.096
93876SOL    HW283526   7.626   9.553  14.189
93877SOL     OW83527  14.406   8.256   5.687
93877SOL    HW183528  14.401   8.275   5.781
93877SOL    HW283529  14.411   8.342   5.646
93878SOL     OW83530   8.790  14.111  11.600
93878SOL    HW183531   8.815  14.200  11.625
93878SOL    HW283532   8.853  14.056  11.646
93879SOL     OW83533   5.190  13.305  13.951
93879SOL    HW183534   5.107  13.306  13.904
93879SOL    HW283535   5.235  13.227  13.919
93880SOL     OW83536   3.003   2.131  11.521
93880SOL    HW183537   2.968   2.128  11.610
93880SOL    HW283538   3.079   2.188  11.527
93881SOL     OW83539   1.328   7.085   8.064
93881SOL    HW183540   1.407   7.034   8.049
93881SOL    HW283541   1.262   7.046   8.007
93882SOL     OW83542   7.137   7.632   4.231
93882SOL    HW183543   7.049   7.668   4.216
93882SOL    HW283544   7.137   7.604   4.322
93883SOL     OW83545   0.981   9.131   0.917
93883SOL    HW183546   0.940   9.137   0.831
93883SOL    HW283547   0.917   9.168   0.977
93884SOL     OW83548   1.369   4.700  13.487
93884SOL    HW183549   1.418   4.745  13.556
93884SOL    HW283550   1.395   4.745  13.407
93885SOL     OW83551  12.461   9.463   5.808
93885SOL    HW183552  12.500   9.503   5.730
93885SOL    HW283553  12.386   9.414   5.775
93886SOL     OW83554   1.497   4.119  14.287
93886SOL    HW183555   1.500   4.211  14.311
93886SOL    HW283556   1.501   4.118  14.192
93887SOL     OW83557  10.872   6.100   5.111
93887SOL    HW183558  10.930   6.164   5.070
93887SOL    HW283559  10.784   6.128   5.086
93888SOL     OW83560   6.130  12.436   6.845
93888SOL    HW183561   6.109  12.373   6.913
93888SOL    HW283562   6.103  12.521   6.882
93889SOL     OW83563   7.728   0.152  14.051
93889SOL    HW183564   7.638   0.123  14.066
93889SOL    HW283565   7.771   0.076  14.011
93890SOL     OW83566   9.391   1.932   7.553
93890SOL    HW183567   9.446   1.997   7.509
93890SOL    HW283568   9.335   1.897   7.483
93891SOL     OW83569   6.028  14.800   7.618
93891SOL    HW183570   5.963  14.859   7.580
93891SOL    HW283571   5.985  14.714   7.619
93892SOL     OW83572   7.919   9.988  10.372
93892SOL    HW183573   7.917  10.084  10.379
93892SOL    HW283574   7.902   9.971  10.279
93893SOL     OW83575   7.674   7.759  11.627
93893SOL    HW183576   7.650   7.823  11.561
93893SOL    HW283577   7.769   7.752  11.621
93894SOL     OW83578   3.472   6.196   4.803
93894SOL    HW183579   3.458   6.128   4.869
93894SOL    HW283580   3.539   6.253   4.840
93895SOL     OW83581   5.115  11.049  10.909
93895SOL    HW183582   5.110  11.058  10.814
93895SOL    HW283583   5.056  10.976  10.930
93896SOL     OW83584   5.528   7.077  11.418
93896SOL    HW183585   5.513   6.984  11.436
93896SOL    HW283586   5.452   7.121  11.456
93897SOL     OW83587  14.416  11.436   3.133
93897SOL    HW183588  14.490  11.446   3.194
93897SOL    HW283589  14.342  11.415   3.189
93898SOL     OW83590   1.247   2.359   4.929
93898SOL    HW183591   1.333   2.350   4.971
93898SOL    HW283592   1.192   2.297   4.976
93899SOL     OW83593  13.637   1.394   4.896
93899SOL    HW183594  13.683   1.348   4.967
93899SOL    HW283595  13.645   1.335   4.820
93900SOL     OW83596   0.277   7.225   4.918
93900SOL    HW183597   0.227   7.279   4.858
93900SOL    HW283598   0.225   7.146   4.928
93901SOL     OW83599   5.404   8.795  13.567
93901SOL    HW183600   5.475   8.855  13.544
93901SOL    HW283601   5.418   8.720  13.508
93902SOL     OW83602   1.273   5.743   7.365
93902SOL    HW183603   1.360   5.703   7.371
93902SOL    HW283604   1.290   5.837   7.360
93903SOL     OW83605  11.261  10.339   9.649
93903SOL    HW183606  11.355  10.322   9.639
93903SOL    HW283607  11.248  10.425   9.610
93904SOL     OW83608   7.774  10.164  10.062
93904SOL    HW183609   7.764  10.128   9.974
93904SOL    HW283610   7.711  10.235  10.066
93905SOL     OW83611   7.880  12.449   3.818
93905SOL    HW183612   7.880  12.491   3.903
93905SOL    HW283613   7.918  12.514   3.759
93906SOL     OW83614   9.503   4.425   9.839
93906SOL    HW183615   9.538   4.396   9.923
93906SOL    HW283616   9.528   4.517   9.832
93907SOL     OW83617   7.470  14.820   9.044
93907SOL    HW183618   7.542  14.763   9.072
93907SOL    HW283619   7.508   0.038   9.046
93908SOL     OW83620   0.238  14.257  10.571
93908SOL    HW183621   0.269  14.176  10.530
93908SOL    HW283622   0.268  14.327  10.512
93909SOL     OW83623   9.990   0.846   7.930
93909SOL    HW183624   9.922   0.845   7.863
93909SOL    HW283625  10.070   0.822   7.883
93910SOL     OW83626  10.785   7.563   5.520
93910SOL    HW183627  10.725   7.488   5.520
93910SOL    HW283628  10.840   7.549   5.443
93911SOL     OW83629  14.083   4.713   3.420
93911SOL    HW183630  14.150   4.781   3.421
93911SOL    HW283631  14.002   4.757   3.395
93912SOL     OW83632   8.295  13.772   0.586
93912SOL    HW183633   8.262  13.738   0.503
93912SOL    HW283634   8.221  13.765   0.646
93913SOL     OW83635   4.350  12.879   1.296
93913SOL    HW183636   4.276  12.912   1.347
93913SOL    HW283637   4.391  12.813   1.352
93914SOL     OW83638   5.370   8.175   0.307
93914SOL    HW183639   5.438   8.209   0.248
93914SOL    HW283640   5.418   8.126   0.373
93915SOL     OW83641  11.048  14.471  13.169
93915SOL    HW183642  11.117  14.404  13.176
93915SOL    HW283643  10.970  14.422  13.143
93916SOL     OW83644   8.068   3.014   6.397
93916SOL    HW183645   8.083   3.107   6.417
93916SOL    HW283646   8.152   2.982   6.365
93917SOL     OW83647  13.138  11.382   8.761
93917SOL    HW183648  13.179  11.314   8.815
93917SOL    HW283649  13.097  11.442   8.824
93918SOL     OW83650  10.078  11.220  13.221
93918SOL    HW183651  10.108  11.172  13.145
93918SOL    HW283652  10.135  11.297  13.227
93919SOL     OW83653   8.688  14.694  10.135
93919SOL    HW183654   8.596  14.685  10.109
93919SOL    HW283655   8.685  14.701  10.230
93920SOL     OW83656  13.403   7.936  13.292
93920SOL    HW183657  13.359   7.992  13.356
93920SOL    HW283658  13.333   7.882  13.256
93921SOL     OW83659   7.261   4.988   7.506
93921SOL    HW183660   7.216   5.057   7.458
93921SOL    HW283661   7.336   5.031   7.546
93922SOL     OW83662  11.592   2.404   3.031
93922SOL    HW183663  11.688   2.403   3.039
93922SOL    HW283664  11.563   2.463   3.101
93923SOL     OW83665   8.078   9.263  11.403
93923SOL    HW183666   8.065   9.358  11.406
93923SOL    HW283667   8.052   9.232  11.489
93924SOL     OW83668  13.718   7.387   3.835
93924SOL    HW183669  13.647   7.433   3.791
93924SOL    HW283670  13.733   7.309   3.783
93925SOL     OW83671   8.802   8.962   3.742
93925SOL    HW183672   8.828   8.879   3.781
93925SOL    HW283673   8.743   8.937   3.670
93926SOL     OW83674  10.878   6.511  12.161
93926SOL    HW183675  10.904   6.577  12.096
93926SOL    HW283676  10.861   6.562  12.241
93927SOL     OW83677   5.714   6.002   4.441
93927SOL    HW183678   5.643   6.035   4.496
93927SOL    HW283679   5.676   5.928   4.394
93928SOL     OW83680  12.982  12.348  14.820
93928SOL    HW183681  12.979  12.292  14.742
93928SOL    HW283682  12.926  12.423  14.798
93929SOL     OW83683   6.112  13.324   4.640
93929SOL    HW183684   6.039  13.371   4.680
93929SOL    HW283685   6.090  13.323   4.546
93930SOL     OW83686   8.177  11.614  12.267
93930SOL    HW183687   8.082  11.615  12.258
93930SOL    HW283688   8.193  11.643  12.357
93931SOL     OW83689   5.504  11.127   1.082
93931SOL    HW183690   5.539  11.085   1.004
93931SOL    HW283691   5.458  11.204   1.049
93932SOL     OW83692   7.117  11.937   3.853
93932SOL    HW183693   7.123  11.902   3.764
93932SOL    HW283694   7.138  11.863   3.910
93933SOL     OW83695   5.746   1.478   2.541
93933SOL    HW183696   5.830   1.511   2.509
93933SOL    HW283697   5.693   1.556   2.557
93934SOL     OW83698   0.558  12.905  10.117
93934SOL    HW183699   0.592  12.816  10.128
93934SOL    HW283700   0.499  12.899  10.043
93935SOL     OW83701   3.551   0.214   8.400
93935SOL    HW183702   3.587   0.133   8.435
93935SOL    HW283703   3.614   0.281   8.426
93936SOL     OW83704   4.420   5.220  13.061
93936SOL    HW183705   4.485   5.157  13.094
93936SOL    HW283706   4.421   5.290  13.127
93937SOL     OW83707  11.913   2.993  10.960
93937SOL    HW183708  11.938   2.961  11.047
93937SOL    HW283709  11.975   3.064  10.942
93938SOL     OW83710   0.427   5.411   6.512
93938SOL    HW183711   0.483   5.393   6.586
93938SOL    HW283712   0.486   5.417   6.437
93939SOL     OW83713   7.194   2.897   7.970
93939SOL    HW183714   7.204   2.892   7.875
93939SOL    HW283715   7.210   2.989   7.991
93940SOL     OW83716  12.660   4.992   5.118
93940SOL    HW183717  12.723   5.036   5.174
93940SOL    HW283718  12.623   4.922   5.172
93941SOL     OW83719   7.870   3.643   2.706
93941SOL    HW183720   7.951   3.656   2.756
93941SOL    HW283721   7.818   3.721   2.724
93942SOL     OW83722  10.128   7.236   1.509
93942SOL    HW183723  10.052   7.293   1.513
93942SOL    HW283724  10.129   7.202   1.420
93943SOL     OW83725  13.663   8.193  13.325
93943SOL    HW183726  13.716   8.245  13.386
93943SOL    HW283727  13.667   8.242  13.243
93944SOL     OW83728  11.164   5.627   9.718
93944SOL    HW183729  11.143   5.720   9.720
93944SOL    HW283730  11.256   5.623   9.746
93945SOL     OW83731   2.672  12.546   5.780
93945SOL    HW183732   2.730  12.543   5.857
93945SOL    HW283733   2.726  12.585   5.711
93946SOL     OW83734  10.872   4.629   7.953
93946SOL    HW183735  10.817   4.609   7.877
93946SOL    HW283736  10.939   4.689   7.918
93947SOL     OW83737   8.741  12.400  12.358
93947SOL    HW183738   8.816  12.345  12.381
93947SOL    HW283739   8.667  12.340  12.358
93948SOL     OW83740   1.109  13.039   9.086
93948SOL    HW183741   1.138  13.130   9.083
93948SOL    HW283742   1.177  12.993   9.134
93949SOL     OW83743  14.848   8.132   3.322
93949SOL    HW183744  14.854   8.082   3.404
93949SOL    HW283745   0.066   8.167   3.309
93950SOL     OW83746   8.445   2.053  11.547
93950SOL    HW183747   8.410   1.964  11.552
93950SOL    HW283748   8.464   2.077  11.638
93951SOL     OW83749   0.789   1.646   3.049
93951SOL    HW183750   0.757   1.557   3.061
93951SOL    HW283751   0.710   1.698   3.035
93952SOL     OW83752   6.789   2.345   1.952
93952SOL    HW183753   6.795   2.356   2.046
93952SOL    HW283754   6.874   2.373   1.918
93953SOL     OW83755  11.258   7.128   0.798
93953SOL    HW183756  11.207   7.136   0.878
93953SOL    HW283757  11.312   7.050   0.812
93954SOL     OW83758   2.270   2.168   5.576
93954SOL    HW183759   2.277   2.117   5.495
93954SOL    HW283760   2.361   2.184   5.603
93955SOL     OW83761   4.221   3.316   6.507
93955SOL    HW183762   4.137   3.349   6.476
93955SOL    HW283763   4.233   3.356   6.593
93956SOL     OW83764  14.298  14.023  13.242
93956SOL    HW183765  14.247  14.102  13.260
93956SOL    HW283766  14.242  13.951  13.269
93957SOL     OW83767  12.613  14.546   8.368
93957SOL    HW183768  12.633  14.470   8.314
93957SOL    HW283769  12.646  14.621   8.317
93958SOL     OW83770  10.115   4.244   6.516
93958SOL    HW183771  10.152   4.332   6.525
93958SOL    HW283772  10.187   4.185   6.541
93959SOL     OW83773   0.785   9.925  11.310
93959SOL    HW183774   0.846   9.979  11.360
93959SOL    HW283775   0.744   9.869  11.376
93960SOL     OW83776   1.334   6.603   2.034
93960SOL    HW183777   1.388   6.613   1.956
93960SOL    HW283778   1.387   6.640   2.105
93961SOL     OW83779  10.770   1.007  12.717
93961SOL    HW183780  10.698   1.018  12.655
93961SOL    HW283781  10.835   1.072  12.690
93962SOL     OW83782   0.799   5.821   7.431
93962SOL    HW183783   0.755   5.823   7.346
93962SOL    HW283784   0.864   5.752   7.422
93963SOL     OW83785  14.124  14.371  12.373
93963SOL    HW183786  14.132  14.278  12.355
93963SOL    HW283787  14.156  14.414  12.293
93964SOL     OW83788  11.783   8.961   3.978
93964SOL    HW183789  11.728   8.885   3.995
93964SOL    HW283790  11.723   9.026   3.942
93965SOL     OW83791   7.402   1.770   7.542
93965SOL    HW183792   7.350   1.829   7.487
93965SOL    HW283793   7.480   1.821   7.564
93966SOL     OW83794  11.452  12.421  13.290
93966SOL    HW183795  11.443  12.331  13.259
93966SOL    HW283796  11.379  12.468  13.250
93967SOL     OW83797   0.523   3.461   6.490
93967SOL    HW183798   0.593   3.514   6.451
93967SOL    HW283799   0.500   3.397   6.423
93968SOL     OW83800  11.716   5.763  10.159
93968SOL    HW183801  11.752   5.829  10.218
93968SOL    HW283802  11.695   5.811  10.079
93969SOL     OW83803   2.476   5.869   9.401
93969SOL    HW183804   2.438   5.946   9.358
93969SOL    HW283805   2.416   5.850   9.473
93970SOL     OW83806   1.922   4.111  12.918
93970SOL    HW183807   1.888   4.093  12.831
93970SOL    HW283808   2.001   4.164  12.902
93971SOL     OW83809   8.546   4.701   3.124
93971SOL    HW183810   8.510   4.696   3.212
93971SOL    HW283811   8.485   4.756   3.075
93972SOL     OW83812   5.338  10.417   0.136
93972SOL    HW183813   5.291  10.401   0.217
93972SOL    HW283814   5.306  10.502   0.106
93973SOL     OW83815  13.304   5.594   7.326
93973SOL    HW183816  13.325   5.539   7.401
93973SOL    HW283817  13.374   5.576   7.263
93974SOL     OW83818  10.660   5.898   9.002
93974SOL    HW183819  10.626   5.850   9.078
93974SOL    HW283820  10.755   5.891   9.009
93975SOL     OW83821  12.097   5.726   5.632
93975SOL    HW183822  12.060   5.637   5.628
93975SOL    HW283823  12.161   5.722   5.702
93976SOL     OW83824   5.527   1.034   2.391
93976SOL    HW183825   5.514   0.951   2.346
93976SOL    HW283826   5.621   1.053   2.382
93977SOL     OW83827   7.151  11.512   1.776
93977SOL    HW183828   7.121  11.495   1.865
93977SOL    HW283829   7.107  11.593   1.751
93978SOL     OW83830   7.932  14.486   6.329
93978SOL    HW183831   7.892  14.558   6.281
93978SOL    HW283832   8.022  14.482   6.296
93979SOL     OW83833   9.140   1.284  12.275
93979SOL    HW183834   9.131   1.380  12.280
93979SOL    HW283835   9.174   1.268  12.187
93980SOL     OW83836  14.750  13.263  14.612
93980SOL    HW183837  14.733  13.178  14.572
93980SOL    HW283838  14.694  13.264  14.690
93981SOL     OW83839   1.583   9.773   1.828
93981SOL    HW183840   1.661   9.718   1.830
93981SOL    HW283841   1.555   9.778   1.920
93982SOL     OW83842   1.624  10.451   2.502
93982SOL    HW183843   1.603  10.464   2.409
93982SOL    HW283844   1.687  10.379   2.502
93983SOL     OW83845   2.655   1.015   9.285
93983SOL    HW183846   2.742   1.001   9.321
93983SOL    HW283847   2.596   0.998   9.358
93984SOL     OW83848   0.396   5.816  13.607
93984SOL    HW183849   0.445   5.882  13.656
93984SOL    HW283850   0.439   5.733  13.628
93985SOL     OW83851   7.748   0.860  13.352
93985SOL    HW183852   7.732   0.770  13.322
93985SOL    HW283853   7.785   0.904  13.275
93986SOL     OW83854   1.086   1.384   9.631
93986SOL    HW183855   1.176   1.392   9.599
93986SOL    HW283856   1.094   1.372   9.725
93987SOL     OW83857   3.545   3.354   3.340
93987SOL    HW183858   3.622   3.351   3.283
93987SOL    HW283859   3.488   3.285   3.307
93988SOL     OW83860  13.902   2.643   8.571
93988SOL    HW183861  13.857   2.674   8.492
93988SOL    HW283862  13.978   2.595   8.537
93989SOL     OW83863   2.430   8.300   0.715
93989SOL    HW183864   2.408   8.361   0.645
93989SOL    HW283865   2.409   8.348   0.796
93990SOL     OW83866   4.000  10.905   5.256
93990SOL    HW183867   4.021  10.830   5.200
93990SOL    HW283868   4.043  10.885   5.339
93991SOL     OW83869  12.149   8.422  11.206
93991SOL    HW183870  12.061   8.397  11.177
93991SOL    HW283871  12.164   8.367  11.284
93992SOL     OW83872   3.447   3.845   8.740
93992SOL    HW183873   3.474   3.769   8.793
93992SOL    HW283874   3.381   3.809   8.680
93993SOL     OW83875   7.268  12.843  11.102
93993SOL    HW183876   7.291  12.923  11.054
93993SOL    HW283877   7.188  12.866  11.149
93994SOL     OW83878   3.031   4.198   5.621
93994SOL    HW183879   3.087   4.194   5.543
93994SOL    HW283880   2.986   4.114   5.622
93995SOL     OW83881   4.688  14.381  13.066
93995SOL    HW183882   4.720  14.470  13.076
93995SOL    HW283883   4.736  14.329  13.130
93996SOL     OW83884   3.246  11.420  14.305
93996SOL    HW183885   3.180  11.353  14.323
93996SOL    HW283886   3.285  11.394  14.221
93997SOL     OW83887  10.940  12.214  10.217
93997SOL    HW183888  10.848  12.215  10.245
93997SOL    HW283889  10.939  12.167  10.134
93998SOL     OW83890  13.972   8.898  13.576
93998SOL    HW183891  13.963   8.864  13.665
93998SOL    HW283892  13.912   8.972  13.572
93999SOL     OW83893   6.708   9.371  12.316
93999SOL    HW183894   6.789   9.419  12.334
93999SOL    HW283895   6.644   9.408  12.378
94000SOL     OW83896   5.797  12.336   5.132
94000SOL    HW183897   5.747  12.365   5.056
94000SOL    HW283898   5.778  12.242   5.138
94001SOL     OW83899  11.319  12.503   1.914
94001SOL    HW183900  11.305  12.409   1.924
94001SOL    HW283901  11.392  12.523   1.973
94002SOL     OW83902   1.446   9.782  11.457
94002SOL    HW183903   1.471   9.693  11.480
94002SOL    HW283904   1.528   9.832  11.461
94003SOL     OW83905   9.285  11.567   9.500
94003SOL    HW183906   9.287  11.522   9.415
94003SOL    HW283907   9.375  11.595   9.515
94004SOL     OW83908   5.607  13.877   4.006
94004SOL    HW183909   5.631  13.909   3.919
94004SOL    HW283910   5.521  13.836   3.993
94005SOL     OW83911   6.967   4.287   7.527
94005SOL    HW183912   6.973   4.322   7.438
94005SOL    HW283913   6.876   4.258   7.535
94006SOL     OW83914  13.082   3.307  12.056
94006SOL    HW183915  13.133   3.226  12.049
94006SOL    HW283916  13.048   3.321  11.967
94007SOL     OW83917  10.571   4.170  11.190
94007SOL    HW183918  10.655   4.141  11.226
94007SOL    HW283919  10.558   4.257  11.227
94008SOL     OW83920   0.223  10.948   0.371
94008SOL    HW183921   0.186  11.014   0.430
94008SOL    HW283922   0.309  10.927   0.408
94009SOL     OW83923   8.407   5.202   3.532
94009SOL    HW183924   8.326   5.232   3.491
94009SOL    HW283925   8.379   5.138   3.597
94010SOL     OW83926   8.269   7.730   4.761
94010SOL    HW183927   8.282   7.729   4.667
94010SOL    HW283928   8.179   7.762   4.773
94011SOL     OW83929   1.432   9.860   3.217
94011SOL    HW183930   1.340   9.884   3.222
94011SOL    HW283931   1.479   9.943   3.224
94012SOL     OW83932  12.274  12.138   4.883
94012SOL    HW183933  12.305  12.070   4.823
94012SOL    HW283934  12.238  12.206   4.825
94013SOL     OW83935   7.629   3.158   3.606
94013SOL    HW183936   7.567   3.225   3.577
94013SOL    HW283937   7.604   3.080   3.556
94014SOL     OW83938   6.150   2.545   7.289
94014SOL    HW183939   6.074   2.557   7.346
94014SOL    HW283940   6.133   2.602   7.214
94015SOL     OW83941  11.106  13.497   7.636
94015SOL    HW183942  11.054  13.575   7.654
94015SOL    HW283943  11.196  13.529   7.635
94016SOL     OW83944   7.531   6.246  13.997
94016SOL    HW183945   7.546   6.298  14.076
94016SOL    HW283946   7.451   6.198  14.015
94017SOL     OW83947  13.148   0.717   8.257
94017SOL    HW183948  13.209   0.649   8.228
94017SOL    HW283949  13.108   0.681   8.336
94018SOL     OW83950   8.655   0.116  14.412
94018SOL    HW183951   8.621   0.144  14.328
94018SOL    HW283952   8.666   0.197  14.462
94019SOL     OW83953  10.510   1.879  13.061
94019SOL    HW183954  10.523   1.808  12.998
94019SOL    HW283955  10.596   1.891  13.102
94020SOL     OW83956   1.946   1.708   2.828
94020SOL    HW183957   1.930   1.689   2.920
94020SOL    HW283958   2.034   1.675   2.812
94021SOL     OW83959   0.137  11.171   4.737
94021SOL    HW183960   0.157  11.227   4.662
94021SOL    HW283961   0.055  11.127   4.713
94022SOL     OW83962  12.679   8.531   0.404
94022SOL    HW183963  12.767   8.506   0.433
94022SOL    HW283964  12.642   8.451   0.367
94023SOL     OW83965  13.653   5.718   4.278
94023SOL    HW183966  13.663   5.807   4.313
94023SOL    HW283967  13.734   5.673   4.303
94024SOL     OW83968   4.192   0.030   6.616
94024SOL    HW183969   4.186  14.832   6.549
94024SOL    HW283970   4.117   0.014   6.673
94025SOL     OW83971   6.375   7.856  14.253
94025SOL    HW183972   6.414   7.828  14.170
94025SOL    HW283973   6.288   7.816  14.253
94026SOL     OW83974   9.338   1.193  12.466
94026SOL    HW183975   9.420   1.226  12.430
94026SOL    HW283976   9.273   1.214  12.398
94027SOL     OW83977  13.391   2.974   0.941
94027SOL    HW183978  13.424   3.061   0.919
94027SOL    HW283979  13.442   2.947   1.017
94028SOL     OW83980   5.034  13.313   1.927
94028SOL    HW183981   4.986  13.394   1.906
94028SOL    HW283982   5.108  13.313   1.867
94029SOL     OW83983   8.043  13.811   1.975
94029SOL    HW183984   7.992  13.886   1.944
94029SOL    HW283985   8.023  13.805   2.068
94030SOL     OW83986  11.738   2.684   3.378
94030SOL    HW183987  11.814   2.725   3.336
94030SOL    HW283988  11.663   2.723   3.333
94031SOL     OW83989   3.542   3.491  12.301
94031SOL    HW183990   3.597   3.554  12.346
94031SOL    HW283991   3.553   3.512  12.208
94032SOL     OW83992  10.187   4.428   6.960
94032SOL    HW183993  10.092   4.427   6.969
94032SOL    HW283994  10.213   4.336   6.961
94033SOL     OW83995   9.111  13.121   7.860
94033SOL    HW183996   9.147  13.206   7.885
94033SOL    HW283997   9.140  13.061   7.929
94034SOL     OW83998  12.501   6.189  13.346
94034SOL    HW183999  12.508   6.207  13.440
94034SOL    HW284000  12.407   6.191  13.328
94035SOL     OW84001   2.416   1.515   9.617
94035SOL    HW184002   2.404   1.438   9.673
94035SOL    HW284003   2.492   1.559   9.654
94036SOL     OW84004   1.574   6.521  12.321
94036SOL    HW184005   1.563   6.571  12.403
94036SOL    HW284006   1.591   6.588  12.255
94037SOL     OW84007   0.805   0.222   1.048
94037SOL    HW184008   0.778   0.219   1.140
94037SOL    HW284009   0.869   0.152   1.039
94038SOL     OW84010   0.166   7.280  11.300
94038SOL    HW184011   0.196   7.190  11.305
94038SOL    HW284012   0.156   7.297  11.206
94039SOL     OW84013  14.260  10.694  13.242
94039SOL    HW184014  14.167  10.714  13.235
94039SOL    HW284015  14.263  10.615  13.296
94040SOL     OW84016  12.496  14.851   8.181
94040SOL    HW184017  12.413  14.805   8.196
94040SOL    HW284018  12.492   0.007   8.089
94041SOL     OW84019   3.146   6.003   4.671
94041SOL    HW184020   3.109   6.025   4.756
94041SOL    HW284021   3.232   5.966   4.691
94042SOL     OW84022  11.367   6.516   7.845
94042SOL    HW184023  11.311   6.585   7.809
94042SOL    HW284024  11.341   6.437   7.797
94043SOL     OW84025   4.998  11.749   4.228
94043SOL    HW184026   5.044  11.827   4.258
94043SOL    HW284027   5.036  11.677   4.279
94044SOL     OW84028   7.436   0.878   2.361
94044SOL    HW184029   7.432   0.943   2.431
94044SOL    HW284030   7.464   0.927   2.284
94045SOL     OW84031  12.464   9.477  13.526
94045SOL    HW184032  12.471   9.563  13.567
94045SOL    HW284033  12.519   9.420  13.581
94046SOL     OW84034   9.034  10.727   1.230
94046SOL    HW184035   8.944  10.759   1.219
94046SOL    HW284036   9.049  10.672   1.154
94047SOL     OW84037   4.567   1.736   7.311
94047SOL    HW184038   4.563   1.828   7.335
94047SOL    HW284039   4.517   1.731   7.229
94048SOL     OW84040  13.941   7.775   5.774
94048SOL    HW184041  14.007   7.755   5.707
94048SOL    HW284042  13.871   7.818   5.726
94049SOL     OW84043   7.856  14.384   8.770
94049SOL    HW184044   7.829  14.415   8.683
94049SOL    HW284045   7.939  14.338   8.754
94050SOL     OW84046  10.005  11.704   7.342
94050SOL    HW184047  10.054  11.640   7.394
94050SOL    HW284048  10.063  11.724   7.269
94051SOL     OW84049  12.759   2.800   3.795
94051SOL    HW184050  12.828   2.810   3.729
94051SOL    HW284051  12.684   2.846   3.757
94052SOL     OW84052  10.440   3.063   0.962
94052SOL    HW184053  10.519   3.018   0.932
94052SOL    HW284054  10.456   3.081   1.055
94053SOL     OW84055   8.251  12.370   0.212
94053SOL    HW184056   8.329  12.367   0.267
94053SOL    HW284057   8.182  12.400   0.272
94054SOL     OW84058   7.480  12.142  12.728
94054SOL    HW184059   7.405  12.118  12.783
94054SOL    HW284060   7.531  12.203  12.782
94055SOL     OW84061  11.541   5.777   1.734
94055SOL    HW184062  11.614   5.823   1.693
94055SOL    HW284063  11.569   5.762   1.824
94056SOL     OW84064   8.078   9.338   8.423
94056SOL    HW184065   8.074   9.296   8.337
94056SOL    HW284066   7.999   9.392   8.427
94057SOL     OW84067  12.439  10.280   0.384
94057SOL    HW184068  12.524  10.267   0.427
94057SOL    HW284069  12.418  10.372   0.399
94058SOL     OW84070   7.188   7.615   3.287
94058SOL    HW184071   7.187   7.599   3.193
94058SOL    HW284072   7.272   7.660   3.302
94059SOL     OW84073   8.336  11.378   6.999
94059SOL    HW184074   8.417  11.425   6.981
94059SOL    HW284075   8.268  11.427   6.953
94060SOL     OW84076   3.195   5.231  10.776
94060SOL    HW184077   3.270   5.290  10.785
94060SOL    HW284078   3.126   5.287  10.740
94061SOL     OW84079  10.875  12.856   2.081
94061SOL    HW184080  10.869  12.921   2.151
94061SOL    HW284081  10.946  12.888   2.025
94062SOL     OW84082   4.362  10.189   5.817
94062SOL    HW184083   4.388  10.162   5.729
94062SOL    HW284084   4.335  10.108   5.860
94063SOL     OW84085  14.008   4.336   2.985
94063SOL    HW184086  14.055   4.270   3.036
94063SOL    HW284087  13.920   4.301   2.975
94064SOL     OW84088   5.728  13.071   7.233
94064SOL    HW184089   5.741  13.123   7.153
94064SOL    HW284090   5.655  13.114   7.277
94065SOL     OW84091   9.140   9.318  14.435
94065SOL    HW184092   9.130   9.223  14.439
94065SOL    HW284093   9.050   9.352  14.433
94066SOL     OW84094   2.926  11.976   8.767
94066SOL    HW184095   2.926  11.882   8.748
94066SOL    HW284096   2.939  11.982   8.861
94067SOL     OW84097  11.438  13.766   4.667
94067SOL    HW184098  11.359  13.724   4.700
94067SOL    HW284099  11.416  13.795   4.579
94068SOL     OW84100  13.288   1.805   9.572
94068SOL    HW184101  13.383   1.801   9.563
94068SOL    HW284102  13.272   1.885   9.622
94069SOL     OW84103   7.363  10.364  13.021
94069SOL    HW184104   7.418  10.304  13.071
94069SOL    HW284105   7.326  10.310  12.951
94070SOL     OW84106   1.137   0.770   6.229
94070SOL    HW184107   1.209   0.820   6.269
94070SOL    HW284108   1.094   0.728   6.303
94071SOL     OW84109  10.642   6.725   7.515
94071SOL    HW184110  10.711   6.724   7.449
94071SOL    HW284111  10.632   6.818   7.537
94072SOL     OW84112   7.060   1.917  12.500
94072SOL    HW184113   7.082   2.005  12.532
94072SOL    HW284114   7.113   1.858  12.553
94073SOL     OW84115   4.518   0.446   7.522
94073SOL    HW184116   4.507   0.525   7.469
94073SOL    HW284117   4.447   0.452   7.587
94074SOL     OW84118   3.770  11.868  10.032
94074SOL    HW184119   3.713  11.888  10.106
94074SOL    HW284120   3.735  11.920   9.959
94075SOL     OW84121   7.723   9.780   7.768
94075SOL    HW184122   7.634   9.807   7.794
94075SOL    HW284123   7.779   9.850   7.800
94076SOL     OW84124   4.983  11.608  11.480
94076SOL    HW184125   4.972  11.514  11.471
94076SOL    HW284126   4.960  11.643  11.394
94077SOL     OW84127   2.856   3.185  10.896
94077SOL    HW184128   2.943   3.221  10.915
94077SOL    HW284129   2.862   3.153  10.806
94078SOL     OW84130   3.990   2.238   1.004
94078SOL    HW184131   3.940   2.159   0.981
94078SOL    HW284132   3.923   2.307   1.010
94079SOL     OW84133   5.950   4.736   9.267
94079SOL    HW184134   6.011   4.802   9.298
94079SOL    HW284135   6.003   4.657   9.255
94080SOL     OW84136   1.092   5.314   9.248
94080SOL    HW184137   1.142   5.259   9.308
94080SOL    HW284138   1.100   5.403   9.283
94081SOL     OW84139  14.151   5.890  13.784
94081SOL    HW184140  14.182   5.811  13.827
94081SOL    HW284141  14.167   5.960  13.847
94082SOL     OW84142   7.040   7.658  12.983
94082SOL    HW184143   7.113   7.613  12.942
94082SOL    HW284144   7.063   7.751  12.976
94083SOL     OW84145   9.276   9.962   5.355
94083SOL    HW184146   9.292  10.028   5.423
94083SOL    HW284147   9.348   9.973   5.293
94084SOL     OW84148  14.075   3.855  11.165
94084SOL    HW184149  14.100   3.901  11.245
94084SOL    HW284150  14.096   3.916  11.095
94085SOL     OW84151  12.184   4.987  10.371
94085SOL    HW184152  12.242   5.060  10.392
94085SOL    HW284153  12.237   4.909  10.386
94086SOL     OW84154   9.443  13.187   2.108
94086SOL    HW184155   9.384  13.151   2.174
94086SOL    HW284156   9.457  13.115   2.047
94087SOL     OW84157   2.868   9.122   1.123
94087SOL    HW184158   2.787   9.084   1.157
94087SOL    HW284159   2.839   9.193   1.065
94088SOL     OW84160  11.888   8.301  11.978
94088SOL    HW184161  11.830   8.276  11.907
94088SOL    HW284162  11.903   8.395  11.965
94089SOL     OW84163   9.791  13.739   0.410
94089SOL    HW184164   9.698  13.760   0.416
94089SOL    HW284165   9.794  13.645   0.396
94090SOL     OW84166   4.617   0.990   5.837
94090SOL    HW184167   4.527   0.983   5.867
94090SOL    HW284168   4.614   0.960   5.746
94091SOL     OW84169   6.579  11.002   4.302
94091SOL    HW184170   6.526  10.922   4.300
94091SOL    HW284171   6.653  10.981   4.358
94092SOL     OW84172   7.241   1.535   9.519
94092SOL    HW184173   7.271   1.606   9.462
94092SOL    HW284174   7.321   1.498   9.556
94093SOL     OW84175   9.192   1.573   5.183
94093SOL    HW184176   9.248   1.538   5.114
94093SOL    HW284177   9.103   1.552   5.155
94094SOL     OW84178   8.479  10.579   9.614
94094SOL    HW184179   8.493  10.568   9.520
94094SOL    HW284180   8.409  10.517   9.635
94095SOL     OW84181   0.561   3.863  13.199
94095SOL    HW184182   0.576   3.911  13.280
94095SOL    HW284183   0.532   3.929  13.136
94096SOL     OW84184  10.215  12.693   7.632
94096SOL    HW184185  10.243  12.610   7.594
94096SOL    HW284186  10.196  12.673   7.724
94097SOL     OW84187  13.371   7.799   0.452
94097SOL    HW184188  13.453   7.789   0.500
94097SOL    HW284189  13.308   7.748   0.503
94098SOL     OW84190   5.279   2.309   7.958
94098SOL    HW184191   5.199   2.304   7.906
94098SOL    HW284192   5.250   2.294   8.048
94099SOL     OW84193  12.531   3.328   7.199
94099SOL    HW184194  12.448   3.310   7.155
94099SOL    HW284195  12.594   3.270   7.155
94100SOL     OW84196  13.063   9.263  11.241
94100SOL    HW184197  13.003   9.335  11.221
94100SOL    HW284198  13.079   9.269  11.335
94101SOL     OW84199   0.532  10.338   8.126
94101SOL    HW184200   0.449  10.384   8.141
94101SOL    HW284201   0.551  10.295   8.210
94102SOL     OW84202   0.556   8.930   5.315
94102SOL    HW184203   0.485   8.977   5.358
94102SOL    HW284204   0.600   8.996   5.261
94103SOL     OW84205   6.207   0.892   7.580
94103SOL    HW184206   6.299   0.885   7.602
94103SOL    HW284207   6.161   0.850   7.653
94104SOL     OW84208   8.572  10.776   1.924
94104SOL    HW184209   8.490  10.758   1.878
94104SOL    HW284210   8.599  10.691   1.959
94105SOL     OW84211  14.192   7.771   7.052
94105SOL    HW184212  14.171   7.695   7.106
94105SOL    HW284213  14.200   7.844   7.113
94106SOL     OW84214   2.068   7.057   6.082
94106SOL    HW184215   2.093   6.969   6.053
94106SOL    HW284216   2.040   7.046   6.173
94107SOL     OW84217   2.050   7.988  10.030
94107SOL    HW184218   1.994   7.914  10.050
94107SOL    HW284219   2.048   8.043  10.108
94108SOL     OW84220  12.253  12.516   9.713
94108SOL    HW184221  12.180  12.578   9.709
94108SOL    HW284222  12.288  12.514   9.625
94109SOL     OW84223  10.302  14.851  10.343
94109SOL    HW184224  10.232   0.036  10.378
94109SOL    HW284225  10.296  14.863  10.248
94110SOL     OW84226   9.412   0.193   6.702
94110SOL    HW184227   9.351   0.262   6.727
94110SOL    HW284228   9.418   0.137   6.780
94111SOL     OW84229   8.782   3.687   3.775
94111SOL    HW184230   8.800   3.741   3.852
94111SOL    HW284231   8.861   3.694   3.721
94112SOL     OW84232   8.326   7.528   1.284
94112SOL    HW184233   8.278   7.465   1.338
94112SOL    HW284234   8.268   7.544   1.209
94113SOL     OW84235   1.312   2.045   5.942
94113SOL    HW184236   1.407   2.047   5.956
94113SOL    HW284237   1.285   2.136   5.949
94114SOL     OW84238  10.164  13.292   2.635
94114SOL    HW184239  10.184  13.308   2.727
94114SOL    HW284240  10.081  13.244   2.637
94115SOL     OW84241  14.240  10.445   0.972
94115SOL    HW184242  14.264  10.468   1.061
94115SOL    HW284243  14.238  10.349   0.971
94116SOL     OW84244   2.727   4.984  10.086
94116SOL    HW184245   2.670   5.061  10.084
94116SOL    HW284246   2.677   4.915  10.043
94117SOL     OW84247   2.445  14.200   4.149
94117SOL    HW184248   2.521  14.142   4.159
94117SOL    HW284249   2.447  14.225   4.057
94118SOL     OW84250  12.234  11.554  13.865
94118SOL    HW184251  12.262  11.645  13.871
94118SOL    HW284252  12.298  11.505  13.918
94119SOL     OW84253   4.241   9.698   1.761
94119SOL    HW184254   4.215   9.672   1.849
94119SOL    HW284255   4.158   9.712   1.715
94120SOL     OW84256  11.596   0.138  12.868
94120SOL    HW184257  11.565   0.196  12.937
94120SOL    HW284258  11.610   0.054  12.913
94121SOL     OW84259   9.883   4.546   8.099
94121SOL    HW184260   9.920   4.582   8.019
94121SOL    HW284261   9.789   4.559   8.091
94122SOL     OW84262  13.137   3.138   0.258
94122SOL    HW184263  13.150   3.233   0.268
94122SOL    HW284264  13.078   3.129   0.184
94123SOL     OW84265   4.665   1.566   4.560
94123SOL    HW184266   4.585   1.618   4.556
94123SOL    HW284267   4.698   1.580   4.648
94124SOL     OW84268  14.116   3.460  12.296
94124SOL    HW184269  14.210   3.451  12.315
94124SOL    HW284270  14.114   3.486  12.203
94125SOL     OW84271  14.020  11.399   6.934
94125SOL    HW184272  14.011  11.483   6.889
94125SOL    HW284273  14.062  11.420   7.017
94126SOL     OW84274   6.081   9.388   3.909
94126SOL    HW184275   6.165   9.415   3.871
94126SOL    HW284276   6.025   9.372   3.833
94127SOL     OW84277   7.937   6.194   9.872
94127SOL    HW184278   8.006   6.157   9.816
94127SOL    HW284279   7.983   6.253   9.931
94128SOL     OW84280  12.425   0.956   6.718
94128SOL    HW184281  12.460   0.879   6.674
94128SOL    HW284282  12.473   1.030   6.681
94129SOL     OW84283   5.234   8.248   2.304
94129SOL    HW184284   5.222   8.177   2.366
94129SOL    HW284285   5.150   8.254   2.259
94130SOL     OW84286  10.398   0.997  13.452
94130SOL    HW184287  10.369   0.950  13.374
94130SOL    HW284288  10.416   0.928  13.516
94131SOL     OW84289   1.744   7.159   2.630
94131SOL    HW184290   1.778   7.148   2.541
94131SOL    HW284291   1.811   7.213   2.674
94132SOL     OW84292   5.368   2.051  10.431
94132SOL    HW184293   5.408   2.130  10.468
94132SOL    HW284294   5.347   1.996  10.506
94133SOL     OW84295  12.392  10.201   1.857
94133SOL    HW184296  12.336  10.276   1.876
94133SOL    HW284297  12.479  10.239   1.844
94134SOL     OW84298   7.818   6.839   2.318
94134SOL    HW184299   7.861   6.898   2.256
94134SOL    HW284300   7.771   6.897   2.378
94135SOL     OW84301   2.608   8.256   2.712
94135SOL    HW184302   2.689   8.281   2.757
94135SOL    HW284303   2.607   8.160   2.717
94136SOL     OW84304   2.097   8.730  11.835
94136SOL    HW184305   2.018   8.771  11.801
94136SOL    HW284306   2.082   8.636  11.824
94137SOL     OW84307   6.888   5.503   2.081
94137SOL    HW184308   6.918   5.454   2.157
94137SOL    HW284309   6.805   5.542   2.108
94138SOL     OW84310   9.208   0.100  11.536
94138SOL    HW184311   9.284   0.050  11.567
94138SOL    HW284312   9.242   0.151  11.463
94139SOL     OW84313   3.908   9.693  13.144
94139SOL    HW184314   3.861   9.766  13.184
94139SOL    HW284315   3.950   9.731  13.067
94140SOL     OW84316   7.504   8.922  11.190
94140SOL    HW184317   7.569   8.876  11.244
94140SOL    HW284318   7.474   8.994  11.245
94141SOL     OW84319   2.782   6.537  11.458
94141SOL    HW184320   2.697   6.515  11.495
94141SOL    HW284321   2.762   6.578  11.374
94142SOL     OW84322   7.232  13.598  12.758
94142SOL    HW184323   7.187  13.531  12.708
94142SOL    HW284324   7.164  13.662  12.780
94143SOL     OW84325   5.595   9.602   1.650
94143SOL    HW184326   5.646   9.681   1.632
94143SOL    HW284327   5.581   9.603   1.744
94144SOL     OW84328  13.736  10.861  12.123
94144SOL    HW184329  13.753  10.777  12.167
94144SOL    HW284330  13.658  10.845  12.071
94145SOL     OW84331  11.813   0.418  12.876
94145SOL    HW184332  11.771   0.341  12.914
94145SOL    HW284333  11.753   0.446  12.807
94146SOL     OW84334   4.490   6.181   8.194
94146SOL    HW184335   4.506   6.275   8.188
94146SOL    HW284336   4.396   6.173   8.210
94147SOL     OW84337   1.040   5.132  13.915
94147SOL    HW184338   1.134   5.147  13.907
94147SOL    HW284339   1.000   5.207  13.870
94148SOL     OW84340   4.164   1.935   7.907
94148SOL    HW184341   4.139   1.852   7.947
94148SOL    HW284342   4.188   1.991   7.982
94149SOL     OW84343   8.525   1.583   1.317
94149SOL    HW184344   8.460   1.630   1.367
94149SOL    HW284345   8.588   1.552   1.382
94150SOL     OW84346  14.717   2.807  10.387
94150SOL    HW184347  14.806   2.840  10.378
94150SOL    HW284348  14.681   2.810  10.298
94151SOL     OW84349   2.336   6.942  10.113
94151SOL    HW184350   2.334   6.983  10.199
94151SOL    HW284351   2.308   7.011  10.053
94152SOL     OW84352   7.292   2.109   1.891
94152SOL    HW184353   7.374   2.150   1.862
94152SOL    HW284354   7.308   2.015   1.882
94153SOL     OW84355   2.501   0.954   9.499
94153SOL    HW184356   2.503   0.976   9.592
94153SOL    HW284357   2.408   0.954   9.476
94154SOL     OW84358   0.866   9.018   8.972
94154SOL    HW184359   0.795   8.971   8.929
94154SOL    HW284360   0.828   9.104   8.992
94155SOL     OW84361  10.016  13.076   4.638
94155SOL    HW184362   9.993  12.985   4.620
94155SOL    HW284363  10.041  13.077   4.731
94156SOL     OW84364  13.398   2.087  12.907
94156SOL    HW184365  13.450   2.120  12.833
94156SOL    HW284366  13.450   2.015  12.943
94157SOL     OW84367   4.671  11.224   6.170
94157SOL    HW184368   4.663  11.220   6.265
94157SOL    HW284369   4.745  11.166   6.150
94158SOL     OW84370   8.322   9.084  10.083
94158SOL    HW184371   8.314   9.149  10.153
94158SOL    HW284372   8.405   9.104  10.041
94159SOL     OW84373   0.002  13.936   8.654
94159SOL    HW184374   0.091  13.900   8.648
94159SOL    HW284375  14.836  13.927   8.566
94160SOL     OW84376  13.819  13.750   3.590
94160SOL    HW184377  13.812  13.762   3.684
94160SOL    HW284378  13.738  13.787   3.555
94161SOL     OW84379   0.916   1.564   0.016
94161SOL    HW184380   1.004   1.588   0.045
94161SOL    HW284381   0.923   1.472  14.862
94162SOL     OW84382   3.960   2.677   7.050
94162SOL    HW184383   4.003   2.704   6.969
94162SOL    HW284384   4.001   2.595   7.074
94163SOL     OW84385   0.672  13.438   0.798
94163SOL    HW184386   0.602  13.372   0.800
94163SOL    HW284387   0.653  13.494   0.873
94164SOL     OW84388   7.933  13.199   6.664
94164SOL    HW184389   8.007  13.163   6.713
94164SOL    HW284390   7.857  13.183   6.719
94165SOL     OW84391   5.417   9.264   0.280
94165SOL    HW184392   5.385   9.312   0.203
94165SOL    HW284393   5.349   9.275   0.346
94166SOL     OW84394  11.769   5.540   1.198
94166SOL    HW184395  11.705   5.472   1.180
94166SOL    HW284396  11.781   5.536   1.293
94167SOL     OW84397   0.557   7.873   8.070
94167SOL    HW184398   0.503   7.802   8.104
94167SOL    HW284399   0.638   7.869   8.121
94168SOL     OW84400  10.109  10.704   0.185
94168SOL    HW184401  10.119  10.795   0.213
94168SOL    HW284402  10.195  10.665   0.202
94169SOL     OW84403   8.602  10.618   9.937
94169SOL    HW184404   8.575  10.565  10.012
94169SOL    HW284405   8.694  10.596   9.923
94170SOL     OW84406   8.054   7.420  14.234
94170SOL    HW184407   8.134   7.386  14.195
94170SOL    HW284408   8.011   7.344  14.272
94171SOL     OW84409   2.531  12.734  13.590
94171SOL    HW184410   2.501  12.665  13.531
94171SOL    HW284411   2.533  12.692  13.676
94172SOL     OW84412  14.519   9.719   2.655
94172SOL    HW184413  14.538   9.765   2.573
94172SOL    HW284414  14.518   9.626   2.630
94173SOL     OW84415  11.343   4.395  12.409
94173SOL    HW184416  11.380   4.477  12.377
94173SOL    HW284417  11.295   4.420  12.488
94174SOL     OW84418   8.804   8.138  11.415
94174SOL    HW184419   8.878   8.108  11.363
94174SOL    HW284420   8.741   8.172  11.351
94175SOL     OW84421   6.381  12.565   7.092
94175SOL    HW184422   6.345  12.646   7.056
94175SOL    HW284423   6.340  12.557   7.178
94176SOL     OW84424   1.577   8.985   9.109
94176SOL    HW184425   1.521   8.956   9.182
94176SOL    HW284426   1.519   8.985   9.033
94177SOL     OW84427   9.309  13.802   5.219
94177SOL    HW184428   9.335  13.879   5.270
94177SOL    HW284429   9.383  13.786   5.161
94178SOL     OW84430   5.402  12.827  10.293
94178SOL    HW184431   5.325  12.818  10.348
94178SOL    HW284432   5.425  12.920  10.297
94179SOL     OW84433  10.990   8.862  11.179
94179SOL    HW184434  10.975   8.922  11.252
94179SOL    HW284435  11.085   8.847  11.181
94180SOL     OW84436   6.621  12.904   5.290
94180SOL    HW184437   6.576  12.830   5.329
94180SOL    HW284438   6.553  12.950   5.240
94181SOL     OW84439  11.265   5.845   1.758
94181SOL    HW184440  11.254   5.856   1.852
94181SOL    HW284441  11.358   5.823   1.746
94182SOL     OW84442  14.087   6.189  14.631
94182SOL    HW184443  14.036   6.157  14.705
94182SOL    HW284444  14.118   6.275  14.659
94183SOL     OW84445   0.814   2.371   3.327
94183SOL    HW184446   0.866   2.448   3.349
94183SOL    HW284447   0.750   2.402   3.263
94184SOL     OW84448   4.093   7.690   9.468
94184SOL    HW184449   4.147   7.700   9.390
94184SOL    HW284450   4.037   7.615   9.449
94185SOL     OW84451  12.075   7.316   5.187
94185SOL    HW184452  12.168   7.336   5.202
94185SOL    HW284453  12.033   7.402   5.181
94186SOL     OW84454  10.547   6.699   2.875
94186SOL    HW184455  10.609   6.705   2.947
94186SOL    HW284456  10.595   6.654   2.805
94187SOL     OW84457   9.055  12.514   0.665
94187SOL    HW184458   9.001  12.492   0.741
94187SOL    HW284459   8.993  12.547   0.600
94188SOL     OW84460  11.773   1.725   4.518
94188SOL    HW184461  11.844   1.698   4.460
94188SOL    HW284462  11.762   1.651   4.578
94189SOL     OW84463   0.767   2.419  10.883
94189SOL    HW184464   0.845   2.474  10.884
94189SOL    HW284465   0.704   2.469  10.830
94190SOL     OW84466   3.434   5.248   5.498
94190SOL    HW184467   3.485   5.305   5.555
94190SOL    HW284468   3.428   5.296   5.415
94191SOL     OW84469   5.846   4.535   1.704
94191SOL    HW184470   5.938   4.560   1.702
94191SOL    HW284471   5.844   4.450   1.748
94192SOL     OW84472   2.483   7.441   9.034
94192SOL    HW184473   2.427   7.472   9.105
94192SOL    HW284474   2.560   7.404   9.078
94193SOL     OW84475   8.910   1.360   8.045
94193SOL    HW184476   8.844   1.296   8.072
94193SOL    HW284477   8.870   1.404   7.970
94194SOL     OW84478  12.979   5.283  10.490
94194SOL    HW184479  13.070   5.297  10.464
94194SOL    HW284480  12.942   5.371  10.497
94195SOL     OW84481   3.080  14.039  14.135
94195SOL    HW184482   3.160  14.008  14.177
94195SOL    HW284483   3.009  14.001  14.187
94196SOL     OW84484   0.642   1.861   3.450
94196SOL    HW184485   0.557   1.819   3.438
94196SOL    HW284486   0.653   1.867   3.544
94197SOL     OW84487  14.681  10.918   3.291
94197SOL    HW184488  14.586  10.921   3.279
94197SOL    HW284489  14.714  10.871   3.214
94198SOL     OW84490  14.763   4.785   0.649
94198SOL    HW184491  14.792   4.771   0.560
94198SOL    HW284492  14.671   4.758   0.650
94199SOL     OW84493   0.131  14.581   1.173
94199SOL    HW184494   0.148  14.599   1.081
94199SOL    HW284495   0.064  14.646   1.198
94200SOL     OW84496   9.378  14.754  13.383
94200SOL    HW184497   9.310  14.753  13.451
94200SOL    HW284498   9.345  14.694  13.316
94201SOL     OW84499   3.925   0.444   3.788
94201SOL    HW184500   3.855   0.405   3.737
94201SOL    HW284501   3.891   0.449   3.878
94202SOL     OW84502  12.195  11.236   1.877
94202SOL    HW184503  12.130  11.213   1.810
94202SOL    HW284504  12.151  11.303   1.930
94203SOL     OW84505   2.654  12.856  12.061
94203SOL    HW184506   2.662  12.890  12.150
94203SOL    HW284507   2.676  12.763  12.069
94204SOL     OW84508   7.593  12.479   8.229
94204SOL    HW184509   7.564  12.559   8.184
94204SOL    HW284510   7.678  12.502   8.266
94205SOL     OW84511   9.270   7.133   2.352
94205SOL    HW184512   9.308   7.188   2.284
94205SOL    HW284513   9.345   7.091   2.393
94206SOL     OW84514   8.265  11.163   5.876
94206SOL    HW184515   8.187  11.136   5.924
94206SOL    HW284516   8.328  11.093   5.891
94207SOL     OW84517  14.277   8.483  13.526
94207SOL    HW184518  14.337   8.412  13.551
94207SOL    HW284519  14.293   8.496  13.433
94208SOL     OW84520   4.856   1.405   1.251
94208SOL    HW184521   4.908   1.442   1.323
94208SOL    HW284522   4.893   1.445   1.172
94209SOL     OW84523  11.260   8.415   6.388
94209SOL    HW184524  11.356   8.413   6.383
94209SOL    HW284525  11.237   8.335   6.436
94210SOL     OW84526   7.462   7.909  13.432
94210SOL    HW184527   7.473   7.992  13.478
94210SOL    HW284528   7.539   7.903  13.376
94211SOL     OW84529  12.058  11.529   4.490
94211SOL    HW184530  11.971  11.493   4.503
94211SOL    HW284531  12.073  11.522   4.395
94212SOL     OW84532  10.126   8.982  14.212
94212SOL    HW184533  10.040   8.943  14.226
94212SOL    HW284534  10.116   9.073  14.242
94213SOL     OW84535   7.998  10.465  14.762
94213SOL    HW184536   8.002  10.398  14.830
94213SOL    HW284537   7.912  10.507  14.775
94214SOL     OW84538   1.548   9.848  14.089
94214SOL    HW184539   1.459   9.847  14.125
94214SOL    HW284540   1.536   9.829  13.996
94215SOL     OW84541  13.339  14.576   6.848
94215SOL    HW184542  13.399  14.650   6.855
94215SOL    HW284543  13.390  14.501   6.879
94216SOL     OW84544  12.539  14.361   4.162
94216SOL    HW184545  12.593  14.282   4.173
94216SOL    HW284546  12.590  14.417   4.104
94217SOL     OW84547   8.688   3.261   0.086
94217SOL    HW184548   8.709   3.336   0.031
94217SOL    HW284549   8.632   3.206   0.032
94218SOL     OW84550   5.931   1.433   4.894
94218SOL    HW184551   5.879   1.359   4.922
94218SOL    HW284552   5.985   1.456   4.970
94219SOL     OW84553  11.847   6.282   5.993
94219SOL    HW184554  11.800   6.363   5.974
94219SOL    HW284555  11.863   6.242   5.908
94220SOL     OW84556   3.383  10.463   8.581
94220SOL    HW184557   3.352  10.514   8.506
94220SOL    HW284558   3.314  10.474   8.647
94221SOL     OW84559   0.411   2.538   2.572
94221SOL    HW184560   0.393   2.497   2.487
94221SOL    HW284561   0.468   2.476   2.617
94222SOL     OW84562   6.675   6.409   3.852
94222SOL    HW184563   6.672   6.329   3.905
94222SOL    HW284564   6.766   6.413   3.822
94223SOL     OW84565   4.897  14.212   0.005
94223SOL    HW184566   4.986  14.239   0.026
94223SOL    HW284567   4.846  14.233   0.083
94224SOL     OW84568   2.746   5.842   1.679
94224SOL    HW184569   2.813   5.773   1.681
94224SOL    HW284570   2.792   5.919   1.645
94225SOL     OW84571  13.716   2.055  11.955
94225SOL    HW184572  13.728   2.022  12.044
94225SOL    HW284573  13.683   1.980  11.905
94226SOL     OW84574   2.608   7.140  12.539
94226SOL    HW184575   2.570   7.221  12.573
94226SOL    HW284576   2.588   7.143  12.445
94227SOL     OW84577   7.343  12.751  10.644
94227SOL    HW184578   7.343  12.665  10.687
94227SOL    HW284579   7.343  12.731  10.550
94228SOL     OW84580   3.066  10.758  10.143
94228SOL    HW184581   3.026  10.774  10.057
94228SOL    HW284582   3.157  10.738  10.122
94229SOL     OW84583   5.915   5.963   6.315
94229SOL    HW184584   5.989   5.977   6.255
94229SOL    HW284585   5.956   5.947   6.400
94230SOL     OW84586   4.002   7.015   4.435
94230SOL    HW184587   3.976   7.107   4.431
94230SOL    HW284588   3.921   6.967   4.448
94231SOL     OW84589  14.352   6.229   5.169
94231SOL    HW184590  14.334   6.259   5.080
94231SOL    HW284591  14.365   6.135   5.161
94232SOL     OW84592  11.943   6.269   3.734
94232SOL    HW184593  12.030   6.308   3.743
94232SOL    HW284594  11.955   6.178   3.762
94233SOL     OW84595   1.783   6.150   0.706
94233SOL    HW184596   1.693   6.177   0.688
94233SOL    HW284597   1.834   6.231   0.699
94234SOL     OW84598   2.015  14.680   8.219
94234SOL    HW184599   2.002  14.666   8.313
94234SOL    HW284600   1.958  14.616   8.177
94235SOL     OW84601   7.244   3.525   2.907
94235SOL    HW184602   7.268   3.513   2.815
94235SOL    HW284603   7.168   3.467   2.919
94236SOL     OW84604  12.127   3.291  14.306
94236SOL    HW184605  12.153   3.328  14.221
94236SOL    HW284606  12.079   3.362  14.348
94237SOL     OW84607   2.360   0.024   4.122
94237SOL    HW184608   2.270   0.045   4.147
94237SOL    HW284609   2.389  14.830   4.187
94238SOL     OW84610  13.106   4.948   9.430
94238SOL    HW184611  13.125   4.855   9.414
94238SOL    HW284612  13.015   4.958   9.402
94239SOL     OW84613   6.187   6.885   7.429
94239SOL    HW184614   6.272   6.861   7.465
94239SOL    HW284615   6.164   6.968   7.471
94240SOL     OW84616  13.243  10.965  10.655
94240SOL    HW184617  13.212  10.912  10.581
94240SOL    HW284618  13.237  11.055  10.625
94241SOL     OW84619   8.601  12.449   0.777
94241SOL    HW184620   8.606  12.451   0.873
94241SOL    HW284621   8.514  12.415   0.759
94242SOL     OW84622  12.328   2.358  14.290
94242SOL    HW184623  12.375   2.276  14.275
94242SOL    HW284624  12.367   2.420  14.229
94243SOL     OW84625   0.975  10.870  12.218
94243SOL    HW184626   1.039  10.806  12.251
94243SOL    HW284627   0.904  10.867  12.281
94244SOL     OW84628  11.301  13.719   0.336
94244SOL    HW184629  11.391  13.748   0.347
94244SOL    HW284630  11.286  13.721   0.242
94245SOL     OW84631  13.112   7.997  10.708
94245SOL    HW184632  13.115   8.014  10.614
94245SOL    HW284633  13.203   7.994  10.735
94246SOL     OW84634   4.529   5.210   2.060
94246SOL    HW184635   4.477   5.134   2.085
94246SOL    HW284636   4.616   5.175   2.040
94247SOL     OW84637   1.640   5.339  13.105
94247SOL    HW184638   1.613   5.330  13.013
94247SOL    HW284639   1.729   5.374  13.100
94248SOL     OW84640   5.805   3.892   9.065
94248SOL    HW184641   5.842   3.804   9.058
94248SOL    HW284642   5.880   3.950   9.049
94249SOL     OW84643   2.843   6.687   8.924
94249SOL    HW184644   2.813   6.596   8.931
94249SOL    HW284645   2.861   6.700   8.831
94250SOL     OW84646  11.798   2.240   7.552
94250SOL    HW184647  11.847   2.218   7.631
94250SOL    HW284648  11.832   2.180   7.485
94251SOL     OW84649   4.931   1.548   1.969
94251SOL    HW184650   4.923   1.564   1.875
94251SOL    HW284651   5.014   1.587   1.993
94252SOL     OW84652   9.405  11.112  10.119
94252SOL    HW184653   9.485  11.115  10.066
94252SOL    HW284654   9.358  11.035  10.088
94253SOL     OW84655  14.560   1.389  12.481
94253SOL    HW184656  14.631   1.453  12.474
94253SOL    HW284657  14.586   1.318  12.422
94254SOL     OW84658  13.154   2.414  10.603
94254SOL    HW184659  13.198   2.494  10.632
94254SOL    HW284660  13.192   2.345  10.657
94255SOL     OW84661  10.265  10.890  10.990
94255SOL    HW184662  10.294  10.933  10.910
94255SOL    HW284663  10.173  10.872  10.976
94256SOL     OW84664  13.064   0.831   1.397
94256SOL    HW184665  13.131   0.821   1.466
94256SOL    HW284666  13.068   0.923   1.374
94257SOL     OW84667  10.703   0.970   7.561
94257SOL    HW184668  10.623   1.013   7.530
94257SOL    HW284669  10.687   0.955   7.654
94258SOL     OW84670  11.833   0.132   9.455
94258SOL    HW184671  11.926   0.147   9.471
94258SOL    HW284672  11.795   0.219   9.447
94259SOL     OW84673  10.472  11.012  13.079
94259SOL    HW184674  10.444  11.102  13.098
94259SOL    HW284675  10.557  11.004  13.121
94260SOL     OW84676   0.005   0.275   7.589
94260SOL    HW184677  14.822   0.298   7.665
94260SOL    HW284678   0.093   0.305   7.609
94261SOL     OW84679  14.525   8.148  10.190
94261SOL    HW184680  14.552   8.080  10.250
94261SOL    HW284681  14.514   8.104  10.106
94262SOL     OW84682   1.697   5.639   5.906
94262SOL    HW184683   1.675   5.639   5.813
94262SOL    HW284684   1.630   5.694   5.947
94263SOL     OW84685   4.974   3.963   5.538
94263SOL    HW184686   4.960   3.949   5.631
94263SOL    HW284687   4.930   3.890   5.495
94264SOL     OW84688  13.177   6.461  14.841
94264SOL    HW184689  13.087   6.436  14.818
94264SOL    HW284690  13.231   6.420  14.773
94265SOL     OW84691  14.160   9.264  10.603
94265SOL    HW184692  14.114   9.343  10.629
94265SOL    HW284693  14.096   9.214  10.553
94266SOL     OW84694  13.910   8.948   1.326
94266SOL    HW184695  13.931   8.975   1.416
94266SOL    HW284696  13.995   8.947   1.282
94267SOL     OW84697   0.075   8.438  12.139
94267SOL    HW184698   0.167   8.464  12.146
94267SOL    HW284699   0.040   8.493  12.069
94268SOL     OW84700   3.488   5.689  13.331
94268SOL    HW184701   3.449   5.734  13.256
94268SOL    HW284702   3.560   5.637  13.293
94269SOL     OW84703  13.306   5.327   5.439
94269SOL    HW184704  13.312   5.260   5.372
94269SOL    HW284705  13.396   5.338   5.470
94270SOL     OW84706  10.664  14.009  10.315
94270SOL    HW184707  10.643  14.032  10.225
94270SOL    HW284708  10.758  13.994  10.315
94271SOL     OW84709   2.174   4.378   5.465
94271SOL    HW184710   2.157   4.450   5.526
94271SOL    HW284711   2.266   4.355   5.482
94272SOL     OW84712  12.241   0.252   8.813
94272SOL    HW184713  12.302   0.249   8.886
94272SOL    HW284714  12.157   0.225   8.850
94273SOL     OW84715  12.689   6.561   6.191
94273SOL    HW184716  12.734   6.615   6.257
94273SOL    HW284717  12.654   6.624   6.129
94274SOL     OW84718  13.550   2.389   4.629
94274SOL    HW184719  13.566   2.435   4.711
94274SOL    HW284720  13.457   2.405   4.611
94275SOL     OW84721   5.762   2.280   8.496
94275SOL    HW184722   5.796   2.364   8.465
94275SOL    HW284723   5.692   2.258   8.435
94276SOL     OW84724   0.966   7.157   8.114
94276SOL    HW184725   1.028   7.093   8.149
94276SOL    HW284726   0.900   7.104   8.068
94277SOL     OW84727   5.992   1.019  11.989
94277SOL    HW184728   5.990   0.934  11.946
94277SOL    HW284729   6.046   1.073  11.932
94278SOL     OW84730  11.611  13.408   1.974
94278SOL    HW184731  11.689  13.462   1.977
94278SOL    HW284732  11.585  13.396   2.065
94279SOL     OW84733   3.397   2.427   3.805
94279SOL    HW184734   3.332   2.485   3.844
94279SOL    HW284735   3.481   2.463   3.832
94280SOL     OW84736  13.848  14.017   5.725
94280SOL    HW184737  13.824  13.999   5.816
94280SOL    HW284738  13.766  14.011   5.676
94281SOL     OW84739   1.520   5.123   3.767
94281SOL    HW184740   1.554   5.073   3.841
94281SOL    HW284741   1.500   5.056   3.701
94282SOL     OW84742  14.599  14.540   2.106
94282SOL    HW184743  14.691  14.549   2.131
94282SOL    HW284744  14.588  14.446   2.090
94283SOL     OW84745  13.981   5.966   2.391
94283SOL    HW184746  13.948   6.006   2.311
94283SOL    HW284747  13.978   5.872   2.373
94284SOL     OW84748   6.628   2.728   7.391
94284SOL    HW184749   6.672   2.703   7.310
94284SOL    HW284750   6.549   2.674   7.393
94285SOL     OW84751  12.399   4.948  11.574
94285SOL    HW184752  12.435   5.031  11.543
94285SOL    HW284753  12.473   4.887  11.569
94286SOL     OW84754   5.829   0.038  13.986
94286SOL    HW184755   5.894   0.105  13.962
94286SOL    HW284756   5.871  14.825  13.961
94287SOL     OW84757   7.601  14.266   3.274
94287SOL    HW184758   7.579  14.254   3.366
94287SOL    HW284759   7.571  14.185   3.232
94288SOL     OW84760   9.090   5.292  10.101
94288SOL    HW184761   9.174   5.278  10.058
94288SOL    HW284762   9.096   5.243  10.183
94289SOL     OW84763   4.792  13.081  12.975
94289SOL    HW184764   4.778  12.989  12.997
94289SOL    HW284765   4.821  13.080  12.884
94290SOL     OW84766  12.506   0.184   7.915
94290SOL    HW184767  12.470   0.128   7.846
94290SOL    HW284768  12.431   0.209   7.968
94291SOL     OW84769   5.774   1.700   1.025
94291SOL    HW184770   5.845   1.759   1.047
94291SOL    HW284771   5.817   1.625   0.984
94292SOL     OW84772   9.723   0.006   1.631
94292SOL    HW184773   9.767  14.796   1.601
94292SOL    HW284774   9.630  14.859   1.615
94293SOL     OW84775  13.525   2.338   9.900
94293SOL    HW184776  13.528   2.299   9.812
94293SOL    HW284777  13.473   2.276   9.951
94294SOL     OW84778  14.423   0.318   5.895
94294SOL    HW184779  14.345   0.314   5.949
94294SOL    HW284780  14.491   0.354   5.952
94295SOL     OW84781   7.248   2.973  14.517
94295SOL    HW184782   7.292   3.036  14.574
94295SOL    HW284783   7.186   2.928  14.573
94296SOL     OW84784  11.097   3.263  11.551
94296SOL    HW184785  11.066   3.175  11.571
94296SOL    HW284786  11.189   3.264  11.579
94297SOL     OW84787  11.628   7.048   7.683
94297SOL    HW184788  11.706   7.097   7.658
94297SOL    HW284789  11.632   7.044   7.778
94298SOL     OW84790   7.504   3.412   7.517
94298SOL    HW184791   7.575   3.477   7.526
94298SOL    HW284792   7.442   3.435   7.586
94299SOL     OW84793   3.724   6.804   4.136
94299SOL    HW184794   3.713   6.727   4.081
94299SOL    HW284795   3.741   6.876   4.075
94300SOL     OW84796   0.310   0.605   3.312
94300SOL    HW184797   0.261   0.679   3.347
94300SOL    HW284798   0.295   0.610   3.217
94301SOL     OW84799   3.470   8.746  12.120
94301SOL    HW184800   3.495   8.822  12.067
94301SOL    HW284801   3.393   8.775  12.170
94302SOL     OW84802   1.039  13.157   1.041
94302SOL    HW184803   1.005  13.070   1.060
94302SOL    HW284804   1.088  13.182   1.119
94303SOL     OW84805  10.622  10.369   6.509
94303SOL    HW184806  10.711  10.395   6.485
94303SOL    HW284807  10.580  10.451   6.536
94304SOL     OW84808   0.585   5.876  11.303
94304SOL    HW184809   0.567   5.964  11.336
94304SOL    HW284810   0.680   5.865  11.312
94305SOL     OW84811   8.386   0.508   4.857
94305SOL    HW184812   8.474   0.533   4.886
94305SOL    HW284813   8.349   0.461   4.932
94306SOL     OW84814   1.303  11.892   9.623
94306SOL    HW184815   1.386  11.850   9.597
94306SOL    HW284816   1.248  11.819   9.650
94307SOL     OW84817   5.037  12.810   5.724
94307SOL    HW184818   4.962  12.752   5.733
94307SOL    HW284819   5.022  12.855   5.641
94308SOL     OW84820  13.071   1.184  10.555
94308SOL    HW184821  13.082   1.098  10.514
94308SOL    HW284822  13.049   1.164  10.646
94309SOL     OW84823   8.377   0.565  13.142
94309SOL    HW184824   8.437   0.639  13.150
94309SOL    HW284825   8.296   0.596  13.181
94310SOL     OW84826  11.129   6.466   2.738
94310SOL    HW184827  11.136   6.391   2.680
94310SOL    HW284828  11.219   6.500   2.744
94311SOL     OW84829   9.978  14.024   6.763
94311SOL    HW184830   9.986  14.051   6.854
94311SOL    HW284831   9.944  14.100   6.717
94312SOL     OW84832  13.972  11.241   9.524
94312SOL    HW184833  13.977  11.326   9.480
94312SOL    HW284834  13.983  11.261   9.617
94313SOL     OW84835   0.642   2.931   3.101
94313SOL    HW184836   0.695   2.977   3.035
94313SOL    HW284837   0.706   2.883   3.154
94314SOL     OW84838   5.445   8.168  11.622
94314SOL    HW184839   5.374   8.118  11.661
94314SOL    HW284840   5.491   8.105  11.566
94315SOL     OW84841  11.590   4.777   5.076
94315SOL    HW184842  11.563   4.824   5.155
94315SOL    HW284843  11.510   4.734   5.046
94316SOL     OW84844   0.809  10.348   5.798
94316SOL    HW184845   0.893  10.302   5.799
94316SOL    HW284846   0.788  10.361   5.891
94317SOL     OW84847   4.608   8.411   9.015
94317SOL    HW184848   4.626   8.483   9.076
94317SOL    HW284849   4.621   8.332   9.067
94318SOL     OW84850   2.267  14.434   9.932
94318SOL    HW184851   2.303  14.517   9.963
94318SOL    HW284852   2.192  14.418   9.989
94319SOL     OW84853   1.145   2.510  10.302
94319SOL    HW184854   1.165   2.593  10.346
94319SOL    HW284855   1.172   2.443  10.365
94320SOL     OW84856   0.996   2.985  11.136
94320SOL    HW184857   1.045   2.998  11.217
94320SOL    HW284858   0.907   2.965  11.164
94321SOL     OW84859   0.713   9.191   5.848
94321SOL    HW184860   0.727   9.185   5.942
94321SOL    HW284861   0.618   9.199   5.839
94322SOL     OW84862   1.384  12.331   9.824
94322SOL    HW184863   1.453  12.275   9.858
94322SOL    HW284864   1.384  12.316   9.730
94323SOL     OW84865   7.937   5.299   5.074
94323SOL    HW184866   8.030   5.323   5.072
94323SOL    HW284867   7.903   5.340   5.154
94324SOL     OW84868   2.391   4.092   0.865
94324SOL    HW184869   2.437   4.169   0.830
94324SOL    HW284870   2.459   4.026   0.877
94325SOL     OW84871  14.133   6.504   1.682
94325SOL    HW184872  14.113   6.543   1.597
94325SOL    HW284873  14.229   6.508   1.687
94326SOL     OW84874   2.815  14.667   0.836
94326SOL    HW184875   2.901  14.692   0.868
94326SOL    HW284876   2.825  14.577   0.805
94327SOL     OW84877   6.808   7.923  13.839
94327SOL    HW184878   6.748   7.852  13.814
94327SOL    HW284879   6.870   7.928  13.767
94328SOL     OW84880  13.753  11.441   2.341
94328SOL    HW184881  13.782  11.418   2.430
94328SOL    HW284882  13.705  11.523   2.353
94329SOL     OW84883  14.183   7.874  12.488
94329SOL    HW184884  14.251   7.928  12.448
94329SOL    HW284885  14.133   7.934  12.543
94330SOL     OW84886   8.037  14.866   5.139
94330SOL    HW184887   8.108  14.811   5.172
94330SOL    HW284888   8.071   0.032   5.057
94331SOL     OW84889   5.268   6.742  10.866
94331SOL    HW184890   5.196   6.760  10.805
94331SOL    HW284891   5.320   6.822  10.866
94332SOL     OW84892   5.033  11.230   7.535
94332SOL    HW184893   5.016  11.141   7.505
94332SOL    HW284894   4.952  11.278   7.517
94333SOL     OW84895  10.295  10.500  13.428
94333SOL    HW184896  10.291  10.532  13.338
94333SOL    HW284897  10.255  10.413  13.424
94334SOL     OW84898  11.943  11.644  10.046
94334SOL    HW184899  11.875  11.703  10.078
94334SOL    HW284900  11.974  11.685   9.965
94335SOL     OW84901  14.774  13.583   8.020
94335SOL    HW184902  14.762  13.628   8.104
94335SOL    HW284903  14.847  13.629   7.978
94336SOL     OW84904   5.249   5.619  10.832
94336SOL    HW184905   5.256   5.555  10.762
94336SOL    HW284906   5.307   5.690  10.806
94337SOL     OW84907   4.908   9.166   6.837
94337SOL    HW184908   4.909   9.252   6.879
94337SOL    HW284909   4.824   9.163   6.791
94338SOL     OW84910   9.431  12.148   0.198
94338SOL    HW184911   9.491  12.161   0.271
94338SOL    HW284912   9.463  12.208   0.130
94339SOL     OW84913   1.380   3.775  13.835
94339SOL    HW184914   1.461   3.814  13.803
94339SOL    HW284915   1.405   3.689  13.869
94340SOL     OW84916   2.226   8.916  14.816
94340SOL    HW184917   2.134   8.905  14.839
94340SOL    HW284918   2.241   8.854  14.745
94341SOL     OW84919   4.334   1.967   5.407
94341SOL    HW184920   4.380   2.034   5.355
94341SOL    HW284921   4.404   1.910   5.439
94342SOL     OW84922   3.125   8.348   1.783
94342SOL    HW184923   3.204   8.349   1.837
94342SOL    HW284924   3.057   8.312   1.840
94343SOL     OW84925   4.567  12.596   5.287
94343SOL    HW184926   4.536  12.648   5.213
94343SOL    HW284927   4.508  12.521   5.290
94344SOL     OW84928   5.126  14.387  13.433
94344SOL    HW184929   5.033  14.407  13.426
94344SOL    HW284930   5.129  14.294  13.457
94345SOL     OW84931   7.572   2.601  10.349
94345SOL    HW184932   7.582   2.615  10.443
94345SOL    HW284933   7.579   2.688  10.310
94346SOL     OW84934   5.205   7.177  11.904
94346SOL    HW184935   5.289   7.139  11.881
94346SOL    HW284936   5.151   7.103  11.931
94347SOL     OW84937  11.560  12.767   1.828
94347SOL    HW184938  11.556  12.715   1.908
94347SOL    HW284939  11.490  12.832   1.839
94348SOL     OW84940   9.713   3.224   8.316
94348SOL    HW184941   9.799   3.206   8.353
94348SOL    HW284942   9.709   3.319   8.310
94349SOL     OW84943   5.934   8.608   0.103
94349SOL    HW184944   6.005   8.553   0.069
94349SOL    HW284945   5.856   8.552   0.098
94350SOL     OW84946  12.615   2.868   9.449
94350SOL    HW184947  12.562   2.913   9.515
94350SOL    HW284948  12.704   2.900   9.465
94351SOL     OW84949  14.377  11.751   2.341
94351SOL    HW184950  14.338  11.699   2.271
94351SOL    HW284951  14.471  11.745   2.325
94352SOL     OW84952   8.937   8.098  12.753
94352SOL    HW184953   8.882   8.099  12.675
94352SOL    HW284954   9.027   8.101  12.719
94353SOL     OW84955  12.807  10.325  12.634
94353SOL    HW184956  12.889  10.282  12.657
94353SOL    HW284957  12.828  10.418  12.630
94354SOL     OW84958   7.341   0.665   2.960
94354SOL    HW184959   7.356   0.756   2.986
94354SOL    HW284960   7.395   0.614   3.020
94355SOL     OW84961   2.618   0.857   7.113
94355SOL    HW184962   2.662   0.886   7.193
94355SOL    HW284963   2.551   0.923   7.097
94356SOL     OW84964   4.898   2.686   2.185
94356SOL    HW184965   4.868   2.735   2.108
94356SOL    HW284966   4.830   2.620   2.199
94357SOL     OW84967   0.228  13.784   0.112
94357SOL    HW184968   0.295  13.852   0.101
94357SOL    HW284969   0.263  13.728   0.181
94358SOL     OW84970   9.110  11.939   3.691
94358SOL    HW184971   9.168  11.913   3.763
94358SOL    HW284972   9.081  11.856   3.653
94359SOL     OW84973   3.479  10.469  14.031
94359SOL    HW184974   3.404  10.424  13.990
94359SOL    HW284975   3.442  10.550  14.065
94360SOL     OW84976   9.213   5.927  13.837
94360SOL    HW184977   9.293   5.885  13.870
94360SOL    HW284978   9.241   5.972  13.758
94361SOL     OW84979   0.136   8.816   1.285
94361SOL    HW184980   0.201   8.749   1.264
94361SOL    HW284981   0.176   8.898   1.256
94362SOL     OW84982   8.431  14.067  11.196
94362SOL    HW184983   8.475  14.125  11.135
94362SOL    HW284984   8.471  14.086  11.281
94363SOL     OW84985   6.526  13.285   8.036
94363SOL    HW184986   6.525  13.317   8.126
94363SOL    HW284987   6.618  13.268   8.017
94364SOL     OW84988   3.011   9.707  10.613
94364SOL    HW184989   2.994   9.643  10.544
94364SOL    HW284990   2.969   9.787  10.581
94365SOL     OW84991   0.794   9.835   2.926
94365SOL    HW184992   0.752   9.919   2.903
94365SOL    HW284993   0.819   9.797   2.842
94366SOL     OW84994  11.958   0.257  10.667
94366SOL    HW184995  12.022   0.237  10.599
94366SOL    HW284996  11.983   0.201  10.741
94367SOL     OW84997  13.964  14.330   8.348
94367SOL    HW184998  14.047  14.364   8.382
94367SOL    HW284999  13.984  14.241   8.318
94368SOL     OW85000   6.131   7.750  14.334
94368SOL    HW185001   6.059   7.754  14.398
94368SOL    HW285002   6.130   7.660  14.303
94369SOL     OW85003   1.098  10.411   0.995
94369SOL    HW185004   1.172  10.395   0.938
94369SOL    HW285005   1.071  10.501   0.975
94370SOL     OW85006   2.708  12.965  13.565
94370SOL    HW185007   2.678  12.875  13.575
94370SOL    HW285008   2.684  13.008  13.647
94371SOL     OW85009   9.864   3.390   1.918
94371SOL    HW185010   9.823   3.448   1.983
94371SOL    HW285011   9.957   3.416   1.918
94372SOL     OW85012  13.909  13.203   1.163
94372SOL    HW185013  13.968  13.206   1.088
94372SOL    HW285014  13.940  13.130   1.216
94373SOL     OW85015  13.758   7.771   2.669
94373SOL    HW185016  13.699   7.752   2.741
94373SOL    HW285017  13.702   7.773   2.591
94374SOL     OW85018  12.470  10.493   8.554
94374SOL    HW185019  12.529  10.488   8.479
94374SOL    HW285020  12.441  10.403   8.569
94375SOL     OW85021   4.968   5.972   6.447
94375SOL    HW185022   4.970   6.061   6.482
94375SOL    HW285023   5.059   5.953   6.424
94376SOL     OW85024  12.223  13.937   9.216
94376SOL    HW185025  12.299  13.957   9.271
94376SOL    HW285026  12.213  13.842   9.223
94377SOL     OW85027   9.868   7.504   3.055
94377SOL    HW185028   9.931   7.513   2.983
94377SOL    HW285029   9.844   7.594   3.078
94378SOL     OW85030   4.808   8.718   6.662
94378SOL    HW185031   4.846   8.692   6.746
94378SOL    HW285032   4.833   8.649   6.601
94379SOL     OW85033   0.655   4.310   3.263
94379SOL    HW185034   0.664   4.214   3.258
94379SOL    HW285035   0.616   4.326   3.349
94380SOL     OW85036  10.014   0.488  14.004
94380SOL    HW185037  10.048   0.427  14.070
94380SOL    HW285038  10.082   0.491  13.937
94381SOL     OW85039   5.810   9.352   2.189
94381SOL    HW185040   5.847   9.431   2.150
94381SOL    HW285041   5.853   9.280   2.143
94382SOL     OW85042   7.816   5.567   4.133
94382SOL    HW185043   7.835   5.649   4.087
94382SOL    HW285044   7.812   5.501   4.064
94383SOL     OW85045   3.531  11.932   9.807
94383SOL    HW185046   3.532  11.919   9.713
94383SOL    HW285047   3.439  11.923   9.832
94384SOL     OW85048   3.746   9.737  12.381
94384SOL    HW185049   3.672   9.798  12.375
94384SOL    HW285050   3.751   9.715  12.474
94385SOL     OW85051   7.121  10.276  11.006
94385SOL    HW185052   7.135  10.185  11.034
94385SOL    HW285053   7.132  10.273  10.911
94386SOL     OW85054   4.283   9.916  12.618
94386SOL    HW185055   4.291   9.844  12.556
94386SOL    HW285056   4.259   9.874  12.701
94387SOL     OW85057   5.528  13.810   6.059
94387SOL    HW185058   5.569  13.825   5.974
94387SOL    HW285059   5.478  13.890   6.077
94388SOL     OW85060   7.641  14.441   8.176
94388SOL    HW185061   7.587  14.481   8.107
94388SOL    HW285062   7.616  14.349   8.175
94389SOL     OW85063  14.813   3.572   6.766
94389SOL    HW185064  14.821   3.506   6.697
94389SOL    HW285065   0.031   3.581   6.802
94390SOL     OW85066   5.087   6.731   3.750
94390SOL    HW185067   5.069   6.652   3.802
94390SOL    HW285068   5.084   6.700   3.659
94391SOL     OW85069  11.909   6.110   4.924
94391SOL    HW185070  11.903   6.123   5.019
94391SOL    HW285071  12.002   6.118   4.904
94392SOL     OW85072   4.520  11.066   5.864
94392SOL    HW185073   4.519  10.987   5.918
94392SOL    HW285074   4.538  11.035   5.776
94393SOL     OW85075  10.598  13.889   6.729
94393SOL    HW185076  10.557  13.955   6.784
94393SOL    HW285077  10.605  13.812   6.784
94394SOL     OW85078   7.791   2.821   2.791
94394SOL    HW185079   7.741   2.891   2.833
94394SOL    HW285080   7.739   2.798   2.713
94395SOL     OW85081   2.360   6.072   3.622
94395SOL    HW185082   2.307   5.998   3.651
94395SOL    HW285083   2.338   6.143   3.684
94396SOL     OW85084   2.260  12.686   1.544
94396SOL    HW185085   2.227  12.721   1.462
94396SOL    HW285086   2.313  12.610   1.518
94397SOL     OW85087  11.470   8.234   4.948
94397SOL    HW185088  11.506   8.225   5.036
94397SOL    HW285089  11.383   8.195   4.954
94398SOL     OW85090   5.806   5.485   6.419
94398SOL    HW185091   5.879   5.532   6.458
94398SOL    HW285092   5.789   5.533   6.337
94399SOL     OW85093   8.990   0.284  12.416
94399SOL    HW185094   8.984   0.295  12.511
94399SOL    HW285095   8.900   0.296  12.385
94400SOL     OW85096  10.492  10.001   4.719
94400SOL    HW185097  10.450  10.050   4.789
94400SOL    HW285098  10.427  10.001   4.648
94401SOL     OW85099   0.328  10.275   2.342
94401SOL    HW185100   0.325  10.369   2.328
94401SOL    HW285101   0.358  10.238   2.259
94402SOL     OW85102   9.495   1.275   5.663
94402SOL    HW185103   9.498   1.317   5.749
94402SOL    HW285104   9.410   1.229   5.661
94403SOL     OW85105   0.974   6.931  14.076
94403SOL    HW185106   0.886   6.914  14.111
94403SOL    HW285107   1.033   6.890  14.139
94404SOL     OW85108   5.808  10.977  10.853
94404SOL    HW185109   5.786  11.061  10.813
94404SOL    HW285110   5.861  11.001  10.929
94405SOL     OW85111   0.529  13.804  10.142
94405SOL    HW185112   0.620  13.782  10.124
94405SOL    HW285113   0.529  13.899  10.155
94406SOL     OW85114   9.622  14.636  10.747
94406SOL    HW185115   9.636  14.725  10.778
94406SOL    HW285116   9.539  14.609  10.786
94407SOL     OW85117  13.599  13.006   5.597
94407SOL    HW185118  13.614  13.027   5.505
94407SOL    HW285119  13.594  13.092   5.640
94408SOL     OW85120  10.222  11.672   9.162
94408SOL    HW185121  10.231  11.643   9.071
94408SOL    HW285122  10.284  11.745   9.170
94409SOL     OW85123   8.313   2.698   1.528
94409SOL    HW185124   8.337   2.681   1.619
94409SOL    HW285125   8.229   2.654   1.517
94410SOL     OW85126   9.909  10.972   4.947
94410SOL    HW185127   9.940  10.943   4.861
94410SOL    HW285128   9.828  11.020   4.928
94411SOL     OW85129   4.196   2.492  11.561
94411SOL    HW185130   4.171   2.559  11.625
94411SOL    HW285131   4.162   2.410  11.598
94412SOL     OW85132   0.909   9.798   2.661
94412SOL    HW185133   0.964   9.729   2.700
94412SOL    HW285134   0.971   9.867   2.639
94413SOL     OW85135   2.444  12.921  10.635
94413SOL    HW185136   2.521  12.934  10.579
94413SOL    HW285137   2.474  12.940  10.724
94414SOL     OW85138   8.962   4.585   6.151
94414SOL    HW185139   9.025   4.587   6.223
94414SOL    HW285140   8.881   4.617   6.189
94415SOL     OW85141  13.180   9.159  11.977
94415SOL    HW185142  13.126   9.237  11.967
94415SOL    HW285143  13.195   9.152  12.071
94416SOL     OW85144   1.630   2.342   1.544
94416SOL    HW185145   1.567   2.366   1.611
94416SOL    HW285146   1.584   2.355   1.461
94417SOL     OW85147  13.875  13.097   5.684
94417SOL    HW185148  13.787  13.114   5.649
94417SOL    HW285149  13.861  13.074   5.775
94418SOL     OW85150   3.448  13.330   0.023
94418SOL    HW185151   3.525  13.321   0.079
94418SOL    HW285152   3.449  13.251  14.838
94419SOL     OW85153  12.279   9.516   7.502
94419SOL    HW185154  12.338   9.506   7.427
94419SOL    HW285155  12.255   9.608   7.502
94420SOL     OW85156   4.201   8.557  14.570
94420SOL    HW185157   4.294   8.575  14.582
94420SOL    HW285158   4.168   8.630  14.518
94421SOL     OW85159   4.228   1.107   5.632
94421SOL    HW185160   4.248   1.138   5.721
94421SOL    HW285161   4.140   1.141   5.615
94422SOL     OW85162  12.515   5.820   2.884
94422SOL    HW185163  12.423   5.827   2.907
94422SOL    HW285164  12.520   5.742   2.829
94423SOL     OW85165  11.181   8.552  12.108
94423SOL    HW185166  11.269   8.533  12.140
94423SOL    HW285167  11.183   8.528  12.016
94424SOL     OW85168  14.122  13.992   0.384
94424SOL    HW185169  14.212  14.013   0.358
94424SOL    HW285170  14.123  13.898   0.401
94425SOL     OW85171  14.868   5.877   9.766
94425SOL    HW185172   0.053   5.929   9.824
94425SOL    HW285173  14.813   5.942   9.721
94426SOL     OW85174   5.105   9.007   8.022
94426SOL    HW185175   5.057   9.072   7.971
94426SOL    HW285176   5.038   8.960   8.071
94427SOL     OW85177   1.739   6.604   6.205
94427SOL    HW185178   1.724   6.647   6.121
94427SOL    HW285179   1.753   6.675   6.266
94428SOL     OW85180   7.731  13.715  13.571
94428SOL    HW185181   7.643  13.743  13.597
94428SOL    HW285182   7.722  13.623  13.549
94429SOL     OW85183   2.898   2.578  13.688
94429SOL    HW185184   2.936   2.666  13.685
94429SOL    HW285185   2.962   2.523  13.642
94430SOL     OW85186   7.761   6.629  12.548
94430SOL    HW185187   7.833   6.625  12.485
94430SOL    HW285188   7.733   6.720  12.548
94431SOL     OW85189  14.412  11.538  12.171
94431SOL    HW185190  14.360  11.616  12.189
94431SOL    HW285191  14.490  11.571  12.126
94432SOL     OW85192   9.874   4.781   2.589
94432SOL    HW185193   9.947   4.760   2.531
94432SOL    HW285194   9.832   4.856   2.548
94433SOL     OW85195   2.671  13.033   8.568
94433SOL    HW185196   2.605  13.056   8.634
94433SOL    HW285197   2.736  13.102   8.574
94434SOL     OW85198   5.682  10.836   7.248
94434SOL    HW185199   5.637  10.770   7.196
94434SOL    HW285200   5.745  10.875   7.187
94435SOL     OW85201  12.026   5.480   7.098
94435SOL    HW185202  12.014   5.386   7.102
94435SOL    HW285203  11.948   5.513   7.053
94436SOL     OW85204   2.573   7.833  13.377
94436SOL    HW185205   2.629   7.780  13.435
94436SOL    HW285206   2.484   7.814  13.406
94437SOL     OW85207   7.155   0.037   6.746
94437SOL    HW185208   7.226  14.865   6.698
94437SOL    HW285209   7.184   0.037   6.837
94438SOL     OW85210  12.859   8.545   2.036
94438SOL    HW185211  12.794   8.583   2.095
94438SOL    HW285212  12.837   8.581   1.950
94439SOL     OW85213  12.952   1.278  12.848
94439SOL    HW185214  12.946   1.373  12.856
94439SOL    HW285215  12.994   1.263  12.763
94440SOL     OW85216  13.800  14.704  13.530
94440SOL    HW185217  13.755  14.642  13.473
94440SOL    HW285218  13.801  14.662  13.616
94441SOL     OW85219  10.069  14.549  13.699
94441SOL    HW185220  10.113  14.466  13.680
94441SOL    HW285221  10.110  14.611  13.638
94442SOL     OW85222  12.585   8.948   5.739
94442SOL    HW185223  12.611   8.926   5.828
94442SOL    HW285224  12.650   9.012   5.710
94443SOL     OW85225   6.015   9.738   3.586
94443SOL    HW185226   6.102   9.725   3.550
94443SOL    HW285227   6.030   9.770   3.675
94444SOL     OW85228   6.498  13.323  12.506
94444SOL    HW185229   6.465  13.291  12.422
94444SOL    HW285230   6.525  13.244  12.552
94445SOL     OW85231   6.489   3.525  10.880
94445SOL    HW185232   6.537   3.587  10.826
94445SOL    HW285233   6.553   3.492  10.942
94446SOL     OW85234  13.963   5.584   2.801
94446SOL    HW185235  14.058   5.577   2.801
94446SOL    HW285236  13.934   5.506   2.850
94447SOL     OW85237   3.960   8.069  11.103
94447SOL    HW185238   3.931   8.087  11.192
94447SOL    HW285239   3.905   8.125  11.048
94448SOL     OW85240   4.309   9.163   9.726
94448SOL    HW185241   4.356   9.244   9.746
94448SOL    HW285242   4.377   9.103   9.694
94449SOL     OW85243   8.786   1.647  13.097
94449SOL    HW185244   8.827   1.607  13.174
94449SOL    HW285245   8.692   1.644  13.116
94450SOL     OW85246   3.854   3.047   1.916
94450SOL    HW185247   3.859   3.140   1.895
94450SOL    HW285248   3.770   3.036   1.960
94451SOL     OW85249  14.135   5.028   5.343
94451SOL    HW185250  14.097   4.950   5.303
94451SOL    HW285251  14.195   5.062   5.277
94452SOL     OW85252  12.448   0.027   0.728
94452SOL    HW185253  12.496  14.817   0.705
94452SOL    HW285254  12.369   0.024   0.673
94453SOL     OW85255   3.959   6.337   6.553
94453SOL    HW185256   3.952   6.387   6.472
94453SOL    HW285257   3.920   6.252   6.531
94454SOL     OW85258  14.111   9.642   8.367
94454SOL    HW185259  14.022   9.645   8.402
94454SOL    HW285260  14.150   9.725   8.393
94455SOL     OW85261   4.118   5.381  13.575
94455SOL    HW185262   4.138   5.321  13.646
94455SOL    HW285263   4.169   5.460  13.594
94456SOL     OW85264   4.373  10.016   1.030
94456SOL    HW185265   4.448   9.983   1.080
94456SOL    HW285266   4.297   9.972   1.069
94457SOL     OW85267   2.518  13.294   6.208
94457SOL    HW185268   2.573  13.222   6.178
94457SOL    HW285269   2.471  13.258   6.283
94458SOL     OW85270   5.808  10.884   9.891
94458SOL    HW185271   5.765  10.799   9.878
94458SOL    HW285272   5.767  10.920   9.969
94459SOL     OW85273  12.864  10.310   9.391
94459SOL    HW185274  12.783  10.288   9.437
94459SOL    HW285275  12.835  10.356   9.312
94460SOL     OW85276   5.903   2.386  14.258
94460SOL    HW185277   5.861   2.331  14.191
94460SOL    HW285278   5.833   2.445  14.286
94461SOL     OW85279   0.027   7.667   3.045
94461SOL    HW185280  14.833   7.738   3.042
94461SOL    HW285281  14.845   7.587   3.054
94462SOL     OW85282   2.950   5.706   6.222
94462SOL    HW185283   2.954   5.657   6.304
94462SOL    HW285284   2.899   5.784   6.244
94463SOL     OW85285   9.242   4.326   3.188
94463SOL    HW185286   9.193   4.302   3.267
94463SOL    HW285287   9.185   4.300   3.116
94464SOL     OW85288   1.325   2.549   4.711
94464SOL    HW185289   1.230   2.558   4.707
94464SOL    HW285290   1.340   2.477   4.773
94465SOL     OW85291   2.558   2.653  10.524
94465SOL    HW185292   2.507   2.588  10.476
94465SOL    HW285293   2.629   2.602  10.564
94466SOL     OW85294   5.891   8.931   0.841
94466SOL    HW185295   5.901   8.879   0.761
94466SOL    HW285296   5.897   8.867   0.912
94467SOL     OW85297   6.784   9.741   0.388
94467SOL    HW185298   6.715   9.799   0.357
94467SOL    HW285299   6.865   9.783   0.360
94468SOL     OW85300   3.086   5.341  11.822
94468SOL    HW185301   3.046   5.351  11.909
94468SOL    HW285302   3.170   5.386  11.829
94469SOL     OW85303  11.310   6.442   1.595
94469SOL    HW185304  11.381   6.430   1.657
94469SOL    HW285305  11.354   6.465   1.513
94470SOL     OW85306   7.889   1.448  10.119
94470SOL    HW185307   7.978   1.480  10.133
94470SOL    HW285308   7.867   1.478  10.030
94471SOL     OW85309   6.408  11.894   0.820
94471SOL    HW185310   6.418  11.830   0.750
94471SOL    HW285311   6.326  11.870   0.864
94472SOL     OW85312   7.876  13.102   6.936
94472SOL    HW185313   7.822  13.126   7.011
94472SOL    HW285314   7.814  13.074   6.869
94473SOL     OW85315   0.035  12.660  14.584
94473SOL    HW185316   0.004  12.746  14.613
94473SOL    HW285317  14.825  12.606  14.582
94474SOL     OW85318   3.000   9.094   2.248
94474SOL    HW185319   3.019   9.173   2.199
94474SOL    HW285320   2.914   9.065   2.215
94475SOL     OW85321   1.013   5.730   6.114
94475SOL    HW185322   0.950   5.748   6.044
94475SOL    HW285323   1.091   5.780   6.090
94476SOL     OW85324   5.158   0.279   5.009
94476SOL    HW185325   5.202   0.307   5.090
94476SOL    HW285326   5.193   0.191   4.994
94477SOL     OW85327   8.970   0.767   9.140
94477SOL    HW185328   8.879   0.759   9.166
94477SOL    HW285329   8.971   0.749   9.046
94478SOL     OW85330   3.311  11.238  12.549
94478SOL    HW185331   3.223  11.201  12.553
94478SOL    HW285332   3.310  11.295  12.473
94479SOL     OW85333   4.659   1.241   5.658
94479SOL    HW185334   4.719   1.215   5.589
94479SOL    HW285335   4.687   1.192   5.736
94480SOL     OW85336   2.787  11.576   9.650
94480SOL    HW185337   2.719  11.636   9.681
94480SOL    HW285338   2.855  11.634   9.615
94481SOL     OW85339   6.317   4.894  13.977
94481SOL    HW185340   6.303   4.829  13.908
94481SOL    HW285341   6.410   4.915  13.971
94482SOL     OW85342   2.699  12.275  12.367
94482SOL    HW185343   2.624  12.241  12.319
94482SOL    HW285344   2.774  12.261  12.308
94483SOL     OW85345   9.852  12.755  10.497
94483SOL    HW185346   9.871  12.666  10.467
94483SOL    HW285347   9.772  12.746  10.549
94484SOL     OW85348   6.797  14.508  10.734
94484SOL    HW185349   6.755  14.593  10.721
94484SOL    HW285350   6.883  14.529  10.769
94485SOL     OW85351   7.863  10.955   5.842
94485SOL    HW185352   7.784  10.915   5.806
94485SOL    HW285353   7.886  11.024   5.779
94486SOL     OW85354   7.655   7.133   8.281
94486SOL    HW185355   7.661   7.166   8.371
94486SOL    HW285356   7.624   7.208   8.230
94487SOL     OW85357   6.657   6.594   8.038
94487SOL    HW185358   6.667   6.685   8.066
94487SOL    HW285359   6.691   6.543   8.111
94488SOL     OW85360   8.181   0.040  13.574
94488SOL    HW185361   8.228  14.854  13.636
94488SOL    HW285362   8.195  14.868  13.489
94489SOL     OW85363   6.519   0.088   1.843
94489SOL    HW185364   6.454   0.083   1.772
94489SOL    HW285365   6.486   0.027   1.908
94490SOL     OW85366  12.516   2.037   8.849
94490SOL    HW185367  12.533   1.948   8.878
94490SOL    HW285368  12.543   2.037   8.757
94491SOL     OW85369   9.861   7.691   4.591
94491SOL    HW185370   9.871   7.785   4.602
94491SOL    HW285371   9.836   7.659   4.677
94492SOL     OW85372   9.283   3.807  12.097
94492SOL    HW185373   9.284   3.798  12.001
94492SOL    HW285374   9.364   3.764  12.125
94493SOL     OW85375   8.781   5.611   0.544
94493SOL    HW185376   8.808   5.654   0.626
94493SOL    HW285377   8.692   5.580   0.563
94494SOL     OW85378   8.989  10.291   6.067
94494SOL    HW185379   8.910  10.343   6.055
94494SOL    HW285380   8.971  10.208   6.021
94495SOL     OW85381   9.838  10.459   6.306
94495SOL    HW185382   9.844  10.553   6.319
94495SOL    HW285383   9.870  10.421   6.388
94496SOL     OW85384   1.087   7.786   5.257
94496SOL    HW185385   1.155   7.722   5.280
94496SOL    HW285386   1.005   7.742   5.280
94497SOL     OW85387  14.032   9.063   7.737
94497SOL    HW185388  13.959   9.017   7.695
94497SOL    HW285389  14.097   8.994   7.754
94498SOL     OW85390  14.822  13.849  11.001
94498SOL    HW185391   0.040  13.872  11.032
94498SOL    HW285392  14.765  13.868  11.075
94499SOL     OW85393  10.285  14.779   0.735
94499SOL    HW185394  10.358  14.838   0.713
94499SOL    HW285395  10.328  14.701   0.770
94500SOL     OW85396   9.804   8.496   5.610
94500SOL    HW185397   9.728   8.480   5.554
94500SOL    HW285398   9.846   8.573   5.572
94501SOL     OW85399   1.798  12.538   8.978
94501SOL    HW185400   1.791  12.626   9.015
94501SOL    HW285401   1.892  12.523   8.970
94502SOL     OW85402  10.523  14.456  11.095
94502SOL    HW185403  10.497  14.516  11.165
94502SOL    HW285404  10.477  14.375  11.114
94503SOL     OW85405  12.617  10.140   6.853
94503SOL    HW185406  12.559  10.202   6.809
94503SOL    HW285407  12.586  10.139   6.944
94504SOL     OW85408   1.558   4.288  13.691
94504SOL    HW185409   1.508   4.358  13.650
94504SOL    HW285410   1.501   4.211  13.684
94505SOL     OW85411   5.552   3.236  11.867
94505SOL    HW185412   5.644   3.210  11.855
94505SOL    HW285413   5.502   3.167  11.824
94506SOL     OW85414   8.235   9.118   2.780
94506SOL    HW185415   8.221   9.142   2.689
94506SOL    HW285416   8.157   9.149   2.826
94507SOL     OW85417  10.360   2.651   4.323
94507SOL    HW185418  10.336   2.562   4.349
94507SOL    HW285419  10.285   2.704   4.349
94508SOL     OW85420   8.295   1.099   8.640
94508SOL    HW185421   8.290   1.059   8.553
94508SOL    HW285422   8.389   1.107   8.657
94509SOL     OW85423  13.677   2.551   5.119
94509SOL    HW185424  13.672   2.512   5.206
94509SOL    HW285425  13.723   2.633   5.132
94510SOL     OW85426   3.366   8.469   9.383
94510SOL    HW185427   3.376   8.484   9.289
94510SOL    HW285428   3.312   8.541   9.414
94511SOL     OW85429   8.191   4.491  12.541
94511SOL    HW185430   8.141   4.546  12.480
94511SOL    HW285431   8.208   4.411  12.493
94512SOL     OW85432   6.668  12.292   6.600
94512SOL    HW185433   6.642  12.268   6.689
94512SOL    HW285434   6.763  12.289   6.601
94513SOL     OW85435   2.273   0.043   4.784
94513SOL    HW185436   2.291  14.819   4.779
94513SOL    HW285437   2.338   0.077   4.846
94514SOL     OW85438   6.917   2.683  11.611
94514SOL    HW185439   7.010   2.705  11.618
94514SOL    HW285440   6.871   2.759  11.648
94515SOL     OW85441  11.734   7.156   9.044
94515SOL    HW185442  11.679   7.092   9.089
94515SOL    HW285443  11.813   7.163   9.098
94516SOL     OW85444   2.627  14.812   9.913
94516SOL    HW185445   2.712  14.835   9.876
94516SOL    HW285446   2.565  14.824   9.840
94517SOL     OW85447  13.285   0.961   9.356
94517SOL    HW185448  13.336   0.954   9.437
94517SOL    HW285449  13.348   0.987   9.289
94518SOL     OW85450   7.477   2.831  11.188
94518SOL    HW185451   7.404   2.770  11.200
94518SOL    HW285452   7.440   2.917  11.206
94519SOL     OW85453   7.072   2.656   2.434
94519SOL    HW185454   6.994   2.712   2.434
94519SOL    HW285455   7.043   2.573   2.472
94520SOL     OW85456   2.256   4.277   8.580
94520SOL    HW185457   2.225   4.323   8.502
94520SOL    HW285458   2.351   4.271   8.569
94521SOL     OW85459   6.043   7.415  12.715
94521SOL    HW185460   5.967   7.383  12.764
94521SOL    HW285461   6.082   7.337  12.677
94522SOL     OW85462   4.317   3.501   8.159
94522SOL    HW185463   4.244   3.466   8.209
94522SOL    HW285464   4.366   3.423   8.131
94523SOL     OW85465  10.494   5.038   7.068
94523SOL    HW185466  10.496   5.099   6.995
94523SOL    HW285467  10.530   4.957   7.032
94524SOL     OW85468   4.902  12.590   0.127
94524SOL    HW185469   4.926  12.649   0.199
94524SOL    HW285470   4.916  12.502   0.162
94525SOL     OW85471  12.413   9.621   2.574
94525SOL    HW185472  12.358   9.665   2.639
94525SOL    HW285473  12.502   9.646   2.598
94526SOL     OW85474   2.270   8.023  11.939
94526SOL    HW185475   2.335   7.967  11.898
94526SOL    HW285476   2.258   8.095  11.878
94527SOL     OW85477   7.041   7.535  13.869
94527SOL    HW185478   6.987   7.530  13.790
94527SOL    HW285479   7.094   7.615  13.857
94528SOL     OW85480   6.332  14.607   3.203
94528SOL    HW185481   6.357  14.629   3.113
94528SOL    HW285482   6.364  14.681   3.254
94529SOL     OW85483  12.303   3.982   0.067
94529SOL    HW185484  12.231   3.944   0.017
94529SOL    HW285485  12.261   4.027   0.140
94530SOL     OW85486   0.545   5.068  13.433
94530SOL    HW185487   0.484   5.039  13.365
94530SOL    HW285488   0.624   5.017  13.419
94531SOL     OW85489  14.174  13.447  13.052
94531SOL    HW185490  14.229  13.383  13.006
94531SOL    HW285491  14.235  13.493  13.111
94532SOL     OW85492   2.513  13.483  11.640
94532SOL    HW185493   2.463  13.413  11.682
94532SOL    HW285494   2.478  13.564  11.677
94533SOL     OW85495   3.726   9.727   9.621
94533SOL    HW185496   3.712   9.821   9.606
94533SOL    HW285497   3.740   9.691   9.533
94534SOL     OW85498  13.470   8.284  12.466
94534SOL    HW185499  13.559   8.299  12.498
94534SOL    HW285500  13.415   8.286  12.544
94535SOL     OW85501  12.409   9.210  12.551
94535SOL    HW185502  12.333   9.187  12.498
94535SOL    HW285503  12.464   9.264  12.494
94536SOL     OW85504   2.246  14.047   6.070
94536SOL    HW185505   2.278  13.957   6.069
94536SOL    HW285506   2.319  14.098   6.035
94537SOL     OW85507   3.889   3.134  10.832
94537SOL    HW185508   3.958   3.179  10.881
94537SOL    HW285509   3.936   3.080  10.768
94538SOL     OW85510  11.807  11.693  11.161
94538SOL    HW185511  11.802  11.781  11.123
94538SOL    HW285512  11.747  11.695  11.235
94539SOL     OW85513   7.737  12.830   5.690
94539SOL    HW185514   7.704  12.915   5.662
94539SOL    HW285515   7.810  12.812   5.631
94540SOL     OW85516  12.753  13.055  10.191
94540SOL    HW185517  12.667  13.097  10.193
94540SOL    HW285518  12.814  13.125  10.217
94541SOL     OW85519   7.157   9.703   7.645
94541SOL    HW185520   7.173   9.612   7.617
94541SOL    HW285521   7.165   9.701   7.740
94542SOL     OW85522   4.887   8.426   7.820
94542SOL    HW185523   4.916   8.507   7.862
94542SOL    HW285524   4.822   8.389   7.879
94543SOL     OW85525  11.593   9.289   7.633
94543SOL    HW185526  11.612   9.292   7.540
94543SOL    HW285527  11.641   9.362   7.671
94544SOL     OW85528   0.561  13.161   7.918
94544SOL    HW185529   0.538  13.110   7.840
94544SOL    HW285530   0.656  13.170   7.913
94545SOL     OW85531  10.571  14.635   2.155
94545SOL    HW185532  10.486  14.669   2.183
94545SOL    HW285533  10.632  14.705   2.174
94546SOL     OW85534  11.681   9.501   1.823
94546SOL    HW185535  11.686   9.460   1.737
94546SOL    HW285536  11.607   9.457   1.866
94547SOL     OW85537   6.275   6.835   1.721
94547SOL    HW185538   6.242   6.761   1.773
94547SOL    HW285539   6.267   6.910   1.779
94548SOL     OW85540  12.600   8.483   7.494
94548SOL    HW185541  12.580   8.576   7.503
94548SOL    HW285542  12.580   8.463   7.403
94549SOL     OW85543   7.069   8.489   2.350
94549SOL    HW185544   7.020   8.540   2.414
94549SOL    HW285545   7.114   8.422   2.402
94550SOL     OW85546   8.839  12.889  10.625
94550SOL    HW185547   8.779  12.879  10.551
94550SOL    HW285548   8.783  12.882  10.702
94551SOL     OW85549   1.940   2.090   7.100
94551SOL    HW185550   1.916   2.124   7.187
94551SOL    HW285551   1.946   1.995   7.112
94552SOL     OW85552   0.408   6.625   1.460
94552SOL    HW185553   0.405   6.548   1.517
94552SOL    HW285554   0.491   6.666   1.480
94553SOL     OW85555   9.761  13.506   5.575
94553SOL    HW185556   9.693  13.467   5.631
94553SOL    HW285557   9.740  13.475   5.487
94554SOL     OW85558   2.203   2.685   7.376
94554SOL    HW185559   2.181   2.592   7.364
94554SOL    HW285560   2.298   2.687   7.380
94555SOL     OW85561   6.677   8.143   5.897
94555SOL    HW185562   6.728   8.140   5.816
94555SOL    HW285563   6.639   8.055   5.904
94556SOL     OW85564  10.719  11.494  12.247
94556SOL    HW185565  10.644  11.523  12.300
94556SOL    HW285566  10.704  11.400  12.234
94557SOL     OW85567   8.930   5.654   4.592
94557SOL    HW185568   9.023   5.631   4.602
94557SOL    HW285569   8.917   5.663   4.498
94558SOL     OW85570   3.470   9.192   3.339
94558SOL    HW185571   3.538   9.156   3.395
94558SOL    HW285572   3.434   9.116   3.293
94559SOL     OW85573  10.769   5.438   4.679
94559SOL    HW185574  10.712   5.482   4.615
94559SOL    HW285575  10.733   5.462   4.764
94560SOL     OW85576  13.983  11.743   9.918
94560SOL    HW185577  13.972  11.833   9.950
94560SOL    HW285578  13.969  11.749   9.823
94561SOL     OW85579  11.390  11.352   5.244
94561SOL    HW185580  11.472  11.346   5.196
94561SOL    HW285581  11.412  11.399   5.324
94562SOL     OW85582   3.326   4.789  11.962
94562SOL    HW185583   3.303   4.722  12.027
94562SOL    HW285584   3.415   4.767  11.936
94563SOL     OW85585   2.668   2.327  11.242
94563SOL    HW185586   2.714   2.269  11.181
94563SOL    HW285587   2.737   2.382  11.280
94564SOL     OW85588   7.482   9.358   4.417
94564SOL    HW185589   7.489   9.307   4.337
94564SOL    HW285590   7.395   9.397   4.413
94565SOL     OW85591   1.886   6.092  14.366
94565SOL    HW185592   1.822   6.140  14.420
94565SOL    HW285593   1.970   6.133  14.385
94566SOL     OW85594   1.955  13.526   5.102
94566SOL    HW185595   1.932  13.515   5.194
94566SOL    HW285596   2.035  13.578   5.103
94567SOL     OW85597  14.346   0.232  10.566
94567SOL    HW185598  14.397   0.269  10.495
94567SOL    HW285599  14.411   0.192  10.624
94568SOL     OW85600   9.186   6.492   8.577
94568SOL    HW185601   9.271   6.489   8.621
94568SOL    HW285602   9.124   6.520   8.645
94569SOL     OW85603  10.712   8.090  11.911
94569SOL    HW185604  10.670   8.083  11.825
94569SOL    HW285605  10.744   8.002  11.930
94570SOL     OW85606  12.561   6.035   3.443
94570SOL    HW185607  12.634   5.998   3.394
94570SOL    HW285608  12.488   5.975   3.427
94571SOL     OW85609   6.903   3.575   0.897
94571SOL    HW185610   6.918   3.481   0.890
94571SOL    HW285611   6.829   3.592   0.838
94572SOL     OW85612  13.805   7.961   4.024
94572SOL    HW185613  13.804   7.873   4.062
94572SOL    HW285614  13.879   8.005   4.068
94573SOL     OW85615   2.471   9.794   9.500
94573SOL    HW185616   2.396   9.756   9.454
94573SOL    HW285617   2.547   9.766   9.449
94574SOL     OW85618   1.366   8.869   7.995
94574SOL    HW185619   1.307   8.938   7.964
94574SOL    HW285620   1.451   8.892   7.957
94575SOL     OW85621   2.992  11.211  13.064
94575SOL    HW185622   3.016  11.278  13.128
94575SOL    HW285623   2.896  11.209  13.067
94576SOL     OW85624  11.303  10.587  10.225
94576SOL    HW185625  11.375  10.585  10.162
94576SOL    HW285626  11.231  10.543  10.180
94577SOL     OW85627   7.726   3.703   9.448
94577SOL    HW185628   7.653   3.764   9.437
94577SOL    HW285629   7.802   3.759   9.465
94578SOL     OW85630   1.224   9.312  14.052
94578SOL    HW185631   1.145   9.293  14.003
94578SOL    HW285632   1.247   9.402  14.027
94579SOL     OW85633  11.455  14.744  12.633
94579SOL    HW185634  11.487  14.658  12.660
94579SOL    HW285635  11.418  14.728  12.546
94580SOL     OW85636   8.586   9.854   3.585
94580SOL    HW185637   8.667   9.902   3.603
94580SOL    HW285638   8.605   9.764   3.610
94581SOL     OW85639  13.469  13.788   8.911
94581SOL    HW185640  13.435  13.830   8.833
94581SOL    HW285641  13.496  13.860   8.968
94582SOL     OW85642   0.316  10.878  10.153
94582SOL    HW185643   0.265  10.898  10.232
94582SOL    HW285644   0.354  10.792  10.172
94583SOL     OW85645  12.987   2.538   1.534
94583SOL    HW185646  12.937   2.458   1.518
94583SOL    HW285647  13.022   2.561   1.448
94584SOL     OW85648  14.211  11.162   3.324
94584SOL    HW185649  14.165  11.122   3.397
94584SOL    HW285650  14.142  11.183   3.260
94585SOL     OW85651  13.786  13.948  10.007
94585SOL    HW185652  13.826  14.035  10.012
94585SOL    HW285653  13.848  13.896   9.958
94586SOL     OW85654  10.354   5.687   3.098
94586SOL    HW185655  10.320   5.653   3.015
94586SOL    HW285656  10.374   5.779   3.080
94587SOL     OW85657   3.440   4.193   5.348
94587SOL    HW185658   3.512   4.193   5.411
94587SOL    HW285659   3.450   4.109   5.302
94588SOL     OW85660   8.172   2.753   7.683
94588SOL    HW185661   8.268   2.749   7.691
94588SOL    HW285662   8.146   2.665   7.656
94589SOL     OW85663  13.594   6.730   1.467
94589SOL    HW185664  13.628   6.818   1.483
94589SOL    HW285665  13.528   6.717   1.535
94590SOL     OW85666   2.221   7.271   1.074
94590SOL    HW185667   2.142   7.221   1.052
94590SOL    HW285668   2.230   7.333   1.001
94591SOL     OW85669   7.285  13.212   9.464
94591SOL    HW185670   7.326  13.297   9.449
94591SOL    HW285671   7.314  13.158   9.390
94592SOL     OW85672   1.018   2.819   5.342
94592SOL    HW185673   1.029   2.767   5.421
94592SOL    HW285674   1.097   2.802   5.290
94593SOL     OW85675   6.334  11.755   4.150
94593SOL    HW185676   6.369  11.841   4.126
94593SOL    HW285677   6.272  11.734   4.080
94594SOL     OW85678   2.880  11.344  11.528
94594SOL    HW185679   2.812  11.405  11.498
94594SOL    HW285680   2.857  11.327  11.620
94595SOL     OW85681  10.997   0.255   8.049
94595SOL    HW185682  11.013   0.339   8.091
94595SOL    HW285683  11.082   0.230   8.013
94596SOL     OW85684   4.585   0.192   1.389
94596SOL    HW185685   4.555   0.113   1.433
94596SOL    HW285686   4.681   0.188   1.396
94597SOL     OW85687   0.508   7.488   4.861
94597SOL    HW185688   0.560   7.445   4.793
94597SOL    HW285689   0.419   7.459   4.844
94598SOL     OW85690   1.815  11.751  10.409
94598SOL    HW185691   1.882  11.684  10.399
94598SOL    HW285692   1.733  11.703  10.423
94599SOL     OW85693  14.060  13.939   3.083
94599SOL    HW185694  14.004  13.862   3.094
94599SOL    HW285695  14.121  13.916   3.014
94600SOL     OW85696   8.036  11.694   7.927
94600SOL    HW185697   8.029  11.724   7.836
94600SOL    HW285698   8.014  11.771   7.980
94601SOL     OW85699   4.756   1.417  11.329
94601SOL    HW185700   4.831   1.473  11.314
94601SOL    HW285701   4.775   1.337  11.279
94602SOL     OW85702  12.493  12.173   9.722
94602SOL    HW185703  12.490  12.208   9.812
94602SOL    HW285704  12.404  12.187   9.689
94603SOL     OW85705  10.837  11.861   0.734
94603SOL    HW185706  10.773  11.898   0.794
94603SOL    HW285707  10.828  11.766   0.744
94604SOL     OW85708  13.147   0.413   5.744
94604SOL    HW185709  13.241   0.429   5.754
94604SOL    HW285710  13.131   0.330   5.789
94605SOL     OW85711  12.064   8.717   3.550
94605SOL    HW185712  12.126   8.663   3.600
94605SOL    HW285713  12.037   8.785   3.611
94606SOL     OW85714   7.169   9.126   9.641
94606SOL    HW185715   7.170   9.082   9.725
94606SOL    HW285716   7.256   9.109   9.604
94607SOL     OW85717   9.427   0.233  12.761
94607SOL    HW185718   9.386   0.150  12.783
94607SOL    HW285719   9.359   0.282  12.714
94608SOL     OW85720   1.301   1.706   6.383
94608SOL    HW185721   1.378   1.705   6.328
94608SOL    HW285722   1.251   1.783   6.355
94609SOL     OW85723   7.460   0.152  10.264
94609SOL    HW185724   7.524   0.086  10.291
94609SOL    HW285725   7.380   0.102  10.248
94610SOL     OW85726   2.310  13.402   5.160
94610SOL    HW185727   2.341  13.355   5.237
94610SOL    HW285728   2.364  13.370   5.088
94611SOL     OW85729   3.644  13.991   5.529
94611SOL    HW185730   3.729  13.961   5.560
94611SOL    HW285731   3.634  13.950   5.443
94612SOL     OW85732  14.383   7.230   1.711
94612SOL    HW185733  14.306   7.174   1.717
94612SOL    HW285734  14.457   7.169   1.701
94613SOL     OW85735   7.330  12.205   2.069
94613SOL    HW185736   7.315  12.233   2.159
94613SOL    HW285737   7.269  12.256   2.016
94614SOL     OW85738  13.694  13.711  12.081
94614SOL    HW185739  13.686  13.651  12.007
94614SOL    HW285740  13.701  13.798  12.042
94615SOL     OW85741  12.816   6.438   4.974
94615SOL    HW185742  12.906   6.456   5.003
94615SOL    HW285743  12.761   6.474   5.044
94616SOL     OW85744  14.627   9.111   5.335
94616SOL    HW185745  14.636   9.190   5.388
94616SOL    HW285746  14.664   9.041   5.389
94617SOL     OW85747   5.296  11.457   3.905
94617SOL    HW185748   5.297  11.403   3.826
94617SOL    HW285749   5.264  11.543   3.875
94618SOL     OW85750  10.659  10.835   8.249
94618SOL    HW185751  10.578  10.840   8.300
94618SOL    HW285752  10.630  10.803   8.163
94619SOL     OW85753   5.294   8.221  14.542
94619SOL    HW185754   5.335   8.149  14.590
94619SOL    HW285755   5.304   8.297  14.600
94620SOL     OW85756   2.012  10.104  11.054
94620SOL    HW185757   2.075  10.137  11.118
94620SOL    HW285758   2.003  10.011  11.075
94621SOL     OW85759   6.616   7.679   0.322
94621SOL    HW185760   6.620   7.608   0.386
94621SOL    HW285761   6.569   7.642   0.247
94622SOL     OW85762  12.806   6.324  12.733
94622SOL    HW185763  12.857   6.274  12.669
94622SOL    HW285764  12.716   6.294  12.720
94623SOL     OW85765  11.636   8.656  12.384
94623SOL    HW185766  11.694   8.581  12.396
94623SOL    HW285767  11.636   8.699  12.469
94624SOL     OW85768   5.783   8.795  13.074
94624SOL    HW185769   5.788   8.722  13.135
94624SOL    HW285770   5.856   8.852  13.098
94625SOL     OW85771  14.860   8.250   2.796
94625SOL    HW185772  14.805   8.260   2.718
94625SOL    HW285773  14.799   8.223   2.865
94626SOL     OW85774  12.457   0.424   8.998
94626SOL    HW185775  12.432   0.333   8.982
94626SOL    HW285776  12.508   0.449   8.921
94627SOL     OW85777   4.428  12.219  11.575
94627SOL    HW185778   4.365  12.276  11.531
94627SOL    HW285779   4.512  12.265  11.566
94628SOL     OW85780   6.957  13.591  14.606
94628SOL    HW185781   6.914  13.506  14.622
94628SOL    HW285782   6.994  13.583  14.519
94629SOL     OW85783   9.564   5.890   3.320
94629SOL    HW185784   9.520   5.973   3.300
94629SOL    HW285785   9.507   5.848   3.385
94630SOL     OW85786   8.267  14.447   6.866
94630SOL    HW185787   8.363  14.444   6.867
94630SOL    HW285788   8.241  14.391   6.939
94631SOL     OW85789   4.704   7.962  10.636
94631SOL    HW185790   4.642   8.027  10.603
94631SOL    HW285791   4.665   7.931  10.718
94632SOL     OW85792   6.841  10.601  13.850
94632SOL    HW185793   6.817  10.533  13.913
94632SOL    HW285794   6.763  10.612  13.795
94633SOL     OW85795   1.452   5.738   2.853
94633SOL    HW185796   1.419   5.656   2.889
94633SOL    HW285797   1.541   5.745   2.888
94634SOL     OW85798   3.221  11.310   8.274
94634SOL    HW185799   3.151  11.333   8.213
94634SOL    HW285800   3.236  11.217   8.260
94635SOL     OW85801   4.842   8.621  10.888
94635SOL    HW185802   4.807   8.710  10.900
94635SOL    HW285803   4.815   8.596  10.799
94636SOL     OW85804   6.061   8.729   9.458
94636SOL    HW185805   6.133   8.702   9.400
94636SOL    HW285806   5.987   8.674   9.432
94637SOL     OW85807   5.967  14.161  14.319
94637SOL    HW185808   5.938  14.102  14.388
94637SOL    HW285809   5.888  14.205  14.289
94638SOL     OW85810  10.034  10.069  11.276
94638SOL    HW185811  10.063  10.047  11.365
94638SOL    HW285812  10.094  10.138  11.248
94639SOL     OW85813   6.243  10.698   9.871
94639SOL    HW185814   6.255  10.727   9.781
94639SOL    HW285815   6.156  10.657   9.872
94640SOL     OW85816   9.642   1.532   0.141
94640SOL    HW185817   9.632   1.593   0.214
94640SOL    HW285818   9.630   1.586   0.063
94641SOL     OW85819   0.614   9.013   0.819
94641SOL    HW185820   0.545   9.014   0.752
94641SOL    HW285821   0.688   9.058   0.779
94642SOL     OW85822   3.125   6.460   6.280
94642SOL    HW185823   3.211   6.431   6.310
94642SOL    HW285824   3.070   6.453   6.358
94643SOL     OW85825  14.164   7.114   1.996
94643SOL    HW185826  14.188   7.060   2.072
94643SOL    HW285827  14.197   7.065   1.921
94644SOL     OW85828   3.770   1.463  11.840
94644SOL    HW185829   3.685   1.441  11.879
94644SOL    HW285830   3.830   1.399  11.877
94645SOL     OW85831   8.048   7.888   4.309
94645SOL    HW185832   8.137   7.923   4.310
94645SOL    HW285833   8.049   7.824   4.237
94646SOL     OW85834  10.267   7.853   4.374
94646SOL    HW185835  10.205   7.780   4.384
94646SOL    HW285836  10.247   7.912   4.446
94647SOL     OW85837   6.060   9.318   8.077
94647SOL    HW185838   6.088   9.395   8.126
94647SOL    HW285839   5.990   9.280   8.129
94648SOL     OW85840  12.298   5.004   6.116
94648SOL    HW185841  12.210   4.996   6.079
94648SOL    HW285842  12.318   4.917   6.150
94649SOL     OW85843   5.746  11.015   9.631
94649SOL    HW185844   5.662  11.061   9.633
94649SOL    HW285845   5.739  10.949   9.700
94650SOL     OW85846   7.747  11.956   1.875
94650SOL    HW185847   7.655  11.947   1.848
94650SOL    HW285848   7.782  12.022   1.816
94651SOL     OW85849  10.629  12.746   8.220
94651SOL    HW185850  10.570  12.808   8.263
94651SOL    HW285851  10.616  12.763   8.126
94652SOL     OW85852   1.618   3.955  10.198
94652SOL    HW185853   1.655   4.043  10.194
94652SOL    HW285854   1.639   3.916  10.112
94653SOL     OW85855   2.443   9.987   9.974
94653SOL    HW185856   2.470   9.934   9.899
94653SOL    HW285857   2.493   9.951  10.047
94654SOL     OW85858  10.254   5.445   5.986
94654SOL    HW185859  10.344   5.461   6.014
94654SOL    HW285860  10.255   5.462   5.892
94655SOL     OW85861   2.657  13.854   7.414
94655SOL    HW185862   2.700  13.799   7.349
94655SOL    HW285863   2.697  13.941   7.401
94656SOL     OW85864   8.508   7.491  10.546
94656SOL    HW185865   8.418   7.523  10.552
94656SOL    HW285866   8.501   7.406  10.502
94657SOL     OW85867  13.973   1.926   5.966
94657SOL    HW185868  13.953   1.893   6.053
94657SOL    HW285869  13.983   1.847   5.912
94658SOL     OW85870   1.873  13.118   0.403
94658SOL    HW185871   1.887  13.176   0.329
94658SOL    HW285872   1.833  13.040   0.366
94659SOL     OW85873   0.771   2.097   8.430
94659SOL    HW185874   0.704   2.092   8.362
94659SOL    HW285875   0.844   2.045   8.395
94660SOL     OW85876   6.743   5.864  11.302
94660SOL    HW185877   6.698   5.948  11.305
94660SOL    HW285878   6.775   5.856  11.212
94661SOL     OW85879  11.039   0.628  12.092
94661SOL    HW185880  11.105   0.693  12.066
94661SOL    HW285881  10.975   0.678  12.143
94662SOL     OW85882  14.773   8.447  13.822
94662SOL    HW185883  14.829   8.374  13.795
94662SOL    HW285884  14.794   8.461  13.915
94663SOL     OW85885   4.125   3.524   5.048
94663SOL    HW185886   4.087   3.510   4.961
94663SOL    HW285887   4.057   3.496   5.109
94664SOL     OW85888   0.102   9.455  10.406
94664SOL    HW185889   0.074   9.521  10.469
94664SOL    HW285890   0.197   9.457  10.409
94665SOL     OW85891  11.296   4.674   7.414
94665SOL    HW185892  11.265   4.758   7.449
94665SOL    HW285893  11.225   4.643   7.359
94666SOL     OW85894   2.160   6.252  12.857
94666SOL    HW185895   2.238   6.219  12.812
94666SOL    HW285896   2.089   6.238  12.794
94667SOL     OW85897   8.980   0.586   1.644
94667SOL    HW185898   9.056   0.558   1.695
94667SOL    HW285899   8.998   0.678   1.623
94668SOL     OW85900   8.381   6.453  10.329
94668SOL    HW185901   8.419   6.376  10.371
94668SOL    HW285902   8.345   6.504  10.401
94669SOL     OW85903   0.014   3.627   0.320
94669SOL    HW185904  14.859   3.714   0.290
94669SOL    HW285905   0.098   3.640   0.366
94670SOL     OW85906  11.125   2.033   2.963
94670SOL    HW185907  11.201   1.975   2.971
94670SOL    HW285908  11.136   2.098   3.032
94671SOL     OW85909  11.070  12.599  11.644
94671SOL    HW185910  11.067  12.516  11.598
94671SOL    HW285911  11.014  12.586  11.721
94672SOL     OW85912   1.515   4.228   1.740
94672SOL    HW185913   1.581   4.194   1.680
94672SOL    HW285914   1.473   4.151   1.777
94673SOL     OW85915   9.617   4.714  11.300
94673SOL    HW185916   9.677   4.775  11.343
94673SOL    HW285917   9.559   4.685  11.370
94674SOL     OW85918   4.444   1.882   0.585
94674SOL    HW185919   4.451   1.918   0.673
94674SOL    HW285920   4.357   1.908   0.555
94675SOL     OW85921   8.453   2.946   2.617
94675SOL    HW185922   8.540   2.926   2.653
94675SOL    HW285923   8.443   3.040   2.629
94676SOL     OW85924  14.005   2.969   6.224
94676SOL    HW185925  13.966   2.943   6.141
94676SOL    HW285926  14.099   2.969   6.209
94677SOL     OW85927  14.095   5.817   6.222
94677SOL    HW185928  14.108   5.773   6.137
94677SOL    HW285929  14.099   5.747   6.286
94678SOL     OW85930   8.219  13.076  10.164
94678SOL    HW185931   8.160  13.061  10.239
94678SOL    HW285932   8.270  12.996  10.156
94679SOL     OW85933  11.195   4.180   6.063
94679SOL    HW185934  11.105   4.170   6.032
94679SOL    HW285935  11.226   4.260   6.019
94680SOL     OW85936  11.476   8.318   0.810
94680SOL    HW185937  11.381   8.325   0.802
94680SOL    HW285938  11.503   8.402   0.846
94681SOL     OW85939   6.164   9.886   5.550
94681SOL    HW185940   6.124   9.805   5.581
94681SOL    HW285941   6.106   9.916   5.480
94682SOL     OW85942  13.065   2.392   4.718
94682SOL    HW185943  13.098   2.439   4.642
94682SOL    HW285944  13.115   2.426   4.792
94683SOL     OW85945   4.204   7.289  14.430
94683SOL    HW185946   4.275   7.231  14.458
94683SOL    HW285947   4.126   7.256  14.476
94684SOL     OW85948   6.640  11.516   9.429
94684SOL    HW185949   6.588  11.447   9.469
94684SOL    HW285950   6.586  11.550   9.358
94685SOL     OW85951  12.061   3.464   6.598
94685SOL    HW185952  12.140   3.500   6.637
94685SOL    HW285953  12.005   3.540   6.584
94686SOL     OW85954   5.933   9.907  10.786
94686SOL    HW185955   5.949   9.883  10.877
94686SOL    HW285956   5.926  10.003  10.787
94687SOL     OW85957  12.106   5.894   4.195
94687SOL    HW185958  12.147   5.965   4.244
94687SOL    HW285959  12.012   5.905   4.212
94688SOL     OW85960  12.228  10.625  12.765
94688SOL    HW185961  12.225  10.590  12.676
94688SOL    HW285962  12.312  10.672  12.769
94689SOL     OW85963   1.891   7.184   6.551
94689SOL    HW185964   1.888   7.239   6.629
94689SOL    HW285965   1.971   7.211   6.506
94690SOL     OW85966  13.836   1.684  14.072
94690SOL    HW185967  13.880   1.761  14.035
94690SOL    HW285968  13.788   1.647  13.998
94691SOL     OW85969   7.480  13.694   8.508
94691SOL    HW185970   7.437  13.728   8.587
94691SOL    HW285971   7.409  13.656   8.456
94692SOL     OW85972  11.670   8.010   1.252
94692SOL    HW185973  11.764   7.996   1.259
94692SOL    HW285974  11.646   7.972   1.167
94693SOL     OW85975   2.257   0.217   5.061
94693SOL    HW185976   2.170   0.255   5.056
94693SOL    HW285977   2.315   0.291   5.077
94694SOL     OW85978  13.319   6.846  14.226
94694SOL    HW185979  13.324   6.893  14.143
94694SOL    HW285980  13.378   6.771  14.215
94695SOL     OW85981   0.701  12.383   9.879
94695SOL    HW185982   0.658  12.298   9.871
94695SOL    HW285983   0.784  12.364   9.923
94696SOL     OW85984  13.913   4.249  14.350
94696SOL    HW185985  13.899   4.260  14.256
94696SOL    HW285986  13.927   4.155  14.362
94697SOL     OW85987   6.332   2.361   7.173
94697SOL    HW185988   6.357   2.367   7.081
94697SOL    HW285989   6.317   2.452   7.200
94698SOL     OW85990  11.568  14.784   6.733
94698SOL    HW185991  11.592  14.820   6.647
94698SOL    HW285992  11.502  14.845   6.767
94699SOL     OW85993   6.616   7.535   4.779
94699SOL    HW185994   6.553   7.531   4.851
94699SOL    HW285995   6.695   7.573   4.817
94700SOL     OW85996   5.152   9.432  11.140
94700SOL    HW185997   5.133   9.343  11.108
94700SOL    HW285998   5.117   9.489  11.072
94701SOL     OW85999  11.151   7.330   5.144
94701SOL    HW186000  11.190   7.402   5.094
94701SOL    HW286001  11.164   7.253   5.088
94702SOL     OW86002  11.623   7.813  11.442
94702SOL    HW186003  11.627   7.720  11.468
94702SOL    HW286004  11.534   7.823  11.407
94703SOL     OW86005   8.730   7.974  13.558
94703SOL    HW186006   8.636   7.962  13.565
94703SOL    HW286007   8.742   8.022  13.475
94704SOL     OW86008   9.856  12.922  14.504
94704SOL    HW186009   9.774  12.903  14.459
94704SOL    HW286010   9.865  12.853  14.569
94705SOL     OW86011   2.135  14.431  13.616
94705SOL    HW186012   2.213  14.447  13.563
94705SOL    HW286013   2.119  14.515  13.660
94706SOL     OW86014   8.224   4.698   5.735
94706SOL    HW186015   8.310   4.706   5.695
94706SOL    HW286016   8.181   4.782   5.717
94707SOL     OW86017   1.827   5.282   5.094
94707SOL    HW186018   1.751   5.313   5.043
94707SOL    HW286019   1.883   5.359   5.103
94708SOL     OW86020  11.402   0.758   1.290
94708SOL    HW186021  11.324   0.764   1.345
94708SOL    HW286022  11.473   0.738   1.351
94709SOL     OW86023   3.716  13.335   5.776
94709SOL    HW186024   3.774  13.400   5.816
94709SOL    HW286025   3.767  13.254   5.775
94710SOL     OW86026   0.838   2.116   6.237
94710SOL    HW186027   0.830   2.086   6.146
94710SOL    HW286028   0.771   2.067   6.285
94711SOL     OW86029   1.595  12.578  14.287
94711SOL    HW186030   1.552  12.587  14.202
94711SOL    HW286031   1.660  12.508  14.274
94712SOL     OW86032   7.396   1.546  14.816
94712SOL    HW186033   7.447   1.608  14.867
94712SOL    HW286034   7.461   1.491  14.772
94713SOL     OW86035   0.031   3.954   4.437
94713SOL    HW186036   0.067   4.040   4.457
94713SOL    HW286037   0.005   3.959   4.345
94714SOL     OW86038   9.706   7.107  12.948
94714SOL    HW186039   9.614   7.093  12.926
94714SOL    HW286040   9.751   7.031  12.910
94715SOL     OW86041   4.645   7.832  14.014
94715SOL    HW186042   4.657   7.742  14.043
94715SOL    HW286043   4.705   7.841  13.940
94716SOL     OW86044   8.950   4.173   6.690
94716SOL    HW186045   9.032   4.222   6.697
94716SOL    HW286046   8.964   4.114   6.616
94717SOL     OW86047   6.164   4.052  11.969
94717SOL    HW186048   6.097   4.120  11.965
94717SOL    HW286049   6.234   4.084  11.913
94718SOL     OW86050   5.000   7.731   4.827
94718SOL    HW186051   4.964   7.686   4.903
94718SOL    HW286052   5.055   7.666   4.784
94719SOL     OW86053   2.199   2.967   2.096
94719SOL    HW186054   2.116   2.951   2.050
94719SOL    HW286055   2.181   2.944   2.187
94720SOL     OW86056   6.370   5.726  10.567
94720SOL    HW186057   6.332   5.798  10.617
94720SOL    HW286058   6.394   5.661  10.634
94721SOL     OW86059   2.514   5.718   7.517
94721SOL    HW186060   2.486   5.810   7.512
94721SOL    HW286061   2.465   5.674   7.447
94722SOL     OW86062   5.922   2.761   4.825
94722SOL    HW186063   5.978   2.775   4.749
94722SOL    HW286064   5.982   2.730   4.893
94723SOL     OW86065   6.654   4.436   4.488
94723SOL    HW186066   6.731   4.477   4.528
94723SOL    HW286067   6.600   4.410   4.562
94724SOL     OW86068   1.158  12.912   8.244
94724SOL    HW186069   1.148  12.821   8.274
94724SOL    HW286070   1.103  12.963   8.304
94725SOL     OW86071  14.499   2.707   3.416
94725SOL    HW186072  14.553   2.642   3.372
94725SOL    HW286073  14.553   2.786   3.417
94726SOL     OW86074  11.501   7.203  12.184
94726SOL    HW186075  11.464   7.143  12.248
94726SOL    HW286076  11.588   7.225  12.218
94727SOL     OW86077  10.557  14.071   9.416
94727SOL    HW186078  10.606  14.074   9.334
94727SOL    HW286079  10.503  14.150   9.415
94728SOL     OW86080  13.275   0.490   8.172
94728SOL    HW186081  13.264   0.512   8.079
94728SOL    HW286082  13.211   0.421   8.188
94729SOL     OW86083   3.856  14.209  14.390
94729SOL    HW186084   3.905  14.152  14.448
94729SOL    HW286085   3.855  14.294  14.435
94730SOL     OW86086   7.037  13.161   3.437
94730SOL    HW186087   6.986  13.081   3.420
94730SOL    HW286088   7.124  13.142   3.403
94731SOL     OW86089   4.351   5.736   3.040
94731SOL    HW186090   4.405   5.676   3.092
94731SOL    HW286091   4.408   5.761   2.966
94732SOL     OW86092   2.990  14.777  12.992
94732SOL    HW186093   3.046  14.853  12.975
94732SOL    HW286094   2.902  14.812  12.996
94733SOL     OW86095   2.383   2.263  14.050
94733SOL    HW186096   2.430   2.254  14.133
94733SOL    HW286097   2.452   2.262  13.983
94734SOL     OW86098   9.644   3.405   4.341
94734SOL    HW186099   9.679   3.467   4.406
94734SOL    HW286100   9.551   3.426   4.337
94735SOL     OW86101  11.592   0.875   2.809
94735SOL    HW186102  11.535   0.904   2.737
94735SOL    HW286103  11.680   0.901   2.783
94736SOL     OW86104  13.230   3.813  12.419
94736SOL    HW186105  13.139   3.801  12.393
94736SOL    HW286106  13.226   3.840  12.511
94737SOL     OW86107   4.422   7.106  12.585
94737SOL    HW186108   4.424   7.129  12.492
94737SOL    HW286109   4.396   7.187  12.629
94738SOL     OW86110   0.424  11.532  10.020
94738SOL    HW186111   0.362  11.599  10.050
94738SOL    HW286112   0.404  11.455  10.074
94739SOL     OW86113   2.615   5.649   8.305
94739SOL    HW186114   2.677   5.661   8.378
94739SOL    HW286115   2.648   5.707   8.236
94740SOL     OW86116   2.269   5.860   6.388
94740SOL    HW186117   2.293   5.939   6.437
94740SOL    HW286118   2.189   5.884   6.341
94741SOL     OW86119   0.302  13.513   2.716
94741SOL    HW186120   0.277  13.594   2.760
94741SOL    HW286121   0.392  13.497   2.744
94742SOL     OW86122   9.791   4.782   4.365
94742SOL    HW186123   9.753   4.744   4.445
94742SOL    HW286124   9.747   4.866   4.356
94743SOL     OW86125   5.952  13.791   7.377
94743SOL    HW186126   5.966  13.709   7.329
94743SOL    HW286127   5.858  13.792   7.396
94744SOL     OW86128   2.977   6.297   2.090
94744SOL    HW186129   3.038   6.313   2.018
94744SOL    HW286130   2.999   6.363   2.155
94745SOL     OW86131   2.449   5.627   8.059
94745SOL    HW186132   2.378   5.690   8.074
94745SOL    HW286133   2.423   5.549   8.108
94746SOL     OW86134  12.935  13.952  14.035
94746SOL    HW186135  12.873  14.004  13.984
94746SOL    HW286136  12.901  13.957  14.125
94747SOL     OW86137   6.425   0.604   8.825
94747SOL    HW186138   6.360   0.536   8.842
94747SOL    HW286139   6.376   0.673   8.780
94748SOL     OW86140  11.348  11.837  14.375
94748SOL    HW186141  11.366  11.765  14.436
94748SOL    HW286142  11.252  11.846  14.376
94749SOL     OW86143  14.593  14.118   2.806
94749SOL    HW186144  14.503  14.097   2.781
94749SOL    HW286145  14.620  14.186   2.744
94750SOL     OW86146  10.898   6.455  11.013
94750SOL    HW186147  10.882   6.533  11.066
94750SOL    HW286148  10.915   6.488  10.925
94751SOL     OW86149  10.235  14.092  11.993
94751SOL    HW186150  10.226  14.116  11.901
94751SOL    HW286151  10.217  13.998  11.995
94752SOL     OW86152   8.078   6.744   8.934
94752SOL    HW186153   8.162   6.754   8.889
94752SOL    HW286154   8.020   6.705   8.868
94753SOL     OW86155   2.150   8.555   6.565
94753SOL    HW186156   2.133   8.531   6.474
94753SOL    HW286157   2.245   8.551   6.575
94754SOL     OW86158   8.689   2.984   2.751
94754SOL    HW186159   8.782   2.976   2.729
94754SOL    HW286160   8.686   3.049   2.822
94755SOL     OW86161   6.420   7.702   0.000
94755SOL    HW186162   6.340   7.702  14.816
94755SOL    HW286163   6.472   7.774  14.834
94756SOL     OW86164   3.435   8.694  11.605
94756SOL    HW186165   3.408   8.752  11.676
94756SOL    HW286166   3.521   8.727  11.578
94757SOL     OW86167   7.630   0.986   4.747
94757SOL    HW186168   7.615   1.035   4.828
94757SOL    HW286169   7.723   1.000   4.727
94758SOL     OW86170  13.498   2.956  12.217
94758SOL    HW186171  13.474   2.863  12.221
94758SOL    HW286172  13.545   2.966  12.134
94759SOL     OW86173   8.725  11.861  11.047
94759SOL    HW186174   8.686  11.942  11.079
94759SOL    HW286175   8.704  11.796  11.114
94760SOL     OW86176  11.438  14.029   8.680
94760SOL    HW186177  11.516  14.055   8.631
94760SOL    HW286178  11.376  14.000   8.614
94761SOL     OW86179   1.973   9.260  11.870
94761SOL    HW186180   2.061   9.226  11.885
94761SOL    HW286181   1.974   9.287  11.778
94762SOL     OW86182  12.628   9.236   1.807
94762SOL    HW186183  12.711   9.205   1.772
94762SOL    HW286184  12.649   9.265   1.895
94763SOL     OW86185   4.689   8.849   1.425
94763SOL    HW186186   4.615   8.906   1.446
94763SOL    HW286187   4.651   8.762   1.418
94764SOL     OW86188  10.365  14.097   4.020
94764SOL    HW186189  10.321  14.013   4.024
94764SOL    HW286190  10.442  14.087   4.076
94765SOL     OW86191   9.812   5.644   9.835
94765SOL    HW186192   9.907   5.657   9.839
94765SOL    HW286193   9.780   5.716   9.780
94766SOL     OW86194   3.003   0.213   5.355
94766SOL    HW186195   2.959   0.295   5.331
94766SOL    HW286196   3.008   0.164   5.272
94767SOL     OW86197   7.341   7.315   6.221
94767SOL    HW186198   7.314   7.387   6.165
94767SOL    HW286199   7.434   7.303   6.201
94768SOL     OW86200  12.524   1.849   0.152
94768SOL    HW186201  12.521   1.864   0.247
94768SOL    HW286202  12.511   1.936   0.114
94769SOL     OW86203  13.666  13.977  11.889
94769SOL    HW186204  13.650  13.936  11.804
94769SOL    HW286205  13.742  14.033  11.874
94770SOL     OW86206   7.947  12.859  11.697
94770SOL    HW186207   8.037  12.842  11.727
94770SOL    HW286208   7.942  12.955  11.691
94771SOL     OW86209  12.799   1.514   7.879
94771SOL    HW186210  12.724   1.478   7.831
94771SOL    HW286211  12.839   1.438   7.920
94772SOL     OW86212  14.067   0.858  12.525
94772SOL    HW186213  13.974   0.839  12.524
94772SOL    HW286214  14.073   0.953  12.536
94773SOL     OW86215  11.503  11.067   3.606
94773SOL    HW186216  11.447  11.063   3.684
94773SOL    HW286217  11.486  10.986   3.560
94774SOL     OW86218   5.936  13.076  14.177
94774SOL    HW186219   5.898  13.150  14.225
94774SOL    HW286220   5.870  13.055  14.111
94775SOL     OW86221  10.874  13.787   6.502
94775SOL    HW186222  10.811  13.858   6.487
94775SOL    HW286223  10.875  13.775   6.597
94776SOL     OW86224   5.937   3.395   7.066
94776SOL    HW186225   5.892   3.372   7.147
94776SOL    HW286226   6.030   3.399   7.091
94777SOL     OW86227   6.865  11.561  13.265
94777SOL    HW186228   6.806  11.548  13.340
94777SOL    HW286229   6.952  11.541  13.300
94778SOL     OW86230   6.412   0.665   0.875
94778SOL    HW186231   6.507   0.658   0.873
94778SOL    HW286232   6.394   0.732   0.941
94779SOL     OW86233   0.328   5.286  13.450
94779SOL    HW186234   0.339   5.196  13.418
94779SOL    HW286235   0.325   5.339  13.370
94780SOL     OW86236   7.698   6.012   3.955
94780SOL    HW186237   7.781   6.047   3.987
94780SOL    HW286238   7.632   6.053   4.010
94781SOL     OW86239   3.554   7.626   8.096
94781SOL    HW186240   3.644   7.654   8.082
94781SOL    HW286241   3.519   7.686   8.162
94782SOL     OW86242  14.821  10.962   1.505
94782SOL    HW186243  14.753  10.977   1.570
94782SOL    HW286244   0.031  10.947   1.556
94783SOL     OW86245   1.987   5.504   8.068
94783SOL    HW186246   1.900   5.520   8.033
94783SOL    HW286247   2.010   5.416   8.036
94784SOL     OW86248   6.786  13.718   9.315
94784SOL    HW186249   6.821  13.803   9.340
94784SOL    HW286250   6.810  13.660   9.388
94785SOL     OW86251   0.436   2.453   2.054
94785SOL    HW186252   0.490   2.420   2.127
94785SOL    HW286253   0.394   2.531   2.089
94786SOL     OW86254   1.454  10.865  14.645
94786SOL    HW186255   1.522  10.883  14.580
94786SOL    HW286256   1.377  10.912  14.612
94787SOL     OW86257   2.012  14.135   5.926
94787SOL    HW186258   2.090  14.089   5.958
94787SOL    HW286259   2.046  14.203   5.868
94788SOL     OW86260   8.469   9.000   7.915
94788SOL    HW186261   8.385   9.043   7.925
94788SOL    HW286262   8.451   8.907   7.932
94789SOL     OW86263  14.774   2.095   1.552
94789SOL    HW186264  14.773   2.079   1.457
94789SOL    HW286265  14.775   2.190   1.561
94790SOL     OW86266   4.282   9.706  12.460
94790SOL    HW186267   4.318   9.738  12.378
94790SOL    HW286268   4.297   9.611  12.458
94791SOL     OW86269   3.088   7.793  10.945
94791SOL    HW186270   3.084   7.704  10.911
94791SOL    HW286271   3.113   7.846  10.869
94792SOL     OW86272   4.638   4.258   9.209
94792SOL    HW186273   4.572   4.218   9.153
94792SOL    HW286274   4.676   4.328   9.156
94793SOL     OW86275  13.035   1.981  10.996
94793SOL    HW186276  13.070   1.907  10.945
94793SOL    HW286277  13.113   2.025  11.030
94794SOL     OW86278   1.086   6.250  12.293
94794SOL    HW186279   1.143   6.175  12.310
94794SOL    HW286280   1.024   6.249  12.366
94795SOL     OW86281   5.781  12.648   1.945
94795SOL    HW186282   5.802  12.739   1.963
94795SOL    HW286283   5.754  12.612   2.029
94796SOL     OW86284  14.001   1.410   0.839
94796SOL    HW186285  14.048   1.351   0.899
94796SOL    HW286286  13.977   1.485   0.894
94797SOL     OW86287   2.233   6.907  13.039
94797SOL    HW186288   2.152   6.951  13.014
94797SOL    HW286289   2.252   6.940  13.127
94798SOL     OW86290   3.725  13.408   9.533
94798SOL    HW186291   3.711  13.375   9.444
94798SOL    HW286292   3.716  13.503   9.526
94799SOL     OW86293   9.134  13.790   0.584
94799SOL    HW186294   9.057  13.837   0.617
94799SOL    HW286295   9.201  13.858   0.574
94800SOL     OW86296   3.927   3.278   7.653
94800SOL    HW186297   3.869   3.210   7.620
94800SOL    HW286298   3.885   3.309   7.733
94801SOL     OW86299   3.100   9.368   5.227
94801SOL    HW186300   3.142   9.415   5.155
94801SOL    HW286301   3.161   9.376   5.300
94802SOL     OW86302   8.220   8.033  13.517
94802SOL    HW186303   8.152   8.042  13.584
94802SOL    HW286304   8.206   8.108  13.459
94803SOL     OW86305   7.154   9.139   3.210
94803SOL    HW186306   7.181   9.070   3.148
94803SOL    HW286307   7.231   9.152   3.265
94804SOL     OW86308   9.899  10.549   8.817
94804SOL    HW186309   9.943  10.486   8.759
94804SOL    HW286310   9.851  10.606   8.758
94805SOL     OW86311   2.885   4.145   1.488
94805SOL    HW186312   2.865   4.218   1.430
94805SOL    HW286313   2.873   4.067   1.435
94806SOL     OW86314  11.947   6.685   4.510
94806SOL    HW186315  11.864   6.723   4.483
94806SOL    HW286316  11.953   6.706   4.603
94807SOL     OW86317   3.465  14.626   8.287
94807SOL    HW186318   3.420  14.679   8.222
94807SOL    HW286319   3.516  14.688   8.339
94808SOL     OW86320   3.772   3.988   9.375
94808SOL    HW186321   3.821   3.965   9.296
94808SOL    HW286322   3.696   4.036   9.344
94809SOL     OW86323   1.712  12.287   1.648
94809SOL    HW186324   1.646  12.291   1.579
94809SOL    HW286325   1.720  12.377   1.679
94810SOL     OW86326  10.171   5.309   0.977
94810SOL    HW186327  10.232   5.322   1.050
94810SOL    HW286328  10.180   5.217   0.954
94811SOL     OW86329  10.274   3.387   7.054
94811SOL    HW186330  10.292   3.477   7.029
94811SOL    HW286331  10.182   3.387   7.081
94812SOL     OW86332   3.340   8.333   7.063
94812SOL    HW186333   3.344   8.306   7.154
94812SOL    HW286334   3.259   8.295   7.030
94813SOL     OW86335   1.200   3.769   2.339
94813SOL    HW186336   1.238   3.851   2.371
94813SOL    HW286337   1.106   3.786   2.334
94814SOL     OW86338   3.335   7.304   1.717
94814SOL    HW186339   3.316   7.220   1.674
94814SOL    HW286340   3.338   7.283   1.810
94815SOL     OW86341  12.304  10.847   7.143
94815SOL    HW186342  12.251  10.801   7.207
94815SOL    HW286343  12.390  10.805   7.148
94816SOL     OW86344  10.972  10.208  11.316
94816SOL    HW186345  11.010  10.282  11.269
94816SOL    HW286346  11.047  10.161  11.353
94817SOL     OW86347   8.429  13.529   3.515
94817SOL    HW186348   8.429  13.610   3.567
94817SOL    HW286349   8.521  13.516   3.492
94818SOL     OW86350   3.284   2.501  13.841
94818SOL    HW186351   3.236   2.566  13.789
94818SOL    HW286352   3.369   2.542  13.857
94819SOL     OW86353   7.225   0.026  11.115
94819SOL    HW186354   7.251   0.053  11.203
94819SOL    HW286355   7.227  14.800  11.117
94820SOL     OW86356   3.284   6.920   3.485
94820SOL    HW186357   3.321   6.864   3.553
94820SOL    HW286358   3.192   6.896   3.481
94821SOL     OW86359   4.296   0.689   4.499
94821SOL    HW186360   4.219   0.638   4.475
94821SOL    HW286361   4.365   0.658   4.439
94822SOL     OW86362   2.802   4.578   7.398
94822SOL    HW186363   2.725   4.540   7.356
94822SOL    HW286364   2.875   4.524   7.367
94823SOL     OW86365  12.497   9.571  12.607
94823SOL    HW186366  12.407   9.601  12.596
94823SOL    HW286367  12.502   9.543  12.698
94824SOL     OW86368  12.256   9.328  13.419
94824SOL    HW186369  12.316   9.388  13.464
94824SOL    HW286370  12.170   9.348  13.457
94825SOL     OW86371   9.725  11.189   7.301
94825SOL    HW186372   9.782  11.225   7.369
94825SOL    HW286373   9.636  11.199   7.336
94826SOL     OW86374   2.165  13.249  11.515
94826SOL    HW186375   2.140  13.327  11.467
94826SOL    HW286376   2.239  13.213  11.464
94827SOL     OW86377   6.604  10.141  10.851
94827SOL    HW186378   6.535  10.150  10.785
94827SOL    HW286379   6.597  10.220  10.904
94828SOL     OW86380   8.924  11.696   2.740
94828SOL    HW186381   8.894  11.765   2.799
94828SOL    HW286382   8.872  11.619   2.764
94829SOL     OW86383  14.173   2.441   9.004
94829SOL    HW186384  14.142   2.365   8.955
94829SOL    HW286385  14.094   2.494   9.019
94830SOL     OW86386   6.610   2.222   2.788
94830SOL    HW186387   6.689   2.170   2.777
94830SOL    HW286388   6.629   2.278   2.864
94831SOL     OW86389   0.910   5.398   3.046
94831SOL    HW186390   0.942   5.341   3.116
94831SOL    HW286391   0.819   5.416   3.069
94832SOL     OW86392  10.733  12.166  11.357
94832SOL    HW186393  10.749  12.187  11.265
94832SOL    HW286394  10.639  12.183  11.369
94833SOL     OW86395   9.923   9.327  12.088
94833SOL    HW186396   9.986   9.288  12.027
94833SOL    HW286397   9.949   9.294  12.174
94834SOL     OW86398  14.625   2.366   0.038
94834SOL    HW186399  14.616   2.430  14.837
94834SOL    HW286400  14.587   2.286   0.003
94835SOL     OW86401   6.352   8.127   5.988
94835SOL    HW186402   6.351   8.032   5.978
94835SOL    HW286403   6.279   8.157   5.934
94836SOL     OW86404  14.487   6.076  10.315
94836SOL    HW186405  14.412   6.037  10.360
94836SOL    HW286406  14.564   6.037  10.358
94837SOL     OW86407  12.633   7.752  13.919
94837SOL    HW186408  12.632   7.679  13.981
94837SOL    HW286409  12.545   7.755  13.883
94838SOL     OW86410   7.436   4.762   0.551
94838SOL    HW186411   7.460   4.691   0.609
94838SOL    HW286412   7.498   4.832   0.571
94839SOL     OW86413   6.548  14.375   8.700
94839SOL    HW186414   6.629  14.337   8.665
94839SOL    HW286415   6.545  14.463   8.663
94840SOL     OW86416   2.491   7.380   8.743
94840SOL    HW186417   2.501   7.409   8.834
94840SOL    HW286418   2.560   7.315   8.731
94841SOL     OW86419  11.298  11.274   7.321
94841SOL    HW186420  11.346  11.355   7.333
94841SOL    HW286421  11.336  11.213   7.384
94842SOL     OW86422  11.287   5.244   7.028
94842SOL    HW186423  11.299   5.267   6.936
94842SOL    HW286424  11.202   5.200   7.031
94843SOL     OW86425   7.131  14.141  14.610
94843SOL    HW186426   7.113  14.152  14.517
94843SOL    HW286427   7.135  14.046  14.622
94844SOL     OW86428   2.156   1.240  11.957
94844SOL    HW186429   2.100   1.257  12.033
94844SOL    HW286430   2.205   1.162  11.981
94845SOL     OW86431   3.610   1.427  12.236
94845SOL    HW186432   3.630   1.520  12.222
94845SOL    HW286433   3.533   1.429  12.294
94846SOL     OW86434   1.162   2.024  13.474
94846SOL    HW186435   1.144   2.029  13.567
94846SOL    HW286436   1.117   2.101  13.437
94847SOL     OW86437   1.547   3.394   6.229
94847SOL    HW186438   1.539   3.489   6.222
94847SOL    HW286439   1.605   3.381   6.304
94848SOL     OW86440   8.845   1.541   6.505
94848SOL    HW186441   8.836   1.516   6.597
94848SOL    HW286442   8.882   1.629   6.508
94849SOL     OW86443  11.173   7.375   1.653
94849SOL    HW186444  11.257   7.415   1.672
94849SOL    HW286445  11.179   7.287   1.690
94850SOL     OW86446  11.135   3.540   8.431
94850SOL    HW186447  11.080   3.530   8.509
94850SOL    HW286448  11.096   3.481   8.367
94851SOL     OW86449  13.006  13.539   0.240
94851SOL    HW186450  13.000  13.628   0.275
94851SOL    HW286451  12.967  13.545   0.153
94852SOL     OW86452   1.034   0.660   3.364
94852SOL    HW186453   0.993   0.729   3.417
94852SOL    HW286454   0.960   0.608   3.331
94853SOL     OW86455  12.550   7.353   2.201
94853SOL    HW186456  12.556   7.312   2.287
94853SOL    HW286457  12.458   7.346   2.176
94854SOL     OW86458  13.330   2.381   6.366
94854SOL    HW186459  13.413   2.359   6.408
94854SOL    HW286460  13.296   2.297   6.334
94855SOL     OW86461   9.857   0.309   5.729
94855SOL    HW186462   9.884   0.392   5.770
94855SOL    HW286463   9.822   0.257   5.802
94856SOL     OW86464  10.016  13.613  12.874
94856SOL    HW186465   9.995  13.524  12.904
94856SOL    HW286466  10.092  13.601  12.817
94857SOL     OW86467   8.139   4.663   3.027
94857SOL    HW186468   8.118   4.574   3.054
94857SOL    HW286469   8.084   4.718   3.083
94858SOL     OW86470   4.668  12.130   6.255
94858SOL    HW186471   4.666  12.193   6.327
94858SOL    HW286472   4.712  12.176   6.183
94859SOL     OW86473  10.077  12.595   0.120
94859SOL    HW186474  10.093  12.657   0.049
94859SOL    HW286475  10.164  12.566   0.147
94860SOL     OW86476   3.437  10.752   5.056
94860SOL    HW186477   3.392  10.667   5.063
94860SOL    HW286478   3.444  10.767   4.962
94861SOL     OW86479  12.381   9.499   8.131
94861SOL    HW186480  12.475   9.489   8.117
94861SOL    HW286481  12.372   9.589   8.163
94862SOL     OW86482   5.539   8.581  14.232
94862SOL    HW186483   5.595   8.627  14.169
94862SOL    HW286484   5.469   8.643  14.251
94863SOL     OW86485   4.357   2.352   3.859
94863SOL    HW186486   4.317   2.334   3.944
94863SOL    HW286487   4.290   2.398   3.809
94864SOL     OW86488   6.694  10.302  13.577
94864SOL    HW186489   6.650  10.344  13.504
94864SOL    HW286490   6.739  10.226  13.539
94865SOL     OW86491  12.596  12.190   4.722
94865SOL    HW186492  12.555  12.188   4.636
94865SOL    HW286493  12.690  12.189   4.704
94866SOL     OW86494   0.415   6.152   2.192
94866SOL    HW186495   0.365   6.166   2.112
94866SOL    HW286496   0.454   6.066   2.182
94867SOL     OW86497   8.972   5.778  12.060
94867SOL    HW186498   9.015   5.723  12.126
94867SOL    HW286499   8.899   5.818  12.107
94868SOL     OW86500   6.386   3.739  13.931
94868SOL    HW186501   6.455   3.730  13.865
94868SOL    HW286502   6.342   3.822  13.908
94869SOL     OW86503   4.271   1.167   9.593
94869SOL    HW186504   4.345   1.154   9.534
94869SOL    HW286505   4.194   1.155   9.537
94870SOL     OW86506  12.551  13.434  13.236
94870SOL    HW186507  12.557  13.342  13.211
94870SOL    HW286508  12.458  13.449  13.253
94871SOL     OW86509   7.770   2.926   0.438
94871SOL    HW186510   7.774   2.894   0.348
94871SOL    HW286511   7.676   2.927   0.460
94872SOL     OW86512   3.873   3.825   8.418
94872SOL    HW186513   3.875   3.729   8.410
94872SOL    HW286514   3.926   3.856   8.344
94873SOL     OW86515  14.858  10.342  12.021
94873SOL    HW186516  14.818  10.364  12.105
94873SOL    HW286517   0.008  10.248  12.028
94874SOL     OW86518   4.194  13.964   4.098
94874SOL    HW186519   4.225  13.936   4.011
94874SOL    HW286520   4.131  13.896   4.124
94875SOL     OW86521   1.486  12.707   7.288
94875SOL    HW186522   1.397  12.708   7.253
94875SOL    HW286523   1.542  12.701   7.211
94876SOL     OW86524  12.734   9.725   5.770
94876SOL    HW186525  12.672   9.731   5.843
94876SOL    HW286526  12.735   9.633   5.747
94877SOL     OW86527   0.270   8.155   9.816
94877SOL    HW186528   0.186   8.134   9.774
94877SOL    HW286529   0.250   8.230   9.873
94878SOL     OW86530   1.632   1.240  12.921
94878SOL    HW186531   1.684   1.183  12.865
94878SOL    HW286532   1.688   1.316  12.936
94879SOL     OW86533  10.816   5.434  11.384
94879SOL    HW186534  10.822   5.358  11.326
94879SOL    HW286535  10.796   5.507  11.326
94880SOL     OW86536   7.204  12.000   9.459
94880SOL    HW186537   7.259  11.922   9.469
94880SOL    HW286538   7.117  11.972   9.486
94881SOL     OW86539   1.647   7.808  14.220
94881SOL    HW186540   1.721   7.769  14.174
94881SOL    HW286541   1.679   7.894  14.248
94882SOL     OW86542   1.406   6.968   4.366
94882SOL    HW186543   1.330   6.911   4.351
94882SOL    HW286544   1.369   7.055   4.377
94883SOL     OW86545   2.591   1.361   2.373
94883SOL    HW186546   2.579   1.448   2.410
94883SOL    HW286547   2.502   1.329   2.358
94884SOL     OW86548   5.277   1.173   2.436
94884SOL    HW186549   5.360   1.138   2.468
94884SOL    HW286550   5.219   1.172   2.512
94885SOL     OW86551  11.836  14.270  14.752
94885SOL    HW186552  11.788  14.253  14.833
94885SOL    HW286553  11.818  14.193  14.698
94886SOL     OW86554   0.979   2.427   7.408
94886SOL    HW186555   1.016   2.433   7.319
94886SOL    HW286556   1.040   2.371   7.456
94887SOL     OW86557  14.567  10.575  11.261
94887SOL    HW186558  14.615  10.500  11.296
94887SOL    HW286559  14.533  10.620  11.338
94888SOL     OW86560   8.330   3.330   5.786
94888SOL    HW186561   8.336   3.304   5.694
94888SOL    HW286562   8.380   3.411   5.791
94889SOL     OW86563   6.166  13.186   5.600
94889SOL    HW186564   6.218  13.190   5.680
94889SOL    HW286565   6.230  13.196   5.529
94890SOL     OW86566   2.953   0.608   4.513
94890SOL    HW186567   2.945   0.656   4.431
94890SOL    HW286568   2.865   0.577   4.531
94891SOL     OW86569  14.059  13.207   3.740
94891SOL    HW186570  14.015  13.126   3.713
94891SOL    HW286571  14.148  13.180   3.763
94892SOL     OW86572   8.316  12.766   6.399
94892SOL    HW186573   8.307  12.703   6.470
94892SOL    HW286574   8.409  12.787   6.397
94893SOL     OW86575  11.479  13.558   2.873
94893SOL    HW186576  11.531  13.539   2.951
94893SOL    HW286577  11.390  13.567   2.905
94894SOL     OW86578  10.477   3.929   0.892
94894SOL    HW186579  10.561   3.906   0.852
94894SOL    HW286580  10.417   3.862   0.861
94895SOL     OW86581   0.259   3.682  12.111
94895SOL    HW186582   0.210   3.601  12.128
94895SOL    HW286583   0.202   3.733  12.053
94896SOL     OW86584  14.127  11.767  13.379
94896SOL    HW186585  14.203  11.743  13.431
94896SOL    HW286586  14.147  11.854  13.345
94897SOL     OW86587   0.963   3.579   2.991
94897SOL    HW186588   1.051   3.542   2.991
94897SOL    HW286589   0.912   3.520   2.936
94898SOL     OW86590   6.054   2.067  13.500
94898SOL    HW186591   5.982   2.004  13.512
94898SOL    HW286592   6.037   2.106  13.415
94899SOL     OW86593   0.366   8.276  12.676
94899SOL    HW186594   0.419   8.294  12.599
94899SOL    HW286595   0.402   8.195  12.711
94900SOL     OW86596  14.435   0.620   1.033
94900SOL    HW186597  14.380   0.552   1.070
94900SOL    HW286598  14.523   0.580   1.031
94901SOL     OW86599  13.361   7.821   9.140
94901SOL    HW186600  13.391   7.733   9.164
94901SOL    HW286601  13.432   7.858   9.089
94902SOL     OW86602  11.305   2.102  14.027
94902SOL    HW186603  11.296   2.192  14.059
94902SOL    HW286604  11.393   2.098  13.990
94903SOL     OW86605  10.315   4.001  13.734
94903SOL    HW186606  10.301   3.926  13.676
94903SOL    HW286607  10.278   3.973  13.818
94904SOL     OW86608  10.858   9.205  10.061
94904SOL    HW186609  10.794   9.191  10.131
94904SOL    HW286610  10.943   9.204  10.105
94905SOL     OW86611   1.301  13.763   2.680
94905SOL    HW186612   1.389  13.798   2.691
94905SOL    HW286613   1.272  13.796   2.595
94906SOL     OW86614  10.518  11.123   7.560
94906SOL    HW186615  10.587  11.141   7.624
94906SOL    HW286616  10.472  11.047   7.596
94907SOL     OW86617  13.409  13.342   3.591
94907SOL    HW186618  13.438  13.270   3.536
94907SOL    HW286619  13.330  13.375   3.549
94908SOL     OW86620   0.112   4.878   7.325
94908SOL    HW186621   0.122   4.965   7.364
94908SOL    HW286622   0.047   4.834   7.379
94909SOL     OW86623  13.657   5.335  12.009
94909SOL    HW186624  13.624   5.245  12.014
94909SOL    HW286625  13.733   5.328  11.951
94910SOL     OW86626  12.971  10.118   4.814
94910SOL    HW186627  13.059  10.111   4.777
94910SOL    HW286628  12.920  10.164   4.748
94911SOL     OW86629  11.443   7.550   3.047
94911SOL    HW186630  11.521   7.497   3.063
94911SOL    HW286631  11.402   7.558   3.133
94912SOL     OW86632  12.927   2.209   4.549
94912SOL    HW186633  12.987   2.276   4.581
94912SOL    HW286634  12.845   2.225   4.595
94913SOL     OW86635   1.492   1.151   9.547
94913SOL    HW186636   1.453   1.138   9.633
94913SOL    HW286637   1.420   1.177   9.491
94914SOL     OW86638  14.105   2.157  13.691
94914SOL    HW186639  14.030   2.207  13.658
94914SOL    HW286640  14.111   2.181  13.783
94915SOL     OW86641   5.409   8.995   4.450
94915SOL    HW186642   5.419   9.072   4.393
94915SOL    HW286643   5.371   8.928   4.393
94916SOL     OW86644   0.609  13.645   4.800
94916SOL    HW186645   0.679  13.696   4.758
94916SOL    HW286646   0.643  13.626   4.887
94917SOL     OW86647   2.466   2.281   3.611
94917SOL    HW186648   2.418   2.312   3.688
94917SOL    HW286649   2.555   2.269   3.642
94918SOL     OW86650   8.202   6.958  10.075
94918SOL    HW186651   8.108   6.944  10.080
94918SOL    HW286652   8.233   6.893  10.012
94919SOL     OW86653   0.409  14.029   6.102
94919SOL    HW186654   0.445  14.112   6.132
94919SOL    HW286655   0.403  14.039   6.007
94920SOL     OW86656   2.656   5.815   0.917
94920SOL    HW186657   2.601   5.818   0.996
94920SOL    HW286658   2.600   5.850   0.848
94921SOL     OW86659  11.184   1.399   0.582
94921SOL    HW186660  11.259   1.407   0.640
94921SOL    HW286661  11.202   1.321   0.531
94922SOL     OW86662   6.784  14.561  12.088
94922SOL    HW186663   6.849  14.506  12.045
94922SOL    HW286664   6.788  14.644  12.041
94923SOL     OW86665   6.551   5.891   8.184
94923SOL    HW186666   6.467   5.866   8.146
94923SOL    HW286667   6.585   5.958   8.125
94924SOL     OW86668   1.512  12.573   2.594
94924SOL    HW186669   1.588  12.527   2.556
94924SOL    HW286670   1.470  12.615   2.520
94925SOL     OW86671   6.042   6.091   4.143
94925SOL    HW186672   6.121   6.068   4.191
94925SOL    HW286673   6.061   6.066   4.052
94926SOL     OW86674   9.171   5.545  10.225
94926SOL    HW186675   9.203   5.588  10.145
94926SOL    HW286676   9.142   5.458  10.196
94927SOL     OW86677   7.671   8.185  10.082
94927SOL    HW186678   7.679   8.220  10.170
94927SOL    HW286679   7.708   8.253  10.025
94928SOL     OW86680   9.574  12.490   6.493
94928SOL    HW186681   9.514  12.501   6.419
94928SOL    HW286682   9.658  12.522   6.461
94929SOL     OW86683  13.425   7.475  10.300
94929SOL    HW186684  13.363   7.416  10.257
94929SOL    HW286685  13.371   7.538  10.347
94930SOL     OW86686   8.649   6.221   9.202
94930SOL    HW186687   8.601   6.156   9.150
94930SOL    HW286688   8.581   6.275   9.242
94931SOL     OW86689   6.132  12.439   9.735
94931SOL    HW186690   6.226  12.453   9.746
94931SOL    HW286691   6.093  12.526   9.748
94932SOL     OW86692  13.104   9.804   2.752
94932SOL    HW186693  13.056   9.824   2.832
94932SOL    HW286694  13.042   9.752   2.700
94933SOL     OW86695  10.335  11.924  11.550
94933SOL    HW186696  10.313  11.914  11.457
94933SOL    HW286697  10.368  11.839  11.577
94934SOL     OW86698   2.199   4.817  10.761
94934SOL    HW186699   2.280   4.780  10.797
94934SOL    HW286700   2.190   4.777  10.675
94935SOL     OW86701  10.182   3.813   1.625
94935SOL    HW186702  10.196   3.893   1.575
94935SOL    HW286703  10.180   3.744   1.559
94936SOL     OW86704  12.343   9.755   2.817
94936SOL    HW186705  12.400   9.680   2.832
94936SOL    HW286706  12.279   9.751   2.888
94937SOL     OW86707   0.525   7.361   1.240
94937SOL    HW186708   0.606   7.380   1.191
94937SOL    HW286709   0.468   7.318   1.176
94938SOL     OW86710   1.657   2.872   6.681
94938SOL    HW186711   1.671   2.940   6.747
94938SOL    HW286712   1.682   2.914   6.599
94939SOL     OW86713  12.015   0.530   6.409
94939SOL    HW186714  12.109   0.522   6.392
94939SOL    HW286715  11.993   0.620   6.384
94940SOL     OW86716  14.828   7.927   9.412
94940SOL    HW186717  14.786   7.884   9.486
94940SOL    HW286718  14.855   8.012   9.446
94941SOL     OW86719   6.401  11.756   7.789
94941SOL    HW186720   6.348  11.757   7.709
94941SOL    HW286721   6.451  11.838   7.786
94942SOL     OW86722   3.547   7.744  13.284
94942SOL    HW186723   3.517   7.779  13.200
94942SOL    HW286724   3.642   7.742  13.276
94943SOL     OW86725  11.725  11.372   0.118
94943SOL    HW186726  11.805  11.419   0.098
94943SOL    HW286727  11.722  11.369   0.214
94944SOL     OW86728   0.059   4.231   6.271
94944SOL    HW186729   0.106   4.242   6.353
94944SOL    HW286730   0.118   4.181   6.215
94945SOL     OW86731  10.964   5.908   4.129
94945SOL    HW186732  10.876   5.939   4.150
94945SOL    HW286733  10.951   5.820   4.093
94946SOL     OW86734  12.422  10.693   9.543
94946SOL    HW186735  12.472  10.621   9.581
94946SOL    HW286736  12.402  10.750   9.618
94947SOL     OW86737  13.004  12.039   1.828
94947SOL    HW186738  12.975  12.033   1.919
94947SOL    HW286739  12.930  12.077   1.781
94948SOL     OW86740   5.519   9.347  11.961
94948SOL    HW186741   5.506   9.320  11.870
94948SOL    HW286742   5.614   9.357  11.970
94949SOL     OW86743   9.426   2.219   8.551
94949SOL    HW186744   9.400   2.269   8.629
94949SOL    HW286745   9.369   2.253   8.482
94950SOL     OW86746  13.838   9.987   0.859
94950SOL    HW186747  13.861   9.940   0.939
94950SOL    HW286748  13.823   9.919   0.794
94951SOL     OW86749   2.374   1.405  12.394
94951SOL    HW186750   2.466   1.386  12.376
94951SOL    HW286751   2.368   1.408  12.490
94952SOL     OW86752  14.750   3.637   4.827
94952SOL    HW186753  14.777   3.558   4.874
94952SOL    HW286754  14.674   3.669   4.875
94953SOL     OW86755   5.052   2.432  12.869
94953SOL    HW186756   5.125   2.475  12.914
94953SOL    HW286757   5.093   2.383  12.799
94954SOL     OW86758   8.250   0.451   9.425
94954SOL    HW186759   8.155   0.440   9.422
94954SOL    HW286760   8.262   0.545   9.436
94955SOL     OW86761  11.249   7.367   2.342
94955SOL    HW186762  11.264   7.367   2.436
94955SOL    HW286763  11.173   7.424   2.329
94956SOL     OW86764  11.845   9.419   8.618
94956SOL    HW186765  11.900   9.350   8.655
94956SOL    HW286766  11.840   9.486   8.687
94957SOL     OW86767   4.655   1.512   3.258
94957SOL    HW186768   4.677   1.595   3.299
94957SOL    HW286769   4.739   1.472   3.238
94958SOL     OW86770   3.508  11.539  13.835
94958SOL    HW186771   3.506  11.444  13.823
94958SOL    HW286772   3.594  11.565  13.802
94959SOL     OW86773   4.216   7.818  11.086
94959SOL    HW186774   4.293   7.792  11.136
94959SOL    HW286775   4.243   7.899  11.041
94960SOL     OW86776  13.985   4.605   1.544
94960SOL    HW186777  14.076   4.635   1.553
94960SOL    HW286778  13.962   4.571   1.630
94961SOL     OW86779  14.336   6.848  12.098
94961SOL    HW186780  14.282   6.868  12.175
94961SOL    HW286781  14.303   6.907  12.030
94962SOL     OW86782  14.867   3.673  10.009
94962SOL    HW186783  14.780   3.641   9.986
94962SOL    HW286784   0.057   3.602   9.985
94963SOL     OW86785   0.311   5.171  10.017
94963SOL    HW186786   0.220   5.164   9.991
94963SOL    HW286787   0.357   5.111   9.959
94964SOL     OW86788  14.522   2.196  13.047
94964SOL    HW186789  14.478   2.186  13.131
94964SOL    HW286790  14.608   2.232  13.069
94965SOL     OW86791   6.051   3.208  12.758
94965SOL    HW186792   6.124   3.269  12.758
94965SOL    HW286793   5.977   3.258  12.723
94966SOL     OW86794  14.620  12.335   0.576
94966SOL    HW186795  14.565  12.372   0.645
94966SOL    HW286796  14.609  12.396   0.503
94967SOL     OW86797   6.443   4.151   0.400
94967SOL    HW186798   6.360   4.135   0.355
94967SOL    HW286799   6.420   4.209   0.473
94968SOL     OW86800  12.499   5.000   8.945
94968SOL    HW186801  12.432   4.959   9.000
94968SOL    HW286802  12.566   4.932   8.934
94969SOL     OW86803  10.025  11.355   3.842
94969SOL    HW186804  10.047  11.338   3.934
94969SOL    HW286805  10.091  11.418   3.813
94970SOL     OW86806  12.169  13.879   6.906
94970SOL    HW186807  12.077  13.892   6.928
94970SOL    HW286808  12.179  13.918   6.819
94971SOL     OW86809   6.519   5.369   0.863
94971SOL    HW186810   6.547   5.367   0.771
94971SOL    HW286811   6.424   5.362   0.858
94972SOL     OW86812   4.607   0.730  13.772
94972SOL    HW186813   4.674   0.798  13.762
94972SOL    HW286814   4.599   0.719  13.867
94973SOL     OW86815   8.993   4.859  10.875
94973SOL    HW186816   9.057   4.803  10.919
94973SOL    HW286817   9.046   4.920  10.823
94974SOL     OW86818   1.785   9.290   3.567
94974SOL    HW186819   1.736   9.354   3.517
94974SOL    HW286820   1.868   9.282   3.520
94975SOL     OW86821   3.136  11.184   4.865
94975SOL    HW186822   3.101  11.096   4.851
94975SOL    HW286823   3.105  11.235   4.790
94976SOL     OW86824   3.021   8.494   3.539
94976SOL    HW186825   3.027   8.558   3.468
94976SOL    HW286826   2.939   8.516   3.583
94977SOL     OW86827  14.438   7.616  11.602
94977SOL    HW186828  14.451   7.711  11.603
94977SOL    HW286829  14.354   7.603  11.646
94978SOL     OW86830   7.261  11.599   2.587
94978SOL    HW186831   7.290  11.536   2.652
94978SOL    HW286832   7.282  11.558   2.503
94979SOL     OW86833   7.508   9.596   7.437
94979SOL    HW186834   7.454   9.673   7.421
94979SOL    HW286835   7.499   9.544   7.357
94980SOL     OW86836  13.604   7.447   3.415
94980SOL    HW186837  13.574   7.497   3.491
94980SOL    HW286838  13.582   7.356   3.437
94981SOL     OW86839   6.862   6.114  11.007
94981SOL    HW186840   6.794   6.172  11.041
94981SOL    HW286841   6.927   6.174  10.969
94982SOL     OW86842   5.057   0.969  14.038
94982SOL    HW186843   5.117   0.897  14.054
94982SOL    HW286844   5.097   1.045  14.081
94983SOL     OW86845   0.277   4.294  12.246
94983SOL    HW186846   0.288   4.230  12.175
94983SOL    HW286847   0.291   4.244  12.326
94984SOL     OW86848   9.963   3.464  14.174
94984SOL    HW186849  10.057   3.444  14.171
94984SOL    HW286850   9.922   3.383  14.202
94985SOL     OW86851   8.144   8.587   0.044
94985SOL    HW186852   8.077   8.640   0.086
94985SOL    HW286853   8.104   8.555  14.834
94986SOL     OW86854  11.286  12.110   1.363
94986SOL    HW186855  11.229  12.141   1.433
94986SOL    HW286856  11.266  12.166   1.288
94987SOL     OW86857  14.717  10.173  11.013
94987SOL    HW186858  14.649  10.231  10.980
94987SOL    HW286859  14.748  10.126  10.936
94988SOL     OW86860  11.815   3.899  10.441
94988SOL    HW186861  11.784   3.990  10.444
94988SOL    HW286862  11.797   3.870  10.352
94989SOL     OW86863   6.463   2.457  13.160
94989SOL    HW186864   6.546   2.491  13.194
94989SOL    HW286865   6.435   2.522  13.095
94990SOL     OW86866   7.280  11.887   6.397
94990SOL    HW186867   7.267  11.835   6.476
94990SOL    HW286868   7.289  11.822   6.327
94991SOL     OW86869   2.554   1.853  12.645
94991SOL    HW186870   2.460   1.838  12.648
94991SOL    HW286871   2.581   1.854  12.737
94992SOL     OW86872  13.487  10.740  12.530
94992SOL    HW186873  13.496  10.816  12.471
94992SOL    HW286874  13.440  10.675  12.478
94993SOL     OW86875  12.249   8.828   2.667
94993SOL    HW186876  12.306   8.838   2.742
94993SOL    HW286877  12.205   8.913   2.658
94994SOL     OW86878  13.686   9.404   9.798
94994SOL    HW186879  13.746   9.476   9.779
94994SOL    HW286880  13.599   9.442   9.792
94995SOL     OW86881   8.382   7.804   7.582
94995SOL    HW186882   8.398   7.844   7.496
94995SOL    HW286883   8.377   7.878   7.642
94996SOL     OW86884   3.944   6.719   2.417
94996SOL    HW186885   3.877   6.683   2.475
94996SOL    HW286886   3.904   6.718   2.330
94997SOL     OW86887   2.144   1.009   0.953
94997SOL    HW186888   2.158   1.010   0.858
94997SOL    HW286889   2.102   0.924   0.970
94998SOL     OW86890  11.284  13.739   5.748
94998SOL    HW186891  11.316  13.829   5.735
94998SOL    HW286892  11.288  13.699   5.662
94999SOL     OW86893  10.630   0.030   5.986
94999SOL    HW186894  10.669   0.106   6.029
94999SOL    HW286895  10.537   0.036   6.008
95000SOL     OW86896  11.875  12.919   0.510
95000SOL    HW186897  11.822  12.908   0.431
95000SOL    HW286898  11.816  12.894   0.582
95001SOL     OW86899  13.307   2.452   4.521
95001SOL    HW186900  13.302   2.521   4.454
95001SOL    HW286901  13.292   2.371   4.473
95002SOL     OW86902   6.623   5.991   8.595
95002SOL    HW186903   6.603   5.898   8.595
95002SOL    HW286904   6.711   5.997   8.559
95003SOL     OW86905   8.295   7.029   9.343
95003SOL    HW186906   8.243   7.109   9.335
95003SOL    HW286907   8.369   7.054   9.398
95004SOL     OW86908   7.166   0.983   7.294
95004SOL    HW186909   7.243   0.979   7.350
95004SOL    HW286910   7.169   1.071   7.256
95005SOL     OW86911   5.910   0.346  10.721
95005SOL    HW186912   5.870   0.293  10.652
95005SOL    HW286913   5.963   0.410  10.674
95006SOL     OW86914   6.118   9.892   7.467
95006SOL    HW186915   6.199   9.842   7.456
95006SOL    HW286916   6.138   9.958   7.533
95007SOL     OW86917   5.950   4.123   6.912
95007SOL    HW186918   5.877   4.088   6.862
95007SOL    HW286919   5.939   4.086   7.000
95008SOL     OW86920  14.693  11.607   6.477
95008SOL    HW186921  14.609  11.564   6.495
95008SOL    HW286922  14.692  11.622   6.382
95009SOL     OW86923  10.391  10.403   4.878
95009SOL    HW186924  10.360  10.411   4.788
95009SOL    HW286925  10.350  10.476   4.924
95010SOL     OW86926  12.569   8.355   4.201
95010SOL    HW186927  12.502   8.314   4.255
95010SOL    HW286928  12.522   8.420   4.148
95011SOL     OW86929   0.145   1.239   0.758
95011SOL    HW186930   0.145   1.312   0.696
95011SOL    HW286931   0.157   1.281   0.843
95012SOL     OW86932  11.160  11.447   0.044
95012SOL    HW186933  11.075  11.420   0.011
95012SOL    HW286934  11.148  11.455   0.138
95013SOL     OW86935   6.178  13.684   2.594
95013SOL    HW186936   6.222  13.765   2.567
95013SOL    HW286937   6.098  13.682   2.542
95014SOL     OW86938   1.038  14.700   5.709
95014SOL    HW186939   1.113  14.648   5.678
95014SOL    HW286940   1.040  14.778   5.653
95015SOL     OW86941  12.220   9.676  13.593
95015SOL    HW186942  12.263   9.694  13.510
95015SOL    HW286943  12.153   9.611  13.571
95016SOL     OW86944   8.650   7.387   2.565
95016SOL    HW186945   8.616   7.398   2.654
95016SOL    HW286946   8.725   7.328   2.575
95017SOL     OW86947  11.965  14.344   8.844
95017SOL    HW186948  11.880  14.321   8.808
95017SOL    HW286949  11.960  14.438   8.861
95018SOL     OW86950   2.073   3.163   3.114
95018SOL    HW186951   2.106   3.251   3.099
95018SOL    HW286952   2.124   3.107   3.056
95019SOL     OW86953   7.193   6.519   0.721
95019SOL    HW186954   7.201   6.582   0.792
95019SOL    HW286955   7.274   6.468   0.725
95020SOL     OW86956  13.153  13.102   2.561
95020SOL    HW186957  13.104  13.036   2.513
95020SOL    HW286958  13.087  13.154   2.606
95021SOL     OW86959   9.377  10.114   9.878
95021SOL    HW186960   9.447  10.133   9.940
95021SOL    HW286961   9.325  10.046   9.920
95022SOL     OW86962   3.395  12.189  12.465
95022SOL    HW186963   3.340  12.222  12.394
95022SOL    HW286964   3.454  12.126  12.423
95023SOL     OW86965   2.095  11.008  12.304
95023SOL    HW186966   2.120  11.017  12.212
95023SOL    HW286967   2.156  10.943  12.339
95024SOL     OW86968  14.464  10.213  12.919
95024SOL    HW186969  14.522  10.282  12.952
95024SOL    HW286970  14.405  10.258  12.859
95025SOL     OW86971  14.627  10.420   5.438
95025SOL    HW186972  14.681  10.434   5.360
95025SOL    HW286973  14.620  10.325   5.445
95026SOL     OW86974   1.603   9.978   7.490
95026SOL    HW186975   1.669   9.976   7.421
95026SOL    HW286976   1.628  10.053   7.544
95027SOL     OW86977   8.191   4.085  10.980
95027SOL    HW186978   8.101   4.052  10.980
95027SOL    HW286979   8.182   4.177  10.956
95028SOL     OW86980   9.992   0.029   4.661
95028SOL    HW186981  10.072   0.049   4.612
95028SOL    HW286982   9.953   0.115   4.678
95029SOL     OW86983  10.273   6.171  13.193
95029SOL    HW186984  10.206   6.185  13.260
95029SOL    HW286985  10.289   6.258  13.156
95030SOL     OW86986   6.460   2.409   6.652
95030SOL    HW186987   6.547   2.376   6.673
95030SOL    HW286988   6.455   2.405   6.557
95031SOL     OW86989   2.352   7.733  12.401
95031SOL    HW186990   2.377   7.768  12.315
95031SOL    HW286991   2.366   7.806  12.461
95032SOL     OW86992  10.923   6.237   9.750
95032SOL    HW186993  10.848   6.226   9.807
95032SOL    HW286994  10.979   6.300   9.795
95033SOL     OW86995   8.397   4.154  14.285
95033SOL    HW186996   8.338   4.194  14.349
95033SOL    HW286997   8.474   4.211  14.286
95034SOL     OW86998   0.679  14.624   6.955
95034SOL    HW186999   0.641  14.661   6.875
95034SOL    HW287000   0.713  14.700   7.002
95035SOL     OW87001   3.825  12.871  10.658
95035SOL    HW187002   3.916  12.892  10.638
95035SOL    HW287003   3.774  12.925  10.598
95036SOL     OW87004   7.572   5.404   5.805
95036SOL    HW187005   7.615   5.481   5.767
95036SOL    HW287006   7.564   5.343   5.732
95037SOL     OW87007   5.383   7.219   2.965
95037SOL    HW187008   5.457   7.158   2.961
95037SOL    HW287009   5.423   7.304   2.982
95038SOL     OW87010   9.923   7.160   3.377
95038SOL    HW187011   9.846   7.213   3.393
95038SOL    HW287012   9.997   7.220   3.387
95039SOL     OW87013  13.731   9.234  10.018
95039SOL    HW187014  13.641   9.217  10.045
95039SOL    HW287015  13.723   9.294   9.944
95040SOL     OW87016   4.414  12.326   2.651
95040SOL    HW187017   4.374  12.239   2.653
95040SOL    HW287018   4.478  12.321   2.580
95041SOL     OW87019   2.743  10.122   4.321
95041SOL    HW187020   2.784  10.052   4.272
95041SOL    HW287021   2.673  10.154   4.264
95042SOL     OW87022   5.135   9.207   4.832
95042SOL    HW187023   5.149   9.191   4.738
95042SOL    HW287024   5.055   9.158   4.853
95043SOL     OW87025   9.420   9.910   7.686
95043SOL    HW187026   9.339   9.877   7.647
95043SOL    HW287027   9.394   9.994   7.725
95044SOL     OW87028   0.615   3.197   1.332
95044SOL    HW187029   0.620   3.230   1.243
95044SOL    HW287030   0.534   3.145   1.334
95045SOL     OW87031   8.557  12.003   7.385
95045SOL    HW187032   8.613  11.937   7.344
95045SOL    HW287033   8.619  12.065   7.424
95046SOL     OW87034   4.385   0.449   8.015
95046SOL    HW187035   4.334   0.442   8.096
95046SOL    HW287036   4.475   0.458   8.044
95047SOL     OW87037   6.974   2.463  12.886
95047SOL    HW187038   6.884   2.444  12.913
95047SOL    HW287039   7.012   2.378  12.867
95048SOL     OW87040   1.939   2.881   7.189
95048SOL    HW187041   1.972   2.853   7.103
95048SOL    HW287042   1.889   2.805   7.221
95049SOL     OW87043   2.925   5.670   5.626
95049SOL    HW187044   2.879   5.587   5.613
95049SOL    HW287045   2.871   5.735   5.580
95050SOL     OW87046   9.453   0.807   4.404
95050SOL    HW187047   9.433   0.720   4.440
95050SOL    HW287048   9.443   0.796   4.309
95051SOL     OW87049   7.939   5.028   7.965
95051SOL    HW187050   7.854   4.992   7.940
95051SOL    HW287051   7.963   5.087   7.893
95052SOL     OW87052   6.263  12.977  13.298
95052SOL    HW187053   6.256  13.013  13.386
95052SOL    HW287054   6.259  13.053  13.240
95053SOL     OW87055   3.817   9.033   2.291
95053SOL    HW187056   3.888   8.980   2.327
95053SOL    HW287057   3.739   8.979   2.303
95054SOL     OW87058   7.921   4.873  12.130
95054SOL    HW187059   7.909   4.894  12.223
95054SOL    HW287060   7.924   4.958  12.086
95055SOL     OW87061   0.331   8.904  10.893
95055SOL    HW187062   0.251   8.941  10.931
95055SOL    HW287063   0.299   8.832  10.839
95056SOL     OW87064   2.954   0.501  13.397
95056SOL    HW187065   2.998   0.497  13.482
95056SOL    HW287066   2.974   0.417  13.356
95057SOL     OW87067   9.010   2.259   4.964
95057SOL    HW187068   9.092   2.217   4.992
95057SOL    HW287069   8.975   2.199   4.898
95058SOL     OW87070  10.442   3.406   1.894
95058SOL    HW187071  10.477   3.492   1.872
95058SOL    HW287072  10.461   3.352   1.818
95059SOL     OW87073   7.897   2.941   1.052
95059SOL    HW187074   7.956   2.987   1.112
95059SOL    HW287075   7.951   2.920   0.976
95060SOL     OW87076  13.397  11.438   8.582
95060SOL    HW187077  13.374  11.346   8.574
95060SOL    HW287078  13.314  11.482   8.600
95061SOL     OW87079   1.274   9.159  11.477
95061SOL    HW187080   1.272   9.143  11.383
95061SOL    HW287081   1.265   9.072  11.517
95062SOL     OW87082  10.523  10.837  10.246
95062SOL    HW187083  10.545  10.766  10.306
95062SOL    HW287084  10.470  10.796  10.178
95063SOL     OW87085   3.205   5.937  13.429
95063SOL    HW187086   3.113   5.912  13.436
95063SOL    HW287087   3.253   5.860  13.460
95064SOL     OW87088   6.372   4.532   6.166
95064SOL    HW187089   6.441   4.577   6.215
95064SOL    HW287090   6.307   4.599   6.148
95065SOL     OW87091   3.679   0.302   2.029
95065SOL    HW187092   3.739   0.310   2.103
95065SOL    HW287093   3.735   0.308   1.951
95066SOL     OW87094  12.789   9.281  10.166
95066SOL    HW187095  12.797   9.231  10.084
95066SOL    HW287096  12.857   9.245  10.223
95067SOL     OW87097   0.049   6.189  13.290
95067SOL    HW187098   0.072   6.096  13.288
95067SOL    HW287099   0.088   6.222  13.371
95068SOL     OW87100  13.249   2.556  13.182
95068SOL    HW187101  13.242   2.469  13.144
95068SOL    HW287102  13.289   2.541  13.268
95069SOL     OW87103   2.948   8.386   0.470
95069SOL    HW187104   2.992   8.391   0.555
95069SOL    HW287105   2.990   8.454   0.417
95070SOL     OW87106   0.771  12.522   5.349
95070SOL    HW187107   0.791  12.468   5.425
95070SOL    HW287108   0.812  12.477   5.275
95071SOL     OW87109  13.164   4.870   7.271
95071SOL    HW187110  13.178   4.860   7.176
95071SOL    HW287111  13.246   4.840   7.310
95072SOL     OW87112   0.304  14.186  14.589
95072SOL    HW187113   0.222  14.207  14.632
95072SOL    HW287114   0.311  14.249  14.517
95073SOL     OW87115  12.419  14.669   7.309
95073SOL    HW187116  12.386  14.648   7.221
95073SOL    HW287117  12.480  14.741   7.294
95074SOL     OW87118   9.942  12.155  11.274
95074SOL    HW187119   9.976  12.116  11.355
95074SOL    HW287120   9.871  12.212  11.304
95075SOL     OW87121  10.218   4.620  10.900
95075SOL    HW187122  10.286   4.556  10.920
95075SOL    HW287123  10.138   4.568  10.890
95076SOL     OW87124   9.983  14.496  14.412
95076SOL    HW187125   9.946  14.469  14.496
95076SOL    HW287126  10.011  14.587  14.426
95077SOL     OW87127  12.711   8.668   0.698
95077SOL    HW187128  12.730   8.721   0.620
95077SOL    HW287129  12.767   8.591   0.689
95078SOL     OW87130  13.336   8.581   9.206
95078SOL    HW187131  13.403   8.639   9.171
95078SOL    HW287132  13.354   8.496   9.166
95079SOL     OW87133   6.203  14.129   2.384
95079SOL    HW187134   6.218  14.105   2.475
95079SOL    HW287135   6.142  14.203   2.389
95080SOL     OW87136   1.150   5.387   9.859
95080SOL    HW187137   1.071   5.439   9.846
95080SOL    HW287138   1.120   5.296   9.854
95081SOL     OW87139   4.317   2.290   0.836
95081SOL    HW187140   4.355   2.367   0.878
95081SOL    HW287141   4.320   2.222   0.903
95082SOL     OW87142   8.065  12.206   1.297
95082SOL    HW187143   7.989  12.149   1.312
95082SOL    HW287144   8.094  12.232   1.385
95083SOL     OW87145   9.217   8.470   5.905
95083SOL    HW187146   9.188   8.379   5.904
95083SOL    HW287147   9.136   8.521   5.896
95084SOL     OW87148   6.145  11.614   0.389
95084SOL    HW187149   6.105  11.663   0.317
95084SOL    HW287150   6.218  11.567   0.348
95085SOL     OW87151  12.083  10.597   4.885
95085SOL    HW187152  12.123  10.534   4.944
95085SOL    HW287153  12.104  10.683   4.923
95086SOL     OW87154  10.659   6.885   7.970
95086SOL    HW187155  10.607   6.860   8.046
95086SOL    HW287156  10.662   6.807   7.915
95087SOL     OW87157   9.498   7.659  14.272
95087SOL    HW187158   9.406   7.683  14.288
95087SOL    HW287159   9.545   7.742  14.279
95088SOL     OW87160  11.188  13.996  11.452
95088SOL    HW187161  11.200  13.901  11.450
95088SOL    HW287162  11.094  14.008  11.460
95089SOL     OW87163   6.368   8.041  13.060
95089SOL    HW187164   6.293   8.076  13.010
95089SOL    HW287165   6.353   7.946  13.061
95090SOL     OW87166   6.468   4.174  11.387
95090SOL    HW187167   6.543   4.165  11.328
95090SOL    HW287168   6.481   4.105  11.453
95091SOL     OW87169   0.317   3.490   4.392
95091SOL    HW187170   0.279   3.570   4.356
95091SOL    HW287171   0.254   3.461   4.458
95092SOL     OW87172   2.420   9.409  10.457
95092SOL    HW187173   2.493   9.459  10.496
95092SOL    HW287174   2.370   9.474  10.408
95093SOL     OW87175   2.133  13.199   5.503
95093SOL    HW187176   2.188  13.276   5.514
95093SOL    HW287177   2.044  13.232   5.507
95094SOL     OW87178   2.277   0.082  11.553
95094SOL    HW187179   2.281   0.177  11.541
95094SOL    HW287180   2.282   0.070  11.648
95095SOL     OW87181  11.749   9.801   7.305
95095SOL    HW187182  11.818   9.747   7.267
95095SOL    HW287183  11.792   9.885   7.322
95096SOL     OW87184  10.431   2.114  14.743
95096SOL    HW187185  10.440   2.157  14.828
95096SOL    HW287186  10.337   2.105  14.731
95097SOL     OW87187   8.457  10.937  10.891
95097SOL    HW187188   8.412  10.965  10.811
95097SOL    HW287189   8.393  10.949  10.961
95098SOL     OW87190  13.587   5.514   3.982
95098SOL    HW187191  13.653   5.448   4.005
95098SOL    HW287192  13.561   5.552   4.066
95099SOL     OW87193   7.184   5.560   1.464
95099SOL    HW187194   7.265   5.607   1.445
95099SOL    HW287195   7.155   5.596   1.548
95100SOL     OW87196   1.405   3.324   8.880
95100SOL    HW187197   1.423   3.328   8.974
95100SOL    HW287198   1.415   3.414   8.850
95101SOL     OW87199  11.519   0.515   5.645
95101SOL    HW187200  11.559   0.479   5.566
95101SOL    HW287201  11.558   0.603   5.653
95102SOL     OW87202   3.411   0.858  11.217
95102SOL    HW187203   3.433   0.850  11.309
95102SOL    HW287204   3.495   0.852  11.171
95103SOL     OW87205   0.544  12.447   1.821
95103SOL    HW187206   0.536  12.363   1.867
95103SOL    HW287207   0.471  12.500   1.854
95104SOL     OW87208   4.666   0.691  12.919
95104SOL    HW187209   4.701   0.768  12.964
95104SOL    HW287210   4.743   0.644  12.887
95105SOL     OW87211   0.577   6.235  10.615
95105SOL    HW187212   0.499   6.283  10.590
95105SOL    HW287213   0.647   6.300  10.614
95106SOL     OW87214   0.882  10.248   2.719
95106SOL    HW187215   0.837  10.283   2.642
95106SOL    HW287216   0.946  10.187   2.684
95107SOL     OW87217   8.517   3.902   7.916
95107SOL    HW187218   8.483   3.956   7.988
95107SOL    HW287219   8.604   3.937   7.898
95108SOL     OW87220  10.093  11.534   9.962
95108SOL    HW187221  10.102  11.604  10.027
95108SOL    HW287222  10.110  11.577   9.878
95109SOL     OW87223   1.773   0.157   4.134
95109SOL    HW187224   1.730   0.174   4.050
95109SOL    HW287225   1.747   0.230   4.189
95110SOL     OW87226   9.417   3.114   6.861
95110SOL    HW187227   9.367   3.102   6.941
95110SOL    HW287228   9.357   3.159   6.802
95111SOL     OW87229   8.178   0.675  12.944
95111SOL    HW187230   8.264   0.683  12.986
95111SOL    HW287231   8.116   0.667  13.017
95112SOL     OW87232   5.095   2.984   6.244
95112SOL    HW187233   5.062   2.898   6.217
95112SOL    HW287234   5.051   3.046   6.186
95113SOL     OW87235   5.056   9.564   0.185
95113SOL    HW187236   4.992   9.624   0.147
95113SOL    HW287237   5.007   9.483   0.198
95114SOL     OW87238   7.261   4.901  12.935
95114SOL    HW187239   7.351   4.904  12.967
95114SOL    HW287240   7.239   4.993  12.919
95115SOL     OW87241   9.319  10.891  10.022
95115SOL    HW187242   9.383  10.831  10.061
95115SOL    HW287243   9.244  10.836  10.001
95116SOL     OW87244   7.077   7.249   9.438
95116SOL    HW187245   7.112   7.164   9.412
95116SOL    HW287246   7.102   7.258   9.530
95117SOL     OW87247   8.266   2.503  14.138
95117SOL    HW187248   8.305   2.508  14.051
95117SOL    HW287249   8.323   2.556  14.193
95118SOL     OW87250  10.389  12.458   2.616
95118SOL    HW187251  10.382  12.545   2.657
95118SOL    HW287252  10.466  12.464   2.560
95119SOL     OW87253   5.593  10.484   7.513
95119SOL    HW187254   5.589  10.577   7.537
95119SOL    HW287255   5.579  10.483   7.418
95120SOL     OW87256  10.071   7.242  14.680
95120SOL    HW187257  10.056   7.336  14.687
95120SOL    HW287258  10.090   7.227  14.587
95121SOL     OW87259  14.188   8.084  11.810
95121SOL    HW187260  14.185   8.038  11.727
95121SOL    HW287261  14.183   8.177  11.786
95122SOL     OW87262   6.038  13.748   3.941
95122SOL    HW187263   6.104  13.748   3.872
95122SOL    HW287264   5.956  13.734   3.895
95123SOL     OW87265   2.998   5.128  13.322
95123SOL    HW187266   2.905   5.149  13.333
95123SOL    HW287267   2.998   5.041  13.282
95124SOL     OW87268   8.861   3.875   6.215
95124SOL    HW187269   8.804   3.942   6.251
95124SOL    HW287270   8.803   3.819   6.163
95125SOL     OW87271   1.639   7.723  10.670
95125SOL    HW187272   1.567   7.741  10.610
95125SOL    HW287273   1.597   7.710  10.755
95126SOL     OW87274  14.150  14.821  12.414
95126SOL    HW187275  14.135   0.018  12.481
95126SOL    HW287276  14.079  14.835  12.351
95127SOL     OW87277   4.076  11.420   2.087
95127SOL    HW187278   4.168  11.424   2.062
95127SOL    HW287279   4.078  11.424   2.183
95128SOL     OW87280   1.630   4.318   7.166
95128SOL    HW187281   1.713   4.338   7.210
95128SOL    HW287282   1.566   4.316   7.236
95129SOL     OW87283   9.108   9.166  14.135
95129SOL    HW187284   9.143   9.203  14.054
95129SOL    HW287285   9.147   9.218  14.204
95130SOL     OW87286  14.581   8.222   7.865
95130SOL    HW187287  14.594   8.247   7.957
95130SOL    HW287288  14.572   8.127   7.867
95131SOL     OW87289   7.057   9.298   1.288
95131SOL    HW187290   6.981   9.298   1.346
95131SOL    HW287291   7.026   9.340   1.208
95132SOL     OW87292   6.964   9.904  10.431
95132SOL    HW187293   7.055   9.932  10.440
95132SOL    HW287294   6.966   9.810  10.450
95133SOL     OW87295   9.577  14.530  10.087
95133SOL    HW187296   9.612  14.508  10.173
95133SOL    HW287297   9.631  14.604  10.058
95134SOL     OW87298   7.026   7.301   6.525
95134SOL    HW187299   6.957   7.290   6.590
95134SOL    HW287300   6.998   7.375   6.472
95135SOL     OW87301  12.901   7.672   6.615
95135SOL    HW187302  12.976   7.725   6.588
95135SOL    HW287303  12.826   7.713   6.572
95136SOL     OW87304   1.920  11.490  12.600
95136SOL    HW187305   1.967  11.538  12.668
95136SOL    HW287306   1.901  11.555  12.532
95137SOL     OW87307   5.854   4.461   6.351
95137SOL    HW187308   5.799   4.517   6.296
95137SOL    HW287309   5.929   4.440   6.295
95138SOL     OW87310   5.757  11.524  10.819
95138SOL    HW187311   5.673  11.502  10.779
95138SOL    HW287312   5.742  11.609  10.860
95139SOL     OW87313   6.471  11.460  13.844
95139SOL    HW187314   6.510  11.423  13.923
95139SOL    HW287315   6.416  11.532  13.875
95140SOL     OW87316   3.758   0.523   4.998
95140SOL    HW187317   3.730   0.576   4.924
95140SOL    HW287318   3.806   0.583   5.055
95141SOL     OW87319   0.969  11.539   7.901
95141SOL    HW187320   0.995  11.589   7.823
95141SOL    HW287321   0.926  11.604   7.957
95142SOL     OW87322  10.176  12.417   3.267
95142SOL    HW187323  10.097  12.421   3.321
95142SOL    HW287324  10.147  12.377   3.185
95143SOL     OW87325   0.887   3.770  10.640
95143SOL    HW187326   0.933   3.849  10.613
95143SOL    HW287327   0.938   3.698  10.604
95144SOL     OW87328   4.453   4.114   9.024
95144SOL    HW187329   4.432   4.023   9.045
95144SOL    HW287330   4.371   4.150   8.991
95145SOL     OW87331   8.998   0.234   5.438
95145SOL    HW187332   8.971   0.179   5.364
95145SOL    HW287333   8.951   0.199   5.513
95146SOL     OW87334   9.918   5.116   4.620
95146SOL    HW187335   9.915   5.206   4.587
95146SOL    HW287336  10.008   5.087   4.603
95147SOL     OW87337   7.684   9.091   8.118
95147SOL    HW187338   7.704   9.003   8.085
95147SOL    HW287339   7.592   9.087   8.143
95148SOL     OW87340  11.739  13.490   8.888
95148SOL    HW187341  11.710  13.504   8.798
95148SOL    HW287342  11.661  13.506   8.942
95149SOL     OW87343  13.696   9.934   3.420
95149SOL    HW187344  13.734   9.856   3.461
95149SOL    HW287345  13.745  10.007   3.458
95150SOL     OW87346  13.496  14.308   7.644
95150SOL    HW187347  13.492  14.213   7.654
95150SOL    HW287348  13.428  14.342   7.701
95151SOL     OW87349  10.984  10.369   6.199
95151SOL    HW187350  10.903  10.389   6.151
95151SOL    HW287351  11.025  10.299   6.147
95152SOL     OW87352   8.577   7.380   7.590
95152SOL    HW187353   8.577   7.472   7.563
95152SOL    HW287354   8.573   7.332   7.507
95153SOL     OW87355  13.175   5.360  14.409
95153SOL    HW187356  13.117   5.289  14.437
95153SOL    HW287357  13.236   5.371  14.481
95154SOL     OW87358  12.867   2.369  12.860
95154SOL    HW187359  12.773   2.367  12.874
95154SOL    HW287360  12.901   2.428  12.926
95155SOL     OW87361   9.525   1.668   9.840
95155SOL    HW187362   9.451   1.686   9.782
95155SOL    HW287363   9.566   1.754   9.854
95156SOL     OW87364  14.060  14.456   2.829
95156SOL    HW187365  14.068  14.551   2.815
95156SOL    HW287366  14.052  14.420   2.740
95157SOL     OW87367   8.691   9.819  10.180
95157SOL    HW187368   8.611   9.800  10.132
95157SOL    HW287369   8.667   9.889  10.241
95158SOL     OW87370  11.205  11.627   7.712
95158SOL    HW187371  11.214  11.716   7.746
95158SOL    HW287372  11.111  11.617   7.696
95159SOL     OW87373   1.828   7.199   6.038
95159SOL    HW187374   1.853   7.286   6.008
95159SOL    HW287375   1.882   7.139   5.985
95160SOL     OW87376   0.124   0.498   6.255
95160SOL    HW187377   0.158   0.586   6.274
95160SOL    HW287378   0.087   0.506   6.167
95161SOL     OW87379  12.901   5.361   2.819
95161SOL    HW187380  12.858   5.373   2.904
95161SOL    HW287381  12.977   5.306   2.837
95162SOL     OW87382   2.172   6.071   3.969
95162SOL    HW187383   2.251   6.074   4.023
95162SOL    HW287384   2.110   6.129   4.013
95163SOL     OW87385   2.726   7.997   9.225
95163SOL    HW187386   2.822   7.996   9.235
95163SOL    HW287387   2.698   7.911   9.256
95164SOL     OW87388   8.426   4.380  13.220
95164SOL    HW187389   8.372   4.315  13.264
95164SOL    HW287390   8.382   4.394  13.136
95165SOL     OW87391  13.492   4.810   3.603
95165SOL    HW187392  13.510   4.900   3.631
95165SOL    HW287393  13.508   4.757   3.681
95166SOL     OW87394  12.728   3.974   0.485
95166SOL    HW187395  12.728   3.942   0.395
95166SOL    HW287396  12.816   4.009   0.498
95167SOL     OW87397  10.019   3.993   2.024
95167SOL    HW187398  10.113   3.986   2.006
95167SOL    HW287399   9.994   3.906   2.055
95168SOL     OW87400   4.296   0.566   4.755
95168SOL    HW187401   4.305   0.592   4.663
95168SOL    HW287402   4.203   0.581   4.775
95169SOL     OW87403   8.224   5.836  13.136
95169SOL    HW187404   8.298   5.825  13.195
95169SOL    HW287405   8.153   5.868  13.192
95170SOL     OW87406   2.543   4.571   8.148
95170SOL    HW187407   2.638   4.570   8.138
95170SOL    HW287408   2.527   4.635   8.218
95171SOL     OW87409   2.924   6.810   0.702
95171SOL    HW187410   2.950   6.782   0.614
95171SOL    HW287411   2.903   6.903   0.691
95172SOL     OW87412  11.657   0.215   2.303
95172SOL    HW187413  11.642   0.121   2.313
95172SOL    HW287414  11.682   0.226   2.212
95173SOL     OW87415   6.135  10.584  13.675
95173SOL    HW187416   6.204  10.561  13.613
95173SOL    HW287417   6.082  10.504  13.681
95174SOL     OW87418   2.906  14.807  13.258
95174SOL    HW187419   2.890  14.740  13.324
95174SOL    HW287420   2.925  14.759  13.177
95175SOL     OW87421  11.335   1.028   0.976
95175SOL    HW187422  11.269   1.028   0.908
95175SOL    HW287423  11.417   1.047   0.930
95176SOL     OW87424   1.695  10.939  10.936
95176SOL    HW187425   1.754  10.875  10.896
95176SOL    HW287426   1.650  10.980  10.863
95177SOL     OW87427   7.609   5.508   0.377
95177SOL    HW187428   7.567   5.555   0.449
95177SOL    HW287429   7.702   5.521   0.391
95178SOL     OW87430   5.521  12.506  11.249
95178SOL    HW187431   5.552  12.596  11.261
95178SOL    HW287432   5.464  12.512  11.172
95179SOL     OW87433   0.120   9.920   3.901
95179SOL    HW187434   0.153   9.858   3.836
95179SOL    HW287435   0.166   9.897   3.982
95180SOL     OW87436   1.901   2.333  13.271
95180SOL    HW187437   1.889   2.414  13.222
95180SOL    HW287438   1.989   2.303  13.248
95181SOL     OW87439  14.399   4.764   6.610
95181SOL    HW187440  14.364   4.853   6.608
95181SOL    HW287441  14.322   4.707   6.614
95182SOL     OW87442  14.276   4.835   7.333
95182SOL    HW187443  14.294   4.795   7.248
95182SOL    HW287444  14.182   4.825   7.345
95183SOL     OW87445  13.098   9.846   9.212
95183SOL    HW187446  13.058   9.778   9.266
95183SOL    HW287447  13.081   9.927   9.259
95184SOL     OW87448   5.761  13.451   1.765
95184SOL    HW187449   5.845  13.414   1.790
95184SOL    HW287450   5.783  13.521   1.703
95185SOL     OW87451   4.232   6.990   1.052
95185SOL    HW187452   4.158   7.049   1.070
95185SOL    HW287453   4.287   6.996   1.130
95186SOL     OW87454  10.631  14.438   2.507
95186SOL    HW187455  10.699  14.471   2.449
95186SOL    HW287456  10.636  14.494   2.585
95187SOL     OW87457  10.258   1.914  12.065
95187SOL    HW187458  10.230   1.877  12.148
95187SOL    HW287459  10.229   1.850  11.999
95188SOL     OW87460   9.578   2.539   5.380
95188SOL    HW187461   9.537   2.577   5.303
95188SOL    HW287462   9.588   2.611   5.441
95189SOL     OW87463   8.338   9.174  11.324
95189SOL    HW187464   8.351   9.210  11.237
95189SOL    HW287465   8.258   9.215  11.356
95190SOL     OW87466   3.511  14.743   7.189
95190SOL    HW187467   3.454  14.666   7.190
95190SOL    HW287468   3.559  14.738   7.272
95191SOL     OW87469   3.122  13.028  12.830
95191SOL    HW187470   3.108  12.939  12.862
95191SOL    HW287471   3.115  13.021  12.734
95192SOL     OW87472   4.217   6.988  10.520
95192SOL    HW187473   4.159   6.923  10.559
95192SOL    HW287474   4.275   6.938  10.463
95193SOL     OW87475  12.273   8.471  14.581
95193SOL    HW187476  12.226   8.502  14.504
95193SOL    HW287477  12.206   8.431  14.636
95194SOL     OW87478  11.810  10.805  12.444
95194SOL    HW187479  11.879  10.744  12.420
95194SOL    HW287480  11.750  10.755  12.498
95195SOL     OW87481   3.289  10.731   1.514
95195SOL    HW187482   3.241  10.775   1.584
95195SOL    HW287483   3.226  10.670   1.476
95196SOL     OW87484  14.826  10.855  13.732
95196SOL    HW187485  14.847  10.803  13.809
95196SOL    HW287486  14.739  10.890  13.749
95197SOL     OW87487   9.061  13.766   7.284
95197SOL    HW187488   9.040  13.697   7.347
95197SOL    HW287489   9.134  13.731   7.233
95198SOL     OW87490  12.371   5.300  14.541
95198SOL    HW187491  12.439   5.251  14.588
95198SOL    HW287492  12.419   5.352  14.477
95199SOL     OW87493  11.742   4.738  12.201
95199SOL    HW187494  11.809   4.719  12.266
95199SOL    HW287495  11.776   4.700  12.120
95200SOL     OW87496  10.274  11.274   4.083
95200SOL    HW187497  10.290  11.325   4.162
95200SOL    HW287498  10.360  11.267   4.041
95201SOL     OW87499  10.765   4.268   1.495
95201SOL    HW187500  10.726   4.353   1.514
95201SOL    HW287501  10.772   4.225   1.581
95202SOL     OW87502   4.141   5.294   0.492
95202SOL    HW187503   4.152   5.380   0.533
95202SOL    HW287504   4.069   5.253   0.540
95203SOL     OW87505   7.812   1.349   6.293
95203SOL    HW187506   7.793   1.433   6.334
95203SOL    HW287507   7.889   1.316   6.339
95204SOL     OW87508   2.747   6.456   5.629
95204SOL    HW187509   2.763   6.549   5.614
95204SOL    HW287510   2.816   6.411   5.580
95205SOL     OW87511  12.297   9.353  13.032
95205SOL    HW187512  12.336   9.282  13.083
95205SOL    HW287513  12.298   9.321  12.941
95206SOL     OW87514  13.396   1.357   9.118
95206SOL    HW187515  13.463   1.414   9.155
95206SOL    HW287516  13.356   1.409   9.048
95207SOL     OW87517  10.477   5.838   7.708
95207SOL    HW187518  10.448   5.834   7.617
95207SOL    HW287519  10.440   5.759   7.748
95208SOL     OW87520   7.872   3.297  12.201
95208SOL    HW187521   7.845   3.378  12.243
95208SOL    HW287522   7.901   3.240  12.273
95209SOL     OW87523   0.938   6.364   6.422
95209SOL    HW187524   0.934   6.324   6.335
95209SOL    HW287525   1.028   6.348   6.451
95210SOL     OW87526  14.822  13.926   3.992
95210SOL    HW187527  14.843  13.992   3.927
95210SOL    HW287528  14.727  13.929   4.000
95211SOL     OW87529   1.038   7.975   3.518
95211SOL    HW187530   0.972   7.906   3.528
95211SOL    HW287531   1.024   8.008   3.429
95212SOL     OW87532   6.210  11.997   4.960
95212SOL    HW187533   6.185  11.956   5.043
95212SOL    HW287534   6.136  11.983   4.902
95213SOL     OW87535  13.541   5.866   7.822
95213SOL    HW187536  13.523   5.816   7.901
95213SOL    HW287537  13.468   5.929   7.816
95214SOL     OW87538   4.881   6.584   0.835
95214SOL    HW187539   4.865   6.593   0.741
95214SOL    HW287540   4.921   6.497   0.844
95215SOL     OW87541   5.114  12.283   1.888
95215SOL    HW187542   5.044  12.336   1.851
95215SOL    HW287543   5.098  12.286   1.983
95216SOL     OW87544   8.614   6.165   4.410
95216SOL    HW187545   8.562   6.086   4.395
95216SOL    HW287546   8.550   6.231   4.435
95217SOL     OW87547  11.310   7.889   3.907
95217SOL    HW187548  11.322   7.845   3.991
95217SOL    HW287549  11.215   7.886   3.892
95218SOL     OW87550   8.305  13.605  11.612
95218SOL    HW187551   8.251  13.608  11.691
95218SOL    HW287552   8.371  13.673  11.625
95219SOL     OW87553  14.015   0.692   7.986
95219SOL    HW187554  14.035   0.731   8.070
95219SOL    HW287555  14.030   0.762   7.922
95220SOL     OW87556  11.260   6.045  13.289
95220SOL    HW187557  11.173   6.039  13.250
95220SOL    HW287558  11.317   6.072  13.218
95221SOL     OW87559  13.870   1.959   9.741
95221SOL    HW187560  13.863   1.950   9.646
95221SOL    HW287561  13.779   1.970   9.771
95222SOL     OW87562   6.369  13.246  12.779
95222SOL    HW187563   6.429  13.259  12.852
95222SOL    HW287564   6.338  13.335  12.757
95223SOL     OW87565  12.818  10.874   4.019
95223SOL    HW187566  12.724  10.873   3.999
95223SOL    HW287567  12.844  10.782   4.017
95224SOL     OW87568   2.560   9.482   0.753
95224SOL    HW187569   2.480   9.484   0.700
95224SOL    HW287570   2.630   9.494   0.689
95225SOL     OW87571   3.789  13.320  12.679
95225SOL    HW187572   3.763  13.396  12.731
95225SOL    HW287573   3.788  13.247  12.741
95226SOL     OW87574   6.995   2.511   5.426
95226SOL    HW187575   6.918   2.457   5.405
95226SOL    HW287576   6.977   2.595   5.385
95227SOL     OW87577   0.330   3.522   2.422
95227SOL    HW187578   0.388   3.449   2.445
95227SOL    HW287579   0.288   3.494   2.340
95228SOL     OW87580   8.349  10.291   1.072
95228SOL    HW187581   8.319  10.253   1.154
95228SOL    HW287582   8.444  10.281   1.074
95229SOL     OW87583   7.331   4.413   9.574
95229SOL    HW187584   7.358   4.335   9.622
95229SOL    HW287585   7.304   4.475   9.642
95230SOL     OW87586   0.086  14.661  12.385
95230SOL    HW187587   0.163  14.673  12.441
95230SOL    HW287588   0.032  14.738  12.402
95231SOL     OW87589  11.572   3.848   8.350
95231SOL    HW187590  11.483   3.824   8.323
95231SOL    HW287591  11.571   3.837   8.445
95232SOL     OW87592  14.700   3.068   0.871
95232SOL    HW187593  14.796   3.069   0.871
95232SOL    HW287594  14.676   3.045   0.961
95233SOL     OW87595  10.216   6.986   9.100
95233SOL    HW187596  10.153   6.953   9.164
95233SOL    HW287597  10.228   6.914   9.038
95234SOL     OW87598  10.698   0.947   2.673
95234SOL    HW187599  10.742   0.874   2.716
95234SOL    HW287600  10.683   1.011   2.743
95235SOL     OW87601   7.637   0.724   2.264
95235SOL    HW187602   7.560   0.680   2.300
95235SOL    HW287603   7.617   0.737   2.171
95236SOL     OW87604   2.094  12.181   5.386
95236SOL    HW187605   2.085  12.159   5.293
95236SOL    HW287606   2.056  12.106   5.432
95237SOL     OW87607   7.398  14.525   0.276
95237SOL    HW187608   7.338  14.562   0.341
95237SOL    HW287609   7.442  14.454   0.322
95238SOL     OW87610   4.507   9.957   3.325
95238SOL    HW187611   4.507   9.919   3.238
95238SOL    HW287612   4.594   9.935   3.360
95239SOL     OW87613   9.819   9.769   0.431
95239SOL    HW187614   9.879   9.785   0.503
95239SOL    HW287615   9.845   9.684   0.396
95240SOL     OW87616   6.349  10.936   0.839
95240SOL    HW187617   6.326  11.028   0.855
95240SOL    HW287618   6.355  10.898   0.927
95241SOL     OW87619  11.626  10.213   0.062
95241SOL    HW187620  11.595  10.226   0.152
95241SOL    HW287621  11.558  10.159   0.021
95242SOL     OW87622   7.661   9.200  11.197
95242SOL    HW187623   7.688   9.112  11.170
95242SOL    HW287624   7.586   9.185  11.255
95243SOL     OW87625  10.626   6.017   7.279
95243SOL    HW187626  10.622   6.031   7.184
95243SOL    HW287627  10.650   6.102   7.315
95244SOL     OW87628  12.064   8.297   7.952
95244SOL    HW187629  12.074   8.234   7.881
95244SOL    HW287630  12.149   8.342   7.956
95245SOL     OW87631   3.868   4.590   3.278
95245SOL    HW187632   3.964   4.593   3.274
95245SOL    HW287633   3.846   4.639   3.356
95246SOL     OW87634  10.286   0.831   0.149
95246SOL    HW187635  10.236   0.815   0.069
95246SOL    HW287636  10.229   0.887   0.202
95247SOL     OW87637   4.448   1.684   1.211
95247SOL    HW187638   4.377   1.694   1.274
95247SOL    HW287639   4.408   1.637   1.137
95248SOL     OW87640  14.182   5.803   3.059
95248SOL    HW187641  14.135   5.832   2.981
95248SOL    HW287642  14.127   5.734   3.096
95249SOL     OW87643  14.465  13.257   7.337
95249SOL    HW187644  14.547  13.227   7.375
95249SOL    HW287645  14.431  13.181   7.289
95250SOL     OW87646   2.870  14.520   7.245
95250SOL    HW187647   2.786  14.547   7.283
95250SOL    HW287648   2.935  14.572   7.292
95251SOL     OW87649  13.059   7.159   6.345
95251SOL    HW187650  13.038   7.251   6.332
95251SOL    HW287651  13.046   7.144   6.439
95252SOL     OW87652   4.782   1.368   5.261
95252SOL    HW187653   4.859   1.423   5.250
95252SOL    HW287654   4.719   1.401   5.197
95253SOL     OW87655   7.229  12.603   7.567
95253SOL    HW187656   7.284  12.525   7.568
95253SOL    HW287657   7.181  12.599   7.649
95254SOL     OW87658  10.131  11.037   3.989
95254SOL    HW187659  10.044  11.078   3.983
95254SOL    HW287660  10.192  11.110   3.990
95255SOL     OW87661   0.413  12.020   1.791
95255SOL    HW187662   0.387  12.049   1.703
95255SOL    HW287663   0.406  11.925   1.788
95256SOL     OW87664  12.415   7.815   8.847
95256SOL    HW187665  12.478   7.798   8.777
95256SOL    HW287666  12.330   7.816   8.803
95257SOL     OW87667   9.677   5.752   7.128
95257SOL    HW187668   9.739   5.823   7.143
95257SOL    HW287669   9.647   5.766   7.038
95258SOL     OW87670  14.357  11.311   0.175
95258SOL    HW187671  14.366  11.240   0.238
95258SOL    HW287672  14.263  11.317   0.158
95259SOL     OW87673   2.361  13.134  14.458
95259SOL    HW187674   2.407  13.154  14.540
95259SOL    HW287675   2.363  13.038  14.453
95260SOL     OW87676   0.724  12.872  14.183
95260SOL    HW187677   0.632  12.878  14.158
95260SOL    HW287678   0.737  12.944  14.244
95261SOL     OW87679  10.609   5.255   6.607
95261SOL    HW187680  10.694   5.296   6.618
95261SOL    HW287681  10.595   5.207   6.688
95262SOL     OW87682   1.858  14.223   3.625
95262SOL    HW187683   1.772  14.197   3.591
95262SOL    HW287684   1.866  14.177   3.709
95263SOL     OW87685  11.339  13.294   1.415
95263SOL    HW187686  11.262  13.349   1.431
95263SOL    HW287687  11.394  13.345   1.357
95264SOL     OW87688   3.272  14.016   7.335
95264SOL    HW187689   3.317  14.078   7.392
95264SOL    HW287690   3.179  14.025   7.356
95265SOL     OW87691  10.978   0.792   2.398
95265SOL    HW187692  10.903   0.846   2.425
95265SOL    HW287693  10.940   0.727   2.338
95266SOL     OW87694   6.517  13.332   6.039
95266SOL    HW187695   6.613  13.325   6.038
95266SOL    HW287696   6.496  13.378   5.958
95267SOL     OW87697   6.314   3.368  14.505
95267SOL    HW187698   6.257   3.293  14.526
95267SOL    HW287699   6.285   3.437  14.565
95268SOL     OW87700  13.205  13.957  11.994
95268SOL    HW187701  13.207  14.042  12.039
95268SOL    HW287702  13.255  13.972  11.913
95269SOL     OW87703   6.899   0.473   1.776
95269SOL    HW187704   6.812   0.512   1.766
95269SOL    HW287705   6.883   0.379   1.783
95270SOL     OW87706   0.695   7.501  12.156
95270SOL    HW187707   0.689   7.548  12.239
95270SOL    HW287708   0.729   7.566  12.094
95271SOL     OW87709   3.511   5.123   2.313
95271SOL    HW187710   3.460   5.064   2.259
95271SOL    HW287711   3.489   5.098   2.403
95272SOL     OW87712  11.853  13.915   8.055
95272SOL    HW187713  11.793  13.953   8.120
95272SOL    HW287714  11.926  13.976   8.052
95273SOL     OW87715  12.736   6.011   5.514
95273SOL    HW187716  12.736   5.915   5.524
95273SOL    HW287717  12.699   6.025   5.427
95274SOL     OW87718   8.555  13.059   0.413
95274SOL    HW187719   8.585  13.139   0.454
95274SOL    HW287720   8.634  13.020   0.375
95275SOL     OW87721   6.009  13.956   9.832
95275SOL    HW187722   6.095  13.917   9.823
95275SOL    HW287723   6.015  14.040   9.785
95276SOL     OW87724   8.272  13.523   7.768
95276SOL    HW187725   8.255  13.614   7.793
95276SOL    HW287726   8.190  13.493   7.730
95277SOL     OW87727   7.388   5.357   3.973
95277SOL    HW187728   7.306   5.385   4.013
95277SOL    HW287729   7.360   5.300   3.901
95278SOL     OW87730   8.892   7.060  13.747
95278SOL    HW187731   8.852   7.000  13.684
95278SOL    HW287732   8.818   7.093  13.799
95279SOL     OW87733  12.339   7.129  11.317
95279SOL    HW187734  12.293   7.201  11.360
95279SOL    HW287735  12.343   7.155  11.225
95280SOL     OW87736  10.813   2.516  11.725
95280SOL    HW187737  10.830   2.558  11.809
95280SOL    HW287738  10.802   2.589  11.664
95281SOL     OW87739  12.480  10.855   6.843
95281SOL    HW187740  12.385  10.861   6.849
95281SOL    HW287741  12.512  10.935   6.884
95282SOL     OW87742   9.857   6.883   0.773
95282SOL    HW187743   9.859   6.923   0.687
95282SOL    HW287744   9.790   6.815   0.767
95283SOL     OW87745   6.159   4.316   5.322
95283SOL    HW187746   6.207   4.338   5.242
95283SOL    HW287747   6.210   4.358   5.392
95284SOL     OW87748  14.607   2.809  10.118
95284SOL    HW187749  14.574   2.899  10.119
95284SOL    HW287750  14.528   2.755  10.118
95285SOL     OW87751  11.767   2.948   1.536
95285SOL    HW187752  11.837   3.004   1.502
95285SOL    HW287753  11.691   2.970   1.483
95286SOL     OW87754   6.331   6.872   9.168
95286SOL    HW187755   6.242   6.871   9.133
95286SOL    HW287756   6.372   6.948   9.127
95287SOL     OW87757   9.345   3.544   3.312
95287SOL    HW187758   9.406   3.470   3.306
95287SOL    HW287759   9.282   3.529   3.242
95288SOL     OW87760   4.398  14.579   2.135
95288SOL    HW187761   4.395  14.569   2.230
95288SOL    HW287762   4.471  14.525   2.107
95289SOL     OW87763   4.828   1.685   5.697
95289SOL    HW187764   4.794   1.624   5.631
95289SOL    HW287765   4.848   1.765   5.648
95290SOL     OW87766   9.908   3.318  13.379
95290SOL    HW187767   9.870   3.382  13.319
95290SOL    HW287768  10.001   3.316  13.357
95291SOL     OW87769  12.154   7.005   2.377
95291SOL    HW187770  12.196   6.919   2.373
95291SOL    HW287771  12.199   7.050   2.449
95292SOL     OW87772   3.786   4.509   7.310
95292SOL    HW187773   3.816   4.419   7.302
95292SOL    HW287774   3.844   4.559   7.252
95293SOL     OW87775   2.563  13.539  13.402
95293SOL    HW187776   2.598  13.451  13.417
95293SOL    HW287777   2.563  13.581  13.488
95294SOL     OW87778  14.626  10.573  14.230
95294SOL    HW187779  14.714  10.542  14.249
95294SOL    HW287780  14.638  10.647  14.171
95295SOL     OW87781   3.948  13.495   8.339
95295SOL    HW187782   3.956  13.584   8.304
95295SOL    HW287783   4.038  13.469   8.361
95296SOL     OW87784   9.241   1.870  14.507
95296SOL    HW187785   9.161   1.818  14.498
95296SOL    HW287786   9.235   1.935  14.437
95297SOL     OW87787  11.172   2.914   1.072
95297SOL    HW187788  11.163   2.871   1.157
95297SOL    HW287789  11.239   2.863   1.026
95298SOL     OW87790   3.926   8.516  13.581
95298SOL    HW187791   3.920   8.436  13.633
95298SOL    HW287792   3.956   8.487  13.495
95299SOL     OW87793  11.992   1.429   6.910
95299SOL    HW187794  12.055   1.454   6.977
95299SOL    HW287795  12.002   1.334   6.903
95300SOL     OW87796   9.540   6.949   3.449
95300SOL    HW187797   9.532   6.984   3.360
95300SOL    HW287798   9.606   7.005   3.490
95301SOL     OW87799  10.906  10.422   6.478
95301SOL    HW187800  10.938  10.419   6.387
95301SOL    HW287801  10.972  10.473   6.524
95302SOL     OW87802  11.144   0.086   6.669
95302SOL    HW187803  11.178   0.175   6.680
95302SOL    HW287804  11.188   0.053   6.592
95303SOL     OW87805   8.680  12.663   7.279
95303SOL    HW187806   8.608  12.715   7.243
95303SOL    HW287807   8.669  12.576   7.240
95304SOL     OW87808   5.104   3.788   7.583
95304SOL    HW187809   5.015   3.820   7.602
95304SOL    HW287810   5.114   3.799   7.489
95305SOL     OW87811   4.647   5.563  13.452
95305SOL    HW187812   4.569   5.613  13.476
95305SOL    HW287813   4.650   5.568  13.357
95306SOL     OW87814  11.325   9.980  11.246
95306SOL    HW187815  11.399   9.941  11.292
95306SOL    HW287816  11.268  10.012  11.316
95307SOL     OW87817   3.724   2.198  14.182
95307SOL    HW187818   3.779   2.120  14.177
95307SOL    HW287819   3.635   2.165  14.193
95308SOL     OW87820  14.293   1.655   5.236
95308SOL    HW187821  14.349   1.722   5.198
95308SOL    HW287822  14.328   1.573   5.203
95309SOL     OW87823   2.228   8.259   0.123
95309SOL    HW187824   2.303   8.305   0.161
95309SOL    HW287825   2.266   8.194   0.065
95310SOL     OW87826   1.953   9.017   2.890
95310SOL    HW187827   1.881   9.074   2.914
95310SOL    HW287828   1.996   8.997   2.973
95311SOL     OW87829  12.132  13.124   8.655
95311SOL    HW187830  12.148  13.082   8.571
95311SOL    HW287831  12.159  13.060   8.720
95312SOL     OW87832   1.485   2.823   9.608
95312SOL    HW187833   1.444   2.889   9.663
95312SOL    HW287834   1.413   2.784   9.559
95313SOL     OW87835   7.451   3.459  13.563
95313SOL    HW187836   7.359   3.436  13.570
95313SOL    HW287837   7.483   3.461  13.653
95314SOL     OW87838   7.098  11.234   0.619
95314SOL    HW187839   7.175  11.288   0.598
95314SOL    HW287840   7.040  11.293   0.668
95315SOL     OW87841  11.368   7.294  14.844
95315SOL    HW187842  11.409   7.368  14.798
95315SOL    HW287843  11.385   7.312   0.067
95316SOL     OW87844   3.925  11.613   1.682
95316SOL    HW187845   3.874  11.571   1.612
95316SOL    HW287846   3.911  11.558   1.759
95317SOL     OW87847   6.622   7.028  13.337
95317SOL    HW187848   6.569   7.010  13.260
95317SOL    HW287849   6.565   7.010  13.411
95318SOL     OW87850   4.258  12.628  13.777
95318SOL    HW187851   4.218  12.683  13.709
95318SOL    HW287852   4.200  12.636  13.852
95319SOL     OW87853  10.801   1.630   0.564
95319SOL    HW187854  10.822   1.570   0.492
95319SOL    HW287855  10.831   1.716   0.533
95320SOL     OW87856   3.720   7.979   0.717
95320SOL    HW187857   3.646   7.946   0.769
95320SOL    HW287858   3.768   8.036   0.778
95321SOL     OW87859  13.126   4.660   2.675
95321SOL    HW187860  13.178   4.730   2.636
95321SOL    HW287861  13.181   4.625   2.745
95322SOL     OW87862   6.565   2.970   4.103
95322SOL    HW187863   6.607   2.993   4.187
95322SOL    HW287864   6.554   2.875   4.108
95323SOL     OW87865  10.998   8.987  13.239
95323SOL    HW187866  10.932   9.047  13.205
95323SOL    HW287867  10.977   8.979  13.332
95324SOL     OW87868   5.421   6.132   9.205
95324SOL    HW187869   5.458   6.114   9.119
95324SOL    HW287870   5.423   6.048   9.250
95325SOL     OW87871   1.178  12.792   5.153
95325SOL    HW187872   1.148  12.853   5.086
95325SOL    HW287873   1.166  12.705   5.113
95326SOL     OW87874   1.410  10.008   9.028
95326SOL    HW187875   1.365  10.045   9.104
95326SOL    HW287876   1.430  10.083   8.972
95327SOL     OW87877   2.237  13.606   8.580
95327SOL    HW187878   2.175  13.638   8.515
95327SOL    HW287879   2.320  13.601   8.533
95328SOL     OW87880   9.138   7.207   0.254
95328SOL    HW187881   9.228   7.234   0.239
95328SOL    HW287882   9.134   7.188   0.348
95329SOL     OW87883   5.254   2.210   3.149
95329SOL    HW187884   5.176   2.265   3.148
95329SOL    HW287885   5.225   2.126   3.113
95330SOL     OW87886  10.085   0.344   9.537
95330SOL    HW187887  10.019   0.333   9.605
95330SOL    HW287888  10.066   0.431   9.499
95331SOL     OW87889   0.725   0.996   6.647
95331SOL    HW187890   0.819   1.012   6.657
95331SOL    HW287891   0.696   1.061   6.583
95332SOL     OW87892  13.918   3.146   2.845
95332SOL    HW187893  13.886   3.116   2.759
95332SOL    HW287894  13.990   3.086   2.866
95333SOL     OW87895   3.058   0.669   5.459
95333SOL    HW187896   3.091   0.587   5.496
95333SOL    HW287897   3.059   0.654   5.364
95334SOL     OW87898  13.302   5.526   8.635
95334SOL    HW187899  13.396   5.509   8.643
95334SOL    HW287900  13.280   5.578   8.713
95335SOL     OW87901   0.247   9.466   4.916
95335SOL    HW187902   0.328   9.493   4.959
95335SOL    HW287903   0.276   9.427   4.833
95336SOL     OW87904   0.396   0.872  11.246
95336SOL    HW187905   0.316   0.823  11.263
95336SOL    HW287906   0.431   0.836  11.165
95337SOL     OW87907  10.572  10.177   2.285
95337SOL    HW187908  10.518  10.120   2.230
95337SOL    HW287909  10.652  10.191   2.233
95338SOL     OW87910   5.225   8.524   3.286
95338SOL    HW187911   5.313   8.513   3.250
95338SOL    HW287912   5.240   8.533   3.381
95339SOL     OW87913   1.245  12.719   9.252
95339SOL    HW187914   1.268  12.812   9.260
95339SOL    HW287915   1.172  12.719   9.189
95340SOL     OW87916   2.221  12.310  13.724
95340SOL    HW187917   2.292  12.294  13.663
95340SOL    HW287918   2.188  12.397  13.701
95341SOL     OW87919  10.227   6.618   3.994
95341SOL    HW187920  10.182   6.661   3.921
95341SOL    HW287921  10.319   6.643   3.983
95342SOL     OW87922   7.186   4.729   5.259
95342SOL    HW187923   7.222   4.734   5.347
95342SOL    HW287924   7.092   4.717   5.271
95343SOL     OW87925  11.644  13.820  12.613
95343SOL    HW187926  11.680  13.870  12.540
95343SOL    HW287927  11.550  13.840  12.612
95344SOL     OW87928   8.095   0.402   8.755
95344SOL    HW187929   8.076   0.491   8.786
95344SOL    HW287930   8.009   0.365   8.736
95345SOL     OW87931  13.796  11.330   7.730
95345SOL    HW187932  13.847  11.407   7.705
95345SOL    HW287933  13.734  11.318   7.658
95346SOL     OW87934  10.291   3.874   1.945
95346SOL    HW187935  10.294   3.792   1.994
95346SOL    HW287936  10.377   3.880   1.904
95347SOL     OW87937  10.774   4.220   8.028
95347SOL    HW187938  10.818   4.216   8.113
95347SOL    HW287939  10.845   4.213   7.964
95348SOL     OW87940   8.933  12.443   1.882
95348SOL    HW187941   8.944  12.357   1.924
95348SOL    HW287942   9.015  12.488   1.900
95349SOL     OW87943  10.987   4.780   4.384
95349SOL    HW187944  10.957   4.699   4.342
95349SOL    HW287945  10.926   4.793   4.457
95350SOL     OW87946   5.643   9.734  13.392
95350SOL    HW187947   5.615   9.671  13.326
95350SOL    HW287948   5.599   9.816  13.368
95351SOL     OW87949  11.752   9.156  12.743
95351SOL    HW187950  11.840   9.126  12.764
95351SOL    HW287951  11.765   9.243  12.705
95352SOL     OW87952   5.862   9.758   3.010
95352SOL    HW187953   5.931   9.728   2.950
95352SOL    HW287954   5.856   9.852   2.995
95353SOL     OW87955   8.037  11.426  11.917
95353SOL    HW187956   8.106  11.373  11.878
95353SOL    HW287957   8.048  11.416  12.011
95354SOL     OW87958  11.152  14.378   1.503
95354SOL    HW187959  11.087  14.378   1.433
95354SOL    HW287960  11.234  14.353   1.460
95355SOL     OW87961  11.708   3.336  14.362
95355SOL    HW187962  11.757   3.299  14.436
95355SOL    HW287963  11.761   3.410  14.332
95356SOL     OW87964   8.359   4.732   9.585
95356SOL    HW187965   8.438   4.682   9.604
95356SOL    HW287966   8.378   4.820   9.618
95357SOL     OW87967   2.699   8.500   0.424
95357SOL    HW187968   2.782   8.469   0.460
95357SOL    HW287969   2.642   8.423   0.428
95358SOL     OW87970   2.223   8.604   0.132
95358SOL    HW187971   2.301   8.551   0.118
95358SOL    HW287972   2.230   8.633   0.223
95359SOL     OW87973  11.367  13.210   3.668
95359SOL    HW187974  11.363  13.253   3.754
95359SOL    HW287975  11.450  13.238   3.631
95360SOL     OW87976   1.231  11.437   2.204
95360SOL    HW187977   1.263  11.527   2.218
95360SOL    HW287978   1.138  11.448   2.187
95361SOL     OW87979   0.994  14.029   8.584
95361SOL    HW187980   0.949  13.958   8.630
95361SOL    HW287981   0.927  14.069   8.528
95362SOL     OW87982   1.756  14.867   5.630
95362SOL    HW187983   1.697   0.066   5.661
95362SOL    HW287984   1.700  14.809   5.578
95363SOL     OW87985   7.965  13.899  13.036
95363SOL    HW187986   7.932  13.974  13.086
95363SOL    HW287987   8.005  13.938  12.958
95364SOL     OW87988   5.943  10.688   4.391
95364SOL    HW187989   5.938  10.775   4.352
95364SOL    HW287990   5.932  10.628   4.317
95365SOL     OW87991   9.142   1.363   6.146
95365SOL    HW187992   9.161   1.456   6.155
95365SOL    HW287993   9.064   1.349   6.200
95366SOL     OW87994  13.056  11.458   3.824
95366SOL    HW187995  13.110  11.389   3.785
95366SOL    HW287996  13.117  11.509   3.878
95367SOL     OW87997   7.117   2.963   0.133
95367SOL    HW187998   7.066   3.027   0.083
95367SOL    HW287999   7.142   2.897   0.068
95368SOL     OW88000  14.503   6.331   1.458
95368SOL    HW188001  14.572   6.285   1.409
95368SOL    HW288002  14.469   6.265   1.518
95369SOL     OW88003   2.658   2.430   2.611
95369SOL    HW188004   2.618   2.513   2.638
95369SOL    HW288005   2.584   2.370   2.601
95370SOL     OW88006   9.150  13.206   1.480
95370SOL    HW188007   9.085  13.137   1.470
95370SOL    HW288008   9.102  13.287   1.463
95371SOL     OW88009   2.928  10.215   3.883
95371SOL    HW188010   2.982  10.277   3.834
95371SOL    HW288011   2.991  10.161   3.930
95372SOL     OW88012   3.878  12.580   2.825
95372SOL    HW188013   3.808  12.537   2.774
95372SOL    HW288014   3.957  12.533   2.801
95373SOL     OW88015  12.338   0.394  11.587
95373SOL    HW188016  12.301   0.479  11.562
95373SOL    HW288017  12.402   0.416  11.655
95374SOL     OW88018   6.133   6.362  11.068
95374SOL    HW188019   6.127   6.436  11.129
95374SOL    HW288020   6.116   6.400  10.982
95375SOL     OW88021   6.092  12.020   4.366
95375SOL    HW188022   6.031  11.947   4.356
95375SOL    HW288023   6.053  12.090   4.314
95376SOL     OW88024   8.046   4.017   6.846
95376SOL    HW188025   7.957   4.053   6.846
95376SOL    HW288026   8.088   4.055   6.923
95377SOL     OW88027   2.428  14.277   8.142
95377SOL    HW188028   2.346  14.253   8.185
95377SOL    HW288029   2.446  14.366   8.174
95378SOL     OW88030   8.964   2.747   9.122
95378SOL    HW188031   9.035   2.705   9.073
95378SOL    HW288032   8.910   2.673   9.153
95379SOL     OW88033   9.547   9.742   0.346
95379SOL    HW188034   9.641   9.734   0.364
95379SOL    HW288035   9.532   9.685   0.270
95380SOL     OW88036   7.736  10.731  14.798
95380SOL    HW188037   7.712  10.821  14.781
95380SOL    HW288038   7.672  10.700  14.862
95381SOL     OW88039  10.437  12.553   8.421
95381SOL    HW188040  10.527  12.534   8.446
95381SOL    HW288041  10.433  12.649   8.420
95382SOL     OW88042   3.496   0.846  12.213
95382SOL    HW188043   3.447   0.788  12.271
95382SOL    HW288044   3.431   0.907  12.178
95383SOL     OW88045  12.067   2.984  14.791
95383SOL    HW188046  11.993   3.044  14.783
95383SOL    HW288047  12.122   3.022  14.859
95384SOL     OW88048  11.983   8.566   0.070
95384SOL    HW188049  11.954   8.499   0.132
95384SOL    HW288050  12.030   8.630   0.124
95385SOL     OW88051  10.224   2.405   5.382
95385SOL    HW188052  10.251   2.351   5.307
95385SOL    HW288053  10.288   2.386   5.450
95386SOL     OW88054  10.933   9.331  11.024
95386SOL    HW188055  10.920   9.379  10.943
95386SOL    HW288056  10.983   9.391  11.080
95387SOL     OW88057   4.698   2.313  13.878
95387SOL    HW188058   4.641   2.377  13.919
95387SOL    HW288059   4.758   2.286  13.948
95388SOL     OW88060   3.041   0.636   6.950
95388SOL    HW188061   2.974   0.703   6.934
95388SOL    HW288062   3.120   0.671   6.909
95389SOL     OW88063  12.804   7.129   6.597
95389SOL    HW188064  12.720   7.141   6.642
95389SOL    HW288065  12.828   7.216   6.565
95390SOL     OW88066  10.718  13.807   0.273
95390SOL    HW188067  10.645  13.794   0.334
95390SOL    HW288068  10.722  13.902   0.261
95391SOL     OW88069   2.453   0.359  11.309
95391SOL    HW188070   2.440   0.454  11.312
95391SOL    HW288071   2.531   0.347  11.254
95392SOL     OW88072  11.945   7.860   1.044
95392SOL    HW188073  11.938   7.864   1.139
95392SOL    HW288074  11.994   7.939   1.020
95393SOL     OW88075   3.488   4.224   8.247
95393SOL    HW188076   3.463   4.171   8.322
95393SOL    HW288077   3.545   4.166   8.195
95394SOL     OW88078   9.588   9.124  13.319
95394SOL    HW188079   9.520   9.084  13.373
95394SOL    HW288080   9.540   9.164  13.246
95395SOL     OW88081  14.119   2.163   0.899
95395SOL    HW188082  14.213   2.178   0.896
95395SOL    HW288083  14.103   2.096   0.832
95396SOL     OW88084  12.782   0.666   4.211
95396SOL    HW188085  12.711   0.666   4.276
95396SOL    HW288086  12.834   0.588   4.233
95397SOL     OW88087   3.541  12.601   8.547
95397SOL    HW188088   3.589  12.676   8.583
95397SOL    HW288089   3.451  12.612   8.577
95398SOL     OW88090  10.017   3.414   7.097
95398SOL    HW188091   9.940   3.439   7.045
95398SOL    HW288092  10.034   3.490   7.153
95399SOL     OW88093   3.029   8.576  13.603
95399SOL    HW188094   3.063   8.645  13.660
95399SOL    HW288095   3.076   8.497  13.629
95400SOL     OW88096  12.017   0.064   3.477
95400SOL    HW188097  11.939   0.048   3.530
95400SOL    HW288098  11.994   0.139   3.423
95401SOL     OW88099   5.935   9.856   0.026
95401SOL    HW188100   6.017   9.816  14.866
95401SOL    HW288101   5.939   9.946  14.864
95402SOL     OW88102   8.936  11.789  13.977
95402SOL    HW188103   8.932  11.799  13.882
95402SOL    HW288104   9.029  11.782  13.997
95403SOL     OW88105  12.556  11.785   1.908
95403SOL    HW188106  12.651  11.794   1.910
95403SOL    HW288107  12.534  11.745   1.992
95404SOL     OW88108   1.331   8.855   9.923
95404SOL    HW188109   1.349   8.930   9.867
95404SOL    HW288110   1.397   8.860   9.992
95405SOL     OW88111  14.187  11.361  12.079
95405SOL    HW188112  14.173  11.273  12.045
95405SOL    HW288113  14.261  11.396  12.028
95406SOL     OW88114   5.433   4.326  11.029
95406SOL    HW188115   5.357   4.277  11.061
95406SOL    HW288116   5.496   4.259  11.003
95407SOL     OW88117   9.299   2.958  12.736
95407SOL    HW188118   9.219   3.001  12.708
95407SOL    HW288119   9.343   3.023  12.791
95408SOL     OW88120   2.894  12.045   3.922
95408SOL    HW188121   2.978  12.072   3.883
95408SOL    HW288122   2.919  11.983   3.990
95409SOL     OW88123   5.656   5.487   1.087
95409SOL    HW188124   5.611   5.569   1.067
95409SOL    HW288125   5.675   5.449   1.001
95410SOL     OW88126  11.971  13.080  11.469
95410SOL    HW188127  11.889  13.127  11.482
95410SOL    HW288128  12.038  13.149  11.466
95411SOL     OW88129   2.952  10.629  10.774
95411SOL    HW188130   2.872  10.625  10.825
95411SOL    HW288131   3.022  10.612  10.838
95412SOL     OW88132   3.296  10.844   5.508
95412SOL    HW188133   3.301  10.887   5.422
95412SOL    HW288134   3.233  10.896   5.557
95413SOL     OW88135   7.483   2.129   1.480
95413SOL    HW188136   7.477   2.091   1.393
95413SOL    HW288137   7.394   2.157   1.501
95414SOL     OW88138   6.751  12.185   3.786
95414SOL    HW188139   6.805  12.148   3.856
95414SOL    HW288140   6.808  12.251   3.744
95415SOL     OW88141   0.086   6.775  12.515
95415SOL    HW188142   0.131   6.691  12.526
95415SOL    HW288143   0.056   6.775  12.425
95416SOL     OW88144   8.804  11.229   2.794
95416SOL    HW188145   8.892  11.263   2.804
95416SOL    HW288146   8.755  11.300   2.752
95417SOL     OW88147   4.555  12.332   0.345
95417SOL    HW188148   4.514  12.247   0.336
95417SOL    HW288149   4.636  12.326   0.293
95418SOL     OW88150  13.485  10.933   1.726
95418SOL    HW188151  13.406  10.911   1.677
95418SOL    HW288152  13.503  11.024   1.702
95419SOL     OW88153   5.135   3.884   3.030
95419SOL    HW188154   5.090   3.940   2.967
95419SOL    HW288155   5.069   3.820   3.057
95420SOL     OW88156   9.131  11.478   3.580
95420SOL    HW188157   9.105  11.426   3.656
95420SOL    HW288158   9.220  11.447   3.560
95421SOL     OW88159  14.596   7.563  14.575
95421SOL    HW188160  14.581   7.519  14.491
95421SOL    HW288161  14.610   7.492  14.637
95422SOL     OW88162   4.560   8.881  14.551
95422SOL    HW188163   4.644   8.886  14.596
95422SOL    HW288164   4.518   8.803  14.587
95423SOL     OW88165   8.032   2.934   0.830
95423SOL    HW188166   8.103   2.880   0.864
95423SOL    HW288167   8.043   2.931   0.735
95424SOL     OW88168  11.206  12.701  10.821
95424SOL    HW188169  11.118  12.693  10.857
95424SOL    HW288170  11.211  12.634  10.753
95425SOL     OW88171  12.666   4.082  13.920
95425SOL    HW188172  12.680   4.096  13.826
95425SOL    HW288173  12.607   4.153  13.946
95426SOL     OW88174  13.075   3.552   3.669
95426SOL    HW188175  13.113   3.469   3.696
95426SOL    HW288176  12.982   3.545   3.691
95427SOL     OW88177   6.693   0.152  13.621
95427SOL    HW188178   6.744   0.166  13.541
95427SOL    HW288179   6.757   0.124  13.686
95428SOL     OW88180   8.112  10.944  10.090
95428SOL    HW188181   8.201  10.961  10.057
95428SOL    HW288182   8.056  10.958  10.014
95429SOL     OW88183   9.264   7.170  10.380
95429SOL    HW188184   9.310   7.245  10.345
95429SOL    HW288185   9.259   7.108  10.307
95430SOL     OW88186   3.214   2.653   2.508
95430SOL    HW188187   3.126   2.670   2.476
95430SOL    HW288188   3.212   2.560   2.533
95431SOL     OW88189   5.126   5.151  10.028
95431SOL    HW188190   5.068   5.076  10.042
95431SOL    HW288191   5.188   5.122   9.962
95432SOL     OW88192   2.359   8.253  14.628
95432SOL    HW188193   2.421   8.181  14.630
95432SOL    HW288194   2.281   8.220  14.672
95433SOL     OW88195   7.411   2.379   5.574
95433SOL    HW188196   7.358   2.346   5.502
95433SOL    HW288197   7.448   2.461   5.541
95434SOL     OW88198   9.334   6.486   3.596
95434SOL    HW188199   9.316   6.552   3.528
95434SOL    HW288200   9.418   6.513   3.633
95435SOL     OW88201  13.334   4.170   4.653
95435SOL    HW188202  13.398   4.241   4.653
95435SOL    HW288203  13.303   4.165   4.562
95436SOL     OW88204   8.505  10.516  10.569
95436SOL    HW188205   8.430  10.471  10.529
95436SOL    HW288206   8.570  10.522  10.499
95437SOL     OW88207   0.867   2.551  10.231
95437SOL    HW188208   0.848   2.461  10.205
95437SOL    HW288209   0.944   2.544  10.288
95438SOL     OW88210  13.525   8.223   5.012
95438SOL    HW188211  13.566   8.243   5.096
95438SOL    HW288212  13.499   8.309   4.977
95439SOL     OW88213   1.077  11.421   8.743
95439SOL    HW188214   1.103  11.510   8.766
95439SOL    HW288215   0.982  11.419   8.758
95440SOL     OW88216   1.435   7.944   4.169
95440SOL    HW188217   1.505   7.999   4.204
95440SOL    HW288218   1.478   7.888   4.105
95441SOL     OW88219  14.468   1.319   2.883
95441SOL    HW188220  14.476   1.366   2.800
95441SOL    HW288221  14.460   1.227   2.858
95442SOL     OW88222   5.008  13.546  10.295
95442SOL    HW188223   5.034  13.503  10.376
95442SOL    HW288224   4.912  13.543  10.296
95443SOL     OW88225   2.760   4.381  14.115
95443SOL    HW188226   2.828   4.357  14.178
95443SOL    HW288227   2.688   4.322  14.134
95444SOL     OW88228  12.929   5.081  13.898
95444SOL    HW188229  12.961   5.052  13.813
95444SOL    HW288230  12.840   5.109  13.881
95445SOL     OW88231   7.895   5.143   8.647
95445SOL    HW188232   7.823   5.167   8.705
95445SOL    HW288233   7.895   5.048   8.646
95446SOL     OW88234   1.739   3.271   8.629
95446SOL    HW188235   1.690   3.251   8.550
95446SOL    HW288236   1.727   3.365   8.642
95447SOL     OW88237   7.141   2.397   5.864
95447SOL    HW188238   7.123   2.470   5.805
95447SOL    HW288239   7.112   2.428   5.950
95448SOL     OW88240   5.006   4.657  11.379
95448SOL    HW188241   4.985   4.734  11.433
95448SOL    HW288242   5.089   4.625  11.414
95449SOL     OW88243   5.942  12.973  12.250
95449SOL    HW188244   6.012  12.912  12.227
95449SOL    HW288245   5.875  12.919  12.292
95450SOL     OW88246   0.201  11.342   6.346
95450SOL    HW188247   0.251  11.322   6.425
95450SOL    HW288248   0.110  11.345   6.375
95451SOL     OW88249   5.039  14.487   2.833
95451SOL    HW188250   4.965  14.534   2.794
95451SOL    HW288251   5.116  14.537   2.807
95452SOL     OW88252  12.300  14.216   3.704
95452SOL    HW188253  12.209  14.186   3.712
95452SOL    HW288254  12.326  14.238   3.793
95453SOL     OW88255   9.131  14.621   0.616
95453SOL    HW188256   9.061  14.575   0.662
95453SOL    HW288257   9.208  14.566   0.630
95454SOL     OW88258   3.130   5.292   5.725
95454SOL    HW188259   3.143   5.386   5.709
95454SOL    HW288260   3.069   5.289   5.799
95455SOL     OW88261   9.634   6.972   6.927
95455SOL    HW188262   9.567   6.905   6.938
95455SOL    HW288263   9.667   6.988   7.015
95456SOL     OW88264  11.725   1.750   8.700
95456SOL    HW188265  11.719   1.687   8.773
95456SOL    HW288266  11.638   1.789   8.696
95457SOL     OW88267   4.015  12.326  10.201
95457SOL    HW188268   3.962  12.270  10.144
95457SOL    HW288269   3.979  12.310  10.289
95458SOL     OW88270   3.240   9.489   8.321
95458SOL    HW188271   3.288   9.408   8.307
95458SOL    HW288272   3.159   9.478   8.271
95459SOL     OW88273   3.126   1.586   5.462
95459SOL    HW188274   3.216   1.603   5.490
95459SOL    HW288275   3.083   1.672   5.465
95460SOL     OW88276   5.984  10.792   1.813
95460SOL    HW188277   5.996  10.851   1.888
95460SOL    HW288278   6.008  10.706   1.846
95461SOL     OW88279   0.759  11.561  13.787
95461SOL    HW188280   0.806  11.640  13.762
95461SOL    HW288281   0.667  11.585  13.781
95462SOL     OW88282   2.961   7.430   7.283
95462SOL    HW188283   3.009   7.444   7.365
95462SOL    HW288284   2.876   7.470   7.298
95463SOL     OW88285   8.929   0.395  13.182
95463SOL    HW188286   8.903   0.479  13.146
95463SOL    HW288287   8.876   0.385  13.261
95464SOL     OW88288   5.187  13.781   3.455
95464SOL    HW188289   5.106  13.742   3.422
95464SOL    HW288290   5.175  13.875   3.445
95465SOL     OW88291   7.629   9.275   9.572
95465SOL    HW188292   7.565   9.204   9.579
95465SOL    HW288293   7.695   9.255   9.637
95466SOL     OW88294   7.772   1.779   6.935
95466SOL    HW188295   7.694   1.769   6.880
95466SOL    HW288296   7.749   1.849   6.996
95467SOL     OW88297  10.759  12.413   7.628
95467SOL    HW188298  10.665  12.428   7.639
95467SOL    HW288299  10.801  12.479   7.684
95468SOL     OW88300   3.918   1.814  12.997
95468SOL    HW188301   3.859   1.826  12.922
95468SOL    HW288302   3.953   1.726  12.986
95469SOL     OW88303   9.831   3.139  14.834
95469SOL    HW188304   9.817   3.192  14.756
95469SOL    HW288305   9.778   3.060  14.819
95470SOL     OW88306  14.773  12.087  10.214
95470SOL    HW188307  14.714  12.131  10.275
95470SOL    HW288308  14.728  12.006  10.192
95471SOL     OW88309   6.741  12.788  12.526
95471SOL    HW188310   6.823  12.759  12.566
95471SOL    HW288311   6.693  12.831  12.596
95472SOL     OW88312  10.710  10.423   9.878
95472SOL    HW188313  10.624  10.451   9.847
95472SOL    HW288314  10.713  10.329   9.860
95473SOL     OW88315   2.594  11.664   1.335
95473SOL    HW188316   2.505  11.682   1.305
95473SOL    HW288317   2.615  11.578   1.298
95474SOL     OW88318   6.044  13.919   2.311
95474SOL    HW188319   6.100  13.841   2.307
95474SOL    HW288320   6.098  13.986   2.353
95475SOL     OW88321   9.359   7.436  12.824
95475SOL    HW188322   9.410   7.482  12.757
95475SOL    HW288323   9.336   7.353  12.783
95476SOL     OW88324   2.419   9.385   5.003
95476SOL    HW188325   2.328   9.382   4.973
95476SOL    HW288326   2.413   9.402   5.097
95477SOL     OW88327  11.679   0.350   9.429
95477SOL    HW188328  11.642   0.418   9.485
95477SOL    HW288329  11.715   0.398   9.355
95478SOL     OW88330   2.864   8.993  12.105
95478SOL    HW188331   2.889   8.917  12.158
95478SOL    HW288332   2.937   9.054  12.115
95479SOL     OW88333  13.472  13.103   4.254
95479SOL    HW188334  13.527  13.035   4.292
95479SOL    HW288335  13.481  13.091   4.159
95480SOL     OW88336   4.034  12.386   5.356
95480SOL    HW188337   4.124  12.417   5.345
95480SOL    HW288338   4.022  12.321   5.286
95481SOL     OW88339   8.005  11.769   0.268
95481SOL    HW188340   7.994  11.674   0.271
95481SOL    HW288341   8.090  11.782   0.227
95482SOL     OW88342   8.837   4.083  14.734
95482SOL    HW188343   8.829   4.008  14.793
95482SOL    HW288344   8.749   4.094  14.698
95483SOL     OW88345   9.785   7.977   8.021
95483SOL    HW188346   9.841   7.928   7.960
95483SOL    HW288347   9.846   8.034   8.068
95484SOL     OW88348  13.420   3.549  11.303
95484SOL    HW188349  13.371   3.618  11.258
95484SOL    HW288350  13.512   3.570  11.286
95485SOL     OW88351   1.547   7.236  13.783
95485SOL    HW188352   1.534   7.224  13.877
95485SOL    HW288353   1.598   7.316  13.776
95486SOL     OW88354   5.332   1.694   2.492
95486SOL    HW188355   5.321   1.775   2.542
95486SOL    HW288356   5.269   1.701   2.420
95487SOL     OW88357   3.359   6.381  13.673
95487SOL    HW188358   3.377   6.399  13.581
95487SOL    HW288359   3.403   6.452  13.720
95488SOL     OW88360  11.876   5.562  13.731
95488SOL    HW188361  11.856   5.654  13.712
95488SOL    HW288362  11.971   5.556  13.725
95489SOL     OW88363   3.382   0.609   3.193
95489SOL    HW188364   3.315   0.676   3.207
95489SOL    HW288365   3.370   0.547   3.265
95490SOL     OW88366   6.432   6.336   8.382
95490SOL    HW188367   6.448   6.335   8.288
95490SOL    HW288368   6.425   6.244   8.406
95491SOL     OW88369  10.343  12.468   0.595
95491SOL    HW188370  10.269  12.408   0.607
95491SOL    HW288371  10.356  12.508   0.681
95492SOL     OW88372   5.998  12.612   1.768
95492SOL    HW188373   5.925  12.644   1.821
95492SOL    HW288374   5.989  12.516   1.772
95493SOL     OW88375   7.309   5.761   6.693
95493SOL    HW188376   7.329   5.810   6.772
95493SOL    HW288377   7.298   5.671   6.722
95494SOL     OW88378   1.169   4.219  14.110
95494SOL    HW188379   1.183   4.254  14.198
95494SOL    HW288380   1.136   4.293  14.060
95495SOL     OW88381   2.816   5.575   5.209
95495SOL    HW188382   2.841   5.659   5.171
95495SOL    HW288383   2.736   5.593   5.257
95496SOL     OW88384   2.834  11.106  12.378
95496SOL    HW188385   2.778  11.113  12.301
95496SOL    HW288386   2.773  11.097  12.451
95497SOL     OW88387   0.757  12.573  13.733
95497SOL    HW188388   0.697  12.543  13.801
95497SOL    HW288389   0.701  12.589  13.657
95498SOL     OW88390  11.681   2.706   7.966
95498SOL    HW188391  11.639   2.776   8.016
95498SOL    HW288392  11.684   2.739   7.877
95499SOL     OW88393   3.056  12.700   7.695
95499SOL    HW188394   3.034  12.704   7.788
95499SOL    HW288395   3.023  12.782   7.658
95500SOL     OW88396  11.580  12.062   0.540
95500SOL    HW188397  11.488  12.084   0.529
95500SOL    HW288398  11.616  12.133   0.594
95501SOL     OW88399  14.747   3.539  13.468
95501SOL    HW188400  14.740   3.595  13.390
95501SOL    HW288401  14.686   3.578  13.530
95502SOL     OW88402   2.019  10.952   6.822
95502SOL    HW188403   1.956  10.893   6.780
95502SOL    HW288404   2.007  11.036   6.777
95503SOL     OW88405   7.394   5.777   2.425
95503SOL    HW188406   7.453   5.715   2.468
95503SOL    HW288407   7.356   5.728   2.352
95504SOL     OW88408  13.873  13.127  14.508
95504SOL    HW188409  13.963  13.134  14.476
95504SOL    HW288410  13.880  13.140  14.603
95505SOL     OW88411  14.865  14.117  10.652
95505SOL    HW188412  14.819  14.169  10.718
95505SOL    HW288413   0.066  14.173  10.621
95506SOL     OW88414   5.422   2.092   3.536
95506SOL    HW188415   5.432   2.170   3.481
95506SOL    HW288416   5.495   2.097   3.597
95507SOL     OW88417   3.240   9.553   1.577
95507SOL    HW188418   3.300   9.554   1.652
95507SOL    HW288419   3.241   9.643   1.544
95508SOL     OW88420   0.857   3.136  10.728
95508SOL    HW188421   0.856   3.178  10.813
95508SOL    HW288422   0.892   3.202  10.668
95509SOL     OW88423   4.781   8.520   0.499
95509SOL    HW188424   4.827   8.438   0.483
95509SOL    HW288425   4.849   8.587   0.495
95510SOL     OW88426   7.696   8.092  11.763
95510SOL    HW188427   7.656   8.033  11.826
95510SOL    HW288428   7.788   8.065  11.758
95511SOL     OW88429  12.288  12.284  10.127
95511SOL    HW188430  12.293  12.210  10.067
95511SOL    HW288431  12.196  12.312  10.122
95512SOL     OW88432   6.086  10.068   6.656
95512SOL    HW188433   6.083  10.078   6.751
95512SOL    HW288434   5.998  10.039   6.632
95513SOL     OW88435   6.893   7.721   0.483
95513SOL    HW188436   6.886   7.651   0.548
95513SOL    HW288437   6.824   7.783   0.508
95514SOL     OW88438   6.985   8.111   5.444
95514SOL    HW188439   7.014   8.035   5.392
95514SOL    HW288440   6.991   8.184   5.383
95515SOL     OW88441   5.484   4.417  13.801
95515SOL    HW188442   5.551   4.422  13.869
95515SOL    HW288443   5.533   4.416  13.719
95516SOL     OW88444   6.453   1.663   4.160
95516SOL    HW188445   6.411   1.577   4.161
95516SOL    HW288446   6.522   1.657   4.227
95517SOL     OW88447   6.579   2.276   4.745
95517SOL    HW188448   6.484   2.263   4.752
95517SOL    HW288449   6.602   2.329   4.821
95518SOL     OW88450  13.141  14.459   9.811
95518SOL    HW188451  13.119  14.509   9.732
95518SOL    HW288452  13.162  14.372   9.779
95519SOL     OW88453   5.215  13.736   0.913
95519SOL    HW188454   5.275  13.714   0.842
95519SOL    HW288455   5.247  13.820   0.947
95520SOL     OW88456   0.995   5.011   2.904
95520SOL    HW188457   1.055   4.937   2.909
95520SOL    HW288458   0.994   5.034   2.811
95521SOL     OW88459  13.715  12.763  11.595
95521SOL    HW188460  13.729  12.687  11.538
95521SOL    HW288461  13.642  12.810  11.555
95522SOL     OW88462   7.197   5.115  13.873
95522SOL    HW188463   7.288   5.128  13.846
95522SOL    HW288464   7.157   5.067  13.801
95523SOL     OW88465  10.022   1.438   1.813
95523SOL    HW188466  10.086   1.384   1.767
95523SOL    HW288467   9.940   1.390   1.804
95524SOL     OW88468   4.718   7.493  12.665
95524SOL    HW188469   4.753   7.524  12.748
95524SOL    HW288470   4.691   7.572  12.619
95525SOL     OW88471   0.173  14.716  12.661
95525SOL    HW188472   0.151  14.799  12.618
95525SOL    HW288473   0.264  14.728  12.690
95526SOL     OW88474   7.575  12.798   1.832
95526SOL    HW188475   7.554  12.764   1.919
95526SOL    HW288476   7.670  12.808   1.832
95527SOL     OW88477   4.482   1.194  14.153
95527SOL    HW188478   4.514   1.282  14.173
95527SOL    HW288479   4.427   1.205  14.076
95528SOL     OW88480   0.543   8.785  11.236
95528SOL    HW188481   0.571   8.800  11.146
95528SOL    HW288482   0.535   8.872  11.274
95529SOL     OW88483   3.050   9.381   8.125
95529SOL    HW188484   2.975   9.338   8.084
95529SOL    HW288485   3.126   9.346   8.078
95530SOL     OW88486  11.931   0.057  10.990
95530SOL    HW188487  11.938   0.082  11.082
95530SOL    HW288488  12.011   0.007  10.972
95531SOL     OW88489   7.937  14.346   8.044
95531SOL    HW188490   8.002  14.284   8.011
95531SOL    HW288491   7.925  14.323   8.136
95532SOL     OW88492  11.612  10.585   0.567
95532SOL    HW188493  11.548  10.622   0.627
95532SOL    HW288494  11.569  10.585   0.482
95533SOL     OW88495   6.104   6.015   8.097
95533SOL    HW188496   6.170   5.964   8.051
95533SOL    HW288497   6.085   6.088   8.039
95534SOL     OW88498  14.260  11.779  10.985
95534SOL    HW188499  14.324  11.708  10.989
95534SOL    HW288500  14.249  11.807  11.076
95535SOL     OW88501   2.673  11.548   4.004
95535SOL    HW188502   2.589  11.594   4.007
95535SOL    HW288503   2.732  11.603   4.055
95536SOL     OW88504   1.814   8.300   9.317
95536SOL    HW188505   1.748   8.236   9.290
95536SOL    HW288506   1.817   8.364   9.246
95537SOL     OW88507   5.290   8.209   4.133
95537SOL    HW188508   5.356   8.140   4.121
95537SOL    HW288509   5.268   8.205   4.226
95538SOL     OW88510   2.782   9.879   9.606
95538SOL    HW188511   2.766   9.973   9.614
95538SOL    HW288512   2.787   9.864   9.511
95539SOL     OW88513   8.792   7.169   5.906
95539SOL    HW188514   8.736   7.233   5.863
95539SOL    HW288515   8.759   7.164   5.996
95540SOL     OW88516   7.544  10.315   4.356
95540SOL    HW188517   7.589  10.256   4.417
95540SOL    HW288518   7.497  10.376   4.413
95541SOL     OW88519   1.387   4.024   1.863
95541SOL    HW188520   1.428   3.951   1.910
95541SOL    HW288521   1.294   4.004   1.865
95542SOL     OW88522  14.267   6.877   5.118
95542SOL    HW188523  14.270   6.958   5.067
95542SOL    HW288524  14.357   6.863   5.146
95543SOL     OW88525   5.521  10.513   5.989
95543SOL    HW188526   5.433  10.546   6.006
95543SOL    HW288527   5.509  10.420   5.972
95544SOL     OW88528   3.847  10.944   7.615
95544SOL    HW188529   3.825  10.856   7.646
95544SOL    HW288530   3.931  10.964   7.657
95545SOL     OW88531   7.373   0.720   6.406
95545SOL    HW188532   7.423   0.642   6.431
95545SOL    HW288533   7.431   0.768   6.347
95546SOL     OW88534   7.160  10.159   6.493
95546SOL    HW188535   7.131  10.178   6.583
95546SOL    HW288536   7.096  10.203   6.438
95547SOL     OW88537   0.175   1.058  14.800
95547SOL    HW188538   0.190   1.079   0.022
95547SOL    HW288539   0.250   1.002  14.776
95548SOL     OW88540   9.869   0.459   9.687
95548SOL    HW188541   9.818   0.540   9.692
95548SOL    HW288542   9.812   0.393   9.727
95549SOL     OW88543   1.905  10.571   6.219
95549SOL    HW188544   1.906  10.550   6.126
95549SOL    HW288545   1.940  10.493   6.262
95550SOL     OW88546   7.298  10.793   1.377
95550SOL    HW188547   7.340  10.774   1.294
95550SOL    HW288548   7.308  10.888   1.388
95551SOL     OW88549   2.540   8.579  14.457
95551SOL    HW188550   2.563   8.559  14.548
95551SOL    HW288551   2.463   8.526  14.439
95552SOL     OW88552   7.488  14.835   2.858
95552SOL    HW188553   7.493  14.834   2.762
95552SOL    HW288554   7.463  14.745   2.881
95553SOL     OW88555   1.841  14.352   5.658
95553SOL    HW188556   1.902  14.385   5.724
95553SOL    HW288557   1.894  14.293   5.604
95554SOL     OW88558   7.114   3.133   2.412
95554SOL    HW188559   7.034   3.086   2.434
95554SOL    HW288560   7.134   3.184   2.490
95555SOL     OW88561   2.876  11.552   2.157
95555SOL    HW188562   2.845  11.499   2.084
95555SOL    HW288563   2.938  11.496   2.203
95556SOL     OW88564   8.254   8.454   5.807
95556SOL    HW188565   8.345   8.462   5.834
95556SOL    HW288566   8.258   8.421   5.717
95557SOL     OW88567   6.330   4.878   1.369
95557SOL    HW188568   6.325   4.971   1.345
95557SOL    HW288569   6.409   4.846   1.326
95558SOL     OW88570   9.209  11.128   6.322
95558SOL    HW188571   9.246  11.214   6.302
95558SOL    HW288572   9.263  11.094   6.393
95559SOL     OW88573   3.602  12.179   8.512
95559SOL    HW188574   3.508  12.180   8.530
95559SOL    HW288575   3.641  12.134   8.587
95560SOL     OW88576   2.619  13.086   3.712
95560SOL    HW188577   2.648  13.060   3.799
95560SOL    HW288578   2.542  13.032   3.695
95561SOL     OW88579   1.441   7.499   9.137
95561SOL    HW188580   1.461   7.592   9.127
95561SOL    HW288581   1.481   7.476   9.221
95562SOL     OW88582   8.123   2.841  14.624
95562SOL    HW188583   8.049   2.886  14.665
95562SOL    HW288584   8.168   2.799  14.697
95563SOL     OW88585   0.569  10.103   1.339
95563SOL    HW188586   0.554  10.051   1.260
95563SOL    HW288587   0.546  10.044   1.411
95564SOL     OW88588   2.286   5.665   0.683
95564SOL    HW188589   2.291   5.700   0.771
95564SOL    HW288590   2.281   5.570   0.695
95565SOL     OW88591   2.781   3.069   9.179
95565SOL    HW188592   2.776   3.124   9.257
95565SOL    HW288593   2.773   3.131   9.106
95566SOL     OW88594  10.631   8.212  12.796
95566SOL    HW188595  10.675   8.174  12.872
95566SOL    HW288596  10.665   8.163  12.721
95567SOL     OW88597   1.994  13.851   2.911
95567SOL    HW188598   1.947  13.911   2.969
95567SOL    HW288599   1.942  13.771   2.912
95568SOL     OW88600   9.736   5.027   0.625
95568SOL    HW188601   9.649   5.068   0.629
95568SOL    HW288602   9.724   4.951   0.569
95569SOL     OW88603   7.066   7.305   6.854
95569SOL    HW188604   6.994   7.309   6.791
95569SOL    HW288605   7.145   7.297   6.799
95570SOL     OW88606   1.302  13.181  13.642
95570SOL    HW188607   1.300  13.276  13.630
95570SOL    HW288608   1.372  13.152  13.584
95571SOL     OW88609  12.326   7.842   6.885
95571SOL    HW188610  12.410   7.884   6.866
95571SOL    HW288611  12.261   7.911   6.874
95572SOL     OW88612   9.990  13.811   9.610
95572SOL    HW188613   9.991  13.716   9.620
95572SOL    HW288614  10.080  13.835   9.590
95573SOL     OW88615   2.452   3.548   5.298
95573SOL    HW188616   2.523   3.611   5.285
95573SOL    HW288617   2.465   3.516   5.388
95574SOL     OW88618   1.746   3.268   4.512
95574SOL    HW188619   1.781   3.197   4.566
95574SOL    HW288620   1.820   3.327   4.500
95575SOL     OW88621   8.890   3.489   6.801
95575SOL    HW188622   8.976   3.480   6.842
95575SOL    HW288623   8.829   3.453   6.866
95576SOL     OW88624   1.632  12.312   0.366
95576SOL    HW188625   1.624  12.361   0.448
95576SOL    HW288626   1.627  12.378   0.297
95577SOL     OW88627   9.401   1.205   9.365
95577SOL    HW188628   9.403   1.299   9.382
95577SOL    HW288629   9.482   1.172   9.404
95578SOL     OW88630   1.409   4.867   0.595
95578SOL    HW188631   1.330   4.868   0.540
95578SOL    HW288632   1.441   4.777   0.588
95579SOL     OW88633   3.611   4.726   5.139
95579SOL    HW188634   3.630   4.713   5.047
95579SOL    HW288635   3.683   4.683   5.185
95580SOL     OW88636   3.808  10.426  14.073
95580SOL    HW188637   3.901  10.411  14.062
95580SOL    HW288638   3.768  10.341  14.056
95581SOL     OW88639   9.375   0.040   4.944
95581SOL    HW188640   9.414   0.041   5.032
95581SOL    HW288641   9.285   0.070   4.958
95582SOL     OW88642   2.203   1.829   5.309
95582SOL    HW188643   2.138   1.815   5.240
95582SOL    HW288644   2.275   1.770   5.286
95583SOL     OW88645   8.247   9.680   1.360
95583SOL    HW188646   8.275   9.655   1.272
95583SOL    HW288647   8.203   9.765   1.348
95584SOL     OW88648   3.241   6.654  10.545
95584SOL    HW188649   3.157   6.643  10.499
95584SOL    HW288650   3.299   6.693  10.481
95585SOL     OW88651   2.457  11.072   5.241
95585SOL    HW188652   2.418  11.023   5.169
95585SOL    HW288653   2.457  11.163   5.211
95586SOL     OW88654  11.181  13.662   4.699
95586SOL    HW188655  11.088  13.675   4.713
95586SOL    HW288656  11.192  13.568   4.691
95587SOL     OW88657   2.905   2.885   1.925
95587SOL    HW188658   2.860   2.927   1.999
95587SOL    HW288659   2.848   2.812   1.902
95588SOL     OW88660   0.591  10.341   0.037
95588SOL    HW188661   0.539  10.307  14.835
95588SOL    HW288662   0.551  10.426   0.059
95589SOL     OW88663   7.183  11.152  11.648
95589SOL    HW188664   7.152  11.231  11.691
95589SOL    HW288665   7.278  11.152  11.663
95590SOL     OW88666  11.989   5.473   5.412
95590SOL    HW188667  12.047   5.404   5.378
95590SOL    HW288668  11.988   5.459   5.506
95591SOL     OW88669   7.483  12.089   5.902
95591SOL    HW188670   7.391  12.113   5.887
95591SOL    HW288671   7.492  12.085   5.997
95592SOL     OW88672  14.495   3.135  14.505
95592SOL    HW188673  14.442   3.087  14.569
95592SOL    HW288674  14.585   3.107  14.522
95593SOL     OW88675   8.497   1.360   9.665
95593SOL    HW188676   8.459   1.333   9.749
95593SOL    HW288677   8.521   1.277   9.623
95594SOL     OW88678   0.241   5.524   8.663
95594SOL    HW188679   0.270   5.432   8.663
95594SOL    HW288680   0.169   5.526   8.601
95595SOL     OW88681   2.304  10.415  11.020
95595SOL    HW188682   2.372  10.349  11.037
95595SOL    HW288683   2.352  10.498  11.018
95596SOL     OW88684   4.841  13.288  14.603
95596SOL    HW188685   4.782  13.296  14.528
95596SOL    HW288686   4.928  13.283  14.564
95597SOL     OW88687   5.440  12.405  10.955
95597SOL    HW188688   5.350  12.380  10.975
95597SOL    HW288689   5.458  12.364  10.870
95598SOL     OW88690   9.806  14.043   2.114
95598SOL    HW188691   9.722  14.088   2.106
95598SOL    HW288692   9.870  14.102   2.075
95599SOL     OW88693  14.097  10.981   9.450
95599SOL    HW188694  14.062  11.046   9.511
95599SOL    HW288695  14.105  10.901   9.502
95600SOL     OW88696   9.474   0.925   1.777
95600SOL    HW188697   9.457   0.915   1.683
95600SOL    HW288698   9.478   0.835   1.809
95601SOL     OW88699   6.638   4.436   7.369
95601SOL    HW188700   6.682   4.397   7.293
95601SOL    HW288701   6.664   4.380   7.442
95602SOL     OW88702   4.566   4.967   5.316
95602SOL    HW188703   4.537   4.923   5.395
95602SOL    HW288704   4.657   4.938   5.304
95603SOL     OW88705  11.582   1.100  10.716
95603SOL    HW188706  11.633   1.032  10.761
95603SOL    HW288707  11.557   1.060  10.633
95604SOL     OW88708  11.456  10.809   8.008
95604SOL    HW188709  11.491  10.852   7.930
95604SOL    HW288710  11.453  10.716   7.986
95605SOL     OW88711  14.734   2.874   4.964
95605SOL    HW188712  14.751   2.838   5.052
95605SOL    HW288713  14.644   2.848   4.945
95606SOL     OW88714  13.852   2.654   7.338
95606SOL    HW188715  13.869   2.708   7.414
95606SOL    HW288716  13.938   2.625   7.308
95607SOL     OW88717   4.023   3.095   7.884
95607SOL    HW188718   4.009   3.142   7.966
95607SOL    HW288719   4.015   3.163   7.816
95608SOL     OW88720   9.751   6.075   0.196
95608SOL    HW188721   9.802   6.154   0.213
95608SOL    HW288722   9.677   6.105   0.142
95609SOL     OW88723   3.133  12.439   1.630
95609SOL    HW188724   3.168  12.369   1.685
95609SOL    HW288725   3.117  12.512   1.690
95610SOL     OW88726   6.942   3.477   7.513
95610SOL    HW188727   6.853   3.463   7.545
95610SOL    HW288728   6.931   3.519   7.428
95611SOL     OW88729  12.043   3.838   9.630
95611SOL    HW188730  11.952   3.854   9.605
95611SOL    HW288731  12.074   3.774   9.566
95612SOL     OW88732  13.465   9.719   0.929
95612SOL    HW188733  13.440   9.656   0.997
95612SOL    HW288734  13.523   9.781   0.973
95613SOL     OW88735   2.625   6.693   4.516
95613SOL    HW188736   2.569   6.662   4.445
95613SOL    HW288737   2.638   6.616   4.572
95614SOL     OW88738  10.302   9.355  12.081
95614SOL    HW188739  10.351   9.273  12.070
95614SOL    HW288740  10.364   9.415  12.121
95615SOL     OW88741   8.995  13.929   8.123
95615SOL    HW188742   8.903  13.903   8.116
95615SOL    HW288743   9.029  13.878   8.197
95616SOL     OW88744  12.930   8.867   5.564
95616SOL    HW188745  13.005   8.903   5.517
95616SOL    HW288746  12.932   8.911   5.649
95617SOL     OW88747  14.628   0.178  13.781
95617SOL    HW188748  14.714   0.143  13.805
95617SOL    HW288749  14.631   0.187  13.686
95618SOL     OW88750  13.350  14.763   8.550
95618SOL    HW188751  13.262  14.725   8.543
95618SOL    HW288752  13.343  14.827   8.620
95619SOL     OW88753   5.645   5.888   8.497
95619SOL    HW188754   5.621   5.930   8.414
95619SOL    HW288755   5.741   5.894   8.500
95620SOL     OW88756   3.566  12.331   8.882
95620SOL    HW188757   3.585  12.247   8.841
95620SOL    HW288758   3.652  12.365   8.908
95621SOL     OW88759   0.888   8.928   7.187
95621SOL    HW188760   0.873   8.877   7.108
95621SOL    HW288761   0.975   8.901   7.217
95622SOL     OW88762   8.125   1.368   0.806
95622SOL    HW188763   8.191   1.438   0.813
95622SOL    HW288764   8.133   1.337   0.716
95623SOL     OW88765  13.507   6.127  13.453
95623SOL    HW188766  13.438   6.116  13.387
95623SOL    HW288767  13.473   6.194  13.512
95624SOL     OW88768   4.947   5.962  11.810
95624SOL    HW188769   5.034   5.995  11.789
95624SOL    HW288770   4.893   6.041  11.815
95625SOL     OW88771  13.153  10.569  12.132
95625SOL    HW188772  13.226  10.508  12.121
95625SOL    HW288773  13.075  10.516  12.119
95626SOL     OW88774   6.471   7.722   4.061
95626SOL    HW188775   6.529   7.685   4.128
95626SOL    HW288776   6.421   7.647   4.029
95627SOL     OW88777  10.518   0.681   9.760
95627SOL    HW188778  10.560   0.744   9.818
95627SOL    HW288779  10.552   0.596   9.788
95628SOL     OW88780  11.009   0.911   4.627
95628SOL    HW188781  11.075   0.865   4.679
95628SOL    HW288782  11.041   0.906   4.537
95629SOL     OW88783  10.444  14.323   1.921
95629SOL    HW188784  10.467  14.230   1.922
95629SOL    HW288785  10.402  14.338   2.005
95630SOL     OW88786   1.139  11.148   9.432
95630SOL    HW188787   1.098  11.061   9.433
95630SOL    HW288788   1.179  11.154   9.345
95631SOL     OW88789   9.892  13.475   2.377
95631SOL    HW188790   9.888  13.543   2.444
95631SOL    HW288791   9.893  13.393   2.426
95632SOL     OW88792   2.239  13.576   0.909
95632SOL    HW188793   2.201  13.550   0.825
95632SOL    HW288794   2.290  13.655   0.888
95633SOL     OW88795   7.048  13.085   2.482
95633SOL    HW188796   6.993  13.007   2.472
95633SOL    HW288797   6.985  13.157   2.486
95634SOL     OW88798   1.282   9.520   4.628
95634SOL    HW188799   1.257   9.476   4.547
95634SOL    HW288800   1.240   9.468   4.697
95635SOL     OW88801   0.509   3.642   5.674
95635SOL    HW188802   0.592   3.671   5.636
95635SOL    HW288803   0.492   3.705   5.744
95636SOL     OW88804  13.246   7.716  13.836
95636SOL    HW188805  13.169   7.687  13.787
95636SOL    HW288806  13.295   7.770  13.773
95637SOL     OW88807  11.963   8.082   1.683
95637SOL    HW188808  11.960   8.112   1.773
95637SOL    HW288809  12.056   8.066   1.665
95638SOL     OW88810   7.714   2.094  12.176
95638SOL    HW188811   7.644   2.059  12.121
95638SOL    HW288812   7.771   2.019  12.191
95639SOL     OW88813  13.923   5.799   0.781
95639SOL    HW188814  14.013   5.769   0.766
95639SOL    HW288815  13.871   5.749   0.717
95640SOL     OW88816   6.763   2.664   7.895
95640SOL    HW188817   6.696   2.598   7.915
95640SOL    HW288818   6.841   2.613   7.872
95641SOL     OW88819   9.287   5.069  12.594
95641SOL    HW188820   9.255   5.079  12.505
95641SOL    HW288821   9.379   5.093  12.590
95642SOL     OW88822   3.182   3.555   6.749
95642SOL    HW188823   3.275   3.578   6.749
95642SOL    HW288824   3.152   3.576   6.838
95643SOL     OW88825   0.249  14.186   1.563
95643SOL    HW188826   0.303  14.264   1.571
95643SOL    HW288827   0.310  14.116   1.541
95644SOL     OW88828   7.129   9.794  10.702
95644SOL    HW188829   7.038   9.805  10.730
95644SOL    HW288830   7.124   9.743  10.622
95645SOL     OW88831  14.009   2.358   7.413
95645SOL    HW188832  14.045   2.445   7.430
95645SOL    HW288833  14.082   2.298   7.427
95646SOL     OW88834   0.226  11.493   7.638
95646SOL    HW188835   0.318  11.483   7.615
95646SOL    HW288836   0.190  11.405   7.637
95647SOL     OW88837   1.869  10.725   4.339
95647SOL    HW188838   1.815  10.675   4.400
95647SOL    HW288839   1.958  10.716   4.373
95648SOL     OW88840  11.239  12.793   8.560
95648SOL    HW188841  11.322  12.800   8.512
95648SOL    HW288842  11.190  12.727   8.512
95649SOL     OW88843   2.409   7.678   0.561
95649SOL    HW188844   2.356   7.598   0.563
95649SOL    HW288845   2.415   7.701   0.468
95650SOL     OW88846  13.506   1.138   4.181
95650SOL    HW188847  13.507   1.049   4.217
95650SOL    HW288848  13.466   1.128   4.094
95651SOL     OW88849   6.338   6.231   7.889
95651SOL    HW188850   6.335   6.185   7.805
95651SOL    HW288851   6.247   6.231   7.919
95652SOL     OW88852   2.727   5.530  10.505
95652SOL    HW188853   2.749   5.483  10.585
95652SOL    HW288854   2.680   5.467  10.452
95653SOL     OW88855   7.590  14.555  12.262
95653SOL    HW188856   7.634  14.485  12.214
95653SOL    HW288857   7.661  14.614  12.289
95654SOL     OW88858  11.890  12.163   3.939
95654SOL    HW188859  11.927  12.082   3.974
95654SOL    HW288860  11.948  12.187   3.867
95655SOL     OW88861   2.668   8.115   5.675
95655SOL    HW188862   2.660   8.210   5.671
95655SOL    HW288863   2.716   8.098   5.756
95656SOL     OW88864   9.639  12.029  13.299
95656SOL    HW188865   9.629  11.963  13.231
95656SOL    HW288866   9.727  12.014  13.335
95657SOL     OW88867   9.350   5.500  10.808
95657SOL    HW188868   9.336   5.510  10.714
95657SOL    HW288869   9.274   5.542  10.848
95658SOL     OW88870   7.732   6.041   1.921
95658SOL    HW188871   7.785   6.019   1.998
95658SOL    HW288872   7.659   5.979   1.925
95659SOL     OW88873   5.866   4.604   7.298
95659SOL    HW188874   5.921   4.554   7.359
95659SOL    HW288875   5.915   4.685   7.283
95660SOL     OW88876   3.131  14.088   7.825
95660SOL    HW188877   3.046  14.124   7.849
95660SOL    HW288878   3.127  14.078   7.730
95661SOL     OW88879   0.447   8.839  12.847
95661SOL    HW188880   0.421   8.830  12.938
95661SOL    HW288881   0.445   8.750  12.812
95662SOL     OW88882  12.273   8.550   1.959
95662SOL    HW188883  12.262   8.461   1.926
95662SOL    HW288884  12.294   8.602   1.881
95663SOL     OW88885   7.621   3.314  14.394
95663SOL    HW188886   7.644   3.221  14.390
95663SOL    HW288887   7.692   3.355  14.443
95664SOL     OW88888   1.129   0.637   1.934
95664SOL    HW188889   1.093   0.676   2.014
95664SOL    HW288890   1.128   0.543   1.951
95665SOL     OW88891   9.415  13.023   2.730
95665SOL    HW188892   9.325  13.013   2.759
95665SOL    HW288893   9.416  13.107   2.684
95666SOL     OW88894   4.362   7.842  12.676
95666SOL    HW188895   4.403   7.810  12.756
95666SOL    HW288896   4.432   7.886  12.629
95667SOL     OW88897  13.653  12.755   1.561
95667SOL    HW188898  13.621  12.772   1.472
95667SOL    HW288899  13.702  12.673   1.554
95668SOL     OW88900   1.275   3.147   0.230
95668SOL    HW188901   1.230   3.181   0.153
95668SOL    HW288902   1.247   3.055   0.236
95669SOL     OW88903  12.564   2.471   4.859
95669SOL    HW188904  12.638   2.471   4.918
95669SOL    HW288905  12.595   2.424   4.781
95670SOL     OW88906   1.086   7.895   8.162
95670SOL    HW188907   1.161   7.952   8.178
95670SOL    HW288908   1.117   7.807   8.186
95671SOL     OW88909   6.345   2.456  13.723
95671SOL    HW188910   6.288   2.448  13.799
95671SOL    HW288911   6.422   2.502  13.755
95672SOL     OW88912   7.008  10.541   7.941
95672SOL    HW188913   7.047  10.626   7.961
95672SOL    HW288914   6.950  10.523   8.016
95673SOL     OW88915   9.421   0.565   7.954
95673SOL    HW188916   9.400   0.513   8.032
95673SOL    HW288917   9.516   0.561   7.948
95674SOL     OW88918   3.595   9.952  12.340
95674SOL    HW188919   3.608  10.033  12.290
95674SOL    HW288920   3.528   9.905  12.290
95675SOL     OW88921   1.168   8.654   3.208
95675SOL    HW188922   1.216   8.710   3.147
95675SOL    HW288923   1.081   8.694   3.214
95676SOL     OW88924   5.543   8.719  13.800
95676SOL    HW188925   5.457   8.759  13.803
95676SOL    HW288926   5.555   8.694  13.708
95677SOL     OW88927  11.753   0.648  10.587
95677SOL    HW188928  11.751   0.710  10.660
95677SOL    HW288929  11.752   0.562  10.628
95678SOL     OW88930   7.619  14.367   6.748
95678SOL    HW188931   7.706  14.386   6.713
95678SOL    HW288932   7.608  14.273   6.735
95679SOL     OW88933   6.919  10.647   8.496
95679SOL    HW188934   6.838  10.596   8.497
95679SOL    HW288935   6.891  10.738   8.505
95680SOL     OW88936   3.182  12.980   9.495
95680SOL    HW188937   3.235  12.930   9.432
95680SOL    HW288938   3.244  13.040   9.537
95681SOL     OW88939  13.354   5.119   6.689
95681SOL    HW188940  13.364   5.177   6.765
95681SOL    HW288941  13.303   5.169   6.626
95682SOL     OW88942  11.312   2.759   2.696
95682SOL    HW188943  11.267   2.782   2.778
95682SOL    HW288944  11.370   2.687   2.720
95683SOL     OW88945   8.093   3.424   2.421
95683SOL    HW188946   8.173   3.434   2.471
95683SOL    HW288947   8.082   3.508   2.376
95684SOL     OW88948  14.788   2.969  14.702
95684SOL    HW188949  14.820   2.997  14.788
95684SOL    HW288950  14.830   3.028  14.640
95685SOL     OW88951  13.222   3.655   9.712
95685SOL    HW188952  13.286   3.659   9.784
95685SOL    HW288953  13.192   3.564   9.712
95686SOL     OW88954  13.792   2.498  12.544
95686SOL    HW188955  13.883   2.523  12.556
95686SOL    HW288956  13.781   2.420  12.599
95687SOL     OW88957   1.660  13.911   4.665
95687SOL    HW188958   1.657  13.966   4.587
95687SOL    HW288959   1.684  13.972   4.735
95688SOL     OW88960   1.733  11.580  13.549
95688SOL    HW188961   1.673  11.628  13.492
95688SOL    HW288962   1.760  11.505  13.496
95689SOL     OW88963   3.608   0.084  12.366
95689SOL    HW188964   3.642   0.070  12.454
95689SOL    HW288965   3.655   0.020  12.312
95690SOL     OW88966   0.469   0.363   4.429
95690SOL    HW188967   0.417   0.311   4.490
95690SOL    HW288968   0.444   0.454   4.447
95691SOL     OW88969  13.472  13.112   4.724
95691SOL    HW188970  13.526  13.044   4.764
95691SOL    HW288971  13.486  13.190   4.778
95692SOL     OW88972  10.172   8.254   3.375
95692SOL    HW188973  10.156   8.201   3.453
95692SOL    HW288974  10.085   8.266   3.337
95693SOL     OW88975   1.759   4.778  13.776
95693SOL    HW188976   1.781   4.772  13.869
95693SOL    HW288977   1.832   4.735  13.732
95694SOL     OW88978   8.599   8.818   0.759
95694SOL    HW188979   8.657   8.750   0.725
95694SOL    HW288980   8.652   8.864   0.824
95695SOL     OW88981   4.413   5.495   5.666
95695SOL    HW188982   4.449   5.544   5.741
95695SOL    HW288983   4.455   5.409   5.671
95696SOL     OW88984  14.827  11.514   2.827
95696SOL    HW188985   0.002  11.494   2.745
95696SOL    HW288986  14.743  11.551   2.801
95697SOL     OW88987  12.015  13.727  12.074
95697SOL    HW188988  11.977  13.686  11.996
95697SOL    HW288989  12.048  13.811  12.043
95698SOL     OW88990  12.662   5.828   1.919
95698SOL    HW188991  12.580   5.876   1.929
95698SOL    HW288992  12.636   5.735   1.925
95699SOL     OW88993  14.229   0.578   4.428
95699SOL    HW188994  14.139   0.602   4.406
95699SOL    HW288995  14.259   0.648   4.486
95700SOL     OW88996  10.790   6.800  10.848
95700SOL    HW188997  10.715   6.780  10.792
95700SOL    HW288998  10.767   6.761  10.933
95701SOL     OW88999   6.027   9.672  10.501
95701SOL    HW189000   6.058   9.617  10.429
95701SOL    HW289001   5.940   9.637  10.523
95702SOL     OW89002   0.709   6.391  13.312
95702SOL    HW189003   0.792   6.376  13.355
95702SOL    HW289004   0.718   6.349  13.226
95703SOL     OW89005   6.757  13.062  11.165
95703SOL    HW189006   6.725  13.037  11.252
95703SOL    HW289007   6.848  13.085  11.179
95704SOL     OW89008   1.365   6.121   8.292
95704SOL    HW189009   1.286   6.076   8.322
95704SOL    HW289010   1.433   6.090   8.351
95705SOL     OW89011   9.972  14.116  14.330
95705SOL    HW189012   9.990  14.023  14.344
95705SOL    HW289013   9.888  14.117  14.285
95706SOL     OW89014   4.368   8.352   3.330
95706SOL    HW189015   4.312   8.283   3.367
95706SOL    HW289016   4.453   8.309   3.319
95707SOL     OW89017   5.549   2.587  12.829
95707SOL    HW189018   5.540   2.534  12.908
95707SOL    HW289019   5.516   2.530  12.759
95708SOL     OW89020   0.403   4.883   3.625
95708SOL    HW189021   0.397   4.841   3.711
95708SOL    HW289022   0.491   4.861   3.594
95709SOL     OW89023  12.442  14.659  10.634
95709SOL    HW189024  12.521  14.705  10.605
95709SOL    HW289025  12.448  14.573  10.592
95710SOL     OW89026  13.947   0.136  10.796
95710SOL    HW189027  14.004   0.094  10.731
95710SOL    HW289028  13.900   0.203  10.746
95711SOL     OW89029  10.110   8.459  11.238
95711SOL    HW189030  10.046   8.514  11.193
95711SOL    HW289031  10.194   8.482  11.198
95712SOL     OW89032   6.735   7.006   6.799
95712SOL    HW189033   6.726   6.994   6.893
95712SOL    HW289034   6.650   7.040   6.771
95713SOL     OW89035   4.094   8.054  13.881
95713SOL    HW189036   4.067   8.145  13.869
95713SOL    HW289037   4.175   8.046  13.830
95714SOL     OW89038   4.988  11.205   3.215
95714SOL    HW189039   4.930  11.214   3.290
95714SOL    HW289040   4.984  11.290   3.171
95715SOL     OW89041  13.161   6.324   7.120
95715SOL    HW189042  13.092   6.332   7.186
95715SOL    HW289043  13.217   6.253   7.152
95716SOL     OW89044   0.200   4.085   0.097
95716SOL    HW189045   0.137   4.148   0.062
95716SOL    HW289046   0.201   4.103   0.192
95717SOL     OW89047  13.015   4.187   1.933
95717SOL    HW189048  12.936   4.137   1.911
95717SOL    HW289049  13.045   4.149   2.015
95718SOL     OW89050  13.174  13.848  14.200
95718SOL    HW189051  13.100  13.843  14.140
95718SOL    HW289052  13.168  13.936  14.237
95719SOL     OW89053   5.346  10.872   3.104
95719SOL    HW189054   5.315  10.954   3.143
95719SOL    HW289055   5.439  10.869   3.126
95720SOL     OW89056   8.604   6.347  14.661
95720SOL    HW189057   8.671   6.279  14.654
95720SOL    HW289058   8.645   6.425  14.624
95721SOL     OW89059  12.131  12.209   9.265
95721SOL    HW189060  12.117  12.143   9.197
95721SOL    HW289061  12.043  12.230   9.296
95722SOL     OW89062   8.613  14.019   0.223
95722SOL    HW189063   8.618  14.067   0.306
95722SOL    HW289064   8.553  14.070   0.169
95723SOL     OW89065   5.093   5.680  12.599
95723SOL    HW189066   5.023   5.708  12.658
95723SOL    HW289067   5.157   5.637  12.656
95724SOL     OW89068   9.541  14.000  11.378
95724SOL    HW189069   9.513  14.074  11.325
95724SOL    HW289070   9.460  13.953  11.398
95725SOL     OW89071   5.721   1.159  11.807
95725SOL    HW189072   5.639   1.190  11.770
95725SOL    HW289073   5.719   1.188  11.899
95726SOL     OW89074   2.375   9.004   6.134
95726SOL    HW189075   2.434   9.059   6.083
95726SOL    HW289076   2.352   9.057   6.210
95727SOL     OW89077   4.538  13.489   3.536
95727SOL    HW189078   4.524  13.403   3.497
95727SOL    HW289079   4.574  13.470   3.623
95728SOL     OW89080   9.239  10.548   4.375
95728SOL    HW189081   9.169  10.608   4.348
95728SOL    HW289082   9.311  10.605   4.400
95729SOL     OW89083  11.233  13.561  12.276
95729SOL    HW189084  11.280  13.542  12.195
95729SOL    HW289085  11.159  13.500  12.276
95730SOL     OW89086   7.154   0.732  12.758
95730SOL    HW189087   7.085   0.748  12.695
95730SOL    HW289088   7.109   0.712  12.840
95731SOL     OW89089  10.820   7.762   6.043
95731SOL    HW189090  10.758   7.702   6.001
95731SOL    HW289091  10.832   7.833   5.980
95732SOL     OW89092   8.720  13.125   3.669
95732SOL    HW189093   8.648  13.186   3.688
95732SOL    HW289094   8.779  13.174   3.612
95733SOL     OW89095  14.686   9.933  14.274
95733SOL    HW189096  14.650  10.021  14.261
95733SOL    HW289097  14.624   9.891  14.334
95734SOL     OW89098   1.428   8.432  10.253
95734SOL    HW189099   1.338   8.465  10.248
95734SOL    HW289100   1.419   8.344  10.288
95735SOL     OW89101   7.337   8.090   9.253
95735SOL    HW189102   7.408   8.148   9.226
95735SOL    HW289103   7.260   8.147   9.255
95736SOL     OW89104   1.456   1.276  14.773
95736SOL    HW189105   1.550   1.260  14.776
95736SOL    HW289106   1.417   1.198  14.812
95737SOL     OW89107   1.771  13.793   5.425
95737SOL    HW189108   1.777  13.839   5.509
95737SOL    HW289109   1.792  13.859   5.359
95738SOL     OW89110   2.901   8.325  10.040
95738SOL    HW189111   2.883   8.251   9.983
95738SOL    HW289112   2.990   8.309  10.073
95739SOL     OW89113  14.260   4.913   2.081
95739SOL    HW189114  14.187   4.953   2.034
95739SOL    HW289115  14.236   4.922   2.174
95740SOL     OW89116  14.687   7.363   1.616
95740SOL    HW189117  14.677   7.358   1.521
95740SOL    HW289118  14.635   7.439   1.642
95741SOL     OW89119   0.566  11.657  10.696
95741SOL    HW189120   0.639  11.602  10.725
95741SOL    HW289121   0.603  11.713  10.628
95742SOL     OW89122   8.251  11.969  11.897
95742SOL    HW189123   8.172  11.954  11.845
95742SOL    HW289124   8.292  11.883  11.904
95743SOL     OW89125  12.327   4.598  10.024
95743SOL    HW189126  12.270   4.670   9.996
95743SOL    HW289127  12.270   4.521  10.023
95744SOL     OW89128  11.108   1.117  11.808
95744SOL    HW189129  11.189   1.147  11.849
95744SOL    HW289130  11.115   1.144  11.717
95745SOL     OW89131  14.205   7.418   8.199
95745SOL    HW189132  14.130   7.377   8.155
95745SOL    HW289133  14.166   7.473   8.267
95746SOL     OW89134   3.702  10.233   9.689
95746SOL    HW189135   3.734  10.171   9.755
95746SOL    HW289136   3.693  10.316   9.736
95747SOL     OW89137   0.596   4.195  10.240
95747SOL    HW189138   0.578   4.286  10.261
95747SOL    HW289139   0.622   4.156  10.324
95748SOL     OW89140   9.557   6.663   7.169
95748SOL    HW189141   9.643   6.627   7.186
95748SOL    HW289142   9.566   6.757   7.183
95749SOL     OW89143   3.778   5.196   4.528
95749SOL    HW189144   3.827   5.278   4.526
95749SOL    HW289145   3.753   5.181   4.437
95750SOL     OW89146   9.987  11.533   6.145
95750SOL    HW189147  10.004  11.601   6.080
95750SOL    HW289148   9.968  11.582   6.226
95751SOL     OW89149  11.690   1.685   7.529
95751SOL    HW189150  11.721   1.617   7.589
95751SOL    HW289151  11.663   1.638   7.451
95752SOL     OW89152  13.954   9.230   9.380
95752SOL    HW189153  13.878   9.222   9.323
95752SOL    HW289154  13.919   9.216   9.469
95753SOL     OW89155   7.754   6.558   5.372
95753SOL    HW189156   7.694   6.614   5.322
95753SOL    HW289157   7.841   6.585   5.342
95754SOL     OW89158  12.857   8.297   8.579
95754SOL    HW189159  12.884   8.340   8.660
95754SOL    HW289160  12.935   8.301   8.523
95755SOL     OW89161   7.760   8.264   4.431
95755SOL    HW189162   7.687   8.270   4.493
95755SOL    HW289163   7.786   8.172   4.435
95756SOL     OW89164   8.991   7.788   0.284
95756SOL    HW189165   9.011   7.722   0.350
95756SOL    HW289166   9.001   7.871   0.329
95757SOL     OW89167   8.382   9.878   7.409
95757SOL    HW189168   8.449   9.810   7.415
95757SOL    HW289169   8.310   9.845   7.463
95758SOL     OW89170   3.354   5.554   0.385
95758SOL    HW189171   3.386   5.577   0.472
95758SOL    HW289172   3.429   5.516   0.341
95759SOL     OW89173   4.028   5.240  11.880
95759SOL    HW189174   3.953   5.191  11.914
95759SOL    HW289175   4.094   5.232  11.948
95760SOL     OW89176   8.733   8.518  12.060
95760SOL    HW189177   8.791   8.555  12.126
95760SOL    HW289178   8.782   8.524  11.978
95761SOL     OW89179   4.433   4.776  10.670
95761SOL    HW189180   4.459   4.853  10.720
95761SOL    HW289181   4.494   4.707  10.698
95762SOL     OW89182  11.437   5.498   7.189
95762SOL    HW189183  11.508   5.529   7.134
95762SOL    HW289184  11.366   5.477   7.128
95763SOL     OW89185   6.616   3.754  11.331
95763SOL    HW189186   6.583   3.782  11.245
95763SOL    HW289187   6.554   3.790  11.394
95764SOL     OW89188  13.814  10.017   8.111
95764SOL    HW189189  13.759  10.024   8.189
95764SOL    HW289190  13.761  10.052   8.040
95765SOL     OW89191   0.517  12.877  13.714
95765SOL    HW189192   0.597  12.859  13.764
95765SOL    HW289193   0.448  12.831  13.761
95766SOL     OW89194   6.217   1.334   2.258
95766SOL    HW189195   6.271   1.396   2.209
95766SOL    HW289196   6.158   1.297   2.192
95767SOL     OW89197   7.766   7.195   1.388
95767SOL    HW189198   7.752   7.252   1.464
95767SOL    HW289199   7.698   7.221   1.326
95768SOL     OW89200  14.653   6.462   6.157
95768SOL    HW189201  14.677   6.369   6.155
95768SOL    HW289202  14.640   6.486   6.066
95769SOL     OW89203   5.075  11.853   1.439
95769SOL    HW189204   5.057  11.861   1.346
95769SOL    HW289205   5.165  11.820   1.443
95770SOL     OW89206   7.692   7.027  11.620
95770SOL    HW189207   7.710   6.986  11.535
95770SOL    HW289208   7.625   7.092  11.601
95771SOL     OW89209  13.854  10.455  10.200
95771SOL    HW189210  13.774  10.507  10.207
95771SOL    HW289211  13.925  10.518  10.220
95772SOL     OW89212  14.534   3.667  14.360
95772SOL    HW189213  14.539   3.754  14.400
95772SOL    HW289214  14.451   3.631  14.390
95773SOL     OW89215   1.328   7.613   0.757
95773SOL    HW189216   1.279   7.653   0.685
95773SOL    HW289217   1.339   7.522   0.731
95774SOL     OW89218   6.949   3.084  12.837
95774SOL    HW189219   6.915   3.148  12.774
95774SOL    HW289220   6.886   3.011  12.833
95775SOL     OW89221   1.364  11.650   1.837
95775SOL    HW189222   1.309  11.679   1.764
95775SOL    HW289223   1.318  11.681   1.915
95776SOL     OW89224  11.856  13.258   1.740
95776SOL    HW189225  11.903  13.225   1.817
95776SOL    HW289226  11.893  13.208   1.667
95777SOL     OW89227   0.905  11.520  13.062
95777SOL    HW189228   0.977  11.566  13.019
95777SOL    HW289229   0.840  11.588  13.079
95778SOL     OW89230   0.221   9.316  11.835
95778SOL    HW189231   0.178   9.303  11.919
95778SOL    HW289232   0.150   9.341  11.775
95779SOL     OW89233   3.414  11.492   8.741
95779SOL    HW189234   3.460  11.424   8.791
95779SOL    HW289235   3.370  11.444   8.671
95780SOL     OW89236   3.736   9.877  13.834
95780SOL    HW189237   3.766   9.849  13.920
95780SOL    HW289238   3.808   9.856  13.775
95781SOL     OW89239   2.705   0.866   1.324
95781SOL    HW189240   2.752   0.783   1.316
95781SOL    HW289241   2.675   0.869   1.415
95782SOL     OW89242   1.184  13.899   9.341
95782SOL    HW189243   1.226  13.894   9.427
95782SOL    HW289244   1.106  13.845   9.349
95783SOL     OW89245   3.633   3.932  10.178
95783SOL    HW189246   3.633   3.838  10.192
95783SOL    HW289247   3.718   3.950  10.138
95784SOL     OW89248   6.041  10.433   4.210
95784SOL    HW189249   6.058  10.396   4.123
95784SOL    HW289250   6.115  10.404   4.263
95785SOL     OW89251   2.610  11.876   0.501
95785SOL    HW189252   2.635  11.785   0.518
95785SOL    HW289253   2.546  11.897   0.570
95786SOL     OW89254   7.283   2.839   7.708
95786SOL    HW189255   7.360   2.783   7.697
95786SOL    HW289256   7.254   2.857   7.619
95787SOL     OW89257   9.247   8.863  14.675
95787SOL    HW189258   9.335   8.885  14.646
95787SOL    HW289259   9.232   8.920  14.751
95788SOL     OW89260   1.745   1.088  14.541
95788SOL    HW189261   1.725   1.075  14.449
95788SOL    HW289262   1.838   1.066  14.549
95789SOL     OW89263   4.986  12.746  10.286
95789SOL    HW189264   4.971  12.715  10.375
95789SOL    HW289265   4.940  12.830  10.281
95790SOL     OW89266   7.648  11.130  12.565
95790SOL    HW189267   7.577  11.109  12.625
95790SOL    HW289268   7.660  11.051  12.513
95791SOL     OW89269   9.353  12.419   9.037
95791SOL    HW189270   9.438  12.457   9.015
95791SOL    HW289271   9.290  12.477   8.995
95792SOL     OW89272   9.290  14.740   4.630
95792SOL    HW189273   9.288  14.644   4.627
95792SOL    HW289274   9.299  14.761   4.722
95793SOL     OW89275   5.462   4.160  12.398
95793SOL    HW189276   5.420   4.156  12.312
95793SOL    HW289277   5.520   4.083  12.399
95794SOL     OW89278   9.201   7.277   5.627
95794SOL    HW189279   9.142   7.215   5.671
95794SOL    HW289280   9.232   7.230   5.550
95795SOL     OW89281   1.178   7.462   9.141
95795SOL    HW189282   1.168   7.450   9.235
95795SOL    HW289283   1.272   7.478   9.129
95796SOL     OW89284  13.897   4.487   6.136
95796SOL    HW189285  13.829   4.552   6.119
95796SOL    HW289286  13.972   4.539   6.165
95797SOL     OW89287   1.391   1.358   8.407
95797SOL    HW189288   1.453   1.427   8.381
95797SOL    HW289289   1.333   1.400   8.470
95798SOL     OW89290   6.280   3.515   3.821
95798SOL    HW189291   6.334   3.592   3.805
95798SOL    HW289292   6.224   3.509   3.744
95799SOL     OW89293   6.538   0.612   8.555
95799SOL    HW189294   6.533   0.632   8.648
95799SOL    HW289295   6.542   0.517   8.551
95800SOL     OW89296   2.872   9.069   6.742
95800SOL    HW189297   2.867   9.163   6.725
95800SOL    HW289298   2.784   9.045   6.771
95801SOL     OW89299   6.633  12.830   7.379
95801SOL    HW189300   6.645  12.792   7.467
95801SOL    HW289301   6.702  12.790   7.326
95802SOL     OW89302   9.558  11.092   4.015
95802SOL    HW189303   9.616  11.098   3.939
95802SOL    HW289304   9.617  11.097   4.090
95803SOL     OW89305  10.929   1.595   0.970
95803SOL    HW189306  10.986   1.608   1.046
95803SOL    HW289307  10.846   1.637   0.995
95804SOL     OW89308  11.721  13.544   8.598
95804SOL    HW189309  11.686  13.605   8.533
95804SOL    HW289310  11.810  13.525   8.568
95805SOL     OW89311  12.372   8.337   5.822
95805SOL    HW189312  12.421   8.418   5.811
95805SOL    HW289313  12.280   8.363   5.813
95806SOL     OW89314  11.290  10.952   5.995
95806SOL    HW189315  11.261  11.008   6.068
95806SOL    HW289316  11.358  11.004   5.951
95807SOL     OW89317   6.066  13.197  12.393
95807SOL    HW189318   5.977  13.225  12.413
95807SOL    HW289319   6.056  13.128  12.327
95808SOL     OW89320   2.052  13.206   1.812
95808SOL    HW189321   1.965  13.183   1.847
95808SOL    HW289322   2.108  13.133   1.839
95809SOL     OW89323   4.321   3.454   6.736
95809SOL    HW189324   4.239   3.494   6.706
95809SOL    HW289325   4.370   3.527   6.773
95810SOL     OW89326  13.054  11.826   7.627
95810SOL    HW189327  13.012  11.741   7.615
95810SOL    HW289328  13.125  11.810   7.690
95811SOL     OW89329   5.807   5.692   3.147
95811SOL    HW189330   5.855   5.661   3.071
95811SOL    HW289331   5.857   5.661   3.222
95812SOL     OW89332   5.682  10.173   5.878
95812SOL    HW189333   5.775  10.192   5.890
95812SOL    HW289334   5.657  10.223   5.801
95813SOL     OW89335   8.320   1.252   5.362
95813SOL    HW189336   8.250   1.297   5.409
95813SOL    HW289337   8.358   1.192   5.426
95814SOL     OW89338  11.797  11.732   5.437
95814SOL    HW189339  11.777  11.823   5.415
95814SOL    HW289340  11.821  11.691   5.354
95815SOL     OW89341  10.563   1.472   7.266
95815SOL    HW189342  10.549   1.438   7.178
95815SOL    HW289343  10.591   1.396   7.317
95816SOL     OW89344   3.764  13.610   0.241
95816SOL    HW189345   3.859  13.599   0.238
95816SOL    HW289346   3.743  13.654   0.158
95817SOL     OW89347  11.033  14.713   1.251
95817SOL    HW189348  11.103  14.758   1.299
95817SOL    HW289349  10.952  14.743   1.291
95818SOL     OW89350   3.012   2.651  13.395
95818SOL    HW189351   2.995   2.600  13.316
95818SOL    HW289352   2.949   2.723  13.391
95819SOL     OW89353   8.730  10.067   9.164
95819SOL    HW189354   8.646  10.110   9.147
95819SOL    HW289355   8.712   9.974   9.156
95820SOL     OW89356  10.717   1.831   2.180
95820SOL    HW189357  10.713   1.895   2.251
95820SOL    HW289358  10.633   1.785   2.184
95821SOL     OW89359   4.021   0.701   8.004
95821SOL    HW189360   4.046   0.622   7.957
95821SOL    HW289361   4.081   0.705   8.079
95822SOL     OW89362   9.061   6.565   9.179
95822SOL    HW189363   8.997   6.517   9.126
95822SOL    HW289364   9.071   6.512   9.258
95823SOL     OW89365   9.657   3.833   8.876
95823SOL    HW189366   9.727   3.898   8.877
95823SOL    HW289367   9.623   3.835   8.787
95824SOL     OW89368  12.691   3.333   1.074
95824SOL    HW189369  12.662   3.406   1.020
95824SOL    HW289370  12.679   3.256   1.018
95825SOL     OW89371   4.768   4.398   1.751
95825SOL    HW189372   4.814   4.386   1.834
95825SOL    HW289373   4.721   4.481   1.762
95826SOL     OW89374   4.773  12.848  12.654
95826SOL    HW189375   4.765  12.783  12.724
95826SOL    HW289376   4.693  12.839  12.603
95827SOL     OW89377   0.461  14.316   6.114
95827SOL    HW189378   0.481  14.375   6.186
95827SOL    HW289379   0.417  14.372   6.049
95828SOL     OW89380   5.874  10.649   9.235
95828SOL    HW189381   5.812  10.716   9.262
95828SOL    HW289382   5.954  10.698   9.214
95829SOL     OW89383  10.558   0.911   4.295
95829SOL    HW189384  10.486   0.968   4.270
95829SOL    HW289385  10.544   0.894   4.388
95830SOL     OW89386   0.668   3.648   8.287
95830SOL    HW189387   0.688   3.603   8.369
95830SOL    HW289388   0.604   3.715   8.312
95831SOL     OW89389   3.990  10.472   9.018
95831SOL    HW189390   3.927  10.405   9.045
95831SOL    HW289391   3.954  10.554   9.053
95832SOL     OW89392  13.395   5.117   2.453
95832SOL    HW189393  13.464   5.168   2.411
95832SOL    HW289394  13.332   5.182   2.485
95833SOL     OW89395  13.915  14.362   3.570
95833SOL    HW189396  13.885  14.421   3.640
95833SOL    HW289397  13.963  14.294   3.615
95834SOL     OW89398   8.436  12.245   5.395
95834SOL    HW189399   8.436  12.331   5.435
95834SOL    HW289400   8.350  12.208   5.416
95835SOL     OW89401  14.280  13.276   3.530
95835SOL    HW189402  14.247  13.340   3.467
95835SOL    HW289403  14.375  13.287   3.528
95836SOL     OW89404   5.308   3.780  14.416
95836SOL    HW189405   5.339   3.787  14.326
95836SOL    HW289406   5.268   3.693  14.421
95837SOL     OW89407   8.479   2.064  11.820
95837SOL    HW189408   8.455   2.154  11.842
95837SOL    HW289409   8.563   2.051  11.863
95838SOL     OW89410   7.927   0.901   4.189
95838SOL    HW189411   7.877   0.831   4.149
95838SOL    HW289412   7.957   0.955   4.116
95839SOL     OW89413  14.586   4.104  13.462
95839SOL    HW189414  14.668   4.107  13.413
95839SOL    HW289415  14.613   4.092  13.553
95840SOL     OW89416   0.727  10.733   1.236
95840SOL    HW189417   0.779  10.807   1.204
95840SOL    HW289418   0.725  10.672   1.162
95841SOL     OW89419   1.829   8.183   2.813
95841SOL    HW189420   1.918   8.209   2.789
95841SOL    HW289421   1.834   8.166   2.907
95842SOL     OW89422   2.596  11.583  12.803
95842SOL    HW189423   2.528  11.546  12.859
95842SOL    HW289424   2.652  11.509  12.780
95843SOL     OW89425  14.517  13.381  10.166
95843SOL    HW189426  14.506  13.470  10.200
95843SOL    HW289427  14.431  13.360  10.128
95844SOL     OW89428   0.720  10.516   5.515
95844SOL    HW189429   0.672  10.534   5.434
95844SOL    HW289430   0.764  10.433   5.499
95845SOL     OW89431  11.401   8.899  11.246
95845SOL    HW189432  11.311   8.887  11.216
95845SOL    HW289433  11.420   8.820  11.296
95846SOL     OW89434   7.108  10.031   2.381
95846SOL    HW189435   7.185  10.028   2.324
95846SOL    HW289436   7.065  10.114   2.359
95847SOL     OW89437   9.337   7.637   2.402
95847SOL    HW189438   9.272   7.585   2.353
95847SOL    HW289439   9.417   7.586   2.396
95848SOL     OW89440   8.063  10.057   8.906
95848SOL    HW189441   8.042  10.120   8.837
95848SOL    HW289442   8.128   9.999   8.868
95849SOL     OW89443   1.502   7.862   7.790
95849SOL    HW189444   1.487   7.779   7.837
95849SOL    HW289445   1.583   7.847   7.741
95850SOL     OW89446   6.990   4.273  13.098
95850SOL    HW189447   6.953   4.224  13.025
95850SOL    HW289448   6.937   4.249  13.174
95851SOL     OW89449   0.037   8.216  13.728
95851SOL    HW189450   0.119   8.233  13.775
95851SOL    HW289451   0.029   8.120  13.728
95852SOL     OW89452  10.939   3.255   7.065
95852SOL    HW189453  10.947   3.207   7.147
95852SOL    HW289454  10.848   3.242   7.038
95853SOL     OW89455  14.418   4.755  14.752
95853SOL    HW189456  14.366   4.694  14.699
95853SOL    HW289457  14.509   4.737  14.726
95854SOL     OW89458   1.750  10.591   3.292
95854SOL    HW189459   1.821  10.543   3.251
95854SOL    HW289460   1.777  10.683   3.287
95855SOL     OW89461  12.663   0.134   2.147
95855SOL    HW189462  12.597   0.201   2.128
95855SOL    HW289463  12.613   0.052   2.151
95856SOL     OW89464  13.547   5.330   2.037
95856SOL    HW189465  13.587   5.400   1.986
95856SOL    HW289466  13.577   5.249   1.995
95857SOL     OW89467   9.356   6.689  11.930
95857SOL    HW189468   9.375   6.659  11.841
95857SOL    HW289469   9.329   6.780  11.919
95858SOL     OW89470   5.513  11.191   4.777
95858SOL    HW189471   5.437  11.137   4.797
95858SOL    HW289472   5.509  11.262   4.842
95859SOL     OW89473   6.243   9.952  14.608
95859SOL    HW189474   6.187   9.999  14.547
95859SOL    HW289475   6.319   9.927  14.556
95860SOL     OW89476   9.987   0.273   8.893
95860SOL    HW189477  10.038   0.212   8.946
95860SOL    HW289478   9.896   0.252   8.913
95861SOL     OW89479   3.207   1.696   6.823
95861SOL    HW189480   3.194   1.613   6.868
95861SOL    HW289481   3.293   1.688   6.782
95862SOL     OW89482   6.107   9.880   3.342
95862SOL    HW189483   6.019   9.866   3.377
95862SOL    HW289484   6.155   9.921   3.414
95863SOL     OW89485  13.438  11.353  10.624
95863SOL    HW189486  13.500  11.293  10.581
95863SOL    HW289487  13.494  11.421  10.662
95864SOL     OW89488   3.741   2.306   2.149
95864SOL    HW189489   3.754   2.356   2.230
95864SOL    HW289490   3.686   2.232   2.175
95865SOL     OW89491  10.285   9.067   7.648
95865SOL    HW189492  10.335   9.031   7.575
95865SOL    HW289493  10.232   9.136   7.608
95866SOL     OW89494   6.967  11.782  14.608
95866SOL    HW189495   7.049  11.789  14.559
95866SOL    HW289496   6.900  11.771  14.541
95867SOL     OW89497   6.377   0.966   8.784
95867SOL    HW189498   6.409   0.966   8.874
95867SOL    HW289499   6.452   0.993   8.732
95868SOL     OW89500   6.153   2.832   5.981
95868SOL    HW189501   6.192   2.840   6.068
95868SOL    HW289502   6.062   2.805   5.998
95869SOL     OW89503   4.961   5.921  10.167
95869SOL    HW189504   4.950   5.941  10.260
95869SOL    HW289505   4.954   6.007  10.124
95870SOL     OW89506  10.266  12.104   7.793
95870SOL    HW189507  10.221  12.130   7.712
95870SOL    HW289508  10.238  12.169   7.858
95871SOL     OW89509  11.307  13.584   2.040
95871SOL    HW189510  11.224  13.627   2.059
95871SOL    HW289511  11.305  13.567   1.946
95872SOL     OW89512   7.244  14.204  14.355
95872SOL    HW189513   7.217  14.205  14.263
95872SOL    HW289514   7.258  14.296  14.378
95873SOL     OW89515   4.376  10.341  14.398
95873SOL    HW189516   4.381  10.396  14.477
95873SOL    HW289517   4.297  10.289  14.410
95874SOL     OW89518   3.850   0.876   7.330
95874SOL    HW189519   3.806   0.960   7.320
95874SOL    HW289520   3.857   0.864   7.425
95875SOL     OW89521   9.547   0.164   2.470
95875SOL    HW189522   9.585   0.198   2.551
95875SOL    HW289523   9.622   0.128   2.422
95876SOL     OW89524   8.142  14.089   2.502
95876SOL    HW189525   8.153  14.134   2.418
95876SOL    HW289526   8.171  14.152   2.567
95877SOL     OW89527   8.247   0.411   3.349
95877SOL    HW189528   8.326   0.447   3.308
95877SOL    HW289529   8.176   0.466   3.316
95878SOL     OW89530   7.180   8.904   4.750
95878SOL    HW189531   7.186   8.845   4.825
95878SOL    HW289532   7.113   8.866   4.694
95879SOL     OW89533  12.828   7.285   1.005
95879SOL    HW189534  12.848   7.369   1.047
95879SOL    HW289535  12.732   7.279   1.010
95880SOL     OW89536   3.184   9.611   1.185
95880SOL    HW189537   3.274   9.581   1.175
95880SOL    HW289538   3.188   9.705   1.171
95881SOL     OW89539  12.951  13.753   3.286
95881SOL    HW189540  12.953  13.776   3.193
95881SOL    HW289541  13.022  13.804   3.325
95882SOL     OW89542   3.397  12.824  13.776
95882SOL    HW189543   3.363  12.888  13.839
95882SOL    HW289544   3.330  12.819  13.708
95883SOL     OW89545   8.425  11.224   1.038
95883SOL    HW189546   8.488  11.211   0.967
95883SOL    HW289547   8.350  11.169   1.014
95884SOL     OW89548  14.469   2.882   8.335
95884SOL    HW189549  14.515   2.958   8.301
95884SOL    HW289550  14.530   2.809   8.324
95885SOL     OW89551  14.630   8.900  11.514
95885SOL    HW189552  14.667   8.894  11.426
95885SOL    HW289553  14.620   8.994  11.530
95886SOL     OW89554  13.908   3.093  14.747
95886SOL    HW189555  13.999   3.072  14.769
95886SOL    HW289556  13.867   3.115  14.830
95887SOL     OW89557   7.224  10.869  12.174
95887SOL    HW189558   7.148  10.839  12.123
95887SOL    HW289559   7.242  10.797  12.234
95888SOL     OW89560   6.063   0.156   4.070
95888SOL    HW189561   5.975   0.137   4.036
95888SOL    HW289562   6.084   0.081   4.126
95889SOL     OW89563   7.382  12.901   5.124
95889SOL    HW189564   7.296  12.928   5.091
95889SOL    HW289565   7.365  12.866   5.212
95890SOL     OW89566  14.484   5.933   6.310
95890SOL    HW189567  14.454   6.016   6.349
95890SOL    HW289568  14.436   5.866   6.358
95891SOL     OW89569   0.106   4.693   1.463
95891SOL    HW189570   0.076   4.784   1.465
95891SOL    HW289571   0.202   4.700   1.458
95892SOL     OW89572   1.922  11.026  11.901
95892SOL    HW189573   1.938  10.932  11.892
95892SOL    HW289574   1.879  11.035  11.986
95893SOL     OW89575   9.225   2.480  10.288
95893SOL    HW189576   9.198   2.486  10.196
95893SOL    HW289577   9.222   2.386  10.308
95894SOL     OW89578   1.758  14.135   8.055
95894SOL    HW189579   1.810  14.080   8.114
95894SOL    HW289580   1.814  14.210   8.037
95895SOL     OW89581   6.890  10.993   6.391
95895SOL    HW189582   6.896  11.049   6.468
95895SOL    HW289583   6.842  11.045   6.327
95896SOL     OW89584   1.039   5.118   9.868
95896SOL    HW189585   1.055   5.140   9.776
95896SOL    HW289586   1.125   5.094   9.902
95897SOL     OW89587   0.639   3.753  10.073
95897SOL    HW189588   0.576   3.825  10.065
95897SOL    HW289589   0.589   3.675  10.053
95898SOL     OW89590   0.076  10.668  13.330
95898SOL    HW189591   0.135  10.715  13.389
95898SOL    HW289592  14.861  10.713  13.340
95899SOL     OW89593  13.318   3.811   1.300
95899SOL    HW189594  13.347   3.887   1.249
95899SOL    HW289595  13.234   3.787   1.261
95900SOL     OW89596   1.135   5.929   9.761
95900SOL    HW189597   1.141   5.901   9.669
95900SOL    HW289598   1.045   5.911   9.785
95901SOL     OW89599  14.108   3.572   7.754
95901SOL    HW189600  14.197   3.562   7.719
95901SOL    HW289601  14.098   3.666   7.769
95902SOL     OW89602   2.814  12.861   6.208
95902SOL    HW189603   2.802  12.776   6.250
95902SOL    HW289604   2.804  12.844   6.115
95903SOL     OW89605   6.585   7.196   7.420
95903SOL    HW189606   6.583   7.131   7.350
95903SOL    HW289607   6.509   7.175   7.475
95904SOL     OW89608   8.985   7.435   1.874
95904SOL    HW189609   9.008   7.344   1.856
95904SOL    HW289610   9.043   7.461   1.946
95905SOL     OW89611   9.300   1.047   8.479
95905SOL    HW189612   9.362   1.104   8.523
95905SOL    HW289613   9.220   1.101   8.472
95906SOL     OW89614   7.066   5.394  13.132
95906SOL    HW189615   7.049   5.485  13.108
95906SOL    HW289616   7.050   5.391  13.226
95907SOL     OW89617   9.488   9.987  10.212
95907SOL    HW189618   9.402   9.970  10.172
95907SOL    HW289619   9.467  10.024  10.298
95908SOL     OW89620   5.725   4.604  11.865
95908SOL    HW189621   5.679   4.656  11.931
95908SOL    HW289622   5.678   4.622  11.783
95909SOL     OW89623   8.171   6.080  12.970
95909SOL    HW189624   8.183   5.991  13.004
95909SOL    HW289625   8.198   6.137  13.042
95910SOL     OW89626   7.005  13.219   7.266
95910SOL    HW189627   7.064  13.190   7.335
95910SOL    HW289628   6.980  13.139   7.220
95911SOL     OW89629  13.734  13.452   6.179
95911SOL    HW189630  13.804  13.516   6.168
95911SOL    HW289631  13.779  13.370   6.201
95912SOL     OW89632   3.111  13.427   1.338
95912SOL    HW189633   3.132  13.449   1.247
95912SOL    HW289634   3.166  13.351   1.356
95913SOL     OW89635   2.819   2.826   5.556
95913SOL    HW189636   2.735   2.821   5.510
95913SOL    HW289637   2.804   2.889   5.626
95914SOL     OW89638   5.970   1.610   8.094
95914SOL    HW189639   6.016   1.680   8.140
95914SOL    HW289640   6.038   1.566   8.043
95915SOL     OW89641   9.780   1.494  10.543
95915SOL    HW189642   9.758   1.416  10.492
95915SOL    HW289643   9.781   1.464  10.634
95916SOL     OW89644   6.980   5.190   0.001
95916SOL    HW189645   6.902   5.156  14.825
95916SOL    HW289646   6.944   5.243   0.072
95917SOL     OW89647   0.639   2.719   6.682
95917SOL    HW189648   0.656   2.627   6.660
95917SOL    HW289649   0.708   2.767   6.637
95918SOL     OW89650   0.938   6.038  14.464
95918SOL    HW189651   0.937   5.970  14.397
95918SOL    HW289652   0.963   6.118  14.416
95919SOL     OW89653   0.733   3.172   8.880
95919SOL    HW189654   0.754   3.220   8.960
95919SOL    HW289655   0.813   3.123   8.861
95920SOL     OW89656  10.013   3.664  12.977
95920SOL    HW189657  10.069   3.741  12.987
95920SOL    HW289658   9.936   3.696  12.930
95921SOL     OW89659   2.594   0.375   9.405
95921SOL    HW189660   2.592   0.319   9.483
95921SOL    HW289661   2.547   0.454   9.431
95922SOL     OW89662   2.759  14.285   0.260
95922SOL    HW189663   2.676  14.298   0.215
95922SOL    HW289664   2.757  14.194   0.289
95923SOL     OW89665   2.683   6.790   5.836
95923SOL    HW189666   2.724   6.870   5.868
95923SOL    HW289667   2.591   6.800   5.859
95924SOL     OW89668   8.592   1.435   6.442
95924SOL    HW189669   8.602   1.373   6.370
95924SOL    HW289670   8.682   1.463   6.462
95925SOL     OW89671   8.702   5.694  12.821
95925SOL    HW189672   8.705   5.615  12.876
95925SOL    HW289673   8.617   5.732  12.839
95926SOL     OW89674   9.397   0.131   3.259
95926SOL    HW189675   9.320   0.076   3.274
95926SOL    HW289676   9.455   0.111   3.333
95927SOL     OW89677   2.985  13.926   5.801
95927SOL    HW189678   2.934  13.855   5.761
95927SOL    HW289679   2.998  13.899   5.892
95928SOL     OW89680   0.004  14.320   6.731
95928SOL    HW189681   0.073  14.256   6.748
95928SOL    HW289682  14.820  14.318   6.810
95929SOL     OW89683   9.872   8.302   5.243
95929SOL    HW189684   9.806   8.348   5.296
95929SOL    HW289685   9.943   8.364   5.233
95930SOL     OW89686  13.711   9.059   0.297
95930SOL    HW189687  13.668   9.037   0.380
95930SOL    HW289688  13.736   9.151   0.307
95931SOL     OW89689   7.509   4.550   9.207
95931SOL    HW189690   7.529   4.642   9.222
95931SOL    HW289691   7.525   4.508   9.291
95932SOL     OW89692  14.026   7.751   4.833
95932SOL    HW189693  14.072   7.754   4.749
95932SOL    HW289694  14.030   7.842   4.865
95933SOL     OW89695   3.370   2.296   0.952
95933SOL    HW189696   3.304   2.228   0.966
95933SOL    HW289697   3.418   2.267   0.875
95934SOL     OW89698   9.944  12.867  11.038
95934SOL    HW189699   9.851  12.843  11.041
95934SOL    HW289700   9.981  12.809  10.972
95935SOL     OW89701   6.687   2.446   3.322
95935SOL    HW189702   6.649   2.485   3.400
95935SOL    HW289703   6.744   2.514   3.286
95936SOL     OW89704   3.012   7.238   3.427
95936SOL    HW189705   3.048   7.240   3.515
95936SOL    HW289706   2.921   7.266   3.437
95937SOL     OW89707   8.458  10.231  11.844
95937SOL    HW189708   8.492  10.266  11.927
95937SOL    HW289709   8.385  10.290  11.822
95938SOL     OW89710   7.194   8.859   0.477
95938SOL    HW189711   7.270   8.866   0.419
95938SOL    HW289712   7.228   8.879   0.564
95939SOL     OW89713   2.569  10.568   5.504
95939SOL    HW189714   2.642  10.623   5.534
95939SOL    HW289715   2.588  10.551   5.412
95940SOL     OW89716  14.835   2.508  11.399
95940SOL    HW189717  14.863   2.599  11.392
95940SOL    HW289718  14.740   2.513  11.405
95941SOL     OW89719  12.903  13.388  10.996
95941SOL    HW189720  12.877  13.468  11.041
95941SOL    HW289721  12.836  13.375  10.929
95942SOL     OW89722   7.680   8.864  14.367
95942SOL    HW189723   7.690   8.927  14.296
95942SOL    HW289724   7.667   8.780  14.323
95943SOL     OW89725   4.823   8.276   2.862
95943SOL    HW189726   4.855   8.360   2.829
95943SOL    HW289727   4.780   8.236   2.786
95944SOL     OW89728   8.745  10.237   1.523
95944SOL    HW189729   8.772  10.152   1.488
95944SOL    HW289730   8.650  10.233   1.526
95945SOL     OW89731  13.659   7.165   8.641
95945SOL    HW189732  13.568   7.163   8.612
95945SOL    HW289733  13.695   7.245   8.603
95946SOL     OW89734  10.658   0.828   2.136
95946SOL    HW189735  10.631   0.919   2.128
95946SOL    HW289736  10.578   0.780   2.155
95947SOL     OW89737  13.373   0.652  11.392
95947SOL    HW189738  13.312   0.581  11.373
95947SOL    HW289739  13.374   0.705  11.312
95948SOL     OW89740   1.634  13.833  12.402
95948SOL    HW189741   1.545  13.863  12.380
95948SOL    HW289742   1.689  13.910  12.387
95949SOL     OW89743  11.065  13.644  10.741
95949SOL    HW189744  11.117  13.630  10.662
95949SOL    HW289745  10.975  13.627  10.715
95950SOL     OW89746   8.457  11.171   7.429
95950SOL    HW189747   8.536  11.123   7.403
95950SOL    HW289748   8.427  11.125   7.508
95951SOL     OW89749   2.562   3.845   7.977
95951SOL    HW189750   2.579   3.753   7.959
95951SOL    HW289751   2.575   3.854   8.072
95952SOL     OW89752  10.542   4.897   5.108
95952SOL    HW189753  10.468   4.845   5.077
95952SOL    HW289754  10.507   4.951   5.178
95953SOL     OW89755   0.147   8.726  14.016
95953SOL    HW189756   0.081   8.695  14.078
95953SOL    HW289757   0.190   8.798  14.062
95954SOL     OW89758  12.515   4.222  11.467
95954SOL    HW189759  12.546   4.256  11.551
95954SOL    HW289760  12.525   4.127  11.474
95955SOL     OW89761   7.926  14.264   1.670
95955SOL    HW189762   7.937  14.282   1.763
95955SOL    HW289763   7.834  14.282   1.653
95956SOL     OW89764   5.851   2.030   5.340
95956SOL    HW189765   5.821   1.940   5.327
95956SOL    HW289766   5.776   2.085   5.318
95957SOL     OW89767  10.412  10.273   1.937
95957SOL    HW189768  10.456  10.344   1.985
95957SOL    HW289769  10.448  10.279   1.848
95958SOL     OW89770   1.462   2.196   5.039
95958SOL    HW189771   1.433   2.114   5.080
95958SOL    HW289772   1.557   2.192   5.040
95959SOL     OW89773  14.492   0.546  14.333
95959SOL    HW189774  14.421   0.562  14.271
95959SOL    HW289775  14.557   0.613  14.313
95960SOL     OW89776   8.951   5.703  10.649
95960SOL    HW189777   8.989   5.747  10.726
95960SOL    HW289778   9.003   5.735  10.575
95961SOL     OW89779   9.991   0.663   5.272
95961SOL    HW189780   9.971   0.598   5.205
95961SOL    HW289781   9.949   0.743   5.240
95962SOL     OW89782   1.023   3.398   4.139
95962SOL    HW189783   1.065   3.332   4.085
95962SOL    HW289784   0.931   3.396   4.112
95963SOL     OW89785  14.843   1.311  11.095
95963SOL    HW189786   0.062   1.348  11.101
95963SOL    HW289787  14.816   1.301  11.187
95964SOL     OW89788  12.924   7.066  11.600
95964SOL    HW189789  12.970   7.079  11.683
95964SOL    HW289790  12.954   6.981  11.569
95965SOL     OW89791  13.234   8.943  12.648
95965SOL    HW189792  13.241   8.890  12.728
95965SOL    HW289793  13.205   9.029  12.679
95966SOL     OW89794   4.924   6.229  11.245
95966SOL    HW189795   4.998   6.290  11.249
95966SOL    HW289796   4.917   6.193  11.334
95967SOL     OW89797  12.013  14.839   1.689
95967SOL    HW189798  12.098  14.795   1.697
95967SOL    HW289799  11.976  14.805   1.608
95968SOL     OW89800   1.811  10.752  10.731
95968SOL    HW189801   1.756  10.675  10.713
95968SOL    HW289802   1.825  10.792  10.645
95969SOL     OW89803  13.248   7.136   7.741
95969SOL    HW189804  13.283   7.048   7.758
95969SOL    HW289805  13.225   7.170   7.828
95970SOL     OW89806   4.429   8.446  10.538
95970SOL    HW189807   4.419   8.480  10.450
95970SOL    HW289808   4.448   8.353  10.526
95971SOL     OW89809   1.343   1.811   3.542
95971SOL    HW189810   1.409   1.831   3.476
95971SOL    HW289811   1.261   1.809   3.494
95972SOL     OW89812   9.109   3.095   6.237
95972SOL    HW189813   9.039   3.117   6.298
95972SOL    HW289814   9.182   3.151   6.264
95973SOL     OW89815  12.347  11.812  13.874
95973SOL    HW189816  12.337  11.813  13.969
95973SOL    HW289817  12.434  11.849  13.859
95974SOL     OW89818  12.432   6.697  12.577
95974SOL    HW189819  12.413   6.731  12.489
95974SOL    HW289820  12.457   6.606  12.563
95975SOL     OW89821   3.961   5.009   1.853
95975SOL    HW189822   3.893   5.009   1.786
95975SOL    HW289823   3.977   5.102   1.871
95976SOL     OW89824   0.338  14.226   5.159
95976SOL    HW189825   0.431  14.208   5.146
95976SOL    HW289826   0.302  14.231   5.071
95977SOL     OW89827   1.418   9.837  12.535
95977SOL    HW189828   1.340   9.821  12.588
95977SOL    HW289829   1.410   9.929  12.508
95978SOL     OW89830  13.719   8.384   9.831
95978SOL    HW189831  13.682   8.472   9.834
95978SOL    HW289832  13.698   8.352   9.744
95979SOL     OW89833   8.009  14.866  11.646
95979SOL    HW189834   7.964   0.013  11.563
95979SOL    HW289835   7.975  14.782  11.676
95980SOL     OW89836   6.883  13.282   4.019
95980SOL    HW189837   6.961  13.254   4.067
95980SOL    HW289838   6.866  13.371   4.050
95981SOL     OW89839   8.121  11.147  14.148
95981SOL    HW189840   8.210  11.150  14.183
95981SOL    HW289841   8.070  11.202  14.208
95982SOL     OW89842  11.813   8.329   5.868
95982SOL    HW189843  11.763   8.398   5.912
95982SOL    HW289844  11.782   8.248   5.907
95983SOL     OW89845  11.087  14.381  12.883
95983SOL    HW189846  10.995  14.396  12.906
95983SOL    HW289847  11.127  14.468  12.887
95984SOL     OW89848   7.670  14.333   1.692
95984SOL    HW189849   7.635  14.285   1.767
95984SOL    HW289850   7.594  14.350   1.637
95985SOL     OW89851  13.716   8.716   7.396
95985SOL    HW189852  13.708   8.703   7.490
95985SOL    HW289853  13.804   8.751   7.383
95986SOL     OW89854  11.295   9.435  10.717
95986SOL    HW189855  11.316   9.518  10.758
95986SOL    HW289856  11.297   9.452  10.623
95987SOL     OW89857   9.253   0.228   6.182
95987SOL    HW189858   9.289   0.199   6.266
95987SOL    HW289859   9.311   0.189   6.117
95988SOL     OW89860  10.161   1.815  12.885
95988SOL    HW189861  10.088   1.758  12.909
95988SOL    HW289862  10.162   1.883  12.952
95989SOL     OW89863   9.065   7.496   9.585
95989SOL    HW189864   9.132   7.483   9.518
95989SOL    HW289865   9.011   7.568   9.551
95990SOL     OW89866   6.550   6.040  12.950
95990SOL    HW189867   6.601   6.012  12.875
95990SOL    HW289868   6.473   6.083  12.912
95991SOL     OW89869   4.019   8.887   1.384
95991SOL    HW189870   4.033   8.847   1.470
95991SOL    HW289871   4.082   8.959   1.382
95992SOL     OW89872  10.920  12.851  14.165
95992SOL    HW189873  10.996  12.832  14.111
95992SOL    HW289874  10.845  12.832  14.109
95993SOL     OW89875   0.675   5.621   5.144
95993SOL    HW189876   0.608   5.599   5.210
95993SOL    HW289877   0.691   5.539   5.098
95994SOL     OW89878   3.277   1.360   4.249
95994SOL    HW189879   3.280   1.267   4.271
95994SOL    HW289880   3.209   1.396   4.306
95995SOL     OW89881  10.224   8.382   2.240
95995SOL    HW189882  10.141   8.335   2.244
95995SOL    HW289883  10.282   8.323   2.191
95996SOL     OW89884   8.445   4.974  14.025
95996SOL    HW189885   8.384   4.921  13.974
95996SOL    HW289886   8.466   5.048  13.968
95997SOL     OW89887   7.861  12.781  13.620
95997SOL    HW189888   7.868  12.799  13.714
95997SOL    HW289889   7.944  12.739  13.598
95998SOL     OW89890   8.373   3.163   1.839
95998SOL    HW189891   8.350   3.131   1.926
95998SOL    HW289892   8.309   3.232   1.822
95999SOL     OW89893   4.321   5.699   8.288
95999SOL    HW189894   4.414   5.689   8.307
95999SOL    HW289895   4.289   5.761   8.354
96000SOL     OW89896   5.131  13.173  11.318
96000SOL    HW189897   5.221  13.145  11.334
96000SOL    HW289898   5.102  13.119  11.244
96001SOL     OW89899  11.528   0.198  11.057
96001SOL    HW189900  11.604   0.175  11.002
96001SOL    HW289901  11.456   0.208  10.995
96002SOL     OW89902   1.945   1.241   5.086
96002SOL    HW189903   2.008   1.225   5.016
96002SOL    HW289904   1.950   1.163   5.141
96003SOL     OW89905   8.075  11.440   9.456
96003SOL    HW189906   8.008  11.380   9.488
96003SOL    HW289907   8.152  11.421   9.510
96004SOL     OW89908   2.533   7.105   0.379
96004SOL    HW189909   2.595   7.085   0.309
96004SOL    HW289910   2.483   7.024   0.390
96005SOL     OW89911   4.799   4.939  10.567
96005SOL    HW189912   4.837   4.969  10.650
96005SOL    HW289913   4.842   4.992  10.500
96006SOL     OW89914   3.499  14.262  13.708
96006SOL    HW189915   3.428  14.282  13.769
96006SOL    HW289916   3.510  14.167  13.714
96007SOL     OW89917  12.384  12.817  12.651
96007SOL    HW189918  12.339  12.896  12.683
96007SOL    HW289919  12.470  12.847  12.624
96008SOL     OW89920  14.434  10.316  11.195
96008SOL    HW189921  14.414  10.407  11.173
96008SOL    HW289922  14.430  10.314  11.291
96009SOL     OW89923  14.403   0.337  12.498
96009SOL    HW189924  14.453   0.296  12.428
96009SOL    HW289925  14.455   0.414  12.523
96010SOL     OW89926  13.641   8.280   9.189
96010SOL    HW189927  13.723   8.234   9.207
96010SOL    HW289928  13.573   8.223   9.224
96011SOL     OW89929   2.854  13.000  12.279
96011SOL    HW189930   2.915  13.073  12.291
96011SOL    HW289931   2.850  12.958  12.365
96012SOL     OW89932   9.502  11.834   7.626
96012SOL    HW189933   9.517  11.788   7.543
96012SOL    HW289934   9.416  11.876   7.615
96013SOL     OW89935  13.250   5.386  11.323
96013SOL    HW189936  13.244   5.388  11.228
96013SOL    HW289937  13.252   5.293  11.345
96014SOL     OW89938   3.049   0.153  11.703
96014SOL    HW189939   3.104   0.118  11.634
96014SOL    HW289940   3.110   0.192  11.766
96015SOL     OW89941  12.551   3.382  11.475
96015SOL    HW189942  12.580   3.371  11.384
96015SOL    HW289943  12.632   3.388  11.526
96016SOL     OW89944   9.810   6.444  12.227
96016SOL    HW189945   9.731   6.488  12.257
96016SOL    HW289946   9.833   6.385  12.299
96017SOL     OW89947  10.526  13.592   7.113
96017SOL    HW189948  10.454  13.529   7.103
96017SOL    HW289949  10.521  13.619   7.204
96018SOL     OW89950  11.034  12.219   1.725
96018SOL    HW189951  11.021  12.291   1.787
96018SOL    HW289952  11.012  12.140   1.776
96019SOL     OW89953  13.198   1.797  10.013
96019SOL    HW189954  13.222   1.889  10.005
96019SOL    HW289955  13.163   1.788  10.101
96020SOL     OW89956  11.164   5.507  13.033
96020SOL    HW189957  11.105   5.513  13.108
96020SOL    HW289958  11.107   5.509  12.956
96021SOL     OW89959  13.843   6.872   2.917
96021SOL    HW189960  13.886   6.862   2.831
96021SOL    HW289961  13.751   6.885   2.896
96022SOL     OW89962  12.230   9.328   4.967
96022SOL    HW189963  12.162   9.341   4.901
96022SOL    HW289964  12.187   9.277   5.036
96023SOL     OW89965  12.585   1.923   5.077
96023SOL    HW189966  12.589   1.847   5.017
96023SOL    HW289967  12.627   1.892   5.157
96024SOL     OW89968  13.093   2.874   3.957
96024SOL    HW189969  13.009   2.882   4.002
96024SOL    HW289970  13.085   2.794   3.906
96025SOL     OW89971   9.832   0.417   2.760
96025SOL    HW189972   9.848   0.388   2.670
96025SOL    HW289973   9.792   0.503   2.751
96026SOL     OW89974   2.078  13.178   4.103
96026SOL    HW189975   2.060  13.213   4.016
96026SOL    HW289976   2.051  13.086   4.099
96027SOL     OW89977  10.750  14.368   1.017
96027SOL    HW189978  10.757  14.367   0.922
96027SOL    HW289979  10.667  14.413   1.035
96028SOL     OW89980   7.515  14.289   2.523
96028SOL    HW189981   7.536  14.330   2.607
96028SOL    HW289982   7.591  14.306   2.468
96029SOL     OW89983   1.983  12.825   2.028
96029SOL    HW189984   1.938  12.768   2.091
96029SOL    HW289985   1.913  12.879   1.992
96030SOL     OW89986  10.973   6.128  14.045
96030SOL    HW189987  11.034   6.091  13.982
96030SOL    HW289988  10.921   6.053  14.074
96031SOL     OW89989  11.979  11.266   5.337
96031SOL    HW189990  11.927  11.192   5.304
96031SOL    HW289991  12.043  11.283   5.268
96032SOL     OW89992  10.641  10.840   1.984
96032SOL    HW189993  10.612  10.812   2.071
96032SOL    HW289994  10.569  10.893   1.950
96033SOL     OW89995   6.910   0.657  11.577
96033SOL    HW189996   6.836   0.704  11.616
96033SOL    HW289997   6.987   0.702  11.610
96034SOL     OW89998  10.499   9.332   7.392
96034SOL    HW189999  10.594   9.319   7.391
96034SOL    HW290000  10.467   9.279   7.319
96035SOL     OW90001  13.467   9.351  10.082
96035SOL    HW190002  13.475   9.447  10.086
96035SOL    HW290003  13.498   9.321  10.168
96036SOL     OW90004  13.761  14.460   2.585
96036SOL    HW190005  13.708  14.515   2.642
96036SOL    HW290006  13.779  14.382   2.637
96037SOL     OW90007   5.690  14.821   5.826
96037SOL    HW190008   5.699  14.746   5.767
96037SOL    HW290009   5.641   0.016   5.775
96038SOL     OW90010   6.322  10.808   8.778
96038SOL    HW190011   6.333  10.714   8.793
96038SOL    HW290012   6.245  10.832   8.829
96039SOL     OW90013   9.729   5.007  10.144
96039SOL    HW190014   9.705   4.923  10.103
96039SOL    HW290015   9.793   4.983  10.210
96040SOL     OW90016  11.822   0.685  13.599
96040SOL    HW190017  11.884   0.758  13.596
96040SOL    HW290018  11.804   0.665  13.507
96041SOL     OW90019   1.464   5.996   0.093
96041SOL    HW190020   1.519   6.032   0.023
96041SOL    HW290021   1.438   5.910   0.060
96042SOL     OW90022   6.572   0.074   9.145
96042SOL    HW190023   6.662   0.057   9.120
96042SOL    HW290024   6.520   0.045   9.070
96043SOL     OW90025   2.792   4.226   9.611
96043SOL    HW190026   2.754   4.268   9.687
96043SOL    HW290027   2.860   4.168   9.647
96044SOL     OW90028  10.720  10.507   6.790
96044SOL    HW190029  10.640  10.457   6.807
96044SOL    HW290030  10.765  10.458   6.721
96045SOL     OW90031   4.296   3.084   0.597
96045SOL    HW190032   4.213   3.093   0.551
96045SOL    HW290033   4.342   3.166   0.579
96046SOL     OW90034   0.937  11.640   5.378
96046SOL    HW190035   1.029  11.646   5.404
96046SOL    HW290036   0.889  11.685   5.448
96047SOL     OW90037   7.068   4.274   7.197
96047SOL    HW190038   7.140   4.224   7.236
96047SOL    HW290039   7.102   4.363   7.192
96048SOL     OW90040   7.056  10.426   5.244
96048SOL    HW190041   6.990  10.378   5.193
96048SOL    HW290042   7.094  10.360   5.302
96049SOL     OW90043   4.846   2.752  13.113
96049SOL    HW190044   4.806   2.783  13.195
96049SOL    HW290045   4.800   2.800  13.044
96050SOL     OW90046  12.538  13.894  14.649
96050SOL    HW190047  12.556  13.871  14.558
96050SOL    HW290048  12.461  13.842  14.672
96051SOL     OW90049  14.606   1.534  11.294
96051SOL    HW190050  14.701   1.525  11.297
96051SOL    HW290051  14.577   1.461  11.240
96052SOL     OW90052   6.937   0.300   3.386
96052SOL    HW190053   6.883   0.322   3.310
96052SOL    HW290054   7.000   0.237   3.352
96053SOL     OW90055  13.563   6.267   6.398
96053SOL    HW190056  13.467   6.263   6.408
96053SOL    HW290057  13.578   6.252   6.305
96054SOL     OW90058   3.843   1.955   0.377
96054SOL    HW190059   3.870   1.880   0.324
96054SOL    HW290060   3.841   2.028   0.315
96055SOL     OW90061   9.042   2.101   1.788
96055SOL    HW190062   9.105   2.085   1.859
96055SOL    HW290063   9.072   2.183   1.748
96056SOL     OW90064   0.175   5.474  13.892
96056SOL    HW190065   0.108   5.416  13.929
96056SOL    HW290066   0.256   5.423  13.899
96057SOL     OW90067   3.984   6.501   2.762
96057SOL    HW190068   4.050   6.433   2.752
96057SOL    HW290069   4.029   6.582   2.738
96058SOL     OW90070  10.974   3.433   4.106
96058SOL    HW190071  10.912   3.393   4.046
96058SOL    HW290072  11.021   3.358   4.144
96059SOL     OW90073   9.398   7.243   2.134
96059SOL    HW190074   9.346   7.203   2.065
96059SOL    HW290075   9.487   7.212   2.117
96060SOL     OW90076  12.637   2.271   9.145
96060SOL    HW190077  12.694   2.232   9.079
96060SOL    HW290078  12.637   2.365   9.125
96061SOL     OW90079   0.315  10.336  12.468
96061SOL    HW190080   0.262  10.300  12.540
96061SOL    HW290081   0.251  10.363  12.402
96062SOL     OW90082   5.608   2.408  13.711
96062SOL    HW190083   5.559   2.415  13.630
96062SOL    HW290084   5.700   2.413  13.684
96063SOL     OW90085  14.712   4.325  10.791
96063SOL    HW190086  14.732   4.320  10.884
96063SOL    HW290087  14.771   4.393  10.758
96064SOL     OW90088   6.570  10.010   4.565
96064SOL    HW190089   6.500   9.999   4.500
96064SOL    HW290090   6.606  10.096   4.546
96065SOL     OW90091   7.775   1.653   4.911
96065SOL    HW190092   7.763   1.647   5.005
96065SOL    HW290093   7.863   1.690   4.900
96066SOL     OW90094   1.539   3.875   8.274
96066SOL    HW190095   1.534   3.834   8.361
96066SOL    HW290096   1.524   3.969   8.291
96067SOL     OW90097  13.414   9.431   6.170
96067SOL    HW190098  13.492   9.381   6.191
96067SOL    HW290099  13.441   9.523   6.178
96068SOL     OW90100  13.220   0.165  11.406
96068SOL    HW190101  13.297   0.114  11.431
96068SOL    HW290102  13.151   0.135  11.465
96069SOL     OW90103   8.367  11.535  11.539
96069SOL    HW190104   8.400  11.622  11.562
96069SOL    HW290105   8.443  11.477  11.550
96070SOL     OW90106  14.362   1.015   6.337
96070SOL    HW190107  14.344   1.041   6.427
96070SOL    HW290108  14.421   1.082   6.304
96071SOL     OW90109   4.826   2.823   3.907
96071SOL    HW190110   4.797   2.800   3.819
96071SOL    HW290111   4.807   2.917   3.914
96072SOL     OW90112   0.136   3.897  11.494
96072SOL    HW190113   0.141   3.988  11.464
96072SOL    HW290114   0.048   3.889  11.532
96073SOL     OW90115   6.699   0.787  12.011
96073SOL    HW190116   6.638   0.778  11.938
96073SOL    HW290117   6.662   0.857  12.065
96074SOL     OW90118  11.223   9.582   7.586
96074SOL    HW190119  11.240   9.660   7.534
96074SOL    HW290120  11.189   9.615   7.669
96075SOL     OW90121  13.146   8.999   3.948
96075SOL    HW190122  13.166   8.992   4.041
96075SOL    HW290123  13.139   9.093   3.932
96076SOL     OW90124   6.230   6.367   8.723
96076SOL    HW190125   6.274   6.286   8.752
96076SOL    HW290126   6.140   6.356   8.752
96077SOL     OW90127   4.381  11.670   9.771
96077SOL    HW190128   4.421  11.648   9.855
96077SOL    HW290129   4.386  11.589   9.720
96078SOL     OW90130  11.207   9.904   2.324
96078SOL    HW190131  11.126   9.935   2.282
96078SOL    HW290132  11.245   9.983   2.363
96079SOL     OW90133   9.810   8.569   2.981
96079SOL    HW190134   9.838   8.659   2.965
96079SOL    HW290135   9.717   8.568   2.960
96080SOL     OW90136  12.499  10.620   6.148
96080SOL    HW190137  12.462  10.605   6.235
96080SOL    HW290138  12.479  10.712   6.130
96081SOL     OW90139  13.332  13.570   8.652
96081SOL    HW190140  13.403  13.518   8.690
96081SOL    HW290141  13.307  13.522   8.573
96082SOL     OW90142   0.539   1.637   6.465
96082SOL    HW190143   0.519   1.562   6.410
96082SOL    HW290144   0.570   1.599   6.547
96083SOL     OW90145  14.031   3.378  10.666
96083SOL    HW190146  14.008   3.287  10.645
96083SOL    HW290147  14.059   3.415  10.582
96084SOL     OW90148   9.229   4.429   5.638
96084SOL    HW190149   9.299   4.437   5.703
96084SOL    HW290150   9.148   4.437   5.689
96085SOL     OW90151   6.460  11.214   1.929
96085SOL    HW190152   6.478  11.266   2.007
96085SOL    HW290153   6.480  11.124   1.955
96086SOL     OW90154  10.277   4.583   6.726
96086SOL    HW190155  10.362   4.552   6.696
96086SOL    HW290156  10.255   4.526   6.800
96087SOL     OW90157   3.916   2.004  12.638
96087SOL    HW190158   3.963   1.951  12.574
96087SOL    HW290159   3.966   1.994  12.719
96088SOL     OW90160  10.928  10.358   0.895
96088SOL    HW190161  10.926  10.314   0.979
96088SOL    HW290162  10.836  10.374   0.874
96089SOL     OW90163  13.952   1.912   5.626
96089SOL    HW190164  13.911   1.845   5.571
96089SOL    HW290165  13.879   1.969   5.651
96090SOL     OW90166   1.185   3.467  11.565
96090SOL    HW190167   1.147   3.523  11.632
96090SOL    HW290168   1.261   3.427  11.607
96091SOL     OW90169   8.284   8.621  12.128
96091SOL    HW190170   8.329   8.581  12.054
96091SOL    HW290171   8.321   8.578  12.205
96092SOL     OW90172  13.327   0.521   4.275
96092SOL    HW190173  13.362   0.573   4.348
96092SOL    HW290174  13.232   0.536   4.279
96093SOL     OW90175   1.518  11.779   5.488
96093SOL    HW190176   1.499  11.735   5.571
96093SOL    HW290177   1.613  11.790   5.488
96094SOL     OW90178   1.523   6.216   8.820
96094SOL    HW190179   1.526   6.129   8.858
96094SOL    HW290180   1.587   6.266   8.870
96095SOL     OW90181   9.111  13.775   2.882
96095SOL    HW190182   9.022  13.810   2.889
96095SOL    HW290183   9.148  13.790   2.969
96096SOL     OW90184  13.668   7.826  11.960
96096SOL    HW190185  13.590   7.791  12.002
96096SOL    HW290186  13.635   7.882  11.890
96097SOL     OW90187   6.577   2.139   5.975
96097SOL    HW190188   6.656   2.163   6.024
96097SOL    HW290189   6.523   2.091   6.038
96098SOL     OW90190   2.014   9.124   9.277
96098SOL    HW190191   1.977   9.129   9.365
96098SOL    HW290192   1.939   9.106   9.220
96099SOL     OW90193   6.354   3.249   4.639
96099SOL    HW190194   6.272   3.204   4.655
96099SOL    HW290195   6.332   3.342   4.645
96100SOL     OW90196  10.089  11.286   8.946
96100SOL    HW190197  10.041  11.328   9.017
96100SOL    HW290198  10.141  11.218   8.990
96101SOL     OW90199   7.493  12.602   9.205
96101SOL    HW190200   7.470  12.637   9.118
96101SOL    HW290201   7.552  12.529   9.186
96102SOL     OW90202   2.677   5.853   3.239
96102SOL    HW190203   2.656   5.813   3.155
96102SOL    HW290204   2.771   5.866   3.236
96103SOL     OW90205  11.188  11.832   0.138
96103SOL    HW190206  11.141  11.913   0.158
96103SOL    HW290207  11.141  11.764   0.187
96104SOL     OW90208   7.722  14.801   4.076
96104SOL    HW190209   7.736  14.814   3.982
96104SOL    HW290210   7.629  14.820   4.089
96105SOL     OW90211   9.226  10.240  14.720
96105SOL    HW190212   9.146  10.232  14.667
96105SOL    HW290213   9.248  10.150  14.743
96106SOL     OW90214   6.756  10.017  13.545
96106SOL    HW190215   6.760   9.941  13.602
96106SOL    HW290216   6.689   9.997  13.481
96107SOL     OW90217  14.526   2.306   3.826
96107SOL    HW190218  14.488   2.358   3.754
96107SOL    HW290219  14.618   2.334   3.829
96108SOL     OW90220  14.041  13.052   1.834
96108SOL    HW190221  14.115  13.081   1.780
96108SOL    HW290222  14.080  12.999   1.903
96109SOL     OW90223   5.783  10.869  12.371
96109SOL    HW190224   5.783  10.867  12.275
96109SOL    HW290225   5.738  10.951  12.393
96110SOL     OW90226  10.558  14.225   3.816
96110SOL    HW190227  10.511  14.168   3.877
96110SOL    HW290228  10.515  14.310   3.823
96111SOL     OW90229   3.698   5.849  14.216
96111SOL    HW190230   3.691   5.940  14.187
96111SOL    HW290231   3.711   5.855  14.311
96112SOL     OW90232  14.666   5.753  13.463
96112SOL    HW190233  14.715   5.672  13.448
96112SOL    HW290234  14.733   5.819  13.479
96113SOL     OW90235  12.287   5.408   0.809
96113SOL    HW190236  12.369   5.366   0.783
96113SOL    HW290237  12.313   5.494   0.841
96114SOL     OW90238   5.223  11.772   4.495
96114SOL    HW190239   5.162  11.774   4.568
96114SOL    HW290240   5.205  11.690   4.450
96115SOL     OW90241  12.108   9.652   2.378
96115SOL    HW190242  12.133   9.571   2.334
96115SOL    HW290243  12.172   9.717   2.348
96116SOL     OW90244  13.800   4.346   1.481
96116SOL    HW190245  13.795   4.441   1.470
96116SOL    HW290246  13.721   4.323   1.530
96117SOL     OW90247   8.853   7.845   8.898
96117SOL    HW190248   8.904   7.864   8.819
96117SOL    HW290249   8.818   7.930   8.925
96118SOL     OW90250   6.406   0.862   2.309
96118SOL    HW190251   6.487   0.903   2.279
96118SOL    HW290252   6.365   0.829   2.229
96119SOL     OW90253   7.207   3.286   1.232
96119SOL    HW190254   7.221   3.359   1.172
96119SOL    HW290255   7.143   3.318   1.295
96120SOL     OW90256   2.314   3.870  12.719
96120SOL    HW190257   2.288   3.962  12.721
96120SOL    HW290258   2.321   3.845  12.811
96121SOL     OW90259   6.377   2.748  10.215
96121SOL    HW190260   6.377   2.672  10.273
96121SOL    HW290261   6.432   2.812  10.259
96122SOL     OW90262   3.618   2.936   8.640
96122SOL    HW190263   3.688   2.890   8.686
96122SOL    HW290264   3.567   2.977   8.709
96123SOL     OW90265  12.498   5.264   0.521
96123SOL    HW190266  12.436   5.192   0.516
96123SOL    HW290267  12.453   5.337   0.478
96124SOL     OW90268   7.894   7.090  13.876
96124SOL    HW190269   7.845   7.137  13.943
96124SOL    HW290270   7.955   7.155  13.840
96125SOL     OW90271   7.125   9.721   9.369
96125SOL    HW190272   7.037   9.693   9.347
96125SOL    HW290273   7.161   9.754   9.286
96126SOL     OW90274  13.517  10.391   9.817
96126SOL    HW190275  13.519  10.390   9.913
96126SOL    HW290276  13.594  10.442   9.792
96127SOL     OW90277   7.791  11.828   7.241
96127SOL    HW190278   7.742  11.822   7.159
96127SOL    HW290279   7.766  11.914   7.277
96128SOL     OW90280   7.527  14.620  14.597
96128SOL    HW190281   7.516  14.613  14.691
96128SOL    HW290282   7.536  14.714  14.581
96129SOL     OW90283  11.526   8.916   4.981
96129SOL    HW190284  11.542   8.920   5.075
96129SOL    HW290285  11.528   8.822   4.961
96130SOL     OW90286   5.284  10.809   7.221
96130SOL    HW190287   5.276  10.827   7.315
96130SOL    HW290288   5.305  10.893   7.182
96131SOL     OW90289   3.538   2.998   7.979
96131SOL    HW190290   3.495   2.927   7.931
96131SOL    HW290291   3.631   2.988   7.957
96132SOL     OW90292   3.080   2.193   8.300
96132SOL    HW190293   2.990   2.181   8.332
96132SOL    HW290294   3.070   2.226   8.211
96133SOL     OW90295   2.566   6.299   9.145
96133SOL    HW190296   2.538   6.210   9.123
96133SOL    HW290297   2.543   6.310   9.237
96134SOL     OW90298  11.469  10.219   8.732
96134SOL    HW190299  11.426  10.207   8.817
96134SOL    HW290300  11.432  10.300   8.698
96135SOL     OW90301  10.343  13.729  14.028
96135SOL    HW190302  10.263  13.776  14.006
96135SOL    HW290303  10.411  13.796  14.032
96136SOL     OW90304   2.871  13.487  14.329
96136SOL    HW190305   2.925  13.566  14.322
96136SOL    HW290306   2.789  13.518  14.367
96137SOL     OW90307   6.703  11.298   4.526
96137SOL    HW190308   6.787  11.295   4.571
96137SOL    HW290309   6.724  11.279   4.435
96138SOL     OW90310   2.169   1.933  11.719
96138SOL    HW190311   2.221   2.011  11.701
96138SOL    HW290312   2.115   1.957  11.795
96139SOL     OW90313   8.474   2.858   9.261
96139SOL    HW190314   8.481   2.765   9.240
96139SOL    HW290315   8.548   2.898   9.214
96140SOL     OW90316  10.668   4.745   9.555
96140SOL    HW190317  10.592   4.758   9.499
96140SOL    HW290318  10.728   4.692   9.502
96141SOL     OW90319   4.417   7.950  11.347
96141SOL    HW190320   4.340   7.986  11.391
96141SOL    HW290321   4.480   7.936  11.419
96142SOL     OW90322  11.377   2.820   7.071
96142SOL    HW190323  11.371   2.772   7.154
96142SOL    HW290324  11.471   2.838   7.061
96143SOL     OW90325   5.761   6.959   2.807
96143SOL    HW190326   5.729   6.889   2.864
96143SOL    HW290327   5.856   6.947   2.807
96144SOL     OW90328  13.309  10.263   7.321
96144SOL    HW190329  13.321  10.355   7.298
96144SOL    HW290330  13.393  10.237   7.359
96145SOL     OW90331  11.990   3.059   7.111
96145SOL    HW190332  11.945   3.067   7.027
96145SOL    HW290333  11.936   2.999   7.162
96146SOL     OW90334   0.298  10.929  13.931
96146SOL    HW190335   0.360  10.856  13.929
96146SOL    HW290336   0.216  10.890  13.963
96147SOL     OW90337  12.770   9.296  13.468
96147SOL    HW190338  12.789   9.390  13.480
96147SOL    HW290339  12.852   9.260  13.433
96148SOL     OW90340   1.473  14.461  11.111
96148SOL    HW190341   1.548  14.474  11.170
96148SOL    HW290342   1.462  14.545  11.066
96149SOL     OW90343  10.160   5.991   2.394
96149SOL    HW190344  10.200   5.987   2.481
96149SOL    HW290345  10.154   5.899   2.366
96150SOL     OW90346  10.720  12.455   1.932
96150SOL    HW190347  10.699  12.538   1.975
96150SOL    HW290348  10.682  12.388   1.989
96151SOL     OW90349   6.056   9.419   0.816
96151SOL    HW190350   6.024   9.429   0.726
96151SOL    HW290351   6.076   9.326   0.824
96152SOL     OW90352   4.557  11.866   9.672
96152SOL    HW190353   4.626  11.817   9.627
96152SOL    HW290354   4.483  11.806   9.674
96153SOL     OW90355   4.146  12.669   6.217
96153SOL    HW190356   4.198  12.593   6.244
96153SOL    HW290357   4.091  12.636   6.146
96154SOL     OW90358   3.732  13.435   3.372
96154SOL    HW190359   3.645  13.476   3.369
96154SOL    HW290360   3.761  13.448   3.463
96155SOL     OW90361   7.793   5.164   2.225
96155SOL    HW190362   7.803   5.130   2.313
96155SOL    HW290363   7.736   5.101   2.181
96156SOL     OW90364  11.858   7.055  11.706
96156SOL    HW190365  11.880   7.122  11.641
96156SOL    HW290366  11.763   7.058  11.713
96157SOL     OW90367   0.388   2.459   6.070
96157SOL    HW190368   0.369   2.415   5.987
96157SOL    HW290369   0.310   2.442   6.124
96158SOL     OW90370   8.113   4.589  14.564
96158SOL    HW190371   8.031   4.588  14.614
96158SOL    HW290372   8.181   4.580  14.630
96159SOL     OW90373   0.442  10.469   1.663
96159SOL    HW190374   0.375  10.519   1.616
96159SOL    HW290375   0.524  10.500   1.627
96160SOL     OW90376   3.432   3.850   8.218
96160SOL    HW190377   3.407   3.826   8.129
96160SOL    HW290378   3.513   3.899   8.208
96161SOL     OW90379   4.229   6.695  14.656
96161SOL    HW190380   4.169   6.660  14.722
96161SOL    HW290381   4.240   6.624  14.593
96162SOL     OW90382   9.256   3.120  13.702
96162SOL    HW190383   9.210   3.152  13.780
96162SOL    HW290384   9.235   3.027  13.699
96163SOL     OW90385  12.261  13.445  12.151
96163SOL    HW190386  12.337  13.502  12.147
96163SOL    HW290387  12.296  13.357  12.137
96164SOL     OW90388   1.242   2.321  13.970
96164SOL    HW190389   1.232   2.303  14.064
96164SOL    HW290390   1.321   2.272  13.945
96165SOL     OW90391   2.057   1.630  14.341
96165SOL    HW190392   2.053   1.716  14.299
96165SOL    HW290393   2.048   1.648  14.434
96166SOL     OW90394  11.856  10.527  12.565
96166SOL    HW190395  11.917  10.536  12.492
96166SOL    HW290396  11.909  10.495  12.637
96167SOL     OW90397  12.599   6.256   9.170
96167SOL    HW190398  12.693   6.251   9.187
96167SOL    HW290399  12.569   6.165   9.170
96168SOL     OW90400   8.677   5.571   7.053
96168SOL    HW190401   8.699   5.664   7.046
96168SOL    HW290402   8.621   5.566   7.131
96169SOL     OW90403  14.279   5.274   8.563
96169SOL    HW190404  14.355   5.327   8.539
96169SOL    HW290405  14.227   5.331   8.619
96170SOL     OW90406  10.083   0.319   2.841
96170SOL    HW190407  10.132   0.382   2.894
96170SOL    HW290408   9.994   0.355   2.837
96171SOL     OW90409  13.623  10.756   1.465
96171SOL    HW190410  13.661  10.795   1.544
96171SOL    HW290411  13.678  10.681   1.446
96172SOL     OW90412   5.782   4.769   4.471
96172SOL    HW190413   5.817   4.707   4.406
96172SOL    HW290414   5.850   4.836   4.479
96173SOL     OW90415   9.493   0.166   0.463
96173SOL    HW190416   9.473   0.179   0.556
96173SOL    HW290417   9.415   0.198   0.417
96174SOL     OW90418  14.264  13.156  12.032
96174SOL    HW190419  14.245  13.181  11.942
96174SOL    HW290420  14.206  13.211  12.085
96175SOL     OW90421  12.172   4.092   6.964
96175SOL    HW190422  12.134   4.150   6.898
96175SOL    HW290423  12.120   4.106   7.042
96176SOL     OW90424   1.115   2.690   5.996
96176SOL    HW190425   1.050   2.619   5.997
96176SOL    HW290426   1.066   2.767   5.967
96177SOL     OW90427   8.056   1.778   2.680
96177SOL    HW190428   8.029   1.819   2.762
96177SOL    HW290429   8.049   1.684   2.695
96178SOL     OW90430   2.000   1.471   7.932
96178SOL    HW190431   2.012   1.388   7.980
96178SOL    HW290432   1.988   1.536   8.001
96179SOL     OW90433   2.084   2.236  10.778
96179SOL    HW190434   2.023   2.217  10.850
96179SOL    HW290435   2.043   2.307  10.729
96180SOL     OW90436   9.962   4.999  14.114
96180SOL    HW190437   9.912   4.937  14.167
96180SOL    HW290438   9.984   4.951  14.034
96181SOL     OW90439   3.070   6.015   6.398
96181SOL    HW190440   3.127   6.033   6.324
96181SOL    HW290441   3.106   6.067   6.470
96182SOL     OW90442  12.322   0.187   9.912
96182SOL    HW190443  12.248   0.132   9.885
96182SOL    HW290444  12.329   0.172  10.006
96183SOL     OW90445  14.720   3.930   9.245
96183SOL    HW190446  14.653   3.862   9.240
96183SOL    HW290447  14.679   4.001   9.294
96184SOL     OW90448  10.957  11.611  13.074
96184SOL    HW190449  11.035  11.564  13.045
96184SOL    HW290450  10.985  11.702  13.082
96185SOL     OW90451   6.602   7.363  14.350
96185SOL    HW190452   6.607   7.421  14.427
96185SOL    HW290453   6.530   7.398  14.299
96186SOL     OW90454  12.315   9.524  11.057
96186SOL    HW190455  12.241   9.552  11.110
96186SOL    HW290456  12.341   9.440  11.095
96187SOL     OW90457   5.419   6.906  14.373
96187SOL    HW190458   5.479   6.832  14.368
96187SOL    HW290459   5.334   6.866  14.394
96188SOL     OW90460   0.182  14.221   0.748
96188SOL    HW190461   0.169  14.130   0.720
96188SOL    HW290462   0.250  14.215   0.816
96189SOL     OW90463   9.221   3.471   1.844
96189SOL    HW190464   9.310   3.506   1.837
96189SOL    HW290465   9.207   3.424   1.762
96190SOL     OW90466   2.213   5.445   9.604
96190SOL    HW190467   2.199   5.464   9.511
96190SOL    HW290468   2.167   5.362   9.619
96191SOL     OW90469   6.122   3.939  11.207
96191SOL    HW190470   6.083   3.898  11.284
96191SOL    HW290471   6.147   4.026  11.236
96192SOL     OW90472  10.077  11.572  12.204
96192SOL    HW190473  10.113  11.520  12.277
96192SOL    HW290474  10.114  11.659  12.216
96193SOL     OW90475   3.532  10.703   7.819
96193SOL    HW190476   3.463  10.663   7.767
96193SOL    HW290477   3.487  10.769   7.873
96194SOL     OW90478   8.464   1.721   1.813
96194SOL    HW190479   8.481   1.816   1.810
96194SOL    HW290480   8.528   1.684   1.753
96195SOL     OW90481   3.181   7.802   5.919
96195SOL    HW190482   3.100   7.767   5.954
96195SOL    HW290483   3.240   7.726   5.915
96196SOL     OW90484  11.802  10.365  12.147
96196SOL    HW190485  11.802  10.460  12.135
96196SOL    HW290486  11.728  10.334  12.096
96197SOL     OW90487  14.034  12.889   6.646
96197SOL    HW190488  14.114  12.909   6.695
96197SOL    HW290489  14.063  12.834   6.573
96198SOL     OW90490   4.551   9.688   2.188
96198SOL    HW190491   4.539   9.594   2.175
96198SOL    HW290492   4.565   9.698   2.282
96199SOL     OW90493  10.096   5.090   6.894
96199SOL    HW190494  10.016   5.048   6.927
96199SOL    HW290495  10.163   5.023   6.902
96200SOL     OW90496  13.547   5.316  11.064
96200SOL    HW190497  13.610   5.323  10.992
96200SOL    HW290498  13.548   5.224  11.087
96201SOL     OW90499   4.260   7.207   0.240
96201SOL    HW190500   4.353   7.226   0.225
96201SOL    HW290501   4.230   7.169   0.158
96202SOL     OW90502  13.741   1.068   1.981
96202SOL    HW190503  13.793   1.091   1.904
96202SOL    HW290504  13.687   0.995   1.952
96203SOL     OW90505   8.098   9.760   4.515
96203SOL    HW190506   8.016   9.723   4.547
96203SOL    HW290507   8.095   9.750   4.420
96204SOL     OW90508  11.110   7.231  11.583
96204SOL    HW190509  11.045   7.239  11.653
96204SOL    HW290510  11.133   7.321  11.561
96205SOL     OW90511  10.038   2.202   2.580
96205SOL    HW190512  10.080   2.127   2.538
96205SOL    HW290513   9.947   2.175   2.592
96206SOL     OW90514   7.258   5.127   4.673
96206SOL    HW190515   7.342   5.145   4.631
96206SOL    HW290516   7.195   5.125   4.602
96207SOL     OW90517   6.743  13.536  10.672
96207SOL    HW190518   6.660  13.546  10.719
96207SOL    HW290519   6.721  13.555  10.581
96208SOL     OW90520   9.463   7.711   4.182
96208SOL    HW190521   9.502   7.718   4.269
96208SOL    HW290522   9.518   7.766   4.126
96209SOL     OW90523   6.480   5.880   9.806
96209SOL    HW190524   6.513   5.943   9.870
96209SOL    HW290525   6.531   5.897   9.727
96210SOL     OW90526  11.242   7.873  13.178
96210SOL    HW190527  11.195   7.931  13.118
96210SOL    HW290528  11.224   7.909  13.265
96211SOL     OW90529   0.575  10.545   4.370
96211SOL    HW190530   0.555  10.467   4.317
96211SOL    HW290531   0.668  10.561   4.356
96212SOL     OW90532   8.237  12.298   1.491
96212SOL    HW190533   8.257  12.345   1.410
96212SOL    HW290534   8.216  12.367   1.554
96213SOL     OW90535   6.550  13.590   2.286
96213SOL    HW190536   6.559  13.657   2.354
96213SOL    HW290537   6.637  13.551   2.279
96214SOL     OW90538   8.072   7.320   6.538
96214SOL    HW190539   8.045   7.292   6.626
96214SOL    HW290540   8.037   7.252   6.480
96215SOL     OW90541   1.364  12.914  13.194
96215SOL    HW190542   1.427  12.858  13.149
96215SOL    HW290543   1.298  12.933  13.128
96216SOL     OW90544   3.258   2.245   4.997
96216SOL    HW190545   3.206   2.175   4.957
96216SOL    HW290546   3.345   2.206   5.009
96217SOL     OW90547   5.258   7.001   2.156
96217SOL    HW190548   5.215   6.953   2.085
96217SOL    HW290549   5.297   6.933   2.211
96218SOL     OW90550   7.985  11.848   8.167
96218SOL    HW190551   7.944  11.766   8.195
96218SOL    HW290552   7.989  11.901   8.247
96219SOL     OW90553   6.916   3.895  11.849
96219SOL    HW190554   6.973   3.831  11.892
96219SOL    HW290555   6.884   3.851  11.770
96220SOL     OW90556   0.626   9.970   4.252
96220SOL    HW190557   0.627   9.917   4.332
96220SOL    HW290558   0.606  10.059   4.282
96221SOL     OW90559   0.583  13.825   7.545
96221SOL    HW190560   0.646  13.754   7.530
96221SOL    HW290561   0.631  13.904   7.523
96222SOL     OW90562   2.044   4.288   0.449
96222SOL    HW190563   2.080   4.213   0.496
96222SOL    HW290564   1.950   4.268   0.441
96223SOL     OW90565  13.914   8.368   3.080
96223SOL    HW190566  14.003   8.369   3.116
96223SOL    HW290567  13.871   8.444   3.120
96224SOL     OW90568   8.246  14.491   3.299
96224SOL    HW190569   8.227  14.397   3.294
96224SOL    HW290570   8.197  14.522   3.374
96225SOL     OW90571   5.008   9.714  13.186
96225SOL    HW190572   4.914   9.704  13.196
96225SOL    HW290573   5.043   9.715  13.275
96226SOL     OW90574   0.466   0.653  11.804
96226SOL    HW190575   0.540   0.653  11.865
96226SOL    HW290576   0.488   0.720  11.739
96227SOL     OW90577   1.145  14.408   8.401
96227SOL    HW190578   1.123  14.439   8.313
96227SOL    HW290579   1.063  14.417   8.451
96228SOL     OW90580  10.361   5.263   4.006
96228SOL    HW190581  10.436   5.206   4.025
96228SOL    HW290582  10.372   5.337   4.066
96229SOL     OW90583  14.863  11.518  11.126
96229SOL    HW190584   0.001  11.456  11.198
96229SOL    HW290585  14.863  11.465  11.047
96230SOL     OW90586   6.643  14.484   1.758
96230SOL    HW190587   6.727  14.513   1.793
96230SOL    HW290588   6.656  14.392   1.737
96231SOL     OW90589   6.470  11.534   4.737
96231SOL    HW190590   6.418  11.536   4.818
96231SOL    HW290591   6.550  11.583   4.759
96232SOL     OW90592   4.781   9.912   2.416
96232SOL    HW190593   4.851   9.928   2.352
96232SOL    HW290594   4.809   9.959   2.494
96233SOL     OW90595   8.039   1.635   5.793
96233SOL    HW190596   8.050   1.551   5.840
96233SOL    HW290597   7.979   1.614   5.721
96234SOL     OW90598  11.541  13.832   4.219
96234SOL    HW190599  11.595  13.863   4.292
96234SOL    HW290600  11.599  13.776   4.169
96235SOL     OW90601  12.273   7.641   8.504
96235SOL    HW190602  12.267   7.715   8.443
96235SOL    HW290603  12.184   7.628   8.536
96236SOL     OW90604   4.092   0.125   7.490
96236SOL    HW190605   4.020   0.181   7.463
96236SOL    HW290606   4.138   0.104   7.408
96237SOL     OW90607   2.240   5.411  11.904
96237SOL    HW190608   2.188   5.332  11.888
96237SOL    HW290609   2.186   5.464  11.962
96238SOL     OW90610   1.387  13.544   3.485
96238SOL    HW190611   1.324  13.606   3.449
96238SOL    HW290612   1.379  13.554   3.580
96239SOL     OW90613   6.404  12.410  12.575
96239SOL    HW190614   6.434  12.380  12.489
96239SOL    HW290615   6.319  12.366  12.587
96240SOL     OW90616   8.521  13.359   2.766
96240SOL    HW190617   8.538  13.346   2.673
96240SOL    HW290618   8.608  13.369   2.805
96241SOL     OW90619  12.446   8.163  12.189
96241SOL    HW190620  12.500   8.233  12.152
96241SOL    HW290621  12.401   8.125  12.113
96242SOL     OW90622   1.269   2.640   7.779
96242SOL    HW190623   1.242   2.731   7.783
96242SOL    HW290624   1.212   2.595   7.842
96243SOL     OW90625   7.386   5.649  13.774
96243SOL    HW190626   7.354   5.692  13.854
96243SOL    HW290627   7.330   5.685  13.705
96244SOL     OW90628  14.429   3.817   6.040
96244SOL    HW190629  14.497   3.764   5.998
96244SOL    HW290630  14.393   3.759   6.108
96245SOL     OW90631   2.680   5.967   0.441
96245SOL    HW190632   2.614   6.035   0.452
96245SOL    HW290633   2.763   6.012   0.458
96246SOL     OW90634   1.388   9.051   7.416
96246SOL    HW190635   1.349   9.026   7.499
96246SOL    HW290636   1.459   8.987   7.403
96247SOL     OW90637   2.406   8.142   6.938
96247SOL    HW190638   2.352   8.156   6.861
96247SOL    HW290639   2.429   8.049   6.935
96248SOL     OW90640   5.600   1.500   4.363
96248SOL    HW190641   5.632   1.438   4.428
96248SOL    HW290642   5.635   1.585   4.391
96249SOL     OW90643   2.301   5.400   7.765
96249SOL    HW190644   2.344   5.337   7.822
96249SOL    HW290645   2.330   5.376   7.676
96250SOL     OW90646  11.835   8.664   9.859
96250SOL    HW190647  11.917   8.714   9.856
96250SOL    HW290648  11.808   8.655   9.768
96251SOL     OW90649   9.297   6.824   9.579
96251SOL    HW190650   9.277   6.814   9.672
96251SOL    HW290651   9.342   6.743   9.555
96252SOL     OW90652   5.864  11.673   6.302
96252SOL    HW190653   5.809  11.625   6.240
96252SOL    HW290654   5.805  11.736   6.344
96253SOL     OW90655   8.779   1.700   5.961
96253SOL    HW190656   8.855   1.730   5.911
96253SOL    HW290657   8.812   1.691   6.051
96254SOL     OW90658  11.796   5.002   2.716
96254SOL    HW190659  11.711   4.963   2.697
96254SOL    HW290660  11.858   4.931   2.704
96255SOL     OW90661   2.713   2.578   6.131
96255SOL    HW190662   2.732   2.595   6.223
96255SOL    HW290663   2.792   2.607   6.085
96256SOL     OW90664   1.149  14.231  14.527
96256SOL    HW190665   1.171  14.252  14.436
96256SOL    HW290666   1.054  14.230  14.529
96257SOL     OW90667   9.076  12.292   2.559
96257SOL    HW190668   9.012  12.237   2.514
96257SOL    HW290669   9.080  12.372   2.507
96258SOL     OW90670   3.857  10.938  12.988
96258SOL    HW190671   3.824  10.964  12.901
96258SOL    HW290672   3.802  10.987  13.049
96259SOL     OW90673   4.089   3.803  14.222
96259SOL    HW190674   4.127   3.716  14.207
96259SOL    HW290675   4.052   3.827  14.137
96260SOL     OW90676  13.383  12.647   2.460
96260SOL    HW190677  13.437  12.582   2.416
96260SOL    HW290678  13.356  12.605   2.542
96261SOL     OW90679   6.293  12.858   7.428
96261SOL    HW190680   6.346  12.909   7.366
96261SOL    HW290681   6.337  12.871   7.512
96262SOL     OW90682  14.447  10.158   9.537
96262SOL    HW190683  14.458  10.186   9.628
96262SOL    HW290684  14.354  10.173   9.518
96263SOL     OW90685   0.475   4.842  12.736
96263SOL    HW190686   0.531   4.821  12.810
96263SOL    HW290687   0.528   4.821  12.659
96264SOL     OW90688   4.362   9.549   4.374
96264SOL    HW190689   4.407   9.512   4.450
96264SOL    HW290690   4.279   9.502   4.371
96265SOL     OW90691   8.019   7.217  11.891
96265SOL    HW190692   8.106   7.249  11.913
96265SOL    HW290693   8.001   7.148  11.955
96266SOL     OW90694  10.130  14.323  11.859
96266SOL    HW190695  10.083  14.327  11.942
96266SOL    HW290696  10.159  14.413  11.843
96267SOL     OW90697  12.874  10.213   7.278
96267SOL    HW190698  12.914  10.289   7.320
96267SOL    HW290699  12.947  10.154   7.261
96268SOL     OW90700  10.010   5.961  14.395
96268SOL    HW190701   9.965   5.895  14.447
96268SOL    HW290702   9.942   6.025  14.374
96269SOL     OW90703   9.471   2.285   4.841
96269SOL    HW190704   9.414   2.208   4.831
96269SOL    HW290705   9.558   2.248   4.854
96270SOL     OW90706   7.396   6.433   4.366
96270SOL    HW190707   7.393   6.360   4.428
96270SOL    HW290708   7.370   6.509   4.419
96271SOL     OW90709   2.957   9.370   2.916
96271SOL    HW190710   2.893   9.386   2.985
96271SOL    HW290711   2.940   9.280   2.888
96272SOL     OW90712  10.078   6.245  13.384
96272SOL    HW190713  10.026   6.217  13.460
96272SOL    HW290714  10.028   6.316  13.344
96273SOL     OW90715  13.762   5.084  10.072
96273SOL    HW190716  13.706   5.125  10.006
96273SOL    HW290717  13.777   4.996  10.038
96274SOL     OW90718  10.833   9.431   2.930
96274SOL    HW190719  10.779   9.503   2.962
96274SOL    HW290720  10.890   9.471   2.864
96275SOL     OW90721   0.354   9.681   0.936
96275SOL    HW190722   0.302   9.606   0.965
96275SOL    HW290723   0.291   9.753   0.930
96276SOL     OW90724  13.594  12.181   5.122
96276SOL    HW190725  13.625  12.269   5.141
96276SOL    HW290726  13.662  12.123   5.158
96277SOL     OW90727  11.018  13.253   0.446
96277SOL    HW190728  10.974  13.261   0.530
96277SOL    HW290729  11.054  13.340   0.428
96278SOL     OW90730   5.824  11.490  11.790
96278SOL    HW190731   5.865  11.522  11.709
96278SOL    HW290732   5.823  11.566  11.848
96279SOL     OW90733  11.371   2.180   9.396
96279SOL    HW190734  11.414   2.139   9.470
96279SOL    HW290735  11.301   2.233   9.435
96280SOL     OW90736   1.467   9.458   8.407
96280SOL    HW190737   1.536   9.512   8.370
96280SOL    HW290738   1.447   9.499   8.491
96281SOL     OW90739   7.089   2.835   5.376
96281SOL    HW190740   7.031   2.869   5.307
96281SOL    HW290741   7.031   2.824   5.452
96282SOL     OW90742   4.866  12.534   5.266
96282SOL    HW190743   4.777  12.503   5.252
96282SOL    HW290744   4.866  12.569   5.355
96283SOL     OW90745   5.267   1.311   3.633
96283SOL    HW190746   5.300   1.281   3.548
96283SOL    HW290747   5.293   1.403   3.637
96284SOL     OW90748   1.589  10.817   3.928
96284SOL    HW190749   1.585  10.762   4.006
96284SOL    HW290750   1.598  10.906   3.963
96285SOL     OW90751   4.862   8.871  12.217
96285SOL    HW190752   4.767   8.885  12.215
96285SOL    HW290753   4.884   8.847  12.127
96286SOL     OW90754   1.354  13.693  10.088
96286SOL    HW190755   1.306  13.766  10.127
96286SOL    HW290756   1.417  13.666  10.155
96287SOL     OW90757  13.957   7.158  14.858
96287SOL    HW190758  13.955   7.075  14.810
96287SOL    HW290759  13.912   7.220  14.801
96288SOL     OW90760   3.588  14.828   9.443
96288SOL    HW190761   3.648   0.023   9.406
96288SOL    HW290762   3.536  14.799   9.369
96289SOL     OW90763   7.929   7.034   1.564
96289SOL    HW190764   7.980   7.111   1.591
96289SOL    HW290765   7.864   7.068   1.502
96290SOL     OW90766   4.634   8.942   3.809
96290SOL    HW190767   4.709   8.886   3.786
96290SOL    HW290768   4.663   9.030   3.786
96291SOL     OW90769   8.377   0.087   7.153
96291SOL    HW190770   8.402   0.110   7.243
96291SOL    HW290771   8.341   0.169   7.117
96292SOL     OW90772   8.385  10.290  13.530
96292SOL    HW190773   8.299  10.322  13.503
96292SOL    HW290774   8.370  10.201  13.560
96293SOL     OW90775  11.449   2.496   2.802
96293SOL    HW190776  11.524   2.445   2.772
96293SOL    HW290777  11.481   2.542   2.880
96294SOL     OW90778  14.823   2.652  13.984
96294SOL    HW190779  14.833   2.568  14.030
96294SOL    HW290780   0.042   2.689  13.983
96295SOL     OW90781   6.464   7.180  11.023
96295SOL    HW190782   6.484   7.110  10.961
96295SOL    HW290783   6.444   7.256  10.967
96296SOL     OW90784   0.535  12.574  13.567
96296SOL    HW190785   0.498  12.589  13.479
96296SOL    HW290786   0.462  12.536  13.617
96297SOL     OW90787   8.712   3.849   5.742
96297SOL    HW190788   8.715   3.768   5.793
96297SOL    HW290789   8.803   3.881   5.744
96298SOL     OW90790   0.373  13.296   9.851
96298SOL    HW190791   0.388  13.381   9.811
96298SOL    HW290792   0.424  13.298   9.932
96299SOL     OW90793   5.804  12.028   5.181
96299SOL    HW190794   5.839  11.957   5.127
96299SOL    HW290795   5.850  12.019   5.265
96300SOL     OW90796   5.901  11.973   7.558
96300SOL    HW190797   5.950  11.948   7.636
96300SOL    HW290798   5.960  11.955   7.485
96301SOL     OW90799   9.239  14.732  14.421
96301SOL    HW190800   9.280  14.693  14.498
96301SOL    HW290801   9.312  14.750  14.362
96302SOL     OW90802   8.577   1.984  13.519
96302SOL    HW190803   8.515   2.056  13.510
96302SOL    HW290804   8.615   1.996  13.606
96303SOL     OW90805  13.246   3.541   2.162
96303SOL    HW190806  13.246   3.550   2.066
96303SOL    HW290807  13.269   3.450   2.178
96304SOL     OW90808   7.232   9.821  13.963
96304SOL    HW190809   7.214   9.739  14.009
96304SOL    HW290810   7.238   9.796  13.871
96305SOL     OW90811   3.300  11.526   3.064
96305SOL    HW190812   3.373  11.583   3.040
96305SOL    HW290813   3.331  11.478   3.141
96306SOL     OW90814   6.200   9.017   7.759
96306SOL    HW190815   6.282   8.967   7.761
96306SOL    HW290816   6.150   8.980   7.687
96307SOL     OW90817   9.487  11.341  12.571
96307SOL    HW190818   9.522  11.425  12.542
96307SOL    HW290819   9.541  11.317  12.646
96308SOL     OW90820   6.613   4.063   0.198
96308SOL    HW190821   6.580   3.979   0.228
96308SOL    HW290822   6.568   4.127   0.253
96309SOL     OW90823   5.995  10.750  11.901
96309SOL    HW190824   5.921  10.693  11.879
96309SOL    HW290825   6.067  10.718  11.846
96310SOL     OW90826   5.404   3.414  10.346
96310SOL    HW190827   5.371   3.452  10.427
96310SOL    HW290828   5.498   3.430  10.349
96311SOL     OW90829  13.083   7.989   8.083
96311SOL    HW190830  13.016   7.921   8.076
96311SOL    HW290831  13.108   7.989   8.176
96312SOL     OW90832   3.478   8.730   8.118
96312SOL    HW190833   3.458   8.813   8.075
96312SOL    HW290834   3.552   8.750   8.175
96313SOL     OW90835  10.245  11.120   9.080
96313SOL    HW190836  10.209  11.126   9.168
96313SOL    HW290837  10.328  11.167   9.084
96314SOL     OW90838  14.153   6.729  11.734
96314SOL    HW190839  14.061   6.757  11.735
96314SOL    HW290840  14.150   6.637  11.760
96315SOL     OW90841   6.626   7.668  12.680
96315SOL    HW190842   6.675   7.650  12.600
96315SOL    HW290843   6.667   7.612  12.746
96316SOL     OW90844   6.760   6.835   3.317
96316SOL    HW190845   6.707   6.913   3.333
96316SOL    HW290846   6.779   6.800   3.404
96317SOL     OW90847  14.184   5.707   0.753
96317SOL    HW190848  14.202   5.655   0.831
96317SOL    HW290849  14.266   5.753   0.735
96318SOL     OW90850  10.689   2.567   5.867
96318SOL    HW190851  10.748   2.526   5.930
96318SOL    HW290852  10.656   2.494   5.814
96319SOL     OW90853   8.205   0.549   5.888
96319SOL    HW190854   8.132   0.487   5.894
96319SOL    HW290855   8.197   0.603   5.967
96320SOL     OW90856   8.779  12.108   3.238
96320SOL    HW190857   8.855  12.120   3.296
96320SOL    HW290858   8.704  12.110   3.297
96321SOL     OW90859  10.231   0.118  13.129
96321SOL    HW190860  10.169   0.138  13.200
96321SOL    HW290861  10.234   0.198  13.077
96322SOL     OW90862  13.727   4.840   7.211
96322SOL    HW190863  13.709   4.895   7.135
96322SOL    HW290864  13.685   4.885   7.284
96323SOL     OW90865   0.526   8.040   9.736
96323SOL    HW190866   0.449   8.097   9.748
96323SOL    HW290867   0.497   7.954   9.765
96324SOL     OW90868  13.095  11.088   6.065
96324SOL    HW190869  13.037  11.021   6.028
96324SOL    HW290870  13.124  11.139   5.990
96325SOL     OW90871   0.431   1.506   3.463
96325SOL    HW190872   0.409   1.537   3.551
96325SOL    HW290873   0.366   1.547   3.406
96326SOL     OW90874  11.290  12.937   5.618
96326SOL    HW190875  11.277  12.842   5.610
96326SOL    HW290876  11.343  12.947   5.697
96327SOL     OW90877   7.993  13.982   7.757
96327SOL    HW190878   8.039  14.033   7.691
96327SOL    HW290879   7.916  14.034   7.779
96328SOL     OW90880   0.695  13.287   2.092
96328SOL    HW190881   0.734  13.375   2.090
96328SOL    HW290882   0.755  13.233   2.041
96329SOL     OW90883   3.177   1.667   2.825
96329SOL    HW190884   3.188   1.576   2.797
96329SOL    HW290885   3.186   1.663   2.921
96330SOL     OW90886   0.225  14.866   3.617
96330SOL    HW190887   0.148  14.825   3.576
96330SOL    HW290888   0.233   0.081   3.574
96331SOL     OW90889   2.379  12.561   6.669
96331SOL    HW190890   2.425  12.506   6.605
96331SOL    HW290891   2.447  12.619   6.703
96332SOL     OW90892   2.594   6.470  10.273
96332SOL    HW190893   2.654   6.523  10.221
96332SOL    HW290894   2.643   6.451  10.353
96333SOL     OW90895   4.235  11.765   0.862
96333SOL    HW190896   4.230  11.671   0.881
96333SOL    HW290897   4.329  11.783   0.856
96334SOL     OW90898   4.780   3.782   0.732
96334SOL    HW190899   4.727   3.728   0.791
96334SOL    HW290900   4.724   3.857   0.713
96335SOL     OW90901   3.114  13.542   4.448
96335SOL    HW190902   3.205  13.572   4.445
96335SOL    HW290903   3.072  13.589   4.376
96336SOL     OW90904   5.654   3.203   8.727
96336SOL    HW190905   5.571   3.200   8.775
96336SOL    HW290906   5.716   3.242   8.788
96337SOL     OW90907   7.700  13.683   1.386
96337SOL    HW190908   7.773  13.693   1.448
96337SOL    HW290909   7.720  13.603   1.338
96338SOL     OW90910  14.374   5.583   6.696
96338SOL    HW190911  14.445   5.598   6.633
96338SOL    HW290912  14.361   5.488   6.696
96339SOL     OW90913   1.145  12.395   5.033
96339SOL    HW190914   1.076  12.335   5.004
96339SOL    HW290915   1.222  12.339   5.043
96340SOL     OW90916   4.065   9.908   1.564
96340SOL    HW190917   4.067   9.832   1.506
96340SOL    HW290918   4.033   9.980   1.509
96341SOL     OW90919   1.936   0.372   6.488
96341SOL    HW190920   2.023   0.334   6.501
96341SOL    HW290921   1.931   0.388   6.394
96342SOL     OW90922   2.099   5.955  11.571
96342SOL    HW190923   2.166   5.978  11.635
96342SOL    HW290924   2.065   5.870  11.601
96343SOL     OW90925  10.848   7.042   9.703
96343SOL    HW190926  10.855   6.956   9.660
96343SOL    HW290927  10.937   7.060   9.733
96344SOL     OW90928  12.598  14.101   1.210
96344SOL    HW190929  12.562  14.171   1.263
96344SOL    HW290930  12.685  14.084   1.249
96345SOL     OW90931  10.739   8.588   3.935
96345SOL    HW190932  10.683   8.649   3.984
96345SOL    HW290933  10.748   8.628   3.849
96346SOL     OW90934   4.065   5.512   8.055
96346SOL    HW190935   4.050   5.591   8.108
96346SOL    HW290936   4.143   5.532   8.003
96347SOL     OW90937   4.237  14.517   3.491
96347SOL    HW190938   4.262  14.565   3.570
96347SOL    HW290939   4.142  14.510   3.496
96348SOL     OW90940  10.117  10.008   4.739
96348SOL    HW190941  10.021  10.005   4.743
96348SOL    HW290942  10.142  10.058   4.817
96349SOL     OW90943   0.486  10.710  14.364
96349SOL    HW190944   0.550  10.781  14.357
96349SOL    HW290945   0.529  10.645  14.420
96350SOL     OW90946   5.870  11.294   4.005
96350SOL    HW190947   5.841  11.250   4.085
96350SOL    HW290948   5.791  11.302   3.952
96351SOL     OW90949   6.732   9.744  13.650
96351SOL    HW190950   6.786   9.695  13.712
96351SOL    HW290951   6.642   9.726  13.678
96352SOL     OW90952  11.528   7.905   5.954
96352SOL    HW190953  11.459   7.900   6.020
96352SOL    HW290954  11.495   7.853   5.881
96353SOL     OW90955   2.849   0.031  11.333
96353SOL    HW190956   2.758   0.003  11.342
96353SOL    HW290957   2.899  14.820  11.325
96354SOL     OW90958   4.325  11.809   7.770
96354SOL    HW190959   4.351  11.751   7.842
96354SOL    HW290960   4.300  11.891   7.813
96355SOL     OW90961  14.087   4.794  14.020
96355SOL    HW190962  14.068   4.879  13.980
96355SOL    HW290963  14.027   4.733  13.976
96356SOL     OW90964  10.922  14.777   5.946
96356SOL    HW190965  10.983  14.805   5.878
96356SOL    HW290966  10.842  14.826   5.928
96357SOL     OW90967   9.154   2.222   9.820
96357SOL    HW190968   9.139   2.273   9.900
96357SOL    HW290969   9.071   2.225   9.774
96358SOL     OW90970  14.055  10.891   2.438
96358SOL    HW190971  14.139  10.936   2.432
96358SOL    HW290972  13.999  10.949   2.490
96359SOL     OW90973   6.811  10.784  11.101
96359SOL    HW190974   6.892  10.733  11.103
96359SOL    HW290975   6.840  10.875  11.108
96360SOL     OW90976  12.751   6.313   4.563
96360SOL    HW190977  12.809   6.237   4.562
96360SOL    HW290978  12.806   6.385   4.594
96361SOL     OW90979   3.392  12.559   8.874
96361SOL    HW190980   3.462  12.494   8.881
96361SOL    HW290981   3.336  12.528   8.803
96362SOL     OW90982   3.119   2.240  11.044
96362SOL    HW190983   3.057   2.312  11.057
96362SOL    HW290984   3.064   2.166  11.016
96363SOL     OW90985  12.659   6.265   8.630
96363SOL    HW190986  12.566   6.245   8.640
96363SOL    HW290987  12.702   6.179   8.638
96364SOL     OW90988  12.259   6.030   5.765
96364SOL    HW190989  12.256   6.069   5.853
96364SOL    HW290990  12.352   6.015   5.748
96365SOL     OW90991  12.720   8.797   7.234
96365SOL    HW190992  12.764   8.727   7.185
96365SOL    HW290993  12.773   8.874   7.218
96366SOL     OW90994  12.747   4.687   0.729
96366SOL    HW190995  12.759   4.596   0.703
96366SOL    HW290996  12.702   4.682   0.814
96367SOL     OW90997   9.960   5.397   4.542
96367SOL    HW190998   9.995   5.471   4.591
96367SOL    HW290999   9.999   5.405   4.455
96368SOL     OW91000   0.151   0.556  14.553
96368SOL    HW191001   0.239   0.590  14.563
96368SOL    HW291002   0.155   0.467  14.588
96369SOL     OW91003   0.130   1.241   9.871
96369SOL    HW191004   0.093   1.320   9.831
96369SOL    HW291005   0.154   1.186   9.797
96370SOL     OW91006  13.522  14.811  10.012
96370SOL    HW191007  13.470  14.832   9.935
96370SOL    HW291008  13.530   0.025  10.059
96371SOL     OW91009  12.392   6.247  11.792
96371SOL    HW191010  12.335   6.319  11.763
96371SOL    HW291011  12.343   6.168  11.770
96372SOL     OW91012  10.343   4.851   6.695
96372SOL    HW191013  10.308   4.840   6.783
96372SOL    HW291014  10.309   4.776   6.646
96373SOL     OW91015   5.978   7.323  13.695
96373SOL    HW191016   5.886   7.319  13.668
96373SOL    HW291017   6.022   7.366  13.621
96374SOL     OW91018   9.886   7.157   6.965
96374SOL    HW191019   9.816   7.180   7.026
96374SOL    HW291020   9.913   7.069   6.992
96375SOL     OW91021   5.289   4.691   1.629
96375SOL    HW191022   5.215   4.637   1.602
96375SOL    HW291023   5.353   4.629   1.665
96376SOL     OW91024   0.702   1.200   6.924
96376SOL    HW191025   0.695   1.233   6.835
96376SOL    HW291026   0.796   1.203   6.943
96377SOL     OW91027   6.111  11.320   3.717
96377SOL    HW191028   6.134  11.321   3.810
96377SOL    HW291029   6.127  11.410   3.687
96378SOL     OW91030   3.055   8.764   1.256
96378SOL    HW191031   3.067   8.855   1.227
96378SOL    HW291032   3.002   8.771   1.335
96379SOL     OW91033  11.809  14.402  12.388
96379SOL    HW191034  11.770  14.315  12.393
96379SOL    HW291035  11.805  14.424  12.295
96380SOL     OW91036  14.823  14.521   5.598
96380SOL    HW191037  14.837  14.615   5.593
96380SOL    HW291038  14.788  14.496   5.512
96381SOL     OW91039   6.501   5.764  13.016
96381SOL    HW191040   6.549   5.844  12.994
96381SOL    HW291041   6.569   5.696  13.022
96382SOL     OW91042   3.794   7.091   0.097
96382SOL    HW191043   3.786   7.073   0.191
96382SOL    HW291044   3.822   7.008   0.060
96383SOL     OW91045   4.214  10.446   9.855
96383SOL    HW191046   4.162  10.438   9.775
96383SOL    HW291047   4.269  10.368   9.856
96384SOL     OW91048   8.008  12.354   3.446
96384SOL    HW191049   7.948  12.428   3.447
96384SOL    HW291050   7.954  12.281   3.415
96385SOL     OW91051   2.607   3.448   0.754
96385SOL    HW191052   2.636   3.372   0.705
96385SOL    HW291053   2.516   3.460   0.728
96386SOL     OW91054   1.925   0.298   4.409
96386SOL    HW191055   2.015   0.266   4.410
96386SOL    HW291056   1.880   0.244   4.474
96387SOL     OW91057   3.803   4.562  13.773
96387SOL    HW191058   3.846   4.639  13.738
96387SOL    HW291059   3.837   4.489  13.721
96388SOL     OW91060  12.103   3.432  11.125
96388SOL    HW191061  12.077   3.342  11.143
96388SOL    HW291062  12.030   3.485  11.158
96389SOL     OW91063  12.460  14.172  10.673
96389SOL    HW191064  12.526  14.106  10.696
96389SOL    HW291065  12.377  14.132  10.698
96390SOL     OW91066   5.124   0.286  10.321
96390SOL    HW191067   5.110   0.271  10.415
96390SOL    HW291068   5.220   0.288  10.312
96391SOL     OW91069  11.089   2.246  12.555
96391SOL    HW191070  11.124   2.335  12.557
96391SOL    HW291071  11.081   2.226  12.461
96392SOL     OW91072   7.823  11.206   6.660
96392SOL    HW191073   7.861  11.120   6.674
96392SOL    HW291074   7.734  11.189   6.630
96393SOL     OW91075  10.781  13.641   8.292
96393SOL    HW191076  10.737  13.692   8.360
96393SOL    HW291077  10.712  13.588   8.253
96394SOL     OW91078   8.893   4.220   6.161
96394SOL    HW191079   8.799   4.222   6.179
96394SOL    HW291080   8.916   4.310   6.140
96395SOL     OW91081   9.314  13.860   0.200
96395SOL    HW191082   9.250  13.910   0.149
96395SOL    HW291083   9.388  13.920   0.211
96396SOL     OW91084  13.246   6.810   0.431
96396SOL    HW191085  13.177   6.755   0.393
96396SOL    HW291086  13.222   6.899   0.406
96397SOL     OW91087   7.210  13.318   5.916
96397SOL    HW191088   7.153  13.372   5.861
96397SOL    HW291089   7.155  13.246   5.947
96398SOL     OW91090   4.096   5.804   3.020
96398SOL    HW191091   4.034   5.744   3.061
96398SOL    HW291092   4.181   5.761   3.029
96399SOL     OW91093   2.101  13.129   9.840
96399SOL    HW191094   2.100  13.070   9.764
96399SOL    HW291095   2.037  13.090   9.900
96400SOL     OW91096  13.671  12.033  13.046
96400SOL    HW191097  13.596  12.039  13.105
96400SOL    HW291098  13.748  12.040  13.103
96401SOL     OW91099   4.905   8.923   8.780
96401SOL    HW191100   4.837   8.990   8.787
96401SOL    HW291101   4.986   8.972   8.765
96402SOL     OW91102   7.204   9.674  12.120
96402SOL    HW191103   7.289   9.633  12.134
96402SOL    HW291104   7.150   9.645  12.193
96403SOL     OW91105   2.314   8.761   4.124
96403SOL    HW191106   2.303   8.679   4.171
96403SOL    HW291107   2.226   8.784   4.094
96404SOL     OW91108   9.809   3.880  13.635
96404SOL    HW191109   9.865   3.807  13.606
96404SOL    HW291110   9.720   3.844  13.632
96405SOL     OW91111   4.179   2.282   7.438
96405SOL    HW191112   4.107   2.224   7.411
96405SOL    HW291113   4.258   2.236   7.411
96406SOL     OW91114  12.626   2.339  12.442
96406SOL    HW191115  12.571   2.385  12.379
96406SOL    HW291116  12.708   2.387  12.443
96407SOL     OW91117   2.201  14.732   6.224
96407SOL    HW191118   2.243  14.795   6.282
96407SOL    HW291119   2.273  14.681   6.187
96408SOL     OW91120   0.128   0.827   5.779
96408SOL    HW191121   0.138   0.919   5.754
96408SOL    HW291122   0.176   0.779   5.711
96409SOL     OW91123  12.578  11.671   5.731
96409SOL    HW191124  12.646  11.699   5.792
96409SOL    HW291125  12.599  11.579   5.712
96410SOL     OW91126  13.837   4.337   7.053
96410SOL    HW191127  13.797   4.421   7.074
96410SOL    HW291128  13.790   4.306   6.976
96411SOL     OW91129  14.685   9.266   0.813
96411SOL    HW191130  14.707   9.207   0.884
96411SOL    HW291131  14.643   9.341   0.856
96412SOL     OW91132   1.355  10.929   4.772
96412SOL    HW191133   1.372  10.879   4.852
96412SOL    HW291134   1.392  10.874   4.702
96413SOL     OW91135   9.719   9.140  12.236
96413SOL    HW191136   9.730   9.191  12.316
96413SOL    HW291137   9.789   9.171  12.178
96414SOL     OW91138  11.868   1.822   8.215
96414SOL    HW191139  11.854   1.730   8.236
96414SOL    HW291140  11.828   1.870   8.287
96415SOL     OW91141   3.352   0.284   0.593
96415SOL    HW191142   3.407   0.246   0.525
96415SOL    HW291143   3.393   0.368   0.612
96416SOL     OW91144   0.769   6.044  11.048
96416SOL    HW191145   0.722   6.118  11.086
96416SOL    HW291146   0.859   6.056  11.078
96417SOL     OW91147   2.237   1.420   5.456
96417SOL    HW191148   2.322   1.390   5.424
96417SOL    HW291149   2.206   1.480   5.388
96418SOL     OW91150  11.484  13.256  13.857
96418SOL    HW191151  11.555  13.215  13.807
96418SOL    HW291152  11.508  13.348  13.864
96419SOL     OW91153   6.466   5.680   9.587
96419SOL    HW191154   6.378   5.713   9.572
96419SOL    HW291155   6.519   5.759   9.603
96420SOL     OW91156   9.962   7.413  13.765
96420SOL    HW191157   9.987   7.463  13.842
96420SOL    HW291158  10.041   7.409  13.711
96421SOL     OW91159  10.759  14.136  13.567
96421SOL    HW191160  10.798  14.116  13.652
96421SOL    HW291161  10.832  14.130  13.506
96422SOL     OW91162   8.225   5.496   3.425
96422SOL    HW191163   8.172   5.423   3.395
96422SOL    HW291164   8.316   5.468   3.410
96423SOL     OW91165   0.831  11.339   4.174
96423SOL    HW191166   0.891  11.387   4.231
96423SOL    HW291167   0.785  11.279   4.232
96424SOL     OW91168   0.110   2.535  10.404
96424SOL    HW191169   0.108   2.624  10.367
96424SOL    HW291170   0.181   2.538  10.468
96425SOL     OW91171   1.646   7.501   8.644
96425SOL    HW191172   1.692   7.514   8.726
96425SOL    HW291173   1.654   7.585   8.598
96426SOL     OW91174  12.303  14.157  12.684
96426SOL    HW191175  12.233  14.185  12.626
96426SOL    HW291176  12.369  14.226  12.677
96427SOL     OW91177   8.990   1.455   4.996
96427SOL    HW191178   8.898   1.446   4.972
96427SOL    HW291179   9.024   1.366   4.995
96428SOL     OW91180   7.497   0.238   9.263
96428SOL    HW191181   7.407   0.269   9.257
96428SOL    HW291182   7.520   0.214   9.173
96429SOL     OW91183   6.234  13.320  13.965
96429SOL    HW191184   6.169  13.315  13.895
96429SOL    HW291185   6.295  13.388  13.937
96430SOL     OW91186  13.010  13.642  10.822
96430SOL    HW191187  13.014  13.547  10.823
96430SOL    HW291188  12.918  13.661  10.800
96431SOL     OW91189   9.436   4.553   8.911
96431SOL    HW191190   9.428   4.499   8.990
96431SOL    HW291191   9.384   4.507   8.845
96432SOL     OW91192  11.744  12.969   2.143
96432SOL    HW191193  11.799  12.956   2.066
96432SOL    HW291194  11.749  13.063   2.160
96433SOL     OW91195   9.239   7.596  14.095
96433SOL    HW191196   9.265   7.507  14.117
96433SOL    HW291197   9.320   7.637  14.063
96434SOL     OW91198  12.703   5.956   4.986
96434SOL    HW191199  12.758   6.022   4.944
96434SOL    HW291200  12.725   5.875   4.941
96435SOL     OW91201   6.756  13.710   7.809
96435SOL    HW191202   6.740  13.802   7.831
96435SOL    HW291203   6.683  13.663   7.850
96436SOL     OW91204  10.209   1.046   1.646
96436SOL    HW191205  10.213   1.007   1.733
96436SOL    HW291206  10.127   1.016   1.610
96437SOL     OW91207   5.670   5.382   5.864
96437SOL    HW191208   5.700   5.323   5.795
96437SOL    HW291209   5.737   5.376   5.931
96438SOL     OW91210   1.509  11.070   4.330
96438SOL    HW191211   1.530  11.008   4.260
96438SOL    HW291212   1.579  11.059   4.394
96439SOL     OW91213   1.751   1.147   4.709
96439SOL    HW191214   1.692   1.185   4.644
96439SOL    HW291215   1.783   1.221   4.760
96440SOL     OW91216   1.506   6.630   6.488
96440SOL    HW191217   1.427   6.674   6.455
96440SOL    HW291218   1.481   6.539   6.498
96441SOL     OW91219   8.111  13.139   3.462
96441SOL    HW191220   8.128  13.233   3.470
96441SOL    HW291221   8.118  13.105   3.551
96442SOL     OW91222   7.919   7.153   2.465
96442SOL    HW191223   7.965   7.178   2.385
96442SOL    HW291224   7.828   7.179   2.449
96443SOL     OW91225   9.088   7.210   8.311
96443SOL    HW191226   9.172   7.163   8.304
96443SOL    HW291227   9.031   7.165   8.249
96444SOL     OW91228   3.193   9.056   8.106
96444SOL    HW191229   3.242   8.975   8.097
96444SOL    HW291230   3.101   9.030   8.096
96445SOL     OW91231  13.822   8.580  14.748
96445SOL    HW191232  13.757   8.519  14.713
96445SOL    HW291233  13.896   8.574  14.687
96446SOL     OW91234   9.410   7.955   6.957
96446SOL    HW191235   9.362   8.014   6.900
96446SOL    HW291236   9.347   7.931   7.025
96447SOL     OW91237   9.452   5.281   7.628
96447SOL    HW191238   9.364   5.245   7.616
96447SOL    HW291239   9.504   5.239   7.558
96448SOL     OW91240   4.573  11.885  10.161
96448SOL    HW191241   4.605  11.964  10.205
96448SOL    HW291242   4.588  11.815  10.224
96449SOL     OW91243  12.053   8.313  10.290
96449SOL    HW191244  12.074   8.372  10.218
96449SOL    HW291245  12.078   8.362  10.369
96450SOL     OW91246   0.883  12.213   4.518
96450SOL    HW191247   0.932  12.237   4.439
96450SOL    HW291248   0.909  12.122   4.536
96451SOL     OW91249   0.174  12.764  10.381
96451SOL    HW191250   0.139  12.736  10.296
96451SOL    HW291251   0.216  12.848  10.363
96452SOL     OW91252  10.814   2.090   8.104
96452SOL    HW191253  10.809   2.182   8.079
96452SOL    HW291254  10.723   2.060   8.102
96453SOL     OW91255   9.876   4.280  13.285
96453SOL    HW191256   9.857   4.353  13.343
96453SOL    HW291257   9.890   4.206  13.345
96454SOL     OW91258   1.369   9.734  13.268
96454SOL    HW191259   1.445   9.778  13.307
96454SOL    HW291260   1.365   9.769  13.179
96455SOL     OW91261   6.064   0.803   0.522
96455SOL    HW191262   6.133   0.820   0.586
96455SOL    HW291263   6.079   0.867   0.453
96456SOL     OW91264  11.002   9.923  11.602
96456SOL    HW191265  10.996   9.927  11.697
96456SOL    HW291266  10.982   9.832  11.581
96457SOL     OW91267   9.505   9.836  11.872
96457SOL    HW191268   9.503   9.851  11.966
96457SOL    HW291269   9.435   9.774  11.856
96458SOL     OW91270  11.508  14.374   5.803
96458SOL    HW191271  11.502  14.395   5.709
96458SOL    HW291272  11.503  14.459   5.847
96459SOL     OW91273   8.485   7.277  14.366
96459SOL    HW191274   8.470   7.300  14.457
96459SOL    HW291275   8.574   7.240  14.364
96460SOL     OW91276   7.749   2.545   9.026
96460SOL    HW191277   7.766   2.630   8.986
96460SOL    HW291278   7.689   2.564   9.098
96461SOL     OW91279   3.811   9.719   7.035
96461SOL    HW191280   3.829   9.629   7.008
96461SOL    HW291281   3.833   9.721   7.128
96462SOL     OW91282  10.294   3.564  10.407
96462SOL    HW191283  10.205   3.536  10.427
96462SOL    HW291284  10.289   3.597  10.317
96463SOL     OW91285  14.816   1.957   9.932
96463SOL    HW191286   0.024   2.012   9.921
96463SOL    HW291287  14.744   2.011   9.902
96464SOL     OW91288   1.218  12.381   4.223
96464SOL    HW191289   1.236  12.426   4.141
96464SOL    HW291290   1.263  12.434   4.289
96465SOL     OW91291   1.871   7.063   7.531
96465SOL    HW191292   1.842   7.116   7.605
96465SOL    HW291293   1.965   7.051   7.545
96466SOL     OW91294   8.914   9.050  13.981
96466SOL    HW191295   8.964   9.116  14.030
96466SOL    HW291296   8.959   8.968  13.998
96467SOL     OW91297   3.574  13.561  14.624
96467SOL    HW191298   3.491  13.513  14.615
96467SOL    HW291299   3.607  13.536  14.710
96468SOL     OW91300  11.835  13.732   0.905
96468SOL    HW191301  11.805  13.703   0.991
96468SOL    HW291302  11.815  13.825   0.903
96469SOL     OW91303   3.747   8.056   3.330
96469SOL    HW191304   3.747   8.137   3.382
96469SOL    HW291305   3.760   7.986   3.395
96470SOL     OW91306   0.038   6.646   7.743
96470SOL    HW191307   0.032   6.729   7.695
96470SOL    HW291308   0.034   6.672   7.835
96471SOL     OW91309   1.188   1.008   4.944
96471SOL    HW191310   1.277   1.021   4.976
96471SOL    HW291311   1.190   1.040   4.854
96472SOL     OW91312   3.345  11.607   1.107
96472SOL    HW191313   3.406  11.680   1.096
96472SOL    HW291314   3.277  11.623   1.042
96473SOL     OW91315  13.723   0.066   8.643
96473SOL    HW191316  13.684   0.126   8.579
96473SOL    HW291317  13.717  14.850   8.601
96474SOL     OW91318   5.817   0.739   1.173
96474SOL    HW191319   5.782   0.668   1.119
96474SOL    HW291320   5.807   0.708   1.263
96475SOL     OW91321   7.583   3.609  11.951
96475SOL    HW191322   7.598   3.575  11.862
96475SOL    HW291323   7.646   3.681  11.960
96476SOL     OW91324  10.251   9.187   2.958
96476SOL    HW191325  10.270   9.251   3.026
96476SOL    HW291326  10.334   9.144   2.941
96477SOL     OW91327   4.286  13.489   5.773
96477SOL    HW191328   4.223  13.536   5.719
96477SOL    HW291329   4.285  13.399   5.739
96478SOL     OW91330   3.108   7.254  14.826
96478SOL    HW191331   3.165   7.178  14.841
96478SOL    HW291332   3.120   7.275  14.734
96479SOL     OW91333   8.068   9.966  13.175
96479SOL    HW191334   7.996   9.967  13.238
96479SOL    HW291335   8.054  10.043  13.121
96480SOL     OW91336  12.114   8.587   6.473
96480SOL    HW191337  12.037   8.599   6.528
96480SOL    HW291338  12.099   8.644   6.398
96481SOL     OW91339   3.050   0.223   4.207
96481SOL    HW191340   2.973   0.266   4.169
96481SOL    HW291341   3.083   0.287   4.270
96482SOL     OW91342   7.288   7.815  11.703
96482SOL    HW191343   7.369   7.768  11.721
96482SOL    HW291344   7.222   7.772  11.758
96483SOL     OW91345   8.777  13.521  14.230
96483SOL    HW191346   8.817  13.488  14.150
96483SOL    HW291347   8.726  13.597  14.201
96484SOL     OW91348  11.031   5.623  10.520
96484SOL    HW191349  11.107   5.668  10.558
96484SOL    HW291350  11.040   5.635  10.426
96485SOL     OW91351  14.673   7.548   9.340
96485SOL    HW191352  14.733   7.622   9.343
96485SOL    HW291353  14.731   7.472   9.329
96486SOL     OW91354   8.514   7.891  13.866
96486SOL    HW191355   8.554   7.817  13.911
96486SOL    HW291356   8.440   7.916  13.921
96487SOL     OW91357   5.458   1.369  14.209
96487SOL    HW191358   5.385   1.430  14.195
96487SOL    HW291359   5.504   1.367  14.125
96488SOL     OW91360   9.302   1.980   4.205
96488SOL    HW191361   9.244   1.991   4.280
96488SOL    HW291362   9.257   1.917   4.149
96489SOL     OW91363  12.140   3.418   1.956
96489SOL    HW191364  12.224   3.372   1.951
96489SOL    HW291365  12.162   3.506   1.984
96490SOL     OW91366   7.901   7.140   8.157
96490SOL    HW191367   7.888   7.219   8.105
96490SOL    HW291368   7.813   7.113   8.183
96491SOL     OW91369   1.940  12.228   4.038
96491SOL    HW191370   2.031  12.256   4.046
96491SOL    HW291371   1.905  12.278   3.964
96492SOL     OW91372   8.220   9.483   9.901
96492SOL    HW191373   8.288   9.441   9.849
96492SOL    HW291374   8.246   9.467   9.992
96493SOL     OW91375  13.559   1.673   2.702
96493SOL    HW191376  13.592   1.583   2.706
96493SOL    HW291377  13.634   1.725   2.674
96494SOL     OW91378   4.371   5.821   2.603
96494SOL    HW191379   4.298   5.843   2.661
96494SOL    HW291380   4.399   5.734   2.631
96495SOL     OW91381   3.792  12.475   6.389
96495SOL    HW191382   3.874  12.438   6.354
96495SOL    HW291383   3.745  12.401   6.425
96496SOL     OW91384   3.097  12.256   4.831
96496SOL    HW191385   3.003  12.267   4.823
96496SOL    HW291386   3.125  12.328   4.888
96497SOL     OW91387  12.788   4.693   4.946
96497SOL    HW191388  12.715   4.751   4.924
96497SOL    HW291389  12.808   4.714   5.037
96498SOL     OW91390  12.711   1.305  14.504
96498SOL    HW191391  12.730   1.378  14.562
96498SOL    HW291392  12.636   1.335  14.452
96499SOL     OW91393   4.268  12.719   1.722
96499SOL    HW191394   4.206  12.739   1.792
96499SOL    HW291395   4.307  12.803   1.700
96500SOL     OW91396   3.292   9.250   0.443
96500SOL    HW191397   3.250   9.195   0.377
96500SOL    HW291398   3.272   9.208   0.527
96501SOL     OW91399  11.516   8.088   9.689
96501SOL    HW191400  11.579   8.033   9.736
96501SOL    HW291401  11.448   8.107   9.755
96502SOL     OW91402   3.057   7.709   6.929
96502SOL    HW191403   3.011   7.685   6.849
96502SOL    HW291404   3.003   7.776   6.969
96503SOL     OW91405   7.593   6.171   5.735
96503SOL    HW191406   7.501   6.152   5.713
96503SOL    HW291407   7.615   6.247   5.682
96504SOL     OW91408   1.251  12.502   3.970
96504SOL    HW191409   1.270  12.499   3.876
96504SOL    HW291410   1.256  12.595   3.992
96505SOL     OW91411  13.548   0.047  13.772
96505SOL    HW191412  13.523   0.081  13.687
96505SOL    HW291413  13.471  14.870  13.803
96506SOL     OW91414  11.162  13.532   1.407
96506SOL    HW191415  11.086  13.489   1.447
96506SOL    HW291416  11.166  13.618   1.450
96507SOL     OW91417  12.603   2.880   1.826
96507SOL    HW191418  12.657   2.952   1.858
96507SOL    HW291419  12.514   2.903   1.853
96508SOL     OW91420  11.175  14.577   6.121
96508SOL    HW191421  11.209  14.525   6.048
96508SOL    HW291422  11.130  14.515   6.177
96509SOL     OW91423   1.844   4.532  10.418
96509SOL    HW191424   1.888   4.471  10.478
96509SOL    HW291425   1.866   4.619  10.451
96510SOL     OW91426   9.028  10.630   1.764
96510SOL    HW191427   8.962  10.593   1.706
96510SOL    HW291428   9.109  10.626   1.714
96511SOL     OW91429   4.807   5.102   9.085
96511SOL    HW191430   4.850   5.050   9.018
96511SOL    HW291431   4.852   5.078   9.167
96512SOL     OW91432   3.862   9.288   2.386
96512SOL    HW191433   3.896   9.270   2.474
96512SOL    HW291434   3.859   9.202   2.344
96513SOL     OW91435   2.588  11.905   5.319
96513SOL    HW191436   2.681  11.884   5.328
96513SOL    HW291437   2.544  11.840   5.373
96514SOL     OW91438   6.604  12.851   3.903
96514SOL    HW191439   6.576  12.918   3.966
96514SOL    HW291440   6.598  12.895   3.818
96515SOL     OW91441   7.836   0.926  10.903
96515SOL    HW191442   7.894   0.853  10.923
96515SOL    HW291443   7.837   0.931  10.807
96516SOL     OW91444  11.776  10.107   4.421
96516SOL    HW191445  11.791  10.040   4.354
96516SOL    HW291446  11.800  10.189   4.378
96517SOL     OW91447  13.231   3.676  13.794
96517SOL    HW191448  13.252   3.687  13.702
96517SOL    HW291449  13.178   3.597  13.798
96518SOL     OW91450   1.050   6.872   2.187
96518SOL    HW191451   1.100   6.840   2.262
96518SOL    HW291452   1.076   6.963   2.177
96519SOL     OW91453   6.264   9.666  12.552
96519SOL    HW191454   6.319   9.687  12.476
96519SOL    HW291455   6.324   9.625  12.614
96520SOL     OW91456   1.582  11.019  14.150
96520SOL    HW191457   1.515  11.068  14.103
96520SOL    HW291458   1.646  10.995  14.083
96521SOL     OW91459   4.162   9.848   3.759
96521SOL    HW191460   4.093   9.793   3.721
96521SOL    HW291461   4.120   9.888   3.835
96522SOL     OW91462   6.971  13.158   8.295
96522SOL    HW191463   6.887  13.193   8.324
96522SOL    HW291464   6.968  13.066   8.320
96523SOL     OW91465  10.922  11.830  11.151
96523SOL    HW191466  11.015  11.818  11.133
96523SOL    HW291467  10.880  11.826  11.066
96524SOL     OW91468   9.785   0.125  10.510
96524SOL    HW191469   9.746   0.072  10.441
96524SOL    HW291470   9.755   0.214  10.492
96525SOL     OW91471   0.130  14.846  10.427
96525SOL    HW191472   0.146  14.850  10.333
96525SOL    HW291473   0.215  14.863  10.467
96526SOL     OW91474  14.803  14.773   1.230
96526SOL    HW191475  14.785  14.866   1.213
96526SOL    HW291476  14.725  14.728   1.198
96527SOL     OW91477   9.632   8.969   0.357
96527SOL    HW191478   9.610   8.952   0.448
96527SOL    HW291479   9.721   9.005   0.360
96528SOL     OW91480   4.342  10.485   0.950
96528SOL    HW191481   4.371  10.463   0.862
96528SOL    HW291482   4.271  10.548   0.938
96529SOL     OW91483   1.043   9.152   3.492
96529SOL    HW191484   0.989   9.096   3.435
96529SOL    HW291485   1.005   9.239   3.482
96530SOL     OW91486  10.415  12.840   8.826
96530SOL    HW191487  10.473  12.915   8.812
96530SOL    HW291488  10.359  12.867   8.898
96531SOL     OW91489   3.420   5.362   9.915
96531SOL    HW191490   3.344   5.324   9.959
96531SOL    HW291491   3.466   5.287   9.878
96532SOL     OW91492   8.191   0.690   3.225
96532SOL    HW191493   8.118   0.662   3.170
96532SOL    HW291494   8.182   0.785   3.230
96533SOL     OW91495   2.758  12.788   8.503
96533SOL    HW191496   2.709  12.720   8.550
96533SOL    HW291497   2.726  12.870   8.541
96534SOL     OW91498   1.481   9.937   1.226
96534SOL    HW191499   1.514   9.944   1.315
96534SOL    HW291500   1.464   9.844   1.213
96535SOL     OW91501   9.657   6.870   5.041
96535SOL    HW191502   9.672   6.782   5.076
96535SOL    HW291503   9.706   6.871   4.959
96536SOL     OW91504  13.019  10.499   1.384
96536SOL    HW191505  13.081  10.425   1.384
96536SOL    HW291506  13.021  10.531   1.294
96537SOL     OW91507   2.159  14.113  13.050
96537SOL    HW191508   2.100  14.057  13.099
96537SOL    HW291509   2.160  14.196  13.098
96538SOL     OW91510  13.996   3.097  11.424
96538SOL    HW191511  13.932   3.158  11.462
96538SOL    HW291512  13.944   3.025  11.390
96539SOL     OW91513  11.441   6.443  10.202
96539SOL    HW191514  11.457   6.350  10.190
96539SOL    HW291515  11.417   6.452  10.295
96540SOL     OW91516   8.047   9.729   8.266
96540SOL    HW191517   8.018   9.653   8.316
96540SOL    HW291518   7.977   9.744   8.203
96541SOL     OW91519  13.975   5.641   2.256
96541SOL    HW191520  13.979   5.609   2.346
96541SOL    HW291521  14.015   5.572   2.204
96542SOL     OW91522   3.289  12.990   4.265
96542SOL    HW191523   3.243  12.906   4.261
96542SOL    HW291524   3.381  12.966   4.265
96543SOL     OW91525   6.911   3.982   0.318
96543SOL    HW191526   6.818   3.984   0.294
96543SOL    HW291527   6.914   4.025   0.404
96544SOL     OW91528   8.235   3.510   1.345
96544SOL    HW191529   8.258   3.417   1.350
96544SOL    HW291530   8.222   3.527   1.252
96545SOL     OW91531   8.004   1.366   8.868
96545SOL    HW191532   8.035   1.297   8.809
96545SOL    HW291533   7.915   1.338   8.892
96546SOL     OW91534   7.554  10.121   9.259
96546SOL    HW191535   7.465  10.157   9.255
96546SOL    HW291536   7.543  10.036   9.302
96547SOL     OW91537  11.200  14.570   9.054
96547SOL    HW191538  11.163  14.658   9.052
96547SOL    HW291539  11.135  14.517   9.100
96548SOL     OW91540  14.377  12.760  12.792
96548SOL    HW191541  14.350  12.826  12.855
96548SOL    HW291542  14.412  12.689  12.845
96549SOL     OW91543  10.946  11.947   0.514
96549SOL    HW191544  10.969  11.861   0.477
96549SOL    HW291545  10.920  11.928   0.605
96550SOL     OW91546   2.338  11.897  11.332
96550SOL    HW191547   2.377  11.979  11.302
96550SOL    HW291548   2.279  11.871  11.260
96551SOL     OW91549   1.955   7.899   8.149
96551SOL    HW191550   1.916   7.919   8.235
96551SOL    HW291551   1.889   7.929   8.086
96552SOL     OW91552   9.193  10.608  14.320
96552SOL    HW191553   9.125  10.615  14.253
96552SOL    HW291554   9.275  10.610  14.272
96553SOL     OW91555  14.451   2.501  12.296
96553SOL    HW191556  14.482   2.507  12.386
96553SOL    HW291557  14.367   2.455  12.303
96554SOL     OW91558   0.875   5.529   9.246
96554SOL    HW191559   0.863   5.477   9.325
96554SOL    HW291560   0.787   5.557   9.222
96555SOL     OW91561   7.860  12.346  13.295
96555SOL    HW191562   7.790  12.389  13.345
96555SOL    HW291563   7.929  12.329  13.359
96556SOL     OW91564   9.168   0.209  10.767
96556SOL    HW191565   9.161   0.179  10.858
96556SOL    HW291566   9.262   0.209  10.749
96557SOL     OW91567   7.568   5.742   0.882
96557SOL    HW191568   7.562   5.772   0.973
96557SOL    HW291569   7.604   5.818   0.835
96558SOL     OW91570   7.321   5.119   7.104
96558SOL    HW191571   7.229   5.109   7.128
96558SOL    HW291572   7.320   5.181   7.032
96559SOL     OW91573   0.915   7.383   8.786
96559SOL    HW191574   0.935   7.374   8.693
96559SOL    HW291575   0.898   7.294   8.815
96560SOL     OW91576   8.685   3.824   6.583
96560SOL    HW191577   8.678   3.758   6.652
96560SOL    HW291578   8.764   3.800   6.535
96561SOL     OW91579  14.632   4.514   0.040
96561SOL    HW191580  14.713   4.482   0.078
96561SOL    HW291581  14.659   4.582  14.848
96562SOL     OW91582  11.950  13.672   9.735
96562SOL    HW191583  11.855  13.665   9.726
96562SOL    HW291584  11.963  13.741   9.800
96563SOL     OW91585  11.094  10.046   2.900
96563SOL    HW191586  11.086  10.141   2.888
96563SOL    HW291587  11.181  10.025   2.869
96564SOL     OW91588  12.781   6.121   3.988
96564SOL    HW191589  12.828   6.130   4.071
96564SOL    HW291590  12.728   6.042   4.000
96565SOL     OW91591  14.715   0.918  10.604
96565SOL    HW191592  14.730   0.855  10.533
96565SOL    HW291593  14.803   0.953  10.623
96566SOL     OW91594  11.953   2.961   7.923
96566SOL    HW191595  11.948   2.939   7.830
96566SOL    HW291596  11.994   2.885   7.964
96567SOL     OW91597   3.190  10.462   6.593
96567SOL    HW191598   3.272  10.482   6.546
96567SOL    HW291599   3.218  10.410   6.669
96568SOL     OW91600   1.145  12.683   9.994
96568SOL    HW191601   1.119  12.591   9.985
96568SOL    HW291602   1.228  12.680  10.041
96569SOL     OW91603  12.431   7.550   9.024
96569SOL    HW191604  12.363   7.503   9.072
96569SOL    HW291605  12.387   7.630   8.994
96570SOL     OW91606   3.089   8.698  12.850
96570SOL    HW191607   3.165   8.653  12.885
96570SOL    HW291608   3.051   8.744  12.924
96571SOL     OW91609  13.183  11.787   7.373
96571SOL    HW191610  13.224  11.873   7.364
96571SOL    HW291611  13.139  11.791   7.458
96572SOL     OW91612   2.803   5.606  14.176
96572SOL    HW191613   2.834   5.614  14.086
96572SOL    HW291614   2.729   5.666  14.181
96573SOL     OW91615   3.255  11.588   6.899
96573SOL    HW191616   3.232  11.647   6.971
96573SOL    HW291617   3.328  11.631   6.855
96574SOL     OW91618   8.381   2.027  10.490
96574SOL    HW191619   8.456   2.035  10.548
96574SOL    HW291620   8.363   2.117  10.463
96575SOL     OW91621   7.896   7.554   4.313
96575SOL    HW191622   7.918   7.520   4.400
96575SOL    HW291623   7.975   7.538   4.261
96576SOL     OW91624   1.301   6.371   8.907
96576SOL    HW191625   1.265   6.360   8.819
96576SOL    HW291626   1.377   6.313   8.909
96577SOL     OW91627   0.235   4.565  12.338
96577SOL    HW191628   0.293   4.633  12.303
96577SOL    HW291629   0.251   4.489  12.282
96578SOL     OW91630   1.317   5.976   9.061
96578SOL    HW191631   1.397   6.028   9.073
96578SOL    HW291632   1.344   5.886   9.081
96579SOL     OW91633   0.619   9.301   4.864
96579SOL    HW191634   0.572   9.384   4.862
96579SOL    HW291635   0.711   9.325   4.848
96580SOL     OW91636   1.650  13.122  14.262
96580SOL    HW191637   1.587  13.077  14.318
96580SOL    HW291638   1.688  13.053  14.208
96581SOL     OW91639   8.133   3.709  13.245
96581SOL    HW191640   8.103   3.624  13.277
96581SOL    HW291641   8.086   3.773  13.298
96582SOL     OW91642  12.913   2.030   6.713
96582SOL    HW191643  12.930   1.979   6.792
96582SOL    HW291644  12.845   2.092   6.738
96583SOL     OW91645   5.169   6.611   8.011
96583SOL    HW191646   5.228   6.537   8.026
96583SOL    HW291647   5.208   6.660   7.940
96584SOL     OW91648   9.105  11.143  10.045
96584SOL    HW191649   9.181  11.090  10.071
96584SOL    HW291650   9.036  11.079  10.028
96585SOL     OW91651  12.104   6.674   2.532
96585SOL    HW191652  12.110   6.587   2.491
96585SOL    HW291653  12.137   6.661   2.621
96586SOL     OW91654   2.017   4.731   2.598
96586SOL    HW191655   2.044   4.639   2.599
96586SOL    HW291656   1.921   4.728   2.598
96587SOL     OW91657   1.514  12.057   3.270
96587SOL    HW191658   1.524  12.141   3.224
96587SOL    HW291659   1.599  12.042   3.311
96588SOL     OW91660   5.756   2.420   0.569
96588SOL    HW191661   5.839   2.422   0.522
96588SOL    HW291662   5.753   2.504   0.616
96589SOL     OW91663   3.604   9.071   1.130
96589SOL    HW191664   3.645   9.068   1.216
96589SOL    HW291665   3.528   9.127   1.141
96590SOL     OW91666   5.571   7.478  13.338
96590SOL    HW191667   5.590   7.567  13.308
96590SOL    HW291668   5.478   7.466  13.319
96591SOL     OW91669   5.813   1.036  12.379
96591SOL    HW191670   5.722   1.006  12.386
96591SOL    HW291671   5.813   1.125  12.413
96592SOL     OW91672   3.315   8.891   4.661
96592SOL    HW191673   3.303   8.915   4.753
96592SOL    HW291674   3.407   8.910   4.642
96593SOL     OW91675  14.714  13.585  10.494
96593SOL    HW191676  14.748  13.521  10.432
96593SOL    HW291677  14.651  13.536  10.547
96594SOL     OW91678   6.631   0.727   2.471
96594SOL    HW191679   6.556   0.786   2.474
96594SOL    HW291680   6.599   0.651   2.422
96595SOL     OW91681  10.182   7.823   3.056
96595SOL    HW191682  10.091   7.816   3.026
96595SOL    HW291683  10.189   7.758   3.126
96596SOL     OW91684   9.264  11.706   8.191
96596SOL    HW191685   9.203  11.751   8.133
96596SOL    HW291686   9.217  11.697   8.273
96597SOL     OW91687  13.523  14.032   7.129
96597SOL    HW191688  13.593  13.971   7.151
96597SOL    HW291689  13.476  14.046   7.211
96598SOL     OW91690  13.612  11.530  14.819
96598SOL    HW191691  13.604  11.545  14.724
96598SOL    HW291692  13.525  11.553  14.853
96599SOL     OW91693   2.780   0.858   7.361
96599SOL    HW191694   2.859   0.856   7.307
96599SOL    HW291695   2.812   0.863   7.451
96600SOL     OW91696   3.189   8.068   5.410
96600SOL    HW191697   3.099   8.039   5.391
96600SOL    HW291698   3.204   8.040   5.500
96601SOL     OW91699   8.620  14.755   4.495
96601SOL    HW191700   8.540  14.807   4.498
96601SOL    HW291701   8.590  14.666   4.474
96602SOL     OW91702  13.052  10.212   5.299
96602SOL    HW191703  13.077  10.287   5.246
96602SOL    HW291704  13.018  10.148   5.235
96603SOL     OW91705  10.023   7.752   0.975
96603SOL    HW191706  10.117   7.735   0.988
96603SOL    HW291707  10.019   7.843   0.947
96604SOL     OW91708   3.093   8.870  11.096
96604SOL    HW191709   3.062   8.862  11.187
96604SOL    HW291710   3.174   8.820  11.094
96605SOL     OW91711   9.401   2.115  14.739
96605SOL    HW191712   9.326   2.108  14.680
96605SOL    HW291713   9.397   2.204  14.773
96606SOL     OW91714   3.046  11.040  13.292
96606SOL    HW191715   3.117  10.979  13.278
96606SOL    HW291716   3.030  11.079  13.206
96607SOL     OW91717   4.111   9.268   9.070
96607SOL    HW191718   4.030   9.217   9.059
96607SOL    HW291719   4.105   9.302   9.160
96608SOL     OW91720   2.126   9.406   9.870
96608SOL    HW191721   2.093   9.347   9.803
96608SOL    HW291722   2.135   9.351   9.948
96609SOL     OW91723   5.517  14.088   1.507
96609SOL    HW191724   5.518  14.019   1.441
96609SOL    HW291725   5.562  14.050   1.583
96610SOL     OW91726   6.085   0.251   5.236
96610SOL    HW191727   6.017   0.207   5.185
96610SOL    HW291728   6.091   0.339   5.197
96611SOL     OW91729   7.356   0.358   9.690
96611SOL    HW191730   7.389   0.410   9.616
96611SOL    HW291731   7.268   0.331   9.662
96612SOL     OW91732   6.301   8.587   2.688
96612SOL    HW191733   6.271   8.609   2.776
96612SOL    HW291734   6.387   8.630   2.681
96613SOL     OW91735  11.344   6.651  11.058
96613SOL    HW191736  11.289   6.575  11.077
96613SOL    HW291737  11.433   6.621  11.077
96614SOL     OW91738  11.064  10.731   3.124
96614SOL    HW191739  11.015  10.799   3.077
96614SOL    HW291740  11.154  10.763   3.126
96615SOL     OW91741   3.489   5.391   6.307
96615SOL    HW191742   3.566   5.375   6.252
96615SOL    HW291743   3.421   5.336   6.269
96616SOL     OW91744   4.906   8.090  12.881
96616SOL    HW191745   4.928   8.138  12.961
96616SOL    HW291746   4.974   8.117  12.819
96617SOL     OW91747   9.249   9.924  10.090
96617SOL    HW191748   9.248   9.840  10.046
96617SOL    HW291749   9.157   9.944  10.108
96618SOL     OW91750  10.624   2.324  10.450
96618SOL    HW191751  10.690   2.275  10.500
96618SOL    HW291752  10.610   2.272  10.371
96619SOL     OW91753   9.658   3.614   3.673
96619SOL    HW191754   9.609   3.672   3.614
96619SOL    HW291755   9.604   3.608   3.751
96620SOL     OW91756   2.099   9.112   5.205
96620SOL    HW191757   2.075   9.046   5.270
96620SOL    HW291758   2.137   9.184   5.256
96621SOL     OW91759  12.131   9.684  14.256
96621SOL    HW191760  12.206   9.648  14.210
96621SOL    HW291761  12.167   9.760  14.304
96622SOL     OW91762   6.828  10.791  14.126
96622SOL    HW191763   6.825  10.697  14.105
96622SOL    HW291764   6.773  10.800  14.204
96623SOL     OW91765   1.731   8.621  11.971
96623SOL    HW191766   1.738   8.535  11.930
96623SOL    HW291767   1.638   8.642  11.968
96624SOL     OW91768  10.879   5.053   2.314
96624SOL    HW191769  10.877   5.144   2.345
96624SOL    HW291770  10.971   5.028   2.321
96625SOL     OW91771  11.710   6.560  13.703
96625SOL    HW191772  11.776   6.528  13.641
96625SOL    HW291773  11.655   6.483  13.720
96626SOL     OW91774   4.603   7.557   4.288
96626SOL    HW191775   4.556   7.631   4.248
96626SOL    HW291776   4.696   7.581   4.278
96627SOL     OW91777   8.960   8.368  10.708
96627SOL    HW191778   9.034   8.357  10.768
96627SOL    HW291779   8.925   8.455  10.729
96628SOL     OW91780   8.869   1.817  11.997
96628SOL    HW191781   8.895   1.745  12.053
96628SOL    HW291782   8.951   1.857  11.969
96629SOL     OW91783  13.326   1.228   8.471
96629SOL    HW191784  13.313   1.323   8.462
96629SOL    HW291785  13.420   1.218   8.482
96630SOL     OW91786   8.387  10.068  13.742
96630SOL    HW191787   8.480  10.086  13.729
96630SOL    HW291788   8.382   9.972  13.745
96631SOL     OW91789   9.008   2.664  10.285
96631SOL    HW191790   9.035   2.703  10.202
96631SOL    HW291791   9.084   2.613  10.313
96632SOL     OW91792   3.443   3.812  11.437
96632SOL    HW191793   3.482   3.755  11.502
96632SOL    HW291794   3.465   3.901  11.466
96633SOL     OW91795   0.762  14.546   4.967
96633SOL    HW191796   0.797  14.463   4.933
96633SOL    HW291797   0.667  14.533   4.969
96634SOL     OW91798   1.261   2.025   6.883
96634SOL    HW191799   1.299   2.096   6.831
96634SOL    HW291800   1.218   1.969   6.818
96635SOL     OW91801   9.612   8.687  10.817
96635SOL    HW191802   9.641   8.668  10.906
96635SOL    HW291803   9.523   8.650  10.812
96636SOL     OW91804   9.081  12.431   9.591
96636SOL    HW191805   9.007  12.373   9.573
96636SOL    HW291806   9.060  12.470   9.676
96637SOL     OW91807  14.484   5.993   5.077
96637SOL    HW191808  14.460   5.901   5.068
96637SOL    HW291809  14.575   5.992   5.107
96638SOL     OW91810   3.675   7.618   6.737
96638SOL    HW191811   3.676   7.560   6.813
96638SOL    HW291812   3.766   7.617   6.705
96639SOL     OW91813   8.194  11.505   8.009
96639SOL    HW191814   8.128  11.568   7.982
96639SOL    HW291815   8.253  11.554   8.066
96640SOL     OW91816   9.256   1.291   4.013
96640SOL    HW191817   9.191   1.269   3.947
96640SOL    HW291818   9.313   1.355   3.970
96641SOL     OW91819  11.323  11.933   9.073
96641SOL    HW191820  11.241  11.979   9.055
96641SOL    HW291821  11.387  11.974   9.014
96642SOL     OW91822  10.539   7.518   1.069
96642SOL    HW191823  10.527   7.524   0.974
96642SOL    HW291824  10.451   7.530   1.105
96643SOL     OW91825   1.994   3.961  10.060
96643SOL    HW191826   2.003   3.872  10.094
96643SOL    HW291827   2.065   3.970   9.996
96644SOL     OW91828  11.243   1.187   6.034
96644SOL    HW191829  11.159   1.230   6.048
96644SOL    HW291830  11.226   1.095   6.052
96645SOL     OW91831   1.835  14.254   4.541
96645SOL    HW191832   1.787  14.196   4.600
96645SOL    HW291833   1.767  14.303   4.495
96646SOL     OW91834   1.791  12.928   2.287
96646SOL    HW191835   1.737  12.967   2.218
96646SOL    HW291836   1.807  12.999   2.348
96647SOL     OW91837  11.850   4.397   8.966
96647SOL    HW191838  11.914   4.428   9.030
96647SOL    HW291839  11.886   4.425   8.882
96648SOL     OW91840  10.141  13.667   2.495
96648SOL    HW191841  10.157  13.651   2.588
96648SOL    HW291842  10.047  13.686   2.490
96649SOL     OW91843   6.293   7.012  11.510
96649SOL    HW191844   6.250   7.030  11.426
96649SOL    HW291845   6.325   6.923  11.502
96650SOL     OW91846   7.686  13.385  12.582
96650SOL    HW191847   7.634  13.465  12.591
96650SOL    HW291848   7.652  13.327  12.650
96651SOL     OW91849   4.170   2.884   0.982
96651SOL    HW191850   4.239   2.935   0.938
96651SOL    HW291851   4.217   2.820   1.036
96652SOL     OW91852  13.199  12.941   7.859
96652SOL    HW191853  13.259  13.014   7.849
96652SOL    HW291854  13.131  12.956   7.793
96653SOL     OW91855   7.717   1.642   7.292
96653SOL    HW191856   7.715   1.738   7.298
96653SOL    HW291857   7.692   1.612   7.379
96654SOL     OW91858   9.734   6.171   7.050
96654SOL    HW191859   9.654   6.191   7.099
96654SOL    HW291860   9.769   6.093   7.092
96655SOL     OW91861   4.727   3.472  12.990
96655SOL    HW191862   4.754   3.534  13.057
96655SOL    HW291863   4.642   3.439  13.021
96656SOL     OW91864   4.948   6.140   8.876
96656SOL    HW191865   4.926   6.229   8.849
96656SOL    HW291866   4.898   6.084   8.817
96657SOL     OW91867   0.305   1.176   2.886
96657SOL    HW191868   0.297   1.099   2.943
96657SOL    HW291869   0.226   1.175   2.833
96658SOL     OW91870   6.043   2.807   8.649
96658SOL    HW191871   6.015   2.767   8.731
96658SOL    HW291872   6.048   2.901   8.669
96659SOL     OW91873   8.528   3.003   7.781
96659SOL    HW191874   8.538   3.081   7.835
96659SOL    HW291875   8.435   2.999   7.761
96660SOL     OW91876   8.168   0.024   1.053
96660SOL    HW191877   8.164  14.867   1.145
96660SOL    HW291878   8.159   0.119   1.055
96661SOL     OW91879   6.466  13.504   2.721
96661SOL    HW191880   6.486  13.595   2.698
96661SOL    HW291881   6.381  13.509   2.765
96662SOL     OW91882  10.428   4.032   7.919
96662SOL    HW191883  10.398   4.016   8.009
96662SOL    HW291884  10.364   3.987   7.864
96663SOL     OW91885  10.138   4.365  12.614
96663SOL    HW191886  10.187   4.393  12.537
96663SOL    HW291887  10.058   4.417  12.612
96664SOL     OW91888   7.809   5.602   2.639
96664SOL    HW191889   7.742   5.611   2.707
96664SOL    HW291890   7.796   5.677   2.581
96665SOL     OW91891   8.813  14.233   3.618
96665SOL    HW191892   8.727  14.258   3.653
96665SOL    HW291893   8.869  14.226   3.695
96666SOL     OW91894   7.068   4.770   7.144
96666SOL    HW191895   6.985   4.807   7.176
96666SOL    HW291896   7.052   4.756   7.050
96667SOL     OW91897  13.411   2.666  11.097
96667SOL    HW191898  13.329   2.713  11.112
96667SOL    HW291899  13.440   2.640  11.185
96668SOL     OW91900  11.015  13.078  13.484
96668SOL    HW191901  11.097  13.126  13.488
96668SOL    HW291902  11.040  12.988  13.461
96669SOL     OW91903   6.598  14.117   3.450
96669SOL    HW191904   6.677  14.170   3.442
96669SOL    HW291905   6.569  14.103   3.360
96670SOL     OW91906  14.242   8.271  13.850
96670SOL    HW191907  14.149   8.250  13.861
96670SOL    HW291908  14.265   8.234  13.765
96671SOL     OW91909   7.378   1.432   4.878
96671SOL    HW191910   7.314   1.503   4.885
96671SOL    HW291911   7.435   1.458   4.807
96672SOL     OW91912   1.320   6.179  11.045
96672SOL    HW191913   1.246   6.125  11.072
96672SOL    HW291914   1.295   6.211  10.958
96673SOL     OW91915  13.176  12.949   7.288
96673SOL    HW191916  13.247  12.952   7.352
96673SOL    HW291917  13.163  13.040   7.262
96674SOL     OW91918   8.719  12.570  13.108
96674SOL    HW191919   8.684  12.482  13.097
96674SOL    HW291920   8.740  12.600  13.020
96675SOL     OW91921  10.037   9.915  11.502
96675SOL    HW191922   9.984   9.852  11.551
96675SOL    HW291923  10.099   9.949  11.566
96676SOL     OW91924   3.570   3.927   1.058
96676SOL    HW191925   3.477   3.943   1.074
96676SOL    HW291926   3.572   3.875   0.977
96677SOL     OW91927   6.970   3.843  13.912
96677SOL    HW191928   6.900   3.899  13.878
96677SOL    HW291929   6.924   3.770  13.955
96678SOL     OW91930   2.967   2.887  13.259
96678SOL    HW191931   2.945   2.950  13.190
96678SOL    HW291932   3.032   2.931  13.313
96679SOL     OW91933  11.357   0.192  11.440
96679SOL    HW191934  11.412   0.248  11.495
96679SOL    HW291935  11.269   0.203  11.476
96680SOL     OW91936   1.356  10.029   0.838
96680SOL    HW191937   1.350  10.124   0.843
96680SOL    HW291938   1.438  10.008   0.882
96681SOL     OW91939  11.595   7.542  14.300
96681SOL    HW191940  11.641   7.610  14.251
96681SOL    HW291941  11.548   7.589  14.368
96682SOL     OW91942   3.265   8.780   7.509
96682SOL    HW191943   3.321   8.775   7.431
96682SOL    HW291944   3.326   8.783   7.582
96683SOL     OW91945   6.798  11.071  10.776
96683SOL    HW191946   6.741  11.149  10.776
96683SOL    HW291947   6.842  11.074  10.691
96684SOL     OW91948   9.236   9.053   6.845
96684SOL    HW191949   9.320   9.007   6.848
96684SOL    HW291950   9.213   9.055   6.752
96685SOL     OW91951  11.260  14.650  12.443
96685SOL    HW191952  11.230  14.577  12.498
96685SOL    HW291953  11.211  14.726  12.476
96686SOL     OW91954   0.218  11.212   4.302
96686SOL    HW191955   0.196  11.264   4.380
96686SOL    HW291956   0.165  11.250   4.232
96687SOL     OW91957   3.181  14.672  11.632
96687SOL    HW191958   3.239  14.696  11.560
96687SOL    HW291959   3.202  14.734  11.702
96688SOL     OW91960   8.191   7.777  14.094
96688SOL    HW191961   8.110   7.826  14.079
96688SOL    HW291962   8.258   7.827  14.046
96689SOL     OW91963  14.861  12.684  10.551
96689SOL    HW191964   0.038  12.675  10.634
96689SOL    HW291965   0.056  12.718  10.490
96690SOL     OW91966   6.888   1.253  13.384
96690SOL    HW191967   6.905   1.176  13.437
96690SOL    HW291968   6.793   1.253  13.371
96691SOL     OW91969   5.039  14.087  13.418
96691SOL    HW191970   4.959  14.045  13.387
96691SOL    HW291971   5.108  14.053  13.360
96692SOL     OW91972   5.842   5.066   9.284
96692SOL    HW191973   5.810   5.142   9.334
96692SOL    HW291974   5.885   5.105   9.207
96693SOL     OW91975   5.508  10.868   3.409
96693SOL    HW191976   5.589  10.906   3.442
96693SOL    HW291977   5.537  10.793   3.356
96694SOL     OW91978   0.669   6.595   7.308
96694SOL    HW191979   0.615   6.553   7.242
96694SOL    HW291980   0.721   6.524   7.346
96695SOL     OW91981   6.443   2.409   5.980
96695SOL    HW191982   6.416   2.318   5.988
96695SOL    HW291983   6.535   2.404   5.952
96696SOL     OW91984   1.768  12.404   2.457
96696SOL    HW191985   1.862  12.399   2.468
96696SOL    HW291986   1.754  12.484   2.406
96697SOL     OW91987   6.148   2.316  13.003
96697SOL    HW191988   6.059   2.286  12.984
96697SOL    HW291989   6.168   2.281  13.090
96698SOL     OW91990   4.132   6.589  10.790
96698SOL    HW191991   4.138   6.495  10.808
96698SOL    HW291992   4.156   6.630  10.874
96699SOL     OW91993  12.005   6.578   0.860
96699SOL    HW191994  11.959   6.657   0.832
96699SOL    HW291995  11.981   6.567   0.952
96700SOL     OW91996   3.083  14.735   9.941
96700SOL    HW191997   3.016  14.669   9.925
96700SOL    HW291998   3.143  14.694  10.004
96701SOL     OW91999   2.082   3.062   6.573
96701SOL    HW192000   2.012   3.113   6.535
96701SOL    HW292001   2.153   3.066   6.508
96702SOL     OW92002   8.420   1.626  14.161
96702SOL    HW192003   8.339   1.644  14.209
96702SOL    HW292004   8.453   1.712  14.137
96703SOL     OW92005   5.442  12.688   3.438
96703SOL    HW192006   5.430  12.772   3.395
96703SOL    HW292007   5.480  12.709   3.523
96704SOL     OW92008   2.965   5.823   5.240
96704SOL    HW192009   3.034   5.759   5.257
96704SOL    HW292010   3.011   5.907   5.237
96705SOL     OW92011  13.279   6.929   8.953
96705SOL    HW192012  13.239   6.866   8.892
96705SOL    HW292013  13.287   6.881   9.035
96706SOL     OW92014   2.651   0.172   2.084
96706SOL    HW192015   2.691   0.223   2.154
96706SOL    HW292016   2.716   0.173   2.014
96707SOL     OW92017  11.426   4.333  14.221
96707SOL    HW192018  11.397   4.262  14.278
96707SOL    HW292019  11.469   4.288  14.147
96708SOL     OW92020   9.410   6.540   8.082
96708SOL    HW192021   9.457   6.456   8.087
96708SOL    HW292022   9.353   6.539   8.159
96709SOL     OW92023  11.000   2.438  14.496
96709SOL    HW192024  11.040   2.434  14.583
96709SOL    HW292025  11.074   2.429  14.436
96710SOL     OW92026  13.919   1.757  10.254
96710SOL    HW192027  13.897   1.665  10.238
96710SOL    HW292028  13.952   1.788  10.170
96711SOL     OW92029  12.612  14.014   3.088
96711SOL    HW192030  12.558  14.075   3.139
96711SOL    HW292031  12.638  13.947   3.150
96712SOL     OW92032   5.827  11.768   8.534
96712SOL    HW192033   5.749  11.744   8.484
96712SOL    HW292034   5.793  11.807   8.615
96713SOL     OW92035  11.183   4.956   9.161
96713SOL    HW192036  11.186   4.975   9.067
96713SOL    HW292037  11.221   5.033   9.203
96714SOL     OW92038   6.052   6.827   9.608
96714SOL    HW192039   6.134   6.786   9.580
96714SOL    HW292040   6.009   6.854   9.527
96715SOL     OW92041  13.182   2.129   0.216
96715SOL    HW192042  13.096   2.091   0.235
96715SOL    HW292043  13.242   2.055   0.215
96716SOL     OW92044  13.629   7.472  10.793
96716SOL    HW192045  13.592   7.556  10.818
96716SOL    HW292046  13.710   7.493  10.747
96717SOL     OW92047   3.483   9.589  11.055
96717SOL    HW192048   3.511   9.621  11.141
96717SOL    HW292049   3.493   9.664  10.997
96718SOL     OW92050   2.481   2.237   2.657
96718SOL    HW192051   2.419   2.205   2.592
96718SOL    HW292052   2.515   2.158   2.699
96719SOL     OW92053   4.845  11.425   5.350
96719SOL    HW192054   4.867  11.472   5.430
96719SOL    HW292055   4.749  11.426   5.347
96720SOL     OW92056   2.504   0.296   9.802
96720SOL    HW192057   2.558   0.247   9.740
96720SOL    HW292058   2.561   0.367   9.833
96721SOL     OW92059   5.556   1.285   3.541
96721SOL    HW192060   5.584   1.243   3.622
96721SOL    HW292061   5.544   1.377   3.564
96722SOL     OW92062   9.308   3.809   5.004
96722SOL    HW192063   9.296   3.838   4.913
96722SOL    HW292064   9.271   3.880   5.056
96723SOL     OW92065  14.720   6.448  13.384
96723SOL    HW192066  14.710   6.447  13.289
96723SOL    HW292067  14.636   6.479  13.417
96724SOL     OW92068   4.418   4.896   3.114
96724SOL    HW192069   4.359   4.968   3.092
96724SOL    HW292070   4.488   4.901   3.048
96725SOL     OW92071   5.526   9.324   2.166
96725SOL    HW192072   5.617   9.306   2.190
96725SOL    HW292073   5.503   9.253   2.106
96726SOL     OW92074   8.272   3.038   3.331
96726SOL    HW192075   8.275   3.002   3.419
96726SOL    HW292076   8.187   3.082   3.326
96727SOL     OW92077   7.989   7.819  11.282
96727SOL    HW192078   7.942   7.774  11.212
96727SOL    HW292079   8.011   7.904  11.244
96728SOL     OW92080   0.731   5.050  12.798
96728SOL    HW192081   0.658   5.080  12.852
96728SOL    HW292082   0.763   5.130  12.755
96729SOL     OW92083  12.593   0.632  13.407
96729SOL    HW192084  12.662   0.635  13.472
96729SOL    HW292085  12.620   0.563  13.346
96730SOL     OW92086   0.460   6.318   2.586
96730SOL    HW192087   0.428   6.354   2.503
96730SOL    HW292088   0.545   6.280   2.564
96731SOL     OW92089   4.253   3.791  10.736
96731SOL    HW192090   4.179   3.852  10.737
96731SOL    HW292091   4.256   3.753  10.823
96732SOL     OW92092   0.988  14.420   3.419
96732SOL    HW192093   0.940  14.429   3.502
96732SOL    HW292094   1.013  14.509   3.396
96733SOL     OW92095  12.217   5.085   8.369
96733SOL    HW192096  12.194   4.994   8.354
96733SOL    HW292097  12.133   5.131   8.374
96734SOL     OW92098   4.608   7.341   6.006
96734SOL    HW192099   4.623   7.360   6.098
96734SOL    HW292100   4.610   7.245   6.001
96735SOL     OW92101  11.552   4.831  13.175
96735SOL    HW192102  11.604   4.904  13.141
96735SOL    HW292103  11.612   4.756  13.173
96736SOL     OW92104   8.541  12.567   0.557
96736SOL    HW192105   8.547  12.660   0.577
96736SOL    HW292106   8.523  12.525   0.641
96737SOL     OW92107   9.265  12.969  13.391
96737SOL    HW192108   9.308  13.054  13.378
96737SOL    HW292109   9.327  12.918  13.443
96738SOL     OW92110  13.314   2.508  11.772
96738SOL    HW192111  13.297   2.456  11.851
96738SOL    HW292112  13.407   2.496  11.754
96739SOL     OW92113   4.517   5.850  14.010
96739SOL    HW192114   4.511   5.831  14.103
96739SOL    HW292115   4.610   5.849  13.991
96740SOL     OW92116   1.429  10.227   8.873
96740SOL    HW192117   1.396  10.294   8.813
96740SOL    HW292118   1.523  10.223   8.855
96741SOL     OW92119   2.598   0.061   6.666
96741SOL    HW192120   2.527   0.020   6.616
96741SOL    HW292121   2.674   0.053   6.609
96742SOL     OW92122   9.969   7.156  13.947
96742SOL    HW192123  10.004   7.235  13.905
96742SOL    HW292124  10.033   7.088  13.927
96743SOL     OW92125   5.601  11.308   7.121
96743SOL    HW192126   5.689  11.269   7.113
96743SOL    HW292127   5.603  11.383   7.062
96744SOL     OW92128  12.193   6.370   3.096
96744SOL    HW192129  12.214   6.314   3.170
96744SOL    HW292130  12.244   6.334   3.023
96745SOL     OW92131  12.760  13.118   1.847
96745SOL    HW192132  12.811  13.097   1.925
96745SOL    HW292133  12.812  13.085   1.774
96746SOL     OW92134   0.760   2.178  11.856
96746SOL    HW192135   0.738   2.264  11.891
96746SOL    HW292136   0.813   2.137  11.925
96747SOL     OW92137   1.033   8.634   7.586
96747SOL    HW192138   1.113   8.622   7.637
96747SOL    HW292139   1.051   8.590   7.503
96748SOL     OW92140   0.963   4.934  10.864
96748SOL    HW192141   0.880   4.979  10.850
96748SOL    HW292142   1.020   5.000  10.904
96749SOL     OW92143   5.595   2.194   7.414
96749SOL    HW192144   5.610   2.288   7.419
96749SOL    HW292145   5.543   2.174   7.492
96750SOL     OW92146  13.937   6.315  11.770
96750SOL    HW192147  14.016   6.305  11.717
96750SOL    HW292148  13.954   6.390  11.826
96751SOL     OW92149   3.505  13.943   6.913
96751SOL    HW192150   3.428  13.985   6.951
96751SOL    HW292151   3.471  13.890   6.840
96752SOL     OW92152   6.652   3.338  12.141
96752SOL    HW192153   6.643   3.243  12.130
96752SOL    HW292154   6.703   3.366  12.066
96753SOL     OW92155   2.105   8.787   6.734
96753SOL    HW192156   2.089   8.695   6.711
96753SOL    HW292157   2.078   8.836   6.657
96754SOL     OW92158  13.808   3.025   9.380
96754SOL    HW192159  13.877   3.067   9.431
96754SOL    HW292160  13.732   3.082   9.392
96755SOL     OW92161  13.898   7.156  14.067
96755SOL    HW192162  13.927   7.211  14.140
96755SOL    HW292163  13.979   7.118  14.033
96756SOL     OW92164   9.939   4.296   6.018
96756SOL    HW192165   9.876   4.339   6.076
96756SOL    HW292166  10.017   4.352   6.020
96757SOL     OW92167   3.285  14.468  13.661
96757SOL    HW192168   3.291  14.415  13.740
96757SOL    HW292169   3.268  14.404  13.591
96758SOL     OW92170   3.592   9.311   7.443
96758SOL    HW192171   3.682   9.333   7.418
96758SOL    HW292172   3.577   9.359   7.525
96759SOL     OW92173   5.736   0.913  11.259
96759SOL    HW192174   5.803   0.861  11.215
96759SOL    HW292175   5.703   0.856  11.329
96760SOL     OW92176  10.221   4.657   4.735
96760SOL    HW192177  10.143   4.640   4.683
96760SOL    HW292178  10.283   4.696   4.673
96761SOL     OW92179   6.541   9.804   6.086
96761SOL    HW192180   6.477   9.733   6.084
96761SOL    HW292181   6.561   9.816   6.178
96762SOL     OW92182  13.270  12.415   9.388
96762SOL    HW192183  13.267  12.429   9.482
96762SOL    HW292184  13.186  12.448   9.356
96763SOL     OW92185  14.592   7.004   0.275
96763SOL    HW192186  14.510   6.971   0.311
96763SOL    HW292187  14.574   7.017   0.182
96764SOL     OW92188   5.892  14.308   1.420
96764SOL    HW192189   5.861  14.337   1.506
96764SOL    HW292190   5.970  14.256   1.440
96765SOL     OW92191  10.871  11.692  12.159
96765SOL    HW192192  10.869  11.653  12.071
96765SOL    HW292193  10.803  11.645  12.207
96766SOL     OW92194   4.049  12.000   9.904
96766SOL    HW192195   4.137  11.994   9.868
96766SOL    HW292196   3.991  11.986   9.829
96767SOL     OW92197  10.219   5.285  11.720
96767SOL    HW192198  10.285   5.229  11.679
96767SOL    HW292199  10.192   5.236  11.798
96768SOL     OW92200   2.455  12.753   9.887
96768SOL    HW192201   2.513  12.796   9.824
96768SOL    HW292202   2.471  12.797   9.970
96769SOL     OW92203   1.396   2.362   6.210
96769SOL    HW192204   1.409   2.439   6.266
96769SOL    HW292205   1.481   2.319   6.209
96770SOL     OW92206   5.902  10.510   0.905
96770SOL    HW192207   5.964  10.457   0.956
96770SOL    HW292208   5.933  10.600   0.915
96771SOL     OW92209   5.947   3.755   2.282
96771SOL    HW192210   6.015   3.687   2.281
96771SOL    HW292211   5.992   3.834   2.253
96772SOL     OW92212  13.414   3.810   0.513
96772SOL    HW192213  13.456   3.739   0.562
96772SOL    HW292214  13.323   3.809   0.542
96773SOL     OW92215   5.217  14.851   5.553
96773SOL    HW192216   5.173  14.772   5.584
96773SOL    HW292217   5.256  14.825   5.469
96774SOL     OW92218   3.407   4.095   8.463
96774SOL    HW192219   3.358   4.105   8.544
96774SOL    HW292220   3.481   4.039   8.486
96775SOL     OW92221  13.545   6.548   3.932
96775SOL    HW192222  13.637   6.548   3.907
96775SOL    HW292223  13.509   6.469   3.893
96776SOL     OW92224  10.006  12.479   6.360
96776SOL    HW192225  10.097  12.468   6.387
96776SOL    HW292226   9.988  12.402   6.305
96777SOL     OW92227  12.742   4.300  12.172
96777SOL    HW192228  12.733   4.241  12.097
96777SOL    HW292229  12.808   4.258  12.228
96778SOL     OW92230   8.064   4.725   9.713
96778SOL    HW192231   8.152   4.692   9.697
96778SOL    HW292232   8.074   4.820   9.717
96779SOL     OW92233  11.234   8.270   9.370
96779SOL    HW192234  11.325   8.289   9.394
96779SOL    HW292235  11.189   8.354   9.379
96780SOL     OW92236   9.103   5.193  10.340
96780SOL    HW192237   9.071   5.115  10.387
96780SOL    HW292238   9.182   5.218  10.388
96781SOL     OW92239   4.546  14.102  14.204
96781SOL    HW192240   4.504  14.018  14.185
96781SOL    HW292241   4.606  14.083  14.277
96782SOL     OW92242   4.248  10.479   3.339
96782SOL    HW192243   4.326  10.484   3.284
96782SOL    HW292244   4.200  10.403   3.307
96783SOL     OW92245  12.723  12.311   7.534
96783SOL    HW192246  12.781  12.239   7.511
96783SOL    HW292247  12.753  12.385   7.481
96784SOL     OW92248   9.676   1.301   4.676
96784SOL    HW192249   9.663   1.347   4.759
96784SOL    HW292250   9.680   1.371   4.611
96785SOL     OW92251  14.675  11.926   3.823
96785SOL    HW192252  14.683  11.877   3.741
96785SOL    HW292253  14.605  11.990   3.806
96786SOL     OW92254  10.409   6.466   8.118
96786SOL    HW192255  10.439   6.526   8.187
96786SOL    HW292256  10.446   6.502   8.038
96787SOL     OW92257   6.599  12.797   9.848
96787SOL    HW192258   6.559  12.760   9.769
96787SOL    HW292259   6.693  12.792   9.831
96788SOL     OW92260   0.843   3.829  12.833
96788SOL    HW192261   0.825   3.752  12.887
96788SOL    HW292262   0.775   3.826  12.765
96789SOL     OW92263   5.494  13.995   6.492
96789SOL    HW192264   5.405  13.968   6.469
96789SOL    HW292265   5.483  14.043   6.574
96790SOL     OW92266   3.378   0.949   2.587
96790SOL    HW192267   3.402   0.866   2.630
96790SOL    HW292268   3.450   1.009   2.608
96791SOL     OW92269   6.507   8.105  12.155
96791SOL    HW192270   6.453   8.053  12.215
96791SOL    HW292271   6.520   8.048  12.079
96792SOL     OW92272   3.708  12.514   5.625
96792SOL    HW192273   3.661  12.528   5.707
96792SOL    HW292274   3.800  12.509   5.651
96793SOL     OW92275  14.697  11.237   6.112
96793SOL    HW192276  14.740  11.156   6.085
96793SOL    HW292277  14.672  11.221   6.203
96794SOL     OW92278   3.081   2.760  10.997
96794SOL    HW192279   3.020   2.717  11.058
96794SOL    HW292280   3.154   2.698  10.990
96795SOL     OW92281   6.255  10.291  12.884
96795SOL    HW192282   6.283  10.216  12.938
96795SOL    HW292283   6.194  10.252  12.820
96796SOL     OW92284   2.070  11.577   8.777
96796SOL    HW192285   2.157  11.568   8.815
96796SOL    HW292286   2.084  11.627   8.696
96797SOL     OW92287  10.113  12.372  11.186
96797SOL    HW192288  10.090  12.282  11.210
96797SOL    HW292289  10.063  12.427  11.246
96798SOL     OW92290   1.868   7.820   7.791
96798SOL    HW192291   1.806   7.792   7.725
96798SOL    HW292292   1.903   7.739   7.828
96799SOL     OW92293   8.204   0.302   3.834
96799SOL    HW192294   8.270   0.306   3.765
96799SOL    HW292295   8.254   0.312   3.915
96800SOL     OW92296   2.700   8.873  13.365
96800SOL    HW192297   2.743   8.803  13.414
96800SOL    HW292298   2.759   8.948  13.373
96801SOL     OW92299   6.411  10.106   2.040
96801SOL    HW192300   6.372  10.043   2.101
96801SOL    HW292301   6.504  10.106   2.062
96802SOL     OW92302   9.321   4.556   5.154
96802SOL    HW192303   9.403   4.603   5.138
96802SOL    HW292304   9.308   4.562   5.248
96803SOL     OW92305   5.576   1.183  12.662
96803SOL    HW192306   5.485   1.193  12.690
96803SOL    HW292307   5.624   1.247  12.715
96804SOL     OW92308   7.827   1.505   0.671
96804SOL    HW192309   7.737   1.491   0.642
96804SOL    HW292310   7.819   1.532   0.763
96805SOL     OW92311  11.415   0.860  13.153
96805SOL    HW192312  11.447   0.773  13.127
96805SOL    HW292313  11.474   0.921  13.109
96806SOL     OW92314   2.857   5.412   0.633
96806SOL    HW192315   2.774   5.364   0.633
96806SOL    HW292316   2.915   5.360   0.688
96807SOL     OW92317  11.892  14.077   1.279
96807SOL    HW192318  11.897  13.985   1.251
96807SOL    HW292319  11.814  14.082   1.333
96808SOL     OW92320  12.614   2.919   3.355
96808SOL    HW192321  12.679   2.852   3.333
96808SOL    HW292322  12.556   2.922   3.279
96809SOL     OW92323  14.497  11.678   9.213
96809SOL    HW192324  14.523  11.720   9.131
96809SOL    HW292325  14.448  11.746   9.260
96810SOL     OW92326   2.947   4.196   4.757
96810SOL    HW192327   2.918   4.161   4.841
96810SOL    HW292328   2.945   4.291   4.768
96811SOL     OW92329  12.932   7.573  11.378
96811SOL    HW192330  12.971   7.612  11.300
96811SOL    HW292331  12.957   7.631  11.450
96812SOL     OW92332   6.803   7.013   1.435
96812SOL    HW192333   6.779   6.963   1.357
96812SOL    HW292334   6.762   6.966   1.507
96813SOL     OW92335   9.233   5.428  10.578
96813SOL    HW192336   9.213   5.462  10.490
96813SOL    HW292337   9.282   5.347  10.561
96814SOL     OW92338   5.309  11.120  13.633
96814SOL    HW192339   5.286  11.206  13.669
96814SOL    HW292340   5.404  11.125  13.618
96815SOL     OW92341  14.752   2.288   9.825
96815SOL    HW192342  14.807   2.248   9.758
96815SOL    HW292343  14.689   2.220   9.849
96816SOL     OW92344   4.777   4.499   9.437
96816SOL    HW192345   4.870   4.479   9.440
96816SOL    HW292346   4.767   4.557   9.362
96817SOL     OW92347   2.490   1.575   6.098
96817SOL    HW192348   2.466   1.593   6.189
96817SOL    HW292349   2.426   1.509   6.070
96818SOL     OW92350  10.437  12.065   8.047
96818SOL    HW192351  10.430  12.152   8.008
96818SOL    HW292352  10.347  12.041   8.070
96819SOL     OW92353  12.932   3.824   4.056
96819SOL    HW192354  13.020   3.801   4.027
96819SOL    HW292355  12.875   3.794   3.986
96820SOL     OW92356  13.155   8.604  13.631
96820SOL    HW192357  13.243   8.638  13.616
96820SOL    HW292358  13.160   8.513  13.602
96821SOL     OW92359   7.491   6.770   9.536
96821SOL    HW192360   7.517   6.833   9.469
96821SOL    HW292361   7.511   6.813   9.619
96822SOL     OW92362  11.495   6.180  10.296
96822SOL    HW192363  11.523   6.250  10.355
96822SOL    HW292364  11.497   6.101  10.350
96823SOL     OW92365   1.336   7.934   3.870
96823SOL    HW192366   1.419   7.957   3.911
96823SOL    HW292367   1.284   8.015   3.874
96824SOL     OW92368   6.967   9.836   0.702
96824SOL    HW192369   6.888   9.786   0.723
96824SOL    HW292370   6.942   9.887   0.624
96825SOL     OW92371   5.253   9.909  14.242
96825SOL    HW192372   5.274   9.887  14.151
96825SOL    HW292373   5.323   9.970  14.268
96826SOL     OW92374  10.462   8.521  14.647
96826SOL    HW192375  10.491   8.450  14.705
96826SOL    HW292376  10.373   8.539  14.676
96827SOL     OW92377   7.577   0.892   3.166
96827SOL    HW192378   7.512   0.854   3.225
96827SOL    HW292379   7.637   0.939   3.224
96828SOL     OW92380   9.349   9.354   2.156
96828SOL    HW192381   9.361   9.265   2.123
96828SOL    HW292382   9.300   9.343   2.237
96829SOL     OW92383  14.455   1.259  13.438
96829SOL    HW192384  14.506   1.204  13.497
96829SOL    HW292385  14.475   1.349  13.466
96830SOL     OW92386  13.739  14.559   4.804
96830SOL    HW192387  13.804  14.496   4.772
96830SOL    HW292388  13.733  14.541   4.898
96831SOL     OW92389   6.942  11.775  12.838
96831SOL    HW192390   6.887  11.771  12.916
96831SOL    HW292391   6.896  11.835  12.779
96832SOL     OW92392   0.298   6.322   0.860
96832SOL    HW192393   0.333   6.337   0.948
96832SOL    HW292394   0.367   6.273   0.815
96833SOL     OW92395   2.955   8.834   3.622
96833SOL    HW192396   2.979   8.909   3.568
96833SOL    HW292397   2.946   8.762   3.560
96834SOL     OW92398   3.171   9.982   9.260
96834SOL    HW192399   3.194   9.903   9.309
96834SOL    HW292400   3.252  10.006   9.214
96835SOL     OW92401   9.636   7.415  12.530
96835SOL    HW192402   9.701   7.447  12.467
96835SOL    HW292403   9.658   7.322  12.541
96836SOL     OW92404  11.379   7.022   1.677
96836SOL    HW192405  11.296   7.068   1.665
96836SOL    HW292406  11.405   7.042   1.767
96837SOL     OW92407  10.889   5.352   3.954
96837SOL    HW192408  10.795   5.339   3.943
96837SOL    HW292409  10.925   5.263   3.958
96838SOL     OW92410   2.039  11.629  11.586
96838SOL    HW192411   2.132  11.639  11.566
96838SOL    HW292412   2.021  11.536  11.569
96839SOL     OW92413   9.616  12.691   5.946
96839SOL    HW192414   9.682  12.703   6.014
96839SOL    HW292415   9.634  12.762   5.883
96840SOL     OW92416   0.396   1.838   6.364
96840SOL    HW192417   0.426   1.759   6.408
96840SOL    HW292418   0.329   1.874   6.422
96841SOL     OW92419   7.514   2.056   6.422
96841SOL    HW192420   7.462   1.976   6.417
96841SOL    HW292421   7.464   2.114   6.478
96842SOL     OW92422   5.716  12.431  14.799
96842SOL    HW192423   5.758  12.367  14.742
96842SOL    HW292424   5.745  12.516  14.768
96843SOL     OW92425   2.050  12.915  14.400
96843SOL    HW192426   2.009  12.946  14.319
96843SOL    HW292427   2.139  12.891  14.375
96844SOL     OW92428   3.913   2.673   4.407
96844SOL    HW192429   3.823   2.689   4.379
96844SOL    HW292430   3.943   2.602   4.350
96845SOL     OW92431   4.622   2.773   5.887
96845SOL    HW192432   4.674   2.853   5.882
96845SOL    HW292433   4.584   2.763   5.799
96846SOL     OW92434   2.190   8.526  10.660
96846SOL    HW192435   2.112   8.528  10.604
96846SOL    HW292436   2.253   8.583  10.615
96847SOL     OW92437  12.471   2.099   0.011
96847SOL    HW192438  12.396   2.158   0.018
96847SOL    HW292439  12.546   2.154   0.032
96848SOL     OW92440   2.318  12.674  10.701
96848SOL    HW192441   2.356  12.606  10.758
96848SOL    HW292442   2.388  12.738  10.691
96849SOL     OW92443  13.870  11.906  12.163
96849SOL    HW192444  13.816  11.895  12.084
96849SOL    HW292445  13.880  11.817  12.197
96850SOL     OW92446  12.862   7.712  12.368
96850SOL    HW192447  12.792   7.695  12.431
96850SOL    HW292448  12.941   7.722  12.420
96851SOL     OW92449  12.469   3.168  11.981
96851SOL    HW192450  12.451   3.205  12.067
96851SOL    HW292451  12.459   3.242  11.921
96852SOL     OW92452  13.541  11.991   1.534
96852SOL    HW192453  13.468  12.020   1.480
96852SOL    HW292454  13.584  11.922   1.484
96853SOL     OW92455  12.248   7.512  12.839
96853SOL    HW192456  12.214   7.424  12.822
96853SOL    HW292457  12.186   7.549  12.902
96854SOL     OW92458   4.127   3.353   0.475
96854SOL    HW192459   4.046   3.337   0.522
96854SOL    HW292460   4.185   3.394   0.539
96855SOL     OW92461   0.491   5.548  14.760
96855SOL    HW192462   0.557   5.582  14.700
96855SOL    HW292463   0.493   5.607  14.835
96856SOL     OW92464   6.448   3.161  12.947
96856SOL    HW192465   6.420   3.230  13.007
96856SOL    HW292466   6.537   3.141  12.974
96857SOL     OW92467   3.303  14.728   7.465
96857SOL    HW192468   3.267  14.803   7.418
96857SOL    HW292469   3.278  14.744   7.556
96858SOL     OW92470  13.267   5.974  10.068
96858SOL    HW192471  13.296   5.921   9.993
96858SOL    HW292472  13.302   6.061  10.050
96859SOL     OW92473   9.862   2.844   2.330
96859SOL    HW192474   9.871   2.749   2.317
96859SOL    HW292475   9.925   2.864   2.399
96860SOL     OW92476  11.757  11.743  11.846
96860SOL    HW192477  11.764  11.737  11.751
96860SOL    HW292478  11.847  11.733  11.877
96861SOL     OW92479   0.606   6.431   4.973
96861SOL    HW192480   0.676   6.490   5.003
96861SOL    HW292481   0.598   6.366   5.043
96862SOL     OW92482  10.703   9.012   0.373
96862SOL    HW192483  10.794   8.983   0.384
96862SOL    HW292484  10.697   9.038   0.281
96863SOL     OW92485   4.395   5.811   7.603
96863SOL    HW192486   4.435   5.741   7.655
96863SOL    HW292487   4.343   5.861   7.666
96864SOL     OW92488   2.140   3.098   2.593
96864SOL    HW192489   2.209   3.164   2.596
96864SOL    HW292490   2.155   3.043   2.670
96865SOL     OW92491   3.514  11.083   5.331
96865SOL    HW192492   3.507  11.143   5.405
96865SOL    HW292493   3.585  11.024   5.355
96866SOL     OW92494  14.048   7.193   6.664
96866SOL    HW192495  14.127   7.245   6.648
96866SOL    HW292496  13.989   7.254   6.708
96867SOL     OW92497  11.300   2.833   2.423
96867SOL    HW192498  11.321   2.926   2.433
96867SOL    HW292499  11.304   2.798   2.513
96868SOL     OW92500  11.999  13.771   5.172
96868SOL    HW192501  12.010  13.683   5.209
96868SOL    HW292502  11.930  13.761   5.106
96869SOL     OW92503   5.865   9.506   9.040
96869SOL    HW192504   5.851   9.436   9.103
96869SOL    HW292505   5.939   9.475   8.986
96870SOL     OW92506  10.680   7.207   3.404
96870SOL    HW192507  10.639   7.138   3.351
96870SOL    HW292508  10.622   7.283   3.393
96871SOL     OW92509  14.271  14.334   1.846
96871SOL    HW192510  14.210  14.260   1.847
96871SOL    HW292511  14.221  14.407   1.880
96872SOL     OW92512  11.423   7.444  13.435
96872SOL    HW192513  11.431   7.537  13.417
96872SOL    HW292514  11.474   7.431  13.516
96873SOL     OW92515   5.862   3.855  14.788
96873SOL    HW192516   5.867   3.824  14.697
96873SOL    HW292517   5.799   3.927  14.784
96874SOL     OW92518   2.097  10.751  12.555
96874SOL    HW192519   2.150  10.794  12.488
96874SOL    HW292520   2.133  10.663  12.562
96875SOL     OW92521   0.691  13.924  13.183
96875SOL    HW192522   0.632  13.937  13.258
96875SOL    HW292523   0.633  13.910  13.109
96876SOL     OW92524  10.714   1.674   5.772
96876SOL    HW192525  10.731   1.674   5.866
96876SOL    HW292526  10.793   1.638   5.732
96877SOL     OW92527  11.432  14.249   7.780
96877SOL    HW192528  11.365  14.184   7.758
96877SOL    HW292529  11.477  14.213   7.856
96878SOL     OW92530   0.326   3.970  10.779
96878SOL    HW192531   0.368   4.048  10.742
96878SOL    HW292532   0.395   3.929  10.832
96879SOL     OW92533  10.611   1.786  13.531
96879SOL    HW192534  10.573   1.748  13.610
96879SOL    HW292535  10.695   1.742  13.521
96880SOL     OW92536   9.001   6.109   8.770
96880SOL    HW192537   8.959   6.115   8.684
96880SOL    HW292538   8.978   6.021   8.801
96881SOL     OW92539   6.793   8.811   6.169
96881SOL    HW192540   6.746   8.796   6.252
96881SOL    HW292541   6.768   8.736   6.114
96882SOL     OW92542  10.258   5.579   2.102
96882SOL    HW192543  10.188   5.592   2.039
96882SOL    HW292544  10.282   5.487   2.093
96883SOL     OW92545  13.312  12.535   5.267
96883SOL    HW192546  13.297  12.626   5.295
96883SOL    HW292547  13.237  12.487   5.301
96884SOL     OW92548   7.128  11.058   2.013
96884SOL    HW192549   7.042  11.095   2.033
96884SOL    HW292550   7.121  11.031   1.922
96885SOL     OW92551   4.222   9.561   3.562
96885SOL    HW192552   4.152   9.577   3.499
96885SOL    HW292553   4.178   9.567   3.647
96886SOL     OW92554  14.466  10.284  10.922
96886SOL    HW192555  14.393  10.248  10.871
96886SOL    HW292556  14.441  10.270  11.013
96887SOL     OW92557   2.508  13.447  11.356
96887SOL    HW192558   2.582  13.505  11.339
96887SOL    HW292559   2.507  13.437  11.451
96888SOL     OW92560   5.603  13.565   3.341
96888SOL    HW192561   5.519  13.519   3.335
96888SOL    HW292562   5.669  13.496   3.332
96889SOL     OW92563  12.914  12.487   4.331
96889SOL    HW192564  12.899  12.568   4.379
96889SOL    HW292565  12.858  12.494   4.253
96890SOL     OW92566   9.520   6.045  11.737
96890SOL    HW192567   9.484   6.106  11.802
96890SOL    HW292568   9.459   5.971  11.738
96891SOL     OW92569   9.830   6.691   6.766
96891SOL    HW192570   9.822   6.767   6.708
96891SOL    HW292571   9.900   6.638   6.726
96892SOL     OW92572   9.607   4.651   6.441
96892SOL    HW192573   9.626   4.570   6.487
96892SOL    HW292574   9.629   4.633   6.350
96893SOL     OW92575   6.628   3.575   4.071
96893SOL    HW192576   6.651   3.490   4.109
96893SOL    HW292577   6.626   3.635   4.145
96894SOL     OW92578   4.864   8.314   6.664
96894SOL    HW192579   4.919   8.314   6.743
96894SOL    HW292580   4.884   8.397   6.621
96895SOL     OW92581   8.972   6.017   8.168
96895SOL    HW192582   9.010   6.026   8.256
96895SOL    HW292583   8.986   6.101   8.126
96896SOL     OW92584   8.808   0.617   9.999
96896SOL    HW192585   8.733   0.559   9.987
96896SOL    HW292586   8.811   0.633  10.093
96897SOL     OW92587  13.631   7.696   6.981
96897SOL    HW192588  13.564   7.651   6.929
96897SOL    HW292589  13.605   7.789   6.977
96898SOL     OW92590   7.886  13.985   3.872
96898SOL    HW192591   7.850  14.072   3.889
96898SOL    HW292592   7.882  13.975   3.777
96899SOL     OW92593   4.364   1.457   3.428
96899SOL    HW192594   4.438   1.432   3.484
96899SOL    HW292595   4.403   1.468   3.341
96900SOL     OW92596  13.708   5.038  14.448
96900SOL    HW192597  13.671   5.025  14.361
96900SOL    HW292598  13.789   4.988  14.447
96901SOL     OW92599   3.867   2.818   9.206
96901SOL    HW192600   3.943   2.866   9.239
96901SOL    HW292601   3.798   2.834   9.271
96902SOL     OW92602   8.360   5.641   4.662
96902SOL    HW192603   8.407   5.561   4.640
96902SOL    HW292604   8.425   5.695   4.709
96903SOL     OW92605   0.925   3.864   5.034
96903SOL    HW192606   0.981   3.903   4.967
96903SOL    HW292607   0.836   3.879   5.002
96904SOL     OW92608   7.578   1.477  12.673
96904SOL    HW192609   7.579   1.566  12.708
96904SOL    HW292610   7.635   1.427  12.731
96905SOL     OW92611   6.938   5.454   0.845
96905SOL    HW192612   6.855   5.453   0.798
96905SOL    HW292613   6.925   5.517   0.916
96906SOL     OW92614   1.174  14.086   4.306
96906SOL    HW192615   1.119  14.067   4.383
96906SOL    HW292616   1.214  14.001   4.285
96907SOL     OW92617   8.782  12.933   4.829
96907SOL    HW192618   8.795  12.970   4.742
96907SOL    HW292619   8.827  12.993   4.888
96908SOL     OW92620   3.410  14.415  13.203
96908SOL    HW192621   3.455  14.435  13.121
96908SOL    HW292622   3.467  14.353  13.248
96909SOL     OW92623   6.169  12.669   8.743
96909SOL    HW192624   6.213  12.648   8.661
96909SOL    HW292625   6.173  12.764   8.749
96910SOL     OW92626   0.080  10.137  10.807
96910SOL    HW192627   0.158  10.156  10.859
96910SOL    HW292628   0.087  10.196  10.732
96911SOL     OW92629   8.602   7.017   8.053
96911SOL    HW192630   8.508   6.997   8.054
96911SOL    HW292631   8.635   6.973   7.975
96912SOL     OW92632   1.067  13.274  13.097
96912SOL    HW192633   1.137  13.325  13.139
96912SOL    HW292634   0.989  13.328  13.106
96913SOL     OW92635   8.051   4.017   2.096
96913SOL    HW192636   8.082   4.059   2.016
96913SOL    HW292637   8.001   3.941   2.066
96914SOL     OW92638   8.549   7.283   0.849
96914SOL    HW192639   8.560   7.224   0.775
96914SOL    HW292640   8.464   7.260   0.886
96915SOL     OW92641  13.267   6.285   9.661
96915SOL    HW192642  13.176   6.283   9.630
96915SOL    HW292643  13.291   6.193   9.669
96916SOL     OW92644   1.355   0.360  11.175
96916SOL    HW192645   1.300   0.329  11.246
96916SOL    HW292646   1.301   0.352  11.097
96917SOL     OW92647  11.815   1.350   8.160
96917SOL    HW192648  11.878   1.337   8.089
96917SOL    HW292649  11.732   1.369   8.115
96918SOL     OW92650  13.731   1.890   2.159
96918SOL    HW192651  13.688   1.846   2.232
96918SOL    HW292652  13.731   1.826   2.088
96919SOL     OW92653  10.032   8.919   4.932
96919SOL    HW192654  10.127   8.931   4.928
96919SOL    HW292655  10.020   8.842   4.988
96920SOL     OW92656  14.009   7.355   5.429
96920SOL    HW192657  14.089   7.370   5.480
96920SOL    HW292658  13.940   7.344   5.494
96921SOL     OW92659   9.004  11.352   9.012
96921SOL    HW192660   9.021  11.393   9.097
96921SOL    HW292661   8.910  11.362   8.999
96922SOL     OW92662   3.234  14.266  13.003
96922SOL    HW192663   3.171  14.198  13.027
96922SOL    HW292664   3.269  14.297  13.086
96923SOL     OW92665  12.993   6.033   2.846
96923SOL    HW192666  12.907   5.998   2.826
96923SOL    HW292667  12.999   6.113   2.794
96924SOL     OW92668   2.693  13.797   7.114
96924SOL    HW192669   2.628  13.727   7.108
96924SOL    HW292670   2.753  13.780   7.041
96925SOL     OW92671   6.657   8.825   8.316
96925SOL    HW192672   6.590   8.823   8.248
96925SOL    HW292673   6.611   8.801   8.397
96926SOL     OW92674   8.637   0.773   0.595
96926SOL    HW192675   8.597   0.747   0.678
96926SOL    HW292676   8.635   0.869   0.596
96927SOL     OW92677  14.730   2.992   2.705
96927SOL    HW192678  14.685   2.919   2.747
96927SOL    HW292679  14.748   3.054   2.775
96928SOL     OW92680   3.681   6.938   0.586
96928SOL    HW192681   3.740   6.875   0.627
96928SOL    HW292682   3.604   6.940   0.642
96929SOL     OW92683  12.402  10.867   3.341
96929SOL    HW192684  12.458  10.932   3.299
96929SOL    HW292685  12.344  10.836   3.271
96930SOL     OW92686   0.541   7.054   6.560
96930SOL    HW192687   0.544   7.019   6.471
96930SOL    HW292688   0.554   7.148   6.549
96931SOL     OW92689   7.807   2.399   9.846
96931SOL    HW192690   7.778   2.449   9.769
96931SOL    HW292691   7.729   2.352   9.875
96932SOL     OW92692   9.982  11.291   9.680
96932SOL    HW192693   9.924  11.342   9.736
96932SOL    HW292694   9.924  11.231   9.633
96933SOL     OW92695   0.356  14.199   7.672
96933SOL    HW192696   0.365  14.267   7.606
96933SOL    HW292697   0.271  14.159   7.655
96934SOL     OW92698   9.383   3.880   5.594
96934SOL    HW192699   9.367   3.885   5.500
96934SOL    HW292700   9.312   3.930   5.634
96935SOL     OW92701   6.217   5.661   1.090
96935SOL    HW192702   6.186   5.718   1.160
96935SOL    HW292703   6.204   5.572   1.124
96936SOL     OW92704  14.774  12.413   9.138
96936SOL    HW192705  14.820  12.334   9.166
96936SOL    HW292706  14.710  12.429   9.207
96937SOL     OW92707   4.477  13.075   4.182
96937SOL    HW192708   4.475  13.099   4.275
96937SOL    HW292709   4.530  13.143   4.141
96938SOL     OW92710   7.618   1.099   1.289
96938SOL    HW192711   7.563   1.123   1.214
96938SOL    HW292712   7.699   1.067   1.250
96939SOL     OW92713   0.715  14.317   9.093
96939SOL    HW192714   0.621  14.298   9.091
96939SOL    HW292715   0.722  14.398   9.143
96940SOL     OW92716   5.934   7.678  12.758
96940SOL    HW192717   5.865   7.614  12.778
96940SOL    HW292718   6.002   7.626  12.715
96941SOL     OW92719   0.665   0.663   0.829
96941SOL    HW192720   0.686   0.570   0.821
96941SOL    HW292721   0.629   0.672   0.917
96942SOL     OW92722   7.164   9.055   7.105
96942SOL    HW192723   7.232   9.027   7.166
96942SOL    HW292724   7.132   8.975   7.065
96943SOL     OW92725   3.884   7.428  14.245
96943SOL    HW192726   3.872   7.521  14.222
96943SOL    HW292727   3.846   7.380  14.172
96944SOL     OW92728   4.377   4.621   8.679
96944SOL    HW192729   4.353   4.707   8.644
96944SOL    HW292730   4.430   4.581   8.610
96945SOL     OW92731  14.694   2.184   8.209
96945SOL    HW192732  14.668   2.181   8.301
96945SOL    HW292733  14.709   2.092   8.185
96946SOL     OW92734   4.557   9.237   5.077
96946SOL    HW192735   4.562   9.184   5.157
96946SOL    HW292736   4.480   9.204   5.031
96947SOL     OW92737   4.853   9.101  13.464
96947SOL    HW192738   4.880   9.193  13.475
96947SOL    HW292739   4.800   9.101  13.384
96948SOL     OW92740   5.405   0.141   0.168
96948SOL    HW192741   5.443   0.172   0.250
96948SOL    HW292742   5.347   0.212   0.140
96949SOL     OW92743   0.867   5.883  11.347
96949SOL    HW192744   0.870   5.979  11.344
96949SOL    HW292745   0.957   5.857  11.366
96950SOL     OW92746  14.241  14.327   8.352
96950SOL    HW192747  14.253  14.296   8.442
96950SOL    HW292748  14.271  14.255   8.297
96951SOL     OW92749   5.833   0.366  13.521
96951SOL    HW192750   5.906   0.408  13.476
96951SOL    HW292751   5.863   0.277  13.538
96952SOL     OW92752   8.528  14.639   7.734
96952SOL    HW192753   8.490  14.716   7.777
96952SOL    HW292754   8.502  14.649   7.642
96953SOL     OW92755  13.340  10.784  11.414
96953SOL    HW192756  13.312  10.696  11.388
96953SOL    HW292757  13.258  10.831  11.430
96954SOL     OW92758   8.259   0.205   0.644
96954SOL    HW192759   8.313   0.132   0.675
96954SOL    HW292760   8.317   0.255   0.585
96955SOL     OW92761   9.683   0.385  14.220
96955SOL    HW192762   9.727   0.465  14.192
96955SOL    HW292763   9.590   0.409  14.222
96956SOL     OW92764   1.924   8.232  11.824
96956SOL    HW192765   1.927   8.203  11.733
96956SOL    HW292766   1.831   8.246  11.841
96957SOL     OW92767  14.206   2.625  13.520
96957SOL    HW192768  14.263   2.664  13.585
96957SOL    HW292769  14.262   2.606  13.445
96958SOL     OW92770  14.224   3.345   8.499
96958SOL    HW192771  14.229   3.377   8.589
96958SOL    HW292772  14.132   3.322   8.487
96959SOL     OW92773  11.983   9.116  14.431
96959SOL    HW192774  12.049   9.131  14.364
96959SOL    HW292775  11.913   9.177  14.410
96960SOL     OW92776   1.572  13.611   4.232
96960SOL    HW192777   1.504  13.640   4.170
96960SOL    HW292778   1.620  13.544   4.184
96961SOL     OW92779  12.889   8.176  11.338
96961SOL    HW192780  12.877   8.187  11.432
96961SOL    HW292781  12.839   8.098  11.316
96962SOL     OW92782   4.451   2.466  10.010
96962SOL    HW192783   4.395   2.479   9.933
96962SOL    HW292784   4.523   2.529   9.999
96963SOL     OW92785   7.699   4.507   3.003
96963SOL    HW192786   7.735   4.561   3.074
96963SOL    HW292787   7.637   4.564   2.959
96964SOL     OW92788   5.235  11.455   1.638
96964SOL    HW192789   5.232  11.538   1.589
96964SOL    HW292790   5.183  11.472   1.716
96965SOL     OW92791  11.081   6.241   4.498
96965SOL    HW192792  10.998   6.241   4.450
96965SOL    HW292793  11.078   6.321   4.550
96966SOL     OW92794   4.011   4.714   1.876
96966SOL    HW192795   3.925   4.702   1.917
96966SOL    HW292796   4.010   4.804   1.844
96967SOL     OW92797   6.614  11.681   3.927
96967SOL    HW192798   6.579  11.610   3.981
96967SOL    HW292799   6.708  11.665   3.925
96968SOL     OW92800  14.819   9.777  14.092
96968SOL    HW192801  14.768   9.812  14.165
96968SOL    HW292802   0.010   9.848  14.070
96969SOL     OW92803  10.582   4.458   9.590
96969SOL    HW192804  10.651   4.478   9.653
96969SOL    HW292805  10.572   4.538   9.538
96970SOL     OW92806   3.573   8.205   6.295
96970SOL    HW192807   3.520   8.280   6.267
96970SOL    HW292808   3.539   8.183   6.382
96971SOL     OW92809   8.794   3.636   5.166
96971SOL    HW192810   8.851   3.710   5.183
96971SOL    HW292811   8.822   3.602   5.081
96972SOL     OW92812   9.137  12.730   9.508
96972SOL    HW192813   9.194  12.725   9.585
96972SOL    HW292814   9.132  12.823   9.488
96973SOL     OW92815  14.060  11.730  10.720
96973SOL    HW192816  13.973  11.766  10.705
96973SOL    HW292817  14.089  11.771  10.802
96974SOL     OW92818   4.173   7.868   7.484
96974SOL    HW192819   4.135   7.909   7.407
96974SOL    HW292820   4.230   7.799   7.449
96975SOL     OW92821  10.195   8.715   6.670
96975SOL    HW192822  10.170   8.651   6.603
96975SOL    HW292823  10.289   8.726   6.659
96976SOL     OW92824   0.459   2.160  11.695
96976SOL    HW192825   0.550   2.183  11.679
96976SOL    HW292826   0.449   2.074  11.653
96977SOL     OW92827  11.006   9.654   1.093
96977SOL    HW192828  10.945   9.607   1.150
96977SOL    HW292829  11.062   9.585   1.056
96978SOL     OW92830   2.563  14.683   5.400
96978SOL    HW192831   2.562  14.600   5.448
96978SOL    HW292832   2.655  14.698   5.380
96979SOL     OW92833   7.709   8.806  11.344
96979SOL    HW192834   7.764   8.794  11.267
96979SOL    HW292835   7.768   8.837  11.412
96980SOL     OW92836   1.658  10.522   0.402
96980SOL    HW192837   1.704  10.484   0.327
96980SOL    HW292838   1.726  10.564   0.454
96981SOL     OW92839   7.865  12.528   1.967
96981SOL    HW192840   7.809  12.515   1.891
96981SOL    HW292841   7.829  12.605   2.011
96982SOL     OW92842  10.216  13.473   7.208
96982SOL    HW192843  10.182  13.484   7.297
96982SOL    HW292844  10.155  13.522   7.153
96983SOL     OW92845   5.409   2.887   1.232
96983SOL    HW192846   5.355   2.817   1.268
96983SOL    HW292847   5.394   2.884   1.138
96984SOL     OW92848   8.557   6.145   1.660
96984SOL    HW192849   8.483   6.200   1.635
96984SOL    HW292850   8.632   6.182   1.614
96985SOL     OW92851  13.295  10.407  11.859
96985SOL    HW192852  13.353  10.332  11.845
96985SOL    HW292853  13.348  10.469  11.910
96986SOL     OW92854   3.630   7.152   3.049
96986SOL    HW192855   3.551   7.105   3.021
96986SOL    HW292856   3.654   7.205   2.973
96987SOL     OW92857   9.483  14.379  12.155
96987SOL    HW192858   9.576  14.369  12.174
96987SOL    HW292859   9.465  14.472  12.169
96988SOL     OW92860   5.677   6.222   1.706
96988SOL    HW192861   5.606   6.284   1.691
96988SOL    HW292862   5.696   6.230   1.800
96989SOL     OW92863  14.121   1.927   9.610
96989SOL    HW192864  14.081   1.912   9.696
96989SOL    HW292865  14.077   2.005   9.577
96990SOL     OW92866   5.746   5.740   1.556
96990SOL    HW192867   5.723   5.785   1.637
96990SOL    HW292868   5.783   5.656   1.585
96991SOL     OW92869   5.195  11.527  13.110
96991SOL    HW192870   5.152  11.509  13.193
96991SOL    HW292871   5.133  11.584  13.064
96992SOL     OW92872  12.492   3.019   8.504
96992SOL    HW192873  12.405   3.019   8.466
96992SOL    HW292874  12.526   3.107   8.485
96993SOL     OW92875   1.094   9.727  13.558
96993SOL    HW192876   1.107   9.637  13.590
96993SOL    HW292877   1.101   9.720  13.463
96994SOL     OW92878   1.906   7.489   4.997
96994SOL    HW192879   1.977   7.497   4.935
96994SOL    HW292880   1.910   7.398   5.026
96995SOL     OW92881  11.755   7.218   4.831
96995SOL    HW192882  11.840   7.253   4.803
96995SOL    HW292883  11.734   7.151   4.766
96996SOL     OW92884  13.160   1.972  10.550
96996SOL    HW192885  13.206   2.006  10.474
96996SOL    HW292886  13.191   1.882  10.559
96997SOL     OW92887   6.489   4.707  10.497
96997SOL    HW192888   6.428   4.768  10.540
96997SOL    HW292889   6.574   4.726  10.536
96998SOL     OW92890   9.252  13.646  13.634
96998SOL    HW192891   9.284  13.704  13.703
96998SOL    HW292892   9.327  13.632  13.577
96999SOL     OW92893  12.605  11.553  14.323
96999SOL    HW192894  12.575  11.531  14.235
96999SOL    HW292895  12.700  11.549  14.318
97000SOL     OW92896  10.136   7.435   6.990
97000SOL    HW192897  10.092   7.519   6.981
97000SOL    HW292898  10.103   7.383   6.917
97001SOL     OW92899   0.004   9.992   4.688
97001SOL    HW192900   0.011   9.920   4.625
97001SOL    HW292901   0.094  10.015   4.709
97002SOL     OW92902   0.711   6.924   5.104
97002SOL    HW192903   0.741   6.966   5.024
97002SOL    HW292904   0.666   6.994   5.152
97003SOL     OW92905   1.915  10.894  12.690
97003SOL    HW192906   1.978  10.845  12.636
97003SOL    HW292907   1.887  10.966  12.634
97004SOL     OW92908   9.201   2.597  14.241
97004SOL    HW192909   9.250   2.574  14.319
97004SOL    HW292910   9.148   2.672  14.267
97005SOL     OW92911  12.610  12.705   5.943
97005SOL    HW192912  12.700  12.674   5.952
97005SOL    HW292913  12.558  12.641   5.993
97006SOL     OW92914   7.752   3.760   3.034
97006SOL    HW192915   7.704   3.680   3.016
97006SOL    HW292916   7.773   3.755   3.128
97007SOL     OW92917   8.332   3.936   5.461
97007SOL    HW192918   8.239   3.925   5.440
97007SOL    HW292919   8.337   4.024   5.499
97008SOL     OW92920   4.610  12.176  12.535
97008SOL    HW192921   4.669  12.111  12.499
97008SOL    HW292922   4.648  12.260  12.510
97009SOL     OW92923   9.661   8.080   6.957
97009SOL    HW192924   9.572   8.044   6.964
97009SOL    HW292925   9.702   8.028   6.887
97010SOL     OW92926  13.971   2.033   3.462
97010SOL    HW192927  13.992   2.115   3.507
97010SOL    HW292928  13.902   1.993   3.515
97011SOL     OW92929   2.717   4.993  13.323
97011SOL    HW192930   2.744   5.026  13.237
97011SOL    HW292931   2.623   5.011  13.326
97012SOL     OW92932   8.075  14.024   4.618
97012SOL    HW192933   8.024  14.089   4.570
97012SOL    HW292934   8.117  13.971   4.550
97013SOL     OW92935   7.618  10.549   0.340
97013SOL    HW192936   7.661  10.482   0.286
97013SOL    HW292937   7.681  10.564   0.411
97014SOL     OW92938   6.190  13.982  10.951
97014SOL    HW192939   6.177  13.918  11.021
97014SOL    HW292940   6.276  14.020  10.968
97015SOL     OW92941   4.900   0.694   1.313
97015SOL    HW192942   4.859   0.636   1.249
97015SOL    HW292943   4.906   0.642   1.393
97016SOL     OW92944   2.333  11.222  10.082
97016SOL    HW192945   2.390  11.268  10.021
97016SOL    HW292946   2.331  11.131  10.050
97017SOL     OW92947  10.961   7.569   1.734
97017SOL    HW192948  11.004   7.529   1.659
97017SOL    HW292949  11.031   7.581   1.798
97018SOL     OW92950  10.999  11.274   9.872
97018SOL    HW192951  11.007  11.192   9.922
97018SOL    HW292952  10.905  11.288   9.865
97019SOL     OW92953   1.469  11.693   0.130
97019SOL    HW192954   1.489  11.740   0.050
97019SOL    HW292955   1.402  11.746   0.174
97020SOL     OW92956   9.509   6.394  12.809
97020SOL    HW192957   9.544   6.311  12.842
97020SOL    HW292958   9.498   6.379  12.715
97021SOL     OW92959  13.845  10.724  11.600
97021SOL    HW192960  13.777  10.791  11.604
97021SOL    HW292961  13.808  10.649  11.647
97022SOL     OW92962   8.185  10.677  12.688
97022SOL    HW192963   8.231  10.759  12.701
97022SOL    HW292964   8.097  10.703  12.661
97023SOL     OW92965   6.738  11.713   6.725
97023SOL    HW192966   6.710  11.623   6.707
97023SOL    HW292967   6.828  11.705   6.757
97024SOL     OW92968   9.785   1.745   9.202
97024SOL    HW192969   9.694   1.717   9.203
97024SOL    HW292970   9.784   1.833   9.164
97025SOL     OW92971   6.900   0.125  13.808
97025SOL    HW192972   6.933   0.107  13.896
97025SOL    HW292973   6.942   0.060  13.752
97026SOL     OW92974  10.027   8.967  13.711
97026SOL    HW192975  10.055   9.021  13.785
97026SOL    HW292976  10.051   8.878  13.736
97027SOL     OW92977   1.983  12.095  14.020
97027SOL    HW192978   2.073  12.123  14.002
97027SOL    HW292979   1.935  12.177  14.031
97028SOL     OW92980   0.841   9.083   8.094
97028SOL    HW192981   0.810   9.017   8.031
97028SOL    HW292982   0.852   9.162   8.042
97029SOL     OW92983  12.013   4.333   2.264
97029SOL    HW192984  11.942   4.335   2.328
97029SOL    HW292985  12.054   4.419   2.270
97030SOL     OW92986   5.912   2.089   8.121
97030SOL    HW192987   5.993   2.074   8.072
97030SOL    HW292988   5.910   2.183   8.137
97031SOL     OW92989   3.501  10.808  14.677
97031SOL    HW192990   3.443  10.864  14.729
97031SOL    HW292991   3.553  10.761  14.742
97032SOL     OW92992   5.156   0.801  12.968
97032SOL    HW192993   5.239   0.774  12.928
97032SOL    HW292994   5.140   0.736  13.036
97033SOL     OW92995   1.241   7.370   9.405
97033SOL    HW192996   1.328   7.367   9.444
97033SOL    HW292997   1.182   7.378   9.479
97034SOL     OW92998   5.842   7.998   2.257
97034SOL    HW192999   5.815   7.942   2.330
97034SOL    HW293000   5.856   8.084   2.297
97035SOL     OW93001   6.309   3.188   4.987
97035SOL    HW193002   6.231   3.218   5.034
97035SOL    HW293003   6.276   3.157   4.903
97036SOL     OW93004   4.338   7.862   9.354
97036SOL    HW193005   4.415   7.883   9.302
97036SOL    HW293006   4.276   7.933   9.336
97037SOL     OW93007   8.396  12.973   3.461
97037SOL    HW193008   8.368  13.025   3.536
97037SOL    HW293009   8.315  12.943   3.420
97038SOL     OW93010  10.235   1.828   0.304
97038SOL    HW193011  10.319   1.791   0.333
97038SOL    HW293012  10.220   1.788   0.218
97039SOL     OW93013  13.223   4.981   3.491
97039SOL    HW193014  13.245   5.066   3.530
97039SOL    HW293015  13.234   4.918   3.562
97040SOL     OW93016   3.087   7.170   7.160
97040SOL    HW193017   3.158   7.144   7.218
97040SOL    HW293018   3.073   7.263   7.179
97041SOL     OW93019  12.829   9.948   2.885
97041SOL    HW193020  12.765  10.017   2.903
97041SOL    HW293021  12.783   9.866   2.905
97042SOL     OW93022   1.367   3.921  11.900
97042SOL    HW193023   1.311   3.896  11.973
97042SOL    HW293024   1.316   3.986  11.852
97043SOL     OW93025   7.890   9.592  10.716
97043SOL    HW193026   7.941   9.668  10.688
97043SOL    HW293027   7.935   9.517  10.677
97044SOL     OW93028   6.638   4.445   5.245
97044SOL    HW193029   6.662   4.537   5.233
97044SOL    HW293030   6.603   4.442   5.334
97045SOL     OW93031  13.045  13.820   9.654
97045SOL    HW193032  13.105  13.889   9.625
97045SOL    HW293033  13.101  13.751   9.688
97046SOL     OW93034   5.946  12.828   3.800
97046SOL    HW193035   5.969  12.737   3.819
97046SOL    HW293036   5.901  12.858   3.879
97047SOL     OW93037  13.395   6.772  13.516
97047SOL    HW193038  13.433   6.733  13.595
97047SOL    HW293039  13.458   6.839  13.490
97048SOL     OW93040  14.375   9.440   4.034
97048SOL    HW193041  14.417   9.400   3.958
97048SOL    HW293042  14.442   9.498   4.070
97049SOL     OW93043  12.707   2.825  10.033
97049SOL    HW193044  12.715   2.903   9.979
97049SOL    HW293045  12.612   2.809  10.037
97050SOL     OW93046  11.379   9.801   0.916
97050SOL    HW193047  11.400   9.862   0.845
97050SOL    HW293048  11.284   9.808   0.927
97051SOL     OW93049   0.625  11.173   1.149
97051SOL    HW193050   0.543  11.217   1.129
97051SOL    HW293051   0.687  11.245   1.168
97052SOL     OW93052  13.820   8.520   0.169
97052SOL    HW193053  13.830   8.542   0.076
97052SOL    HW293054  13.725   8.527   0.185
97053SOL     OW93055   2.149  12.390   7.836
97053SOL    HW193056   2.074  12.373   7.778
97053SOL    HW293057   2.172  12.482   7.818
97054SOL     OW93058   1.061   3.309   1.538
97054SOL    HW193059   0.978   3.265   1.519
97054SOL    HW293060   1.127   3.258   1.490
97055SOL     OW93061   7.436   5.248  14.760
97055SOL    HW193062   7.394   5.181  14.814
97055SOL    HW293063   7.463   5.315  14.823
97056SOL     OW93064   3.066  11.183   5.413
97056SOL    HW193065   3.129  11.246   5.449
97056SOL    HW293066   2.997  11.178   5.479
97057SOL     OW93067  12.499   2.780   5.412
97057SOL    HW193068  12.571   2.802   5.471
97057SOL    HW293069  12.538   2.777   5.325
97058SOL     OW93070  14.801   9.871   2.268
97058SOL    HW193071   0.012   9.884   2.319
97058SOL    HW293072  14.831   9.858   2.179
97059SOL     OW93073   9.271   7.215  11.598
97059SOL    HW193074   9.273   7.121  11.616
97059SOL    HW293075   9.293   7.222  11.505
97060SOL     OW93076   6.469  10.217   8.346
97060SOL    HW193077   6.451  10.133   8.305
97060SOL    HW293078   6.458  10.201   8.440
97061SOL     OW93079   0.676   5.318  11.129
97061SOL    HW193080   0.615   5.392  11.125
97061SOL    HW293081   0.745   5.341  11.067
97062SOL     OW93082  12.949   0.339   0.397
97062SOL    HW193083  13.001   0.280   0.451
97062SOL    HW293084  12.860   0.305   0.403
97063SOL     OW93085   8.309   3.710   4.870
97063SOL    HW193086   8.357   3.790   4.888
97063SOL    HW293087   8.323   3.694   4.777
97064SOL     OW93088   4.434  13.490   5.200
97064SOL    HW193089   4.360  13.539   5.162
97064SOL    HW293090   4.405  13.469   5.288
97065SOL     OW93091  14.284   0.043   1.379
97065SOL    HW193092  14.378   0.063   1.375
97065SOL    HW293093  14.280  14.818   1.389
97066SOL     OW93094  13.288  12.845  10.914
97066SOL    HW193095  13.365  12.901  10.920
97066SOL    HW293096  13.233  12.870  10.988
97067SOL     OW93097  11.271  11.982   2.256
97067SOL    HW193098  11.355  11.987   2.211
97067SOL    HW293099  11.215  11.932   2.197
97068SOL     OW93100   6.489   4.190   4.111
97068SOL    HW193101   6.427   4.263   4.109
97068SOL    HW293102   6.550   4.212   4.181
97069SOL     OW93103   4.079   7.923  14.626
97069SOL    HW193104   4.008   7.859  14.631
97069SOL    HW293105   4.089   7.941  14.533
97070SOL     OW93106   8.940  10.834   1.939
97070SOL    HW193107   8.918  10.923   1.911
97070SOL    HW293108   8.973  10.792   1.860
97071SOL     OW93109   2.301   8.695  14.650
97071SOL    HW193110   2.378   8.742  14.680
97071SOL    HW293111   2.296   8.618  14.707
97072SOL     OW93112  14.559  10.159   4.294
97072SOL    HW193113  14.577  10.213   4.371
97072SOL    HW293114  14.553  10.222   4.222
97073SOL     OW93115   3.034  13.424   8.769
97073SOL    HW193116   3.102  13.393   8.709
97073SOL    HW293117   2.952  13.404   8.724
97074SOL     OW93118  13.253  12.805   3.604
97074SOL    HW193119  13.171  12.853   3.589
97074SOL    HW293120  13.280  12.829   3.692
97075SOL     OW93121   6.709   9.105   7.464
97075SOL    HW193122   6.657   9.037   7.421
97075SOL    HW293123   6.697   9.182   7.409
97076SOL     OW93124  11.708  12.862   0.292
97076SOL    HW193125  11.612  12.866   0.294
97076SOL    HW293126  11.728  12.802   0.220
97077SOL     OW93127   5.574   1.176  13.244
97077SOL    HW193128   5.584   1.115  13.171
97077SOL    HW293129   5.654   1.229  13.243
97078SOL     OW93130   2.283  13.868   3.410
97078SOL    HW193131   2.210  13.894   3.466
97078SOL    HW293132   2.330  13.802   3.461
97079SOL     OW93133   5.962   0.051  14.797
97079SOL    HW193134   6.022   0.091  14.859
97079SOL    HW293135   5.954  14.830  14.827
97080SOL     OW93136   4.406  11.405   9.994
97080SOL    HW193137   4.464  11.457  10.049
97080SOL    HW293138   4.320  11.442  10.007
97081SOL     OW93139  10.862   3.131   7.778
97081SOL    HW193140  10.930   3.170   7.724
97081SOL    HW293141  10.899   3.132   7.867
97082SOL     OW93142  13.035   6.032  13.191
97082SOL    HW193143  13.006   5.953  13.238
97082SOL    HW293144  13.019   6.103  13.254
97083SOL     OW93145   2.131   1.638  12.964
97083SOL    HW193146   2.110   1.611  12.875
97083SOL    HW293147   2.070   1.589  13.019
97084SOL     OW93148   0.814   7.851   8.154
97084SOL    HW193149   0.898   7.892   8.172
97084SOL    HW293150   0.835   7.758   8.140
97085SOL     OW93151   6.857  13.961   3.846
97085SOL    HW193152   6.801  13.902   3.797
97085SOL    HW293153   6.835  14.048   3.813
97086SOL     OW93154   9.662   2.647  12.509
97086SOL    HW193155   9.602   2.601  12.568
97086SOL    HW293156   9.612   2.723  12.479
97087SOL     OW93157  13.943   3.770   5.828
97087SOL    HW193158  13.911   3.794   5.915
97087SOL    HW293159  14.010   3.704   5.844
97088SOL     OW93160  13.454   0.454   4.936
97088SOL    HW193161  13.388   0.414   4.878
97088SOL    HW293162  13.442   0.548   4.923
97089SOL     OW93163   7.061  10.466   0.952
97089SOL    HW193164   7.013  10.422   1.022
97089SOL    HW293165   7.151  10.469   0.982
97090SOL     OW93166   4.967  12.835  10.805
97090SOL    HW193167   4.980  12.930  10.797
97090SOL    HW293168   5.052  12.801  10.831
97091SOL     OW93169   6.819   8.411   4.553
97091SOL    HW193170   6.780   8.341   4.605
97091SOL    HW293171   6.794   8.391   4.463
97092SOL     OW93172   8.315  13.773   9.604
97092SOL    HW193173   8.224  13.784   9.634
97092SOL    HW293174   8.312  13.792   9.510
97093SOL     OW93175   4.406   0.624  12.015
97093SOL    HW193176   4.380   0.591  11.929
97093SOL    HW293177   4.387   0.718  12.012
97094SOL     OW93178   8.978   8.334   9.535
97094SOL    HW193179   8.979   8.342   9.631
97094SOL    HW293180   9.049   8.274   9.514
97095SOL     OW93181  14.053  11.863   3.933
97095SOL    HW193182  14.142  11.861   3.967
97095SOL    HW293183  14.050  11.792   3.868
97096SOL     OW93184  10.511   0.530   4.620
97096SOL    HW193185  10.545   0.483   4.697
97096SOL    HW293186  10.417   0.539   4.637
97097SOL     OW93187   3.425  14.514   6.180
97097SOL    HW193188   3.434  14.606   6.154
97097SOL    HW293189   3.387  14.517   6.268
97098SOL     OW93190  14.848   3.145   8.472
97098SOL    HW193191  14.779   3.211   8.483
97098SOL    HW293192  14.822   3.097   8.393
97099SOL     OW93193   5.835   1.670   1.661
97099SOL    HW193194   5.811   1.758   1.632
97099SOL    HW293195   5.861   1.681   1.752
97100SOL     OW93196   1.592  14.348   1.362
97100SOL    HW193197   1.561  14.353   1.452
97100SOL    HW293198   1.678  14.390   1.365
97101SOL     OW93199   9.641   4.138  13.659
97101SOL    HW193200   9.662   4.182  13.742
97101SOL    HW293201   9.717   4.084  13.640
97102SOL     OW93202   4.033   1.499   0.730
97102SOL    HW193203   4.051   1.539   0.815
97102SOL    HW293204   4.019   1.573   0.672
97103SOL     OW93205   1.229   7.672   7.467
97103SOL    HW193206   1.309   7.653   7.516
97103SOL    HW293207   1.192   7.749   7.509
97104SOL     OW93208   8.006   8.242   3.416
97104SOL    HW193209   8.008   8.158   3.463
97104SOL    HW293210   8.086   8.242   3.364
97105SOL     OW93211   7.903   9.769  14.619
97105SOL    HW193212   7.835   9.727  14.567
97105SOL    HW293213   7.984   9.755  14.570
97106SOL     OW93214   3.891  11.759   4.180
97106SOL    HW193215   3.927  11.700   4.247
97106SOL    HW293216   3.963  11.817   4.157
97107SOL     OW93217   7.049   8.442   1.269
97107SOL    HW193218   6.994   8.380   1.318
97107SOL    HW293219   7.012   8.441   1.181
97108SOL     OW93220   9.714  10.146   1.197
97108SOL    HW193221   9.622  10.138   1.222
97108SOL    HW293222   9.724  10.239   1.174
97109SOL     OW93223   8.917   5.362   5.941
97109SOL    HW193224   8.972   5.384   5.866
97109SOL    HW293225   8.974   5.312   5.999
97110SOL     OW93226   7.440   3.907   5.220
97110SOL    HW193227   7.488   3.948   5.147
97110SOL    HW293228   7.421   3.979   5.280
97111SOL     OW93229   9.386   8.326   8.974
97111SOL    HW193230   9.299   8.286   8.978
97111SOL    HW293231   9.412   8.318   8.882
97112SOL     OW93232   6.348   7.259   9.169
97112SOL    HW193233   6.310   7.297   9.090
97112SOL    HW293234   6.275   7.217   9.213
97113SOL     OW93235  10.105   3.422  12.908
97113SOL    HW193236  10.094   3.427  12.813
97113SOL    HW293237  10.096   3.513  12.938
97114SOL     OW93238  12.525  12.878  13.348
97114SOL    HW193239  12.436  12.855  13.378
97114SOL    HW293240  12.551  12.951  13.404
97115SOL     OW93241  12.234   3.115  13.487
97115SOL    HW193242  12.321   3.130  13.450
97115SOL    HW293243  12.184   3.073  13.417
97116SOL     OW93244   3.472   1.595   6.999
97116SOL    HW193245   3.477   1.664   6.932
97116SOL    HW293246   3.413   1.530   6.962
97117SOL     OW93247   0.243   0.042   7.092
97117SOL    HW193248   0.171   0.016   7.150
97117SOL    HW293249   0.202   0.047   7.005
97118SOL     OW93250   3.749  13.678   2.219
97118SOL    HW193251   3.817  13.688   2.152
97118SOL    HW293252   3.673  13.643   2.172
97119SOL     OW93253  12.209   0.059  12.454
97119SOL    HW193254  12.151   0.079  12.527
97119SOL    HW293255  12.263   0.138  12.445
97120SOL     OW93256  14.802  14.721   0.187
97120SOL    HW193257  14.710  14.740   0.166
97120SOL    HW293258  14.808  14.737   0.281
97121SOL     OW93259   9.144   4.491  10.708
97121SOL    HW193260   9.226   4.442  10.704
97121SOL    HW293261   9.101   4.459  10.788
97122SOL     OW93262   4.458   3.700   4.107
97122SOL    HW193263   4.543   3.680   4.067
97122SOL    HW293264   4.416   3.615   4.120
97123SOL     OW93265   5.996  14.673  14.373
97123SOL    HW193266   6.053  14.700  14.301
97123SOL    HW293267   5.966  14.755  14.412
97124SOL     OW93268   5.584   5.550  13.876
97124SOL    HW193269   5.597   5.472  13.821
97124SOL    HW293270   5.625   5.621  13.826
97125SOL     OW93271   2.124  12.741   1.225
97125SOL    HW193272   2.041  12.769   1.264
97125SOL    HW293273   2.151  12.816   1.171
97126SOL     OW93274   1.662  10.033  10.946
97126SOL    HW193275   1.712   9.968  10.995
97126SOL    HW293276   1.599  10.068  11.009
97127SOL     OW93277   6.253   1.424   0.699
97127SOL    HW193278   6.295   1.427   0.785
97127SOL    HW293279   6.289   1.345   0.658
97128SOL     OW93280   1.624   2.070   1.589
97128SOL    HW193281   1.606   2.159   1.559
97128SOL    HW293282   1.716   2.055   1.568
97129SOL     OW93283   5.316   4.943   0.821
97129SOL    HW193284   5.231   4.931   0.777
97129SOL    HW293285   5.380   4.935   0.751
97130SOL     OW93286   4.345   3.001   5.721
97130SOL    HW193287   4.394   2.953   5.654
97130SOL    HW293288   4.295   2.934   5.766
97131SOL     OW93289   1.717   0.790  10.982
97131SOL    HW193290   1.644   0.730  10.965
97131SOL    HW293291   1.747   0.817  10.895
97132SOL     OW93292   2.001  13.759   3.555
97132SOL    HW193293   1.968  13.757   3.645
97132SOL    HW293294   2.060  13.684   3.550
97133SOL     OW93295   8.155   1.236  10.100
97133SOL    HW193296   8.069   1.196  10.113
97133SOL    HW293297   8.141   1.329  10.121
97134SOL     OW93298   5.728  13.135  12.106
97134SOL    HW193299   5.807  13.082  12.095
97134SOL    HW293300   5.686  13.135  12.020
97135SOL     OW93301   4.985   8.767   6.118
97135SOL    HW193302   5.016   8.729   6.036
97135SOL    HW293303   4.901   8.726   6.134
97136SOL     OW93304  11.389   6.074   4.041
97136SOL    HW193305  11.411   6.038   4.127
97136SOL    HW293306  11.327   6.145   4.060
97137SOL     OW93307   8.562   9.804   1.086
97137SOL    HW193308   8.562   9.724   1.034
97137SOL    HW293309   8.617   9.865   1.036
97138SOL     OW93310   6.713  12.150   6.827
97138SOL    HW193311   6.667  12.097   6.893
97138SOL    HW293312   6.797  12.106   6.815
97139SOL     OW93313   1.678   8.561  14.458
97139SOL    HW193314   1.655   8.528  14.371
97139SOL    HW293315   1.596   8.556  14.507
97140SOL     OW93316  13.937   7.731  14.401
97140SOL    HW193317  14.015   7.756  14.352
97140SOL    HW293318  13.898   7.814  14.428
97141SOL     OW93319  13.686  13.492   8.337
97141SOL    HW193320  13.703  13.497   8.243
97141SOL    HW293321  13.773  13.488   8.377
97142SOL     OW93322  10.214   5.494   7.543
97142SOL    HW193323  10.192   5.458   7.457
97142SOL    HW293324  10.173   5.580   7.544
97143SOL     OW93325   2.168   8.260   2.427
97143SOL    HW193326   2.138   8.351   2.424
97143SOL    HW293327   2.090   8.208   2.408
97144SOL     OW93328   1.866  12.777   0.823
97144SOL    HW193329   1.869  12.825   0.905
97144SOL    HW293330   1.872  12.844   0.755
97145SOL     OW93331  12.053  11.025   3.720
97145SOL    HW193332  12.110  10.975   3.661
97145SOL    HW293333  11.965  10.993   3.701
97146SOL     OW93334   4.010   9.704  13.633
97146SOL    HW193335   4.075   9.651  13.588
97146SOL    HW293336   3.989   9.655  13.713
97147SOL     OW93337   1.391   6.648   0.654
97147SOL    HW193338   1.431   6.671   0.570
97147SOL    HW293339   1.460   6.601   0.701
97148SOL     OW93340  14.485   8.113   8.452
97148SOL    HW193341  14.547   8.046   8.481
97148SOL    HW293342  14.466   8.162   8.531
97149SOL     OW93343   1.093   9.067   3.123
97149SOL    HW193344   1.130   9.057   3.035
97149SOL    HW293345   0.999   9.076   3.109
97150SOL     OW93346   2.329   0.471   6.250
97150SOL    HW193347   2.269   0.447   6.179
97150SOL    HW293348   2.357   0.560   6.229
97151SOL     OW93349  11.396   6.281   6.852
97151SOL    HW193350  11.346   6.266   6.772
97151SOL    HW293351  11.436   6.367   6.840
97152SOL     OW93352   7.079   0.416   2.545
97152SOL    HW193353   7.091   0.329   2.581
97152SOL    HW293354   7.118   0.475   2.609
97153SOL     OW93355   2.388   7.972   5.701
97153SOL    HW193356   2.423   7.908   5.763
97153SOL    HW293357   2.441   7.961   5.622
97154SOL     OW93358   3.265   4.108   3.375
97154SOL    HW193359   3.269   4.030   3.321
97154SOL    HW293360   3.247   4.076   3.463
97155SOL     OW93361   9.287  13.857   6.004
97155SOL    HW193362   9.358  13.866   6.067
97155SOL    HW293363   9.208  13.848   6.057
97156SOL     OW93364  14.223  13.336  12.809
97156SOL    HW193365  14.170  13.257  12.803
97156SOL    HW293366  14.306  13.313  12.769
97157SOL     OW93367  14.789   6.791   5.683
97157SOL    HW193368  14.859   6.792   5.618
97157SOL    HW293369  14.826   6.836   5.759
97158SOL     OW93370   4.042   1.340  13.823
97158SOL    HW193371   4.121   1.304  13.864
97158SOL    HW293372   4.067   1.354  13.732
97159SOL     OW93373   2.586  13.805   0.150
97159SOL    HW193374   2.655  13.845   0.097
97159SOL    HW293375   2.534  13.879   0.182
97160SOL     OW93376   5.323   1.424   0.312
97160SOL    HW193377   5.286   1.433   0.400
97160SOL    HW293378   5.249   1.393   0.259
97161SOL     OW93379   8.346  13.520   0.828
97161SOL    HW193380   8.416  13.519   0.763
97161SOL    HW293381   8.286  13.587   0.797
97162SOL     OW93382   6.850   8.053  12.974
97162SOL    HW193383   6.819   8.014  12.892
97162SOL    HW293384   6.833   8.146  12.963
97163SOL     OW93385  12.632  11.074   4.334
97163SOL    HW193386  12.638  11.153   4.281
97163SOL    HW293387  12.716  11.029   4.319
97164SOL     OW93388   2.972   0.227  12.162
97164SOL    HW193389   2.933   0.269  12.085
97164SOL    HW293390   2.984   0.299  12.225
97165SOL     OW93391   9.997   6.967   7.863
97165SOL    HW193392  10.046   6.978   7.781
97165SOL    HW293393   9.908   6.995   7.841
97166SOL     OW93394   6.757   1.075   1.983
97166SOL    HW193395   6.814   1.132   2.035
97166SOL    HW293396   6.794   1.079   1.895
97167SOL     OW93397   3.206   6.449  11.197
97167SOL    HW193398   3.121   6.425  11.160
97167SOL    HW293399   3.229   6.531  11.153
97168SOL     OW93400   4.726  12.871  10.540
97168SOL    HW193401   4.699  12.953  10.499
97168SOL    HW293402   4.693  12.877  10.630
97169SOL     OW93403   9.564  11.579  13.565
97169SOL    HW193404   9.589  11.655  13.617
97169SOL    HW293405   9.602  11.504  13.611
97170SOL     OW93406  13.910  11.960  11.364
97170SOL    HW193407  13.944  11.875  11.335
97170SOL    HW293408  13.921  12.017  11.287
97171SOL     OW93409   4.816   0.316  12.729
97171SOL    HW193410   4.813   0.309  12.633
97171SOL    HW293411   4.724   0.317  12.756
97172SOL     OW93412   0.408   1.960  11.027
97172SOL    HW193413   0.374   1.929  11.111
97172SOL    HW293414   0.503   1.957  11.037
97173SOL     OW93415   3.458   3.283  13.257
97173SOL    HW193416   3.458   3.378  13.250
97173SOL    HW293417   3.546   3.256  13.232
97174SOL     OW93418  11.166   9.481   6.957
97174SOL    HW193419  11.207   9.534   6.888
97174SOL    HW293420  11.228   9.486   7.030
97175SOL     OW93421  14.317   7.198   8.356
97175SOL    HW193422  14.291   7.284   8.322
97175SOL    HW293423  14.399   7.216   8.403
97176SOL     OW93424   2.087  13.854   1.860
97176SOL    HW193425   2.144  13.911   1.809
97176SOL    HW293426   2.143  13.782   1.888
97177SOL     OW93427   8.801  14.042   9.677
97177SOL    HW193428   8.834  14.018   9.590
97177SOL    HW293429   8.768  13.960   9.714
97178SOL     OW93430   0.886  12.229   6.975
97178SOL    HW193431   0.899  12.230   6.880
97178SOL    HW293432   0.793  12.210   6.986
97179SOL     OW93433   0.617  12.141   4.570
97179SOL    HW193434   0.705  12.147   4.532
97179SOL    HW293435   0.620  12.199   4.647
97180SOL     OW93436   9.989  12.911  12.258
97180SOL    HW193437  10.006  13.005  12.259
97180SOL    HW293438  10.018  12.883  12.171
97181SOL     OW93439   5.512   1.080  12.400
97181SOL    HW193440   5.425   1.043  12.393
97181SOL    HW293441   5.520   1.108  12.491
97182SOL     OW93442   7.113   7.470   3.601
97182SOL    HW193443   7.176   7.539   3.583
97182SOL    HW293444   7.074   7.450   3.515
97183SOL     OW93445  10.841   7.296   1.755
97183SOL    HW193446  10.898   7.354   1.806
97183SOL    HW293447  10.765   7.351   1.732
97184SOL     OW93448   5.993   1.315   4.639
97184SOL    HW193449   5.938   1.237   4.635
97184SOL    HW293450   5.939   1.379   4.685
97185SOL     OW93451   8.160  12.452   2.673
97185SOL    HW193452   8.122  12.406   2.748
97185SOL    HW293453   8.251  12.421   2.668
97186SOL     OW93454   7.339   2.939  11.629
97186SOL    HW193455   7.420   2.895  11.602
97186SOL    HW293456   7.318   2.998  11.557
97187SOL     OW93457  10.975  11.442  10.605
97187SOL    HW193458  10.965  11.354  10.568
97187SOL    HW293459  10.902  11.451  10.666
97188SOL     OW93460  14.244   5.438   1.737
97188SOL    HW193461  14.285   5.523   1.720
97188SOL    HW293462  14.151   5.453   1.725
97189SOL     OW93463   6.090  13.236   7.167
97189SOL    HW193464   6.064  13.181   7.094
97189SOL    HW293465   6.043  13.200   7.242
97190SOL     OW93466   3.035   4.192   0.965
97190SOL    HW193467   2.952   4.237   0.949
97190SOL    HW293468   3.029   4.111   0.914
97191SOL     OW93469   2.799  12.759  10.627
97191SOL    HW193470   2.729  12.738  10.689
97191SOL    HW293471   2.759  12.820  10.565
97192SOL     OW93472   6.545   7.697   8.458
97192SOL    HW193473   6.612   7.728   8.519
97192SOL    HW293474   6.532   7.769   8.397
97193SOL     OW93475  13.463   0.271   0.310
97193SOL    HW193476  13.385   0.305   0.265
97193SOL    HW293477  13.536   0.293   0.252
97194SOL     OW93478   8.660  11.495   5.759
97194SOL    HW193479   8.640  11.423   5.700
97194SOL    HW293480   8.612  11.570   5.723
97195SOL     OW93481   6.204  11.194   7.576
97195SOL    HW193482   6.124  11.212   7.624
97195SOL    HW293483   6.175  11.168   7.488
97196SOL     OW93484   2.481   2.490   3.845
97196SOL    HW193485   2.542   2.532   3.784
97196SOL    HW293486   2.535   2.425   3.891
97197SOL     OW93487   0.814   1.094   7.762
97197SOL    HW193488   0.796   1.065   7.672
97197SOL    HW293489   0.905   1.123   7.760
97198SOL     OW93490  11.851   9.858   6.547
97198SOL    HW193491  11.801   9.815   6.478
97198SOL    HW293492  11.794   9.929   6.577
97199SOL     OW93493  13.711  14.312  14.818
97199SOL    HW193494  13.665  14.391  14.789
97199SOL    HW293495  13.651  14.241  14.797
97200SOL     OW93496  12.846  13.739   2.030
97200SOL    HW193497  12.845  13.663   2.088
97200SOL    HW293498  12.922  13.725   1.974
97201SOL     OW93499   7.502   2.057   8.762
97201SOL    HW193500   7.509   2.063   8.667
97201SOL    HW293501   7.408   2.068   8.780
97202SOL     OW93502   5.948   7.687  10.815
97202SOL    HW193503   5.927   7.775  10.784
97202SOL    HW293504   5.910   7.682  10.903
97203SOL     OW93505  11.216   3.270  12.168
97203SOL    HW193506  11.227   3.276  12.262
97203SOL    HW293507  11.187   3.357  12.142
97204SOL     OW93508  11.358  10.129  10.235
97204SOL    HW193509  11.429  10.179  10.194
97204SOL    HW293510  11.382  10.123  10.327
97205SOL     OW93511   6.573   4.457   7.693
97205SOL    HW193512   6.643   4.522   7.684
97205SOL    HW293513   6.617   4.378   7.725
97206SOL     OW93514   1.107   8.776   5.079
97206SOL    HW193515   1.087   8.697   5.029
97206SOL    HW293516   1.202   8.784   5.074
97207SOL     OW93517  14.130   4.086  13.345
97207SOL    HW193518  14.179   4.062  13.266
97207SOL    HW293519  14.040   4.100  13.313
97208SOL     OW93520   1.225  12.382   8.102
97208SOL    HW193521   1.318  12.397   8.119
97208SOL    HW293522   1.219  12.372   8.007
97209SOL     OW93523   7.887   0.872   3.095
97209SOL    HW193524   7.917   0.935   3.030
97209SOL    HW293525   7.951   0.880   3.167
97210SOL     OW93526  10.903   2.060   4.928
97210SOL    HW193527  10.925   2.153   4.931
97210SOL    HW293528  10.902   2.039   4.834
97211SOL     OW93529  13.057   1.589   9.708
97211SOL    HW193530  13.142   1.608   9.668
97211SOL    HW293531  12.993   1.599   9.638
97212SOL     OW93532   5.649   2.994   7.597
97212SOL    HW193533   5.600   2.998   7.679
97212SOL    HW293534   5.647   3.084   7.563
97213SOL     OW93535   0.106   7.431   6.226
97213SOL    HW193536   0.035   7.437   6.162
97213SOL    HW293537   0.170   7.496   6.197
97214SOL     OW93538  14.450  10.595   7.741
97214SOL    HW193539  14.391  10.631   7.807
97214SOL    HW293540  14.470  10.669   7.683
97215SOL     OW93541   3.856   9.000  10.217
97215SOL    HW193542   3.908   9.054  10.276
97215SOL    HW293543   3.915   8.929  10.192
97216SOL     OW93544  11.716  10.692   6.800
97216SOL    HW193545  11.681  10.676   6.713
97216SOL    HW293546  11.682  10.778   6.824
97217SOL     OW93547   7.206   1.343  14.475
97217SOL    HW193548   7.286   1.290  14.471
97217SOL    HW293549   7.160   1.310  14.552
97218SOL     OW93550   8.578  14.723   3.951
97218SOL    HW193551   8.671  14.699   3.950
97218SOL    HW293552   8.578  14.817   3.972
97219SOL     OW93553   0.138  12.896   5.126
97219SOL    HW193554   0.179  12.845   5.196
97219SOL    HW293555   0.082  12.959   5.172
97220SOL     OW93556   1.712  11.655  11.840
97220SOL    HW193557   1.676  11.682  11.756
97220SOL    HW293558   1.777  11.723  11.861
97221SOL     OW93559   6.416   1.100  11.678
97221SOL    HW193560   6.377   1.016  11.702
97221SOL    HW293561   6.373   1.123  11.595
97222SOL     OW93562  12.176   6.030   8.721
97222SOL    HW193563  12.123   6.102   8.687
97222SOL    HW293564  12.118   5.985   8.782
97223SOL     OW93565   4.354   3.611   5.811
97223SOL    HW193566   4.450   3.614   5.818
97223SOL    HW293567   4.335   3.520   5.789
97224SOL     OW93568   9.152  12.381   1.061
97224SOL    HW193569   9.097  12.303   1.068
97224SOL    HW293570   9.228  12.361   1.115
97225SOL     OW93571   1.845   9.748   0.921
97225SOL    HW193572   1.885   9.775   1.004
97225SOL    HW293573   1.869   9.817   0.860
97226SOL     OW93574   6.571  11.963   1.467
97226SOL    HW193575   6.566  12.058   1.475
97226SOL    HW293576   6.523  11.929   1.542
97227SOL     OW93577   3.385  13.390  10.467
97227SOL    HW193578   3.391  13.422  10.557
97227SOL    HW293579   3.380  13.295  10.475
97228SOL     OW93580   4.796  11.294  13.546
97228SOL    HW193581   4.801  11.385  13.576
97228SOL    HW293582   4.739  11.251  13.609
97229SOL     OW93583   8.424   4.949  11.928
97229SOL    HW193584   8.393   4.950  12.019
97229SOL    HW293585   8.519   4.942  11.935
97230SOL     OW93586   8.048  10.069   7.072
97230SOL    HW193587   7.955  10.047   7.077
97230SOL    HW293588   8.055  10.130   6.999
97231SOL     OW93589   1.379   9.162  14.224
97231SOL    HW193590   1.323   9.207  14.160
97231SOL    HW293591   1.466   9.201  14.211
97232SOL     OW93592  14.594   9.344   5.520
97232SOL    HW193593  14.533   9.406   5.560
97232SOL    HW293594  14.572   9.259   5.558
97233SOL     OW93595   6.153   0.883   9.962
97233SOL    HW193596   6.171   0.977   9.952
97233SOL    HW293597   6.091   0.878  10.034
97234SOL     OW93598   8.224  14.717   2.878
97234SOL    HW193599   8.278  14.749   2.950
97234SOL    HW293600   8.137  14.707   2.916
97235SOL     OW93601  12.396  12.592   7.755
97235SOL    HW193602  12.406  12.503   7.722
97235SOL    HW293603  12.302  12.609   7.750
97236SOL     OW93604   9.936   4.545  12.668
97236SOL    HW193605   9.939   4.578  12.758
97236SOL    HW293606   9.845   4.557  12.642
97237SOL     OW93607   9.971  14.172   4.423
97237SOL    HW193608   9.941  14.262   4.437
97237SOL    HW293609   9.990  14.140   4.511
97238SOL     OW93610   1.755  12.018   3.398
97238SOL    HW193611   1.769  11.927   3.424
97238SOL    HW293612   1.835  12.044   3.353
97239SOL     OW93613   6.947   4.833  13.982
97239SOL    HW193614   6.867   4.791  14.014
97239SOL    HW293615   6.918   4.919  13.952
97240SOL     OW93616   1.867   6.984  10.355
97240SOL    HW193617   1.948   6.995  10.406
97240SOL    HW293618   1.888   7.018  10.269
97241SOL     OW93619   2.659   0.502   9.846
97241SOL    HW193620   2.751   0.529   9.849
97241SOL    HW293621   2.634   0.515   9.755
97242SOL     OW93622   6.069  13.372   0.701
97242SOL    HW193623   6.090  13.279   0.691
97242SOL    HW293624   6.102  13.413   0.621
97243SOL     OW93625   4.700   4.748  10.402
97243SOL    HW193626   4.737   4.820  10.452
97243SOL    HW293627   4.767   4.725  10.338
97244SOL     OW93628   0.082   6.841  10.763
97244SOL    HW193629   0.071   6.759  10.715
97244SOL    HW293630   0.014   6.839  10.831
97245SOL     OW93631   1.023  12.851   4.424
97245SOL    HW193632   0.957  12.921   4.418
97245SOL    HW293633   1.107  12.896   4.414
97246SOL     OW93634   2.967   0.288   3.522
97246SOL    HW193635   2.883   0.312   3.482
97246SOL    HW293636   2.949   0.290   3.617
97247SOL     OW93637  14.692  13.385   1.717
97247SOL    HW193638  14.664  13.303   1.756
97247SOL    HW293639  14.737  13.360   1.636
97248SOL     OW93640  10.136   1.107   7.670
97248SOL    HW193641  10.136   1.195   7.632
97248SOL    HW293642  10.136   1.122   7.765
97249SOL     OW93643   3.851  11.364   0.495
97249SOL    HW193644   3.925  11.303   0.506
97249SOL    HW293645   3.877  11.420   0.423
97250SOL     OW93646   2.668  12.838  12.820
97250SOL    HW193647   2.672  12.913  12.761
97250SOL    HW293648   2.701  12.765  12.768
97251SOL     OW93649   5.963   0.436   6.991
97251SOL    HW193650   5.983   0.343   6.986
97251SOL    HW293651   6.021   0.477   6.927
97252SOL     OW93652   4.586   2.235  11.980
97252SOL    HW193653   4.672   2.193  11.990
97252SOL    HW293654   4.602   2.310  11.922
97253SOL     OW93655   4.269   0.168   7.940
97253SOL    HW193656   4.304   0.256   7.954
97253SOL    HW293657   4.309   0.115   8.009
97254SOL     OW93658   5.871  14.696  12.814
97254SOL    HW193659   5.871  14.606  12.780
97254SOL    HW293660   5.950  14.735  12.777
97255SOL     OW93661   7.051   1.236   1.249
97255SOL    HW193662   7.147   1.231   1.252
97255SOL    HW293663   7.033   1.305   1.186
97256SOL     OW93664  10.128   1.258   1.407
97256SOL    HW193665  10.056   1.286   1.350
97256SOL    HW293666  10.204   1.253   1.349
97257SOL     OW93667   2.896   6.989   2.384
97257SOL    HW193668   2.865   6.978   2.473
97257SOL    HW293669   2.818   7.014   2.334
97258SOL     OW93670   3.264   3.774   4.571
97258SOL    HW193671   3.225   3.824   4.643
97258SOL    HW293672   3.194   3.765   4.507
97259SOL     OW93673   8.113   4.936   5.687
97259SOL    HW193674   8.143   4.941   5.596
97259SOL    HW293675   8.025   4.974   5.685
97260SOL     OW93676  10.130   6.520   1.273
97260SOL    HW193677  10.137   6.591   1.337
97260SOL    HW293678  10.050   6.473   1.297
97261SOL     OW93679   8.585  10.701   5.100
97261SOL    HW193680   8.582  10.723   5.007
97261SOL    HW293681   8.650  10.762   5.136
97262SOL     OW93682   3.880   8.373   9.446
97262SOL    HW193683   3.936   8.442   9.480
97262SOL    HW293684   3.793   8.413   9.440
97263SOL     OW93685   5.895  11.061   6.773
97263SOL    HW193686   5.871  10.993   6.836
97263SOL    HW293687   5.897  11.016   6.689
97264SOL     OW93688  11.491  12.744  10.348
97264SOL    HW193689  11.477  12.660  10.304
97264SOL    HW293690  11.430  12.804  10.305
97265SOL     OW93691   8.048  14.700   5.536
97265SOL    HW193692   7.959  14.718   5.565
97265SOL    HW293693   8.102  14.706   5.615
97266SOL     OW93694   1.206   7.498  12.203
97266SOL    HW193695   1.163   7.582  12.193
97266SOL    HW293696   1.292   7.519  12.241
97267SOL     OW93697   5.556  13.422   0.032
97267SOL    HW193698   5.531  13.426   0.124
97267SOL    HW293699   5.511  13.496  14.861
97268SOL     OW93700   5.153  13.450   7.063
97268SOL    HW193701   5.123  13.371   7.109
97268SOL    HW293702   5.220  13.419   7.003
97269SOL     OW93703  14.353   9.261   8.309
97269SOL    HW193704  14.337   9.355   8.314
97269SOL    HW293705  14.427   9.246   8.368
97270SOL     OW93706   9.366   0.515   2.067
97270SOL    HW193707   9.279   0.481   2.085
97270SOL    HW293708   9.423   0.468   2.128
97271SOL     OW93709   3.423   9.233  14.820
97271SOL    HW193710   3.494   9.186  14.864
97271SOL    HW293711   3.467   9.283  14.751
97272SOL     OW93712   1.636  14.233   9.878
97272SOL    HW193713   1.658  14.168   9.945
97272SOL    HW293714   1.643  14.317   9.923
97273SOL     OW93715   6.898  14.479  14.180
97273SOL    HW193716   6.980  14.452  14.137
97273SOL    HW293717   6.873  14.404  14.233
97274SOL     OW93718   5.211   8.545  11.480
97274SOL    HW193719   5.265   8.477  11.520
97274SOL    HW293720   5.132   8.500  11.452
97275SOL     OW93721   4.619   5.071  12.723
97275SOL    HW193722   4.608   5.164  12.739
97275SOL    HW293723   4.612   5.062  12.627
97276SOL     OW93724   8.726  12.057   5.141
97276SOL    HW193725   8.739  12.141   5.185
97276SOL    HW293726   8.731  11.992   5.211
97277SOL     OW93727   4.830   1.729  13.607
97277SOL    HW193728   4.827   1.637  13.636
97277SOL    HW293729   4.763   1.735  13.540
97278SOL     OW93730   9.048  11.488   7.281
97278SOL    HW193731   9.040  11.503   7.187
97278SOL    HW293732   9.142  11.475   7.295
97279SOL     OW93733   9.989   6.675  12.150
97279SOL    HW193734   9.990   6.621  12.071
97279SOL    HW293735   9.901   6.713  12.153
97280SOL     OW93736   4.705  14.481   9.951
97280SOL    HW193737   4.797  14.482   9.979
97280SOL    HW293738   4.683  14.573   9.940
97281SOL     OW93739  11.657   0.454   6.577
97281SOL    HW193740  11.692   0.409   6.501
97281SOL    HW293741  11.592   0.514   6.542
97282SOL     OW93742  11.251   0.066   7.803
97282SOL    HW193743  11.178   0.127   7.795
97282SOL    HW293744  11.298   0.074   7.720
97283SOL     OW93745   5.090   5.900   6.733
97283SOL    HW193746   5.172   5.866   6.697
97283SOL    HW293747   5.045   5.938   6.658
97284SOL     OW93748  11.045   4.921  11.400
97284SOL    HW193749  11.125   4.890  11.358
97284SOL    HW293750  11.002   4.842  11.432
97285SOL     OW93751   5.528   3.882  10.837
97285SOL    HW193752   5.509   3.796  10.800
97285SOL    HW293753   5.495   3.944  10.772
97286SOL     OW93754   1.083  11.459   8.134
97286SOL    HW193755   1.008  11.407   8.163
97286SOL    HW293756   1.065  11.477   8.041
97287SOL     OW93757   1.566  11.291   1.615
97287SOL    HW193758   1.587  11.379   1.646
97287SOL    HW293759   1.596  11.233   1.684
97288SOL     OW93760   3.988  12.473   0.949
97288SOL    HW193761   4.008  12.510   1.035
97288SOL    HW293762   3.907  12.516   0.922
97289SOL     OW93763   1.759  13.742   0.612
97289SOL    HW193764   1.701  13.694   0.670
97289SOL    HW293765   1.815  13.675   0.573
97290SOL     OW93766  13.341   3.471   2.527
97290SOL    HW193767  13.315   3.479   2.618
97290SOL    HW293768  13.273   3.516   2.477
97291SOL     OW93769  12.989  10.254   0.916
97291SOL    HW193770  12.979  10.325   0.979
97291SOL    HW293771  13.083  10.236   0.914
97292SOL     OW93772  10.471  12.557   8.838
97292SOL    HW193773  10.384  12.520   8.822
97292SOL    HW293774  10.454  12.645   8.871
97293SOL     OW93775   4.381  14.461   8.021
97293SOL    HW193776   4.374  14.437   7.929
97293SOL    HW293777   4.447  14.401   8.057
97294SOL     OW93778   6.925   7.464   4.615
97294SOL    HW193779   6.891   7.450   4.703
97294SOL    HW293780   6.854   7.510   4.569
97295SOL     OW93781   0.591  12.441   7.049
97295SOL    HW193782   0.676  12.460   7.087
97295SOL    HW293783   0.602  12.460   6.955
97296SOL     OW93784   2.455   4.401   1.280
97296SOL    HW193785   2.374   4.429   1.237
97296SOL    HW293786   2.492   4.482   1.316
97297SOL     OW93787  11.117  12.761  14.002
97297SOL    HW193788  11.206  12.786  14.026
97297SOL    HW293789  11.118  12.757  13.907
97298SOL     OW93790   4.132  13.215  10.050
97298SOL    HW193791   4.066  13.282  10.067
97298SOL    HW293792   4.168  13.238   9.964
97299SOL     OW93793   2.399  10.853   5.429
97299SOL    HW193794   2.459  10.825   5.498
97299SOL    HW293795   2.443  10.928   5.388
97300SOL     OW93796   7.551   1.532   9.479
97300SOL    HW193797   7.596   1.586   9.415
97300SOL    HW293798   7.542   1.447   9.437
97301SOL     OW93799  10.797   1.177  11.390
97301SOL    HW193800  10.709   1.213  11.405
97301SOL    HW293801  10.788   1.084  11.412
97302SOL     OW93802   8.519  13.046   9.814
97302SOL    HW193803   8.516  12.956   9.782
97302SOL    HW293804   8.438  13.086   9.783
97303SOL     OW93805   5.664  12.269   6.200
97303SOL    HW193806   5.612  12.268   6.280
97303SOL    HW293807   5.641  12.187   6.155
97304SOL     OW93808  10.990   0.534  12.976
97304SOL    HW193809  10.923   0.598  12.952
97304SOL    HW293810  10.993   0.474  12.902
97305SOL     OW93811   1.312   1.690   6.950
97305SOL    HW193812   1.245   1.743   6.993
97305SOL    HW293813   1.369   1.754   6.908
97306SOL     OW93814   3.307  13.496   7.381
97306SOL    HW193815   3.298  13.585   7.349
97306SOL    HW293816   3.296  13.503   7.476
97307SOL     OW93817   7.640   2.863   9.502
97307SOL    HW193818   7.670   2.954   9.496
97307SOL    HW293819   7.576   2.864   9.573
97308SOL     OW93820  11.170  13.841   9.017
97308SOL    HW193821  11.232  13.881   8.955
97308SOL    HW293822  11.176  13.747   8.999
97309SOL     OW93823   6.521  12.738  12.987
97309SOL    HW193824   6.462  12.813  12.980
97309SOL    HW293825   6.479  12.669  12.935
97310SOL     OW93826   1.216   1.674   0.932
97310SOL    HW193827   1.188   1.584   0.915
97310SOL    HW293828   1.144   1.711   0.983
97311SOL     OW93829   0.914  10.792   3.849
97311SOL    HW193830   0.906  10.767   3.757
97311SOL    HW293831   1.002  10.829   3.856
97312SOL     OW93832   7.460   5.726   6.080
97312SOL    HW193833   7.527   5.794   6.081
97312SOL    HW293834   7.378   5.773   6.062
97313SOL     OW93835   1.473   1.639  12.827
97313SOL    HW193836   1.505   1.655  12.915
97313SOL    HW293837   1.471   1.725  12.785
97314SOL     OW93838  13.736  12.475   7.067
97314SOL    HW193839  13.664  12.428   7.026
97314SOL    HW293840  13.700  12.560   7.090
97315SOL     OW93841   3.687  12.682  12.767
97315SOL    HW193842   3.751  12.695  12.837
97315SOL    HW293843   3.666  12.589  12.770
97316SOL     OW93844   5.986  12.506  10.660
97316SOL    HW193845   6.078  12.493  10.638
97316SOL    HW293846   5.940  12.501  10.576
97317SOL     OW93847  11.837  13.896  12.795
97317SOL    HW193848  11.776  13.840  12.748
97317SOL    HW293849  11.806  13.985  12.780
97318SOL     OW93850   0.975   2.505   2.185
97318SOL    HW193851   0.916   2.553   2.243
97318SOL    HW293852   0.954   2.538   2.098
97319SOL     OW93853  14.305   1.805   3.640
97319SOL    HW193854  14.286   1.728   3.587
97319SOL    HW293855  14.377   1.777   3.698
97320SOL     OW93856   7.971   0.067   2.886
97320SOL    HW193857   8.002   0.109   2.806
97320SOL    HW293858   7.940  14.851   2.858
97321SOL     OW93859   8.978  10.598   6.654
97321SOL    HW193860   9.056  10.547   6.633
97321SOL    HW293861   8.988  10.621   6.746
97322SOL     OW93862  14.223   0.845   7.595
97322SOL    HW193863  14.156   0.795   7.548
97322SOL    HW293864  14.175   0.894   7.661
97323SOL     OW93865  12.357   1.269   1.392
97323SOL    HW193866  12.294   1.298   1.326
97323SOL    HW293867  12.423   1.338   1.395
97324SOL     OW93868   9.853   3.800   0.893
97324SOL    HW193869   9.765   3.781   0.926
97324SOL    HW293870   9.842   3.877   0.837
97325SOL     OW93871   3.034   7.230   4.666
97325SOL    HW193872   3.107   7.282   4.632
97325SOL    HW293873   2.974   7.222   4.593
97326SOL     OW93874   7.502   7.276  10.729
97326SOL    HW193875   7.566   7.346  10.722
97326SOL    HW293876   7.481   7.271  10.822
97327SOL     OW93877   1.008   1.549  10.166
97327SOL    HW193878   1.057   1.596  10.233
97327SOL    HW293879   1.066   1.477  10.139
97328SOL     OW93880   1.251  10.509   0.315
97328SOL    HW193881   1.168  10.509   0.268
97328SOL    HW293882   1.291  10.593   0.292
97329SOL     OW93883   2.039   7.178   7.184
97329SOL    HW193884   2.125   7.195   7.147
97329SOL    HW293885   1.994   7.262   7.180
97330SOL     OW93886   1.756   9.836  14.539
97330SOL    HW193887   1.828   9.893  14.567
97330SOL    HW293888   1.750   9.852  14.444
97331SOL     OW93889   0.117  13.575   7.336
97331SOL    HW193890   0.164  13.574   7.419
97331SOL    HW293891   0.157  13.647   7.287
97332SOL     OW93892  13.225  13.997   9.544
97332SOL    HW193893  13.317  13.997   9.571
97332SOL    HW293894  13.224  13.949   9.461
97333SOL     OW93895  12.430   5.564   5.624
97333SOL    HW193896  12.444   5.599   5.712
97333SOL    HW293897  12.420   5.470   5.637
97334SOL     OW93898  14.824   3.277   7.908
97334SOL    HW193899  14.783   3.341   7.965
97334SOL    HW293900   0.042   3.265   7.943
97335SOL     OW93901   6.032   6.488   2.716
97335SOL    HW193902   6.088   6.473   2.792
97335SOL    HW293903   6.078   6.447   2.643
97336SOL     OW93904  11.504  11.980   7.679
97336SOL    HW193905  11.492  11.906   7.740
97336SOL    HW293906  11.582  11.956   7.629
97337SOL     OW93907   5.452   5.170  11.009
97337SOL    HW193908   5.398   5.192  10.933
97337SOL    HW293909   5.490   5.085  10.987
97338SOL     OW93910  13.221   1.598   3.316
97338SOL    HW193911  13.292   1.651   3.352
97338SOL    HW293912  13.221   1.620   3.222
97339SOL     OW93913   6.071  11.320   1.771
97339SOL    HW193914   6.107  11.347   1.855
97339SOL    HW293915   5.984  11.285   1.793
97340SOL     OW93916   9.434   4.533  13.301
97340SOL    HW193917   9.401   4.608  13.351
97340SOL    HW293918   9.448   4.465  13.366
97341SOL     OW93919   4.121   1.324   8.687
97341SOL    HW193920   4.055   1.333   8.755
97341SOL    HW293921   4.131   1.412   8.651
97342SOL     OW93922   4.779   3.636  13.213
97342SOL    HW193923   4.867   3.607  13.237
97342SOL    HW293924   4.789   3.730  13.195
97343SOL     OW93925  10.268  13.528   9.738
97343SOL    HW193926  10.314  13.552   9.657
97343SOL    HW293927  10.279  13.604   9.795
97344SOL     OW93928  10.719  13.193  10.690
97344SOL    HW193929  10.772  13.260  10.647
97344SOL    HW293930  10.647  13.177  10.628
97345SOL     OW93931   9.948   8.220   0.629
97345SOL    HW193932  10.037   8.190   0.642
97345SOL    HW293933   9.931   8.206   0.536
97346SOL     OW93934   7.195   6.433   1.084
97346SOL    HW193935   7.220   6.442   1.176
97346SOL    HW293936   7.176   6.339   1.073
97347SOL     OW93937   3.208   5.202   5.257
97347SOL    HW193938   3.242   5.147   5.328
97347SOL    HW293939   3.156   5.269   5.301
97348SOL     OW93940  10.408  11.673   3.515
97348SOL    HW193941  10.323  11.663   3.471
97348SOL    HW293942  10.390  11.732   3.588
97349SOL     OW93943   7.289  14.143  11.469
97349SOL    HW193944   7.267  14.130  11.377
97349SOL    HW293945   7.205  14.136  11.515
97350SOL     OW93946   4.169   4.448   5.211
97350SOL    HW193947   4.119   4.517   5.255
97350SOL    HW293948   4.254   4.488   5.194
97351SOL     OW93949   5.570   4.826   2.860
97351SOL    HW193950   5.640   4.831   2.925
97351SOL    HW293951   5.596   4.887   2.791
97352SOL     OW93952   3.857   7.063   2.320
97352SOL    HW193953   3.842   7.157   2.331
97352SOL    HW293954   3.893   7.035   2.405
97353SOL     OW93955   2.815   1.286   5.312
97353SOL    HW193956   2.904   1.310   5.287
97353SOL    HW293957   2.778   1.365   5.349
97354SOL     OW93958  12.037   4.171   9.196
97354SOL    HW193959  11.986   4.187   9.276
97354SOL    HW293960  12.041   4.076   9.189
97355SOL     OW93961   6.295   3.031  11.354
97355SOL    HW193962   6.318   3.109  11.303
97355SOL    HW293963   6.351   3.037  11.431
97356SOL     OW93964   6.769  10.019  14.558
97356SOL    HW193965   6.773  10.088  14.624
97356SOL    HW293966   6.831   9.953  14.589
97357SOL     OW93967   9.916   7.245   3.056
97357SOL    HW193968   9.871   7.329   3.048
97357SOL    HW293969   9.848   7.185   3.087
97358SOL     OW93970   9.715  10.595   1.854
97358SOL    HW193971   9.702  10.622   1.763
97358SOL    HW293972   9.698  10.501   1.854
97359SOL     OW93973   7.455   0.764   9.061
97359SOL    HW193974   7.420   0.827   8.998
97359SOL    HW293975   7.394   0.766   9.135
97360SOL     OW93976   8.694  10.310   4.463
97360SOL    HW193977   8.782  10.336   4.491
97360SOL    HW293978   8.672  10.235   4.517
97361SOL     OW93979   9.880   4.913   8.619
97361SOL    HW193980   9.927   4.837   8.584
97361SOL    HW293981   9.890   4.906   8.714
97362SOL     OW93982   1.409  12.461   2.997
97362SOL    HW193983   1.395  12.371   3.027
97362SOL    HW293984   1.324  12.504   3.012
97363SOL     OW93985   9.471   6.805  11.552
97363SOL    HW193986   9.546   6.785  11.496
97363SOL    HW293987   9.497   6.884  11.599
97364SOL     OW93988   7.657  13.082   6.758
97364SOL    HW193989   7.572  13.125   6.769
97364SOL    HW293990   7.654  13.044   6.670
97365SOL     OW93991  13.977   3.805  10.633
97365SOL    HW193992  13.993   3.898  10.653
97365SOL    HW293993  14.047   3.782  10.571
97366SOL     OW93994  12.081   5.268   3.511
97366SOL    HW193995  12.082   5.176   3.538
97366SOL    HW293996  12.015   5.273   3.443
97367SOL     OW93997   5.538   6.637  12.320
97367SOL    HW193998   5.540   6.610  12.228
97367SOL    HW293999   5.445   6.651  12.339
97368SOL     OW94000   8.658   9.952   6.847
97368SOL    HW194001   8.657  10.047   6.859
97368SOL    HW294002   8.579   9.935   6.794
97369SOL     OW94003  10.380  12.800   4.425
97369SOL    HW194004  10.426  12.884   4.421
97369SOL    HW294005  10.347  12.795   4.515
97370SOL     OW94006   2.514   3.014   7.198
97370SOL    HW194007   2.452   2.957   7.243
97370SOL    HW294008   2.600   2.976   7.217
97371SOL     OW94009   1.591   0.279  12.112
97371SOL    HW194010   1.596   0.251  12.204
97371SOL    HW294011   1.668   0.335  12.101
97372SOL     OW94012   2.042   3.161   4.811
97372SOL    HW194013   1.954   3.158   4.849
97372SOL    HW294014   2.030   3.132   4.721
97373SOL     OW94015   8.598   6.324  14.092
97373SOL    HW194016   8.541   6.346  14.166
97373SOL    HW294017   8.685   6.350  14.120
97374SOL     OW94018  13.280   8.701   4.115
97374SOL    HW194019  13.351   8.754   4.079
97374SOL    HW294020  13.219   8.764   4.151
97375SOL     OW94021   8.122  14.482   8.483
97375SOL    HW194022   8.145  14.398   8.523
97375SOL    HW294023   8.033  14.469   8.451
97376SOL     OW94024   4.711  13.337   1.502
97376SOL    HW194025   4.705  13.247   1.469
97376SOL    HW294026   4.741  13.388   1.426
97377SOL     OW94027  11.718  13.320   4.966
97377SOL    HW194028  11.786  13.387   4.959
97377SOL    HW294029  11.765  13.237   4.962
97378SOL     OW94030  13.646   0.911   5.860
97378SOL    HW194031  13.708   0.856   5.813
97378SOL    HW294032  13.602   0.851   5.921
97379SOL     OW94033   5.542  14.675  13.066
97379SOL    HW194034   5.634  14.700  13.056
97379SOL    HW294035   5.519  14.702  13.154
97380SOL     OW94036  10.551   4.559   6.691
97380SOL    HW194037  10.583   4.591   6.776
97380SOL    HW294038  10.583   4.623   6.628
97381SOL     OW94039   5.926   8.333   1.689
97381SOL    HW194040   5.909   8.254   1.740
97381SOL    HW294041   6.021   8.342   1.690
97382SOL     OW94042   6.996  11.200   5.049
97382SOL    HW194043   6.955  11.123   5.009
97382SOL    HW294044   6.927  11.239   5.102
97383SOL     OW94045  12.486   6.497   4.691
97383SOL    HW194046  12.392   6.487   4.703
97383SOL    HW294047  12.513   6.418   4.644
97384SOL     OW94048   9.178   2.559  13.736
97384SOL    HW194049   9.216   2.506  13.806
97384SOL    HW294050   9.091   2.522  13.722
97385SOL     OW94051  11.180   3.305   9.062
97385SOL    HW194052  11.175   3.358   9.143
97385SOL    HW294053  11.090   3.275   9.049
97386SOL     OW94054   0.825  12.597   1.332
97386SOL    HW194055   0.759  12.573   1.268
97386SOL    HW294056   0.907  12.561   1.296
97387SOL     OW94057   1.233   1.798  10.346
97387SOL    HW194058   1.236   1.755  10.260
97387SOL    HW294059   1.321   1.834  10.357
97388SOL     OW94060   8.477  13.447   3.898
97388SOL    HW194061   8.525  13.447   3.981
97388SOL    HW294062   8.391  13.482   3.920
97389SOL     OW94063  12.514   9.177   0.928
97389SOL    HW194064  12.541   9.106   0.870
97389SOL    HW294065  12.419   9.182   0.918
97390SOL     OW94066   7.767  14.383   9.979
97390SOL    HW194067   7.824  14.329  10.033
97390SOL    HW294068   7.712  14.430  10.041
97391SOL     OW94069  10.178  10.901   6.417
97391SOL    HW194070  10.185  10.924   6.325
97391SOL    HW294071  10.230  10.821   6.426
97392SOL     OW94072   3.534  12.980  12.439
97392SOL    HW194073   3.522  13.047  12.506
97392SOL    HW294074   3.568  12.904  12.486
97393SOL     OW94075  13.821   6.157   9.498
97393SOL    HW194076  13.822   6.061   9.495
97393SOL    HW294077  13.907   6.183   9.464
97394SOL     OW94078  10.168   5.986   3.131
97394SOL    HW194079  10.113   5.995   3.209
97394SOL    HW294080  10.106   5.979   3.058
97395SOL     OW94081   6.368   3.454  14.001
97395SOL    HW194082   6.338   3.536  13.963
97395SOL    HW294083   6.314   3.387  13.959
97396SOL     OW94084  13.423  13.217   9.769
97396SOL    HW194085  13.333  13.187   9.761
97396SOL    HW294086  13.455  13.223   9.679
97397SOL     OW94087  13.797   4.839  13.037
97397SOL    HW194088  13.720   4.875  12.993
97397SOL    HW294089  13.764   4.812  13.123
97398SOL     OW94090  12.592   6.286   4.902
97398SOL    HW194091  12.658   6.221   4.879
97398SOL    HW294092  12.621   6.367   4.860
97399SOL     OW94093  13.544   8.385   6.678
97399SOL    HW194094  13.635   8.355   6.671
97399SOL    HW294095  13.497   8.334   6.611
97400SOL     OW94096  14.863  14.685   5.107
97400SOL    HW194097   0.009  14.758   5.047
97400SOL    HW294098  14.772  14.697   5.135
97401SOL     OW94099   5.531   3.847  12.892
97401SOL    HW194100   5.495   3.893  12.817
97401SOL    HW294101   5.523   3.754  12.870
97402SOL     OW94102   6.714   7.253   2.032
97402SOL    HW194103   6.666   7.281   1.954
97402SOL    HW294104   6.657   7.187   2.074
97403SOL     OW94105   2.506   8.636   2.004
97403SOL    HW194106   2.439   8.574   1.977
97403SOL    HW294107   2.520   8.617   2.097
97404SOL     OW94108  12.886   7.161   7.352
97404SOL    HW194109  12.914   7.168   7.261
97404SOL    HW294110  12.965   7.176   7.403
97405SOL     OW94111   1.647   2.915  13.207
97405SOL    HW194112   1.708   2.987  13.227
97405SOL    HW294113   1.622   2.881  13.293
97406SOL     OW94114   4.627   9.114   6.519
97406SOL    HW194115   4.625   9.157   6.604
97406SOL    HW294116   4.622   9.186   6.455
97407SOL     OW94117   8.760   3.081  10.574
97407SOL    HW194118   8.816   3.109  10.647
97407SOL    HW294119   8.694   3.151  10.567
97408SOL     OW94120   0.665   8.670   6.607
97408SOL    HW194121   0.672   8.623   6.690
97408SOL    HW294122   0.576   8.704   6.605
97409SOL     OW94123   6.873   3.724  12.352
97409SOL    HW194124   6.865   3.798  12.412
97409SOL    HW294125   6.785   3.685  12.349
97410SOL     OW94126   6.591  10.728   3.364
97410SOL    HW194127   6.619  10.702   3.452
97410SOL    HW294128   6.525  10.796   3.380
97411SOL     OW94129   0.347  11.924  14.160
97411SOL    HW194130   0.370  11.996  14.101
97411SOL    HW294131   0.262  11.949  14.196
97412SOL     OW94132   7.878   9.875   3.676
97412SOL    HW194133   7.950   9.887   3.614
97412SOL    HW294134   7.813   9.825   3.627
97413SOL     OW94135  13.692  13.147  11.155
97413SOL    HW194136  13.757  13.186  11.097
97413SOL    HW294137  13.715  13.054  11.157
97414SOL     OW94138   0.961   5.214  13.014
97414SOL    HW194139   0.944   5.254  12.928
97414SOL    HW294140   1.047   5.246  13.039
97415SOL     OW94141   7.303   2.962   6.768
97415SOL    HW194142   7.248   2.932   6.695
97415SOL    HW294143   7.359   2.887   6.788
97416SOL     OW94144   1.700  11.892   7.343
97416SOL    HW194145   1.621  11.838   7.337
97416SOL    HW294146   1.762  11.838   7.391
97417SOL     OW94147  13.733   6.925   4.241
97417SOL    HW194148  13.667   6.872   4.197
97417SOL    HW294149  13.722   6.904   4.334
97418SOL     OW94150   8.716   2.871   1.602
97418SOL    HW194151   8.688   2.935   1.667
97418SOL    HW294152   8.759   2.922   1.534
97419SOL     OW94153   5.898   0.036   7.010
97419SOL    HW194154   5.974   0.093   6.998
97419SOL    HW294155   5.860   0.028   6.923
97420SOL     OW94156  11.247  13.059   0.096
97420SOL    HW194157  11.308  13.114   0.047
97420SOL    HW294158  11.182  13.030   0.031
97421SOL     OW94159  14.826   2.156   4.470
97421SOL    HW194160  14.793   2.068   4.489
97421SOL    HW294161  14.767   2.190   4.403
97422SOL     OW94162   7.747   4.056   9.583
97422SOL    HW194163   7.799   3.998   9.638
97422SOL    HW294164   7.660   4.017   9.582
97423SOL     OW94165   4.343  11.872   5.592
97423SOL    HW194166   4.279  11.876   5.521
97423SOL    HW294167   4.291  11.865   5.671
97424SOL     OW94168  14.573  12.562   1.543
97424SOL    HW194169  14.500  12.547   1.602
97424SOL    HW294170  14.651  12.563   1.599
97425SOL     OW94171   3.806  12.969  10.240
97425SOL    HW194172   3.738  13.021  10.283
97425SOL    HW294173   3.772  12.952  10.152
97426SOL     OW94174  12.117   7.765  14.420
97426SOL    HW194175  12.182   7.741  14.354
97426SOL    HW294176  12.168   7.774  14.501
97427SOL     OW94177   1.110   8.480   7.372
97427SOL    HW194178   1.172   8.417   7.335
97427SOL    HW294179   1.132   8.563   7.330
97428SOL     OW94180   4.425   5.864   3.957
97428SOL    HW194181   4.406   5.958   3.956
97428SOL    HW294182   4.481   5.850   3.880
97429SOL     OW94183  11.640   9.699  12.615
97429SOL    HW194184  11.690   9.766  12.569
97429SOL    HW294185  11.570   9.748  12.659
97430SOL     OW94186  10.879   0.604  11.735
97430SOL    HW194187  10.840   0.637  11.816
97430SOL    HW294188  10.938   0.534  11.763
97431SOL     OW94189   1.779   6.212   1.278
97431SOL    HW194190   1.835   6.136   1.291
97431SOL    HW294191   1.797   6.267   1.355
97432SOL     OW94192   5.481   5.259  12.311
97432SOL    HW194193   5.545   5.315  12.356
97432SOL    HW294194   5.532   5.183  12.283
97433SOL     OW94195   3.259  10.634   1.854
97433SOL    HW194196   3.329  10.636   1.919
97433SOL    HW294197   3.281  10.705   1.793
97434SOL     OW94198   2.488  14.543   8.188
97434SOL    HW194199   2.417  14.607   8.190
97434SOL    HW294200   2.567  14.596   8.195
97435SOL     OW94201  14.667   0.262   8.112
97435SOL    HW194202  14.719   0.311   8.176
97435SOL    HW294203  14.581   0.304   8.114
97436SOL     OW94204   5.368  10.632   6.376
97436SOL    HW194205   5.296  10.601   6.321
97436SOL    HW294206   5.406  10.552   6.413
97437SOL     OW94207   7.786   4.565   7.542
97437SOL    HW194208   7.693   4.549   7.528
97437SOL    HW294209   7.813   4.619   7.467
97438SOL     OW94210   4.951   5.072  11.637
97438SOL    HW194211   4.874   5.127  11.647
97438SOL    HW294212   4.973   5.076  11.544
97439SOL     OW94213   0.972   6.499   4.718
97439SOL    HW194214   1.018   6.427   4.674
97439SOL    HW294215   1.033   6.572   4.715
97440SOL     OW94216   2.042   8.765   2.367
97440SOL    HW194217   1.970   8.769   2.304
97440SOL    HW294218   2.108   8.824   2.332
97441SOL     OW94219  12.314   3.085   3.191
97441SOL    HW194220  12.367   3.016   3.153
97441SOL    HW294221  12.229   3.077   3.148
97442SOL     OW94222   6.896   6.266  10.541
97442SOL    HW194223   6.937   6.348  10.568
97442SOL    HW294224   6.873   6.279  10.450
97443SOL     OW94225  12.504   2.554   8.646
97443SOL    HW194226  12.454   2.608   8.708
97443SOL    HW294227  12.505   2.604   8.565
97444SOL     OW94228  12.644   2.646  12.340
97444SOL    HW194229  12.616   2.689  12.259
97444SOL    HW294230  12.739   2.646  12.335
97445SOL     OW94231   0.640   5.256  14.550
97445SOL    HW194232   0.695   5.267  14.627
97445SOL    HW294233   0.551   5.276  14.580
97446SOL     OW94234   6.772   9.287  12.994
97446SOL    HW194235   6.801   9.216  12.938
97446SOL    HW294236   6.735   9.244  13.072
97447SOL     OW94237  11.838   6.571   6.035
97447SOL    HW194238  11.815   6.663   6.018
97447SOL    HW294239  11.924   6.560   5.995
97448SOL     OW94240   5.529   5.620   8.445
97448SOL    HW194241   5.508   5.591   8.534
97448SOL    HW294242   5.553   5.713   8.456
97449SOL     OW94243   2.879   2.774  10.829
97449SOL    HW194244   2.849   2.685  10.845
97449SOL    HW294245   2.953   2.786  10.889
97450SOL     OW94246   1.793  12.159   5.075
97450SOL    HW194247   1.700  12.169   5.057
97450SOL    HW294248   1.812  12.224   5.143
97451SOL     OW94249   1.070   9.159   5.135
97451SOL    HW194250   1.013   9.083   5.128
97451SOL    HW294251   1.123   9.156   5.055
97452SOL     OW94252  10.383   4.710  14.385
97452SOL    HW194253  10.362   4.647  14.454
97452SOL    HW294254  10.304   4.763  14.377
97453SOL     OW94255  11.232   4.404   4.873
97453SOL    HW194256  11.208   4.496   4.862
97453SOL    HW294257  11.193   4.379   4.957
97454SOL     OW94258   3.007  14.091   8.617
97454SOL    HW194259   2.926  14.136   8.640
97454SOL    HW294260   3.074  14.135   8.668
97455SOL     OW94261  13.405  13.751  13.253
97455SOL    HW194262  13.387  13.700  13.174
97455SOL    HW294263  13.412  13.842  13.222
97456SOL     OW94264  13.626  14.032  14.063
97456SOL    HW194265  13.630  14.004  13.971
97456SOL    HW294266  13.593  14.121  14.059
97457SOL     OW94267   1.836   6.409   0.953
97457SOL    HW194268   1.753   6.406   0.906
97457SOL    HW294269   1.811   6.432   1.043
97458SOL     OW94270   0.297   4.750  11.177
97458SOL    HW194271   0.368   4.778  11.118
97458SOL    HW294272   0.249   4.831  11.197
97459SOL     OW94273  11.311   3.139   2.259
97459SOL    HW194274  11.323   3.191   2.339
97459SOL    HW294275  11.228   3.092   2.272
97460SOL     OW94276   8.488   3.133   6.429
97460SOL    HW194277   8.444   3.178   6.501
97460SOL    HW294278   8.416   3.092   6.379
97461SOL     OW94279   1.813   9.736   6.634
97461SOL    HW194280   1.721   9.750   6.656
97461SOL    HW294281   1.861   9.794   6.693
97462SOL     OW94282   6.294   0.680   7.939
97462SOL    HW194283   6.224   0.745   7.945
97462SOL    HW294284   6.284   0.627   8.018
97463SOL     OW94285   1.719   2.786  14.136
97463SOL    HW194286   1.781   2.860  14.136
97463SOL    HW294287   1.751   2.728  14.205
97464SOL     OW94288   6.849   9.170   3.743
97464SOL    HW194289   6.807   9.124   3.671
97464SOL    HW294290   6.943   9.159   3.726
97465SOL     OW94291   3.691  12.345  11.493
97465SOL    HW194292   3.656  12.261  11.520
97465SOL    HW294293   3.637  12.371  11.418
97466SOL     OW94294  14.532   9.306  12.166
97466SOL    HW194295  14.605   9.362  12.193
97466SOL    HW294296  14.454   9.355  12.189
97467SOL     OW94297  10.646   4.658  12.921
97467SOL    HW194298  10.638   4.687  12.830
97467SOL    HW294299  10.739   4.637  12.932
97468SOL     OW94300   2.703   5.998   6.911
97468SOL    HW194301   2.713   6.070   6.973
97468SOL    HW294302   2.650   5.933   6.958
97469SOL     OW94303  13.070   8.499  13.874
97469SOL    HW194304  12.999   8.442  13.845
97469SOL    HW294305  13.076   8.567  13.806
97470SOL     OW94306   6.426   9.719   6.652
97470SOL    HW194307   6.422   9.815   6.648
97470SOL    HW294308   6.339   9.693   6.682
97471SOL     OW94309   0.608   1.425  12.932
97471SOL    HW194310   0.678   1.361  12.928
97471SOL    HW294311   0.572   1.417  13.020
97472SOL     OW94312   6.439  10.150   0.814
97472SOL    HW194313   6.421  10.169   0.722
97472SOL    HW294314   6.535  10.150   0.820
97473SOL     OW94315   6.835   5.712   0.969
97473SOL    HW194316   6.836   5.808   0.969
97473SOL    HW294317   6.775   5.689   1.040
97474SOL     OW94318  14.536  10.771   5.661
97474SOL    HW194319  14.579  10.808   5.584
97474SOL    HW294320  14.544  10.839   5.728
97475SOL     OW94321  11.846   6.286   8.947
97475SOL    HW194322  11.910   6.234   8.995
97475SOL    HW294323  11.888   6.306   8.864
97476SOL     OW94324   2.771  14.159  13.507
97476SOL    HW194325   2.704  14.218  13.540
97476SOL    HW294326   2.854  14.198  13.533
97477SOL     OW94327   6.937  13.469   8.245
97477SOL    HW194328   7.010  13.426   8.200
97477SOL    HW294329   6.904  13.533   8.182
97478SOL     OW94330   8.541   7.484   8.044
97478SOL    HW194331   8.550   7.404   7.991
97478SOL    HW294332   8.459   7.524   8.013
97479SOL     OW94333  11.742  13.517   5.612
97479SOL    HW194334  11.773  13.551   5.696
97479SOL    HW294335  11.790  13.567   5.546
97480SOL     OW94336  10.622  11.760   0.582
97480SOL    HW194337  10.609  11.787   0.673
97480SOL    HW294338  10.618  11.841   0.532
97481SOL     OW94339   2.304  14.840  12.699
97481SOL    HW194340   2.308  14.748  12.727
97481SOL    HW294341   2.228  14.843  12.641
97482SOL     OW94342  10.950   5.047   1.785
97482SOL    HW194343  11.000   5.122   1.817
97482SOL    HW294344  11.007   5.007   1.719
97483SOL     OW94345   3.961   7.138  14.572
97483SOL    HW194346   3.898   7.076  14.608
97483SOL    HW294347   4.045   7.092  14.576
97484SOL     OW94348   5.991  12.356   1.701
97484SOL    HW194349   5.998  12.265   1.730
97484SOL    HW294350   6.032  12.356   1.615
97485SOL     OW94351   9.469   7.093   1.873
97485SOL    HW194352   9.491   7.181   1.841
97485SOL    HW294353   9.375   7.096   1.887
97486SOL     OW94354   7.279   2.560  10.065
97486SOL    HW194355   7.323   2.476  10.052
97486SOL    HW294356   7.242   2.554  10.153
97487SOL     OW94357   3.595   1.163   2.591
97487SOL    HW194358   3.664   1.204   2.540
97487SOL    HW294359   3.639   1.127   2.668
97488SOL     OW94360  12.939  14.279  10.534
97488SOL    HW194361  12.887  14.229  10.471
97488SOL    HW294362  12.897  14.364  10.539
97489SOL     OW94363  10.187   0.930   2.867
97489SOL    HW194364  10.275   0.892   2.874
97489SOL    HW294365  10.133   0.859   2.832
97490SOL     OW94366   6.093   6.566   9.141
97490SOL    HW194367   6.038   6.541   9.066
97490SOL    HW294368   6.141   6.643   9.111
97491SOL     OW94369   9.672   3.090   7.514
97491SOL    HW194370   9.733   3.144   7.564
97491SOL    HW294371   9.616   3.153   7.468
97492SOL     OW94372   4.425   8.650  13.105
97492SOL    HW194373   4.479   8.724  13.133
97492SOL    HW294374   4.442   8.643  13.011
97493SOL     OW94375   5.436   2.806  13.457
97493SOL    HW194376   5.395   2.720  13.454
97493SOL    HW294377   5.403   2.851  13.379
97494SOL     OW94378  12.317   8.467  13.126
97494SOL    HW194379  12.306   8.429  13.213
97494SOL    HW294380  12.331   8.561  13.142
97495SOL     OW94381   7.232   0.491   1.355
97495SOL    HW194382   7.237   0.532   1.441
97495SOL    HW294383   7.280   0.409   1.364
97496SOL     OW94384  13.868  12.960   1.065
97496SOL    HW194385  13.906  12.896   1.005
97496SOL    HW294386  13.843  13.034   1.010
97497SOL     OW94387  10.950   5.129   8.237
97497SOL    HW194388  10.869   5.171   8.210
97497SOL    HW294389  10.945   5.127   8.333
97498SOL     OW94390   5.290   9.225   1.325
97498SOL    HW194391   5.323   9.285   1.392
97498SOL    HW294392   5.368   9.196   1.278
97499SOL     OW94393   5.905  13.456  10.180
97499SOL    HW194394   5.926  13.413  10.097
97499SOL    HW294395   5.811  13.473  10.176
97500SOL     OW94396   3.803   9.599  14.345
97500SOL    HW194397   3.864   9.563  14.409
97500SOL    HW294398   3.722   9.549  14.357
97501SOL     OW94399   4.014   6.174   5.143
97501SOL    HW194400   4.072   6.180   5.219
97501SOL    HW294401   4.073   6.174   5.068
97502SOL     OW94402   5.189   5.241   1.393
97502SOL    HW194403   5.210   5.334   1.397
97502SOL    HW294404   5.216   5.206   1.478
97503SOL     OW94405  12.069   2.751  10.923
97503SOL    HW194406  12.073   2.801  11.004
97503SOL    HW294407  12.076   2.817  10.854
97504SOL     OW94408   2.132   4.668   6.169
97504SOL    HW194409   2.105   4.695   6.081
97504SOL    HW294410   2.057   4.687   6.225
97505SOL     OW94411   5.597   6.800   8.998
97505SOL    HW194412   5.551   6.818   9.081
97505SOL    HW294413   5.609   6.705   8.998
97506SOL     OW94414  12.213   6.133  11.371
97506SOL    HW194415  12.236   6.042  11.351
97506SOL    HW294416  12.143   6.126  11.435
97507SOL     OW94417   8.677   9.914  10.538
97507SOL    HW194418   8.754   9.889  10.588
97507SOL    HW294419   8.637   9.985  10.588
97508SOL     OW94420   0.130   2.764   8.223
97508SOL    HW194421   0.209   2.800   8.262
97508SOL    HW294422   0.161   2.718   8.145
97509SOL     OW94423  14.729   2.602   7.900
97509SOL    HW194424  14.650   2.656   7.896
97509SOL    HW294425  14.800   2.664   7.917
97510SOL     OW94426  13.960  10.386   0.371
97510SOL    HW194427  13.984  10.317   0.309
97510SOL    HW294428  13.864  10.387   0.369
97511SOL     OW94429   2.610   6.212   0.206
97511SOL    HW194430   2.588   6.150   0.137
97511SOL    HW294431   2.527   6.255   0.228
97512SOL     OW94432   0.438  14.448   9.685
97512SOL    HW194433   0.399  14.521   9.638
97512SOL    HW294434   0.443  14.479   9.776
97513SOL     OW94435   9.463   4.404   8.467
97513SOL    HW194436   9.558   4.405   8.450
97513SOL    HW294437   9.452   4.455   8.547
97514SOL     OW94438   5.630  10.668   8.829
97514SOL    HW194439   5.542  10.681   8.794
97514SOL    HW294440   5.667  10.597   8.778
97515SOL     OW94441  10.392   8.240   9.377
97515SOL    HW194442  10.455   8.193   9.321
97515SOL    HW294443  10.424   8.227   9.466
97516SOL     OW94444   9.013   1.380  14.542
97516SOL    HW194445   9.107   1.401  14.544
97516SOL    HW294446   8.996   1.337  14.625
97517SOL     OW94447   7.394  11.542  12.769
97517SOL    HW194448   7.348  11.469  12.811
97517SOL    HW294449   7.341  11.563  12.693
97518SOL     OW94450   3.653  13.962   1.531
97518SOL    HW194451   3.598  13.989   1.605
97518SOL    HW294452   3.596  13.970   1.455
97519SOL     OW94453   7.136  11.880   2.943
97519SOL    HW194454   7.126  11.955   3.002
97519SOL    HW294455   7.120  11.804   2.999
97520SOL     OW94456   5.820  11.988   6.864
97520SOL    HW194457   5.900  11.981   6.916
97520SOL    HW294458   5.851  11.994   6.774
97521SOL     OW94459   6.103   6.478  12.505
97521SOL    HW194460   6.019   6.460  12.548
97521SOL    HW294461   6.095   6.437  12.419
97522SOL     OW94462  12.020   8.591   1.584
97522SOL    HW194463  11.959   8.545   1.641
97522SOL    HW294464  12.104   8.548   1.601
97523SOL     OW94465  10.898   1.849  10.199
97523SOL    HW194466  10.904   1.826  10.106
97523SOL    HW294467  10.855   1.774  10.240
97524SOL     OW94468  14.048   4.773  14.832
97524SOL    HW194469  13.961   4.791  14.870
97524SOL    HW294470  14.032   4.702  14.770
97525SOL     OW94471   0.059   6.965   8.355
97525SOL    HW194472   0.130   6.966   8.291
97525SOL    HW294473   0.075   6.887   8.408
97526SOL     OW94474   1.664   0.846   6.186
97526SOL    HW194475   1.729   0.842   6.115
97526SOL    HW294476   1.620   0.761   6.182
97527SOL     OW94477   0.157  10.942   5.770
97527SOL    HW194478   0.175  10.870   5.831
97527SOL    HW294479   0.234  10.998   5.777
97528SOL     OW94480   2.488   5.175  12.669
97528SOL    HW194481   2.463   5.266  12.652
97528SOL    HW294482   2.490   5.169  12.765
97529SOL     OW94483   2.452   2.107  10.983
97529SOL    HW194484   2.427   2.018  11.009
97529SOL    HW294485   2.374   2.142  10.938
97530SOL     OW94486  10.929   8.330  14.667
97530SOL    HW194487  10.904   8.416  14.631
97530SOL    HW294488  10.870   8.269  14.624
97531SOL     OW94489   9.225  12.751  12.712
97531SOL    HW194490   9.177  12.671  12.693
97531SOL    HW294491   9.158  12.818  12.720
97532SOL     OW94492   4.863   4.100   0.697
97532SOL    HW194493   4.926   4.154   0.649
97532SOL    HW294494   4.780   4.116   0.653
97533SOL     OW94495   4.727  12.016   0.785
97533SOL    HW194496   4.663  11.983   0.722
97533SOL    HW294497   4.791  12.063   0.733
97534SOL     OW94498  13.221  13.609   8.929
97534SOL    HW194499  13.257  13.568   8.850
97534SOL    HW294500  13.274  13.688   8.941
97535SOL     OW94501  14.060   8.238   6.368
97535SOL    HW194502  14.063   8.146   6.394
97535SOL    HW294503  14.071   8.236   6.273
97536SOL     OW94504  11.943   1.102   9.434
97536SOL    HW194505  11.984   1.029   9.387
97536SOL    HW294506  11.861   1.117   9.387
97537SOL     OW94507  11.918   6.931   4.717
97537SOL    HW194508  11.841   6.958   4.667
97537SOL    HW294509  11.989   6.984   4.682
97538SOL     OW94510   7.929   7.072   2.731
97538SOL    HW194511   7.914   7.122   2.650
97538SOL    HW294512   7.874   7.116   2.796
97539SOL     OW94513   7.099   1.260  13.712
97539SOL    HW194514   7.186   1.226  13.692
97539SOL    HW294515   7.112   1.312  13.792
97540SOL     OW94516   1.546   1.845  13.908
97540SOL    HW194517   1.609   1.917  13.899
97540SOL    HW294518   1.590   1.770  13.868
97541SOL     OW94519  10.381   2.306   2.538
97541SOL    HW194520  10.462   2.295   2.587
97541SOL    HW294521  10.314   2.320   2.606
97542SOL     OW94522   4.983   8.524  11.864
97542SOL    HW194523   5.017   8.572  11.940
97542SOL    HW294524   5.057   8.518  11.805
97543SOL     OW94525  14.689   7.158  13.269
97543SOL    HW194526  14.653   7.083  13.318
97543SOL    HW294527  14.764   7.186  13.321
97544SOL     OW94528   3.714   2.973  13.334
97544SOL    HW194529   3.670   2.932  13.259
97544SOL    HW294530   3.652   2.964  13.406
97545SOL     OW94531  10.728  11.824   4.801
97545SOL    HW194532  10.739  11.730   4.811
97545SOL    HW294533  10.769  11.844   4.716
97546SOL     OW94534   0.941  11.191   0.960
97546SOL    HW194535   0.998  11.247   1.013
97546SOL    HW294536   0.852  11.221   0.979
97547SOL     OW94537   8.933   7.405   1.032
97547SOL    HW194538   8.945   7.365   1.118
97547SOL    HW294539   8.846   7.445   1.036
97548SOL     OW94540  13.472  14.136  12.502
97548SOL    HW194541  13.558  14.146  12.462
97548SOL    HW294542  13.451  14.043  12.493
97549SOL     OW94543   7.435   3.690   1.917
97549SOL    HW194544   7.453   3.599   1.893
97549SOL    HW294545   7.382   3.724   1.845
97550SOL     OW94546  12.606   5.170   9.532
97550SOL    HW194547  12.674   5.153   9.467
97550SOL    HW294548  12.535   5.110   9.510
97551SOL     OW94549  13.789   2.706   8.335
97551SOL    HW194550  13.698   2.721   8.307
97551SOL    HW294551  13.839   2.771   8.286
97552SOL     OW94552  12.235   2.426   9.900
97552SOL    HW194553  12.260   2.391   9.814
97552SOL    HW294554  12.188   2.507   9.881
97553SOL     OW94555   0.339  13.306  12.328
97553SOL    HW194556   0.407  13.241  12.308
97553SOL    HW294557   0.383  13.391  12.316
97554SOL     OW94558   6.766   2.721   4.759
97554SOL    HW194559   6.736   2.795   4.812
97554SOL    HW294560   6.762   2.646   4.818
97555SOL     OW94561  14.302   9.016  13.676
97555SOL    HW194562  14.390   9.051  13.661
97555SOL    HW294563  14.315   8.944  13.738
97556SOL     OW94564   4.093   3.452   6.103
97556SOL    HW194565   4.165   3.390   6.100
97556SOL    HW294566   4.128   3.528   6.150
97557SOL     OW94567  10.973  10.150  14.862
97557SOL    HW194568  11.055  10.200  14.857
97557SOL    HW294569  10.988  10.075  14.804
97558SOL     OW94570  13.024   4.347  11.638
97558SOL    HW194571  13.079   4.275  11.606
97558SOL    HW294572  13.003   4.323  11.728
97559SOL     OW94573   4.276   5.756   8.012
97559SOL    HW194574   4.278   5.731   8.104
97559SOL    HW294575   4.343   5.825   8.005
97560SOL     OW94576   9.172  10.428  13.534
97560SOL    HW194577   9.108  10.428  13.605
97560SOL    HW294578   9.147  10.353  13.480
97561SOL     OW94579   6.312   6.142   6.613
97561SOL    HW194580   6.286   6.129   6.705
97561SOL    HW294581   6.308   6.237   6.600
97562SOL     OW94582   6.412   3.139   5.575
97562SOL    HW194583   6.422   3.062   5.632
97562SOL    HW294584   6.399   3.212   5.636
97563SOL     OW94585   0.364   1.303   6.038
97563SOL    HW194586   0.314   1.297   6.119
97563SOL    HW294587   0.382   1.396   6.028
97564SOL     OW94588   8.716  12.301   4.122
97564SOL    HW194589   8.661  12.372   4.154
97564SOL    HW294590   8.805  12.335   4.127
97565SOL     OW94591   7.871  10.395   8.550
97565SOL    HW194592   7.785  10.354   8.544
97565SOL    HW294593   7.852  10.489   8.559
97566SOL     OW94594   2.557   4.740   3.746
97566SOL    HW194595   2.591   4.672   3.805
97566SOL    HW294596   2.546   4.817   3.802
97567SOL     OW94597  14.547   1.027   4.155
97567SOL    HW194598  14.573   1.007   4.065
97567SOL    HW294599  14.621   0.999   4.209
97568SOL     OW94600   9.010  12.756  11.323
97568SOL    HW194601   8.917  12.778  11.318
97568SOL    HW294602   9.023  12.692  11.253
97569SOL     OW94603   3.237   1.205   0.602
97569SOL    HW194604   3.332   1.211   0.608
97569SOL    HW294605   3.210   1.171   0.687
97570SOL     OW94606  11.865   3.488   3.242
97570SOL    HW194607  11.822   3.488   3.328
97570SOL    HW294608  11.819   3.557   3.193
97571SOL     OW94609  14.439   3.307   0.061
97571SOL    HW194610  14.415   3.361  14.856
97571SOL    HW294611  14.429   3.217   0.031
97572SOL     OW94612   8.150   2.556   9.311
97572SOL    HW194613   8.236   2.557   9.352
97572SOL    HW294614   8.092   2.521   9.378
97573SOL     OW94615   1.577  12.314   3.761
97573SOL    HW194616   1.548  12.241   3.816
97573SOL    HW294617   1.505  12.377   3.764
97574SOL     OW94618   5.803   5.863  14.380
97574SOL    HW194619   5.836   5.823  14.299
97574SOL    HW294620   5.729   5.809  14.406
97575SOL     OW94621   5.111   6.585   4.534
97575SOL    HW194622   5.180   6.645   4.506
97575SOL    HW294623   5.148   6.539   4.610
97576SOL     OW94624   4.264  14.628   4.040
97576SOL    HW194625   4.304  14.546   4.012
97576SOL    HW294626   4.326  14.695   4.012
97577SOL     OW94627   7.987   2.220   5.380
97577SOL    HW194628   8.046   2.273   5.433
97577SOL    HW294629   7.972   2.141   5.433
97578SOL     OW94630   0.172  13.540   3.614
97578SOL    HW194631   0.124  13.461   3.641
97578SOL    HW294632   0.203  13.577   3.697
97579SOL     OW94633  13.594  11.425   5.514
97579SOL    HW194634  13.681  11.391   5.495
97579SOL    HW294635  13.583  11.413   5.608
97580SOL     OW94636  10.469   7.798   0.801
97580SOL    HW194637  10.555   7.770   0.832
97580SOL    HW294638  10.415   7.719   0.809
97581SOL     OW94639   1.958   8.945   8.344
97581SOL    HW194640   1.962   8.903   8.258
97581SOL    HW294641   1.882   9.003   8.339
97582SOL     OW94642  12.928  12.759  11.060
97582SOL    HW194643  12.853  12.786  11.113
97582SOL    HW294644  13.004  12.781  11.114
97583SOL     OW94645   2.816  11.177  10.316
97583SOL    HW194646   2.750  11.233  10.275
97583SOL    HW294647   2.884  11.237  10.344
97584SOL     OW94648  10.047   7.365  11.708
97584SOL    HW194649  10.090   7.450  11.722
97584SOL    HW294650   9.997   7.375  11.628
97585SOL     OW94651  11.622  12.893  12.520
97585SOL    HW194652  11.697  12.834  12.522
97585SOL    HW294653  11.655  12.974  12.559
97586SOL     OW94654   2.153   8.781   9.686
97586SOL    HW194655   2.141   8.689   9.664
97586SOL    HW294656   2.173   8.781   9.780
97587SOL     OW94657   4.212   0.067  13.347
97587SOL    HW194658   4.243   0.122  13.275
97587SOL    HW294659   4.215  14.848  13.311
97588SOL     OW94660   7.160   7.890   2.615
97588SOL    HW194661   7.147   7.979   2.585
97588SOL    HW294662   7.248   7.867   2.587
97589SOL     OW94663   9.421  13.379   8.979
97589SOL    HW194664   9.335  13.387   8.937
97589SOL    HW294665   9.483  13.369   8.907
97590SOL     OW94666  14.342   8.516   8.430
97590SOL    HW194667  14.343   8.593   8.373
97590SOL    HW294668  14.429   8.477   8.420
97591SOL     OW94669   0.816  14.326  13.397
97591SOL    HW194670   0.864  14.368  13.468
97591SOL    HW294671   0.830  14.384  13.322
97592SOL     OW94672   2.570  14.826  12.734
97592SOL    HW194673   2.478  14.835  12.711
97592SOL    HW294674   2.593  14.736  12.710
97593SOL     OW94675  10.240   9.486   3.467
97593SOL    HW194676  10.227   9.424   3.539
97593SOL    HW294677  10.155   9.490   3.423
97594SOL     OW94678  13.093   2.180   9.253
97594SOL    HW194679  13.168   2.161   9.310
97594SOL    HW294680  13.129   2.177   9.164
97595SOL     OW94681   3.152   4.005  13.554
97595SOL    HW194682   3.101   4.062  13.612
97595SOL    HW294683   3.243   4.029  13.570
97596SOL     OW94684   2.595   7.980   8.776
97596SOL    HW194685   2.572   7.909   8.716
97596SOL    HW294686   2.654   8.036   8.726
97597SOL     OW94687  14.644   7.115   9.558
97597SOL    HW194688  14.660   7.027   9.524
97597SOL    HW294689  14.622   7.101   9.650
97598SOL     OW94690   3.749   8.427   0.081
97598SOL    HW194691   3.812   8.414   0.152
97598SOL    HW294692   3.693   8.349   0.084
97599SOL     OW94693   0.024   6.697  10.284
97599SOL    HW194694  14.838   6.665  10.355
97599SOL    HW294695   0.108   6.653  10.298
97600SOL     OW94696  13.965  12.923   4.427
97600SOL    HW194697  14.051  12.957   4.402
97600SOL    HW294698  13.972  12.828   4.413
97601SOL     OW94699  11.853   1.791   4.916
97601SOL    HW194700  11.773   1.830   4.951
97601SOL    HW294701  11.905   1.770   4.993
97602SOL     OW94702  13.965  11.084  10.047
97602SOL    HW194703  13.891  11.031  10.077
97602SOL    HW294704  13.954  11.167  10.093
97603SOL     OW94705  12.242   9.285   1.699
97603SOL    HW194706  12.284   9.344   1.638
97603SOL    HW294707  12.189   9.342   1.755
97604SOL     OW94708  13.913   1.955  10.004
97604SOL    HW194709  13.839   2.005  10.038
97604SOL    HW294710  13.907   1.964   9.909
97605SOL     OW94711  12.076   0.930   8.466
97605SOL    HW194712  12.135   0.891   8.531
97605SOL    HW294713  12.016   0.984   8.517
97606SOL     OW94714   9.425   4.274   3.890
97606SOL    HW194715   9.399   4.205   3.829
97606SOL    HW294716   9.462   4.227   3.965
97607SOL     OW94717   2.405   8.267   1.279
97607SOL    HW194718   2.345   8.267   1.204
97607SOL    HW294719   2.477   8.211   1.252
97608SOL     OW94720  10.990   9.329   3.341
97608SOL    HW194721  11.003   9.267   3.269
97608SOL    HW294722  10.922   9.388   3.308
97609SOL     OW94723   5.193   7.415  12.108
97609SOL    HW194724   5.157   7.495  12.068
97609SOL    HW294725   5.243   7.374  12.038
97610SOL     OW94726   0.155   5.999   6.574
97610SOL    HW194727   0.186   5.973   6.487
97610SOL    HW294728   0.227   5.978   6.633
97611SOL     OW94729   8.540   7.600   9.498
97611SOL    HW194730   8.510   7.512   9.524
97611SOL    HW294731   8.553   7.593   9.403
97612SOL     OW94732   5.995   7.867   0.721
97612SOL    HW194733   6.043   7.847   0.801
97612SOL    HW294734   6.018   7.796   0.661
97613SOL     OW94735   2.468   0.236   2.337
97613SOL    HW194736   2.557   0.270   2.329
97613SOL    HW294737   2.414   0.313   2.355
97614SOL     OW94738  11.770  12.274  14.486
97614SOL    HW194739  11.750  12.213  14.414
97614SOL    HW294740  11.722  12.238  14.561
97615SOL     OW94741   1.070  12.504   1.274
97615SOL    HW194742   1.128  12.433   1.244
97615SOL    HW294743   1.091  12.577   1.216
97616SOL     OW94744  13.984   1.006  10.177
97616SOL    HW194745  13.987   0.988  10.271
97616SOL    HW294746  13.931   0.935  10.141
97617SOL     OW94747   0.522  12.934   6.348
97617SOL    HW194748   0.572  12.945   6.268
97617SOL    HW294749   0.492  13.022   6.370
97618SOL     OW94750   9.863  13.746   1.583
97618SOL    HW194751   9.847  13.657   1.615
97618SOL    HW294752   9.951  13.767   1.616
97619SOL     OW94753  14.441   7.581   7.023
97619SOL    HW194754  14.408   7.670   7.029
97619SOL    HW294755  14.365   7.525   7.040
97620SOL     OW94756   8.326   8.564   8.699
97620SOL    HW194757   8.387   8.511   8.647
97620SOL    HW294758   8.240   8.526   8.682
97621SOL     OW94759  12.006   4.765   7.032
97621SOL    HW194760  12.001   4.725   6.945
97621SOL    HW294761  11.961   4.703   7.089
97622SOL     OW94762   2.762   8.299   0.242
97622SOL    HW194763   2.790   8.367   0.181
97622SOL    HW294764   2.814   8.314   0.321
97623SOL     OW94765   0.036   5.788   6.721
97623SOL    HW194766   0.057   5.866   6.670
97623SOL    HW294767   0.014   5.722   6.655
97624SOL     OW94768   4.808   5.992   0.444
97624SOL    HW194769   4.791   5.977   0.537
97624SOL    HW294770   4.868   5.921   0.419
97625SOL     OW94771   7.638   0.256   2.828
97625SOL    HW194772   7.550   0.288   2.811
97625SOL    HW294773   7.657   0.197   2.756
97626SOL     OW94774   3.029   9.947  11.573
97626SOL    HW194775   3.105   9.895  11.597
97626SOL    HW294776   3.038   9.961  11.479
97627SOL     OW94777   2.543   2.079  11.907
97627SOL    HW194778   2.598   2.011  11.869
97627SOL    HW294779   2.468   2.086  11.848
97628SOL     OW94780   6.765   3.866   8.982
97628SOL    HW194781   6.826   3.809   8.934
97628SOL    HW294782   6.684   3.816   8.985
97629SOL     OW94783   4.188  12.735   1.977
97629SOL    HW194784   4.095  12.711   1.978
97629SOL    HW294785   4.204  12.772   2.064
97630SOL     OW94786  12.132   3.367   8.036
97630SOL    HW194787  12.152   3.436   7.974
97630SOL    HW294788  12.175   3.395   8.118
97631SOL     OW94789  12.977   2.919  10.245
97631SOL    HW194790  12.974   2.883  10.333
97631SOL    HW294791  12.920   2.996  10.248
97632SOL     OW94792   4.323   3.509   7.712
97632SOL    HW194793   4.377   3.442   7.753
97632SOL    HW294794   4.385   3.568   7.669
97633SOL     OW94795   2.980   6.684   6.208
97633SOL    HW194796   3.058   6.630   6.199
97633SOL    HW294797   2.979   6.711   6.300
97634SOL     OW94798   6.864   9.729   6.089
97634SOL    HW194799   6.876   9.673   6.166
97634SOL    HW294800   6.770   9.742   6.082
97635SOL     OW94801  13.062  13.941   7.303
97635SOL    HW194802  13.135  13.974   7.251
97635SOL    HW294803  13.056  13.849   7.280
97636SOL     OW94804  12.935  12.214   7.121
97636SOL    HW194805  12.920  12.144   7.058
97636SOL    HW294806  12.851  12.260   7.126
97637SOL     OW94807   2.234   6.534   0.979
97637SOL    HW194808   2.204   6.445   0.995
97637SOL    HW294809   2.159   6.589   1.000
97638SOL     OW94810   1.346  10.868  10.075
97638SOL    HW194811   1.402  10.933  10.032
97638SOL    HW294812   1.284  10.841  10.008
97639SOL     OW94813   1.309  11.159   1.009
97639SOL    HW194814   1.361  11.239   1.014
97639SOL    HW294815   1.369  11.094   0.973
97640SOL     OW94816   7.208  14.281   0.726
97640SOL    HW194817   7.223  14.262   0.819
97640SOL    HW294818   7.258  14.361   0.710
97641SOL     OW94819  11.596   9.235  11.755
97641SOL    HW194820  11.524   9.192  11.802
97641SOL    HW294821  11.553   9.288  11.688
97642SOL     OW94822   2.006   3.318   2.772
97642SOL    HW194823   2.094   3.293   2.800
97642SOL    HW294824   1.978   3.248   2.713
97643SOL     OW94825   1.583   6.377  11.234
97643SOL    HW194826   1.575   6.284  11.257
97643SOL    HW294827   1.493   6.405  11.220
97644SOL     OW94828   2.939   4.737   3.346
97644SOL    HW194829   2.850   4.703   3.348
97644SOL    HW294830   2.983   4.686   3.278
97645SOL     OW94831   7.419   8.441  13.672
97645SOL    HW194832   7.442   8.494  13.596
97645SOL    HW294833   7.331   8.470  13.696
97646SOL     OW94834   7.536  14.548  13.240
97646SOL    HW194835   7.507  14.605  13.311
97646SOL    HW294836   7.628  14.571  13.226
97647SOL     OW94837   7.600  14.352  11.238
97647SOL    HW194838   7.658  14.276  11.234
97647SOL    HW294839   7.646  14.415  11.295
97648SOL     OW94840   1.909   1.404   3.283
97648SOL    HW194841   1.817   1.432   3.289
97648SOL    HW294842   1.913   1.325   3.337
97649SOL     OW94843  12.054   4.937   0.356
97649SOL    HW194844  12.058   4.911   0.264
97649SOL    HW294845  11.963   4.964   0.369
97650SOL     OW94846  14.400   6.847  13.679
97650SOL    HW194847  14.494   6.865  13.686
97650SOL    HW294848  14.386   6.769  13.732
97651SOL     OW94849   0.988  12.672  12.393
97651SOL    HW194850   0.923  12.741  12.400
97651SOL    HW294851   0.949  12.598  12.439
97652SOL     OW94852   0.264   8.919   6.187
97652SOL    HW194853   0.185   8.934   6.135
97652SOL    HW294854   0.307   8.845   6.144
97653SOL     OW94855  14.525   6.880   2.185
97653SOL    HW194856  14.514   6.834   2.268
97653SOL    HW294857  14.539   6.971   2.210
97654SOL     OW94858   1.721   5.718   2.394
97654SOL    HW194859   1.637   5.673   2.403
97654SOL    HW294860   1.703   5.807   2.427
97655SOL     OW94861   9.714   1.439   2.360
97655SOL    HW194862   9.691   1.375   2.292
97655SOL    HW294863   9.793   1.481   2.327
97656SOL     OW94864   6.639   7.709   9.383
97656SOL    HW194865   6.642   7.804   9.367
97656SOL    HW294866   6.568   7.678   9.328
97657SOL     OW94867   2.510   7.404  12.692
97657SOL    HW194868   2.529   7.483  12.742
97657SOL    HW294869   2.554   7.333  12.739
97658SOL     OW94870   0.660  12.209   6.383
97658SOL    HW194871   0.612  12.221   6.465
97658SOL    HW294872   0.597  12.169   6.324
97659SOL     OW94873   2.616  12.394   5.373
97659SOL    HW194874   2.676  12.320   5.384
97659SOL    HW294875   2.562  12.370   5.298
97660SOL     OW94876   6.285   1.671   4.921
97660SOL    HW194877   6.213   1.719   4.880
97660SOL    HW294878   6.291   1.589   4.870
97661SOL     OW94879   0.315   0.156   3.416
97661SOL    HW194880   0.275   0.193   3.337
97661SOL    HW294881   0.372   0.087   3.384
97662SOL     OW94882  12.544  14.521   8.966
97662SOL    HW194883  12.535  14.452   8.900
97662SOL    HW294884  12.628  14.504   9.008
97663SOL     OW94885   3.727  12.771  12.516
97663SOL    HW194886   3.815  12.786  12.482
97663SOL    HW294887   3.741  12.726  12.600
97664SOL     OW94888  14.341  10.671  12.348
97664SOL    HW194889  14.376  10.749  12.306
97664SOL    HW294890  14.376  10.598  12.297
97665SOL     OW94891   4.210  12.606  13.126
97665SOL    HW194892   4.129  12.650  13.151
97665SOL    HW294893   4.216  12.531  13.186
97666SOL     OW94894   6.015   5.888  13.203
97666SOL    HW194895   6.064   5.906  13.283
97666SOL    HW294896   6.081   5.885  13.134
97667SOL     OW94897   0.814  10.194   1.316
97667SOL    HW194898   0.864  10.112   1.317
97667SOL    HW294899   0.723  10.167   1.318
97668SOL     OW94900  12.191  11.720  12.286
97668SOL    HW194901  12.285  11.729  12.303
97668SOL    HW294902  12.150  11.785  12.343
97669SOL     OW94903  12.847  13.063   8.163
97669SOL    HW194904  12.883  13.023   8.242
97669SOL    HW294905  12.853  12.993   8.097
97670SOL     OW94906   2.384  10.220   8.518
97670SOL    HW194907   2.446  10.210   8.590
97670SOL    HW294908   2.311  10.270   8.556
97671SOL     OW94909   0.690   1.460  10.938
97671SOL    HW194910   0.748   1.418  10.874
97671SOL    HW294911   0.602   1.432  10.913
97672SOL     OW94912  11.131  11.485   8.566
97672SOL    HW194913  11.081  11.418   8.613
97672SOL    HW294914  11.094  11.483   8.477
97673SOL     OW94915   4.981  13.593   0.825
97673SOL    HW194916   5.032  13.656   0.875
97673SOL    HW294917   5.044  13.527   0.796
97674SOL     OW94918   2.862  14.628   1.941
97674SOL    HW194919   2.917  14.699   1.908
97674SOL    HW294920   2.895  14.550   1.897
97675SOL     OW94921  14.246   2.596   2.474
97675SOL    HW194922  14.238   2.540   2.551
97675SOL    HW294923  14.297   2.544   2.411
97676SOL     OW94924  13.567   8.889   9.843
97676SOL    HW194925  13.505   8.956   9.814
97676SOL    HW294926  13.641   8.939   9.879
97677SOL     OW94927  13.898   3.879   2.764
97677SOL    HW194928  13.984   3.916   2.784
97677SOL    HW294929  13.862   3.937   2.697
97678SOL     OW94930  13.781  10.494  13.061
97678SOL    HW194931  13.705  10.530  13.014
97678SOL    HW294932  13.744  10.462  13.143
97679SOL     OW94933   1.150   5.736   7.836
97679SOL    HW194934   1.073   5.786   7.813
97679SOL    HW294935   1.144   5.724   7.931
97680SOL     OW94936  14.045   3.376   9.896
97680SOL    HW194937  14.097   3.417   9.827
97680SOL    HW294938  14.107   3.360   9.967
97681SOL     OW94939  10.480  14.077  13.622
97681SOL    HW194940  10.423  14.054  13.549
97681SOL    HW294941  10.568  14.069  13.587
97682SOL     OW94942  14.481  13.397   4.092
97682SOL    HW194943  14.450  13.407   4.001
97682SOL    HW294944  14.503  13.486   4.118
97683SOL     OW94945   2.276   7.922   4.758
97683SOL    HW194946   2.198   7.876   4.725
97683SOL    HW294947   2.335   7.852   4.784
97684SOL     OW94948  10.443   1.871   4.699
97684SOL    HW194949  10.504   1.902   4.766
97684SOL    HW294950  10.372   1.935   4.699
97685SOL     OW94951   5.843   1.014   2.269
97685SOL    HW194952   5.843   1.107   2.289
97685SOL    HW294953   5.872   0.972   2.351
97686SOL     OW94954  12.836  13.165   0.868
97686SOL    HW194955  12.829  13.255   0.836
97686SOL    HW294956  12.750  13.147   0.908
97687SOL     OW94957   3.236   3.733   7.405
97687SOL    HW194958   3.314   3.753   7.353
97687SOL    HW294959   3.201   3.653   7.368
97688SOL     OW94960   6.699   8.109   7.257
97688SOL    HW194961   6.727   8.175   7.320
97688SOL    HW294962   6.743   8.029   7.286
97689SOL     OW94963   8.972  12.023  11.417
97689SOL    HW194964   8.948  11.931  11.399
97689SOL    HW294965   9.024  12.019  11.497
97690SOL     OW94966  12.980  14.806   6.100
97690SOL    HW194967  12.950   0.013   6.149
97690SOL    HW294968  13.076  14.810   6.106
97691SOL     OW94969   6.314  13.540   2.120
97691SOL    HW194970   6.400  13.563   2.156
97691SOL    HW294971   6.253  13.599   2.163
97692SOL     OW94972   0.578   6.857  12.113
97692SOL    HW194973   0.673   6.847  12.121
97692SOL    HW294974   0.554   6.914  12.186
97693SOL     OW94975   6.713   6.500  11.581
97693SOL    HW194976   6.635   6.471  11.630
97693SOL    HW294977   6.750   6.570  11.635
97694SOL     OW94978  14.622   0.433   6.031
97694SOL    HW194979  14.712   0.402   6.040
97694SOL    HW294980  14.620   0.515   6.082
97695SOL     OW94981   5.036   5.282  14.701
97695SOL    HW194982   5.065   5.363  14.741
97695SOL    HW294983   5.067   5.213  14.760
97696SOL     OW94984   5.040  10.386   6.924
97696SOL    HW194985   5.025  10.447   6.996
97696SOL    HW294986   5.088  10.314   6.963
97697SOL     OW94987  13.856   1.009   9.752
97697SOL    HW194988  13.943   0.987   9.785
97697SOL    HW294989  13.827   0.930   9.707
97698SOL     OW94990  13.010   5.688   1.570
97698SOL    HW194991  13.016   5.756   1.503
97698SOL    HW294992  13.061   5.722   1.643
97699SOL     OW94993   8.279   7.989   2.376
97699SOL    HW194994   8.335   8.007   2.300
97699SOL    HW294995   8.335   8.008   2.452
97700SOL     OW94996   4.316   1.937   4.693
97700SOL    HW194997   4.271   1.961   4.774
97700SOL    HW294998   4.344   2.020   4.655
97701SOL     OW94999  11.351   0.169  12.027
97701SOL    HW195000  11.287   0.240  12.034
97701SOL    HW295001  11.365   0.139  12.117
97702SOL     OW95002   6.263  12.118   1.937
97702SOL    HW195003   6.348  12.079   1.918
97702SOL    HW295004   6.276  12.212   1.922
97703SOL     OW95005   3.927   7.627   6.656
97703SOL    HW195006   3.979   7.666   6.726
97703SOL    HW295007   3.955   7.672   6.576
97704SOL     OW95008   8.890  12.880  13.064
97704SOL    HW195009   8.844  12.952  13.109
97704SOL    HW295010   8.932  12.831  13.135
97705SOL     OW95011   1.760  14.027  12.980
97705SOL    HW195012   1.669  14.059  12.985
97705SOL    HW295013   1.751  13.931  12.975
97706SOL     OW95014  10.944   5.561  14.089
97706SOL    HW195015  10.888   5.616  14.036
97706SOL    HW295016  10.886   5.527  14.158
97707SOL     OW95017   5.338   3.297   0.549
97707SOL    HW195018   5.368   3.340   0.629
97707SOL    HW295019   5.244   3.289   0.560
97708SOL     OW95020  12.245   9.286   8.869
97708SOL    HW195021  12.261   9.192   8.883
97708SOL    HW295022  12.329   9.327   8.888
97709SOL     OW95023  13.412   7.923   1.663
97709SOL    HW195024  13.446   7.881   1.584
97709SOL    HW295025  13.485   7.921   1.725
97710SOL     OW95026  11.021  10.978   7.113
97710SOL    HW195027  11.054  11.009   7.197
97710SOL    HW295028  10.993  11.058   7.067
97711SOL     OW95029  14.352  13.776   8.004
97711SOL    HW195030  14.324  13.833   7.933
97711SOL    HW295031  14.302  13.695   7.992
97712SOL     OW95032   4.529  11.963   5.795
97712SOL    HW195033   4.625  11.957   5.794
97712SOL    HW295034   4.501  11.920   5.715
97713SOL     OW95035   3.865   0.919   6.285
97713SOL    HW195036   3.830   0.903   6.372
97713SOL    HW295037   3.952   0.880   6.286
97714SOL     OW95038   6.136   2.722   2.987
97714SOL    HW195039   6.208   2.776   2.953
97714SOL    HW295040   6.153   2.717   3.081
97715SOL     OW95041   4.012   1.686   8.668
97715SOL    HW195042   3.970   1.755   8.719
97715SOL    HW295043   4.085   1.657   8.723
97716SOL     OW95044  11.057   7.007   5.233
97716SOL    HW195045  11.150   7.005   5.210
97716SOL    HW295046  11.053   7.052   5.317
97717SOL     OW95047   6.129   3.077   1.747
97717SOL    HW195048   6.043   3.038   1.760
97717SOL    HW295049   6.134   3.149   1.810
97718SOL     OW95050   2.774   2.225   6.597
97718SOL    HW195051   2.857   2.214   6.552
97718SOL    HW295052   2.786   2.303   6.651
97719SOL     OW95053   8.699  14.244   9.269
97719SOL    HW195054   8.708  14.256   9.175
97719SOL    HW295055   8.776  14.193   9.295
97720SOL     OW95056   7.261   8.841  10.487
97720SOL    HW195057   7.200   8.771  10.508
97720SOL    HW295058   7.240   8.911  10.548
97721SOL     OW95059  14.191  11.149  10.468
97721SOL    HW195060  14.258  11.138  10.536
97721SOL    HW295061  14.108  11.136  10.514
97722SOL     OW95062  14.172   4.712   0.369
97722SOL    HW195063  14.226   4.636   0.389
97722SOL    HW295064  14.194   4.734   0.278
97723SOL     OW95065  12.018  11.500  12.273
97723SOL    HW195066  12.042  11.575  12.328
97723SOL    HW295067  12.072  11.510  12.194
97724SOL     OW95068   2.615   3.638  12.104
97724SOL    HW195069   2.611   3.613  12.197
97724SOL    HW295070   2.532   3.608  12.067
97725SOL     OW95071   6.520  14.366   1.431
97725SOL    HW195072   6.595  14.310   1.446
97725SOL    HW295073   6.547  14.423   1.359
97726SOL     OW95074  13.796  13.650  11.172
97726SOL    HW195075  13.882  13.608  11.178
97726SOL    HW295076  13.773  13.672  11.262
97727SOL     OW95077   8.847   0.225   7.845
97727SOL    HW195078   8.859   0.320   7.847
97727SOL    HW295079   8.757   0.212   7.874
97728SOL     OW95080   0.022   7.371   6.727
97728SOL    HW195081   0.008   7.421   6.647
97728SOL    HW295082   0.035   7.438   6.795
97729SOL     OW95083   3.431   5.961   3.451
97729SOL    HW195084   3.400   5.915   3.373
97729SOL    HW295085   3.459   6.046   3.419
97730SOL     OW95086   6.950  12.862   9.623
97730SOL    HW195087   6.924  12.782   9.576
97730SOL    HW295088   7.046  12.856   9.627
97731SOL     OW95089   9.651   9.337   3.950
97731SOL    HW195090   9.683   9.339   4.040
97731SOL    HW295091   9.714   9.389   3.901
97732SOL     OW95092  14.143  10.875  10.629
97732SOL    HW195093  14.069  10.931  10.604
97732SOL    HW295094  14.114  10.787  10.605
97733SOL     OW95095  11.741   1.470   3.075
97733SOL    HW195096  11.775   1.475   2.986
97733SOL    HW295097  11.721   1.377   3.087
97734SOL     OW95098  12.857   8.199  10.176
97734SOL    HW195099  12.811   8.147  10.242
97734SOL    HW295100  12.854   8.147  10.096
97735SOL     OW95101  10.784  12.384   3.886
97735SOL    HW195102  10.857  12.426   3.840
97735SOL    HW295103  10.706  12.415   3.842
97736SOL     OW95104   5.675  12.718   1.455
97736SOL    HW195105   5.625  12.721   1.536
97736SOL    HW295106   5.647  12.795   1.406
97737SOL     OW95107   5.715   9.141   0.919
97737SOL    HW195108   5.772   9.086   0.867
97737SOL    HW295109   5.758   9.147   1.004
97738SOL     OW95110  10.677   0.683   3.220
97738SOL    HW195111  10.607   0.747   3.234
97738SOL    HW295112  10.655   0.642   3.136
97739SOL     OW95113   1.428  11.398  11.444
97739SOL    HW195114   1.512  11.365  11.414
97739SOL    HW295115   1.418  11.364  11.533
97740SOL     OW95116   3.759   5.732   7.692
97740SOL    HW195117   3.811   5.791   7.638
97740SOL    HW295118   3.775   5.762   7.782
97741SOL     OW95119  12.415   2.102  10.499
97741SOL    HW195120  12.381   2.171  10.555
97741SOL    HW295121  12.479   2.056  10.554
97742SOL     OW95122   6.371   1.423  10.408
97742SOL    HW195123   6.422   1.451  10.332
97742SOL    HW295124   6.280   1.439  10.383
97743SOL     OW95125   0.489  11.956   7.041
97743SOL    HW195126   0.476  12.040   7.085
97743SOL    HW295127   0.525  11.899   7.109
97744SOL     OW95128  12.603   5.688   7.949
97744SOL    HW195129  12.638   5.747   8.016
97744SOL    HW295130  12.558   5.746   7.887
97745SOL     OW95131   2.928   8.988   0.243
97745SOL    HW195132   2.853   9.014   0.189
97745SOL    HW295133   2.987   8.944   0.182
97746SOL     OW95134   9.265  11.884   0.066
97746SOL    HW195135   9.231  11.961   0.019
97746SOL    HW295136   9.255  11.907   0.158
97747SOL     OW95137   7.476  14.039   4.083
97747SOL    HW195138   7.417  14.099   4.129
97747SOL    HW295139   7.536  14.007   4.150
97748SOL     OW95140   2.763   2.298   7.424
97748SOL    HW195141   2.717   2.325   7.504
97748SOL    HW295142   2.855   2.295   7.450
97749SOL     OW95143  14.581   7.301   8.667
97749SOL    HW195144  14.651   7.237   8.684
97749SOL    HW295145  14.502   7.259   8.701
97750SOL     OW95146  14.272   1.083   0.365
97750SOL    HW195147  14.181   1.109   0.382
97750SOL    HW295148  14.323   1.162   0.384
97751SOL     OW95149  11.692  10.124  11.781
97751SOL    HW195150  11.695  10.219  11.769
97751SOL    HW295151  11.602  10.100  11.761
97752SOL     OW95152   8.657   3.212   6.221
97752SOL    HW195153   8.605   3.186   6.297
97752SOL    HW295154   8.629   3.152   6.151
97753SOL     OW95155   7.420   2.647   0.468
97753SOL    HW195156   7.467   2.563   0.471
97753SOL    HW295157   7.352   2.638   0.535
97754SOL     OW95158   2.836  14.864   1.258
97754SOL    HW195159   2.807  14.815   1.336
97754SOL    HW295160   2.786  14.825   1.186
97755SOL     OW95161  11.307  14.553  14.666
97755SOL    HW195162  11.368  14.624  14.686
97755SOL    HW295163  11.291  14.560  14.572
97756SOL     OW95164   8.236   7.781  13.647
97756SOL    HW195165   8.179   7.783  13.724
97756SOL    HW295166   8.216   7.861  13.600
97757SOL     OW95167   0.258   3.694   4.002
97757SOL    HW195168   0.163   3.693   3.999
97757SOL    HW295169   0.281   3.615   4.052
97758SOL     OW95170  11.786   2.062   0.809
97758SOL    HW195171  11.822   2.079   0.897
97758SOL    HW295172  11.848   2.003   0.768
97759SOL     OW95173   7.972   3.857   9.544
97759SOL    HW195174   8.029   3.900   9.482
97759SOL    HW295175   8.030   3.804   9.598
97760SOL     OW95176   8.164  11.705  11.989
97760SOL    HW195177   8.173  11.669  12.077
97760SOL    HW295178   8.071  11.693  11.968
97761SOL     OW95179   8.485   0.118   0.077
97761SOL    HW195180   8.509   0.078   0.160
97761SOL    HW295181   8.565   0.161   0.046
97762SOL     OW95182   5.536   2.977   3.380
97762SOL    HW195183   5.621   3.003   3.416
97762SOL    HW295184   5.479   3.052   3.397
97763SOL     OW95185   3.436   6.272   4.114
97763SOL    HW195186   3.347   6.238   4.130
97763SOL    HW295187   3.422   6.355   4.069
97764SOL     OW95188  13.281   2.723  13.521
97764SOL    HW195189  13.211   2.704  13.459
97764SOL    HW295190  13.344   2.651  13.509
97765SOL     OW95191   6.108   8.463  12.247
97765SOL    HW195192   6.193   8.423  12.262
97765SOL    HW295193   6.118   8.553  12.279
97766SOL     OW95194  13.947  11.027   2.648
97766SOL    HW195195  13.854  11.047   2.639
97766SOL    HW295196  13.951  10.964   2.721
97767SOL     OW95197  10.942  10.936   0.884
97767SOL    HW195198  10.914  10.952   0.974
97767SOL    HW295199  10.960  10.843   0.880
97768SOL     OW95200  12.650   6.612   3.234
97768SOL    HW195201  12.740   6.615   3.264
97768SOL    HW295202  12.644   6.531   3.183
97769SOL     OW95203   2.980   6.026  10.579
97769SOL    HW195204   2.964   6.021  10.485
97769SOL    HW295205   2.902   5.987  10.618
97770SOL     OW95206  14.619   9.852   1.027
97770SOL    HW195207  14.648   9.765   1.054
97770SOL    HW295208  14.700   9.900   1.011
97771SOL     OW95209   7.788  10.006  12.902
97771SOL    HW195210   7.805  10.083  12.957
97771SOL    HW295211   7.728   9.953  12.954
97772SOL     OW95212   5.679   5.301   1.283
97772SOL    HW195213   5.616   5.308   1.354
97772SOL    HW295214   5.664   5.378   1.229
97773SOL     OW95215   5.133   3.083  12.244
97773SOL    HW195216   5.193   3.139  12.293
97773SOL    HW295217   5.051   3.132  12.241
97774SOL     OW95218   9.061  11.815   6.348
97774SOL    HW195219   9.033  11.901   6.316
97774SOL    HW295220   8.980  11.771   6.372
97775SOL     OW95221  14.060   5.145   1.276
97775SOL    HW195222  13.974   5.172   1.307
97775SOL    HW295223  14.120   5.175   1.344
97776SOL     OW95224  13.827  11.143  14.635
97776SOL    HW195225  13.830  11.083  14.560
97776SOL    HW295226  13.836  11.230  14.597
97777SOL     OW95227   6.882   9.163   2.560
97777SOL    HW195228   6.913   9.251   2.582
97777SOL    HW295229   6.817   9.143   2.627
97778SOL     OW95230  11.645   2.927   4.579
97778SOL    HW195231  11.651   3.023   4.578
97778SOL    HW295232  11.728   2.899   4.619
97779SOL     OW95233  13.783   5.268   2.820
97779SOL    HW195234  13.782   5.354   2.864
97779SOL    HW295235  13.752   5.287   2.731
97780SOL     OW95236   0.038   9.106   6.028
97780SOL    HW195237   0.045   9.186   5.976
97780SOL    HW295238  14.847   9.128   6.098
97781SOL     OW95239  13.900  10.079  14.561
97781SOL    HW195240  13.842  10.119  14.496
97781SOL    HW295241  13.841  10.045  14.628
97782SOL     OW95242   0.978  14.638   0.727
97782SOL    HW195243   0.947  14.549   0.714
97782SOL    HW295244   0.978  14.650   0.822
97783SOL     OW95245   3.937   8.328   2.244
97783SOL    HW195246   3.937   8.424   2.246
97783SOL    HW295247   3.905   8.306   2.157
97784SOL     OW95248  12.564   1.709  13.299
97784SOL    HW195249  12.588   1.617  13.292
97784SOL    HW295250  12.629   1.746  13.360
97785SOL     OW95251   5.603   4.380   2.669
97785SOL    HW195252   5.679   4.397   2.613
97785SOL    HW295253   5.627   4.417   2.754
97786SOL     OW95254  13.009  10.965   7.626
97786SOL    HW195255  13.013  11.002   7.537
97786SOL    HW295256  12.993  11.041   7.682
97787SOL     OW95257   1.941   2.146   2.545
97787SOL    HW195258   2.006   2.098   2.596
97787SOL    HW295259   1.958   2.238   2.564
97788SOL     OW95260   5.221   8.565  14.778
97788SOL    HW195261   5.218   8.650  14.734
97788SOL    HW295262   5.295   8.572  14.839
97789SOL     OW95263   3.432  10.564   0.319
97789SOL    HW195264   3.360  10.621   0.345
97789SOL    HW295265   3.396  10.476   0.324
97790SOL     OW95266  10.447  10.789   6.122
97790SOL    HW195267  10.371  10.771   6.178
97790SOL    HW295268  10.409  10.830   6.044
97791SOL     OW95269   8.252   4.754   6.145
97791SOL    HW195270   8.294   4.686   6.092
97791SOL    HW295271   8.184   4.789   6.088
97792SOL     OW95272   6.738   0.104   4.745
97792SOL    HW195273   6.753   0.046   4.670
97792SOL    HW295274   6.644   0.099   4.761
97793SOL     OW95275   6.280  10.612  14.505
97793SOL    HW195276   6.327  10.604  14.422
97793SOL    HW295277   6.322  10.686  14.550
97794SOL     OW95278  10.235   0.709   8.994
97794SOL    HW195279  10.247   0.614   9.001
97794SOL    HW295280  10.181   0.732   9.070
97795SOL     OW95281   5.646  12.468   9.259
97795SOL    HW195282   5.608  12.420   9.333
97795SOL    HW295283   5.648  12.559   9.288
97796SOL     OW95284   3.450  13.629  10.063
97796SOL    HW195285   3.450  13.601  10.155
97796SOL    HW295286   3.490  13.556  10.016
97797SOL     OW95287  11.380  11.132   7.744
97797SOL    HW195288  11.415  11.220   7.758
97797SOL    HW295289  11.293  11.148   7.705
97798SOL     OW95290  14.354   0.804   0.705
97798SOL    HW195291  14.321   0.845   0.784
97798SOL    HW295292  14.397   0.724   0.735
97799SOL     OW95293   9.409   9.536   8.780
97799SOL    HW195294   9.415   9.528   8.875
97799SOL    HW295295   9.316   9.521   8.761
97800SOL     OW95296   5.587   5.642   7.365
97800SOL    HW195297   5.590   5.729   7.325
97800SOL    HW295298   5.578   5.659   7.459
97801SOL     OW95299  10.889   5.276  12.180
97801SOL    HW195300  10.820   5.275  12.115
97801SOL    HW295301  10.941   5.198  12.161
97802SOL     OW95302   2.307   3.465  13.477
97802SOL    HW195303   2.383   3.410  13.461
97802SOL    HW295304   2.244   3.439  13.410
97803SOL     OW95305   3.716  11.064   2.206
97803SOL    HW195306   3.766  11.005   2.149
97803SOL    HW295307   3.637  11.014   2.227
97804SOL     OW95308  12.117   7.891  11.564
97804SOL    HW195309  12.203   7.856  11.589
97804SOL    HW295310  12.064   7.814  11.546
97805SOL     OW95311  13.630  14.518  12.556
97805SOL    HW195312  13.618  14.453  12.625
97805SOL    HW295313  13.708  14.488  12.509
97806SOL     OW95314   4.267  13.040   8.095
97806SOL    HW195315   4.344  12.996   8.059
97806SOL    HW295316   4.254  13.000   8.180
97807SOL     OW95317   2.339   5.849  10.671
97807SOL    HW195318   2.282   5.825  10.744
97807SOL    HW295319   2.420   5.877  10.713
97808SOL     OW95320  14.345  14.699   0.630
97808SOL    HW195321  14.272  14.761   0.634
97808SOL    HW295322  14.376  14.705   0.540
97809SOL     OW95323   0.374  14.704   4.351
97809SOL    HW195324   0.390  14.610   4.344
97809SOL    HW295325   0.383  14.736   4.261
97810SOL     OW95326   2.336   8.879   5.678
97810SOL    HW195327   2.341   8.856   5.771
97810SOL    HW295328   2.321   8.973   5.678
97811SOL     OW95329   4.366   1.927   9.680
97811SOL    HW195330   4.287   1.900   9.726
97811SOL    HW295331   4.394   2.006   9.725
97812SOL     OW95332  14.634   7.626   0.540
97812SOL    HW195333  14.566   7.601   0.602
97812SOL    HW295334  14.640   7.552   0.480
97813SOL     OW95335  14.078  13.040   5.305
97813SOL    HW195336  14.093  13.048   5.211
97813SOL    HW295337  14.078  13.130   5.337
97814SOL     OW95338   3.851   3.391   7.881
97814SOL    HW195339   3.777   3.420   7.934
97814SOL    HW295340   3.909   3.467   7.875
97815SOL     OW95341   0.223  12.951  13.868
97815SOL    HW195342   0.223  13.020  13.934
97815SOL    HW295343   0.145  12.968  13.815
97816SOL     OW95344   8.122   3.072  11.456
97816SOL    HW195345   8.118   3.023  11.374
97816SOL    HW295346   8.123   3.004  11.525
97817SOL     OW95347  12.495  13.304   0.528
97817SOL    HW195348  12.536  13.368   0.585
97817SOL    HW295349  12.484  13.226   0.582
97818SOL     OW95350   8.019   3.199  11.027
97818SOL    HW195351   7.928   3.216  11.052
97818SOL    HW295352   8.050   3.135  11.091
97819SOL     OW95353  13.162   7.428  11.853
97819SOL    HW195354  13.227   7.436  11.923
97819SOL    HW295355  13.136   7.518  11.834
97820SOL     OW95356   1.849   5.437  12.882
97820SOL    HW195357   1.879   5.499  12.815
97820SOL    HW295358   1.928   5.390  12.907
97821SOL     OW95359   0.789   8.442   7.008
97821SOL    HW195360   0.717   8.428   6.945
97821SOL    HW295361   0.867   8.412   6.962
97822SOL     OW95362   0.034   2.613   2.482
97822SOL    HW195363   0.008   2.690   2.431
97822SOL    HW295364   0.039   2.645   2.572
97823SOL     OW95365   2.774   0.591  11.579
97823SOL    HW195366   2.799   0.512  11.531
97823SOL    HW295367   2.832   0.593  11.655
97824SOL     OW95368   9.522   9.007   4.031
97824SOL    HW195369   9.572   9.026   4.110
97824SOL    HW295370   9.578   9.039   3.959
97825SOL     OW95371   9.751  14.088  10.580
97825SOL    HW195372   9.806  14.127  10.648
97825SOL    HW295373   9.678  14.049  10.629
97826SOL     OW95374  14.174  13.900   0.727
97826SOL    HW195375  14.188  13.842   0.652
97826SOL    HW295376  14.203  13.986   0.696
97827SOL     OW95377  12.095   0.914   7.687
97827SOL    HW195378  12.022   0.892   7.745
97827SOL    HW295379  12.143   0.831   7.677
97828SOL     OW95380  13.611   2.534  12.923
97828SOL    HW195381  13.705   2.538  12.937
97828SOL    HW295382  13.598   2.454  12.871
97829SOL     OW95383  13.782  13.377   6.535
97829SOL    HW195384  13.868  13.384   6.494
97829SOL    HW295385  13.766  13.463   6.572
97830SOL     OW95386  10.821   8.694   1.688
97830SOL    HW195387  10.828   8.606   1.723
97830SOL    HW295388  10.784   8.683   1.601
97831SOL     OW95389   7.131   6.477  12.543
97831SOL    HW195390   7.221   6.486  12.512
97831SOL    HW295391   7.137   6.424  12.622
97832SOL     OW95392   1.343  12.496   0.306
97832SOL    HW195393   1.415  12.506   0.243
97832SOL    HW295394   1.279  12.441   0.262
97833SOL     OW95395   6.692   4.182   6.147
97833SOL    HW195396   6.619   4.222   6.195
97833SOL    HW295397   6.769   4.229   6.178
97834SOL     OW95398   8.001   0.738  10.500
97834SOL    HW195399   8.046   0.799  10.558
97834SOL    HW295400   7.908   0.756  10.514
97835SOL     OW95401  10.457  12.554   4.304
97835SOL    HW195402  10.550  12.564   4.285
97835SOL    HW295403  10.429  12.640   4.335
97836SOL     OW95404   2.914   4.467   4.688
97836SOL    HW195405   3.002   4.497   4.710
97836SOL    HW295406   2.862   4.484   4.766
97837SOL     OW95407   0.308  13.135  11.114
97837SOL    HW195408   0.319  13.046  11.082
97837SOL    HW295409   0.214  13.144  11.132
97838SOL     OW95410   5.325   0.097   7.856
97838SOL    HW195411   5.372   0.096   7.773
97838SOL    HW295412   5.274   0.179   7.854
97839SOL     OW95413   5.393   7.971  14.302
97839SOL    HW195414   5.403   7.908  14.231
97839SOL    HW295415   5.299   7.971  14.321
97840SOL     OW95416   3.580   6.401   0.509
97840SOL    HW195417   3.510   6.451   0.552
97840SOL    HW295418   3.585   6.319   0.557
97841SOL     OW95419  10.106   2.892  13.345
97841SOL    HW195420  10.023   2.900  13.297
97841SOL    HW295421  10.083   2.842  13.423
97842SOL     OW95422   0.453  10.021   9.779
97842SOL    HW195423   0.368  10.064   9.784
97842SOL    HW295424   0.512  10.077   9.830
97843SOL     OW95425   6.395  12.429   6.736
97843SOL    HW195426   6.429  12.515   6.712
97843SOL    HW295427   6.308  12.446   6.772
97844SOL     OW95428  11.016   9.104   0.973
97844SOL    HW195429  10.973   9.098   1.058
97844SOL    HW295430  11.090   9.045   0.979
97845SOL     OW95431  13.506   5.823   8.543
97845SOL    HW195432  13.600   5.807   8.550
97845SOL    HW295433  13.466   5.737   8.553
97846SOL     OW95434   4.229   1.109  13.139
97846SOL    HW195435   4.296   1.067  13.193
97846SOL    HW295436   4.210   1.045  13.070
97847SOL     OW95437  14.794   1.191   2.537
97847SOL    HW195438  14.737   1.118   2.514
97847SOL    HW295439  14.788   1.251   2.463
97848SOL     OW95440  10.345  11.267   7.363
97848SOL    HW195441  10.406  11.226   7.424
97848SOL    HW295442  10.277  11.201   7.349
97849SOL     OW95443   6.486  10.108  12.670
97849SOL    HW195444   6.436  10.034  12.635
97849SOL    HW295445   6.481  10.175  12.601
97850SOL     OW95446   9.735   9.180   5.230
97850SOL    HW195447   9.678   9.219   5.164
97850SOL    HW295448   9.813   9.153   5.182
97851SOL     OW95449   9.721  10.923  10.228
97851SOL    HW195450   9.791  10.935  10.164
97851SOL    HW295451   9.742  10.986  10.297
97852SOL     OW95452  13.416  12.671   6.988
97852SOL    HW195453  13.386  12.583   7.013
97852SOL    HW295454  13.492  12.687   7.044
97853SOL     OW95455  10.150   9.172   8.051
97853SOL    HW195456  10.098   9.217   8.119
97853SOL    HW295457  10.113   9.084   8.047
97854SOL     OW95458   5.257   7.611   1.938
97854SOL    HW195459   5.266   7.602   1.843
97854SOL    HW295460   5.260   7.706   1.953
97855SOL     OW95461   6.450  10.435   2.502
97855SOL    HW195462   6.496  10.510   2.538
97855SOL    HW295463   6.443  10.453   2.409
97856SOL     OW95464   0.201   7.352   4.261
97856SOL    HW195465   0.284   7.306   4.245
97856SOL    HW295466   0.183   7.398   4.179
97857SOL     OW95467   2.449   7.805   8.269
97857SOL    HW195468   2.413   7.863   8.203
97857SOL    HW295469   2.372   7.760   8.306
97858SOL     OW95470  10.160   9.918  13.223
97858SOL    HW195471  10.141   9.899  13.315
97858SOL    HW295472  10.100   9.989  13.200
97859SOL     OW95473   4.136  10.293   8.136
97859SOL    HW195474   4.160  10.375   8.179
97859SOL    HW295475   4.204  10.278   8.071
97860SOL     OW95476   3.103  11.611  14.561
97860SOL    HW195477   3.060  11.655  14.488
97860SOL    HW295478   3.047  11.628  14.637
97861SOL     OW95479  12.231   0.936   7.424
97861SOL    HW195480  12.314   0.896   7.397
97861SOL    HW295481  12.195   0.876   7.489
97862SOL     OW95482  10.286  12.450  10.584
97862SOL    HW195483  10.211  12.456  10.643
97862SOL    HW295484  10.258  12.497  10.505
97863SOL     OW95485  13.278   3.278   2.188
97863SOL    HW195486  13.290   3.248   2.278
97863SOL    HW295487  13.259   3.198   2.139
97864SOL     OW95488  14.215   9.484   4.281
97864SOL    HW195489  14.137   9.513   4.234
97864SOL    HW295490  14.278   9.464   4.211
97865SOL     OW95491  13.267   6.253   2.083
97865SOL    HW195492  13.257   6.299   1.999
97865SOL    HW295493  13.178   6.245   2.117
97866SOL     OW95494   0.655  12.743   2.877
97866SOL    HW195495   0.564  12.762   2.857
97866SOL    HW295496   0.655  12.719   2.969
97867SOL     OW95497  14.672   3.497   5.986
97867SOL    HW195498  14.679   3.403   5.967
97867SOL    HW295499  14.631   3.501   6.072
97868SOL     OW95500   7.026   8.654  13.898
97868SOL    HW195501   6.967   8.612  13.960
97868SOL    HW295502   7.075   8.717  13.951
97869SOL     OW95503   2.260   0.192   9.091
97869SOL    HW195504   2.196   0.176   9.022
97869SOL    HW295505   2.345   0.186   9.046
97870SOL     OW95506   2.703   7.206   9.772
97870SOL    HW195507   2.717   7.166   9.686
97870SOL    HW295508   2.756   7.286   9.770
97871SOL     OW95509  13.286  10.388  14.524
97871SOL    HW195510  13.338  10.443  14.583
97871SOL    HW295511  13.335  10.306  14.519
97872SOL     OW95512   4.044   9.986   5.187
97872SOL    HW195513   3.986  10.019   5.256
97872SOL    HW295514   4.053  10.059   5.126
97873SOL     OW95515  11.030   1.446   2.436
97873SOL    HW195516  10.942   1.453   2.472
97873SOL    HW295517  11.066   1.534   2.442
97874SOL     OW95518   3.344   4.707   7.485
97874SOL    HW195519   3.391   4.697   7.568
97874SOL    HW295520   3.411   4.736   7.423
97875SOL     OW95521   4.732   1.112   0.999
97875SOL    HW195522   4.784   1.035   1.022
97875SOL    HW295523   4.779   1.152   0.926
97876SOL     OW95524  11.306   5.609   0.669
97876SOL    HW195525  11.249   5.641   0.599
97876SOL    HW295526  11.336   5.523   0.639
97877SOL     OW95527  13.126   0.956   9.124
97877SOL    HW195528  13.118   1.039   9.078
97877SOL    HW295529  13.164   0.979   9.209
97878SOL     OW95530   9.819  14.482  10.649
97878SOL    HW195531   9.740  14.527  10.679
97878SOL    HW295532   9.810  14.478  10.554
97879SOL     OW95533   2.667   1.875  14.717
97879SOL    HW195534   2.668   1.790  14.760
97879SOL    HW295535   2.632   1.857  14.630
97880SOL     OW95536  14.532   9.948  11.860
97880SOL    HW195537  14.473   9.891  11.908
97880SOL    HW295538  14.532  10.030  11.910
97881SOL     OW95539   0.809   1.533   9.400
97881SOL    HW195540   0.783   1.606   9.456
97881SOL    HW295541   0.874   1.570   9.341
97882SOL     OW95542  11.987   2.396  12.548
97882SOL    HW195543  12.051   2.334  12.583
97882SOL    HW295544  12.018   2.416  12.460
97883SOL     OW95545   6.098   6.287   8.266
97883SOL    HW195546   6.140   6.363   8.227
97883SOL    HW295547   6.170   6.231   8.294
97884SOL     OW95548   9.826   2.461   7.284
97884SOL    HW195549   9.917   2.480   7.260
97884SOL    HW295550   9.831   2.430   7.375
97885SOL     OW95551  14.778   8.039  10.355
97885SOL    HW195552  14.856   7.998  10.393
97885SOL    HW295553  14.719   7.966  10.338
97886SOL     OW95554   2.255   3.096  11.976
97886SOL    HW195555   2.211   3.052  11.903
97886SOL    HW295556   2.199   3.171  11.995
97887SOL     OW95557   8.012   1.131   7.029
97887SOL    HW195558   8.002   1.214   6.982
97887SOL    HW295559   8.106   1.123   7.044
97888SOL     OW95560  14.718   9.088  14.063
97888SOL    HW195561  14.803   9.083  14.018
97888SOL    HW295562  14.733   9.146  14.137
97889SOL     OW95563  12.017   9.041   7.098
97889SOL    HW195564  12.010   8.985   7.175
97889SOL    HW295565  11.949   9.009   7.038
97890SOL     OW95566  13.823  12.757  13.195
97890SOL    HW195567  13.764  12.760  13.270
97890SOL    HW295568  13.842  12.664  13.183
97891SOL     OW95569   5.577   4.033   0.757
97891SOL    HW195570   5.529   4.024   0.840
97891SOL    HW295571   5.652   4.088   0.779
97892SOL     OW95572   2.153   1.354   5.729
97892SOL    HW195573   2.123   1.264   5.735
97892SOL    HW295574   2.178   1.366   5.638
97893SOL     OW95575   8.345   7.069   7.106
97893SOL    HW195576   8.294   7.020   7.042
97893SOL    HW295577   8.299   7.055   7.189
97894SOL     OW95578  13.485   7.521  14.022
97894SOL    HW195579  13.430   7.556  13.952
97894SOL    HW295580  13.467   7.427  14.022
97895SOL     OW95581  11.274   4.602   5.281
97895SOL    HW195582  11.178   4.597   5.273
97895SOL    HW295583  11.301   4.511   5.292
97896SOL     OW95584  11.920  11.315   8.174
97896SOL    HW195585  11.849  11.333   8.112
97896SOL    HW295586  11.926  11.220   8.177
97897SOL     OW95587   7.000   2.724  14.269
97897SOL    HW195588   7.040   2.698  14.187
97897SOL    HW295589   6.909   2.742  14.247
97898SOL     OW95590   4.212  13.939  12.728
97898SOL    HW195591   4.240  13.913  12.641
97898SOL    HW295592   4.194  13.857  12.774
97899SOL     OW95593   6.787  11.658  13.701
97899SOL    HW195594   6.755  11.734  13.750
97899SOL    HW295595   6.847  11.614  13.761
97900SOL     OW95596   9.730   9.550  13.417
97900SOL    HW195597   9.759   9.636  13.387
97900SOL    HW295598   9.646   9.536  13.372
97901SOL     OW95599  12.564  12.632   8.781
97901SOL    HW195600  12.606  12.586   8.854
97901SOL    HW295601  12.536  12.716   8.817
97902SOL     OW95602  13.398   6.621   4.477
97902SOL    HW195603  13.368   6.711   4.490
97902SOL    HW295604  13.319   6.567   4.490
97903SOL     OW95605  13.808   7.102  12.186
97903SOL    HW195606  13.870   7.164  12.225
97903SOL    HW295607  13.735   7.156  12.159
97904SOL     OW95608   4.723   3.508   2.581
97904SOL    HW195609   4.743   3.481   2.671
97904SOL    HW295610   4.650   3.452   2.555
97905SOL     OW95611  12.687   5.631   2.278
97905SOL    HW195612  12.753   5.675   2.331
97905SOL    HW295613  12.677   5.545   2.319
97906SOL     OW95614   4.333   1.521   6.444
97906SOL    HW195615   4.347   1.611   6.473
97906SOL    HW295616   4.302   1.475   6.521
97907SOL     OW95617  12.596   6.325  14.826
97907SOL    HW195618  12.519   6.271  14.843
97907SOL    HW295619  12.584   6.357  14.737
97908SOL     OW95620   2.755  13.634   9.006
97908SOL    HW195621   2.677  13.674   9.045
97908SOL    HW295622   2.807  13.606   9.082
97909SOL     OW95623   3.805  10.560  10.688
97909SOL    HW195624   3.787  10.578  10.596
97909SOL    HW295625   3.864  10.630  10.715
97910SOL     OW95626   0.784   2.540   0.791
97910SOL    HW195627   0.796   2.569   0.701
97910SOL    HW295628   0.857   2.580   0.839
97911SOL     OW95629  13.780  12.782   4.067
97911SOL    HW195630  13.757  12.772   3.975
97911SOL    HW295631  13.874  12.763   4.070
97912SOL     OW95632  11.169  12.550   9.503
97912SOL    HW195633  11.159  12.465   9.460
97912SOL    HW295634  11.083  12.567   9.543
97913SOL     OW95635   6.696   9.063   9.042
97913SOL    HW195636   6.649   9.109   8.972
97913SOL    HW295637   6.629   9.048   9.109
97914SOL     OW95638   3.765  12.901  12.976
97914SOL    HW195639   3.740  12.994  12.977
97914SOL    HW295640   3.858  12.902  12.950
97915SOL     OW95641   3.817   1.853   6.894
97915SOL    HW195642   3.897   1.898   6.920
97915SOL    HW295643   3.842   1.805   6.815
97916SOL     OW95644   4.716  12.042   4.611
97916SOL    HW195645   4.733  12.044   4.705
97916SOL    HW295646   4.624  12.014   4.604
97917SOL     OW95647   2.617   1.611   6.966
97917SOL    HW195648   2.590   1.632   6.877
97917SOL    HW295649   2.569   1.531   6.987
97918SOL     OW95650   2.698   4.926   5.449
97918SOL    HW195651   2.611   4.950   5.480
97918SOL    HW295652   2.687   4.840   5.409
97919SOL     OW95653   1.783   1.973   1.977
97919SOL    HW195654   1.782   1.956   2.071
97919SOL    HW295655   1.867   1.938   1.947
97920SOL     OW95656  14.486   9.872  10.180
97920SOL    HW195657  14.439   9.907  10.104
97920SOL    HW295658  14.451   9.784  10.191
97921SOL     OW95659   0.629   5.023  11.113
97921SOL    HW195660   0.551   5.005  11.060
97921SOL    HW295661   0.643   5.117  11.104
97922SOL     OW95662   3.851   9.080   8.629
97922SOL    HW195663   3.813   8.993   8.639
97922SOL    HW295664   3.934   9.076   8.676
97923SOL     OW95665  10.478   4.773   7.232
97923SOL    HW195666  10.540   4.830   7.186
97923SOL    HW295667  10.465   4.699   7.174
97924SOL     OW95668  12.261  14.274   1.684
97924SOL    HW195669  12.314  14.345   1.647
97924SOL    HW295670  12.321  14.199   1.684
97925SOL     OW95671   8.693   7.138   5.047
97925SOL    HW195672   8.690   7.194   4.969
97925SOL    HW295673   8.758   7.180   5.104
97926SOL     OW95674  13.552  12.869  10.318
97926SOL    HW195675  13.645  12.890  10.320
97926SOL    HW295676  13.511  12.945  10.277
97927SOL     OW95677   6.552  13.414  14.048
97927SOL    HW195678   6.508  13.498  14.032
97927SOL    HW295679   6.600  13.428  14.129
97928SOL     OW95680   6.464   8.544   8.803
97928SOL    HW195681   6.452   8.574   8.893
97928SOL    HW295682   6.396   8.589   8.753
97929SOL     OW95683   9.804  10.032   1.430
97929SOL    HW195684   9.882  10.081   1.459
97929SOL    HW295685   9.784  10.069   1.344
97930SOL     OW95686  11.064  14.234   0.969
97930SOL    HW195687  11.092  14.221   0.878
97930SOL    HW295688  10.972  14.259   0.962
97931SOL     OW95689   2.551  13.686   5.777
97931SOL    HW195690   2.523  13.774   5.803
97931SOL    HW295691   2.497  13.666   5.701
97932SOL     OW95692   4.825   6.384  12.285
97932SOL    HW195693   4.835   6.309  12.226
97932SOL    HW295694   4.903   6.437  12.270
97933SOL     OW95695   8.521   6.617  12.656
97933SOL    HW195696   8.438   6.620  12.608
97933SOL    HW295697   8.585   6.651  12.594
97934SOL     OW95698  10.051  10.475   1.426
97934SOL    HW195699  10.072  10.417   1.352
97934SOL    HW295700  10.004  10.419   1.487
97935SOL     OW95701  12.250   3.526  13.360
97935SOL    HW195702  12.179   3.473  13.399
97935SOL    HW295703  12.330   3.488  13.396
97936SOL     OW95704   7.896   9.281  10.148
97936SOL    HW195705   7.962   9.291  10.216
97936SOL    HW295706   7.853   9.367  10.143
97937SOL     OW95707  14.598  13.061  14.460
97937SOL    HW195708  14.556  13.146  14.468
97937SOL    HW295709  14.651  13.069  14.381
97938SOL     OW95710  14.131  11.912   7.942
97938SOL    HW195711  14.172  11.954   8.018
97938SOL    HW295712  14.095  11.830   7.975
97939SOL     OW95713   4.151   9.760   7.122
97939SOL    HW195714   4.077   9.787   7.069
97939SOL    HW295715   4.177   9.675   7.086
97940SOL     OW95716   2.826   5.180  10.909
97940SOL    HW195717   2.914   5.145  10.896
97940SOL    HW295718   2.767   5.112  10.876
97941SOL     OW95719  10.690  11.593  13.120
97941SOL    HW195720  10.784  11.576  13.109
97941SOL    HW295721  10.673  11.670  13.065
97942SOL     OW95722  11.145   8.249   2.404
97942SOL    HW195723  11.124   8.169   2.356
97942SOL    HW295724  11.108   8.320   2.352
97943SOL     OW95725  13.633   8.131   2.089
97943SOL    HW195726  13.551   8.167   2.057
97943SOL    HW295727  13.607   8.063   2.152
97944SOL     OW95728  11.636  11.341   3.243
97944SOL    HW195729  11.669  11.257   3.276
97944SOL    HW295730  11.646  11.334   3.148
97945SOL     OW95731   3.209   7.514  10.739
97945SOL    HW195732   3.193   7.436  10.686
97945SOL    HW295733   3.156   7.582  10.698
97946SOL     OW95734   9.876  14.843   5.107
97946SOL    HW195735   9.795  14.793   5.100
97946SOL    HW295736   9.945  14.778   5.096
97947SOL     OW95737   5.337   0.922   3.792
97947SOL    HW195738   5.420   0.877   3.775
97947SOL    HW295739   5.302   0.940   3.705
97948SOL     OW95740  11.308   6.679   5.337
97948SOL    HW195741  11.345   6.738   5.403
97948SOL    HW295742  11.216   6.704   5.331
97949SOL     OW95743   9.567   4.744   3.074
97949SOL    HW195744   9.594   4.824   3.029
97949SOL    HW295745   9.606   4.751   3.161
97950SOL     OW95746   0.991  14.690   2.189
97950SOL    HW195747   0.956  14.710   2.276
97950SOL    HW295748   0.931  14.624   2.154
97951SOL     OW95749   9.765   9.933  14.836
97951SOL    HW195750   9.776   9.971   0.053
97951SOL    HW295751   9.854   9.913  14.806
97952SOL     OW95752   0.583  11.072  12.942
97952SOL    HW195753   0.605  11.116  13.024
97952SOL    HW295754   0.527  11.135  12.896
97953SOL     OW95755   2.977   2.555   8.953
97953SOL    HW195756   2.965   2.460   8.948
97953SOL    HW295757   3.041   2.575   8.885
97954SOL     OW95758  14.055  14.740   4.099
97954SOL    HW195759  14.134  14.786   4.129
97954SOL    HW295760  14.041  14.772   4.009
97955SOL     OW95761  14.428   9.095   9.540
97955SOL    HW195762  14.471   9.179   9.555
97955SOL    HW295763  14.500   9.034   9.519
97956SOL     OW95764  14.703   3.762   0.885
97956SOL    HW195765  14.749   3.735   0.806
97956SOL    HW295766  14.649   3.687   0.908
97957SOL     OW95767  12.627   0.784   2.009
97957SOL    HW195768  12.555   0.725   2.031
97957SOL    HW295769  12.586   0.870   2.002
97958SOL     OW95770   4.689  13.835   7.537
97958SOL    HW195771   4.660  13.837   7.445
97958SOL    HW295772   4.781  13.812   7.533
97959SOL     OW95773   4.147  11.919   4.201
97959SOL    HW195774   4.219  11.923   4.138
97959SOL    HW295775   4.169  11.844   4.257
97960SOL     OW95776   9.423   0.102   5.984
97960SOL    HW195777   9.458   0.190   5.969
97960SOL    HW295778   9.500   0.049   6.007
97961SOL     OW95779  13.314   2.205   4.820
97961SOL    HW195780  13.362   2.134   4.861
97961SOL    HW295781  13.303   2.178   4.729
97962SOL     OW95782   1.339   6.861   5.213
97962SOL    HW195783   1.271   6.925   5.230
97962SOL    HW295784   1.383   6.892   5.134
97963SOL     OW95785  11.631  12.673   4.619
97963SOL    HW195786  11.638  12.755   4.571
97963SOL    HW295787  11.587  12.613   4.559
97964SOL     OW95788  10.556   0.588  10.447
97964SOL    HW195789  10.618   0.632  10.389
97964SOL    HW295790  10.600   0.507  10.472
97965SOL     OW95791   8.287  11.757   0.542
97965SOL    HW195792   8.195  11.747   0.563
97965SOL    HW295793   8.332  11.751   0.626
97966SOL     OW95794  12.343   9.408   9.314
97966SOL    HW195795  12.253   9.405   9.283
97966SOL    HW295796  12.354   9.326   9.363
97967SOL     OW95797   1.548   7.297  12.541
97967SOL    HW195798   1.592   7.375  12.574
97967SOL    HW295799   1.619   7.235  12.522
97968SOL     OW95800   6.699   2.380   2.562
97968SOL    HW195801   6.790   2.353   2.551
97968SOL    HW295802   6.664   2.319   2.627
97969SOL     OW95803  13.383  13.643   5.382
97969SOL    HW195804  13.431  13.690   5.451
97969SOL    HW295805  13.306  13.698   5.365
97970SOL     OW95806  14.334   6.348  14.286
97970SOL    HW195807  14.339   6.253  14.297
97970SOL    HW295808  14.254   6.362  14.236
97971SOL     OW95809   5.593   1.329   7.755
97971SOL    HW195810   5.617   1.246   7.715
97971SOL    HW295811   5.533   1.370   7.693
97972SOL     OW95812   6.681   2.788   9.026
97972SOL    HW195813   6.763   2.743   9.047
97972SOL    HW295814   6.672   2.777   8.931
97973SOL     OW95815   6.363   1.905   2.944
97973SOL    HW195816   6.271   1.903   2.915
97973SOL    HW295817   6.364   1.857   3.026
97974SOL     OW95818   6.105   1.983  10.764
97974SOL    HW195819   6.181   1.983  10.705
97974SOL    HW295820   6.137   1.943  10.845
97975SOL     OW95821  11.361  10.672   9.255
97975SOL    HW195822  11.422  10.688   9.327
97975SOL    HW295823  11.374  10.746   9.196
97976SOL     OW95824   9.396  13.749   3.548
97976SOL    HW195825   9.396  13.656   3.526
97976SOL    HW295826   9.343  13.789   3.479
97977SOL     OW95827  11.231   7.135   4.223
97977SOL    HW195828  11.247   7.102   4.312
97977SOL    HW295829  11.146   7.098   4.199
97978SOL     OW95830   4.746   4.327  12.057
97978SOL    HW195831   4.656   4.351  12.038
97978SOL    HW295832   4.771   4.382  12.131
97979SOL     OW95833   4.145  11.520  11.799
97979SOL    HW195834   4.119  11.428  11.805
97979SOL    HW295835   4.129  11.555  11.887
97980SOL     OW95836  12.647   8.772  11.343
97980SOL    HW195837  12.737   8.760  11.373
97980SOL    HW295838  12.620   8.687  11.310
97981SOL     OW95839  10.880  10.502  13.697
97981SOL    HW195840  10.859  10.552  13.618
97981SOL    HW295841  10.975  10.504  13.701
97982SOL     OW95842   6.796   1.916  12.616
97982SOL    HW195843   6.822   2.006  12.639
97982SOL    HW295844   6.862   1.888  12.553
97983SOL     OW95845  10.419  14.578   0.818
97983SOL    HW195846  10.471  14.522   0.874
97983SOL    HW295847  10.347  14.521   0.788
97984SOL     OW95848  13.252   9.458   2.567
97984SOL    HW195849  13.303   9.511   2.629
97984SOL    HW295850  13.230   9.519   2.496
97985SOL     OW95851   9.436   4.637   9.623
97985SOL    HW195852   9.448   4.722   9.582
97985SOL    HW295853   9.517   4.590   9.607
97986SOL     OW95854  12.470   0.951   6.388
97986SOL    HW195855  12.399   1.006   6.356
97986SOL    HW295856  12.429   0.868   6.409
97987SOL     OW95857   6.532   7.689  10.094
97987SOL    HW195858   6.511   7.623  10.028
97987SOL    HW295859   6.540   7.771  10.046
97988SOL     OW95860   1.990   1.824   7.961
97988SOL    HW195861   1.998   1.816   7.866
97988SOL    HW295862   1.950   1.910   7.974
97989SOL     OW95863   0.311   8.834   8.302
97989SOL    HW195864   0.312   8.922   8.264
97989SOL    HW295865   0.384   8.789   8.260
97990SOL     OW95866   1.300  13.009   2.953
97990SOL    HW195867   1.220  13.021   3.004
97990SOL    HW295868   1.343  12.933   2.994
97991SOL     OW95869   1.890   6.800   4.429
97991SOL    HW195870   1.942   6.867   4.385
97991SOL    HW295871   1.877   6.834   4.518
97992SOL     OW95872  12.681   6.234   7.701
97992SOL    HW195873  12.762   6.266   7.740
97992SOL    HW295874  12.624   6.311   7.699
97993SOL     OW95875   3.399  13.179  13.392
97993SOL    HW195876   3.454  13.231  13.450
97993SOL    HW295877   3.359  13.114  13.449
97994SOL     OW95878  11.312   6.172  11.941
97994SOL    HW195879  11.230   6.150  11.897
97994SOL    HW295880  11.290   6.247  11.995
97995SOL     OW95881   5.367   2.681  11.033
97995SOL    HW195882   5.354   2.589  11.057
97995SOL    HW295883   5.458   2.685  11.003
97996SOL     OW95884   1.436  12.952   6.000
97996SOL    HW195885   1.458  12.902   6.079
97996SOL    HW295886   1.499  13.024   5.998
97997SOL     OW95887  11.222  14.278   2.237
97997SOL    HW195888  11.277  14.337   2.185
97997SOL    HW295889  11.227  14.194   2.191
97998SOL     OW95890   3.067  14.765   8.776
97998SOL    HW195891   3.045  14.833   8.840
97998SOL    HW295892   3.084  14.687   8.829
97999SOL     OW95893   5.906   1.767   5.559
97999SOL    HW195894   5.813   1.783   5.575
97999SOL    HW295895   5.951   1.830   5.615
98000SOL     OW95896  11.075   9.418   2.026
98000SOL    HW195897  11.125   9.344   2.060
98000SOL    HW295898  10.989   9.381   2.005
98001SOL     OW95899   0.979   9.463   6.468
98001SOL    HW195900   0.994   9.543   6.418
98001SOL    HW295901   0.890   9.473   6.502
98002SOL     OW95902   0.442  12.601   5.412
98002SOL    HW195903   0.364  12.547   5.401
98002SOL    HW295904   0.491  12.588   5.331
98003SOL     OW95905  13.077   4.101  13.878
98003SOL    HW195906  13.000   4.087  13.824
98003SOL    HW295907  13.064   4.187  13.918
98004SOL     OW95908   0.606   3.614   9.768
98004SOL    HW195909   0.680   3.562   9.801
98004SOL    HW295910   0.529   3.577   9.812
98005SOL     OW95911   1.437   2.832   9.984
98005SOL    HW195912   1.520   2.844  10.030
98005SOL    HW295913   1.434   2.738   9.965
98006SOL     OW95914   5.380  13.552   8.989
98006SOL    HW195915   5.434  13.553   9.068
98006SOL    HW295916   5.425  13.491   8.930
98007SOL     OW95917  14.771   5.875   3.669
98007SOL    HW195918  14.828   5.858   3.744
98007SOL    HW295919  14.763   5.790   3.626
98008SOL     OW95920   3.387   3.676   6.490
98008SOL    HW195921   3.436   3.709   6.415
98008SOL    HW295922   3.295   3.689   6.467
98009SOL     OW95923  11.387   2.932   7.795
98009SOL    HW195924  11.457   2.868   7.784
98009SOL    HW295925  11.427   3.001   7.848
98010SOL     OW95926  13.429   8.476  10.117
98010SOL    HW195927  13.366   8.424  10.165
98010SOL    HW295928  13.432   8.560  10.164
98011SOL     OW95929   0.897  13.413   7.819
98011SOL    HW195930   0.885  13.427   7.913
98011SOL    HW295931   0.888  13.318   7.808
98012SOL     OW95932  14.259  10.415   0.083
98012SOL    HW195933  14.343  10.400   0.127
98012SOL    HW295934  14.212  10.333   0.093
98013SOL     OW95935   6.597  12.023  10.419
98013SOL    HW195936   6.519  12.074  10.394
98013SOL    HW295937   6.562  11.939  10.449
98014SOL     OW95938   8.359  12.522  10.863
98014SOL    HW195939   8.301  12.590  10.830
98014SOL    HW295940   8.304  12.444  10.870
98015SOL     OW95941   3.053   7.231   3.710
98015SOL    HW195942   3.071   7.249   3.802
98015SOL    HW295943   3.099   7.149   3.692
98016SOL     OW95944   7.424   6.871   8.579
98016SOL    HW195945   7.496   6.925   8.610
98016SOL    HW295946   7.347   6.927   8.585
98017SOL     OW95947   3.257  10.727   0.598
98017SOL    HW195948   3.210  10.703   0.518
98017SOL    HW295949   3.225  10.814   0.620
98018SOL     OW95950  11.374   8.594  12.571
98018SOL    HW195951  11.451   8.605  12.627
98018SOL    HW295952  11.386   8.659  12.501
98019SOL     OW95953   1.472  12.880  10.277
98019SOL    HW195954   1.564  12.897  10.259
98019SOL    HW295955   1.472  12.831  10.359
98020SOL     OW95956   9.163  12.917  11.815
98020SOL    HW195957   9.225  12.893  11.883
98020SOL    HW295958   9.212  12.975  11.757
98021SOL     OW95959   0.994  12.668   1.746
98021SOL    HW195960   0.996  12.736   1.678
98021SOL    HW295961   0.906  12.632   1.741
98022SOL     OW95962   9.097   0.465   0.040
98022SOL    HW195963   9.074   0.447   0.131
98022SOL    HW295964   9.133   0.382   0.007
98023SOL     OW95965   5.723  10.114   2.147
98023SOL    HW195966   5.696  10.044   2.206
98023SOL    HW295967   5.642  10.145   2.108
98024SOL     OW95968   9.933  12.345   3.413
98024SOL    HW195969   9.949  12.254   3.387
98024SOL    HW295970   9.875  12.339   3.489
98025SOL     OW95971   5.344   4.736   2.370
98025SOL    HW195972   5.437   4.721   2.381
98025SOL    HW295973   5.333   4.755   2.276
98026SOL     OW95974   3.235   1.906   0.560
98026SOL    HW195975   3.195   1.978   0.610
98026SOL    HW295976   3.232   1.831   0.620
98027SOL     OW95977   9.525  10.515  14.434
98027SOL    HW195978   9.464  10.575  14.391
98027SOL    HW295979   9.469  10.454  14.482
98028SOL     OW95980  13.900   7.001  11.213
98028SOL    HW195981  13.887   6.991  11.119
98028SOL    HW295982  13.983   6.956  11.231
98029SOL     OW95983  12.327  14.309   5.680
98029SOL    HW195984  12.296  14.238   5.736
98029SOL    HW295985  12.423  14.298   5.679
98030SOL     OW95986   8.714   2.293   1.782
98030SOL    HW195987   8.754   2.262   1.700
98030SOL    HW295988   8.621   2.302   1.762
98031SOL     OW95989   3.701   5.296  12.615
98031SOL    HW195990   3.691   5.383  12.654
98031SOL    HW295991   3.619   5.251  12.634
98032SOL     OW95992   0.465  13.025   3.831
98032SOL    HW195993   0.480  13.111   3.871
98032SOL    HW295994   0.377  13.031   3.793
98033SOL     OW95995   1.871  13.954   5.245
98033SOL    HW195996   1.967  13.949   5.246
98033SOL    HW295997   1.847  13.937   5.154
98034SOL     OW95998  12.160  11.051   3.960
98034SOL    HW195999  12.191  10.965   3.988
98034SOL    HW296000  12.131  11.038   3.870
98035SOL     OW96001   4.433   9.106  12.904
98035SOL    HW196002   4.447   9.012  12.896
98035SOL    HW296003   4.511   9.145  12.866
98036SOL     OW96004  14.149  13.153  12.533
98036SOL    HW196005  14.130  13.122  12.621
98036SOL    HW296006  14.216  13.093  12.500
98037SOL     OW96007   6.787  12.203  14.446
98037SOL    HW196008   6.863  12.254  14.475
98037SOL    HW296009   6.722  12.217  14.515
98038SOL     OW96010   9.599   1.431   6.953
98038SOL    HW196011   9.515   1.475   6.964
98038SOL    HW296012   9.594   1.392   6.866
98039SOL     OW96013   6.390   5.141   5.299
98039SOL    HW196014   6.425   5.133   5.210
98039SOL    HW296015   6.464   5.120   5.356
98040SOL     OW96016   7.362  13.682   9.730
98040SOL    HW196017   7.453  13.688   9.700
98040SOL    HW296018   7.342  13.769   9.765
98041SOL     OW96019   8.981   6.220  13.191
98041SOL    HW196020   9.062   6.169  13.187
98041SOL    HW296021   8.915   6.165  13.149
98042SOL     OW96022  10.720   6.135   0.209
98042SOL    HW196023  10.742   6.148   0.301
98042SOL    HW296024  10.629   6.163   0.202
98043SOL     OW96025  11.376   3.368  13.214
98043SOL    HW196026  11.376   3.376  13.310
98043SOL    HW296027  11.460   3.406  13.187
98044SOL     OW96028   3.583  13.758   0.416
98044SOL    HW196029   3.545  13.834   0.371
98044SOL    HW296030   3.627  13.708   0.347
98045SOL     OW96031  12.973   7.714  11.606
98045SOL    HW196032  13.003   7.667  11.685
98045SOL    HW296033  12.951   7.801  11.637
98046SOL     OW96034   3.838  14.827   7.094
98046SOL    HW196035   3.800  14.773   7.164
98046SOL    HW296036   3.785  14.807   7.017
98047SOL     OW96037   5.342   3.943   0.343
98047SOL    HW196038   5.290   3.870   0.378
98047SOL    HW296039   5.288   3.979   0.273
98048SOL     OW96040  13.338   6.303  13.569
98048SOL    HW196041  13.258   6.250  13.565
98048SOL    HW296042  13.315   6.384  13.524
98049SOL     OW96043   5.536   9.895  13.161
98049SOL    HW196044   5.603   9.846  13.113
98049SOL    HW296045   5.453   9.857  13.133
98050SOL     OW96046   1.096   4.112   0.249
98050SOL    HW196047   1.061   4.200   0.238
98050SOL    HW296048   1.079   4.069   0.165
98051SOL     OW96049   5.914  13.727  12.600
98051SOL    HW196050   5.921  13.816  12.636
98051SOL    HW296051   5.892  13.673  12.676
98052SOL     OW96052  10.708  12.646   9.985
98052SOL    HW196053  10.671  12.647  10.073
98052SOL    HW296054  10.674  12.725   9.943
98053SOL     OW96055  13.962   4.993  12.630
98053SOL    HW196056  14.000   5.027  12.710
98053SOL    HW296057  13.886   5.050  12.614
98054SOL     OW96058   2.585   2.656   5.776
98054SOL    HW196059   2.500   2.611   5.773
98054SOL    HW296060   2.649   2.586   5.787
98055SOL     OW96061   0.548   9.112   7.829
98055SOL    HW196062   0.632   9.067   7.841
98055SOL    HW296063   0.547   9.137   7.737
98056SOL     OW96064   1.974  11.623   1.138
98056SOL    HW196065   1.961  11.577   1.055
98056SOL    HW296066   1.889  11.617   1.182
98057SOL     OW96067   7.999   9.131   9.468
98057SOL    HW196068   7.960   9.067   9.527
98057SOL    HW296069   8.088   9.098   9.454
98058SOL     OW96070  11.662   5.630  11.306
98058SOL    HW196071  11.646   5.536  11.304
98058SOL    HW296072  11.753   5.639  11.278
98059SOL     OW96073  11.100   8.853   9.940
98059SOL    HW196074  11.180   8.851   9.887
98059SOL    HW296075  11.131   8.863  10.030
98060SOL     OW96076  13.707   3.678  11.530
98060SOL    HW196077  13.777   3.621  11.561
98060SOL    HW296078  13.628   3.642  11.569
98061SOL     OW96079   5.464   3.991   3.661
98061SOL    HW196080   5.527   4.031   3.722
98061SOL    HW296081   5.487   4.028   3.575
98062SOL     OW96082   5.228  11.151   2.158
98062SOL    HW196083   5.140  11.117   2.141
98062SOL    HW296084   5.270  11.082   2.210
98063SOL     OW96085   6.383   3.785   3.828
98063SOL    HW196086   6.431   3.819   3.903
98063SOL    HW296087   6.429   3.820   3.752
98064SOL     OW96088   4.794  10.133   0.559
98064SOL    HW196089   4.829  10.084   0.634
98064SOL    HW296090   4.830  10.089   0.483
98065SOL     OW96091   6.189   9.197   2.716
98065SOL    HW196092   6.220   9.108   2.695
98065SOL    HW296093   6.261   9.236   2.764
98066SOL     OW96094  14.195  13.934   8.614
98066SOL    HW196095  14.103  13.919   8.638
98066SOL    HW296096  14.223  13.851   8.577
98067SOL     OW96097  10.637   8.284   6.483
98067SOL    HW196098  10.603   8.221   6.546
98067SOL    HW296099  10.560   8.317   6.437
98068SOL     OW96100  12.405   6.623   8.817
98068SOL    HW196101  12.440   6.534   8.814
98068SOL    HW296102  12.471   6.676   8.772
98069SOL     OW96103   2.296   3.267  13.789
98069SOL    HW196104   2.273   3.207  13.860
98069SOL    HW296105   2.391   3.257  13.779
98070SOL     OW96106   4.710   2.491   1.339
98070SOL    HW196107   4.665   2.514   1.420
98070SOL    HW296108   4.730   2.575   1.298
98071SOL     OW96109   8.449  14.138   5.988
98071SOL    HW196110   8.545  14.146   5.983
98071SOL    HW296111   8.434  14.078   6.061
98072SOL     OW96112  11.438  10.333  10.658
98072SOL    HW196113  11.427  10.399  10.590
98072SOL    HW296114  11.529  10.341  10.686
98073SOL     OW96115   5.236   6.004  10.920
98073SOL    HW196116   5.290   5.943  10.871
98073SOL    HW296117   5.146   5.973  10.906
98074SOL     OW96118  10.128   0.910   4.492
98074SOL    HW196119  10.112   0.997   4.454
98074SOL    HW296120  10.046   0.863   4.480
98075SOL     OW96121  11.066  10.585   6.618
98075SOL    HW196122  10.997  10.640   6.656
98075SOL    HW296123  11.147  10.620   6.655
98076SOL     OW96124  14.749  12.979   6.021
98076SOL    HW196125  14.706  12.899   6.051
98076SOL    HW296126  14.842  12.966   6.044
98077SOL     OW96127   9.763   9.414   1.094
98077SOL    HW196128   9.718   9.488   1.054
98077SOL    HW296129   9.719   9.402   1.178
98078SOL     OW96130   5.759   6.334   8.662
98078SOL    HW196131   5.841   6.339   8.613
98078SOL    HW296132   5.750   6.241   8.683
98079SOL     OW96133  11.254  13.465  11.263
98079SOL    HW196134  11.271  13.429  11.176
98079SOL    HW296135  11.211  13.549  11.247
98080SOL     OW96136   2.112   4.987  14.667
98080SOL    HW196137   2.037   4.992  14.606
98080SOL    HW296138   2.181   4.946  14.615
98081SOL     OW96139   1.706   7.109   4.475
98081SOL    HW196140   1.686   7.019   4.503
98081SOL    HW296141   1.708   7.159   4.557
98082SOL     OW96142   3.552  13.097   3.888
98082SOL    HW196143   3.620  13.164   3.893
98082SOL    HW296144   3.556  13.051   3.972
98083SOL     OW96145  10.699   5.495   2.454
98083SOL    HW196146  10.604   5.498   2.464
98083SOL    HW296147  10.734   5.519   2.539
98084SOL     OW96148   1.517   9.099   9.866
98084SOL    HW196149   1.427   9.106   9.898
98084SOL    HW296150   1.571   9.107   9.944
98085SOL     OW96151  13.019   7.964   0.161
98085SOL    HW196152  13.104   7.999   0.133
98085SOL    HW296153  13.041   7.886   0.211
98086SOL     OW96154  14.782  14.731   9.171
98086SOL    HW196155  14.839  14.661   9.141
98086SOL    HW296156  14.745  14.768   9.090
98087SOL     OW96157  12.371   2.077   4.989
98087SOL    HW196158  12.445   2.024   5.017
98087SOL    HW296159  12.393   2.166   5.017
98088SOL     OW96160   7.014   4.944   4.199
98088SOL    HW196161   7.009   4.918   4.107
98088SOL    HW296162   7.024   4.862   4.247
98089SOL     OW96163  12.007   7.351   2.121
98089SOL    HW196164  11.931   7.404   2.144
98089SOL    HW296165  11.972   7.264   2.107
98090SOL     OW96166   6.350  13.242  10.082
98090SOL    HW196167   6.396  13.174  10.033
98090SOL    HW296168   6.419  13.289  10.128
98091SOL     OW96169  13.532   6.095   6.820
98091SOL    HW196170  13.515   6.049   6.902
98091SOL    HW296171  13.448   6.135   6.797
98092SOL     OW96172   9.882   6.873   7.453
98092SOL    HW196173   9.909   6.958   7.419
98092SOL    HW296174   9.854   6.823   7.377
98093SOL     OW96175   3.571   6.455  10.835
98093SOL    HW196176   3.566   6.469  10.930
98093SOL    HW296177   3.640   6.390  10.824
98094SOL     OW96178   9.539   1.846   5.109
98094SOL    HW196179   9.449   1.836   5.076
98094SOL    HW296180   9.541   1.934   5.146
98095SOL     OW96181   6.452   5.975   7.167
98095SOL    HW196182   6.470   5.989   7.073
98095SOL    HW296183   6.442   5.880   7.175
98096SOL     OW96184   7.220   4.925  11.163
98096SOL    HW196185   7.143   4.874  11.189
98096SOL    HW296186   7.223   4.998  11.225
98097SOL     OW96187   5.719   8.673  14.029
98097SOL    HW196188   5.660   8.696  13.957
98097SOL    HW296189   5.715   8.577  14.033
98098SOL     OW96190  11.440  12.374   8.446
98098SOL    HW196191  11.420  12.333   8.362
98098SOL    HW296192  11.481  12.305   8.498
98099SOL     OW96193  13.731   3.166  12.300
98099SOL    HW196194  13.742   3.105  12.372
98099SOL    HW296195  13.702   3.112  12.227
98100SOL     OW96196   6.886   1.247   3.638
98100SOL    HW196197   6.889   1.224   3.731
98100SOL    HW296198   6.920   1.169   3.594
98101SOL     OW96199  14.371   2.171  13.601
98101SOL    HW196200  14.278   2.168  13.621
98101SOL    HW296201  14.415   2.149  13.683
98102SOL     OW96202   2.700   2.786  14.110
98102SOL    HW196203   2.752   2.865  14.097
98102SOL    HW296204   2.645   2.780  14.032
98103SOL     OW96205   9.099  14.518  11.909
98103SOL    HW196206   9.077  14.607  11.938
98103SOL    HW296207   9.051  14.461  11.970
98104SOL     OW96208   6.968   0.438   8.306
98104SOL    HW196209   7.043   0.387   8.273
98104SOL    HW296210   6.893   0.381   8.291
98105SOL     OW96211   9.558  13.260   8.775
98105SOL    HW196212   9.572  13.172   8.812
98105SOL    HW296213   9.503  13.244   8.699
98106SOL     OW96214  11.875  11.885   0.911
98106SOL    HW196215  11.852  11.838   0.991
98106SOL    HW296216  11.900  11.816   0.849
98107SOL     OW96217   0.938  12.670  13.531
98107SOL    HW196218   0.844  12.678  13.513
98107SOL    HW296219   0.959  12.749  13.580
98108SOL     OW96220   0.137   8.269  14.160
98108SOL    HW196221   0.180   8.265  14.246
98108SOL    HW296222   0.188   8.333  14.110
98109SOL     OW96223  13.359  10.892  13.961
98109SOL    HW196224  13.288  10.829  13.962
98109SOL    HW296225  13.349  10.942  14.042
98110SOL     OW96226   0.533   7.552  11.582
98110SOL    HW196227   0.604   7.493  11.557
98110SOL    HW296228   0.456   7.518  11.536
98111SOL     OW96229   9.656   9.115   9.609
98111SOL    HW196230   9.624   9.061   9.681
98111SOL    HW296231   9.671   9.054   9.537
98112SOL     OW96232  14.826  11.744   0.234
98112SOL    HW196233  14.773  11.823   0.226
98112SOL    HW296234   0.046  11.775   0.234
98113SOL     OW96235  11.402  10.080   1.692
98113SOL    HW196236  11.433  10.085   1.601
98113SOL    HW296237  11.360  10.165   1.707
98114SOL     OW96238   4.759  11.945   9.142
98114SOL    HW196239   4.680  11.951   9.195
98114SOL    HW296240   4.796  12.033   9.142
98115SOL     OW96241   7.212   8.531   5.401
98115SOL    HW196242   7.218   8.510   5.308
98115SOL    HW296243   7.142   8.596   5.407
98116SOL     OW96244   4.985   9.399   5.993
98116SOL    HW196245   5.033   9.374   6.072
98116SOL    HW296246   5.052   9.412   5.926
98117SOL     OW96247   4.123   1.853   6.560
98117SOL    HW196248   4.119   1.915   6.633
98117SOL    HW296249   4.209   1.867   6.521
98118SOL     OW96250   7.810   0.145   4.914
98118SOL    HW196251   7.870   0.193   4.856
98118SOL    HW296252   7.868   0.102   4.977
98119SOL     OW96253   0.622   3.120   7.567
98119SOL    HW196254   0.568   3.184   7.520
98119SOL    HW296255   0.590   3.122   7.657
98120SOL     OW96256  14.263   5.761  11.665
98120SOL    HW196257  14.259   5.680  11.716
98120SOL    HW296258  14.174   5.773  11.633
98121SOL     OW96259   1.863   9.180  10.550
98121SOL    HW196260   1.884   9.176  10.643
98121SOL    HW296261   1.790   9.242  10.544
98122SOL     OW96262   6.589   1.093   0.229
98122SOL    HW196263   6.574   1.156   0.300
98122SOL    HW296264   6.680   1.108   0.203
98123SOL     OW96265   7.749   3.336   1.022
98123SOL    HW196266   7.707   3.287   1.092
98123SOL    HW296267   7.765   3.271   0.953
98124SOL     OW96268   9.292   6.933   3.623
98124SOL    HW196269   9.342   6.874   3.567
98124SOL    HW296270   9.204   6.895   3.627
98125SOL     OW96271   9.053   0.551   5.842
98125SOL    HW196272   8.986   0.557   5.774
98125SOL    HW296273   9.020   0.607   5.913
98126SOL     OW96274   2.980   3.853   8.972
98126SOL    HW196275   2.922   3.926   8.954
98126SOL    HW296276   2.964   3.831   9.064
98127SOL     OW96277   8.876   3.800  13.996
98127SOL    HW196278   8.960   3.842  13.977
98127SOL    HW296279   8.812   3.851  13.947
98128SOL     OW96280   9.603   8.352   7.726
98128SOL    HW196281   9.657   8.429   7.705
98128SOL    HW296282   9.647   8.279   7.683
98129SOL     OW96283   0.166   4.134   9.227
98129SOL    HW196284   0.178   4.229   9.226
98129SOL    HW296285   0.235   4.102   9.168
98130SOL     OW96286   8.541   2.661  10.860
98130SOL    HW196287   8.545   2.730  10.927
98130SOL    HW296288   8.520   2.708  10.779
98131SOL     OW96289   0.968  11.505   0.711
98131SOL    HW196290   1.038  11.479   0.650
98131SOL    HW296291   1.011  11.566   0.771
98132SOL     OW96292   0.966   8.497   9.598
98132SOL    HW196293   1.050   8.463   9.567
98132SOL    HW296294   0.948   8.448   9.678
98133SOL     OW96295  14.486  14.618  10.019
98133SOL    HW196296  14.532  14.534  10.012
98133SOL    HW296297  14.400  14.595  10.053
98134SOL     OW96298   0.558  13.264   6.654
98134SOL    HW196299   0.552  13.359   6.649
98134SOL    HW296300   0.478  13.238   6.701
98135SOL     OW96301   1.467   2.105   7.835
98135SOL    HW196302   1.477   2.196   7.861
98135SOL    HW296303   1.378   2.100   7.799
98136SOL     OW96304   5.326   5.579   5.016
98136SOL    HW196305   5.336   5.526   5.095
98136SOL    HW296306   5.414   5.589   4.982
98137SOL     OW96307  14.062   2.052   8.440
98137SOL    HW196308  13.976   2.093   8.448
98137SOL    HW296309  14.121   2.109   8.490
98138SOL     OW96310   4.210   4.116  13.677
98138SOL    HW196311   4.167   4.186  13.726
98138SOL    HW296312   4.173   4.122  13.590
98139SOL     OW96313  11.707   6.969  10.157
98139SOL    HW196314  11.797   6.944  10.136
98139SOL    HW296315  11.662   6.966  10.072
98140SOL     OW96316   0.084   1.574   6.799
98140SOL    HW196317   0.116   1.576   6.709
98140SOL    HW296318   0.006   1.630   6.798
98141SOL     OW96319   2.284   3.729  13.446
98141SOL    HW196320   2.295   3.636  13.466
98141SOL    HW296321   2.197   3.735  13.408
98142SOL     OW96322   4.904   3.735   8.762
98142SOL    HW196323   4.999   3.739   8.753
98142SOL    HW296324   4.887   3.757   8.854
98143SOL     OW96325   4.755  10.911  11.427
98143SOL    HW196326   4.800  10.826  11.426
98143SOL    HW296327   4.724  10.924  11.338
98144SOL     OW96328   7.591   7.811   0.619
98144SOL    HW196329   7.678   7.846   0.642
98144SOL    HW296330   7.532   7.850   0.684
98145SOL     OW96331   4.589   0.137  11.514
98145SOL    HW196332   4.674   0.166  11.480
98145SOL    HW296333   4.549   0.089  11.441
98146SOL     OW96334   0.103   8.233   4.503
98146SOL    HW196335   0.137   8.232   4.593
98146SOL    HW296336   0.108   8.142   4.475
98147SOL     OW96337   4.827   2.675   8.598
98147SOL    HW196338   4.742   2.664   8.554
98147SOL    HW296339   4.846   2.768   8.590
98148SOL     OW96340   7.863  12.586   7.452
98148SOL    HW196341   7.871  12.681   7.452
98148SOL    HW296342   7.874  12.561   7.544
98149SOL     OW96343   6.916   3.143   4.579
98149SOL    HW196344   6.851   3.209   4.602
98149SOL    HW296345   6.913   3.138   4.483
98150SOL     OW96346   4.035   9.905   0.124
98150SOL    HW196347   4.098   9.908   0.196
98150SOL    HW296348   3.950   9.911   0.167
98151SOL     OW96349   4.164   4.801  10.660
98151SOL    HW196350   4.256   4.786  10.683
98151SOL    HW296351   4.135   4.718  10.622
98152SOL     OW96352  10.343   5.799  10.005
98152SOL    HW196353  10.296   5.781  10.087
98152SOL    HW296354  10.362   5.712   9.969
98153SOL     OW96355   5.509  12.673   1.672
98153SOL    HW196356   5.420  12.706   1.682
98153SOL    HW296357   5.515  12.600   1.734
98154SOL     OW96358   2.675   4.284  14.805
98154SOL    HW196359   2.693   4.219   0.002
98154SOL    HW296360   2.740   4.266  14.736
98155SOL     OW96361  11.620  13.570  14.074
98155SOL    HW196362  11.569  13.493  14.098
98155SOL    HW296363  11.703  13.561  14.122
98156SOL     OW96364   4.197   9.372   5.185
98156SOL    HW196365   4.235   9.284   5.179
98156SOL    HW296366   4.248   9.424   5.123
98157SOL     OW96367   8.027   5.027   0.823
98157SOL    HW196368   7.981   4.991   0.747
98157SOL    HW296369   8.116   4.996   0.813
98158SOL     OW96370   1.209  13.533  14.697
98158SOL    HW196371   1.113  13.531  14.705
98158SOL    HW296372   1.231  13.626  14.693
98159SOL     OW96373   9.151   7.097   8.676
98159SOL    HW196374   9.144   7.162   8.606
98159SOL    HW296375   9.222   7.129   8.732
98160SOL     OW96376   2.022   2.373  14.591
98160SOL    HW196377   2.105   2.413  14.618
98160SOL    HW296378   2.022   2.287  14.634
98161SOL     OW96379   1.910   9.837   9.368
98161SOL    HW196380   1.911   9.896   9.443
98161SOL    HW296381   1.950   9.756   9.400
98162SOL     OW96382   0.705  11.030   7.547
98162SOL    HW196383   0.718  11.035   7.642
98162SOL    HW296384   0.656  10.948   7.534
98163SOL     OW96385   9.566   3.238  13.189
98163SOL    HW196386   9.586   3.213  13.279
98163SOL    HW296387   9.602   3.327  13.180
98164SOL     OW96388  11.103   1.207   7.728
98164SOL    HW196389  11.194   1.232   7.710
98164SOL    HW296390  11.111   1.137   7.794
98165SOL     OW96391   1.213   5.492   0.030
98165SOL    HW196392   1.173   5.481   0.116
98165SOL    HW296393   1.260   5.410   0.014
98166SOL     OW96394   9.211  12.568   7.557
98166SOL    HW196395   9.243  12.545   7.644
98166SOL    HW296396   9.137  12.627   7.574
98167SOL     OW96397   2.097   9.463  10.674
98167SOL    HW196398   2.054   9.434  10.594
98167SOL    HW296399   2.132   9.549  10.653
98168SOL     OW96400   5.978   0.233   8.646
98168SOL    HW196401   5.981   0.238   8.741
98168SOL    HW296402   6.050   0.174   8.623
98169SOL     OW96403  14.546   7.065   5.985
98169SOL    HW196404  14.598   7.113   6.049
98169SOL    HW296405  14.566   7.105   5.901
98170SOL     OW96406  11.977  12.120  12.984
98170SOL    HW196407  12.026  12.149  13.060
98170SOL    HW296408  11.891  12.161  12.994
98171SOL     OW96409   9.340   4.637   8.095
98171SOL    HW196410   9.327   4.602   8.183
98171SOL    HW296411   9.254   4.673   8.071
98172SOL     OW96412   7.597   0.459   9.833
98172SOL    HW196413   7.658   0.389   9.809
98172SOL    HW296414   7.512   0.427   9.806
98173SOL     OW96415   4.177   4.970  10.284
98173SOL    HW196416   4.258   4.928  10.314
98173SOL    HW296417   4.199   5.063  10.278
98174SOL     OW96418   4.077   0.535  11.700
98174SOL    HW196419   4.049   0.460  11.752
98174SOL    HW296420   4.065   0.507  11.609
98175SOL     OW96421   3.418   5.590   8.529
98175SOL    HW196422   3.472   5.655   8.575
98175SOL    HW296423   3.416   5.515   8.589
98176SOL     OW96424   2.071   8.635   3.225
98176SOL    HW196425   1.999   8.698   3.224
98176SOL    HW296426   2.063   8.587   3.143
98177SOL     OW96427  12.179   0.754   8.240
98177SOL    HW196428  12.132   0.674   8.265
98177SOL    HW296429  12.137   0.823   8.290
98178SOL     OW96430   9.493  13.484   3.471
98178SOL    HW196431   9.523  13.394   3.460
98178SOL    HW296432   9.501  13.501   3.565
98179SOL     OW96433   7.207   3.461  14.693
98179SOL    HW196434   7.177   3.535  14.640
98179SOL    HW296435   7.146   3.390  14.673
98180SOL     OW96436   5.907  10.414  13.899
98180SOL    HW196437   5.926  10.505  13.922
98180SOL    HW296438   5.938  10.406  13.809
98181SOL     OW96439  11.201   6.424  14.455
98181SOL    HW196440  11.274   6.362  14.459
98181SOL    HW296441  11.130   6.375  14.412
98182SOL     OW96442  12.646  12.168   5.302
98182SOL    HW196443  12.617  12.250   5.340
98182SOL    HW296444  12.631  12.103   5.371
98183SOL     OW96445   2.515  13.499   8.742
98183SOL    HW196446   2.490  13.550   8.819
98183SOL    HW296447   2.609  13.511   8.734
98184SOL     OW96448  12.639  10.992   9.201
98184SOL    HW196449  12.673  11.081   9.207
98184SOL    HW296450  12.584  10.993   9.122
98185SOL     OW96451   5.785  13.881  11.870
98185SOL    HW196452   5.729  13.958  11.880
98185SOL    HW296453   5.841  13.881  11.948
98186SOL     OW96454   8.070  10.546   5.995
98186SOL    HW196455   8.016  10.536   6.074
98186SOL    HW296456   8.049  10.469   5.942
98187SOL     OW96457  14.688   3.991   2.955
98187SOL    HW196458  14.756   3.941   2.911
98187SOL    HW296459  14.634   4.026   2.883
98188SOL     OW96460  13.531   6.368   9.022
98188SOL    HW196461  13.548   6.303   9.090
98188SOL    HW296462  13.464   6.425   9.059
98189SOL     OW96463  13.176  11.499  11.291
98189SOL    HW196464  13.112  11.517  11.222
98189SOL    HW296465  13.239  11.572  11.285
98190SOL     OW96466   1.075  14.025   0.191
98190SOL    HW196467   0.991  14.072   0.195
98190SOL    HW296468   1.050  13.935   0.169
98191SOL     OW96469  11.850   7.098   6.080
98191SOL    HW196470  11.844   7.178   6.027
98191SOL    HW296471  11.847   7.130   6.171
98192SOL     OW96472   6.326   4.038   5.707
98192SOL    HW196473   6.261   3.968   5.703
98192SOL    HW296474   6.314   4.087   5.626
98193SOL     OW96475   2.598  11.661   1.697
98193SOL    HW196476   2.531  11.713   1.742
98193SOL    HW296477   2.548  11.603   1.639
98194SOL     OW96478  11.063  13.105  13.893
98194SOL    HW196479  11.019  13.022  13.912
98194SOL    HW296480  11.150  13.095  13.932
98195SOL     OW96481   3.226   4.070   0.395
98195SOL    HW196482   3.195   4.159   0.408
98195SOL    HW296483   3.199   4.047   0.307
98196SOL     OW96484   8.272   9.694   2.430
98196SOL    HW196485   8.323   9.773   2.409
98196SOL    HW296486   8.195   9.700   2.372
98197SOL     OW96487   3.087   3.490   4.219
98197SOL    HW196488   3.005   3.444   4.201
98197SOL    HW296489   3.092   3.557   4.151
98198SOL     OW96490   3.733   5.710   1.123
98198SOL    HW196491   3.637   5.717   1.129
98198SOL    HW296492   3.765   5.776   1.184
98199SOL     OW96493   4.456   7.741  11.165
98199SOL    HW196494   4.447   7.780  11.252
98199SOL    HW296495   4.550   7.734  11.152
98200SOL     OW96496   6.777  12.630  11.878
98200SOL    HW196497   6.788  12.535  11.889
98200SOL    HW296498   6.865  12.666  11.890
98201SOL     OW96499  13.177   2.544  12.065
98201SOL    HW196500  13.184   2.450  12.046
98201SOL    HW296501  13.213   2.553  12.153
98202SOL     OW96502  11.021   4.131   1.061
98202SOL    HW196503  11.086   4.190   1.023
98202SOL    HW296504  10.983   4.181   1.134
98203SOL     OW96505   4.872   7.766  10.570
98203SOL    HW196506   4.952   7.791  10.524
98203SOL    HW296507   4.823   7.848  10.580
98204SOL     OW96508   7.555  12.143   2.498
98204SOL    HW196509   7.583  12.159   2.408
98204SOL    HW296510   7.484  12.080   2.489
98205SOL     OW96511   2.001   1.611   3.733
98205SOL    HW196512   1.940   1.666   3.781
98205SOL    HW296513   1.952   1.531   3.714
98206SOL     OW96514   1.773  10.926   8.019
98206SOL    HW196515   1.734  10.866   7.955
98206SOL    HW296516   1.718  10.915   8.097
98207SOL     OW96517  12.823   3.305   7.599
98207SOL    HW196518  12.844   3.277   7.510
98207SOL    HW296519  12.803   3.224   7.646
98208SOL     OW96520   5.981   9.709   0.366
98208SOL    HW196521   5.958   9.624   0.404
98208SOL    HW296522   5.916   9.722   0.297
98209SOL     OW96523   6.700  13.640  14.470
98209SOL    HW196524   6.644  13.686  14.533
98209SOL    HW296525   6.787  13.640  14.510
98210SOL     OW96526   2.537   4.736   8.824
98210SOL    HW196527   2.538   4.684   8.904
98210SOL    HW296528   2.516   4.673   8.755
98211SOL     OW96529   9.626  14.663  13.459
98211SOL    HW196530   9.662  14.735  13.510
98211SOL    HW296531   9.532  14.681  13.454
98212SOL     OW96532  13.230  13.611  12.244
98212SOL    HW196533  13.181  13.653  12.315
98212SOL    HW296534  13.184  13.638  12.165
98213SOL     OW96535   9.823   1.909  10.344
98213SOL    HW196536   9.758   1.956  10.292
98213SOL    HW296537   9.907   1.938  10.309
98214SOL     OW96538  14.861   6.629   9.546
98214SOL    HW196539   0.013   6.663   9.632
98214SOL    HW296540   0.070   6.643   9.494
98215SOL     OW96541  11.044  14.106   7.196
98215SOL    HW196542  11.102  14.149   7.133
98215SOL    HW296543  10.985  14.176   7.226
98216SOL     OW96544   3.123  14.510   4.082
98216SOL    HW196545   3.061  14.438   4.090
98216SOL    HW296546   3.073  14.587   4.110
98217SOL     OW96547  10.504   0.318   5.968
98217SOL    HW196548  10.549   0.368   6.037
98217SOL    HW296549  10.447   0.258   6.016
98218SOL     OW96550   5.581   7.343   0.380
98218SOL    HW196551   5.598   7.273   0.443
98218SOL    HW296552   5.516   7.306   0.320
98219SOL     OW96553  10.925  14.242   5.097
98219SOL    HW196554  10.983  14.316   5.110
98219SOL    HW296555  10.982  14.165   5.100
98220SOL     OW96556  12.038   8.488  10.793
98220SOL    HW196557  11.996   8.454  10.872
98220SOL    HW296558  11.965   8.513  10.736
98221SOL     OW96559   8.840   3.189  13.033
98221SOL    HW196560   8.780   3.150  12.970
98221SOL    HW296561   8.789   3.198  13.113
98222SOL     OW96562   1.316  13.228   3.408
98222SOL    HW196563   1.314  13.283   3.329
98222SOL    HW296564   1.233  13.180   3.406
98223SOL     OW96565  11.525  13.403   7.381
98223SOL    HW196566  11.538  13.416   7.287
98223SOL    HW296567  11.596  13.451   7.422
98224SOL     OW96568   4.036   4.156   8.503
98224SOL    HW196569   3.944   4.143   8.480
98224SOL    HW296570   4.041   4.131   8.596
98225SOL     OW96571   8.390  14.634  10.107
98225SOL    HW196572   8.362  14.725  10.115
98225SOL    HW296573   8.392  14.618  10.012
98226SOL     OW96574   9.093   4.467   7.704
98226SOL    HW196575   9.146   4.395   7.739
98226SOL    HW296576   9.014   4.466   7.759
98227SOL     OW96577   0.096  10.163   9.530
98227SOL    HW196578   0.112  10.249   9.490
98227SOL    HW296579   0.011  10.136   9.496
98228SOL     OW96580   0.673  11.930  14.869
98228SOL    HW196581   0.710  11.859  14.817
98228SOL    HW296582   0.703  11.913   0.088
98229SOL     OW96583   2.557   1.586   8.345
98229SOL    HW196584   2.512   1.601   8.428
98229SOL    HW296585   2.637   1.639   8.350
98230SOL     OW96586  11.057   3.051   2.320
98230SOL    HW196587  11.016   3.113   2.381
98230SOL    HW296588  11.052   2.967   2.366
98231SOL     OW96589   2.793   3.461   7.338
98231SOL    HW196590   2.734   3.396   7.300
98231SOL    HW296591   2.735   3.523   7.382
98232SOL     OW96592   4.744  13.016   7.482
98232SOL    HW196593   4.659  12.972   7.479
98232SOL    HW296594   4.807  12.948   7.457
98233SOL     OW96595   7.955   8.536   2.103
98233SOL    HW196596   8.022   8.492   2.050
98233SOL    HW296597   7.909   8.593   2.041
98234SOL     OW96598  11.857   0.747  12.084
98234SOL    HW196599  11.897   0.665  12.113
98234SOL    HW296600  11.908   0.774  12.008
98235SOL     OW96601   8.564  14.151  14.097
98235SOL    HW196602   8.649  14.149  14.140
98235SOL    HW296603   8.507  14.099  14.154
98236SOL     OW96604   5.884   7.768   8.763
98236SOL    HW196605   5.885   7.862   8.782
98236SOL    HW296606   5.832   7.761   8.682
98237SOL     OW96607  11.536  11.529   0.469
98237SOL    HW196608  11.539  11.552   0.561
98237SOL    HW296609  11.541  11.613   0.423
98238SOL     OW96610   7.824   7.812   1.097
98238SOL    HW196611   7.844   7.905   1.090
98238SOL    HW296612   7.797   7.787   1.009
98239SOL     OW96613  14.853   8.377  11.301
98239SOL    HW196614  14.855   8.328  11.383
98239SOL    HW296615  14.835   8.467  11.326
98240SOL     OW96616  11.250   0.595  10.552
98240SOL    HW196617  11.274   0.637  10.470
98240SOL    HW296618  11.172   0.642  10.581
98241SOL     OW96619   7.636   9.529   2.937
98241SOL    HW196620   7.642   9.595   2.867
98241SOL    HW296621   7.543   9.510   2.944
98242SOL     OW96622  12.014   5.722   3.500
98242SOL    HW196623  12.044   5.695   3.587
98242SOL    HW296624  11.981   5.811   3.512
98243SOL     OW96625   5.654   3.345   4.394
98243SOL    HW196626   5.736   3.334   4.443
98243SOL    HW296627   5.585   3.340   4.460
98244SOL     OW96628   9.266   5.197  13.538
98244SOL    HW196629   9.191   5.249  13.510
98244SOL    HW296630   9.333   5.260  13.562
98245SOL     OW96631  14.673  10.997  11.490
98245SOL    HW196632  14.583  10.999  11.458
98245SOL    HW296633  14.727  10.985  11.412
98246SOL     OW96634  13.387   7.324   2.151
98246SOL    HW196635  13.351   7.328   2.063
98246SOL    HW296636  13.363   7.237   2.183
98247SOL     OW96637   3.632   8.270   7.132
98247SOL    HW196638   3.606   8.337   7.069
98247SOL    HW296639   3.676   8.318   7.202
98248SOL     OW96640   5.159   3.099  14.739
98248SOL    HW196641   5.248   3.131  14.731
98248SOL    HW296642   5.156   3.053  14.823
98249SOL     OW96643  14.547   1.024   8.336
98249SOL    HW196644  14.489   0.996   8.265
98249SOL    HW296645  14.588   0.943   8.366
98250SOL     OW96646   4.193   7.356   4.226
98250SOL    HW196647   4.251   7.316   4.162
98250SOL    HW296648   4.123   7.396   4.174
98251SOL     OW96649   2.297  14.852   4.466
98251SOL    HW196650   2.327   0.013   4.552
98251SOL    HW296651   2.208  14.820   4.482
98252SOL     OW96652  14.104  12.707  13.276
98252SOL    HW196653  14.054  12.764  13.218
98252SOL    HW296654  14.060  12.622  13.269
98253SOL     OW96655   7.380   8.630   5.902
98253SOL    HW196656   7.354   8.573   5.829
98253SOL    HW296657   7.348   8.584   5.980
98254SOL     OW96658  12.164   9.009  10.100
98254SOL    HW196659  12.249   8.968  10.115
98254SOL    HW296660  12.117   8.946  10.044
98255SOL     OW96661   3.562   2.507   6.645
98255SOL    HW196662   3.633   2.552   6.690
98255SOL    HW296663   3.599   2.481   6.561
98256SOL     OW96664  10.248   7.654  12.868
98256SOL    HW196665  10.230   7.693  12.954
98256SOL    HW296666  10.339   7.627  12.872
98257SOL     OW96667  13.243  12.630  14.551
98257SOL    HW196668  13.213  12.718  14.530
98257SOL    HW296669  13.163  12.580  14.565
98258SOL     OW96670   4.799   3.422  14.426
98258SOL    HW196671   4.723   3.365  14.443
98258SOL    HW296672   4.783   3.457  14.339
98259SOL     OW96673   0.561   7.904   0.662
98259SOL    HW196674   0.646   7.859   0.660
98259SOL    HW296675   0.564   7.963   0.587
98260SOL     OW96676   3.297   3.387  11.370
98260SOL    HW196677   3.366   3.355  11.428
98260SOL    HW296678   3.331   3.370  11.282
98261SOL     OW96679   7.460   3.776   6.214
98261SOL    HW196680   7.398   3.707   6.240
98261SOL    HW296681   7.413   3.858   6.230
98262SOL     OW96682  12.583   6.032  14.858
98262SOL    HW196683  12.564   6.099   0.054
98262SOL    HW296684  12.678   6.024  14.858
98263SOL     OW96685   5.880   8.403   1.219
98263SOL    HW196686   5.870   8.383   1.126
98263SOL    HW296687   5.948   8.470   1.223
98264SOL     OW96688   7.715  11.489   5.387
98264SOL    HW196689   7.680  11.425   5.326
98264SOL    HW296690   7.653  11.561   5.385
98265SOL     OW96691   2.501   2.820  12.665
98265SOL    HW196692   2.502   2.846  12.573
98265SOL    HW296693   2.451   2.739  12.667
98266SOL     OW96694   5.977   2.535   2.708
98266SOL    HW196695   5.965   2.508   2.799
98266SOL    HW296696   5.986   2.630   2.713
98267SOL     OW96697   8.480   3.106  13.783
98267SOL    HW196698   8.467   3.142  13.871
98267SOL    HW296699   8.570   3.130  13.761
98268SOL     OW96700  13.644  14.261   7.286
98268SOL    HW196701  13.702  14.337   7.292
98268SOL    HW296702  13.690  14.192   7.334
98269SOL     OW96703   2.334   6.516  10.430
98269SOL    HW196704   2.366   6.460  10.500
98269SOL    HW296705   2.412   6.536  10.378
98270SOL     OW96706  14.138  14.500   2.045
98270SOL    HW196707  14.161  14.482   2.136
98270SOL    HW296708  14.145  14.595   2.037
98271SOL     OW96709   2.840  11.075   2.915
98271SOL    HW196710   2.853  11.070   3.009
98271SOL    HW296711   2.778  11.005   2.895
98272SOL     OW96712  11.254   9.514   9.689
98272SOL    HW196713  11.191   9.461   9.736
98272SOL    HW296714  11.239   9.493   9.597
98273SOL     OW96715   4.193   0.733   8.227
98273SOL    HW196716   4.206   0.772   8.313
98273SOL    HW296717   4.195   0.639   8.243
98274SOL     OW96718   5.618   9.561   6.475
98274SOL    HW196719   5.654   9.475   6.454
98274SOL    HW296720   5.681   9.599   6.535
98275SOL     OW96721   6.513  11.777   1.234
98275SOL    HW196722   6.479  11.831   1.162
98275SOL    HW296723   6.523  11.837   1.307
98276SOL     OW96724   0.116  10.524   1.308
98276SOL    HW196725   0.050  10.586   1.276
98276SOL    HW296726   0.184  10.525   1.241
98277SOL     OW96727   4.627   0.847   9.409
98277SOL    HW196728   4.658   0.824   9.322
98277SOL    HW296729   4.601   0.764   9.449
98278SOL     OW96730   7.736   2.468   9.393
98278SOL    HW196731   7.647   2.437   9.374
98278SOL    HW296732   7.790   2.389   9.389
98279SOL     OW96733   5.552  13.730  11.660
98279SOL    HW196734   5.459  13.725  11.636
98279SOL    HW296735   5.575  13.823  11.648
98280SOL     OW96736   7.778   7.335   9.311
98280SOL    HW196737   7.794   7.417   9.358
98280SOL    HW296738   7.770   7.269   9.380
98281SOL     OW96739   4.748   5.280  14.558
98281SOL    HW196740   4.837   5.266  14.591
98281SOL    HW296741   4.692   5.232  14.619
98282SOL     OW96742   9.891   9.766  12.219
98282SOL    HW196743   9.949   9.839  12.199
98282SOL    HW296744   9.904   9.704  12.147
98283SOL     OW96745  11.772  12.137   0.967
98283SOL    HW196746  11.839  12.072   0.947
98283SOL    HW296747  11.719  12.097   1.036
98284SOL     OW96748  12.104   5.019   3.601
98284SOL    HW196749  12.113   5.026   3.696
98284SOL    HW296750  12.151   4.938   3.579
98285SOL     OW96751  10.929   3.200   9.097
98285SOL    HW196752  10.836   3.179   9.090
98285SOL    HW296753  10.931   3.289   9.133
98286SOL     OW96754   2.370   9.325   2.855
98286SOL    HW196755   2.445   9.292   2.806
98286SOL    HW296756   2.369   9.273   2.936
98287SOL     OW96757  13.207   9.325  10.007
98287SOL    HW196758  13.301   9.345  10.015
98287SOL    HW296759  13.204   9.229  10.000
98288SOL     OW96760   0.592   1.265   0.048
98288SOL    HW196761   0.651   1.190   0.048
98288SOL    HW296762   0.541   1.255   0.128
98289SOL     OW96763   0.045  11.383  12.542
98289SOL    HW196764  14.861  11.404  12.466
98289SOL    HW296765   0.037  11.459  12.599
98290SOL     OW96766  11.132   4.492   2.213
98290SOL    HW196767  11.150   4.404   2.246
98290SOL    HW296768  11.194   4.504   2.141
98291SOL     OW96769   2.419   1.766   8.176
98291SOL    HW196770   2.459   1.730   8.255
98291SOL    HW296771   2.349   1.822   8.207
98292SOL     OW96772  12.290  10.121   9.787
98292SOL    HW196773  12.347  10.051   9.755
98292SOL    HW296774  12.316  10.199   9.738
98293SOL     OW96775   4.165  11.512   0.535
98293SOL    HW196776   4.111  11.583   0.501
98293SOL    HW296777   4.175  11.533   0.628
98294SOL     OW96778  13.030   2.169   4.939
98294SOL    HW196779  13.107   2.225   4.932
98294SOL    HW296780  13.013   2.140   4.849
98295SOL     OW96781  13.485   1.378  14.751
98295SOL    HW196782  13.443   1.395  14.667
98295SOL    HW296783  13.413   1.372  14.813
98296SOL     OW96784   8.701   9.681   1.283
98296SOL    HW196785   8.706   9.755   1.342
98296SOL    HW296786   8.641   9.709   1.214
98297SOL     OW96787   4.321   1.681  13.691
98297SOL    HW196788   4.254   1.747  13.709
98297SOL    HW296789   4.394   1.731  13.654
98298SOL     OW96790   6.252   6.007  14.753
98298SOL    HW196791   6.163   6.003  14.719
98298SOL    HW296792   6.256   6.090  14.799
98299SOL     OW96793   2.831   0.173  14.565
98299SOL    HW196794   2.903   0.149  14.506
98299SOL    HW296795   2.785   0.243  14.519
98300SOL     OW96796   3.285   4.795  10.858
98300SOL    HW196797   3.209   4.792  10.799
98300SOL    HW296798   3.349   4.736  10.820
98301SOL     OW96799   3.948  13.554   9.219
98301SOL    HW196800   3.857  13.563   9.190
98301SOL    HW296801   3.953  13.464   9.254
98302SOL     OW96802  13.766  12.038   5.490
98302SOL    HW196803  13.729  11.950   5.490
98302SOL    HW296804  13.698  12.094   5.528
98303SOL     OW96805   5.438   4.590  12.175
98303SOL    HW196806   5.527   4.626  12.164
98303SOL    HW296807   5.381   4.660  12.144
98304SOL     OW96808  13.867   9.632   9.710
98304SOL    HW196809  13.865   9.611   9.617
98304SOL    HW296810  13.946   9.684   9.721
98305SOL     OW96811   7.852   8.301  14.808
98305SOL    HW196812   7.769   8.256  14.819
98305SOL    HW296813   7.907   8.266   0.009
98306SOL     OW96814   8.397  12.067   4.830
98306SOL    HW196815   8.451  12.004   4.782
98306SOL    HW296816   8.399  12.035   4.920
98307SOL     OW96817   7.439  14.092   8.105
98307SOL    HW196818   7.413  14.000   8.113
98307SOL    HW296819   7.531  14.089   8.081
98308SOL     OW96820   8.722   1.554  14.118
98308SOL    HW196821   8.630   1.581  14.110
98308SOL    HW296822   8.743   1.568  14.210
98309SOL     OW96823   3.595   8.722  14.272
98309SOL    HW196824   3.674   8.698  14.320
98309SOL    HW296825   3.620   8.803  14.226
98310SOL     OW96826  12.500  11.215   3.450
98310SOL    HW196827  12.406  11.227   3.436
98310SOL    HW296828  12.508  11.189   3.542
98311SOL     OW96829   5.193   7.612   5.170
98311SOL    HW196830   5.240   7.538   5.132
98311SOL    HW296831   5.242   7.632   5.250
98312SOL     OW96832   7.270   6.811   2.582
98312SOL    HW196833   7.283   6.899   2.548
98312SOL    HW296834   7.354   6.767   2.568
98313SOL     OW96835   0.290   3.828   9.637
98313SOL    HW196836   0.337   3.747   9.623
98313SOL    HW296837   0.302   3.878   9.557
98314SOL     OW96838   7.816  13.333   0.109
98314SOL    HW196839   7.756  13.403   0.137
98314SOL    HW296840   7.768  13.287   0.040
98315SOL     OW96841   5.284  11.055  13.917
98315SOL    HW196842   5.249  11.135  13.880
98315SOL    HW296843   5.228  10.985  13.883
98316SOL     OW96844  10.648  10.971   9.846
98316SOL    HW196845  10.589  10.996   9.776
98316SOL    HW296846  10.591  10.953   9.921
98317SOL     OW96847   8.097  11.126   9.801
98317SOL    HW196848   8.170  11.187   9.792
98317SOL    HW296849   8.121  11.051   9.747
98318SOL     OW96850   4.990   6.000   5.849
98318SOL    HW196851   4.997   5.978   5.756
98318SOL    HW296852   4.961   6.092   5.849
98319SOL     OW96853   8.222   1.814   0.715
98319SOL    HW196854   8.168   1.758   0.660
98319SOL    HW296855   8.173   1.822   0.797
98320SOL     OW96856  10.406   4.219   5.365
98320SOL    HW196857  10.376   4.256   5.282
98320SOL    HW296858  10.341   4.248   5.429
98321SOL     OW96859   7.703  11.521   1.082
98321SOL    HW196860   7.783  11.495   1.035
98321SOL    HW296861   7.697  11.615   1.068
98322SOL     OW96862   7.968  13.284   4.556
98322SOL    HW196863   7.998  13.373   4.540
98322SOL    HW296864   7.902  13.293   4.624
98323SOL     OW96865  10.139   8.676  10.161
98323SOL    HW196866  10.194   8.608  10.200
98323SOL    HW296867  10.201   8.734  10.116
98324SOL     OW96868   1.889   0.373   6.750
98324SOL    HW196869   1.877   0.356   6.657
98324SOL    HW296870   1.862   0.293   6.794
98325SOL     OW96871   4.773   6.211  10.779
98325SOL    HW196872   4.814   6.130  10.749
98325SOL    HW296873   4.757   6.197  10.872
98326SOL     OW96874   4.538   4.863   5.807
98326SOL    HW196875   4.487   4.933   5.848
98326SOL    HW296876   4.622   4.866   5.852
98327SOL     OW96877   4.467   4.905  10.371
98327SOL    HW196878   4.531   4.834  10.382
98327SOL    HW296879   4.491   4.947  10.288
98328SOL     OW96880   3.006   5.542   3.724
98328SOL    HW196881   2.990   5.624   3.676
98328SOL    HW296882   3.002   5.474   3.657
98329SOL     OW96883   5.146   1.398   2.317
98329SOL    HW196884   5.198   1.325   2.350
98329SOL    HW296885   5.200   1.475   2.332
98330SOL     OW96886  10.467   6.661   8.885
98330SOL    HW196887  10.489   6.584   8.937
98330SOL    HW296888  10.479   6.634   8.794
98331SOL     OW96889   7.507  11.183  12.139
98331SOL    HW196890   7.484  11.146  12.224
98331SOL    HW296891   7.582  11.240  12.158
98332SOL     OW96892  13.554   2.088  12.657
98332SOL    HW196893  13.469   2.103  12.616
98332SOL    HW296894  13.599   2.028  12.598
98333SOL     OW96895   7.280   3.283   7.072
98333SOL    HW196896   7.351   3.219   7.080
98333SOL    HW296897   7.286   3.336   7.152
98334SOL     OW96898  10.410   3.677   6.956
98334SOL    HW196899  10.503   3.661   6.973
98334SOL    HW296900  10.388   3.621   6.882
98335SOL     OW96901   7.419   8.662  12.492
98335SOL    HW196902   7.472   8.594  12.534
98335SOL    HW296903   7.350   8.681  12.556
98336SOL     OW96904   6.650   7.797   4.304
98336SOL    HW196905   6.562   7.807   4.338
98336SOL    HW296906   6.661   7.870   4.243
98337SOL     OW96907   6.913   0.826   3.706
98337SOL    HW196908   6.841   0.883   3.733
98337SOL    HW296909   6.883   0.738   3.727
98338SOL     OW96910   0.569   4.135  12.429
98338SOL    HW196911   0.486   4.113  12.472
98338SOL    HW296912   0.575   4.075  12.355
98339SOL     OW96913  10.908   4.298   1.283
98339SOL    HW196914  10.998   4.302   1.314
98339SOL    HW296915  10.856   4.319   1.361
98340SOL     OW96916   3.888   3.158   8.569
98340SOL    HW196917   3.981   3.158   8.588
98340SOL    HW296918   3.847   3.123   8.649
98341SOL     OW96919  13.083  14.065   0.283
98341SOL    HW196920  13.033  14.146   0.291
98341SOL    HW296921  13.146  14.083   0.213
98342SOL     OW96922  12.788   2.324   1.931
98342SOL    HW196923  12.752   2.278   2.007
98342SOL    HW296924  12.718   2.320   1.865
98343SOL     OW96925   6.291  13.944   9.705
98343SOL    HW196926   6.335  14.028   9.713
98343SOL    HW296927   6.302  13.919   9.613
98344SOL     OW96928   0.281   0.848  10.556
98344SOL    HW196929   0.322   0.888  10.480
98344SOL    HW296930   0.339   0.776  10.581
98345SOL     OW96931  13.687  12.305   1.498
98345SOL    HW196932  13.740  12.298   1.419
98345SOL    HW296933  13.698  12.396   1.526
98346SOL     OW96934   3.581   3.299  12.651
98346SOL    HW196935   3.643   3.251  12.705
98346SOL    HW296936   3.507   3.239  12.641
98347SOL     OW96937   9.741  11.065   6.172
98347SOL    HW196938   9.711  10.988   6.222
98347SOL    HW296939   9.805  11.107   6.229
98348SOL     OW96940  10.708   8.740   9.028
98348SOL    HW196941  10.685   8.649   9.050
98348SOL    HW296942  10.803   8.737   9.016
98349SOL     OW96943   9.840  12.972   3.272
98349SOL    HW196944   9.920  13.024   3.270
98349SOL    HW296945   9.860  12.895   3.219
98350SOL     OW96946  13.097   7.668  12.533
98350SOL    HW196947  13.100   7.582  12.574
98350SOL    HW296948  13.184   7.706  12.549
98351SOL     OW96949  11.655   6.748  12.898
98351SOL    HW196950  11.695   6.672  12.855
98351SOL    HW296951  11.700   6.754  12.983
98352SOL     OW96952  13.254   2.442   1.669
98352SOL    HW196953  13.243   2.449   1.764
98352SOL    HW296954  13.171   2.474   1.633
98353SOL     OW96955  14.251  11.231   9.329
98353SOL    HW196956  14.172  11.213   9.379
98353SOL    HW296957  14.290  11.308   9.371
98354SOL     OW96958   3.533   6.364  12.572
98354SOL    HW196959   3.534   6.386  12.665
98354SOL    HW296960   3.450   6.398  12.540
98355SOL     OW96961  14.431   3.076   5.441
98355SOL    HW196962  14.423   3.021   5.362
98355SOL    HW296963  14.449   3.014   5.511
98356SOL     OW96964  11.036   3.174   6.570
98356SOL    HW196965  11.058   3.208   6.657
98356SOL    HW296966  11.075   3.087   6.568
98357SOL     OW96967   0.478   4.503  12.804
98357SOL    HW196968   0.411   4.522  12.738
98357SOL    HW296969   0.428   4.478  12.882
98358SOL     OW96970   5.001   3.673   0.978
98358SOL    HW196971   5.055   3.668   0.899
98358SOL    HW296972   5.064   3.669   1.050
98359SOL     OW96973   5.293  10.455   9.248
98359SOL    HW196974   5.379  10.463   9.290
98359SOL    HW296975   5.303  10.503   9.165
98360SOL     OW96976  12.395   8.983   5.920
98360SOL    HW196977  12.443   8.986   5.837
98360SOL    HW296978  12.356   8.895   5.921
98361SOL     OW96979   4.219   5.912   3.290
98361SOL    HW196980   4.152   5.843   3.292
98361SOL    HW296981   4.287   5.877   3.233
98362SOL     OW96982   5.968   0.985   6.339
98362SOL    HW196983   5.909   0.924   6.383
98362SOL    HW296984   5.966   0.958   6.247
98363SOL     OW96985  14.829   7.759   9.176
98363SOL    HW196986   0.051   7.739   9.160
98363SOL    HW296987  14.830   7.814   9.255
98364SOL     OW96988   9.870   9.572  10.781
98364SOL    HW196989   9.863   9.476  10.786
98364SOL    HW296990   9.800   9.604  10.838
98365SOL     OW96991  12.252  11.262   6.294
98365SOL    HW196992  12.229  11.355   6.288
98365SOL    HW296993  12.318  11.259   6.364
98366SOL     OW96994   9.633   3.954   1.870
98366SOL    HW196995   9.649   3.929   1.779
98366SOL    HW296996   9.717   3.942   1.914
98367SOL     OW96997   6.646   7.095   8.811
98367SOL    HW196998   6.680   7.185   8.819
98367SOL    HW296999   6.719   7.045   8.775
98368SOL     OW97000   6.076  10.890  12.725
98368SOL    HW197001   6.060  10.975  12.684
98368SOL    HW297002   5.989  10.852  12.736
98369SOL     OW97003  13.932   6.412   4.058
98369SOL    HW197004  13.969   6.482   4.112
98369SOL    HW297005  13.999   6.344   4.059
98370SOL     OW97006  12.594   9.297  13.672
98370SOL    HW197007  12.652   9.281  13.598
98370SOL    HW297008  12.602   9.219  13.727
98371SOL     OW97009  10.663   6.078   1.884
98371SOL    HW197010  10.733   6.125   1.839
98371SOL    HW297011  10.646   6.001   1.829
98372SOL     OW97012  11.522   1.923   8.212
98372SOL    HW197013  11.438   1.879   8.199
98372SOL    HW297014  11.585   1.851   8.221
98373SOL     OW97015   7.075   9.088   7.749
98373SOL    HW197016   7.114   9.115   7.666
98373SOL    HW297017   6.994   9.043   7.723
98374SOL     OW97018   8.818   3.165   7.312
98374SOL    HW197019   8.748   3.101   7.322
98374SOL    HW297020   8.798   3.232   7.378
98375SOL     OW97021   8.332   0.250   5.973
98375SOL    HW197022   8.408   0.270   6.028
98375SOL    HW297023   8.351   0.291   5.889
98376SOL     OW97024   1.952   8.485  13.584
98376SOL    HW197025   1.908   8.408  13.620
98376SOL    HW297026   1.974   8.538  13.660
98377SOL     OW97027   5.576   6.647   6.271
98377SOL    HW197028   5.667   6.642   6.244
98377SOL    HW297029   5.529   6.673   6.192
98378SOL     OW97030  11.930  13.658   5.804
98378SOL    HW197031  11.873  13.605   5.860
98378SOL    HW297032  12.018  13.626   5.823
98379SOL     OW97033  11.630   5.050   7.903
98379SOL    HW197034  11.589   5.121   7.853
98379SOL    HW297035  11.607   4.970   7.855
98380SOL     OW97036   9.877   1.226   0.321
98380SOL    HW197037   9.890   1.256   0.231
98380SOL    HW297038   9.873   1.306   0.373
98381SOL     OW97039   4.268   4.779   2.356
98381SOL    HW197040   4.312   4.695   2.368
98381SOL    HW297041   4.240   4.780   2.265
98382SOL     OW97042   8.177   3.875   3.108
98382SOL    HW197043   8.266   3.906   3.096
98382SOL    HW297044   8.149   3.848   3.020
98383SOL     OW97045  10.898   1.915   5.152
98383SOL    HW197046  10.874   1.952   5.067
98383SOL    HW297047  10.847   1.965   5.216
98384SOL     OW97048   5.329  14.207  13.674
98384SOL    HW197049   5.298  14.172  13.591
98384SOL    HW297050   5.419  14.235  13.656
98385SOL     OW97051   4.474  14.272   6.291
98385SOL    HW197052   4.539  14.260   6.221
98385SOL    HW297053   4.433  14.356   6.271
98386SOL     OW97054  12.747  13.289   1.609
98386SOL    HW197055  12.839  13.315   1.613
98386SOL    HW297056  12.715  13.328   1.527
98387SOL     OW97057   4.116   0.587   7.466
98387SOL    HW197058   4.064   0.665   7.487
98387SOL    HW297059   4.148   0.603   7.377
98388SOL     OW97060   2.165   0.772   2.434
98388SOL    HW197061   2.161   0.680   2.460
98388SOL    HW297062   2.204   0.817   2.509
98389SOL     OW97063   7.426  10.306   3.413
98389SOL    HW197064   7.516  10.278   3.431
98389SOL    HW297065   7.435  10.395   3.379
98390SOL     OW97066  11.840   4.226   9.412
98390SOL    HW197067  11.759   4.274   9.394
98390SOL    HW297068  11.821   4.173   9.489
98391SOL     OW97069   1.814   9.122   1.039
98391SOL    HW197070   1.813   9.027   1.051
98391SOL    HW297071   1.737   9.140   0.986
98392SOL     OW97072   4.326  12.195  12.549
98392SOL    HW197073   4.421  12.180  12.544
98392SOL    HW297074   4.305  12.189  12.642
98393SOL     OW97075   2.782   6.781   0.328
98393SOL    HW197076   2.756   6.868   0.299
98393SOL    HW297077   2.703   6.728   0.319
98394SOL     OW97078  10.832   3.342  12.402
98394SOL    HW197079  10.759   3.371  12.347
98394SOL    HW297080  10.830   3.402  12.476
98395SOL     OW97081   9.838   0.645  12.592
98395SOL    HW197082   9.796   0.573  12.545
98395SOL    HW297083   9.909   0.673  12.535
98396SOL     OW97084   2.116  12.820   4.362
98396SOL    HW197085   2.146  12.858   4.280
98396SOL    HW297086   2.153  12.732   4.363
98397SOL     OW97087  11.418   8.808   0.981
98397SOL    HW197088  11.470   8.732   0.955
98397SOL    HW297089  11.471   8.883   0.956
98398SOL     OW97090   9.273  10.847  13.278
98398SOL    HW197091   9.297  10.939  13.288
98398SOL    HW297092   9.276  10.812  13.367
98399SOL     OW97093  13.325  13.767   4.046
98399SOL    HW197094  13.314  13.826   3.971
98399SOL    HW297095  13.408  13.722   4.029
98400SOL     OW97096  10.634  12.861   9.838
98400SOL    HW197097  10.619  12.949   9.875
98400SOL    HW297098  10.568  12.852   9.770
98401SOL     OW97099  11.490   8.167   1.400
98401SOL    HW197100  11.537   8.096   1.356
98401SOL    HW297101  11.549   8.242   1.395
98402SOL     OW97102  14.798   6.798   5.255
98402SOL    HW197103  14.803   6.892   5.272
98402SOL    HW297104  14.834   6.758   5.334
98403SOL     OW97105   0.364   4.116   1.691
98403SOL    HW197106   0.422   4.050   1.729
98403SOL    HW297107   0.423   4.185   1.660
98404SOL     OW97108   9.962   1.782  11.678
98404SOL    HW197109   9.969   1.834  11.758
98404SOL    HW297110   9.907   1.834  11.620
98405SOL     OW97111  12.647   3.121  10.045
98405SOL    HW197112  12.576   3.064  10.076
98405SOL    HW297113  12.624   3.140   9.954
98406SOL     OW97114  11.528   0.393   4.014
98406SOL    HW197115  11.490   0.472   3.975
98406SOL    HW297116  11.461   0.326   4.003
98407SOL     OW97117  13.495  13.778   7.632
98407SOL    HW197118  13.578  13.786   7.585
98407SOL    HW297119  13.473  13.685   7.628
98408SOL     OW97120   2.940   1.172  14.836
98408SOL    HW197121   2.941   1.077  14.840
98408SOL    HW297122   2.910   1.200   0.052
98409SOL     OW97123   9.124   7.320   7.933
98409SOL    HW197124   9.046   7.309   7.878
98409SOL    HW297125   9.095   7.374   8.006
98410SOL     OW97126  13.360   1.307   6.915
98410SOL    HW197127  13.356   1.313   7.010
98410SOL    HW297128  13.286   1.359   6.884
98411SOL     OW97129   8.295   7.337   5.165
98411SOL    HW197130   8.390   7.338   5.156
98411SOL    HW297131   8.265   7.405   5.105
98412SOL     OW97132   2.859   3.753  12.679
98412SOL    HW197133   2.863   3.848  12.682
98412SOL    HW297134   2.856   3.732  12.585
98413SOL     OW97135   1.062  11.578  10.086
98413SOL    HW197136   1.126  11.548  10.022
98413SOL    HW297137   1.000  11.630  10.035
98414SOL     OW97138  13.117  12.853  11.860
98414SOL    HW197139  13.197  12.902  11.880
98414SOL    HW297140  13.047  12.917  11.865
98415SOL     OW97141   9.382   6.916   4.774
98415SOL    HW197142   9.304   6.922   4.829
98415SOL    HW297143   9.379   6.994   4.719
98416SOL     OW97144   8.923   5.712   9.868
98416SOL    HW197145   8.907   5.783   9.930
98416SOL    HW297146   9.011   5.681   9.889
98417SOL     OW97147  13.976   7.760  13.126
98417SOL    HW197148  13.957   7.753  13.032
98417SOL    HW297149  14.046   7.696  13.141
98418SOL     OW97150   9.913   1.917   5.631
98418SOL    HW197151   9.958   1.969   5.698
98418SOL    HW297152   9.823   1.910   5.662
98419SOL     OW97153   1.461   3.591   1.408
98419SOL    HW197154   1.509   3.660   1.362
98419SOL    HW297155   1.500   3.589   1.495
98420SOL     OW97156   1.685   7.890   8.786
98420SOL    HW197157   1.737   7.950   8.839
98420SOL    HW297158   1.673   7.813   8.842
98421SOL     OW97159   9.432  12.919   9.645
98421SOL    HW197160   9.364  12.885   9.702
98421SOL    HW297161   9.412  13.012   9.636
98422SOL     OW97162  10.613   3.351   0.808
98422SOL    HW197163  10.667   3.274   0.823
98422SOL    HW297164  10.586   3.380   0.895
98423SOL     OW97165   8.823   8.350   3.398
98423SOL    HW197166   8.820   8.431   3.448
98423SOL    HW297167   8.780   8.370   3.316
98424SOL     OW97168  14.055  12.776   0.932
98424SOL    HW197169  14.097  12.857   0.902
98424SOL    HW297170  14.093  12.707   0.877
98425SOL     OW97171   4.361  11.458  13.782
98425SOL    HW197172   4.390  11.416  13.701
98425SOL    HW297173   4.417  11.419  13.850
98426SOL     OW97174  14.150   3.387   4.590
98426SOL    HW197175  14.188   3.374   4.677
98426SOL    HW297176  14.214   3.442   4.544
98427SOL     OW97177   2.970  13.662   7.423
98427SOL    HW197178   2.896  13.642   7.366
98427SOL    HW297179   3.040  13.689   7.364
98428SOL     OW97180  13.589  10.630   8.371
98428SOL    HW197181  13.666  10.681   8.349
98428SOL    HW297182  13.529  10.693   8.411
98429SOL     OW97183  11.412   6.474   4.035
98429SOL    HW197184  11.382   6.462   3.945
98429SOL    HW297185  11.348   6.428   4.089
98430SOL     OW97186   0.893  11.624   1.876
98430SOL    HW197187   0.826  11.659   1.817
98430SOL    HW297188   0.924  11.701   1.925
98431SOL     OW97189   2.673   9.108   7.858
98431SOL    HW197190   2.631   9.023   7.872
98431SOL    HW297191   2.717   9.099   7.774
98432SOL     OW97192   6.121   7.435   2.079
98432SOL    HW197193   6.106   7.513   2.027
98432SOL    HW297194   6.038   7.388   2.079
98433SOL     OW97195  13.191   9.807   5.043
98433SOL    HW197196  13.155   9.892   5.067
98433SOL    HW297197  13.269   9.828   4.991
98434SOL     OW97198  14.003  13.486  13.650
98434SOL    HW197199  13.985  13.465  13.742
98434SOL    HW297200  13.982  13.579  13.642
98435SOL     OW97201   0.005   1.914   5.581
98435SOL    HW197202   0.069   1.958   5.637
98435SOL    HW297203  14.793   1.961   5.595
98436SOL     OW97204   7.958   2.922   9.443
98436SOL    HW197205   7.992   2.836   9.420
98436SOL    HW297206   7.997   2.981   9.378
98437SOL     OW97207   5.539   0.410   0.699
98437SOL    HW197208   5.597   0.482   0.725
98437SOL    HW297209   5.564   0.390   0.609
98438SOL     OW97210   1.001   6.509   8.419
98438SOL    HW197211   0.918   6.503   8.465
98438SOL    HW297212   1.049   6.430   8.446
98439SOL     OW97213  13.589   3.079  13.623
98439SOL    HW197214  13.546   3.046  13.544
98439SOL    HW297215  13.682   3.071  13.605
98440SOL     OW97216   0.581   7.227   3.887
98440SOL    HW197217   0.496   7.271   3.893
98440SOL    HW297218   0.611   7.245   3.798
98441SOL     OW97219   7.532  11.359  13.632
98441SOL    HW197220   7.456  11.367  13.575
98441SOL    HW297221   7.542  11.265  13.646
98442SOL     OW97222   2.024   7.830   7.291
98442SOL    HW197223   2.084   7.903   7.277
98442SOL    HW297224   2.022   7.784   7.207
98443SOL     OW97225   6.611  10.835  12.018
98443SOL    HW197226   6.575  10.847  11.930
98443SOL    HW297227   6.570  10.903  12.071
98444SOL     OW97228   1.276   2.783   6.211
98444SOL    HW197229   1.267   2.739   6.295
98444SOL    HW297230   1.208   2.744   6.156
98445SOL     OW97231   1.290  12.647   2.759
98445SOL    HW197232   1.351  12.708   2.800
98445SOL    HW297233   1.343  12.598   2.696
98446SOL     OW97234  10.044  10.411  13.035
98446SOL    HW197235  10.081  10.324  13.024
98446SOL    HW297236  10.098  10.467  12.979
98447SOL     OW97237   9.746   5.594  14.210
98447SOL    HW197238   9.710   5.644  14.283
98447SOL    HW297239   9.820   5.646  14.178
98448SOL     OW97240   9.183  14.575   8.025
98448SOL    HW197241   9.262  14.626   8.013
98448SOL    HW297242   9.143  14.609   8.105
98449SOL     OW97243   7.548   2.027   5.660
98449SOL    HW197244   7.602   2.088   5.710
98449SOL    HW297245   7.459   2.060   5.670
98450SOL     OW97246  11.308   0.293   6.771
98450SOL    HW197247  11.307   0.363   6.836
98450SOL    HW297248  11.350   0.219   6.816
98451SOL     OW97249   9.566   3.759   6.706
98451SOL    HW197250   9.539   3.777   6.615
98451SOL    HW297251   9.661   3.750   6.701
98452SOL     OW97252  11.262  12.804   7.632
98452SOL    HW197253  11.262  12.790   7.726
98452SOL    HW297254  11.170  12.792   7.606
98453SOL     OW97255   7.936   3.871   6.226
98453SOL    HW197256   7.949   3.776   6.219
98453SOL    HW297257   8.018   3.909   6.196
98454SOL     OW97258   0.949  12.587   3.499
98454SOL    HW197259   1.001  12.662   3.468
98454SOL    HW297260   0.929  12.608   3.590
98455SOL     OW97261   3.669  10.534   1.072
98455SOL    HW197262   3.685  10.563   0.983
98455SOL    HW297263   3.593  10.475   1.065
98456SOL     OW97264   6.696   3.445  10.136
98456SOL    HW197265   6.777   3.400  10.112
98456SOL    HW297266   6.722   3.537  10.146
98457SOL     OW97267   8.977  14.847  11.316
98457SOL    HW197268   8.913  14.813  11.253
98457SOL    HW297269   8.926   0.034  11.373
98458SOL     OW97270  12.503   5.792   6.706
98458SOL    HW197271  12.437   5.741   6.754
98458SOL    HW297272  12.576   5.799   6.767
98459SOL     OW97273   2.172   0.944  13.051
98459SOL    HW197274   2.089   0.898  13.059
98459SOL    HW297275   2.181   0.991  13.134
98460SOL     OW97276  11.448  11.401   6.994
98460SOL    HW197277  11.525  11.362   7.037
98460SOL    HW297278  11.386  11.328   6.987
98461SOL     OW97279   3.314  14.174   0.514
98461SOL    HW197280   3.251  14.180   0.442
98461SOL    HW297281   3.385  14.234   0.488
98462SOL     OW97282   5.103   2.750  14.640
98462SOL    HW197283   5.164   2.792  14.702
98462SOL    HW297284   5.160   2.717  14.571
98463SOL     OW97285   3.916   8.145   0.857
98463SOL    HW197286   3.976   8.108   0.921
98463SOL    HW297287   3.958   8.227   0.829
98464SOL     OW97288   2.624  11.875  10.408
98464SOL    HW197289   2.567  11.952  10.408
98464SOL    HW297290   2.621  11.842  10.318
98465SOL     OW97291  14.813   7.897   2.356
98465SOL    HW197292  14.799   7.888   2.262
98465SOL    HW297293  14.839   7.988   2.368
98466SOL     OW97294  10.672   6.580   4.085
98466SOL    HW197295  10.638   6.636   4.016
98466SOL    HW297296  10.740   6.527   4.043
98467SOL     OW97297   7.753   2.178   8.158
98467SOL    HW197298   7.746   2.170   8.062
98467SOL    HW297299   7.679   2.129   8.192
98468SOL     OW97300   7.110   2.947   2.652
98468SOL    HW197301   7.065   2.898   2.583
98468SOL    HW297302   7.192   2.975   2.611
98469SOL     OW97303   6.012   2.562   0.727
98469SOL    HW197304   6.029   2.532   0.637
98469SOL    HW297305   6.000   2.481   0.777
98470SOL     OW97306   6.786  12.373   7.224
98470SOL    HW197307   6.869  12.402   7.262
98470SOL    HW297308   6.719  12.418   7.275
98471SOL     OW97309   4.931   7.021  11.646
98471SOL    HW197310   4.844   7.032  11.685
98471SOL    HW297311   4.990   7.012  11.721
98472SOL     OW97312  12.589   5.381   4.502
98472SOL    HW197313  12.586   5.473   4.528
98472SOL    HW297314  12.560   5.380   4.411
98473SOL     OW97315   9.987  11.780   6.312
98473SOL    HW197316  10.049  11.844   6.347
98473SOL    HW297317   9.915  11.779   6.375
98474SOL     OW97318   8.906   6.695  11.046
98474SOL    HW197319   8.911   6.656  10.959
98474SOL    HW297320   8.821   6.666  11.081
98475SOL     OW97321   5.964   6.540   5.105
98475SOL    HW197322   6.027   6.609   5.084
98475SOL    HW297323   5.894   6.551   5.041
98476SOL     OW97324   0.773   6.139   3.527
98476SOL    HW197325   0.857   6.128   3.483
98476SOL    HW297326   0.733   6.215   3.484
98477SOL     OW97327   5.726  13.742   8.165
98477SOL    HW197328   5.702  13.693   8.087
98477SOL    HW297329   5.795  13.802   8.135
98478SOL     OW97330  14.468   9.528  13.365
98478SOL    HW197331  14.472   9.470  13.441
98478SOL    HW297332  14.502   9.612  13.396
98479SOL     OW97333   0.215  14.860  11.980
98479SOL    HW197334   0.291   0.008  12.034
98479SOL    HW297335   0.246  14.869  11.890
98480SOL     OW97336   2.980  11.702   8.207
98480SOL    HW197337   2.919  11.713   8.279
98480SOL    HW297338   2.938  11.638   8.149
98481SOL     OW97339   9.592  10.615  13.557
98481SOL    HW197340   9.618  10.522  13.551
98481SOL    HW297341   9.617  10.641  13.646
98482SOL     OW97342   4.697  14.222  11.469
98482SOL    HW197343   4.716  14.257  11.382
98482SOL    HW297344   4.728  14.132  11.467
98483SOL     OW97345   8.260   6.190   5.362
98483SOL    HW197346   8.337   6.184   5.305
98483SOL    HW297347   8.207   6.259   5.323
98484SOL     OW97348  10.558   9.435   1.844
98484SOL    HW197349  10.504   9.418   1.768
98484SOL    HW297350  10.564   9.350   1.889
98485SOL     OW97351  12.306  14.538   7.761
98485SOL    HW197352  12.327  14.470   7.697
98485SOL    HW297353  12.217  14.566   7.737
98486SOL     OW97354  14.060   0.821   9.698
98486SOL    HW197355  14.075   0.892   9.636
98486SOL    HW297356  14.028   0.748   9.645
98487SOL     OW97357   0.072   2.212  11.997
98487SOL    HW197358   0.121   2.206  11.915
98487SOL    HW297359   0.132   2.253  12.058
98488SOL     OW97360   7.695   7.971   9.559
98488SOL    HW197361   7.776   7.930   9.529
98488SOL    HW297362   7.629   7.944   9.494
98489SOL     OW97363   2.497   3.675  14.762
98489SOL    HW197364   2.474   3.582  14.759
98489SOL    HW297365   2.499   3.695  14.856
98490SOL     OW97366   2.972   1.905  12.790
98490SOL    HW197367   2.880   1.901  12.763
98490SOL    HW297368   3.011   1.826  12.754
98491SOL     OW97369   0.651   5.301   2.428
98491SOL    HW197370   0.619   5.279   2.515
98491SOL    HW297371   0.607   5.383   2.406
98492SOL     OW97372   9.447  13.879  14.285
98492SOL    HW197373   9.490  13.816  14.343
98492SOL    HW297374   9.464  13.964  14.325
98493SOL     OW97375   5.997   9.864   0.626
98493SOL    HW197376   5.989   9.817   0.709
98493SOL    HW297377   5.971   9.800   0.560
98494SOL     OW97378  11.753   0.783   7.700
98494SOL    HW197379  11.699   0.839   7.645
98494SOL    HW297380  11.774   0.708   7.644
98495SOL     OW97381   5.683   6.040   4.900
98495SOL    HW197382   5.746   6.087   4.955
98495SOL    HW297383   5.642   5.977   4.958
98496SOL     OW97384  10.021   9.748   1.676
98496SOL    HW197385   9.991   9.658   1.661
98496SOL    HW297386  10.112   9.738   1.705
98497SOL     OW97387  10.544   6.359  12.975
98497SOL    HW197388  10.518   6.411  13.051
98497SOL    HW297389  10.636   6.338  12.990
98498SOL     OW97390  12.695   5.923   8.109
98498SOL    HW197391  12.766   5.942   8.047
98498SOL    HW297392  12.709   5.983   8.182
98499SOL     OW97393   4.210   2.743   4.719
98499SOL    HW197394   4.253   2.672   4.671
98499SOL    HW297395   4.122   2.748   4.681
98500SOL     OW97396  11.685   0.567   3.272
98500SOL    HW197397  11.615   0.569   3.337
98500SOL    HW297398  11.650   0.613   3.197
98501SOL     OW97399   3.850   6.910  14.666
98501SOL    HW197400   3.895   6.830  14.694
98501SOL    HW297401   3.758   6.894  14.685
98502SOL     OW97402   1.964  14.843   5.026
98502SOL    HW197403   1.968   0.051   4.970
98502SOL    HW297404   1.881  14.852   5.073
98503SOL     OW97405  12.349   1.526  11.757
98503SOL    HW197406  12.403   1.528  11.678
98503SOL    HW297407  12.404   1.483  11.822
98504SOL     OW97408   4.271  10.996   3.973
98504SOL    HW197409   4.282  10.915   3.923
98504SOL    HW297410   4.359  11.033   3.977
98505SOL     OW97411   6.553   2.410   4.071
98505SOL    HW197412   6.624   2.375   4.018
98505SOL    HW297413   6.487   2.341   4.071
98506SOL     OW97414  14.617   0.788   9.215
98506SOL    HW197415  14.634   0.696   9.197
98506SOL    HW297416  14.538   0.788   9.270
98507SOL     OW97417   0.676   0.804  10.499
98507SOL    HW197418   0.653   0.860  10.425
98507SOL    HW297419   0.771   0.795  10.493
98508SOL     OW97420  12.966   2.586   2.207
98508SOL    HW197421  12.887   2.621   2.248
98508SOL    HW297422  12.955   2.604   2.114
98509SOL     OW97423   7.251   4.572   9.134
98509SOL    HW197424   7.344   4.553   9.146
98509SOL    HW297425   7.215   4.569   9.222
98510SOL     OW97426  13.885  10.201  12.479
98510SOL    HW197427  13.892  10.207  12.574
98510SOL    HW297428  13.809  10.146  12.464
98511SOL     OW97429  10.013   9.812   7.236
98511SOL    HW197430   9.919   9.803   7.252
98511SOL    HW297431  10.027   9.774   7.149
98512SOL     OW97432  12.512  11.285   2.649
98512SOL    HW197433  12.511  11.234   2.730
98512SOL    HW297434  12.435  11.255   2.601
98513SOL     OW97435  13.363  13.432  13.282
98513SOL    HW197436  13.309  13.372  13.334
98513SOL    HW297437  13.419  13.376  13.230
98514SOL     OW97438  10.748   0.907  11.377
98514SOL    HW197439  10.725   0.834  11.434
98514SOL    HW297440  10.690   0.898  11.301
98515SOL     OW97441   3.978  10.878   1.424
98515SOL    HW197442   3.888  10.854   1.444
98515SOL    HW297443   3.994  10.841   1.337
98516SOL     OW97444   5.303  12.537  11.542
98516SOL    HW197445   5.217  12.511  11.511
98516SOL    HW297446   5.303  12.515  11.635
98517SOL     OW97447   0.286  11.671   8.047
98517SOL    HW197448   0.326  11.750   8.011
98517SOL    HW297449   0.327  11.599   7.999
98518SOL     OW97450   1.675  13.152  10.320
98518SOL    HW197451   1.689  13.105  10.402
98518SOL    HW297452   1.697  13.090  10.252
98519SOL     OW97453  14.757   2.143   5.207
98519SOL    HW197454  14.675   2.190   5.196
98519SOL    HW297455  14.815   2.181   5.141
98520SOL     OW97456   7.117   1.703  11.789
98520SOL    HW197457   7.135   1.758  11.712
98520SOL    HW297458   7.204   1.678  11.820
98521SOL     OW97459   5.777   8.088  13.804
98521SOL    HW197460   5.775   8.005  13.756
98521SOL    HW297461   5.752   8.154  13.739
98522SOL     OW97462  10.104   2.779   7.725
98522SOL    HW197463  10.062   2.795   7.640
98522SOL    HW297464  10.099   2.864   7.770
98523SOL     OW97465   8.487   0.913   9.085
98523SOL    HW197466   8.486   1.000   9.126
98523SOL    HW297467   8.395   0.892   9.073
98524SOL     OW97468   2.009  13.323  13.153
98524SOL    HW197469   1.987  13.257  13.088
98524SOL    HW297470   2.088  13.290  13.196
98525SOL     OW97471   8.776  12.445  10.838
98525SOL    HW197472   8.743  12.524  10.794
98525SOL    HW297473   8.759  12.461  10.931
98526SOL     OW97474   6.265   0.232  14.390
98526SOL    HW197475   6.335   0.288  14.357
98526SOL    HW297476   6.246   0.171  14.318
98527SOL     OW97477   8.742  10.008  11.442
98527SOL    HW197478   8.689   9.975  11.369
98527SOL    HW297479   8.680  10.060  11.494
98528SOL     OW97480   6.916   9.603   6.331
98528SOL    HW197481   6.860   9.617   6.407
98528SOL    HW297482   6.995   9.655   6.349
98529SOL     OW97483   9.006  11.234  11.065
98529SOL    HW197484   8.983  11.278  10.983
98529SOL    HW297485   8.957  11.152  11.063
98530SOL     OW97486   8.374  12.733  14.021
98530SOL    HW197487   8.314  12.702  14.088
98530SOL    HW297488   8.446  12.774  14.070
98531SOL     OW97489  10.690   0.010   3.836
98531SOL    HW197490  10.656   0.098   3.825
98531SOL    HW297491  10.709  14.849   3.747
98532SOL     OW97492   7.285  13.314  11.654
98532SOL    HW197493   7.213  13.366  11.620
98532SOL    HW297494   7.287  13.334  11.748
98533SOL     OW97495  14.357  10.915  13.452
98533SOL    HW197496  14.325  10.899  13.541
98533SOL    HW297497  14.332  10.837  13.404
98534SOL     OW97498   7.253   9.779   0.636
98534SOL    HW197499   7.159   9.768   0.649
98534SOL    HW297500   7.260   9.851   0.573
98535SOL     OW97501   3.233   4.603  12.153
98535SOL    HW197502   3.271   4.601  12.241
98535SOL    HW297503   3.151   4.651  12.163
98536SOL     OW97504   3.567   9.958  11.812
98536SOL    HW197505   3.552   9.865  11.831
98536SOL    HW297506   3.649   9.979  11.857
98537SOL     OW97507  10.439   4.128  14.774
98537SOL    HW197508  10.344   4.126  14.782
98537SOL    HW297509  10.455   4.166  14.688
98538SOL     OW97510  11.503   9.581   1.003
98538SOL    HW197511  11.588   9.613   0.971
98538SOL    HW297512  11.443   9.655   0.989
98539SOL     OW97513   4.088   7.446   6.901
98539SOL    HW197514   4.161   7.468   6.843
98539SOL    HW297515   4.046   7.371   6.858
98540SOL     OW97516   6.602   4.120   8.486
98540SOL    HW197517   6.629   4.113   8.578
98540SOL    HW297518   6.527   4.061   8.479
98541SOL     OW97519  13.214   9.175   1.181
98541SOL    HW197520  13.217   9.121   1.102
98541SOL    HW297521  13.188   9.262   1.150
98542SOL     OW97522   5.046   7.465   2.732
98542SOL    HW197523   5.065   7.440   2.642
98542SOL    HW297524   5.132   7.483   2.770
98543SOL     OW97525  14.514   9.419   5.091
98543SOL    HW197526  14.561   9.476   5.153
98543SOL    HW297527  14.572   9.343   5.081
98544SOL     OW97528   5.149   7.522   9.584
98544SOL    HW197529   5.241   7.546   9.572
98544SOL    HW297530   5.151   7.449   9.646
98545SOL     OW97531   2.885   7.833  12.094
98545SOL    HW197532   2.877   7.867  12.182
98545SOL    HW297533   2.974   7.798  12.089
98546SOL     OW97534   3.560   9.497   5.068
98546SOL    HW197535   3.571   9.530   5.156
98546SOL    HW297536   3.637   9.529   5.020
98547SOL     OW97537   5.130  12.072   3.265
98547SOL    HW197538   5.222  12.097   3.275
98547SOL    HW297539   5.127  12.022   3.183
98548SOL     OW97540  12.508  10.410   2.372
98548SOL    HW197541  12.484  10.320   2.394
98548SOL    HW297542  12.520  10.409   2.277
98549SOL     OW97543  11.934  14.855   2.601
98549SOL    HW197544  11.922  14.775   2.654
98549SOL    HW297545  12.021   0.016   2.623
98550SOL     OW97546   3.520   9.921   5.729
98550SOL    HW197547   3.448   9.870   5.765
98550SOL    HW297548   3.585   9.855   5.702
98551SOL     OW97549   4.533  14.223   3.251
98551SOL    HW197550   4.507  14.270   3.330
98551SOL    HW297551   4.579  14.288   3.198
98552SOL     OW97552  12.544   9.031  13.830
98552SOL    HW197553  12.583   9.048  13.917
98552SOL    HW297554  12.493   8.951  13.842
98553SOL     OW97555   8.674  13.526  10.112
98553SOL    HW197556   8.593  13.525  10.062
98553SOL    HW297557   8.649  13.559  10.198
98554SOL     OW97558   9.925   5.700   9.248
98554SOL    HW197559   9.836   5.680   9.277
98554SOL    HW297560   9.952   5.622   9.200
98555SOL     OW97561   5.140   4.576   2.937
98555SOL    HW197562   5.160   4.522   3.014
98555SOL    HW297563   5.226   4.595   2.899
98556SOL     OW97564   4.208   8.480   1.684
98556SOL    HW197565   4.283   8.539   1.678
98556SOL    HW297566   4.241   8.395   1.656
98557SOL     OW97567   6.383   9.979   6.560
98557SOL    HW197568   6.383  10.057   6.505
98557SOL    HW297569   6.344  10.007   6.642
98558SOL     OW97570   4.130   0.743   9.863
98558SOL    HW197571   4.198   0.714   9.923
98558SOL    HW297572   4.124   0.674   9.797
98559SOL     OW97573   5.546   7.768   8.939
98559SOL    HW197574   5.554   7.803   8.851
98559SOL    HW297575   5.509   7.841   8.990
98560SOL     OW97576   0.169   3.785   7.674
98560SOL    HW197577   0.198   3.696   7.695
98560SOL    HW297578   0.226   3.811   7.601
98561SOL     OW97579  14.652  14.361   0.530
98561SOL    HW197580  14.607  14.277   0.519
98561SOL    HW297581  14.608  14.401   0.605
98562SOL     OW97582  10.111   4.727   9.543
98562SOL    HW197583  10.065   4.751   9.463
98562SOL    HW297584  10.064   4.650   9.575
98563SOL     OW97585   9.020  12.803   2.330
98563SOL    HW197586   9.063  12.864   2.388
98563SOL    HW297587   9.085  12.786   2.261
98564SOL     OW97588   4.138   9.985  11.137
98564SOL    HW197589   4.117  10.027  11.053
98564SOL    HW297590   4.204   9.919  11.115
98565SOL     OW97591  11.440  12.077   8.870
98565SOL    HW197592  11.389  12.127   8.807
98565SOL    HW297593  11.480  12.007   8.817
98566SOL     OW97594   3.535   3.109   8.445
98566SOL    HW197595   3.577   3.046   8.504
98566SOL    HW297596   3.441   3.095   8.458
98567SOL     OW97597   7.001  13.619  10.787
98567SOL    HW197598   6.948  13.540  10.787
98567SOL    HW297599   6.955  13.679  10.846
98568SOL     OW97600   7.622   2.722   2.615
98568SOL    HW197601   7.585   2.633   2.616
98568SOL    HW297602   7.580   2.764   2.540
98569SOL     OW97603   9.707   2.379  12.879
98569SOL    HW197604   9.711   2.474  12.873
98569SOL    HW297605   9.674   2.351  12.793
98570SOL     OW97606   1.654   7.924  11.521
98570SOL    HW197607   1.638   8.018  11.512
98570SOL    HW297608   1.684   7.896  11.435
98571SOL     OW97609   7.199  10.076   9.079
98571SOL    HW197610   7.223  10.134   9.151
98571SOL    HW297611   7.237   9.991   9.102
98572SOL     OW97612  10.820   0.409   8.299
98572SOL    HW197613  10.860   0.362   8.373
98572SOL    HW297614  10.835   0.501   8.320
98573SOL     OW97615   5.401  11.364   0.643
98573SOL    HW197616   5.395  11.291   0.581
98573SOL    HW297617   5.467  11.421   0.605
98574SOL     OW97618  14.597   8.008  13.684
98574SOL    HW197619  14.584   7.914  13.694
98574SOL    HW297620  14.631   8.036  13.769
98575SOL     OW97621   4.221   0.589   0.734
98575SOL    HW197622   4.251   0.573   0.823
98575SOL    HW297623   4.278   0.659   0.702
98576SOL     OW97624  11.653   2.554   6.914
98576SOL    HW197625  11.560   2.548   6.892
98576SOL    HW297626  11.654   2.572   7.008
98577SOL     OW97627   3.562   2.927   3.922
98577SOL    HW197628   3.611   2.845   3.934
98577SOL    HW297629   3.574   2.948   3.829
98578SOL     OW97630  11.598  10.543   5.638
98578SOL    HW197631  11.523  10.597   5.613
98578SOL    HW297632  11.647  10.530   5.556
98579SOL     OW97633   5.377   4.528   7.425
98579SOL    HW197634   5.282   4.532   7.435
98579SOL    HW297635   5.397   4.595   7.360
98580SOL     OW97636   3.751   8.360   6.579
98580SOL    HW197637   3.668   8.380   6.535
98580SOL    HW297638   3.782   8.280   6.536
98581SOL     OW97639   2.303   1.592  11.505
98581SOL    HW197640   2.385   1.570  11.460
98581SOL    HW297641   2.328   1.657  11.570
98582SOL     OW97642   0.550   5.515   2.834
98582SOL    HW197643   0.473   5.566   2.859
98582SOL    HW297644   0.622   5.579   2.832
98583SOL     OW97645   6.458  12.862   8.971
98583SOL    HW197646   6.549  12.888   8.986
98583SOL    HW297647   6.418  12.863   9.058
98584SOL     OW97648   8.563   0.637   8.609
98584SOL    HW197649   8.625   0.588   8.664
98584SOL    HW297650   8.536   0.711   8.663
98585SOL     OW97651   8.289   5.950  13.777
98585SOL    HW197652   8.383   5.942  13.795
98585SOL    HW297653   8.257   6.009  13.845
98586SOL     OW97654   6.715   0.050   0.033
98586SOL    HW197655   6.637   0.002   0.006
98586SOL    HW297656   6.774  14.852   0.067
98587SOL     OW97657  11.184   8.206  14.450
98587SOL    HW197658  11.137   8.198  14.367
98587SOL    HW297659  11.166   8.295  14.480
98588SOL     OW97660   4.571   8.997   4.745
98588SOL    HW197661   4.622   9.051   4.806
98588SOL    HW297662   4.481   9.028   4.756
98589SOL     OW97663   1.681   7.900   1.647
98589SOL    HW197664   1.601   7.855   1.619
98589SOL    HW297665   1.702   7.960   1.575
98590SOL     OW97666  12.366  12.873   6.130
98590SOL    HW197667  12.417  12.908   6.203
98590SOL    HW297668  12.403  12.787   6.115
98591SOL     OW97669   9.723  10.917   5.660
98591SOL    HW197670   9.731  10.870   5.744
98591SOL    HW297671   9.629  10.915   5.641
98592SOL     OW97672   0.830  11.089  14.073
98592SOL    HW197673   0.748  11.127  14.105
98592SOL    HW297674   0.803  11.013  14.022
98593SOL     OW97675   3.616  13.634   1.243
98593SOL    HW197676   3.682  13.572   1.211
98593SOL    HW297677   3.575  13.590   1.318
98594SOL     OW97678   0.820   6.703   5.269
98594SOL    HW197679   0.747   6.755   5.236
98594SOL    HW297680   0.896   6.734   5.221
98595SOL     OW97681  10.899   7.944   4.712
98595SOL    HW197682  10.846   7.997   4.772
98595SOL    HW297683  10.836   7.911   4.648
98596SOL     OW97684   0.692   3.224   5.860
98596SOL    HW197685   0.708   3.308   5.817
98596SOL    HW297686   0.773   3.206   5.908
98597SOL     OW97687  14.799   1.655   6.468
98597SOL    HW197688  14.780   1.746   6.489
98597SOL    HW297689   0.014   1.659   6.423
98598SOL     OW97690   4.066  10.373   2.081
98598SOL    HW197691   4.156  10.367   2.049
98598SOL    HW297692   4.060  10.307   2.150
98599SOL     OW97693   5.298   2.211   9.889
98599SOL    HW197694   5.253   2.207   9.973
98599SOL    HW297695   5.258   2.143   9.835
98600SOL     OW97696  12.768  13.954  12.122
98600SOL    HW197697  12.756  14.024  12.186
98600SOL    HW297698  12.752  13.996  12.038
98601SOL     OW97699  12.662   9.812   2.543
98601SOL    HW197700  12.643   9.898   2.581
98601SOL    HW297701  12.747   9.822   2.500
98602SOL     OW97702  11.588  11.419   7.258
98602SOL    HW197703  11.520  11.480   7.229
98602SOL    HW297704  11.665  11.442   7.205
98603SOL     OW97705  11.892   6.725  10.398
98603SOL    HW197706  11.956   6.771  10.345
98603SOL    HW297707  11.813   6.779  10.394
98604SOL     OW97708   9.102  14.092  11.275
98604SOL    HW197709   9.144  14.088  11.360
98604SOL    HW297710   9.136  14.172  11.235
98605SOL     OW97711   4.599  12.517   4.760
98605SOL    HW197712   4.561  12.601   4.734
98605SOL    HW297713   4.558  12.498   4.844
98606SOL     OW97714   8.125  12.821   1.934
98606SOL    HW197715   8.203  12.767   1.949
98606SOL    HW297716   8.130  12.888   2.002
98607SOL     OW97717   3.364   9.516   0.934
98607SOL    HW197718   3.398   9.461   0.864
98607SOL    HW297719   3.408   9.600   0.923
98608SOL     OW97720  12.038   6.405  11.256
98608SOL    HW197721  12.044   6.326  11.309
98608SOL    HW297722  12.089   6.470  11.304
98609SOL     OW97723   2.124  10.556   9.671
98609SOL    HW197724   2.068  10.574   9.595
98609SOL    HW297725   2.138  10.461   9.668
98610SOL     OW97726   0.902   5.401  10.275
98610SOL    HW197727   0.835   5.467  10.291
98610SOL    HW297728   0.953   5.437  10.202
98611SOL     OW97729   8.821   7.474   1.675
98611SOL    HW197730   8.857   7.479   1.763
98611SOL    HW297731   8.896   7.457   1.619
98612SOL     OW97732   6.825   9.787   4.780
98612SOL    HW197733   6.767   9.730   4.730
98612SOL    HW297734   6.888   9.728   4.820
98613SOL     OW97735   8.897  11.636   0.133
98613SOL    HW197736   8.946  11.677   0.061
98613SOL    HW297737   8.806  11.635   0.103
98614SOL     OW97738  11.055   9.238   7.033
98614SOL    HW197739  11.088   9.327   7.020
98614SOL    HW297740  10.961   9.245   7.016
98615SOL     OW97741   4.098   9.539   2.648
98615SOL    HW197742   4.106   9.634   2.643
98615SOL    HW297743   4.009   9.520   2.620
98616SOL     OW97744   8.721  13.731   3.914
98616SOL    HW197745   8.689  13.754   4.001
98616SOL    HW297746   8.648  13.685   3.873
98617SOL     OW97747   5.920   4.786   8.974
98617SOL    HW197748   6.014   4.798   8.959
98617SOL    HW297749   5.912   4.773   9.068
98618SOL     OW97750  14.048   8.027   0.372
98618SOL    HW197751  13.979   8.094   0.374
98618SOL    HW297752  14.062   8.004   0.463
98619SOL     OW97753   1.991   0.625   2.748
98619SOL    HW197754   1.922   0.586   2.802
98619SOL    HW297755   2.038   0.684   2.807
98620SOL     OW97756   6.432   8.282   1.360
98620SOL    HW197757   6.405   8.366   1.397
98620SOL    HW297758   6.481   8.305   1.281
98621SOL     OW97759   4.771  12.843   6.834
98621SOL    HW197760   4.845  12.792   6.865
98621SOL    HW297761   4.694  12.798   6.870
98622SOL     OW97762   0.071   7.954  12.742
98622SOL    HW197763   0.076   8.033  12.797
98622SOL    HW297764  14.850   7.924  12.751
98623SOL     OW97765  13.450   0.677   0.844
98623SOL    HW197766  13.424   0.696   0.934
98623SOL    HW297767  13.545   0.665   0.849
98624SOL     OW97768   8.968  10.224   4.299
98624SOL    HW197769   9.022  10.209   4.377
98624SOL    HW297770   8.893  10.166   4.309
98625SOL     OW97771   1.116  14.197   7.892
98625SOL    HW197772   1.179  14.249   7.842
98625SOL    HW297773   1.169  14.149   7.955
98626SOL     OW97774   3.909  11.971  13.453
98626SOL    HW197775   3.818  11.955  13.478
98626SOL    HW297776   3.913  12.064  13.432
98627SOL     OW97777   4.949   0.334   9.044
98627SOL    HW197778   4.874   0.291   9.004
98627SOL    HW297779   4.915   0.418   9.075
98628SOL     OW97780   1.127  13.943   9.907
98628SOL    HW197781   1.138  13.999   9.830
98628SOL    HW297782   1.212  13.945   9.951
98629SOL     OW97783   0.242  13.158  14.036
98629SOL    HW197784   0.336  13.169  14.052
98629SOL    HW297785   0.222  13.220  13.967
98630SOL     OW97786   0.281  14.721   6.636
98630SOL    HW197787   0.307  14.781   6.566
98630SOL    HW297788   0.336  14.746   6.711
98631SOL     OW97789   5.098   9.774   7.237
98631SOL    HW197790   5.179   9.724   7.249
98631SOL    HW297791   5.038   9.714   7.193
98632SOL     OW97792   7.734   3.393  13.449
98632SOL    HW197793   7.688   3.477  13.448
98632SOL    HW297794   7.668   3.329  13.421
98633SOL     OW97795  10.652  11.501   4.062
98633SOL    HW197796  10.713  11.494   4.136
98633SOL    HW297797  10.696  11.559   4.000
98634SOL     OW97798  11.112   5.143   5.854
98634SOL    HW197799  11.192   5.194   5.867
98634SOL    HW297800  11.131   5.087   5.779
98635SOL     OW97801  13.829  13.596   2.238
98635SOL    HW197802  13.756  13.552   2.283
98635SOL    HW297803  13.872  13.525   2.189
98636SOL     OW97804   3.272   3.827   3.366
98636SOL    HW197805   3.293   3.805   3.456
98636SOL    HW297806   3.357   3.846   3.326
98637SOL     OW97807   6.626   4.324   3.580
98637SOL    HW197808   6.707   4.375   3.584
98637SOL    HW297809   6.601   4.311   3.671
98638SOL     OW97810   3.282   3.541   2.433
98638SOL    HW197811   3.304   3.620   2.482
98638SOL    HW297812   3.356   3.528   2.374
98639SOL     OW97813   4.213  11.179   3.543
98639SOL    HW197814   4.164  11.108   3.501
98639SOL    HW297815   4.305  11.154   3.533
98640SOL     OW97816   9.048   4.958   9.701
98640SOL    HW197817   9.034   5.046   9.665
98640SOL    HW297818   8.965   4.936   9.744
98641SOL     OW97819  13.473   7.272   8.437
98641SOL    HW197820  13.522   7.264   8.356
98641SOL    HW297821  13.475   7.366   8.457
98642SOL     OW97822   9.326  13.036   4.820
98642SOL    HW197823   9.307  13.129   4.807
98642SOL    HW297824   9.417  13.034   4.847
98643SOL     OW97825   8.246   8.547   9.644
98643SOL    HW197826   8.190   8.595   9.583
98643SOL    HW297827   8.297   8.487   9.590
98644SOL     OW97828   7.267   5.445  10.379
98644SOL    HW197829   7.220   5.528  10.366
98644SOL    HW297830   7.315   5.432  10.297
98645SOL     OW97831  11.700  14.341   6.182
98645SOL    HW197832  11.662  14.293   6.109
98645SOL    HW297833  11.790  14.309   6.187
98646SOL     OW97834   6.882   9.460  10.297
98646SOL    HW197835   6.790   9.437  10.283
98646SOL    HW297836   6.925   9.435  10.216
98647SOL     OW97837  12.153   8.343  13.647
98647SOL    HW197838  12.066   8.306  13.633
98647SOL    HW297839  12.203   8.271  13.685
98648SOL     OW97840   0.993   9.576   1.148
98648SOL    HW197841   0.923   9.632   1.117
98648SOL    HW297842   1.073   9.624   1.129
98649SOL     OW97843   3.104  13.303  13.555
98649SOL    HW197844   3.046  13.276  13.627
98649SOL    HW297845   3.156  13.225  13.536
98650SOL     OW97846   8.858   5.906  12.839
98650SOL    HW197847   8.813   5.972  12.787
98650SOL    HW297848   8.811   5.824  12.820
98651SOL     OW97849   3.062   9.090  12.715
98651SOL    HW197850   2.971   9.080  12.744
98651SOL    HW297851   3.101   9.003  12.726
98652SOL     OW97852   6.134  12.288  14.595
98652SOL    HW197853   6.067  12.219  14.600
98652SOL    HW297854   6.139  12.310  14.502
98653SOL     OW97855   9.732   2.943   7.174
98653SOL    HW197856   9.806   3.003   7.181
98653SOL    HW297857   9.655   2.997   7.194
98654SOL     OW97858   6.000  13.461  13.492
98654SOL    HW197859   6.027  13.369  13.484
98654SOL    HW297860   5.906  13.457  13.510
98655SOL     OW97861   8.915   5.913   4.648
98655SOL    HW197862   8.884   5.936   4.561
98655SOL    HW297863   8.918   5.817   4.648
98656SOL     OW97864   5.764   3.528   6.459
98656SOL    HW197865   5.713   3.488   6.529
98656SOL    HW297866   5.721   3.498   6.378
98657SOL     OW97867   6.844  12.169   8.838
98657SOL    HW197868   6.915  12.225   8.868
98657SOL    HW297869   6.810  12.212   8.760
98658SOL     OW97870   0.476  12.765  14.671
98658SOL    HW197871   0.550  12.749  14.729
98658SOL    HW297872   0.505  12.836  14.614
98659SOL     OW97873   4.597   4.381   1.261
98659SOL    HW197874   4.541   4.305   1.248
98659SOL    HW297875   4.686   4.349   1.249
98660SOL     OW97876   6.183   1.494   3.874
98660SOL    HW197877   6.185   1.589   3.871
98660SOL    HW297878   6.244   1.471   3.945
98661SOL     OW97879   3.187  12.736   0.345
98661SOL    HW197880   3.101  12.721   0.305
98661SOL    HW297881   3.184  12.684   0.426
98662SOL     OW97882   9.283  14.254   4.249
98662SOL    HW197883   9.290  14.190   4.320
98662SOL    HW297884   9.355  14.315   4.265
98663SOL     OW97885   6.884   4.920  14.501
98663SOL    HW197886   6.796   4.956  14.507
98663SOL    HW297887   6.938   4.979  14.554
98664SOL     OW97888   8.728   8.954  11.178
98664SOL    HW197889   8.667   8.920  11.244
98664SOL    HW297890   8.672   9.003  11.117
98665SOL     OW97891  10.393   0.015   6.970
98665SOL    HW197892  10.374  14.852   7.057
98665SOL    HW297893  10.488   0.011   6.962
98666SOL     OW97894   9.469   7.334   8.297
98666SOL    HW197895   9.503   7.398   8.360
98666SOL    HW297896   9.529   7.260   8.304
98667SOL     OW97897   6.737   3.431   1.817
98667SOL    HW197898   6.815   3.429   1.872
98667SOL    HW297899   6.702   3.519   1.828
98668SOL     OW97900   4.084   2.329  12.500
98668SOL    HW197901   3.998   2.361  12.528
98668SOL    HW297902   4.121   2.401  12.448
98669SOL     OW97903  10.683   2.485  14.048
98669SOL    HW197904  10.769   2.474  14.089
98669SOL    HW297905  10.699   2.465  13.955
98670SOL     OW97906   4.956   0.075   7.803
98670SOL    HW197907   4.945   0.038   7.715
98670SOL    HW297908   4.954  14.869   7.861
98671SOL     OW97909  10.989   0.749  10.902
98671SOL    HW197910  10.921   0.700  10.857
98671SOL    HW297911  10.953   0.766  10.989
98672SOL     OW97912   2.404   5.030   4.896
98672SOL    HW197913   2.333   5.051   4.835
98672SOL    HW297914   2.375   5.068   4.979
98673SOL     OW97915   9.118   3.780   2.343
98673SOL    HW197916   9.095   3.688   2.353
98673SOL    HW297917   9.041   3.821   2.305
98674SOL     OW97918  12.100  12.688   3.546
98674SOL    HW197919  12.046  12.615   3.516
98674SOL    HW297920  12.166  12.699   3.478
98675SOL     OW97921   8.868   7.691  10.731
98675SOL    HW197922   8.786   7.666  10.689
98675SOL    HW297923   8.910   7.609  10.754
98676SOL     OW97924   5.664  12.740  10.328
98676SOL    HW197925   5.572  12.767  10.330
98676SOL    HW297926   5.662  12.648  10.355
98677SOL     OW97927   5.874   4.525   2.045
98677SOL    HW197928   5.839   4.528   2.134
98677SOL    HW297929   5.949   4.583   2.047
98678SOL     OW97930  14.678   1.108   3.195
98678SOL    HW197931  14.627   1.182   3.163
98678SOL    HW297932  14.725   1.142   3.271
98679SOL     OW97933   1.872   8.336   4.649
98679SOL    HW197934   1.818   8.276   4.598
98679SOL    HW297935   1.837   8.331   4.738
98680SOL     OW97936   7.884   6.115  12.569
98680SOL    HW197937   7.819   6.185  12.568
98680SOL    HW297938   7.863   6.062  12.492
98681SOL     OW97939   5.084  10.097   1.017
98681SOL    HW197940   5.072  10.191   1.003
98681SOL    HW297941   5.003  10.057   0.982
98682SOL     OW97942   4.541   8.990   9.928
98682SOL    HW197943   4.521   9.081   9.950
98682SOL    HW297944   4.474   8.939   9.973
98683SOL     OW97945   1.899   0.380  14.868
98683SOL    HW197946   1.881   0.298   0.042
98683SOL    HW297947   1.939   0.436   0.065
98684SOL     OW97948   3.722   9.308   2.865
98684SOL    HW197949   3.742   9.222   2.829
98684SOL    HW297950   3.676   9.290   2.947
98685SOL     OW97951   1.485  11.185  13.391
98685SOL    HW197952   1.510  11.143  13.473
98685SOL    HW297953   1.476  11.113  13.329
98686SOL     OW97954   2.027  11.634  10.027
98686SOL    HW197955   2.004  11.545  10.053
98686SOL    HW297956   2.103  11.656  10.082
98687SOL     OW97957   8.452   8.262  13.213
98687SOL    HW197958   8.373   8.256  13.266
98687SOL    HW297959   8.498   8.179  13.228
98688SOL     OW97960  13.441   2.972   6.711
98688SOL    HW197961  13.480   3.029   6.645
98688SOL    HW297962  13.498   2.981   6.787
98689SOL     OW97963  12.851   2.971   9.498
98689SOL    HW197964  12.853   3.049   9.553
98689SOL    HW297965  12.931   2.976   9.446
98690SOL     OW97966   0.943   3.157   3.635
98690SOL    HW197967   0.895   3.074   3.638
98690SOL    HW297968   1.035   3.131   3.624
98691SOL     OW97969  10.137   6.835  11.920
98691SOL    HW197970  10.063   6.833  11.980
98691SOL    HW297971  10.212   6.855  11.976
98692SOL     OW97972  14.570   8.761   7.836
98692SOL    HW197973  14.494   8.730   7.885
98692SOL    HW297974  14.636   8.780   7.904
98693SOL     OW97975   4.003  13.413   2.237
98693SOL    HW197976   3.951  13.459   2.171
98693SOL    HW297977   4.091  13.449   2.227
98694SOL     OW97978   2.289  13.988  11.489
98694SOL    HW197979   2.217  14.046  11.464
98694SOL    HW297980   2.250  13.922  11.545
98695SOL     OW97981   5.893   2.615  11.483
98695SOL    HW197982   5.919   2.691  11.536
98695SOL    HW297983   5.824   2.649  11.426
98696SOL     OW97984   7.767   1.109   1.968
98696SOL    HW197985   7.733   1.040   1.911
98696SOL    HW297986   7.840   1.068   2.014
98697SOL     OW97987   6.478   3.705   8.943
98697SOL    HW197988   6.412   3.637   8.929
98697SOL    HW297989   6.550   3.660   8.987
98698SOL     OW97990  11.857  10.838  13.136
98698SOL    HW197991  11.767  10.870  13.142
98698SOL    HW297992  11.848  10.743  13.125
98699SOL     OW97993   1.571  10.003   4.918
98699SOL    HW197994   1.552   9.913   4.942
98699SOL    HW297995   1.585  10.000   4.824
98700SOL     OW97996   0.006   1.805   0.707
98700SOL    HW197997  14.802   1.861   0.733
98700SOL    HW297998   0.011   1.739   0.775
98701SOL     OW97999   7.885   1.842  14.446
98701SOL    HW198000   7.920   1.910  14.502
98701SOL    HW298001   7.918   1.864  14.358
98702SOL     OW98002   3.704   8.596  10.085
98702SOL    HW198003   3.738   8.661  10.024
98702SOL    HW298004   3.760   8.519  10.071
98703SOL     OW98005   2.717  12.690   9.598
98703SOL    HW198006   2.680  12.769   9.637
98703SOL    HW298007   2.717  12.707   9.504
98704SOL     OW98008   5.035   1.959   6.947
98704SOL    HW198009   4.968   2.016   6.909
98704SOL    HW298010   5.090   1.934   6.873
98705SOL     OW98011  10.706   5.693   9.284
98705SOL    HW198012  10.673   5.738   9.362
98705SOL    HW298013  10.719   5.603   9.312
98706SOL     OW98014   9.887  14.055   0.865
98706SOL    HW198015   9.920  14.136   0.827
98706SOL    HW298016   9.911  14.061   0.957
98707SOL     OW98017   7.742   9.500  12.503
98707SOL    HW198018   7.824   9.547  12.486
98707SOL    HW298019   7.752   9.418  12.456
98708SOL     OW98020   4.456   8.464   4.184
98708SOL    HW198021   4.380   8.454   4.126
98708SOL    HW298022   4.518   8.399   4.152
98709SOL     OW98023   8.186   8.184  10.566
98709SOL    HW198024   8.252   8.192  10.497
98709SOL    HW298025   8.161   8.274  10.585
98710SOL     OW98026  13.566  10.398  13.930
98710SOL    HW198027  13.529  10.323  13.883
98710SOL    HW298028  13.532  10.389  14.019
98711SOL     OW98029   7.265   9.372  12.305
98711SOL    HW198030   7.291   9.320  12.381
98711SOL    HW298031   7.348   9.402  12.267
98712SOL     OW98032   8.651   7.962   1.466
98712SOL    HW198033   8.705   7.888   1.437
98712SOL    HW298034   8.641   8.017   1.388
98713SOL     OW98035   8.313   2.011   6.028
98713SOL    HW198036   8.308   2.089   5.975
98713SOL    HW298037   8.368   1.951   5.978
98714SOL     OW98038   3.393   2.615  14.707
98714SOL    HW198039   3.332   2.603  14.634
98714SOL    HW298040   3.339   2.652  14.777
98715SOL     OW98041   8.263   4.898   1.666
98715SOL    HW198042   8.326   4.935   1.727
98715SOL    HW298043   8.220   4.828   1.715
98716SOL     OW98044   0.928   3.775   0.927
98716SOL    HW198045   0.986   3.829   0.874
98716SOL    HW298046   0.840   3.809   0.910
98717SOL     OW98047  12.299  14.076  13.438
98717SOL    HW198048  12.260  13.993  13.409
98717SOL    HW298049  12.385  14.079  13.396
98718SOL     OW98050   2.650  12.905  10.443
98718SOL    HW198051   2.711  12.906  10.369
98718SOL    HW298052   2.585  12.839  10.419
98719SOL     OW98053   3.705  10.319   8.937
98719SOL    HW198054   3.713  10.309   9.031
98719SOL    HW298055   3.651  10.398   8.926
98720SOL     OW98056   5.529  14.652   7.670
98720SOL    HW198057   5.514  14.666   7.577
98720SOL    HW298058   5.563  14.563   7.676
98721SOL     OW98059  12.464   5.975   7.320
98721SOL    HW198060  12.430   5.887   7.338
98721SOL    HW298061  12.427   5.998   7.235
98722SOL     OW98062   2.258   9.146   5.803
98722SOL    HW198063   2.188   9.095   5.844
98722SOL    HW298064   2.234   9.237   5.819
98723SOL     OW98065  14.418  14.203  10.106
98723SOL    HW198066  14.464  14.263  10.165
98723SOL    HW298067  14.457  14.218  10.021
98724SOL     OW98068  11.756   3.133   9.676
98724SOL    HW198069  11.712   3.153   9.594
98724SOL    HW298070  11.705   3.179   9.743
98725SOL     OW98071   2.105   1.126   7.508
98725SOL    HW198072   2.180   1.135   7.450
98725SOL    HW298073   2.124   1.183   7.582
98726SOL     OW98074   3.949   4.597  11.796
98726SOL    HW198075   3.961   4.668  11.734
98726SOL    HW298076   3.926   4.641  11.878
98727SOL     OW98077   7.212   2.199   3.328
98727SOL    HW198078   7.146   2.222   3.262
98727SOL    HW298079   7.195   2.258   3.401
98728SOL     OW98080  10.782   1.294   5.481
98728SOL    HW198081  10.799   1.338   5.564
98728SOL    HW298082  10.698   1.331   5.451
98729SOL     OW98083   6.298   5.415  14.150
98729SOL    HW198084   6.289   5.377  14.237
98729SOL    HW298085   6.364   5.361  14.107
98730SOL     OW98086   1.724  10.010   7.920
98730SOL    HW198087   1.751   9.932   7.872
98730SOL    HW298088   1.799  10.069   7.914
98731SOL     OW98089   4.162  13.746   3.009
98731SOL    HW198090   4.094  13.700   2.959
98731SOL    HW298091   4.198  13.810   2.948
98732SOL     OW98092  14.544  13.004  12.860
98732SOL    HW198093  14.580  12.918  12.839
98732SOL    HW298094  14.539  13.005  12.955
98733SOL     OW98095  13.788  10.660  11.295
98733SOL    HW198096  13.882  10.650  11.278
98733SOL    HW298097  13.778  10.644  11.388
98734SOL     OW98098  10.127  12.346   0.679
98734SOL    HW198099  10.171  12.336   0.764
98734SOL    HW298100  10.044  12.299   0.690
98735SOL     OW98101   8.149  14.745   3.475
98735SOL    HW198102   8.134  14.762   3.568
98735SOL    HW298103   8.062  14.722   3.441
98736SOL     OW98104   3.529   2.912   1.105
98736SOL    HW198105   3.536   2.866   1.022
98736SOL    HW298106   3.618   2.942   1.124
98737SOL     OW98107   5.814   6.598   7.486
98737SOL    HW198108   5.803   6.676   7.431
98737SOL    HW298109   5.732   6.549   7.475
98738SOL     OW98110   6.092   3.903   5.249
98738SOL    HW198111   6.151   3.863   5.313
98738SOL    HW298112   6.017   3.844   5.244
98739SOL     OW98113   0.021   9.956   2.645
98739SOL    HW198114   0.043  10.049   2.641
98739SOL    HW298115  14.845   9.945   2.728
98740SOL     OW98116   6.400  12.605   6.311
98740SOL    HW198117   6.473  12.662   6.285
98740SOL    HW298118   6.429  12.566   6.394
98741SOL     OW98119  10.624   5.346   2.893
98741SOL    HW198120  10.541   5.373   2.932
98741SOL    HW298121  10.614   5.251   2.880
98742SOL     OW98122   7.172   8.860  11.140
98742SOL    HW198123   7.166   8.932  11.203
98742SOL    HW298124   7.128   8.787  11.185
98743SOL     OW98125   9.363   7.073   9.513
98743SOL    HW198126   9.333   6.986   9.542
98743SOL    HW298127   9.314   7.134   9.567
98744SOL     OW98128   9.944  11.334   4.975
98744SOL    HW198129  10.032  11.316   4.944
98744SOL    HW298130   9.956  11.380   5.058
98745SOL     OW98131   0.206   5.513   0.370
98745SOL    HW198132   0.134   5.449   0.373
98745SOL    HW298133   0.175   5.581   0.310
98746SOL     OW98134   8.125   5.686   2.649
98746SOL    HW198135   8.085   5.751   2.707
98746SOL    HW298136   8.209   5.723   2.625
98747SOL     OW98137   8.379   9.535   7.739
98747SOL    HW198138   8.345   9.542   7.828
98747SOL    HW298139   8.450   9.472   7.745
98748SOL     OW98140  11.716   9.355   1.598
98748SOL    HW198141  11.803   9.316   1.594
98748SOL    HW298142  11.660   9.286   1.634
98749SOL     OW98143  12.165  10.063   5.168
98749SOL    HW198144  12.142  10.030   5.082
98749SOL    HW298145  12.099  10.025   5.227
98750SOL     OW98146   4.221   6.866   4.504
98750SOL    HW198147   4.172   6.792   4.539
98750SOL    HW298148   4.154   6.930   4.480
98751SOL     OW98149  10.311   4.756  10.294
98751SOL    HW198150  10.345   4.705  10.220
98751SOL    HW298151  10.323   4.847  10.267
98752SOL     OW98152   2.528   8.059   2.366
98752SOL    HW198153   2.619   8.075   2.393
98752SOL    HW298154   2.499   7.986   2.420
98753SOL     OW98155  13.807  12.547   1.570
98753SOL    HW198156  13.813  12.574   1.661
98753SOL    HW298157  13.898  12.531   1.544
98754SOL     OW98158   9.627  11.532   6.598
98754SOL    HW198159   9.645  11.530   6.692
98754SOL    HW298160   9.712  11.517   6.557
98755SOL     OW98161   7.533   6.144   8.962
98755SOL    HW198162   7.470   6.106   8.901
98755SOL    HW298163   7.482   6.208   9.012
98756SOL     OW98164   2.847   3.497   3.044
98756SOL    HW198165   2.925   3.442   3.034
98756SOL    HW298166   2.780   3.455   2.990
98757SOL     OW98167   7.657   0.988   1.532
98757SOL    HW198168   7.647   1.006   1.438
98757SOL    HW298169   7.750   0.969   1.543
98758SOL     OW98170   0.220   2.800   2.923
98758SOL    HW198171   0.254   2.773   3.008
98758SOL    HW298172   0.172   2.881   2.941
98759SOL     OW98173   3.371   0.457   6.531
98759SOL    HW198174   3.285   0.417   6.517
98759SOL    HW298175   3.375   0.472   6.626
98760SOL     OW98176  14.375   7.440  10.219
98760SOL    HW198177  14.435   7.484  10.158
98760SOL    HW298178  14.289   7.478  10.200
98761SOL     OW98179  13.493   4.837   6.029
98761SOL    HW198180  13.490   4.827   5.933
98761SOL    HW298181  13.518   4.928   6.043
98762SOL     OW98182   5.618  12.750   2.171
98762SOL    HW198183   5.645  12.703   2.249
98762SOL    HW298184   5.532  12.714   2.148
98763SOL     OW98185  11.972   1.313   0.434
98763SOL    HW198186  11.953   1.238   0.377
98763SOL    HW298187  12.043   1.359   0.389
98764SOL     OW98188   6.101   1.557  13.788
98764SOL    HW198189   6.059   1.507  13.858
98764SOL    HW298190   6.193   1.562  13.814
98765SOL     OW98191  12.988   1.249   6.554
98765SOL    HW198192  12.999   1.270   6.462
98765SOL    HW298193  13.047   1.176   6.569
98766SOL     OW98194   4.600   8.541   1.789
98766SOL    HW198195   4.595   8.613   1.851
98766SOL    HW298196   4.642   8.578   1.712
98767SOL     OW98197  11.650   3.654   2.109
98767SOL    HW198198  11.633   3.573   2.061
98767SOL    HW298199  11.686   3.626   2.193
98768SOL     OW98200  11.116   0.946  10.340
98768SOL    HW198201  11.212   0.944  10.342
98768SOL    HW298202  11.090   0.909  10.425
98769SOL     OW98203  14.766   1.060   5.609
98769SOL    HW198204  14.677   1.061   5.644
98769SOL    HW298205  14.769   1.134   5.548
98770SOL     OW98206  11.077   9.728  10.747
98770SOL    HW198207  11.065   9.686  10.662
98770SOL    HW298208  11.135   9.802  10.729
98771SOL     OW98209   4.179   1.983  14.222
98771SOL    HW198210   4.133   1.902  14.199
98771SOL    HW298211   4.114   2.052  14.207
98772SOL     OW98212  13.555   8.320  12.027
98772SOL    HW198213  13.595   8.351  11.945
98772SOL    HW298214  13.468   8.361  12.028
98773SOL     OW98215   3.004   9.319   0.198
98773SOL    HW198216   2.912   9.298   0.183
98773SOL    HW298217   3.042   9.240   0.236
98774SOL     OW98218   8.303  10.130   3.873
98774SOL    HW198219   8.225  10.107   3.924
98774SOL    HW298220   8.311  10.225   3.883
98775SOL     OW98221  12.090   3.670   3.501
98775SOL    HW198222  12.000   3.688   3.474
98775SOL    HW298223  12.089   3.578   3.527
98776SOL     OW98224   4.259   8.196  11.249
98776SOL    HW198225   4.224   8.137  11.317
98776SOL    HW298226   4.257   8.145  11.169
98777SOL     OW98227   2.351   7.404   2.156
98777SOL    HW198228   2.278   7.341   2.155
98777SOL    HW298229   2.309   7.489   2.163
98778SOL     OW98230  14.585  10.568   9.038
98778SOL    HW198231  14.662  10.612   9.003
98778SOL    HW298232  14.559  10.619   9.114
98779SOL     OW98233  14.466  12.270  14.775
98779SOL    HW198234  14.429  12.350  14.812
98779SOL    HW298235  14.431  12.266  14.686
98780SOL     OW98236   4.436   8.413   7.743
98780SOL    HW198237   4.510   8.362   7.709
98780SOL    HW298238   4.423   8.380   7.832
98781SOL     OW98239  12.495  13.903   5.841
98781SOL    HW198240  12.505  13.938   5.929
98781SOL    HW298241  12.484  13.809   5.854
98782SOL     OW98242  10.020   3.153  12.314
98782SOL    HW198243  10.070   3.072  12.317
98782SOL    HW298244  10.030   3.191  12.401
98783SOL     OW98245  13.216   4.529   7.195
98783SOL    HW198246  13.246   4.439   7.194
98783SOL    HW298247  13.252   4.566   7.276
98784SOL     OW98248  10.084   4.869   4.420
98784SOL    HW198249  10.103   4.953   4.380
98784SOL    HW298250   9.989   4.860   4.414
98785SOL     OW98251  10.128  12.704   0.888
98785SOL    HW198252  10.153  12.690   0.979
98785SOL    HW298253  10.210  12.698   0.839
98786SOL     OW98254   6.258   7.487   2.305
98786SOL    HW198255   6.338   7.436   2.289
98786SOL    HW298256   6.198   7.459   2.236
98787SOL     OW98257   9.619   9.640   4.087
98787SOL    HW198258   9.645   9.554   4.119
98787SOL    HW298259   9.617   9.695   4.165
98788SOL     OW98260   8.683   6.624   1.231
98788SOL    HW198261   8.710   6.605   1.321
98788SOL    HW298262   8.628   6.549   1.207
98789SOL     OW98263   1.554  10.591  10.020
98789SOL    HW198264   1.603  10.515  10.053
98789SOL    HW298265   1.471  10.554   9.991
98790SOL     OW98266   0.512   6.423   1.619
98790SOL    HW198267   0.572   6.395   1.549
98790SOL    HW298268   0.568   6.428   1.697
98791SOL     OW98269   3.926  12.000   5.025
98791SOL    HW198270   3.992  12.069   5.020
98791SOL    HW298271   3.957  11.931   4.967
98792SOL     OW98272   9.312   1.977  13.547
98792SOL    HW198273   9.379   1.995  13.482
98792SOL    HW298274   9.280   1.890  13.526
98793SOL     OW98275  11.105   2.326   4.346
98793SOL    HW198276  11.118   2.339   4.252
98793SOL    HW298277  11.015   2.354   4.362
98794SOL     OW98278   1.348   5.749   6.851
98794SOL    HW198279   1.349   5.656   6.871
98794SOL    HW298280   1.255   5.773   6.853
98795SOL     OW98281   7.014   3.664  10.128
98795SOL    HW198282   7.073   3.710  10.188
98795SOL    HW298283   7.068   3.596  10.088
98796SOL     OW98284  11.651   8.386   4.790
98796SOL    HW198285  11.590   8.334   4.843
98796SOL    HW298286  11.666   8.334   4.712
98797SOL     OW98287   6.949  12.277   2.646
98797SOL    HW198288   6.958  12.184   2.629
98797SOL    HW298289   6.872  12.284   2.704
98798SOL     OW98290   1.414   4.803   7.594
98798SOL    HW198291   1.406   4.708   7.586
98798SOL    HW298292   1.409   4.820   7.688
98799SOL     OW98293   8.858   5.843   8.797
98799SOL    HW198294   8.905   5.768   8.760
98799SOL    HW298295   8.793   5.805   8.855
98800SOL     OW98296  11.485   5.043   7.084
98800SOL    HW198297  11.465   5.126   7.040
98800SOL    HW298298  11.546   4.998   7.026
98801SOL     OW98299   0.543  10.175  12.405
98801SOL    HW198300   0.471  10.233  12.430
98801SOL    HW298301   0.514  10.088  12.430
98802SOL     OW98302  13.579   1.215   8.511
98802SOL    HW198303  13.670   1.240   8.525
98802SOL    HW298304  13.557   1.249   8.424
98803SOL     OW98305  13.725   2.843   1.967
98803SOL    HW198306  13.702   2.751   1.956
98803SOL    HW298307  13.715   2.859   2.061
98804SOL     OW98308   4.563   9.551   2.627
98804SOL    HW198309   4.568   9.626   2.567
98804SOL    HW298310   4.647   9.549   2.671
98805SOL     OW98311   6.722  11.502   8.182
98805SOL    HW198312   6.728  11.576   8.120
98805SOL    HW298313   6.641  11.458   8.159
98806SOL     OW98314   7.208  12.190   3.747
98806SOL    HW198315   7.187  12.119   3.807
98806SOL    HW298316   7.301  12.206   3.760
98807SOL     OW98317   1.519  13.501   5.799
98807SOL    HW198318   1.486  13.590   5.791
98807SOL    HW298319   1.500  13.459   5.716
98808SOL     OW98320   6.773   7.962  14.704
98808SOL    HW198321   6.684   7.964  14.738
98808SOL    HW298322   6.762   7.961  14.609
98809SOL     OW98323  13.403   7.970  12.893
98809SOL    HW198324  13.389   7.893  12.948
98809SOL    HW298325  13.378   7.940  12.805
98810SOL     OW98326  11.674  12.459  11.369
98810SOL    HW198327  11.595  12.500  11.333
98810SOL    HW298328  11.716  12.417  11.293
98811SOL     OW98329   2.951   7.916   4.127
98811SOL    HW198330   2.975   7.982   4.192
98811SOL    HW298331   2.971   7.956   4.043
98812SOL     OW98332   0.338   4.784  12.217
98812SOL    HW198333   0.407   4.767  12.282
98812SOL    HW298334   0.362   4.868  12.178
98813SOL     OW98335  13.380   8.136   6.772
98813SOL    HW198336  13.286   8.154   6.765
98813SOL    HW298337  13.423   8.219   6.752
98814SOL     OW98338   8.730   3.434   7.011
98814SOL    HW198339   8.661   3.373   7.041
98814SOL    HW298340   8.779   3.454   7.091
98815SOL     OW98341   7.144   1.810   7.067
98815SOL    HW198342   7.164   1.825   7.160
98815SOL    HW298343   7.072   1.747   7.069
98816SOL     OW98344   3.187   2.969  11.356
98816SOL    HW198345   3.116   2.990  11.294
98816SOL    HW298346   3.265   3.006  11.316
98817SOL     OW98347  13.268   3.220  10.410
98817SOL    HW198348  13.182   3.244  10.446
98817SOL    HW298349  13.310   3.304  10.393
98818SOL     OW98350   0.019  10.280   8.674
98818SOL    HW198351   0.087  10.247   8.615
98818SOL    HW298352  14.864  10.204   8.727
98819SOL     OW98353  10.834   4.834   9.752
98819SOL    HW198354  10.784   4.813   9.673
98819SOL    HW298355  10.923   4.808   9.732
98820SOL     OW98356   7.566   3.400   0.071
98820SOL    HW198357   7.521   3.479   0.041
98820SOL    HW298358   7.605   3.423   0.155
98821SOL     OW98359  10.353  14.019   1.860
98821SOL    HW198360  10.316  13.966   1.931
98821SOL    HW298361  10.288  14.013   1.790
98822SOL     OW98362   6.044   5.074   8.795
98822SOL    HW198363   6.043   5.019   8.717
98822SOL    HW298364   6.019   5.161   8.763
98823SOL     OW98365   6.328   7.344   5.690
98823SOL    HW198366   6.393   7.274   5.689
98823SOL    HW298367   6.294   7.343   5.779
98824SOL     OW98368   0.560  12.861   0.522
98824SOL    HW198369   0.655  12.873   0.524
98824SOL    HW298370   0.546  12.791   0.460
98825SOL     OW98371  12.273  12.597   0.602
98825SOL    HW198372  12.254  12.663   0.668
98825SOL    HW298373  12.192  12.589   0.551
98826SOL     OW98374   6.853   5.828  10.967
98826SOL    HW198375   6.759   5.832  10.949
98826SOL    HW298376   6.880   5.919  10.975
98827SOL     OW98377  10.584   2.620  10.455
98827SOL    HW198378  10.571   2.525  10.447
98827SOL    HW298379  10.590   2.635  10.550
98828SOL     OW98380   5.981   0.188  13.765
98828SOL    HW198381   5.954   0.273  13.801
98828SOL    HW298382   6.067   0.205  13.727
98829SOL     OW98383   4.236   9.408  13.984
98829SOL    HW198384   4.160   9.367  13.943
98829SOL    HW298385   4.205   9.494  14.013
98830SOL     OW98386   6.473   3.417   7.677
98830SOL    HW198387   6.554   3.382   7.713
98830SOL    HW298388   6.404   3.378   7.731
98831SOL     OW98389   1.839  11.079   3.715
98831SOL    HW198390   1.799  11.033   3.642
98831SOL    HW298391   1.933  11.067   3.703
98832SOL     OW98392  13.499   9.163   6.929
98832SOL    HW198393  13.449   9.082   6.943
98832SOL    HW298394  13.490   9.212   7.011
98833SOL     OW98395   4.172   2.329  10.824
98833SOL    HW198396   4.235   2.374  10.768
98833SOL    HW298397   4.148   2.394  10.890
98834SOL     OW98398   1.014  12.978   5.000
98834SOL    HW198399   1.006  13.026   4.918
98834SOL    HW298400   0.931  12.931   5.009
98835SOL     OW98401   3.269   3.055   9.141
98835SOL    HW198402   3.302   2.997   9.211
98835SOL    HW298403   3.336   3.051   9.073
98836SOL     OW98404  12.382   0.281   7.117
98836SOL    HW198405  12.290   0.276   7.089
98836SOL    HW298406  12.428   0.220   7.060
98837SOL     OW98407   0.567   8.888  14.838
98837SOL    HW198408   0.515   8.967  14.823
98837SOL    HW298409   0.517   8.838   0.033
98838SOL     OW98410   2.948   6.179   7.535
98838SOL    HW198411   2.896   6.224   7.468
98838SOL    HW298412   2.898   6.101   7.557
98839SOL     OW98413   6.648   0.067  14.370
98839SOL    HW198414   6.559   0.031  14.365
98839SOL    HW298415   6.650   0.136  14.304
98840SOL     OW98416   6.141  13.415   2.556
98840SOL    HW198417   6.157  13.504   2.588
98840SOL    HW298418   6.181  13.414   2.469
98841SOL     OW98419  12.550  10.959   1.604
98841SOL    HW198420  12.552  11.047   1.567
98841SOL    HW298421  12.633  10.951   1.651
98842SOL     OW98422   2.722  10.048   3.923
98842SOL    HW198423   2.666  10.108   3.973
98842SOL    HW298424   2.782  10.105   3.875
98843SOL     OW98425  11.548   3.994   0.656
98843SOL    HW198426  11.536   3.941   0.578
98843SOL    HW298427  11.602   4.068   0.628
98844SOL     OW98428   7.828  11.478   7.877
98844SOL    HW198429   7.781  11.428   7.811
98844SOL    HW298430   7.869  11.549   7.829
98845SOL     OW98431  13.763  12.404   1.980
98845SOL    HW198432  13.733  12.463   2.050
98845SOL    HW298433  13.689  12.399   1.920
98846SOL     OW98434   4.077   9.539   9.551
98846SOL    HW198435   4.057   9.630   9.531
98846SOL    HW298436   4.043   9.526   9.640
98847SOL     OW98437   0.942   7.854  10.172
98847SOL    HW198438   0.851   7.827  10.157
98847SOL    HW298439   0.990   7.819  10.097
98848SOL     OW98440   9.872   6.516   0.899
98848SOL    HW198441   9.817   6.530   0.822
98848SOL    HW298442   9.953   6.563   0.879
98849SOL     OW98443   8.145   6.271   7.532
98849SOL    HW198444   8.094   6.298   7.456
98849SOL    HW298445   8.220   6.331   7.533
98850SOL     OW98446   3.027   3.320   9.982
98850SOL    HW198447   3.112   3.294   9.947
98850SOL    HW298448   3.022   3.414   9.967
98851SOL     OW98449   0.772   3.874  10.861
98851SOL    HW198450   0.830   3.820  10.807
98851SOL    HW298451   0.823   3.891  10.940
98852SOL     OW98452   0.072   2.683   9.182
98852SOL    HW198453  14.867   2.701   9.239
98852SOL    HW298454   0.054   2.734   9.103
98853SOL     OW98455   5.849  11.534   2.093
98853SOL    HW198456   5.777  11.480   2.061
98853SOL    HW298457   5.928  11.489   2.063
98854SOL     OW98458   2.480   3.276   8.178
98854SOL    HW198459   2.448   3.289   8.267
98854SOL    HW298460   2.555   3.218   8.188
98855SOL     OW98461   3.393   0.158   7.519
98855SOL    HW198462   3.482   0.193   7.516
98855SOL    HW298463   3.384   0.107   7.438
98856SOL     OW98464   2.903   0.179   3.000
98856SOL    HW198465   2.938   0.170   2.912
98856SOL    HW298466   2.888   0.272   3.012
98857SOL     OW98467   7.626  13.529  11.742
98857SOL    HW198468   7.624  13.506  11.649
98857SOL    HW298469   7.574  13.461  11.784
98858SOL     OW98470   1.142   0.535   7.383
98858SOL    HW198471   1.071   0.596   7.365
98858SOL    HW298472   1.212   0.589   7.419
98859SOL     OW98473   1.831   7.391  14.739
98859SOL    HW198474   1.791   7.312  14.774
98859SOL    HW298475   1.914   7.361  14.702
98860SOL     OW98476   3.702   1.333  13.904
98860SOL    HW198477   3.681   1.329  13.997
98860SOL    HW298478   3.648   1.404  13.870
98861SOL     OW98479   5.685   7.454   9.383
98861SOL    HW198480   5.775   7.482   9.368
98861SOL    HW298481   5.633   7.511   9.326
98862SOL     OW98482   9.318   1.482   9.373
98862SOL    HW198483   9.335   1.575   9.359
98862SOL    HW298484   9.277   1.478   9.460
98863SOL     OW98485   0.748  14.782   0.811
98863SOL    HW198486   0.800  14.745   0.740
98863SOL    HW298487   0.812  14.810   0.876
98864SOL     OW98488   3.166   5.117  13.049
98864SOL    HW198489   3.257   5.096  13.070
98864SOL    HW298490   3.141   5.052  12.983
98865SOL     OW98491   6.366   0.430  12.980
98865SOL    HW198492   6.339   0.482  13.055
98865SOL    HW298493   6.289   0.427  12.924
98866SOL     OW98494  12.056   1.470   3.926
98866SOL    HW198495  12.140   1.426   3.941
98866SOL    HW298496  12.040   1.519   4.006
98867SOL     OW98497   1.574   1.213   6.628
98867SOL    HW198498   1.631   1.278   6.588
98867SOL    HW298499   1.537   1.165   6.554
98868SOL     OW98500   2.679  13.682   7.611
98868SOL    HW198501   2.660  13.593   7.581
98868SOL    HW298502   2.676  13.735   7.532
98869SOL     OW98503   0.240   2.632  13.382
98869SOL    HW198504   0.252   2.580  13.303
98869SOL    HW298505   0.146   2.648  13.387
98870SOL     OW98506   0.566  14.353   6.585
98870SOL    HW198507   0.659  14.368   6.604
98870SOL    HW298508   0.558  14.258   6.575
98871SOL     OW98509   4.742  14.139   1.845
98871SOL    HW198510   4.826  14.126   1.889
98871SOL    HW298511   4.751  14.092   1.762
98872SOL     OW98512   7.342   3.276   8.330
98872SOL    HW198513   7.402   3.341   8.293
98872SOL    HW298514   7.262   3.324   8.347
98873SOL     OW98515  12.063   3.416   5.272
98873SOL    HW198516  12.027   3.342   5.223
98873SOL    HW298517  12.027   3.493   5.229
98874SOL     OW98518  13.926  13.015   1.563
98874SOL    HW198519  13.898  13.021   1.655
98874SOL    HW298520  13.847  12.988   1.516
98875SOL     OW98521  12.992   3.998   8.352
98875SOL    HW198522  12.958   4.073   8.402
98875SOL    HW298523  12.946   4.003   8.268
98876SOL     OW98524   5.111   2.629   9.340
98876SOL    HW198525   5.139   2.548   9.297
98876SOL    HW298526   5.189   2.683   9.344
98877SOL     OW98527   6.200  12.349   4.290
98877SOL    HW198528   6.155  12.287   4.232
98877SOL    HW298529   6.290  12.351   4.257
98878SOL     OW98530  12.488  10.655   9.012
98878SOL    HW198531  12.519  10.596   8.943
98878SOL    HW298532  12.502  10.606   9.093
98879SOL     OW98533   8.286  10.581   3.607
98879SOL    HW198534   8.205  10.557   3.561
98879SOL    HW298535   8.273  10.672   3.632
98880SOL     OW98536  13.672   1.754  14.292
98880SOL    HW198537  13.730   1.714  14.228
98880SOL    HW298538  13.687   1.848  14.283
98881SOL     OW98539   4.418   5.076  14.000
98881SOL    HW198540   4.459   5.162  13.998
98881SOL    HW298541   4.442   5.036  13.917
98882SOL     OW98542   7.708  14.088  12.259
98882SOL    HW198543   7.744  14.072  12.347
98882SOL    HW298544   7.772  14.049  12.200
98883SOL     OW98545   9.448   3.133   8.771
98883SOL    HW198546   9.385   3.100   8.707
98883SOL    HW298547   9.511   3.183   8.720
98884SOL     OW98548   1.596   2.893   0.738
98884SOL    HW198549   1.688   2.870   0.753
98884SOL    HW298550   1.567   2.931   0.821
98885SOL     OW98551   3.984  11.967   0.059
98885SOL    HW198552   3.989  11.876   0.029
98885SOL    HW298553   3.892  11.979   0.084
98886SOL     OW98554   1.313   7.689   4.000
98886SOL    HW198555   1.305   7.770   3.950
98886SOL    HW298556   1.225   7.675   4.037
98887SOL     OW98557   9.416   5.638   2.873
98887SOL    HW198558   9.355   5.612   2.942
98887SOL    HW298559   9.394   5.581   2.799
98888SOL     OW98560   0.762   0.100  10.942
98888SOL    HW198561   0.851   0.122  10.914
98888SOL    HW298562   0.722   0.185  10.965
98889SOL     OW98563  11.279   1.489  10.738
98889SOL    HW198564  11.374   1.496  10.744
98889SOL    HW298565  11.263   1.447  10.654
98890SOL     OW98566  14.250   4.981  13.631
98890SOL    HW198567  14.213   4.960  13.717
98890SOL    HW298568  14.265   5.075  13.633
98891SOL     OW98569   0.544   4.714   3.060
98891SOL    HW198570   0.467   4.743   3.011
98891SOL    HW298571   0.518   4.725   3.152
98892SOL     OW98572   8.439   3.000   3.117
98892SOL    HW198573   8.460   2.907   3.126
98892SOL    HW298574   8.376   3.017   3.187
98893SOL     OW98575  10.422  14.502  10.547
98893SOL    HW198576  10.470  14.578  10.515
98893SOL    HW298577  10.474  14.469  10.621
98894SOL     OW98578  14.488   8.486  12.668
98894SOL    HW198579  14.435   8.530  12.734
98894SOL    HW298580  14.575   8.480  12.707
98895SOL     OW98581   8.479  11.750  14.629
98895SOL    HW198582   8.385  11.768  14.621
98895SOL    HW298583   8.491  11.667  14.584
98896SOL     OW98584   1.627   1.713  13.549
98896SOL    HW198585   1.563   1.777  13.580
98896SOL    HW298586   1.681   1.693  13.626
98897SOL     OW98587  10.685  10.088   9.955
98897SOL    HW198588  10.705  10.062   9.865
98897SOL    HW298589  10.759  10.054  10.006
98898SOL     OW98590  10.181   7.620   9.509
98898SOL    HW198591  10.209   7.664   9.429
98898SOL    HW298592  10.093   7.589   9.490
98899SOL     OW98593   8.596  11.233  12.491
98899SOL    HW198594   8.662  11.289  12.450
98899SOL    HW298595   8.644  11.184  12.558
98900SOL     OW98596   1.573   6.033  12.944
98900SOL    HW198597   1.530   6.019  12.860
98900SOL    HW298598   1.623   5.952  12.959
98901SOL     OW98599   8.871  11.403  12.747
98901SOL    HW198600   8.908  11.410  12.835
98901SOL    HW298601   8.792  11.349  12.758
98902SOL     OW98602   2.761  14.033   9.520
98902SOL    HW198603   2.767  14.105   9.458
98902SOL    HW298604   2.810  13.961   9.480
98903SOL     OW98605  12.254   2.514   1.216
98903SOL    HW198606  12.226   2.429   1.181
98903SOL    HW298607  12.173   2.563   1.230
98904SOL     OW98608  14.221  10.794  12.845
98904SOL    HW198609  14.182  10.707  12.854
98904SOL    HW298610  14.165  10.839  12.782
98905SOL     OW98611  11.048   3.295   0.255
98905SOL    HW198612  11.007   3.259   0.177
98905SOL    HW298613  10.977   3.302   0.319
98906SOL     OW98614  10.033   6.223   1.992
98906SOL    HW198615  10.047   6.160   2.063
98906SOL    HW298616   9.982   6.175   1.927
98907SOL     OW98617   2.456  10.971   7.094
98907SOL    HW198618   2.419  10.937   7.013
98907SOL    HW298619   2.453  11.066   7.085
98908SOL     OW98620  14.233  11.766  13.032
98908SOL    HW198621  14.275  11.770  13.117
98908SOL    HW298622  14.232  11.857  13.002
98909SOL     OW98623   1.899   2.006  13.926
98909SOL    HW198624   1.922   1.962  13.845
98909SOL    HW298625   1.974   2.064  13.944
98910SOL     OW98626  11.716  14.212  11.409
98910SOL    HW198627  11.655  14.156  11.361
98910SOL    HW298628  11.737  14.163  11.489
98911SOL     OW98629   3.028  10.716   3.692
98911SOL    HW198630   3.059  10.796   3.734
98911SOL    HW298631   2.952  10.744   3.641
98912SOL     OW98632   4.386   7.100   2.967
98912SOL    HW198633   4.355   7.018   3.005
98912SOL    HW298634   4.481   7.089   2.960
98913SOL     OW98635   1.935   7.772   1.366
98913SOL    HW198636   2.015   7.720   1.356
98913SOL    HW298637   1.964   7.855   1.404
98914SOL     OW98638   7.339   6.075  14.077
98914SOL    HW198639   7.381   6.009  14.132
98914SOL    HW298640   7.269   6.111  14.131
98915SOL     OW98641   4.181   8.376  11.631
98915SOL    HW198642   4.165   8.397  11.723
98915SOL    HW298643   4.217   8.287  11.633
98916SOL     OW98644  11.772  12.969   6.801
98916SOL    HW198645  11.806  13.019   6.875
98916SOL    HW298646  11.848  12.958   6.743
98917SOL     OW98647   4.154  13.518   7.484
98917SOL    HW198648   4.206  13.487   7.559
98917SOL    HW298649   4.072  13.470   7.491
98918SOL     OW98650  12.864  14.311   4.115
98918SOL    HW198651  12.837  14.298   4.024
98918SOL    HW298652  12.934  14.377   4.110
98919SOL     OW98653   1.884  14.727  14.347
98919SOL    HW198654   1.866  14.636  14.321
98919SOL    HW298655   1.934  14.763  14.274
98920SOL     OW98656   7.898   8.629   9.719
98920SOL    HW198657   7.966   8.677   9.765
98920SOL    HW298658   7.940   8.594   9.641
98921SOL     OW98659   6.004   8.206   9.487
98921SOL    HW198660   6.040   8.157   9.413
98921SOL    HW298661   5.918   8.167   9.502
98922SOL     OW98662   4.866   3.614   2.906
98922SOL    HW198663   4.945   3.607   2.959
98922SOL    HW298664   4.813   3.539   2.932
98923SOL     OW98665   5.467   0.466  14.445
98923SOL    HW198666   5.494   0.452  14.535
98923SOL    HW298667   5.478   0.381  14.403
98924SOL     OW98668  10.719   5.981   9.478
98924SOL    HW198669  10.812   5.959   9.465
98924SOL    HW298670  10.711   5.997   9.572
98925SOL     OW98671   0.096   9.635  12.189
98925SOL    HW198672   0.028   9.657  12.126
98925SOL    HW298673   0.055   9.647  12.274
98926SOL     OW98674  10.068   6.574  14.131
98926SOL    HW198675  10.127   6.559  14.056
98926SOL    HW298676   9.983   6.543  14.101
98927SOL     OW98677   2.739   2.579  10.161
98927SOL    HW198678   2.679   2.515  10.199
98927SOL    HW298679   2.685   2.658  10.152
98928SOL     OW98680   1.457  13.388   8.200
98928SOL    HW198681   1.376  13.430   8.229
98928SOL    HW298682   1.471  13.318   8.264
98929SOL     OW98683   1.355   2.918  10.311
98929SOL    HW198684   1.372   3.012  10.322
98929SOL    HW298685   1.435   2.875  10.340
98930SOL     OW98686   3.864  11.958   6.555
98930SOL    HW198687   3.942  11.920   6.514
98930SOL    HW298688   3.877  11.944   6.648
98931SOL     OW98689   4.795  14.495   6.991
98931SOL    HW198690   4.760  14.542   6.916
98931SOL    HW298691   4.823  14.563   7.052
98932SOL     OW98692   0.329  10.627   3.639
98932SOL    HW198693   0.412  10.638   3.685
98932SOL    HW298694   0.349  10.646   3.547
98933SOL     OW98695   0.826  13.540   5.511
98933SOL    HW198696   0.806  13.465   5.455
98933SOL    HW298697   0.882  13.503   5.580
98934SOL     OW98698   3.229   2.183   0.399
98934SOL    HW198699   3.321   2.179   0.424
98934SOL    HW298700   3.188   2.109   0.444
98935SOL     OW98701  10.698   0.164  10.524
98935SOL    HW198702  10.738   0.229  10.582
98935SOL    HW298703  10.772   0.120  10.482
98936SOL     OW98704   3.694   3.784   6.400
98936SOL    HW198705   3.621   3.766   6.340
98936SOL    HW298706   3.704   3.879   6.398
98937SOL     OW98707   2.631   3.285  14.282
98937SOL    HW198708   2.648   3.374  14.252
98937SOL    HW298709   2.597   3.297  14.371
98938SOL     OW98710   6.102   2.945  14.625
98938SOL    HW198711   6.091   3.007  14.697
98938SOL    HW298712   6.167   2.883  14.657
98939SOL     OW98713  12.751   3.612   8.273
98939SOL    HW198714  12.683   3.572   8.220
98939SOL    HW298715  12.705   3.675   8.328
98940SOL     OW98716   3.122   4.416   0.241
98940SOL    HW198717   3.166   4.372   0.314
98940SOL    HW298718   3.182   4.403   0.167
98941SOL     OW98719   8.804   5.978  12.154
98941SOL    HW198720   8.811   6.028  12.236
98941SOL    HW298721   8.838   6.037  12.087
98942SOL     OW98722   6.080   8.894  10.377
98942SOL    HW198723   6.116   8.811  10.345
98942SOL    HW298724   6.009   8.868  10.436
98943SOL     OW98725   5.834   3.180  13.907
98943SOL    HW198726   5.853   3.090  13.882
98943SOL    HW298727   5.879   3.233  13.841
98944SOL     OW98728   7.754   2.580   4.655
98944SOL    HW198729   7.712   2.537   4.581
98944SOL    HW298730   7.759   2.513   4.723
98945SOL     OW98731   1.287  13.206   2.490
98945SOL    HW198732   1.214  13.198   2.551
98945SOL    HW298733   1.284  13.125   2.438
98946SOL     OW98734   1.454   9.575   5.634
98946SOL    HW198735   1.474   9.666   5.659
98946SOL    HW298736   1.533   9.526   5.654
98947SOL     OW98737  13.296   4.768  10.772
98947SOL    HW198738  13.320   4.750  10.863
98947SOL    HW298739  13.363   4.829  10.741
98948SOL     OW98740   4.600  11.811   4.190
98948SOL    HW198741   4.635  11.873   4.252
98948SOL    HW298742   4.672  11.792   4.130
98949SOL     OW98743   6.750  10.829  11.593
98949SOL    HW198744   6.835  10.873  11.598
98949SOL    HW298745   6.769  10.738  11.615
98950SOL     OW98746  14.043   1.664  13.461
98950SOL    HW198747  14.084   1.738  13.418
98950SOL    HW298748  14.108   1.634  13.525
98951SOL     OW98749   4.898   9.331   0.227
98951SOL    HW198750   4.808   9.364   0.229
98951SOL    HW298751   4.916   9.306   0.318
98952SOL     OW98752  12.190  12.377   1.561
98952SOL    HW198753  12.203  12.438   1.633
98952SOL    HW298754  12.114  12.324   1.587
98953SOL     OW98755  13.650  11.648   6.542
98953SOL    HW198756  13.717  11.676   6.480
98953SOL    HW298757  13.661  11.553   6.549
98954SOL     OW98758  13.911   5.741   3.797
98954SOL    HW198759  13.957   5.668   3.757
98954SOL    HW298760  13.910   5.721   3.891
98955SOL     OW98761   4.749  11.724   4.602
98955SOL    HW198762   4.668  11.700   4.648
98955SOL    HW298763   4.723  11.797   4.545
98956SOL     OW98764   8.400   2.580   1.261
98956SOL    HW198765   8.390   2.604   1.354
98956SOL    HW298766   8.316   2.602   1.222
98957SOL     OW98767  12.666  12.703  12.762
98957SOL    HW198768  12.753  12.720  12.725
98957SOL    HW298769  12.611  12.773  12.728
98958SOL     OW98770   6.616   5.934   9.587
98958SOL    HW198771   6.589   6.010   9.536
98958SOL    HW298772   6.702   5.910   9.551
98959SOL     OW98773  14.355   1.783  14.152
98959SOL    HW198774  14.366   1.698  14.110
98959SOL    HW298775  14.307   1.836  14.088
98960SOL     OW98776  13.330   9.441   8.469
98960SOL    HW198777  13.377   9.400   8.541
98960SOL    HW298778  13.270   9.503   8.512
98961SOL     OW98779   7.023   4.179   1.987
98961SOL    HW198780   6.971   4.256   2.012
98961SOL    HW298781   6.961   4.120   1.945
98962SOL     OW98782   1.530  11.518   5.103
98962SOL    HW198783   1.575  11.583   5.047
98962SOL    HW298784   1.600  11.461   5.134
98963SOL     OW98785   5.260   8.843   1.608
98963SOL    HW198786   5.259   8.855   1.703
98963SOL    HW298787   5.243   8.750   1.595
98964SOL     OW98788   6.952   6.740   1.777
98964SOL    HW198789   6.896   6.816   1.789
98964SOL    HW298790   6.893   6.665   1.790
98965SOL     OW98791   5.578   9.688  10.827
98965SOL    HW198792   5.568   9.782  10.810
98965SOL    HW298793   5.497   9.662  10.869
98966SOL     OW98794   6.176  11.326   6.575
98966SOL    HW198795   6.257  11.355   6.532
98966SOL    HW298796   6.206  11.267   6.644
98967SOL     OW98797   1.237   2.519   3.978
98967SOL    HW198798   1.155   2.506   3.931
98967SOL    HW298799   1.218   2.589   4.040
98968SOL     OW98800  14.806  11.048   9.709
98968SOL    HW198801  14.797  11.035   9.615
98968SOL    HW298802  14.864  11.124   9.717
98969SOL     OW98803   2.455   2.756   3.938
98969SOL    HW198804   2.452   2.662   3.924
98969SOL    HW298805   2.368   2.779   3.969
98970SOL     OW98806   0.487  12.036   7.486
98970SOL    HW198807   0.434  12.104   7.528
98970SOL    HW298808   0.450  11.954   7.517
98971SOL     OW98809   8.736  10.365   8.115
98971SOL    HW198810   8.783  10.444   8.142
98971SOL    HW298811   8.783  10.293   8.158
98972SOL     OW98812   2.810   9.934  12.722
98972SOL    HW198813   2.797  10.019  12.679
98972SOL    HW298814   2.755   9.873  12.673
98973SOL     OW98815   6.546   2.783   2.466
98973SOL    HW198816   6.472   2.722   2.464
98973SOL    HW298817   6.509   2.865   2.432
98974SOL     OW98818   4.991   0.458   6.131
98974SOL    HW198819   5.011   0.406   6.209
98974SOL    HW298820   4.931   0.527   6.162
98975SOL     OW98821  12.974   1.395   3.568
98975SOL    HW198822  13.026   1.471   3.594
98975SOL    HW298823  12.988   1.388   3.474
98976SOL     OW98824   3.732   8.444   1.213
98976SOL    HW198825   3.805   8.499   1.186
98976SOL    HW298826   3.718   8.385   1.139
98977SOL     OW98827   0.385  11.295   1.089
98977SOL    HW198828   0.347  11.352   1.022
98977SOL    HW298829   0.313  11.278   1.150
98978SOL     OW98830   3.214   9.832   1.520
98978SOL    HW198831   3.240   9.862   1.607
98978SOL    HW298832   3.128   9.872   1.506
98979SOL     OW98833  11.720   6.343   8.200
98979SOL    HW198834  11.677   6.291   8.132
98979SOL    HW298835  11.676   6.428   8.196
98980SOL     OW98836  11.338   9.325  10.142
98980SOL    HW198837  11.369   9.416  10.144
98980SOL    HW298838  11.395   9.282  10.078
98981SOL     OW98839   5.403   2.846   5.612
98981SOL    HW198840   5.461   2.875   5.541
98981SOL    HW298841   5.318   2.883   5.590
98982SOL     OW98842   7.917  13.322   5.063
98982SOL    HW198843   7.955  13.260   5.000
98982SOL    HW298844   7.863  13.268   5.120
98983SOL     OW98845  14.698  12.474  10.310
98983SOL    HW198846  14.701  12.551  10.367
98983SOL    HW298847  14.700  12.400  10.371
98984SOL     OW98848  12.712   2.702  14.461
98984SOL    HW198849  12.656   2.646  14.515
98984SOL    HW298850  12.733   2.777  14.516
98985SOL     OW98851   3.812   2.971  12.964
98985SOL    HW198852   3.764   3.049  12.936
98985SOL    HW298853   3.890   3.006  13.007
98986SOL     OW98854   3.048  14.280   2.453
98986SOL    HW198855   3.032  14.327   2.535
98986SOL    HW298856   3.140  14.253   2.458
98987SOL     OW98857  13.631  13.895   8.019
98987SOL    HW198858  13.599  13.808   7.993
98987SOL    HW298859  13.696  13.877   8.086
98988SOL     OW98860   9.954   5.092   2.636
98988SOL    HW198861  10.006   5.094   2.556
98988SOL    HW298862   9.871   5.052   2.610
98989SOL     OW98863   5.840   6.952   5.124
98989SOL    HW198864   5.929   6.936   5.155
98989SOL    HW298865   5.839   6.917   5.035
98990SOL     OW98866  13.797  14.542   3.394
98990SOL    HW198867  13.849  14.484   3.450
98990SOL    HW298868  13.858  14.609   3.365
98991SOL     OW98869   9.648  12.688   8.317
98991SOL    HW198870   9.676  12.622   8.381
98991SOL    HW298871   9.601  12.638   8.250
98992SOL     OW98872  14.649   1.161  10.429
98992SOL    HW198873  14.612   1.249  10.437
98992SOL    HW298874  14.646   1.125  10.518
98993SOL     OW98875   7.820  13.838   0.756
98993SOL    HW198876   7.784  13.909   0.702
98993SOL    HW298877   7.747  13.778   0.769
98994SOL     OW98878   4.198  11.470   0.812
98994SOL    HW198879   4.227  11.379   0.807
98994SOL    HW298880   4.107  11.464   0.840
98995SOL     OW98881   9.366   2.305   8.821
98995SOL    HW198882   9.295   2.349   8.775
98995SOL    HW298883   9.438   2.368   8.819
98996SOL     OW98884  13.873   6.894   3.641
98996SOL    HW198885  13.947   6.837   3.622
98996SOL    HW298886  13.877   6.963   3.574
98997SOL     OW98887   9.795  10.320  14.529
98997SOL    HW198888   9.761  10.262  14.462
98997SOL    HW298889   9.752  10.404  14.511
98998SOL     OW98890  10.953   5.146   0.089
98998SOL    HW198891  11.031   5.201   0.089
98998SOL    HW298892  10.885   5.199   0.047
98999SOL     OW98893   4.266   2.898   7.704
98999SOL    HW198894   4.244   2.805   7.714
98999SOL    HW298895   4.326   2.916   7.776
99000SOL     OW98896   5.309  12.636   9.712
99000SOL    HW198897   5.281  12.690   9.786
99000SOL    HW298898   5.346  12.558   9.753
99001SOL     OW98899  10.500   6.263  11.995
99001SOL    HW198900  10.433   6.330  11.995
99001SOL    HW298901  10.528   6.256  11.904
99002SOL     OW98902  14.548  10.834   6.121
99002SOL    HW198903  14.489  10.908   6.135
99002SOL    HW298904  14.542  10.783   6.202
99003SOL     OW98905  13.458   7.822   7.644
99003SOL    HW198906  13.421   7.754   7.701
99003SOL    HW298907  13.458   7.783   7.557
99004SOL     OW98908   5.267   8.849  14.732
99004SOL    HW198909   5.263   8.891  14.818
99004SOL    HW298910   5.271   8.922  14.670
99005SOL     OW98911   3.470   2.994   2.777
99005SOL    HW198912   3.514   3.009   2.693
99005SOL    HW298913   3.422   3.075   2.794
99006SOL     OW98914   8.055   9.645   3.381
99006SOL    HW198915   8.022   9.562   3.417
99006SOL    HW298916   8.112   9.619   3.309
99007SOL     OW98917   0.563   1.149   7.914
99007SOL    HW198918   0.517   1.068   7.937
99007SOL    HW298919   0.634   1.120   7.857
99008SOL     OW98920  13.865  10.788   4.419
99008SOL    HW198921  13.932  10.752   4.477
99008SOL    HW298922  13.907  10.788   4.332
99009SOL     OW98923   2.421  13.045   4.009
99009SOL    HW198924   2.376  13.103   3.947
99009SOL    HW298925   2.499  13.095   4.036
99010SOL     OW98926   3.565   6.911   9.434
99010SOL    HW198927   3.592   6.957   9.513
99010SOL    HW298928   3.568   6.819   9.457
99011SOL     OW98929   3.127   6.295   2.941
99011SOL    HW198930   3.192   6.226   2.952
99011SOL    HW298931   3.045   6.248   2.926
99012SOL     OW98932  13.787  11.398   5.175
99012SOL    HW198933  13.715  11.354   5.128
99012SOL    HW298934  13.844  11.430   5.105
99013SOL     OW98935   8.498   5.416   3.352
99013SOL    HW198936   8.510   5.392   3.261
99013SOL    HW298937   8.520   5.337   3.401
99014SOL     OW98938   8.626  14.622   7.251
99014SOL    HW198939   8.589  14.548   7.202
99014SOL    HW298940   8.694  14.584   7.306
99015SOL     OW98941   9.907   0.613   0.483
99015SOL    HW198942   9.885   0.522   0.499
99015SOL    HW298943   9.880   0.658   0.563
99016SOL     OW98944  11.697  14.863  10.873
99016SOL    HW198945  11.784   0.016  10.905
99016SOL    HW298946  11.713  14.803  10.800
99017SOL     OW98947   4.806  14.307  14.057
99017SOL    HW198948   4.784  14.336  13.968
99017SOL    HW298949   4.803  14.387  14.110
99018SOL     OW98950  12.788   2.279  11.832
99018SOL    HW198951  12.857   2.240  11.779
99018SOL    HW298952  12.712   2.223  11.818
99019SOL     OW98953   4.305   0.751   1.735
99019SOL    HW198954   4.369   0.724   1.670
99019SOL    HW298955   4.355   0.801   1.800
99020SOL     OW98956   5.017   4.697  12.127
99020SOL    HW198957   5.035   4.791  12.130
99020SOL    HW298958   5.075   4.659  12.193
99021SOL     OW98959   8.681   5.972   3.036
99021SOL    HW198960   8.683   5.929   2.950
99021SOL    HW298961   8.772   5.998   3.051
99022SOL     OW98962   0.565   8.843  12.518
99022SOL    HW198963   0.543   8.874  12.430
99022SOL    HW298964   0.593   8.922  12.565
99023SOL     OW98965   9.441   8.821   2.695
99023SOL    HW198966   9.347   8.823   2.676
99023SOL    HW298967   9.483   8.838   2.610
99024SOL     OW98968  12.060   8.777   9.881
99024SOL    HW198969  12.149   8.744   9.868
99024SOL    HW298970  12.065   8.869   9.854
99025SOL     OW98971   7.849  10.845   7.312
99025SOL    HW198972   7.772  10.873   7.361
99025SOL    HW298973   7.904  10.923   7.306
99026SOL     OW98974   1.790   4.807   3.711
99026SOL    HW198975   1.713   4.763   3.748
99026SOL    HW298976   1.861   4.744   3.721
99027SOL     OW98977   9.318  11.621   2.784
99027SOL    HW198978   9.276  11.600   2.700
99027SOL    HW298979   9.403  11.577   2.780
99028SOL     OW98980   8.628   2.450  14.726
99028SOL    HW198981   8.554   2.489  14.772
99028SOL    HW298982   8.652   2.373  14.778
99029SOL     OW98983   5.014  10.055   4.764
99029SOL    HW198984   5.074  10.004   4.818
99029SOL    HW298985   4.927  10.023   4.788
99030SOL     OW98986   7.401  11.520   3.873
99030SOL    HW198987   7.471  11.506   3.938
99030SOL    HW298988   7.447  11.528   3.790
99031SOL     OW98989   8.148  13.010   3.210
99031SOL    HW198990   8.100  13.047   3.284
99031SOL    HW298991   8.150  13.081   3.145
99032SOL     OW98992   7.707  14.491   0.862
99032SOL    HW198993   7.662  14.569   0.894
99032SOL    HW298994   7.765  14.522   0.793
99033SOL     OW98995   5.618  10.129  10.424
99033SOL    HW198996   5.633  10.082  10.342
99033SOL    HW298997   5.523  10.125  10.436
99034SOL     OW98998  10.329  10.398   6.449
99034SOL    HW198999  10.280  10.321   6.418
99034SOL    HW299000  10.421  10.371   6.442
99035SOL     OW99001  13.918  10.260   9.697
99035SOL    HW199002  14.012  10.264   9.679
99035SOL    HW299003  13.910  10.287   9.789
99036SOL     OW99004   2.864  10.302   2.572
99036SOL    HW199005   2.779  10.323   2.613
99036SOL    HW299006   2.843  10.238   2.505
99037SOL     OW99007   6.854   0.573   7.642
99037SOL    HW199008   6.814   0.658   7.662
99037SOL    HW299009   6.948   0.591   7.637
99038SOL     OW99010   3.493  14.242   8.516
99038SOL    HW199011   3.498  14.287   8.432
99038SOL    HW299012   3.414  14.188   8.510
99039SOL     OW99013   4.157   0.904   3.266
99039SOL    HW199014   4.106   0.869   3.193
99039SOL    HW299015   4.230   0.842   3.275
99040SOL     OW99016   6.355   8.313  12.601
99040SOL    HW199017   6.365   8.395  12.554
99040SOL    HW299018   6.277   8.325  12.655
99041SOL     OW99019   8.904   6.650   9.818
99041SOL    HW199020   8.818   6.666   9.858
99041SOL    HW299021   8.924   6.559   9.839
99042SOL     OW99022   1.379   0.808  11.738
99042SOL    HW199023   1.411   0.797  11.648
99042SOL    HW299024   1.351   0.720  11.764
99043SOL     OW99025   4.560   1.786  11.140
99043SOL    HW199026   4.523   1.780  11.228
99043SOL    HW299027   4.533   1.872  11.109
99044SOL     OW99028   4.617   3.982   0.938
99044SOL    HW199029   4.579   3.953   0.855
99044SOL    HW299030   4.668   3.907   0.968
99045SOL     OW99031   1.016   1.926  10.425
99045SOL    HW199032   1.002   1.876  10.505
99045SOL    HW299033   1.090   1.882  10.382
99046SOL     OW99034   4.434   1.250   5.504
99046SOL    HW199035   4.499   1.236   5.572
99046SOL    HW299036   4.356   1.205   5.535
99047SOL     OW99037   8.346   1.511   0.858
99047SOL    HW199038   8.412   1.523   0.926
99047SOL    HW299039   8.396   1.484   0.781
99048SOL     OW99040   3.598   6.977   6.075
99048SOL    HW199041   3.573   6.962   6.166
99048SOL    HW299042   3.528   7.030   6.039
99049SOL     OW99043  12.970   1.845   5.863
99049SOL    HW199044  13.046   1.894   5.895
99049SOL    HW299045  12.951   1.884   5.777
99050SOL     OW99046   4.956   4.153   2.838
99050SOL    HW199047   4.911   4.233   2.809
99050SOL    HW299048   4.900   4.082   2.806
99051SOL     OW99049  14.269   9.772   6.666
99051SOL    HW199050  14.199   9.713   6.694
99051SOL    HW299051  14.346   9.715   6.657
99052SOL     OW99052   7.483   0.099   2.308
99052SOL    HW199053   7.395   0.132   2.291
99052SOL    HW299054   7.522   0.087   2.222
99053SOL     OW99055   8.759  12.642   8.671
99053SOL    HW199056   8.816  12.619   8.744
99053SOL    HW299057   8.698  12.569   8.663
99054SOL     OW99058   8.986   7.623  12.646
99054SOL    HW199059   9.010   7.572  12.569
99054SOL    HW299060   9.033   7.706  12.636
99055SOL     OW99061   1.147   8.285   0.842
99055SOL    HW199062   1.170   8.198   0.808
99055SOL    HW299063   1.123   8.335   0.764
99056SOL     OW99064  11.698   6.609   9.521
99056SOL    HW199065  11.651   6.625   9.603
99056SOL    HW299066  11.706   6.513   9.517
99057SOL     OW99067   2.259   6.997  13.296
99057SOL    HW199068   2.252   7.002  13.391
99057SOL    HW299069   2.329   7.059  13.274
99058SOL     OW99070   0.968   1.542  14.561
99058SOL    HW199071   0.968   1.617  14.620
99058SOL    HW299072   0.951   1.580  14.474
99059SOL     OW99073   2.153   7.225   2.200
99059SOL    HW199074   2.085   7.185   2.147
99059SOL    HW299075   2.197   7.151   2.242
99060SOL     OW99076  14.407   1.982   8.374
99060SOL    HW199077  14.325   2.013   8.412
99060SOL    HW299078  14.422   1.897   8.416
99061SOL     OW99079   4.560   2.036   9.880
99061SOL    HW199080   4.544   2.059   9.971
99061SOL    HW299081   4.555   1.941   9.878
99062SOL     OW99082  11.139   7.120   1.771
99062SOL    HW199083  11.095   7.035   1.764
99062SOL    HW299084  11.101   7.160   1.849
99063SOL     OW99085   5.440   1.964   6.605
99063SOL    HW199086   5.404   1.904   6.540
99063SOL    HW299087   5.525   1.927   6.629
99064SOL     OW99088   8.451   8.058   2.607
99064SOL    HW199089   8.492   8.144   2.595
99064SOL    HW299090   8.364   8.078   2.641
99065SOL     OW99091  14.315   3.667   3.287
99065SOL    HW199092  14.282   3.740   3.340
99065SOL    HW299093  14.300   3.694   3.196
99066SOL     OW99094   6.854   4.112  12.009
99066SOL    HW199095   6.879   4.044  11.946
99066SOL    HW299096   6.780   4.157  11.968
99067SOL     OW99097   3.516  12.909   6.090
99067SOL    HW199098   3.572  12.983   6.068
99067SOL    HW299099   3.566  12.858   6.154
99068SOL     OW99100   6.625   0.058   8.338
99068SOL    HW199101   6.640   0.151   8.328
99068SOL    HW299102   6.532   0.051   8.362
99069SOL     OW99103   6.108   3.582   8.746
99069SOL    HW199104   6.157   3.664   8.743
99069SOL    HW299105   6.060   3.580   8.662
99070SOL     OW99106  11.541  12.513   3.270
99070SOL    HW199107  11.566  12.527   3.361
99070SOL    HW299108  11.571  12.425   3.250
99071SOL     OW99109   9.114   2.450  12.855
99071SOL    HW199110   9.154   2.447  12.941
99071SOL    HW299111   9.163   2.518  12.808
99072SOL     OW99112   0.166  11.986   2.249
99072SOL    HW199113   0.228  11.917   2.270
99072SOL    HW299114   0.154  11.980   2.154
99073SOL     OW99115   1.868   9.870  10.328
99073SOL    HW199116   1.899   9.808  10.394
99073SOL    HW299117   1.781   9.838  10.304
99074SOL     OW99118   2.884   5.029  14.314
99074SOL    HW199119   2.831   5.077  14.250
99074SOL    HW299120   2.954   4.990  14.262
99075SOL     OW99121   9.837   0.153   7.581
99075SOL    HW199122   9.931   0.136   7.592
99075SOL    HW299123   9.813   0.105   7.502
99076SOL     OW99124  11.238  14.656   1.792
99076SOL    HW199125  11.242  14.746   1.760
99076SOL    HW299126  11.301  14.608   1.738
99077SOL     OW99127   9.110   8.888   1.111
99077SOL    HW199128   9.135   8.838   1.188
99077SOL    HW299129   9.185   8.881   1.052
99078SOL     OW99130   7.131   5.308   0.964
99078SOL    HW199131   7.134   5.335   1.056
99078SOL    HW299132   7.065   5.364   0.925
99079SOL     OW99133   4.504   5.280   5.839
99079SOL    HW199134   4.480   5.329   5.917
99079SOL    HW299135   4.425   5.232   5.814
99080SOL     OW99136   6.481  11.156   8.273
99080SOL    HW199137   6.518  11.182   8.188
99080SOL    HW299138   6.460  11.063   8.262
99081SOL     OW99139   3.585  12.708   6.548
99081SOL    HW199140   3.507  12.719   6.602
99081SOL    HW299141   3.657  12.734   6.606
99082SOL     OW99142  14.823   0.572   9.448
99082SOL    HW199143  14.858   0.568   9.359
99082SOL    HW299144  14.783   0.487   9.462
99083SOL     OW99145   8.576  11.243   9.896
99083SOL    HW199146   8.536  11.329   9.906
99083SOL    HW299147   8.565  11.222   9.803
99084SOL     OW99148   5.018   5.824   9.558
99084SOL    HW199149   4.937   5.824   9.608
99084SOL    HW299150   5.006   5.757   9.492
99085SOL     OW99151  10.150   0.904   2.501
99085SOL    HW199152  10.108   0.819   2.513
99085SOL    HW299153  10.078   0.965   2.483
99086SOL     OW99154  14.158   7.712   7.494
99086SOL    HW199155  14.075   7.667   7.509
99086SOL    HW299156  14.132   7.798   7.460
99087SOL     OW99157   3.466  14.562  14.014
99087SOL    HW199158   3.466  14.468  13.997
99087SOL    HW299159   3.542  14.595  13.966
99088SOL     OW99160  11.532  11.875  12.776
99088SOL    HW199161  11.589  11.950  12.760
99088SOL    HW299162  11.490  11.858  12.692
99089SOL     OW99163  13.454   8.262   6.456
99089SOL    HW199164  13.457   8.204   6.381
99089SOL    HW299165  13.406   8.339   6.425
99090SOL     OW99166  12.440  10.002  13.505
99090SOL    HW199167  12.523  10.013  13.457
99090SOL    HW299168  12.373  10.016  13.438
99091SOL     OW99169   7.995  14.605  12.213
99091SOL    HW199170   7.970  14.513  12.225
99091SOL    HW299171   7.943  14.653  12.277
99092SOL     OW99172  12.275   6.878   6.152
99092SOL    HW199173  12.344   6.837   6.099
99092SOL    HW299174  12.300   6.970   6.157
99093SOL     OW99175   9.470   9.558  13.278
99093SOL    HW199176   9.480   9.593  13.190
99093SOL    HW299177   9.461   9.635  13.334
99094SOL     OW99178  14.118   2.678   4.106
99094SOL    HW199179  14.210   2.695   4.088
99094SOL    HW299180  14.114   2.584   4.123
99095SOL     OW99181  14.160   8.764  11.855
99095SOL    HW199182  14.255   8.760  11.862
99095SOL    HW299183  14.129   8.765  11.945
99096SOL     OW99184   9.960  13.188   5.855
99096SOL    HW199185   9.977  13.229   5.940
99096SOL    HW299186  10.042  13.145   5.832
99097SOL     OW99187   1.649   3.265   7.483
99097SOL    HW199188   1.717   3.201   7.464
99097SOL    HW299189   1.649   3.272   7.579
99098SOL     OW99190  14.324   0.207  14.744
99098SOL    HW199191  14.335   0.143  14.814
99098SOL    HW299192  14.413   0.230  14.718
99099SOL     OW99193  10.044   8.878   7.099
99099SOL    HW199194  10.094   8.868   7.180
99099SOL    HW299195  10.015   8.969   7.100
99100SOL     OW99196   4.464  14.198  13.885
99100SOL    HW199197   4.501  14.110  13.873
99100SOL    HW299198   4.533  14.257  13.857
99101SOL     OW99199   9.327   4.329   9.427
99101SOL    HW199200   9.238   4.292   9.423
99101SOL    HW299201   9.321   4.412   9.380
99102SOL     OW99202  12.028   3.668   1.352
99102SOL    HW199203  12.087   3.649   1.425
99102SOL    HW299204  12.074   3.632   1.276
99103SOL     OW99205  14.098   2.690   7.116
99103SOL    HW199206  14.183   2.645   7.114
99103SOL    HW299207  14.038   2.628   7.074
99104SOL     OW99208  14.088   9.333  11.231
99104SOL    HW199209  14.007   9.335  11.282
99104SOL    HW299210  14.072   9.393  11.159
99105SOL     OW99211  13.648   6.817   6.818
99105SOL    HW199212  13.652   6.750   6.750
99105SOL    HW299213  13.568   6.866   6.798
99106SOL     OW99214   6.329  11.243  14.773
99106SOL    HW199215   6.304  11.330  14.803
99106SOL    HW299216   6.285  11.183  14.833
99107SOL     OW99217   1.441   2.759   1.720
99107SOL    HW199218   1.358   2.710   1.721
99107SOL    HW299219   1.458   2.779   1.812
99108SOL     OW99220   9.693  13.663   1.903
99108SOL    HW199221   9.621  13.652   1.840
99108SOL    HW299222   9.744  13.582   1.894
99109SOL     OW99223   0.736  10.398   7.954
99109SOL    HW199224   0.794  10.322   7.958
99109SOL    HW299225   0.665  10.375   8.015
99110SOL     OW99226  13.646   3.699   8.795
99110SOL    HW199227  13.555   3.677   8.776
99110SOL    HW299228  13.689   3.699   8.709
99111SOL     OW99229   9.300   6.306  13.999
99111SOL    HW199230   9.329   6.369  13.933
99111SOL    HW299231   9.380   6.277  14.042
99112SOL     OW99232  11.742   6.399  11.496
99112SOL    HW199233  11.722   6.319  11.545
99112SOL    HW299234  11.765   6.368  11.409
99113SOL     OW99235  13.728   1.421   2.727
99113SOL    HW199236  13.820   1.435   2.705
99113SOL    HW299237  13.727   1.417   2.823
99114SOL     OW99238   9.701   8.219   1.351
99114SOL    HW199239   9.642   8.269   1.295
99114SOL    HW299240   9.778   8.274   1.360
99115SOL     OW99241   7.109   7.712   8.532
99115SOL    HW199242   7.130   7.805   8.542
99115SOL    HW299243   7.078   7.704   8.442
99116SOL     OW99244  14.077   9.570   5.532
99116SOL    HW199245  14.020   9.565   5.456
99116SOL    HW299246  14.121   9.654   5.524
99117SOL     OW99247   6.429  12.903  10.991
99117SOL    HW199248   6.356  12.869  10.939
99117SOL    HW299249   6.469  12.826  11.029
99118SOL     OW99250  13.283   9.622  11.949
99118SOL    HW199251  13.368   9.611  11.906
99118SOL    HW299252  13.291   9.572  12.031
99119SOL     OW99253  11.641  12.133  13.675
99119SOL    HW199254  11.616  12.224  13.692
99119SOL    HW299255  11.615  12.117  13.585
99120SOL     OW99256   3.708   7.090   2.718
99120SOL    HW199257   3.681   7.180   2.736
99120SOL    HW299258   3.647   7.059   2.651
99121SOL     OW99259   1.262   9.455  10.740
99121SOL    HW199260   1.230   9.480  10.653
99121SOL    HW299261   1.298   9.536  10.777
99122SOL     OW99262  12.067   3.280   8.430
99122SOL    HW199263  12.027   3.322   8.505
99122SOL    HW299264  12.110   3.351   8.382
99123SOL     OW99265  10.906  11.338   2.549
99123SOL    HW199266  10.941  11.427   2.552
99123SOL    HW299267  10.964  11.287   2.605
99124SOL     OW99268  12.213  12.512   3.204
99124SOL    HW199269  12.257  12.433   3.236
99124SOL    HW299270  12.130  12.513   3.252
99125SOL     OW99271   5.942   1.344   9.040
99125SOL    HW199272   5.965   1.339   9.133
99125SOL    HW299273   6.017   1.304   8.995
99126SOL     OW99274   5.459  11.562   0.230
99126SOL    HW199275   5.508  11.510   0.293
99126SOL    HW299276   5.431  11.639   0.280
99127SOL     OW99277   1.362   5.213   7.241
99127SOL    HW199278   1.421   5.180   7.173
99127SOL    HW299279   1.361   5.143   7.307
99128SOL     OW99280   7.667   9.635  13.195
99128SOL    HW199281   7.745   9.613  13.144
99128SOL    HW299282   7.691   9.614  13.285
99129SOL     OW99283  14.541   2.352   5.076
99129SOL    HW199284  14.602   2.425   5.086
99129SOL    HW299285  14.516   2.354   4.984
99130SOL     OW99286  13.238   0.061   6.340
99130SOL    HW199287  13.180   0.039   6.412
99130SOL    HW299288  13.296   0.129   6.375
99131SOL     OW99289   9.602   7.157   9.394
99131SOL    HW199290   9.625   7.093   9.328
99131SOL    HW299291   9.516   7.130   9.426
99132SOL     OW99292   0.010   4.571   3.239
99132SOL    HW199293   0.097   4.544   3.210
99132SOL    HW299294  14.824   4.494   3.223
99133SOL     OW99295   6.550  12.285   9.612
99133SOL    HW199296   6.580  12.238   9.534
99133SOL    HW299297   6.461  12.252   9.627
99134SOL     OW99298  14.547  13.337  13.173
99134SOL    HW199299  14.468  13.384  13.199
99134SOL    HW299300  14.612  13.406  13.157
99135SOL     OW99301   2.290   0.519  12.429
99135SOL    HW199302   2.230   0.472  12.488
99135SOL    HW299303   2.249   0.605  12.416
99136SOL     OW99304   1.983  12.007  11.194
99136SOL    HW199305   1.890  11.989  11.180
99136SOL    HW299306   2.021  12.006  11.106
99137SOL     OW99307   9.721   0.454   1.778
99137SOL    HW199308   9.687   0.470   1.690
99137SOL    HW299309   9.808   0.416   1.763
99138SOL     OW99310  10.185  12.602   4.834
99138SOL    HW199311  10.112  12.546   4.809
99138SOL    HW299312  10.156  12.646   4.914
99139SOL     OW99313   3.576   7.212   5.582
99139SOL    HW199314   3.626   7.268   5.641
99139SOL    HW299315   3.642   7.158   5.538
99140SOL     OW99316  14.828   1.370   7.130
99140SOL    HW199317   0.046   1.408   7.132
99140SOL    HW299318  14.838   1.284   7.173
99141SOL     OW99319   1.768   4.046   5.267
99141SOL    HW199320   1.697   4.106   5.240
99141SOL    HW299321   1.740   4.013   5.352
99142SOL     OW99322   4.220   5.050  14.486
99142SOL    HW199323   4.187   5.103  14.414
99142SOL    HW299324   4.169   5.079  14.562
99143SOL     OW99325  10.417   9.868   1.824
99143SOL    HW199326  10.495   9.841   1.776
99143SOL    HW299327  10.451   9.904   1.907
99144SOL     OW99328   5.106  11.602   5.378
99144SOL    HW199329   5.162  11.678   5.362
99144SOL    HW299330   5.165  11.537   5.416
99145SOL     OW99331   7.533   6.399   2.261
99145SOL    HW199332   7.544   6.493   2.251
99145SOL    HW299333   7.480   6.373   2.185
99146SOL     OW99334  11.981   6.073  11.495
99146SOL    HW199335  11.915   6.042  11.433
99146SOL    HW299336  11.932   6.087  11.576
99147SOL     OW99337  12.810  11.899  10.169
99147SOL    HW199338  12.897  11.939  10.162
99147SOL    HW299339  12.784  11.884  10.078
99148SOL     OW99340   1.279  13.956  10.764
99148SOL    HW199341   1.349  14.000  10.813
99148SOL    HW299342   1.306  13.864  10.762
99149SOL     OW99343   2.000   0.706   3.058
99149SOL    HW199344   1.975   0.724   3.148
99149SOL    HW299345   1.989   0.789   3.012
99150SOL     OW99346   6.388   4.932   6.107
99150SOL    HW199347   6.322   4.985   6.063
99150SOL    HW299348   6.338   4.862   6.149
99151SOL     OW99349  10.171   0.087   7.441
99151SOL    HW199350  10.163   0.182   7.456
99151SOL    HW299351  10.234   0.058   7.506
99152SOL     OW99352  11.366   8.955   7.941
99152SOL    HW199353  11.319   9.017   7.884
99152SOL    HW299354  11.308   8.879   7.946
99153SOL     OW99355   9.980   8.629  12.368
99153SOL    HW199356  10.011   8.541  12.386
99153SOL    HW299357  10.059   8.684  12.369
99154SOL     OW99358   5.238   0.069   4.243
99154SOL    HW199359   5.220  14.846   4.257
99154SOL    HW299360   5.301   0.092   4.312
99155SOL     OW99361   9.018  14.520   7.219
99155SOL    HW199362   8.961  14.534   7.295
99155SOL    HW299363   9.100  14.490   7.257
99156SOL     OW99364   3.761   9.575   4.893
99156SOL    HW199365   3.844   9.620   4.883
99156SOL    HW299366   3.753   9.522   4.813
99157SOL     OW99367  14.129   8.262   9.744
99157SOL    HW199368  14.051   8.211   9.723
99157SOL    HW299369  14.201   8.213   9.704
99158SOL     OW99370  11.084   5.818  12.913
99158SOL    HW199371  11.028   5.841  12.840
99158SOL    HW299372  11.094   5.723  12.907
99159SOL     OW99373   9.909   9.204  11.597
99159SOL    HW199374   9.967   9.222  11.524
99159SOL    HW299375   9.966   9.208  11.674
99160SOL     OW99376   5.543   4.050  14.070
99160SOL    HW199377   5.509   4.032  13.983
99160SOL    HW299378   5.483   4.115  14.107
99161SOL     OW99379  10.815   1.462  13.469
99161SOL    HW199380  10.840   1.382  13.425
99161SOL    HW299381  10.754   1.434  13.538
99162SOL     OW99382   9.629  13.192   0.596
99162SOL    HW199383   9.573  13.270   0.593
99162SOL    HW299384   9.718  13.226   0.589
99163SOL     OW99385   2.707   1.559  11.587
99163SOL    HW199386   2.777   1.606  11.632
99163SOL    HW299387   2.631   1.567  11.644
99164SOL     OW99388  13.422   2.896   8.230
99164SOL    HW199389  13.456   2.809   8.249
99164SOL    HW299390  13.350   2.881   8.169
99165SOL     OW99391   6.427  14.782   3.367
99165SOL    HW199392   6.390  14.797   3.454
99165SOL    HW299393   6.475  14.862   3.347
99166SOL     OW99394   4.379   9.238   6.756
99166SOL    HW199395   4.362   9.289   6.677
99166SOL    HW299396   4.300   9.247   6.808
99167SOL     OW99397   6.690   8.796   1.773
99167SOL    HW199398   6.719   8.713   1.735
99167SOL    HW299399   6.597   8.801   1.752
99168SOL     OW99400   7.742   0.625  13.193
99168SOL    HW199401   7.649   0.603  13.199
99168SOL    HW299402   7.755   0.649  13.102
99169SOL     OW99403   9.589   5.237   0.128
99169SOL    HW199404   9.597   5.225   0.033
99169SOL    HW299405   9.566   5.330   0.138
99170SOL     OW99406   7.076  14.014   2.183
99170SOL    HW199407   7.092  14.040   2.092
99170SOL    HW299408   6.985  13.985   2.184
99171SOL     OW99409   6.200  13.126  14.179
99171SOL    HW199410   6.113  13.093  14.202
99171SOL    HW299411   6.183  13.205  14.129
99172SOL     OW99412  14.092   1.205   2.536
99172SOL    HW199413  14.185   1.196   2.513
99172SOL    HW299414  14.046   1.202   2.453
99173SOL     OW99415  12.990   5.671   1.127
99173SOL    HW199416  12.930   5.604   1.095
99173SOL    HW299417  13.073   5.625   1.140
99174SOL     OW99418   1.005   9.902   8.976
99174SOL    HW199419   1.060   9.833   8.939
99174SOL    HW299420   1.067   9.969   9.005
99175SOL     OW99421   9.366   8.363   8.414
99175SOL    HW199422   9.424   8.421   8.463
99175SOL    HW299423   9.417   8.336   8.339
99176SOL     OW99424  13.051   4.987   8.054
99176SOL    HW199425  13.083   4.945   7.973
99176SOL    HW299426  13.010   5.068   8.024
99177SOL     OW99427  14.047  14.022   1.438
99177SOL    HW199428  14.074  13.985   1.522
99177SOL    HW299429  14.120  14.078   1.411
99178SOL     OW99430  11.916  10.386   2.421
99178SOL    HW199431  11.882  10.303   2.389
99178SOL    HW299432  12.002  10.395   2.379
99179SOL     OW99433  12.556   3.249  13.698
99179SOL    HW199434  12.602   3.175  13.740
99179SOL    HW299435  12.463   3.231  13.713
99180SOL     OW99436  14.500   5.945   8.932
99180SOL    HW199437  14.591   5.928   8.957
99180SOL    HW299438  14.486   5.892   8.854
99181SOL     OW99439   4.026   2.000   2.040
99181SOL    HW199440   4.113   2.014   2.077
99181SOL    HW299441   3.998   1.915   2.076
99182SOL     OW99442   6.947  10.914   3.184
99182SOL    HW199443   7.019  10.860   3.217
99182SOL    HW299444   6.901  10.943   3.262
99183SOL     OW99445   1.393  11.579   4.742
99183SOL    HW199446   1.474  11.530   4.726
99183SOL    HW299447   1.422  11.666   4.768
99184SOL     OW99448   5.204   8.935  10.960
99184SOL    HW199449   5.183   8.954  10.869
99184SOL    HW299450   5.280   8.991  10.979
99185SOL     OW99451   7.040   6.096   4.377
99185SOL    HW199452   6.945   6.083   4.370
99185SOL    HW299453   7.054   6.126   4.467
99186SOL     OW99454   9.862   6.464  10.026
99186SOL    HW199455   9.944   6.418  10.048
99186SOL    HW299456   9.850   6.448   9.933
99187SOL     OW99457   9.141   3.271  10.582
99187SOL    HW199458   9.088   3.293  10.505
99187SOL    HW299459   9.093   3.309  10.655
99188SOL     OW99460   9.215  12.607   4.803
99188SOL    HW199461   9.146  12.667   4.833
99188SOL    HW299462   9.189  12.521   4.837
99189SOL     OW99463   0.552  13.774   4.304
99189SOL    HW199464   0.622  13.839   4.302
99189SOL    HW299465   0.516  13.774   4.215
99190SOL     OW99466   4.561   4.777  11.956
99190SOL    HW199467   4.566   4.740  11.868
99190SOL    HW299468   4.563   4.872  11.942
99191SOL     OW99469  11.263  13.674   2.987
99191SOL    HW199470  11.310  13.704   3.064
99191SOL    HW299471  11.171  13.669   3.014
99192SOL     OW99472   0.439   3.287   9.031
99192SOL    HW199473   0.398   3.204   9.006
99192SOL    HW299474   0.532   3.274   9.013
99193SOL     OW99475  11.883   3.200  14.532
99193SOL    HW199476  11.815   3.134  14.517
99193SOL    HW299477  11.964   3.150  14.539
99194SOL     OW99478   4.611   4.284  14.746
99194SOL    HW199479   4.707   4.285  14.750
99194SOL    HW299480   4.590   4.319  14.659
99195SOL     OW99481   2.128  10.344   6.874
99195SOL    HW199482   2.121  10.390   6.791
99195SOL    HW299483   2.050  10.370   6.923
99196SOL     OW99484  14.685   7.443  14.819
99196SOL    HW199485  14.611   7.459   0.008
99196SOL    HW299486  14.723   7.361  14.851
99197SOL     OW99487  14.611   8.374   0.750
99197SOL    HW199488  14.584   8.438   0.816
99197SOL    HW299489  14.541   8.309   0.750
99198SOL     OW99490  12.651  10.196  14.335
99198SOL    HW199491  12.734  10.222  14.375
99198SOL    HW299492  12.612  10.279  14.306
99199SOL     OW99493   7.746   7.277   9.715
99199SOL    HW199494   7.810   7.325   9.662
99199SOL    HW299495   7.785   7.276   9.803
99200SOL     OW99496   2.123   2.525  13.073
99200SOL    HW199497   2.137   2.432  13.091
99200SOL    HW299498   2.196   2.569  13.117
99201SOL     OW99499   4.458   5.072   3.551
99201SOL    HW199500   4.505   5.152   3.576
99201SOL    HW299501   4.481   5.009   3.619
99202SOL     OW99502  12.238   4.824   1.461
99202SOL    HW199503  12.204   4.808   1.373
99202SOL    HW299504  12.222   4.741   1.508
99203SOL     OW99505  11.527   6.626   9.733
99203SOL    HW199506  11.443   6.611   9.689
99203SOL    HW299507  11.522   6.715   9.767
99204SOL     OW99508  12.145  10.315   6.100
99204SOL    HW199509  12.176  10.249   6.162
99204SOL    HW299510  12.050  10.319   6.114
99205SOL     OW99511   5.242   1.696   8.528
99205SOL    HW199512   5.288   1.705   8.611
99205SOL    HW299513   5.310   1.674   8.465
99206SOL     OW99514  14.570   6.274   7.949
99206SOL    HW199515  14.488   6.291   7.997
99206SOL    HW299516  14.548   6.292   7.857
99207SOL     OW99517   7.621   4.444  11.245
99207SOL    HW199518   7.549   4.470  11.189
99207SOL    HW299519   7.692   4.422  11.185
99208SOL     OW99520  12.135   6.135   2.798
99208SOL    HW199521  12.114   6.103   2.711
99208SOL    HW299522  12.051   6.164   2.834
99209SOL     OW99523   6.826   7.032   7.856
99209SOL    HW199524   6.874   7.018   7.937
99209SOL    HW299525   6.785   6.947   7.836
99210SOL     OW99526   2.995   3.574  10.219
99210SOL    HW199527   2.956   3.588  10.305
99210SOL    HW299528   2.927   3.603  10.157
99211SOL     OW99529   0.350  12.565   0.044
99211SOL    HW199530   0.381  12.656   0.041
99211SOL    HW299531   0.419  12.515   0.000
99212SOL     OW99532   9.402  13.955   6.539
99212SOL    HW199533   9.432  14.015   6.471
99212SOL    HW299534   9.481  13.915   6.574
99213SOL     OW99535   3.616  12.471  14.729
99213SOL    HW199536   3.629  12.382  14.697
99213SOL    HW299537   3.574  12.517  14.656
99214SOL     OW99538   0.421   9.944  11.051
99214SOL    HW199539   0.446   9.985  11.134
99214SOL    HW299540   0.502   9.906  11.018
99215SOL     OW99541   7.698   7.743   4.431
99215SOL    HW199542   7.638   7.668   4.429
99215SOL    HW299543   7.783   7.707   4.405
99216SOL     OW99544   7.099   8.330   3.382
99216SOL    HW199545   7.029   8.285   3.336
99216SOL    HW299546   7.110   8.282   3.464
99217SOL     OW99547   8.217   3.385   0.815
99217SOL    HW199548   8.223   3.302   0.769
99217SOL    HW299549   8.186   3.362   0.903
99218SOL     OW99550  12.850   0.093   3.532
99218SOL    HW199551  12.761   0.062   3.548
99218SOL    HW299552  12.882   0.039   3.460
99219SOL     OW99553  11.958  14.432   4.576
99219SOL    HW199554  11.977  14.476   4.493
99219SOL    HW299555  11.871  14.395   4.564
99220SOL     OW99556   9.142   4.140   1.794
99220SOL    HW199557   9.112   4.063   1.842
99220SOL    HW299558   9.095   4.213   1.835
99221SOL     OW99559   5.326  12.462   4.701
99221SOL    HW199560   5.335  12.367   4.712
99221SOL    HW299561   5.301  12.474   4.610
99222SOL     OW99562   5.954   8.785   6.969
99222SOL    HW199563   5.952   8.878   6.990
99222SOL    HW299564   6.047   8.765   6.956
99223SOL     OW99565   7.296   5.097   0.522
99223SOL    HW199566   7.381   5.057   0.503
99223SOL    HW299567   7.269   5.060   0.606
99224SOL     OW99568   0.079   6.746  13.977
99224SOL    HW199569   0.103   6.659  13.946
99224SOL    HW299570  14.866   6.734  14.023
99225SOL     OW99571   2.753   3.007   6.602
99225SOL    HW199572   2.729   3.074   6.539
99225SOL    HW299573   2.834   2.969   6.568
99226SOL     OW99574   8.720   4.280   7.249
99226SOL    HW199575   8.792   4.255   7.306
99226SOL    HW299576   8.646   4.229   7.279
99227SOL     OW99577   1.598   9.813   3.922
99227SOL    HW199578   1.635   9.733   3.885
99227SOL    HW299579   1.607   9.802   4.017
99228SOL     OW99580   9.436   6.016  10.153
99228SOL    HW199581   9.431   5.945  10.089
99228SOL    HW299582   9.447   5.972  10.237
99229SOL     OW99583  10.507   2.967  14.370
99229SOL    HW199584  10.597   2.948  14.398
99229SOL    HW299585  10.455   2.896  14.409
99230SOL     OW99586  10.835   4.913   0.008
99230SOL    HW199587  10.884   4.990   0.034
99230SOL    HW299588  10.809   4.930  14.787
99231SOL     OW99589   3.324   0.962  10.362
99231SOL    HW199590   3.247   0.906  10.351
99231SOL    HW299591   3.312   1.003  10.447
99232SOL     OW99592   9.248   6.406  12.362
99232SOL    HW199593   9.205   6.480  12.405
99232SOL    HW299594   9.248   6.430  12.269
99233SOL     OW99595  10.350   9.589   0.170
99233SOL    HW199596  10.308   9.672   0.146
99233SOL    HW299597  10.366   9.597   0.264
99234SOL     OW99598   2.750  12.540  13.979
99234SOL    HW199599   2.705  12.461  14.009
99234SOL    HW299600   2.784  12.581  14.058
99235SOL     OW99601  11.712  13.302  12.073
99235SOL    HW199602  11.702  13.244  11.996
99235SOL    HW299603  11.734  13.387  12.036
99236SOL     OW99604   6.585  13.490  10.395
99236SOL    HW199605   6.568  13.424  10.463
99236SOL    HW299606   6.499  13.522  10.372
99237SOL     OW99607  11.822   2.508  12.963
99237SOL    HW199608  11.888   2.547  13.020
99237SOL    HW299609  11.841   2.545  12.877
99238SOL     OW99610  10.527   2.067   6.251
99238SOL    HW199611  10.441   2.094   6.220
99238SOL    HW299612  10.565   2.146   6.290
99239SOL     OW99613   2.986   2.845  13.658
99239SOL    HW199614   2.979   2.894  13.576
99239SOL    HW299615   2.919   2.883  13.714
99240SOL     OW99616   2.900   1.417   6.997
99240SOL    HW199617   2.881   1.424   7.091
99240SOL    HW299618   2.837   1.353   6.965
99241SOL     OW99619  12.483  11.041   2.798
99241SOL    HW199620  12.564  11.013   2.841
99241SOL    HW299621  12.465  10.974   2.733
99242SOL     OW99622   4.005   0.636   9.043
99242SOL    HW199623   3.961   0.719   9.062
99242SOL    HW299624   3.962   0.573   9.102
99243SOL     OW99625   7.076  13.839  10.650
99243SOL    HW199626   7.083  13.759  10.701
99243SOL    HW299627   6.988  13.836  10.611
99244SOL     OW99628   1.352  14.047  14.579
99244SOL    HW199629   1.348  14.025  14.672
99244SOL    HW299630   1.263  14.076  14.558
99245SOL     OW99631   8.255   7.458   2.886
99245SOL    HW199632   8.312   7.443   2.961
99245SOL    HW299633   8.267   7.380   2.831
99246SOL     OW99634   4.379  12.110   4.222
99246SOL    HW199635   4.463  12.137   4.259
99246SOL    HW299636   4.403  12.048   4.153
99247SOL     OW99637   2.655   9.721   3.188
99247SOL    HW199638   2.740   9.689   3.218
99247SOL    HW299639   2.676   9.783   3.118
99248SOL     OW99640   4.602   1.998  12.651
99248SOL    HW199641   4.532   1.988  12.716
99248SOL    HW299642   4.664   1.927  12.671
99249SOL     OW99643  13.969  10.448   4.662
99249SOL    HW199644  14.008  10.519   4.609
99249SOL    HW299645  13.946  10.491   4.745
99250SOL     OW99646  12.188   7.053  13.097
99250SOL    HW199647  12.122   6.984  13.094
99250SOL    HW299648  12.249   7.031  13.026
99251SOL     OW99649   8.827  11.734   4.281
99251SOL    HW199650   8.733  11.749   4.295
99251SOL    HW299651   8.832  11.646   4.243
99252SOL     OW99652   7.068  11.565  12.139
99252SOL    HW199653   7.034  11.533  12.223
99252SOL    HW299654   7.073  11.487  12.084
99253SOL     OW99655   8.210   8.076   2.752
99253SOL    HW199656   8.166   7.991   2.750
99253SOL    HW299657   8.150   8.134   2.705
99254SOL     OW99658   8.945   1.475   0.343
99254SOL    HW199659   8.960   1.509   0.255
99254SOL    HW299660   8.965   1.548   0.401
99255SOL     OW99661   6.282   5.945  13.049
99255SOL    HW199662   6.367   5.907  13.028
99255SOL    HW299663   6.288   6.035  13.018
99256SOL     OW99664   6.253   3.323   9.289
99256SOL    HW199665   6.234   3.315   9.383
99256SOL    HW299666   6.297   3.408   9.281
99257SOL     OW99667  13.655   6.714  10.485
99257SOL    HW199668  13.616   6.778  10.545
99257SOL    HW299669  13.749   6.728  10.493
99258SOL     OW99670   2.831  12.602   3.095
99258SOL    HW199671   2.852  12.695   3.100
99258SOL    HW299672   2.848  12.568   3.183
99259SOL     OW99673   4.872   6.803   9.929
99259SOL    HW199674   4.851   6.710   9.922
99259SOL    HW299675   4.840   6.840   9.847
99260SOL     OW99676   9.768  13.086   5.468
99260SOL    HW199677   9.723  13.162   5.504
99260SOL    HW299678   9.852  13.120   5.438
99261SOL     OW99679   0.451   8.658  13.421
99261SOL    HW199680   0.423   8.688  13.334
99261SOL    HW299681   0.540   8.692  13.430
99262SOL     OW99682   5.883   8.815  11.845
99262SOL    HW199683   5.916   8.792  11.758
99262SOL    HW299684   5.834   8.896  11.831
99263SOL     OW99685   9.323   0.056   2.586
99263SOL    HW199686   9.305   0.091   2.674
99263SOL    HW299687   9.410   0.089   2.564
99264SOL     OW99688  13.569  14.438   1.258
99264SOL    HW199689  13.656  14.402   1.273
99264SOL    HW299690  13.569  14.463   1.165
99265SOL     OW99691   5.763   8.759   9.884
99265SOL    HW199692   5.759   8.780   9.791
99265SOL    HW299693   5.786   8.666   9.887
99266SOL     OW99694  10.325   8.455   3.870
99266SOL    HW199695  10.360   8.531   3.825
99266SOL    HW299696  10.298   8.395   3.800
99267SOL     OW99697   0.984  11.010  10.644
99267SOL    HW199698   0.903  10.959  10.643
99267SOL    HW299699   1.052  10.947  10.624
99268SOL     OW99700  11.264  12.391   5.654
99268SOL    HW199701  11.171  12.386   5.675
99268SOL    HW299702  11.284  12.307   5.612
99269SOL     OW99703   1.015  12.007   7.977
99269SOL    HW199704   1.107  11.998   7.952
99269SOL    HW299705   0.968  11.947   7.919
99270SOL     OW99706   6.581   7.378   9.457
99270SOL    HW199707   6.614   7.290   9.443
99270SOL    HW299708   6.547   7.405   9.371
99271SOL     OW99709   6.870   2.077   2.790
99271SOL    HW199710   6.924   2.152   2.813
99271SOL    HW299711   6.913   2.038   2.714
99272SOL     OW99712  13.241   8.878  14.685
99272SOL    HW199713  13.170   8.928  14.725
99272SOL    HW299714  13.259   8.924  14.602
99273SOL     OW99715   4.955   5.872   3.355
99273SOL    HW199716   4.973   5.822   3.276
99273SOL    HW299717   4.860   5.865   3.368
99274SOL     OW99718   8.801   8.259  10.093
99274SOL    HW199719   8.714   8.293  10.113
99274SOL    HW299720   8.846   8.257  10.178
99275SOL     OW99721   4.512   9.035   7.599
99275SOL    HW199722   4.450   9.007   7.666
99275SOL    HW299723   4.484   8.989   7.520
99276SOL     OW99724   8.895   1.168  11.757
99276SOL    HW199725   8.944   1.227  11.814
99276SOL    HW299726   8.810   1.210  11.747
99277SOL     OW99727   9.626   1.427  13.486
99277SOL    HW199728   9.665   1.442  13.572
99277SOL    HW299729   9.618   1.332  13.479
99278SOL     OW99730   7.612   9.014   9.924
99278SOL    HW199731   7.640   8.923   9.916
99278SOL    HW299732   7.669   9.063   9.865
99279SOL     OW99733  13.622   6.279   6.115
99279SOL    HW199734  13.608   6.189   6.083
99279SOL    HW299735  13.703   6.307   6.072
99280SOL     OW99736  14.247   3.259   4.826
99280SOL    HW199737  14.263   3.269   4.920
99280SOL    HW299738  14.319   3.203   4.796
99281SOL     OW99739   8.277   0.715   9.433
99281SOL    HW199740   8.352   0.753   9.478
99281SOL    HW299741   8.252   0.781   9.368
99282SOL     OW99742   5.565   7.584   1.293
99282SOL    HW199743   5.659   7.600   1.296
99282SOL    HW299744   5.535   7.630   1.215
99283SOL     OW99745   0.493   2.223   1.084
99283SOL    HW199746   0.471   2.220   0.991
99283SOL    HW299747   0.574   2.172   1.091
99284SOL     OW99748  11.824   2.737   8.677
99284SOL    HW199749  11.869   2.804   8.626
99284SOL    HW299750  11.893   2.674   8.701
99285SOL     OW99751   2.358  14.211   3.204
99285SOL    HW199752   2.358  14.245   3.294
99285SOL    HW299753   2.291  14.143   3.204
99286SOL     OW99754  12.123  14.095   0.103
99286SOL    HW199755  12.074  14.155   0.159
99286SOL    HW299756  12.173  14.152   0.045
99287SOL     OW99757   8.415  12.369   9.821
99287SOL    HW199758   8.495  12.319   9.808
99287SOL    HW299759   8.348  12.319   9.775
99288SOL     OW99760   7.221   9.025   6.334
99288SOL    HW199761   7.175   8.964   6.276
99288SOL    HW299762   7.293   9.059   6.282
99289SOL     OW99763   2.675   1.897  11.750
99289SOL    HW199764   2.687   1.821  11.807
99289SOL    HW299765   2.761   1.937  11.745
99290SOL     OW99766   8.688   8.897  14.217
99290SOL    HW199767   8.680   8.813  14.172
99290SOL    HW299768   8.767   8.889  14.270
99291SOL     OW99769  10.022  11.066   8.181
99291SOL    HW199770  10.002  11.156   8.156
99291SOL    HW299771  10.117  11.061   8.179
99292SOL     OW99772   2.814   5.682   2.841
99292SOL    HW199773   2.896   5.719   2.808
99292SOL    HW299774   2.829   5.587   2.840
99293SOL     OW99775   5.412   0.522   3.679
99293SOL    HW199776   5.479   0.458   3.701
99293SOL    HW299777   5.440   0.602   3.723
99294SOL     OW99778   7.509  11.138   0.816
99294SOL    HW199779   7.506  11.069   0.749
99294SOL    HW299780   7.595  11.129   0.856
99295SOL     OW99781   0.853  11.011   7.314
99295SOL    HW199782   0.801  11.035   7.391
99295SOL    HW299783   0.892  10.927   7.337
99296SOL     OW99784   5.560   7.954   3.144
99296SOL    HW199785   5.649   7.930   3.117
99296SOL    HW299786   5.503   7.908   3.082
99297SOL     OW99787  10.281  14.554   1.638
99297SOL    HW199788  10.362  14.588   1.601
99297SOL    HW299789  10.215  14.571   1.571
99298SOL     OW99790  10.380   2.100   5.729
99298SOL    HW199791  10.343   2.035   5.669
99298SOL    HW299792  10.469   2.069   5.745
99299SOL     OW99793   9.565  10.544   3.025
99299SOL    HW199794   9.648  10.518   3.066
99299SOL    HW299795   9.578  10.528   2.932
99300SOL     OW99796   1.025  13.227  11.920
99300SOL    HW199797   0.967  13.164  11.876
99300SOL    HW299798   1.067  13.274  11.849
99301SOL     OW99799   1.042   6.998   7.000
99301SOL    HW199800   0.986   7.069   6.968
99301SOL    HW299801   0.982   6.929   7.027
99302SOL     OW99802   8.745  11.094  11.555
99302SOL    HW199803   8.841  11.092  11.560
99302SOL    HW299804   8.716  11.036  11.624
99303SOL     OW99805   8.246  11.326   8.220
99303SOL    HW199806   8.239  11.360   8.131
99303SOL    HW299807   8.327  11.363   8.254
99304SOL     OW99808  12.638   4.868   8.142
99304SOL    HW199809  12.711   4.916   8.181
99304SOL    HW299810  12.560   4.914   8.171
99305SOL     OW99811   6.820   1.828  13.592
99305SOL    HW199812   6.794   1.770  13.521
99305SOL    HW299813   6.905   1.863  13.566
99306SOL     OW99814   9.857   8.047  13.958
99306SOL    HW199815   9.856   7.952  13.949
99306SOL    HW299816   9.950   8.069  13.967
99307SOL     OW99817   6.634  11.477   0.872
99307SOL    HW199818   6.562  11.465   0.933
99307SOL    HW299819   6.687  11.398   0.881
99308SOL     OW99820   5.763  13.083  10.023
99308SOL    HW199821   5.856  13.081  10.002
99308SOL    HW299822   5.722  13.025   9.959
99309SOL     OW99823   5.139  14.283   9.749
99309SOL    HW199824   5.198  14.336   9.696
99309SOL    HW299825   5.115  14.210   9.692
99310SOL     OW99826   0.532   2.389   2.751
99310SOL    HW199827   0.559   2.380   2.842
99310SOL    HW299828   0.564   2.310   2.708
99311SOL     OW99829  12.099   4.927   4.534
99311SOL    HW199830  12.184   4.970   4.545
99311SOL    HW299831  12.119   4.833   4.535
99312SOL     OW99832   4.455  13.803   9.437
99312SOL    HW199833   4.534  13.821   9.489
99312SOL    HW299834   4.401  13.749   9.494
99313SOL     OW99835   0.316  13.258  14.439
99313SOL    HW199836   0.351  13.174  14.470
99313SOL    HW299837   0.352  13.323  14.499
99314SOL     OW99838   9.928  11.329  11.355
99314SOL    HW199839   9.909  11.361  11.443
99314SOL    HW299840   9.859  11.365  11.300
99315SOL     OW99841   0.505  14.077  10.124
99315SOL    HW199842   0.453  14.155  10.143
99315SOL    HW299843   0.564  14.104  10.054
99316SOL     OW99844  13.452   6.665  13.800
99316SOL    HW199845  13.450   6.745  13.852
99316SOL    HW299846  13.428   6.596  13.861
99317SOL     OW99847   9.885  11.774  14.255
99317SOL    HW199848   9.907  11.867  14.246
99317SOL    HW299849   9.934  11.745  14.332
99318SOL     OW99850  12.510  13.891   1.054
99318SOL    HW199851  12.562  13.832   1.108
99318SOL    HW299852  12.527  13.978   1.090
99319SOL     OW99853   4.478  14.235  13.481
99319SOL    HW199854   4.396  14.263  13.522
99319SOL    HW299855   4.462  14.143  13.458
99320SOL     OW99856  12.912   6.094  10.892
99320SOL    HW199857  12.832   6.042  10.887
99320SOL    HW299858  12.913   6.129  10.981
99321SOL     OW99859  14.721   5.136  11.215
99321SOL    HW199860  14.664   5.145  11.291
99321SOL    HW299861  14.715   5.221  11.171
99322SOL     OW99862   1.869  14.445  11.419
99322SOL    HW199863   1.852  14.351  11.415
99322SOL    HW299864   1.862  14.466  11.513
99323SOL     OW99865   2.071   4.421  14.433
99323SOL    HW199866   2.156   4.381  14.414
99323SOL    HW299867   2.062   4.490  14.367
99324SOL     OW99868  11.876  10.783   6.100
99324SOL    HW199869  11.915  10.697   6.084
99324SOL    HW299870  11.794  10.781   6.050
99325SOL     OW99871   2.638  12.640   1.174
99325SOL    HW199872   2.544  12.651   1.192
99325SOL    HW299873   2.673  12.729   1.180
99326SOL     OW99874   5.356   1.817   9.131
99326SOL    HW199875   5.433   1.778   9.089
99326SOL    HW299876   5.340   1.897   9.081
99327SOL     OW99877   7.139  13.693   3.471
99327SOL    HW199878   7.143  13.624   3.537
99327SOL    HW299879   7.230  13.712   3.451
99328SOL     OW99880   7.142   5.031   2.654
99328SOL    HW199881   7.049   5.052   2.644
99328SOL    HW299882   7.167   5.074   2.736
99329SOL     OW99883   3.718   0.887   4.950
99329SOL    HW199884   3.752   0.838   4.875
99329SOL    HW299885   3.770   0.856   5.024
99330SOL     OW99886   5.840   2.159   7.545
99330SOL    HW199887   5.780   2.134   7.614
99330SOL    HW299888   5.794   2.137   7.464
99331SOL     OW99889  12.076   8.458   8.422
99331SOL    HW199890  12.120   8.542   8.432
99331SOL    HW299891  12.000   8.477   8.367
99332SOL     OW99892   0.292   8.846   2.032
99332SOL    HW199893   0.252   8.774   1.982
99332SOL    HW299894   0.249   8.925   1.999
99333SOL     OW99895   8.984  13.956   3.540
99333SOL    HW199896   8.939  13.955   3.625
99333SOL    HW299897   8.927  14.008   3.484
99334SOL     OW99898  11.558   4.296   7.850
99334SOL    HW199899  11.552   4.304   7.755
99334SOL    HW299900  11.634   4.350   7.874
99335SOL     OW99901   1.069   3.420   2.171
99335SOL    HW199902   1.014   3.483   2.218
99335SOL    HW299903   1.006   3.368   2.120
99336SOL     OW99904   4.173   1.433  14.136
99336SOL    HW199905   4.198   1.451  14.045
99336SOL    HW299906   4.086   1.395  14.130
99337SOL     OW99907   8.151   3.574   7.387
99337SOL    HW199908   8.244   3.583   7.407
99337SOL    HW299909   8.107   3.632   7.449
99338SOL     OW99910   4.795   1.598   4.322
99338SOL    HW199911   4.752   1.632   4.400
99338SOL    HW299912   4.787   1.503   4.330
99339SOL     OW99913   3.276  10.349  10.078
99339SOL    HW199914   3.182  10.338  10.061
99339SOL    HW299915   3.314  10.362   9.991
99340SOL     OW99916   5.350  10.424  13.847
99340SOL    HW199917   5.378  10.376  13.925
99340SOL    HW299918   5.423  10.414  13.785
99341SOL     OW99919  12.878  10.630  13.035
99341SOL    HW199920  12.794  10.600  13.071
99341SOL    HW299921  12.854  10.687  12.962
99342SOL     OW99922   9.646  13.657   5.804
99342SOL    HW199923   9.686  13.616   5.880
99342SOL    HW299924   9.686  13.744   5.800
99343SOL     OW99925   2.069   7.262   6.375
99343SOL    HW199926   2.008   7.335   6.362
99343SOL    HW299927   2.071   7.217   6.291
99344SOL     OW99928   8.087   5.839   5.369
99344SOL    HW199929   8.181   5.841   5.388
99344SOL    HW299930   8.054   5.922   5.404
99345SOL     OW99931   1.296   1.544   3.619
99345SOL    HW199932   1.316   1.638   3.620
99345SOL    HW299933   1.231   1.534   3.549
99346SOL     OW99934   4.425   1.125   9.244
99346SOL    HW199935   4.507   1.145   9.199
99346SOL    HW299936   4.448   1.120   9.337
99347SOL     OW99937   8.402   7.607  11.515
99347SOL    HW199938   8.456   7.617  11.593
99347SOL    HW299939   8.326   7.664  11.531
99348SOL     OW99940   8.096   7.295  12.248
99348SOL    HW199941   8.070   7.277  12.338
99348SOL    HW299942   8.163   7.229  12.229
99349SOL     OW99943  14.287   0.993   0.107
99349SOL    HW199944  14.194   1.003   0.086
99349SOL    HW299945  14.297   1.036   0.192
99350SOL     OW99946  12.778   1.886   7.015
99350SOL    HW199947  12.713   1.934   7.066
99350SOL    HW299948  12.729   1.854   6.939
99351SOL     OW99949   5.671  10.151   0.654
99351SOL    HW199950   5.716  10.217   0.707
99351SOL    HW299951   5.582  10.149   0.690
99352SOL     OW99952   3.396   8.610   7.178
99352SOL    HW199953   3.369   8.681   7.119
99352SOL    HW299954   3.373   8.530   7.131
99353SOL     OW99955   3.494   3.718   4.184
99353SOL    HW199956   3.586   3.694   4.194
99353SOL    HW299957   3.471   3.760   4.268
99354SOL     OW99958   2.814   0.045  11.769
99354SOL    HW199959   2.755   0.104  11.723
99354SOL    HW299960   2.901   0.073  11.743
99355SOL     OW99961  13.652   2.654   4.508
99355SOL    HW199962  13.641   2.560   4.501
99355SOL    HW299963  13.701   2.666   4.590
99356SOL     OW99964   5.298   5.143  13.809
99356SOL    HW199965   5.223   5.087  13.788
99356SOL    HW299966   5.275   5.183  13.893
99357SOL     OW99967   8.790   4.726   6.372
99357SOL    HW199968   8.701   4.745   6.342
99357SOL    HW299969   8.810   4.795   6.435
99358SOL     OW99970   3.735   4.427  10.334
99358SOL    HW199971   3.666   4.362  10.326
99358SOL    HW299972   3.795   4.391  10.399
99359SOL     OW99973   3.356   1.169  13.880
99359SOL    HW199974   3.339   1.250  13.929
99359SOL    HW299975   3.388   1.108  13.946
99360SOL     OW99976   6.028  13.221   9.410
99360SOL    HW199977   6.107  13.250   9.363
99360SOL    HW299978   6.059  13.151   9.466
99361SOL     OW99979   8.852   8.639  12.986
99361SOL    HW199980   8.877   8.549  12.965
99361SOL    HW299981   8.763   8.631  13.020
99362SOL     OW99982  12.569   7.974   1.523
99362SOL    HW199983  12.551   7.902   1.463
99362SOL    HW299984  12.662   7.966   1.544
99363SOL     OW99985   6.885   6.395  12.467
99363SOL    HW199986   6.964   6.424  12.512
99363SOL    HW299987   6.819   6.390  12.536
99364SOL     OW99988   4.131  13.020   1.409
99364SOL    HW199989   4.176  13.043   1.490
99364SOL    HW299990   4.049  12.981   1.436
99365SOL     OW99991  10.602  12.090   2.115
99365SOL    HW199992  10.697  12.093   2.106
99365SOL    HW299993  10.571  12.052   2.033
99366SOL     OW99994   1.953   5.181  12.424
99366SOL    HW199995   1.917   5.112  12.369
99366SOL    HW299996   1.909   5.261  12.394
99367SOL     OW99997   8.707  13.974   5.297
99367SOL    HW199998   8.656  13.922   5.235
99367SOL    HW299999   8.754  13.910   5.350
99368SOL     OW    0  13.452   1.543   0.321
99368SOL    HW1    1  13.534   1.530   0.370
99368SOL    HW2    2  13.479   1.550   0.230
99369SOL     OW    3  12.037  13.190   5.204
99369SOL    HW1    4  11.950  13.222   5.228
99369SOL    HW2    5  12.021  13.103   5.168
99370SOL     OW    6  12.062  14.052  13.984
99370SOL    HW1    7  12.131  14.050  14.050
99370SOL    HW2    8  11.982  14.033  14.032
99371SOL     OW    9   1.056   8.374   9.158
99371SOL    HW1   10   1.119   8.304   9.140
99371SOL    HW2   11   1.060   8.387   9.253
99372SOL     OW   12   1.199   6.016   1.248
99372SOL    HW1   13   1.222   6.037   1.158
99372SOL    HW2   14   1.179   6.101   1.288
99373SOL     OW   15  13.512  11.495  10.391
99373SOL    HW1   16  13.568  11.422  10.363
99373SOL    HW2   17  13.479  11.468  10.476
99374SOL     OW   18   3.270  10.198   4.222
99374SOL    HW1   19   3.252  10.285   4.258
99374SOL    HW2   20   3.292  10.144   4.298
99375SOL     OW   21   2.513   5.627   4.038
99375SOL    HW1   22   2.593   5.676   4.017
99375SOL    HW2   23   2.514   5.617   4.133
99376SOL     OW   24   9.026   4.444   3.423
99376SOL    HW1   25   9.070   4.359   3.419
99376SOL    HW2   26   9.095   4.505   3.449
99377SOL     OW   27   5.066   8.209  12.431
99377SOL    HW1   28   5.033   8.141  12.372
99377SOL    HW2   29   5.144   8.171  12.471
99378SOL     OW   30  10.592   2.466   1.141
99378SOL    HW1   31  10.635   2.424   1.067
99378SOL    HW2   32  10.650   2.538   1.166
99379SOL     OW   33   3.088   0.365   3.277
99379SOL    HW1   34   3.008   0.387   3.229
99379SOL    HW2   35   3.057   0.342   3.365
99380SOL     OW   36  13.405   2.869  13.789
99380SOL    HW1   37  13.440   2.939  13.733
99380SOL    HW2   38  13.310   2.875  13.778
99381SOL     OW   39  14.508   3.722  14.757
99381SOL    HW1   40  14.420   3.760  14.754
99381SOL    HW2   41  14.546   3.755  14.838
99382SOL     OW   42   8.234   6.950   5.389
99382SOL    HW1   43   8.302   7.016   5.377
99382SOL    HW2   44   8.204   6.963   5.479
99383SOL     OW   45   3.737   5.791   2.331
99383SOL    HW1   46   3.758   5.868   2.279
99383SOL    HW2   47   3.809   5.784   2.394
99384SOL     OW   48   3.303   5.616  14.243
99384SOL    HW1   49   3.342   5.697  14.276
99384SOL    HW2   50   3.369   5.549  14.263
99385SOL     OW   51   3.402  11.935   1.448
99385SOL    HW1   52   3.488  11.961   1.481
99385SOL    HW2   53   3.393  11.843   1.475
99386SOL     OW   54   7.087   0.085   8.739
99386SOL    HW1   55   7.152   0.141   8.782
99386SOL    HW2   56   7.097   0.000   8.782
99387SOL     OW   57   5.268   1.792  14.298
99387SOL    HW1   58   5.325   1.836  14.361
99387SOL    HW2   59   5.269   1.848  14.221
99388SOL     OW   60  12.642  13.628   9.535
99388SOL    HW1   61  12.691  13.695   9.582
99388SOL    HW2   62  12.660  13.645   9.443
99389SOL     OW   63   0.654   5.604   8.655
99389SOL    HW1   64   0.729   5.561   8.616
99389SOL    HW2   65   0.594   5.620   8.582
99390SOL     OW   66   1.668   1.422   8.373
99390SOL    HW1   67   1.611   1.494   8.346
99390SOL    HW2   68   1.670   1.364   8.297
99391SOL     OW   69  14.121   1.850   7.237
99391SOL    HW1   70  14.100   1.763   7.272
99391SOL    HW2   71  14.045   1.903   7.260
99392SOL     OW   72   4.164   7.884   1.788
99392SOL    HW1   73   4.152   7.896   1.882
99392SOL    HW2   74   4.112   7.806   1.767
99393SOL     OW   75   8.081  13.691  14.339
99393SOL    HW1   76   8.053  13.607  14.305
99393SOL    HW2   77   8.152  13.719  14.280
99394SOL     OW   78  13.638  12.010   3.424
99394SOL    HW1   79  13.570  12.029   3.358
99394SOL    HW2   80  13.680  12.095   3.440
99395SOL     OW   81   8.862   8.847   1.227
99395SOL    HW1   82   8.933   8.885   1.175
99395SOL    HW2   83   8.790   8.909   1.216
99396SOL     OW   84   2.824   2.482   5.859
99396SOL    HW1   85   2.903   2.530   5.884
99396SOL    HW2   86   2.814   2.414   5.926
99397SOL     OW   87  14.449   9.246   2.244
99397SOL    HW1   88  14.484   9.162   2.213
99397SOL    HW2   89  14.527   9.300   2.260
99398SOL     OW   90  10.902  12.600   4.586
99398SOL    HW1   91  10.849  12.652   4.526
99398SOL    HW2   92  10.912  12.515   4.542
99399SOL     OW   93   0.586   1.047  12.321
99399SOL    HW1   94   0.527   1.009  12.256
99399SOL    HW2   95   0.645   0.976  12.345
99400SOL     OW   96   1.698   1.473   7.463
99400SOL    HW1   97   1.676   1.422   7.385
99400SOL    HW2   98   1.656   1.427   7.535
99401SOL     OW   99  11.002   0.378   4.986
99401SOL    HW1  100  10.940   0.427   5.039
99401SOL    HW2  101  11.088   0.407   5.017
99402SOL     OW  102   1.816   1.781   1.079
99402SOL    HW1  103   1.739   1.735   1.046
99402SOL    HW2  104   1.817   1.761   1.173
99403SOL     OW  105   5.504  13.451   9.218
99403SOL    HW1  106   5.590  13.468   9.255
99403SOL    HW2  107   5.447  13.440   9.295
99404SOL     OW  108  14.511  10.515   2.350
99404SOL    HW1  109  14.480  10.599   2.383
99404SOL    HW2  110  14.533  10.531   2.258
99405SOL     OW  111   9.208   7.075  10.951
99405SOL    HW1  112   9.296   7.068  10.987
99405SOL    HW2  113   9.162   6.998  10.985
99406SOL     OW  114   0.153   7.409   1.681
99406SOL    HW1  115   0.227   7.459   1.646
99406SOL    HW2  116   0.116   7.364   1.604
99407SOL     OW  117   9.812   7.344  12.948
99407SOL    HW1  118   9.763   7.408  13.001
99407SOL    HW2  119   9.758   7.265  12.950
99408SOL     OW  120   8.524  11.140   8.489
99408SOL    HW1  121   8.440  11.149   8.445
99408SOL    HW2  122   8.525  11.211   8.553
99409SOL     OW  123  13.565   9.454  13.891
99409SOL    HW1  124  13.554   9.400  13.969
99409SOL    HW2  125  13.502   9.417  13.828
99410SOL     OW  126   3.886  10.312   4.582
99410SOL    HW1  127   3.947  10.338   4.651
99410SOL    HW2  128   3.937  10.321   4.501
99411SOL     OW  129  13.809   0.971  11.262
99411SOL    HW1  130  13.795   0.953  11.355
99411SOL    HW2  131  13.740   0.922  11.217
99412SOL     OW  132   4.461   3.541   4.410
99412SOL    HW1  133   4.381   3.540   4.358
99412SOL    HW2  134   4.489   3.632   4.411
99413SOL     OW  135  12.401  13.198  12.271
99413SOL    HW1  136  12.473  13.172  12.214
99413SOL    HW2  137  12.337  13.128  12.264
99414SOL     OW  138   1.922   4.461   9.692
99414SOL    HW1  139   1.920   4.523   9.765
99414SOL    HW2  140   1.870   4.504   9.623
99415SOL     OW  141  11.546   4.425   3.348
99415SOL    HW1  142  11.504   4.350   3.391
99415SOL    HW2  143  11.474   4.486   3.332
99416SOL     OW  144  11.241   9.620  12.699
99416SOL    HW1  145  11.207   9.683  12.636
99416SOL    HW2  146  11.163   9.574  12.731
99417SOL     OW  147   2.944  12.707   3.603
99417SOL    HW1  148   2.934  12.735   3.694
99417SOL    HW2  149   2.987  12.782   3.561
99418SOL     OW  150   1.223   7.980   4.788
99418SOL    HW1  151   1.183   7.924   4.855
99418SOL    HW2  152   1.229   8.066   4.829
99419SOL     OW  153   8.662   5.447  12.988
99419SOL    HW1  154   8.586   5.395  12.964
99419SOL    HW2  155   8.637   5.490  13.070
99420SOL     OW  156   4.581  14.068   0.412
99420SOL    HW1  157   4.583  14.050   0.318
99420SOL    HW2  158   4.673  14.066   0.439
99421SOL     OW  159   1.276   3.284   6.290
99421SOL    HW1  160   1.292   3.190   6.281
99421SOL    HW2  161   1.360   3.324   6.266
99422SOL     OW  162   5.464  11.017  11.764
99422SOL    HW1  163   5.458  11.108  11.736
99422SOL    HW2  164   5.464  10.966  11.683
99423SOL     OW  165   0.792   5.467   1.696
99423SOL    HW1  166   0.869   5.421   1.728
99423SOL    HW2  167   0.826   5.546   1.653
99424SOL     OW  168  13.505   8.506  12.272
99424SOL    HW1  169  13.481   8.442  12.339
99424SOL    HW2  170  13.521   8.587  12.320
99425SOL     OW  171   4.545  12.071   9.831
99425SOL    HW1  172   4.555  11.998   9.771
99425SOL    HW2  173   4.459  12.059   9.872
99426SOL     OW  174   3.150  11.302   7.201
99426SOL    HW1  175   3.147  11.206   7.201
99426SOL    HW2  176   3.204  11.324   7.126
99427SOL     OW  177   4.190   1.761   5.575
99427SOL    HW1  178   4.205   1.838   5.520
99427SOL    HW2  179   4.098   1.738   5.559
99428SOL     OW  180   2.046   1.815  12.158
99428SOL    HW1  181   1.959   1.788  12.127
99428SOL    HW2  182   2.101   1.737  12.146
99429SOL     OW  183  14.335   2.778   5.863
99429SOL    HW1  184  14.359   2.791   5.771
99429SOL    HW2  185  14.292   2.860   5.888
99430SOL     OW  186   8.937  10.223   8.236
99430SOL    HW1  187   9.017  10.267   8.205
99430SOL    HW2  188   8.969  10.153   8.293
99431SOL     OW  189   0.943   0.045   1.918
99431SOL    HW1  190   0.878  14.853   1.886
99431SOL    HW2  191   0.931   0.123   1.865
99432SOL     OW  192   6.090  12.039  13.042
99432SOL    HW1  193   6.176  11.999  13.046
99432SOL    HW2  194   6.039  11.994  13.109
99433SOL     OW  195  11.542   4.260   8.429
99433SOL    HW1  196  11.565   4.324   8.497
99433SOL    HW2  197  11.611   4.195   8.432
99434SOL     OW  198  12.556   1.125   0.561
99434SOL    HW1  199  12.588   1.048   0.513
99434SOL    HW2  200  12.487   1.091   0.617
99435SOL     OW  201   3.252   9.314   2.870
99435SOL    HW1  202   3.268   9.381   2.804
99435SOL    HW2  203   3.161   9.328   2.897
99436SOL     OW  204   6.946   3.552   2.385
99436SOL    HW1  205   6.979   3.607   2.313
99436SOL    HW2  206   6.947   3.463   2.349
99437SOL     OW  207  12.500  14.025   3.542
99437SOL    HW1  208  12.522  13.947   3.592
99437SOL    HW2  209  12.411  14.047   3.571
99438SOL     OW  210   4.653   9.185   7.104
99438SOL    HW1  211   4.648   9.279   7.121
99438SOL    HW2  212   4.665   9.178   7.009
99439SOL     OW  213  13.511  10.306  10.758
99439SOL    HW1  214  13.511  10.231  10.698
99439SOL    HW2  215  13.521  10.267  10.845
99440SOL     OW  216   0.247  12.551   7.641
99440SOL    HW1  217   0.224  12.623   7.582
99440SOL    HW2  218   0.332  12.520   7.609
99441SOL     OW  219  13.463  10.750   5.957
99441SOL    HW1  220  13.447  10.771   6.049
99441SOL    HW2  221  13.524  10.676   5.960
99442SOL     OW  222   4.560  13.352   0.062
99442SOL    HW1  223   4.593  13.403   0.136
99442SOL    HW2  224   4.636  13.306   0.028
99443SOL     OW  225   6.871   7.391   4.901
99443SOL    HW1  226   6.850   7.355   4.987
99443SOL    HW2  227   6.966   7.393   4.898
99444SOL     OW  228  10.120  13.396   1.730
99444SOL    HW1  229  10.135  13.301   1.735
99444SOL    HW2  230  10.162  13.431   1.808
99445SOL     OW  231  12.429  13.409   1.030
99445SOL    HW1  232  12.509  13.460   1.042
99445SOL    HW2  233  12.438  13.335   1.091
99446SOL     OW  234  12.918   6.256   1.289
99446SOL    HW1  235  12.971   6.278   1.212
99446SOL    HW2  236  12.939   6.165   1.307
99447SOL     OW  237   0.205   8.899   8.738
99447SOL    HW1  238   0.165   8.889   8.825
99447SOL    HW2  239   0.200   8.993   8.721
99448SOL     OW  240   5.072  10.313   1.910
99448SOL    HW1  241   5.139  10.245   1.912
99448SOL    HW2  242   4.990  10.265   1.899
99449SOL     OW  243  14.091  11.816  10.317
99449SOL    HW1  244  14.075  11.893  10.371
99449SOL    HW2  245  14.005  11.790  10.284
99450SOL     OW  246   2.705  14.726   8.135
99450SOL    HW1  247   2.708  14.732   8.040
99450SOL    HW2  248   2.786  14.681   8.159
99451SOL     OW  249   2.265  13.161  13.782
99451SOL    HW1  250   2.320  13.128  13.712
99451SOL    HW2  251   2.254  13.087  13.841
99452SOL     OW  252   7.611   3.195  12.073
99452SOL    HW1  253   7.610   3.143  11.992
99452SOL    HW2  254   7.667   3.270  12.052
99453SOL     OW  255   1.474   9.265  12.084
99453SOL    HW1  256   1.435   9.258  11.997
99453SOL    HW2  257   1.565   9.290  12.067
99454SOL     OW  258  11.559  14.531   3.093
99454SOL    HW1  259  11.612  14.522   3.014
99454SOL    HW2  260  11.533  14.624   3.094
99455SOL     OW  261   1.922   2.335   6.134
99455SOL    HW1  262   2.004   2.382   6.147
99455SOL    HW2  263   1.884   2.328   6.222
99456SOL     OW  264   9.813   7.588   2.290
99456SOL    HW1  265   9.866   7.636   2.354
99456SOL    HW2  266   9.776   7.656   2.234
99457SOL     OW  267  10.688  13.324   7.337
99457SOL    HW1  268  10.659  13.415   7.345
99457SOL    HW2  269  10.693  13.292   7.427
99458SOL     OW  270   4.414   7.779  11.921
99458SOL    HW1  271   4.366   7.788  11.839
99458SOL    HW2  272   4.361   7.718  11.974
99459SOL     OW  273  10.536   8.131   3.738
99459SOL    HW1  274  10.617   8.181   3.742
99459SOL    HW2  275  10.469   8.197   3.719
99460SOL     OW  276   1.486   4.186   8.616
99460SOL    HW1  277   1.418   4.147   8.671
99460SOL    HW2  278   1.459   4.165   8.526
99461SOL     OW  279   0.393   0.789   2.260
99461SOL    HW1  280   0.333   0.717   2.244
99461SOL    HW2  281   0.423   0.815   2.172
99462SOL     OW  282   8.355   9.897  11.246
99462SOL    HW1  283   8.270   9.942  11.243
99462SOL    HW2  284   8.389   9.915  11.334
99463SOL     OW  285   7.714   1.654   4.036
99463SOL    HW1  286   7.767   1.663   3.957
99463SOL    HW2  287   7.730   1.736   4.084
99464SOL     OW  288   7.206   5.499   0.625
99464SOL    HW1  289   7.234   5.533   0.710
99464SOL    HW2  290   7.129   5.446   0.645
99465SOL     OW  291  12.911   9.110  12.625
99465SOL    HW1  292  12.989   9.157  12.596
99465SOL    HW2  293  12.841   9.175  12.620
99466SOL     OW  294   8.058   8.400  12.454
99466SOL    HW1  295   7.977   8.366  12.491
99466SOL    HW2  296   8.051   8.495  12.461
99467SOL     OW  297   4.926   5.781   8.947
99467SOL    HW1  298   5.008   5.820   8.919
99467SOL    HW2  299   4.915   5.704   8.890
99468SOL     OW  300   8.389   8.510  13.674
99468SOL    HW1  301   8.445   8.493  13.599
99468SOL    HW2  302   8.403   8.603  13.694
99469SOL     OW  303  12.966   6.216  12.538
99469SOL    HW1  304  13.028   6.266  12.484
99469SOL    HW2  305  13.021   6.158  12.591
99470SOL     OW  306   4.219   2.023   0.469
99470SOL    HW1  307   4.247   2.100   0.419
99470SOL    HW2  308   4.180   1.966   0.403
99471SOL     OW  309   9.608   2.870   2.580
99471SOL    HW1  310   9.590   2.872   2.486
99471SOL    HW2  311   9.623   2.778   2.600
99472SOL     OW  312   8.366  11.629   9.044
99472SOL    HW1  313   8.390  11.660   9.132
99472SOL    HW2  314   8.275  11.655   9.033
99473SOL     OW  315  13.840  14.466  14.340
99473SOL    HW1  316  13.822  14.538  14.400
99473SOL    HW2  317  13.935  14.455  14.343
99474SOL     OW  318  11.235   6.958   5.979
99474SOL    HW1  319  11.240   6.953   5.884
99474SOL    HW2  320  11.169   7.026   5.996
99475SOL     OW  321   9.165   6.561   5.237
99475SOL    HW1  322   9.183   6.488   5.295
99475SOL    HW2  323   9.249   6.578   5.193
99476SOL     OW  324   3.039   5.008  11.165
99476SOL    HW1  325   3.059   5.009  11.071
99476SOL    HW2  326   3.119   5.039  11.207
99477SOL     OW  327  11.979  12.912  11.707
99477SOL    HW1  328  12.065  12.880  11.734
99477SOL    HW2  329  11.997  12.972  11.635
99478SOL     OW  330   3.006  13.126   7.320
99478SOL    HW1  331   2.920  13.122   7.276
99478SOL    HW2  332   3.046  13.206   7.287
99479SOL     OW  333   2.022   7.194   3.449
99479SOL    HW1  334   1.980   7.251   3.514
99479SOL    HW2  335   2.090   7.148   3.498
99480SOL     OW  336   4.997   5.457   1.987
99480SOL    HW1  337   4.991   5.490   2.076
99480SOL    HW2  338   4.977   5.364   1.994
99481SOL     OW  339   5.753   1.385   0.338
99481SOL    HW1  340   5.839   1.348   0.357
99481SOL    HW2  341   5.692   1.330   0.387
99482SOL     OW  342  13.437   0.879  10.285
99482SOL    HW1  343  13.448   0.882  10.190
99482SOL    HW2  344  13.351   0.918  10.300
99483SOL     OW  345  10.314   6.672  11.756
99483SOL    HW1  346  10.270   6.743  11.803
99483SOL    HW2  347  10.258   6.655  11.681
99484SOL     OW  348   7.804   8.671   7.427
99484SOL    HW1  349   7.740   8.688   7.358
99484SOL    HW2  350   7.886   8.707   7.394
99485SOL     OW  351  10.746   0.539   2.434
99485SOL    HW1  352  10.700   0.621   2.453
99485SOL    HW2  353  10.814   0.563   2.371
99486SOL     OW  354   9.030   1.825   0.871
99486SOL    HW1  355   8.988   1.776   0.799
99486SOL    HW2  356   9.016   1.917   0.849
99487SOL     OW  357  12.159  14.839   4.982
99487SOL    HW1  358  12.181  14.749   4.960
99487SOL    HW2  359  12.206   0.022   4.918
99488SOL     OW  360  14.628  14.398  13.726
99488SOL    HW1  361  14.543  14.357  13.741
99488SOL    HW2  362  14.689  14.324  13.715
99489SOL     OW  363   1.397   0.396   4.398
99489SOL    HW1  364   1.453   0.319   4.388
99489SOL    HW2  365   1.392   0.434   4.311
99490SOL     OW  366   3.580   8.880   7.094
99490SOL    HW1  367   3.504   8.821   7.095
99490SOL    HW2  368   3.585   8.914   7.183
99491SOL     OW  369   8.432   2.669   4.613
99491SOL    HW1  370   8.354   2.634   4.570
99491SOL    HW2  371   8.502   2.658   4.549
99492SOL     OW  372   4.701  12.192   5.588
99492SOL    HW1  373   4.741  12.134   5.523
99492SOL    HW2  374   4.774  12.244   5.622
99493SOL     OW  375   1.318   3.100   4.596
99493SOL    HW1  376   1.381   3.035   4.565
99493SOL    HW2  377   1.234   3.072   4.560
99494SOL     OW  378   1.370  10.072   7.773
99494SOL    HW1  379   1.442  10.090   7.834
99494SOL    HW2  380   1.359   9.977   7.776
99495SOL     OW  381  13.065   3.151   3.535
99495SOL    HW1  382  13.133   3.117   3.477
99495SOL    HW2  383  13.113   3.202   3.601
99496SOL     OW  384  13.069   9.048   2.932
99496SOL    HW1  385  13.104   9.017   2.848
99496SOL    HW2  386  13.088   8.976   2.993
99497SOL     OW  387   7.274   2.856  13.652
99497SOL    HW1  388   7.231   2.772  13.632
99497SOL    HW2  389   7.202   2.920  13.652
99498SOL     OW  390  13.557   5.979   9.995
99498SOL    HW1  391  13.507   5.918   9.941
99498SOL    HW2  392  13.556   6.062   9.946
99499SOL     OW  393   2.596  13.671  10.452
99499SOL    HW1  394   2.524  13.616  10.483
99499SOL    HW2  395   2.556  13.756  10.437
99500SOL     OW  396  14.337   0.942   6.057
99500SOL    HW1  397  14.408   0.961   6.118
99500SOL    HW2  398  14.290   1.025   6.048
99501SOL     OW  399  10.257   5.107   8.456
99501SOL    HW1  400  10.189   5.071   8.513
99501SOL    HW2  401  10.304   5.031   8.423
99502SOL     OW  402  11.327   7.081   8.915
99502SOL    HW1  403  11.370   7.165   8.934
99502SOL    HW2  404  11.283   7.058   8.997
99503SOL     OW  405   1.769   1.033   8.533
99503SOL    HW1  406   1.845   0.975   8.522
99503SOL    HW2  407   1.703   0.998   8.474
99504SOL     OW  408  14.355  14.457   7.861
99504SOL    HW1  409  14.422  14.509   7.906
99504SOL    HW2  410  14.278  14.465   7.917
99505SOL     OW  411  13.650   5.709  14.826
99505SOL    HW1  412  13.599   5.706   0.037
99505SOL    HW2  413  13.671   5.618  14.808
99506SOL     OW  414   8.884  14.237  13.261
99506SOL    HW1  415   8.928  14.235  13.176
99506SOL    HW2  416   8.923  14.311  13.307
99507SOL     OW  417   7.500  14.451   6.310
99507SOL    HW1  418   7.422  14.485   6.352
99507SOL    HW2  419   7.506  14.360   6.340
99508SOL     OW  420   9.593  11.337   8.078
99508SOL    HW1  421   9.564  11.251   8.047
99508SOL    HW2  422   9.521  11.396   8.056
99509SOL     OW  423   6.769  14.456   6.974
99509SOL    HW1  424   6.829  14.398   7.021
99509SOL    HW2  425   6.719  14.501   7.042
99510SOL     OW  426   5.180  12.997  13.328
99510SOL    HW1  427   5.172  13.020  13.236
99510SOL    HW2  428   5.136  12.912  13.335
99511SOL     OW  429   4.968   1.229   1.717
99511SOL    HW1  430   4.923   1.193   1.640
99511SOL    HW2  431   5.002   1.313   1.688
99512SOL     OW  432   3.905   6.390  13.370
99512SOL    HW1  433   3.873   6.325  13.433
99512SOL    HW2  434   3.998   6.398  13.389
99513SOL     OW  435   9.185   2.466   7.076
99513SOL    HW1  436   9.091   2.463   7.058
99513SOL    HW2  437   9.224   2.498   6.995
99514SOL     OW  438   1.558   1.334  10.314
99514SOL    HW1  439   1.525   1.283  10.240
99514SOL    HW2  440   1.653   1.321  10.311
99515SOL     OW  441  10.585   3.048   7.513
99515SOL    HW1  442  10.594   2.998   7.432
99515SOL    HW2  443  10.619   3.135   7.491
99516SOL     OW  444  12.794  10.049   2.235
99516SOL    HW1  445  12.789  10.133   2.280
99516SOL    HW2  446  12.877  10.053   2.186
99517SOL     OW  447   4.594  13.392   0.594
99517SOL    HW1  448   4.528  13.454   0.623
99517SOL    HW2  449   4.585  13.317   0.653
99518SOL     OW  450   0.217   4.352  14.574
99518SOL    HW1  451   0.134   4.398  14.558
99518SOL    HW2  452   0.246   4.385  14.659
99519SOL     OW  453   8.215   4.074  13.584
99519SOL    HW1  454   8.222   4.092  13.491
99519SOL    HW2  455   8.166   3.992  13.590
99520SOL     OW  456   3.958  10.521   8.372
99520SOL    HW1  457   3.880  10.488   8.328
99520SOL    HW2  458   3.944  10.616   8.379
99521SOL     OW  459   3.272   9.064   5.574
99521SOL    HW1  460   3.342   9.049   5.511
99521SOL    HW2  461   3.233   8.977   5.587
99522SOL     OW  462   9.706   5.906  11.884
99522SOL    HW1  463   9.653   5.963  11.827
99522SOL    HW2  464   9.711   5.823  11.837
99523SOL     OW  465   3.754   0.362   4.670
99523SOL    HW1  466   3.787   0.294   4.729
99523SOL    HW2  467   3.659   0.359   4.680
99524SOL     OW  468   7.038  10.009  14.055
99524SOL    HW1  469   7.117   9.956  14.053
99524SOL    HW2  470   7.029  10.037  14.146
99525SOL     OW  471   4.458   6.039   2.299
99525SOL    HW1  472   4.493   6.124   2.274
99525SOL    HW2  473   4.414   6.055   2.383
99526SOL     OW  474   4.893   1.276   0.414
99526SOL    HW1  475   4.911   1.356   0.364
99526SOL    HW2  476   4.979   1.235   0.425
99527SOL     OW  477   5.538   4.606  12.639
99527SOL    HW1  478   5.478   4.544  12.596
99527SOL    HW2  479   5.578   4.554  12.709
99528SOL     OW  480   9.606   7.405   5.304
99528SOL    HW1  481   9.617   7.381   5.212
99528SOL    HW2  482   9.512   7.422   5.313
99529SOL     OW  483   7.476   0.094   9.514
99529SOL    HW1  484   7.486   0.129   9.425
99529SOL    HW2  485   7.398   0.136   9.548
99530SOL     OW  486  13.149   0.445   5.175
99530SOL    HW1  487  13.095   0.475   5.248
99530SOL    HW2  488  13.238   0.450   5.209
99531SOL     OW  489  12.925   6.516   7.105
99531SOL    HW1  490  12.920   6.423   7.128
99531SOL    HW2  491  12.901   6.561   7.185
99532SOL     OW  492   1.250   6.961   9.841
99532SOL    HW1  493   1.265   6.884   9.895
99532SOL    HW2  494   1.336   6.980   9.802
99533SOL     OW  495   5.290  12.799   2.634
99533SOL    HW1  496   5.259  12.743   2.562
99533SOL    HW2  497   5.227  12.784   2.705
99534SOL     OW  498   3.285   5.507  13.801
99534SOL    HW1  499   3.236   5.446  13.746
99534SOL    HW2  500   3.333   5.451  13.862
99535SOL     OW  501   6.584  12.132   0.590
99535SOL    HW1  502   6.514  12.189   0.559
99535SOL    HW2  503   6.631  12.106   0.511
99536SOL     OW  504   1.059   5.135  11.066
99536SOL    HW1  505   1.099   5.179  10.991
99536SOL    HW2  506   1.045   5.204  11.131
99537SOL     OW  507   8.367   9.611   8.008
99537SOL    HW1  508   8.416   9.683   8.049
99537SOL    HW2  509   8.313   9.576   8.078
99538SOL     OW  510   7.973   1.473   8.456
99538SOL    HW1  511   7.988   1.412   8.528
99538SOL    HW2  512   7.984   1.560   8.496
99539SOL     OW  513  10.815   2.446   1.768
99539SOL    HW1  514  10.821   2.375   1.832
99539SOL    HW2  515  10.899   2.491   1.773
99540SOL     OW  516   8.391   2.436  12.893
99540SOL    HW1  517   8.441   2.359  12.921
99540SOL    HW2  518   8.422   2.453  12.804
99541SOL     OW  519  14.151   0.322  12.158
99541SOL    HW1  520  14.062   0.333  12.125
99541SOL    HW2  521  14.147   0.353  12.248
99542SOL     OW  522   4.735   6.840   2.236
99542SOL    HW1  523   4.641   6.824   2.230
99542SOL    HW2  524   4.745   6.897   2.312
99543SOL     OW  525   1.666   2.162   1.262
99543SOL    HW1  526   1.687   2.154   1.169
99543SOL    HW2  527   1.690   2.253   1.284
99544SOL     OW  528  11.916  14.848  12.316
99544SOL    HW1  529  12.008  14.851  12.343
99544SOL    HW2  530  11.868  14.839  12.398
99545SOL     OW  531  10.874   9.521   3.755
99545SOL    HW1  532  10.882   9.571   3.836
99545SOL    HW2  533  10.800   9.560   3.709
99546SOL     OW  534   3.066   2.649   5.029
99546SOL    HW1  535   3.090   2.600   5.107
99546SOL    HW2  536   3.031   2.731   5.062
99547SOL     OW  537   6.578  11.118  10.163
99547SOL    HW1  538   6.543  11.097  10.249
99547SOL    HW2  539   6.609  11.208  10.170
99548SOL     OW  540   5.523   4.862   5.448
99548SOL    HW1  541   5.482   4.775   5.449
99548SOL    HW2  542   5.478   4.910   5.517
99549SOL     OW  543   7.849   4.099   5.917
99549SOL    HW1  544   7.801   4.022   5.887
99549SOL    HW2  545   7.783   4.167   5.927
99550SOL     OW  546   3.224   5.949  12.727
99550SOL    HW1  547   3.288   6.013  12.757
99550SOL    HW2  548   3.195   5.905  12.807
99551SOL     OW  549  10.018   6.552  14.410
99551SOL    HW1  550   9.963   6.627  14.434
99551SOL    HW2  551  10.044   6.569  14.320
99552SOL     OW  552  10.837   8.870   7.044
99552SOL    HW1  553  10.771   8.917   7.096
99552SOL    HW2  554  10.871   8.936   6.984
99553SOL     OW  555   8.679  13.895   8.629
99553SOL    HW1  556   8.645  13.969   8.680
99553SOL    HW2  557   8.673  13.820   8.688
99554SOL     OW  558  10.768   4.430   0.415
99554SOL    HW1  559  10.802   4.369   0.350
99554SOL    HW2  560  10.708   4.486   0.367
99555SOL     OW  561   5.212   2.922   7.723
99555SOL    HW1  562   5.188   3.015   7.726
99555SOL    HW2  563   5.306   2.921   7.737
99556SOL     OW  564  14.426   6.628   9.744
99556SOL    HW1  565  14.348   6.631   9.799
99556SOL    HW2  566  14.404   6.679   9.667
99557SOL     OW  567   4.436   7.486  12.914
99557SOL    HW1  568   4.350   7.443  12.913
99557SOL    HW2  569   4.453   7.509  12.823
99558SOL     OW  570  13.169  12.037   1.136
99558SOL    HW1  571  13.104  12.093   1.094
99558SOL    HW2  572  13.146  11.948   1.109
99559SOL     OW  573  12.275   7.346  11.810
99559SOL    HW1  574  12.349   7.291  11.782
99559SOL    HW2  575  12.315   7.428  11.839
99560SOL     OW  576   4.167   7.232   4.730
99560SOL    HW1  577   4.182   7.200   4.641
99560SOL    HW2  578   4.236   7.296   4.745
99561SOL     OW  579   0.061   1.346   6.509
99561SOL    HW1  580  14.844   1.382   6.490
99561SOL    HW2  581   0.120   1.421   6.508
99562SOL     OW  582  14.855  10.368   4.402
99562SOL    HW1  583   0.026  10.294   4.356
99562SOL    HW2  584  14.794  10.327   4.464
99563SOL     OW  585  10.430   6.895   0.592
99563SOL    HW1  586  10.377   6.892   0.513
99563SOL    HW2  587  10.371   6.865   0.661
99564SOL     OW  588   0.948   7.086   1.539
99564SOL    HW1  589   0.911   7.154   1.595
99564SOL    HW2  590   0.877   7.060   1.481
99565SOL     OW  591   0.122  13.212  14.780
99565SOL    HW1  592   0.070  13.221  14.701
99565SOL    HW2  593   0.201  13.165  14.753
99566SOL     OW  594  13.091   1.131  12.276
99566SOL    HW1  595  13.043   1.107  12.356
99566SOL    HW2  596  13.177   1.159  12.308
99567SOL     OW  597   8.215   8.993   9.190
99567SOL    HW1  598   8.190   9.071   9.239
99567SOL    HW2  599   8.252   9.026   9.109
99568SOL     OW  600   1.446   3.122  10.464
99568SOL    HW1  601   1.357   3.150  10.483
99568SOL    HW2  602   1.468   3.061  10.535
99569SOL     OW  603   7.591   2.571   3.466
99569SOL    HW1  604   7.562   2.508   3.533
99569SOL    HW2  605   7.520   2.634   3.459
99570SOL     OW  606   4.962   1.749  13.203
99570SOL    HW1  607   4.875   1.781  13.178
99570SOL    HW2  608   4.947   1.700  13.284
99571SOL     OW  609  11.981   4.616   3.217
99571SOL    HW1  610  11.990   4.521   3.210
99571SOL    HW2  611  11.896   4.635   3.179
99572SOL     OW  612  11.381   0.589   3.873
99572SOL    HW1  613  11.359   0.637   3.794
99572SOL    HW2  614  11.300   0.591   3.925
99573SOL     OW  615   1.229   1.644   2.706
99573SOL    HW1  616   1.135   1.628   2.695
99573SOL    HW2  617   1.271   1.590   2.640
99574SOL     OW  618   1.136  14.566   1.995
99574SOL    HW1  619   1.140  14.484   2.044
99574SOL    HW2  620   1.116  14.632   2.062
99575SOL     OW  621   1.512   3.686   0.522
99575SOL    HW1  622   1.553   3.604   0.497
99575SOL    HW2  623   1.573   3.726   0.585
99576SOL     OW  624   0.984   7.633   3.008
99576SOL    HW1  625   0.962   7.705   2.949
99576SOL    HW2  626   0.903   7.617   3.057
99577SOL     OW  627  10.439  13.316   9.085
99577SOL    HW1  628  10.511  13.378   9.096
99577SOL    HW2  629  10.361  13.365   9.112
99578SOL     OW  630  11.015   7.593  10.001
99578SOL    HW1  631  10.948   7.542   9.956
99578SOL    HW2  632  10.965   7.651  10.059
99579SOL     OW  633  14.531   9.483   6.367
99579SOL    HW1  634  14.436   9.479   6.358
99579SOL    HW2  635  14.561   9.526   6.287
99580SOL     OW  636  13.462   8.502   7.514
99580SOL    HW1  637  13.490   8.520   7.424
99580SOL    HW2  638  13.391   8.438   7.504
99581SOL     OW  639   0.228   1.544   0.345
99581SOL    HW1  640   0.247   1.592   0.264
99581SOL    HW2  641   0.185   1.609   0.401
99582SOL     OW  642   0.134   9.995   0.432
99582SOL    HW1  643   0.224  10.009   0.404
99582SOL    HW2  644   0.124   9.899   0.433
99583SOL     OW  645   7.130  13.310   2.761
99583SOL    HW1  646   7.212  13.323   2.713
99583SOL    HW2  647   7.094  13.398   2.772
99584SOL     OW  648  13.900  13.381   2.093
99584SOL    HW1  649  13.979  13.379   2.040
99584SOL    HW2  650  13.828  13.368   2.030
99585SOL     OW  651   2.713   4.444  12.382
99585SOL    HW1  652   2.755   4.431  12.297
99585SOL    HW2  653   2.658   4.522  12.370
99586SOL     OW  654  10.394  12.728   7.278
99586SOL    HW1  655  10.388  12.818   7.245
99586SOL    HW2  656  10.314  12.686   7.247
99587SOL     OW  657   6.361   8.026   5.336
99587SOL    HW1  658   6.389   7.936   5.322
99587SOL    HW2  659   6.312   8.023   5.418
99588SOL     OW  660   4.747   4.479   9.098
99588SOL    HW1  661   4.668   4.533   9.107
99588SOL    HW2  662   4.794   4.517   9.024
99589SOL     OW  663   0.403   6.852  13.475
99589SOL    HW1  664   0.397   6.825  13.383
99589SOL    HW2  665   0.378   6.773  13.524
99590SOL     OW  666   2.593  10.913   8.679
99590SOL    HW1  667   2.579  10.908   8.585
99590SOL    HW2  668   2.659  10.846   8.697
99591SOL     OW  669   9.835   1.066   4.616
99591SOL    HW1  670   9.790   1.135   4.666
99591SOL    HW2  671   9.765   1.026   4.563
99592SOL     OW  672   2.580   9.211   3.608
99592SOL    HW1  673   2.637   9.241   3.538
99592SOL    HW2  674   2.621   9.130   3.639
99593SOL     OW  675  11.268   9.360   2.242
99593SOL    HW1  676  11.206   9.429   2.266
99593SOL    HW2  677  11.352   9.392   2.273
99594SOL     OW  678   1.677   5.748  11.890
99594SOL    HW1  679   1.703   5.817  11.951
99594SOL    HW2  680   1.602   5.705  11.931
99595SOL     OW  681   3.725  11.983   0.715
99595SOL    HW1  682   3.650  12.026   0.756
99595SOL    HW2  683   3.781  12.056   0.685
99596SOL     OW  684   9.466   5.320  14.048
99596SOL    HW1  685   9.515   5.324  14.130
99596SOL    HW2  686   9.374   5.314  14.076
99597SOL     OW  687   5.237  11.245   5.630
99597SOL    HW1  688   5.260  11.336   5.610
99597SOL    HW2  689   5.312  11.194   5.599
99598SOL     OW  690   2.389  11.731   0.912
99598SOL    HW1  691   2.402  11.636   0.915
99598SOL    HW2  692   2.472  11.765   0.880
99599SOL     OW  693   7.449   2.392   9.335
99599SOL    HW1  694   7.423   2.408   9.425
99599SOL    HW2  695   7.369   2.358   9.293
99600SOL     OW  696   2.779  11.573   1.881
99600SOL    HW1  697   2.726  11.584   1.802
99600SOL    HW2  698   2.870  11.572   1.849
99601SOL     OW  699   2.796   9.717   7.518
99601SOL    HW1  700   2.743   9.753   7.447
99601SOL    HW2  701   2.857   9.788   7.541
99602SOL     OW  702   5.769  13.462   1.148
99602SOL    HW1  703   5.739  13.390   1.203
99602SOL    HW2  704   5.803  13.420   1.069
99603SOL     OW  705   2.164   9.482   7.160
99603SOL    HW1  706   2.252   9.456   7.133
99603SOL    HW2  707   2.110   9.469   7.082
99604SOL     OW  708   7.291   8.980   8.826
99604SOL    HW1  709   7.200   8.959   8.806
99604SOL    HW2  710   7.317   9.041   8.757
99605SOL     OW  711  13.363   9.430  14.304
99605SOL    HW1  712  13.412   9.503  14.342
99605SOL    HW2  713  13.423   9.355  14.309
99606SOL     OW  714  14.050   7.427   3.834
99606SOL    HW1  715  14.085   7.352   3.881
99606SOL    HW2  716  13.966   7.398   3.800
99607SOL     OW  717   0.786  11.375   7.297
99607SOL    HW1  718   0.769  11.469   7.287
99607SOL    HW2  719   0.876  11.371   7.330
99608SOL     OW  720  13.661   8.941   9.307
99608SOL    HW1  721  13.655   9.028   9.267
99608SOL    HW2  722  13.719   8.893   9.248
99609SOL     OW  723   5.334   5.218   5.212
99609SOL    HW1  724   5.352   5.209   5.305
99609SOL    HW2  725   5.349   5.131   5.176
99610SOL     OW  726  12.920   0.142   0.761
99610SOL    HW1  727  12.898   0.156   0.854
99610SOL    HW2  728  12.847   0.182   0.713
99611SOL     OW  729  12.794  10.720  11.504
99611SOL    HW1  730  12.852  10.645  11.520
99611SOL    HW2  731  12.751  10.699  11.421
99612SOL     OW  732   0.830  12.564   5.632
99612SOL    HW1  733   0.770  12.512   5.686
99612SOL    HW2  734   0.782  12.644   5.613
99613SOL     OW  735  11.335   2.490   9.801
99613SOL    HW1  736  11.392   2.428   9.846
99613SOL    HW2  737  11.360   2.575   9.837
99614SOL     OW  738   2.101   1.204  11.244
99614SOL    HW1  739   2.173   1.246  11.291
99614SOL    HW2  740   2.139   1.123  11.210
99615SOL     OW  741  13.415   9.269   8.914
99615SOL    HW1  742  13.400   9.176   8.895
99615SOL    HW2  743  13.483   9.296   8.853
99616SOL     OW  744  12.718  10.512   6.280
99616SOL    HW1  745  12.626  10.536   6.280
99616SOL    HW2  746  12.749  10.531   6.192
99617SOL     OW  747   5.605   5.315   6.304
99617SOL    HW1  748   5.663   5.311   6.228
99617SOL    HW2  749   5.650   5.372   6.367
99618SOL     OW  750   9.018  10.487   7.132
99618SOL    HW1  751   9.073  10.521   7.202
99618SOL    HW2  752   9.063  10.408   7.102
99619SOL     OW  753  10.403   2.949  12.554
99619SOL    HW1  754  10.344   2.992  12.616
99619SOL    HW2  755  10.423   3.016  12.489
99620SOL     OW  756   7.677   5.350  14.427
99620SOL    HW1  757   7.702   5.285  14.493
99620SOL    HW2  758   7.641   5.423  14.478
99621SOL     OW  759   5.986   5.773  11.324
99621SOL    HW1  760   5.899   5.741  11.301
99621SOL    HW2  761   5.998   5.745  11.415
99622SOL     OW  762   0.470   8.061   9.050
99622SOL    HW1  763   0.525   8.000   9.000
99622SOL    HW2  764   0.532   8.104   9.110
99623SOL     OW  765   6.789   7.800   3.490
99623SOL    HW1  766   6.747   7.784   3.406
99623SOL    HW2  767   6.812   7.712   3.522
99624SOL     OW  768   6.252   5.762   0.021
99624SOL    HW1  769   6.308   5.775   0.097
99624SOL    HW2  770   6.260   5.843  14.841
99625SOL     OW  771  10.387  10.296   2.668
99625SOL    HW1  772  10.296  10.281   2.644
99625SOL    HW2  773  10.387  10.377   2.719
99626SOL     OW  774   5.479   8.819  11.525
99626SOL    HW1  775   5.484   8.726  11.503
99626SOL    HW2  776   5.392   8.845  11.495
99627SOL     OW  777  10.586   4.078   8.213
99627SOL    HW1  778  10.597   4.140   8.286
99627SOL    HW2  779  10.587   4.132   8.135
99628SOL     OW  780   6.308   7.964  13.653
99628SOL    HW1  781   6.218   7.944  13.626
99628SOL    HW2  782   6.339   8.028  13.590
99629SOL     OW  783   7.614   5.474   8.254
99629SOL    HW1  784   7.570   5.525   8.187
99629SOL    HW2  785   7.629   5.389   8.213
99630SOL     OW  786   9.407   4.586   2.592
99630SOL    HW1  787   9.453   4.622   2.668
99630SOL    HW2  788   9.403   4.660   2.531
99631SOL     OW  789  12.722   4.347   9.482
99631SOL    HW1  790  12.723   4.271   9.540
99631SOL    HW2  791  12.655   4.327   9.417
99632SOL     OW  792  11.618  13.311   1.615
99632SOL    HW1  793  11.690  13.291   1.676
99632SOL    HW2  794  11.601  13.229   1.569
99633SOL     OW  795   1.178   5.149   7.926
99633SOL    HW1  796   1.202   5.183   8.012
99633SOL    HW2  797   1.258   5.154   7.875
99634SOL     OW  798  13.517   7.885   3.588
99634SOL    HW1  799  13.487   7.825   3.656
99634SOL    HW2  800  13.447   7.950   3.580
99635SOL     OW  801  10.001   8.729   8.965
99635SOL    HW1  802  10.033   8.814   8.994
99635SOL    HW2  803  10.016   8.671   9.040
99636SOL     OW  804  14.281   7.550   8.454
99636SOL    HW1  805  14.344   7.553   8.526
99636SOL    HW2  806  14.327   7.592   8.381
99637SOL     OW  807   0.676   8.297   3.796
99637SOL    HW1  808   0.641   8.361   3.734
99637SOL    HW2  809   0.771   8.307   3.791
99638SOL     OW  810   2.190  12.917   7.965
99638SOL    HW1  811   2.163  12.941   8.054
99638SOL    HW2  812   2.114  12.936   7.911
99639SOL     OW  813   3.211   2.782   4.733
99639SOL    HW1  814   3.229   2.698   4.775
99639SOL    HW2  815   3.179   2.838   4.803
99640SOL     OW  816  12.535   7.836   8.312
99640SOL    HW1  817  12.444   7.864   8.304
99640SOL    HW2  818  12.545   7.767   8.246
99641SOL     OW  819   1.834   0.461  13.188
99641SOL    HW1  820   1.751   0.444  13.143
99641SOL    HW2  821   1.810   0.512  13.265
99642SOL     OW  822  14.172  10.384  13.066
99642SOL    HW1  823  14.232  10.410  13.136
99642SOL    HW2  824  14.207  10.425  12.987
99643SOL     OW  825   4.887   5.333   8.010
99643SOL    HW1  826   4.853   5.395   8.074
99643SOL    HW2  827   4.981   5.327   8.030
99644SOL     OW  828   8.370   3.689   0.023
99644SOL    HW1  829   8.386   3.600  14.862
99644SOL    HW2  830   8.296   3.720  14.840
99645SOL     OW  831  12.238   1.523   8.002
99645SOL    HW1  832  12.207   1.500   8.090
99645SOL    HW2  833  12.179   1.477   7.943
99646SOL     OW  834  11.270   8.157   6.479
99646SOL    HW1  835  11.357   8.118   6.490
99646SOL    HW2  836  11.220   8.089   6.434
99647SOL     OW  837   1.505  11.971  12.588
99647SOL    HW1  838   1.490  12.062  12.564
99647SOL    HW2  839   1.586  11.947  12.542
99648SOL     OW  840   1.313   3.932  10.201
99648SOL    HW1  841   1.304   3.943  10.107
99648SOL    HW2  842   1.404   3.954  10.220
99649SOL     OW  843   4.855  12.188   8.235
99649SOL    HW1  844   4.832  12.247   8.306
99649SOL    HW2  845   4.934  12.142   8.265
99650SOL     OW  846  13.580  12.381   5.344
99650SOL    HW1  847  13.500  12.349   5.384
99650SOL    HW2  848  13.557  12.469   5.312
99651SOL     OW  849  13.556  14.866  13.074
99651SOL    HW1  850  13.577   0.025  13.163
99651SOL    HW2  851  13.608   0.054  13.018
99652SOL     OW  852   4.561   2.860   3.348
99652SOL    HW1  853   4.578   2.940   3.398
99652SOL    HW2  854   4.494   2.814   3.399
99653SOL     OW  855   6.098   0.177   0.151
99653SOL    HW1  856   6.103   0.177   0.246
99653SOL    HW2  857   6.060   0.262   0.129
99654SOL     OW  858   4.658   8.967   0.424
99654SOL    HW1  859   4.743   8.923   0.414
99654SOL    HW2  860   4.681   9.057   0.447
99655SOL     OW  861  13.278  11.058   9.312
99655SOL    HW1  862  13.283  11.113   9.389
99655SOL    HW2  863  13.192  11.077   9.274
99656SOL     OW  864   5.754   6.941   8.794
99656SOL    HW1  865   5.818   6.878   8.760
99656SOL    HW2  866   5.701   6.891   8.856
99657SOL     OW  867   6.141   3.372   9.550
99657SOL    HW1  868   6.046   3.382   9.557
99657SOL    HW2  869   6.172   3.374   9.640
99658SOL     OW  870   7.762   2.492   0.654
99658SOL    HW1  871   7.750   2.584   0.678
99658SOL    HW2  872   7.856   2.482   0.641
99659SOL     OW  873   8.482  14.716   9.594
99659SOL    HW1  874   8.486  14.652   9.523
99659SOL    HW2  875   8.572  14.747   9.603
99660SOL     OW  876   8.119   0.126   9.959
99660SOL    HW1  877   8.110   0.122  10.054
99660SOL    HW2  878   8.033   0.102   9.926
99661SOL     OW  879  13.581  11.984  13.956
99661SOL    HW1  880  13.658  11.972  13.901
99661SOL    HW2  881  13.588  11.916  14.022
99662SOL     OW  882   4.201   9.775  11.819
99662SOL    HW1  883   4.224   9.760  11.728
99662SOL    HW2  884   4.250   9.709  11.868
99663SOL     OW  885   6.080  11.522   5.263
99663SOL    HW1  886   6.165  11.561   5.243
99663SOL    HW2  887   6.079  11.441   5.213
99664SOL     OW  888   3.163   7.516  11.505
99664SOL    HW1  889   3.212   7.571  11.566
99664SOL    HW2  890   3.096   7.574  11.468
99665SOL     OW  891   6.166  14.660   0.752
99665SOL    HW1  892   6.209  14.586   0.708
99665SOL    HW2  893   6.204  14.738   0.711
99666SOL     OW  894  10.885  12.483   8.675
99666SOL    HW1  895  10.960  12.538   8.698
99666SOL    HW2  896  10.922  12.398   8.655
99667SOL     OW  897   1.733  11.984   1.896
99667SOL    HW1  898   1.721  11.893   1.923
99667SOL    HW2  899   1.677  12.034   1.955
99668SOL     OW  900   2.760  14.030  11.533
99668SOL    HW1  901   2.809  13.951  11.508
99668SOL    HW2  902   2.790  14.050  11.622
99669SOL     OW  903  11.452   8.423  10.576
99669SOL    HW1  904  11.458   8.384  10.488
99669SOL    HW2  905  11.511   8.370  10.629
99670SOL     OW  906  12.864  13.579  12.749
99670SOL    HW1  907  12.812  13.647  12.707
99670SOL    HW2  908  12.952  13.617  12.756
99671SOL     OW  909   5.237   2.748   3.220
99671SOL    HW1  910   5.198   2.675   3.268
99671SOL    HW2  911   5.329   2.722   3.208
99672SOL     OW  912  11.470   1.847   1.279
99672SOL    HW1  913  11.543   1.852   1.217
99672SOL    HW2  914  11.413   1.920   1.254
99673SOL     OW  915   6.882  12.518   2.523
99673SOL    HW1  916   6.898  12.444   2.582
99673SOL    HW2  917   6.968  12.554   2.505
99674SOL     OW  918   4.686   4.690  13.015
99674SOL    HW1  919   4.680   4.786  13.017
99674SOL    HW2  920   4.621   4.664  12.950
99675SOL     OW  921   0.846   2.057   7.511
99675SOL    HW1  922   0.805   2.143   7.504
99675SOL    HW2  923   0.939   2.076   7.522
99676SOL     OW  924   4.814   9.004   5.281
99676SOL    HW1  925   4.885   9.029   5.222
99676SOL    HW2  926   4.745   8.972   5.223
99677SOL     OW  927  11.227   2.811   2.132
99677SOL    HW1  928  11.240   2.809   2.227
99677SOL    HW2  929  11.311   2.841   2.097
99678SOL     OW  930   2.960  10.530   4.784
99678SOL    HW1  931   3.033  10.470   4.770
99678SOL    HW2  932   2.974  10.600   4.720
99679SOL     OW  933  12.415   5.774   2.050
99679SOL    HW1  934  12.334   5.741   2.090
99679SOL    HW2  935  12.474   5.699   2.050
99680SOL     OW  936  14.070  11.948   1.664
99680SOL    HW1  937  14.051  11.861   1.627
99680SOL    HW2  938  13.984  11.990   1.670
99681SOL     OW  939  10.034  10.124  13.019
99681SOL    HW1  940  10.058  10.042  12.976
99681SOL    HW2  941   9.938  10.124  13.017
99682SOL     OW  942   0.068   3.662   1.023
99682SOL    HW1  943   0.087   3.754   1.041
99682SOL    HW2  944   0.020   3.632   1.101
99683SOL     OW  945   2.662  10.577  13.388
99683SOL    HW1  946   2.688  10.546  13.475
99683SOL    HW2  947   2.594  10.642  13.405
99684SOL     OW  948   7.213   8.806  14.074
99684SOL    HW1  949   7.284   8.799  14.139
99684SOL    HW2  950   7.176   8.892  14.089
99685SOL     OW  951   3.687   3.797   7.794
99685SOL    HW1  952   3.650   3.845   7.720
99685SOL    HW2  953   3.648   3.710   7.788
99686SOL     OW  954  14.415   2.425   7.645
99686SOL    HW1  955  14.356   2.358   7.610
99686SOL    HW2  956  14.501   2.399   7.613
99687SOL     OW  957   8.272  11.308   6.162
99687SOL    HW1  958   8.289  11.399   6.141
99687SOL    HW2  959   8.267  11.264   6.077
99688SOL     OW  960   1.294   4.614   8.488
99688SOL    HW1  961   1.316   4.646   8.401
99688SOL    HW2  962   1.302   4.691   8.544
99689SOL     OW  963  13.335   2.267  13.108
99689SOL    HW1  964  13.366   2.214  13.034
99689SOL    HW2  965  13.404   2.258  13.173
99690SOL     OW  966   3.930   3.354   6.680
99690SOL    HW1  967   3.872   3.311   6.742
99690SOL    HW2  968   3.871   3.388   6.612
99691SOL     OW  969  14.077   8.902   8.028
99691SOL    HW1  970  13.984   8.918   8.042
99691SOL    HW2  971  14.120   8.971   8.078
99692SOL     OW  972  10.224   8.464   7.122
99692SOL    HW1  973  10.218   8.533   7.057
99692SOL    HW2  974  10.275   8.502   7.194
99693SOL     OW  975   8.365   6.154   3.469
99693SOL    HW1  976   8.427   6.128   3.401
99693SOL    HW2  977   8.282   6.165   3.422
99694SOL     OW  978   0.395  12.439   0.307
99694SOL    HW1  979   0.423  12.352   0.278
99694SOL    HW2  980   0.349  12.475   0.232
99695SOL     OW  981   6.076   1.926   2.855
99695SOL    HW1  982   6.031   1.854   2.811
99695SOL    HW2  983   6.055   1.913   2.948
99696SOL     OW  984   7.497  12.501   9.893
99696SOL    HW1  985   7.423  12.452   9.931
99696SOL    HW2  986   7.550  12.525   9.969
99697SOL     OW  987   7.749  12.282   7.754
99697SOL    HW1  988   7.807  12.227   7.806
99697SOL    HW2  989   7.798  12.364   7.742
99698SOL     OW  990  11.778   6.893   6.869
99698SOL    HW1  991  11.762   6.827   6.801
99698SOL    HW2  992  11.736   6.972   6.836
99699SOL     OW  993   6.417   5.159   1.644
99699SOL    HW1  994   6.402   5.068   1.670
99699SOL    HW2  995   6.512   5.170   1.653
99700SOL     OW  996   1.227   5.248   8.162
99700SOL    HW1  997   1.134   5.268   8.160
99700SOL    HW2  998   1.265   5.313   8.220
99701SOL     OW  999   7.372  13.825  14.054
99701SOL    HW1 1000   7.343  13.735  14.066
99701SOL    HW2 1001   7.438  13.838  14.123
99702SOL     OW 1002   7.985  12.505   6.555
99702SOL    HW1 1003   8.047  12.439   6.525
99702SOL    HW2 1004   7.943  12.537   6.475
99703SOL     OW 1005   3.507   1.120  13.232
99703SOL    HW1 1006   3.589   1.146  13.273
99703SOL    HW2 1007   3.530   1.101  13.141
99704SOL     OW 1008   0.508  12.956  10.403
99704SOL    HW1 1009   0.511  12.964  10.308
99704SOL    HW2 1010   0.423  12.993  10.428
99705SOL     OW 1011  10.461   2.081  12.411
99705SOL    HW1 1012  10.444   2.019  12.482
99705SOL    HW2 1013  10.416   2.161  12.439
99706SOL     OW 1014   5.104  13.777   9.321
99706SOL    HW1 1015   5.020  13.822   9.324
99706SOL    HW2 1016   5.100  13.713   9.392
99707SOL     OW 1017   4.539   8.537  11.533
99707SOL    HW1 1018   4.617   8.517  11.482
99707SOL    HW2 1019   4.560   8.509  11.622
99708SOL     OW 1020   9.626  12.413   5.834
99708SOL    HW1 1021   9.627  12.507   5.849
99708SOL    HW2 1022   9.595  12.376   5.917
99709SOL     OW 1023   5.879   6.483   6.082
99709SOL    HW1 1024   5.911   6.399   6.047
99709SOL    HW2 1025   5.813   6.458   6.146
99710SOL     OW 1026   9.013  14.046  10.413
99710SOL    HW1 1027   9.106  14.067  10.418
99710SOL    HW2 1028   8.986  14.078  10.327
99711SOL     OW 1029  13.352   8.344  14.780
99711SOL    HW1 1030  13.352   8.371   0.001
99711SOL    HW2 1031  13.286   8.398  14.738
99712SOL     OW 1032   1.040  11.162   6.582
99712SOL    HW1 1033   1.010  11.196   6.666
99712SOL    HW2 1034   1.103  11.228   6.551
99713SOL     OW 1035   0.933  11.323  14.200
99713SOL    HW1 1036   0.879  11.245  14.189
99713SOL    HW2 1037   0.944  11.357  14.111
99714SOL     OW 1038   1.451  12.851   9.947
99714SOL    HW1 1039   1.504  12.931   9.947
99714SOL    HW2 1040   1.505  12.786   9.903
99715SOL     OW 1041   7.859   2.017  12.759
99715SOL    HW1 1042   7.821   2.001  12.673
99715SOL    HW2 1043   7.796   2.075  12.802
99716SOL     OW 1044   2.524   6.792   1.772
99716SOL    HW1 1045   2.534   6.704   1.734
99716SOL    HW2 1046   2.586   6.846   1.723
99717SOL     OW 1047   0.373   4.530   4.523
99717SOL    HW1 1048   0.403   4.469   4.456
99717SOL    HW2 1049   0.421   4.504   4.602
99718SOL     OW 1050   7.525   9.979   8.028
99718SOL    HW1 1051   7.540  10.046   7.961
99718SOL    HW2 1052   7.540  10.024   8.111
99719SOL     OW 1053   8.267   9.787  13.221
99719SOL    HW1 1054   8.224   9.702  13.228
99719SOL    HW2 1055   8.195   9.849  13.203
99720SOL     OW 1056   1.021   2.605   7.944
99720SOL    HW1 1057   0.987   2.620   7.855
99720SOL    HW2 1058   0.943   2.600   7.999
99721SOL     OW 1059  10.220   0.472   4.677
99721SOL    HW1 1060  10.253   0.404   4.736
99721SOL    HW2 1061  10.139   0.502   4.718
99722SOL     OW 1062   3.573   0.232  10.248
99722SOL    HW1 1063   3.604   0.151  10.288
99722SOL    HW2 1064   3.599   0.301  10.309
99723SOL     OW 1065  13.465   6.205   5.615
99723SOL    HW1 1066  13.434   6.210   5.525
99723SOL    HW2 1067  13.554   6.171   5.607
99724SOL     OW 1068  11.346   7.925   6.753
99724SOL    HW1 1069  11.351   8.006   6.702
99724SOL    HW2 1070  11.425   7.877   6.729
99725SOL     OW 1071  14.847  12.079   4.982
99725SOL    HW1 1072   0.016  12.150   5.035
99725SOL    HW2 1073   0.035  12.005   4.997
99726SOL     OW 1074   2.082   3.950   0.328
99726SOL    HW1 1075   2.111   3.936   0.238
99726SOL    HW2 1076   2.079   4.046   0.338
99727SOL     OW 1077   5.756   5.727   0.689
99727SOL    HW1 1078   5.672   5.730   0.734
99727SOL    HW2 1079   5.734   5.724   0.596
99728SOL     OW 1080  14.213  14.329   9.988
99728SOL    HW1 1081  14.171  14.260   9.936
99728SOL    HW2 1082  14.290  14.287  10.024
99729SOL     OW 1083   3.486   3.580  13.158
99729SOL    HW1 1084   3.473   3.545  13.070
99729SOL    HW2 1085   3.569   3.627  13.152
99730SOL     OW 1086  14.045   1.437   8.939
99730SOL    HW1 1087  14.030   1.474   8.851
99730SOL    HW2 1088  14.098   1.359   8.923
99731SOL     OW 1089   4.301   8.544   2.692
99731SOL    HW1 1090   4.236   8.566   2.759
99731SOL    HW2 1091   4.377   8.597   2.714
99732SOL     OW 1092   5.953   6.962   3.847
99732SOL    HW1 1093   5.870   6.919   3.827
99732SOL    HW2 1094   6.004   6.894   3.891
99733SOL     OW 1095  12.728  11.082   8.791
99733SOL    HW1 1096  12.751  11.154   8.850
99733SOL    HW2 1097  12.789  11.012   8.813
99734SOL     OW 1098   4.731   5.307   5.288
99734SOL    HW1 1099   4.674   5.243   5.244
99734SOL    HW2 1100   4.817   5.266   5.287
99735SOL     OW 1101   9.951   1.751   7.598
99735SOL    HW1 1102   9.880   1.770   7.536
99735SOL    HW2 1103   9.944   1.657   7.614
99736SOL     OW 1104   7.369  11.875   1.097
99736SOL    HW1 1105   7.298  11.901   1.040
99736SOL    HW2 1106   7.328  11.857   1.181
99737SOL     OW 1107   4.821   6.159   6.124
99737SOL    HW1 1108   4.768   6.167   6.204
99737SOL    HW2 1109   4.908   6.187   6.151
99738SOL     OW 1110   1.598  10.841   9.709
99738SOL    HW1 1111   1.641  10.828   9.625
99738SOL    HW2 1112   1.544  10.919   9.697
99739SOL     OW 1113   4.637  10.573   1.393
99739SOL    HW1 1114   4.726  10.593   1.421
99739SOL    HW2 1115   4.614  10.645   1.334
99740SOL     OW 1116   9.570   7.917   7.337
99740SOL    HW1 1117   9.490   7.871   7.363
99740SOL    HW2 1118   9.546   8.009   7.336
99741SOL     OW 1119  12.500   9.520   0.147
99741SOL    HW1 1120  12.457   9.434   0.153
99741SOL    HW2 1121  12.520   9.531   0.054
99742SOL     OW 1122  12.241   8.450   3.076
99742SOL    HW1 1123  12.243   8.516   3.007
99742SOL    HW2 1124  12.151   8.420   3.078
99743SOL     OW 1125   7.253   3.484   3.967
99743SOL    HW1 1126   7.228   3.455   3.879
99743SOL    HW2 1127   7.170   3.485   4.016
99744SOL     OW 1128   5.405  12.548  12.148
99744SOL    HW1 1129   5.423  12.454  12.150
99744SOL    HW2 1130   5.483  12.589  12.184
99745SOL     OW 1131   2.220  14.733   9.561
99745SOL    HW1 1132   2.129  14.709   9.546
99745SOL    HW2 1133   2.246  14.780   9.482
99746SOL     OW 1134   4.810   4.234   0.948
99746SOL    HW1 1135   4.833   4.179   0.873
99746SOL    HW2 1136   4.715   4.237   0.947
99747SOL     OW 1137   6.114   6.933   3.463
99747SOL    HW1 1138   6.037   6.942   3.519
99747SOL    HW2 1139   6.123   6.839   3.447
99748SOL     OW 1140  14.440   8.640  12.118
99748SOL    HW1 1141  14.376   8.569  12.123
99748SOL    HW2 1142  14.488   8.634  12.201
99749SOL     OW 1143  10.276   4.768   3.720
99749SOL    HW1 1144  10.289   4.685   3.675
99749SOL    HW2 1145  10.229   4.745   3.800
99750SOL     OW 1146  12.927   3.260   3.910
99750SOL    HW1 1147  12.898   3.189   3.853
99750SOL    HW2 1148  12.870   3.333   3.888
99751SOL     OW 1149  13.508   8.099  10.145
99751SOL    HW1 1150  13.420   8.069  10.121
99751SOL    HW2 1151  13.522   8.178  10.093
99752SOL     OW 1152   7.397  13.262   8.541
99752SOL    HW1 1153   7.358  13.333   8.489
99752SOL    HW2 1154   7.325  13.230   8.596
99753SOL     OW 1155   6.138   8.496   1.324
99753SOL    HW1 1156   6.194   8.556   1.273
99753SOL    HW2 1157   6.171   8.504   1.413
99754SOL     OW 1158   4.464   0.526   3.065
99754SOL    HW1 1159   4.424   0.493   2.984
99754SOL    HW2 1160   4.420   0.479   3.135
99755SOL     OW 1161  12.233  13.645   6.365
99755SOL    HW1 1162  12.242  13.663   6.459
99755SOL    HW2 1163  12.198  13.556   6.361
99756SOL     OW 1164   2.213   4.040  11.864
99756SOL    HW1 1165   2.189   4.132  11.870
99756SOL    HW2 1166   2.295   4.033  11.912
99757SOL     OW 1167   6.132   4.352   2.342
99757SOL    HW1 1168   6.090   4.435   2.362
99757SOL    HW2 1169   6.069   4.286   2.371
99758SOL     OW 1170  13.707   2.126  10.073
99758SOL    HW1 1171  13.619   2.157  10.057
99758SOL    HW2 1172  13.763   2.202  10.060
99759SOL     OW 1173  11.100   3.524   0.088
99759SOL    HW1 1174  11.007   3.538   0.108
99759SOL    HW2 1175  11.128   3.457   0.150
99760SOL     OW 1176  10.834   1.262  10.613
99760SOL    HW1 1177  10.852   1.182  10.662
99760SOL    HW2 1178  10.746   1.250  10.578
99761SOL     OW 1179   7.056   0.298   7.304
99761SOL    HW1 1180   7.005   0.378   7.314
99761SOL    HW2 1181   6.991   0.228   7.298
99762SOL     OW 1182  11.118   9.164   9.487
99762SOL    HW1 1183  11.194   9.126   9.533
99762SOL    HW2 1184  11.134   9.258   9.489
99763SOL     OW 1185   7.291  12.765   0.399
99763SOL    HW1 1186   7.375  12.724   0.376
99763SOL    HW2 1187   7.274  12.826   0.327
99764SOL     OW 1188  13.122   9.433   7.586
99764SOL    HW1 1189  13.213   9.463   7.582
99764SOL    HW2 1190  13.082   9.467   7.506
99765SOL     OW 1191   4.039  13.188   1.796
99765SOL    HW1 1192   4.007  13.250   1.731
99765SOL    HW2 1193   3.961  13.158   1.842
99766SOL     OW 1194   2.085  10.118   3.953
99766SOL    HW1 1195   2.026  10.087   4.021
99766SOL    HW2 1196   2.038  10.188   3.910
99767SOL     OW 1197  12.493   4.703  10.221
99767SOL    HW1 1198  12.492   4.781  10.166
99767SOL    HW2 1199  12.457   4.634  10.166
99768SOL     OW 1200   4.496   6.944   6.932
99768SOL    HW1 1201   4.578   6.993   6.924
99768SOL    HW2 1202   4.522   6.852   6.927
99769SOL     OW 1203  14.532   0.239   4.964
99769SOL    HW1 1204  14.560   0.280   5.046
99769SOL    HW2 1205  14.537   0.145   4.981
99770SOL     OW 1206   4.012   2.882  12.595
99770SOL    HW1 1207   4.099   2.903  12.630
99770SOL    HW2 1208   3.963   2.963  12.603
99771SOL     OW 1209   1.283  11.380   9.026
99771SOL    HW1 1210   1.338  11.378   9.104
99771SOL    HW2 1211   1.332  11.434   8.963
99772SOL     OW 1212  10.685   8.768  14.171
99772SOL    HW1 1213  10.688   8.864  14.174
99772SOL    HW2 1214  10.600   8.745  14.207
99773SOL     OW 1215   7.880   5.308   5.709
99773SOL    HW1 1216   7.883   5.231   5.653
99773SOL    HW2 1217   7.885   5.273   5.798
99774SOL     OW 1218  14.572   5.430  10.722
99774SOL    HW1 1219  14.655   5.476  10.735
99774SOL    HW2 1220  14.577   5.355  10.781
99775SOL     OW 1221   1.452   6.766  11.443
99775SOL    HW1 1222   1.489   6.721  11.520
99775SOL    HW2 1223   1.419   6.848  11.478
99776SOL     OW 1224   0.989  14.488  11.175
99776SOL    HW1 1225   1.018  14.576  11.199
99776SOL    HW2 1226   0.954  14.451  11.256
99777SOL     OW 1227   8.962   1.728   4.932
99777SOL    HW1 1228   8.868   1.714   4.924
99777SOL    HW2 1229   8.994   1.652   4.981
99778SOL     OW 1230  10.227   6.101   4.377
99778SOL    HW1 1231  10.203   6.188   4.409
99778SOL    HW2 1232  10.143   6.056   4.367
99779SOL     OW 1233   4.083  10.348   7.364
99779SOL    HW1 1234   4.038  10.422   7.404
99779SOL    HW2 1235   4.087  10.282   7.434
99780SOL     OW 1236  13.016   1.224   8.307
99780SOL    HW1 1237  13.111   1.237   8.314
99780SOL    HW2 1238  13.004   1.130   8.321
99781SOL     OW 1239  10.348  12.773   3.877
99781SOL    HW1 1240  10.331  12.764   3.970
99781SOL    HW2 1241  10.347  12.867   3.861
99782SOL     OW 1242  14.690   7.945  12.819
99782SOL    HW1 1243  14.626   7.875  12.811
99782SOL    HW2 1244  14.688   7.969  12.912
99783SOL     OW 1245   6.690   8.646   5.358
99783SOL    HW1 1246   6.715   8.558   5.329
99783SOL    HW2 1247   6.601   8.634   5.394
99784SOL     OW 1248  11.069   7.011   8.154
99784SOL    HW1 1249  11.135   7.066   8.113
99784SOL    HW2 1250  11.115   6.966   8.224
99785SOL     OW 1251  14.173   2.093   6.802
99785SOL    HW1 1252  14.224   2.026   6.847
99785SOL    HW2 1253  14.190   2.077   6.709
99786SOL     OW 1254   1.169   9.259   6.041
99786SOL    HW1 1255   1.102   9.259   5.972
99786SOL    HW2 1256   1.120   9.255   6.122
99787SOL     OW 1257   6.783   0.759   5.661
99787SOL    HW1 1258   6.857   0.808   5.626
99787SOL    HW2 1259   6.721   0.756   5.588
99788SOL     OW 1260  13.353  10.475  11.351
99788SOL    HW1 1261  13.398  10.418  11.288
99788SOL    HW2 1262  13.423  10.515  11.402
99789SOL     OW 1263   1.118   0.291   6.764
99789SOL    HW1 1264   1.043   0.301   6.823
99789SOL    HW2 1265   1.167   0.217   6.799
99790SOL     OW 1266   8.649   8.983   9.630
99790SOL    HW1 1267   8.642   9.074   9.659
99790SOL    HW2 1268   8.565   8.944   9.656
99791SOL     OW 1269   3.303   1.388  14.095
99791SOL    HW1 1270   3.296   1.483  14.088
99791SOL    HW2 1271   3.305   1.371  14.189
99792SOL     OW 1272  12.656   0.341  12.130
99792SOL    HW1 1273  12.744   0.340  12.169
99792SOL    HW2 1274  12.616   0.259  12.160
99793SOL     OW 1275   1.127   5.976  11.137
99793SOL    HW1 1276   1.175   5.914  11.081
99793SOL    HW2 1277   1.144   5.946  11.226
99794SOL     OW 1278   0.799  12.050   1.407
99794SOL    HW1 1279   0.714  12.007   1.416
99794SOL    HW2 1280   0.780  12.128   1.355
99795SOL     OW 1281   2.772   1.310   1.172
99795SOL    HW1 1282   2.735   1.262   1.246
99795SOL    HW2 1283   2.697   1.330   1.116
99796SOL     OW 1284   9.644  11.924   9.599
99796SOL    HW1 1285   9.578  11.985   9.632
99796SOL    HW2 1286   9.674  11.963   9.516
99797SOL     OW 1287   1.842  10.762   5.649
99797SOL    HW1 1288   1.752  10.775   5.679
99797SOL    HW2 1289   1.854  10.829   5.581
99798SOL     OW 1290   7.984   4.564   3.670
99798SOL    HW1 1291   7.942   4.585   3.753
99798SOL    HW2 1292   7.950   4.478   3.647
99799SOL     OW 1293  11.647   7.847   4.418
99799SOL    HW1 1294  11.553   7.855   4.433
99799SOL    HW2 1295  11.658   7.760   4.379
99800SOL     OW 1296   2.800   7.725  12.925
99800SOL    HW1 1297   2.814   7.666  12.851
99800SOL    HW2 1298   2.864   7.795  12.913
99801SOL     OW 1299   9.302   3.821   8.023
99801SOL    HW1 1300   9.280   3.754   8.088
99801SOL    HW2 1301   9.389   3.796   7.990
99802SOL     OW 1302   3.169   0.749  10.151
99802SOL    HW1 1303   3.106   0.679  10.133
99802SOL    HW2 1304   3.233   0.709  10.211
99803SOL     OW 1305   3.728  11.785   7.530
99803SOL    HW1 1306   3.728  11.694   7.502
99803SOL    HW2 1307   3.655  11.825   7.482
99804SOL     OW 1308   6.678   1.765  12.994
99804SOL    HW1 1309   6.658   1.748  12.902
99804SOL    HW2 1310   6.593   1.787  13.033
99805SOL     OW 1311   5.464   1.142   7.982
99805SOL    HW1 1312   5.491   1.052   7.963
99805SOL    HW2 1313   5.435   1.177   7.898
99806SOL     OW 1314   6.097   1.566   3.275
99806SOL    HW1 1315   6.167   1.514   3.315
99806SOL    HW2 1316   6.030   1.571   3.344
99807SOL     OW 1317   5.663   3.173  10.140
99807SOL    HW1 1318   5.746   3.134  10.165
99807SOL    HW2 1319   5.670   3.187  10.046
99808SOL     OW 1320   4.192  11.253   3.977
99808SOL    HW1 1321   4.218  11.167   3.943
99808SOL    HW2 1322   4.271  11.286   4.020
99809SOL     OW 1323   2.286   5.237   2.921
99809SOL    HW1 1324   2.217   5.263   2.860
99809SOL    HW2 1325   2.254   5.265   3.007
99810SOL     OW 1326   9.740   6.381   7.939
99810SOL    HW1 1327   9.738   6.289   7.912
99810SOL    HW2 1328   9.672   6.423   7.886
99811SOL     OW 1329   5.464  12.082  10.384
99811SOL    HW1 1330   5.374  12.090  10.354
99811SOL    HW2 1331   5.503  12.016  10.327
99812SOL     OW 1332   6.555   0.834  11.244
99812SOL    HW1 1333   6.495   0.899  11.208
99812SOL    HW2 1334   6.615   0.884  11.298
99813SOL     OW 1335   0.217   7.171   2.280
99813SOL    HW1 1336   0.149   7.235   2.262
99813SOL    HW2 1337   0.170   7.095   2.316
99814SOL     OW 1338   3.569   8.436   2.936
99814SOL    HW1 1339   3.568   8.380   2.858
99814SOL    HW2 1340   3.649   8.411   2.982
99815SOL     OW 1341   6.051  12.102  13.404
99815SOL    HW1 1342   6.000  12.055  13.337
99815SOL    HW2 1343   6.058  12.040  13.476
99816SOL     OW 1344   9.909   8.503   4.425
99816SOL    HW1 1345   9.948   8.485   4.339
99816SOL    HW2 1346   9.821   8.535   4.405
99817SOL     OW 1347  10.584   0.798   4.613
99817SOL    HW1 1348  10.588   0.702   4.612
99817SOL    HW2 1349  10.499   0.819   4.575
99818SOL     OW 1350   1.773  13.187   6.380
99818SOL    HW1 1351   1.679  13.193   6.363
99818SOL    HW2 1352   1.800  13.277   6.399
99819SOL     OW 1353   4.724  13.653   4.492
99819SOL    HW1 1354   4.674  13.591   4.544
99819SOL    HW2 1355   4.728  13.732   4.546
99820SOL     OW 1356   8.960   9.702  13.600
99820SOL    HW1 1357   9.006   9.671  13.521
99820SOL    HW2 1358   8.868   9.685  13.581
99821SOL     OW 1359   3.146  12.068  14.615
99821SOL    HW1 1360   3.152  12.145  14.671
99821SOL    HW2 1361   3.235  12.034  14.612
99822SOL     OW 1362   1.779  13.112  12.456
99822SOL    HW1 1363   1.690  13.126  12.423
99822SOL    HW2 1364   1.835  13.121  12.379
99823SOL     OW 1365   5.650   3.184  14.542
99823SOL    HW1 1366   5.599   3.248  14.591
99823SOL    HW2 1367   5.638   3.102  14.590
99824SOL     OW 1368  14.179  10.639  13.567
99824SOL    HW1 1369  14.273  10.626  13.580
99824SOL    HW2 1370  14.160  10.722  13.612
99825SOL     OW 1371   0.706   4.718  11.830
99825SOL    HW1 1372   0.704   4.711  11.925
99825SOL    HW2 1373   0.616   4.701  11.803
99826SOL     OW 1374  14.212  12.714   1.786
99826SOL    HW1 1375  14.278  12.732   1.853
99826SOL    HW2 1376  14.206  12.797   1.737
99827SOL     OW 1377   0.086   4.988   9.742
99827SOL    HW1 1378   0.103   5.082   9.733
99827SOL    HW2 1379   0.066   4.977   9.835
99828SOL     OW 1380   5.919   7.952  14.673
99828SOL    HW1 1381   5.831   7.987  14.690
99828SOL    HW2 1382   5.977   8.027  14.687
99829SOL     OW 1383   0.750   5.757   4.090
99829SOL    HW1 1384   0.741   5.774   4.183
99829SOL    HW2 1385   0.833   5.709   4.082
99830SOL     OW 1386   2.430  10.469  12.637
99830SOL    HW1 1387   2.487  10.531  12.683
99830SOL    HW2 1388   2.456  10.383  12.670
99831SOL     OW 1389   3.336  12.069   4.583
99831SOL    HW1 1390   3.298  12.039   4.665
99831SOL    HW2 1391   3.297  12.156   4.570
99832SOL     OW 1392   3.836   5.341   7.590
99832SOL    HW1 1393   3.809   5.252   7.567
99832SOL    HW2 1394   3.763   5.377   7.640
99833SOL     OW 1395  11.802   1.090   1.478
99833SOL    HW1 1396  11.828   1.007   1.518
99833SOL    HW2 1397  11.786   1.069   1.386
99834SOL     OW 1398   3.910   2.932   5.723
99834SOL    HW1 1399   3.946   3.010   5.681
99834SOL    HW2 1400   3.979   2.904   5.784
99835SOL     OW 1401   8.734  11.726   3.562
99835SOL    HW1 1402   8.704  11.749   3.650
99835SOL    HW2 1403   8.828  11.711   3.571
99836SOL     OW 1404  11.273   1.912  12.214
99836SOL    HW1 1405  11.266   1.902  12.119
99836SOL    HW2 1406  11.365   1.932  12.230
99837SOL     OW 1407   4.352  12.669   5.847
99837SOL    HW1 1408   4.303  12.748   5.825
99837SOL    HW2 1409   4.388  12.687   5.934
99838SOL     OW 1410   0.832   3.425   6.771
99838SOL    HW1 1411   0.810   3.467   6.854
99838SOL    HW2 1412   0.782   3.343   6.771
99839SOL     OW 1413   0.360   8.067   0.308
99839SOL    HW1 1414   0.372   8.154   0.346
99839SOL    HW2 1415   0.267   8.047   0.321
99840SOL     OW 1416   4.467  13.443   5.537
99840SOL    HW1 1417   4.384  13.396   5.549
99840SOL    HW2 1418   4.442  13.536   5.546
99841SOL     OW 1419  13.875   6.441   5.087
99841SOL    HW1 1420  13.896   6.408   5.174
99841SOL    HW2 1421  13.959   6.463   5.048
99842SOL     OW 1422   0.798   6.634   6.026
99842SOL    HW1 1423   0.750   6.579   6.088
99842SOL    HW2 1424   0.789   6.590   5.942
99843SOL     OW 1425  12.240   6.792   5.784
99843SOL    HW1 1426  12.242   6.888   5.794
99843SOL    HW2 1427  12.322   6.762   5.823
99844SOL     OW 1428   8.660   7.033  10.054
99844SOL    HW1 1429   8.591   7.096  10.074
99844SOL    HW2 1430   8.705   7.070   9.977
99845SOL     OW 1431  11.862   8.169   8.934
99845SOL    HW1 1432  11.806   8.151   8.858
99845SOL    HW2 1433  11.904   8.085   8.953
99846SOL     OW 1434   7.464   2.831   7.307
99846SOL    HW1 1435   7.534   2.857   7.247
99846SOL    HW2 1436   7.510   2.790   7.381
99847SOL     OW 1437  13.519   0.985  11.404
99847SOL    HW1 1438  13.453   0.952  11.343
99847SOL    HW2 1439  13.489   1.073  11.427
99848SOL     OW 1440  13.179  14.726   8.966
99848SOL    HW1 1441  13.121  14.746   8.893
99848SOL    HW2 1442  13.174  14.803   9.022
99849SOL     OW 1443   6.330  14.575  14.806
99849SOL    HW1 1444   6.331  14.608  14.716
99849SOL    HW2 1445   6.400  14.509  14.809
99850SOL     OW 1446  11.604   2.346   9.277
99850SOL    HW1 1447  11.614   2.438   9.303
99850SOL    HW2 1448  11.522   2.319   9.319
99851SOL     OW 1449   4.445   0.478   1.438
99851SOL    HW1 1450   4.473   0.438   1.520
99851SOL    HW2 1451   4.465   0.571   1.447
99852SOL     OW 1452  10.588   5.114  13.436
99852SOL    HW1 1453  10.653   5.181  13.411
99852SOL    HW2 1454  10.511   5.165  13.462
99853SOL     OW 1455   8.279   3.688   0.417
99853SOL    HW1 1456   8.330   3.665   0.495
99853SOL    HW2 1457   8.188   3.682   0.446
99854SOL     OW 1458   9.934  13.810   0.177
99854SOL    HW1 1459   9.909  13.795   0.268
99854SOL    HW2 1460  10.019  13.768   0.168
99855SOL     OW 1461   2.105   9.773  10.182
99855SOL    HW1 1462   2.086   9.775  10.089
99855SOL    HW2 1463   2.024   9.803  10.224
99856SOL     OW 1464   0.397   1.626   6.773
99856SOL    HW1 1465   0.483   1.594   6.801
99856SOL    HW2 1466   0.374   1.693   6.837
99857SOL     OW 1467  12.662   7.512   7.439
99857SOL    HW1 1468  12.613   7.474   7.512
99857SOL    HW2 1469  12.671   7.439   7.377
99858SOL     OW 1470   2.696  13.287   8.920
99858SOL    HW1 1471   2.747  13.352   8.969
99858SOL    HW2 1472   2.757  13.252   8.856
99859SOL     OW 1473   9.637  10.513   9.782
99859SOL    HW1 1474   9.575  10.447   9.751
99859SOL    HW2 1475   9.602  10.596   9.748
99860SOL     OW 1476   7.990  10.096   1.742
99860SOL    HW1 1477   7.904  10.132   1.761
99860SOL    HW2 1478   8.018  10.143   1.663
99861SOL     OW 1479  10.380  10.169  11.524
99861SOL    HW1 1480  10.310  10.232  11.541
99861SOL    HW2 1481  10.421  10.155  11.609
99862SOL     OW 1482  14.847   3.866   6.164
99862SOL    HW1 1483  14.798   3.943   6.190
99862SOL    HW2 1484  14.847   3.810   6.241
99863SOL     OW 1485   1.009   6.277   7.232
99863SOL    HW1 1486   0.951   6.328   7.289
99863SOL    HW2 1487   1.048   6.341   7.173
99864SOL     OW 1488   6.937   2.042   3.708
99864SOL    HW1 1489   6.921   2.086   3.624
99864SOL    HW2 1490   6.985   1.963   3.685
99865SOL     OW 1491  12.444   1.897   8.299
99865SOL    HW1 1492  12.497   1.820   8.322
99865SOL    HW2 1493  12.416   1.932   8.383
99866SOL     OW 1494   3.630   5.709   7.103
99866SOL    HW1 1495   3.622   5.663   7.186
99866SOL    HW2 1496   3.719   5.745   7.105
99867SOL     OW 1497  12.429  14.783   3.316
99867SOL    HW1 1498  12.524  14.792   3.317
99867SOL    HW2 1499  12.412  14.701   3.362
99868SOL     OW 1500   8.921   2.027  12.700
99868SOL    HW1 1501   8.863   1.952  12.713
99868SOL    HW2 1502   8.972   2.005  12.621
99869SOL     OW 1503  12.229   2.437  10.176
99869SOL    HW1 1504  12.265   2.357  10.214
99869SOL    HW2 1505  12.237   2.425  10.081
99870SOL     OW 1506   6.951   4.339   9.428
99870SOL    HW1 1507   6.887   4.406   9.402
99870SOL    HW2 1508   6.953   4.345   9.524
99871SOL     OW 1509  13.405   8.372   4.647
99871SOL    HW1 1510  13.500   8.382   4.649
99871SOL    HW2 1511  13.379   8.364   4.739
99872SOL     OW 1512   6.766  12.893  13.227
99872SOL    HW1 1513   6.799  12.905  13.316
99872SOL    HW2 1514   6.695  12.829  13.236
99873SOL     OW 1515  14.215   4.479   0.784
99873SOL    HW1 1516  14.279   4.411   0.806
99873SOL    HW2 1517  14.243   4.512   0.699
99874SOL     OW 1518  11.395  14.759   9.980
99874SOL    HW1 1519  11.424  14.760  10.071
99874SOL    HW2 1520  11.305  14.728   9.984
99875SOL     OW 1521  12.573   2.552   2.700
99875SOL    HW1 1522  12.599   2.616   2.767
99875SOL    HW2 1523  12.645   2.488   2.698
99876SOL     OW 1524   0.517   5.421  11.530
99876SOL    HW1 1525   0.595   5.374  11.501
99876SOL    HW2 1526   0.448   5.355  11.530
99877SOL     OW 1527  12.578  13.176  13.135
99877SOL    HW1 1528  12.663  13.136  13.148
99877SOL    HW2 1529  12.527  13.110  13.088
99878SOL     OW 1530  13.453  12.102   6.796
99878SOL    HW1 1531  13.529  12.112   6.854
99878SOL    HW2 1532  13.394  12.044   6.843
99879SOL     OW 1533   3.722   9.615   3.179
99879SOL    HW1 1534   3.700   9.529   3.215
99879SOL    HW2 1535   3.808   9.604   3.140
99880SOL     OW 1536   1.426   9.218  10.739
99880SOL    HW1 1537   1.367   9.145  10.718
99880SOL    HW2 1538   1.374   9.296  10.720
99881SOL     OW 1539  11.635   7.678   9.740
99881SOL    HW1 1540  11.650   7.769   9.714
99881SOL    HW2 1541  11.612   7.683   9.833
99882SOL     OW 1542  11.596  10.971   8.821
99882SOL    HW1 1543  11.588  10.925   8.737
99882SOL    HW2 1544  11.632  10.906   8.881
99883SOL     OW 1545  10.558   9.589   7.440
99883SOL    HW1 1546  10.618   9.528   7.482
99883SOL    HW2 1547  10.490   9.532   7.402
99884SOL     OW 1548   2.240   0.755   5.643
99884SOL    HW1 1549   2.319   0.736   5.593
99884SOL    HW2 1550   2.180   0.683   5.622
99885SOL     OW 1551   1.390  14.489   0.812
99885SOL    HW1 1552   1.342  14.482   0.729
99885SOL    HW2 1553   1.404  14.398   0.839
99886SOL     OW 1554   5.014  14.795  12.557
99886SOL    HW1 1555   5.003  14.855  12.483
99886SOL    HW2 1556   5.013  14.852  12.634
99887SOL     OW 1557  12.907   2.476  14.007
99887SOL    HW1 1558  12.817   2.508  14.010
99887SOL    HW2 1559  12.906   2.397  14.060
99888SOL     OW 1560   3.393   4.153   4.408
99888SOL    HW1 1561   3.426   4.175   4.496
99888SOL    HW2 1562   3.393   4.237   4.361
99889SOL     OW 1563   8.740   5.290   1.521
99889SOL    HW1 1564   8.817   5.341   1.497
99889SOL    HW2 1565   8.729   5.307   1.615
99890SOL     OW 1566   0.036   6.603  10.620
99890SOL    HW1 1567   0.036   6.508  10.608
99890SOL    HW2 1568  14.833   6.634  10.566
99891SOL     OW 1569   0.522   9.606   6.057
99891SOL    HW1 1570   0.456   9.618   6.124
99891SOL    HW2 1571   0.486   9.538   6.000
99892SOL     OW 1572   8.685   8.646   4.395
99892SOL    HW1 1573   8.779   8.644   4.379
99892SOL    HW2 1574   8.661   8.555   4.413
99893SOL     OW 1575  12.742  12.118  10.455
99893SOL    HW1 1576  12.727  12.024  10.466
99893SOL    HW2 1577  12.672  12.160  10.504
99894SOL     OW 1578   3.108   7.280   3.985
99894SOL    HW1 1579   3.061   7.302   4.065
99894SOL    HW2 1580   3.182   7.227   4.014
99895SOL     OW 1581   9.016   4.935   7.097
99895SOL    HW1 1582   8.958   4.913   7.169
99895SOL    HW2 1583   9.104   4.914   7.129
99896SOL     OW 1584  14.143  11.419   4.251
99896SOL    HW1 1585  14.142  11.467   4.168
99896SOL    HW2 1586  14.231  11.380   4.255
99897SOL     OW 1587   8.090  13.073   5.143
99897SOL    HW1 1588   8.160  13.038   5.089
99897SOL    HW2 1589   8.121  13.063   5.233
99898SOL     OW 1590   7.730   2.221   8.552
99898SOL    HW1 1591   7.750   2.314   8.551
99898SOL    HW2 1592   7.638   2.216   8.578
99899SOL     OW 1593   5.720   0.556  11.265
99899SOL    HW1 1594   5.773   0.624  11.307
99899SOL    HW2 1595   5.660   0.526  11.334
99900SOL     OW 1596   6.206   6.740   1.329
99900SOL    HW1 1597   6.212   6.749   1.424
99900SOL    HW2 1598   6.130   6.684   1.315
99901SOL     OW 1599   6.009  12.088   1.832
99901SOL    HW1 1600   5.991  11.994   1.825
99901SOL    HW2 1601   6.103  12.093   1.850
99902SOL     OW 1602  13.580   3.544   5.000
99902SOL    HW1 1603  13.575   3.449   5.013
99902SOL    HW2 1604  13.666   3.558   4.960
99903SOL     OW 1605   6.151   2.746   6.523
99903SOL    HW1 1606   6.217   2.750   6.593
99903SOL    HW2 1607   6.133   2.838   6.502
99904SOL     OW 1608  11.162   7.270   8.313
99904SOL    HW1 1609  11.231   7.219   8.270
99904SOL    HW2 1610  11.128   7.213   8.381
99905SOL     OW 1611   0.482  11.182   4.304
99905SOL    HW1 1612   0.487  11.132   4.222
99905SOL    HW2 1613   0.389  11.201   4.315
99906SOL     OW 1614   9.586   0.274  11.051
99906SOL    HW1 1615   9.644   0.270  10.975
99906SOL    HW2 1616   9.519   0.338  11.027
99907SOL     OW 1617   5.576  10.269  12.732
99907SOL    HW1 1618   5.669  10.269  12.756
99907SOL    HW2 1619   5.571  10.327  12.656
99908SOL     OW 1620  11.624  10.018   4.753
99908SOL    HW1 1621  11.701   9.962   4.757
99908SOL    HW2 1622  11.560   9.977   4.812
99909SOL     OW 1623  14.110  13.916  12.009
99909SOL    HW1 1624  14.189  13.954  12.048
99909SOL    HW2 1625  14.043  13.925  12.077
99910SOL     OW 1626  11.064  12.052   0.175
99910SOL    HW1 1627  10.997  12.086   0.235
99910SOL    HW2 1628  11.110  12.130   0.144
99911SOL     OW 1629   8.932   4.628  10.213
99911SOL    HW1 1630   8.912   4.722  10.207
99911SOL    HW2 1631   8.955   4.602  10.124
99912SOL     OW 1632   3.849   6.613  10.857
99912SOL    HW1 1633   3.792   6.585  10.786
99912SOL    HW2 1634   3.936   6.582  10.832
99913SOL     OW 1635   4.161   0.099   4.653
99913SOL    HW1 1636   4.169   0.191   4.629
99913SOL    HW2 1637   4.147   0.100   4.748
99914SOL     OW 1638  12.616   7.013   8.677
99914SOL    HW1 1639  12.571   6.983   8.599
99914SOL    HW2 1640  12.569   7.092   8.703
99915SOL     OW 1641   5.531  12.985   6.842
99915SOL    HW1 1642   5.619  13.001   6.807
99915SOL    HW2 1643   5.476  12.979   6.764
99916SOL     OW 1644  11.287  14.655   8.428
99916SOL    HW1 1645  11.327  14.582   8.381
99916SOL    HW2 1646  11.274  14.621   8.517
99917SOL     OW 1647   2.766  10.937   9.867
99917SOL    HW1 1648   2.825  10.960   9.795
99917SOL    HW2 1649   2.802  10.982   9.943
99918SOL     OW 1650   1.989   1.902   5.100
99918SOL    HW1 1651   1.948   1.828   5.057
99918SOL    HW2 1652   1.922   1.934   5.161
99919SOL     OW 1653  12.482   7.179  14.253
99919SOL    HW1 1654  12.499   7.100  14.202
99919SOL    HW2 1655  12.501   7.154  14.343
99920SOL     OW 1656  13.532   5.151  10.269
99920SOL    HW1 1657  13.609   5.132  10.214
99920SOL    HW2 1658  13.462   5.169  10.207
99921SOL     OW 1659   1.523  12.801   6.228
99921SOL    HW1 1660   1.606  12.832   6.265
99921SOL    HW2 1661   1.485  12.746   6.297
99922SOL     OW 1662   1.984  10.734   0.900
99922SOL    HW1 1663   1.889  10.741   0.906
99922SOL    HW2 1664   2.001  10.641   0.885
99923SOL     OW 1665   2.577   0.826   6.055
99923SOL    HW1 1666   2.561   0.873   6.138
99923SOL    HW2 1667   2.648   0.875   6.014
99924SOL     OW 1668  12.522   0.516   9.715
99924SOL    HW1 1669  12.534   0.421   9.713
99924SOL    HW2 1670  12.461   0.531   9.788
99925SOL     OW 1671   5.144   1.744   0.735
99925SOL    HW1 1672   5.050   1.726   0.727
99925SOL    HW2 1673   5.175   1.681   0.799
99926SOL     OW 1674  12.728   3.654  12.900
99926SOL    HW1 1675  12.701   3.746  12.890
99926SOL    HW2 1676  12.658   3.604  12.858
99927SOL     OW 1677  13.084  12.716   4.849
99927SOL    HW1 1678  13.097  12.747   4.760
99927SOL    HW2 1679  13.018  12.646   4.841
99928SOL     OW 1680   1.173   2.637  10.037
99928SOL    HW1 1681   1.141   2.599  10.119
99928SOL    HW2 1682   1.133   2.584   9.968
99929SOL     OW 1683  12.342   5.317   3.664
99929SOL    HW1 1684  12.260   5.336   3.619
99929SOL    HW2 1685  12.407   5.371   3.619
99930SOL     OW 1686   6.542  10.340  11.045
99930SOL    HW1 1687   6.635  10.360  11.034
99930SOL    HW2 1688   6.500  10.426  11.051
99931SOL     OW 1689   7.956   4.022   3.204
99931SOL    HW1 1690   8.020   4.029   3.275
99931SOL    HW2 1691   8.008   3.999   3.127
99932SOL     OW 1692  14.736   4.439   2.547
99932SOL    HW1 1693  14.770   4.387   2.620
99932SOL    HW2 1694  14.811   4.491   2.517
99933SOL     OW 1695   1.311  10.002  13.690
99933SOL    HW1 1696   1.336  10.092  13.712
99933SOL    HW2 1697   1.227  10.011  13.644
99934SOL     OW 1698   4.648   3.954   5.086
99934SOL    HW1 1699   4.580   4.000   5.036
99934SOL    HW2 1700   4.719   4.018   5.094
99935SOL     OW 1701   4.583   6.326   9.674
99935SOL    HW1 1702   4.674   6.339   9.649
99935SOL    HW2 1703   4.564   6.236   9.649
99936SOL     OW 1704  10.885   3.031   8.126
99936SOL    HW1 1705  10.864   3.000   8.214
99936SOL    HW2 1706  10.847   3.119   8.121
99937SOL     OW 1707   0.233  11.720  12.320
99937SOL    HW1 1708   0.279  11.656  12.374
99937SOL    HW2 1709   0.301  11.754  12.261
99938SOL     OW 1710  10.179   9.015   0.589
99938SOL    HW1 1711  10.120   8.941   0.604
99938SOL    HW2 1712  10.192   9.016   0.494
99939SOL     OW 1713   2.745  13.031   5.837
99939SOL    HW1 1714   2.745  13.109   5.893
99939SOL    HW2 1715   2.829  13.033   5.793
99940SOL     OW 1716   0.995   3.226   2.868
99940SOL    HW1 1717   1.028   3.249   2.955
99940SOL    HW2 1718   1.053   3.272   2.807
99941SOL     OW 1719   9.221   0.601  10.094
99941SOL    HW1 1720   9.282   0.535  10.127
99941SOL    HW2 1721   9.208   0.661  10.168
99942SOL     OW 1722  10.163   3.429   4.763
99942SOL    HW1 1723  10.152   3.353   4.706
99942SOL    HW2 1724  10.185   3.392   4.849
99943SOL     OW 1725   8.099   1.955   8.643
99943SOL    HW1 1726   8.037   2.016   8.604
99943SOL    HW2 1727   8.118   1.992   8.729
99944SOL     OW 1728   2.064  10.007   9.811
99944SOL    HW1 1729   2.132  10.069   9.835
99944SOL    HW2 1730   2.108   9.922   9.814
99945SOL     OW 1731   6.302  12.326  14.797
99945SOL    HW1 1732   6.260  12.337  14.712
99945SOL    HW2 1733   6.238  12.358  14.860
99946SOL     OW 1734  10.156  10.820   8.567
99946SOL    HW1 1735  10.135  10.897   8.619
99946SOL    HW2 1736  10.228  10.778   8.613
99947SOL     OW 1737   9.626  11.685  14.350
99947SOL    HW1 1738   9.633  11.732  14.433
99947SOL    HW2 1739   9.710  11.700  14.308
99948SOL     OW 1740   8.422  13.539   6.665
99948SOL    HW1 1741   8.411  13.619   6.717
99948SOL    HW2 1742   8.516  13.520   6.669
99949SOL     OW 1743  11.835  10.106   1.705
99949SOL    HW1 1744  11.879  10.053   1.772
99949SOL    HW2 1745  11.804  10.183   1.752
99950SOL     OW 1746   9.605  12.884   2.330
99950SOL    HW1 1747   9.539  12.900   2.263
99950SOL    HW2 1748   9.622  12.790   2.324
99951SOL     OW 1749  13.517  11.909   7.133
99951SOL    HW1 1750  13.585  11.948   7.079
99951SOL    HW2 1751  13.511  11.965   7.210
99952SOL     OW 1752  13.833  12.411   9.227
99952SOL    HW1 1753  13.817  12.503   9.205
99952SOL    HW2 1754  13.915  12.412   9.277
99953SOL     OW 1755   3.603   2.640   4.541
99953SOL    HW1 1756   3.626   2.600   4.625
99953SOL    HW2 1757   3.555   2.719   4.565
99954SOL     OW 1758   7.037   9.922   2.015
99954SOL    HW1 1759   7.044   9.830   2.040
99954SOL    HW2 1760   7.117   9.962   2.049
99955SOL     OW 1761   7.012   0.545   1.222
99955SOL    HW1 1762   6.955   0.514   1.293
99955SOL    HW2 1763   7.100   0.543   1.259
99956SOL     OW 1764   1.503  12.261  11.705
99956SOL    HW1 1765   1.545  12.289  11.786
99956SOL    HW2 1766   1.558  12.299  11.636
99957SOL     OW 1767  12.764  11.644   3.499
99957SOL    HW1 1768  12.748  11.553   3.475
99957SOL    HW2 1769  12.852  11.645   3.536
99958SOL     OW 1770  14.215  13.373   8.341
99958SOL    HW1 1771  14.273  13.323   8.398
99958SOL    HW2 1772  14.239  13.348   8.252
99959SOL     OW 1773  14.864   8.326   0.596
99959SOL    HW1 1774  14.846   8.236   0.568
99959SOL    HW2 1775  14.787   8.351   0.648
99960SOL     OW 1776   2.572   9.540   4.672
99960SOL    HW1 1777   2.564   9.451   4.707
99960SOL    HW2 1778   2.509   9.543   4.600
99961SOL     OW 1779   0.928   6.113   1.226
99961SOL    HW1 1780   0.977   6.033   1.211
99961SOL    HW2 1781   0.859   6.088   1.288
99962SOL     OW 1782   9.294   3.683   1.528
99962SOL    HW1 1783   9.348   3.733   1.467
99962SOL    HW2 1784   9.211   3.671   1.482
99963SOL     OW 1785  11.513   6.299   6.096
99963SOL    HW1 1786  11.548   6.300   6.006
99963SOL    HW2 1787  11.546   6.218   6.134
99964SOL     OW 1788   2.454  14.333   9.379
99964SOL    HW1 1789   2.473  14.239   9.381
99964SOL    HW2 1790   2.538  14.375   9.398
99965SOL     OW 1791   3.850   4.578   1.483
99965SOL    HW1 1792   3.830   4.484   1.480
99965SOL    HW2 1793   3.843   4.600   1.576
99966SOL     OW 1794  11.421   8.056  11.776
99966SOL    HW1 1795  11.507   8.034  11.740
99966SOL    HW2 1796  11.436   8.067  11.870
99967SOL     OW 1797   7.455   8.254   2.973
99967SOL    HW1 1798   7.410   8.319   3.028
99967SOL    HW2 1799   7.502   8.307   2.908
99968SOL     OW 1800   7.871   7.946   2.299
99968SOL    HW1 1801   7.922   7.897   2.234
99968SOL    HW2 1802   7.922   7.939   2.379
99969SOL     OW 1803   0.835   7.525   0.677
99969SOL    HW1 1804   0.831   7.587   0.604
99969SOL    HW2 1805   0.915   7.549   0.724
99970SOL     OW 1806   5.164  10.389   0.356
99970SOL    HW1 1807   5.196  10.479   0.355
99970SOL    HW2 1808   5.157  10.366   0.449
99971SOL     OW 1809  14.178   8.166  14.723
99971SOL    HW1 1810  14.207   8.245  14.770
99971SOL    HW2 1811  14.085   8.182  14.705
99972SOL     OW 1812   0.943  13.445  14.138
99972SOL    HW1 1813   0.884  13.376  14.166
99972SOL    HW2 1814   0.961  13.425  14.046
99973SOL     OW 1815   2.033  14.391   1.528
99973SOL    HW1 1816   1.985  14.441   1.594
99973SOL    HW2 1817   1.988  14.410   1.446
99974SOL     OW 1818  11.764   0.789   6.578
99974SOL    HW1 1819  11.852   0.819   6.599
99974SOL    HW2 1820  11.713   0.869   6.568
99975SOL     OW 1821  10.966  13.938   3.243
99975SOL    HW1 1822  10.951  13.887   3.322
99975SOL    HW2 1823  10.891  13.918   3.186
99976SOL     OW 1824   9.136  14.307   8.285
99976SOL    HW1 1825   9.135  14.237   8.219
99976SOL    HW2 1826   9.054  14.355   8.270
99977SOL     OW 1827   7.134   1.149   8.985
99977SOL    HW1 1828   7.190   1.224   8.963
99977SOL    HW2 1829   7.106   1.166   9.075
99978SOL     OW 1830  14.868  13.522  12.074
99978SOL    HW1 1831  14.863  13.444  12.129
99978SOL    HW2 1832   0.061  13.579  12.119
99979SOL     OW 1833   4.238   8.316  10.350
99979SOL    HW1 1834   4.198   8.230  10.349
99979SOL    HW2 1835   4.199   8.360  10.426
99980SOL     OW 1836  14.676   5.387   9.149
99980SOL    HW1 1837  14.594   5.424   9.183
99980SOL    HW2 1838  14.741   5.457   9.161
99981SOL     OW 1839   7.462   6.074   6.543
99981SOL    HW1 1840   7.516   6.008   6.499
99981SOL    HW2 1841   7.375   6.063   6.505
99982SOL     OW 1842   4.144   7.401   8.735
99982SOL    HW1 1843   4.148   7.369   8.645
99982SOL    HW2 1844   4.087   7.338   8.780
99983SOL     OW 1845   1.105   9.539  12.068
99983SOL    HW1 1846   1.176   9.516  12.008
99983SOL    HW2 1847   1.080   9.628  12.042
99984SOL     OW 1848  12.477   9.953   1.508
99984SOL    HW1 1849  12.441   9.913   1.587
99984SOL    HW2 1850  12.502  10.042   1.535
99985SOL     OW 1851  11.093  14.273  12.066
99985SOL    HW1 1852  11.151  14.337  12.106
99985SOL    HW2 1853  11.007  14.315  12.067
99986SOL     OW 1854   1.312   3.257  12.552
99986SOL    HW1 1855   1.300   3.300  12.467
99986SOL    HW2 1856   1.385   3.196  12.538
99987SOL     OW 1857   3.361   3.444   3.025
99987SOL    HW1 1858   3.373   3.420   3.117
99987SOL    HW2 1859   3.268   3.431   3.009
99988SOL     OW 1860  14.069   5.525   3.726
99988SOL    HW1 1861  14.163   5.540   3.726
99988SOL    HW2 1862  14.042   5.532   3.635
99989SOL     OW 1863   3.250  10.610  12.164
99989SOL    HW1 1864   3.332  10.647  12.197
99989SOL    HW2 1865   3.189  10.621  12.237
99990SOL     OW 1866  14.202   7.741   7.945
99990SOL    HW1 1867  14.153   7.705   7.871
99990SOL    HW2 1868  14.228   7.829   7.916
99991SOL     OW 1869  14.331   3.076   5.988
99991SOL    HW1 1870  14.325   3.019   6.065
99991SOL    HW2 1871  14.384   3.150   6.018
99992SOL     OW 1872  12.553  14.107  12.859
99992SOL    HW1 1873  12.508  14.142  12.782
99992SOL    HW2 1874  12.538  14.013  12.854
99993SOL     OW 1875  14.505   3.556   3.009
99993SOL    HW1 1876  14.570   3.500   3.052
99993SOL    HW2 1877  14.515   3.642   3.051
99994SOL     OW 1878   1.405   1.250   6.976
99994SOL    HW1 1879   1.420   1.301   6.896
99994SOL    HW2 1880   1.466   1.177   6.969
99995SOL     OW 1881   3.061  12.083   0.763
99995SOL    HW1 1882   2.975  12.071   0.724
99995SOL    HW2 1883   3.051  12.055   0.854
99996SOL     OW 1884   5.659   6.950  12.368
99996SOL    HW1 1885   5.665   6.901  12.450
99996SOL    HW2 1886   5.740   7.001  12.364
99997SOL     OW 1887  10.036   9.219   3.783
99997SOL    HW1 1888  10.123   9.255   3.767
99997SOL    HW2 1889  10.002   9.269   3.856
99998SOL     OW 1890   4.356   7.222  10.069
99998SOL    HW1 1891   4.361   7.246  10.162
99998SOL    HW2 1892   4.275   7.171  10.062
99999SOL     OW 1893   4.374   6.941  13.228
99999SOL    HW1 1894   4.448   6.926  13.169
99999SOL    HW2 1895   4.400   6.899  13.310
    0SOL     OW 1896   0.623   0.442   9.354
    0SOL    HW1 1897   0.653   0.473   9.439
    0SOL    HW2 1898   0.530   0.425   9.367
    1SOL     OW 1899   1.345   4.660   5.299
    1SOL    HW1 1900   1.293   4.632   5.374
    1SOL    HW2 1901   1.355   4.582   5.246
    2SOL     OW 1902   5.294   2.332   5.794
    2SOL    HW1 1903   5.367   2.342   5.855
    2SOL    HW2 1904   5.268   2.422   5.773
    3SOL     OW 1905   8.748   9.709   9.509
    3SOL    HW1 1906   8.777   9.764   9.582
    3SOL    HW2 1907   8.822   9.650   9.493
    4SOL     OW 1908  14.652   6.505   4.233
    4SOL    HW1 1909  14.633   6.452   4.156
    4SOL    HW2 1910  14.594   6.470   4.301
    5SOL     OW 1911   0.100  11.482  10.117
    5SOL    HW1 1912   0.159  11.412  10.142
    5SOL    HW2 1913   0.137  11.561  10.158
    6SOL     OW 1914   7.685  11.122  11.901
    6SOL    HW1 1915   7.636  11.133  11.983
    6SOL    HW2 1916   7.699  11.211  11.870
    7SOL     OW 1917  11.885   8.122   5.452
    7SOL    HW1 1918  11.867   8.030   5.436
    7SOL    HW2 1919  11.891   8.161   5.365
    8SOL     OW 1920   6.833   9.379   4.229
    8SOL    HW1 1921   6.799   9.360   4.316
    8SOL    HW2 1922   6.823   9.298   4.180
    9SOL     OW 1923  12.275   0.368   6.666
    9SOL    HW1 1924  12.264   0.273   6.663
    9SOL    HW2 1925  12.298   0.387   6.757
   10SOL     OW 1926  14.515   5.546  11.145
   10SOL    HW1 1927  14.530   5.565  11.237
   10SOL    HW2 1928  14.452   5.612  11.117
   11SOL     OW 1929   5.250   4.606   0.579
   11SOL    HW1 1930   5.287   4.604   0.491
   11SOL    HW2 1931   5.157   4.622   0.565
   12SOL     OW 1932  10.854   9.910  14.261
   12SOL    HW1 1933  10.879   9.828  14.304
   12SOL    HW2 1934  10.863   9.892  14.168
   13SOL     OW 1935  10.646   8.238  10.015
   13SOL    HW1 1936  10.562   8.280  10.030
   13SOL    HW2 1937  10.704   8.309   9.989
   14SOL     OW 1938  11.368  11.044  13.345
   14SOL    HW1 1939  11.351  11.136  13.327
   14SOL    HW2 1940  11.299  11.018  13.405
   15SOL     OW 1941   2.705   3.501  10.362
   15SOL    HW1 1942   2.629   3.468  10.411
   15SOL    HW2 1943   2.745   3.424  10.323
   16SOL     OW 1944   2.013   3.191  11.669
   16SOL    HW1 1945   1.960   3.133  11.724
   16SOL    HW2 1946   1.967   3.194  11.586
   17SOL     OW 1947   6.709   3.296   8.652
   17SOL    HW1 1948   6.750   3.230   8.708
   17SOL    HW2 1949   6.720   3.262   8.563
   18SOL     OW 1950   6.868   6.510  13.326
   18SOL    HW1 1951   6.816   6.579  13.367
   18SOL    HW2 1952   6.941   6.496  13.387
   19SOL     OW 1953  12.053  14.320  13.899
   19SOL    HW1 1954  12.103  14.365  13.831
   19SOL    HW2 1955  12.083  14.229  13.893
   20SOL     OW 1956   4.956   0.006  12.133
   20SOL    HW1 1957   4.888  14.808  12.129
   20SOL    HW2 1958   4.957   0.044  12.045
   21SOL     OW 1959   9.343  13.867   8.735
   21SOL    HW1 1960   9.282  13.936   8.759
   21SOL    HW2 1961   9.421  13.884   8.787
   22SOL     OW 1962   3.438  11.673  13.187
   22SOL    HW1 1963   3.450  11.654  13.280
   22SOL    HW2 1964   3.488  11.606  13.142
   23SOL     OW 1965  12.693   9.688   6.782
   23SOL    HW1 1966  12.729   9.702   6.694
   23SOL    HW2 1967  12.635   9.612   6.772
   24SOL     OW 1968  10.310   3.744   0.759
   24SOL    HW1 1969  10.328   3.651   0.771
   24SOL    HW2 1970  10.230   3.747   0.707
   25SOL     OW 1971  12.253   7.468   4.326
   25SOL    HW1 1972  12.330   7.415   4.304
   25SOL    HW2 1973  12.189   7.447   4.258
   26SOL     OW 1974   9.245   6.766   7.995
   26SOL    HW1 1975   9.262   6.672   7.999
   26SOL    HW2 1976   9.323   6.803   7.954
   27SOL     OW 1977   6.330   2.958   1.921
   27SOL    HW1 1978   6.358   2.901   1.850
   27SOL    HW2 1979   6.253   3.003   1.886
   28SOL     OW 1980  12.190  13.104   9.766
   28SOL    HW1 1981  12.272  13.151   9.782
   28SOL    HW2 1982  12.183  13.100   9.671
   29SOL     OW 1983   6.255   9.627   1.955
   29SOL    HW1 1984   6.274   9.540   1.920
   29SOL    HW2 1985   6.340   9.672   1.954
   30SOL     OW 1986   2.182   3.174   9.380
   30SOL    HW1 1987   2.214   3.176   9.290
   30SOL    HW2 1988   2.088   3.191   9.373
   31SOL     OW 1989   5.848   3.897   7.407
   31SOL    HW1 1990   5.788   3.875   7.479
   31SOL    HW2 1991   5.915   3.952   7.448
   32SOL     OW 1992  10.992   6.446   4.219
   32SOL    HW1 1993  10.926   6.449   4.150
   32SOL    HW2 1994  10.945   6.416   4.297
   33SOL     OW 1995   9.680   7.954   9.787
   33SOL    HW1 1996   9.713   7.956   9.877
   33SOL    HW2 1997   9.714   8.034   9.747
   34SOL     OW 1998   8.954  13.634   7.866
   34SOL    HW1 1999   9.019  13.635   7.937
   34SOL    HW2 2000   8.877  13.676   7.904
   35SOL     OW 2001   0.883   6.538  12.913
   35SOL    HW1 2002   0.792   6.510  12.914
   35SOL    HW2 2003   0.880   6.625  12.873
   36SOL     OW 2004   0.974  14.628   8.048
   36SOL    HW1 2005   0.889  14.626   8.092
   36SOL    HW2 2006   0.982  14.718   8.015
   37SOL     OW 2007  14.817  14.697   8.279
   37SOL    HW1 2008  14.731  14.668   8.308
   37SOL    HW2 2009  14.819  14.680   8.185
   38SOL     OW 2010   3.411  12.274  13.693
   38SOL    HW1 2011   3.345  12.337  13.724
   38SOL    HW2 2012   3.427  12.300  13.602
   39SOL     OW 2013  13.662  11.313   9.812
   39SOL    HW1 2014  13.604  11.290   9.884
   39SOL    HW2 2015  13.730  11.367   9.852
   40SOL     OW 2016   9.940   0.200  12.577
   40SOL    HW1 2017   9.856   0.239  12.602
   40SOL    HW2 2018  10.005   0.263  12.607
   41SOL     OW 2019   9.775  12.664   5.381
   41SOL    HW1 2020   9.714  12.626   5.318
   41SOL    HW2 2021   9.850  12.604   5.382
   42SOL     OW 2022   9.977   3.759   9.290
   42SOL    HW1 2023   9.931   3.677   9.311
   42SOL    HW2 2024   9.906   3.823   9.277
   43SOL     OW 2025  13.584  11.973  12.282
   43SOL    HW1 2026  13.625  12.058  12.267
   43SOL    HW2 2027  13.647  11.909  12.248
   44SOL     OW 2028  10.290   9.437   7.947
   44SOL    HW1 2029  10.342   9.359   7.969
   44SOL    HW2 2030  10.286   9.486   8.029
   45SOL     OW 2031   5.041  11.913  12.321
   45SOL    HW1 2032   4.997  11.970  12.258
   45SOL    HW2 2033   5.041  11.962  12.403
   46SOL     OW 2034   9.499  11.509   8.964
   46SOL    HW1 2035   9.443  11.529   8.889
   46SOL    HW2 2036   9.497  11.589   9.017
   47SOL     OW 2037   8.974   0.951  11.310
   47SOL    HW1 2038   8.989   0.958  11.404
   47SOL    HW2 2039   9.042   0.891  11.280
   48SOL     OW 2040  10.457   4.724   1.125
   48SOL    HW1 2041  10.365   4.750   1.127
   48SOL    HW2 2042  10.504   4.802   1.096
   49SOL     OW 2043   7.878  12.268   1.522
   49SOL    HW1 2044   7.899  12.359   1.501
   49SOL    HW2 2045   7.848  12.271   1.613
   50SOL     OW 2046   5.287   0.350   1.952
   50SOL    HW1 2047   5.260   0.425   1.898
   50SOL    HW2 2048   5.212   0.290   1.948
   51SOL     OW 2049  13.152  14.435  10.547
   51SOL    HW1 2050  13.079  14.373  10.556
   51SOL    HW2 2051  13.188  14.417  10.461
   52SOL     OW 2052   3.474   9.285  12.244
   52SOL    HW1 2053   3.532   9.245  12.310
   52SOL    HW2 2054   3.506   9.375  12.235
   53SOL     OW 2055  11.787   2.147   1.598
   53SOL    HW1 2056  11.773   2.151   1.693
   53SOL    HW2 2057  11.747   2.064   1.571
   54SOL     OW 2058  12.911  11.070   9.517
   54SOL    HW1 2059  12.915  11.165   9.529
   54SOL    HW2 2060  12.961  11.035   9.591
   55SOL     OW 2061   1.735   8.721   8.118
   55SOL    HW1 2062   1.830   8.721   8.115
   55SOL    HW2 2063   1.708   8.762   8.036
   56SOL     OW 2064  12.110   0.723   2.079
   56SOL    HW1 2065  12.034   0.685   2.124
   56SOL    HW2 2066  12.161   0.764   2.149
   57SOL     OW 2067   4.997  11.389   1.983
   57SOL    HW1 2068   4.937  11.315   1.973
   57SOL    HW2 2069   4.980  11.421   2.072
   58SOL     OW 2070   3.468   8.225   3.205
   58SOL    HW1 2071   3.409   8.290   3.243
   58SOL    HW2 2072   3.412   8.150   3.184
   59SOL     OW 2073   4.506   2.944  10.666
   59SOL    HW1 2074   4.463   2.902  10.591
   59SOL    HW2 2075   4.435   2.989  10.712
   60SOL     OW 2076   8.465   8.858   7.371
   60SOL    HW1 2077   8.450   8.908   7.291
   60SOL    HW2 2078   8.430   8.771   7.353
   61SOL     OW 2079   2.932   0.603  11.797
   61SOL    HW1 2080   2.998   0.539  11.771
   61SOL    HW2 2081   2.977   0.688  11.792
   62SOL     OW 2082  11.733   8.457   7.091
   62SOL    HW1 2083  11.720   8.551   7.104
   62SOL    HW2 2084  11.771   8.426   7.173
   63SOL     OW 2085   0.014   6.474   7.105
   63SOL    HW1 2086   0.074   6.459   7.031
   63SOL    HW2 2087   0.002   6.569   7.107
   64SOL     OW 2088  13.922   7.712   5.484
   64SOL    HW1 2089  13.928   7.682   5.394
   64SOL    HW2 2090  13.991   7.664   5.530
   65SOL     OW 2091   3.991  13.965  12.187
   65SOL    HW1 2092   3.998  14.060  12.198
   65SOL    HW2 2093   4.081  13.933  12.194
   66SOL     OW 2094  10.820  13.637  10.601
   66SOL    HW1 2095  10.859  13.559  10.562
   66SOL    HW2 2096  10.748  13.603  10.655
   67SOL     OW 2097   0.641  14.796  14.272
   67SOL    HW1 2098   0.736  14.802  14.285
   67SOL    HW2 2099   0.621  14.703  14.284
   68SOL     OW 2100   7.990   2.501  10.018
   68SOL    HW1 2101   8.000   2.596  10.008
   68SOL    HW2 2102   7.925   2.476   9.953
   69SOL     OW 2103   2.574   4.092   9.173
   69SOL    HW1 2104   2.558   4.105   9.267
   69SOL    HW2 2105   2.593   4.179   9.140
   70SOL     OW 2106   0.174   8.273   1.657
   70SOL    HW1 2107   0.201   8.365   1.648
   70SOL    HW2 2108   0.251   8.229   1.692
   71SOL     OW 2109   2.251   8.214  11.348
   71SOL    HW1 2110   2.241   8.153  11.275
   71SOL    HW2 2111   2.303   8.287  11.312
   72SOL     OW 2112   0.038  12.140  11.562
   72SOL    HW1 2113   0.012  12.095  11.482
   72SOL    HW2 2114  14.832  12.193  11.586
   73SOL     OW 2115  11.456   0.586   0.875
   73SOL    HW1 2116  11.412   0.639   0.942
   73SOL    HW2 2117  11.416   0.613   0.793
   74SOL     OW 2118   0.287  10.047  13.543
   74SOL    HW1 2119   0.192  10.040  13.548
   74SOL    HW2 2120   0.320   9.971  13.591
   75SOL     OW 2121  14.021  13.756   4.285
   75SOL    HW1 2122  14.027  13.675   4.233
   75SOL    HW2 2123  13.983  13.820   4.224
   76SOL     OW 2124   5.310   5.228   0.111
   76SOL    HW1 2125   5.314   5.298   0.046
   76SOL    HW2 2126   5.299   5.273   0.195
   77SOL     OW 2127   4.698   1.572   8.514
   77SOL    HW1 2128   4.723   1.480   8.519
   77SOL    HW2 2129   4.626   1.574   8.451
   78SOL     OW 2130   9.750   2.470   8.247
   78SOL    HW1 2131   9.769   2.493   8.157
   78SOL    HW2 2132   9.824   2.415   8.275
   79SOL     OW 2133   9.419   4.682   1.002
   79SOL    HW1 2134   9.409   4.719   1.090
   79SOL    HW2 2135   9.511   4.694   0.981
   80SOL     OW 2136  11.810   2.768  12.116
   80SOL    HW1 2137  11.894   2.725  12.134
   80SOL    HW2 2138  11.829   2.862  12.125
   81SOL     OW 2139   8.747   2.666  10.339
   81SOL    HW1 2140   8.726   2.759  10.338
   81SOL    HW2 2141   8.840   2.663  10.317
   82SOL     OW 2142   4.024  12.331   6.294
   82SOL    HW1 2143   4.025  12.290   6.208
   82SOL    HW2 2144   4.116  12.342   6.317
   83SOL     OW 2145   5.111   3.014   2.031
   83SOL    HW1 2146   5.099   2.921   2.050
   83SOL    HW2 2147   5.053   3.030   1.957
   84SOL     OW 2148   5.434  13.333   5.305
   84SOL    HW1 2149   5.408  13.290   5.386
   84SOL    HW2 2150   5.409  13.271   5.236
   85SOL     OW 2151   1.388   9.851   5.870
   85SOL    HW1 2152   1.318   9.913   5.847
   85SOL    HW2 2153   1.448   9.854   5.796
   86SOL     OW 2154  14.531  10.414  10.427
   86SOL    HW1 2155  14.557  10.483  10.488
   86SOL    HW2 2156  14.478  10.458  10.361
   87SOL     OW 2157   0.335   6.978   3.774
   87SOL    HW1 2158   0.332   7.026   3.857
   87SOL    HW2 2159   0.323   6.887   3.798
   88SOL     OW 2160   1.319  12.324  11.979
   88SOL    HW1 2161   1.292  12.238  12.011
   88SOL    HW2 2162   1.242  12.379  11.990
   89SOL     OW 2163  12.772  12.599   5.012
   89SOL    HW1 2164  12.724  12.534   5.062
   89SOL    HW2 2165  12.864  12.587   5.038
   90SOL     OW 2166  12.307   1.836  12.962
   90SOL    HW1 2167  12.314   1.804  12.872
   90SOL    HW2 2168  12.396   1.863  12.985
   91SOL     OW 2169   2.345   7.721  14.185
   91SOL    HW1 2170   2.314   7.716  14.095
   91SOL    HW2 2171   2.266   7.718  14.239
   92SOL     OW 2172   9.148   3.162  11.189
   92SOL    HW1 2173   9.138   3.156  11.284
   92SOL    HW2 2174   9.084   3.101  11.154
   93SOL     OW 2175   2.650  13.362  10.338
   93SOL    HW1 2176   2.740  13.371  10.368
   93SOL    HW2 2177   2.597  13.401  10.408
   94SOL     OW 2178   0.236  14.342   6.396
   94SOL    HW1 2179   0.313  14.363   6.343
   94SOL    HW2 2180   0.180  14.420   6.388
   95SOL     OW 2181  13.188  11.130   6.444
   95SOL    HW1 2182  13.218  11.059   6.501
   95SOL    HW2 2183  13.262  11.190   6.439
   96SOL     OW 2184   8.575   6.098   2.115
   96SOL    HW1 2185   8.514   6.024   2.108
   96SOL    HW2 2186   8.520   6.170   2.147
   97SOL     OW 2187   4.029   5.237   8.453
   97SOL    HW1 2188   4.068   5.151   8.467
   97SOL    HW2 2189   4.023   5.275   8.541
   98SOL     OW 2190  12.167  12.506   4.401
   98SOL    HW1 2191  12.190  12.414   4.390
   98SOL    HW2 2192  12.225  12.538   4.470
   99SOL     OW 2193   5.854   3.408  14.755
   99SOL    HW1 2194   5.761   3.413  14.735
   99SOL    HW2 2195   5.896   3.382  14.673
  100SOL     OW 2196  12.415   8.099   1.118
  100SOL    HW1 2197  12.325   8.125   1.139
  100SOL    HW2 2198  12.413   8.077   1.025
  101SOL     OW 2199   6.384  10.514   1.069
  101SOL    HW1 2200   6.470  10.473   1.071
  101SOL    HW2 2201   6.345  10.490   1.153
  102SOL     OW 2202   7.640   5.152   8.864
  102SOL    HW1 2203   7.699   5.186   8.932
  102SOL    HW2 2204   7.668   5.061   8.852
  103SOL     OW 2205  10.710  10.736   6.425
  103SOL    HW1 2206  10.718  10.821   6.470
  103SOL    HW2 2207  10.674  10.678   6.491
  104SOL     OW 2208   8.135   5.559   0.912
  104SOL    HW1 2209   8.178   5.572   0.997
  104SOL    HW2 2210   8.045   5.589   0.926
  105SOL     OW 2211  12.174  11.337   5.177
  105SOL    HW1 2212  12.264  11.311   5.198
  105SOL    HW2 2213  12.183  11.420   5.130
  106SOL     OW 2214   1.178   3.761   3.965
  106SOL    HW1 2215   1.147   3.676   3.931
  106SOL    HW2 2216   1.219   3.803   3.890
  107SOL     OW 2217   6.330   3.590   0.564
  107SOL    HW1 2218   6.280   3.568   0.486
  107SOL    HW2 2219   6.366   3.506   0.595
  108SOL     OW 2220   0.832   1.474   7.314
  108SOL    HW1 2221   0.829   1.408   7.383
  108SOL    HW2 2222   0.740   1.496   7.298
  109SOL     OW 2223   0.392   9.430  10.367
  109SOL    HW1 2224   0.444   9.500  10.327
  109SOL    HW2 2225   0.446   9.352  10.357
  110SOL     OW 2226   3.491  10.649  11.183
  110SOL    HW1 2227   3.499  10.615  11.272
  110SOL    HW2 2228   3.531  10.582  11.128
  111SOL     OW 2229  10.055  13.512   7.424
  111SOL    HW1 2230  10.048  13.509   7.519
  111SOL    HW2 2231  10.021  13.599   7.401
  112SOL     OW 2232   5.565   2.262   8.309
  112SOL    HW1 2233   5.584   2.255   8.215
  112SOL    HW2 2234   5.518   2.345   8.317
  113SOL     OW 2235   8.599   2.006  13.217
  113SOL    HW1 2236   8.534   1.953  13.171
  113SOL    HW2 2237   8.598   1.972  13.306
  114SOL     OW 2238   2.171   7.694  11.364
  114SOL    HW1 2239   2.117   7.771  11.347
  114SOL    HW2 2240   2.178   7.650  11.279
  115SOL     OW 2241   7.796   9.938  13.973
  115SOL    HW1 2242   7.757   9.905  14.054
  115SOL    HW2 2243   7.725   9.936  13.909
  116SOL     OW 2244   7.568   1.614   4.708
  116SOL    HW1 2245   7.583   1.528   4.668
  116SOL    HW2 2246   7.636   1.621   4.774
  117SOL     OW 2247   0.297  12.333  11.946
  117SOL    HW1 2248   0.284  12.411  11.892
  117SOL    HW2 2249   0.392  12.330  11.960
  118SOL     OW 2250  13.001   9.215   9.388
  118SOL    HW1 2251  13.043   9.131   9.406
  118SOL    HW2 2252  13.073   9.272   9.361
  119SOL     OW 2253   5.526  12.342  13.053
  119SOL    HW1 2254   5.611  12.328  13.012
  119SOL    HW2 2255   5.498  12.428  13.021
  120SOL     OW 2256   0.310   2.888   8.403
  120SOL    HW1 2257   0.277   2.919   8.487
  120SOL    HW2 2258   0.376   2.953   8.377
  121SOL     OW 2259   0.459  11.432   8.795
  121SOL    HW1 2260   0.379  11.448   8.846
  121SOL    HW2 2261   0.440  11.469   8.709
  122SOL     OW 2262   2.435   2.122   3.380
  122SOL    HW1 2263   2.462   2.154   3.466
  122SOL    HW2 2264   2.340   2.122   3.383
  123SOL     OW 2265   2.681  12.908   8.966
  123SOL    HW1 2266   2.697  12.832   9.022
  123SOL    HW2 2267   2.763  12.920   8.918
  124SOL     OW 2268   9.788  12.502   9.373
  124SOL    HW1 2269   9.868  12.449   9.379
  124SOL    HW2 2270   9.740  12.465   9.299
  125SOL     OW 2271   9.697  10.321   5.084
  125SOL    HW1 2272   9.743  10.244   5.118
  125SOL    HW2 2273   9.766  10.384   5.064
  126SOL     OW 2274   4.056  12.584  11.754
  126SOL    HW1 2275   4.093  12.667  11.725
  126SOL    HW2 2276   3.990  12.563  11.688
  127SOL     OW 2277   9.892   8.774  11.662
  127SOL    HW1 2278   9.808   8.806  11.695
  127SOL    HW2 2279   9.883   8.679  11.661
  128SOL     OW 2280   4.175  10.967  11.269
  128SOL    HW1 2281   4.109  10.944  11.334
  128SOL    HW2 2282   4.207  10.883  11.236
  129SOL     OW 2283  12.144   8.929   6.727
  129SOL    HW1 2284  12.153   8.878   6.646
  129SOL    HW2 2285  12.071   8.988   6.710
  130SOL     OW 2286  12.269   4.276   4.698
  130SOL    HW1 2287  12.314   4.192   4.701
  130SOL    HW2 2288  12.337   4.340   4.722
  131SOL     OW 2289   1.178  10.603  12.955
  131SOL    HW1 2290   1.237  10.560  13.017
  131SOL    HW2 2291   1.153  10.685  12.997
  132SOL     OW 2292  12.926   5.394  11.873
  132SOL    HW1 2293  12.939   5.471  11.929
  132SOL    HW2 2294  12.953   5.423  11.786
  133SOL     OW 2295   9.816   2.807   5.941
  133SOL    HW1 2296   9.732   2.770   5.914
  133SOL    HW2 2297   9.836   2.873   5.875
  134SOL     OW 2298   9.069   6.193  10.896
  134SOL    HW1 2299   8.981   6.202  10.932
  134SOL    HW2 2300   9.056   6.190  10.801
  135SOL     OW 2301   5.921  14.781  12.187
  135SOL    HW1 2302   5.913  14.852  12.251
  135SOL    HW2 2303   5.885  14.818  12.106
  136SOL     OW 2304   6.936  10.921   8.868
  136SOL    HW1 2305   6.960  10.889   8.955
  136SOL    HW2 2306   7.008  10.980   8.843
  137SOL     OW 2307  12.583   1.493   7.557
  137SOL    HW1 2308  12.593   1.503   7.463
  137SOL    HW2 2309  12.514   1.556   7.581
  138SOL     OW 2310  12.517   2.956   7.905
  138SOL    HW1 2311  12.456   3.023   7.874
  138SOL    HW2 2312  12.501   2.881   7.848
  139SOL     OW 2313  11.190   5.726   1.456
  139SOL    HW1 2314  11.142   5.711   1.375
  139SOL    HW2 2315  11.126   5.710   1.525
  140SOL     OW 2316  11.624   0.449  12.681
  140SOL    HW1 2317  11.644   0.440  12.588
  140SOL    HW2 2318  11.534   0.482  12.683
  141SOL     OW 2319  14.241   3.619  14.456
  141SOL    HW1 2320  14.168   3.599  14.514
  141SOL    HW2 2321  14.220   3.576  14.374
  142SOL     OW 2322   6.253   4.071  12.993
  142SOL    HW1 2323   6.210   4.120  12.923
  142SOL    HW2 2324   6.346   4.076  12.972
  143SOL     OW 2325   0.419   0.753  13.581
  143SOL    HW1 2326   0.471   0.673  13.575
  143SOL    HW2 2327   0.356   0.735  13.651
  144SOL     OW 2328  13.107   0.952   7.322
  144SOL    HW1 2329  13.057   0.871   7.317
  144SOL    HW2 2330  13.040   1.021   7.326
  145SOL     OW 2331  12.140   0.695   6.963
  145SOL    HW1 2332  12.198   0.625   6.933
  145SOL    HW2 2333  12.083   0.653   7.028
  146SOL     OW 2334  12.457   1.929   2.052
  146SOL    HW1 2335  12.531   1.955   2.106
  146SOL    HW2 2336  12.477   1.963   1.965
  147SOL     OW 2337  13.029   5.203  11.234
  147SOL    HW1 2338  13.084   5.238  11.164
  147SOL    HW2 2339  12.953   5.261  11.236
  148SOL     OW 2340   5.639   5.082   6.424
  148SOL    HW1 2341   5.574   5.094   6.494
  148SOL    HW2 2342   5.627   5.160   6.368
  149SOL     OW 2343   6.095   0.366   4.892
  149SOL    HW1 2344   6.166   0.311   4.861
  149SOL    HW2 2345   6.122   0.396   4.979
  150SOL     OW 2346  11.885   1.002   6.061
  150SOL    HW1 2347  11.975   0.974   6.077
  150SOL    HW2 2348  11.892   1.093   6.035
  151SOL     OW 2349   0.917   0.725   0.565
  151SOL    HW1 2350   0.839   0.694   0.518
  151SOL    HW2 2351   0.883   0.754   0.650
  152SOL     OW 2352   5.729   2.285  11.330
  152SOL    HW1 2353   5.788   2.283  11.406
  152SOL    HW2 2354   5.670   2.359  11.347
  153SOL     OW 2355  10.157   0.948   0.366
  153SOL    HW1 2356  10.072   0.930   0.325
  153SOL    HW2 2357  10.157   1.042   0.380
  154SOL     OW 2358  12.131  14.419   2.096
  154SOL    HW1 2359  12.158  14.390   2.183
  154SOL    HW2 2360  12.139  14.342   2.040
  155SOL     OW 2361   1.646   8.324   0.629
  155SOL    HW1 2362   1.628   8.249   0.572
  155SOL    HW2 2363   1.564   8.339   0.676
  156SOL     OW 2364   0.437  12.824   9.882
  156SOL    HW1 2365   0.435  12.892   9.814
  156SOL    HW2 2366   0.485  12.751   9.841
  157SOL     OW 2367   0.223   6.645  13.104
  157SOL    HW1 2368   0.232   6.552  13.084
  157SOL    HW2 2369   0.223   6.688  13.018
  158SOL     OW 2370  11.617  11.426   2.371
  158SOL    HW1 2371  11.661  11.393   2.292
  158SOL    HW2 2372  11.630  11.356   2.435
  159SOL     OW 2373  14.694  13.114  10.487
  159SOL    HW1 2374  14.755  13.188  10.487
  159SOL    HW2 2375  14.609  13.155  10.471
  160SOL     OW 2376  12.547  12.776  11.513
  160SOL    HW1 2377  12.488  12.760  11.587
  160SOL    HW2 2378  12.544  12.696  11.461
  161SOL     OW 2379   2.073   7.624  10.131
  161SOL    HW1 2380   2.043   7.548  10.180
  161SOL    HW2 2381   1.993   7.661  10.092
  162SOL     OW 2382   5.966   9.590   5.530
  162SOL    HW1 2383   5.943   9.497   5.525
  162SOL    HW2 2384   6.005   9.609   5.444
  163SOL     OW 2385   1.978  12.783   2.547
  163SOL    HW1 2386   1.927  12.859   2.578
  163SOL    HW2 2387   1.918  12.735   2.490
  164SOL     OW 2388   2.729  10.774   2.243
  164SOL    HW1 2389   2.742  10.756   2.336
  164SOL    HW2 2390   2.635  10.766   2.230
  165SOL     OW 2391  12.380   6.738  12.297
  165SOL    HW1 2392  12.286   6.754  12.307
  165SOL    HW2 2393  12.386   6.649  12.263
  166SOL     OW 2394   3.716  14.241   5.162
  166SOL    HW1 2395   3.680  14.277   5.243
  166SOL    HW2 2396   3.792  14.190   5.191
  167SOL     OW 2397   0.286   3.501   9.087
  167SOL    HW1 2398   0.360   3.464   9.039
  167SOL    HW2 2399   0.232   3.425   9.110
  168SOL     OW 2400  11.860   7.947  11.144
  168SOL    HW1 2401  11.886   7.942  11.236
  168SOL    HW2 2402  11.816   7.863  11.127
  169SOL     OW 2403   5.268   4.215   3.583
  169SOL    HW1 2404   5.232   4.301   3.604
  169SOL    HW2 2405   5.343   4.233   3.526
  170SOL     OW 2406   5.022  13.461   7.594
  170SOL    HW1 2407   4.981  13.449   7.680
  170SOL    HW2 2408   4.975  13.399   7.537
  171SOL     OW 2409   2.636   8.414  13.546
  171SOL    HW1 2410   2.692   8.352  13.593
  171SOL    HW2 2411   2.623   8.486  13.607
  172SOL     OW 2412  13.328   4.663   9.939
  172SOL    HW1 2413  13.361   4.743   9.981
  172SOL    HW2 2414  13.317   4.687   9.847
  173SOL     OW 2415   2.446   8.323  11.562
  173SOL    HW1 2416   2.417   8.412  11.581
  173SOL    HW2 2417   2.472   8.326  11.469
  174SOL     OW 2418  13.737   5.877  14.641
  174SOL    HW1 2419  13.766   5.960  14.679
  174SOL    HW2 2420  13.700   5.829  14.715
  175SOL     OW 2421  11.438  12.215   3.119
  175SOL    HW1 2422  11.478  12.148   3.063
  175SOL    HW2 2423  11.503  12.232   3.186
  176SOL     OW 2424  11.861  14.249  10.204
  176SOL    HW1 2425  11.846  14.331  10.158
  176SOL    HW2 2426  11.830  14.265  10.293
  177SOL     OW 2427   1.111   8.406   5.182
  177SOL    HW1 2428   1.187   8.452   5.220
  177SOL    HW2 2429   1.094   8.452   5.101
  178SOL     OW 2430  12.950  13.497  14.238
  178SOL    HW1 2431  12.918  13.425  14.292
  178SOL    HW2 2432  13.027  13.462  14.194
  179SOL     OW 2433  10.024  10.271  13.888
  179SOL    HW1 2434   9.979  10.325  13.954
  179SOL    HW2 2435   9.954  10.242  13.830
  180SOL     OW 2436   7.309   3.156  11.430
  180SOL    HW1 2437   7.262   3.239  11.432
  180SOL    HW2 2438   7.370   3.165  11.357
  181SOL     OW 2439   2.148   5.336   1.467
  181SOL    HW1 2440   2.096   5.313   1.390
  181SOL    HW2 2441   2.231   5.368   1.431
  182SOL     OW 2442   4.261   4.557   7.943
  182SOL    HW1 2443   4.229   4.645   7.964
  182SOL    HW2 2444   4.353   4.569   7.919
  183SOL     OW 2445   8.543  11.117   9.657
  183SOL    HW1 2446   8.606  11.144   9.591
  183SOL    HW2 2447   8.554  11.022   9.664
  184SOL     OW 2448  11.052   8.338   0.060
  184SOL    HW1 2449  11.018   8.334  14.841
  184SOL    HW2 2450  11.015   8.418   0.097
  185SOL     OW 2451  13.347  10.272   9.539
  185SOL    HW1 2452  13.319  10.267   9.447
  185SOL    HW2 2453  13.442  10.263   9.536
  186SOL     OW 2454   9.983   7.277  10.867
  186SOL    HW1 2455  10.073   7.268  10.835
  186SOL    HW2 2456   9.975   7.209  10.935
  187SOL     OW 2457  12.983   9.670   3.602
  187SOL    HW1 2458  12.914   9.732   3.626
  187SOL    HW2 2459  12.937   9.588   3.584
  188SOL     OW 2460   8.495  13.294   3.681
  188SOL    HW1 2461   8.438  13.351   3.630
  188SOL    HW2 2462   8.497  13.333   3.768
  189SOL     OW 2463  10.810   3.919   2.701
  189SOL    HW1 2464  10.841   3.904   2.612
  189SOL    HW2 2465  10.761   4.001   2.697
  190SOL     OW 2466  13.424   7.696  11.794
  190SOL    HW1 2467  13.483   7.631  11.831
  190SOL    HW2 2468  13.365   7.720  11.866
  191SOL     OW 2469  11.371  12.921  14.381
  191SOL    HW1 2470  11.416  12.884  14.305
  191SOL    HW2 2471  11.423  12.998  14.404
  192SOL     OW 2472  10.673   8.999   7.230
  192SOL    HW1 2473  10.712   9.015   7.315
  192SOL    HW2 2474  10.585   8.967   7.249
  193SOL     OW 2475   1.574   2.319  14.757
  193SOL    HW1 2476   1.613   2.232  14.750
  193SOL    HW2 2477   1.513   2.312  14.830
  194SOL     OW 2478   4.771   7.477   2.726
  194SOL    HW1 2479   4.729   7.533   2.791
  194SOL    HW2 2480   4.864   7.498   2.733
  195SOL     OW 2481   6.098   6.795   0.594
  195SOL    HW1 2482   6.114   6.878   0.550
  195SOL    HW2 2483   6.087   6.732   0.522
  196SOL     OW 2484  13.088   8.069   0.678
  196SOL    HW1 2485  13.082   8.014   0.756
  196SOL    HW2 2486  13.181   8.069   0.655
  197SOL     OW 2487   5.103  11.693   9.601
  197SOL    HW1 2488   5.031  11.730   9.653
  197SOL    HW2 2489   5.177  11.691   9.660
  198SOL     OW 2490  14.704   7.307   2.824
  198SOL    HW1 2491  14.760   7.366   2.875
  198SOL    HW2 2492  14.626   7.295   2.879
  199SOL     OW 2493   1.454   8.567   2.797
  199SOL    HW1 2494   1.441   8.477   2.767
  199SOL    HW2 2495   1.412   8.622   2.730
  200SOL     OW 2496   0.492  13.034   7.689
  200SOL    HW1 2497   0.435  12.979   7.744
  200SOL    HW2 2498   0.539  12.971   7.633
  201SOL     OW 2499  13.518  13.210  11.584
  201SOL    HW1 2500  13.446  13.271  11.602
  201SOL    HW2 2501  13.570  13.210  11.664
  202SOL     OW 2502   9.418  13.073   5.239
  202SOL    HW1 2503   9.414  13.110   5.327
  202SOL    HW2 2504   9.337  13.024   5.230
  203SOL     OW 2505   5.147   4.365  14.012
  203SOL    HW1 2506   5.187   4.332  13.931
  203SOL    HW2 2507   5.204   4.438  14.039
  204SOL     OW 2508  14.502   7.516   4.912
  204SOL    HW1 2509  14.441   7.521   4.839
  204SOL    HW2 2510  14.449   7.536   4.989
  205SOL     OW 2511   2.306  12.414   6.015
  205SOL    HW1 2512   2.393  12.377   6.028
  205SOL    HW2 2513   2.246  12.345   6.045
  206SOL     OW 2514   3.933  11.599   3.841
  206SOL    HW1 2515   4.016  11.571   3.879
  206SOL    HW2 2516   3.953  11.614   3.749
  207SOL     OW 2517   0.623  12.180   5.713
  207SOL    HW1 2518   0.644  12.191   5.806
  207SOL    HW2 2519   0.542  12.230   5.701
  208SOL     OW 2520   8.034  10.475   4.976
  208SOL    HW1 2521   8.007  10.481   4.884
  208SOL    HW2 2522   8.126  10.447   4.971
  209SOL     OW 2523   3.200  12.699   4.013
  209SOL    HW1 2524   3.226  12.749   3.935
  209SOL    HW2 2525   3.163  12.618   3.978
  210SOL     OW 2526   7.774   0.627   7.003
  210SOL    HW1 2527   7.846   0.664   7.053
  210SOL    HW2 2528   7.704   0.692   7.007
  211SOL     OW 2529   0.680   9.245  11.468
  211SOL    HW1 2530   0.745   9.296  11.420
  211SOL    HW2 2531   0.728   9.167  11.497
  212SOL     OW 2532   6.185   4.151   2.932
  212SOL    HW1 2533   6.095   4.142   2.902
  212SOL    HW2 2534   6.233   4.084   2.884
  213SOL     OW 2535   8.018  10.799   2.432
  213SOL    HW1 2536   8.048  10.798   2.523
  213SOL    HW2 2537   7.979  10.886   2.421
  214SOL     OW 2538   4.615  11.418   6.442
  214SOL    HW1 2539   4.678  11.346   6.449
  214SOL    HW2 2540   4.656  11.480   6.381
  215SOL     OW 2541  12.685  13.945   8.762
  215SOL    HW1 2542  12.628  13.955   8.686
  215SOL    HW2 2543  12.719  13.856   8.755
  216SOL     OW 2544   7.770   0.165  13.680
  216SOL    HW1 2545   7.846   0.197  13.631
  216SOL    HW2 2546   7.756   0.231  13.748
  217SOL     OW 2547   0.977   6.451  11.533
  217SOL    HW1 2548   1.039   6.415  11.597
  217SOL    HW2 2549   0.891   6.421  11.564
  218SOL     OW 2550   3.778   9.072   9.330
  218SOL    HW1 2551   3.748   9.051   9.241
  218SOL    HW2 2552   3.872   9.057   9.327
  219SOL     OW 2553   9.147   5.553  14.119
  219SOL    HW1 2554   9.134   5.591  14.205
  219SOL    HW2 2555   9.149   5.458  14.134
  220SOL     OW 2556  14.306  11.846   7.415
  220SOL    HW1 2557  14.363  11.890   7.352
  220SOL    HW2 2558  14.342  11.870   7.500
  221SOL     OW 2559   4.735   5.227  11.626
  221SOL    HW1 2560   4.767   5.316  11.610
  221SOL    HW2 2561   4.647   5.240  11.663
  222SOL     OW 2562   2.221   6.199  11.994
  222SOL    HW1 2563   2.222   6.211  11.899
  222SOL    HW2 2564   2.309   6.226  12.022
  223SOL     OW 2565  13.977   2.284   0.024
  223SOL    HW1 2566  13.884   2.263   0.026
  223SOL    HW2 2567  13.980   2.380   0.013
  224SOL     OW 2568   8.093  14.141   7.991
  224SOL    HW1 2569   8.147  14.102   7.922
  224SOL    HW2 2570   8.147  14.138   8.069
  225SOL     OW 2571  14.042   4.788   5.213
  225SOL    HW1 2572  13.952   4.799   5.183
  225SOL    HW2 2573  14.039   4.711   5.269
  226SOL     OW 2574  10.964   6.686   7.894
  226SOL    HW1 2575  10.871   6.691   7.872
  226SOL    HW2 2576  10.982   6.593   7.902
  227SOL     OW 2577  14.434   0.617   3.948
  227SOL    HW1 2578  14.470   0.639   4.034
  227SOL    HW2 2579  14.344   0.590   3.966
  228SOL     OW 2580  12.252   6.856   7.049
  228SOL    HW1 2581  12.287   6.780   7.096
  228SOL    HW2 2582  12.266   6.929   7.108
  229SOL     OW 2583   9.505   2.266   2.148
  229SOL    HW1 2584   9.433   2.327   2.135
  229SOL    HW2 2585   9.477   2.211   2.221
  230SOL     OW 2586   8.929   3.309   6.047
  230SOL    HW1 2587   8.917   3.375   6.115
  230SOL    HW2 2588   8.933   3.226   6.095
  231SOL     OW 2589   0.964   9.470  10.828
  231SOL    HW1 2590   1.027   9.409  10.867
  231SOL    HW2 2591   1.019   9.541  10.794
  232SOL     OW 2592   0.914   2.111   6.809
  232SOL    HW1 2593   0.956   2.125   6.724
  232SOL    HW2 2594   0.938   2.021   6.833
  233SOL     OW 2595  11.570   8.811  14.123
  233SOL    HW1 2596  11.515   8.826  14.200
  233SOL    HW2 2597  11.569   8.894  14.076
  234SOL     OW 2598   7.001   3.144  11.533
  234SOL    HW1 2599   7.041   3.120  11.616
  234SOL    HW2 2600   6.909   3.160  11.554
  235SOL     OW 2601  14.321   9.645   1.233
  235SOL    HW1 2602  14.321   9.552   1.253
  235SOL    HW2 2603  14.229   9.667   1.219
  236SOL     OW 2604   9.833   5.847   3.397
  236SOL    HW1 2605   9.825   5.779   3.463
  236SOL    HW2 2606   9.743   5.875   3.380
  237SOL     OW 2607   9.254   6.187   0.121
  237SOL    HW1 2608   9.176   6.243   0.125
  237SOL    HW2 2609   9.219   6.098   0.129
  238SOL     OW 2610   9.358  13.335   3.944
  238SOL    HW1 2611   9.436  13.280   3.932
  238SOL    HW2 2612   9.330  13.319   4.034
  239SOL     OW 2613   6.037  10.373   1.288
  239SOL    HW1 2614   5.997  10.287   1.300
  239SOL    HW2 2615   5.992  10.410   1.212
  240SOL     OW 2616  10.366  10.643  10.099
  240SOL    HW1 2617  10.279  10.669  10.070
  240SOL    HW2 2618  10.355  10.554  10.132
  241SOL     OW 2619   0.281   7.022   4.475
  241SOL    HW1 2620   0.287   7.025   4.571
  241SOL    HW2 2621   0.196   6.981   4.458
  242SOL     OW 2622   1.683  14.139   6.184
  242SOL    HW1 2623   1.630  14.218   6.181
  242SOL    HW2 2624   1.648  14.090   6.258
  243SOL     OW 2625   1.775   5.934   7.412
  243SOL    HW1 2626   1.777   6.004   7.476
  243SOL    HW2 2627   1.841   5.958   7.347
  244SOL     OW 2628  12.145   8.603   8.909
  244SOL    HW1 2629  12.131   8.509   8.921
  244SOL    HW2 2630  12.098   8.644   8.982
  245SOL     OW 2631  10.240   4.484   2.480
  245SOL    HW1 2632  10.330   4.480   2.447
  245SOL    HW2 2633  10.190   4.431   2.418
  246SOL     OW 2634   4.851  10.986   2.698
  246SOL    HW1 2635   4.760  10.977   2.727
  246SOL    HW2 2636   4.901  11.002   2.778
  247SOL     OW 2637   3.198   0.083  14.090
  247SOL    HW1 2638   3.166   0.173  14.103
  247SOL    HW2 2639   3.276   0.076  14.145
  248SOL     OW 2640   5.418   3.814  13.149
  248SOL    HW1 2641   5.338   3.860  13.172
  248SOL    HW2 2642   5.424   3.821  13.054
  249SOL     OW 2643   2.946   5.673   7.187
  249SOL    HW1 2644   2.862   5.703   7.221
  249SOL    HW2 2645   2.932   5.664   7.093
  250SOL     OW 2646   9.950   2.899   1.696
  250SOL    HW1 2647   9.929   2.988   1.722
  250SOL    HW2 2648   9.963   2.852   1.778
  251SOL     OW 2649   3.641  12.799   1.092
  251SOL    HW1 2650   3.672  12.796   1.001
  251SOL    HW2 2651   3.619  12.709   1.113
  252SOL     OW 2652  11.313   3.909   8.866
  252SOL    HW1 2653  11.236   3.946   8.824
  252SOL    HW2 2654  11.363   3.986   8.895
  253SOL     OW 2655   0.052  10.691   2.477
  253SOL    HW1 2656   0.130  10.635   2.474
  253SOL    HW2 2657  14.862  10.645   2.536
  254SOL     OW 2658   0.473   3.339  11.710
  254SOL    HW1 2659   0.469   3.253  11.752
  254SOL    HW2 2660   0.473   3.320  11.616
  255SOL     OW 2661  11.500   9.755   2.296
  255SOL    HW1 2662  11.415   9.799   2.291
  255SOL    HW2 2663  11.558   9.820   2.336
  256SOL     OW 2664   2.268   4.784   7.195
  256SOL    HW1 2665   2.173   4.792   7.207
  256SOL    HW2 2666   2.284   4.689   7.195
  257SOL     OW 2667   0.265   0.931   9.472
  257SOL    HW1 2668   0.245   0.928   9.379
  257SOL    HW2 2669   0.213   0.860   9.510
  258SOL     OW 2670   8.024   2.444   0.636
  258SOL    HW1 2671   8.059   2.373   0.689
  258SOL    HW2 2672   8.096   2.507   0.629
  259SOL     OW 2673   4.085   6.539   3.916
  259SOL    HW1 2674   4.031   6.501   3.985
  259SOL    HW2 2675   4.172   6.501   3.929
  260SOL     OW 2676  13.027  14.740  10.485
  260SOL    HW1 2677  13.082  14.737  10.563
  260SOL    HW2 2678  12.959  14.674  10.500
  261SOL     OW 2679   5.456   9.621  10.573
  261SOL    HW1 2680   5.453   9.710  10.540
  261SOL    HW2 2681   5.487   9.630  10.664
  262SOL     OW 2682   9.437   1.190   0.447
  262SOL    HW1 2683   9.419   1.131   0.520
  262SOL    HW2 2684   9.350   1.219   0.419
  263SOL     OW 2685   4.073   8.988   2.827
  263SOL    HW1 2686   4.085   9.074   2.787
  263SOL    HW2 2687   3.983   8.988   2.859
  264SOL     OW 2688   8.446   0.306   7.660
  264SOL    HW1 2689   8.482   0.222   7.632
  264SOL    HW2 2690   8.480   0.369   7.597
  265SOL     OW 2691   2.445  11.357  13.628
  265SOL    HW1 2692   2.439  11.450  13.608
  265SOL    HW2 2693   2.532  11.346  13.666
  266SOL     OW 2694  14.470   9.087  13.224
  266SOL    HW1 2695  14.412   9.031  13.276
  266SOL    HW2 2696  14.421   9.105  13.144
  267SOL     OW 2697   2.942   1.597   2.147
  267SOL    HW1 2698   3.036   1.616   2.151
  267SOL    HW2 2699   2.934   1.511   2.188
  268SOL     OW 2700   5.118   1.985   8.035
  268SOL    HW1 2701   5.150   1.990   8.125
  268SOL    HW2 2702   5.097   1.893   8.021
  269SOL     OW 2703   1.527   3.092  12.475
  269SOL    HW1 2704   1.611   3.059  12.442
  269SOL    HW2 2705   1.462   3.035  12.433
  270SOL     OW 2706   8.437  11.193   6.365
  270SOL    HW1 2707   8.380  11.214   6.291
  270SOL    HW2 2708   8.508  11.142   6.327
  271SOL     OW 2709   4.849   3.334   0.714
  271SOL    HW1 2710   4.755   3.321   0.707
  271SOL    HW2 2711   4.860   3.402   0.781
  272SOL     OW 2712  13.046   7.099  11.062
  272SOL    HW1 2713  12.991   7.169  11.097
  272SOL    HW2 2714  12.993   7.020  11.070
  273SOL     OW 2715  11.122   0.564   2.528
  273SOL    HW1 2716  11.048   0.547   2.586
  273SOL    HW2 2717  11.088   0.625   2.463
  274SOL     OW 2718   5.424   8.351  10.443
  274SOL    HW1 2719   5.506   8.368  10.395
  274SOL    HW2 2720   5.442   8.384  10.531
  275SOL     OW 2721  12.782   8.189  14.369
  275SOL    HW1 2722  12.762   8.281  14.355
  275SOL    HW2 2723  12.700   8.150  14.398
  276SOL     OW 2724   5.990   2.474   5.058
  276SOL    HW1 2725   5.919   2.437   5.005
  276SOL    HW2 2726   5.957   2.470   5.148
  277SOL     OW 2727   1.564   3.574  11.123
  277SOL    HW1 2728   1.584   3.504  11.186
  277SOL    HW2 2729   1.572   3.531  11.038
  278SOL     OW 2730   4.608   7.390   1.009
  278SOL    HW1 2731   4.560   7.307   1.013
  278SOL    HW2 2732   4.589   7.432   1.093
  279SOL     OW 2733   6.237  11.918   2.540
  279SOL    HW1 2734   6.305  11.979   2.567
  279SOL    HW2 2735   6.283  11.856   2.482
  280SOL     OW 2736   3.638   8.246  12.681
  280SOL    HW1 2737   3.731   8.270  12.692
  280SOL    HW2 2738   3.640   8.173  12.620
  281SOL     OW 2739   1.474   9.073   9.617
  281SOL    HW1 2740   1.494   9.083   9.710
  281SOL    HW2 2741   1.558   9.085   9.573
  282SOL     OW 2742   6.504   7.813  11.674
  282SOL    HW1 2743   6.599   7.828  11.666
  282SOL    HW2 2744   6.485   7.746  11.608
  283SOL     OW 2745   7.310   5.635   9.118
  283SOL    HW1 2746   7.300   5.691   9.195
  283SOL    HW2 2747   7.295   5.546   9.150
  284SOL     OW 2748   4.378   4.616   3.104
  284SOL    HW1 2749   4.340   4.596   3.019
  284SOL    HW2 2750   4.379   4.711   3.108
  285SOL     OW 2751  11.733  12.511  14.432
  285SOL    HW1 2752  11.746  12.417  14.443
  285SOL    HW2 2753  11.717  12.522  14.338
  286SOL     OW 2754   3.415  10.733  11.697
  286SOL    HW1 2755   3.328  10.698  11.715
  286SOL    HW2 2756   3.446  10.683  11.621
  287SOL     OW 2757  13.201  14.466  13.993
  287SOL    HW1 2758  13.271  14.479  13.928
  287SOL    HW2 2759  13.197  14.372  14.006
  288SOL     OW 2760   7.835  10.880   8.850
  288SOL    HW1 2761   7.818  10.810   8.787
  288SOL    HW2 2762   7.930  10.881   8.860
  289SOL     OW 2763   2.515   4.886  12.214
  289SOL    HW1 2764   2.498   4.944  12.288
  289SOL    HW2 2765   2.458   4.919  12.144
  290SOL     OW 2766  11.640  14.095   9.219
  290SOL    HW1 2767  11.678  14.100   9.307
  290SOL    HW2 2768  11.709  14.057   9.165
  291SOL     OW 2769  13.253   3.720  13.517
  291SOL    HW1 2770  13.297   3.650  13.470
  291SOL    HW2 2771  13.174   3.737  13.467
  292SOL     OW 2772   3.325   9.768   9.983
  292SOL    HW1 2773   3.334   9.678   9.953
  292SOL    HW2 2774   3.368   9.821   9.915
  293SOL     OW 2775  12.854   7.078   9.023
  293SOL    HW1 2776  12.898   7.062   9.107
  293SOL    HW2 2777  12.925   7.092   8.961
  294SOL     OW 2778   8.089   1.687   5.387
  294SOL    HW1 2779   8.134   1.714   5.306
  294SOL    HW2 2780   8.069   1.595   5.374
  295SOL     OW 2781   5.892   5.517  12.204
  295SOL    HW1 2782   5.967   5.540  12.149
  295SOL    HW2 2783   5.886   5.422  12.198
  296SOL     OW 2784   0.060   7.492  14.332
  296SOL    HW1 2785   0.153   7.504  14.346
  296SOL    HW2 2786   0.041   7.405  14.367
  297SOL     OW 2787   1.526   3.852  10.485
  297SOL    HW1 2788   1.538   3.776  10.542
  297SOL    HW2 2789   1.613   3.866  10.446
  298SOL     OW 2790   1.397   7.352  13.603
  298SOL    HW1 2791   1.361   7.276  13.557
  298SOL    HW2 2792   1.447   7.315  13.675
  299SOL     OW 2793  11.665   1.965   7.553
  299SOL    HW1 2794  11.735   1.995   7.495
  299SOL    HW2 2795  11.658   1.871   7.534
  300SOL     OW 2796  12.906   6.501   4.708
  300SOL    HW1 2797  12.971   6.571   4.716
  300SOL    HW2 2798  12.902   6.462   4.795
  301SOL     OW 2799   7.982   9.149   7.192
  301SOL    HW1 2800   8.053   9.089   7.214
  301SOL    HW2 2801   7.957   9.188   7.275
  302SOL     OW 2802   2.082  13.305   9.223
  302SOL    HW1 2803   2.093  13.352   9.140
  302SOL    HW2 2804   2.171  13.279   9.248
  303SOL     OW 2805  11.496   0.935   2.153
  303SOL    HW1 2806  11.470   0.871   2.220
  303SOL    HW2 2807  11.423   0.997   2.151
  304SOL     OW 2808   5.200   6.191  13.697
  304SOL    HW1 2809   5.158   6.128  13.756
  304SOL    HW2 2810   5.255   6.138  13.640
  305SOL     OW 2811   2.091   3.647   0.108
  305SOL    HW1 2812   2.096   3.741   0.093
  305SOL    HW2 2813   2.157   3.630   0.176
  306SOL     OW 2814   3.911  14.162   9.803
  306SOL    HW1 2815   3.956  14.112   9.735
  306SOL    HW2 2816   3.873  14.237   9.757
  307SOL     OW 2817   6.670   9.235  13.256
  307SOL    HW1 2818   6.717   9.317  13.246
  307SOL    HW2 2819   6.623   9.244  13.339
  308SOL     OW 2820  12.455   2.494   6.808
  308SOL    HW1 2821  12.465   2.492   6.904
  308SOL    HW2 2822  12.360   2.484   6.794
  309SOL     OW 2823  10.798  14.085  13.894
  309SOL    HW1 2824  10.862  14.147  13.857
  309SOL    HW2 2825  10.851  14.026  13.948
  310SOL     OW 2826   6.181   1.998   5.593
  310SOL    HW1 2827   6.275   1.981   5.600
  310SOL    HW2 2828   6.153   2.016   5.683
  311SOL     OW 2829  12.255   0.666  12.013
  311SOL    HW1 2830  12.183   0.644  12.073
  311SOL    HW2 2831  12.322   0.600  12.032
  312SOL     OW 2832   4.155   6.960   8.998
  312SOL    HW1 2833   4.249   6.949   8.979
  312SOL    HW2 2834   4.152   7.026   9.066
  313SOL     OW 2835   2.482   1.090   5.366
  313SOL    HW1 2836   2.455   1.056   5.281
  313SOL    HW2 2837   2.576   1.107   5.357
  314SOL     OW 2838  12.832   4.984   2.854
  314SOL    HW1 2839  12.741   5.013   2.861
  314SOL    HW2 2840  12.869   5.035   2.782
  315SOL     OW 2841   4.968  13.401   5.227
  315SOL    HW1 2842   4.968  13.315   5.185
  315SOL    HW2 2843   4.878  13.432   5.219
  316SOL     OW 2844   2.056  14.608   0.061
  316SOL    HW1 2845   1.983  14.662   0.092
  316SOL    HW2 2846   2.126  14.671   0.042
  317SOL     OW 2847   8.019   2.999  14.290
  317SOL    HW1 2848   7.939   3.034  14.329
  317SOL    HW2 2849   8.057   3.073  14.243
  318SOL     OW 2850   7.866   4.864   0.176
  318SOL    HW1 2851   7.794   4.846   0.235
  318SOL    HW2 2852   7.915   4.935   0.218
  319SOL     OW 2853  13.361  11.558  14.344
  319SOL    HW1 2854  13.364  11.533  14.251
  319SOL    HW2 2855  13.325  11.647  14.343
  320SOL     OW 2856   6.400   6.840   8.298
  320SOL    HW1 2857   6.342   6.775   8.338
  320SOL    HW2 2858   6.405   6.814   8.206
  321SOL     OW 2859  12.480   6.896   6.733
  321SOL    HW1 2860  12.484   6.822   6.794
  321SOL    HW2 2861  12.444   6.859   6.653
  322SOL     OW 2862   0.488  12.125   0.022
  322SOL    HW1 2863   0.510  12.163  14.806
  322SOL    HW2 2864   0.545  12.048   0.029
  323SOL     OW 2865   9.573   5.679   5.789
  323SOL    HW1 2866   9.607   5.625   5.861
  323SOL    HW2 2867   9.643   5.741   5.770
  324SOL     OW 2868   6.811  10.884   7.930
  324SOL    HW1 2869   6.756  10.951   7.890
  324SOL    HW2 2870   6.887  10.932   7.964
  325SOL     OW 2871   8.961   0.536   1.988
  325SOL    HW1 2872   8.972   0.628   2.014
  325SOL    HW2 2873   9.023   0.488   2.043
  326SOL     OW 2874   7.903  12.088  14.229
  326SOL    HW1 2875   7.971  12.138  14.273
  326SOL    HW2 2876   7.898  12.125  14.141
  327SOL     OW 2877   3.828   7.998   2.550
  327SOL    HW1 2878   3.807   8.028   2.639
  327SOL    HW2 2879   3.922   8.016   2.541
  328SOL     OW 2880   7.200  10.843   2.896
  328SOL    HW1 2881   7.237  10.780   2.834
  328SOL    HW2 2882   7.188  10.794   2.977
  329SOL     OW 2883  12.422   0.608   3.834
  329SOL    HW1 2884  12.496   0.619   3.894
  329SOL    HW2 2885  12.345   0.606   3.891
  330SOL     OW 2886   9.434   5.052   5.716
  330SOL    HW1 2887   9.366   4.987   5.733
  330SOL    HW2 2888   9.420   5.078   5.625
  331SOL     OW 2889   9.122   2.345   6.347
  331SOL    HW1 2890   9.044   2.379   6.390
  331SOL    HW2 2891   9.168   2.297   6.416
  332SOL     OW 2892  13.080  13.499  14.635
  332SOL    HW1 2893  13.079  13.567  14.568
  332SOL    HW2 2894  13.080  13.417  14.586
  333SOL     OW 2895   3.772   7.948   4.488
  333SOL    HW1 2896   3.855   7.903   4.507
  333SOL    HW2 2897   3.798   8.028   4.443
  334SOL     OW 2898   3.812   5.214   3.223
  334SOL    HW1 2899   3.784   5.304   3.238
  334SOL    HW2 2900   3.787   5.167   3.302
  335SOL     OW 2901   0.834  12.056   2.737
  335SOL    HW1 2902   0.814  12.142   2.774
  335SOL    HW2 2903   0.904  12.021   2.792
  336SOL     OW 2904   3.846   6.704   3.232
  336SOL    HW1 2905   3.872   6.689   3.141
  336SOL    HW2 2906   3.751   6.704   3.231
  337SOL     OW 2907   5.525   2.639   7.740
  337SOL    HW1 2908   5.582   2.565   7.716
  337SOL    HW2 2909   5.494   2.673   7.656
  338SOL     OW 2910   8.474  12.024   7.849
  338SOL    HW1 2911   8.450  12.080   7.923
  338SOL    HW2 2912   8.476  12.084   7.774
  339SOL     OW 2913   2.856   0.009  10.816
  339SOL    HW1 2914   2.812  14.815  10.871
  339SOL    HW2 2915   2.794   0.082  10.809
  340SOL     OW 2916  13.957  12.015   6.045
  340SOL    HW1 2917  13.871  12.016   6.086
  340SOL    HW2 2918  13.984  11.924   6.048
  341SOL     OW 2919   6.354  12.939  10.418
  341SOL    HW1 2920   6.260  12.926  10.406
  341SOL    HW2 2921   6.394  12.866  10.370
  342SOL     OW 2922  11.966   2.159   8.705
  342SOL    HW1 2923  11.954   2.133   8.796
  342SOL    HW2 2924  12.054   2.197   8.702
  343SOL     OW 2925   2.724   9.048   0.068
  343SOL    HW1 2926   2.732   9.143   0.074
  343SOL    HW2 2927   2.668   9.034  14.861
  344SOL     OW 2928   0.844   6.672   2.434
  344SOL    HW1 2929   0.906   6.612   2.476
  344SOL    HW2 2930   0.882   6.759   2.447
  345SOL     OW 2931   9.496   5.654  13.374
  345SOL    HW1 2932   9.473   5.572  13.332
  345SOL    HW2 2933   9.448   5.654  13.457
  346SOL     OW 2934   7.900   8.955  14.577
  346SOL    HW1 2935   7.811   8.920  14.572
  346SOL    HW2 2936   7.898   9.015  14.652
  347SOL     OW 2937   0.571   9.232  12.105
  347SOL    HW1 2938   0.666   9.223  12.116
  347SOL    HW2 2939   0.553   9.322  12.134
  348SOL     OW 2940   2.264   0.703   1.565
  348SOL    HW1 2941   2.342   0.666   1.525
  348SOL    HW2 2942   2.297   0.772   1.623
  349SOL     OW 2943   1.757  12.046  12.471
  349SOL    HW1 2944   1.805  12.128  12.471
  349SOL    HW2 2945   1.765  12.013  12.382
  350SOL     OW 2946   0.600   5.870  14.274
  350SOL    HW1 2947   0.658   5.818  14.218
  350SOL    HW2 2948   0.622   5.961  14.254
  351SOL     OW 2949   0.693   3.879   0.831
  351SOL    HW1 2950   0.648   3.802   0.794
  351SOL    HW2 2951   0.680   3.947   0.765
  352SOL     OW 2952  10.606   6.277  11.186
  352SOL    HW1 2953  10.646   6.209  11.132
  352SOL    HW2 2954  10.607   6.355  11.131
  353SOL     OW 2955   1.230   8.449   9.488
  353SOL    HW1 2956   1.283   8.429   9.565
  353SOL    HW2 2957   1.240   8.372   9.431
  354SOL     OW 2958   2.458   1.162   2.011
  354SOL    HW1 2959   2.494   1.207   1.934
  354SOL    HW2 2960   2.516   1.087   2.024
  355SOL     OW 2961  14.397  14.851  12.287
  355SOL    HW1 2962  14.413  14.758  12.303
  355SOL    HW2 2963  14.327   0.003  12.348
  356SOL     OW 2964  13.021   5.924  10.671
  356SOL    HW1 2965  13.117   5.927  10.677
  356SOL    HW2 2966  12.990   5.976  10.744
  357SOL     OW 2967   2.681   0.826   5.674
  357SOL    HW1 2968   2.752   0.858   5.619
  357SOL    HW2 2969   2.652   0.903   5.723
  358SOL     OW 2970  11.116   0.090   9.959
  358SOL    HW1 2971  11.088  14.868   9.969
  358SOL    HW2 2972  11.137   0.098   9.866
  359SOL     OW 2973   8.616   6.453  10.901
  359SOL    HW1 2974   8.531   6.419  10.874
  359SOL    HW2 2975   8.600   6.493  10.987
  360SOL     OW 2976  11.292  10.660   6.779
  360SOL    HW1 2977  11.300  10.741   6.830
  360SOL    HW2 2978  11.266  10.594   6.842
  361SOL     OW 2979   0.226   3.057   9.275
  361SOL    HW1 2980   0.171   3.035   9.350
  361SOL    HW2 2981   0.212   3.151   9.263
  362SOL     OW 2982   6.133  11.622   2.199
  362SOL    HW1 2983   6.082  11.628   2.280
  362SOL    HW2 2984   6.151  11.713   2.175
  363SOL     OW 2985   9.316   2.249  13.308
  363SOL    HW1 2986   9.333   2.326  13.363
  363SOL    HW2 2987   9.266   2.282  13.234
  364SOL     OW 2988  12.787   1.668   8.115
  364SOL    HW1 2989  12.798   1.639   8.025
  364SOL    HW2 2990  12.742   1.752   8.109
  365SOL     OW 2991   2.196   6.476   6.467
  365SOL    HW1 2992   2.263   6.461   6.534
  365SOL    HW2 2993   2.242   6.467   6.384
  366SOL     OW 2994   8.241  10.710   4.994
  366SOL    HW1 2995   8.265  10.617   4.990
  366SOL    HW2 2996   8.244  10.731   5.087
  367SOL     OW 2997  12.556   1.067   1.543
  367SOL    HW1 2998  12.525   1.089   1.455
  367SOL    HW2 2999  12.482   1.022   1.584
  368SOL     OW 3000  14.291   7.495  11.367
  368SOL    HW1 3001  14.377   7.461  11.391
  368SOL    HW2 3002  14.308   7.585  11.338
  369SOL     OW 3003  13.164   7.778   5.102
  369SOL    HW1 3004  13.180   7.697   5.150
  369SOL    HW2 3005  13.069   7.786   5.098
  370SOL     OW 3006   1.321   0.396   7.230
  370SOL    HW1 3007   1.248   0.444   7.270
  370SOL    HW2 3008   1.363   0.460   7.173
  371SOL     OW 3009   5.653   5.014   6.861
  371SOL    HW1 3010   5.572   5.057   6.887
  371SOL    HW2 3011   5.628   4.956   6.789
  372SOL     OW 3012   0.311  12.577   2.710
  372SOL    HW1 3013   0.246  12.529   2.659
  372SOL    HW2 3014   0.261  12.646   2.753
  373SOL     OW 3015   7.866  10.452   3.019
  373SOL    HW1 3016   7.893  10.360   3.014
  373SOL    HW2 3017   7.866  10.482   2.929
  374SOL     OW 3018   6.692  13.043  10.685
  374SOL    HW1 3019   6.717  13.125  10.643
  374SOL    HW2 3020   6.654  13.070  10.769
  375SOL     OW 3021   3.721   4.662   7.870
  375SOL    HW1 3022   3.786   4.730   7.888
  375SOL    HW2 3023   3.769   4.580   7.876
  376SOL     OW 3024  14.001  12.206   7.609
  376SOL    HW1 3025  14.071  12.195   7.674
  376SOL    HW2 3026  14.028  12.282   7.558
  377SOL     OW 3027  10.223   1.672   3.359
  377SOL    HW1 3028  10.291   1.698   3.297
  377SOL    HW2 3029  10.191   1.588   3.326
  378SOL     OW 3030   7.397   5.879  13.598
  378SOL    HW1 3031   7.363   5.963  13.629
  378SOL    HW2 3032   7.492   5.890  13.600
  379SOL     OW 3033  12.481  14.824   1.390
  379SOL    HW1 3034  12.450   0.034   1.433
  379SOL    HW2 3035  12.547  14.788   1.449
  380SOL     OW 3036   9.264   0.659   0.947
  380SOL    HW1 3037   9.275   0.666   0.853
  380SOL    HW2 3038   9.171   0.636   0.958
  381SOL     OW 3039  12.139   4.067  10.425
  381SOL    HW1 3040  12.080   4.000  10.460
  381SOL    HW2 3041  12.088   4.148  10.430
  382SOL     OW 3042   6.029   4.267  14.118
  382SOL    HW1 3043   6.093   4.198  14.133
  382SOL    HW2 3044   6.051   4.302  14.031
  383SOL     OW 3045  10.408   7.519   0.805
  383SOL    HW1 3046  10.329   7.469   0.825
  383SOL    HW2 3047  10.426   7.500   0.713
  384SOL     OW 3048  14.810  12.753   2.882
  384SOL    HW1 3049  14.818  12.848   2.874
  384SOL    HW2 3050  14.716  12.736   2.874
  385SOL     OW 3051  14.523   4.522   1.933
  385SOL    HW1 3052  14.452   4.585   1.934
  385SOL    HW2 3053  14.568   4.535   2.017
  386SOL     OW 3054  14.184   1.071  13.531
  386SOL    HW1 3055  14.131   1.041  13.457
  386SOL    HW2 3056  14.272   1.038  13.511
  387SOL     OW 3057   5.655   4.068   3.000
  387SOL    HW1 3058   5.579   4.100   3.048
  387SOL    HW2 3059   5.640   4.095   2.909
  388SOL     OW 3060   7.558   6.769   4.484
  388SOL    HW1 3061   7.579   6.842   4.542
  388SOL    HW2 3062   7.494   6.717   4.533
  389SOL     OW 3063   6.707  14.329   5.986
  389SOL    HW1 3064   6.769  14.319   6.059
  389SOL    HW2 3065   6.719  14.419   5.956
  390SOL     OW 3066  12.374  12.265   4.496
  390SOL    HW1 3067  12.424  12.315   4.431
  390SOL    HW2 3068  12.311  12.215   4.444
  391SOL     OW 3069   8.561   6.104  10.104
  391SOL    HW1 3070   8.564   6.026  10.159
  391SOL    HW2 3071   8.584   6.073  10.016
  392SOL     OW 3072   8.118   5.652   9.151
  392SOL    HW1 3073   8.102   5.742   9.125
  392SOL    HW2 3074   8.164   5.613   9.077
  393SOL     OW 3075  12.715   1.674   2.205
  393SOL    HW1 3076  12.638   1.618   2.218
  393SOL    HW2 3077  12.711   1.698   2.112
  394SOL     OW 3078   5.527   1.525   5.637
  394SOL    HW1 3079   5.622   1.527   5.620
  394SOL    HW2 3080   5.512   1.600   5.695
  395SOL     OW 3081   7.882  12.221   1.784
  395SOL    HW1 3082   7.875  12.209   1.878
  395SOL    HW2 3083   7.976  12.217   1.767
  396SOL     OW 3084  13.036   8.238  10.914
  396SOL    HW1 3085  12.974   8.213  10.845
  396SOL    HW2 3086  13.035   8.165  10.975
  397SOL     OW 3087   3.340   2.977   4.069
  397SOL    HW1 3088   3.292   2.899   4.043
  397SOL    HW2 3089   3.428   2.964   4.033
  398SOL     OW 3090   8.162  14.272   1.206
  398SOL    HW1 3091   8.217  14.325   1.263
  398SOL    HW2 3092   8.094  14.331   1.175
  399SOL     OW 3093   6.874  10.675  13.516
  399SOL    HW1 3094   6.795  10.634  13.552
  399SOL    HW2 3095   6.932  10.602  13.494
  400SOL     OW 3096   0.867   8.320  14.764
  400SOL    HW1 3097   0.839   8.231  14.744
  400SOL    HW2 3098   0.793   8.375  14.740
  401SOL     OW 3099  13.882   4.145   9.724
  401SOL    HW1 3100  13.926   4.229   9.709
  401SOL    HW2 3101  13.789   4.166   9.725
  402SOL     OW 3102  12.025   9.645   9.775
  402SOL    HW1 3103  12.034   9.646   9.870
  402SOL    HW2 3104  12.110   9.674   9.743
  403SOL     OW 3105   7.468   0.542   4.236
  403SOL    HW1 3106   7.418   0.534   4.317
  403SOL    HW2 3107   7.560   0.539   4.264
  404SOL     OW 3108   8.220   4.246  10.664
  404SOL    HW1 3109   8.126   4.264  10.653
  404SOL    HW2 3110   8.250   4.314  10.724
  405SOL     OW 3111   3.959   6.906   5.795
  405SOL    HW1 3112   4.034   6.963   5.775
  405SOL    HW2 3113   3.893   6.965   5.831
  406SOL     OW 3114   4.859   5.579  13.893
  406SOL    HW1 3115   4.820   5.563  13.807
  406SOL    HW2 3116   4.841   5.671  13.911
  407SOL     OW 3117   7.048  14.654   6.562
  407SOL    HW1 3118   7.067  14.730   6.506
  407SOL    HW2 3119   7.123  14.649   6.621
  408SOL     OW 3120   1.652   2.795   2.127
  408SOL    HW1 3121   1.562   2.762   2.124
  408SOL    HW2 3122   1.667   2.818   2.219
  409SOL     OW 3123   0.711   7.690   1.304
  409SOL    HW1 3124   0.794   7.673   1.260
  409SOL    HW2 3125   0.656   7.732   1.237
  410SOL     OW 3126  12.493   8.114   3.771
  410SOL    HW1 3127  12.522   8.166   3.697
  410SOL    HW2 3128  12.546   8.145   3.845
  411SOL     OW 3129   9.586  12.435   3.377
  411SOL    HW1 3130   9.558  12.450   3.467
  411SOL    HW2 3131   9.505  12.423   3.328
  412SOL     OW 3132   8.026   9.191   3.192
  412SOL    HW1 3133   8.110   9.187   3.237
  412SOL    HW2 3134   7.996   9.100   3.189
  413SOL     OW 3135   7.101   6.312   2.497
  413SOL    HW1 3136   7.154   6.263   2.435
  413SOL    HW2 3137   7.091   6.253   2.572
  414SOL     OW 3138  10.177   2.587  13.714
  414SOL    HW1 3139  10.234   2.663  13.725
  414SOL    HW2 3140  10.188   2.562  13.623
  415SOL     OW 3141  11.878  10.990   2.663
  415SOL    HW1 3142  11.957  10.995   2.610
  415SOL    HW2 3143  11.905  11.021   2.749
  416SOL     OW 3144   2.182   4.007   8.319
  416SOL    HW1 3145   2.167   3.980   8.410
  416SOL    HW2 3146   2.245   3.943   8.286
  417SOL     OW 3147   2.048   7.817   4.635
  417SOL    HW1 3148   2.010   7.779   4.715
  417SOL    HW2 3149   2.081   7.742   4.586
  418SOL     OW 3150  13.651   7.382   7.836
  418SOL    HW1 3151  13.663   7.292   7.866
  418SOL    HW2 3152  13.686   7.436   7.907
  419SOL     OW 3153  10.763   8.330   6.226
  419SOL    HW1 3154  10.835   8.394   6.219
  419SOL    HW2 3155  10.744   8.326   6.319
  420SOL     OW 3156   2.982   6.851   4.309
  420SOL    HW1 3157   3.061   6.865   4.257
  420SOL    HW2 3158   3.005   6.778   4.367
  421SOL     OW 3159   2.102  10.926  11.020
  421SOL    HW1 3160   2.069  10.838  11.009
  421SOL    HW2 3161   2.058  10.959  11.099
  422SOL     OW 3162  11.767   3.346  11.913
  422SOL    HW1 3163  11.810   3.356  11.997
  422SOL    HW2 3164  11.689   3.294  11.931
  423SOL     OW 3165  11.788   9.917  14.376
  423SOL    HW1 3166  11.857   9.977  14.348
  423SOL    HW2 3167  11.712   9.942  14.323
  424SOL     OW 3168   6.235   4.032   4.021
  424SOL    HW1 3169   6.189   3.953   4.050
  424SOL    HW2 3170   6.325   4.004   4.007
  425SOL     OW 3171   8.573  10.134   6.641
  425SOL    HW1 3172   8.491  10.135   6.690
  425SOL    HW2 3173   8.635  10.183   6.696
  426SOL     OW 3174   2.158   0.694   5.987
  426SOL    HW1 3175   2.106   0.620   5.955
  426SOL    HW2 3176   2.191   0.737   5.907
  427SOL     OW 3177  14.599   2.552   6.890
  427SOL    HW1 3178  14.504   2.565   6.892
  427SOL    HW2 3179  14.635   2.635   6.923
  428SOL     OW 3180  13.068   8.962   9.472
  428SOL    HW1 3181  13.080   8.970   9.566
  428SOL    HW2 3182  13.149   8.920   9.441
  429SOL     OW 3183   1.495   0.808   0.117
  429SOL    HW1 3184   1.461   0.734   0.066
  429SOL    HW2 3185   1.554   0.854   0.056
  430SOL     OW 3186   8.728  12.495   9.686
  430SOL    HW1 3187   8.708  12.403   9.702
  430SOL    HW2 3188   8.672  12.520   9.613
  431SOL     OW 3189   5.675  13.986   3.720
  431SOL    HW1 3190   5.600  13.947   3.675
  431SOL    HW2 3191   5.650  14.078   3.733
  432SOL     OW 3192   6.912   4.776   6.408
  432SOL    HW1 3193   6.979   4.840   6.385
  432SOL    HW2 3194   6.884   4.800   6.496
  433SOL     OW 3195  13.218   3.930  12.710
  433SOL    HW1 3196  13.277   3.998  12.678
  433SOL    HW2 3197  13.266   3.887  12.780
  434SOL     OW 3198   1.028   9.839  13.037
  434SOL    HW1 3199   0.964   9.786  12.989
  434SOL    HW2 3200   0.991   9.928  13.034
  435SOL     OW 3201   3.429   6.147   0.875
  435SOL    HW1 3202   3.368   6.158   0.948
  435SOL    HW2 3203   3.424   6.054   0.853
  436SOL     OW 3204  14.775   6.548   3.346
  436SOL    HW1 3205  14.696   6.568   3.297
  436SOL    HW2 3206  14.778   6.452   3.350
  437SOL     OW 3207   9.794   8.546   7.690
  437SOL    HW1 3208   9.852   8.591   7.752
  437SOL    HW2 3209   9.840   8.552   7.606
  438SOL     OW 3210   7.858   7.445   3.388
  438SOL    HW1 3211   7.939   7.468   3.434
  438SOL    HW2 3212   7.789   7.459   3.453
  439SOL     OW 3213   2.641  14.680   4.121
  439SOL    HW1 3214   2.620  14.730   4.042
  439SOL    HW2 3215   2.574  14.706   4.184
  440SOL     OW 3216   5.923   0.401   2.946
  440SOL    HW1 3217   5.938   0.406   2.852
  440SOL    HW2 3218   5.837   0.440   2.959
  441SOL     OW 3219  13.681   5.546   0.874
  441SOL    HW1 3220  13.721   5.517   0.792
  441SOL    HW2 3221  13.719   5.490   0.941
  442SOL     OW 3222  12.314  10.119   7.227
  442SOL    HW1 3223  12.378  10.190   7.218
  442SOL    HW2 3224  12.346  10.067   7.300
  443SOL     OW 3225   2.706   3.474   6.405
  443SOL    HW1 3226   2.665   3.400   6.360
  443SOL    HW2 3227   2.750   3.435   6.481
  444SOL     OW 3228  12.905  14.352  13.075
  444SOL    HW1 3229  12.952  14.323  13.153
  444SOL    HW2 3230  12.888  14.445  13.091
  445SOL     OW 3231   0.505   1.423   6.307
  445SOL    HW1 3232   0.599   1.420   6.293
  445SOL    HW2 3233   0.474   1.335   6.286
  446SOL     OW 3234   6.394   9.224   7.995
  446SOL    HW1 3235   6.447   9.220   8.074
  446SOL    HW2 3236   6.368   9.133   7.979
  447SOL     OW 3237   1.195  13.339   5.605
  447SOL    HW1 3238   1.288  13.355   5.621
  447SOL    HW2 3239   1.192  13.251   5.568
  448SOL     OW 3240   1.123   2.618   0.684
  448SOL    HW1 3241   1.202   2.664   0.713
  448SOL    HW2 3242   1.143   2.525   0.699
  449SOL     OW 3243   2.621   1.940  13.318
  449SOL    HW1 3244   2.626   1.883  13.394
  449SOL    HW2 3245   2.693   2.002  13.328
  450SOL     OW 3246   6.330   2.447   4.742
  450SOL    HW1 3247   6.263   2.431   4.675
  450SOL    HW2 3248   6.281   2.471   4.820
  451SOL     OW 3249   5.906   5.074   5.926
  451SOL    HW1 3250   5.872   5.015   5.993
  451SOL    HW2 3251   5.837   5.076   5.859
  452SOL     OW 3252  13.257   5.059   5.610
  452SOL    HW1 3253  13.320   5.131   5.616
  452SOL    HW2 3254  13.282   5.014   5.529
  453SOL     OW 3255   5.110   8.632   2.359
  453SOL    HW1 3256   5.160   8.552   2.373
  453SOL    HW2 3257   5.164   8.701   2.397
  454SOL     OW 3258   6.771  14.742   7.437
  454SOL    HW1 3259   6.735  14.769   7.521
  454SOL    HW2 3260   6.782  14.647   7.445
  455SOL     OW 3261   0.019  11.765   4.677
  455SOL    HW1 3262   0.001  11.749   4.584
  455SOL    HW2 3263  14.845  11.848   4.695
  456SOL     OW 3264   6.498  10.285   9.407
  456SOL    HW1 3265   6.578  10.235   9.421
  456SOL    HW2 3266   6.428  10.220   9.406
  457SOL     OW 3267   0.733   1.351  14.345
  457SOL    HW1 3268   0.730   1.375  14.438
  457SOL    HW2 3269   0.660   1.398  14.305
  458SOL     OW 3270   0.458   2.997  12.270
  458SOL    HW1 3271   0.553   2.984  12.268
  458SOL    HW2 3272   0.427   2.932  12.333
  459SOL     OW 3273   2.424  11.171   7.556
  459SOL    HW1 3274   2.381  11.114   7.621
  459SOL    HW2 3275   2.516  11.148   7.561
  460SOL     OW 3276   4.950   0.053  14.833
  460SOL    HW1 3277   4.889   0.002  14.781
  460SOL    HW2 3278   4.998  14.857   0.015
  461SOL     OW 3279   3.203  11.905   8.090
  461SOL    HW1 3280   3.142  11.847   8.136
  461SOL    HW2 3281   3.279  11.910   8.148
  462SOL     OW 3282   6.703  14.687  13.169
  462SOL    HW1 3283   6.651  14.639  13.105
  462SOL    HW2 3284   6.792  14.685  13.134
  463SOL     OW 3285   1.991   1.108   9.674
  463SOL    HW1 3286   1.934   1.075   9.604
  463SOL    HW2 3287   2.002   1.201   9.654
  464SOL     OW 3288   9.922   3.171   0.882
  464SOL    HW1 3289   9.914   3.094   0.938
  464SOL    HW2 3290   9.865   3.237   0.924
  465SOL     OW 3291   3.815   7.160   3.233
  465SOL    HW1 3292   3.739   7.150   3.176
  465SOL    HW2 3293   3.886   7.184   3.175
  466SOL     OW 3294  12.433   2.598  12.505
  466SOL    HW1 3295  12.511   2.612  12.451
  466SOL    HW2 3296  12.454   2.636  12.590
  467SOL     OW 3297   0.188  12.436  10.964
  467SOL    HW1 3298   0.245  12.361  10.947
  467SOL    HW2 3299   0.147  12.417  11.048
  468SOL     OW 3300   6.128  12.681  10.249
  468SOL    HW1 3301   6.069  12.721  10.184
  468SOL    HW2 3302   6.085  12.696  10.333
  469SOL     OW 3303   1.825  13.646   2.897
  469SOL    HW1 3304   1.856  13.604   2.977
  469SOL    HW2 3305   1.796  13.574   2.841
  470SOL     OW 3306   2.689   2.561  14.650
  470SOL    HW1 3307   2.618   2.624  14.659
  470SOL    HW2 3308   2.763   2.613  14.618
  471SOL     OW 3309   4.850   8.607   9.793
  471SOL    HW1 3310   4.918   8.665   9.758
  471SOL    HW2 3311   4.772   8.626   9.741
  472SOL     OW 3312   4.775   3.449   6.688
  472SOL    HW1 3313   4.862   3.441   6.649
  472SOL    HW2 3314   4.787   3.419   6.779
  473SOL     OW 3315   3.286  10.772   8.602
  473SOL    HW1 3316   3.264  10.773   8.509
  473SOL    HW2 3317   3.244  10.693   8.635
  474SOL     OW 3318   0.478   5.999  12.344
  474SOL    HW1 3319   0.572   5.996  12.325
  474SOL    HW2 3320   0.436   5.988  12.259
  475SOL     OW 3321  10.731   4.991  12.000
  475SOL    HW1 3322  10.716   5.081  11.974
  475SOL    HW2 3323  10.781   4.998  12.082
  476SOL     OW 3324   8.759   5.036   8.112
  476SOL    HW1 3325   8.783   5.055   8.021
  476SOL    HW2 3326   8.693   5.102   8.134
  477SOL     OW 3327   5.262   9.011   0.083
  477SOL    HW1 3328   5.225   8.969   0.160
  477SOL    HW2 3329   5.197   9.077   0.058
  478SOL     OW 3330   2.298   4.117   9.436
  478SOL    HW1 3331   2.262   4.128   9.348
  478SOL    HW2 3332   2.233   4.064   9.482
  479SOL     OW 3333   9.114   9.208   8.918
  479SOL    HW1 3334   9.155   9.262   8.985
  479SOL    HW2 3335   9.172   9.132   8.909
  480SOL     OW 3336  12.182   7.727  13.053
  480SOL    HW1 3337  12.113   7.667  13.027
  480SOL    HW2 3338  12.212   7.694  13.138
  481SOL     OW 3339  13.318  14.794  13.835
  481SOL    HW1 3340  13.247  14.814  13.774
  481SOL    HW2 3341  13.320  14.699  13.840
  482SOL     OW 3342   8.432  12.253   8.534
  482SOL    HW1 3343   8.347  12.285   8.561
  482SOL    HW2 3344   8.442  12.282   8.444
  483SOL     OW 3345  10.065   8.602   3.664
  483SOL    HW1 3346  10.092   8.677   3.717
  483SOL    HW2 3347  10.138   8.589   3.603
  484SOL     OW 3348   9.437  10.455   8.670
  484SOL    HW1 3349   9.525  10.464   8.707
  484SOL    HW2 3350   9.378  10.482   8.740
  485SOL     OW 3351   2.101   5.445   5.544
  485SOL    HW1 3352   2.010   5.454   5.516
  485SOL    HW2 3353   2.105   5.358   5.585
  486SOL     OW 3354   2.851  11.634   9.216
  486SOL    HW1 3355   2.791  11.708   9.213
  486SOL    HW2 3356   2.872  11.616   9.124
  487SOL     OW 3357   9.301  11.769  12.955
  487SOL    HW1 3358   9.237  11.748  13.023
  487SOL    HW2 3359   9.281  11.859  12.930
  488SOL     OW 3360  11.766   8.169  11.003
  488SOL    HW1 3361  11.796   8.082  11.029
  488SOL    HW2 3362  11.676   8.174  11.032
  489SOL     OW 3363  13.061   3.276   9.120
  489SOL    HW1 3364  12.990   3.341   9.121
  489SOL    HW2 3365  13.132   3.317   9.169
  490SOL     OW 3366   2.031   0.258   7.135
  490SOL    HW1 3367   1.973   0.333   7.148
  490SOL    HW2 3368   2.034   0.247   7.040
  491SOL     OW 3369   3.778  11.296   3.767
  491SOL    HW1 3370   3.773  11.220   3.709
  491SOL    HW2 3371   3.824  11.362   3.716
  492SOL     OW 3372   2.877   0.838  12.026
  492SOL    HW1 3373   2.782   0.842  12.016
  492SOL    HW2 3374   2.904   0.768  11.967
  493SOL     OW 3375   1.337   9.791   8.859
  493SOL    HW1 3376   1.371   9.862   8.914
  493SOL    HW2 3377   1.287   9.736   8.920
  494SOL     OW 3378   2.984   4.877   5.548
  494SOL    HW1 3379   2.994   4.853   5.456
  494SOL    HW2 3380   2.900   4.924   5.551
  495SOL     OW 3381  14.489   3.962   0.382
  495SOL    HW1 3382  14.479   4.048   0.340
  495SOL    HW2 3383  14.564   3.973   0.441
  496SOL     OW 3384   8.450   9.361   2.285
  496SOL    HW1 3385   8.467   9.447   2.247
  496SOL    HW2 3386   8.388   9.377   2.356
  497SOL     OW 3387  12.468  14.829   3.020
  497SOL    HW1 3388  12.454  14.831   3.114
  497SOL    HW2 3389  12.388  14.867   2.983
  498SOL     OW 3390   1.850   5.230  13.969
  498SOL    HW1 3391   1.916   5.265  14.029
  498SOL    HW2 3392   1.778   5.204  14.025
  499SOL     OW 3393   5.597   3.491   2.806
  499SOL    HW1 3394   5.674   3.448   2.767
  499SOL    HW2 3395   5.592   3.575   2.762
  500SOL     OW 3396   2.186   0.203   0.945
  500SOL    HW1 3397   2.190   0.110   0.923
  500SOL    HW2 3398   2.278   0.231   0.945
  501SOL     OW 3399  12.182   6.336   4.244
  501SOL    HW1 3400  12.127   6.401   4.202
  501SOL    HW2 3401  12.204   6.373   4.329
  502SOL     OW 3402  14.425   3.892   3.913
  502SOL    HW1 3403  14.516   3.919   3.926
  502SOL    HW2 3404  14.430   3.797   3.903
  503SOL     OW 3405  11.486   4.107  13.152
  503SOL    HW1 3406  11.423   4.177  13.132
  503SOL    HW2 3407  11.431   4.031  13.172
  504SOL     OW 3408  14.562  13.332   9.597
  504SOL    HW1 3409  14.497  13.315   9.529
  504SOL    HW2 3410  14.523  13.400   9.651
  505SOL     OW 3411   9.084   9.127  11.002
  505SOL    HW1 3412   9.125   9.128  10.916
  505SOL    HW2 3413   9.064   9.219  11.020
  506SOL     OW 3414  12.587   1.431   1.143
  506SOL    HW1 3415  12.550   1.470   1.222
  506SOL    HW2 3416  12.640   1.358   1.174
  507SOL     OW 3417   8.487   0.295  13.065
  507SOL    HW1 3418   8.521   0.270  13.151
  507SOL    HW2 3419   8.435   0.374  13.082
  508SOL     OW 3420   3.201   8.411  13.098
  508SOL    HW1 3421   3.259   8.422  13.023
  508SOL    HW2 3422   3.258   8.420  13.174
  509SOL     OW 3423   5.561   9.616  12.131
  509SOL    HW1 3424   5.567   9.615  12.226
  509SOL    HW2 3425   5.547   9.524  12.106
  510SOL     OW 3426  13.429   7.333   7.106
  510SOL    HW1 3427  13.396   7.414   7.067
  510SOL    HW2 3428  13.356   7.301   7.160
  511SOL     OW 3429   7.783   5.759  11.780
  511SOL    HW1 3430   7.839   5.682  11.771
  511SOL    HW2 3431   7.830   5.816  11.842
  512SOL     OW 3432  10.052  12.918  10.334
  512SOL    HW1 3433   9.994  12.843  10.325
  512SOL    HW2 3434  10.073  12.943  10.244
  513SOL     OW 3435   5.173   3.092   0.840
  513SOL    HW1 3436   5.200   3.142   0.916
  513SOL    HW2 3437   5.081   3.116   0.826
  514SOL     OW 3438   7.853  13.355   7.228
  514SOL    HW1 3439   7.826  13.382   7.315
  514SOL    HW2 3440   7.773  13.323   7.186
  515SOL     OW 3441  10.554   1.456   1.031
  515SOL    HW1 3442  10.632   1.401   1.043
  515SOL    HW2 3443  10.576   1.538   1.076
  516SOL     OW 3444   5.625  13.398   0.297
  516SOL    HW1 3445   5.720  13.391   0.282
  516SOL    HW2 3446   5.612  13.362   0.384
  517SOL     OW 3447   4.897   2.776  13.450
  517SOL    HW1 3448   4.898   2.683  13.472
  517SOL    HW2 3449   4.977   2.811  13.491
  518SOL     OW 3450  14.361   3.104   6.438
  518SOL    HW1 3451  14.407   3.028   6.474
  518SOL    HW2 3452  14.291   3.122   6.501
  519SOL     OW 3453   3.767   1.527  13.564
  519SOL    HW1 3454   3.785   1.444  13.608
  519SOL    HW2 3455   3.696   1.507  13.503
  520SOL     OW 3456  11.881  14.059   1.613
  520SOL    HW1 3457  11.793  14.045   1.578
  520SOL    HW2 3458  11.916  13.971   1.628
  521SOL     OW 3459  11.058   2.120  12.330
  521SOL    HW1 3460  11.014   2.177  12.267
  521SOL    HW2 3461  11.102   2.054  12.277
  522SOL     OW 3462  11.715   8.091  12.416
  522SOL    HW1 3463  11.753   8.048  12.340
  522SOL    HW2 3464  11.721   8.027  12.487
  523SOL     OW 3465   0.816   6.954   8.726
  523SOL    HW1 3466   0.870   6.989   8.656
  523SOL    HW2 3467   0.874   6.895   8.774
  524SOL     OW 3468  14.687   4.531   6.128
  524SOL    HW1 3469  14.687   4.442   6.164
  524SOL    HW2 3470  14.688   4.588   6.204
  525SOL     OW 3471   5.977  13.594   8.001
  525SOL    HW1 3472   5.936  13.674   7.967
  525SOL    HW2 3473   6.009  13.619   8.088
  526SOL     OW 3474   8.987   7.628  12.055
  526SOL    HW1 3475   8.949   7.568  11.991
  526SOL    HW2 3476   8.913   7.679  12.088
  527SOL     OW 3477   8.237   7.806   1.608
  527SOL    HW1 3478   8.274   7.880   1.656
  527SOL    HW2 3479   8.294   7.796   1.531
  528SOL     OW 3480   0.504   2.424   0.125
  528SOL    HW1 3481   0.486   2.516   0.108
  528SOL    HW2 3482   0.523   2.420   0.219
  529SOL     OW 3483  12.009   7.888   0.721
  529SOL    HW1 3484  12.053   7.820   0.772
  529SOL    HW2 3485  12.076   7.954   0.705
  530SOL     OW 3486  13.034   1.091   0.564
  530SOL    HW1 3487  12.968   1.160   0.559
  530SOL    HW2 3488  13.117   1.137   0.564
  531SOL     OW 3489   7.852   2.788  11.489
  531SOL    HW1 3490   7.832   2.816  11.399
  531SOL    HW2 3491   7.895   2.704  11.479
  532SOL     OW 3492   2.041   7.206  14.674
  532SOL    HW1 3493   2.121   7.247  14.707
  532SOL    HW2 3494   2.040   7.120  14.716
  533SOL     OW 3495   7.097   8.025  12.670
  533SOL    HW1 3496   7.147   7.969  12.610
  533SOL    HW2 3497   7.140   8.111  12.664
  534SOL     OW 3498  14.173  13.550   9.347
  534SOL    HW1 3499  14.251  13.548   9.292
  534SOL    HW2 3500  14.205  13.576   9.433
  535SOL     OW 3501  10.330   6.888  13.608
  535SOL    HW1 3502  10.266   6.870  13.539
  535SOL    HW2 3503  10.363   6.801  13.633
  536SOL     OW 3504   3.768   4.648  10.184
  536SOL    HW1 3505   3.842   4.689  10.228
  536SOL    HW2 3506   3.754   4.566  10.231
  537SOL     OW 3507  10.936   2.384   2.827
  537SOL    HW1 3508  11.009   2.379   2.888
  537SOL    HW2 3509  10.973   2.426   2.749
  538SOL     OW 3510  10.317   5.119   3.483
  538SOL    HW1 3511  10.251   5.049   3.482
  538SOL    HW2 3512  10.375   5.097   3.556
  539SOL     OW 3513   1.735   3.824  11.146
  539SOL    HW1 3514   1.824   3.829  11.112
  539SOL    HW2 3515   1.703   3.739  11.115
  540SOL     OW 3516   7.457   1.423  11.703
  540SOL    HW1 3517   7.521   1.368  11.749
  540SOL    HW2 3518   7.468   1.399  11.611
  541SOL     OW 3519  12.781   5.001   2.075
  541SOL    HW1 3520  12.732   4.926   2.043
  541SOL    HW2 3521  12.717   5.052   2.125
  542SOL     OW 3522   9.455   7.302   3.936
  542SOL    HW1 3523   9.435   7.213   3.907
  542SOL    HW2 3524   9.427   7.305   4.027
  543SOL     OW 3525  13.153   2.963   0.479
  543SOL    HW1 3526  13.154   3.016   0.399
  543SOL    HW2 3527  13.243   2.933   0.490
  544SOL     OW 3528   3.262   1.448  13.024
  544SOL    HW1 3529   3.269   1.543  13.033
  544SOL    HW2 3530   3.267   1.415  13.113
  545SOL     OW 3531  12.987  12.682  12.902
  545SOL    HW1 3532  13.000  12.628  12.824
  545SOL    HW2 3533  13.043  12.758  12.887
  546SOL     OW 3534  10.411   8.068  11.298
  546SOL    HW1 3535  10.339   8.128  11.314
  546SOL    HW2 3536  10.370   7.981  11.292
  547SOL     OW 3537   8.761  14.683   0.922
  547SOL    HW1 3538   8.771  14.681   1.017
  547SOL    HW2 3539   8.834  14.631   0.888
  548SOL     OW 3540   9.721   8.201  14.449
  548SOL    HW1 3541   9.647   8.262  14.439
  548SOL    HW2 3542   9.684   8.126  14.496
  549SOL     OW 3543  10.246  12.250  14.755
  549SOL    HW1 3544  10.276  12.296  14.834
  549SOL    HW2 3545  10.157  12.223  14.776
  550SOL     OW 3546   7.290   4.417  13.375
  550SOL    HW1 3547   7.240   4.449  13.450
  550SOL    HW2 3548   7.300   4.323  13.392
  551SOL     OW 3549   6.512   5.536  11.445
  551SOL    HW1 3550   6.444   5.583  11.494
  551SOL    HW2 3551   6.481   5.445  11.443
  552SOL     OW 3552   5.804   3.903  14.248
  552SOL    HW1 3553   5.834   3.957  14.174
  552SOL    HW2 3554   5.746   3.838  14.208
  553SOL     OW 3555  11.762   1.590   1.290
  553SOL    HW1 3556  11.831   1.656   1.290
  553SOL    HW2 3557  11.704   1.615   1.219
  554SOL     OW 3558   9.729  12.320  11.305
  554SOL    HW1 3559   9.638  12.327  11.334
  554SOL    HW2 3560   9.771  12.399  11.339
  555SOL     OW 3561  14.129   9.750   3.439
  555SOL    HW1 3562  14.171   9.794   3.514
  555SOL    HW2 3563  14.087   9.821   3.391
  556SOL     OW 3564   5.484  13.808   2.677
  556SOL    HW1 3565   5.564  13.761   2.701
  556SOL    HW2 3566   5.424  13.793   2.750
  557SOL     OW 3567  13.060   8.683  14.134
  557SOL    HW1 3568  12.969   8.673  14.109
  557SOL    HW2 3569  13.108   8.677  14.051
  558SOL     OW 3570   7.077   1.426   8.684
  558SOL    HW1 3571   6.990   1.399   8.711
  558SOL    HW2 3572   7.089   1.387   8.598
  559SOL     OW 3573   2.150   9.618  11.030
  559SOL    HW1 3574   2.243   9.625  11.009
  559SOL    HW2 3575   2.147   9.567  11.111
  560SOL     OW 3576   2.522   2.741   6.038
  560SOL    HW1 3577   2.572   2.771   5.962
  560SOL    HW2 3578   2.578   2.675   6.078
  561SOL     OW 3579  11.098   8.005   0.973
  561SOL    HW1 3580  11.070   7.914   0.982
  561SOL    HW2 3581  11.045   8.053   1.036
  562SOL     OW 3582   8.516  12.584   1.373
  562SOL    HW1 3583   8.497  12.601   1.280
  562SOL    HW2 3584   8.436  12.609   1.419
  563SOL     OW 3585   5.616  10.223   7.303
  563SOL    HW1 3586   5.589  10.170   7.229
  563SOL    HW2 3587   5.549  10.208   7.370
  564SOL     OW 3588   8.706   1.362   4.970
  564SOL    HW1 3589   8.669   1.366   4.881
  564SOL    HW2 3590   8.642   1.312   5.020
  565SOL     OW 3591   7.165   5.560   2.691
  565SOL    HW1 3592   7.076   5.595   2.693
  565SOL    HW2 3593   7.216   5.622   2.743
  566SOL     OW 3594  11.538  10.356   1.562
  566SOL    HW1 3595  11.523  10.276   1.511
  566SOL    HW2 3596  11.580  10.325   1.643
  567SOL     OW 3597   9.045   4.067   0.736
  567SOL    HW1 3598   8.971   4.084   0.794
  567SOL    HW2 3599   9.075   4.153   0.709
  568SOL     OW 3600  12.751  11.363   3.457
  568SOL    HW1 3601  12.811  11.313   3.511
  568SOL    HW2 3602  12.676  11.305   3.444
  569SOL     OW 3603   9.398   7.045  10.696
  569SOL    HW1 3604   9.374   7.055  10.788
  569SOL    HW2 3605   9.454   7.120  10.677
  570SOL     OW 3606   4.071  13.399  12.748
  570SOL    HW1 3607   3.980  13.409  12.718
  570SOL    HW2 3608   4.076  13.309  12.779
  571SOL     OW 3609   9.826   8.217  13.414
  571SOL    HW1 3610   9.861   8.155  13.478
  571SOL    HW2 3611   9.750   8.173  13.376
  572SOL     OW 3612   2.189  11.121  14.331
  572SOL    HW1 3613   2.155  11.115  14.241
  572SOL    HW2 3614   2.284  11.131  14.320
  573SOL     OW 3615   0.582   9.675  10.890
  573SOL    HW1 3616   0.656   9.697  10.946
  573SOL    HW2 3617   0.610   9.598  10.841
  574SOL     OW 3618   5.601  12.582   4.472
  574SOL    HW1 3619   5.678  12.622   4.431
  574SOL    HW2 3620   5.528  12.639   4.448
  575SOL     OW 3621   0.289  10.289  12.131
  575SOL    HW1 3622   0.250  10.204  12.112
  575SOL    HW2 3623   0.215  10.346  12.151
  576SOL     OW 3624  11.387   7.557   0.598
  576SOL    HW1 3625  11.443   7.555   0.676
  576SOL    HW2 3626  11.371   7.464   0.579
  577SOL     OW 3627   5.227   7.010   5.231
  577SOL    HW1 3628   5.143   6.966   5.241
  577SOL    HW2 3629   5.253   7.033   5.320
  578SOL     OW 3630   3.744   0.794   9.851
  578SOL    HW1 3631   3.697   0.822   9.773
  578SOL    HW2 3632   3.725   0.700   9.858
  579SOL     OW 3633   5.203   9.160   1.906
  579SOL    HW1 3634   5.116   9.194   1.929
  579SOL    HW2 3635   5.185   9.076   1.864
  580SOL     OW 3636   1.145  13.867   0.722
  580SOL    HW1 3637   1.165  13.871   0.628
  580SOL    HW2 3638   1.115  13.955   0.744
  581SOL     OW 3639  14.399   6.257   5.760
  581SOL    HW1 3640  14.352   6.336   5.735
  581SOL    HW2 3641  14.414   6.211   5.677
  582SOL     OW 3642  14.431   6.126   7.447
  582SOL    HW1 3643  14.451   6.152   7.357
  582SOL    HW2 3644  14.433   6.030   7.445
  583SOL     OW 3645   3.235   6.814   4.224
  583SOL    HW1 3646   3.268   6.754   4.158
  583SOL    HW2 3647   3.313   6.844   4.271
  584SOL     OW 3648   2.200   4.489   1.446
  584SOL    HW1 3649   2.215   4.508   1.354
  584SOL    HW2 3650   2.248   4.408   1.462
  585SOL     OW 3651   5.386   7.322  11.249
  585SOL    HW1 3652   5.394   7.227  11.236
  585SOL    HW2 3653   5.296   7.342  11.221
  586SOL     OW 3654   3.781   1.508  10.932
  586SOL    HW1 3655   3.840   1.440  10.965
  586SOL    HW2 3656   3.786   1.501  10.837
  587SOL     OW 3657  11.620  13.140   1.912
  587SOL    HW1 3658  11.626  13.234   1.926
  587SOL    HW2 3659  11.706  13.115   1.877
  588SOL     OW 3660  10.216  14.610  14.846
  588SOL    HW1 3661  10.248  14.564   0.054
  588SOL    HW2 3662  10.150  14.551  14.809
  589SOL     OW 3663   6.480  12.332   5.212
  589SOL    HW1 3664   6.490  12.330   5.117
  589SOL    HW2 3665   6.450  12.244   5.235
  590SOL     OW 3666   8.955  13.517   8.377
  590SOL    HW1 3667   8.991  13.441   8.422
  590SOL    HW2 3668   8.865  13.492   8.356
  591SOL     OW 3669  11.828  12.941   1.590
  591SOL    HW1 3670  11.878  12.956   1.509
  591SOL    HW2 3671  11.794  12.852   1.581
  592SOL     OW 3672  11.604   9.622   4.918
  592SOL    HW1 3673  11.561   9.687   4.863
  592SOL    HW2 3674  11.563   9.539   4.893
  593SOL     OW 3675   4.973   4.691   0.585
  593SOL    HW1 3676   4.923   4.625   0.634
  593SOL    HW2 3677   4.919   4.708   0.508
  594SOL     OW 3678   1.814   2.703  11.032
  594SOL    HW1 3679   1.736   2.650  11.047
  594SOL    HW2 3680   1.869   2.649  10.975
  595SOL     OW 3681   5.206   4.217  14.449
  595SOL    HW1 3682   5.289   4.169  14.439
  595SOL    HW2 3683   5.175   4.192  14.536
  596SOL     OW 3684   8.532  10.763   0.875
  596SOL    HW1 3685   8.533  10.759   0.779
  596SOL    HW2 3686   8.599  10.828   0.897
  597SOL     OW 3687   9.673   8.357   6.919
  597SOL    HW1 3688   9.669   8.267   6.953
  597SOL    HW2 3689   9.763   8.367   6.890
  598SOL     OW 3690   6.314   8.861   9.576
  598SOL    HW1 3691   6.246   8.871   9.642
  598SOL    HW2 3692   6.342   8.951   9.557
  599SOL     OW 3693   6.186   1.056   2.278
  599SOL    HW1 3694   6.262   1.038   2.334
  599SOL    HW2 3695   6.158   1.144   2.303
  600SOL     OW 3696   1.545  12.374   3.273
  600SOL    HW1 3697   1.550  12.463   3.238
  600SOL    HW2 3698   1.482  12.381   3.346
  601SOL     OW 3699   9.131   9.401   0.374
  601SOL    HW1 3700   9.128   9.308   0.355
  601SOL    HW2 3701   9.039   9.428   0.374
  602SOL     OW 3702   0.238   1.245  12.088
  602SOL    HW1 3703   0.147   1.271  12.072
  602SOL    HW2 3704   0.251   1.259  12.182
  603SOL     OW 3705   6.095  13.530   4.923
  603SOL    HW1 3706   6.130  13.464   4.983
  603SOL    HW2 3707   6.170  13.556   4.869
  604SOL     OW 3708   3.786   3.924   5.299
  604SOL    HW1 3709   3.782   3.991   5.368
  604SOL    HW2 3710   3.744   3.965   5.223
  605SOL     OW 3711   8.222  13.952  12.360
  605SOL    HW1 3712   8.271  13.897  12.298
  605SOL    HW2 3713   8.143  13.902  12.379
  606SOL     OW 3714   1.160   8.391  10.243
  606SOL    HW1 3715   1.121   8.375  10.157
  606SOL    HW2 3716   1.149   8.309  10.291
  607SOL     OW 3717   6.152   5.450   2.677
  607SOL    HW1 3718   6.115   5.393   2.744
  607SOL    HW2 3719   6.168   5.533   2.722
  608SOL     OW 3720   9.876   5.784   5.612
  608SOL    HW1 3721   9.884   5.771   5.517
  608SOL    HW2 3722   9.813   5.855   5.621
  609SOL     OW 3723   0.006   3.741  12.689
  609SOL    HW1 3724   0.051   3.695  12.618
  609SOL    HW2 3725  14.857   3.673  12.753
  610SOL     OW 3726   1.275  10.148  10.604
  610SOL    HW1 3727   1.304  10.238  10.593
  610SOL    HW2 3728   1.337  10.111  10.668
  611SOL     OW 3729   5.260  14.383   6.026
  611SOL    HW1 3730   5.203  14.415   5.956
  611SOL    HW2 3731   5.253  14.451   6.094
  612SOL     OW 3732   8.410   0.671  12.450
  612SOL    HW1 3733   8.455   0.589  12.471
  612SOL    HW2 3734   8.480   0.736  12.447
  613SOL     OW 3735   9.640  12.359  14.372
  613SOL    HW1 3736   9.690  12.364  14.453
  613SOL    HW2 3737   9.633  12.266  14.353
  614SOL     OW 3738   8.399   5.993   0.876
  614SOL    HW1 3739   8.341   5.919   0.858
  614SOL    HW2 3740   8.360   6.035   0.953
  615SOL     OW 3741   3.880   9.954   6.062
  615SOL    HW1 3742   3.967   9.921   6.084
  615SOL    HW2 3743   3.878   9.957   5.966
  616SOL     OW 3744   4.461   4.211   5.020
  616SOL    HW1 3745   4.392   4.223   4.955
  616SOL    HW2 3746   4.417   4.222   5.104
  617SOL     OW 3747  12.966  12.934   7.044
  617SOL    HW1 3748  12.901  12.931   7.114
  617SOL    HW2 3749  13.010  13.019   7.057
  618SOL     OW 3750  12.076   8.745  14.757
  618SOL    HW1 3751  12.049   8.679  14.821
  618SOL    HW2 3752  12.027   8.723  14.678
  619SOL     OW 3753   8.986   3.279  13.305
  619SOL    HW1 3754   8.906   3.251  13.348
  619SOL    HW2 3755   9.034   3.198  13.287
  620SOL     OW 3756   1.409   6.179   9.442
  620SOL    HW1 3757   1.439   6.088   9.442
  620SOL    HW2 3758   1.323   6.176   9.484
  621SOL     OW 3759   2.856   4.445  11.188
  621SOL    HW1 3760   2.813   4.508  11.245
  621SOL    HW2 3761   2.944   4.480  11.174
  622SOL     OW 3762   6.844  11.934   7.742
  622SOL    HW1 3763   6.873  11.970   7.658
  622SOL    HW2 3764   6.792  12.004   7.781
  623SOL     OW 3765   2.333  12.095  12.891
  623SOL    HW1 3766   2.331  12.050  12.807
  623SOL    HW2 3767   2.358  12.185  12.869
  624SOL     OW 3768   2.727   4.626  10.357
  624SOL    HW1 3769   2.761   4.600  10.443
  624SOL    HW2 3770   2.636   4.649  10.373
  625SOL     OW 3771  13.671   4.841   3.850
  625SOL    HW1 3772  13.695   4.844   3.943
  625SOL    HW2 3773  13.743   4.796   3.808
  626SOL     OW 3774   0.366  11.573  12.001
  626SOL    HW1 3775   0.278  11.610  11.993
  626SOL    HW2 3776   0.353  11.492  12.051
  627SOL     OW 3777  13.039   9.082  14.695
  627SOL    HW1 3778  12.950   9.070  14.661
  627SOL    HW2 3779  13.030   9.077  14.790
  628SOL     OW 3780  12.713  13.120   5.203
  628SOL    HW1 3781  12.640  13.179   5.223
  628SOL    HW2 3782  12.784  13.178   5.174
  629SOL     OW 3783  10.549   5.244   1.558
  629SOL    HW1 3784  10.531   5.202   1.474
  629SOL    HW2 3785  10.469   5.293   1.578
  630SOL     OW 3786  14.291  10.235   2.172
  630SOL    HW1 3787  14.273  10.160   2.115
  630SOL    HW2 3788  14.283  10.200   2.260
  631SOL     OW 3789  12.670   7.219   0.588
  631SOL    HW1 3790  12.707   7.302   0.618
  631SOL    HW2 3791  12.745   7.160   0.580
  632SOL     OW 3792   8.883   5.353   7.607
  632SOL    HW1 3793   8.844   5.349   7.695
  632SOL    HW2 3794   8.821   5.306   7.552
  633SOL     OW 3795  12.312  11.289  12.715
  633SOL    HW1 3796  12.256  11.341  12.657
  633SOL    HW2 3797  12.369  11.352  12.757
  634SOL     OW 3798   1.668  13.065  13.713
  634SOL    HW1 3799   1.651  13.158  13.704
  634SOL    HW2 3800   1.725  13.043  13.639
  635SOL     OW 3801   2.571  13.546   6.262
  635SOL    HW1 3802   2.566  13.458   6.226
  635SOL    HW2 3803   2.630  13.594   6.204
  636SOL     OW 3804  13.194   0.186   2.555
  636SOL    HW1 3805  13.104   0.168   2.583
  636SOL    HW2 3806  13.200   0.147   2.468
  637SOL     OW 3807   2.099  13.470   4.652
  637SOL    HW1 3808   2.185  13.510   4.664
  637SOL    HW2 3809   2.038  13.544   4.652
  638SOL     OW 3810   1.846   1.900   9.908
  638SOL    HW1 3811   1.930   1.941   9.889
  638SOL    HW2 3812   1.796   1.905   9.827
  639SOL     OW 3813   7.678   7.637  12.926
  639SOL    HW1 3814   7.759   7.644  12.977
  639SOL    HW2 3815   7.614   7.689  12.975
  640SOL     OW 3816  12.652   5.936   2.187
  640SOL    HW1 3817  12.590   5.872   2.152
  640SOL    HW2 3818  12.629   6.018   2.142
  641SOL     OW 3819  12.402  13.958   2.893
  641SOL    HW1 3820  12.477  13.954   2.952
  641SOL    HW2 3821  12.416  13.884   2.833
  642SOL     OW 3822   0.447   8.544   1.455
  642SOL    HW1 3823   0.385   8.554   1.528
  642SOL    HW2 3824   0.532   8.537   1.497
  643SOL     OW 3825   7.579   8.969  12.140
  643SOL    HW1 3826   7.639   9.043  12.153
  643SOL    HW2 3827   7.627   8.911  12.081
  644SOL     OW 3828   4.593  10.636   0.513
  644SOL    HW1 3829   4.545  10.627   0.431
  644SOL    HW2 3830   4.679  10.669   0.487
  645SOL     OW 3831   0.753   1.313  10.211
  645SOL    HW1 3832   0.671   1.353  10.183
  645SOL    HW2 3833   0.798   1.290  10.130
  646SOL     OW 3834   7.409   5.718   1.430
  646SOL    HW1 3835   7.471   5.706   1.501
  646SOL    HW2 3836   7.434   5.802   1.390
  647SOL     OW 3837   2.006  13.855   1.241
  647SOL    HW1 3838   2.003  13.870   1.336
  647SOL    HW2 3839   1.914  13.849   1.215
  648SOL     OW 3840   8.223   1.543  14.555
  648SOL    HW1 3841   8.135   1.573  14.579
  648SOL    HW2 3842   8.236   1.575  14.466
  649SOL     OW 3843   4.006   7.707  10.936
  649SOL    HW1 3844   4.079   7.737  10.991
  649SOL    HW2 3845   3.998   7.775  10.869
  650SOL     OW 3846   1.223   6.060   0.543
  650SOL    HW1 3847   1.299   6.008   0.570
  650SOL    HW2 3848   1.245   6.090   0.455
  651SOL     OW 3849  14.861  13.853   7.643
  651SOL    HW1 3850  14.775  13.836   7.681
  651SOL    HW2 3851  14.857  13.811   7.557
  652SOL     OW 3852  10.898   7.417   4.835
  652SOL    HW1 3853  10.910   7.401   4.929
  652SOL    HW2 3854  10.935   7.504   4.821
  653SOL     OW 3855   3.812   5.888  13.067
  653SOL    HW1 3856   3.823   5.939  13.148
  653SOL    HW2 3857   3.901   5.875  13.034
  654SOL     OW 3858   9.073   9.472   9.416
  654SOL    HW1 3859   9.025   9.467   9.499
  654SOL    HW2 3860   9.101   9.383   9.399
  655SOL     OW 3861  12.198  13.006   2.076
  655SOL    HW1 3862  12.179  12.969   1.991
  655SOL    HW2 3863  12.267  13.071   2.059
  656SOL     OW 3864   7.169   7.040  10.602
  656SOL    HW1 3865   7.173   7.004  10.513
  656SOL    HW2 3866   7.191   7.132  10.591
  657SOL     OW 3867  10.861   4.947   3.568
  657SOL    HW1 3868  10.889   4.933   3.478
  657SOL    HW2 3869  10.829   5.037   3.570
  658SOL     OW 3870  13.276   0.946  10.069
  658SOL    HW1 3871  13.251   1.038  10.072
  658SOL    HW2 3872  13.205   0.902  10.022
  659SOL     OW 3873   0.626   0.640   6.127
  659SOL    HW1 3874   0.638   0.723   6.173
  659SOL    HW2 3875   0.701   0.586   6.153
  660SOL     OW 3876   8.184   6.269   2.170
  660SOL    HW1 3877   8.148   6.358   2.164
  660SOL    HW2 3878   8.141   6.221   2.099
  661SOL     OW 3879   9.404   2.562   1.099
  661SOL    HW1 3880   9.367   2.607   1.175
  661SOL    HW2 3881   9.423   2.632   1.037
  662SOL     OW 3882   3.726   8.305   4.104
  662SOL    HW1 3883   3.785   8.312   4.029
  662SOL    HW2 3884   3.645   8.347   4.075
  663SOL     OW 3885   7.652  12.840   0.367
  663SOL    HW1 3886   7.632  12.800   0.282
  663SOL    HW2 3887   7.657  12.766   0.428
  664SOL     OW 3888   9.748   9.252   4.498
  664SOL    HW1 3889   9.785   9.164   4.505
  664SOL    HW2 3890   9.818   9.310   4.528
  665SOL     OW 3891   7.379  12.644   3.691
  665SOL    HW1 3892   7.448  12.578   3.694
  665SOL    HW2 3893   7.406  12.711   3.754
  666SOL     OW 3894   9.073  11.050   1.074
  666SOL    HW1 3895   9.164  11.063   1.101
  666SOL    HW2 3896   9.076  11.048   0.978
  667SOL     OW 3897   9.739   4.392   8.389
  667SOL    HW1 3898   9.725   4.443   8.308
  667SOL    HW2 3899   9.793   4.319   8.362
  668SOL     OW 3900  11.757   2.563   5.539
  668SOL    HW1 3901  11.762   2.614   5.458
  668SOL    HW2 3902  11.681   2.506   5.527
  669SOL     OW 3903   4.033  14.561  11.963
  669SOL    HW1 3904   4.079  14.477  11.953
  669SOL    HW2 3905   4.103  14.625  11.974
  670SOL     OW 3906  13.569   3.688   5.222
  670SOL    HW1 3907  13.547   3.640   5.142
  670SOL    HW2 3908  13.573   3.621   5.290
  671SOL     OW 3909  10.426   0.449   4.138
  671SOL    HW1 3910  10.406   0.538   4.167
  671SOL    HW2 3911  10.415   0.395   4.217
  672SOL     OW 3912  11.865   7.518  13.248
  672SOL    HW1 3913  11.823   7.590  13.296
  672SOL    HW2 3914  11.805   7.444  13.257
  673SOL     OW 3915   4.017  12.936   7.999
  673SOL    HW1 3916   3.962  13.015   7.997
  673SOL    HW2 3917   4.105  12.969   8.019
  674SOL     OW 3918   1.364   1.589  10.781
  674SOL    HW1 3919   1.400   1.502  10.764
  674SOL    HW2 3920   1.439   1.648  10.771
  675SOL     OW 3921  14.109   3.729   4.517
  675SOL    HW1 3922  14.193   3.685   4.503
  675SOL    HW2 3923  14.096   3.782   4.438
  676SOL     OW 3924   7.004  12.836   6.421
  676SOL    HW1 3925   7.021  12.930   6.415
  676SOL    HW2 3926   7.024  12.802   6.334
  677SOL     OW 3927   2.496   0.994  12.163
  677SOL    HW1 3928   2.556   1.069  12.166
  677SOL    HW2 3929   2.527   0.935  12.231
  678SOL     OW 3930   7.999   1.716   8.627
  678SOL    HW1 3931   8.023   1.808   8.616
  678SOL    HW2 3932   7.916   1.718   8.675
  679SOL     OW 3933  10.528  14.071  12.085
  679SOL    HW1 3934  10.595  14.040  12.146
  679SOL    HW2 3935  10.521  14.002  12.019
  680SOL     OW 3936   9.546   7.993   4.571
  680SOL    HW1 3937   9.563   8.073   4.520
  680SOL    HW2 3938   9.531   8.025   4.661
  681SOL     OW 3939  12.063   2.913  11.181
  681SOL    HW1 3940  12.067   2.817  11.188
  681SOL    HW2 3941  12.096   2.945  11.265
  682SOL     OW 3942   6.137   3.312   8.189
  682SOL    HW1 3943   6.130   3.408   8.190
  682SOL    HW2 3944   6.125   3.286   8.281
  683SOL     OW 3945   5.101  10.532   9.533
  683SOL    HW1 3946   5.057  10.556   9.452
  683SOL    HW2 3947   5.031  10.498   9.590
  684SOL     OW 3948   5.567   7.466  11.415
  684SOL    HW1 3949   5.506   7.422  11.356
  684SOL    HW2 3950   5.511   7.510  11.479
  685SOL     OW 3951   2.033   5.055  12.956
  685SOL    HW1 3952   2.037   5.091  12.868
  685SOL    HW2 3953   1.944   5.021  12.965
  686SOL     OW 3954  13.560   3.227  12.766
  686SOL    HW1 3955  13.526   3.309  12.731
  686SOL    HW2 3956  13.482   3.173  12.780
  687SOL     OW 3957   8.853   3.442   3.302
  687SOL    HW1 3958   8.925   3.454   3.363
  687SOL    HW2 3959   8.837   3.347   3.302
  688SOL     OW 3960   3.213  13.253   4.233
  688SOL    HW1 3961   3.305  13.278   4.221
  688SOL    HW2 3962   3.216  13.165   4.270
  689SOL     OW 3963   8.597   4.690  14.312
  689SOL    HW1 3964   8.619   4.721  14.400
  689SOL    HW2 3965   8.504   4.707  14.303
  690SOL     OW 3966  13.853   8.282  14.417
  690SOL    HW1 3967  13.760   8.300  14.401
  690SOL    HW2 3968  13.892   8.367  14.433
  691SOL     OW 3969   1.705   0.682  12.923
  691SOL    HW1 3970   1.784   0.628  12.918
  691SOL    HW2 3971   1.640   0.624  12.964
  692SOL     OW 3972   8.023   3.549   9.825
  692SOL    HW1 3973   8.097   3.604   9.799
  692SOL    HW2 3974   7.956   3.568   9.760
  693SOL     OW 3975   1.479  12.307  11.181
  693SOL    HW1 3976   1.495  12.399  11.203
  693SOL    HW2 3977   1.549  12.259  11.225
  694SOL     OW 3978  14.783   2.072   3.413
  694SOL    HW1 3979  14.789   1.978   3.392
  694SOL    HW2 3980  14.722   2.076   3.487
  695SOL     OW 3981   4.431   7.753   3.158
  695SOL    HW1 3982   4.501   7.746   3.223
  695SOL    HW2 3983   4.460   7.821   3.098
  696SOL     OW 3984  12.285  12.156  10.498
  696SOL    HW1 3985  12.315  12.245  10.477
  696SOL    HW2 3986  12.325  12.101  10.430
  697SOL     OW 3987   1.003   3.417  12.440
  697SOL    HW1 3988   1.015   3.501  12.483
  697SOL    HW2 3989   1.092   3.387  12.420
  698SOL     OW 3990  11.552   3.278   0.635
  698SOL    HW1 3991  11.467   3.273   0.679
  698SOL    HW2 3992  11.615   3.249   0.702
  699SOL     OW 3993  14.783   2.574  10.176
  699SOL    HW1 3994  14.711   2.636  10.182
  699SOL    HW2 3995  14.791   2.538  10.264
  700SOL     OW 3996  13.654   9.207   7.884
  700SOL    HW1 3997  13.573   9.158   7.899
  700SOL    HW2 3998  13.644   9.243   7.796
  701SOL     OW 3999   4.959   0.657   9.481
  701SOL    HW1 4000   4.905   0.614   9.548
  701SOL    HW2 4001   5.049   0.636   9.506
  702SOL     OW 4002   8.929   6.394  10.426
  702SOL    HW1 4003   8.930   6.489  10.418
  702SOL    HW2 4004   8.837   6.373  10.446
  703SOL     OW 4005   7.358   9.700   5.585
  703SOL    HW1 4006   7.275   9.747   5.578
  703SOL    HW2 4007   7.402   9.715   5.502
  704SOL     OW 4008   6.128   1.859  14.229
  704SOL    HW1 4009   6.138   1.764  14.238
  704SOL    HW2 4010   6.194   1.896  14.287
  705SOL     OW 4011   1.387  12.511  13.315
  705SOL    HW1 4012   1.357  12.504  13.224
  705SOL    HW2 4013   1.324  12.570  13.356
  706SOL     OW 4014   0.227   8.183   5.912
  706SOL    HW1 4015   0.288   8.210   5.843
  706SOL    HW2 4016   0.145   8.168   5.866
  707SOL     OW 4017  12.290   5.584   7.101
  707SOL    HW1 4018  12.210   5.539   7.125
  707SOL    HW2 4019  12.281   5.602   7.007
  708SOL     OW 4020  10.043   3.945   9.928
  708SOL    HW1 4021   9.999   3.947  10.013
  708SOL    HW2 4022   9.991   3.886   9.875
  709SOL     OW 4023  11.326   2.096   4.819
  709SOL    HW1 4024  11.399   2.116   4.877
  709SOL    HW2 4025  11.284   2.020   4.858
  710SOL     OW 4026  10.217  12.281   3.952
  710SOL    HW1 4027  10.135  12.270   3.904
  710SOL    HW2 4028  10.242  12.372   3.936
  711SOL     OW 4029  13.098   0.445  11.095
  711SOL    HW1 4030  13.142   0.501  11.031
  711SOL    HW2 4031  13.151   0.366  11.099
  712SOL     OW 4032  14.764   6.389   8.384
  712SOL    HW1 4033  14.746   6.322   8.319
  712SOL    HW2 4034  14.699   6.458   8.366
  713SOL     OW 4035   9.937   7.417   1.516
  713SOL    HW1 4036   9.847   7.397   1.490
  713SOL    HW2 4037   9.970   7.472   1.445
  714SOL     OW 4038   0.698   8.640  12.182
  714SOL    HW1 4039   0.750   8.565  12.155
  714SOL    HW2 4040   0.693   8.632  12.278
  715SOL     OW 4041   0.002   6.265  14.739
  715SOL    HW1 4042  14.818   6.188  14.719
  715SOL    HW2 4043  14.856   6.324  14.665
  716SOL     OW 4044   0.680  10.072   2.214
  716SOL    HW1 4045   0.602  10.018   2.227
  716SOL    HW2 4046   0.724  10.073   2.299
  717SOL     OW 4047   3.287  12.712   9.069
  717SOL    HW1 4048   3.352  12.782   9.077
  717SOL    HW2 4049   3.323  12.653   9.002
  718SOL     OW 4050   8.366   4.421   7.899
  718SOL    HW1 4051   8.279   4.381   7.903
  718SOL    HW2 4052   8.407   4.381   7.822
  719SOL     OW 4053   3.986   1.322   7.169
  719SOL    HW1 4054   4.002   1.390   7.234
  719SOL    HW2 4055   4.016   1.361   7.086
  720SOL     OW 4056   5.069   7.428  12.732
  720SOL    HW1 4057   5.009   7.389  12.669
  720SOL    HW2 4058   5.123   7.488  12.680
  721SOL     OW 4059   4.091   3.489  10.881
  721SOL    HW1 4060   4.002   3.487  10.916
  721SOL    HW2 4061   4.145   3.523  10.952
  722SOL     OW 4062   5.709   2.167  11.914
  722SOL    HW1 4063   5.735   2.078  11.937
  722SOL    HW2 4064   5.650   2.194  11.984
  723SOL     OW 4065  14.202   5.327  12.986
  723SOL    HW1 4066  14.256   5.273  12.929
  723SOL    HW2 4067  14.115   5.289  12.981
  724SOL     OW 4068  12.757   0.307   7.872
  724SOL    HW1 4069  12.672   0.263   7.870
  724SOL    HW2 4070  12.792   0.297   7.784
  725SOL     OW 4071  13.249   9.309   3.061
  725SOL    HW1 4072  13.175   9.277   3.010
  725SOL    HW2 4073  13.308   9.349   2.997
  726SOL     OW 4074   6.558   9.701   5.308
  726SOL    HW1 4075   6.631   9.763   5.303
  726SOL    HW2 4076   6.597   9.621   5.343
  727SOL     OW 4077  13.907   1.761   0.719
  727SOL    HW1 4078  13.987   1.710   0.703
  727SOL    HW2 4079  13.869   1.721   0.797
  728SOL     OW 4080  14.775   2.800   5.690
  728SOL    HW1 4081  14.853   2.828   5.641
  728SOL    HW2 4082  14.755   2.713   5.656
  729SOL     OW 4083  13.268   6.881   4.588
  729SOL    HW1 4084  13.251   6.973   4.607
  729SOL    HW2 4085  13.329   6.853   4.656
  730SOL     OW 4086  10.854   7.332   8.336
  730SOL    HW1 4087  10.826   7.342   8.245
  730SOL    HW2 4088  10.931   7.388   8.344
  731SOL     OW 4089  11.355  11.763   6.556
  731SOL    HW1 4090  11.406  11.763   6.475
  731SOL    HW2 4091  11.267  11.790   6.528
  732SOL     OW 4092  13.322   2.312   5.067
  732SOL    HW1 4093  13.275   2.394   5.075
  732SOL    HW2 4094  13.320   2.291   4.974
  733SOL     OW 4095   1.410   7.786   5.429
  733SOL    HW1 4096   1.400   7.825   5.342
  733SOL    HW2 4097   1.379   7.696   5.417
  734SOL     OW 4098   4.167   1.951   3.438
  734SOL    HW1 4099   4.229   1.920   3.503
  734SOL    HW2 4100   4.139   1.872   3.392
  735SOL     OW 4101  12.676   9.147  11.970
  735SOL    HW1 4102  12.737   9.074  11.973
  735SOL    HW2 4103  12.634   9.147  12.056
  736SOL     OW 4104   1.546  11.949   0.949
  736SOL    HW1 4105   1.605  11.935   0.875
  736SOL    HW2 4106   1.478  11.883   0.939
  737SOL     OW 4107   5.918   1.372   5.761
  737SOL    HW1 4108   5.872   1.412   5.687
  737SOL    HW2 4109   5.986   1.318   5.721
  738SOL     OW 4110   8.104   8.392  13.604
  738SOL    HW1 4111   8.113   8.412  13.697
  738SOL    HW2 4112   8.020   8.346  13.598
  739SOL     OW 4113  10.738  10.231  13.143
  739SOL    HW1 4114  10.689  10.209  13.222
  739SOL    HW2 4115  10.827  10.201  13.161
  740SOL     OW 4116  12.734   1.739   6.133
  740SOL    HW1 4117  12.764   1.648   6.136
  740SOL    HW2 4118  12.644   1.736   6.166
  741SOL     OW 4119  13.358   1.570  13.793
  741SOL    HW1 4120  13.412   1.559  13.714
  741SOL    HW2 4121  13.408   1.525  13.861
  742SOL     OW 4122   7.143   5.412   7.284
  742SOL    HW1 4123   7.130   5.379   7.195
  742SOL    HW2 4124   7.087   5.490   7.289
  743SOL     OW 4125   5.948  12.740   6.628
  743SOL    HW1 4126   6.001  12.816   6.602
  743SOL    HW2 4127   5.947  12.684   6.550
  744SOL     OW 4128   5.342  11.330   2.980
  744SOL    HW1 4129   5.276  11.308   2.915
  744SOL    HW2 4130   5.417  11.361   2.929
  745SOL     OW 4131   2.341   9.354   6.126
  745SOL    HW1 4132   2.377   9.287   6.068
  745SOL    HW2 4133   2.306   9.306   6.201
  746SOL     OW 4134   0.630  13.801   9.762
  746SOL    HW1 4135   0.666  13.738   9.826
  746SOL    HW2 4136   0.670  13.884   9.786
  747SOL     OW 4137   0.225   9.824   8.441
  747SOL    HW1 4138   0.313   9.851   8.469
  747SOL    HW2 4139   0.234   9.807   8.348
  748SOL     OW 4140  12.889  11.352   5.622
  748SOL    HW1 4141  12.924  11.420   5.564
  748SOL    HW2 4142  12.963  11.291   5.633
  749SOL     OW 4143  11.882  13.094   9.589
  749SOL    HW1 4144  11.837  13.024   9.541
  749SOL    HW2 4145  11.965  13.105   9.543
  750SOL     OW 4146   8.244   4.438   5.495
  750SOL    HW1 4147   8.228   4.502   5.565
  750SOL    HW2 4148   8.200   4.475   5.418
  751SOL     OW 4149  14.599   8.536   0.462
  751SOL    HW1 4150  14.631   8.490   0.539
  751SOL    HW2 4151  14.523   8.484   0.434
  752SOL     OW 4152   9.843  13.503   1.705
  752SOL    HW1 4153   9.912  13.445   1.738
  752SOL    HW2 4154   9.769  13.445   1.690
  753SOL     OW 4155   3.618   1.091   4.387
  753SOL    HW1 4156   3.562   1.038   4.331
  753SOL    HW2 4157   3.706   1.081   4.349
  754SOL     OW 4158  11.240  14.398   3.327
  754SOL    HW1 4159  11.211  14.466   3.266
  754SOL    HW2 4160  11.171  14.331   3.322
  755SOL     OW 4161  14.789  11.893   3.266
  755SOL    HW1 4162  14.851  11.820   3.273
  755SOL    HW2 4163  14.786  11.913   3.172
  756SOL     OW 4164   7.674   7.127  13.511
  756SOL    HW1 4165   7.627   7.166  13.437
  756SOL    HW2 4166   7.763   7.161  13.503
  757SOL     OW 4167  11.118  14.852   9.035
  757SOL    HW1 4168  11.139   0.056   9.092
  757SOL    HW2 4169  11.128   0.018   8.946
  758SOL     OW 4170   2.815  11.450   4.266
  758SOL    HW1 4171   2.858  11.388   4.207
  758SOL    HW2 4172   2.725  11.416   4.274
  759SOL     OW 4173  12.285   5.707   4.303
  759SOL    HW1 4174  12.245   5.707   4.391
  759SOL    HW2 4175  12.231   5.768   4.253
  760SOL     OW 4176  12.453  11.795  12.347
  760SOL    HW1 4177  12.540  11.769  12.375
  760SOL    HW2 4178  12.431  11.870  12.402
  761SOL     OW 4179   5.967  14.279   6.349
  761SOL    HW1 4180   5.977  14.184   6.348
  761SOL    HW2 4181   5.916  14.297   6.428
  762SOL     OW 4182   1.324   0.870   0.418
  762SOL    HW1 4183   1.271   0.790   0.419
  762SOL    HW2 4184   1.274   0.933   0.469
  763SOL     OW 4185   5.683   1.024  14.147
  763SOL    HW1 4186   5.713   0.994  14.061
  763SOL    HW2 4187   5.762   1.023  14.201
  764SOL     OW 4188   5.382   6.459   4.426
  764SOL    HW1 4189   5.468   6.460   4.385
  764SOL    HW2 4190   5.353   6.551   4.422
  765SOL     OW 4191  12.517   8.514  11.317
  765SOL    HW1 4192  12.514   8.515  11.413
  765SOL    HW2 4193  12.506   8.422  11.294
  766SOL     OW 4194   8.966   4.752   8.310
  766SOL    HW1 4195   9.006   4.831   8.273
  766SOL    HW2 4196   8.877   4.752   8.276
  767SOL     OW 4197   9.247  14.315   9.265
  767SOL    HW1 4198   9.306  14.348   9.196
  767SOL    HW2 4199   9.263  14.373   9.339
  768SOL     OW 4200   8.070   3.123   2.854
  768SOL    HW1 4201   8.103   3.113   2.765
  768SOL    HW2 4202   8.113   3.202   2.887
  769SOL     OW 4203   0.097  11.814   9.248
  769SOL    HW1 4204   0.114  11.723   9.222
  769SOL    HW2 4205   0.132  11.867   9.177
  770SOL     OW 4206   7.029   6.823   2.695
  770SOL    HW1 4207   7.047   6.870   2.777
  770SOL    HW2 4208   7.110   6.831   2.645
  771SOL     OW 4209   1.370   0.160   1.529
  771SOL    HW1 4210   1.423   0.158   1.609
  771SOL    HW2 4211   1.364   0.253   1.508
  772SOL     OW 4212  14.842   5.160   2.097
  772SOL    HW1 4213   0.049   5.172   2.153
  772SOL    HW2 4214  14.780   5.110   2.150
  773SOL     OW 4215   9.611   9.132   6.722
  773SOL    HW1 4216   9.617   9.045   6.681
  773SOL    HW2 4217   9.528   9.167   6.692
  774SOL     OW 4218   8.413   8.481   2.912
  774SOL    HW1 4219   8.336   8.426   2.923
  774SOL    HW2 4220   8.396   8.557   2.967
  775SOL     OW 4221   8.363   4.377   7.067
  775SOL    HW1 4222   8.425   4.304   7.069
  775SOL    HW2 4223   8.412   4.448   7.026
  776SOL     OW 4224  13.023  14.368   9.067
  776SOL    HW1 4225  13.058  14.293   9.019
  776SOL    HW2 4226  13.078  14.441   9.040
  777SOL     OW 4227   5.965   8.659   5.739
  777SOL    HW1 4228   6.007   8.731   5.693
  777SOL    HW2 4229   6.032   8.626   5.799
  778SOL     OW 4230  11.042  14.194   3.345
  778SOL    HW1 4231  10.974  14.257   3.321
  778SOL    HW2 4232  11.004  14.108   3.328
  779SOL     OW 4233   1.988   3.634   1.935
  779SOL    HW1 4234   2.068   3.625   1.988
  779SOL    HW2 4235   2.019   3.670   1.852
  780SOL     OW 4236   9.420  10.153   4.907
  780SOL    HW1 4237   9.452  10.208   4.836
  780SOL    HW2 4238   9.378  10.079   4.862
  781SOL     OW 4239  12.356  11.321   1.549
  781SOL    HW1 4240  12.261  11.337   1.546
  781SOL    HW2 4241  12.394  11.407   1.565
  782SOL     OW 4242  10.655   0.714   3.920
  782SOL    HW1 4243  10.729   0.690   3.864
  782SOL    HW2 4244  10.695   0.749   4.000
  783SOL     OW 4245   4.874   5.342   8.510
  783SOL    HW1 4246   4.953   5.298   8.478
  783SOL    HW2 4247   4.893   5.435   8.501
  784SOL     OW 4248  10.174   6.510  10.600
  784SOL    HW1 4249  10.078   6.506  10.593
  784SOL    HW2 4250  10.206   6.481  10.514
  785SOL     OW 4251   6.894  12.386   8.147
  785SOL    HW1 4252   6.883  12.317   8.082
  785SOL    HW2 4253   6.856  12.351   8.227
  786SOL     OW 4254   3.345  12.103  13.384
  786SOL    HW1 4255   3.268  12.146  13.420
  786SOL    HW2 4256   3.332  12.105  13.290
  787SOL     OW 4257   3.347   4.015  10.718
  787SOL    HW1 4258   3.378   4.105  10.724
  787SOL    HW2 4259   3.426   3.962  10.717
  788SOL     OW 4260   9.128  10.008   4.153
  788SOL    HW1 4261   9.198   9.994   4.216
  788SOL    HW2 4262   9.082  10.085   4.186
  789SOL     OW 4263   4.356  14.041   4.486
  789SOL    HW1 4264   4.325  13.951   4.489
  789SOL    HW2 4265   4.332  14.079   4.571
  790SOL     OW 4266  12.525   5.253   0.794
  790SOL    HW1 4267  12.552   5.161   0.792
  790SOL    HW2 4268  12.517   5.278   0.702
  791SOL     OW 4269   8.488  11.498  14.515
  791SOL    HW1 4270   8.508  11.427  14.577
  791SOL    HW2 4271   8.435  11.456  14.447
  792SOL     OW 4272   1.241   8.214   8.897
  792SOL    HW1 4273   1.273   8.156   8.967
  792SOL    HW2 4274   1.146   8.209   8.904
  793SOL     OW 4275   1.653   6.807  13.646
  793SOL    HW1 4276   1.699   6.786  13.565
  793SOL    HW2 4277   1.663   6.728  13.700
  794SOL     OW 4278   2.395   9.496  11.543
  794SOL    HW1 4279   2.453   9.530  11.475
  794SOL    HW2 4280   2.320   9.555  11.541
  795SOL     OW 4281  12.980   5.406   2.448
  795SOL    HW1 4282  13.019   5.489   2.420
  795SOL    HW2 4283  12.888   5.425   2.461
  796SOL     OW 4284  13.854  14.799  11.907
  796SOL    HW1 4285  13.876  14.715  11.947
  796SOL    HW2 4286  13.929  14.821  11.852
  797SOL     OW 4287   6.998   2.963   5.799
  797SOL    HW1 4288   6.996   2.870   5.775
  797SOL    HW2 4289   6.926   2.974   5.861
  798SOL     OW 4290   0.294  14.674  11.064
  798SOL    HW1 4291   0.289  14.603  11.000
  798SOL    HW2 4292   0.244  14.642  11.139
  799SOL     OW 4293   4.530   9.412   1.315
  799SOL    HW1 4294   4.544   9.340   1.377
  799SOL    HW2 4295   4.617   9.431   1.279
  800SOL     OW 4296   7.674  12.696   6.212
  800SOL    HW1 4297   7.655  12.665   6.123
  800SOL    HW2 4298   7.697  12.788   6.200
  801SOL     OW 4299  10.239   6.036  10.575
  801SOL    HW1 4300  10.323   6.056  10.615
  801SOL    HW2 4301  10.174   6.068  10.638
  802SOL     OW 4302   3.188   0.276   6.392
  802SOL    HW1 4303   3.224   0.244   6.309
  802SOL    HW2 4304   3.108   0.323   6.365
  803SOL     OW 4305   8.739   0.593  11.301
  803SOL    HW1 4306   8.646   0.568  11.307
  803SOL    HW2 4307   8.761   0.580  11.209
  804SOL     OW 4308  11.078   0.407  13.382
  804SOL    HW1 4309  11.055   0.418  13.475
  804SOL    HW2 4310  11.009   0.454  13.335
  805SOL     OW 4311  14.579  11.024  13.017
  805SOL    HW1 4312  14.529  11.096  12.979
  805SOL    HW2 4313  14.668  11.035  12.984
  806SOL     OW 4314  12.976  12.938  14.816
  806SOL    HW1 4315  12.900  12.956   0.000
  806SOL    HW2 4316  13.029  12.878  14.868
  807SOL     OW 4317  13.720   6.083   8.697
  807SOL    HW1 4318  13.627   6.066   8.687
  807SOL    HW2 4319  13.724   6.168   8.741
  808SOL     OW 4320   6.805  13.436  11.130
  808SOL    HW1 4321   6.853  13.518  11.119
  808SOL    HW2 4322   6.756  13.448  11.212
  809SOL     OW 4323   2.571   6.443   4.674
  809SOL    HW1 4324   2.555   6.351   4.650
  809SOL    HW2 4325   2.664   6.457   4.658
  810SOL     OW 4326   8.276   7.516  14.004
  810SOL    HW1 4327   8.222   7.591  14.031
  810SOL    HW2 4328   8.252   7.447  14.066
  811SOL     OW 4329   9.223  14.855  11.163
  811SOL    HW1 4330   9.256  14.805  11.088
  811SOL    HW2 4331   9.143  14.809  11.190
  812SOL     OW 4332   0.549   0.813  10.768
  812SOL    HW1 4333   0.620   0.843  10.711
  812SOL    HW2 4334   0.535   0.886  10.829
  813SOL     OW 4335   6.265   8.939  11.183
  813SOL    HW1 4336   6.204   9.005  11.217
  813SOL    HW2 4337   6.351   8.968  11.213
  814SOL     OW 4338   9.006   8.905  11.388
  814SOL    HW1 4339   8.941   8.968  11.356
  814SOL    HW2 4340   8.967   8.869  11.467
  815SOL     OW 4341  10.341   5.452   1.595
  815SOL    HW1 4342  10.248   5.438   1.611
  815SOL    HW2 4343  10.350   5.546   1.580
  816SOL     OW 4344   9.898   1.750  14.206
  816SOL    HW1 4345   9.976   1.806  14.211
  816SOL    HW2 4346   9.934   1.662  14.194
  817SOL     OW 4347   8.296  12.539   7.149
  817SOL    HW1 4348   8.340  12.615   7.189
  817SOL    HW2 4349   8.217  12.528   7.201
  818SOL     OW 4350   7.661   7.221   6.579
  818SOL    HW1 4351   7.678   7.294   6.519
  818SOL    HW2 4352   7.670   7.143   6.525
  819SOL     OW 4353  12.498   9.788  13.866
  819SOL    HW1 4354  12.427   9.850  13.853
  819SOL    HW2 4355  12.493   9.765  13.959
  820SOL     OW 4356   8.523   1.085  11.781
  820SOL    HW1 4357   8.504   1.034  11.860
  820SOL    HW2 4358   8.547   1.172  11.813
  821SOL     OW 4359   0.712  14.392   0.103
  821SOL    HW1 4360   0.725  14.451   0.029
  821SOL    HW2 4361   0.620  14.367   0.097
  822SOL     OW 4362  12.161   1.386   7.103
  822SOL    HW1 4363  12.201   1.462   7.147
  822SOL    HW2 4364  12.136   1.328   7.174
  823SOL     OW 4365   5.499   2.697   8.740
  823SOL    HW1 4366   5.404   2.714   8.743
  823SOL    HW2 4367   5.535   2.772   8.692
  824SOL     OW 4368   3.288   7.104  10.346
  824SOL    HW1 4369   3.282   7.161  10.270
  824SOL    HW2 4370   3.379   7.075  10.348
  825SOL     OW 4371   2.226   9.572   2.970
  825SOL    HW1 4372   2.192   9.629   2.902
  825SOL    HW2 4373   2.252   9.492   2.923
  826SOL     OW 4374   5.604  14.456   6.437
  826SOL    HW1 4375   5.625  14.481   6.347
  826SOL    HW2 4376   5.634  14.366   6.445
  827SOL     OW 4377   5.865   1.422  11.452
  827SOL    HW1 4378   5.878   1.397  11.361
  827SOL    HW2 4379   5.884   1.342  11.502
  828SOL     OW 4380  12.902   5.137  11.857
  828SOL    HW1 4381  12.916   5.230  11.870
  828SOL    HW2 4382  12.807   5.129  11.845
  829SOL     OW 4383   0.982  10.262   8.916
  829SOL    HW1 4384   1.021  10.266   8.829
  829SOL    HW2 4385   1.029  10.191   8.960
  830SOL     OW 4386  11.672   9.595  14.515
  830SOL    HW1 4387  11.747   9.655  14.510
  830SOL    HW2 4388  11.690   9.541  14.592
  831SOL     OW 4389  10.003  12.003   7.373
  831SOL    HW1 4390  10.015  11.908   7.381
  831SOL    HW2 4391   9.914  12.012   7.338
  832SOL     OW 4392   6.260  13.572   8.422
  832SOL    HW1 4393   6.288  13.591   8.333
  832SOL    HW2 4394   6.207  13.648   8.447
  833SOL     OW 4395   1.948   1.565   0.835
  833SOL    HW1 4396   1.921   1.589   0.747
  833SOL    HW2 4397   1.974   1.648   0.876
  834SOL     OW 4398   1.525   6.952   7.961
  834SOL    HW1 4399   1.543   6.986   7.874
  834SOL    HW2 4400   1.610   6.955   8.006
  835SOL     OW 4401   8.999  11.163  11.569
  835SOL    HW1 4402   9.090  11.170  11.597
  835SOL    HW2 4403   8.978  11.248  11.531
  836SOL     OW 4404   5.938   1.922   1.041
  836SOL    HW1 4405   5.886   1.988   0.995
  836SOL    HW2 4406   6.013   1.906   0.983
  837SOL     OW 4407  12.885   5.774   2.114
  837SOL    HW1 4408  12.791   5.776   2.133
  837SOL    HW2 4409  12.899   5.847   2.054
  838SOL     OW 4410   9.341   1.057   8.175
  838SOL    HW1 4411   9.347   1.037   8.268
  838SOL    HW2 4412   9.274   1.125   8.169
  839SOL     OW 4413   5.140  11.181   4.340
  839SOL    HW1 4414   5.102  11.243   4.402
  839SOL    HW2 4415   5.157  11.232   4.261
  840SOL     OW 4416  12.077   0.484  12.829
  840SOL    HW1 4417  11.986   0.457  12.834
  840SOL    HW2 4418  12.127   0.402  12.826
  841SOL     OW 4419   0.188   3.254  13.859
  841SOL    HW1 4420   0.234   3.206  13.789
  841SOL    HW2 4421   0.097   3.256  13.830
  842SOL     OW 4422   6.773  10.571   1.741
  842SOL    HW1 4423   6.786  10.537   1.830
  842SOL    HW2 4424   6.859  10.564   1.700
  843SOL     OW 4425   9.974  13.481   6.706
  843SOL    HW1 4426  10.043  13.434   6.753
  843SOL    HW2 4427  10.013  13.566   6.686
  844SOL     OW 4428   7.709   7.336  12.059
  844SOL    HW1 4429   7.776   7.393  12.020
  844SOL    HW2 4430   7.737   7.324  12.149
  845SOL     OW 4431   4.472   3.367   2.224
  845SOL    HW1 4432   4.564   3.343   2.213
  845SOL    HW2 4433   4.438   3.375   2.135
  846SOL     OW 4434   0.015  11.839  11.466
  846SOL    HW1 4435   0.099  11.813  11.428
  846SOL    HW2 4436   0.031  11.840  11.561
  847SOL     OW 4437   8.086   5.411   7.910
  847SOL    HW1 4438   8.053   5.400   7.999
  847SOL    HW2 4439   8.013   5.383   7.854
  848SOL     OW 4440   6.275   1.818   5.152
  848SOL    HW1 4441   6.227   1.758   5.209
  848SOL    HW2 4442   6.285   1.769   5.070
  849SOL     OW 4443   1.724  12.641   2.009
  849SOL    HW1 4444   1.792  12.582   2.041
  849SOL    HW2 4445   1.642  12.602   2.038
  850SOL     OW 4446   5.464  10.065   2.722
  850SOL    HW1 4447   5.533  10.011   2.762
  850SOL    HW2 4448   5.494  10.079   2.632
  851SOL     OW 4449   0.196   8.108  14.709
  851SOL    HW1 4450   0.157   8.038  14.657
  851SOL    HW2 4451   0.129   8.130  14.774
  852SOL     OW 4452   6.362  14.361   0.349
  852SOL    HW1 4453   6.397  14.339   0.263
  852SOL    HW2 4454   6.322  14.447   0.336
  853SOL     OW 4455  11.542   8.224   0.437
  853SOL    HW1 4456  11.592   8.279   0.377
  853SOL    HW2 4457  11.491   8.166   0.381
  854SOL     OW 4458   5.930  12.054   2.325
  854SOL    HW1 4459   5.959  12.007   2.246
  854SOL    HW2 4460   6.005  12.106   2.351
  855SOL     OW 4461  14.126   9.881  12.862
  855SOL    HW1 4462  14.183   9.823  12.912
  855SOL    HW2 4463  14.139   9.967  12.902
  856SOL     OW 4464  13.168  12.581  11.554
  856SOL    HW1 4465  13.093  12.640  11.556
  856SOL    HW2 4466  13.166  12.536  11.638
  857SOL     OW 4467   4.329  10.766   5.203
  857SOL    HW1 4468   4.252  10.778   5.258
  857SOL    HW2 4469   4.326  10.673   5.178
  858SOL     OW 4470   7.180  10.668   3.088
  858SOL    HW1 4471   7.109  10.603   3.092
  858SOL    HW2 4472   7.260  10.615   3.091
  859SOL     OW 4473   1.388   2.530  11.465
  859SOL    HW1 4474   1.346   2.516  11.381
  859SOL    HW2 4475   1.373   2.449  11.513
  860SOL     OW 4476   9.694   5.800   2.005
  860SOL    HW1 4477   9.761   5.850   1.957
  860SOL    HW2 4478   9.627   5.865   2.026
  861SOL     OW 4479   1.111   3.843  13.909
  861SOL    HW1 4480   1.093   3.873  13.819
  861SOL    HW2 4481   1.206   3.840  13.915
  862SOL     OW 4482  10.003   5.394  10.068
  862SOL    HW1 4483  10.045   5.388  10.154
  862SOL    HW2 4484  10.018   5.308  10.028
  863SOL     OW 4485   6.077  11.461   8.850
  863SOL    HW1 4486   6.085  11.436   8.758
  863SOL    HW2 4487   6.014  11.533   8.850
  864SOL     OW 4488   8.965   4.744   2.170
  864SOL    HW1 4489   9.021   4.738   2.247
  864SOL    HW2 4490   8.923   4.829   2.177
  865SOL     OW 4491   8.164   4.518   1.207
  865SOL    HW1 4492   8.219   4.447   1.173
  865SOL    HW2 4493   8.093   4.473   1.254
  866SOL     OW 4494   2.503   2.681   9.282
  866SOL    HW1 4495   2.547   2.702   9.364
  866SOL    HW2 4496   2.554   2.609   9.245
  867SOL     OW 4497  10.231   8.450  12.670
  867SOL    HW1 4498  10.187   8.498  12.740
  867SOL    HW2 4499  10.263   8.370  12.713
  868SOL     OW 4500   1.554   2.483   3.165
  868SOL    HW1 4501   1.561   2.518   3.076
  868SOL    HW2 4502   1.611   2.539   3.217
  869SOL     OW 4503  13.057   0.426  13.463
  869SOL    HW1 4504  13.001   0.350  13.446
  869SOL    HW2 4505  13.010   0.477  13.528
  870SOL     OW 4506   5.203   4.593   4.483
  870SOL    HW1 4507   5.200   4.502   4.455
  870SOL    HW2 4508   5.233   4.589   4.574
  871SOL     OW 4509   3.685   9.584  13.587
  871SOL    HW1 4510   3.709   9.492  13.587
  871SOL    HW2 4511   3.726   9.620  13.665
  872SOL     OW 4512   4.527   7.535   2.038
  872SOL    HW1 4513   4.605   7.487   2.067
  872SOL    HW2 4514   4.504   7.591   2.112
  873SOL     OW 4515   6.527   7.565   0.969
  873SOL    HW1 4516   6.610   7.600   1.001
  873SOL    HW2 4517   6.494   7.632   0.909
  874SOL     OW 4518   4.959  10.597   1.922
  874SOL    HW1 4519   4.945  10.648   2.001
  874SOL    HW2 4520   5.025  10.646   1.872
  875SOL     OW 4521   1.279  10.246   0.213
  875SOL    HW1 4522   1.259  10.339   0.220
  875SOL    HW2 4523   1.332  10.227   0.291
  876SOL     OW 4524   2.719   9.448  13.176
  876SOL    HW1 4525   2.794   9.494  13.213
  876SOL    HW2 4526   2.672   9.414  13.251
  877SOL     OW 4527  14.331  12.701   3.759
  877SOL    HW1 4528  14.238  12.704   3.738
  877SOL    HW2 4529  14.345  12.613   3.796
  878SOL     OW 4530   7.370  13.765   8.736
  878SOL    HW1 4531   7.310  13.710   8.786
  878SOL    HW2 4532   7.344  13.855   8.756
  879SOL     OW 4533   2.109  10.616  12.131
  879SOL    HW1 4534   2.178  10.607  12.065
  879SOL    HW2 4535   2.032  10.577  12.091
  880SOL     OW 4536  12.953   4.684   6.933
  880SOL    HW1 4537  13.022   4.736   6.891
  880SOL    HW2 4538  12.996   4.643   7.008
  881SOL     OW 4539  14.075   6.204   1.192
  881SOL    HW1 4540  14.088   6.161   1.107
  881SOL    HW2 4541  14.012   6.149   1.238
  882SOL     OW 4542  11.992   7.977   9.296
  882SOL    HW1 4543  11.970   8.063   9.332
  882SOL    HW2 4544  11.911   7.948   9.253
  883SOL     OW 4545   0.419  10.777   1.728
  883SOL    HW1 4546   0.421  10.763   1.633
  883SOL    HW2 4547   0.326  10.770   1.751
  884SOL     OW 4548  11.774   6.175  13.761
  884SOL    HW1 4549  11.860   6.194  13.800
  884SOL    HW2 4550  11.712   6.222  13.817
  885SOL     OW 4551  11.552  13.171   2.460
  885SOL    HW1 4552  11.559  13.091   2.512
  885SOL    HW2 4553  11.545  13.241   2.525
  886SOL     OW 4554   3.627   6.462   5.177
  886SOL    HW1 4555   3.722   6.467   5.192
  886SOL    HW2 4556   3.602   6.377   5.213
  887SOL     OW 4557   1.631   2.189  13.213
  887SOL    HW1 4558   1.707   2.238  13.245
  887SOL    HW2 4559   1.599   2.239  13.138
  888SOL     OW 4560  12.483   8.429   9.421
  888SOL    HW1 4561  12.565   8.411   9.375
  888SOL    HW2 4562  12.485   8.372   9.498
  889SOL     OW 4563   3.804   8.122   7.361
  889SOL    HW1 4564   3.806   8.035   7.321
  889SOL    HW2 4565   3.726   8.122   7.416
  890SOL     OW 4566  13.134   8.834   9.764
  890SOL    HW1 4567  13.220   8.796   9.747
  890SOL    HW2 4568  13.072   8.763   9.744
  891SOL     OW 4569   3.678  10.015   1.711
  891SOL    HW1 4570   3.625  10.032   1.789
  891SOL    HW2 4571   3.751  10.076   1.718
  892SOL     OW 4572   9.605   0.254   2.710
  892SOL    HW1 4573   9.526   0.300   2.738
  892SOL    HW2 4574   9.677   0.300   2.755
  893SOL     OW 4575  10.498   2.214  14.002
  893SOL    HW1 4576  10.486   2.284  13.938
  893SOL    HW2 4577  10.446   2.242  14.078
  894SOL     OW 4578   4.288  14.355   0.718
  894SOL    HW1 4579   4.347  14.352   0.642
  894SOL    HW2 4580   4.337  14.402   0.785
  895SOL     OW 4581   9.168  11.467   4.978
  895SOL    HW1 4582   9.232  11.531   5.009
  895SOL    HW2 4583   9.216  11.414   4.914
  896SOL     OW 4584  12.534   0.934  10.372
  896SOL    HW1 4585  12.480   1.001  10.330
  896SOL    HW2 4586  12.480   0.903  10.445
  897SOL     OW 4587   6.763  11.178   2.391
  897SOL    HW1 4588   6.753  11.143   2.480
  897SOL    HW2 4589   6.697  11.247   2.385
  898SOL     OW 4590  12.475  13.625  10.538
  898SOL    HW1 4591  12.400  13.594  10.589
  898SOL    HW2 4592  12.469  13.579  10.455
  899SOL     OW 4593  10.920   0.312   3.970
  899SOL    HW1 4594  10.911   0.217   3.964
  899SOL    HW2 4595  10.891   0.334   4.059
  900SOL     OW 4596  13.047   8.167   2.811
  900SOL    HW1 4597  13.088   8.237   2.760
  900SOL    HW2 4598  13.084   8.086   2.774
  901SOL     OW 4599   6.110  10.866  13.035
  901SOL    HW1 4600   6.150  10.889  13.118
  901SOL    HW2 4601   6.055  10.790  13.054
  902SOL     OW 4602   7.656   3.573   9.995
  902SOL    HW1 4603   7.640   3.662  10.026
  902SOL    HW2 4604   7.740   3.548  10.034
  903SOL     OW 4605   7.493  13.139  11.649
  903SOL    HW1 4606   7.420  13.199  11.638
  903SOL    HW2 4607   7.485  13.108  11.739
  904SOL     OW 4608   6.645  12.654   2.494
  904SOL    HW1 4609   6.593  12.576   2.516
  904SOL    HW2 4610   6.735  12.629   2.512
  905SOL     OW 4611   9.297  10.112   0.443
  905SOL    HW1 4612   9.368  10.067   0.398
  905SOL    HW2 4613   9.279  10.189   0.390
  906SOL     OW 4614  10.770  12.183   1.503
  906SOL    HW1 4615  10.730  12.120   1.563
  906SOL    HW2 4616  10.806  12.251   1.560
  907SOL     OW 4617   0.074   7.146  13.406
  907SOL    HW1 4618   0.126   7.120  13.330
  907SOL    HW2 4619   0.133   7.136  13.480
  908SOL     OW 4620   8.395   3.085   5.311
  908SOL    HW1 4621   8.381   3.022   5.241
  908SOL    HW2 4622   8.320   3.073   5.370
  909SOL     OW 4623   5.209  14.050   9.058
  909SOL    HW1 4624   5.132  14.051   9.115
  909SOL    HW2 4625   5.217  13.959   9.030
  910SOL     OW 4626   4.116   1.878   9.786
  910SOL    HW1 4627   4.123   1.947   9.852
  910SOL    HW2 4628   4.079   1.803   9.833
  911SOL     OW 4629   2.218  13.972   3.665
  911SOL    HW1 4630   2.296  13.920   3.683
  911SOL    HW2 4631   2.145  13.918   3.694
  912SOL     OW 4632   5.477  14.465   5.706
  912SOL    HW1 4633   5.549  14.528   5.703
  912SOL    HW2 4634   5.431  14.477   5.623
  913SOL     OW 4635   5.231   1.600   3.084
  913SOL    HW1 4636   5.236   1.562   3.172
  913SOL    HW2 4637   5.290   1.676   3.087
  914SOL     OW 4638   3.628  12.270   6.508
  914SOL    HW1 4639   3.567  12.229   6.570
  914SOL    HW2 4640   3.681  12.198   6.475
  915SOL     OW 4641  12.261   1.951   0.410
  915SOL    HW1 4642  12.244   1.873   0.464
  915SOL    HW2 4643  12.356   1.948   0.395
  916SOL     OW 4644   2.050   9.777  10.804
  916SOL    HW1 4645   2.063   9.870  10.824
  916SOL    HW2 4646   2.113   9.732  10.859
  917SOL     OW 4647   1.040   3.007   0.787
  917SOL    HW1 4648   1.054   3.101   0.789
  917SOL    HW2 4649   0.959   2.996   0.736
  918SOL     OW 4650   1.737   3.688  11.691
  918SOL    HW1 4651   1.779   3.698  11.606
  918SOL    HW2 4652   1.729   3.594  11.704
  919SOL     OW 4653  12.778   1.499   3.073
  919SOL    HW1 4654  12.844   1.451   3.123
  919SOL    HW2 4655  12.828   1.555   3.014
  920SOL     OW 4656   0.412   0.478   7.988
  920SOL    HW1 4657   0.395   0.554   7.932
  920SOL    HW2 4658   0.425   0.515   8.075
  921SOL     OW 4659  14.789   5.788   3.985
  921SOL    HW1 4660  14.800   5.878   4.015
  921SOL    HW2 4661   0.008   5.756   3.970
  922SOL     OW 4662  12.750   4.807   5.785
  922SOL    HW1 4663  12.688   4.818   5.857
  922SOL    HW2 4664  12.790   4.722   5.801
  923SOL     OW 4665   5.994   3.933  10.958
  923SOL    HW1 4666   6.043   3.969  11.031
  923SOL    HW2 4667   5.903   3.932  10.988
  924SOL     OW 4668   5.122   1.687  11.502
  924SOL    HW1 4669   5.179   1.750  11.456
  924SOL    HW2 4670   5.180   1.615  11.525
  925SOL     OW 4671  14.097  14.068   2.821
  925SOL    HW1 4672  14.056  14.080   2.906
  925SOL    HW2 4673  14.026  14.076   2.758
  926SOL     OW 4674   2.586   3.893   3.152
  926SOL    HW1 4675   2.608   3.986   3.150
  926SOL    HW2 4676   2.653   3.852   3.097
  927SOL     OW 4677   5.295   1.756  10.985
  927SOL    HW1 4678   5.294   1.852  10.997
  927SOL    HW2 4679   5.357   1.741  10.915
  928SOL     OW 4680   6.420  12.003   1.081
  928SOL    HW1 4681   6.359  12.076   1.088
  928SOL    HW2 4682   6.439  11.996   0.987
  929SOL     OW 4683  10.024   2.974  11.730
  929SOL    HW1 4684   9.955   3.025  11.687
  929SOL    HW2 4685   9.992   2.961  11.820
  930SOL     OW 4686  10.170  10.218  10.332
  930SOL    HW1 4687  10.107  10.235  10.402
  930SOL    HW2 4688  10.156  10.126  10.309
  931SOL     OW 4689  10.071  12.006  11.480
  931SOL    HW1 4690  10.038  11.917  11.467
  931SOL    HW2 4691  10.139  11.996  11.547
  932SOL     OW 4692   6.771   2.527   7.112
  932SOL    HW1 4693   6.713   2.584   7.061
  932SOL    HW2 4694   6.837   2.587   7.147
  933SOL     OW 4695   5.103   9.207   1.136
  933SOL    HW1 4696   5.159   9.227   1.211
  933SOL    HW2 4697   5.110   9.284   1.080
  934SOL     OW 4698  13.244   6.753   6.633
  934SOL    HW1 4699  13.232   6.689   6.563
  934SOL    HW2 4700  13.164   6.805   6.632
  935SOL     OW 4701   9.459   9.957   9.250
  935SOL    HW1 4702   9.550   9.937   9.273
  935SOL    HW2 4703   9.442  10.042   9.289
  936SOL     OW 4704   6.914   3.081   2.795
  936SOL    HW1 4705   6.952   3.104   2.880
  936SOL    HW2 4706   6.985   3.038   2.748
  937SOL     OW 4707  10.472  12.647   5.356
  937SOL    HW1 4708  10.512  12.726   5.392
  937SOL    HW2 4709  10.502  12.644   5.266
  938SOL     OW 4710  13.459   2.797   4.415
  938SOL    HW1 4711  13.524   2.753   4.470
  938SOL    HW2 4712  13.509   2.828   4.340
  939SOL     OW 4713   7.976  12.752   9.565
  939SOL    HW1 4714   8.022  12.834   9.582
  939SOL    HW2 4715   7.886  12.768   9.593
  940SOL     OW 4716   9.045   0.608   9.872
  940SOL    HW1 4717   8.961   0.613   9.918
  940SOL    HW2 4718   9.109   0.593   9.941
  941SOL     OW 4719   8.885   1.702   6.218
  941SOL    HW1 4720   8.970   1.696   6.175
  941SOL    HW2 4721   8.901   1.672   6.307
  942SOL     OW 4722   7.991  11.135  13.244
  942SOL    HW1 4723   8.012  11.059  13.300
  942SOL    HW2 4724   7.926  11.102  13.183
  943SOL     OW 4725  14.719  14.849   6.769
  943SOL    HW1 4726  14.636  14.850   6.816
  943SOL    HW2 4727  14.721   0.063   6.723
  944SOL     OW 4728   1.708   1.985   5.205
  944SOL    HW1 4729   1.777   2.050   5.221
  944SOL    HW2 4730   1.640   2.006   5.269
  945SOL     OW 4731   7.882   5.509   6.412
  945SOL    HW1 4732   7.942   5.451   6.459
  945SOL    HW2 4733   7.872   5.585   6.470
  946SOL     OW 4734   5.496  10.962   0.381
  946SOL    HW1 4735   5.586  10.941   0.359
  946SOL    HW2 4736   5.451  10.969   0.296
  947SOL     OW 4737  11.649  12.132   6.686
  947SOL    HW1 4738  11.618  12.043   6.702
  947SOL    HW2 4739  11.581  12.172   6.632
  948SOL     OW 4740   8.002  14.443  11.232
  948SOL    HW1 4741   8.045  14.474  11.312
  948SOL    HW2 4742   8.065  14.460  11.163
  949SOL     OW 4743  13.294   6.462  10.549
  949SOL    HW1 4744  13.199   6.446  10.547
  949SOL    HW2 4745  13.301   6.558  10.541
  950SOL     OW 4746   4.422   6.455   9.520
  950SOL    HW1 4747   4.471   6.404   9.584
  950SOL    HW2 4748   4.489   6.498   9.467
  951SOL     OW 4749  10.572  10.705   9.431
  951SOL    HW1 4750  10.482  10.691   9.458
  951SOL    HW2 4751  10.616  10.622   9.446
  952SOL     OW 4752   9.222   2.711   7.223
  952SOL    HW1 4753   9.242   2.627   7.183
  952SOL    HW2 4754   9.177   2.689   7.305
  953SOL     OW 4755  10.860   2.614   6.828
  953SOL    HW1 4756  10.894   2.700   6.854
  953SOL    HW2 4757  10.781   2.634   6.777
  954SOL     OW 4758  11.401  11.455   4.602
  954SOL    HW1 4759  11.353  11.480   4.680
  954SOL    HW2 4760  11.370  11.367   4.582
  955SOL     OW 4761  10.592  13.475   8.193
  955SOL    HW1 4762  10.497  13.461   8.190
  955SOL    HW2 4763  10.625  13.398   8.240
  956SOL     OW 4764  11.722   7.623  13.973
  956SOL    HW1 4765  11.769   7.558  13.922
  956SOL    HW2 4766  11.784   7.650  14.041
  957SOL     OW 4767   2.340   2.852   0.970
  957SOL    HW1 4768   2.405   2.911   0.932
  957SOL    HW2 4769   2.371   2.765   0.946
  958SOL     OW 4770  13.471  13.515  12.400
  958SOL    HW1 4771  13.536  13.542  12.335
  958SOL    HW2 4772  13.388  13.548  12.366
  959SOL     OW 4773   2.337  11.445  14.293
  959SOL    HW1 4774   2.360  11.377  14.356
  959SOL    HW2 4775   2.359  11.527  14.338
  960SOL     OW 4776   2.003   4.484   5.245
  960SOL    HW1 4777   2.081   4.526   5.208
  960SOL    HW2 4778   2.038   4.418   5.305
  961SOL     OW 4779  11.054   5.350   3.490
  961SOL    HW1 4780  11.015   5.416   3.433
  961SOL    HW2 4781  11.122   5.310   3.435
  962SOL     OW 4782   1.495   1.557  11.161
  962SOL    HW1 4783   1.452   1.471  11.165
  962SOL    HW2 4784   1.445   1.605  11.095
  963SOL     OW 4785  12.557   8.385   8.130
  963SOL    HW1 4786  12.644   8.349   8.148
  963SOL    HW2 4787  12.496   8.324   8.173
  964SOL     OW 4788  14.138   0.375  12.423
  964SOL    HW1 4789  14.226   0.354  12.456
  964SOL    HW2 4790  14.099   0.429  12.492
  965SOL     OW 4791   5.806   0.601   5.484
  965SOL    HW1 4792   5.789   0.520   5.436
  965SOL    HW2 4793   5.756   0.592   5.565
  966SOL     OW 4794  10.337   6.628  10.074
  966SOL    HW1 4795  10.269   6.691  10.099
  966SOL    HW2 4796  10.419   6.676  10.082
  967SOL     OW 4797   1.268   6.694   7.219
  967SOL    HW1 4798   1.346   6.727   7.176
  967SOL    HW2 4799   1.211   6.665   7.147
  968SOL     OW 4800  13.744   9.709   6.948
  968SOL    HW1 4801  13.734   9.803   6.962
  968SOL    HW2 4802  13.769   9.701   6.855
  969SOL     OW 4803   2.804  14.079   7.345
  969SOL    HW1 4804   2.898  14.097   7.345
  969SOL    HW2 4805   2.782  14.067   7.252
  970SOL     OW 4806  12.437   8.276   3.174
  970SOL    HW1 4807  12.426   8.244   3.264
  970SOL    HW2 4808  12.363   8.335   3.161
  971SOL     OW 4809   4.089   0.339  11.197
  971SOL    HW1 4810   4.169   0.389  11.182
  971SOL    HW2 4811   4.018   0.397  11.167
  972SOL     OW 4812   4.575   2.363   8.602
  972SOL    HW1 4813   4.559   2.456   8.617
  972SOL    HW2 4814   4.633   2.359   8.526
  973SOL     OW 4815   6.338   2.902  12.644
  973SOL    HW1 4816   6.382   2.898  12.729
  973SOL    HW2 4817   6.255   2.857  12.658
  974SOL     OW 4818  13.348  10.079  12.421
  974SOL    HW1 4819  13.393  10.162  12.438
  974SOL    HW2 4820  13.409  10.012  12.454
  975SOL     OW 4821   8.440   2.698   0.210
  975SOL    HW1 4822   8.453   2.675   0.118
  975SOL    HW2 4823   8.386   2.626   0.245
  976SOL     OW 4824   9.187   3.327  12.780
  976SOL    HW1 4825   9.184   3.409  12.729
  976SOL    HW2 4826   9.278   3.319  12.808
  977SOL     OW 4827  11.103   9.552   2.322
  977SOL    HW1 4828  11.064   9.636   2.297
  977SOL    HW2 4829  11.086   9.544   2.416
  978SOL     OW 4830   4.144   5.121   2.287
  978SOL    HW1 4831   4.055   5.114   2.251
  978SOL    HW2 4832   4.137   5.188   2.355
  979SOL     OW 4833  12.843   3.240  14.266
  979SOL    HW1 4834  12.765   3.188  14.283
  979SOL    HW2 4835  12.843   3.308  14.334
  980SOL     OW 4836   9.277   2.179  12.753
  980SOL    HW1 4837   9.211   2.247  12.745
  980SOL    HW2 4838   9.334   2.192  12.677
  981SOL     OW 4839   4.731   6.872  13.439
  981SOL    HW1 4840   4.751   6.935  13.370
  981SOL    HW2 4841   4.813   6.864  13.488
  982SOL     OW 4842  12.851  13.274   6.988
  982SOL    HW1 4843  12.891  13.271   6.901
  982SOL    HW2 4844  12.923  13.257   7.048
  983SOL     OW 4845  12.303   9.377   2.506
  983SOL    HW1 4846  12.342   9.455   2.545
  983SOL    HW2 4847  12.286   9.402   2.415
  984SOL     OW 4848   4.758  10.948   4.937
  984SOL    HW1 4849   4.695  10.924   5.005
  984SOL    HW2 4850   4.825  10.998   4.982
  985SOL     OW 4851  12.282   3.565   7.928
  985SOL    HW1 4852  12.281   3.645   7.981
  985SOL    HW2 4853  12.374   3.537   7.929
  986SOL     OW 4854   6.685  11.934   0.821
  986SOL    HW1 4855   6.619  11.865   0.824
  986SOL    HW2 4856   6.641  12.008   0.781
  987SOL     OW 4857   1.123   0.271   7.428
  987SOL    HW1 4858   1.150   0.362   7.432
  987SOL    HW2 4859   1.058   0.261   7.498
  988SOL     OW 4860   5.704   3.400  10.285
  988SOL    HW1 4861   5.715   3.334  10.217
  988SOL    HW2 4862   5.728   3.482  10.242
  989SOL     OW 4863   6.278   3.280   7.807
  989SOL    HW1 4864   6.282   3.344   7.878
  989SOL    HW2 4865   6.233   3.204   7.845
  990SOL     OW 4866   5.072   2.141   8.453
  990SOL    HW1 4867   5.052   2.048   8.443
  990SOL    HW2 4868   5.039   2.164   8.539
  991SOL     OW 4869  11.357  11.229   6.055
  991SOL    HW1 4870  11.419  11.301   6.066
  991SOL    HW2 4871  11.272  11.271   6.045
  992SOL     OW 4872  11.087  12.437  14.795
  992SOL    HW1 4873  10.999  12.410  14.769
  992SOL    HW2 4874  11.085  12.533  14.787
  993SOL     OW 4875   5.075  10.462  11.437
  993SOL    HW1 4876   5.142  10.422  11.382
  993SOL    HW2 4877   5.090  10.425  11.524
  994SOL     OW 4878   7.549   2.676  10.625
  994SOL    HW1 4879   7.636   2.712  10.645
  994SOL    HW2 4880   7.530   2.620  10.700
  995SOL     OW 4881   9.586  14.000   8.199
  995SOL    HW1 4882   9.672  13.960   8.187
  995SOL    HW2 4883   9.604  14.079   8.250
  996SOL     OW 4884   5.598   8.293   6.046
  996SOL    HW1 4885   5.657   8.233   6.090
  996SOL    HW2 4886   5.511   8.268   6.077
  997SOL     OW 4887  14.605   2.449  12.517
  997SOL    HW1 4888  14.672   2.387  12.486
  997SOL    HW2 4889  14.652   2.505  12.579
  998SOL     OW 4890  12.622  13.610  14.843
  998SOL    HW1 4891  12.545  13.639  14.794
  998SOL    HW2 4892  12.594  13.528   0.014
  999SOL     OW 4893  10.533  11.236  12.517
  999SOL    HW1 4894  10.446  11.197  12.517
  999SOL    HW2 4895  10.565  11.224  12.606
 1000SOL     OW 4896  11.872   9.719   1.262
 1000SOL    HW1 4897  11.797   9.778   1.261
 1000SOL    HW2 4898  11.834   9.631   1.257
 1001SOL     OW 4899  12.920  13.531  12.052
 1001SOL    HW1 4900  12.965  13.596  11.997
 1001SOL    HW2 4901  12.891  13.581  12.128
 1002SOL     OW 4902   1.457   2.326   3.419
 1002SOL    HW1 4903   1.412   2.381   3.481
 1002SOL    HW2 4904   1.488   2.386   3.351
 1003SOL     OW 4905   6.264   6.447   7.507
 1003SOL    HW1 4906   6.276   6.492   7.590
 1003SOL    HW2 4907   6.169   6.448   7.492
 1004SOL     OW 4908   1.534   1.123  10.493
 1004SOL    HW1 4909   1.569   1.210  10.510
 1004SOL    HW2 4910   1.611   1.069  10.474
 1005SOL     OW 4911   4.058   1.457   2.969
 1005SOL    HW1 4912   4.147   1.423   2.960
 1005SOL    HW2 4913   4.039   1.449   3.063
 1006SOL     OW 4914   7.377  12.228   1.775
 1006SOL    HW1 4915   7.357  12.318   1.802
 1006SOL    HW2 4916   7.424  12.238   1.693
 1007SOL     OW 4917  14.763   5.936   1.993
 1007SOL    HW1 4918  14.814   5.855   1.988
 1007SOL    HW2 4919  14.695   5.926   1.927
 1008SOL     OW 4920  12.774  12.547   4.084
 1008SOL    HW1 4921  12.690  12.504   4.069
 1008SOL    HW2 4922  12.823  12.534   4.003
 1009SOL     OW 4923   2.130  10.604  14.834
 1009SOL    HW1 4924   2.086  10.586  14.751
 1009SOL    HW2 4925   2.200  10.539  14.838
 1010SOL     OW 4926   4.144   5.080  10.682
 1010SOL    HW1 4927   4.142   5.117  10.770
 1010SOL    HW2 4928   4.125   4.987  10.695
 1011SOL     OW 4929   2.885   4.670  13.105
 1011SOL    HW1 4930   2.970   4.655  13.147
 1011SOL    HW2 4931   2.853   4.583  13.083
 1012SOL     OW 4932   9.313   0.396  12.573
 1012SOL    HW1 4933   9.236   0.453  12.570
 1012SOL    HW2 4934   9.339   0.387  12.481
 1013SOL     OW 4935   3.108  13.379   7.235
 1013SOL    HW1 4936   3.155  13.431   7.300
 1013SOL    HW2 4937   3.167  13.376   7.160
 1014SOL     OW 4938  12.696   9.652   3.424
 1014SOL    HW1 4939  12.713   9.710   3.349
 1014SOL    HW2 4940  12.663   9.710   3.492
 1015SOL     OW 4941   0.481   8.630   8.456
 1015SOL    HW1 4942   0.392   8.639   8.420
 1015SOL    HW2 4943   0.479   8.680   8.537
 1016SOL     OW 4944   1.862  12.846   5.445
 1016SOL    HW1 4945   1.802  12.791   5.395
 1016SOL    HW2 4946   1.933  12.865   5.384
 1017SOL     OW 4947   1.194   1.502   1.530
 1017SOL    HW1 4948   1.236   1.469   1.451
 1017SOL    HW2 4949   1.164   1.424   1.576
 1018SOL     OW 4950   4.520  12.412  10.307
 1018SOL    HW1 4951   4.574  12.485  10.339
 1018SOL    HW2 4952   4.433  12.451  10.292
 1019SOL     OW 4953  13.756  13.723  13.294
 1019SOL    HW1 4954  13.840  13.682  13.273
 1019SOL    HW2 4955  13.722  13.752  13.209
 1020SOL     OW 4956   8.993   4.309   2.531
 1020SOL    HW1 4957   9.011   4.399   2.504
 1020SOL    HW2 4958   9.070   4.260   2.504
 1021SOL     OW 4959   3.293  11.827   2.729
 1021SOL    HW1 4960   3.249  11.886   2.668
 1021SOL    HW2 4961   3.308  11.880   2.807
 1022SOL     OW 4962   2.168  11.159   5.724
 1022SOL    HW1 4963   2.181  11.232   5.784
 1022SOL    HW2 4964   2.074  11.155   5.709
 1023SOL     OW 4965   8.720   7.051   2.237
 1023SOL    HW1 4966   8.660   6.978   2.253
 1023SOL    HW2 4967   8.676   7.128   2.273
 1024SOL     OW 4968  13.997   4.586   4.163
 1024SOL    HW1 4969  13.931   4.584   4.233
 1024SOL    HW2 4970  14.080   4.589   4.210
 1025SOL     OW 4971   6.330   6.575   8.425
 1025SOL    HW1 4972   6.344   6.485   8.395
 1025SOL    HW2 4973   6.368   6.577   8.513
 1026SOL     OW 4974   2.742   3.020   5.789
 1026SOL    HW1 4975   2.836   3.037   5.795
 1026SOL    HW2 4976   2.712   3.016   5.880
 1027SOL     OW 4977   3.778  11.990   5.836
 1027SOL    HW1 4978   3.824  12.065   5.798
 1027SOL    HW2 4979   3.847  11.926   5.855
 1028SOL     OW 4980   5.086  12.538   1.522
 1028SOL    HW1 4981   5.055  12.474   1.458
 1028SOL    HW2 4982   5.180  12.545   1.505
 1029SOL     OW 4983   9.293  10.385  10.857
 1029SOL    HW1 4984   9.221  10.344  10.808
 1029SOL    HW2 4985   9.327  10.451  10.797
 1030SOL     OW 4986  13.514   5.814  11.818
 1030SOL    HW1 4987  13.548   5.806  11.907
 1030SOL    HW2 4988  13.465   5.733  11.803
 1031SOL     OW 4989  11.349   1.681   1.958
 1031SOL    HW1 4990  11.376   1.635   1.879
 1031SOL    HW2 4991  11.428   1.683   2.013
 1032SOL     OW 4992   2.183  13.217   4.612
 1032SOL    HW1 4993   2.149  13.303   4.635
 1032SOL    HW2 4994   2.177  13.213   4.517
 1033SOL     OW 4995   3.816   9.956   0.272
 1033SOL    HW1 4996   3.721   9.955   0.272
 1033SOL    HW2 4997   3.840  10.017   0.342
 1034SOL     OW 4998   3.888  10.283   6.306
 1034SOL    HW1 4999   3.836  10.306   6.230
 1034SOL    HW2 5000   3.873  10.355   6.368
 1035SOL     OW 5001  14.483  14.613   8.836
 1035SOL    HW1 5002  14.404  14.659   8.863
 1035SOL    HW2 5003  14.489  14.630   8.742
 1036SOL     OW 5004   0.723   7.827  10.421
 1036SOL    HW1 5005   0.776   7.849  10.498
 1036SOL    HW2 5006   0.758   7.882  10.351
 1037SOL     OW 5007   8.658  14.029   7.791
 1037SOL    HW1 5008   8.565  14.013   7.777
 1037SOL    HW2 5009   8.688  14.071   7.710
 1038SOL     OW 5010   1.135  14.508  12.547
 1038SOL    HW1 5011   1.205  14.529  12.485
 1038SOL    HW2 5012   1.123  14.413  12.538
 1039SOL     OW 5013   9.701  12.079   6.383
 1039SOL    HW1 5014   9.699  11.997   6.433
 1039SOL    HW2 5015   9.732  12.053   6.296
 1040SOL     OW 5016   3.438   7.153   5.932
 1040SOL    HW1 5017   3.402   7.166   5.844
 1040SOL    HW2 5018   3.362   7.140   5.988
 1041SOL     OW 5019   2.126  13.899   9.668
 1041SOL    HW1 5020   2.059  13.840   9.703
 1041SOL    HW2 5021   2.110  13.982   9.712
 1042SOL     OW 5022   0.880   5.009  14.496
 1042SOL    HW1 5023   0.788   5.023  14.471
 1042SOL    HW2 5024   0.916   4.956  14.424
 1043SOL     OW 5025  12.918   6.974   9.288
 1043SOL    HW1 5026  12.940   6.987   9.381
 1043SOL    HW2 5027  12.842   6.917   9.290
 1044SOL     OW 5028   3.704   6.866   1.037
 1044SOL    HW1 5029   3.612   6.841   1.026
 1044SOL    HW2 5030   3.712   6.950   0.992
 1045SOL     OW 5031   9.479   4.289   2.818
 1045SOL    HW1 5032   9.385   4.284   2.835
 1045SOL    HW2 5033   9.499   4.383   2.819
 1046SOL     OW 5034  12.750   6.866   5.504
 1046SOL    HW1 5035  12.749   6.926   5.430
 1046SOL    HW2 5036  12.713   6.785   5.471
 1047SOL     OW 5037  14.676   1.587   6.240
 1047SOL    HW1 5038  14.731   1.595   6.318
 1047SOL    HW2 5039  14.596   1.544   6.270
 1048SOL     OW 5040   8.414   0.513   6.304
 1048SOL    HW1 5041   8.470   0.590   6.317
 1048SOL    HW2 5042   8.459   0.462   6.237
 1049SOL     OW 5043  12.125   3.780   4.761
 1049SOL    HW1 5044  12.130   3.705   4.702
 1049SOL    HW2 5045  12.037   3.815   4.749
 1050SOL     OW 5046   8.131   0.477   2.974
 1050SOL    HW1 5047   8.101   0.466   2.884
 1050SOL    HW2 5048   8.074   0.419   3.025
 1051SOL     OW 5049   3.043   5.401   1.859
 1051SOL    HW1 5050   2.952   5.418   1.884
 1051SOL    HW2 5051   3.074   5.337   1.923
 1052SOL     OW 5052   7.170  10.219   4.612
 1052SOL    HW1 5053   7.186  10.215   4.706
 1052SOL    HW2 5054   7.091  10.272   4.603
 1053SOL     OW 5055   2.206  13.593   3.548
 1053SOL    HW1 5056   2.191  13.530   3.618
 1053SOL    HW2 5057   2.268  13.549   3.489
 1054SOL     OW 5058  14.266  11.365  13.463
 1054SOL    HW1 5059  14.179  11.401  13.478
 1054SOL    HW2 5060  14.264  11.333  13.373
 1055SOL     OW 5061   5.303   2.675   1.346
 1055SOL    HW1 5062   5.317   2.626   1.428
 1055SOL    HW2 5063   5.266   2.610   1.286
 1056SOL     OW 5064   5.111   0.554   5.916
 1056SOL    HW1 5065   5.090   0.514   6.001
 1056SOL    HW2 5066   5.202   0.581   5.924
 1057SOL     OW 5067   6.891   9.109   9.987
 1057SOL    HW1 5068   6.819   9.172   9.991
 1057SOL    HW2 5069   6.855   9.033   9.941
 1058SOL     OW 5070   1.228  13.360  11.741
 1058SOL    HW1 5071   1.223  13.402  11.655
 1058SOL    HW2 5072   1.302  13.299  11.733
 1059SOL     OW 5073  12.782  14.028   5.311
 1059SOL    HW1 5074  12.727  14.067   5.379
 1059SOL    HW2 5075  12.760  14.076   5.231
 1060SOL     OW 5076   1.262  11.343   4.815
 1060SOL    HW1 5077   1.318  11.419   4.798
 1060SOL    HW2 5078   1.211  11.334   4.735
 1061SOL     OW 5079   4.512   4.667  12.801
 1061SOL    HW1 5080   4.589   4.661  12.744
 1061SOL    HW2 5081   4.452   4.726  12.755
 1062SOL     OW 5082   0.642   8.642   0.881
 1062SOL    HW1 5083   0.723   8.659   0.928
 1062SOL    HW2 5084   0.656   8.679   0.794
 1063SOL     OW 5085   2.252   9.477   4.246
 1063SOL    HW1 5086   2.167   9.438   4.265
 1063SOL    HW2 5087   2.303   9.462   4.326
 1064SOL     OW 5088  10.104  13.762   8.951
 1064SOL    HW1 5089  10.025  13.779   9.002
 1064SOL    HW2 5090  10.078  13.780   8.860
 1065SOL     OW 5091   6.167  12.356   5.305
 1065SOL    HW1 5092   6.230  12.428   5.300
 1065SOL    HW2 5093   6.105  12.373   5.235
 1066SOL     OW 5094   4.645  13.571   6.333
 1066SOL    HW1 5095   4.664  13.576   6.427
 1066SOL    HW2 5096   4.557  13.534   6.328
 1067SOL     OW 5097  12.099   9.489   1.857
 1067SOL    HW1 5098  12.115   9.572   1.902
 1067SOL    HW2 5099  12.030   9.446   1.909
 1068SOL     OW 5100   7.757   6.616   8.498
 1068SOL    HW1 5101   7.717   6.689   8.450
 1068SOL    HW2 5102   7.689   6.550   8.503
 1069SOL     OW 5103   8.673   1.842  11.286
 1069SOL    HW1 5104   8.631   1.779  11.227
 1069SOL    HW2 5105   8.609   1.912  11.296
 1070SOL     OW 5106  11.311   7.150   1.284
 1070SOL    HW1 5107  11.230   7.104   1.305
 1070SOL    HW2 5108  11.359   7.091   1.226
 1071SOL     OW 5109   5.969   0.131   4.408
 1071SOL    HW1 5110   6.057   0.133   4.446
 1071SOL    HW2 5111   5.971   0.057   4.347
 1072SOL     OW 5112   5.894   2.373   5.747
 1072SOL    HW1 5113   5.989   2.384   5.743
 1072SOL    HW2 5114   5.873   2.317   5.672
 1073SOL     OW 5115  10.346   2.523   7.578
 1073SOL    HW1 5116  10.416   2.473   7.619
 1073SOL    HW2 5117  10.370   2.614   7.591
 1074SOL     OW 5118   3.373   5.375   1.389
 1074SOL    HW1 5119   3.433   5.305   1.414
 1074SOL    HW2 5120   3.426   5.454   1.392
 1075SOL     OW 5121   8.427   4.588   2.195
 1075SOL    HW1 5122   8.377   4.562   2.118
 1075SOL    HW2 5123   8.497   4.523   2.201
 1076SOL     OW 5124   7.884   5.241   3.689
 1076SOL    HW1 5125   7.955   5.180   3.704
 1076SOL    HW2 5126   7.806   5.187   3.680
 1077SOL     OW 5127   8.826   7.370   8.058
 1077SOL    HW1 5128   8.829   7.426   7.981
 1077SOL    HW2 5129   8.735   7.373   8.087
 1078SOL     OW 5130  13.387  10.113  10.986
 1078SOL    HW1 5131  13.311  10.061  11.012
 1078SOL    HW2 5132  13.426  10.064  10.914
 1079SOL     OW 5133  12.124   5.008   9.295
 1079SOL    HW1 5134  12.165   5.069   9.357
 1079SOL    HW2 5135  12.176   4.928   9.301
 1080SOL     OW 5136   8.412   9.359  12.446
 1080SOL    HW1 5137   8.422   9.265  12.461
 1080SOL    HW2 5138   8.498   9.396  12.465
 1081SOL     OW 5139   4.554   1.805   6.251
 1081SOL    HW1 5140   4.519   1.750   6.181
 1081SOL    HW2 5141   4.641   1.768   6.268
 1082SOL     OW 5142   2.244   3.123   6.357
 1082SOL    HW1 5143   2.180   3.111   6.287
 1082SOL    HW2 5144   2.302   3.047   6.351
 1083SOL     OW 5145  11.346   9.481   8.163
 1083SOL    HW1 5146  11.403   9.546   8.121
 1083SOL    HW2 5147  11.405   9.410   8.188
 1084SOL     OW 5148  11.724  14.115  12.067
 1084SOL    HW1 5149  11.639  14.133  12.108
 1084SOL    HW2 5150  11.788  14.152  12.128
 1085SOL     OW 5151  14.720  12.051  10.843
 1085SOL    HW1 5152  14.694  12.014  10.759
 1085SOL    HW2 5153  14.751  12.139  10.823
 1086SOL     OW 5154  13.505   6.429   5.757
 1086SOL    HW1 5155  13.481   6.350   5.710
 1086SOL    HW2 5156  13.571   6.401   5.821
 1087SOL     OW 5157   0.918  14.379   0.638
 1087SOL    HW1 5158   0.823  14.375   0.650
 1087SOL    HW2 5159   0.931  14.361   0.545
 1088SOL     OW 5160  11.660   2.878   0.082
 1088SOL    HW1 5161  11.633   2.905   0.169
 1088SOL    HW2 5162  11.661   2.959   0.031
 1089SOL     OW 5163   3.830   0.819  14.761
 1089SOL    HW1 5164   3.849   0.734  14.801
 1089SOL    HW2 5165   3.798   0.873  14.834
 1090SOL     OW 5166   8.180  12.685  14.218
 1090SOL    HW1 5167   8.090  12.714  14.200
 1090SOL    HW2 5168   8.170  12.616  14.283
 1091SOL     OW 5169   8.732   4.520  11.475
 1091SOL    HW1 5170   8.811   4.467  11.472
 1091SOL    HW2 5171   8.666   4.462  11.516
 1092SOL     OW 5172   5.935  10.887  11.412
 1092SOL    HW1 5173   5.939  10.976  11.378
 1092SOL    HW2 5174   5.875  10.892  11.486
 1093SOL     OW 5175   5.978  14.376   2.641
 1093SOL    HW1 5176   5.934  14.445   2.691
 1093SOL    HW2 5177   5.998  14.418   2.557
 1094SOL     OW 5178   0.151   7.325   1.403
 1094SOL    HW1 5179   0.192   7.332   1.317
 1094SOL    HW2 5180   0.196   7.253   1.445
 1095SOL     OW 5181   8.448  11.084   1.268
 1095SOL    HW1 5182   8.532  11.119   1.297
 1095SOL    HW2 5183   8.437  11.119   1.180
 1096SOL     OW 5184  14.686   0.271   3.591
 1096SOL    HW1 5185  14.771   0.275   3.634
 1096SOL    HW2 5186  14.631   0.334   3.638
 1097SOL     OW 5187   0.948  14.186  10.039
 1097SOL    HW1 5188   0.988  14.108   9.999
 1097SOL    HW2 5189   0.926  14.242   9.964
 1098SOL     OW 5190  10.085   0.278  11.378
 1098SOL    HW1 5191  10.059   0.294  11.468
 1098SOL    HW2 5192  10.048   0.352  11.329
 1099SOL     OW 5193   4.252   4.832   8.819
 1099SOL    HW1 5194   4.266   4.737   8.820
 1099SOL    HW2 5195   4.323   4.867   8.872
 1100SOL     OW 5196  12.870   6.993   1.645
 1100SOL    HW1 5197  12.850   7.028   1.558
 1100SOL    HW2 5198  12.856   6.899   1.636
 1101SOL     OW 5199   5.767   1.354  13.242
 1101SOL    HW1 5200   5.817   1.382  13.319
 1101SOL    HW2 5201   5.682   1.396  13.252
 1102SOL     OW 5202   4.711   2.399   9.336
 1102SOL    HW1 5203   4.731   2.487   9.303
 1102SOL    HW2 5204   4.797   2.359   9.352
 1103SOL     OW 5205   6.231   5.722  12.638
 1103SOL    HW1 5206   6.326   5.723  12.648
 1103SOL    HW2 5207   6.214   5.775  12.560
 1104SOL     OW 5208  12.458   1.009   6.992
 1104SOL    HW1 5209  12.549   1.039   6.985
 1104SOL    HW2 5210  12.430   0.994   6.902
 1105SOL     OW 5211  11.436  10.542   7.905
 1105SOL    HW1 5212  11.428  10.472   7.840
 1105SOL    HW2 5213  11.442  10.497   7.988
 1106SOL     OW 5214   1.073  11.445   2.926
 1106SOL    HW1 5215   1.024  11.521   2.893
 1106SOL    HW2 5216   1.024  11.369   2.894
 1107SOL     OW 5217  11.726   8.275  14.308
 1107SOL    HW1 5218  11.681   8.359  14.313
 1107SOL    HW2 5219  11.683   8.221  14.375
 1108SOL     OW 5220  12.614   7.292  10.100
 1108SOL    HW1 5221  12.566   7.373  10.081
 1108SOL    HW2 5222  12.553   7.239  10.152
 1109SOL     OW 5223   0.100  12.507   2.215
 1109SOL    HW1 5224   0.191  12.532   2.232
 1109SOL    HW2 5225   0.097  12.413   2.233
 1110SOL     OW 5226   3.046  12.387   2.719
 1110SOL    HW1 5227   3.087  12.306   2.749
 1110SOL    HW2 5228   3.078  12.454   2.780
 1111SOL     OW 5229   6.761  10.727   2.478
 1111SOL    HW1 5230   6.698  10.726   2.405
 1111SOL    HW2 5231   6.846  10.722   2.436
 1112SOL     OW 5232  14.812   7.539  10.372
 1112SOL    HW1 5233  14.734   7.499  10.410
 1112SOL    HW2 5234  14.844   7.598  10.440
 1113SOL     OW 5235  11.076   9.162   8.323
 1113SOL    HW1 5236  11.008   9.168   8.391
 1113SOL    HW2 5237  11.158   9.150   8.372
 1114SOL     OW 5238  14.343   5.244  11.809
 1114SOL    HW1 5239  14.426   5.225  11.765
 1114SOL    HW2 5240  14.281   5.183  11.769
 1115SOL     OW 5241  11.850   4.840  14.329
 1115SOL    HW1 5242  11.862   4.927  14.366
 1115SOL    HW2 5243  11.792   4.853  14.254
 1116SOL     OW 5244   1.344   2.158   4.724
 1116SOL    HW1 5245   1.388   2.238   4.750
 1116SOL    HW2 5246   1.253   2.183   4.711
 1117SOL     OW 5247   6.587   4.289  13.148
 1117SOL    HW1 5248   6.651   4.219  13.155
 1117SOL    HW2 5249   6.534   4.281  13.227
 1118SOL     OW 5250   0.600   7.879   5.657
 1118SOL    HW1 5251   0.514   7.916   5.639
 1118SOL    HW2 5252   0.585   7.815   5.726
 1119SOL     OW 5253   8.565   1.502   3.853
 1119SOL    HW1 5254   8.641   1.454   3.819
 1119SOL    HW2 5255   8.597   1.590   3.869
 1120SOL     OW 5256  14.233   2.371  13.971
 1120SOL    HW1 5257  14.200   2.397  13.885
 1120SOL    HW2 5258  14.243   2.453  14.019
 1121SOL     OW 5259   0.221  14.096   6.285
 1121SOL    HW1 5260   0.281  14.098   6.211
 1121SOL    HW2 5261   0.229  14.184   6.324
 1122SOL     OW 5262  12.201   8.398   9.801
 1122SOL    HW1 5263  12.226   8.360   9.716
 1122SOL    HW2 5264  12.239   8.486   9.799
 1123SOL     OW 5265  10.845   6.288   1.773
 1123SOL    HW1 5266  10.934   6.288   1.739
 1123SOL    HW2 5267  10.789   6.286   1.695
 1124SOL     OW 5268   8.427   7.750   1.419
 1124SOL    HW1 5269   8.504   7.742   1.475
 1124SOL    HW2 5270   8.412   7.661   1.385
 1125SOL     OW 5271  11.330   6.891   9.604
 1125SOL    HW1 5272  11.376   6.851   9.530
 1125SOL    HW2 5273  11.383   6.967   9.628
 1126SOL     OW 5274  14.865   4.555  12.214
 1126SOL    HW1 5275  14.811   4.568  12.292
 1126SOL    HW2 5276   0.084   4.540  12.249
 1127SOL     OW 5277   1.400   1.846   2.799
 1127SOL    HW1 5278   1.336   1.778   2.777
 1127SOL    HW2 5279   1.461   1.803   2.859
 1128SOL     OW 5280  10.099  11.073   9.861
 1128SOL    HW1 5281  10.032  11.093   9.796
 1128SOL    HW2 5282  10.081  11.134   9.933
 1129SOL     OW 5283   9.081  14.517   4.445
 1129SOL    HW1 5284   9.172  14.510   4.416
 1129SOL    HW2 5285   9.066  14.438   4.496
 1130SOL     OW 5286   8.346  12.037   2.759
 1130SOL    HW1 5287   8.356  12.041   2.664
 1130SOL    HW2 5288   8.416  12.092   2.793
 1131SOL     OW 5289  12.957  12.759   7.330
 1131SOL    HW1 5290  13.044  12.797   7.347
 1131SOL    HW2 5291  12.896  12.829   7.354
 1132SOL     OW 5292  11.062   8.409   1.097
 1132SOL    HW1 5293  11.119   8.458   1.156
 1132SOL    HW2 5294  11.045   8.327   1.143
 1133SOL     OW 5295  11.253   2.230  12.065
 1133SOL    HW1 5296  11.330   2.196  12.019
 1133SOL    HW2 5297  11.280   2.233  12.157
 1134SOL     OW 5298  14.396  12.721   2.022
 1134SOL    HW1 5299  14.412  12.643   2.075
 1134SOL    HW2 5300  14.463  12.717   1.953
 1135SOL     OW 5301  14.180   6.436  14.048
 1135SOL    HW1 5302  14.161   6.343  14.034
 1135SOL    HW2 5303  14.096   6.480  14.038
 1136SOL     OW 5304   7.362   5.607  11.153
 1136SOL    HW1 5305   7.372   5.522  11.111
 1136SOL    HW2 5306   7.369   5.670  11.081
 1137SOL     OW 5307  11.923   6.451  13.600
 1137SOL    HW1 5308  11.916   6.377  13.661
 1137SOL    HW2 5309  11.998   6.501  13.632
 1138SOL     OW 5310   1.105   3.013  13.980
 1138SOL    HW1 5311   1.174   3.059  14.028
 1138SOL    HW2 5312   1.057   3.082  13.935
 1139SOL     OW 5313  11.320  14.622   4.818
 1139SOL    HW1 5314  11.400  14.654   4.776
 1139SOL    HW2 5315  11.250  14.651   4.760
 1140SOL     OW 5316   8.071  13.224   0.145
 1140SOL    HW1 5317   8.137  13.287   0.175
 1140SOL    HW2 5318   7.997  13.278   0.117
 1141SOL     OW 5319   8.655   7.345  11.714
 1141SOL    HW1 5320   8.598   7.286  11.664
 1141SOL    HW2 5321   8.629   7.433  11.686
 1142SOL     OW 5322   2.819   9.031  12.876
 1142SOL    HW1 5323   2.853   9.098  12.935
 1142SOL    HW2 5324   2.727   9.055  12.863
 1143SOL     OW 5325   7.165  12.167  10.081
 1143SOL    HW1 5326   7.132  12.126  10.001
 1143SOL    HW2 5327   7.154  12.100  10.149
 1144SOL     OW 5328   9.633   0.523   5.628
 1144SOL    HW1 5329   9.702   0.532   5.562
 1144SOL    HW2 5330   9.671   0.557   5.708
 1145SOL     OW 5331  14.065   6.134   1.551
 1145SOL    HW1 5332  14.065   6.157   1.644
 1145SOL    HW2 5333  14.007   6.199   1.511
 1146SOL     OW 5334   3.249   4.424  13.872
 1146SOL    HW1 5335   3.246   4.403  13.965
 1146SOL    HW2 5336   3.341   4.418  13.848
 1147SOL     OW 5337   1.639  13.401  14.217
 1147SOL    HW1 5338   1.619  13.312  14.186
 1147SOL    HW2 5339   1.582  13.413  14.293
 1148SOL     OW 5340   7.300  13.984   7.301
 1148SOL    HW1 5341   7.309  14.070   7.260
 1148SOL    HW2 5342   7.245  14.000   7.378
 1149SOL     OW 5343   1.878   6.880   4.699
 1149SOL    HW1 5344   1.967   6.846   4.708
 1149SOL    HW2 5345   1.862   6.926   4.782
 1150SOL     OW 5346   8.256  10.445   6.380
 1150SOL    HW1 5347   8.343  10.406   6.394
 1150SOL    HW2 5348   8.207  10.378   6.333
 1151SOL     OW 5349   4.814   0.174  13.439
 1151SOL    HW1 5350   4.736   0.118  13.434
 1151SOL    HW2 5351   4.864   0.138  13.512
 1152SOL     OW 5352   9.209  13.105  11.630
 1152SOL    HW1 5353   9.213  13.037  11.563
 1152SOL    HW2 5354   9.231  13.186  11.583
 1153SOL     OW 5355  13.788  12.715   9.560
 1153SOL    HW1 5356  13.748  12.779   9.502
 1153SOL    HW2 5357  13.876  12.749   9.577
 1154SOL     OW 5358  10.318   9.648   9.488
 1154SOL    HW1 5359  10.341   9.673   9.398
 1154SOL    HW2 5360  10.360   9.563   9.501
 1155SOL     OW 5361   3.740   2.361  10.276
 1155SOL    HW1 5362   3.664   2.387  10.328
 1155SOL    HW2 5363   3.703   2.323  10.197
 1156SOL     OW 5364   4.430  11.647  14.134
 1156SOL    HW1 5365   4.382  11.729  14.142
 1156SOL    HW2 5366   4.373  11.581  14.173
 1157SOL     OW 5367  13.651   4.491   4.390
 1157SOL    HW1 5368  13.560   4.501   4.419
 1157SOL    HW2 5369  13.669   4.570   4.340
 1158SOL     OW 5370  11.956   6.824   9.175
 1158SOL    HW1 5371  12.007   6.884   9.229
 1158SOL    HW2 5372  12.009   6.813   9.095
 1159SOL     OW 5373  14.345  12.187   6.619
 1159SOL    HW1 5374  14.439  12.196   6.604
 1159SOL    HW2 5375  14.335  12.199   6.713
 1160SOL     OW 5376   8.073   8.126   5.454
 1160SOL    HW1 5377   8.044   8.080   5.375
 1160SOL    HW2 5378   8.055   8.065   5.525
 1161SOL     OW 5379   8.417  12.559  10.037
 1161SOL    HW1 5380   8.373  12.535   9.956
 1161SOL    HW2 5381   8.499  12.509  10.036
 1162SOL     OW 5382   2.267  14.100   9.117
 1162SOL    HW1 5383   2.201  14.088   9.049
 1162SOL    HW2 5384   2.218  14.117   9.197
 1163SOL     OW 5385   8.217  10.801   7.825
 1163SOL    HW1 5386   8.238  10.800   7.731
 1163SOL    HW2 5387   8.168  10.882   7.838
 1164SOL     OW 5388   9.707   5.336   1.015
 1164SOL    HW1 5389   9.716   5.404   0.948
 1164SOL    HW2 5390   9.776   5.355   1.078
 1165SOL     OW 5391  12.174   4.693   4.621
 1165SOL    HW1 5392  12.111   4.633   4.581
 1165SOL    HW2 5393  12.259   4.666   4.585
 1166SOL     OW 5394   6.416   7.894   2.374
 1166SOL    HW1 5395   6.414   7.985   2.344
 1166SOL    HW2 5396   6.325   7.872   2.394
 1167SOL     OW 5397   3.620   3.899   8.485
 1167SOL    HW1 5398   3.607   3.863   8.573
 1167SOL    HW2 5399   3.710   3.879   8.463
 1168SOL     OW 5400   3.036  12.442  11.959
 1168SOL    HW1 5401   3.067  12.468  11.872
 1168SOL    HW2 5402   3.116  12.418  12.006
 1169SOL     OW 5403   7.553   7.626   0.429
 1169SOL    HW1 5404   7.560   7.632   0.524
 1169SOL    HW2 5405   7.494   7.697   0.404
 1170SOL     OW 5406   0.011  14.380   0.988
 1170SOL    HW1 5407   0.037  14.415   1.073
 1170SOL    HW2 5408   0.056  14.436   0.925
 1171SOL     OW 5409   1.367  10.228   0.470
 1171SOL    HW1 5410   1.336  10.318   0.468
 1171SOL    HW2 5411   1.446  10.231   0.524
 1172SOL     OW 5412  13.376   9.829  13.035
 1172SOL    HW1 5413  13.394   9.868  13.121
 1172SOL    HW2 5414  13.383   9.902  12.974
 1173SOL     OW 5415   5.263   9.622  11.308
 1173SOL    HW1 5416   5.221   9.575  11.236
 1173SOL    HW2 5417   5.190   9.661  11.357
 1174SOL     OW 5418   8.705   5.581   8.389
 1174SOL    HW1 5419   8.631   5.534   8.352
 1174SOL    HW2 5420   8.747   5.622   8.314
 1175SOL     OW 5421   1.035  11.594  14.787
 1175SOL    HW1 5422   1.040  11.667  14.726
 1175SOL    HW2 5423   0.942  11.570  14.789
 1176SOL     OW 5424   1.535   9.563   7.445
 1176SOL    HW1 5425   1.513   9.514   7.524
 1176SOL    HW2 5426   1.487   9.645   7.454
 1177SOL     OW 5427   1.984  13.488   7.098
 1177SOL    HW1 5428   1.963  13.489   7.004
 1177SOL    HW2 5429   1.913  13.538   7.138
 1178SOL     OW 5430   9.625   8.933   3.581
 1178SOL    HW1 5431   9.628   9.029   3.573
 1178SOL    HW2 5432   9.558   8.916   3.648
 1179SOL     OW 5433   0.484   4.869   8.915
 1179SOL    HW1 5434   0.523   4.928   8.850
 1179SOL    HW2 5435   0.468   4.788   8.867
 1180SOL     OW 5436   0.532   3.967  11.678
 1180SOL    HW1 5437   0.558   4.026  11.749
 1180SOL    HW2 5438   0.614   3.931  11.646
 1181SOL     OW 5439   7.425   9.662   6.694
 1181SOL    HW1 5440   7.507   9.708   6.673
 1181SOL    HW2 5441   7.453   9.581   6.736
 1182SOL     OW 5442   7.594   5.938  13.955
 1182SOL    HW1 5443   7.537   5.864  13.938
 1182SOL    HW2 5444   7.534   6.011  13.972
 1183SOL     OW 5445   5.032   3.392   3.012
 1183SOL    HW1 5446   5.064   3.302   3.005
 1183SOL    HW2 5447   5.110   3.445   3.027
 1184SOL     OW 5448   0.883  11.912  13.270
 1184SOL    HW1 5449   0.893  11.995  13.316
 1184SOL    HW2 5450   0.935  11.850  13.321
 1185SOL     OW 5451   7.914   2.681   5.400
 1185SOL    HW1 5452   7.970   2.614   5.439
 1185SOL    HW2 5453   7.845   2.695   5.465
 1186SOL     OW 5454  10.807   0.148  14.339
 1186SOL    HW1 5455  10.739   0.202  14.299
 1186SOL    HW2 5456  10.760   0.073  14.376
 1187SOL     OW 5457   7.484   4.573   5.456
 1187SOL    HW1 5458   7.428   4.651   5.464
 1187SOL    HW2 5459   7.570   4.608   5.433
 1188SOL     OW 5460   6.907   5.474  13.405
 1188SOL    HW1 5461   6.969   5.451  13.474
 1188SOL    HW2 5462   6.875   5.561  13.431
 1189SOL     OW 5463   3.065   7.517   5.301
 1189SOL    HW1 5464   3.124   7.569   5.246
 1189SOL    HW2 5465   3.029   7.579   5.363
 1190SOL     OW 5466  10.284  10.051   2.393
 1190SOL    HW1 5467  10.198  10.069   2.431
 1190SOL    HW2 5468  10.290  10.110   2.318
 1191SOL     OW 5469  10.696   5.490   9.910
 1191SOL    HW1 5470  10.644   5.541   9.973
 1191SOL    HW2 5471  10.704   5.547   9.834
 1192SOL     OW 5472   2.101   3.793   5.044
 1192SOL    HW1 5473   2.170   3.850   5.077
 1192SOL    HW2 5474   2.145   3.710   5.026
 1193SOL     OW 5475   1.065  10.888   8.514
 1193SOL    HW1 5476   1.057  10.888   8.610
 1193SOL    HW2 5477   1.042  10.799   8.488
 1194SOL     OW 5478   0.882   8.239   8.715
 1194SOL    HW1 5479   0.950   8.299   8.685
 1194SOL    HW2 5480   0.913   8.152   8.690
 1195SOL     OW 5481   3.837   1.902   6.470
 1195SOL    HW1 5482   3.870   1.856   6.546
 1195SOL    HW2 5483   3.882   1.861   6.396
 1196SOL     OW 5484   1.062   9.411   9.671
 1196SOL    HW1 5485   1.139   9.462   9.699
 1196SOL    HW2 5486   1.060   9.421   9.576
 1197SOL     OW 5487  10.687  13.730   0.585
 1197SOL    HW1 5488  10.677  13.672   0.660
 1197SOL    HW2 5489  10.619  13.701   0.524
 1198SOL     OW 5490   5.929   7.606   2.733
 1198SOL    HW1 5491   5.890   7.691   2.750
 1198SOL    HW2 5492   6.018   7.612   2.769
 1199SOL     OW 5493   4.834   6.453  13.162
 1199SOL    HW1 5494   4.922   6.481  13.187
 1199SOL    HW2 5495   4.843   6.426  13.070
 1200SOL     OW 5496  13.792  10.718   3.389
 1200SOL    HW1 5497  13.830  10.806   3.383
 1200SOL    HW2 5498  13.704  10.728   3.354
 1201SOL     OW 5499   6.696   9.802   7.257
 1201SOL    HW1 5500   6.769   9.773   7.202
 1201SOL    HW2 5501   6.731   9.878   7.304
 1202SOL     OW 5502  14.673  11.706   6.216
 1202SOL    HW1 5503  14.733  11.781   6.213
 1202SOL    HW2 5504  14.682  11.665   6.130
 1203SOL     OW 5505   3.160   0.183  13.387
 1203SOL    HW1 5506   3.150   0.142  13.473
 1203SOL    HW2 5507   3.254   0.180  13.369
 1204SOL     OW 5508   9.687   7.265   3.429
 1204SOL    HW1 5509   9.651   7.312   3.505
 1204SOL    HW2 5510   9.657   7.316   3.354
 1205SOL     OW 5511   5.203   5.422   9.263
 1205SOL    HW1 5512   5.118   5.417   9.219
 1205SOL    HW2 5513   5.187   5.389   9.351
 1206SOL     OW 5514   1.294   3.574   0.955
 1206SOL    HW1 5515   1.293   3.669   0.942
 1206SOL    HW2 5516   1.273   3.563   1.048
 1207SOL     OW 5517  14.300  10.663   4.836
 1207SOL    HW1 5518  14.370  10.719   4.802
 1207SOL    HW2 5519  14.232  10.724   4.863
 1208SOL     OW 5520   1.417   2.727   9.324
 1208SOL    HW1 5521   1.340   2.757   9.373
 1208SOL    HW2 5522   1.388   2.726   9.233
 1209SOL     OW 5523   4.516  11.589   2.092
 1209SOL    HW1 5524   4.528  11.542   2.009
 1209SOL    HW2 5525   4.589  11.650   2.096
 1210SOL     OW 5526  11.403  10.962   1.072
 1210SOL    HW1 5527  11.313  10.931   1.073
 1210SOL    HW2 5528  11.397  11.055   1.054
 1211SOL     OW 5529   4.378   8.304   8.008
 1211SOL    HW1 5530   4.303   8.293   8.067
 1211SOL    HW2 5531   4.418   8.218   8.003
 1212SOL     OW 5532   3.241   5.592   1.668
 1212SOL    HW1 5533   3.289   5.597   1.586
 1212SOL    HW2 5534   3.306   5.564   1.733
 1213SOL     OW 5535  11.743   7.978   1.556
 1213SOL    HW1 5536  11.823   8.012   1.596
 1213SOL    HW2 5537  11.751   7.997   1.463
 1214SOL     OW 5538   2.525  11.376   6.266
 1214SOL    HW1 5539   2.603  11.344   6.311
 1214SOL    HW2 5540   2.557  11.418   6.187
 1215SOL     OW 5541   9.091  13.508   7.115
 1215SOL    HW1 5542   9.129  13.456   7.044
 1215SOL    HW2 5543   9.019  13.556   7.073
 1216SOL     OW 5544   8.216  14.294   4.525
 1216SOL    HW1 5545   8.170  14.353   4.466
 1216SOL    HW2 5546   8.303  14.332   4.534
 1217SOL     OW 5547   5.149  13.635  10.622
 1217SOL    HW1 5548   5.073  13.688  10.600
 1217SOL    HW2 5549   5.177  13.666  10.708
 1218SOL     OW 5550  10.056   1.420  12.797
 1218SOL    HW1 5551  10.083   1.361  12.868
 1218SOL    HW2 5552   9.965   1.442  12.818
 1219SOL     OW 5553   9.235  14.124   2.888
 1219SOL    HW1 5554   9.307  14.064   2.905
 1219SOL    HW2 5555   9.209  14.107   2.797
 1220SOL     OW 5556   8.610   5.784   8.580
 1220SOL    HW1 5557   8.650   5.714   8.529
 1220SOL    HW2 5558   8.615   5.754   8.670
 1221SOL     OW 5559   6.417   3.884   3.150
 1221SOL    HW1 5560   6.513   3.885   3.160
 1221SOL    HW2 5561   6.385   3.868   3.239
 1222SOL     OW 5562   1.185   1.664  12.191
 1222SOL    HW1 5563   1.274   1.672  12.158
 1222SOL    HW2 5564   1.171   1.569  12.201
 1223SOL     OW 5565   4.475  10.733   7.008
 1223SOL    HW1 5566   4.474  10.639   7.021
 1223SOL    HW2 5567   4.556  10.751   6.961
 1224SOL     OW 5568   9.873  13.711   2.522
 1224SOL    HW1 5569   9.899  13.801   2.539
 1224SOL    HW2 5570   9.793  13.699   2.574
 1225SOL     OW 5571   7.845   1.567   2.667
 1225SOL    HW1 5572   7.866   1.572   2.574
 1225SOL    HW2 5573   7.887   1.486   2.697
 1226SOL     OW 5574  11.212  10.787   0.962
 1226SOL    HW1 5575  11.151  10.742   0.902
 1226SOL    HW2 5576  11.280  10.822   0.904
 1227SOL     OW 5577   0.614   1.451   8.466
 1227SOL    HW1 5578   0.535   1.403   8.441
 1227SOL    HW2 5579   0.686   1.390   8.452
 1228SOL     OW 5580   3.008   7.219   8.341
 1228SOL    HW1 5581   3.073   7.259   8.284
 1228SOL    HW2 5582   2.996   7.130   8.306
 1229SOL     OW 5583   5.815   1.297  12.530
 1229SOL    HW1 5584   5.754   1.264  12.596
 1229SOL    HW2 5585   5.774   1.377  12.498
 1230SOL     OW 5586  10.847   3.439  10.163
 1230SOL    HW1 5587  10.933   3.400  10.181
 1230SOL    HW2 5588  10.784   3.377  10.199
 1231SOL     OW 5589   6.573  11.081   6.995
 1231SOL    HW1 5590   6.486  11.046   6.978
 1231SOL    HW2 5591   6.567  11.173   6.972
 1232SOL     OW 5592   5.768  14.790   4.402
 1232SOL    HW1 5593   5.789  14.796   4.309
 1232SOL    HW2 5594   5.725  14.705   4.412
 1233SOL     OW 5595   2.017   1.465  13.148
 1233SOL    HW1 5596   1.961   1.448  13.224
 1233SOL    HW2 5597   2.098   1.418  13.167
 1234SOL     OW 5598  13.934  14.417  10.245
 1234SOL    HW1 5599  13.938  14.368  10.327
 1234SOL    HW2 5600  13.868  14.484  10.260
 1235SOL     OW 5601   0.858  14.694   8.519
 1235SOL    HW1 5602   0.844  14.789   8.512
 1235SOL    HW2 5603   0.942  14.686   8.565
 1236SOL     OW 5604   2.553   2.776  10.182
 1236SOL    HW1 5605   2.474   2.726  10.163
 1236SOL    HW2 5606   2.525   2.868  10.177
 1237SOL     OW 5607   0.182   7.745  10.214
 1237SOL    HW1 5608   0.203   7.668  10.162
 1237SOL    HW2 5609   0.140   7.711  10.293
 1238SOL     OW 5610   9.957   8.220   4.454
 1238SOL    HW1 5611   9.954   8.315   4.465
 1238SOL    HW2 5612  10.004   8.206   4.372
 1239SOL     OW 5613  14.264   1.474   9.861
 1239SOL    HW1 5614  14.305   1.435   9.938
 1239SOL    HW2 5615  14.300   1.562   9.856
 1240SOL     OW 5616   8.891   5.831  14.382
 1240SOL    HW1 5617   8.916   5.911  14.429
 1240SOL    HW2 5618   8.812   5.856  14.334
 1241SOL     OW 5619   9.445   4.238   5.391
 1241SOL    HW1 5620   9.471   4.159   5.343
 1241SOL    HW2 5621   9.350   4.240   5.384
 1242SOL     OW 5622   9.215  11.404   5.263
 1242SOL    HW1 5623   9.203  11.382   5.171
 1242SOL    HW2 5624   9.134  11.451   5.286
 1243SOL     OW 5625  10.512  13.893   4.551
 1243SOL    HW1 5626  10.535  13.985   4.533
 1243SOL    HW2 5627  10.562  13.872   4.630
 1244SOL     OW 5628   6.402  10.532   2.233
 1244SOL    HW1 5629   6.348  10.611   2.229
 1244SOL    HW2 5630   6.362  10.473   2.169
 1245SOL     OW 5631   4.888   6.758   6.897
 1245SOL    HW1 5632   4.902   6.806   6.815
 1245SOL    HW2 5633   4.974   6.721   6.918
 1246SOL     OW 5634  14.822   7.608   8.142
 1246SOL    HW1 5635  14.782   7.536   8.093
 1246SOL    HW2 5636  14.799   7.590   8.234
 1247SOL     OW 5637   4.230   0.031   3.451
 1247SOL    HW1 5638   4.297   0.052   3.385
 1247SOL    HW2 5639   4.265   0.065   3.533
 1248SOL     OW 5640  11.469   9.981  14.562
 1248SOL    HW1 5641  11.556   9.942  14.563
 1248SOL    HW2 5642  11.467  10.033  14.482
 1249SOL     OW 5643  12.138  12.881  10.906
 1249SOL    HW1 5644  12.126  12.960  10.958
 1249SOL    HW2 5645  12.051  12.862  10.870
 1250SOL     OW 5646  12.850   3.093   3.707
 1250SOL    HW1 5647  12.890   3.145   3.638
 1250SOL    HW2 5648  12.896   3.009   3.703
 1251SOL     OW 5649   4.023   6.449   0.638
 1251SOL    HW1 5650   3.960   6.493   0.580
 1251SOL    HW2 5651   3.979   6.445   0.723
 1252SOL     OW 5652   2.188   1.672  13.420
 1252SOL    HW1 5653   2.278   1.672  13.387
 1252SOL    HW2 5654   2.189   1.735  13.492
 1253SOL     OW 5655  13.673   2.181  13.517
 1253SOL    HW1 5656  13.727   2.139  13.584
 1253SOL    HW2 5657  13.590   2.200  13.561
 1254SOL     OW 5658   8.625   9.823  13.808
 1254SOL    HW1 5659   8.719   9.836  13.816
 1254SOL    HW2 5660   8.614   9.776  13.725
 1255SOL     OW 5661   8.712   4.017  13.916
 1255SOL    HW1 5662   8.766   4.033  13.839
 1255SOL    HW2 5663   8.716   4.099  13.966
 1256SOL     OW 5664   9.217   4.485   1.105
 1256SOL    HW1 5665   9.227   4.483   1.009
 1256SOL    HW2 5666   9.240   4.397   1.133
 1257SOL     OW 5667   7.827   4.374  11.579
 1257SOL    HW1 5668   7.909   4.414  11.550
 1257SOL    HW2 5669   7.821   4.398  11.672
 1258SOL     OW 5670   9.141  14.146   1.715
 1258SOL    HW1 5671   9.096  14.109   1.791
 1258SOL    HW2 5672   9.188  14.222   1.749
 1259SOL     OW 5673   4.129   2.537   4.223
 1259SOL    HW1 5674   4.079   2.575   4.150
 1259SOL    HW2 5675   4.193   2.605   4.246
 1260SOL     OW 5676   8.718  12.257  13.557
 1260SOL    HW1 5677   8.748  12.186  13.613
 1260SOL    HW2 5678   8.797  12.288  13.513
 1261SOL     OW 5679  13.605   2.002   3.832
 1261SOL    HW1 5680  13.666   1.928   3.841
 1261SOL    HW2 5681  13.588   2.030   3.921
 1262SOL     OW 5682   4.360   5.399   1.202
 1262SOL    HW1 5683   4.377   5.385   1.109
 1262SOL    HW2 5684   4.443   5.380   1.245
 1263SOL     OW 5685  10.858   0.084  13.718
 1263SOL    HW1 5686  10.856   0.128  13.633
 1263SOL    HW2 5687  10.773   0.105  13.757
 1264SOL     OW 5688   9.102   3.382   7.454
 1264SOL    HW1 5689   9.101   3.325   7.531
 1264SOL    HW2 5690   9.109   3.322   7.380
 1265SOL     OW 5691   1.688   2.916   4.898
 1265SOL    HW1 5692   1.607   2.901   4.848
 1265SOL    HW2 5693   1.713   2.830   4.930
 1266SOL     OW 5694   3.737   9.655  14.057
 1266SOL    HW1 5695   3.752   9.643  14.151
 1266SOL    HW2 5696   3.664   9.597  14.037
 1267SOL     OW 5697   9.573  13.308   7.145
 1267SOL    HW1 5698   9.587  13.401   7.125
 1267SOL    HW2 5699   9.642  13.263   7.095
 1268SOL     OW 5700   4.433   0.605   6.778
 1268SOL    HW1 5701   4.352   0.567   6.811
 1268SOL    HW2 5702   4.437   0.576   6.687
 1269SOL     OW 5703  14.417  12.061  13.109
 1269SOL    HW1 5704  14.489  12.116  13.078
 1269SOL    HW2 5705  14.340  12.093  13.062
 1270SOL     OW 5706   0.975   0.958   6.068
 1270SOL    HW1 5707   1.032   0.892   6.108
 1270SOL    HW2 5708   0.964   0.928   5.978
 1271SOL     OW 5709   5.555   1.159  10.799
 1271SOL    HW1 5710   5.590   1.237  10.757
 1271SOL    HW2 5711   5.614   1.143  10.873
 1272SOL     OW 5712   6.080  11.644   6.494
 1272SOL    HW1 5713   6.090  11.550   6.480
 1272SOL    HW2 5714   6.011  11.671   6.433
 1273SOL     OW 5715   8.871   9.711   5.736
 1273SOL    HW1 5716   8.934   9.754   5.679
 1273SOL    HW2 5717   8.786   9.750   5.713
 1274SOL     OW 5718   0.399   0.955   8.008
 1274SOL    HW1 5719   0.402   0.978   8.101
 1274SOL    HW2 5720   0.346   0.876   8.004
 1275SOL     OW 5721   8.105  10.013  11.310
 1275SOL    HW1 5722   8.079   9.991  11.399
 1275SOL    HW2 5723   8.027  10.052  11.271
 1276SOL     OW 5724  10.436   1.826   9.112
 1276SOL    HW1 5725  10.456   1.918   9.128
 1276SOL    HW2 5726  10.508   1.778   9.154
 1277SOL     OW 5727  10.816   3.616  10.621
 1277SOL    HW1 5728  10.787   3.603  10.531
 1277SOL    HW2 5729  10.768   3.694  10.650
 1278SOL     OW 5730  14.165   9.805   3.096
 1278SOL    HW1 5731  14.214   9.754   3.031
 1278SOL    HW2 5732  14.232   9.857   3.141
 1279SOL     OW 5733  13.064  11.237  14.561
 1279SOL    HW1 5734  13.088  11.145  14.556
 1279SOL    HW2 5735  12.993  11.247  14.497
 1280SOL     OW 5736  14.084   4.827   1.728
 1280SOL    HW1 5737  14.098   4.899   1.789
 1280SOL    HW2 5738  14.172   4.799   1.703
 1281SOL     OW 5739   9.647  11.055  11.470
 1281SOL    HW1 5740   9.651  11.148  11.447
 1281SOL    HW2 5741   9.566  11.046  11.520
 1282SOL     OW 5742   8.190  10.184  10.633
 1282SOL    HW1 5743   8.227  10.133  10.561
 1282SOL    HW2 5744   8.095  10.182  10.617
 1283SOL     OW 5745   9.005   8.722  13.720
 1283SOL    HW1 5746   8.921   8.696  13.758
 1283SOL    HW2 5747   8.983   8.788  13.655
 1284SOL     OW 5748   5.662  14.008  11.586
 1284SOL    HW1 5749   5.681  14.031  11.677
 1284SOL    HW2 5750   5.737  14.041  11.536
 1285SOL     OW 5751   4.511   9.990   7.181
 1285SOL    HW1 5752   4.538  10.032   7.099
 1285SOL    HW2 5753   4.550  10.044   7.249
 1286SOL     OW 5754  11.776  14.269   2.923
 1286SOL    HW1 5755  11.800  14.333   2.856
 1286SOL    HW2 5756  11.682  14.258   2.914
 1287SOL     OW 5757   0.838   8.722   4.646
 1287SOL    HW1 5758   0.817   8.802   4.695
 1287SOL    HW2 5759   0.783   8.727   4.567
 1288SOL     OW 5760  13.512  13.204   1.408
 1288SOL    HW1 5761  13.455  13.143   1.361
 1288SOL    HW2 5762  13.574  13.234   1.342
 1289SOL     OW 5763   0.637   1.913   7.960
 1289SOL    HW1 5764   0.568   1.848   7.946
 1289SOL    HW2 5765   0.631   1.972   7.885
 1290SOL     OW 5766  14.330  12.813   2.708
 1290SOL    HW1 5767  14.372  12.758   2.642
 1290SOL    HW2 5768  14.335  12.902   2.673
 1291SOL     OW 5769  13.465   0.973   0.794
 1291SOL    HW1 5770  13.545   0.970   0.848
 1291SOL    HW2 5771  13.445   0.881   0.776
 1292SOL     OW 5772   9.024  10.221  12.992
 1292SOL    HW1 5773   8.991  10.186  12.909
 1292SOL    HW2 5774   9.041  10.313  12.974
 1293SOL     OW 5775  11.856   2.085   5.186
 1293SOL    HW1 5776  11.799   2.026   5.235
 1293SOL    HW2 5777  11.805   2.164   5.173
 1294SOL     OW 5778  13.132   9.649   8.643
 1294SOL    HW1 5779  13.054   9.622   8.693
 1294SOL    HW2 5780  13.204   9.641   8.705
 1295SOL     OW 5781   3.612  12.622  14.059
 1295SOL    HW1 5782   3.627  12.717  14.054
 1295SOL    HW2 5783   3.699  12.584  14.068
 1296SOL     OW 5784   4.412   3.202   7.083
 1296SOL    HW1 5785   4.493   3.169   7.046
 1296SOL    HW2 5786   4.352   3.207   7.009
 1297SOL     OW 5787   6.712   1.913   1.157
 1297SOL    HW1 5788   6.642   1.970   1.127
 1297SOL    HW2 5789   6.680   1.875   1.238
 1298SOL     OW 5790  14.266   6.975   9.854
 1298SOL    HW1 5791  14.319   6.940   9.925
 1298SOL    HW2 5792  14.184   7.002   9.895
 1299SOL     OW 5793   4.654   9.971  12.810
 1299SOL    HW1 5794   4.615  10.001  12.728
 1299SOL    HW2 5795   4.603  10.015  12.879
 1300SOL     OW 5796   9.488   6.265   2.138
 1300SOL    HW1 5797   9.505   6.337   2.198
 1300SOL    HW2 5798   9.395   6.245   2.149
 1301SOL     OW 5799  11.935  13.270   8.857
 1301SOL    HW1 5800  11.860  13.315   8.897
 1301SOL    HW2 5801  11.955  13.321   8.778
 1302SOL     OW 5802   8.491   3.921  13.673
 1302SOL    HW1 5803   8.421   3.895  13.614
 1302SOL    HW2 5804   8.550   3.974  13.619
 1303SOL     OW 5805   3.785   6.736   3.836
 1303SOL    HW1 5806   3.880   6.737   3.829
 1303SOL    HW2 5807   3.756   6.815   3.790
 1304SOL     OW 5808  12.795   2.515  11.449
 1304SOL    HW1 5809  12.844   2.474  11.377
 1304SOL    HW2 5810  12.860   2.528  11.518
 1305SOL     OW 5811   8.608   3.686  10.241
 1305SOL    HW1 5812   8.577   3.757  10.185
 1305SOL    HW2 5813   8.636   3.730  10.321
 1306SOL     OW 5814  14.740   9.578  10.073
 1306SOL    HW1 5815  14.649   9.552  10.054
 1306SOL    HW2 5816  14.737   9.610  10.163
 1307SOL     OW 5817  14.434   3.491  13.632
 1307SOL    HW1 5818  14.355   3.455  13.673
 1307SOL    HW2 5819  14.428   3.464  13.540
 1308SOL     OW 5820   9.252  14.828  13.732
 1308SOL    HW1 5821   9.199  14.856  13.657
 1308SOL    HW2 5822   9.337  14.869  13.718
 1309SOL     OW 5823   6.688   6.821   8.171
 1309SOL    HW1 5824   6.638   6.805   8.250
 1309SOL    HW2 5825   6.634   6.880   8.119
 1310SOL     OW 5826  13.207   2.117   8.977
 1310SOL    HW1 5827  13.133   2.085   8.924
 1310SOL    HW2 5828  13.283   2.072   8.941
 1311SOL     OW 5829   9.921   8.336  10.043
 1311SOL    HW1 5830   9.918   8.430  10.027
 1311SOL    HW2 5831   9.842   8.302  10.002
 1312SOL     OW 5832  12.221   8.091  12.782
 1312SOL    HW1 5833  12.209   8.092  12.687
 1312SOL    HW2 5834  12.149   8.144  12.815
 1313SOL     OW 5835   8.998   9.665   6.649
 1313SOL    HW1 5836   8.979   9.592   6.591
 1313SOL    HW2 5837   9.080   9.642   6.691
 1314SOL     OW 5838   0.643  12.522  12.718
 1314SOL    HW1 5839   0.550  12.506  12.702
 1314SOL    HW2 5840   0.670  12.450  12.776
 1315SOL     OW 5841   5.337  14.564   3.028
 1315SOL    HW1 5842   5.311  14.576   2.937
 1315SOL    HW2 5843   5.420  14.610   3.036
 1316SOL     OW 5844   6.350  10.387   8.197
 1316SOL    HW1 5845   6.324  10.341   8.117
 1316SOL    HW2 5846   6.411  10.328   8.241
 1317SOL     OW 5847  12.984   7.186   7.101
 1317SOL    HW1 5848  13.046   7.115   7.087
 1317SOL    HW2 5849  12.913   7.169   7.039
 1318SOL     OW 5850   1.538   0.352   0.011
 1318SOL    HW1 5851   1.506   0.305   0.088
 1318SOL    HW2 5852   1.517   0.295  14.807
 1319SOL     OW 5853  12.066   5.756   4.851
 1319SOL    HW1 5854  12.132   5.693   4.879
 1319SOL    HW2 5855  12.036   5.724   4.766
 1320SOL     OW 5856   3.375  10.815   8.098
 1320SOL    HW1 5857   3.292  10.832   8.143
 1320SOL    HW2 5858   3.404  10.901   8.069
 1321SOL     OW 5859   9.664  13.854   0.066
 1321SOL    HW1 5860   9.751  13.819   0.088
 1321SOL    HW2 5861   9.681  13.945   0.041
 1322SOL     OW 5862   6.337   8.933   6.196
 1322SOL    HW1 5863   6.349   8.843   6.164
 1322SOL    HW2 5864   6.421   8.976   6.178
 1323SOL     OW 5865   6.706  11.732   6.354
 1323SOL    HW1 5866   6.764  11.763   6.283
 1323SOL    HW2 5867   6.686  11.811   6.404
 1324SOL     OW 5868   9.802   8.508   2.192
 1324SOL    HW1 5869   9.760   8.509   2.106
 1324SOL    HW2 5870   9.869   8.575   2.187
 1325SOL     OW 5871   2.002  11.084   0.700
 1325SOL    HW1 5872   2.032  11.081   0.791
 1325SOL    HW2 5873   2.067  11.139   0.656
 1326SOL     OW 5874   7.666  14.621   0.384
 1326SOL    HW1 5875   7.611  14.692   0.352
 1326SOL    HW2 5876   7.604  14.554   0.414
 1327SOL     OW 5877  10.578  14.579  13.257
 1327SOL    HW1 5878  10.504  14.638  13.273
 1327SOL    HW2 5879  10.655  14.629  13.284
 1328SOL     OW 5880   2.942  12.297   4.068
 1328SOL    HW1 5881   2.896  12.234   4.012
 1328SOL    HW2 5882   2.879  12.367   4.082
 1329SOL     OW 5883   9.398   7.173   5.877
 1329SOL    HW1 5884   9.411   7.185   5.783
 1329SOL    HW2 5885   9.369   7.258   5.908
 1330SOL     OW 5886   5.553   6.279   9.703
 1330SOL    HW1 5887   5.550   6.207   9.766
 1330SOL    HW2 5888   5.556   6.236   9.618
 1331SOL     OW 5889   4.517   9.629  13.256
 1331SOL    HW1 5890   4.466   9.669  13.186
 1331SOL    HW2 5891   4.469   9.652  13.337
 1332SOL     OW 5892  10.882   0.372   4.262
 1332SOL    HW1 5893  10.814   0.351   4.325
 1332SOL    HW2 5894  10.945   0.426   4.311
 1333SOL     OW 5895   6.390  14.321   4.241
 1333SOL    HW1 5896   6.418  14.230   4.237
 1333SOL    HW2 5897   6.393  14.344   4.334
 1334SOL     OW 5898  11.427   3.163   0.197
 1334SOL    HW1 5899  11.381   3.108   0.133
 1334SOL    HW2 5900  11.379   3.150   0.278
 1335SOL     OW 5901  12.749  10.061   2.615
 1335SOL    HW1 5902  12.786  10.018   2.692
 1335SOL    HW2 5903  12.793  10.146   2.612
 1336SOL     OW 5904   8.833   9.641   3.506
 1336SOL    HW1 5905   8.917   9.669   3.542
 1336SOL    HW2 5906   8.778   9.626   3.583
 1337SOL     OW 5907  10.418   8.458   0.282
 1337SOL    HW1 5908  10.391   8.543   0.247
 1337SOL    HW2 5909  10.514   8.464   0.286
 1338SOL     OW 5910  13.607  11.168   8.585
 1338SOL    HW1 5911  13.520  11.177   8.624
 1338SOL    HW2 5912  13.627  11.256   8.551
 1339SOL     OW 5913   5.020  10.939   6.211
 1339SOL    HW1 5914   4.958  10.869   6.189
 1339SOL    HW2 5915   5.033  10.931   6.306
 1340SOL     OW 5916  10.771   9.290   2.274
 1340SOL    HW1 5917  10.842   9.349   2.297
 1340SOL    HW2 5918  10.727   9.271   2.357
 1341SOL     OW 5919   7.124   7.167   5.209
 1341SOL    HW1 5920   7.134   7.107   5.134
 1341SOL    HW2 5921   7.037   7.148   5.243
 1342SOL     OW 5922  13.260  12.490  13.302
 1342SOL    HW1 5923  13.200  12.439  13.248
 1342SOL    HW2 5924  13.336  12.432  13.314
 1343SOL     OW 5925   8.840   1.078   8.672
 1343SOL    HW1 5926   8.903   1.032   8.616
 1343SOL    HW2 5927   8.848   1.170   8.646
 1344SOL     OW 5928  14.712   8.112   7.595
 1344SOL    HW1 5929  14.743   8.084   7.682
 1344SOL    HW2 5930  14.638   8.055   7.576
 1345SOL     OW 5931   8.467   3.880   4.150
 1345SOL    HW1 5932   8.468   3.846   4.239
 1345SOL    HW2 5933   8.390   3.841   4.109
 1346SOL     OW 5934   4.409  10.038  12.303
 1346SOL    HW1 5935   4.482  10.076  12.351
 1346SOL    HW2 5936   4.439   9.951  12.278
 1347SOL     OW 5937  11.186  10.750   4.862
 1347SOL    HW1 5938  11.278  10.768   4.844
 1347SOL    HW2 5939  11.139  10.783   4.786
 1348SOL     OW 5940  12.597   8.301   0.235
 1348SOL    HW1 5941  12.612   8.227   0.293
 1348SOL    HW2 5942  12.512   8.285   0.196
 1349SOL     OW 5943   0.132   5.383   3.230
 1349SOL    HW1 5944   0.130   5.293   3.264
 1349SOL    HW2 5945   0.177   5.433   3.298
 1350SOL     OW 5946   1.189  10.185  10.949
 1350SOL    HW1 5947   1.175  10.164  11.041
 1350SOL    HW2 5948   1.230  10.272  10.950
 1351SOL     OW 5949   8.746   9.216   3.264
 1351SOL    HW1 5950   8.841   9.232   3.266
 1351SOL    HW2 5951   8.707   9.303   3.256
 1352SOL     OW 5952   1.335  11.303   3.297
 1352SOL    HW1 5953   1.257  11.287   3.243
 1352SOL    HW2 5954   1.308  11.279   3.386
 1353SOL     OW 5955   1.161  12.588  10.686
 1353SOL    HW1 5956   1.144  12.658  10.749
 1353SOL    HW2 5957   1.084  12.587  10.630
 1354SOL     OW 5958   0.700  12.602   0.653
 1354SOL    HW1 5959   0.728  12.648   0.574
 1354SOL    HW2 5960   0.660  12.670   0.707
 1355SOL     OW 5961   0.909   4.696  11.299
 1355SOL    HW1 5962   0.855   4.769  11.270
 1355SOL    HW2 5963   0.920   4.710  11.393
 1356SOL     OW 5964   3.124  10.180   2.616
 1356SOL    HW1 5965   3.091  10.095   2.646
 1356SOL    HW2 5966   3.047  10.224   2.580
 1357SOL     OW 5967   6.674   4.807   0.793
 1357SOL    HW1 5968   6.617   4.847   0.858
 1357SOL    HW2 5969   6.683   4.716   0.821
 1358SOL     OW 5970   3.932   5.615   0.591
 1358SOL    HW1 5971   3.904   5.525   0.605
 1358SOL    HW2 5972   4.024   5.609   0.566
 1359SOL     OW 5973   2.720  13.113   9.510
 1359SOL    HW1 5974   2.776  13.107   9.432
 1359SOL    HW2 5975   2.771  13.070   9.579
 1360SOL     OW 5976   8.064   9.653   0.953
 1360SOL    HW1 5977   8.066   9.562   0.980
 1360SOL    HW2 5978   8.063   9.650   0.857
 1361SOL     OW 5979   7.719  11.431  13.801
 1361SOL    HW1 5980   7.639  11.418  13.751
 1361SOL    HW2 5981   7.770  11.350  13.788
 1362SOL     OW 5982   7.106  13.707   1.404
 1362SOL    HW1 5983   7.111  13.621   1.446
 1362SOL    HW2 5984   7.025  13.704   1.353
 1363SOL     OW 5985   1.345   2.336   0.064
 1363SOL    HW1 5986   1.282   2.296   0.123
 1363SOL    HW2 5987   1.308   2.422   0.044
 1364SOL     OW 5988   4.393   6.066   7.305
 1364SOL    HW1 5989   4.400   6.094   7.396
 1364SOL    HW2 5990   4.328   6.126   7.267
 1365SOL     OW 5991   7.620   0.970   5.957
 1365SOL    HW1 5992   7.633   0.876   5.949
 1365SOL    HW2 5993   7.708   1.005   5.971
 1366SOL     OW 5994   8.217   1.796   7.789
 1366SOL    HW1 5995   8.185   1.877   7.829
 1366SOL    HW2 5996   8.308   1.814   7.768
 1367SOL     OW 5997  13.046   7.059   5.192
 1367SOL    HW1 5998  13.080   7.108   5.266
 1367SOL    HW2 5999  12.951   7.056   5.207
 1368SOL     OW 6000  14.387  12.910   6.228
 1368SOL    HW1 6001  14.340  12.956   6.298
 1368SOL    HW2 6002  14.479  12.922   6.250
 1369SOL     OW 6003   7.414   4.193   7.924
 1369SOL    HW1 6004   7.342   4.229   7.872
 1369SOL    HW2 6005   7.372   4.165   8.006
 1370SOL     OW 6006   3.962  11.192   6.120
 1370SOL    HW1 6007   3.926  11.280   6.109
 1370SOL    HW2 6008   4.031  11.186   6.054
 1371SOL     OW 6009  12.924   9.960  13.341
 1371SOL    HW1 6010  12.920   9.940  13.435
 1371SOL    HW2 6011  12.980   9.893  13.304
 1372SOL     OW 6012  12.580   9.598  13.298
 1372SOL    HW1 6013  12.530   9.555  13.367
 1372SOL    HW2 6014  12.516   9.652  13.252
 1373SOL     OW 6015   4.285  14.668   5.925
 1373SOL    HW1 6016   4.297  14.750   5.972
 1373SOL    HW2 6017   4.373  14.644   5.895
 1374SOL     OW 6018   0.147  11.118   5.286
 1374SOL    HW1 6019   0.104  11.076   5.212
 1374SOL    HW2 6020   0.230  11.072   5.296
 1375SOL     OW 6021  13.999  14.047  14.705
 1375SOL    HW1 6022  13.993  14.019  14.796
 1375SOL    HW2 6023  13.966  14.136  14.705
 1376SOL     OW 6024   3.468  10.058   9.207
 1376SOL    HW1 6025   3.469  10.074   9.301
 1376SOL    HW2 6026   3.469  10.145   9.168
 1377SOL     OW 6027   4.169  11.407   5.927
 1377SOL    HW1 6028   4.133  11.328   5.887
 1377SOL    HW2 6029   4.242  11.376   5.980
 1378SOL     OW 6030  14.464  12.609   1.304
 1378SOL    HW1 6031  14.520  12.582   1.377
 1378SOL    HW2 6032  14.375  12.587   1.333
 1379SOL     OW 6033   8.040   3.777   1.619
 1379SOL    HW1 6034   8.013   3.813   1.535
 1379SOL    HW2 6035   7.957   3.757   1.664
 1380SOL     OW 6036   8.578   0.745  13.207
 1380SOL    HW1 6037   8.666   0.715  13.185
 1380SOL    HW2 6038   8.569   0.828  13.160
 1381SOL     OW 6039   2.352   8.381  14.393
 1381SOL    HW1 6040   2.363   8.350  14.483
 1381SOL    HW2 6041   2.262   8.413  14.389
 1382SOL     OW 6042   0.941   8.686   0.906
 1382SOL    HW1 6043   0.943   8.610   0.848
 1382SOL    HW2 6044   1.029   8.691   0.942
 1383SOL     OW 6045  14.767  14.025  12.442
 1383SOL    HW1 6046  14.773  14.062  12.530
 1383SOL    HW2 6047  14.847  14.054  12.398
 1384SOL     OW 6048   5.485   7.865  14.520
 1384SOL    HW1 6049   5.472   7.921  14.444
 1384SOL    HW2 6050   5.423   7.793  14.507
 1385SOL     OW 6051   9.506   5.361  13.527
 1385SOL    HW1 6052   9.476   5.388  13.441
 1385SOL    HW2 6053   9.535   5.442  13.569
 1386SOL     OW 6054   5.343   4.374   2.632
 1386SOL    HW1 6055   5.435   4.370   2.657
 1386SOL    HW2 6056   5.303   4.298   2.676
 1387SOL     OW 6057   3.436  10.309   5.356
 1387SOL    HW1 6058   3.527  10.288   5.376
 1387SOL    HW2 6059   3.438  10.399   5.323
 1388SOL     OW 6060   8.372   4.051   9.622
 1388SOL    HW1 6061   8.413   4.056   9.536
 1388SOL    HW2 6062   8.434   4.001   9.675
 1389SOL     OW 6063   8.367  10.597   9.053
 1389SOL    HW1 6064   8.272  10.585   9.059
 1389SOL    HW2 6065   8.381  10.638   8.968
 1390SOL     OW 6066   5.680  11.939  13.736
 1390SOL    HW1 6067   5.681  11.843  13.732
 1390SOL    HW2 6068   5.587  11.961  13.740
 1391SOL     OW 6069   5.443   0.031   5.674
 1391SOL    HW1 6070   5.349   0.033   5.654
 1391SOL    HW2 6071   5.481  14.851   5.602
 1392SOL     OW 6072  12.444   6.620   2.761
 1392SOL    HW1 6073  12.381   6.613   2.833
 1392SOL    HW2 6074  12.460   6.530   2.735
 1393SOL     OW 6075   1.051   6.385   8.181
 1393SOL    HW1 6076   1.021   6.442   8.253
 1393SOL    HW2 6077   1.012   6.424   8.103
 1394SOL     OW 6078   8.747  14.844   0.681
 1394SOL    HW1 6079   8.755  14.783   0.754
 1394SOL    HW2 6080   8.653  14.846   0.661
 1395SOL     OW 6081   8.768  10.243  13.131
 1395SOL    HW1 6082   8.813  10.324  13.156
 1395SOL    HW2 6083   8.833  10.193  13.082
 1396SOL     OW 6084   3.837   3.639  12.672
 1396SOL    HW1 6085   3.871   3.593  12.596
 1396SOL    HW2 6086   3.873   3.727  12.666
 1397SOL     OW 6087   8.398   6.963   9.768
 1397SOL    HW1 6088   8.357   6.887   9.811
 1397SOL    HW2 6089   8.350   7.038   9.802
 1398SOL     OW 6090   6.046   5.156  10.214
 1398SOL    HW1 6091   6.002   5.131  10.132
 1398SOL    HW2 6092   6.089   5.239  10.193
 1399SOL     OW 6093   6.531   2.414   2.148
 1399SOL    HW1 6094   6.499   2.330   2.117
 1399SOL    HW2 6095   6.459   2.450   2.199
 1400SOL     OW 6096   9.670  13.741   7.158
 1400SOL    HW1 6097   9.728  13.817   7.169
 1400SOL    HW2 6098   9.722  13.667   7.188
 1401SOL     OW 6099   3.107  12.533  13.560
 1401SOL    HW1 6100   3.095  12.476  13.636
 1401SOL    HW2 6101   3.034  12.511  13.501
 1402SOL     OW 6102   5.889  10.302  14.636
 1402SOL    HW1 6103   5.908  10.218  14.677
 1402SOL    HW2 6104   5.975  10.345  14.629
 1403SOL     OW 6105   6.546   8.856   4.617
 1403SOL    HW1 6106   6.576   8.774   4.580
 1403SOL    HW2 6107   6.467   8.878   4.569
 1404SOL     OW 6108   9.870   6.310   0.261
 1404SOL    HW1 6109   9.907   6.345   0.342
 1404SOL    HW2 6110   9.825   6.384   0.222
 1405SOL     OW 6111   8.976   9.447   3.932
 1405SOL    HW1 6112   8.906   9.382   3.942
 1405SOL    HW2 6113   8.931   9.531   3.938
 1406SOL     OW 6114   3.861   4.932   2.094
 1406SOL    HW1 6115   3.892   4.942   2.004
 1406SOL    HW2 6116   3.766   4.919   2.086
 1407SOL     OW 6117   1.056   7.850  10.410
 1407SOL    HW1 6118   1.021   7.854  10.321
 1407SOL    HW2 6119   1.109   7.770  10.411
 1408SOL     OW 6120   9.421   1.503   2.824
 1408SOL    HW1 6121   9.422   1.412   2.853
 1408SOL    HW2 6122   9.465   1.550   2.896
 1409SOL     OW 6123   8.291   4.316   1.116
 1409SOL    HW1 6124   8.306   4.265   1.196
 1409SOL    HW2 6125   8.202   4.291   1.089
 1410SOL     OW 6126  12.124   0.250   7.041
 1410SOL    HW1 6127  12.123   0.190   6.966
 1410SOL    HW2 6128  12.065   0.321   7.016
 1411SOL     OW 6129  12.514   9.657   2.287
 1411SOL    HW1 6130  12.600   9.615   2.288
 1411SOL    HW2 6131  12.475   9.633   2.371
 1412SOL     OW 6132   0.751  10.385   4.680
 1412SOL    HW1 6133   0.689  10.453   4.655
 1412SOL    HW2 6134   0.831  10.433   4.702
 1413SOL     OW 6135   8.954  12.949  12.723
 1413SOL    HW1 6136   8.993  12.982  12.642
 1413SOL    HW2 6137   9.002  12.992  12.793
 1414SOL     OW 6138   1.748   0.570   3.975
 1414SOL    HW1 6139   1.703   0.491   3.944
 1414SOL    HW2 6140   1.756   0.559   4.069
 1415SOL     OW 6141   7.796   5.998   4.543
 1415SOL    HW1 6142   7.740   6.076   4.544
 1415SOL    HW2 6143   7.885   6.034   4.545
 1416SOL     OW 6144  14.416   8.421   9.207
 1416SOL    HW1 6145  14.351   8.472   9.256
 1416SOL    HW2 6146  14.400   8.443   9.115
 1417SOL     OW 6147  11.556   8.553  10.885
 1417SOL    HW1 6148  11.574   8.603  10.964
 1417SOL    HW2 6149  11.465   8.573  10.863
 1418SOL     OW 6150  13.148   0.984   2.746
 1418SOL    HW1 6151  13.222   1.035   2.778
 1418SOL    HW2 6152  13.076   1.047   2.741
 1419SOL     OW 6153   1.543   2.491  13.696
 1419SOL    HW1 6154   1.491   2.548  13.639
 1419SOL    HW2 6155   1.562   2.545  13.773
 1420SOL     OW 6156  11.355  10.721  11.568
 1420SOL    HW1 6157  11.366  10.786  11.499
 1420SOL    HW2 6158  11.317  10.770  11.641
 1421SOL     OW 6159  10.221   8.296   5.007
 1421SOL    HW1 6160  10.258   8.244   5.078
 1421SOL    HW2 6161  10.269   8.379   5.010
 1422SOL     OW 6162   0.302   7.456  11.482
 1422SOL    HW1 6163   0.222   7.440  11.532
 1422SOL    HW2 6164   0.284   7.421  11.395
 1423SOL     OW 6165   4.828   8.495   2.223
 1423SOL    HW1 6166   4.772   8.421   2.200
 1423SOL    HW2 6167   4.801   8.520   2.311
 1424SOL     OW 6168   5.714  12.975  14.005
 1424SOL    HW1 6169   5.642  12.964  14.066
 1424SOL    HW2 6170   5.681  13.035  13.938
 1425SOL     OW 6171   3.437  12.682  10.730
 1425SOL    HW1 6172   3.351  12.680  10.771
 1425SOL    HW2 6173   3.492  12.627  10.786
 1426SOL     OW 6174   1.258   4.360   5.213
 1426SOL    HW1 6175   1.260   4.268   5.239
 1426SOL    HW2 6176   1.243   4.357   5.118
 1427SOL     OW 6177   9.256   9.024   5.394
 1427SOL    HW1 6178   9.209   8.946   5.363
 1427SOL    HW2 6179   9.303   8.994   5.472
 1428SOL     OW 6180   4.222  10.475   4.235
 1428SOL    HW1 6181   4.207  10.536   4.162
 1428SOL    HW2 6182   4.318  10.471   4.242
 1429SOL     OW 6183  10.610  14.070   8.946
 1429SOL    HW1 6184  10.695  14.055   8.904
 1429SOL    HW2 6185  10.551  14.008   8.903
 1430SOL     OW 6186   2.353   7.258  13.595
 1430SOL    HW1 6187   2.314   7.306  13.668
 1430SOL    HW2 6188   2.369   7.325  13.529
 1431SOL     OW 6189   1.326   9.604   0.334
 1431SOL    HW1 6190   1.323   9.667   0.262
 1431SOL    HW2 6191   1.259   9.634   0.395
 1432SOL     OW 6192   4.872   7.689   6.277
 1432SOL    HW1 6193   4.866   7.758   6.342
 1432SOL    HW2 6194   4.943   7.716   6.219
 1433SOL     OW 6195   3.329  11.126   1.072
 1433SOL    HW1 6196   3.400  11.114   1.135
 1433SOL    HW2 6197   3.360  11.083   0.992
 1434SOL     OW 6198   4.709  10.206   5.298
 1434SOL    HW1 6199   4.755  10.181   5.218
 1434SOL    HW2 6200   4.641  10.139   5.309
 1435SOL     OW 6201   8.015   2.400   8.602
 1435SOL    HW1 6202   7.935   2.375   8.648
 1435SOL    HW2 6203   8.079   2.417   8.672
 1436SOL     OW 6204   7.903  14.631  11.676
 1436SOL    HW1 6205   7.817  14.606  11.644
 1436SOL    HW2 6206   7.900  14.614  11.770
 1437SOL     OW 6207   0.514   1.140   6.265
 1437SOL    HW1 6208   0.562   1.083   6.205
 1437SOL    HW2 6209   0.577   1.162   6.333
 1438SOL     OW 6210  10.830   7.904  14.429
 1438SOL    HW1 6211  10.878   7.869  14.504
 1438SOL    HW2 6212  10.898   7.940  14.371
 1439SOL     OW 6213   2.136   6.429   3.927
 1439SOL    HW1 6214   2.063   6.367   3.918
 1439SOL    HW2 6215   2.115   6.481   4.005
 1440SOL     OW 6216   7.286  12.439   6.521
 1440SOL    HW1 6217   7.213  12.489   6.558
 1440SOL    HW2 6218   7.344  12.506   6.484
 1441SOL     OW 6219  11.284  12.215   0.707
 1441SOL    HW1 6220  11.292  12.175   0.621
 1441SOL    HW2 6221  11.199  12.185   0.740
 1442SOL     OW 6222   6.180   9.783   9.910
 1442SOL    HW1 6223   6.159   9.873   9.883
 1442SOL    HW2 6224   6.095   9.741   9.922
 1443SOL     OW 6225   0.400   9.972   1.781
 1443SOL    HW1 6226   0.345   9.947   1.855
 1443SOL    HW2 6227   0.443  10.053   1.809
 1444SOL     OW 6228   6.550   9.312   5.986
 1444SOL    HW1 6229   6.568   9.383   6.048
 1444SOL    HW2 6230   6.455   9.310   5.979
 1445SOL     OW 6231   3.854   3.003  10.171
 1445SOL    HW1 6232   3.765   3.035  10.154
 1445SOL    HW2 6233   3.850   2.968  10.260
 1446SOL     OW 6234  11.207   6.875   2.805
 1446SOL    HW1 6235  11.130   6.918   2.841
 1446SOL    HW2 6236  11.197   6.884   2.710
 1447SOL     OW 6237   8.637   0.803   7.555
 1447SOL    HW1 6238   8.716   0.837   7.512
 1447SOL    HW2 6239   8.569   0.867   7.535
 1448SOL     OW 6240   8.921  14.708   3.450
 1448SOL    HW1 6241   8.901  14.618   3.476
 1448SOL    HW2 6242   8.852  14.730   3.387
 1449SOL     OW 6243   7.607   6.549   8.124
 1449SOL    HW1 6244   7.515   6.566   8.104
 1449SOL    HW2 6245   7.613   6.454   8.128
 1450SOL     OW 6246   1.519  11.538   7.555
 1450SOL    HW1 6247   1.494  11.449   7.581
 1450SOL    HW2 6248   1.576  11.568   7.626
 1451SOL     OW 6249   4.182   4.320   4.362
 1451SOL    HW1 6250   4.229   4.286   4.286
 1451SOL    HW2 6251   4.100   4.271   4.364
 1452SOL     OW 6252   7.673   4.805   8.230
 1452SOL    HW1 6253   7.695   4.730   8.175
 1452SOL    HW2 6254   7.586   4.785   8.264
 1453SOL     OW 6255  11.860  12.589   3.446
 1453SOL    HW1 6256  11.818  12.647   3.382
 1453SOL    HW2 6257  11.795  12.576   3.514
 1454SOL     OW 6258  12.330  10.000   7.749
 1454SOL    HW1 6259  12.244  10.026   7.783
 1454SOL    HW2 6260  12.361   9.934   7.811
 1455SOL     OW 6261   3.353   2.073   7.474
 1455SOL    HW1 6262   3.427   2.074   7.413
 1455SOL    HW2 6263   3.304   2.152   7.454
 1456SOL     OW 6264  10.163  11.293   6.192
 1456SOL    HW1 6265  10.123  11.302   6.106
 1456SOL    HW2 6266  10.172  11.383   6.225
 1457SOL     OW 6267   0.087   7.569   3.622
 1457SOL    HW1 6268   0.054   7.628   3.690
 1457SOL    HW2 6269   0.052   7.605   3.540
 1458SOL     OW 6270   9.495   4.070   7.215
 1458SOL    HW1 6271   9.585   4.074   7.183
 1458SOL    HW2 6272   9.445   4.032   7.143
 1459SOL     OW 6273   1.900  14.763  11.609
 1459SOL    HW1 6274   1.812  14.726  11.607
 1459SOL    HW2 6275   1.945  14.715  11.678
 1460SOL     OW 6276   3.028   7.134   5.891
 1460SOL    HW1 6277   3.040   7.061   5.830
 1460SOL    HW2 6278   3.097   7.123   5.956
 1461SOL     OW 6279  12.234   1.818  11.909
 1461SOL    HW1 6280  12.219   1.822  12.003
 1461SOL    HW2 6281  12.291   1.741  11.897
 1462SOL     OW 6282   9.978   3.997  12.592
 1462SOL    HW1 6283  10.039   3.973  12.522
 1462SOL    HW2 6284   9.912   3.929  12.591
 1463SOL     OW 6285   1.271   7.705  14.458
 1463SOL    HW1 6286   1.244   7.720  14.368
 1463SOL    HW2 6287   1.328   7.628  14.454
 1464SOL     OW 6288  10.823   0.913   4.223
 1464SOL    HW1 6289  10.804   1.003   4.197
 1464SOL    HW2 6290  10.748   0.888   4.278
 1465SOL     OW 6291   8.795   2.237   9.449
 1465SOL    HW1 6292   8.703   2.232   9.423
 1465SOL    HW2 6293   8.822   2.325   9.423
 1466SOL     OW 6294   4.299   5.565   4.818
 1466SOL    HW1 6295   4.375   5.509   4.834
 1466SOL    HW2 6296   4.331   5.653   4.834
 1467SOL     OW 6297   0.574   3.681  12.860
 1467SOL    HW1 6298   0.597   3.628  12.783
 1467SOL    HW2 6299   0.498   3.731  12.832
 1468SOL     OW 6300  12.449   3.588  12.296
 1468SOL    HW1 6301  12.542   3.601  12.312
 1468SOL    HW2 6302  12.421   3.669  12.253
 1469SOL     OW 6303   2.482   4.868   0.993
 1469SOL    HW1 6304   2.453   4.791   0.945
 1469SOL    HW2 6305   2.525   4.833   1.071
 1470SOL     OW 6306  10.606   0.167   9.236
 1470SOL    HW1 6307  10.519   0.127   9.238
 1470SOL    HW2 6308  10.663   0.101   9.198
 1471SOL     OW 6309  10.839   4.265  12.861
 1471SOL    HW1 6310  10.775   4.243  12.929
 1471SOL    HW2 6311  10.893   4.186  12.852
 1472SOL     OW 6312   3.367   8.471  10.308
 1472SOL    HW1 6313   3.321   8.399  10.265
 1472SOL    HW2 6314   3.306   8.501  10.376
 1473SOL     OW 6315   9.767  10.673   0.757
 1473SOL    HW1 6316   9.814  10.724   0.823
 1473SOL    HW2 6317   9.822  10.677   0.679
 1474SOL     OW 6318   7.527  12.902   9.887
 1474SOL    HW1 6319   7.570  12.932   9.807
 1474SOL    HW2 6320   7.434  12.901   9.866
 1475SOL     OW 6321   3.057   4.471   2.878
 1475SOL    HW1 6322   3.027   4.384   2.902
 1475SOL    HW2 6323   3.152   4.468   2.889
 1476SOL     OW 6324   6.742   3.309   6.278
 1476SOL    HW1 6325   6.812   3.296   6.214
 1476SOL    HW2 6326   6.721   3.402   6.274
 1477SOL     OW 6327   0.977   9.217  13.429
 1477SOL    HW1 6328   0.885   9.214  13.456
 1477SOL    HW2 6329   0.979   9.285  13.360
 1478SOL     OW 6330   7.343   5.235   2.506
 1478SOL    HW1 6331   7.258   5.204   2.538
 1478SOL    HW2 6332   7.322   5.318   2.463
 1479SOL     OW 6333   2.627   6.103  13.522
 1479SOL    HW1 6334   2.618   6.190  13.560
 1479SOL    HW2 6335   2.668   6.117  13.437
 1480SOL     OW 6336   8.564   8.590   8.819
 1480SOL    HW1 6337   8.477   8.608   8.783
 1480SOL    HW2 6338   8.572   8.495   8.814
 1481SOL     OW 6339  14.421   9.076   3.942
 1481SOL    HW1 6340  14.352   9.024   3.901
 1481SOL    HW2 6341  14.437   9.148   3.881
 1482SOL     OW 6342  10.669  14.304   5.127
 1482SOL    HW1 6343  10.682  14.333   5.218
 1482SOL    HW2 6344  10.756  14.277   5.098
 1483SOL     OW 6345   4.550   2.178   9.384
 1483SOL    HW1 6346   4.542   2.207   9.475
 1483SOL    HW2 6347   4.587   2.254   9.338
 1484SOL     OW 6348  13.729   4.561   7.185
 1484SOL    HW1 6349  13.719   4.654   7.206
 1484SOL    HW2 6350  13.693   4.516   7.262
 1485SOL     OW 6351   7.856  13.746   7.651
 1485SOL    HW1 6352   7.858  13.826   7.705
 1485SOL    HW2 6353   7.854  13.778   7.561
 1486SOL     OW 6354   5.374   2.676   9.331
 1486SOL    HW1 6355   5.418   2.604   9.285
 1486SOL    HW2 6356   5.431   2.696   9.405
 1487SOL     OW 6357  12.347   3.699   8.278
 1487SOL    HW1 6358  12.255   3.724   8.273
 1487SOL    HW2 6359  12.375   3.728   8.365
 1488SOL     OW 6360   9.750   7.583   0.089
 1488SOL    HW1 6361   9.836   7.612   0.120
 1488SOL    HW2 6362   9.690   7.651   0.118
 1489SOL     OW 6363   3.368   9.811   2.526
 1489SOL    HW1 6364   3.297   9.748   2.543
 1489SOL    HW2 6365   3.323   9.886   2.487
 1490SOL     OW 6366   4.277   9.679   2.048
 1490SOL    HW1 6367   4.243   9.768   2.052
 1490SOL    HW2 6368   4.340   9.674   2.120
 1491SOL     OW 6369   3.094   0.054   5.093
 1491SOL    HW1 6370   3.151  14.855   5.126
 1491SOL    HW2 6371   3.043   0.011   5.024
 1492SOL     OW 6372   2.841   8.137  14.847
 1492SOL    HW1 6373   2.752   8.103  14.856
 1492SOL    HW2 6374   2.832   8.213  14.790
 1493SOL     OW 6375   6.887   0.849   2.999
 1493SOL    HW1 6376   6.935   0.828   3.079
 1493SOL    HW2 6377   6.906   0.941   2.982
 1494SOL     OW 6378  11.980   5.538   8.688
 1494SOL    HW1 6379  11.914   5.491   8.740
 1494SOL    HW2 6380  12.055   5.545   8.747
 1495SOL     OW 6381  11.275  12.365   4.168
 1495SOL    HW1 6382  11.237  12.432   4.112
 1495SOL    HW2 6383  11.324  12.414   4.235
 1496SOL     OW 6384   5.876   8.565  13.273
 1496SOL    HW1 6385   5.912   8.494  13.220
 1496SOL    HW2 6386   5.873   8.529  13.362
 1497SOL     OW 6387   9.531   9.467   6.122
 1497SOL    HW1 6388   9.491   9.467   6.035
 1497SOL    HW2 6389   9.615   9.423   6.110
 1498SOL     OW 6390   3.917   6.865  10.346
 1498SOL    HW1 6391   3.848   6.798  10.348
 1498SOL    HW2 6392   3.979   6.836  10.413
 1499SOL     OW 6393   9.758   8.824  10.385
 1499SOL    HW1 6394   9.762   8.911  10.343
 1499SOL    HW2 6395   9.730   8.765  10.315
 1500SOL     OW 6396   3.029  12.154   7.005
 1500SOL    HW1 6397   2.974  12.081   7.035
 1500SOL    HW2 6398   3.011  12.224   7.068
 1501SOL     OW 6399  11.963  14.180   2.134
 1501SOL    HW1 6400  12.029  14.137   2.079
 1501SOL    HW2 6401  12.009  14.198   2.216
 1502SOL     OW 6402  13.541   5.747   1.584
 1502SOL    HW1 6403  13.534   5.807   1.658
 1502SOL    HW2 6404  13.477   5.780   1.521
 1503SOL     OW 6405   4.959  10.969   8.005
 1503SOL    HW1 6406   5.004  10.911   8.067
 1503SOL    HW2 6407   5.011  10.963   7.925
 1504SOL     OW 6408   2.938   4.113   8.396
 1504SOL    HW1 6409   2.854   4.133   8.354
 1504SOL    HW2 6410   2.997   4.181   8.364
 1505SOL     OW 6411   9.956   6.531   3.061
 1505SOL    HW1 6412   9.935   6.585   3.137
 1505SOL    HW2 6413  10.015   6.463   3.094
 1506SOL     OW 6414   0.983  10.488   9.049
 1506SOL    HW1 6415   0.937  10.424   8.994
 1506SOL    HW2 6416   1.075  10.463   9.044
 1507SOL     OW 6417   2.828   9.312   5.358
 1507SOL    HW1 6418   2.922   9.312   5.343
 1507SOL    HW2 6419   2.791   9.359   5.283
 1508SOL     OW 6420   3.691   0.523  13.409
 1508SOL    HW1 6421   3.597   0.505  13.417
 1508SOL    HW2 6422   3.722   0.457  13.346
 1509SOL     OW 6423   7.894  14.869  13.865
 1509SOL    HW1 6424   7.849   0.064  13.809
 1509SOL    HW2 6425   7.987   0.020  13.855
 1510SOL     OW 6426   7.121   8.406   7.677
 1510SOL    HW1 6427   7.040   8.354   7.682
 1510SOL    HW2 6428   7.187   8.351   7.719
 1511SOL     OW 6429  14.676   1.980   5.936
 1511SOL    HW1 6430  14.644   2.010   5.851
 1511SOL    HW2 6431  14.610   2.011   5.998
 1512SOL     OW 6432  10.117  14.809  10.780
 1512SOL    HW1 6433  10.191  14.850  10.823
 1512SOL    HW2 6434  10.132  14.715  10.792
 1513SOL     OW 6435   3.638   8.777   2.316
 1513SOL    HW1 6436   3.660   8.798   2.407
 1513SOL    HW2 6437   3.565   8.715   2.323
 1514SOL     OW 6438   8.309   2.477   4.830
 1514SOL    HW1 6439   8.217   2.479   4.855
 1514SOL    HW2 6440   8.320   2.553   4.773
 1515SOL     OW 6441   8.050  10.266   8.721
 1515SOL    HW1 6442   7.984  10.304   8.663
 1515SOL    HW2 6443   8.121  10.330   8.721
 1516SOL     OW 6444   5.203  13.336   9.968
 1516SOL    HW1 6445   5.222  13.406  10.030
 1516SOL    HW2 6446   5.147  13.275  10.016
 1517SOL     OW 6447  11.236  10.962   2.579
 1517SOL    HW1 6448  11.244  11.041   2.525
 1517SOL    HW2 6449  11.324  10.924   2.580
 1518SOL     OW 6450  12.749   2.398  13.196
 1518SOL    HW1 6451  12.697   2.331  13.153
 1518SOL    HW2 6452  12.694   2.428  13.269
 1519SOL     OW 6453  10.165   3.027   3.574
 1519SOL    HW1 6454  10.183   2.980   3.493
 1519SOL    HW2 6455  10.250   3.035   3.617
 1520SOL     OW 6456   9.075   1.049   6.484
 1520SOL    HW1 6457   8.980   1.053   6.473
 1520SOL    HW2 6458   9.092   0.957   6.505
 1521SOL     OW 6459  12.804  11.978  12.905
 1521SOL    HW1 6460  12.749  12.003  12.831
 1521SOL    HW2 6461  12.780  11.888  12.924
 1522SOL     OW 6462  13.869   8.329   1.778
 1522SOL    HW1 6463  13.854   8.246   1.735
 1522SOL    HW2 6464  13.942   8.313   1.839
 1523SOL     OW 6465   5.637  10.691  11.985
 1523SOL    HW1 6466   5.705  10.654  11.929
 1523SOL    HW2 6467   5.555  10.670  11.940
 1524SOL     OW 6468  13.080   9.533  11.141
 1524SOL    HW1 6469  13.092   9.561  11.050
 1524SOL    HW2 6470  13.167   9.508  11.171
 1525SOL     OW 6471   1.852  12.737   6.948
 1525SOL    HW1 6472   1.882  12.694   6.868
 1525SOL    HW2 6473   1.886  12.826   6.943
 1526SOL     OW 6474  12.192  13.250  13.631
 1526SOL    HW1 6475  12.157  13.164  13.652
 1526SOL    HW2 6476  12.198  13.295  13.715
 1527SOL     OW 6477  12.262  14.700   1.261
 1527SOL    HW1 6478  12.312  14.746   1.328
 1527SOL    HW2 6479  12.219  14.629   1.308
 1528SOL     OW 6480  13.033  10.051   5.075
 1528SOL    HW1 6481  12.958  10.003   5.110
 1528SOL    HW2 6482  13.002  10.089   4.993
 1529SOL     OW 6483   4.030   1.441   8.356
 1529SOL    HW1 6484   3.996   1.356   8.384
 1529SOL    HW2 6485   4.071   1.424   8.271
 1530SOL     OW 6486  10.848   7.537   1.103
 1530SOL    HW1 6487  10.877   7.446   1.111
 1530SOL    HW2 6488  10.753   7.533   1.110
 1531SOL     OW 6489   4.452   4.627  10.421
 1531SOL    HW1 6490   4.404   4.687  10.478
 1531SOL    HW2 6491   4.544   4.643  10.441
 1532SOL     OW 6492  11.741   3.935   8.895
 1532SOL    HW1 6493  11.724   3.871   8.965
 1532SOL    HW2 6494  11.824   3.907   8.857
 1533SOL     OW 6495  10.991   4.204  12.508
 1533SOL    HW1 6496  11.083   4.186  12.527
 1533SOL    HW2 6497  10.978   4.295  12.537
 1534SOL     OW 6498   9.344   0.536   4.281
 1534SOL    HW1 6499   9.377   0.446   4.278
 1534SOL    HW2 6500   9.326   0.558   4.190
 1535SOL     OW 6501   1.250   3.759   1.510
 1535SOL    HW1 6502   1.323   3.706   1.480
 1535SOL    HW2 6503   1.176   3.698   1.516
 1536SOL     OW 6504   3.154  12.824  11.539
 1536SOL    HW1 6505   3.147  12.909  11.495
 1536SOL    HW2 6506   3.189  12.845  11.626
 1537SOL     OW 6507   5.278  12.854  14.280
 1537SOL    HW1 6508   5.308  12.845  14.371
 1537SOL    HW2 6509   5.355  12.831  14.228
 1538SOL     OW 6510  11.753  14.448  10.072
 1538SOL    HW1 6511  11.786  14.507  10.005
 1538SOL    HW2 6512  11.658  14.461  10.070
 1539SOL     OW 6513   1.509  10.521   2.276
 1539SOL    HW1 6514   1.417  10.497   2.268
 1539SOL    HW2 6515   1.539  10.534   2.186
 1540SOL     OW 6516  10.110  14.802   8.361
 1540SOL    HW1 6517  10.084  14.788   8.452
 1540SOL    HW2 6518  10.060  14.737   8.312
 1541SOL     OW 6519  12.075   0.785   4.656
 1541SOL    HW1 6520  12.161   0.780   4.698
 1541SOL    HW2 6521  12.062   0.878   4.640
 1542SOL     OW 6522   3.759   6.756  10.610
 1542SOL    HW1 6523   3.703   6.832  10.624
 1542SOL    HW2 6524   3.818   6.755  10.686
 1543SOL     OW 6525  13.293   5.041  14.613
 1543SOL    HW1 6526  13.273   4.950  14.593
 1543SOL    HW2 6527  13.209   5.086  14.610
 1544SOL     OW 6528   2.092   8.615  11.244
 1544SOL    HW1 6529   2.061   8.705  11.256
 1544SOL    HW2 6530   2.087   8.576  11.331
 1545SOL     OW 6531   0.600  14.676  11.675
 1545SOL    HW1 6532   0.594  14.580  11.670
 1545SOL    HW2 6533   0.691  14.693  11.698
 1546SOL     OW 6534   4.409   4.927  14.648
 1546SOL    HW1 6535   4.364   4.987  14.588
 1546SOL    HW2 6536   4.360   4.845  14.641
 1547SOL     OW 6537   9.560   4.073   2.948
 1547SOL    HW1 6538   9.572   4.009   2.879
 1547SOL    HW2 6539   9.519   4.148   2.904
 1548SOL     OW 6540   4.892   5.170  12.813
 1548SOL    HW1 6541   4.926   5.199  12.898
 1548SOL    HW2 6542   4.823   5.232  12.792
 1549SOL     OW 6543  11.032   5.566   0.964
 1549SOL    HW1 6544  11.108   5.620   0.985
 1549SOL    HW2 6545  10.998   5.603   0.883
 1550SOL     OW 6546  13.844   6.729   9.711
 1550SOL    HW1 6547  13.790   6.671   9.764
 1550SOL    HW2 6548  13.912   6.761   9.770
 1551SOL     OW 6549   3.450   4.618  12.985
 1551SOL    HW1 6550   3.371   4.571  13.012
 1551SOL    HW2 6551   3.504   4.551  12.943
 1552SOL     OW 6552   6.256   1.152   1.161
 1552SOL    HW1 6553   6.171   1.110   1.177
 1552SOL    HW2 6554   6.302   1.145   1.245
 1553SOL     OW 6555   2.693   2.108   9.125
 1553SOL    HW1 6556   2.655   2.125   9.039
 1553SOL    HW2 6557   2.658   2.023   9.151
 1554SOL     OW 6558   3.859   4.289  14.412
 1554SOL    HW1 6559   3.877   4.354  14.345
 1554SOL    HW2 6560   3.937   4.289  14.468
 1555SOL     OW 6561   5.912  12.150  11.397
 1555SOL    HW1 6562   5.863  12.198  11.330
 1555SOL    HW2 6563   5.845  12.113  11.454
 1556SOL     OW 6564   7.437   9.524   1.021
 1556SOL    HW1 6565   7.342   9.519   1.037
 1556SOL    HW2 6566   7.445   9.540   0.927
 1557SOL     OW 6567   5.974   4.930   8.580
 1557SOL    HW1 6568   6.003   4.839   8.574
 1557SOL    HW2 6569   5.878   4.924   8.578
 1558SOL     OW 6570   0.535   5.428   6.065
 1558SOL    HW1 6571   0.459   5.383   6.103
 1558SOL    HW2 6572   0.578   5.362   6.011
 1559SOL     OW 6573  11.665   7.547   5.037
 1559SOL    HW1 6574  11.676   7.550   5.132
 1559SOL    HW2 6575  11.618   7.466   5.020
 1560SOL     OW 6576  14.368   2.373   1.400
 1560SOL    HW1 6577  14.294   2.419   1.439
 1560SOL    HW2 6578  14.421   2.442   1.360
 1561SOL     OW 6579   2.466   8.579   2.284
 1561SOL    HW1 6580   2.532   8.515   2.313
 1561SOL    HW2 6581   2.394   8.525   2.250
 1562SOL     OW 6582   3.999   6.959  10.798
 1562SOL    HW1 6583   4.048   7.038  10.819
 1562SOL    HW2 6584   3.953   6.936  10.878
 1563SOL     OW 6585   8.361   6.984  14.304
 1563SOL    HW1 6586   8.439   7.040  14.302
 1563SOL    HW2 6587   8.390   6.901  14.266
 1564SOL     OW 6588   7.807   2.315  14.682
 1564SOL    HW1 6589   7.847   2.323  14.595
 1564SOL    HW2 6590   7.718   2.349  14.670
 1565SOL     OW 6591  12.553   6.836   2.651
 1565SOL    HW1 6592  12.511   6.773   2.710
 1565SOL    HW2 6593  12.643   6.842   2.682
 1566SOL     OW 6594   3.275   3.980  11.278
 1566SOL    HW1 6595   3.322   4.029  11.346
 1566SOL    HW2 6596   3.281   3.889  11.305
 1567SOL     OW 6597   8.804   2.483   4.060
 1567SOL    HW1 6598   8.836   2.559   4.012
 1567SOL    HW2 6599   8.814   2.410   3.998
 1568SOL     OW 6600  14.601  11.820   1.169
 1568SOL    HW1 6601  14.512  11.852   1.183
 1568SOL    HW2 6602  14.632  11.867   1.092
 1569SOL     OW 6603  13.396   2.931  11.905
 1569SOL    HW1 6604  13.444   2.951  11.825
 1569SOL    HW2 6605  13.322   2.877  11.875
 1570SOL     OW 6606   3.936   7.278   6.763
 1570SOL    HW1 6607   3.854   7.275   6.713
 1570SOL    HW2 6608   3.923   7.215   6.834
 1571SOL     OW 6609   4.932  10.455   8.143
 1571SOL    HW1 6610   4.933  10.366   8.180
 1571SOL    HW2 6611   4.963  10.511   8.215
 1572SOL     OW 6612  11.781   8.570   3.240
 1572SOL    HW1 6613  11.704   8.515   3.253
 1572SOL    HW2 6614  11.787   8.582   3.145
 1573SOL     OW 6615   0.916   8.845  10.893
 1573SOL    HW1 6616   0.915   8.918  10.955
 1573SOL    HW2 6617   0.993   8.794  10.919
 1574SOL     OW 6618  13.967  12.246  10.836
 1574SOL    HW1 6619  14.006  12.320  10.789
 1574SOL    HW2 6620  13.881  12.234  10.794
 1575SOL     OW 6621   6.182   9.410  13.382
 1575SOL    HW1 6622   6.228   9.335  13.418
 1575SOL    HW2 6623   6.223   9.486  13.424
 1576SOL     OW 6624   2.958   1.439   3.478
 1576SOL    HW1 6625   2.927   1.384   3.550
 1576SOL    HW2 6626   2.878   1.462   3.430
 1577SOL     OW 6627   7.850  12.534   7.732
 1577SOL    HW1 6628   7.814  12.597   7.795
 1577SOL    HW2 6629   7.928  12.499   7.775
 1578SOL     OW 6630   5.186  14.742   1.031
 1578SOL    HW1 6631   5.204  14.650   1.048
 1578SOL    HW2 6632   5.231  14.761   0.949
 1579SOL     OW 6633   3.967   3.508   5.602
 1579SOL    HW1 6634   4.023   3.491   5.678
 1579SOL    HW2 6635   3.893   3.557   5.638
 1580SOL     OW 6636   6.964   3.735   6.518
 1580SOL    HW1 6637   6.991   3.704   6.605
 1580SOL    HW2 6638   7.035   3.792   6.490
 1581SOL     OW 6639   6.958  11.286  14.820
 1581SOL    HW1 6640   7.027  11.337  14.863
 1581SOL    HW2 6641   6.902  11.256   0.021
 1582SOL     OW 6642   9.454   5.139   5.422
 1582SOL    HW1 6643   9.376   5.095   5.390
 1582SOL    HW2 6644   9.527   5.086   5.390
 1583SOL     OW 6645   4.167  10.415  11.604
 1583SOL    HW1 6646   4.250  10.368  11.614
 1583SOL    HW2 6647   4.193  10.503  11.575
 1584SOL     OW 6648   2.631  10.372   1.819
 1584SOL    HW1 6649   2.602  10.462   1.835
 1584SOL    HW2 6650   2.569  10.339   1.754
 1585SOL     OW 6651   5.723  13.839   4.372
 1585SOL    HW1 6652   5.768  13.760   4.402
 1585SOL    HW2 6653   5.646  13.806   4.326
 1586SOL     OW 6654  12.314   3.767  13.257
 1586SOL    HW1 6655  12.242   3.777  13.195
 1586SOL    HW2 6656  12.295   3.685  13.303
 1587SOL     OW 6657  13.240  10.216   0.868
 1587SOL    HW1 6658  13.319  10.174   0.902
 1587SOL    HW2 6659  13.235  10.186   0.777
 1588SOL     OW 6660   4.381  11.909   6.010
 1588SOL    HW1 6661   4.378  11.814   6.025
 1588SOL    HW2 6662   4.429  11.919   5.928
 1589SOL     OW 6663   5.784  14.206   9.890
 1589SOL    HW1 6664   5.795  14.133   9.951
 1589SOL    HW2 6665   5.865  14.207   9.838
 1590SOL     OW 6666   8.303  10.971   4.865
 1590SOL    HW1 6667   8.387  10.984   4.909
 1590SOL    HW2 6668   8.282  10.879   4.881
 1591SOL     OW 6669   0.102   4.546   2.853
 1591SOL    HW1 6670   0.093   4.452   2.838
 1591SOL    HW2 6671   0.117   4.583   2.766
 1592SOL     OW 6672  10.279  13.292   0.526
 1592SOL    HW1 6673  10.291  13.352   0.600
 1592SOL    HW2 6674  10.204  13.326   0.478
 1593SOL     OW 6675   0.200   9.685   5.190
 1593SOL    HW1 6676   0.131   9.623   5.165
 1593SOL    HW2 6677   0.153   9.756   5.234
 1594SOL     OW 6678  10.212  12.016   9.509
 1594SOL    HW1 6679  10.181  12.048   9.425
 1594SOL    HW2 6680  10.140  12.031   9.569
 1595SOL     OW 6681   6.609   5.820  13.726
 1595SOL    HW1 6682   6.604   5.859  13.813
 1595SOL    HW2 6683   6.665   5.744  13.737
 1596SOL     OW 6684   5.594  13.842   4.832
 1596SOL    HW1 6685   5.688  13.858   4.817
 1596SOL    HW2 6686   5.589  13.821   4.925
 1597SOL     OW 6687   4.897   3.250  13.332
 1597SOL    HW1 6688   4.847   3.203  13.265
 1597SOL    HW2 6689   4.889   3.195  13.411
 1598SOL     OW 6690   2.772   8.847  11.261
 1598SOL    HW1 6691   2.866   8.855  11.276
 1598SOL    HW2 6692   2.765   8.777  11.196
 1599SOL     OW 6693   9.897   7.082   9.999
 1599SOL    HW1 6694   9.820   7.054   9.949
 1599SOL    HW2 6695   9.962   7.103   9.932
 1600SOL     OW 6696   9.276   3.610  14.465
 1600SOL    HW1 6697   9.323   3.573  14.540
 1600SOL    HW2 6698   9.340   3.666  14.421
 1601SOL     OW 6699   1.385   7.003  13.075
 1601SOL    HW1 6700   1.469   6.984  13.033
 1601SOL    HW2 6701   1.324   6.938  13.038
 1602SOL     OW 6702   9.301   5.695   6.878
 1602SOL    HW1 6703   9.281   5.632   6.809
 1602SOL    HW2 6704   9.388   5.729   6.856
 1603SOL     OW 6705   0.256   0.937   1.728
 1603SOL    HW1 6706   0.277   0.991   1.652
 1603SOL    HW2 6707   0.175   0.975   1.763
 1604SOL     OW 6708  11.739   5.571   3.967
 1604SOL    HW1 6709  11.721   5.537   3.879
 1604SOL    HW2 6710  11.664   5.628   3.986
 1605SOL     OW 6711   4.653   2.782  10.868
 1605SOL    HW1 6712   4.628   2.691  10.856
 1605SOL    HW2 6713   4.603   2.829  10.801
 1606SOL     OW 6714  10.413   9.559   5.756
 1606SOL    HW1 6715  10.456   9.510   5.686
 1606SOL    HW2 6716  10.352   9.617   5.710
 1607SOL     OW 6717   0.517   5.995   2.887
 1607SOL    HW1 6718   0.487   6.002   2.978
 1607SOL    HW2 6719   0.565   5.912   2.884
 1608SOL     OW 6720   7.784   4.446   4.739
 1608SOL    HW1 6721   7.731   4.386   4.686
 1608SOL    HW2 6722   7.724   4.519   4.758
 1609SOL     OW 6723   3.515   2.829  12.709
 1609SOL    HW1 6724   3.596   2.779  12.715
 1609SOL    HW2 6725   3.482   2.810  12.621
 1610SOL     OW 6726   7.976  13.523   3.684
 1610SOL    HW1 6727   7.886  13.500   3.659
 1610SOL    HW2 6728   7.966  13.583   3.758
 1611SOL     OW 6729  14.774   5.794   1.626
 1611SOL    HW1 6730  14.770   5.742   1.706
 1611SOL    HW2 6731  14.690   5.779   1.583
 1612SOL     OW 6732  14.127  11.421   7.196
 1612SOL    HW1 6733  14.135  11.516   7.194
 1612SOL    HW2 6734  14.217  11.389   7.194
 1613SOL     OW 6735   4.374   9.777   8.970
 1613SOL    HW1 6736   4.452   9.743   9.014
 1613SOL    HW2 6737   4.337   9.840   9.032
 1614SOL     OW 6738   2.205   3.385   3.262
 1614SOL    HW1 6739   2.252   3.339   3.331
 1614SOL    HW2 6740   2.271   3.404   3.195
 1615SOL     OW 6741   8.649   8.625   7.124
 1615SOL    HW1 6742   8.655   8.704   7.069
 1615SOL    HW2 6743   8.639   8.554   7.062
 1616SOL     OW 6744   4.766   4.176  14.301
 1616SOL    HW1 6745   4.790   4.227  14.223
 1616SOL    HW2 6746   4.741   4.091  14.267
 1617SOL     OW 6747   9.382  12.658  12.894
 1617SOL    HW1 6748   9.330  12.710  12.833
 1617SOL    HW2 6749   9.385  12.571  12.854
 1618SOL     OW 6750  13.530   4.581   5.429
 1618SOL    HW1 6751  13.512   4.526   5.353
 1618SOL    HW2 6752  13.594   4.532   5.480
 1619SOL     OW 6753   5.039  12.076  11.006
 1619SOL    HW1 6754   4.988  12.081  11.087
 1619SOL    HW2 6755   5.114  12.021  11.028
 1620SOL     OW 6756   7.185   4.537   7.206
 1620SOL    HW1 6757   7.225   4.560   7.290
 1620SOL    HW2 6758   7.152   4.620   7.172
 1621SOL     OW 6759   4.445   2.648   9.328
 1621SOL    HW1 6760   4.523   2.594   9.343
 1621SOL    HW2 6761   4.458   2.683   9.240
 1622SOL     OW 6762  14.712  11.795   9.382
 1622SOL    HW1 6763  14.644  11.748   9.333
 1622SOL    HW2 6764  14.793  11.779   9.333
 1623SOL     OW 6765  14.113   8.388  11.204
 1623SOL    HW1 6766  14.184   8.413  11.145
 1623SOL    HW2 6767  14.094   8.468  11.253
 1624SOL     OW 6768   5.074   2.085   5.172
 1624SOL    HW1 6769   4.981   2.098   5.185
 1624SOL    HW2 6770   5.080   2.021   5.100
 1625SOL     OW 6771   6.470   2.607   8.385
 1625SOL    HW1 6772   6.496   2.673   8.449
 1625SOL    HW2 6773   6.390   2.642   8.346
 1626SOL     OW 6774  12.184  10.446   0.632
 1626SOL    HW1 6775  12.154  10.454   0.722
 1626SOL    HW2 6776  12.153  10.525   0.588
 1627SOL     OW 6777   4.340   5.064   9.203
 1627SOL    HW1 6778   4.383   5.098   9.281
 1627SOL    HW2 6779   4.342   5.137   9.141
 1628SOL     OW 6780  14.867   0.560  13.053
 1628SOL    HW1 6781   0.041   0.520  13.129
 1628SOL    HW2 6782  14.861   0.652  13.076
 1629SOL     OW 6783   5.677   6.571   8.450
 1629SOL    HW1 6784   5.613   6.521   8.501
 1629SOL    HW2 6785   5.748   6.590   8.512
 1630SOL     OW 6786   1.276  13.501   6.795
 1630SOL    HW1 6787   1.346  13.441   6.820
 1630SOL    HW2 6788   1.228  13.455   6.727
 1631SOL     OW 6789   2.023   7.012  12.944
 1631SOL    HW1 6790   1.943   7.057  12.972
 1631SOL    HW2 6791   2.009   6.994  12.852
 1632SOL     OW 6792  13.559   4.349  13.108
 1632SOL    HW1 6793  13.497   4.280  13.084
 1632SOL    HW2 6794  13.568   4.402  13.028
 1633SOL     OW 6795  12.828   2.194   3.468
 1633SOL    HW1 6796  12.909   2.244   3.476
 1633SOL    HW2 6797  12.846   2.113   3.515
 1634SOL     OW 6798  10.979   4.965   9.355
 1634SOL    HW1 6799  11.050   4.956   9.291
 1634SOL    HW2 6800  10.916   4.897   9.331
 1635SOL     OW 6801   4.800   8.382   5.723
 1635SOL    HW1 6802   4.779   8.472   5.750
 1635SOL    HW2 6803   4.893   8.373   5.742
 1636SOL     OW 6804  14.442  12.301   8.773
 1636SOL    HW1 6805  14.359  12.316   8.817
 1636SOL    HW2 6806  14.424  12.231   8.710
 1637SOL     OW 6807   4.803   3.263  11.377
 1637SOL    HW1 6808   4.890   3.293  11.350
 1637SOL    HW2 6809   4.819   3.213  11.457
 1638SOL     OW 6810  10.775   1.883   4.719
 1638SOL    HW1 6811  10.869   1.892   4.702
 1638SOL    HW2 6812  10.761   1.789   4.728
 1639SOL     OW 6813  13.399   8.944   3.526
 1639SOL    HW1 6814  13.481   8.990   3.538
 1639SOL    HW2 6815  13.331   9.008   3.548
 1640SOL     OW 6816   5.917  13.321  12.154
 1640SOL    HW1 6817   5.840  13.277  12.116
 1640SOL    HW2 6818   5.891  13.341  12.244
 1641SOL     OW 6819   4.634  11.005  11.654
 1641SOL    HW1 6820   4.668  10.951  11.583
 1641SOL    HW2 6821   4.540  11.006  11.640
 1642SOL     OW 6822  12.304   0.996   3.300
 1642SOL    HW1 6823  12.258   0.922   3.339
 1642SOL    HW2 6824  12.318   1.056   3.373
 1643SOL     OW 6825   4.616  13.849  12.531
 1643SOL    HW1 6826   4.538  13.798  12.554
 1643SOL    HW2 6827   4.637  13.820  12.442
 1644SOL     OW 6828   6.000  14.486  11.220
 1644SOL    HW1 6829   6.056  14.419  11.180
 1644SOL    HW2 6830   5.976  14.544  11.148
 1645SOL     OW 6831  10.299   1.861   5.604
 1645SOL    HW1 6832  10.242   1.860   5.527
 1645SOL    HW2 6833  10.381   1.821   5.574
 1646SOL     OW 6834   8.156   6.921   4.846
 1646SOL    HW1 6835   8.151   6.928   4.941
 1646SOL    HW2 6836   8.150   6.827   4.829
 1647SOL     OW 6837   2.123   5.891  13.263
 1647SOL    HW1 6838   2.196   5.920  13.318
 1647SOL    HW2 6839   2.114   5.960  13.197
 1648SOL     OW 6840   3.591   1.129  10.945
 1648SOL    HW1 6841   3.606   1.154  11.036
 1648SOL    HW2 6842   3.559   1.210  10.904
 1649SOL     OW 6843   9.785   0.321  12.948
 1649SOL    HW1 6844   9.821   0.248  12.897
 1649SOL    HW2 6845   9.729   0.279  13.013
 1650SOL     OW 6846  11.473  10.304  13.584
 1650SOL    HW1 6847  11.391  10.328  13.540
 1650SOL    HW2 6848  11.490  10.214  13.554
 1651SOL     OW 6849  13.074   8.157   1.013
 1651SOL    HW1 6850  13.053   8.251   1.016
 1651SOL    HW2 6851  13.168   8.153   1.028
 1652SOL     OW 6852   5.495  10.550   5.401
 1652SOL    HW1 6853   5.518  10.638   5.432
 1652SOL    HW2 6854   5.438  10.565   5.326
 1653SOL     OW 6855   5.638  12.580  14.308
 1653SOL    HW1 6856   5.636  12.486  14.289
 1653SOL    HW2 6857   5.729  12.598  14.333
 1654SOL     OW 6858   7.336   3.643   0.880
 1654SOL    HW1 6859   7.424   3.659   0.912
 1654SOL    HW2 6860   7.348   3.605   0.792
 1655SOL     OW 6861   0.085   0.945   4.400
 1655SOL    HW1 6862   0.101   1.027   4.353
 1655SOL    HW2 6863  14.868   0.918   4.371
 1656SOL     OW 6864  10.025   1.872   3.344
 1656SOL    HW1 6865  10.044   1.960   3.376
 1656SOL    HW2 6866  10.099   1.820   3.374
 1657SOL     OW 6867  11.680  14.371   7.475
 1657SOL    HW1 6868  11.727  14.444   7.434
 1657SOL    HW2 6869  11.743  14.299   7.474
 1658SOL     OW 6870   0.241  11.930  14.783
 1658SOL    HW1 6871   0.242  11.915  14.689
 1658SOL    HW2 6872   0.242  12.025  14.792
 1659SOL     OW 6873   8.300   7.040   6.685
 1659SOL    HW1 6874   8.265   7.103   6.748
 1659SOL    HW2 6875   8.273   7.075   6.600
 1660SOL     OW 6876   2.174   2.996   4.136
 1660SOL    HW1 6877   2.111   3.035   4.197
 1660SOL    HW2 6878   2.174   2.903   4.158
 1661SOL     OW 6879   7.238   1.957  12.746
 1661SOL    HW1 6880   7.281   1.886  12.792
 1661SOL    HW2 6881   7.309   2.008  12.708
 1662SOL     OW 6882   3.982  12.788   5.033
 1662SOL    HW1 6883   3.917  12.853   5.007
 1662SOL    HW2 6884   3.935  12.729   5.092
 1663SOL     OW 6885   5.651   7.324   0.781
 1663SOL    HW1 6886   5.732   7.371   0.759
 1663SOL    HW2 6887   5.600   7.387   0.831
 1664SOL     OW 6888   7.405   8.894  14.238
 1664SOL    HW1 6889   7.495   8.923  14.222
 1664SOL    HW2 6890   7.393   8.903  14.332
 1665SOL     OW 6891  11.756   3.125   2.741
 1665SOL    HW1 6892  11.665   3.109   2.764
 1665SOL    HW2 6893  11.796   3.157   2.821
 1666SOL     OW 6894   4.613   5.428   1.301
 1666SOL    HW1 6895   4.629   5.495   1.367
 1666SOL    HW2 6896   4.690   5.371   1.305
 1667SOL     OW 6897   1.655   6.094  13.231
 1667SOL    HW1 6898   1.582   6.033  13.213
 1667SOL    HW2 6899   1.731   6.053  13.190
 1668SOL     OW 6900   0.304  10.972   8.724
 1668SOL    HW1 6901   0.341  10.935   8.644
 1668SOL    HW2 6902   0.307  10.900   8.787
 1669SOL     OW 6903   2.874   0.914   8.975
 1669SOL    HW1 6904   2.958   0.896   8.933
 1669SOL    HW2 6905   2.843   0.828   9.005
 1670SOL     OW 6906   0.445   6.300   1.122
 1670SOL    HW1 6907   0.385   6.362   1.164
 1670SOL    HW2 6908   0.460   6.232   1.188
 1671SOL     OW 6909   3.194   8.945   7.270
 1671SOL    HW1 6910   3.214   8.966   7.361
 1671SOL    HW2 6911   3.099   8.942   7.265
 1672SOL     OW 6912   5.191  11.740  12.923
 1672SOL    HW1 6913   5.108  11.746  12.970
 1672SOL    HW2 6914   5.199  11.824  12.876
 1673SOL     OW 6915  10.977   1.039   0.587
 1673SOL    HW1 6916  10.920   1.115   0.574
 1673SOL    HW2 6917  10.920   0.964   0.572
 1674SOL     OW 6918   1.439   7.802   6.433
 1674SOL    HW1 6919   1.358   7.845   6.407
 1674SOL    HW2 6920   1.483   7.781   6.351
 1675SOL     OW 6921  14.091   2.863   8.873
 1675SOL    HW1 6922  14.034   2.938   8.890
 1675SOL    HW2 6923  14.155   2.895   8.810
 1676SOL     OW 6924   8.206   1.103   4.376
 1676SOL    HW1 6925   8.291   1.058   4.374
 1676SOL    HW2 6926   8.142   1.033   4.387
 1677SOL     OW 6927   0.569   3.773  12.006
 1677SOL    HW1 6928   0.598   3.726  11.928
 1677SOL    HW2 6929   0.474   3.760  12.008
 1678SOL     OW 6930   2.395   3.546  11.963
 1678SOL    HW1 6931   2.319   3.543  12.021
 1678SOL    HW2 6932   2.431   3.457  11.968
 1679SOL     OW 6933  14.386   1.416   9.457
 1679SOL    HW1 6934  14.301   1.434   9.495
 1679SOL    HW2 6935  14.372   1.339   9.400
 1680SOL     OW 6936   4.734  11.155   3.384
 1680SOL    HW1 6937   4.808  11.123   3.434
 1680SOL    HW2 6938   4.705  11.080   3.333
 1681SOL     OW 6939   5.971  13.403   6.908
 1681SOL    HW1 6940   5.900  13.468   6.905
 1681SOL    HW2 6941   6.042  13.448   6.954
 1682SOL     OW 6942  13.261   8.416   3.471
 1682SOL    HW1 6943  13.193   8.383   3.412
 1682SOL    HW2 6944  13.220   8.491   3.515
 1683SOL     OW 6945   3.441   3.898   4.395
 1683SOL    HW1 6946   3.375   3.869   4.458
 1683SOL    HW2 6947   3.418   3.989   4.376
 1684SOL     OW 6948   8.174   6.769  12.738
 1684SOL    HW1 6949   8.217   6.850  12.767
 1684SOL    HW2 6950   8.081   6.791  12.734
 1685SOL     OW 6951   2.744   9.443   0.551
 1685SOL    HW1 6952   2.738   9.348   0.542
 1685SOL    HW2 6953   2.836   9.458   0.575
 1686SOL     OW 6954   3.855  10.686   3.280
 1686SOL    HW1 6955   3.823  10.666   3.192
 1686SOL    HW2 6956   3.823  10.775   3.298
 1687SOL     OW 6957   5.935   2.138  13.283
 1687SOL    HW1 6958   5.875   2.204  13.249
 1687SOL    HW2 6959   5.980   2.103  13.205
 1688SOL     OW 6960  11.533   9.862   1.439
 1688SOL    HW1 6961  11.620   9.862   1.478
 1688SOL    HW2 6962  11.476   9.825   1.507
 1689SOL     OW 6963   8.028   0.391   8.337
 1689SOL    HW1 6964   8.037   0.369   8.244
 1689SOL    HW2 6965   7.934   0.394   8.352
 1690SOL     OW 6966  13.346   9.006   8.838
 1690SOL    HW1 6967  13.259   9.001   8.798
 1690SOL    HW2 6968  13.407   8.986   8.766
 1691SOL     OW 6969   0.752   6.462  11.319
 1691SOL    HW1 6970   0.705   6.461  11.236
 1691SOL    HW2 6971   0.845   6.468  11.295
 1692SOL     OW 6972   2.039   5.792   2.295
 1692SOL    HW1 6973   2.049   5.884   2.319
 1692SOL    HW2 6974   2.102   5.746   2.351
 1693SOL     OW 6975  12.745  14.132  13.201
 1693SOL    HW1 6976  12.734  14.227  13.205
 1693SOL    HW2 6977  12.823  14.115  13.254
 1694SOL     OW 6978   1.764  13.369  14.662
 1694SOL    HW1 6979   1.672  13.369  14.690
 1694SOL    HW2 6980   1.807  13.308  14.722
 1695SOL     OW 6981  12.615  10.506  13.296
 1695SOL    HW1 6982  12.656  10.591  13.310
 1695SOL    HW2 6983  12.561  10.518  13.218
 1696SOL     OW 6984   1.293   3.604   2.118
 1696SOL    HW1 6985   1.205   3.565   2.119
 1696SOL    HW2 6986   1.290   3.670   2.188
 1697SOL     OW 6987   7.424   0.802  13.448
 1697SOL    HW1 6988   7.452   0.888  13.418
 1697SOL    HW2 6989   7.394   0.758  13.368
 1698SOL     OW 6990  13.754  10.300  14.804
 1698SOL    HW1 6991  13.774  10.352  14.726
 1698SOL    HW2 6992  13.728  10.214  14.770
 1699SOL     OW 6993   4.490   7.530   4.557
 1699SOL    HW1 6994   4.398   7.505   4.550
 1699SOL    HW2 6995   4.517   7.548   4.467
 1700SOL     OW 6996  10.608   5.067   2.785
 1700SOL    HW1 6997  10.626   4.992   2.841
 1700SOL    HW2 6998  10.685   5.074   2.728
 1701SOL     OW 6999   4.484   4.921   1.571
 1701SOL    HW1 7000   4.393   4.941   1.546
 1701SOL    HW2 7001   4.477   4.840   1.622
 1702SOL     OW 7002   5.269   0.544   0.975
 1702SOL    HW1 7003   5.330   0.471   0.982
 1702SOL    HW2 7004   5.304   0.611   1.035
 1703SOL     OW 7005  11.267   6.368   3.213
 1703SOL    HW1 7006  11.309   6.376   3.127
 1703SOL    HW2 7007  11.316   6.427   3.270
 1704SOL     OW 7008   7.966   3.957   0.142
 1704SOL    HW1 7009   7.990   3.926   0.229
 1704SOL    HW2 7010   8.044   4.004   0.111
 1705SOL     OW 7011   1.816   9.963   5.826
 1705SOL    HW1 7012   1.885   9.961   5.892
 1705SOL    HW2 7013   1.851   9.914   5.752
 1706SOL     OW 7014  10.252   1.241   2.756
 1706SOL    HW1 7015  10.159   1.254   2.775
 1706SOL    HW2 7016  10.286   1.193   2.831
 1707SOL     OW 7017   5.002  11.664   5.106
 1707SOL    HW1 7018   4.952  11.583   5.095
 1707SOL    HW2 7019   5.017  11.671   5.200
 1708SOL     OW 7020   5.042   8.767   9.680
 1708SOL    HW1 7021   5.006   8.749   9.593
 1708SOL    HW2 7022   5.044   8.862   9.686
 1709SOL     OW 7023   8.107  12.758   9.923
 1709SOL    HW1 7024   8.181  12.788   9.976
 1709SOL    HW2 7025   8.147  12.708   9.852
 1710SOL     OW 7026   5.522   2.052  10.929
 1710SOL    HW1 7027   5.429   2.066  10.909
 1710SOL    HW2 7028   5.521   2.010  11.015
 1711SOL     OW 7029   3.469   8.504   5.108
 1711SOL    HW1 7030   3.508   8.422   5.140
 1711SOL    HW2 7031   3.461   8.559   5.186
 1712SOL     OW 7032   1.129   2.943  11.855
 1712SOL    HW1 7033   1.052   2.982  11.896
 1712SOL    HW2 7034   1.143   2.996  11.776
 1713SOL     OW 7035   5.716  14.041   0.044
 1713SOL    HW1 7036   5.736  13.954   0.010
 1713SOL    HW2 7037   5.675  14.087  14.840
 1714SOL     OW 7038   3.253   5.577  13.378
 1714SOL    HW1 7039   3.299   5.510  13.430
 1714SOL    HW2 7040   3.318   5.646  13.366
 1715SOL     OW 7041   3.478   2.799   4.859
 1715SOL    HW1 7042   3.553   2.853   4.884
 1715SOL    HW2 7043   3.402   2.851   4.883
 1716SOL     OW 7044   8.809   1.045   5.079
 1716SOL    HW1 7045   8.786   1.087   4.996
 1716SOL    HW2 7046   8.740   1.072   5.140
 1717SOL     OW 7047   5.291   1.952   1.292
 1717SOL    HW1 7048   5.246   1.884   1.342
 1717SOL    HW2 7049   5.383   1.943   1.318
 1718SOL     OW 7050  12.587   0.094   3.602
 1718SOL    HW1 7051  12.530   0.119   3.529
 1718SOL    HW2 7052  12.580   0.166   3.664
 1719SOL     OW 7053  14.708  10.732   2.845
 1719SOL    HW1 7054  14.738  10.789   2.916
 1719SOL    HW2 7055  14.626  10.695   2.877
 1720SOL     OW 7056   8.580   4.451   6.235
 1720SOL    HW1 7057   8.537   4.528   6.273
 1720SOL    HW2 7058   8.508   4.399   6.198
 1721SOL     OW 7059   0.908   5.440  11.720
 1721SOL    HW1 7060   0.917   5.519  11.773
 1721SOL    HW2 7061   0.950   5.461  11.637
 1722SOL     OW 7062   1.509   2.094   5.406
 1722SOL    HW1 7063   1.559   2.129   5.479
 1722SOL    HW2 7064   1.435   2.155   5.396
 1723SOL     OW 7065   6.910  13.051   9.421
 1723SOL    HW1 7066   6.934  12.988   9.489
 1723SOL    HW2 7067   6.956  13.131   9.446
 1724SOL     OW 7068   2.519   5.202   3.320
 1724SOL    HW1 7069   2.483   5.229   3.405
 1724SOL    HW2 7070   2.444   5.206   3.260
 1725SOL     OW 7071  12.523  10.439  12.597
 1725SOL    HW1 7072  12.601  10.480  12.633
 1725SOL    HW2 7073  12.550  10.408  12.511
 1726SOL     OW 7074   3.248  11.116  11.563
 1726SOL    HW1 7075   3.194  11.045  11.598
 1726SOL    HW2 7076   3.332  11.108  11.608
 1727SOL     OW 7077   6.930   1.742   1.796
 1727SOL    HW1 7078   6.947   1.756   1.889
 1727SOL    HW2 7079   7.013   1.712   1.761
 1728SOL     OW 7080   5.492  14.148   1.050
 1728SOL    HW1 7081   5.467  14.222   0.994
 1728SOL    HW2 7082   5.587  14.141   1.039
 1729SOL     OW 7083  10.818   0.726  12.235
 1729SOL    HW1 7084  10.729   0.742  12.267
 1729SOL    HW2 7085  10.874   0.781  12.290
 1730SOL     OW 7086   1.304   4.683   8.205
 1730SOL    HW1 7087   1.252   4.626   8.148
 1730SOL    HW2 7088   1.392   4.644   8.204
 1731SOL     OW 7089   4.037  12.273   7.951
 1731SOL    HW1 7090   4.062  12.216   7.878
 1731SOL    HW2 7091   4.036  12.361   7.914
 1732SOL     OW 7092   2.377   1.724  12.389
 1732SOL    HW1 7093   2.330   1.650  12.351
 1732SOL    HW2 7094   2.419   1.687  12.467
 1733SOL     OW 7095   0.420   8.611   5.924
 1733SOL    HW1 7096   0.347   8.668   5.949
 1733SOL    HW2 7097   0.451   8.647   5.841
 1734SOL     OW 7098  11.838  14.565   8.769
 1734SOL    HW1 7099  11.903  14.635   8.756
 1734SOL    HW2 7100  11.780  14.599   8.837
 1735SOL     OW 7101   8.584   4.363   5.749
 1735SOL    HW1 7102   8.631   4.408   5.819
 1735SOL    HW2 7103   8.573   4.273   5.781
 1736SOL     OW 7104  14.658   9.518  12.378
 1736SOL    HW1 7105  14.617   9.602  12.358
 1736SOL    HW2 7106  14.648   9.509  12.473
 1737SOL     OW 7107  12.263  12.091   9.923
 1737SOL    HW1 7108  12.212  12.118   9.846
 1737SOL    HW2 7109  12.203  12.036   9.973
 1738SOL     OW 7110   5.879   4.814  13.186
 1738SOL    HW1 7111   5.945   4.863  13.137
 1738SOL    HW2 7112   5.801   4.868  13.183
 1739SOL     OW 7113   7.816  12.947   2.138
 1739SOL    HW1 7114   7.911  12.944   2.133
 1739SOL    HW2 7115   7.796  13.028   2.185
 1740SOL     OW 7116   8.203   1.256   1.992
 1740SOL    HW1 7117   8.297   1.270   1.981
 1740SOL    HW2 7118   8.194   1.162   2.006
 1741SOL     OW 7119  13.154   3.373   8.853
 1741SOL    HW1 7120  13.246   3.378   8.881
 1741SOL    HW2 7121  13.120   3.295   8.897
 1742SOL     OW 7122   3.781  10.262   9.213
 1742SOL    HW1 7123   3.714  10.226   9.270
 1742SOL    HW2 7124   3.862  10.221   9.242
 1743SOL     OW 7125   7.513   3.848   2.861
 1743SOL    HW1 7126   7.435   3.879   2.906
 1743SOL    HW2 7127   7.566   3.927   2.848
 1744SOL     OW 7128  13.423   4.389   2.897
 1744SOL    HW1 7129  13.331   4.370   2.881
 1744SOL    HW2 7130  13.431   4.483   2.882
 1745SOL     OW 7131   2.548   9.364   6.385
 1745SOL    HW1 7132   2.608   9.376   6.312
 1745SOL    HW2 7133   2.508   9.278   6.370
 1746SOL     OW 7134   8.388   0.482   2.689
 1746SOL    HW1 7135   8.399   0.542   2.762
 1746SOL    HW2 7136   8.344   0.405   2.727
 1747SOL     OW 7137  10.811   0.305   0.616
 1747SOL    HW1 7138  10.836   0.356   0.693
 1747SOL    HW2 7139  10.744   0.245   0.648
 1748SOL     OW 7140  14.000   6.281   2.922
 1748SOL    HW1 7141  14.014   6.364   2.878
 1748SOL    HW2 7142  13.912   6.287   2.958
 1749SOL     OW 7143   4.117   6.083   3.044
 1749SOL    HW1 7144   4.083   5.994   3.052
 1749SOL    HW2 7145   4.156   6.102   3.129
 1750SOL     OW 7146   3.138   4.425  11.524
 1750SOL    HW1 7147   3.202   4.496  11.524
 1750SOL    HW2 7148   3.072   4.451  11.589
 1751SOL     OW 7149  13.757   3.221   0.645
 1751SOL    HW1 7150  13.774   3.128   0.629
 1751SOL    HW2 7151  13.760   3.262   0.559
 1752SOL     OW 7152   4.764  12.131   7.971
 1752SOL    HW1 7153   4.825  12.138   7.897
 1752SOL    HW2 7154   4.818  12.146   8.048
 1753SOL     OW 7155  10.599  12.202   3.158
 1753SOL    HW1 7156  10.621  12.281   3.207
 1753SOL    HW2 7157  10.619  12.224   3.067
 1754SOL     OW 7158  13.208  14.453  10.286
 1754SOL    HW1 7159  13.210  14.548  10.272
 1754SOL    HW2 7160  13.239  14.416  10.204
 1755SOL     OW 7161  10.838  13.200   8.750
 1755SOL    HW1 7162  10.837  13.165   8.839
 1755SOL    HW2 7163  10.750  13.184   8.717
 1756SOL     OW 7164  12.620   3.522  11.890
 1756SOL    HW1 7165  12.701   3.480  11.918
 1756SOL    HW2 7166  12.603   3.589  11.956
 1757SOL     OW 7167   3.891   0.541  14.437
 1757SOL    HW1 7168   3.925   0.451  14.438
 1757SOL    HW2 7169   3.797   0.531  14.455
 1758SOL     OW 7170   9.461   8.029  10.089
 1758SOL    HW1 7171   9.491   7.947  10.049
 1758SOL    HW2 7172   9.372   8.041  10.055
 1759SOL     OW 7173   2.129   2.194  12.695
 1759SOL    HW1 7174   2.114   2.208  12.601
 1759SOL    HW2 7175   2.049   2.152  12.726
 1760SOL     OW 7176   6.892  11.835   0.323
 1760SOL    HW1 7177   6.898  11.744   0.351
 1760SOL    HW2 7178   6.803  11.844   0.288
 1761SOL     OW 7179   8.437   2.231  13.492
 1761SOL    HW1 7180   8.463   2.264  13.578
 1761SOL    HW2 7181   8.346   2.261  13.482
 1762SOL     OW 7182   6.750  13.407   9.210
 1762SOL    HW1 7183   6.755  13.469   9.138
 1762SOL    HW2 7184   6.838  13.407   9.249
 1763SOL     OW 7185  11.137   1.640  13.784
 1763SOL    HW1 7186  11.163   1.549  13.800
 1763SOL    HW2 7187  11.042   1.638  13.778
 1764SOL     OW 7188   6.065   6.883  12.996
 1764SOL    HW1 7189   6.083   6.950  13.062
 1764SOL    HW2 7190   6.129   6.814  13.013
 1765SOL     OW 7191   0.096   2.069   8.947
 1765SOL    HW1 7192   0.015   2.029   8.979
 1765SOL    HW2 7193   0.164   2.037   9.006
 1766SOL     OW 7194  12.924   9.253   2.830
 1766SOL    HW1 7195  12.945   9.176   2.882
 1766SOL    HW2 7196  13.008   9.292   2.809
 1767SOL     OW 7197   7.650   6.846   7.139
 1767SOL    HW1 7198   7.700   6.927   7.145
 1767SOL    HW2 7199   7.679   6.806   7.057
 1768SOL     OW 7200  10.454   0.534   3.897
 1768SOL    HW1 7201  10.438   0.513   3.989
 1768SOL    HW2 7202  10.516   0.606   3.900
 1769SOL     OW 7203  11.343  10.354   5.026
 1769SOL    HW1 7204  11.301  10.318   4.947
 1769SOL    HW2 7205  11.310  10.300   5.097
 1770SOL     OW 7206   4.362  13.380   4.304
 1770SOL    HW1 7207   4.426  13.387   4.375
 1770SOL    HW2 7208   4.392  13.441   4.237
 1771SOL     OW 7209  10.186  12.044   8.223
 1771SOL    HW1 7210  10.203  12.092   8.304
 1771SOL    HW2 7211  10.113  12.090   8.182
 1772SOL     OW 7212   6.660   2.959  11.481
 1772SOL    HW1 7213   6.713   2.949  11.560
 1772SOL    HW2 7214   6.607   3.037  11.497
 1773SOL     OW 7215  14.601   4.935  13.367
 1773SOL    HW1 7216  14.572   4.970  13.451
 1773SOL    HW2 7217  14.641   4.850  13.389
 1774SOL     OW 7218  13.549   6.031   5.340
 1774SOL    HW1 7219  13.591   6.062   5.420
 1774SOL    HW2 7220  13.499   6.106   5.308
 1775SOL     OW 7221   6.425   8.456  10.437
 1775SOL    HW1 7222   6.507   8.437  10.483
 1775SOL    HW2 7223   6.431   8.549  10.415
 1776SOL     OW 7224   1.217  12.209   6.764
 1776SOL    HW1 7225   1.207  12.303   6.782
 1776SOL    HW2 7226   1.290  12.204   6.702
 1777SOL     OW 7227   2.693   1.039   8.443
 1777SOL    HW1 7228   2.699   1.006   8.353
 1777SOL    HW2 7229   2.667   0.963   8.495
 1778SOL     OW 7230  11.518  13.212  12.668
 1778SOL    HW1 7231  11.520  13.297  12.712
 1778SOL    HW2 7232  11.599  13.211  12.616
 1779SOL     OW 7233   6.893  14.525   1.880
 1779SOL    HW1 7234   6.968  14.466   1.876
 1779SOL    HW2 7235   6.860  14.516   1.969
 1780SOL     OW 7236  12.189   5.796   6.475
 1780SOL    HW1 7237  12.167   5.886   6.448
 1780SOL    HW2 7238  12.168   5.793   6.568
 1781SOL     OW 7239   4.523   1.269   6.531
 1781SOL    HW1 7240   4.538   1.359   6.503
 1781SOL    HW2 7241   4.444   1.273   6.584
 1782SOL     OW 7242   6.738  14.261   0.185
 1782SOL    HW1 7243   6.776  14.348   0.195
 1782SOL    HW2 7244   6.738  14.245   0.091
 1783SOL     OW 7245   2.410   7.632  10.970
 1783SOL    HW1 7246   2.493   7.629  10.923
 1783SOL    HW2 7247   2.345   7.655  10.903
 1784SOL     OW 7248   7.303  12.779   7.388
 1784SOL    HW1 7249   7.286  12.725   7.464
 1784SOL    HW2 7250   7.394  12.808   7.398
 1785SOL     OW 7251  14.834   0.434   3.394
 1785SOL    HW1 7252  14.796   0.359   3.439
 1785SOL    HW2 7253   0.020   0.395   3.327
 1786SOL     OW 7254   0.628   9.409  10.689
 1786SOL    HW1 7255   0.593   9.382  10.774
 1786SOL    HW2 7256   0.681   9.335  10.660
 1787SOL     OW 7257   1.100   8.991  12.601
 1787SOL    HW1 7258   1.049   9.046  12.541
 1787SOL    HW2 7259   1.069   9.016  12.688
 1788SOL     OW 7260  10.894   2.700   8.259
 1788SOL    HW1 7261  10.857   2.779   8.299
 1788SOL    HW2 7262  10.821   2.638   8.257
 1789SOL     OW 7263   2.206   1.194   7.867
 1789SOL    HW1 7264   2.227   1.284   7.842
 1789SOL    HW2 7265   2.134   1.203   7.929
 1790SOL     OW 7266   9.883  11.655  11.699
 1790SOL    HW1 7267   9.837  11.738  11.706
 1790SOL    HW2 7268   9.877  11.616  11.786
 1791SOL     OW 7269   0.361   3.791   4.685
 1791SOL    HW1 7270   0.268   3.780   4.667
 1791SOL    HW2 7271   0.364   3.834   4.771
 1792SOL     OW 7272   3.335   9.983   9.573
 1792SOL    HW1 7273   3.328   9.929   9.652
 1792SOL    HW2 7274   3.255  10.034   9.572
 1793SOL     OW 7275   4.223  10.719   2.509
 1793SOL    HW1 7276   4.267  10.638   2.483
 1793SOL    HW2 7277   4.130  10.702   2.496
 1794SOL     OW 7278   1.027   5.549   4.775
 1794SOL    HW1 7279   0.934   5.533   4.792
 1794SOL    HW2 7280   1.069   5.464   4.787
 1795SOL     OW 7281  10.667   2.232   1.364
 1795SOL    HW1 7282  10.720   2.237   1.285
 1795SOL    HW2 7283  10.583   2.196   1.335
 1796SOL     OW 7284   9.818   1.616   2.125
 1796SOL    HW1 7285   9.826   1.521   2.125
 1796SOL    HW2 7286   9.735   1.633   2.079
 1797SOL     OW 7287   2.248   2.026   8.901
 1797SOL    HW1 7288   2.225   1.933   8.892
 1797SOL    HW2 7289   2.165   2.072   8.890
 1798SOL     OW 7290  11.291   2.203  13.071
 1798SOL    HW1 7291  11.243   2.131  13.032
 1798SOL    HW2 7292  11.232   2.279  13.061
 1799SOL     OW 7293   2.898  11.157   5.627
 1799SOL    HW1 7294   2.931  11.219   5.693
 1799SOL    HW2 7295   2.807  11.182   5.614
 1800SOL     OW 7296   2.680  14.120  13.103
 1800SOL    HW1 7297   2.595  14.106  13.059
 1800SOL    HW2 7298   2.735  14.159  13.035
 1801SOL     OW 7299  13.931   4.528  14.335
 1801SOL    HW1 7300  13.944   4.514  14.241
 1801SOL    HW2 7301  13.917   4.441  14.371
 1802SOL     OW 7302  10.341  11.820   6.033
 1802SOL    HW1 7303  10.418  11.876   6.045
 1802SOL    HW2 7304  10.308  11.843   5.946
 1803SOL     OW 7305  14.818   9.105   1.112
 1803SOL    HW1 7306   0.028   9.102   1.165
 1803SOL    HW2 7307  14.765   9.033   1.146
 1804SOL     OW 7308   3.428  13.481   1.744
 1804SOL    HW1 7309   3.340  13.496   1.778
 1804SOL    HW2 7310   3.420  13.499   1.650
 1805SOL     OW 7311  11.568   7.043   7.955
 1805SOL    HW1 7312  11.534   7.111   8.012
 1805SOL    HW2 7313  11.600   6.975   8.014
 1806SOL     OW 7314   8.146  10.115  14.202
 1806SOL    HW1 7315   8.092  10.149  14.131
 1806SOL    HW2 7316   8.189  10.038  14.165
 1807SOL     OW 7317   2.544  10.329  10.604
 1807SOL    HW1 7318   2.594  10.410  10.599
 1807SOL    HW2 7319   2.473  10.341  10.540
 1808SOL     OW 7320   6.321   3.930  12.211
 1808SOL    HW1 7321   6.316   4.005  12.269
 1808SOL    HW2 7322   6.264   3.952  12.137
 1809SOL     OW 7323   6.849   6.229  14.387
 1809SOL    HW1 7324   6.880   6.143  14.415
 1809SOL    HW2 7325   6.859   6.229  14.292
 1810SOL     OW 7326   4.277   1.335   0.203
 1810SOL    HW1 7327   4.242   1.336   0.292
 1810SOL    HW2 7328   4.221   1.275   0.155
 1811SOL     OW 7329  13.429   9.403   6.485
 1811SOL    HW1 7330  13.411   9.333   6.547
 1811SOL    HW2 7331  13.465   9.358   6.408
 1812SOL     OW 7332   2.874  13.432   9.172
 1812SOL    HW1 7333   2.810  13.436   9.244
 1812SOL    HW2 7334   2.935  13.363   9.198
 1813SOL     OW 7335   4.397   5.333  10.473
 1813SOL    HW1 7336   4.450   5.262  10.509
 1813SOL    HW2 7337   4.347   5.366  10.547
 1814SOL     OW 7338  10.606   1.953  14.008
 1814SOL    HW1 7339  10.700   1.941  14.026
 1814SOL    HW2 7340  10.596   2.047  13.995
 1815SOL     OW 7341   7.054   5.121   0.350
 1815SOL    HW1 7342   7.135   5.151   0.308
 1815SOL    HW2 7343   7.082   5.086   0.434
 1816SOL     OW 7344   2.099   1.065   5.994
 1816SOL    HW1 7345   2.061   1.151   5.976
 1816SOL    HW2 7346   2.155   1.046   5.919
 1817SOL     OW 7347   1.347   0.639  14.112
 1817SOL    HW1 7348   1.363   0.717  14.165
 1817SOL    HW2 7349   1.415   0.577  14.139
 1818SOL     OW 7350   9.942   6.553   3.944
 1818SOL    HW1 7351   9.986   6.490   3.886
 1818SOL    HW2 7352  10.012   6.591   3.996
 1819SOL     OW 7353  13.550   9.853  14.606
 1819SOL    HW1 7354  13.558   9.772  14.557
 1819SOL    HW2 7355  13.469   9.844  14.655
 1820SOL     OW 7356   0.657   2.503   6.168
 1820SOL    HW1 7357   0.617   2.518   6.083
 1820SOL    HW2 7358   0.670   2.591   6.204
 1821SOL     OW 7359   7.635   3.430   2.653
 1821SOL    HW1 7360   7.627   3.486   2.730
 1821SOL    HW2 7361   7.728   3.432   2.631
 1822SOL     OW 7362   6.524   0.752   6.091
 1822SOL    HW1 7363   6.600   0.697   6.075
 1822SOL    HW2 7364   6.455   0.691   6.119
 1823SOL     OW 7365   8.788   1.716   2.965
 1823SOL    HW1 7366   8.823   1.627   2.965
 1823SOL    HW2 7367   8.845   1.765   3.024
 1824SOL     OW 7368   1.863   7.536   9.576
 1824SOL    HW1 7369   1.818   7.533   9.492
 1824SOL    HW2 7370   1.841   7.621   9.613
 1825SOL     OW 7371   7.068   6.516  14.236
 1825SOL    HW1 7372   7.102   6.465  14.310
 1825SOL    HW2 7373   6.996   6.567  14.273
 1826SOL     OW 7374   2.560   3.188   9.869
 1826SOL    HW1 7375   2.467   3.209   9.881
 1826SOL    HW2 7376   2.570   3.176   9.775
 1827SOL     OW 7377   5.134   3.578   7.782
 1827SOL    HW1 7378   5.095   3.640   7.721
 1827SOL    HW2 7379   5.063   3.556   7.843
 1828SOL     OW 7380   5.637   6.334   9.268
 1828SOL    HW1 7381   5.557   6.286   9.245
 1828SOL    HW2 7382   5.627   6.354   9.361
 1829SOL     OW 7383   4.164   8.511   8.825
 1829SOL    HW1 7384   4.237   8.571   8.840
 1829SOL    HW2 7385   4.147   8.472   8.911
 1830SOL     OW 7386   9.676   6.390   9.377
 1830SOL    HW1 7387   9.742   6.453   9.351
 1830SOL    HW2 7388   9.710   6.351   9.458
 1831SOL     OW 7389   4.227   7.341   9.171
 1831SOL    HW1 7390   4.158   7.390   9.125
 1831SOL    HW2 7391   4.309   7.381   9.140
 1832SOL     OW 7392   6.142   3.604   7.641
 1832SOL    HW1 7393   6.097   3.656   7.708
 1832SOL    HW2 7394   6.107   3.516   7.652
 1833SOL     OW 7395   6.490   4.556  11.803
 1833SOL    HW1 7396   6.567   4.503  11.825
 1833SOL    HW2 7397   6.511   4.593  11.717
 1834SOL     OW 7398   2.205   9.869   1.492
 1834SOL    HW1 7399   2.133   9.933   1.492
 1834SOL    HW2 7400   2.202   9.830   1.580
 1835SOL     OW 7401   0.946   7.125   8.912
 1835SOL    HW1 7402   0.927   7.113   9.005
 1835SOL    HW2 7403   0.875   7.079   8.867
 1836SOL     OW 7404   9.127   9.095   8.213
 1836SOL    HW1 7405   9.039   9.079   8.246
 1836SOL    HW2 7406   9.184   9.083   8.289
 1837SOL     OW 7407  12.671  10.423  13.874
 1837SOL    HW1 7408  12.713  10.483  13.812
 1837SOL    HW2 7409  12.734  10.414  13.945
 1838SOL     OW 7410  10.810   9.766   9.514
 1838SOL    HW1 7411  10.723   9.752   9.552
 1838SOL    HW2 7412  10.859   9.688   9.538
 1839SOL     OW 7413   7.681   9.739   1.876
 1839SOL    HW1 7414   7.704   9.649   1.852
 1839SOL    HW2 7415   7.747   9.794   1.834
 1840SOL     OW 7416   1.162   8.910  10.168
 1840SOL    HW1 7417   1.203   8.987  10.129
 1840SOL    HW2 7418   1.203   8.835  10.123
 1841SOL     OW 7419   3.702   3.717   5.074
 1841SOL    HW1 7420   3.712   3.653   5.144
 1841SOL    HW2 7421   3.607   3.722   5.059
 1842SOL     OW 7422  10.311  11.067  13.940
 1842SOL    HW1 7423  10.307  11.161  13.924
 1842SOL    HW2 7424  10.404  11.046  13.942
 1843SOL     OW 7425  11.012   7.666  13.264
 1843SOL    HW1 7426  11.100   7.674  13.300
 1843SOL    HW2 7427  11.024   7.667  13.169
 1844SOL     OW 7428  10.316   3.845   0.192
 1844SOL    HW1 7429  10.328   3.937   0.166
 1844SOL    HW2 7430  10.336   3.843   0.285
 1845SOL     OW 7431   0.400  10.317  13.105
 1845SOL    HW1 7432   0.442  10.403  13.106
 1845SOL    HW2 7433   0.341  10.319  13.030
 1846SOL     OW 7434   4.996   5.371   2.599
 1846SOL    HW1 7435   4.973   5.290   2.646
 1846SOL    HW2 7436   5.050   5.420   2.662
 1847SOL     OW 7437   8.983   7.601   4.465
 1847SOL    HW1 7438   8.982   7.540   4.392
 1847SOL    HW2 7439   9.052   7.569   4.523
 1848SOL     OW 7440   8.927   1.846  10.941
 1848SOL    HW1 7441   9.001   1.785  10.932
 1848SOL    HW2 7442   8.961   1.917  10.995
 1849SOL     OW 7443  11.447   9.249   1.384
 1849SOL    HW1 7444  11.508   9.199   1.330
 1849SOL    HW2 7445  11.480   9.339   1.381
 1850SOL     OW 7446   2.191  12.987   1.921
 1850SOL    HW1 7447   2.116  12.941   1.959
 1850SOL    HW2 7448   2.239  13.020   1.996
 1851SOL     OW 7449   6.149   7.669   9.389
 1851SOL    HW1 7450   6.137   7.696   9.298
 1851SOL    HW2 7451   6.176   7.749   9.434
 1852SOL     OW 7452   5.669   8.789   1.724
 1852SOL    HW1 7453   5.614   8.735   1.669
 1852SOL    HW2 7454   5.627   8.875   1.723
 1853SOL     OW 7455   9.365   1.148   3.741
 1853SOL    HW1 7456   9.427   1.146   3.814
 1853SOL    HW2 7457   9.392   1.076   3.684
 1854SOL     OW 7458  14.574  11.743   7.543
 1854SOL    HW1 7459  14.589  11.825   7.498
 1854SOL    HW2 7460  14.521  11.766   7.620
 1855SOL     OW 7461  13.000   4.569  11.477
 1855SOL    HW1 7462  12.906   4.563  11.457
 1855SOL    HW2 7463  13.022   4.484  11.515
 1856SOL     OW 7464   4.170   0.249  10.801
 1856SOL    HW1 7465   4.160   0.277  10.710
 1856SOL    HW2 7466   4.227   0.315  10.840
 1857SOL     OW 7467  10.674   1.126   2.051
 1857SOL    HW1 7468  10.747   1.083   2.006
 1857SOL    HW2 7469  10.664   1.210   2.006
 1858SOL     OW 7470   6.193   7.077   0.773
 1858SOL    HW1 7471   6.225   7.001   0.822
 1858SOL    HW2 7472   6.269   7.135   0.767
 1859SOL     OW 7473   8.832   1.922  10.237
 1859SOL    HW1 7474   8.741   1.928  10.265
 1859SOL    HW2 7475   8.856   2.011  10.212
 1860SOL     OW 7476   0.637   6.491  14.066
 1860SOL    HW1 7477   0.639   6.561  14.131
 1860SOL    HW2 7478   0.622   6.536  13.983
 1861SOL     OW 7479   3.952   3.830  13.994
 1861SOL    HW1 7480   3.942   3.760  13.930
 1861SOL    HW2 7481   4.014   3.891  13.953
 1862SOL     OW 7482   1.782   5.890  13.710
 1862SOL    HW1 7483   1.770   5.899  13.615
 1862SOL    HW2 7484   1.785   5.981  13.742
 1863SOL     OW 7485  12.999   4.803  12.741
 1863SOL    HW1 7486  13.004   4.883  12.689
 1863SOL    HW2 7487  12.930   4.820  12.805
 1864SOL     OW 7488  11.005  14.161   6.352
 1864SOL    HW1 7489  11.062  14.129   6.422
 1864SOL    HW2 7490  10.923  14.183   6.396
 1865SOL     OW 7491  11.483   5.556  10.862
 1865SOL    HW1 7492  11.457   5.466  10.842
 1865SOL    HW2 7493  11.404   5.608  10.845
 1866SOL     OW 7494  12.679  11.320   6.756
 1866SOL    HW1 7495  12.707  11.410   6.774
 1866SOL    HW2 7496  12.754  11.280   6.712
 1867SOL     OW 7497   3.834  10.121  13.574
 1867SOL    HW1 7498   3.882  10.184  13.519
 1867SOL    HW2 7499   3.884  10.040  13.568
 1868SOL     OW 7500  13.756   9.813  10.570
 1868SOL    HW1 7501  13.701   9.747  10.611
 1868SOL    HW2 7502  13.815   9.763  10.514
 1869SOL     OW 7503   3.328   9.847   0.655
 1869SOL    HW1 7504   3.327   9.825   0.748
 1869SOL    HW2 7505   3.254   9.907   0.644
 1870SOL     OW 7506   7.816   0.666   4.074
 1870SOL    HW1 7507   7.893   0.614   4.049
 1870SOL    HW2 7508   7.781   0.622   4.151
 1871SOL     OW 7509   1.315   2.408  12.122
 1871SOL    HW1 7510   1.362   2.415  12.039
 1871SOL    HW2 7511   1.340   2.322  12.156
 1872SOL     OW 7512   8.558  10.635   8.640
 1872SOL    HW1 7513   8.550  10.555   8.692
 1872SOL    HW2 7514   8.534  10.705   8.700
 1873SOL     OW 7515   5.225   6.601   7.621
 1873SOL    HW1 7516   5.197   6.628   7.533
 1873SOL    HW2 7517   5.144   6.569   7.662
 1874SOL     OW 7518   6.110  11.445  12.761
 1874SOL    HW1 7519   6.063  11.459  12.843
 1874SOL    HW2 7520   6.198  11.419  12.787
 1875SOL     OW 7521   0.976  12.020   6.433
 1875SOL    HW1 7522   0.930  12.059   6.507
 1875SOL    HW2 7523   0.972  11.926   6.449
 1876SOL     OW 7524   8.422  13.660  11.244
 1876SOL    HW1 7525   8.489  13.718  11.278
 1876SOL    HW2 7526   8.416  13.589  11.308
 1877SOL     OW 7527  12.683   5.864   8.932
 1877SOL    HW1 7528  12.678   5.782   8.883
 1877SOL    HW2 7529  12.602   5.910   8.911
 1878SOL     OW 7530  12.258  14.271  10.999
 1878SOL    HW1 7531  12.282  14.363  11.007
 1878SOL    HW2 7532  12.339  14.226  10.976
 1879SOL     OW 7533  11.121   4.073   9.696
 1879SOL    HW1 7534  11.103   4.079   9.602
 1879SOL    HW2 7535  11.196   4.131   9.709
 1880SOL     OW 7536   1.049   8.275   3.130
 1880SOL    HW1 7537   1.073   8.305   3.218
 1880SOL    HW2 7538   1.105   8.325   3.071
 1881SOL     OW 7539  12.012   8.721   5.118
 1881SOL    HW1 7540  11.943   8.708   5.053
 1881SOL    HW2 7541  11.983   8.797   5.169
 1882SOL     OW 7542   0.540  13.706   0.354
 1882SOL    HW1 7543   0.451  13.672   0.366
 1882SOL    HW2 7544   0.527  13.796   0.322
 1883SOL     OW 7545  13.642  14.680   0.081
 1883SOL    HW1 7546  13.732  14.647   0.089
 1883SOL    HW2 7547  13.608  14.638   0.002
 1884SOL     OW 7548   6.410   4.886   7.648
 1884SOL    HW1 7549   6.483   4.871   7.709
 1884SOL    HW2 7550   6.453   4.901   7.564
 1885SOL     OW 7551   8.777   5.745   5.694
 1885SOL    HW1 7552   8.858   5.748   5.644
 1885SOL    HW2 7553   8.727   5.820   5.663
 1886SOL     OW 7554   1.910  13.070   9.590
 1886SOL    HW1 7555   1.914  13.007   9.517
 1886SOL    HW2 7556   1.968  13.141   9.564
 1887SOL     OW 7557  14.795  10.255   9.814
 1887SOL    HW1 7558  14.819  10.289   9.900
 1887SOL    HW2 7559  14.859  10.186   9.797
 1888SOL     OW 7560   5.833  13.608   4.515
 1888SOL    HW1 7561   5.828  13.591   4.609
 1888SOL    HW2 7562   5.926  13.599   4.494
 1889SOL     OW 7563   3.817  10.946  10.491
 1889SOL    HW1 7564   3.897  10.911  10.451
 1889SOL    HW2 7565   3.848  11.016  10.549
 1890SOL     OW 7566  11.902   5.043  10.921
 1890SOL    HW1 7567  11.820   5.079  10.955
 1890SOL    HW2 7568  11.921   4.968  10.978
 1891SOL     OW 7569  14.426   8.546   2.410
 1891SOL    HW1 7570  14.482   8.619   2.439
 1891SOL    HW2 7571  14.480   8.497   2.349
 1892SOL     OW 7572  10.969   6.662   0.699
 1892SOL    HW1 7573  10.880   6.630   0.689
 1892SOL    HW2 7574  10.963   6.756   0.685
 1893SOL     OW 7575  12.785   0.441   7.294
 1893SOL    HW1 7576  12.725   0.386   7.346
 1893SOL    HW2 7577  12.869   0.433   7.338
 1894SOL     OW 7578   9.134  11.281  13.459
 1894SOL    HW1 7579   9.211  11.338  13.453
 1894SOL    HW2 7580   9.072  11.330  13.512
 1895SOL     OW 7581   4.462  10.176   1.599
 1895SOL    HW1 7582   4.500  10.136   1.521
 1895SOL    HW2 7583   4.391  10.117   1.623
 1896SOL     OW 7584   9.714  10.272   1.896
 1896SOL    HW1 7585   9.722  10.300   1.805
 1896SOL    HW2 7586   9.712  10.176   1.891
 1897SOL     OW 7587   5.477  14.479  14.844
 1897SOL    HW1 7588   5.428  14.485   0.056
 1897SOL    HW2 7589   5.417  14.436  14.783
 1898SOL     OW 7590  12.041   0.981  13.080
 1898SOL    HW1 7591  12.017   0.913  13.018
 1898SOL    HW2 7592  12.095   0.937  13.145
 1899SOL     OW 7593   4.919   0.284  11.650
 1899SOL    HW1 7594   4.893   0.371  11.681
 1899SOL    HW2 7595   4.860   0.267  11.576
 1900SOL     OW 7596  12.732   8.606   3.227
 1900SOL    HW1 7597  12.800   8.547   3.260
 1900SOL    HW2 7598  12.686   8.554   3.161
 1901SOL     OW 7599  14.719   3.570  11.195
 1901SOL    HW1 7600  14.754   3.656  11.172
 1901SOL    HW2 7601  14.706   3.573  11.289
 1902SOL     OW 7602   8.931   8.075   5.345
 1902SOL    HW1 7603   8.981   8.119   5.413
 1902SOL    HW2 7604   8.994   8.015   5.304
 1903SOL     OW 7605  11.138   9.661   9.318
 1903SOL    HW1 7606  11.121   9.751   9.345
 1903SOL    HW2 7607  11.080   9.647   9.243
 1904SOL     OW 7608  13.271   0.634   1.759
 1904SOL    HW1 7609  13.288   0.698   1.690
 1904SOL    HW2 7610  13.357   0.608   1.791
 1905SOL     OW 7611   0.734   9.679   2.169
 1905SOL    HW1 7612   0.719   9.758   2.116
 1905SOL    HW2 7613   0.771   9.711   2.251
 1906SOL     OW 7614   4.236  11.022  13.890
 1906SOL    HW1 7615   4.238  10.939  13.937
 1906SOL    HW2 7616   4.286  11.082  13.945
 1907SOL     OW 7617   5.908   4.942  11.352
 1907SOL    HW1 7618   5.908   4.963  11.259
 1907SOL    HW2 7619   5.905   5.026  11.397
 1908SOL     OW 7620   4.183   2.796   9.825
 1908SOL    HW1 7621   4.117   2.726   9.817
 1908SOL    HW2 7622   4.183   2.839   9.740
 1909SOL     OW 7623   0.700   7.722  14.112
 1909SOL    HW1 7624   0.758   7.726  14.036
 1909SOL    HW2 7625   0.721   7.800  14.163
 1910SOL     OW 7626   9.751  12.439   0.751
 1910SOL    HW1 7627   9.800  12.374   0.700
 1910SOL    HW2 7628   9.739  12.513   0.691
 1911SOL     OW 7629  12.832   6.254   3.270
 1911SOL    HW1 7630  12.742   6.270   3.240
 1911SOL    HW2 7631  12.870   6.199   3.202
 1912SOL     OW 7632  12.471   1.182   2.173
 1912SOL    HW1 7633  12.497   1.230   2.094
 1912SOL    HW2 7634  12.417   1.110   2.140
 1913SOL     OW 7635   0.005   7.605   1.830
 1913SOL    HW1 7636   0.055   7.525   1.845
 1913SOL    HW2 7637   0.000   7.613   1.735
 1914SOL     OW 7638   8.358   7.302   1.878
 1914SOL    HW1 7639   8.393   7.325   1.792
 1914SOL    HW2 7640   8.418   7.344   1.940
 1915SOL     OW 7641   3.097   0.380   4.420
 1915SOL    HW1 7642   3.178   0.404   4.375
 1915SOL    HW2 7643   3.049   0.463   4.430
 1916SOL     OW 7644   8.846   0.975   5.509
 1916SOL    HW1 7645   8.793   1.054   5.516
 1916SOL    HW2 7646   8.893   0.984   5.426
 1917SOL     OW 7647   5.406   3.094   7.044
 1917SOL    HW1 7648   5.442   3.069   6.959
 1917SOL    HW2 7649   5.375   3.184   7.031
 1918SOL     OW 7650   2.091   1.981   9.378
 1918SOL    HW1 7651   2.088   1.886   9.389
 1918SOL    HW2 7652   1.999   2.008   9.379
 1919SOL     OW 7653   9.914  10.819   0.928
 1919SOL    HW1 7654  10.008  10.810   0.943
 1919SOL    HW2 7655   9.902  10.911   0.904
 1920SOL     OW 7656   2.080   4.920  13.897
 1920SOL    HW1 7657   2.087   4.828  13.869
 1920SOL    HW2 7658   2.131   4.924  13.978
 1921SOL     OW 7659  12.350   4.025   4.378
 1921SOL    HW1 7660  12.416   4.013   4.447
 1921SOL    HW2 7661  12.322   3.936   4.356
 1922SOL     OW 7662   6.177   5.554  10.944
 1922SOL    HW1 7663   6.213   5.553  10.855
 1922SOL    HW2 7664   6.130   5.637  10.951
 1923SOL     OW 7665   3.778   7.792   7.452
 1923SOL    HW1 7666   3.683   7.797   7.436
 1923SOL    HW2 7667   3.817   7.818   7.369
 1924SOL     OW 7668  11.690   7.542   8.229
 1924SOL    HW1 7669  11.605   7.555   8.272
 1924SOL    HW2 7670  11.669   7.502   8.145
 1925SOL     OW 7671   6.297   7.212  10.721
 1925SOL    HW1 7672   6.314   7.280  10.656
 1925SOL    HW2 7673   6.217   7.169  10.690
 1926SOL     OW 7674  13.272  13.971  11.696
 1926SOL    HW1 7675  13.318  14.001  11.618
 1926SOL    HW2 7676  13.185  14.011  11.690
 1927SOL     OW 7677   1.371   0.363   6.441
 1927SOL    HW1 7678   1.312   0.409   6.501
 1927SOL    HW2 7679   1.342   0.272   6.444
 1928SOL     OW 7680  11.751   2.897   2.360
 1928SOL    HW1 7681  11.748   2.804   2.336
 1928SOL    HW2 7682  11.792   2.940   2.285
 1929SOL     OW 7683  10.310  11.036  13.437
 1929SOL    HW1 7684  10.235  10.984  13.466
 1929SOL    HW2 7685  10.383  10.975  13.436
 1930SOL     OW 7686   5.488   8.192   3.240
 1930SOL    HW1 7687   5.536   8.113   3.215
 1930SOL    HW2 7688   5.517   8.210   3.330
 1931SOL     OW 7689   6.087  14.638   1.598
 1931SOL    HW1 7690   6.040  14.693   1.536
 1931SOL    HW2 7691   6.170  14.618   1.556
 1932SOL     OW 7692   9.381   0.132  11.954
 1932SOL    HW1 7693   9.346   0.046  11.930
 1932SOL    HW2 7694   9.473   0.129  11.928
 1933SOL     OW 7695   9.055   3.350  14.705
 1933SOL    HW1 7696   8.966   3.313  14.701
 1933SOL    HW2 7697   9.072   3.380  14.616
 1934SOL     OW 7698  11.007   6.757   5.842
 1934SOL    HW1 7699  11.038   6.843   5.814
 1934SOL    HW2 7700  11.035   6.697   5.772
 1935SOL     OW 7701  11.253   4.799   5.977
 1935SOL    HW1 7702  11.204   4.763   6.051
 1935SOL    HW2 7703  11.241   4.736   5.907
 1936SOL     OW 7704   7.364   5.244  14.460
 1936SOL    HW1 7705   7.431   5.245  14.529
 1936SOL    HW2 7706   7.415   5.244  14.378
 1937SOL     OW 7707  13.696  12.894   7.619
 1937SOL    HW1 7708  13.791  12.881   7.625
 1937SOL    HW2 7709  13.659  12.825   7.674
 1938SOL     OW 7710  13.178  11.004   1.236
 1938SOL    HW1 7711  13.147  10.968   1.153
 1938SOL    HW2 7712  13.229  11.081   1.211
 1939SOL     OW 7713   2.584   4.726   7.156
 1939SOL    HW1 7714   2.553   4.777   7.230
 1939SOL    HW2 7715   2.584   4.635   7.187
 1940SOL     OW 7716   1.791   7.098  14.290
 1940SOL    HW1 7717   1.883   7.108  14.266
 1940SOL    HW2 7718   1.758   7.188  14.295
 1941SOL     OW 7719   4.537   9.934   2.969
 1941SOL    HW1 7720   4.611   9.901   2.918
 1941SOL    HW2 7721   4.570  10.011   3.014
 1942SOL     OW 7722  10.953  14.499   3.300
 1942SOL    HW1 7723  10.867  14.473   3.267
 1942SOL    HW2 7724  10.935  14.543   3.383
 1943SOL     OW 7725  14.001   7.802   9.715
 1943SOL    HW1 7726  13.931   7.737   9.703
 1943SOL    HW2 7727  13.980   7.846   9.797
 1944SOL     OW 7728  13.567   6.786   9.580
 1944SOL    HW1 7729  13.514   6.810   9.656
 1944SOL    HW2 7730  13.658   6.798   9.611
 1945SOL     OW 7731   5.671   2.813  10.261
 1945SOL    HW1 7732   5.765   2.824  10.275
 1945SOL    HW2 7733   5.631   2.891  10.300
 1946SOL     OW 7734  12.026   7.142   7.027
 1946SOL    HW1 7735  12.020   7.046   7.026
 1946SOL    HW2 7736  12.093   7.161   7.092
 1947SOL     OW 7737  10.788  10.963  11.095
 1947SOL    HW1 7738  10.832  10.878  11.085
 1947SOL    HW2 7739  10.697  10.942  11.111
 1948SOL     OW 7740   7.162  13.208   5.542
 1948SOL    HW1 7741   7.191  13.144   5.608
 1948SOL    HW2 7742   7.070  13.186   5.526
 1949SOL     OW 7743   1.874   9.997   5.491
 1949SOL    HW1 7744   1.957  10.002   5.538
 1949SOL    HW2 7745   1.857  10.086   5.461
 1950SOL     OW 7746   0.003   0.068   4.615
 1950SOL    HW1 7747   0.047   0.096   4.535
 1950SOL    HW2 7748  14.851   0.150   4.660
 1951SOL     OW 7749   6.982  11.748   4.255
 1951SOL    HW1 7750   7.037  11.682   4.211
 1951SOL    HW2 7751   6.896  11.740   4.213
 1952SOL     OW 7752  13.231  10.045  13.478
 1952SOL    HW1 7753  13.157  10.096  13.513
 1952SOL    HW2 7754  13.289  10.111  13.439
 1953SOL     OW 7755  11.746  14.225  10.990
 1953SOL    HW1 7756  11.841  14.224  11.001
 1953SOL    HW2 7757  11.716  14.293  11.051
 1954SOL     OW 7758  13.971   8.231  12.481
 1954SOL    HW1 7759  14.013   8.187  12.554
 1954SOL    HW2 7760  13.916   8.163  12.441
 1955SOL     OW 7761  11.813   4.924   6.604
 1955SOL    HW1 7762  11.808   4.990   6.672
 1955SOL    HW2 7763  11.876   4.958   6.541
 1956SOL     OW 7764  11.922  13.570  11.865
 1956SOL    HW1 7765  11.829  13.591  11.877
 1956SOL    HW2 7766  11.946  13.616  11.784
 1957SOL     OW 7767  10.837   5.394   6.592
 1957SOL    HW1 7768  10.851   5.449   6.514
 1957SOL    HW2 7769  10.877   5.444   6.664
 1958SOL     OW 7770  11.411  12.381   7.177
 1958SOL    HW1 7771  11.404  12.374   7.082
 1958SOL    HW2 7772  11.418  12.290   7.208
 1959SOL     OW 7773   7.627  14.398   2.263
 1959SOL    HW1 7774   7.723  14.390   2.268
 1959SOL    HW2 7775   7.611  14.438   2.177
 1960SOL     OW 7776   5.181  11.725   8.803
 1960SOL    HW1 7777   5.186  11.643   8.753
 1960SOL    HW2 7778   5.097  11.720   8.848
 1961SOL     OW 7779  14.356   5.791   4.283
 1961SOL    HW1 7780  14.275   5.771   4.237
 1961SOL    HW2 7781  14.424   5.784   4.217
 1962SOL     OW 7782   5.525   1.330   2.212
 1962SOL    HW1 7783   5.496   1.385   2.285
 1962SOL    HW2 7784   5.481   1.246   2.227
 1963SOL     OW 7785   6.897  12.415   9.374
 1963SOL    HW1 7786   6.986  12.413   9.337
 1963SOL    HW2 7787   6.902  12.480   9.444
 1964SOL     OW 7788   1.740   8.716  13.567
 1964SOL    HW1 7789   1.768   8.807  13.571
 1964SOL    HW2 7790   1.792   8.677  13.496
 1965SOL     OW 7791   8.686   6.605   9.187
 1965SOL    HW1 7792   8.728   6.522   9.165
 1965SOL    HW2 7793   8.599   6.581   9.219
 1966SOL     OW 7794   6.619   9.247   1.984
 1966SOL    HW1 7795   6.613   9.217   2.075
 1966SOL    HW2 7796   6.704   9.215   1.953
 1967SOL     OW 7797   9.694   0.595   8.645
 1967SOL    HW1 7798   9.760   0.638   8.699
 1967SOL    HW2 7799   9.680   0.654   8.571
 1968SOL     OW 7800   9.911   4.448   4.358
 1968SOL    HW1 7801   9.822   4.413   4.351
 1968SOL    HW2 7802   9.912   4.525   4.302
 1969SOL     OW 7803   4.750   7.458   6.515
 1969SOL    HW1 7804   4.846   7.463   6.515
 1969SOL    HW2 7805   4.724   7.499   6.598
 1970SOL     OW 7806   9.996   1.329  14.637
 1970SOL    HW1 7807  10.082   1.288  14.648
 1970SOL    HW2 7808   9.991   1.392  14.709
 1971SOL     OW 7809  12.203   4.326   6.298
 1971SOL    HW1 7810  12.129   4.282   6.340
 1971SOL    HW2 7811  12.277   4.310   6.356
 1972SOL     OW 7812   0.136   1.436   8.863
 1972SOL    HW1 7813   0.046   1.467   8.847
 1972SOL    HW2 7814   0.173   1.500   8.923
 1973SOL     OW 7815  12.264   9.411   4.159
 1973SOL    HW1 7816  12.261   9.464   4.079
 1973SOL    HW2 7817  12.338   9.447   4.208
 1974SOL     OW 7818   3.703   7.962   9.818
 1974SOL    HW1 7819   3.658   8.043   9.792
 1974SOL    HW2 7820   3.635   7.913   9.865
 1975SOL     OW 7821   1.348   8.331  13.641
 1975SOL    HW1 7822   1.259   8.366  13.638
 1975SOL    HW2 7823   1.404   8.404  13.616
 1976SOL     OW 7824   5.851   0.662  12.167
 1976SOL    HW1 7825   5.927   0.626  12.122
 1976SOL    HW2 7826   5.813   0.725  12.106
 1977SOL     OW 7827  13.483  13.646  14.715
 1977SOL    HW1 7828  13.443  13.720  14.670
 1977SOL    HW2 7829  13.417  13.618  14.778
 1978SOL     OW 7830   6.636   8.313   1.189
 1978SOL    HW1 7831   6.688   8.343   1.264
 1978SOL    HW2 7832   6.687   8.243   1.151
 1979SOL     OW 7833   3.489   5.007  12.711
 1979SOL    HW1 7834   3.407   5.057  12.706
 1979SOL    HW2 7835   3.540   5.052  12.779
 1980SOL     OW 7836   7.844  13.808  10.561
 1980SOL    HW1 7837   7.784  13.871  10.521
 1980SOL    HW2 7838   7.826  13.726  10.516
 1981SOL     OW 7839  13.082   3.799  10.682
 1981SOL    HW1 7840  13.157   3.859  10.678
 1981SOL    HW2 7841  13.099   3.746  10.760
 1982SOL     OW 7842  11.250  13.054  14.645
 1982SOL    HW1 7843  11.317  13.008  14.594
 1982SOL    HW2 7844  11.178  12.992  14.652
 1983SOL     OW 7845   8.778   9.873  12.228
 1983SOL    HW1 7846   8.855   9.920  12.195
 1983SOL    HW2 7847   8.799   9.853  12.319
 1984SOL     OW 7848  10.691   2.815   0.425
 1984SOL    HW1 7849  10.708   2.903   0.390
 1984SOL    HW2 7850  10.762   2.761   0.390
 1985SOL     OW 7851   5.643   3.508  12.347
 1985SOL    HW1 7852   5.708   3.509  12.276
 1985SOL    HW2 7853   5.692   3.480  12.424
 1986SOL     OW 7854  10.921   9.893  13.995
 1986SOL    HW1 7855  10.834   9.876  13.958
 1986SOL    HW2 7856  10.959   9.807  14.008
 1987SOL     OW 7857   6.457   9.218  14.751
 1987SOL    HW1 7858   6.434   9.139  14.799
 1987SOL    HW2 7859   6.412   9.210  14.667
 1988SOL     OW 7860   8.783  11.558   9.095
 1988SOL    HW1 7861   8.806  11.559   9.188
 1988SOL    HW2 7862   8.867  11.568   9.050
 1989SOL     OW 7863   8.583   2.774   5.191
 1989SOL    HW1 7864   8.494   2.811   5.187
 1989SOL    HW2 7865   8.597   2.754   5.283
 1990SOL     OW 7866   3.896   3.375   1.840
 1990SOL    HW1 7867   3.833   3.363   1.770
 1990SOL    HW2 7868   3.980   3.390   1.795
 1991SOL     OW 7869   1.707   3.481   4.763
 1991SOL    HW1 7870   1.680   3.523   4.845
 1991SOL    HW2 7871   1.802   3.473   4.771
 1992SOL     OW 7872   9.092  12.861   3.689
 1992SOL    HW1 7873   9.085  12.951   3.721
 1992SOL    HW2 7874   9.010  12.819   3.716
 1993SOL     OW 7875  10.718  13.057   2.833
 1993SOL    HW1 7876  10.695  13.072   2.741
 1993SOL    HW2 7877  10.754  12.969   2.834
 1994SOL     OW 7878   7.573   9.838   0.363
 1994SOL    HW1 7879   7.606   9.850   0.451
 1994SOL    HW2 7880   7.643   9.792   0.316
 1995SOL     OW 7881   5.787   4.391   7.102
 1995SOL    HW1 7882   5.812   4.357   7.017
 1995SOL    HW2 7883   5.841   4.469   7.114
 1996SOL     OW 7884   1.883  14.146   1.582
 1996SOL    HW1 7885   1.942  14.218   1.559
 1996SOL    HW2 7886   1.872  14.152   1.676
 1997SOL     OW 7887   0.728   5.078   7.951
 1997SOL    HW1 7888   0.708   5.164   7.914
 1997SOL    HW2 7889   0.720   5.018   7.877
 1998SOL     OW 7890   8.133  12.270   2.467
 1998SOL    HW1 7891   8.151  12.340   2.530
 1998SOL    HW2 7892   8.039  12.257   2.472
 1999SOL     OW 7893  13.024   2.485   3.991
 1999SOL    HW1 7894  12.949   2.427   3.990
 1999SOL    HW2 7895  13.084   2.446   4.055
 2000SOL     OW 7896  13.265  12.432   1.151
 2000SOL    HW1 7897  13.242  12.362   1.213
 2000SOL    HW2 7898  13.219  12.408   1.070
 2001SOL     OW 7899   2.934   3.397   9.109
 2001SOL    HW1 7900   3.007   3.385   9.049
 2001SOL    HW2 7901   2.856   3.380   9.056
 2002SOL     OW 7902  11.183   7.025   1.043
 2002SOL    HW1 7903  11.133   6.951   1.077
 2002SOL    HW2 7904  11.274   7.004   1.064
 2003SOL     OW 7905   9.047   8.876   1.540
 2003SOL    HW1 7906   9.005   8.800   1.500
 2003SOL    HW2 7907   9.000   8.889   1.622
 2004SOL     OW 7908   0.346   4.103   3.532
 2004SOL    HW1 7909   0.301   4.124   3.450
 2004SOL    HW2 7910   0.347   4.185   3.581
 2005SOL     OW 7911   7.353  14.154   1.768
 2005SOL    HW1 7912   7.367  14.170   1.675
 2005SOL    HW2 7913   7.440  14.165   1.807
 2006SOL     OW 7914  13.562   4.780  14.517
 2006SOL    HW1 7915  13.619   4.770  14.441
 2006SOL    HW2 7916  13.475   4.794  14.480
 2007SOL     OW 7917   9.375  12.666   5.108
 2007SOL    HW1 7918   9.316  12.600   5.072
 2007SOL    HW2 7919   9.425  12.698   5.033
 2008SOL     OW 7920   8.555  11.678   9.859
 2008SOL    HW1 7921   8.508  11.596   9.845
 2008SOL    HW2 7922   8.631  11.653   9.912
 2009SOL     OW 7923   1.453  13.656   9.752
 2009SOL    HW1 7924   1.539  13.635   9.716
 2009SOL    HW2 7925   1.436  13.588   9.817
 2010SOL     OW 7926   3.768  12.092  10.320
 2010SOL    HW1 7927   3.847  12.038  10.325
 2010SOL    HW2 7928   3.700  12.033  10.289
 2011SOL     OW 7929   6.028   8.328   3.847
 2011SOL    HW1 7930   5.965   8.270   3.889
 2011SOL    HW2 7931   6.054   8.390   3.915
 2012SOL     OW 7932   8.822  14.840   4.666
 2012SOL    HW1 7933   8.894  14.868   4.610
 2012SOL    HW2 7934   8.761  14.795   4.606
 2013SOL     OW 7935   9.337  14.196  14.112
 2013SOL    HW1 7936   9.299  14.277  14.077
 2013SOL    HW2 7937   9.327  14.133  14.041
 2014SOL     OW 7938   7.934   5.864   2.475
 2014SOL    HW1 7939   7.857   5.852   2.419
 2014SOL    HW2 7940   7.905   5.921   2.545
 2015SOL     OW 7941  12.018  10.632   2.872
 2015SOL    HW1 7942  12.091  10.694   2.875
 2015SOL    HW2 7943  11.964  10.662   2.798
 2016SOL     OW 7944   9.267   6.018  13.604
 2016SOL    HW1 7945   9.334   5.995  13.540
 2016SOL    HW2 7946   9.190   6.040  13.551
 2017SOL     OW 7947  11.596   0.330  12.225
 2017SOL    HW1 7948  11.656   0.284  12.167
 2017SOL    HW2 7949  11.533   0.264  12.253
 2018SOL     OW 7950   6.958   5.602   9.927
 2018SOL    HW1 7951   6.887   5.556   9.971
 2018SOL    HW2 7952   6.983   5.672   9.987
 2019SOL     OW 7953   3.425   4.790   4.559
 2019SOL    HW1 7954   3.474   4.854   4.508
 2019SOL    HW2 7955   3.467   4.706   4.540
 2020SOL     OW 7956   9.227   2.966   9.352
 2020SOL    HW1 7957   9.302   2.952   9.411
 2020SOL    HW2 7958   9.166   3.018   9.404
 2021SOL     OW 7959   3.538   9.327   5.372
 2021SOL    HW1 7960   3.625   9.302   5.401
 2021SOL    HW2 7961   3.486   9.247   5.380
 2022SOL     OW 7962  12.464   8.023  14.322
 2022SOL    HW1 7963  12.434   8.050  14.409
 2022SOL    HW2 7964  12.403   7.954  14.296
 2023SOL     OW 7965   4.141   7.454  13.829
 2023SOL    HW1 7966   4.055   7.492  13.848
 2023SOL    HW2 7967   4.126   7.398  13.753
 2024SOL     OW 7968   3.654   6.946   2.153
 2024SOL    HW1 7969   3.719   6.991   2.207
 2024SOL    HW2 7970   3.626   6.871   2.206
 2025SOL     OW 7971  13.400   7.171   9.427
 2025SOL    HW1 7972  13.402   7.194   9.334
 2025SOL    HW2 7973  13.469   7.105   9.437
 2026SOL     OW 7974  12.015   0.239   6.452
 2026SOL    HW1 7975  12.007   0.334   6.460
 2026SOL    HW2 7976  12.025   0.224   6.358
 2027SOL     OW 7977   9.655   6.131   6.759
 2027SOL    HW1 7978   9.576   6.082   6.740
 2027SOL    HW2 7979   9.661   6.133   6.855
 2028SOL     OW 7980   2.208  10.391  11.400
 2028SOL    HW1 7981   2.304  10.385  11.407
 2028SOL    HW2 7982   2.183  10.315  11.348
 2029SOL     OW 7983  13.400  11.147   2.165
 2029SOL    HW1 7984  13.340  11.186   2.228
 2029SOL    HW2 7985  13.466  11.103   2.218
 2030SOL     OW 7986   9.578   6.178  14.468
 2030SOL    HW1 7987   9.492   6.138  14.456
 2030SOL    HW2 7988   9.564   6.248  14.531
 2031SOL     OW 7989   8.330  12.664   5.715
 2031SOL    HW1 7990   8.323  12.723   5.790
 2031SOL    HW2 7991   8.419  12.676   5.683
 2032SOL     OW 7992   4.978  12.655   6.255
 2032SOL    HW1 7993   4.966  12.727   6.192
 2032SOL    HW2 7994   5.061  12.615   6.229
 2033SOL     OW 7995  10.030   8.506   4.187
 2033SOL    HW1 7996   9.965   8.445   4.152
 2033SOL    HW2 7997  10.042   8.570   4.116
 2034SOL     OW 7998   3.306   1.522  13.504
 2034SOL    HW1 7999   3.291   1.479  13.589
 2034SOL    HW2 8000   3.387   1.483  13.472
 2035SOL     OW 8001   2.916  11.234  11.033
 2035SOL    HW1 8002   2.923  11.146  10.995
 2035SOL    HW2 8003   2.999  11.248  11.078
 2036SOL     OW 8004   1.667   5.950   5.241
 2036SOL    HW1 8005   1.687   6.030   5.192
 2036SOL    HW2 8006   1.590   5.914   5.198
 2037SOL     OW 8007  14.836   9.277   8.734
 2037SOL    HW1 8008   0.048   9.231   8.718
 2037SOL    HW2 8009  14.780   9.213   8.778
 2038SOL     OW 8010  13.458   0.522   2.384
 2038SOL    HW1 8011  13.447   0.466   2.307
 2038SOL    HW2 8012  13.371   0.558   2.401
 2039SOL     OW 8013  12.154  11.500   4.747
 2039SOL    HW1 8014  12.124  11.480   4.658
 2039SOL    HW2 8015  12.200  11.421   4.775
 2040SOL     OW 8016  14.096   9.709   9.390
 2040SOL    HW1 8017  14.116   9.718   9.483
 2040SOL    HW2 8018  14.179   9.726   9.346
 2041SOL     OW 8019  13.827  13.179  14.243
 2041SOL    HW1 8020  13.824  13.150  14.334
 2041SOL    HW2 8021  13.770  13.255  14.240
 2042SOL     OW 8022  13.174  11.992  12.917
 2042SOL    HW1 8023  13.244  12.056  12.904
 2042SOL    HW2 8024  13.097  12.033  12.877
 2043SOL     OW 8025  10.530  11.418  13.564
 2043SOL    HW1 8026  10.455  11.359  13.567
 2043SOL    HW2 8027  10.501  11.490  13.507
 2044SOL     OW 8028  11.677   2.858   7.748
 2044SOL    HW1 8029  11.715   2.937   7.710
 2044SOL    HW2 8030  11.693   2.790   7.683
 2045SOL     OW 8031   4.289   4.167   2.683
 2045SOL    HW1 8032   4.282   4.226   2.608
 2045SOL    HW2 8033   4.273   4.080   2.646
 2046SOL     OW 8034  12.821   0.856  10.583
 2046SOL    HW1 8035  12.781   0.941  10.565
 2046SOL    HW2 8036  12.747   0.796  10.591
 2047SOL     OW 8037  14.065   2.871   1.316
 2047SOL    HW1 8038  14.115   2.926   1.256
 2047SOL    HW2 8039  14.002   2.930   1.357
 2048SOL     OW 8040   8.592   1.042   0.660
 2048SOL    HW1 8041   8.596   1.115   0.598
 2048SOL    HW2 8042   8.524   1.067   0.722
 2049SOL     OW 8043   0.250   6.306   5.733
 2049SOL    HW1 8044   0.321   6.264   5.782
 2049SOL    HW2 8045   0.225   6.242   5.666
 2050SOL     OW 8046  11.281  14.216   5.164
 2050SOL    HW1 8047  11.235  14.160   5.102
 2050SOL    HW2 8048  11.265  14.305   5.134
 2051SOL     OW 8049  13.631   7.823   9.491
 2051SOL    HW1 8050  13.680   7.845   9.412
 2051SOL    HW2 8051  13.584   7.743   9.469
 2052SOL     OW 8052   0.836   7.636   5.246
 2052SOL    HW1 8053   0.806   7.701   5.309
 2052SOL    HW2 8054   0.756   7.599   5.209
 2053SOL     OW 8055   9.264   9.647  10.065
 2053SOL    HW1 8056   9.199   9.593  10.111
 2053SOL    HW2 8057   9.295   9.590   9.994
 2054SOL     OW 8058   2.937   0.976   7.882
 2054SOL    HW1 8059   2.984   0.906   7.928
 2054SOL    HW2 8060   2.952   1.054   7.936
 2055SOL     OW 8061   4.281   4.471  14.845
 2055SOL    HW1 8062   4.313   4.414  14.775
 2055SOL    HW2 8063   4.185   4.469  14.836
 2056SOL     OW 8064   2.341  11.465  10.217
 2056SOL    HW1 8065   2.334  11.429  10.305
 2056SOL    HW2 8066   2.323  11.392  10.159
 2057SOL     OW 8067   1.041   9.911   0.488
 2057SOL    HW1 8068   1.124   9.929   0.532
 2057SOL    HW2 8069   1.006   9.997   0.466
 2058SOL     OW 8070   5.109  12.997   9.736
 2058SOL    HW1 8071   5.160  12.918   9.755
 2058SOL    HW2 8072   5.055  13.009   9.814
 2059SOL     OW 8073  11.627   0.652  11.838
 2059SOL    HW1 8074  11.701   0.681  11.891
 2059SOL    HW2 8075  11.569   0.607  11.899
 2060SOL     OW 8076  12.009  11.205   4.115
 2060SOL    HW1 8077  12.067  11.152   4.060
 2060SOL    HW2 8078  11.973  11.271   4.056
 2061SOL     OW 8079  10.317  11.698   7.540
 2061SOL    HW1 8080  10.284  11.751   7.613
 2061SOL    HW2 8081  10.251  11.630   7.527
 2062SOL     OW 8082  13.685   7.856   3.374
 2062SOL    HW1 8083  13.617   7.893   3.430
 2062SOL    HW2 8084  13.741   7.807   3.435
 2063SOL     OW 8085   4.462   6.157   1.181
 2063SOL    HW1 8086   4.489   6.088   1.122
 2063SOL    HW2 8087   4.378   6.187   1.147
 2064SOL     OW 8088  14.110   9.705   1.995
 2064SOL    HW1 8089  14.071   9.790   2.017
 2064SOL    HW2 8090  14.144   9.716   1.907
 2065SOL     OW 8091   4.801  12.407   1.468
 2065SOL    HW1 8092   4.877  12.367   1.427
 2065SOL    HW2 8093   4.743  12.334   1.490
 2066SOL     OW 8094   8.331   0.340  10.287
 2066SOL    HW1 8095   8.324   0.366  10.379
 2066SOL    HW2 8096   8.300   0.249  10.286
 2067SOL     OW 8097   1.978   6.213   4.449
 2067SOL    HW1 8098   1.944   6.169   4.527
 2067SOL    HW2 8099   1.905   6.212   4.387
 2068SOL     OW 8100  13.650   6.839   4.503
 2068SOL    HW1 8101  13.613   6.801   4.583
 2068SOL    HW2 8102  13.574   6.867   4.452
 2069SOL     OW 8103   8.550   4.952   9.637
 2069SOL    HW1 8104   8.583   4.862   9.640
 2069SOL    HW2 8105   8.622   5.005   9.671
 2070SOL     OW 8106  10.618   9.595   4.711
 2070SOL    HW1 8107  10.605   9.656   4.783
 2070SOL    HW2 8108  10.657   9.517   4.751
 2071SOL     OW 8109  10.567  12.932  11.931
 2071SOL    HW1 8110  10.602  12.915  11.843
 2071SOL    HW2 8111  10.605  13.016  11.956
 2072SOL     OW 8112   8.457  10.091   9.084
 2072SOL    HW1 8113   8.460  10.184   9.061
 2072SOL    HW2 8114   8.432  10.091   9.177
 2073SOL     OW 8115   4.614   7.793  10.873
 2073SOL    HW1 8116   4.563   7.734  10.929
 2073SOL    HW2 8117   4.675   7.736  10.827
 2074SOL     OW 8118   8.224  10.382   1.563
 2074SOL    HW1 8119   8.209  10.329   1.484
 2074SOL    HW2 8120   8.136  10.402   1.595
 2075SOL     OW 8121   2.184   6.817  10.396
 2075SOL    HW1 8122   2.280   6.813  10.393
 2075SOL    HW2 8123   2.155   6.744  10.341
 2076SOL     OW 8124  10.492   1.653   4.571
 2076SOL    HW1 8125  10.493   1.741   4.609
 2076SOL    HW2 8126  10.414   1.651   4.516
 2077SOL     OW 8127  11.614   9.927   5.551
 2077SOL    HW1 8128  11.607  10.016   5.586
 2077SOL    HW2 8129  11.678   9.884   5.608
 2078SOL     OW 8130   0.186   9.943   2.381
 2078SOL    HW1 8131   0.215   9.994   2.458
 2078SOL    HW2 8132   0.250   9.872   2.374
 2079SOL     OW 8133   4.007   2.035  13.601
 2079SOL    HW1 8134   4.023   2.085  13.521
 2079SOL    HW2 8135   3.940   1.971  13.577
 2080SOL     OW 8136  10.185   0.703   0.529
 2080SOL    HW1 8137  10.211   0.752   0.452
 2080SOL    HW2 8138  10.098   0.669   0.507
 2081SOL     OW 8139  12.845   6.134   4.838
 2081SOL    HW1 8140  12.869   6.076   4.767
 2081SOL    HW2 8141  12.904   6.209   4.830
 2082SOL     OW 8142   8.107  13.520  11.156
 2082SOL    HW1 8143   8.184  13.464  11.168
 2082SOL    HW2 8144   8.037  13.475  11.204
 2083SOL     OW 8145  10.300  11.540   0.619
 2083SOL    HW1 8146  10.292  11.615   0.560
 2083SOL    HW2 8147  10.283  11.575   0.706
 2084SOL     OW 8148   4.008   7.360  11.076
 2084SOL    HW1 8149   4.099   7.383  11.093
 2084SOL    HW2 8150   3.963   7.375  11.158
 2085SOL     OW 8151  13.451   0.778  11.909
 2085SOL    HW1 8152  13.453   0.756  11.816
 2085SOL    HW2 8153  13.519   0.844  11.920
 2086SOL     OW 8154   9.051   7.603   9.226
 2086SOL    HW1 8155   9.047   7.696   9.205
 2086SOL    HW2 8156   9.051   7.559   9.140
 2087SOL     OW 8157  11.598   1.650   9.489
 2087SOL    HW1 8158  11.618   1.741   9.511
 2087SOL    HW2 8159  11.509   1.636   9.519
 2088SOL     OW 8160  13.164  10.911   4.349
 2088SOL    HW1 8161  13.131  10.885   4.263
 2088SOL    HW2 8162  13.203  10.997   4.335
 2089SOL     OW 8163  14.764   5.949  11.691
 2089SOL    HW1 8164  14.758   5.995  11.775
 2089SOL    HW2 8165  14.694   5.883  11.695
 2090SOL     OW 8166  14.652  10.044   6.458
 2090SOL    HW1 8167  14.662   9.956   6.422
 2090SOL    HW2 8168  14.624  10.029   6.549
 2091SOL     OW 8169   7.419  13.576   6.091
 2091SOL    HW1 8170   7.355  13.609   6.027
 2091SOL    HW2 8171   7.365  13.535   6.159
 2092SOL     OW 8172  12.229   5.159  12.496
 2092SOL    HW1 8173  12.194   5.229  12.551
 2092SOL    HW2 8174  12.290   5.203  12.436
 2093SOL     OW 8175   8.484   1.769   4.861
 2093SOL    HW1 8176   8.430   1.705   4.815
 2093SOL    HW2 8177   8.425   1.807   4.927
 2094SOL     OW 8178   6.504  10.260  10.627
 2094SOL    HW1 8179   6.534  10.326  10.564
 2094SOL    HW2 8180   6.414  10.285  10.648
 2095SOL     OW 8181  12.514  12.725  14.567
 2095SOL    HW1 8182  12.443  12.717  14.631
 2095SOL    HW2 8183  12.575  12.787  14.606
 2096SOL     OW 8184  13.168   1.594   1.045
 2096SOL    HW1 8185  13.080   1.560   1.029
 2096SOL    HW2 8186  13.186   1.651   0.970
 2097SOL     OW 8187  12.570  14.727   6.344
 2097SOL    HW1 8188  12.658  14.692   6.346
 2097SOL    HW2 8189  12.539  14.710   6.255
 2098SOL     OW 8190  10.304  10.781  12.200
 2098SOL    HW1 8191  10.284  10.687  12.206
 2098SOL    HW2 8192  10.234  10.816  12.144
 2099SOL     OW 8193   6.711   1.894  14.327
 2099SOL    HW1 8194   6.647   1.823  14.325
 2099SOL    HW2 8195   6.745   1.893  14.417
 2100SOL     OW 8196  13.599   5.685   4.764
 2100SOL    HW1 8197  13.550   5.734   4.831
 2100SOL    HW2 8198  13.579   5.730   4.682
 2101SOL     OW 8199   4.602   8.014   2.222
 2101SOL    HW1 8200   4.631   7.942   2.280
 2101SOL    HW2 8201   4.508   8.000   2.212
 2102SOL     OW 8202  13.275   8.993   8.308
 2102SOL    HW1 8203  13.335   8.920   8.291
 2102SOL    HW2 8204  13.314   9.068   8.263
 2103SOL     OW 8205   9.282   6.966  11.268
 2103SOL    HW1 8206   9.253   6.916  11.192
 2103SOL    HW2 8207   9.365   6.926  11.293
 2104SOL     OW 8208   1.895   6.944   8.457
 2104SOL    HW1 8209   1.964   7.002   8.423
 2104SOL    HW2 8210   1.899   6.866   8.402
 2105SOL     OW 8211  13.522   8.649   3.839
 2105SOL    HW1 8212  13.470   8.589   3.893
 2105SOL    HW2 8213  13.458   8.713   3.807
 2106SOL     OW 8214  12.033   9.034  14.695
 2106SOL    HW1 8215  12.026   9.069  14.606
 2106SOL    HW2 8216  12.014   8.941  14.685
 2107SOL     OW 8217   1.839   5.914  11.234
 2107SOL    HW1 8218   1.835   5.866  11.151
 2107SOL    HW2 8219   1.752   5.902  11.273
 2108SOL     OW 8220   0.948   1.898  14.120
 2108SOL    HW1 8221   0.925   1.935  14.206
 2108SOL    HW2 8222   0.996   1.818  14.141
 2109SOL     OW 8223   8.736  12.808  12.834
 2109SOL    HW1 8224   8.775  12.810  12.921
 2109SOL    HW2 8225   8.807  12.833  12.775
 2110SOL     OW 8226   1.574  11.834  10.185
 2110SOL    HW1 8227   1.552  11.877  10.102
 2110SOL    HW2 8228   1.669  11.837  10.189
 2111SOL     OW 8229   4.580   7.070   1.479
 2111SOL    HW1 8230   4.488   7.061   1.452
 2111SOL    HW2 8231   4.589   7.008   1.551
 2112SOL     OW 8232  12.677  12.269   5.787
 2112SOL    HW1 8233  12.716  12.272   5.874
 2112SOL    HW2 8234  12.602  12.327   5.792
 2113SOL     OW 8235   4.999  11.377   5.936
 2113SOL    HW1 8236   4.994  11.469   5.964
 2113SOL    HW2 8237   4.969  11.378   5.845
 2114SOL     OW 8238   9.809   3.224  12.677
 2114SOL    HW1 8239   9.781   3.173  12.601
 2114SOL    HW2 8240   9.745   3.295  12.684
 2115SOL     OW 8241   8.035   6.648  13.031
 2115SOL    HW1 8242   7.989   6.630  12.949
 2115SOL    HW2 8243   7.998   6.731  13.063
 2116SOL     OW 8244   1.700   4.100   5.725
 2116SOL    HW1 8245   1.651   4.182   5.725
 2116SOL    HW2 8246   1.654   4.045   5.789
 2117SOL     OW 8247   3.087   2.268  10.188
 2117SOL    HW1 8248   3.140   2.234  10.261
 2117SOL    HW2 8249   3.111   2.213  10.114
 2118SOL     OW 8250   8.486   8.926  14.784
 2118SOL    HW1 8251   8.410   8.972  14.748
 2118SOL    HW2 8252   8.516   8.982  14.856
 2119SOL     OW 8253   4.978  13.431  11.799
 2119SOL    HW1 8254   4.993  13.340  11.827
 2119SOL    HW2 8255   5.025  13.484  11.863
 2120SOL     OW 8256   3.390   3.684   5.504
 2120SOL    HW1 8257   3.377   3.770   5.464
 2120SOL    HW2 8258   3.482   3.685   5.532
 2121SOL     OW 8259   6.581   7.081   4.905
 2121SOL    HW1 8260   6.637   7.104   4.831
 2121SOL    HW2 8261   6.642   7.060   4.976
 2122SOL     OW 8262   8.235   6.140   5.619
 2122SOL    HW1 8263   8.258   6.053   5.651
 2122SOL    HW2 8264   8.258   6.138   5.526
 2123SOL     OW 8265   1.435   5.916   3.124
 2123SOL    HW1 8266   1.393   5.830   3.117
 2123SOL    HW2 8267   1.480   5.928   3.040
 2124SOL     OW 8268   8.530  11.749   0.751
 2124SOL    HW1 8269   8.450  11.705   0.779
 2124SOL    HW2 8270   8.573  11.774   0.833
 2125SOL     OW 8271  14.232   5.591   2.759
 2125SOL    HW1 8272  14.284   5.653   2.811
 2125SOL    HW2 8273  14.255   5.611   2.668
 2126SOL     OW 8274  11.207   8.218   6.748
 2126SOL    HW1 8275  11.224   8.179   6.662
 2126SOL    HW2 8276  11.145   8.158   6.789
 2127SOL     OW 8277   0.498  14.565   0.290
 2127SOL    HW1 8278   0.531  14.486   0.247
 2127SOL    HW2 8279   0.411  14.540   0.321
 2128SOL     OW 8280   3.500   1.342   6.528
 2128SOL    HW1 8281   3.543   1.299   6.455
 2128SOL    HW2 8282   3.467   1.270   6.582
 2129SOL     OW 8283   2.639  13.364   3.809
 2129SOL    HW1 8284   2.616  13.283   3.763
 2129SOL    HW2 8285   2.723  13.345   3.851
 2130SOL     OW 8286   7.054  13.034  12.458
 2130SOL    HW1 8287   7.077  13.068  12.544
 2130SOL    HW2 8288   6.958  13.033  12.458
 2131SOL     OW 8289   5.916   3.315  14.480
 2131SOL    HW1 8290   5.996   3.262  14.481
 2131SOL    HW2 8291   5.847   3.252  14.459
 2132SOL     OW 8292   0.632   0.225   5.681
 2132SOL    HW1 8293   0.651   0.242   5.589
 2132SOL    HW2 8294   0.538   0.241   5.689
 2133SOL     OW 8295   8.840   6.820   9.302
 2133SOL    HW1 8296   8.934   6.821   9.285
 2133SOL    HW2 8297   8.808   6.740   9.260
 2134SOL     OW 8298  11.319   9.691   6.766
 2134SOL    HW1 8299  11.235   9.737   6.766
 2134SOL    HW2 8300  11.321   9.645   6.682
 2135SOL     OW 8301   2.510   7.018  11.945
 2135SOL    HW1 8302   2.427   6.986  11.909
 2135SOL    HW2 8303   2.567   7.027  11.868
 2136SOL     OW 8304   7.342  10.816   5.891
 2136SOL    HW1 8305   7.267  10.869   5.920
 2136SOL    HW2 8306   7.302  10.745   5.841
 2137SOL     OW 8307   5.355   5.607   7.066
 2137SOL    HW1 8308   5.297   5.615   6.990
 2137SOL    HW2 8309   5.365   5.697   7.098
 2138SOL     OW 8310   7.474   9.709   3.423
 2138SOL    HW1 8311   7.444   9.626   3.460
 2138SOL    HW2 8312   7.455   9.702   3.330
 2139SOL     OW 8313  13.389   1.100  14.509
 2139SOL    HW1 8314  13.338   1.028  14.548
 2139SOL    HW2 8315  13.323   1.159  14.472
 2140SOL     OW 8316   8.269  11.775   2.455
 2140SOL    HW1 8317   8.239  11.780   2.364
 2140SOL    HW2 8318   8.229  11.851   2.497
 2141SOL     OW 8319   5.382   2.585   6.894
 2141SOL    HW1 8320   5.464   2.585   6.943
 2141SOL    HW2 8321   5.368   2.493   6.870
 2142SOL     OW 8322   1.984   4.574   2.914
 2142SOL    HW1 8323   1.996   4.483   2.889
 2142SOL    HW2 8324   2.001   4.624   2.834
 2143SOL     OW 8325   8.672   5.872   1.314
 2143SOL    HW1 8326   8.582   5.854   1.286
 2143SOL    HW2 8327   8.669   5.862   1.409
 2144SOL     OW 8328   4.989  11.164   5.413
 2144SOL    HW1 8329   4.992  11.240   5.355
 2144SOL    HW2 8330   4.900  11.164   5.449
 2145SOL     OW 8331   7.965  12.520   1.485
 2145SOL    HW1 8332   8.058  12.531   1.467
 2145SOL    HW2 8333   7.923  12.595   1.443
 2146SOL     OW 8334   3.896   1.009  12.870
 2146SOL    HW1 8335   3.953   0.934  12.855
 2146SOL    HW2 8336   3.834   0.979  12.936
 2147SOL     OW 8337  10.633  13.797   2.668
 2147SOL    HW1 8338  10.657  13.725   2.726
 2147SOL    HW2 8339  10.714  13.847   2.658
 2148SOL     OW 8340   5.374   8.500   9.958
 2148SOL    HW1 8341   5.293   8.546   9.979
 2148SOL    HW2 8342   5.346   8.409   9.944
 2149SOL     OW 8343   5.044   7.609   8.947
 2149SOL    HW1 8344   4.977   7.588   9.012
 2149SOL    HW2 8345   5.024   7.551   8.873
 2150SOL     OW 8346  10.629   5.121  13.724
 2150SOL    HW1 8347  10.695   5.160  13.667
 2150SOL    HW2 8348  10.618   5.032  13.691
 2151SOL     OW 8349   9.575  14.424   4.951
 2151SOL    HW1 8350   9.523  14.423   4.871
 2151SOL    HW2 8351   9.602  14.333   4.963
 2152SOL     OW 8352  13.287   0.309   2.887
 2152SOL    HW1 8353  13.233   0.380   2.851
 2152SOL    HW2 8354  13.376   0.330   2.859
 2153SOL     OW 8355   9.350   3.216   3.093
 2153SOL    HW1 8356   9.283   3.153   3.121
 2153SOL    HW2 8357   9.427   3.194   3.146
 2154SOL     OW 8358   0.193   1.001   3.355
 2154SOL    HW1 8359   0.209   1.095   3.358
 2154SOL    HW2 8360   0.126   0.985   3.422
 2155SOL     OW 8361   1.399  14.780   4.754
 2155SOL    HW1 8362   1.367  14.807   4.668
 2155SOL    HW2 8363   1.378  14.854   4.811
 2156SOL     OW 8364   7.196  10.675  14.212
 2156SOL    HW1 8365   7.162  10.660  14.124
 2156SOL    HW2 8366   7.289  10.654  14.207
 2157SOL     OW 8367   8.057  11.006   7.853
 2157SOL    HW1 8368   8.054  11.096   7.820
 2157SOL    HW2 8369   7.977  10.997   7.905
 2158SOL     OW 8370   1.451   4.873  13.269
 2158SOL    HW1 8371   1.528   4.925  13.247
 2158SOL    HW2 8372   1.382   4.909  13.214
 2159SOL     OW 8373   5.617   0.166   3.868
 2159SOL    HW1 8374   5.602   0.220   3.790
 2159SOL    HW2 8375   5.577   0.215   3.939
 2160SOL     OW 8376  11.130   2.806   7.740
 2160SOL    HW1 8377  11.140   2.872   7.809
 2160SOL    HW2 8378  11.145   2.854   7.658
 2161SOL     OW 8379  12.930   7.488   3.282
 2161SOL    HW1 8380  12.947   7.541   3.204
 2161SOL    HW2 8381  12.926   7.398   3.249
 2162SOL     OW 8382   2.699   8.291   1.313
 2162SOL    HW1 8383   2.753   8.309   1.391
 2162SOL    HW2 8384   2.617   8.337   1.330
 2163SOL     OW 8385   7.843   4.083  11.902
 2163SOL    HW1 8386   7.888   4.099  11.984
 2163SOL    HW2 8387   7.834   4.170  11.862
 2164SOL     OW 8388   7.550  10.149   5.807
 2164SOL    HW1 8389   7.535  10.161   5.713
 2164SOL    HW2 8390   7.472  10.187   5.849
 2165SOL     OW 8391   3.445   6.292   9.208
 2165SOL    HW1 8392   3.528   6.315   9.250
 2165SOL    HW2 8393   3.419   6.371   9.161
 2166SOL     OW 8394  13.622  13.065  12.929
 2166SOL    HW1 8395  13.664  12.980  12.938
 2166SOL    HW2 8396  13.684  13.118  12.878
 2167SOL     OW 8397   3.797   1.163   1.797
 2167SOL    HW1 8398   3.750   1.236   1.838
 2167SOL    HW2 8399   3.886   1.196   1.785
 2168SOL     OW 8400  10.367   6.690  14.310
 2168SOL    HW1 8401  10.462   6.681  14.311
 2168SOL    HW2 8402  10.339   6.647  14.229
 2169SOL     OW 8403   8.582   6.327   5.562
 2169SOL    HW1 8404   8.677   6.316   5.556
 2169SOL    HW2 8405   8.557   6.278   5.641
 2170SOL     OW 8406  12.330  13.440  10.744
 2170SOL    HW1 8407  12.369  13.392  10.671
 2170SOL    HW2 8408  12.272  13.376  10.786
 2171SOL     OW 8409  12.725  14.048   6.573
 2171SOL    HW1 8410  12.807  14.090   6.549
 2171SOL    HW2 8411  12.701  13.994   6.498
 2172SOL     OW 8412  12.408  13.820   7.609
 2172SOL    HW1 8413  12.322  13.806   7.651
 2172SOL    HW2 8414  12.389  13.875   7.534
 2173SOL     OW 8415   7.308   3.222   5.501
 2173SOL    HW1 8416   7.310   3.281   5.577
 2173SOL    HW2 8417   7.221   3.236   5.464
 2174SOL     OW 8418   1.456  14.231   4.122
 2174SOL    HW1 8419   1.473  14.319   4.087
 2174SOL    HW2 8420   1.417  14.247   4.208
 2175SOL     OW 8421   6.944  13.340   6.894
 2175SOL    HW1 8422   6.884  13.402   6.853
 2175SOL    HW2 8423   6.954  13.373   6.984
 2176SOL     OW 8424   4.424   9.252   9.984
 2176SOL    HW1 8425   4.423   9.324   9.921
 2176SOL    HW2 8426   4.332   9.231   9.998
 2177SOL     OW 8427   7.371   7.494  14.693
 2177SOL    HW1 8428   7.389   7.527  14.781
 2177SOL    HW2 8429   7.277   7.507  14.681
 2178SOL     OW 8430   9.857  10.784  11.937
 2178SOL    HW1 8431   9.847  10.867  11.985
 2178SOL    HW2 8432   9.940  10.748  11.969
 2179SOL     OW 8433   0.021  12.458   8.703
 2179SOL    HW1 8434   0.030  12.545   8.665
 2179SOL    HW2 8435  14.824  12.468   8.771
 2180SOL     OW 8436  11.680   5.853   3.429
 2180SOL    HW1 8437  11.682   5.863   3.524
 2180SOL    HW2 8438  11.710   5.938   3.396
 2181SOL     OW 8439   0.617   6.628  11.803
 2181SOL    HW1 8440   0.617   6.724  11.810
 2181SOL    HW2 8441   0.660   6.611  11.719
 2182SOL     OW 8442   0.749   3.977   6.660
 2182SOL    HW1 8443   0.710   4.064   6.654
 2182SOL    HW2 8444   0.722   3.933   6.579
 2183SOL     OW 8445  12.641   5.037   0.389
 2183SOL    HW1 8446  12.666   5.076   0.473
 2183SOL    HW2 8447  12.603   5.108   0.339
 2184SOL     OW 8448   7.417   6.608   8.464
 2184SOL    HW1 8449   7.401   6.690   8.510
 2184SOL    HW2 8450   7.374   6.619   8.379
 2185SOL     OW 8451   0.895   2.725   0.526
 2185SOL    HW1 8452   0.870   2.792   0.591
 2185SOL    HW2 8453   0.980   2.693   0.557
 2186SOL     OW 8454   8.735   9.483   5.144
 2186SOL    HW1 8455   8.765   9.568   5.176
 2186SOL    HW2 8456   8.763   9.421   5.211
 2187SOL     OW 8457  13.750   9.789   0.662
 2187SOL    HW1 8458  13.666   9.834   0.667
 2187SOL    HW2 8459  13.765   9.777   0.569
 2188SOL     OW 8460   0.523   9.562   0.028
 2188SOL    HW1 8461   0.459   9.631   0.041
 2188SOL    HW2 8462   0.608   9.606   0.037
 2189SOL     OW 8463   3.446  11.158   6.105
 2189SOL    HW1 8464   3.420  11.197   6.189
 2189SOL    HW2 8465   3.540  11.146   6.113
 2190SOL     OW 8466  12.079   0.619   0.289
 2190SOL    HW1 8467  12.112   0.697   0.333
 2190SOL    HW2 8468  12.007   0.652   0.234
 2191SOL     OW 8469   8.252  11.018   3.189
 2191SOL    HW1 8470   8.314  11.055   3.252
 2191SOL    HW2 8471   8.294  10.939   3.157
 2192SOL     OW 8472  10.485   1.162   2.348
 2192SOL    HW1 8473  10.427   1.102   2.300
 2192SOL    HW2 8474  10.431   1.193   2.421
 2193SOL     OW 8475   4.057   8.301  12.199
 2193SOL    HW1 8476   4.015   8.249  12.268
 2193SOL    HW2 8477   4.150   8.275  12.203
 2194SOL     OW 8478  10.302   5.168  14.442
 2194SOL    HW1 8479  10.337   5.112  14.373
 2194SOL    HW2 8480  10.235   5.222  14.398
 2195SOL     OW 8481   6.323   2.376   7.562
 2195SOL    HW1 8482   6.250   2.437   7.548
 2195SOL    HW2 8483   6.283   2.289   7.560
 2196SOL     OW 8484   2.826   7.093  10.127
 2196SOL    HW1 8485   2.770   7.016  10.113
 2196SOL    HW2 8486   2.894   7.086  10.060
 2197SOL     OW 8487  11.261   4.273   8.358
 2197SOL    HW1 8488  11.355   4.267   8.370
 2197SOL    HW2 8489  11.231   4.182   8.351
 2198SOL     OW 8490  12.889  13.502  10.019
 2198SOL    HW1 8491  12.838  13.535  10.093
 2198SOL    HW2 8492  12.824  13.478   9.953
 2199SOL     OW 8493  10.302  11.388   9.223
 2199SOL    HW1 8494  10.293  11.483   9.213
 2199SOL    HW2 8495  10.358  11.361   9.150
 2200SOL     OW 8496   3.661  12.016   5.227
 2200SOL    HW1 8497   3.731  11.976   5.176
 2200SOL    HW2 8498   3.706  12.071   5.291
 2201SOL     OW 8499  11.554  12.257   5.392
 2201SOL    HW1 8500  11.624  12.290   5.447
 2201SOL    HW2 8501  11.593  12.251   5.304
 2202SOL     OW 8502   6.629  13.826   0.175
 2202SOL    HW1 8503   6.651  13.911   0.137
 2202SOL    HW2 8504   6.702  13.769   0.152
 2203SOL     OW 8505   0.810   9.768   6.811
 2203SOL    HW1 8506   0.796   9.752   6.904
 2203SOL    HW2 8507   0.898   9.735   6.794
 2204SOL     OW 8508   1.511  12.538   8.566
 2204SOL    HW1 8509   1.535  12.497   8.649
 2204SOL    HW2 8510   1.588  12.528   8.511
 2205SOL     OW 8511  14.776   5.598   7.535
 2205SOL    HW1 8512  14.722   5.519   7.530
 2205SOL    HW2 8513  14.735   5.650   7.604
 2206SOL     OW 8514   3.690   7.304   7.266
 2206SOL    HW1 8515   3.767   7.262   7.228
 2206SOL    HW2 8516   3.664   7.370   7.202
 2207SOL     OW 8517   2.967   5.896   2.043
 2207SOL    HW1 8518   2.907   5.834   2.083
 2207SOL    HW2 8519   3.044   5.844   2.020
 2208SOL     OW 8520  13.128   8.001   5.421
 2208SOL    HW1 8521  13.135   8.094   5.402
 2208SOL    HW2 8522  13.218   7.972   5.435
 2209SOL     OW 8523   4.481   6.519   8.678
 2209SOL    HW1 8524   4.461   6.473   8.597
 2209SOL    HW2 8525   4.567   6.559   8.663
 2210SOL     OW 8526  12.081   7.683   3.462
 2210SOL    HW1 8527  12.150   7.618   3.475
 2210SOL    HW2 8528  12.008   7.634   3.425
 2211SOL     OW 8529  12.615   5.415  14.699
 2211SOL    HW1 8530  12.595   5.327  14.732
 2211SOL    HW2 8531  12.644   5.401  14.609
 2212SOL     OW 8532   0.520  10.325  10.468
 2212SOL    HW1 8533   0.570  10.309  10.548
 2212SOL    HW2 8534   0.455  10.390  10.493
 2213SOL     OW 8535   8.473   7.077   4.895
 2213SOL    HW1 8536   8.541   7.116   4.949
 2213SOL    HW2 8537   8.445   6.999   4.944
 2214SOL     OW 8538  13.807   8.703  10.461
 2214SOL    HW1 8539  13.767   8.766  10.522
 2214SOL    HW2 8540  13.751   8.625  10.467
 2215SOL     OW 8541   3.498   0.266   4.717
 2215SOL    HW1 8542   3.429   0.227   4.771
 2215SOL    HW2 8543   3.482   0.230   4.629
 2216SOL     OW 8544  12.160   9.636  13.890
 2216SOL    HW1 8545  12.179   9.613  13.799
 2216SOL    HW2 8546  12.175   9.554  13.938
 2217SOL     OW 8547   4.302  12.073  10.533
 2217SOL    HW1 8548   4.325  11.980  10.543
 2217SOL    HW2 8549   4.350  12.101  10.455
 2218SOL     OW 8550  14.668  13.533   8.930
 2218SOL    HW1 8551  14.647  13.563   9.019
 2218SOL    HW2 8552  14.666  13.437   8.935
 2219SOL     OW 8553   4.707  13.080   1.969
 2219SOL    HW1 8554   4.684  13.129   2.048
 2219SOL    HW2 8555   4.792  13.040   1.989
 2220SOL     OW 8556  13.177   3.441  14.511
 2220SOL    HW1 8557  13.084   3.457  14.497
 2220SOL    HW2 8558  13.218   3.526  14.499
 2221SOL     OW 8559  11.575   3.538   3.729
 2221SOL    HW1 8560  11.576   3.443   3.735
 2221SOL    HW2 8561  11.517   3.566   3.799
 2222SOL     OW 8562  12.770   0.539   3.174
 2222SOL    HW1 8563  12.784   0.605   3.106
 2222SOL    HW2 8564  12.857   0.522   3.209
 2223SOL     OW 8565  13.346   0.209   2.035
 2223SOL    HW1 8566  13.320   0.134   1.981
 2223SOL    HW2 8567  13.269   0.266   2.037
 2224SOL     OW 8568   2.534   4.486   6.724
 2224SOL    HW1 8569   2.629   4.484   6.711
 2224SOL    HW2 8570   2.508   4.574   6.698
 2225SOL     OW 8571   6.764   6.549   0.266
 2225SOL    HW1 8572   6.713   6.599   0.203
 2225SOL    HW2 8573   6.703   6.534   0.339
 2226SOL     OW 8574   3.187   0.960   7.534
 2226SOL    HW1 8575   3.233   0.909   7.601
 2226SOL    HW2 8576   3.099   0.923   7.531
 2227SOL     OW 8577  12.537   1.368   0.861
 2227SOL    HW1 8578  12.598   1.363   0.934
 2227SOL    HW2 8579  12.592   1.382   0.784
 2228SOL     OW 8580   3.205   5.122  10.427
 2228SOL    HW1 8581   3.293   5.085  10.435
 2228SOL    HW2 8582   3.218   5.217  10.431
 2229SOL     OW 8583  11.974   6.082   8.441
 2229SOL    HW1 8584  11.904   6.128   8.486
 2229SOL    HW2 8585  11.929   6.021   8.382
 2230SOL     OW 8586  11.244   5.622   3.841
 2230SOL    HW1 8587  11.300   5.700   3.841
 2230SOL    HW2 8588  11.158   5.655   3.868
 2231SOL     OW 8589   9.549  11.222   2.705
 2231SOL    HW1 8590   9.606  11.208   2.781
 2231SOL    HW2 8591   9.481  11.281   2.737
 2232SOL     OW 8592  11.148  11.305   2.263
 2232SOL    HW1 8593  11.056  11.331   2.266
 2232SOL    HW2 8594  11.196  11.387   2.269
 2233SOL     OW 8595   8.634   7.827   2.098
 2233SOL    HW1 8596   8.542   7.824   2.074
 2233SOL    HW2 8597   8.648   7.748   2.151
 2234SOL     OW 8598   5.270   2.072  11.477
 2234SOL    HW1 8599   5.179   2.073  11.505
 2234SOL    HW2 8600   5.300   2.162  11.490
 2235SOL     OW 8601   3.046   5.954   9.469
 2235SOL    HW1 8602   3.086   5.873   9.502
 2235SOL    HW2 8603   2.952   5.935   9.470
 2236SOL     OW 8604  13.464  13.636  11.489
 2236SOL    HW1 8605  13.447  13.673  11.576
 2236SOL    HW2 8606  13.558  13.648  11.476
 2237SOL     OW 8607   6.751   5.978   8.946
 2237SOL    HW1 8608   6.840   5.951   8.926
 2237SOL    HW2 8609   6.744   5.969   9.041
 2238SOL     OW 8610   7.204  11.579  14.372
 2238SOL    HW1 8611   7.148  11.503  14.356
 2238SOL    HW2 8612   7.292  11.547  14.355
 2239SOL     OW 8613   8.865   0.708  11.041
 2239SOL    HW1 8614   8.777   0.738  11.022
 2239SOL    HW2 8615   8.923   0.776  11.006
 2240SOL     OW 8616  12.405   8.043   0.817
 2240SOL    HW1 8617  12.360   8.128   0.815
 2240SOL    HW2 8618  12.484   8.056   0.765
 2241SOL     OW 8619  11.184   1.920   7.352
 2241SOL    HW1 8620  11.186   1.908   7.447
 2241SOL    HW2 8621  11.250   1.987   7.335
 2242SOL     OW 8622   7.792  14.648   7.190
 2242SOL    HW1 8623   7.743  14.716   7.143
 2242SOL    HW2 8624   7.882  14.681   7.191
 2243SOL     OW 8625  10.920   6.447   2.905
 2243SOL    HW1 8626  10.994   6.448   2.844
 2243SOL    HW2 8627  10.960   6.436   2.991
 2244SOL     OW 8628   3.536   4.826  10.283
 2244SOL    HW1 8629   3.471   4.828  10.212
 2244SOL    HW2 8630   3.562   4.735  10.290
 2245SOL     OW 8631   7.556   5.849   2.950
 2245SOL    HW1 8632   7.587   5.939   2.961
 2245SOL    HW2 8633   7.597   5.800   3.022
 2246SOL     OW 8634  13.950  12.556  10.341
 2246SOL    HW1 8635  14.024  12.609  10.311
 2246SOL    HW2 8636  13.917  12.602  10.418
 2247SOL     OW 8637   2.675  11.979   4.655
 2247SOL    HW1 8638   2.707  11.934   4.576
 2247SOL    HW2 8639   2.675  11.911   4.722
 2248SOL     OW 8640   0.144  11.205   9.378
 2248SOL    HW1 8641   0.227  11.165   9.353
 2248SOL    HW2 8642   0.148  11.209   9.474
 2249SOL     OW 8643   8.869  12.176   5.548
 2249SOL    HW1 8644   8.924  12.255   5.548
 2249SOL    HW2 8645   8.807  12.190   5.619
 2250SOL     OW 8646   4.878  13.605   8.283
 2250SOL    HW1 8647   4.793  13.626   8.322
 2250SOL    HW2 8648   4.941  13.616   8.354
 2251SOL     OW 8649   9.359   2.299   7.224
 2251SOL    HW1 8650   9.288   2.348   7.183
 2251SOL    HW2 8651   9.433   2.360   7.224
 2252SOL     OW 8652   3.467  12.477  10.045
 2252SOL    HW1 8653   3.447  12.396   9.998
 2252SOL    HW2 8654   3.385  12.502  10.087
 2253SOL     OW 8655   5.871   6.193   0.460
 2253SOL    HW1 8656   5.833   6.169   0.376
 2253SOL    HW2 8657   5.798   6.188   0.522
 2254SOL     OW 8658   7.931   4.107   4.657
 2254SOL    HW1 8659   7.905   4.112   4.749
 2254SOL    HW2 8660   8.027   4.117   4.659
 2255SOL     OW 8661   2.451   6.353   4.962
 2255SOL    HW1 8662   2.474   6.356   5.055
 2255SOL    HW2 8663   2.490   6.431   4.925
 2256SOL     OW 8664   6.013   1.639   4.420
 2256SOL    HW1 8665   5.993   1.570   4.357
 2256SOL    HW2 8666   5.982   1.606   4.504
 2257SOL     OW 8667   9.330   2.636   0.704
 2257SOL    HW1 8668   9.366   2.669   0.787
 2257SOL    HW2 8669   9.267   2.569   0.731
 2258SOL     OW 8670   8.430  11.533   7.732
 2258SOL    HW1 8671   8.419  11.438   7.730
 2258SOL    HW2 8672   8.387  11.564   7.652
 2259SOL     OW 8673   0.917   3.621   0.577
 2259SOL    HW1 8674   0.999   3.587   0.612
 2259SOL    HW2 8675   0.935   3.713   0.558
 2260SOL     OW 8676   1.297  11.578   3.084
 2260SOL    HW1 8677   1.305  11.564   3.178
 2260SOL    HW2 8678   1.206  11.606   3.071
 2261SOL     OW 8679  11.337   7.208   8.627
 2261SOL    HW1 8680  11.243   7.199   8.608
 2261SOL    HW2 8681  11.341   7.238   8.717
 2262SOL     OW 8682   5.114   6.124  14.523
 2262SOL    HW1 8683   5.151   6.137  14.611
 2262SOL    HW2 8684   5.126   6.209  14.480
 2263SOL     OW 8685   5.058   5.736  14.323
 2263SOL    HW1 8686   5.113   5.756  14.247
 2263SOL    HW2 8687   5.106   5.667  14.370
 2264SOL     OW 8688   0.748  11.184   4.383
 2264SOL    HW1 8689   0.653  11.176   4.371
 2264SOL    HW2 8690   0.780  11.093   4.380
 2265SOL     OW 8691   3.764   7.333   7.562
 2265SOL    HW1 8692   3.714   7.374   7.492
 2265SOL    HW2 8693   3.842   7.388   7.571
 2266SOL     OW 8694   9.985   3.243  11.586
 2266SOL    HW1 8695  10.061   3.210  11.538
 2266SOL    HW2 8696   9.940   3.300  11.523
 2267SOL     OW 8697   5.128   0.145  14.523
 2267SOL    HW1 8698   5.084   0.223  14.489
 2267SOL    HW2 8699   5.136   0.161  14.617
 2268SOL     OW 8700   6.883  14.462   4.999
 2268SOL    HW1 8701   6.874  14.395   5.067
 2268SOL    HW2 8702   6.919  14.414   4.924
 2269SOL     OW 8703   6.378  11.849  12.336
 2269SOL    HW1 8704   6.409  11.829  12.424
 2269SOL    HW2 8705   6.363  11.764  12.295
 2270SOL     OW 8706  10.286   1.221  12.942
 2270SOL    HW1 8707  10.370   1.236  12.898
 2270SOL    HW2 8708  10.285   1.284  13.014
 2271SOL     OW 8709   4.085   2.145  13.369
 2271SOL    HW1 8710   4.037   2.216  13.326
 2271SOL    HW2 8711   4.075   2.071  13.310
 2272SOL     OW 8712   0.186  14.490  13.005
 2272SOL    HW1 8713   0.138  14.503  13.087
 2272SOL    HW2 8714   0.263  14.547  13.013
 2273SOL     OW 8715   8.809   3.514  10.501
 2273SOL    HW1 8716   8.849   3.589  10.544
 2273SOL    HW2 8717   8.872   3.489  10.433
 2274SOL     OW 8718   3.488   8.586  12.363
 2274SOL    HW1 8719   3.512   8.643  12.289
 2274SOL    HW2 8720   3.466   8.647  12.433
 2275SOL     OW 8721   6.566  14.629   1.250
 2275SOL    HW1 8722   6.563  14.641   1.345
 2275SOL    HW2 8723   6.520  14.705   1.214
 2276SOL     OW 8724   0.007  14.787  10.770
 2276SOL    HW1 8725  14.816  14.715  10.753
 2276SOL    HW2 8726  14.830  14.843  10.832
 2277SOL     OW 8727   4.906  11.150   7.041
 2277SOL    HW1 8728   4.877  11.223   7.095
 2277SOL    HW2 8729   4.973  11.106   7.093
 2278SOL     OW 8730  14.060   9.289   4.418
 2278SOL    HW1 8731  14.125   9.346   4.376
 2278SOL    HW2 8732  13.982   9.297   4.362
 2279SOL     OW 8733   1.033   6.983   4.177
 2279SOL    HW1 8734   0.984   7.018   4.103
 2279SOL    HW2 8735   1.002   7.034   4.252
 2280SOL     OW 8736   2.528   8.942  14.562
 2280SOL    HW1 8737   2.554   8.921  14.472
 2280SOL    HW2 8738   2.543   8.861  14.610
 2281SOL     OW 8739   1.664  13.903   0.921
 2281SOL    HW1 8740   1.640  13.974   0.861
 2281SOL    HW2 8741   1.666  13.944   1.007
 2282SOL     OW 8742   4.818   2.196  12.198
 2282SOL    HW1 8743   4.781   2.186  12.285
 2282SOL    HW2 8744   4.863   2.113  12.182
 2283SOL     OW 8745   8.408   4.914   3.967
 2283SOL    HW1 8746   8.374   4.825   3.958
 2283SOL    HW2 8747   8.349   4.957   4.029
 2284SOL     OW 8748  10.493   7.427   3.351
 2284SOL    HW1 8749  10.498   7.519   3.375
 2284SOL    HW2 8750  10.399   7.407   3.352
 2285SOL     OW 8751   7.448  11.608   5.370
 2285SOL    HW1 8752   7.392  11.685   5.363
 2285SOL    HW2 8753   7.388  11.534   5.364
 2286SOL     OW 8754  11.611  14.340   0.848
 2286SOL    HW1 8755  11.528  14.305   0.880
 2286SOL    HW2 8756  11.625  14.296   0.764
 2287SOL     OW 8757   7.449  12.397   0.640
 2287SOL    HW1 8758   7.387  12.377   0.711
 2287SOL    HW2 8759   7.426  12.335   0.571
 2288SOL     OW 8760   2.678   7.442   4.414
 2288SOL    HW1 8761   2.621   7.367   4.431
 2288SOL    HW2 8762   2.673   7.495   4.494
 2289SOL     OW 8763  12.163  11.329   8.701
 2289SOL    HW1 8764  12.161  11.346   8.795
 2289SOL    HW2 8765  12.226  11.392   8.666
 2290SOL     OW 8766   5.962  12.618   1.132
 2290SOL    HW1 8767   5.998  12.530   1.139
 2290SOL    HW2 8768   5.869  12.608   1.153
 2291SOL     OW 8769   2.143  13.839  10.006
 2291SOL    HW1 8770   2.239  13.835  10.015
 2291SOL    HW2 8771   2.111  13.771  10.065
 2292SOL     OW 8772   7.489   8.211   3.876
 2292SOL    HW1 8773   7.540   8.276   3.924
 2292SOL    HW2 8774   7.552   8.173   3.814
 2293SOL     OW 8775   3.340  11.055   7.154
 2293SOL    HW1 8776   3.386  11.023   7.076
 2293SOL    HW2 8777   3.256  11.008   7.152
 2294SOL     OW 8778   4.688  11.428  12.316
 2294SOL    HW1 8779   4.738  11.376  12.253
 2294SOL    HW2 8780   4.737  11.419  12.398
 2295SOL     OW 8781   8.563   7.960   1.736
 2295SOL    HW1 8782   8.469   7.976   1.739
 2295SOL    HW2 8783   8.586   7.971   1.644
 2296SOL     OW 8784   3.697   9.719   1.263
 2296SOL    HW1 8785   3.669   9.628   1.254
 2296SOL    HW2 8786   3.626   9.761   1.312
 2297SOL     OW 8787   5.056   7.814   1.219
 2297SOL    HW1 8788   5.117   7.879   1.255
 2297SOL    HW2 8789   5.107   7.765   1.155
 2298SOL     OW 8790  11.351   4.463   6.560
 2298SOL    HW1 8791  11.435   4.421   6.581
 2298SOL    HW2 8792  11.290   4.390   6.555
 2299SOL     OW 8793   3.709   1.189  13.379
 2299SOL    HW1 8794   3.775   1.145  13.325
 2299SOL    HW2 8795   3.748   1.192  13.466
 2300SOL     OW 8796   9.971   9.456   9.430
 2300SOL    HW1 8797   9.977   9.424   9.340
 2300SOL    HW2 8798  10.032   9.401   9.480
 2301SOL     OW 8799   8.082   5.861   7.709
 2301SOL    HW1 8800   8.092   5.774   7.671
 2301SOL    HW2 8801   8.164   5.906   7.688
 2302SOL     OW 8802  11.021  12.075  14.673
 2302SOL    HW1 8803  10.982  12.020  14.741
 2302SOL    HW2 8804  10.960  12.068  14.600
 2303SOL     OW 8805   5.541  12.117   3.059
 2303SOL    HW1 8806   5.498  12.199   3.034
 2303SOL    HW2 8807   5.576  12.083   2.977
 2304SOL     OW 8808  10.246   9.370  13.875
 2304SOL    HW1 8809  10.189   9.301  13.840
 2304SOL    HW2 8810  10.201   9.452  13.855
 2305SOL     OW 8811   3.879  11.844   2.605
 2305SOL    HW1 8812   3.894  11.753   2.578
 2305SOL    HW2 8813   3.962  11.888   2.588
 2306SOL     OW 8814  11.731   1.010   6.993
 2306SOL    HW1 8815  11.645   1.040   6.962
 2306SOL    HW2 8816  11.776   0.981   6.914
 2307SOL     OW 8817   8.495   7.703   6.568
 2307SOL    HW1 8818   8.402   7.724   6.582
 2307SOL    HW2 8819   8.502   7.685   6.474
 2308SOL     OW 8820  11.337   9.868   7.681
 2308SOL    HW1 8821  11.272   9.809   7.719
 2308SOL    HW2 8822  11.285   9.934   7.635
 2309SOL     OW 8823   1.225   1.880   4.800
 2309SOL    HW1 8824   1.144   1.885   4.852
 2309SOL    HW2 8825   1.244   1.970   4.775
 2310SOL     OW 8826   9.292  14.284   5.476
 2310SOL    HW1 8827   9.275  14.372   5.445
 2310SOL    HW2 8828   9.387  14.280   5.484
 2311SOL     OW 8829  12.823   5.769   2.512
 2311SOL    HW1 8830  12.834   5.862   2.531
 2311SOL    HW2 8831  12.816   5.727   2.598
 2312SOL     OW 8832   2.337   2.608   2.885
 2312SOL    HW1 8833   2.260   2.615   2.829
 2312SOL    HW2 8834   2.411   2.617   2.824
 2313SOL     OW 8835  12.806  11.810  11.910
 2313SOL    HW1 8836  12.873  11.878  11.909
 2313SOL    HW2 8837  12.747  11.834  11.838
 2314SOL     OW 8838  12.887   0.362  14.816
 2314SOL    HW1 8839  12.802   0.392  14.846
 2314SOL    HW2 8840  12.868   0.316  14.734
 2315SOL     OW 8841   7.740   4.564   4.313
 2315SOL    HW1 8842   7.647   4.542   4.301
 2315SOL    HW2 8843   7.782   4.480   4.331
 2316SOL     OW 8844  10.654   7.252   4.866
 2316SOL    HW1 8845  10.632   7.343   4.882
 2316SOL    HW2 8846  10.732   7.255   4.810
 2317SOL     OW 8847  10.352  13.084   5.928
 2317SOL    HW1 8848  10.375  13.143   6.001
 2317SOL    HW2 8849  10.410  13.109   5.857
 2318SOL     OW 8850   5.087  12.289   0.822
 2318SOL    HW1 8851   5.170  12.277   0.776
 2318SOL    HW2 8852   5.060  12.378   0.800
 2319SOL     OW 8853   2.087  12.198  12.682
 2319SOL    HW1 8854   2.111  12.252  12.757
 2319SOL    HW2 8855   2.168  12.188  12.632
 2320SOL     OW 8856   2.244   3.194   9.122
 2320SOL    HW1 8857   2.319   3.178   9.065
 2320SOL    HW2 8858   2.169   3.194   9.064
 2321SOL     OW 8859  10.964   0.075  12.016
 2321SOL    HW1 8860  10.880   0.074  12.062
 2321SOL    HW2 8861  10.968   0.162  11.976
 2322SOL     OW 8862   7.343   0.114  10.866
 2322SOL    HW1 8863   7.259   0.160  10.867
 2322SOL    HW2 8864   7.348   0.072  10.952
 2323SOL     OW 8865   4.814  14.378   3.719
 2323SOL    HW1 8866   4.764  14.296   3.719
 2323SOL    HW2 8867   4.881  14.366   3.785
 2324SOL     OW 8868   3.789  13.823   1.827
 2324SOL    HW1 8869   3.703  13.822   1.869
 2324SOL    HW2 8870   3.793  13.909   1.784
 2325SOL     OW 8871   3.663   3.651   9.200
 2325SOL    HW1 8872   3.636   3.725   9.255
 2325SOL    HW2 8873   3.591   3.588   9.207
 2326SOL     OW 8874   4.389  12.328   5.213
 2326SOL    HW1 8875   4.412  12.289   5.297
 2326SOL    HW2 8876   4.324  12.394   5.234
 2327SOL     OW 8877  14.325   2.069   8.930
 2327SOL    HW1 8878  14.303   2.142   8.989
 2327SOL    HW2 8879  14.343   1.996   8.989
 2328SOL     OW 8880  14.005   5.188  11.970
 2328SOL    HW1 8881  14.064   5.255  12.004
 2328SOL    HW2 8882  14.027   5.182  11.877
 2329SOL     OW 8883   6.256  10.645   6.348
 2329SOL    HW1 8884   6.289  10.565   6.388
 2329SOL    HW2 8885   6.311  10.657   6.270
 2330SOL     OW 8886  13.245   5.261   0.330
 2330SOL    HW1 8887  13.266   5.176   0.291
 2330SOL    HW2 8888  13.328   5.310   0.327
 2331SOL     OW 8889  13.019  10.148  10.379
 2331SOL    HW1 8890  12.932  10.148  10.420
 2331SOL    HW2 8891  13.079  10.168  10.451
 2332SOL     OW 8892   9.078   2.249  12.201
 2332SOL    HW1 8893   9.072   2.270  12.108
 2332SOL    HW2 8894   8.987   2.238  12.229
 2333SOL     OW 8895   6.251  12.636   3.453
 2333SOL    HW1 8896   6.300  12.676   3.525
 2333SOL    HW2 8897   6.197  12.706   3.418
 2334SOL     OW 8898  12.586   9.843   3.569
 2334SOL    HW1 8899  12.663   9.898   3.581
 2334SOL    HW2 8900  12.519   9.882   3.625
 2335SOL     OW 8901  11.628   3.940   6.683
 2335SOL    HW1 8902  11.677   3.935   6.601
 2335SOL    HW2 8903  11.599   4.031   6.688
 2336SOL     OW 8904   1.015   9.393  11.776
 2336SOL    HW1 8905   0.975   9.431  11.854
 2336SOL    HW2 8906   0.974   9.307  11.767
 2337SOL     OW 8907  14.305  13.654   5.565
 2337SOL    HW1 8908  14.213  13.629   5.575
 2337SOL    HW2 8909  14.321  13.645   5.471
 2338SOL     OW 8910   9.911   3.860   8.164
 2338SOL    HW1 8911   9.827   3.904   8.155
 2338SOL    HW2 8912   9.959   3.911   8.229
 2339SOL     OW 8913   2.976  11.019   9.680
 2339SOL    HW1 8914   3.066  10.990   9.665
 2339SOL    HW2 8915   2.981  11.115   9.677
 2340SOL     OW 8916   1.440  11.822   6.774
 2340SOL    HW1 8917   1.397  11.892   6.823
 2340SOL    HW2 8918   1.387  11.813   6.694
 2341SOL     OW 8919   3.273   1.809   7.380
 2341SOL    HW1 8920   3.282   1.904   7.387
 2341SOL    HW2 8921   3.178   1.795   7.372
 2342SOL     OW 8922   9.520  11.672   1.547
 2342SOL    HW1 8923   9.497  11.618   1.471
 2342SOL    HW2 8924   9.464  11.749   1.540
 2343SOL     OW 8925  12.753   9.333   0.366
 2343SOL    HW1 8926  12.737   9.411   0.314
 2343SOL    HW2 8927  12.733   9.358   0.455
 2344SOL     OW 8928   0.367   6.199  14.195
 2344SOL    HW1 8929   0.416   6.189  14.276
 2344SOL    HW2 8930   0.298   6.132  14.200
 2345SOL     OW 8931   2.209  12.844   2.379
 2345SOL    HW1 8932   2.124  12.848   2.422
 2345SOL    HW2 8933   2.211  12.756   2.340
 2346SOL     OW 8934   1.035   9.753   6.385
 2346SOL    HW1 8935   1.059   9.815   6.453
 2346SOL    HW2 8936   1.119   9.721   6.351
 2347SOL     OW 8937   9.300   8.781   9.679
 2347SOL    HW1 8938   9.377   8.729   9.653
 2347SOL    HW2 8939   9.235   8.763   9.611
 2348SOL     OW 8940   2.408   3.971   1.176
 2348SOL    HW1 8941   2.503   3.982   1.171
 2348SOL    HW2 8942   2.380   4.033   1.243
 2349SOL     OW 8943   9.886   9.221  10.277
 2349SOL    HW1 8944   9.936   9.140  10.268
 2349SOL    HW2 8945   9.851   9.217  10.366
 2350SOL     OW 8946   3.326   7.232   7.848
 2350SOL    HW1 8947   3.367   7.261   7.930
 2350SOL    HW2 8948   3.400   7.213   7.790
 2351SOL     OW 8949  12.262  11.680   7.801
 2351SOL    HW1 8950  12.171  11.679   7.832
 2351SOL    HW2 8951  12.293  11.591   7.817
 2352SOL     OW 8952  12.767  10.768   9.102
 2352SOL    HW1 8953  12.738  10.852   9.136
 2352SOL    HW2 8954  12.687  10.715   9.098
 2353SOL     OW 8955   6.204   3.213   0.402
 2353SOL    HW1 8956   6.213   3.252   0.488
 2353SOL    HW2 8957   6.164   3.127   0.418
 2354SOL     OW 8958   2.662  11.426   7.155
 2354SOL    HW1 8959   2.690  11.517   7.144
 2354SOL    HW2 8960   2.741  11.374   7.142
 2355SOL     OW 8961   1.470   2.015  12.946
 2355SOL    HW1 8962   1.510   1.969  12.872
 2355SOL    HW2 8963   1.515   1.981  13.023
 2356SOL     OW 8964  13.857   1.585  12.941
 2356SOL    HW1 8965  13.918   1.593  12.867
 2356SOL    HW2 8966  13.910   1.551  13.013
 2357SOL     OW 8967   5.738   5.045   0.868
 2357SOL    HW1 8968   5.670   5.010   0.925
 2357SOL    HW2 8969   5.690   5.094   0.801
 2358SOL     OW 8970  14.014   5.712   7.266
 2358SOL    HW1 8971  13.965   5.789   7.293
 2358SOL    HW2 8972  14.094   5.747   7.225
 2359SOL     OW 8973   3.063   7.913   7.531
 2359SOL    HW1 8974   3.021   7.858   7.465
 2359SOL    HW2 8975   3.017   7.892   7.613
 2360SOL     OW 8976   8.039  13.394   0.509
 2360SOL    HW1 8977   8.022  13.301   0.502
 2360SOL    HW2 8978   8.120  13.401   0.560
 2361SOL     OW 8979   0.447  11.907  12.191
 2361SOL    HW1 8980   0.481  11.955  12.267
 2361SOL    HW2 8981   0.508  11.834  12.180
 2362SOL     OW 8982   2.298   6.985   1.725
 2362SOL    HW1 8983   2.286   6.992   1.631
 2362SOL    HW2 8984   2.350   6.906   1.738
 2363SOL     OW 8985   8.752  12.526   1.732
 2363SOL    HW1 8986   8.805  12.491   1.803
 2363SOL    HW2 8987   8.753  12.458   1.665
 2364SOL     OW 8988   2.343  10.611   4.895
 2364SOL    HW1 8989   2.423  10.626   4.945
 2364SOL    HW2 8990   2.308  10.698   4.877
 2365SOL     OW 8991   1.942  13.788  13.356
 2365SOL    HW1 8992   1.872  13.817  13.415
 2365SOL    HW2 8993   1.959  13.863  13.300
 2366SOL     OW 8994  14.126   5.602   4.373
 2366SOL    HW1 8995  14.180   5.604   4.293
 2366SOL    HW2 8996  14.168   5.535   4.427
 2367SOL     OW 8997  14.743  13.836   4.309
 2367SOL    HW1 8998  14.787  13.785   4.377
 2367SOL    HW2 8999  14.703  13.770   4.251
 2368SOL     OW 9000  14.107   5.587   6.430
 2368SOL    HW1 9001  14.181   5.630   6.473
 2368SOL    HW2 9002  14.121   5.494   6.447
 2369SOL     OW 9003  14.318   0.241   1.962
 2369SOL    HW1 9004  14.392   0.201   1.916
 2369SOL    HW2 9005  14.308   0.327   1.921
 2370SOL     OW 9006   6.646  10.630   7.168
 2370SOL    HW1 9007   6.598  10.642   7.087
 2370SOL    HW2 9008   6.639  10.536   7.187
 2371SOL     OW 9009   5.995  10.108   9.445
 2371SOL    HW1 9010   5.963  10.065   9.365
 2371SOL    HW2 9011   6.081  10.142   9.421
 2372SOL     OW 9012   6.241  10.189   9.046
 2372SOL    HW1 9013   6.312  10.252   9.029
 2372SOL    HW2 9014   6.271  10.138   9.121
 2373SOL     OW 9015   5.584   3.440  14.669
 2373SOL    HW1 9016   5.580   3.494  14.748
 2373SOL    HW2 9017   5.627   3.496  14.604
 2374SOL     OW 9018   2.350   4.084   0.425
 2374SOL    HW1 9019   2.333   4.091   0.519
 2374SOL    HW2 9020   2.419   4.148   0.408
 2375SOL     OW 9021   3.178  14.016   5.095
 2375SOL    HW1 9022   3.229  13.946   5.136
 2375SOL    HW2 9023   3.161  13.983   5.006
 2376SOL     OW 9024  13.426   3.911   4.636
 2376SOL    HW1 9025  13.380   3.886   4.555
 2376SOL    HW2 9026  13.386   3.994   4.662
 2377SOL     OW 9027   0.943   5.302   8.114
 2377SOL    HW1 9028   0.866   5.247   8.100
 2377SOL    HW2 9029   0.932   5.336   8.203
 2378SOL     OW 9030   7.906   7.656   1.417
 2378SOL    HW1 9031   7.934   7.736   1.462
 2378SOL    HW2 9032   7.951   7.658   1.333
 2379SOL     OW 9033   4.238  13.202   3.663
 2379SOL    HW1 9034   4.145  13.180   3.666
 2379SOL    HW2 9035   4.283  13.118   3.658
 2380SOL     OW 9036   1.727   2.027   5.633
 2380SOL    HW1 9037   1.774   2.060   5.557
 2380SOL    HW2 9038   1.729   1.932   5.623
 2381SOL     OW 9039   1.184   7.225  13.813
 2381SOL    HW1 9040   1.104   7.176  13.828
 2381SOL    HW2 9041   1.223   7.184  13.736
 2382SOL     OW 9042   2.471   5.798  10.263
 2382SOL    HW1 9043   2.461   5.824  10.171
 2382SOL    HW2 9044   2.490   5.880  10.309
 2383SOL     OW 9045   4.174  10.543  10.966
 2383SOL    HW1 9046   4.117  10.475  11.002
 2383SOL    HW2 9047   4.262  10.520  10.998
 2384SOL     OW 9048   9.207   9.461   1.672
 2384SOL    HW1 9049   9.241   9.550   1.665
 2384SOL    HW2 9050   9.139   9.466   1.739
 2385SOL     OW 9051   5.927   8.484   0.486
 2385SOL    HW1 9052   5.968   8.405   0.452
 2385SOL    HW2 9053   5.962   8.493   0.574
 2386SOL     OW 9054   0.096   4.142   7.722
 2386SOL    HW1 9055   0.093   4.076   7.653
 2386SOL    HW2 9056   0.098   4.091   7.804
 2387SOL     OW 9057   3.779  12.848   1.711
 2387SOL    HW1 9058   3.789  12.769   1.765
 2387SOL    HW2 9059   3.735  12.817   1.631
 2388SOL     OW 9060   8.381   6.448   9.210
 2388SOL    HW1 9061   8.400   6.526   9.263
 2388SOL    HW2 9062   8.356   6.381   9.274
 2389SOL     OW 9063  11.618   3.821  10.191
 2389SOL    HW1 9064  11.540   3.810  10.245
 2389SOL    HW2 9065  11.596   3.895  10.134
 2390SOL     OW 9066  13.064   3.106  10.878
 2390SOL    HW1 9067  13.117   3.055  10.817
 2390SOL    HW2 9068  12.983   3.055  10.887
 2391SOL     OW 9069  11.740   1.331   2.135
 2391SOL    HW1 9070  11.665   1.312   2.191
 2391SOL    HW2 9071  11.725   1.280   2.056
 2392SOL     OW 9072   4.368  13.683  13.520
 2392SOL    HW1 9073   4.278  13.654  13.528
 2392SOL    HW2 9074   4.413  13.641  13.594
 2393SOL     OW 9075   2.484   7.726  11.246
 2393SOL    HW1 9076   2.488   7.817  11.217
 2393SOL    HW2 9077   2.468   7.675  11.167
 2394SOL     OW 9078   6.080   5.459   3.156
 2394SOL    HW1 9079   6.026   5.516   3.211
 2394SOL    HW2 9080   6.129   5.405   3.219
 2395SOL     OW 9081   4.534   6.774   0.899
 2395SOL    HW1 9082   4.549   6.808   0.811
 2395SOL    HW2 9083   4.481   6.695   0.886
 2396SOL     OW 9084   1.355   5.687   2.244
 2396SOL    HW1 9085   1.269   5.661   2.210
 2396SOL    HW2 9086   1.410   5.609   2.233
 2397SOL     OW 9087   8.662  10.217   6.931
 2397SOL    HW1 9088   8.729  10.278   6.903
 2397SOL    HW2 9089   8.677  10.205   7.025
 2398SOL     OW 9090   3.215  13.571   1.541
 2398SOL    HW1 9091   3.229  13.663   1.521
 2398SOL    HW2 9092   3.171  13.536   1.463
 2399SOL     OW 9093   5.225   1.799   6.798
 2399SOL    HW1 9094   5.229   1.706   6.820
 2399SOL    HW2 9095   5.247   1.803   6.704
 2400SOL     OW 9096  13.769  13.339  13.719
 2400SOL    HW1 9097  13.776  13.249  13.748
 2400SOL    HW2 9098  13.721  13.334  13.636
 2401SOL     OW 9099   6.192   5.137   0.090
 2401SOL    HW1 9100   6.281   5.158   0.060
 2401SOL    HW2 9101   6.152   5.091   0.016
 2402SOL     OW 9102   9.124   6.083   4.286
 2402SOL    HW1 9103   9.191   6.021   4.313
 2402SOL    HW2 9104   9.045   6.053   4.331
 2403SOL     OW 9105  13.385  14.310   3.733
 2403SOL    HW1 9106  13.400  14.218   3.755
 2403SOL    HW2 9107  13.409  14.317   3.641
 2404SOL     OW 9108   5.545   7.708   3.826
 2404SOL    HW1 9109   5.497   7.732   3.747
 2404SOL    HW2 9110   5.479   7.705   3.895
 2405SOL     OW 9111   0.712   0.780  14.842
 2405SOL    HW1 9112   0.736   0.735  14.761
 2405SOL    HW2 9113   0.786   0.765   0.031
 2406SOL     OW 9114   9.809   3.815   3.083
 2406SOL    HW1 9115   9.761   3.796   3.002
 2406SOL    HW2 9116   9.757   3.774   3.152
 2407SOL     OW 9117   9.281  12.981  14.737
 2407SOL    HW1 9118   9.364  12.978  14.689
 2407SOL    HW2 9119   9.293  12.920  14.809
 2408SOL     OW 9120   1.271   8.790   8.924
 2408SOL    HW1 9121   1.240   8.775   9.014
 2408SOL    HW2 9122   1.358   8.828   8.935
 2409SOL     OW 9123   8.141   2.090   5.195
 2409SOL    HW1 9124   8.074   2.140   5.242
 2409SOL    HW2 9125   8.128   2.116   5.103
 2410SOL     OW 9126   5.321   2.086   4.314
 2410SOL    HW1 9127   5.307   2.169   4.267
 2410SOL    HW2 9128   5.289   2.019   4.253
 2411SOL     OW 9129   6.914   8.171   3.249
 2411SOL    HW1 9130   6.920   8.210   3.163
 2411SOL    HW2 9131   6.974   8.096   3.246
 2412SOL     OW 9132  11.032  13.049   0.813
 2412SOL    HW1 9133  11.072  13.059   0.899
 2412SOL    HW2 9134  10.957  13.108   0.814
 2413SOL     OW 9135   6.420   5.254   7.071
 2413SOL    HW1 9136   6.349   5.193   7.089
 2413SOL    HW2 9137   6.496   5.199   7.057
 2414SOL     OW 9138  11.748  12.729   4.877
 2414SOL    HW1 9139  11.765  12.823   4.866
 2414SOL    HW2 9140  11.720  12.700   4.791
 2415SOL     OW 9141   3.027  11.007   3.851
 2415SOL    HW1 9142   3.073  11.066   3.792
 2415SOL    HW2 9143   2.934  11.026   3.836
 2416SOL     OW 9144  11.106   2.940   7.120
 2416SOL    HW1 9145  11.177   2.884   7.089
 2416SOL    HW2 9146  11.150   3.019   7.152
 2417SOL     OW 9147   5.451  14.559   4.132
 2417SOL    HW1 9148   5.513  14.545   4.060
 2417SOL    HW2 9149   5.452  14.654   4.146
 2418SOL     OW 9150   9.283  11.285   4.161
 2418SOL    HW1 9151   9.214  11.347   4.187
 2418SOL    HW2 9152   9.357  11.305   4.218
 2419SOL     OW 9153  13.475   5.116   8.665
 2419SOL    HW1 9154  13.418   5.045   8.635
 2419SOL    HW2 9155  13.415   5.186   8.691
 2420SOL     OW 9156  13.702  10.995   5.060
 2420SOL    HW1 9157  13.772  11.058   5.043
 2420SOL    HW2 9158  13.718  10.966   5.150
 2421SOL     OW 9159  10.296   3.066  10.290
 2421SOL    HW1 9160  10.226   3.001  10.292
 2421SOL    HW2 9161  10.266   3.136  10.349
 2422SOL     OW 9162  14.118   4.709   4.937
 2422SOL    HW1 9163  14.084   4.776   4.997
 2422SOL    HW2 9164  14.104   4.626   4.982
 2423SOL     OW 9165   7.572  14.860   0.583
 2423SOL    HW1 9166   7.513   0.064   0.567
 2423SOL    HW2 9167   7.644   0.003   0.520
 2424SOL     OW 9168  10.535   7.245   9.397
 2424SOL    HW1 9169  10.571   7.330   9.371
 2424SOL    HW2 9170  10.476   7.221   9.326
 2425SOL     OW 9171   6.976   6.393   8.094
 2425SOL    HW1 9172   6.990   6.458   8.026
 2425SOL    HW2 9173   6.881   6.377   8.093
 2426SOL     OW 9174  12.764  12.909   8.613
 2426SOL    HW1 9175  12.696  12.971   8.586
 2426SOL    HW2 9176  12.840  12.932   8.559
 2427SOL     OW 9177   8.615  14.002  10.426
 2427SOL    HW1 9178   8.531  13.958  10.438
 2427SOL    HW2 9179   8.633  13.994  10.332
 2428SOL     OW 9180  10.640   7.846   8.921
 2428SOL    HW1 9181  10.723   7.798   8.921
 2428SOL    HW2 9182  10.663   7.933   8.889
 2429SOL     OW 9183  11.348   0.270   4.603
 2429SOL    HW1 9184  11.396   0.221   4.536
 2429SOL    HW2 9185  11.266   0.295   4.560
 2430SOL     OW 9186   4.047   4.326   1.222
 2430SOL    HW1 9187   4.022   4.237   1.199
 2430SOL    HW2 9188   3.994   4.348   1.299
 2431SOL     OW 9189  13.086  13.989   0.559
 2431SOL    HW1 9190  13.167  14.023   0.596
 2431SOL    HW2 9191  13.098  13.996   0.464
 2432SOL     OW 9192   8.244   2.172   5.557
 2432SOL    HW1 9193   8.176   2.156   5.623
 2432SOL    HW2 9194   8.317   2.118   5.585
 2433SOL     OW 9195   9.238   9.250   2.397
 2433SOL    HW1 9196   9.159   9.203   2.423
 2433SOL    HW2 9197   9.282   9.191   2.336
 2434SOL     OW 9198   6.659   8.385  11.117
 2434SOL    HW1 9199   6.568   8.366  11.139
 2434SOL    HW2 9200   6.674   8.473  11.151
 2435SOL     OW 9201   1.525  11.843  14.701
 2435SOL    HW1 9202   1.491  11.932  14.692
 2435SOL    HW2 9203   1.553  11.819  14.613
 2436SOL     OW 9204   1.522   7.031  13.598
 2436SOL    HW1 9205   1.556   6.946  13.626
 2436SOL    HW2 9206   1.549   7.092  13.666
 2437SOL     OW 9207   5.781   6.101  14.510
 2437SOL    HW1 9208   5.790   6.034  14.442
 2437SOL    HW2 9209   5.711   6.068  14.567
 2438SOL     OW 9210   3.671   4.072   4.579
 2438SOL    HW1 9211   3.754   4.084   4.625
 2438SOL    HW2 9212   3.634   4.160   4.572
 2439SOL     OW 9213  12.548   1.590   1.714
 2439SOL    HW1 9214  12.594   1.662   1.671
 2439SOL    HW2 9215  12.559   1.516   1.655
 2440SOL     OW 9216   3.811   1.234   3.207
 2440SOL    HW1 9217   3.816   1.178   3.129
 2440SOL    HW2 9218   3.898   1.228   3.247
 2441SOL     OW 9219  14.775   2.749   0.669
 2441SOL    HW1 9220  14.855   2.698   0.659
 2441SOL    HW2 9221  14.716   2.693   0.718
 2442SOL     OW 9222   1.286   4.123   6.812
 2442SOL    HW1 9223   1.211   4.068   6.788
 2442SOL    HW2 9224   1.253   4.213   6.806
 2443SOL     OW 9225  10.416   6.477  10.757
 2443SOL    HW1 9226  10.478   6.440  10.695
 2443SOL    HW2 9227  10.345   6.512  10.703
 2444SOL     OW 9228   4.272   8.036  13.463
 2444SOL    HW1 9229   4.358   8.067  13.433
 2444SOL    HW2 9230   4.224   8.019  13.382
 2445SOL     OW 9231  11.522   1.409  12.631
 2445SOL    HW1 9232  11.546   1.324  12.593
 2445SOL    HW2 9233  11.438   1.430  12.591
 2446SOL     OW 9234  11.837   1.908   4.243
 2446SOL    HW1 9235  11.916   1.860   4.267
 2446SOL    HW2 9236  11.785   1.845   4.192
 2447SOL     OW 9237  14.314  11.926  10.168
 2447SOL    HW1 9238  14.268  11.969  10.097
 2447SOL    HW2 9239  14.249  11.866  10.206
 2448SOL     OW 9240  11.303   6.286   4.872
 2448SOL    HW1 9241  11.352   6.217   4.917
 2448SOL    HW2 9242  11.343   6.291   4.785
 2449SOL     OW 9243   1.632   2.170   1.838
 2449SOL    HW1 9244   1.672   2.094   1.881
 2449SOL    HW2 9245   1.602   2.136   1.753
 2450SOL     OW 9246   9.424  10.869   1.871
 2450SOL    HW1 9247   9.388  10.787   1.903
 2450SOL    HW2 9248   9.494  10.891   1.933
 2451SOL     OW 9249   1.409  12.182   0.927
 2451SOL    HW1 9250   1.485  12.233   0.902
 2451SOL    HW2 9251   1.444  12.097   0.953
 2452SOL     OW 9252   1.539   5.843   8.086
 2452SOL    HW1 9253   1.599   5.770   8.070
 2452SOL    HW2 9254   1.472   5.834   8.018
 2453SOL     OW 9255  10.546   8.445   4.890
 2453SOL    HW1 9256  10.530   8.360   4.930
 2453SOL    HW2 9257  10.633   8.438   4.850
 2454SOL     OW 9258  12.337   9.955   3.706
 2454SOL    HW1 9259  12.253   9.992   3.680
 2454SOL    HW2 9260  12.332   9.948   3.801
 2455SOL     OW 9261   7.159   6.108   8.039
 2455SOL    HW1 9262   7.241   6.110   8.087
 2455SOL    HW2 9263   7.181   6.141   7.952
 2456SOL     OW 9264   4.863  11.632   7.493
 2456SOL    HW1 9265   4.833  11.667   7.577
 2456SOL    HW2 9266   4.958  11.625   7.503
 2457SOL     OW 9267   3.679  12.623  11.293
 2457SOL    HW1 9268   3.641  12.677  11.224
 2457SOL    HW2 9269   3.605  12.600  11.349
 2458SOL     OW 9270   5.676  13.563   4.102
 2458SOL    HW1 9271   5.668  13.557   4.006
 2458SOL    HW2 9272   5.617  13.634   4.126
 2459SOL     OW 9273  14.234   4.584   7.849
 2459SOL    HW1 9274  14.253   4.537   7.768
 2459SOL    HW2 9275  14.249   4.676   7.828
 2460SOL     OW 9276   1.916  11.368   8.878
 2460SOL    HW1 9277   1.983  11.434   8.856
 2460SOL    HW2 9278   1.836  11.420   8.893
 2461SOL     OW 9279   5.936   4.783   7.891
 2461SOL    HW1 9280   5.866   4.807   7.830
 2461SOL    HW2 9281   6.014   4.775   7.836
 2462SOL     OW 9282  12.504   8.687   2.656
 2462SOL    HW1 9283  12.447   8.748   2.608
 2462SOL    HW2 9284  12.452   8.607   2.664
 2463SOL     OW 9285   9.163   9.852   3.924
 2463SOL    HW1 9286   9.182   9.903   4.003
 2463SOL    HW2 9287   9.086   9.799   3.948
 2464SOL     OW 9288   9.027   6.729   2.111
 2464SOL    HW1 9289   9.048   6.803   2.167
 2464SOL    HW2 9290   8.949   6.756   2.063
 2465SOL     OW 9291  10.270  14.135   6.241
 2465SOL    HW1 9292  10.336  14.195   6.206
 2465SOL    HW2 9293  10.229  14.184   6.313
 2466SOL     OW 9294   3.535   8.573  14.535
 2466SOL    HW1 9295   3.625   8.598  14.555
 2466SOL    HW2 9296   3.534   8.557  14.441
 2467SOL     OW 9297   5.367  13.082   2.785
 2467SOL    HW1 9298   5.383  13.174   2.804
 2467SOL    HW2 9299   5.277  13.079   2.755
 2468SOL     OW 9300  14.140  11.523   2.594
 2468SOL    HW1 9301  14.235  11.507   2.589
 2468SOL    HW2 9302  14.101  11.438   2.576
 2469SOL     OW 9303   4.835   5.555  12.849
 2469SOL    HW1 9304   4.929   5.570  12.865
 2469SOL    HW2 9305   4.791   5.624  12.898
 2470SOL     OW 9306   9.499   5.882  13.914
 2470SOL    HW1 9307   9.475   5.940  13.986
 2470SOL    HW2 9308   9.530   5.802  13.957
 2471SOL     OW 9309  12.698  14.812   3.289
 2471SOL    HW1 9310  12.736   0.015   3.240
 2471SOL    HW2 9311  12.759  14.739   3.274
 2472SOL     OW 9312  13.471   3.164   5.646
 2472SOL    HW1 9313  13.542   3.120   5.693
 2472SOL    HW2 9314  13.473   3.254   5.679
 2473SOL     OW 9315   5.287   4.400   8.894
 2473SOL    HW1 9316   5.267   4.471   8.956
 2473SOL    HW2 9317   5.325   4.331   8.949
 2474SOL     OW 9318   5.017   2.531   7.916
 2474SOL    HW1 9319   5.065   2.564   7.840
 2474SOL    HW2 9320   4.934   2.501   7.881
 2475SOL     OW 9321  12.918   0.031   0.090
 2475SOL    HW1 9322  12.990   0.009   0.149
 2475SOL    HW2 9323  12.872   0.103   0.135
 2476SOL     OW 9324   7.708   6.883  13.879
 2476SOL    HW1 9325   7.737   6.805  13.926
 2476SOL    HW2 9326   7.781   6.944  13.886
 2477SOL     OW 9327   9.665   0.369   3.346
 2477SOL    HW1 9328   9.635   0.292   3.393
 2477SOL    HW2 9329   9.754   0.347   3.319
 2478SOL     OW 9330   8.496   2.125  11.233
 2478SOL    HW1 9331   8.513   2.153  11.324
 2478SOL    HW2 9332   8.436   2.051  11.241
 2479SOL     OW 9333   2.518  11.131  11.168
 2479SOL    HW1 9334   2.441  11.091  11.208
 2479SOL    HW2 9335   2.505  11.225  11.180
 2480SOL     OW 9336  13.724   4.577   8.261
 2480SOL    HW1 9337  13.663   4.552   8.191
 2480SOL    HW2 9338  13.805   4.596   8.215
 2481SOL     OW 9339   1.188   6.405   9.171
 2481SOL    HW1 9340   1.223   6.371   9.089
 2481SOL    HW2 9341   1.163   6.327   9.221
 2482SOL     OW 9342  13.372  10.624   5.261
 2482SOL    HW1 9343  13.458  10.604   5.224
 2482SOL    HW2 9344  13.367  10.720   5.259
 2483SOL     OW 9345  13.306  14.165  11.152
 2483SOL    HW1 9346  13.219  14.132  11.176
 2483SOL    HW2 9347  13.298  14.191  11.060
 2484SOL     OW 9348   5.240  11.530  14.405
 2484SOL    HW1 9349   5.251  11.442  14.441
 2484SOL    HW2 9350   5.145  11.545  14.407
 2485SOL     OW 9351  14.802  12.668   9.437
 2485SOL    HW1 9352  14.841  12.605   9.498
 2485SOL    HW2 9353  14.813  12.753   9.480
 2486SOL     OW 9354  13.022   0.152   8.818
 2486SOL    HW1 9355  13.003   0.060   8.801
 2486SOL    HW2 9356  13.058   0.153   8.907
 2487SOL     OW 9357  12.435   6.790   5.950
 2487SOL    HW1 9358  12.495   6.864   5.938
 2487SOL    HW2 9359  12.492   6.714   5.953
 2488SOL     OW 9360   0.774  10.859  10.658
 2488SOL    HW1 9361   0.781  10.784  10.598
 2488SOL    HW2 9362   0.704  10.835  10.718
 2489SOL     OW 9363  11.277   7.316   7.714
 2489SOL    HW1 9364  11.247   7.392   7.763
 2489SOL    HW2 9365  11.203   7.292   7.658
 2490SOL     OW 9366  14.029   9.712   0.737
 2490SOL    HW1 9367  13.962   9.737   0.673
 2490SOL    HW2 9368  14.075   9.794   0.756
 2491SOL     OW 9369   5.019   6.004  10.431
 2491SOL    HW1 9370   5.047   5.938  10.494
 2491SOL    HW2 9371   4.984   6.075  10.484
 2492SOL     OW 9372  13.222   1.030  11.206
 2492SOL    HW1 9373  13.147   1.011  11.263
 2492SOL    HW2 9374  13.203   1.117  11.170
 2493SOL     OW 9375   4.409   1.728   5.096
 2493SOL    HW1 9376   4.481   1.698   5.041
 2493SOL    HW2 9377   4.451   1.754   5.178
 2494SOL     OW 9378   2.806   0.546   5.759
 2494SOL    HW1 9379   2.779   0.637   5.751
 2494SOL    HW2 9380   2.758   0.501   5.689
 2495SOL     OW 9381   5.073   3.299   5.704
 2495SOL    HW1 9382   5.004   3.286   5.639
 2495SOL    HW2 9383   5.035   3.359   5.768
 2496SOL     OW 9384   9.499   8.814   2.432
 2496SOL    HW1 9385   9.590   8.822   2.404
 2496SOL    HW2 9386   9.448   8.819   2.351
 2497SOL     OW 9387   1.499   5.625  10.860
 2497SOL    HW1 9388   1.513   5.710  10.820
 2497SOL    HW2 9389   1.569   5.617  10.925
 2498SOL     OW 9390   2.281   5.934  11.786
 2498SOL    HW1 9391   2.373   5.916  11.764
 2498SOL    HW2 9392   2.283   5.957  11.879
 2499SOL     OW 9393   1.636   5.549   5.075
 2499SOL    HW1 9394   1.541   5.552   5.063
 2499SOL    HW2 9395   1.668   5.631   5.038
 2500SOL     OW 9396   2.833   0.688  14.257
 2500SOL    HW1 9397   2.778   0.628  14.205
 2500SOL    HW2 9398   2.775   0.760  14.280
 2501SOL     OW 9399  11.312   8.449   2.193
 2501SOL    HW1 9400  11.401   8.416   2.203
 2501SOL    HW2 9401  11.282   8.413   2.109
 2502SOL     OW 9402  12.789  13.949   3.749
 2502SOL    HW1 9403  12.869  13.902   3.774
 2502SOL    HW2 9404  12.744  13.889   3.689
 2503SOL     OW 9405   4.843   7.781  14.267
 2503SOL    HW1 9406   4.841   7.807  14.359
 2503SOL    HW2 9407   4.761   7.733  14.254
 2504SOL     OW 9408  11.042  12.450  10.152
 2504SOL    HW1 9409  10.992  12.373  10.179
 2504SOL    HW2 9410  11.003  12.475  10.068
 2505SOL     OW 9411   1.824  12.806   6.010
 2505SOL    HW1 9412   1.800  12.872   6.075
 2505SOL    HW2 9413   1.881  12.746   6.056
 2506SOL     OW 9414   0.088  14.324  14.723
 2506SOL    HW1 9415   0.044  14.393  14.773
 2506SOL    HW2 9416   0.092  14.250  14.784
 2507SOL     OW 9417  12.169  12.336  12.180
 2507SOL    HW1 9418  12.143  12.424  12.151
 2507SOL    HW2 9419  12.236  12.353  12.247
 2508SOL     OW 9420   3.935  13.085   2.730
 2508SOL    HW1 9421   3.992  13.078   2.806
 2508SOL    HW2 9422   3.960  13.167   2.688
 2509SOL     OW 9423  10.323   8.406  13.846
 2509SOL    HW1 9424  10.293   8.323  13.810
 2509SOL    HW2 9425  10.336   8.388  13.939
 2510SOL     OW 9426   6.472  11.732   6.200
 2510SOL    HW1 9427   6.469  11.826   6.217
 2510SOL    HW2 9428   6.537  11.699   6.262
 2511SOL     OW 9429   1.233   6.071   8.596
 2511SOL    HW1 9430   1.206   6.017   8.670
 2511SOL    HW2 9431   1.327   6.056   8.588
 2512SOL     OW 9432   4.135  13.313  11.218
 2512SOL    HW1 9433   4.042  13.332  11.208
 2512SOL    HW2 9434   4.146  13.227  11.178
 2513SOL     OW 9435   1.366  12.901   5.723
 2513SOL    HW1 9436   1.386  12.917   5.815
 2513SOL    HW2 9437   1.451  12.895   5.681
 2514SOL     OW 9438   7.774   0.013  12.762
 2514SOL    HW1 9439   7.811   0.102  12.765
 2514SOL    HW2 9440   7.836  14.833  12.709
 2515SOL     OW 9441   5.078  13.300  12.685
 2515SOL    HW1 9442   5.025  13.237  12.732
 2515SOL    HW2 9443   5.108  13.254  12.607
 2516SOL     OW 9444   1.402  14.577  12.043
 2516SOL    HW1 9445   1.379  14.668  12.028
 2516SOL    HW2 9446   1.488  14.580  12.084
 2517SOL     OW 9447   5.174  12.893   6.471
 2517SOL    HW1 9448   5.194  12.879   6.379
 2517SOL    HW2 9449   5.250  12.860   6.518
 2518SOL     OW 9450   7.889  14.008   2.605
 2518SOL    HW1 9451   7.902  14.036   2.696
 2518SOL    HW2 9452   7.978  14.001   2.569
 2519SOL     OW 9453   9.887   7.074   5.025
 2519SOL    HW1 9454   9.965   7.018   5.020
 2519SOL    HW2 9455   9.828   7.038   4.958
 2520SOL     OW 9456  12.846   5.361   4.342
 2520SOL    HW1 9457  12.755   5.353   4.370
 2520SOL    HW2 9458  12.888   5.413   4.410
 2521SOL     OW 9459   7.955   3.423   3.695
 2521SOL    HW1 9460   7.866   3.427   3.730
 2521SOL    HW2 9461   8.003   3.490   3.744
 2522SOL     OW 9462   6.955   1.364   4.569
 2522SOL    HW1 9463   7.042   1.325   4.580
 2522SOL    HW2 9464   6.932   1.394   4.657
 2523SOL     OW 9465   1.022   4.889   5.347
 2523SOL    HW1 9466   1.081   4.902   5.273
 2523SOL    HW2 9467   1.075   4.844   5.412
 2524SOL     OW 9468   8.832  11.575   4.636
 2524SOL    HW1 9469   8.877  11.659   4.632
 2524SOL    HW2 9470   8.862  11.535   4.718
 2525SOL     OW 9471   8.600  14.758   4.978
 2525SOL    HW1 9472   8.634  14.704   4.906
 2525SOL    HW2 9473   8.602  14.847   4.944
 2526SOL     OW 9474   7.277   9.379  10.831
 2526SOL    HW1 9475   7.330   9.316  10.879
 2526SOL    HW2 9476   7.314   9.465  10.854
 2527SOL     OW 9477   3.915   6.449   4.119
 2527SOL    HW1 9478   3.917   6.518   4.185
 2527SOL    HW2 9479   3.879   6.373   4.165
 2528SOL     OW 9480   2.204  12.318   9.444
 2528SOL    HW1 9481   2.242  12.234   9.470
 2528SOL    HW2 9482   2.149  12.344   9.517
 2529SOL     OW 9483  11.397  13.265   3.157
 2529SOL    HW1 9484  11.327  13.330   3.164
 2529SOL    HW2 9485  11.405  13.229   3.246
 2530SOL     OW 9486   0.437   1.447   0.793
 2530SOL    HW1 9487   0.442   1.392   0.714
 2530SOL    HW2 9488   0.528   1.457   0.821
 2531SOL     OW 9489   0.105   4.287   1.344
 2531SOL    HW1 9490   0.101   4.363   1.286
 2531SOL    HW2 9491   0.021   4.243   1.332
 2532SOL     OW 9492   7.951   2.440   5.695
 2532SOL    HW1 9493   7.970   2.522   5.741
 2532SOL    HW2 9494   7.871   2.408   5.737
 2533SOL     OW 9495  12.661   4.364   8.437
 2533SOL    HW1 9496  12.745   4.319   8.425
 2533SOL    HW2 9497  12.662   4.433   8.370
 2534SOL     OW 9498  12.246   3.151  12.830
 2534SOL    HW1 9499  12.252   3.057  12.846
 2534SOL    HW2 9500  12.240   3.159  12.735
 2535SOL     OW 9501   0.677   4.204   6.878
 2535SOL    HW1 9502   0.621   4.130   6.856
 2535SOL    HW2 9503   0.638   4.278   6.831
 2536SOL     OW 9504   3.605   0.424   6.314
 2536SOL    HW1 9505   3.690   0.405   6.354
 2536SOL    HW2 9506   3.543   0.419   6.387
 2537SOL     OW 9507   5.049   3.658  13.767
 2537SOL    HW1 9508   5.124   3.604  13.790
 2537SOL    HW2 9509   5.010   3.616  13.690
 2538SOL     OW 9510   8.321   4.936   3.349
 2538SOL    HW1 9511   8.256   4.938   3.419
 2538SOL    HW2 9512   8.382   4.867   3.376
 2539SOL     OW 9513   0.816   3.857   8.754
 2539SOL    HW1 9514   0.809   3.770   8.793
 2539SOL    HW2 9515   0.770   3.915   8.815
 2540SOL     OW 9516   3.962   9.432   2.893
 2540SOL    HW1 9517   3.998   9.469   2.812
 2540SOL    HW2 9518   3.870   9.417   2.874
 2541SOL     OW 9519  13.434   8.786   8.223
 2541SOL    HW1 9520  13.369   8.747   8.163
 2541SOL    HW2 9521  13.449   8.719   8.289
 2542SOL     OW 9522  12.938   1.508   1.948
 2542SOL    HW1 9523  12.998   1.547   2.011
 2542SOL    HW2 9524  12.870   1.573   1.936
 2543SOL     OW 9525   4.112  11.552   1.155
 2543SOL    HW1 9526   4.041  11.591   1.205
 2543SOL    HW2 9527   4.070  11.519   1.075
 2544SOL     OW 9528   3.593   6.837  11.165
 2544SOL    HW1 9529   3.654   6.869  11.232
 2544SOL    HW2 9530   3.571   6.915  11.114
 2545SOL     OW 9531   9.334  11.986  14.420
 2545SOL    HW1 9532   9.372  11.906  14.454
 2545SOL    HW2 9533   9.257  11.957  14.370
 2546SOL     OW 9534   5.643  10.974   8.856
 2546SOL    HW1 9535   5.666  10.881   8.847
 2546SOL    HW2 9536   5.639  11.007   8.766
 2547SOL     OW 9537  14.407  10.681   5.938
 2547SOL    HW1 9538  14.471  10.753   5.943
 2547SOL    HW2 9539  14.441  10.615   5.999
 2548SOL     OW 9540   0.438   3.350   0.416
 2548SOL    HW1 9541   0.444   3.392   0.502
 2548SOL    HW2 9542   0.346   3.323   0.409
 2549SOL     OW 9543   3.696   0.521   6.971
 2549SOL    HW1 9544   3.677   0.578   6.897
 2549SOL    HW2 9545   3.758   0.570   7.025
 2550SOL     OW 9546   1.311  13.061  10.132
 2550SOL    HW1 9547   1.369  13.134  10.110
 2550SOL    HW2 9548   1.369  12.991  10.159
 2551SOL     OW 9549   4.294   6.839   9.300
 2551SOL    HW1 9550   4.363   6.843   9.234
 2551SOL    HW2 9551   4.257   6.927   9.302
 2552SOL     OW 9552   5.019   9.596   4.833
 2552SOL    HW1 9553   5.101   9.546   4.833
 2552SOL    HW2 9554   5.041   9.678   4.877
 2553SOL     OW 9555   6.521   1.176  10.380
 2553SOL    HW1 9556   6.470   1.236  10.434
 2553SOL    HW2 9557   6.464   1.155  10.307
 2554SOL     OW 9558   1.455   0.368   1.980
 2554SOL    HW1 9559   1.406   0.303   2.031
 2554SOL    HW2 9560   1.498   0.423   2.047
 2555SOL     OW 9561   0.567  14.099   6.552
 2555SOL    HW1 9562   0.610  14.047   6.485
 2555SOL    HW2 9563   0.564  14.043   6.629
 2556SOL     OW 9564  13.429  11.577   1.332
 2556SOL    HW1 9565  13.478  11.507   1.288
 2556SOL    HW2 9566  13.376  11.532   1.398
 2557SOL     OW 9567   6.627  14.178  11.607
 2557SOL    HW1 9568   6.579  14.098  11.630
 2557SOL    HW2 9569   6.673  14.202  11.687
 2558SOL     OW 9570  13.005   4.689   8.114
 2558SOL    HW1 9571  13.035   4.778   8.095
 2558SOL    HW2 9572  12.982   4.690   8.206
 2559SOL     OW 9573  13.469   7.277   4.292
 2559SOL    HW1 9574  13.557   7.260   4.324
 2559SOL    HW2 9575  13.441   7.195   4.252
 2560SOL     OW 9576   8.731   2.244   1.061
 2560SOL    HW1 9577   8.701   2.197   0.983
 2560SOL    HW2 9578   8.790   2.311   1.028
 2561SOL     OW 9579   2.095  12.639  12.798
 2561SOL    HW1 9580   2.181  12.666  12.831
 2561SOL    HW2 9581   2.112  12.602  12.712
 2562SOL     OW 9582   3.846   3.645   3.066
 2562SOL    HW1 9583   3.763   3.645   3.113
 2562SOL    HW2 9584   3.904   3.593   3.120
 2563SOL     OW 9585   3.496  10.213   8.583
 2563SOL    HW1 9586   3.591  10.203   8.574
 2563SOL    HW2 9587   3.482  10.308   8.587
 2564SOL     OW 9588   5.059  14.053   9.619
 2564SOL    HW1 9589   5.063  13.970   9.668
 2564SOL    HW2 9590   4.966  14.062   9.597
 2565SOL     OW 9591  12.451   1.584   6.394
 2565SOL    HW1 9592  12.450   1.609   6.302
 2565SOL    HW2 9593  12.477   1.492   6.394
 2566SOL     OW 9594  13.168  13.998   5.039
 2566SOL    HW1 9595  13.129  13.994   4.951
 2566SOL    HW2 9596  13.249  13.948   5.031
 2567SOL     OW 9597   9.811   1.265   8.627
 2567SOL    HW1 9598   9.773   1.271   8.539
 2567SOL    HW2 9599   9.735   1.268   8.686
 2568SOL     OW 9600  11.458  11.101   1.444
 2568SOL    HW1 9601  11.450  11.181   1.393
 2568SOL    HW2 9602  11.533  11.055   1.406
 2569SOL     OW 9603  13.643   4.439   3.888
 2569SOL    HW1 9604  13.709   4.508   3.892
 2569SOL    HW2 9605  13.683   4.365   3.934
 2570SOL     OW 9606   7.162   8.491  10.346
 2570SOL    HW1 9607   7.207   8.509  10.429
 2570SOL    HW2 9608   7.218   8.532  10.280
 2571SOL     OW 9609  11.027   0.138   4.310
 2571SOL    HW1 9610  11.103   0.107   4.260
 2571SOL    HW2 9611  11.006   0.223   4.273
 2572SOL     OW 9612  12.061   4.215   1.764
 2572SOL    HW1 9613  12.080   4.229   1.671
 2572SOL    HW2 9614  12.114   4.139   1.789
 2573SOL     OW 9615   5.361  14.402  12.698
 2573SOL    HW1 9616   5.303  14.424  12.625
 2573SOL    HW2 9617   5.399  14.485  12.724
 2574SOL     OW 9618   0.657  13.090   1.018
 2574SOL    HW1 9619   0.571  13.055   1.043
 2574SOL    HW2 9620   0.642  13.135   0.935
 2575SOL     OW 9621   6.553   8.370   8.612
 2575SOL    HW1 9622   6.570   8.412   8.528
 2575SOL    HW2 9623   6.523   8.441   8.669
 2576SOL     OW 9624  10.411  11.602  13.379
 2576SOL    HW1 9625  10.356  11.552  13.318
 2576SOL    HW2 9626  10.368  11.687  13.386
 2577SOL     OW 9627   3.190  14.569  13.231
 2577SOL    HW1 9628   3.225  14.646  13.277
 2577SOL    HW2 9629   3.268  14.517  13.209
 2578SOL     OW 9630  14.680   8.785   5.394
 2578SOL    HW1 9631  14.635   8.756   5.314
 2578SOL    HW2 9632  14.611   8.786   5.461
 2579SOL     OW 9633   0.204  10.468   0.124
 2579SOL    HW1 9634   0.225  10.556   0.154
 2579SOL    HW2 9635   0.197  10.476   0.029
 2580SOL     OW 9636  11.592   4.127   3.572
 2580SOL    HW1 9637  11.608   4.171   3.655
 2580SOL    HW2 9638  11.649   4.050   3.574
 2581SOL     OW 9639  14.326  11.835   4.339
 2581SOL    HW1 9640  14.239  11.865   4.315
 2581SOL    HW2 9641  14.383  11.866   4.268
 2582SOL     OW 9642   7.876   7.142   0.882
 2582SOL    HW1 9643   7.783   7.147   0.859
 2582SOL    HW2 9644   7.882   7.068   0.942
 2583SOL     OW 9645   0.953  11.601   7.187
 2583SOL    HW1 9646   1.021  11.649   7.139
 2583SOL    HW2 9647   1.002  11.544   7.247
 2584SOL     OW 9648   2.168  10.367   1.118
 2584SOL    HW1 9649   2.143  10.278   1.144
 2584SOL    HW2 9650   2.191  10.410   1.200
 2585SOL     OW 9651  10.649   8.551   8.024
 2585SOL    HW1 9652  10.648   8.644   8.003
 2585SOL    HW2 9653  10.701   8.511   7.954
 2586SOL     OW 9654   4.752   3.338   2.212
 2586SOL    HW1 9655   4.840   3.323   2.246
 2586SOL    HW2 9656   4.760   3.417   2.158
 2587SOL     OW 9657  14.516   7.214   5.168
 2587SOL    HW1 9658  14.452   7.171   5.224
 2587SOL    HW2 9659  14.523   7.303   5.203
 2588SOL     OW 9660   2.989   4.516   1.278
 2588SOL    HW1 9661   3.032   4.546   1.358
 2588SOL    HW2 9662   3.053   4.461   1.234
 2589SOL     OW 9663   0.867   8.083   5.630
 2589SOL    HW1 9664   0.777   8.073   5.661
 2589SOL    HW2 9665   0.919   8.025   5.687
 2590SOL     OW 9666   2.269  10.371  14.838
 2590SOL    HW1 9667   2.201  10.342  14.778
 2590SOL    HW2 9668   2.344  10.315  14.818
 2591SOL     OW 9669   2.953   8.590   7.991
 2591SOL    HW1 9670   2.989   8.674   7.960
 2591SOL    HW2 9671   2.876   8.576   7.937
 2592SOL     OW 9672   8.563  11.416  10.743
 2592SOL    HW1 9673   8.519  11.352  10.687
 2592SOL    HW2 9674   8.574  11.372  10.827
 2593SOL     OW 9675   9.317   7.560  12.025
 2593SOL    HW1 9676   9.282   7.575  11.938
 2593SOL    HW2 9677   9.314   7.464  12.036
 2594SOL     OW 9678   3.932   2.348   6.752
 2594SOL    HW1 9679   3.990   2.372   6.679
 2594SOL    HW2 9680   3.870   2.421   6.759
 2595SOL     OW 9681   2.666   0.096  10.401
 2595SOL    HW1 9682   2.658   0.118  10.308
 2595SOL    HW2 9683   2.598   0.148  10.444
 2596SOL     OW 9684   3.092   5.579   9.969
 2596SOL    HW1 9685   3.098   5.673   9.989
 2596SOL    HW2 9686   3.097   5.536  10.054
 2597SOL     OW 9687   4.781  11.755   2.925
 2597SOL    HW1 9688   4.793  11.806   2.845
 2597SOL    HW2 9689   4.738  11.815   2.986
 2598SOL     OW 9690   4.016   0.760   0.653
 2598SOL    HW1 9691   4.080   0.690   0.667
 2598SOL    HW2 9692   4.065   0.828   0.607
 2599SOL     OW 9693  14.679   5.630   8.131
 2599SOL    HW1 9694  14.761   5.603   8.089
 2599SOL    HW2 9695  14.655   5.555   8.186
 2600SOL     OW 9696   6.356  12.008   3.364
 2600SOL    HW1 9697   6.401  12.072   3.309
 2600SOL    HW2 9698   6.374  12.036   3.453
 2601SOL     OW 9699   1.551   4.096   0.556
 2601SOL    HW1 9700   1.469   4.085   0.509
 2601SOL    HW2 9701   1.535   4.169   0.616
 2602SOL     OW 9702  13.691   0.583  12.628
 2602SOL    HW1 9703  13.664   0.526  12.557
 2602SOL    HW2 9704  13.692   0.526  12.705
 2603SOL     OW 9705   1.074   4.697   8.842
 2603SOL    HW1 9706   1.080   4.633   8.770
 2603SOL    HW2 9707   1.015   4.657   8.905
 2604SOL     OW 9708   2.032   0.425   3.061
 2604SOL    HW1 9709   2.006   0.511   3.095
 2604SOL    HW2 9710   1.967   0.404   2.995
 2605SOL     OW 9711  13.523   1.153   7.981
 2605SOL    HW1 9712  13.583   1.087   8.015
 2605SOL    HW2 9713  13.524   1.140   7.887
 2606SOL     OW 9714   3.907   1.220   3.617
 2606SOL    HW1 9715   3.942   1.190   3.533
 2606SOL    HW2 9716   3.903   1.315   3.609
 2607SOL     OW 9717  12.689   1.805   6.412
 2607SOL    HW1 9718  12.639   1.834   6.336
 2607SOL    HW2 9719  12.643   1.727   6.444
 2608SOL     OW 9720  12.359  12.558   5.000
 2608SOL    HW1 9721  12.429  12.528   4.942
 2608SOL    HW2 9722  12.370  12.504   5.079
 2609SOL     OW 9723   4.858   7.644   4.282
 2609SOL    HW1 9724   4.927   7.606   4.228
 2609SOL    HW2 9725   4.888   7.631   4.372
 2610SOL     OW 9726   7.696   8.522   9.408
 2610SOL    HW1 9727   7.716   8.513   9.501
 2610SOL    HW2 9728   7.602   8.541   9.405
 2611SOL     OW 9729  14.199  11.176   9.043
 2611SOL    HW1 9730  14.165  11.193   9.130
 2611SOL    HW2 9731  14.279  11.228   9.038
 2612SOL     OW 9732   1.924  11.010   9.082
 2612SOL    HW1 9733   1.894  10.927   9.118
 2612SOL    HW2 9734   1.848  11.068   9.088
 2613SOL     OW 9735  10.763   1.856   6.671
 2613SOL    HW1 9736  10.756   1.810   6.587
 2613SOL    HW2 9737  10.783   1.947   6.647
 2614SOL     OW 9738   5.490  14.415   9.975
 2614SOL    HW1 9739   5.570  14.469   9.974
 2614SOL    HW2 9740   5.517  14.334  10.020
 2615SOL     OW 9741  10.795  12.734  10.238
 2615SOL    HW1 9742  10.890  12.741  10.246
 2615SOL    HW2 9743  10.773  12.652  10.283
 2616SOL     OW 9744   2.711   1.716   5.266
 2616SOL    HW1 9745   2.765   1.787   5.299
 2616SOL    HW2 9746   2.742   1.703   5.176
 2617SOL     OW 9747  14.417  10.918   4.123
 2617SOL    HW1 9748  14.455  10.920   4.210
 2617SOL    HW2 9749  14.464  10.848   4.077
 2618SOL     OW 9750   0.288   5.723   4.071
 2618SOL    HW1 9751   0.278   5.739   3.978
 2618SOL    HW2 9752   0.313   5.631   4.078
 2619SOL     OW 9753   2.262  12.137  14.775
 2619SOL    HW1 9754   2.294  12.097  14.856
 2619SOL    HW2 9755   2.167  12.146  14.789
 2620SOL     OW 9756   3.611   3.364   4.755
 2620SOL    HW1 9757   3.678   3.341   4.819
 2620SOL    HW2 9758   3.653   3.351   4.670
 2621SOL     OW 9759  10.883   0.733  12.668
 2621SOL    HW1 9760  10.832   0.806  12.703
 2621SOL    HW2 9761  10.925   0.769  12.590
 2622SOL     OW 9762   1.774  11.158   8.795
 2622SOL    HW1 9763   1.685  11.194   8.787
 2622SOL    HW2 9764   1.823  11.226   8.842
 2623SOL     OW 9765  11.434  13.945   2.743
 2623SOL    HW1 9766  11.350  13.905   2.764
 2623SOL    HW2 9767  11.491  13.871   2.719
 2624SOL     OW 9768   3.867   8.381   2.552
 2624SOL    HW1 9769   3.896   8.472   2.545
 2624SOL    HW2 9770   3.808   8.369   2.478
 2625SOL     OW 9771   8.619   4.960  12.656
 2625SOL    HW1 9772   8.593   5.048  12.684
 2625SOL    HW2 9773   8.537   4.913  12.644
 2626SOL     OW 9774   8.323   7.143   0.735
 2626SOL    HW1 9775   8.255   7.200   0.699
 2626SOL    HW2 9776   8.278   7.092   0.803
 2627SOL     OW 9777  10.406   0.726   2.152
 2627SOL    HW1 9778  10.355   0.715   2.072
 2627SOL    HW2 9779  10.395   0.644   2.200
 2628SOL     OW 9780   1.532   9.485   6.220
 2628SOL    HW1 9781   1.533   9.528   6.135
 2628SOL    HW2 9782   1.547   9.556   6.283
 2629SOL     OW 9783   3.715   0.062  13.068
 2629SOL    HW1 9784   3.810   0.053  13.073
 2629SOL    HW2 9785   3.694   0.133  13.128
 2630SOL     OW 9786   3.431  14.072  14.152
 2630SOL    HW1 9787   3.519  14.052  14.186
 2630SOL    HW2 9788   3.445  14.144  14.090
 2631SOL     OW 9789  11.088   1.837  10.512
 2631SOL    HW1 9790  11.138   1.802  10.439
 2631SOL    HW2 9791  11.032   1.764  10.540
 2632SOL     OW 9792   6.553   4.719  11.564
 2632SOL    HW1 9793   6.544   4.761  11.478
 2632SOL    HW2 9794   6.599   4.783  11.617
 2633SOL     OW 9795   9.451   3.940  13.650
 2633SOL    HW1 9796   9.505   4.018  13.663
 2633SOL    HW2 9797   9.377   3.952  13.710
 2634SOL     OW 9798  13.577  11.920  14.807
 2634SOL    HW1 9799  13.527  12.001  14.815
 2634SOL    HW2 9800  13.584  11.886   0.026
 2635SOL     OW 9801   5.263   3.184   4.034
 2635SOL    HW1 9802   5.311   3.199   4.116
 2635SOL    HW2 9803   5.220   3.268   4.017
 2636SOL     OW 9804  13.229   7.675  13.537
 2636SOL    HW1 9805  13.226   7.580  13.525
 2636SOL    HW2 9806  13.196   7.711  13.455
 2637SOL     OW 9807   7.584   2.818   8.319
 2637SOL    HW1 9808   7.585   2.912   8.306
 2637SOL    HW2 9809   7.617   2.782   8.237
 2638SOL     OW 9810   1.673   5.342   4.334
 2638SOL    HW1 9811   1.670   5.290   4.254
 2638SOL    HW2 9812   1.760   5.382   4.334
 2639SOL     OW 9813   1.101   6.589  13.251
 2639SOL    HW1 9814   1.067   6.524  13.189
 2639SOL    HW2 9815   1.190   6.606  13.221
 2640SOL     OW 9816   7.488   0.119   6.876
 2640SOL    HW1 9817   7.577   0.108   6.908
 2640SOL    HW2 9818   7.489   0.203   6.829
 2641SOL     OW 9819  11.239   3.474   4.936
 2641SOL    HW1 9820  11.196   3.493   4.852
 2641SOL    HW2 9821  11.208   3.543   4.994
 2642SOL     OW 9822   3.436   0.963  13.432
 2642SOL    HW1 9823   3.443   1.014  13.352
 2642SOL    HW2 9824   3.367   1.007  13.482
 2643SOL     OW 9825  13.046  12.156   5.605
 2643SOL    HW1 9826  12.975  12.215   5.583
 2643SOL    HW2 9827  13.082  12.128   5.521
 2644SOL     OW 9828   2.821  12.679   9.062
 2644SOL    HW1 9829   2.866  12.611   9.012
 2644SOL    HW2 9830   2.880  12.696   9.136
 2645SOL     OW 9831   3.201   1.405   8.476
 2645SOL    HW1 9832   3.164   1.340   8.417
 2645SOL    HW2 9833   3.247   1.466   8.418
 2646SOL     OW 9834  10.123  11.316  10.568
 2646SOL    HW1 9835  10.104  11.266  10.647
 2646SOL    HW2 9836  10.050  11.378  10.561
 2647SOL     OW 9837   3.362  10.807   9.377
 2647SOL    HW1 9838   3.390  10.717   9.359
 2647SOL    HW2 9839   3.363  10.850   9.292
 2648SOL     OW 9840   3.962   7.275   8.277
 2648SOL    HW1 9841   3.957   7.321   8.194
 2648SOL    HW2 9842   3.988   7.186   8.254
 2649SOL     OW 9843   5.849  11.387  11.110
 2649SOL    HW1 9844   5.870  11.346  11.026
 2649SOL    HW2 9845   5.885  11.475  11.104
 2650SOL     OW 9846   5.272  13.994   0.995
 2650SOL    HW1 9847   5.357  14.038   1.002
 2650SOL    HW2 9848   5.236  13.998   1.084
 2651SOL     OW 9849   6.421   1.963   7.994
 2651SOL    HW1 9850   6.408   1.903   8.067
 2651SOL    HW2 9851   6.472   2.035   8.030
 2652SOL     OW 9852   7.467  14.479   6.963
 2652SOL    HW1 9853   7.538  14.443   6.910
 2652SOL    HW2 9854   7.496  14.465   7.054
 2653SOL     OW 9855   5.132   7.765   8.238
 2653SOL    HW1 9856   5.193   7.802   8.301
 2653SOL    HW2 9857   5.072   7.711   8.290
 2654SOL     OW 9858  13.258   6.344  13.002
 2654SOL    HW1 9859  13.217   6.419  12.958
 2654SOL    HW2 9860  13.243   6.361  13.095
 2655SOL     OW 9861  12.819   8.345   9.721
 2655SOL    HW1 9862  12.791   8.433   9.696
 2655SOL    HW2 9863  12.875   8.358   9.797
 2656SOL     OW 9864   4.035   9.518   4.844
 2656SOL    HW1 9865   4.065   9.552   4.760
 2656SOL    HW2 9866   4.116   9.503   4.894
 2657SOL     OW 9867  13.255  10.177  10.004
 2657SOL    HW1 9868  13.247  10.164   9.910
 2657SOL    HW2 9869  13.347  10.160  10.023
 2658SOL     OW 9870   9.561   4.924   4.225
 2658SOL    HW1 9871   9.560   4.919   4.130
 2658SOL    HW2 9872   9.485   4.872   4.252
 2659SOL     OW 9873  10.351   4.276   2.191
 2659SOL    HW1 9874  10.351   4.310   2.101
 2659SOL    HW2 9875  10.437   4.300   2.226
 2660SOL     OW 9876   6.934  14.379  14.695
 2660SOL    HW1 9877   6.876  14.313  14.732
 2660SOL    HW2 9878   7.022  14.347  14.713
 2661SOL     OW 9879   9.633   2.725  14.123
 2661SOL    HW1 9880   9.708   2.666  14.108
 2661SOL    HW2 9881   9.671   2.801  14.166
 2662SOL     OW 9882  14.051   1.106   3.502
 2662SOL    HW1 9883  13.996   1.055   3.562
 2662SOL    HW2 9884  14.107   1.158   3.560
 2663SOL     OW 9885  14.710   8.079   4.743
 2663SOL    HW1 9886  14.678   8.169   4.756
 2663SOL    HW2 9887  14.723   8.045   4.831
 2664SOL     OW 9888   0.246  14.451   2.424
 2664SOL    HW1 9889   0.336  14.425   2.405
 2664SOL    HW2 9890   0.254  14.511   2.499
 2665SOL     OW 9891   2.829   1.396   8.366
 2665SOL    HW1 9892   2.853   1.409   8.274
 2665SOL    HW2 9893   2.855   1.478   8.409
 2666SOL     OW 9894  11.069   3.282   6.830
 2666SOL    HW1 9895  11.011   3.356   6.813
 2666SOL    HW2 9896  11.047   3.254   6.919
 2667SOL     OW 9897  14.505   8.503  11.342
 2667SOL    HW1 9898  14.481   8.570  11.406
 2667SOL    HW2 9899  14.549   8.552  11.272
 2668SOL     OW 9900   2.937  14.191   6.960
 2668SOL    HW1 9901   2.965  14.099   6.957
 2668SOL    HW2 9902   2.854  14.191   6.911
 2669SOL     OW 9903  11.674   0.280  11.430
 2669SOL    HW1 9904  11.746   0.323  11.384
 2669SOL    HW2 9905  11.610   0.349  11.446
 2670SOL     OW 9906   3.999   0.909   2.729
 2670SOL    HW1 9907   3.907   0.885   2.739
 2670SOL    HW2 9908   4.016   0.897   2.635
 2671SOL     OW 9909   5.615   1.958   8.856
 2671SOL    HW1 9910   5.630   2.039   8.807
 2671SOL    HW2 9911   5.533   1.973   8.904
 2672SOL     OW 9912   3.010  12.682   8.357
 2672SOL    HW1 9913   2.939  12.729   8.313
 2672SOL    HW2 9914   3.029  12.734   8.435
 2673SOL     OW 9915   0.007   9.161   6.851
 2673SOL    HW1 9916  14.836   9.246   6.863
 2673SOL    HW2 9917   0.018   9.127   6.940
 2674SOL     OW 9918   5.889   9.410   1.065
 2674SOL    HW1 9919   5.893   9.453   0.980
 2674SOL    HW2 9920   5.878   9.317   1.045
 2675SOL     OW 9921   3.117   0.726   0.884
 2675SOL    HW1 9922   3.105   0.649   0.828
 2675SOL    HW2 9923   3.092   0.800   0.828
 2676SOL     OW 9924  14.167  12.272   9.749
 2676SOL    HW1 9925  14.233  12.341   9.755
 2676SOL    HW2 9926  14.084  12.318   9.759
 2677SOL     OW 9927  10.774   9.296   8.282
 2677SOL    HW1 9928  10.745   9.210   8.254
 2677SOL    HW2 9929  10.695   9.350   8.281
 2678SOL     OW 9930   3.032   2.622   2.015
 2678SOL    HW1 9931   2.937   2.624   1.999
 2678SOL    HW2 9932   3.066   2.695   1.964
 2679SOL     OW 9933  11.011   0.170   2.975
 2679SOL    HW1 9934  11.084   0.114   3.002
 2679SOL    HW2 9935  11.053   0.247   2.938
 2680SOL     OW 9936   3.818   6.611  13.043
 2680SOL    HW1 9937   3.883   6.541  13.054
 2680SOL    HW2 9938   3.846   6.658  12.964
 2681SOL     OW 9939   8.861   1.691   4.105
 2681SOL    HW1 9940   8.938   1.637   4.122
 2681SOL    HW2 9941   8.847   1.739   4.186
 2682SOL     OW 9942   1.151  11.761   4.659
 2682SOL    HW1 9943   1.111  11.720   4.737
 2682SOL    HW2 9944   1.236  11.792   4.689
 2683SOL     OW 9945   3.269  10.766   7.715
 2683SOL    HW1 9946   3.190  10.714   7.699
 2683SOL    HW2 9947   3.320  10.759   7.634
 2684SOL     OW 9948  12.253   3.034   7.210
 2684SOL    HW1 9949  12.273   2.961   7.152
 2684SOL    HW2 9950  12.159   3.050   7.197
 2685SOL     OW 9951   3.357   8.322   1.930
 2685SOL    HW1 9952   3.411   8.295   1.856
 2685SOL    HW2 9953   3.392   8.272   2.004
 2686SOL     OW 9954  11.579  11.187   4.814
 2686SOL    HW1 9955  11.654  11.215   4.761
 2686SOL    HW2 9956  11.617  11.138   4.886
 2687SOL     OW 9957  10.076  13.030   0.266
 2687SOL    HW1 9958  10.171  13.024   0.276
 2687SOL    HW2 9959  10.044  12.944   0.294
 2688SOL     OW 9960   2.949   3.967   2.812
 2688SOL    HW1 9961   2.923   3.906   2.881
 2688SOL    HW2 9962   3.015   3.920   2.762
 2689SOL     OW 9963   8.075   1.367   5.522
 2689SOL    HW1 9964   7.990   1.402   5.550
 2689SOL    HW2 9965   8.123   1.351   5.604
 2690SOL     OW 9966   3.292   5.688  11.425
 2690SOL    HW1 9967   3.209   5.716  11.386
 2690SOL    HW2 9968   3.359   5.736  11.376
 2691SOL     OW 9969   3.873  12.529  14.072
 2691SOL    HW1 9970   3.918  12.497  13.994
 2691SOL    HW2 9971   3.862  12.452  14.127
 2692SOL     OW 9972   9.783   1.970  11.843
 2692SOL    HW1 9973   9.733   1.979  11.925
 2692SOL    HW2 9974   9.782   2.058  11.806
 2693SOL     OW 9975   5.381  13.988  11.771
 2693SOL    HW1 9976   5.462  14.021  11.811
 2693SOL    HW2 9977   5.319  14.060  11.779
 2694SOL     OW 9978  13.194   2.338   1.186
 2694SOL    HW1 9979  13.156   2.329   1.098
 2694SOL    HW2 9980  13.289   2.335   1.172
 2695SOL     OW 9981   9.798   1.633   4.847
 2695SOL    HW1 9982   9.806   1.606   4.756
 2695SOL    HW2 9983   9.750   1.716   4.843
 2696SOL     OW 9984  13.632   6.953   2.293
 2696SOL    HW1 9985  13.583   6.943   2.211
 2696SOL    HW2 9986  13.677   7.037   2.284
 2697SOL     OW 9987   6.105   0.071  11.057
 2697SOL    HW1 9988   6.012   0.091  11.070
 2697SOL    HW2 9989   6.122   0.094  10.966
 2698SOL     OW 9990   1.986   2.904   6.776
 2698SOL    HW1 9991   1.999   2.974   6.712
 2698SOL    HW2 9992   2.028   2.828   6.737
 2699SOL     OW 9993   1.981   9.478   7.359
 2699SOL    HW1 9994   1.956   9.389   7.385
 2699SOL    HW2 9995   2.048   9.466   7.291
 2700SOL     OW 9996   3.819   1.065  11.227
 2700SOL    HW1 9997   3.887   1.056  11.160
 2700SOL    HW2 9998   3.771   0.982  11.222
 2701SOL     OW 9999   0.270  13.086   2.140
 2701SOL    HW110000   0.242  13.154   2.079
 2701SOL    HW210001   0.231  13.112   2.224
 2702SOL     OW10002   3.998   4.031   6.148
 2702SOL    HW110003   4.019   3.983   6.067
 2702SOL    HW210004   3.982   3.962   6.213
 2703SOL     OW10005  10.045  13.145  12.046
 2703SOL    HW110006  10.021  13.183  11.961
 2703SOL    HW210007  10.074  13.219  12.098
 2704SOL     OW10008  13.149   3.174   2.857
 2704SOL    HW110009  13.168   3.257   2.902
 2704SOL    HW210010  13.212   3.171   2.785
 2705SOL     OW10011   4.994   0.288  14.744
 2705SOL    HW110012   4.971   0.197  14.763
 2705SOL    HW210013   4.958   0.304  14.657
 2706SOL     OW10014   8.355  14.387   4.268
 2706SOL    HW110015   8.345  14.295   4.292
 2706SOL    HW210016   8.392  14.385   4.180
 2707SOL     OW10017   1.265   2.958   3.378
 2707SOL    HW110018   1.250   2.961   3.283
 2707SOL    HW210019   1.186   2.917   3.414
 2708SOL     OW10020   2.900  10.897   7.421
 2708SOL    HW110021   2.993  10.913   7.403
 2708SOL    HW210022   2.869  10.978   7.460
 2709SOL     OW10023   0.960  10.322   6.077
 2709SOL    HW110024   0.971  10.300   5.985
 2709SOL    HW210025   1.017  10.397   6.091
 2710SOL     OW10026   1.585  10.803   7.542
 2710SOL    HW110027   1.509  10.764   7.498
 2710SOL    HW210028   1.592  10.891   7.505
 2711SOL     OW10029   3.155   0.061   0.612
 2711SOL    HW110030   3.219   0.130   0.594
 2711SOL    HW210031   3.070   0.103   0.600
 2712SOL     OW10032   4.347  13.987   9.275
 2712SOL    HW110033   4.359  13.923   9.344
 2712SOL    HW210034   4.403  13.957   9.203
 2713SOL     OW10035   5.715  11.795  11.446
 2713SOL    HW110036   5.682  11.785  11.357
 2713SOL    HW210037   5.743  11.887  11.450
 2714SOL     OW10038  12.786   8.782  13.886
 2714SOL    HW110039  12.803   8.829  13.967
 2714SOL    HW210040  12.756   8.695  13.914
 2715SOL     OW10041   0.609   3.763   5.999
 2715SOL    HW110042   0.576   3.830   5.939
 2715SOL    HW210043   0.623   3.809   6.081
 2716SOL     OW10044   3.251   0.755  13.637
 2716SOL    HW110045   3.243   0.850  13.650
 2716SOL    HW210046   3.325   0.729  13.691
 2717SOL     OW10047   4.400  10.984   4.694
 2717SOL    HW110048   4.305  10.993   4.698
 2717SOL    HW210049   4.413  10.890   4.679
 2718SOL     OW10050   2.169   1.401  10.928
 2718SOL    HW110051   2.089   1.390  10.978
 2718SOL    HW210052   2.239   1.402  10.994
 2719SOL     OW10053   1.781  14.086  14.608
 2719SOL    HW110054   1.695  14.093  14.565
 2719SOL    HW210055   1.822  14.171  14.594
 2720SOL     OW10056   1.576  11.090  11.900
 2720SOL    HW110057   1.639  11.157  11.928
 2720SOL    HW210058   1.508  11.092  11.968
 2721SOL     OW10059  12.843   2.699   4.947
 2721SOL    HW110060  12.847   2.606   4.971
 2721SOL    HW210061  12.934   2.727   4.946
 2722SOL     OW10062   6.181  10.151   4.214
 2722SOL    HW110063   6.190  10.174   4.121
 2722SOL    HW210064   6.090  10.124   4.223
 2723SOL     OW10065   3.102  13.298  12.072
 2723SOL    HW110066   3.144  13.337  11.995
 2723SOL    HW210067   3.035  13.361  12.097
 2724SOL     OW10068   4.028   2.076  11.431
 2724SOL    HW110069   3.988   2.089  11.346
 2724SOL    HW210070   4.096   2.010  11.416
 2725SOL     OW10071   5.678   4.641   8.777
 2725SOL    HW110072   5.693   4.654   8.871
 2725SOL    HW210073   5.719   4.717   8.736
 2726SOL     OW10074  13.686   2.354   3.494
 2726SOL    HW110075  13.654   2.284   3.550
 2726SOL    HW210076  13.695   2.314   3.407
 2727SOL     OW10077  14.610  12.577  10.662
 2727SOL    HW110078  14.634  12.669  10.645
 2727SOL    HW210079  14.546  12.557  10.594
 2728SOL     OW10080  12.627  11.320  12.479
 2728SOL    HW110081  12.672  11.304  12.562
 2728SOL    HW210082  12.556  11.255  12.478
 2729SOL     OW10083   3.547   9.521  14.584
 2729SOL    HW110084   3.460   9.511  14.545
 2729SOL    HW210085   3.566   9.436  14.622
 2730SOL     OW10086  13.639   1.763   7.579
 2730SOL    HW110087  13.690   1.740   7.501
 2730SOL    HW210088  13.601   1.680   7.608
 2731SOL     OW10089   8.439   6.256   7.788
 2731SOL    HW110090   8.438   6.189   7.720
 2731SOL    HW210091   8.531   6.277   7.801
 2732SOL     OW10092  13.858   7.130   1.717
 2732SOL    HW110093  13.929   7.115   1.655
 2732SOL    HW210094  13.843   7.044   1.758
 2733SOL     OW10095   1.969   6.454   8.891
 2733SOL    HW110096   1.964   6.483   8.982
 2733SOL    HW210097   2.061   6.429   8.880
 2734SOL     OW10098   0.769   8.760   7.365
 2734SOL    HW110099   0.828   8.811   7.309
 2734SOL    HW210100   0.758   8.677   7.318
 2735SOL     OW10101   8.187   9.972   8.494
 2735SOL    HW110102   8.112   9.989   8.438
 2735SOL    HW210103   8.262  10.002   8.442
 2736SOL     OW10104   7.831  14.133   7.294
 2736SOL    HW110105   7.834  14.227   7.308
 2736SOL    HW210106   7.798  14.123   7.205
 2737SOL     OW10107   6.667  10.449   1.003
 2737SOL    HW110108   6.709  10.498   1.073
 2737SOL    HW210109   6.731  10.450   0.932
 2738SOL     OW10110   6.395  12.265   7.528
 2738SOL    HW110111   6.389  12.278   7.623
 2738SOL    HW210112   6.314  12.302   7.494
 2739SOL     OW10113   1.134  11.052  13.700
 2739SOL    HW110114   1.106  11.046  13.609
 2739SOL    HW210115   1.155  10.962  13.724
 2740SOL     OW10116   6.792  12.228   2.893
 2740SOL    HW110117   6.874  12.192   2.928
 2740SOL    HW210118   6.765  12.293   2.958
 2741SOL     OW10119   2.086  14.362  11.918
 2741SOL    HW110120   2.109  14.314  11.838
 2741SOL    HW210121   2.106  14.301  11.989
 2742SOL     OW10122  11.310   2.660   3.979
 2742SOL    HW110123  11.349   2.577   3.952
 2742SOL    HW210124  11.326   2.719   3.906
 2743SOL     OW10125   6.336   0.167   8.729
 2743SOL    HW110126   6.330   0.095   8.792
 2743SOL    HW210127   6.304   0.244   8.777
 2744SOL     OW10128   5.178   0.741   3.423
 2744SOL    HW110129   5.175   0.671   3.489
 2744SOL    HW210130   5.089   0.743   3.386
 2745SOL     OW10131   7.700  13.474   4.992
 2745SOL    HW110132   7.787  13.438   5.007
 2745SOL    HW210133   7.643  13.397   4.984
 2746SOL     OW10134   6.384   3.262   0.192
 2746SOL    HW110135   6.474   3.228   0.196
 2746SOL    HW210136   6.337   3.213   0.259
 2747SOL     OW10137  14.490  10.872  12.216
 2747SOL    HW110138  14.511  10.934  12.286
 2747SOL    HW210139  14.573  10.829  12.196
 2748SOL     OW10140   3.367   5.159   4.035
 2748SOL    HW110141   3.317   5.088   3.995
 2748SOL    HW210142   3.305   5.232   4.040
 2749SOL     OW10143   7.407  10.800  14.756
 2749SOL    HW110144   7.423  10.729  14.818
 2749SOL    HW210145   7.321  10.780  14.719
 2750SOL     OW10146   4.569   2.647   4.766
 2750SOL    HW110147   4.538   2.737   4.779
 2750SOL    HW210148   4.543   2.601   4.846
 2751SOL     OW10149   2.610  14.354   5.941
 2751SOL    HW110150   2.661  14.291   5.992
 2751SOL    HW210151   2.667  14.431   5.935
 2752SOL     OW10152  11.613  11.643   9.013
 2752SOL    HW110153  11.534  11.637   9.065
 2752SOL    HW210154  11.582  11.650   8.923
 2753SOL     OW10155   2.425   4.861  13.275
 2753SOL    HW110156   2.485   4.801  13.231
 2753SOL    HW210157   2.345   4.858  13.223
 2754SOL     OW10158  10.171  10.363   4.404
 2754SOL    HW110159  10.160  10.353   4.310
 2754SOL    HW210160  10.179  10.273   4.437
 2755SOL     OW10161   8.906   7.641   6.839
 2755SOL    HW110162   8.911   7.554   6.880
 2755SOL    HW210163   8.815   7.648   6.810
 2756SOL     OW10164   0.571  10.585   8.871
 2756SOL    HW110165   0.596  10.498   8.840
 2756SOL    HW210166   0.627  10.645   8.821
 2757SOL     OW10167  13.798  14.644  10.329
 2757SOL    HW110168  13.759  14.632  10.415
 2757SOL    HW210169  13.728  14.621  10.267
 2758SOL     OW10170   0.215   5.797   5.277
 2758SOL    HW110171   0.218   5.703   5.296
 2758SOL    HW210172   0.174   5.802   5.191
 2759SOL     OW10173  10.543   6.379  13.875
 2759SOL    HW110174  10.544   6.295  13.830
 2759SOL    HW210175  10.631   6.388  13.912
 2760SOL     OW10176   2.796   1.662  14.350
 2760SOL    HW110177   2.792   1.576  14.309
 2760SOL    HW210178   2.889   1.683  14.351
 2761SOL     OW10179   1.535   8.907   6.364
 2761SOL    HW110180   1.577   8.950   6.289
 2761SOL    HW210181   1.441   8.922   6.351
 2762SOL     OW10182   6.969  13.097   7.628
 2762SOL    HW110183   6.981  13.010   7.590
 2762SOL    HW210184   6.894  13.134   7.583
 2763SOL     OW10185   4.628   7.255  13.055
 2763SOL    HW110186   4.636   7.261  12.960
 2763SOL    HW210187   4.538   7.227  13.070
 2764SOL     OW10188   2.682  14.508   9.314
 2764SOL    HW110189   2.628  14.545   9.245
 2764SOL    HW210190   2.645  14.543   9.395
 2765SOL     OW10191   1.133  12.973  12.275
 2765SOL    HW110192   1.148  12.983  12.181
 2765SOL    HW210193   1.044  13.005  12.289
 2766SOL     OW10194   7.694   1.191  10.584
 2766SOL    HW110195   7.695   1.283  10.559
 2766SOL    HW210196   7.606   1.161  10.560
 2767SOL     OW10197   3.101   4.612  11.730
 2767SOL    HW110198   3.186   4.625  11.687
 2767SOL    HW210199   3.122   4.561  11.809
 2768SOL     OW10200   9.647   7.061   2.087
 2768SOL    HW110201   9.601   7.041   2.006
 2768SOL    HW210202   9.740   7.057   2.063
 2769SOL     OW10203  13.125   1.964   5.113
 2769SOL    HW110204  13.115   1.882   5.066
 2769SOL    HW210205  13.126   2.031   5.044
 2770SOL     OW10206   0.569   1.592   2.528
 2770SOL    HW110207   0.619   1.623   2.453
 2770SOL    HW210208   0.571   1.497   2.520
 2771SOL     OW10209  12.289  14.237   3.139
 2771SOL    HW110210  12.274  14.202   3.226
 2771SOL    HW210211  12.218  14.300   3.125
 2772SOL     OW10212  14.775  13.966   0.551
 2772SOL    HW110213  14.854  13.942   0.600
 2772SOL    HW210214  14.809  14.010   0.473
 2773SOL     OW10215   3.365   8.622   1.742
 2773SOL    HW110216   3.391   8.713   1.752
 2773SOL    HW210217   3.446   8.576   1.722
 2774SOL     OW10218   5.736   0.411   4.469
 2774SOL    HW110219   5.826   0.379   4.464
 2774SOL    HW210220   5.684   0.333   4.484
 2775SOL     OW10221  10.547  10.442   1.481
 2775SOL    HW110222  10.631  10.410   1.515
 2775SOL    HW210223  10.497  10.466   1.559
 2776SOL     OW10224  14.813   2.593  11.987
 2776SOL    HW110225   0.010   2.604  11.919
 2776SOL    HW210226  14.847   2.523  12.043
 2777SOL     OW10227  10.830   6.065   6.164
 2777SOL    HW110228  10.876   6.084   6.246
 2777SOL    HW210229  10.744   6.034   6.192
 2778SOL     OW10230   0.587   6.313  12.344
 2778SOL    HW110231   0.594   6.351  12.432
 2778SOL    HW210232   0.504   6.349  12.310
 2779SOL     OW10233   3.554   6.545   8.297
 2779SOL    HW110234   3.545   6.603   8.373
 2779SOL    HW210235   3.474   6.559   8.247
 2780SOL     OW10236   0.279   0.928   9.870
 2780SOL    HW110237   0.225   0.852   9.890
 2780SOL    HW210238   0.237   0.968   9.793
 2781SOL     OW10239  11.555  10.218  10.085
 2781SOL    HW110240  11.537  10.290  10.025
 2781SOL    HW210241  11.650  10.211  10.087
 2782SOL     OW10242  10.420   9.069   4.467
 2782SOL    HW110243  10.418   8.983   4.509
 2782SOL    HW210244  10.511   9.098   4.476
 2783SOL     OW10245   2.356   9.541   3.447
 2783SOL    HW110246   2.333   9.601   3.376
 2783SOL    HW210247   2.335   9.454   3.412
 2784SOL     OW10248  12.534   4.439   3.362
 2784SOL    HW110249  12.479   4.384   3.305
 2784SOL    HW210250  12.555   4.382   3.436
 2785SOL     OW10251  10.798  13.433  10.926
 2785SOL    HW110252  10.835  13.517  10.954
 2785SOL    HW210253  10.723  13.457  10.872
 2786SOL     OW10254  12.263   3.976  11.708
 2786SOL    HW110255  12.184   3.998  11.758
 2786SOL    HW210256  12.234   3.977  11.617
 2787SOL     OW10257   0.542  14.128   5.467
 2787SOL    HW110258   0.480  14.087   5.527
 2787SOL    HW210259   0.628  14.093   5.494
 2788SOL     OW10260   4.036   6.785   6.843
 2788SOL    HW110261   3.981   6.863   6.851
 2788SOL    HW210262   4.120   6.818   6.813
 2789SOL     OW10263  13.519   3.300   6.924
 2789SOL    HW110264  13.473   3.342   6.997
 2789SOL    HW210265  13.573   3.232   6.965
 2790SOL     OW10266  11.200   0.169   9.214
 2790SOL    HW110267  11.256   0.192   9.289
 2790SOL    HW210268  11.196   0.249   9.162
 2791SOL     OW10269   9.344   0.447  11.059
 2791SOL    HW110270   9.354   0.493  10.976
 2791SOL    HW210271   9.250   0.447  11.075
 2792SOL     OW10272   6.787  14.379  10.454
 2792SOL    HW110273   6.735  14.435  10.396
 2792SOL    HW210274   6.779  14.420  10.540
 2793SOL     OW10275   5.803  11.147  12.067
 2793SOL    HW110276   5.757  11.231  12.067
 2793SOL    HW210277   5.745  11.087  12.020
 2794SOL     OW10278   0.315   8.877   4.453
 2794SOL    HW110279   0.342   8.787   4.472
 2794SOL    HW210280   0.361   8.930   4.519
 2795SOL     OW10281   9.113  13.549   9.306
 2795SOL    HW110282   9.109  13.619   9.241
 2795SOL    HW210283   9.025  13.511   9.306
 2796SOL     OW10284  12.521  12.251   6.728
 2796SOL    HW110285  12.487  12.175   6.776
 2796SOL    HW210286  12.591  12.215   6.673
 2797SOL     OW10287   3.875   8.122   9.000
 2797SOL    HW110288   3.968   8.129   8.979
 2797SOL    HW210289   3.873   8.124   9.096
 2798SOL     OW10290   7.611   3.635   0.946
 2798SOL    HW110291   7.613   3.541   0.931
 2798SOL    HW210292   7.672   3.671   0.882
 2799SOL     OW10293   9.256  14.635   0.992
 2799SOL    HW110294   9.179  14.644   0.936
 2799SOL    HW210295   9.233  14.681   1.072
 2800SOL     OW10296   4.230  11.846  13.979
 2800SOL    HW110297   4.270  11.766  13.946
 2800SOL    HW210298   4.275  11.917  13.932
 2801SOL     OW10299  14.293   5.231   3.726
 2801SOL    HW110300  14.363   5.217   3.789
 2801SOL    HW210301  14.291   5.326   3.713
 2802SOL     OW10302   4.555   7.977   7.665
 2802SOL    HW110303   4.602   7.900   7.632
 2802SOL    HW210304   4.492   7.999   7.597
 2803SOL     OW10305  12.632   6.503   5.140
 2803SOL    HW110306  12.563   6.526   5.077
 2803SOL    HW210307  12.592   6.436   5.196
 2804SOL     OW10308  11.709   9.541  11.406
 2804SOL    HW110309  11.762   9.579  11.476
 2804SOL    HW210310  11.760   9.555  11.327
 2805SOL     OW10311  10.610  14.493  11.913
 2805SOL    HW110312  10.671  14.446  11.857
 2805SOL    HW210313  10.538  14.432  11.927
 2806SOL     OW10314   3.442   1.493   3.735
 2806SOL    HW110315   3.370   1.441   3.700
 2806SOL    HW210316   3.446   1.470   3.828
 2807SOL     OW10317  10.500   7.116  13.775
 2807SOL    HW110318  10.540   7.090  13.858
 2807SOL    HW210319  10.443   7.043  13.752
 2808SOL     OW10320  12.692   5.810   4.484
 2808SOL    HW110321  12.659   5.733   4.530
 2808SOL    HW210322  12.696   5.783   4.392
 2809SOL     OW10323   5.806   9.208  14.748
 2809SOL    HW110324   5.758   9.239  14.825
 2809SOL    HW210325   5.759   9.130  14.721
 2810SOL     OW10326  11.619   1.250   5.047
 2810SOL    HW110327  11.667   1.278   5.125
 2810SOL    HW210328  11.527   1.259   5.070
 2811SOL     OW10329   3.676  13.686  11.393
 2811SOL    HW110330   3.758  13.671  11.346
 2811SOL    HW210331   3.689  13.645  11.479
 2812SOL     OW10332  10.753   8.310   9.118
 2812SOL    HW110333  10.766   8.401   9.143
 2812SOL    HW210334  10.687   8.313   9.048
 2813SOL     OW10335   6.954  10.910   8.289
 2813SOL    HW110336   6.974  10.900   8.196
 2813SOL    HW210337   6.863  10.882   8.298
 2814SOL     OW10338   4.953   5.753   9.926
 2814SOL    HW110339   4.943   5.835   9.975
 2814SOL    HW210340   4.892   5.762   9.852
 2815SOL     OW10341   9.516   8.774   8.321
 2815SOL    HW110342   9.531   8.733   8.236
 2815SOL    HW210343   9.594   8.827   8.336
 2816SOL     OW10344   4.943   4.264   9.244
 2816SOL    HW110345   4.882   4.337   9.236
 2816SOL    HW210346   4.888   4.189   9.268
 2817SOL     OW10347  12.115  14.162  10.231
 2817SOL    HW110348  12.032  14.204  10.255
 2817SOL    HW210349  12.130  14.188  10.140
 2818SOL     OW10350   3.239   4.654   4.248
 2818SOL    HW110351   3.312   4.711   4.225
 2818SOL    HW210352   3.162   4.712   4.249
 2819SOL     OW10353   0.142   0.570  12.489
 2819SOL    HW110354   0.210   0.629  12.523
 2819SOL    HW210355   0.116   0.609  12.405
 2820SOL     OW10356   8.175   0.599   3.850
 2820SOL    HW110357   8.249   0.607   3.910
 2820SOL    HW210358   8.167   0.686   3.811
 2821SOL     OW10359   9.807  13.862  14.346
 2821SOL    HW110360   9.722  13.825  14.369
 2821SOL    HW210361   9.853  13.790  14.302
 2822SOL     OW10362   0.173   4.023  13.988
 2822SOL    HW110363   0.169   3.951  13.926
 2822SOL    HW210364   0.154   4.101  13.936
 2823SOL     OW10365   3.003   7.398   3.150
 2823SOL    HW110366   2.972   7.489   3.149
 2823SOL    HW210367   2.996   7.372   3.242
 2824SOL     OW10368  12.361   3.735  14.622
 2824SOL    HW110369  12.412   3.784  14.686
 2824SOL    HW210370  12.329   3.802  14.561
 2825SOL     OW10371   3.831  12.946  14.253
 2825SOL    HW110372   3.920  12.930  14.222
 2825SOL    HW210373   3.830  12.911  14.342
 2826SOL     OW10374  13.750  10.945  13.217
 2826SOL    HW110375  13.733  11.029  13.173
 2826SOL    HW210376  13.764  10.969  13.309
 2827SOL     OW10377   9.974  10.635   4.767
 2827SOL    HW110378  10.046  10.670   4.716
 2827SOL    HW210379   9.928  10.712   4.800
 2828SOL     OW10380   6.210   0.102   4.566
 2828SOL    HW110381   6.269   0.177   4.577
 2828SOL    HW210382   6.268   0.028   4.549
 2829SOL     OW10383  14.149   5.308   0.475
 2829SOL    HW110384  14.106   5.393   0.467
 2829SOL    HW210385  14.123   5.276   0.561
 2830SOL     OW10386   2.943   6.348   5.451
 2830SOL    HW110387   3.035   6.367   5.433
 2830SOL    HW210388   2.942   6.257   5.479
 2831SOL     OW10389  12.998   6.552   6.847
 2831SOL    HW110390  12.948   6.563   6.927
 2831SOL    HW210391  13.018   6.458   6.844
 2832SOL     OW10392   4.316   3.732   8.703
 2832SOL    HW110393   4.308   3.753   8.610
 2832SOL    HW210394   4.408   3.712   8.716
 2833SOL     OW10395  14.617   1.534   3.181
 2833SOL    HW110396  14.630   1.625   3.208
 2833SOL    HW210397  14.705   1.501   3.166
 2834SOL     OW10398  11.506  11.661  11.124
 2834SOL    HW110399  11.432  11.601  11.127
 2834SOL    HW210400  11.486  11.721  11.052
 2835SOL     OW10401   3.796   5.485   8.447
 2835SOL    HW110402   3.848   5.458   8.371
 2835SOL    HW210403   3.741   5.556   8.414
 2836SOL     OW10404   9.718  13.668   9.509
 2836SOL    HW110405   9.651  13.651   9.574
 2836SOL    HW210406   9.794  13.696   9.560
 2837SOL     OW10407   5.799  13.537  13.043
 2837SOL    HW110408   5.719  13.533  12.991
 2837SOL    HW210409   5.862  13.583  12.988
 2838SOL     OW10410  10.038  14.846   6.387
 2838SOL    HW110411  10.096  14.799   6.446
 2838SOL    HW210412   9.983   0.029   6.445
 2839SOL     OW10413   1.381   2.641  12.922
 2839SOL    HW110414   1.328   2.587  12.981
 2839SOL    HW210415   1.439   2.690  12.979
 2840SOL     OW10416   6.139   5.227   5.366
 2840SOL    HW110417   6.157   5.287   5.438
 2840SOL    HW210418   6.224   5.209   5.327
 2841SOL     OW10419   4.608   6.182  12.758
 2841SOL    HW110420   4.681   6.136  12.717
 2841SOL    HW210421   4.568   6.231  12.686
 2842SOL     OW10422   6.752   6.718   7.804
 2842SOL    HW110423   6.716   6.672   7.881
 2842SOL    HW210424   6.835   6.673   7.786
 2843SOL     OW10425  13.821   1.127   4.206
 2843SOL    HW110426  13.750   1.175   4.249
 2843SOL    HW210427  13.878   1.099   4.277
 2844SOL     OW10428  11.795   2.429   4.543
 2844SOL    HW110429  11.858   2.411   4.613
 2844SOL    HW210430  11.841   2.403   4.463
 2845SOL     OW10431  12.554   6.812  11.396
 2845SOL    HW110432  12.595   6.893  11.428
 2845SOL    HW210433  12.536   6.762  11.476
 2846SOL     OW10434   8.247   1.187   8.033
 2846SOL    HW110435   8.261   1.211   8.125
 2846SOL    HW210436   8.333   1.199   7.992
 2847SOL     OW10437   7.420   8.181   6.198
 2847SOL    HW110438   7.350   8.193   6.134
 2847SOL    HW210439   7.397   8.101   6.245
 2848SOL     OW10440  12.474   3.172   5.000
 2848SOL    HW110441  12.395   3.133   5.038
 2848SOL    HW210442  12.496   3.116   4.926
 2849SOL     OW10443   0.405  13.724   2.942
 2849SOL    HW110444   0.389  13.756   3.030
 2849SOL    HW210445   0.319  13.721   2.901
 2850SOL     OW10446   7.356   3.222   0.057
 2850SOL    HW110447   7.331   3.172   0.134
 2850SOL    HW210448   7.435   3.270   0.082
 2851SOL     OW10449  14.580   1.901  13.929
 2851SOL    HW110450  14.569   1.929  13.838
 2851SOL    HW210451  14.597   1.807  13.924
 2852SOL     OW10452  13.939   5.345   5.763
 2852SOL    HW110453  14.008   5.323   5.702
 2852SOL    HW210454  13.983   5.355   5.847
 2853SOL     OW10455  10.115  14.527   6.095
 2853SOL    HW110456  10.150  14.454   6.044
 2853SOL    HW210457  10.026  14.500   6.118
 2854SOL     OW10458  14.572   2.812   9.392
 2854SOL    HW110459  14.575   2.849   9.304
 2854SOL    HW210460  14.664   2.809   9.420
 2855SOL     OW10461   0.424  13.195   5.041
 2855SOL    HW110462   0.451  13.287   5.034
 2855SOL    HW210463   0.453  13.155   4.959
 2856SOL     OW10464  13.125   5.536  10.280
 2856SOL    HW110465  13.152   5.452  10.317
 2856SOL    HW210466  13.180   5.601  10.325
 2857SOL     OW10467   7.394   8.277  12.400
 2857SOL    HW110468   7.310   8.244  12.432
 2857SOL    HW210469   7.438   8.200  12.365
 2858SOL     OW10470   0.898  13.811  11.763
 2858SOL    HW110471   0.854  13.857  11.691
 2858SOL    HW210472   0.978  13.861  11.777
 2859SOL     OW10473   4.111   5.974   2.235
 2859SOL    HW110474   4.077   6.016   2.314
 2859SOL    HW210475   4.190   5.928   2.264
 2860SOL     OW10476   2.489   0.122  14.497
 2860SOL    HW110477   2.443   0.169  14.567
 2860SOL    HW210478   2.540   0.190  14.453
 2861SOL     OW10479   2.871  13.849   9.348
 2861SOL    HW110480   2.822  13.893   9.279
 2861SOL    HW210481   2.935  13.796   9.300
 2862SOL     OW10482  11.909   8.088  10.177
 2862SOL    HW110483  11.948   8.163  10.222
 2862SOL    HW210484  11.875   8.033  10.248
 2863SOL     OW10485   7.701  14.226   0.288
 2863SOL    HW110486   7.696  14.154   0.225
 2863SOL    HW210487   7.656  14.194   0.365
 2864SOL     OW10488  13.749   4.836  14.070
 2864SOL    HW110489  13.745   4.813  13.977
 2864SOL    HW210490  13.808   4.911  14.073
 2865SOL     OW10491  12.416   4.328   1.923
 2865SOL    HW110492  12.353   4.333   1.995
 2865SOL    HW210493  12.394   4.248   1.877
 2866SOL     OW10494  12.184  14.518   5.818
 2866SOL    HW110495  12.237  14.457   5.767
 2866SOL    HW210496  12.104  14.469   5.838
 2867SOL     OW10497   6.996  12.167   0.085
 2867SOL    HW110498   6.904  12.195   0.083
 2867SOL    HW210499   6.993  12.076   0.053
 2868SOL     OW10500   6.806   3.368   6.544
 2868SOL    HW110501   6.739   3.324   6.493
 2868SOL    HW210502   6.889   3.331   6.512
 2869SOL     OW10503   5.434   4.742  13.481
 2869SOL    HW110504   5.381   4.789  13.416
 2869SOL    HW210505   5.442   4.803  13.554
 2870SOL     OW10506   7.173   5.687   0.403
 2870SOL    HW110507   7.114   5.755   0.433
 2870SOL    HW210508   7.207   5.647   0.483
 2871SOL     OW10509  10.019  12.798   9.844
 2871SOL    HW110510  10.026  12.857   9.769
 2871SOL    HW210511   9.946  12.740   9.822
 2872SOL     OW10512   5.849  10.281   1.699
 2872SOL    HW110513   5.828  10.307   1.788
 2872SOL    HW210514   5.794  10.336   1.644
 2873SOL     OW10515   0.621   5.275   4.740
 2873SOL    HW110516   0.712   5.305   4.751
 2873SOL    HW210517   0.623   5.184   4.767
 2874SOL     OW10518   7.098  13.212   2.041
 2874SOL    HW110519   7.120  13.304   2.054
 2874SOL    HW210520   7.003  13.211   2.030
 2875SOL     OW10521   0.683   0.767  12.913
 2875SOL    HW110522   0.682   0.813  12.829
 2875SOL    HW210523   0.716   0.831  12.975
 2876SOL     OW10524   3.803   8.720  10.934
 2876SOL    HW110525   3.745   8.657  10.975
 2876SOL    HW210526   3.882   8.721  10.988
 2877SOL     OW10527   6.005   4.055  10.259
 2877SOL    HW110528   5.955   4.137  10.258
 2877SOL    HW210529   5.938   3.987  10.269
 2878SOL     OW10530  10.976   5.996   7.365
 2878SOL    HW110531  10.916   5.926   7.339
 2878SOL    HW210532  10.933   6.076   7.337
 2879SOL     OW10533   2.942  10.900  10.684
 2879SOL    HW110534   2.965  10.810  10.708
 2879SOL    HW210535   2.936  10.946  10.768
 2880SOL     OW10536  13.757  12.891   2.123
 2880SOL    HW110537  13.847  12.865   2.142
 2880SOL    HW210538  13.766  12.957   2.054
 2881SOL     OW10539   0.889  14.174  12.114
 2881SOL    HW110540   0.912  14.228  12.190
 2881SOL    HW210541   0.795  14.183  12.105
 2882SOL     OW10542   6.276   5.779  11.310
 2882SOL    HW110543   6.319   5.703  11.270
 2882SOL    HW210544   6.183   5.767  11.290
 2883SOL     OW10545  10.948  13.280   8.524
 2883SOL    HW110546  10.904  13.236   8.596
 2883SOL    HW210547  10.927  13.227   8.447
 2884SOL     OW10548   1.176   7.884   0.956
 2884SOL    HW110549   1.144   7.934   1.031
 2884SOL    HW210550   1.167   7.944   0.881
 2885SOL     OW10551  11.156   7.973   6.319
 2885SOL    HW110552  11.158   7.991   6.225
 2885SOL    HW210553  11.084   7.911   6.330
 2886SOL     OW10554  12.441   2.602  10.941
 2886SOL    HW110555  12.499   2.531  10.912
 2886SOL    HW210556  12.445   2.599  11.037
 2887SOL     OW10557   3.401   2.374   9.187
 2887SOL    HW110558   3.475   2.346   9.134
 2887SOL    HW210559   3.439   2.406   9.268
 2888SOL     OW10560   1.802   2.551  13.122
 2888SOL    HW110561   1.730   2.599  13.082
 2888SOL    HW210562   1.871   2.615  13.134
 2889SOL     OW10563   2.095   9.467   6.610
 2889SOL    HW110564   2.091   9.535   6.676
 2889SOL    HW210565   2.188   9.452   6.596
 2890SOL     OW10566  10.608  10.447   5.814
 2890SOL    HW110567  10.572  10.390   5.746
 2890SOL    HW210568  10.549  10.523   5.815
 2891SOL     OW10569   8.568   3.709  12.014
 2891SOL    HW110570   8.642   3.680  12.066
 2891SOL    HW210571   8.539   3.631  11.967
 2892SOL     OW10572  13.233   2.261  13.541
 2892SOL    HW110573  13.148   2.283  13.580
 2892SOL    HW210574  13.222   2.280  13.448
 2893SOL     OW10575   6.186  13.414   9.259
 2893SOL    HW110576   6.141  13.480   9.312
 2893SOL    HW210577   6.143  13.420   9.174
 2894SOL     OW10578  12.826  13.535   3.662
 2894SOL    HW110579  12.901  13.594   3.658
 2894SOL    HW210580  12.790  13.537   3.573
 2895SOL     OW10581  12.019   3.614   8.412
 2895SOL    HW110582  11.945   3.594   8.355
 2895SOL    HW210583  12.067   3.683   8.367
 2896SOL     OW10584   6.081  11.487   0.630
 2896SOL    HW110585   6.028  11.408   0.624
 2896SOL    HW210586   6.091  11.516   0.539
 2897SOL     OW10587  10.700  10.669  12.435
 2897SOL    HW110588  10.692  10.763  12.450
 2897SOL    HW210589  10.745  10.662  12.351
 2898SOL     OW10590  12.150  12.231   6.607
 2898SOL    HW110591  12.061  12.221   6.573
 2898SOL    HW210592  12.192  12.292   6.547
 2899SOL     OW10593   0.721  12.953  12.710
 2899SOL    HW110594   0.651  12.963  12.775
 2899SOL    HW210595   0.705  13.023  12.647
 2900SOL     OW10596  10.922   0.720   7.557
 2900SOL    HW110597  10.842   0.766   7.583
 2900SOL    HW210598  10.986   0.790   7.543
 2901SOL     OW10599  11.083   3.731  10.668
 2901SOL    HW110600  11.100   3.821  10.640
 2901SOL    HW210601  11.014   3.700  10.610
 2902SOL     OW10602   9.948   1.433   9.343
 2902SOL    HW110603   9.905   1.517   9.329
 2902SOL    HW210604  10.041   1.452   9.343
 2903SOL     OW10605   9.043   8.884   4.695
 2903SOL    HW110606   8.972   8.821   4.695
 2903SOL    HW210607   9.107   8.850   4.758
 2904SOL     OW10608   9.462   0.755  10.235
 2904SOL    HW110609   9.384   0.783  10.282
 2904SOL    HW210610   9.469   0.816  10.161
 2905SOL     OW10611   6.910   8.873   5.681
 2905SOL    HW110612   6.892   8.801   5.742
 2905SOL    HW210613   6.957   8.938   5.734
 2906SOL     OW10614   2.412   3.910   5.532
 2906SOL    HW110615   2.465   3.841   5.572
 2906SOL    HW210616   2.327   3.903   5.574
 2907SOL     OW10617   2.591   7.587   1.857
 2907SOL    HW110618   2.497   7.582   1.839
 2907SOL    HW210619   2.620   7.496   1.862
 2908SOL     OW10620   9.363  11.591   6.599
 2908SOL    HW110621   9.381  11.685   6.610
 2908SOL    HW210622   9.449  11.551   6.591
 2909SOL     OW10623   5.517   0.081   3.425
 2909SOL    HW110624   5.475   0.101   3.509
 2909SOL    HW210625   5.582   0.151   3.414
 2910SOL     OW10626  11.112   0.749  13.315
 2910SOL    HW110627  11.053   0.674  13.322
 2910SOL    HW210628  11.133   0.754  13.222
 2911SOL     OW10629  12.380   0.027   9.549
 2911SOL    HW110630  12.292  14.868   9.527
 2911SOL    HW210631  12.425   0.035   9.464
 2912SOL     OW10632  12.774   4.305   8.877
 2912SOL    HW110633  12.684   4.272   8.865
 2912SOL    HW210634  12.772   4.394   8.842
 2913SOL     OW10635  10.397   8.748   5.706
 2913SOL    HW110636  10.479   8.743   5.755
 2913SOL    HW210637  10.420   8.718   5.618
 2914SOL     OW10638  11.459   5.957   2.981
 2914SOL    HW110639  11.516   6.031   2.961
 2914SOL    HW210640  11.431   5.972   3.071
 2915SOL     OW10641   2.573  13.260   4.581
 2915SOL    HW110642   2.608  13.172   4.595
 2915SOL    HW210643   2.649  13.312   4.555
 2916SOL     OW10644   8.344   5.782   7.861
 2916SOL    HW110645   8.326   5.876   7.868
 2916SOL    HW210646   8.411   5.766   7.928
 2917SOL     OW10647  13.174   2.789   1.555
 2917SOL    HW110648  13.158   2.716   1.496
 2917SOL    HW210649  13.128   2.765   1.636
 2918SOL     OW10650   7.756   9.496   9.465
 2918SOL    HW110651   7.700   9.420   9.484
 2918SOL    HW210652   7.698   9.557   9.419
 2919SOL     OW10653   5.807   9.510   9.474
 2919SOL    HW110654   5.734   9.569   9.495
 2919SOL    HW210655   5.883   9.551   9.514
 2920SOL     OW10656   3.304   6.520   4.844
 2920SOL    HW110657   3.348   6.595   4.882
 2920SOL    HW210658   3.354   6.500   4.765
 2921SOL     OW10659  14.396  10.208   6.287
 2921SOL    HW110660  14.317  10.252   6.318
 2921SOL    HW210661  14.467  10.246   6.338
 2922SOL     OW10662   0.321   1.894  13.929
 2922SOL    HW110663   0.381   1.838  13.979
 2922SOL    HW210664   0.257   1.834  13.891
 2923SOL     OW10665  11.544   2.895   0.498
 2923SOL    HW110666  11.451   2.900   0.521
 2923SOL    HW210667  11.573   2.986   0.498
 2924SOL     OW10668   1.184   5.663   2.813
 2924SOL    HW110669   1.268   5.706   2.798
 2924SOL    HW210670   1.129   5.692   2.740
 2925SOL     OW10671   7.656   0.322   6.517
 2925SOL    HW110672   7.658   0.351   6.426
 2925SOL    HW210673   7.623   0.232   6.513
 2926SOL     OW10674   0.370   1.898   0.781
 2926SOL    HW110675   0.319   1.820   0.804
 2926SOL    HW210676   0.460   1.867   0.777
 2927SOL     OW10677  10.418   3.285   9.066
 2927SOL    HW110678  10.364   3.236   9.128
 2927SOL    HW210679  10.392   3.376   9.079
 2928SOL     OW10680   6.694   7.411   7.069
 2928SOL    HW110681   6.645   7.435   6.990
 2928SOL    HW210682   6.705   7.317   7.062
 2929SOL     OW10683   3.401  14.729  14.512
 2929SOL    HW110684   3.315  14.689  14.518
 2929SOL    HW210685   3.441  14.689  14.435
 2930SOL     OW10686   1.104  10.734   7.667
 2930SOL    HW110687   1.101  10.695   7.754
 2930SOL    HW210688   1.044  10.681   7.614
 2931SOL     OW10689   4.321  13.960  11.884
 2931SOL    HW110690   4.412  13.987  11.896
 2931SOL    HW210691   4.286  14.024  11.822
 2932SOL     OW10692  13.024   6.165   9.806
 2932SOL    HW110693  12.978   6.228   9.861
 2932SOL    HW210694  12.974   6.084   9.816
 2933SOL     OW10695  14.327   2.195   2.800
 2933SOL    HW110696  14.337   2.238   2.885
 2933SOL    HW210697  14.320   2.102   2.820
 2934SOL     OW10698   0.966   4.070   2.758
 2934SOL    HW110699   0.960   4.111   2.845
 2934SOL    HW210700   0.902   3.999   2.761
 2935SOL     OW10701  13.597   7.708  13.326
 2935SOL    HW110702  13.588   7.730  13.419
 2935SOL    HW210703  13.673   7.650  13.323
 2936SOL     OW10704   6.190  13.655  11.042
 2936SOL    HW110705   6.250  13.581  11.035
 2936SOL    HW210706   6.158  13.651  11.132
 2937SOL     OW10707   7.748   7.840   3.587
 2937SOL    HW110708   7.699   7.799   3.659
 2937SOL    HW210709   7.687   7.837   3.513
 2938SOL     OW10710  13.568   4.906   5.769
 2938SOL    HW110711  13.584   5.000   5.759
 2938SOL    HW210712  13.622   4.865   5.701
 2939SOL     OW10713   9.311   0.589   9.004
 2939SOL    HW110714   9.354   0.507   9.027
 2939SOL    HW210715   9.311   0.640   9.085
 2940SOL     OW10716  12.812  14.595   5.204
 2940SOL    HW110717  12.720  14.602   5.232
 2940SOL    HW210718  12.811  14.622   5.113
 2941SOL     OW10719  12.247  12.841   3.290
 2941SOL    HW110720  12.240  12.750   3.262
 2941SOL    HW210721  12.321  12.842   3.351
 2942SOL     OW10722   3.616   0.269  11.642
 2942SOL    HW110723   3.677   0.247  11.572
 2942SOL    HW210724   3.530   0.267  11.600
 2943SOL     OW10725   3.494  11.469   7.119
 2943SOL    HW110726   3.428  11.411   7.082
 2943SOL    HW210727   3.565  11.411   7.147
 2944SOL     OW10728  10.388   2.872   2.879
 2944SOL    HW110729  10.435   2.803   2.833
 2944SOL    HW210730  10.331   2.826   2.941
 2945SOL     OW10731  13.254   2.392   7.896
 2945SOL    HW110732  13.188   2.327   7.871
 2945SOL    HW210733  13.276   2.437   7.814
 2946SOL     OW10734   0.109   6.769   6.999
 2946SOL    HW110735   0.107   6.861   7.027
 2946SOL    HW210736   0.032   6.759   6.943
 2947SOL     OW10737   3.925   1.288  11.047
 2947SOL    HW110738   3.915   1.196  11.023
 2947SOL    HW210739   4.019   1.305  11.039
 2948SOL     OW10740   8.743   0.449   0.915
 2948SOL    HW110741   8.663   0.419   0.957
 2948SOL    HW210742   8.740   0.411   0.827
 2949SOL     OW10743  10.245  11.549   2.541
 2949SOL    HW110744  10.188  11.480   2.507
 2949SOL    HW210745  10.332  11.509   2.541
 2950SOL     OW10746   8.786  13.623  12.128
 2950SOL    HW110747   8.847  13.561  12.087
 2950SOL    HW210748   8.841  13.697  12.153
 2951SOL     OW10749  12.091   4.643   5.874
 2951SOL    HW110750  12.040   4.580   5.823
 2951SOL    HW210751  12.089   4.609   5.963
 2952SOL     OW10752   0.692  10.330   3.682
 2952SOL    HW110753   0.734  10.257   3.637
 2952SOL    HW210754   0.605  10.298   3.705
 2953SOL     OW10755  12.146   0.694   3.136
 2953SOL    HW110756  12.149   0.745   3.217
 2953SOL    HW210757  12.053   0.677   3.120
 2954SOL     OW10758  13.006  11.087  13.446
 2954SOL    HW110759  13.030  11.011  13.393
 2954SOL    HW210760  13.074  11.091  13.514
 2955SOL     OW10761   1.610   6.095   7.867
 2955SOL    HW110762   1.544   6.026   7.861
 2955SOL    HW210763   1.601   6.129   7.956
 2956SOL     OW10764   8.299   4.700   3.754
 2956SOL    HW110765   8.256   4.708   3.669
 2956SOL    HW210766   8.386   4.664   3.733
 2957SOL     OW10767  12.510  14.582  10.261
 2957SOL    HW110768  12.507  14.512  10.326
 2957SOL    HW210769  12.490  14.538  10.178
 2958SOL     OW10770   2.682   7.687  12.404
 2958SOL    HW110771   2.634   7.755  12.357
 2958SOL    HW210772   2.741   7.735  12.462
 2959SOL     OW10773  12.256   5.474  12.830
 2959SOL    HW110774  12.281   5.539  12.765
 2959SOL    HW210775  12.178   5.510  12.872
 2960SOL     OW10776  13.356  12.128   3.636
 2960SOL    HW110777  13.391  12.050   3.679
 2960SOL    HW210778  13.269  12.140   3.676
 2961SOL     OW10779   0.861   0.802   9.173
 2961SOL    HW110780   0.953   0.787   9.195
 2961SOL    HW210781   0.862   0.877   9.114
 2962SOL     OW10782  14.674   2.664  12.202
 2962SOL    HW110783  14.711   2.656  12.114
 2962SOL    HW210784  14.630   2.581  12.217
 2963SOL     OW10785   7.433   9.877  12.365
 2963SOL    HW110786   7.439   9.782  12.375
 2963SOL    HW210787   7.375   9.889  12.290
 2964SOL     OW10788  14.383   7.641   7.323
 2964SOL    HW110789  14.322   7.696   7.371
 2964SOL    HW210790  14.465   7.646   7.372
 2965SOL     OW10791   1.570   2.385   7.569
 2965SOL    HW110792   1.653   2.338   7.567
 2965SOL    HW210793   1.558   2.417   7.479
 2966SOL     OW10794  10.397   0.701   6.317
 2966SOL    HW110795  10.427   0.623   6.364
 2966SOL    HW210796  10.360   0.667   6.236
 2967SOL     OW10797   0.514  10.661   5.073
 2967SOL    HW110798   0.545  10.737   5.025
 2967SOL    HW210799   0.420  10.660   5.060
 2968SOL     OW10800   8.054   8.120   4.154
 2968SOL    HW110801   7.983   8.169   4.195
 2968SOL    HW210802   8.075   8.051   4.217
 2969SOL     OW10803   8.989   0.704   8.879
 2969SOL    HW110804   8.996   0.780   8.821
 2969SOL    HW210805   9.044   0.637   8.838
 2970SOL     OW10806   2.603   8.639   0.149
 2970SOL    HW110807   2.661   8.677   0.083
 2970SOL    HW210808   2.662   8.600   0.213
 2971SOL     OW10809  11.802   5.225   1.543
 2971SOL    HW110810  11.829   5.152   1.488
 2971SOL    HW210811  11.875   5.287   1.538
 2972SOL     OW10812  14.297   4.701   5.941
 2972SOL    HW110813  14.384   4.662   5.943
 2972SOL    HW210814  14.286   4.740   6.027
 2973SOL     OW10815   7.832   0.432  11.092
 2973SOL    HW110816   7.836   0.512  11.143
 2973SOL    HW210817   7.777   0.455  11.016
 2974SOL     OW10818   9.228   4.257   9.871
 2974SOL    HW110819   9.170   4.262   9.796
 2974SOL    HW210820   9.256   4.347   9.887
 2975SOL     OW10821  10.399  12.829   9.640
 2975SOL    HW110822  10.387  12.778   9.720
 2975SOL    HW210823  10.329  12.800   9.582
 2976SOL     OW10824   8.228   1.403   5.140
 2976SOL    HW110825   8.259   1.344   5.209
 2976SOL    HW210826   8.135   1.416   5.159
 2977SOL     OW10827   8.340   0.876  14.410
 2977SOL    HW110828   8.373   0.950  14.359
 2977SOL    HW210829   8.358   0.900  14.501
 2978SOL     OW10830   0.834   7.179   4.072
 2978SOL    HW110831   0.860   7.272   4.074
 2978SOL    HW210832   0.747   7.180   4.033
 2979SOL     OW10833   2.441   8.530  10.849
 2979SOL    HW110834   2.478   8.584  10.779
 2979SOL    HW210835   2.349   8.557  10.853
 2980SOL     OW10836  10.378   5.497  11.824
 2980SOL    HW110837  10.407   5.480  11.914
 2980SOL    HW210838  10.342   5.413  11.795
 2981SOL     OW10839   6.084   8.931   2.981
 2981SOL    HW110840   6.028   8.987   3.035
 2981SOL    HW210841   6.092   8.977   2.898
 2982SOL     OW10842   2.979   3.196  13.926
 2982SOL    HW110843   2.976   3.273  13.869
 2982SOL    HW210844   3.066   3.200  13.967
 2983SOL     OW10845   5.347  13.743   9.980
 2983SOL    HW110846   5.428  13.781  10.013
 2983SOL    HW210847   5.319  13.683  10.049
 2984SOL     OW10848   5.945   0.873  12.850
 2984SOL    HW110849   6.014   0.935  12.829
 2984SOL    HW210850   5.907   0.849  12.766
 2985SOL     OW10851  12.040   1.035   7.265
 2985SOL    HW110852  12.083   1.035   7.179
 2985SOL    HW210853  12.102   0.991   7.323
 2986SOL     OW10854  14.245   9.459   7.943
 2986SOL    HW110855  14.259   9.366   7.960
 2986SOL    HW210856  14.168   9.462   7.887
 2987SOL     OW10857   3.251   8.082   7.886
 2987SOL    HW110858   3.165   8.108   7.919
 2987SOL    HW210859   3.312   8.105   7.956
 2988SOL     OW10860   1.413   2.868  12.347
 2988SOL    HW110861   1.355   2.876  12.272
 2988SOL    HW210862   1.413   2.775  12.368
 2989SOL     OW10863   3.753  10.286   2.793
 2989SOL    HW110864   3.692  10.357   2.774
 2989SOL    HW210865   3.717  10.243   2.870
 2990SOL     OW10866  14.667  14.683   0.709
 2990SOL    HW110867  14.601  14.614   0.703
 2990SOL    HW210868  14.634  14.742   0.776
 2991SOL     OW10869   2.773  10.716   8.640
 2991SOL    HW110870   2.840  10.685   8.700
 2991SOL    HW210871   2.721  10.638   8.620
 2992SOL     OW10872   9.945  12.156   1.744
 2992SOL    HW110873  10.000  12.084   1.776
 2992SOL    HW210874   9.910  12.124   1.661
 2993SOL     OW10875   7.697   9.500   5.897
 2993SOL    HW110876   7.629   9.564   5.874
 2993SOL    HW210877   7.672   9.421   5.849
 2994SOL     OW10878  13.484   4.477  12.870
 2994SOL    HW110879  13.523   4.446  12.788
 2994SOL    HW210880  13.390   4.472  12.855
 2995SOL     OW10881   3.785  11.391  13.206
 2995SOL    HW110882   3.762  11.484  13.199
 2995SOL    HW210883   3.701  11.347  13.218
 2996SOL     OW10884   9.524  11.846  14.766
 2996SOL    HW110885   9.482  11.812  14.687
 2996SOL    HW210886   9.452  11.863  14.827
 2997SOL     OW10887   0.413   1.029   8.278
 2997SOL    HW110888   0.459   1.028   8.362
 2997SOL    HW210889   0.329   0.988   8.297
 2998SOL     OW10890   6.563  13.555   5.752
 2998SOL    HW110891   6.572  13.504   5.672
 2998SOL    HW210892   6.541  13.643   5.722
 2999SOL     OW10893   5.136   8.633   9.978
 2999SOL    HW110894   5.104   8.714  10.018
 2999SOL    HW210895   5.112   8.641   9.886
 3000SOL     OW10896  12.810   0.139   5.012
 3000SOL    HW110897  12.896   0.182   5.019
 3000SOL    HW210898  12.760   0.195   4.952
 3001SOL     OW10899  13.835   9.553   6.253
 3001SOL    HW110900  13.881   9.637   6.245
 3001SOL    HW210901  13.814   9.528   6.164
 3002SOL     OW10902   7.741  13.917   3.010
 3002SOL    HW110903   7.687  13.943   2.936
 3002SOL    HW210904   7.794  13.844   2.977
 3003SOL     OW10905   4.506   3.012  14.396
 3003SOL    HW110906   4.546   3.057  14.470
 3003SOL    HW210907   4.492   3.081  14.331
 3004SOL     OW10908   7.200  11.144   3.708
 3004SOL    HW110909   7.137  11.072   3.713
 3004SOL    HW210910   7.189  11.179   3.620
 3005SOL     OW10911   6.876  10.281   5.110
 3005SOL    HW110912   6.780  10.276   5.116
 3005SOL    HW210913   6.905  10.190   5.124
 3006SOL     OW10914  11.259  10.336  10.854
 3006SOL    HW110915  11.254  10.426  10.885
 3006SOL    HW210916  11.325  10.338  10.784
 3007SOL     OW10917  10.137   5.626   1.312
 3007SOL    HW110918  10.073   5.660   1.250
 3007SOL    HW210919  10.124   5.679   1.391
 3008SOL     OW10920  13.000   7.997  11.005
 3008SOL    HW110921  13.020   7.991  10.911
 3008SOL    HW210922  13.079   7.967  11.049
 3009SOL     OW10923   5.747   0.716  12.960
 3009SOL    HW110924   5.811   0.773  12.918
 3009SOL    HW210925   5.725   0.652  12.893
 3010SOL     OW10926   3.465   7.376   4.302
 3010SOL    HW110927   3.384   7.419   4.328
 3010SOL    HW210928   3.508   7.354   4.385
 3011SOL     OW10929   9.833   3.020  12.871
 3011SOL    HW110930   9.765   3.021  12.939
 3011SOL    HW210931   9.799   3.076  12.802
 3012SOL     OW10932   3.495   3.345  11.691
 3012SOL    HW110933   3.536   3.262  11.667
 3012SOL    HW210934   3.409   3.321  11.723
 3013SOL     OW10935  14.713  12.006  11.950
 3013SOL    HW110936  14.737  12.095  11.923
 3013SOL    HW210937  14.624  11.994  11.917
 3014SOL     OW10938   9.227   1.881   6.991
 3014SOL    HW110939   9.254   1.886   7.082
 3014SOL    HW210940   9.308   1.887   6.941
 3015SOL     OW10941   2.825  14.368  12.484
 3015SOL    HW110942   2.853  14.336  12.398
 3015SOL    HW210943   2.870  14.452  12.493
 3016SOL     OW10944  10.096   0.771  12.844
 3016SOL    HW110945  10.070   0.846  12.791
 3016SOL    HW210946  10.031   0.703  12.823
 3017SOL     OW10947  11.711   3.312   3.026
 3017SOL    HW110948  11.726   3.370   3.101
 3017SOL    HW210949  11.783   3.333   2.966
 3018SOL     OW10950   7.068   2.821   2.016
 3018SOL    HW110951   6.974   2.824   2.029
 3018SOL    HW210952   7.100   2.906   2.045
 3019SOL     OW10953   2.666   0.599  12.143
 3019SOL    HW110954   2.657   0.666  12.075
 3019SOL    HW210955   2.576   0.571  12.160
 3020SOL     OW10956   4.900  12.352  11.618
 3020SOL    HW110957   4.939  12.370  11.704
 3020SOL    HW210958   4.973  12.361  11.556
 3021SOL     OW10959   2.545  12.922   8.293
 3021SOL    HW110960   2.569  12.961   8.377
 3021SOL    HW210961   2.548  12.994   8.230
 3022SOL     OW10962   1.581   2.665   1.520
 3022SOL    HW110963   1.521   2.603   1.478
 3022SOL    HW210964   1.538   2.689   1.602
 3023SOL     OW10965   5.055  11.781  11.947
 3023SOL    HW110966   5.059  11.745  11.858
 3023SOL    HW210967   5.077  11.874  11.935
 3024SOL     OW10968   7.713   7.854   7.786
 3024SOL    HW110969   7.661   7.825   7.711
 3024SOL    HW210970   7.666   7.819   7.862
 3025SOL     OW10971   2.263   2.738  10.032
 3025SOL    HW110972   2.278   2.796   9.958
 3025SOL    HW210973   2.228   2.795  10.100
 3026SOL     OW10974   0.159   3.503   7.335
 3026SOL    HW110975   0.242   3.455   7.327
 3026SOL    HW210976   0.092   3.438   7.315
 3027SOL     OW10977   8.434   6.167   9.656
 3027SOL    HW110978   8.478   6.225   9.594
 3027SOL    HW210979   8.502   6.107   9.685
 3028SOL     OW10980   9.527   8.196  12.043
 3028SOL    HW110981   9.533   8.102  12.063
 3028SOL    HW210982   9.587   8.237  12.105
 3029SOL     OW10983  11.739  13.768   4.430
 3029SOL    HW110984  11.818  13.806   4.470
 3029SOL    HW210985  11.667  13.799   4.485
 3030SOL     OW10986   8.453   6.632   0.220
 3030SOL    HW110987   8.543   6.646   0.250
 3030SOL    HW210988   8.421   6.560   0.275
 3031SOL     OW10989   3.625  12.915  13.981
 3031SOL    HW110990   3.571  12.910  14.060
 3031SOL    HW210991   3.701  12.966  14.007
 3032SOL     OW10992   2.010   0.991   1.308
 3032SOL    HW110993   2.001   0.983   1.213
 3032SOL    HW210994   1.951   1.063   1.332
 3033SOL     OW10995   5.190   0.147   1.726
 3033SOL    HW110996   5.205   0.076   1.664
 3033SOL    HW210997   5.278   0.177   1.750
 3034SOL     OW10998   2.294  12.805   0.881
 3034SOL    HW110999   2.238  12.834   0.953
 3034SOL    HW211000   2.286  12.873   0.815
 3035SOL     OW11001   1.881  14.535   4.910
 3035SOL    HW111002   1.964  14.486   4.909
 3035SOL    HW211003   1.888  14.593   4.986
 3036SOL     OW11004  13.880   3.310   4.724
 3036SOL    HW111005  13.819   3.371   4.683
 3036SOL    HW211006  13.964   3.329   4.683
 3037SOL     OW11007   0.102   2.570   4.970
 3037SOL    HW111008   0.195   2.549   4.970
 3037SOL    HW211009   0.080   2.580   4.877
 3038SOL     OW11010   2.928   8.552  10.312
 3038SOL    HW111011   2.987   8.609  10.263
 3038SOL    HW211012   2.905   8.483  10.249
 3039SOL     OW11013   9.108   5.285  13.072
 3039SOL    HW111014   9.044   5.214  13.077
 3039SOL    HW211015   9.056   5.364  13.057
 3040SOL     OW11016   9.974   3.107   7.384
 3040SOL    HW111017   9.963   3.143   7.296
 3040SOL    HW211018   9.945   3.177   7.442
 3041SOL     OW11019   3.983   4.312   7.112
 3041SOL    HW111020   3.993   4.284   7.203
 3041SOL    HW211021   4.054   4.374   7.097
 3042SOL     OW11022   5.589  12.633   9.903
 3042SOL    HW111023   5.555  12.570   9.839
 3042SOL    HW211024   5.537  12.617   9.982
 3043SOL     OW11025   2.083  12.595   6.469
 3043SOL    HW111026   2.045  12.553   6.392
 3043SOL    HW211027   2.155  12.648   6.434
 3044SOL     OW11028   0.646  11.764   8.976
 3044SOL    HW111029   0.655  11.724   9.063
 3044SOL    HW211030   0.718  11.728   8.925
 3045SOL     OW11031   5.950  12.096   7.102
 3045SOL    HW111032   5.999  12.177   7.088
 3045SOL    HW211033   5.870  12.107   7.051
 3046SOL     OW11034   5.548   2.011  11.198
 3046SOL    HW111035   5.640   2.034  11.211
 3046SOL    HW211036   5.502   2.095  11.198
 3047SOL     OW11037  12.132  10.853   5.012
 3047SOL    HW111038  12.191  10.927   5.000
 3047SOL    HW211039  12.082  10.875   5.091
 3048SOL     OW11040   5.872   1.738  13.342
 3048SOL    HW111041   5.811   1.790  13.290
 3048SOL    HW211042   5.819   1.707  13.416
 3049SOL     OW11043   0.968  14.513  12.170
 3049SOL    HW111044   1.036  14.580  12.171
 3049SOL    HW211045   0.886  14.563  12.173
 3050SOL     OW11046   4.136   3.119   8.642
 3050SOL    HW111047   4.187   3.131   8.722
 3050SOL    HW211048   4.201   3.116   8.572
 3051SOL     OW11049  10.296   3.027   7.874
 3051SOL    HW111050  10.285   2.960   7.941
 3051SOL    HW211051  10.382   3.009   7.836
 3052SOL     OW11052  14.834  14.345  13.272
 3052SOL    HW111053  14.774  14.299  13.212
 3052SOL    HW211054  14.819  14.304  13.357
 3053SOL     OW11055   2.439   9.522  13.508
 3053SOL    HW111056   2.501   9.584  13.545
 3053SOL    HW211057   2.398   9.569  13.435
 3054SOL     OW11058   5.849   9.633   1.222
 3054SOL    HW111059   5.884   9.565   1.165
 3054SOL    HW211060   5.889   9.616   1.307
 3055SOL     OW11061   1.780  10.046   9.913
 3055SOL    HW111062   1.847   9.981   9.893
 3055SOL    HW211063   1.813  10.093   9.989
 3056SOL     OW11064   6.776   8.388   5.309
 3056SOL    HW111065   6.752   8.333   5.383
 3056SOL    HW211066   6.847   8.341   5.266
 3057SOL     OW11067  11.018   3.979   4.105
 3057SOL    HW111068  10.936   3.946   4.142
 3057SOL    HW211069  11.059   3.902   4.065
 3058SOL     OW11070  10.531  11.218   3.104
 3058SOL    HW111071  10.497  11.252   3.186
 3058SOL    HW211072  10.484  11.266   3.036
 3059SOL     OW11073  12.321  13.150   8.875
 3059SOL    HW111074  12.287  13.194   8.798
 3059SOL    HW211075  12.348  13.221   8.933
 3060SOL     OW11076   5.476   2.179   6.434
 3060SOL    HW111077   5.552   2.132   6.399
 3060SOL    HW211078   5.433   2.115   6.491
 3061SOL     OW11079   4.759   9.555   0.674
 3061SOL    HW111080   4.679   9.565   0.724
 3061SOL    HW211081   4.829   9.560   0.740
 3062SOL     OW11082   5.142   1.410  14.398
 3062SOL    HW111083   5.229   1.385  14.428
 3062SOL    HW211084   5.156   1.492  14.350
 3063SOL     OW11085   4.996   0.614   4.002
 3063SOL    HW111086   4.919   0.669   4.015
 3063SOL    HW211087   5.070   0.674   4.011
 3064SOL     OW11088   3.493   2.147   3.736
 3064SOL    HW111089   3.429   2.087   3.772
 3064SOL    HW211090   3.471   2.232   3.775
 3065SOL     OW11091   0.315  13.329   4.049
 3065SOL    HW111092   0.263  13.249   4.042
 3065SOL    HW211093   0.252  13.397   4.072
 3066SOL     OW11094   1.283   7.057  11.774
 3066SOL    HW111095   1.199   7.101  11.783
 3066SOL    HW211096   1.260   6.966  11.753
 3067SOL     OW11097  10.715   1.594   1.692
 3067SOL    HW111098  10.763   1.514   1.670
 3067SOL    HW211099  10.719   1.646   1.612
 3068SOL     OW11100  10.250   5.520   8.874
 3068SOL    HW111101  10.167   5.561   8.851
 3068SOL    HW211102  10.262   5.451   8.808
 3069SOL     OW11103  10.840   5.737   8.422
 3069SOL    HW111104  10.851   5.803   8.491
 3069SOL    HW211105  10.899   5.766   8.352
 3070SOL     OW11106   6.951   4.792  12.244
 3070SOL    HW111107   6.955   4.763  12.335
 3070SOL    HW211108   6.969   4.886  12.249
 3071SOL     OW11109  13.353   1.934   3.737
 3071SOL    HW111110  13.359   1.842   3.764
 3071SOL    HW211111  13.431   1.975   3.775
 3072SOL     OW11112   4.086   4.286  14.532
 3072SOL    HW111113   4.158   4.293  14.469
 3072SOL    HW211114   4.128   4.256  14.612
 3073SOL     OW11115  14.836  12.478  11.180
 3073SOL    HW111116  14.749  12.513  11.199
 3073SOL    HW211117  14.819  12.392  11.141
 3074SOL     OW11118   9.507   9.955   2.034
 3074SOL    HW111119   9.416   9.979   2.017
 3074SOL    HW211120   9.501   9.889   2.104
 3075SOL     OW11121   7.493   6.746  13.975
 3075SOL    HW111122   7.515   6.662  13.934
 3075SOL    HW211123   7.543   6.810  13.925
 3076SOL     OW11124  10.119  13.670   1.266
 3076SOL    HW111125  10.121  13.765   1.277
 3076SOL    HW211126  10.117  13.636   1.356
 3077SOL     OW11127   5.885   1.117  10.829
 3077SOL    HW111128   5.946   1.044  10.829
 3077SOL    HW211129   5.829   1.102  10.905
 3078SOL     OW11130   9.079   9.802  11.697
 3078SOL    HW111131   9.095   9.708  11.694
 3078SOL    HW211132   9.160   9.841  11.663
 3079SOL     OW11133  13.651   6.003   1.476
 3079SOL    HW111134  13.586   6.041   1.535
 3079SOL    HW211135  13.616   5.917   1.453
 3080SOL     OW11136   7.933  13.078  12.293
 3080SOL    HW111137   7.985  13.145  12.249
 3080SOL    HW211138   7.850  13.120  12.313
 3081SOL     OW11139   3.179   1.516   3.939
 3081SOL    HW111140   3.107   1.532   3.877
 3081SOL    HW211141   3.165   1.426   3.969
 3082SOL     OW11142   8.182   1.378   3.180
 3082SOL    HW111143   8.244   1.425   3.236
 3082SOL    HW211144   8.219   1.386   3.092
 3083SOL     OW11145   6.637  13.617   3.434
 3083SOL    HW111146   6.673  13.594   3.520
 3083SOL    HW211147   6.637  13.534   3.386
 3084SOL     OW11148   9.444  11.156   2.457
 3084SOL    HW111149   9.401  11.238   2.432
 3084SOL    HW211150   9.494  11.178   2.536
 3085SOL     OW11151   5.817   9.495  14.527
 3085SOL    HW111152   5.878   9.426  14.552
 3085SOL    HW211153   5.741   9.481  14.583
 3086SOL     OW11154   6.239   7.909   5.567
 3086SOL    HW111155   6.211   7.818   5.562
 3086SOL    HW211156   6.304   7.910   5.637
 3087SOL     OW11157   6.832  14.127   8.387
 3087SOL    HW111158   6.899  14.082   8.438
 3087SOL    HW211159   6.835  14.218   8.418
 3088SOL     OW11160  13.238  14.723  13.528
 3088SOL    HW111161  13.312  14.780  13.548
 3088SOL    HW211162  13.175  14.779  13.483
 3089SOL     OW11163   6.698   3.171   2.943
 3089SOL    HW111164   6.725   3.254   2.903
 3089SOL    HW211165   6.762   3.108   2.911
 3090SOL     OW11166   4.421   6.725   1.905
 3090SOL    HW111167   4.352   6.688   1.960
 3090SOL    HW211168   4.414   6.677   1.822
 3091SOL     OW11169   9.052   1.473   3.441
 3091SOL    HW111170   9.015   1.518   3.365
 3091SOL    HW211171   9.055   1.540   3.509
 3092SOL     OW11172   2.334  11.283  10.502
 3092SOL    HW111173   2.357  11.208  10.557
 3092SOL    HW211174   2.277  11.246  10.435
 3093SOL     OW11175  11.544  14.530  13.587
 3093SOL    HW111176  11.491  14.584  13.646
 3093SOL    HW211177  11.632  14.534  13.623
 3094SOL     OW11178   8.549   4.085   5.871
 3094SOL    HW111179   8.548   4.058   5.963
 3094SOL    HW211180   8.591   4.012   5.825
 3095SOL     OW11181   4.172  12.212   1.931
 3095SOL    HW111182   4.185  12.251   2.017
 3095SOL    HW211183   4.229  12.135   1.931
 3096SOL     OW11184   7.831  14.150   3.124
 3096SOL    HW111185   7.772  14.214   3.165
 3096SOL    HW211186   7.783  14.068   3.126
 3097SOL     OW11187   0.341   0.690   9.126
 3097SOL    HW111188   0.323   0.600   9.101
 3097SOL    HW211189   0.429   0.708   9.092
 3098SOL     OW11190   1.239   9.701   5.293
 3098SOL    HW111191   1.260   9.772   5.354
 3098SOL    HW211192   1.145   9.708   5.280
 3099SOL     OW11193   6.562   9.492   0.206
 3099SOL    HW111194   6.476   9.449   0.209
 3099SOL    HW211195   6.551   9.564   0.144
 3100SOL     OW11196   3.322   8.284  11.409
 3100SOL    HW111197   3.228   8.270  11.401
 3100SOL    HW211198   3.332   8.380  11.408
 3101SOL     OW11199   6.606   8.318   8.978
 3101SOL    HW111200   6.626   8.365   8.897
 3101SOL    HW211201   6.519   8.350   9.003
 3102SOL     OW11202   2.322   5.980  13.440
 3102SOL    HW111203   2.275   5.996  13.522
 3102SOL    HW211204   2.392   5.919  13.465
 3103SOL     OW11205  13.697  12.688   6.077
 3103SOL    HW111206  13.658  12.715   5.994
 3103SOL    HW211207  13.705  12.769   6.127
 3104SOL     OW11208  10.962   9.476   8.379
 3104SOL    HW111209  11.031   9.421   8.416
 3104SOL    HW211210  10.904   9.416   8.333
 3105SOL     OW11211   8.739   2.669  13.180
 3105SOL    HW111212   8.805   2.720  13.227
 3105SOL    HW211213   8.786   2.592  13.149
 3106SOL     OW11214   4.970   8.790  10.623
 3106SOL    HW111215   4.959   8.707  10.669
 3106SOL    HW211216   4.919   8.853  10.674
 3107SOL     OW11217   7.697  12.099   9.708
 3107SOL    HW111218   7.741  12.073   9.789
 3107SOL    HW211219   7.640  12.024   9.688
 3108SOL     OW11220  11.560   9.481   0.190
 3108SOL    HW111221  11.566   9.560   0.137
 3108SOL    HW211222  11.646   9.441   0.183
 3109SOL     OW11223  13.673   5.539  10.521
 3109SOL    HW111224  13.662   5.633  10.507
 3109SOL    HW211225  13.604   5.515  10.584
 3110SOL     OW11226   2.524   3.573  12.370
 3110SOL    HW111227   2.504   3.480  12.360
 3110SOL    HW211228   2.583   3.578  12.445
 3111SOL     OW11229   1.548  12.249  13.553
 3111SOL    HW111230   1.606  12.239  13.478
 3111SOL    HW211231   1.460  12.232  13.518
 3112SOL     OW11232  12.645   1.198   9.576
 3112SOL    HW111233  12.645   1.107   9.547
 3112SOL    HW211234  12.570   1.237   9.532
 3113SOL     OW11235  10.054  13.974  10.994
 3113SOL    HW111236  10.007  14.047  11.034
 3113SOL    HW211237   9.986  13.919  10.957
 3114SOL     OW11238   1.838   5.757   1.834
 3114SOL    HW111239   1.769   5.706   1.877
 3114SOL    HW211240   1.791   5.821   1.781
 3115SOL     OW11241   0.301   7.532  14.029
 3115SOL    HW111242   0.309   7.627  14.037
 3115SOL    HW211243   0.353   7.510  13.952
 3116SOL     OW11244   1.776   1.837   2.224
 3116SOL    HW111245   1.693   1.793   2.210
 3116SOL    HW211246   1.782   1.849   2.318
 3117SOL     OW11247  11.194   7.503   8.203
 3117SOL    HW111248  11.107   7.522   8.167
 3117SOL    HW211249  11.180   7.427   8.260
 3118SOL     OW11250  12.584  12.477  10.477
 3118SOL    HW111251  12.491  12.458  10.470
 3118SOL    HW211252  12.607  12.517  10.394
 3119SOL     OW11253   0.936  10.287   2.281
 3119SOL    HW111254   1.010  10.263   2.225
 3119SOL    HW211255   0.907  10.203   2.318
 3120SOL     OW11256   8.871  10.087   3.450
 3120SOL    HW111257   8.938  10.069   3.384
 3120SOL    HW211258   8.885  10.022   3.518
 3121SOL     OW11259  10.097  13.588   3.927
 3121SOL    HW111260  10.094  13.564   3.834
 3121SOL    HW211261  10.164  13.656   3.933
 3122SOL     OW11262   2.126   7.757   7.031
 3122SOL    HW111263   2.126   7.663   7.050
 3122SOL    HW211264   2.203   7.770   6.976
 3123SOL     OW11265   5.921   9.406   6.315
 3123SOL    HW111266   5.857   9.370   6.376
 3123SOL    HW211267   5.945   9.331   6.259
 3124SOL     OW11268   7.233   4.017  14.791
 3124SOL    HW111269   7.230   4.110  14.771
 3124SOL    HW211270   7.157   3.981  14.746
 3125SOL     OW11271   4.946  13.154  13.578
 3125SOL    HW111272   4.859  13.146  13.615
 3125SOL    HW211273   4.994  13.077  13.609
 3126SOL     OW11274   4.530  12.809  12.562
 3126SOL    HW111275   4.449  12.837  12.605
 3126SOL    HW211276   4.500  12.771  12.479
 3127SOL     OW11277   7.807   5.723  12.199
 3127SOL    HW111278   7.732   5.681  12.240
 3127SOL    HW211279   7.836   5.661  12.132
 3128SOL     OW11280  10.275  11.993   5.211
 3128SOL    HW111281  10.194  11.954   5.179
 3128SOL    HW211282  10.264  11.999   5.306
 3129SOL     OW11283   2.629   0.268   1.042
 3129SOL    HW111284   2.687   0.279   1.118
 3129SOL    HW211285   2.639   0.176   1.018
 3130SOL     OW11286  14.536   4.966   7.267
 3130SOL    HW111287  14.451   4.962   7.310
 3130SOL    HW211288  14.545   4.881   7.224
 3131SOL     OW11289   6.158  11.228   3.994
 3131SOL    HW111290   6.178  11.321   3.984
 3131SOL    HW211291   6.074  11.226   4.040
 3132SOL     OW11292  13.638   8.431   1.901
 3132SOL    HW111293  13.701   8.416   1.831
 3132SOL    HW211294  13.590   8.348   1.908
 3133SOL     OW11295   6.245  14.712   1.007
 3133SOL    HW111296   6.286  14.625   1.009
 3133SOL    HW211297   6.193  14.712   0.927
 3134SOL     OW11298  11.794   8.244   7.900
 3134SOL    HW111299  11.888   8.248   7.913
 3134SOL    HW211300  11.775   8.152   7.885
 3135SOL     OW11301   3.002   0.463   6.278
 3135SOL    HW111302   2.996   0.434   6.186
 3135SOL    HW211303   3.091   0.498   6.285
 3136SOL     OW11304   4.221  12.360  11.876
 3136SOL    HW111305   4.205  12.447  11.838
 3136SOL    HW211306   4.176  12.300  11.818
 3137SOL     OW11307   3.785  10.696   7.727
 3137SOL    HW111308   3.843  10.637   7.774
 3137SOL    HW211309   3.713  10.712   7.788
 3138SOL     OW11310   1.807  11.153   8.393
 3138SOL    HW111311   1.860  11.107   8.459
 3138SOL    HW211312   1.837  11.244   8.397
 3139SOL     OW11313  11.305   6.052   8.488
 3139SOL    HW111314  11.357   6.088   8.417
 3139SOL    HW211315  11.334   6.100   8.566
 3140SOL     OW11316  10.951   0.207  10.583
 3140SOL    HW111317  11.035   0.168  10.561
 3140SOL    HW211318  10.973   0.284  10.634
 3141SOL     OW11319   2.066   2.668  10.925
 3141SOL    HW111320   2.084   2.608  10.997
 3141SOL    HW211321   2.149   2.714  10.911
 3142SOL     OW11322   0.218  13.087   3.456
 3142SOL    HW111323   0.291  13.025   3.462
 3142SOL    HW211324   0.141  13.032   3.449
 3143SOL     OW11325   4.899   4.657   1.051
 3143SOL    HW111326   4.854   4.605   0.985
 3143SOL    HW211327   4.879   4.612   1.134
 3144SOL     OW11328  11.206   5.000   9.772
 3144SOL    HW111329  11.239   4.970   9.856
 3144SOL    HW211330  11.187   4.920   9.723
 3145SOL     OW11331   3.008   0.833  10.394
 3145SOL    HW111332   2.991   0.797  10.307
 3145SOL    HW211333   2.943   0.791  10.451
 3146SOL     OW11334  14.368   6.460   8.693
 3146SOL    HW111335  14.336   6.376   8.728
 3146SOL    HW211336  14.376   6.516   8.771
 3147SOL     OW11337  13.537   2.285   8.579
 3147SOL    HW111338  13.577   2.372   8.586
 3147SOL    HW211339  13.499   2.283   8.491
 3148SOL     OW11340   2.505   4.699   9.097
 3148SOL    HW111341   2.585   4.724   9.142
 3148SOL    HW211342   2.450   4.778   9.101
 3149SOL     OW11343  10.112  13.706  12.000
 3149SOL    HW111344  10.116  13.624  12.049
 3149SOL    HW211345  10.174  13.695  11.928
 3150SOL     OW11346   8.792   1.316  12.824
 3150SOL    HW111347   8.870   1.265  12.805
 3150SOL    HW211348   8.719   1.257  12.807
 3151SOL     OW11349   2.182   2.887  10.259
 3151SOL    HW111350   2.121   2.953  10.227
 3151SOL    HW211351   2.129   2.829  10.313
 3152SOL     OW11352   6.050   0.758   7.753
 3152SOL    HW111353   6.001   0.747   7.671
 3152SOL    HW211354   5.991   0.723   7.821
 3153SOL     OW11355  11.352  13.054  10.432
 3153SOL    HW111356  11.337  13.144  10.461
 3153SOL    HW211357  11.355  13.003  10.512
 3154SOL     OW11358   6.958   9.725  11.368
 3154SOL    HW111359   6.956   9.684  11.281
 3154SOL    HW211360   6.952   9.651  11.428
 3155SOL     OW11361   3.572  13.862   0.676
 3155SOL    HW111362   3.546  13.771   0.694
 3155SOL    HW211363   3.545  13.877   0.585
 3156SOL     OW11364  12.751   5.319   0.937
 3156SOL    HW111365  12.788   5.231   0.944
 3156SOL    HW211366  12.659   5.305   0.916
 3157SOL     OW11367   4.775   4.188  12.540
 3157SOL    HW111368   4.741   4.162  12.626
 3157SOL    HW211369   4.870   4.181  12.549
 3158SOL     OW11370   9.182   3.375   2.109
 3158SOL    HW111371   9.191   3.400   2.017
 3158SOL    HW211372   9.270   3.386   2.146
 3159SOL     OW11373   4.915   0.333  14.470
 3159SOL    HW111374   4.833   0.351  14.515
 3159SOL    HW211375   4.948   0.419  14.444
 3160SOL     OW11376  11.305   6.873   2.196
 3160SOL    HW111377  11.225   6.891   2.147
 3160SOL    HW211378  11.374   6.878   2.131
 3161SOL     OW11379   5.056   6.837  10.710
 3161SOL    HW111380   4.964   6.853  10.731
 3161SOL    HW211381   5.059   6.833  10.615
 3162SOL     OW11382   9.449   9.070  12.516
 3162SOL    HW111383   9.483   8.983  12.499
 3162SOL    HW211384   9.379   9.057  12.581
 3163SOL     OW11385  11.852   9.379   5.355
 3163SOL    HW111386  11.834   9.471   5.340
 3163SOL    HW211387  11.812   9.334   5.281
 3164SOL     OW11388  11.452   2.628   2.293
 3164SOL    HW111389  11.396   2.672   2.357
 3164SOL    HW211390  11.397   2.559   2.255
 3165SOL     OW11391  13.686  12.203   2.361
 3165SOL    HW111392  13.736  12.127   2.392
 3165SOL    HW211393  13.687  12.195   2.266
 3166SOL     OW11394   8.139  10.619  11.730
 3166SOL    HW111395   8.060  10.627  11.676
 3166SOL    HW211396   8.153  10.707  11.765
 3167SOL     OW11397   9.001   9.419   8.455
 3167SOL    HW111398   9.070   9.485   8.447
 3167SOL    HW211399   8.942   9.436   8.383
 3168SOL     OW11400   9.652   5.366   8.839
 3168SOL    HW111401   9.678   5.458   8.830
 3168SOL    HW211402   9.604   5.363   8.922
 3169SOL     OW11403   2.490  10.623   8.374
 3169SOL    HW111404   2.433  10.599   8.301
 3169SOL    HW211405   2.504  10.717   8.363
 3170SOL     OW11406   3.312  14.258   5.178
 3170SOL    HW111407   3.262  14.330   5.140
 3170SOL    HW211408   3.268  14.179   5.146
 3171SOL     OW11409   1.148   7.792   4.985
 3171SOL    HW111410   1.118   7.808   5.074
 3171SOL    HW211411   1.081   7.734   4.947
 3172SOL     OW11412   1.351  11.345  13.600
 3172SOL    HW111413   1.427  11.301  13.638
 3172SOL    HW211414   1.362  11.334  13.505
 3173SOL     OW11415   1.222   5.034   1.827
 3173SOL    HW111416   1.304   5.081   1.847
 3173SOL    HW211417   1.204   4.983   1.905
 3174SOL     OW11418  11.097   1.790  11.883
 3174SOL    HW111419  11.013   1.771  11.925
 3174SOL    HW211420  11.100   1.886  11.877
 3175SOL     OW11421   9.980   9.536   6.591
 3175SOL    HW111422   9.965   9.543   6.685
 3175SOL    HW211423   9.984   9.627   6.561
 3176SOL     OW11424   5.481   8.600   1.626
 3176SOL    HW111425   5.388   8.584   1.638
 3176SOL    HW211426   5.525   8.530   1.674
 3177SOL     OW11427   8.447   5.545   8.003
 3177SOL    HW111428   8.440   5.480   7.933
 3177SOL    HW211429   8.494   5.618   7.963
 3178SOL     OW11430   7.306   2.686   5.244
 3178SOL    HW111431   7.270   2.672   5.157
 3178SOL    HW211432   7.239   2.739   5.289
 3179SOL     OW11433   8.279   2.714  14.437
 3179SOL    HW111434   8.208   2.754  14.488
 3179SOL    HW211435   8.303   2.781  14.373
 3180SOL     OW11436   2.502   2.650   7.098
 3180SOL    HW111437   2.477   2.566   7.059
 3180SOL    HW211438   2.567   2.685   7.037
 3181SOL     OW11439  10.037   9.564   7.990
 3181SOL    HW111440  10.115   9.557   8.045
 3181SOL    HW211441  10.013   9.657   7.994
 3182SOL     OW11442   1.619   9.292   7.272
 3182SOL    HW111443   1.533   9.331   7.258
 3182SOL    HW211444   1.630   9.291   7.367
 3183SOL     OW11445   5.782   4.399   5.023
 3183SOL    HW111446   5.729   4.449   5.086
 3183SOL    HW211447   5.807   4.320   5.071
 3184SOL     OW11448  11.661   0.644   2.428
 3184SOL    HW111449  11.703   0.562   2.454
 3184SOL    HW211450  11.734   0.700   2.400
 3185SOL     OW11451  11.783   0.157   7.176
 3185SOL    HW111452  11.715   0.106   7.132
 3185SOL    HW211453  11.746   0.245   7.185
 3186SOL     OW11454   6.976   1.696   4.334
 3186SOL    HW111455   6.939   1.608   4.340
 3186SOL    HW211456   7.005   1.716   4.423
 3187SOL     OW11457  11.472   0.968   3.194
 3187SOL    HW111458  11.421   1.040   3.229
 3187SOL    HW211459  11.447   0.892   3.247
 3188SOL     OW11460   0.522  13.127   1.430
 3188SOL    HW111461   0.435  13.163   1.411
 3188SOL    HW211462   0.548  13.081   1.350
 3189SOL     OW11463   8.844   0.719  12.387
 3189SOL    HW111464   8.934   0.716  12.355
 3189SOL    HW211465   8.800   0.647  12.341
 3190SOL     OW11466  12.001   9.603  12.085
 3190SOL    HW111467  11.930   9.610  12.149
 3190SOL    HW211468  12.028   9.511  12.090
 3191SOL     OW11469   0.376   8.323   0.364
 3191SOL    HW111470   0.321   8.371   0.302
 3191SOL    HW211471   0.371   8.374   0.445
 3192SOL     OW11472   9.075  10.697   3.785
 3192SOL    HW111473   9.122  10.714   3.703
 3192SOL    HW211474   9.008  10.766   3.789
 3193SOL     OW11475   1.090   3.803  13.622
 3193SOL    HW111476   1.090   3.717  13.579
 3193SOL    HW211477   1.123   3.863  13.555
 3194SOL     OW11478  14.603   0.982   5.055
 3194SOL    HW111479  14.614   0.980   5.150
 3194SOL    HW211480  14.640   1.066   5.027
 3195SOL     OW11481   7.568   9.696   4.815
 3195SOL    HW111482   7.646   9.695   4.760
 3195SOL    HW211483   7.501   9.737   4.761
 3196SOL     OW11484   6.180   9.182  11.361
 3196SOL    HW111485   6.195   9.274  11.339
 3196SOL    HW211486   6.085   9.172  11.355
 3197SOL     OW11487  13.043  13.045  13.658
 3197SOL    HW111488  13.032  13.140  13.663
 3197SOL    HW211489  13.121  13.027  13.710
 3198SOL     OW11490   9.435  11.817  10.143
 3198SOL    HW111491   9.472  11.801  10.056
 3198SOL    HW211492   9.511  11.826  10.200
 3199SOL     OW11493   0.733   8.343   7.596
 3199SOL    HW111494   0.760   8.428   7.630
 3199SOL    HW211495   0.722   8.288   7.674
 3200SOL     OW11496  13.256   7.110   1.934
 3200SOL    HW111497  13.339   7.103   1.887
 3200SOL    HW211498  13.238   7.204   1.937
 3201SOL     OW11499   7.039   0.651   8.176
 3201SOL    HW111500   7.019   0.570   8.223
 3201SOL    HW211501   6.956   0.699   8.174
 3202SOL     OW11502   5.982   7.029   3.192
 3202SOL    HW111503   5.918   6.962   3.218
 3202SOL    HW211504   6.045   7.030   3.264
 3203SOL     OW11505   2.621  14.187   7.810
 3203SOL    HW111506   2.592  14.204   7.720
 3203SOL    HW211507   2.630  14.274   7.849
 3204SOL     OW11508  13.611   7.390   2.303
 3204SOL    HW111509  13.544   7.350   2.248
 3204SOL    HW211510  13.627   7.476   2.263
 3205SOL     OW11511   0.552  10.940  13.567
 3205SOL    HW111512   0.520  10.852  13.550
 3205SOL    HW211513   0.482  10.982  13.617
 3206SOL     OW11514  11.404  10.203   7.313
 3206SOL    HW111515  11.384  10.178   7.222
 3206SOL    HW211516  11.320  10.230   7.350
 3207SOL     OW11517   6.704  10.741   9.796
 3207SOL    HW111518   6.625  10.740   9.850
 3207SOL    HW211519   6.726  10.648   9.785
 3208SOL     OW11520   3.755  14.133   6.235
 3208SOL    HW111521   3.719  14.053   6.197
 3208SOL    HW211522   3.849  14.124   6.225
 3209SOL     OW11523   8.649   5.312   3.967
 3209SOL    HW111524   8.589   5.319   3.892
 3209SOL    HW211525   8.593   5.285   4.040
 3210SOL     OW11526   7.423   7.009   5.137
 3210SOL    HW111527   7.415   6.996   5.231
 3210SOL    HW211528   7.421   7.104   5.125
 3211SOL     OW11529   4.416  11.788   3.377
 3211SOL    HW111530   4.397  11.865   3.431
 3211SOL    HW211531   4.489  11.745   3.422
 3212SOL     OW11532  10.987  13.967   6.828
 3212SOL    HW111533  10.974  13.881   6.788
 3212SOL    HW211534  11.043  13.950   6.903
 3213SOL     OW11535   7.897   5.784   3.959
 3213SOL    HW111536   7.986   5.760   3.934
 3213SOL    HW211537   7.905   5.875   3.989
 3214SOL     OW11538   4.098   6.646  11.556
 3214SOL    HW111539   4.138   6.727  11.524
 3214SOL    HW211540   4.053   6.610  11.479
 3215SOL     OW11541   1.002   0.603   5.150
 3215SOL    HW111542   1.038   0.652   5.076
 3215SOL    HW211543   0.909   0.626   5.151
 3216SOL     OW11544  14.813  11.543   9.193
 3216SOL    HW111545   0.005  11.471   9.205
 3216SOL    HW211546  14.799  11.547   9.099
 3217SOL     OW11547  10.577   0.155  12.964
 3217SOL    HW111548  10.508   0.091  12.947
 3217SOL    HW211549  10.647   0.105  13.006
 3218SOL     OW11550   6.866   3.926  12.592
 3218SOL    HW111551   6.952   3.967  12.584
 3218SOL    HW211552   6.804   3.993  12.566
 3219SOL     OW11553  10.472   0.615   7.201
 3219SOL    HW111554  10.459   0.537   7.255
 3219SOL    HW211555  10.481   0.686   7.264
 3220SOL     OW11556   5.689   5.988  14.842
 3220SOL    HW111557   5.747   5.913  14.830
 3220SOL    HW211558   5.679   5.996   0.067
 3221SOL     OW11559   8.742   3.628   8.235
 3221SOL    HW111560   8.837   3.633   8.224
 3221SOL    HW211561   8.724   3.535   8.250
 3222SOL     OW11562  13.712   2.195   8.793
 3222SOL    HW111563  13.633   2.220   8.745
 3222SOL    HW211564  13.778   2.181   8.725
 3223SOL     OW11565  12.177   8.190   9.462
 3223SOL    HW111566  12.234   8.195   9.385
 3223SOL    HW211567  12.226   8.135   9.524
 3224SOL     OW11568  10.709   8.334   3.432
 3224SOL    HW111569  10.663   8.250   3.424
 3224SOL    HW211570  10.639   8.398   3.441
 3225SOL     OW11571   8.196  10.489   1.851
 3225SOL    HW111572   8.196  10.427   1.925
 3225SOL    HW211573   8.107  10.483   1.815
 3226SOL     OW11574   4.741   9.523   5.957
 3226SOL    HW111575   4.817   9.464   5.958
 3226SOL    HW211576   4.693   9.499   5.878
 3227SOL     OW11577   1.681  10.902   0.567
 3227SOL    HW111578   1.767  10.863   0.560
 3227SOL    HW211579   1.695  10.984   0.614
 3228SOL     OW11580   3.999   3.125  13.093
 3228SOL    HW111581   3.991   3.116  13.188
 3228SOL    HW211582   4.031   3.214  13.080
 3229SOL     OW11583   9.979  14.399  11.326
 3229SOL    HW111584  10.050  14.433  11.272
 3229SOL    HW211585   9.960  14.468  11.388
 3230SOL     OW11586   5.586   0.961   3.480
 3230SOL    HW111587   5.555   0.871   3.469
 3230SOL    HW211588   5.507   1.011   3.500
 3231SOL     OW11589   3.445   0.299  13.986
 3231SOL    HW111590   3.533   0.318  13.954
 3231SOL    HW211591   3.454   0.292  14.081
 3232SOL     OW11592  11.981  11.024   4.505
 3232SOL    HW111593  12.042  11.097   4.513
 3232SOL    HW211594  11.994  10.972   4.585
 3233SOL     OW11595  11.023   2.961   8.914
 3233SOL    HW111596  10.928   2.951   8.909
 3233SOL    HW211597  11.037   3.055   8.919
 3234SOL     OW11598   2.395  13.621   0.087
 3234SOL    HW111599   2.350  13.695   0.046
 3234SOL    HW211600   2.486  13.650   0.096
 3235SOL     OW11601   5.159  14.837  13.746
 3235SOL    HW111602   5.179  14.851  13.838
 3235SOL    HW211603   5.240  14.859  13.699
 3236SOL     OW11604  12.881   5.661  13.039
 3236SOL    HW111605  12.797   5.669  13.084
 3236SOL    HW211606  12.933   5.603  13.095
 3237SOL     OW11607   2.015   2.227  11.653
 3237SOL    HW111608   2.061   2.303  11.691
 3237SOL    HW211609   2.047   2.222  11.563
 3238SOL     OW11610   7.884   5.645   0.932
 3238SOL    HW111611   7.868   5.708   0.861
 3238SOL    HW211612   7.803   5.647   0.983
 3239SOL     OW11613  13.782  12.362   8.797
 3239SOL    HW111614  13.752  12.289   8.743
 3239SOL    HW211615  13.724  12.360   8.874
 3240SOL     OW11616  13.557   4.249   8.495
 3240SOL    HW111617  13.597   4.336   8.486
 3240SOL    HW211618  13.609   4.193   8.437
 3241SOL     OW11619  14.546  14.549  14.812
 3241SOL    HW111620  14.453  14.563  14.797
 3241SOL    HW211621  14.571  14.480  14.750
 3242SOL     OW11622   3.810   6.746  11.573
 3242SOL    HW111623   3.856   6.688  11.633
 3242SOL    HW211624   3.807   6.697  11.490
 3243SOL     OW11625  14.572   2.459  10.465
 3243SOL    HW111626  14.531   2.458  10.379
 3243SOL    HW211627  14.516   2.515  10.518
 3244SOL     OW11628  12.248  14.680   7.042
 3244SOL    HW111629  12.173  14.704   6.989
 3244SOL    HW211630  12.313  14.649   6.979
 3245SOL     OW11631   5.295   2.202  10.722
 3245SOL    HW111632   5.363   2.235  10.663
 3245SOL    HW211633   5.299   2.107  10.712
 3246SOL     OW11634   2.318  10.040   4.042
 3246SOL    HW111635   2.289  10.026   4.132
 3246SOL    HW211636   2.241  10.075   3.997
 3247SOL     OW11637  11.908  12.125   7.435
 3247SOL    HW111638  11.991  12.079   7.430
 3247SOL    HW211639  11.894  12.159   7.346
 3248SOL     OW11640   4.960   9.636  14.221
 3248SOL    HW111641   4.954   9.726  14.187
 3248SOL    HW211642   4.965   9.581  14.143
 3249SOL     OW11643  12.351   2.132   6.806
 3249SOL    HW111644  12.343   2.217   6.763
 3249SOL    HW211645  12.417   2.085   6.754
 3250SOL     OW11646   3.485   3.899   6.611
 3250SOL    HW111647   3.466   3.812   6.576
 3250SOL    HW211648   3.531   3.943   6.540
 3251SOL     OW11649   9.034   3.143   5.094
 3251SOL    HW111650   8.955   3.185   5.061
 3251SOL    HW211651   9.006   3.057   5.123
 3252SOL     OW11652   3.904  13.355   0.439
 3252SOL    HW111653   3.918  13.290   0.507
 3252SOL    HW211654   3.905  13.439   0.486
 3253SOL     OW11655   6.954   1.284  12.173
 3253SOL    HW111656   6.904   1.331  12.107
 3253SOL    HW211657   7.042   1.277  12.136
 3254SOL     OW11658   0.824   3.841   1.888
 3254SOL    HW111659   0.904   3.837   1.836
 3254SOL    HW211660   0.793   3.751   1.893
 3255SOL     OW11661   0.753  10.455  11.101
 3255SOL    HW111662   0.773  10.378  11.154
 3255SOL    HW211663   0.736  10.524  11.165
 3256SOL     OW11664   4.807  12.781   2.925
 3256SOL    HW111665   4.757  12.854   2.890
 3256SOL    HW211666   4.741  12.713   2.942
 3257SOL     OW11667  13.598   7.065   0.917
 3257SOL    HW111668  13.629   6.994   0.861
 3257SOL    HW211669  13.675   7.118   0.933
 3258SOL     OW11670   9.514   2.345   9.261
 3258SOL    HW111671   9.474   2.432   9.275
 3258SOL    HW211672   9.450   2.299   9.205
 3259SOL     OW11673  11.364   8.824   9.832
 3259SOL    HW111674  11.446   8.852   9.873
 3259SOL    HW211675  11.383   8.738   9.795
 3260SOL     OW11676   5.067  13.813   9.763
 3260SOL    HW111677   5.127  13.865   9.817
 3260SOL    HW211678   4.984  13.815   9.811
 3261SOL     OW11679   9.731   1.839  13.225
 3261SOL    HW111680   9.745   1.751  13.261
 3261SOL    HW211681   9.687   1.887  13.294
 3262SOL     OW11682   7.170   9.697   7.918
 3262SOL    HW111683   7.220   9.649   7.985
 3262SOL    HW211684   7.176   9.789   7.945
 3263SOL     OW11685   9.751  12.477   4.432
 3263SOL    HW111686   9.794  12.436   4.357
 3263SOL    HW211687   9.767  12.571   4.420
 3264SOL     OW11688  11.446   9.894   8.356
 3264SOL    HW111689  11.521   9.856   8.401
 3264SOL    HW211690  11.413   9.961   8.416
 3265SOL     OW11691  11.474   2.818   5.035
 3265SOL    HW111692  11.395   2.764   5.039
 3265SOL    HW211693  11.498   2.820   4.943
 3266SOL     OW11694  11.933   7.585  10.827
 3266SOL    HW111695  11.929   7.616  10.737
 3266SOL    HW211696  11.915   7.491  10.821
 3267SOL     OW11697  10.615  13.644   6.850
 3267SOL    HW111698  10.584  13.642   6.940
 3267SOL    HW211699  10.608  13.553   6.820
 3268SOL     OW11700  12.049  12.454   6.826
 3268SOL    HW111701  11.977  12.458   6.764
 3268SOL    HW211702  12.093  12.371   6.807
 3269SOL     OW11703   7.065   9.121  10.181
 3269SOL    HW111704   7.034   9.113  10.090
 3269SOL    HW211705   7.095   9.211  10.188
 3270SOL     OW11706   1.537   6.672   7.424
 3270SOL    HW111707   1.454   6.624   7.411
 3270SOL    HW211708   1.598   6.630   7.364
 3271SOL     OW11709  13.377   9.763   1.595
 3271SOL    HW111710  13.375   9.768   1.500
 3271SOL    HW211711  13.435   9.689   1.614
 3272SOL     OW11712   7.582   1.731   2.309
 3272SOL    HW111713   7.588   1.763   2.399
 3272SOL    HW211714   7.493   1.753   2.281
 3273SOL     OW11715   4.031  10.085  13.379
 3273SOL    HW111716   4.003  10.129  13.298
 3273SOL    HW211717   4.114  10.042  13.355
 3274SOL     OW11718   8.862   8.048  13.796
 3274SOL    HW111719   8.828   8.014  13.713
 3274SOL    HW211720   8.912   7.975  13.833
 3275SOL     OW11721   7.031   9.631  10.490
 3275SOL    HW111722   6.965   9.573  10.454
 3275SOL    HW211723   7.114   9.598  10.457
 3276SOL     OW11724   5.501  10.729  14.760
 3276SOL    HW111725   5.478  10.729  14.667
 3276SOL    HW211726   5.534  10.640  14.776
 3277SOL     OW11727   0.292   6.904   0.960
 3277SOL    HW111728   0.311   6.879   0.870
 3277SOL    HW211729   0.372   6.948   0.990
 3278SOL     OW11730  13.752   9.819   7.814
 3278SOL    HW111731  13.841   9.800   7.842
 3278SOL    HW211732  13.707   9.844   7.895
 3279SOL     OW11733   5.714   0.598   6.928
 3279SOL    HW111734   5.784   0.587   6.992
 3279SOL    HW211735   5.634   0.569   6.973
 3280SOL     OW11736   6.409   3.818  11.511
 3280SOL    HW111737   6.414   3.722  11.520
 3280SOL    HW211738   6.317   3.835  11.491
 3281SOL     OW11739   1.380   2.157   5.668
 3281SOL    HW111740   1.415   2.101   5.738
 3281SOL    HW211741   1.420   2.243   5.684
 3282SOL     OW11742   0.201   6.080   7.606
 3282SOL    HW111743   0.111   6.048   7.597
 3282SOL    HW211744   0.252   6.028   7.544
 3283SOL     OW11745   9.573   4.552   0.249
 3283SOL    HW111746   9.538   4.541   0.337
 3283SOL    HW211747   9.508   4.511   0.192
 3284SOL     OW11748   1.083  10.284   5.839
 3284SOL    HW111749   1.134  10.354   5.879
 3284SOL    HW211750   1.148  10.220   5.811
 3285SOL     OW11751   4.619   3.904  14.353
 3285SOL    HW111752   4.704   3.863  14.363
 3285SOL    HW211753   4.556   3.834  14.369
 3286SOL     OW11754  12.416  10.756   8.497
 3286SOL    HW111755  12.448  10.829   8.550
 3286SOL    HW211756  12.453  10.678   8.539
 3287SOL     OW11757  13.892   2.900  12.118
 3287SOL    HW111758  13.806   2.882  12.158
 3287SOL    HW211759  13.949   2.920  12.193
 3288SOL     OW11760   1.462   2.381   8.182
 3288SOL    HW111761   1.423   2.451   8.234
 3288SOL    HW211762   1.388   2.340   8.137
 3289SOL     OW11763   3.569   5.448  12.343
 3289SOL    HW111764   3.648   5.454  12.397
 3289SOL    HW211765   3.538   5.358  12.356
 3290SOL     OW11766   4.246  11.679  11.285
 3290SOL    HW111767   4.277  11.597  11.323
 3290SOL    HW211768   4.210  11.654  11.200
 3291SOL     OW11769   3.382   5.782  13.963
 3291SOL    HW111770   3.441   5.718  14.002
 3291SOL    HW211771   3.301   5.733  13.946
 3292SOL     OW11772  10.104   1.641   2.833
 3292SOL    HW111773  10.108   1.713   2.896
 3292SOL    HW211774  10.052   1.676   2.760
 3293SOL     OW11775   8.715  14.403  10.801
 3293SOL    HW111776   8.708  14.452  10.719
 3293SOL    HW211777   8.721  14.312  10.775
 3294SOL     OW11778   0.521   9.972   9.084
 3294SOL    HW111779   0.528  10.068   9.092
 3294SOL    HW211780   0.610   9.941   9.103
 3295SOL     OW11781   3.591   5.179  12.294
 3295SOL    HW111782   3.682   5.208  12.284
 3295SOL    HW211783   3.596   5.104  12.353
 3296SOL     OW11784   8.836   1.605  12.838
 3296SOL    HW111785   8.809   1.613  12.929
 3296SOL    HW211786   8.816   1.514  12.815
 3297SOL     OW11787  10.602   8.199   5.302
 3297SOL    HW111788  10.618   8.175   5.394
 3297SOL    HW211789  10.624   8.120   5.253
 3298SOL     OW11790   1.017  13.734  13.128
 3298SOL    HW111791   1.090  13.745  13.188
 3298SOL    HW211792   0.970  13.817  13.132
 3299SOL     OW11793   7.794  10.953  13.861
 3299SOL    HW111794   7.811  10.925  13.771
 3299SOL    HW211795   7.858  11.022  13.877
 3300SOL     OW11796   1.398   8.927   4.891
 3300SOL    HW111797   1.481   8.919   4.937
 3300SOL    HW211798   1.402   8.860   4.822
 3301SOL     OW11799  12.698  14.357   5.375
 3301SOL    HW111800  12.675  14.446   5.350
 3301SOL    HW211801  12.676  14.303   5.299
 3302SOL     OW11802  12.616   9.660   9.317
 3302SOL    HW111803  12.659   9.728   9.265
 3302SOL    HW211804  12.592   9.593   9.253
 3303SOL     OW11805   3.137   7.689   1.522
 3303SOL    HW111806   3.122   7.619   1.586
 3303SOL    HW211807   3.070   7.675   1.455
 3304SOL     OW11808   9.733  14.166   5.338
 3304SOL    HW111809   9.710  14.153   5.247
 3304SOL    HW211810   9.781  14.249   5.339
 3305SOL     OW11811  14.770  13.914  11.612
 3305SOL    HW111812  14.809  13.908  11.524
 3305SOL    HW211813  14.830  13.865  11.668
 3306SOL     OW11814   9.558   9.715   7.343
 3306SOL    HW111815   9.606   9.739   7.263
 3306SOL    HW211816   9.617   9.739   7.414
 3307SOL     OW11817   2.952   5.499   2.547
 3307SOL    HW111818   2.923   5.468   2.633
 3307SOL    HW211819   2.958   5.420   2.494
 3308SOL     OW11820   8.920   5.524   5.416
 3308SOL    HW111821   8.887   5.614   5.416
 3308SOL    HW211822   8.847   5.472   5.381
 3309SOL     OW11823   2.374   3.300   4.011
 3309SOL    HW111824   2.353   3.392   4.029
 3309SOL    HW211825   2.385   3.261   4.098
 3310SOL     OW11826   0.452   3.883   5.457
 3310SOL    HW111827   0.416   3.846   5.538
 3310SOL    HW211828   0.459   3.808   5.398
 3311SOL     OW11829  14.352  12.477   9.758
 3311SOL    HW111830  14.420  12.414   9.735
 3311SOL    HW211831  14.394  12.535   9.821
 3312SOL     OW11832   4.253   1.371  14.395
 3312SOL    HW111833   4.170   1.327  14.413
 3312SOL    HW211834   4.256   1.381  14.300
 3313SOL     OW11835   5.258   3.406   1.826
 3313SOL    HW111836   5.277   3.499   1.815
 3313SOL    HW211837   5.213   3.401   1.911
 3314SOL     OW11838   3.638  10.237  13.840
 3314SOL    HW111839   3.628  10.186  13.920
 3314SOL    HW211840   3.584  10.315  13.854
 3315SOL     OW11841   1.651   8.903  12.047
 3315SOL    HW111842   1.660   8.808  12.039
 3315SOL    HW211843   1.678   8.922  12.136
 3316SOL     OW11844  14.634   9.188  10.196
 3316SOL    HW111845  14.597   9.164  10.111
 3316SOL    HW211846  14.712   9.240  10.175
 3317SOL     OW11847   0.869   3.021   1.241
 3317SOL    HW111848   0.871   3.115   1.228
 3317SOL    HW211849   0.840   2.986   1.157
 3318SOL     OW11850   7.115   0.589   0.064
 3318SOL    HW111851   7.089   0.499   0.084
 3318SOL    HW211852   7.180   0.581  14.865
 3319SOL     OW11853  11.498   0.828   8.946
 3319SOL    HW111854  11.526   0.909   8.989
 3319SOL    HW211855  11.503   0.848   8.852
 3320SOL     OW11856   0.532  12.292   8.052
 3320SOL    HW111857   0.592  12.291   8.126
 3320SOL    HW211858   0.517  12.385   8.034
 3321SOL     OW11859   0.839  13.180   9.122
 3321SOL    HW111860   0.919  13.161   9.171
 3321SOL    HW211861   0.770  13.183   9.189
 3322SOL     OW11862   2.124   3.421  10.228
 3322SOL    HW111863   2.078   3.416  10.311
 3322SOL    HW211864   2.215   3.400  10.250
 3323SOL     OW11865   4.437   5.936   5.760
 3323SOL    HW111866   4.400   5.926   5.847
 3323SOL    HW211867   4.426   6.029   5.740
 3324SOL     OW11868   6.120   7.344   7.951
 3324SOL    HW111869   6.158   7.321   7.866
 3324SOL    HW211870   6.184   7.312   8.015
 3325SOL     OW11871   9.564   7.186   6.818
 3325SOL    HW111872   9.609   7.105   6.838
 3325SOL    HW211873   9.474   7.160   6.799
 3326SOL     OW11874  14.044   0.144   2.806
 3326SOL    HW111875  14.096   0.192   2.742
 3326SOL    HW211876  14.093   0.152   2.888
 3327SOL     OW11877   7.584   8.486   5.113
 3327SOL    HW111878   7.543   8.544   5.050
 3327SOL    HW211879   7.590   8.538   5.194
 3328SOL     OW11880   7.890  10.904   8.066
 3328SOL    HW111881   7.839  10.961   8.125
 3328SOL    HW211882   7.980  10.912   8.097
 3329SOL     OW11883   0.691   6.158  13.492
 3329SOL    HW111884   0.784   6.161  13.514
 3329SOL    HW211885   0.686   6.196  13.404
 3330SOL     OW11886  11.780   9.139   8.164
 3330SOL    HW111887  11.735   9.168   8.244
 3330SOL    HW211888  11.815   9.219   8.126
 3331SOL     OW11889   0.210  13.101   9.931
 3331SOL    HW111890   0.251  13.168   9.877
 3331SOL    HW211891   0.223  13.130  10.021
 3332SOL     OW11892   4.130   0.075   9.970
 3332SOL    HW111893   4.097   0.140   9.909
 3332SOL    HW211894   4.171   0.009   9.915
 3333SOL     OW11895   8.122   1.665   8.232
 3333SOL    HW111896   8.166   1.636   8.312
 3333SOL    HW211897   8.177   1.736   8.199
 3334SOL     OW11898   0.174   9.808  13.085
 3334SOL    HW111899   0.226   9.728  13.079
 3334SOL    HW211900   0.238   9.878  13.100
 3335SOL     OW11901   7.162  10.086   7.678
 3335SOL    HW111902   7.238  10.140   7.702
 3335SOL    HW211903   7.177  10.003   7.723
 3336SOL     OW11904   8.644   8.321   0.561
 3336SOL    HW111905   8.672   8.320   0.470
 3336SOL    HW211906   8.612   8.232   0.577
 3337SOL     OW11907  12.567   2.809   8.190
 3337SOL    HW111908  12.579   2.858   8.109
 3337SOL    HW211909  12.472   2.795   8.196
 3338SOL     OW11910  11.386   3.796  10.693
 3338SOL    HW111911  11.440   3.798  10.771
 3338SOL    HW211912  11.354   3.705  10.689
 3339SOL     OW11913   5.526   6.956   9.837
 3339SOL    HW111914   5.485   6.887   9.890
 3339SOL    HW211915   5.504   7.037   9.883
 3340SOL     OW11916  11.763  10.148   2.322
 3340SOL    HW111917  11.668  10.142   2.337
 3340SOL    HW211918  11.795  10.060   2.343
 3341SOL     OW11919   0.819   9.722   7.979
 3341SOL    HW111920   0.888   9.703   8.043
 3341SOL    HW211921   0.756   9.775   8.028
 3342SOL     OW11922  13.146  14.385   6.115
 3342SOL    HW111923  13.054  14.391   6.091
 3342SOL    HW211924  13.170  14.475   6.139
 3343SOL     OW11925   5.379  12.082   9.525
 3343SOL    HW111926   5.446  12.035   9.575
 3343SOL    HW211927   5.381  12.042   9.439
 3344SOL     OW11928   1.206  10.472   8.471
 3344SOL    HW111929   1.241  10.403   8.414
 3344SOL    HW211930   1.284  10.514   8.508
 3345SOL     OW11931   9.601  12.185  12.351
 3345SOL    HW111932   9.529  12.172  12.412
 3345SOL    HW211933   9.566  12.163  12.265
 3346SOL     OW11934   6.985   5.115  11.884
 3346SOL    HW111935   6.901   5.098  11.927
 3346SOL    HW211936   7.047   5.129  11.956
 3347SOL     OW11937   6.372  12.303   7.792
 3347SOL    HW111938   6.328  12.388   7.781
 3347SOL    HW211939   6.440  12.320   7.857
 3348SOL     OW11940   4.775   9.570  13.220
 3348SOL    HW111941   4.759   9.528  13.136
 3348SOL    HW211942   4.687   9.594  13.252
 3349SOL     OW11943  14.844   1.486   5.744
 3349SOL    HW111944  14.855   1.546   5.818
 3349SOL    HW211945   0.030   1.411   5.766
 3350SOL     OW11946   3.605  13.161  11.940
 3350SOL    HW111947   3.542  13.169  11.867
 3350SOL    HW211948   3.553  13.182  12.018
 3351SOL     OW11949   0.796  13.958  11.572
 3351SOL    HW111950   0.843  14.041  11.576
 3351SOL    HW211951   0.705  13.980  11.589
 3352SOL     OW11952   1.443   3.853   3.494
 3352SOL    HW111953   1.396   3.911   3.433
 3352SOL    HW211954   1.533   3.884   3.491
 3353SOL     OW11955   0.246  11.236  11.994
 3353SOL    HW111956   0.293  11.269  11.918
 3353SOL    HW211957   0.295  11.158  12.021
 3354SOL     OW11958  13.180   0.894   8.060
 3354SOL    HW111959  13.151   0.836   8.131
 3354SOL    HW211960  13.216   0.970   8.106
 3355SOL     OW11961   5.774  13.223   4.811
 3355SOL    HW111962   5.697  13.223   4.754
 3355SOL    HW211963   5.823  13.144   4.786
 3356SOL     OW11964   7.951   3.086   3.229
 3356SOL    HW111965   7.958   3.008   3.174
 3356SOL    HW211966   7.940   3.051   3.318
 3357SOL     OW11967   2.007   6.979   1.553
 3357SOL    HW111968   1.930   7.036   1.562
 3357SOL    HW211969   2.035   6.963   1.644
 3358SOL     OW11970  11.579  12.073   1.150
 3358SOL    HW111971  11.510  12.062   1.216
 3358SOL    HW211972  11.534  12.113   1.075
 3359SOL     OW11973   5.023   1.851   8.545
 3359SOL    HW111974   5.099   1.795   8.529
 3359SOL    HW211975   4.953   1.811   8.492
 3360SOL     OW11976   7.385   9.741   8.097
 3360SOL    HW111977   7.421   9.829   8.085
 3360SOL    HW211978   7.380   9.729   8.192
 3361SOL     OW11979  10.132   8.153   5.536
 3361SOL    HW111980  10.056   8.111   5.495
 3361SOL    HW211981  10.186   8.081   5.566
 3362SOL     OW11982   9.136   1.451   0.099
 3362SOL    HW111983   9.207   1.404   0.056
 3362SOL    HW211984   9.089   1.494   0.028
 3363SOL     OW11985  13.193   7.129   5.941
 3363SOL    HW111986  13.199   7.035   5.955
 3363SOL    HW211987  13.280   7.163   5.963
 3364SOL     OW11988  10.569   8.290  14.731
 3364SOL    HW111989  10.608   8.269  14.816
 3364SOL    HW211990  10.613   8.231  14.670
 3365SOL     OW11991   0.475  13.065   1.820
 3365SOL    HW111992   0.555  13.102   1.782
 3365SOL    HW211993   0.495  12.972   1.830
 3366SOL     OW11994  12.909   1.012   5.407
 3366SOL    HW111995  12.948   0.978   5.488
 3366SOL    HW211996  12.815   0.997   5.418
 3367SOL     OW11997   7.891  14.416  10.645
 3367SOL    HW111998   7.924  14.326  10.645
 3367SOL    HW211999   7.959  14.466  10.689
 3368SOL     OW12000  10.151   9.937  11.736
 3368SOL    HW112001  10.135  10.027  11.764
 3368SOL    HW212002  10.244   9.922  11.756
 3369SOL     OW12003  11.066  11.129  14.856
 3369SOL    HW112004  10.976  11.102  14.838
 3369SOL    HW212005  11.062  11.224  14.861
 3370SOL     OW12006  11.240   2.433   2.193
 3370SOL    HW112007  11.221   2.413   2.102
 3370SOL    HW212008  11.258   2.347   2.233
 3371SOL     OW12009   5.627   8.909   3.854
 3371SOL    HW112010   5.620   8.999   3.824
 3371SOL    HW212011   5.714   8.880   3.823
 3372SOL     OW12012   2.959   4.001   2.267
 3372SOL    HW112013   2.887   3.941   2.249
 3372SOL    HW212014   2.987   4.032   2.180
 3373SOL     OW12015   0.236   5.506   4.532
 3373SOL    HW112016   0.206   5.416   4.545
 3373SOL    HW212017   0.331   5.499   4.527
 3374SOL     OW12018   6.950   6.368   7.336
 3374SOL    HW112019   6.898   6.448   7.347
 3374SOL    HW212020   6.933   6.341   7.245
 3375SOL     OW12021  10.028   1.603  13.864
 3375SOL    HW112022  10.030   1.527  13.922
 3375SOL    HW212023   9.948   1.650  13.888
 3376SOL     OW12024   4.048  12.664  12.058
 3376SOL    HW112025   3.993  12.620  11.994
 3376SOL    HW212026   4.093  12.733  12.008
 3377SOL     OW12027  11.683  10.327  10.770
 3377SOL    HW112028  11.741  10.400  10.749
 3377SOL    HW212029  11.666  10.337  10.864
 3378SOL     OW12030  14.530   0.560   1.965
 3378SOL    HW112031  14.487   0.525   2.043
 3378SOL    HW212032  14.492   0.647   1.954
 3379SOL     OW12033   7.613   0.099   0.825
 3379SOL    HW112034   7.596   0.059   0.740
 3379SOL    HW212035   7.668   0.175   0.804
 3380SOL     OW12036  14.254   4.318  11.233
 3380SOL    HW112037  14.165   4.298  11.205
 3380SOL    HW212038  14.309   4.258  11.183
 3381SOL     OW12039  12.535   9.499   9.098
 3381SOL    HW112040  12.480   9.443   9.153
 3381SOL    HW212041  12.483   9.578   9.085
 3382SOL     OW12042  11.217  11.233   4.074
 3382SOL    HW112043  11.225  11.228   4.169
 3382SOL    HW212044  11.123  11.233   4.057
 3383SOL     OW12045   4.980  11.399   9.507
 3383SOL    HW112046   4.936  11.372   9.427
 3383SOL    HW212047   4.977  11.495   9.506
 3384SOL     OW12048  13.986   2.934   7.047
 3384SOL    HW112049  13.964   2.877   6.973
 3384SOL    HW212050  13.984   2.877   7.123
 3385SOL     OW12051   1.829  12.108   8.354
 3385SOL    HW112052   1.871  12.023   8.352
 3385SOL    HW212053   1.750  12.095   8.405
 3386SOL     OW12054   0.210  14.225  12.412
 3386SOL    HW112055   0.133  14.269  12.449
 3386SOL    HW212056   0.177  14.181  12.334
 3387SOL     OW12057   1.129   7.632  12.628
 3387SOL    HW112058   1.222   7.638  12.650
 3387SOL    HW212059   1.095   7.720  12.642
 3388SOL     OW12060   8.761   1.290   0.711
 3388SOL    HW112061   8.850   1.324   0.717
 3388SOL    HW212062   8.751   1.235   0.789
 3389SOL     OW12063   0.692   0.444  13.998
 3389SOL    HW112064   0.776   0.402  13.982
 3389SOL    HW212065   0.635   0.374  14.031
 3390SOL     OW12066   1.263   2.214   2.624
 3390SOL    HW112067   1.265   2.256   2.539
 3390SOL    HW212068   1.345   2.165   2.629
 3391SOL     OW12069  11.913   5.466   9.959
 3391SOL    HW112070  11.971   5.516  10.016
 3391SOL    HW212071  11.848   5.429  10.018
 3392SOL     OW12072   9.468   3.933   6.976
 3392SOL    HW112073   9.410   3.960   6.904
 3392SOL    HW212074   9.431   3.850   7.007
 3393SOL     OW12075  11.244   6.858  12.032
 3393SOL    HW112076  11.241   6.849  12.127
 3393SOL    HW212077  11.154   6.880  12.007
 3394SOL     OW12078   1.634   4.300  14.685
 3394SOL    HW112079   1.572   4.293  14.757
 3394SOL    HW212080   1.708   4.246  14.712
 3395SOL     OW12081  13.087   1.448   2.367
 3395SOL    HW112082  13.068   1.505   2.292
 3395SOL    HW212083  13.155   1.494   2.416
 3396SOL     OW12084  12.581   2.688  13.926
 3396SOL    HW112085  12.500   2.739  13.929
 3396SOL    HW212086  12.626   2.709  14.007
 3397SOL     OW12087   9.385  10.413  11.855
 3397SOL    HW112088   9.300  10.451  11.874
 3397SOL    HW212089   9.415  10.460  11.777
 3398SOL     OW12090   7.551  11.745   0.955
 3398SOL    HW112091   7.502  11.796   1.020
 3398SOL    HW212092   7.609  11.810   0.914
 3399SOL     OW12093   2.270   2.616  12.120
 3399SOL    HW112094   2.184   2.598  12.082
 3399SOL    HW212095   2.266   2.574  12.206
 3400SOL     OW12096   5.724  11.842  14.598
 3400SOL    HW112097   5.741  11.915  14.537
 3400SOL    HW212098   5.630  11.849  14.617
 3401SOL     OW12099   7.052   2.250   0.911
 3401SOL    HW112100   6.963   2.280   0.893
 3401SOL    HW212101   7.095   2.325   0.952
 3402SOL     OW12102  11.551   6.605  10.616
 3402SOL    HW112103  11.598   6.686  10.638
 3402SOL    HW212104  11.460   6.633  10.606
 3403SOL     OW12105   9.644   3.913  11.703
 3403SOL    HW112106   9.616   3.823  11.689
 3403SOL    HW212107   9.737   3.913  11.683
 3404SOL     OW12108   1.165  14.685  12.150
 3404SOL    HW112109   1.211  14.641  12.221
 3404SOL    HW212110   1.227  14.751  12.118
 3405SOL     OW12111   8.860   4.756  10.675
 3405SOL    HW112112   8.939   4.726  10.631
 3405SOL    HW212113   8.892   4.808  10.748
 3406SOL     OW12114   0.391   2.698   4.676
 3406SOL    HW112115   0.466   2.718   4.621
 3406SOL    HW212116   0.421   2.719   4.765
 3407SOL     OW12117   1.677   3.383   5.094
 3407SOL    HW112118   1.631   3.450   5.144
 3407SOL    HW212119   1.767   3.386   5.126
 3408SOL     OW12120  14.482   6.850  11.152
 3408SOL    HW112121  14.445   6.936  11.136
 3408SOL    HW212122  14.560   6.866  11.204
 3409SOL     OW12123   2.984   9.824   7.042
 3409SOL    HW112124   3.036   9.842   6.963
 3409SOL    HW212125   3.006   9.896   7.102
 3410SOL     OW12126   3.473   2.396   5.943
 3410SOL    HW112127   3.470   2.469   6.006
 3410SOL    HW212128   3.435   2.322   5.991
 3411SOL     OW12129   4.070  13.140   9.592
 3411SOL    HW112130   4.017  13.105   9.521
 3411SOL    HW212131   4.155  13.098   9.582
 3412SOL     OW12132   3.348   3.448   8.539
 3412SOL    HW112133   3.366   3.406   8.623
 3412SOL    HW212134   3.305   3.530   8.561
 3413SOL     OW12135   0.967  11.855   9.660
 3413SOL    HW112136   1.017  11.931   9.689
 3413SOL    HW212137   0.922  11.884   9.581
 3414SOL     OW12138   8.270   4.326   9.368
 3414SOL    HW112139   8.279   4.414   9.330
 3414SOL    HW212140   8.267   4.340   9.462
 3415SOL     OW12141   2.673   8.337   8.583
 3415SOL    HW112142   2.613   8.397   8.629
 3415SOL    HW212143   2.757   8.351   8.626
 3416SOL     OW12144  13.811   7.130  12.795
 3416SOL    HW112145  13.869   7.093  12.861
 3416SOL    HW212146  13.827   7.077  12.717
 3417SOL     OW12147   1.615  14.197  11.304
 3417SOL    HW112148   1.592  14.106  11.322
 3417SOL    HW212149   1.563  14.247  11.366
 3418SOL     OW12150  12.125   5.114   5.078
 3418SOL    HW112151  12.140   5.130   5.171
 3418SOL    HW212152  12.161   5.027   5.062
 3419SOL     OW12153   3.461   2.325  12.519
 3419SOL    HW112154   3.528   2.256  12.526
 3419SOL    HW212155   3.401   2.293  12.453
 3420SOL     OW12156   9.545  12.509   1.481
 3420SOL    HW112157   9.599  12.529   1.404
 3420SOL    HW212158   9.565  12.418   1.501
 3421SOL     OW12159  14.525  11.448  13.499
 3421SOL    HW112160  14.534  11.502  13.420
 3421SOL    HW212161  14.432  11.424  13.500
 3422SOL     OW12162   4.804   7.200   9.914
 3422SOL    HW112163   4.860   7.276   9.929
 3422SOL    HW212164   4.721   7.238   9.885
 3423SOL     OW12165   0.568  13.862   2.243
 3423SOL    HW112166   0.584  13.903   2.159
 3423SOL    HW212167   0.581  13.768   2.228
 3424SOL     OW12168  14.106  13.760   1.944
 3424SOL    HW112169  14.038  13.778   2.009
 3424SOL    HW212170  14.086  13.673   1.910
 3425SOL     OW12171   1.554  14.019  10.843
 3425SOL    HW112172   1.582  14.101  10.884
 3425SOL    HW212173   1.596  14.020  10.757
 3426SOL     OW12174   8.591  13.513   1.109
 3426SOL    HW112175   8.644  13.510   1.029
 3426SOL    HW212176   8.646  13.560   1.172
 3427SOL     OW12177   3.587   2.012   4.337
 3427SOL    HW112178   3.635   1.976   4.411
 3427SOL    HW212179   3.654   2.031   4.271
 3428SOL     OW12180   3.712   0.695  14.170
 3428SOL    HW112181   3.751   0.610  14.150
 3428SOL    HW212182   3.779   0.741  14.220
 3429SOL     OW12183   8.976   7.358  13.142
 3429SOL    HW112184   9.031   7.392  13.072
 3429SOL    HW212185   9.038   7.331  13.210
 3430SOL     OW12186   9.323   4.707  13.798
 3430SOL    HW112187   9.331   4.633  13.858
 3430SOL    HW212188   9.400   4.761  13.816
 3431SOL     OW12189   0.680   1.332   5.553
 3431SOL    HW112190   0.759   1.384   5.538
 3431SOL    HW212191   0.712   1.252   5.595
 3432SOL     OW12192   0.482   6.694   6.247
 3432SOL    HW112193   0.560   6.638   6.249
 3432SOL    HW212194   0.512   6.779   6.279
 3433SOL     OW12195  13.585  13.899   3.157
 3433SOL    HW112196  13.540  13.823   3.121
 3433SOL    HW212197  13.595  13.879   3.250
 3434SOL     OW12198   7.981  12.300   9.818
 3434SOL    HW112199   7.914  12.350   9.772
 3434SOL    HW212200   7.998  12.352   9.897
 3435SOL     OW12201   7.431   8.706   3.433
 3435SOL    HW112202   7.452   8.797   3.411
 3435SOL    HW212203   7.444   8.701   3.528
 3436SOL     OW12204   2.482  11.671  12.178
 3436SOL    HW112205   2.388  11.658  12.185
 3436SOL    HW212206   2.492  11.761  12.148
 3437SOL     OW12207   8.658   9.070  14.590
 3437SOL    HW112208   8.725   9.103  14.649
 3437SOL    HW212209   8.600   9.019  14.646
 3438SOL     OW12210   0.352   5.221   9.428
 3438SOL    HW112211   0.291   5.170   9.482
 3438SOL    HW212212   0.297   5.257   9.358
 3439SOL     OW12213   4.645   4.594  11.333
 3439SOL    HW112214   4.579   4.529  11.357
 3439SOL    HW212215   4.727   4.559  11.369
 3440SOL     OW12216  14.369   2.208   5.735
 3440SOL    HW112217  14.325   2.127   5.709
 3440SOL    HW212218  14.308   2.250   5.796
 3441SOL     OW12219   7.089   7.666  13.375
 3441SOL    HW112220   6.994   7.665  13.384
 3441SOL    HW212221   7.121   7.704  13.457
 3442SOL     OW12222   5.836  14.312   0.542
 3442SOL    HW112223   5.882  14.352   0.616
 3442SOL    HW212224   5.888  14.337   0.465
 3443SOL     OW12225  11.265   3.986   8.125
 3443SOL    HW112226  11.287   3.988   8.218
 3443SOL    HW212227  11.347   4.006   8.081
 3444SOL     OW12228   3.134   8.920   2.835
 3444SOL    HW112229   3.063   8.893   2.893
 3444SOL    HW212230   3.091   8.957   2.759
 3445SOL     OW12231  13.342   0.182   3.146
 3445SOL    HW112232  13.349   0.100   3.097
 3445SOL    HW212233  13.290   0.239   3.090
 3446SOL     OW12234   3.883   7.580   6.981
 3446SOL    HW112235   3.963   7.534   6.954
 3446SOL    HW212236   3.914   7.666   7.012
 3447SOL     OW12237  10.076  11.366   2.259
 3447SOL    HW112238  10.050  11.373   2.351
 3447SOL    HW212239  10.019  11.298   2.223
 3448SOL     OW12240  12.593   4.458   4.564
 3448SOL    HW112241  12.625   4.409   4.640
 3448SOL    HW212242  12.568   4.390   4.501
 3449SOL     OW12243   0.393   8.662   5.364
 3449SOL    HW112244   0.415   8.755   5.364
 3449SOL    HW212245   0.397   8.637   5.271
 3450SOL     OW12246   4.450   5.240   7.125
 3450SOL    HW112247   4.495   5.226   7.041
 3450SOL    HW212248   4.470   5.161   7.176
 3451SOL     OW12249   0.489   0.648   8.228
 3451SOL    HW112250   0.584   0.641   8.235
 3451SOL    HW212251   0.471   0.742   8.220
 3452SOL     OW12252  13.729   6.492  13.490
 3452SOL    HW112253  13.679   6.487  13.408
 3452SOL    HW212254  13.799   6.428  13.479
 3453SOL     OW12255   3.779   4.496   8.607
 3453SOL    HW112256   3.701   4.443   8.592
 3453SOL    HW212257   3.768   4.531   8.695
 3454SOL     OW12258   4.424  11.801   7.503
 3454SOL    HW112259   4.350  11.770   7.452
 3454SOL    HW212260   4.389  11.814   7.592
 3455SOL     OW12261   1.954   7.766  10.982
 3455SOL    HW112262   1.977   7.796  11.070
 3455SOL    HW212263   1.860   7.751  10.986
 3456SOL     OW12264   6.529   6.004  14.705
 3456SOL    HW112265   6.435   6.011  14.691
 3456SOL    HW212266   6.557   6.093  14.728
 3457SOL     OW12267   4.794   5.748   1.737
 3457SOL    HW112268   4.810   5.730   1.829
 3457SOL    HW212269   4.873   5.718   1.692
 3458SOL     OW12270   4.679   8.541  13.753
 3458SOL    HW112271   4.726   8.508  13.676
 3458SOL    HW212272   4.741   8.534  13.825
 3459SOL     OW12273   1.495   5.929   4.605
 3459SOL    HW112274   1.493   6.014   4.649
 3459SOL    HW212275   1.437   5.874   4.658
 3460SOL     OW12276  12.940   2.046   1.005
 3460SOL    HW112277  12.869   2.053   0.942
 3460SOL    HW212278  12.935   2.127   1.057
 3461SOL     OW12279   7.681   6.176   5.999
 3461SOL    HW112280   7.673   6.156   5.905
 3461SOL    HW212281   7.602   6.226   6.019
 3462SOL     OW12282  13.155  13.378   0.560
 3462SOL    HW112283  13.131  13.465   0.590
 3462SOL    HW212284  13.075  13.342   0.522
 3463SOL     OW12285   1.997   5.427   3.109
 3463SOL    HW112286   1.993   5.389   3.197
 3463SOL    HW212287   2.048   5.507   3.119
 3464SOL     OW12288  10.568   7.573   2.033
 3464SOL    HW112289  10.640   7.524   2.074
 3464SOL    HW212290  10.527   7.620   2.105
 3465SOL     OW12291   2.628  14.486   2.410
 3465SOL    HW112292   2.656  14.566   2.456
 3465SOL    HW212293   2.701  14.425   2.422
 3466SOL     OW12294  13.667   2.622   1.835
 3466SOL    HW112295  13.579   2.601   1.866
 3466SOL    HW212296  13.691   2.548   1.779
 3467SOL     OW12297   7.623   0.686   6.005
 3467SOL    HW112298   7.700   0.672   5.951
 3467SOL    HW212299   7.585   0.599   6.017
 3468SOL     OW12300  10.964  14.458  14.359
 3468SOL    HW112301  10.907  14.530  14.331
 3468SOL    HW212302  10.934  14.383  14.308
 3469SOL     OW12303   3.751   5.827   8.382
 3469SOL    HW112304   3.675   5.848   8.328
 3469SOL    HW212305   3.811   5.901   8.368
 3470SOL     OW12306  10.372   8.268   0.844
 3470SOL    HW112307  10.359   8.359   0.872
 3470SOL    HW212308  10.354   8.216   0.922
 3471SOL     OW12309   6.455   6.857  12.086
 3471SOL    HW112310   6.468   6.911  12.007
 3471SOL    HW212311   6.360   6.848  12.093
 3472SOL     OW12312   1.685   2.433   1.900
 3472SOL    HW112313   1.598   2.457   1.933
 3472SOL    HW212314   1.672   2.347   1.861
 3473SOL     OW12315  12.949  11.561   1.426
 3473SOL    HW112316  13.023  11.611   1.391
 3473SOL    HW212317  12.880  11.625   1.438
 3474SOL     OW12318  12.224  13.145   4.246
 3474SOL    HW112319  12.295  13.093   4.282
 3474SOL    HW212320  12.268  13.218   4.202
 3475SOL     OW12321   8.405  10.501  11.153
 3475SOL    HW112322   8.402  10.406  11.151
 3475SOL    HW212323   8.409  10.528  11.061
 3476SOL     OW12324  14.817   4.320   9.672
 3476SOL    HW112325  14.743   4.361   9.717
 3476SOL    HW212326   0.002   4.286   9.743
 3477SOL     OW12327  13.803   4.866   1.803
 3477SOL    HW112328  13.893   4.843   1.779
 3477SOL    HW212329  13.757   4.875   1.719
 3478SOL     OW12330  10.904  12.917  10.520
 3478SOL    HW112331  10.878  12.965  10.599
 3478SOL    HW212332  10.872  12.828  10.536
 3479SOL     OW12333  13.080  14.245   2.550
 3479SOL    HW112334  13.097  14.158   2.515
 3479SOL    HW212335  13.166  14.278   2.575
 3480SOL     OW12336   9.439   9.138   0.227
 3480SOL    HW112337   9.494   9.087   0.285
 3480SOL    HW212338   9.480   9.225   0.225
 3481SOL     OW12339   3.114   1.495  11.383
 3481SOL    HW112340   3.125   1.501  11.288
 3481SOL    HW212341   3.113   1.586  11.412
 3482SOL     OW12342   6.796   5.523   8.176
 3482SOL    HW112343   6.706   5.493   8.162
 3482SOL    HW212344   6.809   5.594   8.113
 3483SOL     OW12345  12.119   7.289   6.369
 3483SOL    HW112346  12.182   7.256   6.305
 3483SOL    HW212347  12.075   7.361   6.325
 3484SOL     OW12348   2.756   5.315   9.835
 3484SOL    HW112349   2.775   5.372   9.910
 3484SOL    HW212350   2.838   5.313   9.785
 3485SOL     OW12351  13.684   3.806   2.311
 3485SOL    HW112352  13.749   3.744   2.343
 3485SOL    HW212353  13.602   3.757   2.309
 3486SOL     OW12354   6.663   0.501   9.875
 3486SOL    HW112355   6.602   0.496   9.948
 3486SOL    HW212356   6.748   0.476   9.913
 3487SOL     OW12357   8.078   4.458   9.108
 3487SOL    HW112358   8.133   4.474   9.184
 3487SOL    HW212359   8.042   4.544   9.086
 3488SOL     OW12360   1.079   7.570   8.909
 3488SOL    HW112361   1.012   7.510   8.875
 3488SOL    HW212362   1.111   7.527   8.988
 3489SOL     OW12363   8.181   8.346   2.936
 3489SOL    HW112364   8.095   8.350   2.977
 3489SOL    HW212365   8.222   8.268   2.974
 3490SOL     OW12366   8.961  10.573  10.740
 3490SOL    HW112367   9.021  10.628  10.690
 3490SOL    HW212368   8.885  10.562  10.682
 3491SOL     OW12369   8.224  12.266  13.962
 3491SOL    HW112370   8.172  12.346  13.965
 3491SOL    HW212371   8.286  12.274  14.034
 3492SOL     OW12372   2.381   0.885   0.460
 3492SOL    HW112373   2.353   0.829   0.533
 3492SOL    HW212374   2.468   0.915   0.484
 3493SOL     OW12375   4.774  13.498   1.298
 3493SOL    HW112376   4.804  13.432   1.235
 3493SOL    HW212377   4.820  13.578   1.274
 3494SOL     OW12378   0.140   3.517   7.015
 3494SOL    HW112379   0.076   3.454   6.982
 3494SOL    HW212380   0.111   3.537   7.104
 3495SOL     OW12381   6.569   1.367   6.078
 3495SOL    HW112382   6.578   1.398   6.169
 3495SOL    HW212383   6.573   1.272   6.085
 3496SOL     OW12384  10.210   0.189   8.292
 3496SOL    HW112385  10.187   0.098   8.309
 3496SOL    HW212386  10.147   0.240   8.343
 3497SOL     OW12387   9.552   1.103  11.391
 3497SOL    HW112388   9.615   1.142  11.451
 3497SOL    HW212389   9.546   1.166  11.318
 3498SOL     OW12390  11.700   8.710   0.148
 3498SOL    HW112391  11.632   8.776   0.133
 3498SOL    HW212392  11.748   8.743   0.223
 3499SOL     OW12393   9.659   6.792   1.148
 3499SOL    HW112394   9.750   6.767   1.134
 3499SOL    HW212395   9.615   6.770   1.066
 3500SOL     OW12396   9.713  14.107  12.493
 3500SOL    HW112397   9.694  14.028  12.544
 3500SOL    HW212398   9.803  14.129  12.514
 3501SOL     OW12399   9.010   8.570   3.158
 3501SOL    HW112400   9.068   8.575   3.082
 3501SOL    HW212401   9.058   8.614   3.228
 3502SOL     OW12402  11.992   4.491   5.633
 3502SOL    HW112403  11.896   4.494   5.634
 3502SOL    HW212404  12.014   4.463   5.545
 3503SOL     OW12405   3.044   1.252   1.529
 3503SOL    HW112406   3.104   1.321   1.500
 3503SOL    HW212407   3.056   1.181   1.466
 3504SOL     OW12408   8.829   9.536  12.383
 3504SOL    HW112409   8.789   9.474  12.323
 3504SOL    HW212410   8.923   9.526  12.370
 3505SOL     OW12411   0.056   7.329   9.309
 3505SOL    HW112412   0.080   7.354   9.219
 3505SOL    HW212413   0.129   7.276   9.340
 3506SOL     OW12414   4.169  11.031   7.547
 3506SOL    HW112415   4.213  10.962   7.497
 3506SOL    HW212416   4.182  11.007   7.638
 3507SOL     OW12417  10.424   3.959   4.579
 3507SOL    HW112418  10.338   3.942   4.541
 3507SOL    HW212419  10.473   4.001   4.509
 3508SOL     OW12420   0.904  11.428   6.186
 3508SOL    HW112421   0.840  11.357   6.187
 3508SOL    HW212422   0.934  11.435   6.277
 3509SOL     OW12423   3.507   1.511   1.303
 3509SOL    HW112424   3.508   1.418   1.327
 3509SOL    HW212425   3.494   1.557   1.386
 3510SOL     OW12426   7.495   9.085   9.258
 3510SOL    HW112427   7.525   9.173   9.232
 3510SOL    HW212428   7.421   9.067   9.201
 3511SOL     OW12429  12.095   2.686  12.711
 3511SOL    HW112430  12.114   2.673  12.618
 3511SOL    HW212431  12.010   2.645  12.724
 3512SOL     OW12432   0.444   4.164   4.967
 3512SOL    HW112433   0.531   4.186   4.936
 3512SOL    HW212434   0.395   4.246   4.963
 3513SOL     OW12435   0.616   1.053   2.357
 3513SOL    HW112436   0.641   0.960   2.359
 3513SOL    HW212437   0.673   1.092   2.292
 3514SOL     OW12438   7.799  12.101  11.688
 3514SOL    HW112439   7.745  12.159  11.635
 3514SOL    HW212440   7.809  12.022  11.635
 3515SOL     OW12441   7.781   0.769   8.263
 3515SOL    HW112442   7.780   0.797   8.172
 3515SOL    HW212443   7.690   0.780   8.293
 3516SOL     OW12444   5.119   3.615   0.704
 3516SOL    HW112445   5.190   3.551   0.703
 3516SOL    HW212446   5.073   3.602   0.621
 3517SOL     OW12447   0.294   2.224   6.458
 3517SOL    HW112448   0.252   2.301   6.419
 3517SOL    HW212449   0.371   2.210   6.403
 3518SOL     OW12450   1.060   8.631   1.865
 3518SOL    HW112451   1.139   8.680   1.845
 3518SOL    HW212452   1.052   8.568   1.794
 3519SOL     OW12453  10.708   5.342   4.369
 3519SOL    HW112454  10.698   5.389   4.286
 3519SOL    HW212455  10.665   5.398   4.434
 3520SOL     OW12456   6.999  13.732   1.063
 3520SOL    HW112457   7.087  13.762   1.043
 3520SOL    HW212458   6.979  13.668   0.994
 3521SOL     OW12459   3.724   3.586   4.236
 3521SOL    HW112460   3.781   3.636   4.178
 3521SOL    HW212461   3.781   3.559   4.308
 3522SOL     OW12462   8.441   1.045   7.526
 3522SOL    HW112463   8.376   1.005   7.469
 3522SOL    HW212464   8.410   1.135   7.539
 3523SOL     OW12465   9.065   2.354   3.838
 3523SOL    HW112466   9.072   2.347   3.933
 3523SOL    HW212467   8.972   2.339   3.820
 3524SOL     OW12468   7.284   0.528   3.554
 3524SOL    HW112469   7.354   0.561   3.610
 3524SOL    HW212470   7.327   0.466   3.495
 3525SOL     OW12471   8.749   5.310  14.275
 3525SOL    HW112472   8.657   5.293  14.254
 3525SOL    HW212473   8.747   5.352  14.361
 3526SOL     OW12474   7.693   0.611  14.416
 3526SOL    HW112475   7.783   0.624  14.386
 3526SOL    HW212476   7.699   0.612  14.511
 3527SOL     OW12477   8.709   2.627   4.504
 3527SOL    HW112478   8.733   2.718   4.524
 3527SOL    HW212479   8.722   2.619   4.409
 3528SOL     OW12480  12.881  11.499   4.390
 3528SOL    HW112481  12.960  11.481   4.339
 3528SOL    HW212482  12.908  11.489   4.481
 3529SOL     OW12483   9.961   4.196   7.780
 3529SOL    HW112484  10.035   4.224   7.835
 3529SOL    HW212485   9.930   4.116   7.821
 3530SOL     OW12486   4.143  10.167  12.676
 3530SOL    HW112487   4.193  10.088  12.656
 3530SOL    HW212488   4.054  10.136  12.692
 3531SOL     OW12489   7.942  13.273   1.802
 3531SOL    HW112490   7.941  13.296   1.895
 3531SOL    HW212491   7.923  13.356   1.757
 3532SOL     OW12492   6.864  10.322   1.472
 3532SOL    HW112493   6.909  10.374   1.538
 3532SOL    HW212494   6.771  10.333   1.492
 3533SOL     OW12495   7.082  12.515  11.895
 3533SOL    HW112496   7.120  12.517  11.982
 3533SOL    HW212497   7.057  12.605  11.877
 3534SOL     OW12498   2.218  12.795  13.666
 3534SOL    HW112499   2.267  12.863  13.619
 3534SOL    HW212500   2.148  12.843  13.710
 3535SOL     OW12501   2.712   2.768  13.066
 3535SOL    HW112502   2.669   2.818  13.135
 3535SOL    HW212503   2.731   2.833  12.998
 3536SOL     OW12504  12.928   9.615   4.486
 3536SOL    HW112505  12.996   9.619   4.419
 3536SOL    HW212506  12.975   9.627   4.568
 3537SOL     OW12507   0.528  12.433  10.785
 3537SOL    HW112508   0.621  12.423  10.806
 3537SOL    HW212509   0.483  12.379  10.850
 3538SOL     OW12510   7.553  12.461   1.382
 3538SOL    HW112511   7.519  12.474   1.471
 3538SOL    HW212512   7.575  12.549   1.352
 3539SOL     OW12513   1.472   8.110  13.409
 3539SOL    HW112514   1.534   8.038  13.422
 3539SOL    HW212515   1.443   8.133  13.497
 3540SOL     OW12516   4.364  13.832   5.943
 3540SOL    HW112517   4.407  13.785   6.014
 3540SOL    HW212518   4.433  13.843   5.877
 3541SOL     OW12519   8.171  12.769   4.166
 3541SOL    HW112520   8.112  12.702   4.200
 3541SOL    HW212521   8.256  12.748   4.204
 3542SOL     OW12522   3.836   3.417   0.532
 3542SOL    HW112523   3.869   3.467   0.459
 3542SOL    HW212524   3.790   3.481   0.587
 3543SOL     OW12525   9.441   7.227   0.399
 3543SOL    HW112526   9.507   7.281   0.356
 3543SOL    HW212527   9.427   7.269   0.484
 3544SOL     OW12528  13.105   8.886  11.020
 3544SOL    HW112529  13.139   8.975  11.023
 3544SOL    HW212530  13.017   8.892  11.058
 3545SOL     OW12531   7.675   6.802  14.467
 3545SOL    HW112532   7.750   6.826  14.413
 3545SOL    HW212533   7.613   6.874  14.453
 3546SOL     OW12534   7.270   5.142   5.683
 3546SOL    HW112535   7.206   5.084   5.724
 3546SOL    HW212536   7.293   5.099   5.601
 3547SOL     OW12537  12.880   5.909   9.110
 3547SOL    HW112538  12.946   5.938   9.049
 3547SOL    HW212539  12.805   5.885   9.055
 3548SOL     OW12540   0.699  13.878   3.296
 3548SOL    HW112541   0.699  13.805   3.234
 3548SOL    HW212542   0.662  13.951   3.246
 3549SOL     OW12543   4.647   0.365  13.970
 3549SOL    HW112544   4.673   0.437  14.027
 3549SOL    HW212545   4.707   0.372  13.895
 3550SOL     OW12546   5.503   7.369  10.099
 3550SOL    HW112547   5.543   7.420  10.170
 3550SOL    HW212548   5.478   7.435  10.034
 3551SOL     OW12549   5.382  11.320   9.458
 3551SOL    HW112550   5.452  11.378   9.428
 3551SOL    HW212551   5.307  11.341   9.401
 3552SOL     OW12552   5.425   2.380   6.217
 3552SOL    HW112553   5.481   2.341   6.284
 3552SOL    HW212554   5.339   2.388   6.259
 3553SOL     OW12555   1.165  13.883  11.504
 3553SOL    HW112556   1.082  13.837  11.489
 3553SOL    HW212557   1.140  13.959  11.557
 3554SOL     OW12558   4.213   6.559   5.255
 3554SOL    HW112559   4.224   6.522   5.168
 3554SOL    HW212560   4.272   6.634   5.258
 3555SOL     OW12561  11.211   7.482  11.503
 3555SOL    HW112562  11.192   7.570  11.534
 3555SOL    HW212563  11.300   7.486  11.470
 3556SOL     OW12564   6.851  10.989   4.938
 3556SOL    HW112565   6.798  11.001   4.859
 3556SOL    HW212566   6.788  10.983   5.009
 3557SOL     OW12567   4.093  12.160   5.770
 3557SOL    HW112568   4.053  12.128   5.689
 3557SOL    HW212569   4.146  12.087   5.801
 3558SOL     OW12570   2.597   9.529   2.583
 3558SOL    HW112571   2.530   9.477   2.628
 3558SOL    HW212572   2.680   9.500   2.622
 3559SOL     OW12573   2.660  10.611   3.278
 3559SOL    HW112574   2.647  10.699   3.243
 3559SOL    HW212575   2.577  10.590   3.322
 3560SOL     OW12576  13.470   3.070   8.474
 3560SOL    HW112577  13.396   3.061   8.414
 3560SOL    HW212578  13.493   2.980   8.497
 3561SOL     OW12579   3.340   0.642   3.998
 3561SOL    HW112580   3.405   0.577   3.973
 3561SOL    HW212581   3.298   0.667   3.916
 3562SOL     OW12582   5.759   3.629   1.336
 3562SOL    HW112583   5.831   3.663   1.282
 3562SOL    HW212584   5.791   3.640   1.426
 3563SOL     OW12585  14.774  14.660  11.373
 3563SOL    HW112586  14.686  14.658  11.336
 3563SOL    HW212587  14.779  14.744  11.418
 3564SOL     OW12588   1.068   8.232   6.746
 3564SOL    HW112589   0.980   8.217   6.780
 3564SOL    HW212590   1.090   8.151   6.700
 3565SOL     OW12591   9.671  13.483   6.049
 3565SOL    HW112592   9.625  13.403   6.023
 3565SOL    HW212593   9.610  13.528   6.108
 3566SOL     OW12594   8.226  14.789   9.529
 3566SOL    HW112595   8.316  14.778   9.560
 3566SOL    HW212596   8.220   0.013   9.507
 3567SOL     OW12597   3.937  10.684  13.995
 3567SOL    HW112598   3.855  10.664  14.039
 3567SOL    HW212599   3.992  10.607  14.011
 3568SOL     OW12600   3.753   5.392   7.128
 3568SOL    HW112601   3.784   5.455   7.193
 3568SOL    HW212602   3.664   5.372   7.155
 3569SOL     OW12603   7.585   5.253  12.021
 3569SOL    HW112604   7.577   5.192  11.948
 3569SOL    HW212605   7.679   5.257  12.039
 3570SOL     OW12606   6.205   0.146  10.534
 3570SOL    HW112607   6.275   0.195  10.490
 3570SOL    HW212608   6.142   0.126  10.464
 3571SOL     OW12609   1.084   0.944   8.192
 3571SOL    HW112610   1.022   0.879   8.159
 3571SOL    HW212611   1.077   1.018   8.131
 3572SOL     OW12612   6.268   4.152  10.943
 3572SOL    HW112613   6.353   4.194  10.931
 3572SOL    HW212614   6.269   4.122  11.034
 3573SOL     OW12615  12.074   7.027   1.472
 3573SOL    HW112616  12.111   6.993   1.390
 3573SOL    HW212617  12.123   7.108   1.489
 3574SOL     OW12618   9.993   8.432   4.959
 3574SOL    HW112619   9.994   8.468   5.047
 3574SOL    HW212620  10.069   8.373   4.956
 3575SOL     OW12621  13.174  10.756  11.936
 3575SOL    HW112622  13.179  10.831  11.995
 3575SOL    HW212623  13.188  10.680  11.993
 3576SOL     OW12624  10.933  10.122   1.128
 3576SOL    HW112625  10.954  10.077   1.046
 3576SOL    HW212626  10.847  10.161   1.113
 3577SOL     OW12627   6.998   4.420   3.851
 3577SOL    HW112628   6.914   4.438   3.894
 3577SOL    HW212629   6.975   4.409   3.758
 3578SOL     OW12630  12.184   1.016   9.092
 3578SOL    HW112631  12.276   1.031   9.115
 3578SOL    HW212632  12.144   0.984   9.173
 3579SOL     OW12633   7.309   5.677  13.385
 3579SOL    HW112634   7.389   5.726  13.401
 3579SOL    HW212635   7.275   5.712  13.302
 3580SOL     OW12636  14.858  14.829   7.231
 3580SOL    HW112637  14.803  14.825   7.309
 3580SOL    HW212638  14.796  14.838   7.159
 3581SOL     OW12639   1.979   5.737   0.480
 3581SOL    HW112640   1.893   5.719   0.440
 3581SOL    HW212641   2.040   5.682   0.431
 3582SOL     OW12642   8.832   7.180   0.889
 3582SOL    HW112643   8.879   7.255   0.926
 3582SOL    HW212644   8.744   7.213   0.873
 3583SOL     OW12645   1.340   0.211  12.750
 3583SOL    HW112646   1.272   0.157  12.710
 3583SOL    HW212647   1.412   0.150  12.768
 3584SOL     OW12648  10.813   2.832  12.776
 3584SOL    HW112649  10.778   2.865  12.693
 3584SOL    HW212650  10.796   2.738  12.773
 3585SOL     OW12651   5.273  14.317   7.498
 3585SOL    HW112652   5.258  14.248   7.434
 3585SOL    HW212653   5.325  14.275   7.566
 3586SOL     OW12654   2.987   3.601   2.330
 3586SOL    HW112655   2.970   3.511   2.357
 3586SOL    HW212656   3.083   3.606   2.323
 3587SOL     OW12657   4.544   3.804  11.754
 3587SOL    HW112658   4.521   3.769  11.840
 3587SOL    HW212659   4.638   3.792  11.747
 3588SOL     OW12660   5.088   9.805   5.034
 3588SOL    HW112661   5.102   9.896   5.060
 3588SOL    HW212662   4.996   9.788   5.054
 3589SOL     OW12663   0.205   9.161   8.669
 3589SOL    HW112664   0.162   9.156   8.584
 3589SOL    HW212665   0.269   9.231   8.660
 3590SOL     OW12666   2.191  11.082  14.050
 3590SOL    HW112667   2.214  11.017  13.983
 3590SOL    HW212668   2.263  11.145  14.047
 3591SOL     OW12669   5.831   5.071   1.932
 3591SOL    HW112670   5.862   5.029   2.012
 3591SOL    HW212671   5.784   5.003   1.885
 3592SOL     OW12672   1.944  14.454   8.674
 3592SOL    HW112673   1.892  14.504   8.736
 3592SOL    HW212674   1.943  14.364   8.707
 3593SOL     OW12675   5.743   5.720  10.007
 3593SOL    HW112676   5.752   5.796   9.949
 3593SOL    HW212677   5.808   5.658   9.974
 3594SOL     OW12678   8.806   6.581   8.202
 3594SOL    HW112679   8.788   6.669   8.235
 3594SOL    HW212680   8.743   6.569   8.131
 3595SOL     OW12681   6.759   5.417   9.717
 3595SOL    HW112682   6.845   5.408   9.677
 3595SOL    HW212683   6.755   5.507   9.747
 3596SOL     OW12684   8.884   8.424   1.498
 3596SOL    HW112685   8.850   8.512   1.480
 3596SOL    HW212686   8.807   8.368   1.494
 3597SOL     OW12687  11.336   2.090  10.164
 3597SOL    HW112688  11.416   2.141  10.152
 3597SOL    HW212689  11.334   2.070  10.258
 3598SOL     OW12690   5.530  12.326   4.394
 3598SOL    HW112691   5.490  12.284   4.470
 3598SOL    HW212692   5.569  12.407   4.429
 3599SOL     OW12693   7.100   3.710  13.083
 3599SOL    HW112694   7.037   3.664  13.028
 3599SOL    HW212695   7.116   3.651  13.156
 3600SOL     OW12696  14.637   3.105   7.573
 3600SOL    HW112697  14.574   3.049   7.528
 3600SOL    HW212698  14.614   3.099   7.665
 3601SOL     OW12699   8.889   4.347   9.756
 3601SOL    HW112700   8.809   4.399   9.742
 3601SOL    HW212701   8.856   4.262   9.787
 3602SOL     OW12702  14.439   0.543   8.955
 3602SOL    HW112703  14.386   0.619   8.977
 3602SOL    HW212704  14.380   0.468   8.964
 3603SOL     OW12705   1.840   4.884   7.577
 3603SOL    HW112706   1.875   4.877   7.489
 3603SOL    HW212707   1.870   4.805   7.622
 3604SOL     OW12708  13.004  12.392   3.975
 3604SOL    HW112709  13.050  12.426   4.053
 3604SOL    HW212710  13.007  12.297   3.985
 3605SOL     OW12711  11.127  11.146  11.886
 3605SOL    HW112712  11.119  11.199  11.807
 3605SOL    HW212713  11.211  11.170  11.923
 3606SOL     OW12714  13.833  11.756   8.314
 3606SOL    HW112715  13.868  11.723   8.397
 3606SOL    HW212716  13.779  11.684   8.280
 3607SOL     OW12717  12.764   8.600   7.759
 3607SOL    HW112718  12.766   8.614   7.664
 3607SOL    HW212719  12.717   8.676   7.794
 3608SOL     OW12720   1.070   1.125   8.944
 3608SOL    HW112721   1.012   1.055   8.913
 3608SOL    HW212722   1.108   1.090   9.025
 3609SOL     OW12723   4.824   4.815  11.181
 3609SOL    HW112724   4.768   4.744  11.149
 3609SOL    HW212725   4.765   4.871  11.231
 3610SOL     OW12726   1.211  14.853  11.772
 3610SOL    HW112727   1.230   0.049  11.838
 3610SOL    HW212728   1.130  14.812  11.801
 3611SOL     OW12729   5.531   8.561  14.745
 3611SOL    HW112730   5.519   8.536  14.653
 3611SOL    HW212731   5.505   8.654  14.748
 3612SOL     OW12732   5.588  11.810   8.442
 3612SOL    HW112733   5.517  11.810   8.379
 3612SOL    HW212734   5.633  11.894   8.428
 3613SOL     OW12735  14.284  10.501   6.534
 3613SOL    HW112736  14.265  10.521   6.442
 3613SOL    HW212737  14.379  10.502   6.539
 3614SOL     OW12738   0.743   2.996  14.091
 3614SOL    HW112739   0.731   2.930  14.023
 3614SOL    HW212740   0.780   3.071  14.045
 3615SOL     OW12741   7.561  13.034  13.219
 3615SOL    HW112742   7.611  12.981  13.280
 3615SOL    HW212743   7.624  13.061  13.152
 3616SOL     OW12744   7.867  10.601  11.882
 3616SOL    HW112745   7.803  10.655  11.835
 3616SOL    HW212746   7.934  10.581  11.816
 3617SOL     OW12747   0.625   6.233  11.212
 3617SOL    HW112748   0.555   6.238  11.278
 3617SOL    HW212749   0.589   6.279  11.136
 3618SOL     OW12750   8.884   9.963   7.174
 3618SOL    HW112751   8.862  10.056   7.170
 3618SOL    HW212752   8.864   9.930   7.087
 3619SOL     OW12753   3.460  13.417   9.541
 3619SOL    HW112754   3.438  13.471   9.465
 3619SOL    HW212755   3.552  13.435   9.557
 3620SOL     OW12756   2.577   3.017   4.242
 3620SOL    HW112757   2.494   3.064   4.243
 3620SOL    HW212758   2.637   3.076   4.196
 3621SOL     OW12759  10.984   0.489   7.402
 3621SOL    HW112760  10.930   0.568   7.393
 3621SOL    HW212761  10.965   0.458   7.491
 3622SOL     OW12762  10.374   8.947   7.117
 3622SOL    HW112763  10.311   8.955   7.046
 3622SOL    HW212764  10.322   8.951   7.197
 3623SOL     OW12765   9.793   0.616  13.108
 3623SOL    HW112766   9.709   0.574  13.128
 3623SOL    HW212767   9.810   0.594  13.017
 3624SOL     OW12768   8.928   3.131   1.786
 3624SOL    HW112769   8.855   3.078   1.817
 3624SOL    HW212770   8.933   3.204   1.848
 3625SOL     OW12771   4.446   2.822   2.053
 3625SOL    HW112772   4.387   2.789   2.120
 3625SOL    HW212773   4.530   2.779   2.072
 3626SOL     OW12774   8.626  11.061   6.207
 3626SOL    HW112775   8.695  10.996   6.195
 3626SOL    HW212776   8.586  11.070   6.121
 3627SOL     OW12777   6.511   6.270   0.300
 3627SOL    HW112778   6.418   6.281   0.279
 3627SOL    HW212779   6.534   6.347   0.352
 3628SOL     OW12780   4.748   4.858   5.128
 3628SOL    HW112781   4.708   4.892   5.048
 3628SOL    HW212782   4.783   4.773   5.103
 3629SOL     OW12783   2.116   0.332   7.924
 3629SOL    HW112784   2.111   0.427   7.912
 3629SOL    HW212785   2.205   0.316   7.957
 3630SOL     OW12786  11.906   3.276   9.193
 3630SOL    HW112787  11.936   3.185   9.186
 3630SOL    HW212788  11.812   3.268   9.213
 3631SOL     OW12789  12.515   3.220   9.451
 3631SOL    HW112790  12.493   3.303   9.494
 3631SOL    HW212791  12.475   3.153   9.505
 3632SOL     OW12792  11.447  12.896  14.093
 3632SOL    HW112793  11.441  12.802  14.111
 3632SOL    HW212794  11.536  12.909  14.061
 3633SOL     OW12795   7.568   3.578   2.912
 3633SOL    HW112796   7.554   3.672   2.906
 3633SOL    HW212797   7.481   3.542   2.930
 3634SOL     OW12798   2.700   4.934  10.857
 3634SOL    HW112799   2.682   4.841  10.845
 3634SOL    HW212800   2.640   4.978  10.795
 3635SOL     OW12801  12.411   0.914   5.545
 3635SOL    HW112802  12.401   0.827   5.583
 3635SOL    HW212803  12.338   0.965   5.581
 3636SOL     OW12804  11.115   7.904  13.533
 3636SOL    HW112805  11.179   7.972  13.514
 3636SOL    HW212806  11.076   7.930  13.617
 3637SOL     OW12807   6.312  10.740   9.543
 3637SOL    HW112808   6.257  10.783   9.477
 3637SOL    HW212809   6.395  10.724   9.499
 3638SOL     OW12810   2.886   2.048   3.518
 3638SOL    HW112811   2.868   1.963   3.478
 3638SOL    HW212812   2.832   2.110   3.469
 3639SOL     OW12813   6.035   6.974   2.796
 3639SOL    HW112814   6.067   7.058   2.828
 3639SOL    HW212815   6.092   6.909   2.836
 3640SOL     OW12816  12.952   7.522   7.890
 3640SOL    HW112817  12.870   7.472   7.899
 3640SOL    HW212818  12.967   7.526   7.796
 3641SOL     OW12819  12.056   0.757   5.252
 3641SOL    HW112820  11.976   0.775   5.301
 3641SOL    HW212821  12.093   0.844   5.233
 3642SOL     OW12822  14.328   5.259  13.675
 3642SOL    HW112823  14.374   5.273  13.758
 3642SOL    HW212824  14.253   5.319  13.678
 3643SOL     OW12825   1.954  11.446   6.062
 3643SOL    HW112826   2.013  11.489   6.000
 3643SOL    HW212827   2.007  11.436   6.141
 3644SOL     OW12828   8.346   9.765   6.185
 3644SOL    HW112829   8.387   9.679   6.184
 3644SOL    HW212830   8.397   9.817   6.123
 3645SOL     OW12831  12.696   1.858   5.330
 3645SOL    HW112832  12.731   1.896   5.410
 3645SOL    HW212833  12.664   1.772   5.356
 3646SOL     OW12834   4.470  13.145   6.212
 3646SOL    HW112835   4.393  13.200   6.198
 3646SOL    HW212836   4.448  13.061   6.172
 3647SOL     OW12837   0.833   5.397   5.751
 3647SOL    HW112838   0.864   5.487   5.761
 3647SOL    HW212839   0.817   5.387   5.657
 3648SOL     OW12840   1.417   2.428   5.710
 3648SOL    HW112841   1.367   2.507   5.729
 3648SOL    HW212842   1.501   2.460   5.676
 3649SOL     OW12843   4.444  12.356   9.131
 3649SOL    HW112844   4.520  12.354   9.073
 3649SOL    HW212845   4.375  12.396   9.078
 3650SOL     OW12846   2.925  12.746   5.889
 3650SOL    HW112847   2.971  12.740   5.805
 3650SOL    HW212848   2.908  12.840   5.900
 3651SOL     OW12849   7.337   3.058   1.744
 3651SOL    HW112850   7.368   2.991   1.683
 3651SOL    HW212851   7.388   3.043   1.824
 3652SOL     OW12852   9.623   5.364   4.787
 3652SOL    HW112853   9.584   5.285   4.825
 3652SOL    HW212854   9.704   5.378   4.837
 3653SOL     OW12855  10.468  10.439   8.214
 3653SOL    HW112856  10.525  10.363   8.221
 3653SOL    HW212857  10.413  10.436   8.292
 3654SOL     OW12858   1.376   7.126   0.835
 3654SOL    HW112859   1.378   7.167   0.922
 3654SOL    HW212860   1.343   7.037   0.852
 3655SOL     OW12861   8.424   9.623   9.544
 3655SOL    HW112862   8.340   9.667   9.557
 3655SOL    HW212863   8.462   9.666   9.467
 3656SOL     OW12864   6.558   8.513   8.397
 3656SOL    HW112865   6.501   8.589   8.411
 3656SOL    HW212866   6.611   8.537   8.321
 3657SOL     OW12867   8.572   4.131  11.214
 3657SOL    HW112868   8.519   4.053  11.233
 3657SOL    HW212869   8.524   4.203  11.255
 3658SOL     OW12870   6.416  12.190  14.273
 3658SOL    HW112871   6.478  12.260  14.295
 3658SOL    HW212872   6.343  12.236  14.231
 3659SOL     OW12873  14.839  14.101   7.799
 3659SOL    HW112874  14.784  14.157   7.744
 3659SOL    HW212875  14.845  14.018   7.751
 3660SOL     OW12876  14.236   9.316   5.083
 3660SOL    HW112877  14.246   9.263   5.004
 3660SOL    HW212878  14.323   9.355   5.096
 3661SOL     OW12879  11.667   4.251  11.403
 3661SOL    HW112880  11.603   4.180  11.410
 3661SOL    HW212881  11.631   4.310  11.337
 3662SOL     OW12882  13.338   1.264   3.920
 3662SOL    HW112883  13.408   1.237   3.860
 3662SOL    HW212884  13.267   1.201   3.904
 3663SOL     OW12885  12.083   9.706   9.119
 3663SOL    HW112886  12.079   9.625   9.067
 3663SOL    HW212887  12.031   9.769   9.069
 3664SOL     OW12888   5.702  11.317   3.121
 3664SOL    HW112889   5.734  11.393   3.169
 3664SOL    HW212890   5.626  11.288   3.172
 3665SOL     OW12891   6.862  11.439   3.246
 3665SOL    HW112892   6.819  11.432   3.162
 3665SOL    HW212893   6.797  11.411   3.310
 3666SOL     OW12894   1.162   5.161   6.874
 3666SOL    HW112895   1.133   5.145   6.964
 3666SOL    HW212896   1.228   5.094   6.858
 3667SOL     OW12897   8.221   1.868  14.103
 3667SOL    HW112898   8.208   1.902  14.192
 3667SOL    HW212899   8.314   1.886  14.085
 3668SOL     OW12900  12.299  12.066   5.527
 3668SOL    HW112901  12.291  12.008   5.451
 3668SOL    HW212902  12.356  12.018   5.587
 3669SOL     OW12903   8.385   3.522   7.685
 3669SOL    HW112904   8.390   3.560   7.597
 3669SOL    HW212905   8.447   3.449   7.683
 3670SOL     OW12906  13.021   4.769   2.386
 3670SOL    HW112907  12.993   4.767   2.295
 3670SOL    HW212908  12.969   4.701   2.429
 3671SOL     OW12909  11.586   5.701   4.992
 3671SOL    HW112910  11.502   5.727   4.956
 3671SOL    HW212911  11.595   5.609   4.970
 3672SOL     OW12912  10.331   3.908  10.933
 3672SOL    HW112913  10.293   3.880  10.849
 3672SOL    HW212914  10.358   3.999  10.918
 3673SOL     OW12915   4.931   0.655   6.326
 3673SOL    HW112916   5.023   0.674   6.342
 3673SOL    HW212917   4.889   0.741   6.320
 3674SOL     OW12918   0.876   2.275  10.138
 3674SOL    HW112919   0.944   2.235  10.084
 3674SOL    HW212920   0.797   2.269  10.084
 3675SOL     OW12921   6.254   1.616   2.412
 3675SOL    HW112922   6.306   1.688   2.375
 3675SOL    HW212923   6.318   1.555   2.447
 3676SOL     OW12924   0.666  14.658   4.252
 3676SOL    HW112925   0.664  14.618   4.339
 3676SOL    HW212926   0.574  14.661   4.224
 3677SOL     OW12927   7.333   5.612   2.225
 3677SOL    HW112928   7.289   5.536   2.188
 3677SOL    HW212929   7.297   5.686   2.177
 3678SOL     OW12930   9.959  10.722   4.362
 3678SOL    HW112931   9.930  10.800   4.315
 3678SOL    HW212932   9.979  10.658   4.294
 3679SOL     OW12933   5.807   7.283   0.233
 3679SOL    HW112934   5.865   7.226   0.284
 3679SOL    HW212935   5.730   7.293   0.289
 3680SOL     OW12936   3.846  12.212   8.906
 3680SOL    HW112937   3.941  12.203   8.899
 3680SOL    HW212938   3.833  12.260   8.987
 3681SOL     OW12939   0.298  14.463   3.100
 3681SOL    HW112940   0.347  14.419   3.169
 3681SOL    HW212941   0.245  14.528   3.146
 3682SOL     OW12942   0.480   9.764   7.894
 3682SOL    HW112943   0.396   9.721   7.881
 3682SOL    HW212944   0.493   9.817   7.816
 3683SOL     OW12945   9.327   3.950   4.349
 3683SOL    HW112946   9.233   3.958   4.361
 3683SOL    HW212947   9.339   3.863   4.311
 3684SOL     OW12948   4.755  12.557   7.341
 3684SOL    HW112949   4.674  12.528   7.298
 3684SOL    HW212950   4.815  12.484   7.331
 3685SOL     OW12951   8.359   0.769   6.932
 3685SOL    HW112952   8.266   0.786   6.952
 3685SOL    HW212953   8.357   0.689   6.880
 3686SOL     OW12954   2.198   9.860  13.669
 3686SOL    HW112955   2.173   9.952  13.679
 3686SOL    HW212956   2.116   9.812  13.676
 3687SOL     OW12957  13.122  10.631   1.128
 3687SOL    HW112958  13.178  10.608   1.054
 3687SOL    HW212959  13.036  10.595   1.106
 3688SOL     OW12960   8.838   6.219   1.481
 3688SOL    HW112961   8.928   6.238   1.453
 3688SOL    HW212962   8.790   6.202   1.400
 3689SOL     OW12963   4.905   6.597   0.530
 3689SOL    HW112964   4.814   6.587   0.502
 3689SOL    HW212965   4.956   6.562   0.456
 3690SOL     OW12966   5.093  11.971  13.634
 3690SOL    HW112967   5.073  12.044  13.693
 3690SOL    HW212968   5.062  11.894  13.682
 3691SOL     OW12969   5.086   1.119   1.928
 3691SOL    HW112970   5.171   1.122   1.885
 3691SOL    HW212971   5.030   1.174   1.873
 3692SOL     OW12972   0.385   7.673   0.303
 3692SOL    HW112973   0.428   7.726   0.236
 3692SOL    HW212974   0.357   7.736   0.369
 3693SOL     OW12975   8.181   5.406  14.723
 3693SOL    HW112976   8.273   5.406  14.696
 3693SOL    HW212977   8.160   5.313  14.732
 3694SOL     OW12978   1.590   8.458   4.273
 3694SOL    HW112979   1.599   8.547   4.240
 3694SOL    HW212980   1.532   8.466   4.349
 3695SOL     OW12981   5.331   0.183   3.664
 3695SOL    HW112982   5.271   0.229   3.723
 3695SOL    HW212983   5.284   0.178   3.581
 3696SOL     OW12984  11.320   2.405   0.650
 3696SOL    HW112985  11.402   2.389   0.603
 3696SOL    HW212986  11.270   2.463   0.593
 3697SOL     OW12987  12.154   3.666   4.001
 3697SOL    HW112988  12.114   3.722   3.935
 3697SOL    HW212989  12.115   3.580   3.986
 3698SOL     OW12990  13.523   1.764   2.352
 3698SOL    HW112991  13.466   1.714   2.410
 3698SOL    HW212992  13.607   1.768   2.398
 3699SOL     OW12993   2.219  13.618   3.141
 3699SOL    HW112994   2.170  13.563   3.080
 3699SOL    HW212995   2.152  13.658   3.196
 3700SOL     OW12996  11.237   4.496   4.152
 3700SOL    HW112997  11.215   4.580   4.113
 3700SOL    HW212998  11.199   4.499   4.240
 3701SOL     OW12999   6.087  14.374  12.609
 3701SOL    HW113000   6.172  14.359  12.568
 3701SOL    HW213001   6.108  14.404  12.698
 3702SOL     OW13002   5.317   3.531   6.511
 3702SOL    HW113003   5.224   3.530   6.533
 3702SOL    HW213004   5.341   3.439   6.500
 3703SOL     OW13005  11.203   2.822   2.954
 3703SOL    HW113006  11.200   2.868   3.038
 3703SOL    HW213007  11.120   2.776   2.948
 3704SOL     OW13008   3.783  14.141   3.479
 3704SOL    HW113009   3.863  14.138   3.531
 3704SOL    HW213010   3.713  14.152   3.542
 3705SOL     OW13011  10.811  13.129  10.173
 3705SOL    HW113012  10.861  13.209  10.157
 3705SOL    HW213013  10.779  13.102  10.087
 3706SOL     OW13014   2.195  10.844   4.174
 3706SOL    HW113015   2.130  10.882   4.114
 3706SOL    HW213016   2.169  10.753   4.183
 3707SOL     OW13017  14.467   8.128   7.308
 3707SOL    HW113018  14.512   8.066   7.366
 3707SOL    HW213019  14.391   8.158   7.359
 3708SOL     OW13020  11.706   6.780   4.449
 3708SOL    HW113021  11.669   6.788   4.537
 3708SOL    HW213022  11.662   6.704   4.411
 3709SOL     OW13023  10.724   7.712   0.891
 3709SOL    HW113024  10.756   7.641   0.946
 3709SOL    HW213025  10.751   7.687   0.802
 3710SOL     OW13026  13.651   1.940   3.177
 3710SOL    HW113027  13.654   1.858   3.126
 3710SOL    HW213028  13.691   1.916   3.261
 3711SOL     OW13029  13.614  11.690   1.722
 3711SOL    HW113030  13.649  11.780   1.722
 3711SOL    HW213031  13.546  11.692   1.790
 3712SOL     OW13032   3.748   2.871   6.486
 3712SOL    HW113033   3.841   2.895   6.483
 3712SOL    HW213034   3.708   2.919   6.413
 3713SOL     OW13035   8.363  13.645   4.728
 3713SOL    HW113036   8.353  13.575   4.663
 3713SOL    HW213037   8.276  13.681   4.739
 3714SOL     OW13038  12.338   2.329   8.185
 3714SOL    HW113039  12.312   2.414   8.219
 3714SOL    HW213040  12.432   2.336   8.169
 3715SOL     OW13041  14.137  11.157   1.540
 3715SOL    HW113042  14.156  11.134   1.631
 3715SOL    HW213043  14.220  11.144   1.494
 3716SOL     OW13044  14.657   4.318   6.261
 3716SOL    HW113045  14.621   4.311   6.349
 3716SOL    HW213046  14.737   4.265   6.263
 3717SOL     OW13047   7.554  13.834   6.263
 3717SOL    HW113048   7.567  13.929   6.259
 3717SOL    HW213049   7.548  13.807   6.171
 3718SOL     OW13050  14.309  14.324   2.867
 3718SOL    HW113051  14.224  14.367   2.855
 3718SOL    HW213052  14.296  14.235   2.834
 3719SOL     OW13053  10.496   5.260  11.602
 3719SOL    HW113054  10.533   5.348  11.599
 3719SOL    HW213055  10.571   5.202  11.600
 3720SOL     OW13056   9.310   2.845   1.588
 3720SOL    HW113057   9.275   2.919   1.540
 3720SOL    HW213058   9.398   2.872   1.614
 3721SOL     OW13059   7.494   2.363   3.622
 3721SOL    HW113060   7.430   2.317   3.676
 3721SOL    HW213061   7.552   2.295   3.590
 3722SOL     OW13062   5.611  14.182   6.942
 3722SOL    HW113063   5.706  14.175   6.950
 3722SOL    HW213064   5.592  14.274   6.957
 3723SOL     OW13065   5.965   4.691  11.693
 3723SOL    HW113066   5.893   4.661  11.749
 3723SOL    HW213067   6.000   4.611  11.654
 3724SOL     OW13068   7.537  12.138   2.943
 3724SOL    HW113069   7.549  12.060   2.889
 3724SOL    HW213070   7.523  12.208   2.879
 3725SOL     OW13071   4.282  13.831   3.870
 3725SOL    HW113072   4.279  13.779   3.790
 3725SOL    HW213073   4.363  13.806   3.913
 3726SOL     OW13074   7.671   7.439  10.994
 3726SOL    HW113075   7.761   7.425  10.963
 3726SOL    HW213076   7.662   7.379  11.069
 3727SOL     OW13077   2.623  14.728   2.579
 3727SOL    HW113078   2.582  14.782   2.510
 3727SOL    HW213079   2.562  14.733   2.652
 3728SOL     OW13080  11.921  10.903  11.234
 3728SOL    HW113081  12.012  10.874  11.233
 3728SOL    HW213082  11.907  10.940  11.147
 3729SOL     OW13083   3.772  11.426   6.640
 3729SOL    HW113084   3.730  11.508   6.614
 3729SOL    HW213085   3.700  11.370   6.668
 3730SOL     OW13086  13.603  10.746   4.954
 3730SOL    HW113087  13.632  10.832   4.985
 3730SOL    HW213088  13.596  10.693   5.033
 3731SOL     OW13089  13.758   7.442   0.451
 3731SOL    HW113090  13.815   7.505   0.494
 3731SOL    HW213091  13.815   7.397   0.388
 3732SOL     OW13092  11.563   2.291   5.187
 3732SOL    HW113093  11.535   2.347   5.114
 3732SOL    HW213094  11.593   2.210   5.145
 3733SOL     OW13095   1.586   8.706  14.162
 3733SOL    HW113096   1.620   8.617  14.177
 3733SOL    HW213097   1.495   8.702  14.190
 3734SOL     OW13098  13.945   6.901   9.041
 3734SOL    HW113099  13.933   6.874   8.950
 3734SOL    HW213100  13.858   6.894   9.080
 3735SOL     OW13101   5.520  13.753   1.547
 3735SOL    HW113102   5.556  13.804   1.474
 3735SOL    HW213103   5.565  13.669   1.543
 3736SOL     OW13104   9.447  11.433   3.264
 3736SOL    HW113105   9.389  11.509   3.262
 3736SOL    HW213106   9.460  11.415   3.357
 3737SOL     OW13107   8.455   3.230  12.560
 3737SOL    HW113108   8.549   3.213  12.563
 3737SOL    HW213109   8.446   3.307  12.505
 3738SOL     OW13110  13.625   8.486  11.107
 3738SOL    HW113111  13.665   8.420  11.164
 3738SOL    HW213112  13.532   8.468  11.111
 3739SOL     OW13113   9.443   0.912   8.781
 3739SOL    HW113114   9.358   0.870   8.769
 3739SOL    HW213115   9.422   1.002   8.808
 3740SOL     OW13116   2.938   4.076  11.745
 3740SOL    HW113117   2.903   4.015  11.680
 3740SOL    HW213118   2.862   4.114  11.787
 3741SOL     OW13119   7.942  12.299   3.061
 3741SOL    HW113120   8.002  12.366   3.029
 3741SOL    HW213121   7.984  12.216   3.040
 3742SOL     OW13122   3.930   5.644   9.699
 3742SOL    HW113123   4.013   5.669   9.739
 3742SOL    HW213124   3.950   5.637   9.605
 3743SOL     OW13125   6.896  14.738  11.349
 3743SOL    HW113126   6.825  14.743  11.413
 3743SOL    HW213127   6.890  14.820  11.300
 3744SOL     OW13128   6.785   1.437  11.139
 3744SOL    HW113129   6.698   1.401  11.122
 3744SOL    HW213130   6.790   1.443  11.235
 3745SOL     OW13131   7.695   2.933  11.649
 3745SOL    HW113132   7.750   2.989  11.704
 3745SOL    HW213133   7.756   2.881  11.599
 3746SOL     OW13134  11.044  10.106   6.552
 3746SOL    HW113135  10.957  10.068   6.543
 3746SOL    HW213136  11.080  10.103   6.463
 3747SOL     OW13137  11.568   1.641   2.152
 3747SOL    HW113138  11.662   1.648   2.138
 3747SOL    HW213139  11.557   1.653   2.246
 3748SOL     OW13140   0.764   9.377   5.350
 3748SOL    HW113141   0.687   9.390   5.405
 3748SOL    HW213142   0.834   9.424   5.394
 3749SOL     OW13143   2.365  13.880   4.352
 3749SOL    HW113144   2.290  13.827   4.325
 3749SOL    HW213145   2.419  13.821   4.404
 3750SOL     OW13146   3.829   8.154  11.345
 3750SOL    HW113147   3.741   8.182  11.321
 3750SOL    HW213148   3.871   8.232  11.380
 3751SOL     OW13149   7.283   3.328   9.348
 3751SOL    HW113150   7.336   3.407   9.354
 3751SOL    HW213151   7.207   3.346   9.405
 3752SOL     OW13152   2.542   7.768   0.002
 3752SOL    HW113153   2.619   7.726   0.041
 3752SOL    HW213154   2.555   7.758  14.777
 3753SOL     OW13155  10.275  10.854   9.814
 3753SOL    HW113156  10.356  10.887   9.853
 3753SOL    HW213157  10.209  10.919   9.838
 3754SOL     OW13158   8.657   6.244   6.804
 3754SOL    HW113159   8.610   6.161   6.797
 3754SOL    HW213160   8.731   6.234   6.744
 3755SOL     OW13161   3.894   5.438   4.495
 3755SOL    HW113162   3.985   5.426   4.465
 3755SOL    HW213163   3.860   5.508   4.439
 3756SOL     OW13164   2.969   0.272  13.902
 3756SOL    HW113165   2.916   0.308  13.831
 3756SOL    HW213166   2.918   0.291  13.981
 3757SOL     OW13167   8.470  11.667   1.296
 3757SOL    HW113168   8.424  11.751   1.306
 3757SOL    HW213169   8.440  11.614   1.369
 3758SOL     OW13170  11.635   6.022   8.430
 3758SOL    HW113171  11.669   6.021   8.520
 3758SOL    HW213172  11.638   6.115   8.405
 3759SOL     OW13173  11.045   5.908   3.083
 3759SOL    HW113174  11.072   5.834   3.030
 3759SOL    HW213175  11.111   5.975   3.067
 3760SOL     OW13176   2.748   8.179   3.705
 3760SOL    HW113177   2.689   8.165   3.779
 3760SOL    HW213178   2.692   8.177   3.628
 3761SOL     OW13179   5.947   3.937   3.301
 3761SOL    HW113180   5.861   3.968   3.330
 3761SOL    HW213181   6.000   4.017   3.295
 3762SOL     OW13182   5.675   5.826   5.450
 3762SOL    HW113183   5.677   5.730   5.453
 3762SOL    HW213184   5.699   5.847   5.359
 3763SOL     OW13185  13.959  10.869   6.769
 3763SOL    HW113186  14.029  10.806   6.750
 3763SOL    HW213187  13.994  10.954   6.740
 3764SOL     OW13188  12.896   2.500   5.902
 3764SOL    HW113189  12.951   2.435   5.947
 3764SOL    HW213190  12.808   2.486   5.939
 3765SOL     OW13191  14.427   0.033   7.863
 3765SOL    HW113192  14.371   0.110   7.852
 3765SOL    HW213193  14.516   0.067   7.854
 3766SOL     OW13194   9.047   6.826   3.683
 3766SOL    HW113195   8.975   6.765   3.701
 3766SOL    HW213196   9.033   6.853   3.592
 3767SOL     OW13197   5.555   9.814  14.004
 3767SOL    HW113198   5.555   9.841  14.095
 3767SOL    HW213199   5.610   9.736  14.002
 3768SOL     OW13200   9.912   8.541   0.637
 3768SOL    HW113201   9.929   8.448   0.620
 3768SOL    HW213202   9.854   8.567   0.565
 3769SOL     OW13203   2.671  14.457   7.952
 3769SOL    HW113204   2.649  14.462   8.045
 3769SOL    HW213205   2.641  14.541   7.916
 3770SOL     OW13206   7.996   8.979  14.299
 3770SOL    HW113207   7.951   8.946  14.221
 3770SOL    HW213208   7.961   8.926  14.371
 3771SOL     OW13209  10.093  13.183   7.519
 3771SOL    HW113210  10.057  13.264   7.554
 3771SOL    HW213211  10.017  13.133   7.489
 3772SOL     OW13212  10.565   2.421   5.556
 3772SOL    HW113213  10.548   2.510   5.523
 3772SOL    HW213214  10.501   2.409   5.625
 3773SOL     OW13215   3.689  14.260   1.679
 3773SOL    HW113216   3.762  14.218   1.726
 3773SOL    HW213217   3.610  14.224   1.721
 3774SOL     OW13218  11.630   8.631   5.822
 3774SOL    HW113219  11.700   8.695   5.838
 3774SOL    HW213220  11.638   8.567   5.892
 3775SOL     OW13221   6.084   4.188   6.522
 3775SOL    HW113222   6.152   4.178   6.456
 3775SOL    HW213223   6.118   4.140   6.598
 3776SOL     OW13224   4.656  13.279   4.058
 3776SOL    HW113225   4.722  13.302   4.123
 3776SOL    HW213226   4.596  13.354   4.058
 3777SOL     OW13227   8.037  12.780  12.753
 3777SOL    HW113228   8.105  12.788  12.820
 3777SOL    HW213229   8.084  12.790  12.670
 3778SOL     OW13230   3.588   0.070   3.939
 3778SOL    HW113231   3.559   0.117   4.017
 3778SOL    HW213232   3.506   0.052   3.891
 3779SOL     OW13233   9.692  11.507  10.113
 3779SOL    HW113234   9.609  11.484  10.155
 3779SOL    HW213235   9.750  11.530  10.186
 3780SOL     OW13236   0.798  13.450   4.632
 3780SOL    HW113237   0.727  13.471   4.570
 3780SOL    HW213238   0.859  13.397   4.580
 3781SOL     OW13239   7.597  13.552   1.765
 3781SOL    HW113240   7.564  13.636   1.733
 3781SOL    HW213241   7.652  13.519   1.695
 3782SOL     OW13242   9.783  12.378   3.921
 3782SOL    HW113243   9.879  12.370   3.916
 3782SOL    HW213244   9.764  12.463   3.883
 3783SOL     OW13245   1.049   6.737   6.511
 3783SOL    HW113246   1.024   6.700   6.595
 3783SOL    HW213247   1.123   6.794   6.530
 3784SOL     OW13248   7.110   6.351   7.568
 3784SOL    HW113249   7.166   6.425   7.543
 3784SOL    HW213250   7.062   6.329   7.488
 3785SOL     OW13251   6.873   1.780   8.783
 3785SOL    HW113252   6.907   1.785   8.873
 3785SOL    HW213253   6.778   1.782   8.793
 3786SOL     OW13254  10.158   3.379   8.669
 3786SOL    HW113255  10.168   3.405   8.761
 3786SOL    HW213256  10.177   3.285   8.669
 3787SOL     OW13257   4.101   8.393  14.321
 3787SOL    HW113258   4.167   8.407  14.389
 3787SOL    HW213259   4.150   8.358  14.246
 3788SOL     OW13260   5.738   4.167  10.294
 3788SOL    HW113261   5.653   4.206  10.315
 3788SOL    HW213262   5.737   4.083  10.340
 3789SOL     OW13263   5.224   6.270  10.188
 3789SOL    HW113264   5.212   6.209  10.261
 3789SOL    HW213265   5.318   6.287  10.186
 3790SOL     OW13266   2.348  13.968  14.683
 3790SOL    HW113267   2.304  13.908  14.742
 3790SOL    HW213268   2.285  14.038  14.668
 3791SOL     OW13269   2.384  10.980  10.555
 3791SOL    HW113270   2.475  10.950  10.546
 3791SOL    HW213271   2.383  11.030  10.636
 3792SOL     OW13272  11.096   4.643  12.555
 3792SOL    HW113273  11.166   4.697  12.519
 3792SOL    HW213274  11.045   4.616  12.478
 3793SOL     OW13275   6.273  11.464   3.437
 3793SOL    HW113276   6.355  11.489   3.480
 3793SOL    HW213277   6.205  11.513   3.485
 3794SOL     OW13278   1.942   6.160   6.663
 3794SOL    HW113279   1.939   6.067   6.641
 3794SOL    HW213280   2.024   6.172   6.710
 3795SOL     OW13281   7.447   9.223   8.315
 3795SOL    HW113282   7.363   9.188   8.342
 3795SOL    HW213283   7.436   9.246   8.223
 3796SOL     OW13284   6.164   7.335  10.052
 3796SOL    HW113285   6.216   7.314  10.130
 3796SOL    HW213286   6.093   7.390  10.085
 3797SOL     OW13287  13.786   8.165   5.566
 3797SOL    HW113288  13.804   8.085   5.516
 3797SOL    HW213289  13.821   8.235   5.511
 3798SOL     OW13290   4.640   4.807  13.676
 3798SOL    HW113291   4.660   4.819  13.769
 3798SOL    HW213292   4.716   4.761  13.641
 3799SOL     OW13293   4.968  14.803   8.688
 3799SOL    HW113294   5.032  14.814   8.759
 3799SOL    HW213295   4.955  14.709   8.682
 3800SOL     OW13296   9.501   6.276   8.127
 3800SOL    HW113297   9.533   6.320   8.206
 3800SOL    HW213298   9.558   6.199   8.119
 3801SOL     OW13299  12.809  10.828   2.290
 3801SOL    HW113300  12.776  10.853   2.203
 3801SOL    HW213301  12.890  10.878   2.299
 3802SOL     OW13302   2.364  10.399   1.573
 3802SOL    HW113303   2.441  10.373   1.522
 3802SOL    HW213304   2.363  10.495   1.567
 3803SOL     OW13305   2.016  10.399  11.957
 3803SOL    HW113306   1.946  10.464  11.954
 3803SOL    HW213307   1.999  10.348  12.036
 3804SOL     OW13308   7.254   3.606   5.862
 3804SOL    HW113309   7.163   3.631   5.879
 3804SOL    HW213310   7.304   3.687   5.871
 3805SOL     OW13311   0.352   9.996   7.380
 3805SOL    HW113312   0.360   9.913   7.334
 3805SOL    HW213313   0.335   9.971   7.471
 3806SOL     OW13314  11.035   6.297   3.443
 3806SOL    HW113315  10.953   6.284   3.490
 3806SOL    HW213316  11.008   6.329   3.357
 3807SOL     OW13317  12.789   3.505   1.859
 3807SOL    HW113318  12.854   3.481   1.793
 3807SOL    HW213319  12.837   3.562   1.920
 3808SOL     OW13320   2.029  14.100  12.538
 3808SOL    HW113321   2.089  14.050  12.482
 3808SOL    HW213322   2.063  14.086  12.626
 3809SOL     OW13323  11.697   3.549   7.435
 3809SOL    HW113324  11.761   3.500   7.383
 3809SOL    HW213325  11.632   3.578   7.371
 3810SOL     OW13326   8.311   7.369  11.169
 3810SOL    HW113327   8.282   7.374  11.078
 3810SOL    HW213328   8.402   7.340  11.164
 3811SOL     OW13329   9.316   1.620   5.834
 3811SOL    HW113330   9.225   1.589   5.840
 3811SOL    HW213331   9.312   1.712   5.861
 3812SOL     OW13332  12.516  14.129   2.600
 3812SOL    HW113333  12.513  14.171   2.686
 3812SOL    HW213334  12.575  14.184   2.549
 3813SOL     OW13335  10.948   3.400  13.820
 3813SOL    HW113336  10.962   3.473  13.760
 3813SOL    HW213337  10.980   3.323  13.773
 3814SOL     OW13338  14.737   9.147  12.922
 3814SOL    HW113339  14.675   9.083  12.954
 3814SOL    HW213340  14.707   9.168  12.833
 3815SOL     OW13341   3.516  13.417  10.739
 3815SOL    HW113342   3.440  13.372  10.776
 3815SOL    HW213343   3.549  13.472  10.810
 3816SOL     OW13344   2.119   5.577   7.776
 3816SOL    HW113345   2.136   5.662   7.818
 3816SOL    HW213346   2.199   5.527   7.789
 3817SOL     OW13347   8.734  12.476  11.465
 3817SOL    HW113348   8.722  12.570  11.478
 3817SOL    HW213349   8.826  12.467  11.437
 3818SOL     OW13350   1.057   8.031   1.147
 3818SOL    HW113351   0.969   7.993   1.156
 3818SOL    HW213352   1.042   8.126   1.156
 3819SOL     OW13353   5.136   2.626   4.436
 3819SOL    HW113354   5.055   2.605   4.482
 3819SOL    HW213355   5.124   2.716   4.405
 3820SOL     OW13356  13.333   0.015   2.799
 3820SOL    HW113357  13.296   0.102   2.782
 3820SOL    HW213358  13.425   0.023   2.772
 3821SOL     OW13359   6.215   1.374   4.802
 3821SOL    HW113360   6.133   1.349   4.759
 3821SOL    HW213361   6.192   1.380   4.895
 3822SOL     OW13362   0.124  14.734   5.518
 3822SOL    HW113363   0.171  14.673   5.461
 3822SOL    HW213364   0.063  14.779   5.459
 3823SOL     OW13365   1.588  12.557  10.950
 3823SOL    HW113366   1.524  12.513  10.894
 3823SOL    HW213367   1.536  12.595  11.021
 3824SOL     OW13368  12.988  13.257  14.503
 3824SOL    HW113369  12.913  13.282  14.558
 3824SOL    HW213370  12.948  13.224  14.422
 3825SOL     OW13371   6.539   8.165   4.452
 3825SOL    HW113372   6.589   8.245   4.466
 3825SOL    HW213373   6.491   8.152   4.534
 3826SOL     OW13374  12.147   3.083   5.846
 3826SOL    HW113375  12.195   3.118   5.770
 3826SOL    HW213376  12.059   3.068   5.813
 3827SOL     OW13377   9.494   7.270  13.242
 3827SOL    HW113378   9.423   7.282  13.178
 3827SOL    HW213379   9.458   7.211  13.307
 3828SOL     OW13380  10.507  14.868   9.462
 3828SOL    HW113381  10.571  14.845   9.395
 3828SOL    HW213382  10.422  14.855   9.419
 3829SOL     OW13383   5.748  13.672   8.784
 3829SOL    HW113384   5.785  13.731   8.849
 3829SOL    HW213385   5.686  13.726   8.734
 3830SOL     OW13386   4.943   9.260   4.497
 3830SOL    HW113387   4.890   9.183   4.477
 3830SOL    HW213388   5.027   9.224   4.525
 3831SOL     OW13389   7.334  11.401   6.518
 3831SOL    HW113390   7.307  11.351   6.440
 3831SOL    HW213391   7.315  11.342   6.591
 3832SOL     OW13392   7.317   3.911   1.073
 3832SOL    HW113393   7.302   3.904   1.167
 3832SOL    HW213394   7.324   3.820   1.043
 3833SOL     OW13395   2.368   1.236  14.834
 3833SOL    HW113396   2.372   1.241  14.739
 3833SOL    HW213397   2.358   1.327  14.863
 3834SOL     OW13398  13.181   9.057   9.132
 3834SOL    HW113399  13.213   9.014   9.052
 3834SOL    HW213400  13.234   9.136   9.140
 3835SOL     OW13401   6.341   9.377   1.905
 3835SOL    HW113402   6.320   9.298   1.856
 3835SOL    HW213403   6.436   9.376   1.914
 3836SOL     OW13404  11.666   6.776   5.753
 3836SOL    HW113405  11.696   6.784   5.844
 3836SOL    HW213406  11.718   6.841   5.705
 3837SOL     OW13407   8.548   7.965   6.642
 3837SOL    HW113408   8.556   7.873   6.620
 3837SOL    HW213409   8.454   7.979   6.655
 3838SOL     OW13410   4.834   3.483  12.703
 3838SOL    HW113411   4.804   3.489  12.794
 3838SOL    HW213412   4.917   3.435  12.708
 3839SOL     OW13413  13.740   7.448   9.039
 3839SOL    HW113414  13.747   7.500   8.958
 3839SOL    HW213415  13.809   7.382   9.030
 3840SOL     OW13416  14.551   8.750   0.006
 3840SOL    HW113417  14.609   8.803   0.061
 3840SOL    HW213418  14.583   8.661   0.017
 3841SOL     OW13419  11.422   0.570   2.614
 3841SOL    HW113420  11.512   0.596   2.596
 3841SOL    HW213421  11.378   0.575   2.530
 3842SOL     OW13422   4.305   2.061  14.488
 3842SOL    HW113423   4.291   2.023  14.401
 3842SOL    HW213424   4.392   2.101  14.483
 3843SOL     OW13425  13.437   2.304   6.027
 3843SOL    HW113426  13.365   2.254   6.066
 3843SOL    HW213427  13.425   2.393   6.060
 3844SOL     OW13428   5.983   0.343   3.233
 3844SOL    HW113429   5.933   0.316   3.156
 3844SOL    HW213430   6.022   0.262   3.266
 3845SOL     OW13431   5.217   8.119   1.669
 3845SOL    HW113432   5.144   8.066   1.699
 3845SOL    HW213433   5.182   8.208   1.663
 3846SOL     OW13434   0.293   0.110   1.847
 3846SOL    HW113435   0.304   0.060   1.766
 3846SOL    HW213436   0.351   0.066   1.910
 3847SOL     OW13437   6.181  12.903   0.981
 3847SOL    HW113438   6.226  12.941   1.057
 3847SOL    HW213439   6.118  12.969   0.955
 3848SOL     OW13440   7.015  10.478   1.627
 3848SOL    HW113441   7.104  10.510   1.609
 3848SOL    HW213442   7.026  10.411   1.694
 3849SOL     OW13443  12.199   6.393   7.885
 3849SOL    HW113444  12.128   6.334   7.909
 3849SOL    HW213445  12.244   6.411   7.968
 3850SOL     OW13446  14.471   8.056  14.149
 3850SOL    HW113447  14.432   8.028  14.232
 3850SOL    HW213448  14.433   7.997  14.084
 3851SOL     OW13449  13.869   7.885   7.015
 3851SOL    HW113450  13.870   7.838   7.098
 3851SOL    HW213451  13.888   7.976   7.038
 3852SOL     OW13452   9.366   7.397  10.544
 3852SOL    HW113453   9.287   7.344  10.532
 3852SOL    HW213454   9.333   7.486  10.561
 3853SOL     OW13455  13.933   1.104   0.812
 3853SOL    HW113456  13.905   1.190   0.781
 3853SOL    HW213457  13.852   1.056   0.827
 3854SOL     OW13458   6.898  13.245  11.447
 3854SOL    HW113459   6.953  13.188  11.501
 3854SOL    HW213460   6.961  13.301  11.400
 3855SOL     OW13461   0.470   6.617  12.043
 3855SOL    HW113462   0.485   6.707  12.072
 3855SOL    HW213463   0.514   6.611  11.958
 3856SOL     OW13464   9.021   8.745   0.364
 3856SOL    HW113465   8.930   8.718   0.357
 3856SOL    HW213466   9.020   8.839   0.347
 3857SOL     OW13467  13.060   9.735   5.676
 3857SOL    HW113468  13.077   9.808   5.735
 3857SOL    HW213469  12.964   9.729   5.673
 3858SOL     OW13470  11.781   6.147  13.138
 3858SOL    HW113471  11.727   6.090  13.193
 3858SOL    HW213472  11.766   6.114  13.049
 3859SOL     OW13473  14.717   0.788   1.840
 3859SOL    HW113474  14.763   0.706   1.821
 3859SOL    HW213475  14.710   0.790   1.936
 3860SOL     OW13476   8.555   3.612  13.511
 3860SOL    HW113477   8.501   3.690  13.498
 3860SOL    HW213478   8.624   3.641  13.571
 3861SOL     OW13479   7.862   5.970   3.286
 3861SOL    HW113480   7.833   5.894   3.337
 3861SOL    HW213481   7.873   5.935   3.197
 3862SOL     OW13482  12.588   2.889  12.928
 3862SOL    HW113483  12.660   2.830  12.906
 3862SOL    HW213484  12.632   2.969  12.958
 3863SOL     OW13485   2.978   2.681   6.028
 3863SOL    HW113486   3.057   2.627   6.042
 3863SOL    HW213487   3.011   2.760   5.986
 3864SOL     OW13488   5.805   9.202   1.729
 3864SOL    HW113489   5.844   9.201   1.641
 3864SOL    HW213490   5.845   9.278   1.771
 3865SOL     OW13491   8.270   8.299   4.505
 3865SOL    HW113492   8.252   8.313   4.598
 3865SOL    HW213493   8.197   8.341   4.460
 3866SOL     OW13494   8.001  12.694  14.745
 3866SOL    HW113495   8.048  12.735  14.817
 3866SOL    HW213496   7.938  12.761  14.717
 3867SOL     OW13497   0.814  10.922   2.795
 3867SOL    HW113498   0.817  10.879   2.710
 3867SOL    HW213499   0.891  10.888   2.841
 3868SOL     OW13500   1.542   4.527   1.680
 3868SOL    HW113501   1.532   4.442   1.636
 3868SOL    HW213502   1.543   4.591   1.610
 3869SOL     OW13503   8.128   9.672   9.551
 3869SOL    HW113504   8.090   9.737   9.491
 3869SOL    HW213505   8.083   9.590   9.530
 3870SOL     OW13506  12.728   6.302   3.773
 3870SOL    HW113507  12.687   6.369   3.827
 3870SOL    HW213508  12.754   6.234   3.834
 3871SOL     OW13509   5.861   3.338   1.647
 3871SOL    HW113510   5.881   3.353   1.739
 3871SOL    HW213511   5.771   3.304   1.647
 3872SOL     OW13512  10.696  13.449   1.546
 3872SOL    HW113513  10.600  13.451   1.544
 3872SOL    HW213514  10.718  13.432   1.638
 3873SOL     OW13515   6.269   7.365  14.518
 3873SOL    HW113516   6.311   7.316  14.448
 3873SOL    HW213517   6.291   7.457  14.500
 3874SOL     OW13518   4.461   0.435   5.772
 3874SOL    HW113519   4.551   0.466   5.763
 3874SOL    HW213520   4.423   0.441   5.684
 3875SOL     OW13521   2.416  10.740  11.584
 3875SOL    HW113522   2.395  10.786  11.665
 3875SOL    HW213523   2.332  10.730  11.539
 3876SOL     OW13524   8.240   6.391   0.091
 3876SOL    HW113525   8.146   6.384   0.104
 3876SOL    HW213526   8.276   6.400   0.179
 3877SOL     OW13527   3.001   2.118  12.592
 3877SOL    HW113528   3.000   2.043  12.652
 3877SOL    HW213529   2.925   2.103  12.535
 3878SOL     OW13530  14.753   7.871   1.098
 3878SOL    HW113531  14.688   7.873   1.027
 3878SOL    HW213532  14.838   7.876   1.054
 3879SOL     OW13533   1.459   0.396   0.428
 3879SOL    HW113534   1.409   0.364   0.352
 3879SOL    HW213535   1.468   0.320   0.485
 3880SOL     OW13536   4.359  10.307  14.848
 3880SOL    HW113537   4.374  10.287   0.071
 3880SOL    HW213538   4.281  10.258  14.825
 3881SOL     OW13539   6.390  11.286   9.219
 3881SOL    HW113540   6.313  11.286   9.162
 3881SOL    HW213541   6.464  11.301   9.160
 3882SOL     OW13542   6.765  12.276  11.181
 3882SOL    HW113543   6.752  12.330  11.103
 3882SOL    HW213544   6.685  12.287  11.232
 3883SOL     OW13545   5.577  14.218   9.639
 3883SOL    HW113546   5.613  14.260   9.561
 3883SOL    HW213547   5.651  14.209   9.699
 3884SOL     OW13548   1.702   3.913   3.554
 3884SOL    HW113549   1.794   3.890   3.539
 3884SOL    HW213550   1.682   3.878   3.641
 3885SOL     OW13551   9.922  12.189  12.004
 3885SOL    HW113552   9.890  12.279  12.003
 3885SOL    HW213553   9.912  12.160  12.095
 3886SOL     OW13554  13.494  10.237  11.819
 3886SOL    HW113555  13.573  10.216  11.769
 3886SOL    HW213556  13.488  10.168  11.885
 3887SOL     OW13557  14.669   1.844   3.080
 3887SOL    HW113558  14.690   1.857   3.172
 3887SOL    HW213559  14.613   1.918   3.057
 3888SOL     OW13560   8.580   3.758   1.393
 3888SOL    HW113561   8.524   3.709   1.453
 3888SOL    HW213562   8.630   3.817   1.449
 3889SOL     OW13563  12.354   1.535   0.357
 3889SOL    HW113564  12.335   1.570   0.269
 3889SOL    HW213565  12.372   1.442   0.342
 3890SOL     OW13566   6.748  11.942  11.865
 3890SOL    HW113567   6.821  11.959  11.805
 3890SOL    HW213568   6.766  11.855  11.900
 3891SOL     OW13569   2.714   4.105   4.644
 3891SOL    HW113570   2.802   4.122   4.675
 3891SOL    HW213571   2.721   4.023   4.595
 3892SOL     OW13572   9.927   2.551  12.353
 3892SOL    HW113573   9.994   2.606  12.393
 3892SOL    HW213574   9.915   2.478  12.415
 3893SOL     OW13575   9.671   3.152   8.616
 3893SOL    HW113576   9.673   3.182   8.526
 3893SOL    HW213577   9.642   3.061   8.611
 3894SOL     OW13578  10.457  11.326   5.525
 3894SOL    HW113579  10.471  11.241   5.568
 3894SOL    HW213580  10.362  11.336   5.522
 3895SOL     OW13581   6.013  10.274   3.340
 3895SOL    HW113582   6.084  10.327   3.305
 3895SOL    HW213583   6.017  10.192   3.292
 3896SOL     OW13584   8.064   4.140   1.319
 3896SOL    HW113585   8.086   4.062   1.269
 3896SOL    HW213586   8.064   4.112   1.410
 3897SOL     OW13587   6.167   9.742   5.940
 3897SOL    HW113588   6.236   9.803   5.913
 3897SOL    HW213589   6.092   9.798   5.959
 3898SOL     OW13590   1.309   4.537  12.255
 3898SOL    HW113591   1.378   4.591  12.217
 3898SOL    HW213592   1.291   4.578  12.340
 3899SOL     OW13593   1.945   6.601   4.584
 3899SOL    HW113594   2.033   6.631   4.605
 3899SOL    HW213595   1.908   6.670   4.530
 3900SOL     OW13596  12.775   7.239   6.276
 3900SOL    HW113597  12.852   7.296   6.271
 3900SOL    HW213598  12.710   7.289   6.325
 3901SOL     OW13599   0.624   1.934  11.834
 3901SOL    HW113600   0.563   1.912  11.903
 3901SOL    HW213601   0.620   2.030  11.827
 3902SOL     OW13602   5.264  13.437   2.559
 3902SOL    HW113603   5.277  13.499   2.631
 3902SOL    HW213604   5.351  13.426   2.520
 3903SOL     OW13605   4.890   4.239   0.060
 3903SOL    HW113606   4.871   4.243   0.153
 3903SOL    HW213607   4.914   4.328   0.036
 3904SOL     OW13608   8.236   3.785  14.691
 3904SOL    HW113609   8.313   3.792  14.635
 3904SOL    HW213610   8.162   3.790  14.631
 3905SOL     OW13611   8.104  13.557  13.084
 3905SOL    HW113612   8.172  13.517  13.030
 3905SOL    HW213613   8.145  13.637  13.119
 3906SOL     OW13614   0.215   6.843  12.199
 3906SOL    HW113615   0.124   6.865  12.218
 3906SOL    HW213616   0.226   6.863  12.106
 3907SOL     OW13617  11.319   3.292   8.021
 3907SOL    HW113618  11.239   3.252   8.057
 3907SOL    HW213619  11.287   3.363   7.966
 3908SOL     OW13620   1.464   8.127   3.044
 3908SOL    HW113621   1.379   8.109   3.084
 3908SOL    HW213622   1.522   8.059   3.079
 3909SOL     OW13623  10.944   3.978   1.517
 3909SOL    HW113624  10.948   4.071   1.496
 3909SOL    HW213625  10.879   3.971   1.587
 3910SOL     OW13626   6.532   9.507   7.849
 3910SOL    HW113627   6.577   9.537   7.771
 3910SOL    HW213628   6.599   9.503   7.917
 3911SOL     OW13629   1.861  11.441   4.080
 3911SOL    HW113630   1.842  11.506   4.148
 3911SOL    HW213631   1.951  11.458   4.055
 3912SOL     OW13632   4.771  14.304  10.257
 3912SOL    HW113633   4.717  14.248  10.202
 3912SOL    HW213634   4.737  14.393  10.243
 3913SOL     OW13635  10.154   8.538   0.782
 3913SOL    HW113636  10.137   8.620   0.829
 3913SOL    HW213637  10.094   8.539   0.708
 3914SOL     OW13638  11.849   9.970   0.107
 3914SOL    HW113639  11.825   9.885   0.144
 3914SOL    HW213640  11.921  10.000   0.162
 3915SOL     OW13641   4.993   9.781   4.294
 3915SOL    HW113642   4.986   9.830   4.212
 3915SOL    HW213643   5.004   9.848   4.362
 3916SOL     OW13644   2.380   3.090   5.488
 3916SOL    HW113645   2.450   3.028   5.509
 3916SOL    HW213646   2.322   3.087   5.565
 3917SOL     OW13647   0.612  11.968   6.196
 3917SOL    HW113648   0.524  12.006   6.194
 3917SOL    HW213649   0.599  11.879   6.229
 3918SOL     OW13650   0.232   8.412   9.943
 3918SOL    HW113651   0.299   8.479   9.940
 3918SOL    HW213652   0.191   8.422  10.029
 3919SOL     OW13653  13.760  13.373   1.842
 3919SOL    HW113654  13.739  13.280   1.838
 3919SOL    HW213655  13.731  13.408   1.758
 3920SOL     OW13656   7.428   0.446   2.316
 3920SOL    HW113657   7.456   0.368   2.363
 3920SOL    HW213658   7.386   0.500   2.383
 3921SOL     OW13659  13.130  10.771  14.670
 3921SOL    HW113660  13.123  10.702  14.736
 3921SOL    HW213661  13.170  10.845  14.716
 3922SOL     OW13662  10.570   3.473  13.232
 3922SOL    HW113663  10.617   3.515  13.159
 3922SOL    HW213664  10.587   3.531  13.307
 3923SOL     OW13665   9.106  14.474  12.868
 3923SOL    HW113666   9.030  14.415  12.877
 3923SOL    HW213667   9.182  14.415  12.868
 3924SOL     OW13668  11.079   8.058   9.933
 3924SOL    HW113669  10.985   8.038   9.932
 3924SOL    HW213670  11.092   8.103  10.016
 3925SOL     OW13671  10.503   5.820   5.566
 3925SOL    HW113672  10.468   5.836   5.653
 3925SOL    HW213673  10.525   5.727   5.566
 3926SOL     OW13674   2.273   7.936   8.109
 3926SOL    HW113675   2.198   7.877   8.113
 3926SOL    HW213676   2.235   8.022   8.092
 3927SOL     OW13677  10.954   0.598   4.703
 3927SOL    HW113678  10.948   0.606   4.608
 3927SOL    HW213679  11.033   0.646   4.727
 3928SOL     OW13680   9.977   5.563  12.606
 3928SOL    HW113681   9.970   5.501  12.679
 3928SOL    HW213682  10.068   5.556  12.578
 3929SOL     OW13683   8.279   7.451  11.731
 3929SOL    HW113684   8.343   7.516  11.760
 3929SOL    HW213685   8.266   7.395  11.807
 3930SOL     OW13686   4.320   9.453   2.749
 3930SOL    HW113687   4.246   9.490   2.701
 3930SOL    HW213688   4.397   9.487   2.704
 3931SOL     OW13689  13.827   1.094   4.838
 3931SOL    HW113690  13.908   1.130   4.801
 3931SOL    HW213691  13.832   1.115   4.931
 3932SOL     OW13692  12.078  13.328  11.907
 3932SOL    HW113693  12.012  13.397  11.909
 3932SOL    HW213694  12.152  13.364  11.957
 3933SOL     OW13695   7.632   9.036   5.623
 3933SOL    HW113696   7.693   9.006   5.555
 3933SOL    HW213697   7.616   8.958   5.677
 3934SOL     OW13698   8.175  10.543   4.514
 3934SOL    HW113699   8.246  10.488   4.482
 3934SOL    HW213700   8.176  10.620   4.456
 3935SOL     OW13701  12.633   6.457  13.320
 3935SOL    HW113702  12.629   6.362  13.306
 3935SOL    HW213703  12.607   6.495  13.237
 3936SOL     OW13704  11.112   9.557  10.285
 3936SOL    HW113705  11.037   9.513  10.245
 3936SOL    HW213706  11.162   9.592  10.212
 3937SOL     OW13707  11.187   1.524   2.970
 3937SOL    HW113708  11.182   1.597   3.031
 3937SOL    HW213709  11.203   1.448   3.026
 3938SOL     OW13710   3.695   2.146  12.538
 3938SOL    HW113711   3.787   2.126  12.549
 3938SOL    HW213712   3.654   2.063  12.515
 3939SOL     OW13713   9.513   8.031   4.274
 3939SOL    HW113714   9.575   8.093   4.314
 3939SOL    HW213715   9.438   8.031   4.333
 3940SOL     OW13716   3.044   6.429   0.370
 3940SOL    HW113717   2.992   6.437   0.290
 3940SOL    HW213718   3.117   6.372   0.346
 3941SOL     OW13719  10.110   4.817  13.624
 3941SOL    HW113720  10.035   4.867  13.592
 3941SOL    HW213721  10.186   4.870  13.602
 3942SOL     OW13722   2.191   4.786   4.112
 3942SOL    HW113723   2.214   4.839   4.036
 3942SOL    HW213724   2.266   4.728   4.124
 3943SOL     OW13725  11.387   2.684   0.049
 3943SOL    HW113726  11.343   2.729   0.121
 3943SOL    HW213727  11.328   2.693  14.844
 3944SOL     OW13728   6.994   9.112  12.832
 3944SOL    HW113729   6.960   9.023  12.822
 3944SOL    HW213730   7.082   9.108  12.794
 3945SOL     OW13731   6.289   2.706  14.064
 3945SOL    HW113732   6.311   2.627  14.015
 3945SOL    HW213733   6.352   2.707  14.136
 3946SOL     OW13734   3.656   3.137   8.216
 3946SOL    HW113735   3.597   3.130   8.291
 3946SOL    HW213736   3.616   3.081   8.149
 3947SOL     OW13737   3.150   5.793   6.509
 3947SOL    HW113738   3.118   5.864   6.454
 3947SOL    HW213739   3.195   5.734   6.448
 3948SOL     OW13740   8.131  13.484   2.669
 3948SOL    HW113741   8.208  13.498   2.613
 3948SOL    HW213742   8.168  13.464   2.755
 3949SOL     OW13743   9.645  13.048  12.279
 3949SOL    HW113744   9.725  13.090  12.312
 3949SOL    HW213745   9.582  13.060  12.350
 3950SOL     OW13746   0.619   4.524   0.285
 3950SOL    HW113747   0.541   4.579   0.277
 3950SOL    HW213748   0.687   4.573   0.238
 3951SOL     OW13749   8.268   5.701  11.685
 3951SOL    HW113750   8.343   5.652  11.650
 3951SOL    HW213751   8.302   5.746  11.762
 3952SOL     OW13752  14.359   3.045   9.172
 3952SOL    HW113753  14.396   3.000   9.097
 3952SOL    HW213754  14.264   3.046   9.156
 3953SOL     OW13755  13.929   4.186   8.732
 3953SOL    HW113756  13.899   4.256   8.673
 3953SOL    HW213757  13.851   4.161   8.781
 3954SOL     OW13758   1.139   6.458   7.080
 3954SOL    HW113759   1.214   6.399   7.083
 3954SOL    HW213760   1.168   6.531   7.025
 3955SOL     OW13761  10.948  12.675   9.267
 3955SOL    HW113762  10.874  12.649   9.213
 3955SOL    HW213763  11.010  12.715   9.206
 3956SOL     OW13764   0.632   5.306   7.844
 3956SOL    HW113765   0.626   5.373   7.913
 3956SOL    HW213766   0.676   5.350   7.771
 3957SOL     OW13767  14.171   3.207   6.745
 3957SOL    HW113768  14.181   3.114   6.725
 3957SOL    HW213769  14.080   3.216   6.771
 3958SOL     OW13770   1.283   2.838   8.320
 3958SOL    HW113771   1.337   2.878   8.252
 3958SOL    HW213772   1.206   2.895   8.326
 3959SOL     OW13773   4.822   9.550   4.424
 3959SOL    HW113774   4.882   9.476   4.423
 3959SOL    HW213775   4.877   9.625   4.447
 3960SOL     OW13776   4.646   7.547   6.745
 3960SOL    HW113777   4.566   7.576   6.789
 3960SOL    HW213778   4.712   7.610   6.773
 3961SOL     OW13779   4.942  10.048   4.204
 3961SOL    HW113780   4.978  10.118   4.259
 3961SOL    HW213781   4.856  10.031   4.241
 3962SOL     OW13782  12.267   4.666   4.175
 3962SOL    HW113783  12.284   4.691   4.266
 3962SOL    HW213784  12.353   4.643   4.141
 3963SOL     OW13785  14.074   0.118  13.084
 3963SOL    HW113786  14.168   0.099  13.086
 3963SOL    HW213787  14.048   0.120  13.176
 3964SOL     OW13788  12.317  13.757   4.221
 3964SOL    HW113789  12.301  13.749   4.315
 3964SOL    HW213790  12.376  13.684   4.201
 3965SOL     OW13791  14.234   8.573   9.336
 3965SOL    HW113792  14.173   8.647   9.326
 3965SOL    HW213793  14.243   8.563   9.430
 3966SOL     OW13794   8.027   6.095   0.516
 3966SOL    HW113795   7.934   6.091   0.493
 3966SOL    HW213796   8.049   6.006   0.544
 3967SOL     OW13797   2.342   9.448   0.923
 3967SOL    HW113798   2.251   9.476   0.930
 3967SOL    HW213799   2.357   9.437   0.829
 3968SOL     OW13800   9.987  10.611  14.782
 3968SOL    HW113801   9.921  10.543  14.795
 3968SOL    HW213802  10.041  10.608  14.860
 3969SOL     OW13803   4.483  13.539   1.594
 3969SOL    HW113804   4.393  13.510   1.603
 3969SOL    HW213805   4.525  13.471   1.540
 3970SOL     OW13806   6.134   9.436  14.026
 3970SOL    HW113807   6.132   9.381  14.104
 3970SOL    HW213808   6.226   9.460  14.016
 3971SOL     OW13809   3.171   6.911  14.102
 3971SOL    HW113810   3.203   6.950  14.021
 3971SOL    HW213811   3.131   6.828  14.075
 3972SOL     OW13812  14.226  12.466  12.167
 3972SOL    HW113813  14.248  12.419  12.248
 3972SOL    HW213814  14.274  12.419  12.098
 3973SOL     OW13815  12.462   8.202  10.987
 3973SOL    HW113816  12.551   8.168  10.976
 3973SOL    HW213817  12.436   8.175  11.075
 3974SOL     OW13818   5.951   0.549   3.542
 3974SOL    HW113819   6.030   0.512   3.503
 3974SOL    HW213820   5.982   0.622   3.595
 3975SOL     OW13821  12.134  11.486   2.047
 3975SOL    HW113822  12.202  11.464   2.111
 3975SOL    HW213823  12.118  11.579   2.060
 3976SOL     OW13824  11.520  14.528   6.808
 3976SOL    HW113825  11.546  14.612   6.771
 3976SOL    HW213826  11.426  14.523   6.793
 3977SOL     OW13827   6.404  10.618   7.781
 3977SOL    HW113828   6.330  10.608   7.841
 3977SOL    HW213829   6.471  10.663   7.832
 3978SOL     OW13830  14.830  11.053  13.207
 3978SOL    HW113831  14.841  11.001  13.128
 3978SOL    HW213832   0.001  11.137  13.186
 3979SOL     OW13833   5.819   6.814  12.050
 3979SOL    HW113834   5.815   6.910  12.050
 3979SOL    HW213835   5.894   6.793  12.105
 3980SOL     OW13836   4.782  10.615  11.356
 3980SOL    HW113837   4.786  10.531  11.402
 3980SOL    HW213838   4.818  10.595  11.269
 3981SOL     OW13839   8.851  11.685  14.522
 3981SOL    HW113840   8.894  11.657  14.440
 3981SOL    HW213841   8.835  11.603  14.569
 3982SOL     OW13842  10.273   4.118  14.176
 3982SOL    HW113843  10.337   4.189  14.169
 3982SOL    HW213844  10.193   4.161  14.204
 3983SOL     OW13845   9.825   5.297   4.968
 3983SOL    HW113846   9.857   5.255   5.047
 3983SOL    HW213847   9.857   5.387   4.974
 3984SOL     OW13848   7.360  14.583   3.701
 3984SOL    HW113849   7.281  14.632   3.726
 3984SOL    HW213850   7.339  14.545   3.616
 3985SOL     OW13851   7.311   8.127   8.505
 3985SOL    HW113852   7.288   8.215   8.477
 3985SOL    HW213853   7.364   8.092   8.433
 3986SOL     OW13854   0.661   5.527   1.433
 3986SOL    HW113855   0.572   5.507   1.405
 3986SOL    HW213856   0.686   5.451   1.486
 3987SOL     OW13857   6.103  13.641   5.375
 3987SOL    HW113858   6.036  13.574   5.390
 3987SOL    HW213859   6.115  13.643   5.280
 3988SOL     OW13860   1.410   6.823   9.560
 3988SOL    HW113861   1.336   6.824   9.620
 3988SOL    HW213862   1.443   6.913   9.560
 3989SOL     OW13863   0.760  13.105   6.296
 3989SOL    HW113864   0.725  13.066   6.377
 3989SOL    HW213865   0.782  13.029   6.242
 3990SOL     OW13866   3.874   9.604  10.392
 3990SOL    HW113867   3.936   9.571  10.457
 3990SOL    HW213868   3.868   9.698  10.410
 3991SOL     OW13869  14.810   7.667   0.260
 3991SOL    HW113870  14.742   7.599   0.261
 3991SOL    HW213871  14.762   7.747   0.282
 3992SOL     OW13872  11.865   6.803  11.169
 3992SOL    HW113873  11.958   6.787  11.157
 3992SOL    HW213874  11.849   6.886  11.124
 3993SOL     OW13875  11.353  14.457   7.255
 3993SOL    HW113876  11.340  14.544   7.218
 3993SOL    HW213877  11.424  14.419   7.203
 3994SOL     OW13878   3.312   4.969   6.797
 3994SOL    HW113879   3.339   5.044   6.745
 3994SOL    HW213880   3.356   4.894   6.756
 3995SOL     OW13881  12.247  13.464  13.199
 3995SOL    HW113882  12.209  13.501  13.278
 3995SOL    HW213883  12.194  13.387  13.180
 3996SOL     OW13884   2.431  10.414   7.536
 3996SOL    HW113885   2.481  10.461   7.602
 3996SOL    HW213886   2.358  10.375   7.584
 3997SOL     OW13887  11.700   6.590   0.785
 3997SOL    HW113888  11.764   6.653   0.753
 3997SOL    HW213889  11.622   6.604   0.731
 3998SOL     OW13890  10.659   4.162   7.155
 3998SOL    HW113891  10.602   4.220   7.105
 3998SOL    HW213892  10.614   4.151   7.239
 3999SOL     OW13893  10.887   4.716  10.802
 3999SOL    HW113894  10.951   4.728  10.732
 3999SOL    HW213895  10.940   4.717  10.882
 4000SOL     OW13896  11.358   8.378   9.043
 4000SOL    HW113897  11.377   8.466   9.012
 4000SOL    HW213898  11.442   8.344   9.073
 4001SOL     OW13899   8.888  13.958  12.560
 4001SOL    HW113900   8.941  13.882  12.585
 4001SOL    HW213901   8.866  13.999  12.643
 4002SOL     OW13902   6.895  10.082   7.623
 4002SOL    HW113903   6.976  10.131   7.606
 4002SOL    HW213904   6.878  10.096   7.716
 4003SOL     OW13905  13.408   9.535  13.559
 4003SOL    HW113906  13.328   9.563  13.516
 4003SOL    HW213907  13.384   9.521  13.650
 4004SOL     OW13908   2.306  11.701   9.812
 4004SOL    HW113909   2.267  11.779   9.774
 4004SOL    HW213910   2.274  11.629   9.759
 4005SOL     OW13911  14.207   4.552  12.543
 4005SOL    HW113912  14.136   4.490  12.556
 4005SOL    HW213913  14.166   4.638  12.552
 4006SOL     OW13914  13.933   0.975   1.258
 4006SOL    HW113915  14.000   0.982   1.190
 4006SOL    HW213916  13.864   0.922   1.217
 4007SOL     OW13917   4.938   3.901   3.684
 4007SOL    HW113918   4.974   3.990   3.684
 4007SOL    HW213919   4.857   3.907   3.633
 4008SOL     OW13920  10.783   5.703   3.035
 4008SOL    HW113921  10.813   5.739   2.952
 4008SOL    HW213922  10.814   5.766   3.101
 4009SOL     OW13923   7.909   9.470   0.479
 4009SOL    HW113924   7.820   9.477   0.513
 4009SOL    HW213925   7.913   9.382   0.441
 4010SOL     OW13926   0.111   9.693   3.686
 4010SOL    HW113927   0.056   9.620   3.659
 4010SOL    HW213928   0.197   9.654   3.701
 4011SOL     OW13929   8.137   8.430  10.630
 4011SOL    HW113930   8.178   8.490  10.567
 4011SOL    HW213931   8.205   8.415  10.696
 4012SOL     OW13932   2.493   6.943   2.314
 4012SOL    HW113933   2.560   7.010   2.299
 4012SOL    HW213934   2.521   6.899   2.395
 4013SOL     OW13935   7.418   7.884   9.000
 4013SOL    HW113936   7.490   7.918   9.052
 4013SOL    HW213937   7.342   7.936   9.025
 4014SOL     OW13938  12.452   1.041  14.342
 4014SOL    HW113939  12.444   1.103  14.269
 4014SOL    HW213940  12.425   0.957  14.306
 4015SOL     OW13941  13.450   2.539  11.457
 4015SOL    HW113942  13.359   2.552  11.433
 4015SOL    HW213943  13.454   2.448  11.486
 4016SOL     OW13944   6.013   9.736   6.527
 4016SOL    HW113945   5.937   9.678   6.535
 4016SOL    HW213946   5.979   9.823   6.549
 4017SOL     OW13947   4.800   4.156   5.940
 4017SOL    HW113948   4.837   4.213   5.872
 4017SOL    HW213949   4.817   4.203   6.022
 4018SOL     OW13950   1.068   1.475   4.275
 4018SOL    HW113951   1.011   1.403   4.301
 4018SOL    HW213952   1.082   1.526   4.355
 4019SOL     OW13953   6.858  10.463   8.168
 4019SOL    HW113954   6.809  10.469   8.249
 4019SOL    HW213955   6.889  10.373   8.165
 4020SOL     OW13956  13.118  11.819   0.941
 4020SOL    HW113957  13.168  11.781   0.869
 4020SOL    HW213958  13.066  11.746   0.975
 4021SOL     OW13959  12.054   9.985   8.506
 4021SOL    HW113960  12.080  10.049   8.439
 4021SOL    HW213961  12.095  10.017   8.586
 4022SOL     OW13962   6.020  14.550   8.018
 4022SOL    HW113963   5.947  14.574   7.961
 4022SOL    HW213964   6.095  14.599   7.984
 4023SOL     OW13965  11.167   3.577   2.906
 4023SOL    HW113966  11.227   3.551   2.836
 4023SOL    HW213967  11.083   3.538   2.881
 4024SOL     OW13968  12.201   6.390   5.062
 4024SOL    HW113969  12.107   6.385   5.075
 4024SOL    HW213970  12.230   6.458   5.123
 4025SOL     OW13971  14.738   2.015   8.639
 4025SOL    HW113972  14.651   1.990   8.672
 4025SOL    HW213973  14.730   2.008   8.544
 4026SOL     OW13974   4.702  10.071   8.614
 4026SOL    HW113975   4.784  10.057   8.662
 4026SOL    HW213976   4.642  10.006   8.649
 4027SOL     OW13977   0.399   0.184   6.008
 4027SOL    HW113978   0.485   0.145   6.025
 4027SOL    HW213979   0.416   0.278   6.003
 4028SOL     OW13980   6.202   6.577  12.895
 4028SOL    HW113981   6.244   6.520  12.831
 4028SOL    HW213982   6.120   6.533  12.917
 4029SOL     OW13983   9.055   4.328   9.436
 4029SOL    HW113984   9.078   4.400   9.378
 4029SOL    HW213985   9.011   4.370   9.510
 4030SOL     OW13986   1.466   2.941  10.682
 4030SOL    HW113987   1.389   2.983  10.722
 4030SOL    HW213988   1.536   2.953  10.747
 4031SOL     OW13989   3.263   1.246   5.784
 4031SOL    HW113990   3.245   1.193   5.707
 4031SOL    HW213991   3.342   1.209   5.822
 4032SOL     OW13992   3.489   9.754  12.939
 4032SOL    HW113993   3.477   9.847  12.958
 4032SOL    HW213994   3.526   9.717  13.020
 4033SOL     OW13995   0.665  13.928  10.477
 4033SOL    HW113996   0.730  13.998  10.475
 4033SOL    HW213997   0.612  13.946  10.554
 4034SOL     OW13998  10.076   5.561  11.666
 4034SOL    HW113999  10.120   5.480  11.692
 4034SOL    HW214000   9.982   5.541  11.673
 4035SOL     OW14001   3.576  13.431   9.915
 4035SOL    HW114002   3.593  13.507   9.859
 4035SOL    HW214003   3.639  13.364   9.885
 4036SOL     OW14004   6.381  13.738   6.122
 4036SOL    HW114005   6.357  13.679   6.193
 4036SOL    HW214006   6.458  13.785   6.154
 4037SOL     OW14007  13.935   2.870   5.869
 4037SOL    HW114008  13.945   2.810   5.795
 4037SOL    HW214009  13.849   2.848   5.905
 4038SOL     OW14010   7.916  10.588  13.901
 4038SOL    HW114011   7.977  10.515  13.907
 4038SOL    HW214012   7.910  10.622  13.991
 4039SOL     OW14013   8.895   8.357   8.448
 4039SOL    HW114014   8.963   8.305   8.490
 4039SOL    HW214015   8.941   8.432   8.412
 4040SOL     OW14016   9.239   0.455   9.424
 4040SOL    HW114017   9.219   0.512   9.499
 4040SOL    HW214018   9.258   0.515   9.352
 4041SOL     OW14019   2.228   0.522   4.516
 4041SOL    HW114020   2.306   0.564   4.479
 4041SOL    HW214021   2.232   0.431   4.484
 4042SOL     OW14022  13.878   3.301   8.964
 4042SOL    HW114023  13.829   3.379   8.989
 4042SOL    HW214024  13.911   3.320   8.877
 4043SOL     OW14025  13.450  10.567   5.682
 4043SOL    HW114026  13.480  10.549   5.771
 4043SOL    HW214027  13.375  10.626   5.694
 4044SOL     OW14028   8.146   1.898   6.242
 4044SOL    HW114029   8.218   1.915   6.303
 4044SOL    HW214030   8.183   1.915   6.155
 4045SOL     OW14031  12.866   4.675   5.220
 4045SOL    HW114032  12.907   4.590   5.206
 4045SOL    HW214033  12.883   4.695   5.312
 4046SOL     OW14034   4.887  10.608   5.900
 4046SOL    HW114035   4.964  10.653   5.865
 4046SOL    HW214036   4.813  10.650   5.857
 4047SOL     OW14037   3.545   0.254   1.779
 4047SOL    HW114038   3.584   0.167   1.773
 4047SOL    HW214039   3.554   0.277   1.871
 4048SOL     OW14040   1.976   7.918  13.572
 4048SOL    HW114041   1.896   7.936  13.621
 4048SOL    HW214042   2.038   7.986  13.599
 4049SOL     OW14043   5.467   7.267   2.200
 4049SOL    HW114044   5.427   7.275   2.114
 4049SOL    HW214045   5.561   7.274   2.184
 4050SOL     OW14046   5.228   2.198  12.307
 4050SOL    HW114047   5.261   2.195  12.217
 4050SOL    HW214048   5.201   2.288  12.320
 4051SOL     OW14049  10.521   2.123   2.837
 4051SOL    HW114050  10.575   2.176   2.778
 4051SOL    HW214051  10.503   2.043   2.788
 4052SOL     OW14052   8.392   5.546   0.829
 4052SOL    HW114053   8.300   5.566   0.846
 4052SOL    HW214054   8.402   5.453   0.851
 4053SOL     OW14055   1.798   4.108  10.967
 4053SOL    HW114056   1.884   4.112  10.924
 4053SOL    HW214057   1.766   4.020  10.949
 4054SOL     OW14058  12.044  13.489   7.684
 4054SOL    HW114059  11.966  13.441   7.658
 4054SOL    HW214060  12.095  13.427   7.736
 4055SOL     OW14061   8.532  11.783  10.749
 4055SOL    HW114062   8.599  11.745  10.692
 4055SOL    HW214063   8.579  11.802  10.831
 4056SOL     OW14064   0.092   6.210   4.833
 4056SOL    HW114065   0.159   6.216   4.901
 4056SOL    HW214066   0.019   6.263   4.865
 4057SOL     OW14067  12.392   4.685   4.442
 4057SOL    HW114068  12.406   4.780   4.435
 4057SOL    HW214069  12.461   4.647   4.388
 4058SOL     OW14070   0.300   9.345  11.306
 4058SOL    HW114071   0.235   9.413  11.288
 4058SOL    HW214072   0.375   9.368  11.251
 4059SOL     OW14073   3.355  11.634   8.962
 4059SOL    HW114074   3.309  11.575   9.022
 4059SOL    HW214075   3.397  11.575   8.899
 4060SOL     OW14076   1.312  13.378  10.110
 4060SOL    HW114077   1.317  13.473  10.122
 4060SOL    HW214078   1.233  13.365  10.057
 4061SOL     OW14079   7.532   7.494   0.109
 4061SOL    HW114080   7.622   7.464   0.094
 4061SOL    HW214081   7.489   7.419   0.150
 4062SOL     OW14082  10.957   3.159  13.653
 4062SOL    HW114083  10.911   3.078  13.673
 4062SOL    HW214084  10.909   3.197  13.580
 4063SOL     OW14085   2.638   3.434   6.960
 4063SOL    HW114086   2.727   3.423   6.927
 4063SOL    HW214087   2.599   3.501   6.903
 4064SOL     OW14088   4.518  13.974   8.940
 4064SOL    HW114089   4.593  13.939   8.891
 4064SOL    HW214090   4.466  13.898   8.964
 4065SOL     OW14091   0.983   8.255   4.685
 4065SOL    HW114092   1.075   8.283   4.685
 4065SOL    HW214093   0.977   8.191   4.756
 4066SOL     OW14094  11.827  13.995   3.930
 4066SOL    HW114095  11.802  14.057   3.999
 4066SOL    HW214096  11.784  13.913   3.955
 4067SOL     OW14097   5.813  13.677  11.688
 4067SOL    HW114098   5.722  13.667  11.661
 4067SOL    HW214099   5.814  13.755  11.743
 4068SOL     OW14100   1.625   0.498   4.987
 4068SOL    HW114101   1.647   0.464   4.900
 4068SOL    HW214102   1.552   0.442   5.016
 4069SOL     OW14103  14.009   9.047   5.306
 4069SOL    HW114104  13.981   9.026   5.217
 4069SOL    HW214105  14.100   9.076   5.296
 4070SOL     OW14106   2.518   1.334   8.228
 4070SOL    HW114107   2.545   1.421   8.258
 4070SOL    HW214108   2.566   1.321   8.146
 4071SOL     OW14109   5.605   7.904  12.150
 4071SOL    HW114110   5.664   7.868  12.084
 4071SOL    HW214111   5.642   7.990  12.172
 4072SOL     OW14112  11.786   5.089  14.197
 4072SOL    HW114113  11.781   5.021  14.130
 4072SOL    HW214114  11.724   5.156  14.169
 4073SOL     OW14115  11.994   6.134  14.804
 4073SOL    HW114116  12.073   6.084  14.784
 4073SOL    HW214117  11.923   6.070  14.797
 4074SOL     OW14118  13.366  10.658   7.657
 4074SOL    HW114119  13.338  10.718   7.726
 4074SOL    HW214120  13.439  10.702   7.615
 4075SOL     OW14121   1.251   0.091   6.904
 4075SOL    HW114122   1.296   0.132   6.978
 4075SOL    HW214123   1.189   0.030   6.943
 4076SOL     OW14124   3.280  10.856  13.908
 4076SOL    HW114125   3.184  10.847  13.906
 4076SOL    HW214126   3.308  10.818  13.825
 4077SOL     OW14127   3.371   3.266  10.765
 4077SOL    HW114128   3.361   3.225  10.678
 4077SOL    HW214129   3.464   3.257  10.785
 4078SOL     OW14130  10.206  13.427   0.233
 4078SOL    HW114131  10.208  13.512   0.188
 4078SOL    HW214132  10.143  13.375   0.184
 4079SOL     OW14133  10.097   7.498   2.874
 4079SOL    HW114134  10.119   7.551   2.797
 4079SOL    HW214135  10.160   7.426   2.871
 4080SOL     OW14136   7.211   3.060   1.025
 4080SOL    HW114137   7.204   3.136   1.082
 4080SOL    HW214138   7.127   3.015   1.034
 4081SOL     OW14139   0.335   0.453   9.374
 4081SOL    HW114140   0.287   0.383   9.418
 4081SOL    HW214141   0.273   0.487   9.309
 4082SOL     OW14142   4.916   1.730  10.763
 4082SOL    HW114143   4.968   1.805  10.792
 4082SOL    HW214144   4.833   1.739  10.810
 4083SOL     OW14145  12.233   2.507  12.948
 4083SOL    HW114146  12.196   2.440  13.006
 4083SOL    HW214147  12.196   2.488  12.862
 4084SOL     OW14148   1.770   9.634   8.250
 4084SOL    HW114149   1.698   9.695   8.235
 4084SOL    HW214150   1.784   9.636   8.345
 4085SOL     OW14151  14.545   4.510  12.163
 4085SOL    HW114152  14.571   4.418  12.172
 4085SOL    HW214153  14.473   4.521  12.225
 4086SOL     OW14154   6.017   5.555   2.442
 4086SOL    HW114155   6.036   5.568   2.349
 4086SOL    HW214156   6.094   5.507   2.475
 4087SOL     OW14157   6.271   3.704  11.278
 4087SOL    HW114158   6.286   3.615  11.247
 4087SOL    HW214159   6.193   3.732  11.230
 4088SOL     OW14160  12.502  11.961   8.970
 4088SOL    HW114161  12.510  12.035   9.029
 4088SOL    HW214162  12.467  11.998   8.889
 4089SOL     OW14163   2.722  13.770   4.444
 4089SOL    HW114164   2.630  13.751   4.463
 4089SOL    HW214165   2.740  13.851   4.493
 4090SOL     OW14166   9.920   5.796   5.333
 4090SOL    HW114167   9.986   5.761   5.273
 4090SOL    HW214168   9.898   5.882   5.297
 4091SOL     OW14169   0.344  12.476  11.583
 4091SOL    HW114170   0.264  12.428  11.563
 4091SOL    HW214171   0.359  12.532  11.506
 4092SOL     OW14172   7.048   3.112   2.128
 4092SOL    HW114173   7.087   3.196   2.102
 4092SOL    HW214174   7.077   3.099   2.218
 4093SOL     OW14175  10.947   7.002   4.886
 4093SOL    HW114176  10.908   7.050   4.959
 4093SOL    HW214177  10.880   6.939   4.861
 4094SOL     OW14178   8.508   9.670  10.605
 4094SOL    HW114179   8.454   9.668  10.684
 4094SOL    HW214180   8.525   9.763  10.589
 4095SOL     OW14181   1.324  14.512   2.618
 4095SOL    HW114182   1.254  14.565   2.655
 4095SOL    HW214183   1.384  14.497   2.690
 4096SOL     OW14184   2.183   2.452   4.921
 4096SOL    HW114185   2.264   2.435   4.873
 4096SOL    HW214186   2.183   2.546   4.937
 4097SOL     OW14187  14.316  14.590  12.367
 4097SOL    HW114188  14.336  14.542  12.448
 4097SOL    HW214189  14.262  14.664  12.395
 4098SOL     OW14190   1.833   0.703  14.771
 4098SOL    HW114191   1.830   0.648  14.850
 4098SOL    HW214192   1.826   0.792  14.804
 4099SOL     OW14193   0.519  12.227   8.993
 4099SOL    HW114194   0.571  12.154   8.959
 4099SOL    HW214195   0.551  12.238   9.083
 4100SOL     OW14196  10.311   3.969   5.734
 4100SOL    HW114197  10.247   3.919   5.784
 4100SOL    HW214198  10.371   3.903   5.698
 4101SOL     OW14199  13.067   4.604  12.956
 4101SOL    HW114200  13.097   4.690  12.985
 4101SOL    HW214201  13.005   4.622  12.885
 4102SOL     OW14202   0.191   9.624   5.879
 4102SOL    HW114203   0.218   9.696   5.822
 4102SOL    HW214204   0.264   9.562   5.875
 4103SOL     OW14205   8.258  14.269   8.247
 4103SOL    HW114206   8.287  14.184   8.281
 4103SOL    HW214207   8.168  14.278   8.279
 4104SOL     OW14208   1.197   1.579   8.783
 4104SOL    HW114209   1.207   1.484   8.788
 4104SOL    HW214210   1.106   1.591   8.757
 4105SOL     OW14211  12.034   3.497   9.188
 4105SOL    HW114212  11.999   3.410   9.207
 4105SOL    HW214213  12.103   3.482   9.123
 4106SOL     OW14214  14.520  11.300   9.887
 4106SOL    HW114215  14.608  11.324   9.913
 4106SOL    HW214216  14.529  11.267   9.798
 4107SOL     OW14217   8.079   6.853   2.940
 4107SOL    HW114218   8.023   6.822   2.869
 4107SOL    HW214219   8.164   6.814   2.923
 4108SOL     OW14220  14.446   0.387   4.486
 4108SOL    HW114221  14.396   0.365   4.407
 4108SOL    HW214222  14.492   0.306   4.508
 4109SOL     OW14223   5.537   6.799   5.608
 4109SOL    HW114224   5.443   6.778   5.600
 4109SOL    HW214225   5.545   6.888   5.574
 4110SOL     OW14226   0.121  10.588   4.523
 4110SOL    HW114227   0.089  10.658   4.466
 4110SOL    HW214228   0.078  10.509   4.491
 4111SOL     OW14229   9.662  11.565   5.759
 4111SOL    HW114230   9.749  11.597   5.738
 4111SOL    HW214231   9.630  11.623   5.828
 4112SOL     OW14232   2.279   5.611  13.665
 4112SOL    HW114233   2.219   5.537  13.671
 4112SOL    HW214234   2.319   5.602  13.578
 4113SOL     OW14235  12.854   3.988  11.386
 4113SOL    HW114236  12.829   3.939  11.465
 4113SOL    HW214237  12.874   3.920  11.321
 4114SOL     OW14238  14.026   6.409   7.714
 4114SOL    HW114239  14.110   6.398   7.759
 4114SOL    HW214240  14.027   6.500   7.685
 4115SOL     OW14241   3.227   8.536  14.038
 4115SOL    HW114242   3.279   8.613  14.014
 4115SOL    HW214243   3.142   8.572  14.064
 4116SOL     OW14244  12.571   7.039   6.316
 4116SOL    HW114245  12.656   7.077   6.292
 4116SOL    HW214246  12.515   7.116   6.332
 4117SOL     OW14247  14.204   0.822   6.575
 4117SOL    HW114248  14.172   0.912   6.579
 4117SOL    HW214249  14.185   0.793   6.486
 4118SOL     OW14250   1.331  11.742   9.277
 4118SOL    HW114251   1.376  11.734   9.361
 4118SOL    HW214252   1.240  11.720   9.297
 4119SOL     OW14253   3.440   6.947   2.991
 4119SOL    HW114254   3.456   6.938   3.085
 4119SOL    HW214255   3.348   6.972   2.985
 4120SOL     OW14256   8.110   9.765   6.013
 4120SOL    HW114257   8.199   9.746   6.040
 4120SOL    HW214258   8.072   9.680   5.992
 4121SOL     OW14259  11.042   3.615   0.968
 4121SOL    HW114260  11.025   3.644   1.058
 4121SOL    HW214261  10.977   3.547   0.952
 4122SOL     OW14262   3.039   5.850   2.776
 4122SOL    HW114263   2.955   5.896   2.785
 4122SOL    HW214264   3.098   5.915   2.739
 4123SOL     OW14265  14.333   3.208   0.680
 4123SOL    HW114266  14.308   3.296   0.707
 4123SOL    HW214267  14.412   3.220   0.627
 4124SOL     OW14268   7.581  13.157  10.360
 4124SOL    HW114269   7.517  13.087  10.371
 4124SOL    HW214270   7.656  13.114  10.319
 4125SOL     OW14271   1.076  14.681   2.701
 4125SOL    HW114272   1.028  14.660   2.781
 4125SOL    HW214273   1.089  14.776   2.706
 4126SOL     OW14274   6.476  14.634   5.709
 4126SOL    HW114275   6.441  14.706   5.761
 4126SOL    HW214276   6.541  14.675   5.652
 4127SOL     OW14277  10.548   4.832   2.490
 4127SOL    HW114278  10.492   4.810   2.565
 4127SOL    HW214279  10.515   4.776   2.419
 4128SOL     OW14280   6.338  11.699  10.175
 4128SOL    HW114281   6.275  11.760  10.138
 4128SOL    HW214282   6.319  11.616  10.133
 4129SOL     OW14283   8.917   7.056  12.120
 4129SOL    HW114284   8.986   7.099  12.171
 4129SOL    HW214285   8.957   6.975  12.089
 4130SOL     OW14286   5.982  13.501   8.770
 4130SOL    HW114287   5.910  13.563   8.765
 4130SOL    HW214288   6.003  13.481   8.679
 4131SOL     OW14289   2.689   8.145   4.336
 4131SOL    HW114290   2.672   8.082   4.266
 4131SOL    HW214291   2.784   8.154   4.338
 4132SOL     OW14292   8.433   7.019  13.366
 4132SOL    HW114293   8.506   6.960  13.348
 4132SOL    HW214294   8.402   7.047  13.280
 4133SOL     OW14295  14.105   5.533  12.811
 4133SOL    HW114296  14.178   5.495  12.860
 4133SOL    HW214297  14.104   5.484  12.728
 4134SOL     OW14298   1.479  14.747  11.776
 4134SOL    HW114299   1.398  14.797  11.760
 4134SOL    HW214300   1.534  14.806  11.828
 4135SOL     OW14301   6.269  14.595   0.277
 4135SOL    HW114302   6.260  14.583   0.182
 4135SOL    HW214303   6.192  14.646   0.302
 4136SOL     OW14304   4.416   9.206   0.519
 4136SOL    HW114305   4.430   9.121   0.477
 4136SOL    HW214306   4.454   9.269   0.458
 4137SOL     OW14307  10.900   1.568  11.304
 4137SOL    HW114308  10.818   1.558  11.255
 4137SOL    HW214309  10.917   1.662  11.303
 4138SOL     OW14310   1.254   0.844  10.543
 4138SOL    HW114311   1.254   0.938  10.521
 4138SOL    HW214312   1.308   0.804  10.475
 4139SOL     OW14313   9.124  13.021   6.914
 4139SOL    HW114314   9.103  13.088   6.980
 4139SOL    HW214315   9.104  12.938   6.957
 4140SOL     OW14316   6.422  11.359  12.105
 4140SOL    HW114317   6.377  11.322  12.029
 4140SOL    HW214318   6.357  11.356  12.175
 4141SOL     OW14319   8.773  13.561   0.907
 4141SOL    HW114320   8.723  13.641   0.893
 4141SOL    HW214321   8.800  13.534   0.820
 4142SOL     OW14322   0.818   8.449  10.523
 4142SOL    HW114323   0.783   8.446  10.434
 4142SOL    HW214324   0.893   8.509  10.517
 4143SOL     OW14325   5.824  10.017   2.978
 4143SOL    HW114326   5.773  10.060   3.047
 4143SOL    HW214327   5.883  10.085   2.946
 4144SOL     OW14328  10.796  12.383   0.062
 4144SOL    HW114329  10.801  12.475   0.090
 4144SOL    HW214330  10.781  12.387  14.837
 4145SOL     OW14331  11.403   0.851   9.300
 4145SOL    HW114332  11.329   0.822   9.247
 4145SOL    HW214333  11.402   0.794   9.377
 4146SOL     OW14334   3.235   0.334  13.804
 4146SOL    HW114335   3.158   0.315  13.858
 4146SOL    HW214336   3.308   0.330  13.866
 4147SOL     OW14337   6.940   0.357   2.994
 4147SOL    HW114338   7.034   0.352   2.976
 4147SOL    HW214339   6.910   0.434   2.946
 4148SOL     OW14340   6.397   3.776   3.439
 4148SOL    HW114341   6.441   3.839   3.497
 4148SOL    HW214342   6.309   3.768   3.476
 4149SOL     OW14343   8.039  14.432  13.686
 4149SOL    HW114344   8.009  14.467  13.770
 4149SOL    HW214345   8.011  14.496  13.622
 4150SOL     OW14346  11.115  14.384  11.640
 4150SOL    HW114347  11.068  14.411  11.720
 4150SOL    HW214348  11.048  14.341  11.587
 4151SOL     OW14349  12.716   1.134  11.754
 4151SOL    HW114350  12.772   1.095  11.822
 4151SOL    HW214351  12.627   1.118  11.785
 4152SOL     OW14352   7.000   8.327  12.904
 4152SOL    HW114353   7.057   8.375  12.844
 4152SOL    HW214354   6.929   8.387  12.924
 4153SOL     OW14355  12.980   8.112  13.424
 4153SOL    HW114356  12.954   8.096  13.334
 4153SOL    HW214357  13.073   8.090  13.427
 4154SOL     OW14358   3.229   4.354   3.684
 4154SOL    HW114359   3.321   4.374   3.670
 4154SOL    HW214360   3.195   4.430   3.732
 4155SOL     OW14361   5.431   3.338  10.795
 4155SOL    HW114362   5.341   3.372  10.792
 4155SOL    HW214363   5.421   3.243  10.785
 4156SOL     OW14364  12.294  10.489   9.842
 4156SOL    HW114365  12.340  10.443   9.772
 4156SOL    HW214366  12.221  10.432   9.865
 4157SOL     OW14367   2.863  10.896   3.543
 4157SOL    HW114368   2.773  10.902   3.575
 4157SOL    HW214369   2.904  10.979   3.567
 4158SOL     OW14370   5.120   1.571   3.830
 4158SOL    HW114371   5.118   1.609   3.742
 4158SOL    HW214372   5.214   1.559   3.848
 4159SOL     OW14373   2.397   5.002   2.308
 4159SOL    HW114374   2.306   4.998   2.336
 4159SOL    HW214375   2.435   5.074   2.358
 4160SOL     OW14376  11.798   5.556   2.442
 4160SOL    HW114377  11.794   5.464   2.417
 4160SOL    HW214378  11.828   5.555   2.533
 4161SOL     OW14379  13.141  10.792  12.862
 4161SOL    HW114380  13.092  10.856  12.913
 4161SOL    HW214381  13.144  10.829  12.773
 4162SOL     OW14382   1.696   4.796   2.134
 4162SOL    HW114383   1.638   4.779   2.059
 4162SOL    HW214384   1.770   4.738   2.121
 4163SOL     OW14385   2.149   8.927   7.864
 4163SOL    HW114386   2.155   8.961   7.775
 4163SOL    HW214387   2.239   8.905   7.888
 4164SOL     OW14388   1.775   1.802   5.931
 4164SOL    HW114389   1.800   1.721   5.886
 4164SOL    HW214390   1.855   1.855   5.932
 4165SOL     OW14391   0.396  13.019   1.058
 4165SOL    HW114392   0.331  12.988   1.121
 4165SOL    HW214393   0.363  13.104   1.029
 4166SOL     OW14394  10.704  10.001   7.169
 4166SOL    HW114395  10.742   9.915   7.151
 4166SOL    HW214396  10.655  10.022   7.090
 4167SOL     OW14397   4.672   2.853   5.233
 4167SOL    HW114398   4.731   2.860   5.308
 4167SOL    HW214399   4.712   2.910   5.167
 4168SOL     OW14400   4.916   6.597   8.143
 4168SOL    HW114401   4.938   6.601   8.236
 4168SOL    HW214402   5.000   6.589   8.099
 4169SOL     OW14403   1.706   5.659   5.629
 4169SOL    HW114404   1.651   5.732   5.599
 4169SOL    HW214405   1.701   5.595   5.558
 4170SOL     OW14406   5.454   6.880   5.043
 4170SOL    HW114407   5.370   6.920   5.067
 4170SOL    HW214408   5.508   6.888   5.122
 4171SOL     OW14409   2.251  10.741   3.903
 4171SOL    HW114410   2.237  10.657   3.948
 4171SOL    HW214411   2.175  10.794   3.928
 4172SOL     OW14412   4.613   9.176  10.172
 4172SOL    HW114413   4.576   9.088  10.180
 4172SOL    HW214414   4.545   9.227  10.128
 4173SOL     OW14415  12.547  10.245  10.715
 4173SOL    HW114416  12.624  10.195  10.688
 4173SOL    HW214417  12.496  10.254  10.635
 4174SOL     OW14418   0.764  11.112   8.324
 4174SOL    HW114419   0.857  11.132   8.327
 4174SOL    HW214420   0.760  11.016   8.331
 4175SOL     OW14421  14.146   0.380   3.270
 4175SOL    HW114422  14.173   0.348   3.357
 4175SOL    HW214423  14.121   0.471   3.285
 4176SOL     OW14424   9.955  13.748  13.106
 4176SOL    HW114425   9.972  13.698  13.026
 4176SOL    HW214426  10.024  13.814  13.109
 4177SOL     OW14427  13.841   8.569   6.437
 4177SOL    HW114428  13.932   8.582   6.464
 4177SOL    HW214429  13.799   8.654   6.452
 4178SOL     OW14430  11.752   4.291   2.373
 4178SOL    HW114431  11.671   4.328   2.338
 4178SOL    HW214432  11.745   4.197   2.354
 4179SOL     OW14433   7.213  14.594   4.977
 4179SOL    HW114434   7.123  14.625   4.988
 4179SOL    HW214435   7.209  14.535   4.902
 4180SOL     OW14436   6.596   0.909   6.880
 4180SOL    HW114437   6.614   1.001   6.858
 4180SOL    HW214438   6.584   0.867   6.794
 4181SOL     OW14439   4.178  12.071   6.633
 4181SOL    HW114440   4.250  12.012   6.653
 4181SOL    HW214441   4.099  12.019   6.646
 4182SOL     OW14442   4.875   2.801   5.394
 4182SOL    HW114443   4.971   2.810   5.391
 4182SOL    HW214444   4.859   2.735   5.461
 4183SOL     OW14445  10.799   8.746  13.891
 4183SOL    HW114446  10.824   8.655  13.904
 4183SOL    HW214447  10.743   8.767  13.966
 4184SOL     OW14448   5.826   5.518  11.226
 4184SOL    HW114449   5.755   5.474  11.272
 4184SOL    HW214450   5.790   5.539  11.140
 4185SOL     OW14451   3.074   9.645   2.849
 4185SOL    HW114452   2.996   9.622   2.799
 4185SOL    HW214453   3.047   9.636   2.941
 4186SOL     OW14454  12.169   5.674   2.170
 4186SOL    HW114455  12.113   5.672   2.247
 4186SOL    HW214456  12.130   5.610   2.110
 4187SOL     OW14457  13.681   8.762   7.875
 4187SOL    HW114458  13.605   8.777   7.819
 4187SOL    HW214459  13.727   8.689   7.834
 4188SOL     OW14460   0.273   7.514   8.386
 4188SOL    HW114461   0.342   7.541   8.446
 4188SOL    HW214462   0.298   7.553   8.302
 4189SOL     OW14463  13.808  12.820   8.323
 4189SOL    HW114464  13.886  12.864   8.289
 4189SOL    HW214465  13.841  12.739   8.361
 4190SOL     OW14466   4.847   5.703  14.857
 4190SOL    HW114467   4.820   5.648   0.061
 4190SOL    HW214468   4.793   5.782  14.865
 4191SOL     OW14469   0.887   3.612   7.431
 4191SOL    HW114470   0.951   3.552   7.394
 4191SOL    HW214471   0.857   3.568   7.510
 4192SOL     OW14472  10.151   3.209  10.485
 4192SOL    HW114473  10.088   3.278  10.463
 4192SOL    HW214474  10.099   3.142  10.528
 4193SOL     OW14475  14.450   5.839  11.038
 4193SOL    HW114476  14.527   5.849  10.982
 4193SOL    HW214477  14.442   5.923  11.083
 4194SOL     OW14478   1.727   2.387  10.395
 4194SOL    HW114479   1.780   2.456  10.356
 4194SOL    HW214480   1.751   2.308  10.346
 4195SOL     OW14481   8.938  10.723  13.164
 4195SOL    HW114482   8.954  10.816  13.144
 4195SOL    HW214483   9.002  10.676  13.111
 4196SOL     OW14484  13.815   7.121  11.684
 4196SOL    HW114485  13.795   7.188  11.618
 4196SOL    HW214486  13.801   7.038  11.639
 4197SOL     OW14487  11.795   1.852   3.437
 4197SOL    HW114488  11.808   1.946   3.424
 4197SOL    HW214489  11.825   1.812   3.355
 4198SOL     OW14490   3.784  11.580   3.031
 4198SOL    HW114491   3.795  11.561   2.938
 4198SOL    HW214492   3.812  11.499   3.075
 4199SOL     OW14493  11.206   9.161  13.147
 4199SOL    HW114494  11.170   9.140  13.061
 4199SOL    HW214495  11.163   9.101  13.207
 4200SOL     OW14496   5.890  12.761  13.375
 4200SOL    HW114497   5.882  12.824  13.303
 4200SOL    HW214498   5.979  12.727  13.368
 4201SOL     OW14499   5.196   7.312   0.983
 4201SOL    HW114500   5.186   7.383   0.920
 4201SOL    HW214501   5.106   7.288   1.006
 4202SOL     OW14502  10.634   4.419   3.257
 4202SOL    HW114503  10.562   4.476   3.284
 4202SOL    HW214504  10.701   4.432   3.324
 4203SOL     OW14505   1.497   6.287  12.725
 4203SOL    HW114506   1.589   6.291  12.699
 4203SOL    HW214507   1.449   6.328  12.653
 4204SOL     OW14508  11.981   2.442   0.670
 4204SOL    HW114509  12.000   2.354   0.637
 4204SOL    HW214510  12.006   2.500   0.598
 4205SOL     OW14511   1.554   0.995  13.258
 4205SOL    HW114512   1.540   0.995  13.352
 4205SOL    HW214513   1.515   0.913  13.228
 4206SOL     OW14514   0.224   0.816   8.879
 4206SOL    HW114515   0.255   0.771   8.958
 4206SOL    HW214516   0.256   0.906   8.888
 4207SOL     OW14517   4.686   8.868   2.279
 4207SOL    HW114518   4.630   8.790   2.271
 4207SOL    HW214519   4.644   8.921   2.347
 4208SOL     OW14520   5.455   7.544  12.999
 4208SOL    HW114521   5.490   7.619  13.048
 4208SOL    HW214522   5.450   7.575  12.909
 4209SOL     OW14523   0.633   7.310   6.594
 4209SOL    HW114524   0.716   7.357   6.582
 4209SOL    HW214525   0.617   7.314   6.688
 4210SOL     OW14526   7.029   5.856  14.031
 4210SOL    HW114527   7.012   5.768  14.066
 4210SOL    HW214528   6.971   5.913  14.080
 4211SOL     OW14529   1.366   2.296  10.865
 4211SOL    HW114530   1.336   2.384  10.844
 4211SOL    HW214531   1.382   2.255  10.781
 4212SOL     OW14532  13.881   4.322   8.031
 4212SOL    HW114533  13.958   4.343   7.978
 4212SOL    HW214534  13.877   4.393   8.096
 4213SOL     OW14535   5.179   0.986   1.051
 4213SOL    HW114536   5.085   0.968   1.043
 4213SOL    HW214537   5.202   0.954   1.139
 4214SOL     OW14538   1.303   0.174   9.057
 4214SOL    HW114539   1.356   0.251   9.077
 4214SOL    HW214540   1.262   0.152   9.141
 4215SOL     OW14541   5.590  13.858   7.448
 4215SOL    HW114542   5.561  13.797   7.381
 4215SOL    HW214543   5.561  13.819   7.530
 4216SOL     OW14544   6.574   6.774  14.185
 4216SOL    HW114545   6.537   6.858  14.211
 4216SOL    HW214546   6.593   6.784  14.091
 4217SOL     OW14547  13.324   6.821  11.240
 4217SOL    HW114548  13.289   6.907  11.262
 4217SOL    HW214549  13.419   6.833  11.238
 4218SOL     OW14550  13.661   8.937  12.997
 4218SOL    HW114551  13.678   9.021  12.954
 4218SOL    HW214552  13.724   8.932  13.068
 4219SOL     OW14553   0.369   6.289   5.375
 4219SOL    HW114554   0.446   6.316   5.425
 4219SOL    HW214555   0.295   6.317   5.428
 4220SOL     OW14556   9.526  12.538   5.287
 4220SOL    HW114557   9.516  12.443   5.281
 4220SOL    HW214558   9.469  12.573   5.218
 4221SOL     OW14559  11.213   0.399   3.454
 4221SOL    HW114560  11.291   0.371   3.406
 4221SOL    HW214561  11.206   0.493   3.435
 4222SOL     OW14562   4.796  11.777  13.912
 4222SOL    HW114563   4.865  11.795  13.847
 4222SOL    HW214564   4.720  11.754  13.859
 4223SOL     OW14565   8.823  11.187  13.369
 4223SOL    HW114566   8.878  11.116  13.404
 4223SOL    HW214567   8.748  11.190  13.428
 4224SOL     OW14568  13.679   8.718  13.674
 4224SOL    HW114569  13.643   8.664  13.745
 4224SOL    HW214570  13.688   8.805  13.713
 4225SOL     OW14571   1.844   8.471   0.373
 4225SOL    HW114572   1.840   8.379   0.397
 4225SOL    HW214573   1.849   8.518   0.456
 4226SOL     OW14574   8.225  14.609   8.236
 4226SOL    HW114575   8.316  14.579   8.248
 4226SOL    HW214576   8.181  14.583   8.317
 4227SOL     OW14577   6.717   6.343  13.547
 4227SOL    HW114578   6.752   6.337  13.458
 4227SOL    HW214579   6.641   6.284  13.546
 4228SOL     OW14580   3.972   1.824  14.555
 4228SOL    HW114581   4.020   1.771  14.492
 4228SOL    HW214582   4.040   1.872  14.602
 4229SOL     OW14583   2.052   6.494   9.969
 4229SOL    HW114584   2.110   6.545  10.025
 4229SOL    HW214585   1.973   6.548   9.961
 4230SOL     OW14586   3.933  12.254   8.209
 4230SOL    HW114587   3.968  12.280   8.124
 4230SOL    HW214588   3.841  12.281   8.206
 4231SOL     OW14589  11.844   3.073   7.601
 4231SOL    HW114590  11.890   2.994   7.629
 4231SOL    HW214591  11.911   3.127   7.560
 4232SOL     OW14592   9.758   2.204   2.040
 4232SOL    HW114593   9.820   2.207   2.113
 4232SOL    HW214594   9.681   2.251   2.071
 4233SOL     OW14595   9.935  14.097   1.128
 4233SOL    HW114596   9.866  14.093   1.195
 4233SOL    HW214597   9.987  14.174   1.151
 4234SOL     OW14598   8.204   8.266  13.369
 4234SOL    HW114599   8.225   8.328  13.438
 4234SOL    HW214600   8.113   8.283  13.348
 4235SOL     OW14601   2.412   7.685   4.642
 4235SOL    HW114602   2.327   7.658   4.607
 4235SOL    HW214603   2.420   7.639   4.725
 4236SOL     OW14604   4.027   8.909  10.535
 4236SOL    HW114605   4.082   8.832  10.545
 4236SOL    HW214606   3.953   8.894  10.594
 4237SOL     OW14607   4.638   9.212   6.784
 4237SOL    HW114608   4.555   9.258   6.794
 4237SOL    HW214609   4.620   9.122   6.812
 4238SOL     OW14610   3.992   1.264  14.413
 4238SOL    HW114611   3.951   1.314  14.483
 4238SOL    HW214612   3.947   1.291  14.333
 4239SOL     OW14613   9.997  11.889   5.450
 4239SOL    HW114614   9.966  11.949   5.381
 4239SOL    HW214615   9.919  11.872   5.503
 4240SOL     OW14616  11.483   9.626   7.625
 4240SOL    HW114617  11.422   9.563   7.664
 4240SOL    HW214618  11.458   9.710   7.663
 4241SOL     OW14619   3.489   7.428  10.481
 4241SOL    HW114620   3.573   7.403  10.442
 4241SOL    HW214621   3.456   7.347  10.520
 4242SOL     OW14622  10.132  13.844   8.313
 4242SOL    HW114623  10.193  13.892   8.257
 4242SOL    HW214624  10.056  13.901   8.320
 4243SOL     OW14625   9.671   2.185   3.921
 4243SOL    HW114626   9.651   2.230   3.839
 4243SOL    HW214627   9.592   2.195   3.974
 4244SOL     OW14628   6.299   9.910   0.898
 4244SOL    HW114629   6.310   9.834   0.841
 4244SOL    HW214630   6.348   9.980   0.854
 4245SOL     OW14631   1.418  10.572   8.594
 4245SOL    HW114632   1.489  10.520   8.556
 4245SOL    HW214633   1.463  10.647   8.633
 4246SOL     OW14634  14.605   3.964   7.680
 4246SOL    HW114635  14.684   3.954   7.628
 4246SOL    HW214636  14.596   4.058   7.693
 4247SOL     OW14637  10.896  14.509   2.408
 4247SOL    HW114638  10.901  14.558   2.326
 4247SOL    HW214639  10.923  14.572   2.475
 4248SOL     OW14640  12.860  12.078   7.388
 4248SOL    HW114641  12.819  12.012   7.444
 4248SOL    HW214642  12.853  12.043   7.300
 4249SOL     OW14643   9.010   6.690  13.257
 4249SOL    HW114644   9.018   6.665  13.349
 4249SOL    HW214645   9.099   6.684  13.223
 4250SOL     OW14646   5.638   2.118  12.440
 4250SOL    HW114647   5.678   2.129  12.353
 4250SOL    HW214648   5.561   2.064  12.424
 4251SOL     OW14649   7.525   2.580   5.794
 4251SOL    HW114650   7.502   2.669   5.768
 4251SOL    HW214651   7.510   2.527   5.716
 4252SOL     OW14652   3.143  11.895  11.548
 4252SOL    HW114653   3.131  11.962  11.480
 4252SOL    HW214654   3.054  11.864  11.565
 4253SOL     OW14655   0.114   7.020   5.334
 4253SOL    HW114656   0.182   6.964   5.296
 4253SOL    HW214657   0.144   7.109   5.318
 4254SOL     OW14658   9.230   8.866   4.895
 4254SOL    HW114659   9.282   8.806   4.948
 4254SOL    HW214660   9.256   8.953   4.924
 4255SOL     OW14661   5.163   5.366   8.059
 4255SOL    HW114662   5.208   5.429   8.002
 4255SOL    HW214663   5.179   5.399   8.148
 4256SOL     OW14664   0.426   2.552  13.831
 4256SOL    HW114665   0.343   2.597  13.851
 4256SOL    HW214666   0.486   2.582  13.899
 4257SOL     OW14667   6.794   0.509   9.531
 4257SOL    HW114668   6.834   0.536   9.613
 4257SOL    HW214669   6.703   0.539   9.537
 4258SOL     OW14670  11.912  13.888   8.396
 4258SOL    HW114671  11.821  13.891   8.366
 4258SOL    HW214672  11.956  13.830   8.333
 4259SOL     OW14673   7.575   1.166   1.711
 4259SOL    HW114674   7.667   1.157   1.738
 4259SOL    HW214675   7.571   1.124   1.625
 4260SOL     OW14676   7.834   5.727   3.401
 4260SOL    HW114677   7.824   5.637   3.433
 4260SOL    HW214678   7.926   5.733   3.377
 4261SOL     OW14679   3.812   7.068   0.370
 4261SOL    HW114680   3.905   7.051   0.387
 4261SOL    HW214681   3.767   7.038   0.449
 4262SOL     OW14682   4.423  11.278  11.987
 4262SOL    HW114683   4.488  11.340  11.956
 4262SOL    HW214684   4.401  11.307  12.075
 4263SOL     OW14685   8.734   1.061   8.926
 4263SOL    HW114686   8.671   1.132   8.937
 4263SOL    HW214687   8.787   1.088   8.851
 4264SOL     OW14688   9.299   3.684  11.858
 4264SOL    HW114689   9.337   3.734  11.785
 4264SOL    HW214690   9.368   3.623  11.884
 4265SOL     OW14691   6.568  10.716   7.976
 4265SOL    HW114692   6.634  10.783   7.993
 4265SOL    HW214693   6.557  10.671   8.060
 4266SOL     OW14694  10.751   8.718   6.082
 4266SOL    HW114695  10.698   8.648   6.121
 4266SOL    HW214696  10.712   8.732   5.995
 4267SOL     OW14697   9.205   3.487   0.605
 4267SOL    HW114698   9.149   3.565   0.609
 4267SOL    HW214699   9.248   3.493   0.520
 4268SOL     OW14700  11.936   0.831   6.841
 4268SOL    HW114701  11.970   0.850   6.754
 4268SOL    HW214702  12.001   0.773   6.881
 4269SOL     OW14703  14.248   4.573   3.795
 4269SOL    HW114704  14.278   4.527   3.874
 4269SOL    HW214705  14.222   4.503   3.735
 4270SOL     OW14706  14.462   4.066  14.827
 4270SOL    HW114707  14.549   4.058  14.788
 4270SOL    HW214708  14.402   4.047  14.755
 4271SOL     OW14709   1.915   9.326  12.573
 4271SOL    HW114710   1.934   9.419  12.583
 4271SOL    HW214711   1.945   9.304  12.485
 4272SOL     OW14712   0.035  11.386   3.738
 4272SOL    HW114713   0.087  11.445   3.792
 4272SOL    HW214714  14.820  11.382   3.782
 4273SOL     OW14715   5.546   5.884  10.142
 4273SOL    HW114716   5.590   5.966  10.166
 4273SOL    HW214717   5.615   5.817  10.149
 4274SOL     OW14718  10.828   0.121  11.552
 4274SOL    HW114719  10.749   0.160  11.514
 4274SOL    HW214720  10.830   0.032  11.518
 4275SOL     OW14721   3.034   1.005  14.375
 4275SOL    HW114722   2.972   1.061  14.327
 4275SOL    HW214723   3.115   1.055  14.377
 4276SOL     OW14724   5.039   9.285  10.853
 4276SOL    HW114725   5.006   9.373  10.836
 4276SOL    HW214726   5.031   9.240  10.768
 4277SOL     OW14727  14.239   4.484   4.305
 4277SOL    HW114728  14.175   4.509   4.371
 4277SOL    HW214729  14.310   4.443   4.355
 4278SOL     OW14730   9.717   2.557   7.625
 4278SOL    HW114731   9.759   2.642   7.617
 4278SOL    HW214732   9.789   2.494   7.625
 4279SOL     OW14733   7.617   8.119   7.600
 4279SOL    HW114734   7.564   8.039   7.596
 4279SOL    HW214735   7.554   8.190   7.608
 4280SOL     OW14736  10.126   0.279  10.091
 4280SOL    HW114737  10.048   0.327  10.062
 4280SOL    HW214738  10.147   0.316  10.177
 4281SOL     OW14739  13.062  13.877   7.816
 4281SOL    HW114740  12.973  13.912   7.812
 4281SOL    HW214741  13.066  13.812   7.745
 4282SOL     OW14742   7.891   9.546   4.055
 4282SOL    HW114743   7.860   9.459   4.030
 4282SOL    HW214744   7.940   9.577   3.979
 4283SOL     OW14745   3.537   1.035  14.327
 4283SOL    HW114746   3.466   1.050  14.390
 4283SOL    HW214747   3.616   1.059  14.375
 4284SOL     OW14748   7.670   3.965   9.186
 4284SOL    HW114749   7.740   3.958   9.120
 4284SOL    HW214750   7.639   4.055   9.178
 4285SOL     OW14751  10.264   0.755   4.751
 4285SOL    HW114752  10.307   0.741   4.666
 4285SOL    HW214753  10.205   0.680   4.761
 4286SOL     OW14754   6.537   2.532   0.616
 4286SOL    HW114755   6.454   2.485   0.624
 4286SOL    HW214756   6.554   2.535   0.522
 4287SOL     OW14757   3.753  12.334   3.705
 4287SOL    HW114758   3.759  12.361   3.797
 4287SOL    HW214759   3.820  12.386   3.661
 4288SOL     OW14760   5.884   5.749   7.819
 4288SOL    HW114761   5.862   5.755   7.726
 4288SOL    HW214762   5.819   5.804   7.863
 4289SOL     OW14763   2.155  13.323   0.692
 4289SOL    HW114764   2.218  13.295   0.758
 4289SOL    HW214765   2.207  13.334   0.612
 4290SOL     OW14766   0.986   6.871  14.502
 4290SOL    HW114767   1.045   6.885  14.576
 4290SOL    HW214768   1.039   6.889  14.424
 4291SOL     OW14769   3.393  10.887  10.554
 4291SOL    HW114770   3.442  10.820  10.506
 4291SOL    HW214771   3.301  10.868  10.536
 4292SOL     OW14772   9.470   2.718   0.906
 4292SOL    HW114773   9.553   2.670   0.904
 4292SOL    HW214774   9.495   2.809   0.926
 4293SOL     OW14775   0.701   4.136  12.691
 4293SOL    HW114776   0.778   4.191  12.674
 4293SOL    HW214777   0.679   4.099  12.605
 4294SOL     OW14778   8.910   0.016  14.496
 4294SOL    HW114779   8.820   0.038  14.473
 4294SOL    HW214780   8.962   0.051  14.423
 4295SOL     OW14781   7.752   5.418   3.904
 4295SOL    HW114782   7.799   5.410   3.821
 4295SOL    HW214783   7.669   5.458   3.881
 4296SOL     OW14784  12.811   4.820  12.204
 4296SOL    HW114785  12.886   4.768  12.233
 4296SOL    HW214786  12.844   4.910  12.200
 4297SOL     OW14787   1.487   7.693   9.894
 4297SOL    HW114788   1.424   7.747   9.845
 4297SOL    HW214789   1.490   7.733   9.981
 4298SOL     OW14790   3.077  10.750   9.081
 4298SOL    HW114791   3.159  10.792   9.056
 4298SOL    HW214792   3.045  10.801   9.155
 4299SOL     OW14793  13.428   7.452   4.911
 4299SOL    HW114794  13.484   7.475   4.837
 4299SOL    HW214795  13.427   7.357   4.912
 4300SOL     OW14796   6.980   9.111   9.106
 4300SOL    HW114797   6.957   9.084   9.195
 4300SOL    HW214798   6.905   9.084   9.052
 4301SOL     OW14799   9.447  11.991   2.126
 4301SOL    HW114800   9.418  11.941   2.049
 4301SOL    HW214801   9.478  11.924   2.188
 4302SOL     OW14802  13.299  14.650  12.669
 4302SOL    HW114803  13.379  14.651  12.721
 4302SOL    HW214804  13.308  14.573  12.612
 4303SOL     OW14805  13.131   0.701   6.241
 4303SOL    HW114806  13.139   0.779   6.296
 4303SOL    HW214807  13.108   0.735   6.155
 4304SOL     OW14808   1.023  13.332   0.582
 4304SOL    HW114809   1.039  13.416   0.625
 4304SOL    HW214810   1.033  13.267   0.651
 4305SOL     OW14811  12.857   4.366   2.800
 4305SOL    HW114812  12.801   4.327   2.867
 4305SOL    HW214813  12.945   4.337   2.823
 4306SOL     OW14814  11.841   9.712  10.890
 4306SOL    HW114815  11.776   9.668  10.836
 4306SOL    HW214816  11.868   9.788  10.839
 4307SOL     OW14817   9.342   1.838   7.812
 4307SOL    HW114818   9.394   1.888   7.749
 4307SOL    HW214819   9.301   1.770   7.761
 4308SOL     OW14820   1.591   1.306   7.635
 4308SOL    HW114821   1.637   1.327   7.716
 4308SOL    HW214822   1.615   1.215   7.617
 4309SOL     OW14823   1.026   2.063   5.904
 4309SOL    HW114824   1.033   2.071   5.808
 4309SOL    HW214825   1.116   2.046   5.933
 4310SOL     OW14826   3.187  10.892   4.825
 4310SOL    HW114827   3.103  10.885   4.780
 4310SOL    HW214828   3.238  10.818   4.793
 4311SOL     OW14829   8.861   1.869  13.423
 4311SOL    HW114830   8.770   1.888  13.446
 4311SOL    HW214831   8.903   1.954  13.415
 4312SOL     OW14832   7.827   6.726   1.426
 4312SOL    HW114833   7.765   6.696   1.493
 4312SOL    HW214834   7.873   6.799   1.467
 4313SOL     OW14835   1.906   8.915   4.823
 4313SOL    HW114836   1.981   8.872   4.865
 4313SOL    HW214837   1.887   8.861   4.747
 4314SOL     OW14838  10.872   7.790  10.179
 4314SOL    HW114839  10.793   7.739  10.163
 4314SOL    HW214840  10.875   7.854  10.109
 4315SOL     OW14841   1.851   6.523   5.830
 4315SOL    HW114842   1.801   6.602   5.809
 4315SOL    HW214843   1.843   6.468   5.752
 4316SOL     OW14844   4.465   8.021   1.225
 4316SOL    HW114845   4.458   7.947   1.165
 4316SOL    HW214846   4.518   8.085   1.177
 4317SOL     OW14847  10.714  13.976  10.047
 4317SOL    HW114848  10.767  13.896  10.049
 4317SOL    HW214849  10.745  14.023   9.969
 4318SOL     OW14850   1.149   4.429   1.506
 4318SOL    HW114851   1.220   4.489   1.488
 4318SOL    HW214852   1.175   4.384   1.587
 4319SOL     OW14853  10.661   1.979  10.601
 4319SOL    HW114854  10.622   1.897  10.571
 4319SOL    HW214855  10.589   2.025  10.644
 4320SOL     OW14856   4.964  13.565  12.710
 4320SOL    HW114857   4.883  13.517  12.727
 4320SOL    HW214858   5.027  13.498  12.686
 4321SOL     OW14859  10.211   4.814   6.935
 4321SOL    HW114860  10.161   4.742   6.897
 4321SOL    HW214861  10.197   4.807   7.029
 4322SOL     OW14862   4.723  12.473  14.118
 4322SOL    HW114863   4.711  12.462  14.023
 4322SOL    HW214864   4.672  12.401  14.156
 4323SOL     OW14865  11.906   1.105  10.569
 4323SOL    HW114866  11.849   1.041  10.528
 4323SOL    HW214867  11.856   1.187  10.568
 4324SOL     OW14868   2.432  13.981   7.504
 4324SOL    HW114869   2.445  14.042   7.431
 4324SOL    HW214870   2.495  13.911   7.489
 4325SOL     OW14871   3.148   7.342   9.026
 4325SOL    HW114872   3.074   7.402   9.032
 4325SOL    HW214873   3.224   7.395   9.051
 4326SOL     OW14874  12.951   3.235   5.181
 4326SOL    HW114875  13.021   3.298   5.200
 4326SOL    HW214876  12.880   3.259   5.240
 4327SOL     OW14877  14.470   2.147   3.361
 4327SOL    HW114878  14.562   2.162   3.337
 4327SOL    HW214879  14.425   2.138   3.277
 4328SOL     OW14880  14.649  11.547  10.118
 4328SOL    HW114881  14.604  11.590  10.045
 4328SOL    HW214882  14.661  11.457  10.089
 4329SOL     OW14883   8.141   6.728  14.363
 4329SOL    HW114884   8.234   6.718  14.380
 4329SOL    HW214885   8.098   6.682  14.436
 4330SOL     OW14886   9.832  11.708   1.121
 4330SOL    HW114887   9.751  11.665   1.094
 4330SOL    HW214888   9.811  11.801   1.121
 4331SOL     OW14889   8.171  13.411   4.820
 4331SOL    HW114890   8.234  13.437   4.753
 4331SOL    HW214891   8.224  13.374   4.890
 4332SOL     OW14892  12.748   6.595   0.070
 4332SOL    HW114893  12.740   6.626  14.850
 4332SOL    HW214894  12.752   6.500   0.062
 4333SOL     OW14895  10.892   1.861   2.997
 4333SOL    HW114896  10.825   1.930   2.993
 4333SOL    HW214897  10.972   1.904   2.967
 4334SOL     OW14898   9.437   3.420   8.506
 4334SOL    HW114899   9.492   3.421   8.427
 4334SOL    HW214900   9.402   3.331   8.509
 4335SOL     OW14901   7.086   1.670   0.396
 4335SOL    HW114902   7.018   1.618   0.439
 4335SOL    HW214903   7.091   1.751   0.447
 4336SOL     OW14904  14.192   1.396  13.331
 4336SOL    HW114905  14.228   1.307  13.340
 4336SOL    HW214906  14.217   1.440  13.412
 4337SOL     OW14907   1.734   7.487  13.781
 4337SOL    HW114908   1.768   7.486  13.692
 4337SOL    HW214909   1.711   7.579  13.797
 4338SOL     OW14910   0.972  11.196   7.122
 4338SOL    HW114911   0.988  11.261   7.190
 4338SOL    HW214912   0.960  11.114   7.170
 4339SOL     OW14913   8.952   3.970  13.432
 4339SOL    HW114914   9.012   3.895  13.438
 4339SOL    HW214915   8.963   4.002  13.343
 4340SOL     OW14916   1.779   3.731   2.099
 4340SOL    HW114917   1.840   3.687   2.040
 4340SOL    HW214918   1.696   3.687   2.084
 4341SOL     OW14919   1.044   5.003   2.633
 4341SOL    HW114920   1.108   5.066   2.664
 4341SOL    HW214921   1.086   4.959   2.560
 4342SOL     OW14922   1.268  10.453   1.294
 4342SOL    HW114923   1.240  10.509   1.366
 4342SOL    HW214924   1.348  10.495   1.261
 4343SOL     OW14925  14.261   0.348  13.295
 4343SOL    HW114926  14.262   0.310  13.207
 4343SOL    HW214927  14.295   0.437  13.282
 4344SOL     OW14928   0.981  12.586  10.430
 4344SOL    HW114929   0.926  12.523  10.477
 4344SOL    HW214930   0.947  12.672  10.456
 4345SOL     OW14931   4.167   8.391   8.584
 4345SOL    HW114932   4.195   8.448   8.657
 4345SOL    HW214933   4.157   8.305   8.624
 4346SOL     OW14934   7.547   1.073   2.196
 4346SOL    HW114935   7.626   1.051   2.147
 4346SOL    HW214936   7.572   1.149   2.249
 4347SOL     OW14937   5.634   1.883   5.177
 4347SOL    HW114938   5.580   1.864   5.253
 4347SOL    HW214939   5.583   1.946   5.126
 4348SOL     OW14940  13.136   1.732   4.960
 4348SOL    HW114941  13.088   1.663   5.006
 4348SOL    HW214942  13.224   1.728   4.996
 4349SOL     OW14943   6.852  10.241   0.175
 4349SOL    HW114944   6.807  10.161   0.146
 4349SOL    HW214945   6.796  10.312   0.144
 4350SOL     OW14946   5.385  12.514   2.358
 4350SOL    HW114947   5.454  12.572   2.389
 4350SOL    HW214948   5.430  12.432   2.338
 4351SOL     OW14949   2.526   3.988   4.024
 4351SOL    HW114950   2.528   4.017   3.933
 4351SOL    HW214951   2.436   4.004   4.052
 4352SOL     OW14952  12.796   9.323   6.305
 4352SOL    HW114953  12.855   9.311   6.379
 4352SOL    HW214954  12.850   9.366   6.238
 4353SOL     OW14955  10.767  12.147  10.590
 4353SOL    HW114956  10.703  12.216  10.606
 4353SOL    HW214957  10.718  12.066  10.600
 4354SOL     OW14958  12.791   6.931   6.810
 4354SOL    HW114959  12.787   7.014   6.858
 4354SOL    HW214960  12.799   6.956   6.718
 4355SOL     OW14961  14.773   3.896   4.162
 4355SOL    HW114962  14.725   3.822   4.200
 4355SOL    HW214963  14.833   3.856   4.100
 4356SOL     OW14964   1.994  12.560   4.547
 4356SOL    HW114965   2.033  12.641   4.581
 4356SOL    HW214966   1.939  12.529   4.619
 4357SOL     OW14967   4.274   8.690   0.024
 4357SOL    HW114968   4.200   8.713   0.081
 4357SOL    HW214969   4.291   8.771  14.845
 4358SOL     OW14970   7.241   4.267  14.707
 4358SOL    HW114971   7.278   4.316  14.780
 4358SOL    HW214972   7.295   4.290  14.632
 4359SOL     OW14973   7.486  11.876  10.798
 4359SOL    HW114974   7.474  11.829  10.881
 4359SOL    HW214975   7.530  11.813  10.741
 4360SOL     OW14976  12.903   8.747   9.883
 4360SOL    HW114977  12.855   8.819   9.924
 4360SOL    HW214978  12.965   8.718   9.950
 4361SOL     OW14979   3.935   2.008   9.584
 4361SOL    HW114980   3.921   2.100   9.608
 4361SOL    HW214981   3.970   1.968   9.664
 4362SOL     OW14982  14.320   0.201   8.700
 4362SOL    HW114983  14.354   0.195   8.611
 4362SOL    HW214984  14.230   0.171   8.693
 4363SOL     OW14985  14.846   1.153  11.912
 4363SOL    HW114986   0.007   1.071  11.951
 4363SOL    HW214987  14.837   1.133  11.819
 4364SOL     OW14988   7.621   9.495   8.407
 4364SOL    HW114989   7.626   9.445   8.325
 4364SOL    HW214990   7.631   9.586   8.379
 4365SOL     OW14991  12.109   7.170   8.691
 4365SOL    HW114992  12.093   7.230   8.618
 4365SOL    HW214993  12.065   7.089   8.664
 4366SOL     OW14994   0.947  12.097  14.315
 4366SOL    HW114995   0.922  12.179  14.272
 4366SOL    HW214996   1.026  12.069  14.269
 4367SOL     OW14997   8.884  14.226  11.878
 4367SOL    HW114998   8.809  14.181  11.918
 4367SOL    HW214999   8.939  14.251  11.952
 4368SOL     OW15000  11.049   0.305  14.266
 4368SOL    HW115001  10.969   0.254  14.279
 4368SOL    HW215002  11.021   0.396  14.276
 4369SOL     OW15003   2.068   3.716   8.850
 4369SOL    HW115004   2.079   3.629   8.889
 4369SOL    HW215005   2.156   3.739   8.821
 4370SOL     OW15006   9.490   1.015   7.056
 4370SOL    HW115007   9.398   1.044   7.056
 4370SOL    HW215008   9.540   1.094   7.034
 4371SOL     OW15009  14.786   8.414   3.851
 4371SOL    HW115010  14.844   8.344   3.882
 4371SOL    HW215011  14.811   8.491   3.901
 4372SOL     OW15012   3.101  11.168  13.926
 4372SOL    HW115013   3.103  11.236  13.860
 4372SOL    HW215014   3.016  11.125  13.914
 4373SOL     OW15015   7.724  10.481  13.704
 4373SOL    HW115016   7.793  10.438  13.654
 4373SOL    HW215017   7.770  10.530  13.771
 4374SOL     OW15018  10.246   1.232   0.418
 4374SOL    HW115019  10.185   1.297   0.454
 4374SOL    HW215020  10.330   1.278   0.414
 4375SOL     OW15021   9.581   0.922  10.056
 4375SOL    HW115022   9.595   0.972   9.976
 4375SOL    HW215023   9.670   0.906  10.089
 4376SOL     OW15024  13.231   9.016   7.271
 4376SOL    HW115025  13.240   8.933   7.319
 4376SOL    HW215026  13.241   9.083   7.338
 4377SOL     OW15027  13.533   0.942   2.914
 4377SOL    HW115028  13.574   0.883   2.976
 4377SOL    HW215029  13.487   0.884   2.853
 4378SOL     OW15030   7.640  11.745  10.183
 4378SOL    HW115031   7.666  11.729  10.274
 4378SOL    HW215032   7.723  11.754  10.136
 4379SOL     OW15033   5.647  14.847  14.674
 4379SOL    HW115034   5.607  14.862  14.589
 4379SOL    HW215035   5.704   0.052  14.688
 4380SOL     OW15036   5.500   3.764   1.297
 4380SOL    HW115037   5.477   3.721   1.379
 4380SOL    HW215038   5.595   3.752   1.290
 4381SOL     OW15039  14.728   6.338   7.316
 4381SOL    HW115040  14.694   6.359   7.229
 4381SOL    HW215041  14.764   6.421   7.349
 4382SOL     OW15042  11.450   9.852   6.570
 4382SOL    HW115043  11.534   9.897   6.579
 4382SOL    HW215044  11.421   9.837   6.660
 4383SOL     OW15045   3.657   5.464   3.306
 4383SOL    HW115046   3.644   5.558   3.292
 4383SOL    HW215047   3.625   5.423   3.226
 4384SOL     OW15048   8.169   3.289   7.005
 4384SOL    HW115049   8.151   3.195   6.998
 4384SOL    HW215050   8.111   3.320   7.073
 4385SOL     OW15051   2.937  14.786   4.921
 4385SOL    HW115052   2.950  14.692   4.932
 4385SOL    HW215053   2.914  14.796   4.829
 4386SOL     OW15054   3.733   5.829   7.950
 4386SOL    HW115055   3.640   5.849   7.937
 4386SOL    HW215056   3.733   5.741   7.989
 4387SOL     OW15057  13.537   5.049  12.283
 4387SOL    HW115058  13.557   5.073  12.193
 4387SOL    HW215059  13.557   5.128  12.334
 4388SOL     OW15060   5.568  10.489   7.262
 4388SOL    HW115061   5.594  10.397   7.257
 4388SOL    HW215062   5.602  10.528   7.181
 4389SOL     OW15063   0.346   0.847   3.541
 4389SOL    HW115064   0.325   0.915   3.477
 4389SOL    HW215065   0.331   0.889   3.626
 4390SOL     OW15066   1.558   5.844   5.510
 4390SOL    HW115067   1.543   5.826   5.418
 4390SOL    HW215068   1.536   5.937   5.521
 4391SOL     OW15069   2.950  10.612   6.048
 4391SOL    HW115070   3.006  10.611   5.970
 4391SOL    HW215071   2.863  10.635   6.016
 4392SOL     OW15072   5.801  11.773  10.640
 4392SOL    HW115073   5.712  11.807  10.635
 4392SOL    HW215074   5.793  11.681  10.615
 4393SOL     OW15075   9.158  12.823   4.338
 4393SOL    HW115076   9.152  12.840   4.433
 4393SOL    HW215077   9.241  12.777   4.328
 4394SOL     OW15078  13.388   7.640  10.992
 4394SOL    HW115079  13.427   7.708  11.046
 4394SOL    HW215080  13.416   7.661  10.903
 4395SOL     OW15081   9.612   7.220  11.430
 4395SOL    HW115082   9.706   7.231  11.440
 4395SOL    HW215083   9.588   7.277  11.357
 4396SOL     OW15084   8.276  12.584   0.941
 4396SOL    HW115085   8.279  12.489   0.931
 4396SOL    HW215086   8.193  12.610   0.902
 4397SOL     OW15087   6.693   9.773   9.639
 4397SOL    HW115088   6.699   9.866   9.661
 4397SOL    HW215089   6.626   9.768   9.572
 4398SOL     OW15090   7.772   1.050   7.152
 4398SOL    HW115091   7.859   1.062   7.113
 4398SOL    HW215092   7.737   1.138   7.160
 4399SOL     OW15093   2.018   7.506   1.460
 4399SOL    HW115094   1.932   7.464   1.465
 4399SOL    HW215095   2.068   7.452   1.399
 4400SOL     OW15096   9.208  12.511   3.457
 4400SOL    HW115097   9.236  12.435   3.509
 4400SOL    HW215098   9.265  12.582   3.488
 4401SOL     OW15099   8.468   9.561   0.939
 4401SOL    HW115100   8.505   9.553   0.851
 4401SOL    HW215101   8.382   9.601   0.926
 4402SOL     OW15102   8.579   9.211   0.459
 4402SOL    HW115103   8.592   9.120   0.432
 4402SOL    HW215104   8.629   9.262   0.396
 4403SOL     OW15105   9.201  10.376   5.494
 4403SOL    HW115106   9.161  10.452   5.536
 4403SOL    HW215107   9.189  10.391   5.401
 4404SOL     OW15108  11.014   8.050  11.518
 4404SOL    HW115109  11.065   8.106  11.459
 4404SOL    HW215110  10.948   8.009  11.461
 4405SOL     OW15111   8.866   8.485  11.822
 4405SOL    HW115112   8.865   8.395  11.791
 4405SOL    HW215113   8.807   8.531  11.762
 4406SOL     OW15114   8.887   0.965   4.531
 4406SOL    HW115115   8.846   0.881   4.509
 4406SOL    HW215116   8.979   0.954   4.507
 4407SOL     OW15117  13.033   6.723   4.570
 4407SOL    HW115118  13.036   6.667   4.492
 4407SOL    HW215119  13.116   6.770   4.569
 4408SOL     OW15120   2.064  14.822   2.777
 4408SOL    HW115121   2.027  14.785   2.697
 4408SOL    HW215122   2.012  14.783   2.847
 4409SOL     OW15123  10.531   5.203   8.446
 4409SOL    HW115124  10.493   5.290   8.447
 4409SOL    HW215125  10.462   5.146   8.481
 4410SOL     OW15126   6.701   7.437   7.478
 4410SOL    HW115127   6.649   7.374   7.427
 4410SOL    HW215128   6.789   7.430   7.442
 4411SOL     OW15129   7.957   7.484  12.071
 4411SOL    HW115130   8.019   7.554  12.051
 4411SOL    HW215131   8.011   7.415  12.110
 4412SOL     OW15132   5.384   8.035   1.283
 4412SOL    HW115133   5.377   7.959   1.341
 4412SOL    HW215134   5.294   8.050   1.252
 4413SOL     OW15135   5.750  12.099   2.515
 4413SOL    HW115136   5.705  12.015   2.519
 4413SOL    HW215137   5.811  12.091   2.442
 4414SOL     OW15138   2.468   8.404   3.121
 4414SOL    HW115139   2.484   8.494   3.091
 4414SOL    HW215140   2.397   8.413   3.184
 4415SOL     OW15141   8.131   6.900   8.429
 4415SOL    HW115142   8.148   6.969   8.364
 4415SOL    HW215143   8.193   6.918   8.499
 4416SOL     OW15144  12.417  13.211   6.085
 4416SOL    HW115145  12.325  13.194   6.101
 4416SOL    HW215146  12.463  13.176   6.161
 4417SOL     OW15147  12.568  13.513   0.709
 4417SOL    HW115148  12.509  13.576   0.750
 4417SOL    HW215149  12.622  13.566   0.651
 4418SOL     OW15150  13.359   3.941   3.562
 4418SOL    HW115151  13.340   3.940   3.468
 4418SOL    HW215152  13.360   3.848   3.586
 4419SOL     OW15153   8.101   8.697   4.078
 4419SOL    HW115154   8.154   8.775   4.067
 4419SOL    HW215155   8.155   8.626   4.044
 4420SOL     OW15156   1.729  11.362   5.138
 4420SOL    HW115157   1.819  11.355   5.109
 4420SOL    HW215158   1.693  11.274   5.126
 4421SOL     OW15159   0.500  14.176   9.084
 4421SOL    HW115160   0.489  14.188   8.990
 4421SOL    HW215161   0.410  14.170   9.118
 4422SOL     OW15162   1.597   0.422   2.548
 4422SOL    HW115163   1.561   0.355   2.489
 4422SOL    HW215164   1.659   0.374   2.603
 4423SOL     OW15165   4.857  12.586   2.048
 4423SOL    HW115166   4.811  12.636   2.116
 4423SOL    HW215167   4.907  12.653   2.000
 4424SOL     OW15168  11.321   3.181   7.567
 4424SOL    HW115169  11.365   3.135   7.638
 4424SOL    HW215170  11.377   3.255   7.547
 4425SOL     OW15171   9.140  13.603   8.086
 4425SOL    HW115172   9.091  13.668   8.136
 4425SOL    HW215173   9.226  13.643   8.073
 4426SOL     OW15174   3.726   4.220  13.389
 4426SOL    HW115175   3.681   4.203  13.472
 4426SOL    HW215176   3.712   4.140  13.338
 4427SOL     OW15177   5.297  12.407  10.673
 4427SOL    HW115178   5.270  12.433  10.585
 4427SOL    HW215179   5.271  12.315  10.681
 4428SOL     OW15180   0.355   4.137  13.749
 4428SOL    HW115181   0.320   4.051  13.723
 4428SOL    HW215182   0.449   4.121  13.763
 4429SOL     OW15183   9.727  12.415  13.309
 4429SOL    HW115184   9.722  12.509  13.295
 4429SOL    HW215185   9.636  12.386  13.316
 4430SOL     OW15186   3.240   9.763   8.084
 4430SOL    HW115187   3.220   9.726   8.170
 4430SOL    HW215188   3.220   9.692   8.023
 4431SOL     OW15189   3.712   5.861  12.802
 4431SOL    HW115190   3.729   5.873  12.896
 4431SOL    HW215191   3.747   5.941  12.761
 4432SOL     OW15192   8.021  12.161   2.772
 4432SOL    HW115193   8.061  12.103   2.707
 4432SOL    HW215194   8.058  12.134   2.855
 4433SOL     OW15195  10.807  14.004  12.284
 4433SOL    HW115196  10.839  14.094  12.292
 4433SOL    HW215197  10.886  13.951  12.276
 4434SOL     OW15198   4.156   3.455   0.799
 4434SOL    HW115199   4.249   3.447   0.820
 4434SOL    HW215200   4.148   3.541   0.758
 4435SOL     OW15201  11.621  10.713  12.631
 4435SOL    HW115202  11.648  10.657  12.705
 4435SOL    HW215203  11.613  10.800  12.670
 4436SOL     OW15204   3.661   4.216   0.931
 4436SOL    HW115205   3.642   4.217   1.025
 4436SOL    HW215206   3.689   4.126   0.913
 4437SOL     OW15207   2.654   2.278   2.214
 4437SOL    HW115208   2.699   2.194   2.203
 4437SOL    HW215209   2.705   2.339   2.161
 4438SOL     OW15210   6.078  13.495  12.012
 4438SOL    HW115211   6.087  13.424  11.948
 4438SOL    HW215212   6.007  13.467  12.070
 4439SOL     OW15213   9.735   3.043   6.509
 4439SOL    HW115214   9.769   3.076   6.425
 4439SOL    HW215215   9.771   3.102   6.575
 4440SOL     OW15216  13.242   5.732  14.575
 4440SOL    HW115217  13.290   5.653  14.550
 4440SOL    HW215218  13.160   5.699  14.612
 4441SOL     OW15219  14.741  13.575   3.557
 4441SOL    HW115220  14.794  13.604   3.482
 4441SOL    HW215221  14.798  13.514   3.605
 4442SOL     OW15222   8.897   8.786   3.928
 4442SOL    HW115223   8.962   8.818   3.866
 4442SOL    HW215224   8.861   8.707   3.886
 4443SOL     OW15225   6.296   4.475   5.669
 4443SOL    HW115226   6.214   4.518   5.696
 4443SOL    HW215227   6.303   4.399   5.727
 4444SOL     OW15228   4.798   4.372   3.141
 4444SOL    HW115229   4.708   4.403   3.129
 4444SOL    HW215230   4.790   4.296   3.198
 4445SOL     OW15231   2.857   8.592  12.386
 4445SOL    HW115232   2.901   8.547  12.458
 4445SOL    HW215233   2.869   8.685  12.404
 4446SOL     OW15234  12.643   0.453   4.029
 4446SOL    HW115235  12.717   0.511   4.042
 4446SOL    HW215236  12.594   0.456   4.111
 4447SOL     OW15237  12.357   1.633   9.967
 4447SOL    HW115238  12.383   1.566   9.903
 4447SOL    HW215239  12.361   1.715   9.918
 4448SOL     OW15240   8.921   3.939   3.228
 4448SOL    HW115241   8.919   3.853   3.185
 4448SOL    HW215242   8.935   3.919   3.321
 4449SOL     OW15243   4.219   4.994   1.524
 4449SOL    HW115244   4.214   5.079   1.481
 4449SOL    HW215245   4.194   5.011   1.615
 4450SOL     OW15246  10.290   5.534  14.432
 4450SOL    HW115247  10.306   5.623  14.463
 4450SOL    HW215248  10.343   5.478  14.489
 4451SOL     OW15249  13.266   5.510  14.840
 4451SOL    HW115250  13.272   5.433   0.027
 4451SOL    HW215251  13.241   5.581   0.030
 4452SOL     OW15252  11.861   9.302   3.951
 4452SOL    HW115253  11.846   9.265   4.038
 4452SOL    HW215254  11.828   9.392   3.958
 4453SOL     OW15255  10.500   7.668  12.325
 4453SOL    HW115256  10.417   7.657  12.279
 4453SOL    HW215257  10.565   7.626  12.268
 4454SOL     OW15258  13.185   3.644   0.529
 4454SOL    HW115259  13.132   3.638   0.609
 4454SOL    HW215260  13.121   3.658   0.459
 4455SOL     OW15261  11.843   5.460  12.090
 4455SOL    HW115262  11.932   5.428  12.108
 4455SOL    HW215263  11.838   5.464  11.995
 4456SOL     OW15264  12.948   3.909  12.923
 4456SOL    HW115265  13.029   3.956  12.898
 4456SOL    HW215266  12.948   3.831  12.867
 4457SOL     OW15267   0.193   2.086   7.845
 4457SOL    HW115268   0.179   2.178   7.825
 4457SOL    HW215269   0.116   2.041   7.811
 4458SOL     OW15270   4.125   1.892   8.236
 4458SOL    HW115271   4.119   1.797   8.248
 4458SOL    HW215272   4.218   1.909   8.224
 4459SOL     OW15273   9.229   7.737   6.792
 4459SOL    HW115274   9.269   7.735   6.705
 4459SOL    HW215275   9.245   7.650   6.828
 4460SOL     OW15276   6.113   2.815  13.661
 4460SOL    HW115277   6.037   2.760  13.683
 4460SOL    HW215278   6.126   2.802  13.568
 4461SOL     OW15279  10.054   3.381   9.907
 4461SOL    HW115280  10.096   3.334   9.979
 4461SOL    HW215281   9.962   3.389   9.935
 4462SOL     OW15282  10.219  13.017   3.533
 4462SOL    HW115283  10.309  13.047   3.517
 4462SOL    HW215284  10.230  12.940   3.589
 4463SOL     OW15285   9.317   8.370   1.407
 4463SOL    HW115286   9.257   8.359   1.481
 4463SOL    HW215287   9.395   8.409   1.445
 4464SOL     OW15288   6.071   7.809  11.104
 4464SOL    HW115289   6.029   7.767  11.179
 4464SOL    HW215290   6.002   7.864  11.067
 4465SOL     OW15291   5.852   2.361   9.177
 4465SOL    HW115292   5.779   2.306   9.206
 4465SOL    HW215293   5.930   2.311   9.202
 4466SOL     OW15294  14.145  12.687   3.516
 4466SOL    HW115295  14.202  12.697   3.440
 4466SOL    HW215296  14.159  12.767   3.568
 4467SOL     OW15297  12.597  11.541  13.082
 4467SOL    HW115298  12.590  11.537  13.178
 4467SOL    HW215299  12.618  11.633  13.064
 4468SOL     OW15300   8.672  11.984   2.264
 4468SOL    HW115301   8.625  11.912   2.222
 4468SOL    HW215302   8.670  11.962   2.358
 4469SOL     OW15303   8.459   4.311   3.134
 4469SOL    HW115304   8.463   4.330   3.228
 4469SOL    HW215305   8.538   4.260   3.116
 4470SOL     OW15306  10.148  10.808   1.080
 4470SOL    HW115307  10.214  10.821   1.148
 4470SOL    HW215308  10.149  10.714   1.064
 4471SOL     OW15309   6.129   6.320   2.534
 4471SOL    HW115310   6.212   6.356   2.504
 4471SOL    HW215311   6.103   6.259   2.465
 4472SOL     OW15312   3.619   9.482   2.403
 4472SOL    HW115313   3.653   9.418   2.341
 4472SOL    HW215314   3.581   9.551   2.348
 4473SOL     OW15315   7.085   0.650   7.484
 4473SOL    HW115316   7.175   0.625   7.465
 4473SOL    HW215317   7.066   0.721   7.423
 4474SOL     OW15318   3.948  11.784  10.788
 4474SOL    HW115319   3.907  11.705  10.822
 4474SOL    HW215320   3.899  11.856  10.828
 4475SOL     OW15321  14.505  13.791   7.277
 4475SOL    HW115322  14.474  13.810   7.188
 4475SOL    HW215323  14.520  13.696   7.277
 4476SOL     OW15324   6.938   6.846  11.121
 4476SOL    HW115325   6.880   6.781  11.082
 4476SOL    HW215326   6.879   6.902  11.172
 4477SOL     OW15327   4.169   9.333  10.127
 4477SOL    HW115328   4.092   9.340  10.184
 4477SOL    HW215329   4.142   9.371  10.044
 4478SOL     OW15330   3.301   1.271  11.332
 4478SOL    HW115331   3.267   1.353  11.365
 4478SOL    HW215332   3.224   1.216  11.317
 4479SOL     OW15333   3.584   2.309   9.664
 4479SOL    HW115334   3.528   2.263   9.726
 4479SOL    HW215335   3.646   2.243   9.633
 4480SOL     OW15336   0.008   4.890  14.656
 4480SOL    HW115337   0.009   4.970  14.709
 4480SOL    HW215338   0.100   4.870  14.641
 4481SOL     OW15339   5.013   7.252   4.662
 4481SOL    HW115340   4.970   7.261   4.577
 4481SOL    HW215341   4.944   7.272   4.726
 4482SOL     OW15342  12.076   5.739  12.356
 4482SOL    HW115343  12.154   5.692  12.384
 4482SOL    HW215344  12.005   5.675  12.361
 4483SOL     OW15345   3.384   2.103   5.698
 4483SOL    HW115346   3.433   2.083   5.618
 4483SOL    HW215347   3.448   2.094   5.768
 4484SOL     OW15348  13.295  12.302  12.887
 4484SOL    HW115349  13.266  12.251  12.811
 4484SOL    HW215350  13.363  12.249  12.927
 4485SOL     OW15351   7.384  14.633   7.716
 4485SOL    HW115352   7.317  14.564   7.719
 4485SOL    HW215353   7.371  14.674   7.631
 4486SOL     OW15354   5.939  13.595   0.836
 4486SOL    HW115355   5.856  13.550   0.851
 4486SOL    HW215356   5.997  13.529   0.798
 4487SOL     OW15357   9.321   9.953  14.770
 4487SOL    HW115358   9.403   9.913  14.741
 4487SOL    HW215359   9.303   9.912  14.855
 4488SOL     OW15360  14.446   6.685  14.284
 4488SOL    HW115361  14.479   6.614  14.229
 4488SOL    HW215362  14.523   6.714  14.334
 4489SOL     OW15363  13.063   3.863   9.931
 4489SOL    HW115364  13.021   3.938   9.975
 4489SOL    HW215365  13.080   3.894   9.842
 4490SOL     OW15366   8.661  12.426  10.009
 4490SOL    HW115367   8.701  12.368   9.945
 4490SOL    HW215368   8.730  12.487  10.033
 4491SOL     OW15369   4.893  14.837  11.222
 4491SOL    HW115370   4.820  14.859  11.165
 4491SOL    HW215371   4.970  14.843  11.166
 4492SOL     OW15372  14.004   8.296   2.396
 4492SOL    HW115373  13.958   8.214   2.381
 4492SOL    HW215374  14.097   8.274   2.393
 4493SOL     OW15375   8.604  11.445   8.942
 4493SOL    HW115376   8.669  11.492   8.995
 4493SOL    HW215377   8.532  11.507   8.933
 4494SOL     OW15378   5.445   1.436  13.708
 4494SOL    HW115379   5.415   1.393  13.628
 4494SOL    HW215380   5.427   1.373  13.778
 4495SOL     OW15381   0.870   9.507   5.574
 4495SOL    HW115382   0.852   9.523   5.666
 4495SOL    HW215383   0.866   9.594   5.534
 4496SOL     OW15384   4.930   9.098  14.683
 4496SOL    HW115385   4.888   9.012  14.696
 4496SOL    HW215386   4.909   9.121  14.592
 4497SOL     OW15387   5.150   0.338   4.729
 4497SOL    HW115388   5.185   0.289   4.803
 4497SOL    HW215389   5.077   0.285   4.696
 4498SOL     OW15390  12.438  12.006   5.783
 4498SOL    HW115391  12.364  11.986   5.840
 4498SOL    HW215392  12.511  12.021   5.844
 4499SOL     OW15393  13.566   9.002   8.629
 4499SOL    HW115394  13.562   8.945   8.552
 4499SOL    HW215395  13.626   9.072   8.605
 4500SOL     OW15396   7.847   2.028   7.086
 4500SOL    HW115397   7.769   2.072   7.051
 4500SOL    HW215398   7.918   2.053   7.027
 4501SOL     OW15399  11.572   0.722   1.672
 4501SOL    HW115400  11.533   0.650   1.723
 4501SOL    HW215401  11.571   0.797   1.731
 4502SOL     OW15402   2.281   3.779   8.152
 4502SOL    HW115403   2.359   3.725   8.162
 4502SOL    HW215404   2.277   3.800   8.059
 4503SOL     OW15405   5.765  13.349   3.726
 4503SOL    HW115406   5.789  13.284   3.792
 4503SOL    HW215407   5.691  13.395   3.764
 4504SOL     OW15408   4.943  14.759   8.085
 4504SOL    HW115409   5.023  14.803   8.058
 4504SOL    HW215410   4.875  14.826   8.081
 4505SOL     OW15411  12.751   3.378   0.075
 4505SOL    HW115412  12.729   3.431  14.869
 4505SOL    HW215413  12.716   3.427   0.150
 4506SOL     OW15414   3.247  13.826   9.963
 4506SOL    HW115415   3.169  13.782   9.996
 4506SOL    HW215416   3.320  13.772   9.997
 4507SOL     OW15417   5.524  14.270   1.761
 4507SOL    HW115418   5.607  14.317   1.767
 4507SOL    HW215419   5.549  14.181   1.734
 4508SOL     OW15420   6.325   1.975  10.556
 4508SOL    HW115421   6.328   1.957  10.463
 4508SOL    HW215422   6.413   2.007  10.577
 4509SOL     OW15423   4.104   9.252   6.878
 4509SOL    HW115424   4.025   9.306   6.874
 4509SOL    HW215425   4.084   9.177   6.822
 4510SOL     OW15426  11.533   1.362   9.384
 4510SOL    HW115427  11.545   1.457   9.390
 4510SOL    HW215428  11.620   1.329   9.359
 4511SOL     OW15429   5.538  12.607  12.974
 4511SOL    HW115430   5.601  12.675  12.998
 4511SOL    HW215431   5.508  12.632  12.886
 4512SOL     OW15432  12.643   4.784  11.289
 4512SOL    HW115433  12.720   4.818  11.244
 4512SOL    HW215434  12.577   4.777  11.220
 4513SOL     OW15435  13.750   8.493   3.818
 4513SOL    HW115436  13.771   8.484   3.725
 4513SOL    HW215437  13.663   8.531   3.820
 4514SOL     OW15438   6.699   5.424   6.865
 4514SOL    HW115439   6.749   5.504   6.883
 4514SOL    HW215440   6.611   5.455   6.847
 4515SOL     OW15441   3.625   7.327   2.760
 4515SOL    HW115442   3.543   7.305   2.804
 4515SOL    HW215443   3.613   7.418   2.732
 4516SOL     OW15444   4.504   6.726   0.061
 4516SOL    HW115445   4.410   6.746   0.056
 4516SOL    HW215446   4.508   6.631   0.068
 4517SOL     OW15447   4.699   3.389  12.501
 4517SOL    HW115448   4.760   3.348  12.440
 4517SOL    HW215449   4.750   3.406  12.580
 4518SOL     OW15450   3.786   6.306  10.795
 4518SOL    HW115451   3.804   6.351  10.712
 4518SOL    HW215452   3.850   6.234  10.797
 4519SOL     OW15453   4.540   1.768   8.260
 4519SOL    HW115454   4.593   1.691   8.241
 4519SOL    HW215455   4.480   1.739   8.330
 4520SOL     OW15456  12.576   7.631   0.473
 4520SOL    HW115457  12.535   7.592   0.550
 4520SOL    HW215458  12.627   7.560   0.434
 4521SOL     OW15459  11.858   8.068   7.273
 4521SOL    HW115460  11.944   8.029   7.258
 4521SOL    HW215461  11.803   8.034   7.203
 4522SOL     OW15462   9.829  13.444  14.353
 4522SOL    HW115463   9.862  13.370  14.404
 4522SOL    HW215464   9.882  13.518  14.382
 4523SOL     OW15465   2.019   1.734  14.582
 4523SOL    HW115466   1.948   1.797  14.596
 4523SOL    HW215467   2.071   1.738  14.662
 4524SOL     OW15468   6.611   6.903   0.648
 4524SOL    HW115469   6.554   6.835   0.684
 4524SOL    HW215470   6.620   6.880   0.555
 4525SOL     OW15471   2.898  10.227  13.224
 4525SOL    HW115472   2.965  10.166  13.193
 4525SOL    HW215473   2.839  10.238  13.150
 4526SOL     OW15474   8.138   0.911   0.041
 4526SOL    HW115475   8.218   0.941   0.086
 4526SOL    HW215476   8.066   0.947   0.093
 4527SOL     OW15477   5.371   1.572   3.907
 4527SOL    HW115478   5.404   1.536   3.989
 4527SOL    HW215479   5.447   1.571   3.849
 4528SOL     OW15480   2.898  13.015   0.471
 4528SOL    HW115481   2.884  13.080   0.403
 4528SOL    HW215482   2.990  13.024   0.495
 4529SOL     OW15483   4.304  10.474   2.450
 4529SOL    HW115484   4.315  10.418   2.374
 4529SOL    HW215485   4.356  10.432   2.519
 4530SOL     OW15486   0.714   3.552  14.494
 4530SOL    HW115487   0.774   3.613  14.537
 4530SOL    HW215488   0.627   3.581  14.520
 4531SOL     OW15489   5.256   7.856   5.636
 4531SOL    HW115490   5.168   7.892   5.628
 4531SOL    HW215491   5.244   7.762   5.638
 4532SOL     OW15492   3.787  12.086  12.683
 4532SOL    HW115493   3.867  12.059  12.639
 4532SOL    HW215494   3.761  12.167  12.639
 4533SOL     OW15495  12.533   6.494   1.840
 4533SOL    HW115496  12.528   6.399   1.831
 4533SOL    HW215497  12.446   6.525   1.814
 4534SOL     OW15498   2.792   3.659  13.507
 4534SOL    HW115499   2.854   3.669  13.579
 4534SOL    HW215500   2.840   3.611  13.440
 4535SOL     OW15501  12.675  13.759   2.862
 4535SOL    HW115502  12.652  13.759   2.955
 4535SOL    HW215503  12.717  13.674   2.848
 4536SOL     OW15504   2.612   1.970   4.019
 4536SOL    HW115505   2.697   1.997   4.053
 4536SOL    HW215506   2.627   1.953   3.927
 4537SOL     OW15507   7.245  12.157  13.249
 4537SOL    HW115508   7.326  12.108  13.268
 4537SOL    HW215509   7.270  12.216  13.178
 4538SOL     OW15510   6.355   2.809  14.741
 4538SOL    HW115511   6.373   2.901  14.762
 4538SOL    HW215512   6.422   2.786  14.677
 4539SOL     OW15513  10.972  10.841   6.718
 4539SOL    HW115514  10.895  10.878   6.676
 4539SOL    HW215515  11.046  10.879   6.670
 4540SOL     OW15516   0.217   7.435  13.619
 4540SOL    HW115517   0.288   7.492  13.587
 4540SOL    HW215518   0.173   7.487  13.686
 4541SOL     OW15519  10.769   5.355  13.547
 4541SOL    HW115520  10.785   5.436  13.596
 4541SOL    HW215521  10.784   5.379  13.456
 4542SOL     OW15522  10.201  13.527  10.999
 4542SOL    HW115523  10.127  13.493  11.050
 4542SOL    HW215524  10.277  13.512  11.055
 4543SOL     OW15525   1.493  10.347  12.242
 4543SOL    HW115526   1.437  10.420  12.270
 4543SOL    HW215527   1.444  10.268  12.267
 4544SOL     OW15528   0.482   2.283  10.721
 4544SOL    HW115529   0.559   2.226  10.719
 4544SOL    HW215530   0.410   2.225  10.697
 4545SOL     OW15531  13.705   3.331   0.047
 4545SOL    HW115532  13.768   3.283   0.101
 4545SOL    HW215533  13.733   3.313  14.827
 4546SOL     OW15534   0.996  14.001   6.233
 4546SOL    HW115535   1.022  13.913   6.260
 4546SOL    HW215536   0.936  13.988   6.159
 4547SOL     OW15537   6.539   4.007   6.464
 4547SOL    HW115538   6.564   3.934   6.521
 4547SOL    HW215539   6.616   4.064   6.464
 4548SOL     OW15540   9.769  13.612   6.349
 4548SOL    HW115541   9.827  13.552   6.396
 4548SOL    HW215542   9.690  13.560   6.332
 4549SOL     OW15543   7.844  14.100   5.709
 4549SOL    HW115544   7.899  14.160   5.659
 4549SOL    HW215545   7.763  14.092   5.657
 4550SOL     OW15546   5.935   0.092   6.376
 4550SOL    HW115547   6.018   0.120   6.338
 4550SOL    HW215548   5.933  14.867   6.362
 4551SOL     OW15549   9.716   6.474   6.875
 4551SOL    HW115550   9.702   6.453   6.782
 4551SOL    HW215551   9.697   6.567   6.881
 4552SOL     OW15552   4.678   9.139  13.846
 4552SOL    HW115553   4.606   9.201  13.859
 4552SOL    HW215554   4.709   9.119  13.934
 4553SOL     OW15555   6.885  13.556   4.440
 4553SOL    HW115556   6.817  13.500   4.477
 4553SOL    HW215557   6.962  13.499   4.434
 4554SOL     OW15558   3.151   8.866   4.423
 4554SOL    HW115559   3.150   8.943   4.366
 4554SOL    HW215560   3.203   8.892   4.498
 4555SOL     OW15561  10.673   7.657   1.476
 4555SOL    HW115562  10.701   7.622   1.391
 4555SOL    HW215563  10.582   7.683   1.462
 4556SOL     OW15564   1.723   3.419  13.293
 4556SOL    HW115565   1.703   3.328  13.317
 4556SOL    HW215566   1.793   3.411  13.228
 4557SOL     OW15567   8.210   9.830   6.840
 4557SOL    HW115568   8.244   9.905   6.889
 4557SOL    HW215569   8.139   9.867   6.788
 4558SOL     OW15570   6.393  14.092   7.226
 4558SOL    HW115571   6.352  14.068   7.310
 4558SOL    HW215572   6.384  14.188   7.222
 4559SOL     OW15573  12.581   5.225   1.308
 4559SOL    HW115574  12.552   5.233   1.217
 4559SOL    HW215575  12.677   5.220   1.302
 4560SOL     OW15576   6.826  10.896   8.597
 4560SOL    HW115577   6.744  10.852   8.620
 4560SOL    HW215578   6.865  10.921   8.681
 4561SOL     OW15579   5.102   7.386  11.222
 4561SOL    HW115580   5.025   7.350  11.267
 4561SOL    HW215581   5.077   7.476  11.199
 4562SOL     OW15582  13.298  13.989  12.808
 4562SOL    HW115583  13.252  14.056  12.757
 4562SOL    HW215584  13.229  13.946  12.858
 4563SOL     OW15585   7.598   3.571   3.891
 4563SOL    HW115586   7.592   3.615   3.806
 4563SOL    HW215587   7.563   3.483   3.875
 4564SOL     OW15588  14.318   8.426   7.253
 4564SOL    HW115589  14.394   8.381   7.216
 4564SOL    HW215590  14.301   8.381   7.336
 4565SOL     OW15591   9.886  10.383   4.770
 4565SOL    HW115592   9.919  10.471   4.754
 4565SOL    HW215593   9.868  10.349   4.682
 4566SOL     OW15594   8.638   0.427  12.896
 4566SOL    HW115595   8.584   0.383  12.962
 4566SOL    HW215596   8.702   0.361  12.869
 4567SOL     OW15597   2.554  11.820   3.997
 4567SOL    HW115598   2.496  11.859   3.932
 4567SOL    HW215599   2.495  11.784   4.063
 4568SOL     OW15600  14.440  13.456   1.812
 4568SOL    HW115601  14.515  13.451   1.752
 4568SOL    HW215602  14.421  13.549   1.818
 4569SOL     OW15603   7.345   4.856  14.522
 4569SOL    HW115604   7.292   4.926  14.560
 4569SOL    HW215605   7.424   4.901  14.491
 4570SOL     OW15606  13.107   6.958  14.009
 4570SOL    HW115607  13.078   6.973  14.099
 4570SOL    HW215608  13.043   7.005  13.956
 4571SOL     OW15609   9.411  14.469  13.242
 4571SOL    HW115610   9.403  14.374  13.234
 4571SOL    HW215611   9.414  14.485  13.336
 4572SOL     OW15612   1.237  13.205   9.460
 4572SOL    HW115613   1.251  13.134   9.523
 4572SOL    HW215614   1.258  13.284   9.509
 4573SOL     OW15615  10.155  14.112   4.240
 4573SOL    HW115616  10.220  14.180   4.259
 4573SOL    HW215617  10.096  14.113   4.315
 4574SOL     OW15618   8.458   8.721   4.234
 4574SOL    HW115619   8.383   8.683   4.281
 4574SOL    HW215620   8.533   8.704   4.290
 4575SOL     OW15621  12.292   5.100   0.535
 4575SOL    HW115622  12.290   5.021   0.590
 4575SOL    HW215623  12.220   5.154   0.568
 4576SOL     OW15624  10.737   8.811  12.757
 4576SOL    HW115625  10.652   8.793  12.798
 4576SOL    HW215626  10.722   8.795  12.664
 4577SOL     OW15627   4.872   7.673   9.941
 4577SOL    HW115628   4.951   7.684   9.889
 4577SOL    HW215629   4.804   7.721   9.894
 4578SOL     OW15630  12.509   1.936   9.678
 4578SOL    HW115631  12.490   1.929   9.584
 4578SOL    HW215632  12.561   1.859   9.698
 4579SOL     OW15633  13.119   0.374   6.809
 4579SOL    HW115634  13.173   0.294   6.804
 4579SOL    HW215635  13.064   0.360   6.887
 4580SOL     OW15636   5.208  12.795   9.095
 4580SOL    HW115637   5.230  12.783   9.003
 4580SOL    HW215638   5.290  12.777   9.142
 4581SOL     OW15639   7.791   8.688   4.687
 4581SOL    HW115640   7.808   8.645   4.772
 4581SOL    HW215641   7.704   8.726   4.697
 4582SOL     OW15642  11.007  10.302   6.753
 4582SOL    HW115643  11.010  10.394   6.728
 4582SOL    HW215644  10.994  10.255   6.670
 4583SOL     OW15645   2.907   4.077   0.448
 4583SOL    HW115646   2.836   4.045   0.503
 4583SOL    HW215647   2.897   4.172   0.447
 4584SOL     OW15648   7.118  14.687   7.155
 4584SOL    HW115649   7.196  14.742   7.151
 4584SOL    HW215650   7.047  14.744   7.124
 4585SOL     OW15651   6.443   6.070   2.286
 4585SOL    HW115652   6.369   6.117   2.247
 4585SOL    HW215653   6.438   6.090   2.379
 4586SOL     OW15654   8.591   3.247   7.926
 4586SOL    HW115655   8.636   3.192   7.991
 4586SOL    HW215656   8.616   3.337   7.949
 4587SOL     OW15657   7.200   3.564   7.929
 4587SOL    HW115658   7.183   3.478   7.968
 4587SOL    HW215659   7.204   3.624   8.003
 4588SOL     OW15660  13.457   6.061   8.678
 4588SOL    HW115661  13.399   6.043   8.753
 4588SOL    HW215662  13.454   5.981   8.626
 4589SOL     OW15663  10.984  12.124   6.446
 4589SOL    HW115664  10.920  12.172   6.501
 4589SOL    HW215665  10.969  12.158   6.358
 4590SOL     OW15666   4.057   4.781  11.607
 4590SOL    HW115667   3.985   4.805  11.549
 4590SOL    HW215668   4.117   4.731  11.551
 4591SOL     OW15669   0.936  10.616   4.081
 4591SOL    HW115670   0.958  10.530   4.045
 4591SOL    HW215671   0.943  10.675   4.006
 4592SOL     OW15672   6.728   9.727   6.923
 4592SOL    HW115673   6.805   9.749   6.975
 4592SOL    HW215674   6.763   9.686   6.844
 4593SOL     OW15675   2.199  12.841  13.374
 4593SOL    HW115676   2.192  12.760  13.323
 4593SOL    HW215677   2.223  12.812  13.462
 4594SOL     OW15678   8.609  14.470  14.321
 4594SOL    HW115679   8.652  14.555  14.312
 4594SOL    HW215680   8.557  14.477  14.401
 4595SOL     OW15681   2.097   4.938  11.614
 4595SOL    HW115682   2.144   5.021  11.629
 4595SOL    HW215683   2.034   4.959  11.544
 4596SOL     OW15684   2.450   9.647  11.063
 4596SOL    HW115685   2.493   9.562  11.059
 4596SOL    HW215686   2.522   9.711  11.056
 4597SOL     OW15687   5.385   5.672   8.237
 4597SOL    HW115688   5.427   5.648   8.320
 4597SOL    HW215689   5.363   5.765   8.247
 4598SOL     OW15690   0.155  12.747   6.681
 4598SOL    HW115691   0.201  12.824   6.649
 4598SOL    HW215692   0.217  12.675   6.670
 4599SOL     OW15693   4.672   2.739   3.687
 4599SOL    HW115694   4.602   2.692   3.733
 4599SOL    HW215695   4.728   2.670   3.652
 4600SOL     OW15696   6.697   4.936  10.380
 4600SOL    HW115697   6.656   4.956  10.296
 4600SOL    HW215698   6.647   4.987  10.443
 4601SOL     OW15699  10.715   2.571  12.716
 4601SOL    HW115700  10.641   2.629  12.699
 4601SOL    HW215701  10.763   2.567  12.634
 4602SOL     OW15702  11.245  13.011  11.585
 4602SOL    HW115703  11.273  12.997  11.676
 4602SOL    HW215704  11.241  12.924  11.547
 4603SOL     OW15705  13.916   1.434  14.345
 4603SOL    HW115706  13.823   1.439  14.327
 4603SOL    HW215707  13.927   1.355  14.399
 4604SOL     OW15708   6.250  13.644  10.003
 4604SOL    HW115709   6.321  13.625  10.065
 4604SOL    HW215710   6.181  13.582  10.027
 4605SOL     OW15711   4.941   9.270  12.114
 4605SOL    HW115712   4.916   9.206  12.181
 4605SOL    HW215713   4.882   9.344  12.129
 4606SOL     OW15714  10.373   0.194   4.667
 4606SOL    HW115715  10.443   0.258   4.678
 4606SOL    HW215716  10.365   0.152   4.753
 4607SOL     OW15717  11.305  12.368   4.484
 4607SOL    HW115718  11.320  12.274   4.469
 4607SOL    HW215719  11.209  12.376   4.486
 4608SOL     OW15720  11.731   3.667   1.716
 4608SOL    HW115721  11.779   3.593   1.753
 4608SOL    HW215722  11.797   3.716   1.667
 4609SOL     OW15723  13.413   6.931  12.339
 4609SOL    HW115724  13.453   6.868  12.279
 4609SOL    HW215725  13.347   6.881  12.387
 4610SOL     OW15726   6.951   4.344  12.323
 4610SOL    HW115727   6.942   4.348  12.419
 4610SOL    HW215728   7.046   4.340  12.308
 4611SOL     OW15729   9.366   3.080  14.134
 4611SOL    HW115730   9.271   3.086  14.149
 4611SOL    HW215731   9.380   2.989  14.109
 4612SOL     OW15732  14.360   5.033   0.633
 4612SOL    HW115733  14.283   4.986   0.601
 4612SOL    HW215734  14.420   4.963   0.659
 4613SOL     OW15735   0.876   5.986   4.607
 4613SOL    HW115736   0.831   5.902   4.612
 4613SOL    HW215737   0.814   6.049   4.644
 4614SOL     OW15738  11.982   2.811  14.255
 4614SOL    HW115739  12.066   2.811  14.209
 4614SOL    HW215740  11.989   2.740  14.319
 4615SOL     OW15741  11.592   4.283   7.005
 4615SOL    HW115742  11.515   4.230   6.984
 4615SOL    HW215743  11.639   4.290   6.922
 4616SOL     OW15744   9.922   1.164   2.638
 4616SOL    HW115745   9.872   1.120   2.707
 4616SOL    HW215746   9.889   1.254   2.639
 4617SOL     OW15747   8.342   9.496   4.772
 4617SOL    HW115748   8.425   9.469   4.814
 4617SOL    HW215749   8.366   9.513   4.681
 4618SOL     OW15750  10.931   4.461  13.114
 4618SOL    HW115751  10.840   4.492  13.118
 4618SOL    HW215752  10.932   4.383  13.170
 4619SOL     OW15753   3.136  11.647  11.931
 4619SOL    HW115754   3.204  11.607  11.878
 4619SOL    HW215755   3.054  11.617  11.891
 4620SOL     OW15756   8.334   7.321   5.871
 4620SOL    HW115757   8.241   7.341   5.867
 4620SOL    HW215758   8.340   7.229   5.846
 4621SOL     OW15759   5.770   9.310   9.214
 4621SOL    HW115760   5.774   9.221   9.182
 4621SOL    HW215761   5.680   9.319   9.248
 4622SOL     OW15762   3.448   9.565   5.627
 4622SOL    HW115763   3.451   9.499   5.696
 4622SOL    HW215764   3.520   9.625   5.648
 4623SOL     OW15765   0.459  12.181   0.264
 4623SOL    HW115766   0.489  12.170   0.174
 4623SOL    HW215767   0.539  12.196   0.315
 4624SOL     OW15768  13.906  10.018   5.895
 4624SOL    HW115769  13.927  10.104   5.858
 4624SOL    HW215770  13.923  10.028   5.989
 4625SOL     OW15771   8.210  13.220   6.398
 4625SOL    HW115772   8.197  13.299   6.450
 4625SOL    HW215773   8.271  13.247   6.329
 4626SOL     OW15774   9.168  10.732  13.963
 4626SOL    HW115775   9.229  10.660  13.977
 4626SOL    HW215776   9.202  10.778  13.886
 4627SOL     OW15777   9.126   5.140   4.021
 4627SOL    HW115778   9.176   5.221   4.009
 4627SOL    HW215779   9.044   5.169   4.061
 4628SOL     OW15780   5.073   8.447  12.619
 4628SOL    HW115781   5.060   8.360  12.581
 4628SOL    HW215782   5.073   8.506  12.544
 4629SOL     OW15783   4.392  13.623   7.734
 4629SOL    HW115784   4.476  13.638   7.779
 4629SOL    HW215785   4.394  13.682   7.659
 4630SOL     OW15786   4.367   4.815   6.429
 4630SOL    HW115787   4.343   4.736   6.381
 4630SOL    HW215788   4.456   4.797   6.459
 4631SOL     OW15789   0.027   8.115   1.859
 4631SOL    HW115790   0.031   8.032   1.812
 4631SOL    HW215791   0.018   8.181   1.790
 4632SOL     OW15792   9.416   3.456   2.454
 4632SOL    HW115793   9.419   3.418   2.367
 4632SOL    HW215794   9.432   3.383   2.514
 4633SOL     OW15795  10.368  10.546   4.071
 4633SOL    HW115796  10.446  10.523   4.019
 4633SOL    HW215797  10.394  10.623   4.121
 4634SOL     OW15798   4.865   3.929  11.278
 4634SOL    HW115799   4.960   3.921  11.276
 4634SOL    HW215800   4.842   3.960  11.190
 4635SOL     OW15801  11.997   1.715  11.658
 4635SOL    HW115802  12.063   1.664  11.611
 4635SOL    HW215803  12.022   1.806  11.641
 4636SOL     OW15804  12.885   8.180  12.126
 4636SOL    HW115805  12.801   8.141  12.153
 4636SOL    HW215806  12.860   8.262  12.084
 4637SOL     OW15807   8.730   8.906   4.776
 4637SOL    HW115808   8.800   8.844   4.758
 4637SOL    HW215809   8.742   8.976   4.712
 4638SOL     OW15810  12.846   9.126   6.044
 4638SOL    HW115811  12.780   9.120   6.113
 4638SOL    HW215812  12.815   9.198   5.989
 4639SOL     OW15813   8.095   7.594  10.240
 4639SOL    HW115814   8.005   7.609  10.270
 4639SOL    HW215815   8.141   7.676  10.258
 4640SOL     OW15816   0.695  11.465   0.646
 4640SOL    HW115817   0.670  11.409   0.573
 4640SOL    HW215818   0.782  11.434   0.671
 4641SOL     OW15819   9.985  11.449  14.265
 4641SOL    HW115820  10.040  11.382  14.225
 4641SOL    HW215821   9.941  11.491  14.191
 4642SOL     OW15822   8.268  11.617  12.900
 4642SOL    HW115823   8.333  11.687  12.889
 4642SOL    HW215824   8.186  11.656  12.872
 4643SOL     OW15825  11.725  11.801   6.164
 4643SOL    HW115826  11.821  11.804   6.153
 4643SOL    HW215827  11.692  11.849   6.088
 4644SOL     OW15828   9.127   2.917   3.826
 4644SOL    HW115829   9.203   2.859   3.817
 4644SOL    HW215830   9.059   2.875   3.773
 4645SOL     OW15831   8.510  14.455  12.307
 4645SOL    HW115832   8.487  14.533  12.257
 4645SOL    HW215833   8.454  14.386  12.272
 4646SOL     OW15834   8.713   2.010   6.804
 4646SOL    HW115835   8.744   2.100   6.802
 4646SOL    HW215836   8.787   1.960   6.839
 4647SOL     OW15837   5.158   7.834   3.843
 4647SOL    HW115838   5.152   7.928   3.858
 4647SOL    HW215839   5.201   7.826   3.758
 4648SOL     OW15840  13.886   7.317   5.669
 4648SOL    HW115841  13.960   7.321   5.730
 4648SOL    HW215842  13.821   7.376   5.707
 4649SOL     OW15843  11.925   8.465   9.443
 4649SOL    HW115844  11.894   8.379   9.473
 4649SOL    HW215845  11.856   8.497   9.385
 4650SOL     OW15846   8.511  10.326   2.919
 4650SOL    HW115847   8.508  10.310   2.824
 4650SOL    HW215848   8.589  10.279   2.948
 4651SOL     OW15849   2.554   8.220  12.094
 4651SOL    HW115850   2.489   8.275  12.138
 4651SOL    HW215851   2.543   8.134  12.134
 4652SOL     OW15852   2.193   6.014   0.847
 4652SOL    HW115853   2.106   6.002   0.808
 4652SOL    HW215854   2.251   5.960   0.793
 4653SOL     OW15855  12.054   1.664  12.884
 4653SOL    HW115856  12.125   1.723  12.909
 4653SOL    HW215857  12.038   1.684  12.791
 4654SOL     OW15858  14.785   3.073  12.375
 4654SOL    HW115859  14.748   3.141  12.431
 4654SOL    HW215860  14.870   3.052  12.416
 4655SOL     OW15861  13.249   4.109  13.270
 4655SOL    HW115862  13.175   4.162  13.299
 4655SOL    HW215863  13.262   4.045  13.340
 4656SOL     OW15864   5.458   1.029  11.302
 4656SOL    HW115865   5.379   0.975  11.310
 4656SOL    HW215866   5.530   0.966  11.304
 4657SOL     OW15867   1.267  12.722   1.294
 4657SOL    HW115868   1.322  12.747   1.368
 4657SOL    HW215869   1.321  12.661   1.243
 4658SOL     OW15870   8.779   8.383  14.437
 4658SOL    HW115871   8.756   8.466  14.394
 4658SOL    HW215872   8.851   8.407  14.496
 4659SOL     OW15873   0.642   4.724   3.461
 4659SOL    HW115874   0.669   4.792   3.399
 4659SOL    HW215875   0.581   4.670   3.411
 4660SOL     OW15876   0.338   2.772  12.427
 4660SOL    HW115877   0.318   2.713  12.500
 4660SOL    HW215878   0.398   2.722  12.371
 4661SOL     OW15879   5.388   2.486   1.543
 4661SOL    HW115880   5.391   2.392   1.526
 4661SOL    HW215881   5.469   2.504   1.592
 4662SOL     OW15882   0.411   3.548   8.522
 4662SOL    HW115883   0.344   3.609   8.494
 4662SOL    HW215884   0.378   3.462   8.496
 4663SOL     OW15885  13.298  13.586   6.949
 4663SOL    HW115886  13.239  13.626   7.013
 4663SOL    HW215887  13.256  13.503   6.926
 4664SOL     OW15888   3.458   9.677   8.353
 4664SOL    HW115889   3.518   9.608   8.380
 4664SOL    HW215890   3.372   9.634   8.351
 4665SOL     OW15891  13.127   8.181  10.469
 4665SOL    HW115892  13.042   8.222  10.486
 4665SOL    HW215893  13.191   8.239  10.510
 4666SOL     OW15894   1.303   8.971   9.228
 4666SOL    HW115895   1.310   9.000   9.319
 4666SOL    HW215896   1.213   8.939   9.221
 4667SOL     OW15897   8.290   9.082   9.471
 4667SOL    HW115898   8.353   9.050   9.406
 4667SOL    HW215899   8.304   9.177   9.473
 4668SOL     OW15900   0.338  12.367   3.659
 4668SOL    HW115901   0.387  12.288   3.634
 4668SOL    HW215902   0.246  12.341   3.656
 4669SOL     OW15903   8.444   4.900  10.214
 4669SOL    HW115904   8.510   4.846  10.257
 4669SOL    HW215905   8.421   4.967  10.278
 4670SOL     OW15906   8.208   3.048   0.293
 4670SOL    HW115907   8.201   2.953   0.288
 4670SOL    HW215908   8.298   3.066   0.265
 4671SOL     OW15909   7.927   5.115   5.954
 4671SOL    HW115910   7.945   5.186   6.016
 4671SOL    HW215911   7.834   5.098   5.963
 4672SOL     OW15912  12.077  12.873   6.198
 4672SOL    HW115913  12.164  12.893   6.163
 4672SOL    HW215914  12.058  12.943   6.260
 4673SOL     OW15915   3.433   6.102   7.342
 4673SOL    HW115916   3.511   6.158   7.337
 4673SOL    HW215917   3.367   6.157   7.384
 4674SOL     OW15918   8.747   0.568   7.339
 4674SOL    HW115919   8.796   0.503   7.389
 4674SOL    HW215920   8.766   0.547   7.247
 4675SOL     OW15921   8.064   1.009   2.117
 4675SOL    HW115922   8.016   0.951   2.175
 4675SOL    HW215923   8.152   0.971   2.112
 4676SOL     OW15924  13.197   4.352  12.086
 4676SOL    HW115925  13.131   4.404  12.040
 4676SOL    HW215926  13.233   4.412  12.152
 4677SOL     OW15927   1.326  11.118   2.583
 4677SOL    HW115928   1.345  11.205   2.619
 4677SOL    HW215929   1.255  11.084   2.637
 4678SOL     OW15930   7.350   8.037  11.535
 4678SOL    HW115931   7.320   7.966  11.591
 4678SOL    HW215932   7.337   8.004  11.446
 4679SOL     OW15933  14.859  12.900  13.483
 4679SOL    HW115934  14.785  12.859  13.439
 4679SOL    HW215935   0.018  12.969  13.424
 4680SOL     OW15936  10.993   6.769  13.086
 4680SOL    HW115937  11.056   6.716  13.036
 4680SOL    HW215938  11.010   6.859  13.058
 4681SOL     OW15939   8.710   8.767   9.040
 4681SOL    HW115940   8.697   8.709   8.966
 4681SOL    HW215941   8.650   8.840   9.024
 4682SOL     OW15942  11.855   0.622   0.114
 4682SOL    HW115943  11.787   0.676   0.073
 4682SOL    HW215944  11.908   0.590   0.041
 4683SOL     OW15945   8.902  10.205  12.725
 4683SOL    HW115946   8.866  10.287  12.758
 4683SOL    HW215947   8.826  10.154  12.700
 4684SOL     OW15948   3.742  12.193   6.798
 4684SOL    HW115949   3.823  12.244   6.802
 4684SOL    HW215950   3.677  12.254   6.763
 4685SOL     OW15951  10.431   1.834  10.272
 4685SOL    HW115952  10.382   1.753  10.257
 4685SOL    HW215953  10.479   1.818  10.354
 4686SOL     OW15954   9.684  12.638  12.551
 4686SOL    HW115955   9.636  12.720  12.565
 4686SOL    HW215956   9.775  12.664  12.545
 4687SOL     OW15957  10.393   8.329   4.308
 4687SOL    HW115958  10.338   8.251   4.310
 4687SOL    HW215959  10.424   8.334   4.217
 4688SOL     OW15960   4.117   9.446  12.581
 4688SOL    HW115961   4.107   9.367  12.527
 4688SOL    HW215962   4.210   9.446  12.604
 4689SOL     OW15963  13.949   7.619   2.403
 4689SOL    HW115964  13.854   7.611   2.397
 4689SOL    HW215965  13.973   7.564   2.478
 4690SOL     OW15966   1.555   2.209   3.114
 4690SOL    HW115967   1.465   2.184   3.134
 4690SOL    HW215968   1.556   2.304   3.121
 4691SOL     OW15969   1.522   1.702  10.259
 4691SOL    HW115970   1.534   1.795  10.278
 4691SOL    HW215971   1.553   1.657  10.337
 4692SOL     OW15972   7.335   0.553   4.458
 4692SOL    HW115973   7.276   0.478   4.461
 4692SOL    HW215974   7.290   0.621   4.508
 4693SOL     OW15975  10.888   2.528   7.092
 4693SOL    HW115976  10.857   2.540   7.002
 4693SOL    HW215977  10.953   2.598   7.104
 4694SOL     OW15978   2.316   2.166   1.317
 4694SOL    HW115979   2.333   2.211   1.400
 4694SOL    HW215980   2.403   2.147   1.282
 4695SOL     OW15981   1.756   1.991   7.405
 4695SOL    HW115982   1.739   1.897   7.413
 4695SOL    HW215983   1.717   2.015   7.321
 4696SOL     OW15984   3.867  11.614   2.436
 4696SOL    HW115985   3.835  11.538   2.485
 4696SOL    HW215986   3.856  11.590   2.344
 4697SOL     OW15987   2.081  10.542  11.579
 4697SOL    HW115988   2.139  10.485  11.530
 4697SOL    HW215989   2.086  10.626  11.534
 4698SOL     OW15990   5.700   2.453   6.454
 4698SOL    HW115991   5.620   2.453   6.507
 4698SOL    HW215992   5.706   2.542   6.419
 4699SOL     OW15993  13.376  11.292   2.523
 4699SOL    HW115994  13.411  11.258   2.605
 4699SOL    HW215995  13.434  11.257   2.455
 4700SOL     OW15996   6.095  10.637   2.998
 4700SOL    HW115997   6.184  10.668   3.017
 4700SOL    HW215998   6.102  10.593   2.913
 4701SOL     OW15999   0.336   7.743   7.868
 4701SOL    HW116000   0.373   7.722   7.782
 4701SOL    HW216001   0.408   7.784   7.916
 4702SOL     OW16002   9.254   2.345   0.461
 4702SOL    HW116003   9.216   2.382   0.541
 4702SOL    HW216004   9.348   2.345   0.477
 4703SOL     OW16005   3.620   6.148   1.203
 4703SOL    HW116006   3.591   6.120   1.290
 4703SOL    HW216007   3.712   6.172   1.216
 4704SOL     OW16008  10.605  13.755   3.945
 4704SOL    HW116009  10.678  13.704   3.979
 4704SOL    HW216010  10.542  13.760   4.017
 4705SOL     OW16011  11.360   3.944   3.532
 4705SOL    HW116012  11.304   4.007   3.487
 4705SOL    HW216013  11.334   3.951   3.624
 4706SOL     OW16014   5.807  14.363   9.080
 4706SOL    HW116015   5.821  14.275   9.117
 4706SOL    HW216016   5.886  14.412   9.104
 4707SOL     OW16017   5.345  10.279   6.841
 4707SOL    HW116018   5.342  10.284   6.936
 4707SOL    HW216019   5.416  10.338   6.815
 4708SOL     OW16020   7.107   4.729  13.334
 4708SOL    HW116021   7.182   4.696  13.382
 4708SOL    HW216022   7.100   4.673  13.256
 4709SOL     OW16023   7.427   0.378  11.657
 4709SOL    HW116024   7.362   0.448  11.652
 4709SOL    HW216025   7.510   0.422  11.634
 4710SOL     OW16026   5.094   4.514   7.461
 4710SOL    HW116027   5.038   4.466   7.521
 4710SOL    HW216028   5.093   4.463   7.380
 4711SOL     OW16029  11.547   7.776   5.709
 4711SOL    HW116030  11.630   7.793   5.754
 4711SOL    HW216031  11.554   7.685   5.680
 4712SOL     OW16032   4.843   9.343   1.447
 4712SOL    HW116033   4.925   9.354   1.496
 4712SOL    HW216034   4.796   9.275   1.495
 4713SOL     OW16035   6.476   6.431  13.907
 4713SOL    HW116036   6.535   6.466  13.974
 4713SOL    HW216037   6.496   6.337  13.904
 4714SOL     OW16038  14.817   8.973   7.716
 4714SOL    HW116039  14.861   8.889   7.724
 4714SOL    HW216040  14.814   9.008   7.805
 4715SOL     OW16041   4.563   0.351  12.805
 4715SOL    HW116042   4.548   0.262  12.837
 4715SOL    HW216043   4.581   0.401  12.884
 4716SOL     OW16044   4.014   4.703  14.619
 4716SOL    HW116045   4.069   4.760  14.672
 4716SOL    HW216046   4.072   4.671  14.550
 4717SOL     OW16047   4.821   7.710   4.564
 4717SOL    HW116048   4.749   7.737   4.507
 4717SOL    HW216049   4.786   7.634   4.611
 4718SOL     OW16050   0.632   6.582   0.395
 4718SOL    HW116051   0.662   6.617   0.479
 4718SOL    HW216052   0.696   6.514   0.373
 4719SOL     OW16053  11.003  10.221   7.042
 4719SOL    HW116054  10.997  10.198   6.949
 4719SOL    HW216055  10.949  10.300   7.050
 4720SOL     OW16056  13.428   3.218   0.149
 4720SOL    HW116057  13.472   3.217   0.064
 4720SOL    HW216058  13.453   3.136   0.190
 4721SOL     OW16059  14.660  10.204   3.680
 4721SOL    HW116060  14.673  10.165   3.767
 4721SOL    HW216061  14.651  10.129   3.621
 4722SOL     OW16062  11.593   0.930   7.540
 4722SOL    HW116063  11.651   0.938   7.464
 4722SOL    HW216064  11.507   0.912   7.502
 4723SOL     OW16065   4.536  10.949   6.275
 4723SOL    HW116066   4.621  10.916   6.305
 4723SOL    HW216067   4.486  10.962   6.355
 4724SOL     OW16068  10.281  10.056   6.585
 4724SOL    HW116069  10.282  10.024   6.675
 4724SOL    HW216070  10.335   9.994   6.536
 4725SOL     OW16071   1.312   2.322   6.657
 4725SOL    HW116072   1.393   2.313   6.708
 4725SOL    HW216073   1.256   2.379   6.710
 4726SOL     OW16074   5.260  11.323  13.989
 4726SOL    HW116075   5.320  11.391  14.019
 4726SOL    HW216076   5.309  11.242  13.998
 4727SOL     OW16077  13.682   0.312   9.729
 4727SOL    HW116078  13.661   0.405   9.723
 4727SOL    HW216079  13.612   0.268   9.680
 4728SOL     OW16080   2.689   8.172   7.202
 4728SOL    HW116081   2.683   8.193   7.295
 4728SOL    HW216082   2.782   8.155   7.187
 4729SOL     OW16083   2.801  10.176   5.439
 4729SOL    HW116084   2.864  10.245   5.456
 4729SOL    HW216085   2.724  10.199   5.492
 4730SOL     OW16086  14.829   5.454   2.736
 4730SOL    HW116087   0.051   5.457   2.764
 4730SOL    HW216088  14.795   5.374   2.776
 4731SOL     OW16089   3.789  11.237  14.145
 4731SOL    HW116090   3.858  11.226  14.079
 4731SOL    HW216091   3.732  11.161  14.134
 4732SOL     OW16092   6.770  12.755   4.503
 4732SOL    HW116093   6.696  12.711   4.462
 4732SOL    HW216094   6.743  12.847   4.508
 4733SOL     OW16095   6.021   5.992  10.094
 4733SOL    HW116096   5.961   5.966  10.024
 4733SOL    HW216097   6.023   5.916  10.153
 4734SOL     OW16098   2.507   8.630   5.244
 4734SOL    HW116099   2.539   8.687   5.314
 4734SOL    HW216100   2.427   8.591   5.279
 4735SOL     OW16101   1.183  12.673  13.405
 4735SOL    HW116102   1.231  12.750  13.437
 4735SOL    HW216103   1.114  12.659  13.471
 4736SOL     OW16104   7.695   3.863  10.637
 4736SOL    HW116105   7.602   3.865  10.660
 4736SOL    HW216106   7.727   3.950  10.660
 4737SOL     OW16107   4.976   9.654   2.908
 4737SOL    HW116108   5.051   9.680   2.854
 4737SOL    HW216109   5.005   9.575   2.953
 4738SOL     OW16110   1.507   1.564  10.488
 4738SOL    HW116111   1.517   1.485  10.435
 4738SOL    HW216112   1.449   1.539  10.559
 4739SOL     OW16113   9.260  13.226  10.561
 4739SOL    HW116114   9.323  13.193  10.497
 4739SOL    HW216115   9.292  13.193  10.645
 4740SOL     OW16116  13.383   6.929   6.793
 4740SOL    HW116117  13.336   6.875   6.729
 4740SOL    HW216118  13.417   7.002   6.741
 4741SOL     OW16119   6.062   7.182  14.619
 4741SOL    HW116120   6.081   7.088  14.614
 4741SOL    HW216121   6.145   7.225  14.599
 4742SOL     OW16122   0.870  10.613  14.284
 4742SOL    HW116123   0.842  10.624  14.193
 4742SOL    HW216124   0.965  10.620  14.280
 4743SOL     OW16125   5.754   6.256   1.953
 4743SOL    HW116126   5.713   6.197   2.017
 4743SOL    HW216127   5.773   6.336   2.003
 4744SOL     OW16128   0.996   4.211   5.420
 4744SOL    HW116129   0.991   4.126   5.376
 4744SOL    HW216130   0.999   4.275   5.349
 4745SOL     OW16131   8.799   1.570   0.897
 4745SOL    HW116132   8.801   1.475   0.903
 4745SOL    HW216133   8.890   1.597   0.910
 4746SOL     OW16134   2.339   6.071  12.287
 4746SOL    HW116135   2.410   6.108  12.339
 4746SOL    HW216136   2.264   6.071  12.346
 4747SOL     OW16137  13.525  13.182  13.810
 4747SOL    HW116138  13.522  13.170  13.716
 4747SOL    HW216139  13.485  13.268  13.824
 4748SOL     OW16140   4.515   9.263   1.701
 4748SOL    HW116141   4.545   9.349   1.731
 4748SOL    HW216142   4.420   9.265   1.712
 4749SOL     OW16143   1.839   5.638   2.162
 4749SOL    HW116144   1.787   5.655   2.241
 4749SOL    HW216145   1.917   5.692   2.172
 4750SOL     OW16146  10.729   1.720   6.440
 4750SOL    HW116147  10.736   1.626   6.430
 4750SOL    HW216148  10.811   1.755   6.405
 4751SOL     OW16149  13.407   7.361  10.949
 4751SOL    HW116150  13.351   7.352  11.027
 4751SOL    HW216151  13.441   7.450  10.954
 4752SOL     OW16152   6.114   3.819  10.130
 4752SOL    HW116153   6.080   3.890  10.185
 4752SOL    HW216154   6.051   3.748  10.143
 4753SOL     OW16155  10.471  14.519   3.544
 4753SOL    HW116156  10.423  14.593   3.506
 4753SOL    HW216157  10.560  14.529   3.512
 4754SOL     OW16158   1.124  10.317   3.857
 4754SOL    HW116159   1.101  10.357   3.941
 4754SOL    HW216160   1.121  10.223   3.875
 4755SOL     OW16161   7.399   0.952   7.453
 4755SOL    HW116162   7.458   1.027   7.446
 4755SOL    HW216163   7.408   0.923   7.544
 4756SOL     OW16164   7.337  11.660  10.525
 4756SOL    HW116165   7.294  11.731  10.572
 4756SOL    HW216166   7.315  11.581  10.575
 4757SOL     OW16167   4.301   0.379   2.900
 4757SOL    HW116168   4.239   0.362   2.829
 4757SOL    HW216169   4.279   0.313   2.966
 4758SOL     OW16170   7.707   9.343  10.798
 4758SOL    HW116171   7.673   9.399  10.868
 4758SOL    HW216172   7.633   9.329  10.739
 4759SOL     OW16173   5.822   8.678   8.933
 4759SOL    HW116174   5.768   8.637   8.865
 4759SOL    HW216175   5.878   8.607   8.965
 4760SOL     OW16176   7.420  14.623   9.555
 4760SOL    HW116177   7.476  14.551   9.583
 4760SOL    HW216178   7.472  14.671   9.491
 4761SOL     OW16179   5.147   2.112   0.889
 4761SOL    HW116180   5.141   2.119   0.794
 4761SOL    HW216181   5.232   2.151   0.910
 4762SOL     OW16182  11.977   8.651   6.918
 4762SOL    HW116183  12.069   8.649   6.891
 4762SOL    HW216184  11.958   8.745   6.928
 4763SOL     OW16185   7.529   0.898   8.281
 4763SOL    HW116186   7.485   0.946   8.351
 4763SOL    HW216187   7.505   0.945   8.201
 4764SOL     OW16188   8.294   6.461   1.920
 4764SOL    HW116189   8.366   6.518   1.948
 4764SOL    HW216190   8.224   6.480   1.982
 4765SOL     OW16191  10.762   8.505  12.449
 4765SOL    HW116192  10.795   8.594  12.458
 4765SOL    HW216193  10.828   8.460  12.396
 4766SOL     OW16194  13.944  11.102  14.367
 4766SOL    HW116195  13.945  11.019  14.320
 4766SOL    HW216196  14.036  11.126  14.375
 4767SOL     OW16197   7.404  12.496  10.731
 4767SOL    HW116198   7.467  12.459  10.669
 4767SOL    HW216199   7.320  12.490  10.685
 4768SOL     OW16200   6.537  12.322  14.046
 4768SOL    HW116201   6.573  12.375  13.974
 4768SOL    HW216202   6.449  12.357  14.059
 4769SOL     OW16203   9.691   6.263   4.828
 4769SOL    HW116204   9.696   6.322   4.753
 4769SOL    HW216205   9.776   6.270   4.871
 4770SOL     OW16206  14.232   4.172   3.479
 4770SOL    HW116207  14.253   4.133   3.564
 4770SOL    HW216208  14.317   4.196   3.442
 4771SOL     OW16209  11.279  10.893   6.929
 4771SOL    HW116210  11.225  10.954   6.978
 4771SOL    HW216211  11.368  10.911   6.958
 4772SOL     OW16212   4.344   0.204   9.785
 4772SOL    HW116213   4.288   0.239   9.854
 4772SOL    HW216214   4.299   0.228   9.704
 4773SOL     OW16215   4.697   3.144   8.834
 4773SOL    HW116216   4.707   3.070   8.893
 4773SOL    HW216217   4.654   3.211   8.886
 4774SOL     OW16218   6.081   7.464   4.338
 4774SOL    HW116219   6.073   7.416   4.420
 4774SOL    HW216220   6.147   7.415   4.288
 4775SOL     OW16221   0.392   3.945   0.517
 4775SOL    HW116222   0.438   3.947   0.601
 4775SOL    HW216223   0.364   4.035   0.503
 4776SOL     OW16224  13.518  11.287   8.218
 4776SOL    HW116225  13.496  11.369   8.262
 4776SOL    HW216226  13.514  11.309   8.125
 4777SOL     OW16227   4.732   3.078  12.590
 4777SOL    HW116228   4.644   3.114  12.591
 4777SOL    HW216229   4.732   3.016  12.516
 4778SOL     OW16230   1.810  10.451   9.880
 4778SOL    HW116231   1.788  10.416   9.967
 4778SOL    HW216232   1.900  10.421   9.866
 4779SOL     OW16233  10.735   6.676   0.271
 4779SOL    HW116234  10.698   6.628   0.345
 4779SOL    HW216235  10.674   6.660   0.199
 4780SOL     OW16236  14.552   6.440   9.614
 4780SOL    HW116237  14.497   6.491   9.674
 4780SOL    HW216238  14.632   6.492   9.605
 4781SOL     OW16239   2.120  10.880   2.746
 4781SOL    HW116240   2.167  10.897   2.665
 4781SOL    HW216241   2.031  10.858   2.719
 4782SOL     OW16242   1.396   4.170   0.865
 4782SOL    HW116243   1.430   4.128   0.943
 4782SOL    HW216244   1.472   4.215   0.827
 4783SOL     OW16245   1.579   3.818   1.323
 4783SOL    HW116246   1.673   3.822   1.339
 4783SOL    HW216247   1.546   3.904   1.348
 4784SOL     OW16248   9.025   4.816   3.162
 4784SOL    HW116249   8.953   4.780   3.215
 4784SOL    HW216250   9.104   4.790   3.209
 4785SOL     OW16251  11.126  12.683   6.548
 4785SOL    HW116252  11.063  12.736   6.596
 4785SOL    HW216253  11.159  12.620   6.613
 4786SOL     OW16254   5.625   5.052   1.622
 4786SOL    HW116255   5.697   5.086   1.569
 4786SOL    HW216256   5.552   5.111   1.604
 4787SOL     OW16257   8.439  10.519   3.090
 4787SOL    HW116258   8.386  10.470   3.153
 4787SOL    HW216259   8.508  10.457   3.064
 4788SOL     OW16260   1.888   1.371   3.639
 4788SOL    HW116261   1.871   1.316   3.716
 4788SOL    HW216262   1.856   1.318   3.565
 4789SOL     OW16263   6.048  13.003   2.688
 4789SOL    HW116264   5.959  12.975   2.663
 4789SOL    HW216265   6.083  12.929   2.738
 4790SOL     OW16266   0.490   0.218   4.851
 4790SOL    HW116267   0.549   0.264   4.791
 4790SOL    HW216268   0.420   0.185   4.796
 4791SOL     OW16269  14.225  11.052   3.978
 4791SOL    HW116270  14.147  11.060   4.033
 4791SOL    HW216271  14.290  11.009   4.034
 4792SOL     OW16272   6.546   0.360   2.907
 4792SOL    HW116273   6.606   0.295   2.942
 4792SOL    HW216274   6.543   0.429   2.974
 4793SOL     OW16275   3.388   6.687  11.915
 4793SOL    HW116276   3.362   6.693  11.824
 4793SOL    HW216277   3.469   6.636  11.913
 4794SOL     OW16278   9.232  11.996   0.857
 4794SOL    HW116279   9.205  11.941   0.931
 4794SOL    HW216280   9.151  12.035   0.825
 4795SOL     OW16281   0.134  13.696  12.244
 4795SOL    HW116282   0.062  13.716  12.304
 4795SOL    HW216283   0.213  13.698  12.298
 4796SOL     OW16284   7.073   5.772  12.427
 4796SOL    HW116285   7.105   5.686  12.456
 4796SOL    HW216286   7.086   5.773  12.333
 4797SOL     OW16287   6.888   6.564  13.944
 4797SOL    HW116288   6.972   6.534  13.979
 4797SOL    HW216289   6.884   6.657  13.966
 4798SOL     OW16290   1.237   3.027   0.573
 4798SOL    HW116291   1.182   3.097   0.539
 4798SOL    HW216292   1.193   2.999   0.654
 4799SOL     OW16293   9.674  11.639   4.176
 4799SOL    HW116294   9.703  11.651   4.086
 4799SOL    HW216295   9.661  11.728   4.208
 4800SOL     OW16296   1.430   3.911   8.796
 4800SOL    HW116297   1.363   3.862   8.748
 4800SOL    HW216298   1.390   3.996   8.813
 4801SOL     OW16299   1.728   9.165   3.024
 4801SOL    HW116300   1.680   9.158   3.107
 4801SOL    HW216301   1.659   9.166   2.957
 4802SOL     OW16302   8.616   3.703  14.701
 4802SOL    HW116303   8.668   3.733  14.776
 4802SOL    HW216304   8.530   3.683  14.738
 4803SOL     OW16305  10.244  14.337   4.949
 4803SOL    HW116306  10.260  14.242   4.952
 4803SOL    HW216307  10.220  14.360   5.038
 4804SOL     OW16308   6.728   5.107   7.644
 4804SOL    HW116309   6.797   5.044   7.666
 4804SOL    HW216310   6.712   5.153   7.726
 4805SOL     OW16311   1.342   7.766   2.432
 4805SOL    HW116312   1.318   7.715   2.510
 4805SOL    HW216313   1.435   7.785   2.444
 4806SOL     OW16314   6.921   7.771   4.181
 4806SOL    HW116315   6.916   7.863   4.152
 4806SOL    HW216316   6.831   7.749   4.204
 4807SOL     OW16317   4.285   2.748   3.077
 4807SOL    HW116318   4.352   2.776   3.015
 4807SOL    HW216319   4.212   2.720   3.023
 4808SOL     OW16320  10.153   7.257   7.642
 4808SOL    HW116321  10.076   7.313   7.656
 4808SOL    HW216322  10.117   7.170   7.624
 4809SOL     OW16323   0.661   4.681   5.928
 4809SOL    HW116324   0.703   4.595   5.935
 4809SOL    HW216325   0.604   4.673   5.852
 4810SOL     OW16326   0.594   8.172  11.612
 4810SOL    HW116327   0.542   8.164  11.692
 4810SOL    HW216328   0.631   8.085  11.599
 4811SOL     OW16329  14.393   0.507   0.089
 4811SOL    HW116330  14.464   0.503   0.024
 4811SOL    HW216331  14.394   0.598   0.119
 4812SOL     OW16332  14.801  13.920  13.656
 4812SOL    HW116333  14.817  13.953  13.567
 4812SOL    HW216334   0.016  13.886  13.684
 4813SOL     OW16335  12.549   6.534   9.186
 4813SOL    HW116336  12.546   6.587   9.107
 4813SOL    HW216337  12.540   6.444   9.156
 4814SOL     OW16338  10.694  13.816   7.564
 4814SOL    HW116339  10.699  13.866   7.645
 4814SOL    HW216340  10.712  13.879   7.495
 4815SOL     OW16341   7.904   2.533  10.525
 4815SOL    HW116342   7.957   2.484  10.462
 4815SOL    HW216343   7.958   2.610  10.547
 4816SOL     OW16344   4.999   4.182  14.687
 4816SOL    HW116345   4.942   4.238  14.635
 4816SOL    HW216346   5.007   4.226  14.771
 4817SOL     OW16347   1.210   2.875   9.430
 4817SOL    HW116348   1.135   2.822   9.403
 4817SOL    HW216349   1.170   2.951   9.473
 4818SOL     OW16350   8.570   1.365  11.471
 4818SOL    HW116351   8.516   1.288  11.490
 4818SOL    HW216352   8.519   1.439  11.504
 4819SOL     OW16353  13.609  13.068   3.997
 4819SOL    HW116354  13.590  13.060   3.904
 4819SOL    HW216355  13.695  13.111   4.001
 4820SOL     OW16356   2.366  10.123   4.785
 4820SOL    HW116357   2.317  10.052   4.744
 4820SOL    HW216358   2.441  10.138   4.726
 4821SOL     OW16359  12.735   1.453   6.085
 4821SOL    HW116360  12.716   1.382   6.024
 4821SOL    HW216361  12.649   1.474   6.124
 4822SOL     OW16362   9.063   4.309  12.078
 4822SOL    HW116363   9.063   4.257  12.158
 4822SOL    HW216364   8.992   4.271  12.025
 4823SOL     OW16365   1.518   0.001   1.336
 4823SOL    HW116366   1.465   0.046   1.402
 4823SOL    HW216367   1.456  14.812   1.293
 4824SOL     OW16368   2.162   4.614   4.415
 4824SOL    HW116369   2.233   4.570   4.368
 4824SOL    HW216370   2.181   4.707   4.405
 4825SOL     OW16371   7.831  13.859   5.332
 4825SOL    HW116372   7.920  13.833   5.310
 4825SOL    HW216373   7.825  13.845   5.427
 4826SOL     OW16374   6.553   7.907   9.859
 4826SOL    HW116375   6.595   7.919   9.773
 4826SOL    HW216376   6.463   7.881   9.838
 4827SOL     OW16377   7.115   1.000   2.137
 4827SOL    HW116378   7.061   1.078   2.123
 4827SOL    HW216379   7.120   0.991   2.232
 4828SOL     OW16380  10.497  13.090   8.156
 4828SOL    HW116381  10.496  13.156   8.086
 4828SOL    HW216382  10.544  13.132   8.228
 4829SOL     OW16383  11.331   1.857   2.243
 4829SOL    HW116384  11.250   1.902   2.217
 4829SOL    HW216385  11.400   1.899   2.192
 4830SOL     OW16386   5.323  10.639   2.401
 4830SOL    HW116387   5.353  10.647   2.310
 4830SOL    HW216388   5.403  10.624   2.451
 4831SOL     OW16389  11.304   3.737   8.003
 4831SOL    HW116390  11.351   3.781   8.074
 4831SOL    HW216391  11.245   3.804   7.967
 4832SOL     OW16392   7.931   1.682   3.830
 4832SOL    HW116393   7.865   1.684   3.761
 4832SOL    HW216394   8.015   1.682   3.782
 4833SOL     OW16395   8.320   5.982   6.979
 4833SOL    HW116396   8.278   5.903   6.945
 4833SOL    HW216397   8.256   6.019   7.040
 4834SOL     OW16398  12.155  13.926   0.553
 4834SOL    HW116399  12.152  13.978   0.633
 4834SOL    HW216400  12.216  13.973   0.496
 4835SOL     OW16401  13.539   8.946  12.273
 4835SOL    HW116402  13.596   8.918  12.202
 4835SOL    HW216403  13.532   8.869  12.330
 4836SOL     OW16404  12.421   3.124   6.261
 4836SOL    HW116405  12.365   3.173   6.322
 4836SOL    HW216406  12.364   3.102   6.188
 4837SOL     OW16407   4.495  12.871   6.654
 4837SOL    HW116408   4.586  12.840   6.656
 4837SOL    HW216409   4.495  12.943   6.591
 4838SOL     OW16410   8.412   6.723  11.057
 4838SOL    HW116411   8.484   6.680  11.103
 4838SOL    HW216412   8.375   6.783  11.121
 4839SOL     OW16413   0.386   9.008  10.500
 4839SOL    HW116414   0.375   9.015  10.594
 4839SOL    HW216415   0.454   9.071  10.478
 4840SOL     OW16416  10.688   7.522  10.502
 4840SOL    HW116417  10.611   7.570  10.532
 4840SOL    HW216418  10.735   7.583  10.446
 4841SOL     OW16419   4.968   6.294  12.524
 4841SOL    HW116420   4.916   6.323  12.599
 4841SOL    HW216421   4.921   6.327  12.447
 4842SOL     OW16422   7.221   6.176   5.997
 4842SOL    HW116423   7.132   6.206   6.016
 4842SOL    HW216424   7.246   6.125   6.074
 4843SOL     OW16425  13.430   3.890  14.292
 4843SOL    HW116426  13.361   3.956  14.300
 4843SOL    HW216427  13.446   3.883  14.197
 4844SOL     OW16428   5.740   9.864  12.935
 4844SOL    HW116429   5.647   9.885  12.927
 4844SOL    HW216430   5.766   9.834  12.847
 4845SOL     OW16431   2.903  14.121   5.641
 4845SOL    HW116432   2.930  14.057   5.706
 4845SOL    HW216433   2.974  14.123   5.577
 4846SOL     OW16434   6.244   8.242   5.498
 4846SOL    HW116435   6.306   8.197   5.555
 4846SOL    HW216436   6.206   8.310   5.553
 4847SOL     OW16437   8.879   1.610   6.806
 4847SOL    HW116438   8.919   1.672   6.744
 4847SOL    HW216439   8.898   1.648   6.892
 4848SOL     OW16440  11.114  13.401   2.997
 4848SOL    HW116441  11.075  13.488   3.005
 4848SOL    HW216442  11.089  13.356   3.078
 4849SOL     OW16443   0.737  12.291   3.527
 4849SOL    HW116444   0.696  12.211   3.493
 4849SOL    HW216445   0.817  12.261   3.569
 4850SOL     OW16446   4.235  13.659  10.136
 4850SOL    HW116447   4.202  13.646  10.225
 4850SOL    HW216448   4.160  13.644  10.080
 4851SOL     OW16449   4.920   1.627  11.985
 4851SOL    HW116450   4.888   1.718  11.986
 4851SOL    HW216451   4.961   1.617  11.899
 4852SOL     OW16452  14.418   4.270   0.597
 4852SOL    HW116453  14.421   4.293   0.690
 4852SOL    HW216454  14.510   4.258   0.572
 4853SOL     OW16455   4.863   6.590   2.998
 4853SOL    HW116456   4.808   6.540   3.058
 4853SOL    HW216457   4.922   6.525   2.960
 4854SOL     OW16458  11.593   7.534   6.872
 4854SOL    HW116459  11.512   7.585   6.870
 4854SOL    HW216460  11.661   7.598   6.853
 4855SOL     OW16461  14.485   8.807   5.602
 4855SOL    HW116462  14.459   8.718   5.581
 4855SOL    HW216463  14.405   8.859   5.593
 4856SOL     OW16464  11.036   1.371   6.738
 4856SOL    HW116465  10.970   1.381   6.806
 4856SOL    HW216466  11.097   1.444   6.753
 4857SOL     OW16467   5.392  14.181   7.707
 4857SOL    HW116468   5.475  14.168   7.754
 4857SOL    HW216469   5.325  14.151   7.769
 4858SOL     OW16470   7.666   6.997   1.152
 4858SOL    HW116471   7.574   6.972   1.144
 4858SOL    HW216472   7.671   7.047   1.233
 4859SOL     OW16473   3.425   5.869   9.049
 4859SOL    HW116474   3.356   5.911   9.099
 4859SOL    HW216475   3.481   5.941   9.020
 4860SOL     OW16476  11.316  12.071   0.457
 4860SOL    HW116477  11.370  12.065   0.378
 4860SOL    HW216478  11.242  12.126   0.431
 4861SOL     OW16479   2.696  11.803   7.504
 4861SOL    HW116480   2.787  11.775   7.492
 4861SOL    HW216481   2.653  11.780   7.422
 4862SOL     OW16482  12.285   0.029   3.980
 4862SOL    HW116483  12.378   0.052   3.974
 4862SOL    HW216484  12.241   0.093   3.924
 4863SOL     OW16485  14.390   6.221  10.105
 4863SOL    HW116486  14.395   6.152  10.171
 4863SOL    HW216487  14.442   6.293  10.141
 4864SOL     OW16488   3.018   4.258  11.932
 4864SOL    HW116489   2.940   4.307  11.905
 4864SOL    HW216490   3.033   4.196  11.860
 4865SOL     OW16491  12.468  11.963  11.087
 4865SOL    HW116492  12.563  11.970  11.074
 4865SOL    HW216493  12.443  12.043  11.132
 4866SOL     OW16494   8.320  14.358   7.972
 4866SOL    HW116495   8.310  14.363   8.067
 4866SOL    HW216496   8.248  14.411   7.938
 4867SOL     OW16497  11.180   1.199  14.508
 4867SOL    HW116498  11.235   1.275  14.488
 4867SOL    HW216499  11.092   1.225  14.482
 4868SOL     OW16500   6.889  11.356  14.583
 4868SOL    HW116501   6.825  11.427  14.586
 4868SOL    HW216502   6.907  11.335  14.675
 4869SOL     OW16503   2.059   3.320   2.401
 4869SOL    HW116504   2.078   3.239   2.354
 4869SOL    HW216505   2.106   3.311   2.484
 4870SOL     OW16506   5.087   4.649   2.011
 4870SOL    HW116507   5.069   4.588   2.083
 4870SOL    HW216508   5.155   4.605   1.959
 4871SOL     OW16509   5.235   0.466   2.363
 4871SOL    HW116510   5.297   0.425   2.303
 4871SOL    HW216511   5.249   0.422   2.446
 4872SOL     OW16512   8.344  13.791   7.184
 4872SOL    HW116513   8.302  13.875   7.198
 4872SOL    HW216514   8.308  13.760   7.100
 4873SOL     OW16515   6.161  14.413  11.988
 4873SOL    HW116516   6.211  14.388  11.911
 4873SOL    HW216517   6.225  14.454  12.046
 4874SOL     OW16518   1.152  14.126  14.061
 4874SOL    HW116519   1.108  14.049  14.024
 4874SOL    HW216520   1.197  14.166  13.987
 4875SOL     OW16521   2.444   6.217  12.911
 4875SOL    HW116522   2.525   6.167  12.921
 4875SOL    HW216523   2.465   6.304  12.944
 4876SOL     OW16524   6.417   3.536  12.529
 4876SOL    HW116525   6.437   3.490  12.448
 4876SOL    HW216526   6.427   3.629  12.507
 4877SOL     OW16527  12.244  11.682   0.562
 4877SOL    HW116528  12.175  11.748   0.572
 4877SOL    HW216529  12.324  11.728   0.589
 4878SOL     OW16530  10.967   4.083   0.670
 4878SOL    HW116531  10.879   4.079   0.631
 4878SOL    HW216532  10.976   3.999   0.715
 4879SOL     OW16533  10.269  13.673  11.762
 4879SOL    HW116534  10.273  13.755  11.712
 4879SOL    HW216535  10.231  13.610  11.701
 4880SOL     OW16536   8.376  10.020   6.923
 4880SOL    HW116537   8.412   9.963   6.991
 4880SOL    HW216538   8.350  10.099   6.969
 4881SOL     OW16539   1.014   4.837  11.525
 4881SOL    HW116540   1.109   4.829  11.520
 4881SOL    HW216541   0.993   4.821  11.617
 4882SOL     OW16542   1.988   2.660  14.692
 4882SOL    HW116543   2.033   2.592  14.641
 4882SOL    HW216544   1.999   2.740  14.639
 4883SOL     OW16545   0.857  14.054   7.853
 4883SOL    HW116546   0.787  14.118   7.842
 4883SOL    HW216547   0.937  14.105   7.855
 4884SOL     OW16548   1.636  13.336   7.372
 4884SOL    HW116549   1.586  13.381   7.440
 4884SOL    HW216550   1.591  13.252   7.360
 4885SOL     OW16551   8.127  10.015   0.188
 4885SOL    HW116552   8.200   9.976   0.237
 4885SOL    HW216553   8.159  10.023   0.099
 4886SOL     OW16554   8.100  11.876   5.918
 4886SOL    HW116555   8.044  11.886   5.996
 4886SOL    HW216556   8.189  11.874   5.953
 4887SOL     OW16557  11.485  12.757  10.007
 4887SOL    HW116558  11.398  12.791  10.026
 4887SOL    HW216559  11.489  12.673  10.052
 4888SOL     OW16560   3.994  10.619   7.470
 4888SOL    HW116561   3.923  10.627   7.534
 4888SOL    HW216562   3.950  10.623   7.385
 4889SOL     OW16563   6.957   1.459  11.764
 4889SOL    HW116564   6.994   1.545  11.784
 4889SOL    HW216565   6.998   1.434  11.681
 4890SOL     OW16566   1.279  13.162   7.531
 4890SOL    HW116567   1.265  13.251   7.499
 4890SOL    HW216568   1.362  13.166   7.578
 4891SOL     OW16569   2.137  13.895   5.233
 4891SOL    HW116570   2.170  13.811   5.202
 4891SOL    HW216571   2.138  13.888   5.328
 4892SOL     OW16572   9.611   8.660  10.191
 4892SOL    HW116573   9.535   8.706  10.155
 4892SOL    HW216574   9.680   8.673  10.126
 4893SOL     OW16575   6.376   0.772   6.688
 4893SOL    HW116576   6.323   0.799   6.613
 4893SOL    HW216577   6.327   0.805   6.764
 4894SOL     OW16578   2.546   7.069   5.059
 4894SOL    HW116579   2.543   7.163   5.038
 4894SOL    HW216580   2.636   7.053   5.086
 4895SOL     OW16581  14.414   6.119   9.864
 4895SOL    HW116582  14.399   6.028   9.892
 4895SOL    HW216583  14.408   6.170   9.944
 4896SOL     OW16584   0.268  10.291   0.328
 4896SOL    HW116585   0.294  10.199   0.319
 4896SOL    HW216586   0.245  10.318   0.239
 4897SOL     OW16587  13.734  14.107   3.523
 4897SOL    HW116588  13.821  14.127   3.490
 4897SOL    HW216589  13.718  14.174   3.589
 4898SOL     OW16590   6.281   6.142   7.599
 4898SOL    HW116591   6.344   6.100   7.541
 4898SOL    HW216592   6.289   6.236   7.579
 4899SOL     OW16593  10.523  12.168   0.476
 4899SOL    HW116594  10.502  12.255   0.441
 4899SOL    HW216595  10.545  12.116   0.399
 4900SOL     OW16596   0.579   1.806   2.707
 4900SOL    HW116597   0.671   1.805   2.733
 4900SOL    HW216598   0.567   1.723   2.661
 4901SOL     OW16599   0.325  13.274   0.986
 4901SOL    HW116600   0.362  13.307   0.904
 4901SOL    HW216601   0.344  13.341   1.051
 4902SOL     OW16602  13.362   1.877   3.293
 4902SOL    HW116603  13.427   1.935   3.255
 4902SOL    HW216604  13.279   1.903   3.253
 4903SOL     OW16605   4.720  12.261   9.659
 4903SOL    HW116606   4.659  12.268   9.585
 4903SOL    HW216607   4.670  12.214   9.726
 4904SOL     OW16608   1.877   2.450   8.751
 4904SOL    HW116609   1.931   2.449   8.830
 4904SOL    HW216610   1.789   2.425   8.782
 4905SOL     OW16611  11.732  12.314   2.995
 4905SOL    HW116612  11.824  12.328   2.973
 4905SOL    HW216613  11.732  12.235   3.049
 4906SOL     OW16614   8.908   2.642  13.652
 4906SOL    HW116615   8.821   2.603  13.646
 4906SOL    HW216616   8.902   2.701  13.727
 4907SOL     OW16617   7.942   5.134   8.220
 4907SOL    HW116618   7.861   5.117   8.269
 4907SOL    HW216619   7.926   5.096   8.134
 4908SOL     OW16620   5.100   8.428   0.299
 4908SOL    HW116621   5.070   8.511   0.263
 4908SOL    HW216622   5.186   8.449   0.337
 4909SOL     OW16623   2.178  10.073   0.951
 4909SOL    HW116624   2.122  10.134   0.904
 4909SOL    HW216625   2.253  10.126   0.978
 4910SOL     OW16626   5.248   4.819  10.231
 4910SOL    HW116627   5.304   4.890  10.262
 4910SOL    HW216628   5.308   4.752  10.201
 4911SOL     OW16629   0.790  11.129   0.254
 4911SOL    HW116630   0.870  11.181   0.254
 4911SOL    HW216631   0.818  11.041   0.232
 4912SOL     OW16632   5.187   6.538   6.103
 4912SOL    HW116633   5.130   6.462   6.112
 4912SOL    HW216634   5.197   6.550   6.009
 4913SOL     OW16635   9.598  11.757   8.444
 4913SOL    HW116636   9.592  11.761   8.349
 4913SOL    HW216637   9.594  11.664   8.465
 4914SOL     OW16638   8.313   0.838   7.256
 4914SOL    HW116639   8.321   0.902   7.185
 4914SOL    HW216640   8.403   0.820   7.282
 4915SOL     OW16641   8.322   3.300   6.790
 4915SOL    HW116642   8.259   3.326   6.857
 4915SOL    HW216643   8.408   3.316   6.829
 4916SOL     OW16644   0.862   0.509   6.185
 4916SOL    HW116645   0.945   0.539   6.146
 4916SOL    HW216646   0.888   0.460   6.263
 4917SOL     OW16647  14.608  11.254  10.982
 4917SOL    HW116648  14.537  11.204  10.941
 4917SOL    HW216649  14.615  11.334  10.929
 4918SOL     OW16650   0.935   6.393  13.466
 4918SOL    HW116651   1.007   6.334  13.444
 4918SOL    HW216652   0.976   6.478  13.479
 4919SOL     OW16653   3.134   2.540   7.725
 4919SOL    HW116654   3.183   2.547   7.807
 4919SOL    HW216655   3.145   2.448   7.699
 4920SOL     OW16656   8.357  13.214   4.287
 4920SOL    HW116657   8.422  13.156   4.249
 4920SOL    HW216658   8.339  13.178   4.373
 4921SOL     OW16659   5.011   0.728   8.601
 4921SOL    HW116660   4.956   0.744   8.677
 4921SOL    HW216661   5.101   0.729   8.635
 4922SOL     OW16662   4.163  10.170   2.251
 4922SOL    HW116663   4.117  10.190   2.332
 4922SOL    HW216664   4.254  10.161   2.277
 4923SOL     OW16665  12.533   5.608  14.487
 4923SOL    HW116666  12.536   5.532  14.429
 4923SOL    HW216667  12.540   5.684  14.428
 4924SOL     OW16668  10.120   7.810   8.593
 4924SOL    HW116669  10.038   7.859   8.599
 4924SOL    HW216670  10.101   7.738   8.534
 4925SOL     OW16671   8.228  10.743   5.958
 4925SOL    HW116672   8.200  10.813   6.018
 4925SOL    HW216673   8.161  10.675   5.968
 4926SOL     OW16674   5.498   6.945   1.071
 4926SOL    HW116675   5.483   6.981   1.158
 4926SOL    HW216676   5.500   7.021   1.013
 4927SOL     OW16677   6.966   5.678   1.665
 4927SOL    HW116678   7.013   5.750   1.623
 4927SOL    HW216679   6.881   5.676   1.621
 4928SOL     OW16680   4.222   9.617   7.749
 4928SOL    HW116681   4.270   9.649   7.826
 4928SOL    HW216682   4.229   9.522   7.755
 4929SOL     OW16683  13.088  13.265   0.250
 4929SOL    HW116684  13.144  13.245   0.174
 4929SOL    HW216685  13.060  13.355   0.236
 4930SOL     OW16686   7.607  14.432   9.039
 4930SOL    HW116687   7.672  14.444   9.108
 4930SOL    HW216688   7.635  14.491   8.970
 4931SOL     OW16689  11.812   9.144  12.078
 4931SOL    HW116690  11.776   9.077  12.020
 4931SOL    HW216691  11.902   9.156  12.048
 4932SOL     OW16692   3.095   5.800  11.255
 4932SOL    HW116693   3.163   5.840  11.200
 4932SOL    HW216694   3.032   5.765  11.192
 4933SOL     OW16695   0.718  12.823   4.190
 4933SOL    HW116696   0.784  12.871   4.139
 4933SOL    HW216697   0.650  12.802   4.127
 4934SOL     OW16698   1.332   2.699  14.029
 4934SOL    HW116699   1.335   2.793  14.044
 4934SOL    HW216700   1.308   2.690  13.937
 4935SOL     OW16701  12.990  10.957   4.568
 4935SOL    HW116702  12.927  10.893   4.601
 4935SOL    HW216703  12.996  10.939   4.474
 4936SOL     OW16704   0.606   2.645   4.073
 4936SOL    HW116705   0.615   2.732   4.032
 4936SOL    HW216706   0.613   2.663   4.167
 4937SOL     OW16707   3.411   1.780  13.836
 4937SOL    HW116708   3.452   1.863  13.862
 4937SOL    HW216709   3.368   1.800  13.752
 4938SOL     OW16710   2.271   3.511   4.780
 4938SOL    HW116711   2.193   3.551   4.818
 4938SOL    HW216712   2.344   3.562   4.816
 4939SOL     OW16713   6.327  10.051   6.820
 4939SOL    HW116714   6.385  10.003   6.879
 4939SOL    HW216715   6.240  10.042   6.860
 4940SOL     OW16716  10.153   1.548   6.722
 4940SOL    HW116717  10.229   1.489   6.727
 4940SOL    HW216718  10.077   1.490   6.731
 4941SOL     OW16719  13.548   1.759  12.823
 4941SOL    HW116720  13.636   1.749  12.786
 4941SOL    HW216721  13.557   1.828  12.888
 4942SOL     OW16722   3.707   1.932   5.212
 4942SOL    HW116723   3.731   1.854   5.261
 4942SOL    HW216724   3.633   1.969   5.260
 4943SOL     OW16725   5.558   0.143  10.378
 4943SOL    HW116726   5.513   0.163  10.460
 4943SOL    HW216727   5.492   0.158  10.310
 4944SOL     OW16728   4.118  11.438  10.847
 4944SOL    HW116729   4.085  11.455  10.758
 4944SOL    HW216730   4.208  11.406  10.833
 4945SOL     OW16731   5.775   5.392   8.404
 4945SOL    HW116732   5.695   5.434   8.373
 4945SOL    HW216733   5.836   5.398   8.330
 4946SOL     OW16734   9.545   3.406   1.244
 4946SOL    HW116735   9.542   3.327   1.298
 4946SOL    HW216736   9.628   3.448   1.266
 4947SOL     OW16737   4.190   6.375  11.192
 4947SOL    HW116738   4.268   6.428  11.175
 4947SOL    HW216739   4.225   6.288  11.210
 4948SOL     OW16740   8.009   0.802   1.850
 4948SOL    HW116741   7.917   0.777   1.851
 4948SOL    HW216742   8.054   0.729   1.892
 4949SOL     OW16743   5.045   2.944   4.671
 4949SOL    HW116744   5.105   2.905   4.735
 4949SOL    HW216745   5.088   2.932   4.587
 4950SOL     OW16746  12.020   2.396   7.731
 4950SOL    HW116747  12.007   2.437   7.646
 4950SOL    HW216748  11.934   2.399   7.773
 4951SOL     OW16749   5.865  11.272  13.319
 4951SOL    HW116750   5.839  11.180  13.323
 4951SOL    HW216751   5.936  11.274  13.254
 4952SOL     OW16752   6.554  10.515  12.672
 4952SOL    HW116753   6.531  10.608  12.667
 4952SOL    HW216754   6.521  10.486  12.757
 4953SOL     OW16755  13.970   1.463   2.578
 4953SOL    HW116756  13.982   1.464   2.483
 4953SOL    HW216757  14.026   1.392   2.608
 4954SOL     OW16758   8.878   3.045   2.435
 4954SOL    HW116759   8.795   3.048   2.388
 4954SOL    HW216760   8.942   3.084   2.375
 4955SOL     OW16761   5.220   4.864  13.328
 4955SOL    HW116762   5.164   4.804  13.378
 4955SOL    HW216763   5.187   4.951  13.350
 4956SOL     OW16764   7.789   7.910   7.485
 4956SOL    HW116765   7.696   7.888   7.484
 4956SOL    HW216766   7.792   8.002   7.510
 4957SOL     OW16767   5.142   1.703   2.028
 4957SOL    HW116768   5.236   1.718   2.014
 4957SOL    HW216769   5.100   1.776   1.982
 4958SOL     OW16770   8.994   3.878   0.271
 4958SOL    HW116771   9.060   3.903   0.206
 4958SOL    HW216772   8.940   3.957   0.282
 4959SOL     OW16773   7.772  10.478  14.217
 4959SOL    HW116774   7.742  10.392  14.187
 4959SOL    HW216775   7.855  10.492  14.171
 4960SOL     OW16776   8.389   2.982   6.700
 4960SOL    HW116777   8.401   3.047   6.770
 4960SOL    HW216778   8.326   2.920   6.735
 4961SOL     OW16779   4.011   2.010   2.432
 4961SOL    HW116780   4.099   1.973   2.439
 4961SOL    HW216781   4.024   2.100   2.403
 4962SOL     OW16782   8.167   6.084   1.493
 4962SOL    HW116783   8.168   6.172   1.455
 4962SOL    HW216784   8.255   6.073   1.528
 4963SOL     OW16785   2.918   6.100   2.998
 4963SOL    HW116786   2.947   6.025   3.049
 4963SOL    HW216787   2.824   6.086   2.986
 4964SOL     OW16788   4.927   4.447   6.891
 4964SOL    HW116789   5.010   4.479   6.855
 4964SOL    HW216790   4.919   4.491   6.975
 4965SOL     OW16791   7.757   4.850  11.848
 4965SOL    HW116792   7.694   4.921  11.846
 4965SOL    HW216793   7.805   4.863  11.930
 4966SOL     OW16794   9.691   7.451  13.328
 4966SOL    HW116795   9.716   7.494  13.246
 4966SOL    HW216796   9.617   7.396  13.304
 4967SOL     OW16797   1.260   5.165   6.588
 4967SOL    HW116798   1.198   5.098   6.559
 4967SOL    HW216799   1.270   5.149   6.681
 4968SOL     OW16800   6.092  12.035  12.776
 4968SOL    HW116801   6.093  12.031  12.871
 4968SOL    HW216802   6.081  11.944  12.748
 4969SOL     OW16803   6.431   6.658   3.400
 4969SOL    HW116804   6.465   6.568   3.398
 4969SOL    HW216805   6.362   6.656   3.466
 4970SOL     OW16806  11.711  10.664   7.825
 4970SOL    HW116807  11.680  10.605   7.894
 4970SOL    HW216808  11.632  10.692   7.780
 4971SOL     OW16809  12.555  13.392   0.099
 4971SOL    HW116810  12.509  13.330   0.156
 4971SOL    HW216811  12.603  13.449   0.159
 4972SOL     OW16812   0.832  12.657  10.857
 4972SOL    HW116813   0.785  12.705  10.925
 4972SOL    HW216814   0.905  12.715  10.834
 4973SOL     OW16815   6.444  11.142   6.353
 4973SOL    HW116816   6.478  11.192   6.427
 4973SOL    HW216817   6.477  11.188   6.276
 4974SOL     OW16818   0.363   5.236   7.909
 4974SOL    HW116819   0.344   5.328   7.931
 4974SOL    HW216820   0.434   5.241   7.845
 4975SOL     OW16821   5.252  10.760   9.570
 4975SOL    HW116822   5.189  10.691   9.554
 4975SOL    HW216823   5.206  10.823   9.625
 4976SOL     OW16824   7.607   4.087   6.435
 4976SOL    HW116825   7.633   4.057   6.348
 4976SOL    HW216826   7.583   4.179   6.423
 4977SOL     OW16827   4.255   2.041  13.787
 4977SOL    HW116828   4.181   1.981  13.777
 4977SOL    HW216829   4.302   2.009  13.865
 4978SOL     OW16830   0.078   3.143   2.554
 4978SOL    HW116831   0.020   3.097   2.614
 4978SOL    HW216832   0.162   3.148   2.601
 4979SOL     OW16833  12.439   4.087  11.057
 4979SOL    HW116834  12.522   4.048  11.031
 4979SOL    HW216835  12.458   4.129  11.141
 4980SOL     OW16836   1.935  10.195  10.093
 4980SOL    HW116837   1.969  10.283  10.106
 4980SOL    HW216838   1.964  10.146  10.170
 4981SOL     OW16839  11.352   0.755  12.631
 4981SOL    HW116840  11.354   0.845  12.664
 4981SOL    HW216841  11.364   0.701  12.709
 4982SOL     OW16842  10.108   9.072   8.404
 4982SOL    HW116843  10.150   9.142   8.454
 4982SOL    HW216844  10.038   9.116   8.356
 4983SOL     OW16845  10.411   5.169   4.547
 4983SOL    HW116846  10.491   5.140   4.503
 4983SOL    HW216847  10.441   5.227   4.617
 4984SOL     OW16848  13.700  11.526   8.252
 4984SOL    HW116849  13.686  11.489   8.339
 4984SOL    HW216850  13.615  11.564   8.229
 4985SOL     OW16851   3.735   1.625   9.568
 4985SOL    HW116852   3.797   1.578   9.512
 4985SOL    HW216853   3.659   1.567   9.573
 4986SOL     OW16854  10.895   1.776   9.287
 4986SOL    HW116855  10.956   1.848   9.270
 4986SOL    HW216856  10.952   1.702   9.310
 4987SOL     OW16857   1.405   5.319  11.421
 4987SOL    HW116858   1.454   5.315  11.339
 4987SOL    HW216859   1.450   5.386  11.473
 4988SOL     OW16860  12.844   5.031   8.251
 4988SOL    HW116861  12.912   5.003   8.189
 4988SOL    HW216862  12.859   5.125   8.262
 4989SOL     OW16863  12.977  10.885   5.896
 4989SOL    HW116864  12.919  10.926   5.832
 4989SOL    HW216865  12.918  10.835   5.953
 4990SOL     OW16866   4.652  11.249   8.050
 4990SOL    HW116867   4.677  11.269   7.960
 4990SOL    HW216868   4.733  11.254   8.101
 4991SOL     OW16869   5.149   4.115   9.166
 4991SOL    HW116870   5.079   4.173   9.195
 4991SOL    HW216871   5.229   4.159   9.195
 4992SOL     OW16872   4.395  14.150   0.183
 4992SOL    HW116873   4.467  14.092   0.158
 4992SOL    HW216874   4.332  14.093   0.226
 4993SOL     OW16875   9.825  13.157  13.348
 4993SOL    HW116876   9.847  13.209  13.426
 4993SOL    HW216877   9.847  13.213  13.274
 4994SOL     OW16878   1.481   7.631   7.922
 4994SOL    HW116879   1.437   7.647   8.005
 4994SOL    HW216880   1.424   7.571   7.875
 4995SOL     OW16881   4.832   8.513   0.022
 4995SOL    HW116882   4.765   8.562  14.844
 4995SOL    HW216883   4.782   8.452   0.076
 4996SOL     OW16884   4.152  13.340   8.992
 4996SOL    HW116885   4.175  13.276   9.059
 4996SOL    HW216886   4.081  13.299   8.942
 4997SOL     OW16887  13.747   0.417   4.917
 4997SOL    HW116888  13.661   0.458   4.928
 4997SOL    HW216889  13.764   0.424   4.823
 4998SOL     OW16890   5.236   2.797  12.510
 4998SOL    HW116891   5.228   2.702  12.500
 4998SOL    HW216892   5.268   2.809  12.599
 4999SOL     OW16893  14.297   2.954   6.224
 4999SOL    HW116894  14.300   3.018   6.295
 4999SOL    HW216895  14.300   2.869   6.268
 5000SOL     OW16896   6.197  11.509   3.925
 5000SOL    HW116897   6.128  11.563   3.888
 5000SOL    HW216898   6.275  11.530   3.873
 5001SOL     OW16899   9.038  12.475  13.871
 5001SOL    HW116900   8.953  12.453  13.834
 5001SOL    HW216901   9.085  12.392  13.877
 5002SOL     OW16902   3.591   6.355  12.848
 5002SOL    HW116903   3.685   6.356  12.831
 5002SOL    HW216904   3.577   6.428  12.908
 5003SOL     OW16905   1.965   2.701  12.417
 5003SOL    HW116906   2.047   2.731  12.455
 5003SOL    HW216907   1.962   2.607  12.435
 5004SOL     OW16908   4.940  13.158   4.064
 5004SOL    HW116909   4.905  13.069   4.060
 5004SOL    HW216910   4.976  13.166   4.152
 5005SOL     OW16911   1.478   8.350   5.502
 5005SOL    HW116912   1.467   8.368   5.596
 5005SOL    HW216913   1.433   8.266   5.489
 5006SOL     OW16914  14.742   8.780   4.428
 5006SOL    HW116915  14.649   8.798   4.417
 5006SOL    HW216916  14.772   8.753   4.342
 5007SOL     OW16917  14.239  11.447   0.864
 5007SOL    HW116918  14.291  11.521   0.896
 5007SOL    HW216919  14.304  11.384   0.831
 5008SOL     OW16920   0.591   0.570  10.877
 5008SOL    HW116921   0.543   0.645  10.841
 5008SOL    HW216922   0.523   0.505  10.893
 5009SOL     OW16923   9.870   7.409   8.046
 5009SOL    HW116924   9.959   7.444   8.048
 5009SOL    HW216925   9.851   7.386   8.137
 5010SOL     OW16926   7.117   3.620   9.175
 5010SOL    HW116927   7.046   3.578   9.126
 5010SOL    HW216928   7.197   3.587   9.134
 5011SOL     OW16929   8.058  10.625  12.230
 5011SOL    HW116930   8.035  10.709  12.270
 5011SOL    HW216931   7.974  10.587  12.203
 5012SOL     OW16932   0.558  11.170   8.123
 5012SOL    HW116933   0.614  11.162   8.200
 5012SOL    HW216934   0.511  11.087   8.119
 5013SOL     OW16935  11.475  12.020  13.436
 5013SOL    HW116936  11.449  12.086  13.371
 5013SOL    HW216937  11.543  11.969  13.393
 5014SOL     OW16938   2.405  13.461   6.456
 5014SOL    HW116939   2.465  13.518   6.408
 5014SOL    HW216940   2.461  13.390   6.490
 5015SOL     OW16941   2.219   3.067   5.711
 5015SOL    HW116942   2.135   3.025   5.696
 5015SOL    HW216943   2.197   3.154   5.744
 5016SOL     OW16944   8.551   8.783  11.318
 5016SOL    HW116945   8.482   8.771  11.253
 5016SOL    HW216946   8.523   8.732  11.393
 5017SOL     OW16947   8.575  14.542   3.354
 5017SOL    HW116948   8.600  14.592   3.276
 5017SOL    HW216949   8.512  14.599   3.400
 5018SOL     OW16950   4.169  10.756   6.207
 5018SOL    HW116951   4.123  10.814   6.268
 5018SOL    HW216952   4.240  10.809   6.172
 5019SOL     OW16953   8.680   1.478   3.169
 5019SOL    HW116954   8.713   1.391   3.190
 5019SOL    HW216955   8.758   1.534   3.168
 5020SOL     OW16956   9.352   9.887   1.793
 5020SOL    HW116957   9.324   9.958   1.850
 5020SOL    HW216958   9.418   9.840   1.845
 5021SOL     OW16959  13.199   5.421   0.951
 5021SOL    HW116960  13.283   5.467   0.957
 5021SOL    HW216961  13.212   5.356   0.882
 5022SOL     OW16962   5.518  10.365  11.723
 5022SOL    HW116963   5.452  10.371  11.654
 5022SOL    HW216964   5.601  10.351  11.677
 5023SOL     OW16965   9.011   4.052   3.006
 5023SOL    HW116966   9.082   3.987   3.013
 5023SOL    HW216967   8.959   4.039   3.085
 5024SOL     OW16968  14.059   6.503   6.703
 5024SOL    HW116969  14.149   6.472   6.692
 5024SOL    HW216970  14.009   6.424   6.723
 5025SOL     OW16971   8.220   4.163   7.495
 5025SOL    HW116972   8.192   4.247   7.458
 5025SOL    HW216973   8.149   4.137   7.553
 5026SOL     OW16974   7.799   2.673  10.796
 5026SOL    HW116975   7.800   2.585  10.759
 5026SOL    HW216976   7.735   2.670  10.867
 5027SOL     OW16977  10.507   5.720   1.974
 5027SOL    HW116978  10.481   5.629   1.985
 5027SOL    HW216979  10.557   5.720   1.892
 5028SOL     OW16980   9.182   2.631   8.982
 5028SOL    HW116981   9.242   2.689   9.029
 5028SOL    HW216982   9.225   2.617   8.897
 5029SOL     OW16983   9.193   2.996   4.081
 5029SOL    HW116984   9.149   2.998   3.997
 5029SOL    HW216985   9.242   2.913   4.080
 5030SOL     OW16986   9.336  11.068   2.047
 5030SOL    HW116987   9.282  11.032   2.118
 5030SOL    HW216988   9.337  10.999   1.981
 5031SOL     OW16989  13.570   3.941  14.529
 5031SOL    HW116990  13.595   3.851  14.547
 5031SOL    HW216991  13.534   3.939  14.440
 5032SOL     OW16992   3.206  12.450  11.359
 5032SOL    HW116993   3.206  12.361  11.395
 5032SOL    HW216994   3.164  12.503  11.426
 5033SOL     OW16995  13.063  13.629  13.940
 5033SOL    HW116996  13.018  13.658  13.860
 5033SOL    HW216997  12.997  13.636  14.009
 5034SOL     OW16998  11.462  14.082  10.758
 5034SOL    HW116999  11.435  14.174  10.759
 5034SOL    HW217000  11.538  14.079  10.815
 5035SOL     OW17001   4.037   3.009   3.559
 5035SOL    HW117002   3.996   3.058   3.488
 5035SOL    HW217003   4.118   2.976   3.521
 5036SOL     OW17004   6.639   6.182   8.814
 5036SOL    HW117005   6.681   6.123   8.877
 5036SOL    HW217006   6.616   6.126   8.740
 5037SOL     OW17007   8.914  12.422  10.378
 5037SOL    HW117008   8.950  12.338  10.349
 5037SOL    HW217009   8.990  12.473  10.406
 5038SOL     OW17010   0.419  13.600  14.307
 5038SOL    HW117011   0.503  13.567  14.275
 5038SOL    HW217012   0.390  13.662  14.240
 5039SOL     OW17013  10.038  11.171  11.849
 5039SOL    HW117014  10.008  11.237  11.911
 5039SOL    HW217015  10.114  11.210  11.807
 5040SOL     OW17016  14.117  14.477  14.835
 5040SOL    HW117017  14.187  14.537  14.809
 5040SOL    HW217018  14.161  14.397  14.862
 5041SOL     OW17019   6.935  14.816  13.078
 5041SOL    HW117020   6.933  14.757  13.002
 5041SOL    HW217021   6.874   0.016  13.055
 5042SOL     OW17022  13.841   3.314  11.520
 5042SOL    HW117023  13.863   3.299  11.612
 5042SOL    HW217024  13.746   3.327  11.520
 5043SOL     OW17025  12.259   8.970  12.997
 5043SOL    HW117026  12.243   8.881  13.029
 5043SOL    HW217027  12.195   9.024  13.043
 5044SOL     OW17028   6.589   0.918  14.593
 5044SOL    HW117029   6.659   0.982  14.607
 5044SOL    HW217030   6.629   0.833  14.608
 5045SOL     OW17031  14.602   0.797   9.863
 5045SOL    HW117032  14.572   0.862   9.799
 5045SOL    HW217033  14.653   0.849   9.926
 5046SOL     OW17034  12.707   3.648   2.636
 5046SOL    HW117035  12.775   3.701   2.678
 5046SOL    HW217036  12.625   3.685   2.668
 5047SOL     OW17037  11.719   0.186   9.713
 5047SOL    HW117038  11.746   0.175   9.622
 5047SOL    HW217039  11.628   0.156   9.715
 5048SOL     OW17040  14.782   4.691   4.006
 5048SOL    HW117041  14.839   4.729   3.939
 5048SOL    HW217042  14.718   4.759   4.024
 5049SOL     OW17043  13.021  14.688  14.374
 5049SOL    HW117044  13.106  14.659  14.342
 5049SOL    HW217045  12.993  14.755  14.312
 5050SOL     OW17046   5.738  13.685   2.735
 5050SOL    HW117047   5.801  13.617   2.758
 5050SOL    HW217048   5.788  13.745   2.679
 5051SOL     OW17049   0.885  14.061  10.459
 5051SOL    HW117050   0.961  14.112  10.431
 5051SOL    HW217051   0.896  14.052  10.554
 5052SOL     OW17052   8.005  13.992   0.897
 5052SOL    HW117053   7.934  13.942   0.856
 5052SOL    HW217054   7.974  14.082   0.898
 5053SOL     OW17055   4.568   6.682  10.646
 5053SOL    HW117056   4.588   6.595  10.682
 5053SOL    HW217057   4.479   6.675  10.612
 5054SOL     OW17058  10.763  13.375   1.798
 5054SOL    HW117059  10.755  13.297   1.854
 5054SOL    HW217060  10.850  13.409   1.816
 5055SOL     OW17061   7.973   9.772  10.540
 5055SOL    HW117062   7.938   9.710  10.476
 5055SOL    HW217063   7.961   9.858  10.500
 5056SOL     OW17064  13.900   7.268  14.599
 5056SOL    HW117065  13.875   7.360  14.599
 5056SOL    HW217066  13.889   7.241  14.507
 5057SOL     OW17067  11.098   2.506  10.137
 5057SOL    HW117068  11.124   2.414  10.135
 5057SOL    HW217069  11.006   2.504  10.161
 5058SOL     OW17070   1.409   1.331   1.801
 5058SOL    HW117071   1.427   1.407   1.746
 5058SOL    HW217072   1.329   1.294   1.765
 5059SOL     OW17073  14.594   5.739   0.802
 5059SOL    HW117074  14.634   5.746   0.889
 5059SOL    HW217075  14.585   5.645   0.788
 5060SOL     OW17076   0.270   3.352   5.385
 5060SOL    HW117077   0.264   3.389   5.473
 5060SOL    HW217078   0.364   3.340   5.370
 5061SOL     OW17079  12.933  12.175  14.593
 5061SOL    HW117080  12.840  12.191  14.604
 5061SOL    HW217081  12.941  12.080  14.591
 5062SOL     OW17082  10.918   8.442   8.211
 5062SOL    HW117083  10.941   8.511   8.273
 5062SOL    HW217084  10.833   8.410   8.240
 5063SOL     OW17085  10.530   6.078  13.987
 5063SOL    HW117086  10.604   6.072  13.926
 5063SOL    HW217087  10.452   6.068  13.931
 5064SOL     OW17088   5.619   0.369   2.040
 5064SOL    HW117089   5.655   0.457   2.032
 5064SOL    HW217090   5.569   0.371   2.122
 5065SOL     OW17091   7.739   8.978   1.787
 5065SOL    HW117092   7.673   9.019   1.731
 5065SOL    HW217093   7.795   9.050   1.816
 5066SOL     OW17094   4.545   8.927   2.552
 5066SOL    HW117095   4.533   8.833   2.545
 5066SOL    HW217096   4.572   8.942   2.643
 5067SOL     OW17097   4.228   0.337   9.034
 5067SOL    HW117098   4.197   0.406   9.092
 5067SOL    HW217099   4.211   0.370   8.946
 5068SOL     OW17100  13.040  13.803  14.819
 5068SOL    HW117101  12.975  13.737  14.843
 5068SOL    HW217102  13.085  13.824   0.032
 5069SOL     OW17103  11.064   6.354   7.439
 5069SOL    HW117104  11.128   6.283   7.435
 5069SOL    HW217105  11.114   6.430   7.469
 5070SOL     OW17106   0.164   2.460   8.428
 5070SOL    HW117107   0.096   2.475   8.362
 5070SOL    HW217108   0.222   2.396   8.389
 5071SOL     OW17109   5.411   0.307  10.936
 5071SOL    HW117110   5.397   0.247  11.009
 5071SOL    HW217111   5.498   0.284  10.902
 5072SOL     OW17112  12.259  11.023  11.825
 5072SOL    HW117113  12.281  11.027  11.732
 5072SOL    HW217114  12.289  11.107  11.860
 5073SOL     OW17115   0.880   1.132   4.916
 5073SOL    HW117116   0.840   1.196   4.858
 5073SOL    HW217117   0.966   1.168   4.938
 5074SOL     OW17118   6.477  14.117   2.294
 5074SOL    HW117119   6.460  14.205   2.261
 5074SOL    HW217120   6.394  14.089   2.332
 5075SOL     OW17121   8.967  12.351   4.143
 5075SOL    HW117122   9.037  12.396   4.190
 5075SOL    HW217123   9.012  12.290   4.085
 5076SOL     OW17124   8.093   4.068   3.856
 5076SOL    HW117125   8.058   4.157   3.853
 5076SOL    HW217126   8.182   4.077   3.824
 5077SOL     OW17127   1.301   9.021   6.954
 5077SOL    HW117128   1.381   9.050   6.998
 5077SOL    HW217129   1.231   9.037   7.017
 5078SOL     OW17130   1.197   8.580   6.309
 5078SOL    HW117131   1.279   8.539   6.281
 5078SOL    HW217132   1.152   8.602   6.228
 5079SOL     OW17133   9.413   8.498   7.600
 5079SOL    HW117134   9.331   8.497   7.648
 5079SOL    HW217135   9.460   8.420   7.632
 5080SOL     OW17136   7.206   4.483   4.789
 5080SOL    HW117137   7.153   4.434   4.852
 5080SOL    HW217138   7.189   4.574   4.809
 5081SOL     OW17139   0.481   0.447   5.979
 5081SOL    HW117140   0.504   0.515   6.042
 5081SOL    HW217141   0.565   0.411   5.951
 5082SOL     OW17142  13.363  14.554   1.966
 5082SOL    HW117143  13.400  14.476   1.926
 5082SOL    HW217144  13.294  14.582   1.905
 5083SOL     OW17145   6.120   0.324   2.373
 5083SOL    HW117146   6.096   0.318   2.280
 5083SOL    HW217147   6.187   0.392   2.377
 5084SOL     OW17148  13.386   0.996  14.822
 5084SOL    HW117149  13.385   1.047   0.034
 5084SOL    HW217150  13.462   1.029  14.775
 5085SOL     OW17151   3.973   4.509   6.351
 5085SOL    HW117152   4.030   4.479   6.280
 5085SOL    HW217153   4.003   4.460   6.428
 5086SOL     OW17154  11.893   7.697  14.159
 5086SOL    HW117155  11.931   7.785  14.149
 5086SOL    HW217156  11.965   7.644  14.193
 5087SOL     OW17157  11.761   8.668   8.235
 5087SOL    HW117158  11.748   8.739   8.172
 5087SOL    HW217159  11.759   8.712   8.320
 5088SOL     OW17160   8.731   1.482  10.485
 5088SOL    HW117161   8.681   1.401  10.474
 5088SOL    HW217162   8.693   1.542  10.421
 5089SOL     OW17163   2.566   1.961   8.045
 5089SOL    HW117164   2.534   1.886   8.095
 5089SOL    HW217165   2.508   1.966   7.969
 5090SOL     OW17166  12.352  11.855   8.608
 5090SOL    HW117167  12.336  11.813   8.693
 5090SOL    HW217168  12.427  11.808   8.572
 5091SOL     OW17169   0.600  12.539   3.941
 5091SOL    HW117170   0.569  12.619   3.983
 5091SOL    HW217171   0.624  12.482   4.014
 5092SOL     OW17172   1.745   8.164   5.313
 5092SOL    HW117173   1.726   8.100   5.382
 5092SOL    HW217174   1.826   8.133   5.274
 5093SOL     OW17175   2.241   4.325   2.876
 5093SOL    HW117176   2.224   4.288   2.790
 5093SOL    HW217177   2.280   4.411   2.858
 5094SOL     OW17178   5.247   4.051   3.233
 5094SOL    HW117179   5.202   3.986   3.179
 5094SOL    HW217180   5.218   4.032   3.322
 5095SOL     OW17181   3.056  12.427  14.830
 5095SOL    HW117182   3.139  12.381  14.830
 5095SOL    HW217183   2.992  12.363  14.798
 5096SOL     OW17184   7.980   6.667   6.315
 5096SOL    HW117185   7.892   6.656   6.352
 5096SOL    HW217186   7.973   6.631   6.226
 5097SOL     OW17187   6.486   7.562  11.554
 5097SOL    HW117188   6.509   7.591  11.466
 5097SOL    HW217189   6.407   7.509  11.542
 5098SOL     OW17190  11.318   7.567  12.373
 5098SOL    HW117191  11.301   7.494  12.313
 5098SOL    HW217192  11.414   7.571  12.378
 5099SOL     OW17193   9.135   9.695  11.353
 5099SOL    HW117194   9.166   9.750  11.426
 5099SOL    HW217195   9.043   9.720  11.342
 5100SOL     OW17196  10.831   0.454   5.227
 5100SOL    HW117197  10.795   0.426   5.311
 5100SOL    HW217198  10.754   0.468   5.172
 5101SOL     OW17199   7.445   7.321  14.490
 5101SOL    HW117200   7.416   7.390  14.549
 5101SOL    HW217201   7.369   7.304  14.434
 5102SOL     OW17202  12.852  10.432  14.740
 5102SOL    HW117203  12.890  10.472  14.662
 5102SOL    HW217204  12.926  10.413  14.796
 5103SOL     OW17205   4.560   5.449  10.728
 5103SOL    HW117206   4.634   5.415  10.678
 5103SOL    HW217207   4.520   5.515  10.672
 5104SOL     OW17208   3.847  14.117   2.338
 5104SOL    HW117209   3.942  14.104   2.339
 5104SOL    HW217210   3.816  14.065   2.412
 5105SOL     OW17211   7.718   4.951   3.576
 5105SOL    HW117212   7.757   4.884   3.521
 5105SOL    HW217213   7.666   4.903   3.640
 5106SOL     OW17214   8.592  12.725   3.094
 5106SOL    HW117215   8.563  12.649   3.145
 5106SOL    HW217216   8.655  12.769   3.152
 5107SOL     OW17217   4.176   8.428   0.039
 5107SOL    HW117218   4.113   8.399  14.842
 5107SOL    HW217219   4.207   8.513   0.008
 5108SOL     OW17220   2.665   2.870   2.772
 5108SOL    HW117221   2.711   2.949   2.744
 5108SOL    HW217222   2.727   2.826   2.832
 5109SOL     OW17223  13.909   8.816   5.959
 5109SOL    HW117224  13.877   8.792   6.046
 5109SOL    HW217225  13.849   8.886   5.931
 5110SOL     OW17226   9.544   3.632   6.930
 5110SOL    HW117227   9.464   3.652   6.979
 5110SOL    HW217228   9.541   3.692   6.855
 5111SOL     OW17229   8.742  12.267   0.599
 5111SOL    HW117230   8.686  12.221   0.537
 5111SOL    HW217231   8.709  12.357   0.598
 5112SOL     OW17232  10.988  11.196   1.563
 5112SOL    HW117233  10.980  11.289   1.544
 5112SOL    HW217234  10.977  11.153   1.478
 5113SOL     OW17235   0.950   2.182   2.548
 5113SOL    HW117236   1.000   2.110   2.587
 5113SOL    HW217237   0.978   2.183   2.457
 5114SOL     OW17238   6.737   4.066  10.442
 5114SOL    HW117239   6.775   3.991  10.396
 5114SOL    HW217240   6.812   4.121  10.463
 5115SOL     OW17241  13.058   3.006   8.023
 5115SOL    HW117242  13.016   2.994   7.938
 5115SOL    HW217243  13.028   3.092   8.053
 5116SOL     OW17244   5.975  13.279   6.668
 5116SOL    HW117245   5.931  13.314   6.591
 5116SOL    HW217246   5.956  13.341   6.738
 5117SOL     OW17247   3.391   9.157   1.617
 5117SOL    HW117248   3.404   9.250   1.635
 5117SOL    HW217249   3.329   9.155   1.544
 5118SOL     OW17250  12.539   5.623   2.685
 5118SOL    HW117251  12.535   5.631   2.590
 5118SOL    HW217252  12.633   5.618   2.704
 5119SOL     OW17253  14.341   6.776   8.990
 5119SOL    HW117254  14.420   6.721   8.993
 5119SOL    HW217255  14.374   6.864   8.971
 5120SOL     OW17256  14.396  14.763   2.404
 5120SOL    HW117257  14.360  14.746   2.317
 5120SOL    HW217258  14.381  14.682   2.453
 5121SOL     OW17259   0.590   8.769  10.180
 5121SOL    HW117260   0.600   8.753  10.274
 5121SOL    HW217261   0.655   8.712  10.139
 5122SOL     OW17262   8.436   9.656  14.048
 5122SOL    HW117263   8.456   9.567  14.075
 5122SOL    HW217264   8.478   9.712  14.114
 5123SOL     OW17265  11.555   4.492  12.865
 5123SOL    HW117266  11.556   4.397  12.879
 5123SOL    HW217267  11.647   4.516  12.853
 5124SOL     OW17268   5.813   6.820   1.192
 5124SOL    HW117269   5.773   6.859   1.115
 5124SOL    HW217270   5.740   6.806   1.253
 5125SOL     OW17271  14.561  12.280  14.299
 5125SOL    HW117272  14.537  12.371  14.282
 5125SOL    HW217273  14.483  12.230  14.272
 5126SOL     OW17274   4.943   4.352   1.982
 5126SOL    HW117275   4.977   4.428   2.030
 5126SOL    HW217276   5.000   4.280   2.008
 5127SOL     OW17277   4.431   9.737  13.722
 5127SOL    HW117278   4.392   9.786  13.794
 5127SOL    HW217279   4.510   9.786  13.700
 5128SOL     OW17280   0.232   0.776  12.779
 5128SOL    HW117281   0.221   0.865  12.812
 5128SOL    HW217282   0.289   0.784  12.703
 5129SOL     OW17283   5.680   4.558   1.490
 5129SOL    HW117284   5.746   4.551   1.559
 5129SOL    HW217285   5.599   4.529   1.531
 5130SOL     OW17286   8.485   7.072   9.529
 5130SOL    HW117287   8.455   7.042   9.615
 5130SOL    HW217288   8.577   7.047   9.526
 5131SOL     OW17289   5.071  10.617   4.812
 5131SOL    HW117290   5.102  10.656   4.730
 5131SOL    HW217291   5.018  10.542   4.785
 5132SOL     OW17292  13.898  12.198  14.511
 5132SOL    HW117293  13.960  12.224  14.579
 5132SOL    HW217294  13.927  12.245  14.433
 5133SOL     OW17295  11.503  12.816   6.509
 5133SOL    HW117296  11.451  12.835   6.587
 5133SOL    HW217297  11.438  12.794   6.442
 5134SOL     OW17298   7.452   6.767  12.843
 5134SOL    HW117299   7.388   6.834  12.868
 5134SOL    HW217300   7.406   6.684  12.857
 5135SOL     OW17301   7.977   6.824   9.184
 5135SOL    HW117302   8.015   6.911   9.169
 5135SOL    HW217303   7.983   6.780   9.099
 5136SOL     OW17304   3.833   7.857  13.457
 5136SOL    HW117305   3.866   7.944  13.478
 5136SOL    HW217306   3.840   7.808  13.539
 5137SOL     OW17307   2.943  10.664  11.483
 5137SOL    HW117308   2.886  10.680  11.558
 5137SOL    HW217309   2.896  10.702  11.409
 5138SOL     OW17310   7.849  11.514   5.605
 5138SOL    HW117311   7.796  11.511   5.526
 5138SOL    HW217312   7.822  11.437   5.656
 5139SOL     OW17313   9.036   8.383   0.233
 5139SOL    HW117314   8.984   8.334   0.297
 5139SOL    HW217315   9.000   8.472   0.237
 5140SOL     OW17316   3.430   4.401  11.006
 5140SOL    HW117317   3.370   4.346  10.957
 5140SOL    HW217318   3.504   4.416  10.947
 5141SOL     OW17319   1.197   1.475   5.460
 5141SOL    HW117320   1.181   1.387   5.424
 5141SOL    HW217321   1.154   1.474   5.546
 5142SOL     OW17322   8.817   0.727   4.471
 5142SOL    HW117323   8.805   0.645   4.520
 5142SOL    HW217324   8.797   0.703   4.380
 5143SOL     OW17325   9.869  10.479  13.569
 5143SOL    HW117326   9.957  10.515  13.562
 5143SOL    HW217327   9.820  10.520  13.497
 5144SOL     OW17328  11.333   9.035   9.618
 5144SOL    HW117329  11.365   9.002   9.702
 5144SOL    HW217330  11.404   9.092   9.587
 5145SOL     OW17331   5.761   0.620   2.049
 5145SOL    HW117332   5.849   0.606   2.014
 5145SOL    HW217333   5.735   0.706   2.018
 5146SOL     OW17334   9.886   8.037   6.221
 5146SOL    HW117335   9.800   8.049   6.182
 5146SOL    HW217336   9.902   8.117   6.272
 5147SOL     OW17337   7.132   3.751  11.338
 5147SOL    HW117338   7.170   3.837  11.359
 5147SOL    HW217339   7.166   3.732  11.250
 5148SOL     OW17340   2.331   6.417  13.527
 5148SOL    HW117341   2.349   6.354  13.597
 5148SOL    HW217342   2.324   6.365  13.448
 5149SOL     OW17343   9.369   8.470   5.658
 5149SOL    HW117344   9.384   8.376   5.659
 5149SOL    HW217345   9.355   8.493   5.750
 5150SOL     OW17346  11.835   5.887   6.297
 5150SOL    HW117347  11.787   5.809   6.269
 5150SOL    HW217348  11.921   5.878   6.256
 5151SOL     OW17349   4.119   4.876   0.421
 5151SOL    HW117350   4.029   4.907   0.423
 5151SOL    HW217351   4.113   4.781   0.413
 5152SOL     OW17352   2.922   8.082   9.598
 5152SOL    HW117353   2.937   8.012   9.535
 5152SOL    HW217354   2.884   8.153   9.547
 5153SOL     OW17355   2.989   6.973   1.394
 5153SOL    HW117356   2.952   6.900   1.346
 5153SOL    HW217357   2.917   7.035   1.404
 5154SOL     OW17358   1.469  14.325   7.107
 5154SOL    HW117359   1.551  14.368   7.083
 5154SOL    HW217360   1.487  14.285   7.192
 5155SOL     OW17361   5.888   0.100  12.411
 5155SOL    HW117362   5.971   0.068  12.446
 5155SOL    HW217363   5.883   0.191  12.441
 5156SOL     OW17364   6.121   1.139   7.498
 5156SOL    HW117365   6.166   1.065   7.537
 5156SOL    HW217366   6.056   1.166   7.563
 5157SOL     OW17367   8.809  13.610   2.416
 5157SOL    HW117368   8.721  13.575   2.417
 5157SOL    HW217369   8.862  13.543   2.372
 5158SOL     OW17370  13.323   0.569   9.624
 5158SOL    HW117371  13.398   0.587   9.567
 5158SOL    HW217372  13.288   0.486   9.592
 5159SOL     OW17373  14.210  11.453   8.137
 5159SOL    HW117374  14.211  11.359   8.117
 5159SOL    HW217375  14.217  11.457   8.232
 5160SOL     OW17376  12.898   9.504   6.098
 5160SOL    HW117377  12.903   9.596   6.124
 5160SOL    HW217378  12.982   9.486   6.056
 5161SOL     OW17379  11.466  11.785   6.321
 5161SOL    HW117380  11.553  11.811   6.290
 5161SOL    HW217381  11.422  11.753   6.242
 5162SOL     OW17382   2.543   7.305   4.936
 5162SOL    HW117383   2.524   7.271   4.848
 5162SOL    HW217384   2.623   7.357   4.924
 5163SOL     OW17385  14.750  14.293   9.708
 5163SOL    HW117386  14.844  14.281   9.722
 5163SOL    HW217387  14.743  14.381   9.670
 5164SOL     OW17388  12.753  14.325   7.170
 5164SOL    HW117389  12.836  14.296   7.134
 5164SOL    HW217390  12.730  14.402   7.117
 5165SOL     OW17391   4.677  10.614  14.622
 5165SOL    HW117392   4.719  10.599  14.537
 5165SOL    HW217393   4.637  10.701  14.613
 5166SOL     OW17394   8.769  12.492   3.424
 5166SOL    HW117395   8.711  12.440   3.480
 5166SOL    HW217396   8.795  12.566   3.480
 5167SOL     OW17397   9.102   6.256   1.345
 5167SOL    HW117398   9.110   6.349   1.324
 5167SOL    HW217399   9.185   6.234   1.387
 5168SOL     OW17400   4.639  13.046  10.051
 5168SOL    HW117401   4.716  13.031   9.995
 5168SOL    HW217402   4.592  12.963  10.050
 5169SOL     OW17403   0.170   2.675   3.391
 5169SOL    HW117404   0.192   2.584   3.370
 5169SOL    HW217405   0.189   2.723   3.310
 5170SOL     OW17406   7.931   6.464   4.997
 5170SOL    HW117407   7.849   6.431   5.033
 5170SOL    HW217408   7.974   6.507   5.071
 5171SOL     OW17409   4.775   7.871   1.051
 5171SOL    HW117410   4.792   7.844   1.142
 5171SOL    HW217411   4.681   7.883   1.047
 5172SOL     OW17412  11.693   6.779   3.149
 5172SOL    HW117413  11.704   6.839   3.076
 5172SOL    HW217414  11.598   6.772   3.161
 5173SOL     OW17415   9.347   9.028   8.887
 5173SOL    HW117416   9.439   9.010   8.867
 5173SOL    HW217417   9.350   9.087   8.962
 5174SOL     OW17418  11.445   7.591   8.311
 5174SOL    HW117419  11.371   7.559   8.259
 5174SOL    HW217420  11.425   7.563   8.400
 5175SOL     OW17421  14.097   5.457  10.404
 5175SOL    HW117422  14.130   5.374  10.370
 5175SOL    HW217423  14.002   5.444  10.410
 5176SOL     OW17424  11.676  12.638  12.925
 5176SOL    HW117425  11.695  12.731  12.909
 5176SOL    HW217426  11.580  12.633  12.926
 5177SOL     OW17427  14.331   0.527  10.793
 5177SOL    HW117428  14.251   0.475  10.784
 5177SOL    HW217429  14.394   0.469  10.836
 5178SOL     OW17430   4.229   3.176   3.681
 5178SOL    HW117431   4.199   3.105   3.625
 5178SOL    HW217432   4.316   3.198   3.647
 5179SOL     OW17433   2.456  13.510   9.545
 5179SOL    HW117434   2.456  13.417   9.520
 5179SOL    HW217435   2.415  13.554   9.470
 5180SOL     OW17436   6.682  10.417   7.946
 5180SOL    HW117437   6.628  10.496   7.950
 5180SOL    HW217438   6.743  10.426   8.019
 5181SOL     OW17439   0.306   0.151  13.990
 5181SOL    HW117440   0.312   0.145  13.895
 5181SOL    HW217441   0.212   0.155  14.008
 5182SOL     OW17442  11.799  11.222   3.788
 5182SOL    HW117443  11.857  11.207   3.713
 5182SOL    HW217444  11.748  11.300   3.764
 5183SOL     OW17445  13.677   0.687   9.395
 5183SOL    HW117446  13.658   0.754   9.330
 5183SOL    HW217447  13.638   0.607   9.360
 5184SOL     OW17448   1.028  13.567   1.541
 5184SOL    HW117449   1.054  13.491   1.489
 5184SOL    HW217450   1.078  13.558   1.622
 5185SOL     OW17451  11.740   8.272   3.144
 5185SOL    HW117452  11.690   8.261   3.063
 5185SOL    HW217453  11.681   8.320   3.203
 5186SOL     OW17454   0.345   0.329   3.164
 5186SOL    HW117455   0.418   0.286   3.207
 5186SOL    HW217456   0.378   0.350   3.076
 5187SOL     OW17457  14.394   2.352   4.576
 5187SOL    HW117458  14.317   2.410   4.574
 5187SOL    HW217459  14.426   2.351   4.486
 5188SOL     OW17460   8.845   8.259   3.901
 5188SOL    HW117461   8.920   8.312   3.875
 5188SOL    HW217462   8.785   8.264   3.827
 5189SOL     OW17463   6.976   2.124  12.713
 5189SOL    HW117464   7.060   2.146  12.751
 5189SOL    HW217465   6.936   2.063  12.775
 5190SOL     OW17466   2.062   5.847   8.566
 5190SOL    HW117467   2.084   5.907   8.495
 5190SOL    HW217468   2.044   5.764   8.523
 5191SOL     OW17469   6.423   2.806   7.682
 5191SOL    HW117470   6.355   2.803   7.749
 5191SOL    HW217471   6.382   2.770   7.604
 5192SOL     OW17472  12.830   3.543  10.555
 5192SOL    HW117473  12.919   3.544  10.518
 5192SOL    HW217474  12.832   3.611  10.622
 5193SOL     OW17475  10.517   4.592   7.577
 5193SOL    HW117476  10.456   4.525   7.609
 5193SOL    HW217477  10.482   4.674   7.613
 5194SOL     OW17478   4.304  11.961  11.571
 5194SOL    HW117479   4.332  12.053  11.564
 5194SOL    HW217480   4.380  11.911  11.543
 5195SOL     OW17481  12.137   6.304   9.700
 5195SOL    HW117482  12.151   6.313   9.606
 5195SOL    HW217483  12.066   6.365   9.720
 5196SOL     OW17484  13.188  10.757   3.144
 5196SOL    HW117485  13.186  10.699   3.068
 5196SOL    HW217486  13.148  10.705   3.215
 5197SOL     OW17487   7.176   5.971   8.490
 5197SOL    HW117488   7.142   6.030   8.557
 5197SOL    HW217489   7.142   5.885   8.515
 5198SOL     OW17490  13.484  12.785   6.328
 5198SOL    HW117491  13.438  12.752   6.251
 5198SOL    HW217492  13.553  12.720   6.345
 5199SOL     OW17493  13.922   9.777  11.282
 5199SOL    HW117494  13.997   9.721  11.301
 5199SOL    HW217495  13.846   9.724  11.309
 5200SOL     OW17496  12.065   2.109   6.629
 5200SOL    HW117497  12.122   2.069   6.694
 5200SOL    HW217498  12.051   2.040   6.564
 5201SOL     OW17499   9.541   0.620  10.488
 5201SOL    HW117500   9.549   0.608  10.393
 5201SOL    HW217501   9.624   0.658  10.514
 5202SOL     OW17502   6.132  14.708   1.872
 5202SOL    HW117503   6.128  14.677   1.781
 5202SOL    HW217504   6.044  14.742   1.889
 5203SOL     OW17505   0.424  10.088  12.742
 5203SOL    HW117506   0.333  10.118  12.743
 5203SOL    HW217507   0.475  10.168  12.753
 5204SOL     OW17508   4.643   5.659   6.481
 5204SOL    HW117509   4.734   5.629   6.480
 5204SOL    HW217510   4.636   5.719   6.407
 5205SOL     OW17511   3.744   7.293   9.944
 5205SOL    HW117512   3.811   7.321  10.006
 5205SOL    HW217513   3.752   7.354   9.871
 5206SOL     OW17514   0.491  10.741   0.330
 5206SOL    HW117515   0.478  10.821   0.279
 5206SOL    HW217516   0.547  10.768   0.402
 5207SOL     OW17517   5.065   9.245  11.855
 5207SOL    HW117518   4.980   9.219  11.819
 5207SOL    HW217519   5.045   9.281  11.941
 5208SOL     OW17520  11.329   7.646   6.905
 5208SOL    HW117521  11.263   7.679   6.844
 5208SOL    HW217522  11.290   7.660   6.991
 5209SOL     OW17523   8.539   9.196   1.293
 5209SOL    HW117524   8.530   9.103   1.276
 5209SOL    HW217525   8.451   9.232   1.279
 5210SOL     OW17526  12.652   8.988   8.955
 5210SOL    HW117527  12.625   8.928   9.024
 5210SOL    HW217528  12.748   8.986   8.958
 5211SOL     OW17529   1.959   6.928   2.442
 5211SOL    HW117530   1.972   7.015   2.479
 5211SOL    HW217531   2.044   6.905   2.405
 5212SOL     OW17532   3.281   7.865   2.839
 5212SOL    HW117533   3.318   7.931   2.897
 5212SOL    HW217534   3.198   7.841   2.880
 5213SOL     OW17535  10.973  14.466   3.806
 5213SOL    HW117536  10.906  14.425   3.750
 5213SOL    HW217537  11.053  14.461   3.754
 5214SOL     OW17538   2.117  10.090   0.494
 5214SOL    HW117539   2.191  10.070   0.437
 5214SOL    HW217540   2.071  10.161   0.450
 5215SOL     OW17541   9.927   9.136   4.098
 5215SOL    HW117542  10.020   9.158   4.107
 5215SOL    HW217543   9.903   9.102   4.184
 5216SOL     OW17544   7.690   3.796   6.897
 5216SOL    HW117545   7.599   3.774   6.916
 5216SOL    HW217546   7.714   3.861   6.963
 5217SOL     OW17547   4.800   7.725  12.519
 5217SOL    HW117548   4.857   7.690  12.451
 5217SOL    HW217549   4.857   7.781  12.572
 5218SOL     OW17550  13.581   4.041   8.657
 5218SOL    HW117551  13.497   3.996   8.644
 5218SOL    HW217552  13.568   4.127   8.618
 5219SOL     OW17553   1.908   4.588  10.979
 5219SOL    HW117554   1.961   4.639  11.040
 5219SOL    HW217555   1.968   4.567  10.907
 5220SOL     OW17556   6.983  14.088   5.691
 5220SOL    HW117557   7.037  14.094   5.612
 5220SOL    HW217558   6.972  14.179   5.720
 5221SOL     OW17559   2.626   6.440  13.911
 5221SOL    HW117560   2.699   6.494  13.943
 5221SOL    HW217561   2.624   6.366  13.972
 5222SOL     OW17562   9.211  14.870   0.764
 5222SOL    HW117563   9.192  14.779   0.741
 5222SOL    HW217564   9.134   0.049   0.735
 5223SOL     OW17565   1.282  12.388   6.153
 5223SOL    HW117566   1.208  12.332   6.176
 5223SOL    HW217567   1.249  12.446   6.085
 5224SOL     OW17568   0.293   6.922  11.141
 5224SOL    HW117569   0.319   6.830  11.135
 5224SOL    HW217570   0.211   6.920  11.191
 5225SOL     OW17571  12.740   0.519   0.241
 5225SOL    HW117572  12.700   0.588   0.189
 5225SOL    HW217573  12.727   0.547   0.332
 5226SOL     OW17574  13.573   6.152  11.475
 5226SOL    HW117575  13.498   6.209  11.453
 5226SOL    HW217576  13.645   6.212  11.490
 5227SOL     OW17577   2.006   9.827   0.363
 5227SOL    HW117578   2.039   9.895   0.422
 5227SOL    HW217579   2.072   9.759   0.365
 5228SOL     OW17580   9.171   6.599  13.745
 5228SOL    HW117581   9.217   6.576  13.826
 5228SOL    HW217582   9.203   6.686  13.722
 5229SOL     OW17583   0.446   0.578  10.605
 5229SOL    HW117584   0.398   0.511  10.653
 5229SOL    HW217585   0.505   0.616  10.670
 5230SOL     OW17586   5.473   4.655  14.344
 5230SOL    HW117587   5.542   4.641  14.280
 5230SOL    HW217588   5.448   4.567  14.373
 5231SOL     OW17589   9.439   2.991   5.002
 5231SOL    HW117590   9.373   2.925   5.020
 5231SOL    HW217591   9.519   2.941   4.984
 5232SOL     OW17592  11.720  11.185   5.891
 5232SOL    HW117593  11.656  11.127   5.931
 5232SOL    HW217594  11.674  11.268   5.880
 5233SOL     OW17595   6.646   9.520   0.464
 5233SOL    HW117596   6.688   9.602   0.438
 5233SOL    HW217597   6.592   9.496   0.388
 5234SOL     OW17598  13.951  11.082   3.020
 5234SOL    HW117599  13.971  11.148   3.086
 5234SOL    HW217600  13.887  11.124   2.963
 5235SOL     OW17601   4.286   0.505   2.243
 5235SOL    HW117602   4.331   0.423   2.221
 5235SOL    HW217603   4.326   0.533   2.326
 5236SOL     OW17604   4.497   8.129  10.529
 5236SOL    HW117605   4.543   8.154  10.450
 5236SOL    HW217606   4.440   8.057  10.502
 5237SOL     OW17607  13.949  11.148   4.841
 5237SOL    HW117608  14.034  11.192   4.847
 5237SOL    HW217609  13.922  11.136   4.931
 5238SOL     OW17610  12.008   4.055  10.669
 5238SOL    HW117611  12.008   3.994  10.743
 5238SOL    HW217612  12.080   4.116  10.687
 5239SOL     OW17613   2.229   3.270   1.794
 5239SOL    HW117614   2.248   3.208   1.723
 5239SOL    HW217615   2.280   3.348   1.771
 5240SOL     OW17616   4.707   5.173  10.048
 5240SOL    HW117617   4.755   5.249  10.082
 5240SOL    HW217618   4.625   5.208  10.015
 5241SOL     OW17619   7.536   6.346   3.991
 5241SOL    HW117620   7.588   6.346   3.911
 5241SOL    HW217621   7.453   6.387   3.967
 5242SOL     OW17622  14.717   5.831  10.434
 5242SOL    HW117623  14.692   5.912  10.479
 5242SOL    HW217624  14.749   5.859  10.348
 5243SOL     OW17625   4.219  12.078   4.439
 5243SOL    HW117626   4.166  12.156   4.454
 5243SOL    HW217627   4.257  12.091   4.352
 5244SOL     OW17628  13.162  11.431   9.855
 5244SOL    HW117629  13.197  11.504   9.804
 5244SOL    HW217630  13.085  11.403   9.806
 5245SOL     OW17631  12.037   0.659  11.255
 5245SOL    HW117632  11.963   0.689  11.308
 5245SOL    HW217633  12.003   0.654  11.166
 5246SOL     OW17634   3.343  13.974  11.391
 5246SOL    HW117635   3.374  14.045  11.335
 5246SOL    HW217636   3.335  13.899  11.332
 5247SOL     OW17637  14.219   2.720   9.863
 5247SOL    HW117638  14.289   2.760   9.810
 5247SOL    HW217639  14.138   2.751   9.822
 5248SOL     OW17640  13.869   3.754  12.761
 5248SOL    HW117641  13.935   3.757  12.692
 5248SOL    HW217642  13.918   3.742  12.842
 5249SOL     OW17643  11.596   9.812  11.602
 5249SOL    HW117644  11.667   9.797  11.665
 5249SOL    HW217645  11.521   9.836  11.656
 5250SOL     OW17646   4.710  12.829  13.873
 5250SOL    HW117647   4.751  12.867  13.950
 5250SOL    HW217648   4.732  12.890  13.802
 5251SOL     OW17649   0.670  11.733   0.615
 5251SOL    HW117650   0.642  11.756   0.527
 5251SOL    HW217651   0.675  11.637   0.614
 5252SOL     OW17652  10.869   4.129  10.624
 5252SOL    HW117653  10.947   4.164  10.668
 5252SOL    HW217654  10.873   4.166  10.536
 5253SOL     OW17655   0.906   2.018   3.036
 5253SOL    HW117656   0.859   2.000   3.117
 5253SOL    HW217657   0.957   2.097   3.056
 5254SOL     OW17658  10.335   2.657   2.216
 5254SOL    HW117659  10.427   2.646   2.242
 5254SOL    HW217660  10.286   2.635   2.296
 5255SOL     OW17661  10.600   8.464   3.125
 5255SOL    HW117662  10.536   8.533   3.142
 5255SOL    HW217663  10.678   8.510   3.096
 5256SOL     OW17664  12.330  14.597   6.493
 5256SOL    HW117665  12.374  14.636   6.418
 5256SOL    HW217666  12.267  14.664   6.522
 5257SOL     OW17667   2.553   5.770   2.992
 5257SOL    HW117668   2.566   5.738   2.902
 5257SOL    HW217669   2.464   5.742   3.015
 5258SOL     OW17670   4.278   5.486   9.778
 5258SOL    HW117671   4.234   5.443   9.852
 5258SOL    HW217672   4.241   5.574   9.777
 5259SOL     OW17673   9.501  11.624   2.483
 5259SOL    HW117674   9.503  11.541   2.434
 5259SOL    HW217675   9.574  11.617   2.544
 5260SOL     OW17676  11.134  10.292  12.008
 5260SOL    HW117677  11.207  10.252  12.054
 5260SOL    HW217678  11.143  10.262  11.918
 5261SOL     OW17679   1.855  14.271  13.279
 5261SOL    HW117680   1.778  14.328  13.281
 5261SOL    HW217681   1.923  14.324  13.239
 5262SOL     OW17682  11.271   0.069  10.648
 5262SOL    HW117683  11.263   0.149  10.595
 5262SOL    HW217684  11.290   0.101  10.736
 5263SOL     OW17685  13.863  13.682   9.767
 5263SOL    HW117686  13.847  13.768   9.727
 5263SOL    HW217687  13.784  13.631   9.747
 5264SOL     OW17688   9.017   5.799   5.900
 5264SOL    HW117689   9.059   5.714   5.886
 5264SOL    HW217690   8.939   5.797   5.845
 5265SOL     OW17691  13.513   9.631  12.152
 5265SOL    HW117692  13.444   9.630  12.218
 5265SOL    HW217693  13.528   9.539  12.131
 5266SOL     OW17694   9.485   9.205   2.953
 5266SOL    HW117695   9.475   9.272   2.886
 5266SOL    HW217696   9.408   9.214   3.009
 5267SOL     OW17697   5.537  12.235   5.729
 5267SOL    HW117698   5.464  12.268   5.782
 5267SOL    HW217699   5.582  12.173   5.786
 5268SOL     OW17700   2.036   6.446   7.736
 5268SOL    HW117701   1.946   6.450   7.706
 5268SOL    HW217702   2.088   6.471   7.660
 5269SOL     OW17703   5.801  10.727   3.667
 5269SOL    HW117704   5.839  10.664   3.605
 5269SOL    HW217705   5.711  10.697   3.680
 5270SOL     OW17706  13.927   4.649   9.958
 5270SOL    HW117707  13.865   4.721   9.969
 5270SOL    HW217708  13.983   4.677   9.885
 5271SOL     OW17709   2.300   0.849  11.607
 5271SOL    HW117710   2.392   0.823  11.614
 5271SOL    HW217711   2.301   0.943  11.626
 5272SOL     OW17712   8.755   7.294   4.832
 5272SOL    HW117713   8.753   7.257   4.744
 5272SOL    HW217714   8.835   7.346   4.835
 5273SOL     OW17715   2.356   4.101   7.161
 5273SOL    HW117716   2.341   4.125   7.070
 5273SOL    HW217717   2.327   4.178   7.211
 5274SOL     OW17718   3.808  13.902  10.983
 5274SOL    HW117719   3.819  13.807  10.982
 5274SOL    HW217720   3.725  13.916  10.937
 5275SOL     OW17721   9.797   7.631   0.844
 5275SOL    HW117722   9.877   7.647   0.895
 5275SOL    HW217723   9.777   7.716   0.804
 5276SOL     OW17724  14.832   7.068   4.135
 5276SOL    HW117725   0.049   7.043   4.103
 5276SOL    HW217726  14.771   7.027   4.074
 5277SOL     OW17727   0.097  13.645   9.637
 5277SOL    HW117728   0.123  13.674   9.549
 5277SOL    HW217729   0.180  13.628   9.681
 5278SOL     OW17730   5.201   8.480  14.470
 5278SOL    HW117731   5.142   8.499  14.396
 5278SOL    HW217732   5.170   8.396  14.504
 5279SOL     OW17733  13.681  11.000  14.153
 5279SOL    HW117734  13.641  10.929  14.103
 5279SOL    HW217735  13.669  11.077  14.097
 5280SOL     OW17736  11.816  10.280   0.315
 5280SOL    HW117737  11.882  10.228   0.269
 5280SOL    HW217738  11.862  10.318   0.389
 5281SOL     OW17739   6.341   3.585   1.824
 5281SOL    HW117740   6.359   3.606   1.733
 5281SOL    HW217741   6.339   3.489   1.827
 5282SOL     OW17742  11.033  10.042   9.853
 5282SOL    HW117743  11.003  10.016   9.766
 5282SOL    HW217744  11.116  10.087   9.837
 5283SOL     OW17745  10.401   8.225   1.452
 5283SOL    HW117746  10.452   8.305   1.467
 5283SOL    HW217747  10.443   8.159   1.507
 5284SOL     OW17748   5.870  10.571   7.621
 5284SOL    HW117749   5.861  10.611   7.707
 5284SOL    HW217750   5.788  10.523   7.608
 5285SOL     OW17751  10.147   2.319   4.527
 5285SOL    HW117752  10.208   2.283   4.591
 5285SOL    HW217753  10.141   2.251   4.460
 5286SOL     OW17754   3.389   5.326  14.600
 5286SOL    HW117755   3.480   5.346  14.578
 5286SOL    HW217756   3.347   5.309  14.515
 5287SOL     OW17757   6.946   3.255   6.098
 5287SOL    HW117758   7.020   3.230   6.153
 5287SOL    HW217759   6.984   3.314   6.033
 5288SOL     OW17760  13.985   9.932   2.938
 5288SOL    HW117761  14.033   9.894   3.011
 5288SOL    HW217762  13.920   9.989   2.979
 5289SOL     OW17763   8.864   4.629  14.035
 5289SOL    HW117764   8.841   4.602  13.947
 5289SOL    HW217765   8.808   4.705  14.053
 5290SOL     OW17766  11.834  10.559  11.170
 5290SOL    HW117767  11.838  10.476  11.215
 5290SOL    HW217768  11.821  10.624  11.239
 5291SOL     OW17769   0.216   5.602  11.962
 5291SOL    HW117770   0.139   5.659  11.962
 5291SOL    HW217771   0.188   5.525  11.912
 5292SOL     OW17772   8.621  10.178  10.629
 5292SOL    HW117773   8.557  10.156  10.696
 5292SOL    HW217774   8.662  10.259  10.660
 5293SOL     OW17775   7.468  12.259   3.821
 5293SOL    HW117776   7.471  12.234   3.913
 5293SOL    HW217777   7.552  12.231   3.786
 5294SOL     OW17778  10.385   5.403   9.401
 5294SOL    HW117779  10.377   5.330   9.340
 5294SOL    HW217780  10.424   5.365   9.479
 5295SOL     OW17781   7.996  13.270   3.021
 5295SOL    HW117782   8.088  13.274   2.994
 5295SOL    HW217783   7.986  13.342   3.083
 5296SOL     OW17784   6.670   5.383  11.859
 5296SOL    HW117785   6.753   5.432  11.861
 5296SOL    HW217786   6.630   5.401  11.945
 5297SOL     OW17787  13.917   4.378  13.118
 5297SOL    HW117788  13.883   4.440  13.054
 5297SOL    HW217789  13.845   4.317  13.134
 5298SOL     OW17790  14.869  10.162   6.338
 5298SOL    HW117791  14.790  10.131   6.383
 5298SOL    HW217792  14.839  10.234   6.284
 5299SOL     OW17793  10.378  13.130   4.908
 5299SOL    HW117794  10.329  13.048   4.902
 5299SOL    HW217795  10.315  13.193   4.942
 5300SOL     OW17796   5.332  12.571   1.476
 5300SOL    HW117797   5.374  12.602   1.396
 5300SOL    HW217798   5.382  12.613   1.546
 5301SOL     OW17799   9.000   6.159   1.748
 5301SOL    HW117800   8.943   6.227   1.712
 5301SOL    HW217801   8.944   6.109   1.806
 5302SOL     OW17802  11.251  13.297  11.907
 5302SOL    HW117803  11.268  13.323  11.816
 5302SOL    HW217804  11.298  13.214  11.918
 5303SOL     OW17805   3.578  10.516   2.758
 5303SOL    HW117806   3.564  10.590   2.700
 5303SOL    HW217807   3.519  10.448   2.725
 5304SOL     OW17808   8.391   3.506   8.939
 5304SOL    HW117809   8.450   3.569   8.898
 5304SOL    HW217810   8.448   3.454   8.996
 5305SOL     OW17811   8.093  13.375   7.569
 5305SOL    HW117812   8.180  13.367   7.531
 5305SOL    HW217813   8.048  13.439   7.513
 5306SOL     OW17814   1.250   3.378  12.309
 5306SOL    HW117815   1.248   3.321  12.232
 5306SOL    HW217816   1.299   3.455  12.280
 5307SOL     OW17817   3.363   5.390  12.803
 5307SOL    HW117818   3.331   5.407  12.891
 5307SOL    HW217819   3.430   5.457  12.788
 5308SOL     OW17820  10.046   0.937   4.770
 5308SOL    HW117821   9.991   0.961   4.695
 5308SOL    HW217822  10.118   0.887   4.732
 5309SOL     OW17823   6.276   3.366  12.712
 5309SOL    HW117824   6.306   3.445  12.669
 5309SOL    HW217825   6.340   3.299  12.688
 5310SOL     OW17826   8.112  13.768   4.747
 5310SOL    HW117827   8.076  13.843   4.699
 5310SOL    HW217828   8.093  13.786   4.839
 5311SOL     OW17829   0.189  12.761   3.801
 5311SOL    HW117830   0.237  12.709   3.865
 5311SOL    HW217831   0.251  12.775   3.729
 5312SOL     OW17832   8.138   8.363  11.391
 5312SOL    HW117833   8.110   8.273  11.407
 5312SOL    HW217834   8.058   8.408  11.362
 5313SOL     OW17835  14.236   1.986   5.655
 5313SOL    HW117836  14.153   1.982   5.608
 5313SOL    HW217837  14.297   1.936   5.601
 5314SOL     OW17838   0.245   8.920   0.747
 5314SOL    HW117839   0.166   8.953   0.789
 5314SOL    HW217840   0.286   8.864   0.813
 5315SOL     OW17841  10.086   8.376  12.443
 5315SOL    HW117842  10.159   8.392  12.502
 5315SOL    HW217843  10.050   8.292  12.472
 5316SOL     OW17844   6.408   1.901   1.653
 5316SOL    HW117845   6.503   1.886   1.657
 5316SOL    HW217846   6.373   1.850   1.725
 5317SOL     OW17847   0.135   0.806   9.261
 5317SOL    HW117848   0.125   0.712   9.279
 5317SOL    HW217849   0.222   0.813   9.220
 5318SOL     OW17850   7.457   1.707   8.099
 5318SOL    HW117851   7.491   1.779   8.047
 5318SOL    HW217852   7.438   1.745   8.185
 5319SOL     OW17853  10.590  14.126   3.251
 5319SOL    HW117854  10.568  14.034   3.259
 5319SOL    HW217855  10.621  14.135   3.160
 5320SOL     OW17856  11.060  12.540   4.081
 5320SOL    HW117857  10.987  12.479   4.095
 5320SOL    HW217858  11.031  12.621   4.122
 5321SOL     OW17859  11.404   5.761   5.929
 5321SOL    HW117860  11.413   5.714   5.845
 5321SOL    HW217861  11.318   5.734   5.962
 5322SOL     OW17862  10.767   5.261   7.274
 5322SOL    HW117863  10.840   5.266   7.212
 5322SOL    HW217864  10.761   5.168   7.296
 5323SOL     OW17865   9.740  13.727   5.386
 5323SOL    HW117866   9.801  13.800   5.378
 5323SOL    HW217867   9.777  13.674   5.457
 5324SOL     OW17868   0.129  14.690   4.619
 5324SOL    HW117869   0.072  14.629   4.572
 5324SOL    HW217870   0.079  14.771   4.623
 5325SOL     OW17871   6.967   6.196   1.728
 5325SOL    HW117872   6.920   6.121   1.691
 5325SOL    HW217873   7.047   6.202   1.676
 5326SOL     OW17874   8.852   5.920   6.107
 5326SOL    HW117875   8.928   5.889   6.155
 5326SOL    HW217876   8.840   5.856   6.037
 5327SOL     OW17877   0.274   7.769  11.977
 5327SOL    HW117878   0.244   7.819  11.901
 5327SOL    HW217879   0.357   7.809  12.001
 5328SOL     OW17880   9.136  10.931   9.031
 5328SOL    HW117881   9.111  10.884   8.951
 5328SOL    HW217882   9.197  10.998   9.002
 5329SOL     OW17883   3.715  10.641   0.808
 5329SOL    HW117884   3.784  10.706   0.815
 5329SOL    HW217885   3.634  10.693   0.804
 5330SOL     OW17886   8.973   9.139   9.759
 5330SOL    HW117887   8.998   9.092   9.679
 5330SOL    HW217888   9.055   9.175   9.792
 5331SOL     OW17889   7.758   3.353  14.724
 5331SOL    HW117890   7.774   3.412  14.650
 5331SOL    HW217891   7.681   3.390  14.768
 5332SOL     OW17892   4.421  10.900   3.256
 5332SOL    HW117893   4.388  10.918   3.168
 5332SOL    HW217894   4.510  10.935   3.255
 5333SOL     OW17895   4.883   5.648   1.259
 5333SOL    HW117896   4.815   5.699   1.215
 5333SOL    HW217897   4.840   5.614   1.338
 5334SOL     OW17898   9.640   4.630   3.675
 5334SOL    HW117899   9.687   4.567   3.622
 5334SOL    HW217900   9.559   4.586   3.700
 5335SOL     OW17901   8.472   0.566   1.162
 5335SOL    HW117902   8.469   0.478   1.124
 5335SOL    HW217903   8.534   0.614   1.106
 5336SOL     OW17904  12.551  10.296   5.702
 5336SOL    HW117905  12.474  10.291   5.759
 5336SOL    HW217906  12.611  10.230   5.736
 5337SOL     OW17907   5.132   3.960  10.679
 5337SOL    HW117908   5.089   3.883  10.717
 5337SOL    HW217909   5.060   4.021  10.662
 5338SOL     OW17910  12.969   2.430   5.193
 5338SOL    HW117911  12.941   2.519   5.212
 5338SOL    HW217912  12.983   2.390   5.279
 5339SOL     OW17913   5.960   0.063   2.941
 5339SOL    HW117914   5.994   0.104   3.021
 5339SOL    HW217915   5.867   0.084   2.940
 5340SOL     OW17916  14.278  14.227   8.852
 5340SOL    HW117917  14.251  14.258   8.765
 5340SOL    HW217918  14.270  14.304   8.908
 5341SOL     OW17919   2.345   8.829  12.600
 5341SOL    HW117920   2.395   8.877  12.535
 5341SOL    HW217921   2.316   8.895  12.663
 5342SOL     OW17922  14.631  14.528   5.397
 5342SOL    HW117923  14.606  14.594   5.332
 5342SOL    HW217924  14.550  14.512   5.446
 5343SOL     OW17925   6.990  12.812  11.818
 5343SOL    HW117926   7.053  12.877  11.848
 5343SOL    HW217927   6.992  12.819  11.722
 5344SOL     OW17928   2.861   9.744   9.107
 5344SOL    HW117929   2.939   9.797   9.088
 5344SOL    HW217930   2.815   9.738   9.024
 5345SOL     OW17931   9.611  11.772  10.931
 5345SOL    HW117932   9.524  11.762  10.892
 5345SOL    HW217933   9.597  11.759  11.025
 5346SOL     OW17934   1.177   2.601   2.701
 5346SOL    HW117935   1.119   2.663   2.744
 5346SOL    HW217936   1.129   2.573   2.623
 5347SOL     OW17937  14.547  12.803  12.418
 5347SOL    HW117938  14.480  12.860  12.457
 5347SOL    HW217939  14.522  12.715  12.447
 5348SOL     OW17940  12.694   4.601  13.749
 5348SOL    HW117941  12.708   4.689  13.714
 5348SOL    HW217942  12.764   4.549  13.710
 5349SOL     OW17943   4.157   7.021   3.402
 5349SOL    HW117944   4.112   6.937   3.394
 5349SOL    HW217945   4.182   7.044   3.313
 5350SOL     OW17946   7.307   7.969   3.382
 5350SOL    HW117947   7.372   8.034   3.409
 5350SOL    HW217948   7.223   8.008   3.404
 5351SOL     OW17949  13.725  11.502  11.827
 5351SOL    HW117950  13.757  11.422  11.869
 5351SOL    HW217951  13.670  11.543  11.893
 5352SOL     OW17952   5.724   1.658   7.605
 5352SOL    HW117953   5.741   1.649   7.699
 5352SOL    HW217954   5.633   1.629   7.595
 5353SOL     OW17955   4.700   7.146  14.726
 5353SOL    HW117956   4.729   7.086  14.657
 5353SOL    HW217957   4.762   7.133  14.797
 5354SOL     OW17958   6.515  11.177  11.407
 5354SOL    HW117959   6.550  11.088  11.401
 5354SOL    HW217960   6.422  11.168  11.386
 5355SOL     OW17961  13.301  14.611   5.161
 5355SOL    HW117962  13.253  14.691   5.141
 5355SOL    HW217963  13.306  14.564   5.077
 5356SOL     OW17964   7.802  10.803   0.275
 5356SOL    HW117965   7.795  10.845   0.189
 5356SOL    HW217966   7.859  10.728   0.260
 5357SOL     OW17967   8.831  14.017  11.281
 5357SOL    HW117968   8.770  14.072  11.330
 5357SOL    HW217969   8.915  14.062  11.288
 5358SOL     OW17970  13.310   6.410  10.181
 5358SOL    HW117971  13.385   6.468  10.174
 5358SOL    HW217972  13.297   6.397  10.275
 5359SOL     OW17973   4.683   7.857  11.926
 5359SOL    HW117974   4.728   7.803  11.991
 5359SOL    HW217975   4.595   7.821  11.921
 5360SOL     OW17976  10.088   4.086   9.047
 5360SOL    HW117977  10.131   4.010   9.086
 5360SOL    HW217978  10.045   4.130   9.120
 5361SOL     OW17979   8.068   9.132  11.138
 5361SOL    HW117980   8.022   9.207  11.099
 5361SOL    HW217981   8.088   9.160  11.227
 5362SOL     OW17982   8.689   8.177  14.241
 5362SOL    HW117983   8.743   8.227  14.302
 5362SOL    HW217984   8.716   8.086  14.255
 5363SOL     OW17985  14.860   5.189   7.145
 5363SOL    HW117986  14.788   5.127   7.161
 5363SOL    HW217987  14.816   5.272   7.125
 5364SOL     OW17988   1.623   7.305   7.671
 5364SOL    HW117989   1.641   7.230   7.728
 5364SOL    HW217990   1.548   7.277   7.618
 5365SOL     OW17991  10.986  10.438  11.784
 5365SOL    HW117992  11.035  10.395  11.855
 5365SOL    HW217993  10.895  10.435  11.813
 5366SOL     OW17994   0.420  13.637   5.652
 5366SOL    HW117995   0.481  13.587   5.707
 5366SOL    HW217996   0.353  13.573   5.627
 5367SOL     OW17997   3.177  12.308   8.448
 5367SOL    HW117998   3.167  12.226   8.496
 5367SOL    HW217999   3.256  12.296   8.395
 5368SOL     OW18000  13.226  10.686   0.380
 5368SOL    HW118001  13.237  10.744   0.304
 5368SOL    HW218002  13.136  10.656   0.374
 5369SOL     OW18003  14.550   4.363   1.515
 5369SOL    HW118004  14.615   4.414   1.564
 5369SOL    HW218005  14.481   4.344   1.579
 5370SOL     OW18006  10.065   7.028  10.190
 5370SOL    HW118007  10.139   7.053  10.134
 5370SOL    HW218008   9.988   7.046  10.137
 5371SOL     OW18009   4.973  14.772   2.059
 5371SOL    HW118010   5.009  14.706   2.118
 5371SOL    HW218011   5.015  14.853   2.085
 5372SOL     OW18012   3.700   0.917   4.582
 5372SOL    HW118013   3.779   0.930   4.531
 5372SOL    HW218014   3.634   0.973   4.540
 5373SOL     OW18015  12.740  12.930  11.607
 5373SOL    HW118016  12.822  12.881  11.613
 5373SOL    HW218017  12.684  12.877  11.551
 5374SOL     OW18018   6.802   1.771   7.710
 5374SOL    HW118019   6.764   1.774   7.622
 5374SOL    HW218020   6.896   1.779   7.696
 5375SOL     OW18021   0.983   4.103   9.812
 5375SOL    HW118022   1.047   4.154   9.861
 5375SOL    HW218023   0.983   4.143   9.725
 5376SOL     OW18024   0.589   2.256   7.938
 5376SOL    HW118025   0.628   2.332   7.982
 5376SOL    HW218026   0.602   2.274   7.845
 5377SOL     OW18027  13.049  14.159  11.690
 5377SOL    HW118028  12.969  14.174  11.639
 5377SOL    HW218029  13.098  14.241  11.682
 5378SOL     OW18030  11.272   1.170   6.542
 5378SOL    HW118031  11.260   1.145   6.451
 5378SOL    HW218032  11.264   1.265   6.542
 5379SOL     OW18033  14.845   4.772   3.414
 5379SOL    HW118034  14.859   4.684   3.379
 5379SOL    HW218035  14.847   4.761   3.509
 5380SOL     OW18036   6.609   1.984   8.884
 5380SOL    HW118037   6.580   2.011   8.797
 5380SOL    HW218038   6.612   1.889   8.880
 5381SOL     OW18039  13.242   4.271   6.422
 5381SOL    HW118040  13.303   4.344   6.434
 5381SOL    HW218041  13.161   4.299   6.464
 5382SOL     OW18042  11.306   5.154  11.573
 5382SOL    HW118043  11.264   5.201  11.644
 5382SOL    HW218044  11.251   5.076  11.559
 5383SOL     OW18045   4.632  11.874  14.115
 5383SOL    HW118046   4.588  11.868  14.030
 5383SOL    HW218047   4.723  11.894  14.093
 5384SOL     OW18048  10.024   0.555  13.219
 5384SOL    HW118049  10.045   0.614  13.292
 5384SOL    HW218050   9.937   0.582  13.190
 5385SOL     OW18051  10.149   5.905   5.901
 5385SOL    HW118052  10.122   5.936   5.987
 5385SOL    HW218053  10.240   5.933   5.892
 5386SOL     OW18054  13.914  10.246   0.790
 5386SOL    HW118055  13.888  10.257   0.698
 5386SOL    HW218056  13.891  10.155   0.810
 5387SOL     OW18057   6.100   4.485   7.408
 5387SOL    HW118058   6.076   4.410   7.354
 5387SOL    HW218059   6.196   4.486   7.408
 5388SOL     OW18060   9.783  11.881   5.634
 5388SOL    HW118061   9.734  11.961   5.651
 5388SOL    HW218062   9.722  11.825   5.586
 5389SOL     OW18063  12.319   7.697  14.241
 5389SOL    HW118064  12.303   7.661  14.154
 5389SOL    HW218065  12.401   7.656  14.269
 5390SOL     OW18066   4.831   8.804  14.311
 5390SOL    HW118067   4.776   8.882  14.311
 5390SOL    HW218068   4.770   8.732  14.294
 5391SOL     OW18069   4.495  11.474   7.406
 5391SOL    HW118070   4.467  11.501   7.318
 5391SOL    HW218071   4.426  11.416   7.436
 5392SOL     OW18072   6.565   5.937  10.508
 5392SOL    HW118073   6.524   5.852  10.491
 5392SOL    HW218074   6.623   5.921  10.582
 5393SOL     OW18075  11.239   4.919   1.707
 5393SOL    HW118076  11.320   4.869   1.694
 5393SOL    HW218077  11.261   5.007   1.678
 5394SOL     OW18078   2.959   9.010   6.465
 5394SOL    HW118079   2.948   8.985   6.557
 5394SOL    HW218080   2.902   9.086   6.454
 5395SOL     OW18081   6.643   7.635   5.245
 5395SOL    HW118082   6.690   7.716   5.225
 5395SOL    HW218083   6.559   7.664   5.281
 5396SOL     OW18084   4.907  12.712  12.290
 5396SOL    HW118085   4.860  12.794  12.305
 5396SOL    HW218086   4.840  12.644  12.300
 5397SOL     OW18087   8.450  11.464   3.673
 5397SOL    HW118088   8.455  11.434   3.763
 5397SOL    HW218089   8.356  11.462   3.652
 5398SOL     OW18090   0.713  11.364   1.603
 5398SOL    HW118091   0.746  11.274   1.608
 5398SOL    HW218092   0.791  11.419   1.611
 5399SOL     OW18093   7.837   3.116   1.569
 5399SOL    HW118094   7.756   3.162   1.590
 5399SOL    HW218095   7.868   3.158   1.489
 5400SOL     OW18096   0.757  13.884   0.524
 5400SOL    HW118097   0.796  13.893   0.611
 5400SOL    HW218098   0.743  13.790   0.513
 5401SOL     OW18099  10.875   7.200   3.098
 5401SOL    HW118100  10.795   7.174   3.052
 5401SOL    HW218101  10.894   7.287   3.064
 5402SOL     OW18102   6.361  10.011  14.237
 5402SOL    HW118103   6.275  10.044  14.264
 5402SOL    HW218104   6.342   9.954  14.162
 5403SOL     OW18105   6.395   6.920   9.475
 5403SOL    HW118106   6.365   6.863   9.404
 5403SOL    HW218107   6.489   6.926   9.463
 5404SOL     OW18108   5.022   0.378  12.144
 5404SOL    HW118109   5.046   0.439  12.213
 5404SOL    HW218110   4.943   0.335  12.176
 5405SOL     OW18111   0.699   7.739   5.903
 5405SOL    HW118112   0.712   7.644   5.904
 5405SOL    HW218113   0.652   7.758   5.983
 5406SOL     OW18114   5.188  13.009   4.054
 5406SOL    HW118115   5.178  13.078   4.119
 5406SOL    HW218116   5.269  13.031   4.007
 5407SOL     OW18117   2.002   8.479   7.319
 5407SOL    HW118118   1.971   8.528   7.242
 5407SOL    HW218119   1.999   8.543   7.390
 5408SOL     OW18120   2.348  10.074   2.902
 5408SOL    HW118121   2.415  10.058   2.835
 5408SOL    HW218122   2.394  10.059   2.985
 5409SOL     OW18123   0.434  12.270  13.334
 5409SOL    HW118124   0.402  12.235  13.417
 5409SOL    HW218125   0.403  12.360  13.333
 5410SOL     OW18126   4.999  13.821  11.866
 5410SOL    HW118127   4.961  13.777  11.791
 5410SOL    HW218128   5.094  13.820  11.850
 5411SOL     OW18129   5.510  11.134   9.626
 5411SOL    HW118130   5.428  11.122   9.675
 5411SOL    HW218131   5.485  11.190   9.553
 5412SOL     OW18132  12.038  12.115   2.820
 5412SOL    HW118133  11.985  12.194   2.827
 5412SOL    HW218134  12.092  12.129   2.742
 5413SOL     OW18135   6.690   8.803  12.718
 5413SOL    HW118136   6.630   8.780  12.789
 5413SOL    HW218137   6.675   8.897  12.704
 5414SOL     OW18138   1.697   7.963   5.509
 5414SOL    HW118139   1.765   7.896   5.513
 5414SOL    HW218140   1.634   7.936   5.576
 5415SOL     OW18141   2.982   0.032   7.523
 5415SOL    HW118142   2.886   0.034   7.524
 5415SOL    HW218143   3.007   0.114   7.567
 5416SOL     OW18144   6.816  11.117   8.434
 5416SOL    HW118145   6.848  11.071   8.356
 5416SOL    HW218146   6.797  11.048   8.497
 5417SOL     OW18147   5.993   9.210   1.514
 5417SOL    HW118148   6.061   9.142   1.521
 5417SOL    HW218149   6.025   9.269   1.446
 5418SOL     OW18150   1.081  11.068  14.230
 5418SOL    HW118151   1.099  11.159  14.255
 5418SOL    HW218152   0.990  11.069  14.201
 5419SOL     OW18153  14.454   6.953   5.566
 5419SOL    HW118154  14.505   6.893   5.513
 5419SOL    HW218155  14.366   6.948   5.529
 5420SOL     OW18156  10.302  14.160   5.353
 5420SOL    HW118157  10.353  14.147   5.274
 5420SOL    HW218158  10.344  14.235   5.397
 5421SOL     OW18159   5.661   8.259  14.561
 5421SOL    HW118160   5.745   8.297  14.540
 5421SOL    HW218161   5.600   8.299  14.499
 5422SOL     OW18162   2.922   4.170  10.035
 5422SOL    HW118163   3.003   4.217  10.016
 5422SOL    HW218164   2.950   4.092  10.083
 5423SOL     OW18165   4.897  14.201   9.930
 5423SOL    HW118166   4.986  14.218   9.900
 5423SOL    HW218167   4.844  14.269   9.888
 5424SOL     OW18168   6.411   8.686   3.440
 5424SOL    HW118169   6.499   8.705   3.406
 5424SOL    HW218170   6.390   8.760   3.496
 5425SOL     OW18171  11.925   5.682   2.744
 5425SOL    HW118172  11.939   5.746   2.814
 5425SOL    HW218173  11.839   5.643   2.765
 5426SOL     OW18174   2.673  13.814   8.327
 5426SOL    HW118175   2.700  13.905   8.333
 5426SOL    HW218176   2.641  13.804   8.238
 5427SOL     OW18177  11.080  14.441   7.165
 5427SOL    HW118178  11.153  14.398   7.121
 5427SOL    HW218179  11.115  14.467   7.250
 5428SOL     OW18180   2.947   3.226  11.850
 5428SOL    HW118181   2.958   3.267  11.936
 5428SOL    HW218182   2.876   3.275  11.809
 5429SOL     OW18183  13.232   5.103   2.097
 5429SOL    HW118184  13.259   5.016   2.069
 5429SOL    HW218185  13.151   5.120   2.050
 5430SOL     OW18186   9.035   0.415   1.220
 5430SOL    HW118187   9.009   0.337   1.170
 5430SOL    HW218188   8.995   0.402   1.306
 5431SOL     OW18189   4.362   8.332  12.464
 5431SOL    HW118190   4.400   8.419  12.451
 5431SOL    HW218191   4.362   8.293  12.377
 5432SOL     OW18192   7.979  11.594  12.672
 5432SOL    HW118193   7.891  11.572  12.641
 5432SOL    HW218194   8.037  11.554  12.608
 5433SOL     OW18195   5.783   5.877  11.872
 5433SOL    HW118196   5.873   5.877  11.840
 5433SOL    HW218197   5.770   5.788  11.906
 5434SOL     OW18198   4.127   1.837   1.155
 5434SOL    HW118199   4.163   1.794   1.232
 5434SOL    HW218200   4.036   1.855   1.178
 5435SOL     OW18201  12.024   1.266  11.670
 5435SOL    HW118202  11.976   1.301  11.595
 5435SOL    HW218203  11.982   1.305  11.747
 5436SOL     OW18204   1.239   1.301  10.701
 5436SOL    HW118205   1.334   1.300  10.713
 5436SOL    HW218206   1.204   1.287  10.789
 5437SOL     OW18207   5.972   0.474   4.080
 5437SOL    HW118208   6.044   0.526   4.045
 5437SOL    HW218209   5.900   0.487   4.018
 5438SOL     OW18210   5.229   4.862  10.848
 5438SOL    HW118211   5.305   4.832  10.898
 5438SOL    HW218212   5.190   4.930  10.903
 5439SOL     OW18213   4.667   5.571   3.582
 5439SOL    HW118214   4.704   5.568   3.493
 5439SOL    HW218215   4.734   5.530   3.637
 5440SOL     OW18216  11.372   0.340  13.305
 5440SOL    HW118217  11.301   0.341  13.241
 5440SOL    HW218218  11.346   0.402  13.373
 5441SOL     OW18219   5.045   0.060   0.535
 5441SOL    HW118220   5.132   0.091   0.511
 5441SOL    HW218221   5.001   0.138   0.569
 5442SOL     OW18222   0.661   1.076   4.320
 5442SOL    HW118223   0.682   1.051   4.410
 5442SOL    HW218224   0.682   1.169   4.315
 5443SOL     OW18225  10.033  14.427   1.798
 5443SOL    HW118226  10.018  14.518   1.773
 5443SOL    HW218227  10.123  14.409   1.772
 5444SOL     OW18228  12.948  11.721   5.386
 5444SOL    HW118229  12.862  11.723   5.345
 5444SOL    HW218230  12.941  11.784   5.458
 5445SOL     OW18231   4.476   0.905   9.864
 5445SOL    HW118232   4.537   0.947   9.925
 5445SOL    HW218233   4.488   0.952   9.782
 5446SOL     OW18234   0.920   5.584   9.848
 5446SOL    HW118235   0.896   5.665   9.893
 5446SOL    HW218236   0.837   5.537   9.839
 5447SOL     OW18237   2.682   4.721   2.748
 5447SOL    HW118238   2.629   4.785   2.795
 5447SOL    HW218239   2.694   4.648   2.809
 5448SOL     OW18240   0.340   8.400   4.540
 5448SOL    HW118241   0.369   8.357   4.620
 5448SOL    HW218242   0.251   8.367   4.526
 5449SOL     OW18243   4.403   5.202   9.457
 5449SOL    HW118244   4.495   5.194   9.432
 5449SOL    HW218245   4.396   5.152   9.538
 5450SOL     OW18246   2.247   5.877   6.031
 5450SOL    HW118247   2.262   5.790   6.066
 5450SOL    HW218248   2.235   5.864   5.937
 5451SOL     OW18249   0.369   3.339  10.453
 5451SOL    HW118250   0.304   3.323  10.384
 5451SOL    HW218251   0.329   3.406  10.508
 5452SOL     OW18252  13.620   4.345   6.861
 5452SOL    HW118253  13.584   4.322   6.776
 5452SOL    HW218254  13.640   4.439   6.854
 5453SOL     OW18255  11.309   9.393   4.326
 5453SOL    HW118256  11.315   9.306   4.288
 5453SOL    HW218257  11.334   9.381   4.418
 5454SOL     OW18258   4.927   1.174   3.560
 5454SOL    HW118259   4.907   1.183   3.467
 5454SOL    HW218260   4.946   1.081   3.572
 5455SOL     OW18261  11.493   1.440   5.679
 5455SOL    HW118262  11.397   1.446   5.682
 5455SOL    HW218263  11.520   1.520   5.633
 5456SOL     OW18264   1.049   8.476  13.350
 5456SOL    HW118265   1.078   8.553  13.399
 5456SOL    HW218266   1.010   8.512  13.270
 5457SOL     OW18267   2.342   7.455  13.212
 5457SOL    HW118268   2.419   7.427  13.161
 5457SOL    HW218269   2.328   7.546  13.185
 5458SOL     OW18270  12.305   7.180  10.805
 5458SOL    HW118271  12.347   7.266  10.809
 5458SOL    HW218272  12.343   7.131  10.878
 5459SOL     OW18273   2.351  11.622   8.325
 5459SOL    HW118274   2.338  11.566   8.248
 5459SOL    HW218275   2.441  11.606   8.352
 5460SOL     OW18276   3.043  10.903  12.401
 5460SOL    HW118277   2.962  10.936  12.362
 5460SOL    HW218278   3.111  10.961  12.366
 5461SOL     OW18279   9.354   5.775   9.942
 5461SOL    HW118280   9.322   5.839   9.879
 5461SOL    HW218281   9.289   5.704   9.939
 5462SOL     OW18282  12.909   3.070   3.340
 5462SOL    HW118283  12.969   3.121   3.395
 5462SOL    HW218284  12.867   3.009   3.400
 5463SOL     OW18285  11.508   7.097   0.230
 5463SOL    HW118286  11.509   7.024   0.168
 5463SOL    HW218287  11.599   7.125   0.236
 5464SOL     OW18288  12.927  11.035  12.246
 5464SOL    HW118289  12.966  11.120  12.267
 5464SOL    HW218290  12.832  11.051  12.249
 5465SOL     OW18291   4.641   0.665   4.541
 5465SOL    HW118292   4.703   0.671   4.469
 5465SOL    HW218293   4.555   0.660   4.499
 5466SOL     OW18294  10.745  11.199   0.973
 5466SOL    HW118295  10.655  11.228   0.992
 5466SOL    HW218296  10.766  11.140   1.046
 5467SOL     OW18297   1.863  13.937   8.208
 5467SOL    HW118298   1.855  13.908   8.299
 5467SOL    HW218299   1.913  13.868   8.166
 5468SOL     OW18300   9.067  12.633   1.012
 5468SOL    HW118301   9.106  12.547   1.024
 5468SOL    HW218302   8.990  12.617   0.957
 5469SOL     OW18303   8.932   2.615   1.409
 5469SOL    HW118304   8.855   2.566   1.379
 5469SOL    HW218305   8.948   2.582   1.498
 5470SOL     OW18306  10.115   3.077   5.617
 5470SOL    HW118307  10.176   3.035   5.557
 5470SOL    HW218308  10.093   3.160   5.575
 5471SOL     OW18309   1.725   7.355   4.045
 5471SOL    HW118310   1.652   7.305   4.009
 5471SOL    HW218311   1.687   7.439   4.070
 5472SOL     OW18312   4.524  12.222   1.757
 5472SOL    HW118313   4.560  12.210   1.845
 5472SOL    HW218314   4.598  12.205   1.698
 5473SOL     OW18315   6.658  10.614  13.036
 5473SOL    HW118316   6.599  10.548  13.001
 5473SOL    HW218317   6.725  10.564  13.082
 5474SOL     OW18318   3.512   1.327   1.653
 5474SOL    HW118319   3.603   1.339   1.682
 5474SOL    HW218320   3.520   1.276   1.572
 5475SOL     OW18321   8.322   3.823   2.721
 5475SOL    HW118322   8.349   3.809   2.631
 5475SOL    HW218323   8.279   3.909   2.720
 5476SOL     OW18324   8.290   7.703   0.031
 5476SOL    HW118325   8.346   7.627   0.016
 5476SOL    HW218326   8.212   7.667   0.074
 5477SOL     OW18327   7.404   1.765   0.519
 5477SOL    HW118328   7.385   1.700   0.451
 5477SOL    HW218329   7.478   1.814   0.484
 5478SOL     OW18330   6.292   9.933   4.842
 5478SOL    HW118331   6.241  10.013   4.856
 5478SOL    HW218332   6.381   9.956   4.870
 5479SOL     OW18333   5.394  14.482   8.379
 5479SOL    HW118334   5.338  14.456   8.452
 5479SOL    HW218335   5.347  14.553   8.336
 5480SOL     OW18336  12.004   6.376   8.222
 5480SOL    HW118337  12.032   6.285   8.210
 5480SOL    HW218338  11.909   6.374   8.210
 5481SOL     OW18339  12.520   8.769   8.088
 5481SOL    HW118340  12.513   8.843   8.148
 5481SOL    HW218341  12.484   8.695   8.137
 5482SOL     OW18342  10.236   9.909  12.621
 5482SOL    HW118343  10.170   9.978  12.625
 5482SOL    HW218344  10.316   9.950  12.653
 5483SOL     OW18345   1.035   1.167  10.280
 5483SOL    HW118346   0.990   1.108  10.340
 5483SOL    HW218347   1.014   1.255  10.313
 5484SOL     OW18348  14.603   3.603   9.094
 5484SOL    HW118349  14.698   3.599   9.105
 5484SOL    HW218350  14.585   3.546   9.019
 5485SOL     OW18351   3.917   3.161  12.588
 5485SOL    HW118352   3.840   3.119  12.550
 5485SOL    HW218353   3.880   3.229  12.645
 5486SOL     OW18354   1.537   6.679   0.955
 5486SOL    HW118355   1.558   6.680   1.049
 5486SOL    HW218356   1.443   6.666   0.952
 5487SOL     OW18357  13.633   1.471  10.170
 5487SOL    HW118358  13.636   1.492  10.077
 5487SOL    HW218359  13.709   1.415  10.185
 5488SOL     OW18360  14.495   5.985  12.599
 5488SOL    HW118361  14.406   6.022  12.598
 5488SOL    HW218362  14.500   5.938  12.683
 5489SOL     OW18363   3.755   6.577  10.193
 5489SOL    HW118364   3.813   6.651  10.174
 5489SOL    HW218365   3.710   6.560  10.110
 5490SOL     OW18366   2.598  12.420   9.739
 5490SOL    HW118367   2.577  12.358   9.669
 5490SOL    HW218368   2.564  12.504   9.708
 5491SOL     OW18369   3.570   8.811  10.509
 5491SOL    HW118370   3.492   8.819  10.564
 5491SOL    HW218371   3.562   8.724  10.469
 5492SOL     OW18372   9.102   9.285  12.921
 5492SOL    HW118373   9.128   9.369  12.959
 5492SOL    HW218374   9.119   9.295  12.827
 5493SOL     OW18375  11.165  13.882  10.854
 5493SOL    HW118376  11.257  13.857  10.869
 5493SOL    HW218377  11.123  13.800  10.827
 5494SOL     OW18378   7.160  11.750   9.958
 5494SOL    HW118379   7.252  11.731   9.973
 5494SOL    HW218380   7.149  11.842   9.983
 5495SOL     OW18381   1.799   6.981   3.519
 5495SOL    HW118382   1.822   7.007   3.430
 5495SOL    HW218383   1.871   7.013   3.574
 5496SOL     OW18384   0.145   6.196   7.852
 5496SOL    HW118385   0.111   6.132   7.914
 5496SOL    HW218386   0.173   6.145   7.776
 5497SOL     OW18387  14.295   3.110   2.696
 5497SOL    HW118388  14.317   3.152   2.779
 5497SOL    HW218389  14.291   3.017   2.717
 5498SOL     OW18390   5.481   4.298   7.372
 5498SOL    HW118391   5.462   4.391   7.382
 5498SOL    HW218392   5.470   4.262   7.460
 5499SOL     OW18393   9.531   6.813  13.511
 5499SOL    HW118394   9.572   6.794  13.596
 5499SOL    HW218395   9.604   6.822  13.450
 5500SOL     OW18396   8.375  14.622  12.644
 5500SOL    HW118397   8.424  14.656  12.569
 5500SOL    HW218398   8.442  14.581  12.699
 5501SOL     OW18399   1.348   7.837   9.693
 5501SOL    HW118400   1.339   7.778   9.619
 5501SOL    HW218401   1.271   7.894   9.689
 5502SOL     OW18402  14.660   8.778   8.516
 5502SOL    HW118403  14.570   8.757   8.539
 5502SOL    HW218404  14.704   8.693   8.513
 5503SOL     OW18405   0.074   9.425   8.121
 5503SOL    HW118406   0.063   9.511   8.162
 5503SOL    HW218407  14.865   9.377   8.144
 5504SOL     OW18408   1.777   6.825   5.494
 5504SOL    HW118409   1.698   6.788   5.454
 5504SOL    HW218410   1.803   6.896   5.434
 5505SOL     OW18411   7.103   3.980  13.206
 5505SOL    HW118412   7.075   3.889  13.196
 5505SOL    HW218413   7.050   4.029  13.142
 5506SOL     OW18414  11.516   1.461   9.796
 5506SOL    HW118415  11.577   1.511   9.849
 5506SOL    HW218416  11.571   1.405   9.741
 5507SOL     OW18417   0.953   3.875   0.438
 5507SOL    HW118418   1.025   3.938   0.443
 5507SOL    HW218419   0.876   3.929   0.421
 5508SOL     OW18420   0.495   6.378   2.337
 5508SOL    HW118421   0.463   6.306   2.283
 5508SOL    HW218422   0.433   6.449   2.321
 5509SOL     OW18423   8.089  11.285   6.883
 5509SOL    HW118424   8.114  11.313   6.795
 5509SOL    HW218425   8.161  11.230   6.913
 5510SOL     OW18426   2.432   6.803   7.786
 5510SOL    HW118427   2.406   6.717   7.753
 5510SOL    HW218428   2.350   6.844   7.813
 5511SOL     OW18429   9.775   7.035   3.179
 5511SOL    HW118430   9.842   6.973   3.150
 5511SOL    HW218431   9.815   7.081   3.252
 5512SOL     OW18432   4.217   2.233  10.101
 5512SOL    HW118433   4.221   2.259  10.193
 5512SOL    HW218434   4.306   2.243  10.069
 5513SOL     OW18435   8.578  11.323   4.020
 5513SOL    HW118436   8.488  11.318   3.989
 5513SOL    HW218437   8.575  11.292   4.110
 5514SOL     OW18438   2.579   1.975  13.947
 5514SOL    HW118439   2.581   2.064  13.912
 5514SOL    HW218440   2.639   1.976  14.021
 5515SOL     OW18441   1.866   4.055   3.832
 5515SOL    HW118442   1.773   4.073   3.848
 5515SOL    HW218443   1.878   3.964   3.859
 5516SOL     OW18444   9.305   6.269   4.433
 5516SOL    HW118445   9.251   6.252   4.510
 5516SOL    HW218446   9.271   6.209   4.366
 5517SOL     OW18447  12.770   3.924   9.561
 5517SOL    HW118448  12.854   3.948   9.520
 5517SOL    HW218449  12.793   3.854   9.622
 5518SOL     OW18450  13.650   0.505  12.341
 5518SOL    HW118451  13.605   0.560  12.405
 5518SOL    HW218452  13.658   0.560  12.263
 5519SOL     OW18453   9.595  13.452  14.211
 5519SOL    HW118454   9.531  13.499  14.264
 5519SOL    HW218455   9.675  13.453  14.263
 5520SOL     OW18456  12.827   8.974   2.500
 5520SOL    HW118457  12.845   8.923   2.421
 5520SOL    HW218458  12.902   8.957   2.557
 5521SOL     OW18459  10.811   8.020   9.933
 5521SOL    HW118460  10.746   8.040   9.865
 5521SOL    HW218461  10.781   8.069  10.009
 5522SOL     OW18462   0.376  13.040   0.633
 5522SOL    HW118463   0.323  12.972   0.674
 5522SOL    HW218464   0.439  12.992   0.579
 5523SOL     OW18465   9.412  13.394   2.413
 5523SOL    HW118466   9.380  13.378   2.324
 5523SOL    HW218467   9.340  13.365   2.469
 5524SOL     OW18468  11.087   0.435  10.271
 5524SOL    HW118469  11.181   0.436  10.251
 5524SOL    HW218470  11.072   0.516  10.319
 5525SOL     OW18471  10.233   3.565   1.137
 5525SOL    HW118472  10.153   3.517   1.113
 5525SOL    HW218473  10.294   3.546   1.066
 5526SOL     OW18474   3.197   8.975  11.539
 5526SOL    HW118475   3.239   8.952  11.622
 5526SOL    HW218476   3.122   9.028  11.565
 5527SOL     OW18477  13.442   2.370   0.573
 5527SOL    HW118478  13.411   2.398   0.659
 5527SOL    HW218479  13.378   2.405   0.511
 5528SOL     OW18480   8.893   0.976   3.782
 5528SOL    HW118481   8.887   0.918   3.858
 5528SOL    HW218482   8.918   0.918   3.709
 5529SOL     OW18483   5.463   3.889   2.357
 5529SOL    HW118484   5.537   3.858   2.304
 5529SOL    HW218485   5.417   3.809   2.383
 5530SOL     OW18486  10.596  11.346   8.345
 5530SOL    HW118487  10.536  11.305   8.407
 5530SOL    HW218488  10.581  11.440   8.356
 5531SOL     OW18489   3.505   7.981   6.729
 5531SOL    HW118490   3.559   7.922   6.676
 5531SOL    HW218491   3.428   7.928   6.751
 5532SOL     OW18492   1.083   1.867   7.072
 5532SOL    HW118493   1.087   1.879   6.977
 5532SOL    HW218494   1.041   1.781   7.084
 5533SOL     OW18495  10.555   6.775  10.125
 5533SOL    HW118496  10.612   6.784  10.048
 5533SOL    HW218497  10.560   6.860  10.168
 5534SOL     OW18498   0.032  13.846   7.043
 5534SOL    HW118499   0.070  13.921   6.997
 5534SOL    HW218500   0.097  13.776   7.033
 5535SOL     OW18501  10.912   7.613  11.251
 5535SOL    HW118502  10.912   7.526  11.291
 5535SOL    HW218503  10.847   7.663  11.301
 5536SOL     OW18504   7.808   1.068   9.134
 5536SOL    HW118505   7.778   1.135   9.073
 5536SOL    HW218506   7.882   1.026   9.089
 5537SOL     OW18507   6.839  10.050  12.763
 5537SOL    HW118508   6.765  10.107  12.779
 5537SOL    HW218509   6.848  10.048  12.668
 5538SOL     OW18510   3.387   7.577   6.756
 5538SOL    HW118511   3.474   7.618   6.754
 5538SOL    HW218512   3.333   7.639   6.805
 5539SOL     OW18513   7.037  12.987   1.824
 5539SOL    HW118514   7.041  13.067   1.878
 5539SOL    HW218515   7.125  12.979   1.787
 5540SOL     OW18516   3.926   5.639   5.253
 5540SOL    HW118517   3.972   5.707   5.303
 5540SOL    HW218518   3.918   5.676   5.165
 5541SOL     OW18519   3.072   7.503  13.063
 5541SOL    HW118520   2.997   7.464  13.108
 5541SOL    HW218521   3.084   7.588  13.105
 5542SOL     OW18522  10.267  14.400  12.495
 5542SOL    HW118523  10.276  14.437  12.407
 5542SOL    HW218524  10.338  14.336  12.501
 5543SOL     OW18525  10.782  11.760   5.865
 5543SOL    HW118526  10.826  11.717   5.792
 5543SOL    HW218527  10.826  11.727   5.943
 5544SOL     OW18528   0.109  14.774   5.899
 5544SOL    HW118529   0.201  14.748   5.900
 5544SOL    HW218530   0.082  14.764   5.808
 5545SOL     OW18531   8.616   1.542   4.145
 5545SOL    HW118532   8.685   1.541   4.212
 5545SOL    HW218533   8.644   1.610   4.084
 5546SOL     OW18534  13.254   3.813   2.580
 5546SOL    HW118535  13.280   3.881   2.517
 5546SOL    HW218536  13.271   3.852   2.666
 5547SOL     OW18537   3.809  10.353  12.215
 5547SOL    HW118538   3.866  10.315  12.148
 5547SOL    HW218539   3.769  10.429  12.173
 5548SOL     OW18540   0.799  12.685   5.999
 5548SOL    HW118541   0.850  12.733   5.934
 5548SOL    HW218542   0.818  12.593   5.983
 5549SOL     OW18543   1.804   1.575  11.168
 5549SOL    HW118544   1.832   1.556  11.257
 5549SOL    HW218545   1.709   1.580  11.173
 5550SOL     OW18546   1.043   2.659   3.391
 5550SOL    HW118547   1.135   2.647   3.367
 5550SOL    HW218548   1.046   2.708   3.473
 5551SOL     OW18549   8.604   1.588  14.832
 5551SOL    HW118550   8.547   1.618  14.761
 5551SOL    HW218551   8.564   1.507  14.863
 5552SOL     OW18552  10.877   5.756   4.801
 5552SOL    HW118553  10.953   5.723   4.753
 5552SOL    HW218554  10.903   5.844   4.828
 5553SOL     OW18555   5.250   5.317   7.012
 5553SOL    HW118556   5.209   5.353   7.090
 5553SOL    HW218557   5.250   5.389   6.949
 5554SOL     OW18558   3.572   1.751   0.804
 5554SOL    HW118559   3.637   1.685   0.826
 5554SOL    HW218560   3.582   1.765   0.710
 5555SOL     OW18561  14.839  12.408  12.486
 5555SOL    HW118562   0.045  12.351  12.496
 5555SOL    HW218563  14.767  12.349  12.466
 5556SOL     OW18564   5.505  11.724   3.349
 5556SOL    HW118565   5.519  11.662   3.278
 5556SOL    HW218566   5.459  11.797   3.307
 5557SOL     OW18567   0.645   0.621   9.131
 5557SOL    HW118568   0.664   0.561   9.202
 5557SOL    HW218569   0.729   0.666   9.114
 5558SOL     OW18570   2.513  10.919   4.728
 5558SOL    HW118571   2.531  10.984   4.796
 5558SOL    HW218572   2.598  10.879   4.709
 5559SOL     OW18573   1.393   2.830   1.375
 5559SOL    HW118574   1.471   2.782   1.405
 5559SOL    HW218575   1.328   2.762   1.357
 5560SOL     OW18576   7.248   1.125   7.019
 5560SOL    HW118577   7.251   1.193   7.086
 5560SOL    HW218578   7.339   1.117   6.989
 5561SOL     OW18579   2.655  11.720   4.816
 5561SOL    HW118580   2.603  11.746   4.892
 5561SOL    HW218581   2.739  11.694   4.853
 5562SOL     OW18582  10.253   1.069   9.932
 5562SOL    HW118583  10.339   1.084   9.970
 5562SOL    HW218584  10.210   1.009   9.993
 5563SOL     OW18585   2.210   7.072   8.036
 5563SOL    HW118586   2.265   7.000   8.067
 5563SOL    HW218587   2.262   7.151   8.051
 5564SOL     OW18588   3.996   3.957  10.633
 5564SOL    HW118589   3.993   3.968  10.538
 5564SOL    HW218590   3.930   3.891  10.652
 5565SOL     OW18591   4.182  14.238   7.193
 5565SOL    HW118592   4.245  14.182   7.238
 5565SOL    HW218593   4.101  14.227   7.242
 5566SOL     OW18594  12.618  13.502   8.949
 5566SOL    HW118595  12.588  13.523   8.860
 5566SOL    HW218596  12.630  13.587   8.991
 5567SOL     OW18597   2.289   4.384  13.598
 5567SOL    HW118598   2.256   4.466  13.561
 5567SOL    HW218599   2.357   4.355  13.536
 5568SOL     OW18600   2.918   3.864  10.502
 5568SOL    HW118601   2.901   3.957  10.485
 5568SOL    HW218602   2.968   3.863  10.584
 5569SOL     OW18603   2.522   8.159   9.865
 5569SOL    HW118604   2.426   8.152   9.867
 5569SOL    HW218605   2.540   8.243   9.906
 5570SOL     OW18606  14.210   8.012   4.307
 5570SOL    HW118607  14.133   8.030   4.253
 5570SOL    HW218608  14.218   8.087   4.365
 5571SOL     OW18609  10.940   6.786   9.628
 5571SOL    HW118610  10.975   6.790   9.717
 5571SOL    HW218611  10.899   6.699   9.622
 5572SOL     OW18612  13.719   8.829   6.361
 5572SOL    HW118613  13.688   8.919   6.370
 5572SOL    HW218614  13.799   8.835   6.309
 5573SOL     OW18615   1.280   6.913  14.519
 5573SOL    HW118616   1.359   6.892  14.470
 5573SOL    HW218617   1.299   6.884  14.608
 5574SOL     OW18618   7.612   6.665   9.936
 5574SOL    HW118619   7.651   6.736   9.886
 5574SOL    HW218620   7.577   6.707  10.015
 5575SOL     OW18621   1.511   8.888   3.003
 5575SOL    HW118622   1.526   8.915   3.094
 5575SOL    HW218623   1.463   8.806   3.009
 5576SOL     OW18624   9.140  12.360   7.341
 5576SOL    HW118625   9.151  12.425   7.411
 5576SOL    HW218626   9.177  12.403   7.264
 5577SOL     OW18627   1.231  10.755  10.335
 5577SOL    HW118628   1.270  10.768  10.248
 5577SOL    HW218629   1.211  10.662  10.339
 5578SOL     OW18630  12.625   4.991   0.736
 5578SOL    HW118631  12.555   4.963   0.678
 5578SOL    HW218632  12.695   4.927   0.723
 5579SOL     OW18633   9.626   2.027  13.025
 5579SOL    HW118634   9.668   1.971  13.091
 5579SOL    HW218635   9.684   2.021  12.949
 5580SOL     OW18636  14.342   8.420  13.098
 5580SOL    HW118637  14.249   8.420  13.121
 5580SOL    HW218638  14.375   8.335  13.128
 5581SOL     OW18639   5.804  12.785   2.646
 5581SOL    HW118640   5.735  12.829   2.695
 5581SOL    HW218641   5.817  12.702   2.692
 5582SOL     OW18642   6.585  10.496  13.367
 5582SOL    HW118643   6.655  10.450  13.321
 5582SOL    HW218644   6.616  10.586  13.375
 5583SOL     OW18645   6.898   2.791   3.481
 5583SOL    HW118646   6.954   2.747   3.417
 5583SOL    HW218647   6.850   2.720   3.523
 5584SOL     OW18648   8.648   3.469  13.309
 5584SOL    HW118649   8.602   3.518  13.378
 5584SOL    HW218650   8.740   3.471  13.336
 5585SOL     OW18651   3.721   0.689   4.734
 5585SOL    HW118652   3.641   0.679   4.682
 5585SOL    HW218653   3.778   0.744   4.680
 5586SOL     OW18654  13.158  10.111   7.579
 5586SOL    HW118655  13.140  10.163   7.500
 5586SOL    HW218656  13.206  10.035   7.548
 5587SOL     OW18657   7.288   9.000  12.127
 5587SOL    HW118658   7.268   8.925  12.071
 5587SOL    HW218659   7.382   9.014  12.114
 5588SOL     OW18660   3.031  11.658  10.850
 5588SOL    HW118661   3.033  11.672  10.755
 5588SOL    HW218662   3.122  11.659  10.877
 5589SOL     OW18663   7.810   1.690  11.602
 5589SOL    HW118664   7.860   1.611  11.622
 5589SOL    HW218665   7.816   1.699  11.507
 5590SOL     OW18666  13.887   8.188   9.154
 5590SOL    HW118667  13.930   8.274   9.151
 5590SOL    HW218668  13.951   8.132   9.199
 5591SOL     OW18669   1.289  12.176   9.593
 5591SOL    HW118670   1.303  12.081   9.594
 5591SOL    HW218671   1.357  12.209   9.534
 5592SOL     OW18672  13.449   9.096   6.460
 5592SOL    HW118673  13.442   9.009   6.498
 5592SOL    HW218674  13.533   9.130   6.491
 5593SOL     OW18675  11.673  13.091   0.045
 5593SOL    HW118676  11.606  13.023   0.034
 5593SOL    HW218677  11.628  13.172   0.020
 5594SOL     OW18678  11.742   9.712  10.599
 5594SOL    HW118679  11.684   9.663  10.540
 5594SOL    HW218680  11.820   9.728  10.547
 5595SOL     OW18681  14.531   7.363  11.834
 5595SOL    HW118682  14.530   7.368  11.930
 5595SOL    HW218683  14.549   7.452  11.806
 5596SOL     OW18684  13.547   4.487   2.285
 5596SOL    HW118685  13.533   4.545   2.210
 5596SOL    HW218686  13.574   4.545   2.356
 5597SOL     OW18687  10.359  10.002   7.786
 5597SOL    HW118688  10.429   9.939   7.770
 5597SOL    HW218689  10.375  10.033   7.875
 5598SOL     OW18690  13.024  14.606   0.034
 5598SOL    HW118691  12.957  14.550   0.071
 5598SOL    HW218692  12.999  14.695   0.059
 5599SOL     OW18693   3.484  14.348   9.363
 5599SOL    HW118694   3.580  14.343   9.366
 5599SOL    HW218695   3.462  14.323   9.274
 5600SOL     OW18696   3.535   4.101   1.812
 5600SOL    HW118697   3.612   4.088   1.867
 5600SOL    HW218698   3.480   4.026   1.830
 5601SOL     OW18699   8.272  11.843  12.420
 5601SOL    HW118700   8.180  11.863  12.439
 5601SOL    HW218701   8.321  11.883  12.492
 5602SOL     OW18702   2.720   7.806   2.416
 5602SOL    HW118703   2.751   7.749   2.486
 5602SOL    HW218704   2.675   7.747   2.355
 5603SOL     OW18705  14.514   5.415   2.874
 5603SOL    HW118706  14.550   5.490   2.922
 5603SOL    HW218707  14.523   5.440   2.782
 5604SOL     OW18708   4.218   4.598  13.752
 5604SOL    HW118709   4.176   4.680  13.779
 5604SOL    HW218710   4.283   4.625  13.687
 5605SOL     OW18711   7.101   3.147   9.617
 5605SOL    HW118712   7.131   3.237   9.605
 5605SOL    HW218713   7.026   3.139   9.557
 5606SOL     OW18714   3.590   5.555  12.763
 5606SOL    HW118715   3.623   5.590  12.846
 5606SOL    HW218716   3.575   5.632  12.708
 5607SOL     OW18717   9.055  10.217   1.686
 5607SOL    HW118718   9.034  10.155   1.615
 5607SOL    HW218719   9.016  10.177   1.764
 5608SOL     OW18720   3.966   1.545  12.918
 5608SOL    HW118721   3.906   1.497  12.861
 5608SOL    HW218722   4.037   1.573  12.861
 5609SOL     OW18723   9.213   3.145   5.857
 5609SOL    HW118724   9.259   3.066   5.886
 5609SOL    HW218725   9.122   3.117   5.844
 5610SOL     OW18726   1.101   2.786   2.187
 5610SOL    HW118727   1.149   2.746   2.259
 5610SOL    HW218728   1.055   2.860   2.226
 5611SOL     OW18729   9.304  10.936   8.094
 5611SOL    HW118730   9.233  10.896   8.044
 5611SOL    HW218731   9.361  10.863   8.117
 5612SOL     OW18732   1.473   2.033   2.610
 5612SOL    HW118733   1.445   1.998   2.695
 5612SOL    HW218734   1.435   1.973   2.546
 5613SOL     OW18735  12.631  14.813  10.490
 5613SOL    HW118736  12.678   0.015  10.447
 5613SOL    HW218737  12.694  14.742  10.494
 5614SOL     OW18738   8.018  14.515   9.544
 5614SOL    HW118739   7.963  14.584   9.508
 5614SOL    HW218740   8.088  14.504   9.479
 5615SOL     OW18741   5.924   0.130   1.694
 5615SOL    HW118742   5.910   0.224   1.691
 5615SOL    HW218743   5.871   0.096   1.622
 5616SOL     OW18744   4.266   6.129   1.708
 5616SOL    HW118745   4.344   6.075   1.725
 5616SOL    HW218746   4.232   6.149   1.795
 5617SOL     OW18747  13.270   7.117   6.959
 5617SOL    HW118748  13.331   7.184   6.990
 5617SOL    HW218749  13.323   7.062   6.901
 5618SOL     OW18750  14.806  12.561   6.202
 5618SOL    HW118751  14.748  12.491   6.170
 5618SOL    HW218752  14.782  12.572   6.294
 5619SOL     OW18753  13.679   6.235   1.873
 5619SOL    HW118754  13.627   6.279   1.806
 5619SOL    HW218755  13.696   6.302   1.939
 5620SOL     OW18756   2.126   2.038   2.724
 5620SOL    HW118757   2.100   2.055   2.815
 5620SOL    HW218758   2.155   1.947   2.724
 5621SOL     OW18759  14.291  13.277   3.217
 5621SOL    HW118760  14.294  13.302   3.125
 5621SOL    HW218761  14.198  13.273   3.238
 5622SOL     OW18762   6.095   4.483   9.351
 5622SOL    HW118763   6.052   4.408   9.392
 5622SOL    HW218764   6.164   4.507   9.412
 5623SOL     OW18765  11.607  11.608  13.149
 5623SOL    HW118766  11.530  11.559  13.120
 5623SOL    HW218767  11.681  11.553  13.125
 5624SOL     OW18768   1.000  10.082  10.611
 5624SOL    HW118769   0.994   9.988  10.630
 5624SOL    HW218770   1.092  10.104  10.627
 5625SOL     OW18771   1.024  11.970  11.603
 5625SOL    HW118772   0.938  11.954  11.563
 5625SOL    HW218773   1.087  11.942  11.536
 5626SOL     OW18774  11.920   4.926   8.644
 5626SOL    HW118775  11.866   4.926   8.723
 5626SOL    HW218776  11.861   4.896   8.575
 5627SOL     OW18777  13.341  13.672  13.940
 5627SOL    HW118778  13.355  13.755  13.895
 5627SOL    HW218779  13.248  13.673  13.964
 5628SOL     OW18780   7.002  10.470  12.004
 5628SOL    HW118781   6.974  10.388  11.964
 5628SOL    HW218782   6.944  10.537  11.966
 5629SOL     OW18783  13.959   0.025  12.237
 5629SOL    HW118784  13.993   0.092  12.178
 5629SOL    HW218785  13.889   0.069  12.285
 5630SOL     OW18786  11.000   2.386   8.096
 5630SOL    HW118787  11.083   2.342   8.077
 5630SOL    HW218788  10.991   2.380   8.191
 5631SOL     OW18789  11.879   5.975   7.448
 5631SOL    HW118790  11.789   5.945   7.438
 5631SOL    HW218791  11.884   6.005   7.538
 5632SOL     OW18792   7.004  10.478   7.506
 5632SOL    HW118793   6.989  10.548   7.569
 5632SOL    HW218794   7.029  10.402   7.560
 5633SOL     OW18795   2.802   6.057   7.253
 5633SOL    HW118796   2.805   6.143   7.212
 5633SOL    HW218797   2.881   6.012   7.222
 5634SOL     OW18798   3.228   6.349   8.131
 5634SOL    HW118799   3.235   6.356   8.036
 5634SOL    HW218800   3.305   6.299   8.158
 5635SOL     OW18801   6.424  13.576   9.378
 5635SOL    HW118802   6.465  13.658   9.405
 5635SOL    HW218803   6.491  13.509   9.395
 5636SOL     OW18804  14.729   3.558   2.258
 5636SOL    HW118805  14.756   3.472   2.227
 5636SOL    HW218806  14.634   3.556   2.256
 5637SOL     OW18807   0.961  14.454   1.621
 5637SOL    HW118808   0.900  14.525   1.600
 5637SOL    HW218809   1.047  14.488   1.596
 5638SOL     OW18810  10.542  13.035   8.972
 5638SOL    HW118811  10.594  13.064   8.898
 5638SOL    HW218812  10.488  13.110   8.995
 5639SOL     OW18813   7.083   8.069   2.407
 5639SOL    HW118814   7.155   8.029   2.359
 5639SOL    HW218815   7.004   8.044   2.358
 5640SOL     OW18816   1.369   8.105   6.739
 5640SOL    HW118817   1.301   8.115   6.672
 5640SOL    HW218818   1.451   8.105   6.690
 5641SOL     OW18819  10.663   7.433  13.264
 5641SOL    HW118820  10.721   7.444  13.339
 5641SOL    HW218821  10.606   7.360  13.289
 5642SOL     OW18822  10.426   5.753   5.146
 5642SOL    HW118823  10.468   5.695   5.208
 5642SOL    HW218824  10.484   5.754   5.070
 5643SOL     OW18825  10.211   2.605   0.951
 5643SOL    HW118826  10.300   2.614   0.918
 5643SOL    HW218827  10.189   2.692   0.986
 5644SOL     OW18828   2.038  10.156   0.100
 5644SOL    HW118829   2.066  10.125   0.186
 5644SOL    HW218830   1.997  10.079   0.059
 5645SOL     OW18831   8.938  13.332   4.970
 5645SOL    HW118832   8.975  13.254   4.928
 5645SOL    HW218833   9.013  13.391   4.980
 5646SOL     OW18834  10.941  12.989  11.915
 5646SOL    HW118835  11.013  13.022  11.861
 5646SOL    HW218836  10.870  13.052  11.904
 5647SOL     OW18837   8.263   5.567  12.868
 5647SOL    HW118838   8.205   5.642  12.878
 5647SOL    HW218839   8.216   5.507  12.811
 5648SOL     OW18840   2.577   2.930  13.890
 5648SOL    HW118841   2.540   2.890  13.811
 5648SOL    HW218842   2.501   2.967  13.936
 5649SOL     OW18843  13.073   0.544   5.424
 5649SOL    HW118844  13.121   0.519   5.503
 5649SOL    HW218845  13.059   0.638   5.432
 5650SOL     OW18846   5.249  11.024   0.794
 5650SOL    HW118847   5.247  11.017   0.890
 5650SOL    HW218848   5.162  11.057   0.771
 5651SOL     OW18849  14.150   4.065   9.416
 5651SOL    HW118850  14.144   4.003   9.489
 5651SOL    HW218851  14.105   4.021   9.344
 5652SOL     OW18852   7.686   5.212  14.682
 5652SOL    HW118853   7.752   5.176  14.741
 5652SOL    HW218854   7.623   5.255  14.740
 5653SOL     OW18855  13.727   0.203   9.312
 5653SOL    HW118856  13.644   0.250   9.316
 5653SOL    HW218857  13.709   0.119   9.355
 5654SOL     OW18858  11.485   3.530   6.441
 5654SOL    HW118859  11.412   3.477   6.471
 5654SOL    HW218860  11.445   3.604   6.397
 5655SOL     OW18861   0.979  12.968   8.046
 5655SOL    HW118862   0.975  12.893   7.986
 5655SOL    HW218863   1.036  12.939   8.117
 5656SOL     OW18864   1.041   8.595   8.461
 5656SOL    HW118865   1.038   8.577   8.367
 5656SOL    HW218866   1.022   8.688   8.468
 5657SOL     OW18867   0.197  10.408  13.356
 5657SOL    HW118868   0.293  10.418  13.350
 5657SOL    HW218869   0.165  10.498  13.361
 5658SOL     OW18870   6.272   9.532   3.792
 5658SOL    HW118871   6.325   9.557   3.868
 5658SOL    HW218872   6.281   9.605   3.731
 5659SOL     OW18873   8.745  11.511   0.624
 5659SOL    HW118874   8.675  11.490   0.563
 5659SOL    HW218875   8.807  11.565   0.574
 5660SOL     OW18876  10.979  12.954  14.700
 5660SOL    HW118877  10.931  12.962  14.618
 5660SOL    HW218878  10.910  12.946  14.767
 5661SOL     OW18879  14.712   7.418   8.928
 5661SOL    HW118880  14.765   7.339   8.936
 5661SOL    HW218881  14.747   7.478   8.993
 5662SOL     OW18882   0.971   4.121   4.850
 5662SOL    HW118883   1.003   4.199   4.804
 5662SOL    HW218884   1.049   4.067   4.862
 5663SOL     OW18885  13.146  13.155  13.032
 5663SOL    HW118886  13.239  13.132  13.024
 5663SOL    HW218887  13.129  13.155  13.126
 5664SOL     OW18888   7.313   3.131   2.817
 5664SOL    HW118889   7.404   3.157   2.827
 5664SOL    HW218890   7.303   3.054   2.873
 5665SOL     OW18891   0.536   4.796   7.612
 5665SOL    HW118892   0.463   4.854   7.634
 5665SOL    HW218893   0.613   4.838   7.651
 5666SOL     OW18894   0.724   8.916   5.845
 5666SOL    HW118895   0.800   8.883   5.798
 5666SOL    HW218896   0.722   9.010   5.825
 5667SOL     OW18897  10.161   1.515   5.096
 5667SOL    HW118898  10.195   1.493   5.183
 5667SOL    HW218899  10.200   1.600   5.076
 5668SOL     OW18900  13.974  11.619  11.793
 5668SOL    HW118901  13.900  11.578  11.748
 5668SOL    HW218902  14.042  11.627  11.726
 5669SOL     OW18903  11.302  12.421  12.597
 5669SOL    HW118904  11.214  12.447  12.623
 5669SOL    HW218905  11.297  12.415  12.502
 5670SOL     OW18906   8.186   7.261  12.794
 5670SOL    HW118907   8.138   7.342  12.808
 5670SOL    HW218908   8.275   7.288  12.771
 5671SOL     OW18909  10.896  10.023  13.699
 5671SOL    HW118910  10.853   9.942  13.726
 5671SOL    HW218911  10.851  10.091  13.748
 5672SOL     OW18912   7.301   1.547  10.092
 5672SOL    HW118913   7.390   1.576  10.110
 5672SOL    HW218914   7.298   1.457  10.124
 5673SOL     OW18915   4.075   5.921  12.847
 5673SOL    HW118916   3.994   5.959  12.813
 5673SOL    HW218917   4.140   5.991  12.837
 5674SOL     OW18918   0.364  12.616   2.247
 5674SOL    HW118919   0.427  12.583   2.311
 5674SOL    HW218920   0.403  12.696   2.213
 5675SOL     OW18921   7.311   3.857  13.549
 5675SOL    HW118922   7.259   3.913  13.491
 5675SOL    HW218923   7.248   3.824  13.613
 5676SOL     OW18924   1.270   1.359   3.181
 5676SOL    HW118925   1.191   1.412   3.172
 5676SOL    HW218926   1.341   1.423   3.184
 5677SOL     OW18927   3.738   0.117   0.157
 5677SOL    HW118928   3.658   0.095   0.205
 5677SOL    HW218929   3.709   0.175   0.087
 5678SOL     OW18930   4.198   7.015  14.623
 5678SOL    HW118931   4.256   7.037  14.696
 5678SOL    HW218932   4.183   6.920  14.632
 5679SOL     OW18933  13.070   8.817   7.063
 5679SOL    HW118934  13.038   8.758   6.994
 5679SOL    HW218935  13.142   8.768   7.104
 5680SOL     OW18936   4.388  14.668  14.173
 5680SOL    HW118937   4.384  14.628  14.260
 5680SOL    HW218938   4.297  14.687  14.151
 5681SOL     OW18939  11.846  13.591  13.249
 5681SOL    HW118940  11.892  13.644  13.314
 5681SOL    HW218941  11.812  13.655  13.186
 5682SOL     OW18942   6.704   7.178  10.824
 5682SOL    HW118943   6.657   7.155  10.745
 5682SOL    HW218944   6.783   7.222  10.793
 5683SOL     OW18945   6.914   7.724   8.306
 5683SOL    HW118946   6.962   7.715   8.223
 5683SOL    HW218947   6.835   7.671   8.294
 5684SOL     OW18948   9.646  11.164  12.751
 5684SOL    HW118949   9.654  11.114  12.833
 5684SOL    HW218950   9.554  11.154  12.727
 5685SOL     OW18951   3.839  12.675   9.508
 5685SOL    HW118952   3.923  12.684   9.463
 5685SOL    HW218953   3.859  12.697   9.599
 5686SOL     OW18954  10.847   2.765   3.474
 5686SOL    HW118955  10.852   2.669   3.474
 5686SOL    HW218956  10.759   2.784   3.440
 5687SOL     OW18957  10.248  12.377  13.395
 5687SOL    HW118958  10.165  12.418  13.373
 5687SOL    HW218959  10.224  12.294  13.436
 5688SOL     OW18960   2.727  13.865  12.997
 5688SOL    HW118961   2.665  13.824  13.057
 5688SOL    HW218962   2.735  13.955  13.029
 5689SOL     OW18963   0.078  11.087  13.617
 5689SOL    HW118964   0.025  11.101  13.539
 5689SOL    HW218965   0.028  11.023  13.669
 5690SOL     OW18966   8.044  11.600  11.666
 5690SOL    HW118967   8.050  11.553  11.750
 5690SOL    HW218968   7.988  11.544  11.612
 5691SOL     OW18969   3.555   1.383  12.580
 5691SOL    HW118970   3.500   1.396  12.502
 5691SOL    HW218971   3.516   1.308  12.625
 5692SOL     OW18972   8.609   3.118   1.678
 5692SOL    HW118973   8.629   3.203   1.639
 5692SOL    HW218974   8.535   3.135   1.737
 5693SOL     OW18975   0.789   9.456  11.924
 5693SOL    HW118976   0.754   9.425  11.840
 5693SOL    HW218977   0.714   9.498  11.967
 5694SOL     OW18978  12.196  12.992   8.424
 5694SOL    HW118979  12.196  13.045   8.344
 5694SOL    HW218980  12.289  12.974   8.441
 5695SOL     OW18981   0.468   4.065   0.915
 5695SOL    HW118982   0.536   4.007   0.951
 5695SOL    HW218983   0.490   4.072   0.822
 5696SOL     OW18984   4.033   6.900   2.132
 5696SOL    HW118985   3.965   6.886   2.066
 5696SOL    HW218986   3.986   6.930   2.210
 5697SOL     OW18987   7.605  12.309   4.109
 5697SOL    HW118988   7.659  12.363   4.051
 5697SOL    HW218989   7.538  12.369   4.142
 5698SOL     OW18990  14.215   3.742   2.442
 5698SOL    HW118991  14.226   3.655   2.401
 5698SOL    HW218992  14.219   3.725   2.536
 5699SOL     OW18993   7.537   5.544   6.346
 5699SOL    HW118994   7.594   5.470   6.323
 5699SOL    HW218995   7.544   5.603   6.271
 5700SOL     OW18996   1.813   3.154   5.462
 5700SOL    HW118997   1.871   3.218   5.420
 5700SOL    HW218998   1.862   3.122   5.537
 5701SOL     OW18999   5.536   2.305   8.006
 5701SOL    HW119000   5.445   2.285   7.983
 5701SOL    HW219001   5.576   2.333   7.924
 5702SOL     OW19002   9.653   1.529  11.652
 5702SOL    HW119003   9.724   1.484  11.607
 5702SOL    HW219004   9.684   1.540  11.742
 5703SOL     OW19005   6.635   8.629   4.453
 5703SOL    HW119006   6.685   8.705   4.424
 5703SOL    HW219007   6.694   8.554   4.441
 5704SOL     OW19008   1.352  13.884  11.842
 5704SOL    HW119009   1.323  13.793  11.853
 5704SOL    HW219010   1.271  13.935  11.839
 5705SOL     OW19011  11.977   7.537  12.990
 5705SOL    HW119012  11.941   7.558  13.076
 5705SOL    HW219013  11.959   7.444  12.979
 5706SOL     OW19014   7.967   0.108   0.709
 5706SOL    HW119015   7.911   0.182   0.732
 5706SOL    HW219016   8.039   0.146   0.659
 5707SOL     OW19017   8.207  10.021   9.577
 5707SOL    HW119018   8.147  10.086   9.615
 5707SOL    HW219019   8.155   9.980   9.507
 5708SOL     OW19020   7.338   1.790   3.175
 5708SOL    HW119021   7.377   1.703   3.183
 5708SOL    HW219022   7.370   1.822   3.091
 5709SOL     OW19023   9.636   2.550   7.895
 5709SOL    HW119024   9.645   2.568   7.801
 5709SOL    HW219025   9.710   2.494   7.916
 5710SOL     OW19026   2.827  13.432  13.313
 5710SOL    HW119027   2.801  13.518  13.279
 5710SOL    HW219028   2.922  13.433  13.313
 5711SOL     OW19029   9.895   8.614  11.088
 5711SOL    HW119030   9.861   8.537  11.042
 5711SOL    HW219031   9.960   8.651  11.027
 5712SOL     OW19032   6.038  13.577  10.831
 5712SOL    HW119033   5.972  13.520  10.872
 5712SOL    HW219034   6.097  13.601  10.902
 5713SOL     OW19035   7.662   1.712   2.810
 5713SOL    HW119036   7.638   1.776   2.742
 5713SOL    HW219037   7.731   1.659   2.770
 5714SOL     OW19038  11.558  10.206   1.107
 5714SOL    HW119039  11.646  10.196   1.143
 5714SOL    HW219040  11.499  10.194   1.181
 5715SOL     OW19041   9.028  14.335   4.228
 5715SOL    HW119042   9.052  14.417   4.271
 5715SOL    HW219043   9.111  14.286   4.223
 5716SOL     OW19044   1.243  12.240   4.685
 5716SOL    HW119045   1.302  12.295   4.738
 5716SOL    HW219046   1.254  12.152   4.720
 5717SOL     OW19047  14.020  13.728   7.524
 5717SOL    HW119048  14.035  13.729   7.429
 5717SOL    HW219049  14.041  13.817   7.552
 5718SOL     OW19050   2.879  11.901   2.205
 5718SOL    HW119051   2.875  11.812   2.169
 5718SOL    HW219052   2.805  11.906   2.265
 5719SOL     OW19053   1.350   5.197  14.826
 5719SOL    HW119054   1.303   5.197  14.742
 5719SOL    HW219055   1.441   5.215  14.802
 5720SOL     OW19056   9.504  11.226   7.448
 5720SOL    HW119057   9.525  11.168   7.522
 5720SOL    HW219058   9.466  11.304   7.488
 5721SOL     OW19059   7.827  14.857   1.306
 5721SOL    HW119060   7.831  14.761   1.310
 5721SOL    HW219061   7.871   0.017   1.386
 5722SOL     OW19062   5.083   5.832   1.228
 5722SOL    HW119063   5.091   5.882   1.309
 5722SOL    HW219064   4.997   5.790   1.233
 5723SOL     OW19065   5.220   4.065   7.706
 5723SOL    HW119066   5.206   3.977   7.670
 5723SOL    HW219067   5.171   4.065   7.788
 5724SOL     OW19068   8.550  10.350   4.182
 5724SOL    HW119069   8.598  10.300   4.247
 5724SOL    HW219070   8.617  10.382   4.121
 5725SOL     OW19071  14.253   5.070   9.022
 5725SOL    HW119072  14.275   5.089   8.931
 5725SOL    HW219073  14.332   5.094   9.072
 5726SOL     OW19074   0.049   9.554  13.582
 5726SOL    HW119075  14.827   9.533  13.595
 5726SOL    HW219076   0.095   9.504  13.650
 5727SOL     OW19077   0.528  14.595  14.731
 5727SOL    HW119078   0.562  14.681  14.705
 5727SOL    HW219079   0.463  14.615  14.798
 5728SOL     OW19080  10.238  12.102   7.259
 5728SOL    HW119081  10.159  12.073   7.303
 5728SOL    HW219082  10.269  12.024   7.212
 5729SOL     OW19083   2.615  13.084  12.663
 5729SOL    HW119084   2.575  13.155  12.714
 5729SOL    HW219085   2.701  13.118  12.639
 5730SOL     OW19086  11.798  14.459   2.654
 5730SOL    HW119087  11.878  14.475   2.704
 5730SOL    HW219088  11.830  14.429   2.569
 5731SOL     OW19089   1.768   6.214   2.290
 5731SOL    HW119090   1.692   6.272   2.281
 5731SOL    HW219091   1.836   6.256   2.238
 5732SOL     OW19092   0.510   6.992  13.956
 5732SOL    HW119093   0.439   6.952  14.005
 5732SOL    HW219094   0.479   7.080  13.937
 5733SOL     OW19095   0.048   1.681   7.984
 5733SOL    HW119096   0.008   1.632   7.912
 5733SOL    HW219097   0.132   1.712   7.949
 5734SOL     OW19098   0.782   4.544  13.201
 5734SOL    HW119099   0.742   4.463  13.169
 5734SOL    HW219100   0.822   4.583  13.123
 5735SOL     OW19101  14.423   9.795   0.825
 5735SOL    HW119102  14.395   9.886   0.827
 5735SOL    HW219103  14.488   9.789   0.895
 5736SOL     OW19104  14.589   9.894   1.505
 5736SOL    HW119105  14.611   9.973   1.457
 5736SOL    HW219106  14.614   9.822   1.447
 5737SOL     OW19107  12.769  13.188  14.331
 5737SOL    HW119108  12.688  13.190  14.382
 5737SOL    HW219109  12.749  13.129  14.258
 5738SOL     OW19110  11.292  14.841  14.611
 5738SOL    HW119111  11.214  14.821  14.560
 5738SOL    HW219112  11.342   0.032  14.555
 5739SOL     OW19113   2.871  12.967   9.962
 5739SOL    HW119114   2.950  13.010   9.995
 5739SOL    HW219115   2.823  13.036   9.916
 5740SOL     OW19116  13.732   5.045   8.240
 5740SOL    HW119117  13.701   4.990   8.312
 5740SOL    HW219118  13.767   5.123   8.283
 5741SOL     OW19119  12.455  12.034  14.547
 5741SOL    HW119120  12.423  11.974  14.480
 5741SOL    HW219121  12.421  12.120  14.520
 5742SOL     OW19122  10.084   7.871   1.393
 5742SOL    HW119123  10.159   7.877   1.453
 5742SOL    HW219124  10.118   7.904   1.310
 5743SOL     OW19125   5.889  10.686   0.023
 5743SOL    HW119126   5.886  10.771   0.066
 5743SOL    HW219127   5.976  10.653   0.041
 5744SOL     OW19128   4.793   5.352   2.319
 5744SOL    HW119129   4.704   5.348   2.283
 5744SOL    HW219130   4.806   5.265   2.359
 5745SOL     OW19131  12.845  13.205   9.822
 5745SOL    HW119132  12.822  13.124   9.866
 5745SOL    HW219133  12.766  13.229   9.773
 5746SOL     OW19134  11.535   1.596   0.104
 5746SOL    HW119135  11.577   1.576   0.020
 5746SOL    HW219136  11.464   1.531   0.112
 5747SOL     OW19137   0.500   4.795   6.929
 5747SOL    HW119138   0.443   4.825   7.000
 5747SOL    HW219139   0.477   4.851   6.855
 5748SOL     OW19140   6.957   0.998  10.248
 5748SOL    HW119141   6.926   0.986  10.158
 5748SOL    HW219142   6.920   0.924  10.296
 5749SOL     OW19143  13.031   4.562   9.797
 5749SOL    HW119144  13.074   4.594   9.717
 5749SOL    HW219145  13.093   4.500   9.834
 5750SOL     OW19146   0.638   2.974   5.543
 5750SOL    HW119147   0.576   3.017   5.601
 5750SOL    HW219148   0.720   3.020   5.556
 5751SOL     OW19149  14.487   3.037   9.843
 5751SOL    HW119150  14.490   2.955   9.794
 5751SOL    HW219151  14.420   3.089   9.799
 5752SOL     OW19152  12.679   0.755  12.181
 5752SOL    HW119153  12.736   0.755  12.105
 5752SOL    HW219154  12.738   0.770  12.255
 5753SOL     OW19155   9.966  11.864   0.216
 5753SOL    HW119156   9.878  11.852   0.180
 5753SOL    HW219157   9.969  11.807   0.293
 5754SOL     OW19158  12.441   5.403   2.880
 5754SOL    HW119159  12.414   5.334   2.940
 5754SOL    HW219160  12.361   5.453   2.863
 5755SOL     OW19161   7.166   1.507   5.515
 5755SOL    HW119162   7.218   1.586   5.529
 5755SOL    HW219163   7.082   1.539   5.481
 5756SOL     OW19164   4.716   1.864  13.344
 5756SOL    HW119165   4.686   1.774  13.358
 5756SOL    HW219166   4.683   1.887  13.257
 5757SOL     OW19167  11.045  10.610   0.438
 5757SOL    HW119168  11.038  10.557   0.518
 5757SOL    HW219169  11.089  10.552   0.375
 5758SOL     OW19170   1.077   1.292   3.558
 5758SOL    HW119171   1.059   1.382   3.533
 5758SOL    HW219172   1.171   1.289   3.573
 5759SOL     OW19173   4.907   5.512   9.835
 5759SOL    HW119174   4.935   5.597   9.869
 5759SOL    HW219175   4.838   5.483   9.895
 5760SOL     OW19176   2.591   7.736  14.599
 5760SOL    HW119177   2.555   7.648  14.605
 5760SOL    HW219178   2.585   7.758  14.506
 5761SOL     OW19179  14.850  11.257   8.852
 5761SOL    HW119180  14.862  11.315   8.927
 5761SOL    HW219181   0.007  11.171   8.882
 5762SOL     OW19182   3.769   1.175   7.247
 5762SOL    HW119183   3.696   1.193   7.188
 5762SOL    HW219184   3.834   1.241   7.224
 5763SOL     OW19185   8.662  11.769   3.303
 5763SOL    HW119186   8.695  11.758   3.392
 5763SOL    HW219187   8.687  11.859   3.280
 5764SOL     OW19188   5.038  11.380  13.283
 5764SOL    HW119189   5.035  11.424  13.367
 5764SOL    HW219190   5.048  11.287  13.304
 5765SOL     OW19191   2.722  11.506   3.587
 5765SOL    HW119192   2.760  11.594   3.594
 5765SOL    HW219193   2.705  11.495   3.493
 5766SOL     OW19194  12.889  14.279   5.608
 5766SOL    HW119195  12.961  14.240   5.559
 5766SOL    HW219196  12.846  14.338   5.546
 5767SOL     OW19197  12.414   6.449  14.321
 5767SOL    HW119198  12.355   6.410  14.257
 5767SOL    HW219199  12.357   6.496  14.382
 5768SOL     OW19200  13.263   7.739  12.272
 5768SOL    HW119201  13.315   7.757  12.351
 5768SOL    HW219202  13.176   7.772  12.293
 5769SOL     OW19203   5.142   9.095  12.198
 5769SOL    HW119204   5.058   9.127  12.164
 5769SOL    HW219205   5.200   9.171  12.195
 5770SOL     OW19206   1.811   6.671   9.450
 5770SOL    HW119207   1.863   6.741   9.411
 5770SOL    HW219208   1.861   6.591   9.431
 5771SOL     OW19209   0.857  10.038   3.131
 5771SOL    HW119210   0.842   9.944   3.119
 5771SOL    HW219211   0.874  10.048   3.224
 5772SOL     OW19212   4.062   4.859  12.949
 5772SOL    HW119213   4.037   4.906  13.028
 5772SOL    HW219214   4.022   4.772  12.959
 5773SOL     OW19215  12.753   9.530   5.421
 5773SOL    HW119216  12.712   9.477   5.353
 5773SOL    HW219217  12.831   9.481   5.447
 5774SOL     OW19218   4.888   2.340   0.316
 5774SOL    HW119219   4.859   2.269   0.373
 5774SOL    HW219220   4.908   2.412   0.376
 5775SOL     OW19221   0.823  10.875  12.882
 5775SOL    HW119222   0.768  10.931  12.936
 5775SOL    HW219223   0.765  10.805  12.852
 5776SOL     OW19224   4.975   2.251   1.841
 5776SOL    HW119225   4.980   2.166   1.884
 5776SOL    HW219226   5.034   2.308   1.891
 5777SOL     OW19227   2.695   4.450   1.568
 5777SOL    HW119228   2.773   4.471   1.618
 5777SOL    HW219229   2.727   4.406   1.490
 5778SOL     OW19230   5.937   1.894   9.590
 5778SOL    HW119231   5.899   1.978   9.616
 5778SOL    HW219232   5.953   1.903   9.496
 5779SOL     OW19233   7.828  14.456   8.356
 5779SOL    HW119234   7.752  14.463   8.297
 5779SOL    HW219235   7.804  14.511   8.431
 5780SOL     OW19236   7.211   0.035   2.641
 5780SOL    HW119237   7.164  14.826   2.670
 5780SOL    HW219238   7.295   0.002   2.610
 5781SOL     OW19239   9.723  13.379   2.665
 5781SOL    HW119240   9.629  13.366   2.682
 5781SOL    HW219241   9.763  13.376   2.752
 5782SOL     OW19242   8.600   6.922  11.940
 5782SOL    HW119243   8.688   6.905  11.907
 5782SOL    HW219244   8.551   6.842  11.921
 5783SOL     OW19245  10.072   2.523   0.712
 5783SOL    HW119246  10.149   2.518   0.769
 5783SOL    HW219247  10.051   2.616   0.708
 5784SOL     OW19248   4.279   1.122   6.867
 5784SOL    HW119249   4.232   1.048   6.829
 5784SOL    HW219250   4.366   1.087   6.887
 5785SOL     OW19251   0.852   5.236   9.145
 5785SOL    HW119252   0.799   5.290   9.203
 5785SOL    HW219253   0.943   5.256   9.170
 5786SOL     OW19254  13.321  13.944   7.762
 5786SOL    HW119255  13.365  13.864   7.731
 5786SOL    HW219256  13.236  13.914   7.793
 5787SOL     OW19257  11.945   0.366   1.702
 5787SOL    HW119258  11.949   0.311   1.780
 5787SOL    HW219259  11.969   0.308   1.630
 5788SOL     OW19260   7.920  10.228  11.999
 5788SOL    HW119261   7.834  10.256  11.968
 5788SOL    HW219262   7.925  10.259  12.090
 5789SOL     OW19263   8.653   4.133   2.294
 5789SOL    HW119264   8.568   4.156   2.332
 5789SOL    HW219265   8.713   4.132   2.368
 5790SOL     OW19266   3.210  10.792   3.047
 5790SOL    HW119267   3.237  10.706   3.080
 5790SOL    HW219268   3.293  10.838   3.031
 5791SOL     OW19269  12.279   6.892   2.943
 5791SOL    HW119270  12.236   6.943   3.011
 5791SOL    HW219271  12.349   6.845   2.988
 5792SOL     OW19272   4.470  13.019   6.893
 5792SOL    HW119273   4.494  12.979   6.809
 5792SOL    HW219274   4.393  13.072   6.873
 5793SOL     OW19275   6.900   6.820   7.047
 5793SOL    HW119276   6.988   6.826   7.083
 5793SOL    HW219277   6.913   6.822   6.952
 5794SOL     OW19278  12.057   5.266  12.735
 5794SOL    HW119279  12.023   5.351  12.763
 5794SOL    HW219280  12.139   5.255  12.784
 5795SOL     OW19281   1.233  13.967   2.918
 5795SOL    HW119282   1.308  13.968   2.978
 5795SOL    HW219283   1.272  13.962   2.831
 5796SOL     OW19284   8.302   4.946   6.481
 5796SOL    HW119285   8.306   4.854   6.454
 5796SOL    HW219286   8.393   4.974   6.486
 5797SOL     OW19287   6.244   5.780   6.491
 5797SOL    HW119288   6.266   5.851   6.430
 5797SOL    HW219289   6.316   5.718   6.481
 5798SOL     OW19290   9.737  10.241   0.121
 5798SOL    HW119291   9.643  10.229   0.105
 5798SOL    HW219292   9.767  10.158   0.156
 5799SOL     OW19293   3.544   9.395   8.586
 5799SOL    HW119294   3.581   9.426   8.504
 5799SOL    HW219295   3.583   9.451   8.653
 5800SOL     OW19296   1.288   7.334   1.561
 5800SOL    HW119297   1.255   7.298   1.643
 5800SOL    HW219298   1.264   7.426   1.564
 5801SOL     OW19299  11.608   6.379  10.505
 5801SOL    HW119300  11.593   6.468  10.537
 5801SOL    HW219301  11.591   6.323  10.580
 5802SOL     OW19302   7.680  14.407   7.564
 5802SOL    HW119303   7.738  14.399   7.488
 5802SOL    HW219304   7.715  14.480   7.614
 5803SOL     OW19305  10.361  11.383   2.200
 5803SOL    HW119306  10.405  11.437   2.265
 5803SOL    HW219307  10.268  11.405   2.209
 5804SOL     OW19308   4.419   8.149  11.651
 5804SOL    HW119309   4.488   8.185  11.595
 5804SOL    HW219310   4.453   8.161  11.740
 5805SOL     OW19311  11.098   5.664   2.132
 5805SOL    HW119312  11.105   5.748   2.087
 5805SOL    HW219313  11.167   5.666   2.199
 5806SOL     OW19314   7.537   7.532   1.042
 5806SOL    HW119315   7.482   7.461   1.007
 5806SOL    HW219316   7.626   7.496   1.042
 5807SOL     OW19317   7.138   5.042  11.411
 5807SOL    HW119318   7.090   4.975  11.362
 5807SOL    HW219319   7.085   5.057  11.489
 5808SOL     OW19320   1.674   7.962   2.755
 5808SOL    HW119321   1.659   8.055   2.771
 5808SOL    HW219322   1.760   7.959   2.713
 5809SOL     OW19323  13.327   6.649   0.102
 5809SOL    HW119324  13.266   6.606   0.043
 5809SOL    HW219325  13.391   6.690   0.044
 5810SOL     OW19326   2.364  11.606  13.657
 5810SOL    HW119327   2.337  11.646  13.740
 5810SOL    HW219328   2.302  11.640  13.593
 5811SOL     OW19329   8.127  14.646   7.695
 5811SOL    HW119330   8.128  14.596   7.776
 5811SOL    HW219331   8.157  14.733   7.719
 5812SOL     OW19332   0.803   4.737   5.358
 5812SOL    HW119333   0.846   4.651   5.357
 5812SOL    HW219334   0.873   4.799   5.338
 5813SOL     OW19335   9.923   9.728   9.452
 5813SOL    HW119336   9.959   9.642   9.429
 5813SOL    HW219337   9.972   9.754   9.530
 5814SOL     OW19338   3.370  11.103  10.007
 5814SOL    HW119339   3.358  11.062  10.093
 5814SOL    HW219340   3.285  11.094   9.964
 5815SOL     OW19341   5.606   0.950   6.454
 5815SOL    HW119342   5.689   0.903   6.451
 5815SOL    HW219343   5.631   1.042   6.466
 5816SOL     OW19344  11.936   3.602   4.320
 5816SOL    HW119345  11.997   3.660   4.275
 5816SOL    HW219346  11.858   3.655   4.334
 5817SOL     OW19347  10.986   2.744   4.146
 5817SOL    HW119348  10.990   2.811   4.215
 5817SOL    HW219349  11.036   2.781   4.074
 5818SOL     OW19350   2.006   3.518  14.188
 5818SOL    HW119351   1.934   3.455  14.195
 5818SOL    HW219352   2.053   3.510  14.271
 5819SOL     OW19353   1.575   4.604  13.302
 5819SOL    HW119354   1.503   4.595  13.240
 5819SOL    HW219355   1.592   4.698  13.306
 5820SOL     OW19356   6.759   9.557   3.133
 5820SOL    HW119357   6.842   9.537   3.176
 5820SOL    HW219358   6.708   9.603   3.200
 5821SOL     OW19359   3.863   7.426  12.861
 5821SOL    HW119360   3.779   7.408  12.904
 5821SOL    HW219361   3.848   7.405  12.769
 5822SOL     OW19362  11.436   9.942  12.435
 5822SOL    HW119363  11.516   9.990  12.416
 5822SOL    HW219364  11.442   9.920  12.528
 5823SOL     OW19365   7.196  11.024  10.382
 5823SOL    HW119366   7.150  10.983  10.455
 5823SOL    HW219367   7.132  11.026  10.311
 5824SOL     OW19368   3.009  11.648   3.766
 5824SOL    HW119369   3.092  11.681   3.801
 5824SOL    HW219370   2.965  11.609   3.841
 5825SOL     OW19371  12.861   4.898   8.588
 5825SOL    HW119372  12.909   4.939   8.660
 5825SOL    HW219373  12.786   4.956   8.574
 5826SOL     OW19374  10.994   7.287   1.148
 5826SOL    HW119375  11.076   7.332   1.128
 5826SOL    HW219376  11.016   7.233   1.224
 5827SOL     OW19377   3.244   9.711   9.690
 5827SOL    HW119378   3.156   9.733   9.720
 5827SOL    HW219379   3.236   9.705   9.595
 5828SOL     OW19380   0.790   5.681   0.680
 5828SOL    HW119381   0.840   5.664   0.600
 5828SOL    HW219382   0.833   5.627   0.746
 5829SOL     OW19383  11.560   2.503  12.858
 5829SOL    HW119384  11.594   2.564  12.793
 5829SOL    HW219385  11.632   2.488  12.918
 5830SOL     OW19386  14.667   4.429  13.505
 5830SOL    HW119387  14.752   4.386  13.496
 5830SOL    HW219388  14.603   4.362  13.482
 5831SOL     OW19389   2.904  10.917   6.882
 5831SOL    HW119390   2.834  10.982   6.874
 5831SOL    HW219391   2.915  10.882   6.794
 5832SOL     OW19392   6.154   3.524   0.371
 5832SOL    HW119393   6.089   3.578   0.326
 5832SOL    HW219394   6.137   3.435   0.342
 5833SOL     OW19395   1.733   2.209   4.921
 5833SOL    HW119396   1.789   2.286   4.907
 5833SOL    HW219397   1.715   2.177   4.832
 5834SOL     OW19398   5.660   8.008  14.691
 5834SOL    HW119399   5.681   8.086  14.640
 5834SOL    HW219400   5.591   7.964  14.640
 5835SOL     OW19401   7.687  13.232  14.122
 5835SOL    HW119402   7.699  13.258  14.213
 5835SOL    HW219403   7.775  13.228  14.085
 5836SOL     OW19404  14.159   9.165   7.088
 5836SOL    HW119405  14.067   9.171   7.114
 5836SOL    HW219406  14.170   9.232   7.021
 5837SOL     OW19407  12.062  10.090   9.090
 5837SOL    HW119408  11.972  10.122   9.098
 5837SOL    HW219409  12.106  10.159   9.041
 5838SOL     OW19410  14.434   3.594   5.369
 5838SOL    HW119411  14.373   3.550   5.428
 5838SOL    HW219412  14.520   3.567   5.399
 5839SOL     OW19413   5.961  14.646  14.865
 5839SOL    HW119414   6.010  14.568   0.020
 5839SOL    HW219415   5.880  14.613  14.826
 5840SOL     OW19416  11.494   9.183   6.730
 5840SOL    HW119417  11.525   9.244   6.797
 5840SOL    HW219418  11.399   9.180   6.742
 5841SOL     OW19419   7.124  12.296   8.544
 5841SOL    HW119420   7.188  12.340   8.600
 5841SOL    HW219421   7.068  12.366   8.511
 5842SOL     OW19422   5.904  10.347   5.382
 5842SOL    HW119423   5.835  10.303   5.431
 5842SOL    HW219424   5.921  10.428   5.430
 5843SOL     OW19425   8.486   1.073   4.358
 5843SOL    HW119426   8.557   1.110   4.411
 5843SOL    HW219427   8.528   1.048   4.276
 5844SOL     OW19428  11.373  12.183   3.862
 5844SOL    HW119429  11.331  12.102   3.891
 5844SOL    HW219430  11.307  12.251   3.876
 5845SOL     OW19431  12.485  11.726  12.026
 5845SOL    HW119432  12.480  11.745  12.120
 5845SOL    HW219433  12.558  11.779  11.994
 5846SOL     OW19434  10.760   4.029   0.979
 5846SOL    HW119435  10.709   4.097   1.024
 5846SOL    HW219436  10.848   4.065   0.972
 5847SOL     OW19437  11.590   0.768   5.592
 5847SOL    HW119438  11.634   0.826   5.530
 5847SOL    HW219439  11.548   0.826   5.655
 5848SOL     OW19440   0.504   9.210  14.467
 5848SOL    HW119441   0.555   9.288  14.492
 5848SOL    HW219442   0.426   9.214  14.522
 5849SOL     OW19443   0.184   3.343   8.710
 5849SOL    HW119444   0.198   3.393   8.790
 5849SOL    HW219445   0.147   3.406   8.648
 5850SOL     OW19446   6.805   9.038   7.694
 5850SOL    HW119447   6.766   9.103   7.753
 5850SOL    HW219448   6.773   9.062   7.607
 5851SOL     OW19449   1.432  13.228  11.609
 5851SOL    HW119450   1.477  13.143  11.613
 5851SOL    HW219451   1.400  13.234  11.519
 5852SOL     OW19452   5.467  10.956   3.763
 5852SOL    HW119453   5.519  11.017   3.712
 5852SOL    HW219454   5.380  10.960   3.723
 5853SOL     OW19455   5.170   7.309   0.215
 5853SOL    HW119456   5.141   7.304   0.124
 5853SOL    HW219457   5.157   7.401   0.240
 5854SOL     OW19458   9.077   2.088   3.469
 5854SOL    HW119459   9.094   2.104   3.376
 5854SOL    HW219460   9.117   2.003   3.486
 5855SOL     OW19461  14.259   5.677  13.879
 5855SOL    HW119462  14.306   5.715  13.952
 5855SOL    HW219463  14.322   5.676  13.807
 5856SOL     OW19464   1.462   5.117   8.611
 5856SOL    HW119465   1.500   5.100   8.525
 5856SOL    HW219466   1.368   5.107   8.599
 5857SOL     OW19467   6.915   7.129   0.609
 5857SOL    HW119468   6.914   7.072   0.686
 5857SOL    HW219469   6.827   7.120   0.572
 5858SOL     OW19470  11.577   2.203  11.351
 5858SOL    HW119471  11.522   2.205  11.430
 5858SOL    HW219472  11.546   2.127  11.302
 5859SOL     OW19473   8.548  13.580  12.239
 5859SOL    HW119474   8.630  13.609  12.198
 5859SOL    HW219475   8.489  13.655  12.230
 5860SOL     OW19476  10.018  12.605   1.734
 5860SOL    HW119477   9.997  12.592   1.642
 5860SOL    HW219478  10.011  12.700   1.747
 5861SOL     OW19479   2.827   4.355   0.378
 5861SOL    HW119480   2.899   4.396   0.330
 5861SOL    HW219481   2.830   4.396   0.465
 5862SOL     OW19482  14.152   7.187   0.212
 5862SOL    HW119483  14.102   7.192   0.131
 5862SOL    HW219484  14.164   7.278   0.239
 5863SOL     OW19485   3.154   3.084  12.121
 5863SOL    HW119486   3.143   3.047  12.033
 5863SOL    HW219487   3.172   3.177  12.106
 5864SOL     OW19488   4.244   1.333   9.196
 5864SOL    HW119489   4.306   1.265   9.224
 5864SOL    HW219490   4.268   1.410   9.246
 5865SOL     OW19491  11.940   2.510   9.541
 5865SOL    HW119492  11.926   2.604   9.542
 5865SOL    HW219493  11.957   2.489   9.449
 5866SOL     OW19494  12.057   9.532   0.771
 5866SOL    HW119495  12.105   9.580   0.703
 5866SOL    HW219496  11.997   9.476   0.722
 5867SOL     OW19497   9.605   3.778  14.640
 5867SOL    HW119498   9.647   3.762  14.555
 5867SOL    HW219499   9.678   3.791  14.700
 5868SOL     OW19500   0.982   3.750   0.011
 5868SOL    HW119501   0.887   3.761   0.011
 5868SOL    HW219502   1.004   3.725   0.101
 5869SOL     OW19503   4.202  14.159   4.680
 5869SOL    HW119504   4.122  14.147   4.628
 5869SOL    HW219505   4.191  14.101   4.755
 5870SOL     OW19506  10.328   6.878  14.668
 5870SOL    HW119507  10.238   6.868  14.639
 5870SOL    HW219508  10.365   6.946  14.611
 5871SOL     OW19509  13.914   7.823  11.870
 5871SOL    HW119510  13.821   7.806  11.883
 5871SOL    HW219511  13.927   7.811  11.776
 5872SOL     OW19512   0.450  11.851  14.544
 5872SOL    HW119513   0.516  11.827  14.609
 5872SOL    HW219514   0.496  11.850  14.461
 5873SOL     OW19515   6.219   5.084   7.176
 5873SOL    HW119516   6.129   5.118   7.170
 5873SOL    HW219517   6.207   4.990   7.189
 5874SOL     OW19518  14.631   3.282   3.377
 5874SOL    HW119519  14.590   3.261   3.293
 5874SOL    HW219520  14.561   3.271   3.442
 5875SOL     OW19521   8.538   2.404  10.980
 5875SOL    HW119522   8.547   2.495  10.952
 5875SOL    HW219523   8.515   2.410  11.073
 5876SOL     OW19524   5.418  14.089  10.357
 5876SOL    HW119525   5.357  14.063  10.288
 5876SOL    HW219526   5.375  14.163  10.400
 5877SOL     OW19527  14.437   3.148   8.029
 5877SOL    HW119528  14.413   3.194   8.109
 5877SOL    HW219529  14.364   3.088   8.012
 5878SOL     OW19530   4.531  10.613   0.234
 5878SOL    HW119531   4.610  10.642   0.188
 5878SOL    HW219532   4.458  10.646   0.180
 5879SOL     OW19533   7.257   2.976   5.907
 5879SOL    HW119534   7.240   2.887   5.937
 5879SOL    HW219535   7.172   3.007   5.876
 5880SOL     OW19536   5.818   9.231   5.809
 5880SOL    HW119537   5.886   9.164   5.820
 5880SOL    HW219538   5.840   9.298   5.874
 5881SOL     OW19539  11.025   3.348   1.797
 5881SOL    HW119540  10.966   3.293   1.848
 5881SOL    HW219541  11.107   3.346   1.846
 5882SOL     OW19542   0.298   6.872  14.393
 5882SOL    HW119543   0.361   6.896  14.461
 5882SOL    HW219544   0.343   6.891  14.311
 5883SOL     OW19545  10.253  12.109   9.945
 5883SOL    HW119546  10.345  12.090   9.931
 5883SOL    HW219547  10.218  12.032   9.990
 5884SOL     OW19548   6.728   0.174   1.127
 5884SOL    HW119549   6.647   0.208   1.165
 5884SOL    HW219550   6.735   0.085   1.161
 5885SOL     OW19551   5.505  12.459  10.518
 5885SOL    HW119552   5.567  12.388  10.535
 5885SOL    HW219553   5.436  12.446  10.583
 5886SOL     OW19554  14.321  13.908   7.095
 5886SOL    HW119555  14.325  13.935   7.003
 5886SOL    HW219556  14.247  13.849   7.100
 5887SOL     OW19557  11.842   1.023   1.851
 5887SOL    HW119558  11.788   0.991   1.923
 5887SOL    HW219559  11.930   0.990   1.871
 5888SOL     OW19560   5.180   1.963  11.990
 5888SOL    HW119561   5.136   1.946  11.907
 5888SOL    HW219562   5.173   2.058  12.002
 5889SOL     OW19563   3.262  11.677   3.526
 5889SOL    HW119564   3.304  11.760   3.506
 5889SOL    HW219565   3.286  11.658   3.616
 5890SOL     OW19566   0.620  12.842   1.285
 5890SOL    HW119567   0.575  12.765   1.250
 5890SOL    HW219568   0.696  12.854   1.229
 5891SOL     OW19569   4.869   8.611   9.372
 5891SOL    HW119570   4.963   8.625   9.358
 5891SOL    HW219571   4.844   8.677   9.437
 5892SOL     OW19572   2.553   9.618   2.312
 5892SOL    HW119573   2.519   9.532   2.290
 5892SOL    HW219574   2.595   9.607   2.397
 5893SOL     OW19575  14.708   5.124  14.262
 5893SOL    HW119576  14.677   5.213  14.247
 5893SOL    HW219577  14.717   5.117  14.357
 5894SOL     OW19578   0.069   8.879   8.999
 5894SOL    HW119579   0.059   8.817   9.071
 5894SOL    HW219580   0.156   8.917   9.011
 5895SOL     OW19581   2.999   0.912   8.540
 5895SOL    HW119582   2.993   0.998   8.499
 5895SOL    HW219583   3.077   0.872   8.500
 5896SOL     OW19584   9.891  10.358   6.562
 5896SOL    HW119585   9.825  10.383   6.627
 5896SOL    HW219586   9.974  10.388   6.599
 5897SOL     OW19587  12.701   4.062   8.692
 5897SOL    HW119588  12.681   4.048   8.784
 5897SOL    HW219589  12.645   4.136   8.666
 5898SOL     OW19590  10.799  10.624   0.101
 5898SOL    HW119591  10.885  10.584   0.098
 5898SOL    HW219592  10.816  10.719   0.103
 5899SOL     OW19593   5.929  10.465   7.265
 5899SOL    HW119594   5.943  10.382   7.312
 5899SOL    HW219595   5.895  10.438   7.179
 5900SOL     OW19596   8.485   9.267   3.486
 5900SOL    HW119597   8.543   9.337   3.456
 5900SOL    HW219598   8.420   9.312   3.540
 5901SOL     OW19599  10.054   7.337   7.235
 5901SOL    HW119600  10.070   7.359   7.143
 5901SOL    HW219601  10.136   7.356   7.280
 5902SOL     OW19602  12.893   5.569  10.536
 5902SOL    HW119603  12.959   5.631  10.505
 5902SOL    HW219604  12.816   5.585  10.481
 5903SOL     OW19605  13.168   9.370   8.234
 5903SOL    HW119606  13.182   9.395   8.325
 5903SOL    HW219607  13.241   9.311   8.214
 5904SOL     OW19608  11.120   3.761   7.191
 5904SOL    HW119609  11.097   3.806   7.272
 5904SOL    HW219610  11.143   3.831   7.130
 5905SOL     OW19611  10.722  12.720   4.403
 5905SOL    HW119612  10.690  12.809   4.416
 5905SOL    HW219613  10.736  12.712   4.308
 5906SOL     OW19614   9.233   0.774   6.190
 5906SOL    HW119615   9.211   0.762   6.098
 5906SOL    HW219616   9.314   0.824   6.189
 5907SOL     OW19617   3.178  14.175   4.470
 5907SOL    HW119618   3.156  14.123   4.393
 5907SOL    HW219619   3.273  14.176   4.473
 5908SOL     OW19620   2.663  12.641   6.757
 5908SOL    HW119621   2.628  12.575   6.817
 5908SOL    HW219622   2.738  12.678   6.803
 5909SOL     OW19623   2.766   8.997  10.186
 5909SOL    HW119624   2.703   8.927  10.175
 5909SOL    HW219625   2.744   9.037  10.270
 5910SOL     OW19626   2.236   3.276   0.954
 5910SOL    HW119627   2.185   3.224   1.017
 5910SOL    HW219628   2.170   3.327   0.907
 5911SOL     OW19629   6.679   2.832   5.336
 5911SOL    HW119630   6.628   2.909   5.361
 5911SOL    HW219631   6.708   2.851   5.247
 5912SOL     OW19632   4.177  11.962   2.171
 5912SOL    HW119633   4.251  12.004   2.128
 5912SOL    HW219634   4.111  11.953   2.102
 5913SOL     OW19635  10.300   1.799   1.801
 5913SOL    HW119636  10.288   1.735   1.730
 5913SOL    HW219637  10.284   1.749   1.881
 5914SOL     OW19638  10.047   2.292   4.148
 5914SOL    HW119639   9.953   2.282   4.159
 5914SOL    HW219640  10.057   2.335   4.063
 5915SOL     OW19641  11.216   9.181   6.757
 5915SOL    HW119642  11.170   9.252   6.710
 5915SOL    HW219643  11.167   9.171   6.838
 5916SOL     OW19644  14.162  14.492  12.050
 5916SOL    HW119645  14.092  14.535  12.099
 5916SOL    HW219646  14.215  14.564  12.016
 5917SOL     OW19647   1.862   6.310   9.153
 5917SOL    HW119648   1.795   6.318   9.086
 5917SOL    HW219649   1.921   6.242   9.121
 5918SOL     OW19650  13.359   3.260   6.212
 5918SOL    HW119651  13.345   3.240   6.119
 5918SOL    HW219652  13.311   3.191   6.258
 5919SOL     OW19653   4.415   9.554  12.960
 5919SOL    HW119654   4.422   9.466  12.996
 5919SOL    HW219655   4.505   9.579  12.939
 5920SOL     OW19656  14.251  10.486  12.067
 5920SOL    HW119657  14.285  10.427  11.999
 5920SOL    HW219658  14.290  10.571  12.046
 5921SOL     OW19659  11.626  10.286  11.061
 5921SOL    HW119660  11.536  10.260  11.080
 5921SOL    HW219661  11.673  10.204  11.048
 5922SOL     OW19662  13.810  14.348   1.338
 5922SOL    HW119663  13.774  14.264   1.311
 5922SOL    HW219664  13.808  14.346   1.433
 5923SOL     OW19665   4.907   7.072   1.469
 5923SOL    HW119666   4.857   7.010   1.416
 5923SOL    HW219667   4.988   7.086   1.421
 5924SOL     OW19668  11.823   1.074  12.770
 5924SOL    HW119669  11.732   1.098  12.789
 5924SOL    HW219670  11.818   1.025  12.688
 5925SOL     OW19671  11.262   4.169   2.430
 5925SOL    HW119672  11.313   4.248   2.451
 5925SOL    HW219673  11.239   4.179   2.338
 5926SOL     OW19674  13.677   4.034   2.146
 5926SOL    HW119675  13.712   3.959   2.196
 5926SOL    HW219676  13.599   3.999   2.103
 5927SOL     OW19677   5.067   8.054   7.815
 5927SOL    HW119678   5.078   8.022   7.905
 5927SOL    HW219679   5.047   7.975   7.765
 5928SOL     OW19680   2.523  10.506  12.192
 5928SOL    HW119681   2.569  10.450  12.129
 5928SOL    HW219682   2.450  10.453  12.222
 5929SOL     OW19683   8.014  13.006   3.742
 5929SOL    HW119684   8.015  13.059   3.822
 5929SOL    HW219685   8.095  12.955   3.746
 5930SOL     OW19686  12.918   7.641  12.112
 5930SOL    HW119687  12.909   7.676  12.201
 5930SOL    HW219688  12.896   7.549  12.119
 5931SOL     OW19689   8.786   3.183   0.577
 5931SOL    HW119690   8.842   3.258   0.554
 5931SOL    HW219691   8.760   3.146   0.492
 5932SOL     OW19692   5.101  11.421   8.635
 5932SOL    HW119693   5.032  11.481   8.608
 5932SOL    HW219694   5.056  11.342   8.664
 5933SOL     OW19695  11.848   9.459   9.694
 5933SOL    HW119696  11.896   9.525   9.746
 5933SOL    HW219697  11.901   9.449   9.615
 5934SOL     OW19698   5.133  13.016   8.220
 5934SOL    HW119699   5.092  13.101   8.238
 5934SOL    HW219700   5.103  12.960   8.292
 5935SOL     OW19701  11.471   0.066   5.476
 5935SOL    HW119702  11.565   0.060   5.458
 5935SOL    HW219703  11.450   0.159   5.468
 5936SOL     OW19704   5.677   6.258   8.360
 5936SOL    HW119705   5.743   6.316   8.321
 5936SOL    HW219706   5.697   6.259   8.453
 5937SOL     OW19707  10.174   5.102  11.923
 5937SOL    HW119708  10.107   5.078  11.988
 5937SOL    HW219709  10.214   5.019  11.899
 5938SOL     OW19710   9.226  12.711   6.659
 5938SOL    HW119711   9.197  12.746   6.575
 5938SOL    HW219712   9.321  12.725   6.660
 5939SOL     OW19713   1.742  11.793   2.330
 5939SOL    HW119714   1.769  11.786   2.422
 5939SOL    HW219715   1.801  11.732   2.284
 5940SOL     OW19716  10.340   5.556   8.100
 5940SOL    HW119717  10.258   5.517   8.132
 5940SOL    HW219718  10.404   5.486   8.110
 5941SOL     OW19719  11.090   2.861   6.008
 5941SOL    HW119720  11.074   2.943   6.055
 5941SOL    HW219721  11.135   2.887   5.928
 5942SOL     OW19722   0.739   0.273   8.660
 5942SOL    HW119723   0.743   0.296   8.752
 5942SOL    HW219724   0.653   0.303   8.631
 5943SOL     OW19725   9.275   2.923   0.824
 5943SOL    HW119726   9.349   2.984   0.832
 5943SOL    HW219727   9.240   2.916   0.912
 5944SOL     OW19728   9.101   8.717   9.855
 5944SOL    HW119729   9.051   8.661   9.796
 5944SOL    HW219730   9.180   8.739   9.805
 5945SOL     OW19731  13.138   0.967   8.766
 5945SOL    HW119732  13.183   0.965   8.682
 5945SOL    HW219733  13.045   0.974   8.743
 5946SOL     OW19734   1.241  11.164   8.763
 5946SOL    HW119735   1.195  11.081   8.777
 5946SOL    HW219736   1.172  11.230   8.769
 5947SOL     OW19737   4.869   6.535   9.870
 5947SOL    HW119738   4.951   6.518   9.917
 5947SOL    HW219739   4.809   6.466   9.901
 5948SOL     OW19740   8.410   9.291   6.844
 5948SOL    HW119741   8.379   9.366   6.895
 5948SOL    HW219742   8.505   9.303   6.840
 5949SOL     OW19743   2.401   6.683  11.059
 5949SOL    HW119744   2.420   6.641  10.975
 5949SOL    HW219745   2.427   6.618  11.124
 5950SOL     OW19746   6.047   2.184   9.285
 5950SOL    HW119747   6.121   2.197   9.344
 5950SOL    HW219748   6.086   2.179   9.197
 5951SOL     OW19749   5.625   9.228   8.789
 5951SOL    HW119750   5.563   9.299   8.808
 5951SOL    HW219751   5.711   9.270   8.788
 5952SOL     OW19752   9.968  12.820   0.685
 5952SOL    HW119753  10.014  12.774   0.756
 5952SOL    HW219754   9.876  12.819   0.712
 5953SOL     OW19755   2.551  13.309  12.838
 5953SOL    HW119756   2.598  13.305  12.922
 5953SOL    HW219757   2.466  13.348  12.860
 5954SOL     OW19758  14.430  12.572   6.202
 5954SOL    HW119759  14.402  12.623   6.278
 5954SOL    HW219760  14.348  12.550   6.157
 5955SOL     OW19761   6.570  10.303   6.546
 5955SOL    HW119762   6.578  10.207   6.549
 5955SOL    HW219763   6.629  10.334   6.615
 5956SOL     OW19764   4.871   8.165  13.341
 5956SOL    HW119765   4.887   8.092  13.401
 5956SOL    HW219766   4.957   8.201  13.323
 5957SOL     OW19767   0.528   8.321  12.433
 5957SOL    HW119768   0.611   8.300  12.390
 5957SOL    HW219769   0.461   8.293  12.370
 5958SOL     OW19770   2.524  11.712  10.852
 5958SOL    HW119771   2.493  11.718  10.762
 5958SOL    HW219772   2.608  11.666  10.845
 5959SOL     OW19773   1.244   5.072  12.229
 5959SOL    HW119774   1.255   5.166  12.239
 5959SOL    HW219775   1.202   5.061  12.144
 5960SOL     OW19776   7.123  13.269   0.925
 5960SOL    HW119777   7.041  13.225   0.945
 5960SOL    HW219778   7.150  13.309   1.007
 5961SOL     OW19779   1.614  11.277   9.828
 5961SOL    HW119780   1.565  11.291   9.747
 5961SOL    HW219781   1.706  11.291   9.802
 5962SOL     OW19782   3.903   1.875   4.017
 5962SOL    HW119783   3.932   1.837   3.933
 5962SOL    HW219784   3.941   1.817   4.083
 5963SOL     OW19785   2.777   6.640   9.966
 5963SOL    HW119786   2.814   6.591  10.040
 5963SOL    HW219787   2.851   6.653   9.906
 5964SOL     OW19788   5.685  10.117   7.958
 5964SOL    HW119789   5.726  10.095   7.875
 5964SOL    HW219790   5.702  10.210   7.971
 5965SOL     OW19791   2.763   0.035   5.093
 5965SOL    HW119792   2.810  14.858   5.161
 5965SOL    HW219793   2.804   0.008   5.011
 5966SOL     OW19794   4.559   0.956  12.447
 5966SOL    HW119795   4.486   0.954  12.509
 5966SOL    HW219796   4.517   0.953  12.361
 5967SOL     OW19797  14.687  12.752   7.028
 5967SOL    HW119798  14.730  12.751   7.114
 5967SOL    HW219799  14.611  12.695   7.038
 5968SOL     OW19800   3.859   4.655  12.309
 5968SOL    HW119801   3.918   4.730  12.314
 5968SOL    HW219802   3.772   4.694  12.300
 5969SOL     OW19803   2.939   8.819   7.821
 5969SOL    HW119804   2.874   8.749   7.811
 5969SOL    HW219805   2.958   8.847   7.732
 5970SOL     OW19806   8.083   5.973  12.046
 5970SOL    HW119807   8.161   5.949  11.994
 5970SOL    HW219808   8.094   5.926  12.128
 5971SOL     OW19809   5.242   7.161  13.913
 5971SOL    HW119810   5.330   7.138  13.886
 5971SOL    HW219811   5.202   7.077  13.939
 5972SOL     OW19812  13.426   8.409  13.464
 5972SOL    HW119813  13.394   8.489  13.504
 5972SOL    HW219814  13.348   8.366  13.430
 5973SOL     OW19815   8.308   0.288   8.910
 5973SOL    HW119816   8.252   0.341   8.854
 5973SOL    HW219817   8.310   0.202   8.868
 5974SOL     OW19818  14.830   0.889   0.006
 5974SOL    HW119819  14.762   0.938   0.051
 5974SOL    HW219820   0.008   0.955  14.825
 5975SOL     OW19821   0.443  12.236   7.141
 5975SOL    HW119822   0.498  12.288   7.083
 5975SOL    HW219823   0.451  12.279   7.227
 5976SOL     OW19824  12.205  13.003   4.752
 5976SOL    HW119825  12.175  13.069   4.814
 5976SOL    HW219826  12.289  12.973   4.788
 5977SOL     OW19827   3.222   5.508   2.687
 5977SOL    HW119828   3.135   5.531   2.656
 5977SOL    HW219829   3.217   5.415   2.709
 5978SOL     OW19830   9.785  11.670   2.272
 5978SOL    HW119831   9.857  11.679   2.210
 5978SOL    HW219832   9.793  11.746   2.329
 5979SOL     OW19833  12.938   8.203   2.246
 5979SOL    HW119834  12.935   8.114   2.211
 5979SOL    HW219835  12.846   8.229   2.254
 5980SOL     OW19836   9.151  11.067   2.487
 5980SOL    HW119837   9.130  11.045   2.577
 5980SOL    HW219838   9.234  11.115   2.493
 5981SOL     OW19839   5.238  12.418   5.346
 5981SOL    HW119840   5.331  12.401   5.332
 5981SOL    HW219841   5.202  12.427   5.258
 5982SOL     OW19842   6.445   8.021   0.682
 5982SOL    HW119843   6.360   8.065   0.670
 5982SOL    HW219844   6.455   7.967   0.604
 5983SOL     OW19845   1.184   4.943   0.440
 5983SOL    HW119846   1.220   5.031   0.428
 5983SOL    HW219847   1.104   4.943   0.388
 5984SOL     OW19848   9.958   8.777   4.048
 5984SOL    HW119849   9.996   8.864   4.035
 5984SOL    HW219850   9.881   8.792   4.102
 5985SOL     OW19851   0.667  10.084   5.578
 5985SOL    HW119852   0.577  10.107   5.602
 5985SOL    HW219853   0.668   9.988   5.578
 5986SOL     OW19854   9.931  13.653  12.222
 5986SOL    HW119855   9.965  13.710  12.291
 5986SOL    HW219856   9.836  13.669  12.222
 5987SOL     OW19857  12.223  13.488   2.923
 5987SOL    HW119858  12.233  13.495   2.828
 5987SOL    HW219859  12.312  13.484   2.957
 5988SOL     OW19860   4.148   9.369   9.839
 5988SOL    HW119861   4.186   9.316   9.770
 5988SOL    HW219862   4.195   9.452   9.835
 5989SOL     OW19863   5.508   1.012   5.354
 5989SOL    HW119864   5.416   0.996   5.371
 5989SOL    HW219865   5.526   1.098   5.393
 5990SOL     OW19866   6.248   5.421  10.114
 5990SOL    HW119867   6.330   5.469  10.109
 5990SOL    HW219868   6.233   5.389  10.025
 5991SOL     OW19869   1.899   5.011  14.376
 5991SOL    HW119870   1.935   4.952  14.310
 5991SOL    HW219871   1.839   4.957  14.427
 5992SOL     OW19872  14.634  13.798   7.767
 5992SOL    HW119873  14.573  13.725   7.774
 5992SOL    HW219874  14.580  13.876   7.779
 5993SOL     OW19875  11.882  12.312   6.104
 5993SOL    HW119876  11.819  12.242   6.124
 5993SOL    HW219877  11.891  12.360   6.187
 5994SOL     OW19878   4.525   5.295  13.915
 5994SOL    HW119879   4.528   5.380  13.958
 5994SOL    HW219880   4.608   5.289  13.867
 5995SOL     OW19881  12.944  12.515   1.432
 5995SOL    HW119882  12.924  12.514   1.339
 5995SOL    HW219883  12.890  12.446   1.470
 5996SOL     OW19884   3.864  13.300  11.189
 5996SOL    HW119885   3.886  13.255  11.107
 5996SOL    HW219886   3.770  13.286  11.200
 5997SOL     OW19887   1.338   6.647   8.929
 5997SOL    HW119888   1.321   6.555   8.950
 5997SOL    HW219889   1.290   6.662   8.848
 5998SOL     OW19890  12.054   3.177   4.082
 5998SOL    HW119891  12.014   3.104   4.034
 5998SOL    HW219892  12.030   3.162   4.173
 5999SOL     OW19893   1.437  10.739  11.113
 5999SOL    HW119894   1.503  10.671  11.098
 5999SOL    HW219895   1.405  10.761  11.025
 6000SOL     OW19896   9.607   6.216   0.810
 6000SOL    HW119897   9.620   6.308   0.786
 6000SOL    HW219898   9.534   6.188   0.755
 6001SOL     OW19899   4.396   4.942   0.838
 6001SOL    HW119900   4.465   4.980   0.784
 6001SOL    HW219901   4.319   4.940   0.782
 6002SOL     OW19902  11.694   1.289   6.526
 6002SOL    HW119903  11.767   1.234   6.554
 6002SOL    HW219904  11.688   1.273   6.431
 6003SOL     OW19905   2.341   7.111  11.556
 6003SOL    HW119906   2.379   7.166  11.624
 6003SOL    HW219907   2.325   7.027  11.598
 6004SOL     OW19908   5.382   5.062   1.208
 6004SOL    HW119909   5.376   4.992   1.273
 6004SOL    HW219910   5.387   5.142   1.259
 6005SOL     OW19911   6.575  12.989   4.451
 6005SOL    HW119912   6.488  12.952   4.433
 6005SOL    HW219913   6.573  13.076   4.411
 6006SOL     OW19914   9.483   9.442   1.747
 6006SOL    HW119915   9.423   9.437   1.672
 6006SOL    HW219916   9.548   9.507   1.721
 6007SOL     OW19917  14.680   4.675  14.670
 6007SOL    HW119918  14.752   4.733  14.646
 6007SOL    HW219919  14.632   4.660  14.589
 6008SOL     OW19920   0.113   6.655  11.490
 6008SOL    HW119921   0.159   6.574  11.468
 6008SOL    HW219922   0.170   6.725  11.457
 6009SOL     OW19923  13.207  13.116   3.635
 6009SOL    HW119924  13.160  13.198   3.654
 6009SOL    HW219925  13.139  13.049   3.632
 6010SOL     OW19926   3.305   6.806   7.379
 6010SOL    HW119927   3.390   6.842   7.406
 6010SOL    HW219928   3.242   6.845   7.439
 6011SOL     OW19929   7.914   8.144  14.437
 6011SOL    HW119930   7.987   8.090  14.467
 6011SOL    HW219931   7.955   8.224  14.404
 6012SOL     OW19932   4.963   5.920   0.978
 6012SOL    HW119933   4.996   5.897   1.065
 6012SOL    HW219934   4.996   6.009   0.963
 6013SOL     OW19935   9.893  13.971   2.728
 6013SOL    HW119936   9.936  14.036   2.784
 6013SOL    HW219937   9.910  14.001   2.639
 6014SOL     OW19938  13.949   9.017   3.303
 6014SOL    HW119939  13.855   9.023   3.290
 6014SOL    HW219940  13.978   9.107   3.317
 6015SOL     OW19941  14.187   5.995   5.997
 6015SOL    HW119942  14.161   5.972   6.086
 6015SOL    HW219943  14.225   6.082   6.005
 6016SOL     OW19944   4.544   0.511  14.329
 6016SOL    HW119945   4.505   0.441  14.383
 6016SOL    HW219946   4.573   0.576  14.393
 6017SOL     OW19947  14.275   4.968   8.139
 6017SOL    HW119948  14.323   4.990   8.219
 6017SOL    HW219949  14.266   4.873   8.141
 6018SOL     OW19950   5.179   3.827  14.830
 6018SOL    HW119951   5.160   3.875  14.749
 6018SOL    HW219952   5.208   3.895   0.022
 6019SOL     OW19953  14.868   8.889  10.805
 6019SOL    HW119954   0.049   8.966  10.831
 6019SOL    HW219955   0.039   8.816  10.853
 6020SOL     OW19956   5.803   7.888  11.058
 6020SOL    HW119957   5.746   7.927  11.125
 6020SOL    HW219958   5.790   7.943  10.981
 6021SOL     OW19959   9.436   4.416  10.971
 6021SOL    HW119960   9.411   4.385  11.058
 6021SOL    HW219961   9.444   4.511  10.981
 6022SOL     OW19962   9.178   5.788   8.163
 6022SOL    HW119963   9.088   5.816   8.175
 6022SOL    HW219964   9.199   5.738   8.243
 6023SOL     OW19965   2.440   2.419   4.798
 6023SOL    HW119966   2.508   2.374   4.748
 6023SOL    HW219967   2.434   2.506   4.759
 6024SOL     OW19968  14.195  12.670   7.626
 6024SOL    HW119969  14.273  12.701   7.673
 6024SOL    HW219970  14.146  12.621   7.692
 6025SOL     OW19971   4.065   4.699   9.430
 6025SOL    HW119972   3.984   4.652   9.408
 6025SOL    HW219973   4.048   4.789   9.403
 6026SOL     OW19974  14.535  12.632   9.926
 6026SOL    HW119975  14.561  12.542   9.944
 6026SOL    HW219976  14.560  12.681  10.005
 6027SOL     OW19977  12.508   3.872  14.799
 6027SOL    HW119978  12.446   3.912  14.860
 6027SOL    HW219979  12.564   3.944  14.771
 6028SOL     OW19980   0.621   4.088   0.688
 6028SOL    HW119981   0.656   4.068   0.602
 6028SOL    HW219982   0.608   4.183   0.687
 6029SOL     OW19983  11.384  11.497   8.375
 6029SOL    HW119984  11.296  11.490   8.412
 6029SOL    HW219985  11.441  11.502   8.451
 6030SOL     OW19986   1.747   6.401   3.993
 6030SOL    HW119987   1.814   6.454   3.952
 6030SOL    HW219988   1.664   6.441   3.965
 6031SOL     OW19989  14.853   9.806   9.924
 6031SOL    HW119990  14.867   9.852  10.007
 6031SOL    HW219991  14.813   9.723   9.949
 6032SOL     OW19992   8.973   4.575   0.793
 6032SOL    HW119993   8.992   4.658   0.749
 6032SOL    HW219994   8.891   4.590   0.839
 6033SOL     OW19995   8.045   0.170  12.132
 6033SOL    HW119996   8.043   0.179  12.227
 6033SOL    HW219997   8.133   0.196  12.107
 6034SOL     OW19998   7.863   4.302   4.457
 6034SOL    HW119999   7.820   4.271   4.537
 6034SOL    HW220000   7.908   4.225   4.422
 6035SOL     OW20001  10.291  12.316   2.921
 6035SOL    HW120002  10.386  12.312   2.909
 6035SOL    HW220003  10.273  12.407   2.941
 6036SOL     OW20004   3.055   2.901   0.220
 6036SOL    HW120005   3.101   2.983   0.241
 6036SOL    HW220006   2.978   2.903   0.276
 6037SOL     OW20007   3.220   4.535  12.724
 6037SOL    HW120008   3.201   4.444  12.744
 6037SOL    HW220009   3.200   4.582  12.805
 6038SOL     OW20010   0.468   4.589  10.080
 6038SOL    HW120011   0.453   4.530  10.006
 6038SOL    HW220012   0.520   4.660  10.043
 6039SOL     OW20013  13.277   8.861   9.326
 6039SOL    HW120014  13.301   8.781   9.280
 6039SOL    HW220015  13.231   8.914   9.261
 6040SOL     OW20016   4.470   9.603   1.673
 6040SOL    HW120017   4.390   9.641   1.710
 6040SOL    HW220018   4.540   9.639   1.727
 6041SOL     OW20019   3.688   0.185   9.276
 6041SOL    HW120020   3.668   0.170   9.183
 6041SOL    HW220021   3.616   0.240   9.307
 6042SOL     OW20022   6.487  14.313   2.507
 6042SOL    HW120023   6.434  14.325   2.428
 6042SOL    HW220024   6.545  14.240   2.485
 6043SOL     OW20025   9.207   1.001   1.840
 6043SOL    HW120026   9.186   0.924   1.892
 6043SOL    HW220027   9.303   1.004   1.838
 6044SOL     OW20028   1.483  13.915  10.338
 6044SOL    HW120029   1.424  13.857  10.290
 6044SOL    HW220030   1.426  13.969  10.392
 6045SOL     OW20031   9.925  14.567   6.663
 6045SOL    HW120032   9.846  14.548   6.612
 6045SOL    HW220033   9.973  14.631   6.610
 6046SOL     OW20034   3.562   1.379   9.544
 6046SOL    HW120035   3.524   1.343   9.463
 6046SOL    HW220036   3.634   1.320   9.565
 6047SOL     OW20037  12.571   2.700   5.178
 6047SOL    HW120038  12.561   2.630   5.242
 6047SOL    HW220039  12.499   2.686   5.116
 6048SOL     OW20040  10.113   4.549   2.732
 6048SOL    HW120041  10.156   4.515   2.654
 6048SOL    HW220042  10.182   4.597   2.779
 6049SOL     OW20043   4.244   1.766  13.385
 6049SOL    HW120044   4.262   1.846  13.434
 6049SOL    HW220045   4.165   1.731  13.426
 6050SOL     OW20046  13.296   0.174   1.433
 6050SOL    HW120047  13.234   0.125   1.378
 6050SOL    HW220048  13.362   0.205   1.372
 6051SOL     OW20049   6.698   6.718   8.939
 6051SOL    HW120050   6.756   6.716   9.016
 6051SOL    HW220051   6.648   6.798   8.949
 6052SOL     OW20052   4.402   7.374   7.858
 6052SOL    HW120053   4.438   7.289   7.882
 6052SOL    HW220054   4.468   7.437   7.887
 6053SOL     OW20055  13.856  13.421  14.406
 6053SOL    HW120056  13.883  13.493  14.464
 6053SOL    HW220057  13.914  13.349  14.430
 6054SOL     OW20058   6.375  10.343   3.539
 6054SOL    HW120059   6.471  10.345   3.540
 6054SOL    HW220060   6.351  10.419   3.487
 6055SOL     OW20061   6.349   9.917   1.609
 6055SOL    HW120062   6.368   9.893   1.700
 6055SOL    HW220063   6.293   9.994   1.616
 6056SOL     OW20064  13.308   9.663  11.628
 6056SOL    HW120065  13.304   9.624  11.715
 6056SOL    HW220066  13.380   9.725  11.632
 6057SOL     OW20067  12.734  10.998   2.920
 6057SOL    HW120068  12.808  11.033   2.970
 6057SOL    HW220069  12.721  10.910   2.956
 6058SOL     OW20070   0.202   7.752   9.601
 6058SOL    HW120071   0.218   7.679   9.541
 6058SOL    HW220072   0.112   7.739   9.631
 6059SOL     OW20073   1.915   9.349  10.195
 6059SOL    HW120074   1.990   9.326  10.140
 6059SOL    HW220075   1.895   9.439  10.172
 6060SOL     OW20076  10.225   7.228   4.333
 6060SOL    HW120077  10.160   7.225   4.263
 6060SOL    HW220078  10.309   7.240   4.288
 6061SOL     OW20079   1.473   2.129   6.776
 6061SOL    HW120080   1.566   2.154   6.783
 6061SOL    HW220081   1.465   2.049   6.828
 6062SOL     OW20082   4.887   1.265   0.823
 6062SOL    HW120083   4.968   1.226   0.792
 6062SOL    HW220084   4.915   1.334   0.884
 6063SOL     OW20085   3.540   9.467   9.529
 6063SOL    HW120086   3.598   9.532   9.568
 6063SOL    HW220087   3.538   9.396   9.593
 6064SOL     OW20088  11.074   1.580   7.044
 6064SOL    HW120089  11.060   1.670   7.075
 6064SOL    HW220090  11.078   1.588   6.948
 6065SOL     OW20091  10.298   2.812  14.655
 6065SOL    HW120092  10.202   2.814  14.646
 6065SOL    HW220093  10.329   2.785  14.569
 6066SOL     OW20094   5.551   6.938   0.678
 6066SOL    HW120095   5.484   6.870   0.683
 6066SOL    HW220096   5.630   6.896   0.711
 6067SOL     OW20097  13.053  14.783  12.636
 6067SOL    HW120098  13.141  14.744  12.641
 6067SOL    HW220099  12.994  14.708  12.642
 6068SOL     OW20100   9.171   6.914  11.846
 6068SOL    HW120101   9.158   7.006  11.866
 6068SOL    HW220102   9.163   6.909  11.751
 6069SOL     OW20103  13.768   5.300  12.376
 6069SOL    HW120104  13.823   5.224  12.358
 6069SOL    HW220105  13.749   5.294  12.470
 6070SOL     OW20106  14.660   1.309   4.418
 6070SOL    HW120107  14.650   1.379   4.483
 6070SOL    HW220108  14.665   1.356   4.334
 6071SOL     OW20109  11.370   2.064   6.529
 6071SOL    HW120110  11.440   2.124   6.504
 6071SOL    HW220111  11.360   2.078   6.623
 6072SOL     OW20112   0.048  13.007  12.269
 6072SOL    HW120113  14.849  12.945  12.246
 6072SOL    HW220114   0.016  13.051  12.347
 6073SOL     OW20115   3.802   7.464   1.694
 6073SOL    HW120116   3.814   7.405   1.768
 6073SOL    HW220117   3.774   7.407   1.622
 6074SOL     OW20118  14.620   2.735   0.434
 6074SOL    HW120119  14.672   2.744   0.513
 6074SOL    HW220120  14.648   2.652   0.396
 6075SOL     OW20121   8.488   1.295   7.968
 6075SOL    HW120122   8.474   1.388   7.986
 6075SOL    HW220123   8.556   1.268   8.029
 6076SOL     OW20124  11.749  12.617   5.142
 6076SOL    HW120125  11.812  12.548   5.163
 6076SOL    HW220126  11.756  12.628   5.048
 6077SOL     OW20127   7.998   8.751   1.068
 6077SOL    HW120128   7.958   8.666   1.047
 6077SOL    HW220129   8.068   8.760   1.003
 6078SOL     OW20130  10.648   8.798   7.881
 6078SOL    HW120131  10.598   8.848   7.946
 6078SOL    HW220132  10.740   8.819   7.900
 6079SOL     OW20133   3.305   6.084  14.470
 6079SOL    HW120134   3.319   6.126  14.386
 6079SOL    HW220135   3.210   6.075  14.476
 6080SOL     OW20136   3.315   8.415   4.620
 6080SOL    HW120137   3.250   8.366   4.669
 6080SOL    HW220138   3.288   8.507   4.630
 6081SOL     OW20139  14.588   4.884   9.317
 6081SOL    HW120140  14.601   4.870   9.411
 6081SOL    HW220141  14.511   4.831   9.296
 6082SOL     OW20142  11.437   9.995  11.778
 6082SOL    HW120143  11.381   9.917  11.775
 6082SOL    HW220144  11.488   9.984  11.859
 6083SOL     OW20145   7.579   6.855   3.378
 6083SOL    HW120146   7.610   6.945   3.370
 6083SOL    HW220147   7.545   6.833   3.291
 6084SOL     OW20148  13.790  11.156   4.154
 6084SOL    HW120149  13.752  11.069   4.160
 6084SOL    HW220150  13.884  11.140   4.143
 6085SOL     OW20151   2.124   5.364   1.032
 6085SOL    HW120152   2.127   5.295   1.098
 6085SOL    HW220153   2.046   5.344   0.980
 6086SOL     OW20154   2.633   6.037   8.285
 6086SOL    HW120155   2.680   5.982   8.223
 6086SOL    HW220156   2.636   6.125   8.247
 6087SOL     OW20157   3.054  12.492   9.919
 6087SOL    HW120158   3.012  12.577   9.903
 6087SOL    HW220159   3.147  12.512   9.924
 6088SOL     OW20160  11.674   0.064  11.254
 6088SOL    HW120161  11.618   0.120  11.200
 6088SOL    HW220162  11.705   0.121  11.324
 6089SOL     OW20163   3.167   6.687  10.882
 6089SOL    HW120164   3.215   6.658  10.804
 6089SOL    HW220165   3.229   6.677  10.954
 6090SOL     OW20166  12.735  11.989  11.069
 6090SOL    HW120167  12.735  12.083  11.088
 6090SOL    HW220168  12.769  11.981  10.981
 6091SOL     OW20169   8.153   8.254   7.500
 6091SOL    HW120170   8.187   8.326   7.553
 6091SOL    HW220171   8.073   8.288   7.461
 6092SOL     OW20172   4.496   9.843   5.255
 6092SOL    HW120173   4.524   9.910   5.317
 6092SOL    HW220174   4.401   9.837   5.267
 6093SOL     OW20175  13.527   3.939   5.314
 6093SOL    HW120176  13.612   3.955   5.273
 6093SOL    HW220177  13.510   3.846   5.300
 6094SOL     OW20178   9.798   2.352   2.801
 6094SOL    HW120179   9.754   2.405   2.735
 6094SOL    HW220180   9.847   2.414   2.855
 6095SOL     OW20181   0.597   8.106  10.973
 6095SOL    HW120182   0.621   8.189  11.014
 6095SOL    HW220183   0.527   8.071  11.027
 6096SOL     OW20184   3.230  12.258  12.238
 6096SOL    HW120185   3.265  12.330  12.186
 6096SOL    HW220186   3.208  12.190  12.175
 6097SOL     OW20187   6.313   7.737  10.224
 6097SOL    HW120188   6.257   7.664  10.199
 6097SOL    HW220189   6.398   7.716  10.185
 6098SOL     OW20190  10.127  13.861   2.268
 6098SOL    HW120191  10.141  13.786   2.325
 6098SOL    HW220192  10.080  13.826   2.192
 6099SOL     OW20193   6.000  11.847  14.412
 6099SOL    HW120194   6.002  11.752  14.398
 6099SOL    HW220195   6.086  11.877  14.382
 6100SOL     OW20196   0.803   9.766   1.080
 6100SOL    HW120197   0.789   9.827   1.152
 6100SOL    HW220198   0.840   9.819   1.010
 6101SOL     OW20199   7.963  10.126   3.525
 6101SOL    HW120200   8.023  10.053   3.535
 6101SOL    HW220201   7.920  10.111   3.440
 6102SOL     OW20202   2.403  12.341  13.514
 6102SOL    HW120203   2.385  12.434  13.497
 6102SOL    HW220204   2.491  12.340  13.553
 6103SOL     OW20205   6.387  11.988   5.872
 6103SOL    HW120206   6.421  12.048   5.806
 6103SOL    HW220207   6.351  12.045   5.940
 6104SOL     OW20208  10.100  13.798   1.675
 6104SOL    HW120209  10.135  13.742   1.606
 6104SOL    HW220210  10.160  13.785   1.749
 6105SOL     OW20211   2.352   4.644   1.871
 6105SOL    HW120212   2.432   4.629   1.921
 6105SOL    HW220213   2.296   4.696   1.929
 6106SOL     OW20214  11.041   1.722  12.606
 6106SOL    HW120215  11.130   1.719  12.641
 6106SOL    HW220216  11.054   1.735  12.512
 6107SOL     OW20217   1.484  13.079   0.393
 6107SOL    HW120218   1.495  13.031   0.311
 6107SOL    HW220219   1.456  13.013   0.456
 6108SOL     OW20220   2.108   8.738  12.403
 6108SOL    HW120221   2.172   8.757  12.471
 6108SOL    HW220222   2.023   8.757  12.443
 6109SOL     OW20223   6.065  12.674   2.219
 6109SOL    HW120224   6.064  12.678   2.315
 6109SOL    HW220225   5.997  12.735   2.192
 6110SOL     OW20226   9.811   7.913   6.757
 6110SOL    HW120227   9.844   7.902   6.667
 6110SOL    HW220228   9.732   7.860   6.760
 6111SOL     OW20229   9.187   1.092   0.183
 6111SOL    HW120230   9.209   1.156   0.250
 6111SOL    HW220231   9.208   1.136   0.100
 6112SOL     OW20232   7.265  14.000   8.752
 6112SOL    HW120233   7.196  13.991   8.817
 6112SOL    HW220234   7.263  14.092   8.727
 6113SOL     OW20235   2.141   2.841  14.033
 6113SOL    HW120236   2.170   2.808  14.118
 6113SOL    HW220237   2.125   2.763  13.981
 6114SOL     OW20238   6.657  10.858  14.643
 6114SOL    HW120239   6.661  10.951  14.617
 6114SOL    HW220240   6.639  10.860  14.737
 6115SOL     OW20241  11.130   2.251   4.771
 6115SOL    HW120242  11.212   2.201   4.773
 6115SOL    HW220243  11.156   2.342   4.783
 6116SOL     OW20244   2.259  12.898   9.754
 6116SOL    HW120245   2.325  12.833   9.775
 6116SOL    HW220246   2.307  12.981   9.749
 6117SOL     OW20247   7.164   9.655  10.962
 6117SOL    HW120248   7.167   9.703  10.879
 6117SOL    HW220249   7.246   9.605  10.963
 6118SOL     OW20250   2.374   9.372  12.797
 6118SOL    HW120251   2.394   9.295  12.851
 6118SOL    HW220252   2.457   9.419  12.790
 6119SOL     OW20253  11.205   6.075  12.996
 6119SOL    HW120254  11.298   6.072  12.972
 6119SOL    HW220255  11.166   5.999  12.953
 6120SOL     OW20256   8.816  11.736   1.549
 6120SOL    HW120257   8.799  11.647   1.517
 6120SOL    HW220258   8.843  11.785   1.472
 6121SOL     OW20259   5.517   8.446   0.594
 6121SOL    HW120260   5.565   8.524   0.621
 6121SOL    HW220261   5.485   8.408   0.675
 6122SOL     OW20262   5.228   5.223   1.044
 6122SOL    HW120263   5.287   5.153   1.071
 6122SOL    HW220264   5.171   5.238   1.120
 6123SOL     OW20265   6.635  11.083   1.420
 6123SOL    HW120266   6.590  11.152   1.371
 6123SOL    HW220267   6.604  11.001   1.380
 6124SOL     OW20268   3.901   3.184   9.428
 6124SOL    HW120269   3.973   3.194   9.365
 6124SOL    HW220270   3.943   3.195   9.513
 6125SOL     OW20271  13.663  12.001  11.491
 6125SOL    HW120272  13.758  12.006  11.500
 6125SOL    HW220273  13.648  11.922  11.439
 6126SOL     OW20274   1.374  12.942   4.220
 6126SOL    HW120275   1.452  12.982   4.180
 6126SOL    HW220276   1.301  12.993   4.186
 6127SOL     OW20277   7.319  13.178  13.246
 6127SOL    HW120278   7.332  13.194  13.339
 6127SOL    HW220279   7.396  13.127  13.219
 6128SOL     OW20280   7.296   0.888   4.270
 6128SOL    HW120281   7.294   0.843   4.355
 6128SOL    HW220282   7.211   0.868   4.231
 6129SOL     OW20283   9.905   3.349   3.298
 6129SOL    HW120284   9.829   3.378   3.247
 6129SOL    HW220285   9.952   3.430   3.318
 6130SOL     OW20286  10.809   4.534   9.415
 6130SOL    HW120287  10.892   4.543   9.368
 6130SOL    HW220288  10.799   4.439   9.428
 6131SOL     OW20289   6.100   7.677   1.957
 6131SOL    HW120290   6.069   7.735   1.887
 6131SOL    HW220291   6.194   7.694   1.962
 6132SOL     OW20292  11.256   2.203   7.474
 6132SOL    HW120293  11.219   2.185   7.560
 6132SOL    HW220294  11.345   2.168   7.478
 6133SOL     OW20295   6.884   9.584   1.661
 6133SOL    HW120296   6.937   9.663   1.649
 6133SOL    HW220297   6.916   9.546   1.743
 6134SOL     OW20298   4.397  11.879   2.910
 6134SOL    HW120299   4.407  11.906   3.002
 6134SOL    HW220300   4.456  11.937   2.862
 6135SOL     OW20301   5.356   4.906   3.671
 6135SOL    HW120302   5.451   4.909   3.664
 6135SOL    HW220303   5.334   4.813   3.667
 6136SOL     OW20304   4.647  11.846   1.583
 6136SOL    HW120305   4.736  11.812   1.574
 6136SOL    HW220306   4.591  11.769   1.580
 6137SOL     OW20307  11.328   4.179   7.416
 6137SOL    HW120308  11.323   4.264   7.460
 6137SOL    HW220309  11.375   4.122   7.477
 6138SOL     OW20310  10.097   2.234  13.467
 6138SOL    HW120311  10.016   2.215  13.419
 6138SOL    HW220312  10.081   2.200  13.555
 6139SOL     OW20313   9.895   0.112   6.602
 6139SOL    HW120314   9.914   0.117   6.696
 6139SOL    HW220315   9.844   0.031   6.593
 6140SOL     OW20316   9.346  11.568   8.742
 6140SOL    HW120317   9.360  11.650   8.693
 6140SOL    HW220318   9.251  11.559   8.746
 6141SOL     OW20319  14.358   9.262   3.580
 6141SOL    HW120320  14.442   9.259   3.534
 6141SOL    HW220321  14.314   9.339   3.544
 6142SOL     OW20322  14.480   0.329  10.900
 6142SOL    HW120323  14.533   0.294  10.829
 6142SOL    HW220324  14.439   0.252  10.940
 6143SOL     OW20325   0.662   3.858   4.895
 6143SOL    HW120326   0.618   3.816   4.821
 6143SOL    HW220327   0.636   3.807   4.971
 6144SOL     OW20328  10.346   5.763   7.065
 6144SOL    HW120329  10.278   5.703   7.032
 6144SOL    HW220330  10.363   5.732   7.154
 6145SOL     OW20331  13.591  12.595   0.844
 6145SOL    HW120332  13.523  12.531   0.822
 6145SOL    HW220333  13.655  12.588   0.774
 6146SOL     OW20334   6.695   1.277   3.395
 6146SOL    HW120335   6.644   1.346   3.438
 6146SOL    HW220336   6.757   1.248   3.461
 6147SOL     OW20337   1.610   6.547   3.508
 6147SOL    HW120338   1.608   6.522   3.600
 6147SOL    HW220339   1.700   6.529   3.480
 6148SOL     OW20340  10.086   4.065  13.231
 6148SOL    HW120341  10.036   4.049  13.311
 6148SOL    HW220342  10.159   4.120  13.259
 6149SOL     OW20343  14.077   4.689   6.269
 6149SOL    HW120344  14.160   4.653   6.300
 6149SOL    HW220345  14.098   4.780   6.246
 6150SOL     OW20346  14.523   2.583   2.665
 6150SOL    HW120347  14.449   2.524   2.675
 6150SOL    HW220348  14.576   2.543   2.596
 6151SOL     OW20349   8.577   8.906  13.184
 6151SOL    HW120350   8.591   8.850  13.260
 6151SOL    HW220351   8.643   8.877  13.121
 6152SOL     OW20352  14.644   7.763   6.766
 6152SOL    HW120353  14.633   7.688   6.707
 6152SOL    HW220354  14.570   7.758   6.826
 6153SOL     OW20355   3.523   4.181   3.475
 6153SOL    HW120356   3.443   4.169   3.424
 6153SOL    HW220357   3.509   4.264   3.522
 6154SOL     OW20358   2.981   0.420  12.348
 6154SOL    HW120359   2.995   0.397  12.440
 6154SOL    HW220360   2.932   0.502  12.350
 6155SOL     OW20361   1.631  12.318   0.903
 6155SOL    HW120362   1.657  12.395   0.852
 6155SOL    HW220363   1.653  12.340   0.993
 6156SOL     OW20364   9.331   6.430   6.433
 6156SOL    HW120365   9.402   6.493   6.445
 6156SOL    HW220366   9.282   6.462   6.357
 6157SOL     OW20367   0.433  11.063   7.058
 6157SOL    HW120368   0.515  11.111   7.067
 6157SOL    HW220369   0.424  11.016   7.141
 6158SOL     OW20370   2.043   3.142   8.946
 6158SOL    HW120371   2.079   3.063   8.906
 6158SOL    HW220372   2.007   3.192   8.872
 6159SOL     OW20373   9.019  10.037   5.262
 6159SOL    HW120374   8.939  10.068   5.306
 6159SOL    HW220375   9.061   9.980   5.326
 6160SOL     OW20376   2.406   0.970  14.337
 6160SOL    HW120377   2.422   0.881  14.304
 6160SOL    HW220378   2.384   0.957  14.429
 6161SOL     OW20379   9.171   1.477   9.610
 6161SOL    HW120380   9.121   1.407   9.568
 6161SOL    HW220381   9.236   1.430   9.664
 6162SOL     OW20382   8.464   4.129   7.302
 6162SOL    HW120383   8.381   4.126   7.348
 6162SOL    HW220384   8.444   4.101   7.213
 6163SOL     OW20385   2.107   0.481   6.894
 6163SOL    HW120386   2.024   0.445   6.864
 6163SOL    HW220387   2.163   0.480   6.816
 6164SOL     OW20388   9.398   6.105   0.681
 6164SOL    HW120389   9.441   6.020   0.676
 6164SOL    HW220390   9.387   6.132   0.590
 6165SOL     OW20391  12.295   8.036  11.423
 6165SOL    HW120392  12.231   7.980  11.466
 6165SOL    HW220393  12.252   8.121  11.417
 6166SOL     OW20394   6.335   4.741  10.266
 6166SOL    HW120395   6.245   4.749  10.297
 6166SOL    HW220396   6.380   4.692  10.334
 6167SOL     OW20397   8.681   5.816   6.699
 6167SOL    HW120398   8.650   5.872   6.771
 6167SOL    HW220399   8.619   5.743   6.697
 6168SOL     OW20400   7.156  10.721   8.406
 6168SOL    HW120401   7.130  10.792   8.347
 6168SOL    HW220402   7.075  10.696   8.450
 6169SOL     OW20403   3.869   1.212  11.971
 6169SOL    HW120404   3.888   1.268  12.046
 6169SOL    HW220405   3.811   1.145  12.006
 6170SOL     OW20406   2.472   7.041   7.538
 6170SOL    HW120407   2.410   7.070   7.604
 6170SOL    HW220408   2.558   7.065   7.573
 6171SOL     OW20409   8.695  13.951   1.919
 6171SOL    HW120410   8.605  13.972   1.941
 6171SOL    HW220411   8.712  13.868   1.965
 6172SOL     OW20412  11.886  11.863   1.417
 6172SOL    HW120413  11.793  11.857   1.439
 6172SOL    HW220414  11.930  11.814   1.487
 6173SOL     OW20415  13.034  10.575  13.251
 6173SOL    HW120416  12.994  10.581  13.165
 6173SOL    HW220417  13.090  10.498  13.247
 6174SOL     OW20418  14.855   9.679   2.570
 6174SOL    HW120419   0.027   9.697   2.654
 6174SOL    HW220420  14.818   9.763   2.543
 6175SOL     OW20421  11.493  11.329   1.285
 6175SOL    HW120422  11.412  11.294   1.249
 6175SOL    HW220423  11.469  11.416   1.316
 6176SOL     OW20424   5.327   5.101   3.300
 6176SOL    HW120425   5.298   5.011   3.286
 6176SOL    HW220426   5.412   5.107   3.257
 6177SOL     OW20427   9.259   3.052   1.427
 6177SOL    HW120428   9.269   3.120   1.360
 6177SOL    HW220429   9.181   3.079   1.476
 6178SOL     OW20430   9.922   6.983   8.271
 6178SOL    HW120431   9.840   7.032   8.258
 6178SOL    HW220432   9.895   6.905   8.320
 6179SOL     OW20433  11.028  13.639   4.226
 6179SOL    HW120434  10.994  13.728   4.219
 6179SOL    HW220435  10.991  13.605   4.307
 6180SOL     OW20436  12.085   2.282   1.083
 6180SOL    HW120437  12.170   2.239   1.076
 6180SOL    HW220438  12.083   2.346   1.012
 6181SOL     OW20439  14.226  13.282  10.827
 6181SOL    HW120440  14.178  13.228  10.764
 6181SOL    HW220441  14.318  13.271  10.803
 6182SOL     OW20442   7.209   3.379  13.802
 6182SOL    HW120443   7.155   3.412  13.730
 6182SOL    HW220444   7.203   3.448  13.869
 6183SOL     OW20445   4.165  14.800  13.029
 6183SOL    HW120446   4.222  14.754  12.967
 6183SOL    HW220447   4.119  14.730  13.075
 6184SOL     OW20448  12.800   8.102   0.302
 6184SOL    HW120449  12.861   8.051   0.248
 6184SOL    HW220450  12.748   8.036   0.347
 6185SOL     OW20451   2.924   0.853   1.824
 6185SOL    HW120452   2.981   0.880   1.896
 6185SOL    HW220453   2.966   0.775   1.788
 6186SOL     OW20454   2.664   1.233   4.157
 6186SOL    HW120455   2.633   1.216   4.068
 6186SOL    HW220456   2.649   1.150   4.203
 6187SOL     OW20457   3.346   8.453  12.859
 6187SOL    HW120458   3.415   8.513  12.888
 6187SOL    HW220459   3.348   8.459  12.763
 6188SOL     OW20460  13.218   8.181  13.025
 6188SOL    HW120461  13.166   8.105  13.052
 6188SOL    HW220462  13.293   8.144  12.978
 6189SOL     OW20463   4.459   8.230  10.182
 6189SOL    HW120464   4.426   8.241  10.093
 6189SOL    HW220465   4.394   8.274  10.237
 6190SOL     OW20466   2.687  14.125  12.451
 6190SOL    HW120467   2.707  14.215  12.476
 6190SOL    HW220468   2.607  14.104  12.500
 6191SOL     OW20469   6.033  10.106  13.506
 6191SOL    HW120470   5.949  10.073  13.473
 6191SOL    HW220471   6.096  10.037  13.487
 6192SOL     OW20472  10.790  13.378   9.881
 6192SOL    HW120473  10.867  13.325   9.862
 6192SOL    HW220474  10.802  13.406   9.972
 6193SOL     OW20475   4.863   5.487   0.221
 6193SOL    HW120476   4.806   5.542   0.275
 6193SOL    HW220477   4.843   5.398   0.249
 6194SOL     OW20478   0.091  11.268  14.565
 6194SOL    HW120479   0.072  11.338  14.502
 6194SOL    HW220480   0.009  11.221  14.574
 6195SOL     OW20481   4.563  13.964   0.696
 6195SOL    HW120482   4.632  14.031   0.700
 6195SOL    HW220483   4.526  13.975   0.608
 6196SOL     OW20484  11.937  14.608   7.756
 6196SOL    HW120485  11.861  14.666   7.747
 6196SOL    HW220486  12.005  14.663   7.795
 6197SOL     OW20487  10.156   5.365  14.821
 6197SOL    HW120488  10.097   5.383  14.747
 6197SOL    HW220489  10.234   5.418  14.803
 6198SOL     OW20490  10.286  11.133   4.977
 6198SOL    HW120491  10.296  11.042   5.003
 6198SOL    HW220492  10.257  11.178   5.057
 6199SOL     OW20493   8.036   7.903   8.292
 6199SOL    HW120494   7.993   7.979   8.330
 6199SOL    HW220495   7.993   7.828   8.334
 6200SOL     OW20496   4.714  11.889   6.511
 6200SOL    HW120497   4.695  11.878   6.418
 6200SOL    HW220498   4.628  11.891   6.553
 6201SOL     OW20499   7.985  11.954   8.740
 6201SOL    HW120500   7.962  11.867   8.707
 6201SOL    HW220501   7.919  12.012   8.704
 6202SOL     OW20502  13.444   4.965   9.587
 6202SOL    HW120503  13.432   4.927   9.500
 6202SOL    HW220504  13.384   5.040   9.588
 6203SOL     OW20505   8.855  11.624  12.600
 6203SOL    HW120506   8.845  11.562  12.672
 6203SOL    HW220507   8.940  11.603  12.562
 6204SOL     OW20508  10.553   8.322  11.348
 6204SOL    HW120509  10.511   8.237  11.336
 6204SOL    HW220510  10.647   8.302  11.357
 6205SOL     OW20511   2.258   8.178   5.812
 6205SOL    HW120512   2.322   8.249   5.809
 6205SOL    HW220513   2.297   8.108   5.760
 6206SOL     OW20514  11.850   3.243  14.139
 6206SOL    HW120515  11.903   3.261  14.217
 6206SOL    HW220516  11.779   3.307  14.142
 6207SOL     OW20517   4.005   4.082   1.138
 6207SOL    HW120518   3.936   4.028   1.177
 6207SOL    HW220519   4.084   4.029   1.145
 6208SOL     OW20520   5.230   2.014  10.975
 6208SOL    HW120521   5.156   2.016  10.914
 6208SOL    HW220522   5.217   2.090  11.031
 6209SOL     OW20523   4.270   7.083   6.941
 6209SOL    HW120524   4.314   7.160   6.906
 6209SOL    HW220525   4.337   7.014   6.939
 6210SOL     OW20526   2.125  12.352   0.924
 6210SOL    HW120527   2.053  12.332   0.984
 6210SOL    HW220528   2.093  12.425   0.872
 6211SOL     OW20529   0.333  11.757   2.261
 6211SOL    HW120530   0.253  11.706   2.276
 6211SOL    HW220531   0.368  11.721   2.180
 6212SOL     OW20532  12.796   3.012  13.424
 6212SOL    HW120533  12.854   3.087  13.410
 6212SOL    HW220534  12.817   2.952  13.352
 6213SOL     OW20535   8.519   4.428   9.553
 6213SOL    HW120536   8.430   4.407   9.580
 6213SOL    HW220537   8.552   4.347   9.514
 6214SOL     OW20538   4.029   6.951   6.146
 6214SOL    HW120539   4.005   7.043   6.134
 6214SOL    HW220540   4.119   6.953   6.178
 6215SOL     OW20541  10.286  11.472   3.026
 6215SOL    HW120542  10.264  11.411   2.956
 6215SOL    HW220543  10.376  11.498   3.008
 6216SOL     OW20544  14.521   6.582  13.194
 6216SOL    HW120545  14.552   6.600  13.105
 6216SOL    HW220546  14.433   6.547  13.182
 6217SOL     OW20547  13.401  12.709   8.323
 6217SOL    HW120548  13.464  12.759   8.376
 6217SOL    HW220549  13.330  12.771   8.306
 6218SOL     OW20550  10.605   5.797  11.351
 6218SOL    HW120551  10.574   5.859  11.416
 6218SOL    HW220552  10.687   5.835  11.318
 6219SOL     OW20553  10.098   9.553   5.808
 6219SOL    HW120554  10.011   9.565   5.847
 6219SOL    HW220555  10.124   9.465   5.834
 6220SOL     OW20556   5.418  13.577  11.291
 6220SOL    HW120557   5.510  13.595  11.311
 6220SOL    HW220558   5.420  13.535  11.205
 6221SOL     OW20559  13.736  13.481   7.687
 6221SOL    HW120560  13.797  13.554   7.685
 6221SOL    HW220561  13.649  13.521   7.685
 6222SOL     OW20562   5.163   8.479   7.073
 6222SOL    HW120563   5.157   8.544   7.143
 6222SOL    HW220564   5.165   8.395   7.119
 6223SOL     OW20565  11.239  11.212   7.058
 6223SOL    HW120566  11.282  11.208   7.144
 6223SOL    HW220567  11.156  11.257   7.075
 6224SOL     OW20568   0.528  11.090  11.889
 6224SOL    HW120569   0.469  11.017  11.872
 6224SOL    HW220570   0.613  11.059  11.858
 6225SOL     OW20571   9.089   9.474  10.162
 6225SOL    HW120572   9.015   9.529  10.189
 6225SOL    HW220573   9.086   9.399  10.221
 6226SOL     OW20574   7.959  10.258   1.478
 6226SOL    HW120575   7.961  10.196   1.405
 6226SOL    HW220576   7.934  10.341   1.438
 6227SOL     OW20577   2.510   2.656   8.206
 6227SOL    HW120578   2.484   2.671   8.297
 6227SOL    HW220579   2.486   2.737   8.161
 6228SOL     OW20580   2.228  10.643  10.676
 6228SOL    HW120581   2.278  10.693  10.740
 6228SOL    HW220582   2.169  10.588  10.727
 6229SOL     OW20583  11.772   7.824   0.575
 6229SOL    HW120584  11.848   7.845   0.630
 6229SOL    HW220585  11.698   7.863   0.621
 6230SOL     OW20586  10.478   8.633   2.898
 6230SOL    HW120587  10.401   8.577   2.899
 6230SOL    HW220588  10.552   8.573   2.900
 6231SOL     OW20589   3.829   2.498   3.365
 6231SOL    HW120590   3.772   2.481   3.290
 6231SOL    HW220591   3.779   2.466   3.440
 6232SOL     OW20592  10.458  11.651  11.534
 6232SOL    HW120593  10.433  11.561  11.515
 6232SOL    HW220594  10.502  11.681  11.455
 6233SOL     OW20595  12.560   6.061   3.727
 6233SOL    HW120596  12.553   6.045   3.633
 6233SOL    HW220597  12.597   6.148   3.734
 6234SOL     OW20598  14.321   2.125   5.118
 6234SOL    HW120599  14.337   2.213   5.086
 6234SOL    HW220600  14.226   2.114   5.114
 6235SOL     OW20601  11.138   0.668   3.529
 6235SOL    HW120602  11.048   0.676   3.498
 6235SOL    HW220603  11.133   0.691   3.622
 6236SOL     OW20604  11.275  12.900  10.249
 6236SOL    HW120605  11.296  12.969  10.312
 6236SOL    HW220606  11.213  12.940  10.188
 6237SOL     OW20607   2.067   6.265  10.534
 6237SOL    HW120608   2.042   6.353  10.561
 6237SOL    HW220609   1.991   6.211  10.554
 6238SOL     OW20610   1.418  14.575   8.667
 6238SOL    HW120611   1.336  14.531   8.645
 6238SOL    HW220612   1.413  14.658   8.620
 6239SOL     OW20613   9.238  12.167   1.333
 6239SOL    HW120614   9.317  12.202   1.292
 6239SOL    HW220615   9.184  12.137   1.259
 6240SOL     OW20616  10.194  13.420   1.985
 6240SOL    HW120617  10.267  13.403   2.045
 6240SOL    HW220618  10.115  13.408   2.038
 6241SOL     OW20619   5.704   8.232  13.558
 6241SOL    HW120620   5.621   8.278  13.563
 6241SOL    HW220621   5.770   8.301  13.558
 6242SOL     OW20622   5.493  12.323   6.385
 6242SOL    HW120623   5.483  12.297   6.477
 6242SOL    HW220624   5.547  12.402   6.388
 6243SOL     OW20625   5.121   1.354   0.108
 6243SOL    HW120626   5.158   1.300   0.039
 6243SOL    HW220627   5.050   1.402   0.066
 6244SOL     OW20628   9.972   9.857   0.661
 6244SOL    HW120629   9.892   9.819   0.697
 6244SOL    HW220630  10.042   9.815   0.710
 6245SOL     OW20631  10.698   2.059   2.373
 6245SOL    HW120632  10.753   2.137   2.365
 6245SOL    HW220633  10.745   2.003   2.434
 6246SOL     OW20634  12.213  13.641  14.511
 6246SOL    HW120635  12.221  13.685  14.426
 6246SOL    HW220636  12.232  13.549  14.491
 6247SOL     OW20637   2.278   8.842   1.466
 6247SOL    HW120638   2.273   8.934   1.489
 6247SOL    HW220639   2.279   8.796   1.550
 6248SOL     OW20640  11.475   6.076   1.622
 6248SOL    HW120641  11.447   6.135   1.693
 6248SOL    HW220642  11.510   5.999   1.667
 6249SOL     OW20643   6.522   1.255   0.424
 6249SOL    HW120644   6.597   1.224   0.475
 6249SOL    HW220645   6.446   1.214   0.464
 6250SOL     OW20646   4.584   8.707   9.670
 6250SOL    HW120647   4.514   8.771   9.655
 6250SOL    HW220648   4.654   8.734   9.611
 6251SOL     OW20649   0.899  13.134   7.847
 6251SOL    HW120650   0.919  13.089   7.929
 6251SOL    HW220651   0.966  13.104   7.786
 6252SOL     OW20652   1.982   1.170   0.552
 6252SOL    HW120653   2.044   1.243   0.563
 6252SOL    HW220654   1.897   1.208   0.573
 6253SOL     OW20655   2.424   4.069   5.318
 6253SOL    HW120656   2.506   4.060   5.270
 6253SOL    HW220657   2.442   4.030   5.404
 6254SOL     OW20658   8.334   1.360   6.494
 6254SOL    HW120659   8.360   1.271   6.470
 6254SOL    HW220660   8.414   1.412   6.486
 6255SOL     OW20661   3.105   4.711   4.512
 6255SOL    HW120662   3.096   4.799   4.549
 6255SOL    HW220663   3.191   4.710   4.471
 6256SOL     OW20664   4.822  10.923   0.772
 6256SOL    HW120665   4.832  10.852   0.709
 6256SOL    HW220666   4.727  10.936   0.777
 6257SOL     OW20667   2.819   5.961   6.279
 6257SOL    HW120668   2.887   5.964   6.345
 6257SOL    HW220669   2.820   6.047   6.238
 6258SOL     OW20670   5.670   6.588  14.628
 6258SOL    HW120671   5.728   6.663  14.617
 6258SOL    HW220672   5.720   6.525  14.679
 6259SOL     OW20673   2.784   8.747   0.687
 6259SOL    HW120674   2.765   8.821   0.629
 6259SOL    HW220675   2.812   8.787   0.769
 6260SOL     OW20676   0.114   8.108   7.352
 6260SOL    HW120677   0.064   8.099   7.271
 6260SOL    HW220678   0.067   8.174   7.403
 6261SOL     OW20679   2.614   8.191  11.332
 6261SOL    HW120680   2.566   8.272  11.318
 6261SOL    HW220681   2.564   8.144  11.398
 6262SOL     OW20682   1.677  10.911   3.549
 6262SOL    HW120683   1.658  10.891   3.458
 6262SOL    HW220684   1.710  10.829   3.586
 6263SOL     OW20685   2.346   7.977   2.574
 6263SOL    HW120686   2.324   8.067   2.553
 6263SOL    HW220687   2.337   7.971   2.669
 6264SOL     OW20688   6.239   0.723  12.259
 6264SOL    HW120689   6.280   0.636  12.258
 6264SOL    HW220690   6.192   0.729  12.176
 6265SOL     OW20691  14.457  10.881   0.520
 6265SOL    HW120692  14.400  10.947   0.481
 6265SOL    HW220693  14.532  10.930   0.551
 6266SOL     OW20694   0.546   7.363  10.648
 6266SOL    HW120695   0.522   7.318  10.729
 6266SOL    HW220696   0.506   7.312  10.578
 6267SOL     OW20697   7.822   5.247  13.760
 6267SOL    HW120698   7.843   5.154  13.771
 6267SOL    HW220699   7.894   5.281  13.708
 6268SOL     OW20700   4.711   7.327   8.083
 6268SOL    HW120701   4.641   7.299   8.024
 6268SOL    HW220702   4.790   7.326   8.030
 6269SOL     OW20703   5.485   7.245  10.555
 6269SOL    HW120704   5.457   7.154  10.555
 6269SOL    HW220705   5.421   7.290  10.500
 6270SOL     OW20706   0.705   5.166   4.041
 6270SOL    HW120707   0.760   5.160   4.120
 6270SOL    HW220708   0.616   5.170   4.075
 6271SOL     OW20709  14.721   8.023   8.946
 6271SOL    HW120710  14.675   8.103   8.971
 6271SOL    HW220711  14.793   8.017   9.009
 6272SOL     OW20712   0.204  11.670   0.768
 6272SOL    HW120713   0.127  11.654   0.823
 6272SOL    HW220714   0.188  11.757   0.730
 6273SOL     OW20715  14.223  11.622   1.469
 6273SOL    HW120716  14.297  11.618   1.530
 6273SOL    HW220717  14.147  11.640   1.524
 6274SOL     OW20718   1.347  13.674  12.416
 6274SOL    HW120719   1.354  13.760  12.373
 6274SOL    HW220720   1.335  13.695  12.508
 6275SOL     OW20721  10.486   1.497  10.312
 6275SOL    HW120722  10.476   1.512  10.218
 6275SOL    HW220723  10.413   1.545  10.352
 6276SOL     OW20724  14.506   4.748   7.998
 6276SOL    HW120725  14.540   4.778   8.083
 6276SOL    HW220726  14.418   4.716   8.018
 6277SOL     OW20727  11.628   1.863   0.709
 6277SOL    HW120728  11.542   1.832   0.681
 6277SOL    HW220729  11.618   1.959   0.713
 6278SOL     OW20730  12.215  12.707  11.500
 6278SOL    HW120731  12.260  12.728  11.582
 6278SOL    HW220732  12.208  12.791  11.455
 6279SOL     OW20733   8.641   2.901   6.912
 6279SOL    HW120734   8.574   2.869   6.972
 6279SOL    HW220735   8.620   2.993   6.898
 6280SOL     OW20736  14.831   9.710   4.003
 6280SOL    HW120737  14.865   9.750   3.923
 6280SOL    HW220738   0.038   9.702   4.060
 6281SOL     OW20739   4.515  11.762   8.312
 6281SOL    HW120740   4.581  11.784   8.378
 6281SOL    HW220741   4.433  11.755   8.361
 6282SOL     OW20742   1.066   2.231   0.171
 6282SOL    HW120743   0.980   2.235   0.213
 6282SOL    HW220744   1.068   2.306   0.113
 6283SOL     OW20745   7.282  10.457   6.575
 6283SOL    HW120746   7.201  10.507   6.579
 6283SOL    HW220747   7.347  10.514   6.616
 6284SOL     OW20748   0.253   7.060   8.636
 6284SOL    HW120749   0.182   7.113   8.599
 6284SOL    HW220750   0.209   6.997   8.692
 6285SOL     OW20751   1.940   9.379  10.900
 6285SOL    HW120752   1.987   9.408  10.821
 6285SOL    HW220753   2.004   9.387  10.970
 6286SOL     OW20754   6.328   7.017   3.313
 6286SOL    HW120755   6.275   6.960   3.369
 6286SOL    HW220756   6.352   7.090   3.370
 6287SOL     OW20757   8.626   0.490   1.984
 6287SOL    HW120758   8.602   0.549   2.055
 6287SOL    HW220759   8.659   0.547   1.915
 6288SOL     OW20760   3.170   9.919  11.929
 6288SOL    HW120761   3.108   9.849  11.949
 6288SOL    HW220762   3.120  10.000  11.941
 6289SOL     OW20763   4.613   5.101  13.215
 6289SOL    HW120764   4.617   5.008  13.191
 6289SOL    HW220765   4.571   5.102  13.301
 6290SOL     OW20766  11.906   0.436  11.339
 6290SOL    HW120767  11.852   0.454  11.262
 6290SOL    HW220768  11.976   0.501  11.335
 6291SOL     OW20769  13.750   2.260  11.335
 6291SOL    HW120770  13.675   2.254  11.276
 6291SOL    HW220771  13.826   2.266  11.277
 6292SOL     OW20772   0.842  14.485  11.890
 6292SOL    HW120773   0.875  14.424  11.956
 6292SOL    HW220774   0.786  14.432  11.834
 6293SOL     OW20775   5.078  14.364   6.412
 6293SOL    HW120776   5.159  14.328   6.448
 6293SOL    HW220777   5.041  14.417   6.483
 6294SOL     OW20778  12.099   2.306   7.388
 6294SOL    HW120779  12.088   2.268   7.301
 6294SOL    HW220780  12.112   2.230   7.445
 6295SOL     OW20781   5.849   4.898  14.229
 6295SOL    HW120782   5.933   4.916  14.188
 6295SOL    HW220783   5.865   4.905  14.323
 6296SOL     OW20784   3.093  12.420   7.637
 6296SOL    HW120785   3.075  12.514   7.644
 6296SOL    HW220786   3.174  12.407   7.686
 6297SOL     OW20787  14.857   1.264  12.529
 6297SOL    HW120788   0.017   1.327  12.464
 6297SOL    HW220789  14.837   1.185  12.478
 6298SOL     OW20790   3.472   8.975   8.015
 6298SOL    HW120791   3.531   9.042   8.051
 6298SOL    HW220792   3.482   8.983   7.921
 6299SOL     OW20793   2.694   7.421   5.354
 6299SOL    HW120794   2.749   7.410   5.432
 6299SOL    HW220795   2.605   7.409   5.385
 6300SOL     OW20796   7.442  13.718  10.769
 6300SOL    HW120797   7.459  13.701  10.676
 6300SOL    HW220798   7.529  13.717  10.810
 6301SOL     OW20799   9.461   6.895  14.581
 6301SOL    HW120800   9.402   6.955  14.627
 6301SOL    HW220801   9.483   6.829  14.646
 6302SOL     OW20802   1.904  11.298  11.142
 6302SOL    HW120803   1.994  11.290  11.175
 6302SOL    HW220804   1.864  11.214  11.161
 6303SOL     OW20805  14.617   6.849  12.067
 6303SOL    HW120806  14.605   6.879  11.977
 6303SOL    HW220807  14.529   6.841  12.102
 6304SOL     OW20808  11.664  11.892   8.801
 6304SOL    HW120809  11.622  11.807   8.809
 6304SOL    HW220810  11.737  11.877   8.741
 6305SOL     OW20811   2.831   4.804   0.390
 6305SOL    HW120812   2.880   4.734   0.346
 6305SOL    HW220813   2.747   4.763   0.413
 6306SOL     OW20814   3.882   2.140   5.905
 6306SOL    HW120815   3.962   2.115   5.859
 6306SOL    HW220816   3.878   2.235   5.896
 6307SOL     OW20817   0.944   3.872   5.532
 6307SOL    HW120818   1.011   3.921   5.579
 6307SOL    HW220819   0.951   3.902   5.441
 6308SOL     OW20820   9.851  11.224  12.223
 6308SOL    HW120821   9.837  11.290  12.156
 6308SOL    HW220822   9.776  11.234  12.282
 6309SOL     OW20823   2.796   2.925   2.355
 6309SOL    HW120824   2.719   2.915   2.410
 6309SOL    HW220825   2.868   2.890   2.408
 6310SOL     OW20826  11.022   4.168   3.823
 6310SOL    HW120827  11.061   4.203   3.903
 6310SOL    HW220828  10.930   4.153   3.847
 6311SOL     OW20829   8.125   3.296   3.410
 6311SOL    HW120830   8.124   3.352   3.333
 6311SOL    HW220831   8.204   3.322   3.458
 6312SOL     OW20832   1.470   8.542   3.271
 6312SOL    HW120833   1.390   8.524   3.320
 6312SOL    HW220834   1.533   8.567   3.338
 6313SOL     OW20835  13.894   4.373   6.449
 6313SOL    HW120836  13.896   4.468   6.463
 6313SOL    HW220837  13.964   4.339   6.505
 6314SOL     OW20838  10.094  13.566   4.413
 6314SOL    HW120839  10.046  13.586   4.332
 6314SOL    HW220840  10.051  13.488   4.448
 6315SOL     OW20841  10.695   6.574   9.212
 6315SOL    HW120842  10.695   6.494   9.264
 6315SOL    HW220843  10.764   6.628   9.250
 6316SOL     OW20844   0.204   0.573   3.990
 6316SOL    HW120845   0.131   0.599   3.935
 6316SOL    HW220846   0.272   0.545   3.929
 6317SOL     OW20847   5.577   7.896   8.707
 6317SOL    HW120848   5.630   7.851   8.640
 6317SOL    HW220849   5.598   7.988   8.697
 6318SOL     OW20850   6.025   6.065   7.708
 6318SOL    HW120851   5.957   6.020   7.658
 6318SOL    HW220852   6.098   6.073   7.647
 6319SOL     OW20853   1.468  12.071  12.252
 6319SOL    HW120854   1.505  11.984  12.239
 6319SOL    HW220855   1.543  12.127  12.273
 6320SOL     OW20856  12.306   5.079   4.626
 6320SOL    HW120857  12.315   5.031   4.708
 6320SOL    HW220858  12.280   5.167   4.653
 6321SOL     OW20859   1.712   8.292  14.536
 6321SOL    HW120860   1.617   8.284  14.536
 6321SOL    HW220861   1.728   8.383  14.510
 6322SOL     OW20862   0.379  12.553  13.315
 6322SOL    HW120863   0.326  12.616  13.364
 6322SOL    HW220864   0.386  12.591  13.227
 6323SOL     OW20865   4.656   5.880   2.427
 6323SOL    HW120866   4.669   5.913   2.515
 6323SOL    HW220867   4.594   5.941   2.387
 6324SOL     OW20868   6.211  13.041   1.956
 6324SOL    HW120869   6.155  13.065   2.031
 6324SOL    HW220870   6.278  12.984   1.994
 6325SOL     OW20871  14.768   4.738  10.159
 6325SOL    HW120872  14.755   4.657  10.209
 6325SOL    HW220873  14.711   4.729  10.083
 6326SOL     OW20874   7.793   1.209   6.809
 6326SOL    HW120875   7.750   1.235   6.890
 6326SOL    HW220876   7.795   1.288   6.756
 6327SOL     OW20877   8.098   4.596  10.626
 6327SOL    HW120878   8.087   4.568  10.717
 6327SOL    HW220879   8.020   4.564  10.581
 6328SOL     OW20880   0.655   1.950   8.916
 6328SOL    HW120881   0.559   1.947   8.921
 6328SOL    HW220882   0.684   1.907   8.996
 6329SOL     OW20883  14.632   8.731   6.341
 6329SOL    HW120884  14.644   8.822   6.366
 6329SOL    HW220885  14.558   8.701   6.394
 6330SOL     OW20886  11.193   0.497   9.637
 6330SOL    HW120887  11.126   0.432   9.659
 6330SOL    HW220888  11.268   0.474   9.691
 6331SOL     OW20889   1.010   4.632  14.754
 6331SOL    HW120890   1.091   4.671  14.786
 6331SOL    HW220891   1.013   4.643  14.659
 6332SOL     OW20892   8.582  11.467   4.696
 6332SOL    HW120893   8.653  11.503   4.644
 6332SOL    HW220894   8.503  11.512   4.665
 6333SOL     OW20895  14.110   8.993   1.158
 6333SOL    HW120896  14.088   9.065   1.099
 6333SOL    HW220897  14.120   8.917   1.101
 6334SOL     OW20898  13.057  12.533   9.259
 6334SOL    HW120899  13.019  12.539   9.172
 6334SOL    HW220900  12.984  12.509   9.316
 6335SOL     OW20901  12.003   1.230  14.635
 6335SOL    HW120902  11.967   1.144  14.614
 6335SOL    HW220903  12.006   1.232  14.731
 6336SOL     OW20904  12.618   9.473   9.794
 6336SOL    HW120905  12.629   9.505   9.705
 6336SOL    HW220906  12.651   9.543   9.850
 6337SOL     OW20907   7.343  11.563   4.813
 6337SOL    HW120908   7.422  11.510   4.823
 6337SOL    HW220909   7.278  11.501   4.779
 6338SOL     OW20910  12.871  14.058   6.174
 6338SOL    HW120911  12.914  13.975   6.152
 6338SOL    HW220912  12.835  14.089   6.091
 6339SOL     OW20913   2.714   0.088   7.937
 6339SOL    HW120914   2.755   0.161   7.983
 6339SOL    HW220915   2.628   0.122   7.910
 6340SOL     OW20916   0.795   8.341  13.931
 6340SOL    HW120917   0.850   8.416  13.955
 6340SOL    HW220918   0.758   8.365  13.846
 6341SOL     OW20919  13.983  13.740   5.037
 6341SOL    HW120920  14.062  13.780   5.001
 6341SOL    HW220921  13.983  13.651   5.001
 6342SOL     OW20922   0.911   5.783   1.970
 6342SOL    HW120923   1.004   5.790   1.992
 6342SOL    HW220924   0.878   5.872   1.981
 6343SOL     OW20925   7.713  11.473  10.284
 6343SOL    HW120926   7.633  11.488  10.234
 6343SOL    HW220927   7.776  11.535  10.248
 6344SOL     OW20928  11.790   8.344   5.592
 6344SOL    HW120929  11.789   8.334   5.687
 6344SOL    HW220930  11.836   8.266   5.560
 6345SOL     OW20931   6.518   7.439  13.527
 6345SOL    HW120932   6.613   7.435  13.527
 6345SOL    HW220933   6.498   7.528  13.559
 6346SOL     OW20934   7.876   5.337   7.777
 6346SOL    HW120935   7.799   5.281   7.771
 6346SOL    HW220936   7.873   5.391   7.697
 6347SOL     OW20937   8.935   8.852   8.696
 6347SOL    HW120938   8.862   8.911   8.674
 6347SOL    HW220939   8.901   8.764   8.680
 6348SOL     OW20940  14.222   5.847   1.838
 6348SOL    HW120941  14.134   5.821   1.867
 6348SOL    HW220942  14.242   5.925   1.889
 6349SOL     OW20943  11.502   1.553   2.873
 6349SOL    HW120944  11.593   1.525   2.861
 6349SOL    HW220945  11.486   1.542   2.967
 6350SOL     OW20946   4.520   9.736   1.451
 6350SOL    HW120947   4.482   9.681   1.519
 6350SOL    HW220948   4.542   9.675   1.380
 6351SOL     OW20949  12.243   7.232  12.890
 6351SOL    HW120950  12.165   7.208  12.940
 6351SOL    HW220951  12.315   7.223  12.952
 6352SOL     OW20952   6.852   4.695   6.158
 6352SOL    HW120953   6.876   4.761   6.093
 6352SOL    HW220954   6.884   4.730   6.241
 6353SOL     OW20955   3.986   4.264  12.183
 6353SOL    HW120956   4.005   4.209  12.106
 6353SOL    HW220957   4.052   4.238  12.247
 6354SOL     OW20958  10.873   0.067   6.746
 6354SOL    HW120959  10.966   0.043   6.743
 6354SOL    HW220960  10.836   0.027   6.668
 6355SOL     OW20961   0.925  12.588   6.866
 6355SOL    HW120962   0.941  12.676   6.901
 6355SOL    HW220963   0.883  12.541   6.937
 6356SOL     OW20964   5.147   0.950   1.554
 6356SOL    HW120965   5.183   0.998   1.628
 6356SOL    HW220966   5.082   0.890   1.592
 6357SOL     OW20967   6.113  13.160  12.049
 6357SOL    HW120968   6.062  13.088  12.012
 6357SOL    HW220969   6.051  13.208  12.104
 6358SOL     OW20970   5.751   1.369   3.120
 6358SOL    HW120971   5.694   1.360   3.043
 6358SOL    HW220972   5.816   1.299   3.110
 6359SOL     OW20973  11.275   6.547   8.962
 6359SOL    HW120974  11.181   6.561   8.967
 6359SOL    HW220975  11.286   6.453   8.977
 6360SOL     OW20976   7.513   4.994   9.750
 6360SOL    HW120977   7.529   5.055   9.679
 6360SOL    HW220978   7.430   4.952   9.728
 6361SOL     OW20979   2.113   8.173   4.329
 6361SOL    HW120980   2.205   8.200   4.321
 6361SOL    HW220981   2.081   8.219   4.406
 6362SOL     OW20982   4.385   1.991  13.460
 6362SOL    HW120983   4.377   2.001  13.365
 6362SOL    HW220984   4.356   2.075  13.496
 6363SOL     OW20985   9.312   6.217  11.845
 6363SOL    HW120986   9.239   6.275  11.824
 6363SOL    HW220987   9.276   6.155  11.909
 6364SOL     OW20988   5.375   7.207  11.598
 6364SOL    HW120989   5.393   7.209  11.691
 6364SOL    HW220990   5.316   7.280  11.582
 6365SOL     OW20991   5.394  14.043   6.123
 6365SOL    HW120992   5.452  14.107   6.164
 6365SOL    HW220993   5.306  14.066   6.153
 6366SOL     OW20994   3.135   3.399  12.680
 6366SOL    HW120995   3.188   3.476  12.659
 6366SOL    HW220996   3.194   3.342  12.729
 6367SOL     OW20997  10.445   3.656   9.748
 6367SOL    HW120998  10.392   3.733   9.727
 6367SOL    HW220999  10.500   3.643   9.672
 6368SOL     OW21000   5.515   9.873   3.194
 6368SOL    HW121001   5.529   9.806   3.128
 6368SOL    HW221002   5.495   9.825   3.274
 6369SOL     OW21003   5.918  14.488   3.108
 6369SOL    HW121004   5.828  14.499   3.076
 6369SOL    HW221005   5.972  14.531   3.042
 6370SOL     OW21006   6.599   2.357   7.588
 6370SOL    HW121007   6.625   2.343   7.497
 6370SOL    HW221008   6.504   2.367   7.584
 6371SOL     OW21009   5.521   9.261   4.122
 6371SOL    HW121010   5.580   9.186   4.131
 6371SOL    HW221011   5.571   9.335   4.157
 6372SOL     OW21012   8.602   1.559   2.049
 6372SOL    HW121013   8.565   1.620   1.985
 6372SOL    HW221014   8.689   1.593   2.067
 6373SOL     OW21015   3.275  12.963   4.715
 6373SOL    HW121016   3.232  12.927   4.793
 6373SOL    HW221017   3.205  12.979   4.653
 6374SOL     OW21018   9.968   7.260   9.301
 6374SOL    HW121019   9.912   7.215   9.238
 6374SOL    HW221020  10.027   7.314   9.248
 6375SOL     OW21021   2.315   8.339   6.140
 6375SOL    HW121022   2.379   8.280   6.101
 6375SOL    HW221023   2.365   8.417   6.164
 6376SOL     OW21024  13.364   8.005  10.826
 6376SOL    HW121025  13.432   7.937  10.823
 6376SOL    HW221026  13.413   8.087  10.827
 6377SOL     OW21027  11.671   4.063  14.494
 6377SOL    HW121028  11.726   4.004  14.545
 6377SOL    HW221029  11.581   4.042  14.521
 6378SOL     OW21030   9.541   6.828   4.032
 6378SOL    HW121031   9.496   6.897   4.082
 6378SOL    HW221032   9.518   6.845   3.941
 6379SOL     OW21033  14.570  10.345   1.159
 6379SOL    HW121034  14.488  10.308   1.192
 6379SOL    HW221035  14.594  10.411   1.223
 6380SOL     OW21036   6.411   1.212   9.544
 6380SOL    HW121037   6.356   1.288   9.564
 6380SOL    HW221038   6.364   1.138   9.582
 6381SOL     OW21039   2.443  13.493   2.530
 6381SOL    HW121040   2.363  13.516   2.577
 6381SOL    HW221041   2.469  13.408   2.565
 6382SOL     OW21042   7.073   8.025   8.541
 6382SOL    HW121043   7.169   8.030   8.533
 6382SOL    HW221044   7.041   8.043   8.452
 6383SOL     OW21045   0.840   0.150   2.987
 6383SOL    HW121046   0.860   0.220   2.925
 6383SOL    HW221047   0.795   0.084   2.935
 6384SOL     OW21048   9.196   7.448   4.612
 6384SOL    HW121049   9.259   7.482   4.675
 6384SOL    HW221050   9.245   7.442   4.530
 6385SOL     OW21051   1.287   2.270  14.239
 6385SOL    HW121052   1.306   2.359  14.265
 6385SOL    HW221053   1.364   2.242  14.190
 6386SOL     OW21054   5.466  12.247  12.153
 6386SOL    HW121055   5.384  12.200  12.170
 6386SOL    HW221056   5.504  12.260  12.240
 6387SOL     OW21057   5.846   6.017  12.730
 6387SOL    HW121058   5.803   6.086  12.780
 6387SOL    HW221059   5.936   6.017  12.763
 6388SOL     OW21060   1.901   8.088  10.422
 6388SOL    HW121061   1.813   8.122  10.442
 6388SOL    HW221062   1.886   7.997  10.397
 6389SOL     OW21063   6.508  11.587   6.922
 6389SOL    HW121064   6.521  11.633   6.839
 6389SOL    HW221065   6.413  11.578   6.930
 6390SOL     OW21066  10.003  13.549   9.635
 6390SOL    HW121067   9.966  13.474   9.589
 6390SOL    HW221068  10.081  13.515   9.679
 6391SOL     OW21069  10.339   3.006   6.232
 6391SOL    HW121070  10.380   2.996   6.146
 6391SOL    HW221071  10.382   2.941   6.287
 6392SOL     OW21072   0.855  12.342   7.388
 6392SOL    HW121073   0.835  12.394   7.310
 6392SOL    HW221074   0.787  12.275   7.389
 6393SOL     OW21075   5.545   3.033   9.358
 6393SOL    HW121076   5.609   3.013   9.427
 6393SOL    HW221077   5.526   3.126   9.370
 6394SOL     OW21078   5.584  13.851  11.346
 6394SOL    HW121079   5.498  13.867  11.307
 6394SOL    HW221080   5.581  13.896  11.430
 6395SOL     OW21081   5.880  13.628   6.393
 6395SOL    HW121082   5.842  13.668   6.471
 6395SOL    HW221083   5.974  13.644   6.401
 6396SOL     OW21084   8.577   3.511   3.216
 6396SOL    HW121085   8.670   3.509   3.238
 6396SOL    HW221086   8.534   3.532   3.298
 6397SOL     OW21087  12.416   1.886   7.164
 6397SOL    HW121088  12.508   1.878   7.188
 6397SOL    HW221089  12.410   1.970   7.118
 6398SOL     OW21090   8.449   5.598   5.532
 6398SOL    HW121091   8.515   5.588   5.601
 6398SOL    HW221092   8.400   5.516   5.533
 6399SOL     OW21093   7.221   8.315   2.495
 6399SOL    HW121094   7.246   8.289   2.584
 6399SOL    HW221095   7.163   8.245   2.465
 6400SOL     OW21096   4.976   7.474  14.369
 6400SOL    HW121097   4.960   7.527  14.448
 6400SOL    HW221098   4.943   7.528  14.297
 6401SOL     OW21099   3.538  11.246   2.657
 6401SOL    HW121100   3.489  11.173   2.619
 6401SOL    HW221101   3.484  11.323   2.640
 6402SOL     OW21102  12.889  14.048  13.510
 6402SOL    HW121103  12.944  14.115  13.550
 6402SOL    HW221104  12.943  14.010  13.441
 6403SOL     OW21105   7.096   3.595   4.438
 6403SOL    HW121106   7.112   3.688   4.454
 6403SOL    HW221107   7.183   3.555   4.433
 6404SOL     OW21108  10.706   6.954   0.746
 6404SOL    HW121109  10.796   6.941   0.714
 6404SOL    HW221110  10.697   7.049   0.754
 6405SOL     OW21111   3.760   0.207   9.019
 6405SOL    HW121112   3.728   0.205   8.929
 6405SOL    HW221113   3.828   0.140   9.022
 6406SOL     OW21114   8.478  11.561   0.230
 6406SOL    HW121115   8.505  11.648   0.256
 6406SOL    HW221116   8.466  11.514   0.313
 6407SOL     OW21117  12.807   2.990   5.333
 6407SOL    HW121118  12.881   3.027   5.285
 6407SOL    HW221119  12.739   3.057   5.326
 6408SOL     OW21120   2.274   6.618   3.760
 6408SOL    HW121121   2.236   6.553   3.819
 6408SOL    HW221122   2.336   6.569   3.706
 6409SOL     OW21123   9.884  14.479   6.213
 6409SOL    HW121124   9.820  14.548   6.195
 6409SOL    HW221125   9.832  14.398   6.213
 6410SOL     OW21126  14.437  10.271   8.696
 6410SOL    HW121127  14.517  10.323   8.685
 6410SOL    HW221128  14.367  10.335   8.700
 6411SOL     OW21129   7.153   8.158   5.910
 6411SOL    HW121130   7.068   8.196   5.934
 6411SOL    HW221131   7.207   8.234   5.888
 6412SOL     OW21132   8.538   2.688   4.237
 6412SOL    HW121133   8.599   2.705   4.166
 6412SOL    HW221134   8.562   2.601   4.268
 6413SOL     OW21135   7.584  12.686   0.874
 6413SOL    HW121136   7.624  12.659   0.791
 6413SOL    HW221137   7.632  12.636   0.941
 6414SOL     OW21138  10.075  10.442   9.461
 6414SOL    HW121139  10.062  10.535   9.444
 6414SOL    HW221140   9.995  10.415   9.507
 6415SOL     OW21141   1.701   2.904  10.040
 6415SOL    HW121142   1.740   2.821  10.010
 6415SOL    HW221143   1.747   2.971   9.989
 6416SOL     OW21144  12.468   2.667  10.242
 6416SOL    HW121145  12.436   2.750  10.276
 6416SOL    HW221146  12.451   2.672  10.148
 6417SOL     OW21147   2.472  13.885   3.725
 6417SOL    HW121148   2.474  13.803   3.774
 6417SOL    HW221149   2.521  13.947   3.779
 6418SOL     OW21150   4.786   0.074   2.539
 6418SOL    HW121151   4.695   0.103   2.548
 6418SOL    HW221152   4.786  14.855   2.576
 6419SOL     OW21153   7.069  14.794  13.370
 6419SOL    HW121154   7.145  14.793  13.313
 6419SOL    HW221155   7.023  14.712  13.350
 6420SOL     OW21156   6.844  10.091   5.517
 6420SOL    HW121157   6.860  10.134   5.601
 6420SOL    HW221158   6.763  10.130   5.485
 6421SOL     OW21159   0.324   4.220   0.620
 6421SOL    HW121160   0.368   4.289   0.669
 6421SOL    HW221161   0.235   4.218   0.657
 6422SOL     OW21162  10.677  14.133  10.781
 6422SOL    HW121163  10.703  14.045  10.753
 6422SOL    HW221164  10.664  14.181  10.699
 6423SOL     OW21165   1.481  12.865   2.766
 6423SOL    HW121166   1.423  12.917   2.822
 6423SOL    HW221167   1.497  12.921   2.690
 6424SOL     OW21168  13.835   2.522   6.771
 6424SOL    HW121169  13.758   2.490   6.818
 6424SOL    HW221170  13.851   2.456   6.703
 6425SOL     OW21171   9.347   8.797   0.645
 6425SOL    HW121172   9.335   8.882   0.689
 6425SOL    HW221173   9.442   8.785   0.644
 6426SOL     OW21174  14.823   7.283   1.010
 6426SOL    HW121175  14.824   7.187   1.014
 6426SOL    HW221176  14.817   7.311   1.101
 6427SOL     OW21177   0.708  14.620   6.426
 6427SOL    HW121178   0.722  14.563   6.501
 6427SOL    HW221179   0.677  14.702   6.463
 6428SOL     OW21180   3.396  10.200   0.597
 6428SOL    HW121181   3.310  10.171   0.628
 6428SOL    HW221182   3.380  10.231   0.508
 6429SOL     OW21183   8.683   4.262   6.796
 6429SOL    HW121184   8.766   4.231   6.761
 6429SOL    HW221185   8.665   4.343   6.748
 6430SOL     OW21186  12.559   0.221  11.558
 6430SOL    HW121187  12.595   0.259  11.638
 6430SOL    HW221188  12.478   0.270  11.542
 6431SOL     OW21189   3.053   6.662   1.913
 6431SOL    HW121190   3.059   6.692   1.822
 6431SOL    HW221191   2.973   6.609   1.916
 6432SOL     OW21192  10.951   1.454  12.994
 6432SOL    HW121193  10.964   1.517  13.065
 6432SOL    HW221194  10.928   1.508  12.918
 6433SOL     OW21195   7.394   0.221   5.058
 6433SOL    HW121196   7.336   0.293   5.082
 6433SOL    HW221197   7.445   0.255   4.984
 6434SOL     OW21198   8.541   4.537   0.858
 6434SOL    HW121199   8.521   4.622   0.818
 6434SOL    HW221200   8.620   4.554   0.910
 6435SOL     OW21201  13.786   2.793  13.762
 6435SOL    HW121202  13.879   2.802  13.782
 6435SOL    HW221203  13.781   2.806  13.667
 6436SOL     OW21204   0.352   7.059   8.009
 6436SOL    HW121205   0.398   7.037   7.927
 6436SOL    HW221206   0.375   7.150   8.026
 6437SOL     OW21207   1.262   5.267  14.575
 6437SOL    HW121208   1.339   5.277  14.520
 6437SOL    HW221209   1.193   5.313  14.527
 6438SOL     OW21210   0.708   5.899  13.401
 6438SOL    HW121211   0.721   5.989  13.433
 6438SOL    HW221212   0.791   5.876  13.360
 6439SOL     OW21213   3.314   4.028   5.578
 6439SOL    HW121214   3.257   4.026   5.502
 6439SOL    HW221215   3.392   4.076   5.549
 6440SOL     OW21216   4.071   4.486  10.137
 6440SOL    HW121217   4.064   4.542  10.214
 6440SOL    HW221218   4.141   4.525  10.085
 6441SOL     OW21219   9.665   5.478   5.994
 6441SOL    HW121220   9.672   5.385   6.011
 6441SOL    HW221221   9.749   5.515   6.022
 6442SOL     OW21222  12.777  12.758  14.289
 6442SOL    HW121223  12.773  12.806  14.372
 6442SOL    HW221224  12.726  12.811  14.228
 6443SOL     OW21225  12.889   6.873   3.608
 6443SOL    HW121226  12.863   6.782   3.623
 6443SOL    HW221227  12.915   6.904   3.695
 6444SOL     OW21228   4.027   6.180  13.532
 6444SOL    HW121229   4.093   6.111  13.536
 6444SOL    HW221230   4.075   6.261  13.545
 6445SOL     OW21231   6.601   2.620   3.535
 6445SOL    HW121232   6.599   2.647   3.626
 6445SOL    HW221233   6.576   2.699   3.486
 6446SOL     OW21234   2.558  12.534   3.427
 6446SOL    HW121235   2.473  12.560   3.392
 6446SOL    HW221236   2.597  12.480   3.358
 6447SOL     OW21237   5.363   3.311  14.765
 6447SOL    HW121238   5.339   3.386  14.819
 6447SOL    HW221239   5.440   3.339  14.717
 6448SOL     OW21240   6.876   1.729   3.037
 6448SOL    HW121241   6.942   1.717   2.969
 6448SOL    HW221242   6.927   1.748   3.116
 6449SOL     OW21243   1.115   7.158   4.779
 6449SOL    HW121244   1.129   7.247   4.747
 6449SOL    HW221245   1.043   7.166   4.842
 6450SOL     OW21246  13.862   3.498   3.335
 6450SOL    HW121247  13.881   3.561   3.404
 6450SOL    HW221248  13.803   3.545   3.276
 6451SOL     OW21249  10.337   2.158   3.690
 6451SOL    HW121250  10.301   2.245   3.672
 6451SOL    HW221251  10.297   2.133   3.774
 6452SOL     OW21252  13.033   8.060  14.093
 6452SOL    HW121253  13.060   8.094  14.178
 6452SOL    HW221254  12.996   7.974  14.111
 6453SOL     OW21255   6.251   9.915   1.859
 6453SOL    HW121256   6.167   9.951   1.886
 6453SOL    HW221257   6.310   9.937   1.931
 6454SOL     OW21258   0.747   9.786  14.653
 6454SOL    HW121259   0.753   9.757  14.744
 6454SOL    HW221260   0.788   9.716  14.602
 6455SOL     OW21261   3.456  11.130   0.381
 6455SOL    HW121262   3.446  11.154   0.473
 6455SOL    HW221263   3.368  11.104   0.353
 6456SOL     OW21264   3.550   3.642  11.652
 6456SOL    HW121265   3.519   3.567  11.703
 6456SOL    HW221266   3.533   3.718  11.708
 6457SOL     OW21267   8.214   6.817   6.359
 6457SOL    HW121268   8.140   6.757   6.366
 6457SOL    HW221269   8.174   6.904   6.358
 6458SOL     OW21270   9.525   9.378   2.365
 6458SOL    HW121271   9.481   9.385   2.280
 6458SOL    HW221272   9.527   9.285   2.384
 6459SOL     OW21273  11.593  11.511  10.771
 6459SOL    HW121274  11.682  11.542  10.787
 6459SOL    HW221275  11.584  11.433  10.825
 6460SOL     OW21276  12.633   5.858  12.021
 6460SOL    HW121277  12.670   5.784  11.971
 6460SOL    HW221278  12.704   5.921  12.027
 6461SOL     OW21279   6.322   6.697   2.348
 6461SOL    HW121280   6.403   6.733   2.384
 6461SOL    HW221281   6.310   6.742   2.265
 6462SOL     OW21282   5.576  14.215   4.573
 6462SOL    HW121283   5.518  14.267   4.629
 6462SOL    HW221284   5.519  14.180   4.505
 6463SOL     OW21285  13.210  13.640   7.371
 6463SOL    HW121286  13.188  13.650   7.279
 6463SOL    HW221287  13.240  13.549   7.379
 6464SOL     OW21288   4.122   9.686   4.149
 6464SOL    HW121289   4.143   9.713   4.238
 6464SOL    HW221290   4.087   9.765   4.108
 6465SOL     OW21291   2.248   6.737   6.656
 6465SOL    HW121292   2.235   6.742   6.751
 6465SOL    HW221293   2.165   6.701   6.623
 6466SOL     OW21294   6.745   7.891   9.635
 6466SOL    HW121295   6.717   7.894   9.543
 6466SOL    HW221296   6.795   7.971   9.648
 6467SOL     OW21297   3.296  12.302  14.755
 6467SOL    HW121298   3.364  12.273  14.693
 6467SOL    HW221299   3.342  12.360  14.815
 6468SOL     OW21300   9.785   3.989  11.361
 6468SOL    HW121301   9.814   4.015  11.448
 6468SOL    HW221302   9.693   4.015  11.357
 6469SOL     OW21303  13.551   6.190   2.550
 6469SOL    HW121304  13.575   6.283   2.557
 6469SOL    HW221305  13.604   6.147   2.617
 6470SOL     OW21306   9.399   3.365  13.765
 6470SOL    HW121307   9.414   3.329  13.678
 6470SOL    HW221308   9.303   3.373  13.770
 6471SOL     OW21309   2.129  11.970   5.604
 6471SOL    HW121310   2.167  11.895   5.649
 6471SOL    HW221311   2.199  12.035   5.600
 6472SOL     OW21312   2.055  12.370   7.546
 6472SOL    HW121313   2.130  12.429   7.539
 6472SOL    HW221314   2.087  12.286   7.511
 6473SOL     OW21315   1.779   3.195   2.251
 6473SOL    HW121316   1.868   3.161   2.246
 6473SOL    HW221317   1.784   3.280   2.208
 6474SOL     OW21318  13.773  10.927  11.250
 6474SOL    HW121319  13.853  10.942  11.199
 6474SOL    HW221320  13.770  10.832  11.263
 6475SOL     OW21321  13.439   0.946   3.943
 6475SOL    HW121322  13.345   0.954   3.931
 6475SOL    HW221323  13.448   0.902   4.028
 6476SOL     OW21324   7.491  10.049   3.994
 6476SOL    HW121325   7.404  10.017   3.970
 6476SOL    HW221326   7.475  10.107   4.069
 6477SOL     OW21327   0.265   8.229   9.301
 6477SOL    HW121328   0.174   8.249   9.323
 6477SOL    HW221329   0.316   8.286   9.358
 6478SOL     OW21330  14.068  10.179  12.277
 6478SOL    HW121331  14.077  10.274  12.265
 6478SOL    HW221332  14.000  10.169  12.343
 6479SOL     OW21333   8.737   2.648   4.979
 6479SOL    HW121334   8.701   2.732   4.951
 6479SOL    HW221335   8.706   2.638   5.069
 6480SOL     OW21336   5.999  11.340   8.325
 6480SOL    HW121337   6.084  11.303   8.300
 6480SOL    HW221338   5.940  11.264   8.330
 6481SOL     OW21339  13.219   1.747   0.382
 6481SOL    HW121340  13.291   1.684   0.384
 6481SOL    HW221341  13.250   1.817   0.325
 6482SOL     OW21342   0.544   2.743   1.609
 6482SOL    HW121343   0.640   2.742   1.600
 6482SOL    HW221344   0.523   2.658   1.647
 6483SOL     OW21345   6.117   4.465   3.421
 6483SOL    HW121346   6.184   4.410   3.462
 6483SOL    HW221347   6.085   4.521   3.492
 6484SOL     OW21348  12.348  14.640   6.804
 6484SOL    HW121349  12.419  14.691   6.765
 6484SOL    HW221350  12.370  14.549   6.785
 6485SOL     OW21351   7.574   0.018  14.594
 6485SOL    HW121352   7.601   0.049  14.680
 6485SOL    HW221353   7.514   0.085  14.561
 6486SOL     OW21354   4.829   4.941   3.206
 6486SOL    HW121355   4.917   4.912   3.183
 6486SOL    HW221356   4.773   4.914   3.133
 6487SOL     OW21357  11.810   5.865   6.755
 6487SOL    HW121358  11.772   5.938   6.805
 6487SOL    HW221359  11.737   5.805   6.742
 6488SOL     OW21360   6.668   2.741   5.735
 6488SOL    HW121361   6.671   2.749   5.830
 6488SOL    HW221362   6.623   2.658   5.720
 6489SOL     OW21363  14.596  13.252   5.225
 6489SOL    HW121364  14.517  13.285   5.267
 6489SOL    HW221365  14.657  13.326   5.226
 6490SOL     OW21366  11.029  12.793   7.527
 6490SOL    HW121367  11.000  12.884   7.537
 6490SOL    HW221368  10.957  12.749   7.481
 6491SOL     OW21369   5.845  14.467  12.653
 6491SOL    HW121370   5.925  14.417  12.637
 6491SOL    HW221371   5.812  14.488  12.566
 6492SOL     OW21372  14.344  14.491  11.818
 6492SOL    HW121373  14.402  14.415  11.814
 6492SOL    HW221374  14.263  14.461  11.778
 6493SOL     OW21375   1.378   5.130  14.184
 6493SOL    HW121376   1.300   5.182  14.202
 6493SOL    HW221377   1.365   5.049  14.233
 6494SOL     OW21378  10.361   3.112   3.793
 6494SOL    HW121379  10.325   3.179   3.852
 6494SOL    HW221380  10.453   3.105   3.818
 6495SOL     OW21381   2.087   5.711   1.405
 6495SOL    HW121382   2.098   5.682   1.315
 6495SOL    HW221383   2.159   5.670   1.453
 6496SOL     OW21384   5.776  14.032   4.617
 6496SOL    HW121385   5.697  14.080   4.592
 6496SOL    HW221386   5.777  13.956   4.558
 6497SOL     OW21387  12.069   8.085   3.023
 6497SOL    HW121388  12.107   8.025   3.088
 6497SOL    HW221389  12.114   8.168   3.038
 6498SOL     OW21390  12.227   2.877   7.876
 6498SOL    HW121391  12.251   2.969   7.876
 6498SOL    HW221392  12.202   2.858   7.785
 6499SOL     OW21393   7.957   3.370   1.969
 6499SOL    HW121394   7.895   3.348   2.039
 6499SOL    HW221395   8.013   3.437   2.007
 6500SOL     OW21396  13.665   1.881   1.370
 6500SOL    HW121397  13.616   1.917   1.296
 6500SOL    HW221398  13.619   1.914   1.448
 6501SOL     OW21399  10.425  11.015  10.022
 6501SOL    HW121400  10.443  11.015  10.116
 6501SOL    HW221401  10.424  11.108   9.998
 6502SOL     OW21402   6.411   4.007  13.276
 6502SOL    HW121403   6.373   4.035  13.193
 6502SOL    HW221404   6.350   3.941  13.310
 6503SOL     OW21405   1.812  11.273   5.601
 6503SOL    HW121406   1.804  11.332   5.527
 6503SOL    HW221407   1.844  11.191   5.563
 6504SOL     OW21408  11.739   2.120   4.378
 6504SOL    HW121409  11.772   2.198   4.333
 6504SOL    HW221410  11.763   2.047   4.321
 6505SOL     OW21411   6.458   3.614   3.056
 6505SOL    HW121412   6.528   3.617   2.990
 6505SOL    HW221413   6.409   3.694   3.043
 6506SOL     OW21414  12.182   3.072   9.724
 6506SOL    HW121415  12.210   3.120   9.802
 6506SOL    HW221416  12.113   3.127   9.686
 6507SOL     OW21417   6.464  11.693   0.620
 6507SOL    HW121418   6.418  11.623   0.666
 6507SOL    HW221419   6.555  11.663   0.616
 6508SOL     OW21420   2.249   3.766   7.733
 6508SOL    HW121421   2.262   3.843   7.788
 6508SOL    HW221422   2.337   3.731   7.721
 6509SOL     OW21423   8.584   8.155  14.794
 6509SOL    HW121424   8.559   8.063  14.786
 6509SOL    HW221425   8.513   8.194  14.845
 6510SOL     OW21426  11.183  13.483   2.726
 6510SOL    HW121427  11.261  13.474   2.671
 6510SOL    HW221428  11.211  13.457   2.813
 6511SOL     OW21429  13.106  10.966   9.057
 6511SOL    HW121430  13.036  10.971   9.122
 6511SOL    HW221431  13.180  10.929   9.104
 6512SOL     OW21432   7.876   5.329   9.000
 6512SOL    HW121433   7.896   5.354   9.090
 6512SOL    HW221434   7.811   5.393   8.971
 6513SOL     OW21435  11.620   2.428  10.241
 6513SOL    HW121436  11.564   2.405  10.315
 6513SOL    HW221437  11.709   2.411  10.273
 6514SOL     OW21438  10.979   3.324   0.929
 6514SOL    HW121439  11.048   3.267   0.962
 6514SOL    HW221440  10.899   3.271   0.936
 6515SOL     OW21441   7.885  12.711  10.250
 6515SOL    HW121442   7.865  12.784  10.190
 6515SOL    HW221443   7.887  12.751  10.336
 6516SOL     OW21444  13.200   8.613   6.855
 6516SOL    HW121445  13.246   8.597   6.772
 6516SOL    HW221446  13.108   8.596   6.835
 6517SOL     OW21447  13.995  13.040   7.902
 6517SOL    HW121448  13.975  13.020   7.810
 6517SOL    HW221449  13.997  13.136   7.906
 6518SOL     OW21450   6.844   4.177   8.720
 6518SOL    HW121451   6.816   4.162   8.810
 6518SOL    HW221452   6.937   4.154   8.721
 6519SOL     OW21453  14.240  12.128  12.915
 6519SOL    HW121454  14.238  12.064  12.843
 6519SOL    HW221455  14.303  12.194  12.887
 6520SOL     OW21456   7.284   4.020  11.158
 6520SOL    HW121457   7.295   4.116  11.156
 6520SOL    HW221458   7.287   3.997  11.250
 6521SOL     OW21459  13.942   6.845   1.337
 6521SOL    HW121460  13.979   6.760   1.361
 6521SOL    HW221461  13.870   6.824   1.277
 6522SOL     OW21462   3.802  11.880   9.246
 6522SOL    HW121463   3.898  11.882   9.247
 6522SOL    HW221464   3.779  11.804   9.299
 6523SOL     OW21465  11.936   1.565   0.248
 6523SOL    HW121466  11.871   1.625   0.284
 6523SOL    HW221467  12.007   1.566   0.311
 6524SOL     OW21468  14.711  10.393   6.190
 6524SOL    HW121469  14.778  10.442   6.239
 6524SOL    HW221470  14.741  10.397   6.100
 6525SOL     OW21471   5.759   2.713  12.600
 6525SOL    HW121472   5.667   2.730  12.623
 6525SOL    HW221473   5.801   2.799  12.607
 6526SOL     OW21474  11.211   2.088   4.065
 6526SOL    HW121475  11.171   2.017   4.116
 6526SOL    HW221476  11.254   2.143   4.130
 6527SOL     OW21477   9.662  13.173   4.828
 6527SOL    HW121478   9.634  13.123   4.904
 6527SOL    HW221479   9.755  13.154   4.819
 6528SOL     OW21480   7.276   7.033  12.180
 6528SOL    HW121481   7.262   7.074  12.265
 6528SOL    HW221482   7.289   7.107  12.120
 6529SOL     OW21483   5.698   0.834   1.890
 6529SOL    HW121484   5.638   0.884   1.945
 6529SOL    HW221485   5.741   0.900   1.835
 6530SOL     OW21486   8.198   5.175  13.213
 6530SOL    HW121487   8.217   5.087  13.246
 6530SOL    HW221488   8.218   5.232  13.287
 6531SOL     OW21489   2.238   3.056  14.844
 6531SOL    HW121490   2.167   3.119  14.834
 6531SOL    HW221491   2.199   2.972  14.821
 6532SOL     OW21492   5.169  10.875  13.615
 6532SOL    HW121493   5.162  10.851  13.707
 6532SOL    HW221494   5.234  10.946  13.614
 6533SOL     OW21495   0.858   8.752   5.616
 6533SOL    HW121496   0.822   8.751   5.527
 6533SOL    HW221497   0.905   8.669   5.624
 6534SOL     OW21498  12.545   5.208   8.743
 6534SOL    HW121499  12.476   5.199   8.678
 6534SOL    HW221500  12.522   5.147   8.812
 6535SOL     OW21501   7.286   9.466  13.595
 6535SOL    HW121502   7.330   9.388  13.560
 6535SOL    HW221503   7.223   9.432  13.658
 6536SOL     OW21504  13.680   4.791   4.960
 6536SOL    HW121505  13.674   4.796   5.055
 6536SOL    HW221506  13.628   4.865   4.928
 6537SOL     OW21507  12.665   6.153   9.621
 6537SOL    HW121508  12.740   6.212   9.616
 6537SOL    HW221509  12.590   6.207   9.597
 6538SOL     OW21510  12.918   0.894   0.430
 6538SOL    HW121511  12.972   0.966   0.463
 6538SOL    HW221512  12.977   0.818   0.431
 6539SOL     OW21513  13.591   1.693   6.470
 6539SOL    HW121514  13.640   1.643   6.536
 6539SOL    HW221515  13.536   1.628   6.427
 6540SOL     OW21516  14.200   4.762  14.531
 6540SOL    HW121517  14.159   4.830  14.477
 6540SOL    HW221518  14.283   4.744  14.487
 6541SOL     OW21519  10.538   5.959   9.960
 6541SOL    HW121520  10.554   5.981  10.052
 6541SOL    HW221521  10.469   5.892   9.964
 6542SOL     OW21522   2.097   7.417   8.202
 6542SOL    HW121523   2.102   7.512   8.195
 6542SOL    HW221524   2.029   7.392   8.139
 6543SOL     OW21525   2.076   5.237   8.588
 6543SOL    HW121526   2.113   5.149   8.592
 6543SOL    HW221527   2.018   5.234   8.512
 6544SOL     OW21528  10.633  13.688  11.223
 6544SOL    HW121529  10.671  13.685  11.311
 6544SOL    HW221530  10.677  13.761  11.180
 6545SOL     OW21531   6.032   5.258   7.626
 6545SOL    HW121532   6.004   5.349   7.621
 6545SOL    HW221533   6.127   5.261   7.614
 6546SOL     OW21534   8.104  14.781  10.637
 6546SOL    HW121535   8.114   0.005  10.656
 6546SOL    HW221536   8.054  14.779  10.556
 6547SOL     OW21537   9.276  14.418  11.444
 6547SOL    HW121538   9.276  14.398  11.537
 6547SOL    HW221539   9.346  14.483  11.434
 6548SOL     OW21540  14.468   5.279  14.740
 6548SOL    HW121541  14.447   5.188  14.719
 6548SOL    HW221542  14.429   5.330  14.669
 6549SOL     OW21543   0.634   7.861  13.803
 6549SOL    HW121544   0.697   7.926  13.770
 6549SOL    HW221545   0.688   7.786  13.827
 6550SOL     OW21546  12.426  11.224   6.600
 6550SOL    HW121547  12.485  11.161   6.642
 6550SOL    HW221548  12.484  11.278   6.547
 6551SOL     OW21549   5.103   4.865   1.074
 6551SOL    HW121550   5.046   4.788   1.072
 6551SOL    HW221551   5.074   4.914   1.150
 6552SOL     OW21552  13.800  10.841   0.650
 6552SOL    HW121553  13.785  10.899   0.724
 6552SOL    HW221554  13.727  10.779   0.653
 6553SOL     OW21555   0.294  14.639   9.286
 6553SOL    HW121556   0.245  14.592   9.219
 6553SOL    HW221557   0.380  14.656   9.246
 6554SOL     OW21558   8.954   5.476   2.853
 6554SOL    HW121559   8.951   5.380   2.851
 6554SOL    HW221560   8.866   5.502   2.882
 6555SOL     OW21561  11.359   8.218  14.799
 6555SOL    HW121562  11.285   8.270  14.831
 6555SOL    HW221563  11.426   8.283  14.778
 6556SOL     OW21564   2.833   9.656   6.344
 6556SOL    HW121565   2.779   9.723   6.302
 6556SOL    HW221566   2.808   9.574   6.301
 6557SOL     OW21567   2.341   2.123   9.892
 6557SOL    HW121568   2.346   2.034   9.858
 6557SOL    HW221569   2.382   2.177   9.824
 6558SOL     OW21570   9.608   2.277  14.034
 6558SOL    HW121571   9.610   2.208  14.101
 6558SOL    HW221572   9.563   2.350  14.077
 6559SOL     OW21573   3.015   8.328   0.772
 6559SOL    HW121574   3.090   8.367   0.816
 6559SOL    HW221575   3.032   8.234   0.776
 6560SOL     OW21576   8.915   0.671   0.546
 6560SOL    HW121577   8.904   0.697   0.454
 6560SOL    HW221578   9.009   0.674   0.560
 6561SOL     OW21579   9.056  12.554  11.134
 6561SOL    HW121580   9.107  12.496  11.191
 6561SOL    HW221581   8.965  12.523  11.143
 6562SOL     OW21582   7.753  12.326  12.038
 6562SOL    HW121583   7.836  12.365  12.009
 6562SOL    HW221584   7.746  12.350  12.130
 6563SOL     OW21585  12.265  11.659   7.157
 6563SOL    HW121586  12.219  11.598   7.099
 6563SOL    HW221587  12.246  11.627   7.245
 6564SOL     OW21588   3.100   6.416   8.994
 6564SOL    HW121589   3.129   6.325   8.990
 6564SOL    HW221590   3.005   6.412   8.989
 6565SOL     OW21591  11.980   9.421  14.792
 6565SOL    HW121592  12.026   9.505  14.790
 6565SOL    HW221593  11.979   9.392  14.701
 6566SOL     OW21594   2.317  13.690   1.919
 6566SOL    HW121595   2.356  13.622   1.974
 6566SOL    HW221596   2.338  13.772   1.963
 6567SOL     OW21597   9.158   7.897   8.073
 6567SOL    HW121598   9.065   7.873   8.070
 6567SOL    HW221599   9.158   7.988   8.105
 6568SOL     OW21600   8.431  11.746   7.916
 6568SOL    HW121601   8.441  11.819   7.854
 6568SOL    HW221602   8.447  11.668   7.864
 6569SOL     OW21603   3.773  12.859   6.745
 6569SOL    HW121604   3.860  12.851   6.707
 6569SOL    HW221605   3.787  12.904   6.828
 6570SOL     OW21606   2.585   3.628   7.409
 6570SOL    HW121607   2.511   3.674   7.450
 6570SOL    HW221608   2.600   3.674   7.327
 6571SOL     OW21609   3.335  11.964   3.517
 6571SOL    HW121610   3.372  12.044   3.555
 6571SOL    HW221611   3.325  11.984   3.424
 6572SOL     OW21612   0.031  10.043  13.590
 6572SOL    HW121613  14.826  10.057  13.648
 6572SOL    HW221614   0.022   9.952  13.562
 6573SOL     OW21615   3.003  12.143   3.500
 6573SOL    HW121616   3.047  12.080   3.443
 6573SOL    HW221617   2.918  12.156   3.459
 6574SOL     OW21618   1.875   4.299  12.668
 6574SOL    HW121619   1.844   4.209  12.656
 6574SOL    HW221620   1.934   4.315  12.594
 6575SOL     OW21621  12.443   6.789  12.048
 6575SOL    HW121622  12.395   6.793  12.131
 6575SOL    HW221623  12.387   6.735  11.992
 6576SOL     OW21624  10.304   3.900   6.306
 6576SOL    HW121625  10.293   3.984   6.261
 6576SOL    HW221626  10.215   3.874   6.331
 6577SOL     OW21627  13.126  14.527   8.439
 6577SOL    HW121628  13.195  14.487   8.491
 6577SOL    HW221629  13.045  14.497   8.481
 6578SOL     OW21630   9.328  12.791  10.713
 6578SOL    HW121631   9.242  12.832  10.713
 6578SOL    HW221632   9.310  12.697  10.709
 6579SOL     OW21633  13.687   1.142   5.973
 6579SOL    HW121634  13.615   1.159   6.033
 6579SOL    HW221635  13.675   1.051   5.945
 6580SOL     OW21636   9.900   0.615   7.434
 6580SOL    HW121637   9.880   0.536   7.484
 6580SOL    HW221638   9.838   0.613   7.361
 6581SOL     OW21639   2.708  10.292   7.702
 6581SOL    HW121640   2.764  10.310   7.777
 6581SOL    HW221641   2.708  10.374   7.652
 6582SOL     OW21642   2.948   7.987   6.670
 6582SOL    HW121643   3.017   8.039   6.710
 6582SOL    HW221644   2.987   7.900   6.659
 6583SOL     OW21645   6.476   3.852  11.103
 6583SOL    HW121646   6.411   3.835  11.171
 6583SOL    HW221647   6.426   3.851  11.021
 6584SOL     OW21648  12.390   0.262  12.465
 6584SOL    HW121649  12.369   0.344  12.421
 6584SOL    HW221650  12.486   0.261  12.470
 6585SOL     OW21651   9.327   6.736   7.402
 6585SOL    HW121652   9.302   6.820   7.440
 6585SOL    HW221653   9.257   6.716   7.340
 6586SOL     OW21654   1.860  13.125   9.041
 6586SOL    HW121655   1.848  13.213   9.004
 6586SOL    HW221656   1.940  13.092   8.999
 6587SOL     OW21657   4.989   2.654  12.085
 6587SOL    HW121658   4.973   2.747  12.070
 6587SOL    HW221659   5.084   2.647  12.093
 6588SOL     OW21660   1.235  13.250   4.995
 6588SOL    HW121661   1.213  13.172   4.944
 6588SOL    HW221662   1.209  13.229   5.085
 6589SOL     OW21663  10.756  14.789  13.350
 6589SOL    HW121664  10.833  14.772  13.404
 6589SOL    HW221665  10.687  14.812  13.412
 6590SOL     OW21666   3.356   4.419   5.571
 6590SOL    HW121667   3.336   4.478   5.499
 6590SOL    HW221668   3.279   4.362   5.577
 6591SOL     OW21669  14.534   0.717  13.349
 6591SOL    HW121670  14.464   0.663  13.311
 6591SOL    HW221671  14.606   0.655  13.364
 6592SOL     OW21672  12.548  14.291   8.814
 6592SOL    HW121673  12.633  14.254   8.791
 6592SOL    HW221674  12.510  14.318   8.730
 6593SOL     OW21675  13.665   7.921   7.785
 6593SOL    HW121676  13.627   7.922   7.873
 6593SOL    HW221677  13.589   7.912   7.727
 6594SOL     OW21678   8.908   3.542   1.797
 6594SOL    HW121679   8.908   3.637   1.781
 6594SOL    HW221680   8.960   3.506   1.726
 6595SOL     OW21681   9.950  12.490   5.412
 6595SOL    HW121682   9.890  12.442   5.469
 6595SOL    HW221683  10.029  12.436   5.410
 6596SOL     OW21684   1.631   2.740  13.011
 6596SOL    HW121685   1.641   2.780  12.925
 6596SOL    HW221686   1.645   2.812  13.072
 6597SOL     OW21687   4.335   7.184  11.547
 6597SOL    HW121688   4.350   7.201  11.454
 6597SOL    HW221689   4.409   7.228  11.591
 6598SOL     OW21690   9.474   5.549   9.641
 6598SOL    HW121691   9.492   5.637   9.674
 6598SOL    HW221692   9.536   5.493   9.688
 6599SOL     OW21693  14.212  10.408  14.588
 6599SOL    HW121694  14.211  10.502  14.605
 6599SOL    HW221695  14.120  10.385  14.576
 6600SOL     OW21696   9.648  12.530  11.486
 6600SOL    HW121697   9.592  12.567  11.418
 6600SOL    HW221698   9.590  12.471  11.534
 6601SOL     OW21699   1.997   2.197   7.450
 6601SOL    HW121700   2.017   2.103   7.444
 6601SOL    HW221701   1.920   2.202   7.506
 6602SOL     OW21702  11.422   1.026  12.713
 6602SOL    HW121703  11.345   1.046  12.765
 6602SOL    HW221704  11.493   1.073  12.756
 6603SOL     OW21705   9.946   6.087  13.080
 6603SOL    HW121706   9.930   5.997  13.110
 6603SOL    HW221707  10.024   6.080  13.024
 6604SOL     OW21708   2.473   2.964   2.068
 6604SOL    HW121709   2.378   2.981   2.070
 6604SOL    HW221710   2.483   2.890   2.008
 6605SOL     OW21711   3.074   3.945   7.813
 6605SOL    HW121712   3.067   4.033   7.849
 6605SOL    HW221713   3.113   3.957   7.727
 6606SOL     OW21714   7.730  12.410   9.802
 6606SOL    HW121715   7.720  12.354   9.724
 6606SOL    HW221716   7.641  12.418   9.836
 6607SOL     OW21717   6.970   6.510   7.848
 6607SOL    HW121718   6.944   6.429   7.804
 6607SOL    HW221719   7.045   6.542   7.797
 6608SOL     OW21720   2.115   0.339   1.142
 6608SOL    HW121721   2.147   0.281   1.074
 6608SOL    HW221722   2.180   0.333   1.212
 6609SOL     OW21723  11.385   8.217  10.945
 6609SOL    HW121724  11.344   8.304  10.947
 6609SOL    HW221725  11.422   8.209  10.858
 6610SOL     OW21726   3.524   3.620  11.276
 6610SOL    HW121727   3.593   3.586  11.334
 6610SOL    HW221728   3.475   3.681  11.331
 6611SOL     OW21729   5.753   1.637   0.212
 6611SOL    HW121730   5.662   1.647   0.186
 6611SOL    HW221731   5.755   1.555   0.261
 6612SOL     OW21732   3.702  14.698  10.436
 6612SOL    HW121733   3.768  14.668  10.374
 6612SOL    HW221734   3.712  14.640  10.512
 6613SOL     OW21735   6.186   7.650   4.755
 6613SOL    HW121736   6.234   7.731   4.735
 6613SOL    HW221737   6.099   7.680   4.781
 6614SOL     OW21738   8.213   0.668  14.142
 6614SOL    HW121739   8.232   0.720  14.063
 6614SOL    HW221740   8.218   0.731  14.214
 6615SOL     OW21741   0.146   0.939   6.748
 6615SOL    HW121742   0.107   0.965   6.665
 6615SOL    HW221743   0.072   0.928   6.808
 6616SOL     OW21744  10.563   3.258   6.372
 6616SOL    HW121745  10.492   3.222   6.318
 6616SOL    HW221746  10.520   3.323   6.427
 6617SOL     OW21747  13.854  14.747  12.547
 6617SOL    HW121748  13.815  14.776  12.465
 6617SOL    HW221749  13.904  14.822  12.578
 6618SOL     OW21750   8.751   5.465  11.615
 6618SOL    HW121751   8.693   5.401  11.574
 6618SOL    HW221752   8.835   5.454  11.570
 6619SOL     OW21753   7.024  11.374  14.328
 6619SOL    HW121754   6.963  11.358  14.256
 6619SOL    HW221755   6.984  11.329  14.403
 6620SOL     OW21756   3.453  10.285   4.042
 6620SOL    HW121757   3.407  10.251   4.119
 6620SOL    HW221758   3.432  10.378   4.040
 6621SOL     OW21759  10.465   5.409  11.148
 6621SOL    HW121760  10.541   5.467  11.152
 6621SOL    HW221761  10.488   5.336  11.205
 6622SOL     OW21762   5.743  12.586   0.344
 6622SOL    HW121763   5.821  12.613   0.392
 6622SOL    HW221764   5.734  12.650   0.274
 6623SOL     OW21765   3.229  14.196   3.789
 6623SOL    HW121766   3.208  14.188   3.696
 6623SOL    HW221767   3.325  14.194   3.791
 6624SOL     OW21768   2.205  11.061  12.017
 6624SOL    HW121769   2.134  11.052  11.953
 6624SOL    HW221770   2.212  11.156  12.031
 6625SOL     OW21771   0.551  10.825   7.474
 6625SOL    HW121772   0.458  10.804   7.481
 6625SOL    HW221773   0.578  10.787   7.391
 6626SOL     OW21774   1.676   3.466   1.604
 6626SOL    HW121775   1.756   3.482   1.554
 6626SOL    HW221776   1.699   3.490   1.694
 6627SOL     OW21777   4.810   9.580  10.967
 6627SOL    HW121778   4.904   9.591  10.951
 6627SOL    HW221779   4.779   9.529  10.893
 6628SOL     OW21780   4.564  10.030   5.442
 6628SOL    HW121781   4.481  10.037   5.490
 6628SOL    HW221782   4.631  10.039   5.509
 6629SOL     OW21783   1.812  12.385   7.125
 6629SOL    HW121784   1.864  12.312   7.158
 6629SOL    HW221785   1.730  12.381   7.175
 6630SOL     OW21786   9.101   7.492  11.160
 6630SOL    HW121787   9.084   7.585  11.145
 6630SOL    HW221788   9.190   7.489  11.195
 6631SOL     OW21789   6.978   7.151   8.670
 6631SOL    HW121790   6.939   7.065   8.686
 6631SOL    HW221791   6.918   7.193   8.608
 6632SOL     OW21792  12.782  14.548   4.615
 6632SOL    HW121793  12.847  14.479   4.605
 6632SOL    HW221794  12.742  14.557   4.529
 6633SOL     OW21795  12.308   3.055  14.352
 6633SOL    HW121796  12.263   3.137  14.333
 6633SOL    HW221797  12.293   3.041  14.446
 6634SOL     OW21798  12.381  14.427   0.023
 6634SOL    HW121799  12.401  14.333   0.025
 6634SOL    HW221800  12.288  14.432   0.043
 6635SOL     OW21801  10.841  13.534   4.028
 6635SOL    HW121802  10.911  13.566   4.086
 6635SOL    HW221803  10.821  13.446   4.061
 6636SOL     OW21804  11.612   6.149   1.935
 6636SOL    HW121805  11.689   6.186   1.979
 6636SOL    HW221806  11.549   6.134   2.005
 6637SOL     OW21807   1.289   1.007   2.121
 6637SOL    HW121808   1.334   0.967   2.046
 6637SOL    HW221809   1.244   1.083   2.084
 6638SOL     OW21810   0.191   5.041   8.850
 6638SOL    HW121811   0.123   5.079   8.795
 6638SOL    HW221812   0.257   5.009   8.789
 6639SOL     OW21813   0.286   1.412   9.685
 6639SOL    HW121814   0.194   1.440   9.688
 6639SOL    HW221815   0.282   1.317   9.673
 6640SOL     OW21816   8.646   3.834   8.366
 6640SOL    HW121817   8.679   3.761   8.314
 6640SOL    HW221818   8.718   3.897   8.368
 6641SOL     OW21819   7.177   8.792   7.337
 6641SOL    HW121820   7.250   8.850   7.360
 6641SOL    HW221821   7.142   8.763   7.421
 6642SOL     OW21822   6.304   0.376   1.672
 6642SOL    HW121823   6.375   0.383   1.735
 6642SOL    HW221824   6.265   0.290   1.689
 6643SOL     OW21825   5.095   0.954   4.817
 6643SOL    HW121826   5.048   1.035   4.796
 6643SOL    HW221827   5.139   0.929   4.736
 6644SOL     OW21828   4.158   1.293  11.369
 6644SOL    HW121829   4.187   1.332  11.286
 6644SOL    HW221830   4.065   1.311  11.373
 6645SOL     OW21831   8.301  12.810   8.970
 6645SOL    HW121832   8.360  12.875   9.007
 6645SOL    HW221833   8.303  12.826   8.876
 6646SOL     OW21834   7.570   3.527   9.039
 6646SOL    HW121835   7.606   3.509   8.953
 6646SOL    HW221836   7.646   3.521   9.098
 6647SOL     OW21837   3.177   8.084   4.490
 6647SOL    HW121838   3.188   8.047   4.578
 6647SOL    HW221839   3.267   8.103   4.461
 6648SOL     OW21840   2.105   0.255  11.894
 6648SOL    HW121841   2.127   0.347  11.908
 6648SOL    HW221842   2.091   0.248  11.799
 6649SOL     OW21843   5.486   2.409   0.791
 6649SOL    HW121844   5.473   2.391   0.698
 6649SOL    HW221845   5.438   2.340   0.836
 6650SOL     OW21846   5.436   4.002   8.729
 6650SOL    HW121847   5.519   4.032   8.692
 6650SOL    HW221848   5.458   3.977   8.819
 6651SOL     OW21849   7.389   2.707   8.482
 6651SOL    HW121850   7.309   2.753   8.455
 6651SOL    HW221851   7.455   2.735   8.418
 6652SOL     OW21852   2.855   5.233   6.708
 6652SOL    HW121853   2.839   5.323   6.681
 6652SOL    HW221854   2.905   5.240   6.789
 6653SOL     OW21855   2.606   3.297   7.208
 6653SOL    HW121856   2.591   3.205   7.230
 6653SOL    HW221857   2.593   3.303   7.114
 6654SOL     OW21858  11.991   4.991   9.069
 6654SOL    HW121859  12.032   5.001   9.154
 6654SOL    HW221860  12.052   5.032   9.007
 6655SOL     OW21861   6.525   2.765   0.844
 6655SOL    HW121862   6.561   2.772   0.756
 6655SOL    HW221863   6.430   2.761   0.831
 6656SOL     OW21864   1.317  12.382  14.386
 6656SOL    HW121865   1.267  12.388  14.305
 6656SOL    HW221866   1.402  12.348  14.359
 6657SOL     OW21867   7.362  13.064   9.257
 6657SOL    HW121868   7.452  13.065   9.222
 6657SOL    HW221869   7.323  12.984   9.221
 6658SOL     OW21870   5.196  10.926   6.926
 6658SOL    HW121871   5.178  10.968   7.010
 6658SOL    HW221872   5.243  10.992   6.875
 6659SOL     OW21873  13.360  14.055   3.557
 6659SOL    HW121874  13.266  14.063   3.543
 6659SOL    HW221875  13.399  14.113   3.491
 6660SOL     OW21876   3.372   1.315   2.613
 6660SOL    HW121877   3.333   1.338   2.529
 6660SOL    HW221878   3.451   1.267   2.591
 6661SOL     OW21879   4.090   7.731   0.907
 6661SOL    HW121880   4.004   7.695   0.889
 6661SOL    HW221881   4.130   7.668   0.967
 6662SOL     OW21882   4.243  13.442   1.654
 6662SOL    HW121883   4.241  13.355   1.693
 6662SOL    HW221884   4.182  13.494   1.707
 6663SOL     OW21885   1.697  13.370   8.445
 6663SOL    HW121886   1.779  13.419   8.447
 6663SOL    HW221887   1.700  13.322   8.362
 6664SOL     OW21888   6.078   0.662   2.940
 6664SOL    HW121889   6.160   0.661   2.891
 6664SOL    HW221890   6.077   0.578   2.985
 6665SOL     OW21891  10.809   0.352   6.740
 6665SOL    HW121892  10.896   0.393   6.739
 6665SOL    HW221893  10.827   0.259   6.756
 6666SOL     OW21894   0.976   1.153   2.045
 6666SOL    HW121895   0.998   1.246   2.053
 6666SOL    HW221896   0.956   1.142   1.952
 6667SOL     OW21897   5.212   5.194   1.663
 6667SOL    HW121898   5.258   5.226   1.741
 6667SOL    HW221899   5.188   5.104   1.685
 6668SOL     OW21900   1.024  11.424  10.318
 6668SOL    HW121901   0.988  11.341  10.284
 6668SOL    HW221902   1.047  11.474  10.240
 6669SOL     OW21903  12.986  11.749   2.835
 6669SOL    HW121904  13.035  11.734   2.916
 6669SOL    HW221905  13.052  11.745   2.766
 6670SOL     OW21906  14.330   0.613   9.918
 6670SOL    HW121907  14.393   0.684   9.933
 6670SOL    HW221908  14.245   0.654   9.929
 6671SOL     OW21909   8.058   9.625   0.667
 6671SOL    HW121910   7.981   9.600   0.615
 6671SOL    HW221911   8.101   9.543   0.688
 6672SOL     OW21912   5.774  11.658   7.818
 6672SOL    HW121913   5.812  11.640   7.732
 6672SOL    HW221914   5.848  11.652   7.878
 6673SOL     OW21915   4.396   9.451  12.599
 6673SOL    HW121916   4.418   9.390  12.528
 6673SOL    HW221917   4.480   9.482  12.631
 6674SOL     OW21918   5.295   6.762  12.659
 6674SOL    HW121919   5.286   6.832  12.723
 6674SOL    HW221920   5.390   6.753  12.648
 6675SOL     OW21921  11.562  10.568   3.449
 6675SOL    HW121922  11.513  10.526   3.519
 6675SOL    HW221923  11.616  10.634   3.493
 6676SOL     OW21924   4.138   1.671   5.166
 6676SOL    HW121925   4.121   1.754   5.211
 6676SOL    HW221926   4.226   1.681   5.131
 6677SOL     OW21927   1.574   3.854  11.379
 6677SOL    HW121928   1.638   3.863  11.308
 6677SOL    HW221929   1.581   3.763  11.407
 6678SOL     OW21930   0.191   7.452   4.527
 6678SOL    HW121931   0.152   7.379   4.575
 6678SOL    HW221932   0.201   7.420   4.438
 6679SOL     OW21933   2.764   7.552  11.155
 6679SOL    HW121934   2.769   7.646  11.137
 6679SOL    HW221935   2.805   7.510  11.079
 6680SOL     OW21936   2.461   9.523  14.002
 6680SOL    HW121937   2.445   9.474  13.921
 6680SOL    HW221938   2.428   9.611  13.983
 6681SOL     OW21939  10.279   1.103   7.215
 6681SOL    HW121940  10.319   1.182   7.180
 6681SOL    HW221941  10.199   1.133   7.258
 6682SOL     OW21942   5.148   8.348   8.417
 6682SOL    HW121943   5.242   8.342   8.432
 6682SOL    HW221944   5.130   8.442   8.417
 6683SOL     OW21945  12.412  11.125  12.393
 6683SOL    HW121946  12.353  11.057  12.424
 6683SOL    HW221947  12.354  11.193  12.359
 6684SOL     OW21948  11.828  12.846   3.863
 6684SOL    HW121949  11.856  12.829   3.773
 6684SOL    HW221950  11.732  12.852   3.857
 6685SOL     OW21951   4.997   0.758   8.911
 6685SOL    HW121952   4.970   0.835   8.960
 6685SOL    HW221953   5.051   0.708   8.972
 6686SOL     OW21954   4.284  11.668  13.327
 6686SOL    HW121955   4.302  11.749  13.277
 6686SOL    HW221956   4.191  11.651  13.312
 6687SOL     OW21957   4.707   4.134  11.572
 6687SOL    HW121958   4.765   4.058  11.572
 6687SOL    HW221959   4.619   4.098  11.581
 6688SOL     OW21960  14.011   5.052  14.760
 6688SOL    HW121961  14.047   4.971  14.797
 6688SOL    HW221962  13.930   5.067  14.809
 6689SOL     OW21963   8.342   3.573   2.787
 6689SOL    HW121964   8.331   3.658   2.745
 6689SOL    HW221965   8.385   3.593   2.870
 6690SOL     OW21966  12.876  14.577   3.629
 6690SOL    HW121967  12.861  14.520   3.553
 6690SOL    HW221968  12.800  14.635   3.630
 6691SOL     OW21969   6.020   0.653   8.807
 6691SOL    HW121970   5.988   0.741   8.789
 6691SOL    HW221971   5.945   0.607   8.846
 6692SOL     OW21972   9.113   3.519   2.368
 6692SOL    HW121973   9.050   3.455   2.401
 6692SOL    HW221974   9.199   3.482   2.387
 6693SOL     OW21975   5.043  13.674  11.074
 6693SOL    HW121976   5.067  13.592  11.119
 6693SOL    HW221977   4.964  13.652  11.025
 6694SOL     OW21978  11.970   5.856  13.213
 6694SOL    HW121979  12.030   5.913  13.262
 6694SOL    HW221980  11.883   5.887  13.237
 6695SOL     OW21981  11.485   8.978   3.583
 6695SOL    HW121982  11.443   8.940   3.506
 6695SOL    HW221983  11.579   8.979   3.562
 6696SOL     OW21984   8.892   5.499   8.924
 6696SOL    HW121985   8.797   5.514   8.922
 6696SOL    HW221986   8.921   5.542   9.004
 6697SOL     OW21987  11.065   6.399   8.452
 6697SOL    HW121988  11.061   6.367   8.542
 6697SOL    HW221989  11.001   6.345   8.405
 6698SOL     OW21990   1.353   4.958   4.097
 6698SOL    HW121991   1.297   4.890   4.058
 6698SOL    HW221992   1.295   5.004   4.158
 6699SOL     OW21993   3.485  14.736  14.787
 6699SOL    HW121994   3.424  14.804  14.816
 6699SOL    HW221995   3.472  14.730  14.693
 6700SOL     OW21996   6.202   6.965  14.498
 6700SOL    HW121997   6.146   6.916  14.438
 6700SOL    HW221998   6.270   7.003  14.441
 6701SOL     OW21999  14.257   4.745  12.079
 6701SOL    HW122000  14.272   4.668  12.133
 6701SOL    HW222001  14.270   4.819  12.138
 6702SOL     OW22002   2.145  12.233   4.607
 6702SOL    HW122003   2.240  12.233   4.597
 6702SOL    HW222004   2.115  12.157   4.558
 6703SOL     OW22005   0.362   0.838   4.378
 6703SOL    HW122006   0.390   0.771   4.314
 6703SOL    HW222007   0.273   0.861   4.351
 6704SOL     OW22008  13.782  14.512   3.115
 6704SOL    HW122009  13.872  14.522   3.083
 6704SOL    HW222010  13.789  14.520   3.210
 6705SOL     OW22011   2.151  12.910   2.713
 6705SOL    HW122012   2.180  12.971   2.645
 6705SOL    HW222013   2.107  12.839   2.665
 6706SOL     OW22014   7.614  12.870   2.796
 6706SOL    HW122015   7.600  12.775   2.793
 6706SOL    HW222016   7.668  12.883   2.874
 6707SOL     OW22017   4.109  10.703   9.499
 6707SOL    HW122018   4.203  10.722   9.504
 6707SOL    HW222019   4.098  10.658   9.416
 6708SOL     OW22020   7.523   3.438   1.822
 6708SOL    HW122021   7.444   3.397   1.788
 6708SOL    HW222022   7.592   3.372   1.810
 6709SOL     OW22023  12.494   5.664   9.572
 6709SOL    HW122024  12.477   5.570   9.575
 6709SOL    HW222025  12.588   5.672   9.587
 6710SOL     OW22026   0.807   9.874   3.434
 6710SOL    HW122027   0.871   9.821   3.481
 6710SOL    HW222028   0.751   9.810   3.389
 6711SOL     OW22029   8.617   1.907   0.118
 6711SOL    HW122030   8.589   1.823   0.082
 6711SOL    HW222031   8.541   1.939   0.166
 6712SOL     OW22032  10.314   3.092   7.278
 6712SOL    HW122033  10.331   3.168   7.222
 6712SOL    HW222034  10.313   3.128   7.367
 6713SOL     OW22035   7.333   3.978   7.083
 6713SOL    HW122036   7.249   3.933   7.089
 6713SOL    HW222037   7.325   4.036   7.008
 6714SOL     OW22038  14.543   1.653   4.079
 6714SOL    HW122039  14.532   1.709   4.003
 6714SOL    HW222040  14.500   1.700   4.151
 6715SOL     OW22041   9.388   1.731  10.130
 6715SOL    HW122042   9.446   1.759  10.059
 6715SOL    HW222043   9.427   1.771  10.209
 6716SOL     OW22044  14.050   4.695   2.016
 6716SOL    HW122045  13.956   4.707   2.020
 6716SOL    HW222046  14.070   4.637   2.089
 6717SOL     OW22047  11.911   1.286   1.669
 6717SOL    HW122048  11.878   1.246   1.588
 6717SOL    HW222049  12.004   1.263   1.672
 6718SOL     OW22050  13.275   8.977   0.235
 6718SOL    HW122051  13.336   8.924   0.184
 6718SOL    HW222052  13.280   8.941   0.324
 6719SOL     OW22053   0.755   4.450  10.956
 6719SOL    HW122054   0.764   4.465  10.862
 6719SOL    HW222055   0.830   4.395  10.979
 6720SOL     OW22056   9.991   1.162   6.564
 6720SOL    HW122057  10.076   1.206   6.559
 6720SOL    HW222058   9.977   1.126   6.476
 6721SOL     OW22059  13.654   9.433   1.889
 6721SOL    HW122060  13.704   9.465   1.814
 6721SOL    HW222061  13.569   9.477   1.882
 6722SOL     OW22062   1.249   9.168   0.026
 6722SOL    HW122063   1.273   9.115   0.103
 6722SOL    HW222064   1.239   9.257   0.060
 6723SOL     OW22065   4.833  12.310   6.104
 6723SOL    HW122066   4.845  12.392   6.056
 6723SOL    HW222067   4.857  12.241   6.042
 6724SOL     OW22068  11.822  13.341  10.555
 6724SOL    HW122069  11.777  13.352  10.471
 6724SOL    HW222070  11.906  13.302  10.532
 6725SOL     OW22071  14.386  11.870   7.700
 6725SOL    HW122072  14.361  11.809   7.769
 6725SOL    HW222073  14.418  11.948   7.746
 6726SOL     OW22074  13.478   9.206  10.341
 6726SOL    HW122075  13.555   9.175  10.390
 6726SOL    HW222076  13.404   9.160  10.381
 6727SOL     OW22077   1.512  12.184   8.312
 6727SOL    HW122078   1.502  12.136   8.230
 6727SOL    HW222079   1.568  12.258   8.289
 6728SOL     OW22080  12.266  14.726   8.342
 6728SOL    HW122081  12.312  14.644   8.321
 6728SOL    HW222082  12.173  14.704   8.333
 6729SOL     OW22083  13.154   1.012   4.523
 6729SOL    HW122084  13.218   0.957   4.477
 6729SOL    HW222085  13.180   1.102   4.501
 6730SOL     OW22086   5.428   6.122  10.534
 6730SOL    HW122087   5.378   6.064  10.475
 6730SOL    HW222088   5.361   6.177  10.574
 6731SOL     OW22089   9.442   9.557  12.341
 6731SOL    HW122090   9.510   9.581  12.278
 6731SOL    HW222091   9.405   9.475  12.307
 6732SOL     OW22092  14.778   9.020   7.117
 6732SOL    HW122093  14.827   9.093   7.155
 6732SOL    HW222094  14.705   9.061   7.071
 6733SOL     OW22095   0.048  12.339   0.499
 6733SOL    HW122096   0.010  12.409   0.446
 6733SOL    HW222097   0.006  12.259   0.466
 6734SOL     OW22098   6.958   0.330   6.904
 6734SOL    HW122099   7.044   0.314   6.945
 6734SOL    HW222100   6.897   0.330   6.977
 6735SOL     OW22101   1.775   6.363  12.735
 6735SOL    HW122102   1.773   6.458  12.719
 6735SOL    HW222103   1.790   6.356  12.829
 6736SOL     OW22104   0.246   6.191   3.650
 6736SOL    HW122105   0.263   6.284   3.634
 6736SOL    HW222106   0.324   6.146   3.617
 6737SOL     OW22107  13.236   1.562   3.030
 6737SOL    HW122108  13.157   1.616   3.022
 6737SOL    HW222109  13.308   1.621   3.009
 6738SOL     OW22110   1.820  10.711  10.248
 6738SOL    HW122111   1.893  10.653  10.225
 6738SOL    HW222112   1.810  10.769  10.172
 6739SOL     OW22113   5.578   3.672  11.879
 6739SOL    HW122114   5.638   3.682  11.805
 6739SOL    HW222115   5.603   3.742  11.939
 6740SOL     OW22116   8.023   7.890   2.861
 6740SOL    HW122117   8.041   7.802   2.893
 6740SOL    HW222118   7.955   7.878   2.795
 6741SOL     OW22119  12.490  11.214  14.569
 6741SOL    HW122120  12.550  11.212  14.643
 6741SOL    HW222121  12.404  11.195  14.606
 6742SOL     OW22122  14.802  12.288   0.232
 6742SOL    HW122123   0.022  12.260   0.213
 6742SOL    HW222124  14.757  12.286   0.148
 6743SOL     OW22125   3.964   9.685   7.398
 6743SOL    HW122126   4.032   9.745   7.428
 6743SOL    HW222127   4.010   9.621   7.343
 6744SOL     OW22128  10.537  13.711   8.043
 6744SOL    HW122129  10.538  13.636   8.101
 6744SOL    HW222130  10.463  13.696   7.985
 6745SOL     OW22131   3.618  12.690  13.370
 6745SOL    HW122132   3.599  12.631  13.442
 6745SOL    HW222133   3.546  12.676  13.308
 6746SOL     OW22134  11.401   1.187  13.931
 6746SOL    HW122135  11.487   1.206  13.970
 6746SOL    HW222136  11.399   1.092  13.924
 6747SOL     OW22137   3.349  10.312   2.710
 6747SOL    HW122138   3.407  10.251   2.665
 6747SOL    HW222139   3.261  10.277   2.694
 6748SOL     OW22140   2.793   4.904   8.138
 6748SOL    HW122141   2.809   4.906   8.043
 6748SOL    HW222142   2.880   4.907   8.177
 6749SOL     OW22143  11.870   4.660  13.321
 6749SOL    HW122144  11.883   4.748  13.286
 6749SOL    HW222145  11.929   4.655  13.396
 6750SOL     OW22146  14.170   0.376   5.510
 6750SOL    HW122147  14.165   0.285   5.538
 6750SOL    HW222148  14.261   0.387   5.481
 6751SOL     OW22149  13.498   9.520   6.795
 6751SOL    HW122150  13.444   9.591   6.759
 6751SOL    HW222151  13.464   9.441   6.753
 6752SOL     OW22152   4.800   2.093  11.223
 6752SOL    HW122153   4.769   2.012  11.184
 6752SOL    HW222154   4.720   2.137  11.253
 6753SOL     OW22155  11.451  10.321  12.619
 6753SOL    HW122156  11.500  10.289  12.543
 6753SOL    HW222157  11.402  10.397  12.586
 6754SOL     OW22158   0.679   7.214  14.827
 6754SOL    HW122159   0.774   7.224  14.832
 6754SOL    HW222160   0.657   7.246  14.739
 6755SOL     OW22161   7.535  10.373   8.927
 6755SOL    HW122162   7.580  10.402   9.006
 6755SOL    HW222163   7.442  10.386   8.946
 6756SOL     OW22164  11.155  11.695   5.347
 6756SOL    HW122165  11.180  11.650   5.427
 6756SOL    HW222166  11.078  11.746   5.371
 6757SOL     OW22167   5.550  12.354   0.795
 6757SOL    HW122168   5.615  12.380   0.860
 6757SOL    HW222169   5.468  12.351   0.843
 6758SOL     OW22170  12.187  13.760  11.240
 6758SOL    HW122171  12.098  13.790  11.223
 6758SOL    HW222172  12.228  13.754  11.154
 6759SOL     OW22173   4.335   8.913  10.101
 6759SOL    HW122174   4.370   8.832  10.139
 6759SOL    HW222175   4.333   8.975  10.174
 6760SOL     OW22176   6.036  13.962  12.728
 6760SOL    HW122177   6.041  14.024  12.800
 6760SOL    HW222178   6.104  13.992  12.667
 6761SOL     OW22179   7.940   5.906  11.043
 6761SOL    HW122180   8.010   5.879  10.983
 6761SOL    HW222181   7.942   5.840  11.112
 6762SOL     OW22182   2.897   6.887   6.422
 6762SOL    HW122183   2.865   6.889   6.513
 6762SOL    HW222184   2.818   6.902   6.369
 6763SOL     OW22185   4.725   3.708  11.246
 6763SOL    HW122186   4.802   3.662  11.212
 6763SOL    HW222187   4.757   3.795  11.267
 6764SOL     OW22188  12.115  11.018   2.228
 6764SOL    HW122189  12.119  11.100   2.278
 6764SOL    HW222190  12.040  11.029   2.170
 6765SOL     OW22191   0.398   3.636   3.287
 6765SOL    HW122192   0.354   3.720   3.276
 6765SOL    HW222193   0.330   3.571   3.265
 6766SOL     OW22194  13.380  13.961   8.022
 6766SOL    HW122195  13.472  13.944   8.040
 6766SOL    HW222196  13.374  13.966   7.927
 6767SOL     OW22197   3.015  14.673  11.304
 6767SOL    HW122198   3.078  14.602  11.320
 6767SOL    HW222199   3.027  14.696  11.212
 6768SOL     OW22200   8.432   2.302   1.800
 6768SOL    HW122201   8.418   2.265   1.714
 6768SOL    HW222202   8.352   2.283   1.849
 6769SOL     OW22203  12.090  12.586   5.036
 6769SOL    HW122204  12.184  12.568   5.040
 6769SOL    HW222205  12.084  12.671   4.992
 6770SOL     OW22206   9.111   8.636  14.763
 6770SOL    HW122207   9.167   8.618  14.839
 6770SOL    HW222208   9.146   8.718  14.727
 6771SOL     OW22209  10.780  10.282  11.059
 6771SOL    HW122210  10.804  10.207  11.003
 6771SOL    HW222211  10.801  10.253  11.148
 6772SOL     OW22212  11.485   6.796   5.534
 6772SOL    HW122213  11.541   6.781   5.610
 6772SOL    HW222214  11.514   6.880   5.498
 6773SOL     OW22215   7.717   5.429  10.581
 6773SOL    HW122216   7.718   5.516  10.620
 6773SOL    HW222217   7.669   5.375  10.643
 6774SOL     OW22218  14.859   1.665   4.198
 6774SOL    HW122219   0.055   1.689   4.264
 6774SOL    HW222220  14.785   1.722   4.217
 6775SOL     OW22221   8.802   7.445  13.548
 6775SOL    HW122222   8.857   7.494  13.487
 6775SOL    HW222223   8.754   7.512  13.597
 6776SOL     OW22224   0.891   1.182   3.365
 6776SOL    HW122225   0.891   1.262   3.312
 6776SOL    HW222226   0.942   1.206   3.443
 6777SOL     OW22227  11.019   6.413   3.188
 6777SOL    HW122228  11.115   6.410   3.195
 6777SOL    HW222229  10.993   6.321   3.182
 6778SOL     OW22230   5.944  10.244   9.036
 6778SOL    HW122231   5.928  10.168   8.981
 6778SOL    HW222232   5.926  10.213   9.125
 6779SOL     OW22233   4.442   5.926   1.984
 6779SOL    HW122234   4.421   5.836   1.961
 6779SOL    HW222235   4.500   5.919   2.059
 6780SOL     OW22236   1.991   8.347   9.538
 6780SOL    HW122237   2.078   8.341   9.497
 6780SOL    HW222238   1.930   8.336   9.465
 6781SOL     OW22239   3.609  12.049  12.366
 6781SOL    HW122240   3.662  12.126  12.350
 6781SOL    HW222241   3.671  11.977  12.375
 6782SOL     OW22242   4.795  13.356   2.119
 6782SOL    HW122243   4.846  13.326   2.044
 6782SOL    HW222244   4.811  13.450   2.123
 6783SOL     OW22245   4.929  13.569  14.528
 6783SOL    HW122246   4.881  13.489  14.552
 6783SOL    HW222247   4.872  13.613  14.465
 6784SOL     OW22248   2.661  12.254   7.189
 6784SOL    HW122249   2.567  12.252   7.172
 6784SOL    HW222250   2.669  12.299   7.273
 6785SOL     OW22251  13.850   6.824   2.017
 6785SOL    HW122252  13.937   6.786   2.009
 6785SOL    HW222253  13.806   6.768   2.081
 6786SOL     OW22254  11.692  12.691  14.240
 6786SOL    HW122255  11.716  12.751  14.312
 6786SOL    HW222256  11.722  12.736  14.161
 6787SOL     OW22257   0.760  13.080   8.349
 6787SOL    HW122258   0.745  13.072   8.443
 6787SOL    HW222259   0.856  13.080   8.339
 6788SOL     OW22260   8.935   4.200  12.299
 6788SOL    HW122261   8.947   4.121  12.351
 6788SOL    HW222262   9.002   4.261  12.331
 6789SOL     OW22263   0.819   7.682   4.269
 6789SOL    HW122264   0.849   7.766   4.303
 6789SOL    HW222265   0.730   7.672   4.304
 6790SOL     OW22266   3.482  14.820  10.325
 6790SOL    HW122267   3.476  14.733  10.285
 6790SOL    HW222268   3.554  14.813  10.388
 6791SOL     OW22269   5.779   4.739   8.240
 6791SOL    HW122270   5.747   4.649   8.244
 6791SOL    HW222271   5.868   4.734   8.276
 6792SOL     OW22272   2.150   7.367   2.867
 6792SOL    HW122273   2.146   7.414   2.950
 6792SOL    HW222274   2.204   7.422   2.810
 6793SOL     OW22275  11.888   4.067   3.445
 6793SOL    HW122276  11.892   4.113   3.361
 6793SOL    HW222277  11.891   4.137   3.511
 6794SOL     OW22278  10.602  12.058   4.570
 6794SOL    HW122279  10.696  12.072   4.557
 6794SOL    HW222280  10.589  11.965   4.552
 6795SOL     OW22281   0.990   0.560  12.346
 6795SOL    HW122282   1.048   0.521  12.281
 6795SOL    HW222283   0.902   0.545  12.313
 6796SOL     OW22284   4.079   5.614   1.962
 6796SOL    HW122285   4.120   5.577   1.884
 6796SOL    HW222286   4.149   5.614   2.027
 6797SOL     OW22287   2.922   1.670   4.015
 6797SOL    HW122288   2.930   1.625   3.931
 6797SOL    HW222289   2.828   1.680   4.028
 6798SOL     OW22290  11.087  14.543  12.160
 6798SOL    HW122291  11.016  14.587  12.205
 6798SOL    HW222292  11.140  14.614  12.123
 6799SOL     OW22293   4.235  10.614   6.501
 6799SOL    HW122294   4.187  10.694   6.522
 6799SOL    HW222295   4.264  10.626   6.410
 6800SOL     OW22296   7.012  11.297  12.045
 6800SOL    HW122297   7.089  11.250  12.076
 6800SOL    HW222298   6.956  11.230  12.007
 6801SOL     OW22299  10.544   2.948   7.763
 6801SOL    HW122300  10.556   2.990   7.678
 6801SOL    HW222301  10.627   2.905   7.781
 6802SOL     OW22302   8.745  10.771   2.394
 6802SOL    HW122303   8.786  10.792   2.478
 6802SOL    HW222304   8.793  10.824   2.330
 6803SOL     OW22305   5.173   0.812  12.225
 6803SOL    HW122306   5.229   0.842  12.154
 6803SOL    HW222307   5.178   0.881  12.291
 6804SOL     OW22308   0.238   6.835   9.180
 6804SOL    HW122309   0.272   6.899   9.117
 6804SOL    HW222310   0.232   6.754   9.129
 6805SOL     OW22311  10.448  14.304   9.287
 6805SOL    HW122312  10.363  14.270   9.258
 6805SOL    HW222313  10.428  14.387   9.330
 6806SOL     OW22314   8.631   9.430   9.539
 6806SOL    HW122315   8.666   9.433   9.450
 6806SOL    HW222316   8.571   9.505   9.543
 6807SOL     OW22317   6.728  14.790  14.104
 6807SOL    HW122318   6.769  14.721  14.157
 6807SOL    HW222319   6.797  14.856  14.094
 6808SOL     OW22320  10.152   3.105  14.488
 6808SOL    HW122321  10.078   3.164  14.490
 6808SOL    HW222322  10.203   3.126  14.566
 6809SOL     OW22323  14.134   7.236   4.006
 6809SOL    HW122324  14.125   7.158   3.952
 6809SOL    HW222325  14.202   7.215   4.069
 6810SOL     OW22326   2.209   4.282  10.936
 6810SOL    HW122327   2.283   4.226  10.962
 6810SOL    HW222328   2.247   4.370  10.928
 6811SOL     OW22329   0.485   7.052   2.293
 6811SOL    HW122330   0.490   7.129   2.349
 6811SOL    HW222331   0.397   7.055   2.255
 6812SOL     OW22332  12.652   3.351   5.100
 6812SOL    HW122333  12.581   3.301   5.060
 6812SOL    HW222334  12.608   3.418   5.152
 6813SOL     OW22335  13.789   6.256   7.594
 6813SOL    HW122336  13.822   6.266   7.505
 6813SOL    HW222337  13.852   6.302   7.649
 6814SOL     OW22338   6.860  12.388  11.677
 6814SOL    HW122339   6.878  12.368  11.586
 6814SOL    HW222340   6.768  12.365  11.689
 6815SOL     OW22341  11.069   0.290   4.537
 6815SOL    HW122342  11.016   0.278   4.616
 6815SOL    HW222343  11.068   0.204   4.495
 6816SOL     OW22344  13.096   4.367  10.735
 6816SOL    HW122345  13.065   4.454  10.711
 6816SOL    HW222346  13.087   4.364  10.830
 6817SOL     OW22347   5.886   6.865   9.407
 6817SOL    HW122348   5.877   6.919   9.329
 6817SOL    HW222349   5.846   6.782   9.384
 6818SOL     OW22350   9.639  12.387   9.583
 6818SOL    HW122351   9.664  12.457   9.523
 6818SOL    HW222352   9.547  12.404   9.603
 6819SOL     OW22353   0.199   9.626  11.899
 6819SOL    HW122354   0.180   9.545  11.947
 6819SOL    HW222355   0.114   9.667  11.887
 6820SOL     OW22356   3.531   5.318  10.250
 6820SOL    HW122357   3.616   5.278  10.263
 6820SOL    HW222358   3.487   5.310  10.335
 6821SOL     OW22359   7.999   7.371  13.820
 6821SOL    HW122360   8.086   7.336  13.802
 6821SOL    HW222361   8.013   7.464  13.836
 6822SOL     OW22362   2.382  10.500   9.584
 6822SOL    HW122363   2.310  10.545   9.627
 6822SOL    HW222364   2.424  10.567   9.530
 6823SOL     OW22365   1.908  10.236   5.847
 6823SOL    HW122366   1.904  10.237   5.751
 6823SOL    HW222367   1.864  10.154   5.871
 6824SOL     OW22368   3.819   8.661  14.010
 6824SOL    HW122369   3.886   8.602  13.975
 6824SOL    HW222370   3.849   8.681  14.099
 6825SOL     OW22371   8.691  10.022   3.008
 6825SOL    HW122372   8.656  10.040   3.095
 6825SOL    HW222373   8.674   9.929   2.994
 6826SOL     OW22374   9.793  14.303  11.857
 6826SOL    HW122375   9.753  14.232  11.908
 6826SOL    HW222376   9.743  14.305  11.775
 6827SOL     OW22377  13.435  12.302   4.824
 6827SOL    HW122378  13.439  12.215   4.864
 6827SOL    HW222379  13.526  12.332   4.823
 6828SOL     OW22380  11.477  11.155  12.972
 6828SOL    HW122381  11.467  11.249  12.990
 6828SOL    HW222382  11.396  11.116  13.005
 6829SOL     OW22383  12.796   3.369   5.428
 6829SOL    HW122384  12.785   3.446   5.484
 6829SOL    HW222385  12.810   3.297   5.490
 6830SOL     OW22386   0.734   2.985  11.591
 6830SOL    HW122387   0.775   2.909  11.632
 6830SOL    HW222388   0.665   2.948  11.536
 6831SOL     OW22389  13.961   7.170  13.039
 6831SOL    HW122390  13.958   7.262  13.063
 6831SOL    HW222391  13.930   7.123  13.116
 6832SOL     OW22392   7.018   9.027   5.132
 6832SOL    HW122393   6.992   9.119   5.135
 6832SOL    HW222394   6.981   8.994   5.050
 6833SOL     OW22395  14.440  10.595   8.217
 6833SOL    HW122396  14.511  10.564   8.274
 6833SOL    HW222397  14.455  10.690   8.211
 6834SOL     OW22398  12.290   9.834   2.312
 6834SOL    HW122399  12.367   9.777   2.307
 6834SOL    HW222400  12.312   9.899   2.379
 6835SOL     OW22401   2.965  14.554   9.400
 6835SOL    HW122402   2.915  14.542   9.319
 6835SOL    HW222403   3.056  14.564   9.371
 6836SOL     OW22404  14.348  13.508  13.263
 6836SOL    HW122405  14.288  13.488  13.335
 6836SOL    HW222406  14.413  13.567  13.302
 6837SOL     OW22407  10.090   6.458   2.156
 6837SOL    HW122408  10.112   6.368   2.179
 6837SOL    HW222409  10.130   6.511   2.224
 6838SOL     OW22410   1.719   0.263  14.256
 6838SOL    HW122411   1.669   0.344  14.264
 6838SOL    HW222412   1.655   0.199  14.223
 6839SOL     OW22413   1.459  12.011  11.597
 6839SOL    HW122414   1.473  12.086  11.654
 6839SOL    HW222415   1.426  12.048  11.515
 6840SOL     OW22416   8.887   1.444   1.733
 6840SOL    HW122417   8.920   1.530   1.758
 6840SOL    HW222418   8.950   1.382   1.771
 6841SOL     OW22419   1.647   5.916   0.464
 6841SOL    HW122420   1.662   5.858   0.389
 6841SOL    HW222421   1.689   5.998   0.441
 6842SOL     OW22422   8.038   4.756  11.433
 6842SOL    HW122423   8.015   4.663  11.429
 6842SOL    HW222424   7.981   4.792  11.501
 6843SOL     OW22425   2.819   9.611   9.805
 6843SOL    HW122426   2.739   9.586   9.851
 6843SOL    HW222427   2.821   9.556   9.727
 6844SOL     OW22428  14.204   4.224  13.574
 6844SOL    HW122429  14.214   4.300  13.517
 6844SOL    HW222430  14.155   4.161  13.521
 6845SOL     OW22431   6.478   6.669  11.353
 6845SOL    HW122432   6.556   6.616  11.372
 6845SOL    HW222433   6.513   6.754  11.328
 6846SOL     OW22434  13.745   7.296  13.854
 6846SOL    HW122435  13.686   7.239  13.805
 6846SOL    HW222436  13.800   7.236  13.904
 6847SOL     OW22437   2.045   0.938   8.174
 6847SOL    HW122438   1.964   0.889   8.167
 6847SOL    HW222439   2.019   1.025   8.206
 6848SOL     OW22440   5.010   0.094   8.464
 6848SOL    HW122441   4.922   0.131   8.473
 6848SOL    HW222442   5.018   0.033   8.537
 6849SOL     OW22443  14.504   3.170   9.572
 6849SOL    HW122444  14.465   3.222   9.502
 6849SOL    HW222445  14.485   3.079   9.548
 6850SOL     OW22446   4.041  12.331   0.113
 6850SOL    HW122447   4.020  12.409   0.062
 6850SOL    HW222448   4.113  12.358   0.170
 6851SOL     OW22449  12.181   5.693   9.978
 6851SOL    HW122450  12.167   5.693  10.072
 6851SOL    HW222451  12.111   5.748   9.943
 6852SOL     OW22452  10.341  14.282   4.309
 6852SOL    HW122453  10.294  14.361   4.280
 6852SOL    HW222454  10.406  14.314   4.371
 6853SOL     OW22455   6.978   2.333   2.498
 6853SOL    HW122456   7.060   2.341   2.547
 6853SOL    HW222457   6.986   2.250   2.451
 6854SOL     OW22458   5.374  10.479   9.574
 6854SOL    HW122459   5.280  10.467   9.559
 6854SOL    HW222460   5.395  10.561   9.529
 6855SOL     OW22461   1.984  10.670  10.924
 6855SOL    HW122462   2.038  10.596  10.896
 6855SOL    HW222463   1.940  10.700  10.844
 6856SOL     OW22464  12.674  14.265   6.218
 6856SOL    HW122465  12.630  14.277   6.302
 6856SOL    HW222466  12.753  14.216   6.239
 6857SOL     OW22467   2.573  10.864   7.562
 6857SOL    HW122468   2.603  10.948   7.527
 6857SOL    HW222469   2.487  10.851   7.523
 6858SOL     OW22470   4.751   4.935   9.866
 6858SOL    HW122471   4.714   4.958   9.781
 6858SOL    HW222472   4.722   5.005   9.925
 6859SOL     OW22473   2.598   0.604   9.606
 6859SOL    HW122474   2.540   0.679   9.619
 6859SOL    HW222475   2.668   0.637   9.551
 6860SOL     OW22476  11.192   1.203   1.701
 6860SOL    HW122477  11.177   1.298   1.699
 6860SOL    HW222478  11.282   1.194   1.732
 6861SOL     OW22479  13.703   2.746   7.144
 6861SOL    HW122480  13.650   2.816   7.182
 6861SOL    HW222481  13.739   2.700   7.219
 6862SOL     OW22482  12.047   7.905   3.848
 6862SOL    HW122483  11.971   7.856   3.818
 6862SOL    HW222484  12.097   7.925   3.769
 6863SOL     OW22485   7.089   7.446  12.086
 6863SOL    HW122486   7.050   7.359  12.077
 6863SOL    HW222487   7.156   7.435  12.154
 6864SOL     OW22488  13.856   3.966  11.857
 6864SOL    HW122489  13.790   4.027  11.824
 6864SOL    HW222490  13.867   3.991  11.949
 6865SOL     OW22491   3.819  13.966  11.258
 6865SOL    HW122492   3.854  13.894  11.311
 6865SOL    HW222493   3.810  13.929  11.170
 6866SOL     OW22494   2.957   9.012   5.659
 6866SOL    HW122495   3.002   9.050   5.584
 6866SOL    HW222496   3.002   9.048   5.736
 6867SOL     OW22497   0.499   5.535   7.547
 6867SOL    HW122498   0.476   5.444   7.528
 6867SOL    HW222499   0.415   5.580   7.552
 6868SOL     OW22500   8.171   1.916  13.822
 6868SOL    HW122501   8.222   1.845  13.859
 6868SOL    HW222502   8.224   1.995  13.838
 6869SOL     OW22503   0.931   0.234   8.026
 6869SOL    HW122504   0.844   0.223   7.988
 6869SOL    HW222505   0.958   0.322   8.000
 6870SOL     OW22506   8.920  11.112   4.935
 6870SOL    HW122507   8.958  11.169   5.002
 6870SOL    HW222508   8.872  11.171   4.877
 6871SOL     OW22509   6.761  13.651  12.090
 6871SOL    HW122510   6.690  13.588  12.106
 6871SOL    HW222511   6.809  13.654  12.173
 6872SOL     OW22512  14.203   1.982  12.959
 6872SOL    HW122513  14.170   2.040  13.028
 6872SOL    HW222514  14.215   2.038  12.883
 6873SOL     OW22515   1.397   4.323   7.829
 6873SOL    HW122516   1.447   4.277   7.762
 6873SOL    HW222517   1.305   4.309   7.804
 6874SOL     OW22518   8.730  11.623  10.255
 6874SOL    HW122519   8.826  11.616  10.248
 6874SOL    HW222520   8.710  11.710  10.221
 6875SOL     OW22521   3.950   8.408   0.269
 6875SOL    HW122522   3.962   8.376   0.358
 6875SOL    HW222523   4.026   8.375   0.221
 6876SOL     OW22524   6.644   0.844   8.459
 6876SOL    HW122525   6.642   0.900   8.537
 6876SOL    HW222526   6.636   0.755   8.494
 6877SOL     OW22527   4.219   2.696   9.503
 6877SOL    HW122528   4.274   2.689   9.425
 6877SOL    HW222529   4.238   2.783   9.539
 6878SOL     OW22530   8.502   7.811  13.305
 6878SOL    HW122531   8.566   7.740  13.296
 6878SOL    HW222532   8.483   7.814  13.398
 6879SOL     OW22533   3.692   4.212  14.796
 6879SOL    HW122534   3.644   4.255  14.867
 6879SOL    HW222535   3.784   4.221  14.821
 6880SOL     OW22536  14.742   8.593   3.280
 6880SOL    HW122537  14.758   8.519   3.340
 6880SOL    HW222538  14.654   8.623   3.303
 6881SOL     OW22539   4.398  10.617   8.879
 6881SOL    HW122540   4.387  10.566   8.959
 6881SOL    HW222541   4.480  10.586   8.841
 6882SOL     OW22542  11.587   5.414   9.226
 6882SOL    HW122543  11.667   5.448   9.186
 6882SOL    HW222544  11.516   5.450   9.172
 6883SOL     OW22545  12.281   3.683   1.727
 6883SOL    HW122546  12.353   3.705   1.786
 6883SOL    HW222547  12.260   3.592   1.746
 6884SOL     OW22548   4.632  13.179  13.399
 6884SOL    HW122549   4.546  13.168  13.358
 6884SOL    HW222550   4.678  13.242  13.343
 6885SOL     OW22551   5.686   0.909   4.064
 6885SOL    HW122552   5.694   0.987   4.010
 6885SOL    HW222553   5.635   0.848   4.011
 6886SOL     OW22554   1.596  14.055   5.024
 6886SOL    HW122555   1.553  13.981   4.982
 6886SOL    HW222556   1.543  14.072   5.102
 6887SOL     OW22557   3.923   5.184  13.115
 6887SOL    HW122558   3.840   5.231  13.110
 6887SOL    HW222559   3.972   5.214  13.038
 6888SOL     OW22560   9.379   9.351   6.687
 6888SOL    HW122561   9.359   9.354   6.781
 6888SOL    HW222562   9.294   9.368   6.645
 6889SOL     OW22563   2.442  14.584  11.288
 6889SOL    HW122564   2.520  14.559  11.240
 6889SOL    HW222565   2.432  14.518  11.356
 6890SOL     OW22566   8.327   4.010  13.902
 6890SOL    HW122567   8.303   3.924  13.936
 6890SOL    HW222568   8.383   3.992  13.828
 6891SOL     OW22569   2.536  10.280  11.082
 6891SOL    HW122570   2.568  10.313  10.998
 6891SOL    HW222571   2.590  10.324  11.147
 6892SOL     OW22572   9.105   0.097   1.989
 6892SOL    HW122573   9.034   0.149   1.952
 6892SOL    HW222574   9.068   0.056   2.067
 6893SOL     OW22575  10.054   8.876   6.421
 6893SOL    HW122576  10.023   8.810   6.359
 6893SOL    HW222577  10.144   8.892   6.395
 6894SOL     OW22578   9.675   1.657   7.166
 6894SOL    HW122579   9.703   1.717   7.097
 6894SOL    HW222580   9.638   1.582   7.119
 6895SOL     OW22581   8.046   9.890  13.874
 6895SOL    HW122582   8.084   9.978  13.869
 6895SOL    HW222583   7.961   9.903  13.916
 6896SOL     OW22584   1.030   0.493  13.734
 6896SOL    HW122585   1.024   0.460  13.824
 6896SOL    HW222586   0.944   0.533  13.718
 6897SOL     OW22587   6.663   4.412  14.305
 6897SOL    HW122588   6.654   4.396  14.399
 6897SOL    HW222589   6.750   4.451  14.295
 6898SOL     OW22590   3.629   8.930  12.571
 6898SOL    HW122591   3.626   8.835  12.584
 6898SOL    HW222592   3.721   8.949  12.553
 6899SOL     OW22593  11.899  14.369   0.558
 6899SOL    HW122594  11.952  14.368   0.638
 6899SOL    HW222595  11.895  14.461   0.532
 6900SOL     OW22596   7.718   2.901   4.959
 6900SOL    HW122597   7.652   2.879   5.024
 6900SOL    HW222598   7.797   2.920   5.010
 6901SOL     OW22599  12.991   1.534  13.384
 6901SOL    HW122600  13.037   1.601  13.434
 6901SOL    HW222601  13.031   1.537  13.297
 6902SOL     OW22602   3.656   8.298   7.767
 6902SOL    HW122603   3.633   8.214   7.808
 6902SOL    HW222604   3.735   8.279   7.716
 6903SOL     OW22605   1.107   0.835   3.662
 6903SOL    HW122606   1.030   0.843   3.605
 6903SOL    HW222607   1.122   0.741   3.670
 6904SOL     OW22608   0.160   5.152  12.879
 6904SOL    HW122609   0.114   5.112  12.805
 6904SOL    HW222610   0.143   5.245  12.870
 6905SOL     OW22611  13.313   5.891   2.241
 6905SOL    HW122612  13.343   5.801   2.253
 6905SOL    HW222613  13.345   5.916   2.155
 6906SOL     OW22614   1.102   0.597  11.426
 6906SOL    HW122615   1.159   0.523  11.406
 6906SOL    HW222616   1.020   0.558  11.454
 6907SOL     OW22617   6.126   2.886  11.142
 6907SOL    HW122618   6.180   2.910  11.217
 6907SOL    HW222619   6.070   2.815  11.174
 6908SOL     OW22620  10.943   6.226  10.083
 6908SOL    HW122621  10.947   6.314  10.121
 6908SOL    HW222622  10.864   6.227  10.029
 6909SOL     OW22623  14.605   9.030  14.405
 6909SOL    HW122624  14.601   8.944  14.365
 6909SOL    HW222625  14.686   9.030  14.455
 6910SOL     OW22626   3.052  14.703   0.487
 6910SOL    HW122627   3.063  14.762   0.561
 6910SOL    HW222628   3.084  14.618   0.518
 6911SOL     OW22629   4.536   5.477   6.311
 6911SOL    HW122630   4.560   5.569   6.301
 6911SOL    HW222631   4.577   5.450   6.394
 6912SOL     OW22632   6.856   8.344   2.192
 6912SOL    HW122633   6.865   8.277   2.260
 6912SOL    HW222634   6.870   8.427   2.239
 6913SOL     OW22635  13.620   7.280  12.633
 6913SOL    HW122636  13.679   7.221  12.586
 6913SOL    HW222637  13.665   7.298  12.716
 6914SOL     OW22638   3.243  11.020   0.272
 6914SOL    HW122639   3.217  10.929   0.286
 6914SOL    HW222640   3.236  11.033   0.177
 6915SOL     OW22641   3.331   0.628   9.786
 6915SOL    HW122642   3.373   0.684   9.851
 6915SOL    HW222643   3.385   0.549   9.784
 6916SOL     OW22644   2.881   7.037   7.482
 6916SOL    HW122645   2.824   7.114   7.473
 6916SOL    HW222646   2.902   7.012   7.392
 6917SOL     OW22647  12.634   7.723   6.938
 6917SOL    HW122648  12.596   7.777   7.006
 6917SOL    HW222649  12.629   7.777   6.859
 6918SOL     OW22650  13.493  14.291   7.027
 6918SOL    HW122651  13.530  14.300   7.115
 6918SOL    HW222652  13.490  14.197   7.012
 6919SOL     OW22653  11.377  13.524  12.020
 6919SOL    HW122654  11.350  13.457  11.958
 6919SOL    HW222655  11.390  13.602  11.966
 6920SOL     OW22656  14.463   0.186   9.854
 6920SOL    HW122657  14.494   0.097   9.869
 6920SOL    HW222658  14.528   0.241   9.898
 6921SOL     OW22659   1.047  13.028   7.602
 6921SOL    HW122660   1.127  13.077   7.585
 6921SOL    HW222661   0.990  13.047   7.528
 6922SOL     OW22662  12.973   9.729   7.101
 6922SOL    HW122663  12.881   9.749   7.081
 6922SOL    HW222664  13.003   9.680   7.024
 6923SOL     OW22665  13.626   9.801  12.428
 6923SOL    HW122666  13.540   9.759  12.429
 6923SOL    HW222667  13.688   9.730  12.408
 6924SOL     OW22668   9.935   0.547   3.280
 6924SOL    HW122669   9.903   0.457   3.283
 6924SOL    HW222670  10.016   0.541   3.229
 6925SOL     OW22671   9.587   2.675   5.897
 6925SOL    HW122672   9.516   2.728   5.862
 6925SOL    HW222673   9.571   2.587   5.860
 6926SOL     OW22674   8.780   1.837   1.611
 6926SOL    HW122675   8.775   1.921   1.657
 6926SOL    HW222676   8.818   1.858   1.526
 6927SOL     OW22677   3.231   5.101  14.172
 6927SOL    HW122678   3.229   5.020  14.223
 6927SOL    HW222679   3.172   5.085  14.099
 6928SOL     OW22680   2.578  11.012   8.132
 6928SOL    HW122681   2.589  11.104   8.157
 6928SOL    HW222682   2.528  11.016   8.051
 6929SOL     OW22683   9.044  11.196   7.104
 6929SOL    HW122684   8.981  11.252   7.150
 6929SOL    HW222685   9.115  11.183   7.167
 6930SOL     OW22686   4.706   2.724  14.498
 6930SOL    HW122687   4.740   2.747  14.585
 6930SOL    HW222688   4.743   2.638  14.480
 6931SOL     OW22689   9.184   8.069   8.378
 6931SOL    HW122690   9.107   8.016   8.356
 6931SOL    HW222691   9.257   8.006   8.379
 6932SOL     OW22692   3.368   5.291   5.068
 6932SOL    HW122693   3.419   5.355   5.117
 6932SOL    HW222694   3.316   5.246   5.135
 6933SOL     OW22695   2.373   1.695  10.467
 6933SOL    HW122696   2.355   1.603  10.447
 6933SOL    HW222697   2.464   1.695  10.498
 6934SOL     OW22698   8.702   0.886  13.765
 6934SOL    HW122699   8.780   0.941  13.776
 6934SOL    HW222700   8.714   0.845  13.679
 6935SOL     OW22701   7.117   7.821   8.826
 6935SOL    HW122702   7.103   7.910   8.794
 6935SOL    HW222703   7.094   7.825   8.919
 6936SOL     OW22704  11.015  10.148   6.023
 6936SOL    HW122705  11.017  10.053   6.009
 6936SOL    HW222706  10.937  10.178   5.976
 6937SOL     OW22707   0.145   6.695   4.739
 6937SOL    HW122708   0.093   6.690   4.819
 6937SOL    HW222709   0.178   6.607   4.726
 6938SOL     OW22710   0.795   9.550   9.544
 6938SOL    HW122711   0.884   9.582   9.532
 6938SOL    HW222712   0.802   9.485   9.614
 6939SOL     OW22713   8.682  13.205  11.912
 6939SOL    HW122714   8.625  13.281  11.898
 6939SOL    HW222715   8.639  13.156  11.982
 6940SOL     OW22716  13.066  12.915   3.308
 6940SOL    HW122717  13.002  12.909   3.237
 6940SOL    HW222718  13.140  12.862   3.278
 6941SOL     OW22719  10.774   8.536   2.129
 6941SOL    HW122720  10.704   8.600   2.111
 6941SOL    HW222721  10.749   8.459   2.078
 6942SOL     OW22722   3.908   5.068   9.919
 6942SOL    HW122723   3.837   5.005   9.914
 6942SOL    HW222724   3.890   5.119   9.998
 6943SOL     OW22725   5.069   9.671   0.451
 6943SOL    HW122726   5.086   9.616   0.375
 6943SOL    HW222727   5.131   9.744   0.443
 6944SOL     OW22728   8.356   9.154   6.189
 6944SOL    HW122729   8.281   9.151   6.248
 6944SOL    HW222730   8.418   9.215   6.230
 6945SOL     OW22731   3.709   3.012  12.469
 6945SOL    HW122732   3.617   3.028  12.486
 6945SOL    HW222733   3.717   2.916  12.468
 6946SOL     OW22734  11.124   7.922   9.656
 6946SOL    HW122735  11.102   8.013   9.675
 6946SOL    HW222736  11.219   7.922   9.642
 6947SOL     OW22737   1.461   3.789  13.164
 6947SOL    HW122738   1.382   3.828  13.128
 6947SOL    HW222739   1.430   3.714  13.215
 6948SOL     OW22740   2.318   2.586   0.923
 6948SOL    HW122741   2.343   2.543   1.005
 6948SOL    HW222742   2.367   2.540   0.855
 6949SOL     OW22743   1.910   4.559   1.537
 6949SOL    HW122744   1.881   4.475   1.573
 6949SOL    HW222745   1.994   4.575   1.579
 6950SOL     OW22746   0.978  13.110  12.795
 6950SOL    HW122747   0.982  13.070  12.708
 6950SOL    HW222748   0.908  13.175  12.789
 6951SOL     OW22749   7.316   9.916   4.242
 6951SOL    HW122750   7.227   9.915   4.206
 6951SOL    HW222751   7.343   9.824   4.239
 6952SOL     OW22752   0.938   9.958   8.338
 6952SOL    HW122753   0.888   9.990   8.263
 6952SOL    HW222754   1.029   9.956   8.306
 6953SOL     OW22755  11.336  10.296  11.534
 6953SOL    HW122756  11.389  10.356  11.585
 6953SOL    HW222757  11.355  10.319  11.443
 6954SOL     OW22758   4.555   3.808   4.518
 6954SOL    HW122759   4.461   3.827   4.519
 6954SOL    HW222760   4.579   3.800   4.610
 6955SOL     OW22761   1.186   2.315   7.572
 6955SOL    HW122762   1.260   2.312   7.511
 6955SOL    HW222763   1.202   2.242   7.632
 6956SOL     OW22764   2.863  13.471   6.868
 6956SOL    HW122765   2.775  13.483   6.833
 6956SOL    HW222766   2.872  13.376   6.879
 6957SOL     OW22767   3.854   9.709   4.549
 6957SOL    HW122768   3.831   9.616   4.549
 6957SOL    HW222769   3.946   9.711   4.575
 6958SOL     OW22770  14.475   6.274  14.773
 6958SOL    HW122771  14.527   6.204  14.732
 6958SOL    HW222772  14.501   6.271  14.865
 6959SOL     OW22773   1.772  12.185   6.554
 6959SOL    HW122774   1.713  12.234   6.611
 6959SOL    HW222775   1.782  12.100   6.596
 6960SOL     OW22776  12.884  11.135   6.731
 6960SOL    HW122777  12.848  11.076   6.664
 6960SOL    HW222778  12.852  11.099   6.814
 6961SOL     OW22779   0.155  10.962   4.008
 6961SOL    HW122780   0.119  10.912   3.935
 6961SOL    HW222781   0.098  11.039   4.014
 6962SOL     OW22782   8.797   5.170   5.484
 6962SOL    HW122783   8.854   5.093   5.484
 6962SOL    HW222784   8.789   5.194   5.392
 6963SOL     OW22785   3.463   1.202  13.640
 6963SOL    HW122786   3.429   1.205  13.730
 6963SOL    HW222787   3.541   1.146  13.647
 6964SOL     OW22788   8.725   8.593  13.789
 6964SOL    HW122789   8.787   8.541  13.840
 6964SOL    HW222790   8.747   8.575  13.698
 6965SOL     OW22791   5.200   8.941   1.089
 6965SOL    HW122792   5.173   9.032   1.082
 6965SOL    HW222793   5.192   8.907   1.000
 6966SOL     OW22794  12.734   2.803   5.571
 6966SOL    HW122795  12.775   2.881   5.532
 6966SOL    HW222796  12.694   2.836   5.652
 6967SOL     OW22797  14.799   1.070  11.652
 6967SOL    HW122798  14.762   0.982  11.652
 6967SOL    HW222799  14.733   1.124  11.610
 6968SOL     OW22800   8.511   8.363   9.979
 6968SOL    HW122801   8.575   8.359   9.908
 6968SOL    HW222802   8.427   8.378   9.936
 6969SOL     OW22803  12.041   3.527   7.077
 6969SOL    HW122804  11.956   3.567   7.061
 6969SOL    HW222805  12.051   3.463   7.007
 6970SOL     OW22806   9.897  11.186   2.153
 6970SOL    HW122807   9.903  11.112   2.092
 6970SOL    HW222808   9.803  11.198   2.166
 6971SOL     OW22809   2.105   1.711   9.476
 6971SOL    HW122810   2.011   1.702   9.493
 6971SOL    HW222811   2.145   1.716   9.563
 6972SOL     OW22812   9.785  13.332   3.744
 6972SOL    HW122813   9.872  13.320   3.706
 6972SOL    HW222814   9.749  13.408   3.698
 6973SOL     OW22815   1.322  13.384   4.224
 6973SOL    HW122816   1.227  13.395   4.222
 6973SOL    HW222817   1.350  13.437   4.299
 6974SOL     OW22818   7.188   4.113   7.579
 6974SOL    HW122819   7.247   4.113   7.504
 6974SOL    HW222820   7.122   4.179   7.558
 6975SOL     OW22821   2.050   4.129   6.494
 6975SOL    HW122822   2.028   4.051   6.444
 6975SOL    HW222823   2.127   4.165   6.448
 6976SOL     OW22824  12.709   8.955  12.781
 6976SOL    HW122825  12.697   8.933  12.873
 6976SOL    HW222826  12.787   9.011  12.779
 6977SOL     OW22827  14.644   3.492  12.893
 6977SOL    HW122828  14.594   3.561  12.850
 6977SOL    HW222829  14.593   3.413  12.879
 6978SOL     OW22830  11.668   7.247   8.772
 6978SOL    HW122831  11.697   7.246   8.863
 6978SOL    HW222832  11.678   7.156   8.743
 6979SOL     OW22833   9.732   6.977   2.663
 6979SOL    HW122834   9.710   6.940   2.749
 6979SOL    HW222835   9.660   7.036   2.643
 6980SOL     OW22836   1.299   4.134   8.804
 6980SOL    HW122837   1.290   4.229   8.810
 6980SOL    HW222838   1.214   4.100   8.832
 6981SOL     OW22839  13.747  10.761   5.727
 6981SOL    HW122840  13.681  10.749   5.660
 6981SOL    HW222841  13.782  10.674   5.743
 6982SOL     OW22842   1.579   4.710   6.165
 6982SOL    HW122843   1.604   4.792   6.206
 6982SOL    HW222844   1.659   4.678   6.124
 6983SOL     OW22845   2.218  10.031  14.372
 6983SOL    HW122846   2.268   9.991  14.301
 6983SOL    HW222847   2.271  10.015  14.451
 6984SOL     OW22848   6.678   5.532   1.807
 6984SOL    HW122849   6.612   5.475   1.768
 6984SOL    HW222850   6.628   5.606   1.843
 6985SOL     OW22851   2.416   4.749  11.441
 6985SOL    HW122852   2.493   4.799  11.468
 6985SOL    HW222853   2.374   4.803  11.375
 6986SOL     OW22854   5.489  14.209  10.676
 6986SOL    HW122855   5.522  14.126  10.710
 6986SOL    HW222856   5.402  14.219  10.715
 6987SOL     OW22857  10.092   3.778  12.010
 6987SOL    HW122858  10.092   3.873  12.014
 6987SOL    HW222859  10.184   3.754  12.004
 6988SOL     OW22860  12.170  11.108  13.576
 6988SOL    HW122861  12.167  11.196  13.613
 6988SOL    HW222862  12.137  11.052  13.645
 6989SOL     OW22863   7.797  10.130   5.511
 6989SOL    HW122864   7.879  10.163   5.473
 6989SOL    HW222865   7.826  10.074   5.584
 6990SOL     OW22866   4.808   8.306   3.478
 6990SOL    HW122867   4.787   8.351   3.559
 6990SOL    HW222868   4.873   8.363   3.435
 6991SOL     OW22869  14.118   3.130  11.150
 6991SOL    HW122870  14.176   3.060  11.120
 6991SOL    HW222871  14.121   3.123  11.246
 6992SOL     OW22872   0.161   6.557   3.886
 6992SOL    HW122873   0.175   6.485   3.947
 6992SOL    HW222874   0.068   6.578   3.895
 6993SOL     OW22875  11.301   8.469  10.873
 6993SOL    HW122876  11.275   8.425  10.792
 6993SOL    HW222877  11.247   8.548  10.876
 6994SOL     OW22878  11.141   5.820   6.809
 6994SOL    HW122879  11.094   5.845   6.729
 6994SOL    HW222880  11.151   5.902   6.857
 6995SOL     OW22881   4.515   1.481  14.064
 6995SOL    HW122882   4.555   1.551  14.013
 6995SOL    HW222883   4.433   1.463  14.019
 6996SOL     OW22884   3.401   0.301   5.586
 6996SOL    HW122885   3.489   0.283   5.619
 6996SOL    HW222886   3.368   0.215   5.558
 6997SOL     OW22887  12.631   4.935   8.440
 6997SOL    HW122888  12.572   5.011   8.434
 6997SOL    HW222889  12.709   4.963   8.392
 6998SOL     OW22890  13.474   7.895   1.082
 6998SOL    HW122891  13.465   7.821   1.142
 6998SOL    HW222892  13.468   7.856   0.995
 6999SOL     OW22893  14.617  10.907   7.915
 6999SOL    HW122894  14.646  10.999   7.915
 6999SOL    HW222895  14.573  10.897   8.000
 7000SOL     OW22896   4.605  10.273  13.153
 7000SOL    HW122897   4.649  10.345  13.109
 7000SOL    HW222898   4.572  10.218  13.083
 7001SOL     OW22899   9.763   3.814  12.581
 7001SOL    HW122900   9.692   3.796  12.643
 7001SOL    HW222901   9.777   3.731  12.535
 7002SOL     OW22902   5.384  11.945  13.245
 7002SOL    HW122903   5.297  11.979  13.266
 7002SOL    HW222904   5.438  12.023  13.234
 7003SOL     OW22905   9.512   8.863  14.241
 7003SOL    HW122906   9.428   8.869  14.195
 7003SOL    HW222907   9.575   8.839  14.173
 7004SOL     OW22908   8.318  12.769   2.233
 7004SOL    HW122909   8.394  12.826   2.243
 7004SOL    HW222910   8.324  12.736   2.143
 7005SOL     OW22911   4.020   8.398  10.915
 7005SOL    HW122912   3.988   8.315  10.879
 7005SOL    HW222913   4.002   8.462  10.846
 7006SOL     OW22914   3.629  13.142  13.182
 7006SOL    HW122915   3.647  13.220  13.234
 7006SOL    HW222916   3.534  13.141  13.171
 7007SOL     OW22917  13.392  11.340  14.832
 7007SOL    HW122918  13.455  11.283   0.006
 7007SOL    HW222919  13.410  11.327  14.738
 7008SOL     OW22920   7.430   9.336   8.873
 7008SOL    HW122921   7.441   9.348   8.778
 7008SOL    HW222922   7.340   9.305   8.883
 7009SOL     OW22923   3.530  11.015   7.966
 7009SOL    HW122924   3.593  11.037   7.897
 7009SOL    HW222925   3.584  10.999   8.043
 7010SOL     OW22926  14.137  14.184   0.822
 7010SOL    HW122927  14.071  14.220   0.763
 7010SOL    HW222928  14.088  14.122   0.877
 7011SOL     OW22929   5.143  13.505   8.784
 7011SOL    HW122930   5.164  13.561   8.859
 7011SOL    HW222931   5.224  13.504   8.732
 7012SOL     OW22932   7.021  12.929   8.915
 7012SOL    HW122933   6.950  12.969   8.865
 7012SOL    HW222934   7.006  12.958   9.005
 7013SOL     OW22935   5.972   0.036   5.964
 7013SOL    HW122936   5.993   0.115   5.913
 7013SOL    HW222937   5.890   0.004   5.926
 7014SOL     OW22938  11.069   2.093   7.710
 7014SOL    HW122939  11.038   2.182   7.728
 7014SOL    HW222940  11.131   2.075   7.781
 7015SOL     OW22941   9.200  14.325  11.201
 7015SOL    HW122942   9.215  14.387  11.272
 7015SOL    HW222943   9.172  14.380  11.128
 7016SOL     OW22944   3.529   8.608   4.014
 7016SOL    HW122945   3.519   8.518   3.983
 7016SOL    HW222946   3.535   8.600   4.110
 7017SOL     OW22947   4.634  14.829   6.813
 7017SOL    HW122948   4.605  14.773   6.741
 7017SOL    HW222949   4.552  14.858   6.855
 7018SOL     OW22950  10.472   6.245   9.665
 7018SOL    HW122951  10.528   6.289   9.602
 7018SOL    HW222952  10.528   6.177   9.703
 7019SOL     OW22953   4.726  12.800  12.972
 7019SOL    HW122954   4.671  12.798  13.051
 7019SOL    HW222955   4.724  12.711  12.939
 7020SOL     OW22956   0.372  13.352  10.976
 7020SOL    HW122957   0.370  13.262  11.011
 7020SOL    HW222958   0.419  13.344  10.893
 7021SOL     OW22959   1.653   4.131   4.131
 7021SOL    HW122960   1.590   4.116   4.202
 7021SOL    HW222961   1.729   4.079   4.156
 7022SOL     OW22962  10.046   5.324   7.031
 7022SOL    HW122963  10.079   5.250   6.980
 7022SOL    HW222964   9.957   5.339   6.997
 7023SOL     OW22965   9.239   4.287   8.395
 7023SOL    HW122966   9.327   4.310   8.425
 7023SOL    HW222967   9.200   4.371   8.370
 7024SOL     OW22968  13.842   8.934  13.309
 7024SOL    HW122969  13.856   8.950  13.402
 7024SOL    HW222970  13.830   9.021  13.272
 7025SOL     OW22971   3.480   2.091   5.032
 7025SOL    HW122972   3.454   2.007   4.994
 7025SOL    HW222973   3.559   2.115   4.984
 7026SOL     OW22974   9.424   5.942  13.386
 7026SOL    HW122975   9.496   5.978  13.334
 7026SOL    HW222976   9.432   5.847  13.374
 7027SOL     OW22977   2.592   0.979   4.407
 7027SOL    HW122978   2.500   1.006   4.405
 7027SOL    HW222979   2.638   1.051   4.449
 7028SOL     OW22980   7.116   7.996   7.145
 7028SOL    HW122981   7.062   7.933   7.098
 7028SOL    HW222982   7.122   7.961   7.234
 7029SOL     OW22983  11.448  13.032   7.781
 7029SOL    HW122984  11.414  12.951   7.818
 7029SOL    HW222985  11.462  13.012   7.688
 7030SOL     OW22986   0.947   1.325   9.144
 7030SOL    HW122987   0.913   1.313   9.056
 7030SOL    HW222988   0.955   1.420   9.154
 7031SOL     OW22989   9.978  13.708  12.539
 7031SOL    HW122990  10.056  13.685  12.489
 7031SOL    HW222991  10.009  13.771  12.604
 7032SOL     OW22992  10.362  11.529   6.666
 7032SOL    HW122993  10.432  11.481   6.710
 7032SOL    HW222994  10.365  11.500   6.575
 7033SOL     OW22995   6.905   4.635   0.439
 7033SOL    HW122996   6.823   4.642   0.488
 7033SOL    HW222997   6.967   4.689   0.489
 7034SOL     OW22998   5.480  11.687  10.246
 7034SOL    HW122999   5.478  11.614  10.308
 7034SOL    HW223000   5.392  11.724  10.249
 7035SOL     OW23001   6.832   8.681  11.815
 7035SOL    HW123002   6.740   8.707  11.818
 7035SOL    HW223003   6.832   8.599  11.767
 7036SOL     OW23004   6.561  12.844  12.334
 7036SOL    HW123005   6.622  12.876  12.267
 7036SOL    HW223006   6.616  12.830  12.411
 7037SOL     OW23007   7.532  12.790   9.467
 7037SOL    HW123008   7.510  12.782   9.375
 7037SOL    HW223009   7.488  12.716   9.509
 7038SOL     OW23010  14.638   3.218   4.507
 7038SOL    HW123011  14.642   3.182   4.596
 7038SOL    HW223012  14.689   3.156   4.455
 7039SOL     OW23013   7.607  14.253  14.847
 7039SOL    HW123014   7.609  14.172   0.028
 7039SOL    HW223015   7.517  14.261  14.818
 7040SOL     OW23016   9.143   0.914   4.399
 7040SOL    HW123017   9.111   0.998   4.366
 7040SOL    HW223018   9.143   0.857   4.322
 7041SOL     OW23019  10.738  11.585   1.446
 7041SOL    HW123020  10.790  11.523   1.396
 7041SOL    HW223021  10.647  11.563   1.426
 7042SOL     OW23022  11.735   9.788  12.978
 7042SOL    HW123023  11.726   9.873  12.935
 7042SOL    HW223024  11.660   9.783  13.037
 7043SOL     OW23025   4.613   9.473  13.681
 7043SOL    HW123026   4.629   9.567  13.678
 7043SOL    HW223027   4.565   9.460  13.764
 7044SOL     OW23028  12.814  14.026   7.871
 7044SOL    HW123029  12.819  14.078   7.952
 7044SOL    HW223030  12.742  14.066   7.822
 7045SOL     OW23031   8.442   5.648  12.449
 7045SOL    HW123032   8.515   5.676  12.394
 7045SOL    HW223033   8.387   5.726  12.456
 7046SOL     OW23034   9.378   3.089  10.875
 7046SOL    HW123035   9.375   3.184  10.862
 7046SOL    HW223036   9.309   3.055  10.817
 7047SOL     OW23037  10.548   6.950   9.825
 7047SOL    HW123038  10.641   6.939   9.805
 7047SOL    HW223039  10.539   7.043   9.846
 7048SOL     OW23040   8.336   9.106  11.924
 7048SOL    HW123041   8.309   9.187  11.966
 7048SOL    HW223042   8.295   9.037  11.975
 7049SOL     OW23043   6.603   9.811  13.401
 7049SOL    HW123044   6.632   9.743  13.462
 7049SOL    HW223045   6.678   9.823  13.342
 7050SOL     OW23046   3.092   0.062   3.531
 7050SOL    HW123047   3.028   0.002   3.494
 7050SOL    HW223048   3.056   0.150   3.516
 7051SOL     OW23049   8.604   2.917   3.552
 7051SOL    HW123050   8.655   2.995   3.575
 7051SOL    HW223051   8.532   2.951   3.498
 7052SOL     OW23052   5.544  11.342   0.358
 7052SOL    HW123053   5.615  11.349   0.294
 7052SOL    HW223054   5.507  11.255   0.343
 7053SOL     OW23055   0.427  12.808   7.822
 7053SOL    HW123056   0.386  12.745   7.880
 7053SOL    HW223057   0.514  12.773   7.806
 7054SOL     OW23058   4.505   9.039   2.836
 7054SOL    HW123059   4.481   9.091   2.758
 7054SOL    HW223060   4.554   9.100   2.891
 7055SOL     OW23061   0.295   6.492   3.657
 7055SOL    HW123062   0.379   6.533   3.677
 7055SOL    HW223063   0.242   6.506   3.736
 7056SOL     OW23064  10.757  13.700   0.012
 7056SOL    HW123065  10.695  13.631  14.857
 7056SOL    HW223066  10.739  13.716   0.105
 7057SOL     OW23067   2.482   9.374  10.878
 7057SOL    HW123068   2.562   9.322  10.880
 7057SOL    HW223069   2.417   9.316  10.837
 7058SOL     OW23070  10.858  11.179   9.005
 7058SOL    HW123071  10.869  11.249   8.942
 7058SOL    HW223072  10.843  11.101   8.952
 7059SOL     OW23073   0.297   2.974   0.138
 7059SOL    HW123074   0.356   3.049   0.144
 7059SOL    HW223075   0.217   3.008   0.098
 7060SOL     OW23076   5.974   2.652   4.318
 7060SOL    HW123077   5.969   2.616   4.229
 7060SOL    HW223078   5.897   2.619   4.363
 7061SOL     OW23079   6.470  13.813  12.230
 7061SOL    HW123080   6.559  13.848  12.240
 7061SOL    HW223081   6.432  13.819  12.317
 7062SOL     OW23082   1.636   4.179   4.995
 7062SOL    HW123083   1.681   4.185   4.911
 7062SOL    HW223084   1.664   4.257   5.043
 7063SOL     OW23085   1.827   9.234   6.507
 7063SOL    HW123086   1.753   9.288   6.481
 7063SOL    HW223087   1.792   9.145   6.507
 7064SOL     OW23088   6.538   9.176   3.864
 7064SOL    HW123089   6.600   9.228   3.813
 7064SOL    HW223090   6.453   9.199   3.828
 7065SOL     OW23091  13.805  12.240   3.500
 7065SOL    HW123092  13.880  12.218   3.557
 7065SOL    HW223093  13.791  12.333   3.514
 7066SOL     OW23094   0.377   7.541   1.370
 7066SOL    HW123095   0.416   7.524   1.456
 7066SOL    HW223096   0.428   7.487   1.309
 7067SOL     OW23097   6.264   1.967  11.026
 7067SOL    HW123098   6.184   1.939  11.071
 7067SOL    HW223099   6.324   1.892  11.034
 7068SOL     OW23100   7.452   0.235  13.439
 7068SOL    HW123101   7.487   0.226  13.527
 7068SOL    HW223102   7.357   0.225  13.449
 7069SOL     OW23103  10.230   6.277   0.003
 7069SOL    HW123104  10.172   6.348  14.847
 7069SOL    HW223105  10.217   6.268   0.097
 7070SOL     OW23106   5.692  14.139   2.961
 7070SOL    HW123107   5.678  14.057   3.009
 7070SOL    HW223108   5.646  14.205   3.012
 7071SOL     OW23109  13.029   3.675   5.868
 7071SOL    HW123110  13.096   3.671   5.800
 7071SOL    HW223111  13.039   3.593   5.916
 7072SOL     OW23112   2.878  13.876   3.089
 7072SOL    HW123113   2.838  13.893   3.004
 7072SOL    HW223114   2.954  13.935   3.092
 7073SOL     OW23115   6.037  10.402   4.537
 7073SOL    HW123116   5.973  10.391   4.466
 7073SOL    HW223117   6.120  10.415   4.492
 7074SOL     OW23118  11.755   3.994   9.870
 7074SOL    HW123119  11.659   3.993   9.879
 7074SOL    HW223120  11.782   3.907   9.899
 7075SOL     OW23121   3.799  11.558  12.077
 7075SOL    HW123122   3.827  11.466  12.077
 7075SOL    HW223123   3.844  11.596  12.153
 7076SOL     OW23124   6.704  14.766   3.211
 7076SOL    HW123125   6.685  14.719   3.292
 7076SOL    HW223126   6.642  14.839   3.211
 7077SOL     OW23127   4.584   4.841   9.323
 7077SOL    HW123128   4.490   4.824   9.321
 7077SOL    HW223129   4.611   4.843   9.231
 7078SOL     OW23130  11.775  13.913  11.869
 7078SOL    HW123131  11.712  13.841  11.867
 7078SOL    HW223132  11.751  13.964  11.946
 7079SOL     OW23133   4.292   4.521  11.512
 7079SOL    HW123134   4.289   4.617  11.520
 7079SOL    HW223135   4.353   4.506  11.440
 7080SOL     OW23136   2.452   1.968  10.469
 7080SOL    HW123137   2.409   1.883  10.477
 7080SOL    HW223138   2.489   1.968  10.381
 7081SOL     OW23139   4.545  11.530   5.821
 7081SOL    HW123140   4.606  11.463   5.850
 7081SOL    HW223141   4.586  11.613   5.845
 7082SOL     OW23142   0.800   9.603  10.205
 7082SOL    HW123143   0.732   9.553  10.160
 7082SOL    HW223144   0.761   9.627  10.289
 7083SOL     OW23145   3.141   2.485   2.768
 7083SOL    HW123146   3.089   2.426   2.823
 7083SOL    HW223147   3.154   2.435   2.687
 7084SOL     OW23148   4.831   8.294  12.560
 7084SOL    HW123149   4.757   8.253  12.514
 7084SOL    HW223150   4.908   8.245  12.531
 7085SOL     OW23151  10.823  12.004   8.750
 7085SOL    HW123152  10.729  11.990   8.739
 7085SOL    HW223153  10.834  12.018   8.844
 7086SOL     OW23154  12.149   8.508   9.268
 7086SOL    HW123155  12.109   8.456   9.338
 7086SOL    HW223156  12.085   8.577   9.250
 7087SOL     OW23157   7.485   8.591   4.580
 7087SOL    HW123158   7.400   8.590   4.537
 7087SOL    HW223159   7.506   8.684   4.589
 7088SOL     OW23160   5.600   4.970  14.107
 7088SOL    HW123161   5.625   5.059  14.082
 7088SOL    HW223162   5.655   4.951  14.183
 7089SOL     OW23163   9.476   4.342   2.504
 7089SOL    HW123164   9.507   4.305   2.587
 7089SOL    HW223165   9.431   4.423   2.530
 7090SOL     OW23166   7.360   9.546  12.868
 7090SOL    HW123167   7.368   9.526  12.962
 7090SOL    HW223168   7.427   9.612  12.852
 7091SOL     OW23169   8.773   3.081   6.579
 7091SOL    HW123170   8.800   3.101   6.669
 7091SOL    HW223171   8.678   3.087   6.580
 7092SOL     OW23172  14.804   4.769   7.100
 7092SOL    HW123173  14.853   4.722   7.032
 7092SOL    HW223174  14.869   4.786   7.169
 7093SOL     OW23175   1.251   6.950   1.971
 7093SOL    HW123176   1.185   6.913   2.029
 7093SOL    HW223177   1.314   6.992   2.031
 7094SOL     OW23178   8.052   7.207  10.944
 7094SOL    HW123179   8.006   7.169  10.868
 7094SOL    HW223180   8.130   7.247  10.907
 7095SOL     OW23181   8.076  11.303   7.866
 7095SOL    HW123182   8.126  11.367   7.918
 7095SOL    HW223183   7.985  11.323   7.886
 7096SOL     OW23184   6.129  10.514   8.301
 7096SOL    HW123185   6.190  10.446   8.274
 7096SOL    HW223186   6.045  10.488   8.262
 7097SOL     OW23187   4.017   9.769   5.823
 7097SOL    HW123188   4.021   9.725   5.738
 7097SOL    HW223189   4.101   9.814   5.830
 7098SOL     OW23190   8.804  13.239  10.236
 7098SOL    HW123191   8.791  13.294  10.159
 7098SOL    HW223192   8.798  13.300  10.310
 7099SOL     OW23193   0.393   1.609  13.368
 7099SOL    HW123194   0.429   1.694  13.392
 7099SOL    HW223195   0.466   1.548  13.377
 7100SOL     OW23196   0.774  10.171   4.099
 7100SOL    HW123197   0.736  10.238   4.157
 7100SOL    HW223198   0.747  10.088   4.139
 7101SOL     OW23199   5.761   6.946  10.401
 7101SOL    HW123200   5.721   6.924  10.485
 7101SOL    HW223201   5.855   6.931  10.414
 7102SOL     OW23202   5.660   1.032   5.110
 7102SOL    HW123203   5.613   1.051   5.191
 7102SOL    HW223204   5.695   0.943   5.123
 7103SOL     OW23205   4.846   5.565   7.843
 7103SOL    HW123206   4.831   5.569   7.749
 7103SOL    HW223207   4.877   5.476   7.859
 7104SOL     OW23208   3.482   4.645   2.879
 7104SOL    HW123209   3.569   4.680   2.898
 7104SOL    HW223210   3.479   4.636   2.784
 7105SOL     OW23211  12.619  14.359  14.410
 7105SOL    HW123212  12.598  14.441  14.367
 7105SOL    HW223213  12.570  14.362  14.493
 7106SOL     OW23214   3.453   7.199   8.738
 7106SOL    HW123215   3.453   7.292   8.764
 7106SOL    HW223216   3.446   7.201   8.643
 7107SOL     OW23217   1.118  11.907   1.870
 7107SOL    HW123218   1.055  11.966   1.828
 7107SOL    HW223219   1.094  11.910   1.963
 7108SOL     OW23220   5.418  14.421   7.307
 7108SOL    HW123221   5.355  14.410   7.378
 7108SOL    HW223222   5.440  14.514   7.309
 7109SOL     OW23223   6.208  10.921  13.298
 7109SOL    HW123224   6.151  10.976  13.352
 7109SOL    HW223225   6.294  10.963  13.304
 7110SOL     OW23226   2.013  12.764   4.763
 7110SOL    HW123227   2.082  12.743   4.826
 7110SOL    HW223228   2.050  12.835   4.710
 7111SOL     OW23229  13.394   1.166  14.053
 7111SOL    HW123230  13.446   1.088  14.070
 7111SOL    HW223231  13.316   1.134  14.008
 7112SOL     OW23232   4.572   2.076   5.796
 7112SOL    HW123233   4.540   1.987   5.813
 7112SOL    HW223234   4.545   2.126   5.873
 7113SOL     OW23235   3.433  11.818   7.703
 7113SOL    HW123236   3.506  11.788   7.757
 7113SOL    HW223237   3.442  11.913   7.701
 7114SOL     OW23238  11.283   2.974   0.065
 7114SOL    HW123239  11.195   2.962   0.029
 7114SOL    HW223240  11.287   2.912   0.138
 7115SOL     OW23241  13.572  12.742   8.975
 7115SOL    HW123242  13.525  12.678   9.028
 7115SOL    HW223243  13.551  12.718   8.884
 7116SOL     OW23244   3.479   2.896   9.730
 7116SOL    HW123245   3.471   2.813   9.777
 7116SOL    HW223246   3.478   2.871   9.638
 7117SOL     OW23247  12.858   3.282  13.176
 7117SOL    HW123248  12.856   3.376  13.157
 7117SOL    HW223249  12.835   3.276  13.269
 7118SOL     OW23250   0.163  11.208   7.651
 7118SOL    HW123251   0.084  11.219   7.597
 7118SOL    HW223252   0.153  11.120   7.689
 7119SOL     OW23253   2.383   4.045  14.025
 7119SOL    HW123254   2.453   3.989  13.992
 7119SOL    HW223255   2.330   4.066  13.948
 7120SOL     OW23256   4.770  14.291   0.294
 7120SOL    HW123257   4.844  14.341   0.329
 7120SOL    HW223258   4.793  14.199   0.312
 7121SOL     OW23259   1.346   8.051  14.033
 7121SOL    HW123260   1.282   8.054  14.103
 7121SOL    HW223261   1.411   8.117  14.057
 7122SOL     OW23262  13.819  12.916   1.323
 7122SOL    HW123263  13.727  12.889   1.317
 7122SOL    HW223264  13.844  12.936   1.233
 7123SOL     OW23265   8.256   3.151  11.952
 7123SOL    HW123266   8.204   3.153  12.032
 7123SOL    HW223267   8.244   3.063  11.917
 7124SOL     OW23268   6.460   4.119  14.835
 7124SOL    HW123269   6.516   4.095  14.761
 7124SOL    HW223270   6.513   4.101   0.043
 7125SOL     OW23271   5.578   0.022   9.676
 7125SOL    HW123272   5.495  14.852   9.647
 7125SOL    HW223273   5.636  14.818   9.691
 7126SOL     OW23274   4.904  13.667   3.464
 7126SOL    HW123275   4.852  13.627   3.394
 7126SOL    HW223276   4.840  13.713   3.519
 7127SOL     OW23277  10.597  10.777  14.668
 7127SOL    HW123278  10.688  10.749  14.681
 7127SOL    HW223279  10.604  10.862  14.625
 7128SOL     OW23280   4.465  12.614   1.432
 7128SOL    HW123281   4.535  12.678   1.434
 7128SOL    HW223282   4.451  12.590   1.523
 7129SOL     OW23283  12.737   1.016   2.698
 7129SOL    HW123284  12.653   1.021   2.743
 7129SOL    HW223285  12.724   1.063   2.616
 7130SOL     OW23286  10.126   4.247   3.823
 7130SOL    HW123287  10.122   4.194   3.744
 7130SOL    HW223288  10.034   4.266   3.844
 7131SOL     OW23289   5.628  11.794   0.142
 7131SOL    HW123290   5.640  11.701   0.122
 7131SOL    HW223291   5.545  11.817   0.101
 7132SOL     OW23292   9.505   9.005   4.727
 7132SOL    HW123293   9.486   9.019   4.820
 7132SOL    HW223294   9.504   9.093   4.690
 7133SOL     OW23295   6.716   6.430   8.670
 7133SOL    HW123296   6.637   6.416   8.618
 7133SOL    HW223297   6.715   6.359   8.734
 7134SOL     OW23298  14.392  14.106   0.757
 7134SOL    HW123299  14.317  14.142   0.806
 7134SOL    HW223300  14.468  14.151   0.794
 7135SOL     OW23301   7.732  12.154   9.270
 7135SOL    HW123302   7.758  12.110   9.189
 7135SOL    HW223303   7.813  12.188   9.306
 7136SOL     OW23304   9.836   2.558  14.065
 7136SOL    HW123305   9.898   2.572  14.137
 7136SOL    HW223306   9.877   2.598  13.989
 7137SOL     OW23307   3.714  14.845  14.503
 7137SOL    HW123308   3.729  14.853  14.408
 7137SOL    HW223309   3.621  14.825  14.511
 7138SOL     OW23310   9.964   8.339   1.603
 7138SOL    HW123311   9.956   8.310   1.694
 7138SOL    HW223312  10.007   8.267   1.558
 7139SOL     OW23313   4.082   7.130   7.848
 7139SOL    HW123314   4.008   7.078   7.818
 7139SOL    HW223315   4.058   7.220   7.830
 7140SOL     OW23316   6.736   5.117  12.041
 7140SOL    HW123317   6.648   5.101  12.005
 7140SOL    HW223318   6.720   5.162  12.124
 7141SOL     OW23319   1.208   5.969   8.053
 7141SOL    HW123320   1.205   6.023   8.132
 7141SOL    HW223321   1.226   5.881   8.086
 7142SOL     OW23322  14.686  14.609  13.587
 7142SOL    HW123323  14.676  14.522  13.625
 7142SOL    HW223324  14.598  14.636  13.563
 7143SOL     OW23325   1.566  10.279   8.514
 7143SOL    HW123326   1.596  10.289   8.423
 7143SOL    HW223327   1.474  10.254   8.506
 7144SOL     OW23328  10.101  12.653   5.805
 7144SOL    HW123329  10.155  12.730   5.787
 7144SOL    HW223330  10.014  12.677   5.772
 7145SOL     OW23331   2.740   1.334   1.943
 7145SOL    HW123332   2.755   1.267   2.010
 7145SOL    HW223333   2.787   1.411   1.975
 7146SOL     OW23334  12.001   6.261   9.247
 7146SOL    HW123335  11.988   6.188   9.309
 7146SOL    HW223336  12.048   6.327   9.298
 7147SOL     OW23337  12.626   3.277   8.377
 7147SOL    HW123338  12.704   3.310   8.422
 7147SOL    HW223339  12.553   3.320   8.421
 7148SOL     OW23340  13.641   6.362   9.609
 7148SOL    HW123341  13.609   6.379   9.521
 7148SOL    HW223342  13.732   6.335   9.597
 7149SOL     OW23343   7.734   2.615  13.130
 7149SOL    HW123344   7.739   2.520  13.120
 7149SOL    HW223345   7.822   2.647  13.110
 7150SOL     OW23346   6.896   8.963   3.151
 7150SOL    HW123347   6.879   9.024   3.079
 7150SOL    HW223348   6.977   8.995   3.190
 7151SOL     OW23349   7.973   3.445  11.581
 7151SOL    HW123350   8.000   3.392  11.656
 7151SOL    HW223351   8.045   3.506  11.568
 7152SOL     OW23352   4.852   3.030  14.329
 7152SOL    HW123353   4.778   2.970  14.313
 7152SOL    HW223354   4.818   3.093  14.392
 7153SOL     OW23355  13.262   3.944   7.679
 7153SOL    HW123356  13.289   3.865   7.632
 7153SOL    HW223357  13.344   3.988   7.702
 7154SOL     OW23358   7.687   9.144   5.314
 7154SOL    HW123359   7.666   9.096   5.233
 7154SOL    HW223360   7.705   9.076   5.378
 7155SOL     OW23361  12.768  11.173  10.542
 7155SOL    HW123362  12.829  11.163  10.469
 7155SOL    HW223363  12.815  11.225  10.607
 7156SOL     OW23364  11.165   2.665   0.875
 7156SOL    HW123365  11.214   2.589   0.842
 7156SOL    HW223366  11.163   2.653   0.970
 7157SOL     OW23367   0.327  14.607   3.433
 7157SOL    HW123368   0.344  14.686   3.382
 7157SOL    HW223369   0.248  14.570   3.394
 7158SOL     OW23370   1.097   2.408   2.901
 7158SOL    HW123371   1.126   2.471   2.966
 7158SOL    HW223372   1.152   2.425   2.824
 7159SOL     OW23373   5.131   7.422   6.188
 7159SOL    HW123374   5.168   7.337   6.164
 7159SOL    HW223375   5.037   7.412   6.174
 7160SOL     OW23376   5.735  12.810  12.300
 7160SOL    HW123377   5.654  12.795  12.349
 7160SOL    HW223378   5.707  12.833  12.212
 7161SOL     OW23379   3.280  14.277  10.914
 7161SOL    HW123380   3.215  14.339  10.947
 7161SOL    HW223381   3.227  14.208  10.872
 7162SOL     OW23382   6.411   8.839   1.855
 7162SOL    HW123383   6.373   8.817   1.940
 7162SOL    HW223384   6.390   8.932   1.843
 7163SOL     OW23385  12.016   3.205   7.423
 7163SOL    HW123386  12.026   3.157   7.340
 7163SOL    HW223387  11.975   3.288   7.397
 7164SOL     OW23388   7.839  11.849  11.565
 7164SOL    HW123389   7.749  11.820  11.554
 7164SOL    HW223390   7.886  11.808  11.492
 7165SOL     OW23391   6.451   2.919   5.705
 7165SOL    HW123392   6.531   2.866   5.716
 7165SOL    HW223393   6.380   2.861   5.734
 7166SOL     OW23394   5.661   3.949  11.992
 7166SOL    HW123395   5.637   3.940  12.084
 7166SOL    HW223396   5.743   3.998  11.993
 7167SOL     OW23397   4.349   3.565   5.205
 7167SOL    HW123398   4.274   3.558   5.147
 7167SOL    HW223399   4.385   3.652   5.188
 7168SOL     OW23400   1.589  12.472   0.572
 7168SOL    HW123401   1.494  12.460   0.576
 7168SOL    HW223402   1.617  12.476   0.663
 7169SOL     OW23403   2.668  11.388   7.425
 7169SOL    HW123404   2.647  11.406   7.334
 7169SOL    HW223405   2.624  11.305   7.444
 7170SOL     OW23406   2.160   4.515   8.072
 7170SOL    HW123407   2.218   4.443   8.100
 7170SOL    HW223408   2.073   4.475   8.067
 7171SOL     OW23409   3.552   1.008   7.494
 7171SOL    HW123410   3.504   1.085   7.525
 7171SOL    HW223411   3.633   1.008   7.545
 7172SOL     OW23412  14.652  10.647   5.042
 7172SOL    HW123413  14.624  10.691   4.962
 7172SOL    HW223414  14.630  10.709   5.112
 7173SOL     OW23415   5.816  13.847   5.627
 7173SOL    HW123416   5.911  13.844   5.642
 7173SOL    HW223417   5.803  13.792   5.549
 7174SOL     OW23418   3.119  14.504   3.443
 7174SOL    HW123419   3.127  14.454   3.362
 7174SOL    HW223420   3.206  14.541   3.457
 7175SOL     OW23421   4.828   0.449   0.082
 7175SOL    HW123422   4.896   0.442   0.016
 7175SOL    HW223423   4.821   0.361   0.119
 7176SOL     OW23424   4.088   2.251   4.683
 7176SOL    HW123425   4.107   2.307   4.608
 7176SOL    HW223426   4.154   2.275   4.748
 7177SOL     OW23427  13.110   6.116   5.140
 7177SOL    HW123428  13.139   6.102   5.230
 7177SOL    HW223429  13.023   6.155   5.148
 7178SOL     OW23430   5.431   6.358   2.975
 7178SOL    HW123431   5.489   6.375   2.901
 7178SOL    HW223432   5.474   6.400   3.049
 7179SOL     OW23433   5.989   2.089   1.707
 7179SOL    HW123434   6.064   2.046   1.666
 7179SOL    HW223435   5.990   2.178   1.672
 7180SOL     OW23436   4.833   6.052  14.447
 7180SOL    HW123437   4.926   6.067  14.428
 7180SOL    HW223438   4.828   5.960  14.470
 7181SOL     OW23439  11.742  11.553  14.003
 7181SOL    HW123440  11.726  11.642  13.973
 7181SOL    HW223441  11.732  11.499  13.924
 7182SOL     OW23442   7.764  11.181   7.574
 7182SOL    HW123443   7.802  11.182   7.486
 7182SOL    HW223444   7.767  11.089   7.600
 7183SOL     OW23445  12.144  12.705   1.179
 7183SOL    HW123446  12.182  12.617   1.188
 7183SOL    HW223447  12.056  12.696   1.215
 7184SOL     OW23448   0.487   6.996   9.372
 7184SOL    HW123449   0.422   6.944   9.419
 7184SOL    HW223450   0.497   6.952   9.287
 7185SOL     OW23451  14.094  10.243   3.623
 7185SOL    HW123452  14.039  10.292   3.562
 7185SOL    HW223453  14.181  10.281   3.613
 7186SOL     OW23454   6.086   9.174   5.407
 7186SOL    HW123455   6.147   9.204   5.475
 7186SOL    HW223456   6.113   9.084   5.389
 7187SOL     OW23457   9.001  11.759  12.133
 7187SOL    HW123458   9.063  11.784  12.065
 7187SOL    HW223459   8.945  11.693  12.092
 7188SOL     OW23460   3.126   1.412   6.316
 7188SOL    HW123461   3.052   1.473   6.313
 7188SOL    HW223462   3.107   1.347   6.248
 7189SOL     OW23463  12.960   8.870   3.178
 7189SOL    HW123464  12.956   8.904   3.268
 7189SOL    HW223465  13.000   8.784   3.187
 7190SOL     OW23466   4.269   2.879  14.807
 7190SOL    HW123467   4.314   2.829  14.738
 7190SOL    HW223468   4.176   2.858  14.793
 7191SOL     OW23469   2.346   5.912   2.269
 7191SOL    HW123470   2.408   5.982   2.291
 7191SOL    HW223471   2.261   5.948   2.292
 7192SOL     OW23472   2.709   9.081   7.098
 7192SOL    HW123473   2.688   9.138   7.024
 7192SOL    HW223474   2.649   9.007   7.089
 7193SOL     OW23475   2.381   3.785   5.953
 7193SOL    HW123476   2.464   3.761   5.913
 7193SOL    HW223477   2.322   3.714   5.930
 7194SOL     OW23478  10.425   0.900   5.016
 7194SOL    HW123479  10.365   0.974   5.009
 7194SOL    HW223480  10.415   0.852   4.934
 7195SOL     OW23481   5.260  12.009  14.196
 7195SOL    HW123482   5.332  11.989  14.256
 7195SOL    HW223483   5.288  11.973  14.112
 7196SOL     OW23484   1.809   7.945   7.415
 7196SOL    HW123485   1.756   7.979   7.343
 7196SOL    HW223486   1.873   7.888   7.373
 7197SOL     OW23487  11.295  13.641   6.165
 7197SOL    HW123488  11.312  13.556   6.126
 7197SOL    HW223489  11.237  13.623   6.239
 7198SOL     OW23490   4.720  12.118   7.418
 7198SOL    HW123491   4.631  12.143   7.392
 7198SOL    HW223492   4.729  12.027   7.391
 7199SOL     OW23493   1.762  11.314   7.684
 7199SOL    HW123494   1.822  11.246   7.656
 7199SOL    HW223495   1.679  11.292   7.642
 7200SOL     OW23496  10.092  10.451   9.118
 7200SOL    HW123497  10.042  10.371   9.107
 7200SOL    HW223498  10.184  10.423   9.117
 7201SOL     OW23499  14.415  14.688   3.192
 7201SOL    HW123500  14.494  14.733   3.163
 7201SOL    HW223501  14.353  14.698   3.119
 7202SOL     OW23502   4.800  13.827   6.949
 7202SOL    HW123503   4.854  13.752   6.971
 7202SOL    HW223504   4.812  13.888   7.021
 7203SOL     OW23505   9.567   3.676   4.484
 7203SOL    HW123506   9.646   3.708   4.441
 7203SOL    HW223507   9.498   3.688   4.418
 7204SOL     OW23508   5.508  10.396   5.651
 7204SOL    HW123509   5.466  10.374   5.734
 7204SOL    HW223510   5.456  10.468   5.616
 7205SOL     OW23511  10.262   6.018   4.688
 7205SOL    HW123512  10.352   5.997   4.714
 7205SOL    HW223513  10.272   6.087   4.622
 7206SOL     OW23514  10.087   7.714   5.289
 7206SOL    HW123515  10.060   7.769   5.362
 7206SOL    HW223516  10.106   7.629   5.328
 7207SOL     OW23517  11.246   5.131   2.867
 7207SOL    HW123518  11.313   5.200   2.873
 7207SOL    HW223519  11.170   5.168   2.912
 7208SOL     OW23520   2.093   3.057   6.114
 7208SOL    HW123521   2.019   3.048   6.055
 7208SOL    HW223522   2.164   3.008   6.072
 7209SOL     OW23523   9.353   2.056   9.746
 7209SOL    HW123524   9.317   2.017   9.666
 7209SOL    HW223525   9.288   2.121   9.772
 7210SOL     OW23526   1.923   6.356   0.600
 7210SOL    HW123527   1.896   6.448   0.603
 7210SOL    HW223528   2.011   6.356   0.636
 7211SOL     OW23529   1.080   7.406   7.500
 7211SOL    HW123530   1.122   7.487   7.530
 7211SOL    HW223531   1.082   7.348   7.576
 7212SOL     OW23532  12.013  10.201   9.392
 7212SOL    HW123533  11.997  10.186   9.298
 7212SOL    HW223534  12.080  10.269   9.394
 7213SOL     OW23535   2.894  10.263  11.153
 7213SOL    HW123536   2.960  10.225  11.211
 7213SOL    HW223537   2.915  10.228  11.067
 7214SOL     OW23538   8.487   7.017   7.510
 7214SOL    HW123539   8.476   6.931   7.469
 7214SOL    HW223540   8.427   7.075   7.463
 7215SOL     OW23541   6.889   9.160   2.970
 7215SOL    HW123542   6.958   9.225   2.956
 7215SOL    HW223543   6.903   9.095   2.901
 7216SOL     OW23544  12.219   0.882   1.015
 7216SOL    HW123545  12.179   0.881   0.928
 7216SOL    HW223546  12.310   0.857   1.000
 7217SOL     OW23547  11.636   2.142   4.629
 7217SOL    HW123548  11.675   2.132   4.542
 7217SOL    HW223549  11.709   2.127   4.689
 7218SOL     OW23550   4.774  12.018   0.442
 7218SOL    HW123551   4.804  12.095   0.490
 7218SOL    HW223552   4.684  12.005   0.472
 7219SOL     OW23553  12.560   3.266  10.696
 7219SOL    HW123554  12.470   3.299  10.702
 7219SOL    HW223555  12.583   3.276  10.604
 7220SOL     OW23556   5.271   3.189   2.628
 7220SOL    HW123557   5.287   3.259   2.691
 7220SOL    HW223558   5.268   3.109   2.680
 7221SOL     OW23559   4.237   9.824   4.370
 7221SOL    HW123560   4.285   9.858   4.296
 7221SOL    HW223561   4.280   9.742   4.392
 7222SOL     OW23562   0.402   6.478   9.200
 7222SOL    HW123563   0.451   6.550   9.159
 7222SOL    HW223564   0.417   6.403   9.142
 7223SOL     OW23565   7.056   8.472  12.428
 7223SOL    HW123566   6.993   8.470  12.356
 7223SOL    HW223567   7.132   8.518  12.393
 7224SOL     OW23568  14.320  14.755  10.246
 7224SOL    HW123569  14.283  14.686  10.191
 7224SOL    HW223570  14.248  14.818  10.256
 7225SOL     OW23571   7.816   3.199   5.098
 7225SOL    HW123572   7.759   3.272   5.073
 7225SOL    HW223573   7.904   3.229   5.074
 7226SOL     OW23574  10.249   5.433  13.765
 7226SOL    HW123575  10.203   5.459  13.686
 7226SOL    HW223576  10.206   5.353  13.794
 7227SOL     OW23577   6.522   9.923  10.992
 7227SOL    HW123578   6.553  10.004  10.952
 7227SOL    HW223579   6.465   9.884  10.926
 7228SOL     OW23580   8.868   5.960   8.539
 7228SOL    HW123581   8.787   6.005   8.516
 7228SOL    HW223582   8.845   5.906   8.614
 7229SOL     OW23583  13.200   9.681   2.404
 7229SOL    HW123584  13.240   9.760   2.441
 7229SOL    HW223585  13.144   9.713   2.334
 7230SOL     OW23586   4.231   7.547   1.725
 7230SOL    HW123587   4.230   7.472   1.784
 7230SOL    HW223588   4.154   7.534   1.669
 7231SOL     OW23589  13.836   9.154  13.573
 7231SOL    HW123590  13.764   9.106  13.614
 7231SOL    HW223591  13.823   9.245  13.599
 7232SOL     OW23592  13.341  11.889   4.113
 7232SOL    HW123593  13.285  11.897   4.191
 7232SOL    HW223594  13.280  11.896   4.039
 7233SOL     OW23595   4.852   6.336  12.899
 7233SOL    HW123596   4.767   6.340  12.855
 7233SOL    HW223597   4.890   6.423  12.884
 7234SOL     OW23598   5.927   5.264  14.180
 7234SOL    HW123599   5.987   5.204  14.135
 7234SOL    HW223600   5.928   5.235  14.271
 7235SOL     OW23601  14.330  13.692  12.476
 7235SOL    HW123602  14.298  13.764  12.532
 7235SOL    HW223603  14.287  13.614  12.511
 7236SOL     OW23604   3.319   7.358  13.262
 7236SOL    HW123605   3.261   7.316  13.198
 7236SOL    HW223606   3.384   7.404  13.209
 7237SOL     OW23607   5.457   9.033   0.392
 7237SOL    HW123608   5.508   8.965   0.348
 7237SOL    HW223609   5.454   9.105   0.329
 7238SOL     OW23610   2.140   0.485  10.022
 7238SOL    HW123611   2.051   0.482  10.057
 7238SOL    HW223612   2.190   0.531  10.090
 7239SOL     OW23613   3.559   3.160   8.996
 7239SOL    HW123614   3.630   3.130   9.054
 7239SOL    HW223615   3.604   3.208   8.927
 7240SOL     OW23616   8.094   2.683  11.367
 7240SOL    HW123617   8.152   2.614  11.399
 7240SOL    HW223618   8.067   2.653  11.280
 7241SOL     OW23619   9.276   4.782   4.220
 7241SOL    HW123620   9.239   4.869   4.235
 7241SOL    HW223621   9.199   4.726   4.204
 7242SOL     OW23622  11.489   5.746   9.120
 7242SOL    HW123623  11.525   5.762   9.033
 7242SOL    HW223624  11.493   5.832   9.163
 7243SOL     OW23625   2.272   9.061   0.829
 7243SOL    HW123626   2.177   9.047   0.829
 7243SOL    HW223627   2.308   8.986   0.781
 7244SOL     OW23628   5.234   5.643   8.565
 7244SOL    HW123629   5.215   5.732   8.597
 7244SOL    HW223630   5.310   5.615   8.615
 7245SOL     OW23631   6.050  12.716   6.119
 7245SOL    HW123632   6.109  12.775   6.073
 7245SOL    HW223633   5.970  12.767   6.132
 7246SOL     OW23634  10.263  14.124  10.836
 7246SOL    HW123635  10.318  14.132  10.914
 7246SOL    HW223636  10.191  14.066  10.863
 7247SOL     OW23637  10.741   5.245   7.590
 7247SOL    HW123638  10.827   5.247   7.550
 7247SOL    HW223639  10.682   5.217   7.520
 7248SOL     OW23640   7.797   3.229   4.280
 7248SOL    HW123641   7.830   3.144   4.251
 7248SOL    HW223642   7.870   3.269   4.326
 7249SOL     OW23643   2.148   4.581   1.714
 7249SOL    HW123644   2.215   4.613   1.775
 7249SOL    HW223645   2.192   4.578   1.629
 7250SOL     OW23646   1.401   5.895   7.875
 7250SOL    HW123647   1.317   5.921   7.911
 7250SOL    HW223648   1.382   5.818   7.821
 7251SOL     OW23649  13.351  12.259   7.868
 7251SOL    HW123650  13.273  12.232   7.820
 7251SOL    HW223651  13.370  12.186   7.926
 7252SOL     OW23652   3.060   0.107   2.773
 7252SOL    HW123653   3.129   0.060   2.820
 7252SOL    HW223654   2.987   0.045   2.768
 7253SOL     OW23655  13.784   5.105   2.251
 7253SOL    HW123656  13.771   5.039   2.319
 7253SOL    HW223657  13.697   5.118   2.213
 7254SOL     OW23658  13.107   2.674  10.145
 7254SOL    HW123659  13.031   2.729  10.165
 7254SOL    HW223660  13.069   2.589  10.120
 7255SOL     OW23661   3.629   1.812   6.101
 7255SOL    HW123662   3.638   1.739   6.039
 7255SOL    HW223663   3.541   1.801   6.137
 7256SOL     OW23664   6.204   1.503   0.212
 7256SOL    HW123665   6.189   1.595   0.191
 7256SOL    HW223666   6.297   1.489   0.193
 7257SOL     OW23667   9.639   8.490  14.161
 7257SOL    HW123668   9.672   8.421  14.104
 7257SOL    HW223669   9.630   8.566  14.104
 7258SOL     OW23670  12.778  10.527   5.728
 7258SOL    HW123671  12.726  10.496   5.654
 7258SOL    HW223672  12.845  10.582   5.688
 7259SOL     OW23673  10.760  14.135   4.100
 7259SOL    HW123674  10.692  14.111   4.164
 7259SOL    HW223675  10.715  14.191   4.037
 7260SOL     OW23676  11.549  11.657  10.555
 7260SOL    HW123677  11.611  11.730  10.563
 7260SOL    HW223678  11.570  11.600  10.628
 7261SOL     OW23679   4.982   0.316   7.603
 7261SOL    HW123680   5.014   0.300   7.692
 7261SOL    HW223681   4.890   0.339   7.615
 7262SOL     OW23682   6.299   9.382   7.764
 7262SOL    HW123683   6.331   9.397   7.675
 7262SOL    HW223684   6.350   9.443   7.818
 7263SOL     OW23685   0.127   9.949  10.198
 7263SOL    HW123686   0.164  10.031  10.164
 7263SOL    HW223687   0.037   9.971  10.222
 7264SOL     OW23688   1.277   3.960  13.023
 7264SOL    HW123689   1.319   3.974  12.938
 7264SOL    HW223690   1.209   4.028  13.028
 7265SOL     OW23691  11.877   1.569   3.538
 7265SOL    HW123692  11.971   1.549   3.536
 7265SOL    HW223693  11.869   1.656   3.500
 7266SOL     OW23694   1.752   0.552   0.977
 7266SOL    HW123695   1.802   0.544   1.059
 7266SOL    HW223696   1.720   0.642   0.977
 7267SOL     OW23697   3.289   8.735   0.425
 7267SOL    HW123698   3.209   8.785   0.439
 7267SOL    HW223699   3.359   8.800   0.430
 7268SOL     OW23700  14.070   4.641   1.154
 7268SOL    HW123701  14.107   4.671   1.071
 7268SOL    HW223702  14.101   4.704   1.219
 7269SOL     OW23703   4.835  14.796   7.015
 7269SOL    HW123704   4.768  14.801   6.946
 7269SOL    HW223705   4.841   0.014   7.050
 7270SOL     OW23706  11.703   8.880   3.309
 7270SOL    HW123707  11.619   8.854   3.270
 7270SOL    HW223708  11.765   8.814   3.279
 7271SOL     OW23709  11.641   6.674  12.018
 7271SOL    HW123710  11.656   6.769  12.011
 7271SOL    HW223711  11.554   6.660  11.982
 7272SOL     OW23712   2.179   5.573   6.021
 7272SOL    HW123713   2.201   5.567   6.114
 7272SOL    HW223714   2.191   5.484   5.988
 7273SOL     OW23715   0.454   4.448   0.711
 7273SOL    HW123716   0.457   4.538   0.678
 7273SOL    HW223717   0.546   4.424   0.723
 7274SOL     OW23718   6.951   7.385   8.347
 7274SOL    HW123719   6.878   7.403   8.407
 7274SOL    HW223720   7.029   7.407   8.398
 7275SOL     OW23721   8.147   3.577  12.503
 7275SOL    HW123722   8.220   3.515  12.509
 7275SOL    HW223723   8.079   3.538  12.559
 7276SOL     OW23724   9.641   3.170   1.372
 7276SOL    HW123725   9.730   3.144   1.394
 7276SOL    HW223726   9.611   3.104   1.309
 7277SOL     OW23727  14.287   2.081  14.389
 7277SOL    HW123728  14.276   2.170  14.354
 7277SOL    HW223729  14.309   2.028  14.312
 7278SOL     OW23730  13.873   9.001   2.483
 7278SOL    HW123731  13.964   8.992   2.452
 7278SOL    HW223732  13.858   8.921   2.534
 7279SOL     OW23733   5.985   9.231   7.714
 7279SOL    HW123734   5.912   9.169   7.705
 7279SOL    HW223735   6.028   9.229   7.628
 7280SOL     OW23736   7.259   0.615  14.696
 7280SOL    HW123737   7.194   0.551  14.668
 7280SOL    HW223738   7.280   0.664  14.617
 7281SOL     OW23739  11.476   9.356  14.070
 7281SOL    HW123740  11.500   9.412  14.143
 7281SOL    HW223741  11.516   9.398  13.993
 7282SOL     OW23742   1.388   9.011  13.922
 7282SOL    HW123743   1.461   8.948  13.924
 7282SOL    HW223744   1.430   9.096  13.918
 7283SOL     OW23745   5.939  13.766  10.029
 7283SOL    HW123746   5.913  13.687   9.981
 7283SOL    HW223747   5.938  13.835   9.963
 7284SOL     OW23748   2.836   7.231  14.642
 7284SOL    HW123749   2.775   7.296  14.606
 7284SOL    HW223750   2.918   7.249  14.597
 7285SOL     OW23751  10.084  14.104   3.475
 7285SOL    HW123752  10.079  14.079   3.383
 7285SOL    HW223753  10.167  14.151   3.483
 7286SOL     OW23754   8.604   0.794   5.319
 7286SOL    HW123755   8.669   0.827   5.381
 7286SOL    HW223756   8.646   0.803   5.234
 7287SOL     OW23757   4.945   5.192   1.999
 7287SOL    HW123758   4.870   5.133   1.985
 7287SOL    HW223759   5.021   5.134   1.999
 7288SOL     OW23760  12.136   7.363   3.960
 7288SOL    HW123761  12.104   7.450   3.935
 7288SOL    HW223762  12.065   7.303   3.938
 7289SOL     OW23763  11.731   6.610   6.992
 7289SOL    HW123764  11.689   6.657   7.065
 7289SOL    HW223765  11.794   6.673   6.956
 7290SOL     OW23766  14.459   6.724   2.403
 7290SOL    HW123767  14.478   6.786   2.473
 7290SOL    HW223768  14.444   6.641   2.447
 7291SOL     OW23769   9.921   9.580   6.033
 7291SOL    HW123770  10.016   9.581   6.036
 7291SOL    HW223771   9.894   9.573   6.124
 7292SOL     OW23772   8.706  10.449   7.853
 7292SOL    HW123773   8.792  10.491   7.849
 7292SOL    HW223774   8.693  10.430   7.946
 7293SOL     OW23775   0.946   2.059   3.671
 7293SOL    HW123776   0.952   1.964   3.660
 7293SOL    HW223777   0.964   2.094   3.583
 7294SOL     OW23778   2.471  10.646   2.120
 7294SOL    HW123779   2.498  10.632   2.029
 7294SOL    HW223780   2.491  10.564   2.164
 7295SOL     OW23781  12.322  11.811   9.634
 7295SOL    HW123782  12.337  11.867   9.558
 7295SOL    HW223783  12.233  11.832   9.662
 7296SOL     OW23784   3.069  12.895   0.706
 7296SOL    HW123785   3.099  12.938   0.785
 7296SOL    HW223786   2.978  12.871   0.724
 7297SOL     OW23787   0.771   0.638  11.111
 7297SOL    HW123788   0.844   0.578  11.131
 7297SOL    HW223789   0.738   0.608  11.027
 7298SOL     OW23790  10.666   2.828   6.198
 7298SOL    HW123791  10.636   2.901   6.145
 7298SOL    HW223792  10.750   2.803   6.161
 7299SOL     OW23793   1.227   3.401   3.316
 7299SOL    HW123794   1.160   3.409   3.385
 7299SOL    HW223795   1.305   3.440   3.353
 7300SOL     OW23796   3.358   2.096   8.853
 7300SOL    HW123797   3.269   2.109   8.820
 7300SOL    HW223798   3.407   2.169   8.817
 7301SOL     OW23799  11.661   5.356   1.733
 7301SOL    HW123800  11.575   5.360   1.690
 7301SOL    HW223801  11.717   5.310   1.670
 7302SOL     OW23802  11.918   8.681   1.147
 7302SOL    HW123803  11.881   8.602   1.186
 7302SOL    HW223804  11.987   8.708   1.207
 7303SOL     OW23805   1.642   6.141   2.641
 7303SOL    HW123806   1.547   6.153   2.646
 7303SOL    HW223807   1.653   6.068   2.580
 7304SOL     OW23808   3.968  12.709   3.783
 7304SOL    HW123809   3.962  12.639   3.717
 7304SOL    HW223810   4.046  12.758   3.759
 7305SOL     OW23811   6.200   2.879   5.391
 7305SOL    HW123812   6.266   2.923   5.446
 7305SOL    HW223813   6.134   2.849   5.454
 7306SOL     OW23814   0.484   6.036   7.672
 7306SOL    HW123815   0.511   5.960   7.722
 7306SOL    HW223816   0.391   6.046   7.690
 7307SOL     OW23817   7.565  11.530  12.987
 7307SOL    HW123818   7.604  11.443  12.980
 7307SOL    HW223819   7.531  11.549  12.900
 7308SOL     OW23820   6.079  13.037   0.299
 7308SOL    HW123821   6.152  12.998   0.346
 7308SOL    HW223822   6.118  13.111   0.252
 7309SOL     OW23823  14.319  14.754  11.762
 7309SOL    HW123824  14.395  14.810  11.780
 7309SOL    HW223825  14.348  14.666  11.787
 7310SOL     OW23826   0.441   3.147  14.695
 7310SOL    HW123827   0.501   3.077  14.720
 7310SOL    HW223828   0.493   3.203  14.636
 7311SOL     OW23829   7.260  12.383   1.487
 7311SOL    HW123830   7.225  12.299   1.458
 7311SOL    HW223831   7.336  12.360   1.540
 7312SOL     OW23832   4.903  13.081  12.698
 7312SOL    HW123833   4.891  12.988  12.680
 7312SOL    HW223834   4.868  13.125  12.621
 7313SOL     OW23835  12.680   2.247  10.526
 7313SOL    HW123836  12.764   2.275  10.562
 7313SOL    HW223837  12.668   2.158  10.559
 7314SOL     OW23838   3.520   4.664  10.796
 7314SOL    HW123839   3.557   4.578  10.819
 7314SOL    HW223840   3.531   4.670  10.701
 7315SOL     OW23841   1.561   9.174   1.886
 7315SOL    HW123842   1.625   9.195   1.953
 7315SOL    HW223843   1.611   9.129   1.818
 7316SOL     OW23844   0.133   7.700   9.919
 7316SOL    HW123845   0.062   7.703   9.983
 7316SOL    HW223846   0.090   7.676   9.837
 7317SOL     OW23847   3.213   5.007  14.838
 7317SOL    HW123848   3.279   5.074  14.854
 7317SOL    HW223849   3.146   5.051  14.785
 7318SOL     OW23850   2.288   6.295   0.426
 7318SOL    HW123851   2.234   6.374   0.425
 7318SOL    HW223852   2.261   6.247   0.348
 7319SOL     OW23853   8.584  12.016   8.478
 7319SOL    HW123854   8.525  12.077   8.522
 7319SOL    HW223855   8.537  11.990   8.399
 7320SOL     OW23856  11.562   3.545  13.653
 7320SOL    HW123857  11.477   3.534  13.609
 7320SOL    HW223858  11.584   3.637  13.640
 7321SOL     OW23859  10.736   3.668   6.439
 7321SOL    HW123860  10.744   3.759   6.410
 7321SOL    HW223861  10.641   3.654   6.447
 7322SOL     OW23862   5.456   2.018   8.245
 7322SOL    HW123863   5.453   2.029   8.150
 7322SOL    HW223864   5.546   2.042   8.269
 7323SOL     OW23865  12.569   3.489   0.241
 7323SOL    HW123866  12.595   3.513   0.330
 7323SOL    HW223867  12.474   3.503   0.239
 7324SOL     OW23868   8.444   5.998   2.607
 7324SOL    HW123869   8.356   6.032   2.625
 7324SOL    HW223870   8.430   5.907   2.583
 7325SOL     OW23871   7.794   6.549  11.633
 7325SOL    HW123872   7.734   6.573  11.563
 7325SOL    HW223873   7.761   6.593  11.711
 7326SOL     OW23874  13.512   2.881   9.517
 7326SOL    HW123875  13.442   2.830   9.558
 7326SOL    HW223876  13.522   2.957   9.573
 7327SOL     OW23877   4.478   8.267  13.331
 7327SOL    HW123878   4.500   8.350  13.373
 7327SOL    HW223879   4.437   8.292  13.249
 7328SOL     OW23880  13.894   7.599   7.518
 7328SOL    HW123881  13.923   7.526   7.463
 7328SOL    HW223882  13.809   7.572   7.551
 7329SOL     OW23883  14.529   4.634  13.372
 7329SOL    HW123884  14.581   4.575  13.428
 7329SOL    HW223885  14.535   4.596  13.285
 7330SOL     OW23886  12.044   4.375  11.983
 7330SOL    HW123887  12.088   4.366  11.898
 7330SOL    HW223888  12.115   4.368  12.047
 7331SOL     OW23889  13.625   0.420   8.284
 7331SOL    HW123890  13.621   0.325   8.271
 7331SOL    HW223891  13.534   0.446   8.300
 7332SOL     OW23892   6.803   2.131   3.319
 7332SOL    HW123893   6.742   2.082   3.374
 7332SOL    HW223894   6.750   2.200   3.280
 7333SOL     OW23895   0.019  14.323   4.322
 7333SOL    HW123896  14.835  14.244   4.315
 7333SOL    HW223897   0.050  14.339   4.233
 7334SOL     OW23898  11.943  14.359  10.452
 7334SOL    HW123899  12.024  14.410  10.446
 7334SOL    HW223900  11.873  14.425  10.446
 7335SOL     OW23901  11.420   2.521   3.621
 7335SOL    HW123902  11.420   2.433   3.585
 7335SOL    HW223903  11.507   2.555   3.601
 7336SOL     OW23904  14.730  12.533  13.384
 7336SOL    HW123905  14.821  12.503  13.386
 7336SOL    HW223906  14.731  12.609  13.326
 7337SOL     OW23907  11.485   5.717   6.461
 7337SOL    HW123908  11.543   5.742   6.390
 7337SOL    HW223909  11.440   5.639   6.429
 7338SOL     OW23910   6.073  14.598  12.301
 7338SOL    HW123911   6.115  14.639  12.377
 7338SOL    HW223912   6.026  14.669  12.258
 7339SOL     OW23913   3.499   8.051   8.622
 7339SOL    HW123914   3.461   8.138   8.604
 7339SOL    HW223915   3.544   8.061   8.705
 7340SOL     OW23916  10.074   6.400  13.089
 7340SOL    HW123917  10.062   6.429  12.998
 7340SOL    HW223918  10.077   6.305  13.084
 7341SOL     OW23919   6.192  10.446   1.820
 7341SOL    HW123920   6.246  10.516   1.783
 7341SOL    HW223921   6.182  10.383   1.748
 7342SOL     OW23922   9.080   3.345   4.726
 7342SOL    HW123923   9.135   3.402   4.781
 7342SOL    HW223924   9.089   3.258   4.766
 7343SOL     OW23925   0.584   2.974   6.818
 7343SOL    HW123926   0.606   2.898   6.765
 7343SOL    HW223927   0.562   2.938   6.904
 7344SOL     OW23928   3.271   2.552   8.499
 7344SOL    HW123929   3.334   2.616   8.532
 7344SOL    HW223930   3.305   2.526   8.414
 7345SOL     OW23931  13.410   3.372   7.180
 7345SOL    HW123932  13.454   3.302   7.227
 7345SOL    HW223933  13.370   3.426   7.249
 7346SOL     OW23934   7.974   9.652   9.934
 7346SOL    HW123935   8.062   9.618   9.918
 7346SOL    HW223936   7.916   9.578   9.912
 7347SOL     OW23937  10.415   1.852   8.342
 7347SOL    HW123938  10.427   1.757   8.344
 7347SOL    HW223939  10.338   1.867   8.397
 7348SOL     OW23940   3.954  12.267  12.005
 7348SOL    HW123941   4.030  12.299  11.956
 7348SOL    HW223942   3.982  12.182  12.039
 7349SOL     OW23943   3.852   7.572  11.558
 7349SOL    HW123944   3.877   7.653  11.604
 7349SOL    HW223945   3.826   7.512  11.628
 7350SOL     OW23946   6.786   2.932   7.953
 7350SOL    HW123947   6.735   2.964   7.879
 7350SOL    HW223948   6.793   2.837   7.938
 7351SOL     OW23949   1.422   9.588   8.686
 7351SOL    HW123950   1.383   9.664   8.729
 7351SOL    HW223951   1.425   9.521   8.754
 7352SOL     OW23952  12.392   0.111   6.557
 7352SOL    HW123953  12.470   0.163   6.535
 7352SOL    HW223954  12.349   0.097   6.473
 7353SOL     OW23955  10.070  10.651   2.724
 7353SOL    HW123956   9.977  10.663   2.742
 7353SOL    HW223957  10.100  10.738   2.695
 7354SOL     OW23958   0.395  14.448  13.392
 7354SOL    HW123959   0.453  14.476  13.462
 7354SOL    HW223960   0.319  14.507  13.399
 7355SOL     OW23961  12.512  14.806  14.588
 7355SOL    HW123962  12.563  14.728  14.568
 7355SOL    HW223963  12.523  14.863  14.512
 7356SOL     OW23964   6.932  12.042  11.668
 7356SOL    HW123965   6.881  12.013  11.592
 7356SOL    HW223966   7.021  12.052  11.635
 7357SOL     OW23967   4.053   8.053  11.739
 7357SOL    HW123968   3.963   8.061  11.709
 7357SOL    HW223969   4.055   8.100  11.822
 7358SOL     OW23970  10.441   8.815   4.539
 7358SOL    HW123971  10.524   8.773   4.564
 7358SOL    HW223972  10.379   8.789   4.607
 7359SOL     OW23973   6.981   7.747  14.677
 7359SOL    HW123974   7.050   7.774  14.737
 7359SOL    HW223975   6.915   7.816  14.683
 7360SOL     OW23976  11.144   8.354   8.442
 7360SOL    HW123977  11.092   8.434   8.430
 7360SOL    HW223978  11.161   8.351   8.536
 7361SOL     OW23979  11.156   6.988   9.173
 7361SOL    HW123980  11.188   6.906   9.209
 7361SOL    HW223981  11.061   6.978   9.169
 7362SOL     OW23982   5.755  13.265  14.268
 7362SOL    HW123983   5.672  13.270  14.221
 7362SOL    HW223984   5.741  13.198  14.334
 7363SOL     OW23985   6.781   4.089   8.208
 7363SOL    HW123986   6.735   4.083   8.124
 7363SOL    HW223987   6.778   4.000   8.243
 7364SOL     OW23988   9.654  11.429   3.083
 7364SOL    HW123989   9.574  11.449   3.132
 7364SOL    HW223990   9.721  11.419   3.150
 7365SOL     OW23991   8.776   4.299  13.972
 7365SOL    HW123992   8.836   4.337  14.037
 7365SOL    HW223993   8.701   4.358  13.972
 7366SOL     OW23994   2.641   5.379   8.935
 7366SOL    HW123995   2.621   5.298   8.981
 7366SOL    HW223996   2.555   5.421   8.923
 7367SOL     OW23997  11.889  10.418  13.286
 7367SOL    HW123998  11.924  10.438  13.373
 7367SOL    HW223999  11.794  10.429  13.295
 7368SOL     OW24000   4.295  12.379  12.341
 7368SOL    HW124001   4.282  12.329  12.421
 7368SOL    HW224002   4.340  12.318  12.281
 7369SOL     OW24003  13.695  13.030   3.562
 7369SOL    HW124004  13.641  13.024   3.642
 7369SOL    HW224005  13.648  13.092   3.507
 7370SOL     OW24006   9.575  11.131  13.787
 7370SOL    HW124007   9.563  11.052  13.734
 7370SOL    HW224008   9.519  11.116  13.864
 7371SOL     OW24009   0.137  12.008  10.443
 7371SOL    HW124010   0.190  12.003  10.523
 7371SOL    HW224011   0.108  11.918  10.428
 7372SOL     OW24012   1.846   2.194   0.012
 7372SOL    HW124013   1.820   2.281  14.853
 7372SOL    HW224014   1.876   2.206   0.102
 7373SOL     OW24015  12.655  13.039   1.364
 7373SOL    HW124016  12.735  13.087   1.341
 7373SOL    HW224017  12.670  12.951   1.330
 7374SOL     OW24018  11.502   4.436  10.188
 7374SOL    HW124019  11.528   4.447  10.096
 7374SOL    HW224020  11.426   4.379  10.184
 7375SOL     OW24021   1.337   3.202  12.812
 7375SOL    HW124022   1.329   3.231  12.721
 7375SOL    HW224023   1.249   3.174  12.836
 7376SOL     OW24024  11.433   5.881   7.624
 7376SOL    HW124025  11.378   5.815   7.583
 7376SOL    HW224026  11.456   5.940   7.552
 7377SOL     OW24027   2.159   2.306   9.664
 7377SOL    HW124028   2.201   2.224   9.637
 7377SOL    HW224029   2.073   2.279   9.697
 7378SOL     OW24030   1.069   7.170  11.218
 7378SOL    HW124031   0.973   7.171  11.221
 7378SOL    HW224032   1.095   7.114  11.291
 7379SOL     OW24033   6.353   8.487  10.136
 7379SOL    HW124034   6.343   8.404  10.088
 7379SOL    HW224035   6.413   8.466  10.208
 7380SOL     OW24036  13.451  14.519   8.691
 7380SOL    HW124037  13.406  14.525   8.775
 7380SOL    HW224038  13.428  14.600   8.645
 7381SOL     OW24039   1.030  12.237   1.044
 7381SOL    HW124040   1.036  12.148   1.008
 7381SOL    HW224041   1.097  12.240   1.112
 7382SOL     OW24042   0.019   6.749   1.343
 7382SOL    HW124043   0.091   6.809   1.364
 7382SOL    HW224044   0.020   6.744   1.247
 7383SOL     OW24045   0.320   8.131   0.600
 7383SOL    HW124046   0.409   8.167   0.599
 7383SOL    HW224047   0.269   8.190   0.544
 7384SOL     OW24048   6.356  10.095   3.009
 7384SOL    HW124049   6.367  10.021   2.949
 7384SOL    HW224050   6.368  10.173   2.955
 7385SOL     OW24051  13.641   9.721   5.257
 7385SOL    HW124052  13.666   9.793   5.199
 7385SOL    HW224053  13.564   9.753   5.304
 7386SOL     OW24054   0.863   6.226   6.176
 7386SOL    HW124055   0.916   6.275   6.113
 7386SOL    HW224056   0.813   6.165   6.122
 7387SOL     OW24057  13.821   5.153   3.318
 7387SOL    HW124058  13.905   5.123   3.353
 7387SOL    HW224059  13.827   5.139   3.224
 7388SOL     OW24060   6.283  13.331   6.204
 7388SOL    HW124061   6.370  13.348   6.170
 7388SOL    HW224062   6.225  13.341   6.129
 7389SOL     OW24063   7.814   2.912   9.079
 7389SOL    HW124064   7.799   2.874   8.992
 7389SOL    HW224065   7.755   2.863   9.136
 7390SOL     OW24066  13.800   7.148   1.193
 7390SOL    HW124067  13.826   7.197   1.115
 7390SOL    HW224068  13.849   7.066   1.187
 7391SOL     OW24069   8.622   5.744  12.266
 7391SOL    HW124070   8.623   5.778  12.177
 7391SOL    HW224071   8.665   5.811  12.318
 7392SOL     OW24072  11.712  11.654   7.504
 7392SOL    HW124073  11.743  11.610   7.425
 7392SOL    HW224074  11.786  11.651   7.565
 7393SOL     OW24075  14.657   0.978   1.540
 7393SOL    HW124076  14.562   0.970   1.546
 7393SOL    HW224077  14.690   0.910   1.598
 7394SOL     OW24078   7.113   4.533   4.501
 7394SOL    HW124079   7.206   4.553   4.503
 7394SOL    HW224080   7.089   4.520   4.593
 7395SOL     OW24081   6.269  12.017   8.139
 7395SOL    HW124082   6.187  12.050   8.101
 7395SOL    HW224083   6.244  11.986   8.226
 7396SOL     OW24084   3.395   0.939   2.890
 7396SOL    HW124085   3.420   0.857   2.845
 7396SOL    HW224086   3.402   0.918   2.983
 7397SOL     OW24087  10.043   4.504   4.599
 7397SOL    HW124088  10.027   4.501   4.505
 7397SOL    HW224089  10.012   4.419   4.631
 7398SOL     OW24090   6.486   4.551  14.766
 7398SOL    HW124091   6.567   4.577  14.722
 7398SOL    HW224092   6.490   4.595  14.851
 7399SOL     OW24093   5.259   1.385   4.850
 7399SOL    HW124094   5.270   1.340   4.934
 7399SOL    HW224095   5.187   1.339   4.807
 7400SOL     OW24096  12.408   7.894   9.851
 7400SOL    HW124097  12.462   7.815   9.845
 7400SOL    HW224098  12.465   7.959   9.892
 7401SOL     OW24099   0.474   2.080  13.046
 7401SOL    HW124100   0.389   2.069  13.089
 7401SOL    HW224101   0.459   2.050  12.956
 7402SOL     OW24102   9.748  12.000   0.021
 7402SOL    HW124103   9.701  11.918   0.037
 7402SOL    HW224104   9.695  12.046  14.826
 7403SOL     OW24105   3.560  12.376   7.779
 7403SOL    HW124106   3.653  12.394   7.762
 7403SOL    HW224107   3.551  12.282   7.764
 7404SOL     OW24108   9.931   6.114  12.325
 7404SOL    HW124109  10.009   6.165  12.303
 7404SOL    HW224110   9.871   6.179  12.362
 7405SOL     OW24111  13.966  12.953  11.930
 7405SOL    HW124112  13.902  12.942  12.000
 7405SOL    HW224113  14.045  12.909  11.962
 7406SOL     OW24114   9.800  12.338  12.490
 7406SOL    HW124115   9.736  12.289  12.437
 7406SOL    HW224116   9.812  12.420  12.443
 7407SOL     OW24117  12.610   8.270  11.309
 7407SOL    HW124118  12.588   8.179  11.327
 7407SOL    HW224119  12.701   8.268  11.281
 7408SOL     OW24120  11.348  13.136   1.035
 7408SOL    HW124121  11.373  13.210   0.980
 7408SOL    HW224122  11.287  13.174   1.099
 7409SOL     OW24123   6.463  11.244   4.213
 7409SOL    HW124124   6.511  11.165   4.236
 7409SOL    HW224125   6.434  11.280   4.297
 7410SOL     OW24126   5.106  13.525   5.445
 7410SOL    HW124127   5.080  13.468   5.373
 7410SOL    HW224128   5.024  13.546   5.489
 7411SOL     OW24129   0.464   6.186  14.502
 7411SOL    HW124130   0.371   6.206  14.515
 7411SOL    HW224131   0.509   6.264  14.533
 7412SOL     OW24132  10.683  12.479  10.352
 7412SOL    HW124133  10.691  12.388  10.324
 7412SOL    HW224134  10.593  12.488  10.382
 7413SOL     OW24135  14.008   8.884   6.484
 7413SOL    HW124136  13.973   8.851   6.567
 7413SOL    HW224137  14.096   8.847   6.480
 7414SOL     OW24138  11.458  10.260   0.525
 7414SOL    HW124139  11.442  10.325   0.593
 7414SOL    HW224140  11.400  10.187   0.547
 7415SOL     OW24141   6.039   0.997  13.123
 7415SOL    HW124142   5.974   0.956  13.180
 7415SOL    HW224143   6.040   0.943  13.044
 7416SOL     OW24144   4.805   8.224   7.077
 7416SOL    HW124145   4.841   8.260   7.158
 7416SOL    HW224146   4.868   8.156   7.052
 7417SOL     OW24147  13.041  11.561   9.243
 7417SOL    HW124148  12.959  11.595   9.279
 7417SOL    HW224149  13.108  11.590   9.305
 7418SOL     OW24150   7.009   9.162  13.535
 7418SOL    HW124151   7.050   9.157  13.449
 7418SOL    HW224152   7.076   9.133  13.597
 7419SOL     OW24153   9.683   0.481  11.816
 7419SOL    HW124154   9.610   0.542  11.828
 7419SOL    HW224155   9.761   0.534  11.833
 7420SOL     OW24156   0.971   5.013   1.624
 7420SOL    HW124157   1.050   5.028   1.571
 7420SOL    HW224158   1.002   5.017   1.715
 7421SOL     OW24159   1.759  13.420   7.893
 7421SOL    HW124160   1.679  13.453   7.934
 7421SOL    HW224161   1.828  13.443   7.956
 7422SOL     OW24162  14.063   7.566  11.937
 7422SOL    HW124163  14.155   7.588  11.923
 7422SOL    HW224164  14.021   7.649  11.959
 7423SOL     OW24165  10.035   0.679  12.379
 7423SOL    HW124166  10.044   0.585  12.368
 7423SOL    HW224167  10.123   0.714  12.362
 7424SOL     OW24168   3.052   3.248   1.348
 7424SOL    HW124169   3.147   3.241   1.360
 7424SOL    HW224170   3.018   3.260   1.436
 7425SOL     OW24171   6.846  12.320   4.431
 7425SOL    HW124172   6.936  12.301   4.405
 7425SOL    HW224173   6.799  12.330   4.348
 7426SOL     OW24174   3.645  12.818   5.462
 7426SOL    HW124175   3.568  12.785   5.508
 7426SOL    HW224176   3.699  12.856   5.531
 7427SOL     OW24177   2.788   7.200   1.051
 7427SOL    HW124178   2.780   7.183   1.145
 7427SOL    HW224179   2.706   7.167   1.014
 7428SOL     OW24180  13.129   8.588   3.618
 7428SOL    HW124181  13.171   8.617   3.699
 7428SOL    HW224182  13.035   8.594   3.637
 7429SOL     OW24183   4.494  12.891   2.104
 7429SOL    HW124184   4.556  12.835   2.150
 7429SOL    HW224185   4.522  12.980   2.125
 7430SOL     OW24186  13.017  13.375   1.260
 7430SOL    HW124187  13.017  13.405   1.351
 7430SOL    HW224188  13.109  13.365   1.238
 7431SOL     OW24189  14.675   5.385   6.157
 7431SOL    HW124190  14.748   5.398   6.096
 7431SOL    HW224191  14.614   5.455   6.135
 7432SOL     OW24192  11.655  12.296  12.226
 7432SOL    HW124193  11.657  12.392  12.229
 7432SOL    HW224194  11.748  12.271  12.227
 7433SOL     OW24195  13.639   8.021  13.064
 7433SOL    HW124196  13.574   8.030  12.995
 7433SOL    HW224197  13.712   8.075  13.036
 7434SOL     OW24198   6.738   4.089   1.916
 7434SOL    HW124199   6.702   4.178   1.913
 7434SOL    HW224200   6.724   4.061   2.007
 7435SOL     OW24201   5.171   9.316  11.373
 7435SOL    HW124202   5.120   9.367  11.436
 7435SOL    HW224203   5.171   9.369  11.293
 7436SOL     OW24204   9.029   3.790   7.378
 7436SOL    HW124205   8.994   3.725   7.317
 7436SOL    HW224206   9.076   3.852   7.322
 7437SOL     OW24207   8.403   9.410   3.717
 7437SOL    HW124208   8.453   9.409   3.799
 7437SOL    HW224209   8.342   9.483   3.728
 7438SOL     OW24210  13.446  11.596   4.996
 7438SOL    HW124211  13.463  11.667   5.059
 7438SOL    HW224212  13.493  11.623   4.917
 7439SOL     OW24213  11.524   7.551   1.936
 7439SOL    HW124214  11.591   7.488   1.963
 7439SOL    HW224215  11.527   7.618   2.005
 7440SOL     OW24216  11.821  10.430   0.606
 7440SOL    HW124217  11.833  10.459   0.697
 7440SOL    HW224218  11.744  10.479   0.576
 7441SOL     OW24219   0.080   2.007  11.594
 7441SOL    HW124220   0.001   2.056  11.570
 7441SOL    HW224221   0.054   1.954  11.669
 7442SOL     OW24222   0.690  14.307   8.288
 7442SOL    HW124223   0.708  14.397   8.263
 7442SOL    HW224224   0.759  14.256   8.245
 7443SOL     OW24225   6.319   2.083  12.211
 7443SOL    HW124226   6.372   2.005  12.197
 7443SOL    HW224227   6.312   2.122  12.124
 7444SOL     OW24228   7.072  13.925  10.198
 7444SOL    HW124229   7.007  13.901  10.263
 7444SOL    HW224230   7.151  13.944  10.248
 7445SOL     OW24231   2.804   0.961  14.715
 7445SOL    HW124232   2.851   0.891  14.668
 7445SOL    HW224233   2.727   0.978  14.661
 7446SOL     OW24234  14.448  13.395   5.926
 7446SOL    HW124235  14.453  13.477   5.877
 7446SOL    HW224236  14.427  13.329   5.860
 7447SOL     OW24237  14.702  13.455   6.236
 7447SOL    HW124238  14.625  13.485   6.284
 7447SOL    HW224239  14.672  13.376   6.191
 7448SOL     OW24240  13.630   4.294   0.098
 7448SOL    HW124241  13.664   4.339   0.021
 7448SOL    HW224242  13.544   4.333   0.113
 7449SOL     OW24243   7.458  10.217  13.531
 7449SOL    HW124244   7.393  10.149  13.547
 7449SOL    HW224245   7.465  10.265  13.614
 7450SOL     OW24246   2.897  12.671  13.800
 7450SOL    HW124247   2.827  12.624  13.845
 7450SOL    HW224248   2.971  12.669  13.861
 7451SOL     OW24249  13.468   3.682  11.762
 7451SOL    HW124250  13.466   3.774  11.736
 7451SOL    HW224251  13.528   3.680  11.837
 7452SOL     OW24252  12.008   4.830   0.101
 7452SOL    HW124253  12.034   4.787   0.020
 7452SOL    HW224254  11.932   4.883   0.076
 7453SOL     OW24255  12.697   9.724   1.603
 7453SOL    HW124256  12.703   9.762   1.691
 7453SOL    HW224257  12.722   9.633   1.614
 7454SOL     OW24258   3.225   7.958  11.104
 7454SOL    HW124259   3.198   7.874  11.066
 7454SOL    HW224260   3.257   7.935  11.191
 7455SOL     OW24261   9.950   6.598   5.784
 7455SOL    HW124262   9.945   6.503   5.795
 7455SOL    HW224263   9.894   6.616   5.708
 7456SOL     OW24264   6.350  14.419   1.025
 7456SOL    HW124265   6.396  14.454   0.948
 7456SOL    HW224266   6.419  14.404   1.089
 7457SOL     OW24267   1.939   5.069   1.892
 7457SOL    HW124268   1.907   5.089   1.804
 7457SOL    HW224269   1.987   4.987   1.882
 7458SOL     OW24270  10.463  14.627   4.776
 7458SOL    HW124271  10.368  14.622   4.788
 7458SOL    HW224272  10.496  14.544   4.812
 7459SOL     OW24273   4.478  12.863   7.127
 7459SOL    HW124274   4.496  12.928   7.058
 7459SOL    HW224275   4.394  12.890   7.163
 7460SOL     OW24276   5.549   9.293   0.563
 7460SOL    HW124277   5.542   9.347   0.642
 7460SOL    HW224278   5.640   9.263   0.561
 7461SOL     OW24279   0.481   8.617  14.388
 7461SOL    HW124280   0.517   8.667  14.315
 7461SOL    HW224281   0.407   8.670  14.419
 7462SOL     OW24282   2.626   8.762   0.971
 7462SOL    HW124283   2.611   8.856   0.975
 7462SOL    HW224284   2.721   8.753   0.973
 7463SOL     OW24285   3.956  13.541  10.625
 7463SOL    HW124286   3.875  13.574  10.586
 7463SOL    HW224287   3.987  13.475  10.563
 7464SOL     OW24288  12.084  10.061  10.280
 7464SOL    HW124289  12.088  10.136  10.220
 7464SOL    HW224290  12.173  10.027  10.281
 7465SOL     OW24291   3.316   2.099   3.325
 7465SOL    HW124292   3.362   2.108   3.242
 7465SOL    HW224293   3.362   2.159   3.385
 7466SOL     OW24294  13.530  14.527   6.490
 7466SOL    HW124295  13.519  14.474   6.569
 7466SOL    HW224296  13.552  14.615   6.522
 7467SOL     OW24297   3.216   5.664   0.948
 7467SOL    HW124298   3.142   5.715   0.981
 7467SOL    HW224299   3.245   5.612   1.023
 7468SOL     OW24300   1.653   2.720   6.178
 7468SOL    HW124301   1.729   2.771   6.205
 7468SOL    HW224302   1.689   2.637   6.148
 7469SOL     OW24303  14.719   7.382   3.990
 7469SOL    HW124304  14.792   7.322   3.978
 7469SOL    HW224305  14.752   7.450   4.048
 7470SOL     OW24306   3.610   7.543  12.346
 7470SOL    HW124307   3.541   7.570  12.287
 7470SOL    HW224308   3.576   7.562  12.434
 7471SOL     OW24309  12.421  12.545   3.046
 7471SOL    HW124310  12.334  12.552   3.086
 7471SOL    HW224311  12.416  12.466   2.992
 7472SOL     OW24312   6.107   5.430  13.859
 7472SOL    HW124313   6.074   5.471  13.940
 7472SOL    HW224314   6.196   5.464  13.851
 7473SOL     OW24315   2.400   6.267   5.291
 7473SOL    HW124316   2.484   6.256   5.335
 7473SOL    HW224317   2.336   6.269   5.363
 7474SOL     OW24318   0.613   8.421  12.695
 7474SOL    HW124319   0.641   8.348  12.750
 7474SOL    HW224320   0.570   8.381  12.620
 7475SOL     OW24321   8.700   8.009   3.479
 7475SOL    HW124322   8.684   8.042   3.391
 7475SOL    HW224323   8.703   7.914   3.470
 7476SOL     OW24324  13.785   1.349   1.596
 7476SOL    HW124325  13.709   1.324   1.543
 7476SOL    HW224326  13.754   1.345   1.686
 7477SOL     OW24327  10.240   0.026  12.075
 7477SOL    HW124328  10.295  14.862  12.145
 7477SOL    HW224329  10.278   0.111  12.053
 7478SOL     OW24330   6.762   3.431   8.035
 7478SOL    HW124331   6.694   3.367   8.014
 7478SOL    HW224332   6.758   3.495   7.964
 7479SOL     OW24333  14.463   7.135   2.301
 7479SOL    HW124334  14.517   7.157   2.378
 7479SOL    HW224335  14.420   7.217   2.278
 7480SOL     OW24336   1.473  11.441  13.303
 7480SOL    HW124337   1.501  11.433  13.212
 7480SOL    HW224338   1.485  11.353  13.340
 7481SOL     OW24339  11.116  14.573   9.529
 7481SOL    HW124340  11.109  14.487   9.489
 7481SOL    HW224341  11.158  14.628   9.463
 7482SOL     OW24342   9.042   8.231  13.955
 7482SOL    HW124343   8.970   8.186  13.911
 7482SOL    HW224344   9.057   8.180  14.034
 7483SOL     OW24345   8.266   1.362   8.976
 7483SOL    HW124346   8.259   1.457   8.961
 7483SOL    HW224347   8.182   1.327   8.946
 7484SOL     OW24348  13.439  11.448   6.353
 7484SOL    HW124349  13.501  11.500   6.302
 7484SOL    HW224350  13.429  11.367   6.303
 7485SOL     OW24351   0.680   7.407   5.528
 7485SOL    HW124352   0.660   7.393   5.620
 7485SOL    HW224353   0.776   7.415   5.524
 7486SOL     OW24354  13.313   2.102  10.953
 7486SOL    HW124355  13.348   2.014  10.970
 7486SOL    HW224356  13.388   2.150  10.918
 7487SOL     OW24357  12.279   9.750   5.839
 7487SOL    HW124358  12.344   9.811   5.876
 7487SOL    HW224359  12.329   9.699   5.775
 7488SOL     OW24360  13.521   4.483   9.346
 7488SOL    HW124361  13.532   4.540   9.422
 7488SOL    HW224362  13.606   4.486   9.302
 7489SOL     OW24363   9.562   6.038   2.519
 7489SOL    HW124364   9.557   6.120   2.568
 7489SOL    HW224365   9.624   6.056   2.448
 7490SOL     OW24366   7.985  12.159  11.077
 7490SOL    HW124367   7.959  12.085  11.023
 7490SOL    HW224368   7.927  12.156  11.153
 7491SOL     OW24369   1.564   9.080   3.255
 7491SOL    HW124370   1.610   9.052   3.334
 7491SOL    HW224371   1.474   9.095   3.283
 7492SOL     OW24372   5.193   0.705   6.367
 7492SOL    HW124373   5.253   0.632   6.358
 7492SOL    HW224374   5.219   0.749   6.448
 7493SOL     OW24375  12.020   5.580   0.288
 7493SOL    HW124376  11.978   5.622   0.363
 7493SOL    HW224377  12.039   5.491   0.318
 7494SOL     OW24378   7.951   1.042   8.847
 7494SOL    HW124379   8.041   1.013   8.864
 7494SOL    HW224380   7.928   1.001   8.764
 7495SOL     OW24381  13.839  10.074   4.708
 7495SOL    HW124382  13.914  10.018   4.727
 7495SOL    HW224383  13.841  10.087   4.613
 7496SOL     OW24384   2.327   1.897   0.055
 7496SOL    HW124385   2.374   1.967   0.100
 7496SOL    HW224386   2.379   1.881  14.846
 7497SOL     OW24387   8.813   5.761   9.612
 7497SOL    HW124388   8.732   5.712   9.631
 7497SOL    HW224389   8.870   5.742   9.686
 7498SOL     OW24390   0.003  11.024   6.863
 7498SOL    HW124391   0.035  11.113   6.879
 7498SOL    HW224392  14.794  11.017   6.916
 7499SOL     OW24393   7.635  12.046  13.651
 7499SOL    HW124394   7.702  12.103  13.687
 7499SOL    HW224395   7.672  12.011  13.570
 7500SOL     OW24396   7.151   1.926   9.316
 7500SOL    HW124397   7.201   2.003   9.289
 7500SOL    HW224398   7.059   1.954   9.313
 7501SOL     OW24399   6.754   0.165   1.731
 7501SOL    HW124400   6.679   0.133   1.780
 7501SOL    HW224401   6.719   0.187   1.645
 7502SOL     OW24402  11.405   0.263   1.693
 7502SOL    HW124403  11.480   0.210   1.667
 7502SOL    HW224404  11.373   0.302   1.612
 7503SOL     OW24405  12.078   4.118   4.406
 7503SOL    HW124406  12.169   4.125   4.432
 7503SOL    HW224407  12.075   4.154   4.317
 7504SOL     OW24408  11.287   6.810  12.372
 7504SOL    HW124409  11.366   6.818  12.425
 7504SOL    HW224410  11.273   6.715  12.364
 7505SOL     OW24411   8.886   2.064   8.126
 7505SOL    HW124412   8.970   2.108   8.137
 7505SOL    HW224413   8.855   2.051   8.216
 7506SOL     OW24414   9.890  12.335   3.034
 7506SOL    HW124415   9.809  12.340   3.085
 7506SOL    HW224416   9.904  12.241   3.020
 7507SOL     OW24417   4.766  11.969   4.333
 7507SOL    HW124418   4.769  12.000   4.423
 7507SOL    HW224419   4.855  11.982   4.300
 7508SOL     OW24420   4.800   6.182   6.818
 7508SOL    HW124421   4.752   6.100   6.807
 7508SOL    HW224422   4.772   6.215   6.904
 7509SOL     OW24423  12.934  12.063  13.164
 7509SOL    HW124424  12.883  12.063  13.083
 7509SOL    HW224425  12.903  11.986  13.212
 7510SOL     OW24426   9.386  10.969  11.455
 7510SOL    HW124427   9.330  11.038  11.490
 7510SOL    HW224428   9.340  10.888  11.477
 7511SOL     OW24429  14.628  11.209   8.714
 7511SOL    HW124430  14.597  11.298   8.727
 7511SOL    HW224431  14.711  11.205   8.762
 7512SOL     OW24432  11.588  11.980  10.255
 7512SOL    HW124433  11.601  12.039  10.329
 7512SOL    HW224434  11.503  11.939  10.272
 7513SOL     OW24435   5.610   5.506   8.176
 7513SOL    HW124436   5.675   5.571   8.151
 7513SOL    HW224437   5.533   5.557   8.201
 7514SOL     OW24438   4.318   6.254  14.310
 7514SOL    HW124439   4.385   6.198  14.271
 7514SOL    HW224440   4.265   6.283  14.235
 7515SOL     OW24441   5.849   4.107  12.096
 7515SOL    HW124442   5.893   4.102  12.180
 7515SOL    HW224443   5.829   4.200  12.085
 7516SOL     OW24444  11.283   1.752  14.733
 7516SOL    HW124445  11.254   1.686  14.670
 7516SOL    HW224446  11.203   1.801  14.756
 7517SOL     OW24447   8.573   2.485   7.346
 7517SOL    HW124448   8.600   2.393   7.347
 7517SOL    HW224449   8.624   2.526   7.416
 7518SOL     OW24450   7.169   1.790   1.384
 7518SOL    HW124451   7.125   1.830   1.309
 7518SOL    HW224452   7.125   1.706   1.395
 7519SOL     OW24453   1.650  14.657  10.751
 7519SOL    HW124454   1.744  14.672  10.741
 7519SOL    HW224455   1.640  14.563  10.745
 7520SOL     OW24456   4.637   6.250  13.572
 7520SOL    HW124457   4.701   6.265  13.642
 7520SOL    HW224458   4.687   6.261  13.491
 7521SOL     OW24459   4.953  12.640   7.026
 7521SOL    HW124460   4.885  12.574   7.031
 7521SOL    HW224461   5.032  12.591   7.002
 7522SOL     OW24462  12.855   7.183   8.266
 7522SOL    HW124463  12.847   7.100   8.313
 7522SOL    HW224464  12.788   7.239   8.304
 7523SOL     OW24465  10.087  12.874   6.154
 7523SOL    HW124466  10.029  12.880   6.231
 7523SOL    HW224467  10.147  12.947   6.165
 7524SOL     OW24468   1.385  13.030   5.292
 7524SOL    HW124469   1.456  13.077   5.249
 7524SOL    HW224470   1.420  12.942   5.307
 7525SOL     OW24471   8.013   6.569   3.282
 7525SOL    HW124472   8.010   6.538   3.372
 7525SOL    HW224473   8.053   6.498   3.233
 7526SOL     OW24474  10.051   7.265   1.219
 7526SOL    HW124475   9.994   7.204   1.266
 7526SOL    HW224476   9.997   7.296   1.147
 7527SOL     OW24477  12.448   4.722   5.611
 7527SOL    HW124478  12.523   4.778   5.589
 7527SOL    HW224479  12.372   4.778   5.597
 7528SOL     OW24480   5.106   2.591   2.807
 7528SOL    HW124481   5.059   2.629   2.881
 7528SOL    HW224482   5.077   2.500   2.805
 7529SOL     OW24483  11.142   1.501   8.376
 7529SOL    HW124484  11.216   1.456   8.417
 7529SOL    HW224485  11.065   1.458   8.411
 7530SOL     OW24486  10.976  11.559   1.969
 7530SOL    HW124487  11.030  11.587   1.895
 7530SOL    HW224488  10.946  11.471   1.945
 7531SOL     OW24489  11.877   3.028   0.976
 7531SOL    HW124490  11.908   3.004   1.063
 7531SOL    HW224491  11.803   2.970   0.960
 7532SOL     OW24492  10.482  12.507  13.333
 7532SOL    HW124493  10.413  12.444  13.351
 7532SOL    HW224494  10.532  12.513  13.414
 7533SOL     OW24495   1.134  13.833   7.790
 7533SOL    HW124496   1.042  13.807   7.798
 7533SOL    HW224497   1.145  13.899   7.859
 7534SOL     OW24498  14.667   8.915   2.985
 7534SOL    HW124499  14.599   8.891   2.923
 7534SOL    HW224500  14.622   8.921   3.069
 7535SOL     OW24501  10.710   1.561   9.827
 7535SOL    HW124502  10.772   1.520   9.888
 7535SOL    HW224503  10.625   1.525   9.853
 7536SOL     OW24504   7.704   5.512   8.864
 7536SOL    HW124505   7.708   5.607   8.859
 7536SOL    HW224506   7.610   5.493   8.876
 7537SOL     OW24507  12.041   5.868  14.656
 7537SOL    HW124508  12.130   5.880  14.690
 7537SOL    HW224509  12.044   5.906  14.568
 7538SOL     OW24510   9.403   3.115  11.136
 7538SOL    HW124511   9.406   3.095  11.043
 7538SOL    HW224512   9.309   3.121  11.156
 7539SOL     OW24513  10.366   3.436   1.342
 7539SOL    HW124514  10.331   3.498   1.278
 7539SOL    HW224515  10.383   3.488   1.420
 7540SOL     OW24516  13.373   4.705   9.679
 7540SOL    HW124517  13.414   4.790   9.667
 7540SOL    HW224518  13.437   4.642   9.647
 7541SOL     OW24519  11.962   2.709   8.039
 7541SOL    HW124520  11.875   2.719   8.002
 7541SOL    HW224521  11.971   2.614   8.054
 7542SOL     OW24522   9.346   1.360  11.356
 7542SOL    HW124523   9.316   1.450  11.363
 7542SOL    HW224524   9.382   1.339  11.442
 7543SOL     OW24525   6.769   2.909  10.270
 7543SOL    HW124526   6.830   2.868  10.331
 7543SOL    HW224527   6.744   2.839  10.210
 7544SOL     OW24528   5.137  14.117   6.265
 7544SOL    HW124529   5.094  14.180   6.324
 7544SOL    HW224530   5.175  14.052   6.324
 7545SOL     OW24531   0.893   8.466   0.740
 7545SOL    HW124532   0.976   8.473   0.692
 7545SOL    HW224533   0.833   8.522   0.691
 7546SOL     OW24534   3.810   9.687   1.910
 7546SOL    HW124535   3.728   9.640   1.921
 7546SOL    HW224536   3.802   9.764   1.966
 7547SOL     OW24537   2.264   1.033   1.414
 7547SOL    HW124538   2.177   1.034   1.374
 7547SOL    HW224539   2.258   0.966   1.482
 7548SOL     OW24540   7.732   6.390   9.226
 7548SOL    HW124541   7.742   6.399   9.131
 7548SOL    HW224542   7.822   6.382   9.259
 7549SOL     OW24543  10.417   4.711   9.439
 7549SOL    HW124544  10.326   4.742   9.449
 7549SOL    HW224545  10.424   4.685   9.347
 7550SOL     OW24546   4.811  12.745  13.526
 7550SOL    HW124547   4.879  12.754  13.459
 7550SOL    HW224548   4.846  12.794  13.601
 7551SOL     OW24549   5.154   9.058   5.788
 7551SOL    HW124550   5.235   9.038   5.742
 7551SOL    HW224551   5.156   9.152   5.801
 7552SOL     OW24552  11.720   2.388   9.652
 7552SOL    HW124553  11.793   2.397   9.591
 7552SOL    HW224554  11.668   2.467   9.639
 7553SOL     OW24555   4.147   0.190  11.649
 7553SOL    HW124556   4.113   0.105  11.678
 7553SOL    HW224557   4.071   0.234  11.612
 7554SOL     OW24558  12.931   1.638   6.495
 7554SOL    HW124559  12.840   1.635   6.526
 7554SOL    HW224560  12.948   1.730   6.479
 7555SOL     OW24561   3.282  12.721   9.410
 7555SOL    HW124562   3.339  12.664   9.358
 7555SOL    HW224563   3.285  12.683   9.498
 7556SOL     OW24564   2.606   7.015   7.961
 7556SOL    HW124565   2.658   6.954   7.908
 7556SOL    HW224566   2.552   6.959   8.016
 7557SOL     OW24567   2.925   7.722   5.427
 7557SOL    HW124568   2.913   7.813   5.403
 7557SOL    HW224569   2.849   7.702   5.482
 7558SOL     OW24570  13.410   9.839   2.160
 7558SOL    HW124571  13.363   9.869   2.083
 7558SOL    HW224572  13.458   9.917   2.191
 7559SOL     OW24573   3.420   5.817  10.009
 7559SOL    HW124574   3.450   5.753   9.945
 7559SOL    HW224575   3.491   5.882  10.013
 7560SOL     OW24576   5.137   1.899   4.720
 7560SOL    HW124577   5.193   1.976   4.723
 7560SOL    HW224578   5.174   1.845   4.650
 7561SOL     OW24579   0.886  13.111   5.330
 7561SOL    HW124580   0.965  13.119   5.276
 7561SOL    HW224581   0.865  13.018   5.328
 7562SOL     OW24582   3.325   5.028   3.673
 7562SOL    HW124583   3.243   5.006   3.629
 7562SOL    HW224584   3.382   5.059   3.603
 7563SOL     OW24585  10.342   6.279   3.127
 7563SOL    HW124586  10.375   6.190   3.112
 7563SOL    HW224587  10.419   6.329   3.152
 7564SOL     OW24588   4.613   3.119   9.190
 7564SOL    HW124589   4.604   3.160   9.275
 7564SOL    HW224590   4.559   3.172   9.131
 7565SOL     OW24591  14.320   5.654   2.486
 7565SOL    HW124592  14.385   5.589   2.513
 7565SOL    HW224593  14.370   5.735   2.474
 7566SOL     OW24594   0.968  14.813   0.955
 7566SOL    HW124595   1.049  14.826   1.006
 7566SOL    HW224596   0.924  14.740   0.998
 7567SOL     OW24597  13.981  10.607   6.965
 7567SOL    HW124598  13.903  10.655   6.992
 7567SOL    HW224599  14.053  10.650   7.012
 7568SOL     OW24600   4.056  13.597   2.766
 7568SOL    HW124601   3.973  13.590   2.719
 7568SOL    HW224602   4.123  13.596   2.698
 7569SOL     OW24603   8.601  13.440   7.014
 7569SOL    HW124604   8.509  13.417   7.007
 7569SOL    HW224605   8.604  13.534   6.996
 7570SOL     OW24606   7.212   4.126  13.402
 7570SOL    HW124607   7.192   4.095  13.313
 7570SOL    HW224608   7.126   4.142  13.441
 7571SOL     OW24609  11.181   4.354   3.311
 7571SOL    HW124610  11.239   4.352   3.387
 7571SOL    HW224611  11.200   4.273   3.264
 7572SOL     OW24612   3.547  12.972   7.872
 7572SOL    HW124613   3.506  13.037   7.814
 7572SOL    HW224614   3.592  13.023   7.938
 7573SOL     OW24615   5.415   6.128   0.174
 7573SOL    HW124616   5.399   6.084   0.257
 7573SOL    HW224617   5.508   6.111   0.156
 7574SOL     OW24618   0.149   4.615   8.178
 7574SOL    HW124619   0.182   4.650   8.095
 7574SOL    HW224620   0.226   4.576   8.220
 7575SOL     OW24621   4.303   1.127  11.870
 7575SOL    HW124622   4.279   1.158  11.958
 7575SOL    HW224623   4.220   1.120  11.824
 7576SOL     OW24624   1.538  13.785   4.941
 7576SOL    HW124625   1.457  13.759   4.896
 7576SOL    HW224626   1.592  13.706   4.940
 7577SOL     OW24627   4.887  10.102  12.611
 7577SOL    HW124628   4.851  10.188  12.590
 7577SOL    HW224629   4.981  10.116  12.616
 7578SOL     OW24630   6.940   2.515  11.086
 7578SOL    HW124631   6.945   2.422  11.111
 7578SOL    HW224632   6.911   2.559  11.165
 7579SOL     OW24633  12.620   6.423   8.876
 7579SOL    HW124634  12.642   6.358   8.809
 7579SOL    HW224635  12.640   6.378   8.959
 7580SOL     OW24636  13.826   7.469   0.779
 7580SOL    HW124637  13.881   7.507   0.848
 7580SOL    HW224638  13.857   7.510   0.698
 7581SOL     OW24639   5.664   8.047   4.455
 7581SOL    HW124640   5.681   8.016   4.544
 7581SOL    HW224641   5.583   8.097   4.462
 7582SOL     OW24642   2.100  12.232   6.100
 7582SOL    HW124643   2.065  12.202   6.016
 7582SOL    HW224644   2.037  12.200   6.164
 7583SOL     OW24645  13.414  10.637  14.152
 7583SOL    HW124646  13.400  10.543  14.144
 7583SOL    HW224647  13.326  10.674  14.162
 7584SOL     OW24648   1.206   3.046   3.692
 7584SOL    HW124649   1.297   3.074   3.699
 7584SOL    HW224650   1.170   3.062   3.780
 7585SOL     OW24651   7.857  10.276  10.450
 7585SOL    HW124652   7.905  10.357  10.430
 7585SOL    HW224653   7.844  10.279  10.545
 7586SOL     OW24654   3.776   7.943   2.171
 7586SOL    HW124655   3.768   7.958   2.077
 7586SOL    HW224656   3.868   7.962   2.191
 7587SOL     OW24657  13.300  14.358   6.434
 7587SOL    HW124658  13.303  14.299   6.358
 7587SOL    HW224659  13.370  14.421   6.417
 7588SOL     OW24660   8.843  10.237   6.528
 7588SOL    HW124661   8.845  10.298   6.602
 7588SOL    HW224662   8.935  10.221   6.506
 7589SOL     OW24663   6.200   8.773  13.670
 7589SOL    HW124664   6.128   8.818  13.714
 7589SOL    HW224665   6.273   8.778  13.731
 7590SOL     OW24666   0.649   5.448   3.104
 7590SOL    HW124667   0.598   5.396   3.167
 7590SOL    HW224668   0.606   5.433   3.020
 7591SOL     OW24669  12.533  14.752  12.634
 7591SOL    HW124670  12.600  14.736  12.567
 7591SOL    HW224671  12.450  14.740  12.588
 7592SOL     OW24672  14.120   8.429   7.066
 7592SOL    HW124673  14.190   8.413   7.129
 7592SOL    HW224674  14.044   8.453   7.120
 7593SOL     OW24675   5.290  10.314   3.613
 7593SOL    HW124676   5.367  10.369   3.597
 7593SOL    HW224677   5.284  10.256   3.537
 7594SOL     OW24678   6.759  10.538   3.874
 7594SOL    HW124679   6.794  10.598   3.940
 7594SOL    HW224680   6.835  10.515   3.820
 7595SOL     OW24681   5.196   0.366  14.246
 7595SOL    HW124682   5.287   0.397  14.242
 7595SOL    HW224683   5.202   0.274  14.221
 7596SOL     OW24684  11.532   4.641  10.887
 7596SOL    HW124685  11.518   4.547  10.883
 7596SOL    HW224686  11.538   4.669  10.796
 7597SOL     OW24687  14.024  13.718   3.812
 7597SOL    HW124688  14.030  13.623   3.825
 7597SOL    HW224689  14.048  13.731   3.720
 7598SOL     OW24690   2.239   5.955  14.297
 7598SOL    HW124691   2.180   6.026  14.320
 7598SOL    HW224692   2.272   5.922  14.380
 7599SOL     OW24693  13.285  13.152   8.446
 7599SOL    HW124694  13.219  13.191   8.389
 7599SOL    HW224695  13.240  13.135   8.529
 7600SOL     OW24696   5.507  12.229   8.346
 7600SOL    HW124697   5.437  12.164   8.355
 7600SOL    HW224698   5.574  12.185   8.293
 7601SOL     OW24699  13.426   2.415   9.233
 7601SOL    HW124700  13.375   2.496   9.235
 7601SOL    HW224701  13.509   2.441   9.193
 7602SOL     OW24702   3.310   7.456   7.426
 7602SOL    HW124703   3.382   7.511   7.456
 7602SOL    HW224704   3.236   7.483   7.480
 7603SOL     OW24705   1.303  11.503  14.373
 7603SOL    HW124706   1.380  11.531  14.423
 7603SOL    HW224707   1.310  11.407  14.371
 7604SOL     OW24708   0.650   6.756  11.102
 7604SOL    HW124709   0.612   6.783  11.018
 7604SOL    HW224710   0.648   6.660  11.099
 7605SOL     OW24711   3.861  13.549  13.826
 7605SOL    HW124712   3.812  13.602  13.889
 7605SOL    HW224713   3.946  13.592  13.819
 7606SOL     OW24714  10.375   3.823  10.136
 7606SOL    HW124715  10.307   3.756  10.128
 7606SOL    HW224716  10.337   3.889  10.194
 7607SOL     OW24717   6.819  12.516   7.771
 7607SOL    HW124718   6.770  12.518   7.853
 7607SOL    HW224719   6.910  12.505   7.796
 7608SOL     OW24720   9.323   5.084  11.780
 7608SOL    HW124721   9.374   5.052  11.855
 7608SOL    HW224722   9.386   5.135  11.729
 7609SOL     OW24723  10.405  14.436   7.948
 7609SOL    HW124724  10.438  14.356   7.989
 7609SOL    HW224725  10.415  14.421   7.854
 7610SOL     OW24726   4.329   1.654  14.768
 7610SOL    HW124727   4.424   1.661  14.766
 7610SOL    HW224728   4.298   1.717  14.702
 7611SOL     OW24729   3.407   2.512   1.825
 7611SOL    HW124730   3.432   2.601   1.800
 7611SOL    HW224731   3.489   2.462   1.818
 7612SOL     OW24732   0.474   1.305   1.628
 7612SOL    HW124733   0.381   1.326   1.641
 7612SOL    HW224734   0.474   1.217   1.589
 7613SOL     OW24735   1.305   2.461   9.750
 7613SOL    HW124736   1.214   2.472   9.778
 7613SOL    HW224737   1.299   2.442   9.657
 7614SOL     OW24738  10.935   3.424   4.397
 7614SOL    HW124739  10.952   3.443   4.305
 7614SOL    HW224740  10.996   3.352   4.419
 7615SOL     OW24741   1.683  12.268  14.839
 7615SOL    HW124742   1.639  12.206   0.027
 7615SOL    HW224743   1.722  12.333   0.028
 7616SOL     OW24744   1.186   3.756  10.352
 7616SOL    HW124745   1.246   3.765  10.426
 7616SOL    HW224746   1.227   3.808  10.282
 7617SOL     OW24747   2.977   7.688  13.926
 7617SOL    HW124748   2.937   7.757  13.978
 7617SOL    HW224749   3.068   7.715  13.916
 7618SOL     OW24750  10.454   1.049   2.986
 7618SOL    HW124751  10.526   1.079   2.931
 7618SOL    HW224752  10.441   0.957   2.961
 7619SOL     OW24753   2.399  13.118  11.406
 7619SOL    HW124754   2.333  13.050  11.401
 7619SOL    HW224755   2.434  13.112  11.495
 7620SOL     OW24756  13.760   0.331  10.013
 7620SOL    HW124757  13.843   0.374   9.992
 7620SOL    HW224758  13.721   0.312   9.927
 7621SOL     OW24759   8.507  12.818  11.137
 7621SOL    HW124760   8.513  12.873  11.059
 7621SOL    HW224761   8.490  12.730  11.102
 7622SOL     OW24762   7.145  10.741   4.470
 7622SOL    HW124763   7.125  10.792   4.392
 7622SOL    HW224764   7.130  10.802   4.543
 7623SOL     OW24765   2.631  11.784   3.403
 7623SOL    HW124766   2.715  11.803   3.445
 7623SOL    HW224767   2.633  11.834   3.322
 7624SOL     OW24768   3.522   4.604   8.143
 7624SOL    HW124769   3.496   4.689   8.107
 7624SOL    HW224770   3.578   4.565   8.076
 7625SOL     OW24771   7.922   6.756   7.736
 7625SOL    HW124772   7.863   6.682   7.751
 7625SOL    HW224773   7.865   6.826   7.705
 7626SOL     OW24774   2.270  13.041   2.189
 7626SOL    HW124775   2.236  12.971   2.245
 7626SOL    HW224776   2.363  13.021   2.179
 7627SOL     OW24777  11.588   4.736   9.998
 7627SOL    HW124778  11.579   4.653   9.950
 7627SOL    HW224779  11.683   4.749  10.005
 7628SOL     OW24780   9.682  14.105   9.128
 7628SOL    HW124781   9.624  14.137   9.197
 7628SOL    HW224782   9.696  14.013   9.149
 7629SOL     OW24783  11.853  12.205   8.577
 7629SOL    HW124784  11.919  12.271   8.556
 7629SOL    HW224785  11.893  12.122   8.551
 7630SOL     OW24786   8.777  12.070   4.273
 7630SOL    HW124787   8.786  12.029   4.188
 7630SOL    HW224788   8.751  12.160   4.253
 7631SOL     OW24789  14.649   5.758   8.482
 7631SOL    HW124790  14.728   5.744   8.430
 7631SOL    HW224791  14.606   5.673   8.483
 7632SOL     OW24792   0.240  10.096   4.782
 7632SOL    HW124793   0.291  10.051   4.716
 7632SOL    HW224794   0.272  10.186   4.780
 7633SOL     OW24795   8.376   2.390   3.970
 7633SOL    HW124796   8.406   2.481   3.973
 7633SOL    HW224797   8.345   2.372   4.059
 7634SOL     OW24798  10.994   4.253  13.813
 7634SOL    HW124799  11.079   4.260  13.855
 7634SOL    HW224800  11.001   4.175  13.758
 7635SOL     OW24801   3.836   9.876   8.789
 7635SOL    HW124802   3.827   9.968   8.812
 7635SOL    HW224803   3.803   9.829   8.865
 7636SOL     OW24804   5.199   6.424   8.420
 7636SOL    HW124805   5.157   6.508   8.403
 7636SOL    HW224806   5.291   6.438   8.395
 7637SOL     OW24807   1.578  10.473   3.723
 7637SOL    HW124808   1.569  10.423   3.804
 7637SOL    HW224809   1.514  10.544   3.731
 7638SOL     OW24810   4.869  14.003  10.870
 7638SOL    HW124811   4.888  14.097  10.865
 7638SOL    HW224812   4.923  13.965  10.800
 7639SOL     OW24813   8.327  10.343  10.835
 7639SOL    HW124814   8.300  10.433  10.822
 7639SOL    HW224815   8.297  10.297  10.756
 7640SOL     OW24816   2.881   6.238   4.620
 7640SOL    HW124817   2.913   6.153   4.651
 7640SOL    HW224818   2.828   6.217   4.543
 7641SOL     OW24819   9.755  14.846  13.633
 7641SOL    HW124820   9.825   0.033  13.601
 7641SOL    HW224821   9.784  14.817  13.719
 7642SOL     OW24822   5.865  14.638   2.671
 7642SOL    HW124823   5.932  14.706   2.664
 7642SOL    HW224824   5.788  14.674   2.627
 7643SOL     OW24825   4.908   4.008   1.999
 7643SOL    HW124826   4.992   4.050   2.015
 7643SOL    HW224827   4.849   4.045   2.066
 7644SOL     OW24828   8.586   6.160  11.831
 7644SOL    HW124829   8.660   6.171  11.890
 7644SOL    HW224830   8.563   6.249  11.804
 7645SOL     OW24831   2.423   9.222   7.834
 7645SOL    HW124832   2.367   9.184   7.902
 7645SOL    HW224833   2.501   9.166   7.834
 7646SOL     OW24834  12.939   7.785  10.058
 7646SOL    HW124835  13.018   7.731  10.054
 7646SOL    HW224836  12.891   7.751  10.133
 7647SOL     OW24837   6.690   7.891   5.523
 7647SOL    HW124838   6.660   7.954   5.457
 7647SOL    HW224839   6.609   7.853   5.557
 7648SOL     OW24840  14.155   9.393   6.931
 7648SOL    HW124841  14.133   9.386   6.838
 7648SOL    HW224842  14.075   9.426   6.972
 7649SOL     OW24843  10.751  14.343   9.342
 7649SOL    HW124844  10.739  14.259   9.298
 7649SOL    HW224845  10.664  14.384   9.340
 7650SOL     OW24846   3.135   6.635   4.464
 7650SOL    HW124847   3.155   6.589   4.382
 7650SOL    HW224848   3.203   6.702   4.471
 7651SOL     OW24849   8.946  14.032   3.036
 7651SOL    HW124850   9.028  14.051   3.082
 7651SOL    HW224851   8.936  14.104   2.973
 7652SOL     OW24852  14.376   9.042   3.431
 7652SOL    HW124853  14.368   9.077   3.520
 7652SOL    HW224854  14.353   8.950   3.439
 7653SOL     OW24855  11.762   1.523   7.256
 7653SOL    HW124856  11.706   1.453   7.289
 7653SOL    HW224857  11.755   1.517   7.161
 7654SOL     OW24858  13.355  13.205   0.533
 7654SOL    HW124859  13.280  13.265   0.533
 7654SOL    HW224860  13.331  13.137   0.470
 7655SOL     OW24861   8.829   3.860   7.003
 7655SOL    HW124862   8.761   3.908   6.955
 7655SOL    HW224863   8.911   3.884   6.959
 7656SOL     OW24864   6.121  11.236   0.755
 7656SOL    HW124865   6.030  11.235   0.726
 7656SOL    HW224866   6.117  11.263   0.847
 7657SOL     OW24867   3.240   0.301   5.816
 7657SOL    HW124868   3.238   0.394   5.838
 7657SOL    HW224869   3.280   0.297   5.729
 7658SOL     OW24870   9.701  12.398   4.813
 7658SOL    HW124871   9.676  12.308   4.834
 7658SOL    HW224872   9.627  12.433   4.764
 7659SOL     OW24873   4.072   1.219  12.415
 7659SOL    HW124874   3.977   1.207  12.422
 7659SOL    HW224875   4.105   1.196  12.501
 7660SOL     OW24876  13.225   6.396   3.501
 7660SOL    HW124877  13.263   6.376   3.416
 7660SOL    HW224878  13.146   6.343   3.506
 7661SOL     OW24879  10.808   9.991  11.306
 7661SOL    HW124880  10.723  10.031  11.325
 7661SOL    HW224881  10.870  10.063  11.313
 7662SOL     OW24882   0.124   5.790   7.870
 7662SOL    HW124883   0.084   5.853   7.930
 7662SOL    HW224884   0.083   5.808   7.785
 7663SOL     OW24885  12.849   5.207   9.039
 7663SOL    HW124886  12.780   5.187   9.102
 7663SOL    HW224887  12.923   5.237   9.092
 7664SOL     OW24888  12.656   1.186  10.133
 7664SOL    HW124889  12.695   1.265  10.169
 7664SOL    HW224890  12.727   1.142  10.087
 7665SOL     OW24891  13.538  11.402   7.958
 7665SOL    HW124892  13.626  11.395   7.923
 7665SOL    HW224893  13.514  11.494   7.945
 7666SOL     OW24894   0.397   0.149   8.411
 7666SOL    HW124895   0.307   0.179   8.418
 7666SOL    HW224896   0.415   0.106   8.495
 7667SOL     OW24897   0.481   2.147   2.562
 7667SOL    HW124898   0.457   2.056   2.580
 7667SOL    HW224899   0.418   2.176   2.496
 7668SOL     OW24900   2.018   8.977   5.861
 7668SOL    HW124901   1.967   8.945   5.935
 7668SOL    HW224902   2.012   8.906   5.796
 7669SOL     OW24903   0.275   1.788   5.869
 7669SOL    HW124904   0.329   1.764   5.944
 7669SOL    HW224905   0.195   1.824   5.907
 7670SOL     OW24906   7.642  13.951   2.733
 7670SOL    HW124907   7.731  13.965   2.701
 7670SOL    HW224908   7.598  13.903   2.662
 7671SOL     OW24909  14.057   8.662   4.497
 7671SOL    HW124910  14.040   8.606   4.421
 7671SOL    HW224911  14.061   8.751   4.461
 7672SOL     OW24912   9.501  10.204   6.710
 7672SOL    HW124913   9.514  10.121   6.665
 7672SOL    HW224914   9.430  10.247   6.662
 7673SOL     OW24915   2.772  10.094   0.625
 7673SOL    HW124916   2.742  10.005   0.645
 7673SOL    HW224917   2.793  10.132   0.710
 7674SOL     OW24918  14.662   0.142  13.481
 7674SOL    HW124919  14.568   0.161  13.480
 7674SOL    HW224920  14.668   0.047  13.470
 7675SOL     OW24921   6.326   1.080   3.891
 7675SOL    HW124922   6.258   1.148   3.896
 7675SOL    HW224923   6.345   1.059   3.982
 7676SOL     OW24924   5.656   3.022   2.216
 7676SOL    HW124925   5.603   3.035   2.138
 7676SOL    HW224926   5.746   3.033   2.186
 7677SOL     OW24927   6.550   4.174   7.810
 7677SOL    HW124928   6.596   4.096   7.839
 7677SOL    HW224929   6.515   4.213   7.891
 7678SOL     OW24930   5.567  13.070   0.341
 7678SOL    HW124931   5.657  13.071   0.308
 7678SOL    HW224932   5.574  13.037   0.430
 7679SOL     OW24933  11.448   1.351  13.367
 7679SOL    HW124934  11.458   1.263  13.333
 7679SOL    HW224935  11.538   1.384  13.376
 7680SOL     OW24936   7.103  14.587   4.210
 7680SOL    HW124937   7.177  14.631   4.252
 7680SOL    HW224938   7.142  14.515   4.161
 7681SOL     OW24939   2.635  11.255   4.307
 7681SOL    HW124940   2.698  11.188   4.282
 7681SOL    HW224941   2.597  11.223   4.389
 7682SOL     OW24942  10.024  13.099   2.052
 7682SOL    HW124943  10.022  13.193   2.070
 7682SOL    HW224944   9.932  13.073   2.050
 7683SOL     OW24945   9.845  13.789  11.869
 7683SOL    HW124946   9.907  13.717  11.881
 7683SOL    HW224947   9.826  13.788  11.775
 7684SOL     OW24948   4.940   7.830  12.964
 7684SOL    HW124949   5.016   7.842  13.020
 7684SOL    HW224950   4.912   7.919  12.942
 7685SOL     OW24951   3.947   2.040   2.986
 7685SOL    HW124952   3.941   1.993   3.069
 7685SOL    HW224953   4.027   2.009   2.945
 7686SOL     OW24954   2.535  11.393   3.788
 7686SOL    HW124955   2.552  11.462   3.725
 7686SOL    HW224956   2.596  11.410   3.860
 7687SOL     OW24957  12.562   4.448   9.878
 7687SOL    HW124958  12.653   4.439   9.907
 7687SOL    HW224959  12.521   4.504   9.944
 7688SOL     OW24960   0.626  10.821   9.377
 7688SOL    HW124961   0.627  10.726   9.369
 7688SOL    HW224962   0.617  10.838   9.470
 7689SOL     OW24963   7.660   7.365   0.351
 7689SOL    HW124964   7.588   7.305   0.373
 7689SOL    HW224965   7.628   7.451   0.379
 7690SOL     OW24966   0.837  12.692   9.649
 7690SOL    HW124967   0.808  12.693   9.558
 7690SOL    HW224968   0.926  12.656   9.646
 7691SOL     OW24969  11.467   9.690   7.012
 7691SOL    HW124970  11.416   9.767   7.038
 7691SOL    HW224971  11.433   9.668   6.925
 7692SOL     OW24972   3.955   1.672   9.286
 7692SOL    HW124973   3.912   1.757   9.297
 7692SOL    HW224974   3.989   1.674   9.197
 7693SOL     OW24975  14.688  11.988   7.463
 7693SOL    HW124976  14.668  12.070   7.420
 7693SOL    HW224977  14.775  11.964   7.431
 7694SOL     OW24978   8.878   0.271   1.951
 7694SOL    HW124979   8.824   0.261   2.030
 7694SOL    HW224980   8.890   0.366   1.942
 7695SOL     OW24981   0.033   3.089   4.292
 7695SOL    HW124982   0.097   3.152   4.259
 7695SOL    HW224983   0.085   3.016   4.324
 7696SOL     OW24984   5.150   1.870   3.907
 7696SOL    HW124985   5.100   1.816   3.968
 7696SOL    HW224986   5.136   1.828   3.822
 7697SOL     OW24987   0.400   6.037   1.874
 7697SOL    HW124988   0.440   6.047   1.788
 7697SOL    HW224989   0.360   6.122   1.892
 7698SOL     OW24990   5.093   6.170   4.713
 7698SOL    HW124991   5.138   6.244   4.752
 7698SOL    HW224992   5.137   6.156   4.629
 7699SOL     OW24993   4.460  12.973   7.458
 7699SOL    HW124994   4.489  12.882   7.451
 7699SOL    HW224995   4.366  12.968   7.473
 7700SOL     OW24996  10.395   3.170   6.983
 7700SOL    HW124997  10.359   3.253   7.014
 7700SOL    HW224998  10.339   3.146   6.909
 7701SOL     OW24999  13.175   1.916  12.343
 7701SOL    HW125000  13.114   1.890  12.412
 7701SOL    HW225001  13.160   1.853  12.272
 7702SOL     OW25002  11.852   3.017   1.914
 7702SOL    HW125003  11.779   3.033   1.855
 7702SOL    HW225004  11.930   3.025   1.858
 7703SOL     OW25005   2.193   2.380   6.964
 7703SOL    HW125006   2.284   2.379   6.934
 7703SOL    HW225007   2.193   2.330   7.045
 7704SOL     OW25008   7.807  14.793  11.149
 7704SOL    HW125009   7.737  14.816  11.087
 7704SOL    HW225010   7.883  14.774  11.094
 7705SOL     OW25011   9.866   7.349   0.311
 7705SOL    HW125012   9.773   7.339   0.291
 7705SOL    HW225013   9.911   7.296   0.245
 7706SOL     OW25014  12.116  10.645   5.547
 7706SOL    HW125015  12.130  10.667   5.455
 7706SOL    HW225016  12.191  10.590   5.570
 7707SOL     OW25017  12.383   5.218  10.443
 7707SOL    HW125018  12.453   5.180  10.496
 7707SOL    HW225019  12.420   5.224  10.355
 7708SOL     OW25020   9.204   4.710   6.487
 7708SOL    HW125021   9.142   4.777   6.515
 7708SOL    HW225022   9.280   4.759   6.457
 7709SOL     OW25023   3.610  11.150  12.543
 7709SOL    HW125024   3.518  11.131  12.556
 7709SOL    HW225025   3.618  11.171  12.450
 7710SOL     OW25026   9.599  12.779   7.957
 7710SOL    HW125027   9.522  12.736   7.921
 7710SOL    HW225028   9.584  12.872   7.942
 7711SOL     OW25029   8.828  14.748   2.655
 7711SOL    HW125030   8.747  14.704   2.629
 7711SOL    HW225031   8.859  14.698   2.730
 7712SOL     OW25032   4.541  11.266   7.076
 7712SOL    HW125033   4.495  11.186   7.050
 7712SOL    HW225034   4.611  11.236   7.134
 7713SOL     OW25035   8.949  10.955  13.410
 7713SOL    HW125036   8.991  10.953  13.324
 7713SOL    HW225037   8.960  10.866  13.444
 7714SOL     OW25038   4.492   6.060   9.646
 7714SOL    HW125039   4.465   6.044   9.737
 7714SOL    HW225040   4.432   6.005   9.594
 7715SOL     OW25041   2.560   4.689  13.128
 7715SOL    HW125042   2.587   4.616  13.184
 7715SOL    HW225043   2.636   4.704  13.071
 7716SOL     OW25044   7.129   9.434  14.477
 7716SOL    HW125045   7.069   9.509  14.477
 7716SOL    HW225046   7.184   9.447  14.554
 7717SOL     OW25047  13.546   9.271  13.432
 7717SOL    HW125048  13.482   9.303  13.369
 7717SOL    HW225049  13.629   9.309  13.402
 7718SOL     OW25050   7.403   1.897   0.991
 7718SOL    HW125051   7.312   1.927   0.994
 7718SOL    HW225052   7.441   1.928   1.073
 7719SOL     OW25053   2.594  14.737   1.993
 7719SOL    HW125054   2.593  14.811   2.054
 7719SOL    HW225055   2.683  14.701   2.000
 7720SOL     OW25056   3.597   9.897   7.435
 7720SOL    HW125057   3.576   9.811   7.399
 7720SOL    HW225058   3.553   9.899   7.520
 7721SOL     OW25059   1.147  11.250  11.638
 7721SOL    HW125060   1.147  11.160  11.672
 7721SOL    HW225061   1.234  11.284  11.660
 7722SOL     OW25062  11.512  13.693  11.333
 7722SOL    HW125063  11.439  13.634  11.312
 7722SOL    HW225064  11.590  13.644  11.308
 7723SOL     OW25065   7.253   4.648  11.048
 7723SOL    HW125066   7.314   4.648  11.122
 7723SOL    HW225067   7.169   4.623  11.086
 7724SOL     OW25068  12.036   4.314   5.873
 7724SOL    HW125069  12.035   4.336   5.780
 7724SOL    HW225070  11.955   4.352   5.907
 7725SOL     OW25071   0.794   5.281   6.182
 7725SOL    HW125072   0.740   5.336   6.239
 7725SOL    HW225073   0.880   5.323   6.182
 7726SOL     OW25074   9.712  10.037  12.861
 7726SOL    HW125075   9.764  10.115  12.841
 7726SOL    HW225076   9.683  10.006  12.776
 7727SOL     OW25077   8.050  10.760   8.952
 7727SOL    HW125078   8.089  10.756   9.039
 7727SOL    HW225079   8.038  10.668   8.927
 7728SOL     OW25080   2.674   4.072  10.839
 7728SOL    HW125081   2.767   4.055  10.826
 7728SOL    HW225082   2.652   4.025  10.920
 7729SOL     OW25083   7.128  11.470   3.728
 7729SOL    HW125084   7.222  11.452   3.734
 7729SOL    HW225085   7.113  11.486   3.635
 7730SOL     OW25086   0.603   5.123   0.033
 7730SOL    HW125087   0.656   5.049   0.005
 7730SOL    HW225088   0.523   5.117  14.850
 7731SOL     OW25089   7.800  13.052   1.724
 7731SOL    HW125090   7.713  13.060   1.763
 7731SOL    HW225091   7.847  13.131   1.752
 7732SOL     OW25092   9.825   0.811  14.646
 7732SOL    HW125093   9.804   0.735  14.591
 7732SOL    HW225094   9.750   0.869  14.634
 7733SOL     OW25095   1.431  10.659   9.050
 7733SOL    HW125096   1.358  10.714   9.079
 7733SOL    HW225097   1.414  10.645   8.957
 7734SOL     OW25098   5.653   5.152   4.873
 7734SOL    HW125099   5.732   5.120   4.829
 7734SOL    HW225100   5.599   5.074   4.884
 7735SOL     OW25101   0.636  13.200   1.667
 7735SOL    HW125102   0.605  13.170   1.582
 7735SOL    HW225103   0.721  13.157   1.678
 7736SOL     OW25104   8.528   2.651   9.803
 7736SOL    HW125105   8.522   2.747   9.798
 7736SOL    HW225106   8.586   2.627   9.731
 7737SOL     OW25107   7.179  13.280   7.664
 7737SOL    HW125108   7.144  13.325   7.587
 7737SOL    HW225109   7.125  13.201   7.672
 7738SOL     OW25110   5.798   5.599   8.641
 7738SOL    HW125111   5.804   5.560   8.554
 7738SOL    HW225112   5.738   5.673   8.630
 7739SOL     OW25113   6.594   2.850   9.306
 7739SOL    HW125114   6.628   2.816   9.223
 7739SOL    HW225115   6.517   2.797   9.324
 7740SOL     OW25116   2.398  12.984  13.597
 7740SOL    HW125117   2.417  12.922  13.526
 7740SOL    HW225118   2.483  12.999  13.639
 7741SOL     OW25119   2.792  14.237   9.314
 7741SOL    HW125120   2.776  14.329   9.295
 7741SOL    HW225121   2.887  14.229   9.315
 7742SOL     OW25122   7.981   1.460   5.229
 7742SOL    HW125123   7.895   1.491   5.199
 7742SOL    HW225124   7.961   1.381   5.280
 7743SOL     OW25125   5.428  11.678  12.642
 7743SOL    HW125126   5.386  11.737  12.579
 7743SOL    HW225127   5.355  11.638  12.689
 7744SOL     OW25128   3.790   1.229   8.099
 7744SOL    HW125129   3.769   1.310   8.052
 7744SOL    HW225130   3.863   1.191   8.050
 7745SOL     OW25131  10.086  11.552   1.419
 7745SOL    HW125132  10.100  11.647   1.411
 7745SOL    HW225133  10.018  11.544   1.486
 7746SOL     OW25134   0.025   0.586   4.541
 7746SOL    HW125135  14.860   0.608   4.455
 7746SOL    HW225136  14.818   0.570   4.595
 7747SOL     OW25137   5.701   3.873   1.502
 7747SOL    HW125138   5.692   3.969   1.500
 7747SOL    HW225139   5.754   3.856   1.580
 7748SOL     OW25140  10.629   7.841   4.365
 7748SOL    HW125141  10.625   7.934   4.387
 7748SOL    HW225142  10.659   7.839   4.274
 7749SOL     OW25143  13.358   5.218  14.854
 7749SOL    HW125144  13.268   5.214   0.017
 7749SOL    HW225145  13.354   5.176  14.769
 7750SOL     OW25146  11.397   7.874   9.565
 7750SOL    HW125147  11.445   7.947   9.604
 7750SOL    HW225148  11.463   7.824   9.517
 7751SOL     OW25149   9.871  11.924  13.395
 7751SOL    HW125150   9.871  11.837  13.355
 7751SOL    HW225151   9.924  11.977  13.335
 7752SOL     OW25152  13.504   7.211  10.654
 7752SOL    HW125153  13.539   7.232  10.741
 7752SOL    HW225154  13.416   7.178  10.671
 7753SOL     OW25155   3.073   3.847  13.010
 7753SOL    HW125156   3.143   3.808  12.959
 7753SOL    HW225157   3.117   3.885  13.086
 7754SOL     OW25158   4.854   8.173   4.313
 7754SOL    HW125159   4.846   8.078   4.314
 7754SOL    HW225160   4.859   8.198   4.406
 7755SOL     OW25161   9.872   2.924  11.945
 7755SOL    HW125162   9.865   2.869  12.022
 7755SOL    HW225163   9.821   3.002  11.966
 7756SOL     OW25164   1.634  11.681  14.269
 7756SOL    HW125165   1.671  11.738  14.201
 7756SOL    HW225166   1.701  11.679  14.337
 7757SOL     OW25167   4.957   3.731   0.500
 7757SOL    HW125168   4.919   3.739   0.587
 7757SOL    HW225169   4.885   3.754   0.440
 7758SOL     OW25170  14.282  14.658   1.423
 7758SOL    HW125171  14.335  14.581   1.447
 7758SOL    HW225172  14.192  14.632   1.443
 7759SOL     OW25173   4.918   2.589   6.623
 7759SOL    HW125174   4.878   2.660   6.674
 7759SOL    HW225175   4.999   2.568   6.669
 7760SOL     OW25176   0.780   0.948  11.599
 7760SOL    HW125177   0.846   0.978  11.537
 7760SOL    HW225178   0.697   0.973  11.559
 7761SOL     OW25179   1.368   8.295   7.587
 7761SOL    HW125180   1.388   8.254   7.503
 7761SOL    HW225181   1.397   8.232   7.653
 7762SOL     OW25182   3.114  13.149  11.471
 7762SOL    HW125183   3.067  13.219  11.515
 7762SOL    HW225184   3.087  13.156  11.379
 7763SOL     OW25185  14.619  10.650   3.398
 7763SOL    HW125186  14.566  10.675   3.473
 7763SOL    HW225187  14.669  10.729   3.375
 7764SOL     OW25188   6.097  13.306   8.426
 7764SOL    HW125189   6.028  13.291   8.361
 7764SOL    HW225190   6.119  13.399   8.416
 7765SOL     OW25191  13.724  10.438   4.562
 7765SOL    HW125192  13.804  10.442   4.613
 7765SOL    HW225193  13.663  10.388   4.616
 7766SOL     OW25194  14.565  14.632   8.313
 7766SOL    HW125195  14.535  14.703   8.256
 7766SOL    HW225196  14.561  14.553   8.258
 7767SOL     OW25197  11.892   9.879   8.967
 7767SOL    HW125198  11.921   9.912   8.882
 7767SOL    HW225199  11.930   9.940   9.031
 7768SOL     OW25200   2.875   1.608   3.155
 7768SOL    HW125201   2.970   1.613   3.142
 7768SOL    HW225202   2.838   1.644   3.075
 7769SOL     OW25203   7.985   5.596  13.799
 7769SOL    HW125204   7.939   5.626  13.878
 7769SOL    HW225205   7.926   5.618  13.727
 7770SOL     OW25206   1.557  12.242  13.094
 7770SOL    HW125207   1.496  12.280  13.030
 7770SOL    HW225208   1.607  12.178  13.044
 7771SOL     OW25209   4.075  12.553  12.402
 7771SOL    HW125210   4.033  12.631  12.367
 7771SOL    HW225211   4.130  12.521  12.331
 7772SOL     OW25212   0.497  14.482   9.956
 7772SOL    HW125213   0.450  14.438  10.027
 7772SOL    HW225214   0.576  14.517   9.998
 7773SOL     OW25215   9.516   3.246   3.351
 7773SOL    HW125216   9.571   3.171   3.373
 7773SOL    HW225217   9.483   3.278   3.435
 7774SOL     OW25218   9.034   3.674   9.374
 7774SOL    HW125219   8.992   3.759   9.359
 7774SOL    HW225220   9.112   3.695   9.424
 7775SOL     OW25221   7.270  11.094  14.598
 7775SOL    HW125222   7.334  11.023  14.600
 7775SOL    HW225223   7.253  11.109  14.505
 7776SOL     OW25224   6.567   8.547   2.095
 7776SOL    HW125225   6.622   8.470   2.084
 7776SOL    HW225226   6.478   8.513   2.106
 7777SOL     OW25227   5.445   6.250   4.063
 7777SOL    HW125228   5.441   6.343   4.087
 7777SOL    HW225229   5.371   6.210   4.109
 7778SOL     OW25230   9.925  11.663   5.732
 7778SOL    HW125231   9.979  11.684   5.809
 7778SOL    HW225232   9.870  11.740   5.720
 7779SOL     OW25233  10.372   7.076  10.161
 7779SOL    HW125234  10.386   7.170  10.156
 7779SOL    HW225235  10.457   7.040  10.187
 7780SOL     OW25236   8.473  11.312   5.652
 7780SOL    HW125237   8.428  11.228   5.656
 7780SOL    HW225238   8.445  11.350   5.569
 7781SOL     OW25239  14.601   6.264   0.163
 7781SOL    HW125240  14.649   6.327   0.218
 7781SOL    HW225241  14.528   6.235   0.217
 7782SOL     OW25242   5.002  14.119   8.477
 7782SOL    HW125243   5.032  14.151   8.392
 7782SOL    HW225244   4.951  14.041   8.456
 7783SOL     OW25245   7.747   1.819   5.777
 7783SOL    HW125246   7.775   1.782   5.693
 7783SOL    HW225247   7.697   1.897   5.753
 7784SOL     OW25248   8.637   6.233  10.331
 7784SOL    HW125249   8.635   6.323  10.296
 7784SOL    HW225250   8.621   6.178  10.254
 7785SOL     OW25251   1.718   9.361   2.768
 7785SOL    HW125252   1.692   9.341   2.678
 7785SOL    HW225253   1.650   9.320   2.822
 7786SOL     OW25254  11.271   2.644   0.480
 7786SOL    HW125255  11.246   2.716   0.536
 7786SOL    HW225256  11.364   2.629   0.499
 7787SOL     OW25257   9.585   3.013  13.027
 7787SOL    HW125258   9.572   3.079  13.096
 7787SOL    HW225259   9.575   2.929  13.072
 7788SOL     OW25260   1.279   1.362  13.479
 7788SOL    HW125261   1.339   1.423  13.436
 7788SOL    HW225262   1.257   1.298  13.411
 7789SOL     OW25263  10.129   6.676   6.202
 7789SOL    HW125264  10.190   6.749   6.201
 7789SOL    HW225265  10.117   6.654   6.110
 7790SOL     OW25266   2.872  13.631  13.029
 7790SOL    HW125267   2.805  13.565  13.045
 7790SOL    HW225268   2.823  13.712  13.017
 7791SOL     OW25269   6.905   0.615   6.490
 7791SOL    HW125270   6.958   0.663   6.426
 7791SOL    HW225271   6.864   0.684   6.543
 7792SOL     OW25272   5.233  11.624  12.429
 7792SOL    HW125273   5.173  11.563  12.472
 7792SOL    HW225274   5.205  11.624  12.338
 7793SOL     OW25275   6.703  12.617   6.750
 7793SOL    HW125276   6.749  12.701   6.754
 7793SOL    HW225277   6.758  12.557   6.800
 7794SOL     OW25278  11.929   7.432   7.202
 7794SOL    HW125279  11.903   7.362   7.261
 7794SOL    HW225280  11.862   7.432   7.133
 7795SOL     OW25281   3.301   0.001   1.517
 7795SOL    HW125282   3.233   0.049   1.564
 7795SOL    HW225283   3.277  14.779   1.525
 7796SOL     OW25284   7.981   4.364  13.044
 7796SOL    HW125285   7.909   4.303  13.058
 7796SOL    HW225286   8.033   4.324  12.975
 7797SOL     OW25287   6.348   1.055  12.918
 7797SOL    HW125288   6.439   1.073  12.898
 7797SOL    HW225289   6.342   1.063  13.014
 7798SOL     OW25290  10.063   7.490  14.010
 7798SOL    HW125291  10.125   7.436  14.059
 7798SOL    HW225292  10.012   7.535  14.077
 7799SOL     OW25293  10.573   1.245  11.052
 7799SOL    HW125294  10.656   1.197  11.057
 7799SOL    HW225295  10.506   1.178  11.040
 7800SOL     OW25296   0.826   1.615   3.683
 7800SOL    HW125297   0.769   1.545   3.653
 7800SOL    HW225298   0.896   1.571   3.731
 7801SOL     OW25299  14.601  11.173   3.061
 7801SOL    HW125300  14.534  11.137   3.119
 7801SOL    HW225301  14.572  11.263   3.044
 7802SOL     OW25302   4.208  11.373   6.634
 7802SOL    HW125303   4.119  11.344   6.615
 7802SOL    HW225304   4.253  11.294   6.666
 7803SOL     OW25305   2.626   4.875  11.528
 7803SOL    HW125306   2.653   4.964  11.503
 7803SOL    HW225307   2.704   4.835  11.563
 7804SOL     OW25308   5.233  14.023   8.278
 7804SOL    HW125309   5.323  13.993   8.266
 7804SOL    HW225310   5.180  13.961   8.228
 7805SOL     OW25311  11.644   8.112   6.049
 7805SOL    HW125312  11.557   8.129   6.086
 7805SOL    HW225313  11.633   8.035   5.994
 7806SOL     OW25314   8.192   3.742   4.159
 7806SOL    HW125315   8.110   3.737   4.209
 7806SOL    HW225316   8.242   3.666   4.188
 7807SOL     OW25317  14.481  13.463   3.478
 7807SOL    HW125318  14.410  13.509   3.522
 7807SOL    HW225319  14.560  13.496   3.519
 7808SOL     OW25320   9.824   8.455  11.806
 7808SOL    HW125321   9.812   8.459  11.711
 7808SOL    HW225322   9.739   8.477  11.842
 7809SOL     OW25323   0.909  13.296   9.720
 7809SOL    HW125324   0.817  13.295   9.745
 7809SOL    HW225325   0.910  13.339   9.634
 7810SOL     OW25326   4.812  10.204   8.293
 7810SOL    HW125327   4.889  10.151   8.271
 7810SOL    HW225328   4.740  10.163   8.245
 7811SOL     OW25329  10.345   4.160  10.558
 7811SOL    HW125330  10.432   4.191  10.583
 7811SOL    HW225331  10.285   4.215  10.608
 7812SOL     OW25332   6.649   5.019   6.594
 7812SOL    HW125333   6.670   5.111   6.608
 7812SOL    HW225334   6.598   5.018   6.514
 7813SOL     OW25335   7.203  11.256   6.694
 7813SOL    HW125336   7.162  11.180   6.652
 7813SOL    HW225337   7.150  11.330   6.666
 7814SOL     OW25338   2.355   9.631  10.075
 7814SOL    HW125339   2.439   9.589  10.096
 7814SOL    HW225340   2.318   9.652  10.161
 7815SOL     OW25341  13.175  12.523   7.651
 7815SOL    HW125342  13.084  12.513   7.680
 7815SOL    HW225343  13.225  12.528   7.732
 7816SOL     OW25344  10.149   8.428   8.464
 7816SOL    HW125345  10.229   8.380   8.441
 7816SOL    HW225346  10.098   8.429   8.384
 7817SOL     OW25347  11.841  12.364  11.147
 7817SOL    HW125348  11.772  12.376  11.082
 7817SOL    HW225349  11.922  12.379  11.099
 7818SOL     OW25350  12.608  14.866   3.953
 7818SOL    HW125351  12.643   0.081   3.927
 7818SOL    HW225352  12.585  14.824   3.870
 7819SOL     OW25353   5.930   8.088   4.756
 7819SOL    HW125354   5.940   8.050   4.669
 7819SOL    HW225355   6.019   8.112   4.783
 7820SOL     OW25356  12.812  14.669   5.653
 7820SOL    HW125357  12.741  14.718   5.612
 7820SOL    HW225358  12.875  14.656   5.582
 7821SOL     OW25359  14.121   9.689  12.088
 7821SOL    HW125360  14.066   9.735  12.152
 7821SOL    HW225361  14.098   9.728  12.004
 7822SOL     OW25362   2.481   6.509   8.925
 7822SOL    HW125363   2.532   6.452   8.983
 7822SOL    HW225364   2.481   6.594   8.969
 7823SOL     OW25365   0.735  13.208   4.819
 7823SOL    HW125366   0.773  13.240   4.900
 7823SOL    HW225367   0.713  13.287   4.770
 7824SOL     OW25368   0.084   4.483   6.067
 7824SOL    HW125369   0.068   4.497   5.974
 7824SOL    HW225370   0.000   4.501   6.109
 7825SOL     OW25371  14.161  12.716  11.736
 7825SOL    HW125372  14.238  12.764  11.767
 7825SOL    HW225373  14.121  12.774  11.671
 7826SOL     OW25374   8.862  14.032   4.224
 7826SOL    HW125375   8.792  14.071   4.172
 7826SOL    HW225376   8.868  14.089   4.301
 7827SOL     OW25377   9.162   4.163   7.535
 7827SOL    HW125378   9.101   4.156   7.609
 7827SOL    HW225379   9.111   4.207   7.467
 7828SOL     OW25380   8.493   3.396   2.951
 7828SOL    HW125381   8.410   3.354   2.972
 7828SOL    HW225382   8.518   3.442   3.031
 7829SOL     OW25383   2.360   2.558   9.651
 7829SOL    HW125384   2.327   2.472   9.676
 7829SOL    HW225385   2.426   2.578   9.718
 7830SOL     OW25386   8.771   9.719   3.263
 7830SOL    HW125387   8.830   9.795   3.260
 7830SOL    HW225388   8.780   9.685   3.351
 7831SOL     OW25389   4.320  12.491   6.323
 7831SOL    HW125390   4.374  12.428   6.275
 7831SOL    HW225391   4.384  12.550   6.364
 7832SOL     OW25392   4.828  10.553  14.387
 7832SOL    HW125393   4.866  10.470  14.359
 7832SOL    HW225394   4.753  10.566  14.330
 7833SOL     OW25395   5.859   3.207   6.664
 7833SOL    HW125396   5.938   3.247   6.701
 7833SOL    HW225397   5.877   3.113   6.668
 7834SOL     OW25398   3.785  10.875   9.314
 7834SOL    HW125399   3.812  10.835   9.397
 7834SOL    HW225400   3.842  10.836   9.249
 7835SOL     OW25401   6.219  13.424  12.299
 7835SOL    HW125402   6.148  13.367  12.326
 7835SOL    HW225403   6.237  13.399  12.208
 7836SOL     OW25404   8.433  12.169  11.858
 7836SOL    HW125405   8.376  12.094  11.874
 7836SOL    HW225406   8.390  12.217  11.787
 7837SOL     OW25407   8.165  11.823  10.143
 7837SOL    HW125408   8.244  11.825  10.089
 7837SOL    HW225409   8.157  11.912  10.177
 7838SOL     OW25410   0.203  12.551   3.012
 7838SOL    HW125411   0.133  12.529   2.950
 7838SOL    HW225412   0.271  12.486   2.996
 7839SOL     OW25413   8.019  11.720   8.579
 7839SOL    HW125414   7.946  11.711   8.517
 7839SOL    HW225415   8.013  11.643   8.635
 7840SOL     OW25416   1.233  13.829   2.396
 7840SOL    HW125417   1.254  13.922   2.387
 7840SOL    HW225418   1.153  13.816   2.345
 7841SOL     OW25419   5.301   0.808   2.548
 7841SOL    HW125420   5.325   0.859   2.625
 7841SOL    HW225421   5.214   0.840   2.523
 7842SOL     OW25422   2.332   9.708   3.230
 7842SOL    HW125423   2.424   9.729   3.216
 7842SOL    HW225424   2.292   9.718   3.144
 7843SOL     OW25425   4.575  12.541   8.491
 7843SOL    HW125426   4.665  12.523   8.519
 7843SOL    HW225427   4.582  12.616   8.432
 7844SOL     OW25428   5.952   6.658  11.513
 7844SOL    HW125429   5.959   6.610  11.596
 7844SOL    HW225430   6.039   6.650  11.473
 7845SOL     OW25431   7.191   2.717  11.646
 7845SOL    HW125432   7.242   2.787  11.605
 7845SOL    HW225433   7.210   2.639  11.593
 7846SOL     OW25434   9.382   9.448   0.955
 7846SOL    HW125435   9.403   9.538   0.980
 7846SOL    HW225436   9.348   9.455   0.866
 7847SOL     OW25437   6.955   8.836   3.930
 7847SOL    HW125438   6.998   8.918   3.955
 7847SOL    HW225439   6.937   8.792   4.014
 7848SOL     OW25440  11.886   0.130   5.822
 7848SOL    HW125441  11.816   0.070   5.851
 7848SOL    HW225442  11.928   0.158   5.903
 7849SOL     OW25443  12.744  11.181  11.783
 7849SOL    HW125444  12.726  11.215  11.871
 7849SOL    HW225445  12.672  11.215  11.729
 7850SOL     OW25446   5.450  11.166   5.404
 7850SOL    HW125447   5.448  11.106   5.329
 7850SOL    HW225448   5.543  11.174   5.425
 7851SOL     OW25449   9.542   7.540  10.842
 7851SOL    HW125450   9.619   7.509  10.889
 7851SOL    HW225451   9.474   7.476  10.863
 7852SOL     OW25452   3.859  10.054   0.685
 7852SOL    HW125453   3.766  10.053   0.660
 7852SOL    HW225454   3.864  10.121   0.753
 7853SOL     OW25455   6.600   7.014   2.177
 7853SOL    HW125456   6.558   6.946   2.125
 7853SOL    HW225457   6.596   6.982   2.267
 7854SOL     OW25458  11.765   7.585   1.226
 7854SOL    HW125459  11.745   7.631   1.308
 7854SOL    HW225460  11.740   7.494   1.243
 7855SOL     OW25461  13.679  13.420   9.234
 7855SOL    HW125462  13.593  13.390   9.263
 7855SOL    HW225463  13.660  13.475   9.158
 7856SOL     OW25464  13.082   8.337   6.106
 7856SOL    HW125465  13.132   8.322   6.187
 7856SOL    HW225466  13.147   8.329   6.036
 7857SOL     OW25467   8.660   3.747   6.047
 7857SOL    HW125468   8.570   3.780   6.052
 7857SOL    HW225469   8.657   3.661   6.088
 7858SOL     OW25470   1.185   6.104   4.661
 7858SOL    HW125471   1.254   6.116   4.727
 7858SOL    HW225472   1.132   6.031   4.694
 7859SOL     OW25473   8.630  10.613   7.660
 7859SOL    HW125474   8.560  10.588   7.600
 7859SOL    HW225475   8.646  10.535   7.712
 7860SOL     OW25476   7.945   4.982   9.932
 7860SOL    HW125477   8.014   5.043   9.905
 7860SOL    HW225478   7.887   5.034   9.988
 7861SOL     OW25479  10.053   9.714   0.202
 7861SOL    HW125480  10.095   9.754   0.278
 7861SOL    HW225481  10.108   9.739   0.128
 7862SOL     OW25482   1.127  12.745  11.427
 7862SOL    HW125483   1.073  12.726  11.351
 7862SOL    HW225484   1.179  12.821  11.401
 7863SOL     OW25485   2.639   7.502   3.191
 7863SOL    HW125486   2.660   7.438   3.260
 7863SOL    HW225487   2.723   7.543   3.170
 7864SOL     OW25488   5.273  10.785  10.716
 7864SOL    HW125489   5.295  10.832  10.636
 7864SOL    HW225490   5.355  10.780  10.765
 7865SOL     OW25491   8.006  10.308  11.374
 7865SOL    HW125492   7.989  10.253  11.298
 7865SOL    HW225493   8.057  10.382  11.340
 7866SOL     OW25494   5.015   8.286   0.895
 7866SOL    HW125495   4.953   8.226   0.935
 7866SOL    HW225496   5.029   8.354   0.960
 7867SOL     OW25497   8.233   5.189   7.783
 7867SOL    HW125498   8.203   5.261   7.838
 7867SOL    HW225499   8.251   5.118   7.845
 7868SOL     OW25500   0.947  13.782   9.434
 7868SOL    HW125501   0.939  13.837   9.512
 7868SOL    HW225502   0.867  13.799   9.385
 7869SOL     OW25503   7.267  10.486   5.458
 7869SOL    HW125504   7.253  10.570   5.415
 7869SOL    HW225505   7.292  10.509   5.548
 7870SOL     OW25506   1.687   7.361   0.759
 7870SOL    HW125507   1.782   7.345   0.761
 7870SOL    HW225508   1.667   7.371   0.666
 7871SOL     OW25509   5.958   4.408   6.608
 7871SOL    HW125510   5.905   4.433   6.532
 7871SOL    HW225511   5.975   4.314   6.595
 7872SOL     OW25512   9.172   4.043   0.425
 7872SOL    HW125513   9.192   4.123   0.377
 7872SOL    HW225514   9.077   4.047   0.440
 7873SOL     OW25515   5.102   1.446  12.091
 7873SOL    HW125516   5.080   1.465  12.182
 7873SOL    HW225517   5.039   1.496  12.040
 7874SOL     OW25518   0.145   4.488   0.139
 7874SOL    HW125519   0.133   4.580   0.115
 7874SOL    HW225520   0.221   4.460   0.087
 7875SOL     OW25521   3.848   4.595  11.397
 7875SOL    HW125522   3.914   4.554  11.453
 7875SOL    HW225523   3.769   4.544  11.411
 7876SOL     OW25524   3.129   7.044   6.347
 7876SOL    HW125525   3.184   7.060   6.424
 7876SOL    HW225526   3.067   6.977   6.376
 7877SOL     OW25527   4.691  11.618   2.618
 7877SOL    HW125528   4.623  11.640   2.682
 7877SOL    HW225529   4.649  11.556   2.559
 7878SOL     OW25530   3.435   9.068  12.928
 7878SOL    HW125531   3.467   9.139  12.873
 7878SOL    HW225532   3.342   9.088  12.942
 7879SOL     OW25533  13.796   2.885   3.030
 7879SOL    HW125534  13.815   2.847   3.115
 7879SOL    HW225535  13.751   2.967   3.050
 7880SOL     OW25536  11.052  13.040  13.169
 7880SOL    HW125537  10.984  12.975  13.192
 7880SOL    HW225538  11.076  13.079  13.253
 7881SOL     OW25539   4.530   8.074   0.237
 7881SOL    HW125540   4.491   8.103   0.320
 7881SOL    HW225541   4.482   8.123   0.171
 7882SOL     OW25542  12.514   2.826  13.541
 7882SOL    HW125543  12.568   2.753  13.572
 7882SOL    HW225544  12.517   2.819  13.445
 7883SOL     OW25545   8.511   7.020  13.628
 7883SOL    HW125546   8.495   7.113  13.641
 7883SOL    HW225547   8.514   7.008  13.533
 7884SOL     OW25548   9.722   8.157   7.591
 7884SOL    HW125549   9.816   8.140   7.592
 7884SOL    HW225550   9.683   8.080   7.632
 7885SOL     OW25551   9.678  12.149   0.846
 7885SOL    HW125552   9.583  12.159   0.834
 7885SOL    HW225553   9.696  12.059   0.823
 7886SOL     OW25554   9.346   2.857   5.651
 7886SOL    HW125555   9.280   2.791   5.676
 7886SOL    HW225556   9.376   2.893   5.734
 7887SOL     OW25557   3.837   1.951   8.140
 7887SOL    HW125558   3.926   1.953   8.176
 7887SOL    HW225559   3.785   2.002   8.203
 7888SOL     OW25560  13.689   0.470   1.708
 7888SOL    HW125561  13.651   0.472   1.620
 7888SOL    HW225562  13.774   0.428   1.697
 7889SOL     OW25563   0.366   5.161   9.040
 7889SOL    HW125564   0.300   5.121   8.983
 7889SOL    HW225565   0.449   5.124   9.011
 7890SOL     OW25566   1.611   5.226  13.828
 7890SOL    HW125567   1.704   5.229  13.850
 7890SOL    HW225568   1.586   5.318  13.820
 7891SOL     OW25569   3.485   7.766   0.644
 7891SOL    HW125570   3.396   7.771   0.608
 7891SOL    HW225571   3.543   7.778   0.569
 7892SOL     OW25572   9.203   8.489   4.509
 7892SOL    HW125573   9.243   8.417   4.557
 7892SOL    HW225574   9.271   8.556   4.505
 7893SOL     OW25575   0.467  11.993   2.841
 7893SOL    HW125576   0.484  11.906   2.806
 7893SOL    HW225577   0.481  12.052   2.767
 7894SOL     OW25578   5.963   1.679   2.801
 7894SOL    HW125579   5.984   1.623   2.726
 7894SOL    HW225580   6.015   1.643   2.873
 7895SOL     OW25581   1.051   3.821   2.899
 7895SOL    HW125582   0.972   3.860   2.861
 7895SOL    HW225583   1.019   3.743   2.944
 7896SOL     OW25584   2.205   5.285  11.629
 7896SOL    HW125585   2.285   5.252  11.589
 7896SOL    HW225586   2.168   5.345  11.564
 7897SOL     OW25587  14.260   7.364  13.044
 7897SOL    HW125588  14.240   7.455  13.064
 7897SOL    HW225589  14.321   7.337  13.113
 7898SOL     OW25590  13.307  10.581   2.944
 7898SOL    HW125591  13.342  10.556   2.858
 7898SOL    HW225592  13.213  10.564   2.937
 7899SOL     OW25593   5.760  12.474  11.918
 7899SOL    HW125594   5.707  12.395  11.933
 7899SOL    HW225595   5.811  12.484  11.998
 7900SOL     OW25596   9.514   1.444   5.872
 7900SOL    HW125597   9.447   1.510   5.854
 7900SOL    HW225598   9.587   1.492   5.910
 7901SOL     OW25599   3.359   7.150   7.016
 7901SOL    HW125600   3.296   7.202   6.966
 7901SOL    HW225601   3.382   7.205   7.091
 7902SOL     OW25602   4.608   5.632   8.331
 7902SOL    HW125603   4.635   5.604   8.243
 7902SOL    HW225604   4.602   5.728   8.324
 7903SOL     OW25605   4.511  10.812  13.435
 7903SOL    HW125606   4.418  10.792  13.433
 7903SOL    HW225607   4.515  10.908  13.435
 7904SOL     OW25608   7.516   7.236  13.305
 7904SOL    HW125609   7.565   7.203  13.230
 7904SOL    HW225610   7.428   7.201  13.293
 7905SOL     OW25611  10.577   4.399   3.977
 7905SOL    HW125612  10.524   4.475   4.002
 7905SOL    HW225613  10.513   4.336   3.943
 7906SOL     OW25614   3.314  10.656  10.031
 7906SOL    HW125615   3.403  10.692  10.041
 7906SOL    HW225616   3.319  10.570  10.074
 7907SOL     OW25617  13.508   6.789   4.717
 7907SOL    HW125618  13.494   6.699   4.746
 7907SOL    HW225619  13.512   6.840   4.798
 7908SOL     OW25620  11.021  13.847  11.908
 7908SOL    HW125621  10.944  13.837  11.964
 7908SOL    HW225622  11.013  13.778  11.843
 7909SOL     OW25623   2.880  11.843   7.804
 7909SOL    HW125624   2.942  11.885   7.744
 7909SOL    HW225625   2.866  11.756   7.767
 7910SOL     OW25626   0.023   7.996   3.541
 7910SOL    HW125627   0.111   8.019   3.571
 7910SOL    HW225628  14.847   7.969   3.621
 7911SOL     OW25629   2.416  14.692   3.586
 7911SOL    HW125630   2.507  14.716   3.564
 7911SOL    HW225631   2.392  14.628   3.519
 7912SOL     OW25632  11.239   4.894   2.735
 7912SOL    HW125633  11.177   4.894   2.808
 7912SOL    HW225634  11.268   4.985   2.727
 7913SOL     OW25635  12.689   1.097   6.337
 7913SOL    HW125636  12.743   1.055   6.404
 7913SOL    HW225637  12.610   1.043   6.334
 7914SOL     OW25638   3.473   1.476   4.041
 7914SOL    HW125639   3.405   1.472   4.109
 7914SOL    HW225640   3.514   1.562   4.054
 7915SOL     OW25641   5.122   0.652  12.680
 7915SOL    HW125642   5.202   0.604  12.658
 7915SOL    HW225643   5.150   0.743  12.687
 7916SOL     OW25644   2.894  11.659   5.944
 7916SOL    HW125645   2.908  11.564   5.949
 7916SOL    HW225646   2.802  11.671   5.967
 7917SOL     OW25647   8.869  11.910   4.050
 7917SOL    HW125648   8.799  11.864   4.003
 7917SOL    HW225649   8.875  11.866   4.134
 7918SOL     OW25650   4.207   9.960   8.429
 7918SOL    HW125651   4.270   9.890   8.414
 7918SOL    HW225652   4.158   9.932   8.506
 7919SOL     OW25653   7.981  11.854   5.218
 7919SOL    HW125654   7.968  11.939   5.176
 7919SOL    HW225655   7.942  11.864   5.304
 7920SOL     OW25656   8.738   5.029   4.987
 7920SOL    HW125657   8.699   5.086   5.054
 7920SOL    HW225658   8.689   5.050   4.907
 7921SOL     OW25659  14.593   2.981  14.206
 7921SOL    HW125660  14.645   2.956  14.130
 7921SOL    HW225661  14.628   3.067  14.232
 7922SOL     OW25662   0.639  12.784   7.527
 7922SOL    HW125663   0.688  12.820   7.453
 7922SOL    HW225664   0.696  12.715   7.562
 7923SOL     OW25665   2.926  12.920   7.918
 7923SOL    HW125666   2.853  12.974   7.887
 7923SOL    HW225667   2.903  12.898   8.008
 7924NA      NA25668   6.501   6.765   4.772
 7925NA      NA25669   3.098   9.602   8.512
 7926NA      NA25670   0.706   4.714   2.446
 7927NA      NA25671   5.823   6.541   5.832
 7928NA      NA25672   5.894   7.444   7.952
 7929NA      NA25673  14.563   7.693   3.299
 7930NA      NA25674   5.424   8.853   9.061
 7931NA      NA25675   5.790   8.606   6.974
 7932NA      NA25676   4.991   9.679   9.795
 7933NA      NA25677  13.607   6.622   5.614
 7934NA      NA25678   7.433   6.532   5.895
 7935NA      NA25679   5.855  10.658  11.309
 7936NA      NA25680   6.905   5.569   1.858
 7937NA      NA25681   0.273  10.464   9.211
 7938NA      NA25682   4.581  10.223   8.479
 7939NA      NA25683   8.011   5.479   2.607
 7940NA      NA25684  12.056   1.914   7.778
 7941NA      NA25685   7.629   5.799   3.892
 7942NA      NA25686   1.791   6.362   6.231
 7943NA      NA25687  11.696  12.458  11.604
 7944NA      NA25688   6.554   3.442   6.953
 7945NA      NA25689  10.775   8.615   7.066
 7946NA      NA25690   7.179   7.934   5.902
 7947NA      NA25691   5.357   9.456   7.110
 7948NA      NA25692   5.639   8.411   5.844
 7949NA      NA25693  13.633   7.967  13.276
 7950NA      NA25694   6.744   8.099   2.939
 7951NA      NA25695   7.704   5.648  13.480
 7952NA      NA25696  11.336  14.402  11.628
 7953NA      NA25697   7.357  10.678   4.493
 7954NA      NA25698   8.042   6.691   8.372
 7955NA      NA25699   6.812   6.649   5.731
 7956NA      NA25700   8.874   8.833  10.207
 7957NA      NA25701   5.903   7.912   9.978
 7958NA      NA25702   5.551   7.407   7.071
 7959NA      NA25703   6.044  10.642   8.493
 7960NA      NA25704   0.254   8.130   9.106
 7961NA      NA25705   3.012   5.608   0.578
 7962NA      NA25706   6.147   9.854   7.905
 7963NA      NA25707   4.849   9.190  10.175
 7964NA      NA25708   5.828  10.269   9.520
 7965NA      NA25709   7.271   6.751   4.038
 7966NA      NA25710  10.671  13.621   5.893
 7967NA      NA25711   5.054   5.921   4.716
 7968NA      NA25712   8.428   3.721   7.810
 7969NA      NA25713   6.040   6.277   7.184
 7970NA      NA25714   4.182   5.205   6.387
 7971NA      NA25715   7.426   3.319   4.420
 7972NA      NA25716   5.793   5.186   4.428
 7973NA      NA25717  11.050   8.011  12.223
 7974NA      NA25718   6.215   9.407   6.667
 7975NA      NA25719   5.778   8.929  10.102
 7976NA      NA25720   4.056  10.469   8.596
 7977NA      NA25721   5.194   0.087   6.102
 7978NA      NA25722   2.227   7.531  11.524
 7979NA      NA25723   0.608   4.097  10.011
 7980NA      NA25724   9.304   1.719   1.528
 7981NA      NA25725   5.571   9.910   7.983
 7982NA      NA25726   6.865   7.404   8.132
 7983NA      NA25727   7.096   5.497   5.801
 7984NA      NA25728   6.163   9.225   7.892
 7985NA      NA25729  12.519   5.611  14.714
 7986NA      NA25730  13.183  12.090  10.755
 7987NA      NA25731   1.071  14.561  14.135
  14.86975  14.86975  14.86975
